Protein in water t=   0.00000 step= 0
325744
    1DG5    H5T    1   6.540  10.035   0.907
    1DG5    O5'    2   6.630  10.002   0.908
    1DG5    C5'    3   6.644   9.949   1.036
    1DG5   H5'1    4   6.560   9.881   1.048
    1DG5   H5'2    5   6.642  10.033   1.105
    1DG5    C4'    6   6.776   9.879   1.066
    1DG5    H4'    7   6.768   9.780   1.019
    1DG5    O4'    8   6.888   9.954   1.021
    1DG5    C1'    9   6.992   9.945   1.120
    1DG5    H1'   10   7.037   9.846   1.120
    1DG5     N9   11   7.102  10.041   1.106
    1DG5     C8   12   7.131  10.154   1.178
    1DG5     H8   13   7.055  10.195   1.243
    1DG5     N7   14   7.245  10.208   1.153
    1DG5     C5   15   7.297  10.119   1.058
    1DG5     C6   16   7.420  10.125   0.988
    1DG5     O6   17   7.509  10.212   1.001
    1DG5     N1   18   7.447  10.019   0.910
    1DG5     H1   19   7.532  10.025   0.857
    1DG5     C2   20   7.360   9.918   0.895
    1DG5     N2   21   7.398   9.814   0.829
    1DG5    H21   22   7.486   9.815   0.780
    1DG5    H22   23   7.352   9.729   0.858
    1DG5     N3   24   7.241   9.904   0.960
    1DG5     C4   25   7.215  10.010   1.041
    1DG5    C3'   26   6.788   9.873   1.223
    1DG5    H3'   27   6.690   9.901   1.262
    1DG5    C2'   28   6.902   9.977   1.236
    1DG5   H2'1   29   6.855  10.075   1.228
    1DG5   H2'2   30   6.963   9.960   1.324
    1DG5    O3'   31   6.823   9.741   1.267
    2DC       P   32   6.788   9.691   1.414
    2DC     O1P   33   6.640   9.680   1.428
    2DC     O2P   34   6.855   9.776   1.512
    2DC     O5'   35   6.860   9.554   1.441
    2DC     C5'   36   6.844   9.444   1.353
    2DC    H5'1   37   6.749   9.445   1.298
    2DC    H5'2   38   6.829   9.363   1.424
    2DC     C4'   39   6.972   9.397   1.273
    2DC     H4'   40   6.947   9.318   1.202
    2DC     O4'   41   7.022   9.504   1.192
    2DC     C1'   42   7.162   9.495   1.188
    2DC     H1'   43   7.199   9.469   1.088
    2DC      N1   44   7.231   9.613   1.241
    2DC      C6   45   7.169   9.694   1.329
    2DC      H6   46   7.066   9.671   1.353
    2DC      C5   47   7.226   9.805   1.370
    2DC      H5   48   7.166   9.880   1.421
    2DC      C4   49   7.357   9.839   1.323
    2DC      N4   50   7.427   9.953   1.341
    2DC     H41   51   7.521   9.967   1.308
    2DC     H42   52   7.372  10.033   1.368
    2DC      N3   53   7.427   9.757   1.247
    2DC      C2   54   7.361   9.640   1.199
    2DC      O2   55   7.421   9.574   1.117
    2DC     C3'   56   7.088   9.350   1.359
    2DC     H3'   57   7.074   9.400   1.455
    2DC     C2'   58   7.204   9.369   1.267
    2DC    H2'1   59   7.293   9.389   1.328
    2DC    H2'2   60   7.219   9.285   1.200
    2DC     O3'   61   7.063   9.212   1.388
    3DA       P   62   7.130   9.147   1.516
    3DA     O1P   63   7.095   9.007   1.532
    3DA     O2P   64   7.103   9.234   1.636
    3DA     O5'   65   7.284   9.166   1.464
    3DA     C5'   66   7.342   9.084   1.367
    3DA    H5'1   67   7.304   9.110   1.268
    3DA    H5'2   68   7.315   8.982   1.394
    3DA     C4'   69   7.497   9.091   1.350
    3DA     H4'   70   7.528   9.033   1.263
    3DA     O4'   71   7.535   9.223   1.331
    3DA     C1'   72   7.605   9.266   1.452
    3DA     H1'   73   7.711   9.276   1.425
    3DA      N9   74   7.557   9.399   1.488
    3DA      C8   75   7.436   9.425   1.555
    3DA      H8   76   7.360   9.353   1.584
    3DA      N7   77   7.415   9.551   1.580
    3DA      C5   78   7.532   9.607   1.533
    3DA      C6   79   7.582   9.737   1.529
    3DA      N6   80   7.529   9.838   1.594
    3DA     H61   81   7.553   9.929   1.557
    3DA     H62   82   7.433   9.824   1.621
    3DA      N1   83   7.699   9.761   1.469
    3DA      C2   84   7.769   9.665   1.423
    3DA      H2   85   7.868   9.684   1.386
    3DA      N3   86   7.736   9.534   1.411
    3DA      C4   87   7.617   9.517   1.471
    3DA     C3'   88   7.568   9.034   1.471
    3DA     H3'   89   7.500   8.970   1.527
    3DA     C2'   90   7.588   9.155   1.556
    3DA    H2'1   91   7.498   9.172   1.615
    3DA    H2'2   92   7.674   9.140   1.620
    3DA     O3'   93   7.679   8.958   1.420
    4DT       P   94   7.783   8.889   1.519
    4DT     O1P   95   7.863   8.801   1.429
    4DT     O2P   96   7.702   8.821   1.624
    4DT     O5'   97   7.877   8.991   1.584
    4DT     C5'   98   7.947   9.083   1.498
    4DT    H5'1   99   7.877   9.123   1.424
    4DT    H5'2  100   8.016   9.022   1.440
    4DT     C4'  101   8.010   9.198   1.576
    4DT     H4'  102   8.085   9.244   1.510
    4DT     O4'  103   7.911   9.300   1.599
    4DT     C1'  104   7.942   9.355   1.733
    4DT     H1'  105   8.039   9.405   1.733
    4DT      N1  106   7.830   9.439   1.788
    4DT      C6  107   7.713   9.386   1.840
    4DT      H6  108   7.713   9.280   1.857
    4DT      C5  109   7.627   9.467   1.896
    4DT      C7  110   7.501   9.404   1.958
    4DT     H71  111   7.511   9.297   1.940
    4DT     H72  112   7.489   9.443   2.059
    4DT     H73  113   7.409   9.432   1.906
    4DT      C4  114   7.642   9.613   1.891
    4DT      O4  115   7.557   9.697   1.920
    4DT      N3  116   7.756   9.656   1.840
    4DT      H3  117   7.772   9.756   1.829
    4DT      C2  118   7.856   9.579   1.786
    4DT      O2  119   7.957   9.626   1.733
    4DT     C3'  120   8.073   9.160   1.707
    4DT     H3'  121   8.068   9.052   1.723
    4DT     C2'  122   7.975   9.236   1.810
    4DT    H2'1  123   7.882   9.183   1.829
    4DT    H2'2  124   8.027   9.265   1.901
    4DT     O3'  125   8.204   9.214   1.733
    5DG       P  126   8.297   9.145   1.851
    5DG     O1P  127   8.356   9.020   1.799
    5DG     O2P  128   8.233   9.133   1.982
    5DG     O5'  129   8.418   9.249   1.868
    5DG     C5'  130   8.493   9.301   1.759
    5DG    H5'1  131   8.435   9.306   1.668
    5DG    H5'2  132   8.579   9.237   1.739
    5DG     C4'  133   8.532   9.448   1.804
    5DG     H4'  134   8.591   9.503   1.731
    5DG     O4'  135   8.409   9.521   1.828
    5DG     C1'  136   8.426   9.586   1.960
    5DG     H1'  137   8.466   9.686   1.941
    5DG      N9  138   8.277   9.587   2.003
    5DG      C8  139   8.186   9.486   2.002
    5DG      H8  140   8.215   9.388   1.969
    5DG      N7  141   8.061   9.514   2.027
    5DG      C5  142   8.068   9.651   2.057
    5DG      C6  143   7.969   9.750   2.098
    5DG      O6  144   7.852   9.733   2.130
    5DG      N1  145   8.023   9.873   2.116
    5DG      H1  146   7.961   9.941   2.159
    5DG      C2  147   8.148   9.908   2.083
    5DG      N2  148   8.177  10.029   2.102
    5DG     H21  149   8.103  10.096   2.122
    5DG     H22  150   8.268  10.070   2.087
    5DG      N3  151   8.237   9.824   2.028
    5DG      C4  152   8.196   9.697   2.026
    5DG     C3'  153   8.620   9.445   1.935
    5DG     H3'  154   8.658   9.347   1.961
    5DG     C2'  155   8.507   9.488   2.034
    5DG    H2'1  156   8.451   9.402   2.073
    5DG    H2'2  157   8.558   9.522   2.124
    5DG     O3'  158   8.720   9.550   1.933
    6DT       P  159   8.838   9.548   2.051
    6DT     O1P  160   8.966   9.568   1.992
    6DT     O2P  161   8.824   9.424   2.126
    6DT     O5'  162   8.798   9.670   2.151
    6DT     C5'  163   8.826   9.810   2.121
    6DT    H5'1  164   8.785   9.843   2.025
    6DT    H5'2  165   8.933   9.828   2.109
    6DT     C4'  166   8.761   9.891   2.232
    6DT     H4'  167   8.787   9.991   2.197
    6DT     O4'  168   8.625   9.877   2.228
    6DT     C1'  169   8.579   9.893   2.358
    6DT     H1'  170   8.564   9.999   2.378
    6DT      N1  171   8.458   9.811   2.377
    6DT      C6  172   8.464   9.673   2.360
    6DT      H6  173   8.561   9.626   2.349
    6DT      C5  174   8.349   9.599   2.356
    6DT      C7  175   8.351   9.442   2.354
    6DT     H71  176   8.268   9.406   2.293
    6DT     H72  177   8.446   9.401   2.319
    6DT     H73  178   8.337   9.409   2.457
    6DT      C4  179   8.217   9.657   2.368
    6DT      O4  180   8.106   9.595   2.354
    6DT      N3  181   8.219   9.794   2.386
    6DT      H3  182   8.130   9.840   2.397
    6DT      C2  183   8.332   9.873   2.391
    6DT      O2  184   8.323   9.992   2.399
    6DT     C3'  185   8.827   9.877   2.366
    6DT     H3'  186   8.896   9.793   2.370
    6DT     C2'  187   8.700   9.850   2.450
    6DT    H2'1  188   8.701   9.745   2.477
    6DT    H2'2  189   8.699   9.912   2.539
    6DT     O3'  190   8.895   9.995   2.410
    7DG       P  191   8.971  10.003   2.549
    7DG     O1P  192   9.034  10.135   2.539
    7DG     O2P  193   9.042   9.875   2.578
    7DG     O5'  194   8.872  10.017   2.667
    7DG     C5'  195   8.784  10.131   2.682
    7DG    H5'1  196   8.740  10.162   2.587
    7DG    H5'2  197   8.850  10.212   2.713
    7DG     C4'  198   8.668  10.111   2.775
    7DG     H4'  199   8.625  10.210   2.788
    7DG     O4'  200   8.571  10.033   2.714
    7DG     C1'  201   8.522   9.937   2.804
    7DG     H1'  202   8.449   9.983   2.870
    7DG      N9  203   8.463   9.812   2.741
    7DG      C8  204   8.521   9.691   2.714
    7DG      H8  205   8.627   9.670   2.710
    7DG      N7  206   8.435   9.594   2.691
    7DG      C5  207   8.308   9.657   2.718
    7DG      C6  208   8.172   9.608   2.727
    7DG      O6  209   8.134   9.491   2.703
    7DG      N1  210   8.079   9.702   2.768
    7DG      H1  211   7.983   9.677   2.781
    7DG      C2  212   8.111   9.827   2.800
    7DG      N2  213   8.018   9.895   2.869
    7DG     H21  214   7.923   9.861   2.868
    7DG     H22  215   8.032   9.991   2.895
    7DG      N3  216   8.234   9.878   2.786
    7DG      C4  217   8.327   9.789   2.749
    7DG     C3'  218   8.698  10.046   2.908
    7DG     H3'  219   8.803  10.041   2.935
    7DG     C2'  220   8.647   9.909   2.886
    7DG    H2'1  221   8.724   9.854   2.832
    7DG    H2'2  222   8.622   9.847   2.972
    7DG     O3'  223   8.625  10.104   3.007
    8DC       P  224   8.684  10.163   3.143
    8DC     O1P  225   8.749  10.293   3.121
    8DC     O2P  226   8.765  10.055   3.204
    8DC     O5'  227   8.554  10.191   3.233
    8DC     C5'  228   8.462  10.289   3.187
    8DC    H5'1  229   8.451  10.281   3.079
    8DC    H5'2  230   8.487  10.392   3.212
    8DC     C4'  231   8.315  10.262   3.238
    8DC     H4'  232   8.268  10.359   3.219
    8DC     O4'  233   8.256  10.154   3.171
    8DC     C1'  234   8.210  10.052   3.263
    8DC     H1'  235   8.105  10.072   3.285
    8DC      N1  236   8.235   9.919   3.201
    8DC      C6  237   8.361   9.888   3.152
    8DC      H6  238   8.443   9.958   3.149
    8DC      C5  239   8.383   9.773   3.084
    8DC      H5  240   8.482   9.745   3.052
    8DC      C4  241   8.273   9.689   3.079
    8DC      N4  242   8.301   9.570   3.035
    8DC     H41  243   8.229   9.500   3.030
    8DC     H42  244   8.393   9.549   2.999
    8DC      N3  245   8.150   9.708   3.129
    8DC      C2  246   8.125   9.831   3.187
    8DC      O2  247   8.010   9.869   3.219
    8DC     C3'  248   8.291  10.231   3.386
    8DC     H3'  249   8.373  10.274   3.443
    8DC     C2'  250   8.282  10.083   3.392
    8DC    H2'1  251   8.384  10.044   3.394
    8DC    H2'2  252   8.223  10.037   3.471
    8DC     O3'  253   8.160  10.279   3.422
    9DG       P  254   8.127  10.324   3.576
    9DG     O1P  255   8.025  10.425   3.574
    9DG     O2P  256   8.255  10.347   3.653
    9DG     O5'  257   8.053  10.201   3.641
    9DG     C5'  258   7.922  10.162   3.592
    9DG    H5'1  259   7.916  10.170   3.483
    9DG    H5'2  260   7.846  10.213   3.650
    9DG     C4'  261   7.894  10.013   3.614
    9DG     H4'  262   7.794   9.988   3.579
    9DG     O4'  263   7.988   9.934   3.542
    9DG     C1'  264   7.985   9.810   3.598
    9DG     H1'  265   7.894   9.763   3.561
    9DG      N9  266   8.096   9.719   3.551
    9DG      C8  267   8.229   9.757   3.537
    9DG      H8  268   8.279   9.849   3.563
    9DG      N7  269   8.300   9.668   3.473
    9DG      C5  270   8.210   9.566   3.441
    9DG      C6  271   8.222   9.438   3.374
    9DG      O6  272   8.327   9.387   3.325
    9DG      N1  273   8.104   9.368   3.367
    9DG      H1  274   8.118   9.275   3.330
    9DG      C2  275   7.991   9.405   3.419
    9DG      N2  276   7.889   9.336   3.386
    9DG     H21  277   7.907   9.255   3.327
    9DG     H22  278   7.802   9.347   3.436
    9DG      N3  279   7.969   9.520   3.480
    9DG      C4  280   8.080   9.601   3.488
    9DG     C3'  281   7.911   9.959   3.760
    9DG     H3'  282   7.979  10.025   3.814
    9DG     C2'  283   7.971   9.821   3.750
    9DG    H2'1  284   8.066   9.831   3.801
    9DG    H2'2  285   7.905   9.744   3.789
    9DG     O3'  286   7.785   9.962   3.822
   10DT       P  287   7.765   9.937   3.981
   10DT     O1P  288   7.642   9.998   4.030
   10DT     O2P  289   7.882   9.987   4.046
   10DT     O5'  290   7.755   9.782   4.009
   10DT     C5'  291   7.652   9.701   3.956
   10DT    H5'1  292   7.627   9.736   3.856
   10DT    H5'2  293   7.564   9.725   4.016
   10DT     C4'  294   7.677   9.547   3.950
   10DT     H4'  295   7.588   9.492   3.920
   10DT     O4'  296   7.784   9.529   3.857
   10DT     C1'  297   7.875   9.445   3.922
   10DT     H1'  298   7.837   9.343   3.923
   10DT      N1  299   8.003   9.441   3.849
   10DT      C6  300   8.098   9.535   3.869
   10DT      H6  301   8.067   9.620   3.928
   10DT      C5  302   8.219   9.520   3.818
   10DT      C7  303   8.321   9.632   3.842
   10DT     H71  304   8.364   9.623   3.942
   10DT     H72  305   8.403   9.627   3.770
   10DT     H73  306   8.291   9.734   3.816
   10DT      C4  307   8.249   9.413   3.729
   10DT      O4  308   8.349   9.398   3.665
   10DT      N3  309   8.158   9.316   3.731
   10DT      H3  310   8.188   9.231   3.684
   10DT      C2  311   8.032   9.323   3.779
   10DT      O2  312   7.944   9.242   3.760
   10DT     C3'  313   7.717   9.499   4.089
   10DT     H3'  314   7.683   9.573   4.163
   10DT     C2'  315   7.868   9.488   4.072
   10DT    H2'1  316   7.913   9.584   4.097
   10DT    H2'2  317   7.914   9.411   4.135
   10DT     O3'  318   7.655   9.373   4.117
   11DA       P  319   7.545   9.354   4.231
   11DA     O1P  320   7.416   9.421   4.187
   11DA     O2P  321   7.616   9.397   4.353
   11DA     O5'  322   7.517   9.195   4.222
   11DA     C5'  323   7.424   9.138   4.125
   11DA    H5'1  324   7.384   9.206   4.051
   11DA    H5'2  325   7.330   9.107   4.171
   11DA     C4'  326   7.478   9.017   4.043
   11DA     H4'  327   7.401   8.988   3.972
   11DA     O4'  328   7.601   9.049   3.976
   11DA     C1'  329   7.703   8.961   4.017
   11DA     H1'  330   7.709   8.878   3.948
   11DA      N9  331   7.838   9.023   4.035
   11DA      C8  332   7.868   9.134   4.100
   11DA      H8  333   7.784   9.181   4.149
   11DA      N7  334   7.992   9.169   4.098
   11DA      C5  335   8.044   9.063   4.016
   11DA      C6  336   8.175   9.025   3.971
   11DA      N6  337   8.286   9.097   4.000
   11DA     H61  338   8.376   9.058   3.979
   11DA     H62  339   8.293   9.186   4.048
   11DA      N1  340   8.197   8.906   3.916
   11DA      C2  341   8.088   8.830   3.894
   11DA      H2  342   8.107   8.727   3.864
   11DA      N3  343   7.962   8.852   3.923
   11DA      C4  344   7.949   8.974   3.982
   11DA     C3'  345   7.507   8.900   4.141
   11DA     H3'  346   7.459   8.917   4.238
   11DA     C2'  347   7.661   8.901   4.151
   11DA    H2'1  348   7.690   8.978   4.224
   11DA    H2'2  349   7.717   8.808   4.155
   11DA     O3'  350   7.460   8.780   4.072
   12DT       P  351   7.465   8.642   4.159
   12DT     O1P  352   7.357   8.550   4.115
   12DT     O2P  353   7.478   8.683   4.305
   12DT     O5'  354   7.602   8.571   4.127
   12DT     C5'  355   7.641   8.530   3.998
   12DT    H5'1  356   7.662   8.620   3.940
   12DT    H5'2  357   7.563   8.470   3.953
   12DT     C4'  358   7.769   8.446   3.998
   12DT     H4'  359   7.789   8.403   3.900
   12DT     O4'  360   7.875   8.539   4.020
   12DT     C1'  361   7.963   8.480   4.113
   12DT     H1'  362   8.022   8.409   4.056
   12DT      N1  363   8.045   8.580   4.179
   12DT      C6  364   7.984   8.681   4.255
   12DT      H6  365   7.882   8.664   4.287
   12DT      C5  366   8.044   8.795   4.278
   12DT      C7  367   7.970   8.883   4.373
   12DT     H71  368   7.864   8.860   4.364
   12DT     H72  369   8.019   8.866   4.469
   12DT     H73  370   7.973   8.988   4.344
   12DT      C4  371   8.186   8.808   4.240
   12DT      O4  372   8.250   8.909   4.270
   12DT      N3  373   8.246   8.697   4.183
   12DT      H3  374   8.338   8.713   4.142
   12DT      C2  375   8.183   8.580   4.156
   12DT      O2  376   8.240   8.481   4.111
   12DT     C3'  377   7.780   8.332   4.102
   12DT     H3'  378   7.681   8.316   4.146
   12DT     C2'  379   7.864   8.401   4.202
   12DT    H2'1  380   7.806   8.478   4.253
   12DT    H2'2  381   7.903   8.336   4.281
   12DT     O3'  382   7.839   8.217   4.048
   13DG       P  383   7.822   8.077   4.119
   13DG     O1P  384   7.735   7.999   4.036
   13DG     O2P  385   7.781   8.113   4.253
   13DG     O5'  386   7.980   8.031   4.124
   13DG     C5'  387   8.049   8.005   4.009
   13DG    H5'1  388   8.055   8.095   3.947
   13DG    H5'2  389   7.992   7.937   3.946
   13DG     C4'  390   8.189   7.950   4.033
   13DG     H4'  391   8.218   7.930   3.929
   13DG     O4'  392   8.270   8.050   4.094
   13DG     C1'  393   8.290   8.023   4.229
   13DG     H1'  394   8.395   7.995   4.240
   13DG      N9  395   8.261   8.146   4.305
   13DG      C8  396   8.142   8.210   4.343
   13DG      H8  397   8.047   8.177   4.303
   13DG      N7  398   8.159   8.323   4.401
   13DG      C5  399   8.297   8.339   4.410
   13DG      C6  400   8.374   8.438   4.466
   13DG      O6  401   8.331   8.544   4.522
   13DG      N1  402   8.508   8.414   4.448
   13DG      H1  403   8.569   8.495   4.446
   13DG      C2  404   8.561   8.302   4.399
   13DG      N2  405   8.690   8.308   4.368
   13DG     H21  406   8.731   8.399   4.380
   13DG     H22  407   8.742   8.227   4.335
   13DG      N3  408   8.495   8.200   4.352
   13DG      C4  409   8.360   8.222   4.358
   13DG     C3'  410   8.200   7.832   4.131
   13DG     H3'  411   8.106   7.781   4.113
   13DG     C2'  412   8.221   7.893   4.266
   13DG    H2'1  413   8.122   7.915   4.305
   13DG    H2'2  414   8.285   7.834   4.332
   13DG     O3'  415   8.314   7.757   4.095
   14DC       P  416   8.332   7.606   4.139
   14DC     O1P  417   8.421   7.529   4.051
   14DC     O2P  418   8.201   7.543   4.166
   14DC     O5'  419   8.416   7.620   4.281
   14DC     C5'  420   8.557   7.645   4.270
   14DC    H5'1  421   8.568   7.733   4.206
   14DC    H5'2  422   8.610   7.556   4.237
   14DC     C4'  423   8.607   7.683   4.405
   14DC     H4'  424   8.713   7.707   4.401
   14DC     O4'  425   8.540   7.797   4.451
   14DC     C1'  426   8.539   7.796   4.596
   14DC     H1'  427   8.641   7.817   4.628
   14DC      N1  428   8.440   7.909   4.629
   14DC      C6  429   8.307   7.882   4.610
   14DC      H6  430   8.277   7.779   4.597
   14DC      C5  431   8.226   7.988   4.643
   14DC      H5  432   8.119   7.970   4.645
   14DC      C4  433   8.277   8.119   4.677
   14DC      N4  434   8.203   8.222   4.695
   14DC     H41  435   8.250   8.306   4.725
   14DC     H42  436   8.108   8.217   4.661
   14DC      N3  437   8.410   8.144   4.688
   14DC      C2  438   8.489   8.036   4.658
   14DC      O2  439   8.612   8.053   4.658
   14DC     C3'  440   8.588   7.578   4.515
   14DC     H3'  441   8.545   7.485   4.480
   14DC     C2'  442   8.503   7.650   4.623
   14DC    H2'1  443   8.400   7.621   4.605
   14DC    H2'2  444   8.531   7.617   4.723
   14DC     O3'  445   8.711   7.567   4.583
   15DG       P  446   8.775   7.435   4.620
   15DG     O1P  447   8.804   7.363   4.493
   15DG     O2P  448   8.701   7.376   4.732
   15DG     O5'  449   8.913   7.482   4.673
   15DG     C5'  450   9.010   7.557   4.595
   15DG    H5'1  451   8.959   7.636   4.540
   15DG    H5'2  452   9.061   7.488   4.527
   15DG     C4'  453   9.114   7.620   4.689
   15DG     H4'  454   9.199   7.636   4.623
   15DG     O4'  455   9.060   7.740   4.742
   15DG     C1'  456   9.014   7.736   4.877
   15DG     H1'  457   9.074   7.810   4.929
   15DG      N9  458   8.870   7.782   4.894
   15DG      C8  459   8.752   7.713   4.898
   15DG      H8  460   8.741   7.610   4.866
   15DG      N7  461   8.642   7.776   4.930
   15DG      C5  462   8.693   7.902   4.960
   15DG      C6  463   8.629   8.025   4.994
   15DG      O6  464   8.509   8.048   5.020
   15DG      N1  465   8.714   8.130   5.012
   15DG      H1  466   8.680   8.222   5.034
   15DG      C2  467   8.844   8.120   5.000
   15DG      N2  468   8.915   8.229   5.018
   15DG     H21  469   8.867   8.317   5.031
   15DG     H22  470   9.014   8.234   4.998
   15DG      N3  471   8.910   8.015   4.958
   15DG      C4  472   8.832   7.904   4.938
   15DG     C3'  473   9.147   7.541   4.817
   15DG     H3'  474   9.138   7.432   4.810
   15DG     C2'  475   9.043   7.595   4.918
   15DG    H2'1  476   8.948   7.543   4.904
   15DG    H2'2  477   9.076   7.582   5.021
   15DG     O3'  478   9.278   7.575   4.858
   16DT3      P  479   9.343   7.512   4.989
   16DT3    O1P  480   9.487   7.537   4.985
   16DT3    O2P  481   9.297   7.369   5.008
   16DT3    O5'  482   9.283   7.591   5.104
   16DT3    C5'  483   9.300   7.725   5.115
   16DT3   H5'1  484   9.258   7.777   5.029
   16DT3   H5'2  485   9.406   7.750   5.116
   16DT3    C4'  486   9.230   7.786   5.232
   16DT3    H4'  487   9.270   7.888   5.235
   16DT3    O4'  488   9.090   7.773   5.206
   16DT3    C1'  489   9.034   7.744   5.331
   16DT3    H1'  490   9.032   7.833   5.394
   16DT3     N1  491   8.895   7.702   5.320
   16DT3     C6  492   8.857   7.605   5.232
   16DT3     H6  493   8.935   7.548   5.184
   16DT3     C5  494   8.728   7.564   5.230
   16DT3     C7  495   8.689   7.459   5.144
   16DT3    H71  496   8.610   7.484   5.074
   16DT3    H72  497   8.774   7.431   5.081
   16DT3    H73  498   8.667   7.367   5.198
   16DT3     C4  499   8.623   7.628   5.307
   16DT3     O4  500   8.502   7.597   5.295
   16DT3     N3  501   8.665   7.723   5.397
   16DT3     H3  502   8.587   7.762   5.447
   16DT3     C2  503   8.794   7.772   5.397
   16DT3     O2  504   8.818   7.865   5.480
   16DT3    C3'  505   9.262   7.711   5.360
   16DT3    H3'  506   9.338   7.635   5.344
   16DT3    C2'  507   9.128   7.639   5.389
   16DT3   H2'1  508   9.127   7.547   5.331
   16DT3   H2'2  509   9.116   7.624   5.496
   16DT3    O3'  510   9.291   7.799   5.465
   16DT3    H3T  511   9.365   7.855   5.440
   17DC5    H5T  512   9.850   7.397  10.383
   17DC5    O5'  513   9.792   7.325  10.408
   17DC5    C5'  514   9.690   7.361  10.503
   17DC5   H5'1  515   9.747   7.390  10.592
   17DC5   H5'2  516   9.645   7.267  10.533
   17DC5    C4'  517   9.588   7.470  10.465
   17DC5    H4'  518   9.525   7.503  10.548
   17DC5    O4'  519   9.667   7.578  10.422
   17DC5    C1'  520   9.609   7.625  10.303
   17DC5    H1'  521   9.516   7.681  10.314
   17DC5     N1  522   9.706   7.716  10.234
   17DC5     C6  523   9.801   7.671  10.141
   17DC5     H6  524   9.807   7.566  10.116
   17DC5     C5  525   9.880   7.764  10.076
   17DC5     H5  526   9.953   7.722  10.009
   17DC5     C4  527   9.859   7.900  10.110
   17DC5     N4  528   9.928   8.001  10.063
   17DC5    H41  529   9.907   8.094  10.097
   17DC5    H42  530  10.000   7.979   9.995
   17DC5     N3  531   9.767   7.943  10.194
   17DC5     C2  532   9.686   7.853  10.255
   17DC5     O2  533   9.591   7.896  10.318
   17DC5    C3'  534   9.508   7.421  10.345
   17DC5    H3'  535   9.520   7.315  10.323
   17DC5    C2'  536   9.573   7.496  10.229
   17DC5   H2'1  537   9.661   7.441  10.196
   17DC5   H2'2  538   9.505   7.521  10.147
   17DC5    O3'  539   9.366   7.452  10.344
   18DG       P  540   9.269   7.374  10.438
   18DG     O1P  541   9.296   7.402  10.580
   18DG     O2P  542   9.266   7.235  10.391
   18DG     O5'  543   9.132   7.441  10.391
   18DG     C5'  544   9.049   7.517  10.478
   18DG    H5'1  545   9.099   7.550  10.569
   18DG    H5'2  546   8.975   7.442  10.505
   18DG     C4'  547   8.996   7.635  10.398
   18DG     H4'  548   8.934   7.689  10.468
   18DG     O4'  549   9.098   7.719  10.351
   18DG     C1'  550   9.082   7.739  10.210
   18DG     H1'  551   9.016   7.826  10.201
   18DG      N9  552   9.214   7.765  10.149
   18DG      C8  553   9.306   7.674  10.111
   18DG      H8  554   9.286   7.569  10.127
   18DG      N7  555   9.404   7.733  10.052
   18DG      C5  556   9.378   7.871  10.056
   18DG      C6  557   9.451   7.983  10.008
   18DG      O6  558   9.565   7.988   9.963
   18DG      N1  559   9.393   8.103  10.034
   18DG      H1  560   9.455   8.182  10.032
   18DG      C2  561   9.269   8.118  10.077
   18DG      N2  562   9.221   8.243  10.080
   18DG     H21  563   9.275   8.313  10.031
   18DG     H22  564   9.123   8.261  10.095
   18DG      N3  565   9.197   8.016  10.123
   18DG      C4  566   9.259   7.894  10.113
   18DG     C3'  567   8.915   7.586  10.275
   18DG     H3'  568   8.903   7.478  10.287
   18DG     C2'  569   9.013   7.612  10.165
   18DG    H2'1  570   9.082   7.531  10.140
   18DG    H2'2  571   8.964   7.645  10.074
   18DG     O3'  572   8.793   7.656  10.265
   19DC       P  573   8.666   7.599  10.182
   19DC     O1P  574   8.550   7.588  10.276
   19DC     O2P  575   8.702   7.483  10.099
   19DC     O5'  576   8.631   7.710  10.082
   19DC     C5'  577   8.622   7.848  10.125
   19DC    H5'1  578   8.699   7.865  10.200
   19DC    H5'2  579   8.524   7.869  10.170
   19DC     C4'  580   8.654   7.943  10.009
   19DC     H4'  581   8.626   8.044  10.041
   19DC     O4'  582   8.796   7.938   9.989
   19DC     C1'  583   8.837   7.938   9.855
   19DC     H1'  584   8.838   8.044   9.826
   19DC      N1  585   8.972   7.883   9.831
   19DC      C6  586   8.998   7.752   9.812
   19DC      H6  587   8.925   7.677   9.839
   19DC      C5  588   9.127   7.713   9.782
   19DC      H5  589   9.160   7.611   9.789
   19DC      C4  590   9.220   7.814   9.732
   19DC      N4  591   9.335   7.779   9.677
   19DC     H41  592   9.407   7.848   9.660
   19DC     H42  593   9.350   7.680   9.668
   19DC      N3  594   9.198   7.944   9.749
   19DC      C2  595   9.077   7.979   9.800
   19DC      O2  596   9.057   8.103   9.809
   19DC     C3'  597   8.592   7.921   9.871
   19DC     H3'  598   8.512   7.847   9.874
   19DC     C2'  599   8.714   7.868   9.789
   19DC    H2'1  600   8.723   7.761   9.806
   19DC    H2'2  601   8.701   7.885   9.683
   19DC     O3'  602   8.551   8.044   9.810
   20DA       P  603   8.410   8.112   9.831
   20DA     O1P  604   8.383   8.128   9.975
   20DA     O2P  605   8.306   8.054   9.750
   20DA     O5'  606   8.434   8.266   9.772
   20DA     C5'  607   8.487   8.374   9.849
   20DA    H5'1  608   8.541   8.328   9.931
   20DA    H5'2  609   8.412   8.431   9.904
   20DA     C4'  610   8.568   8.472   9.767
   20DA     H4'  611   8.581   8.565   9.823
   20DA     O4'  612   8.694   8.414   9.748
   20DA     C1'  613   8.720   8.407   9.606
   20DA     H1'  614   8.760   8.501   9.567
   20DA      N9  615   8.807   8.289   9.574
   20DA      C8  616   8.778   8.155   9.574
   20DA      H8  617   8.682   8.117   9.608
   20DA      N7  618   8.872   8.079   9.531
   20DA      C5  619   8.970   8.170   9.501
   20DA      C6  620   9.099   8.157   9.445
   20DA      N6  621   9.158   8.037   9.422
   20DA     H61  622   9.249   8.034   9.378
   20DA     H62  623   9.113   7.954   9.457
   20DA      N1  624   9.176   8.260   9.416
   20DA      C2  625   9.122   8.379   9.432
   20DA      H2  626   9.188   8.460   9.405
   20DA      N3  627   9.003   8.405   9.487
   20DA      C4  628   8.933   8.296   9.520
   20DA     C3'  629   8.503   8.499   9.632
   20DA     H3'  630   8.397   8.475   9.630
   20DA     C2'  631   8.582   8.408   9.542
   20DA    H2'1  632   8.538   8.308   9.544
   20DA    H2'2  633   8.586   8.453   9.442
   20DA     O3'  634   8.510   8.639   9.610
   21DC       P  635   8.455   8.707   9.474
   21DC     O1P  636   8.437   8.849   9.499
   21DC     O2P  637   8.338   8.633   9.431
   21DC     O5'  638   8.570   8.694   9.363
   21DC     C5'  639   8.675   8.781   9.374
   21DC    H5'1  640   8.717   8.794   9.473
   21DC    H5'2  641   8.640   8.876   9.332
   21DC     C4'  642   8.793   8.738   9.285
   21DC     H4'  643   8.882   8.799   9.303
   21DC     O4'  644   8.822   8.603   9.311
   21DC     C1'  645   8.882   8.566   9.193
   21DC     H1'  646   8.974   8.625   9.191
   21DC      N1  647   8.895   8.417   9.182
   21DC      C6  648   8.788   8.336   9.223
   21DC      H6  649   8.696   8.383   9.255
   21DC      C5  650   8.797   8.199   9.197
   21DC      H5  651   8.716   8.130   9.216
   21DC      C4  652   8.924   8.155   9.144
   21DC      N4  653   8.928   8.027   9.113
   21DC     H41  654   9.010   7.984   9.073
   21DC     H42  655   8.845   7.975   9.137
   21DC      N3  656   9.022   8.234   9.111
   21DC      C2  657   9.007   8.368   9.115
   21DC      O2  658   9.102   8.438   9.086
   21DC     C3'  659   8.753   8.755   9.134
   21DC     H3'  660   8.648   8.778   9.119
   21DC     C2'  661   8.803   8.625   9.075
   21DC    H2'1  662   8.720   8.560   9.048
   21DC    H2'2  663   8.870   8.640   8.991
   21DC     O3'  664   8.822   8.874   9.083
   22DG       P  665   8.817   8.915   8.933
   22DG     O1P  666   8.862   9.059   8.926
   22DG     O2P  667   8.690   8.868   8.873
   22DG     O5'  668   8.921   8.827   8.847
   22DG     C5'  669   9.061   8.840   8.871
   22DG    H5'1  670   9.092   8.802   8.968
   22DG    H5'2  671   9.084   8.947   8.867
   22DG     C4'  672   9.148   8.771   8.764
   22DG     H4'  673   9.247   8.815   8.776
   22DG     O4'  674   9.143   8.634   8.787
   22DG     C1'  675   9.094   8.572   8.670
   22DG     H1'  676   9.175   8.553   8.600
   22DG      N9  677   9.024   8.453   8.714
   22DG      C8  678   8.900   8.443   8.771
   22DG      H8  679   8.844   8.533   8.792
   22DG      N7  680   8.853   8.325   8.803
   22DG      C5  681   8.968   8.252   8.765
   22DG      C6  682   8.995   8.107   8.763
   22DG      O6  683   8.915   8.019   8.784
   22DG      N1  684   9.114   8.065   8.730
   22DG      H1  685   9.136   7.968   8.749
   22DG      C2  686   9.213   8.157   8.706
   22DG      N2  687   9.324   8.101   8.666
   22DG     H21  688   9.333   8.001   8.659
   22DG     H22  689   9.403   8.164   8.655
   22DG      N3  690   9.207   8.290   8.696
   22DG      C4  691   9.078   8.328   8.726
   22DG     C3'  692   9.104   8.793   8.621
   22DG     H3'  693   9.051   8.887   8.605
   22DG     C2'  694   9.005   8.675   8.601
   22DG    H2'1  695   8.916   8.694   8.662
   22DG    H2'2  696   8.992   8.649   8.496
   22DG     O3'  697   9.211   8.785   8.534
   23DC       P  698   9.298   8.911   8.485
   23DC     O1P  699   9.344   8.985   8.606
   23DC     O2P  700   9.228   8.971   8.372
   23DC     O5'  701   9.436   8.845   8.408
   23DC     C5'  702   9.541   8.777   8.482
   23DC    H5'1  703   9.516   8.782   8.588
   23DC    H5'2  704   9.635   8.832   8.470
   23DC     C4'  705   9.582   8.630   8.458
   23DC     H4'  706   9.660   8.597   8.526
   23DC     O4'  707   9.473   8.542   8.486
   23DC     C1'  708   9.469   8.457   8.375
   23DC     H1'  709   9.549   8.385   8.389
   23DC      N1  710   9.332   8.393   8.358
   23DC      C6  711   9.217   8.467   8.359
   23DC      H6  712   9.229   8.574   8.362
   23DC      C5  713   9.096   8.410   8.366
   23DC      H5  714   9.010   8.476   8.359
   23DC      C4  715   9.091   8.267   8.366
   23DC      N4  716   8.979   8.199   8.381
   23DC     H41  717   8.977   8.098   8.387
   23DC     H42  718   8.891   8.249   8.373
   23DC      N3  719   9.202   8.192   8.372
   23DC      C2  720   9.324   8.255   8.367
   23DC      O2  721   9.431   8.197   8.353
   23DC     C3'  722   9.620   8.621   8.305
   23DC     H3'  723   9.620   8.722   8.266
   23DC     C2'  724   9.506   8.543   8.257
   23DC    H2'1  725   9.421   8.605   8.229
   23DC    H2'2  726   9.537   8.482   8.172
   23DC     O3'  727   9.748   8.566   8.288
   24DA       P  728   9.816   8.544   8.144
   24DA     O1P  729   9.962   8.542   8.166
   24DA     O2P  730   9.757   8.651   8.055
   24DA     O5'  731   9.757   8.405   8.092
   24DA     C5'  732   9.824   8.284   8.128
   24DA    H5'1  733   9.810   8.258   8.232
   24DA    H5'2  734   9.931   8.305   8.122
   24DA     C4'  735   9.783   8.162   8.038
   24DA     H4'  736   9.854   8.082   8.057
   24DA     O4'  737   9.650   8.113   8.061
   24DA     C1'  738   9.583   8.132   7.936
   24DA     H1'  739   9.550   8.036   7.897
   24DA      N9  740   9.460   8.205   7.977
   24DA      C8  741   9.438   8.337   7.977
   24DA      H8  742   9.511   8.414   7.957
   24DA      N7  743   9.315   8.371   8.007
   24DA      C5  744   9.255   8.245   8.035
   24DA      C6  745   9.127   8.198   8.061
   24DA      N6  746   9.015   8.262   8.072
   24DA     H61  747   8.941   8.195   8.084
   24DA     H62  748   9.004   8.363   8.071
   24DA      N1  749   9.102   8.063   8.057
   24DA      C2  750   9.197   7.977   8.041
   24DA      H2  751   9.169   7.873   8.036
   24DA      N3  752   9.322   8.004   8.019
   24DA      C4  753   9.345   8.140   8.010
   24DA     C3'  754   9.810   8.197   7.890
   24DA     H3'  755   9.856   8.295   7.888
   24DA     C2'  756   9.665   8.202   7.839
   24DA    H2'1  757   9.637   8.306   7.825
   24DA    H2'2  758   9.645   8.147   7.747
   24DA     O3'  759   9.905   8.108   7.829
   25DC       P  760   9.928   8.098   7.675
   25DC     O1P  761  10.060   8.047   7.666
   25DC     O2P  762   9.905   8.232   7.616
   25DC     O5'  763   9.822   8.002   7.617
   25DC     C5'  764   9.795   7.875   7.679
   25DC    H5'1  765   9.786   7.882   7.787
   25DC    H5'2  766   9.874   7.806   7.650
   25DC     C4'  767   9.663   7.826   7.620
   25DC     H4'  768   9.636   7.727   7.659
   25DC     O4'  769   9.570   7.909   7.671
   25DC     C1'  770   9.472   7.920   7.574
   25DC     H1'  771   9.427   7.823   7.554
   25DC      N1  772   9.362   8.008   7.615
   25DC      C6  773   9.368   8.150   7.604
   25DC      H6  774   9.458   8.192   7.561
   25DC      C5  775   9.262   8.228   7.645
   25DC      H5  776   9.266   8.336   7.632
   25DC      C4  777   9.150   8.159   7.696
   25DC      N4  778   9.046   8.224   7.734
   25DC     H41  779   8.969   8.175   7.777
   25DC     H42  780   9.062   8.323   7.743
   25DC      N3  781   9.138   8.026   7.699
   25DC      C2  782   9.248   7.952   7.665
   25DC      O2  783   9.233   7.829   7.661
   25DC     C3'  784   9.656   7.832   7.466
   25DC     H3'  785   9.754   7.847   7.421
   25DC     C2'  786   9.557   7.948   7.451
   25DC    H2'1  787   9.613   8.041   7.464
   25DC    H2'2  788   9.500   7.953   7.359
   25DC     O3'  789   9.590   7.720   7.402
   26DG       P  790   9.668   7.597   7.360
   26DG     O1P  791   9.780   7.578   7.456
   26DG     O2P  792   9.699   7.612   7.215
   26DG     O5'  793   9.571   7.467   7.372
   26DG     C5'  794   9.515   7.418   7.485
   26DG    H5'1  795   9.523   7.496   7.560
   26DG    H5'2  796   9.572   7.328   7.512
   26DG     C4'  797   9.367   7.379   7.462
   26DG     H4'  798   9.345   7.305   7.539
   26DG     O4'  799   9.273   7.480   7.484
   26DG     C1'  800   9.209   7.503   7.358
   26DG     H1'  801   9.105   7.472   7.361
   26DG      N9  802   9.200   7.651   7.358
   26DG      C8  803   9.294   7.736   7.309
   26DG      H8  804   9.392   7.700   7.280
   26DG      N7  805   9.267   7.865   7.313
   26DG      C5  806   9.135   7.860   7.355
   26DG      C6  807   9.034   7.964   7.366
   26DG      O6  808   9.040   8.087   7.350
   26DG      N1  809   8.911   7.921   7.404
   26DG      H1  810   8.840   7.991   7.419
   26DG      C2  811   8.883   7.787   7.424
   26DG      N2  812   8.756   7.760   7.453
   26DG     H21  813   8.691   7.836   7.467
   26DG     H22  814   8.726   7.666   7.476
   26DG      N3  815   8.968   7.690   7.426
   26DG      C4  816   9.093   7.734   7.388
   26DG     C3'  817   9.340   7.313   7.324
   26DG     H3'  818   9.432   7.283   7.273
   26DG     C2'  819   9.283   7.432   7.247
   26DG    H2'1  820   9.369   7.496   7.229
   26DG    H2'2  821   9.221   7.411   7.161
   26DG     O3'  822   9.261   7.199   7.333
   27DC       P  823   9.183   7.122   7.209
   27DC     O1P  824   9.127   6.995   7.252
   27DC     O2P  825   9.268   7.138   7.091
   27DC     O5'  826   9.053   7.221   7.195
   27DC     C5'  827   8.963   7.217   7.084
   27DC    H5'1  828   8.910   7.123   7.091
   27DC    H5'2  829   9.015   7.221   6.988
   27DC     C4'  830   8.874   7.343   7.113
   27DC     H4'  831   8.815   7.334   7.204
   27DC     O4'  832   8.950   7.458   7.120
   27DC     C1'  833   8.858   7.565   7.113
   27DC     H1'  834   8.798   7.575   7.204
   27DC      N1  835   8.917   7.700   7.071
   27DC      C6  836   9.044   7.714   7.021
   27DC      H6  837   9.115   7.633   7.014
   27DC      C5  838   9.093   7.833   7.002
   27DC      H5  839   9.199   7.837   6.982
   27DC      C4  840   9.016   7.945   7.019
   27DC      N4  841   9.066   8.066   6.998
   27DC     H41  842   9.008   8.145   7.021
   27DC     H42  843   9.154   8.075   6.949
   27DC      N3  844   8.895   7.938   7.061
   27DC      C2  845   8.842   7.814   7.081
   27DC      O2  846   8.725   7.811   7.106
   27DC     C3'  847   8.771   7.378   7.010
   27DC     H3'  848   8.681   7.323   7.040
   27DC     C2'  849   8.748   7.527   7.014
   27DC    H2'1  850   8.754   7.575   6.916
   27DC    H2'2  851   8.655   7.550   7.066
   27DC     O3'  852   8.793   7.348   6.869
   28DG       P  853   8.687   7.267   6.778
   28DG     O1P  854   8.647   7.152   6.860
   28DG     O2P  855   8.760   7.246   6.654
   28DG     O5'  856   8.573   7.376   6.759
   28DG     C5'  857   8.469   7.387   6.855
   28DG    H5'1  858   8.506   7.387   6.958
   28DG    H5'2  859   8.416   7.292   6.851
   28DG     C4'  860   8.382   7.507   6.823
   28DG     H4'  861   8.290   7.496   6.881
   28DG     O4'  862   8.467   7.626   6.845
   28DG     C1'  863   8.480   7.692   6.716
   28DG     H1'  864   8.411   7.776   6.707
   28DG      N9  865   8.618   7.746   6.709
   28DG      C8  866   8.738   7.684   6.686
   28DG      H8  867   8.748   7.577   6.672
   28DG      N7  868   8.846   7.757   6.684
   28DG      C5  869   8.788   7.890   6.687
   28DG      C6  870   8.842   8.021   6.694
   28DG      O6  871   8.962   8.059   6.677
   28DG      N1  872   8.748   8.123   6.725
   28DG      H1  873   8.783   8.217   6.715
   28DG      C2  874   8.619   8.098   6.740
   28DG      N2  875   8.533   8.200   6.761
   28DG     H21  876   8.570   8.292   6.777
   28DG     H22  877   8.440   8.182   6.795
   28DG      N3  878   8.562   7.982   6.731
   28DG      C4  879   8.651   7.879   6.709
   28DG     C3'  880   8.332   7.500   6.675
   28DG     H3'  881   8.332   7.397   6.640
   28DG     C2'  882   8.445   7.589   6.616
   28DG    H2'1  883   8.529   7.527   6.586
   28DG    H2'2  884   8.417   7.652   6.531
   28DG     O3'  885   8.207   7.572   6.672
   29DC       P  886   8.127   7.571   6.536
   29DC     O1P  887   8.006   7.485   6.559
   29DC     O2P  888   8.217   7.536   6.426
   29DC     O5'  889   8.078   7.721   6.509
   29DC     C5'  890   7.992   7.796   6.594
   29DC    H5'1  891   8.023   7.801   6.699
   29DC    H5'2  892   7.891   7.756   6.603
   29DC     C4'  893   7.973   7.941   6.538
   29DC     H4'  894   7.893   7.991   6.591
   29DC     O4'  895   8.095   8.012   6.545
   29DC     C1'  896   8.139   8.058   6.419
   29DC     H1'  897   8.103   8.160   6.408
   29DC      N1  898   8.288   8.051   6.405
   29DC      C6  899   8.357   7.927   6.398
   29DC      H6  900   8.296   7.838   6.389
   29DC      C5  901   8.496   7.926   6.400
   29DC      H5  902   8.538   7.829   6.378
   29DC      C4  903   8.562   8.048   6.400
   29DC      N4  904   8.687   8.043   6.373
   29DC     H41  905   8.740   8.128   6.354
   29DC     H42  906   8.730   7.952   6.362
   29DC      N3  907   8.505   8.163   6.425
   29DC      C2  908   8.368   8.164   6.428
   29DC      O2  909   8.315   8.271   6.438
   29DC     C3'  910   7.938   7.947   6.391
   29DC     H3'  911   7.905   7.848   6.361
   29DC     C2'  912   8.068   7.980   6.309
   29DC    H2'1  913   8.124   7.891   6.282
   29DC    H2'2  914   8.047   8.043   6.223
   29DC     O3'  915   7.826   8.041   6.378
   30DA       P  916   7.770   8.087   6.233
   30DA     O1P  917   7.634   8.140   6.240
   30DA     O2P  918   7.791   7.974   6.140
   30DA     O5'  919   7.854   8.212   6.187
   30DA     C5'  920   7.841   8.337   6.257
   30DA    H5'1  921   7.857   8.331   6.365
   30DA    H5'2  922   7.742   8.382   6.249
   30DA     C4'  923   7.935   8.444   6.209
   30DA     H4'  924   7.917   8.541   6.256
   30DA     O4'  925   8.073   8.407   6.231
   30DA     C1'  926   8.144   8.422   6.113
   30DA     H1'  927   8.187   8.522   6.109
   30DA      N9  928   8.256   8.320   6.109
   30DA      C8  929   8.245   8.187   6.077
   30DA      H8  930   8.151   8.142   6.051
   30DA      N7  931   8.359   8.121   6.066
   30DA      C5  932   8.450   8.220   6.087
   30DA      C6  933   8.590   8.222   6.090
   30DA      N6  934   8.673   8.124   6.063
   30DA     H61  935   8.769   8.155   6.065
   30DA     H62  936   8.638   8.033   6.037
   30DA      N1  937   8.650   8.341   6.116
   30DA      C2  938   8.576   8.450   6.131
   30DA      H2  939   8.630   8.541   6.151
   30DA      N3  940   8.447   8.463   6.132
   30DA      C4  941   8.390   8.340   6.111
   30DA     C3'  942   7.911   8.465   6.056
   30DA     H3'  943   7.823   8.415   6.014
   30DA     C2'  944   8.040   8.410   6.002
   30DA    H2'1  945   8.027   8.304   5.984
   30DA    H2'2  946   8.073   8.461   5.911
   30DA     O3'  947   7.914   8.600   6.028
   31DT       P  948   7.875   8.668   5.892
   31DT     O1P  949   7.782   8.782   5.917
   31DT     O2P  950   7.829   8.568   5.794
   31DT     O5'  951   8.015   8.720   5.831
   31DT     C5'  952   8.094   8.826   5.891
   31DT    H5'1  953   8.105   8.815   5.999
   31DT    H5'2  954   8.043   8.919   5.867
   31DT     C4'  955   8.238   8.828   5.828
   31DT     H4'  956   8.289   8.914   5.872
   31DT     O4'  957   8.305   8.701   5.864
   31DT     C1'  958   8.367   8.653   5.744
   31DT     H1'  959   8.462   8.705   5.738
   31DT      N1  960   8.384   8.507   5.737
   31DT      C6  961   8.278   8.417   5.716
   31DT      H6  962   8.178   8.458   5.708
   31DT      C5  963   8.303   8.285   5.715
   31DT      C7  964   8.184   8.201   5.698
   31DT     H71  965   8.118   8.246   5.624
   31DT     H72  966   8.219   8.105   5.659
   31DT     H73  967   8.133   8.202   5.794
   31DT      C4  968   8.438   8.228   5.737
   31DT      O4  969   8.464   8.108   5.754
   31DT      N3  970   8.535   8.322   5.757
   31DT      H3  971   8.629   8.285   5.760
   31DT      C2  972   8.518   8.458   5.767
   31DT      O2  973   8.615   8.523   5.794
   31DT     C3'  974   8.249   8.843   5.672
   31DT     H3'  975   8.147   8.873   5.647
   31DT     C2'  976   8.278   8.704   5.627
   31DT    H2'1  977   8.179   8.657   5.626
   31DT    H2'2  978   8.326   8.693   5.530
   31DT     O3'  979   8.355   8.933   5.628
   32DC       P  980   8.395   8.962   5.478
   32DC     O1P  981   8.469   9.089   5.482
   32DC     O2P  982   8.282   8.944   5.384
   32DC     O5'  983   8.505   8.855   5.440
   32DC     C5'  984   8.620   8.833   5.519
   32DC    H5'1  985   8.610   8.741   5.577
   32DC    H5'2  986   8.625   8.918   5.586
   32DC     C4'  987   8.741   8.822   5.428
   32DC     H4'  988   8.832   8.817   5.487
   32DC     O4'  989   8.749   8.695   5.353
   32DC     C1'  990   8.725   8.723   5.219
   32DC     H1'  991   8.817   8.705   5.163
   32DC      N1  992   8.630   8.621   5.166
   32DC      C6  993   8.493   8.628   5.183
   32DC      H6  994   8.445   8.717   5.222
   32DC      C5  995   8.419   8.518   5.160
   32DC      H5  996   8.313   8.527   5.175
   32DC      C4  997   8.479   8.404   5.099
   32DC      N4  998   8.405   8.304   5.063
   32DC     H41  999   8.452   8.219   5.036
   32DC     H42 1000   8.305   8.315   5.073
   32DC      N3 1001   8.607   8.400   5.073
   32DC      C2 1002   8.686   8.507   5.111
   32DC      O2 1003   8.810   8.495   5.092
   32DC     C3' 1004   8.737   8.941   5.327
   32DC     H3' 1005   8.671   9.019   5.364
   32DC     C2' 1006   8.684   8.869   5.199
   32DC    H2'1 1007   8.577   8.887   5.186
   32DC    H2'2 1008   8.734   8.910   5.111
   32DC     O3' 1009   8.870   8.978   5.307
   33DG       P 1010   8.910   9.114   5.252
   33DG     O1P 1011   9.027   9.148   5.328
   33DG     O2P 1012   8.791   9.206   5.258
   33DG     O5' 1013   8.938   9.072   5.109
   33DG     C5' 1014   9.023   8.959   5.072
   33DG    H5'1 1015   9.015   8.876   5.143
   33DG    H5'2 1016   9.125   8.997   5.061
   33DG     C4' 1017   8.990   8.908   4.938
   33DG     H4' 1018   9.088   8.876   4.904
   33DG     O4' 1019   8.891   8.807   4.942
   33DG     C1' 1020   8.811   8.818   4.827
   33DG     H1' 1021   8.865   8.771   4.745
   33DG      N9 1022   8.680   8.754   4.854
   33DG      C8 1023   8.560   8.810   4.889
   33DG      H8 1024   8.544   8.909   4.930
   33DG      N7 1025   8.462   8.741   4.855
   33DG      C5 1026   8.516   8.614   4.816
   33DG      C6 1027   8.453   8.491   4.794
   33DG      O6 1028   8.332   8.456   4.801
   33DG      N1 1029   8.544   8.389   4.773
   33DG      H1 1030   8.497   8.304   4.745
   33DG      C2 1031   8.679   8.414   4.745
   33DG      N2 1032   8.759   8.314   4.707
   33DG     H21 1033   8.723   8.238   4.650
   33DG     H22 1034   8.855   8.342   4.697
   33DG      N3 1035   8.740   8.529   4.774
   33DG      C4 1036   8.651   8.625   4.819
   33DG     C3' 1037   8.945   9.008   4.831
   33DG     H3' 1038   8.943   9.111   4.867
   33DG     C2' 1039   8.807   8.967   4.803
   33DG    H2'1 1040   8.755   9.020   4.883
   33DG    H2'2 1041   8.769   8.999   4.706
   33DG     O3' 1042   9.017   8.995   4.710
   34DC       P 1043   9.129   9.102   4.674
   34DC     O1P 1044   9.225   9.122   4.789
   34DC     O2P 1045   9.060   9.224   4.618
   34DC     O5' 1046   9.228   9.038   4.559
   34DC     C5' 1047   9.313   8.930   4.583
   34DC    H5'1 1048   9.312   8.901   4.688
   34DC    H5'2 1049   9.412   8.953   4.545
   34DC     C4' 1050   9.273   8.800   4.502
   34DC     H4' 1051   9.350   8.725   4.517
   34DC     O4' 1052   9.144   8.752   4.541
   34DC     C1' 1053   9.075   8.713   4.427
   34DC     H1' 1054   9.094   8.609   4.400
   34DC      N1 1055   8.927   8.734   4.438
   34DC      C6 1056   8.868   8.859   4.462
   34DC      H6 1057   8.927   8.949   4.468
   34DC      C5 1058   8.738   8.864   4.478
   34DC      H5 1059   8.690   8.957   4.502
   34DC      C4 1060   8.664   8.747   4.485
   34DC      N4 1061   8.536   8.756   4.501
   34DC     H41 1062   8.487   8.670   4.519
   34DC     H42 1063   8.508   8.845   4.540
   34DC      N3 1064   8.714   8.631   4.461
   34DC      C2 1065   8.848   8.620   4.442
   34DC      O2 1066   8.889   8.509   4.420
   34DC     C3' 1067   9.275   8.817   4.350
   34DC     H3' 1068   9.311   8.914   4.318
   34DC     C2' 1069   9.129   8.797   4.314
   34DC    H2'1 1070   9.086   8.897   4.314
   34DC    H2'2 1071   9.116   8.747   4.218
   34DC     O3' 1072   9.355   8.707   4.300
   35DA       P 1073   9.440   8.711   4.157
   35DA     O1P 1074   9.560   8.626   4.181
   35DA     O2P 1075   9.464   8.856   4.126
   35DA     O5' 1076   9.349   8.648   4.045
   35DA     C5' 1077   9.310   8.511   4.048
   35DA    H5'1 1078   9.303   8.480   4.152
   35DA    H5'2 1079   9.388   8.456   3.995
   35DA     C4' 1080   9.178   8.493   3.976
   35DA     H4' 1081   9.156   8.387   3.985
   35DA     O4' 1082   9.075   8.562   4.040
   35DA     C1' 1083   8.970   8.582   3.945
   35DA     H1' 1084   8.907   8.495   3.927
   35DA      N9 1085   8.887   8.683   4.009
   35DA      C8 1086   8.917   8.818   4.026
   35DA      H8 1087   9.008   8.864   3.991
   35DA      N7 1088   8.828   8.880   4.095
   35DA      C5 1089   8.722   8.786   4.112
   35DA      C6 1090   8.594   8.781   4.165
   35DA      N6 1091   8.531   8.877   4.222
   35DA     H61 1092   8.434   8.862   4.248
   35DA     H62 1093   8.588   8.960   4.230
   35DA      N1 1094   8.518   8.674   4.150
   35DA      C2 1095   8.565   8.566   4.093
   35DA      H2 1096   8.493   8.485   4.084
   35DA      N3 1097   8.686   8.552   4.041
   35DA      C4 1098   8.758   8.665   4.056
   35DA     C3' 1099   9.171   8.536   3.827
   35DA     H3' 1100   9.259   8.592   3.797
   35DA     C2' 1101   9.047   8.625   3.820
   35DA    H2'1 1102   9.078   8.729   3.830
   35DA    H2'2 1103   8.984   8.612   3.731
   35DA     O3' 1104   9.157   8.416   3.746
   36DT       P 1105   9.131   8.409   3.586
   36DT     O1P 1106   9.178   8.277   3.538
   36DT     O2P 1107   9.194   8.527   3.521
   36DT     O5' 1108   8.979   8.408   3.553
   36DT     C5' 1109   8.894   8.302   3.588
   36DT    H5'1 1110   8.926   8.272   3.687
   36DT    H5'2 1111   8.903   8.212   3.526
   36DT     C4' 1112   8.748   8.346   3.582
   36DT     H4' 1113   8.689   8.258   3.609
   36DT     O4' 1114   8.713   8.450   3.669
   36DT     C1' 1115   8.594   8.507   3.632
   36DT     H1' 1116   8.509   8.441   3.650
   36DT      N1 1117   8.574   8.642   3.687
   36DT      C6 1118   8.662   8.746   3.663
   36DT      H6 1119   8.747   8.730   3.599
   36DT      C5 1120   8.647   8.873   3.713
   36DT      C7 1121   8.761   8.970   3.702
   36DT     H71 1122   8.833   8.925   3.633
   36DT     H72 1123   8.739   9.069   3.663
   36DT     H73 1124   8.822   8.972   3.793
   36DT      C4 1125   8.535   8.911   3.788
   36DT      O4 1126   8.508   9.016   3.843
   36DT      N3 1127   8.461   8.805   3.819
   36DT      H3 1128   8.389   8.819   3.889
   36DT      C2 1129   8.473   8.675   3.782
   36DT      O2 1130   8.395   8.590   3.821
   36DT     C3' 1131   8.687   8.391   3.447
   36DT     H3' 1132   8.772   8.429   3.391
   36DT     C2' 1133   8.598   8.513   3.477
   36DT    H2'1 1134   8.631   8.612   3.445
   36DT    H2'2 1135   8.499   8.493   3.436
   36DT     O3' 1136   8.614   8.285   3.390
   37DA       P 1137   8.554   8.290   3.244
   37DA     O1P 1138   8.545   8.150   3.203
   37DA     O2P 1139   8.632   8.375   3.150
   37DA     O5' 1140   8.404   8.348   3.262
   37DA     C5' 1141   8.315   8.293   3.355
   37DA    H5'1 1142   8.362   8.269   3.450
   37DA    H5'2 1143   8.283   8.196   3.317
   37DA     C4' 1144   8.194   8.387   3.381
   37DA     H4' 1145   8.126   8.341   3.452
   37DA     O4' 1146   8.247   8.511   3.438
   37DA     C1' 1147   8.169   8.613   3.377
   37DA     H1' 1148   8.077   8.628   3.433
   37DA      N9 1149   8.253   8.734   3.395
   37DA      C8 1150   8.381   8.749   3.357
   37DA      H8 1151   8.431   8.672   3.300
   37DA      N7 1152   8.432   8.863   3.394
   37DA      C5 1153   8.331   8.923   3.466
   37DA      C6 1154   8.308   9.052   3.518
   37DA      N6 1155   8.398   9.150   3.518
   37DA     H61 1156   8.362   9.237   3.555
   37DA     H62 1157   8.487   9.142   3.472
   37DA      N1 1158   8.192   9.084   3.579
   37DA      C2 1159   8.105   8.983   3.598
   37DA      H2 1160   8.020   8.999   3.663
   37DA      N3 1161   8.107   8.862   3.548
   37DA      C4 1162   8.223   8.843   3.475
   37DA     C3' 1163   8.124   8.420   3.251
   37DA     H3' 1164   8.172   8.371   3.166
   37DA     C2' 1165   8.138   8.573   3.235
   37DA    H2'1 1166   8.216   8.606   3.166
   37DA    H2'2 1167   8.044   8.618   3.202
   37DA     O3' 1168   7.995   8.374   3.241
   38DC       P 1169   7.914   8.385   3.105
   38DC     O1P 1170   7.802   8.286   3.105
   38DC     O2P 1171   8.014   8.380   2.997
   38DC     O5' 1172   7.855   8.532   3.110
   38DC     C5' 1173   7.748   8.574   3.198
   38DC    H5'1 1174   7.778   8.560   3.302
   38DC    H5'2 1175   7.663   8.511   3.172
   38DC     C4' 1176   7.708   8.722   3.183
   38DC     H4' 1177   7.616   8.745   3.238
   38DC     O4' 1178   7.817   8.800   3.224
   38DC     C1' 1179   7.839   8.898   3.125
   38DC     H1' 1180   7.764   8.974   3.147
   38DC      N1 1181   7.980   8.943   3.144
   38DC      C6 1182   8.089   8.884   3.073
   38DC      H6 1183   8.085   8.790   3.020
   38DC      C5 1184   8.209   8.948   3.082
   38DC      H5 1185   8.295   8.906   3.031
   38DC      C4 1186   8.214   9.077   3.144
   38DC      N4 1187   8.321   9.153   3.154
   38DC     H41 1188   8.322   9.234   3.214
   38DC     H42 1189   8.395   9.141   3.087
   38DC      N3 1190   8.117   9.129   3.211
   38DC      C2 1191   7.999   9.063   3.203
   38DC      O2 1192   7.898   9.108   3.262
   38DC     C3' 1193   7.680   8.761   3.034
   38DC     H3' 1194   7.675   8.679   2.962
   38DC     C2' 1195   7.798   8.842   2.987
   38DC    H2'1 1196   7.870   8.772   2.945
   38DC    H2'2 1197   7.779   8.927   2.921
   38DC     O3' 1198   7.573   8.849   3.037
   39DG       P 1199   7.437   8.815   2.962
   39DG     O1P 1200   7.389   8.695   3.034
   39DG     O2P 1201   7.461   8.807   2.814
   39DG     O5' 1202   7.336   8.940   2.994
   39DG     C5' 1203   7.312   8.981   3.129
   39DG    H5'1 1204   7.390   8.942   3.194
   39DG    H5'2 1205   7.214   8.943   3.158
   39DG     C4' 1206   7.321   9.131   3.146
   39DG     H4' 1207   7.290   9.152   3.248
   39DG     O4' 1208   7.460   9.171   3.156
   39DG     C1' 1209   7.476   9.284   3.079
   39DG     H1' 1210   7.451   9.373   3.137
   39DG      N9 1211   7.614   9.276   3.041
   39DG      C8 1212   7.675   9.167   2.969
   39DG      H8 1213   7.623   9.084   2.925
   39DG      N7 1214   7.803   9.193   2.964
   39DG      C5 1215   7.834   9.318   3.025
   39DG      C6 1216   7.953   9.398   3.049
   39DG      O6 1217   8.068   9.379   3.018
   39DG      N1 1218   7.928   9.528   3.107
   39DG      H1 1219   8.002   9.594   3.121
   39DG      C2 1220   7.805   9.562   3.147
   39DG      N2 1221   7.792   9.683   3.179
   39DG     H21 1222   7.862   9.755   3.165
   39DG     H22 1223   7.693   9.700   3.192
   39DG      N3 1224   7.693   9.492   3.134
   39DG      C4 1225   7.711   9.372   3.075
   39DG     C3' 1226   7.254   9.218   3.037
   39DG     H3' 1227   7.196   9.147   2.978
   39DG     C2' 1228   7.379   9.282   2.969
   39DG    H2'1 1229   7.415   9.216   2.890
   39DG    H2'2 1230   7.350   9.381   2.936
   39DG     O3' 1231   7.169   9.316   3.091
   40DC       P 1232   7.070   9.404   2.997
   40DC     O1P 1233   6.959   9.437   3.094
   40DC     O2P 1234   7.044   9.336   2.870
   40DC     O5' 1235   7.161   9.533   2.973
   40DC     C5' 1236   7.222   9.594   3.084
   40DC    H5'1 1237   7.287   9.517   3.127
   40DC    H5'2 1238   7.142   9.628   3.150
   40DC     C4' 1239   7.315   9.715   3.050
   40DC     H4' 1240   7.322   9.773   3.142
   40DC     O4' 1241   7.443   9.674   3.015
   40DC     C1' 1242   7.477   9.735   2.892
   40DC     H1' 1243   7.519   9.833   2.915
   40DC      N1 1244   7.578   9.654   2.818
   40DC      C6 1245   7.543   9.543   2.744
   40DC      H6 1246   7.440   9.517   2.724
   40DC      C5 1247   7.639   9.466   2.693
   40DC      H5 1248   7.616   9.382   2.629
   40DC      C4 1249   7.775   9.498   2.718
   40DC      N4 1250   7.873   9.411   2.700
   40DC     H41 1251   7.963   9.440   2.736
   40DC     H42 1252   7.853   9.314   2.682
   40DC      N3 1253   7.810   9.609   2.780
   40DC      C2 1254   7.712   9.684   2.834
   40DC      O2 1255   7.751   9.789   2.890
   40DC     C3' 1256   7.260   9.807   2.937
   40DC     H3' 1257   7.157   9.786   2.909
   40DC     C2' 1258   7.345   9.759   2.817
   40DC    H2'1 1259   7.293   9.672   2.777
   40DC    H2'2 1260   7.366   9.836   2.743
   40DC     O3' 1261   7.281   9.942   2.972
   41DA       P 1262   7.229  10.066   2.880
   41DA     O1P 1263   7.143  10.143   2.967
   41DA     O2P 1264   7.170  10.011   2.759
   41DA     O5' 1265   7.353  10.160   2.840
   41DA     C5' 1266   7.440  10.222   2.930
   41DA    H5'1 1267   7.503  10.147   2.977
   41DA    H5'2 1268   7.383  10.269   3.010
   41DA     C4' 1269   7.529  10.323   2.854
   41DA     H4' 1270   7.563  10.394   2.929
   41DA     O4' 1271   7.635  10.257   2.788
   41DA     C1' 1272   7.624  10.261   2.640
   41DA     H1' 1273   7.707  10.318   2.599
   41DA      N9 1274   7.635  10.117   2.605
   41DA      C8 1275   7.539  10.016   2.592
   41DA      H8 1276   7.433  10.038   2.595
   41DA      N7 1277   7.586   9.894   2.572
   41DA      C5 1278   7.725   9.917   2.558
   41DA      C6 1279   7.835   9.838   2.519
   41DA      N6 1280   7.820   9.714   2.493
   41DA     H61 1281   7.901   9.671   2.450
   41DA     H62 1282   7.733   9.666   2.473
   41DA      N1 1283   7.959   9.887   2.507
   41DA      C2 1284   7.975  10.012   2.529
   41DA      H2 1285   8.072  10.057   2.519
   41DA      N3 1286   7.880  10.105   2.567
   41DA      C4 1287   7.755  10.049   2.581
   41DA     C3' 1288   7.469  10.414   2.746
   41DA     H3' 1289   7.363  10.429   2.764
   41DA     C2' 1290   7.485  10.324   2.623
   41DA    H2'1 1291   7.404  10.252   2.624
   41DA    H2'2 1292   7.488  10.386   2.533
   41DA     O3' 1293   7.526  10.538   2.743
   42DC       P 1294   7.496  10.654   2.640
   42DC     O1P 1295   7.540  10.786   2.694
   42DC     O2P 1296   7.359  10.639   2.581
   42DC     O5' 1297   7.602  10.630   2.529
   42DC     C5' 1298   7.739  10.639   2.565
   42DC    H5'1 1299   7.763  10.560   2.636
   42DC    H5'2 1300   7.763  10.739   2.602
   42DC     C4' 1301   7.828  10.612   2.443
   42DC     H4' 1302   7.930  10.643   2.466
   42DC     O4' 1303   7.841  10.467   2.417
   42DC     C1' 1304   7.829  10.450   2.278
   42DC     H1' 1305   7.932  10.444   2.242
   42DC      N1 1306   7.779  10.309   2.250
   42DC      C6 1307   7.646  10.276   2.272
   42DC      H6 1308   7.568  10.349   2.289
   42DC      C5 1309   7.603  10.148   2.271
   42DC      H5 1310   7.498  10.130   2.293
   42DC      C4 1311   7.701  10.046   2.248
   42DC      N4 1312   7.677   9.923   2.228
   42DC     H41 1313   7.759   9.866   2.217
   42DC     H42 1314   7.582   9.896   2.206
   42DC      N3 1315   7.831  10.076   2.223
   42DC      C2 1316   7.873  10.202   2.223
   42DC      O2 1317   7.991  10.225   2.207
   42DC     C3' 1318   7.782  10.683   2.316
   42DC     H3' 1319   7.699  10.749   2.341
   42DC     C2' 1320   7.744  10.565   2.227
   42DC    H2'1 1321   7.640  10.541   2.250
   42DC    H2'2 1322   7.742  10.585   2.120
   42DC     O3' 1323   7.889  10.761   2.252
   43DA       P 1324   7.879  10.822   2.099
   43DA     O1P 1325   7.962  10.943   2.099
   43DA     O2P 1326   7.741  10.841   2.064
   43DA     O5' 1327   7.952  10.703   2.009
   43DA     C5' 1328   8.089  10.665   2.041
   43DA    H5'1 1329   8.078  10.608   2.134
   43DA    H5'2 1330   8.163  10.745   2.052
   43DA     C4' 1331   8.156  10.571   1.939
   43DA     H4' 1332   8.262  10.577   1.967
   43DA     O4' 1333   8.113  10.436   1.934
   43DA     C1' 1334   8.044  10.406   1.817
   43DA     H1' 1335   8.095  10.342   1.746
   43DA      N9 1336   7.922  10.331   1.857
   43DA      C8 1337   7.802  10.380   1.902
   43DA      H8 1338   7.790  10.486   1.922
   43DA      N7 1339   7.705  10.298   1.912
   43DA      C5 1340   7.763  10.172   1.883
   43DA      C6 1341   7.722  10.036   1.882
   43DA      N6 1342   7.609   9.993   1.924
   43DA     H61 1343   7.592   9.894   1.911
   43DA     H62 1344   7.535  10.058   1.945
   43DA      N1 1345   7.808   9.941   1.857
   43DA      C2 1346   7.934   9.980   1.824
   43DA      H2 1347   8.001   9.895   1.822
   43DA      N3 1348   7.991  10.098   1.821
   43DA      C4 1349   7.898  10.192   1.855
   43DA     C3' 1350   8.143  10.619   1.797
   43DA     H3' 1351   8.121  10.725   1.787
   43DA     C2' 1352   8.019  10.542   1.750
   43DA    H2'1 1353   7.927  10.595   1.774
   43DA    H2'2 1354   8.006  10.517   1.645
   43DA     O3' 1355   8.266  10.595   1.730
   44DT       P 1356   8.294  10.634   1.579
   44DT     O1P 1357   8.434  10.686   1.574
   44DT     O2P 1358   8.190  10.719   1.525
   44DT     O5' 1359   8.294  10.490   1.509
   44DT     C5' 1360   8.385  10.390   1.544
   44DT    H5'1 1361   8.369  10.380   1.652
   44DT    H5'2 1362   8.487  10.415   1.514
   44DT     C4' 1363   8.348  10.260   1.476
   44DT     H4' 1364   8.432  10.197   1.504
   44DT     O4' 1365   8.232  10.203   1.520
   44DT     C1' 1366   8.148  10.164   1.420
   44DT     H1' 1367   8.181  10.066   1.385
   44DT      N1 1368   8.006  10.155   1.470
   44DT      C6 1369   7.931  10.269   1.492
   44DT      H6 1370   7.982  10.363   1.476
   44DT      C5 1371   7.800  10.264   1.531
   44DT      C7 1372   7.726  10.398   1.550
   44DT     H71 1373   7.791  10.485   1.542
   44DT     H72 1374   7.643  10.406   1.480
   44DT     H73 1375   7.677  10.401   1.647
   44DT      C4 1376   7.731  10.135   1.543
   44DT      O4 1377   7.615  10.111   1.573
   44DT      N3 1378   7.815  10.031   1.514
   44DT      H3 1379   7.781   9.936   1.517
   44DT      C2 1380   7.946  10.033   1.475
   44DT      O2 1381   8.000   9.932   1.427
   44DT     C3' 1382   8.332  10.273   1.319
   44DT     H3' 1383   8.377  10.364   1.278
   44DT     C2' 1384   8.180  10.270   1.312
   44DT    H2'1 1385   8.131  10.365   1.334
   44DT    H2'2 1386   8.159  10.230   1.212
   44DT     O3' 1387   8.397  10.160   1.264
   45DG       P 1388   8.436  10.149   1.106
   45DG     O1P 1389   8.580  10.118   1.101
   45DG     O2P 1390   8.391  10.276   1.038
   45DG     O5' 1391   8.343  10.028   1.050
   45DG     C5' 1392   8.362   9.893   1.086
   45DG    H5'1 1393   8.308   9.882   1.180
   45DG    H5'2 1394   8.467   9.869   1.103
   45DG     C4' 1395   8.318   9.787   0.983
   45DG     H4' 1396   8.349   9.686   1.008
   45DG     O4' 1397   8.178   9.780   0.985
   45DG     C1' 1398   8.119   9.852   0.882
   45DG     H1' 1399   8.064   9.787   0.814
   45DG      N9 1400   8.029   9.952   0.948
   45DG      C8 1401   8.043  10.084   0.989
   45DG      H8 1402   8.126  10.146   0.957
   45DG      N7 1403   7.951  10.128   1.076
   45DG      C5 1404   7.861  10.015   1.081
   45DG      C6 1405   7.741   9.987   1.154
   45DG      O6 1406   7.685  10.051   1.245
   45DG      N1 1407   7.679   9.867   1.117
   45DG      H1 1408   7.592   9.846   1.164
   45DG      C2 1409   7.732   9.781   1.029
   45DG      N2 1410   7.647   9.686   0.987
   45DG     H21 1411   7.553   9.674   1.022
   45DG     H22 1412   7.677   9.628   0.910
   45DG      N3 1413   7.846   9.799   0.964
   45DG      C4 1414   7.904   9.917   0.991
   45DG     C3' 1415   8.355   9.824   0.841
   45DG     H3' 1416   8.447   9.882   0.836
   45DG     C2' 1417   8.236   9.910   0.801
   45DG    H2'1 1418   8.247  10.013   0.837
   45DG    H2'2 1419   8.215   9.918   0.695
   45DG     O3' 1420   8.362   9.710   0.756
   46DC3      P 1421   8.385   9.724   0.596
   46DC3    O1P 1422   8.422   9.587   0.555
   46DC3    O2P 1423   8.482   9.830   0.564
   46DC3    O5' 1424   8.235   9.749   0.545
   46DC3    C5' 1425   8.143   9.641   0.562
   46DC3   H5'1 1426   8.133   9.605   0.664
   46DC3   H5'2 1427   8.175   9.552   0.508
   46DC3    C4' 1428   8.003   9.688   0.519
   46DC3    H4' 1429   7.934   9.604   0.523
   46DC3    O4' 1430   7.938   9.779   0.604
   46DC3    C1' 1431   7.865   9.868   0.523
   46DC3    H1' 1432   7.780   9.810   0.486
   46DC3     N1 1433   7.833   9.984   0.613
   46DC3     C6 1434   7.937  10.074   0.639
   46DC3     H6 1435   8.034  10.057   0.595
   46DC3     C5 1436   7.910  10.184   0.720
   46DC3     H5 1437   7.991  10.256   0.731
   46DC3     C4 1438   7.780  10.200   0.774
   46DC3     N4 1439   7.748  10.305   0.848
   46DC3    H41 1440   7.658  10.298   0.895
   46DC3    H42 1441   7.813  10.381   0.861
   46DC3     N3 1442   7.685  10.114   0.751
   46DC3     C2 1443   7.709  10.007   0.670
   46DC3     O2 1444   7.617   9.922   0.658
   46DC3    C3' 1445   8.006   9.748   0.376
   46DC3    H3' 1446   8.105   9.757   0.332
   46DC3    C2' 1447   7.950   9.889   0.390
   46DC3   H2'1 1448   8.028   9.957   0.423
   46DC3   H2'2 1449   7.896   9.925   0.302
   46DC3    O3' 1450   7.929   9.670   0.288
   46DC3    H3T 1451   7.985   9.604   0.246
   47DT5    H5T 1452   9.472   8.276   5.121
   47DT5    O5' 1453   9.436   8.364   5.109
   47DT5    C5' 1454   9.289   8.361   5.126
   47DT5   H5'1 1455   9.239   8.313   5.042
   47DT5   H5'2 1456   9.271   8.468   5.120
   47DT5    C4' 1457   9.239   8.308   5.257
   47DT5    H4' 1458   9.306   8.349   5.332
   47DT5    O4' 1459   9.107   8.347   5.278
   47DT5    C1' 1460   9.054   8.254   5.371
   47DT5    H1' 1461   9.108   8.256   5.466
   47DT5     N1 1462   8.909   8.273   5.396
   47DT5     C6 1463   8.817   8.175   5.373
   47DT5     H6 1464   8.848   8.076   5.343
   47DT5     C5 1465   8.683   8.205   5.381
   47DT5     C7 1466   8.581   8.094   5.340
   47DT5    H71 1467   8.638   8.014   5.293
   47DT5    H72 1468   8.527   8.053   5.426
   47DT5    H73 1469   8.513   8.137   5.266
   47DT5     C4 1470   8.634   8.338   5.433
   47DT5     O4 1471   8.520   8.370   5.460
   47DT5     N3 1472   8.737   8.418   5.471
   47DT5     H3 1473   8.709   8.513   5.492
   47DT5     C2 1474   8.872   8.394   5.460
   47DT5     O2 1475   8.948   8.484   5.500
   47DT5    C3' 1476   9.248   8.156   5.266
   47DT5    H3' 1477   9.275   8.104   5.174
   47DT5    C2' 1478   9.099   8.122   5.300
   47DT5   H2'1 1479   9.054   8.110   5.201
   47DT5   H2'2 1480   9.089   8.038   5.369
   47DT5    O3' 1481   9.343   8.113   5.370
   48DA       P 1482   9.501   8.088   5.346
   48DA     O1P 1483   9.549   8.126   5.209
   48DA     O2P 1484   9.517   7.947   5.388
   48DA     O5' 1485   9.576   8.177   5.457
   48DA     C5' 1486   9.557   8.315   5.452
   48DA    H5'1 1487   9.508   8.351   5.362
   48DA    H5'2 1488   9.656   8.360   5.456
   48DA     C4' 1489   9.475   8.375   5.568
   48DA     H4' 1490   9.468   8.483   5.564
   48DA     O4' 1491   9.345   8.319   5.566
   48DA     C1' 1492   9.314   8.273   5.694
   48DA     H1' 1493   9.283   8.362   5.749
   48DA      N9 1494   9.197   8.184   5.698
   48DA      C8 1495   9.189   8.063   5.643
   48DA      H8 1496   9.278   8.015   5.605
   48DA      N7 1497   9.065   8.023   5.639
   48DA      C5 1498   8.989   8.129   5.699
   48DA      C6 1499   8.851   8.152   5.727
   48DA      N6 1500   8.756   8.064   5.708
   48DA     H61 1501   8.676   8.071   5.769
   48DA     H62 1502   8.782   7.972   5.675
   48DA      N1 1503   8.815   8.261   5.791
   48DA      C2 1504   8.906   8.348   5.827
   48DA      H2 1505   8.874   8.440   5.872
   48DA      N3 1506   9.034   8.340   5.805
   48DA      C4 1507   9.071   8.225   5.740
   48DA     C3' 1508   9.539   8.330   5.703
   48DA     H3' 1509   9.640   8.290   5.695
   48DA     C2' 1510   9.449   8.225   5.749
   48DA    H2'1 1511   9.481   8.135   5.695
   48DA    H2'2 1512   9.447   8.208   5.856
   48DA     O3' 1513   9.534   8.421   5.811
   49DT       P 1514   9.642   8.536   5.833
   49DT     O1P 1515   9.677   8.605   5.705
   49DT     O2P 1516   9.746   8.484   5.922
   49DT     O5' 1517   9.561   8.641   5.912
   49DT     C5' 1518   9.525   8.629   6.049
   49DT    H5'1 1519   9.609   8.655   6.113
   49DT    H5'2 1520   9.504   8.524   6.070
   49DT     C4' 1521   9.400   8.718   6.063
   49DT     H4' 1522   9.414   8.806   5.999
   49DT     O4' 1523   9.288   8.643   6.019
   49DT     C1' 1524   9.191   8.641   6.118
   49DT     H1' 1525   9.121   8.723   6.109
   49DT      N1 1526   9.120   8.513   6.127
   49DT      C6 1527   9.201   8.404   6.115
   49DT      H6 1528   9.308   8.421   6.112
   49DT      C5 1529   9.155   8.274   6.103
   49DT      C7 1530   9.256   8.164   6.094
   49DT     H71 1531   9.254   8.116   6.192
   49DT     H72 1532   9.238   8.085   6.021
   49DT     H73 1533   9.353   8.212   6.085
   49DT      C4 1534   9.010   8.250   6.104
   49DT      O4 1535   8.955   8.141   6.091
   49DT      N3 1536   8.934   8.367   6.130
   49DT      H3 1537   8.837   8.361   6.157
   49DT      C2 1538   8.979   8.496   6.121
   49DT      O2 1539   8.905   8.590   6.115
   49DT     C3' 1540   9.377   8.757   6.206
   49DT     H3' 1541   9.463   8.737   6.268
   49DT     C2' 1542   9.265   8.661   6.246
   49DT    H2'1 1543   9.307   8.569   6.288
   49DT    H2'2 1544   9.199   8.702   6.322
   49DT     O3' 1545   9.333   8.891   6.228
   50DG       P 1546   9.313   8.951   6.382
   50DG     O1P 1547   9.343   9.098   6.380
   50DG     O2P 1548   9.399   8.869   6.471
   50DG     O5' 1549   9.161   8.926   6.412
   50DG     C5' 1550   9.057   8.996   6.349
   50DG    H5'1 1551   9.008   8.942   6.268
   50DG    H5'2 1552   9.097   9.088   6.307
   50DG     C4' 1553   8.946   9.025   6.448
   50DG     H4' 1554   8.882   9.107   6.414
   50DG     O4' 1555   8.855   8.911   6.450
   50DG     C1' 1556   8.881   8.840   6.573
   50DG     H1' 1557   8.788   8.819   6.627
   50DG      N9 1558   8.928   8.699   6.538
   50DG      C8 1559   9.051   8.647   6.525
   50DG      H8 1560   9.142   8.705   6.533
   50DG      N7 1561   9.050   8.519   6.497
   50DG      C5 1562   8.918   8.485   6.488
   50DG      C6 1563   8.844   8.367   6.452
   50DG      O6 1564   8.889   8.260   6.412
   50DG      N1 1565   8.702   8.380   6.443
   50DG      H1 1566   8.637   8.307   6.418
   50DG      C2 1567   8.641   8.490   6.482
   50DG      N2 1568   8.511   8.480   6.484
   50DG     H21 1569   8.472   8.397   6.442
   50DG     H22 1570   8.464   8.568   6.501
   50DG      N3 1571   8.703   8.606   6.518
   50DG      C4 1572   8.841   8.596   6.514
   50DG     C3' 1573   8.985   9.056   6.597
   50DG     H3' 1574   9.084   9.100   6.590
   50DG     C2' 1575   8.980   8.915   6.662
   50DG    H2'1 1576   9.083   8.880   6.656
   50DG    H2'2 1577   8.959   8.905   6.769
   50DG     O3' 1578   8.902   9.152   6.658
   51DC       P 1579   8.875   9.163   6.816
   51DC     O1P 1580   8.814   9.292   6.827
   51DC     O2P 1581   9.001   9.148   6.891
   51DC     O5' 1582   8.769   9.057   6.867
   51DC     C5' 1583   8.648   9.018   6.802
   51DC    H5'1 1584   8.678   8.986   6.703
   51DC    H5'2 1585   8.572   9.096   6.792
   51DC     C4' 1586   8.584   8.894   6.871
   51DC     H4' 1587   8.478   8.897   6.849
   51DC     O4' 1588   8.653   8.779   6.818
   51DC     C1' 1589   8.690   8.695   6.921
   51DC     H1' 1590   8.603   8.635   6.948
   51DC      N1 1591   8.801   8.595   6.892
   51DC      C6 1592   8.934   8.631   6.902
   51DC      H6 1593   8.967   8.726   6.941
   51DC      C5 1594   9.028   8.555   6.843
   51DC      H5 1595   9.131   8.589   6.841
   51DC      C4 1596   8.994   8.420   6.801
   51DC      N4 1597   9.089   8.339   6.768
   51DC     H41 1598   9.064   8.245   6.739
   51DC     H42 1599   9.184   8.369   6.777
   51DC      N3 1600   8.868   8.380   6.803
   51DC      C2 1601   8.770   8.465   6.846
   51DC      O2 1602   8.649   8.428   6.837
   51DC     C3' 1603   8.598   8.890   7.027
   51DC     H3' 1604   8.621   8.988   7.070
   51DC     C2' 1605   8.717   8.789   7.036
   51DC    H2'1 1606   8.812   8.843   7.027
   51DC    H2'2 1607   8.707   8.732   7.128
   51DC     O3' 1608   8.488   8.832   7.087
   52DG       P 1609   8.377   8.918   7.160
   52DG     O1P 1610   8.302   9.000   7.061
   52DG     O2P 1611   8.438   8.986   7.275
   52DG     O5' 1612   8.272   8.798   7.207
   52DG     C5' 1613   8.182   8.737   7.109
   52DG    H5'1 1614   8.226   8.743   7.009
   52DG    H5'2 1615   8.093   8.799   7.114
   52DG     C4' 1616   8.151   8.592   7.145
   52DG     H4' 1617   8.058   8.561   7.097
   52DG     O4' 1618   8.258   8.506   7.106
   52DG     C1' 1619   8.301   8.438   7.225
   52DG     H1' 1620   8.254   8.340   7.229
   52DG      N9 1621   8.451   8.436   7.209
   52DG      C8 1622   8.544   8.532   7.229
   52DG      H8 1623   8.521   8.631   7.266
   52DG      N7 1624   8.669   8.488   7.209
   52DG      C5 1625   8.652   8.356   7.162
   52DG      C6 1626   8.745   8.251   7.118
   52DG      O6 1627   8.865   8.255   7.120
   52DG      N1 1628   8.681   8.133   7.071
   52DG      H1 1629   8.746   8.056   7.070
   52DG      C2 1630   8.551   8.122   7.069
   52DG      N2 1631   8.510   7.997   7.062
   52DG     H21 1632   8.575   7.923   7.041
   52DG     H22 1633   8.415   7.970   7.082
   52DG      N3 1634   8.466   8.209   7.110
   52DG      C4 1635   8.518   8.327   7.158
   52DG     C3' 1636   8.124   8.576   7.295
   52DG     H3' 1637   8.088   8.665   7.346
   52DG     C2' 1638   8.254   8.515   7.352
   52DG    H2'1 1639   8.331   8.587   7.380
   52DG    H2'2 1640   8.229   8.450   7.436
   52DG     O3' 1641   8.019   8.478   7.298
   53DC       P 1642   7.945   8.428   7.422
   53DC     O1P 1643   7.811   8.376   7.385
   53DC     O2P 1644   7.947   8.539   7.522
   53DC     O5' 1645   8.028   8.306   7.480
   53DC     C5' 1646   8.029   8.179   7.423
   53DC    H5'1 1647   8.080   8.191   7.328
   53DC    H5'2 1648   7.931   8.133   7.412
   53DC     C4' 1649   8.134   8.091   7.493
   53DC     H4' 1650   8.118   7.987   7.465
   53DC     O4' 1651   8.270   8.124   7.451
   53DC     C1' 1652   8.353   8.120   7.560
   53DC     H1' 1653   8.370   8.018   7.595
   53DC      N1 1654   8.495   8.178   7.536
   53DC      C6 1655   8.518   8.316   7.543
   53DC      H6 1656   8.439   8.385   7.567
   53DC      C5 1657   8.647   8.355   7.516
   53DC      H5 1658   8.671   8.460   7.528
   53DC      C4 1659   8.747   8.256   7.488
   53DC      N4 1660   8.871   8.291   7.475
   53DC     H41 1661   8.927   8.215   7.438
   53DC     H42 1662   8.889   8.381   7.516
   53DC      N3 1663   8.722   8.128   7.461
   53DC      C2 1664   8.590   8.092   7.489
   53DC      O2 1665   8.568   7.970   7.471
   53DC     C3' 1666   8.133   8.100   7.642
   53DC     H3' 1667   8.041   8.147   7.677
   53DC     C2' 1668   8.262   8.179   7.668
   53DC    H2'1 1669   8.248   8.286   7.657
   53DC    H2'2 1670   8.301   8.158   7.768
   53DC     O3' 1671   8.149   7.973   7.695
   54DG       P 1672   8.029   7.864   7.697
   54DG     O1P 1673   7.967   7.835   7.567
   54DG     O2P 1674   7.949   7.900   7.815
   54DG     O5' 1675   8.108   7.732   7.735
   54DG     C5' 1676   8.205   7.673   7.656
   54DG    H5'1 1677   8.271   7.753   7.622
   54DG    H5'2 1678   8.167   7.627   7.564
   54DG     C4' 1679   8.283   7.560   7.732
   54DG     H4' 1680   8.270   7.468   7.675
   54DG     O4' 1681   8.424   7.600   7.731
   54DG     C1' 1682   8.461   7.646   7.863
   54DG     H1' 1683   8.539   7.582   7.904
   54DG      N9 1684   8.510   7.788   7.852
   54DG      C8 1685   8.435   7.907   7.861
   54DG      H8 1686   8.327   7.915   7.860
   54DG      N7 1687   8.510   8.012   7.853
   54DG      C5 1688   8.639   7.957   7.835
   54DG      C6 1689   8.762   8.026   7.816
   54DG      O6 1690   8.775   8.149   7.827
   54DG      N1 1691   8.868   7.948   7.785
   54DG      H1 1692   8.959   7.987   7.765
   54DG      C2 1693   8.861   7.817   7.792
   54DG      N2 1694   8.980   7.756   7.760
   54DG     H21 1695   9.059   7.806   7.723
   54DG     H22 1696   8.982   7.655   7.757
   54DG      N3 1697   8.752   7.746   7.813
   54DG      C4 1698   8.642   7.819   7.839
   54DG     C3' 1699   8.254   7.530   7.879
   54DG     H3' 1700   8.150   7.561   7.894
   54DG     C2' 1701   8.340   7.633   7.947
   54DG    H2'1 1702   8.279   7.723   7.957
   54DG    H2'2 1703   8.370   7.605   8.048
   54DG     O3' 1704   8.258   7.390   7.914
   55DT       P 1705   8.288   7.338   8.062
   55DT     O1P 1706   8.281   7.189   8.065
   55DT     O2P 1707   8.209   7.421   8.153
   55DT     O5' 1708   8.446   7.379   8.086
   55DT     C5' 1709   8.549   7.311   8.016
   55DT    H5'1 1710   8.540   7.340   7.911
   55DT    H5'2 1711   8.526   7.206   8.036
   55DT     C4' 1712   8.697   7.349   8.068
   55DT     H4' 1713   8.764   7.283   8.013
   55DT     O4' 1714   8.719   7.484   8.043
   55DT     C1' 1715   8.771   7.542   8.168
   55DT     H1' 1716   8.873   7.503   8.166
   55DT      N1 1717   8.761   7.694   8.169
   55DT      C6 1718   8.646   7.755   8.218
   55DT      H6 1719   8.554   7.700   8.238
   55DT      C5 1720   8.644   7.890   8.221
   55DT      C7 1721   8.515   7.956   8.245
   55DT     H71 1722   8.523   8.038   8.316
   55DT     H72 1723   8.467   7.992   8.154
   55DT     H73 1724   8.442   7.881   8.278
   55DT      C4 1725   8.747   7.974   8.180
   55DT      O4 1726   8.755   8.097   8.168
   55DT      N3 1727   8.865   7.906   8.142
   55DT      H3 1728   8.941   7.964   8.109
   55DT      C2 1729   8.873   7.768   8.136
   55DT      O2 1730   8.979   7.715   8.100
   55DT     C3' 1731   8.709   7.328   8.218
   55DT     H3' 1732   8.631   7.259   8.251
   55DT     C2' 1733   8.694   7.473   8.274
   55DT    H2'1 1734   8.593   7.512   8.292
   55DT    H2'2 1735   8.736   7.484   8.374
   55DT     O3' 1736   8.843   7.280   8.241
   56DG       P 1737   8.868   7.146   8.327
   56DG     O1P 1738   8.833   7.033   8.243
   56DG     O2P 1739   8.806   7.164   8.458
   56DG     O5' 1740   9.030   7.154   8.335
   56DG     C5' 1741   9.108   7.141   8.218
   56DG    H5'1 1742   9.053   7.189   8.138
   56DG    H5'2 1743   9.125   7.036   8.195
   56DG     C4' 1744   9.247   7.206   8.232
   56DG     H4' 1745   9.308   7.176   8.147
   56DG     O4' 1746   9.224   7.345   8.238
   56DG     C1' 1747   9.251   7.386   8.375
   56DG     H1' 1748   9.353   7.421   8.364
   56DG      N9 1749   9.161   7.497   8.407
   56DG      C8 1750   9.031   7.490   8.454
   56DG      H8 1751   8.990   7.394   8.484
   56DG      N7 1752   8.977   7.608   8.445
   56DG      C5 1753   9.075   7.698   8.410
   56DG      C6 1754   9.082   7.845   8.410
   56DG      O6 1755   8.989   7.924   8.424
   56DG      N1 1756   9.205   7.896   8.376
   56DG      H1 1757   9.207   7.997   8.372
   56DG      C2 1758   9.312   7.821   8.343
   56DG      N2 1759   9.410   7.890   8.298
   56DG     H21 1760   9.394   7.990   8.289
   56DG     H22 1761   9.504   7.858   8.312
   56DG      N3 1762   9.310   7.686   8.345
   56DG      C4 1763   9.193   7.633   8.384
   56DG     C3' 1764   9.308   7.158   8.368
   56DG     H3' 1765   9.266   7.061   8.396
   56DG     C2' 1766   9.256   7.264   8.464
   56DG    H2'1 1767   9.160   7.239   8.509
   56DG    H2'2 1768   9.323   7.274   8.550
   56DG     O3' 1769   9.450   7.145   8.357
   57DC       P 1770   9.536   7.110   8.476
   57DC     O1P 1771   9.666   7.060   8.427
   57DC     O2P 1772   9.461   7.023   8.566
   57DC     O5' 1773   9.573   7.240   8.560
   57DC     C5' 1774   9.651   7.337   8.493
   57DC    H5'1 1775   9.639   7.358   8.386
   57DC    H5'2 1776   9.751   7.298   8.512
   57DC     C4' 1777   9.645   7.474   8.571
   57DC     H4' 1778   9.732   7.534   8.544
   57DC     O4' 1779   9.521   7.531   8.566
   57DC     C1' 1780   9.485   7.568   8.692
   57DC     H1' 1781   9.543   7.657   8.717
   57DC      N1 1782   9.347   7.613   8.708
   57DC      C6 1783   9.251   7.518   8.731
   57DC      H6 1784   9.268   7.412   8.719
   57DC      C5 1785   9.124   7.558   8.768
   57DC      H5 1786   9.048   7.484   8.786
   57DC      C4 1787   9.097   7.695   8.770
   57DC      N4 1788   8.978   7.736   8.812
   57DC     H41 1789   8.956   7.835   8.810
   57DC     H42 1790   8.910   7.672   8.852
   57DC      N3 1791   9.191   7.788   8.746
   57DC      C2 1792   9.308   7.749   8.706
   57DC      O2 1793   9.386   7.832   8.666
   57DC     C3' 1794   9.666   7.451   8.722
   57DC     H3' 1795   9.710   7.355   8.750
   57DC     C2' 1796   9.531   7.464   8.786
   57DC    H2'1 1797   9.483   7.367   8.781
   57DC    H2'2 1798   9.534   7.500   8.889
   57DC     O3' 1799   9.748   7.550   8.780
   58DG       P 1800   9.907   7.528   8.812
   58DG     O1P 1801   9.968   7.472   8.689
   58DG     O2P 1802   9.921   7.439   8.931
   58DG     O5' 1803   9.972   7.662   8.850
   58DG     C5' 1804  10.011   7.754   8.749
   58DG    H5'1 1805   9.997   7.702   8.655
   58DG    H5'2 1806  10.119   7.763   8.758
   58DG     C4' 1807   9.944   7.888   8.770
   58DG     H4' 1808   9.978   7.952   8.688
   58DG     O4' 1809   9.800   7.872   8.771
   58DG     C1' 1810   9.745   7.949   8.876
   58DG     H1' 1811   9.735   8.050   8.836
   58DG      N9 1812   9.610   7.910   8.932
   58DG      C8 1813   9.584   7.790   8.981
   58DG      H8 1814   9.662   7.716   8.971
   58DG      N7 1815   9.467   7.773   9.033
   58DG      C5 1816   9.412   7.902   9.024
   58DG      C6 1817   9.287   7.955   9.071
   58DG      O6 1818   9.190   7.897   9.122
   58DG      N1 1819   9.270   8.090   9.044
   58DG      H1 1820   9.180   8.133   9.062
   58DG      C2 1821   9.370   8.170   8.993
   58DG      N2 1822   9.351   8.299   8.982
   58DG     H21 1823   9.262   8.340   9.007
   58DG     H22 1824   9.432   8.356   8.963
   58DG      N3 1825   9.491   8.127   8.955
   58DG      C4 1826   9.507   7.991   8.972
   58DG     C3' 1827   9.979   7.962   8.894
   58DG     H3' 1828  10.060   7.914   8.950
   58DG     C2' 1829   9.853   7.949   8.981
   58DG    H2'1 1830   9.844   7.853   9.032
   58DG    H2'2 1831   9.847   8.026   9.058
   58DG     O3' 1832  10.012   8.102   8.874
   59DT       P 1833  10.076   8.196   8.983
   59DT     O1P 1834  10.183   8.282   8.928
   59DT     O2P 1835  10.100   8.124   9.108
   59DT     O5' 1836   9.954   8.289   9.018
   59DT     C5' 1837   9.906   8.392   8.930
   59DT    H5'1 1838   9.827   8.345   8.872
   59DT    H5'2 1839   9.982   8.433   8.862
   59DT     C4' 1840   9.831   8.502   9.005
   59DT     H4' 1841   9.812   8.580   8.932
   59DT     O4' 1842   9.708   8.443   9.055
   59DT     C1' 1843   9.716   8.458   9.195
   59DT     H1' 1844   9.659   8.548   9.219
   59DT      N1 1845   9.645   8.341   9.248
   59DT      C6 1846   9.707   8.214   9.263
   59DT      H6 1847   9.813   8.206   9.243
   59DT      C5 1848   9.635   8.101   9.298
   59DT      C7 1849   9.709   7.963   9.318
   59DT     H71 1850   9.655   7.890   9.258
   59DT     H72 1851   9.814   7.970   9.292
   59DT     H73 1852   9.696   7.934   9.423
   59DT      C4 1853   9.495   8.112   9.325
   59DT      O4 1854   9.421   8.017   9.356
   59DT      N3 1855   9.436   8.237   9.313
   59DT      H3 1856   9.345   8.253   9.353
   59DT      C2 1857   9.508   8.352   9.280
   59DT      O2 1858   9.447   8.461   9.298
   59DT     C3' 1859   9.914   8.559   9.118
   59DT     H3' 1860  10.019   8.538   9.100
   59DT     C2' 1861   9.861   8.482   9.233
   59DT    H2'1 1862   9.919   8.390   9.235
   59DT    H2'2 1863   9.868   8.537   9.327
   59DT     O3' 1864   9.887   8.699   9.119
   60DG       P 1865   9.970   8.802   9.216
   60DG     O1P 1866   9.952   8.941   9.165
   60DG     O2P 1867  10.108   8.749   9.219
   60DG     O5' 1868   9.900   8.786   9.357
   60DG     C5' 1869   9.772   8.829   9.394
   60DG    H5'1 1870   9.707   8.786   9.318
   60DG    H5'2 1871   9.771   8.938   9.387
   60DG     C4' 1872   9.732   8.773   9.529
   60DG     H4' 1873   9.658   8.842   9.570
   60DG     O4' 1874   9.680   8.642   9.507
   60DG     C1' 1875   9.719   8.564   9.610
   60DG     H1' 1876   9.657   8.586   9.697
   60DG      N9 1877   9.718   8.416   9.595
   60DG      C8 1878   9.820   8.326   9.576
   60DG      H8 1879   9.918   8.344   9.534
   60DG      N7 1880   9.783   8.202   9.590
   60DG      C5 1881   9.651   8.212   9.624
   60DG      C6 1882   9.552   8.109   9.652
   60DG      O6 1883   9.565   7.987   9.655
   60DG      N1 1884   9.430   8.159   9.690
   60DG      H1 1885   9.357   8.090   9.698
   60DG      C2 1886   9.398   8.285   9.701
   60DG      N2 1887   9.284   8.302   9.759
   60DG     H21 1888   9.223   8.222   9.771
   60DG     H22 1889   9.255   8.399   9.762
   60DG      N3 1890   9.478   8.383   9.664
   60DG      C4 1891   9.606   8.341   9.626
   60DG     C3' 1892   9.844   8.760   9.632
   60DG     H3' 1893   9.938   8.803   9.596
   60DG     C2' 1894   9.867   8.612   9.636
   60DG    H2'1 1895   9.932   8.580   9.554
   60DG    H2'2 1896   9.906   8.582   9.733
   60DG     O3' 1897   9.807   8.811   9.763
   61DC       P 1898   9.891   8.926   9.827
   61DC     O1P 1899   9.867   9.047   9.746
   61DC     O2P 1900  10.027   8.880   9.854
   61DC     O5' 1901   9.833   8.948   9.965
   61DC     C5' 1902   9.715   9.022   9.990
   61DC    H5'1 1903   9.679   9.070   9.898
   61DC    H5'2 1904   9.745   9.102  10.058
   61DC     C4' 1905   9.600   8.931  10.045
   61DC     H4' 1906   9.504   8.982  10.045
   61DC     O4' 1907   9.571   8.816   9.965
   61DC     C1' 1908   9.519   8.711  10.042
   61DC     H1' 1909   9.411   8.708  10.028
   61DC      N1 1910   9.589   8.581  10.014
   61DC      C6 1911   9.726   8.571   9.988
   61DC      H6 1912   9.793   8.655   9.989
   61DC      C5 1913   9.782   8.454   9.962
   61DC      H5 1914   9.887   8.439   9.943
   61DC      C4 1915   9.692   8.343   9.961
   61DC      N4 1916   9.737   8.225   9.920
   61DC     H41 1917   9.679   8.146   9.948
   61DC     H42 1918   9.834   8.209   9.899
   61DC      N3 1919   9.560   8.343   9.983
   61DC      C2 1920   9.508   8.463  10.006
   61DC      O2 1921   9.384   8.472  10.027
   61DC     C3' 1922   9.642   8.876  10.187
   61DC     H3' 1923   9.748   8.856  10.180
   61DC     C2' 1924   9.555   8.750  10.189
   61DC    H2'1 1925   9.605   8.666  10.238
   61DC    H2'2 1926   9.467   8.787  10.242
   61DC     O3' 1927   9.619   8.966  10.299
   62DG3      P 1928   9.727   8.998  10.418
   62DG3    O1P 1929   9.702   9.139  10.462
   62DG3    O2P 1930   9.863   8.952  10.379
   62DG3    O5' 1931   9.676   8.907  10.538
   62DG3    C5' 1932   9.563   8.939  10.607
   62DG3   H5'1 1933   9.501   9.004  10.545
   62DG3   H5'2 1934   9.582   9.001  10.694
   62DG3    C4' 1935   9.494   8.813  10.652
   62DG3    H4' 1936   9.397   8.842  10.693
   62DG3    O4' 1937   9.470   8.719  10.543
   62DG3    C1' 1938   9.509   8.591  10.589
   62DG3    H1' 1939   9.431   8.517  10.570
   62DG3     N9 1940   9.620   8.548  10.496
   62DG3     C8 1941   9.748   8.592  10.488
   62DG3     H8 1942   9.780   8.673  10.551
   62DG3     N7 1943   9.831   8.519  10.423
   62DG3     C5 1944   9.748   8.408  10.376
   62DG3     C6 1945   9.768   8.298  10.293
   62DG3     O6 1946   9.863   8.278  10.218
   62DG3     N1 1947   9.671   8.203  10.295
   62DG3     H1 1948   9.685   8.120  10.240
   62DG3     C2 1949   9.552   8.222  10.357
   62DG3     N2 1950   9.461   8.128  10.338
   62DG3    H21 1951   9.498   8.040  10.304
   62DG3    H22 1952   9.373   8.142  10.386
   62DG3     N3 1953   9.525   8.331  10.430
   62DG3     C4 1954   9.625   8.422  10.436
   62DG3    C3' 1955   9.578   8.746  10.761
   62DG3    H3' 1956   9.685   8.760  10.752
   62DG3    C2' 1957   9.543   8.598  10.734
   62DG3   H2'1 1958   9.619   8.528  10.769
   62DG3   H2'2 1959   9.451   8.578  10.789
   62DG3    O3' 1960   9.543   8.772  10.904
   62DG3    H3T 1961   9.582   8.853  10.937
   63SOL     OW 1962  10.743   2.746  12.468
   63SOL    HW1 1963  10.836   2.739  12.446
   63SOL    HW2 1964  10.742   2.770  12.561
   64SOL     OW 1965   8.178  10.367  12.980
   64SOL    HW1 1966   8.240  10.296  13.000
   64SOL    HW2 1967   8.118  10.329  12.915
   65SOL     OW 1968   7.183   3.297  14.319
   65SOL    HW1 1969   7.177   3.329  14.229
   65SOL    HW2 1970   7.144   3.210  14.316
   66SOL     OW 1971  14.003   4.250   4.423
   66SOL    HW1 1972  13.914   4.228   4.396
   66SOL    HW2 1973  14.047   4.277   4.342
   67SOL     OW 1974   6.984   8.085  14.737
   67SOL    HW1 1975   7.059   8.027  14.724
   67SOL    HW2 1976   6.945   8.092  14.650
   68SOL     OW 1977   0.946   8.050   6.713
   68SOL    HW1 1978   0.876   8.114   6.703
   68SOL    HW2 1979   0.901   7.966   6.718
   69SOL     OW 1980   8.089   2.998   6.466
   69SOL    HW1 1981   8.166   3.055   6.459
   69SOL    HW2 1982   8.025   3.037   6.407
   70SOL     OW 1983   9.754   2.921  13.635
   70SOL    HW1 1984   9.811   2.846  13.656
   70SOL    HW2 1985   9.672   2.881  13.606
   71SOL     OW 1986   5.046   4.283   7.124
   71SOL    HW1 1987   4.958   4.310   7.149
   71SOL    HW2 1988   5.057   4.313   7.034
   72SOL     OW 1989   2.049   6.269   7.587
   72SOL    HW1 1990   2.028   6.357   7.555
   72SOL    HW2 1991   2.038   6.275   7.682
   73SOL     OW 1992   5.224  11.916   1.855
   73SOL    HW1 1993   5.211  11.910   1.950
   73SOL    HW2 1994   5.315  11.945   1.846
   74SOL     OW 1995   3.510   6.014  14.534
   74SOL    HW1 1996   3.604   6.003  14.519
   74SOL    HW2 1997   3.469   5.943  14.485
   75SOL     OW 1998   6.198   6.288  13.086
   75SOL    HW1 1999   6.244   6.242  13.015
   75SOL    HW2 2000   6.267   6.325  13.140
   76SOL     OW 2001   7.633   0.924  11.809
   76SOL    HW1 2002   7.699   0.948  11.744
   76SOL    HW2 2003   7.555   0.972  11.783
   77SOL     OW 2004  12.903   2.074   9.590
   77SOL    HW1 2005  12.916   1.980   9.603
   77SOL    HW2 2006  12.965   2.098   9.521
   78SOL     OW 2007   6.743  12.715  10.658
   78SOL    HW1 2008   6.808  12.714  10.728
   78SOL    HW2 2009   6.718  12.807  10.650
   79SOL     OW 2010   9.365   3.708   5.037
   79SOL    HW1 2011   9.313   3.774   4.991
   79SOL    HW2 2012   9.360   3.630   4.982
   80SOL     OW 2013  11.196   2.567   8.272
   80SOL    HW1 2014  11.233   2.481   8.290
   80SOL    HW2 2015  11.106   2.550   8.245
   81SOL     OW 2016   9.476   5.841  14.598
   81SOL    HW1 2017   9.415   5.906  14.563
   81SOL    HW2 2018   9.422   5.782  14.650
   82SOL     OW 2019   5.507  10.552   7.667
   82SOL    HW1 2020   5.444  10.540   7.596
   82SOL    HW2 2021   5.558  10.629   7.640
   83SOL     OW 2022   3.142   0.266  13.236
   83SOL    HW1 2023   3.122   0.173  13.237
   83SOL    HW2 2024   3.092   0.302  13.309
   84SOL     OW 2025  12.661   2.130   7.543
   84SOL    HW1 2026  12.636   2.140   7.451
   84SOL    HW2 2027  12.593   2.176   7.591
   85SOL     OW 2028  10.219   1.571   1.947
   85SOL    HW1 2029  10.224   1.543   2.038
   85SOL    HW2 2030  10.269   1.505   1.899
   86SOL     OW 2031   8.982   3.145   5.776
   86SOL    HW1 2032   8.970   3.222   5.721
   86SOL    HW2 2033   9.072   3.152   5.808
   87SOL     OW 2034   5.144   2.255   6.888
   87SOL    HW1 2035   5.111   2.166   6.896
   87SOL    HW2 2036   5.212   2.261   6.955
   88SOL     OW 2037   9.032   5.074  12.806
   88SOL    HW1 2038   9.028   5.159  12.761
   88SOL    HW2 2039   9.094   5.087  12.877
   89SOL     OW 2040   2.586   6.524  11.656
   89SOL    HW1 2041   2.582   6.479  11.740
   89SOL    HW2 2042   2.570   6.616  11.677
   90SOL     OW 2043   5.680   9.757   0.632
   90SOL    HW1 2044   5.685   9.851   0.616
   90SOL    HW2 2045   5.594   9.731   0.600
   91SOL     OW 2046   8.990  10.449   4.989
   91SOL    HW1 2047   9.041  10.399   5.053
   91SOL    HW2 2048   8.960  10.384   4.926
   92SOL     OW 2049   6.604   1.278  12.495
   92SOL    HW1 2050   6.558   1.359  12.514
   92SOL    HW2 2051   6.569   1.215  12.557
   93SOL     OW 2052  11.525   4.441   1.792
   93SOL    HW1 2053  11.436   4.423   1.763
   93SOL    HW2 2054  11.579   4.431   1.713
   94SOL     OW 2055   0.432   2.801   5.438
   94SOL    HW1 2056   0.342   2.828   5.454
   94SOL    HW2 2057   0.434   2.779   5.345
   95SOL     OW 2058  13.595   0.901  13.788
   95SOL    HW1 2059  13.650   0.864  13.857
   95SOL    HW2 2060  13.650   0.902  13.710
   96SOL     OW 2061  12.165  11.070   3.571
   96SOL    HW1 2062  12.115  10.990   3.552
   96SOL    HW2 2063  12.255  11.047   3.550
   97SOL     OW 2064   1.138   2.654   6.243
   97SOL    HW1 2065   1.061   2.600   6.227
   97SOL    HW2 2066   1.133   2.723   6.176
   98SOL     OW 2067  11.559   9.604   4.438
   98SOL    HW1 2068  11.486   9.614   4.500
   98SOL    HW2 2069  11.609   9.685   4.448
   99SOL     OW 2070   1.399  12.601  12.553
   99SOL    HW1 2071   1.403  12.649  12.636
   99SOL    HW2 2072   1.487  12.565  12.542
  100SOL     OW 2073  13.330  11.892   2.069
  100SOL    HW1 2074  13.338  11.965   2.007
  100SOL    HW2 2075  13.298  11.819   2.016
  101SOL     OW 2076   7.491  12.606  14.508
  101SOL    HW1 2077   7.566  12.654  14.472
  101SOL    HW2 2078   7.492  12.522  14.462
  102SOL     OW 2079  13.620  11.074  12.037
  102SOL    HW1 2080  13.590  11.015  11.968
  102SOL    HW2 2081  13.707  11.043  12.060
  103SOL     OW 2082  12.880   0.097  11.105
  103SOL    HW1 2083  12.804   0.039  11.099
  103SOL    HW2 2084  12.944   0.060  11.043
  104SOL     OW 2085   2.761   1.438   1.637
  104SOL    HW1 2086   2.815   1.359   1.643
  104SOL    HW2 2087   2.824   1.509   1.626
  105SOL     OW 2088  13.194   9.535  11.279
  105SOL    HW1 2089  13.188   9.439  11.287
  105SOL    HW2 2090  13.141   9.567  11.352
  106SOL     OW 2091   9.131   3.492   6.131
  106SOL    HW1 2092   9.039   3.491   6.105
  106SOL    HW2 2093   9.178   3.464   6.054
  107SOL     OW 2094   8.547   4.642  14.577
  107SOL    HW1 2095   8.467   4.643  14.630
  107SOL    HW2 2096   8.587   4.557  14.598
  108SOL     OW 2097   6.889   1.368  12.231
  108SOL    HW1 2098   6.807   1.320  12.246
  108SOL    HW2 2099   6.861   1.456  12.207
  109SOL     OW 2100   4.726   1.572  11.048
  109SOL    HW1 2101   4.699   1.661  11.071
  109SOL    HW2 2102   4.663   1.545  10.981
  110SOL     OW 2103   8.470   5.718   2.425
  110SOL    HW1 2104   8.394   5.754   2.471
  110SOL    HW2 2105   8.525   5.794   2.408
  111SOL     OW 2106   9.336   2.509  13.608
  111SOL    HW1 2107   9.333   2.430  13.554
  111SOL    HW2 2108   9.378   2.481  13.689
  112SOL     OW 2109   8.822   3.836   9.935
  112SOL    HW1 2110   8.914   3.855   9.954
  112SOL    HW2 2111   8.793   3.910   9.880
  113SOL     OW 2112  13.483   7.461   1.321
  113SOL    HW1 2113  13.534   7.530   1.361
  113SOL    HW2 2114  13.414   7.506   1.272
  114SOL     OW 2115   5.186   6.198   2.456
  114SOL    HW1 2116   5.152   6.157   2.377
  114SOL    HW2 2117   5.222   6.282   2.426
  115SOL     OW 2118   3.618   8.056   6.452
  115SOL    HW1 2119   3.672   8.029   6.526
  115SOL    HW2 2120   3.679   8.062   6.379
  116SOL     OW 2121  12.946  12.645   9.125
  116SOL    HW1 2122  12.988  12.577   9.071
  116SOL    HW2 2123  12.860  12.610   9.147
  117SOL     OW 2124   0.130   0.319   6.976
  117SOL    HW1 2125   0.096   0.275   6.898
  117SOL    HW2 2126   0.225   0.318   6.964
  118SOL     OW 2127  13.996   0.755   6.942
  118SOL    HW1 2128  13.985   0.783   6.851
  118SOL    HW2 2129  13.929   0.803   6.990
  119SOL     OW 2130   5.265   1.047   0.594
  119SOL    HW1 2131   5.217   1.006   0.522
  119SOL    HW2 2132   5.307   1.123   0.556
  120SOL     OW 2133  10.698  10.056  12.084
  120SOL    HW1 2134  10.604  10.042  12.098
  120SOL    HW2 2135  10.739  10.035  12.167
  121SOL     OW 2136  12.051   5.478  11.685
  121SOL    HW1 2137  12.020   5.567  11.699
  121SOL    HW2 2138  11.977   5.422  11.708
  122SOL     OW 2139   5.321  12.574   3.802
  122SOL    HW1 2140   5.361  12.619   3.728
  122SOL    HW2 2141   5.395  12.531   3.846
  123SOL     OW 2142   3.538  10.363   7.800
  123SOL    HW1 2143   3.509  10.430   7.862
  123SOL    HW2 2144   3.480  10.289   7.816
  124SOL     OW 2145  11.518  13.364   4.295
  124SOL    HW1 2146  11.481  13.365   4.383
  124SOL    HW2 2147  11.490  13.280   4.258
  125SOL     OW 2148   8.729  10.324  13.695
  125SOL    HW1 2149   8.774  10.405  13.718
  125SOL    HW2 2150   8.724  10.275  13.776
  126SOL     OW 2151   2.122   6.730   7.888
  126SOL    HW1 2152   2.179   6.807   7.884
  126SOL    HW2 2153   2.182   6.656   7.901
  127SOL     OW 2154   6.364   3.399   3.296
  127SOL    HW1 2155   6.350   3.488   3.264
  127SOL    HW2 2156   6.442   3.368   3.251
  128SOL     OW 2157   8.440   2.722  10.674
  128SOL    HW1 2158   8.468   2.667  10.746
  128SOL    HW2 2159   8.412   2.660  10.606
  129SOL     OW 2160   8.421   1.346   3.964
  129SOL    HW1 2161   8.510   1.381   3.959
  129SOL    HW2 2162   8.378   1.380   3.885
  130SOL     OW 2163   9.268   8.514  14.219
  130SOL    HW1 2164   9.287   8.606  14.202
  130SOL    HW2 2165   9.306   8.497  14.305
  131SOL     OW 2166   5.760  11.514   8.731
  131SOL    HW1 2167   5.807  11.585   8.775
  131SOL    HW2 2168   5.747  11.448   8.799
  132SOL     OW 2169   4.356   8.987  13.643
  132SOL    HW1 2170   4.390   8.950  13.561
  132SOL    HW2 2171   4.434   8.999  13.698
  133SOL     OW 2172  14.332  13.458   2.779
  133SOL    HW1 2173  14.320  13.367   2.806
  133SOL    HW2 2174  14.249  13.501   2.800
  134SOL     OW 2175   1.280   5.694   2.207
  134SOL    HW1 2176   1.188   5.673   2.189
  134SOL    HW2 2177   1.291   5.674   2.300
  135SOL     OW 2178   9.154  11.267   1.776
  135SOL    HW1 2179   9.092  11.209   1.733
  135SOL    HW2 2180   9.129  11.266   1.868
  136SOL     OW 2181  12.193   8.620  14.625
  136SOL    HW1 2182  12.241   8.645  14.705
  136SOL    HW2 2183  12.221   8.683  14.560
  137SOL     OW 2184   1.556   1.825   4.391
  137SOL    HW1 2185   1.530   1.734   4.404
  137SOL    HW2 2186   1.644   1.831   4.427
  138SOL     OW 2187  10.686  12.129   2.935
  138SOL    HW1 2188  10.647  12.054   2.891
  138SOL    HW2 2189  10.623  12.200   2.922
  139SOL     OW 2190   5.306   3.745   6.465
  139SOL    HW1 2191   5.383   3.695   6.439
  139SOL    HW2 2192   5.329   3.782   6.551
  140SOL     OW 2193  13.998   3.036   3.578
  140SOL    HW1 2194  13.927   3.015   3.517
  140SOL    HW2 2195  13.953   3.066   3.657
  141SOL     OW 2196  12.236   1.326  13.693
  141SOL    HW1 2197  12.200   1.380  13.763
  141SOL    HW2 2198  12.294   1.385  13.644
  142SOL     OW 2199  12.099  14.048  14.838
  142SOL    HW1 2200  12.187  14.037  14.875
  142SOL    HW2 2201  12.102  14.002  14.754
  143SOL     OW 2202   3.377   1.575   7.033
  143SOL    HW1 2203   3.411   1.501   7.084
  143SOL    HW2 2204   3.418   1.566   6.947
  144SOL     OW 2205  14.446  13.598   0.676
  144SOL    HW1 2206  14.514  13.549   0.631
  144SOL    HW2 2207  14.399  13.532   0.727
  145SOL     OW 2208   5.225   8.348  11.800
  145SOL    HW1 2209   5.159   8.417  11.805
  145SOL    HW2 2210   5.183   8.271  11.836
  146SOL     OW 2211   5.541   4.147   3.711
  146SOL    HW1 2212   5.513   4.119   3.623
  146SOL    HW2 2213   5.628   4.185   3.698
  147SOL     OW 2214  10.478   7.841  10.072
  147SOL    HW1 2215  10.488   7.936  10.074
  147SOL    HW2 2216  10.526   7.812   9.995
  148SOL     OW 2217  12.038   4.623  13.263
  148SOL    HW1 2218  12.034   4.547  13.322
  148SOL    HW2 2219  12.046   4.585  13.176
  149SOL     OW 2220   7.900   2.227  14.426
  149SOL    HW1 2221   7.918   2.182  14.509
  149SOL    HW2 2222   7.942   2.312  14.435
  150SOL     OW 2223   2.749   8.939   1.462
  150SOL    HW1 2224   2.843   8.938   1.478
  150SOL    HW2 2225   2.710   8.928   1.549
  151SOL     OW 2226  10.688   7.115   9.057
  151SOL    HW1 2227  10.771   7.110   9.010
  151SOL    HW2 2228  10.707   7.169   9.134
  152SOL     OW 2229   2.575   6.656   9.860
  152SOL    HW1 2230   2.587   6.570   9.901
  152SOL    HW2 2231   2.626   6.716   9.915
  153SOL     OW 2232   2.013   7.704   3.125
  153SOL    HW1 2233   2.103   7.696   3.158
  153SOL    HW2 2234   2.017   7.777   3.063
  154SOL     OW 2235  11.558   8.995  11.894
  154SOL    HW1 2236  11.583   9.037  11.976
  154SOL    HW2 2237  11.506   8.919  11.920
  155SOL     OW 2238  13.580   2.253   7.315
  155SOL    HW1 2239  13.620   2.338   7.328
  155SOL    HW2 2240  13.526   2.263   7.237
  156SOL     OW 2241  11.959  12.477   5.837
  156SOL    HW1 2242  11.975  12.396   5.885
  156SOL    HW2 2243  11.953  12.451   5.745
  157SOL     OW 2244   9.161   8.991   2.072
  157SOL    HW1 2245   9.247   8.969   2.108
  157SOL    HW2 2246   9.165   9.085   2.056
  158SOL     OW 2247   5.916   6.937   0.194
  158SOL    HW1 2248   5.947   6.874   0.259
  158SOL    HW2 2249   5.835   6.972   0.232
  159SOL     OW 2250   9.913   2.533   0.721
  159SOL    HW1 2251   9.932   2.602   0.784
  159SOL    HW2 2252   9.819   2.515   0.732
  160SOL     OW 2253   4.650   6.786   9.534
  160SOL    HW1 2254   4.588   6.741   9.476
  160SOL    HW2 2255   4.608   6.783   9.621
  161SOL     OW 2256  10.784   3.554   3.954
  161SOL    HW1 2257  10.794   3.616   3.882
  161SOL    HW2 2258  10.871   3.514   3.963
  162SOL     OW 2259  11.772   8.791   3.427
  162SOL    HW1 2260  11.760   8.809   3.520
  162SOL    HW2 2261  11.689   8.817   3.387
  163SOL     OW 2262   9.191   0.672   8.719
  163SOL    HW1 2263   9.230   0.746   8.673
  163SOL    HW2 2264   9.253   0.600   8.706
  164SOL     OW 2265   0.165  13.959   5.177
  164SOL    HW1 2266   0.254  13.974   5.147
  164SOL    HW2 2267   0.119  14.041   5.161
  165SOL     OW 2268   3.893   5.293   3.616
  165SOL    HW1 2269   3.810   5.297   3.664
  165SOL    HW2 2270   3.874   5.333   3.531
  166SOL     OW 2271  14.582   0.631   6.310
  166SOL    HW1 2272  14.616   0.554   6.355
  166SOL    HW2 2273  14.631   0.704   6.346
  167SOL     OW 2274   6.632  14.768  11.435
  167SOL    HW1 2275   6.581  14.848  11.431
  167SOL    HW2 2276   6.572  14.703  11.472
  168SOL     OW 2277   7.758   9.749   7.502
  168SOL    HW1 2278   7.780   9.837   7.534
  168SOL    HW2 2279   7.706   9.711   7.572
  169SOL     OW 2280   3.373   6.362   3.340
  169SOL    HW1 2281   3.322   6.315   3.405
  169SOL    HW2 2282   3.437   6.412   3.391
  170SOL     OW 2283  11.201   7.390   4.666
  170SOL    HW1 2284  11.182   7.316   4.607
  170SOL    HW2 2285  11.123   7.397   4.721
  171SOL     OW 2286   9.132   8.959   2.916
  171SOL    HW1 2287   9.065   9.011   2.961
  171SOL    HW2 2288   9.214   8.982   2.959
  172SOL     OW 2289   7.407  12.825   1.513
  172SOL    HW1 2290   7.428  12.794   1.425
  172SOL    HW2 2291   7.311  12.828   1.515
  173SOL     OW 2292   4.527  14.002   3.967
  173SOL    HW1 2293   4.507  14.093   3.947
  173SOL    HW2 2294   4.445  13.966   4.000
  174SOL     OW 2295  10.120   7.771  14.594
  174SOL    HW1 2296  10.098   7.760  14.501
  174SOL    HW2 2297  10.214   7.793  14.594
  175SOL     OW 2298   5.055   6.101   2.663
  175SOL    HW1 2299   5.116   6.146   2.606
  175SOL    HW2 2300   5.059   6.149   2.746
  176SOL     OW 2301  11.222   6.446   3.832
  176SOL    HW1 2302  11.234   6.424   3.740
  176SOL    HW2 2303  11.209   6.541   3.833
  177SOL     OW 2304   7.864   7.695   5.898
  177SOL    HW1 2305   7.814   7.648   5.832
  177SOL    HW2 2306   7.939   7.731   5.850
  178SOL     OW 2307   7.709   6.638   9.403
  178SOL    HW1 2308   7.753   6.701   9.346
  178SOL    HW2 2309   7.654   6.692   9.460
  179SOL     OW 2310   3.035   7.362  12.156
  179SOL    HW1 2311   3.047   7.452  12.127
  179SOL    HW2 2312   3.019   7.369  12.250
  180SOL     OW 2313   5.740  13.092  12.434
  180SOL    HW1 2314   5.655  13.085  12.477
  180SOL    HW2 2315   5.720  13.093  12.340
  181SOL     OW 2316   8.642   8.083   0.815
  181SOL    HW1 2317   8.664   8.095   0.908
  181SOL    HW2 2318   8.589   8.159   0.793
  182SOL     OW 2319   8.745  11.802  12.613
  182SOL    HW1 2320   8.666  11.767  12.654
  182SOL    HW2 2321   8.724  11.807  12.520
  183SOL     OW 2322  13.485   6.391  10.790
  183SOL    HW1 2323  13.423   6.387  10.863
  183SOL    HW2 2324  13.430   6.399  10.712
  184SOL     OW 2325   2.822  10.213   3.017
  184SOL    HW1 2326   2.818  10.184   3.108
  184SOL    HW2 2327   2.911  10.246   3.006
  185SOL     OW 2328   5.325   0.936   8.003
  185SOL    HW1 2329   5.277   0.886   8.069
  185SOL    HW2 2330   5.398   0.879   7.978
  186SOL     OW 2331   4.225   6.704  12.222
  186SOL    HW1 2332   4.225   6.619  12.267
  186SOL    HW2 2333   4.279   6.690  12.144
  187SOL     OW 2334  13.990   3.570  14.873
  187SOL    HW1 2335  14.003   3.618  14.790
  187SOL    HW2 2336  13.933   3.497  14.849
  188SOL     OW 2337   6.017   1.915   2.309
  188SOL    HW1 2338   6.072   1.926   2.232
  188SOL    HW2 2339   6.076   1.878   2.375
  189SOL     OW 2340  10.607   8.390   9.734
  189SOL    HW1 2341  10.603   8.300   9.702
  189SOL    HW2 2342  10.680   8.391   9.795
  190SOL     OW 2343   3.935   2.779   8.837
  190SOL    HW1 2344   4.009   2.727   8.869
  190SOL    HW2 2345   3.915   2.740   8.751
  191SOL     OW 2346   7.555  12.229  13.090
  191SOL    HW1 2347   7.486  12.198  13.149
  191SOL    HW2 2348   7.630  12.173  13.109
  192SOL     OW 2349   7.050   6.167   1.781
  192SOL    HW1 2350   7.094   6.175   1.866
  192SOL    HW2 2351   6.957   6.164   1.803
  193SOL     OW 2352   2.301  12.563   2.587
  193SOL    HW1 2353   2.386  12.572   2.545
  193SOL    HW2 2354   2.320  12.564   2.681
  194SOL     OW 2355   5.286  12.481  11.477
  194SOL    HW1 2356   5.304  12.524  11.561
  194SOL    HW2 2357   5.196  12.506  11.457
  195SOL     OW 2358   2.758   8.828   0.438
  195SOL    HW1 2359   2.789   8.918   0.439
  195SOL    HW2 2360   2.837   8.775   0.421
  196SOL     OW 2361  14.342   2.517  10.574
  196SOL    HW1 2362  14.295   2.594  10.607
  196SOL    HW2 2363  14.401   2.552  10.507
  197SOL     OW 2364  13.196   5.344   6.001
  197SOL    HW1 2365  13.265   5.384   6.053
  197SOL    HW2 2366  13.120   5.344   6.059
  198SOL     OW 2367  12.060   5.249   7.216
  198SOL    HW1 2368  12.126   5.193   7.175
  198SOL    HW2 2369  11.980   5.195   7.216
  199SOL     OW 2370  13.515  12.683   9.429
  199SOL    HW1 2371  13.588  12.699   9.490
  199SOL    HW2 2372  13.556  12.641   9.353
  200SOL     OW 2373  13.374   5.045   2.004
  200SOL    HW1 2374  13.327   5.001   2.075
  200SOL    HW2 2375  13.463   5.010   2.010
  201SOL     OW 2376   1.841   8.991  14.278
  201SOL    HW1 2377   1.893   9.051  14.332
  201SOL    HW2 2378   1.902   8.959  14.212
  202SOL     OW 2379   1.503   2.470   5.821
  202SOL    HW1 2380   1.495   2.468   5.726
  202SOL    HW2 2381   1.424   2.427   5.853
  203SOL     OW 2382  13.173   2.992   6.210
  203SOL    HW1 2383  13.264   2.977   6.185
  203SOL    HW2 2384  13.142   3.061   6.150
  204SOL     OW 2385   9.332   3.300   7.762
  204SOL    HW1 2386   9.418   3.336   7.743
  204SOL    HW2 2387   9.271   3.361   7.721
  205SOL     OW 2388  10.605   6.928  10.274
  205SOL    HW1 2389  10.544   6.923  10.201
  205SOL    HW2 2390  10.691   6.917  10.233
  206SOL     OW 2391  11.799   3.954   0.586
  206SOL    HW1 2392  11.722   3.928   0.636
  206SOL    HW2 2393  11.870   3.956   0.650
  207SOL     OW 2394  10.165   9.789  11.674
  207SOL    HW1 2395  10.240   9.743  11.635
  207SOL    HW2 2396  10.123   9.832  11.600
  208SOL     OW 2397  13.392  11.442   7.113
  208SOL    HW1 2398  13.424  11.372   7.055
  208SOL    HW2 2399  13.465  11.504   7.118
  209SOL     OW 2400   3.651   9.225  14.219
  209SOL    HW1 2401   3.565   9.194  14.246
  209SOL    HW2 2402   3.713   9.176  14.273
  210SOL     OW 2403  12.568   7.084  10.450
  210SOL    HW1 2404  12.581   7.091  10.544
  210SOL    HW2 2405  12.492   7.026  10.440
  211SOL     OW 2406   5.154  13.781  13.011
  211SOL    HW1 2407   5.185  13.860  12.966
  211SOL    HW2 2408   5.085  13.747  12.954
  212SOL     OW 2409   4.590   7.128  12.509
  212SOL    HW1 2410   4.628   7.042  12.491
  212SOL    HW2 2411   4.513   7.110  12.563
  213SOL     OW 2412   2.852   4.604   4.417
  213SOL    HW1 2413   2.870   4.510   4.422
  213SOL    HW2 2414   2.818   4.626   4.504
  214SOL     OW 2415  12.146  11.895   1.358
  214SOL    HW1 2416  12.229  11.899   1.310
  214SOL    HW2 2417  12.157  11.956   1.431
  215SOL     OW 2418  11.461   1.999   7.336
  215SOL    HW1 2419  11.406   2.030   7.408
  215SOL    HW2 2420  11.414   2.026   7.257
  216SOL     OW 2421   4.123  12.078   4.022
  216SOL    HW1 2422   4.209  12.035   4.022
  216SOL    HW2 2423   4.143  12.169   4.043
  217SOL     OW 2424   3.389  12.023   4.076
  217SOL    HW1 2425   3.370  12.008   4.169
  217SOL    HW2 2426   3.470  12.075   4.076
  218SOL     OW 2427  11.111  11.046   2.258
  218SOL    HW1 2428  11.089  11.029   2.350
  218SOL    HW2 2429  11.039  11.100   2.227
  219SOL     OW 2430  13.600   4.561  10.850
  219SOL    HW1 2431  13.635   4.628  10.908
  219SOL    HW2 2432  13.519   4.533  10.894
  220SOL     OW 2433  11.035   8.943   1.081
  220SOL    HW1 2434  11.056   8.850   1.096
  220SOL    HW2 2435  11.104   8.990   1.128
  221SOL     OW 2436   8.148  12.351  12.651
  221SOL    HW1 2437   8.064  12.358  12.696
  221SOL    HW2 2438   8.198  12.290  12.705
  222SOL     OW 2439  13.046  13.771   0.004
  222SOL    HW1 2440  13.019  13.749   0.093
  222SOL    HW2 2441  13.123  13.717  14.866
  223SOL     OW 2442   0.720  12.994   5.960
  223SOL    HW1 2443   0.772  12.929   5.912
  223SOL    HW2 2444   0.630  12.960   5.957
  224SOL     OW 2445   1.102   0.439   0.784
  224SOL    HW1 2446   1.030   0.494   0.812
  224SOL    HW2 2447   1.148   0.490   0.717
  225SOL     OW 2448   7.703  10.855   4.048
  225SOL    HW1 2449   7.637  10.923   4.036
  225SOL    HW2 2450   7.786  10.902   4.053
  226SOL     OW 2451  12.126   2.461   9.118
  226SOL    HW1 2452  12.130   2.440   9.212
  226SOL    HW2 2453  12.141   2.377   9.074
  227SOL     OW 2454   7.715   5.570   8.011
  227SOL    HW1 2455   7.739   5.563   7.918
  227SOL    HW2 2456   7.707   5.664   8.027
  228SOL     OW 2457   0.016   6.718  12.601
  228SOL    HW1 2458   0.028   6.774  12.523
  228SOL    HW2 2459  14.846   6.642  12.568
  229SOL     OW 2460   3.333  10.855   5.266
  229SOL    HW1 2461   3.284  10.830   5.188
  229SOL    HW2 2462   3.424  10.833   5.245
  230SOL     OW 2463  12.998   6.985   7.578
  230SOL    HW1 2464  12.915   7.028   7.600
  230SOL    HW2 2465  13.051   6.993   7.657
  231SOL     OW 2466  12.860   0.871  10.924
  231SOL    HW1 2467  12.846   0.912  10.838
  231SOL    HW2 2468  12.913   0.934  10.973
  232SOL     OW 2469  10.894   1.337   3.044
  232SOL    HW1 2470  10.910   1.390   3.122
  232SOL    HW2 2471  10.799   1.333   3.036
  233SOL     OW 2472  13.781   9.345   2.476
  233SOL    HW1 2473  13.687   9.344   2.496
  233SOL    HW2 2474  13.798   9.258   2.440
  234SOL     OW 2475   8.676  13.412   5.443
  234SOL    HW1 2476   8.733  13.397   5.518
  234SOL    HW2 2477   8.733  13.452   5.377
  235SOL     OW 2478   7.108   6.757   4.448
  235SOL    HW1 2479   7.063   6.818   4.507
  235SOL    HW2 2480   7.047   6.746   4.375
  236SOL     OW 2481   0.864  12.557   1.125
  236SOL    HW1 2482   0.897  12.468   1.112
  236SOL    HW2 2483   0.781  12.545   1.172
  237SOL     OW 2484  14.125   0.883  13.116
  237SOL    HW1 2485  14.198   0.824  13.097
  237SOL    HW2 2486  14.152   0.930  13.195
  238SOL     OW 2487   1.718   4.802  11.412
  238SOL    HW1 2488   1.725   4.708  11.425
  238SOL    HW2 2489   1.720   4.814  11.317
  239SOL     OW 2490   7.718  14.666   6.454
  239SOL    HW1 2491   7.763  14.587   6.483
  239SOL    HW2 2492   7.643  14.674   6.514
  240SOL     OW 2493   7.551   9.940   5.526
  240SOL    HW1 2494   7.519   9.893   5.604
  240SOL    HW2 2495   7.471   9.970   5.482
  241SOL     OW 2496  12.462   4.295   6.419
  241SOL    HW1 2497  12.417   4.345   6.487
  241SOL    HW2 2498  12.533   4.251   6.465
  242SOL     OW 2499  11.099  11.359   5.213
  242SOL    HW1 2500  11.159  11.331   5.144
  242SOL    HW2 2501  11.145  11.428   5.260
  243SOL     OW 2502  10.135   6.843   9.376
  243SOL    HW1 2503  10.119   6.936   9.360
  243SOL    HW2 2504  10.228   6.838   9.399
  244SOL     OW 2505  11.455   3.728  10.207
  244SOL    HW1 2506  11.547   3.700  10.214
  244SOL    HW2 2507  11.445   3.752  10.115
  245SOL     OW 2508  14.055   5.958   4.387
  245SOL    HW1 2509  13.977   5.904   4.373
  245SOL    HW2 2510  14.067   6.005   4.304
  246SOL     OW 2511   5.582   9.736   2.018
  246SOL    HW1 2512   5.644   9.662   2.010
  246SOL    HW2 2513   5.569   9.766   1.928
  247SOL     OW 2514   5.424  10.547   5.097
  247SOL    HW1 2515   5.444  10.472   5.041
  247SOL    HW2 2516   5.504  10.599   5.097
  248SOL     OW 2517  12.163   8.948  13.685
  248SOL    HW1 2518  12.223   9.022  13.681
  248SOL    HW2 2519  12.076   8.987  13.681
  249SOL     OW 2520   6.596   3.026  12.953
  249SOL    HW1 2521   6.622   3.005  13.043
  249SOL    HW2 2522   6.532   3.097  12.963
  250SOL     OW 2523   5.974  10.690   5.941
  250SOL    HW1 2524   5.949  10.753   5.872
  250SOL    HW2 2525   6.036  10.632   5.898
  251SOL     OW 2526  12.817   4.402   8.919
  251SOL    HW1 2527  12.804   4.440   9.006
  251SOL    HW2 2528  12.731   4.407   8.877
  252SOL     OW 2529   1.577   9.814   0.324
  252SOL    HW1 2530   1.568   9.905   0.354
  252SOL    HW2 2531   1.492   9.774   0.343
  253SOL     OW 2532  10.920   4.053   2.121
  253SOL    HW1 2533  10.851   4.119   2.128
  253SOL    HW2 2534  10.889   3.980   2.176
  254SOL     OW 2535   2.373  10.111   8.567
  254SOL    HW1 2536   2.465  10.132   8.551
  254SOL    HW2 2537   2.376  10.027   8.614
  255SOL     OW 2538   5.314  12.148   3.633
  255SOL    HW1 2539   5.328  12.203   3.556
  255SOL    HW2 2540   5.276  12.208   3.698
  256SOL     OW 2541   3.659   5.655  13.681
  256SOL    HW1 2542   3.660   5.750  13.693
  256SOL    HW2 2543   3.668   5.643  13.586
  257SOL     OW 2544   6.261  11.515   8.450
  257SOL    HW1 2545   6.352  11.514   8.479
  257SOL    HW2 2546   6.235  11.422   8.449
  258SOL     OW 2547   8.909   9.644   4.187
  258SOL    HW1 2548   8.845   9.608   4.125
  258SOL    HW2 2549   8.897   9.738   4.182
  259SOL     OW 2550   8.259   9.799  14.106
  259SOL    HW1 2551   8.263   9.808  14.011
  259SOL    HW2 2552   8.173   9.832  14.130
  260SOL     OW 2553  12.113  13.194   0.979
  260SOL    HW1 2554  12.053  13.205   0.905
  260SOL    HW2 2555  12.134  13.101   0.979
  261SOL     OW 2556   2.081  12.087   1.913
  261SOL    HW1 2557   2.025  12.164   1.924
  261SOL    HW2 2558   2.078  12.043   1.998
  262SOL     OW 2559   5.784   6.137   8.796
  262SOL    HW1 2560   5.754   6.227   8.807
  262SOL    HW2 2561   5.768   6.117   8.704
  263SOL     OW 2562   3.148  11.344   0.093
  263SOL    HW1 2563   3.242  11.341   0.078
  263SOL    HW2 2564   3.116  11.258   0.063
  264SOL     OW 2565   5.999  12.447  10.514
  264SOL    HW1 2566   5.958  12.503  10.449
  264SOL    HW2 2567   5.956  12.470  10.597
  265SOL     OW 2568  11.335   0.739   7.071
  265SOL    HW1 2569  11.302   0.693   7.148
  265SOL    HW2 2570  11.260   0.788   7.039
  266SOL     OW 2571   5.014   3.712   0.948
  266SOL    HW1 2572   4.985   3.799   0.973
  266SOL    HW2 2573   5.110   3.717   0.948
  267SOL     OW 2574   2.295   2.483   2.988
  267SOL    HW1 2575   2.367   2.524   3.037
  267SOL    HW2 2576   2.315   2.503   2.896
  268SOL     OW 2577   3.280  10.678  12.925
  268SOL    HW1 2578   3.262  10.637  13.010
  268SOL    HW2 2579   3.347  10.743  12.944
  269SOL     OW 2580   4.070   0.715   1.059
  269SOL    HW1 2581   4.037   0.650   1.121
  269SOL    HW2 2582   4.150   0.676   1.025
  270SOL     OW 2583   2.764  12.174  12.174
  270SOL    HW1 2584   2.741  12.163  12.266
  270SOL    HW2 2585   2.791  12.266  12.166
  271SOL     OW 2586   6.492   0.229   8.185
  271SOL    HW1 2587   6.445   0.223   8.102
  271SOL    HW2 2588   6.584   0.239   8.160
  272SOL     OW 2589   8.236   8.473  13.807
  272SOL    HW1 2590   8.290   8.490  13.884
  272SOL    HW2 2591   8.150   8.508  13.830
  273SOL     OW 2592  11.685   3.262   4.168
  273SOL    HW1 2593  11.779   3.276   4.156
  273SOL    HW2 2594  11.651   3.248   4.080
  274SOL     OW 2595   0.633  12.896  13.100
  274SOL    HW1 2596   0.708  12.922  13.153
  274SOL    HW2 2597   0.619  12.970  13.041
  275SOL     OW 2598  10.202   9.004   6.086
  275SOL    HW1 2599  10.261   9.078   6.100
  275SOL    HW2 2600  10.203   8.989   5.992
  276SOL     OW 2601   1.594   1.401   0.036
  276SOL    HW1 2602   1.546   1.415  14.832
  276SOL    HW2 2603   1.574   1.478   0.089
  277SOL     OW 2604   6.455  11.537   1.667
  277SOL    HW1 2605   6.405  11.580   1.737
  277SOL    HW2 2606   6.390  11.519   1.599
  278SOL     OW 2607   6.656   2.984   4.695
  278SOL    HW1 2608   6.677   2.959   4.785
  278SOL    HW2 2609   6.655   2.902   4.646
  279SOL     OW 2610   8.130  13.727  12.349
  279SOL    HW1 2611   8.071  13.705  12.421
  279SOL    HW2 2612   8.216  13.734  12.390
  280SOL     OW 2613   7.563   8.636   6.947
  280SOL    HW1 2614   7.601   8.647   7.035
  280SOL    HW2 2615   7.622   8.574   6.903
  281SOL     OW 2616   0.511   0.734  11.676
  281SOL    HW1 2617   0.484   0.745  11.584
  281SOL    HW2 2618   0.490   0.643  11.696
  282SOL     OW 2619  12.512   6.857   2.931
  282SOL    HW1 2620  12.558   6.933   2.894
  282SOL    HW2 2621  12.565   6.832   3.007
  283SOL     OW 2622   5.928   5.599  10.960
  283SOL    HW1 2623   5.856   5.603  10.898
  283SOL    HW2 2624   5.954   5.690  10.972
  284SOL     OW 2625   7.541  10.362   5.609
  284SOL    HW1 2626   7.620  10.308   5.604
  284SOL    HW2 2627   7.551  10.424   5.537
  285SOL     OW 2628   6.112   8.711   1.256
  285SOL    HW1 2629   6.087   8.803   1.245
  285SOL    HW2 2630   6.203   8.714   1.288
  286SOL     OW 2631   3.599  14.491   3.055
  286SOL    HW1 2632   3.657  14.434   3.005
  286SOL    HW2 2633   3.579  14.442   3.134
  287SOL     OW 2634  14.227   1.695  12.860
  287SOL    HW1 2635  14.267   1.731  12.781
  287SOL    HW2 2636  14.279   1.731  12.932
  288SOL     OW 2637   1.834   1.114   6.849
  288SOL    HW1 2638   1.771   1.158   6.791
  288SOL    HW2 2639   1.867   1.041   6.797
  289SOL     OW 2640   5.185   6.913   3.156
  289SOL    HW1 2641   5.125   6.976   3.197
  289SOL    HW2 2642   5.249   6.967   3.110
  290SOL     OW 2643   4.041   0.740   1.906
  290SOL    HW1 2644   4.092   0.817   1.883
  290SOL    HW2 2645   4.104   0.681   1.947
  291SOL     OW 2646   1.688   5.746  14.594
  291SOL    HW1 2647   1.740   5.673  14.627
  291SOL    HW2 2648   1.746   5.792  14.533
  292SOL     OW 2649   0.825   0.177   4.752
  292SOL    HW1 2650   0.903   0.170   4.807
  292SOL    HW2 2651   0.763   0.116   4.791
  293SOL     OW 2652  13.845  10.357  12.774
  293SOL    HW1 2653  13.821  10.378  12.865
  293SOL    HW2 2654  13.768  10.382  12.723
  294SOL     OW 2655   5.428   5.876   6.088
  294SOL    HW1 2656   5.457   5.930   6.015
  294SOL    HW2 2657   5.480   5.796   6.080
  295SOL     OW 2658   1.955   6.405   1.422
  295SOL    HW1 2659   1.916   6.318   1.424
  295SOL    HW2 2660   1.918   6.450   1.498
  296SOL     OW 2661  12.751   2.216   3.860
  296SOL    HW1 2662  12.837   2.179   3.881
  296SOL    HW2 2663  12.736   2.191   3.768
  297SOL     OW 2664   5.674   5.484  12.272
  297SOL    HW1 2665   5.693   5.558  12.331
  297SOL    HW2 2666   5.597   5.512  12.223
  298SOL     OW 2667  13.658  13.868  11.532
  298SOL    HW1 2668  13.744  13.904  11.554
  298SOL    HW2 2669  13.663  13.849  11.438
  299SOL     OW 2670   5.138   4.881  13.988
  299SOL    HW1 2671   5.090   4.963  13.979
  299SOL    HW2 2672   5.219   4.905  14.032
  300SOL     OW 2673  12.123   3.677   8.299
  300SOL    HW1 2674  12.053   3.622   8.335
  300SOL    HW2 2675  12.140   3.641   8.212
  301SOL     OW 2676  11.043   9.504   6.208
  301SOL    HW1 2677  10.997   9.573   6.160
  301SOL    HW2 2678  10.974   9.455   6.252
  302SOL     OW 2679   8.746  10.076   0.450
  302SOL    HW1 2680   8.764  10.057   0.358
  302SOL    HW2 2681   8.762   9.993   0.495
  303SOL     OW 2682   4.744  10.038   3.621
  303SOL    HW1 2683   4.833  10.047   3.587
  303SOL    HW2 2684   4.705   9.969   3.566
  304SOL     OW 2685   9.718  14.257   4.912
  304SOL    HW1 2686   9.716  14.184   4.850
  304SOL    HW2 2687   9.765  14.222   4.988
  305SOL     OW 2688   7.344  12.385   5.974
  305SOL    HW1 2689   7.430  12.373   5.935
  305SOL    HW2 2690   7.357  12.374   6.068
  306SOL     OW 2691  11.827  12.986   6.781
  306SOL    HW1 2692  11.735  12.961   6.777
  306SOL    HW2 2693  11.827  13.079   6.759
  307SOL     OW 2694  10.423   1.604  10.341
  307SOL    HW1 2695  10.394   1.548  10.269
  307SOL    HW2 2696  10.516   1.585  10.351
  308SOL     OW 2697   1.347   8.503   8.369
  308SOL    HW1 2698   1.374   8.590   8.397
  308SOL    HW2 2699   1.310   8.516   8.282
  309SOL     OW 2700  10.251   9.371   1.472
  309SOL    HW1 2701  10.309   9.302   1.440
  309SOL    HW2 2702  10.215   9.411   1.392
  310SOL     OW 2703   9.840   2.541   7.310
  310SOL    HW1 2704   9.757   2.573   7.273
  310SOL    HW2 2705   9.872   2.477   7.247
  311SOL     OW 2706  14.486   8.725   6.603
  311SOL    HW1 2707  14.411   8.783   6.587
  311SOL    HW2 2708  14.559   8.785   6.619
  312SOL     OW 2709   2.654   6.590   4.842
  312SOL    HW1 2710   2.707   6.510   4.838
  312SOL    HW2 2711   2.589   6.579   4.773
  313SOL     OW 2712   8.531   8.216  10.750
  313SOL    HW1 2713   8.608   8.162  10.768
  313SOL    HW2 2714   8.497   8.183  10.667
  314SOL     OW 2715  11.101   2.298   9.243
  314SOL    HW1 2716  11.094   2.305   9.339
  314SOL    HW2 2717  11.078   2.207   9.224
  315SOL     OW 2718  10.359  10.520  14.472
  315SOL    HW1 2719  10.430  10.527  14.408
  315SOL    HW2 2720  10.394  10.461  14.539
  316SOL     OW 2721   3.263   9.773  12.804
  316SOL    HW1 2722   3.286   9.722  12.882
  316SOL    HW2 2723   3.202   9.839  12.837
  317SOL     OW 2724   0.545   1.869  10.630
  317SOL    HW1 2725   0.506   1.946  10.588
  317SOL    HW2 2726   0.486   1.797  10.608
  318SOL     OW 2727   0.082   3.626   2.836
  318SOL    HW1 2728   0.162   3.581   2.864
  318SOL    HW2 2729   0.021   3.556   2.813
  319SOL     OW 2730  11.868  11.817  12.137
  319SOL    HW1 2731  11.855  11.780  12.049
  319SOL    HW2 2732  11.780  11.818  12.175
  320SOL     OW 2733   1.743   6.535  12.294
  320SOL    HW1 2734   1.670   6.530  12.356
  320SOL    HW2 2735   1.701   6.552  12.209
  321SOL     OW 2736  13.036  12.132  10.324
  321SOL    HW1 2737  13.096  12.149  10.397
  321SOL    HW2 2738  13.019  12.219  10.287
  322SOL     OW 2739  14.140   9.159   2.206
  322SOL    HW1 2740  14.146   9.182   2.298
  322SOL    HW2 2741  14.195   9.223   2.161
  323SOL     OW 2742   7.608   4.662   6.506
  323SOL    HW1 2743   7.612   4.586   6.448
  323SOL    HW2 2744   7.638   4.735   6.452
  324SOL     OW 2745   4.127   6.101   0.400
  324SOL    HW1 2746   4.098   6.063   0.317
  324SOL    HW2 2747   4.048   6.107   0.453
  325SOL     OW 2748   4.743  11.458   1.745
  325SOL    HW1 2749   4.729  11.363   1.737
  325SOL    HW2 2750   4.717  11.479   1.834
  326SOL     OW 2751   5.243   8.201  12.197
  326SOL    HW1 2752   5.159   8.221  12.156
  326SOL    HW2 2753   5.240   8.106  12.212
  327SOL     OW 2754   8.172   9.973   6.520
  327SOL    HW1 2755   8.194   9.880   6.519
  327SOL    HW2 2756   8.244  10.015   6.472
  328SOL     OW 2757  13.330   4.313   7.737
  328SOL    HW1 2758  13.385   4.256   7.790
  328SOL    HW2 2759  13.295   4.257   7.669
  329SOL     OW 2760   6.707  13.287   6.218
  329SOL    HW1 2761   6.668  13.214   6.266
  329SOL    HW2 2762   6.801  13.268   6.219
  330SOL     OW 2763   7.036   5.090   8.987
  330SOL    HW1 2764   7.092   5.026   9.030
  330SOL    HW2 2765   6.996   5.140   9.060
  331SOL     OW 2766   1.333   6.429  12.815
  331SOL    HW1 2767   1.290   6.401  12.896
  331SOL    HW2 2768   1.261   6.454  12.757
  332SOL     OW 2769   4.370  10.974   1.171
  332SOL    HW1 2770   4.345  10.995   1.261
  332SOL    HW2 2771   4.287  10.959   1.126
  333SOL     OW 2772  13.418  11.993   4.996
  333SOL    HW1 2773  13.346  11.935   5.022
  333SOL    HW2 2774  13.422  12.059   5.065
  334SOL     OW 2775   4.154  10.002  11.144
  334SOL    HW1 2776   4.063   9.978  11.162
  334SOL    HW2 2777   4.190  10.023  11.230
  335SOL     OW 2778   7.729  10.724   4.750
  335SOL    HW1 2779   7.751  10.766   4.667
  335SOL    HW2 2780   7.633  10.716   4.748
  336SOL     OW 2781   0.144   8.913  10.420
  336SOL    HW1 2782   0.159   8.858  10.343
  336SOL    HW2 2783   0.172   9.000  10.394
  337SOL     OW 2784  12.290   9.697   6.523
  337SOL    HW1 2785  12.238   9.638   6.577
  337SOL    HW2 2786  12.319   9.766   6.583
  338SOL     OW 2787   2.099  14.720  12.671
  338SOL    HW1 2788   2.011  14.747  12.696
  338SOL    HW2 2789   2.157  14.774  12.724
  339SOL     OW 2790   2.618   0.693   2.099
  339SOL    HW1 2791   2.551   0.684   2.031
  339SOL    HW2 2792   2.580   0.755   2.162
  340SOL     OW 2793  14.431   8.054   3.311
  340SOL    HW1 2794  14.395   8.016   3.231
  340SOL    HW2 2795  14.392   8.141   3.316
  341SOL     OW 2796   9.536  13.785   9.409
  341SOL    HW1 2797   9.536  13.739   9.325
  341SOL    HW2 2798   9.573  13.722   9.471
  342SOL     OW 2799   2.993   4.617   7.292
  342SOL    HW1 2800   2.906   4.576   7.294
  342SOL    HW2 2801   2.976   4.706   7.262
  343SOL     OW 2802   3.895  14.143   3.271
  343SOL    HW1 2803   3.947  14.064   3.257
  343SOL    HW2 2804   3.938  14.210   3.218
  344SOL     OW 2805   1.985   3.326  14.654
  344SOL    HW1 2806   2.017   3.272  14.726
  344SOL    HW2 2807   2.065   3.359  14.611
  345SOL     OW 2808  12.329  12.443   3.321
  345SOL    HW1 2809  12.244  12.486   3.317
  345SOL    HW2 2810  12.367  12.455   3.233
  346SOL     OW 2811   9.221   7.386  13.014
  346SOL    HW1 2812   9.221   7.390  12.918
  346SOL    HW2 2813   9.224   7.478  13.042
  347SOL     OW 2814  14.181  14.595   2.098
  347SOL    HW1 2815  14.141  14.651   2.031
  347SOL    HW2 2816  14.275  14.607   2.087
  348SOL     OW 2817   0.367   9.248  11.642
  348SOL    HW1 2818   0.435   9.302  11.683
  348SOL    HW2 2819   0.340   9.188  11.711
  349SOL     OW 2820   0.246   9.597  14.254
  349SOL    HW1 2821   0.213   9.685  14.270
  349SOL    HW2 2822   0.172   9.550  14.217
  350SOL     OW 2823   8.863  12.902   5.071
  350SOL    HW1 2824   8.806  12.975   5.045
  350SOL    HW2 2825   8.804  12.842   5.118
  351SOL     OW 2826   4.790   5.285   3.531
  351SOL    HW1 2827   4.777   5.346   3.603
  351SOL    HW2 2828   4.705   5.241   3.520
  352SOL     OW 2829   2.373   8.655   5.768
  352SOL    HW1 2830   2.435   8.727   5.785
  352SOL    HW2 2831   2.429   8.582   5.743
  353SOL     OW 2832   8.840  14.150   4.295
  353SOL    HW1 2833   8.799  14.147   4.381
  353SOL    HW2 2834   8.912  14.087   4.300
  354SOL     OW 2835   2.502   2.907  11.647
  354SOL    HW1 2836   2.582   2.958  11.654
  354SOL    HW2 2837   2.521   2.840  11.581
  355SOL     OW 2838  10.332  11.638   1.775
  355SOL    HW1 2839  10.347  11.556   1.822
  355SOL    HW2 2840  10.238  11.639   1.756
  356SOL     OW 2841   0.275  10.697  14.318
  356SOL    HW1 2842   0.251  10.731  14.232
  356SOL    HW2 2843   0.265  10.602  14.309
  357SOL     OW 2844   8.337   3.597  14.054
  357SOL    HW1 2845   8.312   3.505  14.060
  357SOL    HW2 2846   8.331   3.630  14.144
  358SOL     OW 2847  11.974  13.793   9.933
  358SOL    HW1 2848  12.067  13.778   9.918
  358SOL    HW2 2849  11.938  13.706   9.949
  359SOL     OW 2850   8.366   2.668   8.591
  359SOL    HW1 2851   8.395   2.759   8.586
  359SOL    HW2 2852   8.395   2.638   8.677
  360SOL     OW 2853  14.105  13.581  11.717
  360SOL    HW1 2854  14.025  13.590  11.769
  360SOL    HW2 2855  14.167  13.538  11.775
  361SOL     OW 2856   2.722   0.094   9.974
  361SOL    HW1 2857   2.682   0.020   9.928
  361SOL    HW2 2858   2.727   0.065  10.066
  362SOL     OW 2859   5.547  10.326   1.734
  362SOL    HW1 2860   5.471  10.377   1.760
  362SOL    HW2 2861   5.620  10.388   1.735
  363SOL     OW 2862  11.617  13.800   9.526
  363SOL    HW1 2863  11.603  13.737   9.596
  363SOL    HW2 2864  11.536  13.851   9.524
  364SOL     OW 2865  12.955  13.418   4.013
  364SOL    HW1 2866  12.903  13.409   3.934
  364SOL    HW2 2867  12.945  13.509   4.038
  365SOL     OW 2868   3.469   2.941   5.157
  365SOL    HW1 2869   3.413   2.920   5.082
  365SOL    HW2 2870   3.543   2.989   5.120
  366SOL     OW 2871   8.904  12.188   1.737
  366SOL    HW1 2872   8.941  12.109   1.776
  366SOL    HW2 2873   8.854  12.157   1.661
  367SOL     OW 2874   0.142   1.238   5.698
  367SOL    HW1 2875   0.206   1.308   5.687
  367SOL    HW2 2876   0.105   1.253   5.785
  368SOL     OW 2877   8.154   3.762  12.523
  368SOL    HW1 2878   8.192   3.707  12.592
  368SOL    HW2 2879   8.060   3.740  12.523
  369SOL     OW 2880  13.903   3.473  11.175
  369SOL    HW1 2881  13.868   3.546  11.226
  369SOL    HW2 2882  13.998   3.485  11.177
  370SOL     OW 2883   3.236   1.164  11.030
  370SOL    HW1 2884   3.301   1.229  11.056
  370SOL    HW2 2885   3.252   1.089  11.087
  371SOL     OW 2886   6.991   7.317   0.713
  371SOL    HW1 2887   6.956   7.404   0.731
  371SOL    HW2 2888   7.083   7.322   0.738
  372SOL     OW 2889   9.814  12.018  13.072
  372SOL    HW1 2890   9.767  12.098  13.095
  372SOL    HW2 2891   9.752  11.968  13.019
  373SOL     OW 2892   0.812   9.737   6.136
  373SOL    HW1 2893   0.855   9.663   6.180
  373SOL    HW2 2894   0.878   9.806   6.134
  374SOL     OW 2895  12.039   4.162  13.852
  374SOL    HW1 2896  12.046   4.182  13.945
  374SOL    HW2 2897  12.023   4.247  13.810
  375SOL     OW 2898  10.003   9.813  11.208
  375SOL    HW1 2899  10.039   9.730  11.178
  375SOL    HW2 2900  10.067   9.846  11.272
  376SOL     OW 2901   8.144   3.472   0.935
  376SOL    HW1 2902   8.213   3.411   0.959
  376SOL    HW2 2903   8.163   3.495   0.844
  377SOL     OW 2904  14.392   1.438  11.911
  377SOL    HW1 2905  14.424   1.490  11.837
  377SOL    HW2 2906  14.344   1.365  11.870
  378SOL     OW 2907  13.901  11.511   9.266
  378SOL    HW1 2908  13.909  11.443   9.333
  378SOL    HW2 2909  13.985  11.557   9.269
  379SOL     OW 2910   9.701   2.823   0.810
  379SOL    HW1 2911   9.783   2.816   0.857
  379SOL    HW2 2912   9.682   2.917   0.807
  380SOL     OW 2913  11.296  12.243   9.973
  380SOL    HW1 2914  11.310  12.283  10.059
  380SOL    HW2 2915  11.286  12.317   9.913
  381SOL     OW 2916   3.529   1.078   2.622
  381SOL    HW1 2917   3.547   1.129   2.701
  381SOL    HW2 2918   3.598   1.103   2.560
  382SOL     OW 2919   4.483   2.781  11.387
  382SOL    HW1 2920   4.486   2.784  11.291
  382SOL    HW2 2921   4.394   2.810  11.409
  383SOL     OW 2922   4.957   0.737  14.752
  383SOL    HW1 2923   5.028   0.790  14.715
  383SOL    HW2 2924   4.912   0.795  14.813
  384SOL     OW 2925   0.335  10.882   4.682
  384SOL    HW1 2926   0.290  10.937   4.617
  384SOL    HW2 2927   0.264  10.835   4.727
  385SOL     OW 2928   7.558   4.473  12.830
  385SOL    HW1 2929   7.579   4.566  12.840
  385SOL    HW2 2930   7.621   4.441  12.767
  386SOL     OW 2931   2.956  13.800   6.907
  386SOL    HW1 2932   2.924  13.765   6.989
  386SOL    HW2 2933   2.946  13.895   6.915
  387SOL     OW 2934   5.394   6.161   6.936
  387SOL    HW1 2935   5.481   6.190   6.908
  387SOL    HW2 2936   5.346   6.242   6.952
  388SOL     OW 2937   7.295  10.911  14.309
  388SOL    HW1 2938   7.247  10.892  14.390
  388SOL    HW2 2939   7.381  10.872  14.323
  389SOL     OW 2940  14.158   1.299   6.605
  389SOL    HW1 2941  14.200   1.239   6.542
  389SOL    HW2 2942  14.104   1.242   6.659
  390SOL     OW 2943   6.108  14.120   3.087
  390SOL    HW1 2944   6.128  14.053   3.022
  390SOL    HW2 2945   6.020  14.150   3.064
  391SOL     OW 2946  14.002  14.472  11.557
  391SOL    HW1 2947  14.022  14.543  11.496
  391SOL    HW2 2948  13.925  14.503  11.605
  392SOL     OW 2949  14.547  14.827   1.830
  392SOL    HW1 2950  14.509  14.859   1.749
  392SOL    HW2 2951  14.530   0.018   1.894
  393SOL     OW 2952   2.163  13.726   1.064
  393SOL    HW1 2953   2.229  13.795   1.060
  393SOL    HW2 2954   2.133  13.727   1.155
  394SOL     OW 2955   5.624   7.872   5.225
  394SOL    HW1 2956   5.642   7.897   5.316
  394SOL    HW2 2957   5.669   7.788   5.214
  395SOL     OW 2958  14.716   6.255  14.814
  395SOL    HW1 2959  14.726   6.213   0.021
  395SOL    HW2 2960  14.655   6.327  14.829
  396SOL     OW 2961   2.466   4.205   4.503
  396SOL    HW1 2962   2.464   4.122   4.550
  396SOL    HW2 2963   2.515   4.185   4.423
  397SOL     OW 2964   7.351  12.965  14.194
  397SOL    HW1 2965   7.431  12.960  14.142
  397SOL    HW2 2966   7.344  13.057  14.220
  398SOL     OW 2967   9.534   7.445   3.217
  398SOL    HW1 2968   9.594   7.492   3.158
  398SOL    HW2 2969   9.576   7.448   3.302
  399SOL     OW 2970   3.906   2.581   8.579
  399SOL    HW1 2971   3.924   2.568   8.486
  399SOL    HW2 2972   3.909   2.493   8.616
  400SOL     OW 2973  12.298   4.877   6.447
  400SOL    HW1 2974  12.214   4.903   6.486
  400SOL    HW2 2975  12.293   4.782   6.440
  401SOL     OW 2976   6.241   4.347  13.653
  401SOL    HW1 2977   6.164   4.297  13.628
  401SOL    HW2 2978   6.226   4.371  13.744
  402SOL     OW 2979  11.661   5.865   3.522
  402SOL    HW1 2980  11.715   5.789   3.542
  402SOL    HW2 2981  11.584   5.829   3.478
  403SOL     OW 2982  13.510   2.813  14.127
  403SOL    HW1 2983  13.443   2.761  14.083
  403SOL    HW2 2984  13.593   2.783  14.089
  404SOL     OW 2985  10.667   7.591   1.249
  404SOL    HW1 2986  10.654   7.623   1.338
  404SOL    HW2 2987  10.605   7.518   1.241
  405SOL     OW 2988   6.981   0.372  11.267
  405SOL    HW1 2989   7.029   0.416  11.197
  405SOL    HW2 2990   7.050   0.334  11.322
  406SOL     OW 2991   1.824  12.286   3.948
  406SOL    HW1 2992   1.903  12.338   3.967
  406SOL    HW2 2993   1.752  12.339   3.981
  407SOL     OW 2994   9.222  14.856   0.823
  407SOL    HW1 2995   9.217  14.770   0.781
  407SOL    HW2 2996   9.190   0.039   0.756
  408SOL     OW 2997   8.383   7.192   1.462
  408SOL    HW1 2998   8.305   7.138   1.469
  408SOL    HW2 2999   8.456   7.130   1.461
  409SOL     OW 3000   9.233   7.310   9.101
  409SOL    HW1 3001   9.317   7.354   9.109
  409SOL    HW2 3002   9.169   7.382   9.098
  410SOL     OW 3003  10.394   1.177  12.000
  410SOL    HW1 3004  10.343   1.257  11.988
  410SOL    HW2 3005  10.344   1.109  11.954
  411SOL     OW 3006  13.157   8.964  10.889
  411SOL    HW1 3007  13.126   8.887  10.841
  411SOL    HW2 3008  13.109   8.961  10.972
  412SOL     OW 3009   6.671  10.288   6.945
  412SOL    HW1 3010   6.584  10.259   6.973
  412SOL    HW2 3011   6.705  10.214   6.894
  413SOL     OW 3012   6.599   5.346   9.766
  413SOL    HW1 3013   6.553   5.273   9.807
  413SOL    HW2 3014   6.617   5.406   9.839
  414SOL     OW 3015   4.853   4.616   4.517
  414SOL    HW1 3016   4.943   4.646   4.503
  414SOL    HW2 3017   4.806   4.695   4.542
  415SOL     OW 3018   8.230   8.812   9.265
  415SOL    HW1 3019   8.229   8.769   9.179
  415SOL    HW2 3020   8.270   8.747   9.323
  416SOL     OW 3021  12.527  10.908   1.493
  416SOL    HW1 3022  12.445  10.862   1.511
  416SOL    HW2 3023  12.554  10.876   1.407
  417SOL     OW 3024   3.107   0.185   5.896
  417SOL    HW1 3025   3.094   0.254   5.830
  417SOL    HW2 3026   3.202   0.168   5.894
  418SOL     OW 3027   8.242   1.905   9.186
  418SOL    HW1 3028   8.216   1.817   9.161
  418SOL    HW2 3029   8.165   1.959   9.167
  419SOL     OW 3030   2.754   5.032  10.777
  419SOL    HW1 3031   2.700   4.968  10.731
  419SOL    HW2 3032   2.706   5.115  10.769
  420SOL     OW 3033  11.733   7.335   1.532
  420SOL    HW1 3034  11.802   7.283   1.490
  420SOL    HW2 3035  11.776   7.418   1.555
  421SOL     OW 3036   8.161  13.226   2.714
  421SOL    HW1 3037   8.237  13.187   2.757
  421SOL    HW2 3038   8.197  13.300   2.666
  422SOL     OW 3039   1.213   3.251  14.347
  422SOL    HW1 3040   1.122   3.265  14.373
  422SOL    HW2 3041   1.229   3.316  14.279
  423SOL     OW 3042   1.260   3.283   8.720
  423SOL    HW1 3043   1.328   3.329   8.769
  423SOL    HW2 3044   1.296   3.274   8.632
  424SOL     OW 3045   5.085   8.137   0.613
  424SOL    HW1 3046   5.089   8.043   0.630
  424SOL    HW2 3047   5.141   8.177   0.679
  425SOL     OW 3048   9.330   1.668  12.080
  425SOL    HW1 3049   9.268   1.629  12.019
  425SOL    HW2 3050   9.282   1.675  12.162
  426SOL     OW 3051  14.005   4.870  11.749
  426SOL    HW1 3052  13.959   4.856  11.666
  426SOL    HW2 3053  14.094   4.839  11.732
  427SOL     OW 3054  10.576   4.704   8.185
  427SOL    HW1 3055  10.556   4.796   8.200
  427SOL    HW2 3056  10.509   4.656   8.233
  428SOL     OW 3057   8.776   0.980   0.985
  428SOL    HW1 3058   8.816   0.983   0.898
  428SOL    HW2 3059   8.780   0.888   1.010
  429SOL     OW 3060   6.445  10.665   3.062
  429SOL    HW1 3061   6.468  10.620   3.143
  429SOL    HW2 3062   6.372  10.614   3.026
  430SOL     OW 3063   6.494   3.777   6.117
  430SOL    HW1 3064   6.541   3.804   6.038
  430SOL    HW2 3065   6.408   3.816   6.108
  431SOL     OW 3066   8.439   3.376   4.818
  431SOL    HW1 3067   8.458   3.470   4.812
  431SOL    HW2 3068   8.447   3.356   4.911
  432SOL     OW 3069   7.256   1.862  14.112
  432SOL    HW1 3070   7.254   1.786  14.170
  432SOL    HW2 3071   7.283   1.934  14.169
  433SOL     OW 3072  12.642   4.096   2.093
  433SOL    HW1 3073  12.647   4.174   2.038
  433SOL    HW2 3074  12.613   4.128   2.178
  434SOL     OW 3075   2.555   6.881  14.318
  434SOL    HW1 3076   2.505   6.808  14.354
  434SOL    HW2 3077   2.497   6.922  14.255
  435SOL     OW 3078  11.687   6.783  10.939
  435SOL    HW1 3079  11.642   6.866  10.953
  435SOL    HW2 3080  11.717   6.756  11.026
  436SOL     OW 3081   2.226   5.260   9.392
  436SOL    HW1 3082   2.228   5.348   9.429
  436SOL    HW2 3083   2.263   5.270   9.304
  437SOL     OW 3084   1.540   4.361   3.607
  437SOL    HW1 3085   1.486   4.401   3.538
  437SOL    HW2 3086   1.568   4.436   3.660
  438SOL     OW 3087  12.932   3.093   4.794
  438SOL    HW1 3088  12.851   3.096   4.742
  438SOL    HW2 3089  12.953   3.000   4.798
  439SOL     OW 3090  14.104   6.198  14.739
  439SOL    HW1 3091  14.164   6.129  14.712
  439SOL    HW2 3092  14.121   6.270  14.678
  440SOL     OW 3093   0.069   3.258   6.082
  440SOL    HW1 3094   0.164   3.271   6.073
  440SOL    HW2 3095   0.033   3.286   5.998
  441SOL     OW 3096   3.488   6.762   7.545
  441SOL    HW1 3097   3.397   6.754   7.516
  441SOL    HW2 3098   3.534   6.799   7.469
  442SOL     OW 3099   4.688   9.634   5.434
  442SOL    HW1 3100   4.640   9.716   5.447
  442SOL    HW2 3101   4.772   9.648   5.479
  443SOL     OW 3102  10.745   9.882   5.539
  443SOL    HW1 3103  10.799   9.867   5.462
  443SOL    HW2 3104  10.655   9.865   5.509
  444SOL     OW 3105  12.845   8.343   1.898
  444SOL    HW1 3106  12.914   8.292   1.940
  444SOL    HW2 3107  12.768   8.286   1.902
  445SOL     OW 3108   0.699   8.929   0.840
  445SOL    HW1 3109   0.641   8.918   0.764
  445SOL    HW2 3110   0.662   9.004   0.887
  446SOL     OW 3111   4.300  14.329  13.564
  446SOL    HW1 3112   4.249  14.408  13.580
  446SOL    HW2 3113   4.354  14.350  13.488
  447SOL     OW 3114   2.591   8.552   6.197
  447SOL    HW1 3115   2.584   8.483   6.131
  447SOL    HW2 3116   2.669   8.528   6.248
  448SOL     OW 3117   8.733   1.622   6.307
  448SOL    HW1 3118   8.779   1.541   6.331
  448SOL    HW2 3119   8.750   1.634   6.214
  449SOL     OW 3120   0.815   8.240   0.176
  449SOL    HW1 3121   0.888   8.259   0.118
  449SOL    HW2 3122   0.823   8.147   0.195
  450SOL     OW 3123   2.619   8.244  12.490
  450SOL    HW1 3124   2.649   8.173  12.546
  450SOL    HW2 3125   2.697   8.271  12.442
  451SOL     OW 3126  13.289   4.549  12.461
  451SOL    HW1 3127  13.195   4.540  12.479
  451SOL    HW2 3128  13.325   4.461  12.477
  452SOL     OW 3129   0.756   6.576  14.396
  452SOL    HW1 3130   0.713   6.518  14.333
  452SOL    HW2 3131   0.844   6.541  14.404
  453SOL     OW 3132   9.997  14.389   7.098
  453SOL    HW1 3133  10.037  14.325   7.157
  453SOL    HW2 3134  10.064  14.455   7.084
  454SOL     OW 3135  10.298   1.331   5.404
  454SOL    HW1 3136  10.355   1.358   5.475
  454SOL    HW2 3137  10.286   1.410   5.351
  455SOL     OW 3138  10.012  11.794   3.246
  455SOL    HW1 3139  10.001  11.865   3.310
  455SOL    HW2 3140  10.101  11.761   3.262
  456SOL     OW 3141  11.483   4.189   4.384
  456SOL    HW1 3142  11.469   4.258   4.450
  456SOL    HW2 3143  11.407   4.132   4.392
  457SOL     OW 3144  11.792   1.034  13.148
  457SOL    HW1 3145  11.803   0.950  13.102
  457SOL    HW2 3146  11.802   1.100  13.079
  458SOL     OW 3147  13.772   6.732   4.043
  458SOL    HW1 3148  13.748   6.660   4.103
  458SOL    HW2 3149  13.715   6.719   3.967
  459SOL     OW 3150  14.121   9.138  11.362
  459SOL    HW1 3151  14.200   9.189  11.343
  459SOL    HW2 3152  14.049   9.193  11.334
  460SOL     OW 3153   2.974   3.352   9.205
  460SOL    HW1 3154   2.891   3.399   9.213
  460SOL    HW2 3155   2.966   3.277   9.263
  461SOL     OW 3156  12.152   8.644   7.290
  461SOL    HW1 3157  12.203   8.564   7.293
  461SOL    HW2 3158  12.170   8.687   7.374
  462SOL     OW 3159   4.437  10.500   0.273
  462SOL    HW1 3160   4.387  10.422   0.250
  462SOL    HW2 3161   4.373  10.571   0.267
  463SOL     OW 3162   1.513   8.858  11.761
  463SOL    HW1 3163   1.550   8.793  11.700
  463SOL    HW2 3164   1.504   8.810  11.843
  464SOL     OW 3165   7.127   0.116   8.624
  464SOL    HW1 3166   7.185   0.145   8.554
  464SOL    HW2 3167   7.151   0.172   8.699
  465SOL     OW 3168   1.790  10.621   6.793
  465SOL    HW1 3169   1.725  10.615   6.862
  465SOL    HW2 3170   1.745  10.664   6.720
  466SOL     OW 3171  12.886   2.610  11.122
  466SOL    HW1 3172  12.825   2.669  11.166
  466SOL    HW2 3173  12.847   2.595  11.036
  467SOL     OW 3174   5.725   0.965  14.295
  467SOL    HW1 3175   5.638   0.948  14.260
  467SOL    HW2 3176   5.732   0.907  14.371
  468SOL     OW 3177   0.301  10.171   8.569
  468SOL    HW1 3178   0.237  10.101   8.583
  468SOL    HW2 3179   0.353  10.172   8.650
  469SOL     OW 3180   6.123  12.099  11.569
  469SOL    HW1 3181   6.028  12.102  11.555
  469SOL    HW2 3182   6.135  12.033  11.638
  470SOL     OW 3183  13.384  10.395  14.205
  470SOL    HW1 3184  13.413  10.481  14.237
  470SOL    HW2 3185  13.306  10.375  14.257
  471SOL     OW 3186  11.132   8.710   1.676
  471SOL    HW1 3187  11.185   8.784   1.705
  471SOL    HW2 3188  11.043   8.746   1.670
  472SOL     OW 3189   9.872   5.555   6.655
  472SOL    HW1 3190   9.968   5.547   6.662
  472SOL    HW2 3191   9.852   5.637   6.699
  473SOL     OW 3192   4.650  12.448  10.424
  473SOL    HW1 3193   4.723  12.446  10.486
  473SOL    HW2 3194   4.572  12.439  10.477
  474SOL     OW 3195   6.323  12.465   4.123
  474SOL    HW1 3196   6.305  12.559   4.125
  474SOL    HW2 3197   6.417  12.459   4.106
  475SOL     OW 3198  10.772   8.263   9.195
  475SOL    HW1 3199  10.689   8.216   9.200
  475SOL    HW2 3200  10.756   8.345   9.242
  476SOL     OW 3201   9.267   9.843   9.415
  476SOL    HW1 3202   9.349   9.839   9.365
  476SOL    HW2 3203   9.266   9.762   9.466
  477SOL     OW 3204   8.309  10.202   3.887
  477SOL    HW1 3205   8.302  10.260   3.812
  477SOL    HW2 3206   8.219  10.176   3.906
  478SOL     OW 3207   9.939   1.187   7.878
  478SOL    HW1 3208   9.898   1.241   7.945
  478SOL    HW2 3209   9.924   1.097   7.908
  479SOL     OW 3210   4.418   1.785   7.929
  479SOL    HW1 3211   4.411   1.819   8.019
  479SOL    HW2 3212   4.368   1.703   7.931
  480SOL     OW 3213   6.939  11.321   4.900
  480SOL    HW1 3214   6.860  11.283   4.938
  480SOL    HW2 3215   7.006  11.254   4.913
  481SOL     OW 3216   1.136   7.127  11.314
  481SOL    HW1 3217   1.167   7.036  11.307
  481SOL    HW2 3218   1.042   7.118  11.332
  482SOL     OW 3219   7.562   6.015   0.987
  482SOL    HW1 3220   7.509   5.974   0.918
  482SOL    HW2 3221   7.513   6.093   1.011
  483SOL     OW 3222   5.357  12.036  13.661
  483SOL    HW1 3223   5.359  12.042  13.566
  483SOL    HW2 3224   5.397  12.118  13.691
  484SOL     OW 3225  10.172   7.312  10.708
  484SOL    HW1 3226  10.127   7.271  10.634
  484SOL    HW2 3227  10.235   7.371  10.667
  485SOL     OW 3228   9.486  10.434   0.715
  485SOL    HW1 3229   9.437  10.356   0.742
  485SOL    HW2 3230   9.476  10.495   0.788
  486SOL     OW 3231  10.548  11.923   2.813
  486SOL    HW1 3232  10.532  11.832   2.789
  486SOL    HW2 3233  10.472  11.970   2.778
  487SOL     OW 3234   9.493  11.870   5.853
  487SOL    HW1 3235   9.517  11.951   5.897
  487SOL    HW2 3236   9.471  11.897   5.764
  488SOL     OW 3237   1.689   3.990   1.434
  488SOL    HW1 3238   1.746   3.921   1.400
  488SOL    HW2 3239   1.611   3.987   1.380
  489SOL     OW 3240   3.446  14.811   0.993
  489SOL    HW1 3241   3.445  14.746   1.064
  489SOL    HW2 3242   3.538  14.834   0.983
  490SOL     OW 3243  14.073   6.924  12.166
  490SOL    HW1 3244  14.012   6.905  12.095
  490SOL    HW2 3245  14.038   6.876  12.241
  491SOL     OW 3246   9.767  12.561   1.176
  491SOL    HW1 3247   9.682  12.527   1.204
  491SOL    HW2 3248   9.831  12.497   1.207
  492SOL     OW 3249   6.465   2.852   8.877
  492SOL    HW1 3250   6.406   2.922   8.906
  492SOL    HW2 3251   6.414   2.803   8.813
  493SOL     OW 3252   1.733  12.584  10.284
  493SOL    HW1 3253   1.653  12.634  10.299
  493SOL    HW2 3254   1.783  12.637  10.221
  494SOL     OW 3255   2.061   9.350  10.617
  494SOL    HW1 3256   2.114   9.307  10.684
  494SOL    HW2 3257   2.123   9.406  10.570
  495SOL     OW 3258  12.260   8.108   6.150
  495SOL    HW1 3259  12.190   8.106   6.085
  495SOL    HW2 3260  12.215   8.124   6.233
  496SOL     OW 3261   8.119  14.361   4.615
  496SOL    HW1 3262   8.110  14.311   4.696
  496SOL    HW2 3263   8.091  14.301   4.546
  497SOL     OW 3264  10.040  11.310   9.193
  497SOL    HW1 3265  10.069  11.341   9.107
  497SOL    HW2 3266  10.041  11.388   9.249
  498SOL     OW 3267  14.511   5.150  12.331
  498SOL    HW1 3268  14.528   5.213  12.401
  498SOL    HW2 3269  14.434   5.185  12.286
  499SOL     OW 3270  10.700  14.853   9.855
  499SOL    HW1 3271  10.754  14.872   9.931
  499SOL    HW2 3272  10.677   0.061   9.819
  500SOL     OW 3273   4.262   8.270  12.446
  500SOL    HW1 3274   4.352   8.247  12.470
  500SOL    HW2 3275   4.253   8.241  12.355
  501SOL     OW 3276   6.544   9.071   9.592
  501SOL    HW1 3277   6.564   9.003   9.528
  501SOL    HW2 3278   6.617   9.133   9.586
  502SOL     OW 3279   7.065   8.477   4.697
  502SOL    HW1 3280   7.045   8.418   4.624
  502SOL    HW2 3281   7.148   8.445   4.732
  503SOL     OW 3282   4.563   2.162   8.591
  503SOL    HW1 3283   4.550   2.074   8.628
  503SOL    HW2 3284   4.625   2.204   8.651
  504SOL     OW 3285   1.979   1.404   0.640
  504SOL    HW1 3286   1.949   1.327   0.689
  504SOL    HW2 3287   1.899   1.445   0.608
  505SOL     OW 3288   2.293   1.583  13.897
  505SOL    HW1 3289   2.347   1.536  13.833
  505SOL    HW2 3290   2.355   1.612  13.964
  506SOL     OW 3291   7.888  11.533  13.749
  506SOL    HW1 3292   7.948  11.491  13.811
  506SOL    HW2 3293   7.933  11.614  13.724
  507SOL     OW 3294   7.384  12.183   4.033
  507SOL    HW1 3295   7.455  12.244   4.047
  507SOL    HW2 3296   7.404  12.141   3.949
  508SOL     OW 3297   6.474  13.155  13.490
  508SOL    HW1 3298   6.565  13.132  13.508
  508SOL    HW2 3299   6.461  13.238  13.535
  509SOL     OW 3300   1.423   4.180  11.215
  509SOL    HW1 3301   1.364   4.251  11.240
  509SOL    HW2 3302   1.422   4.120  11.289
  510SOL     OW 3303   0.566   7.139   9.376
  510SOL    HW1 3304   0.628   7.079   9.334
  510SOL    HW2 3305   0.519   7.181   9.303
  511SOL     OW 3306   1.431  10.525   7.850
  511SOL    HW1 3307   1.508  10.548   7.901
  511SOL    HW2 3308   1.358  10.528   7.912
  512SOL     OW 3309   3.484  13.850   1.793
  512SOL    HW1 3310   3.474  13.892   1.707
  512SOL    HW2 3311   3.482  13.756   1.774
  513SOL     OW 3312   0.292   4.724  12.674
  513SOL    HW1 3313   0.348   4.801  12.669
  513SOL    HW2 3314   0.338   4.658  12.623
  514SOL     OW 3315   5.963   3.120  11.586
  514SOL    HW1 3316   5.901   3.086  11.650
  514SOL    HW2 3317   5.976   3.211  11.610
  515SOL     OW 3318   0.517  10.508   4.108
  515SOL    HW1 3319   0.513  10.513   4.012
  515SOL    HW2 3320   0.571  10.432   4.126
  516SOL     OW 3321   2.297  11.997  10.542
  516SOL    HW1 3322   2.256  12.017  10.626
  516SOL    HW2 3323   2.230  12.022  10.477
  517SOL     OW 3324   6.127   5.207  11.744
  517SOL    HW1 3325   6.142   5.259  11.823
  517SOL    HW2 3326   6.033   5.188  11.746
  518SOL     OW 3327  14.608   5.053  10.782
  518SOL    HW1 3328  14.530   5.007  10.750
  518SOL    HW2 3329  14.588   5.074  10.873
  519SOL     OW 3330   3.781  10.603  14.201
  519SOL    HW1 3331   3.793  10.510  14.182
  519SOL    HW2 3332   3.689  10.620  14.178
  520SOL     OW 3333   6.809  14.815   4.628
  520SOL    HW1 3334   6.846  14.761   4.558
  520SOL    HW2 3335   6.884  14.832   4.686
  521SOL     OW 3336   2.816  12.291   1.292
  521SOL    HW1 3337   2.758  12.215   1.283
  521SOL    HW2 3338   2.890  12.259   1.344
  522SOL     OW 3339   0.103   6.067   3.136
  522SOL    HW1 3340   0.186   6.113   3.118
  522SOL    HW2 3341   0.090   6.079   3.230
  523SOL     OW 3342   1.450   6.178   4.805
  523SOL    HW1 3343   1.458   6.117   4.878
  523SOL    HW2 3344   1.393   6.248   4.838
  524SOL     OW 3345   9.426   5.526   7.542
  524SOL    HW1 3346   9.448   5.616   7.517
  524SOL    HW2 3347   9.388   5.488   7.463
  525SOL     OW 3348   4.012  13.129   7.922
  525SOL    HW1 3349   4.014  13.224   7.917
  525SOL    HW2 3350   3.934  13.109   7.973
  526SOL     OW 3351   6.106  14.658   9.977
  526SOL    HW1 3352   6.043  14.593  10.007
  526SOL    HW2 3353   6.112  14.720  10.049
  527SOL     OW 3354  13.532   6.952   1.129
  527SOL    HW1 3355  13.551   7.033   1.176
  527SOL    HW2 3356  13.617   6.911   1.115
  528SOL     OW 3357  14.322   3.501  13.153
  528SOL    HW1 3358  14.285   3.580  13.193
  528SOL    HW2 3359  14.403   3.485  13.200
  529SOL     OW 3360  11.072   8.222   2.694
  529SOL    HW1 3361  11.145   8.251   2.639
  529SOL    HW2 3362  11.091   8.260   2.780
  530SOL     OW 3363   4.868   4.589   6.807
  530SOL    HW1 3364   4.954   4.629   6.801
  530SOL    HW2 3365   4.814   4.654   6.851
  531SOL     OW 3366  13.143   0.448  13.963
  531SOL    HW1 3367  13.120   0.358  13.940
  531SOL    HW2 3368  13.189   0.481  13.886
  532SOL     OW 3369  10.238   0.559   3.361
  532SOL    HW1 3370  10.165   0.615   3.337
  532SOL    HW2 3371  10.198   0.476   3.387
  533SOL     OW 3372   8.833  13.995   0.213
  533SOL    HW1 3373   8.868  14.056   0.147
  533SOL    HW2 3374   8.753  14.038   0.244
  534SOL     OW 3375   0.443   1.784   5.486
  534SOL    HW1 3376   0.482   1.865   5.452
  534SOL    HW2 3377   0.518   1.734   5.519
  535SOL     OW 3378   0.568   3.535   0.929
  535SOL    HW1 3379   0.640   3.472   0.925
  535SOL    HW2 3380   0.489   3.483   0.914
  536SOL     OW 3381   0.103   8.766  14.205
  536SOL    HW1 3382   0.121   8.683  14.162
  536SOL    HW2 3383   0.136   8.756  14.294
  537SOL     OW 3384   4.141   5.735  12.258
  537SOL    HW1 3385   4.067   5.795  12.269
  537SOL    HW2 3386   4.138   5.711  12.166
  538SOL     OW 3387   8.933   7.133  14.235
  538SOL    HW1 3388   8.847   7.161  14.265
  538SOL    HW2 3389   8.988   7.211  14.242
  539SOL     OW 3390   3.328  12.850  13.289
  539SOL    HW1 3391   3.403  12.851  13.229
  539SOL    HW2 3392   3.312  12.757  13.305
  540SOL     OW 3393   4.326   4.362   2.300
  540SOL    HW1 3394   4.407   4.382   2.252
  540SOL    HW2 3395   4.258   4.360   2.233
  541SOL     OW 3396  11.899   8.568  13.877
  541SOL    HW1 3397  11.970   8.506  13.861
  541SOL    HW2 3398  11.830   8.543  13.816
  542SOL     OW 3399  11.135   8.799   6.638
  542SOL    HW1 3400  11.151   8.754   6.555
  542SOL    HW2 3401  11.057   8.757   6.674
  543SOL     OW 3402  13.087   4.613   5.104
  543SOL    HW1 3403  13.071   4.534   5.156
  543SOL    HW2 3404  13.003   4.634   5.065
  544SOL     OW 3405  10.844  11.400   5.360
  544SOL    HW1 3406  10.844  11.384   5.455
  544SOL    HW2 3407  10.936  11.393   5.335
  545SOL     OW 3408   2.827   3.531   4.640
  545SOL    HW1 3409   2.807   3.486   4.558
  545SOL    HW2 3410   2.751   3.516   4.695
  546SOL     OW 3411   7.664   3.838  10.731
  546SOL    HW1 3412   7.745   3.879  10.762
  546SOL    HW2 3413   7.665   3.751  10.770
  547SOL     OW 3414   9.930   0.975   1.919
  547SOL    HW1 3415   9.905   0.910   1.853
  547SOL    HW2 3416  10.009   1.016   1.885
  548SOL     OW 3417  14.391   2.030  12.002
  548SOL    HW1 3418  14.312   2.082  12.012
  548SOL    HW2 3419  14.414   2.004  12.092
  549SOL     OW 3420   7.257   3.516   0.280
  549SOL    HW1 3421   7.327   3.539   0.219
  549SOL    HW2 3422   7.180   3.561   0.247
  550SOL     OW 3423  14.638   0.455   8.142
  550SOL    HW1 3424  14.718   0.407   8.121
  550SOL    HW2 3425  14.568   0.401   8.104
  551SOL     OW 3426   2.308   8.998   1.695
  551SOL    HW1 3427   2.220   9.023   1.666
  551SOL    HW2 3428   2.326   8.916   1.648
  552SOL     OW 3429   5.307   3.216   3.035
  552SOL    HW1 3430   5.254   3.283   2.992
  552SOL    HW2 3431   5.326   3.153   2.966
  553SOL     OW 3432  11.216  11.793  12.840
  553SOL    HW1 3433  11.198  11.699  12.843
  553SOL    HW2 3434  11.232  11.811  12.747
  554SOL     OW 3435  13.483   5.462  14.462
  554SOL    HW1 3436  13.456   5.554  14.459
  554SOL    HW2 3437  13.405   5.414  14.435
  555SOL     OW 3438  10.648  14.129   7.731
  555SOL    HW1 3439  10.587  14.148   7.659
  555SOL    HW2 3440  10.722  14.086   7.689
  556SOL     OW 3441   5.475   0.196   1.000
  556SOL    HW1 3442   5.451   0.103   0.997
  556SOL    HW2 3443   5.494   0.212   1.093
  557SOL     OW 3444  13.306   2.982   0.582
  557SOL    HW1 3445  13.320   3.076   0.570
  557SOL    HW2 3446  13.349   2.941   0.507
  558SOL     OW 3447   0.556   3.022   7.206
  558SOL    HW1 3448   0.535   2.952   7.268
  558SOL    HW2 3449   0.508   3.098   7.238
  559SOL     OW 3450   9.759   5.809  12.587
  559SOL    HW1 3451   9.762   5.903  12.574
  559SOL    HW2 3452   9.803   5.795  12.671
  560SOL     OW 3453   3.914  13.628   8.013
  560SOL    HW1 3454   4.002  13.639   7.978
  560SOL    HW2 3455   3.860  13.687   7.962
  561SOL     OW 3456  10.918   6.349  11.902
  561SOL    HW1 3457  10.861   6.377  11.973
  561SOL    HW2 3458  10.863   6.292  11.848
  562SOL     OW 3459   5.421  12.413   6.987
  562SOL    HW1 3460   5.335  12.379   6.963
  562SOL    HW2 3461   5.477  12.335   6.988
  563SOL     OW 3462   3.690   0.949   5.064
  563SOL    HW1 3463   3.628   0.943   5.137
  563SOL    HW2 3464   3.698   0.860   5.031
  564SOL     OW 3465  12.944   8.024   5.177
  564SOL    HW1 3466  12.907   8.107   5.149
  564SOL    HW2 3467  13.025   8.015   5.127
  565SOL     OW 3468   3.067  13.777  11.981
  565SOL    HW1 3469   3.159  13.754  11.977
  565SOL    HW2 3470   3.031  13.751  11.896
  566SOL     OW 3471  14.420   8.686  11.981
  566SOL    HW1 3472  14.410   8.779  11.959
  566SOL    HW2 3473  14.508   8.679  12.016
  567SOL     OW 3474   8.659   0.815   2.017
  567SOL    HW1 3475   8.592   0.882   2.025
  567SOL    HW2 3476   8.660   0.772   2.102
  568SOL     OW 3477  10.060  12.797   2.524
  568SOL    HW1 3478  10.132  12.825   2.580
  568SOL    HW2 3479  10.047  12.705   2.547
  569SOL     OW 3480   4.864   5.618  14.292
  569SOL    HW1 3481   4.805   5.688  14.264
  569SOL    HW2 3482   4.844   5.605  14.384
  570SOL     OW 3483   1.496   7.868  12.310
  570SOL    HW1 3484   1.544   7.941  12.272
  570SOL    HW2 3485   1.556   7.794  12.303
  571SOL     OW 3486  11.059  11.175   9.757
  571SOL    HW1 3487  11.112  11.255   9.757
  571SOL    HW2 3488  10.986  11.194   9.698
  572SOL     OW 3489   9.933  11.456  14.824
  572SOL    HW1 3490   9.964  11.503   0.023
  572SOL    HW2 3491  10.011  11.410  14.791
  573SOL     OW 3492   5.258   6.007  12.970
  573SOL    HW1 3493   5.186   5.945  12.984
  573SOL    HW2 3494   5.234   6.054  12.890
  574SOL     OW 3495  13.881   6.593  13.206
  574SOL    HW1 3496  13.903   6.678  13.168
  574SOL    HW2 3497  13.788   6.599  13.227
  575SOL     OW 3498   8.109   2.410   3.387
  575SOL    HW1 3499   8.185   2.426   3.332
  575SOL    HW2 3500   8.130   2.328   3.433
  576SOL     OW 3501   4.164   1.819  11.612
  576SOL    HW1 3502   4.213   1.802  11.692
  576SOL    HW2 3503   4.138   1.911  11.618
  577SOL     OW 3504  14.402   2.478  12.459
  577SOL    HW1 3505  14.468   2.544  12.434
  577SOL    HW2 3506  14.319   2.524  12.452
  578SOL     OW 3507  12.033   8.111   6.035
  578SOL    HW1 3508  12.017   8.147   6.123
  578SOL    HW2 3509  12.038   8.188   5.979
  579SOL     OW 3510  10.662   8.518   5.343
  579SOL    HW1 3511  10.725   8.447   5.333
  579SOL    HW2 3512  10.643   8.545   5.253
  580SOL     OW 3513   3.611   2.266   6.831
  580SOL    HW1 3514   3.690   2.222   6.798
  580SOL    HW2 3515   3.644   2.338   6.885
  581SOL     OW 3516   5.921  11.044  13.366
  581SOL    HW1 3517   5.993  11.063  13.426
  581SOL    HW2 3518   5.879  10.966  13.402
  582SOL     OW 3519   5.063  11.944   6.184
  582SOL    HW1 3520   5.080  11.917   6.093
  582SOL    HW2 3521   5.062  11.862   6.233
  583SOL     OW 3522   3.042   9.386  11.951
  583SOL    HW1 3523   3.062   9.329  12.025
  583SOL    HW2 3524   3.118   9.444  11.944
  584SOL     OW 3525   6.473   4.598  12.393
  584SOL    HW1 3526   6.517   4.569  12.473
  584SOL    HW2 3527   6.464   4.693  12.403
  585SOL     OW 3528  11.384   6.555  10.623
  585SOL    HW1 3529  11.397   6.580  10.714
  585SOL    HW2 3530  11.291   6.533  10.618
  586SOL     OW 3531   1.569   3.181   0.292
  586SOL    HW1 3532   1.656   3.189   0.252
  586SOL    HW2 3533   1.519   3.254   0.254
  587SOL     OW 3534  12.965   4.289   4.484
  587SOL    HW1 3535  12.979   4.377   4.450
  587SOL    HW2 3536  12.887   4.258   4.438
  588SOL     OW 3537   3.050  14.142  10.136
  588SOL    HW1 3538   3.107  14.212  10.168
  588SOL    HW2 3539   3.037  14.162  10.043
  589SOL     OW 3540   3.753  14.418   1.134
  589SOL    HW1 3541   3.804  14.347   1.173
  589SOL    HW2 3542   3.701  14.453   1.206
  590SOL     OW 3543   4.810  13.885  13.665
  590SOL    HW1 3544   4.773  13.804  13.631
  590SOL    HW2 3545   4.739  13.927  13.713
  591SOL     OW 3546  10.442   1.094  12.538
  591SOL    HW1 3547  10.470   1.136  12.620
  591SOL    HW2 3548  10.402   1.012  12.566
  592SOL     OW 3549   3.744   1.690   7.661
  592SOL    HW1 3550   3.656   1.653   7.656
  592SOL    HW2 3551   3.799   1.616   7.685
  593SOL     OW 3552   7.713   6.806   8.855
  593SOL    HW1 3553   7.706   6.744   8.782
  593SOL    HW2 3554   7.759   6.881   8.819
  594SOL     OW 3555   2.132   6.493  13.326
  594SOL    HW1 3556   2.195   6.550  13.370
  594SOL    HW2 3557   2.173   6.406  13.329
  595SOL     OW 3558   5.638  13.117  12.172
  595SOL    HW1 3559   5.703  13.135  12.104
  595SOL    HW2 3560   5.554  13.129  12.129
  596SOL     OW 3561   8.855   9.788  13.187
  596SOL    HW1 3562   8.802   9.859  13.150
  596SOL    HW2 3563   8.923   9.833  13.237
  597SOL     OW 3564  11.187  11.633   5.872
  597SOL    HW1 3565  11.278  11.645   5.845
  597SOL    HW2 3566  11.159  11.720   5.899
  598SOL     OW 3567   5.992   9.069   7.154
  598SOL    HW1 3568   5.914   9.085   7.100
  598SOL    HW2 3569   5.998   8.974   7.158
  599SOL     OW 3570   9.445   1.204   3.413
  599SOL    HW1 3571   9.368   1.251   3.382
  599SOL    HW2 3572   9.450   1.224   3.506
  600SOL     OW 3573   2.894   8.200   5.736
  600SOL    HW1 3574   2.858   8.158   5.658
  600SOL    HW2 3575   2.945   8.131   5.780
  601SOL     OW 3576  10.347   9.681   9.383
  601SOL    HW1 3577  10.329   9.589   9.362
  601SOL    HW2 3578  10.405   9.710   9.313
  602SOL     OW 3579   5.463   8.709  14.058
  602SOL    HW1 3580   5.474   8.804  14.056
  602SOL    HW2 3581   5.543   8.675  14.016
  603SOL     OW 3582  13.156  10.651  12.037
  603SOL    HW1 3583  13.234  10.661  11.982
  603SOL    HW2 3584  13.188  10.660  12.127
  604SOL     OW 3585   2.620  14.498   5.135
  604SOL    HW1 3586   2.616  14.406   5.163
  604SOL    HW2 3587   2.529  14.528   5.139
  605SOL     OW 3588   2.488   1.406   4.502
  605SOL    HW1 3589   2.531   1.384   4.585
  605SOL    HW2 3590   2.557   1.450   4.451
  606SOL     OW 3591   5.725   1.437   8.030
  606SOL    HW1 3592   5.644   1.448   7.981
  606SOL    HW2 3593   5.734   1.517   8.082
  607SOL     OW 3594   3.881   0.274  14.261
  607SOL    HW1 3595   3.936   0.218  14.315
  607SOL    HW2 3596   3.805   0.294  14.317
  608SOL     OW 3597   5.622   9.858   3.930
  608SOL    HW1 3598   5.590   9.947   3.913
  608SOL    HW2 3599   5.610   9.812   3.847
  609SOL     OW 3600   0.920   7.144   0.012
  609SOL    HW1 3601   0.897   7.210   0.077
  609SOL    HW2 3602   0.992   7.181  14.841
  610SOL     OW 3603   7.632   0.454   9.304
  610SOL    HW1 3604   7.708   0.408   9.267
  610SOL    HW2 3605   7.572   0.465   9.231
  611SOL     OW 3606   4.817   9.106   5.937
  611SOL    HW1 3607   4.813   9.131   6.029
  611SOL    HW2 3608   4.752   9.036   5.928
  612SOL     OW 3609  13.935   2.947  14.327
  612SOL    HW1 3610  13.952   2.892  14.250
  612SOL    HW2 3611  13.957   3.035  14.298
  613SOL     OW 3612   0.891   1.428   8.869
  613SOL    HW1 3613   0.887   1.523   8.880
  613SOL    HW2 3614   0.850   1.412   8.784
  614SOL     OW 3615   0.742   4.624  12.543
  614SOL    HW1 3616   0.833   4.600  12.559
  614SOL    HW2 3617   0.739   4.643  12.449
  615SOL     OW 3618  13.938   8.845   0.572
  615SOL    HW1 3619  13.879   8.817   0.642
  615SOL    HW2 3620  14.024   8.851   0.614
  616SOL     OW 3621   3.054   2.538   8.834
  616SOL    HW1 3622   3.018   2.450   8.822
  616SOL    HW2 3623   3.116   2.549   8.762
  617SOL     OW 3624   1.791   2.648   8.893
  617SOL    HW1 3625   1.843   2.642   8.813
  617SOL    HW2 3626   1.836   2.715   8.946
  618SOL     OW 3627   3.220   5.678   4.620
  618SOL    HW1 3628   3.265   5.729   4.553
  618SOL    HW2 3629   3.205   5.741   4.691
  619SOL     OW 3630  10.539  12.973   5.273
  619SOL    HW1 3631  10.528  12.982   5.367
  619SOL    HW2 3632  10.592  12.895   5.261
  620SOL     OW 3633   3.794  14.752   3.746
  620SOL    HW1 3634   3.713  14.720   3.706
  620SOL    HW2 3635   3.796  14.845   3.726
  621SOL     OW 3636  13.477  10.913  14.176
  621SOL    HW1 3637  13.430  10.993  14.200
  621SOL    HW2 3638  13.543  10.943  14.113
  622SOL     OW 3639  11.515  11.626   8.444
  622SOL    HW1 3640  11.444  11.614   8.507
  622SOL    HW2 3641  11.588  11.575   8.478
  623SOL     OW 3642   2.880   3.554  10.613
  623SOL    HW1 3643   2.969   3.591  10.611
  623SOL    HW2 3644   2.836   3.602  10.683
  624SOL     OW 3645   7.374  12.365   0.638
  624SOL    HW1 3646   7.384  12.274   0.666
  624SOL    HW2 3647   7.328  12.359   0.554
  625SOL     OW 3648   5.850   0.906  11.171
  625SOL    HW1 3649   5.935   0.938  11.142
  625SOL    HW2 3650   5.814   0.976  11.225
  626SOL     OW 3651   1.659  12.482  12.402
  626SOL    HW1 3652   1.596  12.498  12.332
  626SOL    HW2 3653   1.705  12.402  12.375
  627SOL     OW 3654   3.636   5.409   8.193
  627SOL    HW1 3655   3.583   5.423   8.115
  627SOL    HW2 3656   3.605   5.474   8.255
  628SOL     OW 3657   0.875   3.724  13.384
  628SOL    HW1 3658   0.787   3.699  13.356
  628SOL    HW2 3659   0.918   3.755  13.304
  629SOL     OW 3660   4.276   0.407   2.571
  629SOL    HW1 3661   4.214   0.360   2.627
  629SOL    HW2 3662   4.239   0.399   2.483
  630SOL     OW 3663   6.020  12.472   6.709
  630SOL    HW1 3664   5.990  12.469   6.800
  630SOL    HW2 3665   5.962  12.411   6.663
  631SOL     OW 3666   2.112  12.941  11.373
  631SOL    HW1 3667   2.105  12.850  11.344
  631SOL    HW2 3668   2.088  12.992  11.295
  632SOL     OW 3669  11.228   1.482   9.485
  632SOL    HW1 3670  11.217   1.486   9.580
  632SOL    HW2 3671  11.139   1.488   9.450
  633SOL     OW 3672   9.255   2.593   5.661
  633SOL    HW1 3673   9.295   2.676   5.636
  633SOL    HW2 3674   9.163   2.601   5.635
  634SOL     OW 3675   0.584   9.567   8.006
  634SOL    HW1 3676   0.648   9.523   8.063
  634SOL    HW2 3677   0.603   9.533   7.918
  635SOL     OW 3678   3.737   6.048  10.380
  635SOL    HW1 3679   3.757   5.966  10.335
  635SOL    HW2 3680   3.642   6.048  10.391
  636SOL     OW 3681   9.916  12.401  14.206
  636SOL    HW1 3682   9.917  12.492  14.176
  636SOL    HW2 3683   9.831  12.391  14.249
  637SOL     OW 3684   5.219   2.699   3.279
  637SOL    HW1 3685   5.163   2.622   3.268
  637SOL    HW2 3686   5.175   2.769   3.231
  638SOL     OW 3687   4.848  13.330  11.937
  638SOL    HW1 3688   4.759  13.331  11.904
  638SOL    HW2 3689   4.880  13.419  11.922
  639SOL     OW 3690   3.023  12.884  14.135
  639SOL    HW1 3691   3.097  12.832  14.165
  639SOL    HW2 3692   3.011  12.859  14.043
  640SOL     OW 3693  12.310   4.471   3.467
  640SOL    HW1 3694  12.376   4.482   3.536
  640SOL    HW2 3695  12.241   4.533   3.488
  641SOL     OW 3696   4.363   7.240  11.369
  641SOL    HW1 3697   4.353   7.174  11.437
  641SOL    HW2 3698   4.444   7.285  11.391
  642SOL     OW 3699  13.960   0.130   9.989
  642SOL    HW1 3700  13.884   0.073   9.991
  642SOL    HW2 3701  13.989   0.129   9.897
  643SOL     OW 3702   4.382   9.904  10.470
  643SOL    HW1 3703   4.405   9.984  10.519
  643SOL    HW2 3704   4.466   9.867  10.444
  644SOL     OW 3705   5.663   2.480   2.697
  644SOL    HW1 3706   5.591   2.539   2.715
  644SOL    HW2 3707   5.623   2.393   2.694
  645SOL     OW 3708  11.370   8.551  14.772
  645SOL    HW1 3709  11.327   8.601  14.841
  645SOL    HW2 3710  11.455   8.526  14.809
  646SOL     OW 3711   9.451   6.672   5.640
  646SOL    HW1 3712   9.468   6.766   5.634
  646SOL    HW2 3713   9.404   6.661   5.723
  647SOL     OW 3714   7.848   7.106  12.587
  647SOL    HW1 3715   7.789   7.175  12.557
  647SOL    HW2 3716   7.924   7.153  12.622
  648SOL     OW 3717   6.831   7.657   6.506
  648SOL    HW1 3718   6.767   7.596   6.543
  648SOL    HW2 3719   6.913   7.607   6.504
  649SOL     OW 3720   3.751   7.438   1.902
  649SOL    HW1 3721   3.700   7.471   1.976
  649SOL    HW2 3722   3.808   7.371   1.941
  650SOL     OW 3723   7.419   1.573   0.823
  650SOL    HW1 3724   7.425   1.571   0.727
  650SOL    HW2 3725   7.376   1.491   0.846
  651SOL     OW 3726  12.307   2.971   1.819
  651SOL    HW1 3727  12.282   3.053   1.775
  651SOL    HW2 3728  12.226   2.942   1.861
  652SOL     OW 3729   7.472   4.113  11.605
  652SOL    HW1 3730   7.404   4.149  11.548
  652SOL    HW2 3731   7.432   4.036  11.644
  653SOL     OW 3732   3.374   7.387   1.786
  653SOL    HW1 3733   3.443   7.324   1.807
  653SOL    HW2 3734   3.296   7.353   1.830
  654SOL     OW 3735   6.063   2.282  14.344
  654SOL    HW1 3736   6.069   2.335  14.423
  654SOL    HW2 3737   6.052   2.192  14.375
  655SOL     OW 3738   9.401   8.726   2.484
  655SOL    HW1 3739   9.379   8.681   2.566
  655SOL    HW2 3740   9.321   8.773   2.460
  656SOL     OW 3741   7.419   5.756   1.304
  656SOL    HW1 3742   7.450   5.782   1.390
  656SOL    HW2 3743   7.499   5.752   1.251
  657SOL     OW 3744   1.549   7.780   4.097
  657SOL    HW1 3745   1.500   7.819   4.025
  657SOL    HW2 3746   1.613   7.723   4.053
  658SOL     OW 3747   2.364  10.296  12.564
  658SOL    HW1 3748   2.348  10.390  12.553
  658SOL    HW2 3749   2.429  10.290  12.634
  659SOL     OW 3750   9.853  10.066  11.812
  659SOL    HW1 3751   9.942  10.098  11.829
  659SOL    HW2 3752   9.834  10.008  11.886
  660SOL     OW 3753  13.780   6.892   4.787
  660SOL    HW1 3754  13.782   6.953   4.714
  660SOL    HW2 3755  13.855   6.835   4.774
  661SOL     OW 3756   6.659  10.768  12.235
  661SOL    HW1 3757   6.564  10.758  12.228
  661SOL    HW2 3758   6.675  10.778  12.329
  662SOL     OW 3759  14.105   1.020  11.693
  662SOL    HW1 3760  14.102   0.929  11.722
  662SOL    HW2 3761  14.182   1.025  11.637
  663SOL     OW 3762   2.434   8.779   9.456
  663SOL    HW1 3763   2.510   8.803   9.403
  663SOL    HW2 3764   2.446   8.686   9.473
  664SOL     OW 3765   9.145   1.025   3.383
  664SOL    HW1 3766   9.053   1.024   3.412
  664SOL    HW2 3767   9.141   1.051   3.291
  665SOL     OW 3768   9.777   2.068  14.010
  665SOL    HW1 3769   9.822   2.148  14.039
  665SOL    HW2 3770   9.754   2.023  14.091
  666SOL     OW 3771   2.002   5.677  12.804
  666SOL    HW1 3772   1.983   5.702  12.895
  666SOL    HW2 3773   1.928   5.712  12.754
  667SOL     OW 3774   0.902  10.095   3.530
  667SOL    HW1 3775   0.946  10.132   3.453
  667SOL    HW2 3776   0.963  10.110   3.602
  668SOL     OW 3777  10.202  13.162   5.497
  668SOL    HW1 3778  10.186  13.067   5.492
  668SOL    HW2 3779  10.236  13.176   5.585
  669SOL     OW 3780  11.647   5.601  11.548
  669SOL    HW1 3781  11.726   5.620  11.497
  669SOL    HW2 3782  11.679   5.558  11.627
  670SOL     OW 3783   8.447   8.296  13.094
  670SOL    HW1 3784   8.421   8.389  13.093
  670SOL    HW2 3785   8.444   8.270  13.002
  671SOL     OW 3786  11.560   8.433   9.328
  671SOL    HW1 3787  11.627   8.458   9.264
  671SOL    HW2 3788  11.565   8.500   9.396
  672SOL     OW 3789   4.910  13.158  13.913
  672SOL    HW1 3790   4.987  13.106  13.934
  672SOL    HW2 3791   4.901  13.153  13.818
  673SOL     OW 3792   7.133   9.895   5.193
  673SOL    HW1 3793   7.082   9.922   5.270
  673SOL    HW2 3794   7.113   9.803   5.182
  674SOL     OW 3795   9.261   1.619   2.639
  674SOL    HW1 3796   9.192   1.601   2.702
  674SOL    HW2 3797   9.314   1.687   2.680
  675SOL     OW 3798   1.525  10.272  14.449
  675SOL    HW1 3799   1.467  10.222  14.391
  675SOL    HW2 3800   1.475  10.284  14.529
  676SOL     OW 3801   1.035   1.964  12.929
  676SOL    HW1 3802   1.105   2.010  12.976
  676SOL    HW2 3803   1.030   1.879  12.972
  677SOL     OW 3804   9.220  14.692  14.097
  677SOL    HW1 3805   9.159  14.746  14.148
  677SOL    HW2 3806   9.164  14.631  14.049
  678SOL     OW 3807   6.453   6.184   0.722
  678SOL    HW1 3808   6.540   6.224   0.722
  678SOL    HW2 3809   6.421   6.195   0.632
  679SOL     OW 3810   8.275   9.927  11.588
  679SOL    HW1 3811   8.264   9.969  11.503
  679SOL    HW2 3812   8.288  10.000  11.649
  680SOL     OW 3813   2.393  13.862  11.309
  680SOL    HW1 3814   2.332  13.903  11.247
  680SOL    HW2 3815   2.468  13.921  11.311
  681SOL     OW 3816  11.682  14.301   4.181
  681SOL    HW1 3817  11.680  14.333   4.271
  681SOL    HW2 3818  11.745  14.229   4.182
  682SOL     OW 3819   4.733   1.034  13.878
  682SOL    HW1 3820   4.806   0.983  13.913
  682SOL    HW2 3821   4.708   1.093  13.949
  683SOL     OW 3822   0.203  12.451  10.267
  683SOL    HW1 3823   0.132  12.428  10.327
  683SOL    HW2 3824   0.266  12.497  10.321
  684SOL     OW 3825   2.165  12.469   7.747
  684SOL    HW1 3826   2.086  12.487   7.798
  684SOL    HW2 3827   2.133  12.459   7.657
  685SOL     OW 3828   4.155  10.307  13.810
  685SOL    HW1 3829   4.099  10.331  13.736
  685SOL    HW2 3830   4.238  10.351  13.792
  686SOL     OW 3831   7.644   0.968   7.640
  686SOL    HW1 3832   7.628   1.048   7.689
  686SOL    HW2 3833   7.575   0.965   7.575
  687SOL     OW 3834   1.909   8.909  11.303
  687SOL    HW1 3835   1.871   8.859  11.376
  687SOL    HW2 3836   1.991   8.864  11.283
  688SOL     OW 3837   5.458  10.642   7.992
  688SOL    HW1 3838   5.484  10.559   7.954
  688SOL    HW2 3839   5.474  10.706   7.922
  689SOL     OW 3840  14.313   9.997   0.815
  689SOL    HW1 3841  14.382  10.038   0.763
  689SOL    HW2 3842  14.268  10.070   0.857
  690SOL     OW 3843   7.050   0.175   9.783
  690SOL    HW1 3844   7.138   0.178   9.745
  690SOL    HW2 3845   7.041   0.085   9.813
  691SOL     OW 3846   4.371   2.535   4.618
  691SOL    HW1 3847   4.425   2.608   4.649
  691SOL    HW2 3848   4.310   2.576   4.557
  692SOL     OW 3849   6.029  12.296  13.948
  692SOL    HW1 3850   6.057  12.231  14.012
  692SOL    HW2 3851   6.110  12.333  13.914
  693SOL     OW 3852   7.412   9.368   7.310
  693SOL    HW1 3853   7.336   9.311   7.297
  693SOL    HW2 3854   7.454   9.371   7.224
  694SOL     OW 3855  14.237  14.647   3.857
  694SOL    HW1 3856  14.294  14.666   3.931
  694SOL    HW2 3857  14.151  14.682   3.884
  695SOL     OW 3858   8.602   7.417   6.289
  695SOL    HW1 3859   8.511   7.417   6.261
  695SOL    HW2 3860   8.652   7.417   6.207
  696SOL     OW 3861   9.601   1.208   6.608
  696SOL    HW1 3862   9.568   1.264   6.539
  696SOL    HW2 3863   9.682   1.171   6.573
  697SOL     OW 3864  10.787   5.387   1.405
  697SOL    HW1 3865  10.817   5.319   1.466
  697SOL    HW2 3866  10.757   5.339   1.328
  698SOL     OW 3867  10.348   6.837  11.010
  698SOL    HW1 3868  10.338   6.914  11.066
  698SOL    HW2 3869  10.279   6.846  10.944
  699SOL     OW 3870   7.284  10.224   6.139
  699SOL    HW1 3871   7.336  10.202   6.216
  699SOL    HW2 3872   7.213  10.160   6.139
  700SOL     OW 3873  12.487   3.914   1.418
  700SOL    HW1 3874  12.425   3.868   1.474
  700SOL    HW2 3875  12.448   4.000   1.403
  701SOL     OW 3876   7.732   4.025   0.323
  701SOL    HW1 3877   7.730   3.931   0.338
  701SOL    HW2 3878   7.694   4.037   0.236
  702SOL     OW 3879   7.768   4.572   7.318
  702SOL    HW1 3880   7.720   4.511   7.262
  702SOL    HW2 3881   7.735   4.658   7.293
  703SOL     OW 3882  12.081   8.516   0.801
  703SOL    HW1 3883  11.992   8.484   0.793
  703SOL    HW2 3884  12.072   8.605   0.836
  704SOL     OW 3885   1.994   4.673   3.339
  704SOL    HW1 3886   2.055   4.746   3.324
  704SOL    HW2 3887   2.019   4.637   3.424
  705SOL     OW 3888  14.507   6.163   7.483
  705SOL    HW1 3889  14.477   6.090   7.429
  705SOL    HW2 3890  14.580   6.201   7.434
  706SOL     OW 3891   7.276   5.529  12.214
  706SOL    HW1 3892   7.202   5.499  12.161
  706SOL    HW2 3893   7.352   5.517  12.157
  707SOL     OW 3894   7.131   2.913  14.702
  707SOL    HW1 3895   7.113   2.825  14.669
  707SOL    HW2 3896   7.073   2.923  14.777
  708SOL     OW 3897   0.095   0.280  14.765
  708SOL    HW1 3898   0.067   0.324  14.846
  708SOL    HW2 3899   0.078   0.187  14.781
  709SOL     OW 3900  12.631   2.753  12.406
  709SOL    HW1 3901  12.697   2.820  12.423
  709SOL    HW2 3902  12.639   2.691  12.478
  710SOL     OW 3903  13.409   4.301  12.574
  710SOL    HW1 3904  13.330   4.250  12.558
  710SOL    HW2 3905  13.480   4.244  12.545
  711SOL     OW 3906  13.987   5.279  12.506
  711SOL    HW1 3907  14.076   5.252  12.485
  711SOL    HW2 3908  13.931   5.209  12.473
  712SOL     OW 3909   9.442  13.550   6.436
  712SOL    HW1 3910   9.530  13.589   6.437
  712SOL    HW2 3911   9.387  13.615   6.393
  713SOL     OW 3912  10.462   8.978   0.726
  713SOL    HW1 3913  10.527   8.940   0.667
  713SOL    HW2 3914  10.403   9.027   0.669
  714SOL     OW 3915  13.332   7.262   9.565
  714SOL    HW1 3916  13.247   7.300   9.543
  714SOL    HW2 3917  13.319   7.225   9.653
  715SOL     OW 3918  11.543   9.959   2.565
  715SOL    HW1 3919  11.483   9.995   2.630
  715SOL    HW2 3920  11.556   9.868   2.592
  716SOL     OW 3921   4.540   5.983   5.964
  716SOL    HW1 3922   4.528   6.013   5.874
  716SOL    HW2 3923   4.629   6.009   5.987
  717SOL     OW 3924   6.917   6.360   0.610
  717SOL    HW1 3925   7.007   6.330   0.622
  717SOL    HW2 3926   6.916   6.401   0.523
  718SOL     OW 3927   0.915  10.557   0.060
  718SOL    HW1 3928   0.999  10.511   0.054
  718SOL    HW2 3929   0.850  10.489   0.041
  719SOL     OW 3930   0.438   0.039   7.019
  719SOL    HW1 3931   0.482   0.071   7.098
  719SOL    HW2 3932   0.354   0.007   7.051
  720SOL     OW 3933   0.845   3.156  13.043
  720SOL    HW1 3934   0.938   3.143  13.025
  720SOL    HW2 3935   0.840   3.241  13.086
  721SOL     OW 3936  12.599   5.408   4.622
  721SOL    HW1 3937  12.598   5.326   4.573
  721SOL    HW2 3938  12.603   5.382   4.714
  722SOL     OW 3939   9.414  10.398  10.728
  722SOL    HW1 3940   9.367  10.440  10.656
  722SOL    HW2 3941   9.506  10.400  10.701
  723SOL     OW 3942   9.921   9.970  12.912
  723SOL    HW1 3943   9.838   9.930  12.939
  723SOL    HW2 3944   9.980   9.953  12.985
  724SOL     OW 3945   0.926   2.763   5.996
  724SOL    HW1 3946   0.913   2.799   6.084
  724SOL    HW2 3947   0.854   2.797   5.945
  725SOL     OW 3948   1.782   4.198   4.688
  725SOL    HW1 3949   1.826   4.281   4.671
  725SOL    HW2 3950   1.700   4.204   4.639
  726SOL     OW 3951   5.191   6.787  10.616
  726SOL    HW1 3952   5.219   6.845  10.687
  726SOL    HW2 3953   5.266   6.730  10.602
  727SOL     OW 3954   2.951   1.399  12.352
  727SOL    HW1 3955   2.890   1.332  12.322
  727SOL    HW2 3956   3.028   1.349  12.382
  728SOL     OW 3957   8.623   4.914  10.748
  728SOL    HW1 3958   8.626   4.884  10.657
  728SOL    HW2 3959   8.646   5.007  10.743
  729SOL     OW 3960   0.195   1.515   1.822
  729SOL    HW1 3961   0.179   1.444   1.884
  729SOL    HW2 3962   0.276   1.556   1.852
  730SOL     OW 3963  13.392  10.811  11.462
  730SOL    HW1 3964  13.479  10.774  11.453
  730SOL    HW2 3965  13.349  10.794  11.378
  731SOL     OW 3966   2.232   0.862  13.412
  731SOL    HW1 3967   2.179   0.848  13.490
  731SOL    HW2 3968   2.188   0.811  13.344
  732SOL     OW 3969   7.446  14.715   2.540
  732SOL    HW1 3970   7.362  14.737   2.500
  732SOL    HW2 3971   7.430  14.632   2.585
  733SOL     OW 3972  10.792   5.962   6.683
  733SOL    HW1 3973  10.856   5.960   6.611
  733SOL    HW2 3974  10.707   5.958   6.639
  734SOL     OW 3975  12.360   6.823  11.974
  734SOL    HW1 3976  12.356   6.736  12.012
  734SOL    HW2 3977  12.285   6.870  12.012
  735SOL     OW 3978   8.047  10.993   0.854
  735SOL    HW1 3979   8.134  10.970   0.885
  735SOL    HW2 3980   8.062  11.049   0.778
  736SOL     OW 3981   7.102  14.616   2.742
  736SOL    HW1 3982   7.046  14.661   2.680
  736SOL    HW2 3983   7.082  14.523   2.731
  737SOL     OW 3984  13.619   5.417   4.267
  737SOL    HW1 3985  13.604   5.508   4.242
  737SOL    HW2 3986  13.549   5.398   4.330
  738SOL     OW 3987   3.399   0.767   3.629
  738SOL    HW1 3988   3.394   0.861   3.643
  738SOL    HW2 3989   3.492   0.746   3.637
  739SOL     OW 3990   2.209   1.985   0.992
  739SOL    HW1 3991   2.133   1.992   1.051
  739SOL    HW2 3992   2.217   2.072   0.954
  740SOL     OW 3993   5.677  13.057   0.676
  740SOL    HW1 3994   5.698  13.060   0.769
  740SOL    HW2 3995   5.738  12.993   0.639
  741SOL     OW 3996   9.386  14.442   8.623
  741SOL    HW1 3997   9.419  14.495   8.551
  741SOL    HW2 3998   9.299  14.413   8.594
  742SOL     OW 3999  11.360  13.997   1.737
  742SOL    HW1 4000  11.295  13.926   1.739
  742SOL    HW2 4001  11.336  14.049   1.661
  743SOL     OW 4002   5.356  13.180   4.728
  743SOL    HW1 4003   5.439  13.196   4.682
  743SOL    HW2 4004   5.377  13.195   4.821
  744SOL     OW 4005  14.454  12.248  12.259
  744SOL    HW1 4006  14.450  12.302  12.338
  744SOL    HW2 4007  14.526  12.188  12.274
  745SOL     OW 4008   8.211  14.777  10.579
  745SOL    HW1 4009   8.191  14.867  10.605
  745SOL    HW2 4010   8.125  14.733  10.579
  746SOL     OW 4011   7.987   8.704   6.736
  746SOL    HW1 4012   8.081   8.684   6.738
  746SOL    HW2 4013   7.951   8.644   6.671
  747SOL     OW 4014  11.189  14.393  11.262
  747SOL    HW1 4015  11.100  14.367  11.241
  747SOL    HW2 4016  11.180  14.481  11.300
  748SOL     OW 4017   2.180  13.538   1.459
  748SOL    HW1 4018   2.249  13.471   1.455
  748SOL    HW2 4019   2.124  13.510   1.532
  749SOL     OW 4020   6.527   2.932  10.724
  749SOL    HW1 4021   6.536   2.959  10.815
  749SOL    HW2 4022   6.572   2.848  10.719
  750SOL     OW 4023   5.386  10.162   8.726
  750SOL    HW1 4024   5.442  10.202   8.792
  750SOL    HW2 4025   5.445  10.139   8.655
  751SOL     OW 4026   4.220  11.984   7.238
  751SOL    HW1 4027   4.214  11.969   7.144
  751SOL    HW2 4028   4.228  11.896   7.275
  752SOL     OW 4029   8.082   8.696   2.501
  752SOL    HW1 4030   8.138   8.696   2.424
  752SOL    HW2 4031   8.014   8.761   2.482
  753SOL     OW 4032  14.624   6.037   1.934
  753SOL    HW1 4033  14.718   6.022   1.924
  753SOL    HW2 4034  14.591   6.044   1.845
  754SOL     OW 4035   4.909   3.326  10.024
  754SOL    HW1 4036   4.955   3.374  10.092
  754SOL    HW2 4037   4.926   3.376   9.944
  755SOL     OW 4038  12.291   1.201   8.296
  755SOL    HW1 4039  12.314   1.135   8.361
  755SOL    HW2 4040  12.372   1.216   8.247
  756SOL     OW 4041   9.423   3.174  10.613
  756SOL    HW1 4042   9.474   3.190  10.533
  756SOL    HW2 4043   9.405   3.261  10.648
  757SOL     OW 4044  13.753   3.255  11.213
  757SOL    HW1 4045  13.807   3.334  11.212
  757SOL    HW2 4046  13.781   3.206  11.135
  758SOL     OW 4047  11.232   1.141   2.785
  758SOL    HW1 4048  11.249   1.202   2.857
  758SOL    HW2 4049  11.194   1.195   2.716
  759SOL     OW 4050  13.064  11.195   3.615
  759SOL    HW1 4051  13.079  11.289   3.623
  759SOL    HW2 4052  13.080  11.160   3.703
  760SOL     OW 4053   5.901  14.083   5.091
  760SOL    HW1 4054   5.850  14.071   5.171
  760SOL    HW2 4055   5.933  13.996   5.068
  761SOL     OW 4056  13.441   5.461  11.499
  761SOL    HW1 4057  13.435   5.405  11.421
  761SOL    HW2 4058  13.535   5.467  11.516
  762SOL     OW 4059   0.714  12.691   7.574
  762SOL    HW1 4060   0.776  12.619   7.581
  762SOL    HW2 4061   0.645  12.670   7.637
  763SOL     OW 4062   0.730   2.318  12.422
  763SOL    HW1 4063   0.767   2.246  12.473
  763SOL    HW2 4064   0.756   2.300  12.332
  764SOL     OW 4065   7.506   4.425  14.803
  764SOL    HW1 4066   7.536   4.436  14.713
  764SOL    HW2 4067   7.412   4.409  14.795
  765SOL     OW 4068  12.990   0.038   1.935
  765SOL    HW1 4069  12.940   0.063   2.012
  765SOL    HW2 4070  12.959   0.097   1.866
  766SOL     OW 4071   1.133  14.337  14.403
  766SOL    HW1 4072   1.147  14.407  14.467
  766SOL    HW2 4073   1.207  14.345  14.342
  767SOL     OW 4074   6.338   7.320  12.532
  767SOL    HW1 4075   6.408   7.367  12.578
  767SOL    HW2 4076   6.275   7.388  12.509
  768SOL     OW 4077   8.997   8.729   3.491
  768SOL    HW1 4078   9.049   8.656   3.523
  768SOL    HW2 4079   9.044   8.807   3.520
  769SOL     OW 4080   5.083  14.453   9.351
  769SOL    HW1 4081   5.107  14.545   9.361
  769SOL    HW2 4082   5.110  14.412   9.433
  770SOL     OW 4083   6.983   3.175   8.442
  770SOL    HW1 4084   7.017   3.087   8.425
  770SOL    HW2 4085   6.888   3.163   8.445
  771SOL     OW 4086   0.854   3.415   2.008
  771SOL    HW1 4087   0.916   3.343   2.004
  771SOL    HW2 4088   0.893   3.483   1.953
  772SOL     OW 4089  14.689  14.091   7.323
  772SOL    HW1 4090  14.767  14.060   7.369
  772SOL    HW2 4091  14.677  14.028   7.252
  773SOL     OW 4092  10.971   7.222   8.672
  773SOL    HW1 4093  10.988   7.156   8.604
  773SOL    HW2 4094  11.058   7.258   8.692
  774SOL     OW 4095   3.957  13.018   9.358
  774SOL    HW1 4096   4.050  12.997   9.346
  774SOL    HW2 4097   3.928  13.051   9.273
  775SOL     OW 4098   2.146   0.336   6.292
  775SOL    HW1 4099   2.091   0.338   6.370
  775SOL    HW2 4100   2.087   0.309   6.222
  776SOL     OW 4101   6.727  12.998   8.582
  776SOL    HW1 4102   6.741  13.089   8.558
  776SOL    HW2 4103   6.815  12.960   8.585
  777SOL     OW 4104   1.036   0.853   0.545
  777SOL    HW1 4105   0.963   0.812   0.592
  777SOL    HW2 4106   1.065   0.785   0.484
  778SOL     OW 4107   0.212  13.877   8.735
  778SOL    HW1 4108   0.229  13.861   8.642
  778SOL    HW2 4109   0.121  13.851   8.748
  779SOL     OW 4110   2.804   9.979  10.095
  779SOL    HW1 4111   2.712   9.959  10.080
  779SOL    HW2 4112   2.834   9.911  10.157
  780SOL     OW 4113   1.895  12.390   0.014
  780SOL    HW1 4114   1.868  12.439   0.092
  780SOL    HW2 4115   1.813  12.371  14.846
  781SOL     OW 4116  12.634   8.830   0.668
  781SOL    HW1 4117  12.726   8.803   0.669
  781SOL    HW2 4118  12.599   8.794   0.586
  782SOL     OW 4119  12.990   2.084   2.582
  782SOL    HW1 4120  13.006   2.008   2.638
  782SOL    HW2 4121  13.057   2.148   2.609
  783SOL     OW 4122  14.505   1.457  14.732
  783SOL    HW1 4123  14.532   1.543  14.697
  783SOL    HW2 4124  14.588   1.411  14.748
  784SOL     OW 4125   5.013   5.606   5.949
  784SOL    HW1 4126   4.979   5.617   5.860
  784SOL    HW2 4127   4.955   5.541   5.989
  785SOL     OW 4128   5.763   6.010  14.777
  785SOL    HW1 4129   5.782   5.992  14.869
  785SOL    HW2 4130   5.710   6.090  14.780
  786SOL     OW 4131  11.879  10.878  12.985
  786SOL    HW1 4132  11.795  10.831  12.976
  786SOL    HW2 4133  11.855  10.970  12.981
  787SOL     OW 4134   4.366   6.130  11.114
  787SOL    HW1 4135   4.372   6.116  11.019
  787SOL    HW2 4136   4.388   6.222  11.126
  788SOL     OW 4137   4.036  14.813  11.930
  788SOL    HW1 4138   4.128  14.820  11.903
  788SOL    HW2 4139   4.035  14.847  12.020
  789SOL     OW 4140   0.763   7.408   4.440
  789SOL    HW1 4141   0.683   7.355   4.438
  789SOL    HW2 4142   0.771   7.442   4.351
  790SOL     OW 4143   3.848  11.688   1.161
  790SOL    HW1 4144   3.877  11.619   1.101
  790SOL    HW2 4145   3.781  11.735   1.113
  791SOL     OW 4146   4.989   2.615   3.861
  791SOL    HW1 4147   4.974   2.662   3.779
  791SOL    HW2 4148   5.028   2.679   3.919
  792SOL     OW 4149   7.417   8.946  10.998
  792SOL    HW1 4150   7.475   8.871  11.010
  792SOL    HW2 4151   7.475   9.016  10.965
  793SOL     OW 4152  10.586  12.841   8.246
  793SOL    HW1 4153  10.595  12.799   8.160
  793SOL    HW2 4154  10.497  12.877   8.245
  794SOL     OW 4155   2.151   1.185   4.132
  794SOL    HW1 4156   2.241   1.202   4.159
  794SOL    HW2 4157   2.107   1.157   4.212
  795SOL     OW 4158  10.367   8.757   6.982
  795SOL    HW1 4159  10.280   8.725   7.005
  795SOL    HW2 4160  10.394   8.700   6.909
  796SOL     OW 4161   4.016  10.019   3.690
  796SOL    HW1 4162   4.004  10.110   3.719
  796SOL    HW2 4163   3.948   9.971   3.736
  797SOL     OW 4164   0.093   9.208  11.536
  797SOL    HW1 4165   0.107   9.296  11.501
  797SOL    HW2 4166   0.182   9.172  11.544
  798SOL     OW 4167  11.311   0.725  12.093
  798SOL    HW1 4168  11.311   0.646  12.148
  798SOL    HW2 4169  11.377   0.707  12.026
  799SOL     OW 4170   0.160   4.043   7.310
  799SOL    HW1 4171   0.216   4.120   7.321
  799SOL    HW2 4172   0.221   3.972   7.289
  800SOL     OW 4173   6.640   3.980  14.851
  800SOL    HW1 4174   6.592   4.059  14.876
  800SOL    HW2 4175   6.598   3.910   0.023
  801SOL     OW 4176  11.508   4.970  13.693
  801SOL    HW1 4177  11.599   4.943  13.684
  801SOL    HW2 4178  11.478   4.980  13.602
  802SOL     OW 4179   0.016   1.838  12.706
  802SOL    HW1 4180  14.854   1.843  12.793
  802SOL    HW2 4181   0.109   1.853  12.722
  803SOL     OW 4182   3.514   8.047  11.111
  803SOL    HW1 4183   3.607   8.037  11.131
  803SOL    HW2 4184   3.471   7.973  11.153
  804SOL     OW 4185  11.213   8.176  10.835
  804SOL    HW1 4186  11.127   8.185  10.793
  804SOL    HW2 4187  11.264   8.249  10.802
  805SOL     OW 4188   5.500  12.909   1.203
  805SOL    HW1 4189   5.541  12.825   1.182
  805SOL    HW2 4190   5.483  12.949   1.118
  806SOL     OW 4191   8.815   7.340  12.499
  806SOL    HW1 4192   8.812   7.360  12.593
  806SOL    HW2 4193   8.814   7.426  12.456
  807SOL     OW 4194  12.870  12.350  12.589
  807SOL    HW1 4195  12.921  12.292  12.645
  807SOL    HW2 4196  12.863  12.431  12.638
  808SOL     OW 4197   9.718   9.853   2.352
  808SOL    HW1 4198   9.710   9.758   2.364
  808SOL    HW2 4199   9.749   9.884   2.438
  809SOL     OW 4200   5.458  10.667   4.743
  809SOL    HW1 4201   5.476  10.574   4.759
  809SOL    HW2 4202   5.363  10.674   4.753
  810SOL     OW 4203  13.640  10.914   9.423
  810SOL    HW1 4204  13.577  10.845   9.445
  810SOL    HW2 4205  13.670  10.891   9.334
  811SOL     OW 4206   7.155   8.113  13.488
  811SOL    HW1 4207   7.180   8.105  13.580
  811SOL    HW2 4208   7.238   8.123  13.441
  812SOL     OW 4209  14.034   6.137  12.484
  812SOL    HW1 4210  14.100   6.105  12.422
  812SOL    HW2 4211  14.056   6.093  12.566
  813SOL     OW 4212   7.887  14.261   3.293
  813SOL    HW1 4213   7.839  14.182   3.318
  813SOL    HW2 4214   7.969  14.229   3.256
  814SOL     OW 4215  11.630   7.380   7.904
  814SOL    HW1 4216  11.592   7.293   7.921
  814SOL    HW2 4217  11.655   7.377   7.812
  815SOL     OW 4218   2.064  11.291  14.714
  815SOL    HW1 4219   2.141  11.245  14.682
  815SOL    HW2 4220   2.055  11.262  14.805
  816SOL     OW 4221  11.709  11.931   8.188
  816SOL    HW1 4222  11.744  11.955   8.274
  816SOL    HW2 4223  11.751  11.992   8.127
  817SOL     OW 4224  10.176   2.532   5.991
  817SOL    HW1 4225  10.266   2.507   6.016
  817SOL    HW2 4226  10.142   2.577   6.069
  818SOL     OW 4227   4.124   5.779  10.600
  818SOL    HW1 4228   4.068   5.739  10.533
  818SOL    HW2 4229   4.178   5.707  10.631
  819SOL     OW 4230   7.292   9.551   6.117
  819SOL    HW1 4231   7.233   9.476   6.125
  819SOL    HW2 4232   7.314   9.574   6.207
  820SOL     OW 4233   0.309   9.914   7.698
  820SOL    HW1 4234   0.373   9.952   7.637
  820SOL    HW2 4235   0.361   9.855   7.753
  821SOL     OW 4236   4.231   7.606  13.195
  821SOL    HW1 4237   4.181   7.551  13.135
  821SOL    HW2 4238   4.165   7.657  13.242
  822SOL     OW 4239   5.301  10.597   9.175
  822SOL    HW1 4240   5.251  10.572   9.253
  822SOL    HW2 4241   5.389  10.563   9.191
  823SOL     OW 4242   2.969   1.731   6.719
  823SOL    HW1 4243   3.033   1.795   6.689
  823SOL    HW2 4244   2.944   1.761   6.807
  824SOL     OW 4245   8.594   5.002   9.570
  824SOL    HW1 4246   8.608   4.960   9.655
  824SOL    HW2 4247   8.500   5.019   9.567
  825SOL     OW 4248  14.574   7.052  11.938
  825SOL    HW1 4249  14.536   6.965  11.947
  825SOL    HW2 4250  14.616   7.069  12.022
  826SOL     OW 4251   4.213  11.094   2.615
  826SOL    HW1 4252   4.137  11.134   2.573
  826SOL    HW2 4253   4.177  11.044   2.688
  827SOL     OW 4254   0.555   1.890   1.579
  827SOL    HW1 4255   0.523   1.975   1.547
  827SOL    HW2 4256   0.514   1.880   1.665
  828SOL     OW 4257   5.848   7.849   7.949
  828SOL    HW1 4258   5.893   7.903   8.014
  828SOL    HW2 4259   5.865   7.893   7.866
  829SOL     OW 4260   8.597  10.372   2.535
  829SOL    HW1 4261   8.531  10.368   2.466
  829SOL    HW2 4262   8.576  10.450   2.585
  830SOL     OW 4263   6.961  10.729   4.042
  830SOL    HW1 4264   6.992  10.691   4.124
  830SOL    HW2 4265   6.979  10.823   4.052
  831SOL     OW 4266  11.164  12.010  11.533
  831SOL    HW1 4267  11.150  11.978  11.622
  831SOL    HW2 4268  11.253  12.045  11.534
  832SOL     OW 4269   1.279  11.036   7.676
  832SOL    HW1 4270   1.217  10.968   7.649
  832SOL    HW2 4271   1.360  11.014   7.631
  833SOL     OW 4272   9.005   4.775   1.957
  833SOL    HW1 4273   9.089   4.737   1.983
  833SOL    HW2 4274   8.951   4.771   2.036
  834SOL     OW 4275   8.872   1.814   4.033
  834SOL    HW1 4276   8.889   1.741   4.093
  834SOL    HW2 4277   8.928   1.885   4.065
  835SOL     OW 4278   2.316   9.628   4.091
  835SOL    HW1 4279   2.221   9.615   4.091
  835SOL    HW2 4280   2.345   9.596   4.006
  836SOL     OW 4281   3.359   7.625   7.505
  836SOL    HW1 4282   3.295   7.684   7.466
  836SOL    HW2 4283   3.368   7.554   7.441
  837SOL     OW 4284  13.391   7.671  10.332
  837SOL    HW1 4285  13.304   7.632  10.346
  837SOL    HW2 4286  13.395   7.690  10.239
  838SOL     OW 4287   1.362   3.160   1.014
  838SOL    HW1 4288   1.330   3.245   1.045
  838SOL    HW2 4289   1.359   3.167   0.918
  839SOL     OW 4290  13.375  14.326  10.026
  839SOL    HW1 4291  13.368  14.272   9.947
  839SOL    HW2 4292  13.447  14.386  10.008
  840SOL     OW 4293   6.323  12.810   7.928
  840SOL    HW1 4294   6.239  12.805   7.882
  840SOL    HW2 4295   6.367  12.886   7.890
  841SOL     OW 4296  13.011   9.128   8.994
  841SOL    HW1 4297  13.075   9.146   8.925
  841SOL    HW2 4298  12.932   9.101   8.946
  842SOL     OW 4299   6.146   7.474   6.016
  842SOL    HW1 4300   6.146   7.421   5.936
  842SOL    HW2 4301   6.079   7.434   6.071
  843SOL     OW 4302  10.016   1.774   9.656
  843SOL    HW1 4303  10.031   1.760   9.749
  843SOL    HW2 4304  10.060   1.700   9.613
  844SOL     OW 4305   3.034   9.643   9.103
  844SOL    HW1 4306   3.029   9.565   9.048
  844SOL    HW2 4307   3.074   9.710   9.047
  845SOL     OW 4308   1.465   8.870   0.789
  845SOL    HW1 4309   1.546   8.819   0.788
  845SOL    HW2 4310   1.490   8.954   0.826
  846SOL     OW 4311  13.322   4.921   7.097
  846SOL    HW1 4312  13.338   4.993   7.037
  846SOL    HW2 4313  13.376   4.940   7.174
  847SOL     OW 4314  12.136  11.572   8.095
  847SOL    HW1 4315  12.120  11.661   8.126
  847SOL    HW2 4316  12.083  11.564   8.016
  848SOL     OW 4317   1.871  11.976   2.830
  848SOL    HW1 4318   1.834  12.062   2.850
  848SOL    HW2 4319   1.796  11.916   2.833
  849SOL     OW 4320  11.704   3.767   0.394
  849SOL    HW1 4321  11.629   3.809   0.351
  849SOL    HW2 4322  11.743   3.837   0.447
  850SOL     OW 4323   8.951   0.908  12.964
  850SOL    HW1 4324   9.034   0.874  12.933
  850SOL    HW2 4325   8.940   0.871  13.051
  851SOL     OW 4326   5.273   2.706   4.393
  851SOL    HW1 4327   5.349   2.740   4.441
  851SOL    HW2 4328   5.299   2.711   4.301
  852SOL     OW 4329   0.120   3.413   8.911
  852SOL    HW1 4330   0.141   3.323   8.889
  852SOL    HW2 4331   0.155   3.464   8.838
  853SOL     OW 4332  13.453   7.108   3.606
  853SOL    HW1 4333  13.434   7.189   3.651
  853SOL    HW2 4334  13.477   7.046   3.675
  854SOL     OW 4335   5.351  10.385   9.554
  854SOL    HW1 4336   5.313  10.388   9.642
  854SOL    HW2 4337   5.302  10.451   9.505
  855SOL     OW 4338   8.518   3.645   4.732
  855SOL    HW1 4339   8.458   3.713   4.763
  855SOL    HW2 4340   8.504   3.643   4.637
  856SOL     OW 4341   2.106  10.467   7.927
  856SOL    HW1 4342   2.141  10.554   7.945
  856SOL    HW2 4343   2.039  10.454   7.994
  857SOL     OW 4344   5.719   6.420  14.289
  857SOL    HW1 4345   5.676   6.449  14.370
  857SOL    HW2 4346   5.813   6.428  14.307
  858SOL     OW 4347  11.883   8.840  14.724
  858SOL    HW1 4348  11.790   8.842  14.701
  858SOL    HW2 4349  11.898   8.749  14.751
  859SOL     OW 4350   0.583   2.605  14.292
  859SOL    HW1 4351   0.598   2.514  14.267
  859SOL    HW2 4352   0.655   2.653  14.252
  860SOL     OW 4353   6.970   0.693   6.425
  860SOL    HW1 4354   6.927   0.668   6.507
  860SOL    HW2 4355   6.899   0.727   6.370
  861SOL     OW 4356   8.820  12.427   5.328
  861SOL    HW1 4357   8.844  12.405   5.238
  861SOL    HW2 4358   8.749  12.367   5.349
  862SOL     OW 4359   0.883   5.074   0.602
  862SOL    HW1 4360   0.895   5.000   0.661
  862SOL    HW2 4361   0.789   5.073   0.581
  863SOL     OW 4362   3.045  10.412   0.589
  863SOL    HW1 4363   3.052  10.364   0.672
  863SOL    HW2 4364   2.986  10.358   0.535
  864SOL     OW 4365  13.514   2.608   1.924
  864SOL    HW1 4366  13.530   2.697   1.894
  864SOL    HW2 4367  13.419   2.598   1.921
  865SOL     OW 4368   9.058   2.543   6.163
  865SOL    HW1 4369   9.031   2.527   6.073
  865SOL    HW2 4370   8.994   2.496   6.216
  866SOL     OW 4371   3.008   5.208   8.188
  866SOL    HW1 4372   3.007   5.120   8.151
  866SOL    HW2 4373   2.920   5.241   8.175
  867SOL     OW 4374  14.165   2.299   2.824
  867SOL    HW1 4375  14.143   2.207   2.809
  867SOL    HW2 4376  14.228   2.321   2.756
  868SOL     OW 4377   8.694   3.259  11.000
  868SOL    HW1 4378   8.759   3.189  10.987
  868SOL    HW2 4379   8.747   3.335  11.025
  869SOL     OW 4380  13.844   3.507  11.984
  869SOL    HW1 4381  13.885   3.579  12.033
  869SOL    HW2 4382  13.910   3.438  11.985
  870SOL     OW 4383   6.623   1.754  10.226
  870SOL    HW1 4384   6.674   1.745  10.307
  870SOL    HW2 4385   6.656   1.834  10.185
  871SOL     OW 4386  13.994   2.489   0.041
  871SOL    HW1 4387  14.041   2.559  14.874
  871SOL    HW2 4388  14.050   2.412   0.032
  872SOL     OW 4389   1.979   1.668  13.159
  872SOL    HW1 4390   2.002   1.688  13.068
  872SOL    HW2 4391   2.063   1.652  13.202
  873SOL     OW 4392   0.363  13.549   7.392
  873SOL    HW1 4393   0.374  13.512   7.480
  873SOL    HW2 4394   0.393  13.480   7.333
  874SOL     OW 4395   3.853  13.953   8.494
  874SOL    HW1 4396   3.871  13.897   8.419
  874SOL    HW2 4397   3.798  14.023   8.459
  875SOL     OW 4398   6.314  12.926  12.976
  875SOL    HW1 4399   6.353  12.974  12.903
  875SOL    HW2 4400   6.261  12.857  12.934
  876SOL     OW 4401   1.249   1.044   0.681
  876SOL    HW1 4402   1.195   0.968   0.660
  876SOL    HW2 4403   1.188   1.118   0.681
  877SOL     OW 4404  12.400  10.401   2.538
  877SOL    HW1 4405  12.451  10.434   2.464
  877SOL    HW2 4406  12.435  10.448   2.614
  878SOL     OW 4407   2.419  12.001   1.220
  878SOL    HW1 4408   2.341  12.027   1.269
  878SOL    HW2 4409   2.448  12.081   1.176
  879SOL     OW 4410   5.882   0.637   5.860
  879SOL    HW1 4411   5.903   0.614   5.769
  879SOL    HW2 4412   5.791   0.607   5.871
  880SOL     OW 4413  14.717   0.226   9.773
  880SOL    HW1 4414  14.762   0.294   9.723
  880SOL    HW2 4415  14.681   0.167   9.706
  881SOL     OW 4416   2.770  11.017  10.028
  881SOL    HW1 4417   2.684  10.985  10.001
  881SOL    HW2 4418   2.817  10.939  10.058
  882SOL     OW 4419   8.920   5.141  10.290
  882SOL    HW1 4420   8.983   5.205  10.324
  882SOL    HW2 4421   8.865   5.192  10.231
  883SOL     OW 4422   4.516   7.737   0.923
  883SOL    HW1 4423   4.602   7.703   0.899
  883SOL    HW2 4424   4.472   7.664   0.966
  884SOL     OW 4425  12.836  14.862  12.205
  884SOL    HW1 4426  12.829  14.785  12.261
  884SOL    HW2 4427  12.769  14.849  12.138
  885SOL     OW 4428  10.344   0.699   8.706
  885SOL    HW1 4429  10.373   0.785   8.738
  885SOL    HW2 4430  10.366   0.700   8.613
  886SOL     OW 4431   1.255   0.188   8.313
  886SOL    HW1 4432   1.350   0.202   8.308
  886SOL    HW2 4433   1.246   0.094   8.327
  887SOL     OW 4434  10.503   5.742   9.399
  887SOL    HW1 4435  10.411   5.768   9.401
  887SOL    HW2 4436  10.503   5.651   9.429
  888SOL     OW 4437   9.465  12.074   7.611
  888SOL    HW1 4438   9.422  12.032   7.685
  888SOL    HW2 4439   9.534  12.128   7.650
  889SOL     OW 4440  10.409   6.427   5.764
  889SOL    HW1 4441  10.412   6.402   5.856
  889SOL    HW2 4442  10.320   6.459   5.751
  890SOL     OW 4443   4.431   4.756   9.683
  890SOL    HW1 4444   4.365   4.726   9.621
  890SOL    HW2 4445   4.448   4.847   9.658
  891SOL     OW 4446  10.048   5.759   8.240
  891SOL    HW1 4447  10.129   5.770   8.190
  891SOL    HW2 4448  10.078   5.746   8.331
  892SOL     OW 4449  11.011   3.531   6.707
  892SOL    HW1 4450  11.019   3.626   6.710
  892SOL    HW2 4451  10.938   3.510   6.765
  893SOL     OW 4452   1.544   6.842  13.570
  893SOL    HW1 4453   1.601   6.906  13.612
  893SOL    HW2 4454   1.464   6.891  13.549
  894SOL     OW 4455   8.493   6.806   8.767
  894SOL    HW1 4456   8.520   6.850   8.687
  894SOL    HW2 4457   8.566   6.819   8.827
  895SOL     OW 4458   9.000   1.177   6.387
  895SOL    HW1 4459   9.095   1.178   6.374
  895SOL    HW2 4460   8.970   1.100   6.338
  896SOL     OW 4461   5.268  12.660  10.353
  896SOL    HW1 4462   5.357  12.688  10.375
  896SOL    HW2 4463   5.261  12.572  10.388
  897SOL     OW 4464   6.584   0.161  13.551
  897SOL    HW1 4465   6.562   0.246  13.589
  897SOL    HW2 4466   6.600   0.179  13.458
  898SOL     OW 4467  11.748   2.348   8.001
  898SOL    HW1 4468  11.748   2.441   8.024
  898SOL    HW2 4469  11.684   2.341   7.930
  899SOL     OW 4470   2.595   2.870   9.654
  899SOL    HW1 4471   2.537   2.944   9.637
  899SOL    HW2 4472   2.668   2.882   9.593
  900SOL     OW 4473  10.157   1.011   6.930
  900SOL    HW1 4474  10.072   1.040   6.962
  900SOL    HW2 4475  10.189   0.952   6.999
  901SOL     OW 4476   3.621   4.012   8.585
  901SOL    HW1 4477   3.619   3.934   8.530
  901SOL    HW2 4478   3.640   3.980   8.673
  902SOL     OW 4479  13.453   8.098   9.814
  902SOL    HW1 4480  13.440   8.044   9.891
  902SOL    HW2 4481  13.480   8.183   9.849
  903SOL     OW 4482  13.832   7.226  13.555
  903SOL    HW1 4483  13.889   7.150  13.546
  903SOL    HW2 4484  13.868   7.275  13.629
  904SOL     OW 4485  14.730  10.801   1.421
  904SOL    HW1 4486  14.693  10.717   1.448
  904SOL    HW2 4487  14.655  10.859   1.414
  905SOL     OW 4488  13.518   3.895   6.393
  905SOL    HW1 4489  13.544   3.807   6.363
  905SOL    HW2 4490  13.446   3.879   6.453
  906SOL     OW 4491  13.363  11.281  13.998
  906SOL    HW1 4492  13.333  11.363  13.960
  906SOL    HW2 4493  13.440  11.257  13.947
  907SOL     OW 4494   4.034  10.322   2.006
  907SOL    HW1 4495   3.989  10.267   2.071
  907SOL    HW2 4496   3.969  10.336   1.938
  908SOL     OW 4497   2.973   6.081   5.060
  908SOL    HW1 4498   2.959   6.132   5.140
  908SOL    HW2 4499   2.980   6.146   4.990
  909SOL     OW 4500   7.105   3.361   6.602
  909SOL    HW1 4501   7.038   3.294   6.591
  909SOL    HW2 4502   7.154   3.360   6.519
  910SOL     OW 4503   3.916  12.405  13.589
  910SOL    HW1 4504   3.872  12.336  13.638
  910SOL    HW2 4505   3.866  12.484  13.607
  911SOL     OW 4506  12.561   5.297   1.686
  911SOL    HW1 4507  12.468   5.308   1.666
  911SOL    HW2 4508  12.605   5.303   1.601
  912SOL     OW 4509   4.081   5.889  14.480
  912SOL    HW1 4510   4.102   5.938  14.400
  912SOL    HW2 4511   4.156   5.831  14.493
  913SOL     OW 4512   6.448  10.255  12.454
  913SOL    HW1 4513   6.431  10.232  12.545
  913SOL    HW2 4514   6.399  10.191  12.403
  914SOL     OW 4515  13.550   9.668  13.810
  914SOL    HW1 4516  13.478   9.633  13.758
  914SOL    HW2 4517  13.626   9.614  13.786
  915SOL     OW 4518   2.536   9.080   2.841
  915SOL    HW1 4519   2.631   9.094   2.837
  915SOL    HW2 4520   2.522   9.037   2.925
  916SOL     OW 4521   4.589  14.666  13.837
  916SOL    HW1 4522   4.592  14.600  13.906
  916SOL    HW2 4523   4.499  14.697  13.837
  917SOL     OW 4524   9.324   9.387   4.220
  917SOL    HW1 4525   9.253   9.445   4.190
  917SOL    HW2 4526   9.279   9.311   4.257
  918SOL     OW 4527   1.841  12.565   2.363
  918SOL    HW1 4528   1.838  12.547   2.270
  918SOL    HW2 4529   1.789  12.495   2.403
  919SOL     OW 4530   5.798  13.678   4.472
  919SOL    HW1 4531   5.867  13.612   4.460
  919SOL    HW2 4532   5.755  13.653   4.554
  920SOL     OW 4533   4.366   2.971   9.463
  920SOL    HW1 4534   4.391   2.988   9.372
  920SOL    HW2 4535   4.410   2.888   9.484
  921SOL     OW 4536  11.361   5.240  14.211
  921SOL    HW1 4537  11.307   5.304  14.165
  921SOL    HW2 4538  11.302   5.200  14.275
  922SOL     OW 4539  13.157   0.849  11.148
  922SOL    HW1 4540  13.113   0.823  11.229
  922SOL    HW2 4541  13.155   0.944  11.149
  923SOL     OW 4542  12.941  14.286   1.690
  923SOL    HW1 4543  12.992  14.305   1.612
  923SOL    HW2 4544  12.919  14.194   1.683
  924SOL     OW 4545   5.497   8.103  12.442
  924SOL    HW1 4546   5.444   8.109  12.521
  924SOL    HW2 4547   5.555   8.179  12.444
  925SOL     OW 4548   5.311   9.680   3.642
  925SOL    HW1 4549   5.300   9.600   3.694
  925SOL    HW2 4550   5.256   9.745   3.685
  926SOL     OW 4551   6.565   1.897   5.735
  926SOL    HW1 4552   6.536   1.910   5.645
  926SOL    HW2 4553   6.593   1.984   5.764
  927SOL     OW 4554   1.866   1.656   7.937
  927SOL    HW1 4555   1.921   1.699   8.003
  927SOL    HW2 4556   1.845   1.571   7.975
  928SOL     OW 4557   4.581   9.004  13.828
  928SOL    HW1 4558   4.602   9.025  13.919
  928SOL    HW2 4559   4.666   8.987  13.787
  929SOL     OW 4560  13.612   3.889   3.438
  929SOL    HW1 4561  13.700   3.876   3.474
  929SOL    HW2 4562  13.565   3.936   3.507
  930SOL     OW 4563  11.098  10.424   3.587
  930SOL    HW1 4564  11.105  10.510   3.629
  930SOL    HW2 4565  11.010  10.423   3.548
  931SOL     OW 4566  11.838  12.321   7.796
  931SOL    HW1 4567  11.933  12.327   7.794
  931SOL    HW2 4568  11.813  12.352   7.883
  932SOL     OW 4569   3.291   6.301   2.403
  932SOL    HW1 4570   3.356   6.318   2.472
  932SOL    HW2 4571   3.299   6.376   2.344
  933SOL     OW 4572   4.389   2.716   4.975
  933SOL    HW1 4573   4.343   2.670   4.904
  933SOL    HW2 4574   4.474   2.737   4.938
  934SOL     OW 4575   2.629   9.458   7.715
  934SOL    HW1 4576   2.598   9.390   7.774
  934SOL    HW2 4577   2.678   9.518   7.771
  935SOL     OW 4578   8.723  12.367   2.898
  935SOL    HW1 4579   8.738  12.371   2.803
  935SOL    HW2 4580   8.654  12.432   2.914
  936SOL     OW 4581  13.414   4.693   7.640
  936SOL    HW1 4582  13.455   4.765   7.688
  936SOL    HW2 4583  13.354   4.653   7.703
  937SOL     OW 4584   4.611   5.302  11.269
  937SOL    HW1 4585   4.564   5.384  11.258
  937SOL    HW2 4586   4.678   5.321  11.334
  938SOL     OW 4587   2.768   9.355  14.257
  938SOL    HW1 4588   2.802   9.382  14.342
  938SOL    HW2 4589   2.843   9.316  14.211
  939SOL     OW 4590   8.279   0.619   9.662
  939SOL    HW1 4591   8.201   0.653   9.704
  939SOL    HW2 4592   8.303   0.542   9.713
  940SOL     OW 4593   2.978   5.456   8.352
  940SOL    HW1 4594   2.960   5.363   8.364
  940SOL    HW2 4595   3.060   5.458   8.303
  941SOL     OW 4596   9.433   8.675   1.736
  941SOL    HW1 4597   9.440   8.653   1.643
  941SOL    HW2 4598   9.455   8.768   1.741
  942SOL     OW 4599   6.191   3.189   7.757
  942SOL    HW1 4600   6.181   3.134   7.834
  942SOL    HW2 4601   6.107   3.183   7.712
  943SOL     OW 4602   1.122   7.584  13.756
  943SOL    HW1 4603   1.190   7.609  13.694
  943SOL    HW2 4604   1.095   7.667  13.797
  944SOL     OW 4605   7.270   4.672   1.471
  944SOL    HW1 4606   7.289   4.606   1.538
  944SOL    HW2 4607   7.283   4.626   1.388
  945SOL     OW 4608   2.766   1.628  10.013
  945SOL    HW1 4609   2.822   1.656   9.940
  945SOL    HW2 4610   2.754   1.707  10.065
  946SOL     OW 4611  11.516   1.443   3.253
  946SOL    HW1 4612  11.601   1.485   3.270
  946SOL    HW2 4613  11.460   1.515   3.222
  947SOL     OW 4614  11.531  12.350  10.632
  947SOL    HW1 4615  11.437  12.364  10.647
  947SOL    HW2 4616  11.544  12.378  10.541
  948SOL     OW 4617   1.983   9.959  11.210
  948SOL    HW1 4618   1.954   9.896  11.144
  948SOL    HW2 4619   2.073   9.981  11.184
  949SOL     OW 4620   6.865   3.156  14.552
  949SOL    HW1 4621   6.869   3.184  14.460
  949SOL    HW2 4622   6.802   3.083  14.552
  950SOL     OW 4623  14.458   2.606   7.177
  950SOL    HW1 4624  14.373   2.612   7.133
  950SOL    HW2 4625  14.464   2.685   7.230
  951SOL     OW 4626  10.934   6.023   2.634
  951SOL    HW1 4627  10.989   6.029   2.712
  951SOL    HW2 4628  10.994   6.039   2.561
  952SOL     OW 4629   3.325   4.219   8.764
  952SOL    HW1 4630   3.246   4.249   8.809
  952SOL    HW2 4631   3.344   4.287   8.700
  953SOL     OW 4632  11.904  14.175  13.379
  953SOL    HW1 4633  11.873  14.160  13.468
  953SOL    HW2 4634  11.846  14.242  13.344
  954SOL     OW 4635  10.593   4.269  12.741
  954SOL    HW1 4636  10.652   4.341  12.717
  954SOL    HW2 4637  10.507   4.296  12.710
  955SOL     OW 4638   6.130   8.378   9.218
  955SOL    HW1 4639   6.062   8.396   9.154
  955SOL    HW2 4640   6.110   8.289   9.249
  956SOL     OW 4641   1.039   2.968   3.015
  956SOL    HW1 4642   1.045   2.942   3.107
  956SOL    HW2 4643   1.097   2.906   2.969
  957SOL     OW 4644   2.304   6.201   7.388
  957SOL    HW1 4645   2.261   6.285   7.404
  957SOL    HW2 4646   2.255   6.162   7.316
  958SOL     OW 4647   2.003   0.074   1.820
  958SOL    HW1 4648   2.017   0.122   1.902
  958SOL    HW2 4649   1.969  14.867   1.848
  959SOL     OW 4650   0.744   1.728  11.988
  959SOL    HW1 4651   0.749   1.822  11.971
  959SOL    HW2 4652   0.665   1.717  12.041
  960SOL     OW 4653   1.965   8.204   7.696
  960SOL    HW1 4654   1.981   8.242   7.610
  960SOL    HW2 4655   1.998   8.268   7.758
  961SOL     OW 4656   7.637   5.824   6.586
  961SOL    HW1 4657   7.569   5.882   6.551
  961SOL    HW2 4658   7.692   5.880   6.639
  962SOL     OW 4659   0.294   6.551  12.747
  962SOL    HW1 4660   0.238   6.500  12.806
  962SOL    HW2 4661   0.238   6.569  12.671
  963SOL     OW 4662   8.298   0.166   8.427
  963SOL    HW1 4663   8.361   0.223   8.471
  963SOL    HW2 4664   8.348   0.087   8.406
  964SOL     OW 4665   0.335   2.225   9.649
  964SOL    HW1 4666   0.266   2.176   9.603
  964SOL    HW2 4667   0.296   2.245   9.734
  965SOL     OW 4668   1.786   8.779   6.409
  965SOL    HW1 4669   1.792   8.732   6.326
  965SOL    HW2 4670   1.817   8.868   6.388
  966SOL     OW 4671   8.370   2.988  10.966
  966SOL    HW1 4672   8.454   2.989  10.919
  966SOL    HW2 4673   8.390   2.950  11.052
  967SOL     OW 4674  11.798  12.723   2.389
  967SOL    HW1 4675  11.886  12.704   2.357
  967SOL    HW2 4676  11.773  12.646   2.439
  968SOL     OW 4677   7.867   8.147   3.403
  968SOL    HW1 4678   7.893   8.228   3.361
  968SOL    HW2 4679   7.888   8.159   3.495
  969SOL     OW 4680  13.550  12.985  14.809
  969SOL    HW1 4681  13.538  12.964  14.716
  969SOL    HW2 4682  13.535  12.902  14.854
  970SOL     OW 4683   5.978   3.110   2.500
  970SOL    HW1 4684   5.976   3.147   2.589
  970SOL    HW2 4685   5.904   3.149   2.456
  971SOL     OW 4686   4.250  14.835   9.283
  971SOL    HW1 4687   4.237  14.846   9.189
  971SOL    HW2 4688   4.338  14.868   9.300
  972SOL     OW 4689   3.686  10.560  12.683
  972SOL    HW1 4690   3.655  10.635  12.735
  972SOL    HW2 4691   3.648  10.573  12.597
  973SOL     OW 4692   9.035   4.811   3.275
  973SOL    HW1 4693   9.069   4.733   3.320
  973SOL    HW2 4694   8.950   4.827   3.316
  974SOL     OW 4695  12.109  14.753   6.593
  974SOL    HW1 4696  12.039  14.816   6.576
  974SOL    HW2 4697  12.173  14.769   6.523
  975SOL     OW 4698   4.912   9.399   2.172
  975SOL    HW1 4699   4.918   9.393   2.267
  975SOL    HW2 4700   4.980   9.339   2.140
  976SOL     OW 4701   4.885   0.849   1.674
  976SOL    HW1 4702   4.916   0.790   1.743
  976SOL    HW2 4703   4.895   0.798   1.593
  977SOL     OW 4704   1.369  14.409   0.045
  977SOL    HW1 4705   1.403  14.391   0.132
  977SOL    HW2 4706   1.446  14.421  14.868
  978SOL     OW 4707  11.148  13.458   6.705
  978SOL    HW1 4708  11.155  13.498   6.619
  978SOL    HW2 4709  11.222  13.397   6.709
  979SOL     OW 4710  13.850   4.003  13.483
  979SOL    HW1 4711  13.851   3.919  13.437
  979SOL    HW2 4712  13.932   4.045  13.457
  980SOL     OW 4713   9.155   1.710  13.834
  980SOL    HW1 4714   9.119   1.779  13.778
  980SOL    HW2 4715   9.203   1.653  13.774
  981SOL     OW 4716  14.643  13.103   8.817
  981SOL    HW1 4717  14.672  13.194   8.823
  981SOL    HW2 4718  14.672  13.074   8.731
  982SOL     OW 4719   6.908  12.083   5.090
  982SOL    HW1 4720   6.823  12.039   5.090
  982SOL    HW2 4721   6.891  12.169   5.051
  983SOL     OW 4722   7.375   0.855   3.744
  983SOL    HW1 4723   7.386   0.898   3.659
  983SOL    HW2 4724   7.358   0.928   3.805
  984SOL     OW 4725  10.941   9.162  13.597
  984SOL    HW1 4726  10.920   9.079  13.639
  984SOL    HW2 4727  10.857   9.205  13.584
  985SOL     OW 4728   0.259  13.758   8.493
  985SOL    HW1 4729   0.304  13.820   8.436
  985SOL    HW2 4730   0.322  13.687   8.505
  986SOL     OW 4731  13.732  14.426  12.413
  986SOL    HW1 4732  13.639  14.407  12.422
  986SOL    HW2 4733  13.740  14.472  12.329
  987SOL     OW 4734  13.042   5.411  12.279
  987SOL    HW1 4735  13.029   5.392  12.371
  987SOL    HW2 4736  13.135   5.396  12.264
  988SOL     OW 4737   8.662   9.361   7.479
  988SOL    HW1 4738   8.613   9.426   7.429
  988SOL    HW2 4739   8.641   9.278   7.436
  989SOL     OW 4740   3.475   8.663   6.064
  989SOL    HW1 4741   3.496   8.711   5.984
  989SOL    HW2 4742   3.393   8.617   6.043
  990SOL     OW 4743  13.098   3.213   6.080
  990SOL    HW1 4744  13.168   3.223   6.015
  990SOL    HW2 4745  13.089   3.300   6.119
  991SOL     OW 4746   8.826  11.985  13.115
  991SOL    HW1 4747   8.815  12.002  13.209
  991SOL    HW2 4748   8.738  11.997  13.079
  992SOL     OW 4749   0.674   9.844  11.394
  992SOL    HW1 4750   0.600   9.819  11.338
  992SOL    HW2 4751   0.635   9.893  11.465
  993SOL     OW 4752   1.101  11.830   7.742
  993SOL    HW1 4753   1.084  11.923   7.726
  993SOL    HW2 4754   1.023  11.800   7.788
  994SOL     OW 4755   3.834   1.143  13.866
  994SOL    HW1 4756   3.841   1.230  13.828
  994SOL    HW2 4757   3.747   1.112  13.839
  995SOL     OW 4758   5.943   3.101   0.173
  995SOL    HW1 4759   5.936   3.193   0.197
  995SOL    HW2 4760   6.005   3.101   0.100
  996SOL     OW 4761   4.332   6.709   0.522
  996SOL    HW1 4762   4.331   6.681   0.430
  996SOL    HW2 4763   4.242   6.696   0.551
  997SOL     OW 4764   9.282  13.813   7.516
  997SOL    HW1 4765   9.367  13.838   7.553
  997SOL    HW2 4766   9.291  13.831   7.422
  998SOL     OW 4767  10.678   7.141   9.407
  998SOL    HW1 4768  10.584   7.122   9.404
  998SOL    HW2 4769  10.711   7.091   9.482
  999SOL     OW 4770  10.252  11.227   7.737
  999SOL    HW1 4771  10.319  11.295   7.741
  999SOL    HW2 4772  10.184  11.263   7.680
 1000SOL     OW 4773   3.846  12.064   6.229
 1000SOL    HW1 4774   3.776  12.082   6.166
 1000SOL    HW2 4775   3.906  12.006   6.183
 1001SOL     OW 4776  10.752   8.076   2.285
 1001SOL    HW1 4777  10.663   8.111   2.284
 1001SOL    HW2 4778  10.805   8.149   2.318
 1002SOL     OW 4779  14.727   8.913   2.158
 1002SOL    HW1 4780  14.675   8.902   2.238
 1002SOL    HW2 4781  14.680   8.863   2.092
 1003SOL     OW 4782   2.507  10.546   5.514
 1003SOL    HW1 4783   2.486  10.471   5.571
 1003SOL    HW2 4784   2.451  10.616   5.545
 1004SOL     OW 4785   9.694   3.706   2.192
 1004SOL    HW1 4786   9.672   3.786   2.239
 1004SOL    HW2 4787   9.686   3.636   2.257
 1005SOL     OW 4788   8.894   8.013   1.342
 1005SOL    HW1 4789   8.956   8.086   1.336
 1005SOL    HW2 4790   8.925   7.961   1.416
 1006SOL     OW 4791   5.762   4.205  13.806
 1006SOL    HW1 4792   5.765   4.193  13.901
 1006SOL    HW2 4793   5.824   4.275  13.789
 1007SOL     OW 4794   2.178   9.655  12.399
 1007SOL    HW1 4795   2.187   9.748  12.378
 1007SOL    HW2 4796   2.115   9.622  12.335
 1008SOL     OW 4797   2.499   3.654  12.477
 1008SOL    HW1 4798   2.438   3.605  12.532
 1008SOL    HW2 4799   2.481   3.623  12.388
 1009SOL     OW 4800   4.297  10.708   5.556
 1009SOL    HW1 4801   4.267  10.651   5.485
 1009SOL    HW2 4802   4.227  10.705   5.621
 1010SOL     OW 4803   1.460  14.584  14.042
 1010SOL    HW1 4804   1.393  14.604  14.107
 1010SOL    HW2 4805   1.421  14.612  13.959
 1011SOL     OW 4806   9.898   3.903  11.864
 1011SOL    HW1 4807   9.915   3.862  11.779
 1011SOL    HW2 4808   9.834   3.845  11.905
 1012SOL     OW 4809   4.194   7.108  10.150
 1012SOL    HW1 4810   4.164   7.121  10.060
 1012SOL    HW2 4811   4.168   7.018  10.171
 1013SOL     OW 4812   9.592   5.253   9.520
 1013SOL    HW1 4813   9.552   5.173   9.485
 1013SOL    HW2 4814   9.522   5.296   9.569
 1014SOL     OW 4815   6.629   8.155  13.175
 1014SOL    HW1 4816   6.721   8.147  13.200
 1014SOL    HW2 4817   6.583   8.169  13.258
 1015SOL     OW 4818   4.102  14.526  10.295
 1015SOL    HW1 4819   4.062  14.552  10.379
 1015SOL    HW2 4820   4.122  14.609  10.252
 1016SOL     OW 4821   3.760   2.387   7.416
 1016SOL    HW1 4822   3.852   2.363   7.413
 1016SOL    HW2 4823   3.713   2.304   7.413
 1017SOL     OW 4824  11.994  12.923   1.999
 1017SOL    HW1 4825  11.976  12.971   1.918
 1017SOL    HW2 4826  11.909  12.892   2.029
 1018SOL     OW 4827   6.870   1.143   5.853
 1018SOL    HW1 4828   6.937   1.211   5.846
 1018SOL    HW2 4829   6.793   1.188   5.887
 1019SOL     OW 4830   3.655   2.961   0.186
 1019SOL    HW1 4831   3.702   2.984   0.266
 1019SOL    HW2 4832   3.716   2.983   0.115
 1020SOL     OW 4833   6.299  11.924   4.198
 1020SOL    HW1 4834   6.319  11.859   4.131
 1020SOL    HW2 4835   6.382  11.939   4.242
 1021SOL     OW 4836   2.464  13.493   4.067
 1021SOL    HW1 4837   2.546  13.528   4.033
 1021SOL    HW2 4838   2.443  13.551   4.141
 1022SOL     OW 4839  14.646   1.438  10.299
 1022SOL    HW1 4840  14.733   1.431  10.338
 1022SOL    HW2 4841  14.660   1.480  10.214
 1023SOL     OW 4842   0.844  13.031  14.523
 1023SOL    HW1 4843   0.831  13.047  14.617
 1023SOL    HW2 4844   0.838  12.936  14.514
 1024SOL     OW 4845   7.696   4.662  10.496
 1024SOL    HW1 4846   7.753   4.659  10.420
 1024SOL    HW2 4847   7.748   4.707  10.563
 1025SOL     OW 4848   7.214   7.822  10.620
 1025SOL    HW1 4849   7.278   7.850  10.686
 1025SOL    HW2 4850   7.228   7.882  10.547
 1026SOL     OW 4851   0.616  10.224  12.825
 1026SOL    HW1 4852   0.587  10.136  12.805
 1026SOL    HW2 4853   0.558  10.254  12.895
 1027SOL     OW 4854   9.292  10.067   5.715
 1027SOL    HW1 4855   9.376  10.053   5.672
 1027SOL    HW2 4856   9.229  10.073   5.643
 1028SOL     OW 4857   8.522   3.927  14.565
 1028SOL    HW1 4858   8.479   3.976  14.634
 1028SOL    HW2 4859   8.451   3.902  14.506
 1029SOL     OW 4860   5.326   3.269  11.084
 1029SOL    HW1 4861   5.251   3.259  11.026
 1029SOL    HW2 4862   5.372   3.346  11.052
 1030SOL     OW 4863   7.327   2.239   7.551
 1030SOL    HW1 4864   7.279   2.264   7.630
 1030SOL    HW2 4865   7.342   2.321   7.505
 1031SOL     OW 4866  12.574   7.159  13.191
 1031SOL    HW1 4867  12.613   7.206  13.265
 1031SOL    HW2 4868  12.565   7.225  13.123
 1032SOL     OW 4869   7.196   1.114  13.946
 1032SOL    HW1 4870   7.197   1.095  14.040
 1032SOL    HW2 4871   7.282   1.085  13.915
 1033SOL     OW 4872   8.469   6.211   4.944
 1033SOL    HW1 4873   8.389   6.162   4.927
 1033SOL    HW2 4874   8.530   6.181   4.876
 1034SOL     OW 4875   6.950  13.775   7.978
 1034SOL    HW1 4876   6.947  13.734   8.064
 1034SOL    HW2 4877   7.028  13.830   7.980
 1035SOL     OW 4878   6.219   9.959  12.793
 1035SOL    HW1 4879   6.266   9.933  12.872
 1035SOL    HW2 4880   6.271   9.923  12.721
 1036SOL     OW 4881   3.311   9.458   0.535
 1036SOL    HW1 4882   3.349   9.440   0.621
 1036SOL    HW2 4883   3.348   9.390   0.478
 1037SOL     OW 4884   2.759   8.804  14.575
 1037SOL    HW1 4885   2.829   8.851  14.529
 1037SOL    HW2 4886   2.805   8.738  14.628
 1038SOL     OW 4887  14.173   4.480   9.924
 1038SOL    HW1 4888  14.176   4.524   9.840
 1038SOL    HW2 4889  14.173   4.551   9.989
 1039SOL     OW 4890   1.519  14.841  13.556
 1039SOL    HW1 4891   1.515  14.746  13.564
 1039SOL    HW2 4892   1.612  14.861  13.550
 1040SOL     OW 4893  11.782   4.188   3.410
 1040SOL    HW1 4894  11.870   4.151   3.417
 1040SOL    HW2 4895  11.726   4.112   3.395
 1041SOL     OW 4896  12.848  12.602   1.287
 1041SOL    HW1 4897  12.905  12.534   1.250
 1041SOL    HW2 4898  12.763  12.559   1.297
 1042SOL     OW 4899   5.920  10.078   9.336
 1042SOL    HW1 4900   6.009  10.085   9.371
 1042SOL    HW2 4901   5.930  10.094   9.242
 1043SOL     OW 4902  11.454   4.211  10.288
 1043SOL    HW1 4903  11.457   4.297  10.331
 1043SOL    HW2 4904  11.490   4.151  10.354
 1044SOL     OW 4905  14.272  13.770  14.074
 1044SOL    HW1 4906  14.304  13.803  14.158
 1044SOL    HW2 4907  14.191  13.724  14.096
 1045SOL     OW 4908   9.235   8.044  11.551
 1045SOL    HW1 4909   9.211   8.084  11.634
 1045SOL    HW2 4910   9.325   8.012  11.564
 1046SOL     OW 4911   5.489  11.781  10.237
 1046SOL    HW1 4912   5.511  11.817  10.323
 1046SOL    HW2 4913   5.394  11.789  10.231
 1047SOL     OW 4914   1.388   2.443   8.745
 1047SOL    HW1 4915   1.298   2.469   8.726
 1047SOL    HW2 4916   1.443   2.512   8.708
 1048SOL     OW 4917   1.601   7.115   1.518
 1048SOL    HW1 4918   1.599   7.151   1.430
 1048SOL    HW2 4919   1.604   7.020   1.506
 1049SOL     OW 4920   8.626  13.262   4.176
 1049SOL    HW1 4921   8.636  13.285   4.083
 1049SOL    HW2 4922   8.715  13.245   4.206
 1050SOL     OW 4923   3.779   0.410  11.280
 1050SOL    HW1 4924   3.845   0.479  11.268
 1050SOL    HW2 4925   3.741   0.398  11.193
 1051SOL     OW 4926  10.840   6.348   7.724
 1051SOL    HW1 4927  10.916   6.339   7.666
 1051SOL    HW2 4928  10.833   6.442   7.741
 1052SOL     OW 4929  10.695  11.116   0.731
 1052SOL    HW1 4930  10.660  11.100   0.644
 1052SOL    HW2 4931  10.758  11.045   0.745
 1053SOL     OW 4932   4.194   0.170   1.771
 1053SOL    HW1 4933   4.270   0.144   1.719
 1053SOL    HW2 4934   4.142   0.225   1.712
 1054SOL     OW 4935  13.461   2.659   1.463
 1054SOL    HW1 4936  13.485   2.742   1.423
 1054SOL    HW2 4937  13.454   2.679   1.557
 1055SOL     OW 4938   8.586  14.115   4.942
 1055SOL    HW1 4939   8.580  14.197   4.991
 1055SOL    HW2 4940   8.621  14.142   4.857
 1056SOL     OW 4941   2.414  13.420   2.109
 1056SOL    HW1 4942   2.449  13.346   2.159
 1056SOL    HW2 4943   2.441  13.497   2.160
 1057SOL     OW 4944   8.684   2.864   3.401
 1057SOL    HW1 4945   8.777   2.886   3.400
 1057SOL    HW2 4946   8.681   2.770   3.387
 1058SOL     OW 4947   3.918   2.529   4.648
 1058SOL    HW1 4948   4.011   2.515   4.668
 1058SOL    HW2 4949   3.911   2.623   4.631
 1059SOL     OW 4950  12.013  13.886   4.806
 1059SOL    HW1 4951  11.942  13.837   4.765
 1059SOL    HW2 4952  12.050  13.939   4.735
 1060SOL     OW 4953  12.247   1.510   7.205
 1060SOL    HW1 4954  12.192   1.516   7.127
 1060SOL    HW2 4955  12.336   1.509   7.171
 1061SOL     OW 4956  12.021  10.535   5.451
 1061SOL    HW1 4957  12.001  10.482   5.528
 1061SOL    HW2 4958  11.935  10.559   5.415
 1062SOL     OW 4959   9.183   0.310  14.048
 1062SOL    HW1 4960   9.203   0.221  14.019
 1062SOL    HW2 4961   9.101   0.301  14.097
 1063SOL     OW 4962   5.549   3.062  13.273
 1063SOL    HW1 4963   5.568   3.083  13.365
 1063SOL    HW2 4964   5.471   3.006  13.277
 1064SOL     OW 4965   5.872   4.859  14.638
 1064SOL    HW1 4966   5.923   4.936  14.662
 1064SOL    HW2 4967   5.928   4.785  14.662
 1065SOL     OW 4968  14.850  13.725  13.839
 1065SOL    HW1 4969  14.831  13.782  13.764
 1065SOL    HW2 4970   0.001  13.643  13.799
 1066SOL     OW 4971  11.066  12.339   7.593
 1066SOL    HW1 4972  11.147  12.388   7.578
 1066SOL    HW2 4973  11.093  12.266   7.650
 1067SOL     OW 4974   9.304   1.115   5.547
 1067SOL    HW1 4975   9.250   1.187   5.514
 1067SOL    HW2 4976   9.263   1.091   5.630
 1068SOL     OW 4977   1.797  10.909   0.524
 1068SOL    HW1 4978   1.814  10.827   0.570
 1068SOL    HW2 4979   1.702  10.907   0.508
 1069SOL     OW 4980   1.227   9.848   0.706
 1069SOL    HW1 4981   1.189   9.889   0.628
 1069SOL    HW2 4982   1.152   9.813   0.754
 1070SOL     OW 4983   6.595   4.186  10.749
 1070SOL    HW1 4984   6.584   4.148  10.662
 1070SOL    HW2 4985   6.505   4.204  10.778
 1071SOL     OW 4986   9.563   6.622   9.300
 1071SOL    HW1 4987   9.548   6.576   9.218
 1071SOL    HW2 4988   9.585   6.553   9.362
 1072SOL     OW 4989   2.185  10.862   1.908
 1072SOL    HW1 4990   2.225  10.783   1.872
 1072SOL    HW2 4991   2.214  10.932   1.849
 1073SOL     OW 4992   0.483   6.630   2.220
 1073SOL    HW1 4993   0.507   6.538   2.231
 1073SOL    HW2 4994   0.563   6.678   2.242
 1074SOL     OW 4995  10.407  12.960   7.435
 1074SOL    HW1 4996  10.500  12.956   7.455
 1074SOL    HW2 4997  10.373  12.876   7.467
 1075SOL     OW 4998  13.526  12.321  12.416
 1075SOL    HW1 4999  13.597  12.367  12.462
 1075SOL    HW2 5000  13.523  12.363  12.330
 1076SOL     OW 5001   1.651  11.243   6.594
 1076SOL    HW1 5002   1.580  11.203   6.645
 1076SOL    HW2 5003   1.641  11.206   6.506
 1077SOL     OW 5004   4.972   1.694   6.725
 1077SOL    HW1 5005   4.935   1.771   6.681
 1077SOL    HW2 5006   5.062   1.720   6.745
 1078SOL     OW 5007   1.375  13.648   6.235
 1078SOL    HW1 5008   1.292  13.624   6.276
 1078SOL    HW2 5009   1.353  13.723   6.180
 1079SOL     OW 5010   9.333   7.628   5.688
 1079SOL    HW1 5011   9.369   7.702   5.736
 1079SOL    HW2 5012   9.330   7.658   5.597
 1080SOL     OW 5013   4.935   6.785   0.472
 1080SOL    HW1 5014   4.860   6.818   0.522
 1080SOL    HW2 5015   4.961   6.705   0.517
 1081SOL     OW 5016  10.473  13.931  13.153
 1081SOL    HW1 5017  10.528  14.009  13.165
 1081SOL    HW2 5018  10.459  13.926  13.058
 1082SOL     OW 5019  11.735  14.655   7.858
 1082SOL    HW1 5020  11.762  14.746   7.869
 1082SOL    HW2 5021  11.812  14.604   7.885
 1083SOL     OW 5022   8.473  10.469   2.191
 1083SOL    HW1 5023   8.456  10.424   2.108
 1083SOL    HW2 5024   8.403  10.439   2.249
 1084SOL     OW 5025   3.476   2.033  11.036
 1084SOL    HW1 5026   3.439   2.121  11.039
 1084SOL    HW2 5027   3.462   1.998  11.125
 1085SOL     OW 5028   1.812   7.033  11.353
 1085SOL    HW1 5029   1.766   7.027  11.270
 1085SOL    HW2 5030   1.744   7.057  11.417
 1086SOL     OW 5031  11.223   0.884  13.110
 1086SOL    HW1 5032  11.257   0.795  13.123
 1086SOL    HW2 5033  11.179   0.905  13.193
 1087SOL     OW 5034   2.338   4.161  14.330
 1087SOL    HW1 5035   2.353   4.221  14.257
 1087SOL    HW2 5036   2.355   4.074  14.293
 1088SOL     OW 5037   2.994   2.725  12.085
 1088SOL    HW1 5038   2.993   2.711  12.179
 1088SOL    HW2 5039   2.939   2.803  12.071
 1089SOL     OW 5040   9.213  13.168   2.506
 1089SOL    HW1 5041   9.242  13.240   2.561
 1089SOL    HW2 5042   9.284  13.104   2.509
 1090SOL     OW 5043  10.581   7.651  13.631
 1090SOL    HW1 5044  10.670   7.623  13.652
 1090SOL    HW2 5045  10.581   7.660  13.536
 1091SOL     OW 5046   1.606  12.701  11.346
 1091SOL    HW1 5047   1.556  12.659  11.276
 1091SOL    HW2 5048   1.540  12.730  11.409
 1092SOL     OW 5049   7.842   1.917   7.301
 1092SOL    HW1 5050   7.863   2.010   7.293
 1092SOL    HW2 5051   7.778   1.901   7.231
 1093SOL     OW 5052   3.820  13.930   2.506
 1093SOL    HW1 5053   3.726  13.916   2.521
 1093SOL    HW2 5054   3.827  13.945   2.412
 1094SOL     OW 5055   4.676  12.719   2.438
 1094SOL    HW1 5056   4.719  12.692   2.520
 1094SOL    HW2 5057   4.669  12.814   2.445
 1095SOL     OW 5058   4.147   9.865   4.270
 1095SOL    HW1 5059   4.078   9.809   4.234
 1095SOL    HW2 5060   4.166   9.928   4.201
 1096SOL     OW 5061  12.802   1.126   6.673
 1096SOL    HW1 5062  12.792   1.040   6.714
 1096SOL    HW2 5063  12.814   1.186   6.746
 1097SOL     OW 5064   7.962  12.225   0.280
 1097SOL    HW1 5065   7.947  12.280   0.358
 1097SOL    HW2 5066   7.929  12.278   0.207
 1098SOL     OW 5067  13.887   0.392  10.373
 1098SOL    HW1 5068  13.835   0.470  10.353
 1098SOL    HW2 5069  13.968   0.404  10.324
 1099SOL     OW 5070  12.311   1.072   0.390
 1099SOL    HW1 5071  12.330   1.016   0.315
 1099SOL    HW2 5072  12.389   1.127   0.399
 1100SOL     OW 5073   0.508   4.486  13.658
 1100SOL    HW1 5074   0.433   4.539  13.686
 1100SOL    HW2 5075   0.475   4.436  13.583
 1101SOL     OW 5076   5.959  14.612  12.174
 1101SOL    HW1 5077   5.924  14.524  12.187
 1101SOL    HW2 5078   5.882  14.668  12.166
 1102SOL     OW 5079  11.343  13.042   3.147
 1102SOL    HW1 5080  11.410  13.081   3.203
 1102SOL    HW2 5081  11.387  12.969   3.104
 1103SOL     OW 5082  12.934   1.734   0.347
 1103SOL    HW1 5083  12.918   1.743   0.253
 1103SOL    HW2 5084  12.901   1.646   0.368
 1104SOL     OW 5085   3.097   1.304   2.347
 1104SOL    HW1 5086   3.004   1.290   2.330
 1104SOL    HW2 5087   3.134   1.330   2.263
 1105SOL     OW 5088   7.213  10.522   0.524
 1105SOL    HW1 5089   7.227  10.593   0.462
 1105SOL    HW2 5090   7.252  10.554   0.606
 1106SOL     OW 5091   8.377  10.576   6.612
 1106SOL    HW1 5092   8.383  10.668   6.587
 1106SOL    HW2 5093   8.365  10.577   6.707
 1107SOL     OW 5094   8.751   1.122   8.468
 1107SOL    HW1 5095   8.843   1.128   8.495
 1107SOL    HW2 5096   8.745   1.181   8.393
 1108SOL     OW 5097   0.939  11.719   3.890
 1108SOL    HW1 5098   0.895  11.636   3.909
 1108SOL    HW2 5099   0.877  11.786   3.919
 1109SOL     OW 5100   3.894  12.526   3.343
 1109SOL    HW1 5101   3.930  12.544   3.256
 1109SOL    HW2 5102   3.867  12.612   3.376
 1110SOL     OW 5103   9.996   3.344   2.938
 1110SOL    HW1 5104  10.034   3.355   2.851
 1110SOL    HW2 5105  10.068   3.311   2.992
 1111SOL     OW 5106  14.140   6.254  11.937
 1111SOL    HW1 5107  14.047   6.269  11.952
 1111SOL    HW2 5108  14.172   6.336  11.898
 1112SOL     OW 5109   4.524   9.338  11.976
 1112SOL    HW1 5110   4.474   9.267  11.936
 1112SOL    HW2 5111   4.459   9.405  11.995
 1113SOL     OW 5112  13.577   8.917   5.691
 1113SOL    HW1 5113  13.652   8.912   5.750
 1113SOL    HW2 5114  13.614   8.919   5.603
 1114SOL     OW 5115   1.896   7.449   2.857
 1114SOL    HW1 5116   1.888   7.520   2.793
 1114SOL    HW2 5117   1.948   7.382   2.812
 1115SOL     OW 5118   8.025   3.338  13.880
 1115SOL    HW1 5119   7.982   3.253  13.876
 1115SOL    HW2 5120   7.960   3.396  13.920
 1116SOL     OW 5121   4.355   7.453  13.440
 1116SOL    HW1 5122   4.366   7.513  13.513
 1116SOL    HW2 5123   4.321   7.507  13.369
 1117SOL     OW 5124   9.591   5.795   5.178
 1117SOL    HW1 5125   9.682   5.793   5.150
 1117SOL    HW2 5126   9.546   5.735   5.118
 1118SOL     OW 5127   0.772  10.710   1.388
 1118SOL    HW1 5128   0.829  10.781   1.419
 1118SOL    HW2 5129   0.803  10.633   1.437
 1119SOL     OW 5130   3.088   0.386  10.931
 1119SOL    HW1 5131   3.164   0.421  10.885
 1119SOL    HW2 5132   3.013   0.413  10.878
 1120SOL     OW 5133   2.306   4.298   3.854
 1120SOL    HW1 5134   2.334   4.389   3.845
 1120SOL    HW2 5135   2.366   4.248   3.800
 1121SOL     OW 5136   0.872  13.534   0.278
 1121SOL    HW1 5137   0.808  13.464   0.290
 1121SOL    HW2 5138   0.951  13.489   0.247
 1122SOL     OW 5139   0.348   2.146   9.927
 1122SOL    HW1 5140   0.411   2.078   9.903
 1122SOL    HW2 5141   0.393   2.198   9.994
 1123SOL     OW 5142   2.245   8.607   1.194
 1123SOL    HW1 5143   2.153   8.622   1.173
 1123SOL    HW2 5144   2.243   8.548   1.270
 1124SOL     OW 5145   6.175   0.369   2.602
 1124SOL    HW1 5146   6.214   0.437   2.658
 1124SOL    HW2 5147   6.081   0.377   2.617
 1125SOL     OW 5148  14.372   5.722  10.544
 1125SOL    HW1 5149  14.372   5.645  10.602
 1125SOL    HW2 5150  14.318   5.696  10.470
 1126SOL     OW 5151  13.687   6.834   6.811
 1126SOL    HW1 5152  13.765   6.852   6.865
 1126SOL    HW2 5153  13.620   6.810   6.875
 1127SOL     OW 5154   9.877   0.621   2.021
 1127SOL    HW1 5155   9.956   0.654   2.064
 1127SOL    HW2 5156   9.808   0.632   2.088
 1128SOL     OW 5157   1.119   7.873   5.121
 1128SOL    HW1 5158   1.146   7.782   5.132
 1128SOL    HW2 5159   1.198   7.923   5.144
 1129SOL     OW 5160   8.415   7.683  12.234
 1129SOL    HW1 5161   8.452   7.596  12.218
 1129SOL    HW2 5162   8.431   7.731  12.152
 1130SOL     OW 5163   4.183  12.340   1.638
 1130SOL    HW1 5164   4.181  12.304   1.550
 1130SOL    HW2 5165   4.161  12.433   1.626
 1131SOL     OW 5166  10.674  12.612   4.678
 1131SOL    HW1 5167  10.610  12.674   4.714
 1131SOL    HW2 5168  10.631  12.526   4.685
 1132SOL     OW 5169   6.316  13.605   1.442
 1132SOL    HW1 5170   6.245  13.622   1.503
 1132SOL    HW2 5171   6.304  13.514   1.414
 1133SOL     OW 5172   1.088  10.520   6.885
 1133SOL    HW1 5173   1.136  10.599   6.862
 1133SOL    HW2 5174   1.097  10.512   6.980
 1134SOL     OW 5175  14.720   5.450  12.297
 1134SOL    HW1 5176  14.693   5.482  12.383
 1134SOL    HW2 5177  14.722   5.528  12.242
 1135SOL     OW 5178   9.593   1.045  12.016
 1135SOL    HW1 5179   9.602   1.139  12.001
 1135SOL    HW2 5180   9.499   1.031  12.029
 1136SOL     OW 5181   6.155  11.235  13.231
 1136SOL    HW1 5182   6.158  11.232  13.326
 1136SOL    HW2 5183   6.069  11.275  13.211
 1137SOL     OW 5184   4.846  14.559  11.344
 1137SOL    HW1 5185   4.910  14.488  11.335
 1137SOL    HW2 5186   4.891  14.624  11.398
 1138SOL     OW 5187  13.123   5.815  13.218
 1138SOL    HW1 5188  13.047   5.848  13.267
 1138SOL    HW2 5189  13.188   5.885  13.225
 1139SOL     OW 5190  12.844   2.613   2.386
 1139SOL    HW1 5191  12.761   2.637   2.428
 1139SOL    HW2 5192  12.829   2.524   2.354
 1140SOL     OW 5193   0.033   2.382  10.448
 1140SOL    HW1 5194   0.057   2.428  10.528
 1140SOL    HW2 5195   0.046   2.446  10.378
 1141SOL     OW 5196   8.474   4.411   8.759
 1141SOL    HW1 5197   8.385   4.445   8.748
 1141SOL    HW2 5198   8.524   4.451   8.687
 1142SOL     OW 5199  10.719  14.545   6.876
 1142SOL    HW1 5200  10.772  14.606   6.825
 1142SOL    HW2 5201  10.632  14.584   6.878
 1143SOL     OW 5202  11.039  10.904  10.478
 1143SOL    HW1 5203  11.110  10.919  10.414
 1143SOL    HW2 5204  10.971  10.965  10.452
 1144SOL     OW 5205   9.856   9.335   5.301
 1144SOL    HW1 5206   9.797   9.262   5.318
 1144SOL    HW2 5207   9.803   9.397   5.250
 1145SOL     OW 5208  12.985   6.721   7.767
 1145SOL    HW1 5209  12.999   6.744   7.858
 1145SOL    HW2 5210  12.901   6.675   7.766
 1146SOL     OW 5211   2.358   4.615  10.082
 1146SOL    HW1 5212   2.394   4.527  10.072
 1146SOL    HW2 5213   2.435   4.672  10.084
 1147SOL     OW 5214   1.682  13.883   6.420
 1147SOL    HW1 5215   1.615  13.951   6.433
 1147SOL    HW2 5216   1.741  13.894   6.494
 1148SOL     OW 5217   6.930   4.891  12.297
 1148SOL    HW1 5218   6.852   4.946  12.298
 1148SOL    HW2 5219   6.930   4.847  12.382
 1149SOL     OW 5220  13.709   3.373  10.922
 1149SOL    HW1 5221  13.802   3.358  10.943
 1149SOL    HW2 5222  13.692   3.463  10.952
 1150SOL     OW 5223   7.121   4.008   9.689
 1150SOL    HW1 5224   7.033   3.986   9.721
 1150SOL    HW2 5225   7.164   3.923   9.680
 1151SOL     OW 5226   1.032   7.427   2.506
 1151SOL    HW1 5227   1.075   7.511   2.488
 1151SOL    HW2 5228   0.957   7.425   2.447
 1152SOL     OW 5229   4.209  12.112  12.430
 1152SOL    HW1 5230   4.178  12.058  12.503
 1152SOL    HW2 5231   4.187  12.061  12.352
 1153SOL     OW 5232   1.611   2.728   5.876
 1153SOL    HW1 5233   1.599   2.655   5.814
 1153SOL    HW2 5234   1.664   2.691   5.946
 1154SOL     OW 5235   4.325   1.096   0.653
 1154SOL    HW1 5236   4.373   1.016   0.670
 1154SOL    HW2 5237   4.241   1.084   0.697
 1155SOL     OW 5238   1.624   4.249  10.328
 1155SOL    HW1 5239   1.690   4.204  10.380
 1155SOL    HW2 5240   1.556   4.273  10.390
 1156SOL     OW 5241   5.086  13.021  12.280
 1156SOL    HW1 5242   5.105  13.016  12.186
 1156SOL    HW2 5243   5.172  13.025  12.322
 1157SOL     OW 5244   7.026   8.506  14.704
 1157SOL    HW1 5245   6.980   8.531  14.784
 1157SOL    HW2 5246   6.980   8.553  14.634
 1158SOL     OW 5247   6.690   2.573   9.859
 1158SOL    HW1 5248   6.643   2.574   9.776
 1158SOL    HW2 5249   6.621   2.574   9.925
 1159SOL     OW 5250   5.802   9.654   9.024
 1159SOL    HW1 5251   5.778   9.711   9.097
 1159SOL    HW2 5252   5.750   9.688   8.950
 1160SOL     OW 5253   9.015  14.354   8.396
 1160SOL    HW1 5254   9.010  14.298   8.473
 1160SOL    HW2 5255   9.085  14.315   8.342
 1161SOL     OW 5256   1.323   1.370  13.246
 1161SOL    HW1 5257   1.408   1.327  13.239
 1161SOL    HW2 5258   1.317   1.396  13.338
 1162SOL     OW 5259   2.017   5.068  11.622
 1162SOL    HW1 5260   1.931   5.054  11.583
 1162SOL    HW2 5261   2.060   4.982  11.619
 1163SOL     OW 5262  13.829   3.105   9.796
 1163SOL    HW1 5263  13.827   3.101   9.700
 1163SOL    HW2 5264  13.851   3.016   9.823
 1164SOL     OW 5265   6.933   8.165   9.780
 1164SOL    HW1 5266   6.904   8.081   9.743
 1164SOL    HW2 5267   6.869   8.185   9.848
 1165SOL     OW 5268   5.017   1.687   9.740
 1165SOL    HW1 5269   5.013   1.610   9.684
 1165SOL    HW2 5270   4.947   1.744   9.706
 1166SOL     OW 5271   9.554  14.165   1.866
 1166SOL    HW1 5272   9.570  14.092   1.926
 1166SOL    HW2 5273   9.641  14.187   1.832
 1167SOL     OW 5274   6.312   5.553   5.336
 1167SOL    HW1 5275   6.225   5.583   5.361
 1167SOL    HW2 5276   6.306   5.457   5.340
 1168SOL     OW 5277  14.209  13.536   3.838
 1168SOL    HW1 5278  14.212  13.627   3.807
 1168SOL    HW2 5279  14.238  13.485   3.763
 1169SOL     OW 5280   8.917  11.786   1.586
 1169SOL    HW1 5281   8.829  11.822   1.595
 1169SOL    HW2 5282   8.964  11.817   1.664
 1170SOL     OW 5283   7.292   8.170   2.524
 1170SOL    HW1 5284   7.355   8.123   2.578
 1170SOL    HW2 5285   7.310   8.263   2.541
 1171SOL     OW 5286   3.183  10.829   8.202
 1171SOL    HW1 5287   3.277  10.825   8.222
 1171SOL    HW2 5288   3.141  10.786   8.277
 1172SOL     OW 5289  11.883   0.001   0.489
 1172SOL    HW1 5290  11.788   0.012   0.492
 1172SOL    HW2 5291  11.896  14.785   0.495
 1173SOL     OW 5292   9.194   7.493  11.711
 1173SOL    HW1 5293   9.126   7.559  11.700
 1173SOL    HW2 5294   9.233   7.512  11.796
 1174SOL     OW 5295   8.452   2.431   9.701
 1174SOL    HW1 5296   8.461   2.455   9.793
 1174SOL    HW2 5297   8.359   2.438   9.683
 1175SOL     OW 5298   8.484   3.427  11.023
 1175SOL    HW1 5299   8.545   3.361  10.992
 1175SOL    HW2 5300   8.521   3.457  11.106
 1176SOL     OW 5301   0.344   6.062   3.397
 1176SOL    HW1 5302   0.281   6.012   3.449
 1176SOL    HW2 5303   0.418   6.077   3.455
 1177SOL     OW 5304   2.070   3.750  11.161
 1177SOL    HW1 5305   2.130   3.679  11.141
 1177SOL    HW2 5306   2.126   3.821  11.192
 1178SOL     OW 5307   3.580   1.993   2.730
 1178SOL    HW1 5308   3.622   1.921   2.685
 1178SOL    HW2 5309   3.575   1.965   2.822
 1179SOL     OW 5310   8.003  14.582   9.036
 1179SOL    HW1 5311   8.047  14.498   9.052
 1179SOL    HW2 5312   8.066  14.632   8.984
 1180SOL     OW 5313   3.582   7.758   0.372
 1180SOL    HW1 5314   3.523   7.753   0.448
 1180SOL    HW2 5315   3.540   7.702   0.306
 1181SOL     OW 5316  13.112   7.795   0.921
 1181SOL    HW1 5317  13.192   7.797   0.974
 1181SOL    HW2 5318  13.102   7.884   0.889
 1182SOL     OW 5319   3.702  11.737   4.959
 1182SOL    HW1 5320   3.703  11.823   4.916
 1182SOL    HW2 5321   3.637  11.746   5.028
 1183SOL     OW 5322   5.860  10.161   0.897
 1183SOL    HW1 5323   5.841  10.068   0.891
 1183SOL    HW2 5324   5.817  10.190   0.977
 1184SOL     OW 5325   0.148  13.934   3.587
 1184SOL    HW1 5326   0.188  13.987   3.656
 1184SOL    HW2 5327   0.120  13.854   3.631
 1185SOL     OW 5328   6.827   2.319   0.511
 1185SOL    HW1 5329   6.814   2.238   0.561
 1185SOL    HW2 5330   6.909   2.306   0.464
 1186SOL     OW 5331   9.434   2.027   9.912
 1186SOL    HW1 5332   9.341   2.030   9.887
 1186SOL    HW2 5333   9.433   2.037  10.007
 1187SOL     OW 5334   9.457   9.101   1.145
 1187SOL    HW1 5335   9.381   9.145   1.183
 1187SOL    HW2 5336   9.430   9.078   1.056
 1188SOL     OW 5337   9.246  12.637   3.792
 1188SOL    HW1 5338   9.213  12.672   3.874
 1188SOL    HW2 5339   9.169  12.635   3.734
 1189SOL     OW 5340   5.541  12.264   2.776
 1189SOL    HW1 5341   5.538  12.172   2.749
 1189SOL    HW2 5342   5.635  12.284   2.781
 1190SOL     OW 5343   3.384   8.741  12.771
 1190SOL    HW1 5344   3.446   8.679  12.733
 1190SOL    HW2 5345   3.333   8.772  12.696
 1191SOL     OW 5346   3.688  10.987  12.648
 1191SOL    HW1 5347   3.710  10.955  12.560
 1191SOL    HW2 5348   3.692  11.082  12.640
 1192SOL     OW 5349  13.024   4.355   7.895
 1192SOL    HW1 5350  13.102   4.406   7.914
 1192SOL    HW2 5351  13.033   4.329   7.804
 1193SOL     OW 5352   5.470   8.060  13.399
 1193SOL    HW1 5353   5.509   8.024  13.319
 1193SOL    HW2 5354   5.454   8.152  13.378
 1194SOL     OW 5355   1.409   8.018  10.929
 1194SOL    HW1 5356   1.318   7.992  10.917
 1194SOL    HW2 5357   1.419   8.030  11.023
 1195SOL     OW 5358  12.949   2.906   8.112
 1195SOL    HW1 5359  12.975   2.990   8.150
 1195SOL    HW2 5360  12.978   2.841   8.175
 1196SOL     OW 5361   3.223   0.793   8.570
 1196SOL    HW1 5362   3.282   0.769   8.499
 1196SOL    HW2 5363   3.281   0.817   8.642
 1197SOL     OW 5364  10.863  13.361   0.178
 1197SOL    HW1 5365  10.943  13.309   0.171
 1197SOL    HW2 5366  10.832  13.347   0.267
 1198SOL     OW 5367  10.276  14.075  12.910
 1198SOL    HW1 5368  10.328  14.004  12.873
 1198SOL    HW2 5369  10.206  14.031  12.958
 1199SOL     OW 5370  10.943   8.351  10.244
 1199SOL    HW1 5371  10.951   8.411  10.319
 1199SOL    HW2 5372  11.010   8.285  10.259
 1200SOL     OW 5373   1.160   9.029   1.494
 1200SOL    HW1 5374   1.072   9.056   1.520
 1200SOL    HW2 5375   1.155   9.018   1.399
 1201SOL     OW 5376   4.404  13.489  12.216
 1201SOL    HW1 5377   4.386  13.533  12.133
 1201SOL    HW2 5378   4.499  13.497  12.226
 1202SOL     OW 5379  12.722   0.692  13.682
 1202SOL    HW1 5380  12.702   0.598  13.691
 1202SOL    HW2 5381  12.704   0.729  13.768
 1203SOL     OW 5382   6.154  12.752   2.660
 1203SOL    HW1 5383   6.236  12.713   2.630
 1203SOL    HW2 5384   6.173  12.784   2.748
 1204SOL     OW 5385  10.387   9.120  12.307
 1204SOL    HW1 5386  10.478   9.107  12.278
 1204SOL    HW2 5387  10.380   9.067  12.387
 1205SOL     OW 5388  14.693  13.325  13.880
 1205SOL    HW1 5389  14.734  13.400  13.838
 1205SOL    HW2 5390  14.757  13.294  13.944
 1206SOL     OW 5391   0.486   3.199   4.024
 1206SOL    HW1 5392   0.501   3.287   4.058
 1206SOL    HW2 5393   0.392   3.194   4.009
 1207SOL     OW 5394   4.533  10.569   6.125
 1207SOL    HW1 5395   4.489  10.617   6.195
 1207SOL    HW2 5396   4.614  10.537   6.165
 1208SOL     OW 5397  13.978   4.529   5.331
 1208SOL    HW1 5398  14.000   4.447   5.376
 1208SOL    HW2 5399  13.883   4.526   5.320
 1209SOL     OW 5400   1.483   9.548  10.592
 1209SOL    HW1 5401   1.494   9.638  10.563
 1209SOL    HW2 5402   1.572   9.515  10.603
 1210SOL     OW 5403   9.366   7.140  11.119
 1210SOL    HW1 5404   9.376   7.221  11.069
 1210SOL    HW2 5405   9.429   7.080  11.080
 1211SOL     OW 5406   7.475   3.400   8.574
 1211SOL    HW1 5407   7.465   3.495   8.588
 1211SOL    HW2 5408   7.386   3.369   8.559
 1212SOL     OW 5409   6.684   9.569   9.021
 1212SOL    HW1 5410   6.673   9.484   8.977
 1212SOL    HW2 5411   6.621   9.627   8.978
 1213SOL     OW 5412  13.499  14.426  11.867
 1213SOL    HW1 5413  13.578  14.388  11.905
 1213SOL    HW2 5414  13.443  14.448  11.942
 1214SOL     OW 5415   0.240  13.039   9.634
 1214SOL    HW1 5416   0.205  13.023   9.546
 1214SOL    HW2 5417   0.242  13.134   9.642
 1215SOL     OW 5418  11.963   8.961   5.196
 1215SOL    HW1 5419  12.023   9.017   5.245
 1215SOL    HW2 5420  11.913   9.023   5.142
 1216SOL     OW 5421   0.953   4.817  13.488
 1216SOL    HW1 5422   0.860   4.832  13.504
 1216SOL    HW2 5423   0.998   4.884  13.539
 1217SOL     OW 5424   4.015  14.083   9.956
 1217SOL    HW1 5425   3.955  14.122  10.018
 1217SOL    HW2 5426   4.094  14.137   9.961
 1218SOL     OW 5427  14.531   2.107   7.354
 1218SOL    HW1 5428  14.472   2.115   7.279
 1218SOL    HW2 5429  14.533   2.194   7.392
 1219SOL     OW 5430   6.367  13.822   1.205
 1219SOL    HW1 5431   6.320  13.817   1.288
 1219SOL    HW2 5432   6.451  13.779   1.222
 1220SOL     OW 5433  11.652  10.777   8.149
 1220SOL    HW1 5434  11.733  10.809   8.187
 1220SOL    HW2 5435  11.655  10.682   8.162
 1221SOL     OW 5436   9.674   2.676   7.648
 1221SOL    HW1 5437   9.677   2.580   7.650
 1221SOL    HW2 5438   9.752   2.701   7.600
 1222SOL     OW 5439  13.728   8.732   1.439
 1222SOL    HW1 5440  13.770   8.791   1.376
 1222SOL    HW2 5441  13.758   8.645   1.412
 1223SOL     OW 5442   3.700   4.775  10.563
 1223SOL    HW1 5443   3.607   4.793  10.555
 1223SOL    HW2 5444   3.743   4.850  10.521
 1224SOL     OW 5445   6.472  10.730   5.489
 1224SOL    HW1 5446   6.463  10.817   5.528
 1224SOL    HW2 5447   6.416  10.674   5.543
 1225SOL     OW 5448   6.007   1.482  14.072
 1225SOL    HW1 5449   6.085   1.437  14.041
 1225SOL    HW2 5450   6.024   1.574  14.053
 1226SOL     OW 5451   1.132   7.680   2.062
 1226SOL    HW1 5452   1.044   7.651   2.039
 1226SOL    HW2 5453   1.129   7.776   2.054
 1227SOL     OW 5454  13.078   3.502  12.397
 1227SOL    HW1 5455  13.140   3.523  12.467
 1227SOL    HW2 5456  13.005   3.460  12.442
 1228SOL     OW 5457   2.511   4.275  13.388
 1228SOL    HW1 5458   2.417   4.271  13.403
 1228SOL    HW2 5459   2.537   4.361  13.421
 1229SOL     OW 5460   0.513  13.819  11.552
 1229SOL    HW1 5461   0.419  13.818  11.569
 1229SOL    HW2 5462   0.549  13.753  11.611
 1230SOL     OW 5463   5.168   2.242   7.443
 1230SOL    HW1 5464   5.187   2.336   7.443
 1230SOL    HW2 5465   5.073   2.237   7.455
 1231SOL     OW 5466  10.994   8.176   1.141
 1231SOL    HW1 5467  11.030   8.088   1.142
 1231SOL    HW2 5468  10.911   8.169   1.190
 1232SOL     OW 5469   3.801   1.773   3.043
 1232SOL    HW1 5470   3.784   1.699   3.101
 1232SOL    HW2 5471   3.847   1.837   3.097
 1233SOL     OW 5472   9.612   6.747   4.866
 1233SOL    HW1 5473   9.658   6.709   4.941
 1233SOL    HW2 5474   9.542   6.800   4.905
 1234SOL     OW 5475   5.301   9.408   9.286
 1234SOL    HW1 5476   5.386   9.443   9.313
 1234SOL    HW2 5477   5.242   9.429   9.359
 1235SOL     OW 5478   2.230   4.353  12.430
 1235SOL    HW1 5479   2.164   4.406  12.475
 1235SOL    HW2 5480   2.278   4.416  12.376
 1236SOL     OW 5481   0.613  13.919  11.024
 1236SOL    HW1 5482   0.619  13.825  11.042
 1236SOL    HW2 5483   0.577  13.957  11.104
 1237SOL     OW 5484   7.164  12.838   2.786
 1237SOL    HW1 5485   7.198  12.759   2.744
 1237SOL    HW2 5486   7.231  12.905   2.769
 1238SOL     OW 5487   3.885   6.437   0.528
 1238SOL    HW1 5488   3.878   6.505   0.594
 1238SOL    HW2 5489   3.797   6.432   0.489
 1239SOL     OW 5490  10.749   7.572   5.797
 1239SOL    HW1 5491  10.743   7.632   5.724
 1239SOL    HW2 5492  10.685   7.503   5.777
 1240SOL     OW 5493  10.711   4.692  10.063
 1240SOL    HW1 5494  10.807   4.698  10.065
 1240SOL    HW2 5495  10.681   4.782  10.077
 1241SOL     OW 5496  11.928   5.207  13.447
 1241SOL    HW1 5497  11.974   5.123  13.453
 1241SOL    HW2 5498  11.836   5.185  13.455
 1242SOL     OW 5499   1.406   8.671   5.202
 1242SOL    HW1 5500   1.412   8.729   5.278
 1242SOL    HW2 5501   1.471   8.706   5.141
 1243SOL     OW 5502  14.030   4.954   0.805
 1243SOL    HW1 5503  14.069   5.008   0.873
 1243SOL    HW2 5504  14.091   4.959   0.732
 1244SOL     OW 5505   4.663   2.339   6.554
 1244SOL    HW1 5506   4.658   2.433   6.537
 1244SOL    HW2 5507   4.708   2.303   6.477
 1245SOL     OW 5508   0.767   4.660   6.549
 1245SOL    HW1 5509   0.847   4.687   6.504
 1245SOL    HW2 5510   0.796   4.606   6.621
 1246SOL     OW 5511   8.045  11.331   8.397
 1246SOL    HW1 5512   7.977  11.394   8.419
 1246SOL    HW2 5513   8.073  11.294   8.481
 1247SOL     OW 5514   0.588   6.581  12.280
 1247SOL    HW1 5515   0.538   6.573  12.199
 1247SOL    HW2 5516   0.523   6.570  12.350
 1248SOL     OW 5517   2.963   1.740  10.786
 1248SOL    HW1 5518   2.942   1.829  10.813
 1248SOL    HW2 5519   2.896   1.719  10.721
 1249SOL     OW 5520   3.523   1.904  13.298
 1249SOL    HW1 5521   3.453   1.844  13.272
 1249SOL    HW2 5522   3.489   1.991  13.277
 1250SOL     OW 5523   3.177  14.111  11.386
 1250SOL    HW1 5524   3.242  14.089  11.320
 1250SOL    HW2 5525   3.208  14.067  11.465
 1251SOL     OW 5526   3.746   0.292  14.496
 1251SOL    HW1 5527   3.658   0.315  14.467
 1251SOL    HW2 5528   3.742   0.299  14.591
 1252SOL     OW 5529  12.340  12.428  14.295
 1252SOL    HW1 5530  12.319  12.336  14.279
 1252SOL    HW2 5531  12.402  12.427  14.368
 1253SOL     OW 5532   0.920   4.616  11.973
 1253SOL    HW1 5533   0.967   4.673  12.034
 1253SOL    HW2 5534   0.853   4.672  11.934
 1254SOL     OW 5535   9.787  10.842   1.633
 1254SOL    HW1 5536   9.776  10.771   1.697
 1254SOL    HW2 5537   9.875  10.875   1.650
 1255SOL     OW 5538  11.510   5.895  13.491
 1255SOL    HW1 5539  11.477   5.919  13.578
 1255SOL    HW2 5540  11.432   5.875  13.440
 1256SOL     OW 5541   8.380   4.007  12.010
 1256SOL    HW1 5542   8.471   3.983  12.025
 1256SOL    HW2 5543   8.341   3.928  11.973
 1257SOL     OW 5544  11.515  12.300   5.968
 1257SOL    HW1 5545  11.537  12.391   5.951
 1257SOL    HW2 5546  11.566  12.277   6.045
 1258SOL     OW 5547   2.454  12.080   8.263
 1258SOL    HW1 5548   2.454  12.025   8.184
 1258SOL    HW2 5549   2.421  12.164   8.234
 1259SOL     OW 5550   9.281   0.353  12.384
 1259SOL    HW1 5551   9.230   0.366  12.304
 1259SOL    HW2 5552   9.218   0.367  12.455
 1260SOL     OW 5553  11.194   4.399  14.558
 1260SOL    HW1 5554  11.129   4.468  14.545
 1260SOL    HW2 5555  11.190   4.380  14.651
 1261SOL     OW 5556   7.197   7.772   2.192
 1261SOL    HW1 5557   7.104   7.750   2.196
 1261SOL    HW2 5558   7.206   7.848   2.249
 1262SOL     OW 5559  10.058  13.675   6.043
 1262SOL    HW1 5560  10.055  13.759   6.090
 1262SOL    HW2 5561  10.051  13.698   5.951
 1263SOL     OW 5562  13.797   3.005   2.826
 1263SOL    HW1 5563  13.753   2.937   2.877
 1263SOL    HW2 5564  13.782   2.980   2.735
 1264SOL     OW 5565  10.657   3.171  11.897
 1264SOL    HW1 5566  10.731   3.179  11.957
 1264SOL    HW2 5567  10.654   3.255  11.852
 1265SOL     OW 5568   7.588   4.121   3.787
 1265SOL    HW1 5569   7.586   4.185   3.716
 1265SOL    HW2 5570   7.617   4.171   3.863
 1266SOL     OW 5571  10.421   2.714   7.812
 1266SOL    HW1 5572  10.390   2.699   7.723
 1266SOL    HW2 5573  10.363   2.782   7.846
 1267SOL     OW 5574  13.033   8.596   7.897
 1267SOL    HW1 5575  13.035   8.535   7.823
 1267SOL    HW2 5576  13.093   8.666   7.872
 1268SOL     OW 5577  14.791  12.869  14.483
 1268SOL    HW1 5578  14.725  12.924  14.526
 1268SOL    HW2 5579  14.754  12.781  14.484
 1269SOL     OW 5580  10.240   2.395  10.189
 1269SOL    HW1 5581  10.311   2.349  10.235
 1269SOL    HW2 5582  10.203   2.329  10.130
 1270SOL     OW 5583  10.925   3.531   6.173
 1270SOL    HW1 5584  10.887   3.500   6.091
 1270SOL    HW2 5585  10.866   3.600   6.203
 1271SOL     OW 5586  13.496  12.983  12.313
 1271SOL    HW1 5587  13.502  13.078  12.322
 1271SOL    HW2 5588  13.426  12.969  12.249
 1272SOL     OW 5589   4.515  10.314   0.824
 1272SOL    HW1 5590   4.437  10.367   0.812
 1272SOL    HW2 5591   4.564  10.324   0.743
 1273SOL     OW 5592   2.248  11.325   1.187
 1273SOL    HW1 5593   2.252  11.359   1.098
 1273SOL    HW2 5594   2.178  11.375   1.229
 1274SOL     OW 5595   9.989  10.045   7.331
 1274SOL    HW1 5596   9.976   9.968   7.276
 1274SOL    HW2 5597   9.919  10.105   7.306
 1275SOL     OW 5598   7.429  10.252  14.252
 1275SOL    HW1 5599   7.440  10.188  14.322
 1275SOL    HW2 5600   7.476  10.330  14.283
 1276SOL     OW 5601   1.598  14.171  14.093
 1276SOL    HW1 5602   1.627  14.136  14.177
 1276SOL    HW2 5603   1.503  14.181  14.102
 1277SOL     OW 5604  10.709   6.786  13.708
 1277SOL    HW1 5605  10.695   6.806  13.616
 1277SOL    HW2 5606  10.723   6.692  13.710
 1278SOL     OW 5607  11.832   9.784  11.047
 1278SOL    HW1 5608  11.915   9.768  11.091
 1278SOL    HW2 5609  11.857   9.811  10.958
 1279SOL     OW 5610  10.146  14.472  13.286
 1279SOL    HW1 5611  10.227  14.502  13.329
 1279SOL    HW2 5612  10.096  14.552  13.270
 1280SOL     OW 5613   5.733   4.681   8.142
 1280SOL    HW1 5614   5.721   4.609   8.080
 1280SOL    HW2 5615   5.819   4.663   8.182
 1281SOL     OW 5616  13.657  14.201   9.868
 1281SOL    HW1 5617  13.603  14.210   9.790
 1281SOL    HW2 5618  13.711  14.124   9.853
 1282SOL     OW 5619   0.857  12.358   5.456
 1282SOL    HW1 5620   0.952  12.371   5.458
 1282SOL    HW2 5621   0.846  12.265   5.436
 1283SOL     OW 5622   8.449   2.421   4.897
 1283SOL    HW1 5623   8.412   2.333   4.890
 1283SOL    HW2 5624   8.374   2.480   4.893
 1284SOL     OW 5625  13.668  12.146   0.655
 1284SOL    HW1 5626  13.698  12.168   0.742
 1284SOL    HW2 5627  13.606  12.074   0.668
 1285SOL     OW 5628   6.284  12.282  14.501
 1285SOL    HW1 5629   6.281  12.378  14.494
 1285SOL    HW2 5630   6.352  12.256  14.439
 1286SOL     OW 5631   7.109   2.299   3.715
 1286SOL    HW1 5632   7.060   2.310   3.634
 1286SOL    HW2 5633   7.195   2.268   3.687
 1287SOL     OW 5634  13.352  13.650   6.485
 1287SOL    HW1 5635  13.447  13.662   6.482
 1287SOL    HW2 5636  13.337  13.571   6.433
 1288SOL     OW 5637   8.156   6.476   1.977
 1288SOL    HW1 5638   8.204   6.425   2.043
 1288SOL    HW2 5639   8.088   6.415   1.946
 1289SOL     OW 5640   3.714  10.537   2.558
 1289SOL    HW1 5641   3.619  10.547   2.558
 1289SOL    HW2 5642   3.746  10.608   2.502
 1290SOL     OW 5643   2.942  12.297   7.479
 1290SOL    HW1 5644   2.883  12.221   7.482
 1290SOL    HW2 5645   2.979  12.295   7.391
 1291SOL     OW 5646  10.758   5.235  11.999
 1291SOL    HW1 5647  10.854   5.238  12.003
 1291SOL    HW2 5648  10.738   5.143  11.983
 1292SOL     OW 5649  10.890   8.122   8.617
 1292SOL    HW1 5650  10.796   8.129   8.632
 1292SOL    HW2 5651  10.902   8.035   8.580
 1293SOL     OW 5652   8.836   6.976   6.845
 1293SOL    HW1 5653   8.759   7.028   6.869
 1293SOL    HW2 5654   8.885   7.031   6.786
 1294SOL     OW 5655   3.417  14.051   3.231
 1294SOL    HW1 5656   3.361  14.051   3.153
 1294SOL    HW2 5657   3.489  14.110   3.209
 1295SOL     OW 5658  10.647   3.202   4.838
 1295SOL    HW1 5659  10.741   3.183   4.836
 1295SOL    HW2 5660  10.642   3.295   4.859
 1296SOL     OW 5661  14.633   5.894   1.404
 1296SOL    HW1 5662  14.622   5.799   1.407
 1296SOL    HW2 5663  14.672   5.911   1.318
 1297SOL     OW 5664   4.498  10.772  10.187
 1297SOL    HW1 5665   4.577  10.811  10.226
 1297SOL    HW2 5666   4.450  10.735  10.261
 1298SOL     OW 5667   8.001   1.030   9.240
 1298SOL    HW1 5668   7.976   1.068   9.156
 1298SOL    HW2 5669   7.948   1.076   9.305
 1299SOL     OW 5670   1.288   5.349   4.004
 1299SOL    HW1 5671   1.354   5.283   3.981
 1299SOL    HW2 5672   1.248   5.373   3.921
 1300SOL     OW 5673   1.606   9.248  14.830
 1300SOL    HW1 5674   1.605   9.344  14.821
 1300SOL    HW2 5675   1.649   9.233   0.036
 1301SOL     OW 5676   2.270   1.530   3.452
 1301SOL    HW1 5677   2.181   1.563   3.463
 1301SOL    HW2 5678   2.297   1.561   3.366
 1302SOL     OW 5679  12.329   5.670   1.515
 1302SOL    HW1 5680  12.340   5.637   1.604
 1302SOL    HW2 5681  12.406   5.638   1.468
 1303SOL     OW 5682  12.015   6.791   3.301
 1303SOL    HW1 5683  11.933   6.743   3.293
 1303SOL    HW2 5684  11.989   6.880   3.324
 1304SOL     OW 5685  11.904   6.252  13.811
 1304SOL    HW1 5686  11.916   6.171  13.860
 1304SOL    HW2 5687  11.845   6.305  13.864
 1305SOL     OW 5688   6.748  12.754   7.758
 1305SOL    HW1 5689   6.711  12.700   7.688
 1305SOL    HW2 5690   6.769  12.837   7.716
 1306SOL     OW 5691   0.441   3.813   4.078
 1306SOL    HW1 5692   0.494   3.764   4.016
 1306SOL    HW2 5693   0.364   3.758   4.093
 1307SOL     OW 5694   0.260   0.839   8.134
 1307SOL    HW1 5695   0.182   0.853   8.080
 1307SOL    HW2 5696   0.241   0.887   8.215
 1308SOL     OW 5697   6.547   9.451   2.735
 1308SOL    HW1 5698   6.632   9.486   2.764
 1308SOL    HW2 5699   6.510   9.411   2.813
 1309SOL     OW 5700   4.898   9.462   8.355
 1309SOL    HW1 5701   4.900   9.386   8.297
 1309SOL    HW2 5702   4.823   9.514   8.325
 1310SOL     OW 5703   2.592   3.071   8.580
 1310SOL    HW1 5704   2.649   3.062   8.504
 1310SOL    HW2 5705   2.651   3.089   8.653
 1311SOL     OW 5706  14.600   1.936   6.022
 1311SOL    HW1 5707  14.553   1.955   6.104
 1311SOL    HW2 5708  14.599   2.019   5.975
 1312SOL     OW 5709   9.256  10.805   0.675
 1312SOL    HW1 5710   9.307  10.858   0.613
 1312SOL    HW2 5711   9.166  10.833   0.662
 1313SOL     OW 5712   9.949   8.811   6.786
 1313SOL    HW1 5713   9.880   8.811   6.719
 1313SOL    HW2 5714   9.980   8.721   6.788
 1314SOL     OW 5715  12.524   9.339   1.238
 1314SOL    HW1 5716  12.438   9.348   1.198
 1314SOL    HW2 5717  12.573   9.415   1.207
 1315SOL     OW 5718   1.092  11.115   2.183
 1315SOL    HW1 5719   1.134  11.155   2.107
 1315SOL    HW2 5720   1.062  11.190   2.236
 1316SOL     OW 5721   1.306   0.281  12.801
 1316SOL    HW1 5722   1.339   0.333  12.874
 1316SOL    HW2 5723   1.257   0.210  12.843
 1317SOL     OW 5724   9.869   0.336   1.976
 1317SOL    HW1 5725   9.872   0.341   1.880
 1317SOL    HW2 5726   9.864   0.427   2.005
 1318SOL     OW 5727   6.512   0.773  13.866
 1318SOL    HW1 5728   6.455   0.819  13.928
 1318SOL    HW2 5729   6.590   0.828  13.859
 1319SOL     OW 5730   5.156  10.404   3.081
 1319SOL    HW1 5731   5.179  10.496   3.094
 1319SOL    HW2 5732   5.185  10.360   3.161
 1320SOL     OW 5733  13.269   9.895   6.255
 1320SOL    HW1 5734  13.326   9.952   6.204
 1320SOL    HW2 5735  13.208   9.955   6.298
 1321SOL     OW 5736   0.645  12.440   6.820
 1321SOL    HW1 5737   0.712  12.380   6.853
 1321SOL    HW2 5738   0.645  12.512   6.884
 1322SOL     OW 5739   2.873  13.100   6.733
 1322SOL    HW1 5740   2.849  13.173   6.675
 1322SOL    HW2 5741   2.839  13.126   6.819
 1323SOL     OW 5742   2.536   2.796  10.111
 1323SOL    HW1 5743   2.449   2.829  10.134
 1323SOL    HW2 5744   2.583   2.872  10.077
 1324SOL     OW 5745   4.714   8.714   3.282
 1324SOL    HW1 5746   4.735   8.783   3.220
 1324SOL    HW2 5747   4.792   8.658   3.283
 1325SOL     OW 5748   0.261   9.295   5.237
 1325SOL    HW1 5749   0.336   9.249   5.274
 1325SOL    HW2 5750   0.286   9.388   5.237
 1326SOL     OW 5751   3.056   0.085  13.595
 1326SOL    HW1 5752   3.086   0.017  13.654
 1326SOL    HW2 5753   3.011   0.039  13.524
 1327SOL     OW 5754   5.299  11.498  12.172
 1327SOL    HW1 5755   5.240  11.572  12.188
 1327SOL    HW2 5756   5.355  11.495  12.249
 1328SOL     OW 5757  13.408  14.684   4.765
 1328SOL    HW1 5758  13.495  14.722   4.751
 1328SOL    HW2 5759  13.349  14.758   4.762
 1329SOL     OW 5760   9.266  14.047   0.018
 1329SOL    HW1 5761   9.296  13.985  14.829
 1329SOL    HW2 5762   9.242  14.125  14.846
 1330SOL     OW 5763   9.133   3.277   2.056
 1330SOL    HW1 5764   9.216   3.267   2.010
 1330SOL    HW2 5765   9.088   3.194   2.041
 1331SOL     OW 5766   7.029  12.504   6.940
 1331SOL    HW1 5767   7.025  12.538   7.030
 1331SOL    HW2 5768   7.022  12.409   6.951
 1332SOL     OW 5769   6.047   9.850   7.325
 1332SOL    HW1 5770   6.001   9.785   7.273
 1332SOL    HW2 5771   6.139   9.822   7.323
 1333SOL     OW 5772  13.111   7.229   8.694
 1333SOL    HW1 5773  13.081   7.219   8.603
 1333SOL    HW2 5774  13.187   7.287   8.688
 1334SOL     OW 5775  12.052   9.578   2.717
 1334SOL    HW1 5776  12.031   9.524   2.640
 1334SOL    HW2 5777  12.068   9.666   2.681
 1335SOL     OW 5778   8.644  11.493   1.685
 1335SOL    HW1 5779   8.715  11.519   1.744
 1335SOL    HW2 5780   8.677  11.512   1.597
 1336SOL     OW 5781  12.830   3.025   2.832
 1336SOL    HW1 5782  12.910   3.073   2.810
 1336SOL    HW2 5783  12.861   2.944   2.872
 1337SOL     OW 5784   7.830   9.713  11.963
 1337SOL    HW1 5785   7.908   9.767  11.966
 1337SOL    HW2 5786   7.804   9.713  11.871
 1338SOL     OW 5787   4.443  11.241   3.208
 1338SOL    HW1 5788   4.404  11.293   3.138
 1338SOL    HW2 5789   4.377  11.175   3.229
 1339SOL     OW 5790   5.259   7.559   1.167
 1339SOL    HW1 5791   5.317   7.527   1.236
 1339SOL    HW2 5792   5.241   7.482   1.113
 1340SOL     OW 5793   0.964  11.157  13.684
 1340SOL    HW1 5794   0.996  11.239  13.646
 1340SOL    HW2 5795   0.995  11.089  13.623
 1341SOL     OW 5796   1.244   9.898  11.124
 1341SOL    HW1 5797   1.159   9.921  11.086
 1341SOL    HW2 5798   1.227   9.817  11.173
 1342SOL     OW 5799   5.819   9.802   4.890
 1342SOL    HW1 5800   5.857   9.807   4.802
 1342SOL    HW2 5801   5.895   9.800   4.948
 1343SOL     OW 5802   5.079   1.114  13.078
 1343SOL    HW1 5803   5.106   1.024  13.057
 1343SOL    HW2 5804   5.076   1.116  13.173
 1344SOL     OW 5805   7.314   9.388  10.515
 1344SOL    HW1 5806   7.407   9.400  10.498
 1344SOL    HW2 5807   7.270   9.453  10.460
 1345SOL     OW 5808  10.541   8.651   0.256
 1345SOL    HW1 5809  10.505   8.653   0.167
 1345SOL    HW2 5810  10.633   8.627   0.244
 1346SOL     OW 5811   3.146   8.717  11.861
 1346SOL    HW1 5812   3.132   8.715  11.766
 1346SOL    HW2 5813   3.156   8.626  11.887
 1347SOL     OW 5814  14.856  12.356   9.533
 1347SOL    HW1 5815  14.827  12.278   9.580
 1347SOL    HW2 5816   0.038  12.399   9.594
 1348SOL     OW 5817   0.988   0.311   1.053
 1348SOL    HW1 5818   0.985   0.406   1.061
 1348SOL    HW2 5819   1.024   0.295   0.966
 1349SOL     OW 5820  12.638  13.499   6.212
 1349SOL    HW1 5821  12.556  13.501   6.261
 1349SOL    HW2 5822  12.615  13.533   6.125
 1350SOL     OW 5823   2.903   9.319  13.227
 1350SOL    HW1 5824   2.907   9.246  13.290
 1350SOL    HW2 5825   2.985   9.366  13.239
 1351SOL     OW 5826   7.463   5.310   9.213
 1351SOL    HW1 5827   7.401   5.318   9.140
 1351SOL    HW2 5828   7.533   5.371   9.192
 1352SOL     OW 5829   7.881   6.603  11.977
 1352SOL    HW1 5830   7.833   6.625  12.057
 1352SOL    HW2 5831   7.972   6.594  12.004
 1353SOL     OW 5832   1.609  14.742   8.579
 1353SOL    HW1 5833   1.669  14.815   8.560
 1353SOL    HW2 5834   1.527  14.785   8.603
 1354SOL     OW 5835   0.203   2.180   7.007
 1354SOL    HW1 5836   0.191   2.275   6.996
 1354SOL    HW2 5837   0.297   2.170   7.024
 1355SOL     OW 5838   4.483   6.792   9.046
 1355SOL    HW1 5839   4.450   6.806   9.135
 1355SOL    HW2 5840   4.500   6.880   9.013
 1356SOL     OW 5841   3.921  13.619   2.702
 1356SOL    HW1 5842   3.981  13.562   2.654
 1356SOL    HW2 5843   3.930  13.593   2.793
 1357SOL     OW 5844   8.186   2.280   8.688
 1357SOL    HW1 5845   8.278   2.303   8.676
 1357SOL    HW2 5846   8.184   2.184   8.684
 1358SOL     OW 5847   7.581   7.362  13.289
 1358SOL    HW1 5848   7.501   7.399  13.327
 1358SOL    HW2 5849   7.569   7.373  13.194
 1359SOL     OW 5850  10.873  11.300   9.637
 1359SOL    HW1 5851  10.853  11.307   9.544
 1359SOL    HW2 5852  10.790  11.321   9.681
 1360SOL     OW 5853  12.064  14.661  14.180
 1360SOL    HW1 5854  11.994  14.676  14.116
 1360SOL    HW2 5855  12.123  14.736  14.168
 1361SOL     OW 5856  13.508   8.521  10.574
 1361SOL    HW1 5857  13.485   8.436  10.534
 1361SOL    HW2 5858  13.439   8.580  10.544
 1362SOL     OW 5859   7.852  13.284   3.751
 1362SOL    HW1 5860   7.912  13.223   3.709
 1362SOL    HW2 5861   7.907  13.335   3.811
 1363SOL     OW 5862  12.055  12.589   0.051
 1363SOL    HW1 5863  12.074  12.670   0.004
 1363SOL    HW2 5864  12.130  12.577   0.110
 1364SOL     OW 5865  10.616  10.758   5.752
 1364SOL    HW1 5866  10.687  10.743   5.813
 1364SOL    HW2 5867  10.565  10.677   5.753
 1365SOL     OW 5868  14.208   0.419  13.554
 1365SOL    HW1 5869  14.202   0.370  13.636
 1365SOL    HW2 5870  14.300   0.415  13.530
 1366SOL     OW 5871   7.000   3.486  11.983
 1366SOL    HW1 5872   6.947   3.408  11.999
 1366SOL    HW2 5873   7.005   3.492  11.887
 1367SOL     OW 5874   4.372   2.642   7.130
 1367SOL    HW1 5875   4.430   2.570   7.104
 1367SOL    HW2 5876   4.284   2.610   7.111
 1368SOL     OW 5877   1.907   8.034  11.093
 1368SOL    HW1 5878   1.926   8.087  11.170
 1368SOL    HW2 5879   1.849   7.966  11.125
 1369SOL     OW 5880   5.501  12.449   3.975
 1369SOL    HW1 5881   5.536  12.534   4.000
 1369SOL    HW2 5882   5.436  12.429   4.042
 1370SOL     OW 5883  10.353   7.497   0.603
 1370SOL    HW1 5884  10.266   7.493   0.564
 1370SOL    HW2 5885  10.412   7.471   0.532
 1371SOL     OW 5886   4.182  13.628   7.947
 1371SOL    HW1 5887   4.219  13.567   8.011
 1371SOL    HW2 5888   4.237  13.616   7.869
 1372SOL     OW 5889   5.429   3.098   1.926
 1372SOL    HW1 5890   5.409   3.005   1.922
 1372SOL    HW2 5891   5.524   3.103   1.932
 1373SOL     OW 5892  14.587   1.925   6.517
 1373SOL    HW1 5893  14.572   1.835   6.489
 1373SOL    HW2 5894  14.569   1.978   6.439
 1374SOL     OW 5895   1.585   4.683   0.303
 1374SOL    HW1 5896   1.598   4.683   0.398
 1374SOL    HW2 5897   1.659   4.634   0.268
 1375SOL     OW 5898  13.140  11.584   4.897
 1375SOL    HW1 5899  13.222  11.552   4.861
 1375SOL    HW2 5900  13.082  11.508   4.896
 1376SOL     OW 5901   4.450   1.634   2.725
 1376SOL    HW1 5902   4.444   1.540   2.713
 1376SOL    HW2 5903   4.443   1.671   2.637
 1377SOL     OW 5904  14.875  13.740  10.305
 1377SOL    HW1 5905  14.868  13.707  10.394
 1377SOL    HW2 5906   0.026  13.831  10.314
 1378SOL     OW 5907   1.481  12.379   4.624
 1378SOL    HW1 5908   1.457  12.296   4.583
 1378SOL    HW2 5909   1.538  12.421   4.560
 1379SOL     OW 5910   4.930  12.618   8.148
 1379SOL    HW1 5911   4.905  12.677   8.219
 1379SOL    HW2 5912   4.848  12.578   8.120
 1380SOL     OW 5913   3.994  13.725   5.586
 1380SOL    HW1 5914   3.931  13.655   5.571
 1380SOL    HW2 5915   4.078  13.688   5.557
 1381SOL     OW 5916   7.956   5.327   5.616
 1381SOL    HW1 5917   7.991   5.251   5.663
 1381SOL    HW2 5918   8.033   5.377   5.589
 1382SOL     OW 5919  14.778   8.516   2.564
 1382SOL    HW1 5920  14.753   8.590   2.619
 1382SOL    HW2 5921  14.762   8.546   2.475
 1383SOL     OW 5922  11.331  11.237   0.131
 1383SOL    HW1 5923  11.326  11.280   0.046
 1383SOL    HW2 5924  11.382  11.298   0.185
 1384SOL     OW 5925   7.815   6.924   2.695
 1384SOL    HW1 5926   7.823   6.911   2.601
 1384SOL    HW2 5927   7.875   6.861   2.734
 1385SOL     OW 5928  13.755  10.918   4.808
 1385SOL    HW1 5929  13.823  10.980   4.782
 1385SOL    HW2 5930  13.673  10.965   4.791
 1386SOL     OW 5931   5.946   0.716   2.059
 1386SOL    HW1 5932   6.007   0.645   2.076
 1386SOL    HW2 5933   5.877   0.706   2.124
 1387SOL     OW 5934   4.671  13.121  14.046
 1387SOL    HW1 5935   4.741  13.141  13.985
 1387SOL    HW2 5936   4.636  13.037  14.017
 1388SOL     OW 5937   7.406   2.461   4.006
 1388SOL    HW1 5938   7.500   2.470   3.992
 1388SOL    HW2 5939   7.393   2.486   4.098
 1389SOL     OW 5940   7.212   3.501  10.981
 1389SOL    HW1 5941   7.240   3.592  10.995
 1389SOL    HW2 5942   7.118   3.507  10.966
 1390SOL     OW 5943   9.357   4.896   8.590
 1390SOL    HW1 5944   9.429   4.955   8.611
 1390SOL    HW2 5945   9.345   4.905   8.495
 1391SOL     OW 5946  11.571   1.403   1.596
 1391SOL    HW1 5947  11.510   1.410   1.669
 1391SOL    HW2 5948  11.579   1.492   1.562
 1392SOL     OW 5949  14.603   5.886   8.813
 1392SOL    HW1 5950  14.526   5.897   8.869
 1392SOL    HW2 5951  14.584   5.937   8.735
 1393SOL     OW 5952   6.997   9.518   7.387
 1393SOL    HW1 5953   7.025   9.574   7.314
 1393SOL    HW2 5954   7.041   9.435   7.371
 1394SOL     OW 5955  10.077   7.567   2.734
 1394SOL    HW1 5956  10.038   7.580   2.820
 1394SOL    HW2 5957  10.114   7.652   2.711
 1395SOL     OW 5958   9.167   4.555  13.116
 1395SOL    HW1 5959   9.155   4.496  13.191
 1395SOL    HW2 5960   9.233   4.512  13.062
 1396SOL     OW 5961   8.829   5.485   6.775
 1396SOL    HW1 5962   8.778   5.566   6.780
 1396SOL    HW2 5963   8.791   5.437   6.702
 1397SOL     OW 5964  12.142   1.145   8.923
 1397SOL    HW1 5965  12.234   1.158   8.901
 1397SOL    HW2 5966  12.135   1.051   8.943
 1398SOL     OW 5967   2.911   5.226   5.152
 1398SOL    HW1 5968   2.927   5.320   5.148
 1398SOL    HW2 5969   2.880   5.203   5.064
 1399SOL     OW 5970  11.448  10.302   9.276
 1399SOL    HW1 5971  11.514  10.372   9.280
 1399SOL    HW2 5972  11.402  10.307   9.360
 1400SOL     OW 5973   5.584  14.553   8.549
 1400SOL    HW1 5974   5.640  14.569   8.473
 1400SOL    HW2 5975   5.528  14.480   8.523
 1401SOL     OW 5976   6.992  11.551   3.626
 1401SOL    HW1 5977   6.973  11.473   3.678
 1401SOL    HW2 5978   7.018  11.518   3.541
 1402SOL     OW 5979   3.520  12.218   2.043
 1402SOL    HW1 5980   3.562  12.181   1.966
 1402SOL    HW2 5981   3.590  12.226   2.107
 1403SOL     OW 5982   9.095   6.418   2.906
 1403SOL    HW1 5983   9.050   6.416   2.822
 1403SOL    HW2 5984   9.102   6.511   2.928
 1404SOL     OW 5985   4.739   1.750   3.355
 1404SOL    HW1 5986   4.737   1.781   3.446
 1404SOL    HW2 5987   4.828   1.771   3.325
 1405SOL     OW 5988   5.370   2.068   0.422
 1405SOL    HW1 5989   5.319   2.070   0.504
 1405SOL    HW2 5990   5.426   1.992   0.431
 1406SOL     OW 5991   5.978  13.319   0.937
 1406SOL    HW1 5992   5.907  13.370   0.898
 1406SOL    HW2 5993   5.969  13.332   1.031
 1407SOL     OW 5994  12.116   0.223   4.300
 1407SOL    HW1 5995  12.118   0.315   4.326
 1407SOL    HW2 5996  12.031   0.212   4.257
 1408SOL     OW 5997  10.490   9.515   0.759
 1408SOL    HW1 5998  10.454   9.577   0.695
 1408SOL    HW2 5999  10.455   9.545   0.843
 1409SOL     OW 6000  11.072   6.384  11.312
 1409SOL    HW1 6001  11.127   6.372  11.235
 1409SOL    HW2 6002  11.134   6.390  11.385
 1410SOL     OW 6003   1.051  10.172  11.859
 1410SOL    HW1 6004   1.004  10.184  11.941
 1410SOL    HW2 6005   1.020  10.243  11.802
 1411SOL     OW 6006   5.279   1.873   8.893
 1411SOL    HW1 6007   5.196   1.827   8.887
 1411SOL    HW2 6008   5.280   1.910   8.982
 1412SOL     OW 6009   4.815  14.099  11.823
 1412SOL    HW1 6010   4.877  14.027  11.812
 1412SOL    HW2 6011   4.867  14.178  11.806
 1413SOL     OW 6012   8.049   5.207   7.678
 1413SOL    HW1 6013   8.032   5.154   7.600
 1413SOL    HW2 6014   8.124   5.165   7.720
 1414SOL     OW 6015   4.295   3.327  13.346
 1414SOL    HW1 6016   4.294   3.418  13.316
 1414SOL    HW2 6017   4.288   3.275  13.266
 1415SOL     OW 6018  13.004   2.751   5.194
 1415SOL    HW1 6019  12.937   2.799   5.242
 1415SOL    HW2 6020  13.015   2.670   5.243
 1416SOL     OW 6021   8.492   4.988   9.177
 1416SOL    HW1 6022   8.584   4.964   9.173
 1416SOL    HW2 6023   8.471   5.017   9.088
 1417SOL     OW 6024   6.724  12.951  11.197
 1417SOL    HW1 6025   6.780  13.024  11.171
 1417SOL    HW2 6026   6.750  12.932  11.287
 1418SOL     OW 6027   0.082   6.537  11.202
 1418SOL    HW1 6028   0.105   6.459  11.251
 1418SOL    HW2 6029   0.136   6.532  11.123
 1419SOL     OW 6030   4.681   6.883  12.802
 1419SOL    HW1 6031   4.707   6.797  12.836
 1419SOL    HW2 6032   4.714   6.945  12.867
 1420SOL     OW 6033   6.799   7.544   2.717
 1420SOL    HW1 6034   6.891   7.520   2.714
 1420SOL    HW2 6035   6.794   7.627   2.669
 1421SOL     OW 6036  10.678   8.923   5.081
 1421SOL    HW1 6037  10.593   8.961   5.106
 1421SOL    HW2 6038  10.702   8.869   5.157
 1422SOL     OW 6039  13.330   6.820   6.238
 1422SOL    HW1 6040  13.315   6.904   6.283
 1422SOL    HW2 6041  13.416   6.831   6.197
 1423SOL     OW 6042  10.362   8.246   7.349
 1423SOL    HW1 6043  10.341   8.282   7.435
 1423SOL    HW2 6044  10.411   8.166   7.368
 1424SOL     OW 6045  14.098   3.755   9.981
 1424SOL    HW1 6046  14.111   3.702   9.902
 1424SOL    HW2 6047  14.157   3.829   9.970
 1425SOL     OW 6048  12.496   5.604  12.116
 1425SOL    HW1 6049  12.588   5.594  12.092
 1425SOL    HW2 6050  12.488   5.564  12.202
 1426SOL     OW 6051   5.483   9.185   9.308
 1426SOL    HW1 6052   5.506   9.160   9.219
 1426SOL    HW2 6053   5.415   9.251   9.299
 1427SOL     OW 6054  12.392   1.852   9.552
 1427SOL    HW1 6055  12.326   1.826   9.487
 1427SOL    HW2 6056  12.342   1.869   9.631
 1428SOL     OW 6057  10.309   9.647  10.187
 1428SOL    HW1 6058  10.322   9.692  10.270
 1428SOL    HW2 6059  10.381   9.583  10.183
 1429SOL     OW 6060   7.388  12.306   6.225
 1429SOL    HW1 6061   7.410  12.331   6.315
 1429SOL    HW2 6062   7.385  12.210   6.227
 1430SOL     OW 6063  12.521   0.272  13.733
 1430SOL    HW1 6064  12.460   0.344  13.721
 1430SOL    HW2 6065  12.488   0.202  13.676
 1431SOL     OW 6066   1.100   1.491   1.210
 1431SOL    HW1 6067   1.031   1.543   1.169
 1431SOL    HW2 6068   1.055   1.414   1.245
 1432SOL     OW 6069  10.606   0.062   7.405
 1432SOL    HW1 6070  10.549   0.133   7.435
 1432SOL    HW2 6071  10.661   0.102   7.338
 1433SOL     OW 6072   9.779   3.163  13.147
 1433SOL    HW1 6073   9.873   3.146  13.138
 1433SOL    HW2 6074   9.763   3.237  13.089
 1434SOL     OW 6075  13.803  14.714   9.404
 1434SOL    HW1 6076  13.709  14.720   9.426
 1434SOL    HW2 6077  13.840  14.795   9.437
 1435SOL     OW 6078  13.498   9.047   5.986
 1435SOL    HW1 6079  13.560   9.041   5.913
 1435SOL    HW2 6080  13.488   8.956   6.016
 1436SOL     OW 6081   8.125   5.660   1.691
 1436SOL    HW1 6082   8.048   5.698   1.734
 1436SOL    HW2 6083   8.089   5.588   1.639
 1437SOL     OW 6084   9.088   4.227   1.820
 1437SOL    HW1 6085   9.130   4.313   1.831
 1437SOL    HW2 6086   9.017   4.227   1.884
 1438SOL     OW 6087  12.963  11.477   4.199
 1438SOL    HW1 6088  12.939  11.389   4.229
 1438SOL    HW2 6089  12.885  11.530   4.214
 1439SOL     OW 6090  13.480   0.897   8.870
 1439SOL    HW1 6091  13.537   0.899   8.793
 1439SOL    HW2 6092  13.394   0.923   8.837
 1440SOL     OW 6093   9.777   2.998  14.050
 1440SOL    HW1 6094   9.862   3.021  14.014
 1440SOL    HW2 6095   9.716   3.010  13.977
 1441SOL     OW 6096   8.485  13.772  11.013
 1441SOL    HW1 6097   8.421  13.838  10.985
 1441SOL    HW2 6098   8.434  13.707  11.060
 1442SOL     OW 6099   7.748   9.052   5.219
 1442SOL    HW1 6100   7.741   9.136   5.175
 1442SOL    HW2 6101   7.709   9.067   5.306
 1443SOL     OW 6102  10.560   7.958   5.643
 1443SOL    HW1 6103  10.618   7.891   5.606
 1443SOL    HW2 6104  10.472   7.918   5.637
 1444SOL     OW 6105  11.141   6.015   8.730
 1444SOL    HW1 6106  11.170   6.101   8.701
 1444SOL    HW2 6107  11.112   6.028   8.820
 1445SOL     OW 6108  13.389   9.353   9.549
 1445SOL    HW1 6109  13.370   9.436   9.593
 1445SOL    HW2 6110  13.441   9.304   9.612
 1446SOL     OW 6111   0.681   0.043   3.535
 1446SOL    HW1 6112   0.621   0.018   3.465
 1446SOL    HW2 6113   0.710  14.838   3.572
 1447SOL     OW 6114   4.020  12.640   9.932
 1447SOL    HW1 6115   3.982  12.567   9.882
 1447SOL    HW2 6116   4.091  12.600   9.981
 1448SOL     OW 6117   8.625   1.909  12.242
 1448SOL    HW1 6118   8.553   1.868  12.194
 1448SOL    HW2 6119   8.703   1.860  12.214
 1449SOL     OW 6120   6.499   1.002   3.670
 1449SOL    HW1 6121   6.410   1.000   3.636
 1449SOL    HW2 6122   6.495   1.062   3.744
 1450SOL     OW 6123   1.092  10.962  12.007
 1450SOL    HW1 6124   1.074  11.042  12.056
 1450SOL    HW2 6125   1.025  10.900  12.037
 1451SOL     OW 6126  14.755   9.017   3.595
 1451SOL    HW1 6127  14.794   9.075   3.530
 1451SOL    HW2 6128  14.683   9.068   3.633
 1452SOL     OW 6129   6.780   6.240  13.957
 1452SOL    HW1 6130   6.835   6.223  14.034
 1452SOL    HW2 6131   6.843   6.252  13.886
 1453SOL     OW 6132  12.372   4.243   8.988
 1453SOL    HW1 6133  12.458   4.243   9.029
 1453SOL    HW2 6134  12.366   4.328   8.944
 1454SOL     OW 6135   5.989   8.247  12.383
 1454SOL    HW1 6136   6.063   8.289  12.338
 1454SOL    HW2 6137   6.029   8.177  12.434
 1455SOL     OW 6138  10.268  12.488   9.701
 1455SOL    HW1 6139  10.344  12.463   9.755
 1455SOL    HW2 6140  10.305  12.509   9.615
 1456SOL     OW 6141   3.472   3.333   2.521
 1456SOL    HW1 6142   3.384   3.352   2.489
 1456SOL    HW2 6143   3.461   3.257   2.578
 1457SOL     OW 6144   2.307   1.727   2.001
 1457SOL    HW1 6145   2.249   1.684   2.064
 1457SOL    HW2 6146   2.305   1.670   1.924
 1458SOL     OW 6147   2.251   4.696   0.850
 1458SOL    HW1 6148   2.245   4.739   0.765
 1458SOL    HW2 6149   2.345   4.689   0.867
 1459SOL     OW 6150   2.759   2.798  14.250
 1459SOL    HW1 6151   2.688   2.785  14.187
 1459SOL    HW2 6152   2.764   2.893  14.262
 1460SOL     OW 6153   0.201   9.187   3.725
 1460SOL    HW1 6154   0.288   9.195   3.762
 1460SOL    HW2 6155   0.148   9.250   3.774
 1461SOL     OW 6156  13.639   6.448   1.144
 1461SOL    HW1 6157  13.584   6.491   1.210
 1461SOL    HW2 6158  13.657   6.362   1.181
 1462SOL     OW 6159  10.594   9.913   9.231
 1462SOL    HW1 6160  10.543   9.930   9.152
 1462SOL    HW2 6161  10.601   9.817   9.235
 1463SOL     OW 6162   5.033   8.021  13.255
 1463SOL    HW1 6163   4.992   7.936  13.271
 1463SOL    HW2 6164   5.054   8.019  13.161
 1464SOL     OW 6165   3.861   8.893   6.920
 1464SOL    HW1 6166   3.838   8.967   6.977
 1464SOL    HW2 6167   3.949   8.914   6.888
 1465SOL     OW 6168   7.945   7.349   4.454
 1465SOL    HW1 6169   7.866   7.370   4.504
 1465SOL    HW2 6170   7.921   7.362   4.363
 1466SOL     OW 6171   3.618   5.307   8.815
 1466SOL    HW1 6172   3.617   5.344   8.903
 1466SOL    HW2 6173   3.541   5.250   8.812
 1467SOL     OW 6174   2.521   0.708   9.410
 1467SOL    HW1 6175   2.452   0.647   9.384
 1467SOL    HW2 6176   2.568   0.663   9.480
 1468SOL     OW 6177  10.872  13.675   4.570
 1468SOL    HW1 6178  10.851  13.587   4.541
 1468SOL    HW2 6179  10.966  13.683   4.555
 1469SOL     OW 6180   0.470   3.244   7.373
 1469SOL    HW1 6181   0.393   3.214   7.422
 1469SOL    HW2 6182   0.543   3.232   7.435
 1470SOL     OW 6183   4.751   6.563   2.857
 1470SOL    HW1 6184   4.813   6.632   2.833
 1470SOL    HW2 6185   4.667   6.593   2.823
 1471SOL     OW 6186  13.507   0.008   7.672
 1471SOL    HW1 6187  13.479   0.098   7.690
 1471SOL    HW2 6188  13.439  14.850   7.616
 1472SOL     OW 6189   9.960   1.141   3.189
 1472SOL    HW1 6190   9.878   1.190   3.200
 1472SOL    HW2 6191   9.942   1.078   3.120
 1473SOL     OW 6192  11.958  13.395  14.833
 1473SOL    HW1 6193  11.928  13.468   0.010
 1473SOL    HW2 6194  12.050  13.413  14.817
 1474SOL     OW 6195   1.053  13.126   4.093
 1474SOL    HW1 6196   1.031  13.112   4.001
 1474SOL    HW2 6197   0.987  13.077   4.141
 1475SOL     OW 6198  12.030  14.155   1.906
 1475SOL    HW1 6199  12.120  14.126   1.889
 1475SOL    HW2 6200  11.991  14.083   1.955
 1476SOL     OW 6201   5.521   8.147   5.733
 1476SOL    HW1 6202   5.428   8.167   5.731
 1476SOL    HW2 6203   5.563   8.223   5.692
 1477SOL     OW 6204  13.482  11.907   9.021
 1477SOL    HW1 6205  13.486  11.938   9.111
 1477SOL    HW2 6206  13.453  11.816   9.027
 1478SOL     OW 6207   1.483   8.409   4.927
 1478SOL    HW1 6208   1.389   8.423   4.918
 1478SOL    HW2 6209   1.491   8.318   4.957
 1479SOL     OW 6210  12.388  12.058  12.670
 1479SOL    HW1 6211  12.422  12.062  12.581
 1479SOL    HW2 6212  12.312  12.000  12.663
 1480SOL     OW 6213   0.443   8.895   3.123
 1480SOL    HW1 6214   0.504   8.887   3.196
 1480SOL    HW2 6215   0.498   8.922   3.049
 1481SOL     OW 6216   3.143   9.998  14.071
 1481SOL    HW1 6217   3.136   9.923  14.012
 1481SOL    HW2 6218   3.189  10.065  14.020
 1482SOL     OW 6219  10.354   4.936   0.651
 1482SOL    HW1 6220  10.337   4.851   0.691
 1482SOL    HW2 6221  10.274   4.986   0.665
 1483SOL     OW 6222  12.024   3.196   5.347
 1483SOL    HW1 6223  11.986   3.140   5.279
 1483SOL    HW2 6224  12.052   3.135   5.415
 1484SOL     OW 6225   9.787   3.613  11.876
 1484SOL    HW1 6226   9.752   3.559  11.805
 1484SOL    HW2 6227   9.711   3.630  11.933
 1485SOL     OW 6228  13.979  11.498  13.458
 1485SOL    HW1 6229  14.016  11.550  13.387
 1485SOL    HW2 6230  14.008  11.409  13.440
 1486SOL     OW 6231   6.580   9.770   0.290
 1486SOL    HW1 6232   6.588   9.832   0.363
 1486SOL    HW2 6233   6.665   9.726   0.287
 1487SOL     OW 6234   3.312   1.989   5.434
 1487SOL    HW1 6235   3.359   2.047   5.494
 1487SOL    HW2 6236   3.330   2.024   5.347
 1488SOL     OW 6237   6.721   5.177   5.004
 1488SOL    HW1 6238   6.803   5.136   4.975
 1488SOL    HW2 6239   6.712   5.150   5.096
 1489SOL     OW 6240   9.680   9.865  12.985
 1489SOL    HW1 6241   9.621   9.790  12.996
 1489SOL    HW2 6242   9.629   9.941  13.013
 1490SOL     OW 6243   7.827   2.895   8.365
 1490SOL    HW1 6244   7.780   2.879   8.447
 1490SOL    HW2 6245   7.772   2.857   8.297
 1491SOL     OW 6246  12.476  11.719   1.085
 1491SOL    HW1 6247  12.541  11.683   1.024
 1491SOL    HW2 6248  12.458  11.647   1.145
 1492SOL     OW 6249   8.101  11.887  12.320
 1492SOL    HW1 6250   8.115  11.971  12.365
 1492SOL    HW2 6251   8.176  11.878  12.261
 1493SOL     OW 6252   1.046  14.322   5.829
 1493SOL    HW1 6253   1.114  14.301   5.893
 1493SOL    HW2 6254   1.087  14.384   5.769
 1494SOL     OW 6255   0.039   2.127   3.279
 1494SOL    HW1 6256   0.060   2.049   3.331
 1494SOL    HW2 6257  14.875   2.094   3.200
 1495SOL     OW 6258   9.929   0.173   6.959
 1495SOL    HW1 6259  10.003   0.113   6.970
 1495SOL    HW2 6260   9.915   0.178   6.864
 1496SOL     OW 6261  12.504   1.192   0.185
 1496SOL    HW1 6262  12.595   1.172   0.206
 1496SOL    HW2 6263  12.483   1.133   0.111
 1497SOL     OW 6264   1.359  11.670   2.564
 1497SOL    HW1 6265   1.351  11.594   2.506
 1497SOL    HW2 6266   1.434  11.719   2.529
 1498SOL     OW 6267  11.925  12.104   8.040
 1498SOL    HW1 6268  11.924  12.045   7.964
 1498SOL    HW2 6269  11.842  12.152   8.033
 1499SOL     OW 6270   2.726   8.110   4.717
 1499SOL    HW1 6271   2.760   8.064   4.793
 1499SOL    HW2 6272   2.770   8.195   4.718
 1500SOL     OW 6273  11.859   6.694  10.265
 1500SOL    HW1 6274  11.840   6.601  10.280
 1500SOL    HW2 6275  11.774   6.738  10.277
 1501SOL     OW 6276   6.669   6.073   7.566
 1501SOL    HW1 6277   6.614   6.151   7.563
 1501SOL    HW2 6278   6.650   6.034   7.652
 1502SOL     OW 6279  14.376   0.984   6.188
 1502SOL    HW1 6280  14.311   0.932   6.237
 1502SOL    HW2 6281  14.453   0.986   6.245
 1503SOL     OW 6282   0.079   7.123   4.854
 1503SOL    HW1 6283  14.867   7.151   4.873
 1503SOL    HW2 6284   0.068   7.056   4.786
 1504SOL     OW 6285   4.792   3.964  12.864
 1504SOL    HW1 6286   4.866   3.935  12.917
 1504SOL    HW2 6287   4.766   3.887  12.814
 1505SOL     OW 6288   5.954   9.616  10.031
 1505SOL    HW1 6289   6.030   9.563  10.054
 1505SOL    HW2 6290   5.991   9.701  10.006
 1506SOL     OW 6291   2.335   1.381   3.675
 1506SOL    HW1 6292   2.318   1.428   3.594
 1506SOL    HW2 6293   2.292   1.296   3.664
 1507SOL     OW 6294   4.900   8.896  14.199
 1507SOL    HW1 6295   4.894   8.805  14.229
 1507SOL    HW2 6296   4.900   8.889  14.103
 1508SOL     OW 6297  11.587   4.259   8.480
 1508SOL    HW1 6298  11.602   4.334   8.422
 1508SOL    HW2 6299  11.579   4.184   8.420
 1509SOL     OW 6300   6.159   1.802   4.378
 1509SOL    HW1 6301   6.158   1.807   4.474
 1509SOL    HW2 6302   6.250   1.784   4.356
 1510SOL     OW 6303   7.717   0.925   5.876
 1510SOL    HW1 6304   7.709   0.959   5.786
 1510SOL    HW2 6305   7.794   0.969   5.911
 1511SOL     OW 6306   8.754   8.776  10.126
 1511SOL    HW1 6307   8.740   8.683  10.143
 1511SOL    HW2 6308   8.697   8.796  10.052
 1512SOL     OW 6309   4.301   3.959  14.514
 1512SOL    HW1 6310   4.396   3.948  14.515
 1512SOL    HW2 6311   4.275   3.938  14.424
 1513SOL     OW 6312   4.390   8.699   7.192
 1513SOL    HW1 6313   4.386   8.790   7.221
 1513SOL    HW2 6314   4.329   8.652   7.250
 1514SOL     OW 6315   5.240   0.138   2.868
 1514SOL    HW1 6316   5.257   0.075   2.938
 1514SOL    HW2 6317   5.307   0.120   2.802
 1515SOL     OW 6318  12.701   7.807   8.491
 1515SOL    HW1 6319  12.670   7.723   8.456
 1515SOL    HW2 6320  12.632   7.870   8.469
 1516SOL     OW 6321   2.928   9.041  11.351
 1516SOL    HW1 6322   2.929   9.117  11.293
 1516SOL    HW2 6323   2.978   8.975  11.303
 1517SOL     OW 6324  11.286   0.068   5.730
 1517SOL    HW1 6325  11.208   0.012   5.732
 1517SOL    HW2 6326  11.344   0.030   5.796
 1518SOL     OW 6327   4.418   2.163   5.238
 1518SOL    HW1 6328   4.393   2.153   5.330
 1518SOL    HW2 6329   4.506   2.202   5.240
 1519SOL     OW 6330   9.163  14.760  13.756
 1519SOL    HW1 6331   9.153  14.847  13.717
 1519SOL    HW2 6332   9.228  14.717  13.701
 1520SOL     OW 6333   8.089  10.368  10.551
 1520SOL    HW1 6334   8.100  10.299  10.616
 1520SOL    HW2 6335   7.995  10.388  10.553
 1521SOL     OW 6336   7.293   0.423   9.670
 1521SOL    HW1 6337   7.358   0.492   9.678
 1521SOL    HW2 6338   7.242   0.446   9.592
 1522SOL     OW 6339  14.267   6.891   8.446
 1522SOL    HW1 6340  14.331   6.820   8.455
 1522SOL    HW2 6341  14.316   6.962   8.403
 1523SOL     OW 6342   7.375   5.081   9.327
 1523SOL    HW1 6343   7.409   5.166   9.300
 1523SOL    HW2 6344   7.453   5.029   9.345
 1524SOL     OW 6345   3.840   6.234   0.139
 1524SOL    HW1 6346   3.816   6.142   0.127
 1524SOL    HW2 6347   3.860   6.265   0.050
 1525SOL     OW 6348   4.406  10.419  12.064
 1525SOL    HW1 6349   4.432  10.425  12.156
 1525SOL    HW2 6350   4.318  10.381  12.066
 1526SOL     OW 6351   2.837  14.378  10.045
 1526SOL    HW1 6352   2.910  14.419  10.000
 1526SOL    HW2 6353   2.761  14.393   9.988
 1527SOL     OW 6354   8.112  10.858  11.052
 1527SOL    HW1 6355   8.136  10.767  11.071
 1527SOL    HW2 6356   8.186  10.909  11.083
 1528SOL     OW 6357   5.158   7.902  10.373
 1528SOL    HW1 6358   5.248   7.887  10.400
 1528SOL    HW2 6359   5.106   7.851  10.435
 1529SOL     OW 6360  11.875   1.403  13.841
 1529SOL    HW1 6361  11.860   1.390  13.747
 1529SOL    HW2 6362  11.875   1.315  13.878
 1530SOL     OW 6363   7.145   0.415   3.871
 1530SOL    HW1 6364   7.143   0.420   3.967
 1530SOL    HW2 6365   7.164   0.505   3.843
 1531SOL     OW 6366  13.188   0.351   6.594
 1531SOL    HW1 6367  13.120   0.375   6.531
 1531SOL    HW2 6368  13.250   0.299   6.544
 1532SOL     OW 6369   7.231   2.879  12.318
 1532SOL    HW1 6370   7.273   2.962  12.341
 1532SOL    HW2 6371   7.289   2.812  12.353
 1533SOL     OW 6372   6.674   6.795  14.016
 1533SOL    HW1 6373   6.698   6.796  14.109
 1533SOL    HW2 6374   6.584   6.762  14.015
 1534SOL     OW 6375   0.585  10.539   9.161
 1534SOL    HW1 6376   0.519  10.478   9.129
 1534SOL    HW2 6377   0.537  10.604   9.212
 1535SOL     OW 6378   5.163   7.990  10.748
 1535SOL    HW1 6379   5.149   7.923  10.680
 1535SOL    HW2 6380   5.258   7.993  10.759
 1536SOL     OW 6381   9.943  14.102   5.461
 1536SOL    HW1 6382   9.977  14.064   5.542
 1536SOL    HW2 6383   9.986  14.187   5.454
 1537SOL     OW 6384   3.742   7.360  14.722
 1537SOL    HW1 6385   3.675   7.295  14.744
 1537SOL    HW2 6386   3.727   7.381  14.630
 1538SOL     OW 6387  11.863   0.022   6.583
 1538SOL    HW1 6388  11.828   0.046   6.668
 1538SOL    HW2 6389  11.840   0.096   6.526
 1539SOL     OW 6390  12.698   4.172   4.441
 1539SOL    HW1 6391  12.663   4.108   4.379
 1539SOL    HW2 6392  12.659   4.149   4.525
 1540SOL     OW 6393  10.304   1.951   4.785
 1540SOL    HW1 6394  10.311   1.930   4.692
 1540SOL    HW2 6395  10.232   1.897   4.818
 1541SOL     OW 6396   7.319   6.230   8.871
 1541SOL    HW1 6397   7.377   6.229   8.795
 1541SOL    HW2 6398   7.235   6.261   8.837
 1542SOL     OW 6399   5.876   1.291   8.960
 1542SOL    HW1 6400   5.878   1.317   8.868
 1542SOL    HW2 6401   5.887   1.373   9.008
 1543SOL     OW 6402  12.635  13.670   5.697
 1543SOL    HW1 6403  12.614  13.581   5.670
 1543SOL    HW2 6404  12.584  13.725   5.638
 1544SOL     OW 6405   2.910   4.266  10.221
 1544SOL    HW1 6406   2.897   4.193  10.281
 1544SOL    HW2 6407   2.861   4.242  10.143
 1545SOL     OW 6408   8.129   7.764   1.552
 1545SOL    HW1 6409   8.200   7.826   1.567
 1545SOL    HW2 6410   8.144   7.695   1.616
 1546SOL     OW 6411   1.331   0.455   9.551
 1546SOL    HW1 6412   1.409   0.477   9.600
 1546SOL    HW2 6413   1.259   0.468   9.612
 1547SOL     OW 6414  10.891  13.306   4.727
 1547SOL    HW1 6415  10.826  13.345   4.670
 1547SOL    HW2 6416  10.853  13.222   4.754
 1548SOL     OW 6417   1.232   4.477   7.867
 1548SOL    HW1 6418   1.301   4.474   7.801
 1548SOL    HW2 6419   1.256   4.408   7.929
 1549SOL     OW 6420  11.373   2.595  14.352
 1549SOL    HW1 6421  11.341   2.563  14.267
 1549SOL    HW2 6422  11.425   2.524  14.387
 1550SOL     OW 6423   1.009   6.383   5.658
 1550SOL    HW1 6424   1.055   6.448   5.606
 1550SOL    HW2 6425   1.078   6.330   5.697
 1551SOL     OW 6426  14.138  13.766   2.635
 1551SOL    HW1 6427  14.123  13.795   2.726
 1551SOL    HW2 6428  14.146  13.847   2.585
 1552SOL     OW 6429   0.224   3.934  14.356
 1552SOL    HW1 6430   0.129   3.938  14.352
 1552SOL    HW2 6431   0.251   3.919  14.265
 1553SOL     OW 6432   3.576   3.708   0.859
 1553SOL    HW1 6433   3.523   3.746   0.789
 1553SOL    HW2 6434   3.515   3.654   0.910
 1554SOL     OW 6435   6.768   0.310  14.435
 1554SOL    HW1 6436   6.767   0.299  14.530
 1554SOL    HW2 6437   6.681   0.344  14.414
 1555SOL     OW 6438   3.884   0.673   4.071
 1555SOL    HW1 6439   3.931   0.740   4.122
 1555SOL    HW2 6440   3.934   0.666   3.990
 1556SOL     OW 6441  11.700   1.264   3.811
 1556SOL    HW1 6442  11.673   1.281   3.901
 1556SOL    HW2 6443  11.653   1.184   3.787
 1557SOL     OW 6444   1.692  13.672   4.159
 1557SOL    HW1 6445   1.708  13.579   4.176
 1557SOL    HW2 6446   1.597  13.678   4.148
 1558SOL     OW 6447  12.884   7.791   3.581
 1558SOL    HW1 6448  12.967   7.837   3.594
 1558SOL    HW2 6449  12.851   7.776   3.670
 1559SOL     OW 6450   0.359   3.112  13.104
 1559SOL    HW1 6451   0.356   3.017  13.090
 1559SOL    HW2 6452   0.297   3.147  13.040
 1560SOL     OW 6453   1.879   1.166  13.689
 1560SOL    HW1 6454   1.935   1.152  13.765
 1560SOL    HW2 6455   1.921   1.118  13.618
 1561SOL     OW 6456   2.490   6.024   6.280
 1561SOL    HW1 6457   2.574   6.007   6.322
 1561SOL    HW2 6458   2.426   6.023   6.351
 1562SOL     OW 6459   3.554  12.264  12.767
 1562SOL    HW1 6460   3.482  12.247  12.827
 1562SOL    HW2 6461   3.621  12.201  12.792
 1563SOL     OW 6462   5.229   9.014   6.754
 1563SOL    HW1 6463   5.230   9.039   6.662
 1563SOL    HW2 6464   5.224   8.918   6.753
 1564SOL     OW 6465  10.543   6.734  14.867
 1564SOL    HW1 6466  10.473   6.670  14.853
 1564SOL    HW2 6467  10.619   6.696  14.824
 1565SOL     OW 6468   5.337   7.061   2.246
 1565SOL    HW1 6469   5.384   7.139   2.277
 1565SOL    HW2 6470   5.405   6.993   2.242
 1566SOL     OW 6471   1.985   7.384  10.726
 1566SOL    HW1 6472   1.943   7.339  10.798
 1566SOL    HW2 6473   2.025   7.314  10.673
 1567SOL     OW 6474   1.768   4.835   3.988
 1567SOL    HW1 6475   1.781   4.817   3.895
 1567SOL    HW2 6476   1.851   4.811   4.029
 1568SOL     OW 6477   9.508   3.565  10.928
 1568SOL    HW1 6478   9.489   3.482  10.972
 1568SOL    HW2 6479   9.427   3.615  10.936
 1569SOL     OW 6480   4.246   5.163   7.195
 1569SOL    HW1 6481   4.220   5.238   7.248
 1569SOL    HW2 6482   4.166   5.113   7.183
 1570SOL     OW 6483  11.174  10.268   8.341
 1570SOL    HW1 6484  11.112  10.317   8.395
 1570SOL    HW2 6485  11.130  10.261   8.256
 1571SOL     OW 6486   6.038   5.464   5.449
 1571SOL    HW1 6487   5.960   5.479   5.395
 1571SOL    HW2 6488   6.004   5.419   5.527
 1572SOL     OW 6489  10.053   6.145   4.949
 1572SOL    HW1 6490   9.959   6.156   4.932
 1572SOL    HW2 6491  10.087   6.106   4.869
 1573SOL     OW 6492  11.660  12.895   1.691
 1573SOL    HW1 6493  11.638  12.936   1.608
 1573SOL    HW2 6494  11.675  12.803   1.669
 1574SOL     OW 6495  12.604  12.506   5.013
 1574SOL    HW1 6496  12.645  12.558   5.082
 1574SOL    HW2 6497  12.565  12.571   4.954
 1575SOL     OW 6498   5.681   6.182   7.838
 1575SOL    HW1 6499   5.749   6.152   7.897
 1575SOL    HW2 6500   5.702   6.275   7.822
 1576SOL     OW 6501   4.859   5.081  12.045
 1576SOL    HW1 6502   4.839   5.169  12.076
 1576SOL    HW2 6503   4.776   5.033  12.052
 1577SOL     OW 6504   5.771  10.741   0.198
 1577SOL    HW1 6505   5.797  10.723   0.288
 1577SOL    HW2 6506   5.678  10.720   0.196
 1578SOL     OW 6507   3.769  11.630   7.268
 1578SOL    HW1 6508   3.724  11.634   7.352
 1578SOL    HW2 6509   3.708  11.669   7.205
 1579SOL     OW 6510   6.071   7.016   4.952
 1579SOL    HW1 6511   6.100   7.001   4.862
 1579SOL    HW2 6512   6.145   6.988   5.006
 1580SOL     OW 6513   9.705   1.202   0.219
 1580SOL    HW1 6514   9.668   1.195   0.131
 1580SOL    HW2 6515   9.781   1.145   0.218
 1581SOL     OW 6516  10.636  12.712   8.016
 1581SOL    HW1 6517  10.569  12.723   7.949
 1581SOL    HW2 6518  10.694  12.644   7.981
 1582SOL     OW 6519   5.356  10.981  14.700
 1582SOL    HW1 6520   5.338  11.067  14.737
 1582SOL    HW2 6521   5.420  10.941  14.759
 1583SOL     OW 6522   2.331  11.933   3.309
 1583SOL    HW1 6523   2.376  11.994   3.368
 1583SOL    HW2 6524   2.292  11.868   3.367
 1584SOL     OW 6525  10.768  14.741   5.106
 1584SOL    HW1 6526  10.861  14.731   5.128
 1584SOL    HW2 6527  10.757  14.834   5.090
 1585SOL     OW 6528   4.859   5.576   9.115
 1585SOL    HW1 6529   4.773   5.573   9.073
 1585SOL    HW2 6530   4.914   5.518   9.063
 1586SOL     OW 6531  14.055   5.610   8.924
 1586SOL    HW1 6532  13.961   5.628   8.929
 1586SOL    HW2 6533  14.066   5.563   8.842
 1587SOL     OW 6534   2.048   3.390   3.581
 1587SOL    HW1 6535   2.021   3.335   3.655
 1587SOL    HW2 6536   2.014   3.344   3.504
 1588SOL     OW 6537   7.528  12.025   0.364
 1588SOL    HW1 6538   7.566  12.113   0.365
 1588SOL    HW2 6539   7.436  12.038   0.388
 1589SOL     OW 6540   1.620   2.030  13.300
 1589SOL    HW1 6541   1.695   1.977  13.326
 1589SOL    HW2 6542   1.649   2.077  13.221
 1590SOL     OW 6543  10.039   8.661  14.403
 1590SOL    HW1 6544  10.031   8.743  14.452
 1590SOL    HW2 6545  10.117   8.619  14.440
 1591SOL     OW 6546   7.259   3.467   1.979
 1591SOL    HW1 6547   7.180   3.505   2.017
 1591SOL    HW2 6548   7.267   3.507   1.893
 1592SOL     OW 6549   3.227   0.189  14.201
 1592SOL    HW1 6550   3.192   0.102  14.185
 1592SOL    HW2 6551   3.230   0.196  14.297
 1593SOL     OW 6552  12.697  11.832   9.958
 1593SOL    HW1 6553  12.623  11.824   9.897
 1593SOL    HW2 6554  12.762  11.883   9.910
 1594SOL     OW 6555   6.496   5.000   3.310
 1594SOL    HW1 6556   6.433   4.944   3.355
 1594SOL    HW2 6557   6.489   4.974   3.218
 1595SOL     OW 6558   6.933  14.752  14.586
 1595SOL    HW1 6559   6.879  14.812  14.535
 1595SOL    HW2 6560   6.876  14.677  14.603
 1596SOL     OW 6561   9.325   6.592   7.813
 1596SOL    HW1 6562   9.295   6.629   7.730
 1596SOL    HW2 6563   9.278   6.641   7.880
 1597SOL     OW 6564   3.529   1.596   4.106
 1597SOL    HW1 6565   3.602   1.596   4.168
 1597SOL    HW2 6566   3.551   1.664   4.043
 1598SOL     OW 6567   1.025  14.644   6.028
 1598SOL    HW1 6568   1.102  14.672   5.979
 1598SOL    HW2 6569   0.970  14.599   5.964
 1599SOL     OW 6570   2.265   3.469  14.546
 1599SOL    HW1 6571   2.312   3.423  14.476
 1599SOL    HW2 6572   2.246   3.555  14.509
 1600SOL     OW 6573   8.789   6.424   0.679
 1600SOL    HW1 6574   8.729   6.349   0.676
 1600SOL    HW2 6575   8.813   6.439   0.588
 1601SOL     OW 6576   3.897   1.032   8.023
 1601SOL    HW1 6577   3.962   0.970   7.993
 1601SOL    HW2 6578   3.826   1.025   7.960
 1602SOL     OW 6579  13.662   5.935  14.163
 1602SOL    HW1 6580  13.672   5.891  14.079
 1602SOL    HW2 6581  13.681   6.027  14.144
 1603SOL     OW 6582  14.712   4.868  13.478
 1603SOL    HW1 6583  14.767   4.943  13.456
 1603SOL    HW2 6584  14.624   4.893  13.448
 1604SOL     OW 6585   3.196   4.325   2.134
 1604SOL    HW1 6586   3.117   4.275   2.112
 1604SOL    HW2 6587   3.268   4.264   2.119
 1605SOL     OW 6588   0.957   7.742  11.682
 1605SOL    HW1 6589   1.029   7.698  11.726
 1605SOL    HW2 6590   0.897   7.767  11.752
 1606SOL     OW 6591   7.930   1.340   4.037
 1606SOL    HW1 6592   8.025   1.341   4.036
 1606SOL    HW2 6593   7.904   1.317   3.948
 1607SOL     OW 6594   2.496   0.106   8.164
 1607SOL    HW1 6595   2.587   0.077   8.161
 1607SOL    HW2 6596   2.468   0.105   8.072
 1608SOL     OW 6597   5.826  13.851  14.256
 1608SOL    HW1 6598   5.853  13.774  14.206
 1608SOL    HW2 6599   5.749  13.821  14.305
 1609SOL     OW 6600   7.381   9.976   3.931
 1609SOL    HW1 6601   7.325   9.936   3.998
 1609SOL    HW2 6602   7.466   9.987   3.974
 1610SOL     OW 6603   9.359   4.418   3.039
 1610SOL    HW1 6604   9.280   4.366   3.028
 1610SOL    HW2 6605   9.367   4.467   2.957
 1611SOL     OW 6606  10.408  14.292   7.179
 1611SOL    HW1 6607  10.371  14.205   7.192
 1611SOL    HW2 6608  10.503  14.278   7.179
 1612SOL     OW 6609   5.150  12.085   8.689
 1612SOL    HW1 6610   5.131  12.029   8.764
 1612SOL    HW2 6611   5.145  12.027   8.613
 1613SOL     OW 6612  10.016   7.232   8.639
 1613SOL    HW1 6613  10.008   7.177   8.717
 1613SOL    HW2 6614   9.980   7.317   8.665
 1614SOL     OW 6615  14.542  14.175   5.454
 1614SOL    HW1 6616  14.622  14.202   5.498
 1614SOL    HW2 6617  14.535  14.081   5.471
 1615SOL     OW 6618   5.021  11.276   5.353
 1615SOL    HW1 6619   4.981  11.315   5.276
 1615SOL    HW2 6620   4.966  11.200   5.374
 1616SOL     OW 6621  12.630  13.701   8.934
 1616SOL    HW1 6622  12.699  13.636   8.942
 1616SOL    HW2 6623  12.663  13.778   8.980
 1617SOL     OW 6624   9.093   8.155  11.781
 1617SOL    HW1 6625   9.072   8.217  11.711
 1617SOL    HW2 6626   9.012   8.148  11.833
 1618SOL     OW 6627  13.975  11.687  13.988
 1618SOL    HW1 6628  14.050  11.737  14.018
 1618SOL    HW2 6629  13.938  11.649  14.068
 1619SOL     OW 6630   9.245   7.153   7.854
 1619SOL    HW1 6631   9.293   7.231   7.828
 1619SOL    HW2 6632   9.249   7.095   7.778
 1620SOL     OW 6633  14.233   4.416  11.694
 1620SOL    HW1 6634  14.206   4.345  11.752
 1620SOL    HW2 6635  14.198   4.392  11.608
 1621SOL     OW 6636   3.362  12.828   9.301
 1621SOL    HW1 6637   3.421  12.902   9.318
 1621SOL    HW2 6638   3.274  12.865   9.309
 1622SOL     OW 6639  14.261   9.791   5.527
 1622SOL    HW1 6640  14.285   9.698   5.532
 1622SOL    HW2 6641  14.325   9.835   5.583
 1623SOL     OW 6642   9.262  13.373   9.881
 1623SOL    HW1 6643   9.320  13.361   9.956
 1623SOL    HW2 6644   9.282  13.299   9.823
 1624SOL     OW 6645   6.385  13.074   8.792
 1624SOL    HW1 6646   6.297  13.042   8.771
 1624SOL    HW2 6647   6.396  13.055   8.885
 1625SOL     OW 6648   5.057  10.620   1.063
 1625SOL    HW1 6649   5.148  10.619   1.091
 1625SOL    HW2 6650   5.007  10.588   1.138
 1626SOL     OW 6651   1.432   5.684  12.530
 1626SOL    HW1 6652   1.434   5.598  12.488
 1626SOL    HW2 6653   1.517   5.722  12.509
 1627SOL     OW 6654   4.312   9.799   2.353
 1627SOL    HW1 6655   4.276   9.884   2.328
 1627SOL    HW2 6656   4.405   9.818   2.372
 1628SOL     OW 6657  10.118   4.760   4.136
 1628SOL    HW1 6658  10.166   4.778   4.055
 1628SOL    HW2 6659  10.184   4.764   4.205
 1629SOL     OW 6660   2.824   3.981   7.771
 1629SOL    HW1 6661   2.783   3.992   7.857
 1629SOL    HW2 6662   2.918   3.993   7.788
 1630SOL     OW 6663   0.335   1.934   3.494
 1630SOL    HW1 6664   0.394   1.904   3.425
 1630SOL    HW2 6665   0.335   2.029   3.486
 1631SOL     OW 6666  14.713   2.951   8.339
 1631SOL    HW1 6667  14.636   2.899   8.362
 1631SOL    HW2 6668  14.764   2.954   8.419
 1632SOL     OW 6669   8.548   2.311  10.166
 1632SOL    HW1 6670   8.484   2.247  10.136
 1632SOL    HW2 6671   8.632   2.267  10.157
 1633SOL     OW 6672   4.427   3.998   3.058
 1633SOL    HW1 6673   4.490   4.018   2.988
 1633SOL    HW2 6674   4.383   4.080   3.075
 1634SOL     OW 6675   4.382   2.321   3.922
 1634SOL    HW1 6676   4.310   2.384   3.917
 1634SOL    HW2 6677   4.370   2.276   4.006
 1635SOL     OW 6678   9.371   1.018   8.018
 1635SOL    HW1 6679   9.369   1.007   8.113
 1635SOL    HW2 6680   9.331   0.938   7.984
 1636SOL     OW 6681   4.665   3.787   6.168
 1636SOL    HW1 6682   4.650   3.740   6.087
 1636SOL    HW2 6683   4.760   3.784   6.181
 1637SOL     OW 6684  10.412   1.287   1.151
 1637SOL    HW1 6685  10.447   1.277   1.062
 1637SOL    HW2 6686  10.441   1.374   1.179
 1638SOL     OW 6687   4.490   0.120  10.163
 1638SOL    HW1 6688   4.485   0.193  10.225
 1638SOL    HW2 6689   4.467   0.158  10.078
 1639SOL     OW 6690  14.766   3.213  11.124
 1639SOL    HW1 6691  14.841   3.160  11.094
 1639SOL    HW2 6692  14.798   3.255  11.204
 1640SOL     OW 6693   3.544  14.435   3.342
 1640SOL    HW1 6694   3.627  14.396   3.370
 1640SOL    HW2 6695   3.509  14.476   3.421
 1641SOL     OW 6696   0.328  11.234   2.479
 1641SOL    HW1 6697   0.323  11.141   2.500
 1641SOL    HW2 6698   0.404  11.241   2.420
 1642SOL     OW 6699   7.310   3.378   9.222
 1642SOL    HW1 6700   7.392   3.337   9.249
 1642SOL    HW2 6701   7.338   3.458   9.176
 1643SOL     OW 6702   3.366   1.614   5.555
 1643SOL    HW1 6703   3.350   1.634   5.463
 1643SOL    HW2 6704   3.330   1.527   5.567
 1644SOL     OW 6705  14.607   3.333   4.013
 1644SOL    HW1 6706  14.519   3.344   4.049
 1644SOL    HW2 6707  14.596   3.347   3.919
 1645SOL     OW 6708  14.717  10.791   2.462
 1645SOL    HW1 6709  14.671  10.848   2.523
 1645SOL    HW2 6710  14.804  10.831   2.452
 1646SOL     OW 6711   8.608   1.031   4.421
 1646SOL    HW1 6712   8.583   1.112   4.378
 1646SOL    HW2 6713   8.645   0.977   4.351
 1647SOL     OW 6714   0.542  14.101   9.152
 1647SOL    HW1 6715   0.620  14.137   9.110
 1647SOL    HW2 6716   0.561  14.103   9.245
 1648SOL     OW 6717   8.286  14.713   8.619
 1648SOL    HW1 6718   8.369  14.758   8.633
 1648SOL    HW2 6719   8.226  14.781   8.587
 1649SOL     OW 6720   0.569   3.181   6.342
 1649SOL    HW1 6721   0.493   3.134   6.374
 1649SOL    HW2 6722   0.560   3.269   6.378
 1650SOL     OW 6723   8.238   8.272   3.941
 1650SOL    HW1 6724   8.240   8.189   3.988
 1650SOL    HW2 6725   8.280   8.334   4.001
 1651SOL     OW 6726   3.766   4.471   8.901
 1651SOL    HW1 6727   3.676   4.497   8.878
 1651SOL    HW2 6728   3.817   4.492   8.823
 1652SOL     OW 6729   9.929   8.752   1.712
 1652SOL    HW1 6730   9.851   8.740   1.658
 1652SOL    HW2 6731   9.916   8.837   1.754
 1653SOL     OW 6732   4.133  13.211  11.764
 1653SOL    HW1 6733   4.181  13.130  11.777
 1653SOL    HW2 6734   4.091  13.229  11.848
 1654SOL     OW 6735  13.368   8.307  11.139
 1654SOL    HW1 6736  13.330   8.392  11.161
 1654SOL    HW2 6737  13.294   8.246  11.137
 1655SOL     OW 6738   5.751   4.003   9.037
 1655SOL    HW1 6739   5.708   3.918   9.031
 1655SOL    HW2 6740   5.682   4.067   9.016
 1656SOL     OW 6741  13.503   6.220   2.636
 1656SOL    HW1 6742  13.531   6.308   2.612
 1656SOL    HW2 6743  13.566   6.162   2.593
 1657SOL     OW 6744   8.622   2.190   8.742
 1657SOL    HW1 6745   8.601   2.098   8.726
 1657SOL    HW2 6746   8.600   2.204   8.834
 1658SOL     OW 6747  14.246  12.659  14.865
 1658SOL    HW1 6748  14.193  12.614   0.052
 1658SOL    HW2 6749  14.214  12.627  14.780
 1659SOL     OW 6750   8.732   1.281   9.195
 1659SOL    HW1 6751   8.711   1.229   9.118
 1659SOL    HW2 6752   8.749   1.217   9.264
 1660SOL     OW 6753  11.563   1.307  10.456
 1660SOL    HW1 6754  11.635   1.327  10.516
 1660SOL    HW2 6755  11.488   1.289  10.513
 1661SOL     OW 6756   0.717   3.771   1.928
 1661SOL    HW1 6757   0.789   3.719   1.894
 1661SOL    HW2 6758   0.734   3.776   2.022
 1662SOL     OW 6759   3.388  12.253   9.122
 1662SOL    HW1 6760   3.476  12.255   9.159
 1662SOL    HW2 6761   3.331  12.282   9.193
 1663SOL     OW 6762   6.596   1.447   0.055
 1663SOL    HW1 6763   6.690   1.447   0.038
 1663SOL    HW2 6764   6.588   1.422   0.147
 1664SOL     OW 6765   3.050   3.012  13.560
 1664SOL    HW1 6766   3.046   2.920  13.534
 1664SOL    HW2 6767   3.101   3.055  13.491
 1665SOL     OW 6768   6.316   1.470   6.511
 1665SOL    HW1 6769   6.351   1.538   6.453
 1665SOL    HW2 6770   6.391   1.444   6.565
 1666SOL     OW 6771  10.432   9.452  10.953
 1666SOL    HW1 6772  10.374   9.437  10.879
 1666SOL    HW2 6773  10.518   9.423  10.923
 1667SOL     OW 6774  10.823   7.294   9.255
 1667SOL    HW1 6775  10.768   7.231   9.302
 1667SOL    HW2 6776  10.808   7.377   9.301
 1668SOL     OW 6777   6.934   0.692  14.341
 1668SOL    HW1 6778   6.989   0.654  14.409
 1668SOL    HW2 6779   6.895   0.616  14.297
 1669SOL     OW 6780  11.918   9.213  10.823
 1669SOL    HW1 6781  11.960   9.294  10.852
 1669SOL    HW2 6782  11.915   9.158  10.901
 1670SOL     OW 6783  11.168   6.859   6.768
 1670SOL    HW1 6784  11.094   6.897   6.816
 1670SOL    HW2 6785  11.135   6.776   6.735
 1671SOL     OW 6786   0.966  11.365  12.983
 1671SOL    HW1 6787   0.984  11.407  13.067
 1671SOL    HW2 6788   0.982  11.433  12.918
 1672SOL     OW 6789  13.060  11.429   7.903
 1672SOL    HW1 6790  13.025  11.476   7.978
 1672SOL    HW2 6791  12.985  11.417   7.845
 1673SOL     OW 6792  10.604   2.384   8.570
 1673SOL    HW1 6793  10.547   2.326   8.621
 1673SOL    HW2 6794  10.661   2.424   8.634
 1674SOL     OW 6795  13.520   6.441   2.188
 1674SOL    HW1 6796  13.608   6.479   2.180
 1674SOL    HW2 6797  13.521   6.365   2.131
 1675SOL     OW 6798   8.757   8.171  10.989
 1675SOL    HW1 6799   8.813   8.133  10.921
 1675SOL    HW2 6800   8.756   8.105  11.058
 1676SOL     OW 6801   0.090   7.902  14.315
 1676SOL    HW1 6802  14.877   7.926  14.297
 1676SOL    HW2 6803   0.090   7.880  14.408
 1677SOL     OW 6804  12.451   5.114   1.828
 1677SOL    HW1 6805  12.529   5.096   1.881
 1677SOL    HW2 6806  12.477   5.184   1.769
 1678SOL     OW 6807   5.250   6.754   6.220
 1678SOL    HW1 6808   5.292   6.795   6.296
 1678SOL    HW2 6809   5.301   6.784   6.145
 1679SOL     OW 6810  10.790   8.920   9.512
 1679SOL    HW1 6811  10.859   8.901   9.449
 1679SOL    HW2 6812  10.756   9.005   9.484
 1680SOL     OW 6813   5.439  12.964   5.688
 1680SOL    HW1 6814   5.534  12.968   5.701
 1680SOL    HW2 6815   5.427  12.899   5.620
 1681SOL     OW 6816  10.739   0.352   6.991
 1681SOL    HW1 6817  10.799   0.277   6.991
 1681SOL    HW2 6818  10.779   0.415   7.050
 1682SOL     OW 6819   7.031   0.417  10.447
 1682SOL    HW1 6820   7.092   0.360  10.401
 1682SOL    HW2 6821   6.948   0.407  10.401
 1683SOL     OW 6822   2.722   7.101  13.007
 1683SOL    HW1 6823   2.676   7.108  13.091
 1683SOL    HW2 6824   2.653   7.111  12.942
 1684SOL     OW 6825   6.605   4.546   3.008
 1684SOL    HW1 6826   6.541   4.538   2.937
 1684SOL    HW2 6827   6.644   4.633   2.995
 1685SOL     OW 6828   0.302   6.918   9.884
 1685SOL    HW1 6829   0.396   6.917   9.866
 1685SOL    HW2 6830   0.293   6.973   9.961
 1686SOL     OW 6831   0.326  14.685  10.033
 1686SOL    HW1 6832   0.264  14.615  10.054
 1686SOL    HW2 6833   0.373  14.653   9.956
 1687SOL     OW 6834   9.307   1.164   0.834
 1687SOL    HW1 6835   9.316   1.072   0.810
 1687SOL    HW2 6836   9.313   1.212   0.752
 1688SOL     OW 6837  13.293  13.169  12.581
 1688SOL    HW1 6838  13.292  13.254  12.624
 1688SOL    HW2 6839  13.298  13.105  12.652
 1689SOL     OW 6840   7.029   1.753   1.890
 1689SOL    HW1 6841   7.055   1.727   1.801
 1689SOL    HW2 6842   7.033   1.848   1.889
 1690SOL     OW 6843   3.245   2.893  13.306
 1690SOL    HW1 6844   3.323   2.947  13.317
 1690SOL    HW2 6845   3.265   2.812  13.353
 1691SOL     OW 6846   8.783   4.969   9.168
 1691SOL    HW1 6847   8.856   5.000   9.115
 1691SOL    HW2 6848   8.806   4.878   9.190
 1692SOL     OW 6849   8.930   7.349   1.598
 1692SOL    HW1 6850   8.855   7.402   1.625
 1692SOL    HW2 6851   8.934   7.279   1.663
 1693SOL     OW 6852   1.689   6.318   9.522
 1693SOL    HW1 6853   1.670   6.410   9.536
 1693SOL    HW2 6854   1.783   6.310   9.536
 1694SOL     OW 6855   9.614  10.122  14.599
 1694SOL    HW1 6856   9.626  10.119  14.504
 1694SOL    HW2 6857   9.565  10.042  14.619
 1695SOL     OW 6858   4.550   0.585   7.780
 1695SOL    HW1 6859   4.543   0.679   7.801
 1695SOL    HW2 6860   4.635   0.576   7.736
 1696SOL     OW 6861   6.451  10.628   4.821
 1696SOL    HW1 6862   6.416  10.557   4.875
 1696SOL    HW2 6863   6.504  10.680   4.881
 1697SOL     OW 6864   1.677  12.131   0.695
 1697SOL    HW1 6865   1.632  12.139   0.779
 1697SOL    HW2 6866   1.610  12.099   0.635
 1698SOL     OW 6867  10.198   1.648   9.252
 1698SOL    HW1 6868  10.203   1.624   9.159
 1698SOL    HW2 6869  10.289   1.655   9.279
 1699SOL     OW 6870   1.577  14.828  10.019
 1699SOL    HW1 6871   1.529  14.760  10.066
 1699SOL    HW2 6872   1.638  14.780   9.962
 1700SOL     OW 6873  14.123   6.513   5.305
 1700SOL    HW1 6874  14.062   6.474   5.369
 1700SOL    HW2 6875  14.168   6.582   5.354
 1701SOL     OW 6876   7.696   9.482   7.744
 1701SOL    HW1 6877   7.692   9.469   7.649
 1701SOL    HW2 6878   7.787   9.505   7.761
 1702SOL     OW 6879   2.889   5.971  10.896
 1702SOL    HW1 6880   2.974   5.938  10.866
 1702SOL    HW2 6881   2.839   5.985  10.815
 1703SOL     OW 6882  13.252   4.316   4.122
 1703SOL    HW1 6883  13.247   4.300   4.028
 1703SOL    HW2 6884  13.162   4.335   4.147
 1704SOL     OW 6885   6.544   9.035  14.666
 1704SOL    HW1 6886   6.474   9.078  14.715
 1704SOL    HW2 6887   6.556   9.088  14.588
 1705SOL     OW 6888   3.889   9.085   4.476
 1705SOL    HW1 6889   3.860   9.041   4.557
 1705SOL    HW2 6890   3.831   9.049   4.408
 1706SOL     OW 6891   7.677   7.767   3.567
 1706SOL    HW1 6892   7.642   7.707   3.632
 1706SOL    HW2 6893   7.737   7.713   3.515
 1707SOL     OW 6894  14.583   8.533   6.367
 1707SOL    HW1 6895  14.641   8.493   6.432
 1707SOL    HW2 6896  14.524   8.588   6.418
 1708SOL     OW 6897  13.776   1.579   4.617
 1708SOL    HW1 6898  13.714   1.518   4.658
 1708SOL    HW2 6899  13.859   1.561   4.660
 1709SOL     OW 6900   6.641   5.088   9.891
 1709SOL    HW1 6901   6.648   5.055   9.802
 1709SOL    HW2 6902   6.714   5.046   9.938
 1710SOL     OW 6903   9.774  10.699  11.105
 1710SOL    HW1 6904   9.865  10.677  11.081
 1710SOL    HW2 6905   9.723  10.676  11.028
 1711SOL     OW 6906   1.001  13.278   3.306
 1711SOL    HW1 6907   0.970  13.349   3.250
 1711SOL    HW2 6908   1.092  13.265   3.280
 1712SOL     OW 6909   1.098  11.247   8.372
 1712SOL    HW1 6910   1.014  11.290   8.357
 1712SOL    HW2 6911   1.147  11.309   8.427
 1713SOL     OW 6912   6.189   8.336  11.700
 1713SOL    HW1 6913   6.137   8.286  11.762
 1713SOL    HW2 6914   6.124   8.383  11.647
 1714SOL     OW 6915   5.084   4.485   7.745
 1714SOL    HW1 6916   5.046   4.483   7.657
 1714SOL    HW2 6917   5.057   4.403   7.785
 1715SOL     OW 6918  10.991   5.730  13.479
 1715SOL    HW1 6919  11.030   5.681  13.407
 1715SOL    HW2 6920  11.034   5.816  13.475
 1716SOL     OW 6921   6.937   0.391  10.121
 1716SOL    HW1 6922   7.004   0.324  10.105
 1716SOL    HW2 6923   6.923   0.431  10.036
 1717SOL     OW 6924   5.358  12.143   1.664
 1717SOL    HW1 6925   5.346  12.222   1.717
 1717SOL    HW2 6926   5.312  12.162   1.582
 1718SOL     OW 6927  10.022   4.593   9.209
 1718SOL    HW1 6928  10.079   4.561   9.279
 1718SOL    HW2 6929   9.997   4.515   9.161
 1719SOL     OW 6930  12.631   6.967  11.737
 1719SOL    HW1 6931  12.563   7.033  11.748
 1719SOL    HW2 6932  12.649   6.966  11.643
 1720SOL     OW 6933  14.869   6.425   8.266
 1720SOL    HW1 6934   0.053   6.384   8.205
 1720SOL    HW2 6935  14.799   6.360   8.274
 1721SOL     OW 6936   4.357  12.773   0.415
 1721SOL    HW1 6937   4.265  12.754   0.430
 1721SOL    HW2 6938   4.392  12.793   0.502
 1722SOL     OW 6939   9.026   4.925  10.406
 1722SOL    HW1 6940   8.984   5.007  10.378
 1722SOL    HW2 6941   9.035   4.874  10.326
 1723SOL     OW 6942   9.355   5.272  14.737
 1723SOL    HW1 6943   9.381   5.192  14.693
 1723SOL    HW2 6944   9.347   5.248  14.829
 1724SOL     OW 6945  12.240   1.612  14.248
 1724SOL    HW1 6946  12.265   1.585  14.336
 1724SOL    HW2 6947  12.197   1.536  14.210
 1725SOL     OW 6948   9.281   8.226  10.882
 1725SOL    HW1 6949   9.271   8.135  10.855
 1725SOL    HW2 6950   9.248   8.228  10.972
 1726SOL     OW 6951   2.654   9.101   8.784
 1726SOL    HW1 6952   2.690   9.084   8.871
 1726SOL    HW2 6953   2.716   9.162   8.743
 1727SOL     OW 6954   2.294   0.940   7.145
 1727SOL    HW1 6955   2.282   1.033   7.165
 1727SOL    HW2 6956   2.271   0.895   7.226
 1728SOL     OW 6957   8.572   4.340   7.849
 1728SOL    HW1 6958   8.491   4.367   7.894
 1728SOL    HW2 6959   8.602   4.420   7.805
 1729SOL     OW 6960   2.229   5.396   7.131
 1729SOL    HW1 6961   2.138   5.364   7.136
 1729SOL    HW2 6962   2.261   5.388   7.221
 1730SOL     OW 6963   6.777   4.648  11.579
 1730SOL    HW1 6964   6.872   4.654  11.586
 1730SOL    HW2 6965   6.759   4.554  11.583
 1731SOL     OW 6966  11.103  12.147  10.282
 1731SOL    HW1 6967  11.146  12.092  10.349
 1731SOL    HW2 6968  11.162  12.221  10.270
 1732SOL     OW 6969   0.771  10.313   7.986
 1732SOL    HW1 6970   0.849  10.346   8.032
 1732SOL    HW2 6971   0.791  10.222   7.967
 1733SOL     OW 6972   2.749  14.627  13.824
 1733SOL    HW1 6973   2.840  14.601  13.834
 1733SOL    HW2 6974   2.701  14.544  13.818
 1734SOL     OW 6975   5.369   9.517   7.319
 1734SOL    HW1 6976   5.343   9.478   7.403
 1734SOL    HW2 6977   5.287   9.523   7.269
 1735SOL     OW 6978   0.900   3.516   2.266
 1735SOL    HW1 6979   0.905   3.435   2.317
 1735SOL    HW2 6980   0.859   3.491   2.184
 1736SOL     OW 6981   2.996  12.359   3.315
 1736SOL    HW1 6982   3.062  12.421   3.346
 1736SOL    HW2 6983   3.046  12.281   3.289
 1737SOL     OW 6984   5.856   8.418   9.974
 1737SOL    HW1 6985   5.762   8.416   9.954
 1737SOL    HW2 6986   5.869   8.502  10.017
 1738SOL     OW 6987   6.264   3.031   2.452
 1738SOL    HW1 6988   6.289   3.116   2.416
 1738SOL    HW2 6989   6.171   3.042   2.475
 1739SOL     OW 6990  14.210  12.988  10.097
 1739SOL    HW1 6991  14.159  13.054  10.051
 1739SOL    HW2 6992  14.152  12.912  10.103
 1740SOL     OW 6993   3.545  14.798   4.820
 1740SOL    HW1 6994   3.460  14.837   4.841
 1740SOL    HW2 6995   3.565  14.828   4.732
 1741SOL     OW 6996  12.860   5.086   6.176
 1741SOL    HW1 6997  12.844   5.021   6.108
 1741SOL    HW2 6998  12.863   5.035   6.258
 1742SOL     OW 6999   6.296   9.374   4.977
 1742SOL    HW1 7000   6.341   9.422   4.908
 1742SOL    HW2 7001   6.325   9.416   5.058
 1743SOL     OW 7002   4.719  13.774   1.170
 1743SOL    HW1 7003   4.766  13.708   1.120
 1743SOL    HW2 7004   4.784  13.843   1.184
 1744SOL     OW 7005   8.716   9.344   5.010
 1744SOL    HW1 7006   8.792   9.388   4.972
 1744SOL    HW2 7007   8.752   9.284   5.076
 1745SOL     OW 7008   4.176  10.695   4.442
 1745SOL    HW1 7009   4.117  10.683   4.516
 1745SOL    HW2 7010   4.249  10.745   4.478
 1746SOL     OW 7011   1.301   2.531  14.127
 1746SOL    HW1 7012   1.281   2.600  14.191
 1746SOL    HW2 7013   1.252   2.557  14.049
 1747SOL     OW 7014   5.396  10.980   8.932
 1747SOL    HW1 7015   5.418  11.064   8.893
 1747SOL    HW2 7016   5.470  10.923   8.910
 1748SOL     OW 7017   7.429   0.008   1.764
 1748SOL    HW1 7018   7.497  14.839   1.715
 1748SOL    HW2 7019   7.465   0.096   1.776
 1749SOL     OW 7020   1.932   9.925   4.020
 1749SOL    HW1 7021   1.998   9.994   4.013
 1749SOL    HW2 7022   1.942   9.892   4.109
 1750SOL     OW 7023   6.031   5.763   4.000
 1750SOL    HW1 7024   6.006   5.786   3.911
 1750SOL    HW2 7025   6.002   5.672   4.011
 1751SOL     OW 7026  13.902   6.267  10.416
 1751SOL    HW1 7027  13.925   6.322  10.491
 1751SOL    HW2 7028  13.966   6.196  10.418
 1752SOL     OW 7029   0.444   3.054   4.573
 1752SOL    HW1 7030   0.539   3.041   4.577
 1752SOL    HW2 7031   0.420   3.077   4.663
 1753SOL     OW 7032   1.968   0.593   1.174
 1753SOL    HW1 7033   1.917   0.665   1.137
 1753SOL    HW2 7034   1.907   0.545   1.229
 1754SOL     OW 7035   6.303   0.849   0.154
 1754SOL    HW1 7036   6.301   0.761   0.191
 1754SOL    HW2 7037   6.221   0.857   0.106
 1755SOL     OW 7038  12.735  11.446   0.029
 1755SOL    HW1 7039  12.758  11.511   0.095
 1755SOL    HW2 7040  12.684  11.380   0.077
 1756SOL     OW 7041  12.945   5.276  10.999
 1756SOL    HW1 7042  12.946   5.334  10.923
 1756SOL    HW2 7043  12.905   5.195  10.967
 1757SOL     OW 7044  10.881  10.655   9.766
 1757SOL    HW1 7045  10.901  10.732   9.820
 1757SOL    HW2 7046  10.964  10.634   9.724
 1758SOL     OW 7047  10.242   3.516   1.257
 1758SOL    HW1 7048  10.219   3.528   1.165
 1758SOL    HW2 7049  10.292   3.434   1.258
 1759SOL     OW 7050  10.514   5.666   3.031
 1759SOL    HW1 7051  10.549   5.716   2.958
 1759SOL    HW2 7052  10.591   5.632   3.077
 1760SOL     OW 7053   9.310  11.265   3.964
 1760SOL    HW1 7054   9.344  11.353   3.984
 1760SOL    HW2 7055   9.305  11.263   3.868
 1761SOL     OW 7056   6.915   7.827   8.011
 1761SOL    HW1 7057   6.823   7.849   8.024
 1761SOL    HW2 7058   6.955   7.908   7.981
 1762SOL     OW 7059   2.644   6.565   5.884
 1762SOL    HW1 7060   2.590   6.487   5.893
 1762SOL    HW2 7061   2.705   6.545   5.814
 1763SOL     OW 7062   1.749   1.115  13.004
 1763SOL    HW1 7063   1.765   1.102  13.097
 1763SOL    HW2 7064   1.728   1.208  12.996
 1764SOL     OW 7065   8.702   6.865   8.931
 1764SOL    HW1 7066   8.745   6.915   9.001
 1764SOL    HW2 7067   8.759   6.790   8.917
 1765SOL     OW 7068  13.978  14.670   4.053
 1765SOL    HW1 7069  13.927  14.751   4.051
 1765SOL    HW2 7070  14.032  14.678   4.132
 1766SOL     OW 7071   2.584   5.118   7.918
 1766SOL    HW1 7072   2.558   5.047   7.977
 1766SOL    HW2 7073   2.592   5.075   7.832
 1767SOL     OW 7074   5.155   0.796  13.356
 1767SOL    HW1 7075   5.140   0.752  13.439
 1767SOL    HW2 7076   5.227   0.748  13.315
 1768SOL     OW 7077  11.762   9.401  12.961
 1768SOL    HW1 7078  11.670   9.427  12.956
 1768SOL    HW2 7079  11.809   9.468  12.910
 1769SOL     OW 7080   8.064   7.784   8.865
 1769SOL    HW1 7081   8.123   7.832   8.807
 1769SOL    HW2 7082   8.065   7.694   8.832
 1770SOL     OW 7083  11.312   8.300   1.610
 1770SOL    HW1 7084  11.222   8.313   1.640
 1770SOL    HW2 7085  11.357   8.382   1.631
 1771SOL     OW 7086   9.184  10.802   4.846
 1771SOL    HW1 7087   9.108  10.766   4.892
 1771SOL    HW2 7088   9.166  10.786   4.753
 1772SOL     OW 7089   4.154   9.779   3.515
 1772SOL    HW1 7090   4.160   9.687   3.539
 1772SOL    HW2 7091   4.226   9.821   3.561
 1773SOL     OW 7092   7.486   7.363  13.042
 1773SOL    HW1 7093   7.514   7.322  12.960
 1773SOL    HW2 7094   7.391   7.351  13.044
 1774SOL     OW 7095   1.989   6.704  12.329
 1774SOL    HW1 7096   2.031   6.761  12.265
 1774SOL    HW2 7097   1.896   6.716  12.315
 1775SOL     OW 7098  11.617   7.041  11.296
 1775SOL    HW1 7099  11.636   7.128  11.333
 1775SOL    HW2 7100  11.522   7.034  11.298
 1776SOL     OW 7101   6.398   5.511   8.757
 1776SOL    HW1 7102   6.399   5.587   8.699
 1776SOL    HW2 7103   6.431   5.439   8.703
 1777SOL     OW 7104   3.302  13.935   8.639
 1777SOL    HW1 7105   3.272  14.026   8.649
 1777SOL    HW2 7106   3.389  13.935   8.678
 1778SOL     OW 7107   3.277   1.582  13.084
 1778SOL    HW1 7108   3.271   1.636  13.163
 1778SOL    HW2 7109   3.359   1.534  13.094
 1779SOL     OW 7110   7.891   6.700   6.361
 1779SOL    HW1 7111   7.872   6.788   6.393
 1779SOL    HW2 7112   7.939   6.658   6.432
 1780SOL     OW 7113  14.106   4.652   4.174
 1780SOL    HW1 7114  14.173   4.688   4.232
 1780SOL    HW2 7115  14.110   4.707   4.096
 1781SOL     OW 7116  11.889   8.166   9.182
 1781SOL    HW1 7117  11.936   8.086   9.160
 1781SOL    HW2 7118  11.865   8.203   9.098
 1782SOL     OW 7119   9.712  11.805   4.854
 1782SOL    HW1 7120   9.710  11.844   4.767
 1782SOL    HW2 7121   9.621  11.781   4.872
 1783SOL     OW 7122   9.312   7.684  10.947
 1783SOL    HW1 7123   9.264   7.763  10.923
 1783SOL    HW2 7124   9.336   7.644  10.864
 1784SOL     OW 7125   1.081  12.696   9.909
 1784SOL    HW1 7126   0.999  12.647   9.921
 1784SOL    HW2 7127   1.063  12.783   9.947
 1785SOL     OW 7128  11.896   0.349   8.473
 1785SOL    HW1 7129  11.855   0.436   8.480
 1785SOL    HW2 7130  11.989   0.365   8.487
 1786SOL     OW 7131   0.905   2.491   4.492
 1786SOL    HW1 7132   0.980   2.436   4.471
 1786SOL    HW2 7133   0.916   2.511   4.585
 1787SOL     OW 7134   1.605   0.579   1.993
 1787SOL    HW1 7135   1.594   0.672   1.977
 1787SOL    HW2 7136   1.677   0.573   2.055
 1788SOL     OW 7137   4.476   0.452   6.992
 1788SOL    HW1 7138   4.526   0.526   7.025
 1788SOL    HW2 7139   4.519   0.428   6.910
 1789SOL     OW 7140  10.874   4.828   6.419
 1789SOL    HW1 7141  10.933   4.900   6.442
 1789SOL    HW2 7142  10.909   4.752   6.465
 1790SOL     OW 7143  11.163   9.963   4.820
 1790SOL    HW1 7144  11.189  10.008   4.900
 1790SOL    HW2 7145  11.211   9.880   4.823
 1791SOL     OW 7146   0.027   9.160   6.234
 1791SOL    HW1 7147   0.046   9.122   6.320
 1791SOL    HW2 7148   0.035   9.086   6.173
 1792SOL     OW 7149   9.355   9.164   0.166
 1792SOL    HW1 7150   9.279   9.207   0.126
 1792SOL    HW2 7151   9.324   9.134   0.251
 1793SOL     OW 7152   4.927   1.575   4.087
 1793SOL    HW1 7153   4.883   1.652   4.123
 1793SOL    HW2 7154   4.936   1.516   4.162
 1794SOL     OW 7155   3.894   6.117   8.837
 1794SOL    HW1 7156   3.868   6.156   8.754
 1794SOL    HW2 7157   3.920   6.191   8.892
 1795SOL     OW 7158   3.532   2.707   8.929
 1795SOL    HW1 7159   3.522   2.705   9.024
 1795SOL    HW2 7160   3.610   2.654   8.911
 1796SOL     OW 7161   7.660  11.208  10.771
 1796SOL    HW1 7162   7.603  11.238  10.842
 1796SOL    HW2 7163   7.677  11.286  10.719
 1797SOL     OW 7164   6.127   0.251  11.701
 1797SOL    HW1 7165   6.106   0.328  11.753
 1797SOL    HW2 7166   6.157   0.286  11.617
 1798SOL     OW 7167  13.859  13.698   2.824
 1798SOL    HW1 7168  13.856  13.778   2.772
 1798SOL    HW2 7169  13.795  13.712   2.894
 1799SOL     OW 7170   3.808   4.803   1.347
 1799SOL    HW1 7171   3.876   4.838   1.290
 1799SOL    HW2 7172   3.852   4.734   1.397
 1800SOL     OW 7173  13.684   2.952   8.207
 1800SOL    HW1 7174  13.645   3.029   8.247
 1800SOL    HW2 7175  13.621   2.882   8.224
 1801SOL     OW 7176  14.747   1.359  14.702
 1801SOL    HW1 7177  14.777   1.361  14.611
 1801SOL    HW2 7178  14.824   1.331  14.751
 1802SOL     OW 7179   6.139  13.509   7.147
 1802SOL    HW1 7180   6.218  13.537   7.102
 1802SOL    HW2 7181   6.080  13.482   7.077
 1803SOL     OW 7182  12.706   0.072   2.066
 1803SOL    HW1 7183  12.778   0.096   2.125
 1803SOL    HW2 7184  12.628   0.110   2.107
 1804SOL     OW 7185   3.138   2.794   0.198
 1804SOL    HW1 7186   3.074   2.774   0.265
 1804SOL    HW2 7187   3.099   2.762   0.117
 1805SOL     OW 7188   5.473   0.268  13.096
 1805SOL    HW1 7189   5.497   0.185  13.138
 1805SOL    HW2 7190   5.480   0.250  13.003
 1806SOL     OW 7191   8.882   0.708   9.631
 1806SOL    HW1 7192   8.960   0.664   9.664
 1806SOL    HW2 7193   8.836   0.642   9.579
 1807SOL     OW 7194  12.887   1.862   2.376
 1807SOL    HW1 7195  12.949   1.922   2.334
 1807SOL    HW2 7196  12.920   1.852   2.465
 1808SOL     OW 7197  12.076  11.081   3.872
 1808SOL    HW1 7198  12.085  11.029   3.793
 1808SOL    HW2 7199  12.054  11.018   3.941
 1809SOL     OW 7200  12.251   9.328   9.765
 1809SOL    HW1 7201  12.230   9.268   9.694
 1809SOL    HW2 7202  12.167   9.368   9.789
 1810SOL     OW 7203   2.694   9.757   0.586
 1810SOL    HW1 7204   2.681   9.774   0.493
 1810SOL    HW2 7205   2.688   9.662   0.594
 1811SOL     OW 7206   6.256  12.574  10.471
 1811SOL    HW1 7207   6.167  12.539  10.479
 1811SOL    HW2 7208   6.266  12.631  10.548
 1812SOL     OW 7209   6.612   9.092  11.207
 1812SOL    HW1 7210   6.653   9.149  11.142
 1812SOL    HW2 7211   6.555   9.150  11.257
 1813SOL     OW 7212   7.309  14.670   3.034
 1813SOL    HW1 7213   7.384  14.708   2.989
 1813SOL    HW2 7214   7.263  14.745   3.072
 1814SOL     OW 7215   3.113  11.205   4.807
 1814SOL    HW1 7216   3.044  11.144   4.779
 1814SOL    HW2 7217   3.112  11.200   4.903
 1815SOL     OW 7218  12.817   6.852   8.029
 1815SOL    HW1 7219  12.730   6.866   7.991
 1815SOL    HW2 7220  12.805   6.873   8.122
 1816SOL     OW 7221   4.326   3.906   1.671
 1816SOL    HW1 7222   4.414   3.926   1.703
 1816SOL    HW2 7223   4.306   3.821   1.710
 1817SOL     OW 7224   0.478   8.550   6.501
 1817SOL    HW1 7225   0.477   8.646   6.502
 1817SOL    HW2 7226   0.562   8.527   6.462
 1818SOL     OW 7227   5.965   5.243  11.061
 1818SOL    HW1 7228   6.022   5.319  11.074
 1818SOL    HW2 7229   5.877   5.278  11.061
 1819SOL     OW 7230   4.109  11.214  13.930
 1819SOL    HW1 7231   4.100  11.234  14.023
 1819SOL    HW2 7232   4.177  11.146  13.927
 1820SOL     OW 7233  14.514   2.334   9.004
 1820SOL    HW1 7234  14.514   2.414   8.950
 1820SOL    HW2 7235  14.423   2.326   9.033
 1821SOL     OW 7236   3.928   2.747   3.553
 1821SOL    HW1 7237   3.952   2.785   3.468
 1821SOL    HW2 7238   3.980   2.795   3.617
 1822SOL     OW 7239  12.391   4.946   4.541
 1822SOL    HW1 7240  12.314   4.967   4.593
 1822SOL    HW2 7241  12.391   4.850   4.535
 1823SOL     OW 7242   8.200  10.994   4.823
 1823SOL    HW1 7243   8.205  11.090   4.820
 1823SOL    HW2 7244   8.106  10.976   4.829
 1824SOL     OW 7245   6.236   9.132   8.816
 1824SOL    HW1 7246   6.308   9.177   8.860
 1824SOL    HW2 7247   6.264   9.040   8.811
 1825SOL     OW 7248   6.599   7.932   2.199
 1825SOL    HW1 7249   6.681   7.982   2.201
 1825SOL    HW2 7250   6.531   7.997   2.182
 1826SOL     OW 7251   0.724   0.418   6.193
 1826SOL    HW1 7252   0.778   0.351   6.150
 1826SOL    HW2 7253   0.780   0.451   6.264
 1827SOL     OW 7254   0.597   7.793   3.805
 1827SOL    HW1 7255   0.511   7.809   3.843
 1827SOL    HW2 7256   0.608   7.861   3.739
 1828SOL     OW 7257  11.456   1.810   0.159
 1828SOL    HW1 7258  11.450   1.715   0.169
 1828SOL    HW2 7259  11.366   1.842   0.175
 1829SOL     OW 7260  11.338  12.494  12.452
 1829SOL    HW1 7261  11.269  12.475  12.388
 1829SOL    HW2 7262  11.316  12.440  12.528
 1830SOL     OW 7263   7.505   3.650   8.236
 1830SOL    HW1 7264   7.428   3.705   8.224
 1830SOL    HW2 7265   7.496   3.616   8.325
 1831SOL     OW 7266   1.822  12.123  14.612
 1831SOL    HW1 7267   1.904  12.091  14.574
 1831SOL    HW2 7268   1.823  12.090  14.703
 1832SOL     OW 7269   6.888   8.823  10.341
 1832SOL    HW1 7270   6.912   8.844  10.431
 1832SOL    HW2 7271   6.956   8.761  10.312
 1833SOL     OW 7272  12.995   2.489   4.455
 1833SOL    HW1 7273  13.063   2.555   4.444
 1833SOL    HW2 7274  12.950   2.513   4.536
 1834SOL     OW 7275   2.241   0.496  10.198
 1834SOL    HW1 7276   2.195   0.425  10.154
 1834SOL    HW2 7277   2.207   0.496  10.288
 1835SOL     OW 7278  11.345   2.004  10.861
 1835SOL    HW1 7279  11.364   1.959  10.943
 1835SOL    HW2 7280  11.319   1.935  10.801
 1836SOL     OW 7281  13.315  13.283  11.295
 1836SOL    HW1 7282  13.325  13.270  11.201
 1836SOL    HW2 7283  13.318  13.195  11.332
 1837SOL     OW 7284   8.621   2.325  13.311
 1837SOL    HW1 7285   8.644   2.365  13.395
 1837SOL    HW2 7286   8.540   2.278  13.328
 1838SOL     OW 7287   3.336   5.829   0.641
 1838SOL    HW1 7288   3.392   5.847   0.716
 1838SOL    HW2 7289   3.267   5.772   0.674
 1839SOL     OW 7290   3.006   3.855   6.148
 1839SOL    HW1 7291   3.098   3.839   6.127
 1839SOL    HW2 7292   2.978   3.920   6.084
 1840SOL     OW 7293  11.237   2.844   4.215
 1840SOL    HW1 7294  11.168   2.812   4.274
 1840SOL    HW2 7295  11.309   2.868   4.273
 1841SOL     OW 7296   6.796   5.821   4.519
 1841SOL    HW1 7297   6.799   5.843   4.612
 1841SOL    HW2 7298   6.883   5.786   4.500
 1842SOL     OW 7299   8.765  14.627  11.320
 1842SOL    HW1 7300   8.712  14.598  11.246
 1842SOL    HW2 7301   8.738  14.571  11.393
 1843SOL     OW 7302  10.163  12.961   0.175
 1843SOL    HW1 7303  10.130  12.881   0.133
 1843SOL    HW2 7304  10.231  12.930   0.235
 1844SOL     OW 7305   1.921   1.751   2.468
 1844SOL    HW1 7306   2.004   1.780   2.506
 1844SOL    HW2 7307   1.939   1.661   2.438
 1845SOL     OW 7308  10.105  14.458   6.327
 1845SOL    HW1 7309  10.095  14.528   6.392
 1845SOL    HW2 7310  10.118  14.379   6.378
 1846SOL     OW 7311   7.785   7.490   1.479
 1846SOL    HW1 7312   7.691   7.478   1.490
 1846SOL    HW2 7313   7.796   7.583   1.462
 1847SOL     OW 7314   5.055   1.636  11.692
 1847SOL    HW1 7315   5.052   1.552  11.646
 1847SOL    HW2 7316   5.098   1.695  11.631
 1848SOL     OW 7317   0.816  11.135   3.049
 1848SOL    HW1 7318   0.830  11.091   2.965
 1848SOL    HW2 7319   0.905  11.146   3.085
 1849SOL     OW 7320   2.618   9.477   4.700
 1849SOL    HW1 7321   2.562   9.484   4.623
 1849SOL    HW2 7322   2.558   9.489   4.774
 1850SOL     OW 7323   4.122  10.716   6.539
 1850SOL    HW1 7324   4.085  10.627   6.542
 1850SOL    HW2 7325   4.094  10.756   6.621
 1851SOL     OW 7326  10.720  10.863  12.988
 1851SOL    HW1 7327  10.710  10.817  12.905
 1851SOL    HW2 7328  10.792  10.818  13.032
 1852SOL     OW 7329  13.637   0.722  10.005
 1852SOL    HW1 7330  13.565   0.760   9.956
 1852SOL    HW2 7331  13.714   0.772   9.977
 1853SOL     OW 7332   6.969   9.764  12.867
 1853SOL    HW1 7333   7.010   9.843  12.905
 1853SOL    HW2 7334   6.980   9.697  12.935
 1854SOL     OW 7335   0.856   9.642  11.484
 1854SOL    HW1 7336   0.904   9.683  11.556
 1854SOL    HW2 7337   0.803   9.713  11.447
 1855SOL     OW 7338  13.135   5.256  13.137
 1855SOL    HW1 7339  13.113   5.347  13.117
 1855SOL    HW2 7340  13.162   5.258  13.229
 1856SOL     OW 7341   8.663   5.606   2.792
 1856SOL    HW1 7342   8.643   5.690   2.833
 1856SOL    HW2 7343   8.598   5.545   2.828
 1857SOL     OW 7344   0.651   4.687  13.758
 1857SOL    HW1 7345   0.648   4.724  13.669
 1857SOL    HW2 7346   0.594   4.610  13.753
 1858SOL     OW 7347  14.101   6.693   6.671
 1858SOL    HW1 7348  14.178   6.724   6.624
 1858SOL    HW2 7349  14.032   6.756   6.649
 1859SOL     OW 7350  14.765  12.542   6.605
 1859SOL    HW1 7351  14.696  12.604   6.625
 1859SOL    HW2 7352  14.784  12.556   6.512
 1860SOL     OW 7353   7.983   3.845   4.749
 1860SOL    HW1 7354   8.011   3.920   4.697
 1860SOL    HW2 7355   7.960   3.779   4.684
 1861SOL     OW 7356  11.237  10.057   5.058
 1861SOL    HW1 7357  11.174  10.125   5.084
 1861SOL    HW2 7358  11.223   9.987   5.121
 1862SOL     OW 7359   3.235   6.228   0.045
 1862SOL    HW1 7360   3.215   6.286   0.119
 1862SOL    HW2 7361   3.151   6.212   0.003
 1863SOL     OW 7362   1.176   3.214  10.418
 1863SOL    HW1 7363   1.173   3.303  10.381
 1863SOL    HW2 7364   1.085   3.197  10.444
 1864SOL     OW 7365   4.676  14.720   5.979
 1864SOL    HW1 7366   4.582  14.714   5.963
 1864SOL    HW2 7367   4.698  14.641   6.028
 1865SOL     OW 7368  11.306   0.376   2.484
 1865SOL    HW1 7369  11.277   0.386   2.575
 1865SOL    HW2 7370  11.237   0.416   2.432
 1866SOL     OW 7371  11.343   5.735   1.475
 1866SOL    HW1 7372  11.350   5.695   1.388
 1866SOL    HW2 7373  11.389   5.819   1.466
 1867SOL     OW 7374   3.064   3.839   1.122
 1867SOL    HW1 7375   3.017   3.841   1.205
 1867SOL    HW2 7376   3.153   3.869   1.143
 1868SOL     OW 7377  13.056  13.522  13.446
 1868SOL    HW1 7378  12.977  13.572  13.427
 1868SOL    HW2 7379  13.071  13.469  13.368
 1869SOL     OW 7380   2.257   7.115   6.751
 1869SOL    HW1 7381   2.190   7.131   6.818
 1869SOL    HW2 7382   2.208   7.086   6.674
 1870SOL     OW 7383   0.707   5.911   3.260
 1870SOL    HW1 7384   0.709   6.007   3.262
 1870SOL    HW2 7385   0.795   5.886   3.232
 1871SOL     OW 7386   1.337   7.703   4.447
 1871SOL    HW1 7387   1.322   7.659   4.364
 1871SOL    HW2 7388   1.253   7.699   4.492
 1872SOL     OW 7389   3.966   7.811   1.620
 1872SOL    HW1 7390   4.056   7.835   1.645
 1872SOL    HW2 7391   3.976   7.731   1.569
 1873SOL     OW 7392  12.963   9.965   4.000
 1873SOL    HW1 7393  13.019  10.023   4.051
 1873SOL    HW2 7394  12.875   9.978   4.036
 1874SOL     OW 7395   0.262   2.793   7.143
 1874SOL    HW1 7396   0.280   2.864   7.204
 1874SOL    HW2 7397   0.313   2.719   7.176
 1875SOL     OW 7398   4.610   4.243  12.481
 1875SOL    HW1 7399   4.697   4.279  12.464
 1875SOL    HW2 7400   4.560   4.316  12.518
 1876SOL     OW 7401   9.134   8.655   7.599
 1876SOL    HW1 7402   9.123   8.589   7.667
 1876SOL    HW2 7403   9.214   8.701   7.622
 1877SOL     OW 7404   1.462  10.339   7.290
 1877SOL    HW1 7405   1.505  10.386   7.362
 1877SOL    HW2 7406   1.506  10.254   7.287
 1878SOL     OW 7407   3.367   1.935   8.312
 1878SOL    HW1 7408   3.443   1.915   8.257
 1878SOL    HW2 7409   3.332   1.849   8.335
 1879SOL     OW 7410  13.706   7.636   0.385
 1879SOL    HW1 7411  13.701   7.637   0.481
 1879SOL    HW2 7412  13.781   7.691   0.365
 1880SOL     OW 7413   5.004   7.098  13.788
 1880SOL    HW1 7414   4.980   7.118  13.878
 1880SOL    HW2 7415   4.951   7.021  13.766
 1881SOL     OW 7416   2.220   4.951   9.773
 1881SOL    HW1 7417   2.172   4.870   9.755
 1881SOL    HW2 7418   2.247   4.983   9.687
 1882SOL     OW 7419   8.850   4.347  12.350
 1882SOL    HW1 7420   8.854   4.387  12.437
 1882SOL    HW2 7421   8.898   4.264  12.359
 1883SOL     OW 7422  10.296   4.841   2.290
 1883SOL    HW1 7423  10.222   4.787   2.318
 1883SOL    HW2 7424  10.256   4.924   2.263
 1884SOL     OW 7425   8.122   7.913   2.612
 1884SOL    HW1 7426   8.207   7.876   2.589
 1884SOL    HW2 7427   8.132   7.941   2.703
 1885SOL     OW 7428   4.642   0.100   2.559
 1885SOL    HW1 7429   4.578   0.031   2.574
 1885SOL    HW2 7430   4.656   0.140   2.645
 1886SOL     OW 7431   6.318   1.262   2.885
 1886SOL    HW1 7432   6.307   1.351   2.851
 1886SOL    HW2 7433   6.229   1.227   2.892
 1887SOL     OW 7434   3.508  12.488  10.680
 1887SOL    HW1 7435   3.525  12.431  10.756
 1887SOL    HW2 7436   3.425  12.531  10.700
 1888SOL     OW 7437   7.888   4.629   0.526
 1888SOL    HW1 7438   7.808   4.672   0.495
 1888SOL    HW2 7439   7.923   4.585   0.449
 1889SOL     OW 7440   0.179   4.388  13.328
 1889SOL    HW1 7441   0.096   4.433  13.340
 1889SOL    HW2 7442   0.178   4.359  13.236
 1890SOL     OW 7443   9.482   3.086   7.508
 1890SOL    HW1 7444   9.427   3.018   7.545
 1890SOL    HW2 7445   9.422   3.143   7.460
 1891SOL     OW 7446   9.090   2.548   8.541
 1891SOL    HW1 7447   9.147   2.560   8.617
 1891SOL    HW2 7448   9.041   2.630   8.535
 1892SOL     OW 7449   1.762  13.657  11.503
 1892SOL    HW1 7450   1.778  13.587  11.567
 1892SOL    HW2 7451   1.683  13.630  11.457
 1893SOL     OW 7452  14.838   6.605  13.935
 1893SOL    HW1 7453  14.796   6.523  13.910
 1893SOL    HW2 7454   0.047   6.601  13.895
 1894SOL     OW 7455  10.299  10.764   0.514
 1894SOL    HW1 7456  10.329  10.792   0.601
 1894SOL    HW2 7457  10.323  10.837   0.457
 1895SOL     OW 7458  14.648   9.586   9.233
 1895SOL    HW1 7459  14.723   9.582   9.174
 1895SOL    HW2 7460  14.588   9.649   9.194
 1896SOL     OW 7461  12.935   1.031   0.139
 1896SOL    HW1 7462  12.906   0.984   0.061
 1896SOL    HW2 7463  12.854   1.048   0.188
 1897SOL     OW 7464   6.016  10.455   9.663
 1897SOL    HW1 7465   5.928  10.485   9.642
 1897SOL    HW2 7466   6.061  10.454   9.578
 1898SOL     OW 7467   4.052  12.607   6.383
 1898SOL    HW1 7468   4.047  12.551   6.460
 1898SOL    HW2 7469   4.119  12.672   6.404
 1899SOL     OW 7470   6.163  10.048  10.326
 1899SOL    HW1 7471   6.212  10.130  10.332
 1899SOL    HW2 7472   6.223   9.987  10.282
 1900SOL     OW 7473  14.320   1.827  12.640
 1900SOL    HW1 7474  14.334   1.922  12.632
 1900SOL    HW2 7475  14.307   1.797  12.550
 1901SOL     OW 7476   5.798   7.224  11.024
 1901SOL    HW1 7477   5.717   7.227  10.974
 1901SOL    HW2 7478   5.861   7.180  10.966
 1902SOL     OW 7479   0.615   8.491   9.994
 1902SOL    HW1 7480   0.602   8.484   9.900
 1902SOL    HW2 7481   0.699   8.537  10.004
 1903SOL     OW 7482   6.921   9.532   7.979
 1903SOL    HW1 7483   7.011   9.539   8.010
 1903SOL    HW2 7484   6.904   9.437   7.975
 1904SOL     OW 7485  14.427   3.667   5.108
 1904SOL    HW1 7486  14.478   3.748   5.109
 1904SOL    HW2 7487  14.364   3.679   5.037
 1905SOL     OW 7488   9.157   0.890   1.127
 1905SOL    HW1 7489   9.171   0.864   1.036
 1905SOL    HW2 7490   9.138   0.807   1.173
 1906SOL     OW 7491   0.644   3.678   6.512
 1906SOL    HW1 7492   0.705   3.721   6.573
 1906SOL    HW2 7493   0.698   3.614   6.466
 1907SOL     OW 7494  14.069   2.588  12.916
 1907SOL    HW1 7495  14.130   2.523  12.883
 1907SOL    HW2 7496  13.982   2.556  12.889
 1908SOL     OW 7497   3.208  14.625  11.995
 1908SOL    HW1 7498   3.231  14.713  11.967
 1908SOL    HW2 7499   3.228  14.570  11.919
 1909SOL     OW 7500   9.247  12.522  14.656
 1909SOL    HW1 7501   9.190  12.448  14.635
 1909SOL    HW2 7502   9.225  12.543  14.747
 1910SOL     OW 7503  10.234   5.932   5.964
 1910SOL    HW1 7504  10.191   5.970   5.887
 1910SOL    HW2 7505  10.168   5.940   6.034
 1911SOL     OW 7506  12.963  10.126   4.628
 1911SOL    HW1 7507  13.057  10.143   4.620
 1911SOL    HW2 7508  12.958  10.042   4.675
 1912SOL     OW 7509   5.727   5.352  14.657
 1912SOL    HW1 7510   5.682   5.428  14.620
 1912SOL    HW2 7511   5.819   5.377  14.660
 1913SOL     OW 7512  11.066  12.667   9.629
 1913SOL    HW1 7513  11.054  12.610   9.553
 1913SOL    HW2 7514  11.028  12.751   9.602
 1914SOL     OW 7515  13.117  13.587   2.508
 1914SOL    HW1 7516  13.044  13.560   2.453
 1914SOL    HW2 7517  13.125  13.519   2.574
 1915SOL     OW 7518  13.411  10.379  11.922
 1915SOL    HW1 7519  13.377  10.422  11.843
 1915SOL    HW2 7520  13.504  10.365  11.903
 1916SOL     OW 7521   2.275  10.345  14.612
 1916SOL    HW1 7522   2.242  10.323  14.526
 1916SOL    HW2 7523   2.363  10.381  14.596
 1917SOL     OW 7524   0.522   1.575  11.792
 1917SOL    HW1 7525   0.603   1.524  11.791
 1917SOL    HW2 7526   0.492   1.569  11.883
 1918SOL     OW 7527   5.421   1.775   2.410
 1918SOL    HW1 7528   5.442   1.842   2.474
 1918SOL    HW2 7529   5.326   1.773   2.407
 1919SOL     OW 7530  10.595  11.328   2.175
 1919SOL    HW1 7531  10.601  11.277   2.094
 1919SOL    HW2 7532  10.608  11.418   2.147
 1920SOL     OW 7533   3.305   0.858   6.559
 1920SOL    HW1 7534   3.303   0.775   6.608
 1920SOL    HW2 7535   3.296   0.832   6.467
 1921SOL     OW 7536  10.378   8.172  11.904
 1921SOL    HW1 7537  10.309   8.238  11.893
 1921SOL    HW2 7538  10.352   8.101  11.845
 1922SOL     OW 7539  12.855   7.110  13.375
 1922SOL    HW1 7540  12.823   7.199  13.365
 1922SOL    HW2 7541  12.917   7.098  13.303
 1923SOL     OW 7542  10.778   0.229  11.831
 1923SOL    HW1 7543  10.776   0.289  11.905
 1923SOL    HW2 7544  10.743   0.147  11.866
 1924SOL     OW 7545   8.669  14.059   5.858
 1924SOL    HW1 7546   8.732  14.125   5.828
 1924SOL    HW2 7547   8.584  14.092   5.830
 1925SOL     OW 7548  11.094   2.867  12.401
 1925SOL    HW1 7549  11.072   2.785  12.357
 1925SOL    HW2 7550  11.036   2.932  12.360
 1926SOL     OW 7551   7.489   9.800  14.451
 1926SOL    HW1 7552   7.546   9.791  14.528
 1926SOL    HW2 7553   7.493   9.715  14.408
 1927SOL     OW 7554  10.761   1.989   2.017
 1927SOL    HW1 7555  10.823   1.978   2.089
 1927SOL    HW2 7556  10.793   1.930   1.948
 1928SOL     OW 7557   0.824   4.345   5.137
 1928SOL    HW1 7558   0.762   4.416   5.121
 1928SOL    HW2 7559   0.818   4.290   5.059
 1929SOL     OW 7560  11.654   8.779   6.618
 1929SOL    HW1 7561  11.562   8.806   6.627
 1929SOL    HW2 7562  11.702   8.840   6.673
 1930SOL     OW 7563   4.689   7.702   9.487
 1930SOL    HW1 7564   4.663   7.611   9.502
 1930SOL    HW2 7565   4.782   7.697   9.468
 1931SOL     OW 7566  11.788   7.515   2.661
 1931SOL    HW1 7567  11.763   7.489   2.750
 1931SOL    HW2 7568  11.874   7.476   2.649
 1932SOL     OW 7569   3.408  10.346   6.956
 1932SOL    HW1 7570   3.476  10.311   6.897
 1932SOL    HW2 7571   3.325  10.322   6.914
 1933SOL     OW 7572  11.994   9.034   9.714
 1933SOL    HW1 7573  12.044   9.078   9.645
 1933SOL    HW2 7574  11.917   9.089   9.727
 1934SOL     OW 7575   1.264   2.267   0.241
 1934SOL    HW1 7576   1.241   2.334   0.305
 1934SOL    HW2 7577   1.204   2.283   0.168
 1935SOL     OW 7578   6.770  10.881   6.940
 1935SOL    HW1 7579   6.850  10.912   6.982
 1935SOL    HW2 7580   6.739  10.811   6.998
 1936SOL     OW 7581  12.077  14.438   6.392
 1936SOL    HW1 7582  12.168  14.462   6.373
 1936SOL    HW2 7583  12.042  14.409   6.308
 1937SOL     OW 7584  14.250  14.787   9.851
 1937SOL    HW1 7585  14.207  14.761   9.769
 1937SOL    HW2 7586  14.318  14.849   9.824
 1938SOL     OW 7587   2.063   8.100  14.161
 1938SOL    HW1 7588   2.089   8.013  14.190
 1938SOL    HW2 7589   1.975   8.089  14.126
 1939SOL     OW 7590  10.416  12.134  10.199
 1939SOL    HW1 7591  10.505  12.111  10.225
 1939SOL    HW2 7592  10.427  12.204  10.135
 1940SOL     OW 7593  14.799  14.395   9.714
 1940SOL    HW1 7594  14.860  14.328   9.743
 1940SOL    HW2 7595  14.836  14.426   9.631
 1941SOL     OW 7596   7.660   7.376   8.802
 1941SOL    HW1 7597   7.667   7.422   8.886
 1941SOL    HW2 7598   7.707   7.294   8.816
 1942SOL     OW 7599   8.620  12.891  12.971
 1942SOL    HW1 7600   8.535  12.916  12.935
 1942SOL    HW2 7601   8.680  12.892  12.897
 1943SOL     OW 7602   1.501   7.673   7.074
 1943SOL    HW1 7603   1.585   7.702   7.111
 1943SOL    HW2 7604   1.488   7.586   7.110
 1944SOL     OW 7605   8.958   4.244   0.584
 1944SOL    HW1 7606   8.908   4.198   0.651
 1944SOL    HW2 7607   8.898   4.311   0.551
 1945SOL     OW 7608   2.216   9.652   9.610
 1945SOL    HW1 7609   2.274   9.578   9.627
 1945SOL    HW2 7610   2.231   9.675   9.518
 1946SOL     OW 7611   9.226   6.965  14.595
 1946SOL    HW1 7612   9.274   7.012  14.663
 1946SOL    HW2 7613   9.137   6.998  14.600
 1947SOL     OW 7614  14.752  12.671   9.466
 1947SOL    HW1 7615  14.742  12.576   9.461
 1947SOL    HW2 7616  14.683  12.706   9.409
 1948SOL     OW 7617   7.259  12.879   8.163
 1948SOL    HW1 7618   7.287  12.788   8.148
 1948SOL    HW2 7619   7.208  12.901   8.086
 1949SOL     OW 7620   5.497   0.145  13.507
 1949SOL    HW1 7621   5.517   0.083  13.436
 1949SOL    HW2 7622   5.583   0.167  13.543
 1950SOL     OW 7623   5.822   0.288   6.612
 1950SOL    HW1 7624   5.823   0.222   6.543
 1950SOL    HW2 7625   5.885   0.354   6.582
 1951SOL     OW 7626  13.202   8.840   7.843
 1951SOL    HW1 7627  13.205   8.898   7.767
 1951SOL    HW2 7628  13.291   8.843   7.879
 1952SOL     OW 7629   4.890  11.673  11.579
 1952SOL    HW1 7630   4.984  11.654  11.575
 1952SOL    HW2 7631   4.884  11.768  11.576
 1953SOL     OW 7632  11.672  12.148  11.973
 1953SOL    HW1 7633  11.716  12.148  12.058
 1953SOL    HW2 7634  11.656  12.240  11.954
 1954SOL     OW 7635   5.714  10.915   6.293
 1954SOL    HW1 7636   5.634  10.869   6.315
 1954SOL    HW2 7637   5.784  10.854   6.316
 1955SOL     OW 7638  13.274   7.990   8.769
 1955SOL    HW1 7639  13.259   8.026   8.682
 1955SOL    HW2 7640  13.369   7.978   8.774
 1956SOL     OW 7641   6.564   7.867   9.025
 1956SOL    HW1 7642   6.628   7.935   9.001
 1956SOL    HW2 7643   6.485   7.890   8.976
 1957SOL     OW 7644   2.696  14.811  13.613
 1957SOL    HW1 7645   2.703  14.751  13.687
 1957SOL    HW2 7646   2.719   0.019  13.649
 1958SOL     OW 7647   2.818   5.879   1.390
 1958SOL    HW1 7648   2.880   5.868   1.462
 1958SOL    HW2 7649   2.764   5.953   1.417
 1959SOL     OW 7650   0.298   0.471   0.982
 1959SOL    HW1 7651   0.206   0.484   0.958
 1959SOL    HW2 7652   0.318   0.545   1.039
 1960SOL     OW 7653  12.412  14.010   7.289
 1960SOL    HW1 7654  12.318  13.991   7.296
 1960SOL    HW2 7655  12.431  14.007   7.195
 1961SOL     OW 7656  12.229   8.218   0.185
 1961SOL    HW1 7657  12.313   8.176   0.199
 1961SOL    HW2 7658  12.216   8.216   0.090
 1962SOL     OW 7659   4.503   5.677   0.871
 1962SOL    HW1 7660   4.565   5.614   0.835
 1962SOL    HW2 7661   4.548   5.761   0.866
 1963SOL     OW 7662   5.368   5.381  14.494
 1963SOL    HW1 7663   5.401   5.367  14.583
 1963SOL    HW2 7664   5.389   5.473  14.475
 1964SOL     OW 7665   0.420  11.751   0.895
 1964SOL    HW1 7666   0.484  11.805   0.850
 1964SOL    HW2 7667   0.347  11.811   0.914
 1965SOL     OW 7668  13.867   8.293  14.596
 1965SOL    HW1 7669  13.878   8.278  14.502
 1965SOL    HW2 7670  13.781   8.255  14.616
 1966SOL     OW 7671   2.896   6.304   9.621
 1966SOL    HW1 7672   2.905   6.377   9.683
 1966SOL    HW2 7673   2.869   6.230   9.675
 1967SOL     OW 7674  14.509  10.654   6.742
 1967SOL    HW1 7675  14.528  10.657   6.836
 1967SOL    HW2 7676  14.479  10.742   6.720
 1968SOL     OW 7677   6.719   9.718   5.103
 1968SOL    HW1 7678   6.797   9.728   5.157
 1968SOL    HW2 7679   6.661   9.663   5.156
 1969SOL     OW 7680  13.281   6.057   9.649
 1969SOL    HW1 7681  13.338   6.026   9.579
 1969SOL    HW2 7682  13.319   6.022   9.729
 1970SOL     OW 7683   5.878  10.725   1.192
 1970SOL    HW1 7684   5.947  10.791   1.198
 1970SOL    HW2 7685   5.894  10.680   1.110
 1971SOL     OW 7686   4.516   6.193   0.675
 1971SOL    HW1 7687   4.483   6.163   0.590
 1971SOL    HW2 7688   4.441   6.183   0.734
 1972SOL     OW 7689  10.687   2.880  10.506
 1972SOL    HW1 7690  10.756   2.816  10.492
 1972SOL    HW2 7691  10.691   2.938  10.431
 1973SOL     OW 7692   5.928   1.171   8.397
 1973SOL    HW1 7693   5.963   1.181   8.309
 1973SOL    HW2 7694   6.005   1.162   8.454
 1974SOL     OW 7695  10.726  10.609   7.632
 1974SOL    HW1 7696  10.641  10.634   7.596
 1974SOL    HW2 7697  10.782  10.601   7.555
 1975SOL     OW 7698   3.307   0.649   3.117
 1975SOL    HW1 7699   3.344   0.637   3.205
 1975SOL    HW2 7700   3.235   0.710   3.130
 1976SOL     OW 7701   2.519   6.575   0.679
 1976SOL    HW1 7702   2.526   6.520   0.756
 1976SOL    HW2 7703   2.493   6.661   0.712
 1977SOL     OW 7704  13.718   1.436   9.327
 1977SOL    HW1 7705  13.644   1.428   9.387
 1977SOL    HW2 7706  13.729   1.530   9.314
 1978SOL     OW 7707   0.766   9.435   5.184
 1978SOL    HW1 7708   0.700   9.432   5.115
 1978SOL    HW2 7709   0.781   9.343   5.207
 1979SOL     OW 7710   2.258  11.033   2.116
 1979SOL    HW1 7711   2.239  10.966   2.050
 1979SOL    HW2 7712   2.346  11.011   2.148
 1980SOL     OW 7713   9.158   5.506  14.156
 1980SOL    HW1 7714   9.232   5.453  14.128
 1980SOL    HW2 7715   9.083   5.470  14.108
 1981SOL     OW 7716   3.911   2.075   2.144
 1981SOL    HW1 7717   3.886   2.165   2.163
 1981SOL    HW2 7718   3.916   2.070   2.049
 1982SOL     OW 7719   9.580  10.609   7.039
 1982SOL    HW1 7720   9.556  10.542   6.975
 1982SOL    HW2 7721   9.592  10.689   6.986
 1983SOL     OW 7722   7.327   0.747   4.318
 1983SOL    HW1 7723   7.283   0.724   4.236
 1983SOL    HW2 7724   7.321   0.842   4.324
 1984SOL     OW 7725   8.688   5.613   3.285
 1984SOL    HW1 7726   8.725   5.683   3.339
 1984SOL    HW2 7727   8.763   5.557   3.263
 1985SOL     OW 7728  13.086   0.539   0.182
 1985SOL    HW1 7729  13.169   0.578   0.154
 1985SOL    HW2 7730  13.079   0.560   0.275
 1986SOL     OW 7731  14.768   3.315   8.032
 1986SOL    HW1 7732  14.830   3.293   8.102
 1986SOL    HW2 7733  14.691   3.347   8.079
 1987SOL     OW 7734   5.312   9.106   5.680
 1987SOL    HW1 7735   5.316   9.186   5.628
 1987SOL    HW2 7736   5.394   9.105   5.729
 1988SOL     OW 7737   3.810   5.086   6.918
 1988SOL    HW1 7738   3.817   5.135   7.000
 1988SOL    HW2 7739   3.751   5.014   6.937
 1989SOL     OW 7740   8.194  13.531   6.347
 1989SOL    HW1 7741   8.197  13.626   6.356
 1989SOL    HW2 7742   8.111  13.514   6.304
 1990SOL     OW 7743  13.491   6.766  11.884
 1990SOL    HW1 7744  13.583   6.793  11.888
 1990SOL    HW2 7745  13.448   6.815  11.954
 1991SOL     OW 7746   4.260   5.968  14.258
 1991SOL    HW1 7747   4.274   6.060  14.235
 1991SOL    HW2 7748   4.328   5.921  14.211
 1992SOL     OW 7749  13.153   3.371   3.998
 1992SOL    HW1 7750  13.065   3.336   4.009
 1992SOL    HW2 7751  13.174   3.410   4.083
 1993SOL     OW 7752   8.178   5.374   5.343
 1993SOL    HW1 7753   8.220   5.425   5.274
 1993SOL    HW2 7754   8.127   5.307   5.297
 1994SOL     OW 7755  10.210  11.086  11.191
 1994SOL    HW1 7756  10.291  11.078  11.140
 1994SOL    HW2 7757  10.234  11.140  11.266
 1995SOL     OW 7758   4.438   6.701   7.831
 1995SOL    HW1 7759   4.357   6.660   7.799
 1995SOL    HW2 7760   4.502   6.630   7.833
 1996SOL     OW 7761   9.773   4.701   9.149
 1996SOL    HW1 7762   9.758   4.746   9.232
 1996SOL    HW2 7763   9.849   4.645   9.167
 1997SOL     OW 7764   0.515   1.614  14.818
 1997SOL    HW1 7765   0.525   1.709  14.831
 1997SOL    HW2 7766   0.511   1.603  14.724
 1998SOL     OW 7767   3.854   0.025  12.764
 1998SOL    HW1 7768   3.819   0.068  12.841
 1998SOL    HW2 7769   3.944   0.057  12.757
 1999SOL     OW 7770   8.126   7.284   7.729
 1999SOL    HW1 7771   8.187   7.230   7.680
 1999SOL    HW2 7772   8.181   7.330   7.793
 2000SOL     OW 7773   8.374   5.105   5.281
 2000SOL    HW1 7774   8.286   5.120   5.247
 2000SOL    HW2 7775   8.407   5.192   5.303
 2001SOL     OW 7776   8.924   9.739  10.711
 2001SOL    HW1 7777   8.954   9.649  10.725
 2001SOL    HW2 7778   8.829   9.734  10.718
 2002SOL     OW 7779  10.384   9.362   5.818
 2002SOL    HW1 7780  10.351   9.402   5.737
 2002SOL    HW2 7781  10.305   9.333   5.864
 2003SOL     OW 7782   6.590   0.408   7.232
 2003SOL    HW1 7783   6.539   0.426   7.311
 2003SOL    HW2 7784   6.628   0.322   7.247
 2004SOL     OW 7785   7.629   4.278   6.171
 2004SOL    HW1 7786   7.664   4.189   6.178
 2004SOL    HW2 7787   7.569   4.273   6.096
 2005SOL     OW 7788  11.078   2.206   9.500
 2005SOL    HW1 7789  11.019   2.143   9.540
 2005SOL    HW2 7790  11.165   2.179   9.529
 2006SOL     OW 7791  14.708   7.321   0.442
 2006SOL    HW1 7792  14.804   7.312   0.437
 2006SOL    HW2 7793  14.680   7.247   0.495
 2007SOL     OW 7794  12.792   4.353  14.327
 2007SOL    HW1 7795  12.858   4.331  14.261
 2007SOL    HW2 7796  12.835   4.337  14.411
 2008SOL     OW 7797   2.727   0.033   1.327
 2008SOL    HW1 7798   2.735   0.105   1.265
 2008SOL    HW2 7799   2.698  14.837   1.275
 2009SOL     OW 7800   4.066   5.842  10.220
 2009SOL    HW1 7801   4.144   5.837  10.275
 2009SOL    HW2 7802   4.084   5.913  10.159
 2010SOL     OW 7803  14.093   5.754   7.224
 2010SOL    HW1 7804  13.998   5.739   7.223
 2010SOL    HW2 7805  14.126   5.696   7.292
 2011SOL     OW 7806  14.677   7.185   1.013
 2011SOL    HW1 7807  14.753   7.241   0.996
 2011SOL    HW2 7808  14.612   7.243   1.051
 2012SOL     OW 7809  12.264   6.712   3.391
 2012SOL    HW1 7810  12.263   6.625   3.351
 2012SOL    HW2 7811  12.175   6.745   3.380
 2013SOL     OW 7812   3.245   1.991   9.332
 2013SOL    HW1 7813   3.250   1.896   9.342
 2013SOL    HW2 7814   3.273   2.008   9.242
 2014SOL     OW 7815   9.610   6.834   9.456
 2014SOL    HW1 7816   9.548   6.814   9.527
 2014SOL    HW2 7817   9.594   6.766   9.391
 2015SOL     OW 7818   3.395   7.195   4.029
 2015SOL    HW1 7819   3.384   7.207   4.124
 2015SOL    HW2 7820   3.489   7.186   4.017
 2016SOL     OW 7821  11.995   7.404   0.196
 2016SOL    HW1 7822  11.949   7.447   0.269
 2016SOL    HW2 7823  12.027   7.476   0.142
 2017SOL     OW 7824   4.014   0.290   1.589
 2017SOL    HW1 7825   4.018   0.385   1.590
 2017SOL    HW2 7826   3.942   0.269   1.529
 2018SOL     OW 7827  11.155   5.478   7.271
 2018SOL    HW1 7828  11.207   5.541   7.222
 2018SOL    HW2 7829  11.067   5.516   7.272
 2019SOL     OW 7830   5.484  11.617  13.868
 2019SOL    HW1 7831   5.456  11.676  13.798
 2019SOL    HW2 7832   5.524  11.543  13.824
 2020SOL     OW 7833   9.017   1.204   0.361
 2020SOL    HW1 7834   8.943   1.253   0.397
 2020SOL    HW2 7835   9.086   1.269   0.350
 2021SOL     OW 7836   8.604   3.498  13.371
 2021SOL    HW1 7837   8.550   3.522  13.446
 2021SOL    HW2 7838   8.609   3.403  13.374
 2022SOL     OW 7839   6.023   0.609   0.360
 2022SOL    HW1 7840   5.980   0.655   0.287
 2022SOL    HW2 7841   6.022   0.517   0.334
 2023SOL     OW 7842  13.619   0.509  10.856
 2023SOL    HW1 7843  13.546   0.554  10.814
 2023SOL    HW2 7844  13.611   0.531  10.948
 2024SOL     OW 7845  10.904   0.115   2.477
 2024SOL    HW1 7846  10.875   0.152   2.560
 2024SOL    HW2 7847  10.948   0.188   2.433
 2025SOL     OW 7848   9.611   5.555   6.480
 2025SOL    HW1 7849   9.576   5.513   6.559
 2025SOL    HW2 7850   9.536   5.557   6.420
 2026SOL     OW 7851   4.873   3.203   5.418
 2026SOL    HW1 7852   4.914   3.289   5.407
 2026SOL    HW2 7853   4.855   3.173   5.329
 2027SOL     OW 7854   1.475   1.027   7.819
 2027SOL    HW1 7855   1.490   1.120   7.833
 2027SOL    HW2 7856   1.381   1.020   7.800
 2028SOL     OW 7857   9.385  14.769   3.956
 2028SOL    HW1 7858   9.479  14.763   3.974
 2028SOL    HW2 7859   9.366  14.694   3.900
 2029SOL     OW 7860   0.581   0.791   6.238
 2029SOL    HW1 7861   0.641   0.858   6.271
 2029SOL    HW2 7862   0.599   0.786   6.144
 2030SOL     OW 7863  11.977   5.717   2.891
 2030SOL    HW1 7864  11.895   5.726   2.938
 2030SOL    HW2 7865  11.991   5.622   2.883
 2031SOL     OW 7866   1.868   7.573   7.105
 2031SOL    HW1 7867   1.887   7.571   7.011
 2031SOL    HW2 7868   1.818   7.654   7.117
 2032SOL     OW 7869   1.439   0.272  10.617
 2032SOL    HW1 7870   1.474   0.349  10.661
 2032SOL    HW2 7871   1.375   0.307  10.554
 2033SOL     OW 7872  13.858   6.707  13.485
 2033SOL    HW1 7873  13.860   6.630  13.542
 2033SOL    HW2 7874  13.899   6.678  13.403
 2034SOL     OW 7875   9.388   2.734  11.822
 2034SOL    HW1 7876   9.381   2.826  11.845
 2034SOL    HW2 7877   9.427   2.735  11.734
 2035SOL     OW 7878  11.339   6.811   8.493
 2035SOL    HW1 7879  11.255   6.768   8.509
 2035SOL    HW2 7880  11.391   6.792   8.571
 2036SOL     OW 7881   6.145   6.119   5.154
 2036SOL    HW1 7882   6.074   6.140   5.093
 2036SOL    HW2 7883   6.101   6.075   5.227
 2037SOL     OW 7884  12.489  14.695  13.711
 2037SOL    HW1 7885  12.524  14.609  13.688
 2037SOL    HW2 7886  12.527  14.716  13.796
 2038SOL     OW 7887   7.134   2.103   5.811
 2038SOL    HW1 7888   7.148   2.176   5.871
 2038SOL    HW2 7889   7.156   2.025   5.862
 2039SOL     OW 7890  13.856   9.972   6.518
 2039SOL    HW1 7891  13.778   9.921   6.538
 2039SOL    HW2 7892  13.907   9.972   6.599
 2040SOL     OW 7893  11.185   6.535   4.799
 2040SOL    HW1 7894  11.098   6.498   4.784
 2040SOL    HW2 7895  11.173   6.599   4.869
 2041SOL     OW 7896   4.079   0.206  11.764
 2041SOL    HW1 7897   4.089   0.193  11.670
 2041SOL    HW2 7898   4.062   0.119  11.799
 2042SOL     OW 7899  10.006  12.361  13.466
 2042SOL    HW1 7900   9.960  12.294  13.414
 2042SOL    HW2 7901  10.094  12.364  13.427
 2043SOL     OW 7902  10.650  14.464   0.418
 2043SOL    HW1 7903  10.613  14.378   0.399
 2043SOL    HW2 7904  10.719  14.447   0.482
 2044SOL     OW 7905   4.358  10.527   9.242
 2044SOL    HW1 7906   4.366  10.515   9.148
 2044SOL    HW2 7907   4.316  10.612   9.252
 2045SOL     OW 7908  12.456   1.923  12.954
 2045SOL    HW1 7909  12.507   1.941  13.033
 2045SOL    HW2 7910  12.371   1.964  12.971
 2046SOL     OW 7911  11.989   3.416   2.158
 2046SOL    HW1 7912  12.072   3.369   2.166
 2046SOL    HW2 7913  11.928   3.350   2.126
 2047SOL     OW 7914   4.159  11.888   6.322
 2047SOL    HW1 7915   4.132  11.895   6.414
 2047SOL    HW2 7916   4.250  11.858   6.326
 2048SOL     OW 7917  12.088   3.868  12.801
 2048SOL    HW1 7918  12.075   3.789  12.750
 2048SOL    HW2 7919  12.182   3.869  12.821
 2049SOL     OW 7920   7.601   8.854   0.450
 2049SOL    HW1 7921   7.564   8.931   0.494
 2049SOL    HW2 7922   7.526   8.816   0.403
 2050SOL     OW 7923   0.182   1.364  12.655
 2050SOL    HW1 7924   0.258   1.316  12.687
 2050SOL    HW2 7925   0.214   1.453  12.638
 2051SOL     OW 7926   9.654  11.371   6.857
 2051SOL    HW1 7927   9.585  11.405   6.914
 2051SOL    HW2 7928   9.726  11.350   6.917
 2052SOL     OW 7929   9.741  10.649   2.698
 2052SOL    HW1 7930   9.750  10.745   2.698
 2052SOL    HW2 7931   9.653  10.634   2.733
 2053SOL     OW 7932   1.186   4.805  10.509
 2053SOL    HW1 7933   1.132   4.728  10.491
 2053SOL    HW2 7934   1.131   4.879  10.485
 2054SOL     OW 7935   2.668   3.802   8.686
 2054SOL    HW1 7936   2.695   3.751   8.609
 2054SOL    HW2 7937   2.746   3.805   8.741
 2055SOL     OW 7938   2.331   8.792   2.302
 2055SOL    HW1 7939   2.313   8.877   2.342
 2055SOL    HW2 7940   2.255   8.776   2.247
 2056SOL     OW 7941  12.769  13.142   5.414
 2056SOL    HW1 7942  12.788  13.157   5.321
 2056SOL    HW2 7943  12.842  13.185   5.459
 2057SOL     OW 7944   4.543  12.542   0.104
 2057SOL    HW1 7945   4.453  12.537   0.074
 2057SOL    HW2 7946   4.576  12.453   0.097
 2058SOL     OW 7947  14.030   8.134   8.276
 2058SOL    HW1 7948  14.117   8.172   8.288
 2058SOL    HW2 7949  13.991   8.183   8.204
 2059SOL     OW 7950  11.345  10.950   0.132
 2059SOL    HW1 7951  11.314  10.952   0.222
 2059SOL    HW2 7952  11.325  11.037   0.097
 2060SOL     OW 7953   6.085   1.108   2.953
 2060SOL    HW1 7954   6.086   1.028   2.901
 2060SOL    HW2 7955   6.006   1.154   2.925
 2061SOL     OW 7956   6.327   4.824   3.107
 2061SOL    HW1 7957   6.355   4.776   3.185
 2061SOL    HW2 7958   6.243   4.784   3.083
 2062SOL     OW 7959  12.018  10.971   9.953
 2062SOL    HW1 7960  12.061  10.888   9.934
 2062SOL    HW2 7961  11.971  10.993   9.872
 2063SOL     OW 7962   6.547   6.469   7.711
 2063SOL    HW1 7963   6.634   6.455   7.673
 2063SOL    HW2 7964   6.551   6.557   7.749
 2064SOL     OW 7965   7.214   1.572   3.972
 2064SOL    HW1 7966   7.119   1.576   3.966
 2064SOL    HW2 7967   7.234   1.593   4.063
 2065SOL     OW 7968   8.944   1.377   6.706
 2065SOL    HW1 7969   9.016   1.426   6.746
 2065SOL    HW2 7970   8.872   1.384   6.769
 2066SOL     OW 7971   2.232   2.257   0.467
 2066SOL    HW1 7972   2.186   2.237   0.385
 2066SOL    HW2 7973   2.162   2.272   0.530
 2067SOL     OW 7974  11.971   2.170   5.623
 2067SOL    HW1 7975  11.907   2.210   5.682
 2067SOL    HW2 7976  11.919   2.116   5.564
 2068SOL     OW 7977  12.912  14.369  12.572
 2068SOL    HW1 7978  12.828  14.342  12.534
 2068SOL    HW2 7979  12.974  14.364  12.499
 2069SOL     OW 7980   2.168   1.148  13.512
 2069SOL    HW1 7981   2.151   1.060  13.478
 2069SOL    HW2 7982   2.225   1.189  13.447
 2070SOL     OW 7983  12.514  13.360   9.299
 2070SOL    HW1 7984  12.479  13.402   9.377
 2070SOL    HW2 7985  12.573  13.426   9.261
 2071SOL     OW 7986   9.301   8.119  13.906
 2071SOL    HW1 7987   9.301   8.215  13.906
 2071SOL    HW2 7988   9.264   8.095  13.991
 2072SOL     OW 7989   7.565   8.587   1.120
 2072SOL    HW1 7990   7.493   8.651   1.117
 2072SOL    HW2 7991   7.603   8.599   1.207
 2073SOL     OW 7992   6.951   1.561   4.039
 2073SOL    HW1 7993   6.871   1.593   3.996
 2073SOL    HW2 7994   6.930   1.562   4.132
 2074SOL     OW 7995  14.835  10.182   6.806
 2074SOL    HW1 7996  14.781  10.145   6.736
 2074SOL    HW2 7997  14.808  10.273   6.812
 2075SOL     OW 7998  12.794  13.588  12.972
 2075SOL    HW1 7999  12.792  13.682  12.958
 2075SOL    HW2 8000  12.724  13.571  13.035
 2076SOL     OW 8001   6.852  11.664   8.892
 2076SOL    HW1 8002   6.938  11.659   8.849
 2076SOL    HW2 8003   6.814  11.578   8.879
 2077SOL     OW 8004   7.601   1.048   9.280
 2077SOL    HW1 8005   7.595   0.966   9.232
 2077SOL    HW2 8006   7.545   1.109   9.232
 2078SOL     OW 8007  11.415  14.043  11.362
 2078SOL    HW1 8008  11.357  14.092  11.420
 2078SOL    HW2 8009  11.462  13.984  11.421
 2079SOL     OW 8010   3.711   7.291   1.202
 2079SOL    HW1 8011   3.791   7.242   1.219
 2079SOL    HW2 8012   3.739   7.366   1.149
 2080SOL     OW 8013   9.243   0.327   9.738
 2080SOL    HW1 8014   9.209   0.333   9.648
 2080SOL    HW2 8015   9.301   0.251   9.736
 2081SOL     OW 8016   7.665   2.343  13.500
 2081SOL    HW1 8017   7.584   2.317  13.544
 2081SOL    HW2 8018   7.729   2.277  13.525
 2082SOL     OW 8019   5.470   7.370   3.137
 2082SOL    HW1 8020   5.513   7.293   3.102
 2082SOL    HW2 8021   5.486   7.439   3.072
 2083SOL     OW 8022  10.241  11.019   4.674
 2083SOL    HW1 8023  10.284  11.020   4.588
 2083SOL    HW2 8024  10.314  11.024   4.737
 2084SOL     OW 8025   0.234  10.252  10.661
 2084SOL    HW1 8026   0.291  10.189  10.618
 2084SOL    HW2 8027   0.246  10.333  10.613
 2085SOL     OW 8028  13.032   9.270  12.816
 2085SOL    HW1 8029  12.988   9.279  12.901
 2085SOL    HW2 8030  13.037   9.359  12.782
 2086SOL     OW 8031   9.538   8.203   6.542
 2086SOL    HW1 8032   9.456   8.156   6.525
 2086SOL    HW2 8033   9.510   8.290   6.570
 2087SOL     OW 8034   2.594   7.419   8.750
 2087SOL    HW1 8035   2.602   7.478   8.674
 2087SOL    HW2 8036   2.513   7.445   8.792
 2088SOL     OW 8037   1.239   1.560   9.237
 2088SOL    HW1 8038   1.155   1.554   9.281
 2088SOL    HW2 8039   1.263   1.653   9.243
 2089SOL     OW 8040   0.579   4.581  14.619
 2089SOL    HW1 8041   0.508   4.640  14.593
 2089SOL    HW2 8042   0.654   4.609  14.568
 2090SOL     OW 8043   7.320   0.036   5.621
 2090SOL    HW1 8044   7.355   0.094   5.553
 2090SOL    HW2 8045   7.398  14.878   5.664
 2091SOL     OW 8046  13.853  11.164  10.397
 2091SOL    HW1 8047  13.872  11.178  10.489
 2091SOL    HW2 8048  13.938  11.172  10.353
 2092SOL     OW 8049   5.823   8.265  14.762
 2092SOL    HW1 8050   5.770   8.318  14.821
 2092SOL    HW2 8051   5.789   8.284  14.675
 2093SOL     OW 8052   4.680  10.529   1.367
 2093SOL    HW1 8053   4.742  10.538   1.439
 2093SOL    HW2 8054   4.607  10.587   1.391
 2094SOL     OW 8055  13.297   4.779   5.199
 2094SOL    HW1 8056  13.297   4.771   5.295
 2094SOL    HW2 8057  13.242   4.707   5.169
 2095SOL     OW 8058  12.701   0.608   0.642
 2095SOL    HW1 8059  12.616   0.653   0.636
 2095SOL    HW2 8060  12.686   0.522   0.602
 2096SOL     OW 8061   9.491   2.514  14.429
 2096SOL    HW1 8062   9.580   2.482  14.414
 2096SOL    HW2 8063   9.460   2.540  14.342
 2097SOL     OW 8064   6.647   1.157   6.403
 2097SOL    HW1 8065   6.620   1.070   6.373
 2097SOL    HW2 8066   6.626   1.158   6.496
 2098SOL     OW 8067   3.855   9.442   6.542
 2098SOL    HW1 8068   3.905   9.401   6.613
 2098SOL    HW2 8069   3.824   9.368   6.490
 2099SOL     OW 8070  13.796   1.944  11.471
 2099SOL    HW1 8071  13.805   1.864  11.420
 2099SOL    HW2 8072  13.882   1.985  11.469
 2100SOL     OW 8073  13.154   4.528   6.588
 2100SOL    HW1 8074  13.220   4.512   6.655
 2100SOL    HW2 8075  13.179   4.470   6.516
 2101SOL     OW 8076  11.310   5.189   5.180
 2101SOL    HW1 8077  11.292   5.282   5.164
 2101SOL    HW2 8078  11.253   5.166   5.252
 2102SOL     OW 8079   5.777   8.300  11.876
 2102SOL    HW1 8080   5.845   8.362  11.850
 2102SOL    HW2 8081   5.696   8.351  11.875
 2103SOL     OW 8082   8.136  13.126   6.457
 2103SOL    HW1 8083   8.209  13.141   6.517
 2103SOL    HW2 8084   8.177  13.088   6.379
 2104SOL     OW 8085   8.404   2.947   8.553
 2104SOL    HW1 8086   8.374   3.033   8.581
 2104SOL    HW2 8087   8.368   2.936   8.465
 2105SOL     OW 8088   4.163   3.301   9.106
 2105SOL    HW1 8089   4.131   3.264   9.188
 2105SOL    HW2 8090   4.246   3.343   9.130
 2106SOL     OW 8091   3.969   8.192  13.056
 2106SOL    HW1 8092   3.889   8.238  13.083
 2106SOL    HW2 8093   3.962   8.185  12.961
 2107SOL     OW 8094   3.956  13.682  10.969
 2107SOL    HW1 8095   3.991  13.716  10.886
 2107SOL    HW2 8096   3.886  13.623  10.943
 2108SOL     OW 8097  12.059  10.798  11.493
 2108SOL    HW1 8098  11.964  10.789  11.499
 2108SOL    HW2 8099  12.091  10.708  11.483
 2109SOL     OW 8100  14.527  11.017   1.487
 2109SOL    HW1 8101  14.614  11.057   1.485
 2109SOL    HW2 8102  14.485  11.053   1.564
 2110SOL     OW 8103   2.423   3.481   5.711
 2110SOL    HW1 8104   2.479   3.557   5.724
 2110SOL    HW2 8105   2.455   3.416   5.774
 2111SOL     OW 8106   5.345   1.452   2.673
 2111SOL    HW1 8107   5.316   1.440   2.583
 2111SOL    HW2 8108   5.282   1.403   2.726
 2112SOL     OW 8109  13.077   0.731   7.069
 2112SOL    HW1 8110  13.004   0.783   7.101
 2112SOL    HW2 8111  13.153   0.788   7.081
 2113SOL     OW 8112  11.719   4.441   7.032
 2113SOL    HW1 8113  11.802   4.477   7.001
 2113SOL    HW2 8114  11.679   4.403   6.954
 2114SOL     OW 8115  14.678   7.491   3.676
 2114SOL    HW1 8116  14.648   7.403   3.699
 2114SOL    HW2 8117  14.745   7.477   3.610
 2115SOL     OW 8118   2.783   8.529   3.572
 2115SOL    HW1 8119   2.763   8.445   3.530
 2115SOL    HW2 8120   2.823   8.581   3.502
 2116SOL     OW 8121  10.062   7.870   1.213
 2116SOL    HW1 8122  10.148   7.906   1.234
 2116SOL    HW2 8123  10.040   7.909   1.129
 2117SOL     OW 8124  14.271   3.357   9.239
 2117SOL    HW1 8125  14.214   3.286   9.268
 2117SOL    HW2 8126  14.216   3.409   9.180
 2118SOL     OW 8127   9.811  10.362  14.035
 2118SOL    HW1 8128   9.733  10.316  14.003
 2118SOL    HW2 8129   9.868  10.293  14.067
 2119SOL     OW 8130   5.726  13.284  11.627
 2119SOL    HW1 8131   5.779  13.359  11.655
 2119SOL    HW2 8132   5.703  13.302  11.537
 2120SOL     OW 8133   0.123   4.969  11.993
 2120SOL    HW1 8134   0.057   5.000  12.055
 2120SOL    HW2 8135   0.183   4.916  12.046
 2121SOL     OW 8136   4.624   9.708  13.276
 2121SOL    HW1 8137   4.532   9.687  13.258
 2121SOL    HW2 8138   4.663   9.723  13.190
 2122SOL     OW 8139   5.368  10.355  13.991
 2122SOL    HW1 8140   5.398  10.316  13.909
 2122SOL    HW2 8141   5.311  10.427  13.963
 2123SOL     OW 8142  10.784  14.562  13.113
 2123SOL    HW1 8143  10.697  14.523  13.114
 2123SOL    HW2 8144  10.841  14.492  13.082
 2124SOL     OW 8145   0.685   6.155   7.618
 2124SOL    HW1 8146   0.638   6.171   7.536
 2124SOL    HW2 8147   0.762   6.104   7.592
 2125SOL     OW 8148  11.460   7.819  12.881
 2125SOL    HW1 8149  11.554   7.837  12.876
 2125SOL    HW2 8150  11.424   7.860  12.803
 2126SOL     OW 8151   1.132  12.375  14.612
 2126SOL    HW1 8152   1.154  12.348  14.701
 2126SOL    HW2 8153   1.174  12.310  14.556
 2127SOL     OW 8154   3.347   8.744  12.041
 2127SOL    HW1 8155   3.323   8.743  11.948
 2127SOL    HW2 8156   3.443   8.749  12.041
 2128SOL     OW 8157   5.303   0.950   7.131
 2128SOL    HW1 8158   5.232   0.915   7.077
 2128SOL    HW2 8159   5.380   0.946   7.074
 2129SOL     OW 8160   2.044   6.662   2.909
 2129SOL    HW1 8161   2.072   6.720   2.979
 2129SOL    HW2 8162   2.093   6.581   2.923
 2130SOL     OW 8163   0.989  13.994  11.141
 2130SOL    HW1 8164   0.934  14.048  11.196
 2130SOL    HW2 8165   1.077  14.029  11.153
 2131SOL     OW 8166   8.460   9.876   6.639
 2131SOL    HW1 8167   8.411   9.847   6.562
 2131SOL    HW2 8168   8.441   9.970   6.644
 2132SOL     OW 8169  12.459   9.175   4.260
 2132SOL    HW1 8170  12.474   9.259   4.304
 2132SOL    HW2 8171  12.439   9.198   4.170
 2133SOL     OW 8172   1.644   1.658  11.556
 2133SOL    HW1 8173   1.644   1.727  11.490
 2133SOL    HW2 8174   1.722   1.606  11.537
 2134SOL     OW 8175   4.931   0.811   9.062
 2134SOL    HW1 8176   4.874   0.738   9.039
 2134SOL    HW2 8177   5.014   0.792   9.016
 2135SOL     OW 8178   9.618  14.253   8.527
 2135SOL    HW1 8179   9.529  14.257   8.491
 2135SOL    HW2 8180   9.605  14.256   8.622
 2136SOL     OW 8181   2.060   9.954   8.151
 2136SOL    HW1 8182   2.136   9.974   8.206
 2136SOL    HW2 8183   2.082   9.988   8.065
 2137SOL     OW 8184   0.507  10.299   7.371
 2137SOL    HW1 8185   0.517  10.236   7.300
 2137SOL    HW2 8186   0.568  10.271   7.438
 2138SOL     OW 8187   4.959   1.462   1.511
 2138SOL    HW1 8188   4.900   1.449   1.586
 2138SOL    HW2 8189   4.944   1.386   1.455
 2139SOL     OW 8190   0.776   2.292   0.462
 2139SOL    HW1 8191   0.738   2.255   0.541
 2139SOL    HW2 8192   0.782   2.386   0.479
 2140SOL     OW 8193  14.017   8.037   1.025
 2140SOL    HW1 8194  13.935   7.991   1.041
 2140SOL    HW2 8195  14.085   7.978   1.059
 2141SOL     OW 8196   7.375   6.681  11.529
 2141SOL    HW1 8197   7.326   6.648  11.605
 2141SOL    HW2 8198   7.456   6.716  11.566
 2142SOL     OW 8199  11.527  14.790  13.956
 2142SOL    HW1 8200  11.564  14.710  13.918
 2142SOL    HW2 8201  11.493  14.838  13.881
 2143SOL     OW 8202  14.018   9.475  13.961
 2143SOL    HW1 8203  14.103   9.477  14.006
 2143SOL    HW2 8204  13.968   9.408  14.007
 2144SOL     OW 8205  14.467   0.379   6.643
 2144SOL    HW1 8206  14.534   0.387   6.575
 2144SOL    HW2 8207  14.388   0.353   6.596
 2145SOL     OW 8208   7.578   3.769   9.650
 2145SOL    HW1 8209   7.487   3.739   9.644
 2145SOL    HW2 8210   7.630   3.689   9.648
 2146SOL     OW 8211  12.548   4.530   0.666
 2146SOL    HW1 8212  12.525   4.575   0.747
 2146SOL    HW2 8213  12.472   4.476   0.646
 2147SOL     OW 8214   5.142   2.208   0.312
 2147SOL    HW1 8215   5.090   2.160   0.377
 2147SOL    HW2 8216   5.232   2.196   0.341
 2148SOL     OW 8217   8.904  12.370  10.554
 2148SOL    HW1 8218   8.961  12.309  10.508
 2148SOL    HW2 8219   8.959  12.406  10.624
 2149SOL     OW 8220  10.152   3.911   9.302
 2149SOL    HW1 8221  10.059   3.913   9.326
 2149SOL    HW2 8222  10.197   3.944   9.379
 2150SOL     OW 8223  10.812   6.321   3.853
 2150SOL    HW1 8224  10.757   6.278   3.788
 2150SOL    HW2 8225  10.801   6.414   3.836
 2151SOL     OW 8226  10.124   8.230  12.417
 2151SOL    HW1 8227  10.087   8.225  12.329
 2151SOL    HW2 8228  10.155   8.321  12.425
 2152SOL     OW 8229  10.257   0.211   9.761
 2152SOL    HW1 8230  10.299   0.151   9.700
 2152SOL    HW2 8231  10.296   0.191   9.846
 2153SOL     OW 8232   8.718  13.413   0.199
 2153SOL    HW1 8233   8.734  13.411   0.293
 2153SOL    HW2 8234   8.804  13.392   0.160
 2154SOL     OW 8235   3.064  10.755  11.796
 2154SOL    HW1 8236   3.046  10.763  11.703
 2154SOL    HW2 8237   3.115  10.674  11.804
 2155SOL     OW 8238  14.501   3.455   6.534
 2155SOL    HW1 8239  14.460   3.467   6.620
 2155SOL    HW2 8240  14.541   3.539   6.514
 2156SOL     OW 8241   5.559  14.216   8.901
 2156SOL    HW1 8242   5.582  14.299   8.859
 2156SOL    HW2 8243   5.639  14.164   8.898
 2157SOL     OW 8244   1.443  10.114   0.118
 2157SOL    HW1 8245   1.430  10.027   0.081
 2157SOL    HW2 8246   1.478  10.098   0.206
 2158SOL     OW 8247  12.433   7.516  12.784
 2158SOL    HW1 8248  12.433   7.611  12.781
 2158SOL    HW2 8249  12.524   7.492  12.802
 2159SOL     OW 8250   4.560  12.351   4.668
 2159SOL    HW1 8251   4.557  12.442   4.636
 2159SOL    HW2 8252   4.617  12.355   4.745
 2160SOL     OW 8253   3.149   8.405  10.437
 2160SOL    HW1 8254   3.062   8.366  10.430
 2160SOL    HW2 8255   3.209   8.331  10.431
 2161SOL     OW 8256  12.336  13.728   3.165
 2161SOL    HW1 8257  12.420  13.764   3.136
 2161SOL    HW2 8258  12.295  13.695   3.085
 2162SOL     OW 8259   6.455   8.391   9.451
 2162SOL    HW1 8260   6.508   8.434   9.517
 2162SOL    HW2 8261   6.365   8.418   9.471
 2163SOL     OW 8262   3.840   6.418   2.526
 2163SOL    HW1 8263   3.884   6.333   2.535
 2163SOL    HW2 8264   3.783   6.407   2.450
 2164SOL     OW 8265  13.071  14.732   6.370
 2164SOL    HW1 8266  13.157  14.703   6.340
 2164SOL    HW2 8267  13.088  14.815   6.414
 2165SOL     OW 8268  14.216   1.452   4.941
 2165SOL    HW1 8269  14.295   1.483   4.984
 2165SOL    HW2 8270  14.210   1.360   4.965
 2166SOL     OW 8271   3.129   3.015  11.417
 2166SOL    HW1 8272   3.094   2.930  11.394
 2166SOL    HW2 8273   3.163   3.004  11.507
 2167SOL     OW 8274  12.753  12.950   2.403
 2167SOL    HW1 8275  12.746  12.961   2.308
 2167SOL    HW2 8276  12.670  12.912   2.429
 2168SOL     OW 8277  12.658   1.318   2.693
 2168SOL    HW1 8278  12.653   1.338   2.599
 2168SOL    HW2 8279  12.576   1.352   2.729
 2169SOL     OW 8280  13.551   1.240   3.551
 2169SOL    HW1 8281  13.614   1.280   3.611
 2169SOL    HW2 8282  13.466   1.263   3.587
 2170SOL     OW 8283   7.101   5.486   6.371
 2170SOL    HW1 8284   7.154   5.502   6.293
 2170SOL    HW2 8285   7.011   5.479   6.337
 2171SOL     OW 8286  13.385  13.272  13.606
 2171SOL    HW1 8287  13.290  13.279  13.594
 2171SOL    HW2 8288  13.395  13.211  13.679
 2172SOL     OW 8289   3.968   2.812  11.423
 2172SOL    HW1 8290   3.969   2.750  11.350
 2172SOL    HW2 8291   3.911   2.771  11.488
 2173SOL     OW 8292  12.333   6.092  14.204
 2173SOL    HW1 8293  12.323   6.016  14.261
 2173SOL    HW2 8294  12.377   6.057  14.126
 2174SOL     OW 8295  10.617   6.613   8.581
 2174SOL    HW1 8296  10.579   6.684   8.633
 2174SOL    HW2 8297  10.566   6.536   8.605
 2175SOL     OW 8298  11.686  11.041   7.963
 2175SOL    HW1 8299  11.621  11.062   7.896
 2175SOL    HW2 8300  11.642  10.977   8.019
 2176SOL     OW 8301   6.367   7.671   5.362
 2176SOL    HW1 8302   6.463   7.676   5.370
 2176SOL    HW2 8303   6.337   7.641   5.447
 2177SOL     OW 8304   2.903   0.742   9.062
 2177SOL    HW1 8305   2.883   0.724   9.154
 2177SOL    HW2 8306   2.906   0.837   9.055
 2178SOL     OW 8307   8.968  12.208   2.479
 2178SOL    HW1 8308   9.035  12.247   2.534
 2178SOL    HW2 8309   8.885  12.235   2.519
 2179SOL     OW 8310   3.450   7.148   4.495
 2179SOL    HW1 8311   3.400   7.068   4.486
 2179SOL    HW2 8312   3.429   7.199   4.416
 2180SOL     OW 8313   1.799  13.002   0.918
 2180SOL    HW1 8314   1.815  13.079   0.973
 2180SOL    HW2 8315   1.754  12.941   0.975
 2181SOL     OW 8316   5.911   9.629   2.560
 2181SOL    HW1 8317   5.896   9.667   2.473
 2181SOL    HW2 8318   5.996   9.586   2.554
 2182SOL     OW 8319   5.018   7.096  12.248
 2182SOL    HW1 8320   5.105   7.086  12.210
 2182SOL    HW2 8321   4.958   7.087  12.174
 2183SOL     OW 8322  13.850   5.283   0.454
 2183SOL    HW1 8323  13.925   5.302   0.510
 2183SOL    HW2 8324  13.808   5.208   0.496
 2184SOL     OW 8325  13.587   4.913   3.586
 2184SOL    HW1 8326  13.621   4.826   3.607
 2184SOL    HW2 8327  13.545   4.942   3.667
 2185SOL     OW 8328  13.560   0.343   5.176
 2185SOL    HW1 8329  13.643   0.308   5.208
 2185SOL    HW2 8330  13.538   0.414   5.236
 2186SOL     OW 8331   0.875  13.050  11.927
 2186SOL    HW1 8332   0.833  13.069  12.011
 2186SOL    HW2 8333   0.862  12.956  11.914
 2187SOL     OW 8334   8.539   2.219   7.570
 2187SOL    HW1 8335   8.478   2.292   7.580
 2187SOL    HW2 8336   8.581   2.210   7.655
 2188SOL     OW 8337   8.122   5.702  13.610
 2188SOL    HW1 8338   8.190   5.769  13.597
 2188SOL    HW2 8339   8.137   5.640  13.539
 2189SOL     OW 8340  14.375   4.134   4.828
 2189SOL    HW1 8341  14.295   4.128   4.881
 2189SOL    HW2 8342  14.429   4.198   4.874
 2190SOL     OW 8343  14.100   6.013   0.089
 2190SOL    HW1 8344  14.124   6.077   0.023
 2190SOL    HW2 8345  14.100   5.929   0.043
 2191SOL     OW 8346   2.540  12.923   0.014
 2191SOL    HW1 8347   2.476  12.890  14.828
 2191SOL    HW2 8348   2.495  12.918   0.098
 2192SOL     OW 8349   7.903  10.563  10.745
 2192SOL    HW1 8350   7.965  10.497  10.778
 2192SOL    HW2 8351   7.867  10.524  10.665
 2193SOL     OW 8352   2.238   8.699  12.733
 2193SOL    HW1 8353   2.202   8.736  12.813
 2193SOL    HW2 8354   2.259   8.774  12.678
 2194SOL     OW 8355   4.583   0.291   9.560
 2194SOL    HW1 8356   4.531   0.288   9.640
 2194SOL    HW2 8357   4.673   0.303   9.590
 2195SOL     OW 8358   9.537   5.874  10.493
 2195SOL    HW1 8359   9.631   5.857  10.497
 2195SOL    HW2 8360   9.496   5.791  10.515
 2196SOL     OW 8361   9.308   3.292   7.324
 2196SOL    HW1 8362   9.244   3.356   7.292
 2196SOL    HW2 8363   9.258   3.212   7.336
 2197SOL     OW 8364  13.681   7.268   8.373
 2197SOL    HW1 8365  13.677   7.203   8.303
 2197SOL    HW2 8366  13.648   7.222   8.450
 2198SOL     OW 8367   3.245   6.728   4.896
 2198SOL    HW1 8368   3.270   6.738   4.988
 2198SOL    HW2 8369   3.215   6.638   4.889
 2199SOL     OW 8370   0.441   7.443   0.519
 2199SOL    HW1 8371   0.395   7.527   0.517
 2199SOL    HW2 8372   0.444   7.415   0.427
 2200SOL     OW 8373  12.581   0.787   8.309
 2200SOL    HW1 8374  12.585   0.703   8.265
 2200SOL    HW2 8375  12.665   0.829   8.288
 2201SOL     OW 8376   3.727  13.772   4.384
 2201SOL    HW1 8377   3.636  13.789   4.360
 2201SOL    HW2 8378   3.776  13.842   4.341
 2202SOL     OW 8379   1.015   7.564   0.891
 2202SOL    HW1 8380   1.023   7.576   0.986
 2202SOL    HW2 8381   0.932   7.518   0.879
 2203SOL     OW 8382   4.200  13.732   8.812
 2203SOL    HW1 8383   4.106  13.734   8.797
 2203SOL    HW2 8384   4.214  13.658   8.871
 2204SOL     OW 8385   1.704  10.800  11.619
 2204SOL    HW1 8386   1.785  10.775  11.663
 2204SOL    HW2 8387   1.642  10.730  11.640
 2205SOL     OW 8388   9.883   8.811   4.512
 2205SOL    HW1 8389   9.799   8.850   4.489
 2205SOL    HW2 8390   9.873   8.718   4.495
 2206SOL     OW 8391  13.135   3.173   7.373
 2206SOL    HW1 8392  13.166   3.117   7.302
 2206SOL    HW2 8393  13.107   3.112   7.441
 2207SOL     OW 8394  14.268  13.302  13.207
 2207SOL    HW1 8395  14.266  13.221  13.155
 2207SOL    HW2 8396  14.182  13.341  13.194
 2208SOL     OW 8397   5.278   9.560   1.665
 2208SOL    HW1 8398   5.251   9.644   1.702
 2208SOL    HW2 8399   5.307   9.509   1.741
 2209SOL     OW 8400  12.308   6.967  10.423
 2209SOL    HW1 8401  12.253   6.966  10.501
 2209SOL    HW2 8402  12.273   7.039  10.370
 2210SOL     OW 8403   4.862   5.242   7.250
 2210SOL    HW1 8404   4.787   5.261   7.192
 2210SOL    HW2 8405   4.907   5.169   7.207
 2211SOL     OW 8406   3.027   7.169  11.324
 2211SOL    HW1 8407   3.095   7.219  11.280
 2211SOL    HW2 8408   3.038   7.190  11.417
 2212SOL     OW 8409   2.533   9.144  13.944
 2212SOL    HW1 8410   2.450   9.100  13.962
 2212SOL    HW2 8411   2.553   9.122  13.853
 2213SOL     OW 8412   6.200   1.183   0.527
 2213SOL    HW1 8413   6.204   1.264   0.578
 2213SOL    HW2 8414   6.267   1.127   0.565
 2214SOL     OW 8415   9.123   0.428   1.716
 2214SOL    HW1 8416   9.092   0.461   1.632
 2214SOL    HW2 8417   9.146   0.506   1.766
 2215SOL     OW 8418   2.406  13.080  13.299
 2215SOL    HW1 8419   2.395  13.140  13.373
 2215SOL    HW2 8420   2.439  13.135  13.228
 2216SOL     OW 8421   0.555   4.605   1.196
 2216SOL    HW1 8422   0.529   4.693   1.168
 2216SOL    HW2 8423   0.483   4.576   1.252
 2217SOL     OW 8424   3.896   1.855  14.672
 2217SOL    HW1 8425   3.862   1.890  14.754
 2217SOL    HW2 8426   3.965   1.794  14.699
 2218SOL     OW 8427   4.671  11.089   5.217
 2218SOL    HW1 8428   4.680  11.171   5.265
 2218SOL    HW2 8429   4.657  11.117   5.126
 2219SOL     OW 8430  12.444  11.116  14.380
 2219SOL    HW1 8431  12.386  11.191  14.388
 2219SOL    HW2 8432  12.530  11.153  14.364
 2220SOL     OW 8433  13.648  11.644   4.299
 2220SOL    HW1 8434  13.632  11.725   4.250
 2220SOL    HW2 8435  13.627  11.574   4.237
 2221SOL     OW 8436   6.899   3.719   9.508
 2221SOL    HW1 8437   6.892   3.789   9.443
 2221SOL    HW2 8438   6.868   3.640   9.462
 2222SOL     OW 8439   8.031   8.247  10.124
 2222SOL    HW1 8440   8.052   8.238  10.031
 2222SOL    HW2 8441   8.059   8.164  10.163
 2223SOL     OW 8442   8.102   0.298   5.393
 2223SOL    HW1 8443   8.008   0.280   5.394
 2223SOL    HW2 8444   8.139   0.235   5.455
 2224SOL     OW 8445   3.826   5.883  13.151
 2224SOL    HW1 8446   3.819   5.867  13.057
 2224SOL    HW2 8447   3.742   5.924  13.175
 2225SOL     OW 8448  14.569  11.822   1.470
 2225SOL    HW1 8449  14.563  11.736   1.511
 2225SOL    HW2 8450  14.487  11.830   1.420
 2226SOL     OW 8451   5.834  11.264   6.760
 2226SOL    HW1 8452   5.923  11.253   6.791
 2226SOL    HW2 8453   5.781  11.268   6.840
 2227SOL     OW 8454   9.461  10.350  13.135
 2227SOL    HW1 8455   9.382  10.299  13.121
 2227SOL    HW2 8456   9.430  10.431  13.176
 2228SOL     OW 8457  10.526  11.285   5.492
 2228SOL    HW1 8458  10.578  11.317   5.565
 2228SOL    HW2 8459  10.576  11.212   5.456
 2229SOL     OW 8460   0.542   6.346   7.752
 2229SOL    HW1 8461   0.480   6.364   7.681
 2229SOL    HW2 8462   0.596   6.274   7.719
 2230SOL     OW 8463   2.510  13.380   1.690
 2230SOL    HW1 8464   2.533  13.289   1.711
 2230SOL    HW2 8465   2.448  13.405   1.758
 2231SOL     OW 8466   5.518  13.186   9.554
 2231SOL    HW1 8467   5.596  13.241   9.546
 2231SOL    HW2 8468   5.456  13.223   9.491
 2232SOL     OW 8469  14.105   3.300   1.290
 2232SOL    HW1 8470  14.164   3.238   1.333
 2232SOL    HW2 8471  14.150   3.384   1.297
 2233SOL     OW 8472   3.634   6.837   5.509
 2233SOL    HW1 8473   3.707   6.852   5.569
 2233SOL    HW2 8474   3.639   6.911   5.448
 2234SOL     OW 8475   6.924   4.806  10.738
 2234SOL    HW1 8476   7.000   4.798  10.680
 2234SOL    HW2 8477   6.946   4.753  10.814
 2235SOL     OW 8478  11.571  12.454   9.448
 2235SOL    HW1 8479  11.488  12.418   9.418
 2235SOL    HW2 8480  11.562  12.459   9.543
 2236SOL     OW 8481   7.491   9.706   9.786
 2236SOL    HW1 8482   7.483   9.694   9.692
 2236SOL    HW2 8483   7.585   9.722   9.801
 2237SOL     OW 8484   9.679   0.715   8.641
 2237SOL    HW1 8485   9.770   0.693   8.657
 2237SOL    HW2 8486   9.671   0.807   8.665
 2238SOL     OW 8487  10.843   8.635  10.363
 2238SOL    HW1 8488  10.794   8.604  10.287
 2238SOL    HW2 8489  10.785   8.617  10.437
 2239SOL     OW 8490   7.051  12.386   1.339
 2239SOL    HW1 8491   7.079  12.473   1.312
 2239SOL    HW2 8492   7.130  12.346   1.375
 2240SOL     OW 8493   4.578  11.287   5.403
 2240SOL    HW1 8494   4.563  11.264   5.495
 2240SOL    HW2 8495   4.491  11.305   5.368
 2241SOL     OW 8496   0.819  11.233  10.282
 2241SOL    HW1 8497   0.896  11.180  10.262
 2241SOL    HW2 8498   0.800  11.280  10.201
 2242SOL     OW 8499  14.819  12.795  11.599
 2242SOL    HW1 8500   0.013  12.856  11.616
 2242SOL    HW2 8501  14.740  12.844  11.623
 2243SOL     OW 8502   7.950   0.823   5.092
 2243SOL    HW1 8503   7.966   0.745   5.146
 2243SOL    HW2 8504   7.858   0.817   5.067
 2244SOL     OW 8505  14.326   7.440   3.940
 2244SOL    HW1 8506  14.416   7.464   3.915
 2244SOL    HW2 8507  14.281   7.524   3.947
 2245SOL     OW 8508   9.023   6.134   7.495
 2245SOL    HW1 8509   9.112   6.148   7.464
 2245SOL    HW2 8510   9.008   6.203   7.559
 2246SOL     OW 8511   7.612   0.880   0.539
 2246SOL    HW1 8512   7.544   0.852   0.477
 2246SOL    HW2 8513   7.677   0.924   0.484
 2247SOL     OW 8514   0.039  13.325  14.039
 2247SOL    HW1 8515   0.006  13.382  14.108
 2247SOL    HW2 8516   0.128  13.355  14.023
 2248SOL     OW 8517  10.426  12.028  13.744
 2248SOL    HW1 8518  10.396  11.942  13.713
 2248SOL    HW2 8519  10.500  12.008  13.801
 2249SOL     OW 8520   8.666   0.269  12.553
 2249SOL    HW1 8521   8.737   0.275  12.489
 2249SOL    HW2 8522   8.589   0.301  12.506
 2250SOL     OW 8523   9.667   4.219   7.642
 2250SOL    HW1 8524   9.618   4.294   7.609
 2250SOL    HW2 8525   9.602   4.149   7.649
 2251SOL     OW 8526   6.836   0.133   2.096
 2251SOL    HW1 8527   6.777   0.164   2.028
 2251SOL    HW2 8528   6.923   0.134   2.055
 2252SOL     OW 8529   8.889   1.392   5.653
 2252SOL    HW1 8530   8.961   1.437   5.697
 2252SOL    HW2 8531   8.890   1.304   5.691
 2253SOL     OW 8532  11.141   2.682   0.912
 2253SOL    HW1 8533  11.197   2.605   0.927
 2253SOL    HW2 8534  11.097   2.664   0.829
 2254SOL     OW 8535  13.261   1.331  14.337
 2254SOL    HW1 8536  13.180   1.285  14.360
 2254SOL    HW2 8537  13.316   1.263  14.298
 2255SOL     OW 8538   2.622  12.767   8.894
 2255SOL    HW1 8539   2.697  12.766   8.835
 2255SOL    HW2 8540   2.618  12.856   8.927
 2256SOL     OW 8541   8.118  14.508   5.043
 2256SOL    HW1 8542   8.196  14.483   4.995
 2256SOL    HW2 8543   8.107  14.440   5.109
 2257SOL     OW 8544   9.606   1.255  10.307
 2257SOL    HW1 8545   9.613   1.350  10.294
 2257SOL    HW2 8546   9.687   1.220  10.272
 2258SOL     OW 8547  13.520   9.395   4.093
 2258SOL    HW1 8548  13.491   9.462   4.031
 2258SOL    HW2 8549  13.439   9.355   4.125
 2259SOL     OW 8550   6.174   4.924   6.017
 2259SOL    HW1 8551   6.091   4.922   6.065
 2259SOL    HW2 8552   6.178   4.840   5.971
 2260SOL     OW 8553   0.835   7.205  10.420
 2260SOL    HW1 8554   0.844   7.239  10.332
 2260SOL    HW2 8555   0.760   7.252  10.456
 2261SOL     OW 8556   8.844   2.124   3.653
 2261SOL    HW1 8557   8.756   2.091   3.636
 2261SOL    HW2 8558   8.830   2.206   3.701
 2262SOL     OW 8559   7.456  14.357   6.506
 2262SOL    HW1 8560   7.497  14.384   6.588
 2262SOL    HW2 8561   7.422  14.439   6.468
 2263SOL     OW 8562  12.024   4.388  14.354
 2263SOL    HW1 8563  11.998   4.307  14.399
 2263SOL    HW2 8564  11.965   4.392  14.279
 2264SOL     OW 8565   9.382   5.760   0.901
 2264SOL    HW1 8566   9.397   5.718   0.816
 2264SOL    HW2 8567   9.469   5.786   0.931
 2265SOL     OW 8568   5.773   9.887   2.797
 2265SOL    HW1 8569   5.867   9.899   2.784
 2265SOL    HW2 8570   5.733   9.922   2.717
 2266SOL     OW 8571  12.063   9.776  11.205
 2266SOL    HW1 8572  12.045   9.864  11.238
 2266SOL    HW2 8573  12.129   9.741  11.264
 2267SOL     OW 8574  10.428  10.602   2.078
 2267SOL    HW1 8575  10.399  10.662   2.147
 2267SOL    HW2 8576  10.479  10.536   2.124
 2268SOL     OW 8577  12.665   7.795   6.671
 2268SOL    HW1 8578  12.757   7.798   6.697
 2268SOL    HW2 8579  12.661   7.724   6.606
 2269SOL     OW 8580   8.535  14.626   9.754
 2269SOL    HW1 8581   8.480  14.605   9.678
 2269SOL    HW2 8582   8.580  14.544   9.775
 2270SOL     OW 8583   7.315   4.606   6.773
 2270SOL    HW1 8584   7.276   4.679   6.725
 2270SOL    HW2 8585   7.249   4.537   6.769
 2271SOL     OW 8586   0.150  14.274   4.121
 2271SOL    HW1 8587   0.234  14.266   4.077
 2271SOL    HW2 8588   0.092  14.313   4.056
 2272SOL     OW 8589  14.231  10.471  12.124
 2272SOL    HW1 8590  14.293  10.399  12.130
 2272SOL    HW2 8591  14.263  10.525  12.052
 2273SOL     OW 8592   6.062   3.475   1.772
 2273SOL    HW1 8593   6.020   3.561   1.768
 2273SOL    HW2 8594   6.001   3.416   1.727
 2274SOL     OW 8595  13.090  11.013  10.108
 2274SOL    HW1 8596  13.178  11.042  10.132
 2274SOL    HW2 8597  13.075  11.051  10.021
 2275SOL     OW 8598   3.900   6.967   4.421
 2275SOL    HW1 8599   3.988   6.987   4.453
 2275SOL    HW2 8600   3.914   6.896   4.357
 2276SOL     OW 8601  12.413   9.295  12.628
 2276SOL    HW1 8602  12.470   9.261  12.697
 2276SOL    HW2 8603  12.339   9.234  12.626
 2277SOL     OW 8604   6.262  11.745  14.531
 2277SOL    HW1 8605   6.214  11.728  14.449
 2277SOL    HW2 8606   6.204  11.801  14.582
 2278SOL     OW 8607   7.511  14.306   6.821
 2278SOL    HW1 8608   7.581  14.252   6.785
 2278SOL    HW2 8609   7.544  14.335   6.906
 2279SOL     OW 8610  14.852   5.672   2.470
 2279SOL    HW1 8611   0.055   5.677   2.418
 2279SOL    HW2 8612  14.874   5.718   2.551
 2280SOL     OW 8613   7.396   8.374   3.706
 2280SOL    HW1 8614   7.473   8.404   3.658
 2280SOL    HW2 8615   7.325   8.379   3.642
 2281SOL     OW 8616   9.946   4.922   7.312
 2281SOL    HW1 8617   9.936   5.016   7.327
 2281SOL    HW2 8618   9.857   4.892   7.291
 2282SOL     OW 8619   0.390   0.050  13.856
 2282SOL    HW1 8620   0.373  14.873  13.933
 2282SOL    HW2 8621   0.432  14.869  13.793
 2283SOL     OW 8622   2.785   9.693  11.223
 2283SOL    HW1 8623   2.873   9.718  11.195
 2283SOL    HW2 8624   2.764   9.753  11.294
 2284SOL     OW 8625   4.341   1.348   5.802
 2284SOL    HW1 8626   4.299   1.386   5.879
 2284SOL    HW2 8627   4.433   1.343   5.826
 2285SOL     OW 8628  14.515   9.757  14.771
 2285SOL    HW1 8629  14.533   9.685  14.832
 2285SOL    HW2 8630  14.566   9.736  14.693
 2286SOL     OW 8631   5.055   0.836   0.155
 2286SOL    HW1 8632   5.064   0.740   0.152
 2286SOL    HW2 8633   5.143   0.868   0.134
 2287SOL     OW 8634   0.108   3.945   4.638
 2287SOL    HW1 8635   0.090   3.919   4.728
 2287SOL    HW2 8636   0.113   4.041   4.641
 2288SOL     OW 8637   6.289  11.917   1.436
 2288SOL    HW1 8638   6.275  11.884   1.347
 2288SOL    HW2 8639   6.286  12.013   1.426
 2289SOL     OW 8640   6.014   7.032   7.298
 2289SOL    HW1 8641   6.041   7.046   7.388
 2289SOL    HW2 8642   5.996   7.120   7.264
 2290SOL     OW 8643   9.755   5.771   8.973
 2290SOL    HW1 8644   9.824   5.794   9.036
 2290SOL    HW2 8645   9.742   5.851   8.923
 2291SOL     OW 8646   4.111   3.805   9.087
 2291SOL    HW1 8647   4.058   3.870   9.041
 2291SOL    HW2 8648   4.140   3.849   9.167
 2292SOL     OW 8649  14.517  13.895   5.450
 2292SOL    HW1 8650  14.462  13.874   5.374
 2292SOL    HW2 8651  14.469  13.859   5.525
 2293SOL     OW 8652   8.124   6.665  12.818
 2293SOL    HW1 8653   8.129   6.651  12.723
 2293SOL    HW2 8654   8.215   6.674  12.845
 2294SOL     OW 8655   4.488   2.796  10.316
 2294SOL    HW1 8656   4.476   2.829  10.405
 2294SOL    HW2 8657   4.464   2.869  10.259
 2295SOL     OW 8658   0.451   7.750  13.917
 2295SOL    HW1 8659   0.507   7.823  13.942
 2295SOL    HW2 8660   0.393   7.786  13.849
 2296SOL     OW 8661   9.369  13.739   5.264
 2296SOL    HW1 8662   9.376  13.809   5.328
 2296SOL    HW2 8663   9.325  13.668   5.311
 2297SOL     OW 8664   6.255  11.456   0.874
 2297SOL    HW1 8665   6.185  11.457   0.809
 2297SOL    HW2 8666   6.331  11.493   0.828
 2298SOL     OW 8667   5.736   5.866   9.794
 2298SOL    HW1 8668   5.741   5.837   9.703
 2298SOL    HW2 8669   5.792   5.944   9.797
 2299SOL     OW 8670   4.152   8.367   8.507
 2299SOL    HW1 8671   4.239   8.381   8.469
 2299SOL    HW2 8672   4.142   8.272   8.509
 2300SOL     OW 8673   1.993  11.449   6.419
 2300SOL    HW1 8674   2.066  11.420   6.365
 2300SOL    HW2 8675   1.961  11.528   6.375
 2301SOL     OW 8676  13.855   4.597  11.094
 2301SOL    HW1 8677  13.879   4.530  11.031
 2301SOL    HW2 8678  13.811   4.664  11.042
 2302SOL     OW 8679   1.570   5.908   2.575
 2302SOL    HW1 8680   1.586   5.862   2.657
 2302SOL    HW2 8681   1.500   5.858   2.532
 2303SOL     OW 8682  13.919   5.573  11.117
 2303SOL    HW1 8683  13.974   5.504  11.080
 2303SOL    HW2 8684  13.938   5.570  11.211
 2304SOL     OW 8685   9.462   2.525  14.722
 2304SOL    HW1 8686   9.529   2.569  14.775
 2304SOL    HW2 8687   9.493   2.534  14.631
 2305SOL     OW 8688   0.511  11.417   8.496
 2305SOL    HW1 8689   0.475  11.423   8.585
 2305SOL    HW2 8690   0.598  11.457   8.502
 2306SOL     OW 8691   6.465   8.775   9.333
 2306SOL    HW1 8692   6.398   8.770   9.401
 2306SOL    HW2 8693   6.463   8.689   9.291
 2307SOL     OW 8694   2.527   5.888   5.974
 2307SOL    HW1 8695   2.438   5.921   5.980
 2307SOL    HW2 8696   2.532   5.820   6.041
 2308SOL     OW 8697  11.526   4.890  11.246
 2308SOL    HW1 8698  11.450   4.850  11.203
 2308SOL    HW2 8699  11.534   4.976  11.206
 2309SOL     OW 8700   7.231  10.771   9.141
 2309SOL    HW1 8701   7.195  10.707   9.079
 2309SOL    HW2 8702   7.324  10.775   9.120
 2310SOL     OW 8703   7.758  12.079   4.742
 2310SOL    HW1 8704   7.767  11.990   4.775
 2310SOL    HW2 8705   7.769  12.134   4.820
 2311SOL     OW 8706   0.075   7.363   2.613
 2311SOL    HW1 8707   0.086   7.271   2.639
 2311SOL    HW2 8708   0.164   7.399   2.617
 2312SOL     OW 8709  12.919  13.401   6.773
 2312SOL    HW1 8710  12.836  13.417   6.730
 2312SOL    HW2 8711  12.985  13.419   6.706
 2313SOL     OW 8712   6.578   2.181  11.582
 2313SOL    HW1 8713   6.580   2.101  11.530
 2313SOL    HW2 8714   6.669   2.202  11.598
 2314SOL     OW 8715   3.199   6.451   1.036
 2314SOL    HW1 8716   3.150   6.395   0.976
 2314SOL    HW2 8717   3.146   6.530   1.044
 2315SOL     OW 8718  11.524   6.360   8.257
 2315SOL    HW1 8719  11.619   6.356   8.265
 2315SOL    HW2 8720  11.507   6.445   8.215
 2316SOL     OW 8721   7.932   9.077   9.629
 2316SOL    HW1 8722   7.883   9.151   9.665
 2316SOL    HW2 8723   7.875   9.002   9.642
 2317SOL     OW 8724   1.564   0.037  12.559
 2317SOL    HW1 8725   1.519   0.003  12.636
 2317SOL    HW2 8726   1.608  14.839  12.521
 2318SOL     OW 8727   1.666  14.075   3.450
 2318SOL    HW1 8728   1.608  14.111   3.383
 2318SOL    HW2 8729   1.709  14.001   3.408
 2319SOL     OW 8730   1.591   3.105   2.047
 2319SOL    HW1 8731   1.622   3.015   2.053
 2319SOL    HW2 8732   1.626   3.137   1.963
 2320SOL     OW 8733   8.840  12.338   9.871
 2320SOL    HW1 8734   8.824  12.332   9.777
 2320SOL    HW2 8735   8.926  12.380   9.878
 2321SOL     OW 8736   4.224   3.614   0.597
 2321SOL    HW1 8737   4.190   3.697   0.630
 2321SOL    HW2 8738   4.262   3.635   0.512
 2322SOL     OW 8739   1.604   6.098  11.785
 2322SOL    HW1 8740   1.650   6.024  11.824
 2322SOL    HW2 8741   1.572   6.149  11.859
 2323SOL     OW 8742   9.086   9.457   1.772
 2323SOL    HW1 8743   9.009   9.448   1.715
 2323SOL    HW2 8744   9.054   9.505   1.848
 2324SOL     OW 8745  10.946  14.683  14.787
 2324SOL    HW1 8746  11.035  14.648  14.783
 2324SOL    HW2 8747  10.925  14.681   0.003
 2325SOL     OW 8748   5.941  12.433   3.722
 2325SOL    HW1 8749   5.950  12.514   3.771
 2325SOL    HW2 8750   5.901  12.372   3.785
 2326SOL     OW 8751  14.719  13.797   2.746
 2326SOL    HW1 8752  14.691  13.706   2.737
 2326SOL    HW2 8753  14.655  13.835   2.807
 2327SOL     OW 8754  10.724   7.689  11.122
 2327SOL    HW1 8755  10.678   7.712  11.203
 2327SOL    HW2 8756  10.709   7.764  11.064
 2328SOL     OW 8757   0.558   4.029   5.111
 2328SOL    HW1 8758   0.524   3.987   5.032
 2328SOL    HW2 8759   0.590   3.957   5.165
 2329SOL     OW 8760   9.264  10.993  11.920
 2329SOL    HW1 8761   9.210  10.915  11.910
 2329SOL    HW2 8762   9.209  11.064  11.885
 2330SOL     OW 8763  12.181   4.910   4.015
 2330SOL    HW1 8764  12.225   4.905   4.100
 2330SOL    HW2 8765  12.228   4.978   3.967
 2331SOL     OW 8766  11.057  12.403  11.702
 2331SOL    HW1 8767  10.999  12.433  11.772
 2331SOL    HW2 8768  11.094  12.321  11.736
 2332SOL     OW 8769   6.219  10.570   2.937
 2332SOL    HW1 8770   6.146  10.536   2.885
 2332SOL    HW2 8771   6.281  10.603   2.872
 2333SOL     OW 8772   0.403   0.002   7.895
 2333SOL    HW1 8773   0.339  14.815   7.868
 2333SOL    HW2 8774   0.433  14.850   7.981
 2334SOL     OW 8775  11.516  14.283   6.498
 2334SOL    HW1 8776  11.567  14.274   6.418
 2334SOL    HW2 8777  11.582  14.291   6.567
 2335SOL     OW 8778   7.203   6.604  12.929
 2335SOL    HW1 8779   7.285   6.651  12.945
 2335SOL    HW2 8780   7.200   6.537  12.997
 2336SOL     OW 8781   9.951   2.633   1.475
 2336SOL    HW1 8782   9.959   2.644   1.570
 2336SOL    HW2 8783   9.990   2.548   1.457
 2337SOL     OW 8784   0.141  11.787   8.749
 2337SOL    HW1 8785   0.085  11.725   8.798
 2337SOL    HW2 8786   0.228  11.774   8.785
 2338SOL     OW 8787   3.664   8.546  14.098
 2338SOL    HW1 8788   3.750   8.511  14.075
 2338SOL    HW2 8789   3.656   8.627  14.049
 2339SOL     OW 8790   2.728   6.964  14.769
 2339SOL    HW1 8791   2.709   6.978  14.861
 2339SOL    HW2 8792   2.664   6.900  14.740
 2340SOL     OW 8793  14.035   9.911  12.367
 2340SOL    HW1 8794  14.064   9.837  12.420
 2340SOL    HW2 8795  14.106   9.926  12.306
 2341SOL     OW 8796  14.705   0.064  11.402
 2341SOL    HW1 8797  14.639   0.120  11.361
 2341SOL    HW2 8798  14.660   0.027  11.478
 2342SOL     OW 8799   3.735   2.895  13.816
 2342SOL    HW1 8800   3.756   2.968  13.874
 2342SOL    HW2 8801   3.724   2.820  13.875
 2343SOL     OW 8802  10.020   8.467   0.820
 2343SOL    HW1 8803   9.930   8.449   0.790
 2343SOL    HW2 8804  10.011   8.479   0.914
 2344SOL     OW 8805   3.114   6.879  11.731
 2344SOL    HW1 8806   3.180   6.948  11.724
 2344SOL    HW2 8807   3.151   6.805  11.683
 2345SOL     OW 8808  12.433   4.134  14.170
 2345SOL    HW1 8809  12.364   4.192  14.140
 2345SOL    HW2 8810  12.402   4.103  14.256
 2346SOL     OW 8811  14.464   6.292   3.277
 2346SOL    HW1 8812  14.461   6.261   3.187
 2346SOL    HW2 8813  14.500   6.380   3.271
 2347SOL     OW 8814   4.742   2.563   1.606
 2347SOL    HW1 8815   4.681   2.585   1.676
 2347SOL    HW2 8816   4.706   2.608   1.529
 2348SOL     OW 8817   2.519  11.553   7.151
 2348SOL    HW1 8818   2.589  11.503   7.109
 2348SOL    HW2 8819   2.514  11.634   7.101
 2349SOL     OW 8820  11.421  13.551   4.127
 2349SOL    HW1 8821  11.400  13.609   4.200
 2349SOL    HW2 8822  11.450  13.469   4.168
 2350SOL     OW 8823   5.697   3.418  13.560
 2350SOL    HW1 8824   5.605   3.424  13.584
 2350SOL    HW2 8825   5.700   3.346  13.497
 2351SOL     OW 8826   8.746   4.188   0.758
 2351SOL    HW1 8827   8.776   4.135   0.831
 2351SOL    HW2 8828   8.669   4.234   0.791
 2352SOL     OW 8829   5.668   3.240  11.204
 2352SOL    HW1 8830   5.594   3.180  11.201
 2352SOL    HW2 8831   5.638   3.314  11.257
 2353SOL     OW 8832   8.459  13.480  13.981
 2353SOL    HW1 8833   8.537  13.482  13.924
 2353SOL    HW2 8834   8.458  13.567  14.022
 2354SOL     OW 8835  13.886   5.769  12.597
 2354SOL    HW1 8836  13.957   5.707  12.618
 2354SOL    HW2 8837  13.916   5.813  12.517
 2355SOL     OW 8838  14.618   6.725   2.810
 2355SOL    HW1 8839  14.624   6.742   2.904
 2355SOL    HW2 8840  14.703   6.751   2.775
 2356SOL     OW 8841   1.529   9.962   4.129
 2356SOL    HW1 8842   1.600   9.962   4.193
 2356SOL    HW2 8843   1.484  10.046   4.144
 2357SOL     OW 8844   3.088  11.399   2.629
 2357SOL    HW1 8845   3.174  11.423   2.595
 2357SOL    HW2 8846   3.053  11.480   2.666
 2358SOL     OW 8847   2.043  14.701   4.351
 2358SOL    HW1 8848   2.092  14.629   4.392
 2358SOL    HW2 8849   2.045  14.681   4.258
 2359SOL     OW 8850   0.060   5.801   9.306
 2359SOL    HW1 8851   0.116   5.760   9.371
 2359SOL    HW2 8852  14.867   5.842   9.356
 2360SOL     OW 8853   4.003  13.393   0.724
 2360SOL    HW1 8854   3.951  13.366   0.649
 2360SOL    HW2 8855   4.070  13.324   0.732
 2361SOL     OW 8856  12.070   8.687   5.335
 2361SOL    HW1 8857  12.125   8.675   5.412
 2361SOL    HW2 8858  11.983   8.707   5.370
 2362SOL     OW 8859  10.676  13.433  13.911
 2362SOL    HW1 8860  10.648  13.439  14.002
 2362SOL    HW2 8861  10.594  13.432  13.861
 2363SOL     OW 8862   8.901   7.071   0.536
 2363SOL    HW1 8863   8.961   7.071   0.462
 2363SOL    HW2 8864   8.900   6.980   0.566
 2364SOL     OW 8865  12.769   5.346  14.589
 2364SOL    HW1 8866  12.767   5.400  14.510
 2364SOL    HW2 8867  12.678   5.317  14.600
 2365SOL     OW 8868  14.435   1.505   9.735
 2365SOL    HW1 8869  14.473   1.545   9.657
 2365SOL    HW2 8870  14.381   1.573   9.774
 2366SOL     OW 8871   8.220   0.881   6.440
 2366SOL    HW1 8872   8.298   0.871   6.495
 2366SOL    HW2 8873   8.171   0.799   6.453
 2367SOL     OW 8874   3.184  12.503   8.832
 2367SOL    HW1 8875   3.278  12.489   8.836
 2367SOL    HW2 8876   3.149  12.449   8.903
 2368SOL     OW 8877  11.431   9.642  10.813
 2368SOL    HW1 8878  11.411   9.663  10.721
 2368SOL    HW2 8879  11.477   9.720  10.846
 2369SOL     OW 8880   1.101   2.999   5.420
 2369SOL    HW1 8881   1.148   3.062   5.475
 2369SOL    HW2 8882   1.018   2.986   5.466
 2370SOL     OW 8883  14.054   5.028  12.838
 2370SOL    HW1 8884  14.045   4.998  12.747
 2370SOL    HW2 8885  14.148   5.042  12.849
 2371SOL     OW 8886   0.150   2.853   5.449
 2371SOL    HW1 8887   0.148   2.881   5.540
 2371SOL    HW2 8888   0.100   2.772   5.447
 2372SOL     OW 8889   9.777   6.735   8.102
 2372SOL    HW1 8890   9.862   6.725   8.060
 2372SOL    HW2 8891   9.724   6.664   8.066
 2373SOL     OW 8892   0.322  11.589   5.855
 2373SOL    HW1 8893   0.322  11.654   5.785
 2373SOL    HW2 8894   0.409  11.596   5.894
 2374SOL     OW 8895   0.325   1.672  10.584
 2374SOL    HW1 8896   0.268   1.749  10.578
 2374SOL    HW2 8897   0.265   1.599  10.601
 2375SOL     OW 8898  11.116   2.752  12.983
 2375SOL    HW1 8899  11.029   2.751  12.942
 2375SOL    HW2 8900  11.099   2.725  13.073
 2376SOL     OW 8901  14.122   4.173   0.887
 2376SOL    HW1 8902  14.037   4.181   0.843
 2376SOL    HW2 8903  14.148   4.082   0.871
 2377SOL     OW 8904   4.804  10.635   8.759
 2377SOL    HW1 8905   4.760  10.683   8.829
 2377SOL    HW2 8906   4.776  10.544   8.769
 2378SOL     OW 8907   5.008   6.139   9.538
 2378SOL    HW1 8908   5.042   6.083   9.467
 2378SOL    HW2 8909   5.086   6.163   9.588
 2379SOL     OW 8910  12.300   2.290   7.926
 2379SOL    HW1 8911  12.222   2.276   7.980
 2379SOL    HW2 8912  12.301   2.217   7.864
 2380SOL     OW 8913   9.668   9.872  13.435
 2380SOL    HW1 8914   9.702   9.873  13.524
 2380SOL    HW2 8915   9.618   9.791  13.429
 2381SOL     OW 8916   0.217   7.927  14.053
 2381SOL    HW1 8917   0.168   7.898  14.129
 2381SOL    HW2 8918   0.240   7.846  14.007
 2382SOL     OW 8919  11.832  11.672   3.454
 2382SOL    HW1 8920  11.819  11.626   3.371
 2382SOL    HW2 8921  11.898  11.621   3.500
 2383SOL     OW 8922  12.024   5.916   1.506
 2383SOL    HW1 8923  12.070   5.963   1.575
 2383SOL    HW2 8924  12.087   5.909   1.434
 2384SOL     OW 8925   3.247   3.019  12.329
 2384SOL    HW1 8926   3.274   2.934  12.364
 2384SOL    HW2 8927   3.152   3.021  12.341
 2385SOL     OW 8928   0.433   0.669   5.641
 2385SOL    HW1 8929   0.521   0.635   5.659
 2385SOL    HW2 8930   0.418   0.735   5.709
 2386SOL     OW 8931  13.709   9.472  14.699
 2386SOL    HW1 8932  13.725   9.540  14.765
 2386SOL    HW2 8933  13.676   9.520  14.623
 2387SOL     OW 8934   6.858  14.075   6.573
 2387SOL    HW1 8935   6.953  14.089   6.582
 2387SOL    HW2 8936   6.840  13.997   6.625
 2388SOL     OW 8937  13.654   4.875   9.269
 2388SOL    HW1 8938  13.573   4.827   9.251
 2388SOL    HW2 8939  13.627   4.967   9.276
 2389SOL     OW 8940  10.920  11.604  14.147
 2389SOL    HW1 8941  10.920  11.509  14.160
 2389SOL    HW2 8942  11.011  11.630  14.161
 2390SOL     OW 8943   3.983   7.411   8.951
 2390SOL    HW1 8944   3.890   7.429   8.941
 2390SOL    HW2 8945   4.027   7.482   8.904
 2391SOL     OW 8946   1.653   9.406   3.341
 2391SOL    HW1 8947   1.717   9.473   3.317
 2391SOL    HW2 8948   1.667   9.336   3.277
 2392SOL     OW 8949   0.269   6.067   9.247
 2392SOL    HW1 8950   0.191   6.020   9.274
 2392SOL    HW2 8951   0.247   6.159   9.258
 2393SOL     OW 8952  10.669   0.437  14.325
 2393SOL    HW1 8953  10.647   0.530  14.337
 2393SOL    HW2 8954  10.697   0.408  14.412
 2394SOL     OW 8955  14.766   3.407   2.517
 2394SOL    HW1 8956  14.672   3.399   2.505
 2394SOL    HW2 8957  14.804   3.372   2.437
 2395SOL     OW 8958  12.515  14.477   1.842
 2395SOL    HW1 8959  12.564  14.444   1.767
 2395SOL    HW2 8960  12.562  14.556   1.868
 2396SOL     OW 8961  10.822   4.748   8.062
 2396SOL    HW1 8962  10.745   4.727   8.114
 2396SOL    HW2 8963  10.895   4.743   8.124
 2397SOL     OW 8964   0.975   0.652   2.836
 2397SOL    HW1 8965   0.906   0.701   2.793
 2397SOL    HW2 8966   1.040   0.637   2.768
 2398SOL     OW 8967  12.529   5.554   9.823
 2398SOL    HW1 8968  12.548   5.587   9.911
 2398SOL    HW2 8969  12.538   5.631   9.766
 2399SOL     OW 8970   8.342  10.627   8.035
 2399SOL    HW1 8971   8.281  10.617   8.108
 2399SOL    HW2 8972   8.287  10.657   7.962
 2400SOL     OW 8973   3.199  12.086   5.597
 2400SOL    HW1 8974   3.223  11.995   5.584
 2400SOL    HW2 8975   3.105  12.089   5.581
 2401SOL     OW 8976  12.942   2.449   2.892
 2401SOL    HW1 8977  12.871   2.505   2.859
 2401SOL    HW2 8978  13.002   2.511   2.934
 2402SOL     OW 8979   7.322   6.310   9.692
 2402SOL    HW1 8980   7.391   6.364   9.730
 2402SOL    HW2 8981   7.264   6.291   9.766
 2403SOL     OW 8982   2.183  13.832   6.160
 2403SOL    HW1 8983   2.123  13.893   6.204
 2403SOL    HW2 8984   2.248  13.889   6.119
 2404SOL     OW 8985   6.454   3.348  13.377
 2404SOL    HW1 8986   6.515   3.305  13.317
 2404SOL    HW2 8987   6.509   3.378  13.449
 2405SOL     OW 8988  10.293   6.075   3.387
 2405SOL    HW1 8989  10.288   6.111   3.476
 2405SOL    HW2 8990  10.298   6.152   3.331
 2406SOL     OW 8991  10.461   2.780  11.351
 2406SOL    HW1 8992  10.459   2.688  11.376
 2406SOL    HW2 8993  10.547   2.793  11.311
 2407SOL     OW 8994   0.502  10.739   1.388
 2407SOL    HW1 8995   0.596  10.732   1.376
 2407SOL    HW2 8996   0.491  10.805   1.456
 2408SOL     OW 8997  10.134   9.399  10.881
 2408SOL    HW1 8998  10.126   9.468  10.815
 2408SOL    HW2 8999  10.156   9.446  10.962
 2409SOL     OW 9000   4.082   6.603   1.659
 2409SOL    HW1 9001   4.009   6.577   1.603
 2409SOL    HW2 9002   4.046   6.599   1.748
 2410SOL     OW 9003   2.435   9.610   5.666
 2410SOL    HW1 9004   2.445   9.680   5.602
 2410SOL    HW2 9005   2.351   9.570   5.645
 2411SOL     OW 9006  14.259  14.724   8.202
 2411SOL    HW1 9007  14.221  14.668   8.270
 2411SOL    HW2 9008  14.241  14.678   8.121
 2412SOL     OW 9009   8.598   5.820  11.734
 2412SOL    HW1 9010   8.587   5.730  11.765
 2412SOL    HW2 9011   8.691   5.825  11.710
 2413SOL     OW 9012   6.731   7.707   0.456
 2413SOL    HW1 9013   6.643   7.717   0.421
 2413SOL    HW2 9014   6.781   7.779   0.417
 2414SOL     OW 9015   8.306  14.664   3.040
 2414SOL    HW1 9016   8.294  14.665   2.946
 2414SOL    HW2 9017   8.292  14.573   3.066
 2415SOL     OW 9018  13.827   9.471   3.939
 2415SOL    HW1 9019  13.856   9.529   3.868
 2415SOL    HW2 9020  13.741   9.506   3.964
 2416SOL     OW 9021   9.950   3.675   2.111
 2416SOL    HW1 9022   9.994   3.677   2.197
 2416SOL    HW2 9023   9.861   3.703   2.129
 2417SOL     OW 9024  12.981   6.019   0.705
 2417SOL    HW1 9025  12.923   6.092   0.684
 2417SOL    HW2 9026  13.011   6.037   0.794
 2418SOL     OW 9027   9.012  12.876   4.616
 2418SOL    HW1 9028   9.027  12.800   4.560
 2418SOL    HW2 9029   8.924  12.906   4.594
 2419SOL     OW 9030   7.784  11.866   1.700
 2419SOL    HW1 9031   7.699  11.823   1.707
 2419SOL    HW2 9032   7.848  11.797   1.717
 2420SOL     OW 9033   8.425   4.074   8.182
 2420SOL    HW1 9034   8.458   4.003   8.237
 2420SOL    HW2 9035   8.429   4.040   8.093
 2421SOL     OW 9036   6.072   2.622  14.389
 2421SOL    HW1 9037   6.057   2.710  14.423
 2421SOL    HW2 9038   6.099   2.571  14.465
 2422SOL     OW 9039   6.305   6.018  10.549
 2422SOL    HW1 9040   6.347   6.088  10.499
 2422SOL    HW2 9041   6.321   5.939  10.498
 2423SOL     OW 9042  14.821   6.039  10.675
 2423SOL    HW1 9043  14.738   6.000  10.646
 2423SOL    HW2 9044  14.856   5.977  10.738
 2424SOL     OW 9045  13.850  11.486   1.290
 2424SOL    HW1 9046  13.869  11.416   1.352
 2424SOL    HW2 9047  13.892  11.457   1.208
 2425SOL     OW 9048   7.694   9.274   9.209
 2425SOL    HW1 9049   7.769   9.257   9.266
 2425SOL    HW2 9050   7.665   9.361   9.233
 2426SOL     OW 9051   6.067  12.041   9.166
 2426SOL    HW1 9052   5.972  12.043   9.155
 2426SOL    HW2 9053   6.080  12.029   9.260
 2427SOL     OW 9054   6.340   8.616   4.470
 2427SOL    HW1 9055   6.359   8.696   4.519
 2427SOL    HW2 9056   6.416   8.559   4.487
 2428SOL     OW 9057   5.762   6.088  10.363
 2428SOL    HW1 9058   5.689   6.128  10.314
 2428SOL    HW2 9059   5.784   6.152  10.430
 2429SOL     OW 9060   8.182   6.743   6.766
 2429SOL    HW1 9061   8.104   6.779   6.724
 2429SOL    HW2 9062   8.247   6.738   6.696
 2430SOL     OW 9063  10.598   0.483   7.901
 2430SOL    HW1 9064  10.588   0.446   7.989
 2430SOL    HW2 9065  10.683   0.450   7.872
 2431SOL     OW 9066   9.301  11.932   7.793
 2431SOL    HW1 9067   9.345  11.909   7.875
 2431SOL    HW2 9068   9.261  11.850   7.764
 2432SOL     OW 9069   9.929  12.224   0.105
 2432SOL    HW1 9070   9.972  12.266   0.030
 2432SOL    HW2 9071   9.997  12.219   0.172
 2433SOL     OW 9072   1.112   5.475  11.745
 2433SOL    HW1 9073   1.073   5.394  11.778
 2433SOL    HW2 9074   1.198   5.449  11.713
 2434SOL     OW 9075   6.281   0.382  12.823
 2434SOL    HW1 9076   6.276   0.459  12.766
 2434SOL    HW2 9077   6.191   0.369  12.852
 2435SOL     OW 9078   2.946   4.540  13.141
 2435SOL    HW1 9079   2.916   4.454  13.109
 2435SOL    HW2 9080   2.966   4.525  13.233
 2436SOL     OW 9081   4.313  11.189   4.554
 2436SOL    HW1 9082   4.408  11.193   4.543
 2436SOL    HW2 9083   4.295  11.247   4.628
 2437SOL     OW 9084   9.821   3.770   7.356
 2437SOL    HW1 9085   9.911   3.763   7.388
 2437SOL    HW2 9086   9.800   3.863   7.362
 2438SOL     OW 9087  11.733   0.395   4.433
 2438SOL    HW1 9088  11.798   0.465   4.439
 2438SOL    HW2 9089  11.737   0.351   4.518
 2439SOL     OW 9090   6.943  13.201  11.713
 2439SOL    HW1 9091   6.929  13.149  11.792
 2439SOL    HW2 9092   6.864  13.186  11.660
 2440SOL     OW 9093   9.209   5.920   2.751
 2440SOL    HW1 9094   9.229   6.007   2.786
 2440SOL    HW2 9095   9.290   5.869   2.765
 2441SOL     OW 9096   3.852  12.491   1.880
 2441SOL    HW1 9097   3.758  12.480   1.866
 2441SOL    HW2 9098   3.892  12.468   1.796
 2442SOL     OW 9099   8.416  14.043   6.779
 2442SOL    HW1 9100   8.437  14.021   6.870
 2442SOL    HW2 9101   8.350  13.977   6.754
 2443SOL     OW 9102   4.146   7.465   5.167
 2443SOL    HW1 9103   4.216   7.504   5.116
 2443SOL    HW2 9104   4.066   7.506   5.135
 2444SOL     OW 9105   7.418   0.290   5.026
 2444SOL    HW1 9106   7.444   0.217   4.970
 2444SOL    HW2 9107   7.333   0.264   5.062
 2445SOL     OW 9108  11.944   9.181   0.707
 2445SOL    HW1 9109  11.863   9.169   0.657
 2445SOL    HW2 9110  11.944   9.274   0.730
 2446SOL     OW 9111   1.803  11.407  13.280
 2446SOL    HW1 9112   1.825  11.366  13.196
 2446SOL    HW2 9113   1.887  11.439  13.314
 2447SOL     OW 9114  10.516  11.704  13.126
 2447SOL    HW1 9115  10.522  11.750  13.043
 2447SOL    HW2 9116  10.493  11.614  13.102
 2448SOL     OW 9117   7.917  12.095   1.645
 2448SOL    HW1 9118   7.889  12.004   1.651
 2448SOL    HW2 9119   7.993  12.100   1.703
 2449SOL     OW 9120   3.894  11.375   3.033
 2449SOL    HW1 9121   3.933  11.370   3.120
 2449SOL    HW2 9122   3.969  11.380   2.973
 2450SOL     OW 9123  10.397   7.545  13.176
 2450SOL    HW1 9124  10.326   7.576  13.120
 2450SOL    HW2 9125  10.451   7.491  13.119
 2451SOL     OW 9126   4.701   2.650  10.971
 2451SOL    HW1 9127   4.647   2.583  11.013
 2451SOL    HW2 9128   4.755   2.601  10.908
 2452SOL     OW 9129  12.934  13.866   2.282
 2452SOL    HW1 9130  12.895  13.781   2.265
 2452SOL    HW2 9131  13.009  13.846   2.339
 2453SOL     OW 9132   7.723   8.814   5.530
 2453SOL    HW1 9133   7.763   8.872   5.595
 2453SOL    HW2 9134   7.724   8.865   5.449
 2454SOL     OW 9135   2.965  10.705  14.361
 2454SOL    HW1 9136   3.024  10.630  14.351
 2454SOL    HW2 9137   3.006  10.758  14.429
 2455SOL     OW 9138  12.207   9.130   6.938
 2455SOL    HW1 9139  12.135   9.191   6.921
 2455SOL    HW2 9140  12.281   9.185   6.963
 2456SOL     OW 9141  12.846   4.670   5.088
 2456SOL    HW1 9142  12.836   4.618   5.009
 2456SOL    HW2 9143  12.770   4.730   5.087
 2457SOL     OW 9144  12.748  10.215  14.044
 2457SOL    HW1 9145  12.755  10.165  13.962
 2457SOL    HW2 9146  12.655  10.229  14.056
 2458SOL     OW 9147  11.357   4.364  11.429
 2458SOL    HW1 9148  11.307   4.360  11.347
 2458SOL    HW2 9149  11.400   4.278  11.434
 2459SOL     OW 9150   7.726   6.840   1.319
 2459SOL    HW1 9151   7.705   6.749   1.340
 2459SOL    HW2 9152   7.722   6.886   1.403
 2460SOL     OW 9153   6.023   4.570   5.237
 2460SOL    HW1 9154   5.980   4.645   5.278
 2460SOL    HW2 9155   5.965   4.497   5.255
 2461SOL     OW 9156   6.898   6.856   2.344
 2461SOL    HW1 9157   6.899   6.760   2.345
 2461SOL    HW2 9158   6.948   6.880   2.266
 2462SOL     OW 9159   1.274   5.315   4.473
 2462SOL    HW1 9160   1.216   5.281   4.405
 2462SOL    HW2 9161   1.360   5.279   4.450
 2463SOL     OW 9162  11.630  14.567  14.444
 2463SOL    HW1 9163  11.623  14.583  14.538
 2463SOL    HW2 9164  11.571  14.630  14.403
 2464SOL     OW 9165  12.825   1.331   4.144
 2464SOL    HW1 9166  12.825   1.252   4.090
 2464SOL    HW2 9167  12.743   1.327   4.192
 2465SOL     OW 9168   5.462  10.421  10.512
 2465SOL    HW1 9169   5.457  10.434  10.606
 2465SOL    HW2 9170   5.482  10.328  10.501
 2466SOL     OW 9171   7.271  11.921   8.264
 2466SOL    HW1 9172   7.307  11.921   8.175
 2466SOL    HW2 9173   7.209  11.848   8.265
 2467SOL     OW 9174   3.817  12.048   6.581
 2467SOL    HW1 9175   3.879  12.110   6.543
 2467SOL    HW2 9176   3.753  12.103   6.627
 2468SOL     OW 9177   9.566   2.967   8.009
 2468SOL    HW1 9178   9.580   3.058   8.037
 2468SOL    HW2 9179   9.639   2.949   7.950
 2469SOL     OW 9180  14.436   5.343   8.137
 2469SOL    HW1 9181  14.494   5.292   8.193
 2469SOL    HW2 9182  14.365   5.283   8.113
 2470SOL     OW 9183   2.643  14.076  14.841
 2470SOL    HW1 9184   2.680  13.997  14.801
 2470SOL    HW2 9185   2.629  14.052   0.055
 2471SOL     OW 9186   6.188  10.268   0.639
 2471SOL    HW1 9187   6.278  10.290   0.663
 2471SOL    HW2 9188   6.197  10.207   0.566
 2472SOL     OW 9189  13.376   0.282   0.922
 2472SOL    HW1 9190  13.447   0.286   0.986
 2472SOL    HW2 9191  13.296   0.288   0.975
 2473SOL     OW 9192   9.481  11.003   2.358
 2473SOL    HW1 9193   9.385  11.000   2.359
 2473SOL    HW2 9194   9.502  11.092   2.389
 2474SOL     OW 9195   9.421   9.718  12.541
 2474SOL    HW1 9196   9.420   9.690  12.449
 2474SOL    HW2 9197   9.514   9.731  12.560
 2475SOL     OW 9198  10.455   3.080   7.466
 2475SOL    HW1 9199  10.473   3.021   7.539
 2475SOL    HW2 9200  10.489   3.165   7.494
 2476SOL     OW 9201  14.551   7.368   2.617
 2476SOL    HW1 9202  14.624   7.372   2.556
 2476SOL    HW2 9203  14.498   7.295   2.587
 2477SOL     OW 9204   7.869   7.352  14.324
 2477SOL    HW1 9205   7.925   7.381  14.252
 2477SOL    HW2 9206   7.879   7.257  14.326
 2478SOL     OW 9207   4.970   2.378   4.032
 2478SOL    HW1 9208   4.964   2.448   3.967
 2478SOL    HW2 9209   5.049   2.398   4.082
 2479SOL     OW 9210   9.651   7.429   2.683
 2479SOL    HW1 9211   9.662   7.386   2.768
 2479SOL    HW2 9212   9.700   7.511   2.692
 2480SOL     OW 9213  14.475   3.074  14.817
 2480SOL    HW1 9214  14.555   3.033  14.851
 2480SOL    HW2 9215  14.467   3.155  14.867
 2481SOL     OW 9216   6.419  13.748  14.704
 2481SOL    HW1 9217   6.460  13.812  14.762
 2481SOL    HW2 9218   6.397  13.797  14.625
 2482SOL     OW 9219  11.975   5.687   7.579
 2482SOL    HW1 9220  12.000   5.771   7.618
 2482SOL    HW2 9221  11.889   5.668   7.617
 2483SOL     OW 9222   0.635   0.929   5.616
 2483SOL    HW1 9223   0.712   0.929   5.673
 2483SOL    HW2 9224   0.668   0.900   5.531
 2484SOL     OW 9225   7.811   1.426  12.410
 2484SOL    HW1 9226   7.725   1.424  12.453
 2484SOL    HW2 9227   7.791   1.437  12.317
 2485SOL     OW 9228   8.168  14.531  11.547
 2485SOL    HW1 9229   8.170  14.528  11.643
 2485SOL    HW2 9230   8.260  14.532  11.521
 2486SOL     OW 9231   2.666  14.865   6.965
 2486SOL    HW1 9232   2.710   0.063   6.925
 2486SOL    HW2 9233   2.601  14.838   6.900
 2487SOL     OW 9234   1.547   6.358   9.001
 2487SOL    HW1 9235   1.616   6.330   8.942
 2487SOL    HW2 9236   1.587   6.355   9.088
 2488SOL     OW 9237   1.719  14.089  14.330
 2488SOL    HW1 9238   1.694  14.095  14.422
 2488SOL    HW2 9239   1.787  14.022  14.328
 2489SOL     OW 9240  14.814   0.921   5.361
 2489SOL    HW1 9241  14.736   0.947   5.312
 2489SOL    HW2 9242  14.845   1.002   5.402
 2490SOL     OW 9243  12.447   1.222  13.859
 2490SOL    HW1 9244  12.431   1.313  13.881
 2490SOL    HW2 9245  12.376   1.198  13.799
 2491SOL     OW 9246   9.305  10.545  10.945
 2491SOL    HW1 9247   9.359  10.492  10.886
 2491SOL    HW2 9248   9.274  10.483  11.011
 2492SOL     OW 9249   4.146   8.192   7.210
 2492SOL    HW1 9250   4.084   8.261   7.184
 2492SOL    HW2 9251   4.226   8.239   7.231
 2493SOL     OW 9252   0.552   9.659   5.613
 2493SOL    HW1 9253   0.528   9.592   5.677
 2493SOL    HW2 9254   0.533   9.742   5.656
 2494SOL     OW 9255   1.391  13.304   3.703
 2494SOL    HW1 9256   1.360  13.393   3.687
 2494SOL    HW2 9257   1.456  13.313   3.773
 2495SOL     OW 9258   0.582  13.186   1.171
 2495SOL    HW1 9259   0.498  13.189   1.217
 2495SOL    HW2 9260   0.601  13.277   1.149
 2496SOL     OW 9261  11.605   5.143   9.923
 2496SOL    HW1 9262  11.644   5.213   9.976
 2496SOL    HW2 9263  11.634   5.161   9.834
 2497SOL     OW 9264   4.108   1.614  10.794
 2497SOL    HW1 9265   4.054   1.610  10.715
 2497SOL    HW2 9266   4.171   1.684  10.776
 2498SOL     OW 9267   6.214   3.471   0.393
 2498SOL    HW1 9268   6.133   3.426   0.372
 2498SOL    HW2 9269   6.208   3.490   0.487
 2499SOL     OW 9270  12.706  13.728  14.581
 2499SOL    HW1 9271  12.772  13.797  14.589
 2499SOL    HW2 9272  12.725  13.669  14.653
 2500SOL     OW 9273   1.595  13.597  14.736
 2500SOL    HW1 9274   1.609  13.506  14.710
 2500SOL    HW2 9275   1.500  13.605  14.749
 2501SOL     OW 9276   0.750   4.524   8.357
 2501SOL    HW1 9277   0.800   4.602   8.332
 2501SOL    HW2 9278   0.711   4.547   8.442
 2502SOL     OW 9279   1.700  11.754   9.947
 2502SOL    HW1 9280   1.605  11.746   9.942
 2502SOL    HW2 9281   1.729  11.753   9.856
 2503SOL     OW 9282   3.014   0.563  13.020
 2503SOL    HW1 9283   2.956   0.556  12.944
 2503SOL    HW2 9284   3.101   0.572  12.982
 2504SOL     OW 9285   7.781   0.234  11.637
 2504SOL    HW1 9286   7.799   0.328  11.633
 2504SOL    HW2 9287   7.751   0.211  11.549
 2505SOL     OW 9288  12.452   7.739   0.797
 2505SOL    HW1 9289  12.367   7.773   0.824
 2505SOL    HW2 9290  12.511   7.762   0.869
 2506SOL     OW 9291  14.825   3.179  12.677
 2506SOL    HW1 9292  14.877   3.243  12.725
 2506SOL    HW2 9293  14.873   3.096  12.688
 2507SOL     OW 9294  14.672   8.691   8.463
 2507SOL    HW1 9295  14.631   8.673   8.378
 2507SOL    HW2 9296  14.731   8.617   8.477
 2508SOL     OW 9297  14.394  10.061   8.769
 2508SOL    HW1 9298  14.319  10.005   8.790
 2508SOL    HW2 9299  14.355  10.142   8.737
 2509SOL     OW 9300  14.353   0.517  14.468
 2509SOL    HW1 9301  14.373   0.606  14.438
 2509SOL    HW2 9302  14.439   0.475  14.476
 2510SOL     OW 9303  10.235   4.703   8.707
 2510SOL    HW1 9304  10.177   4.743   8.771
 2510SOL    HW2 9305  10.202   4.613   8.698
 2511SOL     OW 9306  11.375  11.760  10.981
 2511SOL    HW1 9307  11.319  11.729  10.910
 2511SOL    HW2 9308  11.365  11.855  10.981
 2512SOL     OW 9309   0.998   6.674   8.315
 2512SOL    HW1 9310   1.086   6.709   8.308
 2512SOL    HW2 9311   0.975   6.647   8.226
 2513SOL     OW 9312   3.630  10.899   4.442
 2513SOL    HW1 9313   3.659  10.919   4.531
 2513SOL    HW2 9314   3.657  10.809   4.428
 2514SOL     OW 9315   3.764  10.798   9.509
 2514SOL    HW1 9316   3.847  10.802   9.558
 2514SOL    HW2 9317   3.711  10.734   9.555
 2515SOL     OW 9318   1.743   6.281  10.701
 2515SOL    HW1 9319   1.690   6.360  10.699
 2515SOL    HW2 9320   1.795   6.284  10.621
 2516SOL     OW 9321  10.053   8.752  13.116
 2516SOL    HW1 9322   9.962   8.769  13.092
 2516SOL    HW2 9323  10.055   8.659  13.138
 2517SOL     OW 9324   4.242  13.363  13.661
 2517SOL    HW1 9325   4.274  13.451  13.684
 2517SOL    HW2 9326   4.314  13.324  13.611
 2518SOL     OW 9327   1.866   8.359   9.633
 2518SOL    HW1 9328   1.950   8.318   9.612
 2518SOL    HW2 9329   1.864   8.438   9.579
 2519SOL     OW 9330   2.851  11.094   6.888
 2519SOL    HW1 9331   2.757  11.113   6.889
 2519SOL    HW2 9332   2.884  11.139   6.811
 2520SOL     OW 9333   7.399   8.895  11.812
 2520SOL    HW1 9334   7.484   8.938  11.808
 2520SOL    HW2 9335   7.339   8.956  11.770
 2521SOL     OW 9336   3.294   3.055   9.713
 2521SOL    HW1 9337   3.246   3.007   9.780
 2521SOL    HW2 9338   3.228   3.111   9.671
 2522SOL     OW 9339  12.486   2.000  10.798
 2522SOL    HW1 9340  12.398   1.979  10.765
 2522SOL    HW2 9341  12.534   2.029  10.721
 2523SOL     OW 9342   4.631  14.624   3.368
 2523SOL    HW1 9343   4.682  14.544   3.371
 2523SOL    HW2 9344   4.602  14.637   3.458
 2524SOL     OW 9345  12.026  12.906  11.655
 2524SOL    HW1 9346  12.015  12.848  11.730
 2524SOL    HW2 9347  11.957  12.880  11.594
 2525SOL     OW 9348   9.823  12.611   6.119
 2525SOL    HW1 9349   9.858  12.611   6.208
 2525SOL    HW2 9350   9.737  12.652   6.126
 2526SOL     OW 9351   2.905   1.674  13.079
 2526SOL    HW1 9352   2.937   1.650  12.992
 2526SOL    HW2 9353   2.884   1.767  13.072
 2527SOL     OW 9354   4.183   6.678   5.665
 2527SOL    HW1 9355   4.275   6.652   5.659
 2527SOL    HW2 9356   4.166   6.683   5.759
 2528SOL     OW 9357   9.041   1.178  12.297
 2528SOL    HW1 9358   9.049   1.120  12.221
 2528SOL    HW2 9359   9.047   1.119  12.373
 2529SOL     OW 9360   3.657   7.572  10.094
 2529SOL    HW1 9361   3.590   7.544  10.157
 2529SOL    HW2 9362   3.663   7.667  10.105
 2530SOL     OW 9363   4.223   0.377  11.473
 2530SOL    HW1 9364   4.186   0.289  11.476
 2530SOL    HW2 9365   4.148   0.435  11.488
 2531SOL     OW 9366   4.779  10.245  13.722
 2531SOL    HW1 9367   4.798  10.301  13.798
 2531SOL    HW2 9368   4.856  10.189  13.712
 2532SOL     OW 9369   9.262   6.928  13.572
 2532SOL    HW1 9370   9.184   6.929  13.627
 2532SOL    HW2 9371   9.228   6.923  13.483
 2533SOL     OW 9372   0.939   3.492   5.478
 2533SOL    HW1 9373   0.976   3.495   5.389
 2533SOL    HW2 9374   0.914   3.583   5.496
 2534SOL     OW 9375   3.234   4.492  13.278
 2534SOL    HW1 9376   3.230   4.505  13.183
 2534SOL    HW2 9377   3.170   4.554  13.313
 2535SOL     OW 9378   3.846   6.856  11.641
 2535SOL    HW1 9379   3.787   6.801  11.692
 2535SOL    HW2 9380   3.788   6.912  11.589
 2536SOL     OW 9381   7.633   0.447   8.135
 2536SOL    HW1 9382   7.661   0.385   8.202
 2536SOL    HW2 9383   7.700   0.516   8.137
 2537SOL     OW 9384   2.961   2.032   2.051
 2537SOL    HW1 9385   2.901   2.106   2.049
 2537SOL    HW2 9386   2.926   1.971   1.987
 2538SOL     OW 9387  10.620   6.931   0.504
 2538SOL    HW1 9388  10.650   6.931   0.413
 2538SOL    HW2 9389  10.698   6.911   0.555
 2539SOL     OW 9390   9.537  14.679   2.144
 2539SOL    HW1 9391   9.603  14.741   2.112
 2539SOL    HW2 9392   9.460  14.696   2.089
 2540SOL     OW 9393   6.742  13.859  12.649
 2540SOL    HW1 9394   6.689  13.937  12.631
 2540SOL    HW2 9395   6.681  13.786  12.635
 2541SOL     OW 9396   3.596   0.959  10.120
 2541SOL    HW1 9397   3.540   0.903  10.066
 2541SOL    HW2 9398   3.638   1.017  10.057
 2542SOL     OW 9399  10.613  14.453  10.814
 2542SOL    HW1 9400  10.598  14.436  10.907
 2542SOL    HW2 9401  10.703  14.422  10.798
 2543SOL     OW 9402   8.164   6.170  14.271
 2543SOL    HW1 9403   8.074   6.173  14.240
 2543SOL    HW2 9404   8.203   6.094  14.227
 2544SOL     OW 9405   7.930  13.843   4.501
 2544SOL    HW1 9406   7.944  13.902   4.575
 2544SOL    HW2 9407   8.005  13.858   4.444
 2545SOL     OW 9408  10.808   2.043   0.746
 2545SOL    HW1 9409  10.742   2.001   0.800
 2545SOL    HW2 9410  10.808   1.993   0.664
 2546SOL     OW 9411  11.965   6.454  10.905
 2546SOL    HW1 9412  11.997   6.521  10.845
 2546SOL    HW2 9413  11.973   6.494  10.991
 2547SOL     OW 9414   4.760  12.267   4.354
 2547SOL    HW1 9415   4.696  12.328   4.390
 2547SOL    HW2 9416   4.827  12.258   4.422
 2548SOL     OW 9417   0.499  14.329  13.708
 2548SOL    HW1 9418   0.561  14.332  13.635
 2548SOL    HW2 9419   0.516  14.409  13.757
 2549SOL     OW 9420  12.116   7.455   2.266
 2549SOL    HW1 9421  12.074   7.477   2.183
 2549SOL    HW2 9422  12.049   7.406   2.314
 2550SOL     OW 9423   6.188   6.260   1.744
 2550SOL    HW1 9424   6.161   6.169   1.753
 2550SOL    HW2 9425   6.284   6.256   1.744
 2551SOL     OW 9426   5.681   8.058   8.662
 2551SOL    HW1 9427   5.589   8.084   8.657
 2551SOL    HW2 9428   5.724   8.110   8.594
 2552SOL     OW 9429   1.971   2.616  10.479
 2552SOL    HW1 9430   2.043   2.588  10.423
 2552SOL    HW2 9431   1.974   2.712  10.478
 2553SOL     OW 9432   2.933   1.127   2.833
 2553SOL    HW1 9433   3.005   1.069   2.809
 2553SOL    HW2 9434   2.913   1.176   2.753
 2554SOL     OW 9435   4.706   1.973  14.317
 2554SOL    HW1 9436   4.736   2.058  14.284
 2554SOL    HW2 9437   4.731   1.910  14.249
 2555SOL     OW 9438  12.713  14.523   8.301
 2555SOL    HW1 9439  12.702  14.573   8.220
 2555SOL    HW2 9440  12.744  14.587   8.365
 2556SOL     OW 9441   0.962   6.347   7.311
 2556SOL    HW1 9442   0.937   6.435   7.338
 2556SOL    HW2 9443   1.051   6.336   7.346
 2557SOL     OW 9444   3.972  11.032   3.574
 2557SOL    HW1 9445   3.944  11.033   3.666
 2557SOL    HW2 9446   3.946  11.117   3.540
 2558SOL     OW 9447   1.157  12.291  13.131
 2558SOL    HW1 9448   1.167  12.377  13.172
 2558SOL    HW2 9449   1.150  12.310  13.037
 2559SOL     OW 9450  12.017   4.317   6.627
 2559SOL    HW1 9451  12.005   4.412   6.636
 2559SOL    HW2 9452  11.956   4.292   6.557
 2560SOL     OW 9453   0.718  13.805   8.392
 2560SOL    HW1 9454   0.725  13.717   8.428
 2560SOL    HW2 9455   0.765  13.860   8.455
 2561SOL     OW 9456   2.265   6.664  10.465
 2561SOL    HW1 9457   2.204   6.636  10.396
 2561SOL    HW2 9458   2.338   6.703  10.417
 2562SOL     OW 9459  11.216   8.470   8.786
 2562SOL    HW1 9460  11.142   8.408   8.788
 2562SOL    HW2 9461  11.178   8.553   8.814
 2563SOL     OW 9462   6.490   1.424   6.718
 2563SOL    HW1 9463   6.578   1.434   6.754
 2563SOL    HW2 9464   6.449   1.510   6.731
 2564SOL     OW 9465   1.540  12.666   6.039
 2564SOL    HW1 9466   1.562  12.577   6.066
 2564SOL    HW2 9467   1.589  12.679   5.958
 2565SOL     OW 9468  12.043   2.243   8.367
 2565SOL    HW1 9469  12.009   2.272   8.283
 2565SOL    HW2 9470  12.117   2.187   8.346
 2566SOL     OW 9471  14.198  11.786   5.303
 2566SOL    HW1 9472  14.126  11.783   5.241
 2566SOL    HW2 9473  14.277  11.777   5.249
 2567SOL     OW 9474  12.140   9.717   1.699
 2567SOL    HW1 9475  12.082   9.793   1.692
 2567SOL    HW2 9476  12.165   9.699   1.608
 2568SOL     OW 9477   3.237   4.642   3.095
 2568SOL    HW1 9478   3.270   4.683   3.015
 2568SOL    HW2 9479   3.152   4.684   3.110
 2569SOL     OW 9480   5.499   7.276   2.338
 2569SOL    HW1 9481   5.590   7.261   2.313
 2569SOL    HW2 9482   5.486   7.370   2.324
 2570SOL     OW 9483   6.505   5.648   9.264
 2570SOL    HW1 9484   6.594   5.627   9.235
 2570SOL    HW2 9485   6.461   5.563   9.270
 2571SOL     OW 9486  13.749   5.865   4.646
 2571SOL    HW1 9487  13.723   5.956   4.664
 2571SOL    HW2 9488  13.720   5.816   4.723
 2572SOL     OW 9489  11.856   9.118   6.977
 2572SOL    HW1 9490  11.828   9.029   6.956
 2572SOL    HW2 9491  11.893   9.111   7.065
 2573SOL     OW 9492   7.105  12.057   7.075
 2573SOL    HW1 9493   7.032  12.015   7.030
 2573SOL    HW2 9494   7.078  12.061   7.167
 2574SOL     OW 9495   3.804   4.873  12.902
 2574SOL    HW1 9496   3.765   4.875  12.814
 2574SOL    HW2 9497   3.735   4.906  12.960
 2575SOL     OW 9498   4.380   1.241  11.401
 2575SOL    HW1 9499   4.357   1.215  11.491
 2575SOL    HW2 9500   4.394   1.335  11.407
 2576SOL     OW 9501   4.076  10.199   2.875
 2576SOL    HW1 9502   4.039  10.187   2.963
 2576SOL    HW2 9503   3.999  10.207   2.818
 2577SOL     OW 9504   3.386  10.510   6.301
 2577SOL    HW1 9505   3.296  10.511   6.268
 2577SOL    HW2 9506   3.409  10.602   6.312
 2578SOL     OW 9507   4.757  14.528   3.119
 2578SOL    HW1 9508   4.728  14.562   3.203
 2578SOL    HW2 9509   4.844  14.491   3.137
 2579SOL     OW 9510  12.998   7.404   1.922
 2579SOL    HW1 9511  12.989   7.441   2.010
 2579SOL    HW2 9512  12.991   7.479   1.863
 2580SOL     OW 9513  10.761  11.286   3.932
 2580SOL    HW1 9514  10.707  11.365   3.926
 2580SOL    HW2 9515  10.744  11.240   3.850
 2581SOL     OW 9516  10.294   3.458   6.033
 2581SOL    HW1 9517  10.211   3.496   6.004
 2581SOL    HW2 9518  10.293   3.369   5.998
 2582SOL     OW 9519  10.374  14.215   6.708
 2582SOL    HW1 9520  10.434  14.280   6.674
 2582SOL    HW2 9521  10.380  14.142   6.646
 2583SOL     OW 9522  10.025  14.416   0.278
 2583SOL    HW1 9523   9.938  14.418   0.239
 2583SOL    HW2 9524  10.011  14.384   0.367
 2584SOL     OW 9525   0.993  12.029   3.666
 2584SOL    HW1 9526   0.993  12.010   3.760
 2584SOL    HW2 9527   1.058  12.099   3.655
 2585SOL     OW 9528  10.293   6.030   1.333
 2585SOL    HW1 9529  10.346   6.033   1.253
 2585SOL    HW2 9530  10.282   5.937   1.351
 2586SOL     OW 9531   1.427  12.258  13.868
 2586SOL    HW1 9532   1.412  12.230  13.778
 2586SOL    HW2 9533   1.447  12.177  13.915
 2587SOL     OW 9534  11.022   5.137   3.632
 2587SOL    HW1 9535  11.043   5.104   3.720
 2587SOL    HW2 9536  11.101   5.120   3.581
 2588SOL     OW 9537   1.710  12.941  12.208
 2588SOL    HW1 9538   1.694  12.915  12.299
 2588SOL    HW2 9539   1.723  12.858  12.162
 2589SOL     OW 9540   6.641   6.109   4.624
 2589SOL    HW1 9541   6.670   6.103   4.533
 2589SOL    HW2 9542   6.716   6.146   4.671
 2590SOL     OW 9543   1.657   1.436   5.584
 2590SOL    HW1 9544   1.726   1.478   5.636
 2590SOL    HW2 9545   1.671   1.342   5.597
 2591SOL     OW 9546   0.023   0.612   8.441
 2591SOL    HW1 9547   0.040   0.683   8.503
 2591SOL    HW2 9548   0.108   0.595   8.400
 2592SOL     OW 9549   5.770   9.689  13.635
 2592SOL    HW1 9550   5.754   9.728  13.721
 2592SOL    HW2 9551   5.839   9.624  13.651
 2593SOL     OW 9552   6.031   2.279   0.237
 2593SOL    HW1 9553   5.998   2.364   0.265
 2593SOL    HW2 9554   6.125   2.282   0.255
 2594SOL     OW 9555  14.796   7.734   1.572
 2594SOL    HW1 9556  14.720   7.750   1.515
 2594SOL    HW2 9557  14.814   7.641   1.562
 2595SOL     OW 9558   7.786  11.520   0.887
 2595SOL    HW1 9559   7.811  11.506   0.795
 2595SOL    HW2 9560   7.721  11.452   0.905
 2596SOL     OW 9561  11.443   1.287  11.229
 2596SOL    HW1 9562  11.517   1.299  11.170
 2596SOL    HW2 9563  11.368   1.323  11.183
 2597SOL     OW 9564  14.105   0.788  12.743
 2597SOL    HW1 9565  14.013   0.805  12.722
 2597SOL    HW2 9566  14.154   0.854  12.694
 2598SOL     OW 9567   7.230  12.483   3.827
 2598SOL    HW1 9568   7.193  12.491   3.740
 2598SOL    HW2 9569   7.324  12.467   3.812
 2599SOL     OW 9570   7.699   3.897  13.954
 2599SOL    HW1 9571   7.772   3.849  13.914
 2599SOL    HW2 9572   7.726   3.988  13.952
 2600SOL     OW 9573  14.314  11.821  12.742
 2600SOL    HW1 9574  14.237  11.828  12.799
 2600SOL    HW2 9575  14.349  11.910  12.740
 2601SOL     OW 9576   9.852   4.504   7.699
 2601SOL    HW1 9577   9.763   4.474   7.719
 2601SOL    HW2 9578   9.879   4.553   7.777
 2602SOL     OW 9579   4.960   5.395   2.727
 2602SOL    HW1 9580   4.930   5.377   2.816
 2602SOL    HW2 9581   4.925   5.322   2.675
 2603SOL     OW 9582  12.670   5.695  13.220
 2603SOL    HW1 9583  12.670   5.757  13.148
 2603SOL    HW2 9584  12.583   5.702  13.259
 2604SOL     OW 9585  12.946   5.884  13.832
 2604SOL    HW1 9586  13.041   5.898  13.823
 2604SOL    HW2 9587  12.931   5.800  13.788
 2605SOL     OW 9588   3.444   7.338   8.593
 2605SOL    HW1 9589   3.403   7.319   8.677
 2605SOL    HW2 9590   3.537   7.317   8.606
 2606SOL     OW 9591   7.723   9.113   7.976
 2606SOL    HW1 9592   7.804   9.063   7.974
 2606SOL    HW2 9593   7.656   9.049   8.000
 2607SOL     OW 9594   1.327  14.657  10.145
 2607SOL    HW1 9595   1.394  14.589  10.150
 2607SOL    HW2 9596   1.353  14.721  10.211
 2608SOL     OW 9597   0.409   3.710   2.647
 2608SOL    HW1 9598   0.328   3.760   2.658
 2608SOL    HW2 9599   0.468   3.745   2.713
 2609SOL     OW 9600   8.073  10.810   7.967
 2609SOL    HW1 9601   8.100  10.774   7.883
 2609SOL    HW2 9602   8.068  10.904   7.952
 2610SOL     OW 9603  13.253  11.807   6.896
 2610SOL    HW1 9604  13.341  11.822   6.863
 2610SOL    HW2 9605  13.253  11.846   6.984
 2611SOL     OW 9606   9.353   1.883   2.509
 2611SOL    HW1 9607   9.274   1.937   2.512
 2611SOL    HW2 9608   9.324   1.801   2.469
 2612SOL     OW 9609   0.645  10.018   2.359
 2612SOL    HW1 9610   0.687   9.940   2.324
 2612SOL    HW2 9611   0.645  10.005   2.454
 2613SOL     OW 9612   3.539  10.438   4.506
 2613SOL    HW1 9613   3.587  10.443   4.423
 2613SOL    HW2 9614   3.607  10.444   4.573
 2614SOL     OW 9615   4.317   7.351   5.827
 2614SOL    HW1 9616   4.235   7.303   5.835
 2614SOL    HW2 9617   4.293   7.442   5.848
 2615SOL     OW 9618  11.637   9.124  12.151
 2615SOL    HW1 9619  11.559   9.101  12.201
 2615SOL    HW2 9620  11.675   9.198  12.199
 2616SOL     OW 9621   7.638   1.552  13.981
 2616SOL    HW1 9622   7.583   1.618  13.939
 2616SOL    HW2 9623   7.667   1.495  13.909
 2617SOL     OW 9624   7.766   6.332   8.589
 2617SOL    HW1 9625   7.838   6.325   8.651
 2617SOL    HW2 9626   7.751   6.243   8.558
 2618SOL     OW 9627   3.945  12.649   5.737
 2618SOL    HW1 9628   3.936  12.714   5.807
 2618SOL    HW2 9629   4.030  12.609   5.754
 2619SOL     OW 9630  10.168  10.926   9.560
 2619SOL    HW1 9631  10.217  10.845   9.548
 2619SOL    HW2 9632  10.204  10.965   9.639
 2620SOL     OW 9633   8.287   9.255   8.609
 2620SOL    HW1 9634   8.357   9.208   8.564
 2620SOL    HW2 9635   8.268   9.203   8.686
 2621SOL     OW 9636   5.041   7.258   7.648
 2621SOL    HW1 9637   4.958   7.213   7.662
 2621SOL    HW2 9638   5.108   7.190   7.660
 2622SOL     OW 9639  12.625   5.545   2.360
 2622SOL    HW1 9640  12.718   5.551   2.385
 2622SOL    HW2 9641  12.577   5.566   2.440
 2623SOL     OW 9642   8.154  12.106   0.132
 2623SOL    HW1 9643   8.181  12.039   0.193
 2623SOL    HW2 9644   8.092  12.161   0.181
 2624SOL     OW 9645   6.825   3.437   1.037
 2624SOL    HW1 9646   6.760   3.409   0.971
 2624SOL    HW2 9647   6.781   3.507   1.085
 2625SOL     OW 9648  14.130  14.108  10.386
 2625SOL    HW1 9649  14.093  14.162  10.316
 2625SOL    HW2 9650  14.156  14.171  10.453
 2626SOL     OW 9651   1.464   1.380   2.142
 2626SOL    HW1 9652   1.413   1.405   2.219
 2626SOL    HW2 9653   1.506   1.298   2.168
 2627SOL     OW 9654  11.416  11.779   0.622
 2627SOL    HW1 9655  11.371  11.850   0.667
 2627SOL    HW2 9656  11.487  11.753   0.681
 2628SOL     OW 9657   3.503   0.546  12.171
 2628SOL    HW1 9658   3.589   0.517  12.141
 2628SOL    HW2 9659   3.471   0.474  12.225
 2629SOL     OW 9660  13.672  12.571   3.732
 2629SOL    HW1 9661  13.750  12.566   3.676
 2629SOL    HW2 9662  13.617  12.637   3.691
 2630SOL     OW 9663   4.404  11.040   5.769
 2630SOL    HW1 9664   4.320  11.022   5.811
 2630SOL    HW2 9665   4.469  10.997   5.825
 2631SOL     OW 9666   1.458  14.305   7.960
 2631SOL    HW1 9667   1.380  14.264   7.922
 2631SOL    HW2 9668   1.424  14.375   8.015
 2632SOL     OW 9669   4.901   9.723  14.770
 2632SOL    HW1 9670   4.987   9.683  14.760
 2632SOL    HW2 9671   4.871   9.739  14.681
 2633SOL     OW 9672  11.721   1.575   3.372
 2633SOL    HW1 9673  11.805   1.560   3.416
 2633SOL    HW2 9674  11.735   1.655   3.321
 2634SOL     OW 9675   7.723   1.917  10.681
 2634SOL    HW1 9676   7.646   1.931  10.626
 2634SOL    HW2 9677   7.769   2.001  10.680
 2635SOL     OW 9678   5.487   6.168  11.291
 2635SOL    HW1 9679   5.433   6.093  11.317
 2635SOL    HW2 9680   5.467   6.181  11.198
 2636SOL     OW 9681  14.528  10.911   7.919
 2636SOL    HW1 9682  14.488  10.882   8.001
 2636SOL    HW2 9683  14.592  10.843   7.898
 2637SOL     OW 9684   2.633   3.755   6.324
 2637SOL    HW1 9685   2.636   3.841   6.366
 2637SOL    HW2 9686   2.549   3.755   6.277
 2638SOL     OW 9687   5.071   5.819  13.077
 2638SOL    HW1 9688   5.035   5.753  13.017
 2638SOL    HW2 9689   5.071   5.775  13.162
 2639SOL     OW 9690   2.634   5.575   3.495
 2639SOL    HW1 9691   2.701   5.613   3.439
 2639SOL    HW2 9692   2.668   5.489   3.519
 2640SOL     OW 9693   7.666   4.579  14.062
 2640SOL    HW1 9694   7.624   4.620  14.138
 2640SOL    HW2 9695   7.594   4.543  14.011
 2641SOL     OW 9696   2.935   8.299  11.293
 2641SOL    HW1 9697   2.873   8.238  11.255
 2641SOL    HW2 9698   2.991   8.326  11.219
 2642SOL     OW 9699  11.661   2.776   5.189
 2642SOL    HW1 9700  11.743   2.728   5.197
 2642SOL    HW2 9701  11.672   2.829   5.109
 2643SOL     OW 9702   8.076   5.516   1.399
 2643SOL    HW1 9703   8.079   5.446   1.334
 2643SOL    HW2 9704   8.163   5.556   1.395
 2644SOL     OW 9705  12.182   1.418   9.101
 2644SOL    HW1 9706  12.193   1.323   9.106
 2644SOL    HW2 9707  12.096   1.430   9.060
 2645SOL     OW 9708   2.232  14.859  12.866
 2645SOL    HW1 9709   2.275   0.056  12.825
 2645SOL    HW2 9710   2.266  14.857  12.956
 2646SOL     OW 9711  10.288  12.137   8.617
 2646SOL    HW1 9712  10.347  12.074   8.574
 2646SOL    HW2 9713  10.225  12.082   8.664
 2647SOL     OW 9714   1.941   3.010  11.771
 2647SOL    HW1 9715   1.912   2.952  11.701
 2647SOL    HW2 9716   2.028   3.041  11.742
 2648SOL     OW 9717   2.313   0.588  11.605
 2648SOL    HW1 9718   2.407   0.608  11.604
 2648SOL    HW2 9719   2.295   0.553  11.517
 2649SOL     OW 9720  10.680   4.484   9.163
 2649SOL    HW1 9721  10.590   4.477   9.132
 2649SOL    HW2 9722  10.690   4.409   9.222
 2650SOL     OW 9723   7.580   3.973   4.245
 2650SOL    HW1 9724   7.541   4.060   4.254
 2650SOL    HW2 9725   7.562   3.948   4.154
 2651SOL     OW 9726   0.268  12.875   9.034
 2651SOL    HW1 9727   0.310  12.790   9.048
 2651SOL    HW2 9728   0.339  12.938   9.037
 2652SOL     OW 9729  12.487   3.895   3.014
 2652SOL    HW1 9730  12.474   3.989   3.027
 2652SOL    HW2 9731  12.398   3.858   3.014
 2653SOL     OW 9732   8.274   2.506   8.359
 2653SOL    HW1 9733   8.324   2.426   8.346
 2653SOL    HW2 9734   8.317   2.549   8.433
 2654SOL     OW 9735  10.215   5.473   8.411
 2654SOL    HW1 9736  10.178   5.554   8.445
 2654SOL    HW2 9737  10.293   5.459   8.465
 2655SOL     OW 9738  10.015   5.702   4.038
 2655SOL    HW1 9739   9.934   5.752   4.042
 2655SOL    HW2 9740  10.083   5.766   4.059
 2656SOL     OW 9741   6.891   2.511   6.314
 2656SOL    HW1 9742   6.977   2.493   6.275
 2656SOL    HW2 9743   6.892   2.605   6.332
 2657SOL     OW 9744   7.351   7.418   3.080
 2657SOL    HW1 9745   7.323   7.381   3.164
 2657SOL    HW2 9746   7.445   7.401   3.077
 2658SOL     OW 9747   2.371   4.380   2.484
 2658SOL    HW1 9748   2.417   4.432   2.418
 2658SOL    HW2 9749   2.378   4.290   2.452
 2659SOL     OW 9750  12.841  11.504   6.373
 2659SOL    HW1 9751  12.776  11.495   6.443
 2659SOL    HW2 9752  12.817  11.585   6.329
 2660SOL     OW 9753  14.658   5.007   5.035
 2660SOL    HW1 9754  14.637   4.938   4.972
 2660SOL    HW2 9755  14.595   4.994   5.106
 2661SOL     OW 9756   8.657   3.999   8.498
 2661SOL    HW1 9757   8.748   3.969   8.488
 2661SOL    HW2 9758   8.609   3.951   8.430
 2662SOL     OW 9759  11.689   2.116   6.799
 2662SOL    HW1 9760  11.619   2.175   6.771
 2662SOL    HW2 9761  11.653   2.028   6.787
 2663SOL     OW 9762   3.879   6.042  11.902
 2663SOL    HW1 9763   3.960   5.999  11.930
 2663SOL    HW2 9764   3.907   6.128  11.872
 2664SOL     OW 9765   4.980   1.993  12.546
 2664SOL    HW1 9766   5.025   2.069  12.582
 2664SOL    HW2 9767   4.897   2.028  12.512
 2665SOL     OW 9768  13.386   0.302  10.137
 2665SOL    HW1 9769  13.422   0.339  10.057
 2665SOL    HW2 9770  13.364   0.378  10.191
 2666SOL     OW 9771   9.111  14.067   8.963
 2666SOL    HW1 9772   9.035  14.112   9.001
 2666SOL    HW2 9773   9.136  14.003   9.030
 2667SOL     OW 9774  12.086   2.978   5.518
 2667SOL    HW1 9775  12.023   2.913   5.486
 2667SOL    HW2 9776  12.161   2.927   5.548
 2668SOL     OW 9777   9.958  10.756   5.873
 2668SOL    HW1 9778   9.866  10.733   5.882
 2668SOL    HW2 9779   9.997  10.730   5.956
 2669SOL     OW 9780   9.214   5.450   5.867
 2669SOL    HW1 9781   9.256   5.531   5.896
 2669SOL    HW2 9782   9.238   5.443   5.775
 2670SOL     OW 9783   3.884  12.578   9.118
 2670SOL    HW1 9784   3.971  12.576   9.079
 2670SOL    HW2 9785   3.893  12.636   9.194
 2671SOL     OW 9786  14.566  10.828   6.298
 2671SOL    HW1 9787  14.537  10.741   6.326
 2671SOL    HW2 9788  14.497  10.857   6.238
 2672SOL     OW 9789   2.142   7.496   5.887
 2672SOL    HW1 9790   2.134   7.515   5.793
 2672SOL    HW2 9791   2.236   7.507   5.905
 2673SOL     OW 9792   3.353   9.287   8.097
 2673SOL    HW1 9793   3.299   9.237   8.158
 2673SOL    HW2 9794   3.291   9.323   8.034
 2674SOL     OW 9795  11.178   6.096   6.591
 2674SOL    HW1 9796  11.244   6.067   6.654
 2674SOL    HW2 9797  11.121   6.020   6.579
 2675SOL     OW 9798  12.607  10.865   4.569
 2675SOL    HW1 9799  12.582  10.840   4.658
 2675SOL    HW2 9800  12.584  10.789   4.515
 2676SOL     OW 9801  14.006   4.031   7.302
 2676SOL    HW1 9802  14.082   3.986   7.339
 2676SOL    HW2 9803  14.019   4.027   7.208
 2677SOL     OW 9804   6.506   3.776   5.129
 2677SOL    HW1 9805   6.592   3.735   5.141
 2677SOL    HW2 9806   6.456   3.713   5.077
 2678SOL     OW 9807   7.792   8.281   9.372
 2678SOL    HW1 9808   7.883   8.252   9.381
 2678SOL    HW2 9809   7.773   8.273   9.279
 2679SOL     OW 9810   1.746  14.525   3.380
 2679SOL    HW1 9811   1.674  14.519   3.316
 2679SOL    HW2 9812   1.705  14.503   3.463
 2680SOL     OW 9813   0.513  14.319  14.157
 2680SOL    HW1 9814   0.432  14.272  14.136
 2680SOL    HW2 9815   0.583  14.264  14.120
 2681SOL     OW 9816   0.509   2.274   8.223
 2681SOL    HW1 9817   0.595   2.289   8.262
 2681SOL    HW2 9818   0.528   2.234   8.138
 2682SOL     OW 9819  10.648   1.452  11.800
 2682SOL    HW1 9820  10.704   1.406  11.737
 2682SOL    HW2 9821  10.658   1.544  11.779
 2683SOL     OW 9822   9.927  14.298  12.667
 2683SOL    HW1 9823   9.879  14.253  12.598
 2683SOL    HW2 9824  10.012  14.316  12.629
 2684SOL     OW 9825   5.984   7.603   7.357
 2684SOL    HW1 9826   5.919   7.541   7.389
 2684SOL    HW2 9827   6.069   7.564   7.380
 2685SOL     OW 9828  13.332   2.366  13.592
 2685SOL    HW1 9829  13.347   2.308  13.666
 2685SOL    HW2 9830  13.390   2.441  13.608
 2686SOL     OW 9831   0.270  11.298  11.546
 2686SOL    HW1 9832   0.212  11.238  11.498
 2686SOL    HW2 9833   0.299  11.361  11.480
 2687SOL     OW 9834   2.660   3.209  12.842
 2687SOL    HW1 9835   2.715   3.159  12.902
 2687SOL    HW2 9836   2.656   3.296  12.880
 2688SOL     OW 9837   9.591   3.301  13.607
 2688SOL    HW1 9838   9.652   3.349  13.663
 2688SOL    HW2 9839   9.505   3.319  13.644
 2689SOL     OW 9840   7.012  12.685   8.336
 2689SOL    HW1 9841   6.986  12.641   8.255
 2689SOL    HW2 9842   7.055  12.617   8.387
 2690SOL     OW 9843   2.024  10.419  10.419
 2690SOL    HW1 9844   2.030  10.504  10.376
 2690SOL    HW2 9845   1.951  10.428  10.481
 2691SOL     OW 9846   4.516   1.468   3.165
 2691SOL    HW1 9847   4.576   1.428   3.227
 2691SOL    HW2 9848   4.466   1.394   3.130
 2692SOL     OW 9849   3.612  14.199  10.934
 2692SOL    HW1 9850   3.639  14.221  10.845
 2692SOL    HW2 9851   3.526  14.241  10.944
 2693SOL     OW 9852   7.129   3.782  12.420
 2693SOL    HW1 9853   7.141   3.763  12.327
 2693SOL    HW2 9854   7.158   3.702  12.464
 2694SOL     OW 9855  13.778   0.290   6.425
 2694SOL    HW1 9856  13.861   0.247   6.406
 2694SOL    HW2 9857  13.712   0.221   6.416
 2695SOL     OW 9858   2.467  12.796   6.922
 2695SOL    HW1 9859   2.449  12.860   6.853
 2695SOL    HW2 9860   2.557  12.769   6.907
 2696SOL     OW 9861   3.421  13.219   4.455
 2696SOL    HW1 9862   3.407  13.188   4.545
 2696SOL    HW2 9863   3.368  13.299   4.448
 2697SOL     OW 9864   1.272  13.436  10.557
 2697SOL    HW1 9865   1.335  13.368  10.579
 2697SOL    HW2 9866   1.193  13.413  10.605
 2698SOL     OW 9867  10.936   2.946   5.694
 2698SOL    HW1 9868  10.924   3.018   5.756
 2698SOL    HW2 9869  10.936   2.868   5.748
 2699SOL     OW 9870   7.820   4.683   4.250
 2699SOL    HW1 9871   7.781   4.723   4.327
 2699SOL    HW2 9872   7.911   4.668   4.274
 2700SOL     OW 9873   3.049   7.118   1.405
 2700SOL    HW1 9874   3.048   7.213   1.391
 2700SOL    HW2 9875   3.107   7.106   1.480
 2701SOL     OW 9876  14.455   6.749   5.241
 2701SOL    HW1 9877  14.483   6.800   5.165
 2701SOL    HW2 9878  14.453   6.813   5.313
 2702SOL     OW 9879   6.481   3.858   5.655
 2702SOL    HW1 9880   6.436   3.940   5.674
 2702SOL    HW2 9881   6.554   3.883   5.598
 2703SOL     OW 9882  10.134   4.895  11.386
 2703SOL    HW1 9883  10.201   4.918  11.450
 2703SOL    HW2 9884  10.177   4.907  11.301
 2704SOL     OW 9885   8.162   6.967   8.145
 2704SOL    HW1 9886   8.219   7.041   8.124
 2704SOL    HW2 9887   8.223   6.898   8.172
 2705SOL     OW 9888  11.066   8.270   5.490
 2705SOL    HW1 9889  11.113   8.220   5.423
 2705SOL    HW2 9890  10.974   8.268   5.462
 2706SOL     OW 9891  11.335  10.773  13.408
 2706SOL    HW1 9892  11.315  10.679  13.398
 2706SOL    HW2 9893  11.429  10.775  13.426
 2707SOL     OW 9894  10.984  14.485   7.006
 2707SOL    HW1 9895  10.905  14.497   6.952
 2707SOL    HW2 9896  11.009  14.394   6.992
 2708SOL     OW 9897  13.090  11.877   0.715
 2708SOL    HW1 9898  13.093  11.850   0.807
 2708SOL    HW2 9899  12.999  11.866   0.690
 2709SOL     OW 9900  10.126  10.469  10.554
 2709SOL    HW1 9901  10.154  10.442  10.466
 2709SOL    HW2 9902  10.117  10.386  10.602
 2710SOL     OW 9903   8.361  11.222   6.343
 2710SOL    HW1 9904   8.396  11.218   6.431
 2710SOL    HW2 9905   8.270  11.249   6.354
 2711SOL     OW 9906   7.991   6.392   0.333
 2711SOL    HW1 9907   7.982   6.447   0.254
 2711SOL    HW2 9908   7.911   6.409   0.383
 2712SOL     OW 9909   7.052  14.263  13.847
 2712SOL    HW1 9910   7.008  14.179  13.859
 2712SOL    HW2 9911   7.144  14.240  13.835
 2713SOL     OW 9912   5.896   0.391   3.335
 2713SOL    HW1 9913   5.959   0.435   3.278
 2713SOL    HW2 9914   5.869   0.458   3.397
 2714SOL     OW 9915  11.894   0.784  11.619
 2714SOL    HW1 9916  11.977   0.745  11.593
 2714SOL    HW2 9917  11.828   0.736  11.569
 2715SOL     OW 9918   8.554  13.826  13.769
 2715SOL    HW1 9919   8.568  13.847  13.861
 2715SOL    HW2 9920   8.601  13.744  13.755
 2716SOL     OW 9921   7.320   5.173   1.679
 2716SOL    HW1 9922   7.298   5.096   1.628
 2716SOL    HW2 9923   7.370   5.228   1.619
 2717SOL     OW 9924   6.522  10.941   6.218
 2717SOL    HW1 9925   6.496  10.891   6.140
 2717SOL    HW2 9926   6.442  10.985   6.246
 2718SOL     OW 9927   1.045   8.801  10.918
 2718SOL    HW1 9928   1.088   8.882  10.943
 2718SOL    HW2 9929   1.007   8.819  10.832
 2719SOL     OW 9930   6.803   8.123   6.592
 2719SOL    HW1 9931   6.874   8.153   6.536
 2719SOL    HW2 9932   6.801   8.028   6.579
 2720SOL     OW 9933  13.283   4.211   3.454
 2720SOL    HW1 9934  13.296   4.242   3.364
 2720SOL    HW2 9935  13.272   4.291   3.506
 2721SOL     OW 9936  13.879  12.059   5.581
 2721SOL    HW1 9937  13.939  12.124   5.619
 2721SOL    HW2 9938  13.909  11.975   5.617
 2722SOL     OW 9939   7.389   5.267   9.686
 2722SOL    HW1 9940   7.452   5.298   9.621
 2722SOL    HW2 9941   7.389   5.334   9.754
 2723SOL     OW 9942  14.839  13.924   5.591
 2723SOL    HW1 9943  14.788  13.879   5.523
 2723SOL    HW2 9944   0.004  13.996   5.546
 2724SOL     OW 9945   2.602   9.325   1.930
 2724SOL    HW1 9946   2.642   9.310   1.844
 2724SOL    HW2 9947   2.555   9.244   1.949
 2725SOL     OW 9948  14.044   7.593   0.821
 2725SOL    HW1 9949  14.125   7.629   0.784
 2725SOL    HW2 9950  14.031   7.643   0.902
 2726SOL     OW 9951  10.738  12.944  11.265
 2726SOL    HW1 9952  10.772  12.867  11.311
 2726SOL    HW2 9953  10.729  13.011  11.332
 2727SOL     OW 9954   5.632   9.606   9.588
 2727SOL    HW1 9955   5.690   9.680   9.567
 2727SOL    HW2 9956   5.608   9.570   9.502
 2728SOL     OW 9957  12.551   7.415   3.845
 2728SOL    HW1 9958  12.463   7.396   3.879
 2728SOL    HW2 9959  12.571   7.502   3.879
 2729SOL     OW 9960   2.977  11.794   9.604
 2729SOL    HW1 9961   3.031  11.872   9.604
 2729SOL    HW2 9962   2.991  11.754   9.690
 2730SOL     OW 9963   9.428  13.597   4.317
 2730SOL    HW1 9964   9.449  13.516   4.363
 2730SOL    HW2 9965   9.339  13.619   4.346
 2731SOL     OW 9966   6.814   8.087   4.700
 2731SOL    HW1 9967   6.832   8.135   4.781
 2731SOL    HW2 9968   6.823   7.995   4.724
 2732SOL     OW 9969   8.723   0.564   5.499
 2732SOL    HW1 9970   8.749   0.579   5.409
 2732SOL    HW2 9971   8.642   0.614   5.509
 2733SOL     OW 9972   8.040   5.028   7.940
 2733SOL    HW1 9973   8.118   5.028   7.884
 2733SOL    HW2 9974   8.027   4.936   7.963
 2734SOL     OW 9975   9.938   3.902   5.180
 2734SOL    HW1 9976   9.979   3.833   5.233
 2734SOL    HW2 9977   9.986   3.981   5.203
 2735SOL     OW 9978  11.153   9.364   5.678
 2735SOL    HW1 9979  11.086   9.329   5.618
 2735SOL    HW2 9980  11.224   9.300   5.674
 2736SOL     OW 9981  10.126  14.140   9.508
 2736SOL    HW1 9982  10.122  14.215   9.448
 2736SOL    HW2 9983  10.035  14.122   9.528
 2737SOL     OW 9984   3.989   1.950  14.379
 2737SOL    HW1 9985   3.925   1.880  14.365
 2737SOL    HW2 9986   4.039   1.921  14.456
 2738SOL     OW 9987   4.612   5.543   9.748
 2738SOL    HW1 9988   4.540   5.482   9.734
 2738SOL    HW2 9989   4.610   5.562   9.842
 2739SOL     OW 9990  13.039  13.560  10.368
 2739SOL    HW1 9991  13.044  13.501  10.443
 2739SOL    HW2 9992  13.122  13.609  10.370
 2740SOL     OW 9993  10.635   0.233   9.692
 2740SOL    HW1 9994  10.662   0.294   9.760
 2740SOL    HW2 9995  10.712   0.224   9.636
 2741SOL     OW 9996   2.522   1.772   2.979
 2741SOL    HW1 9997   2.603   1.758   3.028
 2741SOL    HW2 9998   2.547   1.754   2.888
 2742SOL     OW 9999  14.855   2.449   2.236
 2742SOL    HW110000  14.803   2.494   2.302
 2742SOL    HW210001  14.846   2.356   2.258
 2743SOL     OW10002   9.115   9.829  10.302
 2743SOL    HW110003   9.072   9.743  10.297
 2743SOL    HW210004   9.070   9.874  10.373
 2744SOL     OW10005   1.185  11.417   5.500
 2744SOL    HW110006   1.155  11.398   5.412
 2744SOL    HW210007   1.110  11.398   5.556
 2745SOL     OW10008  13.736   0.170   2.895
 2745SOL    HW110009  13.809   0.122   2.856
 2745SOL    HW210010  13.766   0.192   2.983
 2746SOL     OW10011   6.931  10.585   9.399
 2746SOL    HW110012   6.839  10.596   9.425
 2746SOL    HW210013   6.932  10.502   9.352
 2747SOL     OW10014  11.638   0.300   9.996
 2747SOL    HW110015  11.599   0.219  10.027
 2747SOL    HW210016  11.730   0.278   9.981
 2748SOL     OW10017   8.947   6.061   7.217
 2748SOL    HW110018   8.962   6.082   7.309
 2748SOL    HW210019   8.995   6.129   7.169
 2749SOL     OW10020   2.092  12.742  10.386
 2749SOL    HW110021   2.015  12.751  10.330
 2749SOL    HW210022   2.090  12.821  10.441
 2750SOL     OW10023  13.453   5.081  11.013
 2750SOL    HW110024  13.382   5.142  10.995
 2750SOL    HW210025  13.453   5.021  10.938
 2751SOL     OW10026   6.048  11.711   1.412
 2751SOL    HW110027   6.079  11.759   1.488
 2751SOL    HW210028   6.108  11.636   1.405
 2752SOL     OW10029  12.184   3.561   8.065
 2752SOL    HW110030  12.173   3.566   7.971
 2752SOL    HW210031  12.185   3.467   8.084
 2753SOL     OW10032   5.712   2.204   6.185
 2753SOL    HW110033   5.786   2.144   6.196
 2753SOL    HW210034   5.745   2.288   6.216
 2754SOL     OW10035   2.764   6.204  11.654
 2754SOL    HW110036   2.831   6.150  11.611
 2754SOL    HW210037   2.709   6.236  11.583
 2755SOL     OW10038   4.657   1.532   9.873
 2755SOL    HW110039   4.717   1.458   9.876
 2755SOL    HW210040   4.625   1.540   9.963
 2756SOL     OW10041   6.040  11.624   2.019
 2756SOL    HW110042   5.959  11.629   2.070
 2756SOL    HW210043   6.069  11.533   2.028
 2757SOL     OW10044  13.579   9.525   2.091
 2757SOL    HW110045  13.647   9.534   2.157
 2757SOL    HW210046  13.559   9.431   2.090
 2758SOL     OW10047   2.299   1.818   4.221
 2758SOL    HW110048   2.295   1.906   4.257
 2758SOL    HW210049   2.362   1.825   4.149
 2759SOL     OW10050   0.511   0.798  14.106
 2759SOL    HW110051   0.540   0.734  14.170
 2759SOL    HW210052   0.524   0.755  14.021
 2760SOL     OW10053  13.605   5.520   1.118
 2760SOL    HW110054  13.552   5.477   1.052
 2760SOL    HW210055  13.694   5.490   1.101
 2761SOL     OW10056   9.629   0.282   3.358
 2761SOL    HW110057   9.649   0.339   3.433
 2761SOL    HW210058   9.534   0.281   3.353
 2762SOL     OW10059   3.371   0.770   2.855
 2762SOL    HW110060   3.337   0.728   2.934
 2762SOL    HW210061   3.406   0.699   2.803
 2763SOL     OW10062  13.223   5.527  11.673
 2763SOL    HW110063  13.234   5.619  11.649
 2763SOL    HW210064  13.297   5.483  11.630
 2764SOL     OW10065  13.311   1.903   8.724
 2764SOL    HW110066  13.293   1.962   8.797
 2764SOL    HW210067  13.399   1.870   8.740
 2765SOL     OW10068   8.734   6.477   5.361
 2765SOL    HW110069   8.792   6.521   5.299
 2765SOL    HW210070   8.691   6.409   5.310
 2766SOL     OW10071   5.976   8.375   7.457
 2766SOL    HW110072   6.050   8.422   7.419
 2766SOL    HW210073   5.901   8.434   7.444
 2767SOL     OW10074  10.264   5.883   1.762
 2767SOL    HW110075  10.178   5.875   1.721
 2767SOL    HW210076  10.266   5.814   1.827
 2768SOL     OW10077  14.808   2.991   3.202
 2768SOL    HW110078  14.799   2.898   3.225
 2768SOL    HW210079  14.854   2.990   3.118
 2769SOL     OW10080   2.159   3.845   6.656
 2769SOL    HW110081   2.086   3.829   6.597
 2769SOL    HW210082   2.203   3.760   6.663
 2770SOL     OW10083  13.654   3.910   2.483
 2770SOL    HW110084  13.674   3.822   2.513
 2770SOL    HW210085  13.738   3.957   2.489
 2771SOL     OW10086   6.400   6.312  13.664
 2771SOL    HW110087   6.470   6.363  13.622
 2771SOL    HW210088   6.446   6.244  13.712
 2772SOL     OW10089  12.818   3.233  12.161
 2772SOL    HW110090  12.845   3.142  12.152
 2772SOL    HW210091  12.855   3.260  12.246
 2773SOL     OW10092   0.701  11.544  13.341
 2773SOL    HW110093   0.631  11.606  13.363
 2773SOL    HW210094   0.702  11.483  13.415
 2774SOL     OW10095   2.016   5.161  12.475
 2774SOL    HW110096   1.976   5.095  12.531
 2774SOL    HW210097   2.107   5.167  12.505
 2775SOL     OW10098   1.312   2.092   4.873
 2775SOL    HW110099   1.334   2.053   4.958
 2775SOL    HW210100   1.227   2.055   4.851
 2776SOL     OW10101   5.449   6.409   8.929
 2776SOL    HW110102   5.404   6.333   8.891
 2776SOL    HW210103   5.382   6.477   8.932
 2777SOL     OW10104  11.896   1.187   8.795
 2777SOL    HW110105  11.942   1.163   8.714
 2777SOL    HW210106  11.965   1.189   8.862
 2778SOL     OW10107  11.739  12.182  12.242
 2778SOL    HW110108  11.777  12.131  12.314
 2778SOL    HW210109  11.645  12.177  12.256
 2779SOL     OW10110   2.233   6.661  14.167
 2779SOL    HW110111   2.142   6.660  14.135
 2779SOL    HW210112   2.229   6.709  14.249
 2780SOL     OW10113   7.474  13.481  11.002
 2780SOL    HW110114   7.561  13.453  11.029
 2780SOL    HW210115   7.483  13.504  10.910
 2781SOL     OW10116  11.721   4.497   6.442
 2781SOL    HW110117  11.647   4.515   6.384
 2781SOL    HW210118  11.690   4.521   6.529
 2782SOL     OW10119   0.764   5.717   1.744
 2782SOL    HW110120   0.810   5.801   1.737
 2782SOL    HW210121   0.831   5.656   1.775
 2783SOL     OW10122   1.978  12.265   6.149
 2783SOL    HW110123   2.066  12.274   6.187
 2783SOL    HW210124   1.974  12.335   6.083
 2784SOL     OW10125  11.243  10.890  10.317
 2784SOL    HW110126  11.262  10.808  10.363
 2784SOL    HW210127  11.203  10.862  10.234
 2785SOL     OW10128   7.320  14.692   4.586
 2785SOL    HW110129   7.367  14.628   4.533
 2785SOL    HW210130   7.251  14.641   4.630
 2786SOL     OW10131   0.712   3.966   1.001
 2786SOL    HW110132   0.689   3.896   0.940
 2786SOL    HW210133   0.733   3.921   1.082
 2787SOL     OW10134   5.234   9.321  12.292
 2787SOL    HW110135   5.166   9.281  12.238
 2787SOL    HW210136   5.208   9.413  12.299
 2788SOL     OW10137   3.630   4.999   1.455
 2788SOL    HW110138   3.687   4.930   1.421
 2788SOL    HW210139   3.666   5.019   1.542
 2789SOL     OW10140   1.110  12.431   0.149
 2789SOL    HW110141   1.022  12.404   0.176
 2789SOL    HW210142   1.129  12.507   0.204
 2790SOL     OW10143   2.735  12.519  13.433
 2790SOL    HW110144   2.687  12.596  13.464
 2790SOL    HW210145   2.711  12.450  13.495
 2791SOL     OW10146   8.674   8.930  11.279
 2791SOL    HW110147   8.618   8.871  11.330
 2791SOL    HW210148   8.728   8.975  11.344
 2792SOL     OW10149   1.957  11.801  11.947
 2792SOL    HW110150   2.041  11.822  11.988
 2792SOL    HW210151   1.980  11.775  11.858
 2793SOL     OW10152  13.883  10.422  11.530
 2793SOL    HW110153  13.924  10.477  11.597
 2793SOL    HW210154  13.900  10.467  11.448
 2794SOL     OW10155   5.367   8.865  10.677
 2794SOL    HW110156   5.378   8.950  10.719
 2794SOL    HW210157   5.357   8.886  10.584
 2795SOL     OW10158   5.431  10.014   5.040
 2795SOL    HW110159   5.457   9.922   5.046
 2795SOL    HW210160   5.409  10.027   4.948
 2796SOL     OW10161   7.994  11.474   2.641
 2796SOL    HW110162   7.981  11.414   2.714
 2796SOL    HW210163   8.087  11.499   2.647
 2797SOL     OW10164   9.156   6.270   8.250
 2797SOL    HW110165   9.225   6.328   8.280
 2797SOL    HW210166   9.115   6.237   8.330
 2798SOL     OW10167   3.128   4.675   4.050
 2798SOL    HW110168   3.171   4.591   4.031
 2798SOL    HW210169   3.134   4.683   4.145
 2799SOL     OW10170   6.460   1.095  14.266
 2799SOL    HW110171   6.414   1.172  14.300
 2799SOL    HW210172   6.419   1.021  14.312
 2800SOL     OW10173   0.134   3.090  14.253
 2800SOL    HW110174   0.091   3.050  14.328
 2800SOL    HW210175   0.067   3.148  14.216
 2801SOL     OW10176   8.684  10.113   5.317
 2801SOL    HW110177   8.617  10.125   5.251
 2801SOL    HW210178   8.710  10.022   5.309
 2802SOL     OW10179   4.857   9.328   9.680
 2802SOL    HW110180   4.828   9.413   9.645
 2802SOL    HW210181   4.935   9.349   9.731
 2803SOL     OW10182   7.940   0.999  14.679
 2803SOL    HW110183   7.896   0.923  14.639
 2803SOL    HW210184   8.026   0.966  14.704
 2804SOL     OW10185   1.509   9.121   0.888
 2804SOL    HW110186   1.445   9.146   0.954
 2804SOL    HW210187   1.579   9.185   0.896
 2805SOL     OW10188  12.765  14.331   0.710
 2805SOL    HW110189  12.841  14.277   0.689
 2805SOL    HW210190  12.729  14.357   0.625
 2806SOL     OW10191   7.713  13.152   8.407
 2806SOL    HW110192   7.779  13.171   8.340
 2806SOL    HW210193   7.757  13.093   8.468
 2807SOL     OW10194  14.269   9.262   6.314
 2807SOL    HW110195  14.260   9.343   6.365
 2807SOL    HW210196  14.292   9.291   6.226
 2808SOL     OW10197  13.220  13.739   3.621
 2808SOL    HW110198  13.157  13.803   3.587
 2808SOL    HW210199  13.269  13.710   3.544
 2809SOL     OW10200  10.556   6.093   4.030
 2809SOL    HW110201  10.516   6.136   3.955
 2809SOL    HW210202  10.617   6.029   3.992
 2810SOL     OW10203   6.655   1.193  12.239
 2810SOL    HW110204   6.634   1.099  12.232
 2810SOL    HW210205   6.659   1.209  12.333
 2811SOL     OW10206   6.057  10.303   5.625
 2811SOL    HW110207   6.114  10.253   5.683
 2811SOL    HW210208   6.062  10.259   5.541
 2812SOL     OW10209   0.258   7.418   8.803
 2812SOL    HW110210   0.169   7.444   8.828
 2812SOL    HW210211   0.260   7.323   8.815
 2813SOL     OW10212  13.587   2.334   4.836
 2813SOL    HW110213  13.567   2.419   4.797
 2813SOL    HW210214  13.662   2.302   4.786
 2814SOL     OW10215   9.677   0.771  11.695
 2814SOL    HW110216   9.717   0.856  11.711
 2814SOL    HW210217   9.725   0.734  11.621
 2815SOL     OW10218   8.348   8.460   0.585
 2815SOL    HW110219   8.323   8.417   0.504
 2815SOL    HW210220   8.265   8.474   0.631
 2816SOL     OW10221  14.104   9.562  13.227
 2816SOL    HW110222  14.095   9.468  13.211
 2816SOL    HW210223  14.186   9.570  13.276
 2817SOL     OW10224   5.917  10.201   9.717
 2817SOL    HW110225   5.954  10.288   9.697
 2817SOL    HW210226   5.938  10.187   9.809
 2818SOL     OW10227   5.567   7.922  14.554
 2818SOL    HW110228   5.658   7.938  14.528
 2818SOL    HW210229   5.525   8.007  14.547
 2819SOL     OW10230   5.489   2.832  12.399
 2819SOL    HW110231   5.552   2.797  12.335
 2819SOL    HW210232   5.409   2.781  12.384
 2820SOL     OW10233   8.369  13.809   6.177
 2820SOL    HW110234   8.294  13.809   6.237
 2820SOL    HW210235   8.436  13.860   6.223
 2821SOL     OW10236  13.686   4.115  10.229
 2821SOL    HW110237  13.658   4.082  10.143
 2821SOL    HW210238  13.750   4.183  10.208
 2822SOL     OW10239   0.793   7.038   5.732
 2822SOL    HW110240   0.735   7.005   5.663
 2822SOL    HW210241   0.767   7.130   5.743
 2823SOL     OW10242  10.637  10.667   6.094
 2823SOL    HW110243  10.666  10.631   6.011
 2823SOL    HW210244  10.597  10.592   6.139
 2824SOL     OW10245   2.712   8.919  10.810
 2824SOL    HW110246   2.676   8.852  10.868
 2824SOL    HW210247   2.636   8.971  10.783
 2825SOL     OW10248  10.233   8.122   3.329
 2825SOL    HW110249  10.198   8.141   3.242
 2825SOL    HW210250  10.158   8.089   3.378
 2826SOL     OW10251   8.891  11.592   7.350
 2826SOL    HW110252   8.816  11.636   7.390
 2826SOL    HW210253   8.924  11.534   7.418
 2827SOL     OW10254   1.646   7.817   2.008
 2827SOL    HW110255   1.566   7.827   2.059
 2827SOL    HW210256   1.715   7.802   2.074
 2828SOL     OW10257  12.915  13.388   3.593
 2828SOL    HW110258  12.932  13.298   3.565
 2828SOL    HW210259  12.936  13.441   3.516
 2829SOL     OW10260   3.120  14.798  10.041
 2829SOL    HW110261   3.109  14.766  10.131
 2829SOL    HW210262   3.162  14.725   9.995
 2830SOL     OW10263  10.915  13.898  13.720
 2830SOL    HW110264  10.940  13.942  13.801
 2830SOL    HW210265  10.911  13.806  13.743
 2831SOL     OW10266   0.470   8.455  13.898
 2831SOL    HW110267   0.558   8.421  13.883
 2831SOL    HW210268   0.447   8.427  13.986
 2832SOL     OW10269   8.660   3.559   3.598
 2832SOL    HW110270   8.724   3.580   3.529
 2832SOL    HW210271   8.585   3.525   3.550
 2833SOL     OW10272   9.198   2.313   9.433
 2833SOL    HW110273   9.186   2.350   9.346
 2833SOL    HW210274   9.265   2.368   9.473
 2834SOL     OW10275  13.031   2.031   9.318
 2834SOL    HW110276  12.992   2.084   9.248
 2834SOL    HW210277  13.009   1.941   9.293
 2835SOL     OW10278  14.063   9.684   4.198
 2835SOL    HW110279  14.038   9.740   4.125
 2835SOL    HW210280  14.014   9.603   4.185
 2836SOL     OW10281  12.001   9.579   3.285
 2836SOL    HW110282  12.017   9.492   3.247
 2836SOL    HW210283  11.906   9.591   3.280
 2837SOL     OW10284   2.011   2.949   6.911
 2837SOL    HW110285   1.966   3.003   6.975
 2837SOL    HW210286   2.030   3.009   6.838
 2838SOL     OW10287  10.706   4.084   2.750
 2838SOL    HW110288  10.630   4.026   2.751
 2838SOL    HW210289  10.700   4.134   2.831
 2839SOL     OW10290   2.121   6.273   3.428
 2839SOL    HW110291   2.048   6.217   3.401
 2839SOL    HW210292   2.173   6.285   3.349
 2840SOL     OW10293   4.784   2.257   8.708
 2840SOL    HW110294   4.820   2.260   8.797
 2840SOL    HW210295   4.817   2.174   8.672
 2841SOL     OW10296  14.271   3.787  13.056
 2841SOL    HW110297  14.176   3.788  13.044
 2841SOL    HW210298  14.283   3.803  13.149
 2842SOL     OW10299  12.496   9.713  14.791
 2842SOL    HW110300  12.483   9.747  14.703
 2842SOL    HW210301  12.564   9.647  14.782
 2843SOL     OW10302   9.383   0.655   9.045
 2843SOL    HW110303   9.471   0.627   9.022
 2843SOL    HW210304   9.326   0.586   9.010
 2844SOL     OW10305   8.214   4.452   8.639
 2844SOL    HW110306   8.188   4.398   8.564
 2844SOL    HW210307   8.144   4.438   8.703
 2845SOL     OW10308  11.708   4.291  10.934
 2845SOL    HW110309  11.657   4.342  10.870
 2845SOL    HW210310  11.675   4.320  11.019
 2846SOL     OW10311   9.264   3.445   8.446
 2846SOL    HW110312   9.292   3.441   8.354
 2846SOL    HW210313   9.345   3.459   8.495
 2847SOL     OW10314   7.823   9.399  14.479
 2847SOL    HW110315   7.832   9.305  14.468
 2847SOL    HW210316   7.897   9.437  14.432
 2848SOL     OW10317   3.135   5.019  14.181
 2848SOL    HW110318   3.175   5.052  14.262
 2848SOL    HW210319   3.149   4.924  14.186
 2849SOL     OW10320   1.271  13.027   5.840
 2849SOL    HW110321   1.237  13.041   5.929
 2849SOL    HW210322   1.241  13.104   5.791
 2850SOL     OW10323   4.368   7.992  10.413
 2850SOL    HW110324   4.327   8.048  10.347
 2850SOL    HW210325   4.379   7.907  10.370
 2851SOL     OW10326   6.580   6.866  10.352
 2851SOL    HW110327   6.671   6.896  10.350
 2851SOL    HW210328   6.552   6.867  10.260
 2852SOL     OW10329   4.087   7.962   2.690
 2852SOL    HW110330   4.152   7.925   2.750
 2852SOL    HW210331   4.057   8.042   2.735
 2853SOL     OW10332   7.107  13.174  14.302
 2853SOL    HW110333   7.058  13.256  14.299
 2853SOL    HW210334   7.064  13.123  14.371
 2854SOL     OW10335  14.628  11.815   0.413
 2854SOL    HW110336  14.653  11.766   0.334
 2854SOL    HW210337  14.687  11.784   0.481
 2855SOL     OW10338   9.569  11.818   9.075
 2855SOL    HW110339   9.558  11.838   8.982
 2855SOL    HW210340   9.596  11.726   9.077
 2856SOL     OW10341   1.148   1.114   3.070
 2856SOL    HW110342   1.190   1.072   2.995
 2856SOL    HW210343   1.099   1.188   3.033
 2857SOL     OW10344   0.423  12.043   9.615
 2857SOL    HW110345   0.482  12.111   9.645
 2857SOL    HW210346   0.433  11.972   9.679
 2858SOL     OW10347   3.828  13.529   5.517
 2858SOL    HW110348   3.909  13.478   5.509
 2858SOL    HW210349   3.775  13.479   5.579
 2859SOL     OW10350   0.613   7.271   2.868
 2859SOL    HW110351   0.596   7.177   2.859
 2859SOL    HW210352   0.622   7.303   2.779
 2860SOL     OW10353   4.160   6.326  10.285
 2860SOL    HW110354   4.121   6.292  10.205
 2860SOL    HW210355   4.093   6.383  10.323
 2861SOL     OW10356   1.341   0.972   0.239
 2861SOL    HW110357   1.433   0.950   0.223
 2861SOL    HW210358   1.332   1.063   0.210
 2862SOL     OW10359   4.922   3.480  10.253
 2862SOL    HW110360   4.879   3.482  10.338
 2862SOL    HW210361   4.984   3.554  10.256
 2863SOL     OW10362  14.491   9.069   4.727
 2863SOL    HW110363  14.398   9.085   4.741
 2863SOL    HW210364  14.495   9.017   4.647
 2864SOL     OW10365   7.247  12.751   3.541
 2864SOL    HW110366   7.284  12.823   3.592
 2864SOL    HW210367   7.171  12.722   3.591
 2865SOL     OW10368   4.971  11.023  10.864
 2865SOL    HW110369   5.010  11.062  10.785
 2865SOL    HW210370   5.023  10.944  10.879
 2866SOL     OW10371   5.736  11.471   6.443
 2866SOL    HW110372   5.667  11.418   6.483
 2866SOL    HW210373   5.770  11.416   6.372
 2867SOL     OW10374  14.779   2.181   9.032
 2867SOL    HW110375  14.702   2.234   9.014
 2867SOL    HW210376  14.774   2.109   8.968
 2868SOL     OW10377   0.349  13.175   9.320
 2868SOL    HW110378   0.263  13.155   9.358
 2868SOL    HW210379   0.412  13.133   9.379
 2869SOL     OW10380   3.449   0.592   1.788
 2869SOL    HW110381   3.417   0.633   1.868
 2869SOL    HW210382   3.497   0.662   1.742
 2870SOL     OW10383   1.438   2.663   5.633
 2870SOL    HW110384   1.410   2.704   5.715
 2870SOL    HW210385   1.368   2.682   5.571
 2871SOL     OW10386   0.602  14.444   3.722
 2871SOL    HW110387   0.606  14.382   3.795
 2871SOL    HW210388   0.552  14.398   3.654
 2872SOL     OW10389   2.500   5.253   7.540
 2872SOL    HW110390   2.531   5.274   7.628
 2872SOL    HW210391   2.579   5.232   7.491
 2873SOL     OW10392   0.800   0.703  14.346
 2873SOL    HW110393   0.843   0.648  14.281
 2873SOL    HW210394   0.709   0.673  14.348
 2874SOL     OW10395  13.587   4.025   9.071
 2874SOL    HW110396  13.545   3.993   8.991
 2874SOL    HW210397  13.639   3.950   9.102
 2875SOL     OW10398  14.074   6.035  10.143
 2875SOL    HW110399  14.133   6.098  10.103
 2875SOL    HW210400  13.987   6.061  10.113
 2876SOL     OW10401   3.006  14.116   2.213
 2876SOL    HW110402   2.992  14.120   2.118
 2876SOL    HW210403   3.076  14.052   2.224
 2877SOL     OW10404  10.223  14.425   2.905
 2877SOL    HW110405  10.150  14.470   2.947
 2877SOL    HW210406  10.183  14.380   2.830
 2878SOL     OW10407  13.392   8.613   6.817
 2878SOL    HW110408  13.415   8.656   6.734
 2878SOL    HW210409  13.460   8.641   6.878
 2879SOL     OW10410  14.365  12.501   6.190
 2879SOL    HW110411  14.331  12.499   6.101
 2879SOL    HW210412  14.357  12.410   6.221
 2880SOL     OW10413   3.313  10.131  10.825
 2880SOL    HW110414   3.377  10.191  10.864
 2880SOL    HW210415   3.351  10.106  10.741
 2881SOL     OW10416  12.669   6.093   1.070
 2881SOL    HW110417  12.708   6.012   1.039
 2881SOL    HW210418  12.725   6.120   1.144
 2882SOL     OW10419   4.427   6.725   2.513
 2882SOL    HW110420   4.432   6.805   2.460
 2882SOL    HW210421   4.480   6.662   2.465
 2883SOL     OW10422  13.760   6.024   7.094
 2883SOL    HW110423  13.727   6.077   7.022
 2883SOL    HW210424  13.691   5.960   7.111
 2884SOL     OW10425  12.436  11.395  12.748
 2884SOL    HW110426  12.384  11.357  12.819
 2884SOL    HW210427  12.389  11.475  12.724
 2885SOL     OW10428   4.891   0.263   0.846
 2885SOL    HW110429   4.876   0.246   0.939
 2885SOL    HW210430   4.986   0.272   0.838
 2886SOL     OW10431   6.543  10.347   5.416
 2886SOL    HW110432   6.613  10.408   5.392
 2886SOL    HW210433   6.588  10.274   5.456
 2887SOL     OW10434   5.817  11.629   7.996
 2887SOL    HW110435   5.772  11.590   7.921
 2887SOL    HW210436   5.746  11.666   8.049
 2888SOL     OW10437  14.268   4.182   2.058
 2888SOL    HW110438  14.344   4.231   2.024
 2888SOL    HW210439  14.279   4.094   2.022
 2889SOL     OW10440   1.761  13.636   0.341
 2889SOL    HW110441   1.844  13.602   0.306
 2889SOL    HW210442   1.724  13.564   0.391
 2890SOL     OW10443   7.516   8.048   6.451
 2890SOL    HW110444   7.572   8.086   6.383
 2890SOL    HW210445   7.528   8.105   6.526
 2891SOL     OW10446   5.652   0.750  12.502
 2891SOL    HW110447   5.656   0.693  12.579
 2891SOL    HW210448   5.739   0.746  12.464
 2892SOL     OW10449   8.748  12.220  12.174
 2892SOL    HW110450   8.667  12.171  12.161
 2892SOL    HW210451   8.759  12.271  12.094
 2893SOL     OW10452   7.277   0.871  13.379
 2893SOL    HW110453   7.373   0.863  13.381
 2893SOL    HW210454   7.253   0.844  13.291
 2894SOL     OW10455   6.924   7.453   1.208
 2894SOL    HW110456   6.988   7.392   1.170
 2894SOL    HW210457   6.867   7.397   1.261
 2895SOL     OW10458   0.927   3.622   0.363
 2895SOL    HW110459   0.972   3.702   0.390
 2895SOL    HW210460   0.956   3.607   0.272
 2896SOL     OW10461   1.886  14.280  13.735
 2896SOL    HW110462   1.863  14.231  13.814
 2896SOL    HW210463   1.838  14.362  13.743
 2897SOL     OW10464   0.476  14.391   9.736
 2897SOL    HW110465   0.392  14.437   9.738
 2897SOL    HW210466   0.456  14.304   9.771
 2898SOL     OW10467  12.785   8.447   2.374
 2898SOL    HW110468  12.834   8.492   2.443
 2898SOL    HW210469  12.853   8.416   2.314
 2899SOL     OW10470  10.447   4.779   1.012
 2899SOL    HW110471  10.509   4.839   0.971
 2899SOL    HW210472  10.381   4.763   0.945
 2900SOL     OW10473   4.640  11.283  10.891
 2900SOL    HW110474   4.694  11.338  10.834
 2900SOL    HW210475   4.555  11.279  10.847
 2901SOL     OW10476   8.885  11.675   4.115
 2901SOL    HW110477   8.880  11.580   4.106
 2901SOL    HW210478   8.932  11.689   4.197
 2902SOL     OW10479   4.136  10.635   7.951
 2902SOL    HW110480   4.146  10.725   7.984
 2902SOL    HW210481   4.074  10.642   7.879
 2903SOL     OW10482   2.572  10.778   7.452
 2903SOL    HW110483   2.593  10.843   7.385
 2903SOL    HW210484   2.619  10.807   7.530
 2904SOL     OW10485  13.089   9.913   2.811
 2904SOL    HW110486  13.114   9.822   2.826
 2904SOL    HW210487  13.150   9.963   2.865
 2905SOL     OW10488   1.745   9.485  13.737
 2905SOL    HW110489   1.701   9.444  13.812
 2905SOL    HW210490   1.789   9.412  13.693
 2906SOL     OW10491   6.349   7.210  11.078
 2906SOL    HW110492   6.288   7.260  11.132
 2906SOL    HW210493   6.432   7.216  11.124
 2907SOL     OW10494   4.095  11.322   5.674
 2907SOL    HW110495   4.011  11.282   5.696
 2907SOL    HW210496   4.139  11.258   5.618
 2908SOL     OW10497  14.524   1.175  10.242
 2908SOL    HW110498  14.561   1.262  10.225
 2908SOL    HW210499  14.600   1.121  10.267
 2909SOL     OW10500  11.155   1.576   4.716
 2909SOL    HW110501  11.142   1.490   4.756
 2909SOL    HW210502  11.067   1.605   4.692
 2910SOL     OW10503   0.104   0.704   7.323
 2910SOL    HW110504   0.065   0.645   7.259
 2910SOL    HW210505   0.031   0.758   7.353
 2911SOL     OW10506   1.746   2.419   9.280
 2911SOL    HW110507   1.839   2.437   9.297
 2911SOL    HW210508   1.735   2.436   9.187
 2912SOL     OW10509   5.302  12.314   2.131
 2912SOL    HW110510   5.276  12.401   2.161
 2912SOL    HW210511   5.354  12.331   2.052
 2913SOL     OW10512   3.065   1.278  14.731
 2913SOL    HW110513   3.081   1.185  14.746
 2913SOL    HW210514   2.995   1.281  14.666
 2914SOL     OW10515   6.581   8.976   7.331
 2914SOL    HW110516   6.666   8.978   7.286
 2914SOL    HW210517   6.517   8.974   7.260
 2915SOL     OW10518   7.146  12.142   2.815
 2915SOL    HW110519   7.168  12.179   2.729
 2915SOL    HW210520   7.164  12.048   2.805
 2916SOL     OW10521   0.077   5.276   6.329
 2916SOL    HW110522   0.062   5.182   6.332
 2916SOL    HW210523  14.871   5.315   6.354
 2917SOL     OW10524   0.469   0.632   7.168
 2917SOL    HW110525   0.443   0.717   7.205
 2917SOL    HW210526   0.446   0.569   7.237
 2918SOL     OW10527   9.263   9.478   7.675
 2918SOL    HW110528   9.263   9.399   7.728
 2918SOL    HW210529   9.172   9.489   7.646
 2919SOL     OW10530   5.334   0.481   7.234
 2919SOL    HW110531   5.271   0.414   7.209
 2919SOL    HW210532   5.363   0.519   7.151
 2920SOL     OW10533   7.417   2.455   2.796
 2920SOL    HW110534   7.386   2.546   2.791
 2920SOL    HW210535   7.422   2.437   2.890
 2921SOL     OW10536   3.562   8.810   1.458
 2921SOL    HW110537   3.524   8.729   1.423
 2921SOL    HW210538   3.596   8.786   1.543
 2922SOL     OW10539   7.447  12.014  14.298
 2922SOL    HW110540   7.354  12.034  14.286
 2922SOL    HW210541   7.487  12.098  14.320
 2923SOL     OW10542  11.057  10.268  10.790
 2923SOL    HW110543  11.151  10.275  10.809
 2923SOL    HW210544  11.019  10.348  10.826
 2924SOL     OW10545  13.298   1.334   8.284
 2924SOL    HW110546  13.233   1.373   8.342
 2924SOL    HW210547  13.348   1.409   8.251
 2925SOL     OW10548  10.112   4.323   3.859
 2925SOL    HW110549  10.128   4.417   3.843
 2925SOL    HW210550  10.097   4.318   3.954
 2926SOL     OW10551  12.208   8.898   5.555
 2926SOL    HW110552  12.208   8.805   5.580
 2926SOL    HW210553  12.137   8.937   5.606
 2927SOL     OW10554   0.764   9.400   9.852
 2927SOL    HW110555   0.701   9.328   9.841
 2927SOL    HW210556   0.713   9.479   9.834
 2928SOL     OW10557   0.240   9.645   8.546
 2928SOL    HW110558   0.329   9.673   8.567
 2928SOL    HW210559   0.251   9.557   8.509
 2929SOL     OW10560  13.601   1.794   4.642
 2929SOL    HW110561  13.652   1.873   4.663
 2929SOL    HW210562  13.658   1.721   4.665
 2930SOL     OW10563   7.469   6.744   0.955
 2930SOL    HW110564   7.445   6.745   0.863
 2930SOL    HW210565   7.466   6.652   0.980
 2931SOL     OW10566   3.147  11.591   0.866
 2931SOL    HW110567   3.169  11.683   0.882
 2931SOL    HW210568   3.201  11.566   0.791
 2932SOL     OW10569   8.482   6.231   1.327
 2932SOL    HW110570   8.459   6.238   1.234
 2932SOL    HW210571   8.398   6.220   1.372
 2933SOL     OW10572  13.916   2.746   3.290
 2933SOL    HW110573  13.879   2.663   3.260
 2933SOL    HW210574  14.011   2.735   3.281
 2934SOL     OW10575  10.747   1.856   9.839
 2934SOL    HW110576  10.723   1.803   9.763
 2934SOL    HW210577  10.672   1.851   9.897
 2935SOL     OW10578   3.637  10.099   3.176
 2935SOL    HW110579   3.626  10.154   3.254
 2935SOL    HW210580   3.551  10.100   3.134
 2936SOL     OW10581   2.243  14.336   1.942
 2936SOL    HW110582   2.200  14.269   1.996
 2936SOL    HW210583   2.231  14.306   1.852
 2937SOL     OW10584  10.514   5.138  13.724
 2937SOL    HW110585  10.589   5.195  13.707
 2937SOL    HW210586  10.479   5.118  13.637
 2938SOL     OW10587  10.094   0.679   2.208
 2938SOL    HW110588  10.037   0.683   2.284
 2938SOL    HW210589  10.172   0.632   2.238
 2939SOL     OW10590  13.422   7.817   6.476
 2939SOL    HW110591  13.354   7.779   6.531
 2939SOL    HW210592  13.374   7.870   6.412
 2940SOL     OW10593   5.413  12.191  10.826
 2940SOL    HW110594   5.471  12.243  10.770
 2940SOL    HW210595   5.469  12.164  10.899
 2941SOL     OW10596  10.063   7.874   2.466
 2941SOL    HW110597   9.996   7.936   2.492
 2941SOL    HW210598  10.017   7.809   2.413
 2942SOL     OW10599   6.039  14.129   2.640
 2942SOL    HW110600   6.082  14.136   2.555
 2942SOL    HW210601   6.043  14.217   2.677
 2943SOL     OW10602   6.771   7.063  11.051
 2943SOL    HW110603   6.850   7.010  11.066
 2943SOL    HW210604   6.722   7.015  10.984
 2944SOL     OW10605  12.080   8.732   8.946
 2944SOL    HW110606  12.154   8.777   8.904
 2944SOL    HW210607  12.096   8.639   8.930
 2945SOL     OW10608   2.156   1.612   0.768
 2945SOL    HW110609   2.109   1.545   0.719
 2945SOL    HW210610   2.248   1.586   0.763
 2946SOL     OW10611  13.328   4.316  10.588
 2946SOL    HW110612  13.278   4.243  10.624
 2946SOL    HW210613  13.334   4.298  10.495
 2947SOL     OW10614   4.969   3.902   4.478
 2947SOL    HW110615   4.955   3.980   4.532
 2947SOL    HW210616   4.897   3.843   4.500
 2948SOL     OW10617   8.597  11.781   9.243
 2948SOL    HW110618   8.512  11.740   9.228
 2948SOL    HW210619   8.618  11.760   9.334
 2949SOL     OW10620   7.353  10.972   2.183
 2949SOL    HW110621   7.361  10.903   2.248
 2949SOL    HW210622   7.436  10.970   2.135
 2950SOL     OW10623   9.072  11.124   0.961
 2950SOL    HW110624   9.030  11.148   0.878
 2950SOL    HW210625   9.005  11.078   1.011
 2951SOL     OW10626  11.228   3.418   4.074
 2951SOL    HW110627  11.279   3.385   4.001
 2951SOL    HW210628  11.284   3.485   4.114
 2952SOL     OW10629   3.344  14.562   4.775
 2952SOL    HW110630   3.382  14.592   4.857
 2952SOL    HW210631   3.290  14.487   4.800
 2953SOL     OW10632   8.266   3.274   1.209
 2953SOL    HW110633   8.222   3.326   1.277
 2953SOL    HW210634   8.323   3.215   1.258
 2954SOL     OW10635   2.739   6.507  12.642
 2954SOL    HW110636   2.759   6.434  12.584
 2954SOL    HW210637   2.799   6.577  12.616
 2955SOL     OW10638  12.798  11.072   0.007
 2955SOL    HW110639  12.780  11.033   0.092
 2955SOL    HW210640  12.743  11.150   0.003
 2956SOL     OW10641   6.179   3.613  11.001
 2956SOL    HW110642   6.123   3.688  10.983
 2956SOL    HW210643   6.251   3.649  11.053
 2957SOL     OW10644   8.005   1.483  10.546
 2957SOL    HW110645   8.084   1.514  10.589
 2957SOL    HW210646   7.935   1.540  10.579
 2958SOL     OW10647  13.756   4.672   4.780
 2958SOL    HW110648  13.688   4.616   4.743
 2958SOL    HW210649  13.727   4.689   4.869
 2959SOL     OW10650   2.920  10.005   2.390
 2959SOL    HW110651   2.916   9.943   2.463
 2959SOL    HW210652   2.841  10.058   2.400
 2960SOL     OW10653   1.446   6.386   4.013
 2960SOL    HW110654   1.435   6.324   4.086
 2960SOL    HW210655   1.470   6.468   4.055
 2961SOL     OW10656   2.081   2.893   9.882
 2961SOL    HW110657   2.019   2.950   9.836
 2961SOL    HW210658   2.059   2.805   9.851
 2962SOL     OW10659   0.489   6.189  13.922
 2962SOL    HW110660   0.450   6.274  13.940
 2962SOL    HW210661   0.465   6.135  13.997
 2963SOL     OW10662  12.204   4.889   6.885
 2963SOL    HW110663  12.157   4.818   6.928
 2963SOL    HW210664  12.263   4.844   6.824
 2964SOL     OW10665   4.894  10.365  12.210
 2964SOL    HW110666   4.983  10.374  12.245
 2964SOL    HW210667   4.877  10.448  12.165
 2965SOL     OW10668  10.451   6.142  12.968
 2965SOL    HW110669  10.406   6.212  12.921
 2965SOL    HW210670  10.382   6.082  12.995
 2966SOL     OW10671  14.045   4.570   1.421
 2966SOL    HW110672  13.990   4.548   1.346
 2966SOL    HW210673  14.056   4.487   1.468
 2967SOL     OW10674   3.807   2.083   2.433
 2967SOL    HW110675   3.813   2.000   2.480
 2967SOL    HW210676   3.825   2.060   2.342
 2968SOL     OW10677  11.064   0.128   0.737
 2968SOL    HW110678  11.102   0.156   0.820
 2968SOL    HW210679  10.980   0.173   0.731
 2969SOL     OW10680  10.771   7.241  13.232
 2969SOL    HW110681  10.723   7.314  13.273
 2969SOL    HW210682  10.822   7.204  13.304
 2970SOL     OW10683  12.024   1.270  12.510
 2970SOL    HW110684  11.990   1.347  12.465
 2970SOL    HW210685  12.034   1.204  12.441
 2971SOL     OW10686   3.353  14.298   1.352
 2971SOL    HW110687   3.328  14.264   1.266
 2971SOL    HW210688   3.358  14.221   1.408
 2972SOL     OW10689   2.754   8.571   2.780
 2972SOL    HW110690   2.670   8.575   2.735
 2972SOL    HW210691   2.758   8.482   2.815
 2973SOL     OW10692   3.840  12.254  11.731
 2973SOL    HW110693   3.781  12.258  11.656
 2973SOL    HW210694   3.892  12.175  11.716
 2974SOL     OW10695   7.065   0.671   3.510
 2974SOL    HW110696   7.035   0.664   3.419
 2974SOL    HW210697   7.157   0.645   3.507
 2975SOL     OW10698   5.265   0.428   3.335
 2975SOL    HW110699   5.271   0.337   3.306
 2975SOL    HW210700   5.313   0.430   3.418
 2976SOL     OW10701  11.969   9.860   6.005
 2976SOL    HW110702  12.045   9.917   6.019
 2976SOL    HW210703  11.990   9.780   6.053
 2977SOL     OW10704  11.205   0.386   2.999
 2977SOL    HW110705  11.217   0.387   3.094
 2977SOL    HW210706  11.131   0.327   2.985
 2978SOL     OW10707   2.821   7.836   7.051
 2978SOL    HW110708   2.897   7.794   7.010
 2978SOL    HW210709   2.855   7.877   7.130
 2979SOL     OW10710   4.575  13.951   6.539
 2979SOL    HW110711   4.630  14.023   6.509
 2979SOL    HW210712   4.485  13.982   6.527
 2980SOL     OW10713   5.038   0.948   9.890
 2980SOL    HW110714   5.071   0.987   9.971
 2980SOL    HW210715   5.070   0.857   9.892
 2981SOL     OW10716   1.675  12.215   8.062
 2981SOL    HW110717   1.699  12.288   8.118
 2981SOL    HW210718   1.749  12.204   8.003
 2982SOL     OW10719   9.450   6.989  12.363
 2982SOL    HW110720   9.528   6.936  12.381
 2982SOL    HW210721   9.471   7.075  12.399
 2983SOL     OW10722  11.030   9.653  12.452
 2983SOL    HW110723  11.092   9.634  12.522
 2983SOL    HW210724  10.962   9.705  12.494
 2984SOL     OW10725  10.591  13.964  14.173
 2984SOL    HW110726  10.552  14.031  14.230
 2984SOL    HW210727  10.638  13.907  14.233
 2985SOL     OW10728   6.120   0.234   5.702
 2985SOL    HW110729   6.121   0.237   5.798
 2985SOL    HW210730   6.133   0.325   5.675
 2986SOL     OW10731  11.698   6.902   6.645
 2986SOL    HW110732  11.792   6.888   6.633
 2986SOL    HW210733  11.664   6.817   6.671
 2987SOL     OW10734   1.868  14.086   5.256
 2987SOL    HW110735   1.841  14.016   5.196
 2987SOL    HW210736   1.856  14.050   5.343
 2988SOL     OW10737  11.052  12.356  11.429
 2988SOL    HW110738  11.032  12.396  11.513
 2988SOL    HW210739  10.980  12.294  11.414
 2989SOL     OW10740   8.420   4.679   8.923
 2989SOL    HW110741   8.420   4.686   8.828
 2989SOL    HW210742   8.407   4.586   8.941
 2990SOL     OW10743   9.729  13.087   6.846
 2990SOL    HW110744   9.761  12.998   6.831
 2990SOL    HW210745   9.788  13.143   6.796
 2991SOL     OW10746   1.146   5.409  10.574
 2991SOL    HW110747   1.099   5.377  10.497
 2991SOL    HW210748   1.085   5.469  10.617
 2992SOL     OW10749   5.555   7.838  10.145
 2992SOL    HW110750   5.576   7.751  10.179
 2992SOL    HW210751   5.613   7.848  10.069
 2993SOL     OW10752   3.338   5.236   3.878
 2993SOL    HW110753   3.346   5.167   3.812
 2993SOL    HW210754   3.421   5.235   3.925
 2994SOL     OW10755   2.558   4.959  11.166
 2994SOL    HW110756   2.518   5.032  11.212
 2994SOL    HW210757   2.519   4.962  11.078
 2995SOL     OW10758   3.882  13.995  13.720
 2995SOL    HW110759   3.856  13.979  13.629
 2995SOL    HW210760   3.968  14.036  13.714
 2996SOL     OW10761  14.831   0.417   4.097
 2996SOL    HW110762  14.787   0.490   4.054
 2996SOL    HW210763   0.002   0.458   4.169
 2997SOL     OW10764  10.884   7.053   6.011
 2997SOL    HW110765  10.947   7.109   5.966
 2997SOL    HW210766  10.932   6.972   6.029
 2998SOL     OW10767  14.560   8.994   8.175
 2998SOL    HW110768  14.589   9.004   8.266
 2998SOL    HW210769  14.615   8.924   8.141
 2999SOL     OW10770   1.296  14.715  13.805
 2999SOL    HW110771   1.252  14.790  13.764
 2999SOL    HW210772   1.369  14.696  13.746
 3000SOL     OW10773   0.537   1.622   8.547
 3000SOL    HW110774   0.505   1.574   8.471
 3000SOL    HW210775   0.510   1.569   8.622
 3001SOL     OW10776  14.152  13.029   8.460
 3001SOL    HW110777  14.217  12.984   8.515
 3001SOL    HW210778  14.124  12.962   8.397
 3002SOL     OW10779   1.900   3.985   4.758
 3002SOL    HW110780   1.976   4.011   4.810
 3002SOL    HW210781   1.864   4.067   4.724
 3003SOL     OW10782  12.441   8.114  11.070
 3003SOL    HW110783  12.374   8.070  11.121
 3003SOL    HW210784  12.433   8.075  10.982
 3004SOL     OW10785   8.528   3.024  13.868
 3004SOL    HW110786   8.592   2.994  13.803
 3004SOL    HW210787   8.459   2.957  13.866
 3005SOL     OW10788   1.112   8.874   0.537
 3005SOL    HW110789   1.106   8.789   0.581
 3005SOL    HW210790   1.084   8.937   0.604
 3006SOL     OW10791   2.217  11.250   2.748
 3006SOL    HW110792   2.129  11.241   2.711
 3006SOL    HW210793   2.265  11.303   2.684
 3007SOL     OW10794   4.308   2.835  13.319
 3007SOL    HW110795   4.366   2.764  13.291
 3007SOL    HW210796   4.338   2.856  13.407
 3008SOL     OW10797   0.387   9.895   8.856
 3008SOL    HW110798   0.407   9.944   8.936
 3008SOL    HW210799   0.298   9.861   8.870
 3009SOL     OW10800   2.160   4.430   4.206
 3009SOL    HW110801   2.244   4.387   4.218
 3009SOL    HW210802   2.111   4.372   4.147
 3010SOL     OW10803   8.344  10.452  11.963
 3010SOL    HW110804   8.402  10.407  12.024
 3010SOL    HW210805   8.257  10.444  12.002
 3011SOL     OW10806  13.341   9.318  14.837
 3011SOL    HW110807  13.379   9.401  14.866
 3011SOL    HW210808  13.290   9.287   0.034
 3012SOL     OW10809   4.384   6.725  14.230
 3012SOL    HW110810   4.324   6.664  14.274
 3012SOL    HW210811   4.331   6.804  14.216
 3013SOL     OW10812  12.399  12.743   2.626
 3013SOL    HW110813  12.469  12.807   2.637
 3013SOL    HW210814  12.344  12.753   2.703
 3014SOL     OW10815   3.054   9.952  11.669
 3014SOL    HW110816   3.042  10.042  11.701
 3014SOL    HW210817   2.968   9.911  11.677
 3015SOL     OW10818  13.732   3.405   3.582
 3015SOL    HW110819  13.639   3.389   3.565
 3015SOL    HW210820  13.734   3.451   3.666
 3016SOL     OW10821   5.999  13.008   3.070
 3016SOL    HW110822   6.053  13.059   3.010
 3016SOL    HW210823   6.034  13.030   3.157
 3017SOL     OW10824   8.593   5.761   8.165
 3017SOL    HW110825   8.625   5.832   8.109
 3017SOL    HW210826   8.587   5.685   8.107
 3018SOL     OW10827  11.905  10.950  14.333
 3018SOL    HW110828  11.881  11.006  14.408
 3018SOL    HW210829  11.989  10.912  14.359
 3019SOL     OW10830   3.047  12.177   1.372
 3019SOL    HW110831   3.034  12.083   1.384
 3019SOL    HW210832   3.141  12.185   1.352
 3020SOL     OW10833   2.765   8.794  10.377
 3020SOL    HW110834   2.798   8.864  10.321
 3020SOL    HW210835   2.729   8.839  10.453
 3021SOL     OW10836  12.238  13.497   2.151
 3021SOL    HW110837  12.244  13.462   2.240
 3021SOL    HW210838  12.148  13.528   2.144
 3022SOL     OW10839   1.260  12.828  10.338
 3022SOL    HW110840   1.246  12.875  10.420
 3022SOL    HW210841   1.261  12.736  10.364
 3023SOL     OW10842   1.876   4.846  10.042
 3023SOL    HW110843   1.823   4.918  10.074
 3023SOL    HW210844   1.874   4.855   9.946
 3024SOL     OW10845   5.713   3.398   8.576
 3024SOL    HW110846   5.746   3.464   8.515
 3024SOL    HW210847   5.644   3.442   8.625
 3025SOL     OW10848   2.696  11.073  14.729
 3025SOL    HW110849   2.698  11.168  14.743
 3025SOL    HW210850   2.605  11.048  14.745
 3026SOL     OW10851  10.793   2.580   4.889
 3026SOL    HW110852  10.795   2.656   4.947
 3026SOL    HW210853  10.727   2.602   4.823
 3027SOL     OW10854   8.562  12.540   4.586
 3027SOL    HW110855   8.626  12.550   4.657
 3027SOL    HW210856   8.603  12.583   4.511
 3028SOL     OW10857   9.645   1.502   4.390
 3028SOL    HW110858   9.591   1.544   4.458
 3028SOL    HW210859   9.608   1.533   4.308
 3029SOL     OW10860  12.388   0.166   6.272
 3029SOL    HW110861  12.345   0.150   6.188
 3029SOL    HW210862  12.452   0.235   6.253
 3030SOL     OW10863  10.081  12.747   0.415
 3030SOL    HW110864  10.100  12.818   0.354
 3030SOL    HW210865  10.165  12.729   0.457
 3031SOL     OW10866  13.251  10.339  11.056
 3031SOL    HW110867  13.297  10.338  11.139
 3031SOL    HW210868  13.166  10.299  11.075
 3032SOL     OW10869   7.614   6.176   9.846
 3032SOL    HW110870   7.557   6.122   9.790
 3032SOL    HW210871   7.695   6.185   9.795
 3033SOL     OW10872   7.515   9.939   4.538
 3033SOL    HW110873   7.519   9.844   4.522
 3033SOL    HW210874   7.606   9.968   4.533
 3034SOL     OW10875   7.026   9.925   1.655
 3034SOL    HW110876   6.957   9.876   1.610
 3034SOL    HW210877   7.093   9.860   1.676
 3035SOL     OW10878   9.439   5.673   4.950
 3035SOL    HW110879   9.357   5.721   4.967
 3035SOL    HW210880   9.411   5.587   4.921
 3036SOL     OW10881   3.455   5.175   7.869
 3036SOL    HW110882   3.542   5.159   7.833
 3036SOL    HW210883   3.445   5.110   7.938
 3037SOL     OW10884   9.317   4.116   7.515
 3037SOL    HW110885   9.306   4.028   7.479
 3037SOL    HW210886   9.249   4.168   7.473
 3038SOL     OW10887   3.229   3.251   1.888
 3038SOL    HW110888   3.211   3.247   1.982
 3038SOL    HW210889   3.232   3.345   1.868
 3039SOL     OW10890   6.945   3.403   4.275
 3039SOL    HW110891   6.952   3.310   4.297
 3039SOL    HW210892   6.869   3.409   4.217
 3040SOL     OW10893   3.445  10.255   6.000
 3040SOL    HW110894   3.411  10.206   6.075
 3040SOL    HW210895   3.540  10.253   6.011
 3041SOL     OW10896   0.858  14.321  13.889
 3041SOL    HW110897   0.829  14.376  13.961
 3041SOL    HW210898   0.825  14.234  13.911
 3042SOL     OW10899   6.561   4.219  11.745
 3042SOL    HW110900   6.643   4.174  11.765
 3042SOL    HW210901   6.526   4.244  11.831
 3043SOL     OW10902   0.106   7.044   3.130
 3043SOL    HW110903   0.191   7.077   3.159
 3043SOL    HW210904   0.043   7.110   3.158
 3044SOL     OW10905   4.184   5.605  13.474
 3044SOL    HW110906   4.237   5.573  13.401
 3044SOL    HW210907   4.098   5.623  13.436
 3045SOL     OW10908  10.579   1.422   6.359
 3045SOL    HW110909  10.628   1.362   6.302
 3045SOL    HW210910  10.515   1.463   6.300
 3046SOL     OW10911   6.160   8.271   2.592
 3046SOL    HW110912   6.178   8.177   2.597
 3046SOL    HW210913   6.244   8.312   2.614
 3047SOL     OW10914   4.712  12.824   6.500
 3047SOL    HW110915   4.707  12.812   6.405
 3047SOL    HW210916   4.638  12.774   6.534
 3048SOL     OW10917  13.925   7.458   5.651
 3048SOL    HW110918  13.834   7.453   5.621
 3048SOL    HW210919  13.962   7.530   5.600
 3049SOL     OW10920  13.163   3.619   4.721
 3049SOL    HW110921  13.220   3.670   4.778
 3049SOL    HW210922  13.206   3.534   4.714
 3050SOL     OW10923   4.979  12.077   0.563
 3050SOL    HW110924   4.889  12.061   0.592
 3050SOL    HW210925   4.990  12.172   0.572
 3051SOL     OW10926  11.306  14.097   0.450
 3051SOL    HW110927  11.253  14.177   0.445
 3051SOL    HW210928  11.250  14.034   0.496
 3052SOL     OW10929   8.804   7.617  11.105
 3052SOL    HW110930   8.820   7.644  11.195
 3052SOL    HW210931   8.890   7.590  11.073
 3053SOL     OW10932   2.799   9.483  10.428
 3053SOL    HW110933   2.884   9.464  10.387
 3053SOL    HW210934   2.821   9.500  10.520
 3054SOL     OW10935   2.545  14.027  10.909
 3054SOL    HW110936   2.562  14.117  10.879
 3054SOL    HW210937   2.577  13.972  10.837
 3055SOL     OW10938  13.368   1.022   5.148
 3055SOL    HW110939  13.372   1.118   5.153
 3055SOL    HW210940  13.288   0.998   5.194
 3056SOL     OW10941  14.237   3.091   7.697
 3056SOL    HW110942  14.291   3.163   7.732
 3056SOL    HW210943  14.149   3.110   7.728
 3057SOL     OW10944  11.318  14.493   6.388
 3057SOL    HW110945  11.335  14.400   6.401
 3057SOL    HW210946  11.299  14.526   6.475
 3058SOL     OW10947   0.716  14.798  14.615
 3058SOL    HW110948   0.738  14.705  14.617
 3058SOL    HW210949   0.796  14.841  14.583
 3059SOL     OW10950   9.419   6.514  13.926
 3059SOL    HW110951   9.358   6.582  13.901
 3059SOL    HW210952   9.480   6.508  13.853
 3060SOL     OW10953   2.205   8.568   8.271
 3060SOL    HW110954   2.285   8.618   8.291
 3060SOL    HW210955   2.210   8.491   8.327
 3061SOL     OW10956   1.716  10.775   4.356
 3061SOL    HW110957   1.759  10.824   4.286
 3061SOL    HW210958   1.625  10.803   4.352
 3062SOL     OW10959   5.664  13.524   5.452
 3062SOL    HW110960   5.661  13.617   5.430
 3062SOL    HW210961   5.584  13.488   5.413
 3063SOL     OW10962  11.145   4.466   7.330
 3063SOL    HW110963  11.227   4.424   7.356
 3063SOL    HW210964  11.170   4.555   7.306
 3064SOL     OW10965   4.192   1.105   2.877
 3064SOL    HW110966   4.145   1.086   2.795
 3064SOL    HW210967   4.128   1.153   2.930
 3065SOL     OW10968   4.118   5.391   7.317
 3065SOL    HW110969   4.202   5.403   7.362
 3065SOL    HW210970   4.056   5.442   7.369
 3066SOL     OW10971  11.812   7.564   0.587
 3066SOL    HW110972  11.802   7.600   0.499
 3066SOL    HW210973  11.892   7.511   0.583
 3067SOL     OW10974   1.056   4.746   0.212
 3067SOL    HW110975   1.020   4.832   0.234
 3067SOL    HW210976   1.131   4.765   0.156
 3068SOL     OW10977  13.851   5.947   6.726
 3068SOL    HW110978  13.885   6.022   6.775
 3068SOL    HW210979  13.865   5.970   6.635
 3069SOL     OW10980   5.246   9.907   0.519
 3069SOL    HW110981   5.308   9.912   0.592
 3069SOL    HW210982   5.160   9.917   0.560
 3070SOL     OW10983   9.161   8.115   1.124
 3070SOL    HW110984   9.251   8.119   1.156
 3070SOL    HW210985   9.136   8.206   1.111
 3071SOL     OW10986  11.101   5.692  12.576
 3071SOL    HW110987  11.152   5.669  12.498
 3071SOL    HW210988  11.150   5.653  12.649
 3072SOL     OW10989  14.518   1.377   0.592
 3072SOL    HW110990  14.444   1.327   0.626
 3072SOL    HW210991  14.491   1.404   0.504
 3073SOL     OW10992  13.168   1.433   3.429
 3073SOL    HW110993  13.192   1.402   3.341
 3073SOL    HW210994  13.237   1.495   3.452
 3074SOL     OW10995   5.554   2.831   5.036
 3074SOL    HW110996   5.535   2.780   5.114
 3074SOL    HW210997   5.472   2.830   4.986
 3075SOL     OW10998  13.315   6.460   3.244
 3075SOL    HW110999  13.391   6.401   3.248
 3075SOL    HW211000  13.240   6.400   3.236
 3076SOL     OW11001   2.111   3.842   1.355
 3076SOL    HW111002   2.154   3.928   1.356
 3076SOL    HW211003   2.165   3.789   1.297
 3077SOL     OW11004   4.645   1.163   5.121
 3077SOL    HW111005   4.617   1.249   5.152
 3077SOL    HW211006   4.740   1.172   5.110
 3078SOL     OW11007   0.408   8.056  14.624
 3078SOL    HW111008   0.326   8.056  14.675
 3078SOL    HW211009   0.381   8.032  14.535
 3079SOL     OW11010   7.202   6.164  14.482
 3079SOL    HW111011   7.188   6.234  14.418
 3079SOL    HW211012   7.139   6.183  14.552
 3080SOL     OW11013  12.079  11.773   4.648
 3080SOL    HW111014  12.139  11.794   4.720
 3080SOL    HW211015  12.132  11.784   4.569
 3081SOL     OW11016   4.677   3.744   0.657
 3081SOL    HW111017   4.678   3.775   0.748
 3081SOL    HW211018   4.769   3.747   0.630
 3082SOL     OW11019   4.950   3.932   4.874
 3082SOL    HW111020   4.975   3.972   4.790
 3082SOL    HW211021   4.860   3.959   4.888
 3083SOL     OW11022   0.520   6.665   5.801
 3083SOL    HW111023   0.455   6.597   5.784
 3083SOL    HW211024   0.538   6.658   5.895
 3084SOL     OW11025   9.079   1.378   8.851
 3084SOL    HW111026   9.021   1.448   8.880
 3084SOL    HW211027   9.088   1.321   8.928
 3085SOL     OW11028  12.865  13.025   3.254
 3085SOL    HW111029  12.883  13.095   3.191
 3085SOL    HW211030  12.934  12.960   3.238
 3086SOL     OW11031   5.455   0.330   2.740
 3086SOL    HW111032   5.458   0.256   2.679
 3086SOL    HW211033   5.528   0.315   2.800
 3087SOL     OW11034   3.119  13.610   5.412
 3087SOL    HW111035   3.071  13.590   5.331
 3087SOL    HW211036   3.168  13.530   5.430
 3088SOL     OW11037  13.566   8.276  10.406
 3088SOL    HW111038  13.570   8.188  10.369
 3088SOL    HW211039  13.480   8.309  10.381
 3089SOL     OW11040   5.461   7.939  12.218
 3089SOL    HW111041   5.498   7.853  12.238
 3089SOL    HW211042   5.470   7.990  12.298
 3090SOL     OW11043   5.048   6.203   0.550
 3090SOL    HW111044   4.978   6.268   0.550
 3090SOL    HW211045   5.060   6.179   0.642
 3091SOL     OW11046  10.456   3.282   0.358
 3091SOL    HW111047  10.505   3.360   0.385
 3091SOL    HW211048  10.505   3.209   0.397
 3092SOL     OW11049   3.587   3.011   9.010
 3092SOL    HW111050   3.513   2.957   8.984
 3092SOL    HW211051   3.614   2.976   9.095
 3093SOL     OW11052  14.753   6.330   5.318
 3093SOL    HW111053  14.667   6.372   5.315
 3093SOL    HW211054  14.790   6.344   5.231
 3094SOL     OW11055   4.825   9.537  11.811
 3094SOL    HW111056   4.904   9.578  11.777
 3094SOL    HW211057   4.779   9.505  11.733
 3095SOL     OW11058  12.679   4.326   7.832
 3095SOL    HW111059  12.587   4.349   7.844
 3095SOL    HW211060  12.712   4.313   7.921
 3096SOL     OW11061   7.800   3.981  13.618
 3096SOL    HW111062   7.778   3.935  13.699
 3096SOL    HW211063   7.869   3.928  13.578
 3097SOL     OW11064   6.508   9.876   2.146
 3097SOL    HW111065   6.602   9.862   2.155
 3097SOL    HW211066   6.485   9.832   2.065
 3098SOL     OW11067   5.965   7.140  14.877
 3098SOL    HW111068   5.969   7.057   0.047
 3098SOL    HW211069   6.013   7.123  14.796
 3099SOL     OW11070   9.359   6.878   7.409
 3099SOL    HW111071   9.403   6.936   7.347
 3099SOL    HW211072   9.266   6.883   7.385
 3100SOL     OW11073   2.790   4.120   4.783
 3100SOL    HW111074   2.796   4.078   4.869
 3100SOL    HW211075   2.704   4.094   4.750
 3101SOL     OW11076   1.015  13.997   5.921
 3101SOL    HW111077   1.101  14.002   5.879
 3101SOL    HW211078   0.954  14.019   5.851
 3102SOL     OW11079   8.268   2.905   9.886
 3102SOL    HW111080   8.312   2.981   9.847
 3102SOL    HW211081   8.190   2.942   9.927
 3103SOL     OW11082   5.249   1.714   9.588
 3103SOL    HW111083   5.317   1.754   9.643
 3103SOL    HW211084   5.176   1.699   9.648
 3104SOL     OW11085  11.644   7.507  14.340
 3104SOL    HW111086  11.607   7.526  14.426
 3104SOL    HW211087  11.662   7.413  14.341
 3105SOL     OW11088   2.032   4.235  10.546
 3105SOL    HW111089   2.102   4.202  10.490
 3105SOL    HW211090   2.069   4.314  10.586
 3106SOL     OW11091   7.318   3.782  14.753
 3106SOL    HW111092   7.366   3.821  14.679
 3106SOL    HW211093   7.295   3.694  14.723
 3107SOL     OW11094  10.183   6.389   7.590
 3107SOL    HW111095  10.141   6.326   7.649
 3107SOL    HW211096  10.173   6.350   7.503
 3108SOL     OW11097  10.706   8.218  13.495
 3108SOL    HW111098  10.667   8.287  13.442
 3108SOL    HW211099  10.784   8.192  13.448
 3109SOL     OW11100  10.109  13.596   2.631
 3109SOL    HW111101  10.028  13.646   2.644
 3109SOL    HW211102  10.177  13.663   2.624
 3110SOL     OW11103   4.616   9.041  12.237
 3110SOL    HW111104   4.559   9.056  12.312
 3110SOL    HW211105   4.703   9.025  12.274
 3111SOL     OW11106   4.416  10.847   7.963
 3111SOL    HW111107   4.395  10.866   7.872
 3111SOL    HW211108   4.462  10.763   7.960
 3112SOL     OW11109   2.029   5.324   1.707
 3112SOL    HW111110   2.105   5.382   1.703
 3112SOL    HW211111   2.020   5.289   1.619
 3113SOL     OW11112   3.212  10.799   1.395
 3113SOL    HW111113   3.117  10.785   1.391
 3113SOL    HW211114   3.245  10.755   1.316
 3114SOL     OW11115   6.500   3.788   8.465
 3114SOL    HW111116   6.582   3.836   8.463
 3114SOL    HW211117   6.505   3.735   8.544
 3115SOL     OW11118  13.202  14.037   0.573
 3115SOL    HW111119  13.191  14.028   0.478
 3115SOL    HW211120  13.291  14.008   0.590
 3116SOL     OW11121   8.621  12.499  14.492
 3116SOL    HW111122   8.704  12.528  14.529
 3116SOL    HW211123   8.595  12.570  14.433
 3117SOL     OW11124   1.531  14.319   1.743
 3117SOL    HW111125   1.624  14.301   1.734
 3117SOL    HW211126   1.526  14.385   1.812
 3118SOL     OW11127   9.463  11.369  13.896
 3118SOL    HW111128   9.375  11.398  13.920
 3118SOL    HW211129   9.463  11.276  13.916
 3119SOL     OW11130  14.052   5.115   9.644
 3119SOL    HW111131  14.018   5.188   9.696
 3119SOL    HW211132  14.126   5.082   9.695
 3120SOL     OW11133   6.116  12.788   6.652
 3120SOL    HW111134   6.032  12.794   6.699
 3120SOL    HW211135   6.092  12.774   6.561
 3121SOL     OW11136  11.891  12.885   0.635
 3121SOL    HW111137  11.802  12.909   0.660
 3121SOL    HW211138  11.892  12.789   0.642
 3122SOL     OW11139  11.050  12.129   8.230
 3122SOL    HW111140  11.022  12.218   8.209
 3122SOL    HW211141  10.991  12.100   8.300
 3123SOL     OW11142   9.688   6.009   3.308
 3123SOL    HW111143   9.734   5.980   3.387
 3123SOL    HW211144   9.693   6.104   3.311
 3124SOL     OW11145   9.038   2.345   0.163
 3124SOL    HW111146   9.043   2.424   0.216
 3124SOL    HW211147   8.945   2.321   0.165
 3125SOL     OW11148   8.078  11.254   4.735
 3125SOL    HW111149   8.145  11.308   4.692
 3125SOL    HW211150   7.999  11.267   4.681
 3126SOL     OW11151   8.023   0.155  10.686
 3126SOL    HW111152   7.945   0.115  10.646
 3126SOL    HW211153   8.033   0.239  10.639
 3127SOL     OW11154  12.285  12.380   9.163
 3127SOL    HW111155  12.316  12.305   9.112
 3127SOL    HW211156  12.190  12.378   9.152
 3128SOL     OW11157   7.290  11.216   0.117
 3128SOL    HW111158   7.209  11.197   0.164
 3128SOL    HW211159   7.328  11.131   0.099
 3129SOL     OW11160   1.976   4.153   5.923
 3129SOL    HW111161   1.927   4.229   5.892
 3129SOL    HW211162   2.067   4.183   5.926
 3130SOL     OW11163   7.583   1.766  11.131
 3130SOL    HW111164   7.629   1.826  11.072
 3130SOL    HW211165   7.536   1.706  11.073
 3131SOL     OW11166   4.935  13.097   1.592
 3131SOL    HW111167   5.007  13.161   1.592
 3131SOL    HW211168   4.968  13.024   1.539
 3132SOL     OW11169   6.376   6.845   0.835
 3132SOL    HW111170   6.459   6.891   0.821
 3132SOL    HW211171   6.353   6.809   0.749
 3133SOL     OW11172   7.215   0.874   0.784
 3133SOL    HW111173   7.132   0.864   0.738
 3133SOL    HW211174   7.228   0.969   0.789
 3134SOL     OW11175   3.859   7.555   5.469
 3134SOL    HW111176   3.937   7.590   5.513
 3134SOL    HW211177   3.816   7.502   5.536
 3135SOL     OW11178   2.439   9.342  10.484
 3135SOL    HW111179   2.464   9.322  10.574
 3135SOL    HW211180   2.509   9.305  10.431
 3136SOL     OW11181  14.705   4.590  10.601
 3136SOL    HW111182  14.728   4.670  10.647
 3136SOL    HW211183  14.728   4.519  10.661
 3137SOL     OW11184   6.363   5.903   3.852
 3137SOL    HW111185   6.301   5.919   3.923
 3137SOL    HW211186   6.440   5.954   3.875
 3138SOL     OW11187   7.886   6.959   5.871
 3138SOL    HW111188   7.847   6.879   5.835
 3138SOL    HW211189   7.935   6.930   5.948
 3139SOL     OW11190  11.104   1.318  10.655
 3139SOL    HW111191  11.015   1.324  10.621
 3139SOL    HW211192  11.111   1.391  10.718
 3140SOL     OW11193   0.249  10.090   7.167
 3140SOL    HW111194   0.238  10.113   7.074
 3140SOL    HW211195   0.236  10.172   7.214
 3141SOL     OW11196   1.475  14.578  13.633
 3141SOL    HW111197   1.512  14.559  13.547
 3141SOL    HW211198   1.484  14.497  13.682
 3142SOL     OW11199   0.433  11.221   0.723
 3142SOL    HW111200   0.486  11.270   0.660
 3142SOL    HW211201   0.406  11.143   0.676
 3143SOL     OW11202   4.488  13.828  14.018
 3143SOL    HW111203   4.455  13.777  14.092
 3143SOL    HW211204   4.578  13.797  14.006
 3144SOL     OW11205  11.833   9.802  14.807
 3144SOL    HW111206  11.787   9.741  14.750
 3144SOL    HW211207  11.902   9.751  14.848
 3145SOL     OW11208  11.178  12.552   0.733
 3145SOL    HW111209  11.151  12.534   0.823
 3145SOL    HW211210  11.238  12.626   0.741
 3146SOL     OW11211   9.662   9.553  10.495
 3146SOL    HW111212   9.608   9.493  10.444
 3146SOL    HW211213   9.746   9.508  10.505
 3147SOL     OW11214   4.237   3.296   3.241
 3147SOL    HW111215   4.266   3.386   3.253
 3147SOL    HW211216   4.222   3.263   3.329
 3148SOL     OW11217  14.506  14.626   9.140
 3148SOL    HW111218  14.441  14.636   9.209
 3148SOL    HW211219  14.468  14.563   9.079
 3149SOL     OW11220  14.298   0.107   2.638
 3149SOL    HW111221  14.355   0.035   2.665
 3149SOL    HW211222  14.226   0.065   2.590
 3150SOL     OW11223   5.272   3.653   4.640
 3150SOL    HW111224   5.286   3.570   4.594
 3150SOL    HW211225   5.211   3.702   4.584
 3151SOL     OW11226   5.944   3.013   3.660
 3151SOL    HW111227   5.879   3.013   3.729
 3151SOL    HW211228   6.017   2.961   3.696
 3152SOL     OW11229   9.226   6.058   0.053
 3152SOL    HW111230   9.274   5.978   0.029
 3152SOL    HW211231   9.248   6.072   0.145
 3153SOL     OW11232   4.526  13.693   1.345
 3153SOL    HW111233   4.578  13.694   1.265
 3153SOL    HW211234   4.587  13.661   1.412
 3154SOL     OW11235   0.188   0.835   5.840
 3154SOL    HW111236   0.280   0.862   5.837
 3154SOL    HW211237   0.164   0.821   5.749
 3155SOL     OW11238   6.168   1.056   7.874
 3155SOL    HW111239   6.256   1.084   7.849
 3155SOL    HW211240   6.180   1.012   7.959
 3156SOL     OW11241   3.419   8.372   5.166
 3156SOL    HW111242   3.400   8.303   5.230
 3156SOL    HW211243   3.498   8.415   5.200
 3157SOL     OW11244   9.043  10.427  11.787
 3157SOL    HW111245   9.117  10.391  11.834
 3157SOL    HW211246   9.076  10.446  11.700
 3158SOL     OW11247   0.235  14.861   7.220
 3158SOL    HW111248   0.176   0.049   7.184
 3158SOL    HW211249   0.253   0.012   7.309
 3159SOL     OW11250   3.575   2.290  14.028
 3159SOL    HW111251   3.617   2.307  14.112
 3159SOL    HW211252   3.642   2.248  13.975
 3160SOL     OW11253  11.764   8.683   0.313
 3160SOL    HW111254  11.700   8.729   0.258
 3160SOL    HW211255  11.849   8.706   0.275
 3161SOL     OW11256   5.731   5.592  13.233
 3161SOL    HW111257   5.761   5.622  13.319
 3161SOL    HW211258   5.782   5.644  13.170
 3162SOL     OW11259  11.362  10.047   6.603
 3162SOL    HW111260  11.454  10.057   6.578
 3162SOL    HW211261  11.314  10.082   6.528
 3163SOL     OW11262   2.827   4.480   8.377
 3163SOL    HW111263   2.799   4.422   8.306
 3163SOL    HW211264   2.756   4.477   8.441
 3164SOL     OW11265  12.696  14.220   9.650
 3164SOL    HW111266  12.611  14.222   9.605
 3164SOL    HW211267  12.760  14.212   9.579
 3165SOL     OW11268   0.576   1.788   6.132
 3165SOL    HW111269   0.655   1.827   6.170
 3165SOL    HW211270   0.508   1.853   6.147
 3166SOL     OW11271  13.367   9.077  14.698
 3166SOL    HW111272  13.384   9.140  14.768
 3166SOL    HW211273  13.273   9.083  14.683
 3167SOL     OW11274   5.537   5.153  11.094
 3167SOL    HW111275   5.472   5.083  11.088
 3167SOL    HW211276   5.613   5.111  11.135
 3168SOL     OW11277   3.345   3.095   3.199
 3168SOL    HW111278   3.385   3.016   3.235
 3168SOL    HW211279   3.411   3.163   3.213
 3169SOL     OW11280   0.591   3.812   7.209
 3169SOL    HW111281   0.500   3.808   7.182
 3169SOL    HW211282   0.597   3.890   7.264
 3170SOL     OW11283   9.778   9.362   7.110
 3170SOL    HW111284   9.725   9.300   7.059
 3170SOL    HW211285   9.789   9.319   7.195
 3171SOL     OW11286  12.853   9.234  13.955
 3171SOL    HW111287  12.884   9.285  14.030
 3171SOL    HW211288  12.765   9.267  13.939
 3172SOL     OW11289   5.813   8.429   2.135
 3172SOL    HW111290   5.761   8.397   2.062
 3172SOL    HW211291   5.875   8.491   2.097
 3173SOL     OW11292  11.403   4.166   5.184
 3173SOL    HW111293  11.364   4.139   5.101
 3173SOL    HW211294  11.449   4.089   5.217
 3174SOL     OW11295   0.544   6.197  13.427
 3174SOL    HW111296   0.451   6.221  13.427
 3174SOL    HW211297   0.563   6.170  13.517
 3175SOL     OW11298   8.184  12.234   6.829
 3175SOL    HW111299   8.208  12.240   6.737
 3175SOL    HW211300   8.154  12.322   6.851
 3176SOL     OW11301   5.993   9.569  10.882
 3176SOL    HW111302   6.004   9.612  10.797
 3176SOL    HW211303   6.023   9.635  10.945
 3177SOL     OW11304   7.934  11.339  10.287
 3177SOL    HW111305   7.861  11.353  10.347
 3177SOL    HW211306   7.971  11.427  10.273
 3178SOL     OW11307  11.778   1.744   1.788
 3178SOL    HW111308  11.810   1.787   1.868
 3178SOL    HW211309  11.811   1.799   1.717
 3179SOL     OW11310   0.599   4.771   4.711
 3179SOL    HW111311   0.633   4.731   4.792
 3179SOL    HW211312   0.649   4.852   4.702
 3180SOL     OW11313   0.426   4.876   0.665
 3180SOL    HW111314   0.362   4.856   0.597
 3180SOL    HW211315   0.440   4.793   0.710
 3181SOL     OW11316   7.298  12.171  10.477
 3181SOL    HW111317   7.320  12.244  10.535
 3181SOL    HW211318   7.233  12.206  10.417
 3182SOL     OW11319  10.055   5.736   0.497
 3182SOL    HW111320  10.027   5.806   0.437
 3182SOL    HW211321  10.146   5.719   0.474
 3183SOL     OW11322   1.935   8.038   5.702
 3183SOL    HW111323   1.845   8.004   5.700
 3183SOL    HW211324   1.987   7.967   5.738
 3184SOL     OW11325  12.741   9.440   6.358
 3184SOL    HW111326  12.802   9.370   6.335
 3184SOL    HW211327  12.792   9.521   6.347
 3185SOL     OW11328   0.511  10.240   9.674
 3185SOL    HW111329   0.489  10.217   9.584
 3185SOL    HW211330   0.606  10.231   9.678
 3186SOL     OW11331   8.702  11.226   5.997
 3186SOL    HW111332   8.636  11.256   6.059
 3186SOL    HW211333   8.690  11.281   5.920
 3187SOL     OW11334   0.699   3.066   6.775
 3187SOL    HW111335   0.699   3.159   6.794
 3187SOL    HW211336   0.625   3.031   6.825
 3188SOL     OW11337   5.233   0.505   8.818
 3188SOL    HW111338   5.220   0.595   8.848
 3188SOL    HW211339   5.278   0.462   8.890
 3189SOL     OW11340  11.448  12.923  14.636
 3189SOL    HW111341  11.367  12.930  14.686
 3189SOL    HW211342  11.518  12.942  14.699
 3190SOL     OW11343  14.280   1.042  10.556
 3190SOL    HW111344  14.243   1.125  10.525
 3190SOL    HW211345  14.212   1.004  10.611
 3191SOL     OW11346   2.615  11.566   2.905
 3191SOL    HW111347   2.693  11.621   2.914
 3191SOL    HW211348   2.623  11.528   2.817
 3192SOL     OW11349   6.660  14.203  14.625
 3192SOL    HW111350   6.677  14.115  14.593
 3192SOL    HW211351   6.607  14.244  14.557
 3193SOL     OW11352   0.972   9.683   4.765
 3193SOL    HW111353   0.892   9.630   4.768
 3193SOL    HW211354   0.943   9.766   4.726
 3194SOL     OW11355  10.322   9.339  13.486
 3194SOL    HW111356  10.360   9.421  13.457
 3194SOL    HW211357  10.365   9.321  13.570
 3195SOL     OW11358   3.794  13.121   8.436
 3195SOL    HW111359   3.742  13.040   8.435
 3195SOL    HW211360   3.731  13.191   8.418
 3196SOL     OW11361  12.221   6.447   0.823
 3196SOL    HW111362  12.147   6.417   0.771
 3196SOL    HW211363  12.286   6.377   0.816
 3197SOL     OW11364   6.285  10.338   0.117
 3197SOL    HW111365   6.301  10.322   0.210
 3197SOL    HW211366   6.347  10.407   0.093
 3198SOL     OW11367  10.949  13.824   6.554
 3198SOL    HW111368  10.976  13.911   6.524
 3198SOL    HW211369  10.895  13.790   6.483
 3199SOL     OW11370   6.538   3.076   3.810
 3199SOL    HW111371   6.615   3.084   3.753
 3199SOL    HW211372   6.508   3.166   3.823
 3200SOL     OW11373   2.189  12.654   8.602
 3200SOL    HW111374   2.276  12.691   8.584
 3200SOL    HW211375   2.205  12.591   8.672
 3201SOL     OW11376   4.605  12.225   2.919
 3201SOL    HW111377   4.548  12.171   2.974
 3201SOL    HW211378   4.692  12.187   2.929
 3202SOL     OW11379  13.923   7.410   9.469
 3202SOL    HW111380  13.958   7.434   9.554
 3202SOL    HW211381  13.995   7.366   9.424
 3203SOL     OW11382  12.644   4.980   1.211
 3203SOL    HW111383  12.592   5.053   1.244
 3203SOL    HW211384  12.729   5.019   1.189
 3204SOL     OW11385   7.158   7.688  12.986
 3204SOL    HW111386   7.231   7.657  13.038
 3204SOL    HW211387   7.099   7.729  13.049
 3205SOL     OW11388   4.032  12.393   4.603
 3205SOL    HW111389   3.980  12.466   4.637
 3205SOL    HW211390   4.119  12.406   4.641
 3206SOL     OW11391  14.346  14.467  11.512
 3206SOL    HW111392  14.343  14.472  11.416
 3206SOL    HW211393  14.439  14.460  11.532
 3207SOL     OW11394   5.000  10.241   2.923
 3207SOL    HW111395   5.064  10.171   2.909
 3207SOL    HW211396   5.034  10.290   2.998
 3208SOL     OW11397  11.910  12.780   9.782
 3208SOL    HW111398  11.899  12.690   9.753
 3208SOL    HW211399  11.825  12.804   9.819
 3209SOL     OW11400   0.436  12.420   4.809
 3209SOL    HW111401   0.410  12.496   4.861
 3209SOL    HW211402   0.513  12.449   4.760
 3210SOL     OW11403  12.306   8.802   0.893
 3210SOL    HW111404  12.355   8.734   0.847
 3210SOL    HW211405  12.219   8.799   0.854
 3211SOL     OW11406   3.829   5.561   9.762
 3211SOL    HW111407   3.804   5.488   9.818
 3211SOL    HW211408   3.882   5.618   9.818
 3212SOL     OW11409   0.604   4.436   5.730
 3212SOL    HW111410   0.685   4.444   5.781
 3212SOL    HW211411   0.622   4.365   5.668
 3213SOL     OW11412  13.182   3.711   6.771
 3213SOL    HW111413  13.236   3.636   6.798
 3213SOL    HW211414  13.092   3.681   6.783
 3214SOL     OW11415   4.230  13.105   4.263
 3214SOL    HW111416   4.137  13.122   4.252
 3214SOL    HW211417   4.269  13.134   4.180
 3215SOL     OW11418   5.067   0.462   6.937
 3215SOL    HW111419   5.113   0.428   6.860
 3215SOL    HW211420   5.117   0.428   7.011
 3216SOL     OW11421   0.524   5.652   4.806
 3216SOL    HW111422   0.598   5.616   4.757
 3216SOL    HW211423   0.450   5.647   4.745
 3217SOL     OW11424  11.618   0.138  12.461
 3217SOL    HW111425  11.664   0.059  12.489
 3217SOL    HW211426  11.579   0.115  12.376
 3218SOL     OW11427   8.878   1.435   3.044
 3218SOL    HW111428   8.893   1.507   2.984
 3218SOL    HW211429   8.879   1.475   3.131
 3219SOL     OW11430   9.977   1.490   9.030
 3219SOL    HW111431   9.899   1.512   9.080
 3219SOL    HW211432   9.964   1.531   8.944
 3220SOL     OW11433   2.699   0.454   6.926
 3220SOL    HW111434   2.760   0.527   6.921
 3220SOL    HW211435   2.628   0.478   6.866
 3221SOL     OW11436   1.750   4.496   4.266
 3221SOL    HW111437   1.656   4.513   4.276
 3221SOL    HW211438   1.768   4.426   4.329
 3222SOL     OW11439  12.989   0.238   4.519
 3222SOL    HW111440  12.956   0.323   4.548
 3222SOL    HW211441  13.016   0.252   4.429
 3223SOL     OW11442   8.514   6.198  12.647
 3223SOL    HW111443   8.517   6.227  12.739
 3223SOL    HW211444   8.601   6.162  12.630
 3224SOL     OW11445  10.676   9.030  10.320
 3224SOL    HW111446  10.611   9.052  10.253
 3224SOL    HW211447  10.700   9.114  10.360
 3225SOL     OW11448  14.851   6.155  14.433
 3225SOL    HW111449  14.853   6.241  14.475
 3225SOL    HW211450  14.833   6.174  14.341
 3226SOL     OW11451   3.379  11.374   2.589
 3226SOL    HW111452   3.431  11.452   2.572
 3226SOL    HW211453   3.391  11.320   2.511
 3227SOL     OW11454   0.067   2.692   2.393
 3227SOL    HW111455   0.038   2.629   2.326
 3227SOL    HW211456  14.864   2.717   2.438
 3228SOL     OW11457  11.901   4.672   6.029
 3228SOL    HW111458  11.851   4.592   6.044
 3228SOL    HW211459  11.873   4.702   5.942
 3229SOL     OW11460   8.883   8.968  11.934
 3229SOL    HW111461   8.970   9.008  11.934
 3229SOL    HW211462   8.869   8.942  11.844
 3230SOL     OW11463   4.678   5.516   8.884
 3230SOL    HW111464   4.653   5.512   8.792
 3230SOL    HW211465   4.691   5.609   8.902
 3231SOL     OW11466   7.537   1.052   9.574
 3231SOL    HW111467   7.546   1.138   9.615
 3231SOL    HW211468   7.546   1.069   9.481
 3232SOL     OW11469   3.274   8.456  12.128
 3232SOL    HW111470   3.285   8.551  12.125
 3232SOL    HW211471   3.207   8.438  12.062
 3233SOL     OW11472   2.821   8.037  10.937
 3233SOL    HW111473   2.887   8.106  10.940
 3233SOL    HW211474   2.757   8.062  11.003
 3234SOL     OW11475   4.388  13.640  14.602
 3234SOL    HW111476   4.425  13.721  14.638
 3234SOL    HW211477   4.312  13.623  14.657
 3235SOL     OW11478   0.207   8.720   4.575
 3235SOL    HW111479   0.189   8.777   4.500
 3235SOL    HW211480   0.296   8.742   4.601
 3236SOL     OW11481   3.377   4.543   3.784
 3236SOL    HW111482   3.290   4.574   3.760
 3236SOL    HW211483   3.373   4.528   3.878
 3237SOL     OW11484   6.492  11.918  12.818
 3237SOL    HW111485   6.398  11.903  12.828
 3237SOL    HW211486   6.499  11.972  12.739
 3238SOL     OW11487   2.666   0.858   1.549
 3238SOL    HW111488   2.694   0.888   1.462
 3238SOL    HW211489   2.669   0.763   1.543
 3239SOL     OW11490   2.088   6.753  14.829
 3239SOL    HW111491   2.128   6.667  14.822
 3239SOL    HW211492   2.158   6.815  14.808
 3240SOL     OW11493   8.376   1.496   0.236
 3240SOL    HW111494   8.336   1.583   0.235
 3240SOL    HW211495   8.423   1.491   0.319
 3241SOL     OW11496  11.380   6.716  13.860
 3241SOL    HW111497  11.308   6.662  13.893
 3241SOL    HW211498  11.438   6.654  13.815
 3242SOL     OW11499   5.840  13.363   3.687
 3242SOL    HW111500   5.926  13.385   3.723
 3242SOL    HW211501   5.784  13.437   3.709
 3243SOL     OW11502  11.631   6.095  14.170
 3243SOL    HW111503  11.623   6.095  14.074
 3243SOL    HW211504  11.666   6.182  14.191
 3244SOL     OW11505   6.651   1.571   6.337
 3244SOL    HW111506   6.732   1.596   6.292
 3244SOL    HW211507   6.628   1.649   6.388
 3245SOL     OW11508  12.831  10.381   4.709
 3245SOL    HW111509  12.856  10.289   4.698
 3245SOL    HW211510  12.890  10.429   4.650
 3246SOL     OW11511  12.168  12.552   6.342
 3246SOL    HW111512  12.130  12.551   6.430
 3246SOL    HW211513  12.233  12.622   6.345
 3247SOL     OW11514   7.331  10.964   0.034
 3247SOL    HW111515   7.380  10.953  14.831
 3247SOL    HW211516   7.242  10.935   0.012
 3248SOL     OW11517  13.125   9.459   7.639
 3248SOL    HW111518  13.030   9.459   7.622
 3248SOL    HW211519  13.161   9.406   7.567
 3249SOL     OW11520  10.582   6.500   4.441
 3249SOL    HW111521  10.659   6.442   4.447
 3249SOL    HW211522  10.619   6.588   4.436
 3250SOL     OW11523   2.843   2.042   1.103
 3250SOL    HW111524   2.910   2.109   1.092
 3250SOL    HW211525   2.889   1.959   1.089
 3251SOL     OW11526  14.877   3.472  13.905
 3251SOL    HW111527   0.016   3.513  13.990
 3251SOL    HW211528  14.782   3.468  13.899
 3252SOL     OW11529  13.676   4.948  10.197
 3252SOL    HW111530  13.688   4.885  10.126
 3252SOL    HW211531  13.587   4.933  10.227
 3253SOL     OW11532   7.947  11.628  11.262
 3253SOL    HW111533   7.926  11.698  11.199
 3253SOL    HW211534   7.931  11.547  11.213
 3254SOL     OW11535   4.220   4.891   6.580
 3254SOL    HW111536   4.305   4.846   6.573
 3254SOL    HW211537   4.232   4.971   6.529
 3255SOL     OW11538   6.338  14.289  11.873
 3255SOL    HW111539   6.330  14.320  11.963
 3255SOL    HW211540   6.433  14.283  11.857
 3256SOL     OW11541   5.233  14.326  10.749
 3256SOL    HW111542   5.175  14.291  10.817
 3256SOL    HW211543   5.215  14.420  10.749
 3257SOL     OW11544   2.110   4.776  13.277
 3257SOL    HW111545   2.055   4.749  13.350
 3257SOL    HW211546   2.200   4.761  13.308
 3258SOL     OW11547   0.211   1.841   7.697
 3258SOL    HW111548   0.149   1.777   7.661
 3258SOL    HW211549   0.276   1.788   7.742
 3259SOL     OW11550   3.567   3.349   0.416
 3259SOL    HW111551   3.535   3.283   0.355
 3259SOL    HW211552   3.554   3.432   0.370
 3260SOL     OW11553   2.660  11.270   2.384
 3260SOL    HW111554   2.618  11.347   2.422
 3260SOL    HW211555   2.754  11.289   2.391
 3261SOL     OW11556   9.211  12.082   5.036
 3261SOL    HW111557   9.122  12.064   5.006
 3261SOL    HW211558   9.266  12.064   4.959
 3262SOL     OW11559   0.434  12.728   2.710
 3262SOL    HW111560   0.409  12.820   2.721
 3262SOL    HW211561   0.524  12.724   2.742
 3263SOL     OW11562   2.419   6.243  12.519
 3263SOL    HW111563   2.345   6.215  12.573
 3263SOL    HW211564   2.381   6.303  12.455
 3264SOL     OW11565   9.971   5.384   1.886
 3264SOL    HW111566   9.962   5.341   1.801
 3264SOL    HW211567  10.053   5.349   1.921
 3265SOL     OW11568  13.880  13.532   3.607
 3265SOL    HW111569  13.917  13.516   3.520
 3265SOL    HW211570  13.926  13.472   3.665
 3266SOL     OW11571  12.777   4.141   6.306
 3266SOL    HW111572  12.868   4.156   6.282
 3266SOL    HW211573  12.764   4.193   6.385
 3267SOL     OW11574   0.435  11.276  10.698
 3267SOL    HW111575   0.404  11.236  10.616
 3267SOL    HW211576   0.360  11.326  10.730
 3268SOL     OW11577   5.600   7.815   8.740
 3268SOL    HW111578   5.531   7.794   8.678
 3268SOL    HW211579   5.644   7.891   8.702
 3269SOL     OW11580   2.267   3.012   6.124
 3269SOL    HW111581   2.233   3.020   6.213
 3269SOL    HW211582   2.192   3.031   6.067
 3270SOL     OW11583   2.831   1.335   2.279
 3270SOL    HW111584   2.812   1.241   2.280
 3270SOL    HW211585   2.792   1.367   2.198
 3271SOL     OW11586  10.123  12.218   8.064
 3271SOL    HW111587  10.033  12.197   8.089
 3271SOL    HW211588  10.139  12.304   8.102
 3272SOL     OW11589   9.513   6.148   8.152
 3272SOL    HW111590   9.584   6.106   8.202
 3272SOL    HW211591   9.484   6.220   8.207
 3273SOL     OW11592   8.270   8.271   5.374
 3273SOL    HW111593   8.211   8.345   5.387
 3273SOL    HW211594   8.355   8.303   5.405
 3274SOL     OW11595   7.194   7.180  10.548
 3274SOL    HW111596   7.158   7.193  10.636
 3274SOL    HW211597   7.223   7.089  10.548
 3275SOL     OW11598   1.575  11.016  10.399
 3275SOL    HW111599   1.520  10.978  10.468
 3275SOL    HW211600   1.609  11.097  10.437
 3276SOL     OW11601   3.381  14.708   9.577
 3276SOL    HW111602   3.388  14.743   9.488
 3276SOL    HW211603   3.471  14.698   9.606
 3277SOL     OW11604   8.661   3.659   4.147
 3277SOL    HW111605   8.726   3.658   4.217
 3277SOL    HW211606   8.703   3.612   4.075
 3278SOL     OW11607  12.225   2.021  10.509
 3278SOL    HW111608  12.206   2.015  10.602
 3278SOL    HW211609  12.268   1.937  10.488
 3279SOL     OW11610   4.428   8.858  11.485
 3279SOL    HW111611   4.332   8.855  11.492
 3279SOL    HW211612   4.454   8.925  11.547
 3280SOL     OW11613   0.789   8.046   8.340
 3280SOL    HW111614   0.839   8.060   8.421
 3280SOL    HW211615   0.754   7.958   8.349
 3281SOL     OW11616   8.733   2.386  12.643
 3281SOL    HW111617   8.676   2.448  12.597
 3281SOL    HW211618   8.760   2.432  12.722
 3282SOL     OW11619   6.469  13.463   1.659
 3282SOL    HW111620   6.550  13.461   1.710
 3282SOL    HW211621   6.475  13.543   1.607
 3283SOL     OW11622   6.924  12.703  10.855
 3283SOL    HW111623   6.982  12.779  10.849
 3283SOL    HW211624   6.980  12.629  10.832
 3284SOL     OW11625   4.139   9.823   0.771
 3284SOL    HW111626   4.163   9.815   0.863
 3284SOL    HW211627   4.210   9.873   0.731
 3285SOL     OW11628   4.328   3.170  14.838
 3285SOL    HW111629   4.302   3.083  14.869
 3285SOL    HW211630   4.412   3.186   0.003
 3286SOL     OW11631   0.874   5.869   8.043
 3286SOL    HW111632   0.937   5.830   7.982
 3286SOL    HW211633   0.926   5.895   8.119
 3287SOL     OW11634  11.303  10.963   2.519
 3287SOL    HW111635  11.349  10.959   2.603
 3287SOL    HW211636  11.268  10.875   2.507
 3288SOL     OW11637  14.348   3.510   8.727
 3288SOL    HW111638  14.279   3.445   8.714
 3288SOL    HW211639  14.421   3.478   8.674
 3289SOL     OW11640   2.079  14.100   2.526
 3289SOL    HW111641   2.014  14.056   2.580
 3289SOL    HW211642   2.042  14.098   2.437
 3290SOL     OW11643   3.264   1.771  13.297
 3290SOL    HW111644   3.184   1.723  13.318
 3290SOL    HW211645   3.235   1.862  13.288
 3291SOL     OW11646   0.414   6.778   0.498
 3291SOL    HW111647   0.422   6.710   0.431
 3291SOL    HW211648   0.504   6.812   0.508
 3292SOL     OW11649  12.420   3.186   2.892
 3292SOL    HW111650  12.326   3.189   2.874
 3292SOL    HW211651  12.426   3.134   2.972
 3293SOL     OW11652   2.279   4.965  10.046
 3293SOL    HW111653   2.266   5.059  10.058
 3293SOL    HW211654   2.244   4.946   9.959
 3294SOL     OW11655  10.003   8.645   2.057
 3294SOL    HW111656  10.071   8.712   2.054
 3294SOL    HW211657  10.009   8.599   1.974
 3295SOL     OW11658   4.927   2.831  12.580
 3295SOL    HW111659   4.962   2.871  12.659
 3295SOL    HW211660   4.944   2.895  12.511
 3296SOL     OW11661   6.541   5.411   6.019
 3296SOL    HW111662   6.631   5.444   6.025
 3296SOL    HW211663   6.489   5.488   5.998
 3297SOL     OW11664  11.313  14.649   8.763
 3297SOL    HW111665  11.298  14.720   8.825
 3297SOL    HW211666  11.363  14.689   8.692
 3298SOL     OW11667   3.088  12.511   2.149
 3298SOL    HW111668   2.996  12.488   2.159
 3298SOL    HW211669   3.102  12.515   2.055
 3299SOL     OW11670   6.820   0.578   4.454
 3299SOL    HW111671   6.860   0.555   4.539
 3299SOL    HW211672   6.880   0.642   4.417
 3300SOL     OW11673   1.491  13.811  10.752
 3300SOL    HW111674   1.529  13.842  10.669
 3300SOL    HW211675   1.474  13.718  10.738
 3301SOL     OW11676  12.603   1.226   7.785
 3301SOL    HW111677  12.604   1.165   7.711
 3301SOL    HW211678  12.660   1.298   7.757
 3302SOL     OW11679   7.637   1.196  12.522
 3302SOL    HW111680   7.664   1.112  12.485
 3302SOL    HW211681   7.699   1.212  12.594
 3303SOL     OW11682  14.149   2.159  12.505
 3303SOL    HW111683  14.137   2.098  12.432
 3303SOL    HW211684  14.243   2.178  12.504
 3304SOL     OW11685   4.556   3.811   5.650
 3304SOL    HW111686   4.611   3.860   5.589
 3304SOL    HW211687   4.602   3.729   5.664
 3305SOL     OW11688  11.222   8.643   3.803
 3305SOL    HW111689  11.292   8.696   3.842
 3305SOL    HW211690  11.242   8.553   3.829
 3306SOL     OW11691   5.778  11.894  10.290
 3306SOL    HW111692   5.701  11.915  10.237
 3306SOL    HW211693   5.788  11.969  10.348
 3307SOL     OW11694   1.864   7.725   0.532
 3307SOL    HW111695   1.918   7.671   0.589
 3307SOL    HW211696   1.907   7.810   0.532
 3308SOL     OW11697   1.363   7.599  12.916
 3308SOL    HW111698   1.338   7.573  13.004
 3308SOL    HW211699   1.381   7.692  12.922
 3309SOL     OW11700  14.421   8.657   8.191
 3309SOL    HW111701  14.378   8.682   8.272
 3309SOL    HW211702  14.445   8.740   8.149
 3310SOL     OW11703  13.429   5.191   2.872
 3310SOL    HW111704  13.522   5.183   2.849
 3310SOL    HW211705  13.409   5.112   2.921
 3311SOL     OW11706   3.168   6.649  12.452
 3311SOL    HW111707   3.080   6.646  12.490
 3311SOL    HW211708   3.181   6.740  12.426
 3312SOL     OW11709   2.403  14.839   0.094
 3312SOL    HW111710   2.358  14.786   0.160
 3312SOL    HW211711   2.493  14.808   0.096
 3313SOL     OW11712  10.408   9.733  10.483
 3313SOL    HW111713  10.498   9.759  10.506
 3313SOL    HW211714  10.399   9.644  10.519
 3314SOL     OW11715   8.616  13.372   4.918
 3314SOL    HW111716   8.667  13.448   4.892
 3314SOL    HW211717   8.577  13.397   5.002
 3315SOL     OW11718  12.780   6.106  14.841
 3315SOL    HW111719  12.744   6.105  14.752
 3315SOL    HW211720  12.706   6.082   0.019
 3316SOL     OW11721  11.632  12.810   0.119
 3316SOL    HW111722  11.703  12.831   0.179
 3316SOL    HW211723  11.553  12.818   0.172
 3317SOL     OW11724  13.211  14.201  13.591
 3317SOL    HW111725  13.225  14.276  13.648
 3317SOL    HW211726  13.209  14.126  13.650
 3318SOL     OW11727   7.266   2.899   2.558
 3318SOL    HW111728   7.192   2.917   2.616
 3318SOL    HW211729   7.256   2.961   2.486
 3319SOL     OW11730   7.714  13.815   5.258
 3319SOL    HW111731   7.806  13.791   5.241
 3319SOL    HW211732   7.707  13.821   5.353
 3320SOL     OW11733  11.899  14.775   2.079
 3320SOL    HW111734  11.919  14.685   2.105
 3320SOL    HW211735  11.906  14.776   1.984
 3321SOL     OW11736  14.706   9.558   7.303
 3321SOL    HW111737  14.736   9.597   7.221
 3321SOL    HW211738  14.787   9.541   7.352
 3322SOL     OW11739  14.791   9.395   7.669
 3322SOL    HW111740  14.842   9.456   7.722
 3322SOL    HW211741  14.719   9.368   7.725
 3323SOL     OW11742  11.377   9.394  14.367
 3323SOL    HW111743  11.299   9.340  14.380
 3323SOL    HW211744  11.346   9.484  14.370
 3324SOL     OW11745   3.915   5.891   4.504
 3324SOL    HW111746   4.002   5.870   4.470
 3324SOL    HW211747   3.854   5.858   4.438
 3325SOL     OW11748  10.285   1.068  11.390
 3325SOL    HW111749  10.315   0.991  11.342
 3325SOL    HW211750  10.332   1.141  11.350
 3326SOL     OW11751   5.090   4.747   4.422
 3326SOL    HW111752   5.184   4.759   4.435
 3326SOL    HW211753   5.062   4.821   4.369
 3327SOL     OW11754  10.657   0.826  11.367
 3327SOL    HW111755  10.700   0.882  11.303
 3327SOL    HW211756  10.728   0.782  11.412
 3328SOL     OW11757  11.795   2.539   8.289
 3328SOL    HW111758  11.742   2.618   8.300
 3328SOL    HW211759  11.735   2.467   8.308
 3329SOL     OW11760  12.576   2.022   2.745
 3329SOL    HW111761  12.656   2.042   2.793
 3329SOL    HW211762  12.603   2.021   2.653
 3330SOL     OW11763  10.705   9.268   2.462
 3330SOL    HW111764  10.730   9.176   2.450
 3330SOL    HW211765  10.786   9.313   2.484
 3331SOL     OW11766   7.774   3.576   4.218
 3331SOL    HW111767   7.741   3.572   4.128
 3331SOL    HW211768   7.712   3.524   4.268
 3332SOL     OW11769   9.809   5.444  14.793
 3332SOL    HW111770   9.718   5.459  14.769
 3332SOL    HW211771   9.806   5.416   0.006
 3333SOL     OW11772  11.746  14.212  12.080
 3333SOL    HW111773  11.668  14.199  12.134
 3333SOL    HW211774  11.816  14.165  12.126
 3334SOL     OW11775   3.155   3.590  11.141
 3334SOL    HW111776   3.234   3.643  11.132
 3334SOL    HW211777   3.174   3.511  11.090
 3335SOL     OW11778   5.896   5.080   8.205
 3335SOL    HW111779   5.893   5.039   8.291
 3335SOL    HW211780   5.986   5.067   8.176
 3336SOL     OW11781  10.113   2.352  12.158
 3336SOL    HW111782  10.101   2.385  12.069
 3336SOL    HW211783  10.121   2.257  12.147
 3337SOL     OW11784   4.674   8.866   6.973
 3337SOL    HW111785   4.766   8.878   6.952
 3337SOL    HW211786   4.635   8.953   6.962
 3338SOL     OW11787  10.969  14.239   1.985
 3338SOL    HW111788  10.893  14.183   1.973
 3338SOL    HW211789  10.946  14.321   1.943
 3339SOL     OW11790   2.374   7.229   5.761
 3339SOL    HW111791   2.357   7.212   5.853
 3339SOL    HW211792   2.468   7.248   5.757
 3340SOL     OW11793  11.753   6.102   2.952
 3340SOL    HW111794  11.704   6.116   3.033
 3340SOL    HW211795  11.701   6.038   2.903
 3341SOL     OW11796   5.976  13.625   0.787
 3341SOL    HW111797   5.892  13.579   0.782
 3341SOL    HW211798   5.953  13.714   0.811
 3342SOL     OW11799   7.869   0.711   8.726
 3342SOL    HW111800   7.872   0.767   8.648
 3342SOL    HW211801   7.942   0.650   8.713
 3343SOL     OW11802  12.078  12.441   3.175
 3343SOL    HW111803  12.079  12.349   3.150
 3343SOL    HW211804  12.060  12.441   3.269
 3344SOL     OW11805  12.771  13.708   1.010
 3344SOL    HW111806  12.714  13.781   0.985
 3344SOL    HW211807  12.803  13.732   1.097
 3345SOL     OW11808   6.224  11.225   8.446
 3345SOL    HW111809   6.261  11.229   8.358
 3345SOL    HW211810   6.186  11.137   8.452
 3346SOL     OW11811   4.596  10.463   3.982
 3346SOL    HW111812   4.611  10.470   4.076
 3346SOL    HW211813   4.525  10.399   3.974
 3347SOL     OW11814   5.962  10.160   1.544
 3347SOL    HW111815   5.919  10.178   1.628
 3347SOL    HW211816   5.898  10.108   1.495
 3348SOL     OW11817   6.299   1.712  13.446
 3348SOL    HW111818   6.326   1.728  13.356
 3348SOL    HW211819   6.382   1.704  13.494
 3349SOL     OW11820  10.524   6.698  11.348
 3349SOL    HW111821  10.518   6.618  11.295
 3349SOL    HW211822  10.434   6.730  11.353
 3350SOL     OW11823  10.490   0.595   4.201
 3350SOL    HW111824  10.554   0.568   4.134
 3350SOL    HW211825  10.543   0.629   4.273
 3351SOL     OW11826  14.249   9.410   2.772
 3351SOL    HW111827  14.211   9.417   2.685
 3351SOL    HW211828  14.254   9.501   2.803
 3352SOL     OW11829  11.526   2.993  13.788
 3352SOL    HW111830  11.569   3.001  13.874
 3352SOL    HW211831  11.598   2.985  13.726
 3353SOL     OW11832   6.801   8.699  12.028
 3353SOL    HW111833   6.715   8.658  12.039
 3353SOL    HW211834   6.814   8.702  11.933
 3354SOL     OW11835   5.459  10.320   6.783
 3354SOL    HW111836   5.472  10.339   6.876
 3354SOL    HW211837   5.364  10.308   6.774
 3355SOL     OW11838  14.120  12.160   9.548
 3355SOL    HW111839  14.179  12.152   9.623
 3355SOL    HW211840  14.170  12.123   9.475
 3356SOL     OW11841   8.154  13.533   1.265
 3356SOL    HW111842   8.112  13.598   1.322
 3356SOL    HW211843   8.142  13.567   1.176
 3357SOL     OW11844  12.912   5.912  14.288
 3357SOL    HW111845  12.901   5.818  14.274
 3357SOL    HW211846  12.823   5.947  14.292
 3358SOL     OW11847   7.818   5.937   1.116
 3358SOL    HW111848   7.837   5.858   1.066
 3358SOL    HW211849   7.752   5.983   1.064
 3359SOL     OW11850   1.295   7.559   0.958
 3359SOL    HW111851   1.384   7.525   0.967
 3359SOL    HW211852   1.243   7.483   0.932
 3360SOL     OW11853   2.167  13.258   0.937
 3360SOL    HW111854   2.192  13.222   0.852
 3360SOL    HW211855   2.205  13.346   0.939
 3361SOL     OW11856   5.673  11.918   3.824
 3361SOL    HW111857   5.676  11.881   3.912
 3361SOL    HW211858   5.761  11.903   3.789
 3362SOL     OW11859   0.634   9.331   4.938
 3362SOL    HW111860   0.557   9.287   4.901
 3362SOL    HW211861   0.672   9.265   4.996
 3363SOL     OW11862   4.911   1.880   2.996
 3363SOL    HW111863   4.910   1.818   2.922
 3363SOL    HW211864   4.899   1.965   2.955
 3364SOL     OW11865   7.523   2.357   1.947
 3364SOL    HW111866   7.565   2.271   1.942
 3364SOL    HW211867   7.504   2.379   1.856
 3365SOL     OW11868   1.419   0.671   4.258
 3365SOL    HW111869   1.423   0.765   4.276
 3365SOL    HW211870   1.450   0.630   4.338
 3366SOL     OW11871   1.162  13.165   8.739
 3366SOL    HW111872   1.095  13.102   8.711
 3366SOL    HW211873   1.142  13.182   8.831
 3367SOL     OW11874   0.462  11.204   9.199
 3367SOL    HW111875   0.447  11.109   9.204
 3367SOL    HW211876   0.508  11.225   9.280
 3368SOL     OW11877   1.941  11.902   6.812
 3368SOL    HW111878   1.926  11.846   6.736
 3368SOL    HW211879   1.859  11.900   6.860
 3369SOL     OW11880   6.313  13.929   1.878
 3369SOL    HW111881   6.284  13.959   1.792
 3369SOL    HW211882   6.399  13.968   1.889
 3370SOL     OW11883  13.661   4.524   9.618
 3370SOL    HW111884  13.705   4.540   9.534
 3370SOL    HW211885  13.683   4.601   9.671
 3371SOL     OW11886   5.637   1.540  10.119
 3371SOL    HW111887   5.726   1.510  10.134
 3371SOL    HW211888   5.593   1.467  10.076
 3372SOL     OW11889   7.834   0.176   9.614
 3372SOL    HW111890   7.928   0.191   9.626
 3372SOL    HW211891   7.794   0.209   9.695
 3373SOL     OW11892   2.323   9.506   9.903
 3373SOL    HW111893   2.353   9.578   9.958
 3373SOL    HW211894   2.307   9.434   9.964
 3374SOL     OW11895   1.750   8.676   1.573
 3374SOL    HW111896   1.807   8.747   1.545
 3374SOL    HW211897   1.748   8.616   1.499
 3375SOL     OW11898   5.477   6.312   0.270
 3375SOL    HW111899   5.561   6.273   0.295
 3375SOL    HW211900   5.422   6.301   0.348
 3376SOL     OW11901  12.416   1.278  11.670
 3376SOL    HW111902  12.451   1.367  11.664
 3376SOL    HW211903  12.450   1.245  11.753
 3377SOL     OW11904  14.029  11.267   5.416
 3377SOL    HW111905  13.979  11.345   5.440
 3377SOL    HW211906  13.978  11.225   5.347
 3378SOL     OW11907  14.318   8.320   8.826
 3378SOL    HW111908  14.245   8.286   8.878
 3378SOL    HW211909  14.306   8.415   8.827
 3379SOL     OW11910   3.719   8.574   6.182
 3379SOL    HW111911   3.764   8.513   6.123
 3379SOL    HW211912   3.632   8.586   6.142
 3380SOL     OW11913  10.634   4.249   0.722
 3380SOL    HW111914  10.671   4.309   0.657
 3380SOL    HW211915  10.649   4.293   0.806
 3381SOL     OW11916   3.063  13.414   3.838
 3381SOL    HW111917   3.018  13.411   3.923
 3381SOL    HW211918   3.156  13.412   3.861
 3382SOL     OW11919  13.745  10.748   2.474
 3382SOL    HW111920  13.723  10.801   2.551
 3382SOL    HW211921  13.841  10.745   2.475
 3383SOL     OW11922   1.470  13.722   3.022
 3383SOL    HW111923   1.519  13.641   3.009
 3383SOL    HW211924   1.452  13.724   3.116
 3384SOL     OW11925   0.333  11.570   5.255
 3384SOL    HW111926   0.399  11.619   5.306
 3384SOL    HW211927   0.369  11.566   5.167
 3385SOL     OW11928  12.314   4.181  10.446
 3385SOL    HW111929  12.273   4.159  10.362
 3385SOL    HW211930  12.329   4.275  10.441
 3386SOL     OW11931   0.915   0.018  10.076
 3386SOL    HW111932   0.843  14.862  10.022
 3386SOL    HW211933   0.931  14.827  10.141
 3387SOL     OW11934  14.070  13.695   6.690
 3387SOL    HW111935  14.087  13.711   6.783
 3387SOL    HW211936  14.156  13.672   6.654
 3388SOL     OW11937  14.431   5.988   6.501
 3388SOL    HW111938  14.421   5.911   6.445
 3388SOL    HW211939  14.405   6.061   6.446
 3389SOL     OW11940   2.465   0.678   1.021
 3389SOL    HW111941   2.376   0.647   1.003
 3389SOL    HW211942   2.469   0.688   1.116
 3390SOL     OW11943  14.249  11.928   6.635
 3390SOL    HW111944  14.273  11.852   6.688
 3390SOL    HW211945  14.290  11.913   6.550
 3391SOL     OW11946   7.490  11.368   3.379
 3391SOL    HW111947   7.537  11.434   3.327
 3391SOL    HW211948   7.505  11.286   3.332
 3392SOL     OW11949  12.523  11.147   3.498
 3392SOL    HW111950  12.462  11.140   3.424
 3392SOL    HW211951  12.599  11.192   3.461
 3393SOL     OW11952   6.240  13.460  11.582
 3393SOL    HW111953   6.166  13.408  11.614
 3393SOL    HW211954   6.211  13.493  11.497
 3394SOL     OW11955  13.717   6.680  12.441
 3394SOL    HW111956  13.644   6.693  12.381
 3394SOL    HW211957  13.713   6.587  12.463
 3395SOL     OW11958  11.990  10.018  10.434
 3395SOL    HW111959  11.921   9.989  10.494
 3395SOL    HW211960  11.959   9.991  10.347
 3396SOL     OW11961   8.206   5.339   9.377
 3396SOL    HW111962   8.250   5.272   9.324
 3396SOL    HW211963   8.135   5.371   9.321
 3397SOL     OW11964  14.674   5.667  10.973
 3397SOL    HW111965  14.641   5.747  11.014
 3397SOL    HW211966  14.676   5.687  10.879
 3398SOL     OW11967  12.074  14.002  14.584
 3398SOL    HW111968  12.138  14.014  14.514
 3398SOL    HW211969  12.056  13.907  14.584
 3399SOL     OW11970  10.201   8.796   3.354
 3399SOL    HW111971  10.152   8.715   3.370
 3399SOL    HW211972  10.197   8.843   3.437
 3400SOL     OW11973  12.957   0.366   7.639
 3400SOL    HW111974  12.924   0.285   7.600
 3400SOL    HW211975  13.002   0.337   7.718
 3401SOL     OW11976   5.997   9.728   4.523
 3401SOL    HW111977   6.000   9.824   4.528
 3401SOL    HW211978   6.015   9.709   4.430
 3402SOL     OW11979   2.937   2.046  14.201
 3402SOL    HW111980   2.915   2.016  14.113
 3402SOL    HW211981   2.873   2.002  14.258
 3403SOL     OW11982  10.323   9.582   4.383
 3403SOL    HW111983  10.338   9.504   4.330
 3403SOL    HW211984  10.230   9.577   4.407
 3404SOL     OW11985   1.433   8.324   1.775
 3404SOL    HW111986   1.341   8.337   1.800
 3404SOL    HW211987   1.455   8.402   1.725
 3405SOL     OW11988   4.915   9.756   1.843
 3405SOL    HW111989   4.871   9.741   1.759
 3405SOL    HW211990   4.891   9.846   1.866
 3406SOL     OW11991   2.161   2.799   5.557
 3406SOL    HW111992   2.152   2.887   5.519
 3406SOL    HW211993   2.079   2.785   5.604
 3407SOL     OW11994   9.694   6.155   0.794
 3407SOL    HW111995   9.708   6.062   0.776
 3407SOL    HW211996   9.715   6.199   0.712
 3408SOL     OW11997   4.643  10.890  13.564
 3408SOL    HW111998   4.620  10.982  13.552
 3408SOL    HW211999   4.703  10.871  13.492
 3409SOL     OW12000   6.123   3.149   3.950
 3409SOL    HW112001   6.191   3.139   3.884
 3409SOL    HW212002   6.068   3.071   3.942
 3410SOL     OW12003   8.025  13.934   9.504
 3410SOL    HW112004   7.976  13.945   9.423
 3410SOL    HW212005   8.113  13.965   9.484
 3411SOL     OW12006   5.784   1.608   5.890
 3411SOL    HW112007   5.757   1.700   5.883
 3411SOL    HW212008   5.705   1.562   5.918
 3412SOL     OW12009  12.858  13.055  14.612
 3412SOL    HW112010  12.817  13.028  14.695
 3412SOL    HW212011  12.876  12.973  14.566
 3413SOL     OW12012   2.399   9.496   9.169
 3413SOL    HW112013   2.420   9.530   9.082
 3413SOL    HW212014   2.483   9.472   9.207
 3414SOL     OW12015   1.881  11.206   2.367
 3414SOL    HW112016   1.912  11.291   2.334
 3414SOL    HW212017   1.955  11.147   2.353
 3415SOL     OW12018  13.353   7.176   5.657
 3415SOL    HW112019  13.309   7.197   5.575
 3415SOL    HW212020  13.404   7.097   5.636
 3416SOL     OW12021   4.247   7.876  12.221
 3416SOL    HW112022   4.180   7.821  12.261
 3416SOL    HW212023   4.322   7.869  12.280
 3417SOL     OW12024   5.573   2.927   5.837
 3417SOL    HW112025   5.665   2.944   5.816
 3417SOL    HW212026   5.560   2.835   5.814
 3418SOL     OW12027   9.413   4.293  13.220
 3418SOL    HW112028   9.461   4.322  13.142
 3418SOL    HW212029   9.335   4.250  13.184
 3419SOL     OW12030   8.002  10.680   3.851
 3419SOL    HW112031   8.052  10.601   3.871
 3419SOL    HW212032   7.950  10.695   3.930
 3420SOL     OW12033   6.391   5.452  13.881
 3420SOL    HW112034   6.442   5.532  13.873
 3420SOL    HW212035   6.306   5.481  13.914
 3421SOL     OW12036  11.596   6.006  12.783
 3421SOL    HW112037  11.597   5.923  12.736
 3421SOL    HW212038  11.670   6.001  12.843
 3422SOL     OW12039  12.353   6.345   3.582
 3422SOL    HW112040  12.347   6.439   3.597
 3422SOL    HW212041  12.436   6.319   3.623
 3423SOL     OW12042   6.004   0.759   4.985
 3423SOL    HW112043   6.087   0.713   4.992
 3423SOL    HW212044   6.023   0.834   4.927
 3424SOL     OW12045   4.918  14.378   1.030
 3424SOL    HW112046   4.841  14.324   1.013
 3424SOL    HW212047   4.985  14.343   0.970
 3425SOL     OW12048   7.621  11.160  11.087
 3425SOL    HW112049   7.673  11.079  11.086
 3425SOL    HW212050   7.550  11.144  11.025
 3426SOL     OW12051   2.660  14.445  14.089
 3426SOL    HW112052   2.569  14.436  14.062
 3426SOL    HW212053   2.706  14.375  14.043
 3427SOL     OW12054  10.405   0.912  14.526
 3427SOL    HW112055  10.343   0.932  14.456
 3427SOL    HW212056  10.395   0.817  14.540
 3428SOL     OW12057   4.093  10.354  10.626
 3428SOL    HW112058   4.050  10.283  10.578
 3428SOL    HW212059   4.137  10.405  10.558
 3429SOL     OW12060  12.288  14.548   8.140
 3429SOL    HW112061  12.320  14.512   8.058
 3429SOL    HW212062  12.267  14.472   8.194
 3430SOL     OW12063   3.591  10.909   0.714
 3430SOL    HW112064   3.666  10.952   0.756
 3430SOL    HW212065   3.535  10.883   0.787
 3431SOL     OW12066   0.024  12.497  13.643
 3431SOL    HW112067  14.831  12.456  13.692
 3431SOL    HW212068  14.861  12.529  13.563
 3432SOL     OW12069  12.097  10.313  11.298
 3432SOL    HW112070  12.160  10.294  11.228
 3432SOL    HW212071  12.034  10.372  11.259
 3433SOL     OW12072   5.619   4.241   8.969
 3433SOL    HW112073   5.629   4.324   9.016
 3433SOL    HW212074   5.592   4.267   8.881
 3434SOL     OW12075   3.365  10.280  11.794
 3434SOL    HW112076   3.369  10.205  11.735
 3434SOL    HW212077   3.436  10.337  11.764
 3435SOL     OW12078   7.330   6.827   2.155
 3435SOL    HW112079   7.405   6.803   2.209
 3435SOL    HW212080   7.295   6.743   2.124
 3436SOL     OW12081  13.941  10.590   4.590
 3436SOL    HW112082  13.878  10.638   4.537
 3436SOL    HW212083  13.905  10.591   4.678
 3437SOL     OW12084   0.971  14.595   1.474
 3437SOL    HW112085   0.975  14.668   1.535
 3437SOL    HW212086   0.955  14.519   1.529
 3438SOL     OW12087   4.064  14.714   2.529
 3438SOL    HW112088   4.142  14.746   2.573
 3438SOL    HW212089   3.995  14.719   2.595
 3439SOL     OW12090   9.466  12.509  10.525
 3439SOL    HW112091   9.388  12.513  10.580
 3439SOL    HW212092   9.506  12.425  10.547
 3440SOL     OW12093   1.702   0.666   1.471
 3440SOL    HW112094   1.642   0.687   1.543
 3440SOL    HW212095   1.766   0.737   1.472
 3441SOL     OW12096   1.976   6.447  11.976
 3441SOL    HW112097   1.928   6.369  11.950
 3441SOL    HW212098   1.989   6.437  12.070
 3442SOL     OW12099   8.399  14.268   1.720
 3442SOL    HW112100   8.308  14.288   1.740
 3442SOL    HW212101   8.421  14.327   1.648
 3443SOL     OW12102   0.567   0.741  14.529
 3443SOL    HW112103   0.500   0.802  14.560
 3443SOL    HW212104   0.647   0.793  14.525
 3444SOL     OW12105  12.559   6.579  11.980
 3444SOL    HW112106  12.468   6.551  11.973
 3444SOL    HW212107  12.582   6.609  11.892
 3445SOL     OW12108  13.709  13.153   2.595
 3445SOL    HW112109  13.802  13.172   2.605
 3445SOL    HW212110  13.667  13.194   2.671
 3446SOL     OW12111   4.360  11.772  12.515
 3446SOL    HW112112   4.303  11.709  12.559
 3446SOL    HW212113   4.323  11.857  12.538
 3447SOL     OW12114  10.080   7.584   1.830
 3447SOL    HW112115  10.151   7.546   1.780
 3447SOL    HW212116  10.121   7.654   1.882
 3448SOL     OW12117  14.599   1.080   9.415
 3448SOL    HW112118  14.596   1.012   9.483
 3448SOL    HW212119  14.675   1.057   9.362
 3449SOL     OW12120   9.267   8.711  10.948
 3449SOL    HW112121   9.350   8.753  10.925
 3449SOL    HW212122   9.268   8.628  10.901
 3450SOL     OW12123   5.995  12.867   3.811
 3450SOL    HW112124   6.032  12.896   3.727
 3450SOL    HW212125   6.024  12.777   3.820
 3451SOL     OW12126   7.279  14.171  13.282
 3451SOL    HW112127   7.374  14.178  13.287
 3451SOL    HW212128   7.261  14.148  13.190
 3452SOL     OW12129   9.935  11.693  14.087
 3452SOL    HW112130  10.022  11.731  14.093
 3452SOL    HW212131   9.944  11.607  14.128
 3453SOL     OW12132   0.974   8.323  14.844
 3453SOL    HW112133   0.936   8.402  14.807
 3453SOL    HW212134   1.065   8.346  14.864
 3454SOL     OW12135  10.061   2.951   5.033
 3454SOL    HW112136  10.075   3.018   5.100
 3454SOL    HW212137   9.966   2.943   5.026
 3455SOL     OW12138  11.400   8.139   2.835
 3455SOL    HW112139  11.469   8.073   2.834
 3455SOL    HW212140  11.352   8.123   2.916
 3456SOL     OW12141  14.549  11.743   4.644
 3456SOL    HW112142  14.499  11.730   4.564
 3456SOL    HW212143  14.504  11.689   4.709
 3457SOL     OW12144   8.559   9.078   5.819
 3457SOL    HW112145   8.493   9.041   5.760
 3457SOL    HW212146   8.619   9.006   5.836
 3458SOL     OW12147  11.885   4.933   9.744
 3458SOL    HW112148  11.822   4.890   9.802
 3458SOL    HW212149  11.842   5.015   9.719
 3459SOL     OW12150   2.890   5.814   4.929
 3459SOL    HW112151   2.914   5.868   4.853
 3459SOL    HW212152   2.892   5.874   5.003
 3460SOL     OW12153   5.054   4.392  11.503
 3460SOL    HW112154   4.968   4.384  11.543
 3460SOL    HW212155   5.054   4.479  11.463
 3461SOL     OW12156   0.684   0.589   7.374
 3461SOL    HW112157   0.656   0.556   7.460
 3461SOL    HW212158   0.631   0.668   7.360
 3462SOL     OW12159   0.545   0.944   2.188
 3462SOL    HW112160   0.514   0.921   2.275
 3462SOL    HW212161   0.511   1.032   2.173
 3463SOL     OW12162   8.146  10.670   4.996
 3463SOL    HW112163   8.197  10.697   4.920
 3463SOL    HW212164   8.202  10.691   5.071
 3464SOL     OW12165   5.971  11.617   4.461
 3464SOL    HW112166   6.055  11.613   4.507
 3464SOL    HW212167   5.987  11.572   4.379
 3465SOL     OW12168  12.451  14.416  11.416
 3465SOL    HW112169  12.515  14.381  11.354
 3465SOL    HW212170  12.385  14.459  11.362
 3466SOL     OW12171   1.397  10.959  10.584
 3466SOL    HW112172   1.348  11.042  10.585
 3466SOL    HW212173   1.391  10.927  10.674
 3467SOL     OW12174   2.648   2.737   2.908
 3467SOL    HW112175   2.598   2.656   2.895
 3467SOL    HW212176   2.736   2.707   2.932
 3468SOL     OW12177  10.557   1.010   5.988
 3468SOL    HW112178  10.588   0.987   6.075
 3468SOL    HW212179  10.464   1.027   5.999
 3469SOL     OW12180   0.131   8.168   6.654
 3469SOL    HW112181   0.132   8.168   6.750
 3469SOL    HW212182   0.206   8.222   6.629
 3470SOL     OW12183   1.696   4.381  10.856
 3470SOL    HW112184   1.649   4.389  10.939
 3470SOL    HW212185   1.663   4.299  10.817
 3471SOL     OW12186   1.485   5.875  14.182
 3471SOL    HW112187   1.545   5.946  14.206
 3471SOL    HW212188   1.436   5.910  14.107
 3472SOL     OW12189  14.451   3.642   9.784
 3472SOL    HW112190  14.486   3.640   9.873
 3472SOL    HW212191  14.375   3.584   9.786
 3473SOL     OW12192   9.389  10.760   3.754
 3473SOL    HW112193   9.396  10.667   3.732
 3473SOL    HW212194   9.372  10.804   3.671
 3474SOL     OW12195   1.200  14.559  12.523
 3474SOL    HW112196   1.186  14.632  12.584
 3474SOL    HW212197   1.152  14.584  12.444
 3475SOL     OW12198   1.310   9.414   3.274
 3475SOL    HW112199   1.399   9.442   3.295
 3475SOL    HW212200   1.321   9.346   3.207
 3476SOL     OW12201   2.957   8.079   3.649
 3476SOL    HW112202   2.909   8.000   3.625
 3476SOL    HW212203   3.006   8.102   3.571
 3477SOL     OW12204   8.686  13.724   2.632
 3477SOL    HW112205   8.774  13.708   2.665
 3477SOL    HW212206   8.629  13.700   2.705
 3478SOL     OW12207  12.081   6.508   6.601
 3478SOL    HW112208  12.071   6.413   6.599
 3478SOL    HW212209  12.133   6.529   6.523
 3479SOL     OW12210   0.801   2.029   0.681
 3479SOL    HW112211   0.835   1.998   0.597
 3479SOL    HW212212   0.706   2.020   0.673
 3480SOL     OW12213   6.449  12.087  12.064
 3480SOL    HW112214   6.498  12.078  11.982
 3480SOL    HW212215   6.510  12.128  12.125
 3481SOL     OW12216  12.000   8.632   6.549
 3481SOL    HW112217  11.928   8.579   6.583
 3481SOL    HW212218  11.960   8.687   6.481
 3482SOL     OW12219   7.165   1.101   3.739
 3482SOL    HW112220   7.180   1.141   3.824
 3482SOL    HW212221   7.076   1.127   3.715
 3483SOL     OW12222  12.689   3.826   4.461
 3483SOL    HW112223  12.781   3.806   4.474
 3483SOL    HW212224  12.688   3.888   4.388
 3484SOL     OW12225   9.121   5.194   4.485
 3484SOL    HW112226   9.196   5.252   4.495
 3484SOL    HW212227   9.150   5.110   4.521
 3485SOL     OW12228   0.412   9.529   4.141
 3485SOL    HW112229   0.460   9.608   4.165
 3485SOL    HW212230   0.333   9.561   4.098
 3486SOL     OW12231   0.962   1.977  11.392
 3486SOL    HW112232   0.921   2.048  11.440
 3486SOL    HW212233   1.050   1.971  11.430
 3487SOL     OW12234   1.064  12.200   9.972
 3487SOL    HW112235   1.000  12.221  10.040
 3487SOL    HW212236   1.046  12.264   9.903
 3488SOL     OW12237   5.954  13.420   2.186
 3488SOL    HW112238   5.981  13.330   2.202
 3488SOL    HW212239   5.986  13.469   2.262
 3489SOL     OW12240  13.883   4.162  10.795
 3489SOL    HW112241  13.971   4.195  10.777
 3489SOL    HW212242  13.849   4.218  10.865
 3490SOL     OW12243  10.033  13.364   8.841
 3490SOL    HW112244  10.016  13.322   8.757
 3490SOL    HW212245   9.947  13.393   8.872
 3491SOL     OW12246   7.614  12.456   2.725
 3491SOL    HW112247   7.555  12.384   2.704
 3491SOL    HW212248   7.694  12.414   2.755
 3492SOL     OW12249   1.841  10.852   3.641
 3492SOL    HW112250   1.810  10.913   3.574
 3492SOL    HW212251   1.935  10.845   3.624
 3493SOL     OW12252  11.535   5.448   5.340
 3493SOL    HW112253  11.479   5.391   5.393
 3493SOL    HW212254  11.485   5.462   5.260
 3494SOL     OW12255   0.609   2.477   0.897
 3494SOL    HW112256   0.625   2.570   0.906
 3494SOL    HW212257   0.646   2.438   0.976
 3495SOL     OW12258   7.928   3.576   6.965
 3495SOL    HW112259   7.930   3.545   7.055
 3495SOL    HW212260   8.009   3.541   6.926
 3496SOL     OW12261   1.403   5.561   0.651
 3496SOL    HW112262   1.398   5.485   0.709
 3496SOL    HW212263   1.338   5.622   0.685
 3497SOL     OW12264   7.553  12.515   7.617
 3497SOL    HW112265   7.585  12.426   7.600
 3497SOL    HW212266   7.532  12.516   7.710
 3498SOL     OW12267  13.162   8.411  12.276
 3498SOL    HW112268  13.113   8.328  12.276
 3498SOL    HW212269  13.111   8.469  12.220
 3499SOL     OW12270   7.858   2.453   5.408
 3499SOL    HW112271   7.812   2.428   5.488
 3499SOL    HW212272   7.943   2.486   5.439
 3500SOL     OW12273   5.904   5.237  10.611
 3500SOL    HW112274   5.921   5.274  10.524
 3500SOL    HW212275   5.818   5.196  10.603
 3501SOL     OW12276  13.771  14.764  12.231
 3501SOL    HW112277  13.724  14.796  12.308
 3501SOL    HW212278  13.765  14.668  12.237
 3502SOL     OW12279   8.529   8.077  11.996
 3502SOL    HW112280   8.464   8.128  11.948
 3502SOL    HW212281   8.516   8.103  12.088
 3503SOL     OW12282   8.896   3.145   4.009
 3503SOL    HW112283   8.815   3.095   4.005
 3503SOL    HW212284   8.873   3.232   3.977
 3504SOL     OW12285   5.667  12.526   9.749
 3504SOL    HW112286   5.677  12.518   9.844
 3504SOL    HW212287   5.716  12.452   9.713
 3505SOL     OW12288  12.256   6.194  10.086
 3505SOL    HW112289  12.160   6.193  10.083
 3505SOL    HW212290  12.283   6.178   9.996
 3506SOL     OW12291   0.318   8.949  14.850
 3506SOL    HW112292   0.371   9.015   0.016
 3506SOL    HW212293   0.232   8.990  14.839
 3507SOL     OW12294   8.806  13.431   6.784
 3507SOL    HW112295   8.817  13.469   6.696
 3507SOL    HW212296   8.741  13.486   6.826
 3508SOL     OW12297  11.257  14.110   7.035
 3508SOL    HW112298  11.238  14.019   7.057
 3508SOL    HW212299  11.326  14.104   6.968
 3509SOL     OW12300   6.062   9.773   1.347
 3509SOL    HW112301   6.011   9.794   1.269
 3509SOL    HW212302   6.132   9.839   1.349
 3510SOL     OW12303   2.009   9.186   8.690
 3510SOL    HW112304   1.948   9.192   8.617
 3510SOL    HW212305   2.037   9.276   8.706
 3511SOL     OW12306  12.904  11.985   9.344
 3511SOL    HW112307  12.870  11.961   9.258
 3511SOL    HW212308  12.995  12.011   9.327
 3512SOL     OW12309   9.351   5.510   4.086
 3512SOL    HW112310   9.381   5.459   4.161
 3512SOL    HW212311   9.305   5.446   4.030
 3513SOL     OW12312   1.113  11.002   7.381
 3513SOL    HW112313   1.086  11.072   7.321
 3513SOL    HW212314   1.080  11.030   7.467
 3514SOL     OW12315  14.567   2.480   7.816
 3514SOL    HW112316  14.634   2.427   7.774
 3514SOL    HW212317  14.567   2.562   7.766
 3515SOL     OW12318   9.041   9.157   5.592
 3515SOL    HW112319   9.031   9.173   5.498
 3515SOL    HW212320   9.055   9.063   5.599
 3516SOL     OW12321   8.367  13.079   3.867
 3516SOL    HW112322   8.330  13.047   3.784
 3516SOL    HW212323   8.291  13.097   3.922
 3517SOL     OW12324   5.665  13.776   5.902
 3517SOL    HW112325   5.644  13.702   5.959
 3517SOL    HW212326   5.759  13.768   5.886
 3518SOL     OW12327   4.286   2.992   3.649
 3518SOL    HW112328   4.377   2.999   3.619
 3518SOL    HW212329   4.244   3.072   3.619
 3519SOL     OW12330   7.887   4.366   7.882
 3519SOL    HW112331   7.925   4.430   7.823
 3519SOL    HW212332   7.919   4.390   7.969
 3520SOL     OW12333   5.468   4.918  11.885
 3520SOL    HW112334   5.449   4.989  11.824
 3520SOL    HW212335   5.560   4.898  11.870
 3521SOL     OW12336  10.155   5.262   6.687
 3521SOL    HW112337  10.069   5.242   6.723
 3521SOL    HW212338  10.210   5.280   6.763
 3522SOL     OW12339  12.296  14.391  13.802
 3522SOL    HW112340  12.260  14.469  13.844
 3522SOL    HW212341  12.388  14.390  13.828
 3523SOL     OW12342  11.596   5.671   8.174
 3523SOL    HW112343  11.626   5.617   8.101
 3523SOL    HW212344  11.553   5.746   8.132
 3524SOL     OW12345  13.930  11.144   0.900
 3524SOL    HW112346  14.023  11.133   0.880
 3524SOL    HW212347  13.896  11.054   0.901
 3525SOL     OW12348  13.392   4.543  14.747
 3525SOL    HW112349  13.369   4.491  14.823
 3525SOL    HW212350  13.471   4.502  14.713
 3526SOL     OW12351  10.903  12.402  13.768
 3526SOL    HW112352  10.881  12.319  13.725
 3526SOL    HW212353  10.990  12.423  13.735
 3527SOL     OW12354   9.162   9.512   1.314
 3527SOL    HW112355   9.134   9.580   1.253
 3527SOL    HW212356   9.159   9.554   1.400
 3528SOL     OW12357   2.190   2.758   1.765
 3528SOL    HW112358   2.185   2.853   1.776
 3528SOL    HW212359   2.176   2.744   1.671
 3529SOL     OW12360   2.465  11.519   3.175
 3529SOL    HW112361   2.448  11.427   3.194
 3529SOL    HW212362   2.493  11.520   3.083
 3530SOL     OW12363  12.645   7.954  12.659
 3530SOL    HW112364  12.715   7.896  12.690
 3530SOL    HW212365  12.684   8.041  12.659
 3531SOL     OW12366   0.395  12.308   0.577
 3531SOL    HW112367   0.328  12.367   0.545
 3531SOL    HW212368   0.402  12.241   0.509
 3532SOL     OW12369  11.599   5.926   3.939
 3532SOL    HW112370  11.693   5.916   3.926
 3532SOL    HW212371  11.561   5.843   3.909
 3533SOL     OW12372   3.495   7.586  11.347
 3533SOL    HW112373   3.590   7.585  11.351
 3533SOL    HW212374   3.467   7.563  11.436
 3534SOL     OW12375   0.653   9.560   2.849
 3534SOL    HW112376   0.596   9.637   2.849
 3534SOL    HW212377   0.646   9.525   2.760
 3535SOL     OW12378  13.367  14.259   9.436
 3535SOL    HW112379  13.306  14.185   9.442
 3535SOL    HW212380  13.453  14.218   9.433
 3536SOL     OW12381  13.509   8.091   0.291
 3536SOL    HW112382  13.527   8.121   0.380
 3536SOL    HW212383  13.590   8.107   0.244
 3537SOL     OW12384   6.937  12.428  13.777
 3537SOL    HW112385   6.905  12.408  13.865
 3537SOL    HW212386   6.865  12.404  13.719
 3538SOL     OW12387   9.214  12.799   1.510
 3538SOL    HW112388   9.203  12.893   1.501
 3538SOL    HW212389   9.158  12.775   1.584
 3539SOL     OW12390   2.985   8.220   8.178
 3539SOL    HW112391   3.072   8.233   8.141
 3539SOL    HW212392   2.963   8.305   8.217
 3540SOL     OW12393   5.198   6.682  11.617
 3540SOL    HW112394   5.129   6.680  11.551
 3540SOL    HW212395   5.235   6.770  11.611
 3541SOL     OW12396  14.325   0.760   5.047
 3541SOL    HW112397  14.364   0.822   4.986
 3541SOL    HW212398  14.320   0.678   4.997
 3542SOL     OW12399   4.403   1.600  12.179
 3542SOL    HW112400   4.446   1.646  12.106
 3542SOL    HW212401   4.361   1.524  12.138
 3543SOL     OW12402  14.596   2.615   5.912
 3543SOL    HW112403  14.574   2.695   5.865
 3543SOL    HW212404  14.637   2.646   5.993
 3544SOL     OW12405  10.565   1.534   5.863
 3544SOL    HW112406  10.547   1.477   5.937
 3544SOL    HW212407  10.624   1.483   5.807
 3545SOL     OW12408  14.122  13.028  12.362
 3545SOL    HW112409  14.128  13.093  12.291
 3545SOL    HW212410  14.034  13.040  12.398
 3546SOL     OW12411   5.277   8.366   1.763
 3546SOL    HW112412   5.277   8.368   1.667
 3546SOL    HW212413   5.338   8.436   1.788
 3547SOL     OW12414  11.285   4.878   7.247
 3547SOL    HW112415  11.200   4.922   7.242
 3547SOL    HW212416  11.275   4.799   7.193
 3548SOL     OW12417   0.043   0.791   9.483
 3548SOL    HW112418   0.037   0.754   9.571
 3548SOL    HW212419   0.135   0.813   9.473
 3549SOL     OW12420  10.905   0.946   2.183
 3549SOL    HW112421  10.946   0.966   2.267
 3549SOL    HW212422  10.821   0.906   2.206
 3550SOL     OW12423  10.101   5.204   5.276
 3550SOL    HW112424  10.007   5.220   5.269
 3550SOL    HW212425  10.127   5.173   5.189
 3551SOL     OW12426  13.512   7.207   1.225
 3551SOL    HW112427  13.422   7.181   1.206
 3551SOL    HW212428  13.507   7.299   1.249
 3552SOL     OW12429   2.695   5.015  13.614
 3552SOL    HW112430   2.698   5.046  13.704
 3552SOL    HW212431   2.754   5.073  13.566
 3553SOL     OW12432  12.875   2.404  11.939
 3553SOL    HW112433  12.836   2.387  11.853
 3553SOL    HW212434  12.802   2.397  12.001
 3554SOL     OW12435   3.322   8.800   0.229
 3554SOL    HW112436   3.411   8.781   0.200
 3554SOL    HW212437   3.323   8.894   0.250
 3555SOL     OW12438   5.773  12.800  10.604
 3555SOL    HW112439   5.835  12.803  10.678
 3555SOL    HW212440   5.764  12.706  10.584
 3556SOL     OW12441   0.480   9.740   2.021
 3556SOL    HW112442   0.499   9.647   2.012
 3556SOL    HW212443   0.526   9.766   2.101
 3557SOL     OW12444   1.948  10.825  13.153
 3557SOL    HW112445   1.975  10.781  13.233
 3557SOL    HW212446   1.920  10.912  13.181
 3558SOL     OW12447   7.276   7.979   5.286
 3558SOL    HW112448   7.269   8.024   5.370
 3558SOL    HW212449   7.318   7.895   5.307
 3559SOL     OW12450   3.173   7.883   2.995
 3559SOL    HW112451   3.214   7.911   2.913
 3559SOL    HW212452   3.096   7.834   2.967
 3560SOL     OW12453  13.841   4.277  13.126
 3560SOL    HW112454  13.746   4.282  13.138
 3560SOL    HW212455  13.852   4.231  13.042
 3561SOL     OW12456   4.542   0.201  14.131
 3561SOL    HW112457   4.533   0.281  14.079
 3561SOL    HW212458   4.546   0.232  14.222
 3562SOL     OW12459   6.662   0.238   8.638
 3562SOL    HW112460   6.616   0.182   8.576
 3562SOL    HW212461   6.597   0.257   8.706
 3563SOL     OW12462   5.420   3.975   8.531
 3563SOL    HW112463   5.383   3.992   8.617
 3563SOL    HW212464   5.345   3.952   8.477
 3564SOL     OW12465   8.148   2.337   4.648
 3564SOL    HW112466   8.057   2.317   4.626
 3564SOL    HW212467   8.171   2.272   4.714
 3565SOL     OW12468   2.071   6.835  10.511
 3565SOL    HW112469   2.146   6.777  10.498
 3565SOL    HW212470   2.096   6.917  10.469
 3566SOL     OW12471   7.546   3.858  11.402
 3566SOL    HW112472   7.584   3.935  11.446
 3566SOL    HW212473   7.615   3.826  11.345
 3567SOL     OW12474  13.317   3.741   4.937
 3567SOL    HW112475  13.411   3.724   4.942
 3567SOL    HW212476  13.283   3.716   5.023
 3568SOL     OW12477   6.285  14.150   5.656
 3568SOL    HW112478   6.261  14.127   5.567
 3568SOL    HW212479   6.286  14.246   5.657
 3569SOL     OW12480  10.446  10.333  10.498
 3569SOL    HW112481  10.468  10.413  10.451
 3569SOL    HW212482  10.518  10.320  10.560
 3570SOL     OW12483  12.537  13.109  14.336
 3570SOL    HW112484  12.603  13.106  14.406
 3570SOL    HW212485  12.586  13.138  14.259
 3571SOL     OW12486   1.822   9.231   7.214
 3571SOL    HW112487   1.730   9.218   7.192
 3571SOL    HW212488   1.841   9.166   7.281
 3572SOL     OW12489  13.254   7.749  13.751
 3572SOL    HW112490  13.325   7.762  13.814
 3572SOL    HW212491  13.278   7.803  13.676
 3573SOL     OW12492   2.030  13.113   3.250
 3573SOL    HW112493   1.959  13.049   3.250
 3573SOL    HW212494   2.039  13.139   3.342
 3574SOL     OW12495   3.257   7.812   0.835
 3574SOL    HW112496   3.318   7.856   0.895
 3574SOL    HW212497   3.202   7.759   0.893
 3575SOL     OW12498  11.619   7.239  12.379
 3575SOL    HW112499  11.680   7.293  12.328
 3575SOL    HW212500  11.670   7.162  12.403
 3576SOL     OW12501   2.125  10.030   4.399
 3576SOL    HW112502   2.215  10.057   4.421
 3576SOL    HW212503   2.084  10.109   4.364
 3577SOL     OW12504   8.009   2.999   9.237
 3577SOL    HW112505   7.983   2.908   9.223
 3577SOL    HW212506   8.094   2.993   9.280
 3578SOL     OW12507   4.158   5.781  11.705
 3578SOL    HW112508   4.073   5.748  11.733
 3578SOL    HW212509   4.167   5.751  11.615
 3579SOL     OW12510   0.969  14.478   8.893
 3579SOL    HW112511   0.971  14.530   8.973
 3579SOL    HW212512   0.980  14.387   8.923
 3580SOL     OW12513   0.246   3.673   2.005
 3580SOL    HW112514   0.272   3.700   2.093
 3580SOL    HW212515   0.328   3.652   1.961
 3581SOL     OW12516   0.539   7.943   4.720
 3581SOL    HW112517   0.590   7.913   4.795
 3581SOL    HW212518   0.604   7.957   4.651
 3582SOL     OW12519   4.962   3.037  12.775
 3582SOL    HW112520   4.895   3.105  12.783
 3582SOL    HW212521   5.037   3.072  12.824
 3583SOL     OW12522   0.374  12.949  14.216
 3583SOL    HW112523   0.324  12.990  14.146
 3583SOL    HW212524   0.341  12.990  14.296
 3584SOL     OW12525  14.114   9.918  14.583
 3584SOL    HW112526  14.116   9.858  14.658
 3584SOL    HW212527  14.023   9.918  14.554
 3585SOL     OW12528   2.724  14.352   7.869
 3585SOL    HW112529   2.674  14.299   7.806
 3585SOL    HW212530   2.780  14.289   7.914
 3586SOL     OW12531   5.510   2.471   9.108
 3586SOL    HW112532   5.584   2.524   9.139
 3586SOL    HW212533   5.500   2.495   9.016
 3587SOL     OW12534   0.587  13.255   7.728
 3587SOL    HW112535   0.562  13.185   7.667
 3587SOL    HW212536   0.575  13.217   7.815
 3588SOL     OW12537   9.991  12.579   5.891
 3588SOL    HW112538   9.965  12.608   5.979
 3588SOL    HW212539  10.068  12.525   5.906
 3589SOL     OW12540   2.672  11.299   9.403
 3589SOL    HW112541   2.659  11.205   9.416
 3589SOL    HW212542   2.583  11.334   9.396
 3590SOL     OW12543   7.894  10.635  14.548
 3590SOL    HW112544   7.865  10.572  14.615
 3590SOL    HW212545   7.968  10.593  14.506
 3591SOL     OW12546   4.920   3.780   9.755
 3591SOL    HW112547   4.853   3.833   9.711
 3591SOL    HW212548   4.984   3.844   9.787
 3592SOL     OW12549   0.690   2.753  10.843
 3592SOL    HW112550   0.665   2.807  10.918
 3592SOL    HW212551   0.773   2.713  10.868
 3593SOL     OW12552   2.708  11.435   3.857
 3593SOL    HW112553   2.734  11.352   3.817
 3593SOL    HW212554   2.633  11.464   3.805
 3594SOL     OW12555   0.911  10.912   1.109
 3594SOL    HW112556   0.868  10.993   1.133
 3594SOL    HW212557   0.840  10.855   1.079
 3595SOL     OW12558   2.924  11.219   7.151
 3595SOL    HW112559   2.961  11.236   7.065
 3595SOL    HW212560   2.993  11.244   7.213
 3596SOL     OW12561  10.019  10.872  10.450
 3596SOL    HW112562   9.945  10.876  10.511
 3596SOL    HW212563   9.997  10.800  10.391
 3597SOL     OW12564   8.141   4.151   0.464
 3597SOL    HW112565   8.062   4.203   0.474
 3597SOL    HW212566   8.196   4.175   0.538
 3598SOL     OW12567   1.139   4.499   5.089
 3598SOL    HW112568   1.071   4.566   5.096
 3598SOL    HW212569   1.220   4.549   5.081
 3599SOL     OW12570   8.368   3.164   5.819
 3599SOL    HW112571   8.455   3.203   5.809
 3599SOL    HW212572   8.320   3.192   5.741
 3600SOL     OW12573   9.466  12.844   1.664
 3600SOL    HW112574   9.379  12.834   1.625
 3600SOL    HW212575   9.458  12.918   1.724
 3601SOL     OW12576   6.985  13.191   4.632
 3601SOL    HW112577   7.078  13.213   4.627
 3601SOL    HW212578   6.945  13.240   4.560
 3602SOL     OW12579  14.852  13.841   2.498
 3602SOL    HW112580  14.816  13.851   2.586
 3602SOL    HW212581   0.024  13.759   2.502
 3603SOL     OW12582   3.237  11.176  11.271
 3603SOL    HW112583   3.195  11.198  11.188
 3603SOL    HW212584   3.329  11.202  11.258
 3604SOL     OW12585   9.795   7.090  13.567
 3604SOL    HW112586   9.734   7.034  13.519
 3604SOL    HW212587   9.755   7.177  13.566
 3605SOL     OW12588   4.501   0.754   2.309
 3605SOL    HW112589   4.585   0.725   2.275
 3605SOL    HW212590   4.477   0.829   2.255
 3606SOL     OW12591   8.596  13.726   7.229
 3606SOL    HW112592   8.552  13.744   7.312
 3606SOL    HW212593   8.676  13.680   7.255
 3607SOL     OW12594   1.339   1.008   9.945
 3607SOL    HW112595   1.355   0.914   9.945
 3607SOL    HW212596   1.358   1.035  10.035
 3608SOL     OW12597  13.480   0.049  10.289
 3608SOL    HW112598  13.537  14.877  10.230
 3608SOL    HW212599  13.480   0.137  10.253
 3609SOL     OW12600   0.507   2.542  13.182
 3609SOL    HW112601   0.463   2.626  13.175
 3609SOL    HW212602   0.537   2.522  13.094
 3610SOL     OW12603   2.382   5.459   6.655
 3610SOL    HW112604   2.426   5.416   6.582
 3610SOL    HW212605   2.398   5.401   6.730
 3611SOL     OW12606   3.550   8.943   6.789
 3611SOL    HW112607   3.519   8.912   6.704
 3611SOL    HW212608   3.568   9.036   6.776
 3612SOL     OW12609  13.568   8.666   7.013
 3612SOL    HW112610  13.563   8.761   7.010
 3612SOL    HW212611  13.532   8.642   7.099
 3613SOL     OW12612   1.310   5.029  10.934
 3613SOL    HW112613   1.404   5.012  10.932
 3613SOL    HW212614   1.271   4.956  10.886
 3614SOL     OW12615   6.027   3.558   3.370
 3614SOL    HW112616   6.073   3.576   3.289
 3614SOL    HW212617   5.983   3.474   3.355
 3615SOL     OW12618   0.928  13.139   0.357
 3615SOL    HW112619   0.859  13.198   0.325
 3615SOL    HW212620   1.007  13.192   0.358
 3616SOL     OW12621   5.821   2.821  13.302
 3616SOL    HW112622   5.732   2.841  13.331
 3616SOL    HW212623   5.829   2.726  13.315
 3617SOL     OW12624   4.009   0.362   3.848
 3617SOL    HW112625   4.037   0.421   3.917
 3617SOL    HW212626   3.924   0.329   3.877
 3618SOL     OW12627   4.806  14.686   4.794
 3618SOL    HW112628   4.869  14.687   4.722
 3618SOL    HW212629   4.809  14.596   4.827
 3619SOL     OW12630   9.997   6.060   1.923
 3619SOL    HW112631   9.948   6.047   1.841
 3619SOL    HW212632  10.017   6.153   1.923
 3620SOL     OW12633   9.835  14.299  11.238
 3620SOL    HW112634   9.905  14.249  11.278
 3620SOL    HW212635   9.878  14.353  11.172
 3621SOL     OW12636  13.597   5.770  12.614
 3621SOL    HW112637  13.692   5.780  12.618
 3621SOL    HW212638  13.563   5.838  12.672
 3622SOL     OW12639  10.284   0.638   6.653
 3622SOL    HW112640  10.314   0.643   6.744
 3622SOL    HW212641  10.196   0.601   6.659
 3623SOL     OW12642   7.696  12.769   2.187
 3623SOL    HW112643   7.605  12.766   2.157
 3623SOL    HW212644   7.741  12.703   2.135
 3624SOL     OW12645   6.383  13.593   7.046
 3624SOL    HW112646   6.432  13.663   7.003
 3624SOL    HW212647   6.396  13.517   6.989
 3625SOL     OW12648   6.269   3.121   3.708
 3625SOL    HW112649   6.292   3.043   3.659
 3625SOL    HW212650   6.325   3.190   3.673
 3626SOL     OW12651   1.945  12.628  14.696
 3626SOL    HW112652   1.929  12.535  14.712
 3626SOL    HW212653   1.988  12.630  14.611
 3627SOL     OW12654  13.722  14.027   7.299
 3627SOL    HW112655  13.775  13.965   7.249
 3627SOL    HW212656  13.707  14.100   7.240
 3628SOL     OW12657  10.525   5.562  10.053
 3628SOL    HW112658  10.569   5.491  10.099
 3628SOL    HW212659  10.431   5.546  10.067
 3629SOL     OW12660   3.093   1.591  11.619
 3629SOL    HW112661   3.185   1.602  11.643
 3629SOL    HW212662   3.047   1.659  11.668
 3630SOL     OW12663  11.137  12.534   0.999
 3630SOL    HW112664  11.166  12.519   1.088
 3630SOL    HW212665  11.042  12.519   1.002
 3631SOL     OW12666   1.772   2.363   5.830
 3631SOL    HW112667   1.822   2.343   5.751
 3631SOL    HW212668   1.689   2.397   5.798
 3632SOL     OW12669   6.955   7.926   2.000
 3632SOL    HW112670   7.024   7.886   1.947
 3632SOL    HW212671   6.957   7.878   2.082
 3633SOL     OW12672  11.142  12.649  11.655
 3633SOL    HW112673  11.160  12.562  11.688
 3633SOL    HW212674  11.054  12.670  11.686
 3634SOL     OW12675   0.676   6.417  11.050
 3634SOL    HW112676   0.608   6.390  11.112
 3634SOL    HW212677   0.731   6.478  11.100
 3635SOL     OW12678   9.282  11.400   5.485
 3635SOL    HW112679   9.253  11.350   5.561
 3635SOL    HW212680   9.201  11.430   5.444
 3636SOL     OW12681  13.495  10.184   5.010
 3636SOL    HW112682  13.544  10.264   4.988
 3636SOL    HW212683  13.458  10.154   4.927
 3637SOL     OW12684   6.759  11.116  14.857
 3637SOL    HW112685   6.670  11.145  14.838
 3637SOL    HW212686   6.760  11.100   0.073
 3638SOL     OW12687   6.123   0.921   6.344
 3638SOL    HW112688   6.176   0.999   6.361
 3638SOL    HW212689   6.181   0.863   6.295
 3639SOL     OW12690  11.617   4.984   2.193
 3639SOL    HW112691  11.599   5.033   2.273
 3639SOL    HW212692  11.712   4.983   2.186
 3640SOL     OW12693   1.410  14.802  10.369
 3640SOL    HW112694   1.357  14.814  10.448
 3640SOL    HW212695   1.430   0.012  10.340
 3641SOL     OW12696   9.286   1.365  12.281
 3641SOL    HW112697   9.364   1.311  12.293
 3641SOL    HW212698   9.253   1.341  12.194
 3642SOL     OW12699  12.004  13.548   3.807
 3642SOL    HW112700  11.994  13.460   3.771
 3642SOL    HW212701  11.945  13.550   3.882
 3643SOL     OW12702  12.421  11.005   6.309
 3643SOL    HW112703  12.362  11.006   6.233
 3643SOL    HW212704  12.373  10.958   6.377
 3644SOL     OW12705   3.296   6.480  12.267
 3644SOL    HW112706   3.298   6.552  12.331
 3644SOL    HW212707   3.207   6.484  12.231
 3645SOL     OW12708   7.040   7.298  12.487
 3645SOL    HW112709   7.084   7.331  12.565
 3645SOL    HW212710   7.033   7.204  12.502
 3646SOL     OW12711   6.714   4.302   2.818
 3646SOL    HW112712   6.765   4.321   2.898
 3646SOL    HW212713   6.779   4.301   2.748
 3647SOL     OW12714   9.114   9.085  11.893
 3647SOL    HW112715   9.171   9.073  11.817
 3647SOL    HW212716   9.169   9.063  11.969
 3648SOL     OW12717  13.379  12.016  13.128
 3648SOL    HW112718  13.362  12.108  13.150
 3648SOL    HW212719  13.321  11.967  13.185
 3649SOL     OW12720   9.338   1.453   4.729
 3649SOL    HW112721   9.302   1.462   4.818
 3649SOL    HW212722   9.424   1.413   4.742
 3650SOL     OW12723  13.141   3.368   0.318
 3650SOL    HW112724  13.080   3.426   0.363
 3650SOL    HW212725  13.095   3.284   0.312
 3651SOL     OW12726  12.543  14.443   3.464
 3651SOL    HW112727  12.482  14.471   3.532
 3651SOL    HW212728  12.624  14.489   3.485
 3652SOL     OW12729  10.020   5.342   6.200
 3652SOL    HW112730   9.992   5.431   6.182
 3652SOL    HW212731  10.066   5.347   6.284
 3653SOL     OW12732  10.590   2.883   7.671
 3653SOL    HW112733  10.522   2.837   7.721
 3653SOL    HW212734  10.669   2.873   7.724
 3654SOL     OW12735  10.517  10.303   1.578
 3654SOL    HW112736  10.532  10.289   1.672
 3654SOL    HW212737  10.436  10.355   1.575
 3655SOL     OW12738   3.724   6.591   5.373
 3655SOL    HW112739   3.805   6.581   5.423
 3655SOL    HW212740   3.696   6.680   5.391
 3656SOL     OW12741   4.249   5.556  10.219
 3656SOL    HW112742   4.255   5.524  10.309
 3656SOL    HW212743   4.292   5.641  10.221
 3657SOL     OW12744   5.691   9.538   5.589
 3657SOL    HW112745   5.620   9.599   5.610
 3657SOL    HW212746   5.648   9.464   5.547
 3658SOL     OW12747  13.418   4.172   9.220
 3658SOL    HW112748  13.479   4.202   9.287
 3658SOL    HW212749  13.475   4.141   9.149
 3659SOL     OW12750   9.873   8.381   3.858
 3659SOL    HW112751   9.848   8.472   3.871
 3659SOL    HW212752   9.917   8.381   3.773
 3660SOL     OW12753  12.493  14.681   5.519
 3660SOL    HW112754  12.545  14.752   5.557
 3660SOL    HW212755  12.534  14.664   5.435
 3661SOL     OW12756   4.481   1.942  10.544
 3661SOL    HW112757   4.458   2.001  10.616
 3661SOL    HW212758   4.514   1.863  10.587
 3662SOL     OW12759   1.415   9.452   7.094
 3662SOL    HW112760   1.449   9.369   7.061
 3662SOL    HW212761   1.488   9.514   7.084
 3663SOL     OW12762   8.697   9.161   9.317
 3663SOL    HW112763   8.649   9.232   9.275
 3663SOL    HW212764   8.768   9.205   9.365
 3664SOL     OW12765  13.783   7.971  13.979
 3664SOL    HW112766  13.799   8.052  14.027
 3664SOL    HW212767  13.699   7.985  13.936
 3665SOL     OW12768   5.161   4.999   1.226
 3665SOL    HW112769   5.111   4.963   1.153
 3665SOL    HW212770   5.241   5.033   1.186
 3666SOL     OW12771  12.892   9.474   6.715
 3666SOL    HW112772  12.869   9.484   6.807
 3666SOL    HW212773  12.843   9.396   6.686
 3667SOL     OW12774   1.411   9.077   6.505
 3667SOL    HW112775   1.399   9.092   6.411
 3667SOL    HW212776   1.465   8.998   6.510
 3668SOL     OW12777   0.233   5.408   1.732
 3668SOL    HW112778   0.161   5.356   1.766
 3668SOL    HW212779   0.193   5.489   1.702
 3669SOL     OW12780  10.922  13.494   5.490
 3669SOL    HW112781  10.838  13.467   5.526
 3669SOL    HW212782  10.898  13.548   5.414
 3670SOL     OW12783   9.015   0.090   9.885
 3670SOL    HW112784   9.003  14.874   9.899
 3670SOL    HW212785   9.021   0.100   9.790
 3671SOL     OW12786   5.275  12.915  10.985
 3671SOL    HW112787   5.214  12.850  11.019
 3671SOL    HW212788   5.228  12.958  10.914
 3672SOL     OW12789   8.923  13.105  10.243
 3672SOL    HW112790   8.946  13.174  10.181
 3672SOL    HW212791   8.869  13.150  10.309
 3673SOL     OW12792  13.198  11.889  14.609
 3673SOL    HW112793  13.264  11.932  14.556
 3673SOL    HW212794  13.211  11.924  14.697
 3674SOL     OW12795   7.941   2.958  12.116
 3674SOL    HW112796   7.914   2.906  12.041
 3674SOL    HW212797   7.874   3.027  12.123
 3675SOL     OW12798   5.809   1.296   0.856
 3675SOL    HW112799   5.774   1.274   0.769
 3675SOL    HW212800   5.886   1.349   0.837
 3676SOL     OW12801   5.400   6.152   8.609
 3676SOL    HW112802   5.351   6.185   8.533
 3676SOL    HW212803   5.374   6.060   8.615
 3677SOL     OW12804   9.112   7.249  12.127
 3677SOL    HW112805   9.166   7.176  12.159
 3677SOL    HW212806   9.162   7.327  12.151
 3678SOL     OW12807   7.552   5.908   3.741
 3678SOL    HW112808   7.554   6.003   3.754
 3678SOL    HW212809   7.643   5.881   3.752
 3679SOL     OW12810   6.524   0.151   1.420
 3679SOL    HW112811   6.512   0.231   1.371
 3679SOL    HW212812   6.436   0.118   1.437
 3680SOL     OW12813  10.570  14.780   3.848
 3680SOL    HW112814  10.564  14.723   3.772
 3680SOL    HW212815  10.521  14.859   3.823
 3681SOL     OW12816   2.241   3.019   6.698
 3681SOL    HW112817   2.318   3.051   6.651
 3681SOL    HW212818   2.276   2.958   6.762
 3682SOL     OW12819   2.418  14.120   3.964
 3682SOL    HW112820   2.503  14.143   4.000
 3682SOL    HW212821   2.430  14.034   3.925
 3683SOL     OW12822   0.068   5.143   6.848
 3683SOL    HW112823   0.113   5.092   6.915
 3683SOL    HW212824   0.093   5.234   6.866
 3684SOL     OW12825   7.422   6.641  11.255
 3684SOL    HW112826   7.389   6.668  11.340
 3684SOL    HW212827   7.415   6.719  11.200
 3685SOL     OW12828   7.837  11.059   3.776
 3685SOL    HW112829   7.914  11.006   3.756
 3685SOL    HW212830   7.872  11.136   3.821
 3686SOL     OW12831   5.809  13.906  10.315
 3686SOL    HW112832   5.801  13.961  10.237
 3686SOL    HW212833   5.769  13.822  10.290
 3687SOL     OW12834  14.140   7.990   7.879
 3687SOL    HW112835  14.176   7.906   7.906
 3687SOL    HW212836  14.192   8.055   7.927
 3688SOL     OW12837   8.755   2.725   3.656
 3688SOL    HW112838   8.826   2.717   3.593
 3688SOL    HW212839   8.739   2.820   3.661
 3689SOL     OW12840   3.063   5.523   5.891
 3689SOL    HW112841   3.030   5.576   5.963
 3689SOL    HW212842   3.138   5.477   5.928
 3690SOL     OW12843  13.158  12.997  12.405
 3690SOL    HW112844  13.194  12.983  12.318
 3690SOL    HW212845  13.222  13.055  12.448
 3691SOL     OW12846  13.906  12.401  13.350
 3691SOL    HW112847  13.900  12.328  13.288
 3691SOL    HW212848  13.994  12.395  13.386
 3692SOL     OW12849  14.473   1.118   1.799
 3692SOL    HW112850  14.524   1.039   1.780
 3692SOL    HW212851  14.434   1.101   1.885
 3693SOL     OW12852   2.122   7.591  10.236
 3693SOL    HW112853   2.062   7.628  10.171
 3693SOL    HW212854   2.181   7.663  10.257
 3694SOL     OW12855  14.259   2.622   5.090
 3694SOL    HW112856  14.317   2.578   5.153
 3694SOL    HW212857  14.318   2.669   5.032
 3695SOL     OW12858  14.866   2.273  13.531
 3695SOL    HW112859  14.816   2.196  13.505
 3695SOL    HW212860   0.038   2.298  13.453
 3696SOL     OW12861   4.285   5.887   9.048
 3696SOL    HW112862   4.247   5.972   9.073
 3696SOL    HW212863   4.274   5.832   9.126
 3697SOL     OW12864  13.386  12.019   7.358
 3697SOL    HW112865  13.460  11.999   7.414
 3697SOL    HW212866  13.380  12.115   7.359
 3698SOL     OW12867   3.947   2.281  13.990
 3698SOL    HW112868   3.998   2.220  14.043
 3698SOL    HW212869   3.914   2.345  14.053
 3699SOL     OW12870  12.808   5.159  12.471
 3699SOL    HW112871  12.751   5.141  12.545
 3699SOL    HW212872  12.871   5.223  12.505
 3700SOL     OW12873   6.974  13.658   7.674
 3700SOL    HW112874   6.961  13.691   7.763
 3700SOL    HW212875   7.017  13.729   7.628
 3701SOL     OW12876   1.845   9.338  13.091
 3701SOL    HW112877   1.824   9.352  12.999
 3701SOL    HW212878   1.937   9.309  13.091
 3702SOL     OW12879  11.204  10.333   3.350
 3702SOL    HW112880  11.299  10.346   3.360
 3702SOL    HW212881  11.165  10.388   3.418
 3703SOL     OW12882   8.820   0.953   1.440
 3703SOL    HW112883   8.742   0.966   1.494
 3703SOL    HW212884   8.809   1.012   1.366
 3704SOL     OW12885   2.985   5.063   3.341
 3704SOL    HW112886   3.027   4.980   3.363
 3704SOL    HW212887   2.918   5.075   3.408
 3705SOL     OW12888   0.212  13.803   1.682
 3705SOL    HW112889   0.169  13.883   1.650
 3705SOL    HW212890   0.199  13.805   1.777
 3706SOL     OW12891  11.614   0.447  10.233
 3706SOL    HW112892  11.642   0.364  10.270
 3706SOL    HW212893  11.635   0.441  10.140
 3707SOL     OW12894   5.381  11.537   1.214
 3707SOL    HW112895   5.430  11.491   1.144
 3707SOL    HW212896   5.292  11.542   1.181
 3708SOL     OW12897   3.308   1.487   2.871
 3708SOL    HW112898   3.299   1.491   2.776
 3708SOL    HW212899   3.227   1.446   2.902
 3709SOL     OW12900   4.940   6.293   3.534
 3709SOL    HW112901   4.878   6.254   3.595
 3709SOL    HW212902   5.012   6.324   3.589
 3710SOL     OW12903   3.460  13.748   4.319
 3710SOL    HW112904   3.413  13.738   4.401
 3710SOL    HW212905   3.459  13.843   4.302
 3711SOL     OW12906  14.858   0.436  13.074
 3711SOL    HW112907   0.013   0.463  13.159
 3711SOL    HW212908   0.058   0.431  13.018
 3712SOL     OW12909   7.987   8.487  14.851
 3712SOL    HW112910   7.987   8.565  14.796
 3712SOL    HW212911   8.063   8.497   0.030
 3713SOL     OW12912   5.136   5.421  10.260
 3713SOL    HW112913   5.166   5.354  10.199
 3713SOL    HW212914   5.210   5.434  10.319
 3714SOL     OW12915   3.083  10.274  13.621
 3714SOL    HW112916   3.151  10.270  13.554
 3714SOL    HW212917   3.088  10.188  13.664
 3715SOL     OW12918  11.733  13.175   7.511
 3715SOL    HW112919  11.717  13.129   7.429
 3715SOL    HW212920  11.651  13.169   7.559
 3716SOL     OW12921   6.785   9.776   2.159
 3716SOL    HW112922   6.847   9.702   2.152
 3716SOL    HW212923   6.818   9.840   2.095
 3717SOL     OW12924  11.322   2.467   0.936
 3717SOL    HW112925  11.325   2.399   0.869
 3717SOL    HW212926  11.352   2.424   1.016
 3718SOL     OW12927   0.401   3.470   4.408
 3718SOL    HW112928   0.478   3.478   4.352
 3718SOL    HW212929   0.436   3.467   4.497
 3719SOL     OW12930   9.678   1.610   5.842
 3719SOL    HW112931   9.680   1.529   5.790
 3719SOL    HW212932   9.596   1.652   5.816
 3720SOL     OW12933  14.613   6.841   9.676
 3720SOL    HW112934  14.673   6.860   9.748
 3720SOL    HW212935  14.545   6.787   9.715
 3721SOL     OW12936   7.910  11.617   3.991
 3721SOL    HW112937   7.872  11.614   4.079
 3721SOL    HW212938   7.851  11.564   3.938
 3722SOL     OW12939   6.713   8.707   2.938
 3722SOL    HW112940   6.777   8.636   2.929
 3722SOL    HW212941   6.691   8.708   3.031
 3723SOL     OW12942   2.087   1.993  12.880
 3723SOL    HW112943   2.088   2.082  12.844
 3723SOL    HW212944   2.135   2.000  12.962
 3724SOL     OW12945   6.828   7.960   1.083
 3724SOL    HW112946   6.839   7.878   1.132
 3724SOL    HW212947   6.877   7.946   1.002
 3725SOL     OW12948   2.510   2.584   9.500
 3725SOL    HW112949   2.474   2.598   9.413
 3725SOL    HW212950   2.599   2.619   9.494
 3726SOL     OW12951   3.364  13.419   3.024
 3726SOL    HW112952   3.379  13.504   2.983
 3726SOL    HW212953   3.351  13.439   3.117
 3727SOL     OW12954   0.252   8.344  12.152
 3727SOL    HW112955   0.207   8.421  12.115
 3727SOL    HW212956   0.211   8.269  12.108
 3728SOL     OW12957  10.412   3.331  13.344
 3728SOL    HW112958  10.483   3.272  13.315
 3728SOL    HW212959  10.441   3.362  13.430
 3729SOL     OW12960   1.852  13.083   2.926
 3729SOL    HW112961   1.844  12.999   2.972
 3729SOL    HW212962   1.882  13.059   2.838
 3730SOL     OW12963  13.595  14.330   0.381
 3730SOL    HW112964  13.592  14.420   0.415
 3730SOL    HW212965  13.505  14.311   0.356
 3731SOL     OW12966  12.370   1.322   9.983
 3731SOL    HW112967  12.460   1.329   9.951
 3731SOL    HW212968  12.335   1.411   9.976
 3732SOL     OW12969   3.585   4.318  10.441
 3732SOL    HW112970   3.504   4.367  10.430
 3732SOL    HW212971   3.558   4.235  10.480
 3733SOL     OW12972   7.853   6.544   6.922
 3733SOL    HW112973   7.879   6.606   6.854
 3733SOL    HW212974   7.911   6.562   6.995
 3734SOL     OW12975   2.625   2.066   4.035
 3734SOL    HW112976   2.536   2.094   4.015
 3734SOL    HW212977   2.625   2.050   4.129
 3735SOL     OW12978   6.763  11.283  11.678
 3735SOL    HW112979   6.688  11.225  11.684
 3735SOL    HW212980   6.836  11.225  11.656
 3736SOL     OW12981   2.328  13.020   5.821
 3736SOL    HW112982   2.299  12.953   5.760
 3736SOL    HW212983   2.308  13.103   5.777
 3737SOL     OW12984  13.368  12.425   5.685
 3737SOL    HW112985  13.312  12.380   5.622
 3737SOL    HW212986  13.315  12.434   5.764
 3738SOL     OW12987   9.536   0.798   3.903
 3738SOL    HW112988   9.531   0.704   3.918
 3738SOL    HW212989   9.497   0.837   3.982
 3739SOL     OW12990   1.443  13.653   1.356
 3739SOL    HW112991   1.459  13.673   1.448
 3739SOL    HW212992   1.517  13.598   1.330
 3740SOL     OW12993   4.559  11.218  10.272
 3740SOL    HW112994   4.563  11.160  10.196
 3740SOL    HW212995   4.591  11.302  10.241
 3741SOL     OW12996  14.564  10.712   1.147
 3741SOL    HW112997  14.492  10.655   1.119
 3741SOL    HW212998  14.581  10.687   1.238
 3742SOL     OW12999   6.685   1.392   8.080
 3742SOL    HW113000   6.766   1.442   8.070
 3742SOL    HW213001   6.657   1.375   7.990
 3743SOL     OW13002   1.501   3.095   4.397
 3743SOL    HW113003   1.545   3.093   4.482
 3743SOL    HW213004   1.411   3.121   4.416
 3744SOL     OW13005   9.790   5.329  13.528
 3744SOL    HW113006   9.799   5.403  13.468
 3744SOL    HW213007   9.807   5.365  13.615
 3745SOL     OW13008  13.219   1.180   4.687
 3745SOL    HW113009  13.233   1.257   4.742
 3745SOL    HW213010  13.161   1.210   4.617
 3746SOL     OW13011   4.484  12.509  13.372
 3746SOL    HW113012   4.402  12.459  13.369
 3746SOL    HW213013   4.552  12.443  13.380
 3747SOL     OW13014   0.076   0.800  14.803
 3747SOL    HW113015   0.162   0.842  14.811
 3747SOL    HW213016   0.091   0.709  14.828
 3748SOL     OW13017   9.925   6.340   6.363
 3748SOL    HW113018   9.911   6.397   6.288
 3748SOL    HW213019  10.011   6.365   6.397
 3749SOL     OW13020   6.201   5.138   8.754
 3749SOL    HW113021   6.144   5.132   8.677
 3749SOL    HW213022   6.290   5.135   8.718
 3750SOL     OW13023   0.168   2.508   4.340
 3750SOL    HW113024   0.252   2.550   4.355
 3750SOL    HW213025   0.186   2.415   4.353
 3751SOL     OW13026   6.355  10.614   8.509
 3751SOL    HW113027   6.285  10.565   8.464
 3751SOL    HW213028   6.328  10.705   8.503
 3752SOL     OW13029  14.376   8.360   8.548
 3752SOL    HW113030  14.352   8.359   8.641
 3752SOL    HW213031  14.444   8.293   8.540
 3753SOL     OW13032   1.874   8.992   3.094
 3753SOL    HW113033   1.930   8.959   3.023
 3753SOL    HW213034   1.853   8.914   3.146
 3754SOL     OW13035   1.582   0.629   9.972
 3754SOL    HW113036   1.623   0.544   9.984
 3754SOL    HW213037   1.546   0.627   9.883
 3755SOL     OW13038   3.006  11.896  11.290
 3755SOL    HW113039   2.954  11.887  11.370
 3755SOL    HW213040   3.096  11.908  11.321
 3756SOL     OW13041   0.191   1.833   3.939
 3756SOL    HW113042   0.137   1.834   4.018
 3756SOL    HW213043   0.174   1.918   3.898
 3757SOL     OW13044   0.488   5.536  11.427
 3757SOL    HW113045   0.518   5.592  11.356
 3757SOL    HW213046   0.443   5.464  11.383
 3758SOL     OW13047   5.209  13.695   7.051
 3758SOL    HW113048   5.215  13.681   7.145
 3758SOL    HW213049   5.188  13.609   7.015
 3759SOL     OW13050   2.449   9.669  14.256
 3759SOL    HW113051   2.416   9.757  14.239
 3759SOL    HW213052   2.384   9.611  14.216
 3760SOL     OW13053   3.184   0.003   1.639
 3760SOL    HW113054   3.104  14.867   1.588
 3760SOL    HW213055   3.176   0.092   1.672
 3761SOL     OW13056   0.149   4.750   9.907
 3761SOL    HW113057   0.097   4.748   9.988
 3761SOL    HW213058   0.203   4.671   9.911
 3762SOL     OW13059   6.168   1.251  11.953
 3762SOL    HW113060   6.200   1.167  11.985
 3762SOL    HW213061   6.074   1.237  11.939
 3763SOL     OW13062   9.628  13.822   4.479
 3763SOL    HW113063   9.536  13.812   4.504
 3763SOL    HW213064   9.656  13.733   4.456
 3764SOL     OW13065   6.837   7.137   6.135
 3764SOL    HW113066   6.905   7.204   6.131
 3764SOL    HW213067   6.871   7.071   6.194
 3765SOL     OW13068  13.817   0.377   1.653
 3765SOL    HW113069  13.863   0.433   1.590
 3765SOL    HW213070  13.750   0.332   1.601
 3766SOL     OW13071  13.455   2.606   2.428
 3766SOL    HW113072  13.460   2.531   2.488
 3766SOL    HW213073  13.386   2.582   2.366
 3767SOL     OW13074   8.281   2.354   7.597
 3767SOL    HW113075   8.259   2.262   7.583
 3767SOL    HW213076   8.290   2.362   7.691
 3768SOL     OW13077   5.623  10.828   5.862
 3768SOL    HW113078   5.661  10.902   5.909
 3768SOL    HW213079   5.664  10.751   5.902
 3769SOL     OW13080   1.224  12.064   6.816
 3769SOL    HW113081   1.297  12.074   6.878
 3769SOL    HW213082   1.220  11.970   6.799
 3770SOL     OW13083  10.940   1.085   5.866
 3770SOL    HW113084  10.959   1.018   5.932
 3770SOL    HW213085  11.024   1.127   5.849
 3771SOL     OW13086  11.744   4.134   7.422
 3771SOL    HW113087  11.798   4.095   7.491
 3771SOL    HW213088  11.797   4.126   7.342
 3772SOL     OW13089   7.397   6.208  13.225
 3772SOL    HW113090   7.392   6.131  13.168
 3772SOL    HW213091   7.329   6.266  13.192
 3773SOL     OW13092   4.335  13.142   7.996
 3773SOL    HW113093   4.243  13.122   8.009
 3773SOL    HW213094   4.372  13.063   7.957
 3774SOL     OW13095   5.592   5.205   8.422
 3774SOL    HW113096   5.584   5.280   8.363
 3774SOL    HW213097   5.528   5.222   8.491
 3775SOL     OW13098   5.972  11.346  11.399
 3775SOL    HW113099   5.894  11.375  11.447
 3775SOL    HW213100   6.010  11.427  11.365
 3776SOL     OW13101   4.546   0.289   3.244
 3776SOL    HW113102   4.482   0.229   3.282
 3776SOL    HW213103   4.580   0.338   3.319
 3777SOL     OW13104   2.932   9.739   2.470
 3777SOL    HW113105   2.982   9.709   2.395
 3777SOL    HW213106   2.844   9.702   2.458
 3778SOL     OW13107  10.990   7.611   7.969
 3778SOL    HW113108  11.071   7.648   7.936
 3778SOL    HW213109  11.016   7.528   8.009
 3779SOL     OW13110  10.415  14.340   8.824
 3779SOL    HW113111  10.438  14.319   8.915
 3779SOL    HW213112  10.492  14.386   8.790
 3780SOL     OW13113   0.020  14.606   3.990
 3780SOL    HW113114   0.111  14.609   3.960
 3780SOL    HW213115  14.852  14.669   3.935
 3781SOL     OW13116  11.272   5.528  10.291
 3781SOL    HW113117  11.349   5.547  10.238
 3781SOL    HW213118  11.301   5.538  10.382
 3782SOL     OW13119  13.412   8.993  12.322
 3782SOL    HW113120  13.449   8.938  12.253
 3782SOL    HW213121  13.341   9.040  12.279
 3783SOL     OW13122   3.642   7.978   0.236
 3783SOL    HW113123   3.738   7.978   0.246
 3783SOL    HW213124   3.614   7.901   0.286
 3784SOL     OW13125   6.084   7.907   0.434
 3784SOL    HW113126   6.150   7.935   0.371
 3784SOL    HW213127   6.085   7.975   0.502
 3785SOL     OW13128  13.787  12.132   7.523
 3785SOL    HW113129  13.870  12.088   7.505
 3785SOL    HW213130  13.720  12.065   7.509
 3786SOL     OW13131  13.109  11.433   2.320
 3786SOL    HW113132  13.105  11.499   2.250
 3786SOL    HW213133  13.203  11.420   2.335
 3787SOL     OW13134  14.683   9.411   9.909
 3787SOL    HW113135  14.607   9.360   9.880
 3787SOL    HW213136  14.749   9.396   9.841
 3788SOL     OW13137  11.947   9.762   9.900
 3788SOL    HW113138  11.998   9.804   9.832
 3788SOL    HW213139  11.856   9.773   9.873
 3789SOL     OW13140   0.240   4.862  12.215
 3789SOL    HW113141   0.298   4.881  12.288
 3789SOL    HW213142   0.235   4.766  12.212
 3790SOL     OW13143  11.148  10.058   3.503
 3790SOL    HW113144  11.175  10.091   3.589
 3790SOL    HW213145  11.143  10.136   3.448
 3791SOL     OW13146  11.368   1.906  11.131
 3791SOL    HW113147  11.438   1.962  11.165
 3791SOL    HW213148  11.314   1.886  11.208
 3792SOL     OW13149  12.659   8.478  12.470
 3792SOL    HW113150  12.694   8.443  12.552
 3792SOL    HW213151  12.564   8.467  12.477
 3793SOL     OW13152   3.176   7.656   5.525
 3793SOL    HW113153   3.271   7.659   5.529
 3793SOL    HW213154   3.148   7.644   5.616
 3794SOL     OW13155  14.028   0.585   2.647
 3794SOL    HW113156  13.986   0.537   2.576
 3794SOL    HW213157  14.015   0.530   2.724
 3795SOL     OW13158   0.531   3.264   8.248
 3795SOL    HW113159   0.550   3.174   8.276
 3795SOL    HW213160   0.569   3.319   8.316
 3796SOL     OW13161   9.129   8.944   7.554
 3796SOL    HW113162   9.190   9.004   7.512
 3796SOL    HW213163   9.179   8.906   7.626
 3797SOL     OW13164   9.974   6.057  12.470
 3797SOL    HW113165  10.020   6.009  12.400
 3797SOL    HW213166  10.042   6.075  12.535
 3798SOL     OW13167  10.847  13.275  11.753
 3798SOL    HW113168  10.751  13.272  11.754
 3798SOL    HW213169  10.873  13.225  11.830
 3799SOL     OW13170   0.065   4.555  11.948
 3799SOL    HW113171   0.138   4.609  11.919
 3799SOL    HW213172   0.077   4.471  11.902
 3800SOL     OW13173  13.810  10.030  12.435
 3800SOL    HW113174  13.833  10.089  12.507
 3800SOL    HW213175  13.891   9.985  12.414
 3801SOL     OW13176   6.327   7.336   5.693
 3801SOL    HW113177   6.369   7.338   5.778
 3801SOL    HW213178   6.367   7.262   5.647
 3802SOL     OW13179   8.242   6.821  14.020
 3802SOL    HW113180   8.179   6.809  13.949
 3802SOL    HW213181   8.205   6.772  14.093
 3803SOL     OW13182   9.993   2.926  13.890
 3803SOL    HW113183  10.079   2.931  13.933
 3803SOL    HW213184  10.004   2.857  13.825
 3804SOL     OW13185   4.783   7.936   0.946
 3804SOL    HW113186   4.832   8.008   0.987
 3804SOL    HW213187   4.849   7.872   0.922
 3805SOL     OW13188   6.901  14.644   8.896
 3805SOL    HW113189   6.945  14.559   8.897
 3805SOL    HW213190   6.965  14.703   8.856
 3806SOL     OW13191  13.935  12.394  12.758
 3806SOL    HW113192  14.003  12.328  12.752
 3806SOL    HW213193  13.941  12.426  12.848
 3807SOL     OW13194  13.726  13.278   0.817
 3807SOL    HW113195  13.757  13.364   0.791
 3807SOL    HW213196  13.800  13.237   0.861
 3808SOL     OW13197   3.299  14.749   1.414
 3808SOL    HW113198   3.331  14.833   1.383
 3808SOL    HW213199   3.258  14.769   1.498
 3809SOL     OW13200   9.867   8.854   8.375
 3809SOL    HW113201   9.869   8.803   8.456
 3809SOL    HW213202   9.860   8.945   8.404
 3810SOL     OW13203  14.445   0.160   6.918
 3810SOL    HW113204  14.451   0.241   6.867
 3810SOL    HW213205  14.533   0.148   6.953
 3811SOL     OW13206  13.739   7.550   3.125
 3811SOL    HW113207  13.729   7.634   3.170
 3811SOL    HW213208  13.786   7.571   3.045
 3812SOL     OW13209   5.390  14.331   3.051
 3812SOL    HW113210   5.336  14.307   2.976
 3812SOL    HW213211   5.406  14.249   3.097
 3813SOL     OW13212  14.326   5.771   8.320
 3813SOL    HW113213  14.237   5.736   8.313
 3813SOL    HW213214  14.367   5.720   8.389
 3814SOL     OW13215   6.126  14.056   7.904
 3814SOL    HW113216   6.149  14.000   7.830
 3814SOL    HW213217   6.030  14.054   7.907
 3815SOL     OW13218  13.626  13.535   4.643
 3815SOL    HW113219  13.559  13.469   4.622
 3815SOL    HW213220  13.577  13.611   4.672
 3816SOL     OW13221  11.994   9.394   5.119
 3816SOL    HW113222  12.029   9.347   5.044
 3816SOL    HW213223  11.929   9.335   5.157
 3817SOL     OW13224   1.711  14.327   1.551
 3817SOL    HW113225   1.728  14.412   1.512
 3817SOL    HW213226   1.736  14.264   1.484
 3818SOL     OW13227   9.955  10.035   0.557
 3818SOL    HW113228   9.886   9.977   0.525
 3818SOL    HW213229   9.919  10.123   0.548
 3819SOL     OW13230  12.434   9.794  10.236
 3819SOL    HW113231  12.482   9.876  10.226
 3819SOL    HW213232  12.379   9.808  10.313
 3820SOL     OW13233  14.233  14.089  11.687
 3820SOL    HW113234  14.220  13.995  11.696
 3820SOL    HW213235  14.315  14.098  11.639
 3821SOL     OW13236   9.406   7.327   1.594
 3821SOL    HW113237   9.350   7.291   1.526
 3821SOL    HW213238   9.349   7.334   1.671
 3822SOL     OW13239   4.671  10.610   7.040
 3822SOL    HW113240   4.616  10.660   7.100
 3822SOL    HW213241   4.610  10.561   6.985
 3823SOL     OW13242   5.334   3.507   0.364
 3823SOL    HW113243   5.308   3.424   0.403
 3823SOL    HW213244   5.418   3.488   0.321
 3824SOL     OW13245   1.486  12.317   1.645
 3824SOL    HW113246   1.461  12.311   1.737
 3824SOL    HW213247   1.577  12.287   1.643
 3825SOL     OW13248   8.567   1.086  13.399
 3825SOL    HW113249   8.477   1.113  13.418
 3825SOL    HW213250   8.581   1.009  13.453
 3826SOL     OW13251   4.791   7.804  14.105
 3826SOL    HW113252   4.856   7.776  14.169
 3826SOL    HW213253   4.836   7.799  14.020
 3827SOL     OW13254   2.634  10.959   8.874
 3827SOL    HW113255   2.714  10.949   8.823
 3827SOL    HW213256   2.647  11.040   8.924
 3828SOL     OW13257  14.081  10.538   3.252
 3828SOL    HW113258  14.096  10.444   3.242
 3828SOL    HW213259  14.006  10.556   3.194
 3829SOL     OW13260   8.627   8.778   2.919
 3829SOL    HW113261   8.564   8.712   2.947
 3829SOL    HW213262   8.677   8.797   2.999
 3830SOL     OW13263  10.441   3.484  11.453
 3830SOL    HW113264  10.410   3.571  11.428
 3830SOL    HW213265  10.521   3.500  11.502
 3831SOL     OW13266   7.810   5.187  12.850
 3831SOL    HW113267   7.810   5.282  12.844
 3831SOL    HW213268   7.719   5.163  12.865
 3832SOL     OW13269   3.306   2.595   6.121
 3832SOL    HW113270   3.228   2.617   6.071
 3832SOL    HW213271   3.350   2.679   6.135
 3833SOL     OW13272   1.810   5.811   0.085
 3833SOL    HW113273   1.821   5.739   0.148
 3833SOL    HW213274   1.892   5.814   0.037
 3834SOL     OW13275   1.739   0.186   6.657
 3834SOL    HW113276   1.644   0.173   6.659
 3834SOL    HW213277   1.774   0.100   6.631
 3835SOL     OW13278   2.248   5.375  11.093
 3835SOL    HW113279   2.326   5.415  11.132
 3835SOL    HW213280   2.178   5.438  11.109
 3836SOL     OW13281   9.046  12.106   5.792
 3836SOL    HW113282   9.113  12.166   5.760
 3836SOL    HW213283   8.988  12.162   5.844
 3837SOL     OW13284   7.441  10.828   3.297
 3837SOL    HW113285   7.389  10.770   3.352
 3837SOL    HW213286   7.525  10.783   3.286
 3838SOL     OW13287   0.622   9.039  11.576
 3838SOL    HW113288   0.534   9.065  11.605
 3838SOL    HW213289   0.644   9.103  11.508
 3839SOL     OW13290  10.899  13.498   3.559
 3839SOL    HW113291  10.896  13.469   3.468
 3839SOL    HW213292  10.992  13.507   3.579
 3840SOL     OW13293  14.270   4.196  12.975
 3840SOL    HW113294  14.364   4.195  12.993
 3840SOL    HW213295  14.247   4.288  12.974
 3841SOL     OW13296   6.637   2.673   6.037
 3841SOL    HW113297   6.700   2.745   6.042
 3841SOL    HW213298   6.572   2.692   6.103
 3842SOL     OW13299  14.582  10.720   7.016
 3842SOL    HW113300  14.654  10.690   7.072
 3842SOL    HW213301  14.503  10.705   7.068
 3843SOL     OW13302  13.189   7.974  10.115
 3843SOL    HW113303  13.279   8.003  10.095
 3843SOL    HW213304  13.196   7.879  10.123
 3844SOL     OW13305   3.103  13.155   9.862
 3844SOL    HW113306   3.110  13.078   9.805
 3844SOL    HW213307   3.011  13.182   9.853
 3845SOL     OW13308   0.882  12.355   4.818
 3845SOL    HW113309   0.963  12.375   4.866
 3845SOL    HW213310   0.898  12.267   4.782
 3846SOL     OW13311  10.368  11.701   5.610
 3846SOL    HW113312  10.409  11.765   5.552
 3846SOL    HW213313  10.342  11.629   5.553
 3847SOL     OW13314  14.652   1.858   7.418
 3847SOL    HW113315  14.746   1.875   7.407
 3847SOL    HW213316  14.610   1.941   7.395
 3848SOL     OW13317   4.311  12.548  12.192
 3848SOL    HW113318   4.383  12.528  12.132
 3848SOL    HW213319   4.243  12.484  12.170
 3849SOL     OW13320  11.128  13.327   7.459
 3849SOL    HW113321  11.186  13.253   7.475
 3849SOL    HW213322  11.088  13.346   7.544
 3850SOL     OW13323   6.177   2.072  12.201
 3850SOL    HW113324   6.135   2.082  12.286
 3850SOL    HW213325   6.131   1.998  12.160
 3851SOL     OW13326  12.127   9.630  14.075
 3851SOL    HW113327  12.098   9.540  14.057
 3851SOL    HW213328  12.180   9.653  13.999
 3852SOL     OW13329   2.732   3.384   9.962
 3852SOL    HW113330   2.644   3.377   9.924
 3852SOL    HW213331   2.721   3.355  10.053
 3853SOL     OW13332   8.477  11.617   5.451
 3853SOL    HW113333   8.477  11.522   5.439
 3853SOL    HW213334   8.385  11.640   5.464
 3854SOL     OW13335   6.080  10.321   0.868
 3854SOL    HW113336   6.110  10.308   0.778
 3854SOL    HW213337   6.001  10.267   0.875
 3855SOL     OW13338   9.075  11.912  10.389
 3855SOL    HW113339   9.113  11.842  10.442
 3855SOL    HW213340   9.033  11.867  10.316
 3856SOL     OW13341   0.697   1.595  12.772
 3856SOL    HW113342   0.616   1.617  12.819
 3856SOL    HW213343   0.670   1.586  12.681
 3857SOL     OW13344   6.627  10.293   7.375
 3857SOL    HW113345   6.556  10.257   7.428
 3857SOL    HW213346   6.700  10.233   7.388
 3858SOL     OW13347   6.775  13.027   6.601
 3858SOL    HW113348   6.848  13.001   6.546
 3858SOL    HW213349   6.792  12.985   6.685
 3859SOL     OW13350   4.935   2.036   5.873
 3859SOL    HW113351   4.924   2.096   5.799
 3859SOL    HW213352   4.846   2.013   5.899
 3860SOL     OW13353   0.720   5.475   8.124
 3860SOL    HW113354   0.811   5.466   8.096
 3860SOL    HW213355   0.711   5.566   8.152
 3861SOL     OW13356   0.907  12.838  10.347
 3861SOL    HW113357   0.940  12.885  10.424
 3861SOL    HW213358   0.969  12.858  10.277
 3862SOL     OW13359   6.963   5.066   4.916
 3862SOL    HW113360   6.978   4.972   4.925
 3862SOL    HW213361   7.050   5.104   4.912
 3863SOL     OW13362  10.780   4.328  13.078
 3863SOL    HW113363  10.782   4.266  13.151
 3863SOL    HW213364  10.868   4.324  13.041
 3864SOL     OW13365   6.853   5.734   9.964
 3864SOL    HW113366   6.816   5.805  10.016
 3864SOL    HW213367   6.838   5.761   9.873
 3865SOL     OW13368   6.190   5.057   6.913
 3865SOL    HW113369   6.255   5.053   6.984
 3865SOL    HW213370   6.235   5.104   6.843
 3866SOL     OW13371   1.496  10.433   5.740
 3866SOL    HW113372   1.579  10.388   5.722
 3866SOL    HW213373   1.504  10.460   5.832
 3867SOL     OW13374  12.960  12.953   7.148
 3867SOL    HW113375  12.943  12.912   7.063
 3867SOL    HW213376  13.056  12.958   7.154
 3868SOL     OW13377   3.317   2.278   9.163
 3868SOL    HW113378   3.359   2.347   9.111
 3868SOL    HW213379   3.285   2.215   9.099
 3869SOL     OW13380   0.626   9.460  12.557
 3869SOL    HW113381   0.683   9.384  12.545
 3869SOL    HW213382   0.662   9.505  12.634
 3870SOL     OW13383   8.207  11.982  14.228
 3870SOL    HW113384   8.182  11.989  14.320
 3870SOL    HW213385   8.174  11.897  14.200
 3871SOL     OW13386   4.134   5.540   8.485
 3871SOL    HW113387   4.088   5.624   8.493
 3871SOL    HW213388   4.070   5.482   8.444
 3872SOL     OW13389  14.575   9.639   8.632
 3872SOL    HW113390  14.603   9.548   8.620
 3872SOL    HW213391  14.539   9.642   8.720
 3873SOL     OW13392   6.429   9.743  11.814
 3873SOL    HW113393   6.510   9.784  11.844
 3873SOL    HW213394   6.439   9.738  11.719
 3874SOL     OW13395   1.810  14.241   9.758
 3874SOL    HW113396   1.844  14.252   9.847
 3874SOL    HW213397   1.748  14.168   9.765
 3875SOL     OW13398   2.655  12.024  13.985
 3875SOL    HW113399   2.737  12.026  14.034
 3875SOL    HW213400   2.591  11.987  14.046
 3876SOL     OW13401   9.137   0.132   6.259
 3876SOL    HW113402   9.179   0.125   6.174
 3876SOL    HW213403   9.175   0.210   6.298
 3877SOL     OW13404   4.910   0.227   5.571
 3877SOL    HW113405   4.873   0.304   5.613
 3877SOL    HW213406   4.959   0.262   5.496
 3878SOL     OW13407  11.736   2.865   7.397
 3878SOL    HW113408  11.652   2.851   7.441
 3878SOL    HW213409  11.798   2.809   7.444
 3879SOL     OW13410  14.533   5.013   0.197
 3879SOL    HW113411  14.454   5.045   0.153
 3879SOL    HW213412  14.511   4.923   0.221
 3880SOL     OW13413   3.464   5.298   7.483
 3880SOL    HW113414   3.460   5.370   7.419
 3880SOL    HW213415   3.455   5.341   7.568
 3881SOL     OW13416  13.608  12.552   8.627
 3881SOL    HW113417  13.527  12.602   8.616
 3881SOL    HW213418  13.652  12.560   8.543
 3882SOL     OW13419   0.530   5.610   3.751
 3882SOL    HW113420   0.474   5.534   3.764
 3882SOL    HW213421   0.504   5.645   3.666
 3883SOL     OW13422  10.559   7.056   5.399
 3883SOL    HW113423  10.500   6.984   5.419
 3883SOL    HW213424  10.566   7.056   5.303
 3884SOL     OW13425   8.355   8.624  10.097
 3884SOL    HW113426   8.425   8.656  10.041
 3884SOL    HW213427   8.348   8.690  10.167
 3885SOL     OW13428   9.502   2.553   5.834
 3885SOL    HW113429   9.438   2.556   5.906
 3885SOL    HW213430   9.449   2.557   5.755
 3886SOL     OW13431  14.661   3.677  14.776
 3886SOL    HW113432  14.604   3.753  14.787
 3886SOL    HW213433  14.605   3.602  14.797
 3887SOL     OW13434  10.301   7.071   2.597
 3887SOL    HW113435  10.315   7.154   2.642
 3887SOL    HW213436  10.231   7.029   2.647
 3888SOL     OW13437   9.363  13.263   5.633
 3888SOL    HW113438   9.318  13.295   5.711
 3888SOL    HW213439   9.425  13.198   5.666
 3889SOL     OW13440  14.196  10.681   8.524
 3889SOL    HW113441  14.255  10.608   8.505
 3889SOL    HW213442  14.246  10.759   8.502
 3890SOL     OW13443  10.799   3.168   9.297
 3890SOL    HW113444  10.802   3.078   9.263
 3890SOL    HW213445  10.889   3.186   9.323
 3891SOL     OW13446   6.611  14.196  11.858
 3891SOL    HW113447   6.549  14.125  11.877
 3891SOL    HW213448   6.667  14.161  11.789
 3892SOL     OW13449   1.979   8.446  14.721
 3892SOL    HW113450   1.971   8.540  14.734
 3892SOL    HW213451   2.065   8.435  14.681
 3893SOL     OW13452   1.296   5.828   2.503
 3893SOL    HW113453   1.233   5.866   2.441
 3893SOL    HW213454   1.257   5.744   2.527
 3894SOL     OW13455  10.806   4.895   7.201
 3894SOL    HW113456  10.866   4.933   7.136
 3894SOL    HW213457  10.767   4.820   7.156
 3895SOL     OW13458   2.170   6.066   3.099
 3895SOL    HW113459   2.195   6.147   3.144
 3895SOL    HW213460   2.227   5.999   3.137
 3896SOL     OW13461   8.705   0.202   7.528
 3896SOL    HW113462   8.798   0.214   7.546
 3896SOL    HW213463   8.674   0.145   7.599
 3897SOL     OW13464   5.075   9.243  10.981
 3897SOL    HW113465   5.164   9.212  10.999
 3897SOL    HW213466   5.060   9.312  11.046
 3898SOL     OW13467  13.900   4.724  12.677
 3898SOL    HW113468  13.960   4.785  12.635
 3898SOL    HW213469  13.815   4.768  12.674
 3899SOL     OW13470   9.393   2.726  12.329
 3899SOL    HW113471   9.384   2.690  12.240
 3899SOL    HW213472   9.472   2.780  12.325
 3900SOL     OW13473   2.111   5.758   2.351
 3900SOL    HW113474   2.056   5.741   2.428
 3900SOL    HW213475   2.135   5.671   2.319
 3901SOL     OW13476   7.531  11.955   2.644
 3901SOL    HW113477   7.567  11.918   2.724
 3901SOL    HW213478   7.608  11.974   2.590
 3902SOL     OW13479  11.475   0.947  14.756
 3902SOL    HW113480  11.519   0.884  14.814
 3902SOL    HW213481  11.489   1.032  14.797
 3903SOL     OW13482   2.551   1.589   4.116
 3903SOL    HW113483   2.592   1.633   4.042
 3903SOL    HW213484   2.459   1.583   4.093
 3904SOL     OW13485   2.799   4.222   9.951
 3904SOL    HW113486   2.772   4.252   9.864
 3904SOL    HW213487   2.744   4.145   9.968
 3905SOL     OW13488   4.058   0.905   6.167
 3905SOL    HW113489   4.052   0.831   6.107
 3905SOL    HW213490   4.041   0.868   6.254
 3906SOL     OW13491   2.396  12.674   6.422
 3906SOL    HW113492   2.491  12.668   6.409
 3906SOL    HW213493   2.378  12.768   6.423
 3907SOL     OW13494  11.761   7.859  14.511
 3907SOL    HW113495  11.842   7.811  14.496
 3907SOL    HW213496  11.773   7.899  14.598
 3908SOL     OW13497   4.344   0.572   0.991
 3908SOL    HW113498   4.282   0.499   0.992
 3908SOL    HW213499   4.338   0.607   0.901
 3909SOL     OW13500  12.121  12.991   2.451
 3909SOL    HW113501  12.030  13.020   2.451
 3909SOL    HW213502  12.154  13.018   2.365
 3910SOL     OW13503   9.719  14.205   6.300
 3910SOL    HW113504   9.766  14.128   6.269
 3910SOL    HW213505   9.729  14.203   6.395
 3911SOL     OW13506   7.883  12.475   4.255
 3911SOL    HW113507   7.958  12.488   4.197
 3911SOL    HW213508   7.831  12.555   4.246
 3912SOL     OW13509  12.574   2.062   5.739
 3912SOL    HW113510  12.632   1.990   5.766
 3912SOL    HW213511  12.495   2.049   5.791
 3913SOL     OW13512  11.408   6.093   8.222
 3913SOL    HW113513  11.427   6.080   8.315
 3913SOL    HW213514  11.316   6.119   8.220
 3914SOL     OW13515  14.596   1.245  10.662
 3914SOL    HW113516  14.673   1.266  10.610
 3914SOL    HW213517  14.578   1.153  10.641
 3915SOL     OW13518   6.594   8.011  12.952
 3915SOL    HW113519   6.624   8.067  13.024
 3915SOL    HW213520   6.522   7.960  12.990
 3916SOL     OW13521   4.548  13.186   6.550
 3916SOL    HW113522   4.472  13.234   6.518
 3916SOL    HW213523   4.523  13.156   6.637
 3917SOL     OW13524   7.457   9.405   4.588
 3917SOL    HW113525   7.456   9.500   4.601
 3917SOL    HW213526   7.512   9.392   4.511
 3918SOL     OW13527  13.084  13.833   5.352
 3918SOL    HW113528  13.135  13.771   5.404
 3918SOL    HW213529  13.116  13.823   5.263
 3919SOL     OW13530  13.236   7.972  12.797
 3919SOL    HW113531  13.252   8.029  12.872
 3919SOL    HW213532  13.287   8.011  12.726
 3920SOL     OW13533   3.314   4.800   6.936
 3920SOL    HW113534   3.249   4.853   6.982
 3920SOL    HW213535   3.395   4.813   6.986
 3921SOL     OW13536  12.331  12.497  10.139
 3921SOL    HW113537  12.320  12.417  10.189
 3921SOL    HW213538  12.254  12.549  10.160
 3922SOL     OW13539   3.516  13.870   8.796
 3922SOL    HW113540   3.499  13.953   8.841
 3922SOL    HW213541   3.601  13.842   8.829
 3923SOL     OW13542  13.848   4.530  14.444
 3923SOL    HW113543  13.763   4.514  14.485
 3923SOL    HW213544  13.900   4.572  14.513
 3924SOL     OW13545   2.947   4.855  14.837
 3924SOL    HW113546   2.991   4.888  14.759
 3924SOL    HW213547   3.018   4.824   0.015
 3925SOL     OW13548  11.496   2.616   8.393
 3925SOL    HW113549  11.511   2.522   8.391
 3925SOL    HW213550  11.524   2.644   8.479
 3926SOL     OW13551  11.715   4.212   1.406
 3926SOL    HW113552  11.773   4.161   1.461
 3926SOL    HW213553  11.697   4.292   1.456
 3927SOL     OW13554   9.891  11.272   8.162
 3927SOL    HW113555   9.927  11.206   8.102
 3927SOL    HW213556   9.800  11.283   8.134
 3928SOL     OW13557   0.890   3.940   5.898
 3928SOL    HW113558   0.873   3.997   5.973
 3928SOL    HW213559   0.810   3.948   5.845
 3929SOL     OW13560  13.588  14.565   1.299
 3929SOL    HW113561  13.543  14.482   1.283
 3929SOL    HW213562  13.677  14.550   1.267
 3930SOL     OW13563   1.887  14.092  10.794
 3930SOL    HW113564   1.911  14.173  10.747
 3930SOL    HW213565   1.828  14.047  10.734
 3931SOL     OW13566   0.523   0.595   0.621
 3931SOL    HW113567   0.509   0.665   0.685
 3931SOL    HW213568   0.442   0.543   0.624
 3932SOL     OW13569   8.860   8.578  13.852
 3932SOL    HW113570   8.861   8.483  13.839
 3932SOL    HW213571   8.942   8.597  13.897
 3933SOL     OW13572   5.654  12.744  13.548
 3933SOL    HW113573   5.693  12.661  13.576
 3933SOL    HW213574   5.661  12.742  13.452
 3934SOL     OW13575   5.526   5.500   9.860
 3934SOL    HW113576   5.619   5.521   9.869
 3934SOL    HW213577   5.481   5.573   9.903
 3935SOL     OW13578  11.746  14.334  14.305
 3935SOL    HW113579  11.700  14.263  14.348
 3935SOL    HW213580  11.693  14.412  14.323
 3936SOL     OW13581   7.620   3.352   4.728
 3936SOL    HW113582   7.650   3.287   4.665
 3936SOL    HW213583   7.699   3.382   4.772
 3937SOL     OW13584   4.884  14.482   3.387
 3937SOL    HW113585   4.900  14.389   3.403
 3937SOL    HW213586   4.937  14.527   3.453
 3938SOL     OW13587   0.102   4.838   5.358
 3938SOL    HW113588   0.186   4.804   5.388
 3938SOL    HW213589   0.125   4.906   5.294
 3939SOL     OW13590   6.230   3.516   8.942
 3939SOL    HW113591   6.290   3.496   9.013
 3939SOL    HW213592   6.192   3.601   8.966
 3940SOL     OW13593  13.260  13.713   9.337
 3940SOL    HW113594  13.167  13.736   9.329
 3940SOL    HW213595  13.296  13.733   9.250
 3941SOL     OW13596  11.937   8.931  11.863
 3941SOL    HW113597  11.881   8.939  11.941
 3941SOL    HW213598  11.878   8.944  11.789
 3942SOL     OW13599   9.949   2.462   8.379
 3942SOL    HW113600   9.942   2.370   8.354
 3942SOL    HW213601   9.971   2.460   8.472
 3943SOL     OW13602   8.446   9.675  10.151
 3943SOL    HW113603   8.518   9.624  10.189
 3943SOL    HW213604   8.458   9.763  10.188
 3944SOL     OW13605   2.313  10.946  10.654
 3944SOL    HW113606   2.223  10.969  10.680
 3944SOL    HW213607   2.306  10.918  10.563
 3945SOL     OW13608   0.829   6.940   0.841
 3945SOL    HW113609   0.874   6.913   0.761
 3945SOL    HW213610   0.891   6.920   0.911
 3946SOL     OW13611   6.335   1.409   9.074
 3946SOL    HW113612   6.283   1.330   9.060
 3946SOL    HW213613   6.422   1.387   9.042
 3947SOL     OW13614   6.163  11.910   6.671
 3947SOL    HW113615   6.131  11.825   6.640
 3947SOL    HW213616   6.117  11.974   6.616
 3948SOL     OW13617  13.856   8.002  14.836
 3948SOL    HW113618  13.922   8.004  14.766
 3948SOL    HW213619  13.779   8.042  14.797
 3949SOL     OW13620  10.775  12.729   2.198
 3949SOL    HW113621  10.742  12.649   2.237
 3949SOL    HW213622  10.864  12.708   2.169
 3950SOL     OW13623   3.634   5.545   7.174
 3950SOL    HW113624   3.667   5.634   7.162
 3950SOL    HW213625   3.599   5.521   7.088
 3951SOL     OW13626   1.992   9.960   1.095
 3951SOL    HW113627   2.031   9.965   1.183
 3951SOL    HW213628   1.939  10.039   1.088
 3952SOL     OW13629   0.971   5.982  10.219
 3952SOL    HW113630   1.007   5.894  10.227
 3952SOL    HW213631   0.944   6.006  10.308
 3953SOL     OW13632   9.200   9.611  10.551
 3953SOL    HW113633   9.112   9.591  10.521
 3953SOL    HW213634   9.235   9.528  10.583
 3954SOL     OW13635  11.452  13.302   9.056
 3954SOL    HW113636  11.533  13.352   9.057
 3954SOL    HW213637  11.383  13.369   9.049
 3955SOL     OW13638   3.264   6.659   1.634
 3955SOL    HW113639   3.331   6.617   1.688
 3955SOL    HW213640   3.276   6.752   1.650
 3956SOL     OW13641  12.550   4.886  11.298
 3956SOL    HW113642  12.596   4.965  11.269
 3956SOL    HW213643  12.506   4.911  11.379
 3957SOL     OW13644   4.670   6.178  10.080
 3957SOL    HW113645   4.758   6.142  10.090
 3957SOL    HW213646   4.657   6.184   9.986
 3958SOL     OW13647   3.585  12.369   6.071
 3958SOL    HW113648   3.654  12.435   6.086
 3958SOL    HW213649   3.517  12.392   6.134
 3959SOL     OW13650  12.146   9.510  13.331
 3959SOL    HW113651  12.162   9.458  13.410
 3959SOL    HW213652  12.068   9.469  13.292
 3960SOL     OW13653  11.395   7.238  13.473
 3960SOL    HW113654  11.377   7.283  13.555
 3960SOL    HW213655  11.483   7.267  13.447
 3961SOL     OW13656   3.161  11.672   6.697
 3961SOL    HW113657   3.238  11.714   6.658
 3961SOL    HW213658   3.191  11.644   6.784
 3962SOL     OW13659   2.787   4.134   0.925
 3962SOL    HW113660   2.707   4.144   0.976
 3962SOL    HW213661   2.787   4.209   0.866
 3963SOL     OW13662   8.965   4.838   8.535
 3963SOL    HW113663   9.048   4.863   8.575
 3963SOL    HW213664   8.921   4.921   8.517
 3964SOL     OW13665  11.990   8.157   0.319
 3964SOL    HW113666  12.021   8.121   0.402
 3964SOL    HW213667  12.070   8.168   0.266
 3965SOL     OW13668  11.572  13.361  12.587
 3965SOL    HW113669  11.639  13.361  12.655
 3965SOL    HW213670  11.499  13.312  12.625
 3966SOL     OW13671   9.669   3.722   3.834
 3966SOL    HW113672   9.737   3.667   3.796
 3966SOL    HW213673   9.622   3.758   3.759
 3967SOL     OW13674   1.438   1.644   7.471
 3967SOL    HW113675   1.364   1.589   7.495
 3967SOL    HW213676   1.490   1.591   7.410
 3968SOL     OW13677   4.311  14.468   2.643
 3968SOL    HW113678   4.219  14.490   2.659
 3968SOL    HW213679   4.323  14.383   2.686
 3969SOL     OW13680  11.958   6.953   6.926
 3969SOL    HW113681  11.872   6.919   6.949
 3969SOL    HW213682  11.948   7.048   6.927
 3970SOL     OW13683  12.866   0.926  14.771
 3970SOL    HW113684  12.880   0.837  14.738
 3970SOL    HW213685  12.795   0.961  14.717
 3971SOL     OW13686   3.083   2.203   0.218
 3971SOL    HW113687   3.042   2.246   0.144
 3971SOL    HW213688   3.135   2.271   0.260
 3972SOL     OW13689   4.962   8.306   0.977
 3972SOL    HW113690   5.023   8.295   0.904
 3972SOL    HW213691   4.962   8.222   1.022
 3973SOL     OW13692   8.257   5.038   7.755
 3973SOL    HW113693   8.302   4.960   7.787
 3973SOL    HW213694   8.324   5.087   7.708
 3974SOL     OW13695   2.883  10.742   4.516
 3974SOL    HW113696   2.912  10.785   4.597
 3974SOL    HW213697   2.788  10.740   4.522
 3975SOL     OW13698  14.865  14.539   8.948
 3975SOL    HW113699  14.846  14.511   8.858
 3975SOL    HW213700   0.030  14.463   8.988
 3976SOL     OW13701   9.117   2.681   4.943
 3976SOL    HW113702   9.091   2.650   4.856
 3976SOL    HW213703   9.035   2.711   4.983
 3977SOL     OW13704   1.527   7.263   7.678
 3977SOL    HW113705   1.513   7.342   7.730
 3977SOL    HW213706   1.598   7.216   7.722
 3978SOL     OW13707   2.625   7.150   8.791
 3978SOL    HW113708   2.614   7.231   8.741
 3978SOL    HW213709   2.711   7.160   8.833
 3979SOL     OW13710   1.113   4.211  11.715
 3979SOL    HW113711   1.177   4.167  11.660
 3979SOL    HW213712   1.039   4.150  11.721
 3980SOL     OW13713   1.955   9.640   4.414
 3980SOL    HW113714   1.877   9.593   4.383
 3980SOL    HW213715   1.955   9.626   4.509
 3981SOL     OW13716   8.838   0.301   9.832
 3981SOL    HW113717   8.780   0.322   9.904
 3981SOL    HW213718   8.891   0.228   9.864
 3982SOL     OW13719  12.198  10.165   2.126
 3982SOL    HW113720  12.293  10.167   2.135
 3982SOL    HW213721  12.165  10.206   2.206
 3983SOL     OW13722  13.834   9.550  14.324
 3983SOL    HW113723  13.905   9.528  14.384
 3983SOL    HW213724  13.870   9.616  14.266
 3984SOL     OW13725  14.781   3.154  13.755
 3984SOL    HW113726  14.800   3.238  13.712
 3984SOL    HW213727  14.701   3.169  13.805
 3985SOL     OW13728  12.580   4.940   8.971
 3985SOL    HW113729  12.619   4.894   8.897
 3985SOL    HW213730  12.651   4.947   9.035
 3986SOL     OW13731  14.476   0.989   4.901
 3986SOL    HW113732  14.439   1.057   4.844
 3986SOL    HW213733  14.458   1.021   4.990
 3987SOL     OW13734  10.760   0.653  13.633
 3987SOL    HW113735  10.693   0.632  13.697
 3987SOL    HW213736  10.720   0.720  13.577
 3988SOL     OW13737  11.418   9.117   8.287
 3988SOL    HW113738  11.473   9.048   8.323
 3988SOL    HW213739  11.462   9.198   8.309
 3989SOL     OW13740   7.090   9.407   2.046
 3989SOL    HW113741   7.049   9.323   2.027
 3989SOL    HW213742   7.114   9.443   1.960
 3990SOL     OW13743   4.013  13.016   7.047
 3990SOL    HW113744   4.010  13.110   7.028
 3990SOL    HW213745   4.080  13.007   7.114
 3991SOL     OW13746   1.586  13.327  14.661
 3991SOL    HW113747   1.667  13.276  14.667
 3991SOL    HW213748   1.526  13.283  14.721
 3992SOL     OW13749   1.301  12.683   4.159
 3992SOL    HW113750   1.303  12.603   4.211
 3992SOL    HW213751   1.391  12.716   4.163
 3993SOL     OW13752   0.925  13.801   0.264
 3993SOL    HW113753   0.878  13.718   0.263
 3993SOL    HW213754   0.944  13.816   0.357
 3994SOL     OW13755   7.633   0.286   2.428
 3994SOL    HW113756   7.635   0.215   2.365
 3994SOL    HW213757   7.588   0.357   2.382
 3995SOL     OW13758   1.247   0.494   6.911
 3995SOL    HW113759   1.156   0.517   6.891
 3995SOL    HW213760   1.266   0.419   6.854
 3996SOL     OW13761   2.286  11.503   1.470
 3996SOL    HW113762   2.319  11.567   1.406
 3996SOL    HW213763   2.351  11.433   1.469
 3997SOL     OW13764   7.603   2.588   8.402
 3997SOL    HW113765   7.604   2.656   8.334
 3997SOL    HW213766   7.549   2.625   8.472
 3998SOL     OW13767   1.926   7.707   1.200
 3998SOL    HW113768   1.988   7.712   1.127
 3998SOL    HW213769   1.954   7.632   1.251
 3999SOL     OW13770   1.807   7.983  14.264
 3999SOL    HW113771   1.847   8.016  14.345
 3999SOL    HW213772   1.810   7.888  14.273
 4000SOL     OW13773  12.228   4.579   0.057
 4000SOL    HW113774  12.240   4.662   0.011
 4000SOL    HW213775  12.135   4.559   0.047
 4001SOL     OW13776   6.530  12.266  12.424
 4001SOL    HW113777   6.479  12.255  12.344
 4001SOL    HW213778   6.503  12.351  12.459
 4002SOL     OW13779   9.524  11.450  10.771
 4002SOL    HW113780   9.513  11.359  10.798
 4002SOL    HW213781   9.439  11.490  10.786
 4003SOL     OW13782  11.125   0.973   0.324
 4003SOL    HW113783  11.114   0.894   0.270
 4003SOL    HW213784  11.171   0.943   0.402
 4004SOL     OW13785   7.688   1.954   9.419
 4004SOL    HW113786   7.684   1.992   9.507
 4004SOL    HW213787   7.687   1.859   9.435
 4005SOL     OW13788  11.731   9.547  10.348
 4005SOL    HW113789  11.756   9.489  10.276
 4005SOL    HW213790  11.637   9.561  10.337
 4006SOL     OW13791  13.446  13.133   3.225
 4006SOL    HW113792  13.529  13.160   3.186
 4006SOL    HW213793  13.462  13.044   3.257
 4007SOL     OW13794   4.048   5.256  13.195
 4007SOL    HW113795   4.138   5.249  13.164
 4007SOL    HW213796   4.000   5.189  13.145
 4008SOL     OW13797   1.690   7.912   1.768
 4008SOL    HW113798   1.687   7.837   1.708
 4008SOL    HW213799   1.680   7.874   1.855
 4009SOL     OW13800   9.443  12.804   7.465
 4009SOL    HW113801   9.472  12.873   7.525
 4009SOL    HW213802   9.498  12.729   7.487
 4010SOL     OW13803   6.110   8.375   4.640
 4010SOL    HW113804   6.073   8.461   4.661
 4010SOL    HW213805   6.204   8.391   4.630
 4011SOL     OW13806   0.036   7.887   7.519
 4011SOL    HW113807  14.862   7.824   7.469
 4011SOL    HW213808   0.010   7.873   7.610
 4012SOL     OW13809   5.959   1.503   0.778
 4012SOL    HW113810   5.980   1.549   0.697
 4012SOL    HW213811   5.993   1.559   0.848
 4013SOL     OW13812   6.632   5.040  13.493
 4013SOL    HW113813   6.544   5.038  13.454
 4013SOL    HW213814   6.664   5.129  13.476
 4014SOL     OW13815   4.372   7.088   4.859
 4014SOL    HW113816   4.285   7.052   4.843
 4014SOL    HW213817   4.426   7.012   4.881
 4015SOL     OW13818  14.104   9.461   4.728
 4015SOL    HW113819  14.182   9.500   4.688
 4015SOL    HW213820  14.099   9.501   4.815
 4016SOL     OW13821   8.829   3.725  14.459
 4016SOL    HW113822   8.843   3.696  14.368
 4016SOL    HW213823   8.916   3.743  14.493
 4017SOL     OW13824  14.396   2.555   9.501
 4017SOL    HW113825  14.403   2.629   9.560
 4017SOL    HW213826  14.461   2.493   9.533
 4018SOL     OW13827   8.190   9.456   8.431
 4018SOL    HW113828   8.241   9.415   8.501
 4018SOL    HW213829   8.167   9.384   8.372
 4019SOL     OW13830  11.573   4.405   0.213
 4019SOL    HW113831  11.499   4.466   0.210
 4019SOL    HW213832  11.537   4.321   0.186
 4020SOL     OW13833  10.820  10.763  11.045
 4020SOL    HW113834  10.883  10.804  10.986
 4020SOL    HW213835  10.735  10.791  11.013
 4021SOL     OW13836   3.833   9.766   4.736
 4021SOL    HW113837   3.794   9.683   4.761
 4021SOL    HW213838   3.903   9.742   4.674
 4022SOL     OW13839   3.349   9.725   9.091
 4022SOL    HW113840   3.432   9.712   9.046
 4022SOL    HW213841   3.329   9.640   9.129
 4023SOL     OW13842   2.726  14.482  11.861
 4023SOL    HW113843   2.669  14.484  11.938
 4023SOL    HW213844   2.781  14.405  11.874
 4024SOL     OW13845   3.560   8.278   8.697
 4024SOL    HW113846   3.644   8.307   8.660
 4024SOL    HW213847   3.579   8.192   8.734
 4025SOL     OW13848   6.995   6.106   5.937
 4025SOL    HW113849   6.989   6.153   5.854
 4025SOL    HW213850   7.077   6.136   5.976
 4026SOL     OW13851   5.835   4.969   1.569
 4026SOL    HW113852   5.787   4.886   1.573
 4026SOL    HW213853   5.919   4.947   1.528
 4027SOL     OW13854   3.016  11.829   7.010
 4027SOL    HW113855   2.924  11.809   6.991
 4027SOL    HW213856   3.045  11.754   7.063
 4028SOL     OW13857   9.622   1.438   7.490
 4028SOL    HW113858   9.536   1.474   7.510
 4028SOL    HW213859   9.642   1.469   7.401
 4029SOL     OW13860   1.049   9.406  14.516
 4029SOL    HW113861   1.045   9.484  14.570
 4029SOL    HW213862   0.964   9.363  14.529
 4030SOL     OW13863   2.078   2.733   8.988
 4030SOL    HW113864   2.129   2.808   8.959
 4030SOL    HW213865   2.108   2.661   8.933
 4031SOL     OW13866  11.872   4.311  10.707
 4031SOL    HW113867  11.838   4.249  10.772
 4031SOL    HW213868  11.852   4.397  10.744
 4032SOL     OW13869   6.688  10.308   0.923
 4032SOL    HW113870   6.700  10.322   1.017
 4032SOL    HW213871   6.713  10.216   0.909
 4033SOL     OW13872   4.206   5.906   4.112
 4033SOL    HW113873   4.286   5.944   4.150
 4033SOL    HW213874   4.170   5.977   4.059
 4034SOL     OW13875   2.700   1.052   1.726
 4034SOL    HW113876   2.657   1.129   1.688
 4034SOL    HW213877   2.666   0.979   1.674
 4035SOL     OW13878   4.614   4.324  14.849
 4035SOL    HW113879   4.638   4.354  14.762
 4035SOL    HW213880   4.567   4.398   0.011
 4036SOL     OW13881  13.152  12.261   3.745
 4036SOL    HW113882  13.156  12.226   3.656
 4036SOL    HW213883  13.117  12.190   3.798
 4037SOL     OW13884  14.474   6.789   7.118
 4037SOL    HW113885  14.439   6.872   7.148
 4037SOL    HW213886  14.511   6.748   7.197
 4038SOL     OW13887  11.865   0.131  11.305
 4038SOL    HW113888  11.862   0.048  11.257
 4038SOL    HW213889  11.774   0.150  11.326
 4039SOL     OW13890   1.657   0.111   5.475
 4039SOL    HW113891   1.662   0.031   5.529
 4039SOL    HW213892   1.745   0.148   5.479
 4040SOL     OW13893  10.396  13.202  13.950
 4040SOL    HW113894  10.337  13.244  14.012
 4040SOL    HW213895  10.360  13.224  13.864
 4041SOL     OW13896  14.230   9.666   5.808
 4041SOL    HW113897  14.140   9.693   5.828
 4041SOL    HW213898  14.282   9.746   5.821
 4042SOL     OW13899   9.639   0.215  11.310
 4042SOL    HW113900   9.581   0.207  11.235
 4042SOL    HW213901   9.644   0.126  11.347
 4043SOL     OW13902  10.926   9.812   6.601
 4043SOL    HW113903  10.877   9.835   6.522
 4043SOL    HW213904  11.018   9.814   6.573
 4044SOL     OW13905  11.997   7.228   3.643
 4044SOL    HW113906  12.041   7.149   3.676
 4044SOL    HW213907  11.909   7.198   3.621
 4045SOL     OW13908  14.056  14.535   2.409
 4045SOL    HW113909  13.989  14.529   2.478
 4045SOL    HW213910  14.013  14.500   2.331
 4046SOL     OW13911   6.377  10.635   7.280
 4046SOL    HW113912   6.427  10.571   7.229
 4046SOL    HW213913   6.369  10.596   7.367
 4047SOL     OW13914   3.300   1.937   1.339
 4047SOL    HW113915   3.291   1.842   1.337
 4047SOL    HW213916   3.382   1.954   1.293
 4048SOL     OW13917   9.803  13.830  13.205
 4048SOL    HW113918   9.875  13.777  13.173
 4048SOL    HW213919   9.732  13.768  13.222
 4049SOL     OW13920  11.534   1.671   7.885
 4049SOL    HW113921  11.476   1.619   7.941
 4049SOL    HW213922  11.620   1.629   7.894
 4050SOL     OW13923  10.566   9.081   5.923
 4050SOL    HW113924  10.544   9.121   5.839
 4050SOL    HW213925  10.553   8.987   5.909
 4051SOL     OW13926  10.801   7.236   0.209
 4051SOL    HW113927  10.808   7.313   0.265
 4051SOL    HW213928  10.776   7.270   0.123
 4052SOL     OW13929  10.941   6.182   5.031
 4052SOL    HW113930  10.904   6.130   4.960
 4052SOL    HW213931  10.887   6.261   5.034
 4053SOL     OW13932  13.202   5.247   1.906
 4053SOL    HW113933  13.226   5.325   1.857
 4053SOL    HW213934  13.285   5.201   1.921
 4054SOL     OW13935   7.191   9.708  11.075
 4054SOL    HW113936   7.155   9.784  11.119
 4054SOL    HW213937   7.190   9.731  10.982
 4055SOL     OW13938   0.106   9.412  13.154
 4055SOL    HW113939   0.143   9.333  13.193
 4055SOL    HW213940   0.065   9.458  13.227
 4056SOL     OW13941  13.743  14.107   3.268
 4056SOL    HW113942  13.801  14.163   3.319
 4056SOL    HW213943  13.657  14.117   3.309
 4057SOL     OW13944   3.281   1.481   3.478
 4057SOL    HW113945   3.189   1.456   3.484
 4057SOL    HW213946   3.280   1.566   3.436
 4058SOL     OW13947   4.974   5.961  13.478
 4058SOL    HW113948   4.906   5.900  13.504
 4058SOL    HW213949   5.041   5.954  13.546
 4059SOL     OW13950   6.598  13.783   5.782
 4059SOL    HW113951   6.561  13.747   5.701
 4059SOL    HW213952   6.541  13.856   5.805
 4060SOL     OW13953   6.890   9.709  13.955
 4060SOL    HW113954   6.919   9.787  14.003
 4060SOL    HW213955   6.832   9.744  13.887
 4061SOL     OW13956   4.524   7.171   3.200
 4061SOL    HW113957   4.452   7.136   3.251
 4061SOL    HW213958   4.499   7.262   3.182
 4062SOL     OW13959   2.008   9.372  13.991
 4062SOL    HW113960   1.986   9.287  13.954
 4062SOL    HW213961   1.942   9.432  13.955
 4063SOL     OW13962   6.923   2.278   3.926
 4063SOL    HW113963   6.976   2.264   3.848
 4063SOL    HW213964   6.976   2.244   3.998
 4064SOL     OW13965  14.717   7.421   1.608
 4064SOL    HW113966  14.626   7.400   1.587
 4064SOL    HW213967  14.711   7.481   1.682
 4065SOL     OW13968   8.359   0.001   7.053
 4065SOL    HW113969   8.365  14.800   7.107
 4065SOL    HW213970   8.266   0.022   7.051
 4066SOL     OW13971   5.675   9.735   3.438
 4066SOL    HW113972   5.634   9.685   3.368
 4066SOL    HW213973   5.728   9.800   3.393
 4067SOL     OW13974  10.462  14.737   7.521
 4067SOL    HW113975  10.529  14.804   7.511
 4067SOL    HW213976  10.483  14.671   7.455
 4068SOL     OW13977   0.938   0.543   5.092
 4068SOL    HW113978   0.864   0.601   5.109
 4068SOL    HW213979   0.968   0.517   5.179
 4069SOL     OW13980  11.899   5.612  14.735
 4069SOL    HW113981  11.963   5.554  14.777
 4069SOL    HW213982  11.901   5.586  14.643
 4070SOL     OW13983   7.185   7.531   6.558
 4070SOL    HW113984   7.237   7.603   6.524
 4070SOL    HW213985   7.247   7.459   6.570
 4071SOL     OW13986   4.623   8.653  13.842
 4071SOL    HW113987   4.575   8.704  13.907
 4071SOL    HW213988   4.568   8.657  13.764
 4072SOL     OW13989   7.167   5.988   0.012
 4072SOL    HW113990   7.196   6.061   0.067
 4072SOL    HW213991   7.239   5.925   0.016
 4073SOL     OW13992  11.526   9.087   1.617
 4073SOL    HW113993  11.430   9.088   1.619
 4073SOL    HW213994  11.552   9.137   1.695
 4074SOL     OW13995   5.384   1.554  13.067
 4074SOL    HW113996   5.342   1.468  13.068
 4074SOL    HW213997   5.429   1.559  12.983
 4075SOL     OW13998   0.351  13.073   3.932
 4075SOL    HW113999   0.308  13.116   3.859
 4075SOL    HW214000   0.300  12.993   3.946
 4076SOL     OW14001   6.412  11.666   9.569
 4076SOL    HW114002   6.499  11.663   9.610
 4076SOL    HW214003   6.411  11.748   9.520
 4077SOL     OW14004   8.026   0.698   1.723
 4077SOL    HW114005   8.097   0.697   1.787
 4077SOL    HW214006   7.947   0.692   1.776
 4078SOL     OW14007  14.161   4.665  10.118
 4078SOL    HW114008  14.221   4.728  10.157
 4078SOL    HW214009  14.075   4.690  10.152
 4079SOL     OW14010  13.595   9.068   5.002
 4079SOL    HW114011  13.515   9.016   5.009
 4079SOL    HW214012  13.653   9.016   4.948
 4080SOL     OW14013   8.936   5.539   1.515
 4080SOL    HW114014   9.010   5.489   1.547
 4080SOL    HW214015   8.941   5.533   1.420
 4081SOL     OW14016   3.654  13.251   6.915
 4081SOL    HW114017   3.746  13.277   6.903
 4081SOL    HW214018   3.618  13.318   6.973
 4082SOL     OW14019   4.286   7.035   7.621
 4082SOL    HW114020   4.235   7.020   7.701
 4082SOL    HW214021   4.370   7.070   7.653
 4083SOL     OW14022  14.748   6.602   5.240
 4083SOL    HW114023  14.781   6.619   5.328
 4083SOL    HW214024  14.663   6.561   5.254
 4084SOL     OW14025   9.566   1.233   5.850
 4084SOL    HW114026   9.557   1.291   5.774
 4084SOL    HW214027   9.648   1.186   5.835
 4085SOL     OW14028  11.059   1.990   4.609
 4085SOL    HW114029  11.149   1.959   4.603
 4085SOL    HW214030  11.057   2.069   4.555
 4086SOL     OW14031  11.652   4.623   0.951
 4086SOL    HW114032  11.658   4.545   1.006
 4086SOL    HW214033  11.654   4.589   0.861
 4087SOL     OW14034  13.993   8.095   0.163
 4087SOL    HW114035  14.030   8.016   0.203
 4087SOL    HW214036  13.958   8.065   0.079
 4088SOL     OW14037   5.837   8.247  11.268
 4088SOL    HW114038   5.834   8.154  11.243
 4088SOL    HW214039   5.795   8.250  11.354
 4089SOL     OW14040   2.353   0.260   2.082
 4089SOL    HW114041   2.340   0.167   2.064
 4089SOL    HW214042   2.324   0.272   2.172
 4090SOL     OW14043  13.557   0.026  13.569
 4090SOL    HW114044  13.500  14.835  13.604
 4090SOL    HW214045  13.524   0.041  13.480
 4091SOL     OW14046  13.137  10.669  14.739
 4091SOL    HW114047  13.181  10.587  14.717
 4091SOL    HW214048  13.193  10.709  14.805
 4092SOL     OW14049   1.165  11.370   3.433
 4092SOL    HW114050   1.198  11.395   3.520
 4092SOL    HW214051   1.101  11.302   3.451
 4093SOL     OW14052   5.125  13.292   3.074
 4093SOL    HW114053   5.178  13.276   2.996
 4093SOL    HW214054   5.149  13.221   3.134
 4094SOL     OW14055  13.353   0.938  13.408
 4094SOL    HW114056  13.429   0.892  13.443
 4094SOL    HW214057  13.285   0.871  13.402
 4095SOL     OW14058   5.707  14.749  12.151
 4095SOL    HW114059   5.638  14.684  12.163
 4095SOL    HW214060   5.662  14.833  12.146
 4096SOL     OW14061  13.122   3.661   8.620
 4096SOL    HW114062  13.122   3.567   8.601
 4096SOL    HW214063  13.215   3.684   8.631
 4097SOL     OW14064   5.586  10.798   1.809
 4097SOL    HW114065   5.622  10.886   1.799
 4097SOL    HW214066   5.607  10.773   1.899
 4098SOL     OW14067  12.799   8.363  10.197
 4098SOL    HW114068  12.760   8.288  10.243
 4098SOL    HW214069  12.894   8.351  10.209
 4099SOL     OW14070  12.992  13.455   5.286
 4099SOL    HW114071  13.073  13.433   5.240
 4099SOL    HW214072  12.981  13.385   5.350
 4100SOL     OW14073   5.953  10.663   7.464
 4100SOL    HW114074   5.944  10.633   7.374
 4100SOL    HW214075   5.995  10.749   7.456
 4101SOL     OW14076   3.525   2.985   9.577
 4101SOL    HW114077   3.510   2.893   9.598
 4101SOL    HW214078   3.462   3.033   9.630
 4102SOL     OW14079  12.970  10.747   9.458
 4102SOL    HW114080  12.942  10.755   9.367
 4102SOL    HW214081  13.045  10.805   9.464
 4103SOL     OW14082  11.770  11.772   5.200
 4103SOL    HW114083  11.711  11.777   5.124
 4103SOL    HW214084  11.778  11.863   5.230
 4104SOL     OW14085   2.762   5.257  12.520
 4104SOL    HW114086   2.762   5.161  12.521
 4104SOL    HW214087   2.713   5.282  12.599
 4105SOL     OW14088   0.624   3.723  11.006
 4105SOL    HW114089   0.631   3.713  11.101
 4105SOL    HW214090   0.532   3.710  10.987
 4106SOL     OW14091  11.274  13.971   7.966
 4106SOL    HW114092  11.297  14.062   7.981
 4106SOL    HW214093  11.196  13.975   7.910
 4107SOL     OW14094   3.448  12.064   3.724
 4107SOL    HW114095   3.383  12.134   3.730
 4107SOL    HW214096   3.514  12.098   3.663
 4108SOL     OW14097   9.881   1.921  10.047
 4108SOL    HW114098   9.893   2.012  10.020
 4108SOL    HW214099   9.842   1.926  10.134
 4109SOL     OW14100   8.056   8.367   6.904
 4109SOL    HW114101   8.072   8.274   6.918
 4109SOL    HW214102   8.096   8.386   6.820
 4110SOL     OW14103  14.205  14.222   8.294
 4110SOL    HW114104  14.203  14.223   8.198
 4110SOL    HW214105  14.134  14.163   8.318
 4111SOL     OW14106  11.537   9.733  11.235
 4111SOL    HW114107  11.596   9.809  11.234
 4111SOL    HW214108  11.471   9.752  11.170
 4112SOL     OW14109   5.202   1.532   1.434
 4112SOL    HW114110   5.113   1.508   1.458
 4112SOL    HW214111   5.233   1.586   1.507
 4113SOL     OW14112  13.851   6.125   9.371
 4113SOL    HW114113  13.830   6.138   9.463
 4113SOL    HW214114  13.856   6.213   9.334
 4114SOL     OW14115  12.816   4.656   7.810
 4114SOL    HW114116  12.835   4.584   7.750
 4114SOL    HW214117  12.741   4.700   7.772
 4115SOL     OW14118   6.969   1.683  10.346
 4115SOL    HW114119   6.978   1.591  10.371
 4115SOL    HW214120   6.906   1.719  10.408
 4116SOL     OW14121   5.062   3.372  14.695
 4116SOL    HW114122   5.077   3.466  14.704
 4116SOL    HW214123   5.042   3.359  14.602
 4117SOL     OW14124   3.758  13.329  13.101
 4117SOL    HW114125   3.700  13.297  13.170
 4117SOL    HW214126   3.765  13.257  13.039
 4118SOL     OW14127   4.706   9.985  14.077
 4118SOL    HW114128   4.611   9.977  14.084
 4118SOL    HW214129   4.725   9.965  13.986
 4119SOL     OW14130   7.545   1.699  14.332
 4119SOL    HW114131   7.455   1.719  14.305
 4119SOL    HW214132   7.595   1.776  14.304
 4120SOL     OW14133  10.454  13.905   4.847
 4120SOL    HW114134  10.407  13.905   4.763
 4120SOL    HW214135  10.500  13.988   4.849
 4121SOL     OW14136  12.698   9.928   9.914
 4121SOL    HW114137  12.746   9.881   9.982
 4121SOL    HW214138  12.737   9.898   9.832
 4122SOL     OW14139   5.879   3.196   8.611
 4122SOL    HW114140   5.918   3.233   8.532
 4122SOL    HW214141   5.800   3.248   8.626
 4123SOL     OW14142   8.169   2.577   9.210
 4123SOL    HW114143   8.158   2.548   9.300
 4123SOL    HW214144   8.261   2.603   9.203
 4124SOL     OW14145   4.279  11.356   3.996
 4124SOL    HW114146   4.365  11.395   3.982
 4124SOL    HW214147   4.282  11.272   3.950
 4125SOL     OW14148  14.073  11.234   0.348
 4125SOL    HW114149  14.055  11.284   0.269
 4125SOL    HW214150  14.046  11.144   0.327
 4126SOL     OW14151  11.398   9.109  12.775
 4126SOL    HW114152  11.323   9.167  12.785
 4126SOL    HW214153  11.366   9.037  12.721
 4127SOL     OW14154  10.889   8.779   1.391
 4127SOL    HW114155  10.865   8.856   1.340
 4127SOL    HW214156  10.877   8.807   1.482
 4128SOL     OW14157   2.239   0.411   9.001
 4128SOL    HW114158   2.144   0.420   8.990
 4128SOL    HW214159   2.266   0.495   9.038
 4129SOL     OW14160  14.020  12.638   8.016
 4129SOL    HW114161  14.049  12.553   8.049
 4129SOL    HW214162  13.961  12.671   8.083
 4130SOL     OW14163  13.602  13.198   7.567
 4130SOL    HW114164  13.695  13.220   7.564
 4130SOL    HW214165  13.600  13.103   7.576
 4131SOL     OW14166   2.660  11.337   0.314
 4131SOL    HW114167   2.637  11.427   0.339
 4131SOL    HW214168   2.684  11.343   0.222
 4132SOL     OW14169   7.928  13.721   7.064
 4132SOL    HW114170   7.836  13.697   7.054
 4132SOL    HW214171   7.954  13.681   7.147
 4133SOL     OW14172   8.851   2.146  14.783
 4133SOL    HW114173   8.904   2.225  14.772
 4133SOL    HW214174   8.821   2.124  14.695
 4134SOL     OW14175  12.324  11.516   3.881
 4134SOL    HW114176  12.377  11.573   3.938
 4134SOL    HW214177  12.257  11.573   3.845
 4135SOL     OW14178   4.707   7.318   5.766
 4135SOL    HW114179   4.686   7.357   5.851
 4135SOL    HW214180   4.770   7.379   5.727
 4136SOL     OW14181   0.928  12.054   2.649
 4136SOL    HW114182   0.972  11.971   2.631
 4136SOL    HW214183   0.995  12.121   2.633
 4137SOL     OW14184   0.340   8.662   0.977
 4137SOL    HW114185   0.303   8.738   0.932
 4137SOL    HW214186   0.341   8.687   1.069
 4138SOL     OW14187  14.797   7.201   8.635
 4138SOL    HW114188  14.829   7.253   8.561
 4138SOL    HW214189  14.704   7.186   8.615
 4139SOL     OW14190   1.974  10.401   6.839
 4139SOL    HW114191   1.908  10.470   6.829
 4139SOL    HW214192   2.037  10.437   6.900
 4140SOL     OW14193   4.056   9.864   9.379
 4140SOL    HW114194   4.056   9.960   9.387
 4140SOL    HW214195   4.147   9.842   9.359
 4141SOL     OW14196   3.214  10.755   8.731
 4141SOL    HW114197   3.207  10.672   8.778
 4141SOL    HW214198   3.167  10.817   8.785
 4142SOL     OW14199  14.773   3.121  10.747
 4142SOL    HW114200  14.832   3.047  10.759
 4142SOL    HW214201  14.727   3.129  10.830
 4143SOL     OW14202  13.464   0.929  11.642
 4143SOL    HW114203  13.543   0.967  11.680
 4143SOL    HW214204  13.393   0.984  11.672
 4144SOL     OW14205   5.733   7.082   7.877
 4144SOL    HW114206   5.701   7.161   7.834
 4144SOL    HW214207   5.805   7.112   7.933
 4145SOL     OW14208   1.436  10.601   3.324
 4145SOL    HW114209   1.500  10.533   3.305
 4145SOL    HW214210   1.460  10.674   3.267
 4146SOL     OW14211   0.591   9.125   9.839
 4146SOL    HW114212   0.632   9.081   9.914
 4146SOL    HW214213   0.497   9.117   9.855
 4147SOL     OW14214  14.300   7.140   9.357
 4147SOL    HW114215  14.274   7.215   9.304
 4147SOL    HW214216  14.337   7.179   9.436
 4148SOL     OW14217   7.074  10.408  11.280
 4148SOL    HW114218   7.131  10.405  11.203
 4148SOL    HW214219   6.991  10.370  11.250
 4149SOL     OW14220   5.052   2.672   8.165
 4149SOL    HW114221   5.065   2.758   8.203
 4149SOL    HW214222   4.969   2.642   8.202
 4150SOL     OW14223  13.656  11.245   5.484
 4150SOL    HW114224  13.642  11.301   5.561
 4150SOL    HW214225  13.582  11.264   5.427
 4151SOL     OW14226   1.720   3.105   5.762
 4151SOL    HW114227   1.772   3.045   5.709
 4151SOL    HW214228   1.642   3.055   5.785
 4152SOL     OW14229   0.044   2.322  12.132
 4152SOL    HW114230   0.039   2.339  12.038
 4152SOL    HW214231   0.116   2.261  12.142
 4153SOL     OW14232  10.063   8.666  11.425
 4153SOL    HW114233  10.104   8.600  11.480
 4153SOL    HW214234  10.098   8.650  11.337
 4154SOL     OW14235   1.746   9.256   0.958
 4154SOL    HW114236   1.812   9.299   0.903
 4154SOL    HW214237   1.797   9.209   1.024
 4155SOL     OW14238  10.452   2.795   3.053
 4155SOL    HW114239  10.357   2.786   3.054
 4155SOL    HW214240  10.469   2.882   3.087
 4156SOL     OW14241   5.867   2.917   4.552
 4156SOL    HW114242   5.960   2.916   4.529
 4156SOL    HW214243   5.823   2.958   4.477
 4157SOL     OW14244   2.316  14.246   4.397
 4157SOL    HW114245   2.326  14.166   4.345
 4157SOL    HW214246   2.240  14.231   4.452
 4158SOL     OW14247   5.062  10.358   6.084
 4158SOL    HW114248   5.128  10.397   6.141
 4158SOL    HW214249   5.034  10.279   6.130
 4159SOL     OW14250   6.659   4.758   9.438
 4159SOL    HW114251   6.594   4.704   9.483
 4159SOL    HW214252   6.609   4.828   9.397
 4160SOL     OW14253  10.191   7.468   9.289
 4160SOL    HW114254  10.192   7.532   9.218
 4160SOL    HW214255  10.143   7.394   9.253
 4161SOL     OW14256   4.007  13.735   1.487
 4161SOL    HW114257   4.080  13.694   1.441
 4161SOL    HW214258   4.030  13.828   1.491
 4162SOL     OW14259   2.234  11.344  11.257
 4162SOL    HW114260   2.325  11.372  11.271
 4162SOL    HW214261   2.182  11.408  11.305
 4163SOL     OW14262   1.131   1.348  13.549
 4163SOL    HW114263   1.096   1.434  13.572
 4163SOL    HW214264   1.224   1.364  13.533
 4164SOL     OW14265   0.456   5.250   1.826
 4164SOL    HW114266   0.506   5.211   1.755
 4164SOL    HW214267   0.403   5.317   1.783
 4165SOL     OW14268   4.711  10.587   5.099
 4165SOL    HW114269   4.789  10.642   5.103
 4165SOL    HW214270   4.745  10.498   5.087
 4166SOL     OW14271   3.427   5.630   5.943
 4166SOL    HW114272   3.386   5.586   6.017
 4166SOL    HW214273   3.417   5.724   5.962
 4167SOL     OW14274  11.355  14.137   0.758
 4167SOL    HW114275  11.417  14.209   0.756
 4167SOL    HW214276  11.314  14.137   0.672
 4168SOL     OW14277  14.489   1.539   5.031
 4168SOL    HW114278  14.491   1.626   5.070
 4168SOL    HW214279  14.578   1.524   5.000
 4169SOL     OW14280   0.773   6.416   2.347
 4169SOL    HW114281   0.742   6.368   2.423
 4169SOL    HW214282   0.778   6.507   2.377
 4170SOL     OW14283  14.552   0.928   8.314
 4170SOL    HW114284  14.627   0.871   8.328
 4170SOL    HW214285  14.539   0.927   8.219
 4171SOL     OW14286   6.003   6.208   6.263
 4171SOL    HW114287   5.979   6.137   6.323
 4171SOL    HW214288   6.014   6.284   6.320
 4172SOL     OW14289  13.317   6.685  12.555
 4172SOL    HW114290  13.350   6.763  12.510
 4172SOL    HW214291  13.360   6.612  12.510
 4173SOL     OW14292   4.962   9.190   5.704
 4173SOL    HW114293   5.006   9.268   5.738
 4173SOL    HW214294   4.915   9.154   5.780
 4174SOL     OW14295   2.070   5.712  10.512
 4174SOL    HW114296   2.023   5.639  10.551
 4174SOL    HW214297   2.035   5.790  10.556
 4175SOL     OW14298   7.130  11.914   5.055
 4175SOL    HW114299   7.156  11.930   5.146
 4175SOL    HW214300   7.036  11.928   5.055
 4176SOL     OW14301   7.412   1.023   9.895
 4176SOL    HW114302   7.321   1.004   9.919
 4176SOL    HW214303   7.457   1.035   9.978
 4177SOL     OW14304   1.617   0.724   2.488
 4177SOL    HW114305   1.579   0.645   2.448
 4177SOL    HW214306   1.675   0.691   2.556
 4178SOL     OW14307   0.819   5.703  12.880
 4178SOL    HW114308   0.889   5.660  12.830
 4178SOL    HW214309   0.755   5.729  12.814
 4179SOL     OW14310   7.733   3.331   6.775
 4179SOL    HW114311   7.725   3.423   6.800
 4179SOL    HW214312   7.776   3.290   6.850
 4180SOL     OW14313   6.125   0.605   0.876
 4180SOL    HW114314   6.075   0.528   0.900
 4180SOL    HW214315   6.062   0.662   0.832
 4181SOL     OW14316   1.069   1.118   6.114
 4181SOL    HW114317   1.095   1.187   6.053
 4181SOL    HW214318   1.104   1.145   6.198
 4182SOL     OW14319   6.212  14.154   0.397
 4182SOL    HW114320   6.164  14.110   0.327
 4182SOL    HW214321   6.271  14.215   0.351
 4183SOL     OW14322  13.432   9.276   9.989
 4183SOL    HW114323  13.424   9.184  10.013
 4183SOL    HW214324  13.352   9.296   9.941
 4184SOL     OW14325   4.667  12.495   6.772
 4184SOL    HW114326   4.653  12.408   6.734
 4184SOL    HW214327   4.606  12.498   6.846
 4185SOL     OW14328   3.579  11.383   1.743
 4185SOL    HW114329   3.600  11.327   1.668
 4185SOL    HW214330   3.618  11.468   1.721
 4186SOL     OW14331   3.552   6.692   3.037
 4186SOL    HW114332   3.629   6.676   2.983
 4186SOL    HW214333   3.528   6.783   3.018
 4187SOL     OW14334   9.555   5.584  14.121
 4187SOL    HW114335   9.546   5.661  14.177
 4187SOL    HW214336   9.490   5.597  14.052
 4188SOL     OW14337   6.064   9.141   5.346
 4188SOL    HW114338   6.028   9.086   5.416
 4188SOL    HW214339   5.987   9.174   5.300
 4189SOL     OW14340  13.083   4.002   7.360
 4189SOL    HW114341  13.141   4.008   7.284
 4189SOL    HW214342  13.141   4.012   7.435
 4190SOL     OW14343   3.580  12.775   7.869
 4190SOL    HW114344   3.602  12.797   7.960
 4190SOL    HW214345   3.551  12.858   7.831
 4191SOL     OW14346   5.192  13.677  11.961
 4191SOL    HW114347   5.236  13.668  12.045
 4191SOL    HW214348   5.250  13.732  11.909
 4192SOL     OW14349   2.064   4.944   8.921
 4192SOL    HW114350   1.999   4.894   8.872
 4192SOL    HW214351   2.117   4.987   8.854
 4193SOL     OW14352   5.549  10.952   4.184
 4193SOL    HW114353   5.583  10.866   4.162
 4193SOL    HW214354   5.623  11.011   4.170
 4194SOL     OW14355  12.187   8.005   7.745
 4194SOL    HW114356  12.101   7.979   7.712
 4194SOL    HW214357  12.249   7.976   7.678
 4195SOL     OW14358   0.294  11.210  10.970
 4195SOL    HW114359   0.264  11.149  10.903
 4195SOL    HW214360   0.263  11.173  11.052
 4196SOL     OW14361   1.286  14.821   7.386
 4196SOL    HW114362   1.313  14.822   7.294
 4196SOL    HW214363   1.255  14.732   7.401
 4197SOL     OW14364   9.303  10.657   6.241
 4197SOL    HW114365   9.310  10.593   6.312
 4197SOL    HW214366   9.209  10.668   6.228
 4198SOL     OW14367   9.592   1.424   2.827
 4198SOL    HW114368   9.560   1.337   2.848
 4198SOL    HW214369   9.652   1.445   2.899
 4199SOL     OW14370   2.428  13.820   8.791
 4199SOL    HW114371   2.371  13.893   8.818
 4199SOL    HW214372   2.372  13.743   8.798
 4200SOL     OW14373  11.447   7.836   0.399
 4200SOL    HW114374  11.405   7.756   0.366
 4200SOL    HW214375  11.381   7.904   0.386
 4201SOL     OW14376   0.757   6.281   8.568
 4201SOL    HW114377   0.763   6.368   8.608
 4201SOL    HW214378   0.812   6.286   8.490
 4202SOL     OW14379  11.402   5.342   1.538
 4202SOL    HW114380  11.328   5.382   1.492
 4202SOL    HW214381  11.362   5.272   1.590
 4203SOL     OW14382   6.771  12.996  13.845
 4203SOL    HW114383   6.866  12.981  13.843
 4203SOL    HW214384   6.741  12.975  13.757
 4204SOL     OW14385   5.014  12.034   9.683
 4204SOL    HW114386   5.067  11.957   9.705
 4204SOL    HW214387   5.019  12.090   9.761
 4205SOL     OW14388   5.865   6.992   6.938
 4205SOL    HW114389   5.825   7.063   6.989
 4205SOL    HW214390   5.903   7.035   6.862
 4206SOL     OW14391   3.698   3.770  10.427
 4206SOL    HW114392   3.792   3.783  10.434
 4206SOL    HW214393   3.671   3.828  10.355
 4207SOL     OW14394  11.744  11.121  10.828
 4207SOL    HW114395  11.773  11.198  10.876
 4207SOL    HW214396  11.705  11.156  10.748
 4208SOL     OW14397  11.068  11.754   3.383
 4208SOL    HW114398  11.079  11.745   3.288
 4208SOL    HW214399  11.107  11.674   3.419
 4209SOL     OW14400   8.546  12.522   6.189
 4209SOL    HW114401   8.589  12.517   6.103
 4209SOL    HW214402   8.457  12.550   6.170
 4210SOL     OW14403  13.113   0.086  12.252
 4210SOL    HW114404  13.137   0.153  12.188
 4210SOL    HW214405  13.019   0.073  12.239
 4211SOL     OW14406  11.776   1.479   0.346
 4211SOL    HW114407  11.789   1.415   0.416
 4211SOL    HW214408  11.848   1.463   0.285
 4212SOL     OW14409   7.202   3.755   4.918
 4212SOL    HW114410   7.232   3.837   4.879
 4212SOL    HW214411   7.171   3.703   4.844
 4213SOL     OW14412   8.664  10.789  11.006
 4213SOL    HW114413   8.612  10.784  10.926
 4213SOL    HW214414   8.748  10.748  10.983
 4214SOL     OW14415  12.539  11.163   1.852
 4214SOL    HW114416  12.577  11.146   1.766
 4214SOL    HW214417  12.452  11.199   1.832
 4215SOL     OW14418   9.374   3.191   0.787
 4215SOL    HW114419   9.291   3.214   0.828
 4215SOL    HW214420   9.440   3.240   0.836
 4216SOL     OW14421  12.481   8.605   5.835
 4216SOL    HW114422  12.488   8.603   5.931
 4216SOL    HW214423  12.510   8.693   5.811
 4217SOL     OW14424   4.300  12.918  12.171
 4217SOL    HW114425   4.276  12.857  12.101
 4217SOL    HW214426   4.395  12.914  12.175
 4218SOL     OW14427   9.701   8.888   3.022
 4218SOL    HW114428   9.689   8.846   2.937
 4218SOL    HW214429   9.649   8.835   3.083
 4219SOL     OW14430   8.823   2.437   3.785
 4219SOL    HW114431   8.889   2.485   3.836
 4219SOL    HW214432   8.816   2.486   3.703
 4220SOL     OW14433   7.199   7.390   7.470
 4220SOL    HW114434   7.133   7.442   7.515
 4220SOL    HW214435   7.276   7.394   7.527
 4221SOL     OW14436   6.557   0.104   5.357
 4221SOL    HW114437   6.478   0.106   5.411
 4221SOL    HW214438   6.607   0.030   5.392
 4222SOL     OW14439  13.795  12.955  10.338
 4222SOL    HW114440  13.762  13.043  10.327
 4222SOL    HW214441  13.771  12.931  10.428
 4223SOL     OW14442   9.694   1.587  12.846
 4223SOL    HW114443   9.661   1.520  12.786
 4223SOL    HW214444   9.783   1.605  12.816
 4224SOL     OW14445   7.285  10.071  12.729
 4224SOL    HW114446   7.276  10.139  12.662
 4224SOL    HW214447   7.207  10.083  12.785
 4225SOL     OW14448  10.328  14.203   1.519
 4225SOL    HW114449  10.351  14.172   1.606
 4225SOL    HW214450  10.240  14.241   1.530
 4226SOL     OW14451   0.927  14.264  13.632
 4226SOL    HW114452   0.987  14.330  13.599
 4226SOL    HW214453   0.909  14.291  13.722
 4227SOL     OW14454  12.543   1.329   2.397
 4227SOL    HW114455  12.572   1.238   2.391
 4227SOL    HW214456  12.449   1.324   2.415
 4228SOL     OW14457   5.827   2.202   7.120
 4228SOL    HW114458   5.888   2.168   7.186
 4228SOL    HW214459   5.796   2.285   7.157
 4229SOL     OW14460  12.472   3.543  12.327
 4229SOL    HW114461  12.475   3.617  12.265
 4229SOL    HW214462  12.533   3.568  12.397
 4230SOL     OW14463  11.895  11.346   8.525
 4230SOL    HW114464  11.834  11.410   8.562
 4230SOL    HW214465  11.848  11.307   8.451
 4231SOL     OW14466   1.310  10.695   2.072
 4231SOL    HW114467   1.318  10.779   2.118
 4231SOL    HW214468   1.218  10.672   2.080
 4232SOL     OW14469   8.455  11.735  11.786
 4232SOL    HW114470   8.401  11.663  11.751
 4232SOL    HW214471   8.475  11.789  11.709
 4233SOL     OW14472   0.721  11.835   9.814
 4233SOL    HW114473   0.634  11.874   9.825
 4233SOL    HW214474   0.770  11.863   9.891
 4234SOL     OW14475   6.162   9.243   0.627
 4234SOL    HW114476   6.207   9.295   0.693
 4234SOL    HW214477   6.074   9.231   0.661
 4235SOL     OW14478   9.551   4.646  11.764
 4235SOL    HW114479   9.517   4.731  11.734
 4235SOL    HW214480   9.476   4.587  11.762
 4236SOL     OW14481   3.619   2.962  13.594
 4236SOL    HW114482   3.661   2.916  13.666
 4236SOL    HW214483   3.612   2.897  13.524
 4237SOL     OW14484   9.906   2.742   5.910
 4237SOL    HW114485   9.813   2.733   5.930
 4237SOL    HW214486   9.948   2.750   5.995
 4238SOL     OW14487   3.033   4.471   1.823
 4238SOL    HW114488   3.091   4.396   1.827
 4238SOL    HW214489   3.091   4.547   1.826
 4239SOL     OW14490   2.314   9.772  10.887
 4239SOL    HW114491   2.313   9.700  10.951
 4239SOL    HW214492   2.313   9.851  10.941
 4240SOL     OW14493   0.287   5.545  12.553
 4240SOL    HW114494   0.330   5.460  12.542
 4240SOL    HW214495   0.220   5.547  12.485
 4241SOL     OW14496   5.815   2.180  11.957
 4241SOL    HW114497   5.825   2.107  11.896
 4241SOL    HW214498   5.900   2.223  11.958
 4242SOL     OW14499  11.127  12.628  11.366
 4242SOL    HW114500  11.155  12.665  11.450
 4242SOL    HW214501  11.105  12.537  11.386
 4243SOL     OW14502  13.577   9.267   8.385
 4243SOL    HW114503  13.659   9.279   8.338
 4243SOL    HW214504  13.541   9.185   8.350
 4244SOL     OW14505   9.153  10.201   4.181
 4244SOL    HW114506   9.148  10.122   4.235
 4244SOL    HW214507   9.092  10.262   4.221
 4245SOL     OW14508  10.258  11.602  11.166
 4245SOL    HW114509  10.184  11.648  11.126
 4245SOL    HW214510  10.221  11.517  11.192
 4246SOL     OW14511   3.004  11.513   6.543
 4246SOL    HW114512   3.046  11.574   6.603
 4246SOL    HW214513   2.972  11.569   6.472
 4247SOL     OW14514   1.816  13.353  10.845
 4247SOL    HW114515   1.891  13.319  10.894
 4247SOL    HW214516   1.759  13.389  10.913
 4248SOL     OW14517  12.349   7.472   6.272
 4248SOL    HW114518  12.438   7.494   6.246
 4248SOL    HW214519  12.304   7.451   6.191
 4249SOL     OW14520   7.968   6.050   5.994
 4249SOL    HW114521   7.994   6.067   5.904
 4249SOL    HW214522   7.942   6.135   6.029
 4250SOL     OW14523   2.972   5.312  14.593
 4250SOL    HW114524   3.047   5.351  14.548
 4250SOL    HW214525   2.965   5.362  14.674
 4251SOL     OW14526   5.150  11.742  12.117
 4251SOL    HW114527   5.055  11.750  12.109
 4251SOL    HW214528   5.185  11.784  12.039
 4252SOL     OW14529   4.039  12.701  12.225
 4252SOL    HW114530   3.974  12.749  12.175
 4252SOL    HW214531   4.103  12.671  12.160
 4253SOL     OW14532   4.588   3.695  13.500
 4253SOL    HW114533   4.680   3.721  13.513
 4253SOL    HW214534   4.542   3.734  13.575
 4254SOL     OW14535   6.900  14.417  10.089
 4254SOL    HW114536   6.945  14.371  10.159
 4254SOL    HW214537   6.867  14.497  10.130
 4255SOL     OW14538  14.002   9.872   8.167
 4255SOL    HW114539  13.947   9.801   8.199
 4255SOL    HW214540  13.948   9.918   8.103
 4256SOL     OW14541  14.222   0.557   3.025
 4256SOL    HW114542  14.151   0.621   3.026
 4256SOL    HW214543  14.177   0.473   3.037
 4257SOL     OW14544   5.294   6.911  10.834
 4257SOL    HW114545   5.247   6.948  10.909
 4257SOL    HW214546   5.385   6.941  10.846
 4258SOL     OW14547   6.688  10.021   2.706
 4258SOL    HW114548   6.769   9.993   2.749
 4258SOL    HW214549   6.688   9.974   2.623
 4259SOL     OW14550   2.349   9.187  14.275
 4259SOL    HW114551   2.405   9.250  14.231
 4259SOL    HW214552   2.323   9.231  14.357
 4260SOL     OW14553   9.362   8.794  14.259
 4260SOL    HW114554   9.414   8.871  14.237
 4260SOL    HW214555   9.425   8.733  14.297
 4261SOL     OW14556  11.825   3.084   6.741
 4261SOL    HW114557  11.802   3.042   6.824
 4261SOL    HW214558  11.743   3.091   6.693
 4262SOL     OW14559  13.474   2.869   2.425
 4262SOL    HW114560  13.456   2.776   2.439
 4262SOL    HW214561  13.405   2.898   2.365
 4263SOL     OW14562   7.952   3.089  14.345
 4263SOL    HW114563   7.906   3.089  14.429
 4263SOL    HW214564   8.019   3.158  14.355
 4264SOL     OW14565  14.657   3.887   8.426
 4264SOL    HW114566  14.564   3.874   8.407
 4264SOL    HW214567  14.659   3.914   8.518
 4265SOL     OW14568   0.413   5.426   6.765
 4265SOL    HW114569   0.331   5.379   6.781
 4265SOL    HW214570   0.435   5.464   6.850
 4266SOL     OW14571   2.814   0.615  14.466
 4266SOL    HW114572   2.876   0.596  14.536
 4266SOL    HW214573   2.838   0.555  14.396
 4267SOL     OW14574  11.297  14.005   5.761
 4267SOL    HW114575  11.212  13.985   5.800
 4267SOL    HW214576  11.361  13.984   5.829
 4268SOL     OW14577  13.626   2.706  13.129
 4268SOL    HW114578  13.697   2.733  13.070
 4268SOL    HW214579  13.590   2.789  13.162
 4269SOL     OW14580  11.988   5.915  12.221
 4269SOL    HW114581  12.022   6.000  12.247
 4269SOL    HW214582  11.896   5.931  12.199
 4270SOL     OW14583   7.294  14.496  10.400
 4270SOL    HW114584   7.289  14.484  10.495
 4270SOL    HW214585   7.244  14.575  10.383
 4271SOL     OW14586  11.779  13.825   8.649
 4271SOL    HW114587  11.823  13.835   8.565
 4271SOL    HW214588  11.751  13.733   8.651
 4272SOL     OW14589  13.245  14.682   1.605
 4272SOL    HW114590  13.195  14.671   1.524
 4272SOL    HW214591  13.332  14.647   1.584
 4273SOL     OW14592  10.758  14.797  10.343
 4273SOL    HW114593  10.682  14.854  10.349
 4273SOL    HW214594  10.801  14.804  10.428
 4274SOL     OW14595  12.977   0.252   1.269
 4274SOL    HW114596  12.953   0.344   1.261
 4274SOL    HW214597  12.903   0.211   1.313
 4275SOL     OW14598   6.857  14.402  11.832
 4275SOL    HW114599   6.824  14.333  11.774
 4275SOL    HW214600   6.821  14.380  11.918
 4276SOL     OW14601   0.995   1.658   0.515
 4276SOL    HW114602   0.906   1.655   0.480
 4276SOL    HW214603   1.040   1.723   0.461
 4277SOL     OW14604   7.766  10.827   4.502
 4277SOL    HW114605   7.833  10.888   4.534
 4277SOL    HW214606   7.724  10.874   4.430
 4278SOL     OW14607   3.297   4.450   6.502
 4278SOL    HW114608   3.295   4.518   6.570
 4278SOL    HW214609   3.349   4.380   6.540
 4279SOL     OW14610   9.376  11.660  10.166
 4279SOL    HW114611   9.291  11.703  10.157
 4279SOL    HW214612   9.401  11.676  10.257
 4280SOL     OW14613   8.284   7.924   7.222
 4280SOL    HW114614   8.269   7.987   7.292
 4280SOL    HW214615   8.379   7.910   7.222
 4281SOL     OW14616   5.419   4.903   9.307
 4281SOL    HW114617   5.349   4.854   9.263
 4281SOL    HW214618   5.487   4.913   9.240
 4282SOL     OW14619   6.796   9.485   4.433
 4282SOL    HW114620   6.842   9.402   4.443
 4282SOL    HW214621   6.838   9.526   4.357
 4283SOL     OW14622   5.553   0.826   4.177
 4283SOL    HW114623   5.561   0.758   4.110
 4283SOL    HW214624   5.482   0.882   4.146
 4284SOL     OW14625   7.396   2.919   4.316
 4284SOL    HW114626   7.470   2.928   4.376
 4284SOL    HW214627   7.319   2.925   4.372
 4285SOL     OW14628  13.601   6.500   4.860
 4285SOL    HW114629  13.540   6.475   4.791
 4285SOL    HW214630  13.588   6.434   4.928
 4286SOL     OW14631  10.699  10.572   2.724
 4286SOL    HW114632  10.697  10.485   2.764
 4286SOL    HW214633  10.617  10.577   2.675
 4287SOL     OW14634   3.158   5.468  12.488
 4287SOL    HW114635   3.192   5.515  12.412
 4287SOL    HW214636   3.069   5.444  12.462
 4288SOL     OW14637  12.807   8.798   7.239
 4288SOL    HW114638  12.885   8.742   7.241
 4288SOL    HW214639  12.803   8.837   7.326
 4289SOL     OW14640   3.429  12.439   9.625
 4289SOL    HW114641   3.436  12.347   9.651
 4289SOL    HW214642   3.481  12.445   9.545
 4290SOL     OW14643   3.568  12.779  10.282
 4290SOL    HW114644   3.498  12.803  10.343
 4290SOL    HW214645   3.611  12.704  10.324
 4291SOL     OW14646  14.738   3.105   7.833
 4291SOL    HW114647  14.732   3.061   7.917
 4291SOL    HW214648  14.765   3.194   7.855
 4292SOL     OW14649   2.133   8.459   0.629
 4292SOL    HW114650   2.228   8.472   0.627
 4292SOL    HW214651   2.099   8.519   0.563
 4293SOL     OW14652   1.737   1.547  13.253
 4293SOL    HW114653   1.682   1.618  13.221
 4293SOL    HW214654   1.826   1.573  13.227
 4294SOL     OW14655   3.166  14.688   8.519
 4294SOL    HW114656   3.248  14.670   8.564
 4294SOL    HW214657   3.167  14.630   8.443
 4295SOL     OW14658  10.028  11.502   7.989
 4295SOL    HW114659  10.069  11.416   7.976
 4295SOL    HW214660  10.040  11.520   8.082
 4296SOL     OW14661  13.217  13.522  11.322
 4296SOL    HW114662  13.144  13.523  11.260
 4296SOL    HW214663  13.253  13.434  11.315
 4297SOL     OW14664   3.658  11.429   0.416
 4297SOL    HW114665   3.715  11.360   0.381
 4297SOL    HW214666   3.678  11.431   0.510
 4298SOL     OW14667   7.636   2.684   2.920
 4298SOL    HW114668   7.722   2.662   2.886
 4298SOL    HW214669   7.633   2.780   2.920
 4299SOL     OW14670   7.613   6.135   1.587
 4299SOL    HW114671   7.657   6.161   1.668
 4299SOL    HW214672   7.675   6.157   1.518
 4300SOL     OW14673   4.889   1.320  13.038
 4300SOL    HW114674   4.930   1.234  13.026
 4300SOL    HW214675   4.961   1.378  13.062
 4301SOL     OW14676   8.973   7.885   6.002
 4301SOL    HW114677   8.879   7.880   5.986
 4301SOL    HW214678   8.985   7.967   6.050
 4302SOL     OW14679   2.299  14.346   5.371
 4302SOL    HW114680   2.331  14.257   5.359
 4302SOL    HW214681   2.280  14.353   5.464
 4303SOL     OW14682   3.110   8.033   4.371
 4303SOL    HW114683   3.057   8.000   4.298
 4303SOL    HW214684   3.198   8.042   4.335
 4304SOL     OW14685   5.644  13.971   0.551
 4304SOL    HW114686   5.636  13.876   0.539
 4304SOL    HW214687   5.720  13.996   0.499
 4305SOL     OW14688   4.017   1.148  12.218
 4305SOL    HW114689   3.928   1.119  12.236
 4305SOL    HW214690   4.068   1.117  12.293
 4306SOL     OW14691  11.754   9.707  13.543
 4306SOL    HW114692  11.686   9.647  13.574
 4306SOL    HW214693  11.826   9.696  13.605
 4307SOL     OW14694   7.475  13.921   3.898
 4307SOL    HW114695   7.566  13.950   3.887
 4307SOL    HW214696   7.479  13.826   3.887
 4308SOL     OW14697  12.126   4.598   6.833
 4308SOL    HW114698  12.046   4.621   6.881
 4308SOL    HW214699  12.098   4.594   6.741
 4309SOL     OW14700   7.742   1.992  11.857
 4309SOL    HW114701   7.775   1.970  11.770
 4309SOL    HW214702   7.792   1.937  11.916
 4310SOL     OW14703   0.411  12.733   1.223
 4310SOL    HW114704   0.367  12.799   1.277
 4310SOL    HW214705   0.340  12.691   1.174
 4311SOL     OW14706   1.309   9.511   2.059
 4311SOL    HW114707   1.333   9.431   2.013
 4311SOL    HW214708   1.366   9.512   2.136
 4312SOL     OW14709   6.659   0.310  12.123
 4312SOL    HW114710   6.635   0.257  12.200
 4312SOL    HW214711   6.672   0.246  12.053
 4313SOL     OW14712   9.500   6.988   7.203
 4313SOL    HW114713   9.455   7.051   7.147
 4313SOL    HW214714   9.580   7.033   7.232
 4314SOL     OW14715   7.961   7.710   9.470
 4314SOL    HW114716   7.999   7.767   9.536
 4314SOL    HW214717   7.933   7.769   9.400
 4315SOL     OW14718   9.841   8.830   7.515
 4315SOL    HW114719   9.762   8.797   7.558
 4315SOL    HW214720   9.894   8.752   7.499
 4316SOL     OW14721   2.162  14.710   7.008
 4316SOL    HW114722   2.132  14.673   7.091
 4316SOL    HW214723   2.151  14.804   7.018
 4317SOL     OW14724   9.984   6.539  13.903
 4317SOL    HW114725  10.069   6.521  13.863
 4317SOL    HW214726   9.989   6.631  13.930
 4318SOL     OW14727  14.382   3.552   5.873
 4318SOL    HW114728  14.437   3.474   5.865
 4318SOL    HW214729  14.409   3.590   5.957
 4319SOL     OW14730   3.209  14.663  13.133
 4319SOL    HW114731   3.238  14.721  13.062
 4319SOL    HW214732   3.248  14.578  13.111
 4320SOL     OW14733   3.807   9.303  10.551
 4320SOL    HW114734   3.890   9.307  10.599
 4320SOL    HW214735   3.746   9.263  10.612
 4321SOL     OW14736  11.258   1.120   0.989
 4321SOL    HW114737  11.186   1.071   0.949
 4321SOL    HW214738  11.219   1.159   1.068
 4322SOL     OW14739   7.938   7.006  10.538
 4322SOL    HW114740   7.984   6.988  10.456
 4322SOL    HW214741   7.993   6.966  10.605
 4323SOL     OW14742   6.696   7.541   5.064
 4323SOL    HW114743   6.770   7.559   5.123
 4323SOL    HW214744   6.737   7.517   4.981
 4324SOL     OW14745   9.629   6.794   7.745
 4324SOL    HW114746   9.619   6.700   7.733
 4324SOL    HW214747   9.634   6.806   7.840
 4325SOL     OW14748   0.246   6.919   1.256
 4325SOL    HW114749   0.219   6.925   1.165
 4325SOL    HW214750   0.192   6.984   1.302
 4326SOL     OW14751   9.299   5.172  13.376
 4326SOL    HW114752   9.316   5.078  13.369
 4326SOL    HW214753   9.247   5.193  13.298
 4327SOL     OW14754   5.589  13.821  13.147
 4327SOL    HW114755   5.561  13.788  13.062
 4327SOL    HW214756   5.521  13.792  13.208
 4328SOL     OW14757   1.323  10.385   9.871
 4328SOL    HW114758   1.384  10.315   9.847
 4328SOL    HW214759   1.269  10.398   9.793
 4329SOL     OW14760   5.406   5.158  12.677
 4329SOL    HW114761   5.355   5.208  12.613
 4329SOL    HW214762   5.346   5.090  12.707
 4330SOL     OW14763  12.489   3.461   7.776
 4330SOL    HW114764  12.555   3.431   7.714
 4330SOL    HW214765  12.448   3.381   7.809
 4331SOL     OW14766   9.073  14.293   0.896
 4331SOL    HW114767   9.147  14.259   0.946
 4331SOL    HW214768   8.999  14.285   0.955
 4332SOL     OW14769  13.062   8.697   1.536
 4332SOL    HW114770  13.151   8.688   1.503
 4332SOL    HW214771  13.007   8.691   1.458
 4333SOL     OW14772   0.752  11.707   5.411
 4333SOL    HW114773   0.662  11.693   5.442
 4333SOL    HW214774   0.742  11.761   5.333
 4334SOL     OW14775   0.097   7.113  12.006
 4334SOL    HW114776   0.158   7.132  12.077
 4334SOL    HW214777   0.011   7.111  12.047
 4335SOL     OW14778   2.483  12.919   9.994
 4335SOL    HW114779   2.419  12.953  10.056
 4335SOL    HW214780   2.498  12.991   9.932
 4336SOL     OW14781   4.803  11.361   3.806
 4336SOL    HW114782   4.826  11.400   3.890
 4336SOL    HW214783   4.725  11.307   3.825
 4337SOL     OW14784  10.283  11.555   9.411
 4337SOL    HW114785  10.257  11.584   9.498
 4337SOL    HW214786  10.330  11.630   9.374
 4338SOL     OW14787   6.572   0.274   6.156
 4338SOL    HW114788   6.602   0.346   6.100
 4338SOL    HW214789   6.645   0.259   6.217
 4339SOL     OW14790   7.475   5.681   7.778
 4339SOL    HW114791   7.432   5.701   7.861
 4339SOL    HW214792   7.554   5.633   7.804
 4340SOL     OW14793   6.800   5.914   6.029
 4340SOL    HW114794   6.785   5.855   5.956
 4340SOL    HW214795   6.862   5.979   5.996
 4341SOL     OW14796   7.151   7.349  11.589
 4341SOL    HW114797   7.136   7.319  11.679
 4341SOL    HW214798   7.103   7.432  11.584
 4342SOL     OW14799   7.080   8.605   3.173
 4342SOL    HW114800   7.036   8.680   3.215
 4342SOL    HW214801   7.074   8.624   3.080
 4343SOL     OW14802   4.128   2.701  13.708
 4343SOL    HW114803   4.138   2.794  13.691
 4343SOL    HW214804   4.162   2.689  13.797
 4344SOL     OW14805  11.247  13.514   0.216
 4344SOL    HW114806  11.327  13.560   0.189
 4344SOL    HW214807  11.192  13.515   0.137
 4345SOL     OW14808   0.448   7.918   2.679
 4345SOL    HW114809   0.481   7.916   2.769
 4345SOL    HW214810   0.361   7.877   2.684
 4346SOL     OW14811  10.956   0.429   9.047
 4346SOL    HW114812  10.938   0.429   8.953
 4346SOL    HW214813  10.874   0.454   9.087
 4347SOL     OW14814   3.492  11.275  11.173
 4347SOL    HW114815   3.557  11.241  11.234
 4347SOL    HW214816   3.523  11.248  11.087
 4348SOL     OW14817  10.025   2.617  10.980
 4348SOL    HW114818  10.077   2.555  10.929
 4348SOL    HW214819   9.950   2.637  10.924
 4349SOL     OW14820  13.763  12.206  13.058
 4349SOL    HW114821  13.733  12.180  12.970
 4349SOL    HW214822  13.855  12.177  13.061
 4350SOL     OW14823  14.587   6.755   2.036
 4350SOL    HW114824  14.506   6.782   1.994
 4350SOL    HW214825  14.635   6.708   1.967
 4351SOL     OW14826  11.261  10.930   8.132
 4351SOL    HW114827  11.332  10.909   8.072
 4351SOL    HW214828  11.236  10.846   8.170
 4352SOL     OW14829   3.260   6.392  10.526
 4352SOL    HW114830   3.325   6.437  10.472
 4352SOL    HW214831   3.309   6.320  10.568
 4353SOL     OW14832  12.599   9.580   3.160
 4353SOL    HW114833  12.682   9.604   3.118
 4353SOL    HW214834  12.535   9.641   3.123
 4354SOL     OW14835  13.235   1.629   8.862
 4354SOL    HW114836  13.280   1.630   8.947
 4354SOL    HW214837  13.250   1.716   8.826
 4355SOL     OW14838  10.344  12.331   9.994
 4355SOL    HW114839  10.291  12.284   9.930
 4355SOL    HW214840  10.411  12.376   9.942
 4356SOL     OW14841   1.079   6.823   7.508
 4356SOL    HW114842   1.094   6.748   7.566
 4356SOL    HW214843   1.074   6.898   7.567
 4357SOL     OW14844  14.147   6.049   6.217
 4357SOL    HW114845  14.090   6.126   6.216
 4357SOL    HW214846  14.114   5.993   6.147
 4358SOL     OW14847  12.080   7.102   2.973
 4358SOL    HW114848  12.141   7.170   2.946
 4358SOL    HW214849  12.134   7.037   3.018
 4359SOL     OW14850  10.125  13.265   7.612
 4359SOL    HW114851  10.095  13.323   7.542
 4359SOL    HW214852  10.202  13.310   7.649
 4360SOL     OW14853   3.215   3.464   9.127
 4360SOL    HW114854   3.259   3.378   9.127
 4360SOL    HW214855   3.140   3.452   9.185
 4361SOL     OW14856  14.355   6.561  14.382
 4361SOL    HW114857  14.300   6.626  14.339
 4361SOL    HW214858  14.421   6.537  14.316
 4362SOL     OW14859  11.677   1.190  11.580
 4362SOL    HW114860  11.722   1.271  11.605
 4362SOL    HW214861  11.748   1.126  11.569
 4363SOL     OW14862   8.287  12.346  10.077
 4363SOL    HW114863   8.357  12.403  10.046
 4363SOL    HW214864   8.246  12.314   9.997
 4364SOL     OW14865   2.366   1.058  14.100
 4364SOL    HW114866   2.422   0.981  14.111
 4364SOL    HW214867   2.407   1.126  14.154
 4365SOL     OW14868   4.191   2.786  14.661
 4365SOL    HW114869   4.165   2.713  14.604
 4365SOL    HW214870   4.116   2.845  14.660
 4366SOL     OW14871   2.141  10.511   5.121
 4366SOL    HW114872   2.178  10.423   5.127
 4366SOL    HW214873   2.047  10.498   5.136
 4367SOL     OW14874  14.398  12.989  14.560
 4367SOL    HW114875  14.354  12.981  14.645
 4367SOL    HW214876  14.490  13.002  14.581
 4368SOL     OW14877   6.604   9.426   5.519
 4368SOL    HW114878   6.683   9.474   5.541
 4368SOL    HW214879   6.547   9.436   5.596
 4369SOL     OW14880  11.297   4.392   8.686
 4369SOL    HW114881  11.238   4.421   8.756
 4369SOL    HW214882  11.242   4.342   8.627
 4370SOL     OW14883   4.048   3.396  11.208
 4370SOL    HW114884   3.980   3.408  11.143
 4370SOL    HW214885   4.101   3.323  11.175
 4371SOL     OW14886  14.553   3.295   2.810
 4371SOL    HW114887  14.540   3.267   2.900
 4371SOL    HW214888  14.538   3.217   2.757
 4372SOL     OW14889   1.935   9.911   1.664
 4372SOL    HW114890   1.935   9.821   1.697
 4372SOL    HW214891   1.842   9.933   1.653
 4373SOL     OW14892   4.363  10.332   9.782
 4373SOL    HW114893   4.380  10.238   9.780
 4373SOL    HW214894   4.342  10.350   9.873
 4374SOL     OW14895   8.277  13.981   5.978
 4374SOL    HW114896   8.288  13.905   6.036
 4374SOL    HW214897   8.255  14.053   6.037
 4375SOL     OW14898   9.419   7.237   4.016
 4375SOL    HW114899   9.421   7.316   3.961
 4375SOL    HW214900   9.488   7.181   3.981
 4376SOL     OW14901  11.548   9.689  13.196
 4376SOL    HW114902  11.643   9.696  13.191
 4376SOL    HW214903  11.531   9.625  13.265
 4377SOL     OW14904  14.563   1.294   2.777
 4377SOL    HW114905  14.504   1.227   2.810
 4377SOL    HW214906  14.589   1.345   2.855
 4378SOL     OW14907   9.720   7.976  10.544
 4378SOL    HW114908   9.789   8.016  10.492
 4378SOL    HW214909   9.655   7.947  10.481
 4379SOL     OW14910   9.393   3.777   6.084
 4379SOL    HW114911   9.379   3.772   5.989
 4379SOL    HW214912   9.368   3.867   6.106
 4380SOL     OW14913   1.098  13.742   9.314
 4380SOL    HW114914   1.167  13.689   9.355
 4380SOL    HW214915   1.144  13.794   9.247
 4381SOL     OW14916   6.884   6.225   1.296
 4381SOL    HW114917   6.812   6.285   1.274
 4381SOL    HW214918   6.912   6.254   1.383
 4382SOL     OW14919   4.598  11.061   9.672
 4382SOL    HW114920   4.624  10.993   9.735
 4382SOL    HW214921   4.512  11.089   9.702
 4383SOL     OW14922   8.867   6.103   4.727
 4383SOL    HW114923   8.880   6.073   4.817
 4383SOL    HW214924   8.866   6.199   4.733
 4384SOL     OW14925   3.177  10.739   2.651
 4384SOL    HW114926   3.087  10.727   2.682
 4384SOL    HW214927   3.230  10.738   2.730
 4385SOL     OW14928   2.131   4.942   2.002
 4385SOL    HW114929   2.155   4.974   1.915
 4385SOL    HW214930   2.081   4.862   1.986
 4386SOL     OW14931   5.693  10.901   7.244
 4386SOL    HW114932   5.655  10.954   7.314
 4386SOL    HW214933   5.777  10.943   7.224
 4387SOL     OW14934  11.391   2.098   0.917
 4387SOL    HW114935  11.380   2.007   0.892
 4387SOL    HW214936  11.376   2.147   0.837
 4388SOL     OW14937  14.200   3.357  14.854
 4388SOL    HW114938  14.208   3.292   0.046
 4388SOL    HW214939  14.127   3.413   0.003
 4389SOL     OW14940   5.429   6.754   2.367
 4389SOL    HW114941   5.339   6.769   2.338
 4389SOL    HW214942   5.427   6.765   2.462
 4390SOL     OW14943   3.240   1.727   9.304
 4390SOL    HW114944   3.294   1.659   9.344
 4390SOL    HW214945   3.259   1.721   9.210
 4391SOL     OW14946  13.476   9.759   5.540
 4391SOL    HW114947  13.487   9.664   5.546
 4391SOL    HW214948  13.550   9.794   5.590
 4392SOL     OW14949   2.909   7.139   0.761
 4392SOL    HW114950   2.964   7.109   0.833
 4392SOL    HW214951   2.932   7.231   0.749
 4393SOL     OW14952  13.894   9.300  10.825
 4393SOL    HW114953  13.869   9.244  10.899
 4393SOL    HW214954  13.910   9.239  10.753
 4394SOL     OW14955   5.916   2.965   1.107
 4394SOL    HW114956   5.917   2.995   1.016
 4394SOL    HW214957   5.946   2.875   1.103
 4395SOL     OW14958  10.067   8.170   9.379
 4395SOL    HW114959  10.008   8.097   9.392
 4395SOL    HW214960  10.095   8.162   9.287
 4396SOL     OW14961   8.836   8.686   5.740
 4396SOL    HW114962   8.863   8.642   5.659
 4396SOL    HW214963   8.777   8.624   5.782
 4397SOL     OW14964   6.506   9.661  12.918
 4397SOL    HW114965   6.492   9.577  12.876
 4397SOL    HW214966   6.577   9.702  12.868
 4398SOL     OW14967   9.920  14.700   1.522
 4398SOL    HW114968   9.977  14.681   1.447
 4398SOL    HW214969   9.979  14.719   1.594
 4399SOL     OW14970   9.611   4.690  11.123
 4399SOL    HW114971   9.670   4.727  11.058
 4399SOL    HW214972   9.543   4.646  11.072
 4400SOL     OW14973   3.278   0.206  11.202
 4400SOL    HW114974   3.369   0.211  11.174
 4400SOL    HW214975   3.247   0.296  11.201
 4401SOL     OW14976   0.304   3.785   5.150
 4401SOL    HW114977   0.304   3.813   5.059
 4401SOL    HW214978   0.396   3.769   5.172
 4402SOL     OW14979   1.806   3.214  13.796
 4402SOL    HW114980   1.886   3.166  13.773
 4402SOL    HW214981   1.735   3.160  13.760
 4403SOL     OW14982  12.070   4.974  12.905
 4403SOL    HW114983  12.093   5.006  12.818
 4403SOL    HW214984  12.146   4.996  12.959
 4404SOL     OW14985   8.497  10.087   0.649
 4404SOL    HW114986   8.477  10.003   0.608
 4404SOL    HW214987   8.591  10.083   0.667
 4405SOL     OW14988   3.995  12.918   5.358
 4405SOL    HW114989   4.014  12.987   5.294
 4405SOL    HW214990   3.949  12.850   5.308
 4406SOL     OW14991  10.893  10.415   7.123
 4406SOL    HW114992  10.921  10.379   7.039
 4406SOL    HW214993  10.835  10.348   7.160
 4407SOL     OW14994  11.764   8.655   2.570
 4407SOL    HW114995  11.812   8.677   2.650
 4407SOL    HW214996  11.793   8.567   2.547
 4408SOL     OW14997   0.704   6.811  10.140
 4408SOL    HW114998   0.707   6.898  10.102
 4408SOL    HW214999   0.612   6.784  10.130
 4409SOL     OW15000   5.926   9.593   7.276
 4409SOL    HW115001   5.852   9.538   7.302
 4409SOL    HW215002   6.001   9.535   7.277
 4410SOL     OW15003   8.571   6.945  14.242
 4410SOL    HW115004   8.540   6.904  14.323
 4410SOL    HW215005   8.654   6.902  14.222
 4411SOL     OW15006   3.267  10.336   2.455
 4411SOL    HW115007   3.218  10.290   2.387
 4411SOL    HW215008   3.315  10.267   2.501
 4412SOL     OW15009  10.090  14.139  11.067
 4412SOL    HW115010  10.151  14.149  11.139
 4412SOL    HW215011  10.080  14.044  11.056
 4413SOL     OW15012   6.573  10.178   1.790
 4413SOL    HW115013   6.625  10.167   1.870
 4413SOL    HW215014   6.633  10.218   1.727
 4414SOL     OW15015   8.968   2.321  11.420
 4414SOL    HW115016   8.935   2.407  11.444
 4414SOL    HW215017   8.974   2.323  11.324
 4415SOL     OW15018   3.543   4.911   5.796
 4415SOL    HW115019   3.461   4.924   5.747
 4415SOL    HW215020   3.518   4.923   5.888
 4416SOL     OW15021   9.316  13.956   3.275
 4416SOL    HW115022   9.286  14.045   3.253
 4416SOL    HW215023   9.304  13.906   3.194
 4417SOL     OW15024   8.670  11.822   4.191
 4417SOL    HW115025   8.677  11.790   4.281
 4417SOL    HW215026   8.743  11.780   4.145
 4418SOL     OW15027   8.642   4.934   2.919
 4418SOL    HW115028   8.594   4.852   2.931
 4418SOL    HW215029   8.695   4.920   2.841
 4419SOL     OW15030   0.622   0.283   4.954
 4419SOL    HW115031   0.532   0.314   4.960
 4419SOL    HW215032   0.666   0.321   5.030
 4420SOL     OW15033  11.094   6.906   6.154
 4420SOL    HW115034  11.039   6.868   6.222
 4420SOL    HW215035  11.108   6.996   6.183
 4421SOL     OW15036   7.273  11.757   0.202
 4421SOL    HW115037   7.361  11.717   0.201
 4421SOL    HW215038   7.228  11.713   0.274
 4422SOL     OW15039   7.538  12.793   2.730
 4422SOL    HW115040   7.492  12.876   2.744
 4422SOL    HW215041   7.514  12.739   2.805
 4423SOL     OW15042   5.301  13.273  11.549
 4423SOL    HW115043   5.248  13.225  11.485
 4423SOL    HW215044   5.355  13.206  11.590
 4424SOL     OW15045   3.486   0.583   6.332
 4424SOL    HW115046   3.557   0.538   6.379
 4424SOL    HW215047   3.506   0.676   6.342
 4425SOL     OW15048  12.627   4.309  12.387
 4425SOL    HW115049  12.699   4.357  12.345
 4425SOL    HW215050  12.599   4.245  12.322
 4426SOL     OW15051   5.334  11.354   0.721
 4426SOL    HW115052   5.356  11.360   0.627
 4426SOL    HW215053   5.325  11.446   0.748
 4427SOL     OW15054  12.346  12.166   9.782
 4427SOL    HW115055  12.342  12.071   9.771
 4427SOL    HW215056  12.287  12.185   9.854
 4428SOL     OW15057   8.807   1.362  11.784
 4428SOL    HW115058   8.838   1.444  11.747
 4428SOL    HW215059   8.751   1.324  11.717
 4429SOL     OW15060  13.915  11.252   9.892
 4429SOL    HW115061  13.943  11.160   9.891
 4429SOL    HW215062  13.989  11.299   9.931
 4430SOL     OW15063   8.725   7.637  10.653
 4430SOL    HW115064   8.702   7.649  10.745
 4430SOL    HW215065   8.726   7.543  10.640
 4431SOL     OW15066   8.555  12.918   4.444
 4431SOL    HW115067   8.547  12.993   4.385
 4431SOL    HW215068   8.519  12.949   4.527
 4432SOL     OW15069   1.902  13.360   7.795
 4432SOL    HW115070   1.979  13.409   7.821
 4432SOL    HW215071   1.829  13.406   7.836
 4433SOL     OW15072   5.709  12.638   5.170
 4433SOL    HW115073   5.698  12.640   5.075
 4433SOL    HW215074   5.780  12.576   5.184
 4434SOL     OW15075   9.324   0.502   2.190
 4434SOL    HW115076   9.333   0.594   2.217
 4434SOL    HW215077   9.412   0.477   2.164
 4435SOL     OW15078  13.503   9.024  13.217
 4435SOL    HW115079  13.489   9.071  13.299
 4435SOL    HW215080  13.504   9.093  13.150
 4436SOL     OW15081   7.987   1.656   3.990
 4436SOL    HW115082   7.920   1.723   3.977
 4436SOL    HW215083   7.991   1.644   4.085
 4437SOL     OW15084   6.016   5.490   7.010
 4437SOL    HW115085   5.979   5.576   6.991
 4437SOL    HW215086   5.959   5.429   6.964
 4438SOL     OW15087  14.065   9.957  11.102
 4438SOL    HW115088  14.001   9.974  11.171
 4438SOL    HW215089  14.132   9.904  11.143
 4439SOL     OW15090   5.905  11.291   0.306
 4439SOL    HW115091   5.999  11.281   0.322
 4439SOL    HW215092   5.900  11.321   0.215
 4440SOL     OW15093  12.937   8.672   6.123
 4440SOL    HW115094  12.964   8.664   6.214
 4440SOL    HW215095  12.973   8.757   6.094
 4441SOL     OW15096   8.231   6.953   7.045
 4441SOL    HW115097   8.197   6.866   7.023
 4441SOL    HW215098   8.307   6.965   6.988
 4442SOL     OW15099   1.180   2.145   4.234
 4442SOL    HW115100   1.217   2.079   4.292
 4442SOL    HW215101   1.233   2.139   4.155
 4443SOL     OW15102   1.374  10.762   5.854
 4443SOL    HW115103   1.443  10.785   5.916
 4443SOL    HW215104   1.321  10.841   5.846
 4444SOL     OW15105   5.581   8.357   1.874
 4444SOL    HW115106   5.531   8.439   1.884
 4444SOL    HW215107   5.560   8.307   1.953
 4445SOL     OW15108   9.516   9.279   6.447
 4445SOL    HW115109   9.520   9.353   6.386
 4445SOL    HW215110   9.461   9.214   6.403
 4446SOL     OW15111   1.750  13.001   1.590
 4446SOL    HW115112   1.760  12.985   1.496
 4446SOL    HW215113   1.839  13.007   1.624
 4447SOL     OW15114   2.878   8.152   9.943
 4447SOL    HW115115   2.857   8.244   9.925
 4447SOL    HW215116   2.894   8.149  10.038
 4448SOL     OW15117   0.105   3.282   3.334
 4448SOL    HW115118   0.171   3.226   3.374
 4448SOL    HW215119   0.154   3.338   3.274
 4449SOL     OW15120  11.305   8.175   5.609
 4449SOL    HW115121  11.219   8.191   5.570
 4449SOL    HW215122  11.357   8.138   5.538
 4450SOL     OW15123   6.788  13.414   9.188
 4450SOL    HW115124   6.876  13.402   9.225
 4450SOL    HW215125   6.745  13.329   9.200
 4451SOL     OW15126   7.321   0.775   7.726
 4451SOL    HW115127   7.408   0.797   7.694
 4451SOL    HW215128   7.273   0.858   7.725
 4452SOL     OW15129   1.420   8.850   6.704
 4452SOL    HW115130   1.432   8.823   6.613
 4452SOL    HW215131   1.508   8.850   6.742
 4453SOL     OW15132   9.597   4.201   1.613
 4453SOL    HW115133   9.595   4.133   1.546
 4453SOL    HW215134   9.689   4.228   1.618
 4454SOL     OW15135   3.451  10.681   6.046
 4454SOL    HW115136   3.438  10.712   6.136
 4454SOL    HW215137   3.424  10.589   6.048
 4455SOL     OW15138   5.241   0.755   4.130
 4455SOL    HW115139   5.255   0.806   4.210
 4455SOL    HW215140   5.202   0.817   4.068
 4456SOL     OW15141   5.794  13.315   4.617
 4456SOL    HW115142   5.853  13.390   4.622
 4456SOL    HW215143   5.767  13.313   4.525
 4457SOL     OW15144   7.898   6.723   3.523
 4457SOL    HW115145   7.930   6.726   3.614
 4457SOL    HW215146   7.977   6.707   3.471
 4458SOL     OW15147  14.304   1.879   7.746
 4458SOL    HW115148  14.219   1.908   7.781
 4458SOL    HW215149  14.362   1.954   7.761
 4459SOL     OW15150  12.645   0.656   8.676
 4459SOL    HW115151  12.726   0.694   8.644
 4459SOL    HW215152  12.664   0.629   8.766
 4460SOL     OW15153   0.450  13.916   6.564
 4460SOL    HW115154   0.421  13.834   6.604
 4460SOL    HW215155   0.370  13.967   6.553
 4461SOL     OW15156   1.435   2.000   5.790
 4461SOL    HW115157   1.354   2.045   5.813
 4461SOL    HW215158   1.422   1.910   5.821
 4462SOL     OW15159   3.859   1.256   2.732
 4462SOL    HW115160   3.933   1.202   2.705
 4462SOL    HW215161   3.818   1.284   2.650
 4463SOL     OW15162   0.851   6.617   0.325
 4463SOL    HW115163   0.889   6.704   0.340
 4463SOL    HW215164   0.771   6.617   0.378
 4464SOL     OW15165   2.331   7.229   2.703
 4464SOL    HW115166   2.375   7.154   2.745
 4464SOL    HW215167   2.377   7.241   2.620
 4465SOL     OW15168  14.280   4.828   8.603
 4465SOL    HW115169  14.231   4.820   8.685
 4465SOL    HW215170  14.265   4.745   8.557
 4466SOL     OW15171  11.194  12.642   7.888
 4466SOL    HW115172  11.246  12.609   7.961
 4466SOL    HW215173  11.127  12.576   7.874
 4467SOL     OW15174   6.249  13.703   4.977
 4467SOL    HW115175   6.324  13.685   5.034
 4467SOL    HW215176   6.209  13.617   4.961
 4468SOL     OW15177   9.782  14.004   6.976
 4468SOL    HW115178   9.769  13.923   7.025
 4468SOL    HW215179   9.696  14.045   6.972
 4469SOL     OW15180   6.584   1.012  11.203
 4469SOL    HW115181   6.582   0.919  11.223
 4469SOL    HW215182   6.577   1.055  11.288
 4470SOL     OW15183   1.503   2.746   4.302
 4470SOL    HW115184   1.589   2.713   4.328
 4470SOL    HW215185   1.446   2.726   4.376
 4471SOL     OW15186   9.387  11.652   2.029
 4471SOL    HW115187   9.400  11.603   2.110
 4471SOL    HW215188   9.437  11.733   2.042
 4472SOL     OW15189  10.096   1.915   5.876
 4472SOL    HW115190  10.059   1.965   5.804
 4472SOL    HW215191  10.035   1.843   5.890
 4473SOL     OW15192   1.492   0.157  10.263
 4473SOL    HW115193   1.523   0.234  10.310
 4473SOL    HW215194   1.483   0.186  10.172
 4474SOL     OW15195  12.130  10.999   1.865
 4474SOL    HW115196  12.199  10.966   1.808
 4474SOL    HW215197  12.082  11.062   1.811
 4475SOL     OW15198   2.557   3.622   5.970
 4475SOL    HW115199   2.620   3.687   6.002
 4475SOL    HW215200   2.610   3.544   5.952
 4476SOL     OW15201  12.872   4.953   0.982
 4476SOL    HW115202  12.921   4.897   1.042
 4476SOL    HW215203  12.784   4.914   0.980
 4477SOL     OW15204  13.061   9.995   9.890
 4477SOL    HW115205  12.987  10.002   9.950
 4477SOL    HW215206  13.047  10.065   9.826
 4478SOL     OW15207  14.093   2.900  10.942
 4478SOL    HW115208  14.017   2.876  10.889
 4478SOL    HW215209  14.106   2.825  11.000
 4479SOL     OW15210   1.772   1.063   3.341
 4479SOL    HW115211   1.719   1.108   3.406
 4479SOL    HW215212   1.768   0.971   3.366
 4480SOL     OW15213   1.273   4.544   7.308
 4480SOL    HW115214   1.187   4.501   7.307
 4480SOL    HW215215   1.335   4.473   7.325
 4481SOL     OW15216  11.475   0.300   9.539
 4481SOL    HW115217  11.539   0.312   9.609
 4481SOL    HW215218  11.466   0.205   9.531
 4482SOL     OW15219   7.778  11.240   1.213
 4482SOL    HW115220   7.855  11.223   1.268
 4482SOL    HW215221   7.799  11.198   1.130
 4483SOL     OW15222   1.587   1.615  11.832
 4483SOL    HW115223   1.616   1.652  11.749
 4483SOL    HW215224   1.633   1.665  11.899
 4484SOL     OW15225   6.553  10.783  14.533
 4484SOL    HW115226   6.496  10.742  14.598
 4484SOL    HW215227   6.603  10.710  14.496
 4485SOL     OW15228   9.952  11.559   9.778
 4485SOL    HW115229   9.925  11.617   9.850
 4485SOL    HW215230   9.872  11.547   9.726
 4486SOL     OW15231   1.655   1.302   0.361
 4486SOL    HW115232   1.577   1.267   0.318
 4486SOL    HW215233   1.728   1.267   0.310
 4487SOL     OW15234   5.333   9.033   2.971
 4487SOL    HW115235   5.271   9.000   3.036
 4487SOL    HW215236   5.368   8.954   2.929
 4488SOL     OW15237   4.883  14.664   7.462
 4488SOL    HW115238   4.930  14.633   7.540
 4488SOL    HW215239   4.930  14.625   7.389
 4489SOL     OW15240   9.742   1.132   0.811
 4489SOL    HW115241   9.653   1.099   0.811
 4489SOL    HW215242   9.765   1.143   0.719
 4490SOL     OW15243   0.571   1.148   3.799
 4490SOL    HW115244   0.644   1.150   3.860
 4490SOL    HW215245   0.602   1.096   3.725
 4491SOL     OW15246   7.584   7.299   5.673
 4491SOL    HW115247   7.636   7.344   5.607
 4491SOL    HW215248   7.607   7.206   5.663
 4492SOL     OW15249   4.951   2.656   2.927
 4492SOL    HW115250   4.905   2.704   2.996
 4492SOL    HW215251   4.930   2.564   2.943
 4493SOL     OW15252   8.345   8.556  14.060
 4493SOL    HW115253   8.409   8.487  14.047
 4493SOL    HW215254   8.283   8.521  14.124
 4494SOL     OW15255   1.708  12.021  11.955
 4494SOL    HW115256   1.691  12.103  11.909
 4494SOL    HW215257   1.794  12.034  11.996
 4495SOL     OW15258   4.361  11.520   9.180
 4495SOL    HW115259   4.411  11.602   9.179
 4495SOL    HW215260   4.407  11.464   9.118
 4496SOL     OW15261   9.616   5.760   3.453
 4496SOL    HW115262   9.614   5.679   3.505
 4496SOL    HW215263   9.697   5.804   3.479
 4497SOL     OW15264   4.653   2.375   2.977
 4497SOL    HW115265   4.610   2.461   2.980
 4497SOL    HW215266   4.611   2.330   2.904
 4498SOL     OW15267  13.345   0.150   9.827
 4498SOL    HW115268  13.437   0.177   9.825
 4498SOL    HW215269  13.331   0.107   9.743
 4499SOL     OW15270  13.730  14.489   4.909
 4499SOL    HW115271  13.823  14.477   4.929
 4499SOL    HW215272  13.726  14.577   4.871
 4500SOL     OW15273  12.100   4.500   2.597
 4500SOL    HW115274  12.058   4.428   2.644
 4500SOL    HW215275  12.141   4.553   2.666
 4501SOL     OW15276   1.209   6.723  13.457
 4501SOL    HW115277   1.189   6.700  13.366
 4501SOL    HW215278   1.186   6.816  13.464
 4502SOL     OW15279   1.651   2.677   4.833
 4502SOL    HW115280   1.711   2.637   4.896
 4502SOL    HW215281   1.571   2.626   4.842
 4503SOL     OW15282   7.836   2.457  14.620
 4503SOL    HW115283   7.891   2.452  14.542
 4503SOL    HW215284   7.804   2.367  14.633
 4504SOL     OW15285   0.251   6.398   2.687
 4504SOL    HW115286   0.170   6.348   2.692
 4504SOL    HW215287   0.297   6.377   2.768
 4505SOL     OW15288   8.034   9.105   5.504
 4505SOL    HW115289   8.021   9.019   5.464
 4505SOL    HW215290   8.129   9.117   5.504
 4506SOL     OW15291   3.942   0.743   6.724
 4506SOL    HW115292   3.851   0.747   6.696
 4506SOL    HW215293   3.986   0.689   6.659
 4507SOL     OW15294   9.899   5.286  12.965
 4507SOL    HW115295   9.950   5.282  13.047
 4507SOL    HW215296   9.878   5.195  12.945
 4508SOL     OW15297   5.989   8.474   2.484
 4508SOL    HW115298   5.926   8.422   2.434
 4508SOL    HW215299   6.058   8.412   2.506
 4509SOL     OW15300  13.422  12.298   7.402
 4509SOL    HW115301  13.383  12.384   7.417
 4509SOL    HW215302  13.511  12.317   7.371
 4510SOL     OW15303   3.929   1.234   1.385
 4510SOL    HW115304   4.019   1.201   1.394
 4510SOL    HW215305   3.893   1.228   1.473
 4511SOL     OW15306  12.071   4.883   6.049
 4511SOL    HW115307  12.021   4.802   6.040
 4511SOL    HW215308  12.009   4.946   6.085
 4512SOL     OW15309   5.344   5.434   5.515
 4512SOL    HW115310   5.409   5.407   5.579
 4512SOL    HW215311   5.336   5.529   5.528
 4513SOL     OW15312   3.342   0.455  13.282
 4513SOL    HW115313   3.275   0.388  13.268
 4513SOL    HW215314   3.425   0.406  13.277
 4514SOL     OW15315   0.513   8.125   6.213
 4514SOL    HW115316   0.469   8.208   6.195
 4514SOL    HW215317   0.490   8.105   6.304
 4515SOL     OW15318  12.178   5.646   4.780
 4515SOL    HW115319  12.161   5.583   4.850
 4515SOL    HW215320  12.252   5.610   4.732
 4516SOL     OW15321   6.041   2.657   3.251
 4516SOL    HW115322   6.070   2.712   3.323
 4516SOL    HW215323   5.973   2.708   3.207
 4517SOL     OW15324   9.094   2.786   1.894
 4517SOL    HW115325   9.145   2.865   1.877
 4517SOL    HW215326   9.067   2.755   1.807
 4518SOL     OW15327   4.517   6.754   8.231
 4518SOL    HW115328   4.426   6.731   8.212
 4518SOL    HW215329   4.558   6.765   8.145
 4519SOL     OW15330   8.489   4.268   8.991
 4519SOL    HW115331   8.474   4.329   8.919
 4519SOL    HW215332   8.478   4.181   8.952
 4520SOL     OW15333  13.762  11.160   0.611
 4520SOL    HW115334  13.768  11.095   0.541
 4520SOL    HW215335  13.790  11.114   0.690
 4521SOL     OW15336  10.159  12.122   0.275
 4521SOL    HW115337  10.202  12.206   0.295
 4521SOL    HW215338  10.203  12.091   0.196
 4522SOL     OW15339   4.192   2.864  10.414
 4522SOL    HW115340   4.159   2.797  10.354
 4522SOL    HW215341   4.259   2.819  10.465
 4523SOL     OW15342   6.936   4.458   9.201
 4523SOL    HW115343   6.914   4.495   9.287
 4523SOL    HW215344   7.015   4.505   9.174
 4524SOL     OW15345   4.243   5.024   3.128
 4524SOL    HW115346   4.238   5.076   3.209
 4524SOL    HW215347   4.332   5.038   3.096
 4525SOL     OW15348  12.980   3.591   9.427
 4525SOL    HW115349  12.948   3.513   9.382
 4525SOL    HW215350  12.927   3.596   9.506
 4526SOL     OW15351  14.618   1.665   7.997
 4526SOL    HW115352  14.650   1.704   7.916
 4526SOL    HW215353  14.540   1.716   8.019
 4527SOL     OW15354   0.889   2.101  13.552
 4527SOL    HW115355   0.969   2.068  13.593
 4527SOL    HW215356   0.919   2.173  13.496
 4528SOL     OW15357  14.206   3.197  14.612
 4528SOL    HW115358  14.124   3.230  14.575
 4528SOL    HW215359  14.206   3.230  14.702
 4529SOL     OW15360   7.989  12.480   5.418
 4529SOL    HW115361   8.063  12.509   5.471
 4529SOL    HW215362   7.913  12.523   5.458
 4530SOL     OW15363  10.851  12.753  14.020
 4530SOL    HW115364  10.946  12.755  14.026
 4530SOL    HW215365  10.821  12.816  14.086
 4531SOL     OW15366   6.741  14.249   2.329
 4531SOL    HW115367   6.786  14.183   2.278
 4531SOL    HW215368   6.661  14.267   2.280
 4532SOL     OW15369  12.671   9.517   0.975
 4532SOL    HW115370  12.678   9.540   1.067
 4532SOL    HW215371  12.619   9.588   0.936
 4533SOL     OW15372   0.533   6.941   6.060
 4533SOL    HW115373   0.476   7.016   6.043
 4533SOL    HW215374   0.600   6.975   6.119
 4534SOL     OW15375   4.207   3.465   6.939
 4534SOL    HW115376   4.184   3.529   6.871
 4534SOL    HW215377   4.262   3.514   7.000
 4535SOL     OW15378  13.494  12.076  11.249
 4535SOL    HW115379  13.578  12.078  11.202
 4535SOL    HW215380  13.471  11.984  11.253
 4536SOL     OW15381  14.365   9.170   0.885
 4536SOL    HW115382  14.369   9.257   0.924
 4536SOL    HW215383  14.272   9.155   0.869
 4537SOL     OW15384  12.995   0.602  13.549
 4537SOL    HW115385  12.919   0.643  13.590
 4537SOL    HW215386  12.965   0.514  13.528
 4538SOL     OW15387  10.832  13.310   2.903
 4538SOL    HW115388  10.898  13.241   2.892
 4538SOL    HW215389  10.754  13.274   2.861
 4539SOL     OW15390  13.564   5.529   2.290
 4539SOL    HW115391  13.583   5.618   2.261
 4539SOL    HW215392  13.468   5.522   2.286
 4540SOL     OW15393  10.785   8.823   6.512
 4540SOL    HW115394  10.863   8.844   6.462
 4540SOL    HW215395  10.713   8.864   6.464
 4541SOL     OW15396   1.978   5.138  12.204
 4541SOL    HW115397   2.011   5.206  12.263
 4541SOL    HW215398   1.958   5.064  12.261
 4542SOL     OW15399   0.556  12.486  11.172
 4542SOL    HW115400   0.553  12.398  11.134
 4542SOL    HW215401   0.647  12.514  11.160
 4543SOL     OW15402  14.337   7.314   9.154
 4543SOL    HW115403  14.293   7.290   9.073
 4543SOL    HW215404  14.290   7.391   9.186
 4544SOL     OW15405  12.340   5.992   0.020
 4544SOL    HW115406  12.312   6.082   0.002
 4544SOL    HW215407  12.424   6.001   0.065
 4545SOL     OW15408  14.449  12.836   0.077
 4545SOL    HW115409  14.387  12.779   0.032
 4545SOL    HW215410  14.483  12.782   0.149
 4546SOL     OW15411  10.952   5.485  13.166
 4546SOL    HW115412  11.001   5.418  13.214
 4546SOL    HW215413  10.994   5.567  13.189
 4547SOL     OW15414   4.485  13.961  13.463
 4547SOL    HW115415   4.393  13.944  13.445
 4547SOL    HW215416   4.495  13.940  13.556
 4548SOL     OW15417   1.192   0.573   4.513
 4548SOL    HW115418   1.199   0.657   4.467
 4548SOL    HW215419   1.282   0.551   4.536
 4549SOL     OW15420   8.134   3.867   1.735
 4549SOL    HW115421   8.086   3.807   1.678
 4549SOL    HW215422   8.080   3.872   1.814
 4550SOL     OW15423  14.573   4.809   4.862
 4550SOL    HW115424  14.480   4.829   4.848
 4550SOL    HW215425  14.575   4.715   4.879
 4551SOL     OW15426  14.681   5.845   6.807
 4551SOL    HW115427  14.592   5.876   6.792
 4551SOL    HW215428  14.729   5.922   6.839
 4552SOL     OW15429   9.405   0.921   9.107
 4552SOL    HW115430   9.313   0.938   9.087
 4552SOL    HW215431   9.417   0.828   9.089
 4553SOL     OW15432   2.543   3.475  13.016
 4553SOL    HW115433   2.486   3.524  12.957
 4553SOL    HW215434   2.611   3.537  13.041
 4554SOL     OW15435   8.594   8.055  10.415
 4554SOL    HW115436   8.611   7.962  10.429
 4554SOL    HW215437   8.504   8.059  10.383
 4555SOL     OW15438   9.445   0.908   4.169
 4555SOL    HW115439   9.534   0.909   4.205
 4555SOL    HW215440   9.393   0.860   4.234
 4556SOL     OW15441   5.794   3.302   2.389
 4556SOL    HW115442   5.801   3.380   2.444
 4556SOL    HW215443   5.819   3.331   2.301
 4557SOL     OW15444  11.990  14.227   4.877
 4557SOL    HW115445  12.024  14.177   4.803
 4557SOL    HW215446  12.037  14.193   4.953
 4558SOL     OW15447  10.452   3.257   6.200
 4558SOL    HW115448  10.394   3.205   6.257
 4558SOL    HW215449  10.394   3.321   6.159
 4559SOL     OW15450  10.015  14.352   8.051
 4559SOL    HW115451  10.068  14.273   8.070
 4559SOL    HW215452  10.060  14.393   7.978
 4560SOL     OW15453  11.299   4.424   9.405
 4560SOL    HW115454  11.372   4.387   9.355
 4560SOL    HW215455  11.226   4.364   9.389
 4561SOL     OW15456   0.487   6.089   2.099
 4561SOL    HW115457   0.410   6.142   2.121
 4561SOL    HW215458   0.485   6.017   2.161
 4562SOL     OW15459  13.725   9.518   1.229
 4562SOL    HW115460  13.782   9.560   1.164
 4562SOL    HW215461  13.786   9.486   1.296
 4563SOL     OW15462   1.287  11.669   5.641
 4563SOL    HW115463   1.207  11.720   5.628
 4563SOL    HW215464   1.262  11.579   5.619
 4564SOL     OW15465  13.591  14.153   4.288
 4564SOL    HW115466  13.622  14.073   4.245
 4564SOL    HW215467  13.496  14.139   4.297
 4565SOL     OW15468  11.854  13.610   8.222
 4565SOL    HW115469  11.867  13.541   8.287
 4565SOL    HW215470  11.935  13.610   8.171
 4566SOL     OW15471  11.223  13.456   5.310
 4566SOL    HW115472  11.225  13.420   5.399
 4566SOL    HW215473  11.146  13.513   5.310
 4567SOL     OW15474   3.608   6.221   3.949
 4567SOL    HW115475   3.595   6.133   3.984
 4567SOL    HW215476   3.555   6.278   4.005
 4568SOL     OW15477   8.392   2.653  13.035
 4568SOL    HW115478   8.391   2.692  12.947
 4568SOL    HW215479   8.479   2.616  13.044
 4569SOL     OW15480   0.672   8.047   7.901
 4569SOL    HW115481   0.737   8.111   7.929
 4569SOL    HW215482   0.705   7.963   7.932
 4570SOL     OW15483   6.482   3.347  12.951
 4570SOL    HW115484   6.514   3.371  12.864
 4570SOL    HW215485   6.400   3.301  12.935
 4571SOL     OW15486  11.752   6.675   8.036
 4571SOL    HW115487  11.671   6.627   8.019
 4571SOL    HW215488  11.754   6.744   7.970
 4572SOL     OW15489  11.094   8.408   1.316
 4572SOL    HW115490  11.115   8.499   1.294
 4572SOL    HW215491  11.074   8.367   1.231
 4573SOL     OW15492   7.945   3.323   8.027
 4573SOL    HW115493   7.954   3.254   8.092
 4573SOL    HW215494   7.954   3.404   8.077
 4574SOL     OW15495   0.321  14.209   9.907
 4574SOL    HW115496   0.231  14.218   9.875
 4574SOL    HW215497   0.335  14.114   9.911
 4575SOL     OW15498   5.014   6.217  11.707
 4575SOL    HW115499   4.935   6.199  11.758
 4575SOL    HW215500   5.039   6.306  11.732
 4576SOL     OW15501   0.041   0.361   7.445
 4576SOL    HW115502   0.076   0.439   7.403
 4576SOL    HW215503  14.842   0.339   7.393
 4577SOL     OW15504   6.247   1.561   4.928
 4577SOL    HW115505   6.332   1.551   4.886
 4577SOL    HW215506   6.256   1.639   4.983
 4578SOL     OW15507  12.657   9.047   7.616
 4578SOL    HW115508  12.682   9.050   7.524
 4578SOL    HW215509  12.729   9.090   7.662
 4579SOL     OW15510  14.211   8.369  13.363
 4579SOL    HW115511  14.278   8.437  13.373
 4579SOL    HW215512  14.233   8.304  13.429
 4580SOL     OW15513  13.386   1.036  10.627
 4580SOL    HW115514  13.298   1.026  10.590
 4580SOL    HW215515  13.384   1.121  10.672
 4581SOL     OW15516   2.256  11.195  13.116
 4581SOL    HW115517   2.182  11.134  13.122
 4581SOL    HW215518   2.216  11.281  13.104
 4582SOL     OW15519   6.735   7.656  14.818
 4582SOL    HW115520   6.768   7.635   0.027
 4582SOL    HW215521   6.642   7.675  14.832
 4583SOL     OW15522   4.908  11.203  12.324
 4583SOL    HW115523   4.900  11.298  12.333
 4583SOL    HW215524   4.823  11.174  12.291
 4584SOL     OW15525  10.829   3.799   2.733
 4584SOL    HW115526  10.884   3.827   2.660
 4584SOL    HW215527  10.812   3.878   2.783
 4585SOL     OW15528  13.988   0.259   8.935
 4585SOL    HW115529  13.995   0.238   9.028
 4585SOL    HW215530  14.077   0.280   8.908
 4586SOL     OW15531  12.307  14.180  10.612
 4586SOL    HW115532  12.291  14.168  10.518
 4586SOL    HW215533  12.221  14.201  10.649
 4587SOL     OW15534   5.785   4.537  10.202
 4587SOL    HW115535   5.780   4.448  10.237
 4587SOL    HW215536   5.878   4.559  10.206
 4588SOL     OW15537   1.626   5.093  13.041
 4588SOL    HW115538   1.550   5.036  13.029
 4588SOL    HW215539   1.588   5.176  13.072
 4589SOL     OW15540  12.494   8.915   5.474
 4589SOL    HW115541  12.402   8.889   5.478
 4589SOL    HW215542  12.542   8.833   5.486
 4590SOL     OW15543   1.717   7.536   2.120
 4590SOL    HW115544   1.625   7.521   2.100
 4590SOL    HW215545   1.761   7.535   2.035
 4591SOL     OW15546   5.585  14.357  14.541
 4591SOL    HW115547   5.494  14.327  14.534
 4591SOL    HW215548   5.578  14.451  14.554
 4592SOL     OW15549   1.385   4.299   9.010
 4592SOL    HW115550   1.450   4.331   9.072
 4592SOL    HW215551   1.373   4.372   8.948
 4593SOL     OW15552  10.087   1.662  11.158
 4593SOL    HW115553  10.097   1.721  11.083
 4593SOL    HW215554  10.028   1.708  11.218
 4594SOL     OW15555   4.552   1.250  12.734
 4594SOL    HW115556   4.607   1.191  12.785
 4594SOL    HW215557   4.579   1.236  12.643
 4595SOL     OW15558   0.819   1.136  12.397
 4595SOL    HW115559   0.860   1.105  12.316
 4595SOL    HW215560   0.725   1.134  12.378
 4596SOL     OW15561   9.105   0.729   0.357
 4596SOL    HW115562   9.091   0.635   0.343
 4596SOL    HW215563   9.134   0.735   0.448
 4597SOL     OW15564   5.952   9.542   8.072
 4597SOL    HW115565   5.975   9.615   8.016
 4597SOL    HW215566   5.865   9.562   8.104
 4598SOL     OW15567   5.804  14.374  11.735
 4598SOL    HW115568   5.761  14.294  11.702
 4598SOL    HW215569   5.888  14.376  11.689
 4599SOL     OW15570  12.485   0.282  10.538
 4599SOL    HW115571  12.411   0.266  10.598
 4599SOL    HW215572  12.483   0.377  10.523
 4600SOL     OW15573   5.161  10.751  10.049
 4600SOL    HW115574   5.193  10.799  10.125
 4600SOL    HW215575   5.107  10.814  10.001
 4601SOL     OW15576   4.888   6.905   3.899
 4601SOL    HW115577   4.856   6.971   3.836
 4601SOL    HW215578   4.863   6.939   3.984
 4602SOL     OW15579   0.131   5.383  10.196
 4602SOL    HW115580   0.040   5.411  10.209
 4602SOL    HW215581   0.126   5.287  10.192
 4603SOL     OW15582   5.170   8.043   2.653
 4603SOL    HW115583   5.214   8.038   2.568
 4603SOL    HW215584   5.107   7.972   2.651
 4604SOL     OW15585   9.614  11.931   2.424
 4604SOL    HW115586   9.644  11.931   2.515
 4604SOL    HW215587   9.626  12.021   2.395
 4605SOL     OW15588   9.996   3.653   6.334
 4605SOL    HW115589   9.962   3.742   6.344
 4605SOL    HW215590   9.981   3.632   6.242
 4606SOL     OW15591  11.344   3.333  12.788
 4606SOL    HW115592  11.291   3.328  12.868
 4606SOL    HW215593  11.338   3.426  12.763
 4607SOL     OW15594  12.073   0.132   2.774
 4607SOL    HW115595  12.126   0.157   2.849
 4607SOL    HW215596  12.038   0.046   2.796
 4608SOL     OW15597   4.314   8.601  12.526
 4608SOL    HW115598   4.327   8.539  12.598
 4608SOL    HW215599   4.364   8.678  12.553
 4609SOL     OW15600   9.112   2.992   3.673
 4609SOL    HW115601   9.051   2.939   3.725
 4609SOL    HW215602   9.153   2.929   3.614
 4610SOL     OW15603   1.567   3.065   4.666
 4610SOL    HW115604   1.501   3.005   4.702
 4610SOL    HW215605   1.635   3.069   4.733
 4611SOL     OW15606  12.982   3.761  13.428
 4611SOL    HW115607  12.973   3.667  13.411
 4611SOL    HW215608  12.897   3.798  13.404
 4612SOL     OW15609   7.581  10.837   9.229
 4612SOL    HW115610   7.661  10.820   9.279
 4612SOL    HW215611   7.523  10.881   9.291
 4613SOL     OW15612   5.832   8.081   8.889
 4613SOL    HW115613   5.792   8.089   8.802
 4613SOL    HW215614   5.762   8.106   8.950
 4614SOL     OW15615   0.854   1.198  14.732
 4614SOL    HW115616   0.923   1.185  14.667
 4614SOL    HW215617   0.894   1.257  14.797
 4615SOL     OW15618   0.480   6.893  11.246
 4615SOL    HW115619   0.416   6.938  11.300
 4615SOL    HW215620   0.534   6.962  11.209
 4616SOL     OW15621   5.101   7.799   6.998
 4616SOL    HW115622   5.170   7.742   7.031
 4616SOL    HW215623   5.027   7.740   6.981
 4617SOL     OW15624  12.133   2.322   3.196
 4617SOL    HW115625  12.090   2.347   3.278
 4617SOL    HW215626  12.093   2.378   3.129
 4618SOL     OW15627   3.603   5.857   3.378
 4618SOL    HW115628   3.601   5.767   3.345
 4618SOL    HW215629   3.519   5.869   3.422
 4619SOL     OW15630  13.851   0.015   1.751
 4619SOL    HW115631  13.807  14.858   1.828
 4619SOL    HW215632  13.905   0.087   1.785
 4620SOL     OW15633   4.038  12.564   7.113
 4620SOL    HW115634   3.992  12.640   7.149
 4620SOL    HW215635   4.056  12.587   7.022
 4621SOL     OW15636  13.880   3.187   4.293
 4621SOL    HW115637  13.874   3.251   4.364
 4621SOL    HW215638  13.891   3.240   4.214
 4622SOL     OW15639   5.221   0.420  12.248
 4622SOL    HW115640   5.129   0.420  12.219
 4622SOL    HW215641   5.270   0.448  12.171
 4623SOL     OW15642   8.612   6.833  12.395
 4623SOL    HW115643   8.536   6.775  12.395
 4623SOL    HW215644   8.586   6.908  12.342
 4624SOL     OW15645   1.675   4.219   9.741
 4624SOL    HW115646   1.630   4.259   9.667
 4624SOL    HW215647   1.712   4.138   9.705
 4625SOL     OW15648  14.268  12.578   9.421
 4625SOL    HW115649  14.183  12.614   9.395
 4625SOL    HW215650  14.314  12.564   9.338
 4626SOL     OW15651   7.887   8.022   4.471
 4626SOL    HW115652   7.913   7.931   4.457
 4626SOL    HW215653   7.851   8.050   4.386
 4627SOL     OW15654  14.401  10.284   6.362
 4627SOL    HW115655  14.482  10.234   6.371
 4627SOL    HW215656  14.397  10.339   6.441
 4628SOL     OW15657  12.677  13.155  10.783
 4628SOL    HW115658  12.713  13.102  10.712
 4628SOL    HW215659  12.703  13.111  10.863
 4629SOL     OW15660   2.111  10.895  11.206
 4629SOL    HW115661   2.162  10.822  11.170
 4629SOL    HW215662   2.139  10.901  11.297
 4630SOL     OW15663  11.427   3.799   4.432
 4630SOL    HW115664  11.519   3.797   4.455
 4630SOL    HW215665  11.398   3.888   4.455
 4631SOL     OW15666  13.710   2.517   1.461
 4631SOL    HW115667  13.705   2.465   1.541
 4631SOL    HW215668  13.628   2.566   1.460
 4632SOL     OW15669   4.494   0.137   3.918
 4632SOL    HW115670   4.589   0.147   3.912
 4632SOL    HW215671   4.480   0.043   3.930
 4633SOL     OW15672   3.039   3.481   1.324
 4633SOL    HW115673   3.089   3.529   1.389
 4633SOL    HW215674   2.949   3.481   1.357
 4634SOL     OW15675  10.975  12.599   2.837
 4634SOL    HW115676  11.014  12.562   2.916
 4634SOL    HW215677  10.911  12.534   2.808
 4635SOL     OW15678   8.882  11.922   3.481
 4635SOL    HW115679   8.792  11.947   3.502
 4635SOL    HW215680   8.886  11.925   3.385
 4636SOL     OW15681   5.662  10.099  12.998
 4636SOL    HW115682   5.690  10.177  12.950
 4636SOL    HW215683   5.736  10.038  12.990
 4637SOL     OW15684  12.671   9.483  12.532
 4637SOL    HW115685  12.598   9.522  12.579
 4637SOL    HW215686  12.695   9.407  12.584
 4638SOL     OW15687   5.567  11.566  13.054
 4638SOL    HW115688   5.479  11.597  13.031
 4638SOL    HW215689   5.589  11.505  12.983
 4639SOL     OW15690   4.050   8.881   7.137
 4639SOL    HW115691   4.093   8.814   7.083
 4639SOL    HW215692   4.040   8.956   7.078
 4640SOL     OW15693   3.764   5.478   7.575
 4640SOL    HW115694   3.756   5.569   7.545
 4640SOL    HW215695   3.713   5.475   7.656
 4641SOL     OW15696   4.062   5.599  12.984
 4641SOL    HW115697   4.064   5.644  13.068
 4641SOL    HW215698   4.133   5.640  12.934
 4642SOL     OW15699  10.374   4.315   2.735
 4642SOL    HW115700  10.372   4.272   2.820
 4642SOL    HW215701  10.283   4.337   2.716
 4643SOL     OW15702  11.501   1.208   3.375
 4643SOL    HW115703  11.410   1.232   3.389
 4643SOL    HW215704  11.543   1.289   3.347
 4644SOL     OW15705   8.321   5.682  13.200
 4644SOL    HW115706   8.414   5.706  13.194
 4644SOL    HW215707   8.291   5.678  13.109
 4645SOL     OW15708   5.394   4.917  13.465
 4645SOL    HW115709   5.356   4.958  13.543
 4645SOL    HW215710   5.480   4.960  13.456
 4646SOL     OW15711  12.852   0.426   3.639
 4646SOL    HW115712  12.785   0.399   3.576
 4646SOL    HW215713  12.904   0.348   3.654
 4647SOL     OW15714   8.021   2.413   6.256
 4647SOL    HW115715   7.935   2.411   6.299
 4647SOL    HW215716   8.057   2.499   6.278
 4648SOL     OW15717  10.620   5.360   3.869
 4648SOL    HW115718  10.668   5.440   3.889
 4648SOL    HW215719  10.665   5.324   3.792
 4649SOL     OW15720  10.381   8.211   8.422
 4649SOL    HW115721  10.367   8.266   8.499
 4649SOL    HW215722  10.427   8.267   8.360
 4650SOL     OW15723   5.751   9.058   8.834
 4650SOL    HW115724   5.725   9.141   8.794
 4650SOL    HW215725   5.755   9.076   8.928
 4651SOL     OW15726  12.108   6.187   6.611
 4651SOL    HW115727  12.128   6.094   6.624
 4651SOL    HW215728  12.049   6.209   6.683
 4652SOL     OW15729  11.495   9.348  10.647
 4652SOL    HW115730  11.565   9.412  10.635
 4652SOL    HW215731  11.540   9.269  10.678
 4653SOL     OW15732   5.697   2.855   3.798
 4653SOL    HW115733   5.618   2.901   3.770
 4653SOL    HW215734   5.702   2.778   3.741
 4654SOL     OW15735  12.059   0.833   4.593
 4654SOL    HW115736  12.125   0.790   4.539
 4654SOL    HW215737  12.033   0.910   4.543
 4655SOL     OW15738  13.760  13.321   2.276
 4655SOL    HW115739  13.691  13.387   2.282
 4655SOL    HW215740  13.820  13.355   2.209
 4656SOL     OW15741   3.738   6.104   5.046
 4656SOL    HW115742   3.716   6.027   4.992
 4656SOL    HW215743   3.832   6.117   5.031
 4657SOL     OW15744   3.396   5.099   0.216
 4657SOL    HW115745   3.341   5.137   0.147
 4657SOL    HW215746   3.436   5.175   0.258
 4658SOL     OW15747   2.550  12.912  12.669
 4658SOL    HW115748   2.566  12.928  12.576
 4658SOL    HW215749   2.454  12.910  12.676
 4659SOL     OW15750   2.169   9.740   8.801
 4659SOL    HW115751   2.081   9.766   8.775
 4659SOL    HW215752   2.166   9.736   8.897
 4660SOL     OW15753   6.592   1.875   0.698
 4660SOL    HW115754   6.554   1.947   0.647
 4660SOL    HW215755   6.519   1.815   0.713
 4661SOL     OW15756   7.103  13.900   4.216
 4661SOL    HW115757   7.157  13.977   4.233
 4661SOL    HW215758   7.164  13.835   4.183
 4662SOL     OW15759  14.091   0.572   1.570
 4662SOL    HW115760  14.124   0.493   1.529
 4662SOL    HW215761  14.011   0.593   1.522
 4663SOL     OW15762   6.698   2.867  12.098
 4663SOL    HW115763   6.692   2.772  12.100
 4663SOL    HW215764   6.767   2.889  12.160
 4664SOL     OW15765   9.903  11.003   9.653
 4664SOL    HW115766   9.961  10.976   9.582
 4664SOL    HW215767   9.962  11.031   9.723
 4665SOL     OW15768  11.214   7.115  12.324
 4665SOL    HW115769  11.256   7.036  12.359
 4665SOL    HW215770  11.272   7.144  12.254
 4666SOL     OW15771  10.656   8.649  14.842
 4666SOL    HW115772  10.583   8.590  14.826
 4666SOL    HW215773  10.727   8.592  14.872
 4667SOL     OW15774   1.362   9.707   1.485
 4667SOL    HW115775   1.415   9.628   1.501
 4667SOL    HW215776   1.355   9.749   1.570
 4668SOL     OW15777   7.968   9.774  10.137
 4668SOL    HW115778   7.988   9.855  10.092
 4668SOL    HW215779   8.053   9.742  10.169
 4669SOL     OW15780   5.621   9.328   4.326
 4669SOL    HW115781   5.699   9.286   4.291
 4669SOL    HW215782   5.652   9.411   4.362
 4670SOL     OW15783  10.792  10.476  12.658
 4670SOL    HW115784  10.707  10.439  12.635
 4670SOL    HW215785  10.841  10.402  12.696
 4671SOL     OW15786   3.557  11.857   9.323
 4671SOL    HW115787   3.631  11.800   9.305
 4671SOL    HW215788   3.570  11.933   9.267
 4672SOL     OW15789   8.855   2.240  10.431
 4672SOL    HW115790   8.869   2.331  10.402
 4672SOL    HW215791   8.829   2.194  10.352
 4673SOL     OW15792  10.150  12.249   5.071
 4673SOL    HW115793  10.182  12.224   4.984
 4673SOL    HW215794  10.216  12.309   5.105
 4674SOL     OW15795   4.503   5.621  12.660
 4674SOL    HW115796   4.542   5.540  12.627
 4674SOL    HW215797   4.487   5.673  12.581
 4675SOL     OW15798  13.915   2.890   4.608
 4675SOL    HW115799  13.969   2.934   4.543
 4675SOL    HW215800  13.911   2.952   4.681
 4676SOL     OW15801  11.423   1.380   2.062
 4676SOL    HW115802  11.481   1.433   2.116
 4676SOL    HW215803  11.418   1.296   2.108
 4677SOL     OW15804   2.198  10.361   2.695
 4677SOL    HW115805   2.270  10.424   2.686
 4677SOL    HW215806   2.235  10.290   2.747
 4678SOL     OW15807   9.815   1.769  13.934
 4678SOL    HW115808   9.877   1.745  14.004
 4678SOL    HW215809   9.776   1.851  13.963
 4679SOL     OW15810   8.098  12.455  10.270
 4679SOL    HW115811   8.053  12.470  10.187
 4679SOL    HW215812   8.181  12.413  10.245
 4680SOL     OW15813   7.262   7.288   0.822
 4680SOL    HW115814   7.342   7.322   0.861
 4680SOL    HW215815   7.240   7.210   0.874
 4681SOL     OW15816   1.838   0.444  12.218
 4681SOL    HW115817   1.864   0.437  12.310
 4681SOL    HW215818   1.921   0.448  12.170
 4682SOL     OW15819   3.983   2.328  13.599
 4682SOL    HW115820   3.987   2.234  13.585
 4682SOL    HW215821   4.020   2.367  13.520
 4683SOL     OW15822   3.904   1.428   4.103
 4683SOL    HW115823   3.983   1.374   4.098
 4683SOL    HW215824   3.835   1.367   4.130
 4684SOL     OW15825  14.539  12.693  12.127
 4684SOL    HW115826  14.597  12.732  12.062
 4684SOL    HW215827  14.542  12.599  12.109
 4685SOL     OW15828   2.827   3.237   3.578
 4685SOL    HW115829   2.732   3.231   3.568
 4685SOL    HW215830   2.847   3.187   3.657
 4686SOL     OW15831   4.292   6.811  11.553
 4686SOL    HW115832   4.341   6.853  11.482
 4686SOL    HW215833   4.201   6.835  11.538
 4687SOL     OW15834   4.363   9.504   3.889
 4687SOL    HW115835   4.353   9.596   3.914
 4687SOL    HW215836   4.410   9.464   3.962
 4688SOL     OW15837   6.206   8.363   2.192
 4688SOL    HW115838   6.248   8.442   2.226
 4688SOL    HW215839   6.174   8.389   2.106
 4689SOL     OW15840  13.591  11.215   8.738
 4689SOL    HW115841  13.505  11.203   8.697
 4689SOL    HW215842  13.604  11.135   8.789
 4690SOL     OW15843   8.013   2.798   5.360
 4690SOL    HW115844   8.019   2.716   5.409
 4690SOL    HW215845   8.100   2.809   5.322
 4691SOL     OW15846  11.100   0.716   0.697
 4691SOL    HW115847  11.109   0.696   0.791
 4691SOL    HW215848  11.028   0.661   0.668
 4692SOL     OW15849   1.245  14.070   2.596
 4692SOL    HW115850   1.254  14.003   2.664
 4692SOL    HW215851   1.279  14.150   2.636
 4693SOL     OW15852   0.640  11.752  13.662
 4693SOL    HW115853   0.587  11.754  13.742
 4693SOL    HW215854   0.575  11.745  13.592
 4694SOL     OW15855   4.388   3.988   5.340
 4694SOL    HW115856   4.470   3.948   5.311
 4694SOL    HW215857   4.410   4.034   5.421
 4695SOL     OW15858   2.330   8.726   3.926
 4695SOL    HW115859   2.269   8.726   4.000
 4695SOL    HW215860   2.319   8.640   3.886
 4696SOL     OW15861   5.772  11.925  10.600
 4696SOL    HW115862   5.683  11.892  10.594
 4696SOL    HW215863   5.825  11.858  10.555
 4697SOL     OW15864   4.755   2.636   1.203
 4697SOL    HW115865   4.700   2.708   1.233
 4697SOL    HW215866   4.701   2.592   1.137
 4698SOL     OW15867   0.141   6.851  10.667
 4698SOL    HW115868   0.145   6.945  10.685
 4698SOL    HW215869   0.144   6.810  10.753
 4699SOL     OW15870   3.588   9.676   9.541
 4699SOL    HW115871   3.569   9.598   9.593
 4699SOL    HW215872   3.502   9.711   9.517
 4700SOL     OW15873  12.256   5.008   1.221
 4700SOL    HW115874  12.262   5.004   1.126
 4700SOL    HW215875  12.218   5.094   1.239
 4701SOL     OW15876   4.804  13.642  10.486
 4701SOL    HW115877   4.892  13.678  10.498
 4701SOL    HW215878   4.819  13.554  10.450
 4702SOL     OW15879   2.255   0.051  10.653
 4702SOL    HW115880   2.169   0.012  10.668
 4702SOL    HW215881   2.254   0.078  10.562
 4703SOL     OW15882   2.294   1.063  12.190
 4703SOL    HW115883   2.202   1.084  12.203
 4703SOL    HW215884   2.326   1.038  12.276
 4704SOL     OW15885  11.164   9.327  13.166
 4704SOL    HW115886  11.160   9.330  13.261
 4704SOL    HW215887  11.222   9.254  13.146
 4705SOL     OW15888  12.738   4.635   4.608
 4705SOL    HW115889  12.773   4.661   4.523
 4705SOL    HW215890  12.659   4.585   4.588
 4706SOL     OW15891  14.752   9.396   9.431
 4706SOL    HW115892  14.752   9.466   9.364
 4706SOL    HW215893  14.810   9.329   9.395
 4707SOL     OW15894  14.673  10.595   3.404
 4707SOL    HW115895  14.581  10.582   3.381
 4707SOL    HW215896  14.677  10.683   3.440
 4708SOL     OW15897  12.501   8.216  11.463
 4708SOL    HW115898  12.563   8.220  11.390
 4708SOL    HW215899  12.547   8.168  11.532
 4709SOL     OW15900   5.748   5.587   3.865
 4709SOL    HW115901   5.831   5.553   3.901
 4709SOL    HW215902   5.688   5.512   3.869
 4710SOL     OW15903  11.949   6.881   4.315
 4710SOL    HW115904  11.952   6.866   4.409
 4710SOL    HW215905  11.935   6.975   4.306
 4711SOL     OW15906   8.765  14.588  11.701
 4711SOL    HW115907   8.707  14.513  11.711
 4711SOL    HW215908   8.841  14.567  11.755
 4712SOL     OW15909   7.544   6.624  14.524
 4712SOL    HW115910   7.522   6.651  14.613
 4712SOL    HW215911   7.494   6.683  14.468
 4713SOL     OW15912  13.074   4.559  10.009
 4713SOL    HW115913  13.154   4.611  10.020
 4713SOL    HW215914  13.004   4.617  10.039
 4714SOL     OW15915   4.500  12.381  12.671
 4714SOL    HW115916   4.509  12.368  12.576
 4714SOL    HW215917   4.586  12.414  12.699
 4715SOL     OW15918   4.309   0.447  14.609
 4715SOL    HW115919   4.223   0.426  14.646
 4715SOL    HW215920   4.300   0.537  14.577
 4716SOL     OW15921  10.071  10.861   1.649
 4716SOL    HW115922  10.089  10.780   1.600
 4716SOL    HW215923  10.082  10.836   1.741
 4717SOL     OW15924  11.583   7.229   5.565
 4717SOL    HW115925  11.674   7.234   5.594
 4717SOL    HW215926  11.554   7.320   5.560
 4718SOL     OW15927   2.014   6.369   4.139
 4718SOL    HW115928   1.997   6.381   4.232
 4718SOL    HW215929   1.928   6.361   4.099
 4719SOL     OW15930   5.760   0.943  11.846
 4719SOL    HW115931   5.704   0.888  11.791
 4719SOL    HW215932   5.732   0.923  11.936
 4720SOL     OW15933   9.743   9.742   9.436
 4720SOL    HW115934   9.792   9.741   9.354
 4720SOL    HW215935   9.781   9.670   9.487
 4721SOL     OW15936   6.030   2.642   9.385
 4721SOL    HW115937   6.030   2.693   9.466
 4721SOL    HW215938   5.959   2.579   9.397
 4722SOL     OW15939   0.776   7.849  11.017
 4722SOL    HW115940   0.750   7.930  10.974
 4722SOL    HW215941   0.854   7.871  11.067
 4723SOL     OW15942  10.405   0.709  10.126
 4723SOL    HW115943  10.365   0.786  10.085
 4723SOL    HW215944  10.418   0.648  10.054
 4724SOL     OW15945   7.807   9.978  11.158
 4724SOL    HW115946   7.715   9.972  11.183
 4724SOL    HW215947   7.851   9.914  11.215
 4725SOL     OW15948  11.117   6.694   3.785
 4725SOL    HW115949  11.055   6.700   3.712
 4725SOL    HW215950  11.064   6.711   3.862
 4726SOL     OW15951   9.620  11.322   4.582
 4726SOL    HW115952   9.660  11.408   4.567
 4726SOL    HW215953   9.623  11.310   4.676
 4727SOL     OW15954   7.595   5.769  11.139
 4727SOL    HW115955   7.533   5.705  11.105
 4727SOL    HW215956   7.657   5.782  11.068
 4728SOL     OW15957   5.651  13.697   2.025
 4728SOL    HW115958   5.733  13.648   2.030
 4728SOL    HW215959   5.643  13.738   2.111
 4729SOL     OW15960   1.870   5.647   8.002
 4729SOL    HW115961   1.806   5.639   8.074
 4729SOL    HW215962   1.955   5.633   8.044
 4730SOL     OW15963   1.303  11.101  13.667
 4730SOL    HW115964   1.337  11.057  13.588
 4730SOL    HW215965   1.278  11.188  13.636
 4731SOL     OW15966  10.141  10.604   1.250
 4731SOL    HW115967  10.210  10.645   1.303
 4731SOL    HW215968  10.101  10.677   1.203
 4732SOL     OW15969   6.423   7.714   4.681
 4732SOL    HW115970   6.338   7.670   4.686
 4732SOL    HW215971   6.462   7.699   4.767
 4733SOL     OW15972   2.065   6.051  13.424
 4733SOL    HW115973   2.085   5.958  13.412
 4733SOL    HW215974   2.012   6.074  13.349
 4734SOL     OW15975  12.020   8.717   3.799
 4734SOL    HW115976  12.026   8.744   3.707
 4734SOL    HW215977  12.111   8.714   3.829
 4735SOL     OW15978  14.306  12.493   4.910
 4735SOL    HW115979  14.253  12.572   4.903
 4735SOL    HW215980  14.245  12.421   4.898
 4736SOL     OW15981   0.978  12.275   6.180
 4736SOL    HW115982   0.982  12.262   6.085
 4736SOL    HW215983   1.060  12.320   6.201
 4737SOL     OW15984   5.872   3.185   1.853
 4737SOL    HW115985   5.873   3.240   1.932
 4737SOL    HW215986   5.875   3.246   1.780
 4738SOL     OW15987  12.318   0.925   2.252
 4738SOL    HW115988  12.270   0.851   2.289
 4738SOL    HW215989  12.389   0.941   2.313
 4739SOL     OW15990   1.216  12.932  12.599
 4739SOL    HW115991   1.121  12.941  12.594
 4739SOL    HW215992   1.248  13.020  12.619
 4740SOL     OW15993   6.817  13.201  10.548
 4740SOL    HW115994   6.902  13.236  10.575
 4740SOL    HW215995   6.799  13.132  10.611
 4741SOL     OW15996  13.747   2.249   5.317
 4741SOL    HW115997  13.809   2.177   5.313
 4741SOL    HW215998  13.667   2.211   5.354
 4742SOL     OW15999   6.196  11.435  13.750
 4742SOL    HW116000   6.150  11.495  13.690
 4742SOL    HW216001   6.223  11.491  13.823
 4743SOL     OW16002   7.390   8.589   6.725
 4743SOL    HW116003   7.401   8.494   6.722
 4743SOL    HW216004   7.452   8.619   6.792
 4744SOL     OW16005   5.286   7.997   8.277
 4744SOL    HW116006   5.200   7.996   8.236
 4744SOL    HW216007   5.318   7.907   8.270
 4745SOL     OW16008   7.091  13.450   7.314
 4745SOL    HW116009   7.079  13.447   7.409
 4745SOL    HW216010   7.185  13.440   7.301
 4746SOL     OW16011  12.528   5.820  12.656
 4746SOL    HW116012  12.543   5.737  12.699
 4746SOL    HW216013  12.449   5.806  12.603
 4747SOL     OW16014   9.610  12.111   4.236
 4747SOL    HW116015   9.597  12.205   4.222
 4747SOL    HW216016   9.705  12.102   4.243
 4748SOL     OW16017   2.543   4.447  10.862
 4748SOL    HW116018   2.595   4.475  10.937
 4748SOL    HW216019   2.584   4.367  10.832
 4749SOL     OW16020   2.268   7.515   4.674
 4749SOL    HW116021   2.221   7.598   4.666
 4749SOL    HW216022   2.214   7.463   4.734
 4750SOL     OW16023   8.597  10.187   3.510
 4750SOL    HW116024   8.579  10.160   3.420
 4750SOL    HW216025   8.693  10.189   3.516
 4751SOL     OW16026   1.149   0.697   7.714
 4751SOL    HW116027   1.085   0.669   7.780
 4751SOL    HW216028   1.226   0.720   7.765
 4752SOL     OW16029  13.720   7.680  12.274
 4752SOL    HW116030  13.672   7.760  12.296
 4752SOL    HW216031  13.740   7.689  12.181
 4753SOL     OW16032   5.543   0.402   7.976
 4753SOL    HW116033   5.616   0.348   7.944
 4753SOL    HW216034   5.559   0.410   8.070
 4754SOL     OW16035   5.553   6.900  13.140
 4754SOL    HW116036   5.593   6.836  13.198
 4754SOL    HW216037   5.617   6.971  13.134
 4755SOL     OW16038   4.787   1.227   4.024
 4755SOL    HW116039   4.697   1.197   4.014
 4755SOL    HW216040   4.792   1.257   4.115
 4756SOL     OW16041  10.728   2.725   0.155
 4756SOL    HW116042  10.647   2.764   0.188
 4756SOL    HW216043  10.734   2.756   0.065
 4757SOL     OW16044   2.545   6.178   3.096
 4757SOL    HW116045   2.564   6.174   3.190
 4757SOL    HW216046   2.474   6.115   3.083
 4758SOL     OW16047   5.638   3.620  12.530
 4758SOL    HW116048   5.571   3.563  12.568
 4758SOL    HW216049   5.718   3.567  12.533
 4759SOL     OW16050   2.285   0.062  11.957
 4759SOL    HW116051   2.381   0.062  11.955
 4759SOL    HW216052   2.263   0.036  12.046
 4760SOL     OW16053   3.266   0.225   6.426
 4760SOL    HW116054   3.246   0.299   6.369
 4760SOL    HW216055   3.187   0.214   6.480
 4761SOL     OW16056  10.904   9.448   1.227
 4761SOL    HW116057  10.964   9.510   1.267
 4761SOL    HW216058  10.933   9.362   1.259
 4762SOL     OW16059  12.283  14.502   0.268
 4762SOL    HW116060  12.232  14.423   0.251
 4762SOL    HW216061  12.251  14.565   0.204
 4763SOL     OW16062   0.790  11.021  12.078
 4763SOL    HW116063   0.793  10.977  11.993
 4763SOL    HW216064   0.796  11.114  12.057
 4764SOL     OW16065  11.929  12.078   1.298
 4764SOL    HW116066  11.996  12.012   1.317
 4764SOL    HW216067  11.912  12.120   1.383
 4765SOL     OW16068  14.621   5.759   3.246
 4765SOL    HW116069  14.553   5.714   3.295
 4765SOL    HW216070  14.598   5.851   3.251
 4766SOL     OW16071  14.287   8.479   9.391
 4766SOL    HW116072  14.379   8.461   9.411
 4766SOL    HW216073  14.274   8.569   9.421
 4767SOL     OW16074   3.591   4.942  13.056
 4767SOL    HW116075   3.556   5.011  13.113
 4767SOL    HW216076   3.517   4.917  13.001
 4768SOL     OW16077   6.453  12.182   0.129
 4768SOL    HW116078   6.493  12.267   0.112
 4768SOL    HW216079   6.377  12.179   0.070
 4769SOL     OW16080   2.548   3.423   0.481
 4769SOL    HW116081   2.597   3.479   0.541
 4769SOL    HW216082   2.613   3.389   0.421
 4770SOL     OW16083   9.626   4.513   3.420
 4770SOL    HW116084   9.704   4.565   3.437
 4770SOL    HW216085   9.591   4.546   3.337
 4771SOL     OW16086   8.294   7.496   5.675
 4771SOL    HW116087   8.316   7.504   5.768
 4771SOL    HW216088   8.366   7.447   5.637
 4772SOL     OW16089   4.921  12.819   0.040
 4772SOL    HW116090   4.974  12.871  14.857
 4772SOL    HW216091   4.853  12.780  14.863
 4773SOL     OW16092  10.948   6.177  13.162
 4773SOL    HW116093  10.948   6.181  13.258
 4773SOL    HW216094  10.891   6.102  13.142
 4774SOL     OW16095   4.728  10.664   4.338
 4774SOL    HW116096   4.710  10.574   4.311
 4774SOL    HW216097   4.648  10.712   4.319
 4775SOL     OW16098   9.907  11.705   7.275
 4775SOL    HW116099   9.927  11.789   7.233
 4775SOL    HW216100   9.851  11.660   7.211
 4776SOL     OW16101   2.992   3.805   1.382
 4776SOL    HW116102   3.034   3.788   1.467
 4776SOL    HW216103   2.899   3.819   1.404
 4777SOL     OW16104   9.244  12.171  11.253
 4777SOL    HW116105   9.260  12.219  11.172
 4777SOL    HW216106   9.149  12.156  11.253
 4778SOL     OW16107   1.784  10.866  10.879
 4778SOL    HW116108   1.815  10.779  10.902
 4778SOL    HW216109   1.755  10.904  10.962
 4779SOL     OW16110  11.100   9.114   8.708
 4779SOL    HW116111  11.179   9.060   8.703
 4779SOL    HW216112  11.068   9.119   8.618
 4780SOL     OW16113   2.563   7.473  11.282
 4780SOL    HW116114   2.647   7.441  11.249
 4780SOL    HW216115   2.581   7.561  11.312
 4781SOL     OW16116   0.969   4.336   9.384
 4781SOL    HW116117   1.056   4.327   9.346
 4781SOL    HW216118   0.981   4.322   9.477
 4782SOL     OW16119   1.082  12.290   8.957
 4782SOL    HW116120   1.159  12.241   8.985
 4782SOL    HW216121   1.017  12.223   8.938
 4783SOL     OW16122   1.598   4.955   2.902
 4783SOL    HW116123   1.636   4.998   2.979
 4783SOL    HW216124   1.555   5.026   2.854
 4784SOL     OW16125   1.360   8.380   6.237
 4784SOL    HW116126   1.298   8.332   6.293
 4784SOL    HW216127   1.332   8.360   6.148
 4785SOL     OW16128   3.936   4.886   0.112
 4785SOL    HW116129   3.971   4.799   0.094
 4785SOL    HW216130   3.866   4.897   0.048
 4786SOL     OW16131  13.985   9.712   1.477
 4786SOL    HW116132  14.039   9.786   1.449
 4786SOL    HW216133  13.896   9.748   1.482
 4787SOL     OW16134   2.916  14.645   3.810
 4787SOL    HW116135   2.850  14.579   3.831
 4787SOL    HW216136   2.937  14.630   3.718
 4788SOL     OW16137   6.744   2.717   2.375
 4788SOL    HW116138   6.757   2.658   2.449
 4788SOL    HW216139   6.657   2.696   2.342
 4789SOL     OW16140   3.506   9.615  11.804
 4789SOL    HW116141   3.565   9.674  11.851
 4789SOL    HW216142   3.562   9.574  11.738
 4790SOL     OW16143   0.456  14.110  12.382
 4790SOL    HW116144   0.392  14.157  12.329
 4790SOL    HW216145   0.436  14.017  12.366
 4791SOL     OW16146   0.262   8.772  11.836
 4791SOL    HW116147   0.181   8.797  11.879
 4791SOL    HW216148   0.330   8.789  11.901
 4792SOL     OW16149   4.828   4.233   9.945
 4792SOL    HW116150   4.769   4.283   9.888
 4792SOL    HW216151   4.911   4.230   9.897
 4793SOL     OW16152  11.971   9.772   9.363
 4793SOL    HW116153  11.921   9.690   9.354
 4793SOL    HW216154  12.063   9.744   9.364
 4794SOL     OW16155   3.426   3.673   5.758
 4794SOL    HW116156   3.415   3.683   5.664
 4794SOL    HW216157   3.500   3.613   5.767
 4795SOL     OW16158   6.823   8.139  10.047
 4795SOL    HW116159   6.850   8.149  10.138
 4795SOL    HW216160   6.771   8.217  10.028
 4796SOL     OW16161   6.748   8.174   8.160
 4796SOL    HW116162   6.778   8.165   8.250
 4796SOL    HW216163   6.768   8.265   8.137
 4797SOL     OW16164   3.026  13.653   7.536
 4797SOL    HW116165   3.113  13.660   7.575
 4797SOL    HW216166   3.029  13.574   7.483
 4798SOL     OW16167  10.890   3.963  12.278
 4798SOL    HW116168  10.938   3.947  12.358
 4798SOL    HW216169  10.887   4.059  12.271
 4799SOL     OW16170  10.305  14.822   7.275
 4799SOL    HW116171  10.339   0.010   7.335
 4799SOL    HW216172  10.266  14.755   7.331
 4800SOL     OW16173  12.829   2.640  10.501
 4800SOL    HW116174  12.833   2.555  10.457
 4800SOL    HW216175  12.907   2.687  10.469
 4801SOL     OW16176   3.534  10.011   7.641
 4801SOL    HW116177   3.466   9.994   7.577
 4801SOL    HW216178   3.491  10.062   7.709
 4802SOL     OW16179   1.002  10.411  12.112
 4802SOL    HW116180   0.966  10.449  12.192
 4802SOL    HW216181   1.018  10.485  12.054
 4803SOL     OW16182   8.207   4.523   0.415
 4803SOL    HW116183   8.294   4.485   0.415
 4803SOL    HW216184   8.178   4.516   0.506
 4804SOL     OW16185   6.329  12.429   5.826
 4804SOL    HW116186   6.422  12.405   5.821
 4804SOL    HW216187   6.316  12.489   5.753
 4805SOL     OW16188  10.089  10.698  11.043
 4805SOL    HW116189  10.143  10.639  11.095
 4805SOL    HW216190  10.059  10.644  10.969
 4806SOL     OW16191  10.047   3.604   4.899
 4806SOL    HW116192  10.067   3.542   4.829
 4806SOL    HW216193  10.056   3.690   4.858
 4807SOL     OW16194   3.160   1.379   8.906
 4807SOL    HW116195   3.136   1.345   8.820
 4807SOL    HW216196   3.163   1.474   8.894
 4808SOL     OW16197   9.617  11.626  13.000
 4808SOL    HW116198   9.695  11.608  13.052
 4808SOL    HW216199   9.550  11.567  13.035
 4809SOL     OW16200  12.028   6.371  12.845
 4809SOL    HW116201  11.992   6.291  12.807
 4809SOL    HW216202  11.954   6.412  12.891
 4810SOL     OW16203   6.960   4.240   0.209
 4810SOL    HW116204   6.945   4.245   0.114
 4810SOL    HW216205   6.895   4.178   0.241
 4811SOL     OW16206   7.264   0.394   1.669
 4811SOL    HW116207   7.229   0.475   1.631
 4811SOL    HW216208   7.354   0.388   1.637
 4812SOL     OW16209   1.076   7.346   6.763
 4812SOL    HW116210   1.116   7.390   6.688
 4812SOL    HW216211   1.084   7.253   6.744
 4813SOL     OW16212   4.492   8.483   6.096
 4813SOL    HW116213   4.566   8.488   6.036
 4813SOL    HW216214   4.415   8.481   6.040
 4814SOL     OW16215   1.249   2.435   5.098
 4814SOL    HW116216   1.341   2.422   5.075
 4814SOL    HW216217   1.237   2.530   5.098
 4815SOL     OW16218   4.683   4.448  13.149
 4815SOL    HW116219   4.743   4.522  13.149
 4815SOL    HW216220   4.700   4.402  13.068
 4816SOL     OW16221  14.243  12.788   2.766
 4816SOL    HW116222  14.325  12.739   2.759
 4816SOL    HW216223  14.251  12.836   2.848
 4817SOL     OW16224  12.676  11.202   4.241
 4817SOL    HW116225  12.726  11.133   4.283
 4817SOL    HW216226  12.666  11.174   4.150
 4818SOL     OW16227   2.258  14.685  10.457
 4818SOL    HW116228   2.197  14.654  10.391
 4818SOL    HW216229   2.204  14.733  10.520
 4819SOL     OW16230   9.965   7.712  12.917
 4819SOL    HW116231   9.945   7.630  12.962
 4819SOL    HW216232   9.909   7.711  12.839
 4820SOL     OW16233   8.424   4.413  11.504
 4820SOL    HW116234   8.362   4.345  11.530
 4820SOL    HW216235   8.372   4.473  11.450
 4821SOL     OW16236   9.564   3.677  13.218
 4821SOL    HW116237   9.651   3.668  13.177
 4821SOL    HW216238   9.512   3.606  13.179
 4822SOL     OW16239  10.261   0.595  14.175
 4822SOL    HW116240  10.210   0.569  14.098
 4822SOL    HW216241  10.195   0.620  14.240
 4823SOL     OW16242   6.902   4.331   7.915
 4823SOL    HW116243   6.962   4.277   7.967
 4823SOL    HW216244   6.926   4.313   7.824
 4824SOL     OW16245   8.002  12.601   0.609
 4824SOL    HW116246   7.999  12.696   0.613
 4824SOL    HW216247   8.095  12.580   0.600
 4825SOL     OW16248  14.062   5.155   5.921
 4825SOL    HW116249  14.146   5.199   5.911
 4825SOL    HW216250  14.073   5.101   5.999
 4826SOL     OW16251   8.572  10.809  12.213
 4826SOL    HW116252   8.599  10.782  12.126
 4826SOL    HW216253   8.653  10.833  12.258
 4827SOL     OW16254  10.968  14.727   9.750
 4827SOL    HW116255  10.962  14.662   9.680
 4827SOL    HW216256  10.877  14.748   9.772
 4828SOL     OW16257   3.312  10.222   1.113
 4828SOL    HW116258   3.404  10.198   1.126
 4828SOL    HW216259   3.263  10.152   1.156
 4829SOL     OW16260   7.136  12.484  14.017
 4829SOL    HW116261   7.186  12.566  14.015
 4829SOL    HW216262   7.136  12.454  13.926
 4830SOL     OW16263  13.688   8.403  12.415
 4830SOL    HW116264  13.713   8.479  12.467
 4830SOL    HW216265  13.602   8.425  12.378
 4831SOL     OW16266  11.561  13.099  10.611
 4831SOL    HW116267  11.485  13.045  10.631
 4831SOL    HW216268  11.619  13.088  10.686
 4832SOL     OW16269   9.868  10.595   2.435
 4832SOL    HW116270   9.823  10.560   2.511
 4832SOL    HW216271   9.832  10.683   2.423
 4833SOL     OW16272  12.220   5.664   8.854
 4833SOL    HW116273  12.250   5.637   8.941
 4833SOL    HW216274  12.292   5.718   8.821
 4834SOL     OW16275   8.944  14.798   5.413
 4834SOL    HW116276   8.890  14.825   5.339
 4834SOL    HW216277   9.033  14.796   5.379
 4835SOL     OW16278  14.247   6.803   3.261
 4835SOL    HW116279  14.235   6.821   3.354
 4835SOL    HW216280  14.195   6.724   3.245
 4836SOL     OW16281   4.018  12.068   1.124
 4836SOL    HW116282   4.015  11.983   1.167
 4836SOL    HW216283   3.977  12.128   1.187
 4837SOL     OW16284  13.234  11.653  10.319
 4837SOL    HW116285  13.190  11.703  10.250
 4837SOL    HW216286  13.311  11.616  10.277
 4838SOL     OW16287   8.174   1.069   0.472
 4838SOL    HW116288   8.126   0.987   0.482
 4838SOL    HW216289   8.243   1.048   0.409
 4839SOL     OW16290   5.835  14.530   2.687
 4839SOL    HW116291   5.842  14.487   2.772
 4839SOL    HW216292   5.924  14.561   2.668
 4840SOL     OW16293  12.421  14.599  14.133
 4840SOL    HW116294  12.491  14.534  14.134
 4840SOL    HW216295  12.397  14.609  14.225
 4841SOL     OW16296   8.034  10.599  12.970
 4841SOL    HW116297   7.975  10.569  13.040
 4841SOL    HW216298   8.112  10.544  12.979
 4842SOL     OW16299   5.881   5.655   2.822
 4842SOL    HW116300   5.794   5.616   2.827
 4842SOL    HW216301   5.938   5.590   2.863
 4843SOL     OW16302  10.638  10.758   9.537
 4843SOL    HW116303  10.569  10.764   9.603
 4843SOL    HW216304  10.717  10.735   9.586
 4844SOL     OW16305   5.903  11.369  13.187
 4844SOL    HW116306   5.911  11.455  13.229
 4844SOL    HW216307   5.882  11.389  13.096
 4845SOL     OW16308  12.810   6.301  12.467
 4845SOL    HW116309  12.752   6.230  12.496
 4845SOL    HW216310  12.761   6.381  12.487
 4846SOL     OW16311  11.860   1.926   7.799
 4846SOL    HW116312  11.804   1.856   7.764
 4846SOL    HW216313  11.926   1.940   7.732
 4847SOL     OW16314   6.624   1.748   6.814
 4847SOL    HW116315   6.623   1.728   6.908
 4847SOL    HW216316   6.532   1.739   6.787
 4848SOL     OW16317  12.470   4.625  14.522
 4848SOL    HW116318  12.476   4.585  14.609
 4848SOL    HW216319  12.478   4.551  14.461
 4849SOL     OW16320   1.709   6.899   7.220
 4849SOL    HW116321   1.618   6.927   7.229
 4849SOL    HW216322   1.740   6.892   7.311
 4850SOL     OW16323   0.085   7.469  12.133
 4850SOL    HW116324   0.012   7.463  12.070
 4850SOL    HW216325   0.048   7.515  12.208
 4851SOL     OW16326  14.441   1.468  13.510
 4851SOL    HW116327  14.388   1.548  13.508
 4851SOL    HW216328  14.523   1.496  13.551
 4852SOL     OW16329   7.770   8.687  11.733
 4852SOL    HW116330   7.731   8.602  11.714
 4852SOL    HW216331   7.712   8.750  11.690
 4853SOL     OW16332   6.632  10.263   8.576
 4853SOL    HW116333   6.704  10.209   8.608
 4853SOL    HW216334   6.675  10.335   8.530
 4854SOL     OW16335   7.272   8.251  11.904
 4854SOL    HW116336   7.312   8.306  11.837
 4854SOL    HW216337   7.345   8.224  11.959
 4855SOL     OW16338   4.232   5.239   8.468
 4855SOL    HW116339   4.258   5.291   8.392
 4855SOL    HW216340   4.209   5.303   8.535
 4856SOL     OW16341   2.173   3.779  12.764
 4856SOL    HW116342   2.213   3.829  12.693
 4856SOL    HW216343   2.114   3.841  12.806
 4857SOL     OW16344  13.591   5.488  13.398
 4857SOL    HW116345  13.641   5.476  13.317
 4857SOL    HW216346  13.622   5.418  13.456
 4858SOL     OW16347   4.658   5.461   2.036
 4858SOL    HW116348   4.644   5.453   1.942
 4858SOL    HW216349   4.623   5.547   2.058
 4859SOL     OW16350   2.189   9.179   7.400
 4859SOL    HW116351   2.186   9.238   7.325
 4859SOL    HW216352   2.238   9.228   7.466
 4860SOL     OW16353  10.776  13.013   2.208
 4860SOL    HW116354  10.761  12.923   2.237
 4860SOL    HW216355  10.871  13.023   2.210
 4861SOL     OW16356  12.266   4.363  14.229
 4861SOL    HW116357  12.336   4.383  14.291
 4861SOL    HW216358  12.186   4.382  14.277
 4862SOL     OW16359   3.459   2.210  12.968
 4862SOL    HW116360   3.493   2.297  12.945
 4862SOL    HW216361   3.512   2.150  12.917
 4863SOL     OW16362   9.019   3.049   1.162
 4863SOL    HW116363   9.061   3.039   1.077
 4863SOL    HW216364   8.967   2.969   1.172
 4864SOL     OW16365  14.244   9.421  14.828
 4864SOL    HW116366  14.161   9.396  14.868
 4864SOL    HW216367  14.237   9.391  14.737
 4865SOL     OW16368  13.148   7.674  13.329
 4865SOL    HW116369  13.185   7.586  13.338
 4865SOL    HW216370  13.085   7.680  13.401
 4866SOL     OW16371   0.192   2.476   5.007
 4866SOL    HW116372   0.183   2.380   5.007
 4866SOL    HW216373   0.241   2.495   4.927
 4867SOL     OW16374   9.201   3.072   7.654
 4867SOL    HW116375   9.237   3.161   7.657
 4867SOL    HW216376   9.266   3.019   7.700
 4868SOL     OW16377   3.529   3.765  13.543
 4868SOL    HW116378   3.498   3.766  13.634
 4868SOL    HW216379   3.534   3.673  13.520
 4869SOL     OW16380   7.232   7.584   5.806
 4869SOL    HW116381   7.298   7.518   5.825
 4869SOL    HW216382   7.264   7.663   5.850
 4870SOL     OW16383  11.992   4.536  12.313
 4870SOL    HW116384  11.971   4.629  12.321
 4870SOL    HW216385  11.942   4.506  12.237
 4871SOL     OW16386  10.228   9.189  14.031
 4871SOL    HW116387  10.249   9.218  14.119
 4871SOL    HW216388  10.134   9.205  14.022
 4872SOL     OW16389   0.753   3.809   0.570
 4872SOL    HW116390   0.729   3.730   0.522
 4872SOL    HW216391   0.722   3.882   0.515
 4873SOL     OW16392  14.395   6.012   6.097
 4873SOL    HW116393  14.326   5.997   6.162
 4873SOL    HW216394  14.350   6.056   6.025
 4874SOL     OW16395   6.588  13.214  12.601
 4874SOL    HW116396   6.670  13.204  12.650
 4874SOL    HW216397   6.616  13.223  12.510
 4875SOL     OW16398  14.297  13.330   0.516
 4875SOL    HW116399  14.268  13.239   0.514
 4875SOL    HW216400  14.325  13.345   0.606
 4876SOL     OW16401   7.257   7.860   2.506
 4876SOL    HW116402   7.275   7.903   2.590
 4876SOL    HW216403   7.219   7.776   2.530
 4877SOL     OW16404   3.443   6.214  10.646
 4877SOL    HW116405   3.529   6.230  10.606
 4877SOL    HW216406   3.458   6.143  10.708
 4878SOL     OW16407   4.009  10.226   6.848
 4878SOL    HW116408   4.100  10.199   6.836
 4878SOL    HW216409   4.014  10.315   6.883
 4879SOL     OW16410  12.002  11.963  14.591
 4879SOL    HW116411  11.988  12.017  14.512
 4879SOL    HW216412  11.968  11.877  14.567
 4880SOL     OW16413   2.244   3.096   4.069
 4880SOL    HW116414   2.272   3.090   4.161
 4880SOL    HW216415   2.148   3.095   4.073
 4881SOL     OW16416   6.981   8.822   8.597
 4881SOL    HW116417   6.981   8.893   8.662
 4881SOL    HW216418   7.071   8.790   8.597
 4882SOL     OW16419   7.806  12.241   8.454
 4882SOL    HW116420   7.798  12.307   8.385
 4882SOL    HW216421   7.876  12.273   8.511
 4883SOL     OW16422   1.433  13.892  14.237
 4883SOL    HW116423   1.518  13.913  14.275
 4883SOL    HW216424   1.412  13.805  14.271
 4884SOL     OW16425  12.158   1.493   2.719
 4884SOL    HW116426  12.089   1.543   2.765
 4884SOL    HW216427  12.190   1.554   2.653
 4885SOL     OW16428   6.079   4.765   8.971
 4885SOL    HW116429   6.143   4.725   8.912
 4885SOL    HW216430   6.127   4.834   9.016
 4886SOL     OW16431   6.384   6.275   1.275
 4886SOL    HW116432   6.345   6.355   1.241
 4886SOL    HW216433   6.329   6.251   1.350
 4887SOL     OW16434   8.039   6.654  12.571
 4887SOL    HW116435   7.946   6.648  12.593
 4887SOL    HW216436   8.051   6.745  12.542
 4888SOL     OW16437  14.807   8.793   9.176
 4888SOL    HW116438  14.753   8.779   9.254
 4888SOL    HW216439  14.746   8.827   9.111
 4889SOL     OW16440   3.629  13.276   6.603
 4889SOL    HW116441   3.588  13.249   6.520
 4889SOL    HW216442   3.677  13.199   6.632
 4890SOL     OW16443   7.247   5.986   3.126
 4890SOL    HW116444   7.246   5.908   3.182
 4890SOL    HW216445   7.339   6.008   3.118
 4891SOL     OW16446   1.864   3.375   1.845
 4891SOL    HW116447   1.934   3.428   1.884
 4891SOL    HW216448   1.790   3.435   1.840
 4892SOL     OW16449  14.738  14.344   3.495
 4892SOL    HW116450  14.765  14.356   3.586
 4892SOL    HW216451  14.643  14.355   3.497
 4893SOL     OW16452   9.860   4.674   7.910
 4893SOL    HW116453   9.944   4.710   7.937
 4893SOL    HW216454   9.800   4.748   7.913
 4894SOL     OW16455  11.944   1.547  12.135
 4894SOL    HW116456  11.937   1.456  12.163
 4894SOL    HW216457  11.888   1.596  12.196
 4895SOL     OW16458  10.503   8.980  14.355
 4895SOL    HW116459  10.529   8.989  14.447
 4895SOL    HW216460  10.581   8.944  14.312
 4896SOL     OW16461   3.470   6.115  12.715
 4896SOL    HW116462   3.542   6.058  12.739
 4896SOL    HW216463   3.479   6.192  12.771
 4897SOL     OW16464  11.770  13.902   5.083
 4897SOL    HW116465  11.684  13.941   5.101
 4897SOL    HW216466  11.829  13.976   5.071
 4898SOL     OW16467   9.207   5.313  13.161
 4898SOL    HW116468   9.200   5.306  13.066
 4898SOL    HW216469   9.179   5.403  13.180
 4899SOL     OW16470   6.204  11.682   5.928
 4899SOL    HW116471   6.296  11.687   5.954
 4899SOL    HW216472   6.188  11.762   5.878
 4900SOL     OW16473   5.603  11.230  11.200
 4900SOL    HW116474   5.616  11.196  11.289
 4900SOL    HW216475   5.586  11.153  11.146
 4901SOL     OW16476   5.506  10.869   3.238
 4901SOL    HW116477   5.586  10.847   3.286
 4901SOL    HW216478   5.511  10.817   3.158
 4902SOL     OW16479   6.767   8.169  10.567
 4902SOL    HW116480   6.743   8.113  10.641
 4902SOL    HW216481   6.862   8.178  10.573
 4903SOL     OW16482   5.045  12.702  11.648
 4903SOL    HW116483   4.998  12.743  11.721
 4903SOL    HW216484   4.981  12.700  11.577
 4904SOL     OW16485  10.607   9.515   9.895
 4904SOL    HW116486  10.612   9.481   9.984
 4904SOL    HW216487  10.689   9.488   9.854
 4905SOL     OW16488   6.424   1.775   8.246
 4905SOL    HW116489   6.487   1.807   8.309
 4905SOL    HW216490   6.360   1.727   8.298
 4906SOL     OW16491   6.063   6.470  12.819
 4906SOL    HW116492   6.060   6.376  12.807
 4906SOL    HW216493   5.997   6.489  12.885
 4907SOL     OW16494   6.474   6.801  14.822
 4907SOL    HW116495   6.431   6.767  14.744
 4907SOL    HW216496   6.454   6.894  14.822
 4908SOL     OW16497   7.591  11.338   0.916
 4908SOL    HW116498   7.516  11.351   0.858
 4908SOL    HW216499   7.554  11.296   0.994
 4909SOL     OW16500   6.178   0.104  13.010
 4909SOL    HW116501   6.249   0.128  12.951
 4909SOL    HW216502   6.112   0.172  12.998
 4910SOL     OW16503   0.489   4.549  12.132
 4910SOL    HW116504   0.500   4.592  12.047
 4910SOL    HW216505   0.528   4.462  12.120
 4911SOL     OW16506  11.760   7.084   3.608
 4911SOL    HW116507  11.677   7.120   3.579
 4911SOL    HW216508  11.756   6.991   3.583
 4912SOL     OW16509  11.706  11.686  13.387
 4912SOL    HW116510  11.707  11.655  13.478
 4912SOL    HW216511  11.664  11.616  13.338
 4913SOL     OW16512  10.737   5.357  14.642
 4913SOL    HW116513  10.746   5.265  14.615
 4913SOL    HW216514  10.761   5.357  14.735
 4914SOL     OW16515   8.050   5.764   4.515
 4914SOL    HW116516   8.085   5.755   4.604
 4914SOL    HW216517   7.977   5.702   4.512
 4915SOL     OW16518   0.119   9.034   5.384
 4915SOL    HW116519   0.158   9.121   5.375
 4915SOL    HW216520   0.169   8.992   5.454
 4916SOL     OW16521  11.793  13.998   9.907
 4916SOL    HW116522  11.766  14.016   9.997
 4916SOL    HW216523  11.855  13.926   9.915
 4917SOL     OW16524   7.954   7.736  11.248
 4917SOL    HW116525   8.013   7.662  11.262
 4917SOL    HW216526   7.919   7.756  11.334
 4918SOL     OW16527   1.970   3.787   8.210
 4918SOL    HW116528   2.026   3.754   8.140
 4918SOL    HW216529   1.945   3.875   8.181
 4919SOL     OW16530   2.655  10.471   2.252
 4919SOL    HW116531   2.615  10.384   2.252
 4919SOL    HW216532   2.748  10.454   2.264
 4920SOL     OW16533   0.851   5.845   9.118
 4920SOL    HW116534   0.762   5.876   9.100
 4920SOL    HW216535   0.886   5.910   9.179
 4921SOL     OW16536   4.093   5.821   6.036
 4921SOL    HW116537   4.060   5.886   5.974
 4921SOL    HW216538   4.154   5.769   5.984
 4922SOL     OW16539   4.267  12.792   6.501
 4922SOL    HW116540   4.351  12.812   6.461
 4922SOL    HW216541   4.282  12.713   6.552
 4923SOL     OW16542   5.213   1.811   0.165
 4923SOL    HW116543   5.285   1.873   0.173
 4923SOL    HW216544   5.253   1.734   0.124
 4924SOL     OW16545  13.786  13.130  13.872
 4924SOL    HW116546  13.732  13.073  13.817
 4924SOL    HW216547  13.862  13.076  13.895
 4925SOL     OW16548  10.107   1.398  12.657
 4925SOL    HW116549  10.123   1.351  12.739
 4925SOL    HW216550  10.069   1.333  12.598
 4926SOL     OW16551  13.710   6.814   1.351
 4926SOL    HW116552  13.765   6.825   1.429
 4926SOL    HW216553  13.758   6.753   1.295
 4927SOL     OW16554  10.943   1.861   6.137
 4927SOL    HW116555  10.957   1.796   6.067
 4927SOL    HW216556  10.859   1.901   6.116
 4928SOL     OW16557  12.416  10.834   8.718
 4928SOL    HW116558  12.438  10.927   8.719
 4928SOL    HW216559  12.501  10.789   8.713
 4929SOL     OW16560   1.426   2.170  12.810
 4929SOL    HW116561   1.365   2.240  12.788
 4929SOL    HW216562   1.397   2.095  12.758
 4930SOL     OW16563   9.722   0.345   5.667
 4930SOL    HW116564   9.682   0.357   5.581
 4930SOL    HW216565   9.810   0.313   5.649
 4931SOL     OW16566   9.632   8.000  10.801
 4931SOL    HW116567   9.537   8.006  10.793
 4931SOL    HW216568   9.658   7.935  10.736
 4932SOL     OW16569   8.444   8.780  11.376
 4932SOL    HW116570   8.455   8.740  11.462
 4932SOL    HW216571   8.401   8.712  11.324
 4933SOL     OW16572   7.648   5.276  11.261
 4933SOL    HW116573   7.631   5.334  11.335
 4933SOL    HW216574   7.731   5.233  11.282
 4934SOL     OW16575   2.832  14.065  12.220
 4934SOL    HW116576   2.768  14.091  12.155
 4934SOL    HW216577   2.867  14.147  12.254
 4935SOL     OW16578   1.112  11.629  12.322
 4935SOL    HW116579   1.038  11.687  12.343
 4935SOL    HW216580   1.189  11.683  12.334
 4936SOL     OW16581   1.093   3.045   4.620
 4936SOL    HW116582   1.028   3.030   4.689
 4936SOL    HW216583   1.140   2.961   4.613
 4937SOL     OW16584  13.250   8.405   0.613
 4937SOL    HW116585  13.217   8.491   0.637
 4937SOL    HW216586  13.172   8.354   0.591
 4938SOL     OW16587   0.443  14.453   4.301
 4938SOL    HW116588   0.352  14.424   4.310
 4938SOL    HW216589   0.451  14.479   4.209
 4939SOL     OW16590   9.213   9.993  10.090
 4939SOL    HW116591   9.308   9.997  10.094
 4939SOL    HW216592   9.187   9.958  10.175
 4940SOL     OW16593   7.913   0.683  12.619
 4940SOL    HW116594   7.889   0.771  12.589
 4940SOL    HW216595   8.004   0.672  12.591
 4941SOL     OW16596   2.227   0.014   9.612
 4941SOL    HW116597   2.290   0.084   9.624
 4941SOL    HW216598   2.265  14.817   9.657
 4942SOL     OW16599  14.575   9.502   1.285
 4942SOL    HW116600  14.531   9.451   1.353
 4942SOL    HW216601  14.644   9.550   1.332
 4943SOL     OW16602  10.824   3.559  12.967
 4943SOL    HW116603  10.888   3.541  12.898
 4943SOL    HW216604  10.753   3.605  12.922
 4944SOL     OW16605   6.411   2.978   9.544
 4944SOL    HW116606   6.367   2.968   9.460
 4944SOL    HW216607   6.457   2.895   9.558
 4945SOL     OW16608   1.392   5.723   6.265
 4945SOL    HW116609   1.390   5.811   6.302
 4945SOL    HW216610   1.310   5.716   6.215
 4946SOL     OW16611   9.337  10.965   8.980
 4946SOL    HW116612   9.369  10.923   8.900
 4946SOL    HW216613   9.244  10.943   8.982
 4947SOL     OW16614  12.208   1.113   9.579
 4947SOL    HW116615  12.177   1.201   9.559
 4947SOL    HW216616  12.268   1.125   9.652
 4948SOL     OW16617   0.218   6.770   2.312
 4948SOL    HW116618   0.282   6.717   2.265
 4948SOL    HW216619   0.150   6.707   2.338
 4949SOL     OW16620   1.800   3.617   5.658
 4949SOL    HW116621   1.771   3.526   5.668
 4949SOL    HW216622   1.873   3.612   5.597
 4950SOL     OW16623  11.302   4.931   3.141
 4950SOL    HW116624  11.376   4.990   3.128
 4950SOL    HW216625  11.273   4.947   3.231
 4951SOL     OW16626   2.096  14.828  11.803
 4951SOL    HW116627   2.139  14.866  11.880
 4951SOL    HW216628   2.166  14.818  11.739
 4952SOL     OW16629   2.864   9.360   8.437
 4952SOL    HW116630   2.950   9.322   8.416
 4952SOL    HW216631   2.883   9.425   8.504
 4953SOL     OW16632   6.461   3.599   4.216
 4953SOL    HW116633   6.552   3.599   4.246
 4953SOL    HW216634   6.467   3.570   4.124
 4954SOL     OW16635   2.369  14.839  13.760
 4954SOL    HW116636   2.457  14.871  13.780
 4954SOL    HW216637   2.319  14.851  13.842
 4955SOL     OW16638   8.560  14.826  11.472
 4955SOL    HW116639   8.560  14.840  11.377
 4955SOL    HW216640   8.648  14.851  11.500
 4956SOL     OW16641  13.737  10.986   1.858
 4956SOL    HW116642  13.759  10.929   1.932
 4956SOL    HW216643  13.646  10.964   1.837
 4957SOL     OW16644   0.970   5.857   3.214
 4957SOL    HW116645   0.978   5.777   3.161
 4957SOL    HW216646   1.055   5.865   3.258
 4958SOL     OW16647  12.164   2.468   4.224
 4958SOL    HW116648  12.105   2.540   4.203
 4958SOL    HW216649  12.235   2.476   4.159
 4959SOL     OW16650  13.935  14.423   1.506
 4959SOL    HW116651  13.904  14.373   1.431
 4959SOL    HW216652  13.947  14.512   1.473
 4960SOL     OW16653   1.091  14.226   0.433
 4960SOL    HW116654   1.027  14.160   0.460
 4960SOL    HW216655   1.105  14.279   0.511
 4961SOL     OW16656   7.087  13.896   0.823
 4961SOL    HW116657   7.113  13.901   0.731
 4961SOL    HW216658   6.992  13.895   0.822
 4962SOL     OW16659   0.029   1.684   5.978
 4962SOL    HW116660   0.097   1.751   5.982
 4962SOL    HW216661   0.020   1.654   6.069
 4963SOL     OW16662   4.407   3.627   1.120
 4963SOL    HW116663   4.358   3.688   1.175
 4963SOL    HW216664   4.342   3.562   1.092
 4964SOL     OW16665   9.438  11.197  13.307
 4964SOL    HW116666   9.392  11.265  13.257
 4964SOL    HW216667   9.496  11.246  13.365
 4965SOL     OW16668   2.182   0.240  10.072
 4965SOL    HW116669   2.202   0.202  10.157
 4965SOL    HW216670   2.262   0.227  10.020
 4966SOL     OW16671  12.356  13.031   9.054
 4966SOL    HW116672  12.314  13.023   9.139
 4966SOL    HW216673  12.338  12.948   9.011
 4967SOL     OW16674  13.751   4.606   1.636
 4967SOL    HW116675  13.706   4.521   1.640
 4967SOL    HW216676  13.844   4.584   1.643
 4968SOL     OW16677   1.988  10.071  13.267
 4968SOL    HW116678   1.920  10.131  13.238
 4968SOL    HW216679   2.060  10.086  13.206
 4969SOL     OW16680   9.655   4.601   3.834
 4969SOL    HW116681   9.572   4.588   3.878
 4969SOL    HW216682   9.632   4.640   3.750
 4970SOL     OW16683   5.374   2.845   7.488
 4970SOL    HW116684   5.423   2.764   7.501
 4970SOL    HW216685   5.319   2.829   7.411
 4971SOL     OW16686  12.708   6.613  14.475
 4971SOL    HW116687  12.746   6.533  14.440
 4971SOL    HW216688  12.761   6.633  14.552
 4972SOL     OW16689   2.369   1.347  11.118
 4972SOL    HW116690   2.355   1.441  11.104
 4972SOL    HW216691   2.463   1.339  11.134
 4973SOL     OW16692   9.994   4.809   2.930
 4973SOL    HW116693   9.913   4.802   2.980
 4973SOL    HW216694  10.035   4.890   2.962
 4974SOL     OW16695  11.550   8.659   1.480
 4974SOL    HW116696  11.637   8.656   1.520
 4974SOL    HW216697  11.491   8.628   1.549
 4975SOL     OW16698   5.562   3.372  12.923
 4975SOL    HW116699   5.497   3.328  12.870
 4975SOL    HW216700   5.638   3.381  12.866
 4976SOL     OW16701  12.642  10.688   0.646
 4976SOL    HW116702  12.650  10.778   0.613
 4976SOL    HW216703  12.679  10.691   0.734
 4977SOL     OW16704   2.602   3.096   1.669
 4977SOL    HW116705   2.663   3.108   1.743
 4977SOL    HW216706   2.516   3.113   1.707
 4978SOL     OW16707   5.410   6.484  12.170
 4978SOL    HW116708   5.359   6.485  12.251
 4978SOL    HW216709   5.399   6.395  12.136
 4979SOL     OW16710   2.591   5.177   9.163
 4979SOL    HW116711   2.569   5.106   9.104
 4979SOL    HW216712   2.594   5.137   9.250
 4980SOL     OW16713   7.480  12.690   2.045
 4980SOL    HW116714   7.393  12.650   2.047
 4980SOL    HW216715   7.522  12.652   1.968
 4981SOL     OW16716  10.004   5.499   3.327
 4981SOL    HW116717  10.045   5.586   3.329
 4981SOL    HW216718   9.913   5.517   3.303
 4982SOL     OW16719   1.098   6.124   5.912
 4982SOL    HW116720   1.010   6.138   5.878
 4982SOL    HW216721   1.100   6.172   5.995
 4983SOL     OW16722  11.450   6.044   4.800
 4983SOL    HW116723  11.429   6.093   4.720
 4983SOL    HW216724  11.477   5.958   4.769
 4984SOL     OW16725  10.192  12.557   1.333
 4984SOL    HW116726  10.163  12.503   1.406
 4984SOL    HW216727  10.111  12.589   1.292
 4985SOL     OW16728  12.178   0.141   4.672
 4985SOL    HW116729  12.190   0.231   4.640
 4985SOL    HW216730  12.141   0.094   4.597
 4986SOL     OW16731   1.247   8.408   2.715
 4986SOL    HW116732   1.181   8.350   2.755
 4986SOL    HW216733   1.204   8.493   2.709
 4987SOL     OW16734  13.643  13.801   7.841
 4987SOL    HW116735  13.604  13.813   7.754
 4987SOL    HW216736  13.697  13.722   7.832
 4988SOL     OW16737   0.718  13.578  14.652
 4988SOL    HW116738   0.710  13.633  14.574
 4988SOL    HW216739   0.798  13.609  14.695
 4989SOL     OW16740   9.768   0.343  11.512
 4989SOL    HW116741   9.776   0.289  11.590
 4989SOL    HW216742   9.712   0.293  11.453
 4990SOL     OW16743  13.098  13.669  10.888
 4990SOL    HW116744  13.009  13.703  10.875
 4990SOL    HW216745  13.155  13.742  10.862
 4991SOL     OW16746   5.684  13.739   8.603
 4991SOL    HW116747   5.732  13.714   8.682
 4991SOL    HW216748   5.631  13.662   8.582
 4992SOL     OW16749   5.401   6.173  14.546
 4992SOL    HW116750   5.339   6.221  14.601
 4992SOL    HW216751   5.386   6.206  14.458
 4993SOL     OW16752   3.070  10.622   9.509
 4993SOL    HW116753   3.154  10.642   9.468
 4993SOL    HW216754   3.007  10.625   9.436
 4994SOL     OW16755  12.211  10.341   8.791
 4994SOL    HW116756  12.197  10.429   8.757
 4994SOL    HW216757  12.240  10.290   8.715
 4995SOL     OW16758   9.407   6.681  12.563
 4995SOL    HW116759   9.367   6.646  12.643
 4995SOL    HW216760   9.337   6.729  12.520
 4996SOL     OW16761   5.139   3.267  12.129
 4996SOL    HW116762   5.091   3.345  12.159
 4996SOL    HW216763   5.117   3.260  12.036
 4997SOL     OW16764   9.297   7.711   2.966
 4997SOL    HW116765   9.378   7.662   2.979
 4997SOL    HW216766   9.324   7.802   2.958
 4998SOL     OW16767  11.091  12.620  12.247
 4998SOL    HW116768  11.025  12.661  12.191
 4998SOL    HW216769  11.040  12.575  12.315
 4999SOL     OW16770   5.066  13.778  14.786
 4999SOL    HW116771   5.064  13.847  14.852
 4999SOL    HW216772   5.158  13.751  14.783
 5000SOL     OW16773   2.569   6.105  12.949
 5000SOL    HW116774   2.493   6.162  12.939
 5000SOL    HW216775   2.570   6.084  13.043
 5001SOL     OW16776   1.609   8.539   9.484
 5001SOL    HW116777   1.598   8.615   9.428
 5001SOL    HW216778   1.648   8.472   9.427
 5002SOL     OW16779   4.597   9.996   8.244
 5002SOL    HW116780   4.683   9.976   8.207
 5002SOL    HW216781   4.612  10.001   8.339
 5003SOL     OW16782  11.361   6.484   9.670
 5003SOL    HW116783  11.276   6.473   9.627
 5003SOL    HW216784  11.385   6.575   9.654
 5004SOL     OW16785   2.947   5.707   8.590
 5004SOL    HW116786   2.972   5.731   8.501
 5004SOL    HW216787   2.945   5.790   8.638
 5005SOL     OW16788   2.256  14.073   8.566
 5005SOL    HW116789   2.316  14.139   8.530
 5005SOL    HW216790   2.240  14.100   8.656
 5006SOL     OW16791  12.935   9.409   2.444
 5006SOL    HW116792  12.873   9.477   2.419
 5006SOL    HW216793  12.890   9.358   2.511
 5007SOL     OW16794   5.141   0.361   9.809
 5007SOL    HW116795   5.230   0.338   9.835
 5007SOL    HW216796   5.153   0.419   9.733
 5008SOL     OW16797   6.754  10.235  14.698
 5008SOL    HW116798   6.687  10.275  14.642
 5008SOL    HW216799   6.821  10.204  14.637
 5009SOL     OW16800   9.932  14.506   7.790
 5009SOL    HW116801   9.885  14.442   7.736
 5009SOL    HW216802  10.024  14.483   7.780
 5010SOL     OW16803  13.097   9.300   1.555
 5010SOL    HW116804  13.016   9.251   1.547
 5010SOL    HW216805  13.074   9.375   1.610
 5011SOL     OW16806  13.997   1.844  11.030
 5011SOL    HW116807  14.046   1.763  11.046
 5011SOL    HW216808  14.064   1.909  11.009
 5012SOL     OW16809   6.289   8.914   1.934
 5012SOL    HW116810   6.225   8.985   1.943
 5012SOL    HW216811   6.341   8.918   2.014
 5013SOL     OW16812   5.783   5.733   2.423
 5013SOL    HW116813   5.707   5.736   2.365
 5013SOL    HW216814   5.808   5.641   2.426
 5014SOL     OW16815   2.501  10.626   8.378
 5014SOL    HW116816   2.457  10.710   8.362
 5014SOL    HW216817   2.438  10.575   8.429
 5015SOL     OW16818   8.092  14.637   5.955
 5015SOL    HW116819   8.059  14.565   6.008
 5015SOL    HW216820   8.181  14.651   5.988
 5016SOL     OW16821   6.510   8.050   6.477
 5016SOL    HW116822   6.560   8.093   6.546
 5016SOL    HW216823   6.573   7.990   6.436
 5017SOL     OW16824   3.675   6.369   7.688
 5017SOL    HW116825   3.625   6.289   7.704
 5017SOL    HW216826   3.630   6.411   7.615
 5018SOL     OW16827   9.960   4.861   8.689
 5018SOL    HW116828   9.875   4.866   8.645
 5018SOL    HW216829   9.940   4.868   8.782
 5019SOL     OW16830  13.412   3.610   0.643
 5019SOL    HW116831  13.492   3.591   0.692
 5019SOL    HW216832  13.442   3.630   0.555
 5020SOL     OW16833  14.851   5.858  12.489
 5020SOL    HW116834  14.804   5.797  12.432
 5020SOL    HW216835   0.031   5.802  12.541
 5021SOL     OW16836   5.731  13.946  11.633
 5021SOL    HW116837   5.677  13.991  11.698
 5021SOL    HW216838   5.673  13.933  11.559
 5022SOL     OW16839   9.322  11.017   4.623
 5022SOL    HW116840   9.245  10.969   4.592
 5022SOL    HW216841   9.305  11.108   4.599
 5023SOL     OW16842  12.264  11.658  14.647
 5023SOL    HW116843  12.263  11.642  14.552
 5023SOL    HW216844  12.332  11.599  14.680
 5024SOL     OW16845   0.077   0.836  11.127
 5024SOL    HW116846   0.018   0.908  11.150
 5024SOL    HW216847   0.164   0.876  11.126
 5025SOL     OW16848   4.669   0.329   8.543
 5025SOL    HW116849   4.603   0.329   8.474
 5025SOL    HW216850   4.747   0.291   8.502
 5026SOL     OW16851   9.937  10.299  13.029
 5026SOL    HW116852   9.938  10.207  13.003
 5026SOL    HW216853   9.878  10.302  13.104
 5027SOL     OW16854   7.180   7.200   8.869
 5027SOL    HW116855   7.204   7.130   8.808
 5027SOL    HW216856   7.085   7.199   8.871
 5028SOL     OW16857  10.197  13.026   9.347
 5028SOL    HW116858  10.252  12.951   9.328
 5028SOL    HW216859  10.258  13.096   9.369
 5029SOL     OW16860   6.629  11.438   2.799
 5029SOL    HW116861   6.570  11.420   2.726
 5029SOL    HW216862   6.624  11.532   2.811
 5030SOL     OW16863   1.756   0.074   4.498
 5030SOL    HW116864   1.849   0.092   4.511
 5030SOL    HW216865   1.746   0.066   4.403
 5031SOL     OW16866   2.323  11.240  10.367
 5031SOL    HW116867   2.393  11.195  10.414
 5031SOL    HW216868   2.285  11.172  10.311
 5032SOL     OW16869   8.377  14.239   0.556
 5032SOL    HW116870   8.294  14.202   0.524
 5032SOL    HW216871   8.393  14.314   0.499
 5033SOL     OW16872  13.984   5.062   8.869
 5033SOL    HW116873  13.942   5.027   8.791
 5033SOL    HW216874  13.925   5.037   8.941
 5034SOL     OW16875   5.026   1.755   8.887
 5034SOL    HW116876   5.041   1.728   8.977
 5034SOL    HW216877   4.971   1.833   8.894
 5035SOL     OW16878  10.825  14.812   3.578
 5035SOL    HW116879  10.769  14.745   3.619
 5035SOL    HW216880  10.767  14.858   3.518
 5036SOL     OW16881  10.004   1.499  14.284
 5036SOL    HW116882   9.955   1.525  14.362
 5036SOL    HW216883  10.024   1.406  14.299
 5037SOL     OW16884  14.610   3.830   5.980
 5037SOL    HW116885  14.600   3.896   6.049
 5037SOL    HW216886  14.606   3.880   5.898
 5038SOL     OW16887  14.552  11.978  14.491
 5038SOL    HW116888  14.601  12.060  14.484
 5038SOL    HW216889  14.563  11.951  14.582
 5039SOL     OW16890   4.669   0.205  12.850
 5039SOL    HW116891   4.684   0.297  12.872
 5039SOL    HW216892   4.644   0.165  12.933
 5040SOL     OW16893   8.538  13.938  14.642
 5040SOL    HW116894   8.504  13.904  14.725
 5040SOL    HW216895   8.572  14.024  14.663
 5041SOL     OW16896   2.168   6.295   0.167
 5041SOL    HW116897   2.138   6.212   0.130
 5041SOL    HW216898   2.151   6.360   0.099
 5042SOL     OW16899  10.461   5.320  12.671
 5042SOL    HW116900  10.447   5.228  12.648
 5042SOL    HW216901  10.400   5.336  12.743
 5043SOL     OW16902  10.176  12.334   2.713
 5043SOL    HW116903  10.202  12.426   2.724
 5043SOL    HW216904  10.094  12.338   2.664
 5044SOL     OW16905   8.527  13.682   0.219
 5044SOL    HW116906   8.526  13.712   0.311
 5044SOL    HW216907   8.473  13.603   0.219
 5045SOL     OW16908  11.831   3.176   8.330
 5045SOL    HW116909  11.898   3.224   8.380
 5045SOL    HW216910  11.844   3.205   8.240
 5046SOL     OW16911   5.557  14.376   0.414
 5046SOL    HW116912   5.606  14.458   0.401
 5046SOL    HW216913   5.496  14.373   0.341
 5047SOL     OW16914   1.093   4.393  13.077
 5047SOL    HW116915   1.089   4.333  13.152
 5047SOL    HW216916   1.101   4.335  13.001
 5048SOL     OW16917   8.380   4.012  11.270
 5048SOL    HW116918   8.294   3.972  11.260
 5048SOL    HW216919   8.394   4.018  11.365
 5049SOL     OW16920  10.024   3.964   6.296
 5049SOL    HW116921  10.086   4.023   6.339
 5049SOL    HW216922  10.012   4.002   6.208
 5050SOL     OW16923  12.982  14.790   3.347
 5050SOL    HW116924  13.066  14.748   3.365
 5050SOL    HW216925  12.974  14.857   3.415
 5051SOL     OW16926   6.408  13.919   9.847
 5051SOL    HW116927   6.400  13.853   9.778
 5051SOL    HW216928   6.482  13.973   9.820
 5052SOL     OW16929  11.590   3.542   8.193
 5052SOL    HW116930  11.588   3.470   8.130
 5052SOL    HW216931  11.604   3.499   8.278
 5053SOL     OW16932   9.702  10.083  13.671
 5053SOL    HW116933   9.760  10.126  13.609
 5053SOL    HW216934   9.755  10.015  13.711
 5054SOL     OW16935   3.581  14.551  13.922
 5054SOL    HW116936   3.585  14.647  13.928
 5054SOL    HW216937   3.590  14.521  14.012
 5055SOL     OW16938   5.714   0.326   0.636
 5055SOL    HW116939   5.807   0.315   0.618
 5055SOL    HW216940   5.710   0.348   0.730
 5056SOL     OW16941  12.841  12.066  14.830
 5056SOL    HW116942  12.764  12.071  14.773
 5056SOL    HW216943  12.847  11.973  14.853
 5057SOL     OW16944   5.637  13.089   0.074
 5057SOL    HW116945   5.607  13.050  14.870
 5057SOL    HW216946   5.728  13.114   0.057
 5058SOL     OW16947  14.541   3.739   8.796
 5058SOL    HW116948  14.478   3.717   8.865
 5058SOL    HW216949  14.535   3.666   8.734
 5059SOL     OW16950  13.040   0.523  12.283
 5059SOL    HW116951  12.972   0.523  12.351
 5059SOL    HW216952  13.014   0.593  12.223
 5060SOL     OW16953   1.186   4.593   4.080
 5060SOL    HW116954   1.200   4.515   4.134
 5060SOL    HW216955   1.143   4.655   4.139
 5061SOL     OW16956  12.383   5.943   1.543
 5061SOL    HW116957  12.373   5.852   1.571
 5061SOL    HW216958  12.474   5.950   1.516
 5062SOL     OW16959   2.854  13.821   8.066
 5062SOL    HW116960   2.849  13.843   8.159
 5062SOL    HW216961   2.830  13.729   8.062
 5063SOL     OW16962   8.853  10.406   3.551
 5063SOL    HW116963   8.879  10.461   3.624
 5063SOL    HW216964   8.877  10.317   3.578
 5064SOL     OW16965   5.825   8.280   3.684
 5064SOL    HW116966   5.750   8.231   3.650
 5064SOL    HW216967   5.819   8.270   3.779
 5065SOL     OW16968   5.400   1.872  13.542
 5065SOL    HW116969   5.409   1.839  13.453
 5065SOL    HW216970   5.483   1.851  13.584
 5066SOL     OW16971  14.596   2.633   3.433
 5066SOL    HW116972  14.531   2.563   3.446
 5066SOL    HW216973  14.555   2.711   3.471
 5067SOL     OW16974   4.106   5.325   6.812
 5067SOL    HW116975   4.063   5.317   6.898
 5067SOL    HW216976   4.197   5.301   6.828
 5068SOL     OW16977   8.366   5.086   6.177
 5068SOL    HW116978   8.444   5.141   6.184
 5068SOL    HW216979   8.294   5.149   6.173
 5069SOL     OW16980   7.512  12.979  14.567
 5069SOL    HW116981   7.423  12.957  14.541
 5069SOL    HW216982   7.524  12.934  14.651
 5070SOL     OW16983   2.909  10.320   3.986
 5070SOL    HW116984   2.930  10.307   4.078
 5070SOL    HW216985   2.939  10.409   3.967
 5071SOL     OW16986  14.772   2.155   0.522
 5071SOL    HW116987  14.849   2.114   0.484
 5071SOL    HW216988  14.802   2.241   0.551
 5072SOL     OW16989  13.120  11.003  14.744
 5072SOL    HW116990  13.119  11.084  14.795
 5072SOL    HW216991  13.036  11.002  14.699
 5073SOL     OW16992   9.701  13.166   9.532
 5073SOL    HW116993   9.758  13.139   9.603
 5073SOL    HW216994   9.761  13.194   9.463
 5074SOL     OW16995   3.005  14.575  12.895
 5074SOL    HW116996   3.034  14.649  12.841
 5074SOL    HW216997   2.956  14.615  12.966
 5075SOL     OW16998   4.480  11.070   7.114
 5075SOL    HW116999   4.490  11.159   7.147
 5075SOL    HW217000   4.542  11.063   7.042
 5076SOL     OW17001  13.667   8.541   1.837
 5076SOL    HW117002  13.716   8.612   1.795
 5076SOL    HW217003  13.628   8.580   1.914
 5077SOL     OW17004  11.708   1.533   8.400
 5077SOL    HW117005  11.612   1.532   8.400
 5077SOL    HW217006  11.731   1.614   8.355
 5078SOL     OW17007   8.458   4.022   5.989
 5078SOL    HW117008   8.447   3.927   5.981
 5078SOL    HW217009   8.542   4.041   5.947
 5079SOL     OW17010   8.895   3.579   3.440
 5079SOL    HW117011   8.826   3.546   3.382
 5079SOL    HW217012   8.964   3.513   3.434
 5080SOL     OW17013   3.452  10.466   0.930
 5080SOL    HW117014   3.359  10.443   0.926
 5080SOL    HW217015   3.462  10.537   0.866
 5081SOL     OW17016   5.836  10.249   9.983
 5081SOL    HW117017   5.752  10.284  10.013
 5081SOL    HW217018   5.857  10.180  10.047
 5082SOL     OW17019  11.437   9.100   4.920
 5082SOL    HW117020  11.479   9.141   4.996
 5082SOL    HW217021  11.412   9.012   4.951
 5083SOL     OW17022   7.178  13.214  10.277
 5083SOL    HW117023   7.207  13.209  10.368
 5083SOL    HW217024   7.132  13.131  10.261
 5084SOL     OW17025   9.595   6.155   4.154
 5084SOL    HW117026   9.511   6.124   4.187
 5084SOL    HW217027   9.584   6.157   4.059
 5085SOL     OW17028   4.082   3.999   3.891
 5085SOL    HW117029   4.082   4.003   3.795
 5085SOL    HW217030   4.084   3.905   3.911
 5086SOL     OW17031  11.027   8.355   3.451
 5086SOL    HW117032  11.072   8.275   3.478
 5086SOL    HW217033  11.024   8.409   3.530
 5087SOL     OW17034  11.568   1.433  12.675
 5087SOL    HW117035  11.659   1.404  12.682
 5087SOL    HW217036  11.572   1.506  12.613
 5088SOL     OW17037   9.069  13.232  14.784
 5088SOL    HW117038   9.046  13.148  14.824
 5088SOL    HW217039   9.161  13.223  14.760
 5089SOL     OW17040   7.101  12.692  12.898
 5089SOL    HW117041   7.022  12.698  12.845
 5089SOL    HW217042   7.127  12.783  12.911
 5090SOL     OW17043  10.159  11.629   0.879
 5090SOL    HW117044  10.217  11.598   0.809
 5090SOL    HW217045  10.196  11.595   0.959
 5091SOL     OW17046   7.984   5.190   3.559
 5091SOL    HW117047   8.010   5.218   3.471
 5091SOL    HW217048   7.925   5.258   3.590
 5092SOL     OW17049   6.307  14.686   6.015
 5092SOL    HW117050   6.238  14.663   6.078
 5092SOL    HW217051   6.337  14.772   6.042
 5093SOL     OW17052   6.659   5.444   1.623
 5093SOL    HW117053   6.605   5.482   1.554
 5093SOL    HW217054   6.606   5.452   1.703
 5094SOL     OW17055  13.028   9.672   3.619
 5094SOL    HW117056  12.953   9.717   3.581
 5094SOL    HW217057  13.057   9.729   3.691
 5095SOL     OW17058  12.732   5.168   9.280
 5095SOL    HW117059  12.692   5.187   9.195
 5095SOL    HW217060  12.761   5.254   9.312
 5096SOL     OW17061  14.462   1.783  13.294
 5096SOL    HW117062  14.383   1.748  13.336
 5096SOL    HW217063  14.517   1.811  13.367
 5097SOL     OW17064   2.448   0.929   4.454
 5097SOL    HW117065   2.465   1.022   4.435
 5097SOL    HW217066   2.355   0.927   4.478
 5098SOL     OW17067  14.576   7.310   2.081
 5098SOL    HW117068  14.652   7.334   2.134
 5098SOL    HW217069  14.613   7.271   2.002
 5099SOL     OW17070   2.385  13.252   0.398
 5099SOL    HW117071   2.390  13.244   0.303
 5099SOL    HW217072   2.294  13.276   0.416
 5100SOL     OW17073  11.589  14.577   3.195
 5100SOL    HW117074  11.617  14.667   3.207
 5100SOL    HW217075  11.564  14.572   3.102
 5101SOL     OW17076   1.383  10.155  11.708
 5101SOL    HW117077   1.298  10.155  11.664
 5101SOL    HW217078   1.411  10.247  11.706
 5102SOL     OW17079  11.480   4.114   3.976
 5102SOL    HW117080  11.502   4.120   3.883
 5102SOL    HW217081  11.423   4.037   3.982
 5103SOL     OW17082   7.404   6.668   4.694
 5103SOL    HW117083   7.323   6.651   4.743
 5103SOL    HW217084   7.403   6.604   4.624
 5104SOL     OW17085  14.296  13.275   3.912
 5104SOL    HW117086  14.324  13.307   3.826
 5104SOL    HW217087  14.277  13.354   3.962
 5105SOL     OW17088   3.738   8.065   5.261
 5105SOL    HW117089   3.732   8.009   5.338
 5105SOL    HW217090   3.769   8.006   5.192
 5106SOL     OW17091  11.655   7.197  14.590
 5106SOL    HW117092  11.598   7.120  14.586
 5106SOL    HW217093  11.622   7.248  14.664
 5107SOL     OW17094   5.917  10.784   6.430
 5107SOL    HW117095   5.994  10.731   6.446
 5107SOL    HW217096   5.920  10.852   6.498
 5108SOL     OW17097   9.036  13.684   7.510
 5108SOL    HW117098   9.040  13.701   7.605
 5108SOL    HW217099   9.127  13.675   7.484
 5109SOL     OW17100   8.566   3.152   8.381
 5109SOL    HW117101   8.522   3.171   8.298
 5109SOL    HW217102   8.565   3.235   8.429
 5110SOL     OW17103   3.306   7.731  13.134
 5110SOL    HW117104   3.284   7.645  13.169
 5110SOL    HW217105   3.335   7.781  13.210
 5111SOL     OW17106   1.048   0.086   1.241
 5111SOL    HW117107   1.143   0.082   1.231
 5111SOL    HW217108   1.026   0.178   1.227
 5112SOL     OW17109   1.317  10.242  14.659
 5112SOL    HW117110   1.374  10.254  14.734
 5112SOL    HW217111   1.235  10.209  14.697
 5113SOL     OW17112   0.498   3.454   2.861
 5113SOL    HW117113   0.409   3.475   2.892
 5113SOL    HW217114   0.537   3.540   2.842
 5114SOL     OW17115   5.707   6.464  13.833
 5114SOL    HW117116   5.705   6.381  13.881
 5114SOL    HW217117   5.715   6.531  13.901
 5115SOL     OW17118   5.934  12.076  14.651
 5115SOL    HW117119   5.929  12.134  14.728
 5115SOL    HW217120   5.850  12.029  14.651
 5116SOL     OW17121   8.144   1.558  13.586
 5116SOL    HW117122   8.065   1.540  13.535
 5116SOL    HW217123   8.148   1.486  13.649
 5117SOL     OW17124  10.543   9.849   3.866
 5117SOL    HW117125  10.544   9.774   3.925
 5117SOL    HW217126  10.617   9.902   3.892
 5118SOL     OW17127  12.724   9.083  11.761
 5118SOL    HW117128  12.731   9.035  11.844
 5118SOL    HW217129  12.759   9.170  11.780
 5119SOL     OW17130  13.214  10.294   3.470
 5119SOL    HW117131  13.167  10.214   3.493
 5119SOL    HW217132  13.295  10.263   3.429
 5120SOL     OW17133   5.206  14.747   7.223
 5120SOL    HW117134   5.222  14.717   7.313
 5120SOL    HW217135   5.283  14.717   7.174
 5121SOL     OW17136   8.819   7.420   1.898
 5121SOL    HW117137   8.875   7.348   1.868
 5121SOL    HW217138   8.774   7.384   1.974
 5122SOL     OW17139  11.130   9.895  13.565
 5122SOL    HW117140  11.150   9.925  13.654
 5122SOL    HW217141  11.192   9.825  13.548
 5123SOL     OW17142  11.695   6.992   7.606
 5123SOL    HW117143  11.619   7.044   7.580
 5123SOL    HW217144  11.768   7.054   7.609
 5124SOL     OW17145   1.554   4.491   7.982
 5124SOL    HW117146   1.481   4.430   7.998
 5124SOL    HW217147   1.577   4.524   8.069
 5125SOL     OW17148   2.940   5.363   0.196
 5125SOL    HW117149   2.889   5.419   0.254
 5125SOL    HW217150   2.992   5.309   0.256
 5126SOL     OW17151  11.726  12.087   7.750
 5126SOL    HW117152  11.634  12.108   7.730
 5126SOL    HW217153  11.769  12.172   7.757
 5127SOL     OW17154  12.963  13.392   0.806
 5127SOL    HW117155  13.016  13.323   0.847
 5127SOL    HW217156  12.993  13.473   0.847
 5128SOL     OW17157   7.252   4.666   2.435
 5128SOL    HW117158   7.184   4.707   2.383
 5128SOL    HW217159   7.216   4.581   2.460
 5129SOL     OW17160   0.243   5.191   2.614
 5129SOL    HW117161   0.296   5.118   2.583
 5129SOL    HW217162   0.181   5.208   2.543
 5130SOL     OW17163   2.286   2.052   6.587
 5130SOL    HW117164   2.246   1.970   6.614
 5130SOL    HW217165   2.233   2.120   6.629
 5131SOL     OW17166  12.975   8.318   8.444
 5131SOL    HW117167  12.914   8.392   8.438
 5131SOL    HW217168  12.944   8.256   8.378
 5132SOL     OW17169  14.383   2.162   4.256
 5132SOL    HW117170  14.448   2.149   4.325
 5132SOL    HW217171  14.319   2.093   4.269
 5133SOL     OW17172  10.493  13.469  13.716
 5133SOL    HW117173  10.548  13.484  13.640
 5133SOL    HW217174  10.426  13.407  13.686
 5134SOL     OW17175   8.108  14.144  10.490
 5134SOL    HW117176   8.041  14.197  10.446
 5134SOL    HW217177   8.076  14.135  10.580
 5135SOL     OW17178   7.935  12.111   6.084
 5135SOL    HW117179   7.871  12.166   6.038
 5135SOL    HW217180   7.983  12.068   6.014
 5136SOL     OW17181   3.007   7.274  14.420
 5136SOL    HW117182   3.041   7.231  14.341
 5136SOL    HW217183   2.935   7.329  14.388
 5137SOL     OW17184   4.696   9.764   9.358
 5137SOL    HW117185   4.649   9.814   9.425
 5137SOL    HW217186   4.628   9.729   9.301
 5138SOL     OW17187   9.983  12.076   3.723
 5138SOL    HW117188  10.046  12.140   3.756
 5138SOL    HW217189   9.939  12.044   3.802
 5139SOL     OW17190   3.323   1.571   0.624
 5139SOL    HW117191   3.236   1.583   0.663
 5139SOL    HW217192   3.318   1.486   0.581
 5140SOL     OW17193   5.174  12.596  13.728
 5140SOL    HW117194   5.253  12.549  13.756
 5140SOL    HW217195   5.146  12.551  13.648
 5141SOL     OW17196   4.741  13.748   1.751
 5141SOL    HW117197   4.704  13.836   1.755
 5141SOL    HW217198   4.835  13.763   1.735
 5142SOL     OW17199   4.929  14.394   7.912
 5142SOL    HW117200   4.969  14.331   7.971
 5142SOL    HW217201   4.882  14.341   7.848
 5143SOL     OW17202  11.831   5.345   9.099
 5143SOL    HW117203  11.907   5.402   9.092
 5143SOL    HW217204  11.823   5.304   9.013
 5144SOL     OW17205  12.509   3.133   2.637
 5144SOL    HW117206  12.473   3.160   2.722
 5144SOL    HW217207  12.569   3.061   2.659
 5145SOL     OW17208   6.615  14.348   3.765
 5145SOL    HW117209   6.686  14.301   3.722
 5145SOL    HW217210   6.655  14.383   3.845
 5146SOL     OW17211   9.315   1.941   7.276
 5146SOL    HW117212   9.391   1.994   7.253
 5146SOL    HW217213   9.289   1.899   7.193
 5147SOL     OW17214  10.377   0.611   7.745
 5147SOL    HW117215  10.421   0.554   7.808
 5147SOL    HW217216  10.449   0.653   7.698
 5148SOL     OW17217  11.496  12.376   4.360
 5148SOL    HW117218  11.438  12.300   4.354
 5148SOL    HW217219  11.437  12.452   4.357
 5149SOL     OW17220   5.541   5.586   9.358
 5149SOL    HW117221   5.588   5.622   9.283
 5149SOL    HW217222   5.608   5.572   9.425
 5150SOL     OW17223   8.714   0.304   1.544
 5150SOL    HW117224   8.755   0.271   1.465
 5150SOL    HW217225   8.775   0.283   1.615
 5151SOL     OW17226   8.741  13.298  14.159
 5151SOL    HW117227   8.685  13.375  14.151
 5151SOL    HW217228   8.691  13.227  14.118
 5152SOL     OW17229   1.333   9.203   2.328
 5152SOL    HW117230   1.240   9.189   2.310
 5152SOL    HW217231   1.338   9.213   2.423
 5153SOL     OW17232  12.612   8.685   2.356
 5153SOL    HW117233  12.523   8.675   2.389
 5153SOL    HW217234  12.647   8.596   2.356
 5154SOL     OW17235   6.399   1.453   6.088
 5154SOL    HW117236   6.455   1.508   6.033
 5154SOL    HW217237   6.458   1.388   6.126
 5155SOL     OW17238   6.568  14.823   3.712
 5155SOL    HW117239   6.659  14.839   3.737
 5155SOL    HW217240   6.529  14.785   3.790
 5156SOL     OW17241   0.876   3.543   9.042
 5156SOL    HW117242   0.868   3.499   9.126
 5156SOL    HW217243   0.922   3.480   8.986
 5157SOL     OW17244   3.225   2.868   8.301
 5157SOL    HW117245   3.195   2.778   8.288
 5157SOL    HW217246   3.299   2.878   8.241
 5158SOL     OW17247   5.675   4.636   2.350
 5158SOL    HW117248   5.624   4.682   2.284
 5158SOL    HW217249   5.654   4.543   2.337
 5159SOL     OW17250  13.441   0.506   0.797
 5159SOL    HW117251  13.408   0.435   0.851
 5159SOL    HW217252  13.399   0.585   0.831
 5160SOL     OW17253   6.875  10.156   7.336
 5160SOL    HW117254   6.846  10.065   7.335
 5160SOL    HW217255   6.965  10.152   7.367
 5161SOL     OW17256   3.885   7.438  10.186
 5161SOL    HW117257   3.791   7.449  10.201
 5161SOL    HW217258   3.909   7.361  10.238
 5162SOL     OW17259  11.590  13.266  14.150
 5162SOL    HW117260  11.518  13.224  14.197
 5162SOL    HW217261  11.669  13.227  14.187
 5163SOL     OW17262  10.012   1.158  11.380
 5163SOL    HW117263  10.059   1.075  11.369
 5163SOL    HW217264  10.081   1.221  11.403
 5164SOL     OW17265  11.624   1.726  10.062
 5164SOL    HW117266  11.616   1.634  10.087
 5164SOL    HW217267  11.718   1.740  10.049
 5165SOL     OW17268   9.649  14.149   2.705
 5165SOL    HW117269   9.619  14.238   2.687
 5165SOL    HW217270   9.622  14.132   2.795
 5166SOL     OW17271  10.204   6.281   9.618
 5166SOL    HW117272  10.149   6.357   9.638
 5166SOL    HW217273  10.266   6.277   9.691
 5167SOL     OW17274   4.513   6.761   4.235
 5167SOL    HW117275   4.559   6.697   4.290
 5167SOL    HW217276   4.531   6.846   4.276
 5168SOL     OW17277   6.309   9.187   7.988
 5168SOL    HW117278   6.248   9.232   8.047
 5168SOL    HW217279   6.304   9.095   8.016
 5169SOL     OW17280   3.803   4.704   8.682
 5169SOL    HW117281   3.785   4.743   8.767
 5169SOL    HW217282   3.859   4.768   8.638
 5170SOL     OW17283   2.734  14.067   2.253
 5170SOL    HW117284   2.731  14.020   2.337
 5170SOL    HW217285   2.827  14.072   2.231
 5171SOL     OW17286   5.239   3.090   0.905
 5171SOL    HW117287   5.225   3.148   0.979
 5171SOL    HW217288   5.264   3.007   0.944
 5172SOL     OW17289  11.076  13.993   3.078
 5172SOL    HW117290  11.021  13.917   3.100
 5172SOL    HW217291  11.151  13.955   3.033
 5173SOL     OW17292  12.862   4.318  14.616
 5173SOL    HW117293  12.773   4.321  14.651
 5173SOL    HW217294  12.896   4.233  14.645
 5174SOL     OW17295  14.177   8.609   5.229
 5174SOL    HW117296  14.095   8.640   5.191
 5174SOL    HW217297  14.237   8.684   5.221
 5175SOL     OW17298   9.703  11.268   1.772
 5175SOL    HW117299   9.681  11.250   1.863
 5175SOL    HW217300   9.637  11.331   1.744
 5176SOL     OW17301   1.277   7.600   8.186
 5176SOL    HW117302   1.231   7.653   8.252
 5176SOL    HW217303   1.246   7.511   8.202
 5177SOL     OW17304   2.359   4.120   9.519
 5177SOL    HW117305   2.427   4.054   9.534
 5177SOL    HW217306   2.352   4.167   9.603
 5178SOL     OW17307   8.664   6.455   4.996
 5178SOL    HW117308   8.631   6.376   5.039
 5178SOL    HW217309   8.594   6.482   4.936
 5179SOL     OW17310   9.923  12.693   1.399
 5179SOL    HW117311   9.920  12.785   1.427
 5179SOL    HW217312   9.880  12.692   1.314
 5180SOL     OW17313   6.776   6.730  11.523
 5180SOL    HW117314   6.715   6.678  11.471
 5180SOL    HW217315   6.812   6.794  11.462
 5181SOL     OW17316   8.489   4.344  14.085
 5181SOL    HW117317   8.520   4.405  14.152
 5181SOL    HW217318   8.403   4.317  14.116
 5182SOL     OW17319  12.681   9.771   4.811
 5182SOL    HW117320  12.611   9.779   4.875
 5182SOL    HW217321  12.720   9.686   4.828
 5183SOL     OW17322   3.329   1.260  13.849
 5183SOL    HW117323   3.337   1.355  13.846
 5183SOL    HW217324   3.376   1.229  13.772
 5184SOL     OW17325  11.426  13.588   8.264
 5184SOL    HW117326  11.440  13.528   8.337
 5184SOL    HW217327  11.332  13.600   8.261
 5185SOL     OW17328   3.300  13.651   2.379
 5185SOL    HW117329   3.253  13.733   2.394
 5185SOL    HW217330   3.234  13.583   2.388
 5186SOL     OW17331   3.191  12.332   9.302
 5186SOL    HW117332   3.125  12.395   9.331
 5186SOL    HW217333   3.175  12.254   9.356
 5187SOL     OW17334   9.270   6.011   0.950
 5187SOL    HW117335   9.313   5.928   0.929
 5187SOL    HW217336   9.340   6.067   0.983
 5188SOL     OW17337   4.447  12.567  14.198
 5188SOL    HW117338   4.358  12.591  14.221
 5188SOL    HW217339   4.476  12.509  14.269
 5189SOL     OW17340  12.085  13.533   6.415
 5189SOL    HW117341  12.132  13.530   6.499
 5189SOL    HW217342  12.034  13.453   6.413
 5190SOL     OW17343  12.132   2.191   4.600
 5190SOL    HW117344  12.213   2.139   4.599
 5190SOL    HW217345  12.062   2.126   4.610
 5191SOL     OW17346   4.030   4.945  11.566
 5191SOL    HW117347   4.070   4.917  11.649
 5191SOL    HW217348   4.085   4.904  11.499
 5192SOL     OW17349   3.109  10.560   2.432
 5192SOL    HW117350   3.150  10.476   2.450
 5192SOL    HW217351   3.126  10.613   2.511
 5193SOL     OW17352  13.458  10.457   9.569
 5193SOL    HW117353  13.548  10.459   9.603
 5193SOL    HW217354  13.412  10.397   9.628
 5194SOL     OW17355  14.843  13.046  13.362
 5194SOL    HW117356  14.845  13.020  13.454
 5194SOL    HW217357  14.805  12.970  13.317
 5195SOL     OW17358   8.253   8.595  12.217
 5195SOL    HW117359   8.198   8.669  12.191
 5195SOL    HW217360   8.295   8.566  12.136
 5196SOL     OW17361   0.417  14.411  10.095
 5196SOL    HW117362   0.397  14.338  10.036
 5196SOL    HW217363   0.459  14.370  10.171
 5197SOL     OW17364  12.843   4.387  12.816
 5197SOL    HW117365  12.779   4.352  12.755
 5197SOL    HW217366  12.888   4.310  12.851
 5198SOL     OW17367   8.628   2.905   9.285
 5198SOL    HW117368   8.660   2.847   9.355
 5198SOL    HW217369   8.701   2.910   9.223
 5199SOL     OW17370   6.419   7.837  13.377
 5199SOL    HW117371   6.418   7.742  13.368
 5199SOL    HW217372   6.512   7.859  13.381
 5200SOL     OW17373   0.921  12.520   6.670
 5200SOL    HW117374   0.909  12.442   6.723
 5200SOL    HW217375   0.855  12.513   6.601
 5201SOL     OW17376   2.063   9.521   9.850
 5201SOL    HW117377   2.043   9.550   9.761
 5201SOL    HW217378   2.158   9.530   9.858
 5202SOL     OW17379   2.924   3.967  13.011
 5202SOL    HW117380   2.844   3.990  12.964
 5202SOL    HW217381   2.898   3.968  13.103
 5203SOL     OW17382   5.005   0.942  13.912
 5203SOL    HW117383   5.034   0.887  13.985
 5203SOL    HW217384   5.028   0.893  13.834
 5204SOL     OW17385   9.489   3.600   0.255
 5204SOL    HW117386   9.409   3.646   0.279
 5204SOL    HW217387   9.557   3.641   0.310
 5205SOL     OW17388   8.928   2.569   0.285
 5205SOL    HW117389   8.995   2.619   0.330
 5205SOL    HW217390   8.851   2.575   0.342
 5206SOL     OW17391  11.383   9.465   7.794
 5206SOL    HW117392  11.348   9.389   7.840
 5206SOL    HW217393  11.416   9.430   7.711
 5207SOL     OW17394   2.826   0.333   1.546
 5207SOL    HW117395   2.897   0.278   1.512
 5207SOL    HW217396   2.848   0.421   1.514
 5208SOL     OW17397  12.980  14.187   0.003
 5208SOL    HW117398  12.893  14.152  14.865
 5208SOL    HW217399  13.034  14.110   0.021
 5209SOL     OW17400   2.043   7.025   5.946
 5209SOL    HW117401   2.088   7.095   5.899
 5209SOL    HW217402   2.112   6.980   5.995
 5210SOL     OW17403   6.658   7.003   6.654
 5210SOL    HW117404   6.732   6.960   6.611
 5210SOL    HW217405   6.658   7.092   6.618
 5211SOL     OW17406   8.054   5.247   3.159
 5211SOL    HW117407   8.138   5.285   3.134
 5211SOL    HW217408   8.032   5.290   3.242
 5212SOL     OW17409   6.087   3.094  14.112
 5212SOL    HW117410   6.061   3.167  14.167
 5212SOL    HW217411   6.087   3.128  14.023
 5213SOL     OW17412   7.228   2.273   2.151
 5213SOL    HW117413   7.311   2.300   2.112
 5213SOL    HW217414   7.179   2.354   2.161
 5214SOL     OW17415   5.625   6.427   1.977
 5214SOL    HW117416   5.672   6.441   2.059
 5214SOL    HW217417   5.693   6.430   1.910
 5215SOL     OW17418   1.359   7.322   3.255
 5215SOL    HW117419   1.443   7.296   3.218
 5215SOL    HW217420   1.298   7.252   3.232
 5216SOL     OW17421  12.983   8.699  10.868
 5216SOL    HW117422  13.028   8.699  10.783
 5216SOL    HW217423  13.003   8.614  10.906
 5217SOL     OW17424   0.435   2.731   3.861
 5217SOL    HW117425   0.388   2.814   3.857
 5217SOL    HW217426   0.459   2.721   3.953
 5218SOL     OW17427   1.585  10.748   2.633
 5218SOL    HW117428   1.621  10.837   2.629
 5218SOL    HW217429   1.589  10.716   2.543
 5219SOL     OW17430   4.431   1.203  14.609
 5219SOL    HW117431   4.348   1.158  14.595
 5219SOL    HW217432   4.409   1.278  14.663
 5220SOL     OW17433   3.196  12.825   0.500
 5220SOL    HW117434   3.284  12.841   0.533
 5220SOL    HW217435   3.139  12.840   0.575
 5221SOL     OW17436  14.847   8.845  12.391
 5221SOL    HW117437   0.008   8.759  12.404
 5221SOL    HW217438   0.024   8.887  12.326
 5222SOL     OW17439  12.676  13.874  13.192
 5222SOL    HW117440  12.658  13.909  13.279
 5222SOL    HW217441  12.676  13.951  13.135
 5223SOL     OW17442  12.513  14.769  11.450
 5223SOL    HW117443  12.572  14.706  11.410
 5223SOL    HW217444  12.562  14.803  11.525
 5224SOL     OW17445   9.736  10.832   7.399
 5224SOL    HW117446   9.723  10.739   7.380
 5224SOL    HW217447   9.655  10.874   7.370
 5225SOL     OW17448   8.513   7.252   8.513
 5225SOL    HW117449   8.604   7.227   8.498
 5225SOL    HW217450   8.463   7.199   8.451
 5226SOL     OW17451   7.358  12.089  14.696
 5226SOL    HW117452   7.286  12.101  14.758
 5226SOL    HW217453   7.391  12.001  14.714
 5227SOL     OW17454  12.948  10.685  13.369
 5227SOL    HW117455  12.989  10.655  13.289
 5227SOL    HW217456  12.983  10.629  13.437
 5228SOL     OW17457   2.126   2.765  12.766
 5228SOL    HW117458   2.094   2.676  12.752
 5228SOL    HW217459   2.085   2.817  12.697
 5229SOL     OW17460   3.820   0.334  13.088
 5229SOL    HW117461   3.790   0.373  13.006
 5229SOL    HW217462   3.817   0.240  13.071
 5230SOL     OW17463  11.720   3.153  11.943
 5230SOL    HW117464  11.677   3.118  11.864
 5230SOL    HW217465  11.678   3.107  12.016
 5231SOL     OW17466   6.341   7.814   7.135
 5231SOL    HW117467   6.252   7.816   7.169
 5231SOL    HW217468   6.394   7.777   7.205
 5232SOL     OW17469   7.148  11.492   6.998
 5232SOL    HW117470   7.190  11.456   7.076
 5232SOL    HW217471   7.108  11.416   6.955
 5233SOL     OW17472   8.766  12.669   5.251
 5233SOL    HW117473   8.799  12.587   5.288
 5233SOL    HW217474   8.714  12.642   5.175
 5234SOL     OW17475   9.267   8.715   3.146
 5234SOL    HW117476   9.200   8.763   3.098
 5234SOL    HW217477   9.218   8.658   3.205
 5235SOL     OW17478   5.101   8.884   1.573
 5235SOL    HW117479   5.052   8.944   1.517
 5235SOL    HW217480   5.176   8.858   1.520
 5236SOL     OW17481   8.613   9.174   7.300
 5236SOL    HW117482   8.607   9.198   7.208
 5236SOL    HW217483   8.555   9.098   7.308
 5237SOL     OW17484   5.048   0.062   6.762
 5237SOL    HW117485   5.009   0.148   6.747
 5237SOL    HW217486   5.085   0.067   6.850
 5238SOL     OW17487   8.992   9.834  13.765
 5238SOL    HW117488   9.000   9.921  13.804
 5238SOL    HW217489   8.973   9.776  13.839
 5239SOL     OW17490   1.389   0.557   8.477
 5239SOL    HW117491   1.401   0.494   8.406
 5239SOL    HW217492   1.464   0.544   8.534
 5240SOL     OW17493   9.458   4.537  10.578
 5240SOL    HW117494   9.404   4.517  10.655
 5240SOL    HW217495   9.400   4.590  10.523
 5241SOL     OW17496  13.916   1.105   1.479
 5241SOL    HW117497  13.938   1.075   1.567
 5241SOL    HW217498  13.973   1.054   1.421
 5242SOL     OW17499   1.856   8.840   3.483
 5242SOL    HW117500   1.887   8.830   3.394
 5242SOL    HW217501   1.845   8.751   3.516
 5243SOL     OW17502   6.117   9.797   7.612
 5243SOL    HW117503   6.135   9.852   7.537
 5243SOL    HW217504   6.099   9.710   7.575
 5244SOL     OW17505   2.325  12.985  12.331
 5244SOL    HW117506   2.280  13.025  12.256
 5244SOL    HW217507   2.302  12.893  12.326
 5245SOL     OW17508   4.553   5.711   3.269
 5245SOL    HW117509   4.460   5.689   3.279
 5245SOL    HW217510   4.588   5.704   3.357
 5246SOL     OW17511   7.544  12.859   3.694
 5246SOL    HW117512   7.476  12.808   3.739
 5246SOL    HW217513   7.623  12.846   3.746
 5247SOL     OW17514  10.645   5.487   6.920
 5247SOL    HW117515  10.643   5.538   7.001
 5247SOL    HW217516  10.603   5.404   6.942
 5248SOL     OW17517  14.145   0.079   3.918
 5248SOL    HW117518  14.107   0.121   3.996
 5248SOL    HW217519  14.231   0.119   3.909
 5249SOL     OW17520   5.016  11.988   6.671
 5249SOL    HW117521   4.992  12.038   6.592
 5249SOL    HW217522   5.010  11.897   6.644
 5250SOL     OW17523  13.477   4.873  11.203
 5250SOL    HW117524  13.503   4.945  11.146
 5250SOL    HW217525  13.388   4.850  11.175
 5251SOL     OW17526   3.284  11.735  10.402
 5251SOL    HW117527   3.365  11.737  10.350
 5251SOL    HW217528   3.230  11.806  10.365
 5252SOL     OW17529  11.634   6.364   0.115
 5252SOL    HW117530  11.725   6.362   0.084
 5252SOL    HW217531  11.626   6.285   0.169
 5253SOL     OW17532  12.196   5.114  13.315
 5253SOL    HW117533  12.237   5.108  13.401
 5253SOL    HW217534  12.124   5.176  13.326
 5254SOL     OW17535   5.457   6.618   1.400
 5254SOL    HW117536   5.490   6.692   1.349
 5254SOL    HW217537   5.529   6.595   1.459
 5255SOL     OW17538   1.755  13.838   3.328
 5255SOL    HW117539   1.783  13.827   3.237
 5255SOL    HW217540   1.808  13.776   3.377
 5256SOL     OW17541   3.401   1.112   7.612
 5256SOL    HW117542   3.359   1.144   7.532
 5256SOL    HW217543   3.473   1.173   7.629
 5257SOL     OW17544   3.299   2.660   1.635
 5257SOL    HW117545   3.366   2.616   1.583
 5257SOL    HW217546   3.251   2.589   1.678
 5258SOL     OW17547   4.396  13.111   1.718
 5258SOL    HW117548   4.365  13.201   1.706
 5258SOL    HW217549   4.353  13.081   1.798
 5259SOL     OW17550  14.480   5.013   3.692
 5259SOL    HW117551  14.506   5.101   3.663
 5259SOL    HW217552  14.551   4.956   3.663
 5260SOL     OW17553   7.783   3.319   4.001
 5260SOL    HW117554   7.838   3.396   4.017
 5260SOL    HW217555   7.817   3.283   3.919
 5261SOL     OW17556   5.814  13.967  13.763
 5261SOL    HW117557   5.743  13.927  13.714
 5261SOL    HW217558   5.788  13.959  13.855
 5262SOL     OW17559   3.881  10.127   5.307
 5262SOL    HW117560   3.820  10.166   5.371
 5262SOL    HW217561   3.824  10.084   5.243
 5263SOL     OW17562  10.460  11.827   8.564
 5263SOL    HW117563  10.526  11.766   8.532
 5263SOL    HW217564  10.401  11.773   8.617
 5264SOL     OW17565   4.842  10.370  10.235
 5264SOL    HW117566   4.861  10.279  10.259
 5264SOL    HW217567   4.897  10.386  10.158
 5265SOL     OW17568  10.280   2.245   7.680
 5265SOL    HW117569  10.263   2.324   7.732
 5265SOL    HW217570  10.252   2.173   7.737
 5266SOL     OW17571   9.211   4.724  14.161
 5266SOL    HW117572   9.207   4.715  14.256
 5266SOL    HW217573   9.301   4.752  14.143
 5267SOL     OW17574   4.079  13.381  13.280
 5267SOL    HW117575   4.123  13.466  13.273
 5267SOL    HW217576   4.001  13.399  13.332
 5268SOL     OW17577   3.810   0.192  13.465
 5268SOL    HW117578   3.881   0.136  13.434
 5268SOL    HW217579   3.804   0.261  13.399
 5269SOL     OW17580  11.210   4.706   1.590
 5269SOL    HW117581  11.172   4.621   1.612
 5269SOL    HW217582  11.286   4.686   1.537
 5270SOL     OW17583  14.466   2.805   9.957
 5270SOL    HW117584  14.405   2.737   9.987
 5270SOL    HW217585  14.493   2.851  10.036
 5271SOL     OW17586   1.025   2.069   7.937
 5271SOL    HW117587   1.109   2.107   7.961
 5271SOL    HW217588   0.976   2.063   8.020
 5272SOL     OW17589   9.707   7.413   4.682
 5272SOL    HW117590   9.736   7.409   4.591
 5272SOL    HW217591   9.739   7.498   4.714
 5273SOL     OW17592   5.361  12.903   2.330
 5273SOL    HW117593   5.440  12.950   2.358
 5273SOL    HW217594   5.289  12.952   2.369
 5274SOL     OW17595   7.617   1.478   3.670
 5274SOL    HW117596   7.693   1.423   3.652
 5274SOL    HW217597   7.549   1.445   3.612
 5275SOL     OW17598   1.327  10.750  13.880
 5275SOL    HW117599   1.386  10.785  13.947
 5275SOL    HW217600   1.252  10.810  13.881
 5276SOL     OW17601  12.391  13.541   6.348
 5276SOL    HW117602  12.303  13.558   6.382
 5276SOL    HW217603  12.436  13.626   6.355
 5277SOL     OW17604  13.081  12.802   6.011
 5277SOL    HW117605  13.070  12.826   5.919
 5277SOL    HW217606  13.157  12.743   6.011
 5278SOL     OW17607  10.378  14.273  11.542
 5278SOL    HW117608  10.417  14.188  11.527
 5278SOL    HW217609  10.290  14.254  11.574
 5279SOL     OW17610   3.970   3.304   5.834
 5279SOL    HW117611   4.033   3.354   5.886
 5279SOL    HW217612   3.930   3.369   5.776
 5280SOL     OW17613  11.881   2.273   8.569
 5280SOL    HW117614  11.944   2.262   8.498
 5280SOL    HW217615  11.933   2.272   8.649
 5281SOL     OW17616   6.887  11.794   3.554
 5281SOL    HW117617   6.900  11.709   3.595
 5281SOL    HW217618   6.975  11.832   3.549
 5282SOL     OW17619   9.033   2.624   3.853
 5282SOL    HW117620   9.095   2.664   3.793
 5282SOL    HW217621   9.004   2.695   3.910
 5283SOL     OW17622  10.050   8.555  14.093
 5283SOL    HW117623  10.014   8.601  14.169
 5283SOL    HW217624   9.999   8.587  14.019
 5284SOL     OW17625   2.303   8.435   5.266
 5284SOL    HW117626   2.379   8.391   5.228
 5284SOL    HW217627   2.251   8.364   5.303
 5285SOL     OW17628   2.975  11.257  10.055
 5285SOL    HW117629   2.909  11.188  10.058
 5285SOL    HW217630   2.926  11.339  10.065
 5286SOL     OW17631   3.180   2.102   5.170
 5286SOL    HW117632   3.271   2.134   5.177
 5286SOL    HW217633   3.145   2.148   5.094
 5287SOL     OW17634   6.032   9.872   3.639
 5287SOL    HW117635   5.981   9.792   3.622
 5287SOL    HW217636   5.990   9.911   3.716
 5288SOL     OW17637   5.275  14.737   3.351
 5288SOL    HW117638   5.319  14.705   3.429
 5288SOL    HW217639   5.190  14.769   3.382
 5289SOL     OW17640  13.876  10.146   6.306
 5289SOL    HW117641  13.892  10.089   6.381
 5289SOL    HW217642  13.792  10.116   6.270
 5290SOL     OW17643  13.148   0.214   4.287
 5290SOL    HW117644  13.206   0.250   4.353
 5290SOL    HW217645  13.184   0.128   4.267
 5291SOL     OW17646   1.836   1.098   2.743
 5291SOL    HW117647   1.777   1.064   2.676
 5291SOL    HW217648   1.869   1.181   2.708
 5292SOL     OW17649  14.289   0.572   9.484
 5292SOL    HW117650  14.295   0.607   9.573
 5292SOL    HW217651  14.330   0.486   9.489
 5293SOL     OW17652   9.404  11.962  11.289
 5293SOL    HW117653   9.349  12.040  11.274
 5293SOL    HW217654   9.456  11.954  11.210
 5294SOL     OW17655  13.975  13.836  10.346
 5294SOL    HW117656  14.055  13.803  10.388
 5294SOL    HW217657  14.006  13.877  10.265
 5295SOL     OW17658   9.857   7.700   3.940
 5295SOL    HW117659   9.948   7.696   3.908
 5295SOL    HW217660   9.818   7.618   3.909
 5296SOL     OW17661  13.510   4.543   9.328
 5296SOL    HW117662  13.508   4.460   9.376
 5296SOL    HW217663  13.603   4.568   9.327
 5297SOL     OW17664   2.136  12.131   7.126
 5297SOL    HW117665   2.182  12.146   7.209
 5297SOL    HW217666   2.160  12.042   7.101
 5298SOL     OW17667   9.616   9.182   0.194
 5298SOL    HW117668   9.523   9.166   0.176
 5298SOL    HW217669   9.617   9.262   0.247
 5299SOL     OW17670  13.234  14.006  12.293
 5299SOL    HW117671  13.214  13.918  12.261
 5299SOL    HW217672  13.324  14.021  12.265
 5300SOL     OW17673  12.777   8.680   8.786
 5300SOL    HW117674  12.690   8.642   8.775
 5300SOL    HW217675  12.762   8.758   8.840
 5301SOL     OW17676  13.330   9.270   5.061
 5301SOL    HW117677  13.315   9.229   5.146
 5301SOL    HW217678  13.421   9.246   5.040
 5302SOL     OW17679   7.908  14.077   7.108
 5302SOL    HW117680   7.940  14.052   7.021
 5302SOL    HW217681   7.945  14.164   7.123
 5303SOL     OW17682  12.631  12.198   4.725
 5303SOL    HW117683  12.689  12.237   4.660
 5303SOL    HW217684  12.605  12.114   4.687
 5304SOL     OW17685  11.960   3.686   2.194
 5304SOL    HW117686  11.979   3.602   2.151
 5304SOL    HW217687  11.945   3.663   2.286
 5305SOL     OW17688   8.601   2.978  10.813
 5305SOL    HW117689   8.652   2.911  10.768
 5305SOL    HW217690   8.580   3.042  10.745
 5306SOL     OW17691   9.427  11.334   9.297
 5306SOL    HW117692   9.420  11.286   9.214
 5306SOL    HW217693   9.471  11.272   9.356
 5307SOL     OW17694   8.250  11.258  10.309
 5307SOL    HW117695   8.163  11.289  10.336
 5307SOL    HW217696   8.232  11.199  10.235
 5308SOL     OW17697   8.873  14.258   5.811
 5308SOL    HW117698   8.959  14.217   5.804
 5308SOL    HW217699   8.856  14.264   5.905
 5309SOL     OW17700   3.835   1.142  10.756
 5309SOL    HW117701   3.801   1.165  10.670
 5309SOL    HW217702   3.848   1.227  10.800
 5310SOL     OW17703   7.219  12.547  11.421
 5310SOL    HW117704   7.281  12.604  11.467
 5310SOL    HW217705   7.151  12.607  11.390
 5311SOL     OW17706  11.166  10.541   6.921
 5311SOL    HW117707  11.234  10.478   6.898
 5311SOL    HW217708  11.105  10.538   6.847
 5312SOL     OW17709  14.511   2.896   3.485
 5312SOL    HW117710  14.538   2.939   3.566
 5312SOL    HW217711  14.466   2.964   3.435
 5313SOL     OW17712   9.950   8.735   3.054
 5313SOL    HW117713   9.910   8.665   3.002
 5313SOL    HW217714   9.888   8.807   3.048
 5314SOL     OW17715   0.389   0.976   0.276
 5314SOL    HW117716   0.434   0.973   0.192
 5314SOL    HW217717   0.450   0.937   0.338
 5315SOL     OW17718  14.588  13.253  12.850
 5315SOL    HW117719  14.604  13.326  12.910
 5315SOL    HW217720  14.609  13.175  12.901
 5316SOL     OW17721   1.136  12.312   7.963
 5316SOL    HW117722   1.226  12.293   7.989
 5316SOL    HW217723   1.144  12.387   7.903
 5317SOL     OW17724   9.186   3.640   6.727
 5317SOL    HW117725   9.223   3.638   6.639
 5317SOL    HW217726   9.208   3.554   6.764
 5318SOL     OW17727   0.970  11.546  10.860
 5318SOL    HW117728   0.942  11.627  10.901
 5318SOL    HW217729   1.034  11.509  10.921
 5319SOL     OW17730   1.233  12.757  13.769
 5319SOL    HW117731   1.225  12.777  13.862
 5319SOL    HW217732   1.228  12.661  13.764
 5320SOL     OW17733  10.485   8.225   1.958
 5320SOL    HW117734  10.414   8.177   1.915
 5320SOL    HW217735  10.478   8.200   2.050
 5321SOL     OW17736   9.334  12.033   8.571
 5321SOL    HW117737   9.364  12.093   8.503
 5321SOL    HW217738   9.266  11.981   8.529
 5322SOL     OW17739  13.241   5.502   8.497
 5322SOL    HW117740  13.205   5.552   8.424
 5322SOL    HW217741  13.221   5.554   8.574
 5323SOL     OW17742   8.259   0.804   3.237
 5323SOL    HW117743   8.322   0.798   3.309
 5323SOL    HW217744   8.302   0.760   3.163
 5324SOL     OW17745   4.330  13.885   0.474
 5324SOL    HW117746   4.240  13.899   0.444
 5324SOL    HW217747   4.356  13.969   0.512
 5325SOL     OW17748  13.144   9.316   9.979
 5325SOL    HW117749  13.107   9.368  10.050
 5325SOL    HW217750  13.155   9.228  10.015
 5326SOL     OW17751  10.888   3.940   2.392
 5326SOL    HW117752  10.962   3.998   2.411
 5326SOL    HW217753  10.915   3.854   2.424
 5327SOL     OW17754  13.328   5.531   6.753
 5327SOL    HW117755  13.418   5.508   6.730
 5327SOL    HW217756  13.277   5.512   6.675
 5328SOL     OW17757  12.642  12.462  13.599
 5328SOL    HW117758  12.637  12.494  13.508
 5328SOL    HW217759  12.611  12.536  13.651
 5329SOL     OW17760   0.152   5.547   0.350
 5329SOL    HW117761   0.171   5.462   0.312
 5329SOL    HW217762   0.126   5.602   0.276
 5330SOL     OW17763   8.133   9.166   7.528
 5330SOL    HW117764   8.168   9.153   7.616
 5330SOL    HW217765   8.192   9.231   7.488
 5331SOL     OW17766   9.998   6.028   6.863
 5331SOL    HW117767   9.953   6.111   6.850
 5331SOL    HW217768   9.964   5.996   6.947
 5332SOL     OW17769   8.378   5.533  10.479
 5332SOL    HW117770   8.391   5.521  10.574
 5332SOL    HW217771   8.338   5.451  10.450
 5333SOL     OW17772  14.606  11.951   4.985
 5333SOL    HW117773  14.685  11.906   5.017
 5333SOL    HW217774  14.635  12.041   4.970
 5334SOL     OW17775  11.641   4.361   1.072
 5334SOL    HW117776  11.594   4.343   1.153
 5334SOL    HW217777  11.636   4.280   1.022
 5335SOL     OW17778   0.197  10.445   4.578
 5335SOL    HW117779   0.165  10.516   4.523
 5335SOL    HW217780   0.118  10.401   4.609
 5336SOL     OW17781  11.605  14.699   1.884
 5336SOL    HW117782  11.670  14.662   1.945
 5336SOL    HW217783  11.594  14.632   1.817
 5337SOL     OW17784  11.307   8.490   4.953
 5337SOL    HW117785  11.258   8.561   4.910
 5337SOL    HW217786  11.392   8.490   4.910
 5338SOL     OW17787  12.822  12.780   7.708
 5338SOL    HW117788  12.810  12.686   7.695
 5338SOL    HW217789  12.916  12.791   7.715
 5339SOL     OW17790   5.978   5.106  13.875
 5339SOL    HW117791   5.992   5.015  13.902
 5339SOL    HW217792   6.066   5.145  13.874
 5340SOL     OW17793   5.844   1.160  10.081
 5340SOL    HW117794   5.836   1.089  10.017
 5340SOL    HW217795   5.867   1.115  10.163
 5341SOL     OW17796  11.526  12.280  14.258
 5341SOL    HW117797  11.490  12.191  14.255
 5341SOL    HW217798  11.450  12.336  14.240
 5342SOL     OW17799  13.374   9.434  11.999
 5342SOL    HW117800  13.416   9.350  11.982
 5342SOL    HW217801  13.284   9.411  12.023
 5343SOL     OW17802   4.546  14.209   8.568
 5343SOL    HW117803   4.630  14.253   8.554
 5343SOL    HW217804   4.506  14.207   8.481
 5344SOL     OW17805   0.259   6.641   9.170
 5344SOL    HW117806   0.243   6.734   9.154
 5344SOL    HW217807   0.270   6.604   9.082
 5345SOL     OW17808   1.916  10.559   1.442
 5345SOL    HW117809   1.906  10.464   1.452
 5345SOL    HW217810   1.998  10.569   1.394
 5346SOL     OW17811   4.123   2.752   9.569
 5346SOL    HW117812   4.180   2.675   9.573
 5346SOL    HW217813   4.174   2.821   9.612
 5347SOL     OW17814  13.499   5.941  12.833
 5347SOL    HW117815  13.594   5.956  12.833
 5347SOL    HW217816  13.477   5.932  12.926
 5348SOL     OW17817   4.586  12.850  12.118
 5348SOL    HW117818   4.603  12.932  12.071
 5348SOL    HW217819   4.582  12.784  12.049
 5349SOL     OW17820   3.386   2.663  10.747
 5349SOL    HW117821   3.401   2.650  10.653
 5349SOL    HW217822   3.404   2.578  10.786
 5350SOL     OW17823   4.771   5.576   7.608
 5350SOL    HW117824   4.862   5.589   7.636
 5350SOL    HW217825   4.772   5.491   7.565
 5351SOL     OW17826   8.257   6.450   3.547
 5351SOL    HW117827   8.306   6.514   3.495
 5351SOL    HW217828   8.325   6.405   3.598
 5352SOL     OW17829  11.256   7.699   7.017
 5352SOL    HW117830  11.162   7.687   6.999
 5352SOL    HW217831  11.288   7.748   6.942
 5353SOL     OW17832   0.625  13.273   4.202
 5353SOL    HW117833   0.649  13.339   4.267
 5353SOL    HW217834   0.532  13.289   4.186
 5354SOL     OW17835   1.194   8.906  14.254
 5354SOL    HW117836   1.265   8.915  14.191
 5354SOL    HW217837   1.139   8.983  14.239
 5355SOL     OW17838   8.372   3.995   1.774
 5355SOL    HW117839   8.293   3.946   1.749
 5355SOL    HW217840   8.349   4.036   1.857
 5356SOL     OW17841   5.216   5.456   4.625
 5356SOL    HW117842   5.227   5.366   4.658
 5356SOL    HW217843   5.276   5.461   4.551
 5357SOL     OW17844   0.808   3.695   9.608
 5357SOL    HW117845   0.749   3.620   9.618
 5357SOL    HW217846   0.784   3.733   9.524
 5358SOL     OW17847  10.540  10.921   3.411
 5358SOL    HW117848  10.456  10.952   3.445
 5358SOL    HW217849  10.540  10.827   3.430
 5359SOL     OW17850   1.838   2.793   1.109
 5359SOL    HW117851   1.855   2.795   1.015
 5359SOL    HW217852   1.877   2.874   1.142
 5360SOL     OW17853  12.453   3.623   6.221
 5360SOL    HW117854  12.427   3.646   6.310
 5360SOL    HW217855  12.371   3.609   6.175
 5361SOL     OW17856   2.826  14.426   9.432
 5361SOL    HW117857   2.878  14.407   9.353
 5361SOL    HW217858   2.748  14.471   9.399
 5362SOL     OW17859   6.651   8.424   7.191
 5362SOL    HW117860   6.736   8.434   7.235
 5362SOL    HW217861   6.670   8.370   7.114
 5363SOL     OW17862   5.117  13.311   2.733
 5363SOL    HW117863   5.049  13.293   2.797
 5363SOL    HW217864   5.193  13.262   2.765
 5364SOL     OW17865  10.413   6.567  12.880
 5364SOL    HW117866  10.475   6.554  12.951
 5364SOL    HW217867  10.331   6.530  12.912
 5365SOL     OW17868   9.979   5.201   8.948
 5365SOL    HW117869   9.901   5.225   8.898
 5365SOL    HW217870  10.032   5.151   8.887
 5366SOL     OW17871   2.349   3.121   3.244
 5366SOL    HW117872   2.440   3.152   3.244
 5366SOL    HW217873   2.335   3.090   3.333
 5367SOL     OW17874   4.490   5.441   4.977
 5367SOL    HW117875   4.446   5.367   4.935
 5367SOL    HW217876   4.433   5.463   5.051
 5368SOL     OW17877   7.784   0.367   0.488
 5368SOL    HW117878   7.736   0.321   0.556
 5368SOL    HW217879   7.718   0.389   0.422
 5369SOL     OW17880   6.410   9.311  12.719
 5369SOL    HW117881   6.333   9.346  12.675
 5369SOL    HW217882   6.395   9.216  12.721
 5370SOL     OW17883   5.838  11.619  10.633
 5370SOL    HW117884   5.905  11.636  10.566
 5370SOL    HW217885   5.780  11.555  10.592
 5371SOL     OW17886  11.635   2.979  10.470
 5371SOL    HW117887  11.600   3.066  10.449
 5371SOL    HW217888  11.677   2.949  10.390
 5372SOL     OW17889   3.030  11.428   7.348
 5372SOL    HW117890   2.992  11.393   7.429
 5372SOL    HW217891   3.120  11.396   7.349
 5373SOL     OW17892   9.483  10.338  12.684
 5373SOL    HW117893   9.523  10.381  12.759
 5373SOL    HW217894   9.547  10.274  12.655
 5374SOL     OW17895  11.085   8.544  14.353
 5374SOL    HW117896  11.145   8.517  14.422
 5374SOL    HW217897  11.085   8.640  14.357
 5375SOL     OW17898   5.758   3.874   8.213
 5375SOL    HW117899   5.767   3.968   8.225
 5375SOL    HW217900   5.718   3.864   8.127
 5376SOL     OW17901   8.347   1.150  11.082
 5376SOL    HW117902   8.344   1.089  11.009
 5376SOL    HW217903   8.305   1.104  11.154
 5377SOL     OW17904   6.254  11.832   1.171
 5377SOL    HW117905   6.159  11.839   1.182
 5377SOL    HW217906   6.280  11.916   1.132
 5378SOL     OW17907  11.741   6.563   2.492
 5378SOL    HW117908  11.834   6.549   2.478
 5378SOL    HW217909  11.698   6.513   2.422
 5379SOL     OW17910   0.419   4.691  10.072
 5379SOL    HW117911   0.459   4.634  10.006
 5379SOL    HW217912   0.407   4.634  10.148
 5380SOL     OW17913  12.356  13.602   5.523
 5380SOL    HW117914  12.402  13.664   5.467
 5380SOL    HW217915  12.386  13.516   5.495
 5381SOL     OW17916  13.750  13.702   4.050
 5381SOL    HW117917  13.716  13.788   4.024
 5381SOL    HW217918  13.724  13.643   3.980
 5382SOL     OW17919   0.632   4.514   4.141
 5382SOL    HW117920   0.621   4.590   4.084
 5382SOL    HW217921   0.555   4.459   4.123
 5383SOL     OW17922   1.192  12.419  12.616
 5383SOL    HW117923   1.265  12.478  12.597
 5383SOL    HW217924   1.129  12.435  12.545
 5384SOL     OW17925   5.039   3.685   2.496
 5384SOL    HW117926   4.968   3.697   2.433
 5384SOL    HW217927   4.995   3.666   2.579
 5385SOL     OW17928   2.914   0.047   5.724
 5385SOL    HW117929   2.869   0.014   5.802
 5385SOL    HW217930   2.979   0.109   5.758
 5386SOL     OW17931   1.481   8.415   6.522
 5386SOL    HW117932   1.455   8.441   6.434
 5386SOL    HW217933   1.557   8.469   6.542
 5387SOL     OW17934  12.278   4.496   0.402
 5387SOL    HW117935  12.325   4.445   0.336
 5387SOL    HW217936  12.298   4.587   0.382
 5388SOL     OW17937   3.388   3.431   2.837
 5388SOL    HW117938   3.429   3.455   2.753
 5388SOL    HW217939   3.308   3.386   2.812
 5389SOL     OW17940   0.857   4.759   3.512
 5389SOL    HW117941   0.906   4.824   3.564
 5389SOL    HW217942   0.779   4.806   3.484
 5390SOL     OW17943   5.098   5.382   1.643
 5390SOL    HW117944   5.086   5.308   1.583
 5390SOL    HW217945   5.027   5.373   1.707
 5391SOL     OW17946   0.116   0.857  13.614
 5391SOL    HW117947   0.115   0.824  13.704
 5391SOL    HW217948   0.159   0.942  13.621
 5392SOL     OW17949   3.179   8.127   3.151
 5392SOL    HW117950   3.170   8.048   3.097
 5392SOL    HW217951   3.236   8.184   3.100
 5393SOL     OW17952   6.875   2.199  11.920
 5393SOL    HW117953   6.781   2.180  11.923
 5393SOL    HW217954   6.881   2.280  11.869
 5394SOL     OW17955   4.029   1.981   0.227
 5394SOL    HW117956   3.956   2.008   0.283
 5394SOL    HW217957   4.061   2.062   0.188
 5395SOL     OW17958  11.797  11.883   8.793
 5395SOL    HW117959  11.719  11.899   8.740
 5395SOL    HW217960  11.763  11.873   8.882
 5396SOL     OW17961  12.745  11.905  13.148
 5396SOL    HW117962  12.657  11.907  13.186
 5396SOL    HW217963  12.783  11.990  13.169
 5397SOL     OW17964   9.599   2.393  13.723
 5397SOL    HW117965   9.628   2.318  13.671
 5397SOL    HW217966   9.576   2.357  13.808
 5398SOL     OW17967   5.260   3.213  14.784
 5398SOL    HW117968   5.292   3.210  14.694
 5398SOL    HW217969   5.178   3.262  14.778
 5399SOL     OW17970   7.216   6.629   7.489
 5399SOL    HW117971   7.239   6.689   7.418
 5399SOL    HW217972   7.293   6.626   7.545
 5400SOL     OW17973   9.307  11.940   0.773
 5400SOL    HW117974   9.320  11.845   0.764
 5400SOL    HW217975   9.386  11.971   0.818
 5401SOL     OW17976   7.055  14.086  12.787
 5401SOL    HW117977   7.100  14.008  12.820
 5401SOL    HW217978   7.032  14.065  12.697
 5402SOL     OW17979   3.318   5.105  14.388
 5402SOL    HW117980   3.375   5.123  14.463
 5402SOL    HW217981   3.372   5.051  14.330
 5403SOL     OW17982   5.955  14.237   0.648
 5403SOL    HW117983   5.972  14.330   0.663
 5403SOL    HW217984   6.040  14.194   0.660
 5404SOL     OW17985   7.338   6.011   5.846
 5404SOL    HW117986   7.338   5.993   5.751
 5404SOL    HW217987   7.430   6.016   5.870
 5405SOL     OW17988   1.566   7.519   0.995
 5405SOL    HW117989   1.615   7.559   0.923
 5405SOL    HW217990   1.609   7.435   1.009
 5406SOL     OW17991   2.283  14.030   8.904
 5406SOL    HW117992   2.232  14.003   8.980
 5406SOL    HW217993   2.295  14.124   8.915
 5407SOL     OW17994   7.570  10.561   5.799
 5407SOL    HW117995   7.493  10.520   5.761
 5407SOL    HW217996   7.643  10.503   5.774
 5408SOL     OW17997  10.851   9.620   0.802
 5408SOL    HW117998  10.868   9.640   0.894
 5408SOL    HW217999  10.765   9.658   0.785
 5409SOL     OW18000   3.990  13.545   6.064
 5409SOL    HW118001   3.978  13.450   6.067
 5409SOL    HW218002   3.902  13.581   6.060
 5410SOL     OW18003   0.988   0.046   9.378
 5410SOL    HW118004   1.009   0.082   9.292
 5410SOL    HW218005   1.008   0.117   9.439
 5411SOL     OW18006   9.411  11.848   0.219
 5411SOL    HW118007   9.347  11.894   0.273
 5411SOL    HW218008   9.410  11.894   0.135
 5412SOL     OW18009   0.477   7.122  10.642
 5412SOL    HW118010   0.566   7.126  10.676
 5412SOL    HW218011   0.481   7.056  10.572
 5413SOL     OW18012  14.282   2.407  13.509
 5413SOL    HW118013  14.233   2.399  13.591
 5413SOL    HW218014  14.349   2.473  13.528
 5414SOL     OW18015   8.187   3.464   3.551
 5414SOL    HW118016   8.109   3.475   3.606
 5414SOL    HW218017   8.248   3.416   3.606
 5415SOL     OW18018  10.201  13.188   0.837
 5415SOL    HW118019  10.217  13.266   0.891
 5415SOL    HW218020  10.265  13.124   0.868
 5416SOL     OW18021  14.352  14.460  11.237
 5416SOL    HW118022  14.431  14.464  11.184
 5416SOL    HW218023  14.281  14.450  11.174
 5417SOL     OW18024   2.442   2.566   7.896
 5417SOL    HW118025   2.511   2.519   7.850
 5417SOL    HW218026   2.402   2.500   7.953
 5418SOL     OW18027   4.940  13.579  14.639
 5418SOL    HW118028   4.979  13.642  14.698
 5418SOL    HW218029   4.955  13.615  14.551
 5419SOL     OW18030   5.839   1.043   9.332
 5419SOL    HW118031   5.830   1.136   9.353
 5419SOL    HW218032   5.761   1.022   9.282
 5420SOL     OW18033  14.461   3.882   1.669
 5420SOL    HW118034  14.541   3.881   1.722
 5420SOL    HW218035  14.492   3.863   1.580
 5421SOL     OW18036   4.915  13.300   8.644
 5421SOL    HW118037   4.957  13.215   8.659
 5421SOL    HW218038   4.915  13.311   8.549
 5422SOL     OW18039   2.639  14.191   0.959
 5422SOL    HW118040   2.682  14.106   0.971
 5422SOL    HW218041   2.696  14.237   0.897
 5423SOL     OW18042   6.364  10.555   3.603
 5423SOL    HW118043   6.433  10.523   3.660
 5423SOL    HW218044   6.391  10.528   3.515
 5424SOL     OW18045   8.319   7.022   7.843
 5424SOL    HW118046   8.233   6.987   7.818
 5424SOL    HW218047   8.300   7.085   7.913
 5425SOL     OW18048   9.232   5.795  14.129
 5425SOL    HW118049   9.267   5.807  14.040
 5425SOL    HW218050   9.204   5.704  14.132
 5426SOL     OW18051   8.307  10.943  11.830
 5426SOL    HW118052   8.308  11.023  11.777
 5426SOL    HW218053   8.231  10.895  11.798
 5427SOL     OW18054  13.724  11.327  13.508
 5427SOL    HW118055  13.692  11.380  13.435
 5427SOL    HW218056  13.787  11.383  13.553
 5428SOL     OW18057  14.662  10.141   8.781
 5428SOL    HW118058  14.651  10.208   8.715
 5428SOL    HW218059  14.575  10.102   8.790
 5429SOL     OW18060  11.374   7.599   0.306
 5429SOL    HW118061  11.331   7.547   0.238
 5429SOL    HW218062  11.413   7.534   0.364
 5430SOL     OW18063   6.979  10.992  12.154
 5430SOL    HW118064   6.949  10.905  12.129
 5430SOL    HW218065   7.023  10.978  12.238
 5431SOL     OW18066   8.494   1.468   0.480
 5431SOL    HW118067   8.425   1.426   0.531
 5431SOL    HW218068   8.555   1.502   0.545
 5432SOL     OW18069  12.363   0.287   1.022
 5432SOL    HW118070  12.294   0.222   1.010
 5432SOL    HW218071  12.320   0.371   1.007
 5433SOL     OW18072   1.036   4.489  14.762
 5433SOL    HW118073   0.982   4.444  14.696
 5433SOL    HW218074   1.042   4.426  14.834
 5434SOL     OW18075   7.801   4.392   5.453
 5434SOL    HW118076   7.725   4.337   5.470
 5434SOL    HW218077   7.864   4.334   5.411
 5435SOL     OW18078   5.094  10.410  14.558
 5435SOL    HW118079   5.114  10.342  14.622
 5435SOL    HW218080   5.157  10.395  14.487
 5436SOL     OW18081   9.417   7.866   0.969
 5436SOL    HW118082   9.501   7.842   1.009
 5436SOL    HW218083   9.441   7.907   0.886
 5437SOL     OW18084   7.701   9.893  10.251
 5437SOL    HW118085   7.784   9.891  10.202
 5437SOL    HW218086   7.633   9.882  10.185
 5438SOL     OW18087  11.448   4.106   3.001
 5438SOL    HW118088  11.523   4.046   3.001
 5438SOL    HW218089  11.483   4.188   2.966
 5439SOL     OW18090   2.147   9.647   5.868
 5439SOL    HW118091   2.210   9.700   5.917
 5439SOL    HW218092   2.080   9.623   5.932
 5440SOL     OW18093  12.607  11.992   6.564
 5440SOL    HW118094  12.528  12.041   6.584
 5440SOL    HW218095  12.674  12.058   6.548
 5441SOL     OW18096  11.257  14.172   8.657
 5441SOL    HW118097  11.316  14.247   8.653
 5441SOL    HW218098  11.261  14.134   8.569
 5442SOL     OW18099   9.282  12.851   5.949
 5442SOL    HW118100   9.363  12.899   5.967
 5442SOL    HW218101   9.269  12.797   6.027
 5443SOL     OW18102   2.213   8.296  10.467
 5443SOL    HW118103   2.301   8.259  10.459
 5443SOL    HW218104   2.180   8.262  10.549
 5444SOL     OW18105  11.287  14.062  10.016
 5444SOL    HW118106  11.301  13.994  10.082
 5444SOL    HW218107  11.346  14.038   9.945
 5445SOL     OW18108   3.148   3.868   4.324
 5445SOL    HW118109   3.189   3.808   4.387
 5445SOL    HW218110   3.135   3.949   4.372
 5446SOL     OW18111  11.909   7.335   2.373
 5446SOL    HW118112  11.819   7.367   2.379
 5446SOL    HW218113  11.900   7.239   2.372
 5447SOL     OW18114   2.615   8.853   7.781
 5447SOL    HW118115   2.701   8.895   7.775
 5447SOL    HW218116   2.568   8.884   7.704
 5448SOL     OW18117   8.199   6.594   6.069
 5448SOL    HW118118   8.108   6.624   6.074
 5448SOL    HW218119   8.238   6.624   6.151
 5449SOL     OW18120   5.770   4.668   4.049
 5449SOL    HW118121   5.858   4.707   4.042
 5449SOL    HW218122   5.713   4.730   4.004
 5450SOL     OW18123   8.993   5.387  10.673
 5450SOL    HW118124   8.910   5.380  10.626
 5450SOL    HW218125   8.992   5.313  10.734
 5451SOL     OW18126   0.584  10.435   4.883
 5451SOL    HW118127   0.663  10.487   4.871
 5451SOL    HW218128   0.545  10.431   4.796
 5452SOL     OW18129   6.319   8.620   6.316
 5452SOL    HW118130   6.330   8.526   6.299
 5452SOL    HW218131   6.398   8.660   6.280
 5453SOL     OW18132   2.478  12.660  11.419
 5453SOL    HW118133   2.396  12.701  11.445
 5453SOL    HW218134   2.546  12.708  11.466
 5454SOL     OW18135   9.332   4.531  10.840
 5454SOL    HW118136   9.294   4.487  10.916
 5454SOL    HW218137   9.259   4.578  10.800
 5455SOL     OW18138  10.646  12.282   1.587
 5455SOL    HW118139  10.556  12.252   1.602
 5455SOL    HW218140  10.637  12.345   1.515
 5456SOL     OW18141   2.654  12.715   2.118
 5456SOL    HW118142   2.564  12.737   2.142
 5456SOL    HW218143   2.645  12.640   2.058
 5457SOL     OW18144  11.313   0.577   4.238
 5457SOL    HW118145  11.387   0.638   4.240
 5457SOL    HW218146  11.240   0.626   4.275
 5458SOL     OW18147   9.013   4.394   9.036
 5458SOL    HW118148   8.964   4.371   8.956
 5458SOL    HW218149   9.084   4.450   9.005
 5459SOL     OW18150   2.819   2.668   4.677
 5459SOL    HW118151   2.764   2.613   4.734
 5459SOL    HW218152   2.765   2.745   4.659
 5460SOL     OW18153   0.973   7.479   4.828
 5460SOL    HW118154   0.923   7.556   4.802
 5460SOL    HW218155   0.957   7.470   4.922
 5461SOL     OW18156  10.833   8.112   7.042
 5461SOL    HW118157  10.853   8.019   7.031
 5461SOL    HW218158  10.738   8.117   7.031
 5462SOL     OW18159   8.770  12.900   8.877
 5462SOL    HW118160   8.695  12.890   8.819
 5462SOL    HW218161   8.817  12.817   8.870
 5463SOL     OW18162  10.678   6.204   7.180
 5463SOL    HW118163  10.586   6.175   7.178
 5463SOL    HW218164  10.699   6.209   7.274
 5464SOL     OW18165   4.364  11.510   3.340
 5464SOL    HW118166   4.396  11.448   3.275
 5464SOL    HW218167   4.413  11.488   3.420
 5465SOL     OW18168   0.585  10.436   1.759
 5465SOL    HW118169   0.539  10.519   1.774
 5465SOL    HW218170   0.517  10.375   1.732
 5466SOL     OW18171  13.248  12.233  10.924
 5466SOL    HW118172  13.239  12.167  10.992
 5466SOL    HW218173  13.189  12.204  10.854
 5467SOL     OW18174   6.070   1.973   6.968
 5467SOL    HW118175   5.996   2.008   6.917
 5467SOL    HW218176   6.113   2.051   7.003
 5468SOL     OW18177  12.146   6.596   7.303
 5468SOL    HW118178  12.100   6.530   7.355
 5468SOL    HW218179  12.238   6.570   7.307
 5469SOL     OW18180  12.823  11.594   7.324
 5469SOL    HW118181  12.753  11.623   7.382
 5469SOL    HW218182  12.784  11.595   7.237
 5470SOL     OW18183   8.157   2.568   3.063
 5470SOL    HW118184   8.079   2.561   3.118
 5470SOL    HW218185   8.226   2.596   3.122
 5471SOL     OW18186   1.776   6.252   3.789
 5471SOL    HW118187   1.868   6.232   3.769
 5471SOL    HW218188   1.752   6.318   3.724
 5472SOL     OW18189   3.018   9.182   7.987
 5472SOL    HW118190   2.993   9.274   7.982
 5472SOL    HW218191   3.092   9.173   7.926
 5473SOL     OW18192  11.556   9.326   9.763
 5473SOL    HW118193  11.562   9.310   9.857
 5473SOL    HW218194  11.635   9.286   9.727
 5474SOL     OW18195   2.165   9.516  10.920
 5474SOL    HW118196   2.150   9.570  10.843
 5474SOL    HW218197   2.182   9.429  10.886
 5475SOL     OW18198  11.287  13.341  11.501
 5475SOL    HW118199  11.374  13.357  11.464
 5475SOL    HW218200  11.295  13.259  11.548
 5476SOL     OW18201   7.473  11.331   3.662
 5476SOL    HW118202   7.428  11.410   3.692
 5476SOL    HW218203   7.466  11.334   3.567
 5477SOL     OW18204   6.143   5.500  11.624
 5477SOL    HW118205   6.134   5.405  11.619
 5477SOL    HW218206   6.237   5.515  11.631
 5478SOL     OW18207   2.211   3.362  12.378
 5478SOL    HW118208   2.193   3.430  12.313
 5478SOL    HW218209   2.131   3.309  12.380
 5479SOL     OW18210  14.352   9.852  12.554
 5479SOL    HW118211  14.274   9.903  12.574
 5479SOL    HW218212  14.390   9.894  12.477
 5480SOL     OW18213  14.095   4.082  10.216
 5480SOL    HW118214  14.163   4.127  10.166
 5480SOL    HW218215  14.048   4.030  10.151
 5481SOL     OW18216  11.810   4.677  12.559
 5481SOL    HW118217  11.773   4.659  12.645
 5481SOL    HW218218  11.897   4.638  12.561
 5482SOL     OW18219   3.246   1.054  14.616
 5482SOL    HW118220   3.311   1.111  14.573
 5482SOL    HW218221   3.168   1.061  14.561
 5483SOL     OW18222   6.957  12.248   5.871
 5483SOL    HW118223   6.894  12.246   5.944
 5483SOL    HW218224   6.960  12.157   5.841
 5484SOL     OW18225  10.444   9.177   1.667
 5484SOL    HW118226  10.460   9.087   1.696
 5484SOL    HW218227  10.501   9.187   1.590
 5485SOL     OW18228  10.208  14.117   7.791
 5485SOL    HW118229  10.174  14.098   7.879
 5485SOL    HW218230  10.211  14.031   7.748
 5486SOL     OW18231   8.633  12.898   7.332
 5486SOL    HW118232   8.665  12.823   7.382
 5486SOL    HW218233   8.563  12.935   7.387
 5487SOL     OW18234   7.149  10.044   7.641
 5487SOL    HW118235   7.186  10.078   7.723
 5487SOL    HW218236   7.223  10.004   7.596
 5488SOL     OW18237   1.473  11.449   7.773
 5488SOL    HW118238   1.529  11.509   7.723
 5488SOL    HW218239   1.387  11.490   7.772
 5489SOL     OW18240  11.279   2.472   6.357
 5489SOL    HW118241  11.360   2.455   6.407
 5489SOL    HW218242  11.239   2.386   6.347
 5490SOL     OW18243   4.798   9.516   0.090
 5490SOL    HW118244   4.743   9.474   0.156
 5490SOL    HW218245   4.737   9.564   0.035
 5491SOL     OW18246   6.846  10.264   5.389
 5491SOL    HW118247   6.879  10.352   5.374
 5491SOL    HW218248   6.821  10.233   5.302
 5492SOL     OW18249   8.159   8.301  14.056
 5492SOL    HW118250   8.071   8.337  14.067
 5492SOL    HW218251   8.176   8.256  14.139
 5493SOL     OW18252  10.821   5.969  11.164
 5493SOL    HW118253  10.737   5.924  11.175
 5493SOL    HW218254  10.818   6.040  11.227
 5494SOL     OW18255   9.496   0.346  12.569
 5494SOL    HW118256   9.440   0.290  12.623
 5494SOL    HW218257   9.447   0.359  12.488
 5495SOL     OW18258   7.462   6.375  11.242
 5495SOL    HW118259   7.436   6.467  11.241
 5495SOL    HW218260   7.380   6.327  11.250
 5496SOL     OW18261   7.916   8.462   3.606
 5496SOL    HW118262   7.892   8.539   3.656
 5496SOL    HW218263   8.009   8.448   3.625
 5497SOL     OW18264   6.503   4.068  10.521
 5497SOL    HW118265   6.543   4.046  10.437
 5497SOL    HW218266   6.421   4.112  10.498
 5498SOL     OW18267  14.742   6.907   9.899
 5498SOL    HW118268  14.699   6.993   9.893
 5498SOL    HW218269  14.745   6.889   9.993
 5499SOL     OW18270  10.307   8.384  11.381
 5499SOL    HW118271  10.354   8.345  11.455
 5499SOL    HW218272  10.258   8.311  11.343
 5500SOL     OW18273  10.745   6.467  13.706
 5500SOL    HW118274  10.765   6.380  13.672
 5500SOL    HW218275  10.801   6.476  13.783
 5501SOL     OW18276  11.861   0.143   6.841
 5501SOL    HW118277  11.821   0.190   6.914
 5501SOL    HW218278  11.907   0.211   6.792
 5502SOL     OW18279   0.862  14.718   1.886
 5502SOL    HW118280   0.811  14.649   1.929
 5502SOL    HW218281   0.901  14.768   1.958
 5503SOL     OW18282   2.854  14.519   5.838
 5503SOL    HW118283   2.768  14.535   5.799
 5503SOL    HW218284   2.916  14.558   5.777
 5504SOL     OW18285   0.299  14.036   6.031
 5504SOL    HW118286   0.389  14.070   6.035
 5504SOL    HW218287   0.310  13.941   6.028
 5505SOL     OW18288   3.818   3.638   8.709
 5505SOL    HW118289   3.909   3.624   8.737
 5505SOL    HW218290   3.771   3.560   8.740
 5506SOL     OW18291   8.535  13.310   9.924
 5506SOL    HW118292   8.482  13.384   9.895
 5506SOL    HW218293   8.610  13.350   9.967
 5507SOL     OW18294   8.036   5.229   1.715
 5507SOL    HW118295   7.980   5.304   1.696
 5507SOL    HW218296   8.105   5.264   1.771
 5508SOL     OW18297  13.121  13.503   6.621
 5508SOL    HW118298  13.191  13.555   6.661
 5508SOL    HW218299  13.166  13.449   6.556
 5509SOL     OW18300   7.440   0.125  10.198
 5509SOL    HW118301   7.406   0.042  10.167
 5509SOL    HW218302   7.507   0.150  10.135
 5510SOL     OW18303   9.497   8.381   0.827
 5510SOL    HW118304   9.451   8.319   0.771
 5510SOL    HW218305   9.429   8.441   0.858
 5511SOL     OW18306   2.947  14.358  14.279
 5511SOL    HW118307   2.972  14.268  14.299
 5511SOL    HW218308   2.864  14.371  14.325
 5512SOL     OW18309   1.370   0.953  10.519
 5512SOL    HW118310   1.368   0.917  10.608
 5512SOL    HW218311   1.397   0.880  10.464
 5513SOL     OW18312  13.220  12.004  11.129
 5513SOL    HW118313  13.168  11.943  11.076
 5513SOL    HW218314  13.304  11.960  11.139
 5514SOL     OW18315  13.191   0.067  10.333
 5514SOL    HW118316  13.280   0.086  10.304
 5514SOL    HW218317  13.170   0.137  10.394
 5515SOL     OW18318   4.291   9.393  11.303
 5515SOL    HW118319   4.253   9.309  11.329
 5515SOL    HW218320   4.215   9.451  11.294
 5516SOL     OW18321   5.124   3.953   9.834
 5516SOL    HW118322   5.188   3.948   9.905
 5516SOL    HW218323   5.175   3.978   9.757
 5517SOL     OW18324   5.250   7.699   8.265
 5517SOL    HW118325   5.283   7.611   8.247
 5517SOL    HW218326   5.270   7.713   8.358
 5518SOL     OW18327   1.417   8.082   8.506
 5518SOL    HW118328   1.457   8.137   8.438
 5518SOL    HW218329   1.334   8.125   8.526
 5519SOL     OW18330  11.716   1.161   8.990
 5519SOL    HW118331  11.693   1.252   9.006
 5519SOL    HW218332  11.771   1.163   8.912
 5520SOL     OW18333   5.470   1.802  10.639
 5520SOL    HW118334   5.420   1.826  10.561
 5520SOL    HW218335   5.553   1.849  10.631
 5521SOL     OW18336   4.789  14.292   4.056
 5521SOL    HW118337   4.758  14.287   4.146
 5521SOL    HW218338   4.880  14.318   4.063
 5522SOL     OW18339  11.880  10.727   5.796
 5522SOL    HW118340  11.906  10.819   5.796
 5522SOL    HW218341  11.786  10.729   5.818
 5523SOL     OW18342   5.503   3.578   8.365
 5523SOL    HW118343   5.460   3.542   8.287
 5523SOL    HW218344   5.596   3.576   8.343
 5524SOL     OW18345   6.289   5.006  14.007
 5524SOL    HW118346   6.372   4.959  14.009
 5524SOL    HW218347   6.275   5.033  14.097
 5525SOL     OW18348   0.291  11.411   0.565
 5525SOL    HW118349   0.259  11.341   0.508
 5525SOL    HW218350   0.329  11.365   0.640
 5526SOL     OW18351  10.164   4.728  12.432
 5526SOL    HW118352  10.143   4.639  12.406
 5526SOL    HW218353  10.159   4.779  12.352
 5527SOL     OW18354  12.299   3.486   9.903
 5527SOL    HW118355  12.288   3.394   9.926
 5527SOL    HW218356  12.321   3.485   9.809
 5528SOL     OW18357   0.038   1.577   7.255
 5528SOL    HW118358  14.852   1.635   7.213
 5528SOL    HW218359   0.096   1.550   7.184
 5529SOL     OW18360   0.176   6.515  11.830
 5529SOL    HW118361   0.154   6.557  11.913
 5529SOL    HW218362   0.156   6.422  11.844
 5530SOL     OW18363   6.433  11.051  14.141
 5530SOL    HW118364   6.485  10.973  14.155
 5530SOL    HW218365   6.462  11.112  14.208
 5531SOL     OW18366   6.079  14.467  10.473
 5531SOL    HW118367   6.064  14.395  10.411
 5531SOL    HW218368   6.171  14.489  10.463
 5532SOL     OW18369   1.107   7.551  12.046
 5532SOL    HW118370   1.026   7.599  12.066
 5532SOL    HW218371   1.135   7.514  12.130
 5533SOL     OW18372   9.000   4.006   7.058
 5533SOL    HW118373   8.921   3.969   7.017
 5533SOL    HW218374   9.072   3.955   7.022
 5534SOL     OW18375  10.822   5.982  11.530
 5534SOL    HW118376  10.751   5.918  11.536
 5534SOL    HW218377  10.778   6.067  11.531
 5535SOL     OW18378  12.290  13.288   2.684
 5535SOL    HW118379  12.298  13.193   2.699
 5535SOL    HW218380  12.355  13.326   2.743
 5536SOL     OW18381  10.570   9.505  14.711
 5536SOL    HW118382  10.511   9.434  14.685
 5536SOL    HW218383  10.524   9.550  14.782
 5537SOL     OW18384   8.337   1.006  13.028
 5537SOL    HW118385   8.314   0.915  13.011
 5537SOL    HW218386   8.284   1.031  13.104
 5538SOL     OW18387   2.145   6.598   4.085
 5538SOL    HW118388   2.119   6.617   3.995
 5538SOL    HW218389   2.115   6.508   4.100
 5539SOL     OW18390   9.258   3.184   8.050
 5539SOL    HW118391   9.296   3.161   7.965
 5539SOL    HW218392   9.332   3.180   8.111
 5540SOL     OW18393   2.837   8.921   7.333
 5540SOL    HW118394   2.827   8.863   7.409
 5540SOL    HW218395   2.914   8.888   7.287
 5541SOL     OW18396   1.446   4.156   5.230
 5541SOL    HW118397   1.376   4.116   5.179
 5541SOL    HW218398   1.525   4.140   5.179
 5542SOL     OW18399  12.175   6.118   8.875
 5542SOL    HW118400  12.130   6.164   8.946
 5542SOL    HW218401  12.105   6.072   8.828
 5543SOL     OW18402   8.520   5.829   6.409
 5543SOL    HW118403   8.552   5.874   6.330
 5543SOL    HW218404   8.592   5.772   6.435
 5544SOL     OW18405  13.980   4.398   2.631
 5544SOL    HW118406  13.891   4.383   2.601
 5544SOL    HW218407  13.977   4.485   2.672
 5545SOL     OW18408   9.760  13.340  12.999
 5545SOL    HW118409   9.792  13.276  13.062
 5545SOL    HW218410   9.668  13.317  12.986
 5546SOL     OW18411   6.680   6.252   3.120
 5546SOL    HW118412   6.698   6.274   3.029
 5546SOL    HW218413   6.714   6.163   3.129
 5547SOL     OW18414   1.914  13.184   9.215
 5547SOL    HW118415   1.827  13.216   9.241
 5547SOL    HW218416   1.896  13.114   9.153
 5548SOL     OW18417   4.820   5.908   0.559
 5548SOL    HW118418   4.736   5.863   0.554
 5548SOL    HW218419   4.799   5.996   0.591
 5549SOL     OW18420   1.493   8.858  11.439
 5549SOL    HW118421   1.406   8.895  11.423
 5549SOL    HW218422   1.553   8.931  11.426
 5550SOL     OW18423  10.899  13.230   1.635
 5550SOL    HW118424  10.858  13.273   1.560
 5550SOL    HW218425  10.831  13.174   1.671
 5551SOL     OW18426   1.639   7.341   9.107
 5551SOL    HW118427   1.639   7.429   9.069
 5551SOL    HW218428   1.611   7.354   9.197
 5552SOL     OW18429   0.447  10.208   1.323
 5552SOL    HW118430   0.475  10.180   1.410
 5552SOL    HW218431   0.460  10.303   1.323
 5553SOL     OW18432   9.397  13.732  12.083
 5553SOL    HW118433   9.468  13.766  12.137
 5553SOL    HW218434   9.387  13.797  12.013
 5554SOL     OW18435   7.370  14.047   6.093
 5554SOL    HW118436   7.350  14.131   6.051
 5554SOL    HW218437   7.292  13.993   6.078
 5555SOL     OW18438   4.714   4.462   8.557
 5555SOL    HW118439   4.777   4.520   8.599
 5555SOL    HW218440   4.749   4.448   8.469
 5556SOL     OW18441   4.519   0.176   9.862
 5556SOL    HW118442   4.580   0.103   9.849
 5556SOL    HW218443   4.433   0.134   9.872
 5557SOL     OW18444  11.752   8.258   3.608
 5557SOL    HW118445  11.753   8.226   3.698
 5557SOL    HW218446  11.759   8.353   3.616
 5558SOL     OW18447  13.485  10.982  13.079
 5558SOL    HW118448  13.515  11.069  13.106
 5558SOL    HW218449  13.552  10.953  13.017
 5559SOL     OW18450   0.073  11.313  13.387
 5559SOL    HW118451   0.079  11.224  13.353
 5559SOL    HW218452   0.030  11.363  13.318
 5560SOL     OW18453   6.567   5.711   2.595
 5560SOL    HW118454   6.534   5.657   2.667
 5560SOL    HW218455   6.488   5.750   2.556
 5561SOL     OW18456   7.172   0.075   1.372
 5561SOL    HW118457   7.145   0.140   1.306
 5561SOL    HW218458   7.090   0.046   1.411
 5562SOL     OW18459   1.149   8.388   7.225
 5562SOL    HW118460   1.211   8.447   7.268
 5562SOL    HW218461   1.102   8.346   7.297
 5563SOL     OW18462  12.466   8.344   4.449
 5563SOL    HW118463  12.533   8.376   4.510
 5563SOL    HW218464  12.487   8.388   4.366
 5564SOL     OW18465  13.394  11.427  14.737
 5564SOL    HW118466  13.438  11.462  14.659
 5564SOL    HW218467  13.463  11.422  14.803
 5565SOL     OW18468  12.011   9.126   9.411
 5565SOL    HW118469  11.997   9.135   9.317
 5565SOL    HW218470  12.061   9.046   9.421
 5566SOL     OW18471  12.695  12.615   7.053
 5566SOL    HW118472  12.747  12.601   7.133
 5566SOL    HW218473  12.675  12.709   7.054
 5567SOL     OW18474   6.223   2.463  11.420
 5567SOL    HW118475   6.132   2.468  11.452
 5567SOL    HW218476   6.273   2.436  11.496
 5568SOL     OW18477   4.416   3.718  11.844
 5568SOL    HW118478   4.340   3.670  11.879
 5568SOL    HW218479   4.422   3.796  11.899
 5569SOL     OW18480   7.058   2.243   8.382
 5569SOL    HW118481   7.050   2.287   8.466
 5569SOL    HW218482   6.969   2.214   8.362
 5570SOL     OW18483  11.323   6.998   7.411
 5570SOL    HW118484  11.379   7.033   7.481
 5570SOL    HW218485  11.360   7.034   7.330
 5571SOL     OW18486   2.902   5.954  11.634
 5571SOL    HW118487   2.996   5.971  11.644
 5571SOL    HW218488   2.892   5.861  11.657
 5572SOL     OW18489   3.373   7.894   9.868
 5572SOL    HW118490   3.305   7.959   9.886
 5572SOL    HW218491   3.427   7.934   9.799
 5573SOL     OW18492   5.286   8.615   5.339
 5573SOL    HW118493   5.282   8.557   5.415
 5573SOL    HW218494   5.334   8.692   5.370
 5574SOL     OW18495   2.909   4.315   2.309
 5574SOL    HW118496   2.968   4.340   2.380
 5574SOL    HW218497   2.857   4.394   2.292
 5575SOL     OW18498   4.627   1.424   3.633
 5575SOL    HW118499   4.680   1.467   3.700
 5575SOL    HW218500   4.545   1.474   3.633
 5576SOL     OW18501   4.791   5.603  12.920
 5576SOL    HW118502   4.818   5.685  12.962
 5576SOL    HW218503   4.856   5.539  12.949
 5577SOL     OW18504   9.683   3.016   4.125
 5577SOL    HW118505   9.606   3.018   4.069
 5577SOL    HW218506   9.757   3.025   4.065
 5578SOL     OW18507   1.292   7.010  13.742
 5578SOL    HW118508   1.205   6.991  13.707
 5578SOL    HW218509   1.296   7.105  13.747
 5579SOL     OW18510  13.767   0.094  14.109
 5579SOL    HW118511  13.742   0.006  14.136
 5579SOL    HW218512  13.807   0.133  14.187
 5580SOL     OW18513  14.666  13.529   4.563
 5580SOL    HW118514  14.636  13.564   4.479
 5580SOL    HW218515  14.736  13.468   4.540
 5581SOL     OW18516  13.047  14.612   6.913
 5581SOL    HW118517  12.955  14.615   6.885
 5581SOL    HW218518  13.095  14.587   6.834
 5582SOL     OW18519  13.395   2.058   5.993
 5582SOL    HW118520  13.440   2.073   5.910
 5582SOL    HW218521  13.313   2.014   5.969
 5583SOL     OW18522  12.225   3.416   5.181
 5583SOL    HW118523  12.230   3.353   5.110
 5583SOL    HW218524  12.150   3.387   5.234
 5584SOL     OW18525   8.572   1.460   9.712
 5584SOL    HW118526   8.485   1.453   9.751
 5584SOL    HW218527   8.625   1.503   9.779
 5585SOL     OW18528  14.135  11.936  11.166
 5585SOL    HW118529  14.076  11.896  11.230
 5585SOL    HW218530  14.194  11.990  11.219
 5586SOL     OW18531   8.729   3.561   7.377
 5586SOL    HW118532   8.750   3.480   7.330
 5586SOL    HW218533   8.791   3.563   7.450
 5587SOL     OW18534   6.963   7.512  12.649
 5587SOL    HW118535   6.946   7.490  12.740
 5587SOL    HW218536   6.950   7.607  12.644
 5588SOL     OW18537   2.689   2.858  13.470
 5588SOL    HW118538   2.631   2.790  13.437
 5588SOL    HW218539   2.673   2.934  13.414
 5589SOL     OW18540   8.957  14.469   7.872
 5589SOL    HW118541   9.048  14.452   7.848
 5589SOL    HW218542   8.959  14.556   7.912
 5590SOL     OW18543   4.434   4.329  13.180
 5590SOL    HW118544   4.528   4.342  13.167
 5590SOL    HW218545   4.392   4.394  13.123
 5591SOL     OW18546   7.771   0.802   2.801
 5591SOL    HW118547   7.677   0.816   2.799
 5591SOL    HW218548   7.781   0.707   2.810
 5592SOL     OW18549  14.728  14.497   4.163
 5592SOL    HW118550  14.814  14.501   4.121
 5592SOL    HW218551  14.724  14.575   4.218
 5593SOL     OW18552   6.345  10.795   1.603
 5593SOL    HW118553   6.428  10.841   1.613
 5593SOL    HW218554   6.369  10.704   1.587
 5594SOL     OW18555  14.696  10.953   8.788
 5594SOL    HW118556  14.614  11.002   8.798
 5594SOL    HW218557  14.710  10.913   8.873
 5595SOL     OW18558  11.470   7.237   6.663
 5595SOL    HW118559  11.404   7.262   6.598
 5595SOL    HW218560  11.548   7.217   6.611
 5596SOL     OW18561   4.418   6.627  11.725
 5596SOL    HW118562   4.489   6.685  11.750
 5596SOL    HW218563   4.372   6.673  11.655
 5597SOL     OW18564   0.281  14.366  11.344
 5597SOL    HW118565   0.301  14.302  11.412
 5597SOL    HW218566   0.298  14.320  11.262
 5598SOL     OW18567  11.734   9.579   3.218
 5598SOL    HW118568  11.699   9.490   3.216
 5598SOL    HW218569  11.700   9.621   3.139
 5599SOL     OW18570   3.483   1.892   4.274
 5599SOL    HW118571   3.423   1.833   4.230
 5599SOL    HW218572   3.448   1.899   4.363
 5600SOL     OW18573   6.245  12.420   6.280
 5600SOL    HW118574   6.312  12.489   6.280
 5600SOL    HW218575   6.251  12.381   6.368
 5601SOL     OW18576   0.715   7.903   8.622
 5601SOL    HW118577   0.667   7.856   8.690
 5601SOL    HW218578   0.686   7.861   8.540
 5602SOL     OW18579   0.889  14.209   7.705
 5602SOL    HW118580   0.888  14.252   7.620
 5602SOL    HW218581   0.909  14.117   7.687
 5603SOL     OW18582   5.395   3.643   8.865
 5603SOL    HW118583   5.359   3.558   8.838
 5603SOL    HW218584   5.448   3.671   8.789
 5604SOL     OW18585  13.013  11.891   1.168
 5604SOL    HW118586  13.036  11.946   1.093
 5604SOL    HW218587  13.095  11.849   1.193
 5605SOL     OW18588   4.178   7.596   0.045
 5605SOL    HW118589   4.115   7.544   0.096
 5605SOL    HW218590   4.257   7.598   0.100
 5606SOL     OW18591   2.808   9.959  11.303
 5606SOL    HW118592   2.840   9.958  11.213
 5606SOL    HW218593   2.880   9.998  11.353
 5607SOL     OW18594   5.537   1.401   4.323
 5607SOL    HW118595   5.475   1.344   4.370
 5607SOL    HW218596   5.484   1.443   4.255
 5608SOL     OW18597   4.916   0.610   7.412
 5608SOL    HW118598   5.009   0.611   7.432
 5608SOL    HW218599   4.904   0.679   7.347
 5609SOL     OW18600   2.934   7.424   6.671
 5609SOL    HW118601   2.862   7.365   6.696
 5609SOL    HW218602   2.959   7.467   6.753
 5610SOL     OW18603   6.165   5.174   0.785
 5610SOL    HW118604   6.215   5.212   0.858
 5610SOL    HW218605   6.228   5.119   0.739
 5611SOL     OW18606   2.516   3.097  14.134
 5611SOL    HW118607   2.550   3.168  14.079
 5611SOL    HW218608   2.427   3.084  14.104
 5612SOL     OW18609   6.571   2.306   0.606
 5612SOL    HW118610   6.640   2.326   0.541
 5612SOL    HW218611   6.619   2.269   0.680
 5613SOL     OW18612   4.855   8.103   7.283
 5613SOL    HW118613   4.934   8.055   7.307
 5613SOL    HW218614   4.849   8.091   7.188
 5614SOL     OW18615   9.802   9.930   1.130
 5614SOL    HW118616   9.778   9.880   1.208
 5614SOL    HW218617   9.760  10.015   1.143
 5615SOL     OW18618  11.866   1.533   9.114
 5615SOL    HW118619  11.907   1.573   9.190
 5615SOL    HW218620  11.801   1.472   9.151
 5616SOL     OW18621  12.340   9.624  13.166
 5616SOL    HW118622  12.266   9.592  13.217
 5616SOL    HW218623  12.416   9.580  13.204
 5617SOL     OW18624  11.754   2.397  14.574
 5617SOL    HW118625  11.800   2.333  14.628
 5617SOL    HW218626  11.800   2.395  14.490
 5618SOL     OW18627  14.100   5.605  13.706
 5618SOL    HW118628  14.183   5.616  13.660
 5618SOL    HW218629  14.124   5.609  13.799
 5619SOL     OW18630   5.855   7.347   7.418
 5619SOL    HW118631   5.806   7.269   7.391
 5619SOL    HW218632   5.790   7.404   7.458
 5620SOL     OW18633   9.376   5.849   0.015
 5620SOL    HW118634   9.437   5.920  14.870
 5620SOL    HW218635   9.419   5.802   0.086
 5621SOL     OW18636   6.339  13.248   9.185
 5621SOL    HW118637   6.352  13.168   9.135
 5621SOL    HW218638   6.257  13.284   9.151
 5622SOL     OW18639   4.870  11.732   6.378
 5622SOL    HW118640   4.958  11.695   6.373
 5622SOL    HW218641   4.811  11.657   6.371
 5623SOL     OW18642  10.147  10.582   9.167
 5623SOL    HW118643  10.075  10.545   9.116
 5623SOL    HW218644  10.111  10.663   9.204
 5624SOL     OW18645   0.935   9.248   2.513
 5624SOL    HW118646   0.971   9.171   2.557
 5624SOL    HW218647   0.924   9.313   2.583
 5625SOL     OW18648  12.361   1.097   9.350
 5625SOL    HW118649  12.375   1.191   9.356
 5625SOL    HW218650  12.328   1.071   9.436
 5626SOL     OW18651   5.062  13.812  14.016
 5626SOL    HW118652   4.988  13.856  14.058
 5626SOL    HW218653   5.068  13.852  13.930
 5627SOL     OW18654   2.476   4.759   2.095
 5627SOL    HW118655   2.433   4.693   2.149
 5627SOL    HW218656   2.410   4.827   2.082
 5628SOL     OW18657   7.045  13.902  14.510
 5628SOL    HW118658   7.123  13.859  14.544
 5628SOL    HW218659   7.059  13.996  14.526
 5629SOL     OW18660   4.678   8.440   2.345
 5629SOL    HW118661   4.751   8.451   2.283
 5629SOL    HW218662   4.645   8.529   2.358
 5630SOL     OW18663  13.834  10.521   7.520
 5630SOL    HW118664  13.831  10.592   7.456
 5630SOL    HW218665  13.743  10.489   7.524
 5631SOL     OW18666   7.865   3.461   0.575
 5631SOL    HW118667   7.841   3.422   0.660
 5631SOL    HW218668   7.841   3.394   0.511
 5632SOL     OW18669   3.604  14.133   3.589
 5632SOL    HW118670   3.660  14.057   3.607
 5632SOL    HW218671   3.662  14.198   3.551
 5633SOL     OW18672  11.006  11.674   6.218
 5633SOL    HW118673  11.057  11.599   6.247
 5633SOL    HW218674  11.024  11.741   6.284
 5634SOL     OW18675   5.195  11.608  10.572
 5634SOL    HW118676   5.229  11.519  10.559
 5634SOL    HW218677   5.151  11.630  10.490
 5635SOL     OW18678  14.820   3.835  12.123
 5635SOL    HW118679  14.730   3.854  12.148
 5635SOL    HW218680  14.847   3.911  12.072
 5636SOL     OW18681  12.937   4.132  13.711
 5636SOL    HW118682  12.927   4.187  13.788
 5636SOL    HW218683  13.029   4.106  13.711
 5637SOL     OW18684  13.952  13.123   6.551
 5637SOL    HW118685  14.004  13.047   6.526
 5637SOL    HW218686  13.942  13.174   6.471
 5638SOL     OW18687   9.530  13.984   3.969
 5638SOL    HW118688   9.605  13.926   3.962
 5638SOL    HW218689   9.551  14.041   4.044
 5639SOL     OW18690  11.205   0.541   3.614
 5639SOL    HW118691  11.135   0.518   3.676
 5639SOL    HW218692  11.164   0.536   3.528
 5640SOL     OW18693   5.978  10.387   4.955
 5640SOL    HW118694   5.983  10.417   5.046
 5640SOL    HW218695   5.996  10.293   4.960
 5641SOL     OW18696   5.796   6.201  10.679
 5641SOL    HW118697   5.889   6.181  10.678
 5641SOL    HW218698   5.790   6.290  10.712
 5642SOL     OW18699  12.227   0.076   6.033
 5642SOL    HW118700  12.168   0.140   5.994
 5642SOL    HW218701  12.295   0.063   5.967
 5643SOL     OW18702   9.379   8.627   9.522
 5643SOL    HW118703   9.435   8.573   9.579
 5643SOL    HW218704   9.404   8.602   9.433
 5644SOL     OW18705  11.275  10.096   9.678
 5644SOL    HW118706  11.212  10.050   9.734
 5644SOL    HW218707  11.302  10.031   9.614
 5645SOL     OW18708   1.929   5.648  13.339
 5645SOL    HW118709   1.834   5.655  13.330
 5645SOL    HW218710   1.944   5.557  13.366
 5646SOL     OW18711   4.496  10.499   4.936
 5646SOL    HW118712   4.439  10.433   4.973
 5646SOL    HW218713   4.548  10.531   5.010
 5647SOL     OW18714   0.807   2.509  10.328
 5647SOL    HW118715   0.801   2.551  10.242
 5647SOL    HW218716   0.768   2.423  10.315
 5648SOL     OW18717   8.592   6.052   2.604
 5648SOL    HW118718   8.619   6.100   2.682
 5648SOL    HW218719   8.518   6.000   2.632
 5649SOL     OW18720   8.421   0.552   6.048
 5649SOL    HW118721   8.514   0.532   6.051
 5649SOL    HW218722   8.384   0.487   5.988
 5650SOL     OW18723   9.598   7.947   8.584
 5650SOL    HW118724   9.661   7.911   8.646
 5650SOL    HW218725   9.516   7.902   8.604
 5651SOL     OW18726   3.294   2.871   6.710
 5651SOL    HW118727   3.329   2.785   6.687
 5651SOL    HW218728   3.201   2.855   6.725
 5652SOL     OW18729  10.295   3.660  12.449
 5652SOL    HW118730  10.284   3.681  12.542
 5652SOL    HW218731  10.237   3.722  12.404
 5653SOL     OW18732   7.118   8.814   1.961
 5653SOL    HW118733   7.189   8.870   1.992
 5653SOL    HW218734   7.160   8.728   1.948
 5654SOL     OW18735  13.903  12.689   2.947
 5654SOL    HW118736  13.911  12.686   2.851
 5654SOL    HW218737  13.977  12.636   2.979
 5655SOL     OW18738   5.121  11.665  13.378
 5655SOL    HW118739   5.200  11.646  13.428
 5655SOL    HW218740   5.095  11.582  13.339
 5656SOL     OW18741   9.829   8.539   4.958
 5656SOL    HW118742   9.802   8.575   5.042
 5656SOL    HW218743   9.749   8.502   4.921
 5657SOL     OW18744  10.481  12.896   6.438
 5657SOL    HW118745  10.570  12.866   6.455
 5657SOL    HW218746  10.477  12.910   6.343
 5658SOL     OW18747   0.830   9.120   0.262
 5658SOL    HW118748   0.849   9.186   0.329
 5658SOL    HW218749   0.842   9.037   0.307
 5659SOL     OW18750   3.852   7.709   3.821
 5659SOL    HW118751   3.809   7.631   3.857
 5659SOL    HW218752   3.797   7.734   3.747
 5660SOL     OW18753  14.743   6.948   0.916
 5660SOL    HW118754  14.689   6.880   0.956
 5660SOL    HW218755  14.708   7.030   0.951
 5661SOL     OW18756   2.797  13.034   9.964
 5661SOL    HW118757   2.751  13.084  10.031
 5661SOL    HW218758   2.796  13.092   9.887
 5662SOL     OW18759   5.274  11.586   2.689
 5662SOL    HW118760   5.360  11.566   2.726
 5662SOL    HW218761   5.239  11.655   2.745
 5663SOL     OW18762  11.470   0.095   6.272
 5663SOL    HW118763  11.386   0.088   6.228
 5663SOL    HW218764  11.461   0.043   6.352
 5664SOL     OW18765   5.558   3.147  12.058
 5664SOL    HW118766   5.606   3.080  12.106
 5664SOL    HW218767   5.528   3.208  12.125
 5665SOL     OW18768   6.012   3.597  12.739
 5665SOL    HW118769   6.074   3.587  12.810
 5665SOL    HW218770   6.052   3.661  12.680
 5666SOL     OW18771  12.236  10.909   5.564
 5666SOL    HW118772  12.264  10.940   5.478
 5666SOL    HW218773  12.142  10.927   5.567
 5667SOL     OW18774   6.207  13.243   0.705
 5667SOL    HW118775   6.137  13.240   0.770
 5667SOL    HW218776   6.205  13.333   0.672
 5668SOL     OW18777  12.970   8.279   5.357
 5668SOL    HW118778  12.961   8.240   5.443
 5668SOL    HW218779  13.064   8.286   5.342
 5669SOL     OW18780   2.813   5.723   3.356
 5669SOL    HW118781   2.906   5.724   3.381
 5669SOL    HW218782   2.811   5.760   3.268
 5670SOL     OW18783   7.355   9.123  13.666
 5670SOL    HW118784   7.394   9.146  13.582
 5670SOL    HW218785   7.305   9.043  13.648
 5671SOL     OW18786  14.811  12.049   5.354
 5671SOL    HW118787  14.719  12.024   5.350
 5671SOL    HW218788  14.825  12.103   5.276
 5672SOL     OW18789  12.811   1.000  13.611
 5672SOL    HW118790  12.813   0.963  13.522
 5672SOL    HW218791  12.804   1.095  13.596
 5673SOL     OW18792   1.500   6.087  10.360
 5673SOL    HW118793   1.573   6.065  10.302
 5673SOL    HW218794   1.444   6.009  10.358
 5674SOL     OW18795   0.439   6.490  14.493
 5674SOL    HW118796   0.517   6.478  14.440
 5674SOL    HW218797   0.444   6.420  14.559
 5675SOL     OW18798   4.635  11.037   8.741
 5675SOL    HW118799   4.556  10.995   8.776
 5675SOL    HW218800   4.630  11.022   8.647
 5676SOL     OW18801  11.365  13.914   5.469
 5676SOL    HW118802  11.336  13.899   5.559
 5676SOL    HW218803  11.443  13.969   5.479
 5677SOL     OW18804   6.716  11.315   3.056
 5677SOL    HW118805   6.748  11.232   3.021
 5677SOL    HW218806   6.707  11.371   2.979
 5678SOL     OW18807   5.913   6.143  10.143
 5678SOL    HW118808   5.863   6.125  10.223
 5678SOL    HW218809   5.923   6.238  10.142
 5679SOL     OW18810   0.799   2.913  11.761
 5679SOL    HW118811   0.726   2.972  11.779
 5679SOL    HW218812   0.852   2.960  11.695
 5680SOL     OW18813   9.257  10.723   9.286
 5680SOL    HW118814   9.187  10.658   9.284
 5680SOL    HW218815   9.330  10.679   9.330
 5681SOL     OW18816   5.063   9.333   3.223
 5681SOL    HW118817   5.144   9.283   3.230
 5681SOL    HW218818   5.075   9.407   3.283
 5682SOL     OW18819  13.158   0.113   3.184
 5682SOL    HW118820  13.081   0.059   3.196
 5682SOL    HW218821  13.232   0.054   3.201
 5683SOL     OW18822  12.131   9.284   4.911
 5683SOL    HW118823  12.087   9.288   4.826
 5683SOL    HW218824  12.173   9.198   4.912
 5684SOL     OW18825  10.763   3.027   4.174
 5684SOL    HW118826  10.817   3.038   4.253
 5684SOL    HW218827  10.809   2.962   4.122
 5685SOL     OW18828   5.576  13.911   2.911
 5685SOL    HW118829   5.653  13.855   2.919
 5685SOL    HW218830   5.505  13.851   2.887
 5686SOL     OW18831  11.061   9.987   9.845
 5686SOL    HW118832  11.040  10.031   9.927
 5686SOL    HW218833  11.070   9.895   9.868
 5687SOL     OW18834  11.377   7.636   9.706
 5687SOL    HW118835  11.338   7.584   9.636
 5687SOL    HW218836  11.471   7.634   9.688
 5688SOL     OW18837   7.215   5.711   3.272
 5688SOL    HW118838   7.146   5.651   3.243
 5688SOL    HW218839   7.295   5.678   3.231
 5689SOL     OW18840   3.231   1.395   2.097
 5689SOL    HW118841   3.320   1.400   2.131
 5689SOL    HW218842   3.229   1.316   2.044
 5690SOL     OW18843   4.633   8.747   0.967
 5690SOL    HW118844   4.560   8.685   0.955
 5690SOL    HW218845   4.711   8.692   0.968
 5691SOL     OW18846  13.703   6.362   6.786
 5691SOL    HW118847  13.653   6.425   6.735
 5691SOL    HW218848  13.794   6.373   6.758
 5692SOL     OW18849  14.660   9.210   9.117
 5692SOL    HW118850  14.625   9.127   9.151
 5692SOL    HW218851  14.748   9.188   9.086
 5693SOL     OW18852   7.004   7.787   4.357
 5693SOL    HW118853   7.065   7.717   4.379
 5693SOL    HW218854   7.031   7.816   4.270
 5694SOL     OW18855   6.653  12.285   9.104
 5694SOL    HW118856   6.722  12.275   9.038
 5694SOL    HW218857   6.648  12.200   9.147
 5695SOL     OW18858   2.752   8.482   0.731
 5695SOL    HW118859   2.743   8.456   0.639
 5695SOL    HW218860   2.674   8.446   0.773
 5696SOL     OW18861   8.615  10.227   7.811
 5696SOL    HW118862   8.569  10.201   7.891
 5696SOL    HW218863   8.561  10.191   7.740
 5697SOL     OW18864   9.081   0.502   8.465
 5697SOL    HW118865   9.159   0.523   8.516
 5697SOL    HW218866   9.074   0.407   8.469
 5698SOL     OW18867  13.490   3.070  14.684
 5698SOL    HW118868  13.528   3.081  14.597
 5698SOL    HW218869  13.504   3.155  14.727
 5699SOL     OW18870   5.877  13.390  12.762
 5699SOL    HW118871   5.802  13.440  12.730
 5699SOL    HW218872   5.842  13.302  12.776
 5700SOL     OW18873  13.772   4.419  13.782
 5700SOL    HW118874  13.729   4.351  13.730
 5700SOL    HW218875  13.812   4.476  13.717
 5701SOL     OW18876   1.051  10.034   4.864
 5701SOL    HW118877   1.082  10.084   4.939
 5701SOL    HW218878   1.092   9.948   4.874
 5702SOL     OW18879   8.495  14.825  14.240
 5702SOL    HW118880   8.518  14.784  14.157
 5702SOL    HW218881   8.439  14.760  14.284
 5703SOL     OW18882   8.507   5.031   0.046
 5703SOL    HW118883   8.476   4.994   0.129
 5703SOL    HW218884   8.435   5.016  14.862
 5704SOL     OW18885  10.465   0.438   2.857
 5704SOL    HW118886  10.444   0.358   2.905
 5704SOL    HW218887  10.512   0.492   2.920
 5705SOL     OW18888   5.976  13.322   5.292
 5705SOL    HW118889   5.883  13.298   5.287
 5705SOL    HW218890   6.017  13.247   5.336
 5706SOL     OW18891  12.160   6.723  14.634
 5706SOL    HW118892  12.199   6.658  14.576
 5706SOL    HW218893  12.190   6.699  14.722
 5707SOL     OW18894   6.395   9.686   5.872
 5707SOL    HW118895   6.407   9.749   5.801
 5707SOL    HW218896   6.343   9.616   5.833
 5708SOL     OW18897   5.456   4.905   6.850
 5708SOL    HW118898   5.442   4.818   6.812
 5708SOL    HW218899   5.551   4.918   6.848
 5709SOL     OW18900   7.811  13.269  13.628
 5709SOL    HW118901   7.841  13.289  13.716
 5709SOL    HW218902   7.846  13.181  13.610
 5710SOL     OW18903   0.762   9.767   1.186
 5710SOL    HW118904   0.814   9.822   1.127
 5710SOL    HW218905   0.703   9.828   1.229
 5711SOL     OW18906  11.370  12.959   7.076
 5711SOL    HW118907  11.400  12.992   7.160
 5711SOL    HW218908  11.282  12.924   7.094
 5712SOL     OW18909  13.835   9.756   0.471
 5712SOL    HW118910  13.905   9.774   0.534
 5712SOL    HW218911  13.876   9.765   0.385
 5713SOL     OW18912   2.092   4.328   9.644
 5713SOL    HW118913   2.079   4.279   9.563
 5713SOL    HW218914   2.073   4.264   9.713
 5714SOL     OW18915   6.282   9.187   9.575
 5714SOL    HW118916   6.364   9.141   9.589
 5714SOL    HW218917   6.225   9.122   9.534
 5715SOL     OW18918   2.233   2.386   5.158
 5715SOL    HW118919   2.292   2.337   5.215
 5715SOL    HW218920   2.287   2.416   5.085
 5716SOL     OW18921  10.995   9.555   6.968
 5716SOL    HW118922  11.059   9.521   7.030
 5716SOL    HW218923  10.961   9.634   7.010
 5717SOL     OW18924   5.613   4.421   5.143
 5717SOL    HW118925   5.572   4.348   5.097
 5717SOL    HW218926   5.665   4.466   5.076
 5718SOL     OW18927   3.118   4.286  11.384
 5718SOL    HW118928   3.131   4.283  11.479
 5718SOL    HW218929   3.204   4.308  11.348
 5719SOL     OW18930   1.445  13.703  12.842
 5719SOL    HW118931   1.389  13.781  12.847
 5719SOL    HW218932   1.516  13.729  12.784
 5720SOL     OW18933   7.578   8.090   9.537
 5720SOL    HW118934   7.550   8.033   9.465
 5720SOL    HW218935   7.646   8.146   9.498
 5721SOL     OW18936   0.156   4.188   4.490
 5721SOL    HW118937   0.236   4.236   4.512
 5721SOL    HW218938   0.110   4.244   4.428
 5722SOL     OW18939  14.742  12.166   4.955
 5722SOL    HW118940  14.692  12.182   4.875
 5722SOL    HW218941  14.753  12.252   4.995
 5723SOL     OW18942   6.153   8.671   6.665
 5723SOL    HW118943   6.065   8.693   6.635
 5723SOL    HW218944   6.188   8.753   6.700
 5724SOL     OW18945   2.400   1.229   9.564
 5724SOL    HW118946   2.384   1.155   9.506
 5724SOL    HW218947   2.426   1.300   9.506
 5725SOL     OW18948   7.001   9.963  14.727
 5725SOL    HW118949   7.038   9.890  14.677
 5725SOL    HW218950   7.048  10.040  14.696
 5726SOL     OW18951   2.262   6.807   2.392
 5726SOL    HW118952   2.342   6.824   2.442
 5726SOL    HW218953   2.206   6.882   2.408
 5727SOL     OW18954  13.467   8.761   9.509
 5727SOL    HW118955  13.442   8.748   9.418
 5727SOL    HW218956  13.516   8.843   9.509
 5728SOL     OW18957   6.340   6.148   6.844
 5728SOL    HW118958   6.292   6.135   6.926
 5728SOL    HW218959   6.409   6.082   6.846
 5729SOL     OW18960   9.727  13.873   0.532
 5729SOL    HW118961   9.784  13.808   0.490
 5729SOL    HW218962   9.676  13.823   0.595
 5730SOL     OW18963   2.689  13.396   2.906
 5730SOL    HW118964   2.599  13.413   2.876
 5730SOL    HW218965   2.679  13.335   2.978
 5731SOL     OW18966   3.684   9.738   2.879
 5731SOL    HW118967   3.705   9.649   2.908
 5731SOL    HW218968   3.762   9.789   2.902
 5732SOL     OW18969   7.742   6.182  10.853
 5732SOL    HW118970   7.658   6.226  10.867
 5732SOL    HW218971   7.785   6.234  10.785
 5733SOL     OW18972   7.128   8.308  14.863
 5733SOL    HW118973   7.110   8.371  14.793
 5733SOL    HW218974   7.050   8.251  14.864
 5734SOL     OW18975  11.804  10.341  10.666
 5734SOL    HW118976  11.886  10.390  10.667
 5734SOL    HW218977  11.785  10.329  10.573
 5735SOL     OW18978   4.464   9.325  13.830
 5735SOL    HW118979   4.435   9.357  13.916
 5735SOL    HW218980   4.383   9.302  13.784
 5736SOL     OW18981   4.441  13.065   2.402
 5736SOL    HW118982   4.352  13.036   2.379
 5736SOL    HW218983   4.486  13.073   2.318
 5737SOL     OW18984  11.758  11.608   3.959
 5737SOL    HW118985  11.801  11.536   4.006
 5737SOL    HW218986  11.673  11.571   3.933
 5738SOL     OW18987   7.187   8.022  13.771
 5738SOL    HW118988   7.101   7.990  13.744
 5738SOL    HW218989   7.194   7.998  13.863
 5739SOL     OW18990   0.388  10.011   8.308
 5739SOL    HW118991   0.456   9.949   8.282
 5739SOL    HW218992   0.435  10.085   8.345
 5740SOL     OW18993   4.480   6.008  14.565
 5740SOL    HW118994   4.542   5.963  14.623
 5740SOL    HW218995   4.415   5.942  14.544
 5741SOL     OW18996   1.187   9.555   4.887
 5741SOL    HW118997   1.127   9.497   4.934
 5741SOL    HW218998   1.143   9.574   4.805
 5742SOL     OW18999  10.241   9.241  12.828
 5742SOL    HW119000  10.207   9.215  12.913
 5742SOL    HW219001  10.332   9.211  12.828
 5743SOL     OW19002  10.520   3.264   7.664
 5743SOL    HW119003  10.553   3.205   7.732
 5743SOL    HW219004  10.425   3.250   7.664
 5744SOL     OW19005   7.287   2.982  12.658
 5744SOL    HW119006   7.243   3.062  12.629
 5744SOL    HW219007   7.256   2.914  12.599
 5745SOL     OW19008   7.434   6.737  12.944
 5745SOL    HW119009   7.470   6.651  12.970
 5745SOL    HW219010   7.493   6.800  12.984
 5746SOL     OW19011   4.076   2.800   7.510
 5746SOL    HW119012   4.034   2.782   7.594
 5746SOL    HW219013   4.049   2.728   7.454
 5747SOL     OW19014   3.847  14.342  10.377
 5747SOL    HW119015   3.778  14.406  10.397
 5747SOL    HW219016   3.928  14.394  10.375
 5748SOL     OW19017  12.779   5.068  10.937
 5748SOL    HW119018  12.764   5.010  10.862
 5748SOL    HW219019  12.703   5.126  10.939
 5749SOL     OW19020   2.786   3.520   3.741
 5749SOL    HW119021   2.756   3.435   3.774
 5749SOL    HW219022   2.752   3.584   3.803
 5750SOL     OW19023   7.558   1.542  11.584
 5750SOL    HW119024   7.557   1.626  11.630
 5750SOL    HW219025   7.523   1.562  11.497
 5751SOL     OW19026   4.265   8.411   5.934
 5751SOL    HW119027   4.178   8.432   5.901
 5751SOL    HW219028   4.250   8.345   6.002
 5752SOL     OW19029  14.395   6.726   9.141
 5752SOL    HW119030  14.432   6.776   9.069
 5752SOL    HW219031  14.340   6.788   9.188
 5753SOL     OW19032   0.194  13.749   9.389
 5753SOL    HW119033   0.208  13.655   9.381
 5753SOL    HW219034   0.107  13.764   9.350
 5754SOL     OW19035   9.703   0.036   5.616
 5754SOL    HW119036   9.729   0.109   5.559
 5754SOL    HW219037   9.782  14.861   5.624
 5755SOL     OW19038  13.939  11.185  12.389
 5755SOL    HW119039  13.989  11.111  12.354
 5755SOL    HW219040  13.917  11.159  12.478
 5756SOL     OW19041  13.896   7.229   3.441
 5756SOL    HW119042  13.811   7.205   3.405
 5756SOL    HW219043  13.876   7.288   3.514
 5757SOL     OW19044   5.377   2.482  14.477
 5757SOL    HW119045   5.409   2.423  14.408
 5757SOL    HW219046   5.341   2.557  14.430
 5758SOL     OW19047  14.092  12.773   0.289
 5758SOL    HW119048  13.996  12.784   0.287
 5758SOL    HW219049  14.107  12.689   0.246
 5759SOL     OW19050  10.687   7.869   1.737
 5759SOL    HW119051  10.728   7.835   1.817
 5759SOL    HW219052  10.633   7.797   1.705
 5760SOL     OW19053   0.726  11.487   1.935
 5760SOL    HW119054   0.813  11.491   1.895
 5760SOL    HW219055   0.734  11.539   2.015
 5761SOL     OW19056   7.852  14.387   0.751
 5761SOL    HW119057   7.855  14.457   0.686
 5761SOL    HW219058   7.897  14.423   0.827
 5762SOL     OW19059  14.447  13.520   4.081
 5762SOL    HW119060  14.365  13.515   4.131
 5762SOL    HW219061  14.423  13.568   4.002
 5763SOL     OW19062  14.704   1.791  11.013
 5763SOL    HW119063  14.675   1.858  11.075
 5763SOL    HW219064  14.759   1.732  11.065
 5764SOL     OW19065   4.168  13.900  13.154
 5764SOL    HW119066   4.133  13.956  13.223
 5764SOL    HW219067   4.115  13.921  13.077
 5765SOL     OW19068   1.655   6.714  10.200
 5765SOL    HW119069   1.688   6.704  10.111
 5765SOL    HW219070   1.644   6.624  10.231
 5766SOL     OW19071  12.330  14.608  14.390
 5766SOL    HW119072  12.409  14.619  14.442
 5766SOL    HW219073  12.271  14.676  14.421
 5767SOL     OW19074   2.478   0.301  11.119
 5767SOL    HW119075   2.543   0.306  11.189
 5767SOL    HW219076   2.394   0.299  11.165
 5768SOL     OW19077   0.014   3.869   3.227
 5768SOL    HW119078   0.010   3.884   3.132
 5768SOL    HW219079   0.054   3.949   3.261
 5769SOL     OW19080   8.316  14.810   3.267
 5769SOL    HW119081   8.407  14.834   3.282
 5769SOL    HW219082   8.319  14.756   3.188
 5770SOL     OW19083   6.730   6.571   4.659
 5770SOL    HW119084   6.746   6.664   4.670
 5770SOL    HW219085   6.635   6.561   4.672
 5771SOL     OW19086  14.396   9.336   9.884
 5771SOL    HW119087  14.307   9.344   9.918
 5771SOL    HW219088  14.414   9.422   9.844
 5772SOL     OW19089  13.112   8.644   0.088
 5772SOL    HW119090  13.021   8.657   0.116
 5772SOL    HW219091  13.136   8.558   0.123
 5773SOL     OW19092  11.369   8.702   2.182
 5773SOL    HW119093  11.277   8.714   2.160
 5773SOL    HW219094  11.370   8.678   2.274
 5774SOL     OW19095   3.253   4.896   9.839
 5774SOL    HW119096   3.229   4.925   9.751
 5774SOL    HW219097   3.291   4.974   9.880
 5775SOL     OW19098  10.545   3.075  12.519
 5775SOL    HW119099  10.527   2.981  12.517
 5775SOL    HW219100  10.638   3.081  12.543
 5776SOL     OW19101   2.000   2.229  13.168
 5776SOL    HW119102   2.049   2.148  13.156
 5776SOL    HW219103   1.908   2.201  13.170
 5777SOL     OW19104  14.125   1.443   4.001
 5777SOL    HW119105  14.218   1.440   4.025
 5777SOL    HW219106  14.086   1.370   4.048
 5778SOL     OW19107  12.227   0.789  10.608
 5778SOL    HW119108  12.316   0.814  10.584
 5778SOL    HW219109  12.218   0.815  10.700
 5779SOL     OW19110   6.246   3.716  11.779
 5779SOL    HW119111   6.326   3.733  11.729
 5779SOL    HW219112   6.276   3.700  11.868
 5780SOL     OW19113  13.088  11.229   8.636
 5780SOL    HW119114  13.015  11.216   8.576
 5780SOL    HW219115  13.081  11.321   8.663
 5781SOL     OW19116   5.844   8.596   6.053
 5781SOL    HW119117   5.930   8.610   6.015
 5781SOL    HW219118   5.859   8.538   6.128
 5782SOL     OW19119   7.246   7.287   6.174
 5782SOL    HW119120   7.160   7.330   6.174
 5782SOL    HW219121   7.253   7.248   6.087
 5783SOL     OW19122  12.316   9.504   3.375
 5783SOL    HW119123  12.278   9.420   3.401
 5783SOL    HW219124  12.240   9.558   3.354
 5784SOL     OW19125   8.391   9.603   1.534
 5784SOL    HW119126   8.347   9.682   1.501
 5784SOL    HW219127   8.394   9.615   1.629
 5785SOL     OW19128   9.505  11.387   0.374
 5785SOL    HW119129   9.465  11.434   0.301
 5785SOL    HW219130   9.484  11.440   0.451
 5786SOL     OW19131   8.858   0.567   1.873
 5786SOL    HW119132   8.849   0.641   1.814
 5786SOL    HW219133   8.883   0.494   1.816
 5787SOL     OW19134   2.675   0.356  13.557
 5787SOL    HW119135   2.637   0.429  13.607
 5787SOL    HW219136   2.663   0.380  13.465
 5788SOL     OW19137   7.666   2.756   9.326
 5788SOL    HW119138   7.622   2.814   9.263
 5788SOL    HW219139   7.722   2.701   9.272
 5789SOL     OW19140   8.404   3.230   8.918
 5789SOL    HW119141   8.488   3.191   8.944
 5789SOL    HW219142   8.338   3.167   8.947
 5790SOL     OW19143   1.383  11.491  11.019
 5790SOL    HW119144   1.468  11.494  11.063
 5790SOL    HW219145   1.396  11.433  10.944
 5791SOL     OW19146   0.281   4.899   4.490
 5791SOL    HW119147   0.222   4.958   4.443
 5791SOL    HW219148   0.234   4.875   4.569
 5792SOL     OW19149  13.265   1.512  13.633
 5792SOL    HW119150  13.342   1.456  13.631
 5792SOL    HW219151  13.288   1.587  13.577
 5793SOL     OW19152  10.156   4.603  12.738
 5793SOL    HW119153  10.079   4.565  12.697
 5793SOL    HW219154  10.167   4.554  12.819
 5794SOL     OW19155   2.345   6.375  10.051
 5794SOL    HW119156   2.340   6.373  10.147
 5794SOL    HW219157   2.438   6.359  10.033
 5795SOL     OW19158   2.301   6.560   3.242
 5795SOL    HW119159   2.385   6.585   3.204
 5795SOL    HW219160   2.314   6.569   3.337
 5796SOL     OW19161  12.607  10.986  12.987
 5796SOL    HW119162  12.685  11.039  13.007
 5796SOL    HW219163  12.539  11.023  13.043
 5797SOL     OW19164   7.942  14.712   3.424
 5797SOL    HW119165   7.923  14.757   3.507
 5797SOL    HW219166   7.857  14.691   3.387
 5798SOL     OW19167   4.492   7.686   1.941
 5798SOL    HW119168   4.409   7.679   1.988
 5798SOL    HW219169   4.467   7.710   1.852
 5799SOL     OW19170  13.736  13.114   9.099
 5799SOL    HW119171  13.698  13.195   9.065
 5799SOL    HW219172  13.728  13.123   9.194
 5800SOL     OW19173   1.627   2.568  13.242
 5800SOL    HW119174   1.627   2.517  13.161
 5800SOL    HW219175   1.599   2.656  13.215
 5801SOL     OW19176   3.575   5.233   5.967
 5801SOL    HW119177   3.652   5.198   5.923
 5801SOL    HW219178   3.609   5.294   6.032
 5802SOL     OW19179   0.223   8.456   3.327
 5802SOL    HW119180   0.231   8.552   3.325
 5802SOL    HW219181   0.133   8.439   3.302
 5803SOL     OW19182   9.677   3.792   8.727
 5803SOL    HW119183   9.712   3.734   8.660
 5803SOL    HW219184   9.595   3.824   8.692
 5804SOL     OW19185   3.741   1.451   9.117
 5804SOL    HW119186   3.778   1.532   9.082
 5804SOL    HW219187   3.793   1.381   9.076
 5805SOL     OW19188  14.261   8.895  10.807
 5805SOL    HW119189  14.181   8.872  10.760
 5805SOL    HW219190  14.231   8.928  10.892
 5806SOL     OW19191  13.340  13.282   3.975
 5806SOL    HW119192  13.387  13.349   4.026
 5806SOL    HW219193  13.284  13.333   3.915
 5807SOL     OW19194   5.932   8.556   2.774
 5807SOL    HW119195   5.943   8.461   2.772
 5807SOL    HW219196   6.015   8.591   2.741
 5808SOL     OW19197   9.933   6.161   9.336
 5808SOL    HW119198   9.882   6.206   9.404
 5808SOL    HW219199   9.868   6.135   9.271
 5809SOL     OW19200  11.684  14.001   6.678
 5809SOL    HW119201  11.687  13.930   6.614
 5809SOL    HW219202  11.764  13.989   6.730
 5810SOL     OW19203   3.796   4.922   8.866
 5810SOL    HW119204   3.822   4.869   8.942
 5810SOL    HW219205   3.854   4.998   8.869
 5811SOL     OW19206  10.961  14.540   2.360
 5811SOL    HW119207  10.969  14.448   2.386
 5811SOL    HW219208  10.898  14.539   2.288
 5812SOL     OW19209  11.985   4.444   8.974
 5812SOL    HW119210  12.055   4.495   8.933
 5812SOL    HW219211  12.021   4.420   9.060
 5813SOL     OW19212  13.802   9.264  12.466
 5813SOL    HW119213  13.759   9.286  12.383
 5813SOL    HW219214  13.785   9.170  12.478
 5814SOL     OW19215  14.173  13.646  14.610
 5814SOL    HW119216  14.098  13.644  14.551
 5814SOL    HW219217  14.204  13.736  14.606
 5815SOL     OW19218   3.553   8.225  12.728
 5815SOL    HW119219   3.488   8.169  12.770
 5815SOL    HW219220   3.618   8.165  12.692
 5816SOL     OW19221  11.693   0.635   4.868
 5816SOL    HW119222  11.710   0.729   4.880
 5816SOL    HW219223  11.758   0.608   4.803
 5817SOL     OW19224   7.379   3.798   7.983
 5817SOL    HW119225   7.474   3.789   7.993
 5817SOL    HW219226   7.353   3.722   7.930
 5818SOL     OW19227  12.434  11.289   5.874
 5818SOL    HW119228  12.457  11.201   5.904
 5818SOL    HW219229  12.440  11.284   5.778
 5819SOL     OW19230   5.221   9.040   0.794
 5819SOL    HW119231   5.246   9.117   0.742
 5819SOL    HW219232   5.145   9.069   0.844
 5820SOL     OW19233  12.062   3.570   4.269
 5820SOL    HW119234  11.967   3.579   4.276
 5820SOL    HW219235  12.094   3.581   4.358
 5821SOL     OW19236   3.978  13.691   6.477
 5821SOL    HW119237   3.935  13.763   6.525
 5821SOL    HW219238   3.919  13.617   6.489
 5822SOL     OW19239   3.001   8.765   3.966
 5822SOL    HW119240   2.994   8.756   4.061
 5822SOL    HW219241   2.982   8.857   3.948
 5823SOL     OW19242   4.600  10.541  10.516
 5823SOL    HW119243   4.632  10.630  10.501
 5823SOL    HW219244   4.652  10.487  10.457
 5824SOL     OW19245   1.647   2.319   2.767
 5824SOL    HW119246   1.636   2.363   2.851
 5824SOL    HW219247   1.730   2.351   2.734
 5825SOL     OW19248  11.839   8.611   1.437
 5825SOL    HW119249  11.806   8.685   1.384
 5825SOL    HW219250  11.862   8.544   1.372
 5826SOL     OW19251   1.463   8.668   4.247
 5826SOL    HW119252   1.383   8.677   4.196
 5826SOL    HW219253   1.437   8.691   4.336
 5827SOL     OW19254  12.096  12.943   0.870
 5827SOL    HW119255  12.017  12.931   0.818
 5827SOL    HW219256  12.088  12.879   0.941
 5828SOL     OW19257   1.424   5.982  13.922
 5828SOL    HW119258   1.505   6.027  13.897
 5828SOL    HW219259   1.354   6.039  13.890
 5829SOL     OW19260   8.870   7.745   0.212
 5829SOL    HW119261   8.955   7.787   0.204
 5829SOL    HW219262   8.841   7.730   0.122
 5830SOL     OW19263  14.591   7.483  11.791
 5830SOL    HW119264  14.546   7.533  11.722
 5830SOL    HW219265  14.522   7.428  11.829
 5831SOL     OW19266  14.286   2.008   9.540
 5831SOL    HW119267  14.352   2.069   9.507
 5831SOL    HW219268  14.229   1.992   9.464
 5832SOL     OW19269   7.865   2.670  14.778
 5832SOL    HW119270   7.849   2.598  14.716
 5832SOL    HW219271   7.780   2.713  14.787
 5833SOL     OW19272  14.751  14.794   3.852
 5833SOL    HW119273  14.717  14.776   3.764
 5833SOL    HW219274  14.817  14.861   3.840
 5834SOL     OW19275   7.216  14.013   7.391
 5834SOL    HW119276   7.162  14.088   7.367
 5834SOL    HW219277   7.161  13.961   7.450
 5835SOL     OW19278   0.575  14.341  14.415
 5835SOL    HW119279   0.650  14.289  14.443
 5835SOL    HW219280   0.576  14.336  14.320
 5836SOL     OW19281  11.690  12.704   5.177
 5836SOL    HW119282  11.753  12.674   5.111
 5836SOL    HW219283  11.735  12.774   5.224
 5837SOL     OW19284   4.011  13.527   9.832
 5837SOL    HW119285   4.018  13.615   9.870
 5837SOL    HW219286   4.087  13.519   9.775
 5838SOL     OW19287   1.318   8.745  12.239
 5838SOL    HW119288   1.318   8.811  12.308
 5838SOL    HW219289   1.303   8.662  12.286
 5839SOL     OW19290   6.847  13.907  11.320
 5839SOL    HW119291   6.804  13.823  11.340
 5839SOL    HW219292   6.775  13.965  11.294
 5840SOL     OW19293   5.188   3.385   4.042
 5840SOL    HW119294   5.208   3.295   4.014
 5840SOL    HW219295   5.268   3.434   4.023
 5841SOL     OW19296  11.353   2.357   9.693
 5841SOL    HW119297  11.406   2.336   9.616
 5841SOL    HW219298  11.306   2.276   9.713
 5842SOL     OW19299   9.937   9.291  13.017
 5842SOL    HW119300   9.920   9.294  12.923
 5842SOL    HW219301   9.851   9.274  13.057
 5843SOL     OW19302  10.969  10.194   3.825
 5843SOL    HW119303  10.908  10.202   3.898
 5843SOL    HW219304  10.914  10.182   3.748
 5844SOL     OW19305   9.640   8.052   1.376
 5844SOL    HW119306   9.675   8.036   1.463
 5844SOL    HW219307   9.714   8.084   1.325
 5845SOL     OW19308   8.794   4.972  13.018
 5845SOL    HW119309   8.800   4.879  12.994
 5845SOL    HW219310   8.862   5.015  12.965
 5846SOL     OW19311   8.538  12.988   1.415
 5846SOL    HW119312   8.494  13.070   1.436
 5846SOL    HW219313   8.468  12.924   1.404
 5847SOL     OW19314   1.059  12.330  10.820
 5847SOL    HW119315   0.976  12.373  10.797
 5847SOL    HW219316   1.035  12.238  10.835
 5848SOL     OW19317   1.687   7.506   1.374
 5848SOL    HW119318   1.695   7.447   1.449
 5848SOL    HW219319   1.594   7.526   1.369
 5849SOL     OW19320  12.116   0.973  13.602
 5849SOL    HW119321  12.067   0.945  13.524
 5849SOL    HW219322  12.094   1.066  13.611
 5850SOL     OW19323   0.226   2.820  14.656
 5850SOL    HW119324   0.315   2.829  14.623
 5850SOL    HW219325   0.174   2.877  14.600
 5851SOL     OW19326   4.232  10.184   0.532
 5851SOL    HW119327   4.287  10.106   0.528
 5851SOL    HW219328   4.177  10.179   0.454
 5852SOL     OW19329   9.622   0.470   7.852
 5852SOL    HW119330   9.664   0.556   7.849
 5852SOL    HW219331   9.683   0.415   7.900
 5853SOL     OW19332   2.888   4.709   7.905
 5853SOL    HW119333   2.902   4.781   7.966
 5853SOL    HW219334   2.833   4.747   7.836
 5854SOL     OW19335   6.733   8.776  12.295
 5854SOL    HW119336   6.799   8.844  12.282
 5854SOL    HW219337   6.754   8.709  12.230
 5855SOL     OW19338   8.296   1.594   2.027
 5855SOL    HW119339   8.249   1.573   2.108
 5855SOL    HW219340   8.233   1.644   1.975
 5856SOL     OW19341  12.067   4.266  11.476
 5856SOL    HW119342  12.032   4.353  11.498
 5856SOL    HW219343  12.033   4.248  11.388
 5857SOL     OW19344   0.715   2.993  12.854
 5857SOL    HW119345   0.697   3.029  12.768
 5857SOL    HW219346   0.761   3.064  12.900
 5858SOL     OW19347   5.497   0.678   4.870
 5858SOL    HW119348   5.540   0.716   4.946
 5858SOL    HW219349   5.502   0.746   4.803
 5859SOL     OW19350  12.934   5.372   9.951
 5859SOL    HW119351  12.919   5.403   9.861
 5859SOL    HW219352  13.009   5.423   9.981
 5860SOL     OW19353  11.439   3.864   0.261
 5860SOL    HW119354  11.388   3.811   0.200
 5860SOL    HW219355  11.389   3.945   0.269
 5861SOL     OW19356   6.769   0.902   8.500
 5861SOL    HW119357   6.696   0.899   8.438
 5861SOL    HW219358   6.841   0.858   8.454
 5862SOL     OW19359   2.687   3.653  11.279
 5862SOL    HW119360   2.754   3.696  11.333
 5862SOL    HW219361   2.604   3.678  11.319
 5863SOL     OW19362   2.769   6.504  14.634
 5863SOL    HW119363   2.787   6.561  14.709
 5863SOL    HW219364   2.855   6.484  14.598
 5864SOL     OW19365   8.112   0.379   4.286
 5864SOL    HW119366   8.023   0.411   4.269
 5864SOL    HW219367   8.116   0.370   4.381
 5865SOL     OW19368   6.721   7.361  13.925
 5865SOL    HW119369   6.641   7.414  13.933
 5865SOL    HW219370   6.725   7.340  13.831
 5866SOL     OW19371   2.600   1.749   2.707
 5866SOL    HW119372   2.565   1.829   2.666
 5866SOL    HW219373   2.688   1.740   2.671
 5867SOL     OW19374  11.726  13.249  11.788
 5867SOL    HW119375  11.734  13.245  11.693
 5867SOL    HW219376  11.790  13.186  11.821
 5868SOL     OW19377  11.548   1.638  13.393
 5868SOL    HW119378  11.471   1.647  13.450
 5868SOL    HW219379  11.536   1.554  13.350
 5869SOL     OW19380  10.623   5.489   7.864
 5869SOL    HW119381  10.573   5.499   7.946
 5869SOL    HW219382  10.663   5.575   7.850
 5870SOL     OW19383   9.079   5.713   1.705
 5870SOL    HW119384   9.050   5.632   1.662
 5870SOL    HW219385   9.013   5.778   1.682
 5871SOL     OW19386   5.500   5.876   2.570
 5871SOL    HW119387   5.550   5.957   2.562
 5871SOL    HW219388   5.423   5.889   2.515
 5872SOL     OW19389   9.376   2.302  11.412
 5872SOL    HW119390   9.450   2.266  11.461
 5872SOL    HW219391   9.398   2.285  11.320
 5873SOL     OW19392   3.556   6.170   6.704
 5873SOL    HW119393   3.471   6.213   6.715
 5873SOL    HW219394   3.551   6.093   6.761
 5874SOL     OW19395   8.708   2.552   4.992
 5874SOL    HW119396   8.625   2.554   4.945
 5874SOL    HW219397   8.730   2.460   5.000
 5875SOL     OW19398  14.420   0.293  10.786
 5875SOL    HW119399  14.407   0.204  10.754
 5875SOL    HW219400  14.383   0.293  10.874
 5876SOL     OW19401   2.898   9.921   7.053
 5876SOL    HW119402   2.836   9.849   7.039
 5876SOL    HW219403   2.954   9.920   6.975
 5877SOL     OW19404   3.085  10.662   9.774
 5877SOL    HW119405   3.052  10.744   9.811
 5877SOL    HW219406   3.068  10.669   9.680
 5878SOL     OW19407   8.731   4.602  10.627
 5878SOL    HW119408   8.719   4.686  10.581
 5878SOL    HW219409   8.685   4.614  10.710
 5879SOL     OW19410   0.326   7.316   1.219
 5879SOL    HW119411   0.392   7.249   1.237
 5879SOL    HW219412   0.244   7.279   1.250
 5880SOL     OW19413   6.896   6.821  13.179
 5880SOL    HW119414   6.967   6.844  13.239
 5880SOL    HW219415   6.818   6.864  13.215
 5881SOL     OW19416   1.228   6.337   9.212
 5881SOL    HW119417   1.309   6.299   9.247
 5881SOL    HW219418   1.256   6.419   9.171
 5882SOL     OW19419  11.861  12.714   5.512
 5882SOL    HW119420  11.857  12.786   5.449
 5882SOL    HW219421  11.775  12.715   5.555
 5883SOL     OW19422   8.951   4.894   4.566
 5883SOL    HW119423   9.003   4.831   4.516
 5883SOL    HW219424   8.867   4.897   4.520
 5884SOL     OW19425  10.571   5.975   7.919
 5884SOL    HW119426  10.646   5.999   7.865
 5884SOL    HW219427  10.494   5.996   7.865
 5885SOL     OW19428   0.003   6.485   0.058
 5885SOL    HW119429  14.798   6.519   0.023
 5885SOL    HW219430  14.865   6.476   0.152
 5886SOL     OW19431   3.228   2.246  14.753
 5886SOL    HW119432   3.283   2.167  14.748
 5886SOL    HW219433   3.142   2.214  14.781
 5887SOL     OW19434   5.868   7.074   7.626
 5887SOL    HW119435   5.818   7.047   7.704
 5887SOL    HW219436   5.804   7.069   7.554
 5888SOL     OW19437   9.243   6.928  10.758
 5888SOL    HW119438   9.162   6.978  10.762
 5888SOL    HW219439   9.310   6.993  10.735
 5889SOL     OW19440   7.279   5.609  10.587
 5889SOL    HW119441   7.349   5.675  10.593
 5889SOL    HW219442   7.231   5.618  10.670
 5890SOL     OW19443   5.638  10.981   8.319
 5890SOL    HW119444   5.652  10.900   8.270
 5890SOL    HW219445   5.546  10.978   8.346
 5891SOL     OW19446   2.860   0.491   1.067
 5891SOL    HW119447   2.912   0.560   1.109
 5891SOL    HW219448   2.773   0.529   1.055
 5892SOL     OW19449  12.176  10.155   6.358
 5892SOL    HW119450  12.128  10.075   6.334
 5892SOL    HW219451  12.108  10.217   6.383
 5893SOL     OW19452   1.160   7.936   3.944
 5893SOL    HW119453   1.130   8.015   3.990
 5893SOL    HW219454   1.084   7.878   3.946
 5894SOL     OW19455   8.802   4.451   2.541
 5894SOL    HW119456   8.815   4.380   2.478
 5894SOL    HW219457   8.709   4.470   2.537
 5895SOL     OW19458   2.335   3.420   4.882
 5895SOL    HW119459   2.295   3.507   4.875
 5895SOL    HW219460   2.267   3.366   4.923
 5896SOL     OW19461   4.836  13.369   1.854
 5896SOL    HW119462   4.879  13.384   1.938
 5896SOL    HW219463   4.764  13.432   1.854
 5897SOL     OW19464  11.334   8.994   4.062
 5897SOL    HW119465  11.330   9.078   4.107
 5897SOL    HW219466  11.272   8.939   4.110
 5898SOL     OW19467   7.200   2.905  13.841
 5898SOL    HW119468   7.182   2.974  13.777
 5898SOL    HW219469   7.242   2.951  13.914
 5899SOL     OW19470  12.796   5.038   0.519
 5899SOL    HW119471  12.736   5.002   0.584
 5899SOL    HW219472  12.851   5.100   0.568
 5900SOL     OW19473   5.636   0.755  11.268
 5900SOL    HW119474   5.617   0.687  11.203
 5900SOL    HW219475   5.720   0.792  11.239
 5901SOL     OW19476   0.260   1.735   2.539
 5901SOL    HW119477   0.186   1.736   2.479
 5901SOL    HW219478   0.335   1.710   2.485
 5902SOL     OW19479   3.767   6.159  14.736
 5902SOL    HW119480   3.853   6.136  14.703
 5902SOL    HW219481   3.706   6.105  14.685
 5903SOL     OW19482  12.288   6.100   6.027
 5903SOL    HW119483  12.379   6.080   6.005
 5903SOL    HW219484  12.247   6.015   6.041
 5904SOL     OW19485   8.867   7.347  11.530
 5904SOL    HW119486   8.927   7.421  11.528
 5904SOL    HW219487   8.873   7.308  11.443
 5905SOL     OW19488   5.942   4.239   6.152
 5905SOL    HW119489   5.887   4.309   6.117
 5905SOL    HW219490   5.952   4.178   6.079
 5906SOL     OW19491   9.297   5.998  13.467
 5906SOL    HW119492   9.379   5.959  13.497
 5906SOL    HW219493   9.254   5.929  13.416
 5907SOL     OW19494   4.465   9.761   9.808
 5907SOL    HW119495   4.528   9.699   9.846
 5907SOL    HW219496   4.426   9.713   9.735
 5908SOL     OW19497   0.682  11.254   7.736
 5908SOL    HW119498   0.647  11.283   7.652
 5908SOL    HW219499   0.686  11.333   7.789
 5909SOL     OW19500   0.795   6.342   8.091
 5909SOL    HW119501   0.724   6.392   8.051
 5909SOL    HW219502   0.775   6.251   8.068
 5910SOL     OW19503  10.533   8.808   2.143
 5910SOL    HW119504  10.536   8.712   2.148
 5910SOL    HW219505  10.488   8.834   2.223
 5911SOL     OW19506   3.338   3.869   3.885
 5911SOL    HW119507   3.316   3.775   3.885
 5911SOL    HW219508   3.376   3.884   3.798
 5912SOL     OW19509  11.894  12.551   7.440
 5912SOL    HW119510  11.832  12.486   7.407
 5912SOL    HW219511  11.850  12.635   7.426
 5913SOL     OW19512   3.364   3.534  12.534
 5913SOL    HW119513   3.293   3.548  12.597
 5913SOL    HW219514   3.443   3.561  12.581
 5914SOL     OW19515   6.516  10.397   6.362
 5914SOL    HW119516   6.421  10.398   6.372
 5914SOL    HW219517   6.538  10.486   6.332
 5915SOL     OW19518   3.877   8.347  12.402
 5915SOL    HW119519   3.890   8.263  12.356
 5915SOL    HW219520   3.941   8.345  12.474
 5916SOL     OW19521  10.853   4.149   6.099
 5916SOL    HW119522  10.883   4.201   6.025
 5916SOL    HW219523  10.881   4.059   6.078
 5917SOL     OW19524   2.014   4.188  12.821
 5917SOL    HW119525   2.036   4.270  12.865
 5917SOL    HW219526   1.920   4.177  12.834
 5918SOL     OW19527   2.815   1.514  14.365
 5918SOL    HW119528   2.757   1.449  14.325
 5918SOL    HW219529   2.855   1.468  14.439
 5919SOL     OW19530  11.420   9.951   7.887
 5919SOL    HW119531  11.481   9.901   7.941
 5919SOL    HW219532  11.362   9.994   7.949
 5920SOL     OW19533  13.447   2.809   5.312
 5920SOL    HW119534  13.506   2.807   5.386
 5920SOL    HW219535  13.491   2.863   5.247
 5921SOL     OW19536   8.399   3.479  13.558
 5921SOL    HW119537   8.325   3.434  13.598
 5921SOL    HW219538   8.406   3.561  13.607
 5922SOL     OW19539   3.609   5.893   8.395
 5922SOL    HW119540   3.627   5.931   8.309
 5922SOL    HW219541   3.515   5.876   8.396
 5923SOL     OW19542  14.252   1.769   5.067
 5923SOL    HW119543  14.161   1.771   5.039
 5923SOL    HW219544  14.251   1.720   5.149
 5924SOL     OW19545   7.957  12.912  12.315
 5924SOL    HW119546   7.985  12.961  12.392
 5924SOL    HW219547   8.001  12.827  12.323
 5925SOL     OW19548  13.420   6.789   5.856
 5925SOL    HW119549  13.417   6.833   5.941
 5925SOL    HW219550  13.460   6.704   5.874
 5926SOL     OW19551   6.842   2.974   9.781
 5926SOL    HW119552   6.792   3.047   9.744
 5926SOL    HW219553   6.930   2.986   9.745
 5927SOL     OW19554   7.058   4.556   3.885
 5927SOL    HW119555   7.145   4.586   3.856
 5927SOL    HW219556   7.076   4.501   3.960
 5928SOL     OW19557   7.732   1.202   4.862
 5928SOL    HW119558   7.813   1.150   4.861
 5928SOL    HW219559   7.748   1.270   4.797
 5929SOL     OW19560   6.575   3.182   3.232
 5929SOL    HW119561   6.624   3.106   3.200
 5929SOL    HW219562   6.502   3.144   3.282
 5930SOL     OW19563   8.820   9.358  14.340
 5930SOL    HW119564   8.874   9.310  14.403
 5930SOL    HW219565   8.784   9.291  14.282
 5931SOL     OW19566  12.435   8.048   6.480
 5931SOL    HW119567  12.499   7.987   6.443
 5931SOL    HW219568  12.355   7.996   6.491
 5932SOL     OW19569   5.973   6.719   4.758
 5932SOL    HW119570   6.058   6.712   4.802
 5932SOL    HW219571   5.977   6.803   4.713
 5933SOL     OW19572   5.038  12.932  14.676
 5933SOL    HW119573   5.027  12.854  14.622
 5933SOL    HW219574   5.128  12.959  14.662
 5934SOL     OW19575   2.655   7.705  11.856
 5934SOL    HW119576   2.578   7.744  11.897
 5934SOL    HW219577   2.714   7.687  11.929
 5935SOL     OW19578  11.351   8.898  12.637
 5935SOL    HW119579  11.369   8.945  12.555
 5935SOL    HW219580  11.297   8.823  12.611
 5936SOL     OW19581   3.531   3.364   5.457
 5936SOL    HW119582   3.530   3.427   5.529
 5936SOL    HW219583   3.483   3.289   5.490
 5937SOL     OW19584  11.802   2.806  10.587
 5937SOL    HW119585  11.892   2.832  10.572
 5937SOL    HW219586  11.749   2.876  10.547
 5938SOL     OW19587   4.652   9.326   0.455
 5938SOL    HW119588   4.702   9.401   0.425
 5938SOL    HW219589   4.601   9.299   0.379
 5939SOL     OW19590   9.126   2.024   0.023
 5939SOL    HW119591   9.197   2.086   0.036
 5939SOL    HW219592   9.053   2.078  14.870
 5940SOL     OW19593   9.247  14.136  13.640
 5940SOL    HW119594   9.275  14.087  13.563
 5940SOL    HW219595   9.154  14.117  13.649
 5941SOL     OW19596  12.485  13.313   4.143
 5941SOL    HW119597  12.436  13.328   4.224
 5941SOL    HW219598  12.577  13.314   4.170
 5942SOL     OW19599  12.271   8.210  13.442
 5942SOL    HW119600  12.201   8.211  13.507
 5942SOL    HW219601  12.327   8.137  13.469
 5943SOL     OW19602   0.942   2.608   0.878
 5943SOL    HW119603   0.987   2.595   0.794
 5943SOL    HW219604   0.917   2.520   0.906
 5944SOL     OW19605   2.614   6.077   2.744
 5944SOL    HW119606   2.570   6.162   2.739
 5944SOL    HW219607   2.703   6.098   2.773
 5945SOL     OW19608  10.374  13.300   4.387
 5945SOL    HW119609  10.423  13.308   4.305
 5945SOL    HW219610  10.365  13.391   4.418
 5946SOL     OW19611  11.312  11.098  11.105
 5946SOL    HW119612  11.308  11.069  11.013
 5946SOL    HW219613  11.368  11.033  11.148
 5947SOL     OW19614  11.967  13.927   4.118
 5947SOL    HW119615  11.973  13.855   4.181
 5947SOL    HW219616  12.036  13.909   4.054
 5948SOL     OW19617   5.998  13.541   2.446
 5948SOL    HW119618   6.008  13.633   2.422
 5948SOL    HW219619   5.945  13.543   2.527
 5949SOL     OW19620  14.669   3.063   6.357
 5949SOL    HW119621  14.574   3.070   6.345
 5949SOL    HW219622  14.685   3.096   6.445
 5950SOL     OW19623   4.056   2.074  14.148
 5950SOL    HW119624   4.012   2.039  14.226
 5950SOL    HW219625   4.149   2.058  14.163
 5951SOL     OW19626   6.224   2.042  13.684
 5951SOL    HW119627   6.242   1.950  13.703
 5951SOL    HW219628   6.143   2.061  13.730
 5952SOL     OW19629   7.730   5.871   8.931
 5952SOL    HW119630   7.811   5.857   8.980
 5952SOL    HW219631   7.756   5.923   8.855
 5953SOL     OW19632   8.456  13.746   9.400
 5953SOL    HW119633   8.528  13.781   9.347
 5953SOL    HW219634   8.500  13.695   9.468
 5954SOL     OW19635   7.760  12.650  13.091
 5954SOL    HW119636   7.802  12.707  13.027
 5954SOL    HW219637   7.831  12.600  13.130
 5955SOL     OW19638   8.286   1.164   8.035
 5955SOL    HW119639   8.309   1.247   7.991
 5955SOL    HW219640   8.304   1.180   8.127
 5956SOL     OW19641   7.344   9.177  13.097
 5956SOL    HW119642   7.424   9.218  13.130
 5956SOL    HW219643   7.282   9.250  13.090
 5957SOL     OW19644  14.687   2.464  11.335
 5957SOL    HW119645  14.694   2.408  11.412
 5957SOL    HW219646  14.719   2.550  11.364
 5958SOL     OW19647   5.010   8.475   1.327
 5958SOL    HW119648   4.924   8.432   1.329
 5958SOL    HW219649   5.064   8.418   1.273
 5959SOL     OW19650  10.014   7.763   4.569
 5959SOL    HW119651  10.094   7.814   4.555
 5959SOL    HW219652   9.971   7.806   4.643
 5960SOL     OW19653   0.278  11.763  12.877
 5960SOL    HW119654   0.273  11.752  12.783
 5960SOL    HW219655   0.202  11.716  12.911
 5961SOL     OW19656   8.959   7.936  11.117
 5961SOL    HW119657   9.008   7.984  11.184
 5961SOL    HW219658   8.918   7.864  11.163
 5962SOL     OW19659   7.627   4.040   2.960
 5962SOL    HW119660   7.667   4.111   2.910
 5962SOL    HW219661   7.645   4.061   3.051
 5963SOL     OW19662   9.384   5.141   6.847
 5963SOL    HW119663   9.422   5.076   6.905
 5963SOL    HW219664   9.438   5.138   6.768
 5964SOL     OW19665   1.901   4.493   0.660
 5964SOL    HW119666   1.823   4.439   0.674
 5964SOL    HW219667   1.901   4.554   0.734
 5965SOL     OW19668   9.067   6.522   8.904
 5965SOL    HW119669   9.121   6.586   8.951
 5965SOL    HW219670   9.028   6.572   8.832
 5966SOL     OW19671  14.305   9.210   6.958
 5966SOL    HW119672  14.226   9.158   6.970
 5966SOL    HW219673  14.314   9.260   7.039
 5967SOL     OW19674   0.633   7.800  13.521
 5967SOL    HW119675   0.654   7.870  13.460
 5967SOL    HW219676   0.539   7.809  13.537
 5968SOL     OW19677   7.638   0.490   0.299
 5968SOL    HW119678   7.628   0.489   0.204
 5968SOL    HW219679   7.550   0.505   0.333
 5969SOL     OW19680   1.921   9.626   0.219
 5969SOL    HW119681   1.948   9.674   0.141
 5969SOL    HW219682   1.934   9.534   0.195
 5970SOL     OW19683   9.843   3.105   2.974
 5970SOL    HW119684   9.914   3.067   3.026
 5970SOL    HW219685   9.875   3.191   2.949
 5971SOL     OW19686  10.707   5.135  12.520
 5971SOL    HW119687  10.629   5.145  12.465
 5971SOL    HW219688  10.677   5.083  12.595
 5972SOL     OW19689  11.985   3.158   7.043
 5972SOL    HW119690  12.027   3.154   7.129
 5972SOL    HW219691  12.057   3.170   6.982
 5973SOL     OW19692  13.084   5.261   2.147
 5973SOL    HW119693  13.129   5.275   2.064
 5973SOL    HW219694  13.149   5.284   2.214
 5974SOL     OW19695   2.591   7.558   6.927
 5974SOL    HW119696   2.682   7.587   6.924
 5974SOL    HW219697   2.567   7.566   7.020
 5975SOL     OW19698   1.166   6.949   9.433
 5975SOL    HW119699   1.247   6.900   9.418
 5975SOL    HW219700   1.124   6.906   9.507
 5976SOL     OW19701  12.830   2.390   2.591
 5976SOL    HW119702  12.919   2.382   2.624
 5976SOL    HW219703  12.806   2.302   2.563
 5977SOL     OW19704   9.691  10.756   5.657
 5977SOL    HW119705   9.693  10.694   5.731
 5977SOL    HW219706   9.671  10.840   5.697
 5978SOL     OW19707   5.491   8.874   9.795
 5978SOL    HW119708   5.554   8.877   9.723
 5978SOL    HW219709   5.526   8.934   9.860
 5979SOL     OW19710   5.251   0.587   4.868
 5979SOL    HW119711   5.253   0.497   4.834
 5979SOL    HW219712   5.342   0.616   4.862
 5980SOL     OW19713   8.243   6.954   0.680
 5980SOL    HW119714   8.277   6.866   0.692
 5980SOL    HW219715   8.311   7.011   0.715
 5981SOL     OW19716  14.862  12.389   5.451
 5981SOL    HW119717   0.028  12.306   5.470
 5981SOL    HW219718   0.007  12.446   5.525
 5982SOL     OW19719  13.683   1.068   1.158
 5982SOL    HW119720  13.600   1.059   1.205
 5982SOL    HW219721  13.672   1.015   1.079
 5983SOL     OW19722   7.391   4.229   6.301
 5983SOL    HW119723   7.371   4.149   6.254
 5983SOL    HW219724   7.471   4.262   6.260
 5984SOL     OW19725   4.664  14.712  12.423
 5984SOL    HW119726   4.629  14.771  12.489
 5984SOL    HW219727   4.617  14.734  12.343
 5985SOL     OW19728   8.061   5.352   7.166
 5985SOL    HW119729   8.130   5.287   7.156
 5985SOL    HW219730   7.992   5.323   7.106
 5986SOL     OW19731  13.511  10.471  11.104
 5986SOL    HW119732  13.504  10.566  11.113
 5986SOL    HW219733  13.450  10.436  11.169
 5987SOL     OW19734  12.997  13.283   5.539
 5987SOL    HW119735  12.961  13.249   5.621
 5987SOL    HW219736  13.018  13.374   5.558
 5988SOL     OW19737  12.008  10.021  11.326
 5988SOL    HW119738  12.025  10.109  11.293
 5988SOL    HW219739  11.998  10.032  11.420
 5989SOL     OW19740   6.533  11.491   8.557
 5989SOL    HW119741   6.548  11.400   8.529
 5989SOL    HW219742   6.582  11.499   8.639
 5990SOL     OW19743   1.010  12.955  10.590
 5990SOL    HW119744   0.997  12.946  10.684
 5990SOL    HW219745   1.103  12.974  10.580
 5991SOL     OW19746   7.351   7.736  12.317
 5991SOL    HW119747   7.300   7.657  12.331
 5991SOL    HW219748   7.333   7.791  12.393
 5992SOL     OW19749  13.912   4.249   3.055
 5992SOL    HW119750  13.957   4.330   3.080
 5992SOL    HW219751  13.943   4.231   2.966
 5993SOL     OW19752  13.376   9.727   7.524
 5993SOL    HW119753  13.291   9.685   7.540
 5993SOL    HW219754  13.379   9.800   7.585
 5994SOL     OW19755   3.707   6.713   2.796
 5994SOL    HW119756   3.793   6.683   2.766
 5994SOL    HW219757   3.727   6.779   2.863
 5995SOL     OW19758   1.329   7.274   6.099
 5995SOL    HW119759   1.330   7.181   6.122
 5995SOL    HW219760   1.415   7.291   6.061
 5996SOL     OW19761  11.361  10.467   4.926
 5996SOL    HW119762  11.428  10.477   4.858
 5996SOL    HW219763  11.403  10.500   5.006
 5997SOL     OW19764   4.170  14.434   1.057
 5997SOL    HW119765   4.249  14.390   1.091
 5997SOL    HW219766   4.174  14.522   1.094
 5998SOL     OW19767   6.739  13.833  14.877
 5998SOL    HW119768   6.659  13.880  14.857
 5998SOL    HW219769   6.754  13.777  14.801
 5999SOL     OW19770   7.895   3.072  13.872
 5999SOL    HW119771   7.826   3.077  13.806
 5999SOL    HW219772   7.914   2.978  13.879
 6000SOL     OW19773   2.895   3.770   2.301
 6000SOL    HW119774   2.835   3.845   2.294
 6000SOL    HW219775   2.982   3.809   2.300
 6001SOL     OW19776   4.381  11.634   7.676
 6001SOL    HW119777   4.340  11.595   7.753
 6001SOL    HW219778   4.353  11.726   7.678
 6002SOL     OW19779  13.082  10.422   1.992
 6002SOL    HW119780  13.093  10.475   2.070
 6002SOL    HW219781  13.055  10.483   1.924
 6003SOL     OW19782   0.663  12.411   7.776
 6003SOL    HW119783   0.667  12.461   7.857
 6003SOL    HW219784   0.571  12.412   7.751
 6004SOL     OW19785   4.058   4.877   3.717
 6004SOL    HW119786   4.114   4.807   3.751
 6004SOL    HW219787   3.984   4.879   3.777
 6005SOL     OW19788  10.445   0.230   7.695
 6005SOL    HW119789  10.390   0.278   7.757
 6005SOL    HW219790  10.499   0.173   7.751
 6006SOL     OW19791  14.476   2.301   8.011
 6006SOL    HW119792  14.542   2.270   8.072
 6006SOL    HW219793  14.525   2.335   7.937
 6007SOL     OW19794   2.648  11.667  12.575
 6007SOL    HW119795   2.696  11.684  12.656
 6007SOL    HW219796   2.703  11.705  12.506
 6008SOL     OW19797   9.666  12.587   4.396
 6008SOL    HW119798   9.643  12.560   4.307
 6008SOL    HW219799   9.748  12.636   4.385
 6009SOL     OW19800   2.957   6.963   0.227
 6009SOL    HW119801   3.016   6.960   0.302
 6009SOL    HW219802   3.014   6.958   0.150
 6010SOL     OW19803  10.645  11.219   0.294
 6010SOL    HW119804  10.621  11.197   0.204
 6010SOL    HW219805  10.625  11.140   0.345
 6011SOL     OW19806   3.178  14.677   4.599
 6011SOL    HW119807   3.255  14.629   4.630
 6011SOL    HW219808   3.116  14.673   4.671
 6012SOL     OW19809   6.047   0.302  12.092
 6012SOL    HW119810   6.137   0.326  12.116
 6012SOL    HW219811   6.048   0.207  12.086
 6013SOL     OW19812  13.747   3.596  14.343
 6013SOL    HW119813  13.682   3.638  14.288
 6013SOL    HW219814  13.791   3.534  14.285
 6014SOL     OW19815   9.208   0.262  10.322
 6014SOL    HW119816   9.273   0.197  10.297
 6014SOL    HW219817   9.160   0.280  10.241
 6015SOL     OW19818   4.975  12.417   1.962
 6015SOL    HW119819   5.011  12.461   1.885
 6015SOL    HW219820   5.020  12.458   2.036
 6016SOL     OW19821   6.085   4.604  11.787
 6016SOL    HW119822   6.073   4.677  11.847
 6016SOL    HW219823   6.178   4.584  11.792
 6017SOL     OW19824   5.216   3.938  14.823
 6017SOL    HW119825   5.175   4.008  14.873
 6017SOL    HW219826   5.252   3.879   0.012
 6018SOL     OW19827   9.170   2.677  12.602
 6018SOL    HW119828   9.199   2.626  12.526
 6018SOL    HW219829   9.085   2.712  12.576
 6019SOL     OW19830   2.815   6.973  12.020
 6019SOL    HW119831   2.844   7.041  12.081
 6019SOL    HW219832   2.806   6.894  12.074
 6020SOL     OW19833  11.479   5.683  13.117
 6020SOL    HW119834  11.443   5.728  13.193
 6020SOL    HW219835  11.554   5.635  13.151
 6021SOL     OW19836   4.215  12.776   1.786
 6021SOL    HW119837   4.178  12.862   1.763
 6021SOL    HW219838   4.184  12.761   1.875
 6022SOL     OW19839   1.487   4.118  13.419
 6022SOL    HW119840   1.523   4.099  13.333
 6022SOL    HW219841   1.545   4.074  13.480
 6023SOL     OW19842   1.796   9.127  11.691
 6023SOL    HW119843   1.879   9.080  11.700
 6023SOL    HW219844   1.741   9.068  11.640
 6024SOL     OW19845   1.188  13.323   5.762
 6024SOL    HW119846   1.112  13.327   5.703
 6024SOL    HW219847   1.150  13.307   5.848
 6025SOL     OW19848   9.379   1.614   7.208
 6025SOL    HW119849   9.446   1.623   7.275
 6025SOL    HW219850   9.421   1.645   7.128
 6026SOL     OW19851  12.565   5.761   9.666
 6026SOL    HW119852  12.550   5.834   9.607
 6026SOL    HW219853  12.643   5.718   9.633
 6027SOL     OW19854   7.871   6.563   7.934
 6027SOL    HW119855   7.908   6.647   7.905
 6027SOL    HW219856   7.796   6.587   7.989
 6028SOL     OW19857  11.385  11.258  12.334
 6028SOL    HW119858  11.416  11.218  12.252
 6028SOL    HW219859  11.348  11.342  12.307
 6029SOL     OW19860   0.685  13.789   8.122
 6029SOL    HW119861   0.697  13.794   8.217
 6029SOL    HW219862   0.674  13.880   8.095
 6030SOL     OW19863  13.920  10.104   0.688
 6030SOL    HW119864  13.832  10.112   0.651
 6030SOL    HW219865  13.953  10.194   0.691
 6031SOL     OW19866   2.844   8.249   6.430
 6031SOL    HW119867   2.927   8.266   6.474
 6031SOL    HW219868   2.793   8.199   6.494
 6032SOL     OW19869   3.793   5.615  12.566
 6032SOL    HW119870   3.792   5.571  12.481
 6032SOL    HW219871   3.867   5.675  12.562
 6033SOL     OW19872   1.854   9.087   4.311
 6033SOL    HW119873   1.812   9.110   4.394
 6033SOL    HW219874   1.799   9.128   4.245
 6034SOL     OW19875  12.078   7.743   3.746
 6034SOL    HW119876  12.112   7.657   3.721
 6034SOL    HW219877  12.011   7.762   3.681
 6035SOL     OW19878   3.632   8.874   6.166
 6035SOL    HW119879   3.588   8.794   6.135
 6035SOL    HW219880   3.667   8.914   6.086
 6036SOL     OW19881  12.152   3.269   0.269
 6036SOL    HW119882  12.125   3.352   0.308
 6036SOL    HW219883  12.247   3.266   0.282
 6037SOL     OW19884   2.613   7.660   4.862
 6037SOL    HW119885   2.694   7.609   4.852
 6037SOL    HW219886   2.594   7.693   4.774
 6038SOL     OW19887  12.032  10.229   9.834
 6038SOL    HW119888  12.114  10.258   9.794
 6038SOL    HW219889  11.965  10.251   9.769
 6039SOL     OW19890  13.128  11.936   1.455
 6039SOL    HW119891  13.048  11.888   1.479
 6039SOL    HW219892  13.162  11.889   1.379
 6040SOL     OW19893  10.263   7.001  10.416
 6040SOL    HW119894  10.185   6.982  10.468
 6040SOL    HW219895  10.312   6.919  10.416
 6041SOL     OW19896   2.296   8.516  11.193
 6041SOL    HW119897   2.337   8.598  11.165
 6041SOL    HW219898   2.349   8.488  11.267
 6042SOL     OW19899   3.507   3.426   9.316
 6042SOL    HW119900   3.466   3.340   9.326
 6042SOL    HW219901   3.595   3.408   9.284
 6043SOL     OW19902  11.998   0.690   0.320
 6043SOL    HW119903  11.910   0.720   0.340
 6043SOL    HW219904  11.988   0.596   0.303
 6044SOL     OW19905   0.615   7.080  14.704
 6044SOL    HW119906   0.704   7.044  14.715
 6044SOL    HW219907   0.557   7.007  14.725
 6045SOL     OW19908   7.220   4.457   9.445
 6045SOL    HW119909   7.150   4.418   9.497
 6045SOL    HW219910   7.296   4.458   9.504
 6046SOL     OW19911   6.880  10.550   5.706
 6046SOL    HW119912   6.907  10.463   5.677
 6046SOL    HW219913   6.929  10.610   5.650
 6047SOL     OW19914  13.360   5.542   5.415
 6047SOL    HW119915  13.318   5.509   5.493
 6047SOL    HW219916  13.288   5.558   5.354
 6048SOL     OW19917  12.313   5.514  11.644
 6048SOL    HW119918  12.368   5.469  11.708
 6048SOL    HW219919  12.225   5.512  11.681
 6049SOL     OW19920   6.206   3.927   0.882
 6049SOL    HW119921   6.119   3.909   0.918
 6049SOL    HW219922   6.251   3.975   0.952
 6050SOL     OW19923  13.823  13.631  12.863
 6050SOL    HW119924  13.773  13.560  12.904
 6050SOL    HW219925  13.790  13.634  12.773
 6051SOL     OW19926   2.603   4.303  13.083
 6051SOL    HW119927   2.583   4.252  13.161
 6051SOL    HW219928   2.699   4.306  13.080
 6052SOL     OW19929   4.324   3.258   0.354
 6052SOL    HW119930   4.334   3.234   0.446
 6052SOL    HW219931   4.231   3.277   0.343
 6053SOL     OW19932  13.743   3.140  11.482
 6053SOL    HW119933  13.747   3.203  11.410
 6053SOL    HW219934  13.727   3.194  11.559
 6054SOL     OW19935  12.160   2.375   2.548
 6054SOL    HW119936  12.160   2.468   2.525
 6054SOL    HW219937  12.247   2.359   2.583
 6055SOL     OW19938   0.685   1.803  10.880
 6055SOL    HW119939   0.753   1.748  10.841
 6055SOL    HW219940   0.603   1.761  10.855
 6056SOL     OW19941   9.641  11.982   7.434
 6056SOL    HW119942   9.588  11.907   7.407
 6056SOL    HW219943   9.577  12.045   7.468
 6057SOL     OW19944   6.997   1.739   0.946
 6057SOL    HW119945   6.916   1.781   0.919
 6057SOL    HW219946   6.970   1.677   1.014
 6058SOL     OW19947  14.101   0.229  13.731
 6058SOL    HW119948  14.052   0.183  13.800
 6058SOL    HW219949  14.109   0.165  13.660
 6059SOL     OW19950   0.859   0.771  10.411
 6059SOL    HW119951   0.933   0.829  10.392
 6059SOL    HW219952   0.784   0.829  10.419
 6060SOL     OW19953   5.598   5.067   1.967
 6060SOL    HW119954   5.554   5.110   1.893
 6060SOL    HW219955   5.691   5.072   1.947
 6061SOL     OW19956   0.026   5.424   3.162
 6061SOL    HW119957   0.046   5.436   3.255
 6061SOL    HW219958   0.109   5.393   3.124
 6062SOL     OW19959  14.736   5.831   5.492
 6062SOL    HW119960  14.742   5.901   5.557
 6062SOL    HW219961  14.685   5.763   5.536
 6063SOL     OW19962  12.080   0.836   7.433
 6063SOL    HW119963  12.132   0.766   7.393
 6063SOL    HW219964  12.132   0.915   7.421
 6064SOL     OW19965   2.764  10.499   3.356
 6064SOL    HW119966   2.729  10.455   3.433
 6064SOL    HW219967   2.853  10.465   3.347
 6065SOL     OW19968   5.996  12.820   7.141
 6065SOL    HW119969   5.905  12.797   7.120
 6065SOL    HW219970   5.991  12.910   7.174
 6066SOL     OW19971   7.163  13.003   3.148
 6066SOL    HW119972   7.140  12.910   3.145
 6066SOL    HW219973   7.251  13.007   3.111
 6067SOL     OW19974   7.070  11.612  11.785
 6067SOL    HW119975   7.130  11.636  11.856
 6067SOL    HW219976   7.034  11.527  11.812
 6068SOL     OW19977  13.979  14.777   8.745
 6068SOL    HW119978  13.955  14.684   8.739
 6068SOL    HW219979  13.958  14.800   8.836
 6069SOL     OW19980   2.484  12.494  10.151
 6069SOL    HW119981   2.553  12.559  10.140
 6069SOL    HW219982   2.422  12.536  10.211
 6070SOL     OW19983  12.125  13.885   9.018
 6070SOL    HW119984  12.197  13.831   8.986
 6070SOL    HW219985  12.146  13.974   8.989
 6071SOL     OW19986  12.416   7.874  11.544
 6071SOL    HW119987  12.489   7.928  11.574
 6071SOL    HW219988  12.350   7.883  11.613
 6072SOL     OW19989   8.437   5.112   8.940
 6072SOL    HW119990   8.430   5.067   8.856
 6072SOL    HW219991   8.387   5.193   8.929
 6073SOL     OW19992   2.128   8.565  11.854
 6073SOL    HW119993   2.192   8.596  11.919
 6073SOL    HW219994   2.044   8.597  11.887
 6074SOL     OW19995  11.916   0.531  13.081
 6074SOL    HW119996  11.952   0.464  13.023
 6074SOL    HW219997  11.842   0.488  13.124
 6075SOL     OW19998  14.149   8.711  10.400
 6075SOL    HW119999  14.141   8.758  10.483
 6075SOL    HW220000  14.059   8.691  10.375
 6076SOL     OW20001   3.783   6.159  12.122
 6076SOL    HW120002   3.819   6.103  12.052
 6076SOL    HW220003   3.712   6.208  12.080
 6077SOL     OW20004   8.784   3.578   9.807
 6077SOL    HW120005   8.721   3.542   9.869
 6077SOL    HW220006   8.781   3.672   9.822
 6078SOL     OW20007  12.834   4.279   4.728
 6078SOL    HW120008  12.853   4.291   4.634
 6078SOL    HW220009  12.849   4.186   4.743
 6079SOL     OW20010   9.040  10.124  14.699
 6079SOL    HW120011   9.043  10.107  14.793
 6079SOL    HW220012   9.131  10.131  14.672
 6080SOL     OW20013   0.598   2.758   7.741
 6080SOL    HW120014   0.679   2.800   7.714
 6080SOL    HW220015   0.551   2.741   7.660
 6081SOL     OW20016   8.070  10.844  12.958
 6081SOL    HW120017   8.041  10.753  12.958
 6081SOL    HW220018   8.165  10.839  12.949
 6082SOL     OW20019  13.170  10.156   8.284
 6082SOL    HW120020  13.160  10.093   8.355
 6082SOL    HW220021  13.087  10.153   8.237
 6083SOL     OW20022   4.686   5.954   2.961
 6083SOL    HW120023   4.640   6.012   2.900
 6083SOL    HW220024   4.662   5.985   3.048
 6084SOL     OW20025  12.417   0.513   8.494
 6084SOL    HW120026  12.499   0.561   8.499
 6084SOL    HW220027  12.438   0.426   8.527
 6085SOL     OW20028  10.723   6.161   9.608
 6085SOL    HW120029  10.674   6.083   9.635
 6085SOL    HW220030  10.661   6.233   9.618
 6086SOL     OW20031  12.139   1.621   3.576
 6086SOL    HW120032  12.230   1.609   3.550
 6086SOL    HW220033  12.141   1.628   3.671
 6087SOL     OW20034   1.597  14.596  10.471
 6087SOL    HW120035   1.623  14.591  10.379
 6087SOL    HW220036   1.538  14.670  10.475
 6088SOL     OW20037   5.848  11.411  13.879
 6088SOL    HW120038   5.925  11.383  13.929
 6088SOL    HW220039   5.787  11.443  13.946
 6089SOL     OW20040   8.206  13.216   0.122
 6089SOL    HW120041   8.208  13.242   0.030
 6089SOL    HW220042   8.221  13.122   0.122
 6090SOL     OW20043   1.862   5.160   5.038
 6090SOL    HW120044   1.780   5.191   5.077
 6090SOL    HW220045   1.874   5.215   4.961
 6091SOL     OW20046   8.749   1.242  10.086
 6091SOL    HW120047   8.734   1.149  10.103
 6091SOL    HW220048   8.776   1.277  10.171
 6092SOL     OW20049  12.724   5.352  12.708
 6092SOL    HW120050  12.637   5.313  12.713
 6092SOL    HW220051  12.709   5.447  12.709
 6093SOL     OW20052   6.376  10.872   8.427
 6093SOL    HW120053   6.382  10.926   8.505
 6093SOL    HW220054   6.371  10.935   8.354
 6094SOL     OW20055   5.757   0.648   2.815
 6094SOL    HW120056   5.817   0.710   2.858
 6094SOL    HW220057   5.760   0.570   2.870
 6095SOL     OW20058   7.790  10.508   2.884
 6095SOL    HW120059   7.830  10.438   2.833
 6095SOL    HW220060   7.697  10.504   2.861
 6096SOL     OW20061  11.049   0.998   3.504
 6096SOL    HW120062  11.007   0.921   3.466
 6096SOL    HW220063  11.143   0.985   3.488
 6097SOL     OW20064  14.724   0.638  12.620
 6097SOL    HW120065  14.671   0.589  12.557
 6097SOL    HW220066  14.671   0.640  12.700
 6098SOL     OW20067   2.906  14.801   2.766
 6098SOL    HW120068   2.985  14.854   2.761
 6098SOL    HW220069   2.935  14.718   2.804
 6099SOL     OW20070  11.219   1.910   1.272
 6099SOL    HW120071  11.309   1.928   1.245
 6099SOL    HW220072  11.166   1.934   1.195
 6100SOL     OW20073   6.864  12.736  12.649
 6100SOL    HW120074   6.847  12.724  12.555
 6100SOL    HW220075   6.803  12.676  12.692
 6101SOL     OW20076   6.792   4.462   0.197
 6101SOL    HW120077   6.725   4.394   0.187
 6101SOL    HW220078   6.875   4.414   0.199
 6102SOL     OW20079   0.169   0.951   2.254
 6102SOL    HW120080   0.123   1.035   2.260
 6102SOL    HW220081   0.261   0.975   2.246
 6103SOL     OW20082   4.864  12.124  14.232
 6103SOL    HW120083   4.873  12.219  14.224
 6103SOL    HW220084   4.771  12.110  14.250
 6104SOL     OW20085   8.043  11.023  14.544
 6104SOL    HW120086   8.126  11.038  14.589
 6104SOL    HW220087   7.981  11.005  14.614
 6105SOL     OW20088   5.035  14.221  11.315
 6105SOL    HW120089   5.036  14.309  11.277
 6105SOL    HW220090   5.107  14.175  11.271
 6106SOL     OW20091   6.676   8.851   4.412
 6106SOL    HW120092   6.605   8.794   4.442
 6106SOL    HW220093   6.703   8.899   4.490
 6107SOL     OW20094   8.876  11.598   4.473
 6107SOL    HW120095   8.896  11.512   4.434
 6107SOL    HW220096   8.948  11.614   4.533
 6108SOL     OW20097  13.088   1.840  11.491
 6108SOL    HW120098  13.158   1.891  11.451
 6108SOL    HW220099  13.036   1.808  11.417
 6109SOL     OW20100  12.124   1.625  11.035
 6109SOL    HW120101  12.083   1.700  10.991
 6109SOL    HW220102  12.135   1.653  11.125
 6110SOL     OW20103   1.898   5.586  14.671
 6110SOL    HW120104   1.931   5.512  14.620
 6110SOL    HW220105   1.967   5.652  14.664
 6111SOL     OW20106  11.489  12.220   1.100
 6111SOL    HW120107  11.474  12.128   1.075
 6111SOL    HW220108  11.575  12.220   1.141
 6112SOL     OW20109  13.020   0.207   5.748
 6112SOL    HW120110  13.063   0.283   5.786
 6112SOL    HW220111  13.069   0.132   5.783
 6113SOL     OW20112  13.896  10.935  11.736
 6113SOL    HW120113  13.859  10.862  11.687
 6113SOL    HW220114  13.974  10.960  11.687
 6114SOL     OW20115  13.141   4.064   5.182
 6114SOL    HW120116  13.130   3.970   5.197
 6114SOL    HW220117  13.212   4.070   5.118
 6115SOL     OW20118   0.546  13.032  10.062
 6115SOL    HW120119   0.608  12.981  10.115
 6115SOL    HW220120   0.460  13.010  10.098
 6116SOL     OW20121   2.811   6.799   3.911
 6116SOL    HW120122   2.861   6.732   3.863
 6116SOL    HW220123   2.815   6.876   3.854
 6117SOL     OW20124  14.650   8.208   8.584
 6117SOL    HW120125  14.616   8.121   8.603
 6117SOL    HW220126  14.744   8.203   8.604
 6118SOL     OW20127   7.220   7.655   0.637
 6118SOL    HW120128   7.262   7.701   0.564
 6118SOL    HW220129   7.149   7.713   0.665
 6119SOL     OW20130   9.262  14.052   2.041
 6119SOL    HW120131   9.199  14.084   1.977
 6119SOL    HW220132   9.276  14.126   2.100
 6120SOL     OW20133   8.625  13.436  12.975
 6120SOL    HW120134   8.689  13.470  12.912
 6120SOL    HW220135   8.547  13.418  12.923
 6121SOL     OW20136   6.791   2.380   9.358
 6121SOL    HW120137   6.872   2.420   9.388
 6121SOL    HW220138   6.817   2.321   9.288
 6122SOL     OW20139  13.480   4.678  14.325
 6122SOL    HW120140  13.412   4.614  14.345
 6122SOL    HW220141  13.456   4.756  14.376
 6123SOL     OW20142   6.180   7.216   0.158
 6123SOL    HW120143   6.191   7.254   0.245
 6123SOL    HW220144   6.086   7.199   0.151
 6124SOL     OW20145   6.794   6.567   9.645
 6124SOL    HW120146   6.850   6.495   9.618
 6124SOL    HW220147   6.853   6.642   9.656
 6125SOL     OW20148  12.223   8.214   5.417
 6125SOL    HW120149  12.197   8.301   5.386
 6125SOL    HW220150  12.201   8.215   5.510
 6126SOL     OW20151  10.064  10.590   1.700
 6126SOL    HW120152  10.129  10.526   1.728
 6126SOL    HW220153   9.982  10.560   1.739
 6127SOL     OW20154   9.044   6.723  11.613
 6127SOL    HW120155   9.093   6.794  11.572
 6127SOL    HW220156   8.954   6.734  11.581
 6128SOL     OW20157   9.231   5.575   2.627
 6128SOL    HW120158   9.273   5.645   2.677
 6128SOL    HW220159   9.275   5.578   2.541
 6129SOL     OW20160   0.561   6.174   5.540
 6129SOL    HW120161   0.584   6.125   5.461
 6129SOL    HW220162   0.610   6.256   5.533
 6130SOL     OW20163   3.713  11.266  11.614
 6130SOL    HW120164   3.791  11.304  11.573
 6130SOL    HW220165   3.644  11.330  11.596
 6131SOL     OW20166   5.379   1.396  10.513
 6131SOL    HW120167   5.473   1.405  10.532
 6131SOL    HW220168   5.336   1.415  10.596
 6132SOL     OW20169   5.135  11.623   1.119
 6132SOL    HW120170   5.045  11.593   1.130
 6132SOL    HW220171   5.128  11.698   1.060
 6133SOL     OW20172  14.753   9.638  13.969
 6133SOL    HW120173  14.710   9.585  14.036
 6133SOL    HW220174  14.698   9.716  13.963
 6134SOL     OW20175   5.353   6.472   6.091
 6134SOL    HW120176   5.352   6.532   6.164
 6134SOL    HW220177   5.434   6.422   6.101
 6135SOL     OW20178  13.666   1.949   4.998
 6135SOL    HW120179  13.711   1.945   4.913
 6135SOL    HW220180  13.599   1.882   4.992
 6136SOL     OW20181   4.166  10.382   9.374
 6136SOL    HW120182   4.238  10.432   9.336
 6136SOL    HW220183   4.104  10.372   9.302
 6137SOL     OW20184   5.470   2.334   0.406
 6137SOL    HW120185   5.454   2.240   0.397
 6137SOL    HW220186   5.399   2.366   0.461
 6138SOL     OW20187   5.416  11.430   2.333
 6138SOL    HW120188   5.321  11.424   2.319
 6138SOL    HW220189   5.433  11.524   2.342
 6139SOL     OW20190   9.391   7.170  12.639
 6139SOL    HW120191   9.400   7.085  12.684
 6139SOL    HW220192   9.429   7.233  12.701
 6140SOL     OW20193  11.316   2.654   8.953
 6140SOL    HW120194  11.409   2.655   8.929
 6140SOL    HW220195  11.270   2.659   8.869
 6141SOL     OW20196  13.685   4.371   3.180
 6141SOL    HW120197  13.719   4.455   3.211
 6141SOL    HW220198  13.753   4.338   3.121
 6142SOL     OW20199  10.260   8.677   1.891
 6142SOL    HW120200  10.321   8.692   1.819
 6142SOL    HW220201  10.192   8.622   1.853
 6143SOL     OW20202  11.727   8.436   4.081
 6143SOL    HW120203  11.763   8.486   4.008
 6143SOL    HW220204  11.766   8.474   4.159
 6144SOL     OW20205   5.069   8.926   1.839
 6144SOL    HW120206   5.082   8.887   1.753
 6144SOL    HW220207   5.045   9.017   1.822
 6145SOL     OW20208   8.820   8.800   9.782
 6145SOL    HW120209   8.893   8.861   9.773
 6145SOL    HW220210   8.830   8.737   9.711
 6146SOL     OW20211  10.640  10.179   7.206
 6146SOL    HW120212  10.618  10.243   7.273
 6146SOL    HW220213  10.716  10.133   7.239
 6147SOL     OW20214   6.095   7.231   9.627
 6147SOL    HW120215   6.152   7.283   9.683
 6147SOL    HW220216   6.099   7.143   9.665
 6148SOL     OW20217   6.665   5.898  11.144
 6148SOL    HW120218   6.684   5.884  11.052
 6148SOL    HW220219   6.617   5.819  11.171
 6149SOL     OW20220   3.920   6.724   0.313
 6149SOL    HW120221   3.915   6.637   0.272
 6149SOL    HW220222   3.957   6.780   0.244
 6150SOL     OW20223   1.163  11.375   6.269
 6150SOL    HW120224   1.198  11.325   6.342
 6150SOL    HW220225   1.145  11.462   6.306
 6151SOL     OW20226   9.756   6.165  13.559
 6151SOL    HW120227   9.711   6.249  13.560
 6151SOL    HW220228   9.829   6.177  13.499
 6152SOL     OW20229  11.755   6.273   3.249
 6152SOL    HW120230  11.724   6.361   3.272
 6152SOL    HW220231  11.818   6.251   3.318
 6153SOL     OW20232   1.898  12.637  11.866
 6153SOL    HW120233   1.939  12.718  11.894
 6153SOL    HW220234   1.858  12.658  11.781
 6154SOL     OW20235   9.790   2.953   6.253
 6154SOL    HW120236   9.742   2.978   6.174
 6154SOL    HW220237   9.867   2.907   6.221
 6155SOL     OW20238   5.481   1.883   9.416
 6155SOL    HW120239   5.450   1.799   9.384
 6155SOL    HW220240   5.422   1.905   9.488
 6156SOL     OW20241  11.587  11.660   2.031
 6156SOL    HW120242  11.545  11.614   2.104
 6156SOL    HW220243  11.522  11.660   1.961
 6157SOL     OW20244   2.785  11.113   8.628
 6157SOL    HW120245   2.752  11.203   8.618
 6157SOL    HW220246   2.833  11.096   8.547
 6158SOL     OW20247  12.359   2.647   3.716
 6158SOL    HW120248  12.401   2.686   3.639
 6158SOL    HW220249  12.342   2.557   3.691
 6159SOL     OW20250  11.723   8.239  13.748
 6159SOL    HW120251  11.632   8.237  13.779
 6159SOL    HW220252  11.773   8.197  13.818
 6160SOL     OW20253   9.627   3.332  13.333
 6160SOL    HW120254   9.618   3.307  13.425
 6160SOL    HW220255   9.677   3.261  13.293
 6161SOL     OW20256   7.067  12.497  11.765
 6161SOL    HW120257   7.019  12.419  11.735
 6161SOL    HW220258   7.157  12.481  11.739
 6162SOL     OW20259   4.941  12.643   3.138
 6162SOL    HW120260   4.965  12.551   3.146
 6162SOL    HW220261   4.896  12.663   3.220
 6163SOL     OW20262   8.005   5.338  11.898
 6163SOL    HW120263   7.970   5.305  11.981
 6163SOL    HW220264   8.096   5.357  11.917
 6164SOL     OW20265   7.608   8.308   8.562
 6164SOL    HW120266   7.667   8.304   8.487
 6164SOL    HW220267   7.614   8.221   8.602
 6165SOL     OW20268  10.549   1.021   0.409
 6165SOL    HW120269  10.587   1.000   0.494
 6165SOL    HW220270  10.461   0.985   0.412
 6166SOL     OW20271   6.243   5.377   5.843
 6166SOL    HW120272   6.239   5.335   5.929
 6166SOL    HW220273   6.151   5.389   5.818
 6167SOL     OW20274   8.871  11.982  10.004
 6167SOL    HW120275   8.778  11.979  10.025
 6167SOL    HW220276   8.908  12.046  10.064
 6168SOL     OW20277   4.027   8.081   5.874
 6168SOL    HW120278   4.068   8.109   5.792
 6168SOL    HW220279   4.017   8.161   5.925
 6169SOL     OW20280   0.641  12.272   8.725
 6169SOL    HW120281   0.561  12.246   8.679
 6169SOL    HW220282   0.706  12.284   8.656
 6170SOL     OW20283   8.027   1.155  11.222
 6170SOL    HW120284   7.954   1.124  11.277
 6170SOL    HW220285   8.105   1.141  11.276
 6171SOL     OW20286   8.739   4.804   1.003
 6171SOL    HW120287   8.738   4.751   1.083
 6171SOL    HW220288   8.671   4.766   0.948
 6172SOL     OW20289  13.431   9.994  11.452
 6172SOL    HW120290  13.491   9.930  11.414
 6172SOL    HW220291  13.345   9.969  11.420
 6173SOL     OW20292  13.474  14.693   2.713
 6173SOL    HW120293  13.381  14.673   2.707
 6173SOL    HW220294  13.491  14.703   2.807
 6174SOL     OW20295   2.704   0.254   1.760
 6174SOL    HW120296   2.781   0.286   1.711
 6174SOL    HW220297   2.689   0.321   1.826
 6175SOL     OW20298   9.953  14.037  14.373
 6175SOL    HW120299   9.864  14.044  14.340
 6175SOL    HW220300   9.986  13.955  14.337
 6176SOL     OW20301   7.550   2.036  13.376
 6176SOL    HW120302   7.641   2.039  13.406
 6176SOL    HW220303   7.509   2.112  13.417
 6177SOL     OW20304  12.953   1.807  12.182
 6177SOL    HW120305  12.906   1.850  12.111
 6177SOL    HW220306  12.888   1.797  12.251
 6178SOL     OW20307  14.433   1.406   6.412
 6178SOL    HW120308  14.501   1.377   6.352
 6178SOL    HW220309  14.377   1.329   6.425
 6179SOL     OW20310  13.695   4.460  10.597
 6179SOL    HW120311  13.790   4.449  10.605
 6179SOL    HW220312  13.664   4.472  10.687
 6180SOL     OW20313  12.999  12.782   5.181
 6180SOL    HW120314  13.004  12.825   5.266
 6180SOL    HW220315  12.905  12.767   5.167
 6181SOL     OW20316   2.645  11.918  10.767
 6181SOL    HW120317   2.574  11.882  10.713
 6181SOL    HW220318   2.717  11.932  10.705
 6182SOL     OW20319   0.107  11.190  12.678
 6182SOL    HW120320   0.168  11.249  12.722
 6182SOL    HW220321   0.163  11.133  12.624
 6183SOL     OW20322  14.845  12.998   7.758
 6183SOL    HW120323  14.811  12.976   7.845
 6183SOL    HW220324   0.043  12.940   7.747
 6184SOL     OW20325   1.140   2.538   4.116
 6184SOL    HW120326   1.081   2.608   4.090
 6184SOL    HW220327   1.221   2.556   4.068
 6185SOL     OW20328  11.109  13.987  14.705
 6185SOL    HW120329  11.024  14.019  14.676
 6185SOL    HW220330  11.134  14.045  14.777
 6186SOL     OW20331   2.399   2.431  13.936
 6186SOL    HW120332   2.309   2.399  13.941
 6186SOL    HW220333   2.435   2.416  14.023
 6187SOL     OW20334   6.977  11.027   3.966
 6187SOL    HW120335   7.039  10.999   3.899
 6187SOL    HW220336   6.951  11.115   3.941
 6188SOL     OW20337  13.264  12.085  12.586
 6188SOL    HW120338  13.247  12.031  12.663
 6188SOL    HW220339  13.327  12.150  12.617
 6189SOL     OW20340  10.372   8.005   1.814
 6189SOL    HW120341  10.292   7.971   1.853
 6189SOL    HW220342  10.440   7.988   1.880
 6190SOL     OW20343  14.549  14.149  10.937
 6190SOL    HW120344  14.466  14.197  10.946
 6190SOL    HW220345  14.605  14.207  10.885
 6191SOL     OW20346   8.603   2.420  13.602
 6191SOL    HW120347   8.571   2.330  13.594
 6191SOL    HW220348   8.524   2.471  13.620
 6192SOL     OW20349   4.644   5.421   2.683
 6192SOL    HW120350   4.669   5.499   2.733
 6192SOL    HW220351   4.616   5.358   2.749
 6193SOL     OW20352  13.307   5.574   2.362
 6193SOL    HW120353  13.282   5.587   2.454
 6193SOL    HW220354  13.243   5.625   2.312
 6194SOL     OW20355   6.655   1.080  12.932
 6194SOL    HW120356   6.719   1.148  12.956
 6194SOL    HW220357   6.664   1.071  12.837
 6195SOL     OW20358  14.064  11.468   4.404
 6195SOL    HW120359  13.975  11.497   4.424
 6195SOL    HW220360  14.054  11.376   4.379
 6196SOL     OW20361   0.879  10.737  13.621
 6196SOL    HW120362   0.896  10.665  13.682
 6196SOL    HW220363   0.960  10.788  13.619
 6197SOL     OW20364   4.310  11.409   9.763
 6197SOL    HW120365   4.296  11.465   9.839
 6197SOL    HW220366   4.264  11.328   9.784
 6198SOL     OW20367  11.846  11.631   2.204
 6198SOL    HW120368  11.840  11.549   2.253
 6198SOL    HW220369  11.780  11.624   2.135
 6199SOL     OW20370   4.749  14.415  12.331
 6199SOL    HW120371   4.709  14.499  12.355
 6199SOL    HW220372   4.675  14.362  12.301
 6200SOL     OW20373  12.158  14.372   1.178
 6200SOL    HW120374  12.148  14.323   1.259
 6200SOL    HW220375  12.205  14.452   1.205
 6201SOL     OW20376  13.163   6.792   4.509
 6201SOL    HW120377  13.131   6.876   4.543
 6201SOL    HW220378  13.102   6.770   4.439
 6202SOL     OW20379   1.362   8.077   0.092
 6202SOL    HW120380   1.450   8.058   0.126
 6202SOL    HW220381   1.369   8.166   0.057
 6203SOL     OW20382   1.311  10.955   0.966
 6203SOL    HW120383   1.337  10.875   1.012
 6203SOL    HW220384   1.363  10.954   0.886
 6204SOL     OW20385   3.444  11.505  10.856
 6204SOL    HW120386   3.369  11.447  10.847
 6204SOL    HW220387   3.444  11.529  10.948
 6205SOL     OW20388   1.097   5.045  11.947
 6205SOL    HW120389   1.138   5.122  11.985
 6205SOL    HW220390   1.159   5.014  11.882
 6206SOL     OW20391   8.777   8.095  11.856
 6206SOL    HW120392   8.778   8.186  11.826
 6206SOL    HW220393   8.686   8.077  11.876
 6207SOL     OW20394   4.993   2.599   8.558
 6207SOL    HW120395   5.070   2.656   8.566
 6207SOL    HW220396   4.996   2.542   8.634
 6208SOL     OW20397   8.572   6.319  14.873
 6208SOL    HW120398   8.616   6.367  14.803
 6208SOL    HW220399   8.639   6.261   0.032
 6209SOL     OW20400  10.770   2.154   7.187
 6209SOL    HW120401  10.857   2.124   7.159
 6209SOL    HW220402  10.713   2.135   7.113
 6210SOL     OW20403   6.027   6.595  13.446
 6210SOL    HW120404   5.933   6.587  13.466
 6210SOL    HW220405   6.070   6.539  13.510
 6211SOL     OW20406   9.758   3.285   7.782
 6211SOL    HW120407   9.754   3.227   7.707
 6211SOL    HW220408   9.851   3.302   7.796
 6212SOL     OW20409   0.157  14.525   5.609
 6212SOL    HW120410   0.186  14.601   5.558
 6212SOL    HW220411   0.228  14.462   5.600
 6213SOL     OW20412   7.384   1.356   8.157
 6213SOL    HW120413   7.464   1.312   8.127
 6213SOL    HW220414   7.317   1.331   8.093
 6214SOL     OW20415   6.368   5.306   3.004
 6214SOL    HW120416   6.447   5.340   3.046
 6214SOL    HW220417   6.301   5.310   3.072
 6215SOL     OW20418   6.221  13.108   3.222
 6215SOL    HW120419   6.289  13.168   3.250
 6215SOL    HW220420   6.247  13.023   3.256
 6216SOL     OW20421   2.472   4.140  12.297
 6216SOL    HW120422   2.500   4.049  12.308
 6216SOL    HW220423   2.434   4.164  12.381
 6217SOL     OW20424   8.883   4.084  11.801
 6217SOL    HW120425   8.878   4.031  11.881
 6217SOL    HW220426   8.908   4.022  11.733
 6218SOL     OW20427   6.573   0.659   7.543
 6218SOL    HW120428   6.633   0.667   7.469
 6218SOL    HW220429   6.581   0.742   7.590
 6219SOL     OW20430  14.484  14.840  11.135
 6219SOL    HW120431  14.516   0.022  11.068
 6219SOL    HW220432  14.424   0.015  11.188
 6220SOL     OW20433  12.497  12.945   1.922
 6220SOL    HW120434  12.516  12.860   1.883
 6220SOL    HW220435  12.438  12.927   1.994
 6221SOL     OW20436   0.905   3.490   0.588
 6221SOL    HW120437   0.909   3.524   0.499
 6221SOL    HW220438   0.811   3.491   0.610
 6222SOL     OW20439   2.138   6.514   8.798
 6222SOL    HW120440   2.222   6.524   8.843
 6222SOL    HW220441   2.092   6.596   8.815
 6223SOL     OW20442   2.391  14.762   7.735
 6223SOL    HW120443   2.470  14.708   7.734
 6223SOL    HW220444   2.322  14.705   7.703
 6224SOL     OW20445   6.184   4.379   1.162
 6224SOL    HW120446   6.271   4.359   1.129
 6224SOL    HW220447   6.186   4.354   1.254
 6225SOL     OW20448   9.575   4.207   9.010
 6225SOL    HW120449   9.541   4.125   9.046
 6225SOL    HW220450   9.665   4.212   9.042
 6226SOL     OW20451   2.828   7.840   3.628
 6226SOL    HW120452   2.802   7.859   3.718
 6226SOL    HW220453   2.769   7.770   3.600
 6227SOL     OW20454   6.634  12.698   7.091
 6227SOL    HW120455   6.710  12.704   7.034
 6227SOL    HW220456   6.560  12.725   7.037
 6228SOL     OW20457   8.328   5.621   2.917
 6228SOL    HW120458   8.403   5.648   2.970
 6228SOL    HW220459   8.265   5.692   2.926
 6229SOL     OW20460   2.696   3.335  10.204
 6229SOL    HW120461   2.780   3.313  10.245
 6229SOL    HW220462   2.634   3.275  10.245
 6230SOL     OW20463   9.884  13.326   6.995
 6230SOL    HW120464   9.800  13.342   6.951
 6230SOL    HW220465   9.947  13.316   6.923
 6231SOL     OW20466   5.519   5.063   3.523
 6231SOL    HW120467   5.518   5.041   3.430
 6231SOL    HW220468   5.474   4.990   3.566
 6232SOL     OW20469   6.037   2.627   0.164
 6232SOL    HW120470   5.990   2.680   0.099
 6232SOL    HW220471   5.992   2.644   0.247
 6233SOL     OW20472   8.421   3.404  12.420
 6233SOL    HW120473   8.453   3.441  12.503
 6233SOL    HW220474   8.341   3.452  12.402
 6234SOL     OW20475  11.646   5.385   8.458
 6234SOL    HW120476  11.600   5.431   8.528
 6234SOL    HW220477  11.592   5.400   8.380
 6235SOL     OW20478   5.143   2.640   7.909
 6235SOL    HW120479   5.110   2.559   7.868
 6235SOL    HW220480   5.111   2.635   7.999
 6236SOL     OW20481  14.308   5.114   0.069
 6236SOL    HW120482  14.266   5.148   0.148
 6236SOL    HW220483  14.246   5.131  14.877
 6237SOL     OW20484   3.327   5.240  13.446
 6237SOL    HW120485   3.294   5.166  13.497
 6237SOL    HW220486   3.253   5.300  13.440
 6238SOL     OW20487   5.454  11.915   7.486
 6238SOL    HW120488   5.530  11.958   7.447
 6238SOL    HW220489   5.490  11.858   7.554
 6239SOL     OW20490   3.880  10.632  14.475
 6239SOL    HW120491   3.799  10.678  14.453
 6239SOL    HW220492   3.873  10.548  14.430
 6240SOL     OW20493   3.968   7.502   4.482
 6240SOL    HW120494   3.927   7.566   4.541
 6240SOL    HW220495   4.003   7.435   4.541
 6241SOL     OW20496   3.650   8.092   1.977
 6241SOL    HW120497   3.613   8.180   1.978
 6241SOL    HW220498   3.579   8.036   1.948
 6242SOL     OW20499   6.984  14.695   2.465
 6242SOL    HW120500   6.986  14.599   2.463
 6242SOL    HW220501   6.993  14.722   2.374
 6243SOL     OW20502  13.915   7.520  12.425
 6243SOL    HW120503  13.966   7.521  12.345
 6243SOL    HW220504  13.825   7.538  12.397
 6244SOL     OW20505  11.112   3.722   9.970
 6244SOL    HW120506  11.206   3.743   9.974
 6244SOL    HW220507  11.087   3.749   9.881
 6245SOL     OW20508  10.569   2.151  11.760
 6245SOL    HW120509  10.649   2.124  11.714
 6245SOL    HW220510  10.591   2.142  11.853
 6246SOL     OW20511   2.879   6.507   7.830
 6246SOL    HW120512   2.821   6.524   7.904
 6246SOL    HW220513   2.944   6.577   7.834
 6247SOL     OW20514   5.921   2.927   5.506
 6247SOL    HW120515   5.897   2.970   5.425
 6247SOL    HW220516   6.012   2.899   5.492
 6248SOL     OW20517   7.652   2.227   6.166
 6248SOL    HW120518   7.721   2.162   6.171
 6248SOL    HW220519   7.693   2.304   6.126
 6249SOL     OW20520   9.562   6.903   8.020
 6249SOL    HW120521   9.553   6.995   8.044
 6249SOL    HW220522   9.654   6.882   8.038
 6250SOL     OW20523   1.503   0.699   4.875
 6250SOL    HW120524   1.454   0.642   4.934
 6250SOL    HW220525   1.478   0.788   4.902
 6251SOL     OW20526   2.617  11.173   4.274
 6251SOL    HW120527   2.686  11.139   4.218
 6251SOL    HW220528   2.553  11.102   4.281
 6252SOL     OW20529   3.810   1.538   6.780
 6252SOL    HW120530   3.862   1.474   6.732
 6252SOL    HW220531   3.721   1.527   6.746
 6253SOL     OW20532   9.855  14.006  10.378
 6253SOL    HW120533   9.890  13.939  10.319
 6253SOL    HW220534   9.840  13.959  10.460
 6254SOL     OW20535  14.418  13.343   0.789
 6254SOL    HW120536  14.428  13.249   0.777
 6254SOL    HW220537  14.443  13.359   0.880
 6255SOL     OW20538  14.544   0.548  10.754
 6255SOL    HW120539  14.521   0.456  10.744
 6255SOL    HW220540  14.461   0.593  10.769
 6256SOL     OW20541   1.357  11.721  11.633
 6256SOL    HW120542   1.424  11.716  11.701
 6256SOL    HW220543   1.277  11.690  11.675
 6257SOL     OW20544   0.077  12.677   3.800
 6257SOL    HW120545   0.072  12.599   3.744
 6257SOL    HW220546   0.007  12.665   3.864
 6258SOL     OW20547  13.863   3.749   6.041
 6258SOL    HW120548  13.906   3.663   6.039
 6258SOL    HW220549  13.900   3.796   5.966
 6259SOL     OW20550  10.656   2.195   6.349
 6259SOL    HW120551  10.618   2.138   6.282
 6259SOL    HW220552  10.583   2.248   6.381
 6260SOL     OW20553  10.887  13.080  13.098
 6260SOL    HW120554  10.799  13.077  13.134
 6260SOL    HW220555  10.897  12.997  13.051
 6261SOL     OW20556  13.772  12.181   0.025
 6261SOL    HW120557  13.719  12.199   0.102
 6261SOL    HW220558  13.743  12.095  14.873
 6262SOL     OW20559   0.648   9.704   9.944
 6262SOL    HW120560   0.739   9.679   9.957
 6262SOL    HW220561   0.597   9.630   9.977
 6263SOL     OW20562  10.497  11.726   4.628
 6263SOL    HW120563  10.424  11.694   4.681
 6263SOL    HW220564  10.464  11.721   4.538
 6264SOL     OW20565  14.366   7.313   4.213
 6264SOL    HW120566  14.357   7.409   4.217
 6264SOL    HW220567  14.460   7.297   4.226
 6265SOL     OW20568   7.813  10.969   6.725
 6265SOL    HW120569   7.829  10.968   6.631
 6265SOL    HW220570   7.821  10.878   6.752
 6266SOL     OW20571   0.390  13.695   8.883
 6266SOL    HW120572   0.330  13.763   8.851
 6266SOL    HW220573   0.470  13.710   8.833
 6267SOL     OW20574  13.665  10.634   0.362
 6267SOL    HW120575  13.585  10.588   0.337
 6267SOL    HW220576  13.660  10.718   0.316
 6268SOL     OW20577  13.602  11.888   0.980
 6268SOL    HW120578  13.596  11.905   0.886
 6268SOL    HW220579  13.607  11.793   0.987
 6269SOL     OW20580   2.856  10.831   9.627
 6269SOL    HW120581   2.804  10.754   9.607
 6269SOL    HW220582   2.905  10.849   9.547
 6270SOL     OW20583   2.668   9.820  13.388
 6270SOL    HW120584   2.661   9.789  13.478
 6270SOL    HW220585   2.672   9.916  13.396
 6271SOL     OW20586  12.546   2.864   8.242
 6271SOL    HW120587  12.618   2.877   8.180
 6271SOL    HW220588  12.570   2.919   8.317
 6272SOL     OW20589   2.425   5.812   5.576
 6272SOL    HW120590   2.516   5.835   5.596
 6272SOL    HW220591   2.398   5.878   5.513
 6273SOL     OW20592   2.399  12.031  14.827
 6273SOL    HW120593   2.464  12.051   0.016
 6273SOL    HW220594   2.426  12.083  14.751
 6274SOL     OW20595  10.323  12.700  13.279
 6274SOL    HW120596  10.356  12.639  13.213
 6274SOL    HW220597  10.394  12.706  13.343
 6275SOL     OW20598   1.711   9.624  14.189
 6275SOL    HW120599   1.681   9.561  14.124
 6275SOL    HW220600   1.641   9.626  14.254
 6276SOL     OW20601   1.184  11.707   5.292
 6276SOL    HW120602   1.102  11.739   5.254
 6276SOL    HW220603   1.162  11.623   5.331
 6277SOL     OW20604   9.906  14.667  14.735
 6277SOL    HW120605   9.951  14.655  14.651
 6277SOL    HW220606   9.832  14.606  14.731
 6278SOL     OW20607  10.980   6.526   3.547
 6278SOL    HW120608  10.914   6.595   3.550
 6278SOL    HW220609  10.932   6.450   3.512
 6279SOL     OW20610   5.721   4.543  11.365
 6279SOL    HW120611   5.759   4.555  11.452
 6279SOL    HW220612   5.722   4.630  11.326
 6280SOL     OW20613   4.773   2.635   3.318
 6280SOL    HW120614   4.800   2.691   3.246
 6280SOL    HW220615   4.738   2.556   3.277
 6281SOL     OW20616  10.994   2.770   2.658
 6281SOL    HW120617  10.915   2.720   2.678
 6281SOL    HW220618  11.025   2.735   2.575
 6282SOL     OW20619   1.170   0.135   8.709
 6282SOL    HW120620   1.184   0.088   8.627
 6282SOL    HW220621   1.075   0.132   8.723
 6283SOL     OW20622   0.862   2.407   5.217
 6283SOL    HW120623   0.785   2.360   5.185
 6283SOL    HW220624   0.860   2.491   5.170
 6284SOL     OW20625  14.424   8.742   0.432
 6284SOL    HW120626  14.389   8.786   0.354
 6284SOL    HW220627  14.425   8.810   0.500
 6285SOL     OW20628   7.411  10.741   7.540
 6285SOL    HW120629   7.493  10.704   7.508
 6285SOL    HW220630   7.347  10.671   7.528
 6286SOL     OW20631   1.337   6.117   6.560
 6286SOL    HW120632   1.245   6.140   6.571
 6286SOL    HW220633   1.378   6.144   6.642
 6287SOL     OW20634  11.869  11.111   4.240
 6287SOL    HW120635  11.782  11.094   4.204
 6287SOL    HW220636  11.928  11.057   4.187
 6288SOL     OW20637  11.164   1.669  14.794
 6288SOL    HW120638  11.236   1.606  14.797
 6288SOL    HW220639  11.206   1.753  14.776
 6289SOL     OW20640   0.757  11.285  14.014
 6289SOL    HW120641   0.680  11.233  14.036
 6289SOL    HW220642   0.721  11.365  13.976
 6290SOL     OW20643  12.869   1.475  10.177
 6290SOL    HW120644  12.924   1.545  10.213
 6290SOL    HW220645  12.783   1.515  10.165
 6291SOL     OW20646   6.679   1.917  11.442
 6291SOL    HW120647   6.627   1.894  11.365
 6291SOL    HW220648   6.627   1.887  11.517
 6292SOL     OW20649  12.278   1.124   2.584
 6292SOL    HW120650  12.290   1.208   2.540
 6292SOL    HW220651  12.359   1.076   2.566
 6293SOL     OW20652  13.057   8.229   7.832
 6293SOL    HW120653  12.995   8.252   7.764
 6293SOL    HW220654  13.115   8.305   7.839
 6294SOL     OW20655   3.545   4.917   7.639
 6294SOL    HW120656   3.617   4.889   7.696
 6294SOL    HW220657   3.469   4.920   7.696
 6295SOL     OW20658   5.468  14.234   1.103
 6295SOL    HW120659   5.507  14.273   1.181
 6295SOL    HW220660   5.507  14.146   1.098
 6296SOL     OW20661   3.178   1.590   0.298
 6296SOL    HW120662   3.093   1.570   0.259
 6296SOL    HW220663   3.196   1.516   0.356
 6297SOL     OW20664  10.065  10.838  13.919
 6297SOL    HW120665  10.012  10.851  13.840
 6297SOL    HW220666  10.093  10.747  13.914
 6298SOL     OW20667   0.185  10.576   5.212
 6298SOL    HW120668   0.259  10.526   5.178
 6298SOL    HW220669   0.200  10.580   5.307
 6299SOL     OW20670  10.236   1.047   9.551
 6299SOL    HW120671  10.215   1.046   9.458
 6299SOL    HW220672  10.313   0.991   9.559
 6300SOL     OW20673   8.113   0.290  12.452
 6300SOL    HW120674   8.071   0.346  12.387
 6300SOL    HW220675   8.134   0.210  12.404
 6301SOL     OW20676   0.190   0.986   9.104
 6301SOL    HW120677   0.131   0.934   9.158
 6301SOL    HW220678   0.268   0.931   9.094
 6302SOL     OW20679  13.088   8.211   2.601
 6302SOL    HW120680  13.008   8.174   2.639
 6302SOL    HW220681  13.123   8.268   2.669
 6303SOL     OW20682  14.145  14.871  11.958
 6303SOL    HW120683  14.197  14.793  11.940
 6303SOL    HW220684  14.105  14.855  12.043
 6304SOL     OW20685  10.695  12.866   4.310
 6304SOL    HW120686  10.689  12.917   4.229
 6304SOL    HW220687  10.620  12.807   4.307
 6305SOL     OW20688  14.035  12.019   7.534
 6305SOL    HW120689  14.104  12.001   7.598
 6305SOL    HW220690  14.059  11.967   7.457
 6306SOL     OW20691   6.352  10.033  12.207
 6306SOL    HW120692   6.390   9.950  12.180
 6306SOL    HW220693   6.294  10.011  12.280
 6307SOL     OW20694   0.863   2.972  11.258
 6307SOL    HW120695   0.794   3.009  11.313
 6307SOL    HW220696   0.943   2.982  11.310
 6308SOL     OW20697   6.854   7.660   4.085
 6308SOL    HW120698   6.799   7.648   4.008
 6308SOL    HW220699   6.838   7.581   4.138
 6309SOL     OW20700   7.281  11.385  12.733
 6309SOL    HW120701   7.252  11.476  12.727
 6309SOL    HW220702   7.271  11.362  12.825
 6310SOL     OW20703   4.596   7.318   2.608
 6310SOL    HW120704   4.682   7.358   2.618
 6310SOL    HW220705   4.612   7.237   2.559
 6311SOL     OW20706   3.348   1.993   0.810
 6311SOL    HW120707   3.280   1.961   0.869
 6311SOL    HW220708   3.394   1.914   0.780
 6312SOL     OW20709   7.596   1.226   7.701
 6312SOL    HW120710   7.658   1.298   7.691
 6312SOL    HW220711   7.511   1.269   7.713
 6313SOL     OW20712  13.432   8.359   8.545
 6313SOL    HW120713  13.343   8.387   8.565
 6313SOL    HW220714  13.446   8.388   8.455
 6314SOL     OW20715   4.174   9.928   4.585
 6314SOL    HW120716   4.181   9.834   4.571
 6314SOL    HW220717   4.159   9.965   4.498
 6315SOL     OW20718   7.743   7.929   7.452
 6315SOL    HW120719   7.723   8.009   7.501
 6315SOL    HW220720   7.829   7.902   7.484
 6316SOL     OW20721  14.166   8.537  13.146
 6316SOL    HW120722  14.165   8.476  13.220
 6316SOL    HW220723  14.111   8.495  13.080
 6317SOL     OW20724   2.538  14.163  13.230
 6317SOL    HW120725   2.444  14.154  13.219
 6317SOL    HW220726   2.571  14.182  13.142
 6318SOL     OW20727   9.868  10.566  12.233
 6318SOL    HW120728   9.949  10.546  12.279
 6318SOL    HW220729   9.801  10.517  12.280
 6319SOL     OW20730   6.565   9.476  12.549
 6319SOL    HW120731   6.584   9.427  12.469
 6319SOL    HW220732   6.504   9.419  12.597
 6320SOL     OW20733   2.095   9.333   3.222
 6320SOL    HW120734   2.093   9.392   3.297
 6320SOL    HW220735   2.136   9.383   3.152
 6321SOL     OW20736  11.165  14.854   1.225
 6321SOL    HW120737  11.256  14.823   1.220
 6321SOL    HW220738  11.119  14.785   1.272
 6322SOL     OW20739  14.828  14.354   8.145
 6322SOL    HW120740  14.830  14.445   8.116
 6322SOL    HW220741   0.022  14.313   8.097
 6323SOL     OW20742  11.645   6.608   7.039
 6323SOL    HW120743  11.710   6.647   6.980
 6323SOL    HW220744  11.566   6.600   6.986
 6324SOL     OW20745   2.326   7.293   8.558
 6324SOL    HW120746   2.349   7.338   8.639
 6324SOL    HW220747   2.340   7.358   8.489
 6325SOL     OW20748  11.667   9.164   7.436
 6325SOL    HW120749  11.656   9.195   7.345
 6325SOL    HW220750  11.611   9.086   7.441
 6326SOL     OW20751   0.238   6.906   9.462
 6326SOL    HW120752   0.144   6.891   9.451
 6326SOL    HW220753   0.248   7.000   9.449
 6327SOL     OW20754   6.871  14.031   2.599
 6327SOL    HW120755   6.810  13.968   2.561
 6327SOL    HW220756   6.905  14.080   2.525
 6328SOL     OW20757   5.996   3.238   4.267
 6328SOL    HW120758   5.975   3.325   4.300
 6328SOL    HW220759   5.934   3.222   4.196
 6329SOL     OW20760  13.644  13.100   5.644
 6329SOL    HW120761  13.559  13.073   5.679
 6329SOL    HW220762  13.682  13.020   5.608
 6330SOL     OW20763   9.930   3.455   9.101
 6330SOL    HW120764  10.004   3.476   9.159
 6330SOL    HW220765   9.971   3.418   9.023
 6331SOL     OW20766  14.448   1.367  13.133
 6331SOL    HW120767  14.363   1.374  13.176
 6331SOL    HW220768  14.464   1.273  13.128
 6332SOL     OW20769  11.090  13.450  14.864
 6332SOL    HW120770  11.052  13.538  14.863
 6332SOL    HW220771  11.041  13.402  14.797
 6333SOL     OW20772  11.748  10.749   7.762
 6333SOL    HW120773  11.746  10.829   7.816
 6333SOL    HW220774  11.823  10.761   7.705
 6334SOL     OW20775  11.558   3.242   8.631
 6334SOL    HW120776  11.554   3.268   8.723
 6334SOL    HW220777  11.466   3.239   8.603
 6335SOL     OW20778  11.962  12.494   1.430
 6335SOL    HW120779  12.004  12.526   1.510
 6335SOL    HW220780  11.932  12.406   1.453
 6336SOL     OW20781  14.316   1.652  13.800
 6336SOL    HW120782  14.281   1.577  13.753
 6336SOL    HW220783  14.316   1.723  13.736
 6337SOL     OW20784  10.360  13.446   0.002
 6337SOL    HW120785  10.418  13.386   0.050
 6337SOL    HW220786  10.373  13.531   0.045
 6338SOL     OW20787   2.554  11.465   2.582
 6338SOL    HW120788   2.633  11.507   2.548
 6338SOL    HW220789   2.586  11.393   2.636
 6339SOL     OW20790   0.331   5.365  11.595
 6339SOL    HW120791   0.286   5.442  11.630
 6339SOL    HW220792   0.403   5.401  11.542
 6340SOL     OW20793  13.146   7.289   6.357
 6340SOL    HW120794  13.052   7.290   6.374
 6340SOL    HW220795  13.174   7.379   6.376
 6341SOL     OW20796   0.873   2.568  12.466
 6341SOL    HW120797   0.818   2.491  12.452
 6341SOL    HW220798   0.810   2.640  12.475
 6342SOL     OW20799   3.000  10.495   5.635
 6342SOL    HW120800   2.939  10.568   5.636
 6342SOL    HW220801   2.951  10.422   5.674
 6343SOL     OW20802   7.748   4.197  13.950
 6343SOL    HW120803   7.841   4.219  13.947
 6343SOL    HW220804   7.709   4.242  13.875
 6344SOL     OW20805  10.838   6.732   6.673
 6344SOL    HW120806  10.781   6.698   6.742
 6344SOL    HW220807  10.894   6.657   6.649
 6345SOL     OW20808   2.555   4.577   6.022
 6345SOL    HW120809   2.521   4.542   5.939
 6345SOL    HW220810   2.480   4.574   6.082
 6346SOL     OW20811   4.081   1.932   7.221
 6346SOL    HW120812   4.055   1.950   7.131
 6346SOL    HW220813   4.171   1.964   7.228
 6347SOL     OW20814   5.493   7.266   5.101
 6347SOL    HW120815   5.470   7.174   5.097
 6347SOL    HW220816   5.425   7.305   5.157
 6348SOL     OW20817   9.252   4.184  13.670
 6348SOL    HW120818   9.208   4.260  13.707
 6348SOL    HW220819   9.324   4.220  13.619
 6349SOL     OW20820   0.494   9.539   7.328
 6349SOL    HW120821   0.504   9.600   7.400
 6349SOL    HW220822   0.509   9.591   7.249
 6350SOL     OW20823   3.149  11.407   5.684
 6350SOL    HW120824   3.244  11.418   5.682
 6350SOL    HW220825   3.135  11.333   5.743
 6351SOL     OW20826   2.638   2.190   9.785
 6351SOL    HW120827   2.568   2.148   9.835
 6351SOL    HW220828   2.594   2.261   9.738
 6352SOL     OW20829   7.783  14.724   1.897
 6352SOL    HW120830   7.735  14.804   1.877
 6352SOL    HW220831   7.718  14.664   1.932
 6353SOL     OW20832   5.079  14.420   5.331
 6353SOL    HW120833   5.007  14.476   5.363
 6353SOL    HW220834   5.064  14.336   5.374
 6354SOL     OW20835   6.139   0.480   0.055
 6354SOL    HW120836   6.100   0.394   0.041
 6354SOL    HW220837   6.069   0.542   0.036
 6355SOL     OW20838   9.768  11.062  13.286
 6355SOL    HW120839   9.750  10.986  13.341
 6355SOL    HW220840   9.734  11.136  13.337
 6356SOL     OW20841  11.449   3.399   9.626
 6356SOL    HW120842  11.540   3.422   9.646
 6356SOL    HW220843  11.450   3.305   9.613
 6357SOL     OW20844  12.907   9.620  12.055
 6357SOL    HW120845  12.936   9.534  12.027
 6357SOL    HW220846  12.851   9.652  11.984
 6358SOL     OW20847   2.926   0.766  11.289
 6358SOL    HW120848   2.988   0.692  11.285
 6358SOL    HW220849   2.919   0.796  11.198
 6359SOL     OW20850  14.104  12.696  10.164
 6359SOL    HW120851  14.139  12.669  10.079
 6359SOL    HW220852  14.009  12.688  10.155
 6360SOL     OW20853  11.760   2.821   8.266
 6360SOL    HW120854  11.735   2.897   8.317
 6360SOL    HW220855  11.853   2.808   8.286
 6361SOL     OW20856  10.112  10.926  10.076
 6361SOL    HW120857  10.206  10.906  10.069
 6361SOL    HW220858  10.097  10.933  10.171
 6362SOL     OW20859   5.195   5.920   8.978
 6362SOL    HW120860   5.120   5.951   9.030
 6362SOL    HW220861   5.162   5.842   8.934
 6363SOL     OW20862   5.269  11.377   7.779
 6363SOL    HW120863   5.257  11.368   7.685
 6363SOL    HW220864   5.207  11.446   7.804
 6364SOL     OW20865   9.774   4.131  11.726
 6364SOL    HW120866   9.842   4.175  11.777
 6364SOL    HW220867   9.808   4.042  11.713
 6365SOL     OW20868   2.485  11.306   1.547
 6365SOL    HW120869   2.417  11.334   1.607
 6365SOL    HW220870   2.563  11.355   1.573
 6366SOL     OW20871   4.510   9.095  11.634
 6366SOL    HW120872   4.483   9.185  11.616
 6366SOL    HW220873   4.582   9.103  11.696
 6367SOL     OW20874   5.195   4.716   8.321
 6367SOL    HW120875   5.136   4.657   8.275
 6367SOL    HW220876   5.278   4.710   8.273
 6368SOL     OW20877   5.854   2.293  11.078
 6368SOL    HW120878   5.927   2.313  11.137
 6368SOL    HW220879   5.875   2.340  10.997
 6369SOL     OW20880   2.749   7.975   8.891
 6369SOL    HW120881   2.660   8.004   8.913
 6369SOL    HW220882   2.806   8.039   8.932
 6370SOL     OW20883   1.485   4.079  13.115
 6370SOL    HW120884   1.511   4.169  13.096
 6370SOL    HW220885   1.391   4.077  13.097
 6371SOL     OW20886   8.596   3.231  13.363
 6371SOL    HW120887   8.649   3.159  13.327
 6371SOL    HW220888   8.508   3.193  13.371
 6372SOL     OW20889   8.928   9.075  12.840
 6372SOL    HW120890   8.957   9.122  12.918
 6372SOL    HW220891   8.975   9.116  12.768
 6373SOL     OW20892   3.137   8.618   9.240
 6373SOL    HW120893   3.197   8.565   9.292
 6373SOL    HW220894   3.153   8.592   9.150
 6374SOL     OW20895   4.803   9.674   4.012
 6374SOL    HW120896   4.762   9.598   4.053
 6374SOL    HW220897   4.886   9.641   3.977
 6375SOL     OW20898   1.100   6.071   0.725
 6375SOL    HW120899   1.183   6.027   0.706
 6375SOL    HW220900   1.078   6.040   0.813
 6376SOL     OW20901   0.881  12.001   8.044
 6376SOL    HW120902   0.976  11.998   8.032
 6376SOL    HW220903   0.865  11.954   8.125
 6377SOL     OW20904  11.602  10.128   4.802
 6377SOL    HW120905  11.535  10.072   4.762
 6377SOL    HW220906  11.631  10.079   4.879
 6378SOL     OW20907   4.422   9.886   7.519
 6378SOL    HW120908   4.491   9.823   7.502
 6378SOL    HW220909   4.345   9.833   7.541
 6379SOL     OW20910   1.270   9.526   9.192
 6379SOL    HW120911   1.293   9.610   9.151
 6379SOL    HW220912   1.316   9.527   9.276
 6380SOL     OW20913  12.164  13.879  14.010
 6380SOL    HW120914  12.136  13.819  13.941
 6380SOL    HW220915  12.083  13.921  14.040
 6381SOL     OW20916  14.768   9.781   0.191
 6381SOL    HW120917  14.853   9.780   0.235
 6381SOL    HW220918  14.768   9.861   0.139
 6382SOL     OW20919   5.043   9.120  13.845
 6382SOL    HW120920   5.120   9.162  13.883
 6382SOL    HW220921   5.067   9.028  13.838
 6383SOL     OW20922   2.336   5.540   4.381
 6383SOL    HW120923   2.258   5.486   4.393
 6383SOL    HW220924   2.368   5.555   4.470
 6384SOL     OW20925  14.680   2.982  12.975
 6384SOL    HW120926  14.773   2.982  12.953
 6384SOL    HW220927  14.668   2.903  13.027
 6385SOL     OW20928  10.127   1.909  13.314
 6385SOL    HW120929  10.040   1.913  13.275
 6385SOL    HW220930  10.184   1.883  13.241
 6386SOL     OW20931  10.324   0.471  10.340
 6386SOL    HW120932  10.393   0.455  10.276
 6386SOL    HW220933  10.282   0.551  10.310
 6387SOL     OW20934   7.105  12.562   9.605
 6387SOL    HW120935   7.168  12.505   9.562
 6387SOL    HW220936   7.031  12.565   9.544
 6388SOL     OW20937   0.330   2.990   6.008
 6388SOL    HW120938   0.390   2.928   6.050
 6388SOL    HW220939   0.328   3.065   6.067
 6389SOL     OW20940  13.313   1.477   2.515
 6389SOL    HW120941  13.257   1.427   2.454
 6389SOL    HW220942  13.378   1.413   2.545
 6390SOL     OW20943   9.766   6.762  12.882
 6390SOL    HW120944   9.821   6.829  12.925
 6390SOL    HW220945   9.774   6.781  12.789
 6391SOL     OW20946   7.647  14.841   1.121
 6391SOL    HW120947   7.724  14.872   1.169
 6391SOL    HW220948   7.577  14.839   1.186
 6392SOL     OW20949   6.533  14.167   7.952
 6392SOL    HW120950   6.512  14.260   7.945
 6392SOL    HW220951   6.508  14.130   7.868
 6393SOL     OW20952   7.760   3.689   4.896
 6393SOL    HW120953   7.666   3.689   4.912
 6393SOL    HW220954   7.777   3.771   4.850
 6394SOL     OW20955   4.721  13.432   8.374
 6394SOL    HW120956   4.737  13.340   8.395
 6394SOL    HW220957   4.808  13.470   8.366
 6395SOL     OW20958   7.406   6.367   6.097
 6395SOL    HW120959   7.328   6.313   6.107
 6395SOL    HW220960   7.441   6.375   6.186
 6396SOL     OW20961   9.333   6.694   0.653
 6396SOL    HW120962   9.388   6.676   0.730
 6396SOL    HW220963   9.299   6.608   0.628
 6397SOL     OW20964   4.378  13.538   2.871
 6397SOL    HW120965   4.388  13.531   2.776
 6397SOL    HW220966   4.350  13.628   2.886
 6398SOL     OW20967   7.087   1.219  13.426
 6398SOL    HW120968   7.057   1.138  13.384
 6398SOL    HW220969   7.161   1.192  13.480
 6399SOL     OW20970   6.373   1.593   1.705
 6399SOL    HW120971   6.418   1.668   1.744
 6399SOL    HW220972   6.295   1.631   1.664
 6400SOL     OW20973   9.216   2.146  11.689
 6400SOL    HW120974   9.239   2.239  11.700
 6400SOL    HW220975   9.132   2.137  11.734
 6401SOL     OW20976   3.089   4.647   6.909
 6401SOL    HW120977   3.172   4.695   6.910
 6401SOL    HW220978   3.050   4.669   6.825
 6402SOL     OW20979  13.361   6.859   5.165
 6402SOL    HW120980  13.406   6.887   5.085
 6402SOL    HW220981  13.432   6.827   5.222
 6403SOL     OW20982  14.742   8.280   0.277
 6403SOL    HW120983  14.762   8.187   0.267
 6403SOL    HW220984  14.647   8.285   0.267
 6404SOL     OW20985  12.729   0.699   2.812
 6404SOL    HW120986  12.802   0.674   2.870
 6404SOL    HW220987  12.651   0.687   2.866
 6405SOL     OW20988   1.177   0.176  10.183
 6405SOL    HW120989   1.165   0.089  10.146
 6405SOL    HW220990   1.088   0.211  10.192
 6406SOL     OW20991  14.551   0.417   1.768
 6406SOL    HW120992  14.474   0.474   1.765
 6406SOL    HW220993  14.573   0.412   1.861
 6407SOL     OW20994   0.636  11.530  13.001
 6407SOL    HW120995   0.584  11.534  13.081
 6407SOL    HW220996   0.631  11.439  12.972
 6408SOL     OW20997   3.649  14.275   6.285
 6408SOL    HW120998   3.636  14.330   6.363
 6408SOL    HW220999   3.714  14.210   6.313
 6409SOL     OW21000   4.360  14.133  14.632
 6409SOL    HW121001   4.363  14.091  14.545
 6409SOL    HW221002   4.441  14.183  14.636
 6410SOL     OW21003   7.515   2.410   3.473
 6410SOL    HW121004   7.511   2.456   3.556
 6410SOL    HW221005   7.594   2.442   3.430
 6411SOL     OW21006   7.586   0.140   8.987
 6411SOL    HW121007   7.574   0.100   8.901
 6411SOL    HW221008   7.668   0.103   9.019
 6412SOL     OW21009  12.060  11.942  11.178
 6412SOL    HW121010  12.036  11.850  11.171
 6412SOL    HW221011  11.979  11.989  11.158
 6413SOL     OW21012   0.796  12.725  11.648
 6413SOL    HW121013   0.887  12.755  11.649
 6413SOL    HW221014   0.763  12.751  11.562
 6414SOL     OW21015   9.687   4.839   4.528
 6414SOL    HW121016   9.712   4.794   4.447
 6414SOL    HW221017   9.723   4.785   4.598
 6415SOL     OW21018  10.587   8.217   5.547
 6415SOL    HW121019  10.591   8.131   5.589
 6415SOL    HW221020  10.560   8.277   5.617
 6416SOL     OW21021   2.013   2.681   6.414
 6416SOL    HW121022   2.074   2.616   6.378
 6416SOL    HW221023   2.066   2.734   6.473
 6417SOL     OW21024   7.602  12.193   3.297
 6417SOL    HW121025   7.617  12.283   3.268
 6417SOL    HW221026   7.519  12.168   3.256
 6418SOL     OW21027   0.138   1.739   0.825
 6418SOL    HW121028   0.197   1.811   0.802
 6418SOL    HW221029   0.077   1.734   0.751
 6419SOL     OW21030   0.187   3.664   5.776
 6419SOL    HW121031   0.222   3.595   5.832
 6419SOL    HW221032   0.093   3.665   5.794
 6420SOL     OW21033   1.020  11.874   1.302
 6420SOL    HW121034   1.024  11.909   1.213
 6420SOL    HW221035   1.102  11.826   1.312
 6421SOL     OW21036   8.123   5.516   9.681
 6421SOL    HW121037   8.099   5.544   9.592
 6421SOL    HW221038   8.101   5.591   9.736
 6422SOL     OW21039  11.779   8.384  11.234
 6422SOL    HW121040  11.845   8.398  11.302
 6422SOL    HW221041  11.750   8.472  11.210
 6423SOL     OW21042  10.563   2.566  12.523
 6423SOL    HW121043  10.621   2.637  12.496
 6423SOL    HW221044  10.569   2.566  12.619
 6424SOL     OW21045  11.623   1.881  13.285
 6424SOL    HW121046  11.579   1.868  13.201
 6424SOL    HW221047  11.626   1.793  13.324
 6425SOL     OW21048   2.233  10.111   1.632
 6425SOL    HW121049   2.311  10.057   1.618
 6425SOL    HW221050   2.257  10.198   1.599
 6426SOL     OW21051   3.887   2.025   6.938
 6426SOL    HW121052   3.880   1.934   6.909
 6426SOL    HW221053   3.856   2.077   6.864
 6427SOL     OW21054  12.428  12.313   2.168
 6427SOL    HW121055  12.336  12.287   2.170
 6427SOL    HW221056  12.475  12.236   2.136
 6428SOL     OW21057  10.216  10.492   5.947
 6428SOL    HW121058  10.171  10.560   5.997
 6428SOL    HW221059  10.146  10.433   5.920
 6429SOL     OW21060   5.557   6.501   2.708
 6429SOL    HW121061   5.485   6.438   2.716
 6429SOL    HW221062   5.631   6.458   2.751
 6430SOL     OW21063   4.817  12.359  11.814
 6430SOL    HW121064   4.911  12.375  11.820
 6430SOL    HW221065   4.809  12.282  11.757
 6431SOL     OW21066   5.468  11.209   6.401
 6431SOL    HW121067   5.545  11.194   6.456
 6431SOL    HW221068   5.402  11.148   6.434
 6432SOL     OW21069   8.810   5.736   9.800
 6432SOL    HW121070   8.719   5.733   9.831
 6432SOL    HW221071   8.810   5.680   9.722
 6433SOL     OW21072   8.528   7.118   8.964
 6433SOL    HW121073   8.433   7.109   8.975
 6433SOL    HW221074   8.557   7.032   8.934
 6434SOL     OW21075   9.140  11.788   9.966
 6434SOL    HW121076   9.205  11.826   9.908
 6434SOL    HW221077   9.122  11.702   9.928
 6435SOL     OW21078   3.958   2.874   0.665
 6435SOL    HW121079   3.969   2.843   0.576
 6435SOL    HW221080   3.999   2.961   0.666
 6436SOL     OW21081  13.389   3.387   1.921
 6436SOL    HW121082  13.341   3.417   1.997
 6436SOL    HW221083  13.349   3.433   1.847
 6437SOL     OW21084   1.947  11.260   4.700
 6437SOL    HW121085   1.981  11.176   4.669
 6437SOL    HW221086   1.971  11.322   4.632
 6438SOL     OW21087  10.694   1.332   6.620
 6438SOL    HW121088  10.605   1.303   6.640
 6438SOL    HW221089  10.686   1.382   6.538
 6439SOL     OW21090  13.164   3.011   0.111
 6439SOL    HW121091  13.205   2.998   0.025
 6439SOL    HW221092  13.175   2.927   0.156
 6440SOL     OW21093  11.618   8.558   7.671
 6440SOL    HW121094  11.696   8.538   7.620
 6440SOL    HW221095  11.652   8.597   7.752
 6441SOL     OW21096   8.332   8.679   8.034
 6441SOL    HW121097   8.409   8.735   8.019
 6441SOL    HW221098   8.341   8.650   8.124
 6442SOL     OW21099  13.548   7.892  13.452
 6442SOL    HW121100  13.580   7.802  13.442
 6442SOL    HW221101  13.551   7.928  13.363
 6443SOL     OW21102   0.568  12.890   8.233
 6443SOL    HW121103   0.555  12.838   8.154
 6443SOL    HW221104   0.578  12.980   8.202
 6444SOL     OW21105  12.008   2.235   8.828
 6444SOL    HW121106  11.991   2.154   8.876
 6444SOL    HW221107  12.075   2.280   8.879
 6445SOL     OW21108  13.984   3.408   4.691
 6445SOL    HW121109  14.059   3.387   4.636
 6445SOL    HW221110  14.019   3.416   4.779
 6446SOL     OW21111   0.766  10.887  14.456
 6446SOL    HW121112   0.671  10.879  14.458
 6446SOL    HW221113   0.784  10.974  14.492
 6447SOL     OW21114   3.209  10.584  11.464
 6447SOL    HW121115   3.160  10.665  11.456
 6447SOL    HW221116   3.254  10.591  11.548
 6448SOL     OW21117   6.413  13.220  14.045
 6448SOL    HW121118   6.319  13.242  14.046
 6448SOL    HW221119   6.445  13.255  13.962
 6449SOL     OW21120  14.617   0.339  13.805
 6449SOL    HW121121  14.710   0.325  13.786
 6449SOL    HW221122  14.575   0.256  13.783
 6450SOL     OW21123   5.959   2.937  10.209
 6450SOL    HW121124   5.915   2.865  10.164
 6450SOL    HW221125   5.925   3.016  10.165
 6451SOL     OW21126   5.898  14.572  10.725
 6451SOL    HW121127   5.979  14.521  10.729
 6451SOL    HW221128   5.905  14.635  10.797
 6452SOL     OW21129   2.430   8.753   8.244
 6452SOL    HW121130   2.464   8.842   8.233
 6452SOL    HW221131   2.424   8.718   8.155
 6453SOL     OW21132   0.441  10.469   1.427
 6453SOL    HW121133   0.478  10.558   1.431
 6453SOL    HW221134   0.420  10.448   1.518
 6454SOL     OW21135  13.664   1.003  10.589
 6454SOL    HW121136  13.668   0.943  10.663
 6454SOL    HW221137  13.571   1.024  10.581
 6455SOL     OW21138  14.112   7.283  10.037
 6455SOL    HW121139  14.117   7.257   9.945
 6455SOL    HW221140  14.091   7.202  10.084
 6456SOL     OW21141   5.317   9.991   1.954
 6456SOL    HW121142   5.223   9.986   1.971
 6456SOL    HW221143   5.350  10.054   2.018
 6457SOL     OW21144   8.355  14.862   4.761
 6457SOL    HW121145   8.367   0.076   4.787
 6457SOL    HW221146   8.360  14.863   4.666
 6458SOL     OW21147   7.253   5.963   2.439
 6458SOL    HW121148   7.198   6.037   2.414
 6458SOL    HW221149   7.342   5.993   2.425
 6459SOL     OW21150   6.719   9.812  12.801
 6459SOL    HW121151   6.741   9.778  12.714
 6459SOL    HW221152   6.801   9.807  12.850
 6460SOL     OW21153   8.160   9.242   0.271
 6460SOL    HW121154   8.088   9.236   0.334
 6460SOL    HW221155   8.215   9.166   0.291
 6461SOL     OW21156   7.859   0.834   5.415
 6461SOL    HW121157   7.789   0.809   5.477
 6461SOL    HW221158   7.819   0.901   5.360
 6462SOL     OW21159   9.127   0.972   0.584
 6462SOL    HW121160   9.128   0.991   0.490
 6462SOL    HW221161   9.163   0.884   0.591
 6463SOL     OW21162  11.838  10.095   7.035
 6463SOL    HW121163  11.757  10.120   6.989
 6463SOL    HW221164  11.868  10.017   6.988
 6464SOL     OW21165   5.868  12.723   6.139
 6464SOL    HW121166   5.937  12.658   6.129
 6464SOL    HW221167   5.801  12.697   6.076
 6465SOL     OW21168   2.332   5.906   4.535
 6465SOL    HW121169   2.370   5.820   4.517
 6465SOL    HW221170   2.242   5.887   4.562
 6466SOL     OW21171   2.516   7.045   3.768
 6466SOL    HW121172   2.496   7.122   3.821
 6466SOL    HW221173   2.607   7.023   3.791
 6467SOL     OW21174   1.923   6.635   6.637
 6467SOL    HW121175   1.845   6.587   6.662
 6467SOL    HW221176   1.904   6.668   6.549
 6468SOL     OW21177   5.492   7.774   6.443
 6468SOL    HW121178   5.506   7.747   6.534
 6468SOL    HW221179   5.545   7.853   6.434
 6469SOL     OW21180   4.330   7.850   2.837
 6469SOL    HW121181   4.319   7.758   2.813
 6469SOL    HW221182   4.404   7.880   2.784
 6470SOL     OW21183   2.986  14.413  12.686
 6470SOL    HW121184   2.975  14.479  12.754
 6470SOL    HW221185   3.059  14.446  12.632
 6471SOL     OW21186   7.891  12.713   6.369
 6471SOL    HW121187   7.946  12.773   6.421
 6471SOL    HW221188   7.942  12.632   6.364
 6472SOL     OW21189   4.212   6.408   3.329
 6472SOL    HW121190   4.224   6.479   3.391
 6472SOL    HW221191   4.217   6.450   3.243
 6473SOL     OW21192  11.055   6.012  14.163
 6473SOL    HW121193  11.144   5.979  14.178
 6473SOL    HW221194  11.018   6.025  14.250
 6474SOL     OW21195   3.828   8.766  13.966
 6474SOL    HW121196   3.880   8.824  13.911
 6474SOL    HW221197   3.892   8.725  14.025
 6475SOL     OW21198  13.641  14.301  11.410
 6475SOL    HW121199  13.685  14.334  11.488
 6475SOL    HW221200  13.552  14.336  11.415
 6476SOL     OW21201   4.424   1.611  11.602
 6476SOL    HW121202   4.414   1.684  11.663
 6476SOL    HW221203   4.518   1.599  11.593
 6477SOL     OW21204   8.722   0.035   2.203
 6477SOL    HW121205   8.676   0.025   2.287
 6477SOL    HW221206   8.665   0.090   2.150
 6478SOL     OW21207   1.586  13.823   0.147
 6478SOL    HW121208   1.545  13.814   0.233
 6478SOL    HW221209   1.672  13.783   0.157
 6479SOL     OW21210  11.301   2.375   9.070
 6479SOL    HW121211  11.230   2.344   9.126
 6479SOL    HW221212  11.268   2.457   9.034
 6480SOL     OW21213   1.227   8.940  11.801
 6480SOL    HW121214   1.245   8.949  11.894
 6480SOL    HW221215   1.313   8.937  11.760
 6481SOL     OW21216   0.865   2.811   2.803
 6481SOL    HW121217   0.924   2.814   2.728
 6481SOL    HW221218   0.910   2.861   2.872
 6482SOL     OW21219   5.242   7.385   2.585
 6482SOL    HW121220   5.325   7.411   2.626
 6482SOL    HW221221   5.245   7.289   2.582
 6483SOL     OW21222   4.941  11.645   5.088
 6483SOL    HW121223   4.910  11.632   4.998
 6483SOL    HW221224   5.012  11.582   5.098
 6484SOL     OW21225   9.458   5.543   2.158
 6484SOL    HW121226   9.376   5.587   2.134
 6484SOL    HW221227   9.519   5.567   2.089
 6485SOL     OW21228  11.226   8.417   4.327
 6485SOL    HW121229  11.304   8.421   4.272
 6485SOL    HW221230  11.258   8.443   4.414
 6486SOL     OW21231   9.590   9.120   3.100
 6486SOL    HW121232   9.628   9.161   3.178
 6486SOL    HW221233   9.648   9.045   3.082
 6487SOL     OW21234  12.452   8.511   2.140
 6487SOL    HW121235  12.448   8.418   2.122
 6487SOL    HW221236  12.528   8.542   2.090
 6488SOL     OW21237   1.915   6.679   6.156
 6488SOL    HW121238   1.978   6.609   6.172
 6488SOL    HW221239   1.904   6.722   6.240
 6489SOL     OW21240   8.468  10.422   5.952
 6489SOL    HW121241   8.453  10.494   6.012
 6489SOL    HW221242   8.516  10.357   6.003
 6490SOL     OW21243  13.453   1.796   9.491
 6490SOL    HW121244  13.547   1.781   9.481
 6490SOL    HW221245  13.429   1.748   9.570
 6491SOL     OW21246   0.860   1.596   3.595
 6491SOL    HW121247   0.785   1.631   3.546
 6491SOL    HW221248   0.911   1.549   3.529
 6492SOL     OW21249   6.715  10.114   2.018
 6492SOL    HW121250   6.721  10.087   2.110
 6492SOL    HW221251   6.763  10.046   1.970
 6493SOL     OW21252   7.764  11.997   9.177
 6493SOL    HW121253   7.751  12.025   9.267
 6493SOL    HW221254   7.805  11.911   9.183
 6494SOL     OW21255  14.644   4.364  13.964
 6494SOL    HW121256  14.554   4.396  13.955
 6494SOL    HW221257  14.676   4.356  13.874
 6495SOL     OW21258  14.872  11.936   0.220
 6495SOL    HW121259  14.847  12.017   0.263
 6495SOL    HW221260   0.061  11.898   0.276
 6496SOL     OW21261   4.686  11.890   0.322
 6496SOL    HW121262   4.732  11.828   0.378
 6496SOL    HW221263   4.749  11.911   0.253
 6497SOL     OW21264   5.741   4.919   0.880
 6497SOL    HW121265   5.658   4.967   0.869
 6497SOL    HW221266   5.797   4.952   0.810
 6498SOL     OW21267   5.125   9.536  11.811
 6498SOL    HW121268   5.141   9.535  11.906
 6498SOL    HW221269   5.166   9.455  11.779
 6499SOL     OW21270  13.656  11.223   4.697
 6499SOL    HW121271  13.751  11.232   4.709
 6499SOL    HW221272  13.626  11.309   4.669
 6500SOL     OW21273  13.422  11.135   6.091
 6500SOL    HW121274  13.480  11.119   6.016
 6500SOL    HW221275  13.340  11.090   6.068
 6501SOL     OW21276  12.072   7.080   4.570
 6501SOL    HW121277  12.164   7.062   4.586
 6501SOL    HW221278  12.063   7.174   4.583
 6502SOL     OW21279   0.964  14.091   3.029
 6502SOL    HW121280   0.881  14.048   3.050
 6502SOL    HW221281   1.017  14.022   2.990
 6503SOL     OW21282  12.045   6.979  10.616
 6503SOL    HW121283  11.965   6.951  10.572
 6503SOL    HW221284  12.015   7.026  10.693
 6504SOL     OW21285   6.135   6.864  10.050
 6504SOL    HW121286   6.203   6.914  10.003
 6504SOL    HW221287   6.143   6.775  10.017
 6505SOL     OW21288  11.083   6.745   7.232
 6505SOL    HW121289  11.086   6.824   7.286
 6505SOL    HW221290  11.174   6.725   7.212
 6506SOL     OW21291   6.314   1.156   6.288
 6506SOL    HW121292   6.269   1.190   6.366
 6506SOL    HW221293   6.398   1.201   6.288
 6507SOL     OW21294  12.430   4.576   7.651
 6507SOL    HW121295  12.486   4.543   7.581
 6507SOL    HW221296  12.391   4.656   7.616
 6508SOL     OW21297  11.526  13.441   2.916
 6508SOL    HW121298  11.470  13.408   2.987
 6508SOL    HW221299  11.561  13.523   2.950
 6509SOL     OW21300  14.628   1.185   0.278
 6509SOL    HW121301  14.709   1.234   0.293
 6509SOL    HW221302  14.640   1.103   0.327
 6510SOL     OW21303  12.073   4.985   6.611
 6510SOL    HW121304  12.001   5.040   6.644
 6510SOL    HW221305  12.124   4.963   6.689
 6511SOL     OW21306  14.687   4.443   8.214
 6511SOL    HW121307  14.630   4.515   8.241
 6511SOL    HW221308  14.628   4.378   8.177
 6512SOL     OW21309   8.655  10.532  13.911
 6512SOL    HW121310   8.706  10.500  13.986
 6512SOL    HW221311   8.707  10.605  13.877
 6513SOL     OW21312   7.521   3.947  14.863
 6513SOL    HW121313   7.448   3.896  14.825
 6513SOL    HW221314   7.588   3.881   0.004
 6514SOL     OW21315   3.783   1.606   4.283
 6514SOL    HW121316   3.811   1.575   4.369
 6514SOL    HW221317   3.829   1.550   4.220
 6515SOL     OW21318   3.422  14.627  12.818
 6515SOL    HW121319   3.508  14.645  12.779
 6515SOL    HW221320   3.376  14.710  12.814
 6516SOL     OW21321   1.617   7.604   9.009
 6516SOL    HW121322   1.661   7.636   8.931
 6516SOL    HW221323   1.536   7.656   9.014
 6517SOL     OW21324   1.681  12.090   6.798
 6517SOL    HW121325   1.756  12.099   6.857
 6517SOL    HW221326   1.642  12.177   6.796
 6518SOL     OW21327   6.066  11.327  12.402
 6518SOL    HW121328   6.072  11.363  12.490
 6518SOL    HW221329   6.071  11.404  12.344
 6519SOL     OW21330  13.657   6.928  11.359
 6519SOL    HW121331  13.583   6.885  11.402
 6519SOL    HW221332  13.629   6.938  11.268
 6520SOL     OW21333   6.387   4.364   3.633
 6520SOL    HW121334   6.333   4.286   3.620
 6520SOL    HW221335   6.337   4.418   3.693
 6521SOL     OW21336   5.425   7.887   8.487
 6521SOL    HW121337   5.395   7.944   8.417
 6521SOL    HW221338   5.398   7.930   8.568
 6522SOL     OW21339   9.248  14.534   8.403
 6522SOL    HW121340   9.280  14.520   8.314
 6522SOL    HW221341   9.155  14.510   8.399
 6523SOL     OW21342   0.445   7.475  11.078
 6523SOL    HW121343   0.350   7.478  11.061
 6523SOL    HW221344   0.462   7.551  11.134
 6524SOL     OW21345   6.670   2.761   8.209
 6524SOL    HW121346   6.670   2.852   8.181
 6524SOL    HW221347   6.608   2.718   8.150
 6525SOL     OW21348   0.565  10.967   4.122
 6525SOL    HW121349   0.483  10.990   4.167
 6525SOL    HW221350   0.596  10.889   4.168
 6526SOL     OW21351   9.993  10.983   7.601
 6526SOL    HW121352   9.912  10.957   7.557
 6526SOL    HW221353  10.062  10.947   7.546
 6527SOL     OW21354   6.895   8.247   6.157
 6527SOL    HW121355   6.951   8.287   6.090
 6527SOL    HW221356   6.856   8.322   6.203
 6528SOL     OW21357   8.115   7.008   0.214
 6528SOL    HW121358   8.199   6.977   0.247
 6528SOL    HW221359   8.126   7.012   0.119
 6529SOL     OW21360   7.697  14.434   7.313
 6529SOL    HW121361   7.759  14.504   7.333
 6529SOL    HW221362   7.636  14.433   7.386
 6530SOL     OW21363  13.311  13.763  14.745
 6530SOL    HW121364  13.375  13.803  14.686
 6530SOL    HW221365  13.351  13.681  14.773
 6531SOL     OW21366  12.396   1.932   2.485
 6531SOL    HW121367  12.404   2.012   2.433
 6531SOL    HW221368  12.474   1.881   2.465
 6532SOL     OW21369  12.753   9.054   8.171
 6532SOL    HW121370  12.683   8.989   8.174
 6532SOL    HW221371  12.742   9.107   8.250
 6533SOL     OW21372   5.501  13.950   8.303
 6533SOL    HW121373   5.444  13.910   8.369
 6533SOL    HW221374   5.570  13.993   8.353
 6534SOL     OW21375   1.189   0.869   1.935
 6534SOL    HW121376   1.100   0.839   1.914
 6534SOL    HW221377   1.202   0.945   1.878
 6535SOL     OW21378  12.492  14.029   8.723
 6535SOL    HW121379  12.499  14.124   8.732
 6535SOL    HW221380  12.580  13.997   8.740
 6536SOL     OW21381   8.475  12.553   7.655
 6536SOL    HW121382   8.569  12.535   7.655
 6536SOL    HW221383   8.437  12.487   7.713
 6537SOL     OW21384   2.544   2.334   4.846
 6537SOL    HW121385   2.608   2.403   4.860
 6537SOL    HW221386   2.461   2.380   4.832
 6538SOL     OW21387   3.763  11.532  12.090
 6538SOL    HW121388   3.744  11.597  12.157
 6538SOL    HW221389   3.734  11.449  12.127
 6539SOL     OW21390   0.377  12.292   7.426
 6539SOL    HW121391   0.405  12.287   7.517
 6539SOL    HW221392   0.286  12.262   7.428
 6540SOL     OW21393  10.612   3.741  11.540
 6540SOL    HW121394  10.570   3.755  11.624
 6540SOL    HW221395  10.691   3.691  11.561
 6541SOL     OW21396  11.834   7.089   1.337
 6541SOL    HW121397  11.827   7.090   1.241
 6541SOL    HW221398  11.759   7.037   1.365
 6542SOL     OW21399   8.016   7.977  13.110
 6542SOL    HW121400   8.101   7.969  13.154
 6542SOL    HW221401   8.036   7.968  13.017
 6543SOL     OW21402   6.789   0.422   9.496
 6543SOL    HW121403   6.789   0.388   9.586
 6543SOL    HW221404   6.861   0.376   9.453
 6544SOL     OW21405   7.848   7.684   1.094
 6544SOL    HW121406   7.792   7.691   1.017
 6544SOL    HW221407   7.918   7.625   1.069
 6545SOL     OW21408  12.113  10.132   1.846
 6545SOL    HW121409  12.126  10.152   1.938
 6545SOL    HW221410  12.139  10.211   1.800
 6546SOL     OW21411   4.151   0.874   3.047
 6546SOL    HW121412   4.191   0.959   3.026
 6546SOL    HW221413   4.162   0.865   3.142
 6547SOL     OW21414  12.427  11.954   6.034
 6547SOL    HW121415  12.368  11.960   6.108
 6547SOL    HW221416  12.514  11.968   6.071
 6548SOL     OW21417   6.124   7.801   8.492
 6548SOL    HW121418   6.147   7.708   8.495
 6548SOL    HW221419   6.185   7.842   8.554
 6549SOL     OW21420   1.207  13.651   1.637
 6549SOL    HW121421   1.302  13.656   1.626
 6549SOL    HW221422   1.177  13.588   1.572
 6550SOL     OW21423  10.669   4.983  10.122
 6550SOL    HW121424  10.619   5.043  10.068
 6550SOL    HW221425  10.746   5.033  10.149
 6551SOL     OW21426  11.407   8.329   0.933
 6551SOL    HW121427  11.414   8.368   1.020
 6551SOL    HW221428  11.313   8.308   0.923
 6552SOL     OW21429  14.551   2.371   8.321
 6552SOL    HW121430  14.643   2.352   8.336
 6552SOL    HW221431  14.511   2.368   8.408
 6553SOL     OW21432   8.460   4.715  10.159
 6553SOL    HW121433   8.365   4.726  10.165
 6553SOL    HW221434   8.472   4.662  10.080
 6554SOL     OW21435   1.332   2.344   6.854
 6554SOL    HW121436   1.316   2.268   6.798
 6554SOL    HW221437   1.417   2.377   6.826
 6555SOL     OW21438  11.685  11.040   6.703
 6555SOL    HW121439  11.717  10.951   6.717
 6555SOL    HW221440  11.590  11.030   6.692
 6556SOL     OW21441  13.999   0.742  13.426
 6556SOL    HW121442  13.977   0.829  13.393
 6556SOL    HW221443  14.086   0.724  13.390
 6557SOL     OW21444   3.052   1.590   0.749
 6557SOL    HW121445   2.979   1.637   0.708
 6557SOL    HW221446   3.013   1.508   0.779
 6558SOL     OW21447  11.203   0.589   2.206
 6558SOL    HW121448  11.257   0.526   2.159
 6558SOL    HW221449  11.129   0.605   2.148
 6559SOL     OW21450   2.059   5.506   9.318
 6559SOL    HW121451   2.094   5.591   9.291
 6559SOL    HW221452   2.067   5.505   9.413
 6560SOL     OW21453   4.100  14.248   6.270
 6560SOL    HW121454   4.071  14.339   6.272
 6560SOL    HW221455   4.028  14.199   6.310
 6561SOL     OW21456   6.195  14.123   8.198
 6561SOL    HW121457   6.185  14.088   8.110
 6561SOL    HW221458   6.288  14.109   8.219
 6562SOL     OW21459   5.025   9.656  13.082
 6562SOL    HW121460   4.970   9.585  13.114
 6562SOL    HW221461   5.108   9.646  13.128
 6563SOL     OW21462   8.781  10.053  12.461
 6563SOL    HW121463   8.863  10.070  12.507
 6563SOL    HW221464   8.721  10.023  12.529
 6564SOL     OW21465  12.796   6.754  11.264
 6564SOL    HW121466  12.717   6.701  11.254
 6564SOL    HW221467  12.861   6.692  11.297
 6565SOL     OW21468  13.209  12.765   6.297
 6565SOL    HW121469  13.211  12.829   6.368
 6565SOL    HW221470  13.186  12.816   6.219
 6566SOL     OW21471  12.619   0.666   6.208
 6566SOL    HW121472  12.534   0.695   6.174
 6566SOL    HW221473  12.675   0.744   6.202
 6567SOL     OW21474   2.539   0.348   6.387
 6567SOL    HW121475   2.488   0.268   6.375
 6567SOL    HW221476   2.485   0.402   6.444
 6568SOL     OW21477   9.635   7.581  12.518
 6568SOL    HW121478   9.553   7.546  12.553
 6568SOL    HW221479   9.611   7.667  12.482
 6569SOL     OW21480  12.115   5.598   7.365
 6569SOL    HW121481  12.080   5.630   7.448
 6569SOL    HW221482  12.043   5.547   7.327
 6570SOL     OW21483   1.035   9.430  10.508
 6570SOL    HW121484   1.038   9.465  10.419
 6570SOL    HW221485   1.103   9.477  10.555
 6571SOL     OW21486   6.720   9.593   3.952
 6571SOL    HW121487   6.786   9.661   3.946
 6571SOL    HW221488   6.657   9.613   3.883
 6572SOL     OW21489  10.426  14.554   5.685
 6572SOL    HW121490  10.418  14.469   5.730
 6572SOL    HW221491  10.468  14.533   5.602
 6573SOL     OW21492  12.528   7.437   2.317
 6573SOL    HW121493  12.499   7.433   2.225
 6573SOL    HW221494  12.585   7.360   2.326
 6574SOL     OW21495  12.377  12.184   6.967
 6574SOL    HW121496  12.349  12.269   7.002
 6574SOL    HW221497  12.371  12.124   7.041
 6575SOL     OW21498  12.914   3.629  13.057
 6575SOL    HW121499  13.005   3.630  13.029
 6575SOL    HW221500  12.916   3.584  13.142
 6576SOL     OW21501   9.366   6.305   3.961
 6576SOL    HW121502   9.362   6.217   3.922
 6576SOL    HW221503   9.303   6.356   3.911
 6577SOL     OW21504   1.364   3.605  11.285
 6577SOL    HW121505   1.401   3.627  11.370
 6577SOL    HW221506   1.270   3.619  11.295
 6578SOL     OW21507   5.205  12.851  10.582
 6578SOL    HW121508   5.136  12.824  10.643
 6578SOL    HW221509   5.265  12.776  10.581
 6579SOL     OW21510   4.925   9.002   6.840
 6579SOL    HW121511   4.889   8.957   6.763
 6579SOL    HW221512   4.885   9.089   6.838
 6580SOL     OW21513   4.093   7.264  12.115
 6580SOL    HW121514   4.086   7.178  12.157
 6580SOL    HW221515   4.180   7.296  12.141
 6581SOL     OW21516  12.479   8.603   0.743
 6581SOL    HW121517  12.559   8.654   0.756
 6581SOL    HW221518  12.479   8.583   0.650
 6582SOL     OW21519   1.253   2.432  10.591
 6582SOL    HW121520   1.192   2.489  10.544
 6582SOL    HW221521   1.220   2.432  10.681
 6583SOL     OW21522   8.897   0.132   5.878
 6583SOL    HW121523   8.905   0.063   5.812
 6583SOL    HW221524   8.895   0.084   5.961
 6584SOL     OW21525   3.621  10.666   4.849
 6584SOL    HW121526   3.595  10.693   4.937
 6584SOL    HW221527   3.686  10.597   4.864
 6585SOL     OW21528  10.430   4.171   9.735
 6585SOL    HW121529  10.485   4.214   9.800
 6585SOL    HW221530  10.413   4.084   9.772
 6586SOL     OW21531   3.121   5.007  10.259
 6586SOL    HW121532   3.130   5.056  10.341
 6586SOL    HW221533   3.033   4.969  10.264
 6587SOL     OW21534   3.436   4.371   4.388
 6587SOL    HW121535   3.479   4.456   4.398
 6587SOL    HW221536   3.397   4.354   4.474
 6588SOL     OW21537   7.222  12.643  14.420
 6588SOL    HW121538   7.225  12.728  14.463
 6588SOL    HW221539   7.289  12.591  14.463
 6589SOL     OW21540   1.288   7.595   0.678
 6589SOL    HW121541   1.251   7.683   0.681
 6589SOL    HW221542   1.298   7.570   0.770
 6590SOL     OW21543  11.670  10.102  10.744
 6590SOL    HW121544  11.694  10.195  10.740
 6590SOL    HW221545  11.720  10.062  10.673
 6591SOL     OW21546   4.235   6.600   6.516
 6591SOL    HW121547   4.185   6.522   6.493
 6591SOL    HW221548   4.227   6.657   6.439
 6592SOL     OW21549   5.001   7.797   0.830
 6592SOL    HW121550   5.009   7.708   0.864
 6592SOL    HW221551   4.943   7.788   0.754
 6593SOL     OW21552  11.016   0.891   6.051
 6593SOL    HW121553  10.988   0.802   6.068
 6593SOL    HW221554  11.046   0.924   6.136
 6594SOL     OW21555  13.266   2.110  11.917
 6594SOL    HW121556  13.233   2.040  11.861
 6594SOL    HW221557  13.343   2.072  11.959
 6595SOL     OW21558   7.020  12.748   0.305
 6595SOL    HW121559   7.040  12.816   0.241
 6595SOL    HW221560   6.927  12.762   0.327
 6596SOL     OW21561   4.350  12.409   3.172
 6596SOL    HW121562   4.383  12.471   3.107
 6596SOL    HW221563   4.322  12.463   3.245
 6597SOL     OW21564  11.444   1.645   0.989
 6597SOL    HW121565  11.448   1.606   1.077
 6597SOL    HW221566  11.405   1.576   0.935
 6598SOL     OW21567  12.568  14.878   7.505
 6598SOL    HW121568  12.477   0.020   7.485
 6598SOL    HW221569  12.572  14.877   7.601
 6599SOL     OW21570  12.158   9.864   6.349
 6599SOL    HW121571  12.197   9.789   6.394
 6599SOL    HW221572  12.073   9.833   6.319
 6600SOL     OW21573   8.811   6.735  13.303
 6600SOL    HW121574   8.859   6.804  13.256
 6600SOL    HW221575   8.777   6.779  13.381
 6601SOL     OW21576   3.940   8.496   6.820
 6601SOL    HW121577   4.031   8.490   6.792
 6601SOL    HW221578   3.904   8.570   6.771
 6602SOL     OW21579   6.372  10.115   0.864
 6602SOL    HW121580   6.404  10.099   0.775
 6602SOL    HW221581   6.282  10.081   0.864
 6603SOL     OW21582  14.082  12.678  13.095
 6603SOL    HW121583  14.056  12.770  13.100
 6603SOL    HW221584  14.177  12.681  13.082
 6604SOL     OW21585   3.975   0.352   4.713
 6604SOL    HW121586   3.966   0.324   4.805
 6604SOL    HW221587   4.069   0.357   4.698
 6605SOL     OW21588   9.702   5.055  11.049
 6605SOL    HW121589   9.724   5.073  10.957
 6605SOL    HW221590   9.608   5.072  11.055
 6606SOL     OW21591   9.808  11.044  12.674
 6606SOL    HW121592   9.806  11.002  12.760
 6606SOL    HW221593   9.857  11.125  12.688
 6607SOL     OW21594  12.430   0.209   3.197
 6607SOL    HW121595  12.491   0.141   3.228
 6607SOL    HW221596  12.430   0.275   3.267
 6608SOL     OW21597  13.712   0.679   7.811
 6608SOL    HW121598  13.652   0.630   7.867
 6608SOL    HW221599  13.683   0.661   7.722
 6609SOL     OW21600  14.833   6.474   5.756
 6609SOL    HW121601   0.025   6.438   5.701
 6609SOL    HW221602  14.752   6.453   5.710
 6610SOL     OW21603   1.942  10.475   8.934
 6610SOL    HW121604   1.969  10.515   8.851
 6610SOL    HW221605   2.021  10.431   8.966
 6611SOL     OW21606   5.988   7.099   3.685
 6611SOL    HW121607   5.920   7.155   3.722
 6611SOL    HW221608   6.039   7.157   3.628
 6612SOL     OW21609   1.025  13.353  11.498
 6612SOL    HW121610   1.093  13.321  11.558
 6612SOL    HW221611   1.073  13.406  11.434
 6613SOL     OW21612   1.029   0.481   4.715
 6613SOL    HW121613   1.072   0.505   4.633
 6613SOL    HW221614   0.953   0.430   4.688
 6614SOL     OW21615   7.647   6.242  11.453
 6614SOL    HW121616   7.606   6.268  11.370
 6614SOL    HW221617   7.579   6.255  11.518
 6615SOL     OW21618   3.011   4.009   9.961
 6615SOL    HW121619   2.976   3.955  10.031
 6615SOL    HW221620   2.934   4.047   9.919
 6616SOL     OW21621  14.185   0.343   0.769
 6616SOL    HW121622  14.204   0.400   0.843
 6616SOL    HW221623  14.091   0.328   0.774
 6617SOL     OW21624   4.070  10.578   9.792
 6617SOL    HW121625   3.990  10.591   9.842
 6617SOL    HW221626   4.041  10.543   9.708
 6618SOL     OW21627  10.742  12.573  10.757
 6618SOL    HW121628  10.699  12.489  10.775
 6618SOL    HW221629  10.670  12.635  10.749
 6619SOL     OW21630   4.077   1.474   1.881
 6619SOL    HW121631   4.088   1.406   1.947
 6619SOL    HW221632   3.997   1.449   1.834
 6620SOL     OW21633   9.697   6.935   1.585
 6620SOL    HW121634   9.692   7.002   1.653
 6620SOL    HW221635   9.617   6.884   1.595
 6621SOL     OW21636   7.713   5.365   0.319
 6621SOL    HW121637   7.690   5.274   0.333
 6621SOL    HW221638   7.703   5.406   0.405
 6622SOL     OW21639   2.349   5.082  14.158
 6622SOL    HW121640   2.434   5.076  14.201
 6622SOL    HW221641   2.353   5.016  14.089
 6623SOL     OW21642  13.217   1.411   9.282
 6623SOL    HW121643  13.290   1.397   9.222
 6623SOL    HW221644  13.204   1.326   9.324
 6624SOL     OW21645   9.919   8.096   1.370
 6624SOL    HW121646   9.979   8.038   1.324
 6624SOL    HW221647   9.919   8.177   1.318
 6625SOL     OW21648  11.365   9.041   3.118
 6625SOL    HW121649  11.407   9.114   3.072
 6625SOL    HW221650  11.281   9.076   3.148
 6626SOL     OW21651   6.001   5.645  13.744
 6626SOL    HW121652   5.983   5.588  13.818
 6626SOL    HW221653   6.022   5.730  13.783
 6627SOL     OW21654  11.355  12.840  14.057
 6627SOL    HW121655  11.437  12.871  14.097
 6627SOL    HW221656  11.364  12.861  13.964
 6628SOL     OW21657   5.293   5.890   3.144
 6628SOL    HW121658   5.374   5.936   3.166
 6628SOL    HW221659   5.240   5.895   3.224
 6629SOL     OW21660  10.953  10.283  11.685
 6629SOL    HW121661  10.940  10.348  11.754
 6629SOL    HW221662  10.866  10.247  11.669
 6630SOL     OW21663   7.665   7.968  11.867
 6630SOL    HW121664   7.727   8.010  11.928
 6630SOL    HW221665   7.719   7.945  11.791
 6631SOL     OW21666   7.634  14.263   9.890
 6631SOL    HW121667   7.633  14.177   9.847
 6631SOL    HW221668   7.560  14.310   9.852
 6632SOL     OW21669   9.486  11.917  11.013
 6632SOL    HW121670   9.519  11.971  10.940
 6632SOL    HW221671   9.520  11.829  10.995
 6633SOL     OW21672   8.939   4.845  12.685
 6633SOL    HW121673   9.009   4.786  12.715
 6633SOL    HW221674   8.966   4.931  12.718
 6634SOL     OW21675  11.831   4.100   6.915
 6634SOL    HW121676  11.806   4.190   6.894
 6634SOL    HW221677  11.761   4.046   6.877
 6635SOL     OW21678  11.732   4.041   2.097
 6635SOL    HW121679  11.700   3.952   2.110
 6635SOL    HW221680  11.822   4.040   2.129
 6636SOL     OW21681  11.085   2.606   0.091
 6636SOL    HW121682  11.040   2.641   0.169
 6636SOL    HW221683  11.017   2.606   0.023
 6637SOL     OW21684  14.718   8.726   1.607
 6637SOL    HW121685  14.799   8.677   1.621
 6637SOL    HW221686  14.702   8.771   1.690
 6638SOL     OW21687   9.719   7.453   3.850
 6638SOL    HW121688   9.725   7.425   3.758
 6638SOL    HW221689   9.740   7.374   3.900
 6639SOL     OW21690   0.685   9.681  12.726
 6639SOL    HW121691   0.701   9.633  12.808
 6639SOL    HW221692   0.660   9.769  12.754
 6640SOL     OW21693  10.777  14.777   1.217
 6640SOL    HW121694  10.773  14.862   1.173
 6640SOL    HW221695  10.867  14.747   1.203
 6641SOL     OW21696   6.662   4.520   7.464
 6641SOL    HW121697   6.694   4.489   7.379
 6641SOL    HW221698   6.689   4.451   7.525
 6642SOL     OW21699  10.509   4.495  10.129
 6642SOL    HW121700  10.578   4.560  10.111
 6642SOL    HW221701  10.476   4.519  10.215
 6643SOL     OW21702   2.962   0.988  12.353
 6643SOL    HW121703   3.034   1.032  12.307
 6643SOL    HW221704   2.941   0.913  12.297
 6644SOL     OW21705  12.467   9.660   1.999
 6644SOL    HW121706  12.530   9.668   2.071
 6644SOL    HW221707  12.438   9.749   1.982
 6645SOL     OW21708  10.252   5.773  11.931
 6645SOL    HW121709  10.266   5.755  11.839
 6645SOL    HW221710  10.163   5.807  11.936
 6646SOL     OW21711  14.285  12.250  14.455
 6646SOL    HW121712  14.227  12.226  14.528
 6646SOL    HW221713  14.342  12.318  14.491
 6647SOL     OW21714   1.177   8.132   0.401
 6647SOL    HW121715   1.109   8.200   0.399
 6647SOL    HW221716   1.129   8.050   0.390
 6648SOL     OW21717   8.086   4.570   9.317
 6648SOL    HW121718   8.154   4.504   9.333
 6648SOL    HW221719   8.020   4.554   9.384
 6649SOL     OW21720  13.071   6.728   9.812
 6649SOL    HW121721  13.076   6.702   9.720
 6649SOL    HW221722  13.036   6.816   9.811
 6650SOL     OW21723   9.211   6.482   5.746
 6650SOL    HW121724   9.199   6.561   5.798
 6650SOL    HW221725   9.213   6.411   5.810
 6651SOL     OW21726   6.503  12.995   2.867
 6651SOL    HW121727   6.526  12.930   2.800
 6651SOL    HW221728   6.468  12.943   2.939
 6652SOL     OW21729   3.601   0.095   0.255
 6652SOL    HW121730   3.569   0.081   0.344
 6652SOL    HW221731   3.657   0.019   0.238
 6653SOL     OW21732   7.296   7.206  12.059
 6653SOL    HW121733   7.255   7.165  12.135
 6653SOL    HW221734   7.287   7.300  12.074
 6654SOL     OW21735   5.637   9.928   2.224
 6654SOL    HW121736   5.645   9.855   2.163
 6654SOL    HW221737   5.553   9.915   2.268
 6655SOL     OW21738   8.373  13.929   8.576
 6655SOL    HW121739   8.297  13.986   8.569
 6655SOL    HW221740   8.377  13.883   8.492
 6656SOL     OW21741   7.686  13.521   0.802
 6656SOL    HW121742   7.690  13.572   0.721
 6656SOL    HW221743   7.775  13.486   0.812
 6657SOL     OW21744   9.221   5.758  12.714
 6657SOL    HW121745   9.220   5.694  12.784
 6657SOL    HW221746   9.176   5.715  12.641
 6658SOL     OW21747   0.363  10.878  11.091
 6658SOL    HW121748   0.327  10.825  11.020
 6658SOL    HW221749   0.287  10.901  11.145
 6659SOL     OW21750  12.052   0.947   3.838
 6659SOL    HW121751  12.013   1.001   3.906
 6659SOL    HW221752  11.977   0.913   3.789
 6660SOL     OW21753  14.373   9.432   1.039
 6660SOL    HW121754  14.369   9.515   0.992
 6660SOL    HW221755  14.354   9.455   1.130
 6661SOL     OW21756   2.120  12.161  12.557
 6661SOL    HW121757   2.076  12.171  12.641
 6661SOL    HW221758   2.201  12.210  12.567
 6662SOL     OW21759   9.596   0.781   1.753
 6662SOL    HW121760   9.585   0.827   1.670
 6662SOL    HW221761   9.690   0.784   1.770
 6663SOL     OW21762   4.459   1.030  11.215
 6663SOL    HW121763   4.407   1.094  11.262
 6663SOL    HW221764   4.532   1.010  11.274
 6664SOL     OW21765  12.946   9.067   1.878
 6664SOL    HW121766  12.973   9.082   1.968
 6664SOL    HW221767  12.882   8.996   1.883
 6665SOL     OW21768   8.634   9.411   9.250
 6665SOL    HW121769   8.645   9.397   9.156
 6665SOL    HW221770   8.665   9.500   9.265
 6666SOL     OW21771  10.696  10.798   7.094
 6666SOL    HW121772  10.724  10.879   7.053
 6666SOL    HW221773  10.679  10.822   7.185
 6667SOL     OW21774   0.150  11.996   5.753
 6667SOL    HW121775   0.144  12.055   5.828
 6667SOL    HW221776   0.067  12.008   5.706
 6668SOL     OW21777   3.269   9.304  12.344
 6668SOL    HW121778   3.310   9.333  12.425
 6668SOL    HW221779   3.319   9.346  12.274
 6669SOL     OW21780   2.992   3.053  12.410
 6669SOL    HW121781   2.977   3.126  12.349
 6669SOL    HW221782   2.924   3.065  12.477
 6670SOL     OW21783  11.322   7.120   3.820
 6670SOL    HW121784  11.355   7.161   3.900
 6670SOL    HW221785  11.229   7.106   3.837
 6671SOL     OW21786   2.541  13.948   1.616
 6671SOL    HW121787   2.499  14.008   1.678
 6671SOL    HW221788   2.476  13.880   1.601
 6672SOL     OW21789  12.766   6.109   6.036
 6672SOL    HW121790  12.686   6.086   6.085
 6672SOL    HW221791  12.837   6.092   6.098
 6673SOL     OW21792   8.017   8.348  12.165
 6673SOL    HW121793   7.975   8.280  12.218
 6673SOL    HW221794   8.085   8.384  12.222
 6674SOL     OW21795   9.264  12.992   3.505
 6674SOL    HW121796   9.293  13.035   3.585
 6674SOL    HW221797   9.286  12.900   3.517
 6675SOL     OW21798  13.770  12.964   3.433
 6675SOL    HW121799  13.823  12.884   3.436
 6675SOL    HW221800  13.767  12.987   3.340
 6676SOL     OW21801  10.861   1.995   2.808
 6676SOL    HW121802  10.956   1.979   2.812
 6676SOL    HW221803  10.822   1.909   2.821
 6677SOL     OW21804   1.410   9.286   0.661
 6677SOL    HW121805   1.380   9.213   0.608
 6677SOL    HW221806   1.401   9.256   0.752
 6678SOL     OW21807  12.345  12.020   8.804
 6678SOL    HW121808  12.307  12.034   8.891
 6678SOL    HW221809  12.427  12.069   8.807
 6679SOL     OW21810  10.459   0.151   1.366
 6679SOL    HW121811  10.497   0.068   1.337
 6679SOL    HW221812  10.369   0.128   1.391
 6680SOL     OW21813   7.628  14.480   2.891
 6680SOL    HW121814   7.667  14.519   2.969
 6680SOL    HW221815   7.590  14.554   2.844
 6681SOL     OW21816   9.535   4.798   9.007
 6681SOL    HW121817   9.595   4.745   9.061
 6681SOL    HW221818   9.528   4.749   8.925
 6682SOL     OW21819  13.195  10.786  12.290
 6682SOL    HW121820  13.123  10.745  12.337
 6682SOL    HW221821  13.153  10.844  12.226
 6683SOL     OW21822   8.409   4.239   6.548
 6683SOL    HW121823   8.362   4.253   6.630
 6683SOL    HW221824   8.475   4.308   6.546
 6684SOL     OW21825  11.312  11.367   3.526
 6684SOL    HW121826  11.275  11.422   3.596
 6684SOL    HW221827  11.266  11.396   3.447
 6685SOL     OW21828   7.831   6.340  14.299
 6685SOL    HW121829   7.741   6.367  14.283
 6685SOL    HW221830   7.861   6.302  14.216
 6686SOL     OW21831  11.389   8.656   3.500
 6686SOL    HW121832  11.425   8.738   3.531
 6686SOL    HW221833  11.362   8.609   3.579
 6687SOL     OW21834   4.276   4.165   1.428
 6687SOL    HW121835   4.292   4.235   1.364
 6687SOL    HW221836   4.347   4.172   1.491
 6688SOL     OW21837   0.509  11.425   1.276
 6688SOL    HW121838   0.506  11.433   1.181
 6688SOL    HW221839   0.497  11.331   1.293
 6689SOL     OW21840   5.798   9.804   1.158
 6689SOL    HW121841   5.835   9.892   1.150
 6689SOL    HW221842   5.744   9.808   1.237
 6690SOL     OW21843   9.117   4.231   3.821
 6690SOL    HW121844   9.084   4.171   3.755
 6690SOL    HW221845   9.202   4.260   3.787
 6691SOL     OW21846   9.933  10.546   1.407
 6691SOL    HW121847  10.007  10.551   1.347
 6691SOL    HW221848   9.972  10.549   1.494
 6692SOL     OW21849   6.747  14.822   9.840
 6692SOL    HW121850   6.657  14.810   9.810
 6692SOL    HW221851   6.799  14.823   9.759
 6693SOL     OW21852   6.178   3.883  10.399
 6693SOL    HW121853   6.115   3.955  10.412
 6693SOL    HW221854   6.221   3.873  10.484
 6694SOL     OW21855   2.277   8.188  11.697
 6694SOL    HW121856   2.355   8.165  11.749
 6694SOL    HW221857   2.212   8.213  11.762
 6695SOL     OW21858   2.412   6.668   9.125
 6695SOL    HW121859   2.464   6.740   9.159
 6695SOL    HW221860   2.348   6.650   9.193
 6696SOL     OW21861   4.387  11.346  10.824
 6696SOL    HW121862   4.374  11.371  10.733
 6696SOL    HW221863   4.303  11.308  10.851
 6697SOL     OW21864   1.947   5.592   0.223
 6697SOL    HW121865   1.899   5.596   0.305
 6697SOL    HW221866   1.899   5.529   0.169
 6698SOL     OW21867   9.647   6.781   2.721
 6698SOL    HW121868   9.695   6.780   2.638
 6698SOL    HW221869   9.652   6.691   2.753
 6699SOL     OW21870   5.933  13.551   2.826
 6699SOL    HW121871   5.969  13.486   2.886
 6699SOL    HW221872   5.840  13.557   2.850
 6700SOL     OW21873   7.805   2.890   3.523
 6700SOL    HW121874   7.863   2.937   3.582
 6700SOL    HW221875   7.832   2.917   3.435
 6701SOL     OW21876   1.251   8.863   4.381
 6701SOL    HW121877   1.294   8.903   4.306
 6701SOL    HW221878   1.166   8.835   4.347
 6702SOL     OW21879  12.646   1.449   0.570
 6702SOL    HW121880  12.700   1.371   0.581
 6702SOL    HW221881  12.583   1.425   0.503
 6703SOL     OW21882  11.604   9.027   1.343
 6703SOL    HW121883  11.615   9.111   1.297
 6703SOL    HW221884  11.555   9.050   1.422
 6704SOL     OW21885   4.331   5.522   2.184
 6704SOL    HW121886   4.309   5.447   2.129
 6704SOL    HW221887   4.391   5.487   2.250
 6705SOL     OW21888   8.761   4.501   0.805
 6705SOL    HW121889   8.824   4.445   0.851
 6705SOL    HW221890   8.760   4.467   0.716
 6706SOL     OW21891   7.925  13.791  12.880
 6706SOL    HW121892   7.842  13.746  12.895
 6706SOL    HW221893   7.930  13.801  12.785
 6707SOL     OW21894   5.769   4.657   0.797
 6707SOL    HW121895   5.756   4.740   0.842
 6707SOL    HW221896   5.726   4.592   0.852
 6708SOL     OW21897   5.214   1.735  11.255
 6708SOL    HW121898   5.203   1.740  11.160
 6708SOL    HW221899   5.216   1.641  11.273
 6709SOL     OW21900   6.099  13.319   3.753
 6709SOL    HW121901   6.182  13.347   3.714
 6709SOL    HW221902   6.096  13.224   3.737
 6710SOL     OW21903   7.485   6.333  11.661
 6710SOL    HW121904   7.511   6.422  11.635
 6710SOL    HW221905   7.418   6.308  11.598
 6711SOL     OW21906   0.947  13.101   7.803
 6711SOL    HW121907   0.859  13.081   7.836
 6711SOL    HW221908   0.976  13.019   7.763
 6712SOL     OW21909  14.789  12.795   9.713
 6712SOL    HW121910  14.872  12.764   9.748
 6712SOL    HW221911  14.796  12.781   9.619
 6713SOL     OW21912   6.010   3.397   3.879
 6713SOL    HW121913   6.051   3.467   3.931
 6713SOL    HW221914   6.061   3.319   3.900
 6714SOL     OW21915   9.410   1.997   3.726
 6714SOL    HW121916   9.386   2.028   3.813
 6714SOL    HW221917   9.500   2.027   3.714
 6715SOL     OW21918   0.419   2.437  10.354
 6715SOL    HW121919   0.390   2.420  10.264
 6715SOL    HW221920   0.484   2.369  10.371
 6716SOL     OW21921   2.268  10.447   9.480
 6716SOL    HW121922   2.175  10.467   9.468
 6716SOL    HW221923   2.303  10.443   9.391
 6717SOL     OW21924   4.498   7.983   0.144
 6717SOL    HW121925   4.498   8.010   0.052
 6717SOL    HW221926   4.567   8.036   0.184
 6718SOL     OW21927  13.140   7.760   8.272
 6718SOL    HW121928  13.091   7.717   8.202
 6718SOL    HW221929  13.229   7.726   8.264
 6719SOL     OW21930   2.315  14.707   2.577
 6719SOL    HW121931   2.278  14.623   2.606
 6719SOL    HW221932   2.370  14.684   2.503
 6720SOL     OW21933  13.607   2.676   0.601
 6720SOL    HW121934  13.541   2.742   0.585
 6720SOL    HW221935  13.558   2.596   0.622
 6721SOL     OW21936  12.393  11.647   0.578
 6721SOL    HW121937  12.318  11.640   0.520
 6721SOL    HW221938  12.381  11.730   0.624
 6722SOL     OW21939   5.052   7.736  14.524
 6722SOL    HW121940   5.069   7.700  14.611
 6722SOL    HW221941   5.019   7.825  14.540
 6723SOL     OW21942  13.892   6.490  13.624
 6723SOL    HW121943  13.967   6.433  13.607
 6723SOL    HW221944  13.902   6.514  13.716
 6724SOL     OW21945   3.402  11.770   1.853
 6724SOL    HW121946   3.369  11.721   1.928
 6724SOL    HW221947   3.497  11.764   1.860
 6725SOL     OW21948  12.794   9.715   8.392
 6725SOL    HW121949  12.780   9.745   8.482
 6725SOL    HW221950  12.717   9.744   8.344
 6726SOL     OW21951   2.899   7.910  14.485
 6726SOL    HW121952   2.951   7.982  14.449
 6726SOL    HW221953   2.904   7.841  14.419
 6727SOL     OW21954   7.501   2.343   9.396
 6727SOL    HW121955   7.440   2.278   9.362
 6727SOL    HW221956   7.582   2.329   9.348
 6728SOL     OW21957   5.885   1.965   4.855
 6728SOL    HW121958   5.919   1.879   4.831
 6728SOL    HW221959   5.963   2.020   4.861
 6729SOL     OW21960  14.714  13.290   9.796
 6729SOL    HW121961  14.765  13.217   9.761
 6729SOL    HW221962  14.671  13.254   9.874
 6730SOL     OW21963   1.441   7.656   5.599
 6730SOL    HW121964   1.471   7.645   5.689
 6730SOL    HW221965   1.456   7.570   5.559
 6731SOL     OW21966  13.085   3.764   6.013
 6731SOL    HW121967  13.115   3.854   6.019
 6731SOL    HW221968  13.130   3.728   5.937
 6732SOL     OW21969  13.848   5.902   7.599
 6732SOL    HW121970  13.816   5.990   7.580
 6732SOL    HW221971  13.781   5.844   7.565
 6733SOL     OW21972   6.182   1.387  10.476
 6733SOL    HW121973   6.266   1.432  10.491
 6733SOL    HW221974   6.122   1.428  10.538
 6734SOL     OW21975   7.131   4.180   8.025
 6734SOL    HW121976   7.224   4.202   8.012
 6734SOL    HW221977   7.131   4.086   8.040
 6735SOL     OW21978  12.374   3.532   0.776
 6735SOL    HW121979  12.353   3.574   0.693
 6735SOL    HW221980  12.462   3.564   0.799
 6736SOL     OW21981   4.457  12.782   9.989
 6736SOL    HW121982   4.454  12.878   9.992
 6736SOL    HW221983   4.406  12.754  10.064
 6737SOL     OW21984   2.682   0.457   1.981
 6737SOL    HW121985   2.667   0.538   2.030
 6737SOL    HW221986   2.715   0.395   2.047
 6738SOL     OW21987   0.975  14.356  12.425
 6738SOL    HW121988   0.886  14.329  12.447
 6738SOL    HW221989   0.977  14.450  12.442
 6739SOL     OW21990   2.671   0.838   3.271
 6739SOL    HW121991   2.739   0.774   3.292
 6739SOL    HW221992   2.589   0.794   3.293
 6740SOL     OW21993   6.138   9.775   1.900
 6740SOL    HW121994   6.198   9.849   1.900
 6740SOL    HW221995   6.147   9.737   1.812
 6741SOL     OW21996   2.058   1.590   2.071
 6741SOL    HW121997   2.025   1.587   1.981
 6741SOL    HW221998   2.054   1.500   2.101
 6742SOL     OW21999   3.339   2.483   5.170
 6742SOL    HW122000   3.302   2.399   5.141
 6742SOL    HW222001   3.431   2.479   5.143
 6743SOL     OW22002   7.261   7.761   7.526
 6743SOL    HW122003   7.252   7.740   7.619
 6743SOL    HW222004   7.353   7.743   7.506
 6744SOL     OW22005   0.954  14.173   1.537
 6744SOL    HW122006   0.884  14.112   1.559
 6744SOL    HW222007   0.957  14.172   1.441
 6745SOL     OW22008  11.609   3.900   2.986
 6745SOL    HW122009  11.690   3.889   3.036
 6745SOL    HW222010  11.597   3.816   2.942
 6746SOL     OW22011   9.990   2.379   1.820
 6746SOL    HW122012   9.984   2.357   1.913
 6746SOL    HW222013  10.021   2.298   1.779
 6747SOL     OW22014   2.460   3.493   2.384
 6747SOL    HW122015   2.497   3.488   2.295
 6747SOL    HW222016   2.388   3.430   2.383
 6748SOL     OW22017   6.330   7.069   0.560
 6748SOL    HW122018   6.415   7.061   0.515
 6748SOL    HW222019   6.279   6.995   0.528
 6749SOL     OW22020   9.451  10.727   9.936
 6749SOL    HW122021   9.496  10.732   9.852
 6749SOL    HW222022   9.371  10.678   9.917
 6750SOL     OW22023   9.144  10.811   4.271
 6750SOL    HW122024   9.062  10.793   4.226
 6750SOL    HW222025   9.211  10.804   4.203
 6751SOL     OW22026  11.274   8.436  14.522
 6751SOL    HW122027  11.245   8.485  14.599
 6751SOL    HW222028  11.369   8.445  14.522
 6752SOL     OW22029   3.007   2.011   9.896
 6752SOL    HW122030   3.061   1.937   9.925
 6752SOL    HW222031   2.917   1.980   9.905
 6753SOL     OW22032   5.543  12.877   2.732
 6753SOL    HW122033   5.617  12.816   2.726
 6753SOL    HW222034   5.584  12.963   2.743
 6754SOL     OW22035  10.999   5.651  14.636
 6754SOL    HW122036  11.040   5.731  14.603
 6754SOL    HW222037  10.969   5.606  14.557
 6755SOL     OW22038  12.259   2.393  10.119
 6755SOL    HW122039  12.251   2.482  10.153
 6755SOL    HW222040  12.210   2.339  10.181
 6756SOL     OW22041  13.952   5.298   3.112
 6756SOL    HW122042  13.899   5.369   3.151
 6756SOL    HW222043  13.967   5.327   3.022
 6757SOL     OW22044   1.641   4.050   9.211
 6757SOL    HW122045   1.677   3.970   9.173
 6757SOL    HW222046   1.684   4.121   9.164
 6758SOL     OW22047   3.881  12.254   7.794
 6758SOL    HW122048   3.869  12.309   7.872
 6758SOL    HW222049   3.974  12.261   7.773
 6759SOL     OW22050   1.234  10.187   2.113
 6759SOL    HW122051   1.264  10.277   2.101
 6759SOL    HW222052   1.315  10.135   2.116
 6760SOL     OW22053   2.835   2.436   2.313
 6760SOL    HW122054   2.843   2.343   2.332
 6760SOL    HW222055   2.919   2.473   2.340
 6761SOL     OW22056   6.434  13.115  14.591
 6761SOL    HW122057   6.383  13.097  14.671
 6761SOL    HW222058   6.394  13.195  14.555
 6762SOL     OW22059   8.186   6.886   4.522
 6762SOL    HW122060   8.156   6.957   4.466
 6762SOL    HW222061   8.113   6.823   4.522
 6763SOL     OW22062  10.052  10.830   6.750
 6763SOL    HW122063   9.977  10.889   6.749
 6763SOL    HW222064  10.025  10.758   6.807
 6764SOL     OW22065   5.404   6.215  13.051
 6764SOL    HW122066   5.337   6.154  13.020
 6764SOL    HW222067   5.486   6.177  13.021
 6765SOL     OW22068   6.370   0.058   6.091
 6765SOL    HW122069   6.328   0.074   6.007
 6765SOL    HW222070   6.422   0.136   6.108
 6766SOL     OW22071  11.678  14.279   8.175
 6766SOL    HW122072  11.770  14.303   8.166
 6766SOL    HW222073  11.680  14.185   8.195
 6767SOL     OW22074   5.540  13.010   5.007
 6767SOL    HW122075   5.494  13.018   5.090
 6767SOL    HW222076   5.623  12.969   5.030
 6768SOL     OW22077  11.172   4.935   2.244
 6768SOL    HW122078  11.153   4.846   2.274
 6768SOL    HW222079  11.183   4.928   2.149
 6769SOL     OW22080   1.030   6.426   2.959
 6769SOL    HW122081   0.941   6.406   2.989
 6769SOL    HW222082   1.016   6.483   2.883
 6770SOL     OW22083   0.072   1.441   4.404
 6770SOL    HW122084   0.096   1.359   4.448
 6770SOL    HW222085   0.156   1.484   4.387
 6771SOL     OW22086  14.707   3.125   2.568
 6771SOL    HW122087  14.732   3.160   2.482
 6771SOL    HW222088  14.787   3.133   2.621
 6772SOL     OW22089   8.238   5.304   4.912
 6772SOL    HW122090   8.206   5.319   4.823
 6772SOL    HW222091   8.218   5.212   4.929
 6773SOL     OW22092   9.507  10.359   3.968
 6773SOL    HW122093   9.576  10.361   4.034
 6773SOL    HW222094   9.426  10.376   4.016
 6774SOL     OW22095  13.494   9.485  10.210
 6774SOL    HW122096  13.491   9.573  10.174
 6774SOL    HW222097  13.534   9.432  10.141
 6775SOL     OW22098  12.084   4.317   7.760
 6775SOL    HW122099  12.161   4.314   7.703
 6775SOL    HW222100  12.057   4.408   7.759
 6776SOL     OW22101   6.639   8.843  11.801
 6776SOL    HW122102   6.718   8.800  11.768
 6776SOL    HW222103   6.574   8.773  11.809
 6777SOL     OW22104   7.898   8.535   9.281
 6777SOL    HW122105   7.858   8.537   9.195
 6777SOL    HW222106   7.854   8.464   9.328
 6778SOL     OW22107   2.352   4.045  12.989
 6778SOL    HW122108   2.425   3.985  13.006
 6778SOL    HW222109   2.392   4.121  12.946
 6779SOL     OW22110   4.969   2.213  10.884
 6779SOL    HW122111   4.912   2.249  10.817
 6779SOL    HW222112   5.053   2.256  10.870
 6780SOL     OW22113  13.726   6.508  11.678
 6780SOL    HW122114  13.649   6.491  11.732
 6780SOL    HW222115  13.738   6.427  11.628
 6781SOL     OW22116   1.052   5.983   0.978
 6781SOL    HW122117   0.982   6.044   1.002
 6781SOL    HW222118   1.028   5.901   1.022
 6782SOL     OW22119  11.883  11.394   4.074
 6782SOL    HW122120  11.978  11.382   4.067
 6782SOL    HW222121  11.869  11.420   4.165
 6783SOL     OW22122  13.723   7.987   9.854
 6783SOL    HW122123  13.634   8.018   9.868
 6783SOL    HW222124  13.777   8.066   9.864
 6784SOL     OW22125   3.534   8.592  13.270
 6784SOL    HW122126   3.461   8.534  13.250
 6784SOL    HW222127   3.565   8.623  13.185
 6785SOL     OW22128   2.614  12.991   8.685
 6785SOL    HW122129   2.602  13.000   8.779
 6785SOL    HW222130   2.708  12.975   8.674
 6786SOL     OW22131   4.330   1.310  14.307
 6786SOL    HW122132   4.421   1.301  14.281
 6786SOL    HW222133   4.299   1.387  14.259
 6787SOL     OW22134   2.127   4.337   6.893
 6787SOL    HW122135   2.129   4.417   6.840
 6787SOL    HW222136   2.168   4.271   6.837
 6788SOL     OW22137   3.042   1.516   6.581
 6788SOL    HW122138   3.015   1.591   6.634
 6788SOL    HW222139   3.095   1.555   6.511
 6789SOL     OW22140  13.171  12.924  10.647
 6789SOL    HW122141  13.194  12.952  10.736
 6789SOL    HW222142  13.237  12.965  10.591
 6790SOL     OW22143   0.049   8.826   3.407
 6790SOL    HW122144  14.868   8.773   3.461
 6790SOL    HW222145  14.872   8.854   3.333
 6791SOL     OW22146  12.342   3.614  11.903
 6791SOL    HW122147  12.330   3.570  11.987
 6791SOL    HW222148  12.430   3.650  11.907
 6792SOL     OW22149  10.356   7.144  10.858
 6792SOL    HW122150  10.347   7.236  10.883
 6792SOL    HW222151  10.272   7.121  10.817
 6793SOL     OW22152   2.312  10.281   7.117
 6793SOL    HW122153   2.279  10.218   7.181
 6793SOL    HW222154   2.406  10.262   7.111
 6794SOL     OW22155   2.418  11.035  11.657
 6794SOL    HW122156   2.468  11.014  11.736
 6794SOL    HW222157   2.484  11.043  11.589
 6795SOL     OW22158   7.900   6.652  10.210
 6795SOL    HW122159   7.924   6.745  10.209
 6795SOL    HW222160   7.983   6.606  10.221
 6796SOL     OW22161  11.454   7.223   2.504
 6796SOL    HW122162  11.403   7.162   2.451
 6796SOL    HW222163  11.537   7.179   2.519
 6797SOL     OW22164   1.165  13.652   6.968
 6797SOL    HW122165   1.252  13.691   6.957
 6797SOL    HW222166   1.180  13.575   7.023
 6798SOL     OW22167  10.931  11.901   8.357
 6798SOL    HW122168  10.983  11.840   8.305
 6798SOL    HW222169  10.847  11.905   8.311
 6799SOL     OW22170   7.953   0.736  13.149
 6799SOL    HW122171   7.999   0.776  13.223
 6799SOL    HW222172   7.860   0.754  13.167
 6800SOL     OW22173   0.987   8.288   1.872
 6800SOL    HW122174   0.983   8.256   1.963
 6800SOL    HW222175   0.896   8.288   1.843
 6801SOL     OW22176  13.263  10.437   1.140
 6801SOL    HW122177  13.178  10.423   1.182
 6801SOL    HW222178  13.308  10.353   1.146
 6802SOL     OW22179   1.278  10.373   4.006
 6802SOL    HW122180   1.323  10.289   3.994
 6802SOL    HW222181   1.342  10.428   4.051
 6803SOL     OW22182  12.836  10.650   3.730
 6803SOL    HW122183  12.771  10.624   3.665
 6803SOL    HW222184  12.854  10.570   3.779
 6804SOL     OW22185   1.300   1.597   9.986
 6804SOL    HW122186   1.243   1.624  10.057
 6804SOL    HW222187   1.265   1.512   9.958
 6805SOL     OW22188  12.893   7.469   0.319
 6805SOL    HW122189  12.819   7.478   0.260
 6805SOL    HW222190  12.967   7.506   0.271
 6806SOL     OW22191   9.748   4.202   5.830
 6806SOL    HW122192   9.751   4.119   5.878
 6806SOL    HW222193   9.661   4.203   5.790
 6807SOL     OW22194   4.821  13.975   6.786
 6807SOL    HW122195   4.863  14.053   6.751
 6807SOL    HW222196   4.825  13.911   6.715
 6808SOL     OW22197   7.633  13.392   5.998
 6808SOL    HW122198   7.596  13.361   5.915
 6808SOL    HW222199   7.604  13.483   6.004
 6809SOL     OW22200   1.655   4.951   8.332
 6809SOL    HW122201   1.563   4.978   8.335
 6809SOL    HW222202   1.680   4.941   8.424
 6810SOL     OW22203   7.296  13.457  10.350
 6810SOL    HW122204   7.233  13.404  10.300
 6810SOL    HW222205   7.257  13.545  10.351
 6811SOL     OW22206  11.606  13.044  13.183
 6811SOL    HW122207  11.671  13.058  13.251
 6811SOL    HW222208  11.617  12.952  13.158
 6812SOL     OW22209   8.765   7.697   8.629
 6812SOL    HW122210   8.827   7.748   8.681
 6812SOL    HW222211   8.819   7.660   8.558
 6813SOL     OW22212  14.799   4.948  11.713
 6813SOL    HW122213   0.006   4.966  11.754
 6813SOL    HW222214  14.791   5.015  11.645
 6814SOL     OW22215   5.425   7.082   3.498
 6814SOL    HW122216   5.393   6.999   3.532
 6814SOL    HW222217   5.467   7.060   3.415
 6815SOL     OW22218  13.145  10.608  11.502
 6815SOL    HW122219  13.096  10.672  11.555
 6815SOL    HW222220  13.097  10.604  11.420
 6816SOL     OW22221   0.930   3.901   0.347
 6816SOL    HW122222   0.967   3.990   0.347
 6816SOL    HW222223   0.837   3.914   0.329
 6817SOL     OW22224  14.603   8.791   1.314
 6817SOL    HW122225  14.559   8.850   1.375
 6817SOL    HW222226  14.556   8.802   1.232
 6818SOL     OW22227   6.826  13.906   5.814
 6818SOL    HW122228   6.798  13.990   5.848
 6818SOL    HW222229   6.753  13.877   5.758
 6819SOL     OW22230  12.452   1.360  14.594
 6819SOL    HW122231  12.406   1.429  14.546
 6819SOL    HW222232  12.432   1.280  14.546
 6820SOL     OW22233   7.355   6.027  13.675
 6820SOL    HW122234   7.343   6.102  13.617
 6820SOL    HW222235   7.395   6.064  13.754
 6821SOL     OW22236  14.074   2.526  14.330
 6821SOL    HW122237  14.126   2.452  14.300
 6821SOL    HW222238  14.122   2.561  14.405
 6822SOL     OW22239   5.950   3.095   7.644
 6822SOL    HW122240   5.891   3.136   7.707
 6822SOL    HW222241   5.902   3.099   7.561
 6823SOL     OW22242  10.401  14.635   4.783
 6823SOL    HW122243  10.348  14.641   4.863
 6823SOL    HW222244  10.482  14.682   4.805
 6824SOL     OW22245   9.696   0.526  14.068
 6824SOL    HW122246   9.642   0.449  14.053
 6824SOL    HW222247   9.776   0.492  14.107
 6825SOL     OW22248   8.623  10.851   4.327
 6825SOL    HW122249   8.683  10.793   4.375
 6825SOL    HW222250   8.536  10.816   4.347
 6826SOL     OW22251   4.432   9.633  11.223
 6826SOL    HW122252   4.412   9.541  11.207
 6826SOL    HW222253   4.427   9.643  11.318
 6827SOL     OW22254  14.513   1.148   8.497
 6827SOL    HW122255  14.580   1.084   8.471
 6827SOL    HW222256  14.432   1.115   8.458
 6828SOL     OW22257   1.571   1.748  13.098
 6828SOL    HW122258   1.582   1.838  13.067
 6828SOL    HW222259   1.481   1.745  13.131
 6829SOL     OW22260  11.592   6.928   5.135
 6829SOL    HW122261  11.632   6.947   5.050
 6829SOL    HW222262  11.553   7.011   5.162
 6830SOL     OW22263  11.590  11.389   9.698
 6830SOL    HW122264  11.645  11.405   9.622
 6830SOL    HW222265  11.518  11.451   9.690
 6831SOL     OW22266   1.739  13.196  11.557
 6831SOL    HW122267   1.753  13.103  11.540
 6831SOL    HW222268   1.759  13.239  11.474
 6832SOL     OW22269  11.138  11.805   8.188
 6832SOL    HW122270  11.214  11.760   8.227
 6832SOL    HW222271  11.157  11.807   8.094
 6833SOL     OW22272   0.872   8.088  14.781
 6833SOL    HW122273   0.939   8.032  14.820
 6833SOL    HW222274   0.912   8.175  14.777
 6834SOL     OW22275  10.007   1.283   6.790
 6834SOL    HW122276  10.086   1.292   6.843
 6834SOL    HW222277  10.025   1.210   6.731
 6835SOL     OW22278   1.964  11.447   0.904
 6835SOL    HW122279   1.906  11.405   0.841
 6835SOL    HW222280   1.991  11.529   0.862
 6836SOL     OW22281  13.269   0.579   9.053
 6836SOL    HW122282  13.293   0.494   9.090
 6836SOL    HW222283  13.250   0.634   9.129
 6837SOL     OW22284   1.125   7.832  11.495
 6837SOL    HW122285   1.062   7.813  11.565
 6837SOL    HW222286   1.210   7.837  11.540
 6838SOL     OW22287   1.625   6.036   9.450
 6838SOL    HW122288   1.685   5.968   9.481
 6838SOL    HW222289   1.636   6.108   9.513
 6839SOL     OW22290  10.348  14.110   5.171
 6839SOL    HW122291  10.273  14.159   5.137
 6839SOL    HW222292  10.311  14.058   5.242
 6840SOL     OW22293   1.687   1.285   9.558
 6840SOL    HW122294   1.646   1.340   9.625
 6840SOL    HW222295   1.642   1.307   9.477
 6841SOL     OW22296   1.205   7.830  14.724
 6841SOL    HW122297   1.300   7.824  14.719
 6841SOL    HW222298   1.188   7.885  14.800
 6842SOL     OW22299   1.581   4.821   6.159
 6842SOL    HW122300   1.502   4.845   6.208
 6842SOL    HW222301   1.620   4.751   6.211
 6843SOL     OW22302  12.358   1.234   7.939
 6843SOL    HW122303  12.448   1.242   7.906
 6843SOL    HW222304  12.339   1.141   7.933
 6844SOL     OW22305   0.502   3.174   7.780
 6844SOL    HW122306   0.550   3.147   7.701
 6844SOL    HW222307   0.414   3.138   7.769
 6845SOL     OW22308   9.387   7.209   0.600
 6845SOL    HW122309   9.357   7.235   0.513
 6845SOL    HW222310   9.399   7.114   0.594
 6846SOL     OW22311   5.165  12.619   1.845
 6846SOL    HW122312   5.154  12.682   1.774
 6846SOL    HW222313   5.197  12.671   1.919
 6847SOL     OW22314   8.422   4.881   4.223
 6847SOL    HW122315   8.471   4.948   4.271
 6847SOL    HW222316   8.423   4.805   4.281
 6848SOL     OW22317  13.787   3.183   5.449
 6848SOL    HW122318  13.717   3.158   5.509
 6848SOL    HW222319  13.852   3.113   5.458
 6849SOL     OW22320   2.237   9.814  10.401
 6849SOL    HW122321   2.279   9.863  10.330
 6849SOL    HW222322   2.149   9.794  10.368
 6850SOL     OW22323  13.823   7.207  13.860
 6850SOL    HW122324  13.847   7.294  13.828
 6850SOL    HW222325  13.771   7.225  13.938
 6851SOL     OW22326   2.669   2.146   1.565
 6851SOL    HW122327   2.639   2.098   1.488
 6851SOL    HW222328   2.759   2.115   1.579
 6852SOL     OW22329   2.167   4.815  13.611
 6852SOL    HW122330   2.230   4.752  13.576
 6852SOL    HW222331   2.167   4.798  13.705
 6853SOL     OW22332  13.284   1.823   7.170
 6853SOL    HW122333  13.209   1.778   7.131
 6853SOL    HW222334  13.347   1.831   7.098
 6854SOL     OW22335   2.506  14.811   8.944
 6854SOL    HW122336   2.578  14.873   8.945
 6854SOL    HW222337   2.445  14.846   8.879
 6855SOL     OW22338   0.851   7.680   2.507
 6855SOL    HW122339   0.944   7.704   2.507
 6855SOL    HW222340   0.840   7.627   2.586
 6856SOL     OW22341   2.070   7.363   3.102
 6856SOL    HW122342   2.059   7.345   3.196
 6856SOL    HW222343   2.069   7.458   3.096
 6857SOL     OW22344   5.211   6.468   3.537
 6857SOL    HW122345   5.290   6.426   3.571
 6857SOL    HW222346   5.242   6.548   3.495
 6858SOL     OW22347   8.273   0.944  10.872
 6858SOL    HW122348   8.247   0.864  10.917
 6858SOL    HW222349   8.250   0.929  10.780
 6859SOL     OW22350   1.500  12.130   8.509
 6859SOL    HW122351   1.452  12.051   8.485
 6859SOL    HW222352   1.492  12.187   8.431
 6860SOL     OW22353   6.717  13.909   1.172
 6860SOL    HW122354   6.808  13.927   1.151
 6860SOL    HW222355   6.712  13.813   1.177
 6861SOL     OW22356  10.697  14.742   1.538
 6861SOL    HW122357  10.738  14.806   1.596
 6861SOL    HW222358  10.729  14.766   1.451
 6862SOL     OW22359   5.532  12.497  11.777
 6862SOL    HW122360   5.439  12.516  11.768
 6862SOL    HW222361   5.541  12.405  11.755
 6863SOL     OW22362  13.680   3.004  10.933
 6863SOL    HW122363  13.599   2.997  10.982
 6863SOL    HW222364  13.698   3.098  10.930
 6864SOL     OW22365   1.580   7.099   4.990
 6864SOL    HW122366   1.619   7.111   4.904
 6864SOL    HW222367   1.579   7.004   5.003
 6865SOL     OW22368  12.360  13.514  14.530
 6865SOL    HW122369  12.361  13.422  14.504
 6865SOL    HW222370  12.280  13.550  14.490
 6866SOL     OW22371  11.491   6.105   1.387
 6866SOL    HW122372  11.530   6.189   1.412
 6866SOL    HW222373  11.560   6.061   1.337
 6867SOL     OW22374   8.750  10.311  11.312
 6867SOL    HW122375   8.725  10.220  11.327
 6867SOL    HW222376   8.841  10.307  11.282
 6868SOL     OW22377  14.674   5.815   4.488
 6868SOL    HW122378  14.647   5.824   4.579
 6868SOL    HW222379  14.599   5.845   4.437
 6869SOL     OW22380   7.492  13.840   1.891
 6869SOL    HW122381   7.568  13.823   1.835
 6869SOL    HW222382   7.500  13.776   1.962
 6870SOL     OW22383  10.981   4.213  10.090
 6870SOL    HW122384  11.072   4.204  10.115
 6870SOL    HW222385  10.938   4.249  10.168
 6871SOL     OW22386   6.157   7.360  13.055
 6871SOL    HW122387   6.189   7.312  12.979
 6871SOL    HW222388   6.228   7.352  13.120
 6872SOL     OW22389  11.543  12.325   0.780
 6872SOL    HW122390  11.479  12.290   0.842
 6872SOL    HW222391  11.524  12.418   0.776
 6873SOL     OW22392   1.478   4.628   4.188
 6873SOL    HW122393   1.497   4.711   4.232
 6873SOL    HW222394   1.510   4.641   4.098
 6874SOL     OW22395  10.203   7.628   9.083
 6874SOL    HW122396  10.138   7.616   9.014
 6874SOL    HW222397  10.277   7.671   9.039
 6875SOL     OW22398  11.575   6.329   2.566
 6875SOL    HW122399  11.612   6.312   2.479
 6875SOL    HW222400  11.516   6.403   2.553
 6876SOL     OW22401  14.161  11.564   9.804
 6876SOL    HW122402  14.094  11.628   9.828
 6876SOL    HW222403  14.241  11.616   9.795
 6877SOL     OW22404   1.124   5.072   4.161
 6877SOL    HW122405   1.189   5.019   4.113
 6877SOL    HW222406   1.144   5.162   4.136
 6878SOL     OW22407   5.633   1.658   1.984
 6878SOL    HW122408   5.647   1.600   2.059
 6878SOL    HW222409   5.711   1.714   1.981
 6879SOL     OW22410   6.789   5.914   1.111
 6879SOL    HW122411   6.717   5.924   1.049
 6879SOL    HW222412   6.748   5.923   1.197
 6880SOL     OW22413   4.018   2.748   8.204
 6880SOL    HW122414   3.933   2.740   8.161
 6880SOL    HW222415   4.000   2.794   8.286
 6881SOL     OW22416   6.291   8.698   8.592
 6881SOL    HW122417   6.222   8.633   8.601
 6881SOL    HW222418   6.373   8.647   8.590
 6882SOL     OW22419  10.087   6.757  14.301
 6882SOL    HW122420  10.000   6.770  14.264
 6882SOL    HW222421  10.146   6.800  14.240
 6883SOL     OW22422  13.206   2.342  12.567
 6883SOL    HW122423  13.121   2.384  12.552
 6883SOL    HW222424  13.210   2.273  12.501
 6884SOL     OW22425   9.649  12.736   5.056
 6884SOL    HW122426   9.575  12.735   4.995
 6884SOL    HW222427   9.662  12.828   5.077
 6885SOL     OW22428   8.452  10.595   5.728
 6885SOL    HW122429   8.456  10.521   5.789
 6885SOL    HW222430   8.365  10.587   5.688
 6886SOL     OW22431  11.287   2.090   5.990
 6886SOL    HW122432  11.231   2.050   6.056
 6886SOL    HW222433  11.376   2.078   6.023
 6887SOL     OW22434   3.674   7.991   1.286
 6887SOL    HW122435   3.753   8.035   1.317
 6887SOL    HW222436   3.612   8.063   1.269
 6888SOL     OW22437   1.340   3.972  12.542
 6888SOL    HW122438   1.373   3.965  12.631
 6888SOL    HW222439   1.370   3.891  12.499
 6889SOL     OW22440   5.867  11.135   0.573
 6889SOL    HW122441   5.907  11.219   0.598
 6889SOL    HW222442   5.855  11.141   0.478
 6890SOL     OW22443   5.837  14.516   2.288
 6890SOL    HW122444   5.771  14.506   2.357
 6890SOL    HW222445   5.791  14.558   2.216
 6891SOL     OW22446  14.269   4.676   0.686
 6891SOL    HW122447  14.200   4.652   0.747
 6891SOL    HW222448  14.310   4.592   0.663
 6892SOL     OW22449   4.262   3.386  13.069
 6892SOL    HW122450   4.337   3.374  13.011
 6892SOL    HW222451   4.189   3.346  13.022
 6893SOL     OW22452   7.101   6.909   8.866
 6893SOL    HW122453   7.163   6.838   8.850
 6893SOL    HW222454   7.048   6.914   8.787
 6894SOL     OW22455  10.921   9.654  14.327
 6894SOL    HW122456  10.883   9.734  14.291
 6894SOL    HW222457  10.853   9.619  14.385
 6895SOL     OW22458  10.826   7.893  12.709
 6895SOL    HW122459  10.916   7.864  12.697
 6895SOL    HW222460  10.799   7.923  12.622
 6896SOL     OW22461  14.349   9.785   4.088
 6896SOL    HW122462  14.261   9.776   4.126
 6896SOL    HW222463  14.334   9.783   3.994
 6897SOL     OW22464   7.097   2.911   6.084
 6897SOL    HW122465   7.180   2.957   6.092
 6897SOL    HW222466   7.102   2.868   5.998
 6898SOL     OW22467   3.365  13.204   1.823
 6898SOL    HW122468   3.313  13.254   1.760
 6898SOL    HW222469   3.319  13.214   1.906
 6899SOL     OW22470   6.705   3.930   9.958
 6899SOL    HW122471   6.710   4.022   9.984
 6899SOL    HW222472   6.749   3.926   9.874
 6900SOL     OW22473   4.916  13.263   2.912
 6900SOL    HW122474   4.897  13.356   2.906
 6900SOL    HW222475   4.973  13.255   2.989
 6901SOL     OW22476  13.022   4.366  10.767
 6901SOL    HW122477  13.047   4.339  10.856
 6901SOL    HW222478  13.068   4.305  10.710
 6902SOL     OW22479  12.011   4.104   9.212
 6902SOL    HW122480  12.095   4.057   9.209
 6902SOL    HW222481  12.001   4.130   9.303
 6903SOL     OW22482   0.048   8.064  10.449
 6903SOL    HW122483  14.871   8.104  10.381
 6903SOL    HW222484   0.134   8.056  10.407
 6904SOL     OW22485  13.306   3.457   6.806
 6904SOL    HW122486  13.383   3.400   6.819
 6904SOL    HW222487  13.276   3.436   6.718
 6905SOL     OW22488  13.460   0.191  10.562
 6905SOL    HW122489  13.531   0.256  10.564
 6905SOL    HW222490  13.492   0.122  10.504
 6906SOL     OW22491   3.896  14.756   4.345
 6906SOL    HW122492   3.963  14.820   4.371
 6906SOL    HW222493   3.933  14.711   4.270
 6907SOL     OW22494  13.908   4.617   4.390
 6907SOL    HW122495  13.967   4.609   4.465
 6907SOL    HW222496  13.966   4.614   4.313
 6908SOL     OW22497  11.074   3.173   2.916
 6908SOL    HW122498  11.167   3.158   2.934
 6908SOL    HW222499  11.034   3.086   2.921
 6909SOL     OW22500   2.132  13.888   9.129
 6909SOL    HW122501   2.058  13.837   9.095
 6909SOL    HW222502   2.093  13.947   9.194
 6910SOL     OW22503   2.210  13.211   4.330
 6910SOL    HW122504   2.129  13.193   4.377
 6910SOL    HW222505   2.186  13.278   4.266
 6911SOL     OW22506   3.699   2.694   0.486
 6911SOL    HW122507   3.676   2.619   0.431
 6911SOL    HW222508   3.622   2.751   0.482
 6912SOL     OW22509   9.042   1.165   2.684
 6912SOL    HW122510   9.008   1.106   2.752
 6912SOL    HW222511   8.970   1.226   2.666
 6913SOL     OW22512  11.153   4.040  12.507
 6913SOL    HW122513  11.125   4.060  12.417
 6913SOL    HW222514  11.116   4.111  12.560
 6914SOL     OW22515  11.820  11.734  14.768
 6914SOL    HW122516  11.911  11.729  14.739
 6914SOL    HW222517  11.826  11.751  14.862
 6915SOL     OW22518  10.481   1.897  10.642
 6915SOL    HW122519  10.527   1.977  10.617
 6915SOL    HW222520  10.538   1.857  10.708
 6916SOL     OW22521  10.475   1.360   2.142
 6916SOL    HW122522  10.554   1.318   2.107
 6916SOL    HW222523  10.406   1.332   2.082
 6917SOL     OW22524   5.613   1.679   1.465
 6917SOL    HW122525   5.649   1.606   1.414
 6917SOL    HW222526   5.594   1.641   1.551
 6918SOL     OW22527  11.739   7.010   4.900
 6918SOL    HW122528  11.687   7.088   4.882
 6918SOL    HW222529  11.771   6.982   4.814
 6919SOL     OW22530  12.240   5.989   1.307
 6919SOL    HW122531  12.277   5.950   1.386
 6919SOL    HW222532  12.291   5.950   1.235
 6920SOL     OW22533  14.113   5.945  13.626
 6920SOL    HW122534  14.031   5.971  13.669
 6920SOL    HW222535  14.121   6.005  13.552
 6921SOL     OW22536   4.647  10.121  14.678
 6921SOL    HW122537   4.698  10.183  14.625
 6921SOL    HW222538   4.648  10.158  14.766
 6922SOL     OW22539  12.566   4.639   5.796
 6922SOL    HW122540  12.534   4.619   5.884
 6922SOL    HW222541  12.488   4.633   5.740
 6923SOL     OW22542   2.892   3.370   0.425
 6923SOL    HW122543   2.879   3.277   0.405
 6923SOL    HW222544   2.939   3.404   0.349
 6924SOL     OW22545   7.314  11.154   3.854
 6924SOL    HW122546   7.237  11.110   3.819
 6924SOL    HW222547   7.353  11.198   3.779
 6925SOL     OW22548   0.320   5.077  10.694
 6925SOL    HW122549   0.283   5.130  10.765
 6925SOL    HW222550   0.283   5.115  10.615
 6926SOL     OW22551  13.679   4.680   1.375
 6926SOL    HW122552  13.724   4.650   1.454
 6926SOL    HW222553  13.696   4.612   1.310
 6927SOL     OW22554  10.552   4.119  12.996
 6927SOL    HW122555  10.647   4.108  12.999
 6927SOL    HW222556  10.537   4.180  12.924
 6928SOL     OW22557  12.713   9.697  11.877
 6928SOL    HW122558  12.643   9.710  11.940
 6928SOL    HW222559  12.670   9.702  11.792
 6929SOL     OW22560   3.131  14.690   5.112
 6929SOL    HW122561   3.064  14.625   5.089
 6929SOL    HW222562   3.214  14.649   5.087
 6930SOL     OW22563   4.775   0.281  12.037
 6930SOL    HW122564   4.797   0.364  12.080
 6930SOL    HW222565   4.721   0.306  11.962
 6931SOL     OW22566   8.956  14.650   9.135
 6931SOL    HW122567   8.879  14.623   9.085
 6931SOL    HW222568   8.928  14.650   9.226
 6932SOL     OW22569  11.701   6.253   7.793
 6932SOL    HW122570  11.722   6.287   7.880
 6932SOL    HW222571  11.624   6.302   7.765
 6933SOL     OW22572   5.274  10.952   0.337
 6933SOL    HW122573   5.322  10.935   0.419
 6933SOL    HW222574   5.236  10.867   0.315
 6934SOL     OW22575  12.963   9.309   0.022
 6934SOL    HW122576  12.907   9.380   0.053
 6934SOL    HW222577  13.039   9.311   0.079
 6935SOL     OW22578   0.901   7.910   7.550
 6935SOL    HW122579   0.806   7.923   7.549
 6935SOL    HW222580   0.927   7.915   7.459
 6936SOL     OW22581   8.431  12.934   9.844
 6936SOL    HW122582   8.495  12.993   9.806
 6936SOL    HW222583   8.446  12.851   9.799
 6937SOL     OW22584  11.865  13.385   2.097
 6937SOL    HW122585  11.832  13.301   2.130
 6937SOL    HW222586  11.833  13.389   2.006
 6938SOL     OW22587   5.686  10.473   5.153
 6938SOL    HW122588   5.690  10.486   5.248
 6938SOL    HW222589   5.701  10.379   5.141
 6939SOL     OW22590   5.424   2.660   1.760
 6939SOL    HW122591   5.335   2.628   1.746
 6939SOL    HW222592   5.424   2.748   1.722
 6940SOL     OW22593   6.128  13.914   7.682
 6940SOL    HW122594   6.206  13.873   7.643
 6940SOL    HW222595   6.054  13.867   7.643
 6941SOL     OW22596  14.110  14.817   7.679
 6941SOL    HW122597  14.111  14.737   7.628
 6941SOL    HW222598  14.022  14.820   7.716
 6942SOL     OW22599   0.719   4.164  14.644
 6942SOL    HW122600   0.741   4.171  14.737
 6942SOL    HW222601   0.699   4.072  14.630
 6943SOL     OW22602   8.889   0.689  12.570
 6943SOL    HW122603   8.798   0.665  12.554
 6943SOL    HW222604   8.885   0.759  12.635
 6944SOL     OW22605   8.010   0.474   9.004
 6944SOL    HW122606   7.951   0.414   9.050
 6944SOL    HW222607   7.981   0.561   9.031
 6945SOL     OW22608  12.840   6.049  11.387
 6945SOL    HW122609  12.798   6.135  11.381
 6945SOL    HW222610  12.804   5.999  11.313
 6946SOL     OW22611  12.401   1.928  11.750
 6946SOL    HW122612  12.380   1.846  11.795
 6946SOL    HW222613  12.339   1.932  11.677
 6947SOL     OW22614   5.131  11.811   9.799
 6947SOL    HW122615   5.101  11.751   9.866
 6947SOL    HW222616   5.224  11.826   9.819
 6948SOL     OW22617   6.678   1.516  10.840
 6948SOL    HW122618   6.648   1.606  10.856
 6948SOL    HW222619   6.644   1.467  10.915
 6949SOL     OW22620   7.913  13.857   8.265
 6949SOL    HW122621   7.903  13.851   8.360
 6949SOL    HW222622   8.006  13.845   8.250
 6950SOL     OW22623   8.325   0.324   6.391
 6950SOL    HW122624   8.305   0.246   6.339
 6950SOL    HW222625   8.248   0.337   6.446
 6951SOL     OW22626   0.885   5.101  13.401
 6951SOL    HW122627   0.815   5.044  13.432
 6951SOL    HW222628   0.888   5.173  13.465
 6952SOL     OW22629  11.293   7.017  13.953
 6952SOL    HW122630  11.304   6.994  13.860
 6952SOL    HW222631  11.259   7.106  13.951
 6953SOL     OW22632  10.578   9.351   5.436
 6953SOL    HW122633  10.491   9.345   5.396
 6953SOL    HW222634  10.565   9.406   5.513
 6954SOL     OW22635   6.740   2.669   7.390
 6954SOL    HW122636   6.681   2.663   7.315
 6954SOL    HW222637   6.747   2.579   7.422
 6955SOL     OW22638  10.176  13.023   6.206
 6955SOL    HW122639  10.163  13.018   6.300
 6955SOL    HW222640  10.102  13.073   6.174
 6956SOL     OW22641   5.951   7.032   4.039
 6956SOL    HW122642   5.892   6.959   4.020
 6956SOL    HW222643   6.034   7.007   3.998
 6957SOL     OW22644   4.649   3.213   1.792
 6957SOL    HW122645   4.621   3.247   1.877
 6957SOL    HW222646   4.649   3.290   1.734
 6958SOL     OW22647  11.370   2.159  10.620
 6958SOL    HW122648  11.288   2.177  10.573
 6958SOL    HW222649  11.345   2.165  10.713
 6959SOL     OW22650  13.938   0.512  13.578
 6959SOL    HW122651  13.946   0.586  13.519
 6959SOL    HW222652  14.028   0.484  13.595
 6960SOL     OW22653   2.154   9.509   6.223
 6960SOL    HW122654   2.082   9.549   6.175
 6960SOL    HW222655   2.112   9.454   6.289
 6961SOL     OW22656   7.426  14.503   0.564
 6961SOL    HW122657   7.474  14.420   0.558
 6961SOL    HW222658   7.492  14.567   0.592
 6962SOL     OW22659   5.211   5.963   0.673
 6962SOL    HW122660   5.179   6.029   0.735
 6962SOL    HW222661   5.305   5.957   0.691
 6963SOL     OW22662   6.969   6.984  13.637
 6963SOL    HW122663   6.902   6.969  13.703
 6963SOL    HW222664   6.973   6.902  13.588
 6964SOL     OW22665   8.792   2.117  10.133
 6964SOL    HW122666   8.880   2.146  10.155
 6964SOL    HW222667   8.785   2.132  10.038
 6965SOL     OW22668  12.661  11.241  14.258
 6965SOL    HW122669  12.698  11.193  14.184
 6965SOL    HW222670  12.731  11.242  14.324
 6966SOL     OW22671   0.062   3.773   8.513
 6966SOL    HW122672   0.021   3.777   8.426
 6966SOL    HW222673   0.011   3.834   8.566
 6967SOL     OW22674  11.206  14.133   5.040
 6967SOL    HW122675  11.211  14.189   5.117
 6967SOL    HW222676  11.295  14.131   5.005
 6968SOL     OW22677   4.737   2.361  14.505
 6968SOL    HW122678   4.761   2.340  14.595
 6968SOL    HW222679   4.759   2.282  14.455
 6969SOL     OW22680   5.416   9.903  12.479
 6969SOL    HW122681   5.413   9.882  12.386
 6969SOL    HW222682   5.380   9.826  12.523
 6970SOL     OW22683  11.769   0.290   0.957
 6970SOL    HW122684  11.804   0.237   0.887
 6970SOL    HW222685  11.781   0.381   0.928
 6971SOL     OW22686   2.634   1.641   9.141
 6971SOL    HW122687   2.692   1.712   9.114
 6971SOL    HW222688   2.687   1.562   9.133
 6972SOL     OW22689   6.504   2.936  12.609
 6972SOL    HW122690   6.508   2.868  12.541
 6972SOL    HW222691   6.595   2.949  12.635
 6973SOL     OW22692  14.469  13.354   7.110
 6973SOL    HW122693  14.440  13.439   7.144
 6973SOL    HW222694  14.552  13.373   7.066
 6974SOL     OW22695   1.164  14.701   1.098
 6974SOL    HW122696   1.184  14.682   1.190
 6974SOL    HW222697   1.096  14.768   1.102
 6975SOL     OW22698  11.877   6.983  14.262
 6975SOL    HW122699  11.903   6.955  14.174
 6975SOL    HW222700  11.887   6.905  14.316
 6976SOL     OW22701   1.666   6.118   5.856
 6976SOL    HW122702   1.688   6.152   5.769
 6976SOL    HW222703   1.728   6.162   5.915
 6977SOL     OW22704   9.358   9.153  14.311
 6977SOL    HW122705   9.383   9.063  14.334
 6977SOL    HW222706   9.364   9.201  14.393
 6978SOL     OW22707   7.004  13.083   1.567
 6978SOL    HW122708   7.034  12.992   1.568
 6978SOL    HW222709   7.084  13.135   1.576
 6979SOL     OW22710   2.387   6.755   6.339
 6979SOL    HW122711   2.454   6.690   6.320
 6979SOL    HW222712   2.435   6.830   6.373
 6980SOL     OW22713   0.542   4.361   7.592
 6980SOL    HW122714   0.461   4.385   7.547
 6980SOL    HW222715   0.561   4.436   7.649
 6981SOL     OW22716   3.204  12.413  12.600
 6981SOL    HW122717   3.132  12.352  12.616
 6981SOL    HW222718   3.213  12.461  12.682
 6982SOL     OW22719   3.739   1.433  12.248
 6982SOL    HW122720   3.828   1.418  12.281
 6982SOL    HW222721   3.744   1.408  12.155
 6983SOL     OW22722  13.543  10.070   9.732
 6983SOL    HW122723  13.602  10.019   9.677
 6983SOL    HW222724  13.575  10.056   9.822
 6984SOL     OW22725   9.999   7.288   1.298
 6984SOL    HW122726  10.065   7.337   1.347
 6984SOL    HW222727  10.038   7.274   1.212
 6985SOL     OW22728   2.745  14.401   2.458
 6985SOL    HW122729   2.830  14.386   2.417
 6985SOL    HW222730   2.749  14.491   2.489
 6986SOL     OW22731   1.891   5.571   6.837
 6986SOL    HW122732   1.843   5.587   6.919
 6986SOL    HW222733   1.973   5.619   6.848
 6987SOL     OW22734   1.354   0.419  13.070
 6987SOL    HW122735   1.306   0.416  13.153
 6987SOL    HW222736   1.365   0.512  13.052
 6988SOL     OW22737  10.059  10.605   3.626
 6988SOL    HW122738  10.012  10.660   3.690
 6988SOL    HW222739  10.051  10.516   3.660
 6989SOL     OW22740  11.357   3.601   8.514
 6989SOL    HW122741  11.270   3.608   8.553
 6989SOL    HW222742  11.402   3.535   8.567
 6990SOL     OW22743   4.243   4.398  13.930
 6990SOL    HW122744   4.242   4.322  13.872
 6990SOL    HW222745   4.233   4.473  13.871
 6991SOL     OW22746   8.422  10.362   2.839
 6991SOL    HW122747   8.355  10.402   2.894
 6991SOL    HW222748   8.376  10.296   2.789
 6992SOL     OW22749   5.495  13.623  11.732
 6992SOL    HW122750   5.571  13.572  11.759
 6992SOL    HW222751   5.461  13.661  11.814
 6993SOL     OW22752   4.806  10.031   1.726
 6993SOL    HW122753   4.752   9.954   1.705
 6993SOL    HW222754   4.743  10.095   1.760
 6994SOL     OW22755   2.303   3.574   7.679
 6994SOL    HW122756   2.326   3.583   7.586
 6994SOL    HW222757   2.207   3.571   7.680
 6995SOL     OW22758   9.053   0.037   4.071
 6995SOL    HW122759   8.968   0.006   4.103
 6995SOL    HW222760   9.037   0.064   3.981
 6996SOL     OW22761  14.304  11.324   0.183
 6996SOL    HW122762  14.262  11.360   0.105
 6996SOL    HW222763  14.238  11.267   0.221
 6997SOL     OW22764  13.312   6.382   0.789
 6997SOL    HW122765  13.301   6.377   0.884
 6997SOL    HW222766  13.224   6.402   0.756
 6998SOL     OW22767  13.675   3.778   1.613
 6998SOL    HW122768  13.694   3.859   1.660
 6998SOL    HW222769  13.580   3.765   1.624
 6999SOL     OW22770   2.790   8.222   5.035
 6999SOL    HW122771   2.757   8.254   4.951
 6999SOL    HW222772   2.712   8.202   5.086
 7000SOL     OW22773   8.494   3.342   5.073
 7000SOL    HW122774   8.447   3.275   5.124
 7000SOL    HW222775   8.586   3.316   5.079
 7001SOL     OW22776  13.774  10.626   4.827
 7001SOL    HW122777  13.749  10.717   4.813
 7001SOL    HW222778  13.746  10.607   4.917
 7002SOL     OW22779   8.758   6.800  11.587
 7002SOL    HW122780   8.678   6.782  11.635
 7002SOL    HW222781   8.760   6.895  11.577
 7003SOL     OW22782   0.889  12.983  11.100
 7003SOL    HW122783   0.962  12.932  11.136
 7003SOL    HW222784   0.820  12.976  11.166
 7004SOL     OW22785   2.968  10.855   3.171
 7004SOL    HW122786   3.007  10.942   3.171
 7004SOL    HW222787   2.874  10.871   3.178
 7005SOL     OW22788   8.169   4.057   5.639
 7005SOL    HW122789   8.077   4.046   5.615
 7005SOL    HW222790   8.199   3.969   5.662
 7006SOL     OW22791  11.747  10.281   4.180
 7006SOL    HW122792  11.781  10.195   4.156
 7006SOL    HW222793  11.663  10.262   4.223
 7007SOL     OW22794   2.425  11.045  13.946
 7007SOL    HW122795   2.506  10.996  13.957
 7007SOL    HW222796   2.451  11.137  13.951
 7008SOL     OW22797   5.077  12.172   1.523
 7008SOL    HW122798   5.053  12.152   1.614
 7008SOL    HW222799   5.114  12.091   1.489
 7009SOL     OW22800  12.666   2.115  14.038
 7009SOL    HW122801  12.645   2.085  14.127
 7009SOL    HW222802  12.762   2.114  14.036
 7010SOL     OW22803  14.457   9.015   2.922
 7010SOL    HW122804  14.513   9.034   2.847
 7010SOL    HW222805  14.505   9.049   2.997
 7011SOL     OW22806   4.152   3.355   4.242
 7011SOL    HW122807   4.158   3.328   4.333
 7011SOL    HW222808   4.067   3.321   4.212
 7012SOL     OW22809  14.417   2.846   0.354
 7012SOL    HW122810  14.458   2.765   0.386
 7012SOL    HW222811  14.420   2.839   0.259
 7013SOL     OW22812   5.230   2.347  13.500
 7013SOL    HW122813   5.188   2.402  13.433
 7013SOL    HW222814   5.193   2.260  13.486
 7014SOL     OW22815   6.054   2.381   5.648
 7014SOL    HW122816   6.098   2.362   5.731
 7014SOL    HW222817   6.106   2.450   5.608
 7015SOL     OW22818   0.316  12.399   2.062
 7015SOL    HW122819   0.360  12.484   2.054
 7015SOL    HW222820   0.324  12.360   1.975
 7016SOL     OW22821   9.870  14.441  14.255
 7016SOL    HW122822   9.782  14.468  14.282
 7016SOL    HW222823   9.855  14.386  14.178
 7017SOL     OW22824  13.529   5.432   5.180
 7017SOL    HW122825  13.463   5.490   5.217
 7017SOL    HW222826  13.546   5.467   5.092
 7018SOL     OW22827   1.278  13.823   9.935
 7018SOL    HW122828   1.351  13.763   9.954
 7018SOL    HW222829   1.225  13.778   9.870
 7019SOL     OW22830   3.502   5.709  12.241
 7019SOL    HW122831   3.489   5.791  12.194
 7019SOL    HW222832   3.597   5.697  12.243
 7020SOL     OW22833   0.743  11.852   4.218
 7020SOL    HW122834   0.652  11.823   4.210
 7020SOL    HW222835   0.769  11.874   4.129
 7021SOL     OW22836   5.436   6.078   4.579
 7021SOL    HW122837   5.419   5.989   4.608
 7021SOL    HW222838   5.531   6.088   4.585
 7022SOL     OW22839   6.733   5.004   6.792
 7022SOL    HW122840   6.810   5.015   6.735
 7022SOL    HW222841   6.755   5.053   6.871
 7023SOL     OW22842  11.369   6.799   5.291
 7023SOL    HW122843  11.439   6.857   5.322
 7023SOL    HW222844  11.305   6.859   5.252
 7024SOL     OW22845  12.790   3.499  11.682
 7024SOL    HW122846  12.793   3.443  11.604
 7024SOL    HW222847  12.802   3.438  11.755
 7025SOL     OW22848  14.465   3.582   5.409
 7025SOL    HW122849  14.425   3.585   5.496
 7025SOL    HW222850  14.526   3.508   5.413
 7026SOL     OW22851   9.971  14.188   4.614
 7026SOL    HW122852  10.011  14.152   4.534
 7026SOL    HW222853  10.041  14.183   4.679
 7027SOL     OW22854   2.858   1.090  10.511
 7027SOL    HW122855   2.877   0.996  10.515
 7027SOL    HW222856   2.936   1.131  10.549
 7028SOL     OW22857   0.601   7.728   8.818
 7028SOL    HW122858   0.583   7.636   8.798
 7028SOL    HW222859   0.644   7.726   8.903
 7029SOL     OW22860   4.131  11.371   9.972
 7029SOL    HW122861   4.193  11.326  10.031
 7029SOL    HW222862   4.116  11.308   9.902
 7030SOL     OW22863   5.568  13.492  10.009
 7030SOL    HW122864   5.596  13.464  10.096
 7030SOL    HW222865   5.477  13.520  10.021
 7031SOL     OW22866   9.585  13.120  13.850
 7031SOL    HW122867   9.516  13.137  13.915
 7031SOL    HW222868   9.658  13.087  13.902
 7032SOL     OW22869  10.001  11.568   8.577
 7032SOL    HW122870   9.978  11.495   8.520
 7032SOL    HW222871  10.054  11.529   8.646
 7033SOL     OW22872   5.200   2.819  14.602
 7033SOL    HW122873   5.122   2.765  14.594
 7033SOL    HW222874   5.178   2.900  14.556
 7034SOL     OW22875   1.972   3.144  12.741
 7034SOL    HW122876   2.002   3.068  12.690
 7034SOL    HW222877   1.883   3.160  12.709
 7035SOL     OW22878  12.260   2.468   8.179
 7035SOL    HW122879  12.167   2.451   8.198
 7035SOL    HW222880  12.274   2.428   8.093
 7036SOL     OW22881   8.997  11.709  10.808
 7036SOL    HW122882   8.930  11.683  10.744
 7036SOL    HW222883   9.021  11.627  10.851
 7037SOL     OW22884  12.471  13.056   8.234
 7037SOL    HW122885  12.460  12.963   8.252
 7037SOL    HW222886  12.473  13.097   8.321
 7038SOL     OW22887   5.655   5.414   1.869
 7038SOL    HW122888   5.691   5.334   1.831
 7038SOL    HW222889   5.565   5.392   1.892
 7039SOL     OW22890  11.993   8.322   2.794
 7039SOL    HW122891  12.010   8.351   2.883
 7039SOL    HW222892  12.073   8.343   2.746
 7040SOL     OW22893   5.114  10.782   6.463
 7040SOL    HW122894   5.124  10.843   6.390
 7040SOL    HW222895   5.077  10.834   6.533
 7041SOL     OW22896   7.662   2.850   8.595
 7041SOL    HW122897   7.733   2.835   8.657
 7041SOL    HW222898   7.633   2.940   8.613
 7042SOL     OW22899   9.895   7.222  14.150
 7042SOL    HW122900   9.845   7.286  14.098
 7042SOL    HW222901   9.839   7.145  14.153
 7043SOL     OW22902   3.910   0.743  11.662
 7043SOL    HW122903   3.981   0.784  11.712
 7043SOL    HW222904   3.879   0.812  11.604
 7044SOL     OW22905   5.024   5.820   2.261
 7044SOL    HW122906   5.076   5.826   2.341
 7044SOL    HW222907   4.988   5.732   2.262
 7045SOL     OW22908  12.737   2.826   1.112
 7045SOL    HW122909  12.785   2.754   1.153
 7045SOL    HW222910  12.751   2.900   1.172
 7046SOL     OW22911   5.143   6.729   2.385
 7046SOL    HW122912   5.127   6.651   2.437
 7046SOL    HW222913   5.166   6.696   2.298
 7047SOL     OW22914   6.635   0.647   3.004
 7047SOL    HW122915   6.643   0.673   3.096
 7047SOL    HW222916   6.628   0.551   3.007
 7048SOL     OW22917  10.003   2.199  10.914
 7048SOL    HW122918   9.932   2.210  10.851
 7048SOL    HW222919   9.967   2.230  10.997
 7049SOL     OW22920   9.578  14.068  10.751
 7049SOL    HW122921   9.506  14.063  10.688
 7049SOL    HW222922   9.653  14.032  10.704
 7050SOL     OW22923  11.080  11.125   1.862
 7050SOL    HW122924  11.035  11.113   1.778
 7050SOL    HW222925  11.078  11.219   1.877
 7051SOL     OW22926   7.031   7.341   7.934
 7051SOL    HW122927   7.126   7.344   7.946
 7051SOL    HW222928   6.999   7.424   7.970
 7052SOL     OW22929   3.865   1.380   5.277
 7052SOL    HW122930   3.888   1.464   5.240
 7052SOL    HW222931   3.914   1.375   5.359
 7053SOL     OW22932   3.456  13.017   4.832
 7053SOL    HW122933   3.393  13.051   4.769
 7053SOL    HW222934   3.541  13.028   4.789
 7054SOL     OW22935  13.188   5.293   4.977
 7054SOL    HW122936  13.211   5.360   5.042
 7054SOL    HW222937  13.200   5.210   5.023
 7055SOL     OW22938  10.206  13.473   2.888
 7055SOL    HW122939  10.194  13.543   2.824
 7055SOL    HW222940  10.161  13.397   2.850
 7056SOL     OW22941  11.770   2.346  10.863
 7056SOL    HW122942  11.766   2.427  10.813
 7056SOL    HW222943  11.693   2.349  10.919
 7057SOL     OW22944   9.449  12.828   0.732
 7057SOL    HW122945   9.489  12.792   0.653
 7057SOL    HW222946   9.388  12.760   0.761
 7058SOL     OW22947   4.806   5.880  10.875
 7058SOL    HW122948   4.836   5.880  10.966
 7058SOL    HW222949   4.883   5.907  10.824
 7059SOL     OW22950   8.726  13.119   8.539
 7059SOL    HW122951   8.634  13.093   8.532
 7059SOL    HW222952   8.775  13.046   8.500
 7060SOL     OW22953  13.089   0.686   6.241
 7060SOL    HW122954  13.183   0.683   6.262
 7060SOL    HW222955  13.062   0.774   6.265
 7061SOL     OW22956   9.550   2.500  13.424
 7061SOL    HW122957   9.484   2.508  13.494
 7061SOL    HW222958   9.600   2.582  13.430
 7062SOL     OW22959  12.228   3.439   4.509
 7062SOL    HW122960  12.192   3.528   4.504
 7062SOL    HW222961  12.318   3.448   4.480
 7063SOL     OW22962   4.648   0.060   4.963
 7063SOL    HW122963   4.622   0.068   4.872
 7063SOL    HW222964   4.597  14.863   4.995
 7064SOL     OW22965  12.308   3.967   1.000
 7064SOL    HW122966  12.222   3.965   1.042
 7064SOL    HW222967  12.352   3.889   1.033
 7065SOL     OW22968   1.968  13.507  10.366
 7065SOL    HW122969   1.893  13.450  10.383
 7065SOL    HW222970   1.999  13.532  10.453
 7066SOL     OW22971  10.652   9.390   1.154
 7066SOL    HW122972  10.602   9.458   1.199
 7066SOL    HW222973  10.744   9.415   1.165
 7067SOL     OW22974   1.860   0.626   8.790
 7067SOL    HW122975   1.868   0.698   8.853
 7067SOL    HW222976   1.840   0.550   8.844
 7068SOL     OW22977  13.856   2.463   4.239
 7068SOL    HW122978  13.810   2.525   4.181
 7068SOL    HW222979  13.943   2.454   4.199
 7069SOL     OW22980   4.723   6.924   7.316
 7069SOL    HW122981   4.638   6.910   7.275
 7069SOL    HW222982   4.745   7.015   7.296
 7070SOL     OW22983   4.801   1.482   4.955
 7070SOL    HW122984   4.708   1.460   4.955
 7070SOL    HW222985   4.808   1.558   5.013
 7071SOL     OW22986  12.842   6.415   9.252
 7071SOL    HW122987  12.897   6.385   9.324
 7071SOL    HW222988  12.827   6.337   9.198
 7072SOL     OW22989  14.336  12.082   7.283
 7072SOL    HW122990  14.393  12.150   7.245
 7072SOL    HW222991  14.333  12.103   7.376
 7073SOL     OW22992   9.732   2.201   1.947
 7073SOL    HW122993   9.742   2.127   1.886
 7073SOL    HW222994   9.737   2.161   2.034
 7074SOL     OW22995  10.141  14.119   8.094
 7074SOL    HW122996  10.063  14.109   8.150
 7074SOL    HW222997  10.192  14.040   8.110
 7075SOL     OW22998   0.114   3.064   6.436
 7075SOL    HW122999   0.208   3.045   6.438
 7075SOL    HW223000   0.109   3.160   6.439
 7076SOL     OW23001   6.383   7.749   4.375
 7076SOL    HW123002   6.445   7.677   4.380
 7076SOL    HW223003   6.379   7.784   4.464
 7077SOL     OW23004   5.529   7.456   4.077
 7077SOL    HW123005   5.462   7.525   4.088
 7077SOL    HW223006   5.508   7.392   4.144
 7078SOL     OW23007  12.090   2.957   6.386
 7078SOL    HW123008  12.095   2.914   6.301
 7078SOL    HW223009  12.120   3.046   6.369
 7079SOL     OW23010   5.348  13.079  11.188
 7079SOL    HW123011   5.394  13.139  11.129
 7079SOL    HW223012   5.301  13.020  11.130
 7080SOL     OW23013   3.138  11.296   9.836
 7080SOL    HW123014   3.088  11.292   9.917
 7080SOL    HW223015   3.111  11.218   9.787
 7081SOL     OW23016   9.693  14.076   0.363
 7081SOL    HW123017   9.697  14.000   0.421
 7081SOL    HW223018   9.607  14.115   0.381
 7082SOL     OW23019   3.321  14.838   5.305
 7082SOL    HW123020   3.278  14.766   5.258
 7082SOL    HW223021   3.254  14.870   5.365
 7083SOL     OW23022  10.104  13.776   1.346
 7083SOL    HW123023  10.156  13.699   1.368
 7083SOL    HW223024  10.110  13.831   1.425
 7084SOL     OW23025   3.488   5.977  10.768
 7084SOL    HW123026   3.554   6.003  10.832
 7084SOL    HW223027   3.491   5.881  10.768
 7085SOL     OW23028   7.777   7.046   7.580
 7085SOL    HW123029   7.826   7.097   7.514
 7085SOL    HW223030   7.823   7.063   7.662
 7086SOL     OW23031   7.588   4.855   4.067
 7086SOL    HW123032   7.608   4.900   4.149
 7086SOL    HW223033   7.625   4.767   4.078
 7087SOL     OW23034   2.097  12.504   2.900
 7087SOL    HW123035   2.097  12.409   2.910
 7087SOL    HW223036   2.190  12.528   2.903
 7088SOL     OW23037  13.376  10.559  13.992
 7088SOL    HW123038  13.281  10.573  13.988
 7088SOL    HW223039  13.388  10.495  14.063
 7089SOL     OW23040   1.918   1.118   1.014
 7089SOL    HW123041   1.916   1.026   1.038
 7089SOL    HW223042   1.963   1.121   0.930
 7090SOL     OW23043   5.643  10.119  12.078
 7090SOL    HW123044   5.573  10.072  12.033
 7090SOL    HW223045   5.662  10.065  12.154
 7091SOL     OW23046   5.101   1.571   6.285
 7091SOL    HW123047   5.139   1.622   6.357
 7091SOL    HW223048   5.006   1.583   6.295
 7092SOL     OW23049  12.734  12.876   7.386
 7092SOL    HW123050  12.759  12.967   7.369
 7092SOL    HW223051  12.796  12.824   7.334
 7093SOL     OW23052  13.458   6.204   6.275
 7093SOL    HW123053  13.474   6.148   6.199
 7093SOL    HW223054  13.474   6.148   6.350
 7094SOL     OW23055   6.237   6.938   6.869
 7094SOL    HW123056   6.297   6.957   6.941
 7094SOL    HW223057   6.293   6.927   6.792
 7095SOL     OW23058   6.737   6.291   7.870
 7095SOL    HW123059   6.745   6.200   7.843
 7095SOL    HW223060   6.651   6.319   7.839
 7096SOL     OW23061   5.306   1.418  10.787
 7096SOL    HW123062   5.258   1.437  10.868
 7096SOL    HW223063   5.396   1.446  10.805
 7097SOL     OW23064  13.473  12.518   4.206
 7097SOL    HW123065  13.555  12.536   4.251
 7097SOL    HW223066  13.466  12.588   4.140
 7098SOL     OW23067   5.746   8.749   2.035
 7098SOL    HW123068   5.712   8.693   2.105
 7098SOL    HW223069   5.833   8.714   2.017
 7099SOL     OW23070   8.724  11.395   2.147
 7099SOL    HW123071   8.748  11.334   2.077
 7099SOL    HW223072   8.641  11.361   2.181
 7100SOL     OW23073   3.431   0.758  10.034
 7100SOL    HW123074   3.409   0.693  10.100
 7100SOL    HW223075   3.346   0.782   9.995
 7101SOL     OW23076   3.483  11.195  13.338
 7101SOL    HW123077   3.545  11.235  13.399
 7101SOL    HW223078   3.436  11.268  13.299
 7102SOL     OW23079   4.852  11.097   6.945
 7102SOL    HW123080   4.925  11.086   7.006
 7102SOL    HW223081   4.830  11.007   6.919
 7103SOL     OW23082   2.649   1.250  11.975
 7103SOL    HW123083   2.590   1.297  11.916
 7103SOL    HW223084   2.654   1.162  11.938
 7104SOL     OW23085   4.885   7.373   0.468
 7104SOL    HW123086   4.918   7.292   0.429
 7104SOL    HW223087   4.864   7.429   0.394
 7105SOL     OW23088  14.612   1.287   8.701
 7105SOL    HW123089  14.565   1.267   8.620
 7105SOL    HW223090  14.560   1.357   8.741
 7106SOL     OW23091   1.467  13.639  13.354
 7106SOL    HW123092   1.528  13.578  13.313
 7106SOL    HW223093   1.522  13.714  13.379
 7107SOL     OW23094  12.877   7.403   8.279
 7107SOL    HW123095  12.823   7.433   8.352
 7107SOL    HW223096  12.893   7.483   8.228
 7108SOL     OW23097   1.264   6.483   1.541
 7108SOL    HW123098   1.356   6.478   1.514
 7108SOL    HW223099   1.223   6.409   1.497
 7109SOL     OW23100   5.317   6.683   6.570
 7109SOL    HW123101   5.378   6.732   6.516
 7109SOL    HW223102   5.347   6.593   6.565
 7110SOL     OW23103  13.669   3.710  14.635
 7110SOL    HW123104  13.757   3.673  14.641
 7110SOL    HW223105  13.633   3.673  14.554
 7111SOL     OW23106   5.830   2.947   5.764
 7111SOL    HW123107   5.837   3.039   5.788
 7111SOL    HW223108   5.884   2.938   5.686
 7112SOL     OW23109  13.014  13.890  11.564
 7112SOL    HW123110  12.936  13.875  11.510
 7112SOL    HW223111  13.083  13.840  11.520
 7113SOL     OW23112   5.233   0.747   9.642
 7113SOL    HW123113   5.300   0.778   9.580
 7113SOL    HW223114   5.223   0.654   9.621
 7114SOL     OW23115   3.507   1.590   6.727
 7114SOL    HW123116   3.501   1.658   6.661
 7114SOL    HW223117   3.431   1.534   6.712
 7115SOL     OW23118  10.816   8.845   5.995
 7115SOL    HW123119  10.801   8.780   6.063
 7115SOL    HW223120  10.806   8.797   5.913
 7116SOL     OW23121  10.855  10.948   2.108
 7116SOL    HW123122  10.778  10.900   2.079
 7116SOL    HW223123  10.840  11.038   2.078
 7117SOL     OW23124   4.508   3.498   9.501
 7117SOL    HW123125   4.474   3.411   9.482
 7117SOL    HW223126   4.468   3.521   9.585
 7118SOL     OW23127   7.273  11.505   1.066
 7118SOL    HW123128   7.186  11.519   1.031
 7118SOL    HW223129   7.263  11.517   1.161
 7119SOL     OW23130   2.943  12.152   5.503
 7119SOL    HW123131   2.981  12.222   5.556
 7119SOL    HW223132   2.990  12.156   5.420
 7120SOL     OW23133  14.877   1.886   4.136
 7120SOL    HW123134   0.034   1.848   4.216
 7120SOL    HW223135  14.794   1.840   4.122
 7121SOL     OW23136   2.215   4.052  11.901
 7121SOL    HW123137   2.196   3.970  11.947
 7121SOL    HW223138   2.285   4.093  11.952
 7122SOL     OW23139   8.872   3.806   8.547
 7122SOL    HW123140   8.908   3.828   8.633
 7122SOL    HW223141   8.948   3.782   8.494
 7123SOL     OW23142  12.091   0.460  10.594
 7123SOL    HW123143  12.063   0.380  10.550
 7123SOL    HW223144  12.134   0.511  10.525
 7124SOL     OW23145   9.495  14.442   9.224
 7124SOL    HW123146   9.444  14.514   9.189
 7124SOL    HW223147   9.495  14.457   9.319
 7125SOL     OW23148  13.146  10.798   0.348
 7125SOL    HW123149  13.103  10.718   0.316
 7125SOL    HW223150  13.092  10.826   0.421
 7126SOL     OW23151   3.174   8.651  10.914
 7126SOL    HW123152   3.155   8.557  10.908
 7126SOL    HW223153   3.094   8.693  10.883
 7127SOL     OW23154   6.942   2.272   4.945
 7127SOL    HW123155   6.922   2.340   4.880
 7127SOL    HW223156   7.003   2.315   5.005
 7128SOL     OW23157   2.666  13.199  10.472
 7128SOL    HW123158   2.613  13.120  10.466
 7128SOL    HW223159   2.627  13.249  10.544
 7129SOL     OW23160   8.123   2.671   6.294
 7129SOL    HW123161   8.208   2.694   6.330
 7129SOL    HW223162   8.060   2.714   6.352
 7130SOL     OW23163   9.423  12.045   6.252
 7130SOL    HW123164   9.333  12.032   6.282
 7130SOL    HW223165   9.417  12.119   6.191
 7131SOL     OW23166  13.052   6.707   6.754
 7131SOL    HW123167  13.007   6.623   6.755
 7131SOL    HW223168  12.990   6.768   6.794
 7132SOL     OW23169   7.880   9.645  13.557
 7132SOL    HW123170   7.885   9.687  13.643
 7132SOL    HW223171   7.902   9.715  13.495
 7133SOL     OW23172   7.450  14.411   1.376
 7133SOL    HW123173   7.363  14.422   1.415
 7133SOL    HW223174   7.435  14.419   1.282
 7134SOL     OW23175  10.191   2.036   7.834
 7134SOL    HW123176  10.202   2.030   7.929
 7134SOL    HW223177  10.119   1.977   7.815
 7135SOL     OW23178   5.610   7.086  13.687
 7135SOL    HW123179   5.613   7.181  13.697
 7135SOL    HW223180   5.543   7.071  13.620
 7136SOL     OW23181  10.715  10.073   4.940
 7136SOL    HW123182  10.811  10.068   4.945
 7136SOL    HW223183  10.686   9.982   4.947
 7137SOL     OW23184  10.636   5.761   5.882
 7137SOL    HW123185  10.552   5.744   5.840
 7137SOL    HW223186  10.616   5.822   5.952
 7138SOL     OW23187   2.671   9.770  14.746
 7138SOL    HW123188   2.695   9.700  14.684
 7138SOL    HW223189   2.580   9.751  14.769
 7139SOL     OW23190   4.612   0.271  11.784
 7139SOL    HW123191   4.700   0.263  11.748
 7139SOL    HW223192   4.574   0.346  11.738
 7140SOL     OW23193   2.374   9.539  13.519
 7140SOL    HW123194   2.386   9.634  13.517
 7140SOL    HW223195   2.454   9.504  13.481
 7141SOL     OW23196   8.468   2.805   0.414
 7141SOL    HW123197   8.465   2.855   0.332
 7141SOL    HW223198   8.387   2.754   0.413
 7142SOL     OW23199   6.365   5.492   2.361
 7142SOL    HW123200   6.430   5.422   2.354
 7142SOL    HW223201   6.296   5.455   2.417
 7143SOL     OW23202   1.958  12.327  11.318
 7143SOL    HW123203   2.003  12.296  11.240
 7143SOL    HW223204   1.923  12.413  11.295
 7144SOL     OW23205   2.364  12.851   4.193
 7144SOL    HW123206   2.323  12.834   4.278
 7144SOL    HW223207   2.331  12.937   4.167
 7145SOL     OW23208   1.984   6.944   7.754
 7145SOL    HW123209   2.012   6.970   7.842
 7145SOL    HW223210   2.058   6.894   7.719
 7146SOL     OW23211   3.144   6.963   3.440
 7146SOL    HW123212   3.063   6.945   3.394
 7146SOL    HW223213   3.121   6.955   3.533
 7147SOL     OW23214   5.744  10.863  13.032
 7147SOL    HW123215   5.744  10.786  12.975
 7147SOL    HW223216   5.757  10.828  13.120
 7148SOL     OW23217   5.710   2.801   9.286
 7148SOL    HW123218   5.616   2.818   9.290
 7148SOL    HW223219   5.719   2.736   9.216
 7149SOL     OW23220   7.447  10.434   1.912
 7149SOL    HW123221   7.489  10.517   1.891
 7149SOL    HW223222   7.519  10.371   1.916
 7150SOL     OW23223  14.380   6.474   2.065
 7150SOL    HW123224  14.348   6.528   1.993
 7150SOL    HW223225  14.440   6.412   2.024
 7151SOL     OW23226   9.385   9.736   0.052
 7151SOL    HW123227   9.391   9.641   0.039
 7151SOL    HW223228   9.350   9.746   0.140
 7152SOL     OW23229   0.357   3.223   8.039
 7152SOL    HW123230   0.425   3.237   8.105
 7152SOL    HW223231   0.389   3.149   7.987
 7153SOL     OW23232   8.909   5.380  11.762
 7153SOL    HW123233   8.872   5.316  11.701
 7153SOL    HW223234   8.893   5.465  11.721
 7154SOL     OW23235  10.948   1.790  13.804
 7154SOL    HW123236  10.997   1.749  13.876
 7154SOL    HW223237  10.859   1.800  13.838
 7155SOL     OW23238   9.204   7.934  12.989
 7155SOL    HW123239   9.201   7.946  13.084
 7155SOL    HW223240   9.190   8.021  12.953
 7156SOL     OW23241   3.503   8.986   5.299
 7156SOL    HW123242   3.594   9.016   5.298
 7156SOL    HW223243   3.471   9.004   5.210
 7157SOL     OW23244   7.357  12.228   5.634
 7157SOL    HW123245   7.374  12.198   5.723
 7157SOL    HW223246   7.266  12.260   5.637
 7158SOL     OW23247   8.223   9.756  12.979
 7158SOL    HW123248   8.199   9.709  12.898
 7158SOL    HW223249   8.162   9.723  13.044
 7159SOL     OW23250   3.599   6.288  11.989
 7159SOL    HW123251   3.549   6.369  11.996
 7159SOL    HW223252   3.593   6.264  11.896
 7160SOL     OW23253   6.157   0.025  10.759
 7160SOL    HW123254   6.154   0.121  10.759
 7160SOL    HW223255   6.073  14.876  10.796
 7161SOL     OW23256   5.104   2.767  10.713
 7161SOL    HW123257   5.173   2.702  10.717
 7161SOL    HW223258   5.029   2.721  10.674
 7162SOL     OW23259   7.315   4.497  14.417
 7162SOL    HW123260   7.390   4.482  14.475
 7162SOL    HW223261   7.254   4.548  14.471
 7163SOL     OW23262  10.957  13.815   9.799
 7163SOL    HW123263  10.927  13.730   9.766
 7163SOL    HW223264  10.905  13.829   9.878
 7164SOL     OW23265  10.349   7.032  12.181
 7164SOL    HW123266  10.316   7.060  12.095
 7164SOL    HW223267  10.290   6.961  12.207
 7165SOL     OW23268  12.725   0.150   8.504
 7165SOL    HW123269  12.736   0.056   8.508
 7165SOL    HW223270  12.728   0.171   8.410
 7166SOL     OW23271   9.631   0.428  13.682
 7166SOL    HW123272   9.551   0.396  13.641
 7166SOL    HW223273   9.605   0.509  13.726
 7167SOL     OW23274   5.228  12.666   0.783
 7167SOL    HW123275   5.310  12.629   0.815
 7167SOL    HW223276   5.160  12.620   0.831
 7168SOL     OW23277  12.082   1.091   1.470
 7168SOL    HW123278  12.052   1.178   1.497
 7168SOL    HW223279  12.161   1.075   1.522
 7169SOL     OW23280   1.266   4.146  14.531
 7169SOL    HW123281   1.352   4.164  14.571
 7169SOL    HW223282   1.203   4.170  14.599
 7170SOL     OW23283   6.332   8.812   1.362
 7170SOL    HW123284   6.362   8.903   1.355
 7170SOL    HW223285   6.348   8.788   1.453
 7171SOL     OW23286  14.196   3.209  11.122
 7171SOL    HW123287  14.179   3.157  11.201
 7171SOL    HW223288  14.117   3.199  11.070
 7172SOL     OW23289   7.125   2.346   0.360
 7172SOL    HW123290   7.072   2.323   0.284
 7172SOL    HW223291   7.215   2.323   0.334
 7173SOL     OW23292  13.259   3.779   9.189
 7173SOL    HW123293  13.168   3.783   9.160
 7173SOL    HW223294  13.310   3.785   9.109
 7174SOL     OW23295   1.865   9.262   1.559
 7174SOL    HW123296   1.781   9.301   1.534
 7174SOL    HW223297   1.861   9.254   1.654
 7175SOL     OW23298  11.423   1.933   9.381
 7175SOL    HW123299  11.413   1.859   9.441
 7175SOL    HW223300  11.367   1.912   9.307
 7176SOL     OW23301   4.705   0.238   6.908
 7176SOL    HW123302   4.726   0.287   6.988
 7176SOL    HW223303   4.699   0.305   6.840
 7177SOL     OW23304  11.676  10.437   7.244
 7177SOL    HW123305  11.586  10.404   7.240
 7177SOL    HW223306  11.686  10.489   7.164
 7178SOL     OW23307  10.614   0.831  13.157
 7178SOL    HW123308  10.523   0.855  13.174
 7178SOL    HW223309  10.665   0.888  13.214
 7179SOL     OW23310   8.697  12.111   9.408
 7179SOL    HW123311   8.658  12.167   9.340
 7179SOL    HW223312   8.658  12.025   9.394
 7180SOL     OW23313   2.565   9.516  11.204
 7180SOL    HW123314   2.598   9.431  11.234
 7180SOL    HW223315   2.643   9.572  11.200
 7181SOL     OW23316   7.094   1.199   6.970
 7181SOL    HW123317   7.012   1.188   7.019
 7181SOL    HW223318   7.070   1.255   6.897
 7182SOL     OW23319   2.539   7.661   5.127
 7182SOL    HW123320   2.445   7.679   5.120
 7182SOL    HW223321   2.567   7.646   5.037
 7183SOL     OW23322  12.556   6.589   1.711
 7183SOL    HW123323  12.589   6.667   1.666
 7183SOL    HW223324  12.562   6.611   1.804
 7184SOL     OW23325  13.212   9.906  11.318
 7184SOL    HW123326  13.135   9.925  11.265
 7184SOL    HW223327  13.205   9.812  11.337
 7185SOL     OW23328   3.991   8.414   7.384
 7185SOL    HW123329   3.976   8.425   7.290
 7185SOL    HW223330   3.956   8.326   7.402
 7186SOL     OW23331   0.521   3.833   7.986
 7186SOL    HW123332   0.609   3.862   8.010
 7186SOL    HW223333   0.487   3.901   7.928
 7187SOL     OW23334  12.913   3.380   0.055
 7187SOL    HW123335  12.986   3.338   0.100
 7187SOL    HW223336  12.953   3.451   0.005
 7188SOL     OW23337   4.763  10.056   2.817
 7188SOL    HW123338   4.841  10.110   2.827
 7188SOL    HW223339   4.730  10.077   2.729
 7189SOL     OW23340   5.748   6.381   9.342
 7189SOL    HW123341   5.679   6.316   9.325
 7189SOL    HW223342   5.707   6.465   9.325
 7190SOL     OW23343   6.974   5.161   8.189
 7190SOL    HW123344   7.014   5.224   8.249
 7190SOL    HW223345   7.037   5.154   8.117
 7191SOL     OW23346   7.218   2.369   7.794
 7191SOL    HW123347   7.127   2.397   7.805
 7191SOL    HW223348   7.221   2.282   7.835
 7192SOL     OW23349   6.304   1.555  14.647
 7192SOL    HW123350   6.259   1.498  14.710
 7192SOL    HW223351   6.352   1.618  14.701
 7193SOL     OW23352   3.308  13.503  11.036
 7193SOL    HW123353   3.213  13.509  11.029
 7193SOL    HW223354   3.337  13.592  11.058
 7194SOL     OW23355   7.597   0.069   3.052
 7194SOL    HW123356   7.554   0.140   3.004
 7194SOL    HW223357   7.532   0.039   3.115
 7195SOL     OW23358   7.554   2.699   7.498
 7195SOL    HW123359   7.590   2.686   7.410
 7195SOL    HW223360   7.528   2.791   7.500
 7196SOL     OW23361  14.222   2.017  10.305
 7196SOL    HW123362  14.301   2.061  10.337
 7196SOL    HW223363  14.178   1.986  10.384
 7197SOL     OW23364   1.827  12.795   2.086
 7197SOL    HW123365   1.889  12.723   2.085
 7197SOL    HW223366   1.750  12.761   2.039
 7198SOL     OW23367  11.035   3.794   5.368
 7198SOL    HW123368  11.046   3.699   5.375
 7198SOL    HW223369  11.076   3.817   5.285
 7199SOL     OW23370  12.718   9.953   1.001
 7199SOL    HW123371  12.745   9.898   1.075
 7199SOL    HW223372  12.705  10.040   1.040
 7200SOL     OW23373  11.940   4.800   8.496
 7200SOL    HW123374  11.943   4.877   8.440
 7200SOL    HW223375  11.850   4.797   8.528
 7201SOL     OW23376   5.305   7.960   7.662
 7201SOL    HW123377   5.261   7.940   7.579
 7201SOL    HW223378   5.372   7.892   7.671
 7202SOL     OW23379   3.819  10.743  13.148
 7202SOL    HW123380   3.831  10.837  13.134
 7202SOL    HW223381   3.904  10.705  13.124
 7203SOL     OW23382  11.043   9.171   3.490
 7203SOL    HW123383  11.082   9.187   3.576
 7203SOL    HW223384  11.017   9.079   3.492
 7204SOL     OW23385   9.597  11.825   6.298
 7204SOL    HW123386   9.554  11.793   6.377
 7204SOL    HW223387   9.542  11.897   6.268
 7205SOL     OW23388   2.575   1.480   8.649
 7205SOL    HW123389   2.556   1.386   8.659
 7205SOL    HW223390   2.522   1.507   8.574
 7206SOL     OW23391   6.715  10.373   8.848
 7206SOL    HW123392   6.728  10.452   8.901
 7206SOL    HW223393   6.665  10.404   8.772
 7207SOL     OW23394   1.357   8.161   7.552
 7207SOL    HW123395   1.306   8.089   7.514
 7207SOL    HW223396   1.365   8.139   7.645
 7208SOL     OW23397  13.818   3.853   4.949
 7208SOL    HW123398  13.880   3.835   4.878
 7208SOL    HW223399  13.864   3.826   5.028
 7209SOL     OW23400  12.256   5.430   4.397
 7209SOL    HW123401  12.201   5.508   4.394
 7209SOL    HW223402  12.201   5.361   4.359
 7210SOL     OW23403   1.317  10.281   1.090
 7210SOL    HW123404   1.341  10.215   1.025
 7210SOL    HW223405   1.304  10.361   1.040
 7211SOL     OW23406   9.206  14.020   2.778
 7211SOL    HW123407   9.139  13.977   2.830
 7211SOL    HW223408   9.282  13.961   2.783
 7212SOL     OW23409  13.206   4.421   0.496
 7212SOL    HW123410  13.242   4.508   0.511
 7212SOL    HW223411  13.151   4.404   0.573
 7213SOL     OW23412   4.754   5.617   5.460
 7213SOL    HW123413   4.713   5.532   5.474
 7213SOL    HW223414   4.699   5.661   5.396
 7214SOL     OW23415  11.795   4.933   0.307
 7214SOL    HW123416  11.758   4.933   0.395
 7214SOL    HW223417  11.881   4.893   0.317
 7215SOL     OW23418   7.089  14.679   2.208
 7215SOL    HW123419   7.163  14.622   2.228
 7215SOL    HW223420   7.129  14.765   2.192
 7216SOL     OW23421   3.848   1.886   1.539
 7216SOL    HW123422   3.761   1.875   1.577
 7216SOL    HW223423   3.837   1.957   1.475
 7217SOL     OW23424  13.785  14.814   3.139
 7217SOL    HW123425  13.832  14.785   3.217
 7217SOL    HW223426  13.821   0.023   3.121
 7218SOL     OW23427   0.566   9.934  13.328
 7218SOL    HW123428   0.657   9.965  13.323
 7218SOL    HW223429   0.571   9.842  13.303
 7219SOL     OW23430  14.551   3.532   4.296
 7219SOL    HW123431  14.582   3.596   4.360
 7219SOL    HW223432  14.606   3.546   4.219
 7220SOL     OW23433   7.068   3.785   3.544
 7220SOL    HW123434   7.016   3.865   3.547
 7220SOL    HW223435   7.143   3.808   3.490
 7221SOL     OW23436   6.440   9.210  10.576
 7221SOL    HW123437   6.408   9.261  10.650
 7221SOL    HW223438   6.535   9.220  10.578
 7222SOL     OW23439   8.823   1.381   6.482
 7222SOL    HW123440   8.874   1.319   6.430
 7222SOL    HW223441   8.871   1.389   6.564
 7223SOL     OW23442   5.730   8.144   4.394
 7223SOL    HW123443   5.788   8.069   4.381
 7223SOL    HW223444   5.652   8.107   4.435
 7224SOL     OW23445   2.757  13.159   2.408
 7224SOL    HW123446   2.831  13.133   2.463
 7224SOL    HW223447   2.683  13.163   2.468
 7225SOL     OW23448  12.566  10.042  14.812
 7225SOL    HW123449  12.565   9.951  14.782
 7225SOL    HW223450  12.575  10.035   0.029
 7226SOL     OW23451  14.212   8.446   1.840
 7226SOL    HW123452  14.222   8.419   1.748
 7226SOL    HW223453  14.123   8.421   1.863
 7227SOL     OW23454   1.566  10.282   3.400
 7227SOL    HW123455   1.483  10.281   3.351
 7227SOL    HW223456   1.633  10.292   3.333
 7228SOL     OW23457   2.875   8.708   3.393
 7228SOL    HW123458   2.932   8.743   3.462
 7228SOL    HW223459   2.786   8.735   3.419
 7229SOL     OW23460  14.006   3.294   8.934
 7229SOL    HW123461  13.957   3.334   9.006
 7229SOL    HW223462  13.953   3.219   8.908
 7230SOL     OW23463   1.999  13.851  10.578
 7230SOL    HW123464   1.983  13.945  10.594
 7230SOL    HW223465   1.987  13.841  10.483
 7231SOL     OW23466  11.752  10.041   0.021
 7231SOL    HW123467  11.668  10.023   0.064
 7231SOL    HW223468  11.771   9.960  14.851
 7232SOL     OW23469  10.931   6.344  12.490
 7232SOL    HW123470  10.868   6.290  12.537
 7232SOL    HW223471  10.884   6.425  12.471
 7233SOL     OW23472   7.547  11.405   7.078
 7233SOL    HW123473   7.529  11.423   6.985
 7233SOL    HW223474   7.581  11.487   7.112
 7234SOL     OW23475  14.797  10.661   1.709
 7234SOL    HW123476  14.740  10.590   1.738
 7234SOL    HW223477  14.794  10.657   1.613
 7235SOL     OW23478   7.901   7.022  13.876
 7235SOL    HW123479   7.968   7.086  13.899
 7235SOL    HW223480   7.836   7.029  13.946
 7236SOL     OW23481   1.993   7.577   0.728
 7236SOL    HW123482   2.063   7.635   0.757
 7236SOL    HW223483   2.015   7.492   0.766
 7237SOL     OW23484   6.707   5.099   8.166
 7237SOL    HW123485   6.800   5.114   8.179
 7237SOL    HW223486   6.702   5.043   8.089
 7238SOL     OW23487   5.700   4.935  10.420
 7238SOL    HW123488   5.661   4.895  10.343
 7238SOL    HW223489   5.761   4.870  10.453
 7239SOL     OW23490  11.170   9.750   6.486
 7239SOL    HW123491  11.139   9.708   6.406
 7239SOL    HW223492  11.206   9.679   6.538
 7240SOL     OW23493  14.802  11.278   6.687
 7240SOL    HW123494   0.018  11.271   6.701
 7240SOL    HW223495  14.790  11.267   6.592
 7241SOL     OW23496  10.962   4.258   5.873
 7241SOL    HW123497  10.970   4.298   5.786
 7241SOL    HW223498  11.036   4.198   5.879
 7242SOL     OW23499   2.008  11.035   4.559
 7242SOL    HW123500   2.056  11.009   4.480
 7242SOL    HW223501   1.992  10.953   4.605
 7243SOL     OW23502   7.870   0.911   6.413
 7243SOL    HW123503   7.921   0.862   6.349
 7243SOL    HW223504   7.890   0.869   6.497
 7244SOL     OW23505   1.791   4.288   6.204
 7244SOL    HW123506   1.775   4.194   6.206
 7244SOL    HW223507   1.768   4.318   6.292
 7245SOL     OW23508   1.477   9.859   3.381
 7245SOL    HW123509   1.476   9.855   3.286
 7245SOL    HW223510   1.568   9.882   3.403
 7246SOL     OW23511   5.328  14.471   5.361
 7246SOL    HW123512   5.352  14.382   5.333
 7246SOL    HW223513   5.233  14.475   5.349
 7247SOL     OW23514   7.037   0.559   2.847
 7247SOL    HW123515   7.127   0.579   2.875
 7247SOL    HW223516   7.036   0.463   2.840
 7248SOL     OW23517   3.019   7.787   5.197
 7248SOL    HW123518   2.924   7.794   5.192
 7248SOL    HW223519   3.038   7.696   5.177
 7249SOL     OW23520   9.686   4.741   9.420
 7249SOL    HW123521   9.741   4.745   9.499
 7249SOL    HW223522   9.646   4.654   9.423
 7250SOL     OW23523   6.993   0.595   4.681
 7250SOL    HW123524   7.067   0.535   4.692
 7250SOL    HW223525   6.998   0.653   4.757
 7251SOL     OW23526  14.127  11.254   6.622
 7251SOL    HW123527  14.042  11.293   6.644
 7251SOL    HW223528  14.180  11.328   6.592
 7252SOL     OW23529   6.235   2.442  11.707
 7252SOL    HW123530   6.211   2.499  11.780
 7252SOL    HW223531   6.330   2.449  11.702
 7253SOL     OW23532  14.656   9.865   1.650
 7253SOL    HW123533  14.684   9.774   1.641
 7253SOL    HW223534  14.692   9.909   1.573
 7254SOL     OW23535  10.103   8.034   5.547
 7254SOL    HW123536  10.031   8.076   5.500
 7254SOL    HW223537  10.117   7.951   5.501
 7255SOL     OW23538   9.871  12.563   5.560
 7255SOL    HW123539   9.861  12.480   5.513
 7255SOL    HW223540   9.784  12.604   5.556
 7256SOL     OW23541   1.974  13.735   5.148
 7256SOL    HW123542   1.920  13.811   5.127
 7256SOL    HW223543   1.987  13.741   5.243
 7257SOL     OW23544   8.233   4.238  11.561
 7257SOL    HW123545   8.260   4.241  11.653
 7257SOL    HW223546   8.141   4.266  11.561
 7258SOL     OW23547   6.927   5.289  11.963
 7258SOL    HW123548   6.917   5.248  11.877
 7258SOL    HW223549   6.993   5.236  12.008
 7259SOL     OW23550   6.555   9.331  11.780
 7259SOL    HW123551   6.576   9.356  11.690
 7259SOL    HW223552   6.521   9.242  11.773
 7260SOL     OW23553   1.415  12.904   1.922
 7260SOL    HW123554   1.337  12.955   1.942
 7260SOL    HW223555   1.439  12.931   1.833
 7261SOL     OW23556  10.322  13.382  12.076
 7261SOL    HW123557  10.233  13.408  12.054
 7261SOL    HW223558  10.373  13.400  11.997
 7262SOL     OW23559   3.100   2.532  11.728
 7262SOL    HW123560   3.161   2.492  11.666
 7262SOL    HW223561   3.113   2.483  11.809
 7263SOL     OW23562   6.230   5.943   4.818
 7263SOL    HW123563   6.293   5.935   4.746
 7263SOL    HW223564   6.283   5.940   4.897
 7264SOL     OW23565   4.936   7.209   4.006
 7264SOL    HW123566   4.991   7.248   3.937
 7264SOL    HW223567   4.926   7.278   4.071
 7265SOL     OW23568  10.124  13.781  13.356
 7265SOL    HW123569  10.174  13.837  13.297
 7265SOL    HW223570  10.142  13.817  13.443
 7266SOL     OW23571  14.028  10.986   0.231
 7266SOL    HW123572  14.113  11.008   0.194
 7266SOL    HW223573  13.994  10.917   0.175
 7267SOL     OW23574   2.085  11.124   9.964
 7267SOL    HW123575   2.038  11.184   9.907
 7267SOL    HW223576   2.017  11.080  10.015
 7268SOL     OW23577   5.412   3.941  12.162
 7268SOL    HW123578   5.406   3.940  12.258
 7268SOL    HW223579   5.331   3.983  12.134
 7269SOL     OW23580   7.707  10.771   3.378
 7269SOL    HW123581   7.730  10.706   3.313
 7269SOL    HW223582   7.725  10.855   3.336
 7270SOL     OW23583   7.365   0.709   4.035
 7270SOL    HW123584   7.369   0.673   3.946
 7270SOL    HW223585   7.283   0.759   4.037
 7271SOL     OW23586  11.174   4.576   6.328
 7271SOL    HW123587  11.184   4.667   6.300
 7271SOL    HW223588  11.134   4.533   6.253
 7272SOL     OW23589  13.757   8.388  10.904
 7272SOL    HW123590  13.788   8.429  10.824
 7272SOL    HW223591  13.662   8.390  10.897
 7273SOL     OW23592  10.903  10.957   0.804
 7273SOL    HW123593  10.957  11.012   0.861
 7273SOL    HW223594  10.854  10.901   0.864
 7274SOL     OW23595   9.883   3.869  12.510
 7274SOL    HW123596   9.966   3.913  12.489
 7274SOL    HW223597   9.901   3.823  12.592
 7275SOL     OW23598  10.153   0.716   7.961
 7275SOL    HW123599  10.168   0.740   7.869
 7275SOL    HW223600  10.173   0.795   8.010
 7276SOL     OW23601   3.460   4.131  12.316
 7276SOL    HW123602   3.438   4.057  12.372
 7276SOL    HW223603   3.411   4.205  12.353
 7277SOL     OW23604   2.132   8.865   0.546
 7277SOL    HW123605   2.149   8.832   0.635
 7277SOL    HW223606   2.084   8.793   0.504
 7278SOL     OW23607   7.775   3.487  13.702
 7278SOL    HW123608   7.853   3.521  13.658
 7278SOL    HW223609   7.798   3.484  13.795
 7279SOL     OW23610  13.427   8.541  13.347
 7279SOL    HW123611  13.467   8.612  13.396
 7279SOL    HW223612  13.379   8.491  13.414
 7280SOL     OW23613   1.573  13.326   1.319
 7280SOL    HW123614   1.635  13.371   1.261
 7280SOL    HW223615   1.604  13.344   1.407
 7281SOL     OW23616  13.298   2.752   4.097
 7281SOL    HW123617  13.330   2.722   4.012
 7281SOL    HW223618  13.376   2.783   4.143
 7282SOL     OW23619   3.183   3.279  13.507
 7282SOL    HW123620   3.134   3.306  13.585
 7282SOL    HW223621   3.272   3.262  13.540
 7283SOL     OW23622   9.803   0.536   3.796
 7283SOL    HW123623   9.887   0.492   3.805
 7283SOL    HW223624   9.820   0.626   3.826
 7284SOL     OW23625   1.653   7.281   3.279
 7284SOL    HW123626   1.680   7.363   3.319
 7284SOL    HW223627   1.677   7.290   3.187
 7285SOL     OW23628   9.867   9.510   0.759
 7285SOL    HW123629   9.813   9.534   0.835
 7285SOL    HW223630   9.816   9.442   0.714
 7286SOL     OW23631   2.891   5.495   0.453
 7286SOL    HW123632   2.880   5.583   0.417
 7286SOL    HW223633   2.805   5.474   0.490
 7287SOL     OW23634  11.434   7.236  11.428
 7287SOL    HW123635  11.355   7.209  11.381
 7287SOL    HW223636  11.417   7.213  11.519
 7288SOL     OW23637   3.445   1.076   9.179
 7288SOL    HW123638   3.402   1.065   9.264
 7288SOL    HW223639   3.534   1.103   9.200
 7289SOL     OW23640   5.533   3.473  10.920
 7289SOL    HW123641   5.549   3.400  10.861
 7289SOL    HW223642   5.619   3.494  10.956
 7290SOL     OW23643   0.197   4.425   6.341
 7290SOL    HW123644   0.233   4.428   6.429
 7290SOL    HW223645   0.103   4.413   6.353
 7291SOL     OW23646   3.448   3.873   0.681
 7291SOL    HW123647   3.384   3.905   0.745
 7291SOL    HW223648   3.465   3.949   0.625
 7292SOL     OW23649   9.225   4.573   8.665
 7292SOL    HW123650   9.182   4.648   8.705
 7292SOL    HW223651   9.261   4.607   8.583
 7293SOL     OW23652   3.654   2.942   3.239
 7293SOL    HW123653   3.649   3.004   3.166
 7293SOL    HW223654   3.689   2.993   3.312
 7294SOL     OW23655   1.574   3.443  11.700
 7294SOL    HW123656   1.527   3.404  11.626
 7294SOL    HW223657   1.630   3.510  11.660
 7295SOL     OW23658   0.013  11.125   9.425
 7295SOL    HW123659  14.834  11.186   9.471
 7295SOL    HW223660  14.874  11.040   9.466
 7296SOL     OW23661   9.819  11.975  14.761
 7296SOL    HW123662   9.841  11.957  14.852
 7296SOL    HW223663   9.758  12.049  14.765
 7297SOL     OW23664   4.762   6.462   7.115
 7297SOL    HW123665   4.829   6.513   7.160
 7297SOL    HW223666   4.711   6.422   7.186
 7298SOL     OW23667   3.009   5.033  12.292
 7298SOL    HW123668   2.953   5.021  12.215
 7298SOL    HW223669   3.071   4.961  12.288
 7299SOL     OW23670   5.653   5.046   9.117
 7299SOL    HW123671   5.741   5.071   9.146
 7299SOL    HW223672   5.599   5.123   9.136
 7300SOL     OW23673   6.547   2.950   1.459
 7300SOL    HW123674   6.594   3.016   1.407
 7300SOL    HW223675   6.464   2.939   1.413
 7301SOL     OW23676   7.842   3.980  14.366
 7301SOL    HW123677   7.892   3.988  14.285
 7301SOL    HW223678   7.773   4.046  14.359
 7302SOL     OW23679   2.103  13.424  12.268
 7302SOL    HW123680   2.060  13.376  12.197
 7302SOL    HW223681   2.174  13.473  12.225
 7303SOL     OW23682   9.054   4.431  11.248
 7303SOL    HW123683   9.080   4.459  11.336
 7303SOL    HW223684   8.975   4.482  11.230
 7304SOL     OW23685   5.456   2.715  14.601
 7304SOL    HW123686   5.371   2.757  14.608
 7304SOL    HW223687   5.436   2.624  14.577
 7305SOL     OW23688  11.176   5.092  13.483
 7305SOL    HW123689  11.106   5.027  13.486
 7305SOL    HW223690  11.218   5.078  13.398
 7306SOL     OW23691   5.457   6.217   5.308
 7306SOL    HW123692   5.533   6.231   5.364
 7306SOL    HW223693   5.483   6.250   5.222
 7307SOL     OW23694   4.197  12.453   5.078
 7307SOL    HW123695   4.125  12.392   5.096
 7307SOL    HW223696   4.227  12.430   4.990
 7308SOL     OW23697  13.474   1.683   6.628
 7308SOL    HW123698  13.384   1.652   6.622
 7308SOL    HW223699  13.479   1.755   6.565
 7309SOL     OW23700   2.802  14.486  14.688
 7309SOL    HW123701   2.882  14.470  14.737
 7309SOL    HW223702   2.806  14.578  14.664
 7310SOL     OW23703  13.745   2.486   7.260
 7310SOL    HW123704  13.736   2.505   7.167
 7310SOL    HW223705  13.838   2.501   7.279
 7311SOL     OW23706   9.305   6.625   2.163
 7311SOL    HW123707   9.374   6.559   2.151
 7311SOL    HW223708   9.225   6.582   2.133
 7312SOL     OW23709   4.341  11.171   7.426
 7312SOL    HW123710   4.273  11.229   7.460
 7312SOL    HW223711   4.391  11.225   7.365
 7313SOL     OW23712   1.353   4.742  11.193
 7313SOL    HW123713   1.307   4.721  11.111
 7313SOL    HW223714   1.312   4.823  11.223
 7314SOL     OW23715  13.936   5.623   0.362
 7314SOL    HW123716  13.933   5.550   0.300
 7314SOL    HW223717  14.029   5.648   0.365
 7315SOL     OW23718   6.906  11.778   0.237
 7315SOL    HW123719   6.904  11.853   0.296
 7315SOL    HW223720   6.946  11.812   0.157
 7316SOL     OW23721   9.513  12.072   2.114
 7316SOL    HW123722   9.459  12.092   2.038
 7316SOL    HW223723   9.529  12.158   2.155
 7317SOL     OW23724   2.617   4.973   3.776
 7317SOL    HW123725   2.577   4.900   3.822
 7317SOL    HW223726   2.571   5.050   3.809
 7318SOL     OW23727   5.644   9.659   0.313
 7318SOL    HW123728   5.708   9.697   0.253
 7318SOL    HW223729   5.673   9.568   0.325
 7319SOL     OW23730   0.700   8.499   1.657
 7319SOL    HW123731   0.733   8.432   1.597
 7319SOL    HW223732   0.735   8.473   1.742
 7320SOL     OW23733   3.652   1.716  12.249
 7320SOL    HW123734   3.720   1.724  12.182
 7320SOL    HW223735   3.647   1.622  12.267
 7321SOL     OW23736  10.846   3.767   4.883
 7321SOL    HW123737  10.774   3.715   4.847
 7321SOL    HW223738  10.853   3.841   4.823
 7322SOL     OW23739   4.906   5.135   5.302
 7322SOL    HW123740   4.871   5.177   5.223
 7322SOL    HW223741   4.977   5.193   5.330
 7323SOL     OW23742   7.787   5.569   4.092
 7323SOL    HW123743   7.758   5.634   4.156
 7323SOL    HW223744   7.709   5.551   4.040
 7324SOL     OW23745   2.162  12.664  10.009
 7324SOL    HW123746   2.255  12.660   9.985
 7324SOL    HW223747   2.135  12.572  10.013
 7325SOL     OW23748  13.727   1.595   6.610
 7325SOL    HW123749  13.632   1.596   6.626
 7325SOL    HW223750  13.753   1.687   6.618
 7326SOL     OW23751   9.642   4.307   2.400
 7326SOL    HW123752   9.582   4.377   2.426
 7326SOL    HW223753   9.611   4.231   2.448
 7327SOL     OW23754   1.164   9.460   8.777
 7327SOL    HW123755   1.259   9.447   8.776
 7327SOL    HW223756   1.136   9.425   8.861
 7328SOL     OW23757   7.014   5.227   1.637
 7328SOL    HW123758   7.101   5.191   1.659
 7328SOL    HW223759   7.017   5.317   1.670
 7329SOL     OW23760   5.073  12.744   2.349
 7329SOL    HW123761   5.073  12.815   2.285
 7329SOL    HW223762   5.081  12.788   2.433
 7330SOL     OW23763   0.824  12.975   4.541
 7330SOL    HW123764   0.886  13.029   4.492
 7330SOL    HW223765   0.786  12.917   4.475
 7331SOL     OW23766   8.849   6.991  11.275
 7331SOL    HW123767   8.782   6.922  11.283
 7331SOL    HW223768   8.899   6.985  11.356
 7332SOL     OW23769   5.973   5.349   3.540
 7332SOL    HW123770   6.000   5.271   3.587
 7332SOL    HW223771   5.972   5.418   3.606
 7333SOL     OW23772   5.022   8.714   6.864
 7333SOL    HW123773   4.994   8.806   6.868
 7333SOL    HW223774   5.106   8.718   6.818
 7334SOL     OW23775  11.454  12.923   2.748
 7334SOL    HW123776  11.448  12.833   2.718
 7334SOL    HW223777  11.363  12.955   2.747
 7335SOL     OW23778  13.357  11.460   7.947
 7335SOL    HW123779  13.411  11.393   7.988
 7335SOL    HW223780  13.267  11.436   7.971
 7336SOL     OW23781   3.517   0.586   2.706
 7336SOL    HW123782   3.492   0.517   2.645
 7336SOL    HW223783   3.528   0.664   2.652
 7337SOL     OW23784   3.713  12.808   6.678
 7337SOL    HW123785   3.696  12.891   6.721
 7337SOL    HW223786   3.768  12.759   6.739
 7338SOL     OW23787   2.129   8.559  10.501
 7338SOL    HW123788   2.163   8.470  10.490
 7338SOL    HW223789   2.185   8.613  10.445
 7339SOL     OW23790   8.528   8.898  11.642
 7339SOL    HW123791   8.600   8.961  11.642
 7339SOL    HW223792   8.460   8.940  11.694
 7340SOL     OW23793   3.081   7.521  12.842
 7340SOL    HW123794   3.032   7.459  12.789
 7340SOL    HW223795   3.155   7.471  12.876
 7341SOL     OW23796   7.815   1.080  11.666
 7341SOL    HW123797   7.892   1.083  11.609
 7341SOL    HW223798   7.753   1.142  11.626
 7342SOL     OW23799  14.561   0.961   8.032
 7342SOL    HW123800  14.495   0.966   7.963
 7342SOL    HW223801  14.579   1.053   8.054
 7343SOL     OW23802   9.404   8.348  11.797
 7343SOL    HW123803   9.482   8.297  11.776
 7343SOL    HW223804   9.380   8.390  11.714
 7344SOL     OW23805   8.727  13.726  10.249
 7344SOL    HW123806   8.819  13.700  10.248
 7344SOL    HW223807   8.689  13.677  10.321
 7345SOL     OW23808  13.122   8.225   4.625
 7345SOL    HW123809  13.124   8.321   4.631
 7345SOL    HW223810  13.038   8.201   4.662
 7346SOL     OW23811  12.129  14.143   4.656
 7346SOL    HW123812  12.157  14.163   4.567
 7346SOL    HW223813  12.209  14.146   4.709
 7347SOL     OW23814   9.832  14.432  13.558
 7347SOL    HW123815   9.900  14.372  13.588
 7347SOL    HW223816   9.850  14.514  13.604
 7348SOL     OW23817   9.636   9.973   6.745
 7348SOL    HW123818   9.666   9.888   6.778
 7348SOL    HW223819   9.590  10.012   6.819
 7349SOL     OW23820   1.283   0.365   1.416
 7349SOL    HW123821   1.332   0.440   1.381
 7349SOL    HW223822   1.259   0.392   1.505
 7350SOL     OW23823  13.981   8.204  14.350
 7350SOL    HW123824  14.000   8.293  14.319
 7350SOL    HW223825  13.940   8.161  14.275
 7351SOL     OW23826   1.153   3.141   7.047
 7351SOL    HW123827   1.105   3.104   6.973
 7351SOL    HW223828   1.224   3.078   7.063
 7352SOL     OW23829  10.986  12.571  10.152
 7352SOL    HW123830  10.960  12.601  10.065
 7352SOL    HW223831  11.010  12.650  10.199
 7353SOL     OW23832   8.229  12.180   8.867
 7353SOL    HW123833   8.256  12.096   8.904
 7353SOL    HW223834   8.168  12.156   8.796
 7354SOL     OW23835   6.896  14.815   7.846
 7354SOL    HW123836   6.889  14.855   7.760
 7354SOL    HW223837   6.807  14.817   7.881
 7355SOL     OW23838   0.537   0.735  10.786
 7355SOL    HW123839   0.596   0.713  10.714
 7355SOL    HW223840   0.451   0.706  10.756
 7356SOL     OW23841   4.825   3.021  10.753
 7356SOL    HW123842   4.876   3.059  10.681
 7356SOL    HW223843   4.759   3.088  10.773
 7357SOL     OW23844   9.509   2.226   8.085
 7357SOL    HW123845   9.436   2.287   8.083
 7357SOL    HW223846   9.494   2.173   8.164
 7358SOL     OW23847   0.987   5.681  13.705
 7358SOL    HW123848   0.922   5.659  13.771
 7358SOL    HW223849   1.070   5.653  13.743
 7359SOL     OW23850   1.841   9.368   6.356
 7359SOL    HW123851   1.846   9.308   6.281
 7359SOL    HW223852   1.772   9.331   6.411
 7360SOL     OW23853  11.867   5.623   3.951
 7360SOL    HW123854  11.778   5.611   3.918
 7360SOL    HW223855  11.882   5.717   3.945
 7361SOL     OW23856   4.232   8.192   0.115
 7361SOL    HW123857   4.216   8.122   0.178
 7361SOL    HW223858   4.242   8.147   0.031
 7362SOL     OW23859   3.804  13.373   9.784
 7362SOL    HW123860   3.757  13.364   9.867
 7362SOL    HW223861   3.882  13.424   9.805
 7363SOL     OW23862  12.037   9.444  10.305
 7363SOL    HW123863  12.090   9.401  10.371
 7363SOL    HW223864  11.956   9.392  10.302
 7364SOL     OW23865   1.966   0.922   3.117
 7364SOL    HW123866   2.013   0.956   3.193
 7364SOL    HW223867   1.943   0.832   3.142
 7365SOL     OW23868   6.093   8.844   9.194
 7365SOL    HW123869   6.095   8.790   9.273
 7365SOL    HW223870   6.176   8.826   9.151
 7366SOL     OW23871   8.214   4.770  10.384
 7366SOL    HW123872   8.131   4.780  10.430
 7366SOL    HW223873   8.192   4.718  10.306
 7367SOL     OW23874   1.053   4.867   7.728
 7367SOL    HW123875   1.102   4.836   7.652
 7367SOL    HW223876   1.106   4.839   7.803
 7368SOL     OW23877   7.460  10.200  10.161
 7368SOL    HW123878   7.450  10.117  10.114
 7368SOL    HW223879   7.406  10.188  10.240
 7369SOL     OW23880   3.741  11.501  10.050
 7369SOL    HW123881   3.810  11.454  10.097
 7369SOL    HW223882   3.788  11.560   9.990
 7370SOL     OW23883   4.546   0.856   4.689
 7370SOL    HW123884   4.513   0.840   4.600
 7370SOL    HW223885   4.631   0.897   4.677
 7371SOL     OW23886  11.697  10.458  12.182
 7371SOL    HW123887  11.763  10.524  12.203
 7371SOL    HW223888  11.615  10.496  12.210
 7372SOL     OW23889   5.039   1.871   5.512
 7372SOL    HW123890   4.952   1.898   5.484
 7372SOL    HW223891   5.075   1.948   5.556
 7373SOL     OW23892   4.063   2.069  13.552
 7373SOL    HW123893   3.990   2.009  13.539
 7373SOL    HW223894   4.141   2.015  13.533
 7374SOL     OW23895   0.128  10.941   1.089
 7374SOL    HW123896   0.113  10.980   1.175
 7374SOL    HW223897   0.092  10.853   1.096
 7375SOL     OW23898   7.485   3.467   3.283
 7375SOL    HW123899   7.469   3.373   3.274
 7375SOL    HW223900   7.580   3.476   3.281
 7376SOL     OW23901  12.842   7.788  12.533
 7376SOL    HW123902  12.924   7.836  12.547
 7376SOL    HW223903  12.829   7.790  12.438
 7377SOL     OW23904   6.722  13.987   0.584
 7377SOL    HW123905   6.672  13.976   0.503
 7377SOL    HW223906   6.663  14.036   0.642
 7378SOL     OW23907  11.683   2.998   6.963
 7378SOL    HW123908  11.723   2.918   6.997
 7378SOL    HW223909  11.656   3.046   7.041
 7379SOL     OW23910  13.325  10.655   7.442
 7379SOL    HW123911  13.346  10.748   7.442
 7379SOL    HW223912  13.381  10.617   7.374
 7380SOL     OW23913   6.284   5.259   5.102
 7380SOL    HW123914   6.197   5.221   5.115
 7380SOL    HW223915   6.270   5.354   5.105
 7381SOL     OW23916   3.230   0.485   7.020
 7381SOL    HW123917   3.284   0.486   6.942
 7381SOL    HW223918   3.280   0.433   7.084
 7382SOL     OW23919   2.833   2.632   0.873
 7382SOL    HW123920   2.796   2.561   0.926
 7382SOL    HW223921   2.803   2.712   0.915
 7383SOL     OW23922   8.069   8.147  11.981
 7383SOL    HW123923   7.988   8.095  11.980
 7383SOL    HW223924   8.046   8.225  12.031
 7384SOL     OW23925   6.568   5.937   0.919
 7384SOL    HW123926   6.602   5.883   0.848
 7384SOL    HW223927   6.560   6.024   0.881
 7385SOL     OW23928   2.202   8.973  12.635
 7385SOL    HW123929   2.273   9.023  12.676
 7385SOL    HW223930   2.125   8.992  12.689
 7386SOL     OW23931  10.215   8.382   0.661
 7386SOL    HW123932  10.155   8.423   0.723
 7386SOL    HW223933  10.165   8.311   0.622
 7387SOL     OW23934   3.712   4.614   5.599
 7387SOL    HW123935   3.780   4.593   5.535
 7387SOL    HW223936   3.722   4.708   5.613
 7388SOL     OW23937  10.469   3.041  11.408
 7388SOL    HW123938  10.486   3.032  11.502
 7388SOL    HW223939  10.457   2.951  11.378
 7389SOL     OW23940   5.105  10.420  12.410
 7389SOL    HW123941   5.156  10.501  12.414
 7389SOL    HW223942   5.046  10.426  12.485
 7390SOL     OW23943   2.667   4.487  12.597
 7390SOL    HW123944   2.672   4.435  12.517
 7390SOL    HW223945   2.574   4.486  12.620
 7391SOL     OW23946  12.556  12.822  10.797
 7391SOL    HW123947  12.635  12.787  10.838
 7391SOL    HW223948  12.575  12.916  10.786
 7392SOL     OW23949  12.579  13.512   2.624
 7392SOL    HW123950  12.577  13.521   2.528
 7392SOL    HW223951  12.522  13.581   2.655
 7393SOL     OW23952  12.745   8.652  12.824
 7393SOL    HW123953  12.684   8.669  12.895
 7393SOL    HW223954  12.824   8.701  12.847
 7394SOL     OW23955  12.388  11.947   8.049
 7394SOL    HW123956  12.368  11.970   8.140
 7394SOL    HW223957  12.482  11.963   8.041
 7395SOL     OW23958  13.187   5.842   8.901
 7395SOL    HW123959  13.279   5.840   8.874
 7395SOL    HW223960  13.154   5.755   8.877
 7396SOL     OW23961  12.774   6.892   1.335
 7396SOL    HW123962  12.707   6.921   1.398
 7396SOL    HW223963  12.759   6.948   1.259
 7397SOL     OW23964   0.967   1.733   9.991
 7397SOL    HW123965   0.994   1.794  10.060
 7397SOL    HW223966   0.987   1.646  10.026
 7398SOL     OW23967   5.394   9.460   5.890
 7398SOL    HW123968   5.454   9.528   5.920
 7398SOL    HW223969   5.450   9.383   5.878
 7399SOL     OW23970   2.444  11.507  10.359
 7399SOL    HW123971   2.370  11.448  10.349
 7399SOL    HW223972   2.405  11.594  10.365
 7400SOL     OW23973  10.652   2.132   1.303
 7400SOL    HW123974  10.739   2.163   1.278
 7400SOL    HW223975  10.636   2.171   1.388
 7401SOL     OW23976   8.165  13.082   9.495
 7401SOL    HW123977   8.213  13.020   9.440
 7401SOL    HW223978   8.121  13.140   9.433
 7402SOL     OW23979   8.929   0.598  11.451
 7402SOL    HW123980   9.015   0.581  11.488
 7402SOL    HW223981   8.947   0.638  11.366
 7403SOL     OW23982   8.399   7.389  13.105
 7403SOL    HW123983   8.478   7.349  13.070
 7403SOL    HW223984   8.430   7.460  13.161
 7404SOL     OW23985   8.760   3.992   3.430
 7404SOL    HW123986   8.822   4.062   3.449
 7404SOL    HW223987   8.675   4.036   3.423
 7405SOL     OW23988   4.039  13.233   7.564
 7405SOL    HW123989   4.055  13.317   7.521
 7405SOL    HW223990   4.110  13.226   7.629
 7406SOL     OW23991   2.330   0.137   6.806
 7406SOL    HW123992   2.260   0.136   6.871
 7406SOL    HW223993   2.331   0.227   6.774
 7407SOL     OW23994   1.818   9.390   8.814
 7407SOL    HW123995   1.885   9.426   8.872
 7407SOL    HW223996   1.779   9.318   8.864
 7408SOL     OW23997   4.850   4.941   2.189
 7408SOL    HW123998   4.866   4.859   2.236
 7408SOL    HW223999   4.933   4.960   2.145
 7409SOL     OW24000  12.127   1.591  14.799
 7409SOL    HW124001  12.066   1.594  14.725
 7409SOL    HW224002  12.115   1.503  14.836
 7410SOL     OW24003   9.023   1.499  14.576
 7410SOL    HW124004   9.078   1.472  14.502
 7410SOL    HW224005   9.073   1.568  14.619
 7411SOL     OW24006  10.632   5.514   6.060
 7411SOL    HW124007  10.604   5.590   6.010
 7411SOL    HW224008  10.550   5.477   6.094
 7412SOL     OW24009   6.328   3.999  13.318
 7412SOL    HW124010   6.417   3.974  13.342
 7412SOL    HW224011   6.273   3.931  13.357
 7413SOL     OW24012  14.425   2.724  13.919
 7413SOL    HW124013  14.516   2.695  13.912
 7413SOL    HW224014  14.373   2.644  13.911
 7414SOL     OW24015   9.655  10.643  10.888
 7414SOL    HW124016   9.588  10.575  10.897
 7414SOL    HW224017   9.705  10.616  10.811
 7415SOL     OW24018   3.777  13.673   0.445
 7415SOL    HW124019   3.787  13.758   0.488
 7415SOL    HW224020   3.735  13.693   0.361
 7416SOL     OW24021   5.551   3.162   3.875
 7416SOL    HW124022   5.586   3.093   3.932
 7416SOL    HW224023   5.624   3.223   3.863
 7417SOL     OW24024  12.362   0.323  11.794
 7417SOL    HW124025  12.355   0.245  11.848
 7417SOL    HW224026  12.283   0.373  11.813
 7418SOL     OW24027  12.182   9.419   2.215
 7418SOL    HW124028  12.221   9.359   2.152
 7418SOL    HW224029  12.253   9.477   2.241
 7419SOL     OW24030  11.054   8.564   6.190
 7419SOL    HW124031  11.054   8.659   6.174
 7419SOL    HW224032  11.058   8.525   6.103
 7420SOL     OW24033  10.521   8.448  12.030
 7420SOL    HW124034  10.515   8.371  11.973
 7420SOL    HW224035  10.469   8.425  12.107
 7421SOL     OW24036  12.332  13.786   8.296
 7421SOL    HW124037  12.316  13.780   8.202
 7421SOL    HW224038  12.420  13.749   8.307
 7422SOL     OW24039  10.212   6.464   4.162
 7422SOL    HW124040  10.267   6.525   4.211
 7422SOL    HW224041  10.254   6.379   4.174
 7423SOL     OW24042   6.889   8.515   7.439
 7423SOL    HW124043   6.924   8.600   7.412
 7423SOL    HW224044   6.956   8.452   7.413
 7424SOL     OW24045   1.305  11.789   1.939
 7424SOL    HW124046   1.272  11.718   1.995
 7424SOL    HW224047   1.343  11.851   2.001
 7425SOL     OW24048   1.902   2.751  10.773
 7425SOL    HW124049   1.969   2.722  10.834
 7425SOL    HW224050   1.927   2.713  10.689
 7426SOL     OW24051   1.704   7.273   8.265
 7426SOL    HW124052   1.740   7.290   8.352
 7426SOL    HW224053   1.762   7.321   8.206
 7427SOL     OW24054   3.054   7.223   6.541
 7427SOL    HW124055   3.033   7.314   6.562
 7427SOL    HW224056   2.976   7.174   6.567
 7428SOL     OW24057   0.174  12.517   3.061
 7428SOL    HW124058   0.241  12.495   3.127
 7428SOL    HW224059   0.108  12.566   3.110
 7429SOL     OW24060  10.480   6.527   3.719
 7429SOL    HW124061  10.574   6.509   3.716
 7429SOL    HW224062  10.463   6.554   3.809
 7430SOL     OW24063   3.842   3.992  14.791
 7430SOL    HW124064   3.792   3.913  14.813
 7430SOL    HW224065   3.818   4.054  14.860
 7431SOL     OW24066   9.581  12.490   0.923
 7431SOL    HW124067   9.621  12.478   1.009
 7431SOL    HW224068   9.654  12.507   0.864
 7432SOL     OW24069  14.510   5.751  14.144
 7432SOL    HW124070  14.471   5.679  14.194
 7432SOL    HW224071  14.571   5.709  14.084
 7433SOL     OW24072   9.479   7.620  14.454
 7433SOL    HW124073   9.465   7.553  14.521
 7433SOL    HW224074   9.570   7.647  14.465
 7434SOL     OW24075   2.915  10.088  13.933
 7434SOL    HW124076   2.958  10.028  13.994
 7434SOL    HW224077   2.927  10.175  13.972
 7435SOL     OW24078   8.645  12.771   1.204
 7435SOL    HW124079   8.658  12.791   1.297
 7435SOL    HW224080   8.672  12.850   1.158
 7436SOL     OW24081   5.472   1.638  12.273
 7436SOL    HW124082   5.501   1.553  12.239
 7436SOL    HW224083   5.405   1.666  12.210
 7437SOL     OW24084   5.716  12.565  11.119
 7437SOL    HW124085   5.719  12.546  11.212
 7437SOL    HW224086   5.664  12.645  11.111
 7438SOL     OW24087   8.306   0.494  14.149
 7438SOL    HW124088   8.268   0.414  14.112
 7438SOL    HW224089   8.293   0.485  14.243
 7439SOL     OW24090  13.879  10.309  13.547
 7439SOL    HW124091  13.863  10.241  13.612
 7439SOL    HW224092  13.884  10.262  13.464
 7440SOL     OW24093   3.549  13.816   0.350
 7440SOL    HW124094   3.512  13.849   0.432
 7440SOL    HW224095   3.507  13.731   0.338
 7441SOL     OW24096   9.411  13.112   8.906
 7441SOL    HW124097   9.422  13.028   8.861
 7441SOL    HW224098   9.373  13.169   8.840
 7442SOL     OW24099   5.655   7.718   3.871
 7442SOL    HW124100   5.568   7.679   3.864
 7442SOL    HW224101   5.714   7.653   3.835
 7443SOL     OW24102   5.810   0.317  13.884
 7443SOL    HW124103   5.885   0.269  13.848
 7443SOL    HW224104   5.772   0.258  13.949
 7444SOL     OW24105   4.304   1.240   2.394
 7444SOL    HW124106   4.350   1.166   2.433
 7444SOL    HW224107   4.215   1.235   2.430
 7445SOL     OW24108  10.825   3.557   2.920
 7445SOL    HW124109  10.799   3.552   3.012
 7445SOL    HW224110  10.798   3.645   2.893
 7446SOL     OW24111   0.547   8.284  13.058
 7446SOL    HW124112   0.614   8.216  13.049
 7446SOL    HW224113   0.516   8.276  13.148
 7447SOL     OW24114   9.221   6.848   4.524
 7447SOL    HW124115   9.191   6.865   4.435
 7447SOL    HW224116   9.308   6.889   4.528
 7448SOL     OW24117   0.913  12.588  10.913
 7448SOL    HW124118   0.869  12.520  10.861
 7448SOL    HW224119   0.876  12.580  11.001
 7449SOL     OW24120   6.521   2.143   7.246
 7449SOL    HW124121   6.535   2.059   7.289
 7449SOL    HW224122   6.428   2.144   7.223
 7450SOL     OW24123  11.319  10.172   0.948
 7450SOL    HW124124  11.348  10.254   0.989
 7450SOL    HW224125  11.298  10.197   0.858
 7451SOL     OW24126  10.579  10.655   3.433
 7451SOL    HW124127  10.502  10.598   3.433
 7451SOL    HW224128  10.621  10.639   3.349
 7452SOL     OW24129   6.054  13.231   2.911
 7452SOL    HW124130   6.125  13.239   2.847
 7452SOL    HW224131   6.062  13.308   2.967
 7453SOL     OW24132   4.677   4.915  14.712
 7453SOL    HW124133   4.641   4.861  14.642
 7453SOL    HW224134   4.772   4.907  14.702
 7454SOL     OW24135   7.786   6.869   9.313
 7454SOL    HW124136   7.706   6.865   9.260
 7454SOL    HW224137   7.823   6.955   9.292
 7455SOL     OW24138   5.534  12.016   6.826
 7455SOL    HW124139   5.439  12.016   6.815
 7455SOL    HW224140   5.564  11.939   6.779
 7456SOL     OW24141  12.981  12.935   5.403
 7456SOL    HW124142  13.065  12.946   5.449
 7456SOL    HW224143  12.977  13.008   5.342
 7457SOL     OW24144  13.374   5.345  12.237
 7457SOL    HW124145  13.326   5.282  12.290
 7457SOL    HW224146  13.466   5.329  12.258
 7458SOL     OW24147   5.764  12.505  11.914
 7458SOL    HW124148   5.690  12.494  11.853
 7458SOL    HW224149   5.829  12.442  11.884
 7459SOL     OW24150   3.081   2.474   3.055
 7459SOL    HW124151   3.067   2.533   3.129
 7459SOL    HW224152   3.169   2.494   3.024
 7460SOL     OW24153  12.647   8.352  11.875
 7460SOL    HW124154  12.557   8.333  11.849
 7460SOL    HW224155  12.689   8.266  11.879
 7461SOL     OW24156  12.993  12.779   8.650
 7461SOL    HW124157  12.918  12.779   8.590
 7461SOL    HW224158  12.991  12.866   8.690
 7462SOL     OW24159   6.666   3.064   2.252
 7462SOL    HW124160   6.686   3.032   2.164
 7462SOL    HW224161   6.572   3.080   2.252
 7463SOL     OW24162  12.071   5.411  11.414
 7463SOL    HW124163  12.104   5.455  11.492
 7463SOL    HW224164  11.985   5.450  11.399
 7464SOL     OW24165   4.751  13.711  13.962
 7464SOL    HW124166   4.806  13.782  13.929
 7464SOL    HW224167   4.754  13.644  13.893
 7465SOL     OW24168  10.613   7.450  13.355
 7465SOL    HW124169  10.601   7.541  13.331
 7465SOL    HW224170  10.524   7.418  13.374
 7466SOL     OW24171   5.367   1.756   4.729
 7466SOL    HW124172   5.384   1.732   4.638
 7466SOL    HW224173   5.273   1.740   4.741
 7467SOL     OW24174   9.602   8.739  12.429
 7467SOL    HW124175   9.697   8.747  12.444
 7467SOL    HW224176   9.574   8.671  12.491
 7468SOL     OW24177   9.791  13.836   5.867
 7468SOL    HW124178   9.858  13.771   5.846
 7468SOL    HW224179   9.713  13.784   5.887
 7469SOL     OW24180  12.718   4.384   1.727
 7469SOL    HW124181  12.696   4.369   1.819
 7469SOL    HW224182  12.633   4.381   1.682
 7470SOL     OW24183   0.498  13.620   1.933
 7470SOL    HW124184   0.590  13.614   1.957
 7470SOL    HW224185   0.459  13.675   2.002
 7471SOL     OW24186   2.892   4.749   1.790
 7471SOL    HW124187   2.939   4.803   1.726
 7471SOL    HW224188   2.961   4.707   1.841
 7472SOL     OW24189  11.527  13.962  14.702
 7472SOL    HW124190  11.597  13.973  14.638
 7472SOL    HW224191  11.492  13.875  14.685
 7473SOL     OW24192   8.738  13.831   4.060
 7473SOL    HW124193   8.735  13.746   4.106
 7473SOL    HW224194   8.656  13.835   4.011
 7474SOL     OW24195  12.303  14.602  10.342
 7474SOL    HW124196  12.212  14.590  10.315
 7474SOL    HW224197  12.314  14.541  10.416
 7475SOL     OW24198  14.091  12.504   3.785
 7475SOL    HW124199  14.024  12.573   3.782
 7475SOL    HW224200  14.117  12.500   3.877
 7476SOL     OW24201  12.855   4.930  13.219
 7476SOL    HW124202  12.854   5.023  13.198
 7476SOL    HW224203  12.784   4.919  13.283
 7477SOL     OW24204   6.360   5.314  11.980
 7477SOL    HW124205   6.343   5.397  11.936
 7477SOL    HW224206   6.454   5.316  11.999
 7478SOL     OW24207   3.274   5.069   1.712
 7478SOL    HW124208   3.255   5.045   1.803
 7478SOL    HW224209   3.297   5.162   1.716
 7479SOL     OW24210   8.671   2.403   7.042
 7479SOL    HW124211   8.650   2.368   7.128
 7479SOL    HW224212   8.618   2.351   6.982
 7480SOL     OW24213   9.186   2.339   2.733
 7480SOL    HW124214   9.133   2.294   2.798
 7480SOL    HW224215   9.248   2.390   2.785
 7481SOL     OW24216  10.705   3.798  14.417
 7481SOL    HW124217  10.734   3.738  14.486
 7481SOL    HW224218  10.630   3.754  14.378
 7482SOL     OW24219   1.275   4.071   3.423
 7482SOL    HW124220   1.327   3.991   3.413
 7482SOL    HW224221   1.264   4.081   3.517
 7483SOL     OW24222   3.198   1.487  10.652
 7483SOL    HW124223   3.215   1.436  10.731
 7483SOL    HW224224   3.209   1.578  10.679
 7484SOL     OW24225  12.167   4.087   7.013
 7484SOL    HW124226  12.254   4.108   7.047
 7484SOL    HW224227  12.170   4.114   6.922
 7485SOL     OW24228  11.974  10.187   5.504
 7485SOL    HW124229  12.038  10.148   5.564
 7485SOL    HW224230  11.893  10.138   5.520
 7486SOL     OW24231   1.057   8.572  11.062
 7486SOL    HW124232   1.019   8.593  11.147
 7486SOL    HW224233   1.062   8.656  11.016
 7487SOL     OW24234  12.539   4.645   6.307
 7487SOL    HW124235  12.585   4.591   6.372
 7487SOL    HW224236  12.449   4.614   6.309
 7488SOL     OW24237   5.537   9.664  10.226
 7488SOL    HW124238   5.517   9.676  10.319
 7488SOL    HW224239   5.624   9.625  10.226
 7489SOL     OW24240   9.859  10.404   8.228
 7489SOL    HW124241   9.837  10.406   8.321
 7489SOL    HW224242   9.909  10.323   8.217
 7490SOL     OW24243   8.232   7.440   5.165
 7490SOL    HW124244   8.308   7.498   5.164
 7490SOL    HW224245   8.214   7.426   5.258
 7491SOL     OW24246   2.759   6.883   7.033
 7491SOL    HW124247   2.743   6.914   7.122
 7491SOL    HW224248   2.672   6.871   6.996
 7492SOL     OW24249   1.745   9.135   5.875
 7492SOL    HW124250   1.754   9.089   5.791
 7492SOL    HW224251   1.812   9.204   5.871
 7493SOL     OW24252   2.951   6.263   0.558
 7493SOL    HW124253   3.015   6.197   0.584
 7493SOL    HW224254   2.905   6.223   0.484
 7494SOL     OW24255   3.876   6.583   3.308
 7494SOL    HW124256   3.882   6.636   3.229
 7494SOL    HW224257   3.907   6.640   3.378
 7495SOL     OW24258  10.237   4.918   5.005
 7495SOL    HW124259  10.154   4.889   4.967
 7495SOL    HW224260  10.228   5.013   5.011
 7496SOL     OW24261   4.457   0.641   3.449
 7496SOL    HW124262   4.391   0.635   3.518
 7496SOL    HW224263   4.529   0.586   3.479
 7497SOL     OW24264   6.901  11.113   2.883
 7497SOL    HW124265   6.891  11.164   2.803
 7497SOL    HW224266   6.881  11.023   2.857
 7498SOL     OW24267   5.768   5.583  14.844
 7498SOL    HW124268   5.731   5.630  14.769
 7498SOL    HW224269   5.805   5.651   0.022
 7499SOL     OW24270   6.374   6.738   8.942
 7499SOL    HW124271   6.426   6.737   8.861
 7499SOL    HW224272   6.318   6.815   8.932
 7500SOL     OW24273  11.799   6.817  10.568
 7500SOL    HW124274  11.723   6.770  10.534
 7500SOL    HW224275  11.856   6.747  10.601
 7501SOL     OW24276   0.414  13.868   2.554
 7501SOL    HW124277   0.493  13.863   2.499
 7501SOL    HW224278   0.351  13.917   2.501
 7502SOL     OW24279  12.245   3.492  12.495
 7502SOL    HW124280  12.252   3.416  12.553
 7502SOL    HW224281  12.324   3.487  12.440
 7503SOL     OW24282   3.727   6.616  10.461
 7503SOL    HW124283   3.640   6.583  10.439
 7503SOL    HW224284   3.710   6.693  10.516
 7504SOL     OW24285   2.039   3.647   9.277
 7504SOL    HW124286   2.134   3.644   9.273
 7504SOL    HW224287   2.012   3.664   9.187
 7505SOL     OW24288   0.012   2.822   0.560
 7505SOL    HW124289   0.002   2.817   0.465
 7505SOL    HW224290   0.066   2.899   0.575
 7506SOL     OW24291   4.863   8.565  14.161
 7506SOL    HW124292   4.931   8.515  14.206
 7506SOL    HW224293   4.781   8.522  14.184
 7507SOL     OW24294   2.851   3.631   5.594
 7507SOL    HW124295   2.843   3.623   5.689
 7507SOL    HW224296   2.913   3.561   5.570
 7508SOL     OW24297   1.158   7.960  10.846
 7508SOL    HW124298   1.156   7.956  10.750
 7508SOL    HW224299   1.082   8.012  10.870
 7509SOL     OW24300   0.702   9.642   9.307
 7509SOL    HW124301   0.660   9.720   9.344
 7509SOL    HW224302   0.795   9.653   9.327
 7510SOL     OW24303  12.050   1.899  14.263
 7510SOL    HW124304  12.041   1.994  14.272
 7510SOL    HW224305  12.126   1.877  14.317
 7511SOL     OW24306   9.173   3.354  13.374
 7511SOL    HW124307   9.147   3.445  13.364
 7511SOL    HW224308   9.104   3.304  13.331
 7512SOL     OW24309   0.528   6.751   2.621
 7512SOL    HW124310   0.545   6.658   2.640
 7512SOL    HW224311   0.432   6.759   2.627
 7513SOL     OW24312  10.303  13.429   0.929
 7513SOL    HW124313  10.259  13.513   0.915
 7513SOL    HW224314  10.393  13.453   0.949
 7514SOL     OW24315   2.640   7.209   7.887
 7514SOL    HW124316   2.560   7.215   7.938
 7514SOL    HW224317   2.661   7.299   7.863
 7515SOL     OW24318  11.603   5.275  11.386
 7515SOL    HW124319  11.656   5.355  11.392
 7515SOL    HW224320  11.596   5.258  11.293
 7516SOL     OW24321   5.748   0.298   7.810
 7516SOL    HW124322   5.789   0.215   7.786
 7516SOL    HW224323   5.729   0.340   7.726
 7517SOL     OW24324   5.893   7.736   2.439
 7517SOL    HW124325   5.972   7.684   2.427
 7517SOL    HW224326   5.841   7.686   2.502
 7518SOL     OW24327  11.327  14.866   9.009
 7518SOL    HW124328  11.352  14.832   9.095
 7518SOL    HW224329  11.246   0.038   9.026
 7519SOL     OW24330   7.212   9.570   7.131
 7519SOL    HW124331   7.293   9.594   7.177
 7519SOL    HW224332   7.217   9.474   7.124
 7520SOL     OW24333   9.760   0.936   9.934
 7520SOL    HW124334   9.799   0.938  10.021
 7520SOL    HW224335   9.720   1.023   9.924
 7521SOL     OW24336  13.414  12.661  10.610
 7521SOL    HW124337  13.425  12.657  10.705
 7521SOL    HW224338  13.337  12.717  10.598
 7522SOL     OW24339   0.256  14.351   7.775
 7522SOL    HW124340   0.325  14.304   7.729
 7522SOL    HW224341   0.252  14.310   7.861
 7523SOL     OW24342   4.130   6.299  13.346
 7523SOL    HW124343   4.187   6.267  13.276
 7523SOL    HW224344   4.057   6.238  13.347
 7524SOL     OW24345   2.946  10.435  12.619
 7524SOL    HW124346   3.038  10.442  12.646
 7524SOL    HW224347   2.918  10.349  12.648
 7525SOL     OW24348  13.298  10.540   4.261
 7525SOL    HW124349  13.386  10.505   4.274
 7525SOL    HW224350  13.240  10.469   4.287
 7526SOL     OW24351  13.732   9.630   0.057
 7526SOL    HW124352  13.799   9.646   0.124
 7526SOL    HW224353  13.695   9.717   0.039
 7527SOL     OW24354  12.591   3.158   7.673
 7527SOL    HW124355  12.648   3.194   7.742
 7527SOL    HW224356  12.532   3.100   7.719
 7528SOL     OW24357   5.839   6.844   5.782
 7528SOL    HW124358   5.808   6.912   5.722
 7528SOL    HW224359   5.923   6.816   5.745
 7529SOL     OW24360   5.612   8.288   7.554
 7529SOL    HW124361   5.517   8.287   7.566
 7529SOL    HW224362   5.624   8.281   7.460
 7530SOL     OW24363   8.477  10.870   7.043
 7530SOL    HW124364   8.559  10.841   7.083
 7530SOL    HW224365   8.504  10.931   6.974
 7531SOL     OW24366  12.719  11.105   0.287
 7531SOL    HW124367  12.788  11.168   0.309
 7531SOL    HW224368  12.758  11.019   0.307
 7532SOL     OW24369  11.991   0.608   9.546
 7532SOL    HW124370  12.031   0.620   9.460
 7532SOL    HW224371  11.952   0.521   9.543
 7533SOL     OW24372   5.681   0.477   3.800
 7533SOL    HW124373   5.751   0.472   3.736
 7533SOL    HW224374   5.614   0.417   3.769
 7534SOL     OW24375   7.871   9.681   9.542
 7534SOL    HW124376   7.938   9.613   9.555
 7534SOL    HW224377   7.884   9.741   9.615
 7535SOL     OW24378   1.006   2.321   4.018
 7535SOL    HW124379   0.920   2.331   4.058
 7535SOL    HW224380   1.064   2.375   4.072
 7536SOL     OW24381   5.102   8.984   9.335
 7536SOL    HW124382   5.075   9.071   9.363
 7536SOL    HW224383   5.022   8.932   9.338
 7537SOL     OW24384   7.606   5.542   3.505
 7537SOL    HW124385   7.563   5.480   3.446
 7537SOL    HW224386   7.548   5.618   3.507
 7538SOL     OW24387   9.659   0.500   6.611
 7538SOL    HW124388   9.564   0.507   6.613
 7538SOL    HW224389   9.676   0.421   6.560
 7539SOL     OW24390   9.100  11.692   2.854
 7539SOL    HW124391   9.008  11.666   2.851
 7539SOL    HW224392   9.104  11.775   2.806
 7540SOL     OW24393   3.304   9.654   5.251
 7540SOL    HW124394   3.318   9.563   5.278
 7540SOL    HW224395   3.226   9.682   5.298
 7541SOL     OW24396   3.117  13.822   0.731
 7541SOL    HW124397   3.113  13.826   0.635
 7541SOL    HW224398   3.186  13.885   0.754
 7542SOL     OW24399   7.910   3.740   1.905
 7542SOL    HW124400   7.898   3.751   1.999
 7542SOL    HW224401   7.886   3.649   1.888
 7543SOL     OW24402   2.941  12.019   1.012
 7543SOL    HW124403   2.904  11.961   1.078
 7543SOL    HW224404   3.013  12.063   1.057
 7544SOL     OW24405  10.430   4.345   9.111
 7544SOL    HW124406  10.383   4.315   9.189
 7544SOL    HW224407  10.361   4.374   9.051
 7545SOL     OW24408   9.148   3.581  12.795
 7545SOL    HW124409   9.105   3.663  12.770
 7545SOL    HW224410   9.103   3.514  12.744
 7546SOL     OW24411   8.430   3.159   1.433
 7546SOL    HW124412   8.476   3.236   1.465
 7546SOL    HW224413   8.457   3.088   1.492
 7547SOL     OW24414   8.101   7.195   7.140
 7547SOL    HW124415   8.117   7.126   7.076
 7547SOL    HW224416   8.175   7.191   7.200
 7548SOL     OW24417   3.966  13.289   6.451
 7548SOL    HW124418   3.909  13.361   6.476
 7548SOL    HW224419   3.931  13.213   6.498
 7549SOL     OW24420   7.303  12.751   1.774
 7549SOL    HW124421   7.326  12.658   1.784
 7549SOL    HW224422   7.362  12.783   1.705
 7550SOL     OW24423  14.147   7.337   9.643
 7550SOL    HW124424  14.212   7.353   9.711
 7550SOL    HW224425  14.106   7.254   9.668
 7551SOL     OW24426   5.953  10.201   8.224
 7551SOL    HW124427   5.940  10.254   8.145
 7551SOL    HW224428   5.934  10.261   8.296
 7552SOL     OW24429   1.225   3.743   4.936
 7552SOL    HW124430   1.264   3.665   4.977
 7552SOL    HW224431   1.300   3.799   4.918
 7553SOL     OW24432   6.475   2.524   2.183
 7553SOL    HW124433   6.400   2.578   2.208
 7553SOL    HW224434   6.439   2.459   2.123
 7554SOL     OW24435   1.705   1.476   5.316
 7554SOL    HW124436   1.678   1.472   5.408
 7554SOL    HW224437   1.732   1.567   5.303
 7555SOL     OW24438   3.807   0.055   7.929
 7555SOL    HW124439   3.731   0.007   7.896
 7555SOL    HW224440   3.819   0.023   8.018
 7556SOL     OW24441   1.419   3.896   2.075
 7556SOL    HW124442   1.358   3.922   2.006
 7556SOL    HW224443   1.477   3.833   2.033
 7557SOL     OW24444  11.942   5.758  10.532
 7557SOL    HW124445  12.019   5.719  10.573
 7557SOL    HW224446  11.949   5.731  10.440
 7558SOL     OW24447   6.948   0.950  11.400
 7558SOL    HW124448   6.977   0.953  11.309
 7558SOL    HW224449   6.910   0.862  11.410
 7559SOL     OW24450   2.613  11.332   7.905
 7559SOL    HW124451   2.680  11.267   7.925
 7559SOL    HW224452   2.595  11.375   7.989
 7560SOL     OW24453  11.302   3.464   0.363
 7560SOL    HW124454  11.284   3.371   0.377
 7560SOL    HW224455  11.394   3.475   0.388
 7561SOL     OW24456  14.445   2.422   2.383
 7561SOL    HW124457  14.389   2.497   2.363
 7561SOL    HW224458  14.431   2.361   2.311
 7562SOL     OW24459  14.567   5.497  10.257
 7562SOL    HW124460  14.515   5.444  10.318
 7562SOL    HW224461  14.520   5.492  10.174
 7563SOL     OW24462   9.039   3.591   4.826
 7563SOL    HW124463   8.956   3.572   4.869
 7563SOL    HW224464   9.015   3.641   4.748
 7564SOL     OW24465  12.639  13.405   3.274
 7564SOL    HW124466  12.711  13.464   3.295
 7564SOL    HW224467  12.638  13.400   3.179
 7565SOL     OW24468   1.457   8.131   2.748
 7565SOL    HW124469   1.447   8.225   2.733
 7565SOL    HW224470   1.550   8.114   2.738
 7566SOL     OW24471   5.916   5.437   6.677
 7566SOL    HW124472   5.951   5.525   6.687
 7566SOL    HW224473   5.874   5.418   6.761
 7567SOL     OW24474   8.852   6.025   1.871
 7567SOL    HW124475   8.892   6.026   1.958
 7567SOL    HW224476   8.758   6.012   1.888
 7568SOL     OW24477   2.862   2.591   6.296
 7568SOL    HW124478   2.851   2.613   6.389
 7568SOL    HW224479   2.786   2.537   6.275
 7569SOL     OW24480  11.596   2.456   4.398
 7569SOL    HW124481  11.610   2.551   4.402
 7569SOL    HW224482  11.615   2.433   4.308
 7570SOL     OW24483   6.666   0.187  10.618
 7570SOL    HW124484   6.575   0.169  10.594
 7570SOL    HW224485   6.703   0.233  10.543
 7571SOL     OW24486  13.431   9.640   3.359
 7571SOL    HW124487  13.453   9.552   3.328
 7571SOL    HW224488  13.501   9.696   3.325
 7572SOL     OW24489  10.750  14.195   1.713
 7572SOL    HW124490  10.716  14.175   1.801
 7572SOL    HW224491  10.672  14.215   1.661
 7573SOL     OW24492  14.414  10.665  10.390
 7573SOL    HW124493  14.437  10.575  10.414
 7573SOL    HW224494  14.411  10.711  10.474
 7574SOL     OW24495   9.862  11.140   4.899
 7574SOL    HW124496   9.915  11.112   4.974
 7574SOL    HW224497   9.908  11.104   4.823
 7575SOL     OW24498  11.093   4.712  13.431
 7575SOL    HW124499  11.094   4.725  13.336
 7575SOL    HW224500  11.177   4.746  13.461
 7576SOL     OW24501   3.006   5.450   2.582
 7576SOL    HW124502   3.067   5.399   2.635
 7576SOL    HW224503   3.014   5.539   2.615
 7577SOL     OW24504   7.529  13.827   0.029
 7577SOL    HW124505   7.614  13.865   0.054
 7577SOL    HW224506   7.471  13.902   0.023
 7578SOL     OW24507   1.757   1.562   4.146
 7578SOL    HW124508   1.798   1.537   4.228
 7578SOL    HW224509   1.829   1.594   4.091
 7579SOL     OW24510   5.948  13.932   1.661
 7579SOL    HW124511   5.899  14.011   1.637
 7579SOL    HW224512   5.883  13.877   1.706
 7580SOL     OW24513   3.444   0.149  11.430
 7580SOL    HW124514   3.517   0.093  11.456
 7580SOL    HW224515   3.392   0.095  11.370
 7581SOL     OW24516   0.748  10.504  11.122
 7581SOL    HW124517   0.685  10.491  11.192
 7581SOL    HW224518   0.752  10.599  11.111
 7582SOL     OW24519  13.882  14.083   1.754
 7582SOL    HW124520  13.877  14.064   1.661
 7582SOL    HW224521  13.976  14.085   1.774
 7583SOL     OW24522   5.685  11.599   5.151
 7583SOL    HW124523   5.778  11.604   5.128
 7583SOL    HW224524   5.667  11.683   5.195
 7584SOL     OW24525   2.197  11.994   7.828
 7584SOL    HW124526   2.136  11.944   7.775
 7584SOL    HW224527   2.225  11.934   7.897
 7585SOL     OW24528  14.110   5.155   4.728
 7585SOL    HW124529  14.102   5.131   4.820
 7585SOL    HW224530  14.082   5.076   4.680
 7586SOL     OW24531   0.073   3.039   9.171
 7586SOL    HW124532   0.126   3.070   9.244
 7586SOL    HW224533   0.053   2.948   9.191
 7587SOL     OW24534   0.051   0.800  13.878
 7587SOL    HW124535   0.011   0.713  13.877
 7587SOL    HW224536   0.128   0.790  13.934
 7588SOL     OW24537   4.545   5.887   6.890
 7588SOL    HW124538   4.568   5.839   6.810
 7588SOL    HW224539   4.487   5.827   6.938
 7589SOL     OW24540   5.359   1.201   8.117
 7589SOL    HW124541   5.341   1.124   8.063
 7589SOL    HW224542   5.449   1.190   8.146
 7590SOL     OW24543  11.948  14.152   2.296
 7590SOL    HW124544  11.855  14.129   2.296
 7590SOL    HW224545  11.953  14.238   2.255
 7591SOL     OW24546   4.671   2.386  11.886
 7591SOL    HW124547   4.733   2.395  11.959
 7591SOL    HW224548   4.723   2.346  11.816
 7592SOL     OW24549   2.864   0.668   3.404
 7592SOL    HW124550   2.898   0.578   3.411
 7592SOL    HW224551   2.942   0.722   3.395
 7593SOL     OW24552   5.138  14.856  10.816
 7593SOL    HW124553   5.079  14.878  10.744
 7593SOL    HW224554   5.090   0.003  10.895
 7594SOL     OW24555   8.679   3.629   7.748
 7594SOL    HW124556   8.662   3.609   7.840
 7594SOL    HW224557   8.608   3.584   7.701
 7595SOL     OW24558   4.309   0.273   0.575
 7595SOL    HW124559   4.360   0.323   0.638
 7595SOL    HW224560   4.361   0.194   0.560
 7596SOL     OW24561   3.543   2.383  11.657
 7596SOL    HW124562   3.478   2.402  11.725
 7596SOL    HW224563   3.495   2.395  11.575
 7597SOL     OW24564  12.383  10.225   9.056
 7597SOL    HW124565  12.387  10.186   8.968
 7597SOL    HW224566  12.295  10.260   9.062
 7598SOL     OW24567   6.655   8.490  10.856
 7598SOL    HW124568   6.568   8.468  10.822
 7598SOL    HW224569   6.699   8.532  10.782
 7599SOL     OW24570  10.411   1.205   6.194
 7599SOL    HW124571  10.364   1.153   6.129
 7599SOL    HW224572  10.369   1.184   6.277
 7600SOL     OW24573  11.957  11.981  13.162
 7600SOL    HW124574  11.946  12.015  13.251
 7600SOL    HW224575  11.952  11.886  13.172
 7601SOL     OW24576   7.242   3.613  13.726
 7601SOL    HW124577   7.331   3.642  13.747
 7601SOL    HW224578   7.253   3.525  13.692
 7602SOL     OW24579   9.827   1.520   7.659
 7602SOL    HW124580   9.747   1.511   7.608
 7602SOL    HW224581   9.898   1.515   7.594
 7603SOL     OW24582   3.748  13.121   8.107
 7603SOL    HW124583   3.810  13.063   8.152
 7603SOL    HW224584   3.712  13.177   8.176
 7604SOL     OW24585  12.644   2.631   5.967
 7604SOL    HW124586  12.626   2.718   6.003
 7604SOL    HW224587  12.738   2.630   5.951
 7605SOL     OW24588   6.948   1.754   2.551
 7605SOL    HW124589   6.955   1.740   2.645
 7605SOL    HW224590   7.019   1.814   2.530
 7606SOL     OW24591  11.886   5.073   6.939
 7606SOL    HW124592  11.979   5.063   6.960
 7606SOL    HW224593  11.885   5.106   6.849
 7607SOL     OW24594  11.223   2.953   5.712
 7607SOL    HW124595  11.261   2.961   5.624
 7607SOL    HW224596  11.128   2.959   5.696
 7608SOL     OW24597   5.656   7.108  11.826
 7608SOL    HW124598   5.605   7.188  11.840
 7608SOL    HW224599   5.637   7.054  11.902
 7609SOL     OW24600  11.073  14.865   8.759
 7609SOL    HW124601  11.059  14.817   8.677
 7609SOL    HW224602  11.070  14.797   8.827
 7610SOL     OW24603   0.797   1.398   7.216
 7610SOL    HW124604   0.817   1.408   7.309
 7610SOL    HW224605   0.881   1.406   7.171
 7611SOL     OW24606   7.428   7.473   1.814
 7611SOL    HW124607   7.449   7.380   1.826
 7611SOL    HW224608   7.409   7.505   1.902
 7612SOL     OW24609   0.121   8.427   4.594
 7612SOL    HW124610   0.201   8.465   4.559
 7612SOL    HW224611   0.056   8.497   4.586
 7613SOL     OW24612   2.025   7.671  13.558
 7613SOL    HW124613   2.010   7.599  13.620
 7613SOL    HW224614   1.951   7.667  13.498
 7614SOL     OW24615  11.250  12.665  11.100
 7614SOL    HW124616  11.193  12.686  11.174
 7614SOL    HW224617  11.310  12.740  11.094
 7615SOL     OW24618   9.886  10.957   2.966
 7615SOL    HW124619   9.894  10.862   2.963
 7615SOL    HW224620   9.793  10.973   2.985
 7616SOL     OW24621   5.391   4.843   7.767
 7616SOL    HW124622   5.363   4.769   7.820
 7616SOL    HW224623   5.485   4.830   7.756
 7617SOL     OW24624  10.350   5.131   9.554
 7617SOL    HW124625  10.291   5.181   9.497
 7617SOL    HW224626  10.297   5.057   9.584
 7618SOL     OW24627   0.801  10.240  12.034
 7618SOL    HW124628   0.831  10.198  12.114
 7618SOL    HW224629   0.824  10.333  12.045
 7619SOL     OW24630  11.306   8.733  13.933
 7619SOL    HW124631  11.375   8.720  13.999
 7619SOL    HW224632  11.298   8.648  13.890
 7620SOL     OW24633   0.207  10.234   8.206
 7620SOL    HW124634   0.268  10.284   8.260
 7620SOL    HW224635   0.192  10.153   8.254
 7621SOL     OW24636   5.523  13.937  12.446
 7621SOL    HW124637   5.578  14.003  12.488
 7621SOL    HW224638   5.434  13.971  12.455
 7622SOL     OW24639   4.091  11.779  13.641
 7622SOL    HW124640   4.118  11.693  13.671
 7622SOL    HW224641   4.171  11.830  13.638
 7623SOL     OW24642  13.360   5.169   3.353
 7623SOL    HW124643  13.415   5.093   3.333
 7623SOL    HW224644  13.279   5.154   3.304
 7624SOL     OW24645   7.776   3.532   9.611
 7624SOL    HW124646   7.770   3.439   9.591
 7624SOL    HW224647   7.795   3.535   9.705
 7625SOL     OW24648   0.047   5.741   3.263
 7625SOL    HW124649   0.066   5.746   3.169
 7625SOL    HW224650  14.831   5.726   3.267
 7626SOL     OW24651  13.410   9.985   2.815
 7626SOL    HW124652  13.457  10.068   2.821
 7626SOL    HW224653  13.347   9.989   2.888
 7627SOL     OW24654  10.167   8.443  11.946
 7627SOL    HW124655  10.205   8.419  11.861
 7627SOL    HW224656  10.093   8.500  11.925
 7628SOL     OW24657  11.974   9.794   0.725
 7628SOL    HW124658  11.919   9.731   0.771
 7628SOL    HW224659  11.976   9.762   0.634
 7629SOL     OW24660   4.006  13.598   9.467
 7629SOL    HW124661   3.949  13.589   9.544
 7629SOL    HW224662   3.961  13.549   9.398
 7630SOL     OW24663  11.741   6.139   9.141
 7630SOL    HW124664  11.697   6.064   9.182
 7630SOL    HW224665  11.763   6.109   9.053
 7631SOL     OW24666   2.132   7.426  14.746
 7631SOL    HW124667   2.184   7.373  14.685
 7631SOL    HW224668   2.169   7.408  14.832
 7632SOL     OW24669   6.947   9.736  12.596
 7632SOL    HW124670   6.987   9.741  12.683
 7632SOL    HW224671   6.929   9.643  12.583
 7633SOL     OW24672   7.873  11.600   6.926
 7633SOL    HW124673   7.860  11.512   6.889
 7633SOL    HW224674   7.954  11.631   6.886
 7634SOL     OW24675   1.750  10.050   3.165
 7634SOL    HW124676   1.676  10.059   3.224
 7634SOL    HW224677   1.822  10.094   3.210
 7635SOL     OW24678   3.243   8.854   4.406
 7635SOL    HW124679   3.263   8.835   4.498
 7635SOL    HW224680   3.187   8.932   4.409
 7636SOL     OW24681   3.134   2.332   9.641
 7636SOL    HW124682   3.087   2.249   9.640
 7636SOL    HW224683   3.199   2.323   9.572
 7637SOL     OW24684   7.303   6.407  10.002
 7637SOL    HW124685   7.371   6.358  10.048
 7637SOL    HW224686   7.320   6.499  10.023
 7638SOL     OW24687   4.198   3.767   8.101
 7638SOL    HW124688   4.129   3.807   8.048
 7638SOL    HW224689   4.250   3.841   8.132
 7639SOL     OW24690  10.160  12.634  12.201
 7639SOL    HW124691  10.101  12.701  12.167
 7639SOL    HW224692  10.117  12.601  12.279
 7640SOL     OW24693   5.004   3.365   3.151
 7640SOL    HW124694   5.051   3.326   3.224
 7640SOL    HW224695   4.983   3.292   3.093
 7641SOL     OW24696   9.069  11.311  14.602
 7641SOL    HW124697   9.159  11.280  14.591
 7641SOL    HW224698   9.074  11.371  14.677
 7642SOL     OW24699  10.054   2.207  13.112
 7642SOL    HW124700  10.054   2.214  13.016
 7642SOL    HW224701   9.971   2.165  13.133
 7643SOL     OW24702   7.715  12.899   5.116
 7643SOL    HW124703   7.785  12.889   5.179
 7643SOL    HW224704   7.696  12.810   5.086
 7644SOL     OW24705   8.268   2.733   6.702
 7644SOL    HW124706   8.195   2.745   6.642
 7644SOL    HW224707   8.341   2.780   6.661
 7645SOL     OW24708  11.101   7.210   5.865
 7645SOL    HW124709  11.192   7.206   5.836
 7645SOL    HW224710  11.068   7.293   5.830
 7646SOL     OW24711  14.653   6.853  12.201
 7646SOL    HW124712  14.584   6.890  12.257
 7646SOL    HW224713  14.626   6.762  12.187
 7647SOL     OW24714   4.545  13.854  11.996
 7647SOL    HW124715   4.506  13.779  11.951
 7647SOL    HW224716   4.605  13.816  12.060
 7648SOL     OW24717   5.865  14.544  14.644
 7648SOL    HW124718   5.897  14.454  14.633
 7648SOL    HW224719   5.806  14.540  14.719
 7649SOL     OW24720   1.623   5.131   9.184
 7649SOL    HW124721   1.702   5.107   9.136
 7649SOL    HW224722   1.633   5.090   9.270
 7650SOL     OW24723   5.642   3.750   8.996
 7650SOL    HW124724   5.559   3.711   8.969
 7650SOL    HW224725   5.674   3.693   9.066
 7651SOL     OW24726   9.497   3.186   7.085
 7651SOL    HW124727   9.519   3.259   7.028
 7651SOL    HW224728   9.575   3.131   7.085
 7652SOL     OW24729   3.828  11.201   4.130
 7652SOL    HW124730   3.867  11.128   4.178
 7652SOL    HW224731   3.743  11.215   4.173
 7653SOL     OW24732  14.079   8.136   6.256
 7653SOL    HW124733  13.992   8.096   6.265
 7653SOL    HW224734  14.123   8.082   6.191
 7654SOL     OW24735  11.765   0.787  12.636
 7654SOL    HW124736  11.815   0.713  12.671
 7654SOL    HW224737  11.725   0.753  12.556
 7655SOL     OW24738  10.481  14.871   2.648
 7655SOL    HW124739  10.564  14.861   2.695
 7655SOL    HW224740  10.502   0.047   2.572
 7656SOL     OW24741  10.772   5.114  10.763
 7656SOL    HW124742  10.827   5.153  10.695
 7656SOL    HW224743  10.700   5.176  10.774
 7657SOL     OW24744   2.894   5.779  11.111
 7657SOL    HW124745   2.986   5.767  11.134
 7657SOL    HW224746   2.894   5.851  11.048
 7658SOL     OW24747  10.289  10.242  14.729
 7658SOL    HW124748  10.301  10.192  14.810
 7658SOL    HW224749  10.361  10.305  14.729
 7659SOL     OW24750   8.974   2.253   9.041
 7659SOL    HW124751   8.917   2.310   8.990
 7659SOL    HW224752   8.915   2.194   9.088
 7660SOL     OW24753   9.846   9.362  13.669
 7660SOL    HW124754   9.939   9.354  13.689
 7660SOL    HW224755   9.842   9.356  13.573
 7661SOL     OW24756   5.289   8.882   5.409
 7661SOL    HW124757   5.215   8.925   5.453
 7661SOL    HW224758   5.359   8.882   5.475
 7662SOL     OW24759   6.767  10.324   0.555
 7662SOL    HW124760   6.808  10.242   0.581
 7662SOL    HW224761   6.793  10.386   0.624
 7663SOL     OW24762   0.266   6.474   2.395
 7663SOL    HW124763   0.186   6.527   2.396
 7663SOL    HW224764   0.294   6.472   2.486
 7664SOL     OW24765   4.714   2.971  11.624
 7664SOL    HW124766   4.633   2.929  11.653
 7664SOL    HW224767   4.719   2.952  11.530
 7665SOL     OW24768  11.225   6.008   3.606
 7665SOL    HW124769  11.271   6.003   3.523
 7665SOL    HW224770  11.248   5.927   3.651
 7666SOL     OW24771   6.099  13.874   8.348
 7666SOL    HW124772   6.022  13.853   8.400
 7666SOL    HW224773   6.091  13.968   8.331
 7667SOL     OW24774  13.191  10.432  12.325
 7667SOL    HW124775  13.123  10.467  12.383
 7667SOL    HW224776  13.204  10.342  12.355
 7668SOL     OW24777   7.606   3.743   6.537
 7668SOL    HW124778   7.558   3.807   6.486
 7668SOL    HW224779   7.663   3.795   6.594
 7669SOL     OW24780   8.936  13.715   8.333
 7669SOL    HW124781   9.021  13.758   8.348
 7669SOL    HW224782   8.909  13.684   8.419
 7670SOL     OW24783   2.689   0.419   5.663
 7670SOL    HW124784   2.623   0.477   5.626
 7670SOL    HW224785   2.721   0.466   5.741
 7671SOL     OW24786   3.279  13.022  12.331
 7671SOL    HW124787   3.219  13.085  12.292
 7671SOL    HW224788   3.272  12.944  12.275
 7672SOL     OW24789  10.081   9.228   5.931
 7672SOL    HW124790  10.026   9.254   6.006
 7672SOL    HW224791  10.031   9.160   5.887
 7673SOL     OW24792   4.325  13.594   4.755
 7673SOL    HW124793   4.253  13.639   4.800
 7673SOL    HW224794   4.282  13.540   4.689
 7674SOL     OW24795   3.826   9.902   1.991
 7674SOL    HW124796   3.885   9.827   2.001
 7674SOL    HW224797   3.854   9.964   2.058
 7675SOL     OW24798   7.126   4.191   5.778
 7675SOL    HW124799   7.072   4.262   5.812
 7675SOL    HW224800   7.123   4.124   5.846
 7676SOL     OW24801  12.598   5.596  14.629
 7676SOL    HW124802  12.646   5.672  14.661
 7676SOL    HW224803  12.552   5.562  14.707
 7677SOL     OW24804   6.453   9.259  11.356
 7677SOL    HW124805   6.456   9.316  11.433
 7677SOL    HW224806   6.361   9.261  11.328
 7678SOL     OW24807   1.440   6.049   3.217
 7678SOL    HW124808   1.433   6.048   3.121
 7678SOL    HW224809   1.435   6.142   3.240
 7679SOL     OW24810   7.893  10.823   9.815
 7679SOL    HW124811   7.842  10.880   9.873
 7679SOL    HW224812   7.832  10.753   9.792
 7680SOL     OW24813   2.824   2.425   7.654
 7680SOL    HW124814   2.883   2.375   7.597
 7680SOL    HW224815   2.838   2.387   7.741
 7681SOL     OW24816   2.801   9.733   8.233
 7681SOL    HW124817   2.828   9.824   8.230
 7681SOL    HW224818   2.880   9.685   8.260
 7682SOL     OW24819  14.270   7.738  13.257
 7682SOL    HW124820  14.266   7.834  13.247
 7682SOL    HW224821  14.178   7.711  13.261
 7683SOL     OW24822   1.757   2.656   4.390
 7683SOL    HW124823   1.783   2.603   4.466
 7683SOL    HW224824   1.819   2.631   4.321
 7684SOL     OW24825   5.498   8.335  12.232
 7684SOL    HW124826   5.547   8.266  12.188
 7684SOL    HW224827   5.423   8.290  12.271
 7685SOL     OW24828  13.914   0.466   2.422
 7685SOL    HW124829  13.825   0.489   2.449
 7685SOL    HW224830  13.905   0.378   2.383
 7686SOL     OW24831  13.203  10.150  12.907
 7686SOL    HW124832  13.160  10.155  12.992
 7686SOL    HW224833  13.235  10.239  12.891
 7687SOL     OW24834   8.429  11.459   0.760
 7687SOL    HW124835   8.499  11.524   0.771
 7687SOL    HW224836   8.409  11.460   0.667
 7688SOL     OW24837  11.954   8.329   5.139
 7688SOL    HW124838  11.973   8.359   5.228
 7688SOL    HW224839  12.007   8.250   5.129
 7689SOL     OW24840   3.069   9.735  11.160
 7689SOL    HW124841   3.152   9.782  11.172
 7689SOL    HW224842   3.082   9.684  11.079
 7690SOL     OW24843   1.981   2.757   3.071
 7690SOL    HW124844   2.046   2.739   3.139
 7690SOL    HW224845   2.000   2.846   3.042
 7691SOL     OW24846   3.807   4.501  11.246
 7691SOL    HW124847   3.741   4.559  11.208
 7691SOL    HW224848   3.890   4.530  11.208
 7692SOL     OW24849   4.241  10.456   8.384
 7692SOL    HW124850   4.334  10.439   8.375
 7692SOL    HW224851   4.211  10.473   8.294
 7693SOL     OW24852  14.486  13.738  11.692
 7693SOL    HW124853  14.393  13.758  11.702
 7693SOL    HW224854  14.528  13.777  11.768
 7694SOL     OW24855  13.772   1.984   8.939
 7694SOL    HW124856  13.698   1.962   8.995
 7694SOL    HW224857  13.732   2.018   8.859
 7695SOL     OW24858   0.074  11.392   0.847
 7695SOL    HW124859   0.061  11.315   0.793
 7695SOL    HW224860   0.166  11.389   0.873
 7696SOL     OW24861   7.313  13.354  13.501
 7696SOL    HW124862   7.331  13.269  13.461
 7696SOL    HW224863   7.333  13.342  13.594
 7697SOL     OW24864   5.195   7.261   8.885
 7697SOL    HW124865   5.200   7.189   8.948
 7697SOL    HW224866   5.286   7.286   8.870
 7698SOL     OW24867   5.950   0.837   0.845
 7698SOL    HW124868   5.880   0.834   0.910
 7698SOL    HW224869   5.906   0.861   0.763
 7699SOL     OW24870   4.000  14.441   6.990
 7699SOL    HW124871   4.025  14.492   6.914
 7699SOL    HW224872   4.077  14.387   7.009
 7700SOL     OW24873   1.147   0.198  13.452
 7700SOL    HW124874   1.064   0.245  13.444
 7700SOL    HW224875   1.151   0.172  13.544
 7701SOL     OW24876  13.423   8.099   9.546
 7701SOL    HW124877  13.453   8.089   9.637
 7701SOL    HW224878  13.503   8.102   9.495
 7702SOL     OW24879  13.405  14.083   8.755
 7702SOL    HW124880  13.430  14.056   8.844
 7702SOL    HW224881  13.479  14.134   8.724
 7703SOL     OW24882  11.501   0.442   2.725
 7703SOL    HW124883  11.488   0.479   2.812
 7703SOL    HW224884  11.440   0.367   2.721
 7704SOL     OW24885  13.480  14.790  14.282
 7704SOL    HW124886  13.521  14.838  14.355
 7704SOL    HW224887  13.434  14.857  14.232
 7705SOL     OW24888   2.664  13.039   5.674
 7705SOL    HW124889   2.628  12.958   5.711
 7705SOL    HW224890   2.730  13.067   5.738
 7706SOL     OW24891  13.680   0.969  12.812
 7706SOL    HW124892  13.630   0.987  12.892
 7706SOL    HW224893  13.614   0.939  12.750
 7707SOL     OW24894   6.340  14.498   3.394
 7707SOL    HW124895   6.406  14.565   3.376
 7707SOL    HW224896   6.355  14.475   3.486
 7708SOL     OW24897  12.587   2.266   8.603
 7708SOL    HW124898  12.555   2.177   8.619
 7708SOL    HW224899  12.527   2.322   8.652
 7709SOL     OW24900  14.120   8.790   0.806
 7709SOL    HW124901  14.164   8.751   0.881
 7709SOL    HW224902  14.177   8.861   0.779
 7710SOL     OW24903  13.516   8.661  12.793
 7710SOL    HW124904  13.447   8.596  12.791
 7710SOL    HW224905  13.558   8.649  12.878
 7711SOL     OW24906   1.768   8.462   1.385
 7711SOL    HW124907   1.687   8.474   1.334
 7711SOL    HW224908   1.797   8.374   1.363
 7712SOL     OW24909   3.463   0.634   9.179
 7712SOL    HW124910   3.374   0.669   9.182
 7712SOL    HW224911   3.508   0.677   9.252
 7713SOL     OW24912  14.445   4.522   4.213
 7713SOL    HW124913  14.361   4.480   4.232
 7713SOL    HW224914  14.424   4.615   4.202
 7714SOL     OW24915   0.398  11.835   1.585
 7714SOL    HW124916   0.392  11.930   1.598
 7714SOL    HW224917   0.314  11.801   1.617
 7715SOL     OW24918  13.879  12.245   1.190
 7715SOL    HW124919  13.826  12.221   1.266
 7715SOL    HW224920  13.865  12.339   1.178
 7716SOL     OW24921   5.401  12.707   3.537
 7716SOL    HW124922   5.324  12.724   3.484
 7716SOL    HW224923   5.466  12.673   3.475
 7717SOL     OW24924  10.598   7.668  12.854
 7717SOL    HW124925  10.614   7.674  12.949
 7717SOL    HW224926  10.597   7.759  12.825
 7718SOL     OW24927   2.177   4.385  11.772
 7718SOL    HW124928   2.122   4.346  11.839
 7718SOL    HW224929   2.134   4.363  11.689
 7719SOL     OW24930  12.997  13.685   0.265
 7719SOL    HW124931  12.941  13.713   0.338
 7719SOL    HW224932  13.085  13.680   0.303
 7720SOL     OW24933   9.816   7.132   6.545
 7720SOL    HW124934   9.873   7.119   6.469
 7720SOL    HW224935   9.763   7.208   6.522
 7721SOL     OW24936   9.415  10.847   6.412
 7721SOL    HW124937   9.386  10.758   6.389
 7721SOL    HW224938   9.415  10.894   6.328
 7722SOL     OW24939   0.117   8.443  10.014
 7722SOL    HW124940   0.105   8.370  10.074
 7722SOL    HW224941   0.207   8.433   9.981
 7723SOL     OW24942   3.180   2.524   3.575
 7723SOL    HW124943   3.244   2.593   3.592
 7723SOL    HW224944   3.207   2.488   3.491
 7724SOL     OW24945   7.836   0.072   1.281
 7724SOL    HW124946   7.837   0.004   1.349
 7724SOL    HW224947   7.799   0.148   1.324
 7725SOL     OW24948   9.189  12.327   7.965
 7725SOL    HW124949   9.194  12.265   8.037
 7725SOL    HW224950   9.264  12.307   7.910
 7726SOL     OW24951   2.701  12.685   0.972
 7726SOL    HW124952   2.739  12.650   0.891
 7726SOL    HW224953   2.775  12.717   1.022
 7727SOL     OW24954   1.640   6.350  13.349
 7727SOL    HW124955   1.619   6.439  13.373
 7727SOL    HW224956   1.600   6.338  13.263
 7728SOL     OW24957  13.216   4.598  14.436
 7728SOL    HW124958  13.171   4.525  14.479
 7728SOL    HW224959  13.212   4.670  14.498
 7729SOL     OW24960   0.465   4.826   8.360
 7729SOL    HW124961   0.390   4.840   8.303
 7729SOL    HW224962   0.439   4.753   8.417
 7730SOL     OW24963  14.559   6.446   8.492
 7730SOL    HW124964  14.580   6.406   8.408
 7730SOL    HW224965  14.567   6.375   8.555
 7731SOL     OW24966  13.946   1.699   1.387
 7731SOL    HW124967  13.999   1.625   1.357
 7731SOL    HW224968  13.913   1.671   1.472
 7732SOL     OW24969   4.519  11.757  13.994
 7732SOL    HW124970   4.612  11.735  14.004
 7732SOL    HW224971   4.507  11.834  14.050
 7733SOL     OW24972   0.431  12.231  13.590
 7733SOL    HW124973   0.462  12.187  13.669
 7733SOL    HW224974   0.509  12.235  13.533
 7734SOL     OW24975  10.909  12.816   2.467
 7734SOL    HW124976  10.845  12.748   2.445
 7734SOL    HW224977  10.993  12.771   2.469
 7735SOL     OW24978   1.880   0.813  12.109
 7735SOL    HW124979   1.787   0.834  12.113
 7735SOL    HW224980   1.923   0.896  12.086
 7736SOL     OW24981   9.471   0.607  11.561
 7736SOL    HW124982   9.513   0.571  11.482
 7736SOL    HW224983   9.539   0.662  11.601
 7737SOL     OW24984   5.908   7.300  12.073
 7737SOL    HW124985   5.850   7.243  12.123
 7737SOL    HW224986   5.853   7.333  12.001
 7738SOL     OW24987   2.151  11.828   8.656
 7738SOL    HW124988   2.195  11.895   8.604
 7738SOL    HW224989   2.220  11.766   8.679
 7739SOL     OW24990  11.499   8.957   1.976
 7739SOL    HW124991  11.459   8.874   1.999
 7739SOL    HW224992  11.583   8.957   2.021
 7740SOL     OW24993  14.096  14.718   1.155
 7740SOL    HW124994  14.151  14.733   1.078
 7740SOL    HW224995  14.021  14.669   1.122
 7741SOL     OW24996  13.016   7.618  11.560
 7741SOL    HW124997  13.033   7.530  11.527
 7741SOL    HW224998  13.047   7.616  11.651
 7742SOL     OW24999   8.908   4.514   7.432
 7742SOL    HW125000   8.919   4.567   7.511
 7742SOL    HW225001   8.861   4.436   7.462
 7743SOL     OW25002  13.277  14.755  14.495
 7743SOL    HW125003  13.316  14.675  14.531
 7743SOL    HW225004  13.352  14.808  14.468
 7744SOL     OW25005   4.969   4.817  10.170
 7744SOL    HW125006   4.914   4.806  10.093
 7744SOL    HW225007   4.939   4.898  10.210
 7745SOL     OW25008   2.385   4.332   6.812
 7745SOL    HW125009   2.430   4.249   6.831
 7745SOL    HW225010   2.456   4.395   6.800
 7746SOL     OW25011   4.618  13.983  11.520
 7746SOL    HW125012   4.677  14.047  11.481
 7746SOL    HW225013   4.592  13.927  11.447
 7747SOL     OW25014   8.709   3.495   7.989
 7747SOL    HW125015   8.658   3.415   8.003
 7747SOL    HW225016   8.767   3.500   8.065
 7748SOL     OW25017  13.574   0.167  12.073
 7748SOL    HW125018  13.506   0.172  12.140
 7748SOL    HW225019  13.579   0.255  12.037
 7749SOL     OW25020  12.086   7.189   9.255
 7749SOL    HW125021  12.040   7.237   9.187
 7749SOL    HW225022  12.079   7.244   9.333
 7750SOL     OW25023  10.323   0.866   0.515
 7750SOL    HW125024  10.346   0.818   0.595
 7750SOL    HW225025  10.267   0.937   0.545
 7751SOL     OW25026  10.575   8.001   7.149
 7751SOL    HW125027  10.541   8.034   7.066
 7751SOL    HW225028  10.622   7.921   7.124
 7752SOL     OW25029   4.412   6.966   8.535
 7752SOL    HW125030   4.480   6.899   8.537
 7752SOL    HW225031   4.337   6.924   8.492
 7753SOL     OW25032  11.660  10.619   5.487
 7753SOL    HW125033  11.617  10.688   5.537
 7753SOL    HW225034  11.690  10.662   5.407
 7754SOL     OW25035   4.295   6.716   7.223
 7754SOL    HW125036   4.338   6.650   7.170
 7754SOL    HW225037   4.202   6.707   7.202
 7755SOL     OW25038   6.701  14.059   1.430
 7755SOL    HW125039   6.640  13.992   1.462
 7755SOL    HW225040   6.660  14.092   1.350
 7756SOL     OW25041   6.180  10.980  14.837
 7756SOL    HW125042   6.170  10.906   0.019
 7756SOL    HW225043   6.211  11.052   0.014
 7757SOL     OW25044  11.494   9.488  12.978
 7757SOL    HW125045  11.535   9.519  13.059
 7757SOL    HW225046  11.422   9.549  12.963
 7758SOL     OW25047   6.160  12.962   8.746
 7758SOL    HW125048   6.108  13.008   8.812
 7758SOL    HW225049   6.142  12.870   8.762
 7759SOL     OW25050   7.527   4.360  13.299
 7759SOL    HW125051   7.603   4.417  13.293
 7759SOL    HW225052   7.543   4.306  13.376
 7760SOL     OW25053  13.268   9.268   6.411
 7760SOL    HW125054  13.356   9.250   6.380
 7760SOL    HW225055  13.281   9.319   6.491
 7761SOL     OW25056  12.459   9.066   2.554
 7761SOL    HW125057  12.543   9.052   2.597
 7761SOL    HW225058  12.394   9.028   2.614
 7762SOL     OW25059   9.825   9.285   9.893
 7762SOL    HW125060   9.918   9.305   9.890
 7762SOL    HW225061   9.817   9.199   9.853
 7763SOL     OW25062  13.773  13.280  13.293
 7763SOL    HW125063  13.858  13.259  13.331
 7763SOL    HW225064  13.738  13.196  13.264
 7764SOL     OW25065   8.319  12.594   2.853
 7764SOL    HW125066   8.317  12.685   2.883
 7764SOL    HW225067   8.277  12.595   2.767
 7765SOL     OW25068   8.613   4.856   0.605
 7765SOL    HW125069   8.695   4.845   0.653
 7765SOL    HW225070   8.611   4.949   0.582
 7766SOL     OW25071   1.506   3.835  14.568
 7766SOL    HW125072   1.471   3.880  14.645
 7766SOL    HW225073   1.564   3.768  14.604
 7767SOL     OW25074   3.680  10.351   4.272
 7767SOL    HW125075   3.735  10.282   4.309
 7767SOL    HW225076   3.731  10.385   4.198
 7768SOL     OW25077   4.484  10.166   6.563
 7768SOL    HW125078   4.520  10.078   6.565
 7768SOL    HW225079   4.550  10.218   6.515
 7769SOL     OW25080   5.445  12.535   5.066
 7769SOL    HW125081   5.391  12.561   5.140
 7769SOL    HW225082   5.446  12.612   5.009
 7770SOL     OW25083  10.210  10.408   0.156
 7770SOL    HW125084  10.289  10.434   0.202
 7770SOL    HW225085  10.138  10.439   0.211
 7771SOL     OW25086  13.445   0.124   3.479
 7771SOL    HW125087  13.370   0.183   3.485
 7771SOL    HW225088  13.437   0.083   3.394
 7772SOL     OW25089   0.987   6.743   6.236
 7772SOL    HW125090   0.937   6.785   6.165
 7772SOL    HW225091   1.079   6.762   6.216
 7773SOL     OW25092   5.808   7.759   5.528
 7773SOL    HW125093   5.726   7.710   5.517
 7773SOL    HW225094   5.859   7.737   5.450
 7774SOL     OW25095   8.531   2.831   8.984
 7774SOL    HW125096   8.604   2.809   9.043
 7774SOL    HW225097   8.569   2.892   8.921
 7775SOL     OW25098  13.971  10.774   1.102
 7775SOL    HW125099  14.058  10.770   1.141
 7775SOL    HW225100  13.913  10.800   1.173
 7776SOL     OW25101   7.926   8.888   2.363
 7776SOL    HW125102   7.849   8.861   2.313
 7776SOL    HW225103   7.980   8.936   2.300
 7777SOL     OW25104  13.182   2.226  10.804
 7777SOL    HW125105  13.268   2.186  10.789
 7777SOL    HW225106  13.184   2.254  10.895
 7778SOL     OW25107   4.655  11.710   7.411
 7778SOL    HW125108   4.751  11.707   7.414
 7778SOL    HW225109   4.634  11.801   7.393
 7779SOL     OW25110  13.616   0.987   3.268
 7779SOL    HW125111  13.571   0.940   3.338
 7779SOL    HW225112  13.581   1.076   3.273
 7780SOL     OW25113  10.259  14.715   1.106
 7780SOL    HW125114  10.344  14.735   1.146
 7780SOL    HW225115  10.221  14.800   1.085
 7781SOL     OW25116  10.445  14.134   9.160
 7781SOL    HW125117  10.430  14.074   9.233
 7781SOL    HW225118  10.535  14.116   9.133
 7782SOL     OW25119   8.820  12.937  12.784
 7782SOL    HW125120   8.899  12.992  12.781
 7782SOL    HW225121   8.770  12.964  12.707
 7783SOL     OW25122   8.081  11.068   7.902
 7783SOL    HW125123   8.138  11.144   7.895
 7783SOL    HW225124   8.047  11.055   7.813
 7784SOL     OW25125   5.212  14.281   5.928
 7784SOL    HW125126   5.206  14.302   5.835
 7784SOL    HW225127   5.300  14.243   5.939
 7785SOL     OW25128   1.820   4.507   1.283
 7785SOL    HW125129   1.734   4.540   1.258
 7785SOL    HW225130   1.857   4.576   1.338
 7786SOL     OW25131  11.865   7.831  10.092
 7786SOL    HW125132  11.878   7.789  10.008
 7786SOL    HW225133  11.926   7.787  10.151
 7787SOL     OW25134   6.083  14.081   9.129
 7787SOL    HW125135   6.166  14.039   9.152
 7787SOL    HW225136   6.101  14.174   9.131
 7788SOL     OW25137  12.849   0.242   9.103
 7788SOL    HW125138  12.767   0.288   9.091
 7788SOL    HW225139  12.869   0.251   9.197
 7789SOL     OW25140   3.028   6.389  14.609
 7789SOL    HW125141   3.075   6.397  14.526
 7789SOL    HW225142   3.020   6.295  14.623
 7790SOL     OW25143   6.216  10.012   3.134
 7790SOL    HW125144   6.286  10.011   3.199
 7790SOL    HW225145   6.167   9.932   3.151
 7791SOL     OW25146  11.513  12.719   3.817
 7791SOL    HW125147  11.473  12.755   3.738
 7791SOL    HW225148  11.441  12.677   3.864
 7792SOL     OW25149   9.011   2.218   2.926
 7792SOL    HW125150   8.977   2.232   3.014
 7792SOL    HW225151   8.956   2.149   2.889
 7793SOL     OW25152  14.728  13.884   5.132
 7793SOL    HW125153  14.773  13.832   5.200
 7793SOL    HW225154  14.798  13.934   5.090
 7794SOL     OW25155  11.580   4.085  13.437
 7794SOL    HW125156  11.642   4.093  13.509
 7794SOL    HW225157  11.519   4.158  13.449
 7795SOL     OW25158   3.405   5.725   2.324
 7795SOL    HW125159   3.453   5.800   2.290
 7795SOL    HW225160   3.346   5.762   2.389
 7796SOL     OW25161   2.897   3.820  10.166
 7796SOL    HW125162   2.887   3.747  10.104
 7796SOL    HW225163   2.835   3.801  10.236
 7797SOL     OW25164   6.732   4.674   0.018
 7797SOL    HW125165   6.737   4.612   0.091
 7797SOL    HW225166   6.811   4.727   0.026
 7798SOL     OW25167  12.595   5.530   6.457
 7798SOL    HW125168  12.523   5.468   6.465
 7798SOL    HW225169  12.601   5.572   6.543
 7799SOL     OW25170  14.424   6.381  12.217
 7799SOL    HW125171  14.422   6.393  12.122
 7799SOL    HW225172  14.340   6.414  12.247
 7800SOL     OW25173  10.272   1.615   5.654
 7800SOL    HW125174  10.294   1.700   5.615
 7800SOL    HW225175  10.177   1.607   5.640
 7801SOL     OW25176   0.481  11.231   1.976
 7801SOL    HW125177   0.533  11.254   2.052
 7801SOL    HW225178   0.533  11.261   1.901
 7802SOL     OW25179  10.073   3.413   5.760
 7802SOL    HW125180  10.017   3.350   5.715
 7802SOL    HW225181  10.135   3.359   5.809
 7803SOL     OW25182  10.869  10.826   6.762
 7803SOL    HW125183  10.938  10.827   6.829
 7803SOL    HW225184  10.916  10.813   6.680
 7804SOL     OW25185   6.117   4.230   8.483
 7804SOL    HW125186   6.055   4.269   8.545
 7804SOL    HW225187   6.077   4.147   8.457
 7805SOL     OW25188   6.802   9.226   9.537
 7805SOL    HW125189   6.781   9.306   9.584
 7805SOL    HW225190   6.894   9.236   9.513
 7806SOL     OW25191  14.061  12.010   4.321
 7806SOL    HW125192  14.067  11.968   4.407
 7806SOL    HW225193  14.008  11.949   4.269
 7807SOL     OW25194  10.618  12.067  10.937
 7807SOL    HW125195  10.559  12.021  10.877
 7807SOL    HW225196  10.565  12.086  11.014
 7808SOL     OW25197   7.875  11.351   2.014
 7808SOL    HW125198   7.822  11.324   1.940
 7808SOL    HW225199   7.964  11.324   1.991
 7809SOL     OW25200   9.885   6.070   8.137
 7809SOL    HW125201   9.975   6.038   8.130
 7809SOL    HW225202   9.894   6.165   8.131
 7810SOL     OW25203   2.493   1.980   5.545
 7810SOL    HW125204   2.496   1.931   5.464
 7810SOL    HW225205   2.469   2.069   5.518
 7811SOL     OW25206  12.514   4.755   9.528
 7811SOL    HW125207  12.488   4.837   9.569
 7811SOL    HW225208  12.459   4.689   9.569
 7812SOL     OW25209  11.483  13.157   0.539
 7812SOL    HW125210  11.431  13.202   0.473
 7812SOL    HW225211  11.419  13.126   0.603
 7813SOL     OW25212   2.498   3.727   4.135
 7813SOL    HW125213   2.416   3.679   4.124
 7813SOL    HW225214   2.512   3.771   4.052
 7814SOL     OW25215  10.504  11.249  12.508
 7814SOL    HW125216  10.420  11.249  12.554
 7814SOL    HW225217  10.537  11.159  12.517
 7815SOL     OW25218   7.796   8.613  12.605
 7815SOL    HW125219   7.880   8.656  12.621
 7815SOL    HW225220   7.730   8.680  12.628
 7816SOL     OW25221   7.286   5.658   6.594
 7816SOL    HW125222   7.231   5.725   6.555
 7816SOL    HW225223   7.227   5.584   6.610
 7817SOL     OW25224   7.396   1.035  11.727
 7817SOL    HW125225   7.389   1.126  11.756
 7817SOL    HW225226   7.325   0.990  11.773
 7818SOL     OW25227   8.295   6.291  12.491
 7818SOL    HW125228   8.361   6.276  12.559
 7818SOL    HW225229   8.334   6.252  12.412
 7819SOL     OW25230   2.839   1.097  12.631
 7819SOL    HW125231   2.749   1.064  12.632
 7819SOL    HW225232   2.860   1.109  12.539
 7820SOL     OW25233   9.236   3.440   3.940
 7820SOL    HW125234   9.181   3.367   3.910
 7820SOL    HW225235   9.291   3.402   4.008
 7821SOL     OW25236   4.986  10.289  11.242
 7821SOL    HW125237   5.074  10.251  11.237
 7821SOL    HW225238   4.996  10.366  11.297
 7822SOL     OW25239   9.859   0.716  12.955
 7822SOL    HW125240   9.938   0.665  12.939
 7822SOL    HW225241   9.792   0.650  12.977
 7823SOL     OW25242   1.589   0.581   8.685
 7823SOL    HW125243   1.567   0.500   8.731
 7823SOL    HW225244   1.667   0.613   8.730
 7824SOL     OW25245   9.905   3.000  12.540
 7824SOL    HW125246   9.918   3.092  12.517
 7824SOL    HW225247   9.813   2.996  12.567
 7825SOL     OW25248   7.547  12.412   3.777
 7825SOL    HW125249   7.618  12.476   3.779
 7825SOL    HW225250   7.561  12.362   3.697
 7826SOL     OW25251  10.457   5.439  13.550
 7826SOL    HW125252  10.546   5.454  13.519
 7826SOL    HW225253  10.440   5.347  13.532
 7827SOL     OW25254  13.219   0.109   7.459
 7827SOL    HW125255  13.147   0.057   7.424
 7827SOL    HW225256  13.298   0.060   7.437
 7828SOL     OW25257   9.741   0.559  14.621
 7828SOL    HW125258   9.748   0.466  14.644
 7828SOL    HW225259   9.647   0.575  14.613
 7829SOL     OW25260   8.887   4.531   4.661
 7829SOL    HW125261   8.946   4.566   4.595
 7829SOL    HW225262   8.814   4.494   4.611
 7830SOL     OW25263   2.100   1.442   2.608
 7830SOL    HW125264   2.042   1.443   2.685
 7830SOL    HW225265   2.188   1.436   2.644
 7831SOL     OW25266   6.393  10.898   7.127
 7831SOL    HW125267   6.486  10.898   7.104
 7831SOL    HW225268   6.377  10.811   7.162
 7832SOL     OW25269   8.325  12.535   5.917
 7832SOL    HW125270   8.340  12.607   5.977
 7832SOL    HW225271   8.404  12.532   5.863
 7833SOL     OW25272   4.064   5.879   6.299
 7833SOL    HW125273   3.971   5.861   6.310
 7833SOL    HW225274   4.082   5.856   6.207
 7834SOL     OW25275   1.966   5.577   3.122
 7834SOL    HW125276   1.912   5.527   3.184
 7834SOL    HW225277   2.054   5.540   3.131
 7835SOL     OW25278   3.170  10.519   8.005
 7835SOL    HW125279   3.151  10.427   8.026
 7835SOL    HW225280   3.090  10.566   8.027
 7836SOL     OW25281   6.803  11.722  10.967
 7836SOL    HW125282   6.832  11.752  10.881
 7836SOL    HW225283   6.874  11.664  10.997
 7837SOL     OW25284   5.989   1.690   4.802
 7837SOL    HW125285   6.038   1.621   4.847
 7837SOL    HW225286   5.897   1.665   4.812
 7838SOL     OW25287  14.817   0.150  10.001
 7838SOL    HW125288  14.754   0.170   9.931
 7838SOL    HW225289   0.014   0.206   9.982
 7839SOL     OW25290   9.958   3.106   8.077
 7839SOL    HW125291   9.943   3.013   8.094
 7839SOL    HW225292  10.032   3.108   8.016
 7840SOL     OW25293   6.976   1.438  10.453
 7840SOL    HW125294   6.963   1.481  10.538
 7840SOL    HW225295   7.055   1.385  10.464
 7841SOL     OW25296  13.836   6.485   2.732
 7841SOL    HW125297  13.812   6.537   2.810
 7841SOL    HW225298  13.905   6.536   2.690
 7842SOL     OW25299   8.614   7.974  13.406
 7842SOL    HW125300   8.518   7.975  13.416
 7842SOL    HW225301   8.647   7.953  13.493
 7843SOL     OW25302   3.320  12.151   8.345
 7843SOL    HW125303   3.311  12.242   8.318
 7843SOL    HW225304   3.276  12.100   8.277
 7844SOL     OW25305   4.396  14.186  11.517
 7844SOL    HW125306   4.376  14.214  11.607
 7844SOL    HW225307   4.465  14.120  11.528
 7845SOL     OW25308   0.587  13.166  13.281
 7845SOL    HW125309   0.554  13.179  13.192
 7845SOL    HW225310   0.653  13.097  13.272
 7846SOL     OW25311  12.250   5.179  11.019
 7846SOL    HW125312  12.296   5.144  11.096
 7846SOL    HW225313  12.233   5.102  10.964
 7847SOL     OW25314   1.299  10.783  13.325
 7847SOL    HW125315   1.288  10.822  13.238
 7847SOL    HW225316   1.229  10.821  13.377
 7848SOL     OW25317   5.638   4.600   5.838
 7848SOL    HW125318   5.640   4.562   5.750
 7848SOL    HW225319   5.556   4.649   5.841
 7849SOL     OW25320  12.099   6.576   1.185
 7849SOL    HW125321  12.147   6.554   1.265
 7849SOL    HW225322  12.061   6.493   1.157
 7850SOL     OW25323   0.211  11.080  14.230
 7850SOL    HW125324   0.133  11.134  14.238
 7850SOL    HW225325   0.269  11.129  14.172
 7851SOL     OW25326  14.076   8.817   0.305
 7851SOL    HW125327  14.008   8.836   0.369
 7851SOL    HW225328  14.126   8.899   0.297
 7852SOL     OW25329   5.814  11.099  10.837
 7852SOL    HW125330   5.802  11.192  10.817
 7852SOL    HW225331   5.726  11.062  10.831
 7853SOL     OW25332  11.396   2.606   8.044
 7853SOL    HW125333  11.350   2.685   8.014
 7853SOL    HW225334  11.372   2.597   8.136
 7854SOL     OW25335   5.663   6.056   8.551
 7854SOL    HW125336   5.660   6.084   8.460
 7854SOL    HW225337   5.580   6.085   8.588
 7855SOL     OW25338   9.451   9.637   7.566
 7855SOL    HW125339   9.379   9.582   7.598
 7855SOL    HW225340   9.497   9.581   7.504
 7856SOL     OW25341  10.888   4.299   1.203
 7856SOL    HW125342  10.903   4.218   1.153
 7856SOL    HW225343  10.795   4.297   1.225
 7857SOL     OW25344   3.012   5.868   7.072
 7857SOL    HW125345   3.056   5.814   7.137
 7857SOL    HW225346   3.030   5.958   7.100
 7858SOL     OW25347   0.289  11.441   2.159
 7858SOL    HW125348   0.354  11.455   2.228
 7858SOL    HW225349   0.334  11.388   2.094
 7859SOL     OW25350   2.805   4.199   1.287
 7859SOL    HW125351   2.749   4.276   1.298
 7859SOL    HW225352   2.752   4.138   1.235
 7860SOL     OW25353   5.545   5.615   6.124
 7860SOL    HW125354   5.608   5.543   6.134
 7860SOL    HW225355   5.479   5.581   6.064
 7861SOL     OW25356   6.225   5.932   8.331
 7861SOL    HW125357   6.255   6.019   8.357
 7861SOL    HW225358   6.272   5.913   8.250
 7862SOL     OW25359   5.717  13.983  14.022
 7862SOL    HW125360   5.779  13.937  14.079
 7862SOL    HW225361   5.640  13.997  14.078
 7863SOL     OW25362   8.281   2.421  11.427
 7863SOL    HW125363   8.282   2.375  11.511
 7863SOL    HW225364   8.366   2.463  11.422
 7864SOL     OW25365   7.337  11.552   3.775
 7864SOL    HW125366   7.389  11.569   3.854
 7864SOL    HW225367   7.247  11.546   3.807
 7865SOL     OW25368   7.808  12.419  12.561
 7865SOL    HW125369   7.713  12.408  12.573
 7865SOL    HW225370   7.845  12.394  12.645
 7866SOL     OW25371   0.409   4.203  12.050
 7866SOL    HW125372   0.410   4.258  11.972
 7866SOL    HW225373   0.491   4.154  12.047
 7867SOL     OW25374  11.684   3.807   7.114
 7867SOL    HW125375  11.712   3.838   7.028
 7867SOL    HW225376  11.741   3.732   7.132
 7868SOL     OW25377   9.594  10.231   6.632
 7868SOL    HW125378   9.613  10.138   6.646
 7868SOL    HW225379   9.580  10.238   6.537
 7869SOL     OW25380  10.175   4.884   1.912
 7869SOL    HW125381  10.129   4.811   1.871
 7869SOL    HW225382  10.141   4.887   2.002
 7870SOL     OW25383   9.083   2.827   7.977
 7870SOL    HW125384   9.176   2.812   7.966
 7870SOL    HW225385   9.058   2.772   8.051
 7871SOL     OW25386   1.795  14.133   5.815
 7871SOL    HW125387   1.808  14.228   5.818
 7871SOL    HW225388   1.765  14.111   5.903
 7872SOL     OW25389  11.924   1.308   4.574
 7872SOL    HW125390  11.903   1.275   4.486
 7872SOL    HW225391  11.860   1.378   4.589
 7873SOL     OW25392   7.016   3.713  13.552
 7873SOL    HW125393   7.062   3.677  13.628
 7873SOL    HW225394   7.071   3.786  13.523
 7874SOL     OW25395   4.375  11.253   6.604
 7874SOL    HW125396   4.451  11.310   6.598
 7874SOL    HW225397   4.402  11.183   6.664
 7875SOL     OW25398   2.239   1.249   3.337
 7875SOL    HW125399   2.150   1.259   3.369
 7875SOL    HW225400   2.293   1.244   3.417
 7876SOL     OW25401  13.605   6.628   6.662
 7876SOL    HW125402  13.645   6.701   6.708
 7876SOL    HW225403  13.511   6.635   6.683
 7877SOL     OW25404  12.926   2.759   6.076
 7877SOL    HW125405  12.929   2.759   6.172
 7877SOL    HW225406  12.922   2.852   6.052
 7878SOL     OW25407  10.486  13.300   6.213
 7878SOL    HW125408  10.562  13.337   6.168
 7878SOL    HW225409  10.480  13.210   6.180
 7879SOL     OW25410   6.436   3.825  12.296
 7879SOL    HW125411   6.495   3.898  12.278
 7879SOL    HW225412   6.350   3.866  12.307
 7880SOL     OW25413   2.719  11.719  12.828
 7880SOL    HW125414   2.804  11.696  12.867
 7880SOL    HW225415   2.655  11.686  12.891
 7881SOL     OW25416  14.397  12.818   9.970
 7881SOL    HW125417  14.334  12.749   9.947
 7881SOL    HW225418  14.344  12.885  10.014
 7882SOL     OW25419   7.417  10.423   1.337
 7882SOL    HW125420   7.430  10.375   1.418
 7882SOL    HW225421   7.382  10.359   1.275
 7883SOL     OW25422  11.697   3.551   6.779
 7883SOL    HW125423  11.742   3.469   6.799
 7883SOL    HW225424  11.604   3.527   6.778
 7884SOL     OW25425  10.504   9.232   2.642
 7884SOL    HW125426  10.566   9.242   2.570
 7884SOL    HW225427  10.436   9.298   2.624
 7885SOL     OW25428   8.054  10.494   0.425
 7885SOL    HW125429   7.989  10.473   0.492
 7885SOL    HW225430   8.119  10.424   0.434
 7886SOL     OW25431  10.263  12.334   0.124
 7886SOL    HW125432  10.230  12.318   0.036
 7886SOL    HW225433  10.241  12.426   0.141
 7887SOL     OW25434  11.373   9.715   9.278
 7887SOL    HW125435  11.374   9.756   9.191
 7887SOL    HW225436  11.442   9.649   9.274
 7888SOL     OW25437   6.758   9.917  10.871
 7888SOL    HW125438   6.769  10.004  10.833
 7888SOL    HW225439   6.723   9.864  10.800
 7889SOL     OW25440   0.570  14.506   5.900
 7889SOL    HW125441   0.595  14.580   5.955
 7889SOL    HW225442   0.515  14.451   5.957
 7890SOL     OW25443   1.143  13.813   1.832
 7890SOL    HW125444   1.183  13.744   1.779
 7890SOL    HW225445   1.162  13.894   1.785
 7891SOL     OW25446   4.872   0.142  10.887
 7891SOL    HW125447   4.842   0.053  10.868
 7891SOL    HW225448   4.876   0.185  10.801
 7892SOL     OW25449  12.035   4.136   9.751
 7892SOL    HW125450  12.062   4.144   9.659
 7892SOL    HW225451  12.105   4.085   9.792
 7893SOL     OW25452   0.277   7.386  13.362
 7893SOL    HW125453   0.305   7.328  13.433
 7893SOL    HW225454   0.197   7.344  13.328
 7894SOL     OW25455  12.198   6.093   3.508
 7894SOL    HW125456  12.245   6.163   3.553
 7894SOL    HW225457  12.112   6.130   3.489
 7895SOL     OW25458   0.991   7.504   5.941
 7895SOL    HW125459   1.082   7.525   5.958
 7895SOL    HW225460   0.991   7.412   5.914
 7896SOL     OW25461  13.762  11.399  14.104
 7896SOL    HW125462  13.787  11.469  14.163
 7896SOL    HW225463  13.838  11.388  14.046
 7897SOL     OW25464   9.038   2.221   2.287
 7897SOL    HW125465   9.003   2.172   2.361
 7897SOL    HW225466   9.076   2.299   2.326
 7898SOL     OW25467  13.502   0.415   0.240
 7898SOL    HW125468  13.592   0.386   0.223
 7898SOL    HW225469  13.509   0.509   0.256
 7899SOL     OW25470   8.777   0.604   7.437
 7899SOL    HW125471   8.840   0.657   7.485
 7899SOL    HW225472   8.764   0.650   7.354
 7900SOL     OW25473   3.476   9.899   5.328
 7900SOL    HW125474   3.439   9.968   5.383
 7900SOL    HW225475   3.419   9.896   5.252
 7901SOL     OW25476   2.742   8.123  11.204
 7901SOL    HW125477   2.742   8.028  11.188
 7901SOL    HW225478   2.650   8.148  11.200
 7902SOL     OW25479   1.880   2.224   9.712
 7902SOL    HW125480   1.786   2.207   9.715
 7902SOL    HW225481   1.920   2.151   9.759
 7903SOL     OW25482  14.361   7.978   5.829
 7903SOL    HW125483  14.355   7.943   5.740
 7903SOL    HW225484  14.439   8.035   5.827
 7904SOL     OW25485   3.961   8.128   9.752
 7904SOL    HW125486   3.977   8.036   9.769
 7904SOL    HW225487   3.917   8.160   9.831
 7905SOL     OW25488   8.192   2.296  11.170
 7905SOL    HW125489   8.220   2.354  11.100
 7905SOL    HW225490   8.223   2.338  11.250
 7906SOL     OW25491   3.070  11.885   7.336
 7906SOL    HW125492   3.044  11.880   7.244
 7906SOL    HW225493   2.993  11.856   7.384
 7907SOL     OW25494   1.164   1.288   5.920
 7907SOL    HW125495   1.119   1.357   5.871
 7907SOL    HW225496   1.246   1.329   5.948
 7908SOL     OW25497   5.501   8.705  13.381
 7908SOL    HW125498   5.570   8.655  13.423
 7908SOL    HW225499   5.500   8.789  13.426
 7909SOL     OW25500   1.560   0.810   9.750
 7909SOL    HW125501   1.621   0.836   9.819
 7909SOL    HW225502   1.607   0.827   9.668
 7910SOL     OW25503   1.538   3.482  12.472
 7910SOL    HW125504   1.522   3.435  12.390
 7910SOL    HW225505   1.629   3.464  12.493
 7911SOL     OW25506  13.963   2.920   6.194
 7911SOL    HW125507  13.964   2.994   6.133
 7911SOL    HW225508  13.879   2.878   6.180
 7912SOL     OW25509   1.572   5.050  10.411
 7912SOL    HW125510   1.625   5.073  10.488
 7912SOL    HW225511   1.575   5.129  10.357
 7913SOL     OW25512  12.673   2.650   9.908
 7913SOL    HW125513  12.702   2.692   9.989
 7913SOL    HW225514  12.741   2.586   9.888
 7914SOL     OW25515   3.666   8.892  10.553
 7914SOL    HW125516   3.616   8.833  10.496
 7914SOL    HW225517   3.758   8.872  10.535
 7915SOL     OW25518   1.777  13.145  12.519
 7915SOL    HW125519   1.838  13.212  12.550
 7915SOL    HW225520   1.795  13.139  12.425
 7916SOL     OW25521   8.462  14.060  11.718
 7916SOL    HW125522   8.386  14.045  11.662
 7916SOL    HW225523   8.530  14.004  11.681
 7917SOL     OW25524  11.091  10.887  14.132
 7917SOL    HW125525  11.169  10.941  14.128
 7917SOL    HW225526  11.097  10.830  14.055
 7918SOL     OW25527  10.147   6.041   1.046
 7918SOL    HW125528  10.222   6.055   0.989
 7918SOL    HW225529  10.076   6.092   1.006
 7919SOL     OW25530  13.917  13.874  12.660
 7919SOL    HW125531  14.009  13.849  12.669
 7919SOL    HW225532  13.909  13.957  12.707
 7920SOL     OW25533  14.177   7.773   1.735
 7920SOL    HW125534  14.203   7.864   1.721
 7920SOL    HW225535  14.098   7.779   1.789
 7921SOL     OW25536  11.375   1.369   2.881
 7921SOL    HW125537  11.444   1.417   2.836
 7921SOL    HW225538  11.294   1.415   2.858
 7922SOL     OW25539   6.043  10.447   1.986
 7922SOL    HW125540   5.996  10.413   2.062
 7922SOL    HW225541   6.087  10.371   1.949
 7923SOL     OW25542   1.546   0.415  10.337
 7923SOL    HW125543   1.580   0.493  10.292
 7923SOL    HW225544   1.510   0.448  10.419
 7924SOL     OW25545   4.671   8.013   0.646
 7924SOL    HW125546   4.666   8.005   0.742
 7924SOL    HW225547   4.718   7.934   0.618
 7925SOL     OW25548   4.727   0.422   4.838
 7925SOL    HW125549   4.752   0.472   4.916
 7925SOL    HW225550   4.807   0.417   4.786
 7926SOL     OW25551  12.250   7.092   3.877
 7926SOL    HW125552  12.182   7.039   3.835
 7926SOL    HW225553  12.331   7.043   3.861
 7927SOL     OW25554   8.874   3.768  13.096
 7927SOL    HW125555   8.858   3.713  13.173
 7927SOL    HW225556   8.916   3.847  13.131
 7928SOL     OW25557   0.121   5.446   8.539
 7928SOL    HW125558   0.136   5.452   8.633
 7928SOL    HW225559   0.027   5.462   8.529
 7929SOL     OW25560  12.841   7.534   8.920
 7929SOL    HW125561  12.913   7.597   8.923
 7929SOL    HW225562  12.881   7.451   8.946
 7930SOL     OW25563   2.755   8.078  14.179
 7930SOL    HW125564   2.832   8.035  14.218
 7930SOL    HW225565   2.716   8.126  14.252
 7931SOL     OW25566   4.662   8.732  14.508
 7931SOL    HW125567   4.701   8.816  14.482
 7931SOL    HW225568   4.680   8.724  14.601
 7932SOL     OW25569   3.424   6.485  13.806
 7932SOL    HW125570   3.414   6.408  13.861
 7932SOL    HW225571   3.397   6.457  13.718
 7933SOL     OW25572  10.626   3.441  12.641
 7933SOL    HW125573  10.671   3.524  12.624
 7933SOL    HW225574  10.691   3.386  12.684
 7934SOL     OW25575  10.184   7.816   2.695
 7934SOL    HW125576  10.234   7.889   2.728
 7934SOL    HW225577  10.135   7.852   2.621
 7935SOL     OW25578   0.803   0.839   9.064
 7935SOL    HW125579   0.769   0.751   9.079
 7935SOL    HW225580   0.744   0.897   9.112
 7936SOL     OW25581   6.015   3.961   8.932
 7936SOL    HW125582   5.954   4.028   8.963
 7936SOL    HW225583   5.982   3.938   8.845
 7937SOL     OW25584   4.893  12.352   4.101
 7937SOL    HW125585   4.977  12.311   4.078
 7937SOL    HW225586   4.856  12.295   4.169
 7938SOL     OW25587   6.296  12.047   8.251
 7938SOL    HW125588   6.315  12.134   8.285
 7938SOL    HW225589   6.229  12.060   8.184
 7939SOL     OW25590   9.463   3.504   5.812
 7939SOL    HW125591   9.481   3.561   5.737
 7939SOL    HW225592   9.545   3.504   5.863
 7940SOL     OW25593   5.084   2.098   2.228
 7940SOL    HW125594   5.161   2.096   2.170
 7940SOL    HW225595   5.034   2.020   2.203
 7941SOL     OW25596  13.967   4.621   0.129
 7941SOL    HW125597  13.901   4.556   0.154
 7941SOL    HW225598  14.009   4.646   0.212
 7942SOL     OW25599  13.800   9.315  14.205
 7942SOL    HW125600  13.826   9.394  14.252
 7942SOL    HW225601  13.791   9.248  14.272
 7943SOL     OW25602   2.706   3.673  10.349
 7943SOL    HW125603   2.719   3.737  10.419
 7943SOL    HW225604   2.735   3.590  10.386
 7944SOL     OW25605   3.771   5.557  13.001
 7944SOL    HW125606   3.724   5.579  12.920
 7944SOL    HW225607   3.859   5.592  12.987
 7945SOL     OW25608   9.470   1.734   9.521
 7945SOL    HW125609   9.376   1.720   9.532
 7945SOL    HW225610   9.495   1.789   9.596
 7946SOL     OW25611   5.895   7.575   5.864
 7946SOL    HW125612   5.938   7.542   5.786
 7946SOL    HW225613   5.890   7.501   5.924
 7947SOL     OW25614   6.642   5.066   7.677
 7947SOL    HW125615   6.557   5.054   7.635
 7947SOL    HW225616   6.656   5.161   7.676
 7948SOL     OW25617   1.389   1.235  10.556
 7948SOL    HW125618   1.463   1.267  10.505
 7948SOL    HW225619   1.381   1.143  10.532
 7949SOL     OW25620   9.005   2.710  14.737
 7949SOL    HW125621   9.092   2.688  14.772
 7949SOL    HW225622   9.018   2.794  14.693
 7950SOL     OW25623   1.498   4.015  14.119
 7950SOL    HW125624   1.404   4.027  14.109
 7950SOL    HW225625   1.507   3.955  14.193
 7951SOL     OW25626   0.026   1.815   0.578
 7951SOL    HW125627   0.040   1.738   0.522
 7951SOL    HW225628  14.812   1.838   0.562
 7952SOL     OW25629   2.905  11.936  10.623
 7952SOL    HW125630   2.936  11.894  10.703
 7952SOL    HW225631   2.961  11.900  10.554
 7953SOL     OW25632  10.682  11.966   5.599
 7953SOL    HW125633  10.613  11.911   5.560
 7953SOL    HW225634  10.637  12.012   5.670
 7954SOL     OW25635   8.347  11.070   1.929
 7954SOL    HW125636   8.260  11.057   1.890
 7954SOL    HW225637   8.332  11.071   2.023
 7955SOL     OW25638  12.781   6.975   0.483
 7955SOL    HW125639  12.834   7.041   0.438
 7955SOL    HW225640  12.735   7.025   0.551
 7956SOL     OW25641   5.657  11.674   1.141
 7956SOL    HW125642   5.614  11.594   1.110
 7956SOL    HW225643   5.719  11.696   1.071
 7957SOL     OW25644  13.802   4.265   7.852
 7957SOL    HW125645  13.825   4.347   7.807
 7957SOL    HW225646  13.884   4.237   7.894
 7958SOL     OW25647  13.909  11.691   4.732
 7958SOL    HW125648  13.879  11.648   4.652
 7958SOL    HW225649  13.848  11.764   4.745
 7959SOL     OW25650   1.856  13.063   8.684
 7959SOL    HW125651   1.796  13.002   8.642
 7959SOL    HW225652   1.817  13.149   8.671
 7960SOL     OW25653  14.424  13.755   2.281
 7960SOL    HW125654  14.341  13.732   2.240
 7960SOL    HW225655  14.400  13.820   2.348
 7961SOL     OW25656   2.450   2.105   5.017
 7961SOL    HW125657   2.531   2.063   5.049
 7961SOL    HW225658   2.481   2.179   4.965
 7962SOL     OW25659   1.854  11.563   7.876
 7962SOL    HW125660   1.831  11.526   7.961
 7962SOL    HW225661   1.865  11.487   7.819
 7963SOL     OW25662   9.719   4.906   3.071
 7963SOL    HW125663   9.754   4.995   3.081
 7963SOL    HW225664   9.763   4.855   3.140
 7964SOL     OW25665  13.732   9.095   9.844
 7964SOL    HW125666  13.737   9.003   9.871
 7964SOL    HW225667  13.821   9.115   9.813
 7965SOL     OW25668   6.996  13.285   6.711
 7965SOL    HW125669   6.986  13.209   6.769
 7965SOL    HW225670   7.011  13.359   6.770
 7966SOL     OW25671   1.834   3.758   9.841
 7966SOL    HW125672   1.927   3.761   9.817
 7966SOL    HW225673   1.815   3.846   9.875
 7967SOL     OW25674   0.474   2.080   4.933
 7967SOL    HW125675   0.437   2.078   4.845
 7967SOL    HW225676   0.532   2.004   4.936
 7968SOL     OW25677   4.985  14.776   4.336
 7968SOL    HW125678   4.905  14.825   4.353
 7968SOL    HW225679   5.000  14.787   4.242
 7969SOL     OW25680  12.916   6.221   6.937
 7969SOL    HW125681  12.823   6.231   6.916
 7969SOL    HW225682  12.941   6.139   6.895
 7970SOL     OW25683  13.930   3.262   0.371
 7970SOL    HW125684  14.000   3.198   0.385
 7970SOL    HW225685  13.926   3.271   0.276
 7971SOL     OW25686   8.833  13.304  13.622
 7971SOL    HW125687   8.853  13.212  13.608
 7971SOL    HW225688   8.737  13.308  13.625
 7972SOL     OW25689   4.503  14.328   2.384
 7972SOL    HW125690   4.565  14.270   2.429
 7972SOL    HW225691   4.500  14.407   2.438
 7973SOL     OW25692   3.173  13.896   5.966
 7973SOL    HW125693   3.215  13.982   5.964
 7973SOL    HW225694   3.178  13.869   6.057
 7974SOL     OW25695   4.720   0.323  10.014
 7974SOL    HW125696   4.681   0.235  10.015
 7974SOL    HW225697   4.746   0.337   9.923
 7975SOL     OW25698   6.712  12.681   2.977
 7975SOL    HW125699   6.686  12.590   2.962
 7975SOL    HW225700   6.785  12.675   3.038
 7976SOL     OW25701   0.723   1.216  11.898
 7976SOL    HW125702   0.782   1.145  11.925
 7976SOL    HW225703   0.775   1.267  11.835
 7977SOL     OW25704  10.650  10.738   0.596
 7977SOL    HW125705  10.619  10.648   0.609
 7977SOL    HW225706  10.745  10.732   0.606
 7978SOL     OW25707  14.100   8.494  11.911
 7978SOL    HW125708  14.076   8.489  11.818
 7978SOL    HW225709  14.194   8.477  11.912
 7979SOL     OW25710   2.622  12.281   6.670
 7979SOL    HW125711   2.683  12.219   6.709
 7979SOL    HW225712   2.589  12.332   6.744
 7980SOL     OW25713  10.186   7.131   5.515
 7980SOL    HW125714  10.095   7.141   5.541
 7980SOL    HW225715  10.187   7.158   5.423
 7981SOL     OW25716  10.075   1.953  13.589
 7981SOL    HW125717  10.115   1.939  13.504
 7981SOL    HW225718   9.981   1.951  13.572
 7982SOL     OW25719   5.950   8.189   7.269
 7982SOL    HW125720   5.943   8.252   7.340
 7982SOL    HW225721   6.014   8.228   7.209
 7983SOL     OW25722  14.558   3.774   2.926
 7983SOL    HW125723  14.513   3.697   2.893
 7983SOL    HW225724  14.531   3.781   3.017
 7984SOL     OW25725   7.053   2.848  12.798
 7984SOL    HW125726   7.021   2.766  12.836
 7984SOL    HW225727   7.126   2.822  12.743
 7985SOL     OW25728  13.261  11.787   1.245
 7985SOL    HW125729  13.250  11.692   1.239
 7985SOL    HW225730  13.342  11.798   1.295
 7986SOL     OW25731   1.730   6.097   1.730
 7986SOL    HW125732   1.710   6.004   1.719
 7986SOL    HW225733   1.764   6.105   1.819
 7987SOL     OW25734  11.393  14.320   9.735
 7987SOL    HW125735  11.316  14.361   9.773
 7987SOL    HW225736  11.359  14.272   9.659
 7988SOL     OW25737  11.568  10.501  11.903
 7988SOL    HW125738  11.597  10.563  11.969
 7988SOL    HW225739  11.504  10.445  11.947
 7989SOL     OW25740   2.940   3.703   4.230
 7989SOL    HW125741   2.997   3.777   4.251
 7989SOL    HW225742   2.995   3.626   4.243
 7990SOL     OW25743  11.042  10.682  10.658
 7990SOL    HW125744  11.028  10.603  10.606
 7990SOL    HW225745  11.044  10.753  10.594
 7991SOL     OW25746   1.165   1.751  10.483
 7991SOL    HW125747   1.107   1.793  10.547
 7991SOL    HW225748   1.141   1.658  10.486
 7992SOL     OW25749   3.778   9.739   2.600
 7992SOL    HW125750   3.842   9.703   2.662
 7992SOL    HW225751   3.707   9.772   2.655
 7993SOL     OW25752   1.338   0.455   7.584
 7993SOL    HW125753   1.279   0.490   7.651
 7993SOL    HW225754   1.422   0.444   7.628
 7994SOL     OW25755  12.734   1.655  12.069
 7994SOL    HW125756  12.668   1.721  12.046
 7994SOL    HW225757  12.770   1.685  12.152
 7995SOL     OW25758  10.464   0.258   4.446
 7995SOL    HW125759  10.448   0.317   4.519
 7995SOL    HW225760  10.531   0.198   4.477
 7996SOL     OW25761  13.549   8.493   7.588
 7996SOL    HW125762  13.617   8.477   7.522
 7996SOL    HW225763  13.501   8.569   7.556
 7997SOL     OW25764   6.359  12.130   6.389
 7997SOL    HW125765   6.321  12.052   6.349
 7997SOL    HW225766   6.388  12.101   6.476
 7998SOL     OW25767   0.599  13.592   0.801
 7998SOL    HW125768   0.659  13.618   0.731
 7998SOL    HW225769   0.549  13.671   0.821
 7999SOL     OW25770   0.998   3.279   6.188
 7999SOL    HW125771   1.060   3.348   6.210
 7999SOL    HW225772   0.936   3.278   6.261
 8000SOL     OW25773   9.450   8.829   5.294
 8000SOL    HW125774   9.379   8.769   5.271
 8000SOL    HW225775   9.407   8.907   5.328
 8001SOL     OW25776   4.012   9.726   6.762
 8001SOL    HW125777   3.966   9.685   6.835
 8001SOL    HW225778   4.061   9.798   6.803
 8002SOL     OW25779  11.854   2.600  12.241
 8002SOL    HW125780  11.915   2.573  12.173
 8002SOL    HW225781  11.855   2.695  12.239
 8003SOL     OW25782   9.860   3.338   9.353
 8003SOL    HW125783   9.865   3.376   9.265
 8003SOL    HW225784   9.885   3.409   9.412
 8004SOL     OW25785  12.089   1.144   0.525
 8004SOL    HW125786  12.174   1.112   0.494
 8004SOL    HW225787  12.111   1.212   0.589
 8005SOL     OW25788   9.015   2.366   0.504
 8005SOL    HW125789   8.940   2.348   0.448
 8005SOL    HW225790   9.027   2.461   0.499
 8006SOL     OW25791   5.083   9.624   7.744
 8006SOL    HW125792   5.147   9.693   7.763
 8006SOL    HW225793   5.101   9.557   7.811
 8007SOL     OW25794   1.764   0.086   7.384
 8007SOL    HW125795   1.836   0.096   7.321
 8007SOL    HW225796   1.701   0.029   7.340
 8008SOL     OW25797   4.346  10.847   4.036
 8008SOL    HW125798   4.382  10.801   3.961
 8008SOL    HW225799   4.335  10.937   4.006
 8009SOL     OW25800   4.298  14.056   8.101
 8009SOL    HW125801   4.326  14.086   8.015
 8009SOL    HW225802   4.317  13.962   8.101
 8010SOL     OW25803   3.116  12.469   6.933
 8010SOL    HW125804   3.039  12.472   6.877
 8010SOL    HW225805   3.134  12.376   6.944
 8011SOL     OW25806  12.780   1.600   1.521
 8011SOL    HW125807  12.723   1.544   1.468
 8011SOL    HW225808  12.802   1.545   1.597
 8012SOL     OW25809   9.591  11.503  13.250
 8012SOL    HW125810   9.506  11.466  13.227
 8012SOL    HW225811   9.571  11.581  13.300
 8013SOL     OW25812  13.442  12.656   3.227
 8013SOL    HW125813  13.377  12.643   3.295
 8013SOL    HW225814  13.503  12.583   3.237
 8014SOL     OW25815   7.163   0.188   5.026
 8014SOL    HW125816   7.150   0.169   5.119
 8014SOL    HW225817   7.100   0.256   5.006
 8015SOL     OW25818   0.062   4.308  11.792
 8015SOL    HW125819   0.008   4.282  11.718
 8015SOL    HW225820   0.142   4.343  11.752
 8016SOL     OW25821  11.670   2.754   5.608
 8016SOL    HW125822  11.612   2.792   5.542
 8016SOL    HW225823  11.649   2.802   5.689
 8017SOL     OW25824  10.667  14.035   5.690
 8017SOL    HW125825  10.748  13.998   5.655
 8017SOL    HW225826  10.624  14.074   5.614
 8018SOL     OW25827   2.408   3.654   9.835
 8018SOL    HW125828   2.409   3.560   9.855
 8018SOL    HW225829   2.495   3.685   9.861
 8019SOL     OW25830   2.570   3.925   7.648
 8019SOL    HW125831   2.627   3.974   7.707
 8019SOL    HW225832   2.630   3.885   7.585
 8020SOL     OW25833   1.857   9.610   8.191
 8020SOL    HW125834   1.783   9.624   8.249
 8020SOL    HW225835   1.819   9.610   8.103
 8021SOL     OW25836   0.216  11.151   2.019
 8021SOL    HW125837   0.150  11.190   1.961
 8021SOL    HW225838   0.299  11.188   1.990
 8022SOL     OW25839   1.109   8.634   0.671
 8022SOL    HW125840   1.085   8.551   0.712
 8022SOL    HW225841   1.159   8.681   0.738
 8023SOL     OW25842  12.273   8.497   7.675
 8023SOL    HW125843  12.302   8.432   7.611
 8023SOL    HW225844  12.178   8.485   7.680
 8024SOL     OW25845   5.406  14.520   7.694
 8024SOL    HW125846   5.411  14.424   7.697
 8024SOL    HW225847   5.467  14.550   7.762
 8025SOL     OW25848  14.260   5.238  13.366
 8025SOL    HW125849  14.245   5.146  13.347
 8025SOL    HW225850  14.346   5.241  13.406
 8026SOL     OW25851   6.245  12.740   2.933
 8026SOL    HW125852   6.243  12.806   3.003
 8026SOL    HW225853   6.187  12.670   2.965
 8027SOL     OW25854  14.248  12.721   1.914
 8027SOL    HW125855  14.167  12.692   1.873
 8027SOL    HW225856  14.316  12.670   1.871
 8028SOL     OW25857  13.873  12.842   1.427
 8028SOL    HW125858  13.866  12.929   1.389
 8028SOL    HW225859  13.783  12.814   1.441
 8029SOL     OW25860   1.956   5.284   9.173
 8029SOL    HW125861   1.890   5.338   9.130
 8029SOL    HW225862   1.992   5.342   9.241
 8030SOL     OW25863   6.858   9.261  12.475
 8030SOL    HW125864   6.944   9.220  12.460
 8030SOL    HW225865   6.795   9.195  12.446
 8031SOL     OW25866   4.912   2.332  10.620
 8031SOL    HW125867   4.861   2.305  10.544
 8031SOL    HW225868   4.989   2.276  10.618
 8032SOL     OW25869   0.419   6.850   6.597
 8032SOL    HW125870   0.374   6.766   6.604
 8032SOL    HW225871   0.469   6.857   6.679
 8033SOL     OW25872   7.974  10.437   9.877
 8033SOL    HW125873   7.888  10.477   9.862
 8033SOL    HW225874   7.975  10.360   9.819
 8034SOL     OW25875   3.458   8.992   1.860
 8034SOL    HW125876   3.380   8.992   1.915
 8034SOL    HW225877   3.425   9.002   1.771
 8035SOL     OW25878  10.178  12.685  11.347
 8035SOL    HW125879  10.270  12.686  11.373
 8035SOL    HW225880  10.157  12.777  11.329
 8036SOL     OW25881   1.326   2.750   3.730
 8036SOL    HW125882   1.308   2.792   3.813
 8036SOL    HW225883   1.252   2.691   3.716
 8037SOL     OW25884   7.012  10.608  12.554
 8037SOL    HW125885   6.999  10.703  12.560
 8037SOL    HW225886   6.930  10.571  12.588
 8038SOL     OW25887  13.937  10.571   0.924
 8038SOL    HW125888  13.958  10.651   0.972
 8038SOL    HW225889  13.841  10.564   0.930
 8039SOL     OW25890   1.876   5.690   6.410
 8039SOL    HW125891   1.783   5.697   6.388
 8039SOL    HW225892   1.904   5.779   6.430
 8040SOL     OW25893  13.129  11.255   0.484
 8040SOL    HW125894  13.073  11.282   0.411
 8040SOL    HW225895  13.192  11.194   0.445
 8041SOL     OW25896   8.858  10.937   9.013
 8041SOL    HW125897   8.936  10.901   9.055
 8041SOL    HW225898   8.785  10.887   9.050
 8042SOL     OW25899  11.505   9.699   8.131
 8042SOL    HW125900  11.427   9.666   8.176
 8042SOL    HW225901  11.493   9.673   8.040
 8043SOL     OW25902   6.223   0.807   1.817
 8043SOL    HW125903   6.316   0.827   1.802
 8043SOL    HW225904   6.206   0.729   1.764
 8044SOL     OW25905   7.732   5.030   8.109
 8044SOL    HW125906   7.809   4.996   8.062
 8044SOL    HW225907   7.736   5.124   8.097
 8045SOL     OW25908   2.882   1.350   8.520
 8045SOL    HW125909   2.839   1.272   8.555
 8045SOL    HW225910   2.952   1.315   8.465
 8046SOL     OW25911  12.857  10.268   5.611
 8046SOL    HW125912  12.899  10.348   5.579
 8046SOL    HW225913  12.774  10.299   5.649
 8047SOL     OW25914   4.824   8.911  13.726
 8047SOL    HW125915   4.862   8.857  13.795
 8047SOL    HW225916   4.888   8.910  13.656
 8048SOL     OW25917  11.357   3.450   4.900
 8048SOL    HW125918  11.336   3.508   4.826
 8048SOL    HW225919  11.452   3.443   4.899
 8049SOL     OW25920   3.664   9.534   1.490
 8049SOL    HW125921   3.694   9.529   1.399
 8049SOL    HW225922   3.744   9.547   1.541
 8050SOL     OW25923   5.910  12.123  13.218
 8050SOL    HW125924   5.948  12.151  13.135
 8050SOL    HW225925   5.955  12.041  13.239
 8051SOL     OW25926   0.555  10.580  13.664
 8051SOL    HW125927   0.602  10.652  13.621
 8051SOL    HW225928   0.625  10.525  13.699
 8052SOL     OW25929  12.890  12.465   5.151
 8052SOL    HW125930  12.966  12.481   5.207
 8052SOL    HW225931  12.904  12.377   5.116
 8053SOL     OW25932   1.726   0.720   4.415
 8053SOL    HW125933   1.707   0.744   4.324
 8053SOL    HW225934   1.655   0.759   4.466
 8054SOL     OW25935   4.279   7.688  13.952
 8054SOL    HW125936   4.197   7.641  13.966
 8054SOL    HW225937   4.269   7.728  13.866
 8055SOL     OW25938   9.113   6.512   3.345
 8055SOL    HW125939   9.028   6.469   3.357
 8055SOL    HW225940   9.090   6.604   3.329
 8056SOL     OW25941   8.609   1.090  12.944
 8056SOL    HW125942   8.648   1.067  12.860
 8056SOL    HW225943   8.551   1.016  12.964
 8057SOL     OW25944   1.188   4.928  13.973
 8057SOL    HW125945   1.284   4.934  13.978
 8057SOL    HW225946   1.171   4.836  13.958
 8058SOL     OW25947   1.756   6.819  12.181
 8058SOL    HW125948   1.826   6.773  12.136
 8058SOL    HW225949   1.676   6.773  12.155
 8059SOL     OW25950  13.929   8.218   6.579
 8059SOL    HW125951  14.006   8.163   6.567
 8059SOL    HW225952  13.870   8.166   6.634
 8060SOL     OW25953   1.218   9.687   4.486
 8060SOL    HW125954   1.129   9.721   4.495
 8060SOL    HW225955   1.272   9.765   4.471
 8061SOL     OW25956   2.863   0.634  12.770
 8061SOL    HW125957   2.836   0.545  12.748
 8061SOL    HW225958   2.935   0.652  12.710
 8062SOL     OW25959   9.224   3.072   1.598
 8062SOL    HW125960   9.172   3.010   1.548
 8062SOL    HW225961   9.171   3.151   1.603
 8063SOL     OW25962   2.445   3.968  13.401
 8063SOL    HW125963   2.480   3.931  13.482
 8063SOL    HW225964   2.481   4.057  13.398
 8064SOL     OW25965   4.850   6.921   6.753
 8064SOL    HW125966   4.882   6.909   6.842
 8064SOL    HW225967   4.906   6.990   6.717
 8065SOL     OW25968  14.345   6.296   3.508
 8065SOL    HW125969  14.375   6.287   3.418
 8065SOL    HW225970  14.266   6.349   3.503
 8066SOL     OW25971   5.799   2.301   5.587
 8066SOL    HW125972   5.835   2.285   5.500
 8066SOL    HW225973   5.874   2.331   5.639
 8067SOL     OW25974   9.576  12.650  11.508
 8067SOL    HW125975   9.577  12.685  11.419
 8067SOL    HW225976   9.509  12.702  11.554
 8068SOL     OW25977  13.445   6.023  10.839
 8068SOL    HW125978  13.409   5.969  10.909
 8068SOL    HW225979  13.434   6.113  10.870
 8069SOL     OW25980   0.868   3.582  10.796
 8069SOL    HW125981   0.962   3.573  10.811
 8069SOL    HW225982   0.850   3.675  10.813
 8070SOL     OW25983  10.305   2.737   0.029
 8070SOL    HW125984  10.221   2.717   0.072
 8070SOL    HW225985  10.339   2.813   0.076
 8071SOL     OW25986   1.441  10.939   5.538
 8071SOL    HW125987   1.451  10.847   5.564
 8071SOL    HW225988   1.424  10.985   5.620
 8072SOL     OW25989  11.582  10.683  13.448
 8072SOL    HW125990  11.674  10.686  13.474
 8072SOL    HW225991  11.582  10.640  13.363
 8073SOL     OW25992   9.905  14.120   7.425
 8073SOL    HW125993   9.836  14.186   7.437
 8073SOL    HW225994   9.863  14.038   7.451
 8074SOL     OW25995  10.726  10.359  12.033
 8074SOL    HW125996  10.724  10.266  12.059
 8074SOL    HW225997  10.789  10.362  11.961
 8075SOL     OW25998  11.727   6.646   8.865
 8075SOL    HW125999  11.721   6.658   8.960
 8075SOL    HW226000  11.820   6.628   8.849
 8076SOL     OW26001   7.624   2.951   6.071
 8076SOL    HW126002   7.665   2.872   6.036
 8076SOL    HW226003   7.671   3.023   6.029
 8077SOL     OW26004   0.270   6.952  13.077
 8077SOL    HW126005   0.355   6.980  13.109
 8077SOL    HW226006   0.251   6.871  13.124
 8078SOL     OW26007   4.394  10.722  11.007
 8078SOL    HW126008   4.477  10.755  10.972
 8078SOL    HW226009   4.406  10.724  11.102
 8079SOL     OW26010   0.882   0.320   8.905
 8079SOL    HW126011   0.937   0.349   8.978
 8079SOL    HW226012   0.928   0.352   8.826
 8080SOL     OW26013   9.145  14.514   8.978
 8080SOL    HW126014   9.076  14.542   9.038
 8080SOL    HW226015   9.223  14.507   9.032
 8081SOL     OW26016   0.132   2.307  12.740
 8081SOL    HW126017   0.103   2.374  12.678
 8081SOL    HW226018   0.131   2.351  12.825
 8082SOL     OW26019  10.908   0.172   5.159
 8082SOL    HW126020  10.854   0.134   5.228
 8082SOL    HW226021  10.986   0.204   5.204
 8083SOL     OW26022   1.669   2.636   4.072
 8083SOL    HW126023   1.707   2.598   3.992
 8083SOL    HW226024   1.581   2.599   4.077
 8084SOL     OW26025  10.411   5.498   0.595
 8084SOL    HW126026  10.481   5.545   0.641
 8084SOL    HW226027  10.396   5.419   0.648
 8085SOL     OW26028   9.303   0.626   3.286
 8085SOL    HW126029   9.233   0.674   3.329
 8085SOL    HW226030   9.342   0.573   3.355
 8086SOL     OW26031   9.641   8.002   0.832
 8086SOL    HW126032   9.716   7.965   0.878
 8086SOL    HW226033   9.673   8.017   0.743
 8087SOL     OW26034   3.411  12.239  14.410
 8087SOL    HW126035   3.373  12.162  14.368
 8087SOL    HW226036   3.494  12.252  14.365
 8088SOL     OW26037   8.714   6.342   7.427
 8088SOL    HW126038   8.746   6.428   7.399
 8088SOL    HW226039   8.619   6.347   7.414
 8089SOL     OW26040  10.508  13.778  12.605
 8089SOL    HW126041  10.596  13.815  12.610
 8089SOL    HW226042  10.467  13.825  12.532
 8090SOL     OW26043   3.371  11.776  11.111
 8090SOL    HW126044   3.295  11.747  11.059
 8090SOL    HW226045   3.418  11.836  11.053
 8091SOL     OW26046   6.494   9.006   0.472
 8091SOL    HW126047   6.486   9.049   0.557
 8091SOL    HW226048   6.527   8.918   0.493
 8092SOL     OW26049  12.523   6.039   0.720
 8092SOL    HW126050  12.464   6.084   0.781
 8092SOL    HW226051  12.558   6.109   0.665
 8093SOL     OW26052   6.729  12.302  10.447
 8093SOL    HW126053   6.635  12.317  10.434
 8093SOL    HW226054   6.747  12.341  10.533
 8094SOL     OW26055   2.382   1.389   7.485
 8094SOL    HW126056   2.393   1.317   7.547
 8094SOL    HW226057   2.453   1.450   7.507
 8095SOL     OW26058   0.539   5.107   8.775
 8095SOL    HW126059   0.574   5.083   8.689
 8095SOL    HW226060   0.483   5.183   8.758
 8096SOL     OW26061   7.856  13.170   5.199
 8096SOL    HW126062   7.934  13.221   5.221
 8096SOL    HW226063   7.880  13.079   5.217
 8097SOL     OW26064  11.838  14.732  14.021
 8097SOL    HW126065  11.826  14.724  13.927
 8097SOL    HW226066  11.784  14.808  14.046
 8098SOL     OW26067  12.442   9.516   1.753
 8098SOL    HW126068  12.479   9.576   1.688
 8098SOL    HW226069  12.430   9.569   1.831
 8099SOL     OW26070   3.576   0.204  10.123
 8099SOL    HW126071   3.601   0.244  10.040
 8099SOL    HW226072   3.527   0.273  10.168
 8100SOL     OW26073  11.412   3.774   7.194
 8100SOL    HW126074  11.453   3.838   7.135
 8100SOL    HW226075  11.353   3.827   7.249
 8101SOL     OW26076   1.871   9.641   7.394
 8101SOL    HW126077   1.936   9.710   7.407
 8101SOL    HW226078   1.788   9.683   7.412
 8102SOL     OW26079  12.024   0.297   6.243
 8102SOL    HW126080  12.021   0.372   6.184
 8102SOL    HW226081  11.952   0.312   6.305
 8103SOL     OW26082   9.987  14.452  10.554
 8103SOL    HW126083   9.928  14.390  10.598
 8103SOL    HW226084  10.024  14.401  10.481
 8104SOL     OW26085   9.339   7.366   2.321
 8104SOL    HW126086   9.409   7.413   2.274
 8104SOL    HW226087   9.289   7.323   2.252
 8105SOL     OW26088   2.263   6.106   7.684
 8105SOL    HW126089   2.190   6.151   7.641
 8105SOL    HW226090   2.331   6.103   7.618
 8106SOL     OW26091   2.244   1.983   2.002
 8106SOL    HW126092   2.278   1.897   2.025
 8106SOL    HW226093   2.149   1.975   2.017
 8107SOL     OW26094  13.481   4.341   2.195
 8107SOL    HW126095  13.461   4.432   2.172
 8107SOL    HW226096  13.559   4.321   2.144
 8108SOL     OW26097   3.446   3.132   4.402
 8108SOL    HW126098   3.539   3.111   4.404
 8108SOL    HW226099   3.438   3.214   4.452
 8109SOL     OW26100   8.082  12.758   8.662
 8109SOL    HW126101   8.118  12.684   8.711
 8109SOL    HW226102   7.988  12.755   8.680
 8110SOL     OW26103   2.595  11.777  10.017
 8110SOL    HW126104   2.589  11.827  10.098
 8110SOL    HW226105   2.568  11.688  10.042
 8111SOL     OW26106  14.072  14.534  10.820
 8111SOL    HW126107  14.024  14.464  10.777
 8111SOL    HW226108  14.156  14.537  10.774
 8112SOL     OW26109  11.275   2.774   0.072
 8112SOL    HW126110  11.229   2.850   0.036
 8112SOL    HW226111  11.208   2.707   0.082
 8113SOL     OW26112  14.770  14.342   5.585
 8113SOL    HW126113  14.763  14.404   5.513
 8113SOL    HW226114  14.823  14.387   5.651
 8114SOL     OW26115   4.632   4.629   9.945
 8114SOL    HW126116   4.585   4.618  10.028
 8114SOL    HW226117   4.599   4.558   9.890
 8115SOL     OW26118   2.564  12.803   4.752
 8115SOL    HW126119   2.481  12.830   4.712
 8115SOL    HW226120   2.540  12.769   4.838
 8116SOL     OW26121   0.723  14.276   4.797
 8116SOL    HW126122   0.629  14.291   4.785
 8116SOL    HW226123   0.748  14.334   4.868
 8117SOL     OW26124   3.111   8.562  14.106
 8117SOL    HW126125   3.039   8.504  14.128
 8117SOL    HW226126   3.181   8.504  14.076
 8118SOL     OW26127  10.924   7.582  13.388
 8118SOL    HW126128  10.906   7.676  13.380
 8118SOL    HW226129  10.929   7.551  13.298
 8119SOL     OW26130  13.181   5.234   9.575
 8119SOL    HW126131  13.244   5.270   9.512
 8119SOL    HW226132  13.187   5.293   9.651
 8120SOL     OW26133   3.619  13.079  13.038
 8120SOL    HW126134   3.710  13.052  13.028
 8120SOL    HW226135   3.590  13.100  12.949
 8121SOL     OW26136   2.244   4.163   2.394
 8121SOL    HW126137   2.196   4.127   2.468
 8121SOL    HW226138   2.224   4.106   2.320
 8122SOL     OW26139  12.593  11.603   2.990
 8122SOL    HW126140  12.639  11.655   3.056
 8122SOL    HW226141  12.661  11.581   2.926
 8123SOL     OW26142   5.203   0.241  14.636
 8123SOL    HW126143   5.207   0.160  14.585
 8123SOL    HW226144   5.112   0.270  14.628
 8124SOL     OW26145   0.904   8.844   1.575
 8124SOL    HW126146   0.963   8.776   1.544
 8124SOL    HW226147   0.921   8.851   1.668
 8125SOL     OW26148  11.353  14.241  12.697
 8125SOL    HW126149  11.379  14.323  12.739
 8125SOL    HW226150  11.263  14.256  12.669
 8126SOL     OW26151   3.083   2.043  11.419
 8126SOL    HW126152   3.067   1.980  11.348
 8126SOL    HW226153   3.079   2.128  11.376
 8127SOL     OW26154  14.732   8.146   9.016
 8127SOL    HW126155  14.793   8.078   9.046
 8127SOL    HW226156  14.646   8.117   9.047
 8128SOL     OW26157  10.408  13.553   3.209
 8128SOL    HW126158  10.423  13.609   3.285
 8128SOL    HW226159  10.471  13.584   3.144
 8129SOL     OW26160   0.139   3.913   6.248
 8129SOL    HW126161   0.221   3.959   6.264
 8129SOL    HW226162   0.122   3.866   6.329
 8130SOL     OW26163   1.966   5.250   7.119
 8130SOL    HW126164   2.010   5.211   7.195
 8130SOL    HW226165   1.880   5.275   7.153
 8131SOL     OW26166  10.617  13.393   5.668
 8131SOL    HW126167  10.540  13.443   5.695
 8131SOL    HW226168  10.665  13.375   5.749
 8132SOL     OW26169  10.213   4.933  11.104
 8132SOL    HW126170  10.163   4.854  11.083
 8132SOL    HW226171  10.304   4.908  11.090
 8133SOL     OW26172  12.813  10.593  12.154
 8133SOL    HW126173  12.876  10.593  12.083
 8133SOL    HW226174  12.780  10.683  12.157
 8134SOL     OW26175   8.885  14.142   8.537
 8134SOL    HW126176   8.882  14.114   8.445
 8134SOL    HW226177   8.856  14.065   8.586
 8135SOL     OW26178  13.614  10.457  13.166
 8135SOL    HW126179  13.604  10.428  13.257
 8135SOL    HW226180  13.559  10.536  13.161
 8136SOL     OW26181  11.617   2.792   1.965
 8136SOL    HW126182  11.672   2.801   2.043
 8136SOL    HW226183  11.579   2.879   1.952
 8137SOL     OW26184   7.483  12.603   0.675
 8137SOL    HW126185   7.495  12.656   0.596
 8137SOL    HW226186   7.464  12.515   0.642
 8138SOL     OW26187  11.220   2.785  14.228
 8138SOL    HW126188  11.225   2.718  14.296
 8138SOL    HW226189  11.211   2.736  14.146
 8139SOL     OW26190   4.425   2.865   5.835
 8139SOL    HW126191   4.459   2.943   5.879
 8139SOL    HW226192   4.341   2.893   5.799
 8140SOL     OW26193   5.011  11.056  10.170
 8140SOL    HW126194   4.995  11.150  10.161
 8140SOL    HW226195   4.934  11.023  10.216
 8141SOL     OW26196   6.982  12.323   6.602
 8141SOL    HW126197   7.047  12.357   6.541
 8141SOL    HW226198   7.029  12.308   6.683
 8142SOL     OW26199   4.242  12.384   6.913
 8142SOL    HW126200   4.194  12.461   6.882
 8142SOL    HW226201   4.220  12.316   6.849
 8143SOL     OW26202  10.583   9.516   7.446
 8143SOL    HW126203  10.517   9.467   7.396
 8143SOL    HW226204  10.626   9.571   7.381
 8144SOL     OW26205   4.065   6.512  14.846
 8144SOL    HW126206   4.012   6.578   0.014
 8144SOL    HW226207   4.144   6.559  14.820
 8145SOL     OW26208  10.211  11.017   3.444
 8145SOL    HW126209  10.118  10.995   3.449
 8145SOL    HW226210  10.232  11.010   3.351
 8146SOL     OW26211   1.015  12.336   3.661
 8146SOL    HW126212   0.967  12.411   3.627
 8146SOL    HW226213   1.079  12.373   3.722
 8147SOL     OW26214   8.962  14.426   9.936
 8147SOL    HW126215   9.022  14.363   9.896
 8147SOL    HW226216   8.983  14.423  10.029
 8148SOL     OW26217  14.715  10.122   5.775
 8148SOL    HW126218  14.676  10.207   5.755
 8148SOL    HW226219  14.691  10.067   5.700
 8149SOL     OW26220   4.080   4.642   5.481
 8149SOL    HW126221   4.001   4.665   5.432
 8149SOL    HW226222   4.152   4.674   5.427
 8150SOL     OW26223   4.268  10.394   1.893
 8150SOL    HW126224   4.308  10.308   1.877
 8150SOL    HW226225   4.177  10.375   1.915
 8151SOL     OW26226   7.165  14.353  11.235
 8151SOL    HW126227   7.242  14.305  11.265
 8151SOL    HW226228   7.098  14.286  11.223
 8152SOL     OW26229  14.477  11.503   8.290
 8152SOL    HW126230  14.413  11.574   8.290
 8152SOL    HW226231  14.429  11.426   8.320
 8153SOL     OW26232  13.974  13.303   3.787
 8153SOL    HW126233  13.885  13.303   3.824
 8153SOL    HW226234  14.027  13.256   3.851
 8154SOL     OW26235   5.875  13.117  14.032
 8154SOL    HW126236   5.857  13.205  14.064
 8154SOL    HW226237   5.933  13.130  13.957
 8155SOL     OW26238   0.512   6.404  11.301
 8155SOL    HW126239   0.431   6.355  11.310
 8155SOL    HW226240   0.570   6.368  11.367
 8156SOL     OW26241  12.989   3.728   1.695
 8156SOL    HW126242  12.943   3.657   1.650
 8156SOL    HW226243  12.983   3.704   1.788
 8157SOL     OW26244  10.668  13.345   0.404
 8157SOL    HW126245  10.643  13.284   0.474
 8157SOL    HW226246  10.646  13.431   0.438
 8158SOL     OW26247   4.203  11.856   5.477
 8158SOL    HW126248   4.226  11.875   5.386
 8158SOL    HW226249   4.149  11.778   5.472
 8159SOL     OW26250   2.029   7.927   9.568
 8159SOL    HW126251   2.060   7.898   9.482
 8159SOL    HW226252   2.102   7.980   9.603
 8160SOL     OW26253   9.163   0.208   5.698
 8160SOL    HW126254   9.157   0.257   5.617
 8160SOL    HW226255   9.245   0.159   5.690
 8161SOL     OW26256   7.560   5.657   8.933
 8161SOL    HW126257   7.500   5.682   8.863
 8161SOL    HW226258   7.623   5.729   8.938
 8162SOL     OW26259  10.960   7.941  11.385
 8162SOL    HW126260  10.995   7.895  11.461
 8162SOL    HW226261  10.996   7.895  11.310
 8163SOL     OW26262  12.559   0.911   3.901
 8163SOL    HW126263  12.525   0.995   3.933
 8163SOL    HW226264  12.481   0.855   3.896
 8164SOL     OW26265   2.919   8.451   6.803
 8164SOL    HW126266   3.007   8.415   6.796
 8164SOL    HW226267   2.875   8.394   6.866
 8165SOL     OW26268   0.380  10.173  13.827
 8165SOL    HW126269   0.431  10.208  13.754
 8165SOL    HW226270   0.315  10.241  13.846
 8166SOL     OW26271   8.925   9.362  11.420
 8166SOL    HW126272   8.950   9.374  11.328
 8166SOL    HW226273   8.980   9.424  11.467
 8167SOL     OW26274   0.988  14.395   3.675
 8167SOL    HW126275   1.059  14.452   3.704
 8167SOL    HW226276   0.950  14.441   3.599
 8168SOL     OW26277  12.004   4.508   3.757
 8168SOL    HW126278  12.081   4.538   3.805
 8168SOL    HW226279  11.942   4.580   3.762
 8169SOL     OW26280   6.933   5.993  13.491
 8169SOL    HW126281   6.856   6.010  13.545
 8169SOL    HW226282   6.897   5.963  13.407
 8170SOL     OW26283   1.220  12.851   2.293
 8170SOL    HW126284   1.184  12.940   2.285
 8170SOL    HW226285   1.153  12.803   2.341
 8171SOL     OW26286   0.339   4.142   5.512
 8171SOL    HW126287   0.327   4.150   5.418
 8171SOL    HW226288   0.308   4.053   5.532
 8172SOL     OW26289  14.240  12.581   9.927
 8172SOL    HW126290  14.269  12.564   9.837
 8172SOL    HW226291  14.257  12.499   9.973
 8173SOL     OW26292   5.183  13.932   1.560
 8173SOL    HW126293   5.265  13.974   1.530
 8173SOL    HW226294   5.114  13.989   1.525
 8174SOL     OW26295  14.388   9.259  13.661
 8174SOL    HW126296  14.309   9.267  13.607
 8174SOL    HW226297  14.441   9.334  13.636
 8175SOL     OW26298  10.664  14.130  13.185
 8175SOL    HW126299  10.746  14.098  13.224
 8175SOL    HW226300  10.642  14.208  13.237
 8176SOL     OW26301   7.386  13.541   3.979
 8176SOL    HW126302   7.479  13.541   3.999
 8176SOL    HW226303   7.365  13.449   3.962
 8177SOL     OW26304  12.318  13.593   0.841
 8177SOL    HW126305  12.351  13.674   0.880
 8177SOL    HW226306  12.284  13.542   0.915
 8178SOL     OW26307  10.011  12.179   1.374
 8178SOL    HW126308   9.969  12.177   1.460
 8178SOL    HW226309  10.015  12.087   1.347
 8179SOL     OW26310  10.607   4.439   1.795
 8179SOL    HW126311  10.611   4.486   1.878
 8179SOL    HW226312  10.517   4.451   1.765
 8180SOL     OW26313   2.288   1.087   3.002
 8180SOL    HW126314   2.224   1.074   2.933
 8180SOL    HW226315   2.249   1.046   3.080
 8181SOL     OW26316   5.863   1.416  10.188
 8181SOL    HW126317   5.864   1.326  10.155
 8181SOL    HW226318   5.851   1.407  10.283
 8182SOL     OW26319   7.737   1.906   2.995
 8182SOL    HW126320   7.717   1.929   3.086
 8182SOL    HW226321   7.831   1.892   2.994
 8183SOL     OW26322  13.077   7.914  12.586
 8183SOL    HW126323  13.114   7.933  12.672
 8183SOL    HW226324  13.141   7.855  12.545
 8184SOL     OW26325  11.481   6.824  13.182
 8184SOL    HW126326  11.518   6.875  13.109
 8184SOL    HW226327  11.497   6.878  13.259
 8185SOL     OW26328   4.593   6.689   5.778
 8185SOL    HW126329   4.535   6.755   5.818
 8185SOL    HW226330   4.656   6.741   5.728
 8186SOL     OW26331  10.251   0.463   4.343
 8186SOL    HW126332  10.326   0.521   4.331
 8186SOL    HW226333  10.290   0.376   4.353
 8187SOL     OW26334   0.687   2.590   5.462
 8187SOL    HW126335   0.643   2.633   5.536
 8187SOL    HW226336   0.717   2.662   5.407
 8188SOL     OW26337   1.568   7.328  14.784
 8188SOL    HW126338   1.539   7.420  14.781
 8188SOL    HW226339   1.658   7.332  14.816
 8189SOL     OW26340   7.583   4.520   2.108
 8189SOL    HW126341   7.580   4.615   2.102
 8189SOL    HW226342   7.492   4.492   2.103
 8190SOL     OW26343  11.139  13.856  11.651
 8190SOL    HW126344  11.053  13.816  11.647
 8190SOL    HW226345  11.199  13.783  11.669
 8191SOL     OW26346   1.969  14.756   8.697
 8191SOL    HW126347   1.887  14.786   8.658
 8191SOL    HW226348   1.980  14.810   8.775
 8192SOL     OW26349   6.475  10.018  10.984
 8192SOL    HW126350   6.549   9.958  10.977
 8192SOL    HW226351   6.427   9.989  11.061
 8193SOL     OW26352   9.778   6.260   7.781
 8193SOL    HW126353   9.697   6.262   7.730
 8193SOL    HW226354   9.811   6.349   7.778
 8194SOL     OW26355   4.013  12.386   5.517
 8194SOL    HW126356   4.009  12.292   5.531
 8194SOL    HW226357   4.101  12.410   5.544
 8195SOL     OW26358   1.617   8.546  12.010
 8195SOL    HW126359   1.706   8.569  11.985
 8195SOL    HW226360   1.628   8.492  12.089
 8196SOL     OW26361   6.434  10.014   5.719
 8196SOL    HW126362   6.504  10.070   5.751
 8196SOL    HW226363   6.353  10.060   5.744
 8197SOL     OW26364   1.188   1.039  12.909
 8197SOL    HW126365   1.137   0.986  12.848
 8197SOL    HW226366   1.123   1.094  12.952
 8198SOL     OW26367   1.398   4.136  12.334
 8198SOL    HW126368   1.419   4.226  12.361
 8198SOL    HW226369   1.358   4.097  12.411
 8199SOL     OW26370  12.951   3.274  13.953
 8199SOL    HW126371  13.004   3.277  14.033
 8199SOL    HW226372  13.008   3.236  13.887
 8200SOL     OW26373   5.819  14.321   4.351
 8200SOL    HW126374   5.820  14.414   4.373
 8200SOL    HW226375   5.730  14.305   4.319
 8201SOL     OW26376   8.438   2.138   4.935
 8201SOL    HW126377   8.450   2.138   5.030
 8201SOL    HW226378   8.527   2.134   4.900
 8202SOL     OW26379   6.679   4.948  11.303
 8202SOL    HW126380   6.654   4.905  11.222
 8202SOL    HW226381   6.675   4.878  11.369
 8203SOL     OW26382   9.758   8.700   0.592
 8203SOL    HW126383   9.757   8.717   0.687
 8203SOL    HW226384   9.847   8.669   0.575
 8204SOL     OW26385   8.264  11.734   5.132
 8204SOL    HW126386   8.264  11.827   5.155
 8204SOL    HW226387   8.346  11.700   5.167
 8205SOL     OW26388   4.984  11.735   4.596
 8205SOL    HW126389   4.915  11.725   4.530
 8205SOL    HW226390   5.065  11.738   4.545
 8206SOL     OW26391  12.881  13.191   5.774
 8206SOL    HW126392  12.829  13.110   5.776
 8206SOL    HW226393  12.822  13.257   5.810
 8207SOL     OW26394   5.361   6.716   9.431
 8207SOL    HW126395   5.373   6.754   9.518
 8207SOL    HW226396   5.308   6.638   9.446
 8208SOL     OW26397  11.819   2.194   3.980
 8208SOL    HW126398  11.724   2.189   3.991
 8208SOL    HW226399  11.851   2.225   4.065
 8209SOL     OW26400   2.565   4.600  12.140
 8209SOL    HW126401   2.577   4.680  12.090
 8209SOL    HW226402   2.640   4.545  12.116
 8210SOL     OW26403   5.358   4.954  14.112
 8210SOL    HW126404   5.361   5.035  14.164
 8210SOL    HW226405   5.438   4.956  14.059
 8211SOL     OW26406  11.379   2.090  14.047
 8211SOL    HW126407  11.330   2.160  14.004
 8211SOL    HW226408  11.380   2.018  13.984
 8212SOL     OW26409   0.844  14.549   3.477
 8212SOL    HW126410   0.818  14.585   3.562
 8212SOL    HW226411   0.768  14.501   3.446
 8213SOL     OW26412   0.292   2.820   9.256
 8213SOL    HW126413   0.203   2.828   9.292
 8213SOL    HW226414   0.281   2.773   9.174
 8214SOL     OW26415   4.439  13.274   5.877
 8214SOL    HW126416   4.421  13.181   5.885
 8214SOL    HW226417   4.477  13.284   5.790
 8215SOL     OW26418   8.170   1.215   5.596
 8215SOL    HW126419   8.211   1.234   5.511
 8215SOL    HW226420   8.121   1.134   5.581
 8216SOL     OW26421   4.686   3.346  10.199
 8216SOL    HW126422   4.717   3.289  10.270
 8216SOL    HW226423   4.759   3.349  10.137
 8217SOL     OW26424  12.152  12.640   6.948
 8217SOL    HW126425  12.224  12.586   6.979
 8217SOL    HW226426  12.183  12.730   6.959
 8218SOL     OW26427  10.822   4.771   1.556
 8218SOL    HW126428  10.770   4.849   1.537
 8218SOL    HW226429  10.884   4.766   1.484
 8219SOL     OW26430   8.023   8.669  13.481
 8219SOL    HW126431   8.083   8.638  13.549
 8219SOL    HW226432   8.079   8.713  13.417
 8220SOL     OW26433   4.040  13.196  14.280
 8220SOL    HW126434   3.984  13.269  14.307
 8220SOL    HW226435   4.007  13.121  14.330
 8221SOL     OW26436   7.891   2.580  14.164
 8221SOL    HW126437   7.825   2.603  14.229
 8221SOL    HW226438   7.967   2.634  14.187
 8222SOL     OW26439  12.281   6.119   5.278
 8222SOL    HW126440  12.211   6.159   5.225
 8222SOL    HW226441  12.295   6.033   5.237
 8223SOL     OW26442  13.935   2.167  13.954
 8223SOL    HW126443  14.015   2.136  13.997
 8223SOL    HW226444  13.938   2.127  13.867
 8224SOL     OW26445  11.259  12.401  11.267
 8224SOL    HW126446  11.185  12.387  11.327
 8224SOL    HW226447  11.237  12.482  11.221
 8225SOL     OW26448   5.451   8.370   8.986
 8225SOL    HW126449   5.367   8.397   9.022
 8225SOL    HW226450   5.429   8.302   8.922
 8226SOL     OW26451   0.248  12.621   7.572
 8226SOL    HW126452   0.166  12.603   7.616
 8226SOL    HW226453   0.230  12.604   7.479
 8227SOL     OW26454  13.631  11.199   0.242
 8227SOL    HW126455  13.624  11.293   0.228
 8227SOL    HW226456  13.561  11.178   0.304
 8228SOL     OW26457   0.006   1.328  13.799
 8228SOL    HW126458   0.023   1.254  13.858
 8228SOL    HW226459   0.077   1.323  13.735
 8229SOL     OW26460   2.480   5.239  13.446
 8229SOL    HW126461   2.493   5.218  13.539
 8229SOL    HW226462   2.422   5.171  13.413
 8230SOL     OW26463   1.403   7.950   4.238
 8230SOL    HW126464   1.439   7.890   4.172
 8230SOL    HW226465   1.456   7.932   4.316
 8231SOL     OW26466   3.789   7.811   7.737
 8231SOL    HW126467   3.845   7.881   7.770
 8231SOL    HW226468   3.708   7.855   7.710
 8232SOL     OW26469   3.752  13.246   5.458
 8232SOL    HW126470   3.665  13.272   5.486
 8232SOL    HW226471   3.776  13.309   5.389
 8233SOL     OW26472  13.242   4.130  11.474
 8233SOL    HW126473  13.242   4.057  11.536
 8233SOL    HW226474  13.169   4.185  11.502
 8234SOL     OW26475   4.551  13.994   1.013
 8234SOL    HW126476   4.517  13.971   0.926
 8234SOL    HW226477   4.611  13.922   1.035
 8235SOL     OW26478  13.773   9.188   9.372
 8235SOL    HW126479  13.786   9.094   9.360
 8235SOL    HW226480  13.860   9.222   9.392
 8236SOL     OW26481   3.674   8.083   3.123
 8236SOL    HW126482   3.714   8.154   3.073
 8236SOL    HW226483   3.672   8.009   3.063
 8237SOL     OW26484  14.010   6.274   6.165
 8237SOL    HW126485  13.918   6.282   6.141
 8237SOL    HW226486  14.053   6.350   6.126
 8238SOL     OW26487   8.661   9.064   2.608
 8238SOL    HW126488   8.595   9.132   2.612
 8238SOL    HW226489   8.741   9.110   2.582
 8239SOL     OW26490   2.818  14.737   5.242
 8239SOL    HW126491   2.736  14.739   5.192
 8239SOL    HW226492   2.864  14.817   5.217
 8240SOL     OW26493   1.700   9.808   9.675
 8240SOL    HW126494   1.795   9.811   9.665
 8240SOL    HW226495   1.669   9.759   9.599
 8241SOL     OW26496   2.562  10.086  14.094
 8241SOL    HW126497   2.567  10.168  14.144
 8241SOL    HW226498   2.510  10.109  14.017
 8242SOL     OW26499   3.003   3.715   5.246
 8242SOL    HW126500   2.998   3.697   5.152
 8242SOL    HW226501   3.018   3.630   5.287
 8243SOL     OW26502   6.649  12.703   0.556
 8243SOL    HW126503   6.634  12.768   0.625
 8243SOL    HW226504   6.718  12.646   0.591
 8244SOL     OW26505   0.104   5.605   6.516
 8244SOL    HW126506   0.047   5.529   6.501
 8244SOL    HW226507   0.173   5.596   6.452
 8245SOL     OW26508  11.387   4.738   6.664
 8245SOL    HW126509  11.337   4.770   6.739
 8245SOL    HW226510  11.440   4.812   6.637
 8246SOL     OW26511   7.474   4.335   1.757
 8246SOL    HW126512   7.525   4.257   1.780
 8246SOL    HW226513   7.520   4.408   1.798
 8247SOL     OW26514   4.416  14.579  12.670
 8247SOL    HW126515   4.415  14.637  12.593
 8247SOL    HW226516   4.490  14.610  12.722
 8248SOL     OW26517   2.895   6.830  13.602
 8248SOL    HW126518   2.860   6.766  13.541
 8248SOL    HW226519   2.874   6.795  13.689
 8249SOL     OW26520  10.978   0.539   5.921
 8249SOL    HW126521  10.966   0.603   5.852
 8249SOL    HW226522  10.916   0.564   5.989
 8250SOL     OW26523  13.243   3.421   2.478
 8250SOL    HW126524  13.268   3.354   2.416
 8250SOL    HW226525  13.309   3.490   2.467
 8251SOL     OW26526   9.314  13.634   7.832
 8251SOL    HW126527   9.347  13.590   7.754
 8251SOL    HW226528   9.358  13.590   7.905
 8252SOL     OW26529  12.831   9.984   5.729
 8252SOL    HW126530  12.896  10.053   5.713
 8252SOL    HW226531  12.875   9.903   5.702
 8253SOL     OW26532   2.562  14.454   3.047
 8253SOL    HW126533   2.497  14.386   3.030
 8253SOL    HW226534   2.643  14.420   3.008
 8254SOL     OW26535   7.943  10.580   4.335
 8254SOL    HW126536   7.961  10.674   4.334
 8254SOL    HW226537   7.927  10.560   4.427
 8255SOL     OW26538   6.746  12.438  10.686
 8255SOL    HW126539   6.671  12.436  10.747
 8255SOL    HW226540   6.750  12.528  10.655
 8256SOL     OW26541   7.942   2.696   2.009
 8256SOL    HW126542   8.022   2.732   2.047
 8256SOL    HW226543   7.873   2.717   2.072
 8257SOL     OW26544   6.070   7.820   5.603
 8257SOL    HW126545   5.977   7.801   5.598
 8257SOL    HW226546   6.112   7.735   5.619
 8258SOL     OW26547   5.711   0.937   3.242
 8258SOL    HW126548   5.679   0.869   3.302
 8258SOL    HW226549   5.804   0.919   3.233
 8259SOL     OW26550  13.978  12.758  11.138
 8259SOL    HW126551  14.073  12.772  11.134
 8259SOL    HW226552  13.952  12.746  11.046
 8260SOL     OW26553  13.752   5.804  10.448
 8260SOL    HW126554  13.686   5.805  10.518
 8260SOL    HW226555  13.703   5.822  10.368
 8261SOL     OW26556  12.422  11.163   9.329
 8261SOL    HW126557  12.353  11.216   9.369
 8261SOL    HW226558  12.377  11.110   9.263
 8262SOL     OW26559   9.463  11.226   5.261
 8262SOL    HW126560   9.411  11.306   5.264
 8262SOL    HW226561   9.554  11.257   5.256
 8263SOL     OW26562   1.683  14.220   0.060
 8263SOL    HW126563   1.658  14.282  14.869
 8263SOL    HW226564   1.662  14.134   0.024
 8264SOL     OW26565  14.258   3.150   9.467
 8264SOL    HW126566  14.295   3.066   9.495
 8264SOL    HW226567  14.164   3.135   9.464
 8265SOL     OW26568   6.449  13.654   7.778
 8265SOL    HW126569   6.530  13.702   7.796
 8265SOL    HW226570   6.403  13.707   7.713
 8266SOL     OW26571  12.414   0.141   3.623
 8266SOL    HW126572  12.446   0.213   3.678
 8266SOL    HW226573  12.361   0.184   3.556
 8267SOL     OW26574   6.012  13.525   1.370
 8267SOL    HW126575   6.042  13.568   1.450
 8267SOL    HW226576   6.010  13.595   1.304
 8268SOL     OW26577   4.373   2.268   4.206
 8268SOL    HW126578   4.462   2.239   4.228
 8268SOL    HW226579   4.316   2.214   4.260
 8269SOL     OW26580  13.163   9.415  10.917
 8269SOL    HW126581  13.099   9.360  10.962
 8269SOL    HW226582  13.178   9.488  10.976
 8270SOL     OW26583  13.759   6.777   8.309
 8270SOL    HW126584  13.678   6.740   8.275
 8270SOL    HW226585  13.826   6.749   8.248
 8271SOL     OW26586   7.050   5.333  10.818
 8271SOL    HW126587   7.051   5.261  10.756
 8271SOL    HW226588   6.964   5.374  10.807
 8272SOL     OW26589   3.973   9.500   3.680
 8272SOL    HW126590   3.926   9.463   3.604
 8272SOL    HW226591   3.950   9.593   3.679
 8273SOL     OW26592   6.813  11.143   4.403
 8273SOL    HW126593   6.820  11.126   4.497
 8273SOL    HW226594   6.885  11.093   4.364
 8274SOL     OW26595   7.474   8.361  13.126
 8274SOL    HW126596   7.496   8.281  13.077
 8274SOL    HW226597   7.550   8.418  13.114
 8275SOL     OW26598   5.306   2.584   2.228
 8275SOL    HW126599   5.237   2.612   2.289
 8275SOL    HW226600   5.367   2.535   2.283
 8276SOL     OW26601   3.509   0.623   6.024
 8276SOL    HW126602   3.575   0.691   6.037
 8276SOL    HW226603   3.487   0.592   6.112
 8277SOL     OW26604   6.156  10.852  10.862
 8277SOL    HW126605   6.091  10.796  10.904
 8277SOL    HW226606   6.240  10.822  10.896
 8278SOL     OW26607  11.841  11.772   3.186
 8278SOL    HW126608  11.754  11.811   3.175
 8278SOL    HW226609  11.858  11.776   3.280
 8279SOL     OW26610   2.860  14.861   4.682
 8279SOL    HW126611   2.918  14.786   4.688
 8279SOL    HW226612   2.883   0.038   4.758
 8280SOL     OW26613  11.280   0.102   1.758
 8280SOL    HW126614  11.239   0.119   1.672
 8280SOL    HW226615  11.289   0.007   1.762
 8281SOL     OW26616   4.900  11.582  14.785
 8281SOL    HW126617   4.986  11.545  14.763
 8281SOL    HW226618   4.840  11.543  14.721
 8282SOL     OW26619   5.123   6.117  10.990
 8282SOL    HW126620   5.076   6.158  10.918
 8282SOL    HW226621   5.191   6.064  10.948
 8283SOL     OW26622   8.082   5.657  12.394
 8283SOL    HW126623   8.011   5.695  12.342
 8283SOL    HW226624   8.142   5.730  12.408
 8284SOL     OW26625   2.278   4.447   1.698
 8284SOL    HW126626   2.281   4.472   1.790
 8284SOL    HW226627   2.304   4.355   1.697
 8285SOL     OW26628  13.697   1.775   7.273
 8285SOL    HW126629  13.778   1.750   7.318
 8285SOL    HW226630  13.709   1.867   7.251
 8286SOL     OW26631   1.102  10.292   0.816
 8286SOL    HW126632   1.105  10.196   0.812
 8286SOL    HW226633   1.010  10.312   0.833
 8287SOL     OW26634   0.988  12.097  13.974
 8287SOL    HW126635   0.984  12.082  13.880
 8287SOL    HW226636   0.919  12.042  14.010
 8288SOL     OW26637  10.806  13.829  12.271
 8288SOL    HW126638  10.751  13.828  12.350
 8288SOL    HW226639  10.857  13.748  12.277
 8289SOL     OW26640  12.304   0.218  11.231
 8289SOL    HW126641  12.281   0.294  11.285
 8289SOL    HW226642  12.394   0.236  11.202
 8290SOL     OW26643   4.718  14.724   6.575
 8290SOL    HW126644   4.659  14.790   6.611
 8290SOL    HW226645   4.661  14.651   6.551
 8291SOL     OW26646  12.485   3.236  11.111
 8291SOL    HW126647  12.507   3.189  11.030
 8291SOL    HW226648  12.391   3.253  11.102
 8292SOL     OW26649   0.240  12.045  11.735
 8292SOL    HW126650   0.232  12.141  11.735
 8292SOL    HW226651   0.253  12.022  11.827
 8293SOL     OW26652   9.568  12.026   3.757
 8293SOL    HW126653   9.478  12.001   3.735
 8293SOL    HW226654   9.622  11.972   3.699
 8294SOL     OW26655   4.328   9.564   9.643
 8294SOL    HW126656   4.387   9.489   9.647
 8294SOL    HW226657   4.269   9.546   9.570
 8295SOL     OW26658   3.860  10.102   6.313
 8295SOL    HW126659   3.794  10.166   6.287
 8295SOL    HW226660   3.840  10.024   6.260
 8296SOL     OW26661   1.480  11.663   3.636
 8296SOL    HW126662   1.479  11.604   3.560
 8296SOL    HW226663   1.495  11.750   3.598
 8297SOL     OW26664   2.555   5.245   9.736
 8297SOL    HW126665   2.581   5.165   9.782
 8297SOL    HW226666   2.474   5.222   9.691
 8298SOL     OW26667   5.727   8.267   6.693
 8298SOL    HW126668   5.800   8.295   6.748
 8298SOL    HW226669   5.650   8.278   6.748
 8299SOL     OW26670  14.122   0.482  10.219
 8299SOL    HW126671  14.199   0.465  10.166
 8299SOL    HW226672  14.094   0.570  10.195
 8300SOL     OW26673   2.023   0.391   4.026
 8300SOL    HW126674   1.996   0.317   4.081
 8300SOL    HW226675   2.112   0.411   4.056
 8301SOL     OW26676  12.130  11.141   6.760
 8301SOL    HW126677  12.064  11.209   6.770
 8301SOL    HW226678  12.151  11.141   6.667
 8302SOL     OW26679   3.523   3.785  12.388
 8302SOL    HW126680   3.565   3.700  12.376
 8302SOL    HW226681   3.452   3.768  12.449
 8303SOL     OW26682   0.730   3.225  12.074
 8303SOL    HW126683   0.757   3.146  12.121
 8303SOL    HW226684   0.635   3.226  12.082
 8304SOL     OW26685  13.944  10.274   9.324
 8304SOL    HW126686  13.857  10.236   9.339
 8304SOL    HW226687  13.988  10.211   9.267
 8305SOL     OW26688   2.650   9.215   7.926
 8305SOL    HW126689   2.680   9.271   7.998
 8305SOL    HW226690   2.729   9.174   7.893
 8306SOL     OW26691  13.203   5.835   7.542
 8306SOL    HW126692  13.132   5.816   7.603
 8306SOL    HW226693  13.251   5.908   7.582
 8307SOL     OW26694   4.481  11.385   1.512
 8307SOL    HW126695   4.569  11.413   1.491
 8307SOL    HW226696   4.424  11.449   1.470
 8308SOL     OW26697  12.581   5.624   1.376
 8308SOL    HW126698  12.581   5.671   1.293
 8308SOL    HW226699  12.637   5.677   1.433
 8309SOL     OW26700  13.399   0.770   0.125
 8309SOL    HW126701  13.430   0.767   0.034
 8309SOL    HW226702  13.305   0.781   0.118
 8310SOL     OW26703   4.311   7.189  12.345
 8310SOL    HW126704   4.344   7.099  12.336
 8310SOL    HW226705   4.343   7.235  12.268
 8311SOL     OW26706   2.255   5.494   2.494
 8311SOL    HW126707   2.222   5.469   2.407
 8311SOL    HW226708   2.237   5.417   2.549
 8312SOL     OW26709   3.535   6.089   8.896
 8312SOL    HW126710   3.586   6.101   8.816
 8312SOL    HW226711   3.567   6.156   8.957
 8313SOL     OW26712   1.875   4.487   3.138
 8313SOL    HW126713   1.908   4.511   3.225
 8313SOL    HW226714   1.788   4.451   3.155
 8314SOL     OW26715   7.498   3.690   2.758
 8314SOL    HW126716   7.429   3.625   2.746
 8314SOL    HW226717   7.505   3.735   2.674
 8315SOL     OW26718   9.851   9.330  12.744
 8315SOL    HW126719   9.795   9.401  12.773
 8315SOL    HW226720   9.909   9.369  12.679
 8316SOL     OW26721  12.933  13.313  11.903
 8316SOL    HW126722  12.955  13.266  11.822
 8316SOL    HW226723  12.843  13.343  11.890
 8317SOL     OW26724  14.522   3.358   8.161
 8317SOL    HW126725  14.514   3.452   8.176
 8317SOL    HW226726  14.505   3.318   8.246
 8318SOL     OW26727   5.126   3.228   3.712
 8318SOL    HW126728   5.212   3.268   3.703
 8318SOL    HW226729   5.132   3.177   3.793
 8319SOL     OW26730   9.328   0.645   3.033
 8319SOL    HW126731   9.342   0.560   2.991
 8319SOL    HW226732   9.338   0.627   3.127
 8320SOL     OW26733   8.000  12.036  13.444
 8320SOL    HW126734   7.913  12.057  13.478
 8320SOL    HW226735   7.983  11.984  13.366
 8321SOL     OW26736   4.413   8.380   9.206
 8321SOL    HW126737   4.345   8.426   9.158
 8321SOL    HW226738   4.455   8.448   9.258
 8322SOL     OW26739  12.451   1.009   4.565
 8322SOL    HW126740  12.433   0.975   4.653
 8322SOL    HW226741  12.493   0.936   4.519
 8323SOL     OW26742   1.585   8.083  12.919
 8323SOL    HW126743   1.668   8.107  12.877
 8323SOL    HW226744   1.592   8.121  13.007
 8324SOL     OW26745   9.997  10.062   6.936
 8324SOL    HW126746   9.975  10.010   7.013
 8324SOL    HW226747   9.936  10.136   6.939
 8325SOL     OW26748   1.680   1.899  11.357
 8325SOL    HW126749   1.659   1.992  11.360
 8325SOL    HW226750   1.643   1.868  11.275
 8326SOL     OW26751  10.988   4.698   9.899
 8326SOL    HW126752  11.060   4.635   9.895
 8326SOL    HW226753  10.950   4.697   9.811
 8327SOL     OW26754   1.580  11.887  11.038
 8327SOL    HW126755   1.497  11.854  11.002
 8327SOL    HW226756   1.553  11.946  11.108
 8328SOL     OW26757   3.888   3.425   1.448
 8328SOL    HW126758   3.970   3.385   1.419
 8328SOL    HW226759   3.820   3.363   1.422
 8329SOL     OW26760  12.656  12.245  10.207
 8329SOL    HW126761  12.742  12.278  10.234
 8329SOL    HW226762  12.667  12.219  10.116
 8330SOL     OW26763  11.329  12.385   9.385
 8330SOL    HW126764  11.266  12.452   9.359
 8330SOL    HW226765  11.293  12.347   9.465
 8331SOL     OW26766   2.324   9.631   1.586
 8331SOL    HW126767   2.279   9.641   1.670
 8331SOL    HW226768   2.416   9.617   1.609
 8332SOL     OW26769   8.857   6.542   3.139
 8332SOL    HW126770   8.941   6.570   3.103
 8332SOL    HW226771   8.792   6.584   3.082
 8333SOL     OW26772   9.985   1.978  11.657
 8333SOL    HW126773   9.982   2.061  11.610
 8333SOL    HW226774  10.079   1.961  11.671
 8334SOL     OW26775   5.298  10.923  14.187
 8334SOL    HW126776   5.364  10.942  14.120
 8334SOL    HW226777   5.350  10.901  14.265
 8335SOL     OW26778   6.226  13.499   3.272
 8335SOL    HW126779   6.261  13.412   3.294
 8335SOL    HW226780   6.304  13.552   3.254
 8336SOL     OW26781   0.804   9.958  11.917
 8336SOL    HW126782   0.789  10.052  11.911
 8336SOL    HW226783   0.820   9.941  12.010
 8337SOL     OW26784   4.681  10.251   5.286
 8337SOL    HW126785   4.677  10.234   5.380
 8337SOL    HW226786   4.741  10.184   5.252
 8338SOL     OW26787   8.590  14.339   8.871
 8338SOL    HW126788   8.496  14.329   8.852
 8338SOL    HW226789   8.615  14.254   8.908
 8339SOL     OW26790  12.925  14.254   3.582
 8339SOL    HW126791  12.934  14.222   3.672
 8339SOL    HW226792  12.883  14.182   3.536
 8340SOL     OW26793   8.831  14.709   7.960
 8340SOL    HW126794   8.755  14.767   7.966
 8340SOL    HW226795   8.863  14.703   8.050
 8341SOL     OW26796   0.066  11.156   2.296
 8341SOL    HW126797   0.159  11.151   2.276
 8341SOL    HW226798   0.036  11.237   2.255
 8342SOL     OW26799   9.538   1.282  12.393
 8342SOL    HW126800   9.543   1.202  12.342
 8342SOL    HW226801   9.497   1.256  12.476
 8343SOL     OW26802  10.125   2.441   3.524
 8343SOL    HW126803  10.069   2.444   3.447
 8343SOL    HW226804  10.065   2.452   3.598
 8344SOL     OW26805   5.611   5.518   0.299
 8344SOL    HW126806   5.625   5.445   0.238
 8344SOL    HW226807   5.687   5.574   0.287
 8345SOL     OW26808   2.602   5.007  12.640
 8345SOL    HW126809   2.513   5.038  12.623
 8345SOL    HW226810   2.631   5.061  12.714
 8346SOL     OW26811  14.112   0.790  11.846
 8346SOL    HW126812  14.197   0.805  11.805
 8346SOL    HW226813  14.108   0.695  11.859
 8347SOL     OW26814   2.595   9.777   2.573
 8347SOL    HW126815   2.562   9.710   2.513
 8347SOL    HW226816   2.643   9.728   2.640
 8348SOL     OW26817   7.754   5.268   6.256
 8348SOL    HW126818   7.803   5.192   6.222
 8348SOL    HW226819   7.819   5.337   6.263
 8349SOL     OW26820   8.666  10.213   1.590
 8349SOL    HW126821   8.605  10.140   1.603
 8349SOL    HW226822   8.660  10.263   1.671
 8350SOL     OW26823  12.791   3.489   8.506
 8350SOL    HW126824  12.722   3.489   8.573
 8350SOL    HW226825  12.871   3.470   8.554
 8351SOL     OW26826  14.281  13.782   1.580
 8351SOL    HW126827  14.274  13.756   1.488
 8351SOL    HW226828  14.327  13.708   1.621
 8352SOL     OW26829   3.247   5.587  12.267
 8352SOL    HW126830   3.195   5.595  12.187
 8352SOL    HW226831   3.334   5.620  12.242
 8353SOL     OW26832   0.573   3.082   4.331
 8353SOL    HW126833   0.615   3.000   4.353
 8353SOL    HW226834   0.494   3.084   4.386
 8354SOL     OW26835  10.746   4.943   6.065
 8354SOL    HW126836  10.799   4.912   5.992
 8354SOL    HW226837  10.779   5.031   6.083
 8355SOL     OW26838   7.351   4.354   6.963
 8355SOL    HW126839   7.417   4.301   7.009
 8355SOL    HW226840   7.380   4.444   6.974
 8356SOL     OW26841   3.561  11.305   5.059
 8356SOL    HW126842   3.640  11.266   5.096
 8356SOL    HW226843   3.559  11.393   5.095
 8357SOL     OW26844   1.501  14.444   6.464
 8357SOL    HW126845   1.589  14.418   6.492
 8357SOL    HW226846   1.476  14.514   6.524
 8358SOL     OW26847   3.628  14.017   7.185
 8358SOL    HW126848   3.597  13.930   7.160
 8358SOL    HW226849   3.552  14.059   7.227
 8359SOL     OW26850  14.439   6.725   8.190
 8359SOL    HW126851  14.344   6.717   8.189
 8359SOL    HW226852  14.470   6.647   8.144
 8360SOL     OW26853   8.021   8.167   2.196
 8360SOL    HW126854   8.007   8.248   2.245
 8360SOL    HW226855   8.010   8.097   2.261
 8361SOL     OW26856   0.469   6.375   8.350
 8361SOL    HW126857   0.491   6.300   8.294
 8361SOL    HW226858   0.443   6.336   8.433
 8362SOL     OW26859  12.506  10.375  11.265
 8362SOL    HW126860  12.569  10.342  11.329
 8362SOL    HW226861  12.452  10.437  11.313
 8363SOL     OW26862   1.929  11.857  10.064
 8363SOL    HW126863   1.841  11.843  10.029
 8363SOL    HW226864   1.946  11.780  10.118
 8364SOL     OW26865   0.727   0.382   4.604
 8364SOL    HW126866   0.738   0.340   4.689
 8364SOL    HW226867   0.758   0.316   4.541
 8365SOL     OW26868   0.560   7.434  10.377
 8365SOL    HW126869   0.497   7.471  10.439
 8365SOL    HW226870   0.642   7.428  10.427
 8366SOL     OW26871   0.263   4.953   9.771
 8366SOL    HW126872   0.180   5.001   9.768
 8366SOL    HW226873   0.246   4.880   9.830
 8367SOL     OW26874   8.961  11.710  10.228
 8367SOL    HW126875   8.999  11.623  10.223
 8367SOL    HW226876   8.984  11.751  10.144
 8368SOL     OW26877   7.113   0.424   6.724
 8368SOL    HW126878   7.148   0.500   6.770
 8368SOL    HW226879   7.064   0.376   6.791
 8369SOL     OW26880   8.686  13.076   4.972
 8369SOL    HW126881   8.658  13.161   5.005
 8369SOL    HW226882   8.689  13.086   4.877
 8370SOL     OW26883  14.659  14.683  12.254
 8370SOL    HW126884  14.660  14.769  12.211
 8370SOL    HW226885  14.718  14.692  12.329
 8371SOL     OW26886   1.675   3.146   1.796
 8371SOL    HW126887   1.627   3.173   1.718
 8371SOL    HW226888   1.741   3.215   1.808
 8372SOL     OW26889   1.176  10.476   8.412
 8372SOL    HW126890   1.238  10.506   8.345
 8372SOL    HW226891   1.201  10.525   8.491
 8373SOL     OW26892   0.636   7.984  13.954
 8373SOL    HW126893   0.580   8.062  13.959
 8373SOL    HW226894   0.698   7.994  14.027
 8374SOL     OW26895  12.819  10.395  13.728
 8374SOL    HW126896  12.875  10.442  13.790
 8374SOL    HW226897  12.752  10.459  13.704
 8375SOL     OW26898   5.163   3.946   7.157
 8375SOL    HW126899   5.069   3.936   7.140
 8375SOL    HW226900   5.201   3.860   7.135
 8376SOL     OW26901   4.136   3.944   9.869
 8376SOL    HW126902   4.048   3.967   9.838
 8376SOL    HW226903   4.122   3.880   9.938
 8377SOL     OW26904   7.598   1.277  11.719
 8377SOL    HW126905   7.600   1.349  11.656
 8377SOL    HW226906   7.533   1.305  11.784
 8378SOL     OW26907   1.240   2.267   1.907
 8378SOL    HW126908   1.206   2.300   1.990
 8378SOL    HW226909   1.243   2.172   1.918
 8379SOL     OW26910   5.238  12.403   5.316
 8379SOL    HW126911   5.183  12.334   5.278
 8379SOL    HW226912   5.184  12.481   5.315
 8380SOL     OW26913   8.488   6.045   2.222
 8380SOL    HW126914   8.574   6.033   2.263
 8380SOL    HW226915   8.427   6.046   2.295
 8381SOL     OW26916   0.580   4.694  11.874
 8381SOL    HW126917   0.582   4.673  11.780
 8381SOL    HW226918   0.652   4.756  11.886
 8382SOL     OW26919  12.527   2.401  10.243
 8382SOL    HW126920  12.454   2.412  10.183
 8382SOL    HW226921  12.505   2.457  10.318
 8383SOL     OW26922  14.549  14.576  11.009
 8383SOL    HW126923  14.513  14.635  11.075
 8383SOL    HW226924  14.539  14.624  10.926
 8384SOL     OW26925   0.724  13.475  11.435
 8384SOL    HW126926   0.682  13.521  11.362
 8384SOL    HW226927   0.817  13.499  11.428
 8385SOL     OW26928   9.394  10.560  12.900
 8385SOL    HW126929   9.344  10.605  12.832
 8385SOL    HW226930   9.355  10.472  12.903
 8386SOL     OW26931   1.218   0.673   8.824
 8386SOL    HW126932   1.307   0.693   8.853
 8386SOL    HW226933   1.226   0.658   8.730
 8387SOL     OW26934  12.849   7.138  14.583
 8387SOL    HW126935  12.905   7.109  14.654
 8387SOL    HW226936  12.879   7.090  14.506
 8388SOL     OW26937   8.282   6.791   3.678
 8388SOL    HW126938   8.257   6.827   3.593
 8388SOL    HW226939   8.365   6.835   3.700
 8389SOL     OW26940  12.285   8.294  10.510
 8389SOL    HW126941  12.214   8.346  10.548
 8389SOL    HW226942  12.274   8.208  10.549
 8390SOL     OW26943   8.566  12.369   1.849
 8390SOL    HW126944   8.536  12.354   1.759
 8390SOL    HW226945   8.494  12.417   1.890
 8391SOL     OW26946   1.873   1.435   6.728
 8391SOL    HW126947   1.784   1.471   6.734
 8391SOL    HW226948   1.885   1.389   6.811
 8392SOL     OW26949   7.305  10.675  14.820
 8392SOL    HW126950   7.384  10.723  14.843
 8392SOL    HW226951   7.300  10.605   0.007
 8393SOL     OW26952  12.221   2.776   3.416
 8393SOL    HW126953  12.169   2.715   3.468
 8393SOL    HW226954  12.307   2.736   3.411
 8394SOL     OW26955   0.984   8.825   8.151
 8394SOL    HW126956   0.965   8.770   8.075
 8394SOL    HW226957   0.957   8.913   8.125
 8395SOL     OW26958   7.478  13.503   9.260
 8395SOL    HW126959   7.489  13.596   9.278
 8395SOL    HW226960   7.436  13.500   9.174
 8396SOL     OW26961   0.336   1.821   4.218
 8396SOL    HW126962   0.292   1.739   4.193
 8396SOL    HW226963   0.353   1.866   4.136
 8397SOL     OW26964   4.195   9.635   0.993
 8397SOL    HW126965   4.227   9.634   1.083
 8397SOL    HW226966   4.174   9.544   0.973
 8398SOL     OW26967  11.131   5.899   7.005
 8398SOL    HW126968  11.065   5.960   7.037
 8398SOL    HW226969  11.211   5.951   6.997
 8399SOL     OW26970   4.229  10.718   0.298
 8399SOL    HW126971   4.175  10.686   0.226
 8399SOL    HW226972   4.173  10.781   0.343
 8400SOL     OW26973   5.767   5.933  11.534
 8400SOL    HW126974   5.766   5.991  11.457
 8400SOL    HW226975   5.859   5.930  11.560
 8401SOL     OW26976   7.042   9.262   8.713
 8401SOL    HW126977   7.046   9.174   8.749
 8401SOL    HW226978   7.133   9.283   8.692
 8402SOL     OW26979   2.984  11.079  14.664
 8402SOL    HW126980   3.002  10.987  14.641
 8402SOL    HW226981   2.896  11.095  14.629
 8403SOL     OW26982   5.714   2.943   8.205
 8403SOL    HW126983   5.673   2.886   8.271
 8403SOL    HW226984   5.765   3.006   8.255
 8404SOL     OW26985  13.910   0.331   9.701
 8404SOL    HW126986  13.963   0.378   9.765
 8404SOL    HW226987  13.927   0.239   9.718
 8405SOL     OW26988   1.745   5.388   5.273
 8405SOL    HW126989   1.668   5.435   5.241
 8405SOL    HW226990   1.734   5.386   5.368
 8406SOL     OW26991   1.169  14.818   5.589
 8406SOL    HW126992   1.166   0.007   5.520
 8406SOL    HW226993   1.262  14.806   5.607
 8407SOL     OW26994  10.079   8.873   4.702
 8407SOL    HW126995  10.004   8.851   4.646
 8407SOL    HW226996  10.143   8.804   4.683
 8408SOL     OW26997  10.639  10.254   4.273
 8408SOL    HW126998  10.551  10.244   4.237
 8408SOL    HW226999  10.626  10.264   4.367
 8409SOL     OW27000  13.513   3.539   8.957
 8409SOL    HW127001  13.450   3.610   8.948
 8409SOL    HW227002  13.499   3.505   9.046
 8410SOL     OW27003   6.753  12.493  14.585
 8410SOL    HW127004   6.842  12.506  14.616
 8410SOL    HW227005   6.739  12.398  14.593
 8411SOL     OW27006   1.477   8.557   0.705
 8411SOL    HW127007   1.423   8.633   0.686
 8411SOL    HW227008   1.414   8.486   0.721
 8412SOL     OW27009  10.921   3.003  12.250
 8412SOL    HW127010  10.830   2.974  12.242
 8412SOL    HW227011  10.931   3.071  12.184
 8413SOL     OW27012  13.313  10.476  14.721
 8413SOL    HW127013  13.342  10.434  14.802
 8413SOL    HW227014  13.382  10.538  14.700
 8414SOL     OW27015   4.230   0.782  13.353
 8414SOL    HW127016   4.297   0.851  13.360
 8414SOL    HW227017   4.242   0.747  13.265
 8415SOL     OW27018  12.754   2.707  14.297
 8415SOL    HW127019  12.815   2.661  14.240
 8415SOL    HW227020  12.764   2.799  14.274
 8416SOL     OW27021   3.186   4.716   1.833
 8416SOL    HW127022   3.169   4.803   1.867
 8416SOL    HW227023   3.260   4.727   1.773
 8417SOL     OW27024   7.750   0.569   3.303
 8417SOL    HW127025   7.811   0.503   3.337
 8417SOL    HW227026   7.806   0.637   3.266
 8418SOL     OW27027  11.931   5.708  11.729
 8418SOL    HW127028  11.939   5.704  11.824
 8418SOL    HW227029  11.847   5.752  11.714
 8419SOL     OW27030  12.785   1.964  11.084
 8419SOL    HW127031  12.791   1.945  10.991
 8419SOL    HW227032  12.712   2.025  11.091
 8420SOL     OW27033   5.522   8.851  12.836
 8420SOL    HW127034   5.440   8.900  12.839
 8420SOL    HW227035   5.496   8.761  12.855
 8421SOL     OW27036   2.614   0.469  13.319
 8421SOL    HW127037   2.579   0.555  13.342
 8421SOL    HW227038   2.682   0.486  13.254
 8422SOL     OW27039   0.464   5.004  12.406
 8422SOL    HW127040   0.519   5.036  12.477
 8422SOL    HW227041   0.459   4.909  12.420
 8423SOL     OW27042  14.577   9.944   1.907
 8423SOL    HW127043  14.626   9.906   1.834
 8423SOL    HW227044  14.569   9.872   1.970
 8424SOL     OW27045  11.203   8.343   7.227
 8424SOL    HW127046  11.175   8.254   7.206
 8424SOL    HW227047  11.260   8.333   7.303
 8425SOL     OW27048   1.708   0.020   2.941
 8425SOL    HW127049   1.674  14.842   3.010
 8425SOL    HW227050   1.631   0.062   2.904
 8426SOL     OW27051   2.452   3.850   0.881
 8426SOL    HW127052   2.439   3.778   0.943
 8426SOL    HW227053   2.545   3.847   0.860
 8427SOL     OW27054  14.324   1.610   0.120
 8427SOL    HW127055  14.354   1.581   0.034
 8427SOL    HW227056  14.390   1.577   0.181
 8428SOL     OW27057   0.335  11.355   0.933
 8428SOL    HW127058   0.412  11.412   0.941
 8428SOL    HW227059   0.368  11.277   0.889
 8429SOL     OW27060   8.456   9.665  13.281
 8429SOL    HW127061   8.373   9.618  13.292
 8429SOL    HW227062   8.483   9.646  13.191
 8430SOL     OW27063   5.766   1.319   2.817
 8430SOL    HW127064   5.837   1.263   2.787
 8430SOL    HW227065   5.737   1.280   2.899
 8431SOL     OW27066   7.850  13.178  10.639
 8431SOL    HW127067   7.919  13.151  10.579
 8431SOL    HW227068   7.896  13.219  10.712
 8432SOL     OW27069  13.030   6.093  10.340
 8432SOL    HW127070  12.966   6.070  10.407
 8432SOL    HW227071  12.980   6.139  10.273
 8433SOL     OW27072  13.036   6.180  12.012
 8433SOL    HW127073  13.010   6.089  12.000
 8433SOL    HW227074  12.975   6.214  12.077
 8434SOL     OW27075  12.904  12.339   8.818
 8434SOL    HW127076  12.900  12.244   8.810
 8434SOL    HW227077  12.813  12.367   8.822
 8435SOL     OW27078  11.362   2.267  13.440
 8435SOL    HW127079  11.375   2.357  13.412
 8435SOL    HW227080  11.280   2.240  13.397
 8436SOL     OW27081   7.420   2.722  11.377
 8436SOL    HW127082   7.351   2.690  11.320
 8436SOL    HW227083   7.381   2.721  11.465
 8437SOL     OW27084  14.297  12.995   9.316
 8437SOL    HW127085  14.332  13.018   9.402
 8437SOL    HW227086  14.347  12.918   9.290
 8438SOL     OW27087   2.586   7.076   3.391
 8438SOL    HW127088   2.576   7.132   3.314
 8438SOL    HW227089   2.680   7.056   3.394
 8439SOL     OW27090   7.039   1.414   8.361
 8439SOL    HW127091   7.007   1.484   8.304
 8439SOL    HW227092   7.050   1.455   8.446
 8440SOL     OW27093   7.461  10.542  11.485
 8440SOL    HW127094   7.493  10.627  11.455
 8440SOL    HW227095   7.494  10.480  11.420
 8441SOL     OW27096   1.077  10.497  11.191
 8441SOL    HW127097   1.117  10.410  11.199
 8441SOL    HW227098   1.022  10.490  11.113
 8442SOL     OW27099   4.353   5.038  11.267
 8442SOL    HW127100   4.301   5.015  11.190
 8442SOL    HW227101   4.321   5.125  11.293
 8443SOL     OW27102  14.611   0.924   3.898
 8443SOL    HW127103  14.545   0.939   3.966
 8443SOL    HW227104  14.645   1.011   3.877
 8444SOL     OW27105   3.053  11.188   0.425
 8444SOL    HW127106   3.061  11.096   0.403
 8444SOL    HW227107   3.137  11.226   0.402
 8445SOL     OW27108   0.173   7.566   1.209
 8445SOL    HW127109   0.190   7.657   1.184
 8445SOL    HW227110   0.254   7.536   1.249
 8446SOL     OW27111   1.012   4.426   2.346
 8446SOL    HW127112   0.939   4.473   2.306
 8446SOL    HW227113   1.085   4.488   2.343
 8447SOL     OW27114  12.704   5.397   0.616
 8447SOL    HW127115  12.766   5.336   0.576
 8447SOL    HW227116  12.635   5.407   0.551
 8448SOL     OW27117   6.845  10.264  11.244
 8448SOL    HW127118   6.772  10.274  11.305
 8448SOL    HW227119   6.889  10.184  11.273
 8449SOL     OW27120   2.213  12.702   1.173
 8449SOL    HW127121   2.265  12.745   1.241
 8449SOL    HW227122   2.271  12.700   1.097
 8450SOL     OW27123  14.426   1.979  12.274
 8450SOL    HW127124  14.461   2.048  12.331
 8450SOL    HW227125  14.492   1.910  12.277
 8451SOL     OW27126   0.671  10.161   0.820
 8451SOL    HW127127   0.714  10.246   0.833
 8451SOL    HW227128   0.714  10.125   0.743
 8452SOL     OW27129   6.153   2.629   5.078
 8452SOL    HW127130   6.230   2.661   5.126
 8452SOL    HW227131   6.173   2.648   4.986
 8453SOL     OW27132   4.663  10.053   4.471
 8453SOL    HW127133   4.617  10.054   4.555
 8453SOL    HW227134   4.696  10.142   4.460
 8454SOL     OW27135   3.055   1.271   9.480
 8454SOL    HW127136   3.020   1.196   9.432
 8454SOL    HW227137   3.007   1.272   9.563
 8455SOL     OW27138   0.803  14.365   8.039
 8455SOL    HW127139   0.844  14.279   8.048
 8455SOL    HW227140   0.876  14.425   8.026
 8456SOL     OW27141   9.211  13.461   0.240
 8456SOL    HW127142   9.217  13.550   0.273
 8456SOL    HW227143   9.271  13.459   0.165
 8457SOL     OW27144   5.376  10.666   1.711
 8457SOL    HW127145   5.462  10.699   1.734
 8457SOL    HW227146   5.321  10.689   1.786
 8458SOL     OW27147   2.929   6.208   6.479
 8458SOL    HW127148   2.936   6.199   6.384
 8458SOL    HW227149   2.866   6.279   6.492
 8459SOL     OW27150   2.787   0.033  10.755
 8459SOL    HW127151   2.704  14.865  10.742
 8459SOL    HW227152   2.769   0.096  10.825
 8460SOL     OW27153   7.690  14.567   6.788
 8460SOL    HW127154   7.704  14.509   6.863
 8460SOL    HW227155   7.599  14.553   6.765
 8461SOL     OW27156   4.782   9.986   6.833
 8461SOL    HW127157   4.695  10.018   6.859
 8461SOL    HW227158   4.817  10.055   6.777
 8462SOL     OW27159   0.542  11.376  10.997
 8462SOL    HW127160   0.525  11.422  10.914
 8462SOL    HW227161   0.469  11.315  11.006
 8463SOL     OW27162  12.481   6.152   3.280
 8463SOL    HW127163  12.555   6.164   3.340
 8463SOL    HW227164  12.443   6.068   3.305
 8464SOL     OW27165   5.956   8.771   7.507
 8464SOL    HW127166   6.015   8.837   7.472
 8464SOL    HW227167   6.007   8.728   7.576
 8465SOL     OW27168   0.317   2.422   0.614
 8465SOL    HW127169   0.239   2.466   0.649
 8465SOL    HW227170   0.305   2.330   0.638
 8466SOL     OW27171   8.072   4.505  12.344
 8466SOL    HW127172   8.001   4.565  12.322
 8466SOL    HW227173   8.035   4.418  12.330
 8467SOL     OW27174   7.820   4.544  12.265
 8467SOL    HW127175   7.765   4.480  12.310
 8467SOL    HW227176   7.771   4.625  12.268
 8468SOL     OW27177   7.713  12.490   0.793
 8468SOL    HW127178   7.634  12.507   0.742
 8468SOL    HW227179   7.781  12.541   0.750
 8469SOL     OW27180  12.754  10.935   1.162
 8469SOL    HW127181  12.765  11.001   1.094
 8469SOL    HW227182  12.836  10.937   1.211
 8470SOL     OW27183   5.740  11.003   6.034
 8470SOL    HW127184   5.690  10.993   6.115
 8470SOL    HW227185   5.821  11.047   6.061
 8471SOL     OW27186   1.941   4.554   8.838
 8471SOL    HW127187   1.878   4.627   8.838
 8471SOL    HW227188   2.018   4.588   8.793
 8472SOL     OW27189  10.203   7.285  12.293
 8472SOL    HW127190  10.246   7.258  12.211
 8472SOL    HW227191  10.194   7.380  12.285
 8473SOL     OW27192   6.300  12.938   9.908
 8473SOL    HW127193   6.361  12.872   9.942
 8473SOL    HW227194   6.230  12.887   9.867
 8474SOL     OW27195   9.908   0.170   7.429
 8474SOL    HW127196   9.845   0.238   7.402
 8474SOL    HW227197   9.941   0.200   7.514
 8475SOL     OW27198   1.579   0.249   9.042
 8475SOL    HW127199   1.542   0.167   9.076
 8475SOL    HW227200   1.617   0.225   8.958
 8476SOL     OW27201   0.484   0.362  12.931
 8476SOL    HW127202   0.534   0.293  12.887
 8476SOL    HW227203   0.539   0.388  13.005
 8477SOL     OW27204  10.054   5.832   1.186
 8477SOL    HW127205  10.075   5.903   1.125
 8477SOL    HW227206  10.067   5.870   1.272
 8478SOL     OW27207   9.908   1.927  10.631
 8478SOL    HW127208   9.990   1.893  10.669
 8478SOL    HW227209   9.840   1.900  10.693
 8479SOL     OW27210   0.277  13.374   3.355
 8479SOL    HW127211   0.219  13.446   3.382
 8479SOL    HW227212   0.220  13.297   3.352
 8480SOL     OW27213  13.167   4.248   5.879
 8480SOL    HW127214  13.180   4.322   5.938
 8480SOL    HW227215  13.085   4.269   5.833
 8481SOL     OW27216   8.827  14.688  12.658
 8481SOL    HW127217   8.758  14.750  12.681
 8481SOL    HW227218   8.815  14.672  12.565
 8482SOL     OW27219   2.460  13.550  11.351
 8482SOL    HW127220   2.438  13.532  11.260
 8482SOL    HW227221   2.459  13.645  11.359
 8483SOL     OW27222   1.569  12.082   0.943
 8483SOL    HW127223   1.574  12.036   1.026
 8483SOL    HW227224   1.621  12.162   0.956
 8484SOL     OW27225   5.904   0.190   2.474
 8484SOL    HW127226   5.859   0.268   2.509
 8484SOL    HW227227   5.962   0.224   2.407
 8485SOL     OW27228   0.346   3.276   6.047
 8485SOL    HW127229   0.394   3.320   5.977
 8485SOL    HW227230   0.352   3.335   6.122
 8486SOL     OW27231  10.816   2.160   7.924
 8486SOL    HW127232  10.745   2.171   7.860
 8486SOL    HW227233  10.835   2.249   7.953
 8487SOL     OW27234  12.208   9.762   1.103
 8487SOL    HW127235  12.228   9.776   1.011
 8487SOL    HW227236  12.163   9.842   1.130
 8488SOL     OW27237  10.017   4.356   3.417
 8488SOL    HW127238  10.031   4.304   3.496
 8488SOL    HW227239   9.950   4.307   3.368
 8489SOL     OW27240   6.028   8.881  12.165
 8489SOL    HW127241   6.044   8.973  12.182
 8489SOL    HW227242   6.002   8.845  12.250
 8490SOL     OW27243   2.041  12.669  14.449
 8490SOL    HW127244   2.061  12.637  14.361
 8490SOL    HW227245   2.119  12.720  14.473
 8491SOL     OW27246   2.845  14.734  14.525
 8491SOL    HW127247   2.917  14.797  14.528
 8491SOL    HW227248   2.777  14.778  14.472
 8492SOL     OW27249   0.478   7.772   5.259
 8492SOL    HW127250   0.448   7.724   5.181
 8492SOL    HW227251   0.490   7.862   5.228
 8493SOL     OW27252   6.475   1.355   1.819
 8493SOL    HW127253   6.427   1.434   1.792
 8493SOL    HW227254   6.542   1.388   1.880
 8494SOL     OW27255   3.080   4.159  14.152
 8494SOL    HW127256   3.150   4.118  14.100
 8494SOL    HW227257   3.124   4.189  14.231
 8495SOL     OW27258   3.067  13.651   4.467
 8495SOL    HW127259   3.090  13.703   4.390
 8495SOL    HW227260   2.978  13.680   4.489
 8496SOL     OW27261   6.678   3.141   1.283
 8496SOL    HW127262   6.770   3.133   1.258
 8496SOL    HW227263   6.665   3.235   1.297
 8497SOL     OW27264  14.364   2.667  14.464
 8497SOL    HW127265  14.352   2.760  14.441
 8497SOL    HW227266  14.445   2.666  14.514
 8498SOL     OW27267  13.628  10.746   7.529
 8498SOL    HW127268  13.695  10.756   7.462
 8498SOL    HW227269  13.561  10.810   7.506
 8499SOL     OW27270   1.862  12.532   6.725
 8499SOL    HW127271   1.843  12.530   6.819
 8499SOL    HW227272   1.898  12.446   6.706
 8500SOL     OW27273   3.168   7.073   2.571
 8500SOL    HW127274   3.168   7.158   2.615
 8500SOL    HW227275   3.107   7.083   2.498
 8501SOL     OW27276  12.453  12.542   7.485
 8501SOL    HW127277  12.391  12.608   7.453
 8501SOL    HW227278  12.445  12.470   7.423
 8502SOL     OW27279   1.758  14.124   0.927
 8502SOL    HW127280   1.826  14.174   0.972
 8502SOL    HW227281   1.806  14.057   0.878
 8503SOL     OW27282   9.598   1.770  10.591
 8503SOL    HW127283   9.580   1.791  10.682
 8503SOL    HW227284   9.684   1.730  10.592
 8504SOL     OW27285  11.077   3.862   7.853
 8504SOL    HW127286  11.137   3.880   7.924
 8504SOL    HW227287  11.053   3.770   7.864
 8505SOL     OW27288   1.204  12.037   8.076
 8505SOL    HW127289   1.164  12.013   8.159
 8505SOL    HW227290   1.271  12.101   8.100
 8506SOL     OW27291   8.836  10.751  14.083
 8506SOL    HW127292   8.748  10.790  14.082
 8506SOL    HW227293   8.891  10.815  14.039
 8507SOL     OW27294  12.863  14.800  12.966
 8507SOL    HW127295  12.793  14.833  12.910
 8507SOL    HW227296  12.943  14.815  12.917
 8508SOL     OW27297  14.204   8.763  12.345
 8508SOL    HW127298  14.110   8.776  12.337
 8508SOL    HW227299  14.242   8.849  12.325
 8509SOL     OW27300   0.212   3.597   8.351
 8509SOL    HW127301   0.170   3.657   8.413
 8509SOL    HW227302   0.278   3.651   8.307
 8510SOL     OW27303   3.518   2.336   0.011
 8510SOL    HW127304   3.483   2.267  14.832
 8510SOL    HW227305   3.584   2.292   0.064
 8511SOL     OW27306   2.805   7.455   3.367
 8511SOL    HW127307   2.794   7.494   3.281
 8511SOL    HW227308   2.828   7.363   3.349
 8512SOL     OW27309   9.213   9.716  13.221
 8512SOL    HW127310   9.160   9.794  13.241
 8512SOL    HW227311   9.251   9.691  13.306
 8513SOL     OW27312  13.647   9.369   6.887
 8513SOL    HW127313  13.674   9.391   6.976
 8513SOL    HW227314  13.645   9.273   6.886
 8514SOL     OW27315  11.834  13.112  13.355
 8514SOL    HW127316  11.920  13.093  13.316
 8514SOL    HW227317  11.830  13.057  13.433
 8515SOL     OW27318  14.384   5.994   5.624
 8515SOL    HW127319  14.320   6.062   5.644
 8515SOL    HW227320  14.452   6.039   5.574
 8516SOL     OW27321   4.483   4.423   9.555
 8516SOL    HW127322   4.542   4.465   9.493
 8516SOL    HW227323   4.401   4.412   9.506
 8517SOL     OW27324  11.514   2.355  14.427
 8517SOL    HW127325  11.537   2.291  14.359
 8517SOL    HW227326  11.576   2.338  14.498
 8518SOL     OW27327  10.478   6.409  13.733
 8518SOL    HW127328  10.477   6.332  13.790
 8518SOL    HW227329  10.564   6.447  13.746
 8519SOL     OW27330  14.131   5.312   2.734
 8519SOL    HW127331  14.198   5.343   2.673
 8519SOL    HW227332  14.153   5.219   2.749
 8520SOL     OW27333  12.549   0.619   6.679
 8520SOL    HW127334  12.485   0.679   6.639
 8520SOL    HW227335  12.540   0.633   6.773
 8521SOL     OW27336   3.281   2.639   0.689
 8521SOL    HW127337   3.294   2.724   0.730
 8521SOL    HW227338   3.204   2.603   0.735
 8522SOL     OW27339   2.394   6.607   6.705
 8522SOL    HW127340   2.315   6.656   6.728
 8522SOL    HW227341   2.461   6.673   6.690
 8523SOL     OW27342   6.296  11.002  11.660
 8523SOL    HW127343   6.281  10.990  11.754
 8523SOL    HW227344   6.223  10.956  11.619
 8524SOL     OW27345  12.384   1.587   9.108
 8524SOL    HW127346  12.316   1.519   9.110
 8524SOL    HW227347  12.339   1.667   9.135
 8525SOL     OW27348   1.746   5.460   7.086
 8525SOL    HW127349   1.806   5.522   7.128
 8525SOL    HW227350   1.669   5.459   7.142
 8526SOL     OW27351   1.885  13.824   7.054
 8526SOL    HW127352   1.927  13.892   7.001
 8526SOL    HW227353   1.915  13.841   7.143
 8527SOL     OW27354  13.218   3.189  11.197
 8527SOL    HW127355  13.180   3.225  11.277
 8527SOL    HW227356  13.313   3.189  11.213
 8528SOL     OW27357   7.428  10.472  11.001
 8528SOL    HW127358   7.471  10.441  10.922
 8528SOL    HW227359   7.489  10.534  11.040
 8529SOL     OW27360  14.807   8.854   5.437
 8529SOL    HW127361  14.868   8.914   5.394
 8529SOL    HW227362  14.859   8.775   5.453
 8530SOL     OW27363  12.987   3.901  11.274
 8530SOL    HW127364  12.914   3.960  11.253
 8530SOL    HW227365  12.962   3.860  11.356
 8531SOL     OW27366  11.561   2.952   2.260
 8531SOL    HW127367  11.524   3.038   2.238
 8531SOL    HW227368  11.655   2.961   2.244
 8532SOL     OW27369   8.077   5.252   9.655
 8532SOL    HW127370   8.114   5.269   9.568
 8532SOL    HW227371   8.061   5.339   9.691
 8533SOL     OW27372   6.258  13.023  13.873
 8533SOL    HW127373   6.315  12.947  13.869
 8533SOL    HW227374   6.195  13.003  13.942
 8534SOL     OW27375  10.346   4.223   1.390
 8534SOL    HW127376  10.342   4.149   1.451
 8534SOL    HW227377  10.406   4.285   1.432
 8535SOL     OW27378  14.265   0.324   6.006
 8535SOL    HW127379  14.289   0.357   5.920
 8535SOL    HW227380  14.194   0.381   6.034
 8536SOL     OW27381  14.266  12.475   7.861
 8536SOL    HW127382  14.200  12.406   7.866
 8536SOL    HW227383  14.245  12.523   7.781
 8537SOL     OW27384  11.455  11.379  11.374
 8537SOL    HW127385  11.441  11.446  11.441
 8537SOL    HW227386  11.486  11.428  11.298
 8538SOL     OW27387  12.938   6.553  11.356
 8538SOL    HW127388  12.958   6.531  11.265
 8538SOL    HW227389  12.987   6.489  11.407
 8539SOL     OW27390   2.466  14.792   3.746
 8539SOL    HW127391   2.460  14.839   3.829
 8539SOL    HW227392   2.381  14.750   3.736
 8540SOL     OW27393  13.816  10.096  13.700
 8540SOL    HW127394  13.807  10.065  13.610
 8540SOL    HW227395  13.874  10.033  13.742
 8541SOL     OW27396   0.389   3.007   6.480
 8541SOL    HW127397   0.442   2.953   6.539
 8541SOL    HW227398   0.349   2.944   6.420
 8542SOL     OW27399   6.516  13.144   4.640
 8542SOL    HW127400   6.474  13.117   4.722
 8542SOL    HW227401   6.609  13.140   4.659
 8543SOL     OW27402  14.777   4.221  12.957
 8543SOL    HW127403  14.708   4.246  13.018
 8543SOL    HW227404  14.762   4.127  12.941
 8544SOL     OW27405  13.153   9.906  12.826
 8544SOL    HW127406  13.183   9.993  12.853
 8544SOL    HW227407  13.136   9.914  12.732
 8545SOL     OW27408  11.079  13.104  13.833
 8545SOL    HW127409  11.111  13.136  13.749
 8545SOL    HW227410  11.000  13.156  13.849
 8546SOL     OW27411   0.202  10.235  13.572
 8546SOL    HW127412   0.135  10.263  13.510
 8546SOL    HW227413   0.169  10.261  13.658
 8547SOL     OW27414   5.678   2.404  11.382
 8547SOL    HW127415   5.753   2.446  11.339
 8547SOL    HW227416   5.623   2.477  11.410
 8548SOL     OW27417  14.374   4.072   6.721
 8548SOL    HW127418  14.302   4.125   6.688
 8548SOL    HW227419  14.446   4.089   6.660
 8549SOL     OW27420  14.073   9.145   5.019
 8549SOL    HW127421  14.052   9.052   5.011
 8549SOL    HW227422  14.104   9.155   5.109
 8550SOL     OW27423   8.922   1.596   4.190
 8550SOL    HW127424   8.846   1.608   4.248
 8550SOL    HW227425   8.992   1.568   4.248
 8551SOL     OW27426   0.632   7.026   5.259
 8551SOL    HW127427   0.712   7.045   5.309
 8551SOL    HW227428   0.664   6.998   5.173
 8552SOL     OW27429   4.077   4.318   9.980
 8552SOL    HW127430   4.057   4.380  10.050
 8552SOL    HW227431   4.037   4.236  10.008
 8553SOL     OW27432   3.642   2.755  13.162
 8553SOL    HW127433   3.596   2.795  13.088
 8553SOL    HW227434   3.713   2.705  13.121
 8554SOL     OW27435  10.965  11.878  12.512
 8554SOL    HW127436  10.935  11.822  12.583
 8554SOL    HW227437  10.907  11.955  12.515
 8555SOL     OW27438   1.965   0.316  11.589
 8555SOL    HW127439   2.043   0.262  11.576
 8555SOL    HW227440   1.930   0.289  11.674
 8556SOL     OW27441  11.183  12.512   1.272
 8556SOL    HW127442  11.131  12.476   1.344
 8556SOL    HW227443  11.186  12.606   1.290
 8557SOL     OW27444  11.094   9.153  10.079
 8557SOL    HW127445  11.028   9.084  10.077
 8557SOL    HW227446  11.172   9.113  10.041
 8558SOL     OW27447   5.162  12.821   8.767
 8558SOL    HW127448   5.231  12.806   8.832
 8558SOL    HW227449   5.183  12.761   8.696
 8559SOL     OW27450   5.798  12.376  12.873
 8559SOL    HW127451   5.783  12.317  12.947
 8559SOL    HW227452   5.880  12.345  12.834
 8560SOL     OW27453   6.832   5.867   7.966
 8560SOL    HW127454   6.789   5.795   7.920
 8560SOL    HW227455   6.775   5.942   7.952
 8561SOL     OW27456   8.530   6.820   7.832
 8561SOL    HW127457   8.442   6.857   7.840
 8561SOL    HW227458   8.548   6.822   7.738
 8562SOL     OW27459   4.146  14.765   9.535
 8562SOL    HW127460   4.079  14.708   9.498
 8562SOL    HW227461   4.204  14.783   9.462
 8563SOL     OW27462   7.170   4.458  14.163
 8563SOL    HW127463   7.222   4.475  14.241
 8563SOL    HW227464   7.171   4.541  14.115
 8564SOL     OW27465   9.552  11.244   7.551
 8564SOL    HW127466   9.620  11.264   7.486
 8564SOL    HW227467   9.595  11.262   7.635
 8565SOL     OW27468  10.910  10.690   8.152
 8565SOL    HW127469  10.817  10.677   8.135
 8565SOL    HW227470  10.919  10.785   8.162
 8566SOL     OW27471   3.110   5.420   7.255
 8566SOL    HW127472   3.018   5.403   7.277
 8566SOL    HW227473   3.158   5.401   7.336
 8567SOL     OW27474   8.613   7.084  12.265
 8567SOL    HW127475   8.668   7.161  12.278
 8567SOL    HW227476   8.541   7.115  12.209
 8568SOL     OW27477   5.942  10.771  13.888
 8568SOL    HW127478   5.865  10.797  13.938
 8568SOL    HW227479   5.964  10.684  13.921
 8569SOL     OW27480   0.163  13.286  11.027
 8569SOL    HW127481   0.184  13.197  11.001
 8569SOL    HW227482   0.214  13.299  11.108
 8570SOL     OW27483  13.281   7.393   2.731
 8570SOL    HW127484  13.293   7.300   2.709
 8570SOL    HW227485  13.189   7.411   2.709
 8571SOL     OW27486   7.729  10.278  10.220
 8571SOL    HW127487   7.635  10.260  10.221
 8571SOL    HW227488   7.770  10.191  10.215
 8572SOL     OW27489  10.385   3.684   7.557
 8572SOL    HW127490  10.436   3.629   7.616
 8572SOL    HW227491  10.306   3.634   7.539
 8573SOL     OW27492   5.667   6.439   0.674
 8573SOL    HW127493   5.664   6.498   0.599
 8573SOL    HW227494   5.752   6.456   0.715
 8574SOL     OW27495  12.223   0.680   3.739
 8574SOL    HW127496  12.173   0.745   3.788
 8574SOL    HW227497  12.272   0.731   3.675
 8575SOL     OW27498   9.426   1.539  14.083
 8575SOL    HW127499   9.439   1.444  14.072
 8575SOL    HW227500   9.425   1.573  13.994
 8576SOL     OW27501   7.420   2.372  14.166
 8576SOL    HW127502   7.511   2.342  14.170
 8576SOL    HW227503   7.371   2.305  14.213
 8577SOL     OW27504   4.817  12.262   3.833
 8577SOL    HW127505   4.738  12.218   3.863
 8577SOL    HW227506   4.846  12.314   3.908
 8578SOL     OW27507   7.269   7.951  10.103
 8578SOL    HW127508   7.321   7.902  10.040
 8578SOL    HW227509   7.205   7.999  10.050
 8579SOL     OW27510   1.513   0.930   5.004
 8579SOL    HW127511   1.488   0.965   4.919
 8579SOL    HW227512   1.591   0.978   5.029
 8580SOL     OW27513   3.913   3.949  13.614
 8580SOL    HW127514   3.843   4.010  13.637
 8580SOL    HW227515   3.890   3.919  13.526
 8581SOL     OW27516  12.671   4.764  12.497
 8581SOL    HW127517  12.659   4.846  12.546
 8581SOL    HW227518  12.614   4.701  12.543
 8582SOL     OW27519   3.758   3.233   0.838
 8582SOL    HW127520   3.748   3.274   0.752
 8582SOL    HW227521   3.833   3.279   0.877
 8583SOL     OW27522  14.291   6.562  13.904
 8583SOL    HW127523  14.267   6.475  13.873
 8583SOL    HW227524  14.265   6.621  13.834
 8584SOL     OW27525  12.338   4.846   6.042
 8584SOL    HW127526  12.338   4.750   6.039
 8584SOL    HW227527  12.246   4.869   6.055
 8585SOL     OW27528   7.614   1.915   1.635
 8585SOL    HW127529   7.645   2.000   1.664
 8585SOL    HW227530   7.623   1.858   1.711
 8586SOL     OW27531  12.200  14.645   1.295
 8586SOL    HW127532  12.245  14.638   1.379
 8586SOL    HW227533  12.143  14.721   1.304
 8587SOL     OW27534   1.876  12.402   6.378
 8587SOL    HW127535   1.925  12.343   6.321
 8587SOL    HW227536   1.942  12.447   6.430
 8588SOL     OW27537  13.471   2.842  10.687
 8588SOL    HW127538  13.531   2.886  10.628
 8588SOL    HW227539  13.473   2.893  10.767
 8589SOL     OW27540   2.133   5.408  13.774
 8589SOL    HW127541   2.116   5.492  13.817
 8589SOL    HW227542   2.152   5.430  13.683
 8590SOL     OW27543   8.778   3.597   9.055
 8590SOL    HW127544   8.683   3.610   9.059
 8590SOL    HW227545   8.814   3.660   9.117
 8591SOL     OW27546  13.028   0.474   5.180
 8591SOL    HW127547  13.042   0.386   5.214
 8591SOL    HW227548  13.079   0.530   5.238
 8592SOL     OW27549  12.615   6.352   5.594
 8592SOL    HW127550  12.658   6.374   5.677
 8592SOL    HW227551  12.663   6.403   5.528
 8593SOL     OW27552   1.183   8.307  12.323
 8593SOL    HW127553   1.175   8.294  12.229
 8593SOL    HW227554   1.110   8.259  12.361
 8594SOL     OW27555   6.983   9.194   3.736
 8594SOL    HW127556   7.038   9.120   3.710
 8594SOL    HW227557   6.937   9.218   3.656
 8595SOL     OW27558   3.456  13.295  10.899
 8595SOL    HW127559   3.499  13.338  10.824
 8595SOL    HW227560   3.408  13.366  10.942
 8596SOL     OW27561  12.180   5.469   7.050
 8596SOL    HW127562  12.123   5.399   7.083
 8596SOL    HW227563  12.121   5.543   7.037
 8597SOL     OW27564   8.930   8.968   2.242
 8597SOL    HW127565   9.008   8.976   2.187
 8597SOL    HW227566   8.858   8.997   2.186
 8598SOL     OW27567   1.151  13.481   1.438
 8598SOL    HW127568   1.242  13.451   1.443
 8598SOL    HW227569   1.104  13.408   1.397
 8599SOL     OW27570   7.944   2.837  12.347
 8599SOL    HW127571   7.958   2.878  12.262
 8599SOL    HW227572   7.908   2.751  12.327
 8600SOL     OW27573  12.187   0.026  14.126
 8600SOL    HW127574  12.191   0.025  14.030
 8600SOL    HW227575  12.278   0.034  14.153
 8601SOL     OW27576   6.355   5.866   3.143
 8601SOL    HW127577   6.331   5.872   3.236
 8601SOL    HW227578   6.375   5.956   3.118
 8602SOL     OW27579   2.758   2.720  13.176
 8602SOL    HW127580   2.839   2.766  13.152
 8602SOL    HW227581   2.778   2.680  13.260
 8603SOL     OW27582  14.043   2.918  12.882
 8603SOL    HW127583  13.952   2.893  12.897
 8603SOL    HW227584  14.092   2.836  12.892
 8604SOL     OW27585   1.030   7.497   5.355
 8604SOL    HW127586   1.003   7.553   5.427
 8604SOL    HW227587   1.125   7.508   5.351
 8605SOL     OW27588   8.771  11.088  11.326
 8605SOL    HW127589   8.785  11.002  11.365
 8605SOL    HW227590   8.782  11.074  11.232
 8606SOL     OW27591  14.397   4.419   5.584
 8606SOL    HW127592  14.480   4.467   5.592
 8606SOL    HW227593  14.335   4.483   5.550
 8607SOL     OW27594  11.483   7.315   6.152
 8607SOL    HW127595  11.523   7.371   6.219
 8607SOL    HW227596  11.437   7.376   6.095
 8608SOL     OW27597  12.010  12.681  13.565
 8608SOL    HW127598  12.035  12.710  13.653
 8608SOL    HW227599  11.962  12.600  13.580
 8609SOL     OW27600   1.974   2.380   4.479
 8609SOL    HW127601   1.910   2.312   4.457
 8609SOL    HW227602   2.016   2.402   4.396
 8610SOL     OW27603  13.148   5.769  10.674
 8610SOL    HW127604  13.071   5.824  10.689
 8610SOL    HW227605  13.120   5.680  10.696
 8611SOL     OW27606   4.947   0.899   7.349
 8611SOL    HW127607   4.975   0.990   7.337
 8611SOL    HW227608   5.012   0.861   7.408
 8612SOL     OW27609   6.027  11.705   3.379
 8612SOL    HW127610   5.990  11.773   3.435
 8612SOL    HW227611   6.069  11.753   3.307
 8613SOL     OW27612  13.076   1.221   7.956
 8613SOL    HW127613  12.997   1.187   7.997
 8613SOL    HW227614  13.056   1.312   7.935
 8614SOL     OW27615  12.553   2.867   2.746
 8614SOL    HW127616  12.571   2.902   2.833
 8614SOL    HW227617  12.458   2.855   2.743
 8615SOL     OW27618  10.946  12.885   2.847
 8615SOL    HW127619  10.937  12.790   2.853
 8615SOL    HW227620  10.986  12.911   2.930
 8616SOL     OW27621   2.472   7.221  10.537
 8616SOL    HW127622   2.410   7.150  10.519
 8616SOL    HW227623   2.437   7.297  10.490
 8617SOL     OW27624   0.543   4.724   1.576
 8617SOL    HW127625   0.630   4.762   1.572
 8617SOL    HW227626   0.507   4.734   1.488
 8618SOL     OW27627   8.416   5.415  10.723
 8618SOL    HW127628   8.331   5.416  10.767
 8618SOL    HW227629   8.480   5.419  10.793
 8619SOL     OW27630   2.364   8.138  10.689
 8619SOL    HW127631   2.417   8.104  10.761
 8619SOL    HW227632   2.281   8.162  10.729
 8620SOL     OW27633  12.595   9.680  13.294
 8620SOL    HW127634  12.637   9.738  13.358
 8620SOL    HW227635  12.664   9.663  13.229
 8621SOL     OW27636  10.728   9.177  12.768
 8621SOL    HW127637  10.769   9.263  12.753
 8621SOL    HW227638  10.800   9.118  12.785
 8622SOL     OW27639  12.611   9.596   8.899
 8622SOL    HW127640  12.705   9.608   8.899
 8622SOL    HW227641  12.589   9.575   8.990
 8623SOL     OW27642  13.991  14.562   8.208
 8623SOL    HW127643  14.025  14.575   8.119
 8623SOL    HW227644  13.942  14.643   8.226
 8624SOL     OW27645   3.948   4.436   2.292
 8624SOL    HW127646   4.009   4.482   2.350
 8624SOL    HW227647   3.939   4.349   2.331
 8625SOL     OW27648   6.011  10.262   5.979
 8625SOL    HW127649   5.986  10.293   6.066
 8625SOL    HW227650   6.067  10.186   5.997
 8626SOL     OW27651   7.596   8.891   1.027
 8626SOL    HW127652   7.647   8.938   1.093
 8626SOL    HW227653   7.522   8.854   1.075
 8627SOL     OW27654   2.610   2.492  11.200
 8627SOL    HW127655   2.678   2.533  11.254
 8627SOL    HW227656   2.575   2.423  11.256
 8628SOL     OW27657   5.573   9.295   0.980
 8628SOL    HW127658   5.590   9.389   0.973
 8628SOL    HW227659   5.659   9.255   0.970
 8629SOL     OW27660  13.917  14.547   0.613
 8629SOL    HW127661  13.900  14.572   0.523
 8629SOL    HW227662  13.992  14.600   0.640
 8630SOL     OW27663  13.429  12.560   6.280
 8630SOL    HW127664  13.518  12.588   6.261
 8630SOL    HW227665  13.401  12.615   6.353
 8631SOL     OW27666   1.238   3.270   5.155
 8631SOL    HW127667   1.296   3.221   5.214
 8631SOL    HW227668   1.293   3.293   5.080
 8632SOL     OW27669  10.154  10.261  12.330
 8632SOL    HW127670  10.206  10.182  12.318
 8632SOL    HW227671  10.068  10.230  12.358
 8633SOL     OW27672  10.750   2.308   5.548
 8633SOL    HW127673  10.773   2.386   5.498
 8633SOL    HW227674  10.654   2.310   5.553
 8634SOL     OW27675   1.777   6.009  10.233
 8634SOL    HW127676   1.759   6.084  10.177
 8634SOL    HW227677   1.730   5.937  10.191
 8635SOL     OW27678   9.377  10.261   9.880
 8635SOL    HW127679   9.421  10.300   9.804
 8635SOL    HW227680   9.433  10.187   9.903
 8636SOL     OW27681   6.513   7.446  12.883
 8636SOL    HW127682   6.568   7.495  12.945
 8636SOL    HW227683   6.423   7.469  12.907
 8637SOL     OW27684   9.009  14.502  11.171
 8637SOL    HW127685   8.930  14.508  11.224
 8637SOL    HW227686   8.978  14.478  11.084
 8638SOL     OW27687   2.354  10.997   1.743
 8638SOL    HW127688   2.363  11.008   1.648
 8638SOL    HW227689   2.443  10.995   1.776
 8639SOL     OW27690   1.831   9.043   6.683
 8639SOL    HW127691   1.884   8.965   6.666
 8639SOL    HW227692   1.828   9.089   6.599
 8640SOL     OW27693   6.426   3.894  10.884
 8640SOL    HW127694   6.510   3.852  10.868
 8640SOL    HW227695   6.419   3.898  10.979
 8641SOL     OW27696   2.138   2.789   5.918
 8641SOL    HW127697   2.076   2.751   5.856
 8641SOL    HW227698   2.096   2.869   5.948
 8642SOL     OW27699  13.165   6.484   7.165
 8642SOL    HW127700  13.116   6.403   7.151
 8642SOL    HW227701  13.122   6.548   7.108
 8643SOL     OW27702   1.535   9.434   5.630
 8643SOL    HW127703   1.451   9.392   5.646
 8643SOL    HW227704   1.516   9.506   5.570
 8644SOL     OW27705   7.695   1.063   6.528
 8644SOL    HW127706   7.750   1.009   6.471
 8644SOL    HW227707   7.614   1.013   6.538
 8645SOL     OW27708   8.900   1.124  10.591
 8645SOL    HW127709   8.902   1.155  10.681
 8645SOL    HW227710   8.973   1.170  10.548
 8646SOL     OW27711   7.165   4.767  14.110
 8646SOL    HW127712   7.087   4.772  14.054
 8646SOL    HW227713   7.142   4.816  14.189
 8647SOL     OW27714   1.009  11.591   3.340
 8647SOL    HW127715   1.010  11.673   3.389
 8647SOL    HW227716   1.063  11.532   3.392
 8648SOL     OW27717   1.634   1.815   7.949
 8648SOL    HW127718   1.727   1.804   7.930
 8648SOL    HW227719   1.591   1.813   7.864
 8649SOL     OW27720   5.965   7.031  14.065
 8649SOL    HW127721   5.999   6.961  14.009
 8649SOL    HW227722   5.874   7.007  14.080
 8650SOL     OW27723  10.527   5.070  12.968
 8650SOL    HW127724  10.447   5.123  12.970
 8650SOL    HW227725  10.585   5.117  12.908
 8651SOL     OW27726   9.633  11.245   8.096
 8651SOL    HW127727   9.581  11.239   8.017
 8651SOL    HW227728   9.648  11.154   8.122
 8652SOL     OW27729   8.303   9.360   6.453
 8652SOL    HW127730   8.319   9.277   6.408
 8652SOL    HW227731   8.351   9.425   6.403
 8653SOL     OW27732  12.127  10.822   2.338
 8653SOL    HW127733  12.118  10.728   2.349
 8653SOL    HW227734  12.037  10.856   2.336
 8654SOL     OW27735  10.974   3.962   7.620
 8654SOL    HW127736  11.020   3.913   7.688
 8654SOL    HW227737  11.003   3.923   7.538
 8655SOL     OW27738   7.819   4.686   3.893
 8655SOL    HW127739   7.859   4.761   3.937
 8655SOL    HW227740   7.746   4.723   3.843
 8656SOL     OW27741  13.564   7.772   2.388
 8656SOL    HW127742  13.645   7.824   2.393
 8656SOL    HW227743  13.595   7.681   2.389
 8657SOL     OW27744   7.049   7.472   4.217
 8657SOL    HW127745   6.959   7.445   4.202
 8657SOL    HW227746   7.102   7.411   4.165
 8658SOL     OW27747  10.918   6.053   5.296
 8658SOL    HW127748  10.913   6.124   5.361
 8658SOL    HW227749  10.930   6.098   5.212
 8659SOL     OW27750   3.199   7.169  12.508
 8659SOL    HW127751   3.220   7.161  12.601
 8659SOL    HW227752   3.239   7.252  12.481
 8660SOL     OW27753   6.156   5.932   8.750
 8660SOL    HW127754   6.225   5.998   8.760
 8660SOL    HW227755   6.096   5.948   8.822
 8661SOL     OW27756  10.171  11.610   5.019
 8661SOL    HW127757  10.146  11.594   5.110
 8661SOL    HW227758  10.107  11.672   4.987
 8662SOL     OW27759  11.444   6.144   4.540
 8662SOL    HW127760  11.359   6.185   4.528
 8662SOL    HW227761  11.426   6.050   4.541
 8663SOL     OW27762   9.976  13.440  10.996
 8663SOL    HW127763   9.920  13.498  10.945
 8663SOL    HW227764   9.933  13.355  10.991
 8664SOL     OW27765   3.795  13.980  11.392
 8664SOL    HW127766   3.819  13.935  11.310
 8664SOL    HW227767   3.705  14.008  11.379
 8665SOL     OW27768  10.020   4.454  11.086
 8665SOL    HW127769   9.993   4.534  11.130
 8665SOL    HW227770  10.114   4.464  11.073
 8666SOL     OW27771   7.637   8.744  12.315
 8666SOL    HW127772   7.624   8.684  12.242
 8666SOL    HW227773   7.571   8.717  12.380
 8667SOL     OW27774   2.566  11.782  14.443
 8667SOL    HW127775   2.495  11.764  14.382
 8667SOL    HW227776   2.645  11.783  14.389
 8668SOL     OW27777  11.093   4.048   0.086
 8668SOL    HW127778  11.052   4.101   0.018
 8668SOL    HW227779  11.068   3.958   0.065
 8669SOL     OW27780  13.490   4.596  10.231
 8669SOL    HW127781  13.545   4.620  10.157
 8669SOL    HW227782  13.551   4.588  10.305
 8670SOL     OW27783   8.146   3.070   1.497
 8670SOL    HW127784   8.228   3.116   1.478
 8670SOL    HW227785   8.142   3.000   1.432
 8671SOL     OW27786   0.338   1.842   9.590
 8671SOL    HW127787   0.383   1.916   9.547
 8671SOL    HW227788   0.393   1.766   9.570
 8672SOL     OW27789  11.362   5.218  13.656
 8672SOL    HW127790  11.296   5.261  13.710
 8672SOL    HW227791  11.312   5.163  13.596
 8673SOL     OW27792   3.397   5.772  14.450
 8673SOL    HW127793   3.390   5.697  14.509
 8673SOL    HW227794   3.442   5.738  14.373
 8674SOL     OW27795  10.988   8.922   4.092
 8674SOL    HW127796  10.988   8.869   4.171
 8674SOL    HW227797  10.954   9.007   4.120
 8675SOL     OW27798   3.660   2.636   7.491
 8675SOL    HW127799   3.577   2.624   7.537
 8675SOL    HW227800   3.695   2.547   7.482
 8676SOL     OW27801   1.255   5.571   8.323
 8676SOL    HW127802   1.196   5.624   8.376
 8676SOL    HW227803   1.200   5.501   8.288
 8677SOL     OW27804   3.118   4.955   4.048
 8677SOL    HW127805   3.141   4.863   4.061
 8677SOL    HW227806   3.022   4.955   4.046
 8678SOL     OW27807  12.155  13.295   8.105
 8678SOL    HW127808  12.109  13.303   8.188
 8678SOL    HW227809  12.100  13.340   8.041
 8679SOL     OW27810   4.245   1.255   8.654
 8679SOL    HW127811   4.156   1.252   8.620
 8679SOL    HW227812   4.290   1.184   8.610
 8680SOL     OW27813   9.350   4.805   6.791
 8680SOL    HW127814   9.333   4.763   6.707
 8680SOL    HW227815   9.275   4.863   6.805
 8681SOL     OW27816  12.198   5.264   9.158
 8681SOL    HW127817  12.192   5.222   9.244
 8681SOL    HW227818  12.155   5.202   9.098
 8682SOL     OW27819   0.717  14.550   2.220
 8682SOL    HW127820   0.646  14.490   2.242
 8682SOL    HW227821   0.721  14.548   2.124
 8683SOL     OW27822  11.696   7.889   1.341
 8683SOL    HW127823  11.656   7.916   1.258
 8683SOL    HW227824  11.649   7.939   1.407
 8684SOL     OW27825   8.211   4.438   2.888
 8684SOL    HW127826   8.154   4.477   2.823
 8684SOL    HW227827   8.180   4.348   2.896
 8685SOL     OW27828   3.897   8.885   3.253
 8685SOL    HW127829   3.827   8.822   3.238
 8685SOL    HW227830   3.922   8.915   3.165
 8686SOL     OW27831   9.644  12.305   2.628
 8686SOL    HW127832   9.645  12.296   2.723
 8686SOL    HW227833   9.655  12.399   2.612
 8687SOL     OW27834   6.908  13.395   1.623
 8687SOL    HW127835   6.982  13.454   1.608
 8687SOL    HW227836   6.945  13.307   1.615
 8688SOL     OW27837   6.981   0.184   7.612
 8688SOL    HW127838   6.968   0.279   7.600
 8688SOL    HW227839   7.073   0.176   7.639
 8689SOL     OW27840   8.824  11.663  14.173
 8689SOL    HW127841   8.823  11.755  14.201
 8689SOL    HW227842   8.829  11.613  14.254
 8690SOL     OW27843   4.799   0.382   9.748
 8690SOL    HW127844   4.822   0.474   9.737
 8690SOL    HW227845   4.859   0.335   9.690
 8691SOL     OW27846   0.427   8.316   4.016
 8691SOL    HW127847   0.367   8.251   4.053
 8691SOL    HW227848   0.377   8.358   3.946
 8692SOL     OW27849  13.224   5.837   3.681
 8692SOL    HW127850  13.134   5.810   3.701
 8692SOL    HW227851  13.263   5.853   3.767
 8693SOL     OW27852   0.422   6.511  13.051
 8693SOL    HW127853   0.330   6.537  13.059
 8693SOL    HW227854   0.434   6.494  12.958
 8694SOL     OW27855  14.635  10.285   8.564
 8694SOL    HW127856  14.647  10.216   8.499
 8694SOL    HW227857  14.704  10.349   8.545
 8695SOL     OW27858  10.575   1.927   0.973
 8695SOL    HW127859  10.524   1.860   1.020
 8695SOL    HW227860  10.523   2.007   0.983
 8696SOL     OW27861   5.289  13.186  10.178
 8696SOL    HW127862   5.266  13.277  10.196
 8696SOL    HW227863   5.247  13.136  10.247
 8697SOL     OW27864   0.920  11.357   3.763
 8697SOL    HW127865   0.869  11.353   3.844
 8697SOL    HW227866   0.855  11.358   3.693
 8698SOL     OW27867  11.068   8.845   6.134
 8698SOL    HW127868  11.065   8.881   6.223
 8698SOL    HW227869  10.983   8.866   6.096
 8699SOL     OW27870   2.918   8.967   0.716
 8699SOL    HW127871   3.012   8.971   0.733
 8699SOL    HW227872   2.894   8.877   0.737
 8700SOL     OW27873   8.786  13.738   2.919
 8700SOL    HW127874   8.811  13.650   2.890
 8700SOL    HW227875   8.690  13.735   2.923
 8701SOL     OW27876  12.567   9.629   5.496
 8701SOL    HW127877  12.488   9.594   5.455
 8701SOL    HW227878  12.638   9.581   5.455
 8702SOL     OW27879   1.277  12.649   3.882
 8702SOL    HW127880   1.277  12.674   3.974
 8702SOL    HW227881   1.248  12.558   3.881
 8703SOL     OW27882  13.115  11.934  13.882
 8703SOL    HW127883  13.090  11.943  13.974
 8703SOL    HW227884  13.075  12.009  13.839
 8704SOL     OW27885   4.951   9.126  13.223
 8704SOL    HW127886   4.982   9.185  13.291
 8704SOL    HW227887   4.947   9.040  13.265
 8705SOL     OW27888  13.790   5.237   7.122
 8705SOL    HW127889  13.788   5.222   7.027
 8705SOL    HW227890  13.875   5.279   7.138
 8706SOL     OW27891   9.677   5.903   9.459
 8706SOL    HW127892   9.649   5.969   9.395
 8706SOL    HW227893   9.751   5.943   9.504
 8707SOL     OW27894  11.509  14.351   0.746
 8707SOL    HW127895  11.464  14.409   0.685
 8707SOL    HW227896  11.579  14.404   0.784
 8708SOL     OW27897  10.336  13.238   3.084
 8708SOL    HW127898  10.292  13.159   3.054
 8708SOL    HW227899  10.268  13.288   3.130
 8709SOL     OW27900   1.167  12.321  10.248
 8709SOL    HW127901   1.084  12.283  10.279
 8709SOL    HW227902   1.152  12.338  10.155
 8710SOL     OW27903   1.945   8.732   0.170
 8710SOL    HW127904   1.867   8.779   0.200
 8710SOL    HW227905   1.914   8.676   0.099
 8711SOL     OW27906   3.560  14.739  13.496
 8711SOL    HW127907   3.614  14.790  13.555
 8711SOL    HW227908   3.516  14.675  13.552
 8712SOL     OW27909   2.705   5.739   9.237
 8712SOL    HW127910   2.703   5.644   9.248
 8712SOL    HW227911   2.798   5.762   9.243
 8713SOL     OW27912  11.691   5.341   1.638
 8713SOL    HW127913  11.607   5.342   1.592
 8713SOL    HW227914  11.683   5.268   1.700
 8714SOL     OW27915   7.100   6.521   5.525
 8714SOL    HW127916   7.155   6.586   5.480
 8714SOL    HW227917   7.047   6.573   5.587
 8715SOL     OW27918  13.716  12.979  10.593
 8715SOL    HW127919  13.728  12.891  10.628
 8715SOL    HW227920  13.687  13.031  10.669
 8716SOL     OW27921   8.133   9.725   6.769
 8716SOL    HW127922   8.187   9.753   6.844
 8716SOL    HW227923   8.169   9.640   6.744
 8717SOL     OW27924   2.384   3.955   0.464
 8717SOL    HW127925   2.347   3.998   0.542
 8717SOL    HW227926   2.479   3.958   0.478
 8718SOL     OW27927   9.753   3.731   5.480
 8718SOL    HW127928   9.727   3.757   5.392
 8718SOL    HW227929   9.757   3.635   5.476
 8719SOL     OW27930   5.396  10.591   8.665
 8719SOL    HW127931   5.316  10.609   8.715
 8719SOL    HW227932   5.463  10.644   8.709
 8720SOL     OW27933   4.567  12.790  11.303
 8720SOL    HW127934   4.548  12.717  11.362
 8720SOL    HW227935   4.482  12.813  11.266
 8721SOL     OW27936   6.138   1.179   4.405
 8721SOL    HW127937   6.130   1.205   4.313
 8721SOL    HW227938   6.059   1.127   4.422
 8722SOL     OW27939  12.319   0.108  11.956
 8722SOL    HW127940  12.381   0.069  11.895
 8722SOL    HW227941  12.289   0.036  12.010
 8723SOL     OW27942   5.668   4.144  11.637
 8723SOL    HW127943   5.638   4.090  11.710
 8723SOL    HW227944   5.679   4.231  11.674
 8724SOL     OW27945   9.703   2.997  11.485
 8724SOL    HW127946   9.792   2.963  11.475
 8724SOL    HW227947   9.673   3.016  11.396
 8725SOL     OW27948  12.179   3.416   9.378
 8725SOL    HW127949  12.159   3.331   9.338
 8725SOL    HW227950  12.094   3.448   9.408
 8726SOL     OW27951  14.336   8.970  12.860
 8726SOL    HW127952  14.374   8.940  12.777
 8726SOL    HW227953  14.264   9.028  12.834
 8727SOL     OW27954   1.243   4.087   3.992
 8727SOL    HW127955   1.292   4.096   3.910
 8727SOL    HW227956   1.309   4.062   4.057
 8728SOL     OW27957  10.566  12.079   8.866
 8728SOL    HW127958  10.507  12.154   8.870
 8728SOL    HW227959  10.561  12.049   8.775
 8729SOL     OW27960   1.659  12.702  12.076
 8729SOL    HW127961   1.596  12.641  12.115
 8729SOL    HW227962   1.695  12.655  12.002
 8730SOL     OW27963   6.735   5.246  12.302
 8730SOL    HW127964   6.709   5.256  12.211
 8730SOL    HW227965   6.693   5.165  12.330
 8731SOL     OW27966   5.807  14.018  12.634
 8731SOL    HW127967   5.875  13.991  12.696
 8731SOL    HW227968   5.802  13.947  12.570
 8732SOL     OW27969   7.967   6.886   6.994
 8732SOL    HW127970   7.897   6.926   7.046
 8732SOL    HW227971   8.009   6.824   7.054
 8733SOL     OW27972   2.467   8.213  10.212
 8733SOL    HW127973   2.476   8.304  10.239
 8733SOL    HW227974   2.508   8.163  10.282
 8734SOL     OW27975   9.579   4.990   9.381
 8734SOL    HW127976   9.584   5.025   9.292
 8734SOL    HW227977   9.583   4.895   9.370
 8735SOL     OW27978  14.662   9.933  10.075
 8735SOL    HW127979  14.567   9.929  10.082
 8735SOL    HW227980  14.686   9.854  10.026
 8736SOL     OW27981   9.861   5.511   5.056
 8736SOL    HW127982   9.861   5.597   5.099
 8736SOL    HW227983   9.919   5.522   4.981
 8737SOL     OW27984  11.507  13.153  14.451
 8737SOL    HW127985  11.436  13.203  14.413
 8737SOL    HW227986  11.465  13.076  14.489
 8738SOL     OW27987   6.500  12.759   1.475
 8738SOL    HW127988   6.531  12.669   1.464
 8738SOL    HW227989   6.405  12.751   1.480
 8739SOL     OW27990   8.000   4.543  12.969
 8739SOL    HW127991   8.014   4.631  12.937
 8739SOL    HW227992   8.034   4.544  13.059
 8740SOL     OW27993  14.808   0.687   5.096
 8740SOL    HW127994  14.865   0.611   5.081
 8740SOL    HW227995  14.721   0.649   5.111
 8741SOL     OW27996  10.091   1.134   4.556
 8741SOL    HW127997  10.049   1.218   4.575
 8741SOL    HW227998  10.185   1.153   4.557
 8742SOL     OW27999  10.808   7.284   0.533
 8742SOL    HW128000  10.892   7.329   0.545
 8742SOL    HW228001  10.830   7.191   0.532
 8743SOL     OW28002   7.933   4.242  12.266
 8743SOL    HW128003   7.967   4.232  12.178
 8743SOL    HW228004   7.900   4.156  12.289
 8744SOL     OW28005   5.130  10.680  12.004
 8744SOL    HW128006   5.045  10.723  12.014
 8744SOL    HW228007   5.123  10.632  11.921
 8745SOL     OW28008   3.729   5.768  10.567
 8745SOL    HW128009   3.766   5.792  10.652
 8745SOL    HW228010   3.642   5.734  10.588
 8746SOL     OW28011   6.115   8.160   6.338
 8746SOL    HW128012   6.069   8.139   6.257
 8746SOL    HW228013   6.057   8.129   6.407
 8747SOL     OW28014   9.593  11.617  12.541
 8747SOL    HW128015   9.572  11.624  12.448
 8747SOL    HW228016   9.523  11.562  12.578
 8748SOL     OW28017   3.153  11.344   2.209
 8748SOL    HW128018   3.097  11.280   2.166
 8748SOL    HW228019   3.182  11.402   2.139
 8749SOL     OW28020   1.712   4.379   8.416
 8749SOL    HW128021   1.744   4.293   8.388
 8749SOL    HW228022   1.698   4.370   8.510
 8750SOL     OW28023  14.678   6.291  13.351
 8750SOL    HW128024  14.761   6.296  13.304
 8750SOL    HW228025  14.702   6.267  13.441
 8751SOL     OW28026  14.278   4.250  10.119
 8751SOL    HW128027  14.349   4.269  10.058
 8751SOL    HW228028  14.275   4.326  10.177
 8752SOL     OW28029   4.523   8.543  11.572
 8752SOL    HW128030   4.559   8.618  11.619
 8752SOL    HW228031   4.501   8.479  11.640
 8753SOL     OW28032   7.727   9.590   0.084
 8753SOL    HW128033   7.732   9.519   0.148
 8753SOL    HW228034   7.780   9.660   0.120
 8754SOL     OW28035  10.706   1.468   6.862
 8754SOL    HW128036  10.769   1.540   6.862
 8754SOL    HW228037  10.705   1.437   6.771
 8755SOL     OW28038   3.546   1.075   4.138
 8755SOL    HW128039   3.536   1.028   4.056
 8755SOL    HW228040   3.456   1.086   4.170
 8756SOL     OW28041   4.650   4.700   9.548
 8756SOL    HW128042   4.592   4.719   9.622
 8756SOL    HW228043   4.702   4.779   9.536
 8757SOL     OW28044  14.125  12.538   5.996
 8757SOL    HW128045  14.050  12.539   5.936
 8757SOL    HW228046  14.087  12.528   6.083
 8758SOL     OW28047   9.056   9.614  13.989
 8758SOL    HW128048   9.074   9.561  13.912
 8758SOL    HW228049   9.141   9.624  14.033
 8759SOL     OW28050  11.465   2.673   6.647
 8759SOL    HW128051  11.486   2.700   6.736
 8759SOL    HW228052  11.371   2.654   6.649
 8760SOL     OW28053  12.420   9.926   0.630
 8760SOL    HW128054  12.456   9.839   0.650
 8760SOL    HW228055  12.327   9.911   0.618
 8761SOL     OW28056  13.731   4.909  14.835
 8761SOL    HW128057  13.765   4.962   0.029
 8761SOL    HW228058  13.640   4.890  14.860
 8762SOL     OW28059   5.996  10.791  11.263
 8762SOL    HW128060   6.041  10.719  11.307
 8762SOL    HW228061   6.067  10.851  11.237
 8763SOL     OW28062   5.417   9.654  10.815
 8763SOL    HW128063   5.398   9.629  10.906
 8763SOL    HW228064   5.511   9.672  10.814
 8764SOL     OW28065   0.409  10.092   0.817
 8764SOL    HW128066   0.392  10.093   0.912
 8764SOL    HW228067   0.501  10.118   0.809
 8765SOL     OW28068   4.750   7.558   0.898
 8765SOL    HW128069   4.733   7.545   0.804
 8765SOL    HW228070   4.811   7.488   0.921
 8766SOL     OW28071   1.332  14.768   0.580
 8766SOL    HW128072   1.374  14.854   0.586
 8766SOL    HW228073   1.265  14.779   0.513
 8767SOL     OW28074   4.969   3.976  13.326
 8767SOL    HW128075   4.931   4.030  13.256
 8767SOL    HW228076   5.059   3.959  13.297
 8768SOL     OW28077   4.486   1.737   6.003
 8768SOL    HW128078   4.413   1.715   6.061
 8768SOL    HW228079   4.561   1.689   6.040
 8769SOL     OW28080   4.556   0.738   6.458
 8769SOL    HW128081   4.550   0.781   6.543
 8769SOL    HW228082   4.618   0.666   6.471
 8770SOL     OW28083  11.339   9.055   9.975
 8770SOL    HW128084  11.404   8.991   9.944
 8770SOL    HW228085  11.380   9.094  10.052
 8771SOL     OW28086   7.693   8.052  12.404
 8771SOL    HW128087   7.784   8.079  12.389
 8771SOL    HW228088   7.679   7.980  12.342
 8772SOL     OW28089   3.703   6.633   6.549
 8772SOL    HW128090   3.752   6.579   6.611
 8772SOL    HW228091   3.769   6.675   6.495
 8773SOL     OW28092   0.452   0.662   2.155
 8773SOL    HW128093   0.491   0.744   2.184
 8773SOL    HW228094   0.505   0.594   2.196
 8774SOL     OW28095   5.079   8.174   3.093
 8774SOL    HW128096   5.039   8.219   3.018
 8774SOL    HW228097   5.169   8.156   3.064
 8775SOL     OW28098   6.974   7.944   3.808
 8775SOL    HW128099   7.046   7.986   3.762
 8775SOL    HW228100   6.898   7.957   3.752
 8776SOL     OW28101   5.874  13.983  14.830
 8776SOL    HW128102   5.908  13.924  14.762
 8776SOL    HW228103   5.835  14.055  14.781
 8777SOL     OW28104   6.516  11.897   0.981
 8777SOL    HW128105   6.475  11.927   1.062
 8777SOL    HW228106   6.487  11.960   0.915
 8778SOL     OW28107   0.584   3.415   8.467
 8778SOL    HW128108   0.531   3.447   8.541
 8778SOL    HW228109   0.659   3.373   8.508
 8779SOL     OW28110   1.309   0.682   1.722
 8779SOL    HW128111   1.396   0.642   1.722
 8779SOL    HW228112   1.310   0.744   1.795
 8780SOL     OW28113  14.566   9.119   9.547
 8780SOL    HW128114  14.589   9.204   9.585
 8780SOL    HW228115  14.533   9.068   9.621
 8781SOL     OW28116   2.514   9.342  14.134
 8781SOL    HW128117   2.595   9.327  14.183
 8781SOL    HW228118   2.530   9.301  14.049
 8782SOL     OW28119  12.687   9.251   7.971
 8782SOL    HW128120  12.713   9.167   8.009
 8782SOL    HW228121  12.593   9.243   7.958
 8783SOL     OW28122   7.969   0.365  11.909
 8783SOL    HW128123   8.003   0.289  11.862
 8783SOL    HW228124   8.023   0.369  11.989
 8784SOL     OW28125   7.995  10.760   6.633
 8784SOL    HW128126   8.017  10.775   6.542
 8784SOL    HW228127   7.953  10.674   6.634
 8785SOL     OW28128   6.866   4.486  10.010
 8785SOL    HW128129   6.921   4.561   9.988
 8785SOL    HW228130   6.885   4.469  10.103
 8786SOL     OW28131   0.657   4.384   6.644
 8786SOL    HW128132   0.589   4.423   6.699
 8786SOL    HW228133   0.735   4.436   6.661
 8787SOL     OW28134  10.898  12.752  12.097
 8787SOL    HW128135  10.890  12.847  12.108
 8787SOL    HW228136  10.816  12.718  12.132
 8788SOL     OW28137   0.225  13.710   7.180
 8788SOL    HW128138   0.300  13.657   7.152
 8788SOL    HW228139   0.221  13.698   7.275
 8789SOL     OW28140   9.537  13.582   9.243
 8789SOL    HW128141   9.619  13.537   9.263
 8789SOL    HW228142   9.502  13.535   9.167
 8790SOL     OW28143  13.130   0.715  13.337
 8790SOL    HW128144  13.096   0.666  13.411
 8790SOL    HW228145  13.055   0.766  13.305
 8791SOL     OW28146   3.160  10.998   4.463
 8791SOL    HW128147   3.069  11.015   4.484
 8791SOL    HW228148   3.190  11.078   4.419
 8792SOL     OW28149   1.862   4.959  13.003
 8792SOL    HW128150   1.851   4.972  12.909
 8792SOL    HW228151   1.779   4.986  13.041
 8793SOL     OW28152  14.699   2.294  12.783
 8793SOL    HW128153  14.748   2.355  12.839
 8793SOL    HW228154  14.646   2.243  12.844
 8794SOL     OW28155   1.697   1.480   0.594
 8794SOL    HW128156   1.670   1.425   0.521
 8794SOL    HW228157   1.694   1.569   0.559
 8795SOL     OW28158   7.817  13.491  12.083
 8795SOL    HW128159   7.898  13.496  12.133
 8795SOL    HW228160   7.771  13.572  12.104
 8796SOL     OW28161   7.394   0.324   7.200
 8796SOL    HW128162   7.358   0.242   7.233
 8796SOL    HW228163   7.342   0.344   7.122
 8797SOL     OW28164   0.333   4.605   3.489
 8797SOL    HW128165   0.403   4.543   3.505
 8797SOL    HW228166   0.295   4.577   3.406
 8798SOL     OW28167   2.297   9.682   5.264
 8798SOL    HW128168   2.285   9.587   5.267
 8798SOL    HW228169   2.208   9.717   5.271
 8799SOL     OW28170   7.173  14.402  11.756
 8799SOL    HW128171   7.095  14.392  11.811
 8799SOL    HW228172   7.203  14.492  11.772
 8800SOL     OW28173   3.445   7.489  14.664
 8800SOL    HW128174   3.373   7.468  14.604
 8800SOL    HW228175   3.413   7.463  14.750
 8801SOL     OW28176   6.647  12.682   8.020
 8801SOL    HW128177   6.684  12.700   7.934
 8801SOL    HW228178   6.560  12.721   8.018
 8802SOL     OW28179   1.080   0.781   8.493
 8802SOL    HW128180   1.016   0.714   8.517
 8802SOL    HW228181   1.085   0.775   8.397
 8803SOL     OW28182   7.754  12.068   9.484
 8803SOL    HW128183   7.670  12.054   9.441
 8803SOL    HW228184   7.735  12.127   9.557
 8804SOL     OW28185  10.743  14.822  14.224
 8804SOL    HW128186  10.748  14.739  14.176
 8804SOL    HW228187  10.813  14.816  14.289
 8805SOL     OW28188   3.806   9.248   0.731
 8805SOL    HW128189   3.770   9.297   0.805
 8805SOL    HW228190   3.747   9.173   0.720
 8806SOL     OW28191  10.599  14.875  12.141
 8806SOL    HW128192  10.533  14.874  12.072
 8806SOL    HW228193  10.567  14.813  12.206
 8807SOL     OW28194   4.411   5.436  11.764
 8807SOL    HW128195   4.494   5.390  11.752
 8807SOL    HW228196   4.345   5.366  11.766
 8808SOL     OW28197   5.413   8.627   1.049
 8808SOL    HW128198   5.360   8.687   1.101
 8808SOL    HW228199   5.364   8.617   0.967
 8809SOL     OW28200  13.283   3.098   4.495
 8809SOL    HW128201  13.264   3.137   4.580
 8809SOL    HW228202  13.198   3.066   4.464
 8810SOL     OW28203   9.816   6.321   0.539
 8810SOL    HW128204   9.902   6.305   0.579
 8810SOL    HW228205   9.773   6.382   0.599
 8811SOL     OW28206   2.202   1.570   4.128
 8811SOL    HW128207   2.230   1.645   4.181
 8811SOL    HW228208   2.191   1.499   4.191
 8812SOL     OW28209   2.760  12.745   3.968
 8812SOL    HW128210   2.796  12.738   3.880
 8812SOL    HW228211   2.834  12.725   4.026
 8813SOL     OW28212   2.887  11.819   7.509
 8813SOL    HW128213   2.896  11.824   7.604
 8813SOL    HW228214   2.823  11.750   7.494
 8814SOL     OW28215   8.393  10.825  14.435
 8814SOL    HW128216   8.378  10.919  14.440
 8814SOL    HW228217   8.320  10.786  14.482
 8815SOL     OW28218  13.644  10.438   9.053
 8815SOL    HW128219  13.587  10.465   8.982
 8815SOL    HW228220  13.600  10.363   9.092
 8816SOL     OW28221   6.291   2.075   9.200
 8816SOL    HW128222   6.248   2.085   9.115
 8816SOL    HW228223   6.219   2.050   9.259
 8817SOL     OW28224  13.859  11.233   2.814
 8817SOL    HW128225  13.905  11.310   2.846
 8817SOL    HW228226  13.894  11.160   2.865
 8818SOL     OW28227  11.661  14.399   3.499
 8818SOL    HW128228  11.608  14.345   3.440
 8818SOL    HW228229  11.603  14.418   3.573
 8819SOL     OW28230  13.119  13.537   7.217
 8819SOL    HW128231  13.083  13.547   7.129
 8819SOL    HW228232  13.067  13.596   7.272
 8820SOL     OW28233   0.959   8.233   2.138
 8820SOL    HW128234   0.938   8.147   2.175
 8820SOL    HW228235   1.015   8.274   2.204
 8821SOL     OW28236  13.987   7.222   0.073
 8821SOL    HW128237  13.964   7.291   0.010
 8821SOL    HW228238  13.982   7.266   0.158
 8822SOL     OW28239   9.078  14.516   9.470
 8822SOL    HW128240   9.151  14.545   9.526
 8822SOL    HW228241   9.064  14.425   9.495
 8823SOL     OW28242   8.184  11.974  10.524
 8823SOL    HW128243   8.259  11.946  10.576
 8823SOL    HW228244   8.115  11.991  10.589
 8824SOL     OW28245   0.302  10.825  12.700
 8824SOL    HW128246   0.370  10.788  12.645
 8824SOL    HW228247   0.250  10.750  12.729
 8825SOL     OW28248   2.175   1.995   1.272
 8825SOL    HW128249   2.167   1.914   1.322
 8825SOL    HW228250   2.143   2.063   1.332
 8826SOL     OW28251  11.905   2.793  11.472
 8826SOL    HW128252  11.955   2.825  11.398
 8826SOL    HW228253  11.871   2.708  11.444
 8827SOL     OW28254   8.906   7.858   0.607
 8827SOL    HW128255   8.885   7.900   0.690
 8827SOL    HW228256   8.826   7.866   0.555
 8828SOL     OW28257   4.945   6.137   9.016
 8828SOL    HW128258   4.968   6.193   9.090
 8828SOL    HW228259   4.887   6.191   8.963
 8829SOL     OW28260   1.058   3.984   1.503
 8829SOL    HW128261   1.101   3.935   1.573
 8829SOL    HW228262   1.071   3.932   1.425
 8830SOL     OW28263   8.513   9.762   6.880
 8830SOL    HW128264   8.460   9.684   6.865
 8830SOL    HW228265   8.519   9.805   6.795
 8831SOL     OW28266   7.980  13.689   4.089
 8831SOL    HW128267   8.059  13.711   4.139
 8831SOL    HW228268   7.987  13.739   4.009
 8832SOL     OW28269  13.083   0.559   2.780
 8832SOL    HW128270  13.113   0.641   2.740
 8832SOL    HW228271  13.041   0.511   2.709
 8833SOL     OW28272   0.677   5.098   8.071
 8833SOL    HW128273   0.599   5.126   8.119
 8833SOL    HW228274   0.671   5.145   7.987
 8834SOL     OW28275   4.018   4.858   8.593
 8834SOL    HW128276   4.061   4.870   8.509
 8834SOL    HW228277   3.988   4.945   8.618
 8835SOL     OW28278   6.346   2.237  14.396
 8835SOL    HW128279   6.339   2.208  14.305
 8835SOL    HW228280   6.256   2.246  14.425
 8836SOL     OW28281   1.629   7.988   7.947
 8836SOL    HW128282   1.712   7.945   7.965
 8836SOL    HW228283   1.570   7.957   8.016
 8837SOL     OW28284   1.410  11.165   1.138
 8837SOL    HW128285   1.356  11.089   1.117
 8837SOL    HW228286   1.385  11.230   1.073
 8838SOL     OW28287   9.730   6.640   6.294
 8838SOL    HW128288   9.708   6.593   6.374
 8838SOL    HW228289   9.673   6.602   6.227
 8839SOL     OW28290   9.007  11.323   2.379
 8839SOL    HW128291   8.943  11.383   2.418
 8839SOL    HW228292   8.954  11.250   2.346
 8840SOL     OW28293   2.220   2.606   9.398
 8840SOL    HW128294   2.226   2.698   9.425
 8840SOL    HW228295   2.291   2.594   9.335
 8841SOL     OW28296   1.392   7.258   9.009
 8841SOL    HW128297   1.481   7.261   9.044
 8841SOL    HW228298   1.362   7.349   9.012
 8842SOL     OW28299   4.908   0.937  10.576
 8842SOL    HW128300   4.972   0.890  10.630
 8842SOL    HW228301   4.948   1.023  10.561
 8843SOL     OW28302   1.645  14.463   8.539
 8843SOL    HW128303   1.619  14.553   8.558
 8843SOL    HW228304   1.726  14.451   8.588
 8844SOL     OW28305   5.905   3.643   1.137
 8844SOL    HW128306   5.826   3.639   1.082
 8844SOL    HW228307   5.872   3.638   1.227
 8845SOL     OW28308   1.221   4.560   8.530
 8845SOL    HW128309   1.238   4.622   8.459
 8845SOL    HW228310   1.126   4.551   8.532
 8846SOL     OW28311   5.499  13.526   5.210
 8846SOL    HW128312   5.511  13.495   5.120
 8846SOL    HW228313   5.404  13.526   5.223
 8847SOL     OW28314  12.547   6.122   4.369
 8847SOL    HW128315  12.544   6.179   4.446
 8847SOL    HW228316  12.518   6.036   4.401
 8848SOL     OW28317   9.837   5.336  12.529
 8848SOL    HW128318   9.891   5.414  12.527
 8848SOL    HW228319   9.891   5.267  12.489
 8849SOL     OW28320   9.192   7.603   2.408
 8849SOL    HW128321   9.154   7.598   2.495
 8849SOL    HW228322   9.236   7.519   2.396
 8850SOL     OW28323  12.065   7.973   9.902
 8850SOL    HW128324  12.033   7.915   9.832
 8850SOL    HW228325  12.160   7.964   9.898
 8851SOL     OW28326   3.810  11.392   7.367
 8851SOL    HW128327   3.805  11.471   7.313
 8851SOL    HW228328   3.738  11.338   7.337
 8852SOL     OW28329   1.616   7.019  11.121
 8852SOL    HW128330   1.555   6.947  11.137
 8852SOL    HW228331   1.562   7.098  11.126
 8853SOL     OW28332  13.299   4.918  12.157
 8853SOL    HW128333  13.227   4.925  12.219
 8853SOL    HW228334  13.376   4.950  12.206
 8854SOL     OW28335   6.375   3.192  14.461
 8854SOL    HW128336   6.308   3.259  14.444
 8854SOL    HW228337   6.338   3.112  14.424
 8855SOL     OW28338   3.831   4.647   5.347
 8855SOL    HW128339   3.759   4.710   5.345
 8855SOL    HW228340   3.846   4.625   5.255
 8856SOL     OW28341   3.159   2.937   3.643
 8856SOL    HW128342   3.205   3.004   3.593
 8856SOL    HW228343   3.227   2.874   3.668
 8857SOL     OW28344   8.215   7.901  14.561
 8857SOL    HW128345   8.247   7.916  14.650
 8857SOL    HW228346   8.267   7.827  14.529
 8858SOL     OW28347   9.943  10.020   8.637
 8858SOL    HW128348   9.930   9.987   8.548
 8858SOL    HW228349   9.930   9.943   8.693
 8859SOL     OW28350   0.950  12.218  11.971
 8859SOL    HW128351   0.921  12.211  11.881
 8859SOL    HW228352   1.034  12.263  11.965
 8860SOL     OW28353   2.323   4.846   1.394
 8860SOL    HW128354   2.271   4.927   1.390
 8860SOL    HW228355   2.275   4.784   1.339
 8861SOL     OW28356   3.667  13.067  13.791
 8861SOL    HW128357   3.596  13.060  13.855
 8861SOL    HW228358   3.744  13.030  13.836
 8862SOL     OW28359   7.261   4.493   5.670
 8862SOL    HW128360   7.313   4.573   5.675
 8862SOL    HW228361   7.260   4.459   5.760
 8863SOL     OW28362   5.124   9.683  10.238
 8863SOL    HW128363   5.049   9.637  10.199
 8863SOL    HW228364   5.184   9.697  10.164
 8864SOL     OW28365   8.360  12.517  11.318
 8864SOL    HW128366   8.296  12.479  11.378
 8864SOL    HW228367   8.444  12.502  11.360
 8865SOL     OW28368   7.923   7.978   1.093
 8865SOL    HW128369   7.943   7.953   1.003
 8865SOL    HW228370   7.979   7.922   1.147
 8866SOL     OW28371   6.766  13.490  13.125
 8866SOL    HW128372   6.744  13.399  13.144
 8866SOL    HW228373   6.855  13.501  13.159
 8867SOL     OW28374   8.148  10.785   8.522
 8867SOL    HW128375   8.235  10.785   8.561
 8867SOL    HW228376   8.136  10.695   8.491
 8868SOL     OW28377   8.525   0.019  11.180
 8868SOL    HW128378   8.585   0.001  11.108
 8868SOL    HW228379   8.456  14.831  11.171
 8869SOL     OW28380   2.717  10.884  13.972
 8869SOL    HW128381   2.719  10.806  14.027
 8869SOL    HW228382   2.789  10.939  14.005
 8870SOL     OW28383   8.163   9.991   9.841
 8870SOL    HW128384   8.240  10.015   9.788
 8870SOL    HW228385   8.198   9.975   9.928
 8871SOL     OW28386  12.477   6.958  13.610
 8871SOL    HW128387  12.526   6.877  13.626
 8871SOL    HW228388  12.389   6.929  13.586
 8872SOL     OW28389  11.029   2.441   4.825
 8872SOL    HW128390  11.045   2.480   4.739
 8872SOL    HW228391  10.934   2.442   4.834
 8873SOL     OW28392   6.992   3.934  13.134
 8873SOL    HW128393   6.925   3.964  13.195
 8873SOL    HW228394   7.019   4.013  13.087
 8874SOL     OW28395   7.996   5.387  11.022
 8874SOL    HW128396   7.916   5.434  11.002
 8874SOL    HW228397   8.021   5.416  11.110
 8875SOL     OW28398   0.697  10.094   2.639
 8875SOL    HW128399   0.712  10.189   2.640
 8875SOL    HW228400   0.781  10.056   2.665
 8876SOL     OW28401   7.972   5.199   2.204
 8876SOL    HW128402   7.900   5.161   2.254
 8876SOL    HW228403   8.029   5.125   2.184
 8877SOL     OW28404  10.240   2.724  12.098
 8877SOL    HW128405  10.163   2.723  12.155
 8877SOL    HW228406  10.208   2.759  12.015
 8878SOL     OW28407  10.031  10.657   4.412
 8878SOL    HW128408  10.020  10.625   4.322
 8878SOL    HW228409  10.126  10.663   4.424
 8879SOL     OW28410  14.713   3.454   7.753
 8879SOL    HW128411  14.743   3.410   7.833
 8879SOL    HW228412  14.641   3.509   7.781
 8880SOL     OW28413   5.110   9.409   9.787
 8880SOL    HW128414   5.106   9.350   9.863
 8880SOL    HW228415   5.110   9.497   9.825
 8881SOL     OW28416   8.574   9.339   2.657
 8881SOL    HW128417   8.514   9.412   2.641
 8881SOL    HW228418   8.657   9.367   2.617
 8882SOL     OW28419   8.294   4.696   1.888
 8882SOL    HW128420   8.220   4.636   1.889
 8882SOL    HW228421   8.255   4.782   1.906
 8883SOL     OW28422   2.664  14.665  11.238
 8883SOL    HW128423   2.750  14.688  11.273
 8883SOL    HW228424   2.661  14.707  11.151
 8884SOL     OW28425   8.954   2.904   4.472
 8884SOL    HW128426   8.952   2.841   4.544
 8884SOL    HW228427   9.042   2.940   4.474
 8885SOL     OW28428   3.287   3.577   3.841
 8885SOL    HW128429   3.223   3.525   3.793
 8885SOL    HW228430   3.344   3.511   3.882
 8886SOL     OW28431  12.058   6.675   5.488
 8886SOL    HW128432  12.053   6.746   5.424
 8886SOL    HW228433  11.986   6.693   5.548
 8887SOL     OW28434  10.891   1.742   2.978
 8887SOL    HW128435  10.910   1.779   3.064
 8887SOL    HW228436  10.840   1.663   2.996
 8888SOL     OW28437   3.274   3.639   0.590
 8888SOL    HW128438   3.347   3.693   0.620
 8888SOL    HW228439   3.303   3.549   0.602
 8889SOL     OW28440   6.023   2.941  10.612
 8889SOL    HW128441   6.014   2.942  10.707
 8889SOL    HW228442   6.060   3.027  10.591
 8890SOL     OW28443   9.145   1.895  10.299
 8890SOL    HW128444   9.136   1.909  10.393
 8890SOL    HW228445   9.228   1.848  10.290
 8891SOL     OW28446   0.258   2.322   6.725
 8891SOL    HW128447   0.212   2.405   6.716
 8891SOL    HW228448   0.293   2.323   6.815
 8892SOL     OW28449   2.180   2.031  11.453
 8892SOL    HW128450   2.114   1.994  11.394
 8892SOL    HW228451   2.262   1.990  11.427
 8893SOL     OW28452  13.713  13.896  12.068
 8893SOL    HW128453  13.677  13.807  12.071
 8893SOL    HW228454  13.670  13.942  12.140
 8894SOL     OW28455  12.710   2.485   5.360
 8894SOL    HW128456  12.776   2.433   5.406
 8894SOL    HW228457  12.665   2.534   5.429
 8895SOL     OW28458   5.565   5.599  11.726
 8895SOL    HW128459   5.610   5.682  11.739
 8895SOL    HW228460   5.597   5.567  11.642
 8896SOL     OW28461   9.939   9.575  12.984
 8896SOL    HW128462   9.954   9.481  12.995
 8896SOL    HW228463  10.016   9.616  13.023
 8897SOL     OW28464   8.398   2.804   4.752
 8897SOL    HW128465   8.336   2.773   4.819
 8897SOL    HW228466   8.344   2.856   4.693
 8898SOL     OW28467   9.425   4.312  11.238
 8898SOL    HW128468   9.413   4.395  11.283
 8898SOL    HW228469   9.520   4.303  11.228
 8899SOL     OW28470   8.335  13.603  14.514
 8899SOL    HW128471   8.342  13.697  14.498
 8899SOL    HW228472   8.255  13.578  14.468
 8900SOL     OW28473   8.431  10.865   6.547
 8900SOL    HW128474   8.496  10.828   6.607
 8900SOL    HW228475   8.382  10.928   6.599
 8901SOL     OW28476   2.575   5.975   0.954
 8901SOL    HW128477   2.530   5.984   1.038
 8901SOL    HW228478   2.587   6.065   0.924
 8902SOL     OW28479   2.671  11.537  13.514
 8902SOL    HW128480   2.747  11.575  13.471
 8902SOL    HW228481   2.688  11.547  13.608
 8903SOL     OW28482   7.818  11.040   9.166
 8903SOL    HW128483   7.770  11.123   9.170
 8903SOL    HW228484   7.764  10.984   9.110
 8904SOL     OW28485   5.505   0.625   5.709
 8904SOL    HW128486   5.535   0.689   5.774
 8904SOL    HW228487   5.577   0.618   5.647
 8905SOL     OW28488  11.582   4.940   3.879
 8905SOL    HW128489  11.659   4.921   3.932
 8905SOL    HW228490  11.568   4.861   3.827
 8906SOL     OW28491   7.686  14.629   9.546
 8906SOL    HW128492   7.673  14.642   9.639
 8906SOL    HW228493   7.598  14.611   9.512
 8907SOL     OW28494  14.717   5.032   2.554
 8907SOL    HW128495  14.652   5.082   2.604
 8907SOL    HW228496  14.776   5.098   2.517
 8908SOL     OW28497  13.719   0.862   4.721
 8908SOL    HW128498  13.728   0.951   4.756
 8908SOL    HW228499  13.782   0.810   4.771
 8909SOL     OW28500  11.251  10.701   6.078
 8909SOL    HW128501  11.254  10.711   5.982
 8909SOL    HW228502  11.337  10.666   6.101
 8910SOL     OW28503  11.170   7.884  11.136
 8910SOL    HW128504  11.123   7.918  11.059
 8910SOL    HW228505  11.150   7.791  11.136
 8911SOL     OW28506  12.516   6.848  12.266
 8911SOL    HW128507  12.490   6.761  12.296
 8911SOL    HW228508  12.587   6.832  12.204
 8912SOL     OW28509   1.398   8.700   7.370
 8912SOL    HW128510   1.494   8.702   7.367
 8912SOL    HW228511   1.376   8.607   7.378
 8913SOL     OW28512   2.431   5.889   2.777
 8913SOL    HW128513   2.389   5.891   2.691
 8913SOL    HW228514   2.488   5.965   2.777
 8914SOL     OW28515  12.189  12.215   4.896
 8914SOL    HW128516  12.112  12.236   4.950
 8914SOL    HW228517  12.239  12.154   4.949
 8915SOL     OW28518   8.415   4.046  14.773
 8915SOL    HW128519   8.354   4.117  14.753
 8915SOL    HW228520   8.493   4.091  14.805
 8916SOL     OW28521  14.541   1.142  14.665
 8916SOL    HW128522  14.614   1.195  14.632
 8916SOL    HW228523  14.582   1.072  14.715
 8917SOL     OW28524   1.872   0.378   8.069
 8917SOL    HW128525   1.811   0.425   8.012
 8917SOL    HW228526   1.908   0.446   8.126
 8918SOL     OW28527   4.829   5.305   4.155
 8918SOL    HW128528   4.904   5.346   4.199
 8918SOL    HW228529   4.771   5.379   4.135
 8919SOL     OW28530   3.525   0.959  12.352
 8919SOL    HW128531   3.545   0.916  12.269
 8919SOL    HW228532   3.442   0.921  12.380
 8920SOL     OW28533  14.043   6.794   8.347
 8920SOL    HW128534  14.129   6.822   8.378
 8920SOL    HW228535  14.001   6.756   8.424
 8921SOL     OW28536  12.693   5.807   8.988
 8921SOL    HW128537  12.770   5.855   8.958
 8921SOL    HW228538  12.639   5.873   9.030
 8922SOL     OW28539  10.583   2.592   8.364
 8922SOL    HW128540  10.601   2.530   8.293
 8922SOL    HW228541  10.602   2.542   8.444
 8923SOL     OW28542  11.258  10.191   4.076
 8923SOL    HW128543  11.247  10.196   3.981
 8923SOL    HW228544  11.337  10.138   4.088
 8924SOL     OW28545  11.489  12.806   2.141
 8924SOL    HW128546  11.450  12.846   2.219
 8924SOL    HW228547  11.420  12.751   2.105
 8925SOL     OW28548   3.905  10.554   2.231
 8925SOL    HW128549   3.813  10.528   2.231
 8925SOL    HW228550   3.944  10.506   2.304
 8926SOL     OW28551  10.366   8.312  10.793
 8926SOL    HW128552  10.411   8.314  10.708
 8926SOL    HW228553  10.351   8.404  10.814
 8927SOL     OW28554   4.139   3.269   1.440
 8927SOL    HW128555   4.158   3.179   1.464
 8927SOL    HW228556   4.211   3.320   1.477
 8928SOL     OW28557   0.755   9.895   6.792
 8928SOL    HW128558   0.688   9.854   6.737
 8928SOL    HW228559   0.815   9.937   6.730
 8929SOL     OW28560   2.480   4.348   9.037
 8929SOL    HW128561   2.425   4.413   9.079
 8929SOL    HW228562   2.545   4.325   9.103
 8930SOL     OW28563   2.952  11.470  10.766
 8930SOL    HW128564   2.985  11.559  10.754
 8930SOL    HW228565   2.859  11.480  10.785
 8931SOL     OW28566   3.856   4.063   9.798
 8931SOL    HW128567   3.786   4.041   9.860
 8931SOL    HW228568   3.814   4.118   9.733
 8932SOL     OW28569   4.822   6.639   8.531
 8932SOL    HW128570   4.861   6.720   8.499
 8932SOL    HW228571   4.869   6.570   8.483
 8933SOL     OW28572   7.400  11.606   0.837
 8933SOL    HW128573   7.377  11.565   0.920
 8933SOL    HW228574   7.416  11.532   0.778
 8934SOL     OW28575   6.058   5.416  12.907
 8934SOL    HW128576   5.989   5.358  12.939
 8934SOL    HW228577   6.119   5.357  12.862
 8935SOL     OW28578  11.070   0.499  11.219
 8935SOL    HW128579  11.136   0.430  11.228
 8935SOL    HW228580  11.119   0.580  11.232
 8936SOL     OW28581  12.555  11.976  13.787
 8936SOL    HW128582  12.642  11.994  13.823
 8936SOL    HW228583  12.552  11.882  13.775
 8937SOL     OW28584  11.418   3.169   7.375
 8937SOL    HW128585  11.475   3.225   7.428
 8937SOL    HW228586  11.460   3.168   7.289
 8938SOL     OW28587  12.198   9.266   9.504
 8938SOL    HW128588  12.114   9.236   9.468
 8938SOL    HW228589  12.237   9.317   9.433
 8939SOL     OW28590   7.762  10.609   8.484
 8939SOL    HW128591   7.800  10.572   8.563
 8939SOL    HW228592   7.750  10.534   8.426
 8940SOL     OW28593   3.201   1.985  11.162
 8940SOL    HW128594   3.164   1.918  11.220
 8940SOL    HW228595   3.291   1.995  11.193
 8941SOL     OW28596  11.635   4.771   1.496
 8941SOL    HW128597  11.632   4.846   1.556
 8941SOL    HW228598  11.727   4.762   1.474
 8942SOL     OW28599   1.225   1.911   2.239
 8942SOL    HW128600   1.189   1.822   2.235
 8942SOL    HW228601   1.295   1.906   2.303
 8943SOL     OW28602  11.634   4.465  13.111
 8943SOL    HW128603  11.637   4.411  13.031
 8943SOL    HW228604  11.692   4.538  13.092
 8944SOL     OW28605  10.147   2.353   6.261
 8944SOL    HW128606  10.072   2.298   6.283
 8944SOL    HW228607  10.117   2.442   6.278
 8945SOL     OW28608   0.199   9.615   2.010
 8945SOL    HW128609   0.187   9.611   2.105
 8945SOL    HW228610   0.271   9.677   1.998
 8946SOL     OW28611  14.127  12.965   7.371
 8946SOL    HW128612  14.087  12.975   7.458
 8946SOL    HW228613  14.209  13.014   7.377
 8947SOL     OW28614   0.243  11.114   0.140
 8947SOL    HW128615   0.330  11.073   0.147
 8947SOL    HW228616   0.233  11.132   0.046
 8948SOL     OW28617  12.991   2.760   1.978
 8948SOL    HW128618  13.004   2.782   2.071
 8948SOL    HW228619  12.939   2.679   1.980
 8949SOL     OW28620   7.216  11.250   2.409
 8949SOL    HW128621   7.307  11.274   2.422
 8949SOL    HW228622   7.176  11.259   2.496
 8950SOL     OW28623  10.352   5.501  14.777
 8950SOL    HW128624  10.278   5.535  14.727
 8950SOL    HW228625  10.370   5.416  14.737
 8951SOL     OW28626   6.990   9.796   5.621
 8951SOL    HW128627   6.898   9.819   5.608
 8951SOL    HW228628   7.032   9.816   5.537
 8952SOL     OW28629  12.205   8.890   4.678
 8952SOL    HW128630  12.190   8.796   4.683
 8952SOL    HW228631  12.193   8.912   4.586
 8953SOL     OW28632   5.001   1.736  14.698
 8953SOL    HW128633   5.022   1.772  14.784
 8953SOL    HW228634   5.029   1.802  14.636
 8954SOL     OW28635   6.896  10.127  14.173
 8954SOL    HW128636   6.851  10.049  14.204
 8954SOL    HW228637   6.968  10.140  14.234
 8955SOL     OW28638   9.762   8.671  14.468
 8955SOL    HW128639   9.807   8.631  14.543
 8955SOL    HW228640   9.832   8.688  14.405
 8956SOL     OW28641   6.368   8.487   9.161
 8956SOL    HW128642   6.286   8.451   9.193
 8956SOL    HW228643   6.434   8.421   9.183
 8957SOL     OW28644  12.322   5.555   0.072
 8957SOL    HW128645  12.289   5.605  14.876
 8957SOL    HW228646  12.416   5.549   0.057
 8958SOL     OW28647   9.779  13.458   9.318
 8958SOL    HW128648   9.813  13.368   9.316
 8958SOL    HW228649   9.849  13.509   9.359
 8959SOL     OW28650   5.639  11.059   0.707
 8959SOL    HW128651   5.679  11.031   0.789
 8959SOL    HW228652   5.711  11.056   0.643
 8960SOL     OW28653   5.379   2.495   7.203
 8960SOL    HW128654   5.330   2.565   7.162
 8960SOL    HW228655   5.394   2.525   7.293
 8961SOL     OW28656   9.101  13.251  13.298
 8961SOL    HW128657   9.119  13.336  13.339
 8961SOL    HW228658   9.049  13.272  13.221
 8962SOL     OW28659   3.118  12.906   9.725
 8962SOL    HW128660   3.045  12.845   9.727
 8962SOL    HW228661   3.112  12.948   9.639
 8963SOL     OW28662   2.475  10.158  14.741
 8963SOL    HW128663   2.555  10.137  14.692
 8963SOL    HW228664   2.421  10.205  14.678
 8964SOL     OW28665   0.092  10.134   9.437
 8964SOL    HW128666   0.061  10.061   9.490
 8964SOL    HW228667   0.025  10.146   9.370
 8965SOL     OW28668  10.676  14.045   2.681
 8965SOL    HW128669  10.752  14.100   2.697
 8965SOL    HW228670  10.602  14.106   2.680
 8966SOL     OW28671   5.242   6.121  12.713
 8966SOL    HW128672   5.320   6.168  12.683
 8966SOL    HW228673   5.174   6.144  12.651
 8967SOL     OW28674   2.781   3.018   8.930
 8967SOL    HW128675   2.803   2.966   9.007
 8967SOL    HW228676   2.865   3.035   8.887
 8968SOL     OW28677   0.187  13.939   4.482
 8968SOL    HW128678   0.198  14.016   4.537
 8968SOL    HW228679   0.093  13.936   4.464
 8969SOL     OW28680  11.065  13.508   1.907
 8969SOL    HW128681  11.098  13.422   1.882
 8969SOL    HW228682  11.024  13.542   1.828
 8970SOL     OW28683   1.733  11.467  10.710
 8970SOL    HW128684   1.680  11.492  10.785
 8970SOL    HW228685   1.814  11.433  10.748
 8971SOL     OW28686  14.554  11.935   2.746
 8971SOL    HW128687  14.591  12.023   2.741
 8971SOL    HW228688  14.464  11.948   2.777
 8972SOL     OW28689   0.660   5.759  12.651
 8972SOL    HW128690   0.610   5.836  12.623
 8972SOL    HW228691   0.705   5.730  12.572
 8973SOL     OW28692   9.317   7.991  10.747
 8973SOL    HW128693   9.344   7.957  10.662
 8973SOL    HW228694   9.255   7.926  10.779
 8974SOL     OW28695   3.043   7.886   2.570
 8974SOL    HW128696   3.089   7.902   2.488
 8974SOL    HW228697   2.953   7.914   2.552
 8975SOL     OW28698  12.294   3.615   2.791
 8975SOL    HW128699  12.352   3.553   2.747
 8975SOL    HW228700  12.290   3.690   2.732
 8976SOL     OW28701   1.240   3.328   8.282
 8976SOL    HW128702   1.284   3.296   8.361
 8976SOL    HW228703   1.244   3.255   8.221
 8977SOL     OW28704   6.077  11.141   4.623
 8977SOL    HW128705   6.041  11.229   4.617
 8977SOL    HW228706   6.008  11.090   4.665
 8978SOL     OW28707  14.712   1.425   2.080
 8978SOL    HW128708  14.686   1.335   2.061
 8978SOL    HW228709  14.676   1.476   2.008
 8979SOL     OW28710   2.115   4.844  10.232
 8979SOL    HW128711   2.181   4.867  10.167
 8979SOL    HW228712   2.033   4.842  10.183
 8980SOL     OW28713   5.844   1.102   1.983
 8980SOL    HW128714   5.894   1.074   1.906
 8980SOL    HW228715   5.880   1.188   2.004
 8981SOL     OW28716  11.524  12.155   2.404
 8981SOL    HW128717  11.614  12.123   2.393
 8981SOL    HW228718  11.534  12.247   2.428
 8982SOL     OW28719   8.041   4.883   3.396
 8982SOL    HW128720   7.971   4.888   3.461
 8982SOL    HW228721   8.119   4.913   3.442
 8983SOL     OW28722  13.333   0.265   4.450
 8983SOL    HW128723  13.404   0.299   4.396
 8983SOL    HW228724  13.364   0.276   4.540
 8984SOL     OW28725   5.789   4.621  12.385
 8984SOL    HW128726   5.829   4.708  12.386
 8984SOL    HW228727   5.826   4.576  12.461
 8985SOL     OW28728   4.404  14.721  13.195
 8985SOL    HW128729   4.359  14.651  13.148
 8985SOL    HW228730   4.357  14.801  13.170
 8986SOL     OW28731  13.326   9.712   4.412
 8986SOL    HW128732  13.236   9.732   4.440
 8986SOL    HW228733  13.338   9.620   4.435
 8987SOL     OW28734   1.806   9.125  10.081
 8987SOL    HW128735   1.796   9.054  10.018
 8987SOL    HW228736   1.798   9.205  10.030
 8988SOL     OW28737   4.130   8.790   0.067
 8988SOL    HW128738   4.034   8.791   0.074
 8988SOL    HW228739   4.154   8.880   0.049
 8989SOL     OW28740  12.363   7.460   0.166
 8989SOL    HW128741  12.457   7.472   0.179
 8989SOL    HW228742  12.356   7.393   0.099
 8990SOL     OW28743   6.149   5.737   9.635
 8990SOL    HW128744   6.104   5.663   9.676
 8990SOL    HW228745   6.204   5.698   9.568
 8991SOL     OW28746   6.496   3.983  11.154
 8991SOL    HW128747   6.539   3.950  11.233
 8991SOL    HW228748   6.541   4.065  11.134
 8992SOL     OW28749   5.834   1.709   2.337
 8992SOL    HW128750   5.874   1.791   2.308
 8992SOL    HW228751   5.895   1.641   2.308
 8993SOL     OW28752   4.498   9.325   9.159
 8993SOL    HW128753   4.474   9.236   9.134
 8993SOL    HW228754   4.553   9.355   9.087
 8994SOL     OW28755   0.969   2.726   4.001
 8994SOL    HW128756   0.915   2.674   3.941
 8994SOL    HW228757   0.908   2.787   4.041
 8995SOL     OW28758   8.102   3.474  14.590
 8995SOL    HW128759   8.133   3.443  14.505
 8995SOL    HW228760   8.158   3.430  14.654
 8996SOL     OW28761  13.187   7.668   6.544
 8996SOL    HW128762  13.237   7.590   6.570
 8996SOL    HW228763  13.137   7.691   6.622
 8997SOL     OW28764   8.637   5.802   6.020
 8997SOL    HW128765   8.549   5.818   6.054
 8997SOL    HW228766   8.645   5.860   5.944
 8998SOL     OW28767  11.987  10.797   3.387
 8998SOL    HW128768  11.970  10.867   3.324
 8998SOL    HW228769  12.011  10.722   3.332
 8999SOL     OW28770  10.937  13.377   3.293
 8999SOL    HW128771  10.996  13.425   3.235
 8999SOL    HW228772  10.914  13.298   3.244
 9000SOL     OW28773  11.751   6.956  12.197
 9000SOL    HW128774  11.683   6.889  12.187
 9000SOL    HW228775  11.757   6.970  12.291
 9001SOL     OW28776   8.558   5.572   7.989
 9001SOL    HW128777   8.471   5.547   7.958
 9001SOL    HW228778   8.601   5.610   7.912
 9002SOL     OW28779   6.125   6.322  12.365
 9002SOL    HW128780   6.030   6.327  12.380
 9002SOL    HW228781   6.162   6.386  12.425
 9003SOL     OW28782  14.442  10.410   5.895
 9003SOL    HW128783  14.493  10.479   5.937
 9003SOL    HW228784  14.408  10.358   5.967
 9004SOL     OW28785   5.194  10.343   7.917
 9004SOL    HW128786   5.169  10.353   8.009
 9004SOL    HW228787   5.223  10.252   7.910
 9005SOL     OW28788   8.525  10.674   3.670
 9005SOL    HW128789   8.535  10.581   3.691
 9005SOL    HW228790   8.431  10.686   3.657
 9006SOL     OW28791  12.329   5.751  11.346
 9006SOL    HW128792  12.259   5.765  11.409
 9006SOL    HW228793  12.289   5.701  11.275
 9007SOL     OW28794   5.905  14.788   9.119
 9007SOL    HW128795   5.955  14.842   9.179
 9007SOL    HW228796   5.953  14.705   9.115
 9008SOL     OW28797   5.754  11.506   9.913
 9008SOL    HW128798   5.694  11.548   9.974
 9008SOL    HW228799   5.728  11.537   9.827
 9009SOL     OW28800  14.302   5.647   5.140
 9009SOL    HW128801  14.302   5.711   5.069
 9009SOL    HW228802  14.279   5.697   5.218
 9010SOL     OW28803   8.205   8.646   0.055
 9010SOL    HW128804   8.191   8.733   0.018
 9010SOL    HW228805   8.299   8.639   0.065
 9011SOL     OW28806  10.041   4.162   6.658
 9011SOL    HW128807   9.949   4.159   6.633
 9011SOL    HW228808  10.044   4.123   6.745
 9012SOL     OW28809   6.796  14.692   8.475
 9012SOL    HW128810   6.799  14.766   8.415
 9012SOL    HW228811   6.888  14.677   8.498
 9013SOL     OW28812  10.423  13.265   8.750
 9013SOL    HW128813  10.509  13.287   8.785
 9013SOL    HW228814  10.438  13.189   8.693
 9014SOL     OW28815  13.742  10.627   5.101
 9014SOL    HW128816  13.777  10.575   5.174
 9014SOL    HW228817  13.678  10.685   5.141
 9015SOL     OW28818   9.937   4.666  13.485
 9015SOL    HW128819   9.999   4.653  13.557
 9015SOL    HW228820   9.855   4.628  13.517
 9016SOL     OW28821   0.392   7.717   2.076
 9016SOL    HW128822   0.378   7.734   2.169
 9016SOL    HW228823   0.359   7.796   2.032
 9017SOL     OW28824   2.329   8.985   8.638
 9017SOL    HW128825   2.331   9.076   8.607
 9017SOL    HW228826   2.397   8.941   8.586
 9018SOL     OW28827   4.340   1.035  13.827
 9018SOL    HW128828   4.412   0.973  13.824
 9018SOL    HW228829   4.321   1.054  13.735
 9019SOL     OW28830   8.243   7.274   6.334
 9019SOL    HW128831   8.151   7.285   6.314
 9019SOL    HW228832   8.259   7.332   6.408
 9020SOL     OW28833   1.263   0.028   9.458
 9020SOL    HW128834   1.194  14.853   9.418
 9020SOL    HW228835   1.298  14.851   9.528
 9021SOL     OW28836   4.561  12.869  14.698
 9021SOL    HW128837   4.478  12.915  14.710
 9021SOL    HW228838   4.628  12.936  14.710
 9022SOL     OW28839   9.717   4.515   0.325
 9022SOL    HW128840   9.692   4.539   0.414
 9022SOL    HW228841   9.807   4.483   0.334
 9023SOL     OW28842   5.483   3.723  14.484
 9023SOL    HW128843   5.454   3.813  14.498
 9023SOL    HW228844   5.504   3.691  14.572
 9024SOL     OW28845  10.900   5.932   6.413
 9024SOL    HW128846  10.916   6.026   6.414
 9024SOL    HW228847  10.845   5.918   6.335
 9025SOL     OW28848   4.220   2.524  13.181
 9025SOL    HW128849   4.200   2.571  13.262
 9025SOL    HW228850   4.314   2.507  13.186
 9026SOL     OW28851   9.243   8.937  14.524
 9026SOL    HW128852   9.254   8.965  14.615
 9026SOL    HW228853   9.290   8.854  14.519
 9027SOL     OW28854   2.547  11.416   8.161
 9027SOL    HW128855   2.504  11.499   8.186
 9027SOL    HW228856   2.523  11.356   8.231
 9028SOL     OW28857   6.222   8.539  13.769
 9028SOL    HW128858   6.187   8.615  13.722
 9028SOL    HW228859   6.175   8.538  13.852
 9029SOL     OW28860   0.886   1.393  12.448
 9029SOL    HW128861   0.795   1.418  12.435
 9029SOL    HW228862   0.886   1.298  12.440
 9030SOL     OW28863   9.364  11.883   3.634
 9030SOL    HW128864   9.410  11.799   3.634
 9030SOL    HW228865   9.271  11.859   3.643
 9031SOL     OW28866   7.251  13.036  12.659
 9031SOL    HW128867   7.303  13.007  12.584
 9031SOL    HW228868   7.239  13.130  12.644
 9032SOL     OW28869   2.343  13.899  13.135
 9032SOL    HW128870   2.385  13.875  13.218
 9032SOL    HW228871   2.297  13.980  13.155
 9033SOL     OW28872  14.245  12.978  13.300
 9033SOL    HW128873  14.329  12.982  13.346
 9033SOL    HW228874  14.190  13.044  13.343
 9034SOL     OW28875   9.104   6.535  13.158
 9034SOL    HW128876   9.198   6.518  13.164
 9034SOL    HW228877   9.096   6.611  13.101
 9035SOL     OW28878   1.311  10.216   7.054
 9035SOL    HW128879   1.357  10.259   7.127
 9035SOL    HW228880   1.290  10.129   7.087
 9036SOL     OW28881  12.694   9.866  10.474
 9036SOL    HW128882  12.625   9.890  10.413
 9036SOL    HW228883  12.772   9.857  10.420
 9037SOL     OW28884  14.426   4.460  11.344
 9037SOL    HW128885  14.473   4.432  11.423
 9037SOL    HW228886  14.455   4.550  11.329
 9038SOL     OW28887  11.905   9.521   7.923
 9038SOL    HW128888  11.841   9.554   7.860
 9038SOL    HW228889  11.859   9.522   8.007
 9039SOL     OW28890   5.702  11.358   3.950
 9039SOL    HW128891   5.793  11.385   3.959
 9039SOL    HW228892   5.695  11.328   3.859
 9040SOL     OW28893   6.436   9.493  10.692
 9040SOL    HW128894   6.391   9.551  10.630
 9040SOL    HW228895   6.364   9.448  10.737
 9041SOL     OW28896   7.166  10.979  13.603
 9041SOL    HW128897   7.242  10.920  13.600
 9041SOL    HW228898   7.095  10.929  13.562
 9042SOL     OW28899   0.329   7.516   2.588
 9042SOL    HW128900   0.416   7.542   2.620
 9042SOL    HW228901   0.272   7.588   2.613
 9043SOL     OW28902   2.227  13.644   0.549
 9043SOL    HW128903   2.262  13.619   0.634
 9043SOL    HW228904   2.236  13.739   0.546
 9044SOL     OW28905   2.963  12.705   4.131
 9044SOL    HW128906   2.995  12.621   4.164
 9044SOL    HW228907   3.027  12.770   4.163
 9045SOL     OW28908   3.274   0.702   8.315
 9045SOL    HW128909   3.200   0.754   8.345
 9045SOL    HW228910   3.257   0.687   8.222
 9046SOL     OW28911   8.526   1.554  11.824
 9046SOL    HW128912   8.592   1.588  11.884
 9046SOL    HW228913   8.473   1.631  11.800
 9047SOL     OW28914   1.432   5.831   9.479
 9047SOL    HW128915   1.440   5.748   9.432
 9047SOL    HW228916   1.509   5.882   9.452
 9048SOL     OW28917   8.126   1.914   6.725
 9048SOL    HW128918   8.218   1.936   6.743
 9048SOL    HW228919   8.082   1.930   6.809
 9049SOL     OW28920   3.909   2.816  14.056
 9049SOL    HW128921   3.981   2.859  14.010
 9049SOL    HW228922   3.899   2.732  14.011
 9050SOL     OW28923   9.419  13.594   1.095
 9050SOL    HW128924   9.325  13.613   1.106
 9050SOL    HW228925   9.427  13.501   1.117
 9051SOL     OW28926   0.025   7.391   9.254
 9051SOL    HW128927  14.876   7.422   9.340
 9051SOL    HW228928  14.826   7.405   9.198
 9052SOL     OW28929   8.305   8.078  13.138
 9052SOL    HW128930   8.281   8.089  13.230
 9052SOL    HW228931   8.347   8.161  13.114
 9053SOL     OW28932   5.429  14.619  12.063
 9053SOL    HW128933   5.500  14.569  12.023
 9053SOL    HW228934   5.388  14.558  12.124
 9054SOL     OW28935   0.755   9.938   0.053
 9054SOL    HW128936   0.816   9.988  14.876
 9054SOL    HW228937   0.728   9.865  14.875
 9055SOL     OW28938   3.458  14.129   5.426
 9055SOL    HW128939   3.425  14.204   5.475
 9055SOL    HW228940   3.448  14.055   5.486
 9056SOL     OW28941  14.111   5.917   5.964
 9056SOL    HW128942  14.021   5.947   5.950
 9056SOL    HW228943  14.129   5.858   5.892
 9057SOL     OW28944   8.074   4.521  11.759
 9057SOL    HW128945   8.024   4.570  11.824
 9057SOL    HW228946   8.165   4.530  11.786
 9058SOL     OW28947   3.846   9.987   6.808
 9058SOL    HW128948   3.825   9.975   6.715
 9058SOL    HW228949   3.903  10.064   6.809
 9059SOL     OW28950   9.921  14.729   3.550
 9059SOL    HW128951   9.872  14.747   3.631
 9059SOL    HW228952  10.001  14.780   3.559
 9060SOL     OW28953  12.889   5.333  11.779
 9060SOL    HW128954  12.975   5.334  11.822
 9060SOL    HW228955  12.832   5.286  11.841
 9061SOL     OW28956   3.924  12.501   1.160
 9061SOL    HW128957   3.988  12.567   1.134
 9061SOL    HW228958   3.849  12.517   1.102
 9062SOL     OW28959   7.135  10.483   5.267
 9062SOL    HW128960   7.066  10.499   5.331
 9062SOL    HW228961   7.122  10.392   5.240
 9063SOL     OW28962   1.398   1.714   6.163
 9063SOL    HW128963   1.443   1.768   6.099
 9063SOL    HW228964   1.420   1.752   6.248
 9064SOL     OW28965  12.826   0.139   0.267
 9064SOL    HW128966  12.897   0.196   0.236
 9064SOL    HW228967  12.751   0.163   0.213
 9065SOL     OW28968  10.292   4.410   7.117
 9065SOL    HW128969  10.321   4.387   7.205
 9065SOL    HW228970  10.216   4.467   7.130
 9066SOL     OW28971   1.611   0.961   6.047
 9066SOL    HW128972   1.623   1.045   6.090
 9066SOL    HW228973   1.557   0.981   5.970
 9067SOL     OW28974  10.934   1.142   0.196
 9067SOL    HW128975  10.854   1.159   0.245
 9067SOL    HW228976  10.989   1.093   0.257
 9068SOL     OW28977   3.080   1.334   2.935
 9068SOL    HW128978   3.007   1.396   2.939
 9068SOL    HW228979   3.042   1.254   2.898
 9069SOL     OW28980  11.984  11.445   5.155
 9069SOL    HW128981  12.007  11.452   5.062
 9069SOL    HW228982  12.002  11.532   5.191
 9070SOL     OW28983   7.021   3.533  11.725
 9070SOL    HW128984   6.986   3.612  11.684
 9070SOL    HW228985   7.003   3.463  11.662
 9071SOL     OW28986   8.657   8.963   7.700
 9071SOL    HW128987   8.602   8.884   7.701
 9071SOL    HW228988   8.610   9.023   7.642
 9072SOL     OW28989   4.148   3.625  11.295
 9072SOL    HW128990   4.156   3.642  11.389
 9072SOL    HW228991   4.157   3.530  11.287
 9073SOL     OW28992  12.751   3.938  10.586
 9073SOL    HW128993  12.845   3.946  10.573
 9073SOL    HW228994  12.742   3.894  10.670
 9074SOL     OW28995   3.870  12.683   2.603
 9074SOL    HW128996   3.914  12.604   2.632
 9074SOL    HW228997   3.900  12.751   2.663
 9075SOL     OW28998  11.838   0.862   5.338
 9075SOL    HW128999  11.812   0.772   5.319
 9075SOL    HW229000  11.812   0.876   5.429
 9076SOL     OW29001  10.354   6.079  10.840
 9076SOL    HW129002  10.398   6.160  10.866
 9076SOL    HW229003  10.305   6.103  10.761
 9077SOL     OW29004   1.145   1.617  12.208
 9077SOL    HW129005   1.128   1.574  12.292
 9077SOL    HW229006   1.158   1.709  12.232
 9078SOL     OW29007   5.531   6.208  10.216
 9078SOL    HW129008   5.579   6.238  10.139
 9078SOL    HW229009   5.541   6.278  10.280
 9079SOL     OW29010   0.391   6.421   5.256
 9079SOL    HW129011   0.377   6.329   5.276
 9079SOL    HW229012   0.391   6.426   5.161
 9080SOL     OW29013   9.320  12.006   7.107
 9080SOL    HW129014   9.246  11.971   7.156
 9080SOL    HW229015   9.385  11.935   7.110
 9081SOL     OW29016   9.209   6.654  10.380
 9081SOL    HW129017   9.199   6.719  10.311
 9081SOL    HW229018   9.296   6.617  10.366
 9082SOL     OW29019  10.116  12.358   1.544
 9082SOL    HW129020  10.070  12.303   1.479
 9082SOL    HW229021  10.045  12.393   1.598
 9083SOL     OW29022   8.586   0.467  12.793
 9083SOL    HW129023   8.553   0.530  12.729
 9083SOL    HW229024   8.621   0.395  12.741
 9084SOL     OW29025  10.374   9.313  14.673
 9084SOL    HW129026  10.360   9.233  14.724
 9084SOL    HW229027  10.287   9.354  14.670
 9085SOL     OW29028   8.542   7.195   6.471
 9085SOL    HW129029   8.625   7.196   6.519
 9085SOL    HW229030   8.544   7.274   6.417
 9086SOL     OW29031  13.587   7.068  14.136
 9086SOL    HW129032  13.613   7.142  14.082
 9086SOL    HW229033  13.618   7.090  14.224
 9087SOL     OW29034   8.876   8.604   7.375
 9087SOL    HW129035   8.783   8.622   7.365
 9087SOL    HW229036   8.887   8.513   7.346
 9088SOL     OW29037   2.449   9.929   1.565
 9088SOL    HW129038   2.534   9.960   1.595
 9088SOL    HW229039   2.459   9.834   1.561
 9089SOL     OW29040  14.609  13.393   4.967
 9089SOL    HW129041  14.539  13.328   4.955
 9089SOL    HW229042  14.682  13.359   4.915
 9090SOL     OW29043   9.922   1.950   4.074
 9090SOL    HW129044   9.915   1.918   4.164
 9090SOL    HW229045   9.840   1.923   4.033
 9091SOL     OW29046  13.717  13.921   8.111
 9091SOL    HW129047  13.770  13.875   8.176
 9091SOL    HW229048  13.691  13.854   8.048
 9092SOL     OW29049  13.966   5.386   9.077
 9092SOL    HW129050  13.961   5.427   8.991
 9092SOL    HW229051  14.053   5.347   9.081
 9093SOL     OW29052   3.290   6.702   0.890
 9093SOL    HW129053   3.213   6.715   0.833
 9093SOL    HW229054   3.268   6.625   0.942
 9094SOL     OW29055   7.891   9.100  14.416
 9094SOL    HW129056   7.942   9.101  14.498
 9094SOL    HW229057   7.955   9.122  14.348
 9095SOL     OW29058   9.584   9.394  11.231
 9095SOL    HW129059   9.615   9.440  11.308
 9095SOL    HW229060   9.572   9.462  11.165
 9096SOL     OW29061   3.623  14.843   8.743
 9096SOL    HW129062   3.694   0.027   8.763
 9096SOL    HW229063   3.568   0.012   8.680
 9097SOL     OW29064   8.074   0.639   4.105
 9097SOL    HW129065   8.112   0.717   4.065
 9097SOL    HW229066   7.981   0.658   4.113
 9098SOL     OW29067  10.249  12.654  13.906
 9098SOL    HW129068  10.322  12.647  13.968
 9098SOL    HW229069  10.203  12.570  13.914
 9099SOL     OW29070   8.445   2.783   3.801
 9099SOL    HW129071   8.512   2.773   3.869
 9099SOL    HW229072   8.488   2.832   3.731
 9100SOL     OW29073   6.398   4.150   5.485
 9100SOL    HW129074   6.305   4.147   5.461
 9100SOL    HW229075   6.397   4.161   5.581
 9101SOL     OW29076   9.636   2.741   6.005
 9101SOL    HW129077   9.575   2.687   5.955
 9101SOL    HW229078   9.583   2.813   6.038
 9102SOL     OW29079  12.049   7.032   9.995
 9102SOL    HW129080  12.100   7.063   9.920
 9102SOL    HW229081  12.107   6.970  10.039
 9103SOL     OW29082   3.592   6.882   6.029
 9103SOL    HW129083   3.568   6.937   6.103
 9103SOL    HW229084   3.682   6.855   6.047
 9104SOL     OW29085   7.670  10.623  12.837
 9104SOL    HW129086   7.642  10.570  12.763
 9104SOL    HW229087   7.696  10.560  12.904
 9105SOL     OW29088   8.080   6.024   0.194
 9105SOL    HW129089   8.171   6.014   0.167
 9105SOL    HW229090   8.085   6.066   0.280
 9106SOL     OW29091   5.384  11.437   7.440
 9106SOL    HW129092   5.317  11.375   7.470
 9106SOL    HW229093   5.340  11.488   7.372
 9107SOL     OW29094  14.535   7.313   0.143
 9107SOL    HW129095  14.447   7.282   0.165
 9107SOL    HW229096  14.567   7.353   0.224
 9108SOL     OW29097   5.970   0.333   7.001
 9108SOL    HW129098   5.949   0.379   7.082
 9108SOL    HW229099   5.896   0.274   6.987
 9109SOL     OW29100  11.333   6.873   4.423
 9109SOL    HW129101  11.426   6.881   4.439
 9109SOL    HW229102  11.326   6.805   4.355
 9110SOL     OW29103   2.244   0.140   9.020
 9110SOL    HW129104   2.254   0.235   9.019
 9110SOL    HW229105   2.259   0.115   9.111
 9111SOL     OW29106   9.303   9.485   9.742
 9111SOL    HW129107   9.236   9.475   9.809
 9111SOL    HW229108   9.357   9.407   9.750
 9112SOL     OW29109  14.137   9.692   9.587
 9112SOL    HW129110  14.218   9.712   9.540
 9112SOL    HW229111  14.081   9.768   9.570
 9113SOL     OW29112   8.049   6.575   6.537
 9113SOL    HW129113   7.975   6.515   6.527
 9113SOL    HW229114   8.026   6.629   6.613
 9114SOL     OW29115   9.742   3.676  10.358
 9114SOL    HW129116   9.672   3.641  10.303
 9114SOL    HW229117   9.703   3.683  10.445
 9115SOL     OW29118   6.850   1.221   4.481
 9115SOL    HW129119   6.828   1.182   4.396
 9115SOL    HW229120   6.867   1.146   4.538
 9116SOL     OW29121  11.179   5.419   1.416
 9116SOL    HW129122  11.117   5.381   1.478
 9116SOL    HW229123  11.129   5.488   1.371
 9117SOL     OW29124   9.591  12.644  14.213
 9117SOL    HW129125   9.533  12.567  14.218
 9117SOL    HW229126   9.601  12.672  14.304
 9118SOL     OW29127  10.073   4.686   2.431
 9118SOL    HW129128  10.007   4.676   2.500
 9118SOL    HW229129  10.140   4.621   2.452
 9119SOL     OW29130   9.471   1.352   6.404
 9119SOL    HW129131   9.426   1.412   6.464
 9119SOL    HW229132   9.514   1.408   6.341
 9120SOL     OW29133  14.200   8.779  11.159
 9120SOL    HW129134  14.154   8.841  11.214
 9120SOL    HW229135  14.132   8.718  11.129
 9121SOL     OW29136   9.139   6.157  13.142
 9121SOL    HW129137   9.218   6.179  13.093
 9121SOL    HW229138   9.115   6.238  13.187
 9122SOL     OW29139   9.995  12.573   9.739
 9122SOL    HW129140  10.084  12.557   9.707
 9122SOL    HW229141   9.996  12.664   9.768
 9123SOL     OW29142  14.029   2.653   6.408
 9123SOL    HW129143  14.058   2.564   6.428
 9123SOL    HW229144  14.079   2.709   6.469
 9124SOL     OW29145   4.924  14.558  10.670
 9124SOL    HW129146   5.019  14.564  10.674
 9124SOL    HW229147   4.906  14.533  10.579
 9125SOL     OW29148   1.295   6.568   2.560
 9125SOL    HW129149   1.296   6.475   2.582
 9125SOL    HW229150   1.301   6.613   2.644
 9126SOL     OW29151   2.179  14.342  12.987
 9126SOL    HW129152   2.184  14.432  13.017
 9126SOL    HW229153   2.108  14.342  12.922
 9127SOL     OW29154  11.912   4.951   7.250
 9127SOL    HW129155  11.816   4.952   7.244
 9127SOL    HW229156  11.931   4.984   7.337
 9128SOL     OW29157  13.996  11.051   7.311
 9128SOL    HW129158  14.038  10.991   7.249
 9128SOL    HW229159  13.904  11.052   7.285
 9129SOL     OW29160   7.234   8.524   5.724
 9129SOL    HW129161   7.310   8.478   5.689
 9129SOL    HW229162   7.255   8.616   5.713
 9130SOL     OW29163  12.585   2.700   3.024
 9130SOL    HW129164  12.505   2.652   3.046
 9130SOL    HW229165  12.595   2.764   3.095
 9131SOL     OW29166   4.501   7.878   7.615
 9131SOL    HW129167   4.592   7.896   7.592
 9131SOL    HW229168   4.454   7.957   7.588
 9132SOL     OW29169   4.775  13.173   0.751
 9132SOL    HW129170   4.708  13.143   0.813
 9132SOL    HW229171   4.834  13.227   0.804
 9133SOL     OW29172  13.719  12.736   5.735
 9133SOL    HW129173  13.724  12.806   5.669
 9133SOL    HW229174  13.736  12.656   5.686
 9134SOL     OW29175   3.635  10.773  14.475
 9134SOL    HW129176   3.540  10.783  14.473
 9134SOL    HW229177   3.665  10.842  14.534
 9135SOL     OW29178   1.016  11.519   6.642
 9135SOL    HW129179   1.109  11.532   6.661
 9135SOL    HW229180   0.971  11.561   6.716
 9136SOL     OW29181  11.997   0.570  10.819
 9136SOL    HW129182  12.032   0.536  10.736
 9136SOL    HW229183  11.903   0.551  10.815
 9137SOL     OW29184  10.619  13.864   1.844
 9137SOL    HW129185  10.662  13.808   1.779
 9137SOL    HW229186  10.570  13.804   1.899
 9138SOL     OW29187  11.791  12.036  12.446
 9138SOL    HW129188  11.775  11.942  12.454
 9138SOL    HW229189  11.870  12.051  12.498
 9139SOL     OW29190   7.136  14.863   1.006
 9139SOL    HW129191   7.082  14.839   0.931
 9139SOL    HW229192   7.216  14.810   0.995
 9140SOL     OW29193   9.864   2.184  10.007
 9140SOL    HW129194   9.786   2.211   9.960
 9140SOL    HW229195   9.891   2.261  10.057
 9141SOL     OW29196  14.661  12.970   8.590
 9141SOL    HW129197  14.722  12.907   8.628
 9141SOL    HW229198  14.700  12.994   8.506
 9142SOL     OW29199  14.364  10.168  10.990
 9142SOL    HW129200  14.436  10.184  10.929
 9142SOL    HW229201  14.332  10.081  10.968
 9143SOL     OW29202   1.762  13.126   7.905
 9143SOL    HW129203   1.673  13.114   7.872
 9143SOL    HW229204   1.791  13.208   7.867
 9144SOL     OW29205   0.122  12.995  12.429
 9144SOL    HW129206   0.138  12.948  12.511
 9144SOL    HW229207   0.136  13.087  12.451
 9145SOL     OW29208  13.827  13.334  14.679
 9145SOL    HW129209  13.869  13.400  14.735
 9145SOL    HW229210  13.879  13.334  14.599
 9146SOL     OW29211  12.119  11.532   3.182
 9146SOL    HW129212  12.123  11.608   3.239
 9146SOL    HW229213  12.193  11.542   3.123
 9147SOL     OW29214   2.273   5.881   7.831
 9147SOL    HW129215   2.181   5.857   7.842
 9147SOL    HW229216   2.271   5.955   7.771
 9148SOL     OW29217   3.577  12.369   1.756
 9148SOL    HW129218   3.498  12.422   1.747
 9148SOL    HW229219   3.549  12.293   1.807
 9149SOL     OW29220   5.704  12.957   5.701
 9149SOL    HW129221   5.723  13.002   5.620
 9149SOL    HW229222   5.772  12.986   5.762
 9150SOL     OW29223   8.102   5.229  11.613
 9150SOL    HW129224   8.026   5.173  11.595
 9150SOL    HW229225   8.099   5.244  11.707
 9151SOL     OW29226   1.636   7.652   1.658
 9151SOL    HW129227   1.642   7.631   1.565
 9151SOL    HW229228   1.580   7.584   1.694
 9152SOL     OW29229  10.250   5.287   8.112
 9152SOL    HW129230  10.208   5.273   8.197
 9152SOL    HW229231  10.233   5.206   8.063
 9153SOL     OW29232   5.776  11.508   0.690
 9153SOL    HW129233   5.698  11.519   0.635
 9153SOL    HW229234   5.760  11.428   0.739
 9154SOL     OW29235  13.192   1.894   1.991
 9154SOL    HW129236  13.282   1.925   1.991
 9154SOL    HW229237  13.184   1.840   2.069
 9155SOL     OW29238  14.815   7.972  13.691
 9155SOL    HW129239  14.840   7.881  13.709
 9155SOL    HW229240   0.010   8.024  13.722
 9156SOL     OW29241   4.492   5.105   1.746
 9156SOL    HW129242   4.537   5.020   1.747
 9156SOL    HW229243   4.559   5.167   1.719
 9157SOL     OW29244   4.015   0.284   8.186
 9157SOL    HW129245   3.942   0.302   8.245
 9157SOL    HW229246   4.054   0.203   8.220
 9158SOL     OW29247  10.972   3.339  14.632
 9158SOL    HW129248  10.942   3.305  14.548
 9158SOL    HW229249  10.947   3.272  14.696
 9159SOL     OW29250   2.653   4.823   9.515
 9159SOL    HW129251   2.712   4.770   9.569
 9159SOL    HW229252   2.681   4.805   9.425
 9160SOL     OW29253  10.265   2.076  10.852
 9160SOL    HW129254  10.184   2.123  10.874
 9160SOL    HW229255  10.301   2.124  10.778
 9161SOL     OW29256   4.509  11.729  12.270
 9161SOL    HW129257   4.465  11.745  12.354
 9161SOL    HW229258   4.582  11.672  12.292
 9162SOL     OW29259   3.740  11.231   8.284
 9162SOL    HW129260   3.755  11.317   8.322
 9162SOL    HW229261   3.719  11.248   8.192
 9163SOL     OW29262  11.686  10.154   0.856
 9163SOL    HW129263  11.671  10.197   0.940
 9163SOL    HW229264  11.780  10.164   0.840
 9164SOL     OW29265   2.396  13.027  10.222
 9164SOL    HW129266   2.360  13.116  10.225
 9164SOL    HW229267   2.422  13.009  10.312
 9165SOL     OW29268   5.760  13.010   0.922
 9165SOL    HW129269   5.707  13.043   0.995
 9165SOL    HW229270   5.850  13.014   0.954
 9166SOL     OW29271  13.056   4.981   9.022
 9166SOL    HW129272  13.039   5.075   9.022
 9166SOL    HW229273  13.049   4.954   8.930
 9167SOL     OW29274   4.701   6.327   7.335
 9167SOL    HW129275   4.742   6.306   7.419
 9167SOL    HW229276   4.641   6.254   7.319
 9168SOL     OW29277  11.058   0.258  12.299
 9168SOL    HW129278  11.009   0.202  12.239
 9168SOL    HW229279  11.098   0.197  12.361
 9169SOL     OW29280   1.793  12.552   3.081
 9169SOL    HW129281   1.699  12.542   3.094
 9169SOL    HW229282   1.827  12.463   3.077
 9170SOL     OW29283   0.906  12.270   2.982
 9170SOL    HW129284   0.899  12.286   2.888
 9170SOL    HW229285   0.901  12.175   2.991
 9171SOL     OW29286   8.940  10.574   9.018
 9171SOL    HW129287   9.004  10.545   8.953
 9171SOL    HW229288   8.866  10.607   8.967
 9172SOL     OW29289   4.237  14.619   2.262
 9172SOL    HW129290   4.154  14.647   2.226
 9172SOL    HW229291   4.213  14.561   2.335
 9173SOL     OW29292   3.405   5.501  13.318
 9173SOL    HW129293   3.489   5.534  13.347
 9173SOL    HW229294   3.409   5.407  13.336
 9174SOL     OW29295   6.310  14.083  11.255
 9174SOL    HW129296   6.278  13.994  11.239
 9174SOL    HW229297   6.294  14.130  11.174
 9175SOL     OW29298  11.637  10.852   1.275
 9175SOL    HW129299  11.620  10.809   1.359
 9175SOL    HW229300  11.702  10.919   1.295
 9176SOL     OW29301  13.227  13.427  10.777
 9176SOL    HW129302  13.190  13.502  10.823
 9176SOL    HW229303  13.160  13.404  10.712
 9177SOL     OW29304  14.236  12.699   7.367
 9177SOL    HW129305  14.173  12.725   7.300
 9177SOL    HW229306  14.240  12.774   7.427
 9178SOL     OW29307  12.170   2.763  13.789
 9178SOL    HW129308  12.163   2.838  13.847
 9178SOL    HW229309  12.203   2.692  13.845
 9179SOL     OW29310  13.033  14.723   7.476
 9179SOL    HW129311  12.954  14.690   7.519
 9179SOL    HW229312  13.075  14.646   7.439
 9180SOL     OW29313   1.333  13.800   8.267
 9180SOL    HW129314   1.302  13.748   8.342
 9180SOL    HW229315   1.381  13.737   8.213
 9181SOL     OW29316   4.736  11.997   9.730
 9181SOL    HW129317   4.816  12.012   9.679
 9181SOL    HW229318   4.739  12.065   9.798
 9182SOL     OW29319  11.403  12.490   5.682
 9182SOL    HW129320  11.492  12.518   5.658
 9182SOL    HW229321  11.376  12.552   5.749
 9183SOL     OW29322   7.486   3.243  13.961
 9183SOL    HW129323   7.551   3.217  14.025
 9183SOL    HW229324   7.412   3.184  13.977
 9184SOL     OW29325   9.881   8.450   3.540
 9184SOL    HW129326   9.860   8.358   3.525
 9184SOL    HW229327   9.801   8.497   3.514
 9185SOL     OW29328   4.440   2.232   3.648
 9185SOL    HW129329   4.402   2.243   3.735
 9185SOL    HW229330   4.475   2.143   3.648
 9186SOL     OW29331   0.440  12.317   9.063
 9186SOL    HW129332   0.530  12.295   9.043
 9186SOL    HW229333   0.406  12.241   9.111
 9187SOL     OW29334   1.079  14.086   4.040
 9187SOL    HW129335   1.108  14.176   4.024
 9187SOL    HW229336   1.081  14.076   4.135
 9188SOL     OW29337   0.081   8.368   0.634
 9188SOL    HW129338   0.082   8.276   0.662
 9188SOL    HW229339  14.874   8.379   0.590
 9189SOL     OW29340  10.543   1.607  11.125
 9189SOL    HW129341  10.502   1.659  11.056
 9189SOL    HW229342  10.471   1.583  11.184
 9190SOL     OW29343   9.328   6.233   2.583
 9190SOL    HW129344   9.333   6.325   2.559
 9190SOL    HW229345   9.316   6.188   2.499
 9191SOL     OW29346  14.341  13.436   8.909
 9191SOL    HW129347  14.268  13.388   8.947
 9191SOL    HW229348  14.300  13.508   8.860
 9192SOL     OW29349   6.921   5.398   7.724
 9192SOL    HW129350   6.886   5.430   7.641
 9192SOL    HW229351   7.005   5.359   7.701
 9193SOL     OW29352   8.877  13.044  11.422
 9193SOL    HW129353   8.849  12.979  11.357
 9193SOL    HW229354   8.969  13.061  11.400
 9194SOL     OW29355  12.697   9.522   4.534
 9194SOL    HW129356  12.716   9.579   4.609
 9194SOL    HW229357  12.727   9.435   4.562
 9195SOL     OW29358   2.449  13.627   0.724
 9195SOL    HW129359   2.515  13.696   0.735
 9195SOL    HW229360   2.498  13.545   0.732
 9196SOL     OW29361  14.014   4.141   7.037
 9196SOL    HW129362  13.922   4.163   7.048
 9196SOL    HW229363  14.018   4.099   6.951
 9197SOL     OW29364  11.141   5.975   7.919
 9197SOL    HW129365  11.104   6.059   7.942
 9197SOL    HW229366  11.143   5.926   8.001
 9198SOL     OW29367  11.437   4.524  13.289
 9198SOL    HW129368  11.502   4.503  13.222
 9198SOL    HW229369  11.415   4.439  13.327
 9199SOL     OW29370  10.391   7.563   2.697
 9199SOL    HW129371  10.306   7.600   2.722
 9199SOL    HW229372  10.443   7.568   2.777
 9200SOL     OW29373  13.795   0.043   0.786
 9200SOL    HW129374  13.871   0.003   0.744
 9200SOL    HW229375  13.725  14.855   0.776
 9201SOL     OW29376   7.479   4.560  11.885
 9201SOL    HW129377   7.472   4.465  11.875
 9201SOL    HW229378   7.571   4.580  11.867
 9202SOL     OW29379  13.811  12.481   6.542
 9202SOL    HW129380  13.764  12.490   6.625
 9202SOL    HW229381  13.883  12.421   6.562
 9203SOL     OW29382   8.602   0.379  14.628
 9203SOL    HW129383   8.577   0.438  14.557
 9203SOL    HW229384   8.564   0.419  14.706
 9204SOL     OW29385   0.635   4.712   6.228
 9204SOL    HW129386   0.666   4.640   6.283
 9204SOL    HW229387   0.677   4.697   6.143
 9205SOL     OW29388   5.539  13.446  12.094
 9205SOL    HW129389   5.523  13.443  12.188
 9205SOL    HW229390   5.460  13.410  12.055
 9206SOL     OW29391   6.415   1.029   9.878
 9206SOL    HW129392   6.493   1.060   9.833
 9206SOL    HW229393   6.447   0.995   9.961
 9207SOL     OW29394   0.065   5.225   8.175
 9207SOL    HW129395   0.126   5.201   8.244
 9207SOL    HW229396   0.049   5.319   8.189
 9208SOL     OW29397   8.905  13.663   8.610
 9208SOL    HW129398   8.813  13.664   8.639
 9208SOL    HW229399   8.946  13.734   8.660
 9209SOL     OW29400   8.447   6.561  12.783
 9209SOL    HW129401   8.466   6.516  12.866
 9209SOL    HW229402   8.485   6.648  12.793
 9210SOL     OW29403  11.003   9.292   5.218
 9210SOL    HW129404  10.946   9.329   5.151
 9210SOL    HW229405  11.092   9.308   5.186
 9211SOL     OW29406  14.451   1.420  14.427
 9211SOL    HW129407  14.498   1.337  14.441
 9211SOL    HW229408  14.452   1.462  14.513
 9212SOL     OW29409   0.316   2.530  12.549
 9212SOL    HW129410   0.336   2.537  12.455
 9212SOL    HW229411   0.392   2.485  12.586
 9213SOL     OW29412   0.790   9.134   7.307
 9213SOL    HW129413   0.784   9.228   7.326
 9213SOL    HW229414   0.879   9.122   7.274
 9214SOL     OW29415  11.580   9.054  13.927
 9214SOL    HW129416  11.631   9.033  14.006
 9214SOL    HW229417  11.493   9.017  13.944
 9215SOL     OW29418   2.153   9.015   5.794
 9215SOL    HW129419   2.185   9.067   5.868
 9215SOL    HW229420   2.151   8.925   5.827
 9216SOL     OW29421   3.603   9.898  10.536
 9216SOL    HW129422   3.657   9.916  10.613
 9216SOL    HW229423   3.662   9.854  10.475
 9217SOL     OW29424  11.002  14.066  13.941
 9217SOL    HW129425  10.985  14.158  13.960
 9217SOL    HW229426  10.928  14.019  13.981
 9218SOL     OW29427   5.875  12.955  12.047
 9218SOL    HW129428   5.941  12.886  12.037
 9218SOL    HW229429   5.814  12.920  12.113
 9219SOL     OW29430  10.015   1.662   1.558
 9219SOL    HW129431   9.962   1.628   1.630
 9219SOL    HW229432  10.098   1.687   1.599
 9220SOL     OW29433   1.741   6.325   4.053
 9220SOL    HW129434   1.719   6.294   3.966
 9220SOL    HW229435   1.695   6.408   4.062
 9221SOL     OW29436   5.389   4.181  14.212
 9221SOL    HW129437   5.329   4.162  14.284
 9221SOL    HW229438   5.440   4.256  14.242
 9222SOL     OW29439  10.110  10.253  10.684
 9222SOL    HW129440  10.180  10.187  10.680
 9222SOL    HW229441  10.038  10.208  10.727
 9223SOL     OW29442  14.734  11.787   2.481
 9223SOL    HW129443  14.695  11.871   2.458
 9223SOL    HW229444  14.727  11.782   2.577
 9224SOL     OW29445  13.791  11.196   3.383
 9224SOL    HW129446  13.726  11.263   3.359
 9224SOL    HW229447  13.744  11.137   3.442
 9225SOL     OW29448  12.710  13.600  14.827
 9225SOL    HW129449  12.802  13.575  14.824
 9225SOL    HW229450  12.693  13.616   0.042
 9226SOL     OW29451  12.825   7.989   1.244
 9226SOL    HW129452  12.886   8.057   1.273
 9226SOL    HW229453  12.768   7.973   1.319
 9227SOL     OW29454   2.823   0.474  11.950
 9227SOL    HW129455   2.895   0.517  11.904
 9227SOL    HW229456   2.779   0.423  11.883
 9228SOL     OW29457   5.734  13.972  10.806
 9228SOL    HW129458   5.690  14.040  10.755
 9228SOL    HW229459   5.814  13.953  10.757
 9229SOL     OW29460   8.009   9.253   0.813
 9229SOL    HW129461   7.938   9.189   0.811
 9229SOL    HW229462   7.987   9.312   0.885
 9230SOL     OW29463  13.171   1.783  12.867
 9230SOL    HW129464  13.086   1.821  12.889
 9230SOL    HW229465  13.160   1.689  12.881
 9231SOL     OW29466   8.691   3.257  12.984
 9231SOL    HW129467   8.623   3.270  13.050
 9231SOL    HW229468   8.762   3.316  13.010
 9232SOL     OW29469   7.401   5.913   5.158
 9232SOL    HW129470   7.382   6.002   5.188
 9232SOL    HW229471   7.366   5.856   5.226
 9233SOL     OW29472   3.643  13.765   6.622
 9233SOL    HW129473   3.634  13.764   6.718
 9233SOL    HW229474   3.638  13.858   6.599
 9234SOL     OW29475   1.627   4.454   5.103
 9234SOL    HW129476   1.650   4.364   5.082
 9234SOL    HW229477   1.708   4.492   5.138
 9235SOL     OW29478   6.533  13.411   2.544
 9235SOL    HW129479   6.576  13.397   2.460
 9235SOL    HW229480   6.560  13.335   2.597
 9236SOL     OW29481   5.639  11.410  13.520
 9236SOL    HW129482   5.661  11.492  13.565
 9236SOL    HW229483   5.689  11.343  13.566
 9237SOL     OW29484  13.488  14.200   2.460
 9237SOL    HW129485  13.556  14.161   2.406
 9237SOL    HW229486  13.502  14.294   2.454
 9238SOL     OW29487   8.684   7.845   5.974
 9238SOL    HW129488   8.605   7.808   6.015
 9238SOL    HW229489   8.695   7.792   5.894
 9239SOL     OW29490   0.377   5.679   4.573
 9239SOL    HW129491   0.375   5.668   4.478
 9239SOL    HW229492   0.405   5.770   4.586
 9240SOL     OW29493   1.559   2.481   1.860
 9240SOL    HW129494   1.524   2.470   1.772
 9240SOL    HW229495   1.485   2.513   1.912
 9241SOL     OW29496  10.153   0.076   7.963
 9241SOL    HW129497  10.100   0.129   7.903
 9241SOL    HW229498  10.190   0.008   7.908
 9242SOL     OW29499   8.638   5.516   6.339
 9242SOL    HW129500   8.659   5.575   6.411
 9242SOL    HW229501   8.556   5.474   6.366
 9243SOL     OW29502   3.622   6.025   3.011
 9243SOL    HW129503   3.662   6.094   2.957
 9243SOL    HW229504   3.616   5.950   2.953
 9244SOL     OW29505   7.640   5.429  13.979
 9244SOL    HW129506   7.678   5.374  14.047
 9244SOL    HW229507   7.689   5.511  13.985
 9245SOL     OW29508   6.738   3.597   5.696
 9245SOL    HW129509   6.792   3.636   5.628
 9245SOL    HW229510   6.736   3.504   5.676
 9246SOL     OW29511   1.751  12.075   5.760
 9246SOL    HW129512   1.779  12.026   5.683
 9246SOL    HW229513   1.661  12.103   5.740
 9247SOL     OW29514   7.966   4.715   5.658
 9247SOL    HW129515   8.007   4.756   5.734
 9247SOL    HW229516   7.967   4.622   5.678
 9248SOL     OW29517  10.568  12.003   7.722
 9248SOL    HW129518  10.596  11.912   7.736
 9248SOL    HW229519  10.533  12.004   7.633
 9249SOL     OW29520  12.794  11.287   8.058
 9249SOL    HW129521  12.787  11.367   8.006
 9249SOL    HW229522  12.810  11.317   8.147
 9250SOL     OW29523  10.656   0.964  10.943
 9250SOL    HW129524  10.666   0.958  10.848
 9250SOL    HW229525  10.655   1.059  10.960
 9251SOL     OW29526   9.011  14.452   5.130
 9251SOL    HW129527   8.996  14.438   5.223
 9251SOL    HW229528   9.064  14.531   5.126
 9252SOL     OW29529   2.501   5.306  12.318
 9252SOL    HW129530   2.516   5.344  12.232
 9252SOL    HW229531   2.589   5.293  12.354
 9253SOL     OW29532   7.095   2.929   1.801
 9253SOL    HW129533   7.095   2.993   1.872
 9253SOL    HW229534   7.183   2.934   1.764
 9254SOL     OW29535   0.430   1.652  12.846
 9254SOL    HW129536   0.384   1.734  12.866
 9254SOL    HW229537   0.361   1.594  12.813
 9255SOL     OW29538   3.882   3.848   8.432
 9255SOL    HW129539   3.872   3.803   8.515
 9255SOL    HW229540   3.926   3.785   8.375
 9256SOL     OW29541   8.760   0.166   0.117
 9256SOL    HW129542   8.743   0.238   0.176
 9256SOL    HW229543   8.827   0.114   0.161
 9257SOL     OW29544   5.558  14.752   8.732
 9257SOL    HW129545   5.558  14.695   8.656
 9257SOL    HW229546   5.632  14.721   8.785
 9258SOL     OW29547   1.734   2.070   7.530
 9258SOL    HW129548   1.685   1.995   7.499
 9258SOL    HW229549   1.690   2.095   7.612
 9259SOL     OW29550  13.732   3.488   6.806
 9259SOL    HW129551  13.731   3.483   6.902
 9259SOL    HW229552  13.755   3.579   6.788
 9260SOL     OW29553  11.624  13.825  11.291
 9260SOL    HW129554  11.586  13.908  11.264
 9260SOL    HW229555  11.580  13.759  11.237
 9261SOL     OW29556   5.069   2.694  11.306
 9261SOL    HW129557   5.044   2.649  11.386
 9261SOL    HW229558   5.047   2.633  11.236
 9262SOL     OW29559   4.500   6.235   8.180
 9262SOL    HW129560   4.437   6.224   8.251
 9262SOL    HW229561   4.548   6.315   8.202
 9263SOL     OW29562   9.966   5.633   4.796
 9263SOL    HW129563   9.893   5.658   4.739
 9263SOL    HW229564   9.987   5.544   4.769
 9264SOL     OW29565   9.953   7.721   1.618
 9264SOL    HW129566   9.864   7.720   1.653
 9264SOL    HW229567  10.007   7.685   1.689
 9265SOL     OW29568  11.463   8.002  13.307
 9265SOL    HW129569  11.525   7.938  13.272
 9265SOL    HW229570  11.385   7.993  13.251
 9266SOL     OW29571   7.252   6.571  11.763
 9266SOL    HW129572   7.309   6.566  11.839
 9266SOL    HW229573   7.167   6.596  11.798
 9267SOL     OW29574  12.667  14.354  10.410
 9267SOL    HW129575  12.644  14.269  10.372
 9267SOL    HW229576  12.616  14.418  10.360
 9268SOL     OW29577   0.976   1.010   9.833
 9268SOL    HW129578   0.894   1.059   9.827
 9268SOL    HW229579   0.991   0.978   9.744
 9269SOL     OW29580   9.991  11.526   6.943
 9269SOL    HW129581   9.903  11.561   6.953
 9269SOL    HW229582   9.983  11.458   6.876
 9270SOL     OW29583  12.827  14.488   2.622
 9270SOL    HW129584  12.879  14.441   2.557
 9270SOL    HW229585  12.852  14.580   2.610
 9271SOL     OW29586   9.937   1.634   8.336
 9271SOL    HW129587   9.872   1.607   8.401
 9271SOL    HW229588  10.021   1.618   8.379
 9272SOL     OW29589  14.611   8.853   5.114
 9272SOL    HW129590  14.601   8.944   5.087
 9272SOL    HW229591  14.529   8.834   5.160
 9273SOL     OW29592  10.341  14.498   6.151
 9273SOL    HW129593  10.408  14.453   6.203
 9273SOL    HW229594  10.266  14.506   6.210
 9274SOL     OW29595   5.661   1.192   8.086
 9274SOL    HW129596   5.678   1.285   8.070
 9274SOL    HW229597   5.655   1.154   7.999
 9275SOL     OW29598   2.421   0.063   9.831
 9275SOL    HW129599   2.335   0.094   9.805
 9275SOL    HW229600   2.449   0.123   9.900
 9276SOL     OW29601   5.077   5.050   8.716
 9276SOL    HW129602   5.048   5.004   8.637
 9276SOL    HW229603   5.082   4.983   8.783
 9277SOL     OW29604  11.804   6.044   1.644
 9277SOL    HW129605  11.812   6.132   1.608
 9277SOL    HW229606  11.879   5.997   1.607
 9278SOL     OW29607   4.193   8.576   0.660
 9278SOL    HW129608   4.133   8.567   0.586
 9278SOL    HW229609   4.249   8.651   0.637
 9279SOL     OW29610   4.652   4.858   4.851
 9279SOL    HW129611   4.577   4.811   4.817
 9279SOL    HW229612   4.722   4.793   4.857
 9280SOL     OW29613   6.249   0.922   9.389
 9280SOL    HW129614   6.235   0.845   9.444
 9280SOL    HW229615   6.283   0.887   9.307
 9281SOL     OW29616  12.214   4.131   0.689
 9281SOL    HW129617  12.278   4.060   0.698
 9281SOL    HW229618  12.193   4.154   0.779
 9282SOL     OW29619   2.594   1.906   5.822
 9282SOL    HW129620   2.556   1.899   5.735
 9282SOL    HW229621   2.666   1.844   5.824
 9283SOL     OW29622  10.057  11.568  11.672
 9283SOL    HW129623  10.080  11.475  11.667
 9283SOL    HW229624   9.964  11.569  11.692
 9284SOL     OW29625  13.875   4.077  13.814
 9284SOL    HW129626  13.841   4.119  13.893
 9284SOL    HW229627  13.820   4.111  13.743
 9285SOL     OW29628   1.488   0.179   2.929
 9285SOL    HW129629   1.417   0.170   2.866
 9285SOL    HW229630   1.481   0.269   2.960
 9286SOL     OW29631   5.866  12.163  11.443
 9286SOL    HW129632   5.796  12.217  11.479
 9286SOL    HW229633   5.895  12.210  11.365
 9287SOL     OW29634   1.682   9.547   2.011
 9287SOL    HW129635   1.734   9.589   2.079
 9287SOL    HW229636   1.675   9.456   2.039
 9288SOL     OW29637   0.875   3.483   2.823
 9288SOL    HW129638   0.880   3.571   2.860
 9288SOL    HW229639   0.825   3.494   2.742
 9289SOL     OW29640   7.838  14.786  14.270
 9289SOL    HW129641   7.746  14.790  14.247
 9289SOL    HW229642   7.884  14.776  14.186
 9290SOL     OW29643  11.912   4.523   5.211
 9290SOL    HW129644  11.998   4.523   5.253
 9290SOL    HW229645  11.876   4.436   5.230
 9291SOL     OW29646  12.023   2.293   6.143
 9291SOL    HW129647  11.958   2.360   6.164
 9291SOL    HW229648  12.014   2.279   6.049
 9292SOL     OW29649  10.496   1.078  14.238
 9292SOL    HW129650  10.472   1.155  14.288
 9292SOL    HW229651  10.458   1.093  14.151
 9293SOL     OW29652  14.552   3.842   5.322
 9293SOL    HW129653  14.472   3.890   5.341
 9293SOL    HW229654  14.542   3.758   5.368
 9294SOL     OW29655   1.828   6.166  14.240
 9294SOL    HW129656   1.782   6.086  14.264
 9294SOL    HW229657   1.778   6.202  14.166
 9295SOL     OW29658  13.635   5.110   7.485
 9295SOL    HW129659  13.613   5.156   7.565
 9295SOL    HW229660  13.726   5.081   7.498
 9296SOL     OW29661   0.206   0.709   4.021
 9296SOL    HW129662   0.132   0.649   4.012
 9296SOL    HW229663   0.235   0.726   3.932
 9297SOL     OW29664   1.601   8.897  10.990
 9297SOL    HW129665   1.610   8.924  10.899
 9297SOL    HW229666   1.610   8.979  11.040
 9298SOL     OW29667  10.608   6.262  11.129
 9298SOL    HW129668  10.536   6.225  11.180
 9298SOL    HW229669  10.680   6.270  11.192
 9299SOL     OW29670  13.427   8.051  12.605
 9299SOL    HW129671  13.430   8.136  12.650
 9299SOL    HW229672  13.429   8.073  12.512
 9300SOL     OW29673   6.079   3.571   8.274
 9300SOL    HW129674   6.069   3.622   8.194
 9300SOL    HW229675   6.171   3.545   8.276
 9301SOL     OW29676  12.557   8.263   3.966
 9301SOL    HW129677  12.558   8.172   3.996
 9301SOL    HW229678  12.631   8.304   4.010
 9302SOL     OW29679   8.166  14.092  13.337
 9302SOL    HW129680   8.132  14.006  13.312
 9302SOL    HW229681   8.229  14.072  13.407
 9303SOL     OW29682  12.062   3.101   7.309
 9303SOL    HW129683  11.997   3.125   7.374
 9303SOL    HW229684  12.127   3.050   7.357
 9304SOL     OW29685   2.854  10.874   1.996
 9304SOL    HW129686   2.787  10.876   2.065
 9304SOL    HW229687   2.818  10.814   1.930
 9305SOL     OW29688  12.120   1.748   3.822
 9305SOL    HW129689  12.046   1.794   3.862
 9305SOL    HW229690  12.191   1.812   3.822
 9306SOL     OW29691  13.304  10.061   3.821
 9306SOL    HW129692  13.330  10.138   3.771
 9306SOL    HW229693  13.245  10.095   3.888
 9307SOL     OW29694  12.901   3.479  13.294
 9307SOL    HW129695  12.987   3.464  13.335
 9307SOL    HW229696  12.864   3.391  13.285
 9308SOL     OW29697   8.778   0.364   6.277
 9308SOL    HW129698   8.783   0.423   6.352
 9308SOL    HW229699   8.721   0.409   6.214
 9309SOL     OW29700  12.676   7.154  12.375
 9309SOL    HW129701  12.689   7.064  12.406
 9309SOL    HW229702  12.643   7.144  12.286
 9310SOL     OW29703   9.184   7.514   1.724
 9310SOL    HW129704   9.248   7.565   1.673
 9310SOL    HW229705   9.123   7.481   1.658
 9311SOL     OW29706   7.406   2.276   3.805
 9311SOL    HW129707   7.437   2.355   3.761
 9311SOL    HW229708   7.402   2.299   3.897
 9312SOL     OW29709   4.343  10.122   1.892
 9312SOL    HW129710   4.415  10.079   1.847
 9312SOL    HW229711   4.295  10.051   1.935
 9313SOL     OW29712  13.379  13.541   6.766
 9313SOL    HW129713  13.334  13.583   6.839
 9313SOL    HW229714  13.398  13.613   6.706
 9314SOL     OW29715  12.785   1.523   3.093
 9314SOL    HW129716  12.758   1.489   3.178
 9314SOL    HW229717  12.869   1.481   3.076
 9315SOL     OW29718  11.497   5.169   4.649
 9315SOL    HW129719  11.511   5.159   4.555
 9315SOL    HW229720  11.433   5.240   4.656
 9316SOL     OW29721   4.856  10.309   2.637
 9316SOL    HW129722   4.868  10.358   2.718
 9316SOL    HW229723   4.766  10.328   2.611
 9317SOL     OW29724   4.972  10.231   1.631
 9317SOL    HW129725   5.047  10.181   1.599
 9317SOL    HW229726   4.912  10.165   1.666
 9318SOL     OW29727  14.549   1.317  13.952
 9318SOL    HW129728  14.596   1.234  13.944
 9318SOL    HW229729  14.514   1.316  14.042
 9319SOL     OW29730  10.746  14.035   0.277
 9319SOL    HW129731  10.774  14.052   0.367
 9319SOL    HW229732  10.684  14.105   0.257
 9320SOL     OW29733   0.266   1.033   0.991
 9320SOL    HW129734   0.292   0.941   0.987
 9320SOL    HW229735   0.215   1.047   0.912
 9321SOL     OW29736   9.618  12.419  14.784
 9321SOL    HW129737   9.645  12.390  14.697
 9321SOL    HW229738   9.560  12.494  14.768
 9322SOL     OW29739  12.975   7.537   3.924
 9322SOL    HW129740  12.904   7.591   3.888
 9322SOL    HW229741  12.951   7.525   4.016
 9323SOL     OW29742   1.381  11.419  10.203
 9323SOL    HW129743   1.301  11.413  10.151
 9323SOL    HW229744   1.437  11.350  10.169
 9324SOL     OW29745   3.092  10.839   6.830
 9324SOL    HW129746   3.178  10.879   6.825
 9324SOL    HW229747   3.042  10.897   6.888
 9325SOL     OW29748   1.844   4.152  13.742
 9325SOL    HW129749   1.785   4.121  13.673
 9325SOL    HW229750   1.793   4.142  13.822
 9326SOL     OW29751   1.840  14.259  13.987
 9326SOL    HW129752   1.835  14.337  14.042
 9326SOL    HW229753   1.772  14.201  14.020
 9327SOL     OW29754   7.275   1.211  12.932
 9327SOL    HW129755   7.201   1.183  12.987
 9327SOL    HW229756   7.287   1.140  12.870
 9328SOL     OW29757   7.286   6.687   1.383
 9328SOL    HW129758   7.316   6.776   1.404
 9328SOL    HW229759   7.242   6.697   1.298
 9329SOL     OW29760   2.431   4.213   6.509
 9329SOL    HW129761   2.367   4.285   6.513
 9329SOL    HW229762   2.428   4.183   6.418
 9330SOL     OW29763   7.943   6.974  10.138
 9330SOL    HW129764   8.014   6.937  10.191
 9330SOL    HW229765   7.945   7.068  10.157
 9331SOL     OW29766   7.520   5.579  12.082
 9331SOL    HW129767   7.514   5.643  12.011
 9331SOL    HW229768   7.564   5.626  12.153
 9332SOL     OW29769   3.820   7.807  11.109
 9332SOL    HW129770   3.834   7.792  11.202
 9332SOL    HW229771   3.814   7.903  11.101
 9333SOL     OW29772   7.937   4.166  12.735
 9333SOL    HW129773   8.028   4.152  12.708
 9333SOL    HW229774   7.885   4.134  12.661
 9334SOL     OW29775   8.385  14.599  11.210
 9334SOL    HW129776   8.332  14.521  11.229
 9334SOL    HW229777   8.347  14.635  11.131
 9335SOL     OW29778   3.573   5.653   5.584
 9335SOL    HW129779   3.548   5.639   5.492
 9335SOL    HW229780   3.491   5.673   5.629
 9336SOL     OW29781   6.928   1.542  10.717
 9336SOL    HW129782   6.837   1.518  10.734
 9336SOL    HW229783   6.974   1.521  10.798
 9337SOL     OW29784  13.949  11.767   6.540
 9337SOL    HW129785  13.961  11.752   6.633
 9337SOL    HW229786  14.031  11.737   6.500
 9338SOL     OW29787   5.472   7.580   4.682
 9338SOL    HW129788   5.452   7.507   4.741
 9338SOL    HW229789   5.522   7.641   4.735
 9339SOL     OW29790   5.480  12.996  11.439
 9339SOL    HW129791   5.442  13.041  11.363
 9339SOL    HW229792   5.517  12.915  11.404
 9340SOL     OW29793  10.606   2.180   8.396
 9340SOL    HW129794  10.618   2.265   8.439
 9340SOL    HW229795  10.546   2.198   8.323
 9341SOL     OW29796  13.779  12.656   5.026
 9341SOL    HW129797  13.751  12.566   5.042
 9341SOL    HW229798  13.765  12.700   5.110
 9342SOL     OW29799   4.070   6.958   4.174
 9342SOL    HW129800   4.030   7.025   4.229
 9342SOL    HW229801   4.164   6.968   4.189
 9343SOL     OW29802  10.499   6.651   9.142
 9343SOL    HW129803  10.458   6.669   9.058
 9343SOL    HW229804  10.560   6.724   9.155
 9344SOL     OW29805  11.893   0.420   1.728
 9344SOL    HW129806  11.832   0.417   1.802
 9344SOL    HW229807  11.979   0.424   1.769
 9345SOL     OW29808   6.750   8.740   0.424
 9345SOL    HW129809   6.677   8.678   0.428
 9345SOL    HW229810   6.751   8.769   0.332
 9346SOL     OW29811   4.614   9.066   0.769
 9346SOL    HW129812   4.578   8.985   0.805
 9346SOL    HW229813   4.708   9.049   0.759
 9347SOL     OW29814   0.638   0.299   1.623
 9347SOL    HW129815   0.579   0.323   1.552
 9347SOL    HW229816   0.716   0.267   1.579
 9348SOL     OW29817  13.257   6.979   9.518
 9348SOL    HW129818  13.292   6.901   9.561
 9348SOL    HW229819  13.309   7.051   9.553
 9349SOL     OW29820   4.114   9.047  11.034
 9349SOL    HW129821   4.202   9.012  11.049
 9349SOL    HW229822   4.089   9.010  10.949
 9350SOL     OW29823  12.648  10.671   6.879
 9350SOL    HW129824  12.614  10.723   6.952
 9350SOL    HW229825  12.740  10.656   6.902
 9351SOL     OW29826   7.383   9.488  13.541
 9351SOL    HW129827   7.444   9.417  13.519
 9351SOL    HW229828   7.438   9.554  13.583
 9352SOL     OW29829   8.298  14.057   5.031
 9352SOL    HW129830   8.360  13.998   4.988
 9352SOL    HW229831   8.348  14.099   5.100
 9353SOL     OW29832   8.517  11.496  11.523
 9353SOL    HW129833   8.467  11.418  11.500
 9353SOL    HW229834   8.456  11.569  11.510
 9354SOL     OW29835  12.071   5.217   1.225
 9354SOL    HW129836  12.025   5.290   1.266
 9354SOL    HW229837  12.025   5.204   1.141
 9355SOL     OW29838  13.582  10.919  13.472
 9355SOL    HW129839  13.534  10.866  13.536
 9355SOL    HW229840  13.514  10.971  13.429
 9356SOL     OW29841   9.853   1.356  11.226
 9356SOL    HW129842   9.893   1.402  11.299
 9356SOL    HW229843   9.885   1.267  11.233
 9357SOL     OW29844   2.372  14.558   5.235
 9357SOL    HW129845   2.300  14.582   5.176
 9357SOL    HW229846   2.343  14.478   5.277
 9358SOL     OW29847   9.392   5.711   9.186
 9358SOL    HW129848   9.460   5.689   9.123
 9358SOL    HW229849   9.374   5.630   9.233
 9359SOL     OW29850  14.299  10.204  10.572
 9359SOL    HW129851  14.389  10.181  10.550
 9359SOL    HW229852  14.272  10.137  10.636
 9360SOL     OW29853   3.374  11.416  13.215
 9360SOL    HW129854   3.391  11.496  13.164
 9360SOL    HW229855   3.298  11.377  13.173
 9361SOL     OW29856   4.357   4.333  11.658
 9361SOL    HW129857   4.397   4.403  11.607
 9361SOL    HW229858   4.417   4.259  11.648
 9362SOL     OW29859  11.479  10.952   6.029
 9362SOL    HW129860  11.428  10.877   5.996
 9362SOL    HW229861  11.413  11.017   6.051
 9363SOL     OW29862   4.782   0.978  14.297
 9363SOL    HW129863   4.832   1.059  14.290
 9363SOL    HW229864   4.698   1.005  14.334
 9364SOL     OW29865   6.008   1.485  12.445
 9364SOL    HW129866   5.944   1.554  12.427
 9364SOL    HW229867   6.085   1.532  12.477
 9365SOL     OW29868   4.512   4.604   7.219
 9365SOL    HW129869   4.522   4.529   7.278
 9365SOL    HW229870   4.468   4.569   7.142
 9366SOL     OW29871   2.100  11.336  12.071
 9366SOL    HW129872   2.175  11.363  12.125
 9366SOL    HW229873   2.139  11.283  12.001
 9367SOL     OW29874  14.794  13.999   4.541
 9367SOL    HW129875  14.733  13.931   4.570
 9367SOL    HW229876  14.798  14.060   4.614
 9368SOL     OW29877  10.362   0.086  12.712
 9368SOL    HW129878  10.423   0.052  12.647
 9368SOL    HW229879  10.372   0.181  12.707
 9369SOL     OW29880   7.595  13.553  14.617
 9369SOL    HW129881   7.524  13.588  14.671
 9369SOL    HW229882   7.567  13.464  14.595
 9370SOL     OW29883   4.062   0.967   1.174
 9370SOL    HW129884   4.103   0.941   1.257
 9370SOL    HW229885   4.074   0.891   1.117
 9371SOL     OW29886  11.825   7.573  13.376
 9371SOL    HW129887  11.903   7.516  13.379
 9371SOL    HW229888  11.788   7.565  13.464
 9372SOL     OW29889  13.816  11.344  14.687
 9372SOL    HW129890  13.790  11.383  14.770
 9372SOL    HW229891  13.802  11.413  14.623
 9373SOL     OW29892  12.109  12.405  12.720
 9373SOL    HW129893  12.204  12.395  12.730
 9373SOL    HW229894  12.074  12.380  12.805
 9374SOL     OW29895   5.857   5.592   1.955
 9374SOL    HW129896   5.785   5.547   1.912
 9374SOL    HW229897   5.853   5.562   2.046
 9375SOL     OW29898   5.825  11.049   1.747
 9375SOL    HW129899   5.777  11.065   1.828
 9375SOL    HW229900   5.916  11.072   1.767
 9376SOL     OW29901  10.523   8.066  13.668
 9376SOL    HW129902  10.499   8.144  13.719
 9376SOL    HW229903  10.575   8.100  13.596
 9377SOL     OW29904   9.450   4.923  12.545
 9377SOL    HW129905   9.391   4.852  12.521
 9377SOL    HW229906   9.403   5.003  12.521
 9378SOL     OW29907  12.058   5.839  14.499
 9378SOL    HW129908  11.970   5.851  14.462
 9378SOL    HW229909  12.047   5.853  14.593
 9379SOL     OW29910   4.643  13.585   6.679
 9379SOL    HW129911   4.567  13.641   6.689
 9379SOL    HW229912   4.629  13.513   6.741
 9380SOL     OW29913   2.601   5.089   9.417
 9380SOL    HW129914   2.679   5.133   9.452
 9380SOL    HW229915   2.616   4.996   9.433
 9381SOL     OW29916   2.926  10.273  14.615
 9381SOL    HW129917   2.893  10.189  14.648
 9381SOL    HW229918   2.920  10.266  14.520
 9382SOL     OW29919  12.210   8.557  11.950
 9382SOL    HW129920  12.197   8.649  11.972
 9382SOL    HW229921  12.274   8.526  12.014
 9383SOL     OW29922  11.719   0.009   2.264
 9383SOL    HW129923  11.789   0.034   2.324
 9383SOL    HW229924  11.764  14.855   2.186
 9384SOL     OW29925  14.817  12.854  10.856
 9384SOL    HW129926  14.791  12.891  10.940
 9384SOL    HW229927  14.869  12.776  10.878
 9385SOL     OW29928   7.748   8.155   7.577
 9385SOL    HW129929   7.778   8.232   7.528
 9385SOL    HW229930   7.696   8.192   7.649
 9386SOL     OW29931   6.919   0.742  12.305
 9386SOL    HW129932   6.860   0.693  12.247
 9386SOL    HW229933   6.996   0.687  12.313
 9387SOL     OW29934   6.847   8.665   1.567
 9387SOL    HW129935   6.916   8.654   1.633
 9387SOL    HW229936   6.844   8.581   1.522
 9388SOL     OW29937   0.099   9.789   6.903
 9388SOL    HW129938   0.058   9.812   6.819
 9388SOL    HW229939   0.171   9.851   6.912
 9389SOL     OW29940   2.150   8.291  13.625
 9389SOL    HW129941   2.204   8.349  13.679
 9389SOL    HW229942   2.067   8.284  13.672
 9390SOL     OW29943   1.786   0.142   7.644
 9390SOL    HW129944   1.787   0.138   7.549
 9390SOL    HW229945   1.860   0.199   7.666
 9391SOL     OW29946   1.120   4.238  13.312
 9391SOL    HW129947   1.142   4.245  13.405
 9391SOL    HW229948   1.025   4.251  13.309
 9392SOL     OW29949   7.726  12.535   4.617
 9392SOL    HW129950   7.766  12.553   4.702
 9392SOL    HW229951   7.777  12.587   4.555
 9393SOL     OW29952   2.744  10.771   5.916
 9393SOL    HW129953   2.693  10.816   5.983
 9393SOL    HW229954   2.767  10.687   5.956
 9394SOL     OW29955   1.511   3.428   0.155
 9394SOL    HW129956   1.540   3.487   0.225
 9394SOL    HW229957   1.575   3.443   0.084
 9395SOL     OW29958   4.003  10.273   3.840
 9395SOL    HW129959   4.096  10.292   3.853
 9395SOL    HW229960   3.965  10.280   3.927
 9396SOL     OW29961   1.755   5.788   3.939
 9396SOL    HW129962   1.688   5.839   3.893
 9396SOL    HW229963   1.838   5.820   3.903
 9397SOL     OW29964   1.815   9.829   5.999
 9397SOL    HW129965   1.851   9.747   6.033
 9397SOL    HW229966   1.829   9.892   6.069
 9398SOL     OW29967   8.369   0.928  13.961
 9398SOL    HW129968   8.453   0.897  13.995
 9398SOL    HW229969   8.389   1.012  13.920
 9399SOL     OW29970   4.072  12.888  10.382
 9399SOL    HW129971   4.116  12.913  10.301
 9399SOL    HW229972   4.034  12.802  10.362
 9400SOL     OW29973  11.051   3.493   8.405
 9400SOL    HW129974  11.079   3.432   8.473
 9400SOL    HW229975  11.000   3.560   8.451
 9401SOL     OW29976  10.798   0.910   7.265
 9401SOL    HW129977  10.807   1.005   7.273
 9401SOL    HW229978  10.887   0.877   7.269
 9402SOL     OW29979   5.584  14.552   4.535
 9402SOL    HW129980   5.597  14.621   4.600
 9402SOL    HW229981   5.637  14.580   4.460
 9403SOL     OW29982   9.420   5.332   2.322
 9403SOL    HW129983   9.461   5.315   2.407
 9403SOL    HW229984   9.475   5.399   2.282
 9404SOL     OW29985   0.446  14.680   2.403
 9404SOL    HW129986   0.404  14.661   2.487
 9404SOL    HW229987   0.375  14.675   2.339
 9405SOL     OW29988  14.100   5.541   3.799
 9405SOL    HW129989  14.169   5.515   3.860
 9405SOL    HW229990  14.067   5.459   3.763
 9406SOL     OW29991   1.443  13.284   6.420
 9406SOL    HW129992   1.455  13.294   6.514
 9406SOL    HW229993   1.363  13.233   6.412
 9407SOL     OW29994   8.826   7.138   9.872
 9407SOL    HW129995   8.849   7.231   9.876
 9407SOL    HW229996   8.812   7.122   9.779
 9408SOL     OW29997   1.373   0.405   0.358
 9408SOL    HW129998   1.289   0.451   0.351
 9408SOL    HW229999   1.424   0.459   0.418
 9409SOL     OW30000  11.742   6.028   7.051
 9409SOL    HW130001  11.706   5.993   6.970
 9409SOL    HW230002  11.698   6.112   7.064
 9410SOL     OW30003  13.505   9.891  14.714
 9410SOL    HW130004  13.468   9.833  14.647
 9410SOL    HW230005  13.519   9.974  14.669
 9411SOL     OW30006   5.960   1.176   2.691
 9411SOL    HW130007   5.902   1.100   2.703
 9411SOL    HW230008   6.041   1.139   2.657
 9412SOL     OW30009   2.327   5.831  12.665
 9412SOL    HW130010   2.377   5.834  12.746
 9412SOL    HW230011   2.385   5.870  12.600
 9413SOL     OW30012   2.317  10.101   6.186
 9413SOL    HW130013   2.234  10.074   6.225
 9413SOL    HW230014   2.377  10.108   6.261
 9414SOL     OW30015  11.490   6.760   8.748
 9414SOL    HW130016  11.473   6.825   8.817
 9414SOL    HW230017  11.583   6.739   8.758
 9415SOL     OW30018  13.228   0.188   0.672
 9415SOL    HW130019  13.318   0.178   0.703
 9415SOL    HW230020  13.226   0.143   0.588
 9416SOL     OW30021   6.088   3.560  10.369
 9416SOL    HW130022   6.176   3.523  10.381
 9416SOL    HW230023   6.079   3.622  10.442
 9417SOL     OW30024   0.505   8.194  12.694
 9417SOL    HW130025   0.476   8.172  12.605
 9417SOL    HW230026   0.507   8.290  12.694
 9418SOL     OW30027   1.366  12.009   2.789
 9418SOL    HW130028   1.345  11.966   2.871
 9418SOL    HW230029   1.332  12.098   2.798
 9419SOL     OW30030  12.515   1.605   1.321
 9419SOL    HW130031  12.597   1.589   1.276
 9419SOL    HW230032  12.500   1.525   1.372
 9420SOL     OW30033   2.813   5.776   0.150
 9420SOL    HW130034   2.880   5.814   0.207
 9420SOL    HW230035   2.858   5.765   0.065
 9421SOL     OW30036   1.835   6.052   5.375
 9421SOL    HW130037   1.791   5.967   5.382
 9421SOL    HW230038   1.824   6.078   5.284
 9422SOL     OW30039   1.104   2.983  11.867
 9422SOL    HW130040   1.037   3.007  11.803
 9422SOL    HW230041   1.072   2.902  11.906
 9423SOL     OW30042   1.416   1.900   6.361
 9423SOL    HW130043   1.456   1.979   6.324
 9423SOL    HW230044   1.339   1.932   6.409
 9424SOL     OW30045  13.774   2.374   5.828
 9424SOL    HW130046  13.848   2.313   5.826
 9424SOL    HW230047  13.786   2.424   5.909
 9425SOL     OW30048   9.401   6.445   8.043
 9425SOL    HW130049   9.402   6.459   7.949
 9425SOL    HW230050   9.405   6.533   8.080
 9426SOL     OW30051   5.493   8.950   9.115
 9426SOL    HW130052   5.506   8.921   9.025
 9426SOL    HW230053   5.428   9.020   9.109
 9427SOL     OW30054   5.163   1.067   1.074
 9427SOL    HW130055   5.146   1.067   1.168
 9427SOL    HW230056   5.100   1.130   1.038
 9428SOL     OW30057   6.686   3.573   7.647
 9428SOL    HW130058   6.679   3.581   7.551
 9428SOL    HW230059   6.611   3.622   7.681
 9429SOL     OW30060   3.971   8.939  13.836
 9429SOL    HW130061   3.987   8.900  13.750
 9429SOL    HW230062   4.058   8.957  13.871
 9430SOL     OW30063   5.603   5.258  11.956
 9430SOL    HW130064   5.663   5.244  11.883
 9430SOL    HW230065   5.650   5.317  12.015
 9431SOL     OW30066   1.735   8.837  14.530
 9431SOL    HW130067   1.690   8.911  14.573
 9431SOL    HW230068   1.791   8.878  14.464
 9432SOL     OW30069  14.525   9.352   7.786
 9432SOL    HW130070  14.440   9.354   7.743
 9432SOL    HW230071  14.547   9.444   7.802
 9433SOL     OW30072   2.266   5.805  13.093
 9433SOL    HW130073   2.229   5.716  13.095
 9433SOL    HW230074   2.201   5.857  13.046
 9434SOL     OW30075  14.046   6.136   4.637
 9434SOL    HW130076  13.987   6.191   4.584
 9434SOL    HW230077  14.046   6.051   4.592
 9435SOL     OW30078   4.897   4.135   6.224
 9435SOL    HW130079   4.977   4.113   6.177
 9435SOL    HW230080   4.890   4.067   6.292
 9436SOL     OW30081  12.155   1.508  13.396
 9436SOL    HW130082  12.247   1.508  13.423
 9436SOL    HW230083  12.107   1.509  13.479
 9437SOL     OW30084   0.402  14.552   4.053
 9437SOL    HW130085   0.332  14.616   4.060
 9437SOL    HW230086   0.386  14.507   3.970
 9438SOL     OW30087  13.578   6.567   4.431
 9438SOL    HW130088  13.574   6.513   4.511
 9438SOL    HW230089  13.491   6.559   4.393
 9439SOL     OW30090   4.452   1.838   8.407
 9439SOL    HW130091   4.447   1.761   8.464
 9439SOL    HW230092   4.389   1.899   8.444
 9440SOL     OW30093  12.008   3.477   6.535
 9440SOL    HW130094  11.926   3.495   6.490
 9440SOL    HW230095  12.013   3.382   6.541
 9441SOL     OW30096   6.608   5.171   1.147
 9441SOL    HW130097   6.633   5.097   1.202
 9441SOL    HW230098   6.613   5.247   1.205
 9442SOL     OW30099   6.136   5.946   2.033
 9442SOL    HW130100   6.127   5.980   1.944
 9442SOL    HW230101   6.047   5.920   2.058
 9443SOL     OW30102   7.320   5.867  14.499
 9443SOL    HW130103   7.397   5.897  14.451
 9443SOL    HW230104   7.273   5.947  14.522
 9444SOL     OW30105  13.020   3.764   0.082
 9444SOL    HW130106  13.096   3.790   0.134
 9444SOL    HW230107  13.016   3.829   0.012
 9445SOL     OW30108   6.646   8.621  14.792
 9445SOL    HW130109   6.674   8.660  14.710
 9445SOL    HW230110   6.720   8.633  14.851
 9446SOL     OW30111  14.426   8.981   7.066
 9446SOL    HW130112  14.346   8.945   7.029
 9446SOL    HW230113  14.426   9.074   7.040
 9447SOL     OW30114   2.678   3.862  10.552
 9447SOL    HW130115   2.622   3.936  10.573
 9447SOL    HW230116   2.709   3.830  10.636
 9448SOL     OW30117   6.878   9.568   4.169
 9448SOL    HW130118   6.962   9.526   4.153
 9448SOL    HW230119   6.820   9.533   4.101
 9449SOL     OW30120   5.811   3.740   3.306
 9449SOL    HW130121   5.888   3.690   3.333
 9449SOL    HW230122   5.834   3.831   3.323
 9450SOL     OW30123  11.517  13.532  13.921
 9450SOL    HW130124  11.566  13.462  13.879
 9450SOL    HW230125  11.576  13.607  13.921
 9451SOL     OW30126  12.751   0.522   6.016
 9451SOL    HW130127  12.690   0.571   6.070
 9451SOL    HW230128  12.814   0.587   5.985
 9452SOL     OW30129  10.074   2.681  10.587
 9452SOL    HW130130  10.114   2.656  10.503
 9452SOL    HW230131  10.147   2.709  10.641
 9453SOL     OW30132   1.167   2.791   2.881
 9453SOL    HW130133   1.241   2.756   2.832
 9453SOL    HW230134   1.110   2.715   2.896
 9454SOL     OW30135   3.739  14.579  10.938
 9454SOL    HW130136   3.811  14.548  10.994
 9454SOL    HW230137   3.783  14.627  10.868
 9455SOL     OW30138   0.072   9.718  13.731
 9455SOL    HW130139   0.006   9.723  13.801
 9455SOL    HW230140   0.155   9.707  13.777
 9456SOL     OW30141  13.699   8.304   1.499
 9456SOL    HW130142  13.735   8.386   1.465
 9456SOL    HW230143  13.605   8.319   1.504
 9457SOL     OW30144   9.378   9.019  11.763
 9457SOL    HW130145   9.450   9.074  11.793
 9457SOL    HW230146   9.413   8.930  11.766
 9458SOL     OW30147   2.498   5.493   2.920
 9458SOL    HW130148   2.467   5.529   2.837
 9458SOL    HW230149   2.530   5.405   2.898
 9459SOL     OW30150  14.525  13.085   9.490
 9459SOL    HW130151  14.533  13.073   9.584
 9459SOL    HW230152  14.501  13.177   9.479
 9460SOL     OW30153  12.860   0.727   4.488
 9460SOL    HW130154  12.927   0.795   4.492
 9460SOL    HW230155  12.887   0.671   4.415
 9461SOL     OW30156   5.510  11.790   6.013
 9461SOL    HW130157   5.547  11.722   5.956
 9461SOL    HW230158   5.416  11.777   6.008
 9462SOL     OW30159  11.819   5.111   2.686
 9462SOL    HW130160  11.907   5.110   2.649
 9462SOL    HW230161  11.767   5.056   2.628
 9463SOL     OW30162   1.269  12.523  13.347
 9463SOL    HW130163   1.319  12.501  13.425
 9463SOL    HW230164   1.179  12.532  13.378
 9464SOL     OW30165   2.175   1.140   1.376
 9464SOL    HW130166   2.217   1.068   1.422
 9464SOL    HW230167   2.086   1.142   1.411
 9465SOL     OW30168   4.290   2.817   0.211
 9465SOL    HW130169   4.220   2.808   0.146
 9465SOL    HW230170   4.361   2.859   0.162
 9466SOL     OW30171   8.526  12.468   9.597
 9466SOL    HW130172   8.504  12.378   9.622
 9466SOL    HW230173   8.555  12.461   9.506
 9467SOL     OW30174   5.522  10.907   2.807
 9467SOL    HW130175   5.551  10.921   2.716
 9467SOL    HW230176   5.462  10.979   2.824
 9468SOL     OW30177   0.593  13.529  11.661
 9468SOL    HW130178   0.621  13.493  11.745
 9468SOL    HW230179   0.641  13.477  11.596
 9469SOL     OW30180   3.082  11.240   8.034
 9469SOL    HW130181   3.127  11.289   8.103
 9469SOL    HW230182   3.119  11.152   8.039
 9470SOL     OW30183   8.790  10.723   8.816
 9470SOL    HW130184   8.828  10.808   8.837
 9470SOL    HW230185   8.805  10.713   8.722
 9471SOL     OW30186  10.751   7.221  10.476
 9471SOL    HW130187  10.724   7.162  10.547
 9471SOL    HW230188  10.760   7.306  10.519
 9472SOL     OW30189   6.461  13.754  12.353
 9472SOL    HW130190   6.476  13.841  12.315
 9472SOL    HW230191   6.543  13.707  12.339
 9473SOL     OW30192   0.983   2.996  14.485
 9473SOL    HW130193   1.063   3.021  14.531
 9473SOL    HW230194   0.918   3.061  14.512
 9474SOL     OW30195   8.189   7.350  11.834
 9474SOL    HW130196   8.245   7.409  11.785
 9474SOL    HW230197   8.101   7.368  11.801
 9475SOL     OW30198   3.896   2.997  11.719
 9475SOL    HW130199   3.950   3.068  11.685
 9475SOL    HW230200   3.950   2.958  11.788
 9476SOL     OW30201   4.740   4.017   2.045
 9476SOL    HW130202   4.712   3.928   2.023
 9476SOL    HW230203   4.746   4.017   2.141
 9477SOL     OW30204   3.577  11.444   1.372
 9477SOL    HW130205   3.644  11.508   1.394
 9477SOL    HW230206   3.498  11.495   1.357
 9478SOL     OW30207  11.322   7.894   8.101
 9478SOL    HW130208  11.351   7.977   8.139
 9478SOL    HW230209  11.239   7.875   8.145
 9479SOL     OW30210   5.786   3.841   5.304
 9479SOL    HW130211   5.866   3.883   5.275
 9479SOL    HW230212   5.740   3.819   5.223
 9480SOL     OW30213   3.606  13.035   0.334
 9480SOL    HW130214   3.640  13.095   0.401
 9480SOL    HW230215   3.652  12.952   0.351
 9481SOL     OW30216   6.037   3.941   7.625
 9481SOL    HW130217   5.998   4.019   7.663
 9481SOL    HW230218   6.023   3.951   7.530
 9482SOL     OW30219  11.479  12.106   5.119
 9482SOL    HW130220  11.446  12.091   5.207
 9482SOL    HW230221  11.413  12.161   5.077
 9483SOL     OW30222   5.694   1.716   8.680
 9483SOL    HW130223   5.672   1.789   8.738
 9483SOL    HW230224   5.693   1.755   8.592
 9484SOL     OW30225   6.310  13.420  10.169
 9484SOL    HW130226   6.252  13.421  10.093
 9484SOL    HW230227   6.251  13.426  10.244
 9485SOL     OW30228   6.353   3.598   8.295
 9485SOL    HW130229   6.393   3.681   8.320
 9485SOL    HW230230   6.347   3.548   8.376
 9486SOL     OW30231   8.640  12.648   0.747
 9486SOL    HW130232   8.616  12.656   0.839
 9486SOL    HW230233   8.594  12.569   0.717
 9487SOL     OW30234   3.726   1.871  11.716
 9487SOL    HW130235   3.768   1.868  11.630
 9487SOL    HW230236   3.798   1.884  11.778
 9488SOL     OW30237   9.703   0.418   3.592
 9488SOL    HW130238   9.718   0.471   3.670
 9488SOL    HW230239   9.782   0.365   3.583
 9489SOL     OW30240  11.231   6.181   5.316
 9489SOL    HW130241  11.158   6.241   5.331
 9489SOL    HW230242  11.286   6.226   5.252
 9490SOL     OW30243   6.129  10.356  13.809
 9490SOL    HW130244   6.056  10.327  13.755
 9490SOL    HW230245   6.168  10.428  13.759
 9491SOL     OW30246   9.307   9.689   5.312
 9491SOL    HW130247   9.390   9.664   5.351
 9491SOL    HW230248   9.331   9.749   5.241
 9492SOL     OW30249  13.941   2.914  13.686
 9492SOL    HW130250  14.002   2.854  13.643
 9492SOL    HW230251  13.948   2.996  13.636
 9493SOL     OW30252   1.528  11.526   1.777
 9493SOL    HW130253   1.456  11.523   1.715
 9493SOL    HW230254   1.499  11.470   1.849
 9494SOL     OW30255   4.456   9.026   7.385
 9494SOL    HW130256   4.510   8.948   7.399
 9494SOL    HW230257   4.441   9.061   7.473
 9495SOL     OW30258   7.696  12.114  10.740
 9495SOL    HW130259   7.633  12.089  10.808
 9495SOL    HW230260   7.679  12.207  10.726
 9496SOL     OW30261  10.673  12.270  14.444
 9496SOL    HW130262  10.745  12.294  14.384
 9496SOL    HW230263  10.629  12.353  14.462
 9497SOL     OW30264   7.831   8.295   8.377
 9497SOL    HW130265   7.833   8.251   8.292
 9497SOL    HW230266   7.888   8.241   8.433
 9498SOL     OW30267   7.244   8.591   9.393
 9498SOL    HW130268   7.275   8.625   9.477
 9498SOL    HW230269   7.152   8.620   9.388
 9499SOL     OW30270  11.728  11.848   1.334
 9499SOL    HW130271  11.789  11.796   1.386
 9499SOL    HW230272  11.767  11.935   1.330
 9500SOL     OW30273   4.833   7.362   4.847
 9500SOL    HW130274   4.802   7.273   4.861
 9500SOL    HW230275   4.777   7.416   4.902
 9501SOL     OW30276   5.393   2.252   9.222
 9501SOL    HW130277   5.403   2.240   9.317
 9501SOL    HW230278   5.429   2.339   9.205
 9502SOL     OW30279   5.878   9.627   3.573
 9502SOL    HW130280   5.808   9.658   3.516
 9502SOL    HW230281   5.906   9.544   3.533
 9503SOL     OW30282   8.649   0.016  12.692
 9503SOL    HW130283   8.623   0.102  12.659
 9503SOL    HW230284   8.567  14.852  12.717
 9504SOL     OW30285  10.254  13.276   5.772
 9504SOL    HW130286  10.177  13.323   5.801
 9504SOL    HW230287  10.312  13.343   5.736
 9505SOL     OW30288  14.591  12.926  11.624
 9505SOL    HW130289  14.507  12.884  11.644
 9505SOL    HW230290  14.567  13.002  11.570
 9506SOL     OW30291   5.135   8.975   9.035
 9506SOL    HW130292   5.192   9.052   9.023
 9506SOL    HW230293   5.112   8.978   9.128
 9507SOL     OW30294   5.222   1.922   1.519
 9507SOL    HW130295   5.195   2.011   1.542
 9507SOL    HW230296   5.201   1.913   1.427
 9508SOL     OW30297   8.165  12.320   1.594
 9508SOL    HW130298   8.200  12.250   1.539
 9508SOL    HW230299   8.173  12.399   1.540
 9509SOL     OW30300  12.533   4.783   4.075
 9509SOL    HW130301  12.569   4.811   4.159
 9509SOL    HW230302  12.455   4.731   4.098
 9510SOL     OW30303  10.367   1.633  12.806
 9510SOL    HW130304  10.345   1.615  12.897
 9510SOL    HW230305  10.294   1.686  12.774
 9511SOL     OW30306   4.422   6.403  11.162
 9511SOL    HW130307   4.444   6.413  11.255
 9511SOL    HW230308   4.364   6.476  11.144
 9512SOL     OW30309   1.626   3.968   1.042
 9512SOL    HW130310   1.586   3.937   1.123
 9512SOL    HW230311   1.652   3.888   0.996
 9513SOL     OW30312   5.667   2.128   0.836
 9513SOL    HW130313   5.682   2.062   0.768
 9513SOL    HW230314   5.636   2.078   0.911
 9514SOL     OW30315  11.563  14.749  10.766
 9514SOL    HW130316  11.611  14.816  10.814
 9514SOL    HW230317  11.510  14.798  10.703
 9515SOL     OW30318   6.723   3.108   5.861
 9515SOL    HW130319   6.734   3.092   5.955
 9515SOL    HW230320   6.774   3.187   5.843
 9516SOL     OW30321   8.859  11.401   4.134
 9516SOL    HW130322   8.862  11.336   4.064
 9516SOL    HW230323   8.906  11.360   4.207
 9517SOL     OW30324   4.309   4.218  10.947
 9517SOL    HW130325   4.319   4.305  10.909
 9517SOL    HW230326   4.267   4.166  10.878
 9518SOL     OW30327   0.507   0.099  11.153
 9518SOL    HW130328   0.436   0.055  11.201
 9518SOL    HW230329   0.566   0.027  11.128
 9519SOL     OW30330  10.232   0.642   1.972
 9519SOL    HW130331  10.208   0.549   1.977
 9519SOL    HW230332  10.182   0.683   2.043
 9520SOL     OW30333   0.236  11.858   8.518
 9520SOL    HW130334   0.311  11.918   8.513
 9520SOL    HW230335   0.220  11.848   8.612
 9521SOL     OW30336   5.927  10.058   8.720
 9521SOL    HW130337   5.873   9.980   8.708
 9521SOL    HW230338   5.866  10.126   8.749
 9522SOL     OW30339   7.957   4.272  11.794
 9522SOL    HW130340   7.981   4.364  11.782
 9522SOL    HW230341   7.865   4.267  11.768
 9523SOL     OW30342   3.320   3.979   6.527
 9523SOL    HW130343   3.310   3.886   6.507
 9523SOL    HW230344   3.377   4.013   6.458
 9524SOL     OW30345   9.837   7.069   5.955
 9524SOL    HW130346   9.777   7.099   6.023
 9524SOL    HW230347   9.862   7.149   5.908
 9525SOL     OW30348   6.765   5.497  13.852
 9525SOL    HW130349   6.822   5.538  13.787
 9525SOL    HW230350   6.753   5.407  13.821
 9526SOL     OW30351   9.139  12.130  10.087
 9526SOL    HW130352   9.222  12.168  10.058
 9526SOL    HW230353   9.153  12.036  10.085
 9527SOL     OW30354  10.963  11.890   2.192
 9527SOL    HW130355  10.868  11.892   2.195
 9527SOL    HW230356  10.990  11.980   2.212
 9528SOL     OW30357   1.290   2.381   1.659
 9528SOL    HW130358   1.255   2.356   1.745
 9528SOL    HW230359   1.385   2.371   1.667
 9529SOL     OW30360   0.949  14.597   0.796
 9529SOL    HW130361   0.863  14.587   0.753
 9529SOL    HW230362   0.979  14.683   0.767
 9530SOL     OW30363   3.100  11.022   2.349
 9530SOL    HW130364   3.031  10.964   2.381
 9530SOL    HW230365   3.149  10.969   2.287
 9531SOL     OW30366   6.656  10.779   0.772
 9531SOL    HW130367   6.661  10.719   0.697
 9531SOL    HW230368   6.721  10.745   0.834
 9532SOL     OW30369  13.183   5.929   4.631
 9532SOL    HW130370  13.187   5.892   4.543
 9532SOL    HW230371  13.095   5.965   4.638
 9533SOL     OW30372   5.902   0.019  13.380
 9533SOL    HW130373   5.992   0.045  13.401
 9533SOL    HW230374   5.847   0.072  13.438
 9534SOL     OW30375   1.556   5.895  10.124
 9534SOL    HW130376   1.573   5.890  10.030
 9534SOL    HW230377   1.489   5.828  10.140
 9535SOL     OW30378   8.564  11.082  10.396
 9535SOL    HW130379   8.518  11.045  10.471
 9535SOL    HW230380   8.501  11.142  10.355
 9536SOL     OW30381   6.888   1.407   9.835
 9536SOL    HW130382   6.882   1.438   9.745
 9536SOL    HW230383   6.861   1.481   9.888
 9537SOL     OW30384   6.858   5.784  12.619
 9537SOL    HW130385   6.858   5.773  12.524
 9537SOL    HW230386   6.944   5.754  12.647
 9538SOL     OW30387  11.004   3.874  11.539
 9538SOL    HW130388  11.074   3.838  11.592
 9538SOL    HW230389  11.046   3.939  11.483
 9539SOL     OW30390   0.071   3.132   2.674
 9539SOL    HW130391   0.128   3.081   2.617
 9539SOL    HW230392   0.091   3.223   2.653
 9540SOL     OW30393   1.066  10.547   1.345
 9540SOL    HW130394   1.079  10.634   1.308
 9540SOL    HW230395   1.147  10.528   1.392
 9541SOL     OW30396  11.923   7.462  12.503
 9541SOL    HW130397  11.852   7.430  12.559
 9541SOL    HW230398  11.953   7.542  12.545
 9542SOL     OW30399   0.072  12.743  13.819
 9542SOL    HW130400   0.147  12.790  13.783
 9542SOL    HW230401   0.055  12.672  13.757
 9543SOL     OW30402   9.321   4.415  12.917
 9543SOL    HW130403   9.415   4.396  12.927
 9543SOL    HW230404   9.297   4.375  12.834
 9544SOL     OW30405   4.108   3.430   6.604
 9544SOL    HW130406   4.185   3.421   6.548
 9544SOL    HW230407   4.036   3.449   6.543
 9545SOL     OW30408  12.789   8.133   4.541
 9545SOL    HW130409  12.861   8.124   4.479
 9545SOL    HW230410  12.813   8.208   4.596
 9546SOL     OW30411   5.078   9.333   1.268
 9546SOL    HW130412   5.043   9.249   1.296
 9546SOL    HW230413   5.155   9.311   1.215
 9547SOL     OW30414   0.371   5.606  14.320
 9547SOL    HW130415   0.315   5.668  14.366
 9547SOL    HW230416   0.412   5.657  14.250
 9548SOL     OW30417   3.164  12.261  14.701
 9548SOL    HW130418   3.179  12.305  14.617
 9548SOL    HW230419   3.128  12.330  14.758
 9549SOL     OW30420   2.365   6.507   6.099
 9549SOL    HW130421   2.444   6.493   6.152
 9549SOL    HW230422   2.374   6.447   6.025
 9550SOL     OW30423   3.681  12.287  11.518
 9550SOL    HW130424   3.662  12.381  11.509
 9550SOL    HW230425   3.646  12.248  11.439
 9551SOL     OW30426  14.238   3.008  11.330
 9551SOL    HW130427  14.325   3.044  11.311
 9551SOL    HW230428  14.252   2.913  11.330
 9552SOL     OW30429  13.662  10.760   4.553
 9552SOL    HW130430  13.646  10.854   4.559
 9552SOL    HW230431  13.578  10.723   4.526
 9553SOL     OW30432  12.913   7.927  14.175
 9553SOL    HW130433  12.883   7.851  14.125
 9553SOL    HW230434  12.972   7.973  14.114
 9554SOL     OW30435  10.650  12.378  11.014
 9554SOL    HW130436  10.569  12.413  11.051
 9554SOL    HW230437  10.626  12.291  10.983
 9555SOL     OW30438  14.783   1.262  12.909
 9555SOL    HW130439  14.748   1.177  12.884
 9555SOL    HW230440  14.744   1.281  12.994
 9556SOL     OW30441   6.956   3.993  12.181
 9556SOL    HW130442   6.929   3.901  12.174
 9556SOL    HW230443   6.900   4.030  12.249
 9557SOL     OW30444  11.368  14.207   6.226
 9557SOL    HW130445  11.373  14.300   6.201
 9557SOL    HW230446  11.459  14.182   6.241
 9558SOL     OW30447   7.972   2.842   6.108
 9558SOL    HW130448   8.016   2.790   6.175
 9558SOL    HW230449   7.925   2.910   6.157
 9559SOL     OW30450   9.788   2.310  13.333
 9559SOL    HW130451   9.708   2.345  13.296
 9559SOL    HW230452   9.857   2.370  13.303
 9560SOL     OW30453  14.372   5.650   6.783
 9560SOL    HW130454  14.329   5.716   6.837
 9560SOL    HW230455  14.361   5.569   6.831
 9561SOL     OW30456   9.561   8.294   0.154
 9561SOL    HW130457   9.534   8.283   0.245
 9561SOL    HW230458   9.593   8.385   0.149
 9562SOL     OW30459   2.849   9.053   5.099
 9562SOL    HW130460   2.781   9.118   5.114
 9562SOL    HW230461   2.803   8.976   5.067
 9563SOL     OW30462   9.667   0.448  11.006
 9563SOL    HW130463   9.686   0.505  10.931
 9563SOL    HW230464   9.747   0.395  11.016
 9564SOL     OW30465   9.088   1.907  14.297
 9564SOL    HW130466   9.086   2.003  14.289
 9564SOL    HW230467   9.137   1.877  14.221
 9565SOL     OW30468   6.165   3.614   3.111
 9565SOL    HW130469   6.252   3.651   3.128
 9565SOL    HW230470   6.116   3.684   3.069
 9566SOL     OW30471  11.808   6.742   5.154
 9566SOL    HW130472  11.854   6.774   5.232
 9566SOL    HW230473  11.721   6.781   5.160
 9567SOL     OW30474  13.462   7.263   5.165
 9567SOL    HW130475  13.443   7.276   5.258
 9567SOL    HW230476  13.556   7.278   5.156
 9568SOL     OW30477  14.406   2.080  12.714
 9568SOL    HW130478  14.443   2.020  12.779
 9568SOL    HW230479  14.473   2.086  12.646
 9569SOL     OW30480   2.893  10.246  14.344
 9569SOL    HW130481   2.926  10.279  14.261
 9569SOL    HW230482   2.895  10.151  14.335
 9570SOL     OW30483   5.573   7.693  14.119
 9570SOL    HW130484   5.535   7.690  14.031
 9570SOL    HW230485   5.613   7.607  14.131
 9571SOL     OW30486  12.223   8.911   9.088
 9571SOL    HW130487  12.142   8.863   9.071
 9571SOL    HW230488  12.195   9.000   9.107
 9572SOL     OW30489  13.052  11.745   7.481
 9572SOL    HW130490  13.104  11.821   7.508
 9572SOL    HW230491  13.097  11.670   7.520
 9573SOL     OW30492  14.153   0.424   3.298
 9573SOL    HW130493  14.077   0.481   3.282
 9573SOL    HW230494  14.194   0.459   3.377
 9574SOL     OW30495   5.803  12.981  14.568
 9574SOL    HW130496   5.825  13.023  14.651
 9574SOL    HW230497   5.868  12.911  14.558
 9575SOL     OW30498   0.070   9.911   7.271
 9575SOL    HW130499   0.148   9.953   7.235
 9575SOL    HW230500   0.010   9.905   7.196
 9576SOL     OW30501  10.268  13.008   5.737
 9576SOL    HW130502  10.196  12.973   5.790
 9576SOL    HW230503  10.277  13.099   5.766
 9577SOL     OW30504  14.565  12.949   5.829
 9577SOL    HW130505  14.520  13.007   5.768
 9577SOL    HW230506  14.653  12.939   5.793
 9578SOL     OW30507   8.121   4.124   0.972
 9578SOL    HW130508   8.163   4.209   0.972
 9578SOL    HW230509   8.030   4.141   0.946
 9579SOL     OW30510   2.822   0.096   3.461
 9579SOL    HW130511   2.897   0.155   3.469
 9579SOL    HW230512   2.752   0.150   3.425
 9580SOL     OW30513   8.654  14.713   3.093
 9580SOL    HW130514   8.602  14.639   3.063
 9580SOL    HW230515   8.735  14.707   3.042
 9581SOL     OW30516  11.544   8.803   4.277
 9581SOL    HW130517  11.513   8.716   4.301
 9581SOL    HW230518  11.469   8.860   4.291
 9582SOL     OW30519   9.316   9.344  14.511
 9582SOL    HW130520   9.315   9.346  14.607
 9582SOL    HW230521   9.228   9.314  14.486
 9583SOL     OW30522  13.477  11.816  11.171
 9583SOL    HW130523  13.564  11.775  11.168
 9583SOL    HW230524  13.417  11.747  11.141
 9584SOL     OW30525   3.012   5.104   9.017
 9584SOL    HW130526   3.087   5.076   8.965
 9584SOL    HW230527   3.007   5.199   9.003
 9585SOL     OW30528  10.258  14.752   6.926
 9585SOL    HW130529  10.229  14.696   6.998
 9585SOL    HW230530  10.203  14.830   6.933
 9586SOL     OW30531   2.284  12.816   0.878
 9586SOL    HW130532   2.334  12.738   0.902
 9586SOL    HW230533   2.240  12.792   0.797
 9587SOL     OW30534  13.536  11.888   1.424
 9587SOL    HW130535  13.602  11.833   1.384
 9587SOL    HW230536  13.569  11.978   1.413
 9588SOL     OW30537   5.533   3.232   9.526
 9588SOL    HW130538   5.596   3.302   9.510
 9588SOL    HW230539   5.581   3.168   9.578
 9589SOL     OW30540  12.245   3.112   8.996
 9589SOL    HW130541  12.181   3.124   8.926
 9589SOL    HW230542  12.272   3.020   8.988
 9590SOL     OW30543   0.327  13.286  11.261
 9590SOL    HW130544   0.332  13.334  11.343
 9590SOL    HW230545   0.416  13.252  11.248
 9591SOL     OW30546  11.517   2.935   2.744
 9591SOL    HW130547  11.478   3.019   2.722
 9591SOL    HW230548  11.521   2.933   2.839
 9592SOL     OW30549  13.488   6.762  10.925
 9592SOL    HW130550  13.577   6.798  10.925
 9592SOL    HW230551  13.454   6.785  10.838
 9593SOL     OW30552   5.051   0.928  11.974
 9593SOL    HW130553   5.099   0.988  11.917
 9593SOL    HW230554   5.119   0.872  12.012
 9594SOL     OW30555   9.043   5.196   0.664
 9594SOL    HW130556   9.019   5.206   0.756
 9594SOL    HW230557   9.115   5.258   0.652
 9595SOL     OW30558  13.093   3.833   0.468
 9595SOL    HW130559  13.051   3.904   0.419
 9595SOL    HW230560  13.162   3.802   0.411
 9596SOL     OW30561   1.346  10.318  13.666
 9596SOL    HW130562   1.422  10.317  13.607
 9596SOL    HW230563   1.329  10.411  13.682
 9597SOL     OW30564  14.195   1.683   1.995
 9597SOL    HW130565  14.278   1.636   1.996
 9597SOL    HW230566  14.181   1.706   1.903
 9598SOL     OW30567   8.014   4.937  14.866
 9598SOL    HW130568   7.986   5.022   0.023
 9598SOL    HW230569   8.058   4.894   0.062
 9599SOL     OW30570   3.101   5.914   5.340
 9599SOL    HW130571   3.164   5.845   5.361
 9599SOL    HW230572   3.015   5.873   5.357
 9600SOL     OW30573   0.885   7.547   6.504
 9600SOL    HW130574   0.861   7.455   6.512
 9600SOL    HW230575   0.802   7.593   6.494
 9601SOL     OW30576   4.709   5.883  13.279
 9601SOL    HW130577   4.753   5.963  13.308
 9601SOL    HW230578   4.714   5.825  13.355
 9602SOL     OW30579   4.684   2.629  13.929
 9602SOL    HW130580   4.609   2.592  13.974
 9602SOL    HW230581   4.728   2.682  13.995
 9603SOL     OW30582  10.876   1.528   8.989
 9603SOL    HW130583  10.822   1.449   8.983
 9603SOL    HW230584  10.950   1.502   9.044
 9604SOL     OW30585   9.276  13.094   3.261
 9604SOL    HW130586   9.192  13.066   3.224
 9604SOL    HW230587   9.263  13.090   3.356
 9605SOL     OW30588   1.271   6.774   6.245
 9605SOL    HW130589   1.332   6.744   6.177
 9605SOL    HW230590   1.292   6.719   6.321
 9606SOL     OW30591  13.695  12.997   6.589
 9606SOL    HW130592  13.782  13.035   6.577
 9606SOL    HW230593  13.635  13.071   6.578
 9607SOL     OW30594   5.825  13.542  14.452
 9607SOL    HW130595   5.775  13.474  14.496
 9607SOL    HW230596   5.914  13.506  14.445
 9608SOL     OW30597   9.924  11.230   1.967
 9608SOL    HW130598   9.923  11.136   1.983
 9608SOL    HW230599   9.947  11.239   1.875
 9609SOL     OW30600   4.711   4.336   9.315
 9609SOL    HW130601   4.804   4.351   9.299
 9609SOL    HW230602   4.669   4.420   9.294
 9610SOL     OW30603  11.080   7.068   3.900
 9610SOL    HW130604  11.014   7.099   3.837
 9610SOL    HW230605  11.040   7.086   3.986
 9611SOL     OW30606  11.733  14.641   6.812
 9611SOL    HW130607  11.652  14.610   6.771
 9611SOL    HW230608  11.801  14.620   6.748
 9612SOL     OW30609   9.805   1.116   2.129
 9612SOL    HW130610   9.880   1.141   2.183
 9612SOL    HW230611   9.841   1.051   2.068
 9613SOL     OW30612   4.569  11.298   4.646
 9613SOL    HW130613   4.513  11.320   4.721
 9613SOL    HW230614   4.646  11.258   4.685
 9614SOL     OW30615   5.425   2.133   8.993
 9614SOL    HW130616   5.423   2.185   9.073
 9614SOL    HW230617   5.371   2.182   8.930
 9615SOL     OW30618   8.959  11.071   1.668
 9615SOL    HW130619   8.902  10.995   1.679
 9615SOL    HW230620   9.024  11.043   1.604
 9616SOL     OW30621   8.008   4.314  13.342
 9616SOL    HW130622   8.088   4.270  13.372
 9616SOL    HW230623   8.039   4.380  13.279
 9617SOL     OW30624   5.103   5.011   7.195
 9617SOL    HW130625   5.173   4.953   7.224
 9617SOL    HW230626   5.127   5.034   7.105
 9618SOL     OW30627   5.172   3.083   4.654
 9618SOL    HW130628   5.144   3.026   4.582
 9618SOL    HW230629   5.173   3.171   4.616
 9619SOL     OW30630   0.639  10.967   8.270
 9619SOL    HW130631   0.610  11.022   8.342
 9619SOL    HW230632   0.558  10.934   8.231
 9620SOL     OW30633  10.849   2.988  10.709
 9620SOL    HW130634  10.798   2.939  10.645
 9620SOL    HW230635  10.937   2.952  10.702
 9621SOL     OW30636  14.793  13.576   7.284
 9621SOL    HW130637  14.794  13.543   7.194
 9621SOL    HW230638  14.811  13.499   7.338
 9622SOL     OW30639  14.652   7.799  10.958
 9622SOL    HW130640  14.594   7.737  11.003
 9622SOL    HW230641  14.686   7.750  10.883
 9623SOL     OW30642  11.725   8.506   6.556
 9623SOL    HW130643  11.712   8.589   6.511
 9623SOL    HW230644  11.729   8.530   6.649
 9624SOL     OW30645   0.608   5.699   5.068
 9624SOL    HW130646   0.560   5.688   4.987
 9624SOL    HW230647   0.682   5.639   5.060
 9625SOL     OW30648   6.119  13.618   3.510
 9625SOL    HW130649   6.160  13.547   3.461
 9625SOL    HW230650   6.033  13.628   3.470
 9626SOL     OW30651  12.441   1.491  13.890
 9626SOL    HW130652  12.480   1.573  13.921
 9626SOL    HW230653  12.347   1.503  13.903
 9627SOL     OW30654  13.980   1.214   6.789
 9627SOL    HW130655  14.012   1.190   6.875
 9627SOL    HW230656  13.898   1.166   6.780
 9628SOL     OW30657  11.449   3.876   5.279
 9628SOL    HW130658  11.431   3.875   5.373
 9628SOL    HW230659  11.368   3.844   5.239
 9629SOL     OW30660  11.217   2.064   6.464
 9629SOL    HW130661  11.196   2.132   6.400
 9629SOL    HW230662  11.206   1.982   6.416
 9630SOL     OW30663  11.788   5.768  13.115
 9630SOL    HW130664  11.790   5.817  13.033
 9630SOL    HW230665  11.739   5.824  13.175
 9631SOL     OW30666  12.129  12.938  14.220
 9631SOL    HW130667  12.221  12.912  14.227
 9631SOL    HW230668  12.132  13.032  14.207
 9632SOL     OW30669   0.301   7.349   8.363
 9632SOL    HW130670   0.295   7.279   8.298
 9632SOL    HW230671   0.216   7.350   8.405
 9633SOL     OW30672  10.867  10.697   8.557
 9633SOL    HW130673  10.778  10.702   8.524
 9633SOL    HW230674  10.857  10.670   8.649
 9634SOL     OW30675   6.081   6.136  10.651
 9634SOL    HW130676   6.084   6.231  10.663
 9634SOL    HW230677   6.170   6.113  10.622
 9635SOL     OW30678  14.604   9.455  11.015
 9635SOL    HW130679  14.649   9.410  11.086
 9635SOL    HW230680  14.571   9.385  10.959
 9636SOL     OW30681  14.380   7.740   7.316
 9636SOL    HW130682  14.301   7.768   7.363
 9636SOL    HW230683  14.366   7.647   7.299
 9637SOL     OW30684   0.522   8.671  10.728
 9637SOL    HW130685   0.549   8.756  10.694
 9637SOL    HW230686   0.480   8.691  10.812
 9638SOL     OW30687  11.099   1.034   6.276
 9638SOL    HW130688  11.154   1.090   6.330
 9638SOL    HW230689  11.036   1.094   6.235
 9639SOL     OW30690   7.510   5.414   0.634
 9639SOL    HW130691   7.514   5.477   0.706
 9639SOL    HW230692   7.467   5.337   0.673
 9640SOL     OW30693   6.860   5.786  14.541
 9640SOL    HW130694   6.941   5.737  14.525
 9640SOL    HW230695   6.880   5.841  14.616
 9641SOL     OW30696   7.687   3.879   9.879
 9641SOL    HW130697   7.746   3.811   9.911
 9641SOL    HW230698   7.671   3.856   9.788
 9642SOL     OW30699  10.873  10.768  13.796
 9642SOL    HW130700  10.882  10.685  13.751
 9642SOL    HW230701  10.862  10.833  13.726
 9643SOL     OW30702  10.751   0.836  13.991
 9643SOL    HW130703  10.843   0.851  13.966
 9643SOL    HW230704  10.743   0.878  14.077
 9644SOL     OW30705   2.160  10.964  11.748
 9644SOL    HW130706   2.167  10.871  11.769
 9644SOL    HW230707   2.250  10.995  11.746
 9645SOL     OW30708   1.956   0.044   9.551
 9645SOL    HW130709   1.924  14.835   9.527
 9645SOL    HW230710   2.051   0.038   9.541
 9646SOL     OW30711  14.119   1.632   2.282
 9646SOL    HW130712  14.090   1.543   2.260
 9646SOL    HW230713  14.154   1.667   2.200
 9647SOL     OW30714  10.836   1.836   5.660
 9647SOL    HW130715  10.755   1.880   5.633
 9647SOL    HW230716  10.905   1.876   5.607
 9648SOL     OW30717  11.854   8.640   5.593
 9648SOL    HW130718  11.781   8.580   5.581
 9648SOL    HW230719  11.829   8.719   5.545
 9649SOL     OW30720   4.217  10.354   3.518
 9649SOL    HW130721   4.214  10.346   3.613
 9649SOL    HW230722   4.264  10.437   3.503
 9650SOL     OW30723  14.543   3.270   2.146
 9650SOL    HW130724  14.604   3.342   2.129
 9650SOL    HW230725  14.576   3.197   2.094
 9651SOL     OW30726  11.722   9.956   6.107
 9651SOL    HW130727  11.812   9.966   6.137
 9651SOL    HW230728  11.727   9.894   6.035
 9652SOL     OW30729  13.709   5.900   9.127
 9652SOL    HW130730  13.720   5.805   9.136
 9652SOL    HW230731  13.797   5.935   9.142
 9653SOL     OW30732  10.800   7.295  14.581
 9653SOL    HW130733  10.884   7.252  14.596
 9653SOL    HW230734  10.735   7.230  14.610
 9654SOL     OW30735   1.760   2.562   7.368
 9654SOL    HW130736   1.727   2.577   7.280
 9654SOL    HW230737   1.760   2.467   7.378
 9655SOL     OW30738  12.814   7.885  13.660
 9655SOL    HW130739  12.802   7.812  13.720
 9655SOL    HW230740  12.874   7.852  13.593
 9656SOL     OW30741   0.499   3.252   2.678
 9656SOL    HW130742   0.543   3.176   2.715
 9656SOL    HW230743   0.515   3.322   2.742
 9657SOL     OW30744   7.878   1.007  12.690
 9657SOL    HW130745   7.974   1.016  12.695
 9657SOL    HW230746   7.855   1.040  12.603
 9658SOL     OW30747  10.110   3.950   1.912
 9658SOL    HW130748  10.125   3.931   2.004
 9658SOL    HW230749  10.144   4.039   1.900
 9659SOL     OW30750  13.610   6.118   5.773
 9659SOL    HW130751  13.608   6.041   5.716
 9659SOL    HW230752  13.682   6.171   5.741
 9660SOL     OW30753   1.216  13.753   1.223
 9660SOL    HW130754   1.193  13.687   1.158
 9660SOL    HW230755   1.286  13.713   1.274
 9661SOL     OW30756   0.189  11.437  11.164
 9661SOL    HW130757   0.125  11.459  11.231
 9661SOL    HW230758   0.209  11.345  11.179
 9662SOL     OW30759   1.836   3.475   3.346
 9662SOL    HW130760   1.927   3.486   3.315
 9662SOL    HW230761   1.808   3.564   3.370
 9663SOL     OW30762  10.122   4.970   4.550
 9663SOL    HW130763  10.147   4.916   4.625
 9663SOL    HW230764  10.078   4.909   4.491
 9664SOL     OW30765   0.641   3.414   1.432
 9664SOL    HW130766   0.617   3.329   1.469
 9664SOL    HW230767   0.642   3.400   1.337
 9665SOL     OW30768   9.443   8.802   3.819
 9665SOL    HW130769   9.454   8.707   3.815
 9665SOL    HW230770   9.436   8.822   3.912
 9666SOL     OW30771  10.920  12.220   6.005
 9666SOL    HW130772  10.991  12.187   5.950
 9666SOL    HW230773  10.856  12.254   5.942
 9667SOL     OW30774  11.374  14.877   0.309
 9667SOL    HW130775  11.307  14.811   0.291
 9667SOL    HW230776  11.414   0.016   0.224
 9668SOL     OW30777   4.638   2.420   0.259
 9668SOL    HW130778   4.585   2.496   0.282
 9668SOL    HW230779   4.727   2.454   0.248
 9669SOL     OW30780  10.846   1.990   2.498
 9669SOL    HW130781  10.838   2.084   2.484
 9669SOL    HW230782  10.807   1.975   2.584
 9670SOL     OW30783   1.301   5.583   2.792
 9670SOL    HW130784   1.230   5.643   2.811
 9670SOL    HW230785   1.381   5.635   2.800
 9671SOL     OW30786   2.714  10.794   3.666
 9671SOL    HW130787   2.786  10.735   3.685
 9671SOL    HW230788   2.648  10.775   3.733
 9672SOL     OW30789   5.487   0.588  13.117
 9672SOL    HW130790   5.494   0.493  13.108
 9672SOL    HW230791   5.471   0.619  13.028
 9673SOL     OW30792   3.334   5.433   1.208
 9673SOL    HW130793   3.258   5.376   1.195
 9673SOL    HW230794   3.297   5.518   1.231
 9674SOL     OW30795  12.275   8.215  11.619
 9674SOL    HW130796  12.349   8.190  11.563
 9674SOL    HW230797  12.302   8.296  11.661
 9675SOL     OW30798   5.689  10.904  12.072
 9675SOL    HW130799   5.712  10.879  11.982
 9675SOL    HW230800   5.593  10.897  12.074
 9676SOL     OW30801   7.070   4.134  10.800
 9676SOL    HW130802   6.981   4.113  10.828
 9676SOL    HW230803   7.059   4.212  10.744
 9677SOL     OW30804  13.910   7.998   9.592
 9677SOL    HW130805  13.980   7.998   9.657
 9677SOL    HW230806  13.921   7.917   9.544
 9678SOL     OW30807  14.717   0.454   6.474
 9678SOL    HW130808  14.795   0.417   6.433
 9678SOL    HW230809  14.745   0.479   6.562
 9679SOL     OW30810  12.870  11.527   3.170
 9679SOL    HW130811  12.808  11.461   3.139
 9679SOL    HW230812  12.893  11.577   3.092
 9680SOL     OW30813  12.354   2.760  12.294
 9680SOL    HW130814  12.298   2.685  12.314
 9680SOL    HW230815  12.423   2.758  12.361
 9681SOL     OW30816  12.384   8.002  13.575
 9681SOL    HW130817  12.472   8.035  13.591
 9681SOL    HW230818  12.396   7.912  13.546
 9682SOL     OW30819  12.995   5.122   3.686
 9682SOL    HW130820  12.985   5.080   3.601
 9682SOL    HW230821  12.937   5.199   3.682
 9683SOL     OW30822  13.883   1.374   1.439
 9683SOL    HW130823  13.869   1.419   1.522
 9683SOL    HW230824  13.902   1.284   1.464
 9684SOL     OW30825   0.059   0.437   6.327
 9684SOL    HW130826   0.139   0.398   6.362
 9684SOL    HW230827   0.089   0.492   6.255
 9685SOL     OW30828   1.575   5.683   4.424
 9685SOL    HW130829   1.509   5.752   4.412
 9685SOL    HW230830   1.658   5.724   4.402
 9686SOL     OW30831  14.410  12.504   9.193
 9686SOL    HW130832  14.350  12.430   9.192
 9686SOL    HW230833  14.372  12.566   9.131
 9687SOL     OW30834   0.867  14.099   3.678
 9687SOL    HW130835   0.935  14.164   3.697
 9687SOL    HW230836   0.896  14.058   3.596
 9688SOL     OW30837   4.526   7.109   7.719
 9688SOL    HW130838   4.558   7.023   7.691
 9688SOL    HW230839   4.527   7.106   7.814
 9689SOL     OW30840  13.896   5.035   7.536
 9689SOL    HW130841  13.941   5.120   7.536
 9689SOL    HW230842  13.896   5.008   7.444
 9690SOL     OW30843  12.093   2.015   9.271
 9690SOL    HW130844  12.166   2.077   9.276
 9690SOL    HW230845  12.132   1.936   9.235
 9691SOL     OW30846   6.040  13.449   3.071
 9691SOL    HW130847   6.129  13.479   3.052
 9691SOL    HW230848   6.039  13.435   3.166
 9692SOL     OW30849   6.949  14.208   1.423
 9692SOL    HW130850   6.872  14.155   1.400
 9692SOL    HW230851   6.914  14.277   1.480
 9693SOL     OW30852   1.689   5.980   4.696
 9693SOL    HW130853   1.623   6.043   4.723
 9693SOL    HW230854   1.649   5.894   4.713
 9694SOL     OW30855  14.790  10.796   9.262
 9694SOL    HW130856  14.855  10.793   9.332
 9694SOL    HW230857  14.712  10.754   9.300
 9695SOL     OW30858   9.905   1.028   0.076
 9695SOL    HW130859   9.887   0.936   0.096
 9695SOL    HW230860   9.939   1.027  14.865
 9696SOL     OW30861   0.778  11.499   5.096
 9696SOL    HW130862   0.765  11.593   5.081
 9696SOL    HW230863   0.868  11.491   5.126
 9697SOL     OW30864  12.359   6.129  13.338
 9697SOL    HW130865  12.334   6.169  13.421
 9697SOL    HW230866  12.353   6.035  13.353
 9698SOL     OW30867   8.812   7.777   4.084
 9698SOL    HW130868   8.765   7.850   4.124
 9698SOL    HW230869   8.891   7.816   4.047
 9699SOL     OW30870   8.064   7.771  10.296
 9699SOL    HW130871   8.144   7.735  10.258
 9699SOL    HW230872   8.023   7.696  10.341
 9700SOL     OW30873   3.517   6.805   0.249
 9700SOL    HW130874   3.442   6.824   0.306
 9700SOL    HW230875   3.575   6.752   0.304
 9701SOL     OW30876  12.255   7.222  11.894
 9701SOL    HW130877  12.271   7.198  11.802
 9701SOL    HW230878  12.297   7.152  11.944
 9702SOL     OW30879   5.230  11.678  14.762
 9702SOL    HW130880   5.170  11.751  14.746
 9702SOL    HW230881   5.177  11.600  14.745
 9703SOL     OW30882  11.619   9.688   2.614
 9703SOL    HW130883  11.564   9.623   2.568
 9703SOL    HW230884  11.697   9.696   2.560
 9704SOL     OW30885   7.942   2.286  11.428
 9704SOL    HW130886   7.897   2.278  11.512
 9704SOL    HW230887   7.927   2.202  11.385
 9705SOL     OW30888   5.750   9.161   1.839
 9705SOL    HW130889   5.720   9.169   1.929
 9705SOL    HW230890   5.817   9.093   1.842
 9706SOL     OW30891   5.694   6.148   4.628
 9706SOL    HW130892   5.716   6.212   4.697
 9706SOL    HW230893   5.777   6.133   4.582
 9707SOL     OW30894  13.534  14.786   6.243
 9707SOL    HW130895  13.508  14.784   6.151
 9707SOL    HW230896  13.464  14.739   6.288
 9708SOL     OW30897  11.908  10.155  11.837
 9708SOL    HW130898  11.934  10.131  11.748
 9708SOL    HW230899  11.971  10.222  11.863
 9709SOL     OW30900   2.745   6.687   2.906
 9709SOL    HW130901   2.829   6.682   2.859
 9709SOL    HW230902   2.750   6.618   2.971
 9710SOL     OW30903   4.874  12.618   7.040
 9710SOL    HW130904   4.927  12.669   7.102
 9710SOL    HW230905   4.809  12.681   7.008
 9711SOL     OW30906   3.594  12.415   4.404
 9711SOL    HW130907   3.631  12.401   4.317
 9711SOL    HW230908   3.604  12.331   4.449
 9712SOL     OW30909  14.094   2.609  14.600
 9712SOL    HW130910  14.061   2.689  14.559
 9712SOL    HW230911  14.145   2.639  14.675
 9713SOL     OW30912   5.323   5.621  13.942
 9713SOL    HW130913   5.330   5.627  14.037
 9713SOL    HW230914   5.406   5.583  13.914
 9714SOL     OW30915   3.466  13.862   3.751
 9714SOL    HW130916   3.546  13.828   3.791
 9714SOL    HW230917   3.492  13.946   3.714
 9715SOL     OW30918   7.815  12.187   4.994
 9715SOL    HW130919   7.812  12.281   5.009
 9715SOL    HW230920   7.768  12.149   5.067
 9716SOL     OW30921   8.640   5.021   3.662
 9716SOL    HW130922   8.619   5.111   3.637
 9716SOL    HW230923   8.619   5.017   3.755
 9717SOL     OW30924   4.269   2.726   1.651
 9717SOL    HW130925   4.226   2.717   1.566
 9717SOL    HW230926   4.198   2.729   1.714
 9718SOL     OW30927   1.166   9.011   5.508
 9718SOL    HW130928   1.112   9.040   5.434
 9718SOL    HW230929   1.125   9.050   5.584
 9719SOL     OW30930  11.299  13.279   9.634
 9719SOL    HW130931  11.354  13.226   9.692
 9719SOL    HW230932  11.300  13.366   9.674
 9720SOL     OW30933   0.872   1.524  12.162
 9720SOL    HW130934   0.907   1.507  12.074
 9720SOL    HW230935   0.918   1.462  12.218
 9721SOL     OW30936   4.403  13.014   5.929
 9721SOL    HW130937   4.383  12.942   5.869
 9721SOL    HW230938   4.480  12.984   5.977
 9722SOL     OW30939   1.961   5.377   3.401
 9722SOL    HW130940   2.056   5.392   3.396
 9722SOL    HW230941   1.924   5.465   3.413
 9723SOL     OW30942  13.003   4.469   5.587
 9723SOL    HW130943  12.915   4.465   5.625
 9723SOL    HW230944  13.011   4.559   5.554
 9724SOL     OW30945   8.594  12.073  12.710
 9724SOL    HW130946   8.588  12.060  12.805
 9724SOL    HW230947   8.610  12.167  12.700
 9725SOL     OW30948   5.610   4.364   0.803
 9725SOL    HW130949   5.700   4.336   0.819
 9725SOL    HW230950   5.584   4.409   0.883
 9726SOL     OW30951   2.917   5.135   0.629
 9726SOL    HW130952   2.949   5.093   0.709
 9726SOL    HW230953   2.826   5.158   0.649
 9727SOL     OW30954  10.273  11.633   3.059
 9727SOL    HW130955  10.243  11.543   3.073
 9727SOL    HW230956  10.264  11.675   3.145
 9728SOL     OW30957   8.098   2.221   4.882
 9728SOL    HW130958   8.162   2.219   4.953
 9728SOL    HW230959   8.032   2.284   4.911
 9729SOL     OW30960  10.112  14.713  12.967
 9729SOL    HW130961  10.066  14.773  12.908
 9729SOL    HW230962  10.190  14.760  12.994
 9730SOL     OW30963   6.562  14.640  12.542
 9730SOL    HW130964   6.568  14.620  12.635
 9730SOL    HW230965   6.612  14.721  12.531
 9731SOL     OW30966   9.918   7.146  13.821
 9731SOL    HW130967   9.891   7.231  13.855
 9731SOL    HW230968   9.894   7.149  13.729
 9732SOL     OW30969  14.444   4.412   4.586
 9732SOL    HW130970  14.438   4.319   4.608
 9732SOL    HW230971  14.532   4.422   4.549
 9733SOL     OW30972  12.206   4.413   2.356
 9733SOL    HW130973  12.149   4.439   2.428
 9733SOL    HW230974  12.291   4.398   2.397
 9734SOL     OW30975   9.437   9.595  12.244
 9734SOL    HW130976   9.498   9.532  12.206
 9734SOL    HW230977   9.363   9.543  12.274
 9735SOL     OW30978   5.372   0.213   9.305
 9735SOL    HW130979   5.357   0.292   9.254
 9735SOL    HW230980   5.402   0.148   9.241
 9736SOL     OW30981   5.501  11.621   6.348
 9736SOL    HW130982   5.565  11.564   6.389
 9736SOL    HW230983   5.492  11.587   6.259
 9737SOL     OW30984   7.599   4.769   1.967
 9737SOL    HW130985   7.552   4.838   1.920
 9737SOL    HW230986   7.684   4.808   1.988
 9738SOL     OW30987  12.480   8.555   7.869
 9738SOL    HW130988  12.496   8.638   7.824
 9738SOL    HW230989  12.423   8.506   7.810
 9739SOL     OW30990  12.436  10.520   7.311
 9739SOL    HW130991  12.468  10.604   7.343
 9739SOL    HW230992  12.389  10.541   7.231
 9740SOL     OW30993  10.832   9.178   3.277
 9740SOL    HW130994  10.880   9.175   3.360
 9740SOL    HW230995  10.846   9.267   3.245
 9741SOL     OW30996  12.263   5.187   3.366
 9741SOL    HW130997  12.188   5.134   3.337
 9741SOL    HW230998  12.320   5.191   3.289
 9742SOL     OW30999   1.151   1.975   8.346
 9742SOL    HW131000   1.130   2.038   8.415
 9742SOL    HW231001   1.240   1.947   8.364
 9743SOL     OW31002  11.732   1.820   9.816
 9743SOL    HW131003  11.803   1.821   9.879
 9743SOL    HW231004  11.661   1.868   9.859
 9744SOL     OW31005  12.810   4.011   7.353
 9744SOL    HW131006  12.902   4.023   7.375
 9744SOL    HW231007  12.780   3.943   7.414
 9745SOL     OW31008   5.431   1.089   2.911
 9745SOL    HW131009   5.437   1.001   2.948
 9745SOL    HW231010   5.387   1.077   2.827
 9746SOL     OW31011   1.788   6.702   9.953
 9746SOL    HW131012   1.829   6.770  10.007
 9746SOL    HW231013   1.861   6.647   9.925
 9747SOL     OW31014   7.644   5.745   4.256
 9747SOL    HW131015   7.572   5.684   4.237
 9747SOL    HW231016   7.635   5.765   4.349
 9748SOL     OW31017   2.429   4.579  13.037
 9748SOL    HW131018   2.488   4.504  13.044
 9748SOL    HW231019   2.486   4.654  13.022
 9749SOL     OW31020   5.720   6.540   7.972
 9749SOL    HW131021   5.636   6.578   7.999
 9749SOL    HW231022   5.703   6.508   7.883
 9750SOL     OW31023  11.689  14.275   0.335
 9750SOL    HW131024  11.639  14.356   0.324
 9750SOL    HW231025  11.762  14.283   0.274
 9751SOL     OW31026  14.820   0.025   9.418
 9751SOL    HW131027  14.831   0.119   9.400
 9751SOL    HW231028   0.032  14.868   9.417
 9752SOL     OW31029   7.637   1.692   8.139
 9752SOL    HW131030   7.714   1.638   8.160
 9752SOL    HW231031   7.597   1.649   8.064
 9753SOL     OW31032   7.797   7.427   8.436
 9753SOL    HW131033   7.752   7.510   8.451
 9753SOL    HW231034   7.785   7.410   8.343
 9754SOL     OW31035   4.068  10.255  12.787
 9754SOL    HW131036   3.996  10.313  12.760
 9754SOL    HW231037   4.146  10.295  12.749
 9755SOL     OW31038   5.430   3.316   7.435
 9755SOL    HW131039   5.442   3.406   7.406
 9755SOL    HW231040   5.365   3.280   7.375
 9756SOL     OW31041   2.861   2.891   2.686
 9756SOL    HW131042   2.800   2.838   2.634
 9756SOL    HW231043   2.938   2.835   2.694
 9757SOL     OW31044  14.157   8.980   7.573
 9757SOL    HW131045  14.220   8.995   7.502
 9757SOL    HW231046  14.191   9.030   7.647
 9758SOL     OW31047   1.401  14.836   6.134
 9758SOL    HW131048   1.409  14.815   6.227
 9758SOL    HW231049   1.490  14.858   6.107
 9759SOL     OW31050  13.819  12.889   5.534
 9759SOL    HW131051  13.890  12.953   5.523
 9759SOL    HW231052  13.837  12.823   5.468
 9760SOL     OW31053  12.505   3.688   4.694
 9760SOL    HW131054  12.538   3.746   4.626
 9760SOL    HW231055  12.415   3.718   4.710
 9761SOL     OW31056   7.956   3.116  10.831
 9761SOL    HW131057   8.032   3.066  10.800
 9761SOL    HW231058   7.990   3.166  10.906
 9762SOL     OW31059  12.664   3.729   0.581
 9762SOL    HW131060  12.676   3.815   0.541
 9762SOL    HW231061  12.643   3.671   0.508
 9763SOL     OW31062   7.132   6.412   4.089
 9763SOL    HW131063   7.202   6.349   4.074
 9763SOL    HW231064   7.075   6.402   4.012
 9764SOL     OW31065  13.980   7.848   3.347
 9764SOL    HW131066  14.071   7.842   3.321
 9764SOL    HW231067  13.982   7.889   3.433
 9765SOL     OW31068   9.153   2.103   8.133
 9765SOL    HW131069   9.147   2.141   8.046
 9765SOL    HW231070   9.227   2.147   8.174
 9766SOL     OW31071   4.701   2.517   5.122
 9766SOL    HW131072   4.668   2.524   5.033
 9766SOL    HW231073   4.766   2.587   5.130
 9767SOL     OW31074   9.591  14.411  10.488
 9767SOL    HW131075   9.650  14.436  10.559
 9767SOL    HW231076   9.575  14.493  10.441
 9768SOL     OW31077  10.779  12.984   4.071
 9768SOL    HW131078  10.707  12.946   4.021
 9768SOL    HW231079  10.829  13.034   4.008
 9769SOL     OW31080   5.315   3.798   2.581
 9769SOL    HW131081   5.270   3.714   2.580
 9769SOL    HW231082   5.286   3.840   2.662
 9770SOL     OW31083  10.073   8.376  11.617
 9770SOL    HW131084  10.033   8.295  11.650
 9770SOL    HW231085  10.160   8.377  11.655
 9771SOL     OW31086  11.540   5.392   4.853
 9771SOL    HW131087  11.584   5.341   4.922
 9771SOL    HW231088  11.610   5.445   4.815
 9772SOL     OW31089   9.297   0.178   7.659
 9772SOL    HW131090   9.311   0.087   7.633
 9772SOL    HW231091   9.279   0.224   7.577
 9773SOL     OW31092   5.628   0.294   5.088
 9773SOL    HW131093   5.724   0.292   5.080
 9773SOL    HW231094   5.607   0.213   5.135
 9774SOL     OW31095   1.250  11.770   6.804
 9774SOL    HW131096   1.246  11.735   6.893
 9774SOL    HW231097   1.263  11.693   6.749
 9775SOL     OW31098  10.198   0.382   1.990
 9775SOL    HW131099  10.139   0.313   2.018
 9775SOL    HW231100  10.250   0.343   1.920
 9776SOL     OW31101  12.605   9.130   0.744
 9776SOL    HW131102  12.608   9.046   0.699
 9776SOL    HW231103  12.688   9.135   0.792
 9777SOL     OW31104  11.031   4.443   0.505
 9777SOL    HW131105  11.087   4.365   0.499
 9777SOL    HW231106  11.068   4.503   0.441
 9778SOL     OW31107  10.027  12.911   7.541
 9778SOL    HW131108  10.001  12.847   7.475
 9778SOL    HW231109  10.058  12.986   7.490
 9779SOL     OW31110   1.638  14.807   8.990
 9779SOL    HW131111   1.546  14.796   9.011
 9779SOL    HW231112   1.643   0.012   8.942
 9780SOL     OW31113   6.885  12.702  13.312
 9780SOL    HW131114   6.873  12.608  13.301
 9780SOL    HW231115   6.897  12.714  13.406
 9781SOL     OW31116   7.188   8.878  12.801
 9781SOL    HW131117   7.222   8.967  12.804
 9781SOL    HW231118   7.149   8.870  12.714
 9782SOL     OW31119  14.843  10.360   0.087
 9782SOL    HW131120   0.033  10.420   0.118
 9782SOL    HW231121  14.821  10.307   0.164
 9783SOL     OW31122   5.921   8.419  14.123
 9783SOL    HW131123   5.839   8.467  14.140
 9783SOL    HW231124   5.905   8.332  14.158
 9784SOL     OW31125   8.230   7.006  14.815
 9784SOL    HW131126   8.239   7.098  14.788
 9784SOL    HW231127   8.194   6.962  14.738
 9785SOL     OW31128   9.170  12.298   0.232
 9785SOL    HW131129   9.108  12.247   0.285
 9785SOL    HW231130   9.193  12.372   0.288
 9786SOL     OW31131  11.796  14.292   7.360
 9786SOL    HW131132  11.785  14.386   7.374
 9786SOL    HW231133  11.867  14.267   7.419
 9787SOL     OW31134  11.397  12.798   7.788
 9787SOL    HW131135  11.461  12.733   7.816
 9787SOL    HW231136  11.313  12.760   7.812
 9788SOL     OW31137   2.515  12.369  14.116
 9788SOL    HW131138   2.583  12.306  14.094
 9788SOL    HW231139   2.563  12.447  14.146
 9789SOL     OW31140   7.917   2.148   2.541
 9789SOL    HW131141   7.884   2.122   2.627
 9789SOL    HW231142   7.970   2.226   2.558
 9790SOL     OW31143   5.234   6.464   4.850
 9790SOL    HW131144   5.214   6.396   4.914
 9790SOL    HW231145   5.233   6.546   4.900
 9791SOL     OW31146   0.446   2.641   6.191
 9791SOL    HW131147   0.412   2.558   6.158
 9791SOL    HW231148   0.506   2.616   6.262
 9792SOL     OW31149   1.514  13.386   9.982
 9792SOL    HW131150   1.487  13.401  10.072
 9792SOL    HW231151   1.436  13.354   9.938
 9793SOL     OW31152  13.134   5.072   5.284
 9793SOL    HW131153  13.167   5.053   5.196
 9793SOL    HW231154  13.063   5.009   5.297
 9794SOL     OW31155   8.226   1.719  12.408
 9794SOL    HW131156   8.183   1.664  12.474
 9794SOL    HW231157   8.257   1.657  12.342
 9795SOL     OW31158   2.486   2.694   5.175
 9795SOL    HW131159   2.556   2.652   5.227
 9795SOL    HW231160   2.416   2.709   5.238
 9796SOL     OW31161   5.794   1.595  11.555
 9796SOL    HW131162   5.727   1.608  11.488
 9796SOL    HW231163   5.745   1.575  11.635
 9797SOL     OW31164   4.825  12.883   9.226
 9797SOL    HW131165   4.904  12.839   9.195
 9797SOL    HW231166   4.849  12.976   9.230
 9798SOL     OW31167  14.873   6.866  14.323
 9798SOL    HW131168  14.782   6.839  14.326
 9798SOL    HW231169   0.030   6.823  14.245
 9799SOL     OW31170  14.629   2.823   5.366
 9799SOL    HW131171  14.635   2.778   5.282
 9799SOL    HW231172  14.568   2.895   5.351
 9800SOL     OW31173   7.158  12.329   5.279
 9800SOL    HW131174   7.202  12.309   5.196
 9800SOL    HW231175   7.222  12.382   5.327
 9801SOL     OW31176   0.365  14.269  10.375
 9801SOL    HW131177   0.452  14.237  10.397
 9801SOL    HW231178   0.329  14.301  10.458
 9802SOL     OW31179   9.667  14.479   2.022
 9802SOL    HW131180   9.608  14.541   2.064
 9802SOL    HW231181   9.610  14.411   1.986
 9803SOL     OW31182   4.157   7.278   9.322
 9803SOL    HW131183   4.211   7.279   9.243
 9803SOL    HW231184   4.211   7.320   9.389
 9804SOL     OW31185   8.081  13.690   0.224
 9804SOL    HW131186   8.014  13.635   0.183
 9804SOL    HW231187   8.142  13.627   0.263
 9805SOL     OW31188   5.455  14.322   5.639
 9805SOL    HW131189   5.455  14.385   5.568
 9805SOL    HW231190   5.363  14.298   5.651
 9806SOL     OW31191   9.153   0.275   8.247
 9806SOL    HW131192   9.161   0.276   8.151
 9806SOL    HW231193   9.233   0.231   8.277
 9807SOL     OW31194   8.855  14.193   0.026
 9807SOL    HW131195   8.792  14.265   0.030
 9807SOL    HW231196   8.939  14.234   0.049
 9808SOL     OW31197   6.493  13.048   9.747
 9808SOL    HW131198   6.427  13.013   9.807
 9808SOL    HW231199   6.444  13.099   9.683
 9809SOL     OW31200   6.279   4.195  11.187
 9809SOL    HW131201   6.331   4.116  11.173
 9809SOL    HW231202   6.194   4.175  11.148
 9810SOL     OW31203   7.674   9.173  12.196
 9810SOL    HW131204   7.583   9.202  12.190
 9810SOL    HW231205   7.720   9.247  12.234
 9811SOL     OW31206   4.228  10.082  13.156
 9811SOL    HW131207   4.190   9.995  13.166
 9811SOL    HW231208   4.156  10.136  13.122
 9812SOL     OW31209   1.971   6.483  14.470
 9812SOL    HW131210   1.886   6.475  14.428
 9812SOL    HW231211   1.979   6.402  14.522
 9813SOL     OW31212   5.994   0.739   3.911
 9813SOL    HW131213   5.949   0.746   3.827
 9813SOL    HW231214   6.039   0.823   3.921
 9814SOL     OW31215   3.907   0.984  12.004
 9814SOL    HW131216   3.850   1.044  11.955
 9814SOL    HW231217   3.859   0.964  12.084
 9815SOL     OW31218   5.164   5.032   2.698
 9815SOL    HW131219   5.143   5.119   2.664
 9815SOL    HW231220   5.103   4.974   2.654
 9816SOL     OW31221   5.508  10.899  11.810
 9816SOL    HW131222   5.540  10.983  11.778
 9816SOL    HW231223   5.576  10.837  11.786
 9817SOL     OW31224   4.910   2.404   3.010
 9817SOL    HW131225   4.940   2.324   2.967
 9817SOL    HW231226   4.815   2.397   3.010
 9818SOL     OW31227   2.773  13.006  14.550
 9818SOL    HW131228   2.827  12.927  14.552
 9818SOL    HW231229   2.808  13.060  14.622
 9819SOL     OW31230  10.084   9.584   3.276
 9819SOL    HW131231  10.014   9.524   3.302
 9819SOL    HW231232  10.063   9.606   3.185
 9820SOL     OW31233   6.028   8.925   8.761
 9820SOL    HW131234   6.113   8.957   8.729
 9820SOL    HW231235   5.976   9.003   8.774
 9821SOL     OW31236  12.035  11.276  13.150
 9821SOL    HW131237  11.940  11.277  13.165
 9821SOL    HW231238  12.061  11.185  13.161
 9822SOL     OW31239   0.781   7.732   9.344
 9822SOL    HW131240   0.832   7.812   9.347
 9822SOL    HW231241   0.700   7.753   9.391
 9823SOL     OW31242   5.233  10.350  11.995
 9823SOL    HW131243   5.246  10.285  11.927
 9823SOL    HW231244   5.162  10.405  11.963
 9824SOL     OW31245  10.097  14.758  11.985
 9824SOL    HW131246  10.031  14.722  12.044
 9824SOL    HW231247  10.054  14.758  11.899
 9825SOL     OW31248  12.958  13.270   7.507
 9825SOL    HW131249  12.927  13.359   7.491
 9825SOL    HW231250  12.890  13.213   7.471
 9826SOL     OW31251   8.904   6.304   8.198
 9826SOL    HW131252   8.984   6.267   8.234
 9826SOL    HW231253   8.918   6.398   8.198
 9827SOL     OW31254   3.218   1.293   7.259
 9827SOL    HW131255   3.211   1.336   7.174
 9827SOL    HW231256   3.160   1.217   7.251
 9828SOL     OW31257   0.752   3.014   0.585
 9828SOL    HW131258   0.760   3.095   0.534
 9828SOL    HW231259   0.831   2.965   0.564
 9829SOL     OW31260  11.412   9.482   5.817
 9829SOL    HW131261  11.463   9.560   5.838
 9829SOL    HW231262  11.438   9.460   5.728
 9830SOL     OW31263   9.938   0.642   8.691
 9830SOL    HW131264   9.981   0.712   8.740
 9830SOL    HW231265   9.983   0.562   8.718
 9831SOL     OW31266  10.697   9.999   9.764
 9831SOL    HW131267  10.674   9.920   9.715
 9831SOL    HW231268  10.757  10.047   9.708
 9832SOL     OW31269   3.351   6.060  13.744
 9832SOL    HW131270   3.345   6.141  13.694
 9832SOL    HW231271   3.358   6.088  13.835
 9833SOL     OW31272   8.625  12.664   4.344
 9833SOL    HW131273   8.591  12.752   4.361
 9833SOL    HW231274   8.572  12.632   4.272
 9834SOL     OW31275  10.522   8.354  12.434
 9834SOL    HW131276  10.604   8.350  12.383
 9834SOL    HW231277  10.491   8.264  12.436
 9835SOL     OW31278   4.553   1.180   3.933
 9835SOL    HW131279   4.564   1.158   3.840
 9835SOL    HW231280   4.534   1.274   3.933
 9836SOL     OW31281  13.313  13.419   0.293
 9836SOL    HW131282  13.314  13.333   0.335
 9836SOL    HW231283  13.266  13.475   0.354
 9837SOL     OW31284   6.455   2.072   0.529
 9837SOL    HW131285   6.519   2.037   0.467
 9837SOL    HW231286   6.485   2.161   0.546
 9838SOL     OW31287   1.759   8.187   1.350
 9838SOL    HW131288   1.731   8.197   1.441
 9838SOL    HW231289   1.717   8.106   1.321
 9839SOL     OW31290   9.418   3.678   1.044
 9839SOL    HW131291   9.394   3.718   0.960
 9839SOL    HW231292   9.514   3.674   1.041
 9840SOL     OW31293   8.367   3.404   8.313
 9840SOL    HW131294   8.320   3.487   8.320
 9840SOL    HW231295   8.298   3.338   8.317
 9841SOL     OW31296   3.591  14.637   5.049
 9841SOL    HW131297   3.680  14.657   5.075
 9841SOL    HW231298   3.578  14.685   4.967
 9842SOL     OW31299   7.666   8.427  10.801
 9842SOL    HW131300   7.711   8.398  10.880
 9842SOL    HW231301   7.580   8.385  10.806
 9843SOL     OW31302   5.946  10.491   4.071
 9843SOL    HW131303   5.853  10.490   4.091
 9843SOL    HW231304   5.950  10.517   3.979
 9844SOL     OW31305  12.749  14.507   6.237
 9844SOL    HW131306  12.704  14.543   6.160
 9844SOL    HW231307  12.686  14.516   6.308
 9845SOL     OW31308   8.301  10.195   8.559
 9845SOL    HW131309   8.375  10.222   8.505
 9845SOL    HW231310   8.336  10.127   8.617
 9846SOL     OW31311   7.383   7.047   8.250
 9846SOL    HW131312   7.303   7.096   8.268
 9846SOL    HW231313   7.424   7.095   8.178
 9847SOL     OW31314   9.320   1.094  12.852
 9847SOL    HW131315   9.303   1.093  12.947
 9847SOL    HW231316   9.376   1.018  12.837
 9848SOL     OW31317   7.450   6.726   6.755
 9848SOL    HW131318   7.397   6.801   6.782
 9848SOL    HW231319   7.447   6.727   6.659
 9849SOL     OW31320  12.429   7.872   9.132
 9849SOL    HW131321  12.464   7.790   9.098
 9849SOL    HW231322  12.439   7.934   9.059
 9850SOL     OW31323   1.665   0.258   3.464
 9850SOL    HW131324   1.641   0.239   3.373
 9850SOL    HW231325   1.602   0.324   3.492
 9851SOL     OW31326   4.267  11.999   0.959
 9851SOL    HW131327   4.183  12.033   0.990
 9851SOL    HW231328   4.307  12.073   0.915
 9852SOL     OW31329  11.219   5.492  13.537
 9852SOL    HW131330  11.196   5.574  13.580
 9852SOL    HW231331  11.235   5.430  13.608
 9853SOL     OW31332   2.960   3.103   3.772
 9853SOL    HW131333   2.994   3.100   3.861
 9853SOL    HW231334   3.019   3.048   3.721
 9854SOL     OW31335   0.356   0.711   8.514
 9854SOL    HW131336   0.371   0.623   8.550
 9854SOL    HW231337   0.292   0.750   8.574
 9855SOL     OW31338  14.619   0.411   8.646
 9855SOL    HW131339  14.573   0.328   8.636
 9855SOL    HW231340  14.628   0.423   8.740
 9856SOL     OW31341   0.193   8.166   4.487
 9856SOL    HW131342   0.172   8.246   4.536
 9856SOL    HW231343   0.144   8.175   4.406
 9857SOL     OW31344  10.989  14.429   3.114
 9857SOL    HW131345  11.079  14.405   3.133
 9857SOL    HW231346  10.941  14.412   3.195
 9858SOL     OW31347   9.625  11.915   0.431
 9858SOL    HW131348   9.634  11.993   0.376
 9858SOL    HW231349   9.555  11.864   0.389
 9859SOL     OW31350  13.679   9.726   5.790
 9859SOL    HW131351  13.753   9.748   5.846
 9859SOL    HW231352  13.657   9.807   5.745
 9860SOL     OW31353   2.631   4.522   8.621
 9860SOL    HW131354   2.649   4.616   8.618
 9860SOL    HW231355   2.567   4.512   8.692
 9861SOL     OW31356  14.161   3.455   3.281
 9861SOL    HW131357  14.091   3.427   3.340
 9861SOL    HW231358  14.206   3.373   3.257
 9862SOL     OW31359   4.787  13.001   1.182
 9862SOL    HW131360   4.741  13.009   1.099
 9862SOL    HW231361   4.751  13.072   1.236
 9863SOL     OW31362   2.991  14.623   4.788
 9863SOL    HW131363   2.971  14.545   4.736
 9863SOL    HW231364   2.977  14.596   4.879
 9864SOL     OW31365   5.710  11.228   2.283
 9864SOL    HW131366   5.735  11.319   2.267
 9864SOL    HW231367   5.761  11.178   2.220
 9865SOL     OW31368   7.634  12.283   9.633
 9865SOL    HW131369   7.676  12.313   9.713
 9865SOL    HW231370   7.540  12.295   9.649
 9866SOL     OW31371   9.408   9.660   4.668
 9866SOL    HW131372   9.388   9.662   4.761
 9866SOL    HW231373   9.364   9.582   4.635
 9867SOL     OW31374  12.079   7.138   1.415
 9867SOL    HW131375  11.984   7.129   1.412
 9867SOL    HW231376  12.104   7.157   1.324
 9868SOL     OW31377   1.041  13.877   5.411
 9868SOL    HW131378   1.135  13.876   5.426
 9868SOL    HW231379   1.005  13.821   5.480
 9869SOL     OW31380   7.541   6.385   4.557
 9869SOL    HW131381   7.468   6.438   4.523
 9869SOL    HW231382   7.506   6.344   4.636
 9870SOL     OW31383  10.588  11.663  13.378
 9870SOL    HW131384  10.550  11.685  13.292
 9870SOL    HW231385  10.612  11.748  13.415
 9871SOL     OW31386   6.532  10.525   3.803
 9871SOL    HW131387   6.625  10.514   3.785
 9871SOL    HW231388   6.529  10.567   3.889
 9872SOL     OW31389   9.712   6.840   3.842
 9872SOL    HW131390   9.687   6.878   3.926
 9872SOL    HW231391   9.634   6.850   3.787
 9873SOL     OW31392   1.531  10.410   6.313
 9873SOL    HW131393   1.499  10.499   6.297
 9873SOL    HW231394   1.474  10.376   6.382
 9874SOL     OW31395  11.661   2.299   5.132
 9874SOL    HW131396  11.714   2.358   5.079
 9874SOL    HW231397  11.668   2.333   5.221
 9875SOL     OW31398   2.944  12.837   5.266
 9875SOL    HW131399   3.024  12.885   5.288
 9875SOL    HW231400   2.887  12.851   5.341
 9876SOL     OW31401   2.228   4.349  13.404
 9876SOL    HW131402   2.194   4.393  13.326
 9876SOL    HW231403   2.165   4.279  13.422
 9877SOL     OW31404   7.083   1.689  14.713
 9877SOL    HW131405   7.143   1.697  14.787
 9877SOL    HW231406   7.029   1.768  14.717
 9878SOL     OW31407  10.216  13.953  14.123
 9878SOL    HW131408  10.197  13.969  14.031
 9878SOL    HW231409  10.227  14.040  14.161
 9879SOL     OW31410   8.694   3.587   8.613
 9879SOL    HW131411   8.727   3.648   8.546
 9879SOL    HW231412   8.764   3.584   8.679
 9880SOL     OW31413   4.270   2.182  12.961
 9880SOL    HW131414   4.239   2.161  13.049
 9880SOL    HW231415   4.350   2.131  12.951
 9881SOL     OW31416   7.880   2.193  13.637
 9881SOL    HW131417   7.837   2.191  13.723
 9881SOL    HW231418   7.971   2.168  13.655
 9882SOL     OW31419  14.782  13.672  10.553
 9882SOL    HW131420  14.802  13.732  10.624
 9882SOL    HW231421  14.689  13.650  10.564
 9883SOL     OW31422   1.148   2.371  14.518
 9883SOL    HW131423   1.243   2.360  14.529
 9883SOL    HW231424   1.110   2.318  14.587
 9884SOL     OW31425   1.870   7.525   5.041
 9884SOL    HW131426   1.887   7.460   4.973
 9884SOL    HW231427   1.775   7.526   5.050
 9885SOL     OW31428  11.132   1.197   1.746
 9885SOL    HW131429  11.176   1.113   1.730
 9885SOL    HW231430  11.059   1.175   1.804
 9886SOL     OW31431  14.104   5.530   8.511
 9886SOL    HW131432  14.171   5.555   8.574
 9886SOL    HW231433  14.133   5.446   8.477
 9887SOL     OW31434   1.066   2.727   9.521
 9887SOL    HW131435   1.112   2.647   9.548
 9887SOL    HW231436   0.993   2.735   9.583
 9888SOL     OW31437  13.054  13.959  13.016
 9888SOL    HW131438  13.075  14.034  13.072
 9888SOL    HW231439  13.044  13.886  13.077
 9889SOL     OW31440   6.871   0.080  13.486
 9889SOL    HW131441   6.809   0.108  13.553
 9889SOL    HW231442   6.844  14.869  13.464
 9890SOL     OW31443  14.239   0.238   4.821
 9890SOL    HW131444  14.328   0.239   4.856
 9890SOL    HW231445  14.237   0.161   4.763
 9891SOL     OW31446  14.778   7.126   1.282
 9891SOL    HW131447  14.810   7.179   1.209
 9891SOL    HW231448  14.688   7.104   1.258
 9892SOL     OW31449   2.317  11.319  12.721
 9892SOL    HW131450   2.251  11.261  12.682
 9892SOL    HW231451   2.400  11.291  12.681
 9893SOL     OW31452  12.034   4.076   3.508
 9893SOL    HW131453  12.033   3.982   3.524
 9893SOL    HW231454  12.121   4.094   3.474
 9894SOL     OW31455   4.602   6.478  13.259
 9894SOL    HW131456   4.680   6.494  13.313
 9894SOL    HW231457   4.528   6.491  13.318
 9895SOL     OW31458  12.615   7.620   0.085
 9895SOL    HW131459  12.635   7.637  14.871
 9895SOL    HW231460  12.644   7.530   0.100
 9896SOL     OW31461  13.703   6.858  10.428
 9896SOL    HW131462  13.659   6.782  10.391
 9896SOL    HW231463  13.638   6.928  10.424
 9897SOL     OW31464   3.475   8.424   8.898
 9897SOL    HW131465   3.489   8.509   8.857
 9897SOL    HW231466   3.500   8.360   8.832
 9898SOL     OW31467   1.735   3.826  11.804
 9898SOL    HW131468   1.700   3.848  11.890
 9898SOL    HW231469   1.824   3.862  11.804
 9899SOL     OW31470  12.458   7.820  11.301
 9899SOL    HW131471  12.457   7.849  11.392
 9899SOL    HW231472  12.366   7.819  11.274
 9900SOL     OW31473   1.309   7.619   3.948
 9900SOL    HW131474   1.365   7.595   4.021
 9900SOL    HW231475   1.306   7.715   3.951
 9901SOL     OW31476   2.031  14.420   2.552
 9901SOL    HW131477   2.089  14.398   2.479
 9901SOL    HW231478   2.037  14.344   2.611
 9902SOL     OW31479  13.338  12.315   6.231
 9902SOL    HW131480  13.358  12.407   6.247
 9902SOL    HW231481  13.392  12.292   6.154
 9903SOL     OW31482   4.494   8.117  12.563
 9903SOL    HW131483   4.589   8.119  12.572
 9903SOL    HW231484   4.477   8.052  12.495
 9904SOL     OW31485   0.698   7.914   5.648
 9904SOL    HW131486   0.650   7.993   5.672
 9904SOL    HW231487   0.631   7.854   5.616
 9905SOL     OW31488  14.715  12.407   1.289
 9905SOL    HW131489  14.713  12.503   1.287
 9905SOL    HW231490  14.803  12.385   1.319
 9906SOL     OW31491   8.301  11.719  10.237
 9906SOL    HW131492   8.353  11.706  10.317
 9906SOL    HW231493   8.332  11.804  10.204
 9907SOL     OW31494  10.763   0.591  10.260
 9907SOL    HW131495  10.778   0.672  10.308
 9907SOL    HW231496  10.836   0.587  10.197
 9908SOL     OW31497   1.761   6.627  11.695
 9908SOL    HW131498   1.710   6.580  11.761
 9908SOL    HW231499   1.723   6.600  11.611
 9909SOL     OW31500  11.907   2.810  14.849
 9909SOL    HW131501  11.996   2.776  14.860
 9909SOL    HW231502  11.886   2.792  14.758
 9910SOL     OW31503   6.668  10.685   1.456
 9910SOL    HW131504   6.657  10.777   1.483
 9910SOL    HW231505   6.717  10.645   1.528
 9911SOL     OW31506   6.309  10.714   9.086
 9911SOL    HW131507   6.366  10.708   9.009
 9911SOL    HW231508   6.221  10.697   9.052
 9912SOL     OW31509   2.661   6.096   1.539
 9912SOL    HW131510   2.661   6.075   1.632
 9912SOL    HW231511   2.583   6.150   1.527
 9913SOL     OW31512   2.107  14.004   5.804
 9913SOL    HW131513   2.188  14.004   5.752
 9913SOL    HW231514   2.062  13.924   5.778
 9914SOL     OW31515  12.812   8.074   2.998
 9914SOL    HW131516  12.747   8.101   3.063
 9914SOL    HW231517  12.850   7.994   3.034
 9915SOL     OW31518   1.110   3.858  11.223
 9915SOL    HW131519   1.017   3.859  11.246
 9915SOL    HW231520   1.115   3.909  11.142
 9916SOL     OW31521   6.009   6.545  14.780
 9916SOL    HW131522   5.998   6.554  14.685
 9916SOL    HW231523   5.957   6.616  14.817
 9917SOL     OW31524  14.685   8.866  12.612
 9917SOL    HW131525  14.697   8.779  12.652
 9917SOL    HW231526  14.736   8.862  12.531
 9918SOL     OW31527  11.497  12.659  13.220
 9918SOL    HW131528  11.409  12.693  13.234
 9918SOL    HW231529  11.486  12.565  13.207
 9919SOL     OW31530   3.548  12.666   0.324
 9919SOL    HW131531   3.528  12.678   0.231
 9919SOL    HW231532   3.489  12.596   0.352
 9920SOL     OW31533  14.265   8.329   7.762
 9920SOL    HW131534  14.331   8.365   7.820
 9920SOL    HW231535  14.312   8.263   7.710
 9921SOL     OW31536   5.373  12.025  13.392
 9921SOL    HW131537   5.297  12.042  13.336
 9921SOL    HW231538   5.440  12.086  13.361
 9922SOL     OW31539   6.298   8.028   3.616
 9922SOL    HW131540   6.349   7.979   3.680
 9922SOL    HW231541   6.360   8.091   3.579
 9923SOL     OW31542   5.875   0.072   5.023
 9923SOL    HW131543   5.805   0.082   5.087
 9923SOL    HW231544   5.908   0.161   5.008
 9924SOL     OW31545  13.421   9.475   8.459
 9924SOL    HW131546  13.388   9.510   8.377
 9924SOL    HW231547  13.468   9.395   8.434
 9925SOL     OW31548   0.344   6.833   2.844
 9925SOL    HW131549   0.273   6.835   2.909
 9925SOL    HW231550   0.301   6.808   2.763
 9926SOL     OW31551   9.160   6.015   5.900
 9926SOL    HW131552   9.131   5.927   5.872
 9926SOL    HW231553   9.204   6.051   5.823
 9927SOL     OW31554   4.870   8.570   0.929
 9927SOL    HW131555   4.911   8.560   0.843
 9927SOL    HW231556   4.899   8.494   0.978
 9928SOL     OW31557   2.399   1.085  11.597
 9928SOL    HW131558   2.435   1.045  11.518
 9928SOL    HW231559   2.348   1.159  11.566
 9929SOL     OW31560  10.521   0.689   2.089
 9929SOL    HW131561  10.517   0.608   2.140
 9929SOL    HW231562  10.437   0.692   2.043
 9930SOL     OW31563   0.727  14.373  10.565
 9930SOL    HW131564   0.687  14.361  10.652
 9930SOL    HW231565   0.673  14.440  10.523
 9931SOL     OW31566   5.208   4.183  14.437
 9931SOL    HW131567   5.230   4.261  14.488
 9931SOL    HW231568   5.120   4.158  14.467
 9932SOL     OW31569   5.713   2.605   4.848
 9932SOL    HW131570   5.687   2.555   4.771
 9932SOL    HW231571   5.793   2.651   4.820
 9933SOL     OW31572   7.794   5.918  13.103
 9933SOL    HW131573   7.797   5.823  13.105
 9933SOL    HW231574   7.750   5.939  13.021
 9934SOL     OW31575   7.426   9.253  10.844
 9934SOL    HW131576   7.510   9.214  10.821
 9934SOL    HW231577   7.447   9.345  10.863
 9935SOL     OW31578  11.574   6.964  10.742
 9935SOL    HW131579  11.549   7.015  10.665
 9935SOL    HW231580  11.634   6.897  10.708
 9936SOL     OW31581   5.521   6.561  11.359
 9936SOL    HW131582   5.525   6.520  11.446
 9936SOL    HW231583   5.429   6.555  11.334
 9937SOL     OW31584   7.109   6.622   1.832
 9937SOL    HW131585   7.038   6.631   1.768
 9937SOL    HW231586   7.064   6.601   1.914
 9938SOL     OW31587   2.357   2.030  12.108
 9938SOL    HW131588   2.316   1.944  12.111
 9938SOL    HW231589   2.370   2.054  12.200
 9939SOL     OW31590   8.551  13.577   6.667
 9939SOL    HW131591   8.500  13.511   6.619
 9939SOL    HW231592   8.554  13.544   6.757
 9940SOL     OW31593  12.147   1.143   2.950
 9940SOL    HW131594  12.093   1.073   2.914
 9940SOL    HW231595  12.226   1.142   2.897
 9941SOL     OW31596  12.924   7.495   6.131
 9941SOL    HW131597  12.968   7.535   6.206
 9941SOL    HW231598  12.968   7.410   6.120
 9942SOL     OW31599  12.510  14.438   5.644
 9942SOL    HW131600  12.506  14.533   5.645
 9942SOL    HW231601  12.542  14.416   5.556
 9943SOL     OW31602   8.293  12.863   2.746
 9943SOL    HW131603   8.206  12.848   2.710
 9943SOL    HW231604   8.285  12.944   2.796
 9944SOL     OW31605  14.742  12.153   6.776
 9944SOL    HW131606  14.664  12.125   6.727
 9944SOL    HW231607  14.711  12.226   6.829
 9945SOL     OW31608  10.736  11.049  12.182
 9945SOL    HW131609  10.677  11.004  12.122
 9945SOL    HW231610  10.782  10.978  12.228
 9946SOL     OW31611  11.539   8.594   9.571
 9946SOL    HW131612  11.498   8.533   9.632
 9946SOL    HW231613  11.632   8.571   9.572
 9947SOL     OW31614  12.390   9.400   3.072
 9947SOL    HW131615  12.385   9.305   3.063
 9947SOL    HW231616  12.478   9.417   3.105
 9948SOL     OW31617   5.898   7.432   2.556
 9948SOL    HW131618   5.980   7.451   2.511
 9948SOL    HW231619   5.894   7.497   2.627
 9949SOL     OW31620   2.192   4.488  14.032
 9949SOL    HW131621   2.143   4.411  14.004
 9949SOL    HW231622   2.266   4.453  14.082
 9950SOL     OW31623   7.401   8.975  12.487
 9950SOL    HW131624   7.493   8.993  12.472
 9950SOL    HW231625   7.399   8.886  12.520
 9951SOL     OW31626  12.246   4.475   8.086
 9951SOL    HW131627  12.327   4.495   8.131
 9951SOL    HW231628  12.188   4.548   8.108
 9952SOL     OW31629   1.289  11.114   7.113
 9952SOL    HW131630   1.253  11.125   7.201
 9952SOL    HW231631   1.220  11.146   7.055
 9953SOL     OW31632   3.762  12.233  14.177
 9953SOL    HW131633   3.840  12.265  14.132
 9953SOL    HW231634   3.741  12.150  14.135
 9954SOL     OW31635  14.106   3.339  12.719
 9954SOL    HW131636  14.154   3.293  12.788
 9954SOL    HW231637  14.171   3.353  12.650
 9955SOL     OW31638   9.273   3.422   6.344
 9955SOL    HW131639   9.250   3.333   6.371
 9955SOL    HW231640   9.221   3.437   6.265
 9956SOL     OW31641   9.812   6.709  11.861
 9956SOL    HW131642   9.735   6.657  11.884
 9956SOL    HW231643   9.777   6.782  11.810
 9957SOL     OW31644   5.967   0.087   5.522
 9957SOL    HW131645   5.899   0.035   5.564
 9957SOL    HW231646   6.017   0.125   5.595
 9958SOL     OW31647  10.823   4.597  11.786
 9958SOL    HW131648  10.845   4.679  11.742
 9958SOL    HW231649  10.805   4.623  11.876
 9959SOL     OW31650   2.403  12.688   9.906
 9959SOL    HW131651   2.479  12.658   9.857
 9959SOL    HW231652   2.420  12.781   9.922
 9960SOL     OW31653  12.783   8.421   0.718
 9960SOL    HW131654  12.721   8.350   0.703
 9960SOL    HW231655  12.868   8.377   0.729
 9961SOL     OW31656   2.709   7.046   2.654
 9961SOL    HW131657   2.787   6.992   2.642
 9961SOL    HW231658   2.692   7.044   2.748
 9962SOL     OW31659   5.318   5.942   9.866
 9962SOL    HW131660   5.269   6.016   9.903
 9962SOL    HW231661   5.353   5.976   9.784
 9963SOL     OW31662  11.922   3.208   3.954
 9963SOL    HW131663  11.994   3.248   3.907
 9963SOL    HW231664  11.923   3.116   3.928
 9964SOL     OW31665  12.386  11.343   6.723
 9964SOL    HW131666  12.404  11.313   6.812
 9964SOL    HW231667  12.402  11.267   6.668
 9965SOL     OW31668   6.672   5.555  10.702
 9965SOL    HW131669   6.704   5.478  10.749
 9965SOL    HW231670   6.650   5.522  10.615
 9966SOL     OW31671   3.626  10.316   6.277
 9966SOL    HW131672   3.576  10.252   6.327
 9966SOL    HW231673   3.569  10.393   6.273
 9967SOL     OW31674  13.876   7.332   8.800
 9967SOL    HW131675  13.895   7.345   8.893
 9967SOL    HW231676  13.911   7.245   8.780
 9968SOL     OW31677   5.281   9.790  14.017
 9968SOL    HW131678   5.230   9.717  13.983
 9968SOL    HW231679   5.295   9.769  14.110
 9969SOL     OW31680   4.537   1.623   7.292
 9969SOL    HW131681   4.503   1.539   7.259
 9969SOL    HW231682   4.463   1.662   7.338
 9970SOL     OW31683   2.365   7.740   0.470
 9970SOL    HW131684   2.337   7.809   0.531
 9970SOL    HW231685   2.459   7.755   0.459
 9971SOL     OW31686  12.928   8.821   4.288
 9971SOL    HW131687  12.933   8.859   4.200
 9971SOL    HW231688  12.861   8.874   4.332
 9972SOL     OW31689   1.171  10.007   1.837
 9972SOL    HW131690   1.196   9.916   1.854
 9972SOL    HW231691   1.079  10.011   1.863
 9973SOL     OW31692   5.285  11.237   1.721
 9973SOL    HW131693   5.294  11.142   1.723
 9973SOL    HW231694   5.354  11.267   1.661
 9974SOL     OW31695   2.354  10.234   0.779
 9974SOL    HW131696   2.440  10.199   0.755
 9974SOL    HW231697   2.344  10.313   0.727
 9975SOL     OW31698  14.385   8.393   2.042
 9975SOL    HW131699  14.337   8.415   1.963
 9975SOL    HW231700  14.384   8.298   2.046
 9976SOL     OW31701  10.929   7.931   7.739
 9976SOL    HW131702  10.978   7.955   7.818
 9976SOL    HW231703  10.838   7.935   7.766
 9977SOL     OW31704   8.326   6.869   1.919
 9977SOL    HW131705   8.324   6.945   1.978
 9977SOL    HW231706   8.379   6.898   1.845
 9978SOL     OW31707   9.017   9.478  14.857
 9978SOL    HW131708   8.947   9.444  14.801
 9978SOL    HW231709   9.046   9.558  14.813
 9979SOL     OW31710   1.369   1.354   2.763
 9979SOL    HW131711   1.414   1.438   2.764
 9979SOL    HW231712   1.430   1.293   2.805
 9980SOL     OW31713   6.843   5.831  11.448
 9980SOL    HW131714   6.895   5.866  11.376
 9980SOL    HW231715   6.798   5.755  11.410
 9981SOL     OW31716   7.293  13.760  14.556
 9981SOL    HW131717   7.297  13.668  14.527
 9981SOL    HW231718   7.347  13.807  14.493
 9982SOL     OW31719   5.539   3.196   0.376
 9982SOL    HW131720   5.532   3.186   0.281
 9982SOL    HW231721   5.450   3.185   0.408
 9983SOL     OW31722   6.388   3.561  12.726
 9983SOL    HW131723   6.316   3.534  12.782
 9983SOL    HW231724   6.415   3.646  12.761
 9984SOL     OW31725   8.833  11.778  11.049
 9984SOL    HW131726   8.905  11.798  10.989
 9984SOL    HW231727   8.858  11.821  11.131
 9985SOL     OW31728   5.458  10.797   6.615
 9985SOL    HW131729   5.402  10.766   6.687
 9985SOL    HW231730   5.539  10.747   6.625
 9986SOL     OW31731   2.583   6.569  10.770
 9986SOL    HW131732   2.487   6.571  10.768
 9986SOL    HW231733   2.606   6.495  10.714
 9987SOL     OW31734  10.232  12.187   9.495
 9987SOL    HW131735  10.296  12.214   9.429
 9987SOL    HW231736  10.180  12.120   9.451
 9988SOL     OW31737   0.301  10.385   2.275
 9988SOL    HW131738   0.360  10.338   2.216
 9988SOL    HW231739   0.279  10.323   2.343
 9989SOL     OW31740  11.951   2.467   2.788
 9989SOL    HW131741  11.991   2.510   2.713
 9989SOL    HW231742  11.859   2.457   2.763
 9990SOL     OW31743   2.655  13.821  10.749
 9990SOL    HW131744   2.585  13.826  10.683
 9990SOL    HW231745   2.695  13.735  10.735
 9991SOL     OW31746   7.729  12.590   3.506
 9991SOL    HW131747   7.728  12.584   3.602
 9991SOL    HW231748   7.660  12.653   3.485
 9992SOL     OW31749  13.068   6.766  10.149
 9992SOL    HW131750  12.987   6.723  10.125
 9992SOL    HW231751  13.133   6.696  10.155
 9993SOL     OW31752   5.818   8.818   6.238
 9993SOL    HW131753   5.879   8.751   6.205
 9993SOL    HW231754   5.821   8.887   6.172
 9994SOL     OW31755   8.267  10.412   7.784
 9994SOL    HW131756   8.178  10.406   7.818
 9994SOL    HW231757   8.314  10.342   7.829
 9995SOL     OW31758  13.204  10.998   9.779
 9995SOL    HW131759  13.233  10.911   9.751
 9995SOL    HW231760  13.265  11.058   9.737
 9996SOL     OW31761  13.093  14.383   9.370
 9996SOL    HW131762  13.125  14.370   9.281
 9996SOL    HW231763  13.170  14.411   9.419
 9997SOL     OW31764   5.876  13.112   6.503
 9997SOL    HW131765   5.937  13.111   6.429
 9997SOL    HW231766   5.836  13.025   6.503
 9998SOL     OW31767   2.231   0.717  10.980
 9998SOL    HW131768   2.274   0.668  10.910
 9998SOL    HW231769   2.296   0.720  11.051
 9999SOL     OW31770   8.365   1.844   0.714
 9999SOL    HW131771   8.347   1.759   0.754
 9999SOL    HW231772   8.279   1.878   0.690
10000SOL     OW31773   5.719  13.101   8.360
10000SOL    HW131774   5.697  13.019   8.316
10000SOL    HW231775   5.637  13.130   8.399
10001SOL     OW31776   5.760  12.022   4.216
10001SOL    HW131777   5.751  11.955   4.149
10001SOL    HW231778   5.831  11.991   4.272
10002SOL     OW31779  13.997  12.127  13.136
10002SOL    HW131780  14.017  12.040  13.170
10002SOL    HW231781  14.083  12.165  13.116
10003SOL     OW31782  12.567  12.701  13.712
10003SOL    HW131783  12.535  12.764  13.648
10003SOL    HW231784  12.538  12.736  13.797
10004SOL     OW31785   0.225  13.282   1.982
10004SOL    HW131786   0.235  13.193   2.018
10004SOL    HW231787   0.132  13.287   1.959
10005SOL     OW31788  14.801   1.217  13.377
10005SOL    HW131789  14.733   1.231  13.443
10005SOL    HW231790  14.782   1.282  13.309
10006SOL     OW31791   6.935   1.733   5.859
10006SOL    HW131792   7.016   1.772   5.826
10006SOL    HW231793   6.925   1.767   5.947
10007SOL     OW31794  11.374   6.402   4.066
10007SOL    HW131795  11.312   6.421   3.995
10007SOL    HW231796  11.418   6.321   4.038
10008SOL     OW31797   0.788  11.897   1.431
10008SOL    HW131798   0.777  11.991   1.441
10008SOL    HW231799   0.874  11.887   1.389
10009SOL     OW31800  11.619  12.635   7.872
10009SOL    HW131801  11.697  12.679   7.841
10009SOL    HW231802  11.614  12.658   7.965
10010SOL     OW31803   5.685   8.257  12.571
10010SOL    HW131804   5.740   8.312  12.515
10010SOL    HW231805   5.640   8.319  12.629
10011SOL     OW31806   7.568   3.537   6.937
10011SOL    HW131807   7.579   3.622   6.980
10011SOL    HW231808   7.594   3.473   7.003
10012SOL     OW31809  14.846   9.696   4.651
10012SOL    HW131810  14.763   9.737   4.631
10012SOL    HW231811   0.009   9.680   4.566
10013SOL     OW31812  11.495   3.515   8.749
10013SOL    HW131813  11.491   3.434   8.800
10013SOL    HW231814  11.588   3.525   8.728
10014SOL     OW31815   9.360   7.749  11.210
10014SOL    HW131816   9.270   7.717  11.212
10014SOL    HW231817   9.395   7.717  11.127
10015SOL     OW31818  12.882   3.003   5.082
10015SOL    HW131819  12.938   2.925   5.080
10015SOL    HW231820  12.932   3.068   5.131
10016SOL     OW31821   7.971   6.273   4.625
10016SOL    HW131822   7.927   6.194   4.593
10016SOL    HW231823   8.048   6.240   4.671
10017SOL     OW31824  13.718  11.726   5.231
10017SOL    HW131825  13.729  11.748   5.138
10017SOL    HW231826  13.643  11.778   5.259
10018SOL     OW31827   9.338  11.145   3.305
10018SOL    HW131828   9.295  11.214   3.255
10018SOL    HW231829   9.283  11.068   3.292
10019SOL     OW31830   3.362   0.443   5.581
10019SOL    HW131831   3.335   0.534   5.593
10019SOL    HW231832   3.452   0.440   5.614
10020SOL     OW31833  14.256  13.198  11.835
10020SOL    HW131834  14.264  13.163  11.747
10020SOL    HW231835  14.305  13.280  11.833
10021SOL     OW31836   5.341  14.452  14.269
10021SOL    HW131837   5.403  14.381  14.256
10021SOL    HW231838   5.262  14.423  14.224
10022SOL     OW31839   4.504   7.723  13.197
10022SOL    HW131840   4.531   7.699  13.108
10022SOL    HW231841   4.417   7.685  13.207
10023SOL     OW31842   6.359   7.918   5.946
10023SOL    HW131843   6.399   7.972   5.878
10023SOL    HW231844   6.382   7.962   6.028
10024SOL     OW31845   4.015   6.647   8.191
10024SOL    HW131846   3.952   6.584   8.225
10024SOL    HW231847   3.983   6.732   8.223
10025SOL     OW31848   4.355   1.192  10.505
10025SOL    HW131849   4.330   1.105  10.537
10025SOL    HW231850   4.377   1.178  10.413
10026SOL     OW31851  10.378   7.325   5.364
10026SOL    HW131852  10.446   7.374   5.318
10026SOL    HW231853  10.413   7.236   5.371
10027SOL     OW31854  11.513   2.427  10.089
10027SOL    HW131855  11.525   2.370  10.166
10027SOL    HW231856  11.421   2.454  10.094
10028SOL     OW31857   5.086  11.704   8.768
10028SOL    HW131858   5.043  11.768   8.711
10028SOL    HW231859   5.020  11.682   8.833
10029SOL     OW31860  13.454  12.958  14.546
10029SOL    HW131861  13.480  13.035  14.497
10029SOL    HW231862  13.358  12.961  14.547
10030SOL     OW31863  11.422  10.504  11.228
10030SOL    HW131864  11.333  10.527  11.203
10030SOL    HW231865  11.473  10.583  11.209
10031SOL     OW31866   0.455   5.871   9.314
10031SOL    HW131867   0.545   5.903   9.311
10031SOL    HW231868   0.402   5.944   9.283
10032SOL     OW31869   8.021   7.090   2.870
10032SOL    HW131870   7.997   7.021   2.808
10032SOL    HW231871   8.078   7.047   2.933
10033SOL     OW31872   8.606  13.564   6.935
10033SOL    HW131873   8.562  13.494   6.983
10033SOL    HW231874   8.578  13.644   6.979
10034SOL     OW31875   3.264  12.693   2.806
10034SOL    HW131876   3.186  12.748   2.798
10034SOL    HW231877   3.294  12.682   2.716
10035SOL     OW31878  13.742   9.626   0.793
10035SOL    HW131879  13.795   9.629   0.713
10035SOL    HW231880  13.676   9.560   0.775
10036SOL     OW31881   9.912   5.990  13.691
10036SOL    HW131882   9.846   6.053  13.664
10036SOL    HW231883   9.995   6.029  13.665
10037SOL     OW31884   8.120   1.131  13.217
10037SOL    HW131885   8.120   1.199  13.150
10037SOL    HW231886   8.029   1.126  13.246
10038SOL     OW31887   2.382   6.121  11.969
10038SOL    HW131888   2.452   6.060  11.992
10038SOL    HW231889   2.374   6.177  12.046
10039SOL     OW31890  11.829   3.664  14.565
10039SOL    HW131891  11.748   3.697  14.525
10039SOL    HW231892  11.828   3.702  14.653
10040SOL     OW31893   8.884   5.696   4.961
10040SOL    HW131894   8.886   5.709   4.866
10040SOL    HW231895   8.908   5.781   4.998
10041SOL     OW31896   9.491  12.629  14.701
10041SOL    HW131897   9.405  12.595  14.676
10041SOL    HW231898   9.471  12.708  14.752
10042SOL     OW31899  11.271   3.005   9.100
10042SOL    HW131900  11.272   3.002   9.195
10042SOL    HW231901  11.363   3.006   9.074
10043SOL     OW31902   0.385   6.318   2.897
10043SOL    HW131903   0.398   6.253   2.966
10043SOL    HW231904   0.409   6.401   2.938
10044SOL     OW31905   6.090   2.867   3.889
10044SOL    HW131906   6.066   2.779   3.859
10044SOL    HW231907   6.186   2.865   3.896
10045SOL     OW31908   6.870   3.433   7.183
10045SOL    HW131909   6.943   3.415   7.123
10045SOL    HW231910   6.872   3.528   7.195
10046SOL     OW31911   0.449   0.820  11.414
10046SOL    HW131912   0.439   0.746  11.354
10046SOL    HW231913   0.371   0.873  11.400
10047SOL     OW31914   5.072   8.287   6.061
10047SOL    HW131915   5.110   8.312   6.145
10047SOL    HW231916   4.981   8.264   6.081
10048SOL     OW31917  10.814   6.014   4.838
10048SOL    HW131918  10.750   5.943   4.839
10048SOL    HW231919  10.765   6.090   4.807
10049SOL     OW31920  12.460  13.940   2.956
10049SOL    HW131921  12.549  13.957   2.987
10049SOL    HW231922  12.463  13.851   2.921
10050SOL     OW31923   5.185  14.002   6.967
10050SOL    HW131924   5.125  13.949   7.019
10050SOL    HW231925   5.180  13.965   6.878
10051SOL     OW31926   5.793   2.800   6.260
10051SOL    HW131927   5.863   2.754   6.307
10051SOL    HW231928   5.838   2.871   6.214
10052SOL     OW31929   5.610   4.490   8.347
10052SOL    HW131930   5.638   4.555   8.283
10052SOL    HW231931   5.627   4.531   8.432
10053SOL     OW31932   7.372   8.315   5.108
10053SOL    HW131933   7.346   8.254   5.177
10053SOL    HW231934   7.403   8.393   5.154
10054SOL     OW31935  10.177  11.932   8.745
10054SOL    HW131936  10.106  11.905   8.686
10054SOL    HW231937  10.215  11.850   8.776
10055SOL     OW31938  12.071   4.520  10.413
10055SOL    HW131939  12.073   4.449  10.477
10055SOL    HW231940  11.980   4.550  10.414
10056SOL     OW31941   4.981   3.987   2.913
10056SOL    HW131942   5.068   3.948   2.902
10056SOL    HW231943   4.930   3.952   2.840
10057SOL     OW31944   1.440   7.312   1.596
10057SOL    HW131945   1.347   7.288   1.604
10057SOL    HW231946   1.487   7.230   1.610
10058SOL     OW31947  10.106   7.721   3.398
10058SOL    HW131948  10.131   7.786   3.463
10058SOL    HW231949  10.136   7.757   3.314
10059SOL     OW31950   3.550   5.112  12.731
10059SOL    HW131951   3.619   5.175  12.714
10059SOL    HW231952   3.469   5.157  12.706
10060SOL     OW31953   7.245  12.388   0.379
10060SOL    HW131954   7.177  12.346   0.326
10060SOL    HW231955   7.315  12.323   0.382
10061SOL     OW31956   2.906  12.350   7.836
10061SOL    HW131957   2.893  12.348   7.931
10061SOL    HW231958   2.992  12.390   7.824
10062SOL     OW31959  10.009   7.471  13.466
10062SOL    HW131960  10.088   7.429  13.433
10062SOL    HW231961  10.008   7.557  13.424
10063SOL     OW31962   2.962   9.116   8.240
10063SOL    HW131963   2.964   9.123   8.144
10063SOL    HW231964   3.049   9.144   8.267
10064SOL     OW31965   5.489   9.464  13.785
10064SOL    HW131966   5.526   9.549  13.759
10064SOL    HW231967   5.564   9.404  13.781
10065SOL     OW31968   4.775  14.700   5.244
10065SOL    HW131969   4.805  14.640   5.312
10065SOL    HW231970   4.718  14.648   5.189
10066SOL     OW31971  11.758   2.255  12.727
10066SOL    HW131972  11.744   2.207  12.646
10066SOL    HW231973  11.670   2.277  12.758
10067SOL     OW31974   3.541   0.446  14.740
10067SOL    HW131975   3.627   0.405  14.742
10067SOL    HW231976   3.484   0.379  14.701
10068SOL     OW31977  14.622  14.178   8.037
10068SOL    HW131978  14.683  14.208   8.104
10068SOL    HW231979  14.576  14.258   8.009
10069SOL     OW31980   8.082  11.476   7.659
10069SOL    HW131981   7.998  11.443   7.627
10069SOL    HW231982   8.107  11.416   7.729
10070SOL     OW31983   1.743   0.226   9.626
10070SOL    HW131984   1.802   0.279   9.679
10070SOL    HW231985   1.801   0.168   9.577
10071SOL     OW31986   7.598   0.167   5.501
10071SOL    HW131987   7.519   0.220   5.512
10071SOL    HW231988   7.638   0.166   5.588
10072SOL     OW31989  14.589   2.161   1.168
10072SOL    HW131990  14.527   2.140   1.098
10072SOL    HW231991  14.566   2.102   1.240
10073SOL     OW31992  14.091   3.786  14.342
10073SOL    HW131993  14.098   3.841  14.264
10073SOL    HW231994  14.103   3.846  14.415
10074SOL     OW31995  10.650   0.801   0.273
10074SOL    HW131996  10.700   0.835   0.199
10074SOL    HW231997  10.632   0.878   0.328
10075SOL     OW31998   7.428   0.762   1.151
10075SOL    HW131999   7.436   0.850   1.115
10075SOL    HW232000   7.406   0.707   1.076
10076SOL     OW32001  10.065   2.283   0.286
10076SOL    HW132002  10.081   2.193   0.315
10076SOL    HW232003  10.035   2.329   0.364
10077SOL     OW32004  13.387  12.501  14.109
10077SOL    HW132005  13.382  12.420  14.059
10077SOL    HW232006  13.310  12.551  14.082
10078SOL     OW32007   9.876   9.026   2.641
10078SOL    HW132008   9.844   9.096   2.697
10078SOL    HW232009   9.940   8.979   2.695
10079SOL     OW32010   0.500  13.775   9.771
10079SOL    HW132011   0.483  13.681   9.773
10079SOL    HW232012   0.585  13.785   9.814
10080SOL     OW32013   9.938  14.100   8.279
10080SOL    HW132014   9.850  14.062   8.285
10080SOL    HW232015   9.932  14.181   8.330
10081SOL     OW32016   8.188   0.670  10.907
10081SOL    HW132017   8.246   0.614  10.959
10081SOL    HW232018   8.108   0.675  10.959
10082SOL     OW32019  10.197   7.414  10.014
10082SOL    HW132020  10.200   7.509  10.018
10082SOL    HW232021  10.166   7.386  10.100
10083SOL     OW32022  10.968  13.371  12.594
10083SOL    HW132023  10.994  13.337  12.508
10083SOL    HW232024  11.028  13.327  12.655
10084SOL     OW32025   0.709  10.881   7.657
10084SOL    HW132026   0.661  10.917   7.732
10084SOL    HW232027   0.734  10.793   7.685
10085SOL     OW32028  12.741   0.437  13.723
10085SOL    HW132029  12.800   0.381  13.673
10085SOL    HW232030  12.664   0.382  13.739
10086SOL     OW32031   6.944  10.731   3.360
10086SOL    HW132032   6.971  10.761   3.447
10086SOL    HW232033   7.025  10.701   3.319
10087SOL     OW32034  11.401   5.784   5.356
10087SOL    HW132035  11.346   5.753   5.284
10087SOL    HW232036  11.353   5.757   5.435
10088SOL     OW32037   2.226   2.259   0.922
10088SOL    HW132038   2.303   2.305   0.889
10088SOL    HW232039   2.154   2.290   0.867
10089SOL     OW32040   1.219  10.883   1.556
10089SOL    HW132041   1.231  10.831   1.636
10089SOL    HW232042   1.247  10.826   1.485
10090SOL     OW32043   7.169   2.322   9.380
10090SOL    HW132044   7.236   2.254   9.368
10090SOL    HW232045   7.124   2.325   9.295
10091SOL     OW32046   9.008  14.745   8.444
10091SOL    HW132047   8.973  14.754   8.356
10091SOL    HW232048   9.091  14.792   8.443
10092SOL     OW32049   1.645   9.067   1.675
10092SOL    HW132050   1.561   9.057   1.721
10092SOL    HW232051   1.704   9.104   1.741
10093SOL     OW32052  13.424   6.479  12.892
10093SOL    HW132053  13.347   6.473  12.948
10093SOL    HW232054  13.398   6.437  12.810
10094SOL     OW32055  13.709  11.743   0.251
10094SOL    HW132056  13.786  11.744   0.195
10094SOL    HW232057  13.720  11.665   0.306
10095SOL     OW32058  11.840  10.641   7.137
10095SOL    HW132059  11.907  10.660   7.071
10095SOL    HW232060  11.829  10.724   7.185
10096SOL     OW32061   8.802  10.495  11.950
10096SOL    HW132062   8.834  10.512  12.039
10096SOL    HW232063   8.877  10.455  11.905
10097SOL     OW32064  11.908  11.899   7.863
10097SOL    HW132065  11.904  11.804   7.868
10097SOL    HW232066  11.833  11.923   7.807
10098SOL     OW32067   8.946   1.734   1.785
10098SOL    HW132068   8.925   1.760   1.696
10098SOL    HW232069   8.930   1.639   1.787
10099SOL     OW32070   8.111   5.897  10.919
10099SOL    HW132071   8.094   5.913  10.826
10099SOL    HW232072   8.025   5.889  10.959
10100SOL     OW32073  10.400   0.447  13.687
10100SOL    HW132074  10.476   0.488  13.728
10100SOL    HW232075  10.349   0.412  13.761
10101SOL     OW32076   5.892   1.379   1.133
10101SOL    HW132077   5.839   1.441   1.184
10101SOL    HW232078   5.839   1.361   1.055
10102SOL     OW32079   3.535   2.551   5.437
10102SOL    HW132080   3.569   2.634   5.404
10102SOL    HW232081   3.494   2.574   5.521
10103SOL     OW32082  14.427   1.653   1.223
10103SOL    HW132083  14.425   1.626   1.132
10103SOL    HW232084  14.355   1.715   1.231
10104SOL     OW32085  12.093  10.741   4.455
10104SOL    HW132086  12.152  10.798   4.505
10104SOL    HW232087  12.116  10.757   4.364
10105SOL     OW32088   0.898   7.942   2.325
10105SOL    HW132089   0.853   7.909   2.247
10105SOL    HW232090   0.870   7.884   2.396
10106SOL     OW32091   5.590   4.929   4.116
10106SOL    HW132092   5.550   4.998   4.169
10106SOL    HW232093   5.683   4.933   4.139
10107SOL     OW32094  12.461   7.720   5.712
10107SOL    HW132095  12.529   7.763   5.763
10107SOL    HW232096  12.482   7.626   5.718
10108SOL     OW32097  12.003  10.267  13.230
10108SOL    HW132098  11.923  10.303  13.268
10108SOL    HW232099  12.039  10.210  13.298
10109SOL     OW32100   2.006   1.972  11.177
10109SOL    HW132101   2.088   1.994  11.133
10109SOL    HW232102   1.951   1.935  11.108
10110SOL     OW32103   0.785   0.605  13.728
10110SOL    HW132104   0.704   0.623  13.681
10110SOL    HW232105   0.790   0.673  13.794
10111SOL     OW32106   6.616   5.450  10.456
10111SOL    HW132107   6.544   5.389  10.439
10111SOL    HW232108   6.617   5.507  10.379
10112SOL     OW32109   5.054   2.686  13.794
10112SOL    HW132110   4.997   2.609  13.794
10112SOL    HW232111   5.068   2.706  13.701
10113SOL     OW32112   8.128   0.533   5.273
10113SOL    HW132113   8.050   0.547   5.219
10113SOL    HW232114   8.119   0.443   5.304
10114SOL     OW32115   9.126   7.015   5.869
10114SOL    HW132116   9.210   7.029   5.914
10114SOL    HW232117   9.060   7.034   5.935
10115SOL     OW32118  14.544   9.766  12.748
10115SOL    HW132119  14.477   9.786  12.683
10115SOL    HW232120  14.506   9.694  12.799
10116SOL     OW32121   5.416   4.230  11.738
10116SOL    HW132122   5.455   4.251  11.653
10116SOL    HW232123   5.451   4.143  11.759
10117SOL     OW32124   1.071   7.141   7.148
10117SOL    HW132125   1.081   7.236   7.135
10117SOL    HW232126   1.067   7.130   7.243
10118SOL     OW32127   1.456   6.433   4.972
10118SOL    HW132128   1.438   6.342   4.995
10118SOL    HW232129   1.455   6.479   5.056
10119SOL     OW32130  13.719   8.715   7.450
10119SOL    HW132131  13.771   8.749   7.523
10119SOL    HW232132  13.783   8.689   7.384
10120SOL     OW32133  11.841   7.679  12.007
10120SOL    HW132134  11.780   7.745  11.976
10120SOL    HW232135  11.874   7.637  11.928
10121SOL     OW32136   9.263  13.953   9.684
10121SOL    HW132137   9.287  14.012   9.613
10121SOL    HW232138   9.195  13.897   9.647
10122SOL     OW32139  10.192   7.958   0.606
10122SOL    HW132140  10.244   7.929   0.531
10122SOL    HW232141  10.256   7.980   0.674
10123SOL     OW32142   3.493   0.614  11.193
10123SOL    HW132143   3.535   0.542  11.145
10123SOL    HW232144   3.417   0.574  11.235
10124SOL     OW32145   6.082   3.673   7.518
10124SOL    HW132146   6.007   3.661   7.577
10124SOL    HW232147   6.128   3.749   7.553
10125SOL     OW32148   2.688   5.679   4.753
10125SOL    HW132149   2.738   5.692   4.833
10125SOL    HW232150   2.754   5.672   4.684
10126SOL     OW32151   0.996   4.261  12.194
10126SOL    HW132152   1.041   4.344  12.177
10126SOL    HW232153   1.065   4.195  12.181
10127SOL     OW32154   2.792   5.354   6.718
10127SOL    HW132155   2.821   5.353   6.627
10127SOL    HW232156   2.798   5.446   6.745
10128SOL     OW32157   9.715  13.183   7.831
10128SOL    HW132158   9.725  13.098   7.874
10128SOL    HW232159   9.805  13.210   7.811
10129SOL     OW32160   2.178   0.476  12.754
10129SOL    HW132161   2.121   0.408  12.719
10129SOL    HW232162   2.228   0.433  12.824
10130SOL     OW32163   6.477   1.293  11.378
10130SOL    HW132164   6.435   1.346  11.310
10130SOL    HW232165   6.550   1.251  11.334
10131SOL     OW32166  13.741  12.155  10.414
10131SOL    HW132167  13.811  12.220  10.416
10131SOL    HW232168  13.761  12.096  10.487
10132SOL     OW32169   5.370   3.666   1.093
10132SOL    HW132170   5.391   3.729   1.025
10132SOL    HW232171   5.336   3.590   1.046
10133SOL     OW32172   6.807   5.310  13.471
10133SOL    HW132173   6.847   5.281  13.553
10133SOL    HW232174   6.772   5.397  13.491
10134SOL     OW32175  11.884   6.336   5.625
10134SOL    HW132176  11.970   6.305   5.654
10134SOL    HW232177  11.899   6.372   5.538
10135SOL     OW32178   1.003  14.764   4.526
10135SOL    HW132179   0.944  14.699   4.562
10135SOL    HW232180   0.988  14.761   4.432
10136SOL     OW32181   4.193   5.185   9.022
10136SOL    HW132182   4.145   5.159   8.943
10136SOL    HW232183   4.128   5.182   9.092
10137SOL     OW32184   1.861   1.183   4.626
10137SOL    HW132185   1.912   1.263   4.612
10137SOL    HW232186   1.866   1.136   4.543
10138SOL     OW32187   9.739  12.324   1.386
10138SOL    HW132188   9.788  12.382   1.444
10138SOL    HW232189   9.740  12.239   1.430
10139SOL     OW32190  10.865   1.603   2.169
10139SOL    HW132191  10.810   1.620   2.092
10139SOL    HW232192  10.834   1.665   2.234
10140SOL     OW32193   2.008   6.538  12.558
10140SOL    HW132194   2.102   6.554  12.551
10140SOL    HW232195   1.968   6.600  12.498
10141SOL     OW32196   3.373   0.785  11.414
10141SOL    HW132197   3.388   0.743  11.499
10141SOL    HW232198   3.452   0.766  11.363
10142SOL     OW32199  10.598  11.120  14.580
10142SOL    HW132200  10.547  11.049  14.619
10142SOL    HW232201  10.686  11.108  14.614
10143SOL     OW32202   5.610  13.824   5.601
10143SOL    HW132203   5.515  13.836   5.596
10143SOL    HW232204   5.624  13.775   5.681
10144SOL     OW32205   1.220   4.781   5.292
10144SOL    HW132206   1.233   4.859   5.238
10144SOL    HW232207   1.269   4.712   5.247
10145SOL     OW32208   4.710   0.544   6.521
10145SOL    HW132209   4.753   0.475   6.469
10145SOL    HW232210   4.782   0.599   6.551
10146SOL     OW32211   6.762  12.586  11.032
10146SOL    HW132212   6.828  12.625  10.975
10146SOL    HW232213   6.811  12.529  11.091
10147SOL     OW32214   5.610  12.049   6.115
10147SOL    HW132215   5.596  11.997   6.036
10147SOL    HW232216   5.687  12.101   6.096
10148SOL     OW32217  11.727   4.464   5.610
10148SOL    HW132218  11.807   4.413   5.604
10148SOL    HW232219  11.665   4.406   5.655
10149SOL     OW32220   1.134  11.421  10.075
10149SOL    HW132221   1.123  11.482  10.001
10149SOL    HW232222   1.133  11.477  10.152
10150SOL     OW32223   1.757  10.502   4.284
10150SOL    HW132224   1.687  10.437   4.280
10150SOL    HW232225   1.716  10.579   4.323
10151SOL     OW32226  14.124   8.885   8.872
10151SOL    HW132227  14.040   8.930   8.857
10151SOL    HW232228  14.107   8.825   8.944
10152SOL     OW32229  14.058   6.754   4.103
10152SOL    HW132230  14.074   6.672   4.151
10152SOL    HW232231  13.967   6.746   4.073
10153SOL     OW32232  14.746   5.415   2.380
10153SOL    HW132233  14.763   5.451   2.467
10153SOL    HW232234  14.707   5.487   2.331
10154SOL     OW32235  12.259   7.622   7.930
10154SOL    HW132236  12.179   7.582   7.963
10154SOL    HW232237  12.261   7.709   7.970
10155SOL     OW32238   4.276  14.152   4.236
10155SOL    HW132239   4.242  14.195   4.315
10155SOL    HW232240   4.366  14.129   4.259
10156SOL     OW32241  14.050   8.750   9.807
10156SOL    HW132242  13.989   8.733   9.878
10156SOL    HW232243  14.136   8.725   9.841
10157SOL     OW32244  14.842   6.986  13.085
10157SOL    HW132245  14.878   6.915  13.032
10157SOL    HW232246  14.747   6.978  13.073
10158SOL     OW32247   3.502   5.579  14.229
10158SOL    HW132248   3.563   5.545  14.165
10158SOL    HW232249   3.424   5.603  14.179
10159SOL     OW32250   5.126   2.274  11.627
10159SOL    HW132251   5.174   2.308  11.552
10159SOL    HW232252   5.182   2.292  11.702
10160SOL     OW32253   0.914  13.061   5.374
10160SOL    HW132254   0.943  13.077   5.464
10160SOL    HW232255   0.990  13.024   5.330
10161SOL     OW32256   4.315   5.569   9.568
10161SOL    HW132257   4.299   5.508   9.495
10161SOL    HW232258   4.292   5.519   9.646
10162SOL     OW32259  12.240   8.425  14.290
10162SOL    HW132260  12.261   8.340  14.251
10162SOL    HW232261  12.316   8.480  14.270
10163SOL     OW32262   8.053  12.376  10.940
10163SOL    HW132263   8.138  12.415  10.920
10163SOL    HW232264   7.995  12.413  10.873
10164SOL     OW32265   8.193  11.114  14.163
10164SOL    HW132266   8.256  11.143  14.230
10164SOL    HW232267   8.115  11.089  14.213
10165SOL     OW32268   3.386  10.093   4.057
10165SOL    HW132269   3.396  10.188   4.067
10165SOL    HW232270   3.303  10.073   4.100
10166SOL     OW32271  12.080  11.624   2.812
10166SOL    HW132272  12.090  11.673   2.894
10166SOL    HW232273  12.168  11.622   2.775
10167SOL     OW32274   1.104   6.607   6.962
10167SOL    HW132275   1.031   6.579   6.906
10167SOL    HW232276   1.086   6.699   6.981
10168SOL     OW32277   3.801  11.086   4.910
10168SOL    HW132278   3.792  11.012   4.970
10168SOL    HW232279   3.803  11.163   4.966
10169SOL     OW32280  11.678   3.403  11.477
10169SOL    HW132281  11.754   3.358  11.513
10169SOL    HW232282  11.676   3.377  11.385
10170SOL     OW32283  10.100   6.461  14.157
10170SOL    HW132284  10.044   6.427  14.227
10170SOL    HW232285  10.041   6.506  14.098
10171SOL     OW32286   5.113   7.593  14.775
10171SOL    HW132287   5.196   7.609  14.820
10171SOL    HW232288   5.072   7.522  14.824
10172SOL     OW32289   2.137   4.305   1.273
10172SOL    HW132290   2.132   4.374   1.339
10172SOL    HW232291   2.046   4.278   1.259
10173SOL     OW32292  11.293  11.732  12.172
10173SOL    HW132293  11.373  11.784  12.174
10173SOL    HW232294  11.241  11.765  12.245
10174SOL     OW32295   4.200   3.395   4.538
10174SOL    HW132296   4.196   3.316   4.592
10174SOL    HW232297   4.131   3.451   4.572
10175SOL     OW32298   6.149   7.476   3.021
10175SOL    HW132299   6.130   7.415   3.092
10175SOL    HW232300   6.134   7.425   2.941
10176SOL     OW32301  13.155   0.747   6.525
10176SOL    HW132302  13.243   0.723   6.495
10176SOL    HW232303  13.171   0.811   6.594
10177SOL     OW32304   0.449   6.265   4.290
10177SOL    HW132305   0.404   6.201   4.345
10177SOL    HW232306   0.391   6.341   4.289
10178SOL     OW32307   6.197   9.684   8.270
10178SOL    HW132308   6.207   9.757   8.332
10178SOL    HW232309   6.209   9.724   8.184
10179SOL     OW32310  11.560   1.999  13.834
10179SOL    HW132311  11.496   1.932  13.859
10179SOL    HW232312  11.535   2.023  13.745
10180SOL     OW32313  10.762   7.772   5.619
10180SOL    HW132314  10.823   7.840   5.650
10180SOL    HW232315  10.759   7.783   5.524
10181SOL     OW32316   4.867  12.661   0.262
10181SOL    HW132317   4.866  12.719   0.186
10181SOL    HW232318   4.841  12.717   0.336
10182SOL     OW32319   2.562   3.078   4.649
10182SOL    HW132320   2.636   3.092   4.709
10182SOL    HW232321   2.530   3.165   4.629
10183SOL     OW32322   5.475   9.037   4.484
10183SOL    HW132323   5.557   8.988   4.476
10183SOL    HW232324   5.466   9.054   4.578
10184SOL     OW32325   1.425   0.816   6.798
10184SOL    HW132326   1.505   0.813   6.850
10184SOL    HW232327   1.450   0.784   6.711
10185SOL     OW32328   6.707   0.161   7.281
10185SOL    HW132329   6.771   0.102   7.320
10185SOL    HW232330   6.660   0.107   7.218
10186SOL     OW32331   3.048   4.781   3.793
10186SOL    HW132332   3.102   4.755   3.868
10186SOL    HW232333   2.962   4.798   3.831
10187SOL     OW32334   0.214   8.906  10.835
10187SOL    HW132335   0.205   8.988  10.786
10187SOL    HW232336   0.258   8.932  10.916
10188SOL     OW32337   3.145   2.448   2.033
10188SOL    HW132338   3.075   2.504   2.066
10188SOL    HW232339   3.214   2.454   2.099
10189SOL     OW32340   7.153   3.731   8.307
10189SOL    HW132341   7.079   3.739   8.247
10189SOL    HW232342   7.156   3.638   8.330
10190SOL     OW32343  13.750  14.641   2.244
10190SOL    HW132344  13.725  14.642   2.336
10190SOL    HW232345  13.712  14.560   2.210
10191SOL     OW32346   0.027   5.328   0.521
10191SOL    HW132347   0.046   5.419   0.500
10191SOL    HW232348  14.812   5.327   0.541
10192SOL     OW32349   7.646  14.558  12.521
10192SOL    HW132350   7.689  14.580  12.438
10192SOL    HW232351   7.667  14.630  12.579
10193SOL     OW32352   4.907  14.105   5.055
10193SOL    HW132353   4.821  14.083   5.091
10193SOL    HW232354   4.969  14.072   5.120
10194SOL     OW32355  12.704  13.380   9.612
10194SOL    HW132356  12.781  13.433   9.593
10194SOL    HW232357  12.734  13.290   9.603
10195SOL     OW32358  13.303  11.235   5.491
10195SOL    HW132359  13.377  11.178   5.514
10195SOL    HW232360  13.230  11.200   5.542
10196SOL     OW32361  12.057  14.129   7.563
10196SOL    HW132362  12.116  14.084   7.624
10196SOL    HW232363  12.054  14.072   7.486
10197SOL     OW32364   3.613   5.842  11.208
10197SOL    HW132365   3.603   5.762  11.157
10197SOL    HW232366   3.549   5.833  11.279
10198SOL     OW32367   2.240  14.443   5.634
10198SOL    HW132368   2.288  14.400   5.705
10198SOL    HW232369   2.293  14.520   5.612
10199SOL     OW32370   2.388   2.200  12.862
10199SOL    HW132371   2.438   2.280  12.848
10199SOL    HW232372   2.304   2.229  12.897
10200SOL     OW32373   8.436  11.711  12.354
10200SOL    HW132374   8.392  11.642  12.403
10200SOL    HW232375   8.371  11.740  12.290
10201SOL     OW32376   0.888  14.785  13.999
10201SOL    HW132377   0.823  14.830  13.943
10201SOL    HW232378   0.913  14.851  14.063
10202SOL     OW32379   8.358   1.008   3.086
10202SOL    HW132380   8.295   1.024   3.015
10202SOL    HW232381   8.322   0.933   3.134
10203SOL     OW32382   2.761   9.322  12.758
10203SOL    HW132383   2.747   9.411  12.724
10203SOL    HW232384   2.841   9.328  12.811
10204SOL     OW32385  14.136   7.292   5.623
10204SOL    HW132386  14.208   7.340   5.583
10204SOL    HW232387  14.064   7.355   5.628
10205SOL     OW32388   8.287   0.468   4.734
10205SOL    HW132389   8.208   0.490   4.785
10205SOL    HW232390   8.253   0.434   4.651
10206SOL     OW32391   6.179  14.766   8.154
10206SOL    HW132392   6.238  14.715   8.209
10206SOL    HW232393   6.174  14.851   8.197
10207SOL     OW32394   9.549   9.218  11.804
10207SOL    HW132395   9.626   9.275  11.794
10207SOL    HW232396   9.526   9.224  11.896
10208SOL     OW32397   1.747   2.638  11.888
10208SOL    HW132398   1.732   2.600  11.975
10208SOL    HW232399   1.820   2.587  11.853
10209SOL     OW32400  10.375   7.258   4.371
10209SOL    HW132401  10.351   7.302   4.290
10209SOL    HW232402  10.310   7.287   4.435
10210SOL     OW32403   7.423   5.554   9.748
10210SOL    HW132404   7.383   5.641   9.753
10210SOL    HW232405   7.468   5.543   9.831
10211SOL     OW32406   4.068   7.493  13.973
10211SOL    HW132407   4.094   7.405  14.001
10211SOL    HW232408   4.058   7.486  13.878
10212SOL     OW32409   2.558   3.186   1.001
10212SOL    HW132410   2.640   3.199   0.954
10212SOL    HW232411   2.513   3.118   0.951
10213SOL     OW32412   4.140  12.711   1.119
10213SOL    HW132413   4.145  12.804   1.139
10213SOL    HW232414   4.210  12.672   1.172
10214SOL     OW32415   2.613   2.432  12.240
10214SOL    HW132416   2.618   2.523  12.211
10214SOL    HW232417   2.701   2.413  12.273
10215SOL     OW32418   5.479   1.282   7.726
10215SOL    HW132419   5.501   1.333   7.649
10215SOL    HW232420   5.534   1.204   7.720
10216SOL     OW32421   2.924   6.849  12.251
10216SOL    HW132422   3.002   6.835  12.198
10216SOL    HW232423   2.955   6.846  12.342
10217SOL     OW32424   7.469   8.916  10.086
10217SOL    HW132425   7.481   9.005  10.121
10217SOL    HW232426   7.378   8.914  10.056
10218SOL     OW32427   8.617   3.641  13.992
10218SOL    HW132428   8.667   3.561  14.009
10218SOL    HW232429   8.526   3.618  14.013
10219SOL     OW32430  10.747  10.746  10.355
10219SOL    HW132431  10.741  10.835  10.320
10219SOL    HW232432  10.733  10.756  10.449
10220SOL     OW32433  14.531   2.888   7.061
10220SOL    HW132434  14.504   2.867   7.150
10220SOL    HW232435  14.551   2.981   7.064
10221SOL     OW32436   8.890   1.595  14.245
10221SOL    HW132437   8.841   1.587  14.164
10221SOL    HW232438   8.981   1.583  14.219
10222SOL     OW32439   0.358   6.201   8.865
10222SOL    HW132440   0.274   6.225   8.904
10222SOL    HW232441   0.368   6.108   8.883
10223SOL     OW32442   4.935  10.949   9.056
10223SOL    HW132443   5.019  10.972   9.097
10223SOL    HW232444   4.925  10.856   9.074
10224SOL     OW32445  14.493   5.000   8.002
10224SOL    HW132446  14.573   5.041   8.035
10224SOL    HW232447  14.431   5.008   8.074
10225SOL     OW32448  12.761   8.391  13.522
10225SOL    HW132449  12.695   8.359  13.583
10225SOL    HW232450  12.838   8.338  13.540
10226SOL     OW32451   3.111   1.847   2.988
10226SOL    HW132452   3.088   1.819   3.077
10226SOL    HW232453   3.027   1.867   2.946
10227SOL     OW32454   0.665   1.949  10.267
10227SOL    HW132455   0.596   1.910  10.214
10227SOL    HW232456   0.695   1.878  10.324
10228SOL     OW32457   4.548   4.878  11.042
10228SOL    HW132458   4.502   4.888  10.958
10228SOL    HW232459   4.579   4.966  11.062
10229SOL     OW32460   9.222   0.250  11.231
10229SOL    HW132461   9.312   0.218  11.228
10229SOL    HW232462   9.182   0.202  11.304
10230SOL     OW32463   5.568   8.409  13.840
10230SOL    HW132464   5.540   8.497  13.815
10230SOL    HW232465   5.653   8.398  13.797
10231SOL     OW32466  14.188   1.181   2.644
10231SOL    HW132467  14.242   1.257   2.623
10231SOL    HW232468  14.235   1.107   2.605
10232SOL     OW32469   2.961   3.567   4.860
10232SOL    HW132470   2.916   3.619   4.926
10232SOL    HW232471   2.915   3.587   4.778
10233SOL     OW32472  11.697   3.012   6.176
10233SOL    HW132473  11.744   3.059   6.245
10233SOL    HW232474  11.736   2.924   6.176
10234SOL     OW32475   4.155  14.676   3.229
10234SOL    HW132476   4.153  14.681   3.324
10234SOL    HW232477   4.131  14.764   3.200
10235SOL     OW32478   1.051   7.029   8.709
10235SOL    HW132479   0.956   7.028   8.723
10235SOL    HW232480   1.086   7.069   8.789
10236SOL     OW32481   8.710   0.360   4.953
10236SOL    HW132482   8.650   0.301   4.908
10236SOL    HW232483   8.752   0.409   4.883
10237SOL     OW32484   7.598   8.966   9.072
10237SOL    HW132485   7.691   8.968   9.096
10237SOL    HW232486   7.552   8.962   9.157
10238SOL     OW32487   8.673   6.893   2.511
10238SOL    HW132488   8.754   6.903   2.461
10238SOL    HW232489   8.696   6.834   2.583
10239SOL     OW32490   5.724   0.186   8.537
10239SOL    HW132491   5.761   0.118   8.480
10239SOL    HW232492   5.754   0.268   8.497
10240SOL     OW32493   3.259   1.007  11.276
10240SOL    HW132494   3.184   0.996  11.334
10240SOL    HW232495   3.335   1.009  11.334
10241SOL     OW32496  12.048   7.751   5.777
10241SOL    HW132497  11.984   7.794   5.833
10241SOL    HW232498  11.997   7.718   5.703
10242SOL     OW32499   7.813  12.499  10.387
10242SOL    HW132500   7.833  12.590  10.407
10242SOL    HW232501   7.885  12.470  10.332
10243SOL     OW32502  14.827   3.327  13.112
10243SOL    HW132503  14.749   3.271  13.117
10243SOL    HW232504   0.005   3.296  13.183
10244SOL     OW32505   6.627   4.505   5.502
10244SOL    HW132506   6.695   4.472   5.560
10244SOL    HW232507   6.638   4.455   5.421
10245SOL     OW32508   6.107   8.420   4.330
10245SOL    HW132509   6.181   8.373   4.367
10245SOL    HW232510   6.098   8.498   4.385
10246SOL     OW32511   5.648   1.028  10.672
10246SOL    HW132512   5.701   1.019  10.751
10246SOL    HW232513   5.711   1.056  10.605
10247SOL     OW32514  13.219   0.820   8.226
10247SOL    HW132515  13.168   0.900   8.214
10247SOL    HW232516  13.293   0.848   8.281
10248SOL     OW32517   6.124  13.744   6.897
10248SOL    HW132518   6.147  13.775   6.809
10248SOL    HW232519   6.131  13.649   6.892
10249SOL     OW32520   1.931   6.616  10.884
10249SOL    HW132521   1.972   6.580  10.805
10249SOL    HW232522   1.961   6.707  10.887
10250SOL     OW32523  10.940   0.308   3.051
10250SOL    HW132524  10.952   0.281   3.142
10250SOL    HW232525  10.896   0.392   3.056
10251SOL     OW32526   3.754  14.094  14.855
10251SOL    HW132527   3.693  14.056   0.040
10251SOL    HW232528   3.840  14.066   0.007
10252SOL     OW32529   7.347  13.225  14.186
10252SOL    HW132530   7.255  13.225  14.214
10252SOL    HW232531   7.386  13.299  14.232
10253SOL     OW32532  11.096  11.647   9.346
10253SOL    HW132533  11.040  11.590   9.399
10253SOL    HW232534  11.178  11.651   9.395
10254SOL     OW32535   5.551  12.460   6.362
10254SOL    HW132536   5.636  12.505   6.369
10254SOL    HW232537   5.568  12.372   6.394
10255SOL     OW32538   5.306   3.815  12.859
10255SOL    HW132539   5.357   3.889  12.825
10255SOL    HW232540   5.371   3.746  12.871
10256SOL     OW32541   0.042  14.192   9.859
10256SOL    HW132542  14.863  14.212   9.933
10256SOL    HW232543   0.008  14.110   9.824
10257SOL     OW32544  12.724   8.230   5.274
10257SOL    HW132545  12.652   8.190   5.323
10257SOL    HW232546  12.802   8.209   5.325
10258SOL     OW32547   8.488   7.582   2.101
10258SOL    HW132548   8.531   7.668   2.091
10258SOL    HW232549   8.398   7.598   2.075
10259SOL     OW32550  14.457   2.356   4.566
10259SOL    HW132551  14.520   2.378   4.497
10259SOL    HW232552  14.507   2.305   4.630
10260SOL     OW32553   6.877   8.642   8.865
10260SOL    HW132554   6.917   8.687   8.940
10260SOL    HW232555   6.841   8.713   8.812
10261SOL     OW32556   7.729  11.739   7.399
10261SOL    HW132557   7.665  11.740   7.470
10261SOL    HW232558   7.810  11.708   7.439
10262SOL     OW32559   5.928   6.652  11.677
10262SOL    HW132560   5.991   6.580  11.683
10262SOL    HW232561   5.946   6.693  11.593
10263SOL     OW32562   5.017  10.359   0.964
10263SOL    HW132563   5.049  10.444   0.995
10263SOL    HW232564   5.004  10.308   1.044
10264SOL     OW32565  11.834  14.554   2.982
10264SOL    HW132566  11.788  14.510   2.910
10264SOL    HW232567  11.767  14.565   3.049
10265SOL     OW32568   3.503  13.106  12.479
10265SOL    HW132569   3.420  13.083  12.438
10265SOL    HW232570   3.548  13.160  12.414
10266SOL     OW32571  14.099   4.355   6.026
10266SOL    HW132572  14.186   4.328   6.055
10266SOL    HW232573  14.098   4.450   6.039
10267SOL     OW32574   4.531   7.771   8.663
10267SOL    HW132575   4.495   7.682   8.656
10267SOL    HW232576   4.616   7.760   8.705
10268SOL     OW32577   8.145   3.615   9.107
10268SOL    HW132578   8.075   3.680   9.112
10268SOL    HW232579   8.221   3.659   9.146
10269SOL     OW32580  13.502  11.281   0.688
10269SOL    HW132581  13.560  11.335   0.742
10269SOL    HW232582  13.555  11.205   0.665
10270SOL     OW32583  11.684  11.537   9.268
10270SOL    HW132584  11.595  11.542   9.234
10270SOL    HW232585  11.735  11.502   9.194
10271SOL     OW32586   2.990   0.284   2.885
10271SOL    HW132587   2.929   0.334   2.831
10271SOL    HW232588   3.076   0.320   2.865
10272SOL     OW32589   4.203   4.391  13.571
10272SOL    HW132590   4.140   4.326  13.601
10272SOL    HW232591   4.239   4.428  13.652
10273SOL     OW32592   2.434   9.837   8.696
10273SOL    HW132593   2.358   9.789   8.731
10273SOL    HW232594   2.489   9.854   8.772
10274SOL     OW32595   7.241   4.872  12.356
10274SOL    HW132596   7.257   4.964  12.333
10274SOL    HW232597   7.320   4.846  12.403
10275SOL     OW32598  12.002   7.494   2.019
10275SOL    HW132599  11.964   7.566   2.070
10275SOL    HW232600  11.928   7.459   1.969
10276SOL     OW32601  12.548   4.366   8.657
10276SOL    HW132602  12.518   4.277   8.674
10276SOL    HW232603  12.503   4.393   8.577
10277SOL     OW32604  10.820  11.167   7.989
10277SOL    HW132605  10.822  11.226   7.914
10277SOL    HW232606  10.747  11.108   7.971
10278SOL     OW32607   7.516   0.477   2.269
10278SOL    HW132608   7.485   0.448   2.183
10278SOL    HW232609   7.477   0.563   2.281
10279SOL     OW32610   1.442  14.621   3.957
10279SOL    HW132611   1.432  14.697   4.014
10279SOL    HW232612   1.418  14.653   3.870
10280SOL     OW32613   2.438   2.727  13.367
10280SOL    HW132614   2.417   2.649  13.419
10280SOL    HW232615   2.359   2.781  13.372
10281SOL     OW32616  13.944   1.417  11.167
10281SOL    HW132617  13.968   1.504  11.133
10281SOL    HW232618  13.960   1.357  11.094
10282SOL     OW32619  14.745  10.056   0.974
10282SOL    HW132620  14.835  10.080   0.953
10282SOL    HW232621  14.702  10.139   0.994
10283SOL     OW32622   8.981   8.684  11.264
10283SOL    HW132623   8.995   8.775  11.237
10283SOL    HW232624   9.064   8.641  11.244
10284SOL     OW32625   7.690   0.631  11.762
10284SOL    HW132626   7.691   0.579  11.682
10284SOL    HW232627   7.637   0.708  11.740
10285SOL     OW32628   2.691   8.121   1.444
10285SOL    HW132629   2.665   8.122   1.536
10285SOL    HW232630   2.635   8.186   1.402
10286SOL     OW32631   2.953  11.818   7.797
10286SOL    HW132632   2.922  11.888   7.856
10286SOL    HW232633   3.047  11.814   7.812
10287SOL     OW32634   8.254  13.089  12.103
10287SOL    HW132635   8.236  13.096  12.197
10287SOL    HW232636   8.337  13.135  12.091
10288SOL     OW32637   3.904   9.939  11.692
10288SOL    HW132638   3.947  10.020  11.717
10288SOL    HW232639   3.883   9.896  11.776
10289SOL     OW32640   0.506   5.501   9.235
10289SOL    HW132641   0.545   5.573   9.185
10289SOL    HW232642   0.447   5.458   9.173
10290SOL     OW32643  10.416   5.731   7.532
10290SOL    HW132644  10.377   5.688   7.456
10290SOL    HW232645  10.501   5.688   7.542
10291SOL     OW32646   9.545  10.018  12.715
10291SOL    HW132647   9.465   9.965  12.713
10291SOL    HW232648   9.568  10.022  12.808
10292SOL     OW32649  11.523   4.950  10.924
10292SOL    HW132650  11.429   4.938  10.911
10292SOL    HW232651  11.559   4.861  10.922
10293SOL     OW32652  12.635  10.032  11.314
10293SOL    HW132653  12.720   9.988  11.309
10293SOL    HW232654  12.598  10.022  11.226
10294SOL     OW32655   4.508   9.602   3.152
10294SOL    HW132656   4.528   9.667   3.084
10294SOL    HW232657   4.499   9.654   3.232
10295SOL     OW32658   5.744   7.472  14.684
10295SOL    HW132659   5.693   7.495  14.606
10295SOL    HW232660   5.834   7.468  14.654
10296SOL     OW32661  10.035   5.551  11.769
10296SOL    HW132662   9.957   5.555  11.713
10296SOL    HW232663  10.040   5.459  11.795
10297SOL     OW32664  10.855   2.529   6.087
10297SOL    HW132665  10.940   2.506   6.052
10297SOL    HW232666  10.795   2.521   6.013
10298SOL     OW32667   0.829   4.527   0.509
10298SOL    HW132668   0.779   4.609   0.512
10298SOL    HW232669   0.872   4.529   0.424
10299SOL     OW32670  14.702   0.572   1.616
10299SOL    HW132671  14.660   0.515   1.680
10299SOL    HW232672  14.779   0.523   1.587
10300SOL     OW32673  13.570   9.095   6.737
10300SOL    HW132674  13.620   9.126   6.661
10300SOL    HW232675  13.482   9.080   6.703
10301SOL     OW32676  11.817  13.388   8.384
10301SOL    HW132677  11.744  13.333   8.412
10301SOL    HW232678  11.891  13.328   8.378
10302SOL     OW32679   7.180   2.673   7.922
10302SOL    HW132680   7.201   2.661   8.014
10302SOL    HW232681   7.138   2.591   7.896
10303SOL     OW32682   8.523  12.872  10.105
10303SOL    HW132683   8.475  12.806  10.154
10303SOL    HW232684   8.494  12.861  10.014
10304SOL     OW32685   0.653   1.378  10.491
10304SOL    HW132686   0.650   1.300  10.546
10304SOL    HW232687   0.686   1.447  10.548
10305SOL     OW32688   8.417  14.470   7.564
10305SOL    HW132689   8.363  14.416   7.506
10305SOL    HW232690   8.506  14.435   7.554
10306SOL     OW32691   2.733  11.517   7.507
10306SOL    HW132692   2.648  11.478   7.487
10306SOL    HW232693   2.779  11.521   7.423
10307SOL     OW32694   7.717  12.092   8.234
10307SOL    HW132695   7.680  12.024   8.289
10307SOL    HW232696   7.749  12.158   8.295
10308SOL     OW32697   3.688   5.348   0.564
10308SOL    HW132698   3.762   5.291   0.584
10308SOL    HW232699   3.727   5.435   0.556
10309SOL     OW32700   4.228   2.004   3.935
10309SOL    HW132701   4.141   2.000   3.895
10309SOL    HW232702   4.281   2.055   3.873
10310SOL     OW32703   9.525  13.678  13.013
10310SOL    HW132704   9.490  13.706  12.929
10310SOL    HW232705   9.606  13.631  12.992
10311SOL     OW32706  12.129  12.936   5.470
10311SOL    HW132707  12.204  12.996   5.477
10311SOL    HW232708  12.088  12.959   5.387
10312SOL     OW32709  11.705  11.795   7.072
10312SOL    HW132710  11.789  11.778   7.116
10312SOL    HW232711  11.729  11.806   6.980
10313SOL     OW32712   7.202  13.030   7.677
10313SOL    HW132713   7.227  12.943   7.645
10313SOL    HW232714   7.269  13.089   7.644
10314SOL     OW32715  12.292   1.663   2.553
10314SOL    HW132716  12.378   1.683   2.591
10314SOL    HW232717  12.261   1.747   2.518
10315SOL     OW32718   4.188  12.610   3.988
10315SOL    HW132719   4.103  12.654   3.977
10315SOL    HW232720   4.251  12.682   3.996
10316SOL     OW32721   7.162  12.460   2.341
10316SOL    HW132722   7.190  12.442   2.431
10316SOL    HW232723   7.092  12.396   2.325
10317SOL     OW32724   7.595  12.170   6.965
10317SOL    HW132725   7.643  12.145   6.886
10317SOL    HW232726   7.604  12.095   7.024
10318SOL     OW32727   7.945  14.738  10.567
10318SOL    HW132728   7.886  14.813  10.574
10318SOL    HW232729   7.933  14.707  10.477
10319SOL     OW32730  11.109  12.280  14.431
10319SOL    HW132731  11.066  12.200  14.401
10319SOL    HW232732  11.088  12.286  14.524
10320SOL     OW32733   6.740   9.711   8.075
10320SOL    HW132734   6.794   9.637   8.050
10320SOL    HW232735   6.691   9.681   8.152
10321SOL     OW32736  10.593  14.788   0.155
10321SOL    HW132737  10.528  14.826   0.215
10321SOL    HW232738  10.548  14.713   0.116
10322SOL     OW32739   7.342   8.729   4.723
10322SOL    HW132740   7.397   8.808   4.719
10322SOL    HW232741   7.292   8.730   4.642
10323SOL     OW32742  14.756  12.852   1.287
10323SOL    HW132743  14.736  12.779   1.346
10323SOL    HW232744  14.736  12.930   1.338
10324SOL     OW32745   0.113  13.611  13.444
10324SOL    HW132746   0.150  13.662  13.516
10324SOL    HW232747   0.019  13.608  13.462
10325SOL     OW32748   3.293  13.766  12.433
10325SOL    HW132749   3.207  13.732  12.408
10325SOL    HW232750   3.305  13.844  12.380
10326SOL     OW32751   7.316   4.010   6.153
10326SOL    HW132752   7.346   3.962   6.076
10326SOL    HW232753   7.221   4.002   6.151
10327SOL     OW32754   8.632  13.439   9.265
10327SOL    HW132755   8.558  13.390   9.302
10327SOL    HW232756   8.705  13.377   9.268
10328SOL     OW32757   0.823   3.394  11.484
10328SOL    HW132758   0.733   3.423  11.497
10328SOL    HW232759   0.877   3.462  11.523
10329SOL     OW32760   4.415   0.849   9.271
10329SOL    HW132761   4.387   0.834   9.181
10329SOL    HW232762   4.367   0.783   9.322
10330SOL     OW32763   0.273   9.108   7.969
10330SOL    HW132764   0.201   9.150   7.920
10330SOL    HW232765   0.348   9.114   7.910
10331SOL     OW32766   5.799   8.275   5.114
10331SOL    HW132767   5.893   8.265   5.129
10331SOL    HW232768   5.779   8.362   5.147
10332SOL     OW32769   9.247   4.289  12.696
10332SOL    HW132770   9.257   4.326  12.608
10332SOL    HW232771   9.282   4.200  12.688
10333SOL     OW32772   9.772   9.948  12.345
10333SOL    HW132773   9.854   9.954  12.395
10333SOL    HW232774   9.754   9.854  12.341
10334SOL     OW32775   1.371   1.141  11.060
10334SOL    HW132776   1.404   1.167  10.975
10334SOL    HW232777   1.395   1.048  11.068
10335SOL     OW32778  12.555   5.406  13.445
10335SOL    HW132779  12.637   5.422  13.399
10335SOL    HW232780  12.536   5.313  13.428
10336SOL     OW32781  14.824   2.635   8.285
10336SOL    HW132782  14.817   2.673   8.372
10336SOL    HW232783   0.040   2.617   8.274
10337SOL     OW32784   8.459   6.448   7.046
10337SOL    HW132785   8.472   6.410   6.959
10337SOL    HW232786   8.490   6.538   7.038
10338SOL     OW32787  12.031   7.982   7.255
10338SOL    HW132788  11.954   8.038   7.243
10338SOL    HW232789  12.004   7.897   7.219
10339SOL     OW32790  12.981   5.513   2.181
10339SOL    HW132791  12.896   5.513   2.137
10339SOL    HW232792  13.012   5.423   2.171
10340SOL     OW32793   1.097   0.735   6.640
10340SOL    HW132794   1.030   0.797   6.669
10340SOL    HW232795   1.128   0.770   6.556
10341SOL     OW32796   5.390  14.263   1.965
10341SOL    HW132797   5.379  14.226   2.052
10341SOL    HW232798   5.305  14.249   1.923
10342SOL     OW32799   0.302   7.078   0.171
10342SOL    HW132800   0.244   7.003   0.173
10342SOL    HW232801   0.282   7.122   0.089
10343SOL     OW32802   0.134   9.532   8.806
10343SOL    HW132803   0.151   9.443   8.777
10343SOL    HW232804   0.149   9.586   8.728
10344SOL     OW32805   4.801   2.312  11.438
10344SOL    HW132806   4.790   2.217  11.430
10344SOL    HW232807   4.715   2.348  11.417
10345SOL     OW32808  11.306   9.940  14.672
10345SOL    HW132809  11.340  10.002  14.608
10345SOL    HW232810  11.341   9.856  14.645
10346SOL     OW32811  14.088   1.327   7.900
10346SOL    HW132812  14.106   1.235   7.880
10346SOL    HW232813  14.021   1.353   7.837
10347SOL     OW32814   4.152   6.603  10.180
10347SOL    HW132815   4.066   6.591  10.141
10347SOL    HW232816   4.199   6.522  10.161
10348SOL     OW32817   7.976  10.909  13.346
10348SOL    HW132818   7.929  10.976  13.295
10348SOL    HW232819   7.949  10.924  13.436
10349SOL     OW32820   9.813   6.102  12.936
10349SOL    HW132821   9.844   6.056  12.858
10349SOL    HW232822   9.746   6.043  12.972
10350SOL     OW32823   2.447  13.419   3.674
10350SOL    HW132824   2.434  13.514   3.670
10350SOL    HW232825   2.412  13.394   3.760
10351SOL     OW32826   0.008   2.890   7.166
10351SOL    HW132827  14.852   2.831   7.099
10351SOL    HW232828   0.100   2.865   7.175
10352SOL     OW32829  12.262   4.111  10.715
10352SOL    HW132830  12.338   4.143  10.764
10352SOL    HW232831  12.296   4.100  10.626
10353SOL     OW32832   6.825  10.205  12.696
10353SOL    HW132833   6.736  10.173  12.709
10353SOL    HW232834   6.868  10.136  12.646
10354SOL     OW32835   4.083   6.142  12.214
10354SOL    HW132836   3.988   6.135  12.225
10354SOL    HW232837   4.105   6.071  12.153
10355SOL     OW32838   2.326   6.077  10.275
10355SOL    HW132839   2.235   6.070  10.307
10355SOL    HW232840   2.318   6.114  10.188
10356SOL     OW32841   6.918  10.501   4.589
10356SOL    HW132842   6.891  10.580   4.542
10356SOL    HW232843   7.013  10.510   4.599
10357SOL     OW32844  10.743  12.813   6.308
10357SOL    HW132845  10.670  12.765   6.269
10357SOL    HW232846  10.815  12.751   6.309
10358SOL     OW32847   4.628   8.629   4.751
10358SOL    HW132848   4.693   8.694   4.775
10358SOL    HW232849   4.545   8.666   4.781
10359SOL     OW32850   6.428   3.242  14.153
10359SOL    HW132851   6.515   3.205  14.168
10359SOL    HW232852   6.368   3.170  14.173
10360SOL     OW32853  11.963   9.930  14.552
10360SOL    HW132854  11.923  10.017  14.554
10360SOL    HW232855  11.916   9.880  14.619
10361SOL     OW32856   5.124   3.803   1.725
10361SOL    HW132857   5.211   3.792   1.764
10361SOL    HW232858   5.073   3.729   1.757
10362SOL     OW32859   5.972  11.187   7.949
10362SOL    HW132860   5.945  11.203   8.040
10362SOL    HW232861   5.905  11.127   7.915
10363SOL     OW32862  10.491  12.008   4.414
10363SOL    HW132863  10.431  11.934   4.400
10363SOL    HW232864  10.573  11.968   4.441
10364SOL     OW32865   2.670   8.763  13.378
10364SOL    HW132866   2.696   8.794  13.291
10364SOL    HW232867   2.745   8.783  13.434
10365SOL     OW32868  11.949   1.298   3.255
10365SOL    HW132869  12.008   1.360   3.212
10365SOL    HW232870  11.942   1.330   3.345
10366SOL     OW32871  11.599   8.960   5.470
10366SOL    HW132872  11.552   8.945   5.553
10366SOL    HW232873  11.565   9.044   5.439
10367SOL     OW32874   3.017   9.295   5.960
10367SOL    HW132875   2.944   9.264   5.905
10367SOL    HW232876   2.990   9.275   6.049
10368SOL     OW32877   8.100   4.109   1.336
10368SOL    HW132878   8.075   4.109   1.428
10368SOL    HW232879   8.021   4.083   1.289
10369SOL     OW32880   7.055   7.057  11.443
10369SOL    HW132881   7.149   7.041  11.431
10369SOL    HW232882   7.039   7.040  11.535
10370SOL     OW32883  12.436  12.169   3.288
10370SOL    HW132884  12.530  12.177   3.304
10370SOL    HW232885  12.400  12.255   3.312
10371SOL     OW32886  13.287   3.148   1.539
10371SOL    HW132887  13.263   3.133   1.447
10371SOL    HW232888  13.377   3.178   1.535
10372SOL     OW32889   6.580   5.129  14.325
10372SOL    HW132890   6.570   5.166  14.413
10372SOL    HW232891   6.550   5.199  14.267
10373SOL     OW32892   1.506   9.504   3.784
10373SOL    HW132893   1.597   9.509   3.814
10373SOL    HW232894   1.506   9.549   3.700
10374SOL     OW32895   0.930  11.477   8.344
10374SOL    HW132896   0.851  11.483   8.397
10374SOL    HW232897   0.959  11.567   8.332
10375SOL     OW32898  13.932   5.229   4.364
10375SOL    HW132899  13.986   5.288   4.416
10375SOL    HW232900  13.989   5.201   4.292
10376SOL     OW32901   9.714  13.964  12.497
10376SOL    HW132902   9.759  14.048  12.490
10376SOL    HW232903   9.724  13.939  12.589
10377SOL     OW32904  13.843   6.078  13.771
10377SOL    HW132905  13.842   6.164  13.814
10377SOL    HW232906  13.798   6.093  13.688
10378SOL     OW32907  13.963   9.755  11.316
10378SOL    HW132908  14.005   9.816  11.376
10378SOL    HW232909  13.977   9.669  11.355
10379SOL     OW32910  11.570  12.640   8.150
10379SOL    HW132911  11.594  12.638   8.243
10379SOL    HW232912  11.475  12.651   8.150
10380SOL     OW32913   5.037  13.030   6.960
10380SOL    HW132914   4.942  13.018   6.963
10380SOL    HW232915   5.060  13.058   7.049
10381SOL     OW32916  10.319  13.920  11.208
10381SOL    HW132917  10.401  13.965  11.232
10381SOL    HW232918  10.325  13.909  11.113
10382SOL     OW32919  13.811  10.402   2.891
10382SOL    HW132920  13.798  10.431   2.801
10382SOL    HW232921  13.875  10.331   2.884
10383SOL     OW32922   1.685   6.496   8.192
10383SOL    HW132923   1.639   6.435   8.136
10383SOL    HW232924   1.642   6.490   8.277
10384SOL     OW32925  11.998   3.209   4.316
10384SOL    HW132926  12.021   3.131   4.265
10384SOL    HW232927  12.010   3.183   4.407
10385SOL     OW32928   4.616   9.894   0.957
10385SOL    HW132929   4.626   9.874   0.864
10385SOL    HW232930   4.624   9.989   0.962
10386SOL     OW32931  10.748   0.300   9.341
10386SOL    HW132932  10.822   0.304   9.402
10386SOL    HW232933  10.761   0.374   9.282
10387SOL     OW32934   3.979   8.706  14.187
10387SOL    HW132935   4.054   8.692  14.129
10387SOL    HW232936   3.973   8.625  14.238
10388SOL     OW32937   6.428   4.772   1.943
10388SOL    HW132938   6.508   4.764   1.995
10388SOL    HW232939   6.358   4.774   2.007
10389SOL     OW32940   9.176  14.350   7.050
10389SOL    HW132941   9.101  14.303   7.086
10389SOL    HW232942   9.175  14.435   7.094
10390SOL     OW32943   0.105   7.752  13.834
10390SOL    HW132944   0.103   7.663  13.799
10390SOL    HW232945   0.084   7.742  13.927
10391SOL     OW32946   6.445   7.455  14.660
10391SOL    HW132947   6.376   7.412  14.712
10391SOL    HW232948   6.495   7.505  14.725
10392SOL     OW32949   1.898   9.717  11.992
10392SOL    HW132950   1.878   9.759  12.075
10392SOL    HW232951   1.879   9.624  12.007
10393SOL     OW32952  14.848  13.797   8.794
10393SOL    HW132953  14.842  13.717   8.846
10393SOL    HW232954  14.809  13.864   8.849
10394SOL     OW32955   8.921   1.730  13.336
10394SOL    HW132956   8.847   1.684  13.374
10394SOL    HW232957   8.969   1.663  13.287
10395SOL     OW32958  14.057   5.505  10.724
10395SOL    HW132959  14.037   5.465  10.639
10395SOL    HW232960  13.974   5.543  10.753
10396SOL     OW32961   9.863   5.247   4.127
10396SOL    HW132962   9.781   5.249   4.078
10396SOL    HW232963   9.898   5.159   4.113
10397SOL     OW32964   6.749   7.159  12.331
10397SOL    HW132965   6.740   7.206  12.414
10397SOL    HW232966   6.692   7.206  12.271
10398SOL     OW32967   6.198   8.749   9.458
10398SOL    HW132968   6.136   8.678   9.441
10398SOL    HW232969   6.157   8.800   9.528
10399SOL     OW32970   1.322   0.464   2.517
10399SOL    HW132971   1.363   0.428   2.595
10399SOL    HW232972   1.390   0.458   2.449
10400SOL     OW32973   2.423   2.237  13.719
10400SOL    HW132974   2.454   2.289  13.644
10400SOL    HW232975   2.402   2.303  13.786
10401SOL     OW32976   4.424   8.396  11.787
10401SOL    HW132977   4.384   8.309  11.788
10401SOL    HW232978   4.368   8.449  11.843
10402SOL     OW32979   9.759  11.991   3.945
10402SOL    HW132980   9.703  12.014   3.872
10402SOL    HW232981   9.777  12.074   3.989
10403SOL     OW32982   0.559  10.387   7.737
10403SOL    HW132983   0.475  10.421   7.710
10403SOL    HW232984   0.541  10.343   7.821
10404SOL     OW32985   3.800   1.048   1.792
10404SOL    HW132986   3.885   1.048   1.748
10404SOL    HW232987   3.821   1.054   1.885
10405SOL     OW32988   7.986   9.886  13.411
10405SOL    HW132989   8.000   9.909  13.319
10405SOL    HW232990   8.041   9.947  13.460
10406SOL     OW32991   0.026   7.661   3.527
10406SOL    HW132992   0.115   7.692   3.513
10406SOL    HW232993  14.869   7.646   3.440
10407SOL     OW32994   9.000  13.322  10.570
10407SOL    HW132995   8.914  13.284  10.556
10407SOL    HW232996   9.025  13.358  10.484
10408SOL     OW32997  13.626   5.624  11.682
10408SOL    HW132998  13.684   5.645  11.755
10408SOL    HW232999  13.560   5.565  11.719
10409SOL     OW33000   4.413  12.850   9.701
10409SOL    HW133001   4.334  12.898   9.726
10409SOL    HW233002   4.385  12.759   9.697
10410SOL     OW33003   8.148   1.708   6.516
10410SOL    HW133004   8.152   1.771   6.588
10410SOL    HW233005   8.061   1.668   6.524
10411SOL     OW33006   4.575   4.164   2.385
10411SOL    HW133007   4.521   4.199   2.314
10411SOL    HW233008   4.638   4.107   2.341
10412SOL     OW33009   5.433   9.777   8.019
10412SOL    HW133010   5.380   9.699   8.002
10412SOL    HW233011   5.416   9.797   8.112
10413SOL     OW33012  12.622   5.914  13.053
10413SOL    HW133013  12.545   5.920  12.996
10413SOL    HW233014  12.694   5.949  13.001
10414SOL     OW33015   3.850   1.384   2.981
10414SOL    HW133016   3.868   1.336   2.901
10414SOL    HW233017   3.771   1.434   2.962
10415SOL     OW33018   9.822  11.338   5.559
10415SOL    HW133019   9.894  11.277   5.578
10415SOL    HW233020   9.762  11.327   5.632
10416SOL     OW33021   3.412  13.491   8.812
10416SOL    HW133022   3.357  13.536   8.876
10416SOL    HW233023   3.498  13.485   8.853
10417SOL     OW33024   5.201  10.010  12.090
10417SOL    HW133025   5.217  10.075  12.158
10417SOL    HW233026   5.273  10.021  12.029
10418SOL     OW33027  14.438   6.344  14.528
10418SOL    HW133028  14.385   6.410  14.483
10418SOL    HW233029  14.519   6.390  14.550
10419SOL     OW33030   1.319   6.323  10.299
10419SOL    HW133031   1.370   6.251  10.336
10419SOL    HW233032   1.228   6.294  10.307
10420SOL     OW33033   4.856   2.232  11.702
10420SOL    HW133034   4.823   2.237  11.613
10420SOL    HW233035   4.952   2.231  11.693
10421SOL     OW33036   9.445  10.514   8.444
10421SOL    HW133037   9.483  10.432   8.411
10421SOL    HW233038   9.521  10.565   8.475
10422SOL     OW33039   7.098   4.634  10.617
10422SOL    HW133040   7.137   4.668  10.537
10422SOL    HW233041   7.165   4.648  10.684
10423SOL     OW33042  13.514   0.350   7.261
10423SOL    HW133043  13.597   0.343   7.214
10423SOL    HW233044  13.448   0.349   7.193
10424SOL     OW33045  13.400  10.833   7.027
10424SOL    HW133046  13.392  10.928   7.034
10424SOL    HW233047  13.414  10.817   6.934
10425SOL     OW33048   5.873  10.192   1.812
10425SOL    HW133049   5.850  10.284   1.828
10425SOL    HW233050   5.933  10.170   1.883
10426SOL     OW33051   9.476  12.209  13.757
10426SOL    HW133052   9.453  12.149  13.828
10426SOL    HW233053   9.553  12.169  13.716
10427SOL     OW33054  12.367  13.882  12.757
10427SOL    HW133055  12.377  13.887  12.852
10427SOL    HW233056  12.318  13.800  12.743
10428SOL     OW33057   8.737   6.511  10.977
10428SOL    HW133058   8.649   6.538  10.950
10428SOL    HW233059   8.794   6.583  10.951
10429SOL     OW33060   2.398  10.718   8.999
10429SOL    HW133061   2.376  10.809   9.017
10429SOL    HW233062   2.426  10.717   8.907
10430SOL     OW33063   5.729   5.527  11.956
10430SOL    HW133064   5.681   5.546  12.037
10430SOL    HW233065   5.672   5.560  11.887
10431SOL     OW33066  14.033  12.160   0.199
10431SOL    HW133067  13.974  12.197   0.132
10431SOL    HW233068  13.983  12.089   0.238
10432SOL     OW33069  11.918   7.662  12.771
10432SOL    HW133070  11.983   7.732  12.782
10432SOL    HW233071  11.916   7.618  12.856
10433SOL     OW33072   6.230   1.695   9.053
10433SOL    HW133073   6.285   1.617   9.046
10433SOL    HW233074   6.267   1.744   9.126
10434SOL     OW33075   0.462  10.295  11.567
10434SOL    HW133076   0.452  10.207  11.531
10434SOL    HW233077   0.506  10.281  11.651
10435SOL     OW33078  13.259   5.025   5.030
10435SOL    HW133079  13.202   4.950   5.011
10435SOL    HW233080  13.348   4.988   5.030
10436SOL     OW33081   1.147   5.488  14.600
10436SOL    HW133082   1.076   5.430  14.625
10436SOL    HW233083   1.107   5.575  14.597
10437SOL     OW33084   0.855   3.760   6.668
10437SOL    HW133085   0.819   3.758   6.756
10437SOL    HW233086   0.915   3.685   6.664
10438SOL     OW33087  10.741   5.367  10.001
10438SOL    HW133088  10.721   5.423   9.926
10438SOL    HW233089  10.833   5.386  10.020
10439SOL     OW33090   1.233   3.882   5.201
10439SOL    HW133091   1.144   3.902   5.171
10439SOL    HW233092   1.235   3.916   5.291
10440SOL     OW33093   4.007   6.259   2.787
10440SOL    HW133094   3.990   6.351   2.805
10440SOL    HW233095   4.050   6.259   2.701
10441SOL     OW33096   9.358   9.820  14.571
10441SOL    HW133097   9.422   9.751  14.551
10441SOL    HW233098   9.399   9.873  14.638
10442SOL     OW33099  12.346   1.304  10.548
10442SOL    HW133100  12.368   1.224  10.595
10442SOL    HW233101  12.348   1.373  10.614
10443SOL     OW33102   9.589  10.396   0.150
10443SOL    HW133103   9.571  10.384   0.056
10443SOL    HW233104   9.505  10.379   0.193
10444SOL     OW33105   5.881   9.684  14.278
10444SOL    HW133106   5.895   9.602  14.326
10444SOL    HW233107   5.822   9.660  14.206
10445SOL     OW33108  14.075   2.906  11.999
10445SOL    HW133109  14.104   2.874  11.914
10445SOL    HW233110  13.992   2.861  12.015
10446SOL     OW33111  10.374   0.686   5.050
10446SOL    HW133112  10.422   0.759   5.011
10446SOL    HW233113  10.387   0.613   4.990
10447SOL     OW33114   5.717  10.553  13.159
10447SOL    HW133115   5.718  10.562  13.064
10447SOL    HW233116   5.808  10.534  13.183
10448SOL     OW33117   1.891   0.403   6.538
10448SOL    HW133118   1.847   0.324   6.569
10448SOL    HW233119   1.823   0.452   6.490
10449SOL     OW33120   0.500  13.542   2.360
10449SOL    HW133121   0.540  13.627   2.342
10449SOL    HW233122   0.483  13.543   2.454
10450SOL     OW33123   8.686   0.261   1.983
10450SOL    HW133124   8.762   0.280   1.927
10450SOL    HW233125   8.642   0.345   1.992
10451SOL     OW33126  14.484  14.061   2.029
10451SOL    HW133127  14.414  14.125   2.015
10451SOL    HW233128  14.489  14.013   1.946
10452SOL     OW33129   6.175   6.312  11.051
10452SOL    HW133130   6.232   6.298  11.127
10452SOL    HW233131   6.233   6.300  10.976
10453SOL     OW33132   1.788  13.617   1.713
10453SOL    HW133133   1.785  13.521   1.707
10453SOL    HW233134   1.703  13.641   1.750
10454SOL     OW33135   2.863   6.133   6.203
10454SOL    HW133136   2.822   6.113   6.119
10454SOL    HW233137   2.802   6.097   6.268
10455SOL     OW33138  10.826  12.034   1.882
10455SOL    HW133139  10.901  11.977   1.893
10455SOL    HW233140  10.812  12.039   1.788
10456SOL     OW33141   5.058   7.714   2.349
10456SOL    HW133142   5.099   7.630   2.332
10456SOL    HW233143   5.094   7.772   2.282
10457SOL     OW33144  12.025  13.217   4.701
10457SOL    HW133145  12.046  13.209   4.794
10457SOL    HW233146  12.019  13.127   4.669
10458SOL     OW33147   9.362  14.563  11.673
10458SOL    HW133148   9.319  14.551  11.588
10458SOL    HW233149   9.413  14.643  11.663
10459SOL     OW33150   6.292   9.377   0.840
10459SOL    HW133151   6.272   9.415   0.926
10459SOL    HW233152   6.383   9.350   0.847
10460SOL     OW33153  11.932  11.412   2.777
10460SOL    HW133154  11.984  11.491   2.796
10460SOL    HW233155  11.997  11.348   2.748
10461SOL     OW33156  14.295   7.852   5.600
10461SOL    HW133157  14.243   7.904   5.539
10461SOL    HW233158  14.235   7.784   5.630
10462SOL     OW33159  12.216  10.487   6.508
10462SOL    HW133160  12.170  10.547   6.449
10462SOL    HW233161  12.307  10.490   6.478
10463SOL     OW33162  14.672   1.737  14.119
10463SOL    HW133163  14.749   1.717  14.065
10463SOL    HW233164  14.609   1.669  14.097
10464SOL     OW33165  14.424   2.624   4.629
10464SOL    HW133166  14.404   2.533   4.606
10464SOL    HW233167  14.468   2.659   4.552
10465SOL     OW33168   9.558   5.378   4.312
10465SOL    HW133169   9.595   5.330   4.386
10465SOL    HW233170   9.628   5.436   4.282
10466SOL     OW33171   7.662   0.482   9.568
10466SOL    HW133172   7.584   0.531   9.595
10466SOL    HW233173   7.655   0.477   9.473
10467SOL     OW33174  14.385   8.451   3.013
10467SOL    HW133175  14.406   8.523   3.072
10467SOL    HW233176  14.302   8.475   2.973
10468SOL     OW33177   5.023   7.667   2.600
10468SOL    HW133178   4.950   7.610   2.623
10468SOL    HW233179   5.022   7.671   2.505
10469SOL     OW33180   3.920   8.471  11.277
10469SOL    HW133181   3.851   8.406  11.264
10469SOL    HW233182   3.964   8.442  11.357
10470SOL     OW33183   3.728   5.105   0.949
10470SOL    HW133184   3.723   5.041   1.019
10470SOL    HW233185   3.638   5.113   0.917
10471SOL     OW33186   5.969   4.382   9.366
10471SOL    HW133187   6.057   4.347   9.361
10471SOL    HW233188   5.960   4.436   9.287
10472SOL     OW33189   2.175   2.822   8.029
10472SOL    HW133190   2.230   2.862   8.096
10472SOL    HW233191   2.160   2.892   7.966
10473SOL     OW33192   8.883   4.205   5.802
10473SOL    HW133193   8.953   4.191   5.866
10473SOL    HW233194   8.923   4.262   5.736
10474SOL     OW33195   9.435  11.127  13.649
10474SOL    HW133196   9.481  11.154  13.570
10474SOL    HW233197   9.381  11.053  13.621
10475SOL     OW33198   6.943  13.893   1.640
10475SOL    HW133199   6.984  13.864   1.559
10475SOL    HW233200   7.015  13.895   1.704
10476SOL     OW33201  12.338  14.000   5.615
10476SOL    HW133202  12.259  13.964   5.576
10476SOL    HW233203  12.410  13.962   5.563
10477SOL     OW33204   8.981   7.063   2.684
10477SOL    HW133205   8.933   6.997   2.735
10477SOL    HW233206   8.914   7.122   2.651
10478SOL     OW33207   1.864  10.093  14.025
10478SOL    HW133208   1.788  10.149  14.041
10478SOL    HW233209   1.831  10.004  14.035
10479SOL     OW33210   2.260   9.099   9.175
10479SOL    HW133211   2.352   9.084   9.199
10479SOL    HW233212   2.257   9.081   9.081
10480SOL     OW33213   0.997   1.174  13.036
10480SOL    HW133214   0.920   1.218  13.000
10480SOL    HW233215   1.001   1.202  13.127
10481SOL     OW33216   3.223  10.680   8.479
10481SOL    HW133217   3.264  10.597   8.505
10481SOL    HW233218   3.222  10.732   8.559
10482SOL     OW33219   2.431   9.116   1.909
10482SOL    HW133220   2.368   9.091   1.842
10482SOL    HW233221   2.469   9.034   1.939
10483SOL     OW33222   2.646  12.773  10.191
10483SOL    HW133223   2.623  12.835  10.121
10483SOL    HW233224   2.607  12.811  10.270
10484SOL     OW33225   1.446   7.651   6.525
10484SOL    HW133226   1.397   7.578   6.489
10484SOL    HW233227   1.395   7.680   6.600
10485SOL     OW33228   1.698  12.206  11.738
10485SOL    HW133229   1.635  12.187  11.669
10485SOL    HW233230   1.783  12.202  11.694
10486SOL     OW33231   0.028   8.542   4.829
10486SOL    HW133232   0.084   8.501   4.763
10486SOL    HW233233   0.087   8.597   4.880
10487SOL     OW33234  11.759  11.929  10.189
10487SOL    HW133235  11.724  11.844  10.166
10487SOL    HW233236  11.793  11.964  10.106
10488SOL     OW33237  14.425   9.204   7.443
10488SOL    HW133238  14.453   9.293   7.465
10488SOL    HW233239  14.472   9.148   7.505
10489SOL     OW33240   2.493  12.996   6.721
10489SOL    HW133241   2.411  13.025   6.760
10489SOL    HW233242   2.557  13.004   6.791
10490SOL     OW33243   8.246  10.582   1.233
10490SOL    HW133244   8.306  10.654   1.250
10490SOL    HW233245   8.220  10.551   1.320
10491SOL     OW33246  10.408  13.526  10.449
10491SOL    HW133247  10.413  13.509  10.543
10491SOL    HW233248  10.320  13.498  10.424
10492SOL     OW33249  10.094   9.370   8.874
10492SOL    HW133250  10.082   9.276   8.889
10492SOL    HW233251  10.134   9.376   8.787
10493SOL     OW33252   3.525   2.469  10.231
10493SOL    HW133253   3.531   2.387  10.182
10493SOL    HW233254   3.610   2.512  10.217
10494SOL     OW33255   8.468   3.937  12.562
10494SOL    HW133256   8.463   3.863  12.501
10494SOL    HW233257   8.478   4.014  12.506
10495SOL     OW33258   5.704   2.078   3.551
10495SOL    HW133259   5.686   1.984   3.548
10495SOL    HW233260   5.642   2.117   3.490
10496SOL     OW33261   0.175   7.199   6.413
10496SOL    HW133262   0.226   7.251   6.476
10496SOL    HW233263   0.122   7.141   6.468
10497SOL     OW33264   9.619   9.852   3.434
10497SOL    HW133265   9.622   9.812   3.347
10497SOL    HW233266   9.527   9.847   3.459
10498SOL     OW33267   4.086   5.447  13.763
10498SOL    HW133268   4.163   5.392  13.776
10498SOL    HW233269   4.069   5.443  13.669
10499SOL     OW33270  10.640  13.321   4.592
10499SOL    HW133271  10.651  13.237   4.548
10499SOL    HW233272  10.583  13.303   4.667
10500SOL     OW33273   0.525  10.245   8.294
10500SOL    HW133274   0.522  10.315   8.230
10500SOL    HW233275   0.593  10.272   8.356
10501SOL     OW33276   5.570   7.679  12.281
10501SOL    HW133277   5.502   7.655  12.344
10501SOL    HW233278   5.590   7.598  12.234
10502SOL     OW33279  13.901   5.286  13.064
10502SOL    HW133280  13.994   5.266  13.060
10502SOL    HW233281  13.864   5.246  12.985
10503SOL     OW33282   3.487   8.483  11.484
10503SOL    HW133283   3.526   8.523  11.562
10503SOL    HW233284   3.400   8.522  11.478
10504SOL     OW33285  14.739   2.719  10.228
10504SOL    HW133286  14.745   2.803  10.274
10504SOL    HW233287  14.801   2.662  10.274
10505SOL     OW33288   5.760   6.148   1.057
10505SOL    HW133289   5.731   6.098   1.133
10505SOL    HW233290   5.705   6.117   0.985
10506SOL     OW33291   3.545   6.649   1.400
10506SOL    HW133292   3.502   6.582   1.346
10506SOL    HW233293   3.554   6.725   1.341
10507SOL     OW33294   9.993  12.685  10.844
10507SOL    HW133295   9.915  12.734  10.818
10507SOL    HW233296  10.023  12.728  10.924
10508SOL     OW33297   5.578   4.160   1.394
10508SOL    HW133298   5.624   4.207   1.464
10508SOL    HW233299   5.516   4.103   1.440
10509SOL     OW33300   9.403  10.354  14.411
10509SOL    HW133301   9.406  10.439  14.455
10509SOL    HW233302   9.482  10.351  14.357
10510SOL     OW33303   2.429  13.393  14.724
10510SOL    HW133304   2.479  13.316  14.749
10510SOL    HW233305   2.389  13.371  14.641
10511SOL     OW33306   8.269  11.524   5.883
10511SOL    HW133307   8.286  11.527   5.977
10511SOL    HW233308   8.356  11.526   5.843
10512SOL     OW33309  12.547   0.520   9.645
10512SOL    HW133310  12.613   0.454   9.669
10512SOL    HW233311  12.594   0.581   9.588
10513SOL     OW33312   5.844   5.497  12.709
10513SOL    HW133313   5.856   5.495  12.615
10513SOL    HW233314   5.931   5.485  12.746
10514SOL     OW33315   1.287  13.342   7.662
10514SOL    HW133316   1.309  13.264   7.611
10514SOL    HW233317   1.192  13.338   7.673
10515SOL     OW33318   1.479   8.395   4.290
10515SOL    HW133319   1.386   8.407   4.274
10515SOL    HW233320   1.520   8.474   4.253
10516SOL     OW33321  10.960   8.614   8.834
10516SOL    HW133322  10.955   8.525   8.799
10516SOL    HW233323  10.914   8.668   8.770
10517SOL     OW33324   8.868   3.358   9.502
10517SOL    HW133325   8.941   3.416   9.524
10517SOL    HW233326   8.897   3.272   9.533
10518SOL     OW33327  10.821   4.706   0.286
10518SOL    HW133328  10.789   4.788   0.249
10518SOL    HW233329  10.835   4.725   0.379
10519SOL     OW33330  12.411  14.545   0.850
10519SOL    HW133331  12.365  14.470   0.888
10519SOL    HW233332  12.467  14.506   0.782
10520SOL     OW33333  12.305   5.339  12.867
10520SOL    HW133334  12.213   5.334  12.893
10520SOL    HW233335  12.353   5.314  12.945
10521SOL     OW33336   0.353  12.945  13.172
10521SOL    HW133337   0.319  12.876  13.115
10521SOL    HW233338   0.447  12.942  13.159
10522SOL     OW33339  14.250   6.035  14.209
10522SOL    HW133340  14.206   5.953  14.231
10522SOL    HW233341  14.208   6.065  14.129
10523SOL     OW33342  14.610   0.308  13.150
10523SOL    HW133343  14.548   0.237  13.136
10523SOL    HW233344  14.626   0.344  13.063
10524SOL     OW33345  10.790  11.674   9.010
10524SOL    HW133346  10.792  11.579   9.023
10524SOL    HW233347  10.700  11.699   9.033
10525SOL     OW33348   3.271   0.916   0.198
10525SOL    HW133349   3.181   0.885   0.215
10525SOL    HW233350   3.282   0.907   0.104
10526SOL     OW33351  13.804   3.422  12.973
10526SOL    HW133352  13.817   3.412  12.878
10526SOL    HW233353  13.712   3.445  12.982
10527SOL     OW33354   4.330  11.004  11.627
10527SOL    HW133355   4.398  11.070  11.617
10527SOL    HW233356   4.267  11.043  11.687
10528SOL     OW33357   9.063   8.529   1.378
10528SOL    HW133358   9.082   8.576   1.460
10528SOL    HW233359   8.972   8.549   1.360
10529SOL     OW33360   5.548  14.642   7.877
10529SOL    HW133361   5.643  14.655   7.882
10529SOL    HW233362   5.511  14.718   7.922
10530SOL     OW33363   2.089   5.064   1.571
10530SOL    HW133364   2.015   5.100   1.522
10530SOL    HW233365   2.165   5.081   1.517
10531SOL     OW33366   8.840   6.744   5.827
10531SOL    HW133367   8.756   6.784   5.804
10531SOL    HW233368   8.879   6.806   5.889
10532SOL     OW33369   4.033  12.754   0.865
10532SOL    HW133370   4.003  12.667   0.838
10532SOL    HW233371   4.083  12.738   0.945
10533SOL     OW33372   9.674   1.395   9.652
10533SOL    HW133373   9.580   1.384   9.663
10533SOL    HW233374   9.684   1.441   9.569
10534SOL     OW33375  10.673   7.690   9.340
10534SOL    HW133376  10.747   7.742   9.309
10534SOL    HW233377  10.709   7.637   9.411
10535SOL     OW33378  11.798   9.140  13.184
10535SOL    HW133379  11.825   9.096  13.265
10535SOL    HW233380  11.834   9.229  13.193
10536SOL     OW33381   4.302   3.057  13.176
10536SOL    HW133382   4.298   2.970  13.218
10536SOL    HW233383   4.216   3.068  13.136
10537SOL     OW33384  14.730   5.099   5.599
10537SOL    HW133385  14.799   5.147   5.555
10537SOL    HW233386  14.674   5.166   5.639
10538SOL     OW33387   4.986  13.669  14.393
10538SOL    HW133388   4.911  13.658  14.334
10538SOL    HW233389   5.007  13.763  14.387
10539SOL     OW33390   7.592   5.517   4.722
10539SOL    HW133391   7.551   5.572   4.788
10539SOL    HW233392   7.570   5.558   4.638
10540SOL     OW33393  12.469  11.795   6.897
10540SOL    HW133394  12.394  11.737   6.879
10540SOL    HW233395  12.527  11.783   6.822
10541SOL     OW33396   4.789  11.096  10.396
10541SOL    HW133397   4.737  11.156  10.343
10541SOL    HW233398   4.850  11.152  10.444
10542SOL     OW33399  14.011   0.557   9.470
10542SOL    HW133400  14.104   0.572   9.454
10542SOL    HW233401  13.995   0.593   9.557
10543SOL     OW33402   5.663   2.354  14.039
10543SOL    HW133403   5.631   2.348  13.949
10543SOL    HW233404   5.705   2.440  14.044
10544SOL     OW33405   3.480   0.728   0.317
10544SOL    HW133406   3.411   0.779   0.274
10544SOL    HW233407   3.541   0.706   0.247
10545SOL     OW33408   3.581   4.740  12.461
10545SOL    HW133409   3.621   4.654  12.448
10545SOL    HW233410   3.488   4.726  12.442
10546SOL     OW33411  12.493   5.335   6.705
10546SOL    HW133412  12.583   5.306   6.718
10546SOL    HW233413  12.471   5.308   6.616
10547SOL     OW33414   5.887   5.657   0.406
10547SOL    HW133415   5.951   5.589   0.430
10547SOL    HW233416   5.836   5.671   0.485
10548SOL     OW33417   8.068   6.210   8.703
10548SOL    HW133418   8.132   6.245   8.765
10548SOL    HW233419   8.102   6.234   8.617
10549SOL     OW33420   9.891   3.968  11.227
10549SOL    HW133421   9.918   3.985  11.317
10549SOL    HW233422   9.796   3.981  11.227
10550SOL     OW33423  13.999   3.624   4.370
10550SOL    HW133424  14.090   3.599   4.387
10550SOL    HW233425  14.005   3.712   4.333
10551SOL     OW33426   4.081   6.158   7.138
10551SOL    HW133427   4.175   6.172   7.130
10551SOL    HW233428   4.049   6.238   7.180
10552SOL     OW33429   6.040  12.167   2.093
10552SOL    HW133430   6.050  12.073   2.076
10552SOL    HW233431   5.968  12.172   2.155
10553SOL     OW33432  11.227  13.814  13.255
10553SOL    HW133433  11.252  13.722  13.246
10553SOL    HW233434  11.167  13.816  13.328
10554SOL     OW33435   4.171   4.476  13.233
10554SOL    HW133436   4.233   4.455  13.303
10554SOL    HW233437   4.181   4.404  13.170
10555SOL     OW33438   1.875   7.414   9.814
10555SOL    HW133439   1.953   7.469   9.812
10555SOL    HW233440   1.807   7.471   9.850
10556SOL     OW33441   4.555  12.824   5.154
10556SOL    HW133442   4.484  12.760   5.161
10556SOL    HW233443   4.625  12.777   5.109
10557SOL     OW33444  10.528   9.967   0.348
10557SOL    HW133445  10.592  10.025   0.307
10557SOL    HW233446  10.577   9.919   0.414
10558SOL     OW33447   4.080   9.693   3.968
10558SOL    HW133448   4.084   9.655   3.880
10558SOL    HW233449   4.164   9.738   3.978
10559SOL     OW33450  14.753   2.713   0.913
10559SOL    HW133451  14.700   2.722   0.834
10559SOL    HW233452  14.693   2.678   0.978
10560SOL     OW33453   2.652   6.077   4.363
10560SOL    HW133454   2.712   6.082   4.288
10560SOL    HW233455   2.591   6.007   4.339
10561SOL     OW33456   8.207   1.460   6.671
10561SOL    HW133457   8.178   1.388   6.614
10561SOL    HW233458   8.132   1.480   6.726
10562SOL     OW33459   9.175  11.958  14.238
10562SOL    HW133460   9.245  11.893  14.232
10562SOL    HW233461   9.189  12.016  14.163
10563SOL     OW33462  10.542   7.393  14.706
10563SOL    HW133463  10.545   7.298  14.720
10563SOL    HW233464  10.459   7.407  14.660
10564SOL     OW33465   2.969   1.290  11.323
10564SOL    HW133466   2.924   1.269  11.241
10564SOL    HW233467   2.991   1.204  11.360
10565SOL     OW33468   5.857  14.853   8.416
10565SOL    HW133469   5.880  14.855   8.323
10565SOL    HW233470   5.802  14.775   8.425
10566SOL     OW33471   9.662   0.497   8.483
10566SOL    HW133472   9.691   0.505   8.392
10566SOL    HW233473   9.674   0.585   8.519
10567SOL     OW33474  14.625  13.524   3.617
10567SOL    HW133475  14.598  13.485   3.534
10567SOL    HW233476  14.681  13.459   3.658
10568SOL     OW33477  14.395   6.528   6.247
10568SOL    HW133478  14.466   6.584   6.280
10568SOL    HW233479  14.321   6.548   6.304
10569SOL     OW33480   9.808   6.790   2.432
10569SOL    HW133481   9.719   6.816   2.410
10569SOL    HW233482   9.845   6.758   2.350
10570SOL     OW33483   6.650   5.175   7.083
10570SOL    HW133484   6.714   5.178   7.154
10570SOL    HW233485   6.590   5.104   7.107
10571SOL     OW33486   8.514   2.577  10.878
10571SOL    HW133487   8.493   2.606  10.967
10571SOL    HW233488   8.494   2.483  10.878
10572SOL     OW33489   9.743   9.835  10.856
10572SOL    HW133490   9.715   9.849  10.946
10572SOL    HW233491   9.676   9.778  10.818
10573SOL     OW33492  12.255   3.746  10.360
10573SOL    HW133493  12.295   3.803  10.294
10573SOL    HW233494  12.203   3.806  10.415
10574SOL     OW33495   0.360   2.243  14.617
10574SOL    HW133496   0.334   2.270  14.530
10574SOL    HW233497   0.380   2.150  14.609
10575SOL     OW33498   8.431   9.451  11.286
10575SOL    HW133499   8.471   9.379  11.335
10575SOL    HW233500   8.505   9.499  11.249
10576SOL     OW33501   3.371  14.440   9.267
10576SOL    HW133502   3.314  14.462   9.340
10576SOL    HW233503   3.327  14.369   9.221
10577SOL     OW33504   3.585  10.608  11.841
10577SOL    HW133505   3.653  10.607  11.774
10577SOL    HW233506   3.507  10.640  11.796
10578SOL     OW33507   6.539   5.265  10.146
10578SOL    HW133508   6.578   5.242  10.061
10578SOL    HW233509   6.614   5.294  10.198
10579SOL     OW33510   8.065  10.715   6.097
10579SOL    HW133511   8.018  10.796   6.079
10579SOL    HW233512   7.998  10.646   6.087
10580SOL     OW33513  10.385   3.158   7.175
10580SOL    HW133514  10.348   3.079   7.137
10580SOL    HW233515  10.409   3.133   7.265
10581SOL     OW33516   0.037   8.776   7.663
10581SOL    HW133517  14.858   8.801   7.736
10581SOL    HW233518   0.044   8.855   7.610
10582SOL     OW33519  10.062   9.047   3.897
10582SOL    HW133520  10.114   9.120   3.864
10582SOL    HW233521   9.977   9.056   3.853
10583SOL     OW33522   4.778   0.583  13.721
10583SOL    HW133523   4.707   0.545  13.773
10583SOL    HW233524   4.848   0.600  13.785
10584SOL     OW33525   5.797  12.279   0.585
10584SOL    HW133526   5.848  12.295   0.664
10584SOL    HW233527   5.712  12.248   0.618
10585SOL     OW33528  13.123   7.653  11.124
10585SOL    HW133529  13.166   7.684  11.043
10585SOL    HW233530  13.141   7.559  11.126
10586SOL     OW33531  11.929   3.939   2.279
10586SOL    HW133532  12.014   3.984   2.275
10586SOL    HW233533  11.940   3.862   2.224
10587SOL     OW33534   2.953   2.401  13.188
10587SOL    HW133535   3.021   2.341  13.217
10587SOL    HW233536   2.932   2.454  13.265
10588SOL     OW33537   6.342   5.895   0.158
10588SOL    HW133538   6.312   5.883   0.248
10588SOL    HW233539   6.437   5.880   0.162
10589SOL     OW33540   0.614   5.558   9.981
10589SOL    HW133541   0.549   5.551  10.051
10589SOL    HW233542   0.627   5.468   9.952
10590SOL     OW33543   8.911  11.327   6.625
10590SOL    HW133544   8.838  11.383   6.652
10590SOL    HW233545   8.901  11.320   6.530
10591SOL     OW33546  11.672   4.635   7.697
10591SOL    HW133547  11.681   4.564   7.632
10591SOL    HW233548  11.648   4.590   7.778
10592SOL     OW33549  14.044   3.543   4.053
10592SOL    HW133550  13.975   3.560   4.118
10592SOL    HW233551  14.101   3.620   4.057
10593SOL     OW33552   6.836  14.365   1.189
10593SOL    HW133553   6.873  14.412   1.263
10593SOL    HW233554   6.764  14.420   1.159
10594SOL     OW33555   2.856   8.281   0.497
10594SOL    HW133556   2.890   8.287   0.407
10594SOL    HW233557   2.776   8.333   0.495
10595SOL     OW33558   0.770   7.817  11.858
10595SOL    HW133559   0.684   7.782  11.882
10595SOL    HW233560   0.761   7.911  11.870
10596SOL     OW33561   8.163   1.239   2.144
10596SOL    HW133562   8.140   1.329   2.169
10596SOL    HW233563   8.094   1.213   2.083
10597SOL     OW33564   4.038   3.851   2.654
10597SOL    HW133565   4.084   3.812   2.728
10597SOL    HW233566   3.969   3.903   2.694
10598SOL     OW33567   2.286   9.332   0.595
10598SOL    HW133568   2.210   9.281   0.565
10598SOL    HW233569   2.267   9.421   0.567
10599SOL     OW33570  12.090   1.955   7.619
10599SOL    HW133571  12.099   1.865   7.589
10599SOL    HW233572  12.040   1.999   7.550
10600SOL     OW33573   2.310  12.018   8.511
10600SOL    HW133574   2.379  12.021   8.444
10600SOL    HW233575   2.300  12.109   8.539
10601SOL     OW33576  14.369   8.804   4.893
10601SOL    HW133577  14.411   8.881   4.855
10601SOL    HW233578  14.375   8.738   4.825
10602SOL     OW33579  11.084  11.343   8.895
10602SOL    HW133580  11.031  11.273   8.933
10602SOL    HW233581  11.027  11.381   8.828
10603SOL     OW33582   8.263   9.843   0.104
10603SOL    HW133583   8.333   9.829   0.168
10603SOL    HW233584   8.248   9.938   0.104
10604SOL     OW33585   5.284   0.357   4.266
10604SOL    HW133586   5.375   0.377   4.289
10604SOL    HW233587   5.239   0.350   4.351
10605SOL     OW33588   1.328  14.575   9.028
10605SOL    HW133589   1.279  14.651   8.997
10605SOL    HW233590   1.403  14.613   9.076
10606SOL     OW33591  14.709   6.164  13.609
10606SOL    HW133592  14.621   6.146  13.642
10606SOL    HW233593  14.757   6.083  13.622
10607SOL     OW33594   6.326   8.103  11.709
10607SOL    HW133595   6.266   8.155  11.657
10607SOL    HW233596   6.271   8.038  11.753
10608SOL     OW33597   6.823   0.843  10.423
10608SOL    HW133598   6.856   0.930  10.443
10608SOL    HW233599   6.880   0.811  10.353
10609SOL     OW33600   9.324   2.273  10.443
10609SOL    HW133601   9.271   2.351  10.427
10609SOL    HW233602   9.334   2.233  10.356
10610SOL     OW33603   6.198   3.058   7.118
10610SOL    HW133604   6.246   3.133   7.155
10610SOL    HW233605   6.106   3.082   7.125
10611SOL     OW33606   5.148  13.032   6.688
10611SOL    HW133607   5.107  13.049   6.773
10611SOL    HW233608   5.171  13.119   6.654
10612SOL     OW33609  14.723   2.737  10.696
10612SOL    HW133610  14.713   2.806  10.630
10612SOL    HW233611  14.818   2.723  10.701
10613SOL     OW33612  12.775  12.613   9.428
10613SOL    HW133613  12.751  12.628   9.519
10613SOL    HW233614  12.844  12.676   9.409
10614SOL     OW33615   4.490   6.087  11.349
10614SOL    HW133616   4.584   6.107  11.349
10614SOL    HW233617   4.459   6.123  11.266
10615SOL     OW33618   5.334   2.244  13.728
10615SOL    HW133619   5.283   2.287  13.797
10615SOL    HW233620   5.313   2.293  13.648
10616SOL     OW33621   7.833   9.043   0.728
10616SOL    HW133622   7.753   9.084   0.696
10616SOL    HW233623   7.809   8.952   0.745
10617SOL     OW33624   3.657  11.908  13.495
10617SOL    HW133625   3.626  11.962  13.568
10617SOL    HW233626   3.752  11.905  13.507
10618SOL     OW33627  13.282   9.488  13.067
10618SOL    HW133628  13.316   9.413  13.019
10618SOL    HW233629  13.245   9.545  12.999
10619SOL     OW33630   5.954   5.792   5.764
10619SOL    HW133631   5.949   5.733   5.839
10619SOL    HW233632   6.027   5.851   5.785
10620SOL     OW33633   4.892   3.164   9.054
10620SOL    HW133634   4.962   3.225   9.076
10620SOL    HW233635   4.886   3.166   8.959
10621SOL     OW33636   7.217   9.183   2.361
10621SOL    HW133637   7.167   9.264   2.352
10621SOL    HW233638   7.219   9.146   2.273
10622SOL     OW33639  14.234  10.032  12.936
10622SOL    HW133640  14.188   9.964  12.985
10622SOL    HW233641  14.309  10.054  12.990
10623SOL     OW33642  10.387  10.581   5.657
10623SOL    HW133643  10.417  10.523   5.587
10623SOL    HW233644  10.327  10.526   5.708
10624SOL     OW33645  10.598   4.739   4.194
10624SOL    HW133646  10.689   4.736   4.224
10624SOL    HW233647  10.598   4.809   4.128
10625SOL     OW33648  14.091   4.683   6.686
10625SOL    HW133649  14.028   4.713   6.621
10625SOL    HW233650  14.081   4.588   6.687
10626SOL     OW33651  12.547  13.612  13.962
10626SOL    HW133652  12.468  13.569  13.993
10626SOL    HW233653  12.567  13.570  13.878
10627SOL     OW33654   4.513   4.768  11.564
10627SOL    HW133655   4.597   4.795  11.528
10627SOL    HW233656   4.465   4.850  11.577
10628SOL     OW33657   5.707   7.495   8.405
10628SOL    HW133658   5.761   7.441   8.348
10628SOL    HW233659   5.704   7.580   8.361
10629SOL     OW33660   2.551   6.284   7.305
10629SOL    HW133661   2.617   6.242   7.249
10629SOL    HW233662   2.472   6.233   7.291
10630SOL     OW33663   6.060  10.232   4.329
10630SOL    HW133664   6.088  10.143   4.306
10630SOL    HW233665   6.098  10.287   4.261
10631SOL     OW33666   0.741  11.109   6.980
10631SOL    HW133667   0.730  11.101   7.075
10631SOL    HW233668   0.658  11.078   6.943
10632SOL     OW33669  13.323  14.242  14.398
10632SOL    HW133670  13.361  14.321  14.360
10632SOL    HW233671  13.230  14.262  14.409
10633SOL     OW33672   4.125  13.231   0.999
10633SOL    HW133673   4.157  13.297   0.938
10633SOL    HW233674   4.068  13.280   1.059
10634SOL     OW33675  12.078  13.837  10.595
10634SOL    HW133676  12.041  13.840  10.684
10634SOL    HW233677  12.052  13.921  10.556
10635SOL     OW33678   0.628   4.973   1.450
10635SOL    HW133679   0.623   5.029   1.373
10635SOL    HW233680   0.695   4.908   1.429
10636SOL     OW33681   5.783  12.040   2.424
10636SOL    HW133682   5.687  12.047   2.420
10636SOL    HW233683   5.808  12.104   2.491
10637SOL     OW33684   2.636   1.662  14.543
10637SOL    HW133685   2.547   1.656  14.508
10637SOL    HW233686   2.686   1.600  14.490
10638SOL     OW33687   7.580   1.073   6.074
10638SOL    HW133688   7.656   1.036   6.030
10638SOL    HW233689   7.613   1.153   6.115
10639SOL     OW33690  13.409   9.545   5.153
10639SOL    HW133691  13.450   9.536   5.239
10639SOL    HW233692  13.358   9.465   5.142
10640SOL     OW33693   5.923  11.221   3.077
10640SOL    HW133694   5.902  11.176   2.995
10640SOL    HW233695   6.014  11.199   3.094
10641SOL     OW33696   9.662  13.867  11.947
10641SOL    HW133697   9.657  13.774  11.927
10641SOL    HW233698   9.734  13.899  11.892
10642SOL     OW33699   8.250  12.375  14.780
10642SOL    HW133700   8.343  12.394  14.768
10642SOL    HW233701   8.207  12.460  14.775
10643SOL     OW33702   3.547   4.486   2.298
10643SOL    HW133703   3.569   4.410   2.352
10643SOL    HW233704   3.452   4.491   2.300
10644SOL     OW33705   3.024  13.804   7.852
10644SOL    HW133706   3.079  13.729   7.876
10644SOL    HW233707   2.975  13.824   7.932
10645SOL     OW33708   2.925   6.770   4.906
10645SOL    HW133709   2.935   6.822   4.827
10645SOL    HW233710   2.839   6.728   4.897
10646SOL     OW33711  13.682   1.316  10.520
10646SOL    HW133712  13.587   1.303  10.512
10646SOL    HW233713  13.703   1.381  10.453
10647SOL     OW33714   4.566  10.080  11.855
10647SOL    HW133715   4.564  10.118  11.767
10647SOL    HW233716   4.634  10.013  11.851
10648SOL     OW33717  12.276  13.990   7.655
10648SOL    HW133718  12.368  13.982   7.681
10648SOL    HW233719  12.268  13.934   7.578
10649SOL     OW33720   5.589   2.665  13.271
10649SOL    HW133721   5.532   2.588  13.265
10649SOL    HW233722   5.676   2.631  13.248
10650SOL     OW33723   8.378  10.610   9.406
10650SOL    HW133724   8.293  10.655   9.399
10650SOL    HW233725   8.411  10.637   9.492
10651SOL     OW33726   5.451  11.009  13.764
10651SOL    HW133727   5.456  10.989  13.857
10651SOL    HW233728   5.390  10.944  13.729
10652SOL     OW33729   9.797   9.365   5.757
10652SOL    HW133730   9.702   9.354   5.753
10652SOL    HW233731   9.826   9.306   5.827
10653SOL     OW33732  14.270  14.867  12.663
10653SOL    HW133733  14.300  14.829  12.580
10653SOL    HW233734  14.209   0.058  12.637
10654SOL     OW33735   4.872  12.552   8.599
10654SOL    HW133736   4.877  12.646   8.618
10654SOL    HW233737   4.951  12.516   8.641
10655SOL     OW33738   2.776   7.648   7.264
10655SOL    HW133739   2.824   7.717   7.219
10655SOL    HW233740   2.840   7.578   7.278
10656SOL     OW33741  13.907  13.078  12.535
10656SOL    HW133742  13.931  13.155  12.585
10656SOL    HW233743  13.811  13.076  12.538
10657SOL     OW33744  10.852  10.208  12.430
10657SOL    HW133745  10.889  10.294  12.449
10657SOL    HW233746  10.923  10.146  12.445
10658SOL     OW33747   1.361   2.901   3.449
10658SOL    HW133748   1.430   2.965   3.431
10658SOL    HW233749   1.370   2.880   3.542
10659SOL     OW33750   5.217   6.665  11.996
10659SOL    HW133751   5.133   6.620  11.994
10659SOL    HW233752   5.277   6.602  12.037
10660SOL     OW33753   4.054  11.012   9.223
10660SOL    HW133754   3.991  11.045   9.159
10660SOL    HW233755   4.115  10.959   9.173
10661SOL     OW33756   5.361  10.699  13.475
10661SOL    HW133757   5.301  10.731  13.407
10661SOL    HW233758   5.446  10.695  13.432
10662SOL     OW33759  13.622  13.631   6.471
10662SOL    HW133760  13.688  13.688   6.511
10662SOL    HW233761  13.655  13.542   6.486
10663SOL     OW33762  10.366   4.726   5.659
10663SOL    HW133763  10.315   4.736   5.579
10663SOL    HW233764  10.439   4.788   5.649
10664SOL     OW33765  13.238   8.083   4.208
10664SOL    HW133766  13.259   8.175   4.222
10664SOL    HW233767  13.285   8.060   4.127
10665SOL     OW33768   4.488  11.848   4.209
10665SOL    HW133769   4.526  11.763   4.231
10665SOL    HW233770   4.429  11.867   4.281
10666SOL     OW33771  11.624   3.433   4.887
10666SOL    HW133772  11.693   3.399   4.944
10666SOL    HW233773  11.670   3.494   4.828
10667SOL     OW33774  12.493  11.466  14.200
10667SOL    HW133775  12.506  11.486  14.108
10667SOL    HW233776  12.567  11.411  14.224
10668SOL     OW33777   9.375   3.109   4.438
10668SOL    HW133778   9.374   3.080   4.529
10668SOL    HW233779   9.349   3.032   4.388
10669SOL     OW33780   8.266   2.597  12.471
10669SOL    HW133781   8.214   2.529  12.430
10669SOL    HW233782   8.321   2.631  12.401
10670SOL     OW33783  10.871   9.151  11.092
10670SOL    HW133784  10.779   9.179  11.091
10670SOL    HW233785  10.867   9.058  11.115
10671SOL     OW33786   9.582   8.330  13.899
10671SOL    HW133787   9.612   8.323  13.990
10671SOL    HW233788   9.531   8.411  13.897
10672SOL     OW33789   3.316   6.233   9.751
10672SOL    HW133790   3.360   6.300   9.804
10672SOL    HW233791   3.273   6.282   9.681
10673SOL     OW33792   5.904   8.079  14.136
10673SOL    HW133793   5.929   8.039  14.053
10673SOL    HW233794   5.848   8.013  14.178
10674SOL     OW33795   9.462   4.953   7.019
10674SOL    HW133796   9.539   4.921   7.066
10674SOL    HW233797   9.436   4.880   6.963
10675SOL     OW33798  10.663   3.205  10.091
10675SOL    HW133799  10.675   3.169  10.003
10675SOL    HW233800  10.615   3.287  10.077
10676SOL     OW33801  13.569  14.617  13.835
10676SOL    HW133802  13.656  14.616  13.796
10676SOL    HW233803  13.524  14.543  13.795
10677SOL     OW33804   3.641  10.970   4.730
10677SOL    HW133805   3.680  11.056   4.741
10677SOL    HW233806   3.553  10.979   4.768
10678SOL     OW33807   6.659   1.834   8.069
10678SOL    HW133808   6.611   1.766   8.022
10678SOL    HW233809   6.592   1.878   8.122
10679SOL     OW33810   7.166  14.249  10.602
10679SOL    HW133811   7.114  14.168  10.605
10679SOL    HW233812   7.103  14.318  10.585
10680SOL     OW33813   1.195   0.776   6.377
10680SOL    HW133814   1.190   0.694   6.328
10680SOL    HW233815   1.288   0.798   6.378
10681SOL     OW33816   0.036  14.866   7.430
10681SOL    HW133817  14.840  14.867   7.371
10681SOL    HW233818  14.876  14.850   7.517
10682SOL     OW33819   2.845   9.827   1.235
10682SOL    HW133820   2.764   9.776   1.230
10682SOL    HW233821   2.850   9.871   1.150
10683SOL     OW33822   4.802   3.569   9.099
10683SOL    HW133823   4.764   3.484   9.076
10683SOL    HW233824   4.727   3.624   9.120
10684SOL     OW33825  13.053   6.269   3.765
10684SOL    HW133826  12.988   6.334   3.738
10684SOL    HW233827  13.132   6.320   3.784
10685SOL     OW33828  13.820   3.807   8.104
10685SOL    HW133829  13.796   3.715   8.116
10685SOL    HW233830  13.882   3.807   8.031
10686SOL     OW33831  10.366   1.862  13.916
10686SOL    HW133832  10.374   1.885  13.823
10686SOL    HW233833  10.346   1.768  13.916
10687SOL     OW33834   7.351   8.721  13.737
10687SOL    HW133835   7.412   8.748  13.807
10687SOL    HW233836   7.403   8.729  13.657
10688SOL     OW33837   4.877   0.296   8.373
10688SOL    HW133838   4.909   0.224   8.319
10688SOL    HW233839   4.826   0.350   8.313
10689SOL     OW33840  10.788   9.701   4.339
10689SOL    HW133841  10.754   9.791   4.334
10689SOL    HW233842  10.790   9.671   4.248
10690SOL     OW33843   9.826   4.929   6.438
10690SOL    HW133844   9.918   4.910   6.454
10690SOL    HW233845   9.825   5.019   6.407
10691SOL     OW33846   6.546   6.732  10.606
10691SOL    HW133847   6.580   6.778  10.682
10691SOL    HW233848   6.579   6.781  10.531
10692SOL     OW33849   9.477  11.842   2.707
10692SOL    HW133850   9.426  11.911   2.664
10692SOL    HW233851   9.470  11.767   2.648
10693SOL     OW33852   7.599   9.004  14.814
10693SOL    HW133853   7.658   8.930  14.825
10693SOL    HW233854   7.612   9.056   0.016
10694SOL     OW33855   1.270   1.385   4.887
10694SOL    HW133856   1.343   1.324   4.898
10694SOL    HW233857   1.241   1.404   4.976
10695SOL     OW33858   0.499   5.541   2.811
10695SOL    HW133859   0.492   5.634   2.832
10695SOL    HW233860   0.521   5.499   2.895
10696SOL     OW33861   3.529  10.918   7.495
10696SOL    HW133862   3.548  10.851   7.430
10696SOL    HW233863   3.575  10.996   7.463
10697SOL     OW33864  13.310  13.012  11.327
10697SOL    HW133865  13.224  12.974  11.309
10697SOL    HW233866  13.371  12.939  11.316
10698SOL     OW33867   3.515   1.755  13.550
10698SOL    HW133868   3.583   1.743  13.616
10698SOL    HW233869   3.547   1.827  13.495
10699SOL     OW33870   5.540   2.294  11.122
10699SOL    HW133871   5.630   2.303  11.089
10699SOL    HW233872   5.537   2.353  11.197
10700SOL     OW33873  14.220  10.325   2.538
10700SOL    HW133874  14.217  10.414   2.574
10700SOL    HW233875  14.294  10.285   2.583
10701SOL     OW33876   6.307   3.347   5.360
10701SOL    HW133877   6.278   3.274   5.414
10701SOL    HW233878   6.288   3.425   5.412
10702SOL     OW33879   4.582   2.277   7.508
10702SOL    HW133880   4.490   2.282   7.536
10702SOL    HW233881   4.578   2.237   7.421
10703SOL     OW33882   3.233  11.314   6.592
10703SOL    HW133883   3.225  11.224   6.561
10703SOL    HW233884   3.150  11.356   6.567
10704SOL     OW33885   7.668  10.647   7.449
10704SOL    HW133886   7.625  10.628   7.366
10704SOL    HW233887   7.649  10.572   7.504
10705SOL     OW33888  11.869   0.698  11.889
10705SOL    HW133889  11.883   0.767  11.824
10705SOL    HW233890  11.954   0.686  11.931
10706SOL     OW33891  10.197   3.659   0.163
10706SOL    HW133892  10.227   3.709   0.239
10706SOL    HW233893  10.222   3.568   0.182
10707SOL     OW33894  11.332  10.960   1.118
10707SOL    HW133895  11.239  10.960   1.140
10707SOL    HW233896  11.355  10.867   1.113
10708SOL     OW33897  13.220   9.194   8.195
10708SOL    HW133898  13.159   9.126   8.168
10708SOL    HW233899  13.300   9.147   8.219
10709SOL     OW33900  11.455  11.154  12.077
10709SOL    HW133901  11.536  11.162  12.026
10709SOL    HW233902  11.454  11.063  12.108
10710SOL     OW33903   4.090   0.876  11.227
10710SOL    HW133904   4.121   0.924  11.304
10710SOL    HW233905   4.068   0.944  11.163
10711SOL     OW33906   9.771   2.184   3.049
10711SOL    HW133907   9.820   2.231   2.981
10711SOL    HW233908   9.722   2.117   3.001
10712SOL     OW33909   7.987  13.433   5.369
10712SOL    HW133910   8.011  13.369   5.436
10712SOL    HW233911   7.914  13.481   5.407
10713SOL     OW33912  11.197  11.877   6.022
10713SOL    HW133913  11.280  11.900   6.065
10713SOL    HW233914  11.137  11.859   6.095
10714SOL     OW33915   8.769   3.504   4.739
10714SOL    HW133916   8.724   3.586   4.756
10714SOL    HW233917   8.854   3.530   4.704
10715SOL     OW33918  10.530   6.658  14.092
10715SOL    HW133919  10.497   6.714  14.022
10715SOL    HW233920  10.451   6.625  14.136
10716SOL     OW33921   3.210   2.484   7.096
10716SOL    HW133922   3.130   2.450   7.057
10716SOL    HW233923   3.217   2.574   7.062
10717SOL     OW33924  14.780  14.244   2.422
10717SOL    HW133925  14.743  14.254   2.334
10717SOL    HW233926  14.716  14.190   2.469
10718SOL     OW33927   3.655   7.972  13.421
10718SOL    HW133928   3.686   7.933  13.502
10718SOL    HW233929   3.560   7.957  13.422
10719SOL     OW33930   0.877   6.061  13.404
10719SOL    HW133931   0.950   6.073  13.342
10719SOL    HW233932   0.858   6.149  13.436
10720SOL     OW33933   2.011   8.082   9.132
10720SOL    HW133934   1.921   8.071   9.103
10720SOL    HW233935   2.009   8.058   9.225
10721SOL     OW33936  13.551   2.744  11.818
10721SOL    HW133937  13.631   2.716  11.863
10721SOL    HW233938  13.512   2.663  11.785
10722SOL     OW33939   2.956   7.711   1.564
10722SOL    HW133940   3.015   7.678   1.632
10722SOL    HW233941   3.012   7.765   1.508
10723SOL     OW33942   8.000  10.609   8.914
10723SOL    HW133943   8.043  10.692   8.895
10723SOL    HW233944   7.958  10.623   8.999
10724SOL     OW33945   1.515  12.141   8.788
10724SOL    HW133946   1.490  12.050   8.807
10724SOL    HW233947   1.510  12.147   8.692
10725SOL     OW33948  12.610   0.617   9.050
10725SOL    HW133949  12.526   0.584   9.017
10725SOL    HW233950  12.675   0.574   8.994
10726SOL     OW33951   5.481   6.727   8.007
10726SOL    HW133952   5.483   6.702   8.100
10726SOL    HW233953   5.397   6.773   7.997
10727SOL     OW33954   7.432  10.017  10.831
10727SOL    HW133955   7.460  10.039  10.920
10727SOL    HW233956   7.379   9.938  10.842
10728SOL     OW33957   1.877   8.625   4.426
10728SOL    HW133958   1.955   8.633   4.481
10728SOL    HW233959   1.823   8.559   4.470
10729SOL     OW33960   9.891   5.502   0.456
10729SOL    HW133961   9.890   5.493   0.360
10729SOL    HW233962   9.962   5.564   0.473
10730SOL     OW33963   5.034   9.855  12.561
10730SOL    HW133964   5.006   9.944  12.581
10730SOL    HW233965   4.985   9.832  12.482
10731SOL     OW33966   5.900   6.158   9.622
10731SOL    HW133967   5.838   6.097   9.582
10731SOL    HW233968   5.866   6.171   9.711
10732SOL     OW33969   1.849   6.283   6.046
10732SOL    HW133970   1.943   6.299   6.042
10732SOL    HW233971   1.831   6.267   6.139
10733SOL     OW33972  14.169   9.555   8.141
10733SOL    HW133973  14.259   9.522   8.142
10733SOL    HW233974  14.160   9.602   8.224
10734SOL     OW33975  11.458   7.285   0.713
10734SOL    HW133976  11.482   7.196   0.688
10734SOL    HW233977  11.414   7.275   0.798
10735SOL     OW33978   0.390  10.750   1.132
10735SOL    HW133979   0.414  10.752   1.225
10735SOL    HW233980   0.300  10.716   1.131
10736SOL     OW33981   7.690   5.375   9.513
10736SOL    HW133982   7.632   5.442   9.477
10736SOL    HW233983   7.771   5.385   9.463
10737SOL     OW33984  12.710  14.794  10.533
10737SOL    HW133985  12.760  14.727  10.580
10737SOL    HW233986  12.754  14.876  10.554
10738SOL     OW33987   9.725  12.178  13.384
10738SOL    HW133988   9.724  12.112  13.453
10738SOL    HW233989   9.660  12.243  13.411
10739SOL     OW33990   1.249  13.164   8.443
10739SOL    HW133991   1.224  13.081   8.403
10739SOL    HW233992   1.262  13.144   8.535
10740SOL     OW33993  10.187   1.473   2.241
10740SOL    HW133994  10.212   1.505   2.327
10740SOL    HW233995  10.258   1.414   2.215
10741SOL     OW33996   3.011   0.057   6.803
10741SOL    HW133997   3.000   0.049   6.708
10741SOL    HW233998   2.944   0.120   6.829
10742SOL     OW33999   0.949   9.341   4.628
10742SOL    HW134000   1.032   9.312   4.591
10742SOL    HW234001   0.974   9.396   4.702
10743SOL     OW34002   1.634   7.330  10.728
10743SOL    HW134003   1.714   7.369  10.762
10743SOL    HW234004   1.567   7.397  10.739
10744SOL     OW34005  12.171   3.229   1.719
10744SOL    HW134006  12.120   3.307   1.698
10744SOL    HW234007  12.255   3.243   1.675
10745SOL     OW34008   4.688   7.458   0.635
10745SOL    HW134009   4.642   7.377   0.657
10745SOL    HW234010   4.751   7.432   0.568
10746SOL     OW34011   4.792   9.604   2.056
10746SOL    HW134012   4.857   9.648   2.001
10746SOL    HW234013   4.841   9.536   2.101
10747SOL     OW34014   2.605  12.483   4.852
10747SOL    HW134015   2.584  12.434   4.773
10747SOL    HW234016   2.575  12.427   4.924
10748SOL     OW34017   6.720   6.663  12.609
10748SOL    HW134018   6.754   6.742  12.650
10748SOL    HW234019   6.735   6.676  12.515
10749SOL     OW34020   9.782   4.582   2.948
10749SOL    HW134021   9.793   4.553   3.039
10749SOL    HW234022   9.836   4.521   2.897
10750SOL     OW34023  14.428   5.955   5.161
10750SOL    HW134024  14.334   5.972   5.167
10750SOL    HW234025  14.436   5.893   5.089
10751SOL     OW34026  10.132   2.336   8.560
10751SOL    HW134027  10.124   2.323   8.655
10751SOL    HW234028  10.157   2.251   8.526
10752SOL     OW34029   7.988   1.974  11.053
10752SOL    HW134030   7.962   2.026  11.130
10752SOL    HW234031   8.082   1.989  11.045
10753SOL     OW34032   8.948   0.976   5.412
10753SOL    HW134033   8.894   0.953   5.336
10753SOL    HW234034   8.886   0.982   5.485
10754SOL     OW34035  11.164  12.216   1.822
10754SOL    HW134036  11.172  12.170   1.905
10754SOL    HW234037  11.136  12.305   1.846
10755SOL     OW34038   3.790   4.518   3.102
10755SOL    HW134039   3.785   4.611   3.082
10755SOL    HW234040   3.814   4.513   3.194
10756SOL     OW34041   1.863   2.705  13.082
10756SOL    HW134042   1.842   2.770  13.015
10756SOL    HW234043   1.811   2.628  13.058
10757SOL     OW34044  11.817   1.229  12.971
10757SOL    HW134045  11.731   1.269  12.979
10757SOL    HW234046  11.836   1.232  12.877
10758SOL     OW34047   8.809   3.671   4.955
10758SOL    HW134048   8.716   3.671   4.980
10758SOL    HW234049   8.816   3.741   4.890
10759SOL     OW34050  12.197   6.512   5.836
10759SOL    HW134051  12.232   6.481   5.752
10759SOL    HW234052  12.191   6.607   5.826
10760SOL     OW34053   1.194   6.608   7.228
10760SOL    HW134054   1.202   6.701   7.247
10760SOL    HW234055   1.144   6.603   7.146
10761SOL     OW34056  14.044   7.018   2.727
10761SOL    HW134057  13.960   7.062   2.713
10761SOL    HW234058  14.025   6.950   2.791
10762SOL     OW34059   1.653   5.281  11.825
10762SOL    HW134060   1.726   5.222  11.846
10762SOL    HW234061   1.574   5.230  11.843
10763SOL     OW34062  10.400   3.479  14.120
10763SOL    HW134063  10.306   3.489  14.112
10763SOL    HW234064  10.431   3.563  14.153
10764SOL     OW34065   3.383   9.604   2.250
10764SOL    HW134066   3.467   9.646   2.266
10764SOL    HW234067   3.400   9.543   2.178
10765SOL     OW34068  13.866   0.464   5.677
10765SOL    HW134069  13.935   0.530   5.672
10765SOL    HW234070  13.789   0.505   5.638
10766SOL     OW34071   4.736   1.051   2.386
10766SOL    HW134072   4.806   1.013   2.334
10766SOL    HW234073   4.763   1.142   2.399
10767SOL     OW34074   6.005   4.622   7.073
10767SOL    HW134075   5.968   4.688   7.015
10767SOL    HW234076   5.991   4.658   7.161
10768SOL     OW34077   6.626   5.888  14.452
10768SOL    HW134078   6.711   5.882  14.496
10768SOL    HW234079   6.643   5.940  14.374
10769SOL     OW34080   5.305   3.446   7.632
10769SOL    HW134081   5.256   3.506   7.576
10769SOL    HW234082   5.358   3.394   7.572
10770SOL     OW34083   2.016   2.486   4.009
10770SOL    HW134084   2.067   2.411   3.978
10770SOL    HW234085   2.014   2.546   3.934
10771SOL     OW34086   4.877  13.843  13.242
10771SOL    HW134087   4.931  13.795  13.306
10771SOL    HW234088   4.788  13.836  13.275
10772SOL     OW34089   5.697  12.649   4.893
10772SOL    HW134090   5.782  12.608   4.882
10772SOL    HW234091   5.693  12.715   4.823
10773SOL     OW34092   1.831   3.380  10.194
10773SOL    HW134093   1.808   3.458  10.142
10773SOL    HW234094   1.748   3.335  10.207
10774SOL     OW34095   1.649   5.843   5.755
10774SOL    HW134096   1.679   5.914   5.812
10774SOL    HW234097   1.569   5.811   5.796
10775SOL     OW34098   7.902  10.216  12.267
10775SOL    HW134099   7.938  10.248  12.185
10775SOL    HW234100   7.813  10.250  12.269
10776SOL     OW34101   6.026   3.821  11.546
10776SOL    HW134102   5.971   3.893  11.578
10776SOL    HW234103   6.068   3.857  11.468
10777SOL     OW34104   2.519   1.787  13.457
10777SOL    HW134105   2.543   1.863  13.510
10777SOL    HW234106   2.572   1.796  13.378
10778SOL     OW34107   4.433   9.869  13.866
10778SOL    HW134108   4.348   9.848  13.827
10778SOL    HW234109   4.446   9.962  13.848
10779SOL     OW34110   8.892   4.116  12.638
10779SOL    HW134111   8.954   4.154  12.700
10779SOL    HW234112   8.806   4.135  12.675
10780SOL     OW34113  10.260  13.830   4.059
10780SOL    HW134114  10.333  13.812   4.000
10780SOL    HW234115  10.253  13.751   4.113
10781SOL     OW34116   0.587  13.622  11.276
10781SOL    HW134117   0.493  13.613  11.289
10781SOL    HW234118   0.599  13.712  11.245
10782SOL     OW34119  13.142   4.358   9.465
10782SOL    HW134120  13.053   4.391   9.479
10782SOL    HW234121  13.184   4.363   9.551
10783SOL     OW34122   0.400   5.187   7.001
10783SOL    HW134123   0.440   5.270   7.027
10783SOL    HW234124   0.436   5.170   6.914
10784SOL     OW34125   8.789   0.636   6.916
10784SOL    HW134126   8.778   0.661   7.007
10784SOL    HW234127   8.726   0.566   6.902
10785SOL     OW34128  11.154   6.740   4.997
10785SOL    HW134129  11.146   6.825   4.953
10785SOL    HW234130  11.102   6.750   5.077
10786SOL     OW34131   4.073   4.709   7.428
10786SOL    HW134132   3.992   4.750   7.398
10786SOL    HW234133   4.069   4.620   7.394
10787SOL     OW34134   2.539   5.821   3.441
10787SOL    HW134135   2.619   5.851   3.399
10787SOL    HW234136   2.564   5.740   3.486
10788SOL     OW34137   4.208   3.001  10.807
10788SOL    HW134138   4.129   3.055  10.802
10788SOL    HW234139   4.278   3.058  10.775
10789SOL     OW34140  10.274   0.894   0.102
10789SOL    HW134141  10.273   0.965   0.166
10789SOL    HW234142  10.294   0.938   0.019
10790SOL     OW34143   5.082  12.707   7.185
10790SOL    HW134144   5.144  12.739   7.251
10790SOL    HW234145   5.063  12.617   7.211
10791SOL     OW34146   6.650   1.884  10.708
10791SOL    HW134147   6.644   1.977  10.731
10791SOL    HW234148   6.612   1.838  10.783
10792SOL     OW34149   8.719   9.889   3.424
10792SOL    HW134150   8.720   9.952   3.352
10792SOL    HW234151   8.663   9.818   3.392
10793SOL     OW34152   1.373   7.221  14.316
10793SOL    HW134153   1.337   7.306  14.291
10793SOL    HW234154   1.305   7.158  14.289
10794SOL     OW34155  10.088   2.389   0.052
10794SOL    HW134156  10.079   2.361   0.143
10794SOL    HW234157  10.033   2.328   0.003
10795SOL     OW34158   1.015   3.204   4.307
10795SOL    HW134159   1.019   3.215   4.401
10795SOL    HW234160   0.922   3.194   4.288
10796SOL     OW34161  12.738   5.229   6.655
10796SOL    HW134162  12.737   5.241   6.560
10796SOL    HW234163  12.739   5.134   6.667
10797SOL     OW34164   3.944   0.325   3.561
10797SOL    HW134165   3.956   0.394   3.625
10797SOL    HW234166   3.894   0.367   3.490
10798SOL     OW34167  11.876   1.280  12.186
10798SOL    HW134168  11.905   1.199  12.143
10798SOL    HW234169  11.813   1.251  12.251
10799SOL     OW34170  10.516  11.496  10.431
10799SOL    HW134171  10.584  11.555  10.464
10799SOL    HW234172  10.461  11.551  10.376
10800SOL     OW34173   7.275   0.798  13.105
10800SOL    HW134174   7.212   0.725  13.109
10800SOL    HW234175   7.268   0.830  13.015
10801SOL     OW34176   3.354   9.153   6.514
10801SOL    HW134177   3.267   9.143   6.553
10801SOL    HW234178   3.339   9.209   6.438
10802SOL     OW34179  10.505   9.194   4.411
10802SOL    HW134180  10.457   9.272   4.385
10802SOL    HW234181  10.465   9.167   4.494
10803SOL     OW34182  13.098   9.695   5.362
10803SOL    HW134183  13.133   9.620   5.411
10803SOL    HW234184  13.086   9.662   5.273
10804SOL     OW34185  11.936  10.398   7.083
10804SOL    HW134186  11.892  10.313   7.089
10804SOL    HW234187  11.871  10.461   7.115
10805SOL     OW34188  13.915   1.131   0.822
10805SOL    HW134189  13.949   1.044   0.802
10805SOL    HW234190  13.868   1.157   0.743
10806SOL     OW34191   4.078  12.278   2.934
10806SOL    HW134192   4.073  12.263   2.840
10806SOL    HW234193   4.167  12.253   2.958
10807SOL     OW34194  10.253  13.689  13.003
10807SOL    HW134195  10.310  13.744  12.949
10807SOL    HW234196  10.310  13.659  13.075
10808SOL     OW34197   4.138  14.746   0.799
10808SOL    HW134198   4.095  14.661   0.799
10808SOL    HW234199   4.067  14.808   0.782
10809SOL     OW34200  12.051   4.671   8.167
10809SOL    HW134201  12.068   4.744   8.107
10809SOL    HW234202  12.083   4.702   8.252
10810SOL     OW34203  10.365  13.510   8.395
10810SOL    HW134204  10.363  13.601   8.365
10810SOL    HW234205  10.389  13.515   8.487
10811SOL     OW34206   9.280  10.731   6.905
10811SOL    HW134207   9.264  10.748   6.812
10811SOL    HW234208   9.280  10.636   6.913
10812SOL     OW34209   4.060   5.029   5.082
10812SOL    HW134210   4.119   4.965   5.043
10812SOL    HW234211   3.975   4.986   5.084
10813SOL     OW34212   7.838   7.305  11.396
10813SOL    HW134213   7.770   7.256  11.442
10813SOL    HW234214   7.796   7.387  11.369
10814SOL     OW34215   2.901   5.388  10.319
10814SOL    HW134216   2.859   5.306  10.297
10814SOL    HW234217   2.994   5.368  10.321
10815SOL     OW34218  12.275   4.598  10.132
10815SOL    HW134219  12.197   4.554  10.097
10815SOL    HW234220  12.348   4.544  10.102
10816SOL     OW34221   5.170   9.670  14.774
10816SOL    HW134222   5.168   9.762  14.748
10816SOL    HW234223   5.229   9.668  14.849
10817SOL     OW34224  10.923  11.808   0.594
10817SOL    HW134225  10.938  11.777   0.683
10817SOL    HW234226  10.834  11.779   0.573
10818SOL     OW34227   4.659   8.115  13.397
10818SOL    HW134228   4.750   8.125  13.368
10818SOL    HW234229   4.667   8.086  13.488
10819SOL     OW34230   5.052   2.446  12.915
10819SOL    HW134231   4.995   2.523  12.924
10819SOL    HW234232   5.089   2.454  12.827
10820SOL     OW34233   6.669   0.744   4.692
10820SOL    HW134234   6.667   0.661   4.644
10820SOL    HW234235   6.578   0.768   4.703
10821SOL     OW34236   1.246   6.215  13.928
10821SOL    HW134237   1.238   6.301  13.886
10821SOL    HW234238   1.156   6.183  13.936
10822SOL     OW34239   7.853   4.050   5.653
10822SOL    HW134240   7.816   4.007   5.730
10822SOL    HW234241   7.842   4.143   5.670
10823SOL     OW34242   0.906   0.641   7.897
10823SOL    HW134243   0.882   0.599   7.979
10823SOL    HW234244   0.853   0.720   7.893
10824SOL     OW34245   2.573   7.328   4.115
10824SOL    HW134246   2.598   7.324   4.207
10824SOL    HW234247   2.650   7.362   4.070
10825SOL     OW34248   5.023   8.425   0.054
10825SOL    HW134249   4.936   8.463   0.066
10825SOL    HW234250   5.006   8.335   0.027
10826SOL     OW34251   5.786  14.185   0.414
10826SOL    HW134252   5.871  14.187   0.458
10826SOL    HW234253   5.737  14.257   0.454
10827SOL     OW34254   4.034  12.523   8.007
10827SOL    HW134255   4.051  12.470   8.085
10827SOL    HW234256   3.938  12.525   8.001
10828SOL     OW34257  10.945  11.032   5.607
10828SOL    HW134258  11.026  11.079   5.584
10828SOL    HW234259  10.957  10.944   5.569
10829SOL     OW34260   4.876   3.188   8.784
10829SOL    HW134261   4.819   3.220   8.714
10829SOL    HW234262   4.947   3.142   8.739
10830SOL     OW34263   5.971  12.516  10.789
10830SOL    HW134264   5.904  12.477  10.846
10830SOL    HW234265   6.053  12.483  10.824
10831SOL     OW34266   0.165  13.691   2.127
10831SOL    HW134267   0.183  13.736   2.044
10831SOL    HW234268   0.218  13.737   2.192
10832SOL     OW34269   0.456   4.262   9.610
10832SOL    HW134270   0.384   4.264   9.546
10832SOL    HW234271   0.492   4.174   9.603
10833SOL     OW34272  13.802   2.739  11.324
10833SOL    HW134273  13.842   2.818  11.361
10833SOL    HW234274  13.731   2.717  11.386
10834SOL     OW34275  10.967   9.333   2.536
10834SOL    HW134276  10.976   9.391   2.611
10834SOL    HW234277  11.039   9.357   2.477
10835SOL     OW34278   5.154   1.747  10.992
10835SOL    HW134279   5.239   1.788  10.972
10835SOL    HW234280   5.092   1.790  10.933
10836SOL     OW34281  14.211  12.002   8.333
10836SOL    HW134282  14.287  12.058   8.316
10836SOL    HW234283  14.222  11.928   8.272
10837SOL     OW34284   1.739   9.178   0.163
10837SOL    HW134285   1.709   9.100   0.210
10837SOL    HW234286   1.775   9.235   0.231
10838SOL     OW34287  11.802   4.437   0.382
10838SOL    HW134288  11.765   4.396   0.460
10838SOL    HW234289  11.727   4.447   0.323
10839SOL     OW34290   9.742  13.911  14.224
10839SOL    HW134291   9.805  13.841  14.205
10839SOL    HW234292   9.662  13.866  14.250
10840SOL     OW34293  14.482   8.659   7.904
10840SOL    HW134294  14.404   8.604   7.915
10840SOL    HW234295  14.543   8.625   7.969
10841SOL     OW34296  13.149   3.194   8.813
10841SOL    HW134297  13.228   3.150   8.843
10841SOL    HW234298  13.083   3.171   8.878
10842SOL     OW34299  12.954   1.787   9.226
10842SOL    HW134300  12.974   1.810   9.135
10842SOL    HW234301  12.976   1.694   9.233
10843SOL     OW34302   8.095   1.503  11.487
10843SOL    HW134303   8.191   1.496  11.490
10843SOL    HW234304   8.065   1.447  11.558
10844SOL     OW34305   1.665  11.609  11.124
10844SOL    HW134306   1.722  11.538  11.095
10844SOL    HW234307   1.636  11.652  11.043
10845SOL     OW34308   1.751  14.437   1.138
10845SOL    HW134309   1.822  14.480   1.088
10845SOL    HW234310   1.716  14.506   1.194
10846SOL     OW34311  14.680   9.047   7.158
10846SOL    HW134312  14.672   9.141   7.145
10846SOL    HW234313  14.596   9.011   7.129
10847SOL     OW34314   8.289   7.340   9.299
10847SOL    HW134315   8.245   7.420   9.325
10847SOL    HW234316   8.332   7.362   9.216
10848SOL     OW34317   4.131   5.671  11.995
10848SOL    HW134318   4.113   5.582  11.965
10848SOL    HW234319   4.140   5.722  11.915
10849SOL     OW34320   9.736   2.881  13.174
10849SOL    HW134321   9.643   2.899  13.190
10849SOL    HW234322   9.771   2.964  13.142
10850SOL     OW34323   7.338   6.920  14.231
10850SOL    HW134324   7.358   7.010  14.253
10850SOL    HW234325   7.265   6.896  14.288
10851SOL     OW34326  13.135   4.547  14.181
10851SOL    HW134327  13.165   4.570  14.269
10851SOL    HW234328  13.040   4.553  14.186
10852SOL     OW34329   1.768   7.396   8.550
10852SOL    HW134330   1.705   7.466   8.566
10852SOL    HW234331   1.762   7.340   8.627
10853SOL     OW34332   2.035   4.113   9.845
10853SOL    HW134333   2.100   4.111   9.915
10853SOL    HW234334   1.960   4.066   9.880
10854SOL     OW34335  13.999   7.763  14.361
10854SOL    HW134336  14.069   7.824  14.336
10854SOL    HW234337  13.942   7.813  14.419
10855SOL     OW34338  13.733   0.781  14.024
10855SOL    HW134339  13.721   0.740  14.110
10855SOL    HW234340  13.763   0.869  14.044
10856SOL     OW34341  11.931   4.051   7.663
10856SOL    HW134342  11.962   4.142   7.660
10856SOL    HW234343  12.008   3.998   7.645
10857SOL     OW34344   9.601   0.337   2.913
10857SOL    HW134345   9.576   0.330   2.821
10857SOL    HW234346   9.673   0.275   2.923
10858SOL     OW34347   4.577   5.347  10.807
10858SOL    HW134348   4.647   5.291  10.841
10858SOL    HW234349   4.613   5.385  10.727
10859SOL     OW34350  14.383   0.686   0.829
10859SOL    HW134351  14.313   0.746   0.802
10859SOL    HW234352  14.343   0.599   0.823
10860SOL     OW34353   0.650   8.591   3.741
10860SOL    HW134354   0.642   8.609   3.647
10860SOL    HW234355   0.695   8.507   3.746
10861SOL     OW34356   2.584  13.948   9.507
10861SOL    HW134357   2.510  13.988   9.463
10861SOL    HW234358   2.648  13.933   9.438
10862SOL     OW34359   2.801   1.976  14.474
10862SOL    HW134360   2.871   2.030  14.511
10862SOL    HW234361   2.840   1.889  14.465
10863SOL     OW34362  11.375  12.631   9.097
10863SOL    HW134363  11.325  12.677   9.164
10863SOL    HW234364  11.462  12.671   9.099
10864SOL     OW34365   3.465   1.888  14.374
10864SOL    HW134366   3.385   1.932  14.346
10864SOL    HW234367   3.436   1.804  14.410
10865SOL     OW34368  12.501   3.060   9.410
10865SOL    HW134369  12.531   2.981   9.364
10865SOL    HW234370  12.478   3.121   9.340
10866SOL     OW34371  14.502  12.213   7.956
10866SOL    HW134372  14.428  12.165   7.994
10866SOL    HW234373  14.573  12.149   7.956
10867SOL     OW34374   8.531  12.621   0.997
10867SOL    HW134375   8.559  12.650   1.084
10867SOL    HW234376   8.525  12.526   1.004
10868SOL     OW34377   7.841  12.863   0.850
10868SOL    HW134378   7.882  12.946   0.874
10868SOL    HW234379   7.799  12.832   0.930
10869SOL     OW34380   7.533  10.800  14.408
10869SOL    HW134381   7.613  10.820  14.458
10869SOL    HW234382   7.565  10.769  14.323
10870SOL     OW34383  10.906   7.596   3.792
10870SOL    HW134384  10.827   7.606   3.738
10870SOL    HW234385  10.951   7.521   3.754
10871SOL     OW34386   5.776   9.204   2.236
10871SOL    HW134387   5.745   9.171   2.320
10871SOL    HW234388   5.844   9.268   2.259
10872SOL     OW34389   7.183   2.450   1.730
10872SOL    HW134390   7.196   2.518   1.795
10872SOL    HW234391   7.271   2.420   1.708
10873SOL     OW34392   6.560   8.512   9.672
10873SOL    HW134393   6.508   8.590   9.693
10873SOL    HW234394   6.562   8.462   9.753
10874SOL     OW34395  10.599   8.451   1.581
10874SOL    HW134396  10.656   8.478   1.508
10874SOL    HW234397  10.648   8.382   1.626
10875SOL     OW34398   3.154  10.113   2.302
10875SOL    HW134399   3.210  10.046   2.263
10875SOL    HW234400   3.091  10.064   2.355
10876SOL     OW34401   6.755   4.371   8.841
10876SOL    HW134402   6.814   4.444   8.825
10876SOL    HW234403   6.784   4.303   8.780
10877SOL     OW34404   2.688   1.661   6.849
10877SOL    HW134405   2.754   1.593   6.838
10877SOL    HW234406   2.676   1.667   6.944
10878SOL     OW34407  10.673  11.547   3.881
10878SOL    HW134408  10.755  11.562   3.833
10878SOL    HW234409  10.675  11.614   3.950
10879SOL     OW34410   1.551   8.710  13.836
10879SOL    HW134411   1.555   8.765  13.758
10879SOL    HW234412   1.458   8.700  13.854
10880SOL     OW34413   4.815   2.860   6.622
10880SOL    HW134414   4.794   2.811   6.702
10880SOL    HW234415   4.753   2.932   6.621
10881SOL     OW34416  11.133   2.687   6.395
10881SOL    HW134417  11.179   2.603   6.386
10881SOL    HW234418  11.050   2.673   6.348
10882SOL     OW34419   5.307   9.185   1.551
10882SOL    HW134420   5.374   9.154   1.612
10882SOL    HW234421   5.294   9.277   1.575
10883SOL     OW34422  14.428   6.179  12.470
10883SOL    HW134423  14.462   6.242  12.408
10883SOL    HW234424  14.345   6.150  12.433
10884SOL     OW34425   9.788   3.698   4.306
10884SOL    HW134426   9.789   3.635   4.233
10884SOL    HW234427   9.799   3.644   4.384
10885SOL     OW34428  12.829   9.723   7.215
10885SOL    HW134429  12.769   9.787   7.253
10885SOL    HW234430  12.814   9.643   7.265
10886SOL     OW34431  10.012  14.368   5.418
10886SOL    HW134432  10.017  14.370   5.322
10886SOL    HW234433   9.966  14.449   5.441
10887SOL     OW34434   3.521  14.759   8.262
10887SOL    HW134435   3.551  14.668   8.258
10887SOL    HW234436   3.602  14.810   8.262
10888SOL     OW34437   9.581   6.877   6.259
10888SOL    HW134438   9.622   6.962   6.241
10888SOL    HW234439   9.654   6.817   6.271
10889SOL     OW34440   6.477   3.103  10.086
10889SOL    HW134441   6.456   3.084   9.995
10889SOL    HW234442   6.393   3.101  10.131
10890SOL     OW34443  11.206   5.715   4.780
10890SOL    HW134444  11.162   5.707   4.696
10890SOL    HW234445  11.155   5.781   4.827
10891SOL     OW34446   9.502   2.420   4.600
10891SOL    HW134447   9.416   2.460   4.604
10891SOL    HW234448   9.560   2.481   4.646
10892SOL     OW34449  14.756   6.431   7.246
10892SOL    HW134450  14.662   6.420   7.260
10892SOL    HW234451  14.784   6.493   7.314
10893SOL     OW34452   8.405  10.025  13.797
10893SOL    HW134453   8.482   9.990  13.842
10893SOL    HW234454   8.342  10.042  13.867
10894SOL     OW34455   5.329  10.597   3.772
10894SOL    HW134456   5.305  10.620   3.683
10894SOL    HW234457   5.425  10.593   3.771
10895SOL     OW34458   1.464  14.384  12.857
10895SOL    HW134459   1.416  14.395  12.939
10895SOL    HW234460   1.400  14.347  12.796
10896SOL     OW34461   4.017   5.997  11.289
10896SOL    HW134462   4.006   6.046  11.208
10896SOL    HW234463   4.011   6.062  11.358
10897SOL     OW34464   5.123   8.117   1.373
10897SOL    HW134465   5.041   8.123   1.423
10897SOL    HW234466   5.174   8.050   1.419
10898SOL     OW34467  10.045   8.630   4.847
10898SOL    HW134468  10.029   8.722   4.831
10898SOL    HW234469   9.960   8.594   4.874
10899SOL     OW34470  14.703   7.560  12.638
10899SOL    HW134471  14.730   7.552  12.546
10899SOL    HW234472  14.697   7.654  12.654
10900SOL     OW34473   8.395  12.296   5.191
10900SOL    HW134474   8.310  12.333   5.217
10900SOL    HW234475   8.399  12.312   5.097
10901SOL     OW34476  12.649   3.250   2.245
10901SOL    HW134477  12.709   3.288   2.180
10901SOL    HW234478  12.594   3.323   2.271
10902SOL     OW34479   5.238   8.227   8.842
10902SOL    HW134480   5.193   8.277   8.775
10902SOL    HW234481   5.192   8.248   8.923
10903SOL     OW34482  10.300   5.160   4.473
10903SOL    HW134483  10.240   5.091   4.503
10903SOL    HW234484  10.370   5.113   4.428
10904SOL     OW34485   8.628  13.377  11.094
10904SOL    HW134486   8.616  13.284  11.112
10904SOL    HW234487   8.634  13.418  11.181
10905SOL     OW34488  10.563   4.506   7.090
10905SOL    HW134489  10.477   4.466   7.073
10905SOL    HW234490  10.625   4.438   7.065
10906SOL     OW34491   4.327   2.151   8.083
10906SOL    HW134492   4.372   2.074   8.118
10906SOL    HW234493   4.234   2.132   8.096
10907SOL     OW34494   3.799   5.462   2.540
10907SOL    HW134495   3.768   5.400   2.474
10907SOL    HW234496   3.786   5.548   2.501
10908SOL     OW34497   9.132   3.905   6.003
10908SOL    HW134498   9.108   3.997   5.989
10908SOL    HW234499   9.195   3.885   5.934
10909SOL     OW34500   6.681   0.161   0.594
10909SOL    HW134501   6.622   0.091   0.624
10909SOL    HW234502   6.715   0.199   0.675
10910SOL     OW34503  12.671   4.773   3.473
10910SOL    HW134504  12.602   4.778   3.539
10910SOL    HW234505  12.704   4.863   3.467
10911SOL     OW34506   0.631   2.429  11.528
10911SOL    HW134507   0.680   2.456  11.450
10911SOL    HW234508   0.696   2.391  11.586
10912SOL     OW34509   3.531   9.785   1.340
10912SOL    HW134510   3.507   9.803   1.431
10912SOL    HW234511   3.615   9.830   1.328
10913SOL     OW34512   6.716   8.570   3.727
10913SOL    HW134513   6.738   8.645   3.782
10913SOL    HW234514   6.686   8.503   3.789
10914SOL     OW34515   1.438   7.482  13.464
10914SOL    HW134516   1.506   7.443  13.407
10914SOL    HW234517   1.432   7.573  13.435
10915SOL     OW34518   7.845  11.771  12.977
10915SOL    HW134519   7.758  11.791  12.943
10915SOL    HW234520   7.867  11.686  12.939
10916SOL     OW34521   5.739   2.549   7.836
10916SOL    HW134522   5.767   2.458   7.833
10916SOL    HW234523   5.806   2.596   7.786
10917SOL     OW34524   3.173   1.558   1.848
10917SOL    HW134525   3.118   1.611   1.907
10917SOL    HW234526   3.262   1.587   1.867
10918SOL     OW34527  10.174  12.889   5.458
10918SOL    HW134528  10.122  12.861   5.383
10918SOL    HW234529  10.159  12.822   5.525
10919SOL     OW34530   4.080   6.675   2.960
10919SOL    HW134531   4.093   6.636   2.873
10919SOL    HW234532   4.129   6.618   3.019
10920SOL     OW34533  13.046   9.043  13.826
10920SOL    HW134534  13.029   9.103  13.900
10920SOL    HW234535  13.020   9.093  13.749
10921SOL     OW34536   5.152   6.352   1.106
10921SOL    HW134537   5.192   6.318   1.186
10921SOL    HW234538   5.108   6.433   1.134
10922SOL     OW34539   6.021  12.520   5.316
10922SOL    HW134540   5.946  12.535   5.373
10922SOL    HW234541   5.983  12.488   5.234
10923SOL     OW34542  10.117   8.216  12.132
10923SOL    HW134543  10.024   8.225  12.108
10923SOL    HW234544  10.161   8.284  12.081
10924SOL     OW34545  12.631   6.538  12.275
10924SOL    HW134546  12.724   6.561  12.274
10924SOL    HW234547  12.601   6.559  12.187
10925SOL     OW34548   8.629  13.936   0.877
10925SOL    HW134549   8.591  13.860   0.920
10925SOL    HW234550   8.635  13.911   0.785
10926SOL     OW34551   2.347   4.611  11.696
10926SOL    HW134552   2.298   4.539  11.736
10926SOL    HW234553   2.432   4.610  11.739
10927SOL     OW34554   1.160   9.407   2.452
10927SOL    HW134555   1.091   9.342   2.463
10927SOL    HW234556   1.160   9.427   2.358
10928SOL     OW34557   3.170   3.884   9.795
10928SOL    HW134558   3.126   3.945   9.855
10928SOL    HW234559   3.150   3.918   9.708
10929SOL     OW34560   6.937  10.852   3.622
10929SOL    HW134561   6.868  10.915   3.605
10929SOL    HW234562   6.898  10.788   3.681
10930SOL     OW34563   2.545   2.709  11.066
10930SOL    HW134564   2.572   2.631  11.115
10930SOL    HW234565   2.625   2.739  11.022
10931SOL     OW34566  13.933   6.779   9.435
10931SOL    HW134567  13.936   6.817   9.347
10931SOL    HW234568  14.020   6.794   9.471
10932SOL     OW34569   0.059   5.378   8.811
10932SOL    HW134570   0.056   5.470   8.839
10932SOL    HW234571   0.034   5.329   8.889
10933SOL     OW34572   9.299   4.019   0.112
10933SOL    HW134573   9.339   3.934   0.130
10933SOL    HW234574   9.373   4.080   0.111
10934SOL     OW34575  11.777  10.992   3.346
10934SOL    HW134576  11.750  10.952   3.429
10934SOL    HW234577  11.833  11.065   3.372
10935SOL     OW34578   0.959   7.851   5.711
10935SOL    HW134579   0.873   7.886   5.688
10935SOL    HW234580   0.952   7.757   5.697
10936SOL     OW34581  13.378   2.495   7.354
10936SOL    HW134582  13.382   2.514   7.260
10936SOL    HW234583  13.285   2.478   7.371
10937SOL     OW34584   1.927   1.818  10.814
10937SOL    HW134585   1.926   1.910  10.787
10937SOL    HW234586   1.916   1.770  10.732
10938SOL     OW34587   2.574   2.515   6.797
10938SOL    HW134588   2.542   2.577   6.862
10938SOL    HW234589   2.547   2.552   6.713
10939SOL     OW34590   6.384  14.648  13.820
10939SOL    HW134591   6.473  14.614  13.811
10939SOL    HW234592   6.333  14.574  13.852
10940SOL     OW34593  11.947   5.613   5.052
10940SOL    HW134594  11.996   5.689   5.023
10940SOL    HW234595  11.957   5.612   5.147
10941SOL     OW34596   0.114  11.955   2.094
10941SOL    HW134597   0.136  11.862   2.104
10941SOL    HW234598   0.198  11.997   2.075
10942SOL     OW34599   0.014   3.353   4.442
10942SOL    HW134600  14.840   3.345   4.522
10942SOL    HW234601   0.088   3.293   4.456
10943SOL     OW34602   1.236   7.616   5.874
10943SOL    HW134603   1.249   7.709   5.858
10943SOL    HW234604   1.325   7.579   5.878
10944SOL     OW34605   1.508   8.153   5.505
10944SOL    HW134606   1.488   8.243   5.532
10944SOL    HW234607   1.428   8.104   5.526
10945SOL     OW34608   7.259   1.860  12.993
10945SOL    HW134609   7.237   1.807  13.070
10945SOL    HW234610   7.333   1.914  13.022
10946SOL     OW34611   1.456  10.998  11.061
10946SOL    HW134612   1.517  10.936  11.100
10946SOL    HW234613   1.425  11.051  11.135
10947SOL     OW34614   6.394   6.470   0.410
10947SOL    HW134615   6.343   6.448   0.487
10947SOL    HW234616   6.333   6.519   0.354
10948SOL     OW34617   4.777   4.601   0.935
10948SOL    HW134618   4.810   4.516   0.906
10948SOL    HW234619   4.788   4.658   0.859
10949SOL     OW34620  14.797   6.662   6.302
10949SOL    HW134621  14.831   6.573   6.307
10949SOL    HW234622  14.820   6.692   6.214
10950SOL     OW34623   7.257   5.241  12.874
10950SOL    HW134624   7.320   5.170  12.863
10950SOL    HW234625   7.194   5.229  12.803
10951SOL     OW34626  10.898   6.473   1.983
10951SOL    HW134627  10.832   6.542   1.971
10951SOL    HW234628  10.949   6.475   1.902
10952SOL     OW34629  10.624   4.822  14.581
10952SOL    HW134630  10.551   4.785  14.631
10952SOL    HW234631  10.702   4.787  14.623
10953SOL     OW34632   0.369  10.581   3.752
10953SOL    HW134633   0.453  10.626   3.740
10953SOL    HW234634   0.391  10.501   3.800
10954SOL     OW34635  12.679   1.488   7.655
10954SOL    HW134636  12.722   1.567   7.685
10954SOL    HW234637  12.586   1.512   7.648
10955SOL     OW34638   2.610   2.293   2.980
10955SOL    HW134639   2.560   2.375   2.983
10955SOL    HW234640   2.670   2.300   3.054
10956SOL     OW34641  10.797   8.945  14.798
10956SOL    HW134642  10.756   9.006  14.861
10956SOL    HW234643  10.734   8.873  14.791
10957SOL     OW34644  13.215   6.195  12.408
10957SOL    HW134645  13.263   6.130  12.356
10957SOL    HW234646  13.167   6.144  12.473
10958SOL     OW34647   4.465   1.411   1.263
10958SOL    HW134648   4.438   1.351   1.333
10958SOL    HW234649   4.428   1.495   1.288
10959SOL     OW34650  13.506   0.386   4.277
10959SOL    HW134651  13.549   0.451   4.221
10959SOL    HW234652  13.492   0.311   4.220
10960SOL     OW34653   3.505   7.643   3.392
10960SOL    HW134654   3.517   7.737   3.380
10960SOL    HW234655   3.417   7.625   3.359
10961SOL     OW34656   8.741  11.595   9.097
10961SOL    HW134657   8.720  11.671   9.151
10961SOL    HW234658   8.731  11.625   9.007
10962SOL     OW34659  13.073   8.334   7.269
10962SOL    HW134660  13.150   8.390   7.271
10962SOL    HW234661  13.097   8.258   7.322
10963SOL     OW34662   1.186   1.809   6.931
10963SOL    HW134663   1.134   1.815   7.010
10963SOL    HW234664   1.277   1.811   6.962
10964SOL     OW34665   5.193  13.254   3.781
10964SOL    HW134666   5.155  13.270   3.695
10964SOL    HW234667   5.189  13.339   3.825
10965SOL     OW34668  10.405  10.287   2.728
10965SOL    HW134669  10.348  10.305   2.802
10965SOL    HW234670  10.392  10.361   2.669
10966SOL     OW34671   6.017   3.993   9.535
10966SOL    HW134672   6.106   3.959   9.526
10966SOL    HW234673   6.015   4.032   9.623
10967SOL     OW34674   1.505   1.316  11.350
10967SOL    HW134675   1.572   1.267  11.303
10967SOL    HW234676   1.468   1.375  11.284
10968SOL     OW34677   9.871  13.832   9.162
10968SOL    HW134678   9.960  13.859   9.138
10968SOL    HW234679   9.875  13.736   9.160
10969SOL     OW34680   0.321  10.212   6.300
10969SOL    HW134681   0.342  10.172   6.216
10969SOL    HW234682   0.233  10.180   6.321
10970SOL     OW34683  11.599   5.411  14.228
10970SOL    HW134684  11.652   5.389  14.151
10970SOL    HW234685  11.517   5.365  14.214
10971SOL     OW34686   9.141   3.177   3.884
10971SOL    HW134687   9.067   3.161   3.944
10971SOL    HW234688   9.117   3.131   3.804
10972SOL     OW34689   4.097   1.758   7.823
10972SOL    HW134690   4.071   1.767   7.732
10972SOL    HW234691   4.134   1.670   7.829
10973SOL     OW34692   0.748   5.146   6.243
10973SOL    HW134693   0.803   5.092   6.186
10973SOL    HW234694   0.664   5.151   6.199
10974SOL     OW34695   7.440   8.122   7.319
10974SOL    HW134696   7.508   8.101   7.255
10974SOL    HW234697   7.461   8.211   7.349
10975SOL     OW34698   7.219   3.109   9.225
10975SOL    HW134699   7.232   3.202   9.205
10975SOL    HW234700   7.299   3.067   9.193
10976SOL     OW34701  14.091   9.576  10.460
10976SOL    HW134702  14.048   9.602  10.379
10976SOL    HW234703  14.021   9.574  10.526
10977SOL     OW34704   9.531   0.891   1.512
10977SOL    HW134705   9.614   0.927   1.479
10977SOL    HW234706   9.468   0.911   1.443
10978SOL     OW34707   1.420   9.830   4.367
10978SOL    HW134708   1.446   9.861   4.454
10978SOL    HW234709   1.502   9.830   4.316
10979SOL     OW34710   0.750   8.630   5.408
10979SOL    HW134711   0.680   8.692   5.426
10979SOL    HW234712   0.710   8.544   5.418
10980SOL     OW34713   1.006  13.832  12.172
10980SOL    HW134714   1.047  13.753  12.138
10980SOL    HW234715   1.070  13.901  12.156
10981SOL     OW34716  14.479  14.424   3.474
10981SOL    HW134717  14.473  14.514   3.441
10981SOL    HW234718  14.402  14.413   3.530
10982SOL     OW34719  14.567   8.961   9.230
10982SOL    HW134720  14.476   8.945   9.204
10982SOL    HW234721  14.568   8.947   9.325
10983SOL     OW34722  13.256   3.161   4.783
10983SOL    HW134723  13.161   3.148   4.782
10983SOL    HW234724  13.289   3.103   4.851
10984SOL     OW34725   3.941  11.801   0.726
10984SOL    HW134726   3.983  11.816   0.641
10984SOL    HW234727   4.009  11.758   0.778
10985SOL     OW34728   2.978  11.020   5.931
10985SOL    HW134729   3.030  10.969   5.993
10985SOL    HW234730   2.974  10.965   5.852
10986SOL     OW34731  14.405   1.894   1.605
10986SOL    HW134732  14.310   1.894   1.597
10986SOL    HW234733  14.422   1.907   1.698
10987SOL     OW34734   4.368   2.287   8.423
10987SOL    HW134735   4.432   2.253   8.485
10987SOL    HW234736   4.416   2.301   8.342
10988SOL     OW34737   9.785   0.723   0.352
10988SOL    HW134738   9.827   0.741   0.268
10988SOL    HW234739   9.852   0.742   0.417
10989SOL     OW34740   3.566   4.637   4.566
10989SOL    HW134741   3.526   4.697   4.628
10989SOL    HW234742   3.579   4.689   4.487
10990SOL     OW34743  11.246  10.924  13.187
10990SOL    HW134744  11.279  10.878  13.264
10990SOL    HW234745  11.319  10.977  13.157
10991SOL     OW34746   6.401  14.201  10.451
10991SOL    HW134747   6.434  14.278  10.405
10991SOL    HW234748   6.325  14.173  10.400
10992SOL     OW34749  10.037   6.030  11.596
10992SOL    HW134750  10.044   6.117  11.638
10992SOL    HW234751   9.975   5.982  11.652
10993SOL     OW34752  14.827   1.652   8.737
10993SOL    HW134753  14.878   1.589   8.789
10993SOL    HW234754  14.740   1.651   8.776
10994SOL     OW34755   5.537  13.366   7.663
10994SOL    HW134756   5.568  13.335   7.748
10994SOL    HW234757   5.467  13.428   7.685
10995SOL     OW34758  11.873   2.032   3.650
10995SOL    HW134759  11.874   2.003   3.741
10995SOL    HW234760  11.953   1.997   3.612
10996SOL     OW34761  13.843   7.944  11.653
10996SOL    HW134762  13.760   7.988  11.665
10996SOL    HW234763  13.899   7.979  11.722
10997SOL     OW34764   1.494  12.678   5.390
10997SOL    HW134765   1.583  12.691   5.425
10997SOL    HW234766   1.445  12.753   5.424
10998SOL     OW34767  11.441   7.246   2.896
10998SOL    HW134768  11.436   7.297   2.815
10998SOL    HW234769  11.351   7.246   2.929
10999SOL     OW34770   0.403  11.551  10.801
10999SOL    HW134771   0.313  11.521  10.813
10999SOL    HW234772   0.398  11.647  10.810
11000SOL     OW34773   2.347   1.689   2.393
11000SOL    HW134774   2.302   1.610   2.364
11000SOL    HW234775   2.425   1.694   2.338
11001SOL     OW34776   9.692   0.764   6.488
11001SOL    HW134777   9.701   0.679   6.530
11001SOL    HW234778   9.778   0.781   6.450
11002SOL     OW34779   2.918  13.111   1.142
11002SOL    HW134780   2.987  13.156   1.094
11002SOL    HW234781   2.890  13.174   1.208
11003SOL     OW34782   1.647   0.879  12.927
11003SOL    HW134783   1.637   0.884  12.831
11003SOL    HW234784   1.697   0.958  12.950
11004SOL     OW34785   3.223   9.215  14.290
11004SOL    HW134786   3.153   9.273  14.261
11004SOL    HW234787   3.196   9.128  14.260
11005SOL     OW34788   5.473  13.824   2.529
11005SOL    HW134789   5.444  13.865   2.611
11005SOL    HW234790   5.565  13.847   2.522
11006SOL     OW34791   4.905   3.263   0.931
11006SOL    HW134792   4.854   3.344   0.942
11006SOL    HW234793   4.847   3.205   0.881
11007SOL     OW34794   8.841   6.487  13.199
11007SOL    HW134795   8.827   6.548  13.271
11007SOL    HW234796   8.935   6.490  13.183
11008SOL     OW34797  10.148   6.094  13.837
11008SOL    HW134798  10.184   6.112  13.924
11008SOL    HW234799  10.063   6.138  13.836
11009SOL     OW34800   9.341  11.777  12.827
11009SOL    HW134801   9.276  11.846  12.813
11009SOL    HW234802   9.308  11.727  12.901
11010SOL     OW34803  12.243   8.934   1.124
11010SOL    HW134804  12.285   8.894   1.047
11010SOL    HW234805  12.168   8.982   1.089
11011SOL     OW34806  12.710  11.948  13.500
11011SOL    HW134807  12.746  11.919  13.584
11011SOL    HW234808  12.725  12.042  13.499
11012SOL     OW34809   5.179   8.972   8.349
11012SOL    HW134810   5.151   8.908   8.284
11012SOL    HW234811   5.265   8.942   8.378
11013SOL     OW34812   5.220   7.244   4.918
11013SOL    HW134813   5.253   7.330   4.893
11013SOL    HW234814   5.208   7.250   5.013
11014SOL     OW34815   2.244   7.323   9.345
11014SOL    HW134816   2.193   7.363   9.415
11014SOL    HW234817   2.295   7.254   9.389
11015SOL     OW34818   0.514  10.095   6.097
11015SOL    HW134819   0.535  10.005   6.075
11015SOL    HW234820   0.431  10.112   6.054
11016SOL     OW34821   8.540   1.865  11.101
11016SOL    HW134822   8.542   1.947  11.150
11016SOL    HW234823   8.547   1.892  11.009
11017SOL     OW34824   3.667  11.823   1.005
11017SOL    HW134825   3.659  11.765   0.929
11017SOL    HW234826   3.666  11.911   0.968
11018SOL     OW34827  12.972   2.090   1.556
11018SOL    HW134828  12.937   2.102   1.645
11018SOL    HW234829  12.926   2.013   1.523
11019SOL     OW34830   5.427   2.115   1.839
11019SOL    HW134831   5.348   2.061   1.848
11019SOL    HW234832   5.482   2.068   1.776
11020SOL     OW34833   6.520   3.439   6.032
11020SOL    HW134834   6.605   3.473   6.060
11020SOL    HW234835   6.457   3.482   6.090
11021SOL     OW34836   3.178   0.003   2.738
11021SOL    HW134837   3.223   0.086   2.749
11021SOL    HW234838   3.246  14.815   2.750
11022SOL     OW34839   6.649   9.241   0.269
11022SOL    HW134840   6.699   9.210   0.194
11022SOL    HW234841   6.593   9.166   0.292
11023SOL     OW34842   5.878   3.074  11.298
11023SOL    HW134843   5.852   3.062  11.389
11023SOL    HW234844   5.824   3.147  11.268
11024SOL     OW34845   3.987   9.621   9.801
11024SOL    HW134846   4.028   9.571   9.731
11024SOL    HW234847   3.985   9.711   9.768
11025SOL     OW34848   7.238   8.766  10.220
11025SOL    HW134849   7.212   8.677  10.242
11025SOL    HW234850   7.214   8.776  10.128
11026SOL     OW34851   4.387   8.863   2.426
11026SOL    HW134852   4.441   8.942   2.430
11026SOL    HW234853   4.306   8.887   2.471
11027SOL     OW34854  10.920   4.935  13.910
11027SOL    HW134855  10.864   4.964  13.983
11027SOL    HW234856  10.978   4.870  13.949
11028SOL     OW34857   7.303  12.302   1.437
11028SOL    HW134858   7.345  12.216   1.440
11028SOL    HW234859   7.362  12.359   1.487
11029SOL     OW34860   9.755   1.822   9.143
11029SOL    HW134861   9.679   1.798   9.196
11029SOL    HW234862   9.829   1.818   9.204
11030SOL     OW34863   5.532  13.012  10.694
11030SOL    HW134864   5.622  13.039  10.714
11030SOL    HW234865   5.535  12.916  10.694
11031SOL     OW34866   5.672   0.570   9.540
11031SOL    HW134867   5.738   0.503   9.524
11031SOL    HW234868   5.670   0.622   9.460
11032SOL     OW34869  13.706  13.281   8.730
11032SOL    HW134870  13.629  13.330   8.701
11032SOL    HW234871  13.764  13.281   8.654
11033SOL     OW34872   0.590   4.167   8.519
11033SOL    HW134873   0.593   4.105   8.446
11033SOL    HW234874   0.680   4.198   8.528
11034SOL     OW34875   6.253   9.899   4.572
11034SOL    HW134876   6.243   9.874   4.480
11034SOL    HW234877   6.304   9.828   4.611
11035SOL     OW34878   7.242   3.282   8.605
11035SOL    HW134879   7.209   3.224   8.536
11035SOL    HW234880   7.237   3.229   8.684
11036SOL     OW34881   8.935   0.673   2.123
11036SOL    HW134882   8.920   0.609   2.053
11036SOL    HW234883   8.985   0.743   2.081
11037SOL     OW34884   3.380   9.195   4.649
11037SOL    HW134885   3.410   9.159   4.565
11037SOL    HW234886   3.285   9.192   4.644
11038SOL     OW34887   3.139   9.063  11.676
11038SOL    HW134888   3.155   9.031  11.587
11038SOL    HW234889   3.046   9.087  11.676
11039SOL     OW34890   8.269   6.034   5.803
11039SOL    HW134891   8.257   6.010   5.895
11039SOL    HW234892   8.194   5.994   5.758
11040SOL     OW34893   6.889   9.688   6.824
11040SOL    HW134894   6.974   9.658   6.791
11040SOL    HW234895   6.834   9.695   6.746
11041SOL     OW34896   3.911   1.729   8.474
11041SOL    HW134897   3.974   1.750   8.404
11041SOL    HW234898   3.870   1.648   8.446
11042SOL     OW34899  14.512   4.246   7.467
11042SOL    HW134900  14.541   4.180   7.405
11042SOL    HW234901  14.491   4.197   7.547
11043SOL     OW34902  10.151   1.237   1.578
11043SOL    HW134903  10.180   1.325   1.553
11043SOL    HW234904  10.232   1.189   1.594
11044SOL     OW34905   0.735   7.583   5.548
11044SOL    HW134906   0.696   7.536   5.475
11044SOL    HW234907   0.698   7.671   5.543
11045SOL     OW34908   5.400   5.243   2.603
11045SOL    HW134909   5.334   5.306   2.632
11045SOL    HW234910   5.426   5.274   2.516
11046SOL     OW34911   0.305   5.779   5.353
11046SOL    HW134912   0.327   5.708   5.293
11046SOL    HW234913   0.216   5.760   5.382
11047SOL     OW34914   1.882   7.177  14.446
11047SOL    HW134915   1.907   7.136  14.364
11047SOL    HW234916   1.786   7.173  14.446
11048SOL     OW34917   7.153  13.646   8.545
11048SOL    HW134918   7.098  13.638   8.467
11048SOL    HW234919   7.242  13.634   8.512
11049SOL     OW34920  10.639   7.807   4.498
11049SOL    HW134921  10.673   7.895   4.481
11049SOL    HW234922  10.710   7.748   4.474
11050SOL     OW34923   1.293   3.961  11.438
11050SOL    HW134924   1.230   3.946  11.368
11050SOL    HW234925   1.248   3.934  11.518
11051SOL     OW34926   5.299  10.904  11.441
11051SOL    HW134927   5.232  10.954  11.395
11051SOL    HW234928   5.333  10.965  11.507
11052SOL     OW34929   5.923   8.727   9.830
11052SOL    HW134930   5.945   8.706   9.921
11052SOL    HW234931   5.931   8.822   9.825
11053SOL     OW34932   7.787   5.017   4.562
11053SOL    HW134933   7.767   5.055   4.477
11053SOL    HW234934   7.731   5.064   4.624
11054SOL     OW34935  12.471  11.373   7.856
11054SOL    HW134936  12.534  11.420   7.911
11054SOL    HW234937  12.494  11.281   7.866
11055SOL     OW34938   7.372   2.699  10.085
11055SOL    HW134939   7.420   2.617  10.076
11055SOL    HW234940   7.303   2.695  10.020
11056SOL     OW34941   0.407   6.956   4.337
11056SOL    HW134942   0.425   6.874   4.291
11056SOL    HW234943   0.357   6.930   4.414
11057SOL     OW34944  12.369   9.538   2.367
11057SOL    HW134945  12.453   9.561   2.328
11057SOL    HW234946  12.389   9.467   2.428
11058SOL     OW34947   5.048   4.255   4.288
11058SOL    HW134948   5.102   4.327   4.254
11058SOL    HW234949   4.962   4.270   4.249
11059SOL     OW34950   0.394  13.846   1.296
11059SOL    HW134951   0.479  13.889   1.304
11059SOL    HW234952   0.414  13.761   1.257
11060SOL     OW34953   9.135   0.515   3.986
11060SOL    HW134954   9.162   0.528   3.895
11060SOL    HW234955   9.172   0.430   4.011
11061SOL     OW34956  12.549   0.888   1.584
11061SOL    HW134957  12.553   0.793   1.580
11061SOL    HW234958  12.634   0.917   1.552
11062SOL     OW34959   2.094  11.669  13.740
11062SOL    HW134960   2.155  11.726  13.694
11062SOL    HW234961   2.150  11.614  13.795
11063SOL     OW34962   7.890  10.440   6.470
11063SOL    HW134963   7.804  10.445   6.429
11063SOL    HW234964   7.905  10.346   6.483
11064SOL     OW34965   9.123   1.463  12.004
11064SOL    HW134966   9.187   1.453  11.934
11064SOL    HW234967   9.049   1.410  11.976
11065SOL     OW34968   7.237   3.375   5.549
11065SOL    HW134969   7.166   3.346   5.491
11065SOL    HW234970   7.304   3.410   5.490
11066SOL     OW34971  11.388   5.161   4.287
11066SOL    HW134972  11.298   5.182   4.311
11066SOL    HW234973  11.384   5.145   4.192
11067SOL     OW34974  14.486   9.783  13.093
11067SOL    HW134975  14.448   9.871  13.089
11067SOL    HW234976  14.427   9.729  13.041
11068SOL     OW34977   8.721   7.993   4.250
11068SOL    HW134978   8.657   8.018   4.317
11068SOL    HW234979   8.678   8.013   4.167
11069SOL     OW34980   5.543   5.400  10.291
11069SOL    HW134981   5.633   5.367  10.294
11069SOL    HW234982   5.491   5.324  10.265
11070SOL     OW34983   3.483  11.366  13.697
11070SOL    HW134984   3.505  11.443  13.750
11070SOL    HW234985   3.548  11.366  13.627
11071SOL     OW34986   2.651  10.565   2.938
11071SOL    HW134987   2.581  10.623   2.907
11071SOL    HW234988   2.627  10.544   3.028
11072SOL     OW34989   0.838   5.194   4.566
11072SOL    HW134990   0.839   5.188   4.470
11072SOL    HW234991   0.924   5.228   4.589
11073SOL     OW34992   5.095   9.430   5.131
11073SOL    HW134993   5.052   9.355   5.090
11073SOL    HW234994   5.023   9.489   5.155
11074SOL     OW34995  10.384   6.651   5.226
11074SOL    HW134996  10.297   6.613   5.215
11074SOL    HW234997  10.443   6.589   5.182
11075SOL     OW34998   8.331   2.294  12.891
11075SOL    HW134999   8.315   2.310  12.983
11075SOL    HW235000   8.302   2.374  12.847
11076SOL     OW35001   1.597   4.828   7.863
11076SOL    HW135002   1.564   4.771   7.933
11076SOL    HW235003   1.522   4.884   7.841
11077SOL     OW35004  10.819   5.625  12.131
11077SOL    HW135005  10.901   5.664  12.098
11077SOL    HW235006  10.824   5.636  12.226
11078SOL     OW35007   1.593  10.465   7.481
11078SOL    HW135008   1.540  10.539   7.509
11078SOL    HW235009   1.595  10.406   7.557
11079SOL     OW35010   6.615   2.941   1.993
11079SOL    HW135011   6.588   2.989   1.915
11079SOL    HW235012   6.696   2.897   1.968
11080SOL     OW35013   9.128   0.980  10.999
11080SOL    HW135014   9.213   0.949  10.966
11080SOL    HW235015   9.068   0.907  10.982
11081SOL     OW35016   1.962   5.744  11.231
11081SOL    HW135017   1.882   5.755  11.282
11081SOL    HW235018   1.933   5.750  11.140
11082SOL     OW35019   2.059  14.638   5.928
11082SOL    HW135020   2.041  14.708   5.991
11082SOL    HW235021   2.041  14.557   5.976
11083SOL     OW35022   1.742  10.856  10.050
11083SOL    HW135023   1.677  10.836  10.117
11083SOL    HW235024   1.691  10.885   9.975
11084SOL     OW35025   0.183  13.690   0.899
11084SOL    HW135026   0.253  13.751   0.878
11084SOL    HW235027   0.149  13.721   0.983
11085SOL     OW35028  10.232  11.955   8.997
11085SOL    HW135029  10.161  11.891   9.008
11085SOL    HW235030  10.233  11.973   8.903
11086SOL     OW35031  11.895  10.129   3.924
11086SOL    HW135032  11.830  10.113   3.856
11086SOL    HW235033  11.914  10.043   3.960
11087SOL     OW35034  12.159   2.560  11.265
11087SOL    HW135035  12.196   2.567  11.178
11087SOL    HW235036  12.103   2.482  11.261
11088SOL     OW35037  14.764   3.537   2.168
11088SOL    HW135038  14.734   3.628   2.161
11088SOL    HW235039  14.858   3.543   2.183
11089SOL     OW35040  12.675   8.328   8.137
11089SOL    HW135041  12.692   8.288   8.222
11089SOL    HW235042  12.747   8.389   8.123
11090SOL     OW35043  13.030   2.288   8.688
11090SOL    HW135044  12.947   2.261   8.728
11090SOL    HW235045  13.089   2.213   8.703
11091SOL     OW35046   1.281   5.091   3.584
11091SOL    HW135047   1.282   5.183   3.611
11091SOL    HW235048   1.346   5.085   3.514
11092SOL     OW35049   9.353   6.494  14.353
11092SOL    HW135050   9.271   6.521  14.312
11092SOL    HW235051   9.421   6.521  14.290
11093SOL     OW35052   8.842  11.354   1.343
11093SOL    HW135053   8.779  11.426   1.336
11093SOL    HW235054   8.903  11.382   1.412
11094SOL     OW35055   0.526   0.241   2.201
11094SOL    HW135056   0.526   0.335   2.217
11094SOL    HW235057   0.466   0.206   2.268
11095SOL     OW35058  10.415   2.205  13.514
11095SOL    HW135059  10.355   2.244  13.451
11095SOL    HW235060  10.372   2.216  13.599
11096SOL     OW35061   7.699  12.371  10.657
11096SOL    HW135062   7.782  12.409  10.685
11096SOL    HW235063   7.683  12.410  10.570
11097SOL     OW35064   5.074  10.345   9.280
11097SOL    HW135065   5.046  10.359   9.189
11097SOL    HW235066   5.014  10.278   9.313
11098SOL     OW35067  10.753  13.667  10.899
11098SOL    HW135068  10.694  13.739  10.918
11098SOL    HW235069  10.807  13.698  10.827
11099SOL     OW35070   3.055  10.225   0.818
11099SOL    HW135071   3.112  10.227   0.895
11099SOL    HW235072   3.101  10.170   0.755
11100SOL     OW35073  11.784   1.645  10.429
11100SOL    HW135074  11.717   1.697  10.386
11100SOL    HW235075  11.736   1.577  10.476
11101SOL     OW35076   5.768   2.758  11.577
11101SOL    HW135077   5.730   2.827  11.631
11101SOL    HW235078   5.735   2.776  11.489
11102SOL     OW35079   2.325  10.362   4.536
11102SOL    HW135080   2.402  10.352   4.592
11102SOL    HW235081   2.258  10.307   4.577
11103SOL     OW35082   7.529   1.880   2.261
11103SOL    HW135083   7.441   1.916   2.253
11103SOL    HW235084   7.516   1.790   2.290
11104SOL     OW35085   7.886  10.135   8.410
11104SOL    HW135086   7.930  10.084   8.341
11104SOL    HW235087   7.845  10.069   8.465
11105SOL     OW35088  14.320  11.874   1.341
11105SOL    HW135089  14.353  11.816   1.272
11105SOL    HW235090  14.228  11.850   1.350
11106SOL     OW35091  11.937  11.979   3.389
11106SOL    HW135092  11.867  12.045   3.385
11106SOL    HW235093  11.936  11.948   3.479
11107SOL     OW35094  11.165   2.445   3.188
11107SOL    HW135095  11.238   2.500   3.160
11107SOL    HW235096  11.102   2.449   3.116
11108SOL     OW35097   9.346   5.677  10.506
11108SOL    HW135098   9.324   5.744  10.571
11108SOL    HW235099   9.262   5.645  10.475
11109SOL     OW35100   8.792  10.070   0.188
11109SOL    HW135101   8.874  10.021   0.185
11109SOL    HW235102   8.788  10.116   0.104
11110SOL     OW35103  13.864   0.593   1.445
11110SOL    HW135104  13.869   0.542   1.364
11110SOL    HW235105  13.833   0.679   1.416
11111SOL     OW35106   3.896  12.877   7.629
11111SOL    HW135107   3.901  12.869   7.724
11111SOL    HW235108   3.950  12.806   7.596
11112SOL     OW35109   4.714   1.239   6.143
11112SOL    HW135110   4.656   1.165   6.162
11112SOL    HW235111   4.696   1.301   6.214
11113SOL     OW35112   0.337  12.007   0.967
11113SOL    HW135113   0.258  11.978   1.013
11113SOL    HW235114   0.401  12.023   1.036
11114SOL     OW35115   7.137   9.755  10.811
11114SOL    HW135116   7.060   9.749  10.754
11114SOL    HW235117   7.193   9.683  10.783
11115SOL     OW35118   9.051   6.999   4.322
11115SOL    HW135119   9.013   7.058   4.388
11115SOL    HW235120   9.088   7.058   4.256
11116SOL     OW35121   2.635   4.436   6.707
11116SOL    HW135122   2.698   4.430   6.778
11116SOL    HW235123   2.687   4.431   6.627
11117SOL     OW35124  11.191   1.879   6.207
11117SOL    HW135125  11.096   1.878   6.197
11117SOL    HW235126  11.221   1.798   6.166
11118SOL     OW35127   6.551   5.564   1.879
11118SOL    HW135128   6.495   5.627   1.834
11118SOL    HW235129   6.597   5.615   1.945
11119SOL     OW35130  14.653   7.412  13.693
11119SOL    HW135131  14.736   7.444  13.729
11119SOL    HW235132  14.594   7.411  13.768
11120SOL     OW35133   9.784   2.691   5.053
11120SOL    HW135134   9.809   2.781   5.034
11120SOL    HW235135   9.691   2.687   5.033
11121SOL     OW35136   5.832   3.520   9.453
11121SOL    HW135137   5.787   3.482   9.529
11121SOL    HW235138   5.878   3.596   9.489
11122SOL     OW35139  13.181  12.201   2.597
11122SOL    HW135140  13.147  12.281   2.557
11122SOL    HW235141  13.117  12.133   2.574
11123SOL     OW35142   5.120   1.208   6.514
11123SOL    HW135143   5.171   1.289   6.510
11123SOL    HW235144   5.078   1.211   6.600
11124SOL     OW35145   8.545  10.965  10.046
11124SOL    HW135146   8.531  10.876  10.078
11124SOL    HW235147   8.510  10.963   9.956
11125SOL     OW35148  14.096  11.898   1.911
11125SOL    HW135149  14.169  11.878   1.853
11125SOL    HW235150  14.020  11.858   1.868
11126SOL     OW35151   0.097  10.880   6.853
11126SOL    HW135152   0.112  10.880   6.758
11126SOL    HW235153   0.106  10.972   6.879
11127SOL     OW35154   9.272   5.170   9.203
11127SOL    HW135155   9.315   5.250   9.171
11127SOL    HW235156   9.298   5.165   9.295
11128SOL     OW35157   7.738  11.742  10.697
11128SOL    HW135158   7.772  11.770  10.612
11128SOL    HW235159   7.707  11.823  10.738
11129SOL     OW35160   7.212  14.440   4.213
11129SOL    HW135161   7.272  14.490   4.158
11129SOL    HW235162   7.261  14.426   4.295
11130SOL     OW35163  12.951   0.324  10.888
11130SOL    HW135164  13.008   0.248  10.897
11130SOL    HW235165  12.863   0.289  10.903
11131SOL     OW35166  10.365   4.373  12.633
11131SOL    HW135167  10.276   4.391  12.602
11131SOL    HW235168  10.411   4.456  12.624
11132SOL     OW35169  10.124   3.457  12.554
11132SOL    HW135170  10.122   3.545  12.517
11132SOL    HW235171  10.212   3.424  12.531
11133SOL     OW35172   3.760   9.192   4.212
11133SOL    HW135173   3.736   9.103   4.238
11133SOL    HW235174   3.767   9.189   4.117
11134SOL     OW35175  13.393   5.633   9.364
11134SOL    HW135176  13.412   5.722   9.334
11134SOL    HW235177  13.470   5.608   9.416
11135SOL     OW35178   9.794   3.896   0.643
11135SOL    HW135179   9.760   3.815   0.681
11135SOL    HW235180   9.780   3.962   0.711
11136SOL     OW35181   3.101   9.001  10.391
11136SOL    HW135182   3.053   8.941  10.448
11136SOL    HW235183   3.155   9.053  10.451
11137SOL     OW35184   4.678  11.073  12.215
11137SOL    HW135185   4.698  11.111  12.129
11137SOL    HW235186   4.722  10.988  12.213
11138SOL     OW35187   0.682   7.389   3.297
11138SOL    HW135188   0.674   7.476   3.336
11138SOL    HW235189   0.657   7.329   3.368
11139SOL     OW35190  14.176   2.053  14.684
11139SOL    HW135191  14.138   2.076  14.769
11139SOL    HW235192  14.193   2.137  14.642
11140SOL     OW35193   1.836   3.808   4.560
11140SOL    HW135194   1.828   3.896   4.522
11140SOL    HW235195   1.865   3.824   4.650
11141SOL     OW35196   7.754  13.072  11.014
11141SOL    HW135197   7.691  13.120  10.960
11141SOL    HW235198   7.721  12.982  11.017
11142SOL     OW35199   6.066  10.553   9.080
11142SOL    HW135200   6.138  10.525   9.136
11142SOL    HW235201   5.999  10.485   9.093
11143SOL     OW35202  14.873  11.900  14.454
11143SOL    HW135203  14.847  11.992  14.446
11143SOL    HW235204  14.815  11.853  14.395
11144SOL     OW35205  12.517   6.501   0.299
11144SOL    HW135206  12.436   6.491   0.349
11144SOL    HW235207  12.586   6.504   0.366
11145SOL     OW35208   7.976  11.700   7.506
11145SOL    HW135209   8.053  11.746   7.472
11145SOL    HW235210   8.012  11.623   7.551
11146SOL     OW35211   2.205   7.275   9.748
11146SOL    HW135212   2.162   7.321   9.820
11146SOL    HW235213   2.270   7.220   9.790
11147SOL     OW35214   2.752   5.814  11.446
11147SOL    HW135215   2.822   5.805  11.382
11147SOL    HW235216   2.787   5.876  11.511
11148SOL     OW35217   9.176   4.133  13.107
11148SOL    HW135218   9.141   4.128  13.196
11148SOL    HW235219   9.231   4.055  13.099
11149SOL     OW35220   5.407   9.628   1.426
11149SOL    HW135221   5.394   9.596   1.515
11149SOL    HW235222   5.319   9.647   1.393
11150SOL     OW35223   1.785  11.876  12.685
11150SOL    HW135224   1.755  11.946  12.628
11150SOL    HW235225   1.705  11.836  12.718
11151SOL     OW35226   9.345   4.671   4.504
11151SOL    HW135227   9.398   4.707   4.575
11151SOL    HW235228   9.357   4.576   4.511
11152SOL     OW35229   5.050   0.143   4.568
11152SOL    HW135230   5.020   0.101   4.649
11152SOL    HW235231   4.999   0.100   4.499
11153SOL     OW35232  14.771   3.403   8.414
11153SOL    HW135233  14.758   3.321   8.366
11153SOL    HW235234  14.862   3.397   8.445
11154SOL     OW35235  10.294  13.852   1.599
11154SOL    HW135236  10.250  13.794   1.661
11154SOL    HW235237  10.341  13.914   1.654
11155SOL     OW35238  13.249   1.886   3.880
11155SOL    HW135239  13.286   1.868   3.966
11155SOL    HW235240  13.160   1.850   3.884
11156SOL     OW35241   1.070  12.028   0.354
11156SOL    HW135242   1.161  12.000   0.350
11156SOL    HW235243   1.032  12.001   0.270
11157SOL     OW35244  12.143   8.070   8.173
11157SOL    HW135245  12.180   8.145   8.126
11157SOL    HW235246  12.084   8.029   8.110
11158SOL     OW35247  14.014  10.146  11.994
11158SOL    HW135248  13.983  10.129  12.083
11158SOL    HW235249  14.109  10.133  11.999
11159SOL     OW35250   8.917   6.002  10.222
11159SOL    HW135251   8.935   6.038  10.309
11159SOL    HW235252   8.850   5.936  10.237
11160SOL     OW35253  11.414  10.684  13.700
11160SOL    HW135254  11.378  10.769  13.677
11160SOL    HW235255  11.486  10.671  13.639
11161SOL     OW35256  12.108   4.358  14.623
11161SOL    HW135257  12.046   4.346  14.696
11161SOL    HW235258  12.053   4.369  14.546
11162SOL     OW35259   0.862   4.541   1.650
11162SOL    HW135260   0.922   4.591   1.704
11162SOL    HW235261   0.913   4.517   1.573
11163SOL     OW35262   2.475   6.623  14.028
11163SOL    HW135263   2.400   6.604  14.085
11163SOL    HW235264   2.456   6.576  13.947
11164SOL     OW35265   3.189   0.682  14.680
11164SOL    HW135266   3.207   0.768  14.718
11164SOL    HW235267   3.099   0.663  14.708
11165SOL     OW35268   3.772   2.142   4.794
11165SOL    HW135269   3.847   2.179   4.840
11165SOL    HW235270   3.756   2.202   4.721
11166SOL     OW35271   5.934  14.343   3.386
11166SOL    HW135272   5.888  14.277   3.333
11166SOL    HW235273   6.026  14.334   3.360
11167SOL     OW35274   2.037  13.582  13.191
11167SOL    HW135275   1.989  13.614  13.114
11167SOL    HW235276   2.032  13.486  13.184
11168SOL     OW35277   2.938  13.989   0.465
11168SOL    HW135278   3.004  13.970   0.398
11168SOL    HW235279   2.920  14.083   0.455
11169SOL     OW35280   0.303   4.684  11.825
11169SOL    HW135281   0.306   4.779  11.816
11169SOL    HW235282   0.393   4.659  11.848
11170SOL     OW35283   0.485   1.149   1.313
11170SOL    HW135284   0.532   1.096   1.248
11170SOL    HW235285   0.509   1.239   1.293
11171SOL     OW35286  11.850   8.332   0.569
11171SOL    HW135287  11.822   8.395   0.502
11171SOL    HW235288  11.790   8.258   0.559
11172SOL     OW35289  14.180  10.673  13.830
11172SOL    HW135290  14.129  10.615  13.774
11172SOL    HW235291  14.165  10.640  13.919
11173SOL     OW35292  13.910   4.429   6.915
11173SOL    HW135293  13.966   4.415   6.991
11173SOL    HW235294  13.971   4.447   6.843
11174SOL     OW35295   9.471   7.105   9.758
11174SOL    HW135296   9.377   7.113   9.741
11174SOL    HW235297   9.508   7.186   9.723
11175SOL     OW35298   0.362   5.973   2.970
11175SOL    HW135299   0.368   6.004   2.880
11175SOL    HW235300   0.376   6.051   3.024
11176SOL     OW35301   9.532   9.938   8.954
11176SOL    HW135302   9.444   9.934   8.991
11176SOL    HW235303   9.531   9.873   8.883
11177SOL     OW35304  10.403   2.544  11.131
11177SOL    HW135305  10.411   2.455  11.097
11177SOL    HW235306  10.334   2.539  11.197
11178SOL     OW35307  14.446   5.990   3.236
11178SOL    HW135308  14.512   6.046   3.277
11178SOL    HW235309  14.383   5.972   3.306
11179SOL     OW35310   7.372  12.813   6.672
11179SOL    HW135311   7.346  12.730   6.712
11179SOL    HW235312   7.343  12.880   6.734
11180SOL     OW35313   2.195  10.206   0.224
11180SOL    HW135314   2.286  10.235   0.224
11180SOL    HW235315   2.181  10.171   0.312
11181SOL     OW35316   7.441   1.380   9.308
11181SOL    HW135317   7.398   1.313   9.255
11181SOL    HW235318   7.398   1.462   9.282
11182SOL     OW35319   0.648   9.152   7.992
11182SOL    HW135320   0.621   9.080   8.049
11182SOL    HW235321   0.571   9.170   7.937
11183SOL     OW35322   1.155  12.458   2.892
11183SOL    HW135323   1.077  12.442   2.838
11183SOL    HW235324   1.126  12.523   2.956
11184SOL     OW35325  13.683   2.026   7.855
11184SOL    HW135326  13.745   2.071   7.913
11184SOL    HW235327  13.672   2.086   7.781
11185SOL     OW35328   4.389   8.100   5.290
11185SOL    HW135329   4.323   8.092   5.221
11185SOL    HW235330   4.362   8.176   5.341
11186SOL     OW35331   5.066  11.820   5.709
11186SOL    HW135332   5.006  11.799   5.638
11186SOL    HW235333   5.010  11.843   5.783
11187SOL     OW35334   6.784  10.388   1.220
11187SOL    HW135335   6.865  10.394   1.269
11187SOL    HW235336   6.762  10.479   1.198
11188SOL     OW35337  14.462  10.864  10.202
11188SOL    HW135338  14.539  10.913  10.230
11188SOL    HW235339  14.457  10.790  10.262
11189SOL     OW35340   8.348   8.327  10.134
11189SOL    HW135341   8.438   8.340  10.163
11189SOL    HW235342   8.349   8.243  10.089
11190SOL     OW35343   1.720  10.000  11.602
11190SOL    HW135344   1.762  10.013  11.517
11190SOL    HW235345   1.709  10.088  11.638
11191SOL     OW35346   7.640  14.052   9.483
11191SOL    HW135347   7.698  13.994   9.434
11191SOL    HW235348   7.615  14.120   9.420
11192SOL     OW35349   0.936  12.876   0.321
11192SOL    HW135350   0.931  12.970   0.342
11192SOL    HW235351   0.926  12.873   0.226
11193SOL     OW35352   5.748   7.672   2.692
11193SOL    HW135353   5.763   7.589   2.737
11193SOL    HW235354   5.719   7.731   2.761
11194SOL     OW35355   1.073   8.664  13.430
11194SOL    HW135356   1.155   8.637  13.472
11194SOL    HW235357   1.016   8.588  13.437
11195SOL     OW35358  10.152   0.786   7.692
11195SOL    HW135359  10.184   0.711   7.641
11195SOL    HW235360  10.057   0.775   7.693
11196SOL     OW35361  13.697   1.055  13.544
11196SOL    HW135362  13.667   1.037  13.455
11196SOL    HW235363  13.719   1.148  13.543
11197SOL     OW35364   3.608   4.476  14.012
11197SOL    HW135365   3.551   4.553  14.009
11197SOL    HW235366   3.604   4.448  14.104
11198SOL     OW35367   6.806   4.229  12.850
11198SOL    HW135368   6.748   4.296  12.886
11198SOL    HW235369   6.855   4.273  12.782
11199SOL     OW35370  10.665   2.982   2.753
11199SOL    HW135371  10.725   3.056   2.758
11199SOL    HW235372  10.695   2.931   2.678
11200SOL     OW35373  13.345  14.517   7.383
11200SOL    HW135374  13.387  14.462   7.316
11200SOL    HW235375  13.252  14.513   7.362
11201SOL     OW35376  13.664  13.375   3.363
11201SOL    HW135377  13.615  13.443   3.409
11201SOL    HW235378  13.695  13.317   3.433
11202SOL     OW35379  11.667   4.007   8.589
11202SOL    HW135380  11.654   3.984   8.497
11202SOL    HW235381  11.737   4.071   8.588
11203SOL     OW35382  11.560   9.807  12.623
11203SOL    HW135383  11.506   9.823  12.545
11203SOL    HW235384  11.617   9.734  12.598
11204SOL     OW35385   4.745   3.585   9.833
11204SOL    HW135386   4.755   3.521   9.763
11204SOL    HW235387   4.798   3.660   9.805
11205SOL     OW35388   8.853   6.000   6.105
11205SOL    HW135389   8.871   5.909   6.127
11205SOL    HW235390   8.891   6.012   6.018
11206SOL     OW35391   4.752  13.869   9.691
11206SOL    HW135392   4.805  13.931   9.641
11206SOL    HW235393   4.783  13.783   9.663
11207SOL     OW35394   3.236   4.993   4.524
11207SOL    HW135395   3.217   5.070   4.470
11207SOL    HW235396   3.241   4.921   4.462
11208SOL     OW35397   3.905  10.356   1.744
11208SOL    HW135398   3.955  10.379   1.665
11208SOL    HW235399   3.893  10.439   1.789
11209SOL     OW35400   9.203  11.893  11.039
11209SOL    HW135401   9.288  11.933  11.056
11209SOL    HW235402   9.193  11.900  10.944
11210SOL     OW35403   7.455   0.066   1.304
11210SOL    HW135404   7.477   0.139   1.245
11210SOL    HW235405   7.360   0.070   1.312
11211SOL     OW35406   6.833   3.140  10.902
11211SOL    HW135407   6.744   3.109  10.916
11211SOL    HW235408   6.881   3.111  10.979
11212SOL     OW35409  12.684   6.937   8.261
11212SOL    HW135410  12.692   6.929   8.356
11212SOL    HW235411  12.593   6.917   8.243
11213SOL     OW35412   1.648   5.241   6.890
11213SOL    HW135413   1.691   5.314   6.934
11213SOL    HW235414   1.717   5.202   6.836
11214SOL     OW35415   4.237   0.204   4.547
11214SOL    HW135416   4.235   0.150   4.627
11214SOL    HW235417   4.245   0.294   4.579
11215SOL     OW35418  13.378   6.466   0.416
11215SOL    HW135419  13.388   6.496   0.326
11215SOL    HW235420  13.439   6.519   0.466
11216SOL     OW35421   2.413   4.160  12.047
11216SOL    HW135422   2.506   4.151  12.026
11216SOL    HW235423   2.408   4.152  12.142
11217SOL     OW35424   1.366  10.193   0.723
11217SOL    HW135425   1.435  10.140   0.682
11217SOL    HW235426   1.334  10.137   0.794
11218SOL     OW35427   3.376  13.473   3.601
11218SOL    HW135428   3.406  13.471   3.692
11218SOL    HW235429   3.281  13.487   3.608
11219SOL     OW35430  14.503  10.474  11.484
11219SOL    HW135431  14.499  10.466  11.580
11219SOL    HW235432  14.414  10.455  11.455
11220SOL     OW35433  12.090  12.666   2.552
11220SOL    HW135434  12.117  12.742   2.500
11220SOL    HW235435  12.139  12.675   2.633
11221SOL     OW35436   5.146  10.398   3.851
11221SOL    HW135437   5.191  10.482   3.846
11221SOL    HW235438   5.095  10.402   3.932
11222SOL     OW35439   1.625  11.774   8.714
11222SOL    HW135440   1.612  11.752   8.622
11222SOL    HW235441   1.716  11.803   8.719
11223SOL     OW35442   0.810  11.521   7.835
11223SOL    HW135443   0.860  11.518   7.917
11223SOL    HW235444   0.826  11.609   7.800
11224SOL     OW35445   0.202   2.991  13.488
11224SOL    HW135446   0.181   2.921  13.549
11224SOL    HW235447   0.204   2.949  13.403
11225SOL     OW35448   8.632  11.089   2.170
11225SOL    HW135449   8.634  11.069   2.264
11225SOL    HW235450   8.539  11.100   2.150
11226SOL     OW35451   9.595  12.751   0.198
11226SOL    HW135452   9.547  12.669   0.184
11226SOL    HW235453   9.530  12.819   0.180
11227SOL     OW35454   1.424   9.105   1.877
11227SOL    HW135455   1.353   9.147   1.827
11227SOL    HW235456   1.382   9.029   1.917
11228SOL     OW35457   3.935   2.087   3.657
11228SOL    HW135458   4.026   2.091   3.627
11228SOL    HW235459   3.912   2.177   3.677
11229SOL     OW35460   0.587  10.701   6.230
11229SOL    HW135461   0.531  10.650   6.171
11229SOL    HW235462   0.622  10.636   6.291
11230SOL     OW35463   7.513   5.249   2.572
11230SOL    HW135464   7.486   5.200   2.495
11230SOL    HW235465   7.537   5.335   2.539
11231SOL     OW35466   7.485   2.886   8.862
11231SOL    HW135467   7.479   2.881   8.767
11231SOL    HW235468   7.395   2.900   8.891
11232SOL     OW35469   0.998   2.116  14.161
11232SOL    HW135470   0.919   2.103  14.214
11232SOL    HW235471   1.037   2.196  14.196
11233SOL     OW35472  12.039   1.340   6.959
11233SOL    HW135473  12.075   1.428   6.953
11233SOL    HW235474  11.970   1.346   7.025
11234SOL     OW35475  11.363  12.459   6.419
11234SOL    HW135476  11.395  12.405   6.491
11234SOL    HW235477  11.442  12.492   6.377
11235SOL     OW35478   7.262   4.056   1.219
11235SOL    HW135479   7.315   4.135   1.206
11235SOL    HW235480   7.216   4.071   1.301
11236SOL     OW35481   4.546  10.130  13.807
11236SOL    HW135482   4.590  10.131  13.892
11236SOL    HW235483   4.611  10.166  13.747
11237SOL     OW35484  10.914   6.278   1.371
11237SOL    HW135485  10.938   6.341   1.438
11237SOL    HW235486  10.975   6.295   1.298
11238SOL     OW35487   3.285   0.912  10.597
11238SOL    HW135488   3.284   0.947  10.508
11238SOL    HW235489   3.233   0.831  10.592
11239SOL     OW35490  11.514   3.901  14.020
11239SOL    HW135491  11.452   3.925  14.088
11239SOL    HW235492  11.531   3.808  14.035
11240SOL     OW35493   3.573  13.608  14.361
11240SOL    HW135494   3.531  13.662  14.294
11240SOL    HW235495   3.517  13.618  14.438
11241SOL     OW35496  14.419   9.740   4.522
11241SOL    HW135497  14.334   9.767   4.488
11241SOL    HW235498  14.404   9.654   4.561
11242SOL     OW35499   4.221  13.937  11.803
11242SOL    HW135500   4.314  13.939  11.782
11242SOL    HW235501   4.184  14.011  11.755
11243SOL     OW35502   8.758  11.236   7.273
11243SOL    HW135503   8.827  11.280   7.323
11243SOL    HW235504   8.779  11.143   7.280
11244SOL     OW35505   3.623  14.318   7.195
11244SOL    HW135506   3.671  14.275   7.124
11244SOL    HW235507   3.691  14.363   7.246
11245SOL     OW35508   4.039   3.299   0.078
11245SOL    HW135509   4.127   3.337   0.082
11245SOL    HW235510   3.981   3.371   0.102
11246SOL     OW35511   2.770   6.776   1.712
11246SOL    HW135512   2.847   6.749   1.762
11246SOL    HW235513   2.698   6.772   1.776
11247SOL     OW35514  12.184   5.143   9.415
11247SOL    HW135515  12.269   5.102   9.399
11247SOL    HW235516  12.128   5.071   9.446
11248SOL     OW35517  12.556   5.395   0.374
11248SOL    HW135518  12.592   5.312   0.342
11248SOL    HW235519  12.607   5.462   0.329
11249SOL     OW35520  12.800   1.548  14.177
11249SOL    HW135521  12.714   1.515  14.151
11249SOL    HW235522  12.862   1.499  14.123
11250SOL     OW35523  14.377  11.318   2.248
11250SOL    HW135524  14.447  11.320   2.312
11250SOL    HW235525  14.415  11.359   2.170
11251SOL     OW35526   3.913   6.493   2.166
11251SOL    HW135527   3.870   6.408   2.156
11251SOL    HW235528   3.867   6.535   2.238
11252SOL     OW35529  12.368   3.671   2.513
11252SOL    HW135530  12.407   3.592   2.476
11252SOL    HW235531  12.302   3.698   2.449
11253SOL     OW35532   2.444   0.948  13.576
11253SOL    HW135533   2.388   0.941  13.499
11253SOL    HW235534   2.387   0.985  13.644
11254SOL     OW35535   3.821  12.257   5.174
11254SOL    HW135536   3.871  12.182   5.205
11254SOL    HW235537   3.734  12.246   5.212
11255SOL     OW35538   3.310   7.013   7.401
11255SOL    HW135539   3.358   7.058   7.470
11255SOL    HW235540   3.299   6.924   7.433
11256SOL     OW35541   8.063  13.152   8.528
11256SOL    HW135542   7.976  13.151   8.569
11256SOL    HW235543   8.090  13.244   8.532
11257SOL     OW35544  13.489   5.423  11.799
11257SOL    HW135545  13.404   5.379  11.802
11257SOL    HW235546  13.537   5.386  11.873
11258SOL     OW35547  10.282   1.762   0.726
11258SOL    HW135548  10.283   1.766   0.630
11258SOL    HW235549  10.226   1.835   0.752
11259SOL     OW35550   8.701   4.882   6.618
11259SOL    HW135551   8.761   4.808   6.630
11259SOL    HW235552   8.633   4.848   6.559
11260SOL     OW35553  11.821  13.457  12.178
11260SOL    HW135554  11.788  13.391  12.119
11260SOL    HW235555  11.743  13.501  12.212
11261SOL     OW35556  10.192   0.989   4.955
11261SOL    HW135557  10.241   1.029   4.884
11261SOL    HW235558  10.131   0.929   4.912
11262SOL     OW35559  10.406   8.807   2.811
11262SOL    HW135560  10.388   8.898   2.837
11262SOL    HW235561  10.442   8.766   2.889
11263SOL     OW35562   1.662   4.801   4.700
11263SOL    HW135563   1.698   4.799   4.789
11263SOL    HW235564   1.569   4.819   4.713
11264SOL     OW35565   3.683  14.244   9.711
11264SOL    HW135566   3.759  14.301   9.701
11264SOL    HW235567   3.702  14.192   9.789
11265SOL     OW35568   3.238   1.467   2.611
11265SOL    HW135569   3.317   1.497   2.566
11265SOL    HW235570   3.186   1.425   2.542
11266SOL     OW35571   3.638   5.354   9.828
11266SOL    HW135572   3.574   5.285   9.847
11266SOL    HW235573   3.722   5.309   9.826
11267SOL     OW35574  12.281   5.863  14.319
11267SOL    HW135575  12.341   5.805  14.365
11267SOL    HW235576  12.202   5.863  14.373
11268SOL     OW35577   0.109  14.422   7.454
11268SOL    HW135578   0.094  14.339   7.409
11268SOL    HW235579   0.042  14.481   7.419
11269SOL     OW35580  12.938  14.360   8.410
11269SOL    HW135581  12.863  14.419   8.416
11269SOL    HW235582  12.903  14.275   8.437
11270SOL     OW35583   7.809   1.325  14.816
11270SOL    HW135584   7.771   1.244  14.849
11270SOL    HW235585   7.783   1.392   0.002
11271SOL     OW35586   8.124  13.776  11.654
11271SOL    HW135587   8.167  13.691  11.642
11271SOL    HW235588   8.090  13.774  11.743
11272SOL     OW35589  12.572   8.363  11.048
11272SOL    HW135590  12.665   8.354  11.066
11272SOL    HW235591  12.532   8.285  11.087
11273SOL     OW35592   0.990   2.276   8.400
11273SOL    HW135593   0.942   2.259   8.480
11273SOL    HW235594   1.081   2.286   8.428
11274SOL     OW35595   4.885   7.438   6.389
11274SOL    HW135596   4.958   7.379   6.410
11274SOL    HW235597   4.927   7.515   6.350
11275SOL     OW35598   0.742   4.288  12.051
11275SOL    HW135599   0.766   4.290  11.958
11275SOL    HW235600   0.825   4.282  12.097
11276SOL     OW35601  12.846   8.737   3.066
11276SOL    HW135602  12.773   8.712   3.010
11276SOL    HW235603  12.840   8.677   3.141
11277SOL     OW35604  12.223   3.306   7.531
11277SOL    HW135605  12.311   3.344   7.527
11277SOL    HW235606  12.232   3.231   7.590
11278SOL     OW35607  13.321  11.611   4.171
11278SOL    HW135608  13.274  11.617   4.088
11278SOL    HW235609  13.331  11.517   4.186
11279SOL     OW35610   3.029   0.311  13.740
11279SOL    HW135611   3.037   0.285  13.832
11279SOL    HW235612   3.055   0.233  13.691
11280SOL     OW35613   4.452   6.532   9.238
11280SOL    HW135614   4.481   6.526   9.146
11280SOL    HW235615   4.432   6.624   9.251
11281SOL     OW35616  11.644   0.522   1.445
11281SOL    HW135617  11.672   0.596   1.391
11281SOL    HW235618  11.556   0.500   1.413
11282SOL     OW35619   5.298   5.309  12.476
11282SOL    HW135620   5.238   5.382  12.491
11282SOL    HW235621   5.298   5.298  12.381
11283SOL     OW35622  10.465   2.129  12.087
11283SOL    HW135623  10.480   2.036  12.072
11283SOL    HW235624  10.437   2.134  12.178
11284SOL     OW35625   5.674  12.945  13.948
11284SOL    HW135626   5.755  12.967  13.994
11284SOL    HW235627   5.624  13.027  13.946
11285SOL     OW35628   0.778   3.956   8.084
11285SOL    HW135629   0.736   4.016   8.146
11285SOL    HW235630   0.835   3.902   8.139
11286SOL     OW35631   0.140   4.449   9.657
11286SOL    HW135632   0.046   4.459   9.641
11286SOL    HW235633   0.180   4.523   9.612
11287SOL     OW35634   8.317   7.417   3.279
11287SOL    HW135635   8.312   7.511   3.293
11287SOL    HW235636   8.284   7.379   3.361
11288SOL     OW35637   2.205   4.669   9.707
11288SOL    HW135638   2.254   4.704   9.632
11288SOL    HW235639   2.114   4.688   9.687
11289SOL     OW35640   4.094   2.819   6.555
11289SOL    HW135641   4.054   2.904   6.576
11289SOL    HW235642   4.024   2.756   6.564
11290SOL     OW35643   6.436   5.233  14.562
11290SOL    HW135644   6.472   5.306  14.512
11290SOL    HW235645   6.348   5.262  14.587
11291SOL     OW35646  11.925  14.321  13.862
11291SOL    HW135647  11.971  14.402  13.842
11291SOL    HW235648  11.867  14.344  13.935
11292SOL     OW35649  10.811   5.667  11.073
11292SOL    HW135650  10.726   5.695  11.109
11292SOL    HW235651  10.826   5.581  11.113
11293SOL     OW35652  11.909   3.867   9.202
11293SOL    HW135653  11.942   3.957   9.199
11293SOL    HW235654  11.961   3.820   9.136
11294SOL     OW35655   8.517  11.796   8.400
11294SOL    HW135656   8.585  11.762   8.458
11294SOL    HW235657   8.485  11.875   8.444
11295SOL     OW35658   7.181   7.970  10.403
11295SOL    HW135659   7.203   8.023  10.326
11295SOL    HW235660   7.108   8.017  10.445
11296SOL     OW35661   6.601  14.667   1.876
11296SOL    HW135662   6.588  14.631   1.964
11296SOL    HW235663   6.689  14.637   1.851
11297SOL     OW35664   3.355  13.214   5.293
11297SOL    HW135665   3.370  13.144   5.229
11297SOL    HW235666   3.376  13.174   5.378
11298SOL     OW35667  14.164  11.518   1.145
11298SOL    HW135668  14.234  11.524   1.210
11298SOL    HW235669  14.139  11.609   1.128
11299SOL     OW35670   1.347   0.856   8.510
11299SOL    HW135671   1.397   0.774   8.500
11299SOL    HW235672   1.256   0.828   8.517
11300SOL     OW35673   2.903   5.632   6.136
11300SOL    HW135674   2.859   5.574   6.198
11300SOL    HW235675   2.961   5.685   6.191
11301SOL     OW35676   0.228   3.545   5.250
11301SOL    HW135677   0.229   3.494   5.169
11301SOL    HW235678   0.260   3.632   5.224
11302SOL     OW35679  12.607   4.160  10.528
11302SOL    HW135680  12.653   4.076  10.527
11302SOL    HW235681  12.518   4.139  10.498
11303SOL     OW35682   5.839   2.438   6.227
11303SOL    HW135683   5.889   2.507   6.272
11303SOL    HW235684   5.866   2.445   6.135
11304SOL     OW35685   4.743  14.817   0.579
11304SOL    HW135686   4.830  14.778   0.586
11304SOL    HW235687   4.727  14.855   0.666
11305SOL     OW35688   3.077   4.384   4.402
11305SOL    HW135689   3.149   4.402   4.462
11305SOL    HW235690   3.076   4.459   4.342
11306SOL     OW35691  12.747  10.216   8.048
11306SOL    HW135692  12.766  10.150   8.114
11306SOL    HW235693  12.807  10.196   7.976
11307SOL     OW35694   4.033   3.279   6.807
11307SOL    HW135695   4.063   3.331   6.732
11307SOL    HW235696   4.093   3.302   6.878
11308SOL     OW35697  13.448  10.234   0.804
11308SOL    HW135698  13.452  10.249   0.898
11308SOL    HW235699  13.363  10.193   0.789
11309SOL     OW35700   4.069   0.792  13.834
11309SOL    HW135701   3.979   0.766  13.811
11309SOL    HW235702   4.123   0.753  13.765
11310SOL     OW35703   4.007  10.394   2.433
11310SOL    HW135704   3.984  10.451   2.507
11310SOL    HW235705   3.974  10.308   2.458
11311SOL     OW35706   7.922  10.844  10.323
11311SOL    HW135707   7.976  10.775  10.283
11311SOL    HW235708   7.963  10.926  10.294
11312SOL     OW35709   0.742   1.402  10.249
11312SOL    HW135710   0.705   1.408  10.337
11312SOL    HW235711   0.666   1.396  10.191
11313SOL     OW35712   8.702   9.881  10.435
11313SOL    HW135713   8.698   9.787  10.456
11313SOL    HW235714   8.794   9.904  10.445
11314SOL     OW35715   6.345   9.559  13.337
11314SOL    HW135716   6.317   9.496  13.404
11314SOL    HW235717   6.441   9.555  13.339
11315SOL     OW35718   2.214   1.146   2.628
11315SOL    HW135719   2.158   1.223   2.638
11315SOL    HW235720   2.276   1.151   2.701
11316SOL     OW35721   3.087   7.593   0.510
11316SOL    HW135722   3.091   7.591   0.414
11316SOL    HW235723   3.150   7.528   0.538
11317SOL     OW35724   0.424   7.769   6.718
11317SOL    HW135725   0.375   7.799   6.641
11317SOL    HW235726   0.468   7.847   6.750
11318SOL     OW35727   0.142   6.776   9.691
11318SOL    HW135728   0.192   6.795   9.770
11318SOL    HW235729   0.208   6.751   9.626
11319SOL     OW35730  13.942  11.125   3.611
11319SOL    HW135731  13.917  11.152   3.523
11319SOL    HW235732  13.859  11.113   3.657
11320SOL     OW35733   6.214   2.003  13.013
11320SOL    HW135734   6.270   1.967  12.944
11320SOL    HW235735   6.254   1.973  13.094
11321SOL     OW35736   9.990   4.812   4.384
11321SOL    HW135737  10.014   4.808   4.292
11321SOL    HW235738   9.897   4.788   4.385
11322SOL     OW35739  11.364   4.745  13.140
11322SOL    HW135740  11.390   4.670  13.194
11322SOL    HW235741  11.268   4.738  13.134
11323SOL     OW35742   4.950  11.849  10.095
11323SOL    HW135743   4.892  11.894  10.157
11323SOL    HW235744   4.915  11.871  10.009
11324SOL     OW35745   5.006   0.977   4.658
11324SOL    HW135746   5.076   1.040   4.673
11324SOL    HW235747   5.046   0.891   4.674
11325SOL     OW35748   2.776  14.432   4.382
11325SOL    HW135749   2.775  14.524   4.407
11325SOL    HW235750   2.683  14.409   4.374
11326SOL     OW35751   5.438   4.940  10.528
11326SOL    HW135752   5.395   4.855  10.522
11326SOL    HW235753   5.524   4.927  10.488
11327SOL     OW35754  10.261  12.316   5.736
11327SOL    HW135755  10.239  12.379   5.667
11327SOL    HW235756  10.257  12.366   5.817
11328SOL     OW35757   9.012  12.261  12.464
11328SOL    HW135758   9.083  12.242  12.525
11328SOL    HW235759   8.966  12.178  12.454
11329SOL     OW35760   6.085   2.764  11.924
11329SOL    HW135761   6.003   2.787  11.967
11329SOL    HW235762   6.099   2.672  11.946
11330SOL     OW35763   4.791   9.130   1.071
11330SOL    HW135764   4.842   9.088   1.141
11330SOL    HW235765   4.782   9.221   1.099
11331SOL     OW35766   8.251   3.908   6.210
11331SOL    HW135767   8.252   3.997   6.245
11331SOL    HW235768   8.299   3.915   6.127
11332SOL     OW35769  12.931   1.755   0.083
11332SOL    HW135770  12.843   1.782   0.059
11332SOL    HW235771  12.988   1.818   0.040
11333SOL     OW35772   0.003  10.704   2.799
11333SOL    HW135773  14.814  10.715   2.731
11333SOL    HW235774   0.010  10.609   2.810
11334SOL     OW35775   7.610  13.871  10.851
11334SOL    HW135776   7.643  13.942  10.795
11334SOL    HW235777   7.522  13.898  10.875
11335SOL     OW35778   9.397   3.457  10.577
11335SOL    HW135779   9.349   3.444  10.496
11335SOL    HW235780   9.354   3.532  10.619
11336SOL     OW35781   0.788  13.728   7.152
11336SOL    HW135782   0.826  13.664   7.091
11336SOL    HW235783   0.720  13.772   7.101
11337SOL     OW35784  11.585   5.749   2.638
11337SOL    HW135785  11.494   5.779   2.642
11337SOL    HW235786  11.635   5.820   2.680
11338SOL     OW35787  13.240   4.201   2.842
11338SOL    HW135788  13.202   4.248   2.916
11338SOL    HW235789  13.323   4.168   2.875
11339SOL     OW35790   5.411   5.239   5.295
11339SOL    HW135791   5.453   5.207   5.375
11339SOL    HW235792   5.387   5.329   5.315
11340SOL     OW35793  13.512   8.923  14.351
11340SOL    HW135794  13.546   8.839  14.381
11340SOL    HW235795  13.481   8.907  14.263
11341SOL     OW35796   0.764   8.934  10.062
11341SOL    HW135797   0.770   9.003  10.128
11341SOL    HW235798   0.840   8.948  10.006
11342SOL     OW35799  10.547  10.129   0.822
11342SOL    HW135800  10.572  10.038   0.841
11342SOL    HW235801  10.512  10.162   0.905
11343SOL     OW35802   2.088  10.008  10.097
11343SOL    HW135803   2.177   9.994  10.129
11343SOL    HW235804   2.063   9.924  10.059
11344SOL     OW35805   7.034   1.374   6.404
11344SOL    HW135806   7.094   1.328   6.345
11344SOL    HW235807   7.019   1.313   6.476
11345SOL     OW35808   7.630   3.343   7.116
11345SOL    HW135809   7.618   3.293   7.197
11345SOL    HW235810   7.699   3.296   7.069
11346SOL     OW35811   5.823   4.610   7.764
11346SOL    HW135812   5.793   4.539   7.820
11346SOL    HW235813   5.905   4.578   7.726
11347SOL     OW35814  14.866   5.454   4.508
11347SOL    HW135815  14.807   5.401   4.561
11347SOL    HW235816   0.042   5.501   4.572
11348SOL     OW35817  12.925  13.801   9.147
11348SOL    HW135818  12.867  13.779   9.220
11348SOL    HW235819  12.924  13.896   9.143
11349SOL     OW35820  13.780  13.405   3.073
11349SOL    HW135821  13.758  13.365   3.157
11349SOL    HW235822  13.698  13.405   3.024
11350SOL     OW35823  10.154   4.224   6.937
11350SOL    HW135824  10.208   4.281   6.992
11350SOL    HW235825  10.131   4.279   6.862
11351SOL     OW35826  10.066   8.640   5.347
11351SOL    HW135827  10.067   8.735   5.331
11351SOL    HW235828  10.156   8.613   5.335
11352SOL     OW35829   3.404   8.921  12.364
11352SOL    HW135830   3.431   8.840  12.320
11352SOL    HW235831   3.421   8.990  12.299
11353SOL     OW35832  10.666  14.572  12.833
11353SOL    HW135833  10.675  14.481  12.806
11353SOL    HW235834  10.710  14.577  12.918
11354SOL     OW35835  14.120  14.587  11.841
11354SOL    HW135836  14.041  14.573  11.789
11354SOL    HW235837  14.168  14.504  11.835
11355SOL     OW35838   8.080   7.807   8.067
11355SOL    HW135839   8.069   7.868   8.141
11355SOL    HW235840   8.047   7.856   7.991
11356SOL     OW35841  14.836   0.298   7.703
11356SOL    HW135842  14.787   0.377   7.726
11356SOL    HW235843  14.871   0.316   7.615
11357SOL     OW35844  12.082  13.156  13.206
11357SOL    HW135845  12.158  13.110  13.171
11357SOL    HW235846  12.113  13.192  13.290
11358SOL     OW35847   0.443   7.180   6.659
11358SOL    HW135848   0.474   7.108   6.604
11358SOL    HW235849   0.367   7.145   6.704
11359SOL     OW35850   7.166   7.160  13.749
11359SOL    HW135851   7.232   7.113  13.699
11359SOL    HW235852   7.084   7.114  13.731
11360SOL     OW35853   0.810   4.131   4.962
11360SOL    HW135854   0.741   4.109   4.900
11360SOL    HW235855   0.885   4.079   4.933
11361SOL     OW35856   2.898  13.826   6.019
11361SOL    HW135857   2.918  13.775   6.097
11361SOL    HW235858   2.984  13.848   5.982
11362SOL     OW35859  14.728   6.111   6.608
11362SOL    HW135860  14.677   6.042   6.650
11362SOL    HW235861  14.674   6.140   6.534
11363SOL     OW35862  12.002   3.868  13.457
11363SOL    HW135863  11.951   3.913  13.391
11363SOL    HW235864  12.055   3.805  13.409
11364SOL     OW35865   9.725  11.139   4.121
11364SOL    HW135866   9.767  11.211   4.168
11364SOL    HW235867   9.668  11.182   4.058
11365SOL     OW35868   1.205   7.562  12.397
11365SOL    HW135869   1.225   7.543  12.489
11365SOL    HW235870   1.111   7.577  12.395
11366SOL     OW35871   4.926   7.674   1.536
11366SOL    HW135872   4.896   7.683   1.446
11366SOL    HW235873   4.852   7.702   1.590
11367SOL     OW35874  13.115  12.742   1.601
11367SOL    HW135875  13.024  12.757   1.576
11367SOL    HW235876  13.113  12.660   1.651
11368SOL     OW35877   7.431   9.034   3.622
11368SOL    HW135878   7.336   9.023   3.618
11368SOL    HW235879   7.443   9.110   3.679
11369SOL     OW35880   4.545   5.730   4.700
11369SOL    HW135881   4.593   5.702   4.623
11369SOL    HW235882   4.593   5.692   4.774
11370SOL     OW35883   2.839   8.329  12.379
11370SOL    HW135884   2.841   8.424  12.380
11370SOL    HW235885   2.928   8.302  12.401
11371SOL     OW35886   9.286   2.577   8.786
11371SOL    HW135887   9.369   2.623   8.779
11371SOL    HW235888   9.310   2.488   8.814
11372SOL     OW35889  12.469  14.217  12.723
11372SOL    HW135890  12.441  14.280  12.789
11372SOL    HW235891  12.480  14.135  12.771
11373SOL     OW35892   0.971   5.730   4.203
11373SOL    HW135893   1.048   5.673   4.194
11373SOL    HW235894   1.007   5.815   4.227
11374SOL     OW35895   1.948  11.698  11.009
11374SOL    HW135896   1.928  11.771  11.067
11374SOL    HW235897   1.916  11.621  11.057
11375SOL     OW35898   6.033   1.078   7.566
11375SOL    HW135899   6.003   0.990   7.544
11375SOL    HW235900   6.128   1.069   7.573
11376SOL     OW35901   6.511   6.775   8.699
11376SOL    HW135902   6.601   6.748   8.682
11376SOL    HW235903   6.461   6.736   8.627
11377SOL     OW35904   3.308   1.982   4.771
11377SOL    HW135905   3.273   1.920   4.835
11377SOL    HW235906   3.401   1.987   4.791
11378SOL     OW35907   3.551  10.566  12.428
11378SOL    HW135908   3.638  10.577  12.389
11378SOL    HW235909   3.516  10.487  12.387
11379SOL     OW35910   0.977   7.269   1.047
11379SOL    HW135911   0.927   7.320   1.110
11379SOL    HW235912   0.919   7.197   1.022
11380SOL     OW35913   0.945   7.907   7.274
11380SOL    HW135914   0.891   7.837   7.236
11380SOL    HW235915   0.899   7.988   7.250
11381SOL     OW35916   4.593  13.481   4.862
11381SOL    HW135917   4.523  13.505   4.801
11381SOL    HW235918   4.641  13.562   4.877
11382SOL     OW35919   2.961   0.449   5.851
11382SOL    HW135920   2.891   0.508   5.879
11382SOL    HW235921   2.943   0.367   5.898
11383SOL     OW35922   3.755  13.394   1.417
11383SOL    HW135923   3.847  13.396   1.446
11383SOL    HW235924   3.706  13.376   1.497
11384SOL     OW35925   5.461  13.762   8.067
11384SOL    HW135926   5.452  13.817   8.146
11384SOL    HW235927   5.554  13.739   8.064
11385SOL     OW35928  14.854  14.420   1.970
11385SOL    HW135929  14.822  14.500   1.929
11385SOL    HW235930   0.069  14.436   1.986
11386SOL     OW35931   5.621   4.968   5.215
11386SOL    HW135932   5.607   5.007   5.301
11386SOL    HW235933   5.540   4.918   5.199
11387SOL     OW35934   0.033  14.424   6.652
11387SOL    HW135935   0.101  14.387   6.707
11387SOL    HW235936  14.862  14.348   6.620
11388SOL     OW35937   7.277  10.717   7.912
11388SOL    HW135938   7.227  10.638   7.893
11388SOL    HW235939   7.367  10.695   7.886
11389SOL     OW35940  12.351  10.995   0.839
11389SOL    HW135941  12.329  10.937   0.911
11389SOL    HW235942  12.295  10.967   0.767
11390SOL     OW35943   8.150   8.461   3.751
11390SOL    HW135944   8.199   8.425   3.825
11390SOL    HW235945   8.200   8.538   3.723
11391SOL     OW35946   7.219  12.670   0.783
11391SOL    HW135947   7.308  12.656   0.751
11391SOL    HW235948   7.163  12.651   0.708
11392SOL     OW35949  10.561   1.060   2.831
11392SOL    HW135950  10.486   1.049   2.890
11392SOL    HW235951  10.532   1.019   2.749
11393SOL     OW35952   5.566   5.077   4.691
11393SOL    HW135953   5.586   5.039   4.776
11393SOL    HW235954   5.570   5.003   4.630
11394SOL     OW35955   3.500  12.189   9.671
11394SOL    HW135956   3.465  12.106   9.703
11394SOL    HW235957   3.529  12.170   9.582
11395SOL     OW35958   4.002   9.725   1.498
11395SOL    HW135959   3.961   9.776   1.568
11395SOL    HW235960   3.982   9.773   1.418
11396SOL     OW35961  14.704   5.015   4.033
11396SOL    HW135962  14.735   5.024   3.942
11396SOL    HW235963  14.642   5.087   4.044
11397SOL     OW35964  12.207  12.051   5.590
11397SOL    HW135965  12.144  11.999   5.540
11397SOL    HW235966  12.194  12.141   5.558
11398SOL     OW35967   7.030   7.682  12.066
11398SOL    HW135968   6.972   7.758  12.066
11398SOL    HW235969   6.998   7.628  11.994
11399SOL     OW35970   6.319   9.674   2.968
11399SOL    HW135971   6.275   9.760   2.972
11399SOL    HW235972   6.410   9.695   2.945
11400SOL     OW35973  11.436   8.433   1.191
11400SOL    HW135974  11.392   8.363   1.239
11400SOL    HW235975  11.482   8.483   1.258
11401SOL     OW35976   1.826   7.606   0.290
11401SOL    HW135977   1.916   7.583   0.269
11401SOL    HW235978   1.827   7.620   0.384
11402SOL     OW35979   1.952   1.152   8.404
11402SOL    HW135980   2.029   1.187   8.359
11402SOL    HW235981   1.938   1.065   8.365
11403SOL     OW35982   8.701  12.852  10.330
11403SOL    HW135983   8.653  12.858  10.248
11403SOL    HW235984   8.779  12.907  10.317
11404SOL     OW35985  14.714   2.606   8.881
11404SOL    HW135986  14.782   2.545   8.852
11404SOL    HW235987  14.762   2.680   8.917
11405SOL     OW35988  12.897   1.844   1.436
11405SOL    HW135989  12.905   1.839   1.341
11405SOL    HW235990  12.860   1.760   1.462
11406SOL     OW35991  10.780   2.520   3.534
11406SOL    HW135992  10.714   2.493   3.597
11406SOL    HW235993  10.758   2.471   3.454
11407SOL     OW35994   3.095  11.128   4.142
11407SOL    HW135995   3.163  11.061   4.142
11407SOL    HW235996   3.108  11.176   4.224
11408SOL     OW35997  12.589  14.303   8.225
11408SOL    HW135998  12.629  14.385   8.253
11408SOL    HW235999  12.587  14.249   8.304
11409SOL     OW36000   2.906   7.373  12.693
11409SOL    HW136001   2.902   7.279  12.677
11409SOL    HW236002   2.825   7.393  12.740
11410SOL     OW36003  13.784   2.858  10.307
11410SOL    HW136004  13.731   2.928  10.268
11410SOL    HW236005  13.742   2.777  10.275
11411SOL     OW36006  12.555   0.866   5.429
11411SOL    HW136007  12.590   0.923   5.497
11411SOL    HW236008  12.632   0.822   5.393
11412SOL     OW36009   2.928   8.559  14.461
11412SOL    HW136010   2.932   8.650  14.487
11412SOL    HW236011   2.999   8.516  14.508
11413SOL     OW36012   0.387   6.194   6.950
11413SOL    HW136013   0.380   6.268   7.010
11413SOL    HW236014   0.480   6.172   6.950
11414SOL     OW36015   3.076  11.084   3.843
11414SOL    HW136016   3.037  11.090   3.929
11414SOL    HW236017   3.155  11.139   3.847
11415SOL     OW36018   8.351   7.471   9.060
11415SOL    HW136019   8.422   7.513   9.011
11415SOL    HW236020   8.273   7.485   9.006
11416SOL     OW36021  12.107  10.149   2.448
11416SOL    HW136022  12.192  10.135   2.405
11416SOL    HW236023  12.111  10.095   2.527
11417SOL     OW36024   9.062   0.528   5.112
11417SOL    HW136025   9.155   0.510   5.126
11417SOL    HW236026   9.026   0.444   5.083
11418SOL     OW36027   7.866   3.836  13.057
11418SOL    HW136028   7.784   3.877  13.031
11418SOL    HW236029   7.913   3.822  12.974
11419SOL     OW36030   6.604  13.101   6.384
11419SOL    HW136031   6.514  13.066   6.383
11419SOL    HW236032   6.648  13.051   6.452
11420SOL     OW36033   6.059  14.856  14.274
11420SOL    HW136034   6.144   0.012  14.247
11420SOL    HW236035   6.054  14.873  14.368
11421SOL     OW36036   5.615   6.379   2.444
11421SOL    HW136037   5.633   6.420   2.528
11421SOL    HW236038   5.639   6.444   2.379
11422SOL     OW36039  11.262   0.107   2.358
11422SOL    HW136040  11.177   0.095   2.315
11422SOL    HW236041  11.243   0.161   2.435
11423SOL     OW36042  13.446   5.766   5.993
11423SOL    HW136043  13.428   5.785   6.085
11423SOL    HW236044  13.521   5.821   5.971
11424SOL     OW36045   9.015   7.168   6.681
11424SOL    HW136046   9.080   7.234   6.653
11424SOL    HW236047   8.931   7.213   6.673
11425SOL     OW36048   3.924   9.284   6.831
11425SOL    HW136049   3.981   9.207   6.826
11425SOL    HW236050   3.982   9.358   6.812
11426SOL     OW36051   6.345  11.383   5.893
11426SOL    HW136052   6.253  11.408   5.880
11426SOL    HW236053   6.390  11.465   5.911
11427SOL     OW36054  13.504   8.258  12.888
11427SOL    HW136055  13.530   8.299  12.971
11427SOL    HW236056  13.569   8.289  12.825
11428SOL     OW36057  10.106  13.041  10.754
11428SOL    HW136058  10.032  13.040  10.815
11428SOL    HW236059  10.180  13.074  10.805
11429SOL     OW36060   2.564   9.077  13.692
11429SOL    HW136061   2.651   9.087  13.654
11429SOL    HW236062   2.504   9.071  13.618
11430SOL     OW36063  14.052  11.829   1.317
11430SOL    HW136064  14.042  11.801   1.226
11430SOL    HW236065  14.027  11.922   1.316
11431SOL     OW36066   6.201   6.878   3.693
11431SOL    HW136067   6.162   6.961   3.663
11431SOL    HW236068   6.127   6.827   3.724
11432SOL     OW36069  12.808   5.133   4.740
11432SOL    HW136070  12.829   5.120   4.648
11432SOL    HW236071  12.868   5.202   4.769
11433SOL     OW36072   7.277   6.622  13.674
11433SOL    HW136073   7.327   6.688  13.721
11433SOL    HW236074   7.307   6.539  13.711
11434SOL     OW36075   0.554   0.382   9.361
11434SOL    HW136076   0.590   0.457   9.407
11434SOL    HW236077   0.614   0.310   9.382
11435SOL     OW36078  11.056   2.552  11.043
11435SOL    HW136079  11.062   2.603  11.123
11435SOL    HW236080  11.085   2.465  11.067
11436SOL     OW36081   6.199   7.753   6.255
11436SOL    HW136082   6.216   7.816   6.324
11436SOL    HW236083   6.162   7.805   6.184
11437SOL     OW36084  13.252  14.519   8.661
11437SOL    HW136085  13.196  14.547   8.589
11437SOL    HW236086  13.282  14.601   8.701
11438SOL     OW36087  13.801  12.148  10.126
11438SOL    HW136088  13.802  12.082  10.194
11438SOL    HW236089  13.749  12.110  10.056
11439SOL     OW36090   0.039   6.834   8.722
11439SOL    HW136091  14.874   6.825   8.637
11439SOL    HW236092  14.846   6.832   8.786
11440SOL     OW36093   0.904  12.294   1.132
11440SOL    HW136094   0.980  12.239   1.145
11440SOL    HW236095   0.829  12.234   1.136
11441SOL     OW36096  11.235  13.136   6.471
11441SOL    HW136097  11.145  13.167   6.469
11441SOL    HW236098  11.285  13.202   6.423
11442SOL     OW36099  11.296   0.381   4.983
11442SOL    HW136100  11.283   0.472   5.011
11442SOL    HW236101  11.391   0.372   4.975
11443SOL     OW36102   3.659   5.276  13.455
11443SOL    HW136103   3.582   5.331  13.442
11443SOL    HW236104   3.685   5.249  13.367
11444SOL     OW36105   8.753  10.456   6.870
11444SOL    HW136106   8.687  10.433   6.805
11444SOL    HW236107   8.702  10.480   6.948
11445SOL     OW36108   1.442   0.550   1.307
11445SOL    HW136109   1.528   0.529   1.270
11445SOL    HW236110   1.462   0.594   1.390
11446SOL     OW36111  11.155   5.844   8.166
11446SOL    HW136112  11.076   5.801   8.134
11446SOL    HW236113  11.183   5.790   8.240
11447SOL     OW36114  13.651   3.224   7.293
11447SOL    HW136115  13.693   3.304   7.326
11447SOL    HW236116  13.565   3.252   7.263
11448SOL     OW36117   4.842   0.054   7.362
11448SOL    HW136118   4.831  14.840   7.388
11448SOL    HW236119   4.845   0.051   7.267
11449SOL     OW36120   0.911  11.282   9.617
11449SOL    HW136121   0.892  11.373   9.595
11449SOL    HW236122   0.979  11.287   9.684
11450SOL     OW36123   2.253   0.925   4.070
11450SOL    HW136124   2.344   0.935   4.097
11450SOL    HW236125   2.211   1.007   4.094
11451SOL     OW36126  14.039  12.484   4.054
11451SOL    HW136127  14.044  12.545   4.128
11451SOL    HW236128  14.085  12.406   4.085
11452SOL     OW36129   4.423   4.520   0.106
11452SOL    HW136130   4.377   4.593   0.148
11452SOL    HW236131   4.465   4.559   0.029
11453SOL     OW36132   1.031  13.070  10.858
11453SOL    HW136133   1.116  13.074  10.900
11453SOL    HW236134   0.969  13.053  10.929
11454SOL     OW36135  11.001   8.517   1.833
11454SOL    HW136136  11.037   8.595   1.791
11454SOL    HW236137  10.913   8.543   1.862
11455SOL     OW36138   9.267  13.898  12.445
11455SOL    HW136139   9.220  13.976  12.415
11455SOL    HW236140   9.217  13.825  12.409
11456SOL     OW36141  14.017   2.048   5.112
11456SOL    HW136142  13.956   1.981   5.079
11456SOL    HW236143  14.066   2.076   5.035
11457SOL     OW36144   0.409  10.603  12.063
11457SOL    HW136145   0.430  10.540  12.132
11457SOL    HW236146   0.468  10.677  12.080
11458SOL     OW36147  13.971  12.571  10.414
11458SOL    HW136148  14.011  12.655  10.436
11458SOL    HW236149  13.912  12.591  10.341
11459SOL     OW36150  11.579   3.870  10.930
11459SOL    HW136151  11.552   3.808  10.861
11459SOL    HW236152  11.556   3.826  11.012
11460SOL     OW36153  11.704  11.360   2.943
11460SOL    HW136154  11.771  11.374   2.876
11460SOL    HW236155  11.740  11.400   3.022
11461SOL     OW36156   9.471   3.738   4.541
11461SOL    HW136157   9.525   3.688   4.480
11461SOL    HW236158   9.535   3.785   4.596
11462SOL     OW36159   3.555   1.333  13.642
11462SOL    HW136160   3.520   1.399  13.702
11462SOL    HW236161   3.505   1.345  13.561
11463SOL     OW36162   4.500  11.102   4.193
11463SOL    HW136163   4.520  11.133   4.105
11463SOL    HW236164   4.529  11.172   4.251
11464SOL     OW36165   0.614   3.116  11.838
11464SOL    HW136166   0.663   3.157  11.909
11464SOL    HW236167   0.527   3.102  11.874
11465SOL     OW36168   9.982   5.027   0.160
11465SOL    HW136169   9.904   5.033   0.214
11465SOL    HW236170  10.053   5.060   0.217
11466SOL     OW36171   9.940   8.170  11.704
11466SOL    HW136172   9.862   8.118  11.686
11466SOL    HW236173  10.008   8.131  11.648
11467SOL     OW36174  13.647  13.551   5.391
11467SOL    HW136175  13.631  13.466   5.430
11467SOL    HW236176  13.734  13.575   5.422
11468SOL     OW36177  10.115   1.079   5.861
11468SOL    HW136178  10.143   1.115   5.777
11468SOL    HW236179  10.025   1.110   5.872
11469SOL     OW36180  10.974   6.662  13.382
11469SOL    HW136181  10.885   6.685  13.356
11469SOL    HW236182  11.011   6.616  13.307
11470SOL     OW36183   7.604   1.450   6.441
11470SOL    HW136184   7.554   1.438   6.523
11470SOL    HW236185   7.587   1.541   6.416
11471SOL     OW36186   4.480   5.889   8.853
11471SOL    HW136187   4.439   5.868   8.769
11471SOL    HW236188   4.409   5.884   8.916
11472SOL     OW36189  13.802   5.584  12.198
11472SOL    HW136190  13.760   5.664  12.230
11472SOL    HW236191  13.781   5.583  12.104
11473SOL     OW36192   0.218   6.999   1.532
11473SOL    HW136193   0.308   7.031   1.519
11473SOL    HW236194   0.228   6.904   1.540
11474SOL     OW36195   9.554   6.285   7.633
11474SOL    HW136196   9.545   6.190   7.645
11474SOL    HW236197   9.467   6.313   7.604
11475SOL     OW36198   3.135   0.061   5.473
11475SOL    HW136199   3.042   0.064   5.497
11475SOL    HW236200   3.173   0.140   5.511
11476SOL     OW36201  14.576   7.210   8.448
11476SOL    HW136202  14.551   7.296   8.483
11476SOL    HW236203  14.518   7.198   8.373
11477SOL     OW36204  10.235   6.771   3.920
11477SOL    HW136205  10.224   6.845   3.980
11477SOL    HW236206  10.165   6.711   3.944
11478SOL     OW36207   2.643   2.704   1.667
11478SOL    HW136208   2.580   2.695   1.739
11478SOL    HW236209   2.725   2.672   1.703
11479SOL     OW36210  13.780   2.015   2.187
11479SOL    HW136211  13.757   2.089   2.242
11479SOL    HW236212  13.722   1.944   2.217
11480SOL     OW36213  13.607   4.433   5.035
11480SOL    HW136214  13.672   4.481   5.087
11480SOL    HW236215  13.523   4.468   5.063
11481SOL     OW36216   0.196  11.834   0.421
11481SOL    HW136217   0.267  11.774   0.401
11481SOL    HW236218   0.155  11.798   0.500
11482SOL     OW36219   4.191  14.296   6.721
11482SOL    HW136220   4.145  14.238   6.660
11482SOL    HW236221   4.175  14.256   6.807
11483SOL     OW36222  14.485   3.396   5.065
11483SOL    HW136223  14.563   3.363   5.109
11483SOL    HW236224  14.470   3.483   5.104
11484SOL     OW36225  14.363  13.640  13.002
11484SOL    HW136226  14.279  13.627  12.958
11484SOL    HW236227  14.339  13.659  13.093
11485SOL     OW36228   8.979  14.441  10.888
11485SOL    HW136229   9.056  14.385  10.883
11485SOL    HW236230   8.931  14.424  10.807
11486SOL     OW36231   3.015   9.188  14.587
11486SOL    HW136232   3.072   9.181  14.663
11486SOL    HW236233   3.003   9.098  14.556
11487SOL     OW36234   5.937   0.011   4.060
11487SOL    HW136235   5.992   0.001   4.137
11487SOL    HW236236   5.931   0.105   4.046
11488SOL     OW36237   1.404   1.545   1.145
11488SOL    HW136238   1.427   1.590   1.226
11488SOL    HW236239   1.314   1.514   1.159
11489SOL     OW36240   9.823   9.892  12.041
11489SOL    HW136241   9.758   9.881  12.111
11489SOL    HW236242   9.872   9.810  12.041
11490SOL     OW36243   1.714  11.034  12.000
11490SOL    HW136244   1.769  10.966  12.039
11490SOL    HW236245   1.776  11.088  11.950
11491SOL     OW36246   5.368   0.511  14.184
11491SOL    HW136247   5.398   0.563  14.259
11491SOL    HW236248   5.432   0.527  14.116
11492SOL     OW36249   1.044   4.807   9.991
11492SOL    HW136250   1.004   4.886  10.027
11492SOL    HW236251   0.982   4.778   9.924
11493SOL     OW36252   2.844  10.261   0.476
11493SOL    HW136253   2.785  10.331   0.505
11493SOL    HW236254   2.785  10.189   0.452
11494SOL     OW36255   3.343   1.354   1.331
11494SOL    HW136256   3.353   1.303   1.250
11494SOL    HW236257   3.380   1.440   1.309
11495SOL     OW36258   6.337   6.464   2.084
11495SOL    HW136259   6.254   6.471   2.132
11495SOL    HW236260   6.335   6.378   2.043
11496SOL     OW36261   3.913   4.080   0.590
11496SOL    HW136262   3.896   3.986   0.597
11496SOL    HW236263   3.940   4.106   0.679
11497SOL     OW36264   7.874   5.553   8.575
11497SOL    HW136265   7.962   5.584   8.556
11497SOL    HW236266   7.887   5.472   8.625
11498SOL     OW36267   2.058   7.178   6.960
11498SOL    HW136268   1.984   7.169   7.020
11498SOL    HW236269   2.116   7.241   7.002
11499SOL     OW36270   4.221   2.226   6.716
11499SOL    HW136271   4.236   2.319   6.732
11499SOL    HW236272   4.309   2.188   6.714
11500SOL     OW36273  14.357   8.093   6.914
11500SOL    HW136274  14.294   8.031   6.952
11500SOL    HW236275  14.421   8.108   6.983
11501SOL     OW36276  10.617   3.687   8.310
11501SOL    HW136277  10.672   3.665   8.386
11501SOL    HW236278  10.528   3.677   8.341
11502SOL     OW36279   9.551   4.668   6.907
11502SOL    HW136280   9.640   4.665   6.871
11502SOL    HW236281   9.504   4.728   6.850
11503SOL     OW36282   8.721   6.666   1.919
11503SOL    HW136283   8.717   6.671   1.823
11503SOL    HW236284   8.687   6.751   1.948
11504SOL     OW36285   4.086  12.686   0.097
11504SOL    HW136286   3.999  12.725   0.106
11504SOL    HW236287   4.146  12.759   0.111
11505SOL     OW36288   0.060   5.661  11.197
11505SOL    HW136289   0.111   5.656  11.116
11505SOL    HW236290  14.847   5.663  11.167
11506SOL     OW36291   5.888  14.373   0.225
11506SOL    HW136292   5.825  14.397   0.157
11506SOL    HW236293   5.847  14.299   0.270
11507SOL     OW36294   5.776   8.861  13.285
11507SOL    HW136295   5.748   8.910  13.208
11507SOL    HW236296   5.851   8.909  13.319
11508SOL     OW36297  10.975  10.126   4.708
11508SOL    HW136298  11.053  10.078   4.737
11508SOL    HW236299  10.985  10.213   4.749
11509SOL     OW36300   7.403  13.542   0.770
11509SOL    HW136301   7.383  13.618   0.714
11509SOL    HW236302   7.488  13.563   0.808
11510SOL     OW36303  13.987  13.812   5.268
11510SOL    HW136304  13.987  13.717   5.264
11510SOL    HW236305  13.965  13.833   5.359
11511SOL     OW36306   3.437   3.161  12.459
11511SOL    HW136307   3.510   3.105  12.485
11511SOL    HW236308   3.379   3.103  12.408
11512SOL     OW36309  11.141  12.095   2.785
11512SOL    HW136310  11.223  12.070   2.743
11512SOL    HW236311  11.148  12.059   2.874
11513SOL     OW36312   6.044  14.606   6.115
11513SOL    HW136313   6.062  14.616   6.208
11513SOL    HW236314   6.006  14.518   6.107
11514SOL     OW36315   8.527   5.324   6.556
11514SOL    HW136316   8.512   5.244   6.506
11514SOL    HW236317   8.527   5.296   6.647
11515SOL     OW36318   5.670  11.742  13.249
11515SOL    HW136319   5.618  11.674  13.206
11515SOL    HW236320   5.672  11.814  13.186
11516SOL     OW36321   0.837   9.769   5.354
11516SOL    HW136322   0.748   9.734   5.342
11516SOL    HW236323   0.824   9.864   5.361
11517SOL     OW36324  14.503  11.454   6.825
11517SOL    HW136325  14.462  11.385   6.773
11517SOL    HW236326  14.581  11.413   6.863
11518SOL     OW36327  12.228   1.900  13.215
11518SOL    HW136328  12.300   1.880  13.275
11518SOL    HW236329  12.163   1.832  13.233
11519SOL     OW36330   3.970  11.003   4.239
11519SOL    HW136331   3.992  10.915   4.209
11519SOL    HW236332   4.054  11.043   4.261
11520SOL     OW36333   7.863   8.115   8.876
11520SOL    HW136334   7.815   8.114   8.793
11520SOL    HW236335   7.950   8.146   8.853
11521SOL     OW36336   6.502   0.419  12.974
11521SOL    HW136337   6.541   0.355  12.914
11521SOL    HW236338   6.413   0.430  12.942
11522SOL     OW36339  12.533   2.153  11.011
11522SOL    HW136340  12.556   2.101  10.934
11522SOL    HW236341  12.565   2.241  10.992
11523SOL     OW36342  14.471   7.423   8.798
11523SOL    HW136343  14.389   7.469   8.783
11523SOL    HW236344  14.523   7.484   8.850
11524SOL     OW36345   0.430  14.194   8.526
11524SOL    HW136346   0.508  14.182   8.473
11524SOL    HW236347   0.448  14.272   8.579
11525SOL     OW36348  13.340   9.747   4.129
11525SOL    HW136349  13.343   9.842   4.114
11525SOL    HW236350  13.319   9.738   4.222
11526SOL     OW36351   8.959  10.315   2.963
11526SOL    HW136352   8.905  10.366   2.902
11526SOL    HW236353   8.899  10.289   3.033
11527SOL     OW36354   3.110  13.018   6.641
11527SOL    HW136355   3.029  13.022   6.693
11527SOL    HW236356   3.110  12.930   6.604
11528SOL     OW36357   1.042  14.618  14.752
11528SOL    HW136358   1.085  14.700  14.730
11528SOL    HW236359   1.080  14.593  14.837
11529SOL     OW36360   4.405   0.338   8.396
11529SOL    HW136361   4.376   0.265   8.341
11529SOL    HW236362   4.329   0.359   8.451
11530SOL     OW36363   7.436  11.968   2.991
11530SOL    HW136364   7.358  11.950   2.939
11530SOL    HW236365   7.508  11.971   2.928
11531SOL     OW36366  11.467  11.323   6.318
11531SOL    HW136367  11.541  11.368   6.279
11531SOL    HW236368  11.430  11.271   6.247
11532SOL     OW36369   2.738  12.156   4.943
11532SOL    HW136370   2.826  12.122   4.964
11532SOL    HW236371   2.754  12.223   4.876
11533SOL     OW36372   6.524   4.882  13.691
11533SOL    HW136373   6.562   4.957  13.646
11533SOL    HW236374   6.568   4.806  13.652
11534SOL     OW36375  11.866  11.820   7.528
11534SOL    HW136376  11.802  11.890   7.516
11534SOL    HW236377  11.813  11.741   7.540
11535SOL     OW36378   1.916   5.525   7.750
11535SOL    HW136379   1.894   5.539   7.843
11535SOL    HW236380   2.002   5.483   7.752
11536SOL     OW36381  13.619   5.600   9.150
11536SOL    HW136382  13.530   5.578   9.122
11536SOL    HW236383  13.648   5.525   9.201
11537SOL     OW36384  10.767   6.284   2.307
11537SOL    HW136385  10.761   6.191   2.327
11537SOL    HW236386  10.861   6.302   2.301
11538SOL     OW36387   2.372   3.785  10.400
11538SOL    HW136388   2.329   3.867  10.375
11538SOL    HW236389   2.461   3.794  10.366
11539SOL     OW36390   3.930  12.140   6.894
11539SOL    HW136391   4.006  12.085   6.878
11539SOL    HW236392   3.944  12.176   6.981
11540SOL     OW36393   0.921   2.537   7.134
11540SOL    HW136394   0.992   2.591   7.100
11540SOL    HW236395   0.958   2.449   7.139
11541SOL     OW36396   7.523   5.584  13.308
11541SOL    HW136397   7.513   5.679  13.317
11541SOL    HW236398   7.546   5.555  13.396
11542SOL     OW36399  14.557   1.041   0.947
11542SOL    HW136400  14.644   1.081   0.956
11542SOL    HW236401  14.555   1.009   0.857
11543SOL     OW36402   1.863   3.139   2.731
11543SOL    HW136403   1.799   3.109   2.667
11543SOL    HW236404   1.822   3.216   2.772
11544SOL     OW36405  10.463   4.122   0.516
11544SOL    HW136406  10.545   4.148   0.557
11544SOL    HW236407  10.419   4.069   0.583
11545SOL     OW36408  11.224  11.626   6.407
11545SOL    HW136409  11.233  11.600   6.498
11545SOL    HW236410  11.311  11.657   6.382
11546SOL     OW36411   2.512   9.126   2.479
11546SOL    HW136412   2.598   9.092   2.504
11546SOL    HW236413   2.504   9.209   2.525
11547SOL     OW36414  13.813  10.731  13.956
11547SOL    HW136415  13.733  10.751  13.906
11547SOL    HW236416  13.782  10.718  14.046
11548SOL     OW36417   7.156   3.688  12.820
11548SOL    HW136418   7.180   3.771  12.862
11548SOL    HW236419   7.149   3.626  12.893
11549SOL     OW36420   0.487  14.369  12.320
11549SOL    HW136421   0.444  14.454  12.335
11549SOL    HW236422   0.493  14.330  12.407
11550SOL     OW36423  12.815   6.651  13.888
11550SOL    HW136424  12.777   6.693  13.966
11550SOL    HW236425  12.908   6.670  13.894
11551SOL     OW36426   5.148  14.666  14.415
11551SOL    HW136427   5.074  14.645  14.358
11551SOL    HW236428   5.208  14.592  14.405
11552SOL     OW36429   3.945   2.063   6.171
11552SOL    HW136430   3.941   2.147   6.125
11552SOL    HW236431   3.952   1.998   6.102
11553SOL     OW36432   2.435  11.144   9.673
11553SOL    HW136433   2.415  11.145   9.767
11553SOL    HW236434   2.474  11.229   9.656
11554SOL     OW36435   6.142   1.971   9.423
11554SOL    HW136436   6.102   1.888   9.397
11554SOL    HW236437   6.225   1.947   9.464
11555SOL     OW36438   9.263  13.056   1.140
11555SOL    HW136439   9.307  12.981   1.180
11555SOL    HW236440   9.241  13.027   1.051
11556SOL     OW36441  10.723  11.570  14.661
11556SOL    HW136442  10.664  11.495  14.657
11556SOL    HW236443  10.810  11.533  14.654
11557SOL     OW36444   7.258   0.155   7.613
11557SOL    HW136445   7.310   0.124   7.687
11557SOL    HW236446   7.323   0.182   7.548
11558SOL     OW36447   8.658   7.571   3.226
11558SOL    HW136448   8.725   7.637   3.242
11558SOL    HW236449   8.618   7.556   3.312
11559SOL     OW36450  12.429   9.564   5.737
11559SOL    HW136451  12.499   9.594   5.679
11559SOL    HW236452  12.413   9.637   5.795
11560SOL     OW36453   0.787   1.928   2.580
11560SOL    HW136454   0.755   1.952   2.667
11560SOL    HW236455   0.810   2.012   2.539
11561SOL     OW36456   2.800   2.754   7.276
11561SOL    HW136457   2.869   2.686   7.272
11561SOL    HW236458   2.848   2.836   7.287
11562SOL     OW36459  11.489   9.506   2.156
11562SOL    HW136460  11.438   9.537   2.081
11562SOL    HW236461  11.556   9.450   2.118
11563SOL     OW36462   3.574   3.462   3.040
11563SOL    HW136463   3.526   3.518   3.100
11563SOL    HW236464   3.512   3.446   2.968
11564SOL     OW36465   9.781   3.260   6.574
11564SOL    HW136466   9.839   3.210   6.517
11564SOL    HW236467   9.809   3.351   6.561
11565SOL     OW36468   8.893   0.145  12.830
11565SOL    HW136469   8.884   0.221  12.887
11565SOL    HW236470   8.808   0.136  12.788
11566SOL     OW36471   4.795  13.188   8.396
11566SOL    HW136472   4.858  13.147   8.337
11566SOL    HW236473   4.727  13.121   8.409
11567SOL     OW36474   8.964   4.649   2.820
11567SOL    HW136475   9.047   4.654   2.867
11567SOL    HW236476   8.979   4.583   2.752
11568SOL     OW36477   5.735   0.392  13.364
11568SOL    HW136478   5.703   0.481  13.379
11568SOL    HW236479   5.828   0.403  13.343
11569SOL     OW36480  10.581   1.932   4.598
11569SOL    HW136481  10.571   2.026   4.611
11569SOL    HW236482  10.510   1.908   4.538
11570SOL     OW36483  14.168   3.912   3.000
11570SOL    HW136484  14.153   3.967   3.077
11570SOL    HW236485  14.197   3.974   2.932
11571SOL     OW36486   6.709  12.885   2.262
11571SOL    HW136487   6.741  12.899   2.173
11571SOL    HW236488   6.774  12.829   2.303
11572SOL     OW36489   9.285   9.214   6.101
11572SOL    HW136490   9.329   9.148   6.155
11572SOL    HW236491   9.195   9.216   6.133
11573SOL     OW36492  13.365   6.328  11.316
11573SOL    HW136493  13.339   6.384  11.389
11573SOL    HW236494  13.305   6.253  11.320
11574SOL     OW36495  13.520   5.931   6.719
11574SOL    HW136496  13.571   5.856   6.749
11574SOL    HW236497  13.557   6.006   6.766
11575SOL     OW36498   5.251   8.984  11.719
11575SOL    HW136499   5.252   9.054  11.784
11575SOL    HW236500   5.162   8.984  11.684
11576SOL     OW36501   0.468   4.196   1.766
11576SOL    HW136502   0.439   4.137   1.697
11576SOL    HW236503   0.486   4.279   1.721
11577SOL     OW36504  11.702  14.847  11.984
11577SOL    HW136505  11.637  14.780  12.004
11577SOL    HW236506  11.785  14.798  11.978
11578SOL     OW36507   6.152   6.184  11.446
11578SOL    HW136508   6.217   6.124  11.408
11578SOL    HW236509   6.139   6.152  11.535
11579SOL     OW36510   3.585   7.007   7.250
11579SOL    HW136511   3.609   6.914   7.248
11579SOL    HW236512   3.501   7.009   7.295
11580SOL     OW36513  13.946   5.778   1.848
11580SOL    HW136514  13.867   5.831   1.860
11580SOL    HW236515  13.960   5.777   1.753
11581SOL     OW36516   9.349   0.878   0.855
11581SOL    HW136517   9.260   0.846   0.846
11581SOL    HW236518   9.401   0.824   0.795
11582SOL     OW36519   4.938   4.748   7.347
11582SOL    HW136520   4.943   4.729   7.441
11582SOL    HW236521   4.858   4.799   7.337
11583SOL     OW36522   5.936   3.191  10.044
11583SOL    HW136523   5.943   3.283  10.067
11583SOL    HW236524   6.000   3.179   9.973
11584SOL     OW36525  14.148   8.792   3.874
11584SOL    HW136526  14.129   8.724   3.938
11584SOL    HW236527  14.235   8.823   3.897
11585SOL     OW36528  14.290   6.440   5.087
11585SOL    HW136529  14.230   6.487   5.145
11585SOL    HW236530  14.343   6.509   5.046
11586SOL     OW36531   6.179  13.658   2.704
11586SOL    HW136532   6.188  13.733   2.645
11586SOL    HW236533   6.096  13.672   2.749
11587SOL     OW36534   6.940   3.641   1.345
11587SOL    HW136535   6.853   3.658   1.308
11587SOL    HW236536   7.000   3.670   1.277
11588SOL     OW36537  12.622   0.024  14.696
11588SOL    HW136538  12.673  14.823  14.678
11588SOL    HW236539  12.685   0.087  14.731
11589SOL     OW36540   5.268   3.331   8.686
11589SOL    HW136541   5.348   3.311   8.735
11589SOL    HW236542   5.214   3.380   8.747
11590SOL     OW36543   0.266   7.329   5.572
11590SOL    HW136544   0.235   7.253   5.622
11590SOL    HW236545   0.342   7.360   5.621
11591SOL     OW36546  14.630   9.385  13.331
11591SOL    HW136547  14.666   9.350  13.250
11591SOL    HW236548  14.702   9.436  13.369
11592SOL     OW36549   7.910   2.787   1.598
11592SOL    HW136550   7.999   2.805   1.626
11592SOL    HW236551   7.902   2.692   1.603
11593SOL     OW36552   9.755  12.332   2.205
11593SOL    HW136553   9.729  12.363   2.118
11593SOL    HW236554   9.791  12.245   2.189
11594SOL     OW36555   5.671   1.859  13.363
11594SOL    HW136556   5.682   1.817  13.448
11594SOL    HW236557   5.626   1.942  13.383
11595SOL     OW36558  12.774  13.254  12.776
11595SOL    HW136559  12.846  13.237  12.716
11595SOL    HW236560  12.812  13.243  12.863
11596SOL     OW36561  10.873  12.175   1.359
11596SOL    HW136562  10.844  12.122   1.284
11596SOL    HW236563  10.795  12.224   1.384
11597SOL     OW36564   9.786   1.708   9.888
11597SOL    HW136565   9.829   1.772   9.945
11597SOL    HW236566   9.839   1.628   9.898
11598SOL     OW36567  14.542  14.776   2.748
11598SOL    HW136568  14.587  14.831   2.685
11598SOL    HW236569  14.514  14.700   2.698
11599SOL     OW36570   0.787  12.300  13.120
11599SOL    HW136571   0.753  12.376  13.073
11599SOL    HW236572   0.859  12.335  13.172
11600SOL     OW36573  14.036   3.193  12.318
11600SOL    HW136574  14.009   3.103  12.333
11600SOL    HW236575  14.129   3.186  12.294
11601SOL     OW36576   3.610   6.397   0.379
11601SOL    HW136577   3.523   6.405   0.418
11601SOL    HW236578   3.603   6.321   0.320
11602SOL     OW36579   1.821   0.043   8.532
11602SOL    HW136580   1.814   0.137   8.514
11602SOL    HW236581   1.847   0.005   8.448
11603SOL     OW36582   1.212   0.403  10.009
11603SOL    HW136583   1.174   0.465  10.071
11603SOL    HW236584   1.250   0.334  10.063
11604SOL     OW36585   7.249   4.580   5.159
11604SOL    HW136586   7.174   4.579   5.219
11604SOL    HW236587   7.279   4.489   5.156
11605SOL     OW36588   5.400  13.035   8.595
11605SOL    HW136589   5.392  13.121   8.637
11605SOL    HW236590   5.316  13.024   8.549
11606SOL     OW36591   6.362   5.778  10.097
11606SOL    HW136592   6.373   5.867  10.064
11606SOL    HW236593   6.268   5.761  10.090
11607SOL     OW36594   7.614   2.939  11.587
11607SOL    HW136595   7.679   2.972  11.524
11607SOL    HW236596   7.533   2.983  11.563
11608SOL     OW36597   9.259   8.445   0.476
11608SOL    HW136598   9.326   8.381   0.495
11608SOL    HW236599   9.192   8.397   0.428
11609SOL     OW36600   7.174   8.477  11.760
11609SOL    HW136601   7.128   8.498  11.679
11609SOL    HW236602   7.259   8.518  11.751
11610SOL     OW36603   3.743   4.182  11.704
11610SOL    HW136604   3.811   4.237  11.743
11610SOL    HW236605   3.781   4.151  11.622
11611SOL     OW36606   4.954  12.449  10.309
11611SOL    HW136607   4.866  12.482  10.327
11611SOL    HW236608   5.009  12.527  10.310
11612SOL     OW36609   2.290   0.433  12.099
11612SOL    HW136610   2.275   0.378  12.023
11612SOL    HW236611   2.217   0.495  12.100
11613SOL     OW36612   9.754   7.185   0.474
11613SOL    HW136613   9.759   7.103   0.523
11613SOL    HW236614   9.722   7.249   0.538
11614SOL     OW36615  12.186   0.041   7.901
11614SOL    HW136616  12.257   0.075   7.954
11614SOL    HW236617  12.201   0.077   7.813
11615SOL     OW36618   4.000   6.456  10.455
11615SOL    HW136619   3.933   6.524  10.464
11615SOL    HW236620   4.061   6.473  10.528
11616SOL     OW36621   5.447  11.641   0.170
11616SOL    HW136622   5.469  11.671   0.082
11616SOL    HW236623   5.520  11.672   0.224
11617SOL     OW36624   2.213   0.643   9.154
11617SOL    HW136625   2.269   0.600   9.219
11617SOL    HW236626   2.146   0.687   9.206
11618SOL     OW36627   0.049   5.002   4.276
11618SOL    HW136628  14.848   5.051   4.298
11618SOL    HW236629   0.027   4.911   4.296
11619SOL     OW36630   6.800   0.483  10.915
11619SOL    HW136631   6.830   0.396  10.888
11619SOL    HW236632   6.833   0.542  10.847
11620SOL     OW36633   4.466  13.628   2.337
11620SOL    HW136634   4.474  13.535   2.317
11620SOL    HW236635   4.394  13.659   2.282
11621SOL     OW36636   6.730  10.738   2.283
11621SOL    HW136637   6.808  10.712   2.331
11621SOL    HW236638   6.727  10.679   2.207
11622SOL     OW36639  14.008   3.394   1.616
11622SOL    HW136640  14.090   3.350   1.591
11622SOL    HW236641  14.023   3.486   1.594
11623SOL     OW36642   9.929   8.853  10.674
11623SOL    HW136643   9.858   8.868  10.611
11623SOL    HW236644   9.894   8.884  10.757
11624SOL     OW36645   7.943  13.966   4.727
11624SOL    HW136646   7.889  13.930   4.798
11624SOL    HW236647   8.001  14.028   4.770
11625SOL     OW36648   4.432  11.743   6.405
11625SOL    HW136649   4.521  11.715   6.382
11625SOL    HW236650   4.377  11.669   6.380
11626SOL     OW36651  13.581  10.813   2.892
11626SOL    HW136652  13.616  10.866   2.820
11626SOL    HW236653  13.656  10.797   2.949
11627SOL     OW36654   8.631   4.436  10.109
11627SOL    HW136655   8.673   4.518  10.137
11627SOL    HW236656   8.567   4.417  10.178
11628SOL     OW36657   0.565   1.096   4.211
11628SOL    HW136658   0.624   1.103   4.136
11628SOL    HW236659   0.616   1.131   4.284
11629SOL     OW36660   7.552   9.826  12.080
11629SOL    HW136661   7.546   9.839  11.986
11629SOL    HW236662   7.621   9.760  12.091
11630SOL     OW36663   3.554   0.624   8.882
11630SOL    HW136664   3.546   0.630   8.977
11630SOL    HW236665   3.488   0.685   8.848
11631SOL     OW36666   7.881  13.563   7.664
11631SOL    HW136667   7.909  13.553   7.755
11631SOL    HW236668   7.885  13.657   7.647
11632SOL     OW36669  11.264   3.743  14.131
11632SOL    HW136670  11.252   3.648  14.141
11632SOL    HW236671  11.342   3.762  14.182
11633SOL     OW36672   4.858   4.452   8.330
11633SOL    HW136673   4.912   4.498   8.267
11633SOL    HW236674   4.849   4.363   8.294
11634SOL     OW36675  14.813  10.757   1.022
11634SOL    HW136676  14.764  10.791   0.948
11634SOL    HW236677  14.749  10.748   1.093
11635SOL     OW36678   6.795   6.700  10.793
11635SOL    HW136679   6.872   6.686  10.849
11635SOL    HW236680   6.740   6.624  10.809
11636SOL     OW36681   8.227  12.429   9.337
11636SOL    HW136682   8.232  12.365   9.265
11636SOL    HW236683   8.176  12.385   9.405
11637SOL     OW36684   9.336   8.062   6.895
11637SOL    HW136685   9.380   8.147   6.906
11637SOL    HW236686   9.279   8.076   6.820
11638SOL     OW36687   8.628   8.670   7.748
11638SOL    HW136688   8.638   8.602   7.815
11638SOL    HW236689   8.692   8.646   7.681
11639SOL     OW36690   0.105   3.858  11.343
11639SOL    HW136691   0.037   3.835  11.279
11639SOL    HW236692   0.089   3.950  11.364
11640SOL     OW36693   3.378   2.834   1.438
11640SOL    HW136694   3.308   2.891   1.405
11640SOL    HW236695   3.338   2.788   1.512
11641SOL     OW36696   2.276  10.869  13.323
11641SOL    HW136697   2.355  10.838  13.278
11641SOL    HW236698   2.302  10.954  13.359
11642SOL     OW36699   3.274   5.966  11.902
11642SOL    HW136700   3.253   5.909  11.828
11642SOL    HW236701   3.189   6.004  11.927
11643SOL     OW36702  14.102   2.893   3.012
11643SOL    HW136703  14.172   2.837   3.046
11643SOL    HW236704  14.026   2.835   3.004
11644SOL     OW36705   5.637   0.905  12.100
11644SOL    HW136706   5.673   0.834  12.153
11644SOL    HW236707   5.549   0.876  12.077
11645SOL     OW36708  10.972  10.926  11.228
11645SOL    HW136709  10.973  10.941  11.133
11645SOL    HW236710  10.891  10.877  11.244
11646SOL     OW36711  11.549  14.461   8.013
11646SOL    HW136712  11.611  14.416   8.070
11646SOL    HW236713  11.604  14.513   7.954
11647SOL     OW36714   6.061  11.104   8.881
11647SOL    HW136715   6.076  11.193   8.849
11647SOL    HW236716   5.994  11.069   8.822
11648SOL     OW36717   0.580   1.896   0.934
11648SOL    HW136718   0.621   1.850   1.007
11648SOL    HW236719   0.568   1.829   0.867
11649SOL     OW36720   1.337   7.684   2.658
11649SOL    HW136721   1.329   7.706   2.751
11649SOL    HW236722   1.430   7.665   2.646
11650SOL     OW36723  10.984  10.704  12.943
11650SOL    HW136724  10.955  10.661  12.862
11650SOL    HW236725  11.068  10.664  12.962
11651SOL     OW36726  12.992  12.550   0.609
11651SOL    HW136727  12.941  12.580   0.534
11651SOL    HW236728  12.970  12.457   0.618
11652SOL     OW36729   5.150   7.370   8.587
11652SOL    HW136730   5.155   7.332   8.675
11652SOL    HW236731   5.158   7.465   8.602
11653SOL     OW36732  14.112   1.065   6.976
11653SOL    HW136733  14.170   1.012   6.921
11653SOL    HW236734  14.141   1.046   7.066
11654SOL     OW36735  13.013   3.385   8.618
11654SOL    HW136736  13.021   3.351   8.708
11654SOL    HW236737  13.060   3.322   8.564
11655SOL     OW36738   5.050  11.319   6.536
11655SOL    HW136739   5.069  11.263   6.611
11655SOL    HW236740   5.131  11.369   6.522
11656SOL     OW36741  14.209   8.904   2.102
11656SOL    HW136742  14.157   8.977   2.138
11656SOL    HW236743  14.293   8.910   2.147
11657SOL     OW36744   6.672  13.816   7.848
11657SOL    HW136745   6.724  13.882   7.801
11657SOL    HW236746   6.674  13.845   7.939
11658SOL     OW36747   1.781  14.209   3.686
11658SOL    HW136748   1.788  14.224   3.591
11658SOL    HW236749   1.699  14.160   3.696
11659SOL     OW36750   9.806  13.259   3.253
11659SOL    HW136751   9.846  13.346   3.254
11659SOL    HW236752   9.712  13.276   3.267
11660SOL     OW36753   2.320  11.577  11.645
11660SOL    HW136754   2.251  11.614  11.700
11660SOL    HW236755   2.402  11.610  11.684
11661SOL     OW36756   7.711  11.334   0.277
11661SOL    HW136757   7.632  11.385   0.262
11661SOL    HW236758   7.681  11.256   0.323
11662SOL     OW36759   4.345  14.044   6.396
11662SOL    HW136760   4.251  14.025   6.399
11662SOL    HW236761   4.372  14.022   6.307
11663SOL     OW36762   3.794   2.089   8.113
11663SOL    HW136763   3.856   2.078   8.042
11663SOL    HW236764   3.720   2.033   8.090
11664SOL     OW36765  11.008  11.231  13.935
11664SOL    HW136766  10.917  11.216  13.910
11664SOL    HW236767  11.057  11.219  13.855
11665SOL     OW36768  13.375   4.409   1.372
11665SOL    HW136769  13.387   4.504   1.367
11665SOL    HW236770  13.363   4.382   1.281
11666SOL     OW36771   4.387   2.443  14.358
11666SOL    HW136772   4.312   2.411  14.308
11666SOL    HW236773   4.462   2.428  14.300
11667SOL     OW36774   0.295   2.120   5.993
11667SOL    HW136775   0.306   2.046   5.933
11667SOL    HW236776   0.202   2.139   5.990
11668SOL     OW36777   9.597   2.350  14.003
11668SOL    HW136778   9.593   2.424  14.064
11668SOL    HW236779   9.679   2.305  14.025
11669SOL     OW36780   6.689  10.802  13.565
11669SOL    HW136781   6.649  10.761  13.488
11669SOL    HW236782   6.754  10.862  13.529
11670SOL     OW36783  13.346   4.475   9.656
11670SOL    HW136784  13.429   4.522   9.656
11670SOL    HW236785  13.279   4.543   9.649
11671SOL     OW36786   2.575   9.278   9.163
11671SOL    HW136787   2.562   9.190   9.198
11671SOL    HW236788   2.580   9.334   9.241
11672SOL     OW36789  11.751  11.883  11.343
11672SOL    HW136790  11.787  11.809  11.391
11672SOL    HW236791  11.766  11.862  11.251
11673SOL     OW36792   9.581  13.574  10.231
11673SOL    HW136793   9.595  13.509  10.163
11673SOL    HW236794   9.669  13.603  10.256
11674SOL     OW36795  14.435   6.553   0.238
11674SOL    HW136796  14.395   6.586   0.318
11674SOL    HW236797  14.373   6.487   0.205
11675SOL     OW36798  13.102   5.188  11.541
11675SOL    HW136799  13.040   5.218  11.474
11675SOL    HW236800  13.047   5.158  11.613
11676SOL     OW36801   8.470   6.520   2.239
11676SOL    HW136802   8.533   6.482   2.177
11676SOL    HW236803   8.446   6.447   2.296
11677SOL     OW36804   4.553  14.847   0.378
11677SOL    HW136805   4.616  14.828   0.447
11677SOL    HW236806   4.545  14.766   0.328
11678SOL     OW36807   1.523   6.137   9.946
11678SOL    HW136808   1.473   6.117  10.025
11678SOL    HW236809   1.509   6.061   9.889
11679SOL     OW36810   0.017   1.179   2.205
11679SOL    HW136811  14.876   1.233   2.282
11679SOL    HW236812  14.809   1.157   2.169
11680SOL     OW36813   7.572   1.521  10.419
11680SOL    HW136814   7.547   1.472  10.341
11680SOL    HW236815   7.603   1.605  10.387
11681SOL     OW36816  13.648   9.403   1.683
11681SOL    HW136817  13.713   9.339   1.654
11681SOL    HW236818  13.694   9.456   1.749
11682SOL     OW36819  14.221   4.231  13.694
11682SOL    HW136820  14.174   4.270  13.767
11682SOL    HW236821  14.170   4.256  13.617
11683SOL     OW36822  10.456   2.336  12.463
11683SOL    HW136823  10.493   2.417  12.497
11683SOL    HW236824  10.374   2.325  12.512
11684SOL     OW36825   9.878   4.768   3.230
11684SOL    HW136826   9.901   4.678   3.210
11684SOL    HW236827   9.837   4.764   3.317
11685SOL     OW36828  12.837  13.108  10.309
11685SOL    HW136829  12.808  13.017  10.305
11685SOL    HW236830  12.918  13.105  10.359
11686SOL     OW36831   6.291   4.771   6.872
11686SOL    HW136832   6.286   4.780   6.777
11686SOL    HW236833   6.234   4.840   6.906
11687SOL     OW36834   3.362   3.902   8.982
11687SOL    HW136835   3.375   3.828   9.041
11687SOL    HW236836   3.316   3.865   8.907
11688SOL     OW36837   8.626   9.204   8.953
11688SOL    HW136838   8.704   9.149   8.959
11688SOL    HW236839   8.658   9.288   8.920
11689SOL     OW36840   7.589   0.933   0.802
11689SOL    HW136841   7.624   0.843   0.808
11689SOL    HW236842   7.568   0.943   0.709
11690SOL     OW36843  14.742   8.556  12.988
11690SOL    HW136844  14.655   8.551  13.028
11690SOL    HW236845  14.803   8.545  13.060
11691SOL     OW36846  11.604   5.721  10.741
11691SOL    HW136847  11.664   5.750  10.672
11691SOL    HW236848  11.580   5.801  10.787
11692SOL     OW36849   0.791   0.464   8.074
11692SOL    HW136850   0.823   0.379   8.106
11692SOL    HW236851   0.716   0.441   8.018
11693SOL     OW36852  10.990   8.907   9.347
11693SOL    HW136853  10.999   8.956   9.265
11693SOL    HW236854  11.062   8.844   9.345
11694SOL     OW36855  14.156  10.225   4.001
11694SOL    HW136856  14.175  10.319   4.008
11694SOL    HW236857  14.234  10.189   3.959
11695SOL     OW36858   6.552   3.750  13.992
11695SOL    HW136859   6.552   3.826  13.933
11695SOL    HW236860   6.614   3.773  14.061
11696SOL     OW36861  13.197   3.654  13.240
11696SOL    HW136862  13.149   3.698  13.310
11696SOL    HW236863  13.189   3.561  13.260
11697SOL     OW36864   7.750  10.052   2.956
11697SOL    HW136865   7.755   9.960   2.930
11697SOL    HW236866   7.688  10.091   2.894
11698SOL     OW36867  12.845   4.689  10.038
11698SOL    HW136868  12.778   4.757  10.033
11698SOL    HW236869  12.803   4.612  10.000
11699SOL     OW36870   1.062   9.564   2.162
11699SOL    HW136871   1.133   9.535   2.104
11699SOL    HW236872   1.105   9.624   2.223
11700SOL     OW36873   7.971  14.405  12.529
11700SOL    HW136874   7.902  14.374  12.588
11700SOL    HW236875   7.954  14.498  12.519
11701SOL     OW36876   9.878   4.877   8.965
11701SOL    HW136877   9.822   4.819   9.018
11701SOL    HW236878   9.843   4.965   8.982
11702SOL     OW36879  13.651   3.096   7.002
11702SOL    HW136880  13.709   3.144   7.061
11702SOL    HW236881  13.630   3.015   7.049
11703SOL     OW36882   5.831   1.642   6.803
11703SOL    HW136883   5.769   1.703   6.844
11703SOL    HW236884   5.895   1.698   6.760
11704SOL     OW36885   4.674  14.718  14.421
11704SOL    HW136886   4.600  14.778  14.428
11704SOL    HW236887   4.741  14.755  14.479
11705SOL     OW36888   6.249  11.048   6.231
11705SOL    HW136889   6.223  11.113   6.166
11705SOL    HW236890   6.210  10.966   6.200
11706SOL     OW36891  14.071   3.875   4.778
11706SOL    HW136892  14.023   3.922   4.709
11706SOL    HW236893  14.045   3.784   4.766
11707SOL     OW36894   4.006  14.582  14.684
11707SOL    HW136895   4.023  14.521  14.613
11707SOL    HW236896   4.093  14.612  14.710
11708SOL     OW36897   6.270   2.459   3.477
11708SOL    HW136898   6.288   2.390   3.540
11708SOL    HW236899   6.192   2.429   3.430
11709SOL     OW36900   8.016  14.003   5.072
11709SOL    HW136901   7.993  14.074   5.131
11709SOL    HW236902   8.111  14.008   5.064
11710SOL     OW36903   7.122  13.560   1.537
11710SOL    HW136904   7.121  13.504   1.459
11710SOL    HW236905   7.076  13.639   1.511
11711SOL     OW36906   3.028   7.752   4.727
11711SOL    HW136907   3.071   7.693   4.789
11711SOL    HW236908   3.003   7.828   4.780
11712SOL     OW36909   2.414   4.133   3.150
11712SOL    HW136910   2.332   4.102   3.189
11712SOL    HW236911   2.388   4.209   3.098
11713SOL     OW36912   1.019  10.753   0.534
11713SOL    HW136913   1.066  10.720   0.610
11713SOL    HW236914   0.926  10.744   0.559
11714SOL     OW36915  14.132   0.883   5.890
11714SOL    HW136916  14.216   0.883   5.845
11714SOL    HW236917  14.088   0.962   5.858
11715SOL     OW36918   4.056   9.727   3.267
11715SOL    HW136919   4.074   9.745   3.359
11715SOL    HW236920   3.960   9.728   3.261
11716SOL     OW36921   3.049   7.188   6.919
11716SOL    HW136922   3.066   7.272   6.876
11716SOL    HW236923   3.026   7.129   6.847
11717SOL     OW36924   1.790   2.156  10.182
11717SOL    HW136925   1.858   2.215  10.148
11717SOL    HW236926   1.798   2.164  10.277
11718SOL     OW36927   9.030   2.358  14.767
11718SOL    HW136928   9.055   2.378  14.857
11718SOL    HW236929   9.113   2.342  14.722
11719SOL     OW36930  12.072  14.515   3.573
11719SOL    HW136931  12.028  14.579   3.517
11719SOL    HW236932  12.001  14.466   3.614
11720SOL     OW36933  14.111  10.290   6.215
11720SOL    HW136934  14.021  10.259   6.219
11720SOL    HW236935  14.148  10.270   6.301
11721SOL     OW36936  12.688  12.132   1.823
11721SOL    HW136937  12.644  12.180   1.752
11721SOL    HW236938  12.716  12.050   1.782
11722SOL     OW36939   4.950   8.671  12.806
11722SOL    HW136940   4.993   8.742  12.760
11722SOL    HW236941   4.957   8.694  12.899
11723SOL     OW36942   3.748   4.891  14.770
11723SOL    HW136943   3.725   4.940  14.691
11723SOL    HW236944   3.674   4.907  14.830
11724SOL     OW36945   0.301   4.947  11.757
11724SOL    HW136946   0.234   4.946  11.825
11724SOL    HW236947   0.344   5.033  11.767
11725SOL     OW36948   8.243   0.687  13.960
11725SOL    HW136949   8.262   0.647  14.045
11725SOL    HW236950   8.293   0.769  13.960
11726SOL     OW36951   9.840   3.307   4.194
11726SOL    HW136952   9.770   3.267   4.245
11726SOL    HW236953   9.795   3.368   4.135
11727SOL     OW36954  12.354  10.225   8.145
11727SOL    HW136955  12.288  10.163   8.176
11727SOL    HW236956  12.411  10.173   8.089
11728SOL     OW36957  14.373   4.637  13.209
11728SOL    HW136958  14.363   4.543  13.221
11728SOL    HW236959  14.392   4.648  13.115
11729SOL     OW36960   6.951  11.735  12.138
11729SOL    HW136961   6.866  11.742  12.094
11729SOL    HW236962   6.930  11.705  12.226
11730SOL     OW36963   6.462  11.757   3.134
11730SOL    HW136964   6.450  11.692   3.203
11730SOL    HW236965   6.384  11.748   3.079
11731SOL     OW36966   8.077   1.443  11.198
11731SOL    HW136967   8.073   1.349  11.216
11731SOL    HW236968   8.053   1.485  11.280
11732SOL     OW36969   8.168  10.138  11.299
11732SOL    HW136970   8.250  10.186  11.312
11732SOL    HW236971   8.187  10.075  11.229
11733SOL     OW36972  13.097   4.364   5.243
11733SOL    HW136973  13.128   4.275   5.223
11733SOL    HW236974  13.149   4.391   5.318
11734SOL     OW36975   6.776   1.484   4.937
11734SOL    HW136976   6.853   1.472   4.882
11734SOL    HW236977   6.768   1.403   4.987
11735SOL     OW36978  11.954   8.093   9.608
11735SOL    HW136979  11.902   8.158   9.655
11735SOL    HW236980  11.923   8.009   9.641
11736SOL     OW36981  13.610   5.633   1.724
11736SOL    HW136982  13.635   5.630   1.631
11736SOL    HW236983  13.599   5.727   1.742
11737SOL     OW36984  10.499   3.973  11.446
11737SOL    HW136985  10.563   3.912  11.484
11737SOL    HW236986  10.469   4.025  11.521
11738SOL     OW36987   3.218  13.710  13.005
11738SOL    HW136988   3.303  13.691  12.965
11738SOL    HW236989   3.229  13.681  13.096
11739SOL     OW36990   0.812   1.710  12.365
11739SOL    HW136991   0.845   1.659  12.291
11739SOL    HW236992   0.787   1.794  12.328
11740SOL     OW36993   8.205   5.279   4.587
11740SOL    HW136994   8.156   5.307   4.510
11740SOL    HW236995   8.294   5.310   4.572
11741SOL     OW36996   5.027   5.428   9.861
11741SOL    HW136997   5.085   5.503   9.876
11741SOL    HW236998   4.975   5.452   9.785
11742SOL     OW36999   3.916   0.020   9.038
11742SOL    HW137000   3.982   0.084   9.012
11742SOL    HW237001   3.953  14.813   9.014
11743SOL     OW37002  10.394   7.818  14.608
11743SOL    HW137003  10.469   7.764  14.589
11743SOL    HW237004  10.429   7.891  14.660
11744SOL     OW37005   2.716  14.633   8.877
11744SOL    HW137006   2.706  14.713   8.825
11744SOL    HW237007   2.629  14.592   8.875
11745SOL     OW37008   5.471   2.711   3.432
11745SOL    HW137009   5.382   2.720   3.398
11745SOL    HW237010   5.469   2.757   3.516
11746SOL     OW37011   9.490   1.090   1.957
11746SOL    HW137012   9.414   1.102   1.899
11746SOL    HW237013   9.561   1.135   1.913
11747SOL     OW37014   5.149   0.992   2.296
11747SOL    HW137015   5.226   0.961   2.344
11747SOL    HW237016   5.143   1.085   2.319
11748SOL     OW37017  13.582  13.146   6.050
11748SOL    HW137018  13.545  13.168   6.135
11748SOL    HW237019  13.658  13.091   6.070
11749SOL     OW37020  13.529   6.737  11.541
11749SOL    HW137021  13.483   6.751  11.624
11749SOL    HW237022  13.607   6.688  11.564
11750SOL     OW37023   0.408   8.210   9.805
11750SOL    HW137024   0.465   8.156   9.751
11750SOL    HW237025   0.436   8.191   9.895
11751SOL     OW37026   8.239   9.439  13.841
11751SOL    HW137027   8.239   9.441  13.745
11751SOL    HW237028   8.327   9.470  13.865
11752SOL     OW37029  12.168   1.630  11.782
11752SOL    HW137030  12.184   1.548  11.735
11752SOL    HW237031  12.118   1.684  11.721
11753SOL     OW37032   3.194   7.435   6.815
11753SOL    HW137033   3.184   7.499   6.744
11753SOL    HW237034   3.289   7.431   6.829
11754SOL     OW37035  13.234  12.610   1.165
11754SOL    HW137036  13.166  12.624   1.100
11754SOL    HW237037  13.281  12.532   1.136
11755SOL     OW37038   6.442  11.676   9.930
11755SOL    HW137039   6.357  11.679   9.886
11755SOL    HW237040   6.425  11.628  10.011
11756SOL     OW37041  11.854   2.414  13.112
11756SOL    HW137042  11.820   2.369  13.189
11756SOL    HW237043  11.828   2.505  13.123
11757SOL     OW37044  14.566  13.912   0.366
11757SOL    HW137045  14.650  13.947   0.339
11757SOL    HW237046  14.582  13.818   0.378
11758SOL     OW37047  14.767   2.777   9.966
11758SOL    HW137048  14.757   2.782  10.061
11758SOL    HW237049  14.683   2.744   9.934
11759SOL     OW37050   1.146  10.432   0.032
11759SOL    HW137051   1.130  10.351  14.862
11759SOL    HW237052   1.159  10.404   0.123
11760SOL     OW37053   2.493   5.362   2.277
11760SOL    HW137054   2.502   5.378   2.371
11760SOL    HW237055   2.469   5.269   2.271
11761SOL     OW37056   6.177   0.340   5.130
11761SOL    HW137057   6.227   0.298   5.061
11761SOL    HW237058   6.167   0.273   5.197
11762SOL     OW37059   2.620   4.029   9.031
11762SOL    HW137060   2.644   4.033   9.124
11762SOL    HW237061   2.702   4.045   8.985
11763SOL     OW37062  12.341   4.334   4.821
11763SOL    HW137063  12.254   4.372   4.834
11763SOL    HW237064  12.381   4.389   4.754
11764SOL     OW37065   9.357   3.684  14.743
11764SOL    HW137066   9.445   3.658  14.772
11764SOL    HW237067   9.372   3.746  14.672
11765SOL     OW37068  11.271  11.720   7.706
11765SOL    HW137069  11.254  11.767   7.625
11765SOL    HW237070  11.275  11.628   7.680
11766SOL     OW37071  10.664   4.078   2.461
11766SOL    HW137072  10.748   4.040   2.433
11766SOL    HW237073  10.676   4.096   2.554
11767SOL     OW37074   2.850   9.478   0.076
11767SOL    HW137075   2.850   9.566   0.114
11767SOL    HW237076   2.757   9.456   0.065
11768SOL     OW37077   3.005  14.161   6.218
11768SOL    HW137078   3.068  14.201   6.278
11768SOL    HW237079   2.956  14.234   6.182
11769SOL     OW37080   8.342  13.724   3.170
11769SOL    HW137081   8.347  13.632   3.143
11769SOL    HW237082   8.258  13.731   3.215
11770SOL     OW37083  10.787  10.191   7.537
11770SOL    HW137084  10.739  10.256   7.485
11770SOL    HW237085  10.879  10.214   7.524
11771SOL     OW37086   6.249   3.410   6.900
11771SOL    HW137087   6.174   3.350   6.903
11771SOL    HW237088   6.326   3.353   6.908
11772SOL     OW37089   3.482   6.353   4.133
11772SOL    HW137090   3.445   6.297   4.202
11772SOL    HW237091   3.480   6.441   4.171
11773SOL     OW37092   9.222   0.227   8.891
11773SOL    HW137093   9.315   0.245   8.907
11773SOL    HW237094   9.178   0.311   8.905
11774SOL     OW37095  14.543  10.287   3.131
11774SOL    HW137096  14.517  10.201   3.165
11774SOL    HW237097  14.484  10.349   3.174
11775SOL     OW37098   8.744  12.941  14.871
11775SOL    HW137099   8.704  12.861   0.027
11775SOL    HW237100   8.675  13.008   0.004
11776SOL     OW37101   4.881   5.580   0.187
11776SOL    HW137102   4.842   5.647   0.243
11776SOL    HW237103   4.969   5.612   0.168
11777SOL     OW37104   6.058   9.067  10.032
11777SOL    HW137105   6.122   9.016  10.082
11777SOL    HW237106   6.109   9.137   9.992
11778SOL     OW37107   9.083  12.280   9.231
11778SOL    HW137108   9.107  12.195   9.269
11778SOL    HW237109   8.995  12.267   9.197
11779SOL     OW37110   6.115   3.150   1.392
11779SOL    HW137111   6.140   3.107   1.474
11779SOL    HW237112   6.021   3.136   1.385
11780SOL     OW37113   6.532  12.163   4.698
11780SOL    HW137114   6.488  12.193   4.618
11780SOL    HW237115   6.625  12.182   4.682
11781SOL     OW37116   9.690   9.248   1.374
11781SOL    HW137117   9.669   9.238   1.281
11781SOL    HW237118   9.720   9.162   1.402
11782SOL     OW37119  14.749   5.297  10.827
11782SOL    HW137120  14.752   5.205  10.800
11782SOL    HW237121  14.709   5.295  10.914
11783SOL     OW37122   4.394   6.843   1.862
11783SOL    HW137123   4.363   6.771   1.807
11783SOL    HW237124   4.428   6.800   1.941
11784SOL     OW37125  14.672   0.046   4.210
11784SOL    HW137126  14.617  14.868   4.156
11784SOL    HW237127  14.732   0.088   4.147
11785SOL     OW37128  12.385   2.241   1.526
11785SOL    HW137129  12.363   2.334   1.521
11785SOL    HW237130  12.303   2.198   1.548
11786SOL     OW37131   9.932   3.468   7.059
11786SOL    HW137132  10.023   3.441   7.050
11786SOL    HW237133   9.883   3.405   7.006
11787SOL     OW37134   5.020   2.892   8.340
11787SOL    HW137135   5.057   2.924   8.421
11787SOL    HW237136   4.927   2.916   8.345
11788SOL     OW37137   3.733   1.389   6.406
11788SOL    HW137138   3.751   1.339   6.486
11788SOL    HW237139   3.815   1.435   6.388
11789SOL     OW37140   7.714  13.757   2.705
11789SOL    HW137141   7.751  13.843   2.722
11789SOL    HW237142   7.764  13.698   2.762
11790SOL     OW37143  11.531  12.055  11.279
11790SOL    HW137144  11.602  11.992  11.284
11790SOL    HW237145  11.554  12.113  11.206
11791SOL     OW37146   7.388   7.983  11.828
11791SOL    HW137147   7.481   8.005  11.821
11791SOL    HW237148   7.382   7.927  11.905
11792SOL     OW37149  13.255   5.041  14.125
11792SOL    HW137150  13.243   5.067  14.034
11792SOL    HW237151  13.174   5.066  14.168
11793SOL     OW37152  13.695   4.894  12.636
11793SOL    HW137153  13.688   4.888  12.541
11793SOL    HW237154  13.612   4.861  12.669
11794SOL     OW37155  11.755   9.155  14.451
11794SOL    HW137156  11.740   9.095  14.378
11794SOL    HW237157  11.834   9.122  14.494
11795SOL     OW37158   1.180   9.449  13.846
11795SOL    HW137159   1.120   9.389  13.802
11795SOL    HW237160   1.226   9.395  13.910
11796SOL     OW37161   9.085   9.267  12.666
11796SOL    HW137162   9.120   9.182  12.640
11796SOL    HW237163   9.146   9.330  12.628
11797SOL     OW37164   1.163   8.415   7.905
11797SOL    HW137165   1.185   8.485   7.967
11797SOL    HW237166   1.242   8.362   7.901
11798SOL     OW37167   8.087   4.331   4.263
11798SOL    HW137168   8.043   4.416   4.276
11798SOL    HW237169   8.156   4.330   4.328
11799SOL     OW37170  10.646   5.739   8.379
11799SOL    HW137171  10.659   5.659   8.328
11799SOL    HW237172  10.642   5.809   8.314
11800SOL     OW37173   7.601   6.466   2.279
11800SOL    HW137174   7.568   6.505   2.360
11800SOL    HW237175   7.578   6.529   2.211
11801SOL     OW37176  10.135   7.147   4.016
11801SOL    HW137177  10.108   7.063   4.052
11801SOL    HW237178  10.229   7.152   4.035
11802SOL     OW37179  13.674   0.372  10.556
11802SOL    HW137180  13.726   0.333  10.626
11802SOL    HW237181  13.729   0.365  10.478
11803SOL     OW37182   1.286  13.295   2.270
11803SOL    HW137183   1.374  13.308   2.306
11803SOL    HW237184   1.234  13.267   2.345
11804SOL     OW37185   2.479   2.489  10.191
11804SOL    HW137186   2.467   2.581  10.169
11804SOL    HW237187   2.464   2.443  10.109
11805SOL     OW37188   2.904   9.070   9.289
11805SOL    HW137189   2.832   9.106   9.341
11805SOL    HW237190   2.963   9.031   9.354
11806SOL     OW37191  12.715   0.174   4.711
11806SOL    HW137192  12.662   0.228   4.769
11806SOL    HW237193  12.802   0.173   4.751
11807SOL     OW37194   8.192   1.754   8.094
11807SOL    HW137195   8.277   1.746   8.137
11807SOL    HW237196   8.130   1.768   8.165
11808SOL     OW37197  11.592   5.622   6.184
11808SOL    HW137198  11.519   5.619   6.122
11808SOL    HW237199  11.637   5.539   6.171
11809SOL     OW37200  14.298   9.713  10.582
11809SOL    HW137201  14.314   9.678  10.670
11809SOL    HW237202  14.229   9.657  10.547
11810SOL     OW37203  10.555  10.852   9.161
11810SOL    HW137204  10.596  10.768   9.142
11810SOL    HW237205  10.470  10.849   9.116
11811SOL     OW37206   7.754  11.395  10.587
11811SOL    HW137207   7.700  11.468  10.556
11811SOL    HW237208   7.730  11.322  10.531
11812SOL     OW37209  12.955   2.084   8.322
11812SOL    HW137210  12.865   2.082   8.355
11812SOL    HW237211  13.009   2.063   8.399
11813SOL     OW37212  14.358   3.767  11.450
11813SOL    HW137213  14.447   3.738  11.431
11813SOL    HW237214  14.316   3.689  11.489
11814SOL     OW37215   0.552  12.133   5.027
11814SOL    HW137216   0.539  12.205   5.089
11814SOL    HW237217   0.466  12.121   4.986
11815SOL     OW37218   4.258  10.439   1.124
11815SOL    HW137219   4.329  10.465   1.065
11815SOL    HW237220   4.268  10.496   1.201
11816SOL     OW37221  11.766  10.982  13.365
11816SOL    HW137222  11.837  10.920  13.383
11816SOL    HW237223  11.742  11.018  13.450
11817SOL     OW37224  10.327  14.077   7.377
11817SOL    HW137225  10.364  14.128   7.449
11817SOL    HW237226  10.379  13.997   7.374
11818SOL     OW37227   0.640  12.207  13.370
11818SOL    HW137228   0.549  12.212  13.340
11818SOL    HW237229   0.693  12.228  13.294
11819SOL     OW37230   7.788  14.771   6.219
11819SOL    HW137231   7.746  14.731   6.295
11819SOL    HW237232   7.753  14.722   6.144
11820SOL     OW37233   4.363   5.317   5.654
11820SOL    HW137234   4.318   5.329   5.738
11820SOL    HW237235   4.367   5.223   5.642
11821SOL     OW37236   5.059  12.153   2.326
11821SOL    HW137237   5.067  12.220   2.258
11821SOL    HW237238   4.997  12.090   2.289
11822SOL     OW37239   4.046   1.578   1.125
11822SOL    HW137240   3.993   1.611   1.052
11822SOL    HW237241   4.003   1.612   1.203
11823SOL     OW37242   9.228   8.035   6.659
11823SOL    HW137243   9.239   8.095   6.585
11823SOL    HW237244   9.136   8.012   6.659
11824SOL     OW37245   4.366  11.294  14.521
11824SOL    HW137246   4.430  11.235  14.561
11824SOL    HW237247   4.418  11.360  14.476
11825SOL     OW37248   0.449  13.868   7.652
11825SOL    HW137249   0.482  13.957   7.647
11825SOL    HW237250   0.443  13.839   7.561
11826SOL     OW37251   8.246   2.273   6.371
11826SOL    HW137252   8.169   2.322   6.340
11826SOL    HW237253   8.256   2.299   6.462
11827SOL     OW37254   5.039   2.510   3.223
11827SOL    HW137255   5.031   2.474   3.135
11827SOL    HW237256   4.956   2.487   3.266
11828SOL     OW37257  13.259   5.851  12.703
11828SOL    HW137258  13.240   5.824  12.793
11828SOL    HW237259  13.342   5.899  12.710
11829SOL     OW37260   7.300   0.590   6.015
11829SOL    HW137261   7.286   0.578   6.109
11829SOL    HW237262   7.370   0.655   6.009
11830SOL     OW37263  10.958   1.393  13.432
11830SOL    HW137264  10.994   1.426  13.350
11830SOL    HW237265  10.942   1.471  13.485
11831SOL     OW37266   9.313  10.191   8.618
11831SOL    HW137267   9.339  10.233   8.700
11831SOL    HW237268   9.383  10.128   8.600
11832SOL     OW37269   0.025   2.327   1.435
11832SOL    HW137270   0.000   2.385   1.363
11832SOL    HW237271  14.820   2.291   1.467
11833SOL     OW37272   3.023  14.646   9.290
11833SOL    HW137273   3.005  14.563   9.245
11833SOL    HW237274   3.085  14.623   9.359
11834SOL     OW37275  12.655   1.568   0.821
11834SOL    HW137276  12.616   1.492   0.863
11834SOL    HW237277  12.641   1.555   0.727
11835SOL     OW37278   9.754  12.538   2.547
11835SOL    HW137279   9.733  12.615   2.598
11835SOL    HW237280   9.775  12.572   2.460
11836SOL     OW37281   1.016  14.384  11.128
11836SOL    HW137282   1.068  14.362  11.204
11836SOL    HW237283   1.065  14.452  11.083
11837SOL     OW37284   2.305   4.062   7.933
11837SOL    HW137285   2.217   4.057   7.969
11837SOL    HW237286   2.292   4.062   7.838
11838SOL     OW37287   2.779  11.793  12.357
11838SOL    HW137288   2.798  11.821  12.268
11838SOL    HW237289   2.848  11.832  12.410
11839SOL     OW37290  12.670  11.047   9.077
11839SOL    HW137291  12.734  11.117   9.087
11839SOL    HW237292  12.590  11.092   9.048
11840SOL     OW37293   0.267  11.393   4.607
11840SOL    HW137294   0.317  11.404   4.688
11840SOL    HW237295   0.308  11.453   4.545
11841SOL     OW37296  14.422   8.291  14.668
11841SOL    HW137297  14.444   8.361  14.730
11841SOL    HW237298  14.369   8.230  14.719
11842SOL     OW37299   6.695  11.183  10.436
11842SOL    HW137300   6.690  11.103  10.384
11842SOL    HW237301   6.723  11.250  10.373
11843SOL     OW37302   1.580   8.099  10.583
11843SOL    HW137303   1.514   8.156  10.622
11843SOL    HW237304   1.663   8.130  10.617
11844SOL     OW37305   1.569   4.421  10.136
11844SOL    HW137306   1.647   4.476  10.141
11844SOL    HW237307   1.580   4.356  10.206
11845SOL     OW37308   1.632   9.133  14.597
11845SOL    HW137309   1.628   9.210  14.541
11845SOL    HW237310   1.640   9.168  14.686
11846SOL     OW37311   4.047   6.851   5.418
11846SOL    HW137312   4.091   6.853   5.503
11846SOL    HW237313   4.066   6.763   5.384
11847SOL     OW37314   2.660  13.758   1.815
11847SOL    HW137315   2.604  13.727   1.744
11847SOL    HW237316   2.645  13.852   1.819
11848SOL     OW37317   7.575  13.973  12.076
11848SOL    HW137318   7.640  14.019  12.130
11848SOL    HW237319   7.491  14.001  12.111
11849SOL     OW37320   1.034  11.338   2.325
11849SOL    HW137321   0.993  11.352   2.410
11849SOL    HW237322   1.009  11.414   2.272
11850SOL     OW37323   8.529   8.835  12.929
11850SOL    HW137324   8.462   8.902  12.941
11850SOL    HW237325   8.589   8.872  12.864
11851SOL     OW37326  12.878   9.528   9.705
11851SOL    HW137327  12.955   9.475   9.724
11851SOL    HW237328  12.844   9.494   9.623
11852SOL     OW37329   9.318   0.182   1.858
11852SOL    HW137330   9.383   0.153   1.921
11852SOL    HW237331   9.368   0.200   1.778
11853SOL     OW37332   1.371  11.943  12.789
11853SOL    HW137333   1.456  11.928  12.830
11853SOL    HW237334   1.315  11.973  12.860
11854SOL     OW37335   4.419  13.986   1.276
11854SOL    HW137336   4.490  13.948   1.327
11854SOL    HW237337   4.444  13.970   1.185
11855SOL     OW37338   4.415   6.039   6.222
11855SOL    HW137339   4.455   6.044   6.135
11855SOL    HW237340   4.486   6.013   6.280
11856SOL     OW37341   7.231  11.201  12.344
11856SOL    HW137342   7.165  11.268  12.361
11856SOL    HW237343   7.271  11.227  12.262
11857SOL     OW37344   5.981   4.043   7.375
11857SOL    HW137345   5.981   4.038   7.279
11857SOL    HW237346   6.018   4.129   7.394
11858SOL     OW37347   5.187   5.864   1.095
11858SOL    HW137348   5.243   5.852   1.172
11858SOL    HW237349   5.228   5.935   1.046
11859SOL     OW37350  13.425   8.450  11.961
11859SOL    HW137351  13.438   8.499  12.042
11859SOL    HW237352  13.507   8.401  11.949
11860SOL     OW37353   6.546  13.040   9.376
11860SOL    HW137354   6.542  13.133   9.398
11860SOL    HW237355   6.625  13.008   9.421
11861SOL     OW37356   8.119  13.530  11.216
11861SOL    HW137357   8.070  13.484  11.148
11861SOL    HW237358   8.052  13.558  11.278
11862SOL     OW37359   1.615   5.868   5.169
11862SOL    HW137360   1.680   5.802   5.146
11862SOL    HW237361   1.616   5.871   5.265
11863SOL     OW37362   8.354   7.986   0.537
11863SOL    HW137363   8.310   8.027   0.612
11863SOL    HW237364   8.373   7.897   0.566
11864SOL     OW37365   8.108  13.127  10.518
11864SOL    HW137366   8.137  13.148  10.606
11864SOL    HW237367   8.188  13.100  10.472
11865SOL     OW37368   0.016   3.660   2.496
11865SOL    HW137369  14.849   3.580   2.520
11865SOL    HW237370   0.093   3.663   2.554
11866SOL     OW37371  13.219  14.325  14.695
11866SOL    HW137372  13.202  14.235  14.725
11866SOL    HW237373  13.156  14.379  14.743
11867SOL     OW37374   4.683   5.854   4.025
11867SOL    HW137375   4.743   5.919   4.060
11867SOL    HW237376   4.739   5.782   3.997
11868SOL     OW37377  14.798   8.923   3.169
11868SOL    HW137378  14.731   8.992   3.173
11868SOL    HW237379  14.862   8.956   3.106
11869SOL     OW37380   0.668   5.027   2.439
11869SOL    HW137381   0.718   5.106   2.461
11869SOL    HW237382   0.680   4.969   2.513
11870SOL     OW37383   6.716   2.453   1.385
11870SOL    HW137384   6.782   2.438   1.453
11870SOL    HW237385   6.676   2.537   1.409
11871SOL     OW37386   2.490  14.246   3.348
11871SOL    HW137387   2.556  14.316   3.342
11871SOL    HW237388   2.406  14.291   3.340
11872SOL     OW37389   1.194   3.409  11.774
11872SOL    HW137390   1.275   3.386  11.818
11872SOL    HW237391   1.183   3.342  11.706
11873SOL     OW37392   1.170  11.150   4.553
11873SOL    HW137393   1.251  11.133   4.601
11873SOL    HW237394   1.159  11.073   4.498
11874SOL     OW37395  14.862   4.675  12.494
11874SOL    HW137396  14.847   4.735  12.567
11874SOL    HW237397   0.060   4.712  12.448
11875SOL     OW37398   7.617   3.319   2.521
11875SOL    HW137399   7.525   3.294   2.517
11875SOL    HW237400   7.659   3.249   2.570
11876SOL     OW37401   3.251   2.530  14.727
11876SOL    HW137402   3.249   2.558  14.636
11876SOL    HW237403   3.262   2.435  14.723
11877SOL     OW37404   6.084   1.893   2.778
11877SOL    HW137405   5.996   1.860   2.800
11877SOL    HW237406   6.104   1.955   2.848
11878SOL     OW37407   2.510  14.383   4.250
11878SOL    HW137408   2.479  14.388   4.340
11878SOL    HW237409   2.434  14.352   4.201
11879SOL     OW37410   1.748   2.666  11.577
11879SOL    HW137411   1.719   2.628  11.494
11879SOL    HW237412   1.824   2.614  11.602
11880SOL     OW37413   6.319   6.257   0.028
11880SOL    HW137414   6.351   6.339  14.867
11880SOL    HW237415   6.398   6.209   0.051
11881SOL     OW37416   4.449   6.665  10.744
11881SOL    HW137417   4.538   6.692  10.723
11881SOL    HW237418   4.433   6.590  10.687
11882SOL     OW37419   9.287   2.800   9.404
11882SOL    HW137420   9.375   2.837   9.403
11882SOL    HW237421   9.267   2.784   9.312
11883SOL     OW37422   5.838  10.608   3.335
11883SOL    HW137423   5.918  10.632   3.288
11883SOL    HW237424   5.797  10.541   3.280
11884SOL     OW37425   3.128   3.501   9.928
11884SOL    HW137426   3.124   3.423   9.982
11884SOL    HW237427   3.220   3.529   9.932
11885SOL     OW37428   5.403  11.599  12.658
11885SOL    HW137429   5.326  11.623  12.606
11885SOL    HW237430   5.469  11.665  12.634
11886SOL     OW37431   8.058   6.499  14.264
11886SOL    HW137432   7.988   6.439  14.291
11886SOL    HW237433   8.024   6.542  14.186
11887SOL     OW37434   1.636   8.614   2.760
11887SOL    HW137435   1.559   8.623   2.704
11887SOL    HW237436   1.639   8.697   2.809
11888SOL     OW37437  13.473   2.111  12.278
11888SOL    HW137438  13.455   2.096  12.185
11888SOL    HW237439  13.493   2.024  12.312
11889SOL     OW37440   6.228   7.280  14.772
11889SOL    HW137441   6.143   7.309  14.741
11889SOL    HW237442   6.212   7.248  14.861
11890SOL     OW37443  10.198  12.207   4.337
11890SOL    HW137444  10.168  12.182   4.250
11890SOL    HW237445  10.158  12.143   4.396
11891SOL     OW37446   8.074  13.463   5.122
11891SOL    HW137447   8.053  13.413   5.201
11891SOL    HW237448   8.002  13.525   5.112
11892SOL     OW37449   0.304   7.519   4.219
11892SOL    HW137450   0.251   7.586   4.263
11892SOL    HW237451   0.327   7.458   4.289
11893SOL     OW37452  10.290  12.571   2.785
11893SOL    HW137453  10.308  12.595   2.694
11893SOL    HW237454  10.317  12.648   2.835
11894SOL     OW37455   9.357  14.342   2.564
11894SOL    HW137456   9.403  14.262   2.538
11894SOL    HW237457   9.424  14.396   2.605
11895SOL     OW37458   5.601  14.853  10.779
11895SOL    HW137459   5.537  14.871  10.848
11895SOL    HW237460   5.581  14.764  10.750
11896SOL     OW37461   5.959   1.149  13.499
11896SOL    HW137462   5.943   1.243  13.487
11896SOL    HW237463   6.042   1.133  13.453
11897SOL     OW37464  10.706   6.665   4.729
11897SOL    HW137465  10.705   6.726   4.654
11897SOL    HW237466  10.717   6.722   4.805
11898SOL     OW37467  12.754   9.156   1.235
11898SOL    HW137468  12.821   9.171   1.168
11898SOL    HW237469  12.688   9.224   1.219
11899SOL     OW37470   1.689  10.426   1.629
11899SOL    HW137471   1.740  10.458   1.704
11899SOL    HW237472   1.682  10.502   1.571
11900SOL     OW37473   0.182   5.670  10.285
11900SOL    HW137474   0.224   5.726  10.220
11900SOL    HW237475   0.144   5.598  10.235
11901SOL     OW37476   2.904  14.738   7.360
11901SOL    HW137477   2.981  14.793   7.347
11901SOL    HW237478   2.927  14.653   7.323
11902SOL     OW37479  11.392  10.338  14.690
11902SOL    HW137480  11.346  10.416  14.659
11902SOL    HW237481  11.383  10.275  14.619
11903SOL     OW37482  12.409  12.288   9.549
11903SOL    HW137483  12.400  12.257   9.639
11903SOL    HW237484  12.500  12.270   9.526
11904SOL     OW37485  11.589   7.321  10.462
11904SOL    HW137486  11.618   7.397  10.513
11904SOL    HW237487  11.662   7.260  10.465
11905SOL     OW37488  11.616   1.023  13.957
11905SOL    HW137489  11.537   0.976  13.930
11905SOL    HW237490  11.583   1.096  14.010
11906SOL     OW37491   4.684   7.648   2.573
11906SOL    HW137492   4.611   7.628   2.632
11906SOL    HW237493   4.753   7.588   2.598
11907SOL     OW37494   8.960   2.991   9.991
11907SOL    HW137495   8.894   2.994   9.922
11907SOL    HW237496   8.967   3.082  10.022
11908SOL     OW37497   7.502  12.067   5.818
11908SOL    HW137498   7.465  12.017   5.890
11908SOL    HW237499   7.545  12.001   5.762
11909SOL     OW37500   2.064   3.017   2.601
11909SOL    HW137501   2.030   3.093   2.649
11909SOL    HW237502   2.014   2.943   2.634
11910SOL     OW37503   9.818  10.641   0.103
11910SOL    HW137504   9.727  10.660   0.082
11910SOL    HW237505   9.847  10.582   0.033
11911SOL     OW37506   2.439   2.963   5.369
11911SOL    HW137507   2.408   2.902   5.436
11911SOL    HW237508   2.361   2.984   5.318
11912SOL     OW37509   7.172  12.834   9.845
11912SOL    HW137510   7.144  12.802   9.760
11912SOL    HW237511   7.097  12.818   9.903
11913SOL     OW37512  10.922   3.292   1.110
11913SOL    HW137513  10.933   3.329   1.197
11913SOL    HW237514  11.002   3.315   1.063
11914SOL     OW37515   0.701   1.447   5.274
11914SOL    HW137516   0.727   1.409   5.190
11914SOL    HW237517   0.652   1.526   5.251
11915SOL     OW37518   7.247   9.470   0.273
11915SOL    HW137519   7.224   9.540   0.335
11915SOL    HW237520   7.331   9.498   0.236
11916SOL     OW37521   4.244  10.928   3.577
11916SOL    HW137522   4.149  10.933   3.578
11916SOL    HW237523   4.264  10.849   3.627
11917SOL     OW37524   4.113   5.723   7.158
11917SOL    HW137525   4.102   5.770   7.076
11917SOL    HW237526   4.089   5.787   7.225
11918SOL     OW37527   5.006   9.298  10.054
11918SOL    HW137528   4.946   9.370  10.076
11918SOL    HW237529   4.953   9.219  10.061
11919SOL     OW37530   6.691   3.297   9.132
11919SOL    HW137531   6.749   3.365   9.097
11919SOL    HW237532   6.646   3.262   9.055
11920SOL     OW37533   9.232  10.127   9.376
11920SOL    HW137534   9.317  10.158   9.405
11920SOL    HW237535   9.229  10.036   9.403
11921SOL     OW37536  11.052   0.666   0.363
11921SOL    HW137537  11.036   0.572   0.358
11921SOL    HW237538  11.147   0.674   0.361
11922SOL     OW37539   9.258   6.368   5.318
11922SOL    HW137540   9.189   6.426   5.350
11922SOL    HW237541   9.296   6.330   5.398
11923SOL     OW37542   2.514   4.692   2.443
11923SOL    HW137543   2.561   4.763   2.485
11923SOL    HW237544   2.422   4.715   2.453
11924SOL     OW37545   1.754   6.282   8.867
11924SOL    HW137546   1.841   6.246   8.887
11924SOL    HW237547   1.772   6.364   8.821
11925SOL     OW37548   5.563   2.127   7.053
11925SOL    HW137549   5.648   2.159   7.082
11925SOL    HW237550   5.501   2.164   7.116
11926SOL     OW37551   7.503   1.663   1.790
11926SOL    HW137552   7.444   1.657   1.865
11926SOL    HW237553   7.464   1.604   1.725
11927SOL     OW37554  14.408  10.288  12.753
11927SOL    HW137555  14.463  10.210  12.744
11927SOL    HW237556  14.440  10.331  12.832
11928SOL     OW37557   9.504   2.611   5.270
11928SOL    HW137558   9.558   2.538   5.241
11928SOL    HW237559   9.469   2.583   5.354
11929SOL     OW37560   4.965   2.419   4.458
11929SOL    HW137561   4.900   2.489   4.459
11929SOL    HW237562   4.983   2.401   4.551
11930SOL     OW37563   1.412   1.472  14.290
11930SOL    HW137564   1.459   1.409  14.346
11930SOL    HW237565   1.325   1.436  14.280
11931SOL     OW37566  13.913   0.080  14.324
11931SOL    HW137567  13.907   0.150  14.388
11931SOL    HW237568  13.881   0.002  14.369
11932SOL     OW37569  13.835   9.718  12.674
11932SOL    HW137570  13.779   9.679  12.607
11932SOL    HW237571  13.923   9.711  12.638
11933SOL     OW37572  10.817   5.875   5.667
11933SOL    HW137573  10.758   5.852   5.739
11933SOL    HW237574  10.790   5.963   5.642
11934SOL     OW37575   0.805   8.721  11.785
11934SOL    HW137576   0.758   8.700  11.704
11934SOL    HW237577   0.896   8.730  11.758
11935SOL     OW37578   3.824  11.133   9.622
11935SOL    HW137579   3.768  11.076   9.674
11935SOL    HW237580   3.801  11.113   9.532
11936SOL     OW37581  12.918   0.750   8.184
11936SOL    HW137582  13.009   0.778   8.197
11936SOL    HW237583  12.917   0.658   8.211
11937SOL     OW37584  12.145  13.828   6.131
11937SOL    HW137585  12.212  13.855   6.194
11937SOL    HW237586  12.062  13.839   6.177
11938SOL     OW37587  14.557  10.612   5.311
11938SOL    HW137588  14.571  10.520   5.290
11938SOL    HW237589  14.570  10.658   5.228
11939SOL     OW37590   5.610   0.562  10.435
11939SOL    HW137591   5.563   0.554  10.351
11939SOL    HW237592   5.559   0.626  10.484
11940SOL     OW37593   1.051  10.893  14.838
11940SOL    HW137594   1.100  10.812  14.849
11940SOL    HW237595   0.974  10.883   0.017
11941SOL     OW37596   8.525   3.055   9.989
11941SOL    HW137597   8.538   2.995  10.062
11941SOL    HW237598   8.448   3.106  10.013
11942SOL     OW37599   0.077  12.139   9.032
11942SOL    HW137600   0.169  12.110   9.028
11942SOL    HW237601   0.030  12.078   8.975
11943SOL     OW37602   1.348  10.027  13.740
11943SOL    HW137603   1.319  10.114  13.712
11943SOL    HW237604   1.283  10.000  13.805
11944SOL     OW37605   3.348   9.573   3.177
11944SOL    HW137606   3.275   9.616   3.221
11944SOL    HW237607   3.328   9.581   3.083
11945SOL     OW37608  11.724   5.456  10.279
11945SOL    HW137609  11.783   5.531  10.281
11945SOL    HW237610  11.737   5.412  10.363
11946SOL     OW37611   4.564   5.049  11.457
11946SOL    HW137612   4.618   5.107  11.403
11946SOL    HW237613   4.490   5.026  11.400
11947SOL     OW37614   6.352   3.652   8.008
11947SOL    HW137615   6.282   3.590   7.987
11947SOL    HW237616   6.374   3.633   8.099
11948SOL     OW37617   2.868   1.329   7.666
11948SOL    HW137618   2.807   1.279   7.611
11948SOL    HW237619   2.955   1.303   7.637
11949SOL     OW37620   1.525   2.728   2.271
11949SOL    HW137621   1.541   2.822   2.285
11949SOL    HW237622   1.595   2.700   2.212
11950SOL     OW37623   9.436   7.351   7.789
11950SOL    HW137624   9.430   7.445   7.769
11950SOL    HW237625   9.447   7.347   7.884
11951SOL     OW37626   7.543  10.853   6.072
11951SOL    HW137627   7.597  10.846   5.993
11951SOL    HW237628   7.483  10.925   6.054
11952SOL     OW37629  12.046   9.909   7.865
11952SOL    HW137630  11.996   9.980   7.904
11952SOL    HW237631  11.999   9.888   7.784
11953SOL     OW37632   3.163   6.668  12.888
11953SOL    HW137633   3.184   6.589  12.936
11953SOL    HW237634   3.074   6.691  12.915
11954SOL     OW37635   3.040  13.468   6.547
11954SOL    HW137636   2.945  13.457   6.543
11954SOL    HW237637   3.073  13.420   6.470
11955SOL     OW37638   8.643   2.609  12.047
11955SOL    HW137639   8.608   2.527  12.010
11955SOL    HW237640   8.680   2.655  11.971
11956SOL     OW37641   5.526   0.073   5.451
11956SOL    HW137642   5.521   0.168   5.462
11956SOL    HW237643   5.598   0.045   5.507
11957SOL     OW37644   1.605   4.151   5.674
11957SOL    HW137645   1.674   4.135   5.609
11957SOL    HW237646   1.523   4.138   5.627
11958SOL     OW37647   6.665   3.815   5.444
11958SOL    HW137648   6.610   3.737   5.444
11958SOL    HW237649   6.753   3.783   5.465
11959SOL     OW37650   0.876   2.526  12.935
11959SOL    HW137651   0.909   2.498  12.849
11959SOL    HW237652   0.795   2.572  12.914
11960SOL     OW37653   2.230   9.931   5.815
11960SOL    HW137654   2.207   9.869   5.745
11960SOL    HW237655   2.216   9.881   5.896
11961SOL     OW37656   2.447   9.364  11.863
11961SOL    HW137657   2.396   9.408  11.795
11961SOL    HW237658   2.387   9.302  11.903
11962SOL     OW37659   9.972   0.936  12.220
11962SOL    HW137660  10.045   0.911  12.277
11962SOL    HW237661   9.894   0.906  12.267
11963SOL     OW37662   0.412   9.870   3.240
11963SOL    HW137663   0.485   9.833   3.192
11963SOL    HW237664   0.450   9.942   3.289
11964SOL     OW37665   6.193   1.743   6.542
11964SOL    HW137666   6.160   1.656   6.519
11964SOL    HW237667   6.184   1.794   6.461
11965SOL     OW37668  10.963   0.667   7.396
11965SOL    HW137669  10.967   0.691   7.488
11965SOL    HW237670  10.870   0.652   7.379
11966SOL     OW37671   3.921   4.563   6.594
11966SOL    HW137672   3.982   4.594   6.527
11966SOL    HW237673   3.893   4.643   6.640
11967SOL     OW37674  10.653   1.488   3.486
11967SOL    HW137675  10.621   1.399   3.500
11967SOL    HW237676  10.656   1.526   3.573
11968SOL     OW37677   0.921  11.397   5.673
11968SOL    HW137678   0.847  11.353   5.633
11968SOL    HW237679   0.906  11.490   5.655
11969SOL     OW37680   4.767   6.079   6.960
11969SOL    HW137681   4.812   5.996   6.975
11969SOL    HW237682   4.676   6.055   6.942
11970SOL     OW37683   1.646   8.152  12.557
11970SOL    HW137684   1.622   8.084  12.621
11970SOL    HW237685   1.715   8.112  12.504
11971SOL     OW37686   8.824   7.432   9.876
11971SOL    HW137687   8.752   7.417   9.815
11971SOL    HW237688   8.783   7.436   9.962
11972SOL     OW37689   6.725   9.805   7.617
11972SOL    HW137690   6.638   9.828   7.586
11972SOL    HW237691   6.728   9.710   7.612
11973SOL     OW37692   2.901   5.261   2.384
11973SOL    HW137693   2.813   5.268   2.422
11973SOL    HW237694   2.959   5.298   2.451
11974SOL     OW37695   3.377   3.657   5.481
11974SOL    HW137696   3.337   3.572   5.463
11974SOL    HW237697   3.308   3.721   5.461
11975SOL     OW37698   5.364  14.626   5.615
11975SOL    HW137699   5.325  14.573   5.545
11975SOL    HW237700   5.307  14.702   5.622
11976SOL     OW37701   5.259   3.817   2.873
11976SOL    HW137702   5.291   3.739   2.918
11976SOL    HW237703   5.338   3.865   2.848
11977SOL     OW37704  14.626   1.941  10.001
11977SOL    HW137705  14.659   2.013   9.947
11977SOL    HW237706  14.613   1.981  10.088
11978SOL     OW37707  10.166   6.924   6.508
11978SOL    HW137708  10.082   6.879   6.500
11978SOL    HW237709  10.145   7.004   6.556
11979SOL     OW37710   5.124  11.819   0.903
11979SOL    HW137711   5.110  11.909   0.934
11979SOL    HW237712   5.157  11.829   0.814
11980SOL     OW37713  14.323   2.408   3.493
11980SOL    HW137714  14.356   2.321   3.468
11980SOL    HW237715  14.228   2.401   3.485
11981SOL     OW37716  13.722  11.421  11.952
11981SOL    HW137717  13.640  11.393  11.994
11981SOL    HW237718  13.784  11.429  12.024
11982SOL     OW37719  14.518   9.037   3.344
11982SOL    HW137720  14.571   9.102   3.390
11982SOL    HW237721  14.468   8.994   3.413
11983SOL     OW37722  14.317   9.307  12.107
11983SOL    HW137723  14.373   9.314  12.030
11983SOL    HW237724  14.369   9.347  12.177
11984SOL     OW37725  13.119   8.133   7.498
11984SOL    HW137726  13.049   8.075   7.529
11984SOL    HW237727  13.169   8.155   7.577
11985SOL     OW37728   1.015   6.179  10.693
11985SOL    HW137729   1.005   6.244  10.763
11985SOL    HW237730   1.010   6.095  10.738
11986SOL     OW37731   4.339   2.732   6.511
11986SOL    HW137732   4.361   2.772   6.426
11986SOL    HW237733   4.250   2.763   6.529
11987SOL     OW37734  10.767   1.270   8.150
11987SOL    HW137735  10.730   1.289   8.063
11987SOL    HW237736  10.768   1.174   8.154
11988SOL     OW37737   8.098   5.956   0.631
11988SOL    HW137738   8.073   6.019   0.564
11988SOL    HW237739   8.032   5.887   0.624
11989SOL     OW37740   2.332   0.955   1.487
11989SOL    HW137741   2.347   0.864   1.462
11989SOL    HW237742   2.410   1.002   1.459
11990SOL     OW37743  13.854   2.819  10.813
11990SOL    HW137744  13.786   2.880  10.842
11990SOL    HW237745  13.867   2.840  10.721
11991SOL     OW37746  13.906  13.309   6.037
11991SOL    HW137747  13.846  13.272   5.972
11991SOL    HW237748  13.912  13.402   6.014
11992SOL     OW37749   4.990  13.543   7.326
11992SOL    HW137750   5.026  13.571   7.410
11992SOL    HW237751   5.062  13.495   7.285
11993SOL     OW37752   8.293   4.228   3.224
11993SOL    HW137753   8.301   4.159   3.290
11993SOL    HW237754   8.250   4.300   3.270
11994SOL     OW37755   5.844   7.744  12.244
11994SOL    HW137756   5.893   7.805  12.298
11994SOL    HW237757   5.752   7.756  12.270
11995SOL     OW37758   1.139  13.124   2.986
11995SOL    HW137759   1.160  13.140   3.077
11995SOL    HW237760   1.222  13.100   2.945
11996SOL     OW37761  10.045   8.828   6.225
11996SOL    HW137762  10.084   8.893   6.166
11996SOL    HW237763   9.958   8.811   6.188
11997SOL     OW37764  13.528   2.953   6.777
11997SOL    HW137765  13.550   3.009   6.853
11997SOL    HW237766  13.578   2.873   6.792
11998SOL     OW37767   6.067  10.239   1.293
11998SOL    HW137768   6.157  10.268   1.280
11998SOL    HW237769   6.052  10.248   1.387
11999SOL     OW37770   5.009   9.672  10.910
11999SOL    HW137771   5.016   9.767  10.904
11999SOL    HW237772   4.963   9.656  10.992
12000SOL     OW37773  11.037   7.907   1.154
12000SOL    HW137774  10.969   7.853   1.194
12000SOL    HW237775  11.097   7.928   1.226
12001SOL     OW37776   4.917   3.913   7.063
12001SOL    HW137777   4.896   3.849   6.995
12001SOL    HW237778   4.917   3.997   7.016
12002SOL     OW37779   8.323  10.324  11.536
12002SOL    HW137780   8.376  10.307  11.458
12002SOL    HW237781   8.369  10.395  11.581
12003SOL     OW37782   3.036   3.362   7.989
12003SOL    HW137783   3.011   3.451   8.013
12003SOL    HW237784   3.130   3.358   8.002
12004SOL     OW37785   7.925   7.606  12.581
12004SOL    HW137786   7.992   7.564  12.635
12004SOL    HW237787   7.916   7.694  12.618
12005SOL     OW37788  13.953   8.615   4.938
12005SOL    HW137789  13.867   8.572   4.934
12005SOL    HW237790  14.005   8.558   4.995
12006SOL     OW37791   9.850   7.313  11.457
12006SOL    HW137792   9.927   7.314  11.400
12006SOL    HW237793   9.870   7.376  11.526
12007SOL     OW37794   4.244   9.686   2.596
12007SOL    HW137795   4.300   9.718   2.666
12007SOL    HW237796   4.273   9.732   2.518
12008SOL     OW37797   0.840   2.052  11.161
12008SOL    HW137798   0.877   2.008  11.238
12008SOL    HW237799   0.888   2.135  11.156
12009SOL     OW37800  11.111  13.674   0.953
12009SOL    HW137801  11.062  13.593   0.967
12009SOL    HW237802  11.057  13.725   0.893
12010SOL     OW37803  11.298   0.038   7.742
12010SOL    HW137804  11.333   0.091   7.814
12010SOL    HW237805  11.282  14.830   7.780
12011SOL     OW37806   7.850  12.407   3.057
12011SOL    HW137807   7.856  12.499   3.028
12011SOL    HW237808   7.797  12.411   3.136
12012SOL     OW37809   6.920   1.872  11.683
12012SOL    HW137810   6.957   1.954  11.652
12012SOL    HW237811   6.829   1.893  11.705
12013SOL     OW37812  11.206   5.794   6.103
12013SOL    HW137813  11.280   5.842   6.065
12013SOL    HW237814  11.129   5.831   6.060
12014SOL     OW37815  14.087  11.785  12.911
12014SOL    HW137816  13.997  11.801  12.939
12014SOL    HW237817  14.139  11.798  12.990
12015SOL     OW37818   2.879  13.884   9.073
12015SOL    HW137819   2.909  13.795   9.052
12015SOL    HW237820   2.839  13.915   8.992
12016SOL     OW37821   2.428  12.608   0.929
12016SOL    HW137822   2.522  12.596   0.945
12016SOL    HW237823   2.395  12.519   0.915
12017SOL     OW37824   6.033  11.869  14.255
12017SOL    HW137825   5.940  11.855  14.271
12017SOL    HW237826   6.058  11.936  14.318
12018SOL     OW37827  10.454   2.371   6.415
12018SOL    HW137828  10.452   2.465   6.398
12018SOL    HW237829  10.368   2.340   6.387
12019SOL     OW37830   9.382   7.825  12.826
12019SOL    HW137831   9.333   7.792  12.751
12019SOL    HW237832   9.315   7.848  12.890
12020SOL     OW37833   3.290   4.004   0.871
12020SOL    HW137834   3.196   4.006   0.885
12020SOL    HW237835   3.327   3.993   0.958
12021SOL     OW37836  10.354  10.129   0.122
12021SOL    HW137837  10.446  10.153   0.135
12021SOL    HW237838  10.309  10.157   0.201
12022SOL     OW37839   6.364   4.529   0.601
12022SOL    HW137840   6.408   4.611   0.579
12022SOL    HW237841   6.302   4.552   0.670
12023SOL     OW37842  13.597  11.029  11.326
12023SOL    HW137843  13.651  10.976  11.266
12023SOL    HW237844  13.509  10.991  11.318
12024SOL     OW37845  11.276   6.667  11.247
12024SOL    HW137846  11.228   6.646  11.328
12024SOL    HW237847  11.230   6.617  11.179
12025SOL     OW37848   7.852  10.268  13.425
12025SOL    HW137849   7.818  10.188  13.465
12025SOL    HW237850   7.927  10.292  13.480
12026SOL     OW37851  12.380   7.185   6.978
12026SOL    HW137852  12.316   7.118   7.001
12026SOL    HW237853  12.357   7.210   6.888
12027SOL     OW37854   9.265   9.031  12.672
12027SOL    HW137855   9.279   8.953  12.618
12027SOL    HW237856   9.353   9.056  12.701
12028SOL     OW37857  11.271   1.659  13.486
12028SOL    HW137858  11.192   1.713  13.475
12028SOL    HW237859  11.285   1.655  13.580
12029SOL     OW37860   8.507  13.418  13.212
12029SOL    HW137861   8.533  13.419  13.120
12029SOL    HW237862   8.565  13.481  13.255
12030SOL     OW37863   2.897   6.267   7.713
12030SOL    HW137864   2.883   6.353   7.754
12030SOL    HW237865   2.812   6.242   7.678
12031SOL     OW37866   8.850   4.486   2.096
12031SOL    HW137867   8.863   4.558   2.158
12031SOL    HW237868   8.779   4.434   2.133
12032SOL     OW37869  10.664   7.837   5.348
12032SOL    HW137870  10.726   7.895   5.302
12032SOL    HW237871  10.578   7.873   5.326
12033SOL     OW37872   2.709   7.298   0.445
12033SOL    HW137873   2.711   7.377   0.392
12033SOL    HW237874   2.800   7.267   0.446
12034SOL     OW37875  13.038   4.434   0.704
12034SOL    HW137876  12.945   4.454   0.710
12034SOL    HW237877  13.043   4.339   0.699
12035SOL     OW37878   7.092  10.278   7.504
12035SOL    HW137879   7.086  10.196   7.551
12035SOL    HW237880   7.039  10.339   7.555
12036SOL     OW37881   9.481   1.273   1.393
12036SOL    HW137882   9.551   1.208   1.402
12036SOL    HW237883   9.485   1.300   1.301
12037SOL     OW37884   1.084  11.748   8.305
12037SOL    HW137885   1.132  11.831   8.301
12037SOL    HW237886   1.138  11.687   8.255
12038SOL     OW37887  12.968   5.898  12.796
12038SOL    HW137888  12.891   5.951  12.779
12038SOL    HW237889  13.009   5.938  12.873
12039SOL     OW37890  11.149  10.347   1.204
12039SOL    HW137891  11.099  10.303   1.135
12039SOL    HW237892  11.194  10.419   1.160
12040SOL     OW37893   5.314  12.714   5.226
12040SOL    HW137894   5.272  12.780   5.172
12040SOL    HW237895   5.393  12.757   5.259
12041SOL     OW37896  11.961   4.201   1.791
12041SOL    HW137897  11.969   4.169   1.881
12041SOL    HW237898  12.042   4.250   1.776
12042SOL     OW37899  13.576   9.720   9.046
12042SOL    HW137900  13.591   9.635   9.088
12042SOL    HW237901  13.656   9.769   9.062
12043SOL     OW37902  14.029  10.878   8.917
12043SOL    HW137903  13.965  10.905   8.983
12043SOL    HW237904  14.001  10.923   8.837
12044SOL     OW37905   0.474   2.112   2.838
12044SOL    HW137906   0.401   2.095   2.897
12044SOL    HW237907   0.515   2.191   2.872
12045SOL     OW37908   2.002  12.811   5.890
12045SOL    HW137909   1.976  12.806   5.798
12045SOL    HW237910   2.084  12.761   5.894
12046SOL     OW37911   1.622   8.031  13.405
12046SOL    HW137912   1.608   8.050  13.498
12046SOL    HW237913   1.657   7.942  13.403
12047SOL     OW37914   2.855   5.605   5.697
12047SOL    HW137915   2.820   5.672   5.757
12047SOL    HW237916   2.934   5.573   5.740
12048SOL     OW37917   6.915   1.760  13.871
12048SOL    HW137918   6.856   1.821  13.826
12048SOL    HW237919   7.003   1.796  13.856
12049SOL     OW37920   4.139   4.051   5.432
12049SOL    HW137921   4.222   4.031   5.388
12049SOL    HW237922   4.075   4.057   5.361
12050SOL     OW37923   7.752   2.723   8.946
12050SOL    HW137924   7.779   2.637   8.977
12050SOL    HW237925   7.656   2.723   8.956
12051SOL     OW37926   3.666   8.422   0.107
12051SOL    HW137927   3.701   8.334   0.099
12051SOL    HW237928   3.730   8.469   0.161
12052SOL     OW37929   1.835   8.128   1.758
12052SOL    HW137930   1.897   8.107   1.688
12052SOL    HW237931   1.786   8.047   1.772
12053SOL     OW37932   7.131  14.068   3.628
12053SOL    HW137933   7.117  14.144   3.572
12053SOL    HW237934   7.187  14.101   3.699
12054SOL     OW37935   0.238   2.130   5.067
12054SOL    HW137936   0.162   2.101   5.016
12054SOL    HW237937   0.313   2.101   5.015
12055SOL     OW37938  14.354  13.035   1.594
12055SOL    HW137939  14.290  12.986   1.542
12055SOL    HW237940  14.325  13.023   1.685
12056SOL     OW37941   6.697   8.150  14.220
12056SOL    HW137942   6.638   8.221  14.195
12056SOL    HW237943   6.743   8.127  14.139
12057SOL     OW37944  10.825   1.932   4.744
12057SOL    HW137945  10.751   1.925   4.685
12057SOL    HW237946  10.902   1.925   4.688
12058SOL     OW37947   3.005   2.883   9.243
12058SOL    HW137948   3.035   2.945   9.176
12058SOL    HW237949   2.909   2.886   9.237
12059SOL     OW37950   3.783  13.995  14.572
12059SOL    HW137951   3.878  14.008  14.572
12059SOL    HW237952   3.765  13.949  14.654
12060SOL     OW37953   5.030   9.946   0.657
12060SOL    HW137954   5.057   9.892   0.731
12060SOL    HW237955   5.009   9.883   0.587
12061SOL     OW37956  10.420   4.123  13.663
12061SOL    HW137957  10.466   4.112  13.746
12061SOL    HW237958  10.329   4.099  13.682
12062SOL     OW37959  14.719  12.967   7.387
12062SOL    HW137960  14.751  13.057   7.394
12062SOL    HW237961  14.657  12.959   7.460
12063SOL     OW37962  13.165   5.310   8.757
12063SOL    HW137963  13.115   5.262   8.824
12063SOL    HW237964  13.103   5.376   8.725
12064SOL     OW37965   5.541   5.880   3.472
12064SOL    HW137966   5.543   5.943   3.400
12064SOL    HW237967   5.618   5.826   3.459
12065SOL     OW37968  13.068   8.403  10.964
12065SOL    HW137969  13.100   8.414  11.053
12065SOL    HW237970  13.128   8.340  10.924
12066SOL     OW37971   5.984  10.492   2.823
12066SOL    HW137972   5.890  10.503   2.808
12066SOL    HW237973   5.989  10.441   2.904
12067SOL     OW37974   7.891   6.044   7.911
12067SOL    HW137975   7.797   6.044   7.898
12067SOL    HW237976   7.914   6.136   7.926
12068SOL     OW37977  12.774  14.160  11.591
12068SOL    HW137978  12.701  14.150  11.653
12068SOL    HW237979  12.762  14.088  11.529
12069SOL     OW37980   8.339   6.030   0.141
12069SOL    HW137981   8.330   6.118   0.104
12069SOL    HW237982   8.423   5.999   0.108
12070SOL     OW37983  11.543   7.443   6.389
12070SOL    HW137984  11.617   7.394   6.424
12070SOL    HW237985  11.552   7.530   6.426
12071SOL     OW37986   0.379   2.024   4.691
12071SOL    HW137987   0.382   2.032   4.596
12071SOL    HW237988   0.396   1.931   4.709
12072SOL     OW37989  12.259   2.134  10.991
12072SOL    HW137990  12.236   2.113  11.081
12072SOL    HW237991  12.348   2.169  10.996
12073SOL     OW37992  12.382   5.667   8.552
12073SOL    HW137993  12.383   5.761   8.535
12073SOL    HW237994  12.292   5.639   8.531
12074SOL     OW37995   3.259  11.066   5.651
12074SOL    HW137996   3.341  11.109   5.626
12074SOL    HW237997   3.246  11.090   5.743
12075SOL     OW37998   7.785   3.233   3.103
12075SOL    HW137999   7.752   3.184   3.178
12075SOL    HW238000   7.735   3.314   3.103
12076SOL     OW38001   9.664   9.419  12.220
12076SOL    HW138002   9.662   9.419  12.315
12076SOL    HW238003   9.751   9.386  12.197
12077SOL     OW38004   2.241  13.334   4.046
12077SOL    HW138005   2.182  13.399   4.008
12077SOL    HW238006   2.327  13.376   4.044
12078SOL     OW38007  11.621   6.040   3.191
12078SOL    HW138008  11.586   6.004   3.272
12078SOL    HW238009  11.656   6.125   3.216
12079SOL     OW38010  10.325   6.554  11.120
12079SOL    HW138011  10.327   6.633  11.065
12079SOL    HW238012  10.279   6.489  11.067
12080SOL     OW38013  12.499  10.405   8.745
12080SOL    HW138014  12.509  10.436   8.655
12080SOL    HW238015  12.424  10.453   8.779
12081SOL     OW38016   1.703   3.017   6.197
12081SOL    HW138017   1.730   3.079   6.129
12081SOL    HW238018   1.779   2.961   6.210
12082SOL     OW38019  10.459   0.732  12.064
12082SOL    HW138020  10.491   0.821  12.050
12082SOL    HW238021  10.502   0.680  11.996
12083SOL     OW38022  12.441   4.137   6.998
12083SOL    HW138023  12.488   4.194   7.059
12083SOL    HW238024  12.510   4.090   6.950
12084SOL     OW38025  13.258   9.917  13.642
12084SOL    HW138026  13.337   9.940  13.689
12084SOL    HW238027  13.190   9.912  13.709
12085SOL     OW38028  12.425  11.471  14.859
12085SOL    HW138029  12.451  11.424  14.780
12085SOL    HW238030  12.468  11.424   0.053
12086SOL     OW38031  11.835   3.704   0.830
12086SOL    HW138032  11.899   3.688   0.899
12086SOL    HW238033  11.830   3.800   0.824
12087SOL     OW38034  13.216  10.122   3.009
12087SOL    HW138035  13.201  10.081   3.095
12087SOL    HW238036  13.142  10.182   2.998
12088SOL     OW38037   4.565   9.913  11.462
12088SOL    HW138038   4.590   9.916  11.369
12088SOL    HW238039   4.647   9.904  11.509
12089SOL     OW38040   7.048  13.529   3.535
12089SOL    HW138041   7.097  13.546   3.616
12089SOL    HW238042   6.968  13.581   3.544
12090SOL     OW38043   7.895  10.509   3.355
12090SOL    HW138044   7.815  10.457   3.351
12090SOL    HW238045   7.946  10.468   3.425
12091SOL     OW38046  11.095  12.850  14.371
12091SOL    HW138047  11.108  12.836  14.278
12091SOL    HW238048  11.000  12.859  14.381
12092SOL     OW38049   2.128   0.981  10.893
12092SOL    HW138050   2.173   0.898  10.906
12092SOL    HW238051   2.191   1.047  10.922
12093SOL     OW38052   6.563   0.784   6.848
12093SOL    HW138053   6.645   0.833   6.858
12093SOL    HW238054   6.572   0.709   6.908
12094SOL     OW38055   0.392   6.870  12.416
12094SOL    HW138056   0.308   6.904  12.448
12094SOL    HW238057   0.407   6.917  12.334
12095SOL     OW38058   2.212   8.067   7.602
12095SOL    HW138059   2.273   8.058   7.675
12095SOL    HW238060   2.150   8.135   7.631
12096SOL     OW38061   6.444   9.997   0.115
12096SOL    HW138062   6.387   9.920   0.117
12096SOL    HW238063   6.530   9.964   0.139
12097SOL     OW38064   0.367  11.144   3.137
12097SOL    HW138065   0.311  11.210   3.098
12097SOL    HW238066   0.308  11.072   3.158
12098SOL     OW38067  14.025   4.513  12.505
12098SOL    HW138068  13.981   4.566  12.571
12098SOL    HW238069  13.991   4.544  12.422
12099SOL     OW38070  14.739  10.588  10.187
12099SOL    HW138071  14.797  10.664  10.184
12099SOL    HW238072  14.675  10.608  10.255
12100SOL     OW38073  12.603   1.697  10.772
12100SOL    HW138074  12.648   1.619  10.803
12100SOL    HW238075  12.546   1.665  10.702
12101SOL     OW38076  14.122   4.837   1.507
12101SOL    HW138077  14.141   4.892   1.431
12101SOL    HW238078  14.091   4.755   1.470
12102SOL     OW38079   2.666   2.993   3.413
12102SOL    HW138080   2.599   2.968   3.477
12102SOL    HW238081   2.749   2.986   3.460
12103SOL     OW38082   4.809  13.936   3.994
12103SOL    HW138083   4.856  13.922   3.912
12103SOL    HW238084   4.719  13.954   3.967
12104SOL     OW38085  10.295  10.429   8.893
12104SOL    HW138086  10.269  10.362   8.956
12104SOL    HW238087  10.215  10.480   8.878
12105SOL     OW38088  12.947   3.744   4.837
12105SOL    HW138089  12.895   3.665   4.855
12105SOL    HW238090  13.032   3.711   4.810
12106SOL     OW38091  12.010   8.862   9.932
12106SOL    HW138092  12.041   8.892  10.017
12106SOL    HW238093  11.999   8.942   9.881
12107SOL     OW38094   8.438   8.535  14.632
12107SOL    HW138095   8.355   8.560  14.590
12107SOL    HW238096   8.495   8.611  14.620
12108SOL     OW38097   1.061   7.098  11.931
12108SOL    HW138098   0.977   7.135  11.956
12108SOL    HW238099   1.040   7.011  11.897
12109SOL     OW38100  14.367   8.121   4.888
12109SOL    HW138101  14.431   8.049   4.893
12109SOL    HW238102  14.368   8.147   4.796
12110SOL     OW38103   8.446  11.346   1.822
12110SOL    HW138104   8.495  11.400   1.761
12110SOL    HW238105   8.468  11.256   1.798
12111SOL     OW38106   5.883   8.922   2.899
12111SOL    HW138107   5.852   8.858   2.834
12111SOL    HW238108   5.898   9.001   2.848
12112SOL     OW38109   4.422   0.962   3.280
12112SOL    HW138110   4.446   0.895   3.217
12112SOL    HW238111   4.482   0.949   3.353
12113SOL     OW38112   4.424  10.694   1.268
12113SOL    HW138113   4.397  10.676   1.178
12113SOL    HW238114   4.425  10.790   1.274
12114SOL     OW38115   0.342  10.367  10.935
12114SOL    HW138116   0.313  10.315  11.010
12114SOL    HW238117   0.298  10.329  10.860
12115SOL     OW38118  11.349   7.265   4.968
12115SOL    HW138119  11.269   7.214   4.955
12115SOL    HW238120  11.380   7.238   5.055
12116SOL     OW38121   2.813  14.730  11.934
12116SOL    HW138122   2.876  14.759  11.867
12116SOL    HW238123   2.772  14.653  11.896
12117SOL     OW38124   5.726   7.492  11.905
12117SOL    HW138125   5.686   7.511  11.820
12117SOL    HW238126   5.798   7.555  11.912
12118SOL     OW38127   2.702   0.659   7.486
12118SOL    HW138128   2.746   0.744   7.492
12118SOL    HW238129   2.725   0.627   7.399
12119SOL     OW38130   4.767   3.678  11.144
12119SOL    HW138131   4.762   3.598  11.091
12119SOL    HW238132   4.861   3.694  11.154
12120SOL     OW38133   1.532   6.231  13.586
12120SOL    HW138134   1.497   6.315  13.615
12120SOL    HW238135   1.596   6.254  13.519
12121SOL     OW38136   5.976   4.929   6.651
12121SOL    HW138137   5.989   5.024   6.654
12121SOL    HW238138   5.974   4.902   6.742
12122SOL     OW38139   4.399   3.612   7.058
12122SOL    HW138140   4.433   3.688   7.011
12122SOL    HW238141   4.350   3.649   7.131
12123SOL     OW38142   9.428   1.991   6.583
12123SOL    HW138143   9.424   2.077   6.541
12123SOL    HW238144   9.381   1.933   6.522
12124SOL     OW38145  13.793   2.187   4.328
12124SOL    HW138146  13.803   2.168   4.235
12124SOL    HW238147  13.704   2.158   4.349
12125SOL     OW38148   2.670  11.495   4.284
12125SOL    HW138149   2.665  11.573   4.339
12125SOL    HW238150   2.728  11.436   4.332
12126SOL     OW38151   1.922   2.820   2.738
12126SOL    HW138152   1.972   2.793   2.815
12126SOL    HW238153   1.835   2.841   2.772
12127SOL     OW38154  10.388  12.344   2.160
12127SOL    HW138155  10.459  12.407   2.146
12127SOL    HW238156  10.341  12.342   2.077
12128SOL     OW38157   0.755   5.095  11.940
12128SOL    HW138158   0.687   5.048  11.989
12128SOL    HW238159   0.837   5.060  11.974
12129SOL     OW38160   3.846  13.758   4.057
12129SOL    HW138161   3.848  13.829   4.121
12129SOL    HW238162   3.920  13.702   4.081
12130SOL     OW38163  12.865  10.089   0.372
12130SOL    HW138164  12.956  10.112   0.353
12130SOL    HW238165  12.870  10.006   0.420
12131SOL     OW38166   5.611  10.327  10.090
12131SOL    HW138167   5.565  10.254  10.130
12131SOL    HW238168   5.557  10.404  10.111
12132SOL     OW38169   1.314   2.614   1.943
12132SOL    HW138170   1.343   2.689   1.892
12132SOL    HW238171   1.243   2.575   1.890
12133SOL     OW38172   3.895   1.261  14.608
12133SOL    HW138173   3.953   1.335  14.587
12133SOL    HW238174   3.941   1.184  14.574
12134SOL     OW38175   6.097   8.000   1.288
12134SOL    HW138176   6.116   7.963   1.374
12134SOL    HW238177   6.026   7.945   1.253
12135SOL     OW38178   1.756   8.425   2.053
12135SOL    HW138179   1.738   8.418   1.959
12135SOL    HW238180   1.808   8.504   2.062
12136SOL     OW38181  14.720   1.853   2.812
12136SOL    HW138182  14.809   1.868   2.782
12136SOL    HW238183  14.665   1.902   2.751
12137SOL     OW38184   5.796   4.578   8.857
12137SOL    HW138185   5.757   4.512   8.915
12137SOL    HW238186   5.730   4.595   8.791
12138SOL     OW38187  13.478   7.922  10.042
12138SOL    HW138188  13.513   7.836  10.066
12138SOL    HW238189  13.539   7.984  10.082
12139SOL     OW38190   0.659   2.423   9.264
12139SOL    HW138191   0.577   2.377   9.281
12139SOL    HW238192   0.638   2.484   9.194
12140SOL     OW38193   7.108   3.274   1.687
12140SOL    HW138194   7.103   3.240   1.776
12140SOL    HW238195   7.182   3.335   1.688
12141SOL     OW38196  10.157  11.034   8.254
12141SOL    HW138197  10.224  11.093   8.218
12141SOL    HW238198  10.205  10.954   8.277
12142SOL     OW38199  10.735   3.550   3.214
12142SOL    HW138200  10.766   3.594   3.294
12142SOL    HW238201  10.652   3.593   3.194
12143SOL     OW38202   5.312   0.033  13.717
12143SOL    HW138203   5.363   0.058  13.640
12143SOL    HW238204   5.259   0.110  13.737
12144SOL     OW38205  14.670  11.575   7.532
12144SOL    HW138206  14.645  11.507   7.470
12144SOL    HW238207  14.701  11.527   7.609
12145SOL     OW38208  12.315   0.673  12.260
12145SOL    HW138209  12.374   0.712  12.324
12145SOL    HW238210  12.373   0.636  12.193
12146SOL     OW38211   2.907   5.504   5.153
12146SOL    HW138212   2.988   5.541   5.118
12146SOL    HW238213   2.844   5.576   5.150
12147SOL     OW38214   2.575   0.773   3.660
12147SOL    HW138215   2.488   0.745   3.690
12147SOL    HW238216   2.573   0.758   3.565
12148SOL     OW38217  14.195   3.058   3.807
12148SOL    HW138218  14.135   3.039   3.735
12148SOL    HW238219  14.145   3.036   3.886
12149SOL     OW38220  13.245  14.329   0.643
12149SOL    HW138221  13.289  14.275   0.577
12149SOL    HW238222  13.189  14.387   0.592
12150SOL     OW38223   1.982   4.005   4.171
12150SOL    HW138224   2.049   4.046   4.226
12150SOL    HW238225   1.954   4.074   4.111
12151SOL     OW38226  11.097   3.587   4.566
12151SOL    HW138227  11.041   3.575   4.643
12151SOL    HW238228  11.112   3.499   4.533
12152SOL     OW38229   8.599  10.651  11.949
12152SOL    HW138230   8.664  10.581  11.957
12152SOL    HW238231   8.515  10.608  11.961
12153SOL     OW38232  13.261  14.004   9.445
12153SOL    HW138233  13.327  13.938   9.469
12153SOL    HW238234  13.253  13.995   9.350
12154SOL     OW38235   7.558   8.025   9.264
12154SOL    HW138236   7.464   8.041   9.271
12154SOL    HW238237   7.579   8.047   9.173
12155SOL     OW38238  12.236   6.876   1.429
12155SOL    HW138239  12.189   6.959   1.437
12155SOL    HW238240  12.169   6.809   1.438
12156SOL     OW38241  14.655  12.364   0.195
12156SOL    HW138242  14.681  12.438   0.139
12156SOL    HW238243  14.609  12.404   0.268
12157SOL     OW38244  13.243   9.648   1.576
12157SOL    HW138245  13.178   9.624   1.642
12157SOL    HW238246  13.325   9.652   1.624
12158SOL     OW38247  10.479   2.730   8.597
12158SOL    HW138248  10.404   2.671   8.606
12158SOL    HW238249  10.513   2.712   8.510
12159SOL     OW38250  13.602  12.957   0.913
12159SOL    HW138251  13.596  12.954   0.817
12159SOL    HW238252  13.512  12.948   0.943
12160SOL     OW38253   8.261  10.539   3.813
12160SOL    HW138254   8.265  10.462   3.758
12160SOL    HW238255   8.234  10.610   3.754
12161SOL     OW38256   0.529  12.584  10.689
12161SOL    HW138257   0.496  12.612  10.774
12161SOL    HW238258   0.617  12.549  10.708
12162SOL     OW38259  14.283   0.959   8.417
12162SOL    HW138260  14.238   0.878   8.440
12162SOL    HW238261  14.372   0.931   8.395
12163SOL     OW38262  14.092  13.011   6.117
12163SOL    HW138263  14.069  13.070   6.045
12163SOL    HW238264  14.143  12.941   6.076
12164SOL     OW38265   4.019  11.525   0.993
12164SOL    HW138266   4.066  11.601   1.026
12164SOL    HW238267   4.087  11.466   0.960
12165SOL     OW38268   5.244   7.874   2.132
12165SOL    HW138269   5.295   7.944   2.092
12165SOL    HW238270   5.267   7.796   2.082
12166SOL     OW38271   5.829   3.434   4.980
12166SOL    HW138272   5.919   3.446   4.949
12166SOL    HW238273   5.797   3.523   4.994
12167SOL     OW38274   2.019   5.711   1.451
12167SOL    HW138275   2.025   5.764   1.531
12167SOL    HW238276   1.938   5.660   1.463
12168SOL     OW38277   7.519  10.830  11.078
12168SOL    HW138278   7.567  10.783  11.010
12168SOL    HW238279   7.486  10.908  11.033
12169SOL     OW38280   5.441  14.614  13.706
12169SOL    HW138281   5.388  14.687  13.676
12169SOL    HW238282   5.515  14.612  13.645
12170SOL     OW38283   3.367   2.489   2.680
12170SOL    HW138284   3.380   2.546   2.604
12170SOL    HW238285   3.433   2.420   2.669
12171SOL     OW38286   3.361  10.616   0.673
12171SOL    HW138287   3.277  10.629   0.630
12171SOL    HW238288   3.360  10.676   0.747
12172SOL     OW38289  11.803  14.465  12.778
12172SOL    HW138290  11.755  14.391  12.816
12172SOL    HW238291  11.742  14.505  12.717
12173SOL     OW38292  13.799   1.496   5.707
12173SOL    HW138293  13.805   1.576   5.760
12173SOL    HW238294  13.838   1.428   5.761
12174SOL     OW38295   4.513   2.099  14.691
12174SOL    HW138296   4.562   2.164  14.640
12174SOL    HW238297   4.580   2.053  14.741
12175SOL     OW38298   2.265   4.804   2.504
12175SOL    HW138299   2.221   4.759   2.576
12175SOL    HW238300   2.198   4.859   2.464
12176SOL     OW38301   4.002   1.548  11.979
12176SOL    HW138302   3.968   1.459  11.978
12176SOL    HW238303   4.074   1.547  11.916
12177SOL     OW38304   2.024  14.127   6.595
12177SOL    HW138305   2.108  14.093   6.626
12177SOL    HW238306   2.047  14.187   6.525
12178SOL     OW38307  13.173   0.625  12.974
12178SOL    HW138308  13.097   0.567  12.983
12178SOL    HW238309  13.140   0.711  12.999
12179SOL     OW38310  14.058  11.363   4.007
12179SOL    HW138311  14.054  11.458   3.998
12179SOL    HW238312  14.120  11.335   3.939
12180SOL     OW38313   9.630   1.988   4.383
12180SOL    HW138314   9.565   1.933   4.428
12180SOL    HW238315   9.641   2.064   4.441
12181SOL     OW38316   2.241   4.112   5.194
12181SOL    HW138317   2.317   4.075   5.149
12181SOL    HW238318   2.170   4.104   5.131
12182SOL     OW38319   8.407   2.360   2.965
12182SOL    HW138320   8.314   2.339   2.973
12182SOL    HW238321   8.444   2.288   2.914
12183SOL     OW38322   2.885   6.513   5.063
12183SOL    HW138323   2.964   6.485   5.017
12183SOL    HW238324   2.899   6.605   5.081
12184SOL     OW38325   5.347   7.659  12.512
12184SOL    HW138326   5.279   7.722  12.493
12184SOL    HW238327   5.425   7.711  12.530
12185SOL     OW38328   4.933  11.025  12.990
12185SOL    HW138329   4.963  10.965  12.922
12185SOL    HW238330   5.014  11.066  13.022
12186SOL     OW38331   6.737   8.231   3.472
12186SOL    HW138332   6.644   8.211   3.465
12186SOL    HW238333   6.781   8.162   3.421
12187SOL     OW38334   8.973  10.602   0.444
12187SOL    HW138335   9.069  10.605   0.444
12187SOL    HW238336   8.951  10.519   0.486
12188SOL     OW38337   7.822   5.294   5.366
12188SOL    HW138338   7.844   5.202   5.351
12188SOL    HW238339   7.883   5.322   5.434
12189SOL     OW38340  13.472   3.368   3.559
12189SOL    HW138341  13.409   3.327   3.618
12189SOL    HW238342  13.438   3.456   3.544
12190SOL     OW38343   5.436   8.874  11.919
12190SOL    HW138344   5.515   8.819  11.912
12190SOL    HW238345   5.396   8.869  11.833
12191SOL     OW38346   6.251  14.294  11.395
12191SOL    HW138347   6.156  14.305  11.402
12191SOL    HW238348   6.262  14.216  11.341
12192SOL     OW38349   1.795  12.013  13.946
12192SOL    HW138350   1.850  11.934  13.946
12192SOL    HW238351   1.709  11.982  13.916
12193SOL     OW38352  10.737   3.777  14.709
12193SOL    HW138353  10.757   3.690  14.745
12193SOL    HW238354  10.645   3.772  14.683
12194SOL     OW38355  14.536   8.171  14.341
12194SOL    HW138356  14.463   8.197  14.285
12194SOL    HW238357  14.585   8.252  14.357
12195SOL     OW38358   7.945   4.885  10.911
12195SOL    HW138359   7.926   4.858  11.001
12195SOL    HW238360   8.032   4.924  10.914
12196SOL     OW38361  13.233   1.559  14.524
12196SOL    HW138362  13.140   1.566  14.541
12196SOL    HW238363  13.243   1.476  14.477
12197SOL     OW38364   5.165   9.880   7.211
12197SOL    HW138365   5.094   9.920   7.161
12197SOL    HW238366   5.228   9.951   7.223
12198SOL     OW38367  13.251   6.944   1.923
12198SOL    HW138368  13.239   6.921   1.831
12198SOL    HW238369  13.247   7.039   1.925
12199SOL     OW38370   5.737   4.159   8.210
12199SOL    HW138371   5.777   4.170   8.296
12199SOL    HW238372   5.648   4.192   8.221
12200SOL     OW38373   9.874   6.584  10.862
12200SOL    HW138374   9.856   6.498  10.899
12200SOL    HW238375   9.788   6.623  10.847
12201SOL     OW38376   0.467  11.733   5.452
12201SOL    HW138377   0.441  11.742   5.544
12201SOL    HW238378   0.406  11.789   5.404
12202SOL     OW38379   9.571  10.851   3.480
12202SOL    HW138380   9.634  10.783   3.505
12202SOL    HW238381   9.608  10.931   3.516
12203SOL     OW38382   3.966   1.392   7.032
12203SOL    HW138383   4.016   1.338   6.970
12203SOL    HW238384   3.965   1.479   6.991
12204SOL     OW38385   6.335  11.827  12.057
12204SOL    HW138386   6.382  11.775  12.122
12204SOL    HW238387   6.352  11.918  12.083
12205SOL     OW38388   8.698   4.833   4.467
12205SOL    HW138389   8.664   4.916   4.437
12205SOL    HW238390   8.633   4.768   4.440
12206SOL     OW38391   6.683   7.931   9.961
12206SOL    HW138392   6.700   7.889   9.877
12206SOL    HW238393   6.760   7.984   9.978
12207SOL     OW38394  11.942   7.811  10.696
12207SOL    HW138395  11.876   7.860  10.746
12207SOL    HW238396  12.025   7.855  10.715
12208SOL     OW38397   5.606   3.763   4.628
12208SOL    HW138398   5.605   3.853   4.595
12208SOL    HW238399   5.683   3.758   4.684
12209SOL     OW38400  10.119   9.260  14.542
12209SOL    HW138401  10.070   9.207  14.606
12209SOL    HW238402  10.110   9.350  14.574
12210SOL     OW38403  11.240   5.386   9.970
12210SOL    HW138404  11.267   5.405   9.880
12210SOL    HW238405  11.310   5.420  10.024
12211SOL     OW38406   2.841  11.930   5.654
12211SOL    HW138407   2.929  11.913   5.688
12211SOL    HW238408   2.847  12.018   5.616
12212SOL     OW38409  13.050   4.790   3.829
12212SOL    HW138410  13.023   4.865   3.883
12212SOL    HW238411  13.039   4.820   3.739
12213SOL     OW38412   0.575  10.809  12.122
12213SOL    HW138413   0.624  10.882  12.085
12213SOL    HW238414   0.627  10.780  12.197
12214SOL     OW38415  12.969  10.796   2.768
12214SOL    HW138416  13.033  10.847   2.719
12214SOL    HW238417  12.963  10.713   2.720
12215SOL     OW38418  13.690  13.817   4.972
12215SOL    HW138419  13.773  13.833   5.018
12215SOL    HW238420  13.655  13.738   5.012
12216SOL     OW38421   4.165   3.911  11.532
12216SOL    HW138422   4.160   3.994  11.579
12216SOL    HW238423   4.101   3.919  11.461
12217SOL     OW38424   7.029   2.462   4.470
12217SOL    HW138425   7.070   2.547   4.455
12217SOL    HW238426   7.010   2.461   4.564
12218SOL     OW38427  12.613   5.710   7.585
12218SOL    HW138428  12.550   5.763   7.634
12218SOL    HW238429  12.654   5.771   7.524
12219SOL     OW38430  14.563   6.926   5.031
12219SOL    HW138431  14.657   6.945   5.027
12219SOL    HW238432  14.521   7.012   5.036
12220SOL     OW38433   2.535  11.792  13.177
12220SOL    HW138434   2.513  11.711  13.132
12220SOL    HW238435   2.454  11.817  13.223
12221SOL     OW38436   3.961   3.869  10.239
12221SOL    HW138437   4.007   3.814  10.177
12221SOL    HW238438   3.990   3.958  10.219
12222SOL     OW38439  14.429   9.688  11.048
12222SOL    HW138440  14.365   9.652  11.110
12222SOL    HW238441  14.507   9.634  11.059
12223SOL     OW38442   6.030   1.275   1.428
12223SOL    HW138443   6.090   1.308   1.360
12223SOL    HW238444   6.036   1.340   1.498
12224SOL     OW38445  11.336   5.646   3.235
12224SOL    HW138446  11.340   5.632   3.329
12224SOL    HW238447  11.404   5.589   3.199
12225SOL     OW38448   9.559   0.089   7.373
12225SOL    HW138449   9.471   0.094   7.334
12225SOL    HW238450   9.605   0.165   7.339
12226SOL     OW38451  10.640  11.607   4.294
12226SOL    HW138452  10.707  11.551   4.255
12226SOL    HW238453  10.597  11.553   4.360
12227SOL     OW38454  12.718   0.543   6.419
12227SOL    HW138455  12.648   0.562   6.481
12227SOL    HW238456  12.692   0.586   6.338
12228SOL     OW38457  13.720   3.733  11.231
12228SOL    HW138458  13.714   3.828  11.226
12228SOL    HW238459  13.642   3.706  11.280
12229SOL     OW38460   2.707   6.314   4.796
12229SOL    HW138461   2.727   6.288   4.706
12229SOL    HW238462   2.612   6.319   4.798
12230SOL     OW38463   5.041  12.102   0.279
12230SOL    HW138464   5.081  12.018   0.256
12230SOL    HW238465   5.065  12.115   0.370
12231SOL     OW38466   9.102   4.988   0.231
12231SOL    HW138467   9.028   5.005   0.289
12231SOL    HW238468   9.086   4.900   0.197
12232SOL     OW38469  12.415   2.128   0.469
12232SOL    HW138470  12.418   2.181   0.389
12232SOL    HW238471  12.387   2.041   0.438
12233SOL     OW38472   7.703   6.861  12.702
12233SOL    HW138473   7.761   6.843  12.776
12233SOL    HW238474   7.734   6.945  12.668
12234SOL     OW38475   8.617   7.291  11.003
12234SOL    HW138476   8.591   7.302  10.912
12234SOL    HW238477   8.707   7.257  10.999
12235SOL     OW38478  13.272   1.206   2.058
12235SOL    HW138479  13.336   1.170   1.997
12235SOL    HW238480  13.323   1.267   2.113
12236SOL     OW38481  12.840   3.822  12.489
12236SOL    HW138482  12.837   3.775  12.572
12236SOL    HW238483  12.841   3.915  12.513
12237SOL     OW38484   8.884   8.492   3.079
12237SOL    HW138485   8.944   8.458   3.146
12237SOL    HW238486   8.797   8.474   3.113
12238SOL     OW38487   2.091  13.218  10.030
12238SOL    HW138488   2.062  13.284   9.968
12238SOL    HW238489   2.144  13.157   9.979
12239SOL     OW38490   8.099   1.617   8.775
12239SOL    HW138491   8.020   1.640   8.726
12239SOL    HW238492   8.171   1.637   8.716
12240SOL     OW38493   3.588   7.008   6.736
12240SOL    HW138494   3.659   6.946   6.719
12240SOL    HW238495   3.516   6.977   6.681
12241SOL     OW38496   7.024   0.360   4.426
12241SOL    HW138497   7.062   0.400   4.505
12241SOL    HW238498   6.932   0.388   4.427
12242SOL     OW38499   5.168  11.362   3.973
12242SOL    HW138500   5.252  11.346   3.930
12242SOL    HW238501   5.166  11.457   3.987
12243SOL     OW38502   0.279  14.779   5.713
12243SOL    HW138503   0.298  14.780   5.619
12243SOL    HW238504   0.261  14.870   5.735
12244SOL     OW38505  12.358  12.203   7.935
12244SOL    HW138506  12.336  12.204   7.842
12244SOL    HW238507  12.341  12.113   7.963
12245SOL     OW38508   9.360   6.283  11.666
12245SOL    HW138509   9.341   6.317  11.753
12245SOL    HW238510   9.282   6.303  11.614
12246SOL     OW38511   6.127   3.115   8.391
12246SOL    HW138512   6.207   3.168   8.385
12246SOL    HW238513   6.149   3.044   8.452
12247SOL     OW38514   4.509   4.767   0.224
12247SOL    HW138515   4.469   4.837   0.172
12247SOL    HW238516   4.482   4.787   0.314
12248SOL     OW38517  14.539  10.252  14.440
12248SOL    HW138518  14.546  10.336  14.486
12248SOL    HW238519  14.622  10.208  14.457
12249SOL     OW38520  10.456   4.608  12.476
12249SOL    HW138521  10.439   4.546  12.405
12249SOL    HW238522  10.389   4.675  12.466
12250SOL     OW38523   4.209   7.867   8.347
12250SOL    HW138524   4.151   7.824   8.284
12250SOL    HW238525   4.244   7.943   8.299
12251SOL     OW38526   2.579   0.146   6.073
12251SOL    HW138527   2.502   0.089   6.069
12251SOL    HW238528   2.544   0.235   6.064
12252SOL     OW38529   2.500  10.605   8.083
12252SOL    HW138530   2.445  10.528   8.074
12252SOL    HW238531   2.494  10.629   8.175
12253SOL     OW38532  14.862  14.070  10.936
12253SOL    HW138533  14.819  14.143  10.981
12253SOL    HW238534   0.076  14.095  10.933
12254SOL     OW38535   9.925   5.501  13.203
12254SOL    HW138536   9.879   5.533  13.280
12254SOL    HW238537   9.988   5.571  13.183
12255SOL     OW38538   3.373   6.420   0.511
12255SOL    HW138539   3.369   6.402   0.605
12255SOL    HW238540   3.306   6.486   0.496
12256SOL     OW38541  10.126  14.876   6.595
12256SOL    HW138542  10.068   0.025   6.666
12256SOL    HW238543  10.117   0.067   6.529
12257SOL     OW38544   0.718   6.229   1.516
12257SOL    HW138545   0.754   6.278   1.442
12257SOL    HW238546   0.764   6.264   1.592
12258SOL     OW38547   2.367  10.327   9.754
12258SOL    HW138548   2.372  10.411   9.800
12258SOL    HW238549   2.344  10.351   9.665
12259SOL     OW38550   1.437  14.211  10.231
12259SOL    HW138551   1.426  14.180  10.141
12259SOL    HW238552   1.394  14.145  10.285
12260SOL     OW38553   5.448   3.776   0.102
12260SOL    HW138554   5.509   3.848   0.083
12260SOL    HW238555   5.464   3.755   0.195
12261SOL     OW38556   9.768   2.358   4.795
12261SOL    HW138557   9.709   2.434   4.793
12261SOL    HW238558   9.855   2.395   4.809
12262SOL     OW38559  11.878  10.105  12.802
12262SOL    HW138560  11.916  10.160  12.870
12262SOL    HW238561  11.896  10.151  12.720
12263SOL     OW38562   1.242   9.580  10.081
12263SOL    HW138563   1.329   9.599  10.047
12263SOL    HW238564   1.182   9.607  10.011
12264SOL     OW38565   9.958  13.467   7.773
12264SOL    HW138566   9.997  13.384   7.746
12264SOL    HW238567   9.959  13.521   7.694
12265SOL     OW38568  11.995   0.325   2.072
12265SOL    HW138569  12.064   0.263   2.047
12265SOL    HW238570  11.926   0.312   2.007
12266SOL     OW38571   6.748  12.871   0.354
12266SOL    HW138572   6.772  12.959   0.385
12266SOL    HW238573   6.686  12.839   0.420
12267SOL     OW38574   6.841   1.070   8.889
12267SOL    HW138575   6.810   0.987   8.854
12267SOL    HW238576   6.792   1.082   8.970
12268SOL     OW38577  12.351  12.858  13.200
12268SOL    HW138578  12.309  12.933  13.157
12268SOL    HW238579  12.407  12.820  13.133
12269SOL     OW38580  12.267   5.773   9.744
12269SOL    HW138581  12.217   5.692   9.742
12269SOL    HW238582  12.249   5.815   9.661
12270SOL     OW38583   8.705   0.176   5.436
12270SOL    HW138584   8.762   0.102   5.411
12270SOL    HW238585   8.737   0.203   5.522
12271SOL     OW38586   0.370   6.387   6.053
12271SOL    HW138587   0.462   6.386   6.027
12271SOL    HW238588   0.323   6.351   5.978
12272SOL     OW38589  12.183  11.248   2.368
12272SOL    HW138590  12.196  11.236   2.462
12272SOL    HW238591  12.222  11.171   2.328
12273SOL     OW38592   9.601  13.037   7.591
12273SOL    HW138593   9.651  12.966   7.552
12273SOL    HW238594   9.651  13.062   7.669
12274SOL     OW38595  12.003   9.519  11.481
12274SOL    HW138596  12.076   9.463  11.453
12274SOL    HW238597  11.940   9.515  11.409
12275SOL     OW38598   4.621   0.174  11.287
12275SOL    HW138599   4.636   0.178  11.192
12275SOL    HW238600   4.541   0.123  11.296
12276SOL     OW38601  10.336   2.676  10.134
12276SOL    HW138602  10.330   2.581  10.127
12276SOL    HW238603  10.341   2.693  10.228
12277SOL     OW38604  14.125   8.472   2.151
12277SOL    HW138605  14.206   8.451   2.105
12277SOL    HW238606  14.058   8.421   2.106
12278SOL     OW38607   6.571  14.142  14.268
12278SOL    HW138608   6.525  14.073  14.220
12278SOL    HW238609   6.507  14.213  14.274
12279SOL     OW38610   0.515  14.317   7.038
12279SOL    HW138611   0.582  14.384   7.027
12279SOL    HW238612   0.443  14.346   6.982
12280SOL     OW38613  13.637  13.563  11.758
12280SOL    HW138614  13.622  13.562  11.852
12280SOL    HW238615  13.639  13.471  11.732
12281SOL     OW38616   3.095   1.471   6.048
12281SOL    HW138617   3.003   1.491   6.065
12281SOL    HW238618   3.115   1.520   5.967
12282SOL     OW38619   8.509  12.410   1.255
12282SOL    HW138620   8.540  12.381   1.169
12282SOL    HW238621   8.590  12.419   1.307
12283SOL     OW38622   5.082  12.411  11.785
12283SOL    HW138623   5.170  12.443  11.807
12283SOL    HW238624   5.097  12.332  11.733
12284SOL     OW38625  10.195   1.604   8.440
12284SOL    HW138626  10.203   1.639   8.352
12284SOL    HW238627  10.264   1.538   8.447
12285SOL     OW38628   1.728   7.160   2.601
12285SOL    HW138629   1.786   7.175   2.526
12285SOL    HW238630   1.786   7.122   2.668
12286SOL     OW38631   6.555  12.762   5.880
12286SOL    HW138632   6.484  12.720   5.929
12286SOL    HW238633   6.529  12.755   5.788
12287SOL     OW38634   4.970  12.878  10.383
12287SOL    HW138635   5.046  12.927  10.352
12287SOL    HW238636   4.993  12.851  10.472
12288SOL     OW38637  10.515   5.324  10.527
12288SOL    HW138638  10.454   5.251  10.535
12288SOL    HW238639  10.530   5.353  10.617
12289SOL     OW38640   2.969  10.747  13.530
12289SOL    HW138641   3.054  10.789  13.542
12289SOL    HW238642   2.908  10.804  13.576
12290SOL     OW38643  13.299   9.232  12.543
12290SOL    HW138644  13.357   9.232  12.467
12290SOL    HW238645  13.284   9.139  12.562
12291SOL     OW38646   7.819   5.615   6.554
12291SOL    HW138647   7.887   5.671   6.516
12291SOL    HW238648   7.747   5.675   6.575
12292SOL     OW38649   4.716   4.525   8.943
12292SOL    HW138650   4.631   4.533   8.900
12292SOL    HW238651   4.699   4.471   9.021
12293SOL     OW38652   2.535   5.269  13.142
12293SOL    HW138653   2.570   5.212  13.211
12293SOL    HW238654   2.609   5.324  13.116
12294SOL     OW38655   0.263   5.758   9.489
12294SOL    HW138656   0.315   5.787   9.414
12294SOL    HW238657   0.313   5.687   9.528
12295SOL     OW38658   6.731   2.348   4.101
12295SOL    HW138659   6.762   2.306   4.021
12295SOL    HW238660   6.811   2.376   4.146
12296SOL     OW38661   5.225   6.441   6.391
12296SOL    HW138662   5.148   6.469   6.440
12296SOL    HW238663   5.195   6.434   6.300
12297SOL     OW38664   4.443  12.378   8.142
12297SOL    HW138665   4.450  12.345   8.052
12297SOL    HW238666   4.465  12.303   8.197
12298SOL     OW38667  13.381   9.106   4.704
12298SOL    HW138668  13.349   9.192   4.733
12298SOL    HW238669  13.460   9.126   4.654
12299SOL     OW38670   6.762   8.249  12.525
12299SOL    HW138671   6.693   8.185  12.507
12299SOL    HW238672   6.746   8.277  12.615
12300SOL     OW38673  14.578   4.020  13.943
12300SOL    HW138674  14.591   3.930  13.914
12300SOL    HW238675  14.665   4.050  13.968
12301SOL     OW38676   1.957   0.432  11.347
12301SOL    HW138677   1.994   0.415  11.433
12301SOL    HW238678   1.911   0.515  11.356
12302SOL     OW38679   1.578  13.109   4.073
12302SOL    HW138680   1.483  13.114   4.083
12302SOL    HW238681   1.608  13.200   4.076
12303SOL     OW38682   9.795   0.981  14.535
12303SOL    HW138683   9.762   1.068  14.513
12303SOL    HW238684   9.888   0.996  14.556
12304SOL     OW38685  13.100   9.562  13.269
12304SOL    HW138686  13.146   9.495  13.219
12304SOL    HW238687  13.132   9.645  13.233
12305SOL     OW38688   1.339   3.798   9.786
12305SOL    HW138689   1.260   3.744   9.777
12305SOL    HW238690   1.379   3.795   9.699
12306SOL     OW38691   0.503   9.262  10.130
12306SOL    HW138692   0.456   9.205  10.190
12306SOL    HW238693   0.444   9.274  10.056
12307SOL     OW38694   6.366   3.269   9.365
12307SOL    HW138695   6.294   3.320   9.401
12307SOL    HW238696   6.327   3.220   9.293
12308SOL     OW38697   7.312   2.126   1.506
12308SOL    HW138698   7.218   2.143   1.498
12308SOL    HW238699   7.318   2.041   1.549
12309SOL     OW38700   0.231  10.489   1.884
12309SOL    HW138701   0.191  10.573   1.862
12309SOL    HW238702   0.171  10.448   1.946
12310SOL     OW38703   5.277   3.597   5.094
12310SOL    HW138704   5.202   3.578   5.150
12310SOL    HW238705   5.296   3.514   5.049
12311SOL     OW38706  13.945  11.341   8.550
12311SOL    HW138707  13.873  11.398   8.577
12311SOL    HW238708  14.014  11.401   8.522
12312SOL     OW38709   5.284   8.806   1.964
12312SOL    HW138710   5.361   8.847   1.926
12312SOL    HW238711   5.212   8.829   1.905
12313SOL     OW38712  12.545  12.048   0.148
12313SOL    HW138713  12.502  12.076   0.067
12313SOL    HW238714  12.484  12.071   0.218
12314SOL     OW38715   2.673  14.714   0.078
12314SOL    HW138716   2.701  14.671   0.159
12314SOL    HW238717   2.755  14.727   0.029
12315SOL     OW38718  13.126   8.027   0.774
12315SOL    HW138719  13.136   7.946   0.725
12315SOL    HW238720  13.211   8.070   0.767
12316SOL     OW38721   0.978   5.892  12.426
12316SOL    HW138722   1.067   5.868  12.450
12316SOL    HW238723   0.956   5.964  12.486
12317SOL     OW38724   2.476   5.443  11.273
12317SOL    HW138725   2.433   5.447  11.358
12317SOL    HW238726   2.552   5.500  11.281
12318SOL     OW38727   7.446   6.654  10.313
12318SOL    HW138728   7.441   6.731  10.370
12318SOL    HW238729   7.503   6.681  10.241
12319SOL     OW38730   6.822  10.995   7.908
12319SOL    HW138731   6.909  10.955   7.899
12319SOL    HW238732   6.832  11.060   7.977
12320SOL     OW38733   1.175   2.400  11.900
12320SOL    HW138734   1.255   2.435  11.861
12320SOL    HW238735   1.181   2.305  11.885
12321SOL     OW38736   5.349   6.244  13.834
12321SOL    HW138737   5.375   6.319  13.780
12321SOL    HW238738   5.431   6.200  13.855
12322SOL     OW38739   5.876   1.445  11.302
12322SOL    HW138740   5.890   1.426  11.395
12322SOL    HW238741   5.833   1.530  11.301
12323SOL     OW38742   2.076  13.577  10.613
12323SOL    HW138743   2.081  13.537  10.700
12323SOL    HW238744   2.056  13.669  10.630
12324SOL     OW38745   9.337   3.902  14.563
12324SOL    HW138746   9.349   3.943  14.478
12324SOL    HW238747   9.385   3.957  14.624
12325SOL     OW38748  11.549   1.418  13.700
12325SOL    HW138749  11.487   1.356  13.663
12325SOL    HW238750  11.544   1.405  13.794
12326SOL     OW38751   0.163   6.782   3.104
12326SOL    HW138752   0.116   6.864   3.090
12326SOL    HW238753   0.240   6.806   3.154
12327SOL     OW38754   2.692   3.547   5.236
12327SOL    HW138755   2.686   3.455   5.208
12327SOL    HW238756   2.764   3.547   5.300
12328SOL     OW38757   0.327  14.652   7.584
12328SOL    HW138758   0.372  14.570   7.564
12328SOL    HW238759   0.257  14.628   7.643
12329SOL     OW38760   6.801  13.206   7.518
12329SOL    HW138761   6.892  13.234   7.528
12329SOL    HW238762   6.756  13.284   7.486
12330SOL     OW38763  12.150   9.731   2.345
12330SOL    HW138764  12.147   9.725   2.250
12330SOL    HW238765  12.229   9.682   2.370
12331SOL     OW38766   1.092   8.932   4.626
12331SOL    HW138767   1.115   8.873   4.555
12331SOL    HW238768   1.160   8.999   4.624
12332SOL     OW38769   4.954   3.103   3.037
12332SOL    HW138770   4.868   3.145   3.027
12332SOL    HW238771   4.962   3.089   3.132
12333SOL     OW38772   2.064  10.734   4.936
12333SOL    HW138773   2.103  10.664   4.988
12333SOL    HW238774   2.138  10.775   4.891
12334SOL     OW38775   7.970   9.379   2.418
12334SOL    HW138776   8.024   9.455   2.397
12334SOL    HW238777   7.940   9.395   2.507
12335SOL     OW38778   9.316   8.029   2.933
12335SOL    HW138779   9.230   8.066   2.952
12335SOL    HW238780   9.370   8.055   3.008
12336SOL     OW38781   3.170  14.108   4.536
12336SOL    HW138782   3.186  14.163   4.459
12336SOL    HW238783   3.077  14.120   4.556
12337SOL     OW38784  14.783   9.746   4.928
12337SOL    HW138785  14.715   9.679   4.915
12337SOL    HW238786  14.807   9.774   4.840
12338SOL     OW38787   5.982  10.509   3.797
12338SOL    HW138788   6.052  10.461   3.753
12338SOL    HW238789   5.934  10.551   3.725
12339SOL     OW38790  12.599   3.539  10.005
12339SOL    HW138791  12.543   3.478   9.957
12339SOL    HW238792  12.582   3.520  10.097
12340SOL     OW38793   1.016   0.093   8.018
12340SOL    HW138794   0.985   0.040   8.092
12340SOL    HW238795   0.948   0.160   8.007
12341SOL     OW38796   4.140   7.542   1.262
12341SOL    HW138797   4.053   7.514   1.290
12341SOL    HW238798   4.200   7.496   1.320
12342SOL     OW38799   4.931  14.192   3.053
12342SOL    HW138800   5.011  14.140   3.042
12342SOL    HW238801   4.961  14.283   3.051
12343SOL     OW38802  10.446  14.535  11.869
12343SOL    HW138803  10.417  14.625  11.878
12343SOL    HW238804  10.365  14.485  11.855
12344SOL     OW38805   3.869   0.667  14.670
12344SOL    HW138806   3.832   0.640  14.586
12344SOL    HW238807   3.955   0.623  14.673
12345SOL     OW38808   3.544   0.715   2.277
12345SOL    HW138809   3.523   0.644   2.337
12345SOL    HW238810   3.581   0.671   2.200
12346SOL     OW38811  12.996  10.669  11.245
12346SOL    HW138812  12.901  10.664  11.234
12346SOL    HW238813  13.032  10.620  11.172
12347SOL     OW38814   7.221   5.500   6.133
12347SOL    HW138815   7.251   5.436   6.068
12347SOL    HW238816   7.152   5.550   6.089
12348SOL     OW38817   5.842   5.995   6.011
12348SOL    HW138818   5.859   5.971   6.102
12348SOL    HW238819   5.749   6.019   6.010
12349SOL     OW38820  11.131   8.093  13.636
12349SOL    HW138821  11.057   8.145  13.667
12349SOL    HW238822  11.112   8.004  13.666
12350SOL     OW38823   6.579   4.618  14.481
12350SOL    HW138824   6.550   4.588  14.395
12350SOL    HW238825   6.569   4.713  14.478
12351SOL     OW38826   9.828  13.366   5.774
12351SOL    HW138827   9.905  13.417   5.800
12351SOL    HW238828   9.777  13.425   5.718
12352SOL     OW38829  12.930  13.420  14.842
12352SOL    HW138830  12.949  13.357  14.772
12352SOL    HW238831  13.015  13.435   0.006
12353SOL     OW38832  14.768   2.349   3.384
12353SOL    HW138833  14.725   2.402   3.317
12353SOL    HW238834  14.806   2.275   3.335
12354SOL     OW38835   4.742  11.876   3.576
12354SOL    HW138836   4.773  11.798   3.623
12354SOL    HW238837   4.808  11.892   3.509
12355SOL     OW38838  14.605   0.633  10.319
12355SOL    HW138839  14.580   0.542  10.338
12355SOL    HW238840  14.671   0.625  10.250
12356SOL     OW38841   2.698   1.040  13.657
12356SOL    HW138842   2.754   1.097  13.604
12356SOL    HW238843   2.615   1.038  13.610
12357SOL     OW38844  13.422   5.183   3.954
12357SOL    HW138845  13.503   5.150   3.914
12357SOL    HW238846  13.429   5.158   4.046
12358SOL     OW38847   4.942  13.149  12.684
12358SOL    HW138848   4.948  13.155  12.780
12358SOL    HW238849   5.031  13.163  12.653
12359SOL     OW38850   3.484  14.449  14.867
12359SOL    HW138851   3.571  14.445   0.028
12359SOL    HW238852   3.424  14.446   0.063
12360SOL     OW38853   4.117  14.177   0.393
12360SOL    HW138854   4.060  14.225   0.332
12360SOL    HW238855   4.110  14.086   0.365
12361SOL     OW38856   2.557   1.646  13.930
12361SOL    HW138857   2.625   1.646  13.998
12361SOL    HW238858   2.543   1.738  13.910
12362SOL     OW38859   7.793   4.943   2.051
12362SOL    HW138860   7.839   4.913   2.129
12362SOL    HW238861   7.862   4.959   1.987
12363SOL     OW38862   5.362  10.057  13.946
12363SOL    HW138863   5.339   9.975  13.990
12363SOL    HW238864   5.316  10.053  13.862
12364SOL     OW38865  13.416  13.973   6.518
12364SOL    HW138866  13.359  14.049   6.508
12364SOL    HW238867  13.492  13.993   6.465
12365SOL     OW38868   3.785   2.074   0.731
12365SOL    HW138869   3.863   2.130   0.726
12365SOL    HW238870   3.765   2.070   0.824
12366SOL     OW38871   9.922   7.397  12.042
12366SOL    HW138872  10.011   7.427  12.025
12366SOL    HW238873   9.909   7.412  12.136
12367SOL     OW38874   1.130  12.720   1.671
12367SOL    HW138875   1.129  12.803   1.623
12367SOL    HW238876   1.214  12.679   1.647
12368SOL     OW38877   6.207   9.715   2.147
12368SOL    HW138878   6.219   9.804   2.113
12368SOL    HW238879   6.189   9.662   2.069
12369SOL     OW38880  11.160   6.700   3.175
12369SOL    HW138881  11.189   6.748   3.252
12369SOL    HW238882  11.150   6.766   3.107
12370SOL     OW38883  12.164   7.880  12.206
12370SOL    HW138884  12.123   7.797  12.182
12370SOL    HW238885  12.254   7.858  12.227
12371SOL     OW38886  14.683  14.390  14.320
12371SOL    HW138887  14.760  14.447  14.312
12371SOL    HW238888  14.705  14.315  14.265
12372SOL     OW38889  12.131  14.097   2.571
12372SOL    HW138890  12.112  14.156   2.498
12372SOL    HW238891  12.227  14.098   2.577
12373SOL     OW38892  12.687  10.019   8.309
12373SOL    HW138893  12.669   9.970   8.389
12373SOL    HW238894  12.631   9.979   8.243
12374SOL     OW38895   0.588  11.439   7.536
12374SOL    HW138896   0.639  11.519   7.545
12374SOL    HW238897   0.498  11.469   7.526
12375SOL     OW38898   5.511   4.432   9.939
12375SOL    HW138899   5.489   4.362   9.877
12375SOL    HW238900   5.449   4.419  10.011
12376SOL     OW38901  14.573   4.176   6.558
12376SOL    HW138902  14.618   4.093   6.543
12376SOL    HW238903  14.524   4.193   6.477
12377SOL     OW38904   9.626  11.810   5.272
12377SOL    HW138905   9.580  11.762   5.204
12377SOL    HW238906   9.601  11.901   5.258
12378SOL     OW38907   8.172  13.306  13.061
12378SOL    HW138908   8.247  13.266  13.104
12378SOL    HW238909   8.097  13.256  13.092
12379SOL     OW38910  14.414   6.832  11.927
12379SOL    HW138911  14.355   6.822  12.002
12379SOL    HW238912  14.365   6.798  11.853
12380SOL     OW38913  11.861   4.140   6.057
12380SOL    HW138914  11.953   4.139   6.031
12380SOL    HW238915  11.861   4.188   6.141
12381SOL     OW38916   6.468   4.377   7.124
12381SOL    HW138917   6.393   4.408   7.074
12381SOL    HW238918   6.463   4.282   7.118
12382SOL     OW38919  10.665   4.229   5.749
12382SOL    HW138920  10.616   4.310   5.746
12382SOL    HW238921  10.665   4.203   5.841
12383SOL     OW38922   7.745   2.736   2.209
12383SOL    HW138923   7.689   2.663   2.181
12383SOL    HW238924   7.739   2.735   2.304
12384SOL     OW38925   3.620  10.147   3.770
12384SOL    HW138926   3.676  10.219   3.799
12384SOL    HW238927   3.531  10.178   3.788
12385SOL     OW38928   6.144   5.395   4.495
12385SOL    HW138929   6.116   5.468   4.439
12385SOL    HW238930   6.098   5.411   4.578
12386SOL     OW38931   9.670   9.448   7.753
12386SOL    HW138932   9.689   9.454   7.846
12386SOL    HW238933   9.607   9.518   7.736
12387SOL     OW38934   0.324   5.269   7.664
12387SOL    HW138935   0.293   5.227   7.744
12387SOL    HW238936   0.248   5.269   7.606
12388SOL     OW38937  10.098  14.875   6.181
12388SOL    HW138938  10.035  14.813   6.146
12388SOL    HW238939  10.076   0.004   6.274
12389SOL     OW38940   6.817   5.623   3.449
12389SOL    HW138941   6.765   5.623   3.529
12389SOL    HW238942   6.765   5.676   3.388
12390SOL     OW38943   1.753   9.899  13.263
12390SOL    HW138944   1.836   9.941  13.243
12390SOL    HW238945   1.732   9.847  13.185
12391SOL     OW38946   7.323   8.491   2.560
12391SOL    HW138947   7.269   8.569   2.546
12391SOL    HW238948   7.362   8.474   2.474
12392SOL     OW38949   5.538  14.320  13.592
12392SOL    HW138950   5.509  14.301  13.681
12392SOL    HW238951   5.479  14.270  13.536
12393SOL     OW38952   8.036   6.710   5.770
12393SOL    HW138953   8.036   6.652   5.847
12393SOL    HW238954   8.120   6.755   5.773
12394SOL     OW38955   5.388   4.988   8.099
12394SOL    HW138956   5.329   5.007   8.027
12394SOL    HW238957   5.460   5.051   8.089
12395SOL     OW38958   1.637   6.089   1.012
12395SOL    HW138959   1.596   6.140   1.083
12395SOL    HW238960   1.612   5.999   1.031
12396SOL     OW38961   0.253   1.156  14.408
12396SOL    HW138962   0.312   1.224  14.439
12396SOL    HW238963   0.274   1.145  14.316
12397SOL     OW38964   3.170   4.856  11.214
12397SOL    HW138965   3.226   4.806  11.155
12397SOL    HW238966   3.098   4.797  11.236
12398SOL     OW38967  12.823   7.774   6.346
12398SOL    HW138968  12.899   7.759   6.290
12398SOL    HW238969  12.841   7.858   6.388
12399SOL     OW38970   7.031   6.602   3.832
12399SOL    HW138971   7.034   6.691   3.867
12399SOL    HW238972   6.939   6.577   3.835
12400SOL     OW38973   1.616   0.289   1.887
12400SOL    HW138974   1.631   0.204   1.927
12400SOL    HW238975   1.702   0.330   1.884
12401SOL     OW38976  12.645   0.351  10.045
12401SOL    HW138977  12.589   0.275  10.060
12401SOL    HW238978  12.729   0.314  10.020
12402SOL     OW38979   3.014  14.761   7.007
12402SOL    HW138980   3.010  14.811   6.925
12402SOL    HW238981   3.103  14.777   7.040
12403SOL     OW38982   5.257   1.488   5.647
12403SOL    HW138983   5.328   1.424   5.655
12403SOL    HW238984   5.178   1.440   5.673
12404SOL     OW38985  10.708   3.763  10.202
12404SOL    HW138986  10.747   3.697  10.145
12404SOL    HW238987  10.686   3.714  10.282
12405SOL     OW38988  10.555   7.503   7.453
12405SOL    HW138989  10.491   7.496   7.524
12405SOL    HW238990  10.596   7.417   7.449
12406SOL     OW38991   8.759  13.125   0.338
12406SOL    HW138992   8.758  13.123   0.433
12406SOL    HW238993   8.846  13.159   0.316
12407SOL     OW38994  11.221  12.650   5.311
12407SOL    HW138995  11.222  12.740   5.279
12407SOL    HW238996  11.310  12.634   5.342
12408SOL     OW38997   8.392  13.409  12.162
12408SOL    HW138998   8.430  13.360  12.089
12408SOL    HW238999   8.459  13.408  12.230
12409SOL     OW39000   0.852  10.131   8.280
12409SOL    HW139001   0.820  10.197   8.342
12409SOL    HW239002   0.785  10.126   8.213
12410SOL     OW39003   4.638  13.802  13.332
12410SOL    HW139004   4.596  13.788  13.247
12410SOL    HW239005   4.572  13.848  13.384
12411SOL     OW39006   7.137   1.929   6.311
12411SOL    HW139007   7.068   1.972   6.261
12411SOL    HW239008   7.092   1.874   6.374
12412SOL     OW39009   8.163  12.446   4.079
12412SOL    HW139010   8.190  12.385   4.010
12412SOL    HW239011   8.245  12.480   4.113
12413SOL     OW39012  13.157   2.307   9.097
12413SOL    HW139013  13.096   2.370   9.058
12413SOL    HW239014  13.134   2.305   9.190
12414SOL     OW39015  13.232   2.718   8.554
12414SOL    HW139016  13.273   2.710   8.640
12414SOL    HW239017  13.231   2.629   8.519
12415SOL     OW39018   6.251   4.086  12.014
12415SOL    HW139019   6.188   4.065  11.945
12415SOL    HW239020   6.335   4.056  11.980
12416SOL     OW39021  10.367   4.941   8.680
12416SOL    HW139022  10.422   4.918   8.755
12416SOL    HW239023  10.307   4.867   8.671
12417SOL     OW39024   8.821  13.011   1.427
12417SOL    HW139025   8.846  13.072   1.496
12417SOL    HW239026   8.726  13.022   1.419
12418SOL     OW39027   3.243   0.211   7.305
12418SOL    HW139028   3.318   0.242   7.355
12418SOL    HW239029   3.190   0.289   7.289
12419SOL     OW39030   8.433   8.437   8.883
12419SOL    HW139031   8.422   8.475   8.970
12419SOL    HW239032   8.482   8.357   8.898
12420SOL     OW39033  10.375   7.653   1.180
12420SOL    HW139034  10.420   7.571   1.201
12420SOL    HW239035  10.286   7.627   1.157
12421SOL     OW39036   4.875  13.576   3.719
12421SOL    HW139037   4.787  13.559   3.685
12421SOL    HW239038   4.925  13.608   3.644
12422SOL     OW39039  13.325   8.272  10.015
12422SOL    HW139040  13.287   8.359   9.999
12422SOL    HW239041  13.271   8.212   9.964
12423SOL     OW39042   3.835   7.891   5.071
12423SOL    HW139043   3.764   7.870   5.010
12423SOL    HW239044   3.911   7.905   5.015
12424SOL     OW39045  14.155   4.009   4.090
12424SOL    HW139046  14.228   3.969   4.137
12424SOL    HW239047  14.077   3.964   4.124
12425SOL     OW39048  12.943  11.766  13.015
12425SOL    HW139049  12.863  11.786  13.064
12425SOL    HW239050  12.943  11.671  13.007
12426SOL     OW39051   8.487  13.690  13.391
12426SOL    HW139052   8.494  13.629  13.464
12426SOL    HW239053   8.568  13.742  13.397
12427SOL     OW39054  13.034  12.481  12.821
12427SOL    HW139055  12.987  12.520  12.748
12427SOL    HW239056  13.126  12.495  12.801
12428SOL     OW39057   7.713  10.989   7.468
12428SOL    HW139058   7.709  10.919   7.403
12428SOL    HW239059   7.650  11.055   7.436
12429SOL     OW39060   3.293   9.808  10.939
12429SOL    HW139061   3.246   9.838  10.861
12429SOL    HW239062   3.384   9.804  10.912
12430SOL     OW39063  13.605   7.957   8.273
12430SOL    HW139064  13.671   7.965   8.342
12430SOL    HW239065  13.521   7.964   8.320
12431SOL     OW39066   1.374   3.934  12.823
12431SOL    HW139067   1.441   3.910  12.888
12431SOL    HW239068   1.313   3.990  12.872
12432SOL     OW39069   3.623   3.724   0.440
12432SOL    HW139070   3.709   3.713   0.480
12432SOL    HW239071   3.585   3.798   0.487
12433SOL     OW39072   2.956   1.509   0.137
12433SOL    HW139073   2.976   1.573   0.068
12433SOL    HW239074   2.864   1.487   0.123
12434SOL     OW39075   0.831   2.182  11.512
12434SOL    HW139076   0.820   2.226  11.428
12434SOL    HW239077   0.867   2.248  11.571
12435SOL     OW39078  13.529   5.042   1.649
12435SOL    HW139079  13.578   5.124   1.655
12435SOL    HW239080  13.437   5.068   1.650
12436SOL     OW39081   5.628   8.155   9.046
12436SOL    HW139082   5.575   8.231   9.022
12436SOL    HW239083   5.585   8.119   9.123
12437SOL     OW39084   7.821   3.631   7.398
12437SOL    HW139085   7.781   3.627   7.485
12437SOL    HW239086   7.757   3.678   7.345
12438SOL     OW39087  12.261  14.596  10.739
12438SOL    HW139088  12.280  14.514  10.694
12438SOL    HW239089  12.340  14.649  10.726
12439SOL     OW39090   8.997   7.029  10.051
12439SOL    HW139091   8.936   7.054   9.981
12439SOL    HW239092   9.009   7.108  10.103
12440SOL     OW39093   4.629  12.390  14.489
12440SOL    HW139094   4.587  12.345  14.417
12440SOL    HW239095   4.559  12.442  14.530
12441SOL     OW39096   1.463   3.071   7.000
12441SOL    HW139097   1.514   3.117   7.067
12441SOL    HW239098   1.439   3.138   6.936
12442SOL     OW39099  12.250  14.044  11.819
12442SOL    HW139100  12.313  14.036  11.891
12442SOL    HW239101  12.167  14.062  11.861
12443SOL     OW39102   0.615   9.690  14.287
12443SOL    HW139103   0.667   9.706  14.208
12443SOL    HW239104   0.601   9.777  14.325
12444SOL     OW39105  14.281   4.494   6.250
12444SOL    HW139106  14.338   4.569   6.269
12444SOL    HW239107  14.193   4.531   6.242
12445SOL     OW39108  10.003  12.094   9.293
12445SOL    HW139109  10.009  12.188   9.308
12445SOL    HW239110   9.951  12.085   9.213
12446SOL     OW39111   5.305  12.845  10.080
12446SOL    HW139112   5.351  12.793  10.145
12446SOL    HW239113   5.295  12.931  10.121
12447SOL     OW39114   8.175   0.276  14.025
12447SOL    HW139115   8.205   0.202  13.972
12447SOL    HW239116   8.080   0.264  14.030
12448SOL     OW39117   2.938  13.156   0.781
12448SOL    HW139118   2.918  13.160   0.687
12448SOL    HW239119   2.857  13.125   0.821
12449SOL     OW39120   2.734   2.139   3.552
12449SOL    HW139121   2.786   2.070   3.511
12449SOL    HW239122   2.749   2.128   3.646
12450SOL     OW39123   7.988   6.066   2.526
12450SOL    HW139124   7.969   5.981   2.565
12450SOL    HW239125   7.985   6.050   2.431
12451SOL     OW39126   3.739  12.893   1.892
12451SOL    HW139127   3.696  12.877   1.808
12451SOL    HW239128   3.763  12.806   1.924
12452SOL     OW39129   4.568   7.654  14.786
12452SOL    HW139130   4.593   7.570  14.746
12452SOL    HW239131   4.506   7.629  14.855
12453SOL     OW39132   6.512   4.933  10.978
12453SOL    HW139133   6.523   4.845  11.014
12453SOL    HW239134   6.466   4.919  10.895
12454SOL     OW39135   1.240  11.977   9.585
12454SOL    HW139136   1.182  11.913   9.542
12454SOL    HW239137   1.238  11.953   9.677
12455SOL     OW39138   2.931  13.743   8.635
12455SOL    HW139139   3.016  13.739   8.677
12455SOL    HW239140   2.886  13.816   8.677
12456SOL     OW39141   1.751  10.194   3.721
12456SOL    HW139142   1.734  10.121   3.780
12456SOL    HW239143   1.684  10.188   3.654
12457SOL     OW39144   8.117   2.080   2.931
12457SOL    HW139145   8.131   2.175   2.933
12457SOL    HW239146   8.148   2.050   3.016
12458SOL     OW39147   5.182  14.052  11.632
12458SOL    HW139148   5.124  14.120  11.666
12458SOL    HW239149   5.124  13.980  11.610
12459SOL     OW39150   2.387   9.814  13.501
12459SOL    HW139151   2.338   9.845  13.424
12459SOL    HW239152   2.394   9.891  13.557
12460SOL     OW39153   5.699   0.493   6.226
12460SOL    HW139154   5.739   0.513   6.311
12460SOL    HW239155   5.741   0.413   6.198
12461SOL     OW39156   0.582   1.606   4.950
12461SOL    HW139157   0.554   1.634   5.037
12461SOL    HW239158   0.538   1.522   4.936
12462SOL     OW39159   5.757   0.727  13.634
12462SOL    HW139160   5.723   0.803  13.587
12462SOL    HW239161   5.681   0.672  13.649
12463SOL     OW39162   9.186   2.071   2.586
12463SOL    HW139163   9.127   2.107   2.519
12463SOL    HW239164   9.241   2.145   2.612
12464SOL     OW39165   5.215   0.050  13.196
12464SOL    HW139166   5.235   0.095  13.278
12464SOL    HW239167   5.128   0.013  13.211
12465SOL     OW39168   8.478   4.687   2.980
12465SOL    HW139169   8.549   4.644   2.932
12465SOL    HW239170   8.443   4.619   3.037
12466SOL     OW39171  12.691   3.386   4.022
12466SOL    HW139172  12.775   3.429   4.041
12466SOL    HW239173  12.626   3.456   4.031
12467SOL     OW39174   1.906  12.676   8.678
12467SOL    HW139175   1.913  12.615   8.751
12467SOL    HW239176   1.995  12.713   8.669
12468SOL     OW39177   2.789   3.727   5.038
12468SOL    HW139178   2.699   3.756   5.028
12468SOL    HW239179   2.788   3.675   5.119
12469SOL     OW39180   9.712   9.947   0.444
12469SOL    HW139181   9.696   9.864   0.490
12469SOL    HW239182   9.683   9.930   0.354
12470SOL     OW39183   4.256   1.065  14.364
12470SOL    HW139184   4.217   1.023  14.287
12470SOL    HW239185   4.261   1.158  14.341
12471SOL     OW39186   5.865  10.706  13.631
12471SOL    HW139187   5.808  10.640  13.672
12471SOL    HW239188   5.888  10.766  13.702
12472SOL     OW39189  11.303   8.706  10.757
12472SOL    HW139190  11.304   8.748  10.671
12472SOL    HW239191  11.357   8.763  10.812
12473SOL     OW39192   5.120   2.151   6.431
12473SOL    HW139193   5.105   2.085   6.498
12473SOL    HW239194   5.120   2.234   6.478
12474SOL     OW39195   6.896   5.761  12.297
12474SOL    HW139196   6.925   5.776  12.207
12474SOL    HW239197   6.882   5.667  12.302
12475SOL     OW39198   2.168   5.676  14.620
12475SOL    HW139199   2.212   5.600  14.659
12475SOL    HW239200   2.211   5.687  14.535
12476SOL     OW39201   1.073   6.242   0.080
12476SOL    HW139202   1.036   6.324   0.113
12476SOL    HW239203   1.153   6.229   0.132
12477SOL     OW39204   1.437  14.445   9.709
12477SOL    HW139205   1.527  14.478   9.721
12477SOL    HW239206   1.389  14.481   9.783
12478SOL     OW39207   1.511   9.596  10.055
12478SOL    HW139208   1.511   9.540  10.133
12478SOL    HW239209   1.533   9.536   9.983
12479SOL     OW39210   4.531   3.093   8.257
12479SOL    HW139211   4.478   3.169   8.232
12479SOL    HW239212   4.564   3.058   8.173
12480SOL     OW39213   1.901   9.266   8.230
12480SOL    HW139214   1.862   9.206   8.294
12480SOL    HW239215   1.864   9.352   8.251
12481SOL     OW39216  10.681   2.440   2.235
12481SOL    HW139217  10.644   2.353   2.222
12481SOL    HW239218  10.720   2.462   2.150
12482SOL     OW39219   7.370   6.218   0.997
12482SOL    HW139220   7.397   6.208   1.089
12482SOL    HW239221   7.281   6.251   1.002
12483SOL     OW39222   9.342   1.717   5.520
12483SOL    HW139223   9.252   1.729   5.488
12483SOL    HW239224   9.397   1.752   5.450
12484SOL     OW39225   4.604   5.925   6.394
12484SOL    HW139226   4.699   5.910   6.400
12484SOL    HW239227   4.573   5.854   6.338
12485SOL     OW39228  13.833   4.000   8.864
12485SOL    HW139229  13.759   3.939   8.858
12485SOL    HW239230  13.793   4.084   8.885
12486SOL     OW39231   1.365  14.016  10.413
12486SOL    HW139232   1.271  14.008  10.428
12486SOL    HW239233   1.392  13.927  10.389
12487SOL     OW39234   7.890  11.012  12.851
12487SOL    HW139235   7.805  10.968  12.857
12487SOL    HW239236   7.953  10.949  12.884
12488SOL     OW39237   1.585   8.140  12.260
12488SOL    HW139238   1.593   8.143  12.164
12488SOL    HW239239   1.673   8.156  12.292
12489SOL     OW39240  13.577  14.306   7.832
12489SOL    HW139241  13.605  14.274   7.918
12489SOL    HW239242  13.655  14.301   7.778
12490SOL     OW39243   7.694   0.539   5.772
12490SOL    HW139244   7.776   0.557   5.819
12490SOL    HW239245   7.650   0.472   5.824
12491SOL     OW39246   5.149  10.365   6.911
12491SOL    HW139247   5.161  10.344   7.003
12491SOL    HW239248   5.154  10.280   6.866
12492SOL     OW39249  10.337   3.440   6.532
12492SOL    HW139250  10.359   3.525   6.571
12492SOL    HW239251  10.310   3.462   6.443
12493SOL     OW39252   5.070   5.965  12.071
12493SOL    HW139253   5.137   6.027  12.041
12493SOL    HW239254   4.988   6.013  12.063
12494SOL     OW39255   6.781   1.502  13.870
12494SOL    HW139256   6.825   1.585  13.855
12494SOL    HW239257   6.724   1.518  13.946
12495SOL     OW39258  12.116  12.138   9.990
12495SOL    HW139259  12.097  12.046  10.003
12495SOL    HW239260  12.089  12.180  10.072
12496SOL     OW39261   3.520   9.128  12.514
12496SOL    HW139262   3.446   9.075  12.486
12496SOL    HW239263   3.594   9.095  12.464
12497SOL     OW39264   2.036   2.480   2.426
12497SOL    HW139265   2.082   2.557   2.460
12497SOL    HW239266   1.998   2.509   2.344
12498SOL     OW39267  10.624   2.352  14.720
12498SOL    HW139268  10.613   2.310  14.805
12498SOL    HW239269  10.634   2.279  14.659
12499SOL     OW39270  14.542   7.113   9.165
12499SOL    HW139271  14.541   7.049   9.236
12499SOL    HW239272  14.482   7.182   9.194
12500SOL     OW39273   6.146   3.152   5.987
12500SOL    HW139274   6.189   3.213   5.928
12500SOL    HW239275   6.053   3.174   5.980
12501SOL     OW39276  12.717  10.358  11.940
12501SOL    HW139277  12.811  10.374  11.948
12501SOL    HW239278  12.691  10.322  12.025
12502SOL     OW39279  13.923   7.889  13.129
12502SOL    HW139280  13.994   7.837  13.092
12502SOL    HW239281  13.863   7.903  13.056
12503SOL     OW39282   2.744  13.476  13.911
12503SOL    HW139283   2.794  13.493  13.991
12503SOL    HW239284   2.688  13.553  13.901
12504SOL     OW39285  11.081   4.876  10.893
12504SOL    HW139286  11.077   4.860  10.799
12504SOL    HW239287  11.160   4.929  10.905
12505SOL     OW39288  11.867  12.715   6.534
12505SOL    HW139289  11.797  12.693   6.595
12505SOL    HW239290  11.948  12.697   6.582
12506SOL     OW39291   2.570   6.631   3.116
12506SOL    HW139292   2.633   6.590   3.175
12506SOL    HW239293   2.547   6.562   3.053
12507SOL     OW39294   4.280  10.476  10.022
12507SOL    HW139295   4.267  10.465  10.116
12507SOL    HW239296   4.234  10.557  10.000
12508SOL     OW39297  14.787  10.926   6.404
12508SOL    HW139298  14.714  10.889   6.353
12508SOL    HW239299  14.816  11.001   6.352
12509SOL     OW39300  11.573   8.762  11.554
12509SOL    HW139301  11.663   8.792  11.563
12509SOL    HW239302  11.569   8.722  11.467
12510SOL     OW39303   4.587   6.812   6.719
12510SOL    HW139304   4.676   6.846   6.735
12510SOL    HW239305   4.590   6.780   6.629
12511SOL     OW39306  12.902   7.086   5.629
12511SOL    HW139307  12.842   7.087   5.704
12511SOL    HW239308  12.940   6.999   5.631
12512SOL     OW39309  10.471  12.136   1.257
12512SOL    HW139310  10.423  12.081   1.195
12512SOL    HW239311  10.558  12.095   1.262
12513SOL     OW39312   2.349   7.134   3.537
12513SOL    HW139313   2.432   7.107   3.496
12513SOL    HW239314   2.321   7.058   3.588
12514SOL     OW39315   0.174  11.088  11.748
12514SOL    HW139316   0.094  11.039  11.727
12514SOL    HW239317   0.243  11.043  11.700
12515SOL     OW39318   4.441  12.611   3.854
12515SOL    HW139319   4.352  12.578   3.865
12515SOL    HW239320   4.495  12.553   3.909
12516SOL     OW39321   3.030   7.856  11.073
12516SOL    HW139322   2.946   7.902  11.074
12516SOL    HW239323   3.012   7.773  11.119
12517SOL     OW39324   3.012   4.935   1.625
12517SOL    HW139325   3.014   4.955   1.531
12517SOL    HW239326   3.064   5.005   1.666
12518SOL     OW39327   6.915   0.304  13.313
12518SOL    HW139328   6.904   0.225  13.366
12518SOL    HW239329   7.007   0.329  13.328
12519SOL     OW39330   8.849   9.313   2.826
12519SOL    HW139331   8.875   9.397   2.864
12519SOL    HW239332   8.862   9.324   2.731
12520SOL     OW39333   7.106   7.241   1.596
12520SOL    HW139334   7.064   7.264   1.678
12520SOL    HW239335   7.138   7.152   1.609
12521SOL     OW39336  13.910   7.213   4.138
12521SOL    HW139337  13.867   7.287   4.094
12521SOL    HW239338  14.002   7.219   4.112
12522SOL     OW39339   4.310  14.219   5.470
12522SOL    HW139340   4.386  14.270   5.441
12522SOL    HW239341   4.277  14.179   5.390
12523SOL     OW39342   6.778  14.350   0.485
12523SOL    HW139343   6.860  14.315   0.452
12523SOL    HW239344   6.783  14.338   0.580
12524SOL     OW39345   3.159  11.141  10.578
12524SOL    HW139346   3.106  11.064  10.598
12524SOL    HW239347   3.146  11.155  10.484
12525SOL     OW39348  10.260  14.509   7.118
12525SOL    HW139349  10.311  14.428   7.124
12525SOL    HW239350  10.281  14.556   7.198
12526SOL     OW39351   8.743   8.017   8.565
12526SOL    HW139352   8.822   7.977   8.528
12526SOL    HW239353   8.738   7.983   8.654
12527SOL     OW39354   7.470   2.967   7.516
12527SOL    HW139355   7.376   2.957   7.532
12527SOL    HW239356   7.505   3.002   7.598
12528SOL     OW39357  10.016   1.808  14.661
12528SOL    HW139358  10.025   1.898  14.694
12528SOL    HW239359   9.964   1.763  14.727
12529SOL     OW39360   2.276   9.281   9.629
12529SOL    HW139361   2.249   9.267   9.720
12529SOL    HW239362   2.267   9.195   9.588
12530SOL     OW39363   5.929   1.825   6.173
12530SOL    HW139364   5.922   1.861   6.085
12530SOL    HW239365   5.998   1.876   6.215
12531SOL     OW39366   6.269   6.652  10.745
12531SOL    HW139367   6.361   6.624  10.749
12531SOL    HW239368   6.272   6.742  10.712
12532SOL     OW39369   4.547   3.770   9.494
12532SOL    HW139370   4.558   3.805   9.582
12532SOL    HW239371   4.531   3.677   9.507
12533SOL     OW39372   1.850   2.381   7.615
12533SOL    HW139373   1.836   2.367   7.708
12533SOL    HW239374   1.822   2.472   7.600
12534SOL     OW39375  11.126   5.485   0.421
12534SOL    HW139376  11.147   5.577   0.440
12534SOL    HW239377  11.170   5.436   0.490
12535SOL     OW39378   8.600   7.140   1.917
12535SOL    HW139379   8.541   7.203   1.876
12535SOL    HW239380   8.612   7.173   2.006
12536SOL     OW39381  11.883   7.065  10.201
12536SOL    HW139382  11.956   7.051  10.140
12536SOL    HW239383  11.838   6.981  10.204
12537SOL     OW39384   8.957  11.801   2.067
12537SOL    HW139385   8.941  11.883   2.113
12537SOL    HW239386   8.931  11.732   2.129
12538SOL     OW39387   3.459   9.529   3.748
12538SOL    HW139388   3.479   9.567   3.834
12538SOL    HW239389   3.544   9.504   3.713
12539SOL     OW39390  13.350   2.752   6.031
12539SOL    HW139391  13.296   2.811   5.978
12539SOL    HW239392  13.406   2.811   6.082
12540SOL     OW39393   1.197   1.662   0.831
12540SOL    HW139394   1.119   1.712   0.810
12540SOL    HW239395   1.240   1.713   0.900
12541SOL     OW39396   6.152  12.074  12.361
12541SOL    HW139397   6.105  11.995  12.335
12541SOL    HW239398   6.161  12.125  12.280
12542SOL     OW39399   0.171   5.489  12.217
12542SOL    HW139400   0.149   5.402  12.251
12542SOL    HW239401   0.136   5.489  12.128
12543SOL     OW39402  11.650   7.212  11.677
12543SOL    HW139403  11.676   7.207  11.585
12543SOL    HW239404  11.695   7.289  11.710
12544SOL     OW39405  14.315   9.914  10.952
12544SOL    HW139406  14.370   9.861  11.011
12544SOL    HW239407  14.234   9.927  11.001
12545SOL     OW39408  10.528   5.572  12.154
12545SOL    HW139409  10.546   5.632  12.226
12545SOL    HW239410  10.609   5.523  12.142
12546SOL     OW39411   2.715   8.595  10.175
12546SOL    HW139412   2.690   8.686  10.193
12546SOL    HW239413   2.807   8.591  10.200
12547SOL     OW39414   5.193   1.848   3.847
12547SOL    HW139415   5.177   1.757   3.872
12547SOL    HW239416   5.141   1.899   3.909
12548SOL     OW39417   9.539   7.359   6.994
12548SOL    HW139418   9.623   7.346   7.037
12548SOL    HW239419   9.534   7.453   6.977
12549SOL     OW39420  11.284   9.385   8.107
12549SOL    HW139421  11.230   9.318   8.148
12549SOL    HW239422  11.370   9.344   8.099
12550SOL     OW39423   1.673  10.802   1.866
12550SOL    HW139424   1.695  10.709   1.866
12550SOL    HW239425   1.749  10.845   1.905
12551SOL     OW39426   7.450  13.952  14.449
12551SOL    HW139427   7.520  13.905  14.404
12551SOL    HW239428   7.495  14.004  14.515
12552SOL     OW39429  14.402   9.704   7.590
12552SOL    HW139430  14.347   9.666   7.658
12552SOL    HW239431  14.433   9.629   7.539
12553SOL     OW39432   1.203   6.858  11.275
12553SOL    HW139433   1.257   6.840  11.352
12553SOL    HW239434   1.190   6.772  11.235
12554SOL     OW39435   3.511  12.662   6.995
12554SOL    HW139436   3.555  12.579   7.010
12554SOL    HW239437   3.551  12.696   6.914
12555SOL     OW39438   5.219   7.354   0.997
12555SOL    HW139439   5.262   7.353   0.912
12555SOL    HW239440   5.227   7.264   1.029
12556SOL     OW39441  12.661  13.056  11.254
12556SOL    HW139442  12.590  13.025  11.311
12556SOL    HW239443  12.733  13.074  11.315
12557SOL     OW39444   6.007   9.622  14.607
12557SOL    HW139445   6.014   9.701  14.553
12557SOL    HW239446   6.022   9.654  14.696
12558SOL     OW39447   8.001   8.654   8.535
12558SOL    HW139448   8.025   8.695   8.618
12558SOL    HW239449   8.085   8.638   8.492
12559SOL     OW39450   8.171   1.282  10.498
12559SOL    HW139451   8.189   1.253  10.587
12559SOL    HW239452   8.110   1.355  10.508
12560SOL     OW39453   2.091   9.996   9.345
12560SOL    HW139454   2.027   9.936   9.308
12560SOL    HW239455   2.056  10.017   9.432
12561SOL     OW39456  12.533   7.684   3.945
12561SOL    HW139457  12.479   7.746   3.895
12561SOL    HW239458  12.473   7.647   4.010
12562SOL     OW39459   6.699   6.632   5.411
12562SOL    HW139460   6.660   6.624   5.498
12562SOL    HW239461   6.640   6.583   5.353
12563SOL     OW39462  13.709  12.444  10.043
12563SOL    HW139463  13.746  12.440   9.955
12563SOL    HW239464  13.779  12.478  10.097
12564SOL     OW39465   4.196   8.680   6.886
12564SOL    HW139466   4.288   8.696   6.862
12564SOL    HW239467   4.195   8.590   6.918
12565SOL     OW39468   8.811   7.673   2.196
12565SOL    HW139469   8.753   7.725   2.140
12565SOL    HW239470   8.868   7.738   2.238
12566SOL     OW39471   8.299   7.045  13.316
12566SOL    HW139472   8.254   7.101  13.253
12566SOL    HW239473   8.324   6.967  13.265
12567SOL     OW39474  11.286  12.292   5.124
12567SOL    HW139475  11.288  12.364   5.061
12567SOL    HW239476  11.193  12.276   5.140
12568SOL     OW39477   7.053  11.904  14.808
12568SOL    HW139478   7.009  11.823  14.784
12568SOL    HW239479   7.143  11.893  14.777
12569SOL     OW39480   9.017   3.158   8.843
12569SOL    HW139481   8.964   3.169   8.763
12569SOL    HW239482   9.047   3.067   8.839
12570SOL     OW39483   5.973   6.709   9.423
12570SOL    HW139484   5.944   6.647   9.491
12570SOL    HW239485   6.050   6.668   9.384
12571SOL     OW39486   8.135  13.960   3.419
12571SOL    HW139487   8.098  13.877   3.388
12571SOL    HW239488   8.217  13.935   3.463
12572SOL     OW39489   0.569   8.920   3.367
12572SOL    HW139490   0.518   8.874   3.434
12572SOL    HW239491   0.564   9.012   3.393
12573SOL     OW39492   3.592   6.999   9.234
12573SOL    HW139493   3.627   7.082   9.203
12573SOL    HW239494   3.498   7.014   9.244
12574SOL     OW39495   7.759   7.155   1.786
12574SOL    HW139496   7.809   7.085   1.829
12574SOL    HW239497   7.803   7.167   1.702
12575SOL     OW39498  12.831   6.118   4.568
12575SOL    HW139499  12.922   6.129   4.594
12575SOL    HW239500  12.788   6.085   4.647
12576SOL     OW39501  13.368   8.440   0.885
12576SOL    HW139502  13.314   8.426   0.808
12576SOL    HW239503  13.330   8.383   0.952
12577SOL     OW39504   5.581   9.573   8.602
12577SOL    HW139505   5.659   9.528   8.571
12577SOL    HW239506   5.511   9.508   8.593
12578SOL     OW39507  13.341   7.152   7.619
12578SOL    HW139508  13.332   7.090   7.692
12578SOL    HW239509  13.308   7.235   7.654
12579SOL     OW39510  14.452   1.031   7.005
12579SOL    HW139511  14.463   1.106   7.063
12579SOL    HW239512  14.362   1.039   6.972
12580SOL     OW39513   8.814   9.130   1.223
12580SOL    HW139514   8.766   9.071   1.165
12580SOL    HW239515   8.882   9.168   1.168
12581SOL     OW39516   2.532   5.768   6.721
12581SOL    HW139517   2.459   5.710   6.698
12581SOL    HW239518   2.489   5.849   6.751
12582SOL     OW39519   9.241   6.457   7.307
12582SOL    HW139520   9.252   6.421   7.395
12582SOL    HW239521   9.243   6.552   7.320
12583SOL     OW39522  13.854   7.671   4.850
12583SOL    HW139523  13.946   7.697   4.843
12583SOL    HW239524  13.815   7.697   4.766
12584SOL     OW39525  14.288  14.332   6.369
12584SOL    HW139526  14.280  14.424   6.343
12584SOL    HW239527  14.238  14.285   6.302
12585SOL     OW39528   6.491   3.746   7.780
12585SOL    HW139529   6.449   3.694   7.849
12585SOL    HW239530   6.459   3.835   7.793
12586SOL     OW39531  12.457  10.578   2.762
12586SOL    HW139532  12.527  10.625   2.717
12586SOL    HW239533  12.471  10.597   2.854
12587SOL     OW39534   3.433   3.755   5.089
12587SOL    HW139535   3.424   3.769   5.183
12587SOL    HW239536   3.344   3.739   5.058
12588SOL     OW39537   8.405  12.204  13.165
12588SOL    HW139538   8.384  12.298  13.169
12588SOL    HW239539   8.320  12.160  13.160
12589SOL     OW39540   2.647  13.919  12.381
12589SOL    HW139541   2.586  13.985  12.414
12589SOL    HW239542   2.704  13.967  12.322
12590SOL     OW39543  13.290   2.309   5.575
12590SOL    HW139544  13.211   2.351   5.610
12590SOL    HW239545  13.340   2.381   5.537
12591SOL     OW39546  11.763   9.538   7.167
12591SOL    HW139547  11.668   9.526   7.178
12591SOL    HW239548  11.781   9.501   7.081
12592SOL     OW39549   5.802  14.283   4.941
12592SOL    HW139550   5.833  14.216   5.002
12592SOL    HW239551   5.709  14.265   4.931
12593SOL     OW39552   8.123   8.135  13.709
12593SOL    HW139553   8.062   8.204  13.683
12593SOL    HW239554   8.068   8.066  13.745
12594SOL     OW39555   8.406   1.370   2.964
12594SOL    HW139556   8.399   1.382   3.059
12594SOL    HW239557   8.491   1.327   2.952
12595SOL     OW39558   7.699   8.240   9.967
12595SOL    HW139559   7.636   8.179   9.929
12595SOL    HW239560   7.750   8.272   9.893
12596SOL     OW39561   5.594   1.006   9.208
12596SOL    HW139562   5.627   0.984   9.121
12596SOL    HW239563   5.499   1.009   9.198
12597SOL     OW39564  11.626  11.754  11.088
12597SOL    HW139565  11.541  11.767  11.045
12597SOL    HW239566  11.670  11.839  11.081
12598SOL     OW39567   9.445   0.566   9.846
12598SOL    HW139568   9.529   0.527   9.869
12598SOL    HW239569   9.451   0.583   9.752
12599SOL     OW39570   4.458   8.625  10.311
12599SOL    HW139571   4.525   8.608  10.246
12599SOL    HW239572   4.408   8.699  10.275
12600SOL     OW39573  11.951   3.360  10.940
12600SOL    HW139574  11.895   3.325  10.871
12600SOL    HW239575  11.899   3.353  11.020
12601SOL     OW39576  14.407   9.069  11.076
12601SOL    HW139577  14.323   9.112  11.056
12601SOL    HW239578  14.393   9.030  11.162
12602SOL     OW39579   8.679   8.336   0.069
12602SOL    HW139580   8.641   8.249   0.055
12602SOL    HW239581   8.682   8.346   0.164
12603SOL     OW39582   2.448  12.512   7.777
12603SOL    HW139583   2.364  12.484   7.740
12603SOL    HW239584   2.507  12.516   7.702
12604SOL     OW39585  11.975   9.934   1.733
12604SOL    HW139586  12.041   9.996   1.764
12604SOL    HW239587  11.905   9.940   1.798
12605SOL     OW39588  13.820   3.845   3.659
12605SOL    HW139589  13.890   3.882   3.605
12605SOL    HW239590  13.857   3.765   3.696
12606SOL     OW39591   1.265  13.731   3.370
12606SOL    HW139592   1.320  13.794   3.324
12606SOL    HW239593   1.264  13.762   3.461
12607SOL     OW39594   4.175   4.425   5.654
12607SOL    HW139595   4.240   4.392   5.592
12607SOL    HW239596   4.133   4.498   5.608
12608SOL     OW39597   4.480   8.934   3.254
12608SOL    HW139598   4.430   8.964   3.179
12608SOL    HW239599   4.571   8.937   3.226
12609SOL     OW39600  13.270   6.262  14.147
12609SOL    HW139601  13.341   6.225  14.198
12609SOL    HW239602  13.205   6.192  14.141
12610SOL     OW39603  14.834  14.833   3.377
12610SOL    HW139604  14.804  14.747   3.348
12610SOL    HW239605   0.051  14.826   3.378
12611SOL     OW39606   0.898   2.961   8.784
12611SOL    HW139607   0.982   3.005   8.789
12611SOL    HW239608   0.860   2.990   8.701
12612SOL     OW39609   8.683   9.213   3.920
12612SOL    HW139610   8.622   9.150   3.882
12612SOL    HW239611   8.681   9.194   4.014
12613SOL     OW39612   4.409  11.635  10.130
12613SOL    HW139613   4.400  11.725  10.163
12613SOL    HW239614   4.380  11.640  10.039
12614SOL     OW39615   5.588  13.711  11.448
12614SOL    HW139616   5.540  13.709  11.530
12614SOL    HW239617   5.525  13.679  11.383
12615SOL     OW39618   1.685  11.122   1.727
12615SOL    HW139619   1.773  11.086   1.719
12615SOL    HW239620   1.627  11.050   1.703
12616SOL     OW39621   1.916  11.472   9.417
12616SOL    HW139622   1.927  11.441   9.507
12616SOL    HW239623   1.994  11.524   9.399
12617SOL     OW39624  10.390   3.508  10.532
12617SOL    HW139625  10.305   3.481  10.498
12617SOL    HW239626  10.438   3.426  10.543
12618SOL     OW39627  13.291   1.382   3.168
12618SOL    HW139628  13.362   1.348   3.222
12618SOL    HW239629  13.253   1.305   3.126
12619SOL     OW39630  12.264   8.865   1.482
12619SOL    HW139631  12.216   8.864   1.564
12619SOL    HW239632  12.349   8.826   1.503
12620SOL     OW39633   7.711   7.174  13.138
12620SOL    HW139634   7.769   7.113  13.183
12620SOL    HW239635   7.661   7.217  13.207
12621SOL     OW39636   5.078   2.982   9.463
12621SOL    HW139637   4.990   3.018   9.471
12621SOL    HW239638   5.124   3.043   9.406
12622SOL     OW39639   6.493   1.999   2.787
12622SOL    HW139640   6.580   1.982   2.751
12622SOL    HW239641   6.466   1.916   2.824
12623SOL     OW39642  14.415   2.165   3.558
12623SOL    HW139643  14.424   2.133   3.469
12623SOL    HW239644  14.505   2.184   3.586
12624SOL     OW39645   2.698   7.386   5.354
12624SOL    HW139646   2.641   7.377   5.278
12624SOL    HW239647   2.787   7.383   5.319
12625SOL     OW39648   3.068  13.132  13.625
12625SOL    HW139649   3.079  13.215  13.672
12625SOL    HW239650   3.107  13.067  13.684
12626SOL     OW39651   3.909  13.491   9.221
12626SOL    HW139652   3.915  13.440   9.140
12626SOL    HW239653   3.910  13.582   9.192
12627SOL     OW39654   3.255   0.644  13.452
12627SOL    HW139655   3.299   0.577  13.401
12627SOL    HW239656   3.277   0.726  13.408
12628SOL     OW39657  11.294   4.321   7.695
12628SOL    HW139658  11.198   4.310   7.694
12628SOL    HW239659  11.317   4.318   7.788
12629SOL     OW39660  12.496  11.783   1.368
12629SOL    HW139661  12.562  11.714   1.370
12629SOL    HW239662  12.500  11.818   1.279
12630SOL     OW39663   1.786   3.540   4.789
12630SOL    HW139664   1.742   3.507   4.711
12630SOL    HW239665   1.861   3.481   4.801
12631SOL     OW39666  10.353  13.833   8.634
12631SOL    HW139667  10.351  13.749   8.678
12631SOL    HW239668  10.350  13.898   8.705
12632SOL     OW39669   6.488   9.851   9.704
12632SOL    HW139670   6.486   9.862   9.608
12632SOL    HW239671   6.568   9.893   9.732
12633SOL     OW39672   8.506   7.827   9.502
12633SOL    HW139673   8.483   7.749   9.451
12633SOL    HW239674   8.521   7.795   9.591
12634SOL     OW39675   1.960   2.054   5.946
12634SOL    HW139676   1.882   2.104   5.924
12634SOL    HW239677   1.984   2.011   5.864
12635SOL     OW39678   2.574   1.583   1.544
12635SOL    HW139679   2.619   1.634   1.476
12635SOL    HW239680   2.635   1.514   1.567
12636SOL     OW39681  14.591   7.634   2.108
12636SOL    HW139682  14.652   7.623   2.181
12636SOL    HW239683  14.504   7.628   2.149
12637SOL     OW39684   8.717   4.539   9.461
12637SOL    HW139685   8.761   4.464   9.420
12637SOL    HW239686   8.699   4.510   9.551
12638SOL     OW39687  10.411  14.468   3.555
12638SOL    HW139688  10.375  14.423   3.479
12638SOL    HW239689  10.342  14.463   3.622
12639SOL     OW39690   4.304   5.757   9.297
12639SOL    HW139691   4.239   5.689   9.314
12639SOL    HW239692   4.386   5.710   9.287
12640SOL     OW39693   3.933  12.772   6.057
12640SOL    HW139694   3.989  12.848   6.070
12640SOL    HW239695   3.990  12.697   6.076
12641SOL     OW39696   5.161   9.240  11.518
12641SOL    HW139697   5.168   9.153  11.477
12641SOL    HW239698   5.071   9.268  11.499
12642SOL     OW39699   1.030  11.231   1.288
12642SOL    HW139700   1.064  11.220   1.200
12642SOL    HW239701   1.088  11.180   1.344
12643SOL     OW39702   5.913  10.367   7.996
12643SOL    HW139703   5.894  10.437   7.934
12643SOL    HW239704   5.946  10.295   7.941
12644SOL     OW39705   0.470   9.121   5.304
12644SOL    HW139706   0.462   9.030   5.276
12644SOL    HW239707   0.560   9.145   5.283
12645SOL     OW39708   4.874   2.593  12.473
12645SOL    HW139709   4.824   2.604  12.391
12645SOL    HW239710   4.877   2.681  12.511
12646SOL     OW39711  11.338  11.800  10.204
12646SOL    HW139712  11.332  11.895  10.206
12646SOL    HW239713  11.388  11.776  10.282
12647SOL     OW39714   1.261  10.897   2.317
12647SOL    HW139715   1.181  10.922   2.270
12647SOL    HW239716   1.314  10.976   2.318
12648SOL     OW39717   1.173   3.772   1.763
12648SOL    HW139718   1.215   3.702   1.814
12648SOL    HW239719   1.174   3.848   1.822
12649SOL     OW39720  10.106  14.011  13.886
12649SOL    HW139721  10.033  13.965  13.845
12649SOL    HW239722  10.097  14.101  13.856
12650SOL     OW39723  10.009   1.969   9.293
12650SOL    HW139724  10.065   1.966   9.216
12650SOL    HW239725   9.978   1.879   9.304
12651SOL     OW39726  12.804   7.685   9.578
12651SOL    HW139727  12.792   7.775   9.608
12651SOL    HW239728  12.724   7.640   9.605
12652SOL     OW39729  12.279  12.908  10.871
12652SOL    HW139730  12.248  12.932  10.784
12652SOL    HW239731  12.361  12.862  10.855
12653SOL     OW39732   7.316   2.227   1.251
12653SOL    HW139733   7.350   2.199   1.336
12653SOL    HW239734   7.226   2.196   1.250
12654SOL     OW39735   3.094   0.224   3.570
12654SOL    HW139736   3.102   0.227   3.665
12654SOL    HW239737   3.184   0.223   3.538
12655SOL     OW39738   9.925   9.528  11.038
12655SOL    HW139739   9.943   9.438  11.013
12655SOL    HW239740   9.830   9.536  11.038
12656SOL     OW39741   6.377  11.992   6.830
12656SOL    HW139742   6.313  11.946   6.775
12656SOL    HW239743   6.358  11.961   6.919
12657SOL     OW39744   1.379   4.959   0.092
12657SOL    HW139745   1.312   4.975   0.025
12657SOL    HW239746   1.364   5.028   0.157
12658SOL     OW39747   1.157  12.866   0.674
12658SOL    HW139748   1.227  12.876   0.608
12658SOL    HW239749   1.190  12.912   0.751
12659SOL     OW39750  13.959  11.008   9.439
12659SOL    HW139751  13.995  10.930   9.395
12659SOL    HW239752  13.866  10.989   9.450
12660SOL     OW39753  12.800  13.517  12.710
12660SOL    HW139754  12.827  13.555  12.794
12660SOL    HW239755  12.777  13.427  12.731
12661SOL     OW39756   4.172  11.627   5.152
12661SOL    HW139757   4.091  11.577   5.163
12661SOL    HW239758   4.194  11.617   5.059
12662SOL     OW39759   6.605   0.292   6.950
12662SOL    HW139760   6.519   0.283   6.993
12662SOL    HW239761   6.602   0.380   6.912
12663SOL     OW39762   2.967   2.068   4.202
12663SOL    HW139763   3.059   2.089   4.219
12663SOL    HW239764   2.919   2.139   4.243
12664SOL     OW39765  11.955   1.089   8.369
12664SOL    HW139766  11.908   1.168   8.398
12664SOL    HW239767  11.986   1.049   8.450
12665SOL     OW39768   1.979   0.236  14.566
12665SOL    HW139769   1.908   0.205  14.623
12665SOL    HW239770   2.046   0.268  14.626
12666SOL     OW39771   3.623   2.295   5.419
12666SOL    HW139772   3.594   2.257   5.502
12666SOL    HW239773   3.586   2.383   5.419
12667SOL     OW39774   1.528  13.951   7.115
12667SOL    HW139775   1.573  13.918   7.193
12667SOL    HW239776   1.525  14.046   7.127
12668SOL     OW39777  12.619   1.286   3.840
12668SOL    HW139778  12.610   1.225   3.913
12668SOL    HW239779  12.659   1.364   3.878
12669SOL     OW39780   4.979   9.373  13.047
12669SOL    HW139781   4.894   9.377  13.089
12669SOL    HW239782   4.963   9.401  12.957
12670SOL     OW39783  12.380   4.468   1.265
12670SOL    HW139784  12.410   4.424   1.185
12670SOL    HW239785  12.384   4.561   1.244
12671SOL     OW39786   4.988  11.654  14.134
12671SOL    HW139787   5.037  11.733  14.157
12671SOL    HW239788   4.922  11.646  14.204
12672SOL     OW39789  14.614   3.996   7.361
12672SOL    HW139790  14.694   3.952   7.392
12672SOL    HW239791  14.610   3.974   7.268
12673SOL     OW39792   2.277   6.237  13.645
12673SOL    HW139793   2.267   6.271  13.734
12673SOL    HW239794   2.193   6.256  13.603
12674SOL     OW39795   2.213  13.109  12.108
12674SOL    HW139796   2.198  13.194  12.068
12674SOL    HW239797   2.279  13.067  12.053
12675SOL     OW39798   8.939  12.163   7.196
12675SOL    HW139799   8.866  12.222   7.178
12675SOL    HW239800   8.901  12.075   7.191
12676SOL     OW39801  10.120  12.480   8.146
12676SOL    HW139802  10.201  12.529   8.157
12676SOL    HW239803  10.056  12.526   8.201
12677SOL     OW39804   2.793   6.390   5.407
12677SOL    HW139805   2.720   6.350   5.361
12677SOL    HW239806   2.868   6.336   5.384
12678SOL     OW39807   6.017   9.586   4.966
12678SOL    HW139808   6.085   9.651   4.983
12678SOL    HW239809   6.037   9.553   4.878
12679SOL     OW39810   7.375   0.604   7.337
12679SOL    HW139811   7.351   0.639   7.422
12679SOL    HW239812   7.344   0.513   7.339
12680SOL     OW39813  11.603   9.481  13.640
12680SOL    HW139814  11.515   9.491  13.676
12680SOL    HW239815  11.644   9.415  13.696
12681SOL     OW39816  10.856   8.191  14.645
12681SOL    HW139817  10.781   8.240  14.612
12681SOL    HW239818  10.843   8.189  14.740
12682SOL     OW39819   8.938   2.797   3.438
12682SOL    HW139820   8.920   2.748   3.357
12682SOL    HW239821   9.026   2.769   3.464
12683SOL     OW39822  13.328   8.958   0.771
12683SOL    HW139823  13.325   8.920   0.859
12683SOL    HW239824  13.238   8.951   0.739
12684SOL     OW39825  11.143   2.521   9.759
12684SOL    HW139826  11.232   2.488   9.768
12684SOL    HW239827  11.101   2.501   9.842
12685SOL     OW39828   9.962   9.957   8.076
12685SOL    HW139829   9.912   9.891   8.028
12685SOL    HW239830   9.926  10.040   8.049
12686SOL     OW39831   9.983   3.810  10.016
12686SOL    HW139832   9.988   3.889  10.070
12686SOL    HW239833   9.904   3.765  10.047
12687SOL     OW39834   7.681   7.553  13.845
12687SOL    HW139835   7.700   7.525  13.935
12687SOL    HW239836   7.589   7.533  13.833
12688SOL     OW39837   8.981   2.258   4.957
12688SOL    HW139838   8.924   2.214   5.019
12688SOL    HW239839   9.050   2.296   5.011
12689SOL     OW39840   2.844   4.780   9.702
12689SOL    HW139841   2.897   4.787   9.623
12689SOL    HW239842   2.907   4.768   9.772
12690SOL     OW39843   8.328  13.228   4.158
12690SOL    HW139844   8.420  13.210   4.143
12690SOL    HW239845   8.291  13.144   4.186
12691SOL     OW39846   9.938   7.790   0.714
12691SOL    HW139847   9.917   7.715   0.658
12691SOL    HW239848  10.009   7.835   0.668
12692SOL     OW39849   6.370   7.367  13.931
12692SOL    HW139850   6.320   7.332  13.857
12692SOL    HW239851   6.415   7.444  13.895
12693SOL     OW39852  14.330  13.561   5.662
12693SOL    HW139853  14.327  13.646   5.618
12693SOL    HW239854  14.416  13.525   5.638
12694SOL     OW39855   0.105   6.222  13.711
12694SOL    HW139856   0.150   6.161  13.652
12694SOL    HW239857   0.023   6.243  13.666
12695SOL     OW39858   4.217   8.576  14.794
12695SOL    HW139859   4.197   8.642  14.860
12695SOL    HW239860   4.184   8.494  14.831
12696SOL     OW39861  10.474   7.969  12.603
12696SOL    HW139862  10.454   8.017  12.523
12696SOL    HW239863  10.503   7.883  12.574
12697SOL     OW39864  10.184  11.786   0.277
12697SOL    HW139865  10.198  11.692   0.266
12697SOL    HW239866  10.102  11.793   0.327
12698SOL     OW39867  11.351  10.165   7.570
12698SOL    HW139868  11.438  10.129   7.588
12698SOL    HW239869  11.367  10.257   7.549
12699SOL     OW39870   6.691  10.210  12.328
12699SOL    HW139871   6.630  10.193  12.400
12699SOL    HW239872   6.635  10.235  12.255
12700SOL     OW39873  10.275   1.579   1.183
12700SOL    HW139874  10.285   1.523   1.260
12700SOL    HW239875  10.181   1.581   1.166
12701SOL     OW39876   2.207   0.998   3.243
12701SOL    HW139877   2.217   0.963   3.332
12701SOL    HW239878   2.226   1.091   3.251
12702SOL     OW39879   8.578   6.027   9.373
12702SOL    HW139880   8.660   6.003   9.329
12702SOL    HW239881   8.597   6.017   9.466
12703SOL     OW39882  12.824   7.696   2.352
12703SOL    HW139883  12.747   7.754   2.357
12703SOL    HW239884  12.815   7.638   2.427
12704SOL     OW39885  12.156   7.625   2.493
12704SOL    HW139886  12.235   7.673   2.465
12704SOL    HW239887  12.140   7.563   2.423
12705SOL     OW39888   7.043   6.429   5.078
12705SOL    HW139889   6.997   6.483   5.142
12705SOL    HW239890   7.006   6.455   4.994
12706SOL     OW39891  13.312  11.953   6.078
12706SOL    HW139892  13.362  12.032   6.100
12706SOL    HW239893  13.259  11.936   6.155
12707SOL     OW39894  12.145   2.804   3.810
12707SOL    HW139895  12.202   2.880   3.800
12707SOL    HW239896  12.178   2.741   3.746
12708SOL     OW39897   4.789  13.269   4.191
12708SOL    HW139898   4.793  13.203   4.122
12708SOL    HW239899   4.726  13.333   4.160
12709SOL     OW39900   8.669   0.045   7.995
12709SOL    HW139901   8.730   0.102   8.043
12709SOL    HW239902   8.587   0.094   7.994
12710SOL     OW39903  12.565   2.973   8.506
12710SOL    HW139904  12.637   3.037   8.503
12710SOL    HW239905  12.493   3.020   8.549
12711SOL     OW39906  13.783   1.457   7.831
12711SOL    HW139907  13.807   1.542   7.869
12711SOL    HW239908  13.771   1.475   7.738
12712SOL     OW39909   3.990  11.088  14.358
12712SOL    HW139910   4.030  11.068  14.442
12712SOL    HW239911   4.053  11.146  14.314
12713SOL     OW39912  12.110   5.963   5.493
12713SOL    HW139913  12.164   6.034   5.460
12713SOL    HW239914  12.057   5.935   5.418
12714SOL     OW39915   2.697  12.425  10.729
12714SOL    HW139916   2.688  12.482  10.653
12714SOL    HW239917   2.748  12.350  10.697
12715SOL     OW39918  11.891   1.485   1.797
12715SOL    HW139919  11.961   1.550   1.801
12715SOL    HW239920  11.812   1.535   1.817
12716SOL     OW39921   4.899  12.756  12.718
12716SOL    HW139922   4.822  12.812  12.717
12716SOL    HW239923   4.934  12.761  12.629
12717SOL     OW39924   5.440   6.668  10.583
12717SOL    HW139925   5.456   6.630  10.497
12717SOL    HW239926   5.527   6.672  10.624
12718SOL     OW39927   7.472  11.351   2.425
12718SOL    HW139928   7.481  11.425   2.365
12718SOL    HW239929   7.558  11.308   2.423
12719SOL     OW39930   4.254   2.511   5.656
12719SOL    HW139931   4.321   2.528   5.723
12719SOL    HW239932   4.275   2.423   5.624
12720SOL     OW39933  11.269   5.095   8.465
12720SOL    HW139934  11.364   5.087   8.470
12720SOL    HW239935  11.245   5.145   8.544
12721SOL     OW39936   4.565  12.052   1.722
12721SOL    HW139937   4.629  12.124   1.715
12721SOL    HW239938   4.561  12.034   1.816
12722SOL     OW39939  14.814   6.722   6.969
12722SOL    HW139940  14.729   6.734   6.926
12722SOL    HW239941  14.861   6.661   6.912
12723SOL     OW39942   9.201   7.118   9.688
12723SOL    HW139943   9.135   7.185   9.704
12723SOL    HW239944   9.169   7.040   9.733
12724SOL     OW39945   2.577   0.293   3.484
12724SOL    HW139946   2.506   0.240   3.522
12724SOL    HW239947   2.646   0.290   3.550
12725SOL     OW39948   3.805   0.702   7.744
12725SOL    HW139949   3.816   0.794   7.718
12725SOL    HW239950   3.867   0.655   7.688
12726SOL     OW39951  11.380   2.017  10.294
12726SOL    HW139952  11.328   2.080  10.245
12726SOL    HW239953  11.320   1.982  10.360
12727SOL     OW39954   2.108   0.977   5.018
12727SOL    HW139955   2.037   0.994   4.957
12727SOL    HW239956   2.076   1.013   5.101
12728SOL     OW39957  11.440   3.808  11.928
12728SOL    HW139958  11.456   3.790  12.021
12728SOL    HW239959  11.440   3.721  11.887
12729SOL     OW39960   2.706  14.678  14.234
12729SOL    HW139961   2.707  14.605  14.172
12729SOL    HW239962   2.624  14.669  14.281
12730SOL     OW39963  12.707   4.032   3.246
12730SOL    HW139964  12.708   4.127   3.259
12730SOL    HW239965  12.765   4.017   3.172
12731SOL     OW39966  14.758  10.545   8.842
12731SOL    HW139967  14.676  10.501   8.866
12731SOL    HW239968  14.819  10.522   8.912
12732SOL     OW39969   0.371   0.168  12.118
12732SOL    HW139970   0.421   0.104  12.069
12732SOL    HW239971   0.301   0.118  12.160
12733SOL     OW39972   1.113   9.934  13.890
12733SOL    HW139973   1.045   9.978  13.839
12733SOL    HW239974   1.089   9.950  13.981
12734SOL     OW39975   7.011   2.391   5.510
12734SOL    HW139976   6.997   2.470   5.459
12734SOL    HW239977   6.923   2.355   5.523
12735SOL     OW39978  14.556   2.464   9.795
12735SOL    HW139979  14.543   2.512   9.876
12735SOL    HW239980  14.514   2.379   9.809
12736SOL     OW39981   9.603   8.059   6.781
12736SOL    HW139982   9.616   8.107   6.700
12736SOL    HW239983   9.509   8.041   6.783
12737SOL     OW39984  14.132  12.825  12.558
12737SOL    HW139985  14.140  12.882  12.483
12737SOL    HW239986  14.171  12.742  12.530
12738SOL     OW39987  10.620  11.136   4.346
12738SOL    HW139988  10.634  11.078   4.271
12738SOL    HW239989  10.678  11.102   4.414
12739SOL     OW39990   5.816   1.115   5.417
12739SOL    HW139991   5.812   1.105   5.322
12739SOL    HW239992   5.823   1.209   5.431
12740SOL     OW39993   2.105   6.726   4.439
12740SOL    HW139994   2.156   6.795   4.398
12740SOL    HW239995   2.096   6.753   4.530
12741SOL     OW39996   8.034   0.712   9.320
12741SOL    HW139997   8.032   0.807   9.325
12741SOL    HW239998   7.943   0.685   9.329
12742SOL     OW39999   3.040   2.944   2.035
12742SOL    HW140000   3.050   2.981   1.947
12742SOL    HW240001   2.953   2.973   2.063
12743SOL     OW40002   2.127   0.516   7.405
12743SOL    HW140003   2.072   0.538   7.481
12743SOL    HW240004   2.066   0.514   7.331
12744SOL     OW40005   5.667  10.227   5.627
12744SOL    HW140006   5.705  10.314   5.644
12744SOL    HW240007   5.661  10.187   5.714
12745SOL     OW40008  11.845  14.423   1.869
12745SOL    HW140009  11.768  14.424   1.926
12745SOL    HW240010  11.885  14.337   1.884
12746SOL     OW40011  13.175   3.014   3.064
12746SOL    HW140012  13.243   2.970   3.013
12746SOL    HW240013  13.160   3.096   3.017
12747SOL     OW40014  10.464   4.960   8.216
12747SOL    HW140015  10.463   4.982   8.309
12747SOL    HW240016  10.476   5.044   8.172
12748SOL     OW40017  14.160   1.547   0.413
12748SOL    HW140018  14.100   1.541   0.339
12748SOL    HW240019  14.202   1.461   0.417
12749SOL     OW40020   4.458   5.870   6.620
12749SOL    HW140021   4.386   5.813   6.593
12749SOL    HW240022   4.512   5.880   6.541
12750SOL     OW40023   0.887   5.503   8.768
12750SOL    HW140024   0.864   5.429   8.712
12750SOL    HW240025   0.808   5.521   8.818
12751SOL     OW40026  11.416   0.400   1.305
12751SOL    HW140027  11.418   0.309   1.335
12751SOL    HW240028  11.342   0.439   1.352
12752SOL     OW40029   5.795   3.605   8.407
12752SOL    HW140030   5.853   3.581   8.335
12752SOL    HW240031   5.824   3.692   8.432
12753SOL     OW40032   7.444   2.704   7.008
12753SOL    HW140033   7.373   2.657   6.964
12753SOL    HW240034   7.421   2.797   6.998
12754SOL     OW40035  13.160  14.711   1.862
12754SOL    HW140036  13.105  14.786   1.843
12754SOL    HW240037  13.206  14.694   1.779
12755SOL     OW40038   1.490  13.579  11.411
12755SOL    HW140039   1.466  13.619  11.328
12755SOL    HW240040   1.488  13.484  11.394
12756SOL     OW40041   3.651  14.656   9.690
12756SOL    HW140042   3.642  14.744   9.726
12756SOL    HW240043   3.728  14.620   9.734
12757SOL     OW40044  12.668   7.944   5.071
12757SOL    HW140045  12.689   7.886   4.998
12757SOL    HW240046  12.753   7.967   5.108
12758SOL     OW40047   3.199  13.887   2.242
12758SOL    HW140048   3.154  13.808   2.210
12758SOL    HW240049   3.272  13.899   2.181
12759SOL     OW40050   7.215   9.122   9.767
12759SOL    HW140051   7.150   9.189   9.790
12759SOL    HW240052   7.299   9.168   9.773
12760SOL     OW40053   1.299   8.103  12.146
12760SOL    HW140054   1.359   8.114  12.220
12760SOL    HW240055   1.280   8.009  12.145
12761SOL     OW40056   0.171  13.270  13.723
12761SOL    HW140057   0.237  13.308  13.666
12761SOL    HW240058   0.219  13.245  13.802
12762SOL     OW40059   8.373   1.749  13.033
12762SOL    HW140060   8.346   1.697  13.108
12762SOL    HW240061   8.350   1.839  13.057
12763SOL     OW40062  13.534  13.958  11.753
12763SOL    HW140063  13.497  13.877  11.786
12763SOL    HW240064  13.615  13.932  11.708
12764SOL     OW40065   4.840   7.478  10.142
12764SOL    HW140066   4.848   7.461  10.236
12764SOL    HW240067   4.800   7.565  10.137
12765SOL     OW40068  10.567   7.324   4.816
12765SOL    HW140069  10.476   7.327   4.845
12765SOL    HW240070  10.573   7.392   4.749
12766SOL     OW40071   7.912   6.709   9.022
12766SOL    HW140072   7.859   6.785   8.999
12766SOL    HW240073   7.850   6.648   9.063
12767SOL     OW40074   7.782   0.671   7.498
12767SOL    HW140075   7.732   0.661   7.579
12767SOL    HW240076   7.814   0.762   7.500
12768SOL     OW40077   2.518  10.087   6.398
12768SOL    HW140078   2.515  10.007   6.451
12768SOL    HW240079   2.577  10.145   6.446
12769SOL     OW40080  11.743   3.032  13.630
12769SOL    HW140081  11.810   2.970  13.603
12769SOL    HW240082  11.788   3.089  13.693
12770SOL     OW40083   4.113   1.009   3.985
12770SOL    HW140084   4.154   0.950   3.923
12770SOL    HW240085   4.077   0.952   4.053
12771SOL     OW40086   2.120   4.468   2.542
12771SOL    HW140087   2.132   4.554   2.582
12771SOL    HW240088   2.209   4.440   2.520
12772SOL     OW40089  14.194   6.275   7.266
12772SOL    HW140090  14.150   6.202   7.309
12772SOL    HW240091  14.126   6.342   7.258
12773SOL     OW40092   0.204   6.178   0.269
12773SOL    HW140093   0.215   6.237   0.343
12773SOL    HW240094   0.130   6.121   0.295
12774SOL     OW40095  14.131   7.895   0.701
12774SOL    HW140096  14.053   7.912   0.754
12774SOL    HW240097  14.145   7.975   0.651
12775SOL     OW40098   2.531  13.055   6.464
12775SOL    HW140099   2.528  13.059   6.559
12775SOL    HW240100   2.448  13.014   6.439
12776SOL     OW40101   5.565   6.476   1.062
12776SOL    HW140102   5.602   6.473   1.150
12776SOL    HW240103   5.632   6.521   1.010
12777SOL     OW40104  13.986   9.068   6.363
12777SOL    HW140105  13.967   9.069   6.457
12777SOL    HW240106  14.062   9.125   6.354
12778SOL     OW40107  10.022   7.131   1.524
12778SOL    HW140108   9.993   7.198   1.462
12778SOL    HW240109   9.951   7.124   1.587
12779SOL     OW40110  10.337  12.519   3.820
12779SOL    HW140111  10.278  12.571   3.875
12779SOL    HW240112  10.348  12.437   3.868
12780SOL     OW40113   9.416   0.071   4.216
12780SOL    HW140114   9.367  14.868   4.202
12780SOL    HW240115   9.502   0.055   4.177
12781SOL     OW40116   8.913   9.249   9.462
12781SOL    HW140117   8.968   9.240   9.384
12781SOL    HW240118   8.938   9.334   9.499
12782SOL     OW40119   9.904  13.767  14.523
12782SOL    HW140120   9.941  13.750  14.437
12782SOL    HW240121   9.976  13.803  14.574
12783SOL     OW40122  11.845   5.629   3.561
12783SOL    HW140123  11.815   5.550   3.607
12783SOL    HW240124  11.925   5.602   3.516
12784SOL     OW40125   0.737   3.327   5.441
12784SOL    HW140126   0.697   3.318   5.528
12784SOL    HW240127   0.820   3.372   5.458
12785SOL     OW40128  12.868   6.763   3.675
12785SOL    HW140129  12.943   6.788   3.622
12785SOL    HW240130  12.827   6.691   3.628
12786SOL     OW40131   7.806  12.139  11.935
12786SOL    HW140132   7.865  12.077  11.892
12786SOL    HW240133   7.737  12.085  11.974
12787SOL     OW40134  13.729   3.551   5.743
12787SOL    HW140135  13.789   3.617   5.708
12787SOL    HW240136  13.645   3.595   5.749
12788SOL     OW40137   8.528   5.996   7.381
12788SOL    HW140138   8.600   5.980   7.442
12788SOL    HW240139   8.570   6.035   7.305
12789SOL     OW40140  14.803   8.913  11.408
12789SOL    HW140141  14.854   8.986  11.444
12789SOL    HW240142  14.817   8.919  11.314
12790SOL     OW40143   0.293   0.862   6.245
12790SOL    HW140144   0.251   0.802   6.307
12790SOL    HW240145   0.386   0.842   6.252
12791SOL     OW40146  14.219   7.787   0.470
12791SOL    HW140147  14.275   7.714   0.495
12791SOL    HW240148  14.168   7.806   0.548
12792SOL     OW40149   1.035   4.967   3.635
12792SOL    HW140150   0.980   5.032   3.679
12792SOL    HW240151   1.109   5.016   3.601
12793SOL     OW40152  13.759   5.593   0.633
12793SOL    HW140153  13.772   5.540   0.554
12793SOL    HW240154  13.843   5.638   0.645
12794SOL     OW40155   0.193   8.649   5.982
12794SOL    HW140156   0.251   8.583   5.943
12794SOL    HW240157   0.241   8.682   6.057
12795SOL     OW40158  11.292  11.163   4.172
12795SOL    HW140159  11.214  11.146   4.224
12795SOL    HW240160  11.268  11.137   4.084
12796SOL     OW40161  10.971  11.885   2.526
12796SOL    HW140162  10.958  11.883   2.621
12796SOL    HW240163  10.910  11.819   2.492
12797SOL     OW40164  10.540  12.990   4.998
12797SOL    HW140165  10.625  12.946   4.997
12797SOL    HW240166  10.504  12.970   5.084
12798SOL     OW40167   3.896   3.065   8.079
12798SOL    HW140168   3.854   3.086   8.163
12798SOL    HW240169   3.977   3.019   8.103
12799SOL     OW40170   1.075   6.113   9.110
12799SOL    HW140171   1.015   6.090   9.182
12799SOL    HW240172   1.129   6.183   9.146
12800SOL     OW40173   2.737  14.395  11.253
12800SOL    HW140174   2.776  14.364  11.335
12800SOL    HW240175   2.689  14.474  11.277
12801SOL     OW40176  10.378   9.276  10.472
12801SOL    HW140177  10.340   9.298  10.387
12801SOL    HW240178  10.327   9.201  10.503
12802SOL     OW40179   6.290  12.742  10.671
12802SOL    HW140180   6.258  12.755  10.760
12802SOL    HW240181   6.362  12.804  10.662
12803SOL     OW40182   3.996   1.030  14.512
12803SOL    HW140183   4.073   1.034  14.455
12803SOL    HW240184   3.923   1.014  14.453
12804SOL     OW40185   4.597   2.005   7.380
12804SOL    HW140186   4.675   2.058   7.366
12804SOL    HW240187   4.626   1.935   7.439
12805SOL     OW40188  12.481   1.838  14.580
12805SOL    HW140189  12.435   1.892  14.644
12805SOL    HW240190  12.572   1.836  14.611
12806SOL     OW40191   7.266   9.201   0.244
12806SOL    HW140192   7.288   9.219   0.153
12806SOL    HW240193   7.270   9.286   0.287
12807SOL     OW40194  11.567   1.662   2.976
12807SOL    HW140195  11.586   1.728   2.909
12807SOL    HW240196  11.521   1.711   3.045
12808SOL     OW40197  13.215  13.314  13.991
12808SOL    HW140198  13.291  13.277  13.946
12808SOL    HW240199  13.226  13.409  13.982
12809SOL     OW40200   0.143   3.941   4.334
12809SOL    HW140201   0.132   3.990   4.416
12809SOL    HW240202   0.168   4.007   4.270
12810SOL     OW40203   0.704   5.477   6.119
12810SOL    HW140204   0.760   5.510   6.190
12810SOL    HW240205   0.764   5.426   6.063
12811SOL     OW40206   7.505   8.705   7.836
12811SOL    HW140207   7.495   8.616   7.801
12811SOL    HW240208   7.599   8.724   7.827
12812SOL     OW40209  10.110   6.279   5.350
12812SOL    HW140210  10.148   6.279   5.438
12812SOL    HW240211  10.029   6.229   5.359
12813SOL     OW40212   2.186   6.492   9.555
12813SOL    HW140213   2.139   6.411   9.572
12813SOL    HW240214   2.272   6.479   9.594
12814SOL     OW40215   0.990   9.504  12.566
12814SOL    HW140216   1.067   9.465  12.525
12814SOL    HW240217   0.995   9.597  12.542
12815SOL     OW40218   5.096   5.604   6.281
12815SOL    HW140219   5.010   5.621   6.242
12815SOL    HW240220   5.131   5.691   6.299
12816SOL     OW40221  14.770  13.989   1.823
12816SOL    HW140222  14.783  13.907   1.871
12816SOL    HW240223  14.677  13.989   1.801
12817SOL     OW40224   9.907  14.753   4.422
12817SOL    HW140225   9.836  14.690   4.432
12817SOL    HW240226   9.949  14.756   4.508
12818SOL     OW40227  10.243  10.365   1.667
12818SOL    HW140228  10.203  10.278   1.672
12818SOL    HW240229  10.304  10.369   1.740
12819SOL     OW40230   5.628   2.491   4.610
12819SOL    HW140231   5.632   2.398   4.632
12819SOL    HW240232   5.697   2.503   4.545
12820SOL     OW40233   1.923  12.499   2.700
12820SOL    HW140234   1.987  12.533   2.763
12820SOL    HW240235   1.953  12.409   2.684
12821SOL     OW40236  13.795   6.188  12.622
12821SOL    HW140237  13.881   6.177  12.582
12821SOL    HW240238  13.775   6.102  12.660
12822SOL     OW40239  13.869   1.809   3.467
12822SOL    HW140240  13.788   1.806   3.518
12822SOL    HW240241  13.873   1.725   3.423
12823SOL     OW40242   8.008   5.917  11.271
12823SOL    HW140243   8.029   5.971  11.195
12823SOL    HW240244   7.990   5.980  11.341
12824SOL     OW40245  12.760   5.985   3.510
12824SOL    HW140246  12.759   5.992   3.414
12824SOL    HW240247  12.845   6.019   3.536
12825SOL     OW40248  14.782   3.978  11.745
12825SOL    HW140249  14.756   3.993  11.654
12825SOL    HW240250  14.804   3.885  11.748
12826SOL     OW40251   5.904   8.948   4.458
12826SOL    HW140252   5.887   8.973   4.367
12826SOL    HW240253   5.977   8.887   4.453
12827SOL     OW40254   9.670  11.900   4.582
12827SOL    HW140255   9.756  11.923   4.546
12827SOL    HW240256   9.610  11.960   4.539
12828SOL     OW40257   3.234   7.304   0.032
12828SOL    HW140258   3.213   7.254  14.831
12828SOL    HW240259   3.264   7.238   0.095
12829SOL     OW40260   9.852  13.403   3.533
12829SOL    HW140261   9.896  13.439   3.456
12829SOL    HW240262   9.766  13.445   3.533
12830SOL     OW40263  11.428  10.872  12.190
12830SOL    HW140264  11.438  10.801  12.127
12830SOL    HW240265  11.509  10.871  12.241
12831SOL     OW40266   6.185   6.805  12.852
12831SOL    HW140267   6.230   6.733  12.897
12831SOL    HW240268   6.255   6.865  12.827
12832SOL     OW40269  11.521  13.511   7.644
12832SOL    HW140270  11.564  13.593   7.619
12832SOL    HW240271  11.491  13.526   7.734
12833SOL     OW40272   1.448  10.257   3.657
12833SOL    HW140273   1.356  10.257   3.631
12833SOL    HW240274   1.496  10.285   3.579
12834SOL     OW40275   2.070   5.988  10.258
12834SOL    HW140276   2.073   5.997  10.163
12834SOL    HW240277   1.977   5.976  10.279
12835SOL     OW40278   1.883   3.485  10.464
12835SOL    HW140279   1.877   3.579  10.451
12835SOL    HW240280   1.843   3.447  10.386
12836SOL     OW40281   1.194   1.687   5.974
12836SOL    HW140282   1.218   1.770   5.935
12836SOL    HW240283   1.255   1.677   6.048
12837SOL     OW40284  11.412   0.477   1.039
12837SOL    HW140285  11.434   0.442   1.125
12837SOL    HW240286  11.417   0.572   1.049
12838SOL     OW40287  12.469   8.643   3.522
12838SOL    HW140288  12.521   8.703   3.576
12838SOL    HW240289  12.526   8.568   3.507
12839SOL     OW40290   6.760   9.515   2.335
12839SOL    HW140291   6.698   9.464   2.388
12839SOL    HW240292   6.815   9.559   2.399
12840SOL     OW40293   7.652   2.842  14.685
12840SOL    HW140294   7.589   2.861  14.755
12840SOL    HW240295   7.602   2.792  14.621
12841SOL     OW40296   7.294   6.942   4.469
12841SOL    HW140297   7.280   6.943   4.564
12841SOL    HW240298   7.245   6.866   4.438
12842SOL     OW40299   4.634  13.140  11.712
12842SOL    HW140300   4.602  13.102  11.630
12842SOL    HW240301   4.727  13.153  11.698
12843SOL     OW40302   0.146  13.681  14.212
12843SOL    HW140303   0.196  13.637  14.280
12843SOL    HW240304   0.063  13.634  14.209
12844SOL     OW40305   1.880  14.467   9.023
12844SOL    HW140306   1.871  14.436   9.113
12844SOL    HW240307   1.868  14.561   9.028
12845SOL     OW40308   2.289   3.845   2.824
12845SOL    HW140309   2.301   3.759   2.781
12845SOL    HW240310   2.336   3.836   2.907
12846SOL     OW40311   8.456   1.383   3.266
12846SOL    HW140312   8.521   1.452   3.276
12846SOL    HW240313   8.379   1.415   3.314
12847SOL     OW40314   9.169  11.281   9.994
12847SOL    HW140315   9.134  11.206  10.042
12847SOL    HW240316   9.211  11.242   9.917
12848SOL     OW40317   3.888   7.027   9.778
12848SOL    HW140318   3.830   6.986   9.843
12848SOL    HW240319   3.940   7.089   9.829
12849SOL     OW40320   7.787  13.529   1.920
12849SOL    HW140321   7.791  13.606   1.864
12849SOL    HW240322   7.722  13.472   1.879
12850SOL     OW40323   3.381  12.402   0.612
12850SOL    HW140324   3.389  12.489   0.652
12850SOL    HW240325   3.469  12.381   0.582
12851SOL     OW40326   2.712  10.598   9.549
12851SOL    HW140327   2.675  10.597   9.461
12851SOL    HW240328   2.671  10.525   9.594
12852SOL     OW40329  12.883  10.567   6.275
12852SOL    HW140330  12.874  10.476   6.303
12852SOL    HW240331  12.969  10.571   6.234
12853SOL     OW40332  14.531  13.454   8.195
12853SOL    HW140333  14.623  13.471   8.216
12853SOL    HW240334  14.508  13.524   8.133
12854SOL     OW40335   2.594   7.071  13.244
12854SOL    HW140336   2.617   7.110  13.329
12854SOL    HW240337   2.501   7.091  13.234
12855SOL     OW40338  13.835   8.025   6.279
12855SOL    HW140339  13.745   7.995   6.263
12855SOL    HW240340  13.890   7.949   6.258
12856SOL     OW40341   5.363   7.642   2.004
12856SOL    HW140342   5.425   7.644   1.930
12856SOL    HW240343   5.325   7.554   2.000
12857SOL     OW40344  10.384   2.752   1.806
12857SOL    HW140345  10.302   2.795   1.782
12857SOL    HW240346  10.423   2.727   1.722
12858SOL     OW40347   8.343  14.664  13.883
12858SOL    HW140348   8.335  14.693  13.792
12858SOL    HW240349   8.268  14.606  13.896
12859SOL     OW40350   8.444   3.579   3.418
12859SOL    HW140351   8.387   3.592   3.493
12859SOL    HW240352   8.385   3.551   3.348
12860SOL     OW40353   1.527  10.089   6.405
12860SOL    HW140354   1.577  10.142   6.466
12860SOL    HW240355   1.553   9.999   6.425
12861SOL     OW40356   0.290   9.617   7.974
12861SOL    HW140357   0.329   9.689   8.024
12861SOL    HW240358   0.364   9.577   7.928
12862SOL     OW40359   9.768  14.759   0.336
12862SOL    HW140360   9.789  14.758   0.429
12862SOL    HW240361   9.847  14.727   0.293
12863SOL     OW40362   0.502   4.854  14.230
12863SOL    HW140363   0.540   4.800  14.162
12863SOL    HW240364   0.567   4.922  14.247
12864SOL     OW40365   6.871  13.757   6.966
12864SOL    HW140366   6.834  13.758   7.055
12864SOL    HW240367   6.955  13.711   6.977
12865SOL     OW40368  11.770   9.606   7.680
12865SOL    HW140369  11.847   9.629   7.628
12865SOL    HW240370  11.739   9.524   7.641
12866SOL     OW40371   0.210   5.524  13.798
12866SOL    HW140372   0.239   5.438  13.828
12866SOL    HW240373   0.161   5.505  13.717
12867SOL     OW40374  12.853   0.489   4.612
12867SOL    HW140375  12.870   0.572   4.566
12867SOL    HW240376  12.770   0.459   4.576
12868SOL     OW40377  13.890   2.195  14.687
12868SOL    HW140378  13.959   2.253  14.655
12868SOL    HW240379  13.928   2.151  14.762
12869SOL     OW40380   0.401   0.239   7.796
12869SOL    HW140381   0.354   0.240   7.713
12869SOL    HW240382   0.405   0.146   7.820
12870SOL     OW40383  14.700   0.712   5.485
12870SOL    HW140384  14.686   0.752   5.571
12870SOL    HW240385  14.722   0.785   5.428
12871SOL     OW40386  10.502   3.383  11.200
12871SOL    HW140387  10.440   3.405  11.131
12871SOL    HW240388  10.471   3.432  11.277
12872SOL     OW40389  10.147  10.687  14.535
12872SOL    HW140390  10.216  10.651  14.479
12872SOL    HW240391  10.160  10.645  14.620
12873SOL     OW40392   7.832  11.085  13.222
12873SOL    HW140393   7.759  11.144  13.239
12873SOL    HW240394   7.831  11.071  13.127
12874SOL     OW40395   1.151   9.663   6.960
12874SOL    HW140396   1.087   9.600   6.928
12874SOL    HW240397   1.226   9.653   6.900
12875SOL     OW40398   1.947   7.874   0.880
12875SOL    HW140399   1.970   7.961   0.849
12875SOL    HW240400   1.858   7.883   0.915
12876SOL     OW40401  10.697   3.095   6.055
12876SOL    HW140402  10.773   3.067   6.106
12876SOL    HW240403  10.641   3.141   6.118
12877SOL     OW40404  14.199  10.213   0.502
12877SOL    HW140405  14.243  10.268   0.437
12877SOL    HW240406  14.130  10.169   0.452
12878SOL     OW40407   9.946   9.263   0.849
12878SOL    HW140408  10.036   9.233   0.841
12878SOL    HW240409   9.950   9.357   0.830
12879SOL     OW40410   6.795   6.617   9.015
12879SOL    HW140411   6.810   6.556   9.087
12879SOL    HW240412   6.755   6.694   9.057
12880SOL     OW40413   5.916   3.669   5.516
12880SOL    HW140414   5.966   3.650   5.437
12880SOL    HW240415   5.851   3.733   5.489
12881SOL     OW40416   1.111  14.778  11.787
12881SOL    HW140417   1.201  14.746  11.775
12881SOL    HW240418   1.106  14.856  11.731
12882SOL     OW40419   8.220   8.798  13.274
12882SOL    HW140420   8.300   8.766  13.316
12882SOL    HW240421   8.235   8.786  13.181
12883SOL     OW40422   2.111   5.029  14.273
12883SOL    HW140423   2.100   4.941  14.238
12883SOL    HW240424   2.200   5.055  14.248
12884SOL     OW40425  14.808   6.661   9.563
12884SOL    HW140426  14.739   6.727   9.558
12884SOL    HW240427  14.871   6.697   9.625
12885SOL     OW40428   6.286   0.552  10.933
12885SOL    HW140429   6.235   0.473  10.954
12885SOL    HW240430   6.370   0.518  10.900
12886SOL     OW40431   7.301  12.223   3.573
12886SOL    HW140432   7.356  12.291   3.533
12886SOL    HW240433   7.312  12.147   3.516
12887SOL     OW40434   5.649   1.850   8.433
12887SOL    HW140435   5.580   1.917   8.428
12887SOL    HW240436   5.730   1.900   8.435
12888SOL     OW40437   4.166   2.442  10.919
12888SOL    HW140438   4.257   2.430  10.893
12888SOL    HW240439   4.169   2.508  10.988
12889SOL     OW40440   0.689  14.209   0.990
12889SOL    HW140441   0.645  14.287   1.022
12889SOL    HW240442   0.637  14.181   0.914
12890SOL     OW40443  13.871   3.932   0.124
12890SOL    HW140444  13.826   3.849   0.112
12890SOL    HW240445  13.859   3.954   0.216
12891SOL     OW40446   8.428   7.091   8.280
12891SOL    HW140447   8.400   7.136   8.201
12891SOL    HW240448   8.488   7.024   8.249
12892SOL     OW40449  11.444   5.453   8.267
12892SOL    HW140450  11.493   5.528   8.234
12892SOL    HW240451  11.411   5.409   8.188
12893SOL     OW40452   9.572   4.462   4.305
12893SOL    HW140453   9.561   4.393   4.371
12893SOL    HW240454   9.540   4.422   4.224
12894SOL     OW40455  13.967  12.746   5.329
12894SOL    HW140456  14.050  12.699   5.334
12894SOL    HW240457  13.974  12.797   5.249
12895SOL     OW40458   9.541   9.562  14.522
12895SOL    HW140459   9.534   9.488  14.582
12895SOL    HW240460   9.612   9.616  14.559
12896SOL     OW40461  11.582   4.746   5.920
12896SOL    HW140462  11.589   4.736   5.825
12896SOL    HW240463  11.538   4.830   5.932
12897SOL     OW40464   5.435   1.420   7.983
12897SOL    HW140465   5.386   1.355   8.033
12897SOL    HW240466   5.445   1.380   7.896
12898SOL     OW40467   4.387   0.608   9.654
12898SOL    HW140468   4.454   0.614   9.722
12898SOL    HW240469   4.310   0.572   9.699
12899SOL     OW40470   2.673   0.345   0.792
12899SOL    HW140471   2.709   0.285   0.727
12899SOL    HW240472   2.744   0.407   0.809
12900SOL     OW40473  13.643   1.147   6.450
12900SOL    HW140474  13.629   1.177   6.360
12900SOL    HW240475  13.659   1.227   6.500
12901SOL     OW40476   2.858   8.609   2.127
12901SOL    HW140477   2.798   8.579   2.058
12901SOL    HW240478   2.804   8.610   2.206
12902SOL     OW40479  12.129  13.828  12.052
12902SOL    HW140480  12.102  13.816  11.961
12902SOL    HW240481  12.048  13.820  12.102
12903SOL     OW40482   6.038   5.177   6.679
12903SOL    HW140483   5.991   5.260   6.684
12903SOL    HW240484   6.128   5.199   6.703
12904SOL     OW40485   4.136   1.484   7.304
12904SOL    HW140486   4.069   1.435   7.256
12904SOL    HW240487   4.090   1.560   7.339
12905SOL     OW40488  11.751   1.768  11.420
12905SOL    HW140489  11.692   1.716  11.366
12905SOL    HW240490  11.699   1.843  11.449
12906SOL     OW40491   0.011  13.475   2.194
12906SOL    HW140492  14.820  13.481   2.260
12906SOL    HW240493   0.057  13.558   2.201
12907SOL     OW40494  14.499   9.659  11.319
12907SOL    HW140495  14.438   9.617  11.379
12907SOL    HW240496  14.489   9.753  11.337
12908SOL     OW40497  11.401  11.387   4.862
12908SOL    HW140498  11.427  11.457   4.922
12908SOL    HW240499  11.483  11.343   4.839
12909SOL     OW40500   7.194   2.567   7.034
12909SOL    HW140501   7.207   2.532   7.122
12909SOL    HW240502   7.155   2.493   6.986
12910SOL     OW40503  13.178   6.213  14.701
12910SOL    HW140504  13.144   6.168  14.779
12910SOL    HW240505  13.270   6.231  14.723
12911SOL     OW40506   6.255   4.229   4.058
12911SOL    HW140507   6.245   4.165   4.129
12911SOL    HW240508   6.300   4.303   4.099
12912SOL     OW40509   9.899   2.848   3.377
12912SOL    HW140510   9.982   2.830   3.420
12912SOL    HW240511   9.919   2.843   3.283
12913SOL     OW40512   6.542  11.953  14.469
12913SOL    HW140513   6.552  11.858  14.470
12913SOL    HW240514   6.558  11.979  14.560
12914SOL     OW40515   5.658  11.187  13.975
12914SOL    HW140516   5.731  11.158  14.030
12914SOL    HW240517   5.699  11.226  13.898
12915SOL     OW40518   3.176  11.468   9.051
12915SOL    HW140519   3.239  11.514   9.106
12915SOL    HW240520   3.141  11.536   8.993
12916SOL     OW40521   7.792   1.126   2.864
12916SOL    HW140522   7.788   1.041   2.820
12916SOL    HW240523   7.757   1.187   2.799
12917SOL     OW40524   8.452   1.397  11.003
12917SOL    HW140525   8.397   1.322  11.025
12917SOL    HW240526   8.541   1.361  11.001
12918SOL     OW40527   3.219  13.014  11.940
12918SOL    HW140528   3.257  13.101  11.928
12918SOL    HW240529   3.243  12.967  11.860
12919SOL     OW40530  10.636  11.667   0.583
12919SOL    HW140531  10.649  11.680   0.677
12919SOL    HW240532  10.542  11.653   0.573
12920SOL     OW40533   9.963   7.789   2.037
12920SOL    HW140534   9.915   7.799   2.119
12920SOL    HW240535  10.051   7.761   2.064
12921SOL     OW40536   7.083  11.512  10.099
12921SOL    HW140537   7.135  11.436  10.075
12921SOL    HW240538   7.059  11.497  10.190
12922SOL     OW40539   2.626   4.274   3.765
12922SOL    HW140540   2.561   4.263   3.695
12922SOL    HW240541   2.704   4.309   3.720
12923SOL     OW40542   4.627   8.632   1.495
12923SOL    HW140543   4.649   8.697   1.561
12923SOL    HW240544   4.704   8.575   1.491
12924SOL     OW40545  13.156  12.513   6.813
12924SOL    HW140546  13.069  12.524   6.852
12924SOL    HW240547  13.201  12.595   6.833
12925SOL     OW40548   2.837   4.470   3.960
12925SOL    HW140549   2.907   4.430   4.013
12925SOL    HW240550   2.839   4.563   3.984
12926SOL     OW40551   4.614   3.080   5.917
12926SOL    HW140552   4.569   3.151   5.872
12926SOL    HW240553   4.701   3.077   5.878
12927SOL     OW40554   2.550  14.017   7.392
12927SOL    HW140555   2.527  13.929   7.422
12927SOL    HW240556   2.611  14.003   7.320
12928SOL     OW40557   5.218  13.392   7.303
12928SOL    HW140558   5.262  13.353   7.228
12928SOL    HW240559   5.265  13.474   7.319
12929SOL     OW40560  12.858   8.172  13.823
12929SOL    HW140561  12.796   8.190  13.752
12929SOL    HW240562  12.812   8.198  13.903
12930SOL     OW40563   7.134  14.411   7.728
12930SOL    HW140564   7.183  14.420   7.646
12930SOL    HW240565   7.156  14.323   7.759
12931SOL     OW40566   2.993  14.382   9.647
12931SOL    HW140567   2.941  14.393   9.567
12931SOL    HW240568   2.933  14.341   9.708
12932SOL     OW40569   8.672   3.883   7.990
12932SOL    HW140570   8.764   3.860   7.995
12932SOL    HW240571   8.669   3.958   7.930
12933SOL     OW40572  10.565  11.689  10.838
12933SOL    HW140573  10.535  11.697  10.929
12933SOL    HW240574  10.525  11.764  10.793
12934SOL     OW40575   1.490   8.497  12.809
12934SOL    HW140576   1.513   8.515  12.901
12934SOL    HW240577   1.448   8.577  12.779
12935SOL     OW40578  11.049   3.912   8.835
12935SOL    HW140579  11.026   3.937   8.745
12935SOL    HW240580  11.115   3.976   8.861
12936SOL     OW40581   4.666  11.482  14.159
12936SOL    HW140582   4.720  11.458  14.083
12936SOL    HW240583   4.729  11.497  14.229
12937SOL     OW40584   0.462  12.894   8.580
12937SOL    HW140585   0.539  12.911   8.526
12937SOL    HW240586   0.468  12.957   8.651
12938SOL     OW40587   6.029   6.022   1.196
12938SOL    HW140588   6.086   5.949   1.220
12938SOL    HW240589   6.000   6.058   1.279
12939SOL     OW40590   8.940  12.701   9.355
12939SOL    HW140591   9.009  12.660   9.407
12939SOL    HW240592   8.921  12.783   9.400
12940SOL     OW40593  10.448   2.375   5.617
12940SOL    HW140594  10.415   2.299   5.665
12940SOL    HW240595  10.409   2.368   5.530
12941SOL     OW40596   9.188   8.973  12.196
12941SOL    HW140597   9.143   9.057  12.208
12941SOL    HW240598   9.279   8.991  12.220
12942SOL     OW40599   8.209  12.317   6.020
12942SOL    HW140600   8.160  12.293   5.942
12942SOL    HW240601   8.270  12.385   5.990
12943SOL     OW40602  10.500  11.278  14.372
12943SOL    HW140603  10.522  11.223  14.447
12943SOL    HW240604  10.411  11.310  14.390
12944SOL     OW40605   1.402   2.885  13.803
12944SOL    HW140606   1.345   2.830  13.749
12944SOL    HW240607   1.380   2.862  13.893
12945SOL     OW40608  14.672   2.441   0.180
12945SOL    HW140609  14.706   2.518   0.225
12945SOL    HW240610  14.636   2.386   0.250
12946SOL     OW40611   0.373  12.528   3.258
12946SOL    HW140612   0.359  12.556   3.349
12946SOL    HW240613   0.454  12.571   3.232
12947SOL     OW40614   4.958   3.916  10.144
12947SOL    HW140615   5.044   3.949  10.118
12947SOL    HW240616   4.975   3.830  10.181
12948SOL     OW40617   7.232   5.202  11.269
12948SOL    HW140618   7.182   5.147  11.209
12948SOL    HW240619   7.212   5.168  11.356
12949SOL     OW40620   9.412  10.474  12.350
12949SOL    HW140621   9.379  10.396  12.396
12949SOL    HW240622   9.341  10.497  12.290
12950SOL     OW40623  12.594   9.872  12.871
12950SOL    HW140624  12.617   9.932  12.800
12950SOL    HW240625  12.550   9.926  12.935
12951SOL     OW40626   0.942   0.034   7.428
12951SOL    HW140627   0.913   0.005   7.515
12951SOL    HW240628   1.018   0.089   7.445
12952SOL     OW40629   3.796  14.214   4.655
12952SOL    HW140630   3.780  14.294   4.704
12952SOL    HW240631   3.787  14.144   4.719
12953SOL     OW40632   7.051  12.513   9.015
12953SOL    HW140633   7.018  12.492   8.928
12953SOL    HW240634   7.047  12.430   9.063
12954SOL     OW40635  14.396  13.737   9.427
12954SOL    HW140636  14.341  13.763   9.353
12954SOL    HW240637  14.474  13.700   9.387
12955SOL     OW40638  13.897  11.430   6.524
12955SOL    HW140639  13.944  11.408   6.444
12955SOL    HW240640  13.839  11.502   6.499
12956SOL     OW40641  13.685   0.586   2.512
12956SOL    HW140642  13.605   0.628   2.482
12956SOL    HW240643  13.689   0.607   2.606
12957SOL     OW40644  13.814  14.653  10.875
12957SOL    HW140645  13.891  14.624  10.826
12957SOL    HW240646  13.847  14.675  10.962
12958SOL     OW40647  12.700  13.156   3.448
12958SOL    HW140648  12.767  13.124   3.388
12958SOL    HW240649  12.657  13.227   3.401
12959SOL     OW40650  11.334  11.718   1.196
12959SOL    HW140651  11.378  11.748   1.276
12959SOL    HW240652  11.324  11.624   1.208
12960SOL     OW40653   4.063   3.072  13.063
12960SOL    HW140654   4.042   3.044  12.973
12960SOL    HW240655   4.013   3.152  13.075
12961SOL     OW40656  11.688   0.482  14.125
12961SOL    HW140657  11.633   0.438  14.060
12961SOL    HW240658  11.647   0.568  14.137
12962SOL     OW40659   2.696   0.225   4.558
12962SOL    HW140660   2.702   0.287   4.631
12962SOL    HW240661   2.611   0.183   4.570
12963SOL     OW40662   5.360  10.792   4.332
12963SOL    HW140663   5.421  10.838   4.274
12963SOL    HW240664   5.416  10.734   4.383
12964SOL     OW40665   2.023   0.902   5.332
12964SOL    HW140666   1.997   0.920   5.422
12964SOL    HW240667   1.942   0.879   5.287
12965SOL     OW40668   0.963   8.056  11.083
12965SOL    HW140669   0.969   8.085  11.174
12965SOL    HW240670   0.903   8.118  11.042
12966SOL     OW40671   3.350  13.460  13.965
12966SOL    HW140672   3.311  13.446  14.051
12966SOL    HW240673   3.427  13.403  13.964
12967SOL     OW40674   4.556  14.458   2.950
12967SOL    HW140675   4.557  14.525   2.881
12967SOL    HW240676   4.615  14.492   3.017
12968SOL     OW40677  11.163  11.927   5.463
12968SOL    HW140678  11.184  11.907   5.554
12968SOL    HW240679  11.075  11.964   5.466
12969SOL     OW40680  11.806  13.857  14.389
12969SOL    HW140681  11.786  13.884  14.478
12969SOL    HW240682  11.862  13.927  14.354
12970SOL     OW40683   2.194   3.061   5.477
12970SOL    HW140684   2.180   3.096   5.565
12970SOL    HW240685   2.178   3.134   5.418
12971SOL     OW40686   8.049  13.650  10.689
12971SOL    HW140687   8.102  13.709  10.742
12971SOL    HW240688   8.022  13.701  10.613
12972SOL     OW40689   5.774  10.966   3.081
12972SOL    HW140690   5.860  10.959   3.123
12972SOL    HW240691   5.776  10.901   3.010
12973SOL     OW40692  11.820   5.332  11.096
12973SOL    HW140693  11.904   5.299  11.127
12973SOL    HW240694  11.821   5.317  11.001
12974SOL     OW40695  14.044   9.635  13.546
12974SOL    HW140696  14.104   9.690  13.495
12974SOL    HW240697  13.957   9.659  13.514
12975SOL     OW40698  12.573   5.847   0.370
12975SOL    HW140699  12.624   5.813   0.443
12975SOL    HW240700  12.486   5.862   0.406
12976SOL     OW40701  12.335   6.520   8.011
12976SOL    HW140702  12.273   6.558   8.072
12976SOL    HW240703  12.281   6.479   7.943
12977SOL     OW40704   3.119  12.320   9.024
12977SOL    HW140705   3.147  12.235   8.991
12977SOL    HW240706   3.146  12.320   9.116
12978SOL     OW40707  13.020  13.519   5.663
12978SOL    HW140708  13.090  13.499   5.726
12978SOL    HW240709  12.957  13.571   5.714
12979SOL     OW40710   8.792   6.127   8.696
12979SOL    HW140711   8.817   6.047   8.742
12979SOL    HW240712   8.825   6.197   8.752
12980SOL     OW40713  13.701   5.893   3.213
12980SOL    HW140714  13.713   5.902   3.118
12980SOL    HW240715  13.703   5.982   3.246
12981SOL     OW40716   2.115   4.995  13.124
12981SOL    HW140717   2.030   5.005  13.081
12981SOL    HW240718   2.104   4.920  13.183
12982SOL     OW40719  11.364   4.572   3.861
12982SOL    HW140720  11.431   4.606   3.921
12982SOL    HW240721  11.349   4.482   3.890
12983SOL     OW40722  12.966   7.461  12.767
12983SOL    HW140723  12.899   7.527  12.751
12983SOL    HW240724  12.956   7.399  12.694
12984SOL     OW40725   2.483   8.088   2.584
12984SOL    HW140726   2.463   8.035   2.507
12984SOL    HW240727   2.466   8.030   2.658
12985SOL     OW40728  13.602  10.619   4.078
12985SOL    HW140729  13.583  10.538   4.030
12985SOL    HW240730  13.697  10.619   4.090
12986SOL     OW40731  14.015   6.503   4.248
12986SOL    HW140732  13.963   6.424   4.235
12986SOL    HW240733  13.977   6.545   4.325
12987SOL     OW40734  13.921   1.866   5.951
12987SOL    HW140735  13.963   1.951   5.944
12987SOL    HW240736  13.993   1.803   5.959
12988SOL     OW40737   7.666   7.438   9.071
12988SOL    HW140738   7.760   7.441   9.056
12988SOL    HW240739   7.647   7.517   9.121
12989SOL     OW40740   2.848   0.385   9.111
12989SOL    HW140741   2.856   0.457   9.175
12989SOL    HW240742   2.754   0.371   9.102
12990SOL     OW40743   6.435   2.684  13.671
12990SOL    HW140744   6.385   2.623  13.725
12990SOL    HW240745   6.511   2.708  13.724
12991SOL     OW40746   3.090   8.966   5.191
12991SOL    HW140747   3.007   9.002   5.158
12991SOL    HW240748   3.136   9.043   5.225
12992SOL     OW40749   0.060  14.547   1.690
12992SOL    HW140750   0.095  14.459   1.678
12992SOL    HW240751  14.851  14.533   1.728
12993SOL     OW40752   0.979  14.088  14.010
12993SOL    HW140753   1.054  14.037  14.040
12993SOL    HW240754   1.006  14.179  14.022
12994SOL     OW40755   7.099   4.093   3.768
12994SOL    HW140756   7.018   4.046   3.748
12994SOL    HW240757   7.082   4.183   3.741
12995SOL     OW40758   6.163   2.362   5.091
12995SOL    HW140759   6.174   2.365   4.996
12995SOL    HW240760   6.162   2.454   5.118
12996SOL     OW40761   5.031   9.154   7.981
12996SOL    HW140762   5.029   9.216   8.054
12996SOL    HW240763   4.948   9.167   7.936
12997SOL     OW40764   0.155  10.429  10.242
12997SOL    HW140765   0.086  10.485  10.207
12997SOL    HW240766   0.227  10.438  10.179
12998SOL     OW40767   0.641   7.105  14.272
12998SOL    HW140768   0.723   7.089  14.225
12998SOL    HW240769   0.660   7.080  14.363
12999SOL     OW40770   3.027   2.306  11.362
12999SOL    HW140771   2.977   2.292  11.443
12999SOL    HW240772   3.024   2.401  11.348
13000SOL     OW40773   7.520   6.205   6.652
13000SOL    HW140774   7.427   6.224   6.663
13000SOL    HW240775   7.548   6.171   6.737
13001SOL     OW40776  10.456  13.711   3.892
13001SOL    HW140777  10.498  13.633   3.927
13001SOL    HW240778  10.406  13.680   3.816
13002SOL     OW40779   5.377   9.527   7.737
13002SOL    HW140780   5.417   9.442   7.754
13002SOL    HW240781   5.451   9.588   7.735
13003SOL     OW40782   5.159   8.342   9.074
13003SOL    HW140783   5.089   8.407   9.073
13003SOL    HW240784   5.165   8.315   9.166
13004SOL     OW40785   8.746  12.564   5.973
13004SOL    HW140786   8.778  12.483   5.933
13004SOL    HW240787   8.692  12.605   5.905
13005SOL     OW40788   4.780   2.648  10.243
13005SOL    HW140789   4.732   2.608  10.315
13005SOL    HW240790   4.735   2.618  10.164
13006SOL     OW40791   4.123  13.466   1.889
13006SOL    HW140792   4.138  13.494   1.979
13006SOL    HW240793   4.168  13.530   1.835
13007SOL     OW40794  12.246   9.561   7.049
13007SOL    HW140795  12.339   9.581   7.060
13007SOL    HW240796  12.201   9.629   7.100
13008SOL     OW40797   2.800   4.749   3.973
13008SOL    HW140798   2.716   4.777   3.937
13008SOL    HW240799   2.790   4.759   4.068
13009SOL     OW40800  10.989  10.223   6.898
13009SOL    HW140801  10.910  10.177   6.868
13009SOL    HW240802  11.034  10.160   6.955
13010SOL     OW40803  10.882   4.487  13.766
13010SOL    HW140804  10.795   4.453  13.783
13010SOL    HW240805  10.892   4.482  13.671
13011SOL     OW40806   6.329   9.771  14.037
13011SOL    HW140807   6.239   9.738  14.045
13011SOL    HW240808   6.381   9.694  14.014
13012SOL     OW40809  11.215   4.187   3.813
13012SOL    HW140810  11.230   4.209   3.906
13012SOL    HW240811  11.300   4.201   3.771
13013SOL     OW40812  14.664  13.488  10.892
13013SOL    HW140813  14.673  13.448  10.978
13013SOL    HW240814  14.754  13.496  10.859
13014SOL     OW40815   0.630   4.616   4.400
13014SOL    HW140816   0.642   4.567   4.318
13014SOL    HW240817   0.570   4.687   4.378
13015SOL     OW40818   2.409  12.088   3.523
13015SOL    HW140819   2.389  12.181   3.512
13015SOL    HW240820   2.463  12.084   3.602
13016SOL     OW40821   3.671   8.211   0.584
13016SOL    HW140822   3.654   8.120   0.608
13016SOL    HW240823   3.760   8.212   0.552
13017SOL     OW40824   2.064   1.029  11.217
13017SOL    HW140825   2.017   0.994  11.292
13017SOL    HW240826   2.041   0.970  11.145
13018SOL     OW40827  14.455  13.758   5.858
13018SOL    HW140828  14.546  13.729   5.848
13018SOL    HW240829  14.425  13.773   5.768
13019SOL     OW40830   0.186   1.619  10.889
13019SOL    HW140831   0.163   1.551  10.826
13019SOL    HW240832   0.127   1.604  10.963
13020SOL     OW40833  13.418   1.494  11.295
13020SOL    HW140834  13.426   1.489  11.199
13020SOL    HW240835  13.402   1.586  11.313
13021SOL     OW40836  14.440   9.623   6.279
13021SOL    HW140837  14.376   9.616   6.350
13021SOL    HW240838  14.392   9.664   6.207
13022SOL     OW40839   5.369   5.312  11.836
13022SOL    HW140840   5.429   5.272  11.898
13022SOL    HW240841   5.393   5.274  11.751
13023SOL     OW40842  14.625  10.834   0.842
13023SOL    HW140843  14.593  10.923   0.858
13023SOL    HW240844  14.554  10.792   0.794
13024SOL     OW40845  12.862  11.630   9.702
13024SOL    HW140846  12.908  11.705   9.739
13024SOL    HW240847  12.871  11.561   9.769
13025SOL     OW40848   5.462   9.057  11.289
13025SOL    HW140849   5.380   9.042  11.338
13025SOL    HW240850   5.434   9.059  11.197
13026SOL     OW40851  13.349  12.930  11.643
13026SOL    HW140852  13.275  12.906  11.698
13026SOL    HW240853  13.388  12.847  11.617
13027SOL     OW40854   8.997  11.421  12.820
13027SOL    HW140855   9.040  11.369  12.751
13027SOL    HW240856   8.998  11.511  12.787
13028SOL     OW40857   0.114   1.001   1.521
13028SOL    HW140858   0.112   1.093   1.549
13028SOL    HW240859   0.166   1.002   1.440
13029SOL     OW40860   1.978   8.751   6.168
13029SOL    HW140861   2.063   8.715   6.143
13029SOL    HW240862   1.915   8.686   6.137
13030SOL     OW40863   3.692   3.235   4.726
13030SOL    HW140864   3.666   3.266   4.639
13030SOL    HW240865   3.637   3.285   4.787
13031SOL     OW40866  11.460  10.051   1.329
13031SOL    HW140867  11.547  10.021   1.301
13031SOL    HW240868  11.453  10.140   1.294
13032SOL     OW40869  11.600   2.134   9.944
13032SOL    HW140870  11.542   2.201   9.981
13032SOL    HW240871  11.543   2.060   9.926
13033SOL     OW40872   1.673  11.671   7.461
13033SOL    HW140873   1.670  11.663   7.556
13033SOL    HW240874   1.741  11.609   7.434
13034SOL     OW40875  11.248   3.440   6.383
13034SOL    HW140876  11.268   3.350   6.409
13034SOL    HW240877  11.228   3.434   6.290
13035SOL     OW40878   7.937   5.616   0.197
13035SOL    HW140879   7.898   5.702   0.181
13035SOL    HW240880   7.983   5.595   0.116
13036SOL     OW40881   3.066  12.828  13.597
13036SOL    HW140882   3.011  12.902  13.569
13036SOL    HW240883   3.036  12.755  13.544
13037SOL     OW40884   7.401  14.158  11.073
13037SOL    HW140885   7.380  14.168  11.166
13037SOL    HW240886   7.414  14.063  11.062
13038SOL     OW40887   0.706   1.376   1.324
13038SOL    HW140888   0.741   1.429   1.396
13038SOL    HW240889   0.628   1.423   1.296
13039SOL     OW40890  10.096  10.692   6.117
13039SOL    HW140891  10.135  10.779   6.123
13039SOL    HW240892  10.059  10.677   6.204
13040SOL     OW40893  12.734   9.513   7.354
13040SOL    HW140894  12.657   9.519   7.410
13040SOL    HW240895  12.735   9.422   7.324
13041SOL     OW40896  12.533   4.109  14.539
13041SOL    HW140897  12.589   4.032  14.544
13041SOL    HW240898  12.450   4.075  14.504
13042SOL     OW40899   0.031   6.834   5.673
13042SOL    HW140900   0.070   6.762   5.724
13042SOL    HW240901   0.030   6.802   5.583
13043SOL     OW40902   9.567  13.065   4.324
13043SOL    HW140903   9.491  13.012   4.350
13043SOL    HW240904   9.631  13.001   4.292
13044SOL     OW40905  14.079  13.489   1.645
13044SOL    HW140906  14.132  13.437   1.585
13044SOL    HW240907  14.101  13.457   1.732
13045SOL     OW40908   5.268   4.062  13.752
13045SOL    HW140909   5.284   4.127  13.821
13045SOL    HW240910   5.178   4.033  13.766
13046SOL     OW40911   5.966  13.644   0.379
13046SOL    HW140912   5.924  13.594   0.450
13046SOL    HW240913   5.985  13.730   0.419
13047SOL     OW40914   1.532   2.376  13.027
13047SOL    HW140915   1.561   2.433  12.955
13047SOL    HW240916   1.449   2.341  12.998
13048SOL     OW40917   0.999   7.426   4.559
13048SOL    HW140918   0.970   7.438   4.650
13048SOL    HW240919   0.917   7.412   4.510
13049SOL     OW40920   2.734   0.253   1.131
13049SOL    HW140921   2.802   0.321   1.131
13049SOL    HW240922   2.652   0.301   1.138
13050SOL     OW40923  12.592   5.232   2.625
13050SOL    HW140924  12.643   5.297   2.675
13050SOL    HW240925  12.658   5.175   2.585
13051SOL     OW40926   9.293   1.962   6.260
13051SOL    HW140927   9.242   2.023   6.313
13051SOL    HW240928   9.292   1.880   6.310
13052SOL     OW40929  10.079   2.008   5.302
13052SOL    HW140930  10.174   2.001   5.295
13052SOL    HW240931  10.046   1.958   5.227
13053SOL     OW40932   0.237   3.576   9.544
13053SOL    HW140933   0.278   3.526   9.615
13053SOL    HW240934   0.189   3.512   9.493
13054SOL     OW40935   6.406   0.831   1.293
13054SOL    HW140936   6.471   0.873   1.348
13054SOL    HW240937   6.360   0.771   1.352
13055SOL     OW40938  14.005  13.202   2.674
13055SOL    HW140939  14.095  13.234   2.662
13055SOL    HW240940  13.993  13.201   2.768
13056SOL     OW40941   6.800  10.737   3.814
13056SOL    HW140942   6.817  10.747   3.908
13056SOL    HW240943   6.782  10.644   3.803
13057SOL     OW40944   3.333  10.410   8.523
13057SOL    HW140945   3.314  10.324   8.559
13057SOL    HW240946   3.427  10.411   8.510
13058SOL     OW40947  12.217  12.921  11.130
13058SOL    HW140948  12.256  12.950  11.047
13058SOL    HW240949  12.219  12.826  11.126
13059SOL     OW40950   7.438  11.975   1.879
13059SOL    HW140951   7.352  12.017   1.882
13059SOL    HW240952   7.434  11.917   1.803
13060SOL     OW40953   5.908   6.340   7.709
13060SOL    HW140954   5.931   6.432   7.697
13060SOL    HW240955   5.861   6.316   7.629
13061SOL     OW40956   7.248   0.247  13.223
13061SOL    HW140957   7.208   0.316  13.276
13061SOL    HW240958   7.325   0.288  13.184
13062SOL     OW40959   1.700   9.065  12.633
13062SOL    HW140960   1.606   9.051  12.643
13062SOL    HW240961   1.736   8.977  12.623
13063SOL     OW40962   6.687   4.378  14.372
13063SOL    HW140963   6.668   4.453  14.429
13063SOL    HW240964   6.747   4.412  14.306
13064SOL     OW40965  14.180   3.226  10.217
13064SOL    HW140966  14.128   3.178  10.152
13064SOL    HW240967  14.187   3.314  10.181
13065SOL     OW40968   3.858   5.916   0.230
13065SOL    HW140969   3.845   5.882   0.319
13065SOL    HW240970   3.801   5.863   0.175
13066SOL     OW40971   8.674  14.670   0.066
13066SOL    HW140972   8.685  14.722  14.864
13066SOL    HW240973   8.598  14.707   0.109
13067SOL     OW40974   2.417   0.736   3.361
13067SOL    HW140975   2.381   0.706   3.277
13067SOL    HW240976   2.405   0.662   3.420
13068SOL     OW40977  12.017  13.551   8.678
13068SOL    HW140978  12.068  13.471   8.692
13068SOL    HW240979  11.992  13.579   8.766
13069SOL     OW40980   2.391  12.693  14.447
13069SOL    HW140981   2.350  12.650  14.372
13069SOL    HW240982   2.483  12.666  14.443
13070SOL     OW40983   1.684  13.620   7.117
13070SOL    HW140984   1.740  13.693   7.091
13070SOL    HW240985   1.744  13.549   7.135
13071SOL     OW40986  14.820  12.226  14.800
13071SOL    HW140987  14.829  12.140  14.841
13071SOL    HW240988   0.027  12.243  14.760
13072SOL     OW40989   2.318   6.884   0.262
13072SOL    HW140990   2.371   6.964   0.256
13072SOL    HW240991   2.228   6.915   0.267
13073SOL     OW40992   2.754  11.137  13.009
13073SOL    HW140993   2.659  11.130  12.995
13073SOL    HW240994   2.776  11.059  13.061
13074SOL     OW40995   8.894   9.643   2.636
13074SOL    HW140996   8.899   9.645   2.732
13074SOL    HW240997   8.931   9.727   2.609
13075SOL     OW40998  12.114   9.709   8.566
13075SOL    HW140999  12.186   9.705   8.503
13075SOL    HW241000  12.156   9.698   8.651
13076SOL     OW41001   2.086   0.783  12.309
13076SOL    HW141002   2.075   0.816  12.398
13076SOL    HW241003   2.012   0.819  12.260
13077SOL     OW41004   7.919   9.729   5.512
13077SOL    HW141005   7.988   9.665   5.530
13077SOL    HW241006   7.896   9.764   5.598
13078SOL     OW41007   5.674   9.496  10.511
13078SOL    HW141008   5.715   9.421  10.468
13078SOL    HW241009   5.743   9.562  10.515
13079SOL     OW41010  12.656  13.060   8.033
13079SOL    HW141011  12.592  13.075   8.102
13079SOL    HW241012  12.659  12.965   8.024
13080SOL     OW41013   9.343   8.886  14.783
13080SOL    HW141014   9.341   8.803  14.736
13080SOL    HW241015   9.345   8.862  14.875
13081SOL     OW41016   1.251   7.294  11.944
13081SOL    HW141017   1.182   7.228  11.955
13081SOL    HW241018   1.260   7.334  12.030
13082SOL     OW41019   1.275  12.356   5.734
13082SOL    HW141020   1.358  12.380   5.692
13082SOL    HW241021   1.274  12.407   5.815
13083SOL     OW41022   2.647   9.541  11.690
13083SOL    HW141023   2.602   9.546  11.775
13083SOL    HW241024   2.723   9.486  11.706
13084SOL     OW41025   4.888   4.923   1.499
13084SOL    HW141026   4.808   4.975   1.507
13084SOL    HW241027   4.868   4.858   1.431
13085SOL     OW41028  10.776  13.200   9.681
13085SOL    HW141029  10.703  13.141   9.661
13085SOL    HW241030  10.841  13.143   9.722
13086SOL     OW41031   7.122   7.311   2.926
13086SOL    HW141032   7.036   7.333   2.962
13086SOL    HW241033   7.184   7.358   2.981
13087SOL     OW41034   1.306   2.623   8.102
13087SOL    HW141035   1.335   2.710   8.128
13087SOL    HW241036   1.272   2.584   8.182
13088SOL     OW41037   6.981   6.797   8.037
13088SOL    HW141038   7.033   6.862   7.990
13088SOL    HW241039   6.962   6.730   7.972
13089SOL     OW41040  14.724   0.310   7.257
13089SOL    HW141041  14.789   0.356   7.205
13089SOL    HW241042  14.710   0.227   7.211
13090SOL     OW41043  14.037   6.661   2.240
13090SOL    HW141044  14.052   6.568   2.219
13090SOL    HW241045  14.120   6.691   2.277
13091SOL     OW41046   0.591   4.483  11.333
13091SOL    HW141047   0.586   4.578  11.339
13091SOL    HW241048   0.605   4.466  11.240
13092SOL     OW41049  11.903  14.369  14.539
13092SOL    HW141050  11.819  14.333  14.510
13092SOL    HW241051  11.938  14.414  14.462
13093SOL     OW41052   6.145   3.816   0.169
13093SOL    HW141053   6.217   3.794   0.228
13093SOL    HW241054   6.066   3.802   0.220
13094SOL     OW41055   2.186  13.330   9.334
13094SOL    HW141056   2.219  13.373   9.254
13094SOL    HW241057   2.230  13.246   9.336
13095SOL     OW41058  10.093  12.354   0.817
13095SOL    HW141059  10.062  12.434   0.775
13095SOL    HW241060  10.188  12.357   0.807
13096SOL     OW41061   4.426   1.813   9.980
13096SOL    HW141062   4.363   1.848  10.043
13096SOL    HW241063   4.373   1.762   9.919
13097SOL     OW41064   8.720  13.018  11.041
13097SOL    HW141065   8.746  12.960  11.113
13097SOL    HW241066   8.641  13.061  11.073
13098SOL     OW41067  10.322  14.354  12.959
13098SOL    HW141068  10.233  14.387  12.971
13098SOL    HW241069  10.312  14.260  12.947
13099SOL     OW41070  10.387   2.004   0.612
13099SOL    HW141071  10.394   1.911   0.630
13099SOL    HW241072  10.463   2.023   0.556
13100SOL     OW41073  11.456   3.306   8.930
13100SOL    HW141074  11.378   3.330   8.980
13100SOL    HW241075  11.506   3.251   8.990
13101SOL     OW41076   0.520   4.846  11.587
13101SOL    HW141077   0.447   4.893  11.628
13101SOL    HW241078   0.595   4.904  11.600
13102SOL     OW41079   3.711   6.338  12.844
13102SOL    HW141080   3.633   6.344  12.899
13102SOL    HW241081   3.702   6.410  12.781
13103SOL     OW41082  14.467   7.630  13.063
13103SOL    HW141083  14.429   7.660  13.145
13103SOL    HW241084  14.539   7.572  13.089
13104SOL     OW41085  11.293  11.207  14.313
13104SOL    HW141086  11.287  11.183  14.221
13104SOL    HW241087  11.320  11.299  14.311
13105SOL     OW41088   4.063  14.809   8.157
13105SOL    HW141089   4.111  14.767   8.228
13105SOL    HW241090   4.071  14.748   8.084
13106SOL     OW41091  10.509  11.343   4.651
13106SOL    HW141092  10.532  11.333   4.559
13106SOL    HW241093  10.593  11.348   4.697
13107SOL     OW41094  12.985   9.620   9.409
13107SOL    HW141095  13.005   9.557   9.340
13107SOL    HW241096  12.890   9.632   9.403
13108SOL     OW41097  13.014  10.707   1.428
13108SOL    HW141098  13.071  10.676   1.498
13108SOL    HW241099  12.933  10.658   1.440
13109SOL     OW41100   6.972  14.081  11.787
13109SOL    HW141101   6.929  13.995  11.784
13109SOL    HW241102   6.948  14.122  11.703
13110SOL     OW41103   5.320   4.676   1.953
13110SOL    HW141104   5.287   4.657   1.865
13110SOL    HW241105   5.305   4.596   2.003
13111SOL     OW41106   1.701  13.759   8.931
13111SOL    HW141107   1.658  13.678   8.958
13111SOL    HW241108   1.689  13.763   8.836
13112SOL     OW41109   3.020   6.538  13.346
13112SOL    HW141110   2.994   6.462  13.398
13112SOL    HW241111   2.953   6.604  13.362
13113SOL     OW41112  12.230   3.887   2.632
13113SOL    HW141113  12.184   3.970   2.636
13113SOL    HW241114  12.300   3.902   2.569
13114SOL     OW41115   2.296  12.013   4.143
13114SOL    HW141116   2.344  12.017   4.225
13114SOL    HW241117   2.211  12.053   4.162
13115SOL     OW41118   5.983   5.135  12.036
13115SOL    HW141119   5.981   5.213  11.981
13115SOL    HW241120   6.075   5.110  12.040
13116SOL     OW41121  11.805  14.163   9.184
13116SOL    HW141122  11.804  14.239   9.126
13116SOL    HW241123  11.897  14.147   9.202
13117SOL     OW41124  11.843  14.145  13.653
13117SOL    HW141125  11.904  14.074  13.670
13117SOL    HW241126  11.861  14.210  13.720
13118SOL     OW41127   0.250  14.224  11.668
13118SOL    HW141128   0.300  14.290  11.620
13118SOL    HW241129   0.195  14.275  11.728
13119SOL     OW41130  10.060   7.335  11.300
13119SOL    HW141131  10.060   7.345  11.205
13119SOL    HW241132  10.105   7.413  11.333
13120SOL     OW41133  12.578   7.665  11.717
13120SOL    HW141134  12.533   7.644  11.798
13120SOL    HW241135  12.539   7.748  11.689
13121SOL     OW41136   0.179  10.526   6.077
13121SOL    HW141137   0.193  10.528   5.982
13121SOL    HW241138   0.098  10.575   6.090
13122SOL     OW41139  11.846   5.635   4.273
13122SOL    HW141140  11.928   5.681   4.288
13122SOL    HW241141  11.822   5.657   4.183
13123SOL     OW41142   1.492  12.657  11.625
13123SOL    HW141143   1.419  12.682  11.682
13123SOL    HW241144   1.516  12.569  11.654
13124SOL     OW41145   6.449   9.559   1.117
13124SOL    HW141146   6.367   9.513   1.100
13124SOL    HW241147   6.424   9.651   1.126
13125SOL     OW41148   2.090   0.283  12.222
13125SOL    HW141149   2.158   0.323  12.167
13125SOL    HW241150   2.138   0.232  12.287
13126SOL     OW41151   1.795   5.302  13.325
13126SOL    HW141152   1.794   5.210  13.349
13126SOL    HW241153   1.887   5.328  13.332
13127SOL     OW41154   3.586   1.989   7.597
13127SOL    HW141155   3.574   2.084   7.595
13127SOL    HW241156   3.681   1.976   7.586
13128SOL     OW41157  10.571  14.181   3.866
13128SOL    HW141158  10.487  14.225   3.881
13128SOL    HW241159  10.571  14.109   3.929
13129SOL     OW41160  11.961   6.914   5.702
13129SOL    HW141161  11.991   6.992   5.655
13129SOL    HW241162  11.869   6.931   5.721
13130SOL     OW41163  13.132  11.676   8.908
13130SOL    HW141164  13.037  11.672   8.894
13130SOL    HW241165  13.169  11.691   8.821
13131SOL     OW41166   2.440  13.327  10.708
13131SOL    HW141167   2.526  13.319  10.748
13131SOL    HW241168   2.414  13.417  10.727
13132SOL     OW41169   8.904   7.259   3.899
13132SOL    HW141170   8.854   7.291   3.974
13132SOL    HW241171   8.993   7.290   3.915
13133SOL     OW41172  11.859  12.324   1.738
13133SOL    HW141173  11.936  12.379   1.723
13133SOL    HW241174  11.792  12.385   1.768
13134SOL     OW41175   5.845  12.908   3.314
13134SOL    HW141176   5.828  12.835   3.254
13134SOL    HW241177   5.758  12.934   3.345
13135SOL     OW41178   5.824  14.150   3.004
13135SOL    HW141179   5.821  14.055   3.021
13135SOL    HW241180   5.769  14.188   3.073
13136SOL     OW41181   5.959   9.412   3.432
13136SOL    HW141182   5.961   9.449   3.344
13136SOL    HW241183   5.945   9.318   3.419
13137SOL     OW41184   9.809   5.768   9.736
13137SOL    HW141185   9.779   5.831   9.802
13137SOL    HW241186   9.873   5.815   9.684
13138SOL     OW41187  12.881   9.966   2.522
13138SOL    HW141188  12.924  10.043   2.558
13138SOL    HW241189  12.831   9.929   2.595
13139SOL     OW41190  13.097   8.953   5.164
13139SOL    HW141191  13.095   8.899   5.085
13139SOL    HW241192  13.032   8.913   5.222
13140SOL     OW41193  10.907  14.692   0.196
13140SOL    HW141194  10.864  14.691   0.282
13140SOL    HW241195  10.908  14.784   0.170
13141SOL     OW41196   5.437   7.077   7.909
13141SOL    HW141197   5.529   7.065   7.931
13141SOL    HW241198   5.391   7.008   7.957
13142SOL     OW41199  11.242   4.209  13.777
13142SOL    HW141200  11.252   4.286  13.721
13142SOL    HW241201  11.184   4.238  13.847
13143SOL     OW41202   8.108   8.487   5.405
13143SOL    HW141203   8.140   8.565   5.360
13143SOL    HW241204   8.029   8.516   5.450
13144SOL     OW41205  12.941   0.536   5.463
13144SOL    HW141206  13.005   0.471   5.437
13144SOL    HW241207  12.898   0.499   5.540
13145SOL     OW41208   7.525   6.480   9.165
13145SOL    HW141209   7.574   6.405   9.129
13145SOL    HW241210   7.582   6.555   9.149
13146SOL     OW41211  10.373   7.842  13.679
13146SOL    HW141212  10.403   7.931  13.695
13146SOL    HW241213  10.451   7.794  13.653
13147SOL     OW41214   9.373   0.380   1.113
13147SOL    HW141215   9.414   0.296   1.090
13147SOL    HW241216   9.374   0.430   1.031
13148SOL     OW41217  14.371   3.759   6.432
13148SOL    HW141218  14.371   3.835   6.375
13148SOL    HW241219  14.410   3.689   6.379
13149SOL     OW41220   3.806  13.988   4.245
13149SOL    HW141221   3.718  14.021   4.263
13149SOL    HW241222   3.865  14.052   4.285
13150SOL     OW41223   5.138   4.866   0.683
13150SOL    HW141224   5.193   4.888   0.608
13150SOL    HW241225   5.085   4.792   0.653
13151SOL     OW41226   3.492   5.379   5.288
13151SOL    HW141227   3.428   5.404   5.355
13151SOL    HW241228   3.443   5.377   5.207
13152SOL     OW41229   7.072   3.139   4.207
13152SOL    HW141230   7.152   3.165   4.253
13152SOL    HW241231   7.064   3.203   4.136
13153SOL     OW41232   6.520  12.424  14.190
13153SOL    HW141233   6.478  12.356  14.243
13153SOL    HW241234   6.613  12.412  14.204
13154SOL     OW41235   4.654   8.170   2.808
13154SOL    HW141236   4.644   8.112   2.884
13154SOL    HW241237   4.748   8.172   2.792
13155SOL     OW41238   0.306   7.663   0.480
13155SOL    HW141239   0.250   7.638   0.407
13155SOL    HW241240   0.344   7.746   0.454
13156SOL     OW41241   7.962   2.480  11.193
13156SOL    HW141242   7.966   2.424  11.270
13156SOL    HW241243   8.038   2.454  11.141
13157SOL     OW41244   7.682  10.927  12.195
13157SOL    HW141245   7.759  10.984  12.205
13157SOL    HW241246   7.631  10.942  12.274
13158SOL     OW41247  12.387   6.124   2.993
13158SOL    HW141248  12.325   6.056   2.966
13158SOL    HW241249  12.390   6.118   3.088
13159SOL     OW41250  14.175   0.264   2.838
13159SOL    HW141251  14.229   0.215   2.900
13159SOL    HW241252  14.192   0.224   2.753
13160SOL     OW41253   9.809  14.753   5.207
13160SOL    HW141254   9.754  14.711   5.274
13160SOL    HW241255   9.774  14.842   5.199
13161SOL     OW41256   3.524   7.596   7.753
13161SOL    HW141257   3.445   7.611   7.702
13161SOL    HW241258   3.539   7.677   7.801
13162SOL     OW41259  12.845  11.580   5.600
13162SOL    HW141260  12.925  11.631   5.605
13162SOL    HW241261  12.793  11.609   5.674
13163SOL     OW41262  11.459  12.864   3.410
13163SOL    HW141263  11.488  12.906   3.329
13163SOL    HW241264  11.376  12.907   3.431
13164SOL     OW41265  12.940   9.988   6.020
13164SOL    HW141266  12.972   9.899   6.008
13164SOL    HW241267  12.897  10.010   5.937
13165SOL     OW41268  10.391   0.960   8.747
13165SOL    HW141269  10.394   1.041   8.799
13165SOL    HW241270  10.483   0.934   8.738
13166SOL     OW41271  10.267   1.108   6.392
13166SOL    HW141272  10.292   1.017   6.409
13166SOL    HW241273  10.180   1.117   6.431
13167SOL     OW41274  13.327   7.076  13.736
13167SOL    HW141275  13.285   7.005  13.688
13167SOL    HW241276  13.402   7.101  13.683
13168SOL     OW41277  13.790   2.709  14.038
13168SOL    HW141278  13.764   2.632  14.087
13168SOL    HW241279  13.883   2.722  14.060
13169SOL     OW41280   2.067   1.799   7.499
13169SOL    HW141281   2.161   1.811   7.514
13169SOL    HW241282   2.033   1.888   7.487
13170SOL     OW41283  11.147   2.321   7.064
13170SOL    HW141284  11.115   2.363   7.144
13170SOL    HW241285  11.136   2.387   6.996
13171SOL     OW41286   3.964  13.846  11.892
13171SOL    HW141287   4.038  13.853  11.832
13171SOL    HW241288   3.953  13.934  11.928
13172SOL     OW41289   4.002   5.048  14.132
13172SOL    HW141290   4.079   5.020  14.083
13172SOL    HW241291   4.032   5.055  14.222
13173SOL     OW41292   5.968  14.121   6.991
13173SOL    HW141293   5.959  14.094   6.900
13173SOL    HW241294   6.002  14.211   6.986
13174SOL     OW41295   0.258  14.366  14.676
13174SOL    HW141296   0.321  14.437  14.685
13174SOL    HW241297   0.231  14.368  14.584
13175SOL     OW41298   6.374  11.511  10.124
13175SOL    HW141299   6.381  11.448  10.196
13175SOL    HW241300   6.336  11.460  10.052
13176SOL     OW41301   0.050  14.214   5.207
13176SOL    HW141302  14.843  14.248   5.179
13176SOL    HW241303   0.112  14.283   5.184
13177SOL     OW41304   4.669   5.377  11.755
13177SOL    HW141305   4.665   5.452  11.815
13177SOL    HW241306   4.763   5.363  11.741
13178SOL     OW41307  10.285   0.551   2.651
13178SOL    HW141308  10.330   0.520   2.729
13178SOL    HW241309  10.341   0.621   2.617
13179SOL     OW41310  14.233   9.826   8.888
13179SOL    HW141311  14.166   9.884   8.924
13179SOL    HW241312  14.188   9.777   8.819
13180SOL     OW41313  13.650   0.147   3.681
13180SOL    HW141314  13.703   0.076   3.644
13180SOL    HW241315  13.565   0.138   3.636
13181SOL     OW41316   4.435  13.067  10.081
13181SOL    HW141317   4.519  13.064  10.128
13181SOL    HW241318   4.439  13.148  10.030
13182SOL     OW41319   2.768   3.442  13.450
13182SOL    HW141320   2.790   3.349  13.449
13182SOL    HW241321   2.685   3.448  13.403
13183SOL     OW41322   1.243  13.175  12.755
13183SOL    HW141323   1.294  13.136  12.826
13183SOL    HW241324   1.252  13.269  12.768
13184SOL     OW41325  14.836   0.384  14.534
13184SOL    HW141326   0.020   0.339  14.593
13184SOL    HW241327  14.838   0.475  14.563
13185SOL     OW41328   1.485   6.851  13.878
13185SOL    HW141329   1.426   6.810  13.940
13185SOL    HW241330   1.432   6.918  13.834
13186SOL     OW41331  11.685   4.910   6.829
13186SOL    HW141332  11.602   4.907   6.876
13186SOL    HW241333  11.740   4.969   6.881
13187SOL     OW41334   9.682   4.295   7.247
13187SOL    HW141335   9.672   4.214   7.196
13187SOL    HW241336   9.628   4.359   7.200
13188SOL     OW41337   4.872   4.194   8.259
13188SOL    HW141338   4.914   4.139   8.193
13188SOL    HW241339   4.798   4.142   8.289
13189SOL     OW41340   7.153   9.795  12.396
13189SOL    HW141341   7.088   9.784  12.465
13189SOL    HW241342   7.221   9.731  12.416
13190SOL     OW41343  11.951   0.974   8.118
13190SOL    HW141344  11.975   1.017   8.200
13190SOL    HW241345  11.925   1.045   8.060
13191SOL     OW41346   3.210   6.092   6.332
13191SOL    HW141347   3.297   6.107   6.369
13191SOL    HW241348   3.153   6.080   6.408
13192SOL     OW41349  14.016  13.676  14.125
13192SOL    HW141350  14.043  13.627  14.202
13192SOL    HW241351  13.937  13.632  14.094
13193SOL     OW41352   7.984  12.752   7.736
13193SOL    HW141353   8.035  12.706   7.802
13193SOL    HW241354   7.923  12.806   7.785
13194SOL     OW41355  12.929   1.684  10.954
13194SOL    HW141356  12.890   1.748  10.893
13194SOL    HW241357  13.018   1.716  10.969
13195SOL     OW41358  14.638   7.607   1.128
13195SOL    HW141359  14.714   7.555   1.155
13195SOL    HW241360  14.628   7.589   1.035
13196SOL     OW41361   8.743   9.280  11.098
13196SOL    HW141362   8.723   9.368  11.067
13196SOL    HW241363   8.678   9.264  11.167
13197SOL     OW41364   1.582   3.706   7.396
13197SOL    HW141365   1.634   3.778   7.433
13197SOL    HW241366   1.634   3.676   7.322
13198SOL     OW41367   3.775  11.551  11.225
13198SOL    HW141368   3.835  11.586  11.291
13198SOL    HW241369   3.688  11.560  11.265
13199SOL     OW41370   7.294   6.406   2.400
13199SOL    HW141371   7.249   6.333   2.359
13199SOL    HW241372   7.326   6.459   2.326
13200SOL     OW41373   8.478   9.589   9.871
13200SOL    HW141374   8.482   9.609   9.965
13200SOL    HW241375   8.504   9.670   9.828
13201SOL     OW41376  14.037   2.413   3.429
13201SOL    HW141377  13.975   2.342   3.412
13201SOL    HW241378  14.063   2.444   3.342
13202SOL     OW41379   6.863   3.774  12.312
13202SOL    HW141380   6.933   3.784  12.377
13202SOL    HW241381   6.817   3.695  12.338
13203SOL     OW41382  12.770  12.813   2.962
13203SOL    HW141383  12.826  12.736   2.975
13203SOL    HW241384  12.824  12.887   2.992
13204SOL     OW41385   7.801  14.833   8.605
13204SOL    HW141386   7.721  14.811   8.653
13204SOL    HW241387   7.774  14.832   8.513
13205SOL     OW41388  10.508  10.149  10.803
13205SOL    HW141389  10.445  10.113  10.866
13205SOL    HW241390  10.454  10.171  10.727
13206SOL     OW41391   3.406  12.187   8.872
13206SOL    HW141392   3.312  12.168   8.864
13206SOL    HW241393   3.418  12.208   8.965
13207SOL     OW41394   5.986   7.574   6.359
13207SOL    HW141395   5.925   7.623   6.304
13207SOL    HW241396   6.069   7.620   6.349
13208SOL     OW41397   7.016   9.708   1.996
13208SOL    HW141398   7.112   9.707   2.001
13208SOL    HW241399   6.993   9.621   1.961
13209SOL     OW41400   5.370   6.370   0.914
13209SOL    HW141401   5.447   6.413   0.952
13209SOL    HW241402   5.306   6.369   0.985
13210SOL     OW41403  12.626   4.824   0.973
13210SOL    HW141404  12.591   4.848   1.059
13210SOL    HW241405  12.574   4.748   0.946
13211SOL     OW41406   0.072   9.031  14.227
13211SOL    HW141407   0.127   9.069  14.295
13211SOL    HW241408   0.104   8.941  14.219
13212SOL     OW41409   5.377   4.005   3.483
13212SOL    HW141410   5.467   4.000   3.450
13212SOL    HW241411   5.344   3.916   3.477
13213SOL     OW41412  11.492  11.114  11.464
13213SOL    HW141413  11.464  11.193  11.417
13213SOL    HW241414  11.587  11.121  11.467
13214SOL     OW41415   3.014   0.016   8.945
13214SOL    HW141416   3.065  14.819   8.975
13214SOL    HW241417   3.050   0.091   8.992
13215SOL     OW41418   5.169   2.082   0.612
13215SOL    HW141419   5.084   2.067   0.570
13215SOL    HW241420   5.177   2.011   0.676
13216SOL     OW41421   0.547  13.269   6.088
13216SOL    HW141422   0.575  13.294   6.176
13216SOL    HW241423   0.626  13.232   6.047
13217SOL     OW41424   4.089   7.595   6.352
13217SOL    HW141425   4.130   7.522   6.305
13217SOL    HW241426   4.028   7.553   6.413
13218SOL     OW41427   4.587  13.421   0.470
13218SOL    HW141428   4.603  13.516   0.470
13218SOL    HW241429   4.623  13.391   0.386
13219SOL     OW41430   5.734   8.313   0.137
13219SOL    HW141431   5.827   8.293   0.138
13219SOL    HW241432   5.712   8.332   0.229
13220SOL     OW41433   6.752   2.057   3.699
13220SOL    HW141434   6.728   2.119   3.769
13220SOL    HW241435   6.670   2.041   3.652
13221SOL     OW41436  13.256  10.732  10.060
13221SOL    HW141437  13.192  10.754   9.993
13221SOL    HW241438  13.340  10.757  10.022
13222SOL     OW41439  14.313   0.988   2.449
13222SOL    HW141440  14.249   0.977   2.378
13222SOL    HW241441  14.376   1.051   2.415
13223SOL     OW41442  13.287  12.617   6.012
13223SOL    HW141443  13.299  12.593   6.104
13223SOL    HW241444  13.375  12.637   5.981
13224SOL     OW41445  14.711   2.516   6.283
13224SOL    HW141446  14.683   2.586   6.341
13224SOL    HW241447  14.736   2.559   6.202
13225SOL     OW41448   3.032   6.761   6.417
13225SOL    HW141449   2.975   6.701   6.369
13225SOL    HW241450   3.012   6.847   6.381
13226SOL     OW41451   3.918   6.466   6.635
13226SOL    HW141452   3.860   6.397   6.668
13226SOL    HW241453   4.005   6.426   6.632
13227SOL     OW41454   7.766   2.721   6.926
13227SOL    HW141455   7.824   2.676   6.987
13227SOL    HW241456   7.679   2.714   6.966
13228SOL     OW41457  13.480  13.432  10.647
13228SOL    HW141458  13.492  13.337  10.653
13228SOL    HW241459  13.387  13.446  10.664
13229SOL     OW41460   0.852   7.001  14.151
13229SOL    HW141461   0.859   6.910  14.179
13229SOL    HW241462   0.846   6.997  14.056
13230SOL     OW41463  13.112  11.282  12.435
13230SOL    HW141464  13.176  11.215  12.461
13230SOL    HW241465  13.164  11.348  12.388
13231SOL     OW41466   9.157   3.023   4.237
13231SOL    HW141467   9.240   2.974   4.231
13231SOL    HW241468   9.091   2.963   4.202
13232SOL     OW41469   3.647   1.403  14.608
13232SOL    HW141470   3.715   1.336  14.613
13232SOL    HW241471   3.694   1.483  14.582
13233SOL     OW41472  10.842   5.849   1.065
13233SOL    HW141473  10.844   5.882   1.155
13233SOL    HW241474  10.808   5.922   1.014
13234SOL     OW41475  10.743   2.021   7.432
13234SOL    HW141476  10.759   2.082   7.361
13234SOL    HW241477  10.765   1.935   7.396
13235SOL     OW41478  12.221   8.305  12.302
13235SOL    HW141479  12.189   8.368  12.237
13235SOL    HW241480  12.272   8.242  12.252
13236SOL     OW41481  11.557   6.713  10.496
13236SOL    HW141482  11.522   6.775  10.432
13236SOL    HW241483  11.484   6.654  10.515
13237SOL     OW41484   3.234  14.837  12.890
13237SOL    HW141485   3.190  14.826  12.805
13237SOL    HW241486   3.224   0.052  12.910
13238SOL     OW41487   8.732  11.821   4.472
13238SOL    HW141488   8.789  11.745   4.476
13238SOL    HW241489   8.688  11.822   4.557
13239SOL     OW41490   1.494  10.202   5.506
13239SOL    HW141491   1.487  10.113   5.472
13239SOL    HW241492   1.587  10.213   5.525
13240SOL     OW41493   8.354   3.940   7.667
13240SOL    HW141494   8.408   3.966   7.592
13240SOL    HW241495   8.269   3.982   7.651
13241SOL     OW41496   3.447  14.164   6.764
13241SOL    HW141497   3.511  14.096   6.782
13241SOL    HW241498   3.382  14.156   6.833
13242SOL     OW41499   3.348   9.612   6.627
13242SOL    HW141500   3.273   9.668   6.606
13242SOL    HW241501   3.314   9.523   6.623
13243SOL     OW41502  10.645   9.077   5.411
13243SOL    HW141503  10.641   9.172   5.408
13243SOL    HW241504  10.555   9.049   5.426
13244SOL     OW41505   7.570   4.703  11.061
13244SOL    HW141506   7.515   4.729  10.987
13244SOL    HW241507   7.654   4.680  11.022
13245SOL     OW41508   1.181   5.860   4.548
13245SOL    HW141509   1.204   5.769   4.526
13245SOL    HW241510   1.097   5.853   4.593
13246SOL     OW41511  11.364   8.494   4.563
13246SOL    HW141512  11.323   8.557   4.622
13246SOL    HW241513  11.449   8.532   4.543
13247SOL     OW41514   0.706  14.459  11.612
13247SOL    HW141515   0.784  14.489  11.659
13247SOL    HW241516   0.727  14.473  11.520
13248SOL     OW41517  13.274   3.468  12.631
13248SOL    HW141518  13.243   3.395  12.684
13248SOL    HW241519  13.365   3.480  12.659
13249SOL     OW41520  11.043   4.493   6.105
13249SOL    HW141521  11.035   4.427   6.036
13249SOL    HW241522  11.002   4.571   6.069
13250SOL     OW41523   0.438   0.490   1.708
13250SOL    HW141524   0.483   0.439   1.640
13250SOL    HW241525   0.475   0.458   1.790
13251SOL     OW41526   9.323   6.765   3.198
13251SOL    HW141527   9.325   6.833   3.132
13251SOL    HW241528   9.415   6.757   3.226
13252SOL     OW41529   1.732   4.922   4.373
13252SOL    HW141530   1.768   5.000   4.331
13252SOL    HW241531   1.807   4.865   4.386
13253SOL     OW41532  12.012   6.337   1.108
13253SOL    HW141533  11.982   6.279   1.038
13253SOL    HW241534  11.983   6.295   1.189
13254SOL     OW41535   7.242  12.765   5.273
13254SOL    HW141536   7.315  12.703   5.273
13254SOL    HW241537   7.282  12.850   5.294
13255SOL     OW41538  14.650  13.441   7.635
13255SOL    HW141539  14.571  13.426   7.687
13255SOL    HW241540  14.696  13.357   7.636
13256SOL     OW41541   9.683   2.477   1.153
13256SOL    HW141542   9.683   2.398   1.208
13256SOL    HW241543   9.615   2.460   1.087
13257SOL     OW41544  13.073   7.687   8.944
13257SOL    HW141545  13.067   7.731   8.860
13257SOL    HW241546  13.107   7.753   9.004
13258SOL     OW41547  12.446   7.726   9.546
13258SOL    HW141548  12.446   7.814   9.509
13258SOL    HW241549  12.497   7.674   9.485
13259SOL     OW41550   6.539   0.887   6.343
13259SOL    HW141551   6.460   0.861   6.296
13259SOL    HW241552   6.541   0.831   6.420
13260SOL     OW41553   1.267  12.169   3.611
13260SOL    HW141554   1.224  12.206   3.689
13260SOL    HW241555   1.352  12.139   3.643
13261SOL     OW41556   3.800  13.493   6.555
13261SOL    HW141557   3.744  13.416   6.570
13261SOL    HW241558   3.751  13.566   6.594
13262SOL     OW41559   8.630   9.409   5.754
13262SOL    HW141560   8.653   9.349   5.683
13262SOL    HW241561   8.550   9.371   5.792
13263SOL     OW41562   0.861  14.528   1.062
13263SOL    HW141563   0.911  14.532   0.981
13263SOL    HW241564   0.838  14.619   1.082
13264SOL     OW41565   1.479   0.885   1.147
13264SOL    HW141566   1.395   0.901   1.190
13264SOL    HW241567   1.511   0.972   1.124
13265SOL     OW41568   4.171   3.238   3.533
13265SOL    HW141569   4.082   3.255   3.502
13265SOL    HW241570   4.202   3.322   3.565
13266SOL     OW41571   7.551   2.280   8.549
13266SOL    HW141572   7.501   2.347   8.502
13266SOL    HW241573   7.642   2.299   8.527
13267SOL     OW41574  12.668   1.378   9.268
13267SOL    HW141575  12.698   1.406   9.355
13267SOL    HW241576  12.732   1.312   9.241
13268SOL     OW41577   4.823  11.058   5.488
13268SOL    HW141578   4.883  10.984   5.490
13268SOL    HW241579   4.749  11.028   5.435
13269SOL     OW41580   6.693   4.275   6.318
13269SOL    HW141581   6.725   4.335   6.251
13269SOL    HW241582   6.675   4.331   6.393
13270SOL     OW41583   5.219  14.028   6.167
13270SOL    HW141584   5.137  14.073   6.148
13270SOL    HW241585   5.204  13.937   6.140
13271SOL     OW41586   3.725   5.792   5.258
13271SOL    HW141587   3.753   5.814   5.169
13271SOL    HW241588   3.792   5.732   5.290
13272SOL     OW41589  12.152   3.243   8.100
13272SOL    HW141590  12.185   3.181   8.165
13272SOL    HW241591  12.060   3.219   8.089
13273SOL     OW41592   5.394  14.614   9.926
13273SOL    HW141593   5.302  14.637   9.936
13273SOL    HW241594   5.409  14.614   9.831
13274SOL     OW41595   8.210  11.235  13.299
13274SOL    HW141596   8.124  11.264  13.329
13274SOL    HW241597   8.191  11.179  13.224
13275SOL     OW41598   7.585   1.314   8.843
13275SOL    HW141599   7.639   1.235   8.840
13275SOL    HW241600   7.496   1.282   8.832
13276SOL     OW41601   2.968   0.139   1.014
13276SOL    HW141602   3.022   0.175   0.944
13276SOL    HW241603   2.912   0.211   1.041
13277SOL     OW41604   5.994   0.188   0.065
13277SOL    HW141605   5.955   0.266   0.105
13277SOL    HW241606   5.921   0.144   0.022
13278SOL     OW41607   4.460  11.816   5.548
13278SOL    HW141608   4.371  11.815   5.512
13278SOL    HW241609   4.512  11.860   5.480
13279SOL     OW41610   2.202   7.366   3.585
13279SOL    HW141611   2.273   7.428   3.567
13279SOL    HW241612   2.239   7.280   3.564
13280SOL     OW41613   0.798   9.294   0.496
13280SOL    HW141614   0.705   9.272   0.502
13280SOL    HW241615   0.824   9.316   0.586
13281SOL     OW41616   3.323  14.274  10.830
13281SOL    HW141617   3.245  14.298  10.780
13281SOL    HW241618   3.372  14.356  10.837
13282SOL     OW41619   5.228   7.872   8.891
13282SOL    HW141620   5.254   7.782   8.908
13282SOL    HW241621   5.302   7.925   8.922
13283SOL     OW41622   3.557   2.020   0.187
13283SOL    HW141623   3.587   1.989   0.273
13283SOL    HW241624   3.461   2.020   0.194
13284SOL     OW41625   5.580   9.885  14.395
13284SOL    HW141626   5.670   9.916  14.382
13284SOL    HW241627   5.551   9.929  14.475
13285SOL     OW41628   7.502   0.082   7.441
13285SOL    HW141629   7.593   0.094   7.467
13285SOL    HW241630   7.505   0.072   7.346
13286SOL     OW41631   2.112  13.220   7.057
13286SOL    HW141632   2.119  13.314   7.037
13286SOL    HW241633   2.157  13.177   6.984
13287SOL     OW41634  14.058   3.563  10.857
13287SOL    HW141635  14.063   3.625  10.784
13287SOL    HW241636  14.010   3.610  10.925
13288SOL     OW41637  13.785   5.233   3.357
13288SOL    HW141638  13.839   5.309   3.338
13288SOL    HW241639  13.735   5.257   3.435
13289SOL     OW41640   6.559   4.730  12.757
13289SOL    HW141641   6.476   4.703  12.718
13289SOL    HW241642   6.534   4.775  12.837
13290SOL     OW41643  12.783   1.735   7.700
13290SOL    HW141644  12.876   1.757   7.703
13290SOL    HW241645  12.742   1.810   7.656
13291SOL     OW41646   8.014   9.976  13.123
13291SOL    HW141647   8.068   9.951  13.049
13291SOL    HW241648   8.056  10.054  13.160
13292SOL     OW41649  10.527   7.700   3.929
13292SOL    HW141650  10.545   7.726   3.838
13292SOL    HW241651  10.432   7.703   3.936
13293SOL     OW41652  13.519  13.251  12.346
13293SOL    HW141653  13.587  13.317  12.341
13293SOL    HW241654  13.508  13.234  12.440
13294SOL     OW41655   6.971   1.563   9.388
13294SOL    HW141656   6.989   1.565   9.482
13294SOL    HW241657   6.894   1.619   9.378
13295SOL     OW41658   5.887   9.250   4.266
13295SOL    HW141659   5.893   9.306   4.189
13295SOL    HW241660   5.978   9.242   4.296
13296SOL     OW41661   3.508   3.808  10.120
13296SOL    HW141662   3.439   3.845  10.174
13296SOL    HW241663   3.470   3.802  10.033
13297SOL     OW41664  10.286  14.317   2.561
13297SOL    HW141665  10.324  14.398   2.595
13297SOL    HW241666  10.200  14.311   2.602
13298SOL     OW41667  14.703   2.164  13.025
13298SOL    HW141668  14.775   2.227  13.034
13298SOL    HW241669  14.745   2.079  13.026
13299SOL     OW41670  13.214   4.074   4.293
13299SOL    HW141671  13.215   4.116   4.379
13299SOL    HW241672  13.238   4.144   4.233
13300SOL     OW41673  14.193   3.238   0.987
13300SOL    HW141674  14.224   3.276   0.905
13300SOL    HW241675  14.132   3.303   1.022
13301SOL     OW41676   7.040   6.922   9.489
13301SOL    HW141677   6.979   6.876   9.431
13301SOL    HW241678   7.107   6.857   9.510
13302SOL     OW41679  13.357   9.041   9.909
13302SOL    HW141680  13.354   8.953   9.871
13302SOL    HW241681  13.297   9.037   9.984
13303SOL     OW41682   6.374  10.708   4.222
13303SOL    HW141683   6.306  10.667   4.275
13303SOL    HW241684   6.353  10.801   4.224
13304SOL     OW41685   5.088  14.052   5.820
13304SOL    HW141686   4.993  14.038   5.827
13304SOL    HW241687   5.104  14.130   5.874
13305SOL     OW41688  14.080   5.582  12.831
13305SOL    HW141689  14.045   5.493  12.819
13305SOL    HW241690  14.159   5.584  12.777
13306SOL     OW41691   3.480  10.525  13.837
13306SOL    HW141692   3.391  10.496  13.818
13306SOL    HW241693   3.526  10.515  13.754
13307SOL     OW41694  12.507  14.223  12.152
13307SOL    HW141695  12.455  14.285  12.203
13307SOL    HW241696  12.575  14.277  12.112
13308SOL     OW41697  10.442   1.270   5.082
13308SOL    HW141698  10.467   1.210   5.152
13308SOL    HW241699  10.351   1.292   5.101
13309SOL     OW41700   3.235  12.351   2.381
13309SOL    HW141701   3.259  12.371   2.290
13309SOL    HW241702   3.139  12.351   2.380
13310SOL     OW41703   9.688  13.429  11.644
13310SOL    HW141704   9.669  13.405  11.734
13310SOL    HW241705   9.762  13.373  11.619
13311SOL     OW41706   4.734  12.749   0.619
13311SOL    HW141707   4.650  12.713   0.646
13311SOL    HW241708   4.714  12.837   0.587
13312SOL     OW41709   4.234  13.801   2.232
13312SOL    HW141710   4.248  13.819   2.325
13312SOL    HW241711   4.177  13.872   2.203
13313SOL     OW41712   1.513   3.348   2.818
13313SOL    HW141713   1.538   3.307   2.901
13313SOL    HW241714   1.417   3.349   2.820
13314SOL     OW41715   9.409   4.387   0.242
13314SOL    HW141716   9.326   4.434   0.244
13314SOL    HW241717   9.463   4.436   0.179
13315SOL     OW41718   5.454   0.393  11.627
13315SOL    HW141719   5.439   0.448  11.550
13315SOL    HW241720   5.486   0.454  11.693
13316SOL     OW41721  10.991   3.713   5.658
13316SOL    HW141722  11.001   3.734   5.565
13316SOL    HW241723  11.079   3.722   5.695
13317SOL     OW41724   8.486  12.457  14.094
13317SOL    HW141725   8.426  12.406  14.149
13317SOL    HW241726   8.561  12.399  14.080
13318SOL     OW41727   8.633  12.948  12.562
13318SOL    HW141728   8.598  12.868  12.522
13318SOL    HW241729   8.576  13.018  12.530
13319SOL     OW41730  14.734  12.949  14.780
13319SOL    HW141731  14.770  12.867  14.815
13319SOL    HW241732  14.709  12.999  14.858
13320SOL     OW41733   5.375   9.763   6.164
13320SOL    HW141734   5.302   9.702   6.171
13320SOL    HW241735   5.420   9.736   6.084
13321SOL     OW41736   3.456   9.843   1.608
13321SOL    HW141737   3.377   9.890   1.635
13321SOL    HW241738   3.522   9.869   1.672
13322SOL     OW41739   4.928   0.672   3.067
13322SOL    HW141740   4.923   0.719   3.151
13322SOL    HW241741   5.015   0.634   3.067
13323SOL     OW41742  13.872   2.278   2.813
13323SOL    HW141743  13.965   2.291   2.832
13323SOL    HW241744  13.855   2.332   2.736
13324SOL     OW41745   5.094  13.797   9.581
13324SOL    HW141746   5.101  13.882   9.625
13324SOL    HW241747   5.145  13.809   9.500
13325SOL     OW41748   3.114   6.977  14.872
13325SOL    HW141749   3.193   6.986  14.819
13325SOL    HW241750   3.057   7.048  14.844
13326SOL     OW41751   6.705  13.486   8.583
13326SOL    HW141752   6.759  13.413   8.553
13326SOL    HW241753   6.662  13.454   8.662
13327SOL     OW41754   7.243   1.550  11.837
13327SOL    HW141755   7.263   1.644  11.829
13327SOL    HW241756   7.166   1.538  11.782
13328SOL     OW41757   1.588  10.997  14.215
13328SOL    HW141758   1.574  11.011  14.308
13328SOL    HW241759   1.674  11.036  14.197
13329SOL     OW41760   3.696   4.112   0.822
13329SOL    HW141761   3.707   4.107   0.917
13329SOL    HW241762   3.715   4.024   0.791
13330SOL     OW41763   4.047   0.956  10.769
13330SOL    HW141764   3.986   0.891  10.733
13330SOL    HW241765   3.994   1.035  10.780
13331SOL     OW41766  14.253  10.247   1.019
13331SOL    HW141767  14.197  10.284   1.088
13331SOL    HW241768  14.278  10.161   1.053
13332SOL     OW41769   4.976   2.506  11.113
13332SOL    HW141770   4.913   2.443  11.077
13332SOL    HW241771   5.055   2.454  11.129
13333SOL     OW41772  13.373   2.710  14.586
13333SOL    HW141773  13.412   2.630  14.622
13333SOL    HW241774  13.437   2.741  14.521
13334SOL     OW41775   7.855   7.886   8.624
13334SOL    HW141776   7.929   7.829   8.603
13334SOL    HW241777   7.789   7.828   8.661
13335SOL     OW41778  12.324   0.488   2.281
13335SOL    HW141779  12.366   0.569   2.311
13335SOL    HW241780  12.251   0.518   2.227
13336SOL     OW41781   9.342   3.445   8.188
13336SOL    HW141782   9.365   3.355   8.165
13336SOL    HW241783   9.399   3.499   8.134
13337SOL     OW41784   1.943  14.104  11.399
13337SOL    HW141785   1.848  14.100  11.391
13337SOL    HW241786   1.965  14.039  11.466
13338SOL     OW41787  13.565   5.143   9.282
13338SOL    HW141788  13.645   5.196   9.281
13338SOL    HW241789  13.506   5.187   9.222
13339SOL     OW41790   5.139   5.168   2.343
13339SOL    HW141791   5.181   5.255   2.349
13339SOL    HW241792   5.180   5.127   2.267
13340SOL     OW41793   0.056   9.839   7.679
13340SOL    HW141794   0.070   9.792   7.597
13340SOL    HW241795   0.141   9.879   7.698
13341SOL     OW41796   6.842   8.177  11.417
13341SOL    HW141797   6.854   8.271  11.407
13341SOL    HW241798   6.928   8.143  11.440
13342SOL     OW41799   1.741   5.884  11.836
13342SOL    HW141800   1.799   5.817  11.800
13342SOL    HW241801   1.737   5.863  11.930
13343SOL     OW41802   1.337  14.612   3.070
13343SOL    HW141803   1.243  14.609   3.052
13343SOL    HW241804   1.367  14.695   3.033
13344SOL     OW41805  11.702   6.331   5.107
13344SOL    HW141806  11.645   6.314   5.032
13344SOL    HW241807  11.654   6.394   5.160
13345SOL     OW41808   8.438   4.653   2.135
13345SOL    HW141809   8.426   4.743   2.167
13345SOL    HW241810   8.394   4.652   2.050
13346SOL     OW41811   3.856   7.955   8.841
13346SOL    HW141812   3.894   7.951   8.753
13346SOL    HW241813   3.916   7.903   8.895
13347SOL     OW41814   3.202  10.747  13.298
13347SOL    HW141815   3.241  10.821  13.345
13347SOL    HW241816   3.181  10.782  13.211
13348SOL     OW41817   0.727   8.774   2.757
13348SOL    HW141818   0.779   8.781   2.677
13348SOL    HW241819   0.669   8.700   2.741
13349SOL     OW41820  11.898  13.233  14.600
13349SOL    HW141821  11.870  13.160  14.656
13349SOL    HW241822  11.892  13.310  14.656
13350SOL     OW41823   5.475  10.199   2.616
13350SOL    HW141824   5.393  10.151   2.605
13350SOL    HW241825   5.460  10.282   2.570
13351SOL     OW41826   2.658   7.722   0.438
13351SOL    HW141827   2.743   7.756   0.467
13351SOL    HW241828   2.679   7.655   0.374
13352SOL     OW41829   7.166  10.179   3.931
13352SOL    HW141830   7.258  10.154   3.917
13352SOL    HW241831   7.146  10.145   4.019
13353SOL     OW41832   9.165  11.098   6.473
13353SOL    HW141833   9.255  11.077   6.447
13353SOL    HW241834   9.160  11.193   6.467
13354SOL     OW41835   0.188  10.838   1.570
13354SOL    HW141836   0.184  10.748   1.538
13354SOL    HW241837   0.168  10.832   1.663
13355SOL     OW41838   4.084   6.385   0.215
13355SOL    HW141839   4.107   6.407   0.125
13355SOL    HW241840   4.012   6.323   0.206
13356SOL     OW41841  13.018   9.809  14.472
13356SOL    HW141842  13.064   9.863  14.536
13356SOL    HW241843  13.064   9.725  14.475
13357SOL     OW41844   7.517   2.044   7.551
13357SOL    HW141845   7.499   1.959   7.510
13357SOL    HW241846   7.436   2.093   7.543
13358SOL     OW41847  11.833   1.952  13.006
13358SOL    HW141848  11.738   1.944  13.000
13358SOL    HW241849  11.864   1.943  12.916
13359SOL     OW41850   4.544  13.918   6.232
13359SOL    HW141851   4.506  13.896   6.316
13359SOL    HW241852   4.602  13.845   6.212
13360SOL     OW41853   6.330   8.548  14.152
13360SOL    HW141854   6.325   8.628  14.204
13360SOL    HW241855   6.283   8.568  14.072
13361SOL     OW41856   0.892  14.108   8.220
13361SOL    HW141857   0.907  14.048   8.294
13361SOL    HW241858   0.893  14.051   8.143
13362SOL     OW41859  12.809  10.875   1.589
13362SOL    HW141860  12.716  10.868   1.568
13362SOL    HW241861  12.817  10.840   1.677
13363SOL     OW41862  14.727   8.552   2.986
13363SOL    HW141863  14.678   8.590   3.059
13363SOL    HW241864  14.666   8.491   2.945
13364SOL     OW41865   4.296  12.676   2.561
13364SOL    HW141866   4.313  12.769   2.576
13364SOL    HW241867   4.251  12.647   2.640
13365SOL     OW41868   7.370  13.884   9.090
13365SOL    HW141869   7.412  13.916   9.010
13365SOL    HW241870   7.277  13.879   9.068
13366SOL     OW41871   4.183  10.491   2.852
13366SOL    HW141872   4.141  10.522   2.771
13366SOL    HW241873   4.227  10.410   2.826
13367SOL     OW41874  11.795   3.345   1.324
13367SOL    HW141875  11.745   3.390   1.391
13367SOL    HW241876  11.811   3.258   1.359
13368SOL     OW41877   3.232  14.020  11.018
13368SOL    HW141878   3.212  14.113  11.023
13368SOL    HW241879   3.299  14.007  11.086
13369SOL     OW41880   4.568   0.708  12.989
13369SOL    HW141881   4.639   0.770  13.004
13369SOL    HW241882   4.517   0.747  12.918
13370SOL     OW41883   5.342   3.711  10.193
13370SOL    HW141884   5.385   3.721  10.108
13370SOL    HW241885   5.365   3.622  10.221
13371SOL     OW41886   0.305   7.900   8.536
13371SOL    HW141887   0.329   7.940   8.452
13371SOL    HW241888   0.209   7.897   8.534
13372SOL     OW41889   5.392  12.321  11.115
13372SOL    HW141890   5.348  12.265  11.179
13372SOL    HW241891   5.470  12.272  11.090
13373SOL     OW41892   7.723   5.290  14.180
13373SOL    HW141893   7.790   5.296  14.248
13373SOL    HW241894   7.698   5.197  14.180
13374SOL     OW41895  11.098   4.804  12.434
13374SOL    HW141896  11.054   4.884  12.405
13374SOL    HW241897  11.181   4.834  12.470
13375SOL     OW41898  13.170   4.997  14.584
13375SOL    HW141899  13.140   4.912  14.616
13375SOL    HW241900  13.178   5.052  14.662
13376SOL     OW41901  13.248  12.363  13.776
13376SOL    HW141902  13.342  12.362  13.796
13376SOL    HW241903  13.234  12.289  13.718
13377SOL     OW41904  13.889  10.146   9.737
13377SOL    HW141905  13.847  10.061   9.725
13377SOL    HW241906  13.857  10.177   9.822
13378SOL     OW41907  12.480   0.900   9.889
13378SOL    HW141908  12.443   0.873   9.973
13378SOL    HW241909  12.504   0.818   9.845
13379SOL     OW41910   3.832   9.321   9.443
13379SOL    HW141911   3.830   9.416   9.429
13379SOL    HW241912   3.913   9.305   9.491
13380SOL     OW41913  10.015   1.503   7.472
13380SOL    HW141914   9.994   1.462   7.388
13380SOL    HW241915  10.107   1.483   7.487
13381SOL     OW41916   0.972   8.233   5.732
13381SOL    HW141917   0.894   8.280   5.704
13381SOL    HW241918   0.954   8.141   5.711
13382SOL     OW41919  13.220  11.855   9.448
13382SOL    HW141920  13.200  11.849   9.355
13382SOL    HW241921  13.282  11.784   9.464
13383SOL     OW41922   1.408   6.599   9.904
13383SOL    HW141923   1.369   6.683   9.878
13383SOL    HW241924   1.370   6.580   9.989
13384SOL     OW41925   0.200   8.942  12.659
13384SOL    HW141926   0.160   8.859  12.632
13384SOL    HW241927   0.129   9.006  12.652
13385SOL     OW41928  12.580  11.174  12.684
13385SOL    HW141929  12.529  11.255  12.687
13385SOL    HW241930  12.533  11.114  12.740
13386SOL     OW41931  14.406   8.874  12.605
13386SOL    HW141932  14.378   8.819  12.532
13386SOL    HW241933  14.499   8.888  12.590
13387SOL     OW41934   4.609   7.180  10.136
13387SOL    HW141935   4.565   7.126  10.070
13387SOL    HW241936   4.702   7.157  10.128
13388SOL     OW41937   2.494  12.949  14.501
13388SOL    HW141938   2.483  12.859  14.471
13388SOL    HW241939   2.588  12.960  14.513
13389SOL     OW41940  10.540   3.172   2.542
13389SOL    HW141941  10.568   3.132   2.625
13389SOL    HW241942  10.585   3.122   2.474
13390SOL     OW41943  12.171  13.541   1.448
13390SOL    HW141944  12.215  13.588   1.519
13390SOL    HW241945  12.159  13.607   1.379
13391SOL     OW41946   8.615   5.853   2.896
13391SOL    HW141947   8.566   5.910   2.956
13391SOL    HW241948   8.696   5.901   2.879
13392SOL     OW41949  11.734  12.721  10.676
13392SOL    HW141950  11.782  12.646  10.638
13392SOL    HW241951  11.648  12.685  10.699
13393SOL     OW41952   1.851   9.542   9.490
13393SOL    HW141953   1.895   9.457   9.479
13393SOL    HW241954   1.923   9.604   9.502
13394SOL     OW41955   9.655   4.492   1.983
13394SOL    HW141956   9.635   4.427   2.051
13394SOL    HW241957   9.739   4.528   2.011
13395SOL     OW41958   5.085   9.554   0.580
13395SOL    HW141959   5.115   9.601   0.658
13395SOL    HW241960   5.164   9.513   0.545
13396SOL     OW41961   4.966   7.180   1.974
13396SOL    HW141962   4.889   7.152   1.925
13396SOL    HW241963   5.032   7.198   1.907
13397SOL     OW41964  12.962  11.888   2.723
13397SOL    HW141965  13.055  11.871   2.735
13397SOL    HW241966  12.955  11.920   2.633
13398SOL     OW41967   3.417   7.287  14.146
13398SOL    HW141968   3.325   7.286  14.120
13398SOL    HW241969   3.439   7.194  14.159
13399SOL     OW41970   1.696   2.036   5.898
13399SOL    HW141971   1.624   2.032   5.835
13399SOL    HW241972   1.652   2.054   5.982
13400SOL     OW41973  13.477   9.767  12.241
13400SOL    HW141974  13.549   9.787  12.301
13400SOL    HW241975  13.463   9.848  12.192
13401SOL     OW41976  12.453   2.655   3.425
13401SOL    HW141977  12.531   2.672   3.372
13401SOL    HW241978  12.435   2.561   3.413
13402SOL     OW41979   4.551  10.561  11.884
13402SOL    HW141980   4.515  10.516  11.960
13402SOL    HW241981   4.481  10.621  11.856
13403SOL     OW41982  14.388   4.372   6.683
13403SOL    HW141983  14.459   4.309   6.667
13403SOL    HW241984  14.432   4.457   6.689
13404SOL     OW41985  13.965  10.627   8.624
13404SOL    HW141986  13.932  10.590   8.542
13404SOL    HW241987  14.048  10.669   8.600
13405SOL     OW41988   6.820  12.396   1.486
13405SOL    HW141989   6.798  12.328   1.550
13405SOL    HW241990   6.910  12.376   1.459
13406SOL     OW41991   7.963  12.516   4.806
13406SOL    HW141992   7.974  12.572   4.882
13406SOL    HW241993   8.035  12.540   4.748
13407SOL     OW41994   9.439  10.636   0.877
13407SOL    HW141995   9.464  10.662   0.966
13407SOL    HW241996   9.395  10.713   0.841
13408SOL     OW41997   2.930   1.878   6.928
13408SOL    HW141998   2.973   1.960   6.903
13408SOL    HW241999   2.837   1.897   6.921
13409SOL     OW42000   5.991   2.892   5.184
13409SOL    HW142001   6.077   2.897   5.226
13409SOL    HW242002   5.987   2.803   5.149
13410SOL     OW42003  14.416   4.016  10.706
13410SOL    HW142004  14.377   4.029  10.620
13410SOL    HW242005  14.463   3.933  10.699
13411SOL     OW42006   4.367   3.312  13.789
13411SOL    HW142007   4.319   3.296  13.871
13411SOL    HW242008   4.316   3.265  13.723
13412SOL     OW42009  14.245   2.487   7.915
13412SOL    HW142010  14.317   2.459   7.859
13412SOL    HW242011  14.286   2.516   7.996
13413SOL     OW42012   6.591  12.904   4.041
13413SOL    HW142013   6.653  12.931   4.109
13413SOL    HW242014   6.616  12.956   3.964
13414SOL     OW42015  12.373   9.688   1.354
13414SOL    HW142016  12.359   9.678   1.260
13414SOL    HW242017  12.298   9.741   1.384
13415SOL     OW42018   3.389   1.712   3.328
13415SOL    HW142019   3.359   1.796   3.362
13415SOL    HW242020   3.367   1.715   3.235
13416SOL     OW42021   9.079   8.884   5.480
13416SOL    HW142022   9.124   8.803   5.460
13416SOL    HW242023   9.007   8.888   5.417
13417SOL     OW42024   0.481   3.859   7.582
13417SOL    HW142025   0.564   3.904   7.602
13417SOL    HW242026   0.500   3.767   7.600
13418SOL     OW42027  13.997  13.842   0.996
13418SOL    HW142028  14.065  13.909   0.998
13418SOL    HW242029  13.962  13.846   0.907
13419SOL     OW42030   7.253   1.557   3.613
13419SOL    HW142031   7.165   1.594   3.612
13419SOL    HW242032   7.290   1.584   3.698
13420SOL     OW42033   5.164   1.206   5.708
13420SOL    HW142034   5.106   1.214   5.784
13420SOL    HW242035   5.212   1.124   5.723
13421SOL     OW42036   6.091   3.800   2.754
13421SOL    HW142037   6.137   3.876   2.790
13421SOL    HW242038   6.045   3.762   2.829
13422SOL     OW42039   8.800   3.424   3.220
13422SOL    HW142040   8.739   3.362   3.261
13422SOL    HW242041   8.866   3.369   3.179
13423SOL     OW42042   7.686  11.013   8.383
13423SOL    HW142043   7.720  11.095   8.347
13423SOL    HW242044   7.760  10.975   8.430
13424SOL     OW42045  11.859   8.971  12.547
13424SOL    HW142046  11.927   8.985  12.613
13424SOL    HW242047  11.887   9.022  12.471
13425SOL     OW42048   1.006   6.857   3.141
13425SOL    HW142049   1.074   6.920   3.162
13425SOL    HW242050   1.030   6.778   3.189
13426SOL     OW42051   5.758   6.355  14.553
13426SOL    HW142052   5.780   6.270  14.514
13426SOL    HW242053   5.664   6.351  14.569
13427SOL     OW42054   4.090  12.121   1.950
13427SOL    HW142055   4.124  12.077   2.028
13427SOL    HW242056   4.090  12.214   1.973
13428SOL     OW42057   1.044   7.231   8.219
13428SOL    HW142058   1.018   7.141   8.240
13428SOL    HW242059   1.031   7.279   8.301
13429SOL     OW42060   3.902  12.654  10.386
13429SOL    HW142061   3.935  12.575  10.342
13429SOL    HW242062   3.808  12.638  10.396
13430SOL     OW42063  11.647   6.396   3.500
13430SOL    HW142064  11.647   6.301   3.503
13430SOL    HW242065  11.607   6.417   3.415
13431SOL     OW42066   1.101   9.300  12.864
13431SOL    HW142067   1.166   9.240  12.827
13431SOL    HW242068   1.154   9.366  12.910
13432SOL     OW42069   9.223   7.129  13.960
13432SOL    HW142070   9.150   7.071  13.984
13432SOL    HW242071   9.294   7.103  14.018
13433SOL     OW42072   8.835   5.659   4.595
13433SOL    HW142073   8.925   5.682   4.617
13433SOL    HW242074   8.841   5.610   4.513
13434SOL     OW42075   5.263  10.335  11.090
13434SOL    HW142076   5.326  10.376  11.149
13434SOL    HW242077   5.193  10.400  11.081
13435SOL     OW42078  13.937   6.536   5.604
13435SOL    HW142079  13.914   6.628   5.611
13435SOL    HW242080  13.853   6.490   5.612
13436SOL     OW42081   3.087   2.896   1.028
13436SOL    HW142082   3.100   2.819   1.085
13436SOL    HW242083   2.993   2.898   1.011
13437SOL     OW42084   0.295  11.431  13.084
13437SOL    HW142085   0.284  11.338  13.063
13437SOL    HW242086   0.344  11.431  13.166
13438SOL     OW42087   2.897   4.264  12.682
13438SOL    HW142088   2.839   4.196  12.715
13438SOL    HW242089   2.842   4.342  12.675
13439SOL     OW42090   3.979   8.512  10.700
13439SOL    HW142091   4.064   8.517  10.743
13439SOL    HW242092   3.916   8.531  10.769
13440SOL     OW42093   8.452   2.345   7.845
13440SOL    HW142094   8.417   2.382   7.926
13440SOL    HW242095   8.462   2.252   7.864
13441SOL     OW42096  13.716   2.272  11.767
13441SOL    HW142097  13.642   2.331  11.772
13441SOL    HW242098  13.791   2.325  11.795
13442SOL     OW42099   4.641   9.231  10.753
13442SOL    HW142100   4.571   9.167  10.768
13442SOL    HW242101   4.710   9.205  10.815
13443SOL     OW42102   3.694  10.662   7.313
13443SOL    HW142103   3.684  10.612   7.232
13443SOL    HW242104   3.637  10.616   7.375
13444SOL     OW42105   4.745   7.553  12.404
13444SOL    HW142106   4.705   7.505  12.332
13444SOL    HW242107   4.681   7.548  12.475
13445SOL     OW42108   9.983   1.586  13.280
13445SOL    HW142109   9.973   1.678  13.254
13445SOL    HW242110   9.923   1.538  13.222
13446SOL     OW42111   4.140   5.163   1.181
13446SOL    HW142112   4.193   5.149   1.103
13446SOL    HW242113   4.093   5.080   1.192
13447SOL     OW42114   3.865   2.384   4.914
13447SOL    HW142115   3.924   2.421   4.981
13447SOL    HW242116   3.881   2.438   4.837
13448SOL     OW42117   9.620   0.804   1.208
13448SOL    HW142118   9.585   0.884   1.170
13448SOL    HW242119   9.643   0.829   1.298
13449SOL     OW42120  12.625   6.076   8.687
13449SOL    HW142121  12.671   6.008   8.637
13449SOL    HW242122  12.589   6.134   8.620
13450SOL     OW42123   4.405   4.335  14.568
13450SOL    HW142124   4.338   4.286  14.521
13450SOL    HW242125   4.468   4.269  14.596
13451SOL     OW42126   6.516   0.947   4.765
13451SOL    HW142127   6.512   1.041   4.781
13451SOL    HW242128   6.425   0.920   4.757
13452SOL     OW42129  10.277   2.743   4.422
13452SOL    HW142130  10.255   2.791   4.502
13452SOL    HW242131  10.350   2.792   4.384
13453SOL     OW42132  12.058   4.049   5.312
13453SOL    HW142133  12.105   4.127   5.340
13453SOL    HW242134  11.973   4.055   5.355
13454SOL     OW42135   5.563   3.609   2.021
13454SOL    HW142136   5.629   3.646   2.080
13454SOL    HW242137   5.504   3.561   2.079
13455SOL     OW42138   7.989   7.435   1.005
13455SOL    HW142139   7.987   7.488   0.925
13455SOL    HW242140   8.063   7.469   1.055
13456SOL     OW42141   5.880   8.665  10.492
13456SOL    HW142142   5.923   8.584  10.466
13456SOL    HW242143   5.799   8.667  10.441
13457SOL     OW42144   0.988  13.895  11.812
13457SOL    HW142145   1.083  13.905  11.799
13457SOL    HW242146   0.969  13.808  11.779
13458SOL     OW42147   3.765   3.241  12.441
13458SOL    HW142148   3.722   3.325  12.424
13458SOL    HW242149   3.858   3.259  12.429
13459SOL     OW42150   7.435   1.223   2.574
13459SOL    HW142151   7.361   1.164   2.563
13459SOL    HW242152   7.416   1.296   2.515
13460SOL     OW42153  12.431   7.679   8.768
13460SOL    HW142154  12.517   7.671   8.810
13460SOL    HW242155  12.415   7.774   8.764
13461SOL     OW42156   5.583   5.657   8.373
13461SOL    HW142157   5.619   5.584   8.322
13461SOL    HW242158   5.654   5.721   8.375
13462SOL     OW42159   2.540   0.142   5.298
13462SOL    HW142160   2.515   0.232   5.316
13462SOL    HW242161   2.573   0.110   5.382
13463SOL     OW42162   8.551   9.903   9.501
13463SOL    HW142163   8.624   9.941   9.452
13463SOL    HW242164   8.580   9.815   9.524
13464SOL     OW42165  14.616   6.540  12.325
13464SOL    HW142166  14.568   6.620  12.347
13464SOL    HW242167  14.549   6.478  12.298
13465SOL     OW42168  14.417  10.610   9.382
13465SOL    HW142169  14.503  10.632   9.418
13465SOL    HW242170  14.430  10.612   9.288
13466SOL     OW42171   4.945   3.454  14.162
13466SOL    HW142172   5.005   3.528  14.152
13466SOL    HW242173   4.989   3.380  14.120
13467SOL     OW42174  12.507   1.967   6.516
13467SOL    HW142175  12.455   1.958   6.436
13467SOL    HW242176  12.565   2.042   6.499
13468SOL     OW42177  14.174   8.019   4.140
13468SOL    HW142178  14.101   7.993   4.084
13468SOL    HW242179  14.248   8.030   4.080
13469SOL     OW42180  13.554  12.733  12.641
13469SOL    HW142181  13.589  12.814  12.606
13469SOL    HW242182  13.612  12.665  12.607
13470SOL     OW42183  14.564  10.201  10.784
13470SOL    HW142184  14.589  10.173  10.696
13470SOL    HW242185  14.642  10.185  10.838
13471SOL     OW42186   9.125  10.103   6.094
13471SOL    HW142187   9.074  10.182   6.111
13471SOL    HW242188   9.060  10.035   6.076
13472SOL     OW42189   3.657  12.776   6.099
13472SOL    HW142190   3.751  12.787   6.085
13472SOL    HW242191   3.650  12.713   6.171
13473SOL     OW42192   5.931   9.422  13.357
13473SOL    HW142193   5.910   9.383  13.443
13473SOL    HW242194   6.011   9.472  13.373
13474SOL     OW42195   1.921   9.000   6.322
13474SOL    HW142196   1.970   8.924   6.291
13474SOL    HW242197   1.880   9.037   6.244
13475SOL     OW42198   1.767  12.757   4.456
13475SOL    HW142199   1.791  12.718   4.540
13475SOL    HW242200   1.827  12.831   4.447
13476SOL     OW42201  12.009   9.124   3.904
13476SOL    HW142202  11.954   9.069   3.849
13476SOL    HW242203  12.019   9.074   3.985
13477SOL     OW42204  11.002   6.936   7.677
13477SOL    HW142205  10.916   6.965   7.644
13477SOL    HW242206  11.060   7.011   7.660
13478SOL     OW42207  14.577  13.945  11.854
13478SOL    HW142208  14.544  13.991  11.776
13478SOL    HW242209  14.671  13.966  11.856
13479SOL     OW42210  10.091  13.299  11.287
13479SOL    HW142211  10.161  13.309  11.223
13479SOL    HW242212  10.132  13.319  11.371
13480SOL     OW42213   6.679   6.908   5.369
13480SOL    HW142214   6.682   6.813   5.361
13480SOL    HW242215   6.744   6.929   5.436
13481SOL     OW42216   3.860  13.090  10.461
13481SOL    HW142217   3.948  13.054  10.460
13481SOL    HW242218   3.818  13.055  10.382
13482SOL     OW42219   4.018  14.069  12.059
13482SOL    HW142220   4.025  14.120  11.978
13482SOL    HW242221   3.929  14.087  12.090
13483SOL     OW42222  14.183  14.532  10.025
13483SOL    HW142223  14.201  14.620   9.991
13483SOL    HW242224  14.172  14.545  10.119
13484SOL     OW42225   2.960  13.600   9.162
13484SOL    HW142226   2.996  13.597   9.074
13484SOL    HW242227   3.009  13.533   9.211
13485SOL     OW42228   2.685  11.894  11.145
13485SOL    HW142229   2.631  11.921  11.219
13485SOL    HW242230   2.697  11.800  11.157
13486SOL     OW42231   3.016   8.921  14.474
13486SOL    HW142232   3.095   8.888  14.516
13486SOL    HW242233   3.019   8.886  14.385
13487SOL     OW42234   8.392   2.403   9.358
13487SOL    HW142235   8.343   2.482   9.381
13487SOL    HW242236   8.326   2.335   9.346
13488SOL     OW42237   1.372   8.248  13.795
13488SOL    HW142238   1.371   8.260  13.700
13488SOL    HW242239   1.433   8.175  13.809
13489SOL     OW42240  10.380  10.078   8.520
13489SOL    HW142241  10.329  10.159   8.523
13489SOL    HW242242  10.340  10.022   8.587
13490SOL     OW42243  12.406  10.569   4.563
13490SOL    HW142244  12.350  10.511   4.614
13490SOL    HW242245  12.464  10.610   4.627
13491SOL     OW42246  12.066   1.674   0.169
13491SOL    HW142247  11.980   1.716   0.177
13491SOL    HW242248  12.082   1.670   0.075
13492SOL     OW42249   7.349  10.332   8.570
13492SOL    HW142250   7.443  10.316   8.572
13492SOL    HW242251   7.329  10.348   8.478
13493SOL     OW42252   4.360   2.426  11.317
13493SOL    HW142253   4.370   2.341  11.361
13493SOL    HW242254   4.433   2.478  11.350
13494SOL     OW42255  12.795   5.124   2.441
13494SOL    HW142256  12.821   5.106   2.350
13494SOL    HW242257  12.877   5.140   2.487
13495SOL     OW42258  10.614   6.815   4.479
13495SOL    HW142259  10.662   6.820   4.397
13495SOL    HW242260  10.542   6.877   4.469
13496SOL     OW42261   9.568   1.346  11.688
13496SOL    HW142262   9.607   1.370  11.603
13496SOL    HW242263   9.476   1.370  11.680
13497SOL     OW42264   7.936  12.598   2.473
13497SOL    HW142265   7.861  12.646   2.511
13497SOL    HW242266   7.957  12.647   2.393
13498SOL     OW42267  12.210   3.787   4.145
13498SOL    HW142268  12.177   3.700   4.168
13498SOL    HW242269  12.236   3.779   4.053
13499SOL     OW42270  11.157   0.446   0.960
13499SOL    HW142271  11.122   0.533   0.980
13499SOL    HW242272  11.252   0.457   0.959
13500SOL     OW42273  13.255   1.623   1.122
13500SOL    HW142274  13.304   1.651   1.199
13500SOL    HW242275  13.258   1.528   1.125
13501SOL     OW42276  10.783   8.000  14.328
13501SOL    HW142277  10.809   7.982  14.237
13501SOL    HW242278  10.717   7.934  14.348
13502SOL     OW42279  12.041   1.912  13.480
13502SOL    HW142280  12.035   1.838  13.418
13502SOL    HW242281  12.076   1.984  13.427
13503SOL     OW42282   6.512   2.956   9.129
13503SOL    HW142283   6.456   2.942   9.053
13503SOL    HW242284   6.503   3.049   9.148
13504SOL     OW42285  13.972   8.830   5.308
13504SOL    HW142286  14.021   8.912   5.302
13504SOL    HW242287  13.998   8.793   5.393
13505SOL     OW42288  13.530   6.244   3.267
13505SOL    HW142289  13.625   6.252   3.274
13505SOL    HW242290  13.501   6.218   3.354
13506SOL     OW42291  13.624   5.140   9.701
13506SOL    HW142292  13.579   5.070   9.654
13506SOL    HW242293  13.717   5.125   9.682
13507SOL     OW42294   0.538  11.856  14.666
13507SOL    HW142295   0.524  11.862  14.572
13507SOL    HW242296   0.611  11.795  14.676
13508SOL     OW42297   1.146   5.132   0.557
13508SOL    HW142298   1.053   5.113   0.560
13508SOL    HW242299   1.170   5.148   0.649
13509SOL     OW42300   2.224   4.416   8.162
13509SOL    HW142301   2.134   4.412   8.195
13509SOL    HW242302   2.253   4.325   8.160
13510SOL     OW42303  12.200  14.790   9.226
13510SOL    HW142304  12.105  14.791   9.211
13510SOL    HW242305  12.211  14.827   9.313
13511SOL     OW42306  14.442   8.662   8.767
13511SOL    HW142307  14.476   8.604   8.698
13511SOL    HW242308  14.348   8.644   8.768
13512SOL     OW42309  14.291  10.451   9.724
13512SOL    HW142310  14.205  10.447   9.682
13512SOL    HW242311  14.335  10.526   9.684
13513SOL     OW42312  10.779   2.338   4.310
13513SOL    HW142313  10.818   2.418   4.345
13513SOL    HW242314  10.811   2.334   4.219
13514SOL     OW42315   6.114   1.010   9.904
13514SOL    HW142316   6.062   1.001   9.983
13514SOL    HW242317   6.203   1.022   9.935
13515SOL     OW42318  10.811  14.725  13.872
13515SOL    HW142319  10.799  14.803  13.817
13515SOL    HW242320  10.824  14.654  13.809
13516SOL     OW42321   7.536   5.619   1.960
13516SOL    HW142322   7.446   5.634   1.931
13516SOL    HW242323   7.589   5.631   1.882
13517SOL     OW42324  14.183   2.367   9.405
13517SOL    HW142325  14.243   2.441   9.389
13517SOL    HW242326  14.099   2.396   9.369
13518SOL     OW42327  12.797   6.531  12.791
13518SOL    HW142328  12.742   6.511  12.716
13518SOL    HW242329  12.780   6.623  12.810
13519SOL     OW42330   4.344   7.694   6.439
13519SOL    HW142331   4.392   7.648   6.371
13519SOL    HW242332   4.252   7.677   6.419
13520SOL     OW42333  14.210   8.133   9.105
13520SOL    HW142334  14.166   8.118   9.188
13520SOL    HW242335  14.144   8.111   9.038
13521SOL     OW42336  10.591   5.123  11.314
13521SOL    HW142337  10.504   5.162  11.319
13521SOL    HW242338  10.580   5.036  11.353
13522SOL     OW42339   9.667   9.454   9.348
13522SOL    HW142340   9.611   9.466   9.425
13522SOL    HW242341   9.704   9.366   9.359
13523SOL     OW42342  14.255  12.267  10.488
13523SOL    HW142343  14.196  12.232  10.421
13523SOL    HW242344  14.261  12.361  10.468
13524SOL     OW42345   8.370  12.564   5.525
13524SOL    HW142346   8.441  12.624   5.503
13524SOL    HW242347   8.413  12.478   5.531
13525SOL     OW42348  11.088  10.441   3.958
13525SOL    HW142349  11.008  10.414   3.913
13525SOL    HW242350  11.057  10.487   4.036
13526SOL     OW42351  13.440   0.933  11.343
13526SOL    HW142352  13.435   0.838  11.336
13526SOL    HW242353  13.431   0.951  11.437
13527SOL     OW42354   3.874  13.391   5.121
13527SOL    HW142355   3.795  13.338   5.109
13527SOL    HW242356   3.842  13.481   5.124
13528SOL     OW42357   0.300  10.599   5.488
13528SOL    HW142358   0.394  10.614   5.501
13528SOL    HW242359   0.259  10.683   5.511
13529SOL     OW42360  10.951   1.675  13.547
13529SOL    HW142361  10.958   1.615  13.622
13529SOL    HW242362  10.907   1.752  13.583
13530SOL     OW42363  14.098  11.192   3.289
13530SOL    HW142364  14.111  11.268   3.345
13530SOL    HW242365  14.003  11.183   3.283
13531SOL     OW42366   6.099  12.809   8.463
13531SOL    HW142367   6.120  12.817   8.556
13531SOL    HW242368   6.164  12.863   8.419
13532SOL     OW42369   5.592  12.848  10.995
13532SOL    HW142370   5.509  12.895  10.990
13532SOL    HW242371   5.591  12.789  10.921
13533SOL     OW42372   1.472   3.642   2.515
13533SOL    HW142373   1.438   3.674   2.599
13533SOL    HW242374   1.438   3.704   2.450
13534SOL     OW42375  11.969   2.682  10.383
13534SOL    HW142376  11.958   2.610  10.321
13534SOL    HW242377  11.938   2.647  10.466
13535SOL     OW42378   1.740   8.647   4.167
13535SOL    HW142379   1.797   8.591   4.220
13535SOL    HW242380   1.675   8.679   4.230
13536SOL     OW42381   6.933  11.801   1.867
13536SOL    HW142382   6.910  11.717   1.907
13536SOL    HW242383   6.926  11.785   1.772
13537SOL     OW42384  14.414   1.408  14.170
13537SOL    HW142385  14.403   1.498  14.141
13537SOL    HW242386  14.417   1.413  14.265
13538SOL     OW42387   7.833   4.552   9.489
13538SOL    HW142388   7.833   4.588   9.578
13538SOL    HW242389   7.792   4.466   9.498
13539SOL     OW42390   1.682   0.192   8.793
13539SOL    HW142391   1.629   0.170   8.717
13539SOL    HW242392   1.754   0.129   8.792
13540SOL     OW42393   1.305  10.701  10.197
13540SOL    HW142394   1.274  10.718  10.108
13540SOL    HW242395   1.294  10.607  10.209
13541SOL     OW42396   5.233   7.357   1.503
13541SOL    HW142397   5.232   7.308   1.421
13541SOL    HW242398   5.152   7.408   1.502
13542SOL     OW42399   9.630   4.171   9.278
13542SOL    HW142400   9.622   4.094   9.222
13542SOL    HW242401   9.594   4.143   9.362
13543SOL     OW42402   1.276  11.654   4.491
13543SOL    HW142403   1.315  11.595   4.426
13543SOL    HW242404   1.345  11.666   4.556
13544SOL     OW42405   4.349   8.178   1.302
13544SOL    HW142406   4.359   8.225   1.219
13544SOL    HW242407   4.280   8.114   1.286
13545SOL     OW42408   2.813  11.309  10.544
13545SOL    HW142409   2.877  11.332  10.612
13545SOL    HW242410   2.783  11.393  10.509
13546SOL     OW42411  12.342   7.324  13.430
13546SOL    HW142412  12.314   7.415  13.441
13546SOL    HW242413  12.405   7.327  13.358
13547SOL     OW42414   3.764  12.952  14.191
13547SOL    HW142415   3.768  12.943  14.286
13547SOL    HW242416   3.855  12.960  14.164
13548SOL     OW42417  13.585  12.399  14.855
13548SOL    HW142418  13.613  12.308  14.844
13548SOL    HW242419  13.556  12.426  14.768
13549SOL     OW42420   2.145   5.764  12.326
13549SOL    HW142421   2.120   5.813  12.404
13549SOL    HW242422   2.138   5.827  12.255
13550SOL     OW42423   7.481   3.938   9.355
13550SOL    HW142424   7.425   3.993   9.300
13550SOL    HW242425   7.509   3.996   9.426
13551SOL     OW42426  14.608   9.597   0.083
13551SOL    HW142427  14.539   9.579   0.147
13551SOL    HW242428  14.671   9.651   0.130
13552SOL     OW42429   8.553  12.065   6.374
13552SOL    HW142430   8.527  12.157   6.374
13552SOL    HW242431   8.581  12.048   6.285
13553SOL     OW42432  11.354   7.121   3.299
13553SOL    HW142433  11.360   7.135   3.393
13553SOL    HW242434  11.314   7.201   3.265
13554SOL     OW42435  14.483   8.456  13.126
13554SOL    HW142436  14.505   8.365  13.143
13554SOL    HW242437  14.414   8.453  13.060
13555SOL     OW42438  10.806   2.269  13.640
13555SOL    HW142439  10.804   2.365  13.644
13555SOL    HW242440  10.801   2.248  13.547
13556SOL     OW42441  12.498   1.505  14.857
13556SOL    HW142442  12.442   1.465  14.791
13556SOL    HW242443  12.442   1.513   0.056
13557SOL     OW42444  11.091  12.978  12.066
13557SOL    HW142445  11.170  12.939  12.102
13557SOL    HW242446  11.054  12.910  12.010
13558SOL     OW42447   2.250   7.845   6.288
13558SOL    HW142448   2.234   7.751   6.298
13558SOL    HW242449   2.338   7.858   6.324
13559SOL     OW42450   1.750   9.019   1.412
13559SOL    HW142451   1.727   9.051   1.499
13559SOL    HW242452   1.669   8.986   1.376
13560SOL     OW42453  12.126   2.002   6.134
13560SOL    HW142454  12.152   2.068   6.198
13560SOL    HW242455  12.068   2.048   6.074
13561SOL     OW42456   3.333  12.400   6.565
13561SOL    HW142457   3.366  12.392   6.654
13561SOL    HW242458   3.249  12.354   6.567
13562SOL     OW42459   8.536   2.378   4.348
13562SOL    HW142460   8.525   2.337   4.263
13562SOL    HW242461   8.491   2.319   4.409
13563SOL     OW42462   3.223   8.200  10.209
13563SOL    HW142463   3.221   8.117  10.163
13563SOL    HW242464   3.132   8.230  10.209
13564SOL     OW42465   0.671  12.058   3.248
13564SOL    HW142466   0.730  12.100   3.310
13564SOL    HW242467   0.603  12.123   3.232
13565SOL     OW42468   7.486   6.060  13.969
13565SOL    HW142469   7.493   5.965  13.981
13565SOL    HW242470   7.409   6.085  14.020
13566SOL     OW42471   4.177   1.752   9.521
13566SOL    HW142472   4.266   1.734   9.551
13566SOL    HW242473   4.164   1.693   9.446
13567SOL     OW42474   4.819   8.302   9.880
13567SOL    HW142475   4.886   8.252   9.834
13567SOL    HW242476   4.775   8.237   9.936
13568SOL     OW42477  11.382   7.148   6.383
13568SOL    HW142478  11.447   7.151   6.312
13568SOL    HW242479  11.331   7.228   6.372
13569SOL     OW42480  11.677  12.145  10.331
13569SOL    HW142481  11.597  12.113  10.372
13569SOL    HW242482  11.705  12.072  10.275
13570SOL     OW42483  12.712  14.555   9.542
13570SOL    HW142484  12.669  14.630   9.502
13570SOL    HW242485  12.762  14.516   9.471
13571SOL     OW42486  11.782   9.596   0.789
13571SOL    HW142487  11.706   9.556   0.746
13571SOL    HW242488  11.835   9.521   0.817
13572SOL     OW42489   4.411   9.757   6.591
13572SOL    HW142490   4.372   9.829   6.640
13572SOL    HW242491   4.436   9.694   6.658
13573SOL     OW42492   7.167   0.350   3.313
13573SOL    HW142493   7.126   0.301   3.385
13573SOL    HW242494   7.093   0.377   3.258
13574SOL     OW42495   4.625   8.957   4.695
13574SOL    HW142496   4.668   9.017   4.634
13574SOL    HW242497   4.552   8.920   4.646
13575SOL     OW42498  12.816   8.270   6.944
13575SOL    HW142499  12.822   8.362   6.972
13575SOL    HW242500  12.734   8.239   6.981
13576SOL     OW42501   1.544   1.031   3.162
13576SOL    HW142502   1.638   1.048   3.154
13576SOL    HW242503   1.532   0.944   3.124
13577SOL     OW42504  11.278   9.355  12.100
13577SOL    HW142505  11.353   9.398  12.058
13577SOL    HW242506  11.235   9.425  12.148
13578SOL     OW42507  13.672   0.331   0.852
13578SOL    HW142508  13.583   0.365   0.840
13578SOL    HW242509  13.659   0.246   0.894
13579SOL     OW42510   4.914   6.092  10.117
13579SOL    HW142511   4.979   6.074  10.185
13579SOL    HW242512   4.946   6.171  10.073
13580SOL     OW42513  11.356   5.278   8.693
13580SOL    HW142514  11.433   5.261   8.748
13580SOL    HW242515  11.291   5.313   8.754
13581SOL     OW42516  11.644  14.131  13.193
13581SOL    HW142517  11.633  14.077  13.271
13581SOL    HW242518  11.671  14.069  13.125
13582SOL     OW42519  14.040   1.765   6.381
13582SOL    HW142520  14.006   1.787   6.468
13582SOL    HW242521  14.081   1.679   6.393
13583SOL     OW42522  14.545  11.051   5.526
13583SOL    HW142523  14.566  11.039   5.619
13583SOL    HW242524  14.546  10.962   5.490
13584SOL     OW42525  11.499   9.503  13.399
13584SOL    HW142526  11.514   9.418  13.357
13584SOL    HW242527  11.534   9.492  13.488
13585SOL     OW42528   7.923   8.250  11.671
13585SOL    HW142529   7.835   8.250  11.635
13585SOL    HW242530   7.980   8.262  11.595
13586SOL     OW42531   1.944   4.823   0.433
13586SOL    HW142532   1.940   4.728   0.440
13586SOL    HW242533   1.973   4.839   0.343
13587SOL     OW42534   2.656  12.553  14.489
13587SOL    HW142535   2.678  12.465  14.457
13587SOL    HW242536   2.706  12.612  14.432
13588SOL     OW42537  12.741   3.864  14.841
13588SOL    HW142538  12.742   3.819   0.048
13588SOL    HW242539  12.751   3.957  14.863
13589SOL     OW42540   0.357  12.971   2.802
13589SOL    HW142541   0.298  12.972   2.878
13589SOL    HW242542   0.435  13.019   2.831
13590SOL     OW42543   6.214   1.432  13.844
13590SOL    HW142544   6.274   1.379  13.791
13590SOL    HW242545   6.259   1.515  13.855
13591SOL     OW42546  13.475   7.431  12.024
13591SOL    HW142547  13.460   7.526  12.015
13591SOL    HW242548  13.501   7.419  12.115
13592SOL     OW42549   9.307   2.395  11.746
13592SOL    HW142550   9.329   2.469  11.690
13592SOL    HW242551   9.354   2.412  11.828
13593SOL     OW42552   9.749   3.974   4.428
13593SOL    HW142553   9.768   3.995   4.519
13593SOL    HW242554   9.763   3.880   4.422
13594SOL     OW42555   0.347   8.306   8.646
13594SOL    HW142556   0.401   8.296   8.567
13594SOL    HW242557   0.383   8.384   8.689
13595SOL     OW42558  12.773  12.502  12.373
13595SOL    HW142559  12.803  12.447  12.445
13595SOL    HW242560  12.723  12.573  12.415
13596SOL     OW42561  12.959   2.049   1.968
13596SOL    HW142562  13.014   1.971   1.981
13596SOL    HW242563  12.915   2.033   1.885
13597SOL     OW42564   5.593  10.170   8.518
13597SOL    HW142565   5.615  10.128   8.435
13597SOL    HW242566   5.570  10.260   8.494
13598SOL     OW42567  11.088   9.390   0.479
13598SOL    HW142568  11.065   9.399   0.571
13598SOL    HW242569  11.013   9.344   0.440
13599SOL     OW42570   2.963   7.438   2.765
13599SOL    HW142571   3.005   7.524   2.766
13599SOL    HW242572   2.875   7.455   2.730
13600SOL     OW42573   0.300  14.267   5.783
13600SOL    HW142574   0.308  14.191   5.841
13600SOL    HW242575   0.377  14.262   5.726
13601SOL     OW42576   2.659   3.282   3.818
13601SOL    HW142577   2.649   3.249   3.907
13601SOL    HW242578   2.626   3.212   3.762
13602SOL     OW42579   1.133  14.299   3.176
13602SOL    HW142580   1.107  14.216   3.136
13602SOL    HW242581   1.109  14.290   3.268
13603SOL     OW42582   1.773   0.455   1.288
13603SOL    HW142583   1.786   0.383   1.350
13603SOL    HW242584   1.747   0.529   1.344
13604SOL     OW42585   8.275   8.443   7.880
13604SOL    HW142586   8.308   8.513   7.936
13604SOL    HW242587   8.341   8.374   7.886
13605SOL     OW42588   2.779   7.623  13.851
13605SOL    HW142589   2.753   7.701  13.900
13605SOL    HW242590   2.714   7.617  13.780
13606SOL     OW42591  12.361   5.857   1.083
13606SOL    HW142592  12.350   5.766   1.056
13606SOL    HW242593  12.412   5.897   1.012
13607SOL     OW42594  10.608   8.959   2.691
13607SOL    HW142595  10.556   9.037   2.705
13607SOL    HW242596  10.545   8.887   2.695
13608SOL     OW42597   4.680   5.166   5.466
13608SOL    HW142598   4.755   5.155   5.408
13608SOL    HW242599   4.604   5.155   5.409
13609SOL     OW42600  13.176   6.417  13.039
13609SOL    HW142601  13.099   6.442  13.090
13609SOL    HW242602  13.141   6.373  12.962
13610SOL     OW42603   8.569   0.455  13.679
13610SOL    HW142604   8.485   0.479  13.717
13610SOL    HW242605   8.591   0.372  13.720
13611SOL     OW42606  11.782   2.216   0.469
13611SOL    HW142607  11.771   2.300   0.513
13611SOL    HW242608  11.693   2.181   0.460
13612SOL     OW42609   9.854   2.628  10.024
13612SOL    HW142610   9.940   2.671  10.027
13612SOL    HW242611   9.833   2.622   9.931
13613SOL     OW42612   6.198   1.337   5.087
13613SOL    HW142613   6.158   1.379   5.163
13613SOL    HW242614   6.209   1.407   5.023
13614SOL     OW42615  11.286   1.549   3.953
13614SOL    HW142616  11.378   1.560   3.928
13614SOL    HW242617  11.237   1.593   3.884
13615SOL     OW42618   5.687   5.282   3.876
13615SOL    HW142619   5.696   5.305   3.969
13615SOL    HW242620   5.763   5.227   3.858
13616SOL     OW42621   3.719   1.449  11.303
13616SOL    HW142622   3.643   1.393  11.319
13616SOL    HW242623   3.735   1.442  11.209
13617SOL     OW42624  12.240   2.493  11.016
13617SOL    HW142625  12.285   2.554  10.958
13617SOL    HW242626  12.272   2.407  10.989
13618SOL     OW42627   3.927   1.977  13.919
13618SOL    HW142628   4.005   2.005  13.870
13618SOL    HW242629   3.946   1.999  14.010
13619SOL     OW42630  10.566   7.184  12.201
13619SOL    HW142631  10.573   7.102  12.250
13619SOL    HW242632  10.477   7.185  12.168
13620SOL     OW42633   3.176   6.641   8.762
13620SOL    HW142634   3.214   6.664   8.677
13620SOL    HW242635   3.240   6.581   8.801
13621SOL     OW42636   2.270  13.056   8.060
13621SOL    HW142637   2.310  13.129   8.108
13621SOL    HW242638   2.220  13.098   7.990
13622SOL     OW42639  13.775   1.288   3.765
13622SOL    HW142640  13.707   1.349   3.791
13622SOL    HW242641  13.854   1.341   3.759
13623SOL     OW42642  12.144   4.106   9.513
13623SOL    HW142643  12.222   4.051   9.503
13623SOL    HW242644  12.175   4.195   9.499
13624SOL     OW42645   1.779  12.700  11.632
13624SOL    HW142646   1.802  12.777  11.580
13624SOL    HW242647   1.683  12.700  11.631
13625SOL     OW42648  10.962  12.994   4.580
13625SOL    HW142649  10.972  12.900   4.566
13625SOL    HW242650  11.043  13.020   4.623
13626SOL     OW42651   8.708   4.084   2.217
13626SOL    HW142652   8.688   4.065   2.125
13626SOL    HW242653   8.702   3.999   2.260
13627SOL     OW42654   3.021   6.004  14.258
13627SOL    HW142655   3.037   6.046  14.342
13627SOL    HW242656   3.084   5.932  14.255
13628SOL     OW42657   9.363   8.961   3.462
13628SOL    HW142658   9.344   9.011   3.383
13628SOL    HW242659   9.435   9.009   3.504
13629SOL     OW42660   9.247  12.904   7.295
13629SOL    HW142661   9.314  12.878   7.358
13629SOL    HW242662   9.266  12.852   7.217
13630SOL     OW42663   5.146   5.912  13.697
13630SOL    HW142664   5.128   5.875  13.784
13630SOL    HW242665   5.237   5.886  13.680
13631SOL     OW42666   2.723  14.860   4.062
13631SOL    HW142667   2.779   0.055   4.037
13631SOL    HW242668   2.659   0.020   4.122
13632SOL     OW42669  12.479   4.110  11.884
13632SOL    HW142670  12.387   4.104  11.857
13632SOL    HW242671  12.519   4.166  11.818
13633SOL     OW42672   0.654   9.338   5.405
13633SOL    HW142673   0.655   9.384   5.322
13633SOL    HW242674   0.708   9.392   5.463
13634SOL     OW42675  10.059   0.371  12.443
13634SOL    HW142676  10.135   0.314  12.446
13634SOL    HW242677  10.080   0.436  12.375
13635SOL     OW42678  14.025   3.695   1.215
13635SOL    HW142679  14.037   3.667   1.124
13635SOL    HW242680  14.092   3.647   1.264
13636SOL     OW42681   3.873   2.620   0.061
13636SOL    HW142682   3.826   2.594   0.140
13636SOL    HW242683   3.822   2.582  14.867
13637SOL     OW42684  10.867   9.340  14.486
13637SOL    HW142685  10.800   9.273  14.497
13637SOL    HW242686  10.950   9.292  14.492
13638SOL     OW42687   0.305   5.742   6.655
13638SOL    HW142688   0.238   5.677   6.635
13638SOL    HW242689   0.291   5.764   6.747
13639SOL     OW42690  11.377   5.939  14.261
13639SOL    HW142691  11.373   5.974  14.350
13639SOL    HW242692  11.444   5.992  14.217
13640SOL     OW42693   9.122   2.241   1.255
13640SOL    HW142694   9.187   2.305   1.226
13640SOL    HW242695   9.144   2.224   1.347
13641SOL     OW42696   5.925   5.060   0.728
13641SOL    HW142697   6.010   5.100   0.745
13641SOL    HW242698   5.884   5.117   0.663
13642SOL     OW42699  11.895   9.962   8.805
13642SOL    HW142700  11.856  10.048   8.818
13642SOL    HW242701  11.988   9.979   8.788
13643SOL     OW42702   5.337   1.161  11.058
13643SOL    HW142703   5.346   1.086  11.116
13643SOL    HW242704   5.427   1.193  11.046
13644SOL     OW42705  10.981   3.472   7.556
13644SOL    HW142706  10.900   3.512   7.524
13644SOL    HW242707  10.959   3.380   7.569
13645SOL     OW42708  10.591   5.846   2.788
13645SOL    HW142709  10.540   5.924   2.764
13645SOL    HW242710  10.634   5.820   2.706
13646SOL     OW42711   9.371   5.647   0.646
13646SOL    HW142712   9.308   5.631   0.575
13646SOL    HW242713   9.456   5.639   0.604
13647SOL     OW42714   8.859   9.891   9.629
13647SOL    HW142715   8.931   9.909   9.689
13647SOL    HW242716   8.902   9.859   9.550
13648SOL     OW42717   6.948   6.244   3.973
13648SOL    HW142718   6.857   6.221   3.988
13648SOL    HW242719   6.998   6.179   4.022
13649SOL     OW42720  12.610   6.261  13.252
13649SOL    HW142721  12.641   6.302  13.172
13649SOL    HW242722  12.515   6.275  13.251
13650SOL     OW42723   4.988   8.803   9.621
13650SOL    HW142724   4.963   8.896   9.621
13650SOL    HW242725   5.042   8.793   9.543
13651SOL     OW42726  11.128  12.905  10.440
13651SOL    HW142727  11.110  12.895  10.534
13651SOL    HW242728  11.073  12.978  10.413
13652SOL     OW42729  13.083   9.716  11.474
13652SOL    HW142730  13.079   9.633  11.521
13652SOL    HW242731  13.100   9.781  11.542
13653SOL     OW42732   8.258   1.039   2.512
13653SOL    HW142733   8.196   0.974   2.479
13653SOL    HW242734   8.342   1.014   2.473
13654SOL     OW42735   7.169  10.953   3.703
13654SOL    HW142736   7.087  10.912   3.675
13654SOL    HW242737   7.236  10.888   3.682
13655SOL     OW42738  11.388  11.726  13.713
13655SOL    HW142739  11.300  11.763  13.710
13655SOL    HW242740  11.375  11.632  13.713
13656SOL     OW42741   8.785   5.866  13.350
13656SOL    HW142742   8.832   5.815  13.417
13656SOL    HW242743   8.854   5.918  13.308
13657SOL     OW42744   0.503   5.930   4.577
13657SOL    HW142745   0.566   5.967   4.638
13657SOL    HW242746   0.438   6.000   4.565
13658SOL     OW42747   3.423   0.458   7.214
13658SOL    HW142748   3.433   0.484   7.306
13658SOL    HW242749   3.484   0.386   7.203
13659SOL     OW42750   5.640   1.797   8.005
13659SOL    HW142751   5.545   1.789   8.019
13659SOL    HW242752   5.679   1.761   8.085
13660SOL     OW42753   8.455  12.027   1.867
13660SOL    HW142754   8.425  11.962   1.931
13660SOL    HW242755   8.543  12.051   1.896
13661SOL     OW42756   2.538   5.155   4.006
13661SOL    HW142757   2.444   5.161   3.992
13661SOL    HW242758   2.549   5.169   4.100
13662SOL     OW42759  14.858   2.171   5.667
13662SOL    HW142760  14.808   2.156   5.747
13662SOL    HW242761  14.795   2.153   5.596
13663SOL     OW42762   7.217   2.362   9.863
13663SOL    HW142763   7.248   2.271   9.861
13663SOL    HW242764   7.159   2.365   9.940
13664SOL     OW42765   3.617  12.330   0.548
13664SOL    HW142766   3.610  12.293   0.461
13664SOL    HW242767   3.651  12.259   0.602
13665SOL     OW42768   9.491   7.138  14.072
13665SOL    HW142769   9.501   7.218  14.123
13665SOL    HW242770   9.492   7.168  13.981
13666SOL     OW42771   3.344  12.725   7.256
13666SOL    HW142772   3.341  12.804   7.310
13666SOL    HW242773   3.414  12.741   7.194
13667SOL     OW42774   7.567   5.995   4.509
13667SOL    HW142775   7.651   6.023   4.544
13667SOL    HW242776   7.558   6.042   4.427
13668SOL     OW42777   4.220   7.569   7.727
13668SOL    HW142778   4.294   7.566   7.666
13668SOL    HW242779   4.191   7.478   7.733
13669SOL     OW42780   1.401   7.423   3.514
13669SOL    HW142781   1.375   7.382   3.431
13669SOL    HW242782   1.462   7.492   3.489
13670SOL     OW42783   3.913  14.832  10.635
13670SOL    HW142784   3.976  14.799  10.700
13670SOL    HW242785   3.953   0.035  10.603
13671SOL     OW42786   4.874   1.547   5.561
13671SOL    HW142787   4.786   1.581   5.576
13671SOL    HW242788   4.884   1.548   5.465
13672SOL     OW42789   5.772   7.867  14.206
13672SOL    HW142790   5.823   7.815  14.268
13672SOL    HW242791   5.687   7.823  14.201
13673SOL     OW42792   1.142   0.668   0.049
13673SOL    HW142793   1.048   0.672   0.033
13673SOL    HW242794   1.167   0.579   0.026
13674SOL     OW42795  12.700   7.269   3.358
13674SOL    HW142796  12.674   7.205   3.292
13674SOL    HW242797  12.760   7.222   3.415
13675SOL     OW42798   5.026   3.721   6.529
13675SOL    HW142799   5.051   3.789   6.592
13675SOL    HW242800   5.106   3.705   6.478
13676SOL     OW42801   1.929  11.449   9.710
13676SOL    HW142802   1.900  11.407   9.791
13676SOL    HW242803   2.025  11.441   9.711
13677SOL     OW42804   2.583  14.488  10.197
13677SOL    HW142805   2.590  14.579  10.168
13677SOL    HW242806   2.520  14.448  10.136
13678SOL     OW42807   5.903   2.774   1.797
13678SOL    HW142808   5.988   2.812   1.818
13678SOL    HW242809   5.921   2.681   1.784
13679SOL     OW42810   9.813   7.375   7.116
13679SOL    HW142811   9.781   7.464   7.130
13679SOL    HW242812   9.898   7.373   7.161
13680SOL     OW42813  12.424  14.690   8.535
13680SOL    HW142814  12.392  14.758   8.476
13680SOL    HW242815  12.391  14.608   8.498
13681SOL     OW42816  13.673   8.812   2.994
13681SOL    HW142817  13.766   8.792   2.998
13681SOL    HW242818  13.630   8.727   2.991
13682SOL     OW42819  13.609  12.992   5.239
13682SOL    HW142820  13.546  12.932   5.279
13682SOL    HW242821  13.625  12.955   5.152
13683SOL     OW42822   8.270  10.616  14.669
13683SOL    HW142823   8.214  10.605  14.592
13683SOL    HW242824   8.210  10.642  14.739
13684SOL     OW42825   9.205  13.071   1.449
13684SOL    HW142826   9.246  13.082   1.363
13684SOL    HW242827   9.149  13.149   1.459
13685SOL     OW42828   2.553   3.949   3.457
13685SOL    HW142829   2.606   3.909   3.527
13685SOL    HW242830   2.505   3.876   3.418
13686SOL     OW42831   3.743   9.287   5.866
13686SOL    HW142832   3.656   9.324   5.852
13686SOL    HW242833   3.800   9.335   5.805
13687SOL     OW42834  10.802   6.727   3.037
13687SOL    HW142835  10.722   6.677   3.051
13687SOL    HW242836  10.811   6.732   2.942
13688SOL     OW42837   6.993   7.848   9.100
13688SOL    HW142838   6.967   7.836   9.191
13688SOL    HW242839   7.088   7.859   9.103
13689SOL     OW42840   3.360  10.128   4.397
13689SOL    HW142841   3.427  10.181   4.353
13689SOL    HW242842   3.284  10.131   4.339
13690SOL     OW42843  13.025  14.313   2.941
13690SOL    HW142844  13.094  14.379   2.928
13690SOL    HW242845  13.024  14.264   2.858
13691SOL     OW42846   3.340   8.770   4.647
13691SOL    HW142847   3.371   8.799   4.733
13691SOL    HW242848   3.309   8.681   4.661
13692SOL     OW42849   7.719   9.016  14.094
13692SOL    HW142850   7.648   9.047  14.037
13692SOL    HW242851   7.754   9.096  14.133
13693SOL     OW42852  14.131  10.133   4.273
13693SOL    HW142853  14.121  10.165   4.184
13693SOL    HW242854  14.206  10.182   4.308
13694SOL     OW42855  10.495   3.214   1.743
13694SOL    HW142856  10.545   3.293   1.765
13694SOL    HW242857  10.454   3.235   1.659
13695SOL     OW42858   9.527   3.079   0.350
13695SOL    HW142859   9.445   3.097   0.303
13695SOL    HW242860   9.503   3.084   0.443
13696SOL     OW42861   0.590   3.882   4.317
13696SOL    HW142862   0.559   3.968   4.347
13696SOL    HW242863   0.521   3.851   4.257
13697SOL     OW42864  14.431  13.265   0.259
13697SOL    HW142865  14.359  13.301   0.311
13697SOL    HW242866  14.498  13.241   0.323
13698SOL     OW42867   9.039   7.533   2.637
13698SOL    HW142868   9.094   7.465   2.677
13698SOL    HW242869   9.040   7.605   2.700
13699SOL     OW42870   7.781   4.686  14.501
13699SOL    HW142871   7.797   4.708  14.593
13699SOL    HW242872   7.736   4.762  14.466
13700SOL     OW42873  10.309   9.663  13.865
13700SOL    HW142874  10.247   9.730  13.892
13700SOL    HW242875  10.288   9.587  13.919
13701SOL     OW42876   6.047   9.539  11.733
13701SOL    HW142877   6.112   9.508  11.670
13701SOL    HW242878   6.012   9.459  11.772
13702SOL     OW42879   9.385   1.700   8.216
13702SOL    HW142880   9.366   1.758   8.143
13702SOL    HW242881   9.469   1.660   8.193
13703SOL     OW42882   2.360   0.465   4.469
13703SOL    HW142883   2.266   0.444   4.466
13703SOL    HW242884   2.370   0.534   4.404
13704SOL     OW42885  12.929   6.650   7.503
13704SOL    HW142886  12.960   6.699   7.579
13704SOL    HW242887  12.895   6.568   7.539
13705SOL     OW42888  10.785   5.980   2.985
13705SOL    HW142889  10.739   5.990   2.902
13705SOL    HW242890  10.777   6.066   3.027
13706SOL     OW42891   7.289   8.789  14.728
13706SOL    HW142892   7.349   8.725  14.768
13706SOL    HW242893   7.347   8.854  14.689
13707SOL     OW42894  14.068   3.056   4.429
13707SOL    HW142895  14.128   3.129   4.441
13707SOL    HW242896  13.996   3.092   4.377
13708SOL     OW42897   7.332  10.365  14.032
13708SOL    HW142898   7.276  10.433  14.070
13708SOL    HW242899   7.366  10.318  14.107
13709SOL     OW42900  11.523   1.070   8.112
13709SOL    HW142901  11.556   1.000   8.168
13709SOL    HW242902  11.433   1.046   8.093
13710SOL     OW42903  11.944   1.994   0.374
13710SOL    HW142904  11.904   1.960   0.294
13710SOL    HW242905  11.892   2.071   0.396
13711SOL     OW42906   4.148   9.098   7.904
13711SOL    HW142907   4.238   9.094   7.935
13711SOL    HW242908   4.136   9.188   7.874
13712SOL     OW42909   8.873  11.922   3.194
13712SOL    HW142910   8.789  11.967   3.193
13712SOL    HW242911   8.908  11.935   3.105
13713SOL     OW42912   9.812   4.342  12.526
13713SOL    HW142913   9.763   4.305  12.452
13713SOL    HW242914   9.891   4.377  12.486
13714SOL     OW42915   8.204   0.619  10.484
13714SOL    HW142916   8.254   0.543  10.455
13714SOL    HW242917   8.140   0.583  10.546
13715SOL     OW42918   2.411   6.716   7.503
13715SOL    HW142919   2.381   6.653   7.568
13715SOL    HW242920   2.475   6.668   7.450
13716SOL     OW42921   7.355   5.204   2.823
13716SOL    HW142922   7.411   5.178   2.750
13716SOL    HW242923   7.340   5.298   2.810
13717SOL     OW42924   8.490   1.427  14.365
13717SOL    HW142925   8.459   1.517  14.377
13717SOL    HW242926   8.583   1.431  14.385
13718SOL     OW42927  14.777  14.834   8.133
13718SOL    HW142928  14.734  14.877   8.207
13718SOL    HW242929  14.793   0.027   8.070
13719SOL     OW42930   5.615   2.778  12.653
13719SOL    HW142931   5.537   2.785  12.708
13719SOL    HW242932   5.588   2.814  12.568
13720SOL     OW42933   7.586   5.857  14.306
13720SOL    HW142934   7.576   5.946  14.338
13720SOL    HW242935   7.662   5.823  14.353
13721SOL     OW42936   0.957   3.442   3.376
13721SOL    HW142937   1.024   3.414   3.439
13721SOL    HW242938   1.005   3.492   3.310
13722SOL     OW42939   0.040  14.548  14.302
13722SOL    HW142940   0.043  14.642  14.324
13722SOL    HW242941   0.123  14.514  14.336
13723SOL     OW42942  14.846   0.604  11.182
13723SOL    HW142943   0.031   0.677  11.181
13723SOL    HW242944  14.782   0.626  11.115
13724SOL     OW42945   2.511  13.340   7.472
13724SOL    HW142946   2.606  13.354   7.475
13724SOL    HW242947   2.491  13.300   7.557
13725SOL     OW42948   8.184   1.253   4.074
13725SOL    HW142949   8.189   1.158   4.068
13725SOL    HW242950   8.265   1.284   4.033
13726SOL     OW42951   0.838   5.908  11.849
13726SOL    HW142952   0.914   5.856  11.874
13726SOL    HW242953   0.783   5.910  11.927
13727SOL     OW42954   1.164   6.120  12.897
13727SOL    HW142955   1.239   6.154  12.946
13727SOL    HW242956   1.093   6.180  12.918
13728SOL     OW42957  10.162   1.871   8.455
13728SOL    HW142958  10.221   1.839   8.387
13728SOL    HW242959  10.130   1.793   8.499
13729SOL     OW42960  11.978   8.883   0.279
13729SOL    HW142961  12.011   8.910   0.193
13729SOL    HW242962  11.917   8.953   0.304
13730SOL     OW42963  10.845   6.515   8.800
13730SOL    HW142964  10.818   6.441   8.855
13730SOL    HW242965  10.770   6.532   8.744
13731SOL     OW42966   5.155  11.432   5.152
13731SOL    HW142967   5.168  11.431   5.247
13731SOL    HW242968   5.242  11.419   5.115
13732SOL     OW42969   8.938   8.699  12.003
13732SOL    HW142970   9.029   8.708  12.031
13732SOL    HW242971   8.908   8.789  11.989
13733SOL     OW42972  10.854  14.012   1.008
13733SOL    HW142973  10.803  13.951   0.954
13733SOL    HW242974  10.792  14.042   1.074
13734SOL     OW42975   2.095   5.176   4.138
13734SOL    HW142976   2.084   5.168   4.233
13734SOL    HW242977   2.152   5.252   4.127
13735SOL     OW42978   2.634   6.402   9.978
13735SOL    HW142979   2.696   6.427  10.047
13735SOL    HW242980   2.685   6.406   9.898
13736SOL     OW42981   7.235   6.546  10.888
13736SOL    HW142982   7.310   6.600  10.912
13736SOL    HW242983   7.231   6.552  10.792
13737SOL     OW42984  13.941   0.276   0.804
13737SOL    HW142985  13.863   0.330   0.822
13737SOL    HW242986  13.910   0.186   0.815
13738SOL     OW42987  11.569   9.708   4.111
13738SOL    HW142988  11.619   9.756   4.176
13738SOL    HW242989  11.489   9.682   4.157
13739SOL     OW42990   9.533   3.110   8.887
13739SOL    HW142991   9.492   3.054   8.953
13739SOL    HW242992   9.529   3.058   8.806
13740SOL     OW42993   5.023   7.683   3.215
13740SOL    HW142994   4.967   7.681   3.137
13740SOL    HW242995   5.107   7.717   3.184
13741SOL     OW42996   7.038  13.030  14.056
13741SOL    HW142997   7.064  13.084  14.131
13741SOL    HW242998   7.013  12.947  14.094
13742SOL     OW42999  14.402   5.081   7.000
13742SOL    HW143000  14.431   4.990   7.014
13742SOL    HW243001  14.372   5.110   7.085
13743SOL     OW43002   2.574   6.237   4.106
13743SOL    HW143003   2.547   6.284   4.185
13743SOL    HW243004   2.518   6.160   4.104
13744SOL     OW43005  12.004  11.681  14.549
13744SOL    HW143006  12.095  11.689  14.574
13744SOL    HW243007  12.000  11.601  14.495
13745SOL     OW43008   3.038   8.240   9.446
13745SOL    HW143009   2.963   8.282   9.404
13745SOL    HW243010   3.021   8.146   9.437
13746SOL     OW43011   9.564   4.060   6.123
13746SOL    HW143012   9.629   4.079   6.191
13746SOL    HW243013   9.489   4.026   6.172
13747SOL     OW43014  13.874   4.870   2.558
13747SOL    HW143015  13.914   4.784   2.544
13747SOL    HW243016  13.931   4.930   2.511
13748SOL     OW43017   4.370   8.061  13.703
13748SOL    HW143018   4.391   8.117  13.777
13748SOL    HW243019   4.429   7.986  13.712
13749SOL     OW43020   9.709   2.733  10.254
13749SOL    HW143021   9.770   2.703  10.187
13749SOL    HW243022   9.667   2.810  10.216
13750SOL     OW43023  13.710   5.969   9.896
13750SOL    HW143024  13.781   5.915   9.861
13750SOL    HW243025  13.754   6.036   9.948
13751SOL     OW43026  13.361  11.055  12.517
13751SOL    HW143027  13.441  11.045  12.466
13751SOL    HW243028  13.361  10.981  12.578
13752SOL     OW43029   2.477   3.482   1.905
13752SOL    HW143030   2.395   3.452   1.943
13752SOL    HW243031   2.545   3.445   1.962
13753SOL     OW43032  11.873  12.735   8.721
13753SOL    HW143033  11.878  12.645   8.687
13753SOL    HW243034  11.942  12.739   8.787
13754SOL     OW43035  11.352   8.040  11.768
13754SOL    HW143036  11.362   8.085  11.684
13754SOL    HW243037  11.257   8.029  11.778
13755SOL     OW43038   0.031   2.650  14.151
13755SOL    HW143039   0.088   2.588  14.106
13755SOL    HW243040   0.050   2.638  14.244
13756SOL     OW43041  12.857   6.843   6.980
13756SOL    HW143042  12.792   6.911   6.995
13756SOL    HW243043  12.940   6.884   7.005
13757SOL     OW43044   5.267  12.190  11.336
13757SOL    HW143045   5.192  12.244  11.360
13757SOL    HW243046   5.285  12.139  11.415
13758SOL     OW43047  13.756   1.996  10.321
13758SOL    HW143048  13.832   2.048  10.296
13758SOL    HW243049  13.729   1.953  10.240
13759SOL     OW43050   2.614  10.048   3.590
13759SOL    HW143051   2.646   9.996   3.516
13759SOL    HW243052   2.689  10.057   3.648
13760SOL     OW43053   1.806   4.031   9.963
13760SOL    HW143054   1.826   4.083  10.041
13760SOL    HW243055   1.714   4.050   9.944
13761SOL     OW43056   2.668   4.228  11.725
13761SOL    HW143057   2.680   4.159  11.791
13761SOL    HW243058   2.599   4.284  11.761
13762SOL     OW43059   3.869   0.188  11.432
13762SOL    HW143060   3.827   0.256  11.380
13762SOL    HW243061   3.821   0.188  11.515
13763SOL     OW43062  12.149   4.596   5.362
13763SOL    HW143063  12.204   4.671   5.340
13763SOL    HW243064  12.100   4.623   5.439
13764SOL     OW43065  10.069   5.482   2.852
13764SOL    HW143066   9.992   5.472   2.908
13764SOL    HW243067  10.142   5.491   2.913
13765SOL     OW43068   0.995  13.296   2.019
13765SOL    HW143069   0.927  13.229   2.028
13765SOL    HW243070   1.017  13.296   1.926
13766SOL     OW43071  13.155   0.840   9.802
13766SOL    HW143072  13.115   0.757   9.776
13766SOL    HW243073  13.159   0.835   9.898
13767SOL     OW43074  10.438  14.419  14.730
13767SOL    HW143075  10.416  14.485  14.664
13767SOL    HW243076  10.491  14.467  14.794
13768SOL     OW43077  10.273   2.213   3.546
13768SOL    HW143078  10.200   2.153   3.563
13768SOL    HW243079  10.232   2.299   3.539
13769SOL     OW43080  14.204   5.137   5.103
13769SOL    HW143081  14.250   5.213   5.069
13769SOL    HW243082  14.117   5.169   5.126
13770SOL     OW43083   8.957   4.362   5.150
13770SOL    HW143084   8.974   4.355   5.056
13770SOL    HW243085   8.862   4.354   5.157
13771SOL     OW43086   6.433   2.237   5.090
13771SOL    HW143087   6.342   2.232   5.119
13771SOL    HW243088   6.467   2.317   5.130
13772SOL     OW43089  11.200   7.442  13.263
13772SOL    HW143090  11.217   7.392  13.343
13772SOL    HW243091  11.282   7.435  13.214
13773SOL     OW43092   4.412  12.070   9.177
13773SOL    HW143093   4.391  12.062   9.270
13773SOL    HW243094   4.501  12.106   9.176
13774SOL     OW43095   6.958   4.106   1.879
13774SOL    HW143096   7.049   4.108   1.908
13774SOL    HW243097   6.928   4.196   1.890
13775SOL     OW43098  12.540   1.220  11.235
13775SOL    HW143099  12.624   1.232  11.279
13775SOL    HW243100  12.477   1.205  11.306
13776SOL     OW43101   6.215  14.776  13.621
13776SOL    HW143102   6.290  14.735  13.664
13776SOL    HW243103   6.145  14.711  13.630
13777SOL     OW43104  10.228   2.656   9.188
13777SOL    HW143105  10.276   2.736   9.164
13777SOL    HW243106  10.286   2.610   9.248
13778SOL     OW43107   7.921  10.528   4.603
13778SOL    HW143108   7.839  10.566   4.634
13778SOL    HW243109   7.928  10.445   4.650
13779SOL     OW43110   3.370   4.913  14.597
13779SOL    HW143111   3.443   4.883  14.650
13779SOL    HW243112   3.380   4.869  14.513
13780SOL     OW43113   2.854   1.826   9.111
13780SOL    HW143114   2.936   1.859   9.148
13780SOL    HW243115   2.839   1.881   9.034
13781SOL     OW43116   7.086  12.855   4.509
13781SOL    HW143117   7.158  12.905   4.470
13781SOL    HW243118   7.078  12.891   4.598
13782SOL     OW43119   4.229   5.479  12.669
13782SOL    HW143120   4.323   5.488  12.654
13782SOL    HW243121   4.190   5.492  12.582
13783SOL     OW43122   0.379  12.239  10.935
13783SOL    HW143123   0.354  12.211  10.847
13783SOL    HW243124   0.299  12.277  10.972
13784SOL     OW43125  13.595   2.650   8.944
13784SOL    HW143126  13.549   2.673   9.025
13784SOL    HW243127  13.673   2.604   8.974
13785SOL     OW43128   5.472   9.172   6.371
13785SOL    HW143129   5.389   9.186   6.417
13785SOL    HW243130   5.448   9.168   6.279
13786SOL     OW43131   7.221  14.334   9.742
13786SOL    HW143132   7.313  14.344   9.718
13786SOL    HW243133   7.222  14.312   9.835
13787SOL     OW43134   9.114   0.514   6.663
13787SOL    HW143135   9.099   0.596   6.710
13787SOL    HW243136   9.056   0.452   6.705
13788SOL     OW43137   7.581   9.284   8.475
13788SOL    HW143138   7.516   9.218   8.499
13788SOL    HW243139   7.537   9.339   8.410
13789SOL     OW43140   1.768   5.563  10.929
13789SOL    HW143141   1.861   5.567  10.951
13789SOL    HW243142   1.725   5.613  10.999
13790SOL     OW43143   4.894  11.615   4.824
13790SOL    HW143144   4.907  11.524   4.798
13790SOL    HW243145   4.924  11.666   4.749
13791SOL     OW43146  12.729   4.627  10.452
13791SOL    HW143147  12.674   4.570  10.399
13791SOL    HW243148  12.713   4.599  10.542
13792SOL     OW43149   5.680  14.831   0.371
13792SOL    HW143150   5.733  14.752   0.380
13792SOL    HW243151   5.601  14.802   0.324
13793SOL     OW43152  12.995   0.670   7.496
13793SOL    HW143153  13.068   0.649   7.555
13793SOL    HW243154  13.029   0.739   7.439
13794SOL     OW43155   9.953   2.162   6.264
13794SOL    HW143156   9.906   2.172   6.181
13794SOL    HW243157  10.041   2.135   6.238
13795SOL     OW43158   7.600   3.764   1.615
13795SOL    HW143159   7.548   3.698   1.568
13795SOL    HW243160   7.553   3.846   1.599
13796SOL     OW43161   5.536   5.683   4.397
13796SOL    HW143162   5.592   5.733   4.457
13796SOL    HW243163   5.588   5.676   4.317
13797SOL     OW43164   5.983   6.160  12.941
13797SOL    HW143165   6.009   6.181  12.852
13797SOL    HW243166   6.026   6.225  12.995
13798SOL     OW43167   8.339   9.702   8.088
13798SOL    HW143168   8.374   9.613   8.076
13798SOL    HW243169   8.247   9.694   8.064
13799SOL     OW43170   5.844   4.383   2.939
13799SOL    HW143171   5.850   4.388   2.844
13799SOL    HW243172   5.930   4.353   2.967
13800SOL     OW43173   6.924   2.918   0.478
13800SOL    HW143174   6.861   2.929   0.406
13800SOL    HW243175   6.925   3.003   0.522
13801SOL     OW43176  13.039   2.782  12.667
13801SOL    HW143177  13.125   2.740  12.663
13801SOL    HW243178  12.977   2.710  12.680
13802SOL     OW43179   1.258  10.610   0.422
13802SOL    HW143180   1.212  10.691   0.445
13802SOL    HW243181   1.244  10.552   0.497
13803SOL     OW43182   4.081   5.792   8.874
13803SOL    HW143183   4.156   5.827   8.922
13803SOL    HW243184   4.005   5.814   8.928
13804SOL     OW43185   3.969  11.379   1.705
13804SOL    HW143186   4.004  11.333   1.781
13804SOL    HW243187   3.978  11.316   1.633
13805SOL     OW43188  13.517   2.212   0.791
13805SOL    HW143189  13.510   2.144   0.724
13805SOL    HW243190  13.453   2.186   0.858
13806SOL     OW43191  13.647   1.738  10.449
13806SOL    HW143192  13.693   1.815  10.415
13806SOL    HW243193  13.574   1.775  10.500
13807SOL     OW43194   8.733  11.272   5.030
13807SOL    HW143195   8.745  11.269   4.935
13807SOL    HW243196   8.694  11.188   5.053
13808SOL     OW43197  10.754   0.969   3.212
13808SOL    HW143198  10.670   1.011   3.193
13808SOL    HW243199  10.786   0.939   3.127
13809SOL     OW43200  13.862  14.859   0.039
13809SOL    HW143201  13.839  14.855   0.132
13809SOL    HW243202  13.869  14.767   0.012
13810SOL     OW43203   7.175  11.128   7.340
13810SOL    HW143204   7.100  11.136   7.398
13810SOL    HW243205   7.177  11.210   7.291
13811SOL     OW43206   1.114  14.100   8.718
13811SOL    HW143207   1.045  14.053   8.670
13811SOL    HW243208   1.092  14.192   8.707
13812SOL     OW43209   1.728  12.821   7.171
13812SOL    HW143210   1.672  12.845   7.097
13812SOL    HW243211   1.748  12.903   7.215
13813SOL     OW43212   0.576   0.844   7.342
13813SOL    HW143213   0.504   0.897   7.306
13813SOL    HW243214   0.572   0.860   7.437
13814SOL     OW43215   0.378   9.586  14.631
13814SOL    HW143216   0.379   9.538  14.714
13814SOL    HW243217   0.387   9.517  14.564
13815SOL     OW43218   2.553   7.215   0.008
13815SOL    HW143219   2.577   7.304  14.859
13815SOL    HW243220   2.591   7.205   0.095
13816SOL     OW43221   6.168  13.981  10.338
13816SOL    HW143222   6.096  13.918  10.328
13816SOL    HW243223   6.237  13.947  10.281
13817SOL     OW43224   4.847  12.599   5.647
13817SOL    HW143225   4.802  12.680   5.672
13817SOL    HW243226   4.935  12.626   5.623
13818SOL     OW43227   0.698   8.213   1.246
13818SOL    HW143228   0.665   8.151   1.181
13818SOL    HW243229   0.653   8.295   1.227
13819SOL     OW43230   5.577  10.247   9.813
13819SOL    HW143231   5.634  10.225   9.887
13819SOL    HW243232   5.576  10.167   9.760
13820SOL     OW43233   6.644   9.214   4.747
13820SOL    HW143234   6.661   9.256   4.663
13820SOL    HW243235   6.708   9.253   4.806
13821SOL     OW43236   4.818  11.624  13.606
13821SOL    HW143237   4.903  11.627  13.651
13821SOL    HW243238   4.792  11.532  13.609
13822SOL     OW43239   6.391  13.082   4.939
13822SOL    HW143240   6.368  13.093   5.031
13822SOL    HW243241   6.456  13.011   4.938
13823SOL     OW43242   3.767   9.533   3.138
13823SOL    HW143243   3.860   9.516   3.154
13823SOL    HW243244   3.735   9.455   3.094
13824SOL     OW43245  13.584   6.024   1.391
13824SOL    HW143246  13.640   5.980   1.454
13824SOL    HW243247  13.498   5.984   1.404
13825SOL     OW43248  13.184  14.336  11.120
13825SOL    HW143249  13.239  14.275  11.169
13825SOL    HW243250  13.244  14.402  11.086
13826SOL     OW43251  10.695   1.000  12.424
13826SOL    HW143252  10.611   1.021  12.465
13826SOL    HW243253  10.758   1.057  12.468
13827SOL     OW43254   8.896   3.799   9.195
13827SOL    HW143255   8.864   3.801   9.285
13827SOL    HW243256   8.982   3.840   9.199
13828SOL     OW43257   4.481   0.794   1.084
13828SOL    HW143258   4.563   0.747   1.101
13828SOL    HW243259   4.426   0.730   1.038
13829SOL     OW43260  11.318   2.576   5.156
13829SOL    HW143261  11.345   2.485   5.167
13829SOL    HW243262  11.387   2.614   5.102
13830SOL     OW43263  14.484   5.047   8.731
13830SOL    HW143264  14.440   4.962   8.727
13830SOL    HW243265  14.532   5.045   8.814
13831SOL     OW43266   2.724   5.403   0.959
13831SOL    HW143267   2.813   5.429   0.985
13831SOL    HW243268   2.737   5.348   0.882
13832SOL     OW43269  10.280   0.919   8.495
13832SOL    HW143270  10.306   0.928   8.587
13832SOL    HW243271  10.187   0.940   8.494
13833SOL     OW43272   0.451   8.303  13.334
13833SOL    HW143273   0.374   8.299  13.390
13833SOL    HW243274   0.472   8.396  13.329
13834SOL     OW43275   8.015  12.204  10.376
13834SOL    HW143276   8.060  12.280  10.339
13834SOL    HW243277   7.966  12.238  10.450
13835SOL     OW43278   6.010   7.823  12.038
13835SOL    HW143279   5.964   7.791  12.116
13835SOL    HW243280   5.939   7.839  11.975
13836SOL     OW43281   3.814   6.160  12.378
13836SOL    HW143282   3.803   6.152  12.284
13836SOL    HW243283   3.729   6.189  12.410
13837SOL     OW43284  13.886   7.712  13.858
13837SOL    HW143285  13.887   7.767  13.780
13837SOL    HW243286  13.822   7.754  13.917
13838SOL     OW43287  10.345   8.883  12.107
13838SOL    HW143288  10.297   8.947  12.056
13838SOL    HW243289  10.362   8.927  12.191
13839SOL     OW43290   7.912   5.522   4.474
13839SOL    HW143291   7.882   5.489   4.558
13839SOL    HW243292   7.956   5.448   4.432
13840SOL     OW43293   3.123   2.221   3.686
13840SOL    HW143294   3.034   2.213   3.652
13840SOL    HW243295   3.150   2.309   3.662
13841SOL     OW43296   3.945  14.490  11.546
13841SOL    HW143297   4.038  14.472  11.563
13841SOL    HW243298   3.932  14.462  11.455
13842SOL     OW43299   9.602   6.579   4.357
13842SOL    HW143300   9.589   6.565   4.451
13842SOL    HW243301   9.616   6.673   4.349
13843SOL     OW43302  10.362   3.731  11.380
13843SOL    HW143303  10.320   3.742  11.295
13843SOL    HW243304  10.392   3.819  11.403
13844SOL     OW43305   7.381  13.238   7.022
13844SOL    HW143306   7.447  13.188   7.069
13844SOL    HW243307   7.306  13.179   7.014
13845SOL     OW43308   5.636  13.058   6.262
13845SOL    HW143309   5.726  13.026   6.262
13845SOL    HW243310   5.613  13.066   6.355
13846SOL     OW43311  14.400   6.176   2.632
13846SOL    HW143312  14.440   6.245   2.580
13846SOL    HW243313  14.466   6.153   2.697
13847SOL     OW43314   0.419   1.337  10.724
13847SOL    HW143315   0.480   1.267  10.703
13847SOL    HW243316   0.460   1.385  10.796
13848SOL     OW43317  11.643  13.379   7.066
13848SOL    HW143318  11.640  13.445   7.134
13848SOL    HW243319  11.562  13.392   7.016
13849SOL     OW43320   2.895  12.862  12.278
13849SOL    HW143321   2.911  12.858  12.183
13849SOL    HW243322   2.913  12.773  12.309
13850SOL     OW43323   9.495  12.102   5.604
13850SOL    HW143324   9.411  12.058   5.588
13850SOL    HW243325   9.486  12.187   5.560
13851SOL     OW43326   8.562   5.720  10.441
13851SOL    HW143327   8.480   5.672  10.452
13851SOL    HW243328   8.625   5.671  10.494
13852SOL     OW43329  14.482   6.829   4.167
13852SOL    HW143330  14.440   6.882   4.234
13852SOL    HW243331  14.452   6.739   4.184
13853SOL     OW43332   5.371   7.253   6.839
13853SOL    HW143333   5.321   7.301   6.773
13853SOL    HW243334   5.437   7.205   6.790
13854SOL     OW43335  12.220  13.871   4.378
13854SOL    HW143336  12.127  13.852   4.392
13854SOL    HW243337  12.246  13.816   4.305
13855SOL     OW43338  10.037  14.666   8.453
13855SOL    HW143339  10.087  14.623   8.522
13855SOL    HW243340  10.075  14.632   8.372
13856SOL     OW43341  12.486   6.555   9.982
13856SOL    HW143342  12.511   6.617   9.913
13856SOL    HW243343  12.487   6.607  10.062
13857SOL     OW43344  10.286   8.577   6.189
13857SOL    HW143345  10.262   8.665   6.217
13857SOL    HW243346  10.319   8.589   6.099
13858SOL     OW43347   9.288  11.577   6.206
13858SOL    HW143348   9.314  11.612   6.291
13858SOL    HW243349   9.369  11.572   6.156
13859SOL     OW43350   8.612  14.019   9.290
13859SOL    HW143351   8.603  14.058   9.377
13859SOL    HW243352   8.706  13.998   9.283
13860SOL     OW43353   5.908   3.205  11.846
13860SOL    HW143354   5.842   3.273  11.855
13860SOL    HW243355   5.916   3.168  11.934
13861SOL     OW43356  10.564   1.343   7.058
13861SOL    HW143357  10.490   1.401   7.076
13861SOL    HW243358  10.618   1.391   6.996
13862SOL     OW43359   2.538  13.402  12.648
13862SOL    HW143360   2.479  13.358  12.587
13862SOL    HW243361   2.620  13.352  12.643
13863SOL     OW43362   6.835   8.377  11.020
13863SOL    HW143363   6.755   8.393  10.970
13863SOL    HW243364   6.812   8.306  11.080
13864SOL     OW43365   4.281   4.250  12.145
13864SOL    HW143366   4.305   4.342  12.145
13864SOL    HW243367   4.355   4.206  12.187
13865SOL     OW43368   3.109   4.328   5.249
13865SOL    HW143369   3.187   4.383   5.246
13865SOL    HW243370   3.082   4.321   5.157
13866SOL     OW43371   8.788   3.674   7.085
13866SOL    HW143372   8.856   3.637   7.029
13866SOL    HW243373   8.778   3.764   7.054
13867SOL     OW43374   5.878   5.257   9.996
13867SOL    HW143375   5.802   5.255   9.939
13867SOL    HW243376   5.953   5.254   9.936
13868SOL     OW43377   4.964   5.904   2.885
13868SOL    HW143378   4.964   5.894   2.790
13868SOL    HW243379   4.871   5.909   2.909
13869SOL     OW43380   5.835  13.399  14.123
13869SOL    HW143381   5.828  13.362  14.211
13869SOL    HW243382   5.902  13.467  14.131
13870SOL     OW43383   3.635   3.379   8.051
13870SOL    HW143384   3.629   3.475   8.056
13870SOL    HW243385   3.685   3.354   8.129
13871SOL     OW43386   8.232   8.634  11.748
13871SOL    HW143387   8.211   8.591  11.666
13871SOL    HW243388   8.146   8.654  11.787
13872SOL     OW43389   6.388   4.534   2.842
13872SOL    HW143390   6.306   4.566   2.803
13872SOL    HW243391   6.363   4.453   2.886
13873SOL     OW43392  11.162  11.371   0.962
13873SOL    HW143393  11.218  11.445   0.936
13873SOL    HW243394  11.074  11.408   0.963
13874SOL     OW43395  14.688  14.500   1.257
13874SOL    HW143396  14.690  14.449   1.337
13874SOL    HW243397  14.617  14.461   1.205
13875SOL     OW43398  11.950   5.945   6.110
13875SOL    HW143399  11.971   6.033   6.142
13875SOL    HW243400  11.868   5.922   6.153
13876SOL     OW43401  11.040  14.402   8.653
13876SOL    HW143402  10.978  14.339   8.691
13876SOL    HW243403  11.120  14.389   8.703
13877SOL     OW43404   0.926  13.204   6.648
13877SOL    HW143405   0.926  13.244   6.561
13877SOL    HW243406   0.868  13.128   6.639
13878SOL     OW43407  10.053  11.213  12.359
13878SOL    HW143408  10.131  11.184  12.312
13878SOL    HW243409  10.010  11.274  12.298
13879SOL     OW43410  10.140  10.265   3.914
13879SOL    HW143411  10.221  10.288   3.869
13879SOL    HW243412  10.091  10.212   3.851
13880SOL     OW43413  13.807   1.219   8.340
13880SOL    HW143414  13.792   1.309   8.367
13880SOL    HW243415  13.894   1.220   8.299
13881SOL     OW43416  11.939  13.366   7.980
13881SOL    HW143417  11.880  13.439   7.965
13881SOL    HW243418  11.882  13.291   7.997
13882SOL     OW43419   0.436   1.497   4.520
13882SOL    HW143420   0.388   1.537   4.593
13882SOL    HW243421   0.512   1.553   4.508
13883SOL     OW43422   2.623   1.236   4.106
13883SOL    HW143423   2.605   1.271   4.019
13883SOL    HW243424   2.705   1.278   4.133
13884SOL     OW43425  10.933   3.851   1.914
13884SOL    HW143426  10.881   3.832   1.992
13884SOL    HW243427  10.912   3.943   1.894
13885SOL     OW43428   3.369  14.786   0.131
13885SOL    HW143429   3.367  14.691   0.134
13885SOL    HW243430   3.451  14.807   0.087
13886SOL     OW43431  14.013   1.625   9.956
13886SOL    HW143432  13.962   1.565  10.011
13886SOL    HW243433  14.102   1.590   9.957
13887SOL     OW43434   5.992   7.656   3.786
13887SOL    HW143435   5.940   7.736   3.777
13887SOL    HW243436   5.927   7.586   3.792
13888SOL     OW43437   1.878  11.909   0.716
13888SOL    HW143438   1.947  11.965   0.751
13888SOL    HW243439   1.804  11.969   0.702
13889SOL     OW43440  11.385   0.101   9.924
13889SOL    HW143441  11.320   0.112   9.994
13889SOL    HW243442  11.333   0.073   9.848
13890SOL     OW43443  14.744  10.653   6.640
13890SOL    HW143444  14.651  10.635   6.654
13890SOL    HW243445  14.747  10.743   6.609
13891SOL     OW43446   3.078   6.125  11.990
13891SOL    HW143447   3.001   6.181  12.001
13891SOL    HW243448   3.090   6.084  12.076
13892SOL     OW43449   1.693   3.587   8.552
13892SOL    HW143450   1.776   3.630   8.531
13892SOL    HW243451   1.662   3.630   8.631
13893SOL     OW43452  14.857   3.474   5.386
13893SOL    HW143453   0.055   3.473   5.327
13893SOL    HW243454   0.017   3.471   5.474
13894SOL     OW43455   7.118   4.028   6.663
13894SOL    HW143456   7.111   4.066   6.576
13894SOL    HW243457   7.152   3.940   6.648
13895SOL     OW43458   8.056   7.323   1.372
13895SOL    HW143459   8.032   7.415   1.361
13895SOL    HW243460   7.989   7.287   1.430
13896SOL     OW43461   0.633   4.577  11.608
13896SOL    HW143462   0.596   4.521  11.539
13896SOL    HW243463   0.574   4.652  11.612
13897SOL     OW43464   5.888   3.358  10.488
13897SOL    HW143465   5.906   3.424  10.421
13897SOL    HW243466   5.793   3.349  10.488
13898SOL     OW43467  11.267   5.907   5.775
13898SOL    HW143468  11.275   5.969   5.703
13898SOL    HW243469  11.201   5.845   5.746
13899SOL     OW43470   7.580  13.176  11.292
13899SOL    HW143471   7.552  13.095  11.248
13899SOL    HW243472   7.628  13.224  11.224
13900SOL     OW43473  13.976   7.179   5.408
13900SOL    HW143474  14.037   7.204   5.478
13900SOL    HW243475  13.918   7.255   5.399
13901SOL     OW43476  11.440   1.346   5.328
13901SOL    HW143477  11.484   1.274   5.374
13901SOL    HW243478  11.468   1.336   5.237
13902SOL     OW43479  13.682   8.085   9.459
13902SOL    HW143480  13.762   8.065   9.509
13902SOL    HW243481  13.653   8.000   9.426
13903SOL     OW43482   8.396   2.251  12.508
13903SOL    HW143483   8.346   2.177  12.541
13903SOL    HW243484   8.367   2.326  12.560
13904SOL     OW43485   1.831  10.018   8.277
13904SOL    HW143486   1.846  10.097   8.329
13904SOL    HW243487   1.919   9.987   8.255
13905SOL     OW43488   0.639   6.081   1.222
13905SOL    HW143489   0.623   6.173   1.203
13905SOL    HW243490   0.616   6.035   1.142
13906SOL     OW43491   9.144   3.759   6.288
13906SOL    HW143492   9.152   3.842   6.242
13906SOL    HW243493   9.150   3.692   6.220
13907SOL     OW43494   1.828   0.840  12.498
13907SOL    HW143495   1.815   0.890  12.417
13907SOL    HW243496   1.758   0.870  12.556
13908SOL     OW43497  13.248   5.538  11.016
13908SOL    HW143498  13.327   5.590  11.030
13908SOL    HW243499  13.231   5.546  10.922
13909SOL     OW43500   2.204   4.377  11.037
13909SOL    HW143501   2.130   4.383  10.977
13909SOL    HW243502   2.163   4.376  11.124
13910SOL     OW43503   5.103  11.995  14.860
13910SOL    HW143504   5.044  11.948  14.801
13910SOL    HW243505   5.153  12.053  14.802
13911SOL     OW43506  13.100  13.919   0.828
13911SOL    HW143507  13.134  13.955   0.746
13911SOL    HW243508  13.026  13.976   0.850
13912SOL     OW43509  11.920  13.318   0.291
13912SOL    HW143510  11.922  13.248   0.357
13912SOL    HW243511  11.830  13.351   0.294
13913SOL     OW43512   3.093   4.788   8.596
13913SOL    HW143513   3.183   4.756   8.582
13913SOL    HW243514   3.059   4.802   8.508
13914SOL     OW43515   9.980   3.451   2.468
13914SOL    HW143516   9.978   3.543   2.443
13914SOL    HW243517   9.964   3.404   2.386
13915SOL     OW43518  10.151   6.834  13.262
13915SOL    HW143519  10.208   6.906  13.236
13915SOL    HW243520  10.099   6.870  13.334
13916SOL     OW43521   2.252  10.733   7.032
13916SOL    HW143522   2.169  10.770   7.061
13916SOL    HW243523   2.294  10.700   7.111
13917SOL     OW43524   5.880   0.856   8.069
13917SOL    HW143525   5.838   0.775   8.098
13917SOL    HW243526   5.884   0.910   8.148
13918SOL     OW43527  10.790   6.349   4.590
13918SOL    HW143528  10.803   6.256   4.569
13918SOL    HW243529  10.749   6.348   4.676
13919SOL     OW43530   4.822   0.023  10.268
13919SOL    HW143531   4.897   0.046  10.213
13919SOL    HW243532   4.818   0.092  10.334
13920SOL     OW43533  10.581   3.693  12.807
13920SOL    HW143534  10.535   3.611  12.790
13920SOL    HW243535  10.518   3.748  12.853
13921SOL     OW43536   5.094   5.302   5.391
13921SOL    HW143537   5.152   5.309   5.467
13921SOL    HW243538   5.123   5.371   5.332
13922SOL     OW43539   7.338   2.107   9.894
13922SOL    HW143540   7.327   2.017   9.924
13922SOL    HW243541   7.427   2.130   9.920
13923SOL     OW43542  11.629  11.775   4.186
13923SOL    HW143543  11.678  11.751   4.265
13923SOL    HW243544  11.670  11.725   4.116
13924SOL     OW43545   7.801   6.073   9.344
13924SOL    HW143546   7.809   6.168   9.351
13924SOL    HW243547   7.802   6.043   9.435
13925SOL     OW43548  10.076  12.395   9.243
13925SOL    HW143549  10.156  12.434   9.207
13925SOL    HW243550  10.021  12.376   9.167
13926SOL     OW43551  14.589   7.867   1.925
13926SOL    HW143552  14.591   7.774   1.949
13926SOL    HW243553  14.604   7.913   2.008
13927SOL     OW43554   2.087   6.243  14.584
13927SOL    HW143555   2.146   6.213  14.653
13927SOL    HW243556   2.076   6.166  14.528
13928SOL     OW43557   7.000  10.715   2.349
13928SOL    HW143558   7.052  10.772   2.292
13928SOL    HW243559   7.061  10.648   2.378
13929SOL     OW43560   4.432   8.477   1.606
13929SOL    HW143561   4.465   8.389   1.589
13929SOL    HW243562   4.496   8.535   1.564
13930SOL     OW43563   8.073   0.493   4.926
13930SOL    HW143564   8.123   0.481   5.007
13930SOL    HW243565   7.987   0.455   4.945
13931SOL     OW43566   7.510   3.397   7.545
13931SOL    HW143567   7.488   3.453   7.472
13931SOL    HW243568   7.596   3.428   7.575
13932SOL     OW43569   3.148  10.115   6.128
13932SOL    HW143570   3.127  10.096   6.220
13932SOL    HW243571   3.194  10.037   6.098
13933SOL     OW43572  11.469   8.539   1.958
13933SOL    HW143573  11.438   8.601   2.024
13933SOL    HW243574  11.401   8.473   1.953
13934SOL     OW43575   9.142   7.352  10.786
13934SOL    HW143576   9.170   7.381  10.699
13934SOL    HW243577   9.221   7.355  10.839
13935SOL     OW43578  12.569  10.986  11.172
13935SOL    HW143579  12.562  10.990  11.267
13935SOL    HW243580  12.507  11.052  11.140
13936SOL     OW43581   0.173   3.903   2.695
13936SOL    HW143582   0.133   3.848   2.763
13936SOL    HW243583   0.104   3.962   2.668
13937SOL     OW43584   9.932   7.888  12.324
13937SOL    HW143585   9.996   7.869  12.255
13937SOL    HW243586   9.978   7.868  12.405
13938SOL     OW43587  11.612  14.361   9.301
13938SOL    HW143588  11.527  14.371   9.258
13938SOL    HW243589  11.662  14.305   9.240
13939SOL     OW43590   2.753   0.219   0.561
13939SOL    HW143591   2.685   0.257   0.505
13939SOL    HW243592   2.835   0.233   0.513
13940SOL     OW43593   0.616   4.701  14.036
13940SOL    HW143594   0.552   4.631  14.024
13940SOL    HW243595   0.652   4.716  13.948
13941SOL     OW43596   5.768  11.094   1.173
13941SOL    HW143597   5.803  11.065   1.258
13941SOL    HW243598   5.726  11.016   1.137
13942SOL     OW43599   2.359   7.184  14.684
13942SOL    HW143600   2.372   7.272  14.649
13942SOL    HW243601   2.425   7.176  14.753
13943SOL     OW43602  13.918  12.103   3.204
13943SOL    HW143603  13.949  12.024   3.161
13943SOL    HW243604  13.945  12.175   3.146
13944SOL     OW43605   1.186   9.082   3.879
13944SOL    HW143606   1.225   9.021   3.942
13944SOL    HW243607   1.245   9.158   3.880
13945SOL     OW43608  11.115   4.721  14.840
13945SOL    HW143609  11.186   4.675  14.796
13945SOL    HW243610  11.123   4.696   0.054
13946SOL     OW43611  10.552   7.746   0.606
13946SOL    HW143612  10.620   7.695   0.561
13946SOL    HW243613  10.483   7.683   0.624
13947SOL     OW43614   0.372  13.046  13.878
13947SOL    HW143615   0.312  13.021  13.948
13947SOL    HW243616   0.373  13.141  13.881
13948SOL     OW43617  12.846   5.340   8.763
13948SOL    HW143618  12.820   5.430   8.784
13948SOL    HW243619  12.765   5.300   8.730
13949SOL     OW43620   5.043  14.598  13.142
13949SOL    HW143621   5.057  14.577  13.235
13949SOL    HW243622   5.010  14.517  13.104
13950SOL     OW43623  12.199   9.184   2.950
13950SOL    HW143624  12.214   9.247   2.881
13950SOL    HW243625  12.212   9.099   2.909
13951SOL     OW43626  11.265   6.551   9.053
13951SOL    HW143627  11.283   6.530   8.961
13951SOL    HW243628  11.342   6.519   9.100
13952SOL     OW43629  14.028   9.232  12.027
13952SOL    HW143630  14.102   9.274  12.070
13952SOL    HW243631  14.066   9.186  11.952
13953SOL     OW43632   0.729   5.543   1.033
13953SOL    HW143633   0.685   5.529   1.117
13953SOL    HW243634   0.727   5.457   0.991
13954SOL     OW43635  11.298  14.418  12.421
13954SOL    HW143636  11.228  14.378  12.473
13954SOL    HW243637  11.275  14.397  12.330
13955SOL     OW43638   1.975  10.251  13.738
13955SOL    HW143639   1.902  10.204  13.778
13955SOL    HW243640   1.936  10.330  13.700
13956SOL     OW43641   6.476   8.816  14.070
13956SOL    HW143642   6.472   8.770  13.986
13956SOL    HW243643   6.561   8.861  14.068
13957SOL     OW43644  13.502   9.180   9.720
13957SOL    HW143645  13.594   9.163   9.741
13957SOL    HW243646  13.454   9.149   9.797
13958SOL     OW43647  11.785   0.785  13.067
13958SOL    HW143648  11.829   0.707  13.031
13958SOL    HW243649  11.719   0.750  13.126
13959SOL     OW43650   1.788   3.181   6.009
13959SOL    HW143651   1.764   3.270   6.032
13959SOL    HW243652   1.759   3.170   5.918
13960SOL     OW43653   4.164   4.760   8.841
13960SOL    HW143654   4.112   4.715   8.907
13960SOL    HW243655   4.103   4.777   8.769
13961SOL     OW43656   0.495   6.711   0.030
13961SOL    HW143657   0.435   6.658  14.856
13961SOL    HW243658   0.581   6.671   0.017
13962SOL     OW43659   9.587  11.840  13.793
13962SOL    HW143660   9.667  11.797  13.822
13962SOL    HW243661   9.549  11.781  13.729
13963SOL     OW43662  12.113   9.942   4.086
13963SOL    HW143663  12.202   9.907   4.090
13963SOL    HW243664  12.068   9.886   4.022
13964SOL     OW43665  10.570  10.417   0.442
13964SOL    HW143666  10.620  10.373   0.374
13964SOL    HW243667  10.619  10.399   0.523
13965SOL     OW43668   1.709   1.981   7.140
13965SOL    HW143669   1.648   2.054   7.129
13965SOL    HW243670   1.757   1.977   7.058
13966SOL     OW43671   3.553   9.685   6.462
13966SOL    HW143672   3.489   9.636   6.514
13966SOL    HW243673   3.638   9.657   6.497
13967SOL     OW43674  12.963  10.113  11.303
13967SOL    HW143675  12.927  10.160  11.378
13967SOL    HW243676  12.942  10.167  11.227
13968SOL     OW43677   5.214   6.927  14.488
13968SOL    HW143678   5.193   6.948  14.397
13968SOL    HW243679   5.308   6.907  14.486
13969SOL     OW43680   2.384   9.953  10.592
13969SOL    HW143681   2.340   9.933  10.675
13969SOL    HW243682   2.333   9.906  10.526
13970SOL     OW43683   3.624   3.707  11.852
13970SOL    HW143684   3.640   3.799  11.873
13970SOL    HW243685   3.698   3.660  11.891
13971SOL     OW43686   0.518   4.238   3.001
13971SOL    HW143687   0.539   4.233   2.908
13971SOL    HW243688   0.601   4.257   3.045
13972SOL     OW43689   7.449   3.566   3.787
13972SOL    HW143690   7.486   3.600   3.706
13972SOL    HW243691   7.386   3.632   3.815
13973SOL     OW43692   5.628   5.066   8.021
13973SOL    HW143693   5.641   5.035   7.932
13973SOL    HW243694   5.714   5.057   8.063
13974SOL     OW43695   3.355   9.695  13.343
13974SOL    HW143696   3.434   9.706  13.395
13974SOL    HW243697   3.383   9.714  13.253
13975SOL     OW43698  10.982  11.419  14.758
13975SOL    HW143699  10.917  11.390  14.822
13975SOL    HW243700  11.017  11.500  14.794
13976SOL     OW43701  10.018   0.462   4.936
13976SOL    HW143702   9.923   0.469   4.944
13976SOL    HW243703  10.043   0.400   5.005
13977SOL     OW43704   8.142  12.378   5.228
13977SOL    HW143705   8.100  12.293   5.214
13977SOL    HW243706   8.084  12.424   5.288
13978SOL     OW43707   4.330   9.412   3.040
13978SOL    HW143708   4.294   9.393   3.126
13978SOL    HW243709   4.413   9.456   3.058
13979SOL     OW43710   0.124  12.592   3.444
13979SOL    HW143711   0.213  12.618   3.469
13979SOL    HW243712   0.099  12.527   3.509
13980SOL     OW43713   6.815   8.579  14.207
13980SOL    HW143714   6.839   8.634  14.132
13980SOL    HW243715   6.730   8.541  14.182
13981SOL     OW43716   3.571   9.996  13.988
13981SOL    HW143717   3.502   9.973  14.051
13981SOL    HW243718   3.652   9.992  14.039
13982SOL     OW43719   2.331   0.743  10.162
13982SOL    HW143720   2.425   0.723  10.158
13982SOL    HW243721   2.289   0.658  10.174
13983SOL     OW43722   4.747   0.909  13.036
13983SOL    HW143723   4.757   0.875  13.125
13983SOL    HW243724   4.736   1.003  13.047
13984SOL     OW43725  13.455  10.453   2.749
13984SOL    HW143726  13.437  10.516   2.818
13984SOL    HW243727  13.498  10.380   2.795
13985SOL     OW43728   8.542   8.279  13.463
13985SOL    HW143729   8.564   8.186  13.456
13985SOL    HW243730   8.511   8.290  13.553
13986SOL     OW43731   2.641  11.067  12.592
13986SOL    HW143732   2.576  11.053  12.661
13986SOL    HW243733   2.691  11.143  12.621
13987SOL     OW43734   7.968   4.293   0.769
13987SOL    HW143735   7.905   4.228   0.799
13987SOL    HW243736   7.958   4.295   0.673
13988SOL     OW43737  11.736   0.392   1.941
13988SOL    HW143738  11.648   0.358   1.930
13988SOL    HW243739  11.725   0.476   1.985
13989SOL     OW43740  12.127  12.622   8.513
13989SOL    HW143741  12.050  12.574   8.543
13989SOL    HW243742  12.115  12.632   8.419
13990SOL     OW43743   5.187  12.137   4.296
13990SOL    HW143744   5.207  12.215   4.347
13990SOL    HW243745   5.185  12.066   4.360
13991SOL     OW43746  13.119  13.764  13.843
13991SOL    HW143747  13.157  13.759  13.755
13991SOL    HW243748  13.104  13.858  13.857
13992SOL     OW43749   6.642   3.595   9.341
13992SOL    HW143750   6.657   3.606   9.247
13992SOL    HW243751   6.700   3.523   9.366
13993SOL     OW43752   2.596   9.537   4.080
13993SOL    HW143753   2.665   9.577   4.133
13993SOL    HW243754   2.515   9.557   4.127
13994SOL     OW43755   6.047  14.166  13.691
13994SOL    HW143756   6.000  14.117  13.758
13994SOL    HW243757   5.986  14.233  13.662
13995SOL     OW43758  10.465   5.459  11.653
13995SOL    HW143759  10.463   5.364  11.650
13995SOL    HW243760  10.500   5.479  11.740
13996SOL     OW43761   0.253   5.625   4.329
13996SOL    HW143762   0.262   5.642   4.235
13996SOL    HW243763   0.166   5.658   4.351
13997SOL     OW43764  13.221   2.086   4.729
13997SOL    HW143765  13.288   2.035   4.683
13997SOL    HW243766  13.215   2.046   4.815
13998SOL     OW43767  14.690  13.016  11.872
13998SOL    HW143768  14.676  12.954  11.801
13998SOL    HW243769  14.769  13.064  11.847
13999SOL     OW43770  14.794   9.001  11.145
13999SOL    HW143771  14.736   9.041  11.081
13999SOL    HW243772  14.835   8.928  11.099
14000SOL     OW43773  10.932  14.199   5.730
14000SOL    HW143774  11.019  14.237   5.743
14000SOL    HW243775  10.871  14.271   5.748
14001SOL     OW43776  13.681   5.413  12.417
14001SOL    HW143777  13.747   5.414  12.485
14001SOL    HW243778  13.730   5.420  12.335
14002SOL     OW43779   8.537   8.733   2.190
14002SOL    HW143780   8.606   8.776   2.240
14002SOL    HW243781   8.569   8.644   2.177
14003SOL     OW43782   4.419   1.277   6.239
14003SOL    HW143783   4.478   1.339   6.196
14003SOL    HW243784   4.396   1.320   6.321
14004SOL     OW43785   4.853   6.379   2.666
14004SOL    HW143786   4.800   6.425   2.732
14004SOL    HW243787   4.915   6.327   2.717
14005SOL     OW43788  10.289   7.624   1.619
14005SOL    HW143789  10.344   7.701   1.609
14005SOL    HW243790  10.350   7.551   1.632
14006SOL     OW43791  11.173  11.406   1.876
14006SOL    HW143792  11.162  11.386   1.969
14006SOL    HW243793  11.252  11.460   1.873
14007SOL     OW43794  12.122   5.982   2.199
14007SOL    HW143795  12.202   6.033   2.185
14007SOL    HW243796  12.051   6.045   2.185
14008SOL     OW43797   5.038   3.980   6.630
14008SOL    HW143798   5.119   4.024   6.606
14008SOL    HW243799   5.018   4.014   6.717
14009SOL     OW43800  13.614   4.107  12.312
14009SOL    HW143801  13.544   4.124  12.249
14009SOL    HW243802  13.570   4.066  12.386
14010SOL     OW43803   1.157   4.156   8.741
14010SOL    HW143804   1.217   4.218   8.783
14010SOL    HW243805   1.088   4.142   8.806
14011SOL     OW43806   3.650   7.283   9.266
14011SOL    HW143807   3.621   7.373   9.276
14011SOL    HW243808   3.731   7.278   9.317
14012SOL     OW43809  14.550  12.642   3.848
14012SOL    HW143810  14.497  12.562   3.847
14012SOL    HW243811  14.603  12.634   3.927
14013SOL     OW43812   0.232   0.633   3.273
14013SOL    HW143813   0.196   0.608   3.358
14013SOL    HW243814   0.312   0.581   3.265
14014SOL     OW43815   3.534   7.496   1.288
14014SOL    HW143816   3.578   7.415   1.260
14014SOL    HW243817   3.525   7.547   1.207
14015SOL     OW43818  14.141   2.471  10.320
14015SOL    HW143819  14.178   2.448  10.405
14015SOL    HW243820  14.105   2.559  10.334
14016SOL     OW43821   3.494   7.495  12.710
14016SOL    HW143822   3.581   7.478  12.673
14016SOL    HW243823   3.509   7.568  12.771
14017SOL     OW43824  13.658   5.367   8.132
14017SOL    HW143825  13.700   5.338   8.213
14017SOL    HW243826  13.649   5.288   8.080
14018SOL     OW43827  11.427   7.769  14.753
14018SOL    HW143828  11.367   7.843  14.749
14018SOL    HW243829  11.468   7.776  14.839
14019SOL     OW43830   0.016   5.075   6.025
14019SOL    HW143831   0.048   5.141   5.963
14019SOL    HW243832   0.010   4.995   5.972
14020SOL     OW43833   6.233   1.076   4.965
14020SOL    HW143834   6.238   1.116   5.052
14020SOL    HW243835   6.222   1.149   4.905
14021SOL     OW43836   6.328   0.004   4.120
14021SOL    HW143837   6.338  14.843   4.207
14021SOL    HW243838   6.309  14.807   4.063
14022SOL     OW43839  12.984   7.423   3.192
14022SOL    HW143840  13.005   7.513   3.165
14022SOL    HW243841  12.894   7.410   3.161
14023SOL     OW43842  12.781   9.725  14.645
14023SOL    HW143843  12.784   9.809  14.601
14023SOL    HW243844  12.772   9.660  14.575
14024SOL     OW43845  10.644   7.601  11.523
14024SOL    HW143846  10.558   7.583  11.483
14024SOL    HW243847  10.645   7.547  11.602
14025SOL     OW43848  10.621   2.524  11.527
14025SOL    HW143849  10.574   2.444  11.551
14025SOL    HW243850  10.660   2.555  11.609
14026SOL     OW43851  10.043   9.196  11.975
14026SOL    HW143852  10.129   9.229  11.949
14026SOL    HW243853   9.981   9.239  11.916
14027SOL     OW43854   4.208   0.120   6.247
14027SOL    HW143855   4.240   0.203   6.281
14027SOL    HW243856   4.213   0.129   6.152
14028SOL     OW43857   4.975   4.890  12.927
14028SOL    HW143858   4.894   4.853  12.963
14028SOL    HW243859   4.947   4.936  12.848
14029SOL     OW43860   4.400  10.092  13.559
14029SOL    HW143861   4.445  10.092  13.643
14029SOL    HW243862   4.320  10.141  13.575
14030SOL     OW43863  14.412   8.301   1.461
14030SOL    HW143864  14.391   8.328   1.371
14030SOL    HW243865  14.437   8.209   1.453
14031SOL     OW43866   2.289  12.059  12.804
14031SOL    HW143867   2.214  12.118  12.798
14031SOL    HW243868   2.298  12.022  12.716
14032SOL     OW43869   0.048   0.910   0.852
14032SOL    HW143870   0.046   0.851   0.927
14032SOL    HW243871   0.104   0.865   0.788
14033SOL     OW43872  10.089   7.753  11.893
14033SOL    HW143873  10.008   7.779  11.850
14033SOL    HW243874  10.112   7.826  11.949
14034SOL     OW43875  10.486   7.313   2.207
14034SOL    HW143876  10.466   7.380   2.142
14034SOL    HW243877  10.409   7.311   2.264
14035SOL     OW43878  14.411   5.645   1.117
14035SOL    HW143879  14.367   5.694   1.186
14035SOL    HW243880  14.474   5.589   1.163
14036SOL     OW43881  11.499  10.319   1.272
14036SOL    HW143882  11.548  10.336   1.191
14036SOL    HW243883  11.426  10.381   1.269
14037SOL     OW43884   9.628  13.649  14.535
14037SOL    HW143885   9.700  13.605  14.581
14037SOL    HW243886   9.645  13.743  14.550
14038SOL     OW43887   4.532  14.315   9.650
14038SOL    HW143888   4.480  14.325   9.570
14038SOL    HW243889   4.534  14.221   9.666
14039SOL     OW43890  12.196   6.754  13.113
14039SOL    HW143891  12.193   6.678  13.172
14039SOL    HW243892  12.237   6.823  13.165
14040SOL     OW43893   0.573   3.738  12.228
14040SOL    HW143894   0.587   3.828  12.200
14040SOL    HW243895   0.636   3.725  12.300
14041SOL     OW43896   8.862   2.036   2.100
14041SOL    HW143897   8.918   2.093   2.153
14041SOL    HW243898   8.915   1.957   2.087
14042SOL     OW43899   9.063   8.017  13.239
14042SOL    HW143900   9.012   8.054  13.167
14042SOL    HW243901   9.101   8.093  13.283
14043SOL     OW43902   3.104   5.461   6.425
14043SOL    HW143903   3.163   5.535   6.415
14043SOL    HW243904   3.107   5.417   6.340
14044SOL     OW43905   7.350   2.365  10.282
14044SOL    HW143906   7.409   2.329  10.348
14044SOL    HW243907   7.409   2.402  10.215
14045SOL     OW43908   1.688   9.188   3.865
14045SOL    HW143909   1.753   9.258   3.861
14045SOL    HW243910   1.652   9.184   3.776
14046SOL     OW43911   0.464  14.033  12.637
14046SOL    HW143912   0.478  14.080  12.555
14046SOL    HW243913   0.553  14.016  12.670
14047SOL     OW43914   2.295   1.516   1.824
14047SOL    HW143915   2.386   1.489   1.832
14047SOL    HW243916   2.252   1.443   1.780
14048SOL     OW43917   8.118   9.571  10.707
14048SOL    HW143918   8.039   9.625  10.704
14048SOL    HW243919   8.180   9.623  10.758
14049SOL     OW43920   0.790  10.921  11.819
14049SOL    HW143921   0.816  10.841  11.772
14049SOL    HW243922   0.699  10.935  11.793
14050SOL     OW43923   1.094   5.161  13.922
14050SOL    HW143924   1.118   5.073  13.953
14050SOL    HW243925   1.071   5.148  13.830
14051SOL     OW43926   5.487  11.704   3.692
14051SOL    HW143927   5.526  11.656   3.765
14051SOL    HW243928   5.501  11.796   3.713
14052SOL     OW43929   2.298   3.291  13.329
14052SOL    HW143930   2.206   3.289  13.302
14052SOL    HW243931   2.345   3.316  13.249
14053SOL     OW43932   9.564   5.731  12.136
14053SOL    HW143933   9.517   5.706  12.215
14053SOL    HW243934   9.641   5.674  12.134
14054SOL     OW43935  13.059  10.535  11.018
14054SOL    HW143936  13.015  10.517  10.935
14054SOL    HW243937  13.124  10.466  11.027
14055SOL     OW43938   5.352   0.152   5.716
14055SOL    HW143939   5.304   0.116   5.790
14055SOL    HW243940   5.311   0.112   5.639
14056SOL     OW43941  10.113  12.152   2.086
14056SOL    HW143942  10.132  12.191   2.000
14056SOL    HW243943  10.165  12.071   2.087
14057SOL     OW43944  10.822   6.579   0.164
14057SOL    HW143945  10.885   6.535   0.221
14057SOL    HW243946  10.779   6.508   0.116
14058SOL     OW43947   0.846   7.404   2.302
14058SOL    HW143948   0.777   7.466   2.324
14058SOL    HW243949   0.816   7.321   2.339
14059SOL     OW43950   7.500   2.483   4.946
14059SOL    HW143951   7.558   2.492   4.870
14059SOL    HW243952   7.559   2.483   5.021
14060SOL     OW43953  11.426  11.116  10.832
14060SOL    HW143954  11.394  11.069  10.754
14060SOL    HW243955  11.508  11.072  10.855
14061SOL     OW43956   4.248   6.921   0.244
14061SOL    HW143957   4.336   6.938   0.277
14061SOL    HW243958   4.254   6.835   0.203
14062SOL     OW43959  12.473   7.983   8.852
14062SOL    HW143960  12.556   8.012   8.813
14062SOL    HW243961  12.421   7.953   8.777
14063SOL     OW43962  14.424  10.523   4.959
14063SOL    HW143963  14.340  10.568   4.947
14063SOL    HW243964  14.478  10.586   5.008
14064SOL     OW43965  14.824   6.974   1.688
14064SOL    HW143966  14.777   6.892   1.676
14064SOL    HW243967   0.019   6.970   1.626
14065SOL     OW43968   9.149   8.748  10.112
14065SOL    HW143969   9.166   8.803  10.036
14065SOL    HW243970   9.058   8.719  10.101
14066SOL     OW43971   6.092  10.387   3.286
14066SOL    HW143972   6.037  10.337   3.347
14066SOL    HW243973   6.182  10.365   3.312
14067SOL     OW43974   6.729  12.587   3.345
14067SOL    HW143975   6.691  12.504   3.316
14067SOL    HW243976   6.823  12.569   3.352
14068SOL     OW43977   8.573  10.335   4.743
14068SOL    HW143978   8.628  10.260   4.765
14068SOL    HW243979   8.604  10.405   4.802
14069SOL     OW43980   0.190   3.802   6.961
14069SOL    HW143981   0.168   3.727   6.906
14069SOL    HW243982   0.222   3.868   6.900
14070SOL     OW43983   1.371   4.297   8.034
14070SOL    HW143984   1.350   4.299   8.127
14070SOL    HW243985   1.369   4.203   8.012
14071SOL     OW43986   1.667   8.714   7.382
14071SOL    HW143987   1.728   8.785   7.362
14071SOL    HW243988   1.708   8.637   7.344
14072SOL     OW43989   5.187   4.653   5.511
14072SOL    HW143990   5.212   4.745   5.510
14072SOL    HW243991   5.229   4.615   5.434
14073SOL     OW43992   3.360   8.772   9.520
14073SOL    HW143993   3.285   8.719   9.494
14073SOL    HW243994   3.323   8.860   9.531
14074SOL     OW43995   2.891   6.513   9.199
14074SOL    HW143996   2.970   6.479   9.158
14074SOL    HW243997   2.912   6.604   9.220
14075SOL     OW43998  10.382  12.861  12.284
14075SOL    HW143999  10.371  12.950  12.250
14075SOL    HW244000  10.311  12.812  12.243
14076SOL     OW44001   9.119   3.009   6.813
14076SOL    HW144002   9.127   3.076   6.881
14076SOL    HW244003   9.061   2.944   6.851
14077SOL     OW44004  14.869   2.173   7.190
14077SOL    HW144005   0.061   2.167   7.125
14077SOL    HW244006  14.791   2.142   7.144
14078SOL     OW44007   1.403   7.517   9.640
14078SOL    HW144008   1.465   7.499   9.569
14078SOL    HW244009   1.318   7.520   9.596
14079SOL     OW44010   4.745  12.014  14.802
14079SOL    HW144011   4.683  12.013  14.729
14079SOL    HW244012   4.796  12.094  14.790
14080SOL     OW44013  12.201  11.534  11.454
14080SOL    HW144014  12.190  11.498  11.366
14080SOL    HW244015  12.194  11.629  11.442
14081SOL     OW44016   0.923   3.292  12.380
14081SOL    HW144017   0.948   3.243  12.302
14081SOL    HW244018   0.933   3.383  12.355
14082SOL     OW44019   1.251   8.077   7.170
14082SOL    HW144020   1.208   8.160   7.190
14082SOL    HW244021   1.343   8.092   7.195
14083SOL     OW44022  12.560  10.213   6.009
14083SOL    HW144023  12.648  10.242   6.034
14083SOL    HW244024  12.501  10.264   6.063
14084SOL     OW44025   8.149  13.689   8.262
14084SOL    HW144026   8.157  13.646   8.177
14084SOL    HW244027   8.152  13.618   8.326
14085SOL     OW44028   1.107  13.150  10.079
14085SOL    HW144029   1.058  13.232  10.085
14085SOL    HW244030   1.155  13.144  10.162
14086SOL     OW44031   4.598   1.724   3.956
14086SOL    HW144032   4.667   1.664   3.928
14086SOL    HW244033   4.524   1.704   3.898
14087SOL     OW44034   7.352  10.787  13.543
14087SOL    HW144035   7.443  10.813  13.555
14087SOL    HW244036   7.328  10.823  13.457
14088SOL     OW44037   9.488   3.628  12.541
14088SOL    HW144038   9.538   3.687  12.598
14088SOL    HW244039   9.425   3.586  12.600
14089SOL     OW44040   7.090  14.528   7.276
14089SOL    HW144041   7.040  14.604   7.250
14089SOL    HW244042   7.153  14.514   7.205
14090SOL     OW44043   4.813  12.590   3.852
14090SOL    HW144044   4.736  12.568   3.904
14090SOL    HW244045   4.809  12.530   3.777
14091SOL     OW44046   1.832  10.078   4.855
14091SOL    HW144047   1.831  10.159   4.803
14091SOL    HW244048   1.817  10.008   4.792
14092SOL     OW44049   7.336   2.334  14.456
14092SOL    HW144050   7.251   2.317  14.416
14092SOL    HW244051   7.342   2.430  14.461
14093SOL     OW44052   2.150  14.870   6.132
14093SOL    HW144053   2.239  14.845   6.106
14093SOL    HW244054   2.152  14.869   6.227
14094SOL     OW44055   7.935   1.456  12.846
14094SOL    HW144056   7.952   1.534  12.793
14094SOL    HW244057   7.849   1.425  12.815
14095SOL     OW44058  12.696   5.879  10.233
14095SOL    HW144059  12.672   5.964  10.195
14095SOL    HW244060  12.628   5.862  10.298
14096SOL     OW44061  12.540  14.728  13.086
14096SOL    HW144062  12.594  14.731  13.165
14096SOL    HW244063  12.471  14.793  13.102
14097SOL     OW44064   2.728   9.302  11.290
14097SOL    HW144065   2.818   9.334  11.296
14097SOL    HW244066   2.694   9.310  11.379
14098SOL     OW44067  13.763   0.966  12.137
14098SOL    HW144068  13.831   1.034  12.134
14098SOL    HW244069  13.812   0.884  12.146
14099SOL     OW44070   2.219   5.792  11.010
14099SOL    HW144071   2.305   5.795  10.968
14099SOL    HW244072   2.222   5.861  11.075
14100SOL     OW44073   3.166   3.166   5.015
14100SOL    HW144074   3.168   3.108   5.092
14100SOL    HW244075   3.110   3.120   4.953
14101SOL     OW44076   9.455  12.288  10.832
14101SOL    HW144077   9.470  12.374  10.871
14101SOL    HW244078   9.526  12.277  10.769
14102SOL     OW44079   0.877  12.135   9.631
14102SOL    HW144080   0.820  12.160   9.704
14102SOL    HW244081   0.945  12.202   9.630
14103SOL     OW44082   9.549   1.034   5.242
14103SOL    HW144083   9.508   0.948   5.247
14103SOL    HW244084   9.638   1.020   5.274
14104SOL     OW44085   0.016   6.898   4.721
14104SOL    HW144086  14.802   6.906   4.698
14104SOL    HW244087   0.021   6.820   4.777
14105SOL     OW44088   4.102  10.908   1.046
14105SOL    HW144089   4.032  10.845   1.027
14105SOL    HW244090   4.060  10.993   1.039
14106SOL     OW44091  12.716  12.925  13.209
14106SOL    HW144092  12.672  12.960  13.132
14106SOL    HW244093  12.707  12.830  13.201
14107SOL     OW44094   4.561  11.485  14.419
14107SOL    HW144095   4.573  11.454  14.329
14107SOL    HW244096   4.536  11.577  14.409
14108SOL     OW44097   7.212  14.679  13.411
14108SOL    HW144098   7.221  14.596  13.458
14108SOL    HW244099   7.285  14.680  13.350
14109SOL     OW44100   2.545  10.555   1.189
14109SOL    HW144101   2.522  10.488   1.125
14109SOL    HW244102   2.618  10.517   1.238
14110SOL     OW44103   0.151   7.856   7.014
14110SOL    HW144104   0.064   7.896   7.021
14110SOL    HW244105   0.211   7.930   7.011
14111SOL     OW44106   8.910   4.725   2.509
14111SOL    HW144107   8.853   4.783   2.559
14111SOL    HW244108   8.864   4.641   2.507
14112SOL     OW44109   1.627   6.160  12.481
14112SOL    HW144110   1.585   6.198  12.404
14112SOL    HW244111   1.556   6.143  12.542
14113SOL     OW44112  11.724   5.835   6.276
14113SOL    HW144113  11.806   5.788   6.295
14113SOL    HW244114  11.668   5.768   6.237
14114SOL     OW44115   0.608   9.452  11.402
14114SOL    HW144116   0.518   9.486  11.395
14114SOL    HW244117   0.600   9.360  11.374
14115SOL     OW44118   5.119  11.661   6.323
14115SOL    HW144119   5.187  11.710   6.276
14115SOL    HW244120   5.144  11.569   6.312
14116SOL     OW44121   3.642   0.135   2.851
14116SOL    HW144122   3.651   0.141   2.756
14116SOL    HW244123   3.598   0.052   2.866
14117SOL     OW44124  10.018   7.233   4.381
14117SOL    HW144125   9.939   7.279   4.409
14117SOL    HW244126  10.079   7.244   4.454
14118SOL     OW44127  11.633   6.704  12.168
14118SOL    HW144128  11.564   6.675  12.227
14118SOL    HW244129  11.714   6.688  12.216
14119SOL     OW44130   2.458   8.857   6.363
14119SOL    HW144131   2.401   8.780   6.361
14119SOL    HW244132   2.495   8.862   6.275
14120SOL     OW44133   0.488  13.813   2.115
14120SOL    HW144134   0.495  13.894   2.166
14120SOL    HW244135   0.577  13.779   2.110
14121SOL     OW44136  14.644   6.360   4.969
14121SOL    HW144137  14.734   6.348   4.998
14121SOL    HW244138  14.638   6.452   4.945
14122SOL     OW44139   4.726   9.763   4.904
14122SOL    HW144140   4.713   9.779   4.997
14122SOL    HW244141   4.788   9.831   4.876
14123SOL     OW44142   9.187  11.325   8.509
14123SOL    HW144143   9.143  11.389   8.565
14123SOL    HW244144   9.117  11.292   8.453
14124SOL     OW44145  12.454   6.148  11.961
14124SOL    HW144146  12.409   6.069  11.991
14124SOL    HW244147  12.388   6.196  11.911
14125SOL     OW44148  14.411   8.535  12.748
14125SOL    HW144149  14.336   8.581  12.784
14125SOL    HW244150  14.421   8.458  12.804
14126SOL     OW44151   5.486   8.323   6.863
14126SOL    HW144152   5.477   8.360   6.951
14126SOL    HW244153   5.404   8.345   6.819
14127SOL     OW44154   3.253   5.393   2.237
14127SOL    HW144155   3.310   5.458   2.196
14127SOL    HW244156   3.287   5.383   2.325
14128SOL     OW44157   8.128   1.179  10.199
14128SOL    HW144158   8.125   1.244  10.269
14128SOL    HW244159   8.156   1.098  10.243
14129SOL     OW44160   7.686  11.304  11.857
14129SOL    HW144161   7.663  11.291  11.949
14129SOL    HW244162   7.628  11.244  11.809
14130SOL     OW44163  12.331   8.841  13.909
14130SOL    HW144164  12.271   8.904  13.869
14130SOL    HW244165  12.308   8.757  13.867
14131SOL     OW44166  14.189  11.392   3.424
14131SOL    HW144167  14.118  11.440   3.467
14131SOL    HW244168  14.219  11.450   3.354
14132SOL     OW44169   4.315  13.804   2.860
14132SOL    HW144170   4.319  13.809   2.765
14132SOL    HW244171   4.373  13.874   2.891
14133SOL     OW44172   8.138   5.830  12.036
14133SOL    HW144173   8.072   5.798  12.097
14133SOL    HW244174   8.149   5.922  12.059
14134SOL     OW44175   6.127   7.185  11.985
14134SOL    HW144176   6.160   7.104  12.026
14134SOL    HW244177   6.034   7.185  12.007
14135SOL     OW44178  14.008  13.903   4.781
14135SOL    HW144179  13.965  13.984   4.754
14135SOL    HW244180  14.029  13.859   4.698
14136SOL     OW44181   9.204   1.733   8.926
14136SOL    HW144182   9.110   1.715   8.929
14136SOL    HW244183   9.216   1.809   8.982
14137SOL     OW44184  13.910   0.760   8.333
14137SOL    HW144185  13.867   0.712   8.405
14137SOL    HW244186  13.894   0.852   8.353
14138SOL     OW44187   5.964   5.496   4.689
14138SOL    HW144188   6.017   5.571   4.662
14138SOL    HW244189   5.898   5.532   4.747
14139SOL     OW44190   7.969  11.731  14.274
14139SOL    HW144191   8.028  11.681  14.330
14139SOL    HW244192   7.932  11.666  14.214
14140SOL     OW44193   8.026  13.313  14.430
14140SOL    HW144194   7.932  13.321  14.446
14140SOL    HW244195   8.058  13.403  14.425
14141SOL     OW44196   0.163   7.718   4.353
14141SOL    HW144197   0.231   7.774   4.390
14141SOL    HW244198   0.101   7.706   4.425
14142SOL     OW44199   3.080  12.760   6.096
14142SOL    HW144200   3.100  12.819   6.168
14142SOL    HW244201   3.075  12.673   6.136
14143SOL     OW44202  14.515  10.985   4.740
14143SOL    HW144203  14.577  11.057   4.735
14143SOL    HW244204  14.567  10.907   4.717
14144SOL     OW44205   9.698   9.795   7.736
14144SOL    HW144206   9.674   9.794   7.644
14144SOL    HW244207   9.693   9.888   7.761
14145SOL     OW44208   3.727  12.768  12.162
14145SOL    HW144209   3.662  12.806  12.222
14145SOL    HW244210   3.753  12.687  12.205
14146SOL     OW44211  14.080   3.140   9.974
14146SOL    HW144212  14.035   3.056   9.963
14146SOL    HW244213  14.071   3.183   9.889
14147SOL     OW44214   6.717   2.903  10.258
14147SOL    HW144215   6.738   2.888  10.166
14147SOL    HW244216   6.623   2.923  10.259
14148SOL     OW44217   3.724   9.438   8.249
14148SOL    HW144218   3.666   9.409   8.320
14148SOL    HW244219   3.716   9.369   8.183
14149SOL     OW44220   4.611   7.115  10.401
14149SOL    HW144221   4.594   7.160  10.318
14149SOL    HW244222   4.556   7.036  10.397
14150SOL     OW44223   6.765   2.920   0.256
14150SOL    HW144224   6.717   2.868   0.192
14150SOL    HW244225   6.706   2.993   0.277
14151SOL     OW44226   2.799   7.817  12.720
14151SOL    HW144227   2.718   7.765  12.721
14151SOL    HW244228   2.840   7.800  12.804
14152SOL     OW44229   8.292   6.356   5.714
14152SOL    HW144230   8.346   6.421   5.760
14152SOL    HW244231   8.301   6.277   5.766
14153SOL     OW44232   1.754   3.729   3.351
14153SOL    HW144233   1.690   3.729   3.423
14153SOL    HW244234   1.729   3.803   3.296
14154SOL     OW44235   2.456  10.316   0.182
14154SOL    HW144236   2.518  10.270   0.126
14154SOL    HW244237   2.468  10.408   0.161
14155SOL     OW44238   3.223   5.988  13.138
14155SOL    HW144239   3.316   5.983  13.116
14155SOL    HW244240   3.178   5.988  13.054
14156SOL     OW44241   2.190  11.330   6.259
14156SOL    HW144242   2.167  11.282   6.179
14156SOL    HW244243   2.281  11.305   6.276
14157SOL     OW44244   6.627   7.772   1.326
14157SOL    HW144245   6.566   7.840   1.299
14157SOL    HW244246   6.572   7.701   1.358
14158SOL     OW44247  12.697   3.795  10.341
14158SOL    HW144248  12.733   3.725  10.396
14158SOL    HW244249  12.696   3.872  10.398
14159SOL     OW44250  10.059   3.334   2.689
14159SOL    HW144251  10.055   3.386   2.609
14159SOL    HW244252  10.152   3.329   2.710
14160SOL     OW44253  14.816  11.724   5.049
14160SOL    HW144254  14.775  11.647   5.011
14160SOL    HW244255  14.837  11.699   5.139
14161SOL     OW44256   7.919  14.541   2.557
14161SOL    HW144257   7.942  14.516   2.468
14161SOL    HW244258   7.866  14.620   2.547
14162SOL     OW44259   2.759   3.804   5.997
14162SOL    HW144260   2.819   3.785   5.924
14162SOL    HW244261   2.816   3.835   6.067
14163SOL     OW44262   2.698   5.953   3.718
14163SOL    HW144263   2.691   6.035   3.766
14163SOL    HW244264   2.609   5.917   3.719
14164SOL     OW44265  14.873   8.666   4.053
14164SOL    HW144266   0.086   8.643   4.034
14164SOL    HW244267   0.001   8.739   4.115
14165SOL     OW44268   8.834   8.190  10.431
14165SOL    HW144269   8.858   8.167  10.341
14165SOL    HW244270   8.740   8.172  10.436
14166SOL     OW44271   0.824   1.070   8.258
14166SOL    HW144272   0.754   1.056   8.321
14166SOL    HW244273   0.780   1.071   8.173
14167SOL     OW44274   6.152   5.014   8.107
14167SOL    HW144275   6.195   5.021   8.021
14167SOL    HW244276   6.219   4.978   8.164
14168SOL     OW44277  11.375   6.874   0.692
14168SOL    HW144278  11.338   6.824   0.765
14168SOL    HW244279  11.470   6.869   0.705
14169SOL     OW44280  14.657   1.359   4.743
14169SOL    HW144281  14.690   1.449   4.750
14169SOL    HW244282  14.563   1.368   4.758
14170SOL     OW44283   7.335  12.689  14.155
14170SOL    HW144284   7.333  12.785  14.158
14170SOL    HW244285   7.284  12.662  14.231
14171SOL     OW44286   1.276  12.649  12.218
14171SOL    HW144287   1.206  12.713  12.205
14171SOL    HW244288   1.230  12.567  12.235
14172SOL     OW44289   2.767   9.721   7.960
14172SOL    HW144290   2.679   9.744   7.931
14172SOL    HW244291   2.764   9.727   8.055
14173SOL     OW44292   0.705   9.468   9.106
14173SOL    HW144293   0.661   9.499   9.027
14173SOL    HW244294   0.720   9.548   9.157
14174SOL     OW44295   9.336  14.179   6.650
14174SOL    HW144296   9.315  14.102   6.704
14174SOL    HW244297   9.371  14.243   6.712
14175SOL     OW44298  13.003   0.578  10.403
14175SOL    HW144299  13.090   0.564  10.364
14175SOL    HW244300  13.005   0.669  10.433
14176SOL     OW44301  12.955  12.007   8.206
14176SOL    HW144302  12.890  12.075   8.187
14176SOL    HW244303  13.040  12.050   8.192
14177SOL     OW44304   0.652   3.909  14.646
14177SOL    HW144305   0.563   3.875  14.649
14177SOL    HW244306   0.681   3.908  14.737
14178SOL     OW44307   3.941  10.720  12.499
14178SOL    HW144308   3.952  10.758  12.586
14178SOL    HW244309   3.902  10.789  12.447
14179SOL     OW44310  12.036   7.599  12.179
14179SOL    HW144311  12.107   7.555  12.133
14179SOL    HW244312  11.988   7.645  12.110
14180SOL     OW44313  12.413   0.134  10.122
14180SOL    HW144314  12.329   0.171  10.148
14180SOL    HW244315  12.449   0.096  10.202
14181SOL     OW44316   8.121  11.989  11.367
14181SOL    HW144317   8.035  11.950  11.353
14181SOL    HW244318   8.156  12.003  11.279
14182SOL     OW44319   3.734   4.330   5.627
14182SOL    HW144320   3.740   4.423   5.650
14182SOL    HW244321   3.784   4.323   5.545
14183SOL     OW44322   0.225   2.884  10.273
14183SOL    HW144323   0.282   2.933  10.332
14183SOL    HW244324   0.232   2.930  10.190
14184SOL     OW44325   2.001  10.117   8.849
14184SOL    HW144326   1.953  10.081   8.923
14184SOL    HW244327   2.070  10.052   8.831
14185SOL     OW44328   9.145   1.955   6.769
14185SOL    HW144329   9.234   1.931   6.793
14185SOL    HW244330   9.152   1.995   6.683
14186SOL     OW44331   4.761   3.966   9.973
14186SOL    HW144332   4.811   3.946  10.052
14186SOL    HW244333   4.795   4.051   9.945
14187SOL     OW44334   6.284   2.568   9.219
14187SOL    HW144335   6.234   2.510   9.275
14187SOL    HW244336   6.358   2.597   9.273
14188SOL     OW44337   5.531   8.604   0.247
14188SOL    HW144338   5.605   8.594   0.187
14188SOL    HW244339   5.490   8.518   0.248
14189SOL     OW44340   6.487  13.911  11.395
14189SOL    HW144341   6.412  13.967  11.376
14189SOL    HW244342   6.452  13.837  11.444
14190SOL     OW44343  12.793   5.359   5.891
14190SOL    HW144344  12.773   5.281   5.839
14190SOL    HW244345  12.749   5.345   5.975
14191SOL     OW44346   3.099  12.514   4.565
14191SOL    HW144347   3.133  12.471   4.643
14191SOL    HW244348   3.173  12.565   4.531
14192SOL     OW44349   9.357   5.093   3.036
14192SOL    HW144350   9.365   5.163   2.971
14192SOL    HW244351   9.275   5.048   3.013
14193SOL     OW44352  11.085   6.853   9.877
14193SOL    HW144353  11.076   6.941   9.913
14193SOL    HW244354  11.063   6.863   9.785
14194SOL     OW44355  13.821  11.606   3.095
14194SOL    HW144356  13.780  11.537   3.146
14194SOL    HW244357  13.752  11.672   3.084
14195SOL     OW44358   5.356   0.004   8.843
14195SOL    HW144359   5.432  14.840   8.802
14195SOL    HW244360   5.293   0.014   8.772
14196SOL     OW44361   2.433   8.806   3.687
14196SOL    HW144362   2.393   8.799   3.774
14196SOL    HW244363   2.523   8.775   3.700
14197SOL     OW44364  11.958   7.824   9.629
14197SOL    HW144365  11.923   7.803   9.542
14197SOL    HW244366  12.038   7.771   9.635
14198SOL     OW44367   2.485   6.457   9.679
14198SOL    HW144368   2.552   6.421   9.620
14198SOL    HW244369   2.518   6.544   9.703
14199SOL     OW44370  14.796  10.004  14.609
14199SOL    HW144371  14.759  10.063  14.676
14199SOL    HW244372  14.855   9.947  14.658
14200SOL     OW44373  13.228   4.640   1.869
14200SOL    HW144374  13.213   4.728   1.835
14200SOL    HW244375  13.181   4.582   1.809
14201SOL     OW44376   9.685   1.563   9.433
14201SOL    HW144377   9.619   1.614   9.480
14201SOL    HW244378   9.661   1.571   9.341
14202SOL     OW44379   3.733  13.671  12.131
14202SOL    HW144380   3.750  13.728  12.206
14202SOL    HW244381   3.664  13.612  12.162
14203SOL     OW44382  10.937  14.085  10.137
14203SOL    HW144383  10.993  14.163  10.144
14203SOL    HW244384  10.850  14.117  10.158
14204SOL     OW44385   0.389   3.224  14.393
14204SOL    HW144386   0.441   3.167  14.337
14204SOL    HW244387   0.446   3.242  14.468
14205SOL     OW44388   3.131  11.632   3.011
14205SOL    HW144389   3.139  11.719   2.971
14205SOL    HW244390   3.172  11.641   3.097
14206SOL     OW44391   0.678   7.711   4.214
14206SOL    HW144392   0.730   7.633   4.194
14206SOL    HW244393   0.739   7.769   4.260
14207SOL     OW44394  12.586  10.747  10.378
14207SOL    HW144395  12.589  10.701  10.462
14207SOL    HW244396  12.611  10.681  10.314
14208SOL     OW44397   1.626   0.678  10.258
14208SOL    HW144398   1.622   0.687  10.163
14208SOL    HW244399   1.701   0.732  10.284
14209SOL     OW44400   6.227  12.570   4.971
14209SOL    HW144401   6.314  12.589   5.007
14209SOL    HW244402   6.244  12.546   4.880
14210SOL     OW44403   2.794  11.615   4.706
14210SOL    HW144404   2.888  11.627   4.724
14210SOL    HW244405   2.762  11.566   4.782
14211SOL     OW44406   3.846   9.911   2.343
14211SOL    HW144407   3.758   9.894   2.312
14211SOL    HW244408   3.852   9.864   2.426
14212SOL     OW44409   5.202   1.046   8.894
14212SOL    HW144410   5.152   1.104   8.836
14212SOL    HW244411   5.274   1.014   8.839
14213SOL     OW44412   2.202   8.097   6.103
14213SOL    HW144413   2.230   8.027   6.162
14213SOL    HW244414   2.256   8.172   6.127
14214SOL     OW44415  11.727   2.608   9.393
14214SOL    HW144416  11.762   2.535   9.341
14214SOL    HW244417  11.803   2.665   9.408
14215SOL     OW44418  14.692  12.446   9.256
14215SOL    HW144419  14.638  12.408   9.326
14215SOL    HW244420  14.630  12.496   9.203
14216SOL     OW44421   2.601   4.105   5.769
14216SOL    HW144422   2.690   4.136   5.785
14216SOL    HW244423   2.612   4.020   5.727
14217SOL     OW44424   7.950  10.512   0.857
14217SOL    HW144425   7.957  10.606   0.847
14217SOL    HW244426   8.036  10.484   0.887
14218SOL     OW44427   4.607  11.793  12.621
14218SOL    HW144428   4.523  11.796  12.575
14218SOL    HW244429   4.606  11.709  12.666
14219SOL     OW44430   1.189  13.067   1.902
14219SOL    HW144431   1.134  13.095   1.829
14219SOL    HW244432   1.228  13.148   1.935
14220SOL     OW44433   0.855  14.231   7.033
14220SOL    HW144434   0.867  14.292   7.106
14220SOL    HW244435   0.915  14.159   7.052
14221SOL     OW44436   2.909   4.479   3.086
14221SOL    HW144437   2.930   4.404   3.142
14221SOL    HW244438   2.818   4.465   3.059
14222SOL     OW44439   1.358   5.129   5.944
14222SOL    HW144440   1.343   5.192   5.874
14222SOL    HW244441   1.362   5.182   6.024
14223SOL     OW44442   6.200   0.629  13.879
14223SOL    HW144443   6.205   0.716  13.919
14223SOL    HW244444   6.206   0.568  13.952
14224SOL     OW44445   3.929  10.934   5.502
14224SOL    HW144446   3.931  10.872   5.575
14224SOL    HW244447   3.843  10.919   5.461
14225SOL     OW44448  11.481   8.657  10.454
14225SOL    HW144449  11.506   8.597  10.524
14225SOL    HW244450  11.391   8.680  10.473
14226SOL     OW44451   6.843   0.509  14.659
14226SOL    HW144452   6.749   0.521  14.676
14226SOL    HW244453   6.858   0.416  14.673
14227SOL     OW44454   1.628   7.458   4.443
14227SOL    HW144455   1.574   7.404   4.385
14227SOL    HW244456   1.567   7.494   4.507
14228SOL     OW44457   0.233   0.662  12.685
14228SOL    HW144458   0.160   0.618  12.729
14228SOL    HW244459   0.226   0.636  12.593
14229SOL     OW44460  11.710   3.800   4.555
14229SOL    HW144461  11.793   3.843   4.530
14229SOL    HW244462  11.710   3.803   4.650
14230SOL     OW44463   7.231  11.783   6.870
14230SOL    HW144464   7.241  11.746   6.958
14230SOL    HW244465   7.162  11.731   6.830
14231SOL     OW44466  12.843  13.028   4.038
14231SOL    HW144467  12.933  13.014   4.066
14231SOL    HW244468  12.809  12.941   4.020
14232SOL     OW44469  14.319   1.722   5.330
14232SOL    HW144470  14.342   1.757   5.416
14232SOL    HW244471  14.267   1.643   5.349
14233SOL     OW44472   7.846  11.137   7.171
14233SOL    HW144473   7.845  11.098   7.258
14233SOL    HW244474   7.890  11.073   7.116
14234SOL     OW44475   7.324   1.830  10.326
14234SOL    HW144476   7.339   1.916  10.287
14234SOL    HW244477   7.261   1.846  10.396
14235SOL     OW44478   3.869  13.878   0.586
14235SOL    HW144479   3.850  13.971   0.595
14235SOL    HW244480   3.943  13.874   0.525
14236SOL     OW44481  12.002  10.549   2.350
14236SOL    HW144482  11.999  10.557   2.445
14236SOL    HW244483  12.093  10.529   2.330
14237SOL     OW44484  11.899   7.240  14.784
14237SOL    HW144485  11.865   7.264  14.870
14237SOL    HW244486  11.824   7.248  14.725
14238SOL     OW44487  13.809   3.795  10.706
14238SOL    HW144488  13.847   3.710  10.683
14238SOL    HW244489  13.809   3.844  10.624
14239SOL     OW44490   2.522   3.540   0.192
14239SOL    HW144491   2.467   3.469   0.226
14239SOL    HW244492   2.537   3.516   0.100
14240SOL     OW44493   3.078   6.674   1.121
14240SOL    HW144494   3.062   6.751   1.067
14240SOL    HW244495   3.065   6.704   1.211
14241SOL     OW44496   4.355  12.905  11.526
14241SOL    HW144497   4.303  12.971  11.481
14241SOL    HW244498   4.290  12.847  11.567
14242SOL     OW44499   3.407  12.273   7.112
14242SOL    HW144500   3.455  12.353   7.134
14242SOL    HW244501   3.367  12.245   7.194
14243SOL     OW44502   4.422   8.201   7.307
14243SOL    HW144503   4.403   8.184   7.399
14243SOL    HW244504   4.451   8.117   7.272
14244SOL     OW44505  13.154   3.020   7.108
14244SOL    HW144506  13.174   3.113   7.106
14244SOL    HW244507  13.167   2.991   7.018
14245SOL     OW44508   0.007   8.145   2.252
14245SOL    HW144509   0.083   8.088   2.249
14245SOL    HW244510   0.021   8.207   2.180
14246SOL     OW44511  14.591  10.437   3.981
14246SOL    HW144512  14.589  10.532   3.981
14246SOL    HW244513  14.649  10.414   3.908
14247SOL     OW44514   1.807  14.657  13.718
14247SOL    HW144515   1.774  14.721  13.781
14247SOL    HW244516   1.766  14.574  13.744
14248SOL     OW44517   7.548  12.943   9.763
14248SOL    HW144518   7.548  12.995   9.683
14248SOL    HW244519   7.590  12.999   9.828
14249SOL     OW44520   7.034   7.673   0.060
14249SOL    HW144521   7.105   7.637   0.112
14249SOL    HW244522   7.014   7.605  14.873
14250SOL     OW44523  13.281   4.800   9.419
14250SOL    HW144524  13.232   4.760   9.491
14250SOL    HW244525  13.228   4.783   9.341
14251SOL     OW44526   2.025   5.236   0.992
14251SOL    HW144527   2.096   5.198   1.044
14251SOL    HW244528   1.969   5.280   1.056
14252SOL     OW44529   9.724  10.834   7.679
14252SOL    HW144530   9.734  10.803   7.589
14252SOL    HW244531   9.658  10.904   7.673
14253SOL     OW44532  14.671  11.284   6.430
14253SOL    HW144533  14.728  11.237   6.370
14253SOL    HW244534  14.585  11.284   6.387
14254SOL     OW44535   0.555  13.290  12.287
14254SOL    HW144536   0.546  13.383  12.305
14254SOL    HW244537   0.480  13.249  12.331
14255SOL     OW44538  12.981   2.363   7.366
14255SOL    HW144539  12.982   2.448   7.321
14255SOL    HW244540  12.923   2.308   7.313
14256SOL     OW44541   1.417   7.009   6.116
14256SOL    HW144542   1.470   6.946   6.067
14256SOL    HW244543   1.357   6.954   6.168
14257SOL     OW44544  11.957  10.266   6.151
14257SOL    HW144545  11.965  10.177   6.184
14257SOL    HW244546  11.964  10.321   6.229
14258SOL     OW44547   9.840  11.463   4.854
14258SOL    HW144548   9.751  11.430   4.848
14258SOL    HW244549   9.875  11.425   4.935
14259SOL     OW44550  14.751   4.772   4.102
14259SOL    HW144551  14.794   4.760   4.187
14259SOL    HW244552  14.744   4.867   4.091
14260SOL     OW44553  12.359   1.666   8.136
14260SOL    HW144554  12.424   1.712   8.083
14260SOL    HW244555  12.281   1.662   8.081
14261SOL     OW44556   7.066   2.979   2.848
14261SOL    HW144557   7.079   2.885   2.844
14261SOL    HW244558   7.067   3.000   2.941
14262SOL     OW44559   6.456   4.583   3.490
14262SOL    HW144560   6.432   4.508   3.545
14262SOL    HW244561   6.407   4.570   3.409
14263SOL     OW44562  11.429   1.228  11.724
14263SOL    HW144563  11.449   1.306  11.673
14263SOL    HW244564  11.512   1.203  11.764
14264SOL     OW44565   8.808   3.114  14.735
14264SOL    HW144566   8.764   3.129  14.651
14264SOL    HW244567   8.886   3.064  14.714
14265SOL     OW44568  10.646   5.807  11.887
14265SOL    HW144569  10.739   5.822  11.872
14265SOL    HW244570  10.639   5.713  11.902
14266SOL     OW44571   6.921  12.718   2.304
14266SOL    HW144572   7.008  12.757   2.306
14266SOL    HW244573   6.910  12.680   2.392
14267SOL     OW44574  11.963   5.927  12.620
14267SOL    HW144575  11.930   5.878  12.546
14267SOL    HW244576  11.928   5.882  12.697
14268SOL     OW44577   7.250  13.101  10.518
14268SOL    HW144578   7.293  13.016  10.515
14268SOL    HW244579   7.227  13.112  10.610
14269SOL     OW44580   5.095   6.848   1.026
14269SOL    HW144581   5.045   6.907   0.969
14269SOL    HW244582   5.158   6.904   1.070
14270SOL     OW44583   2.378   1.501   5.048
14270SOL    HW144584   2.384   1.451   5.130
14270SOL    HW244585   2.460   1.482   5.002
14271SOL     OW44586   8.894   9.514  13.121
14271SOL    HW144587   8.804   9.503  13.090
14271SOL    HW244588   8.893   9.599  13.165
14272SOL     OW44589  11.231  12.693  10.035
14272SOL    HW144590  11.314  12.740  10.037
14272SOL    HW244591  11.165  12.762  10.041
14273SOL     OW44592  13.612   0.539  14.806
14273SOL    HW144593  13.700   0.510  14.828
14273SOL    HW244594  13.624   0.604  14.737
14274SOL     OW44595  14.452  10.429   8.688
14274SOL    HW144596  14.508  10.365   8.645
14274SOL    HW244597  14.506  10.507   8.695
14275SOL     OW44598   8.567  12.931   4.054
14275SOL    HW144599   8.508  12.967   3.987
14275SOL    HW244600   8.521  12.947   4.137
14276SOL     OW44601   9.548   9.376   6.178
14276SOL    HW144602   9.456   9.389   6.156
14276SOL    HW244603   9.592   9.455   6.146
14277SOL     OW44604  11.273   5.842  11.471
14277SOL    HW144605  11.187   5.809  11.447
14277SOL    HW244606  11.256   5.928  11.509
14278SOL     OW44607   7.353  10.284  10.741
14278SOL    HW144608   7.351  10.192  10.766
14278SOL    HW244609   7.446  10.306  10.736
14279SOL     OW44610   3.234   9.641   0.794
14279SOL    HW144611   3.150   9.685   0.806
14279SOL    HW244612   3.215   9.548   0.809
14280SOL     OW44613  12.045   4.546  12.663
14280SOL    HW144614  12.042   4.579  12.753
14280SOL    HW244615  12.050   4.451  12.672
14281SOL     OW44616   2.761  13.511   8.629
14281SOL    HW144617   2.824  13.583   8.626
14281SOL    HW244618   2.699  13.531   8.558
14282SOL     OW44619  14.847   7.584   9.776
14282SOL    HW144620  14.788   7.573   9.850
14282SOL    HW244621   0.044   7.632   9.812
14283SOL     OW44622  11.705   0.088  14.102
14283SOL    HW144623  11.691   0.141  14.180
14283SOL    HW244624  11.618   0.072  14.067
14284SOL     OW44625  14.612   9.913  11.028
14284SOL    HW144626  14.599   9.842  10.966
14284SOL    HW244627  14.579   9.991  10.983
14285SOL     OW44628  13.489   1.817   4.052
14285SOL    HW144629  13.566   1.769   4.083
14285SOL    HW244630  13.422   1.802   4.118
14286SOL     OW44631  10.415  11.703   6.793
14286SOL    HW144632  10.454  11.620   6.764
14286SOL    HW244633  10.347  11.678   6.855
14287SOL     OW44634  10.802   9.170   0.734
14287SOL    HW144635  10.732   9.214   0.781
14287SOL    HW244636  10.786   9.076   0.749
14288SOL     OW44637   4.112  12.191   5.879
14288SOL    HW144638   4.020  12.216   5.866
14288SOL    HW244639   4.138  12.154   5.795
14289SOL     OW44640   3.014   2.226   7.693
14289SOL    HW144641   2.960   2.159   7.734
14289SOL    HW244642   3.075   2.177   7.638
14290SOL     OW44643   8.574   4.528  10.842
14290SOL    HW144644   8.545   4.440  10.868
14290SOL    HW244645   8.605   4.568  10.923
14291SOL     OW44646   5.534  12.856   9.931
14291SOL    HW144647   5.455  12.906   9.951
14291SOL    HW244648   5.565  12.891   9.848
14292SOL     OW44649  13.456   0.417  12.824
14292SOL    HW144650  13.503   0.333  12.830
14292SOL    HW244651  13.471   0.458  12.909
14293SOL     OW44652   6.413   7.972  13.648
14293SOL    HW144653   6.347   7.921  13.695
14293SOL    HW244654   6.420   7.929  13.563
14294SOL     OW44655   5.623  14.044   8.057
14294SOL    HW144656   5.569  13.981   8.009
14294SOL    HW244657   5.602  14.030   8.149
14295SOL     OW44658  11.753   3.089  12.783
14295SOL    HW144659  11.711   3.004  12.772
14295SOL    HW244660  11.681   3.152  12.781
14296SOL     OW44661  14.074   0.992   0.987
14296SOL    HW144662  14.075   0.994   1.083
14296SOL    HW244663  14.021   1.068   0.963
14297SOL     OW44664   4.087   8.882  12.214
14297SOL    HW144665   4.084   8.886  12.309
14297SOL    HW244666   4.020   8.944  12.185
14298SOL     OW44667   3.330   5.519   9.946
14298SOL    HW144668   3.371   5.491   9.864
14298SOL    HW244669   3.377   5.471  10.014
14299SOL     OW44670  10.199  13.096   2.602
14299SOL    HW144671  10.262  13.167   2.590
14299SOL    HW244672  10.159  13.085   2.516
14300SOL     OW44673   2.523   2.080  11.158
14300SOL    HW144674   2.584   2.143  11.119
14300SOL    HW244675   2.577   2.002  11.175
14301SOL     OW44676   0.980   3.470   6.645
14301SOL    HW144677   0.926   3.417   6.587
14301SOL    HW244678   0.948   3.449   6.733
14302SOL     OW44679   0.213   4.624   8.234
14302SOL    HW144680   0.238   4.710   8.200
14302SOL    HW244681   0.294   4.574   8.231
14303SOL     OW44682   1.411   8.442   9.044
14303SOL    HW144683   1.427   8.537   9.049
14303SOL    HW244684   1.394   8.426   8.951
14304SOL     OW44685  14.634   4.171   9.827
14304SOL    HW144686  14.730   4.166   9.822
14304SOL    HW244687  14.604   4.100   9.770
14305SOL     OW44688  12.861   0.491  14.365
14305SOL    HW144689  12.772   0.505  14.333
14305SOL    HW244690  12.914   0.483  14.286
14306SOL     OW44691  10.048   5.407  14.678
14306SOL    HW144692   9.959   5.416  14.714
14306SOL    HW244693  10.078   5.498  14.667
14307SOL     OW44694   7.144   0.595   1.520
14307SOL    HW144695   7.071   0.641   1.560
14307SOL    HW244696   7.134   0.611   1.426
14308SOL     OW44697  11.007   3.554  12.737
14308SOL    HW144698  10.996   3.468  12.696
14308SOL    HW244699  11.102   3.563  12.749
14309SOL     OW44700   2.050  11.599  10.463
14309SOL    HW144701   2.101  11.552  10.529
14309SOL    HW244702   1.972  11.629  10.509
14310SOL     OW44703   2.111   7.474   9.949
14310SOL    HW144704   2.143   7.412  10.014
14310SOL    HW244705   2.075   7.546  10.000
14311SOL     OW44706  12.339   5.787   7.404
14311SOL    HW144707  12.319   5.846   7.477
14311SOL    HW244708  12.268   5.724   7.404
14312SOL     OW44709   0.555   9.749  10.965
14312SOL    HW144710   0.510   9.833  10.976
14312SOL    HW244711   0.615   9.764  10.892
14313SOL     OW44712   8.042  13.599  13.406
14313SOL    HW144713   7.989  13.540  13.351
14313SOL    HW244714   8.005  13.587  13.494
14314SOL     OW44715  13.150  11.004   8.164
14314SOL    HW144716  13.176  10.928   8.113
14314SOL    HW244717  13.179  11.079   8.112
14315SOL     OW44718  13.307   5.867  14.101
14315SOL    HW144719  13.401   5.880  14.111
14315SOL    HW244720  13.300   5.789  14.045
14316SOL     OW44721   4.797  10.420   3.615
14316SOL    HW144722   4.816  10.504   3.573
14316SOL    HW244723   4.713  10.393   3.578
14317SOL     OW44724   7.148   6.917   9.125
14317SOL    HW144725   7.242   6.929   9.109
14317SOL    HW244726   7.109   6.918   9.038
14318SOL     OW44727   9.153  12.927  12.673
14318SOL    HW144728   9.089  12.939  12.603
14318SOL    HW244729   9.192  12.841  12.655
14319SOL     OW44730   6.494  11.501   4.789
14319SOL    HW144731   6.566  11.503   4.852
14319SOL    HW244732   6.457  11.589   4.793
14320SOL     OW44733   1.805  12.522   4.953
14320SOL    HW144734   1.722  12.500   4.911
14320SOL    HW244735   1.796  12.489   5.042
14321SOL     OW44736   3.120   5.564   4.955
14321SOL    HW144737   3.196   5.599   5.001
14321SOL    HW244738   3.087   5.638   4.903
14322SOL     OW44739  11.307  11.287   3.087
14322SOL    HW144740  11.286  11.259   2.998
14322SOL    HW244741  11.387  11.239   3.110
14323SOL     OW44742   2.444  14.042  10.597
14323SOL    HW144743   2.470  14.012  10.510
14323SOL    HW244744   2.474  14.133  10.601
14324SOL     OW44745   2.534   7.545  11.670
14324SOL    HW144746   2.588   7.602  11.724
14324SOL    HW244747   2.458   7.597  11.648
14325SOL     OW44748  13.603  11.920  14.519
14325SOL    HW144749  13.581  11.909  14.611
14325SOL    HW244750  13.649  12.004  14.516
14326SOL     OW44751   2.604  10.410   0.612
14326SOL    HW144752   2.605  10.325   0.655
14326SOL    HW244753   2.662  10.465   0.666
14327SOL     OW44754  12.544   4.140  12.194
14327SOL    HW144755  12.597   4.129  12.115
14327SOL    HW244756  12.559   4.060  12.244
14328SOL     OW44757  11.363   3.183   4.841
14328SOL    HW144758  11.360   3.277   4.858
14328SOL    HW244759  11.324   3.143   4.920
14329SOL     OW44760  10.365   5.787   4.471
14329SOL    HW144761  10.284   5.829   4.444
14329SOL    HW244762  10.401   5.748   4.391
14330SOL     OW44763  10.172   3.110   6.192
14330SOL    HW144764  10.198   3.062   6.270
14330SOL    HW244765  10.085   3.144   6.211
14331SOL     OW44766   3.126  14.161  10.451
14331SOL    HW144767   3.141  14.247  10.411
14331SOL    HW244768   3.032  14.147  10.443
14332SOL     OW44769   4.649   5.705   2.167
14332SOL    HW144770   4.559   5.732   2.150
14332SOL    HW244771   4.672   5.746   2.250
14333SOL     OW44772   0.561  13.322   0.085
14333SOL    HW144773   0.473  13.289   0.067
14333SOL    HW244774   0.595  13.349  14.877
14334SOL     OW44775  10.565  14.049   1.066
14334SOL    HW144776  10.527  14.061   1.153
14334SOL    HW244777  10.524  13.969   1.033
14335SOL     OW44778  12.956   1.341  12.545
14335SOL    HW144779  13.043   1.343  12.586
14335SOL    HW244780  12.940   1.248  12.529
14336SOL     OW44781  13.609  13.547   2.176
14336SOL    HW144782  13.637  13.612   2.111
14336SOL    HW244783  13.515  13.560   2.183
14337SOL     OW44784   4.734  12.776   6.214
14337SOL    HW144785   4.774  12.693   6.188
14337SOL    HW244786   4.806  12.839   6.209
14338SOL     OW44787   6.955   8.143   0.377
14338SOL    HW144788   7.040   8.146   0.419
14338SOL    HW244789   6.893   8.129   0.448
14339SOL     OW44790  11.402   1.513   6.878
14339SOL    HW144791  11.378   1.476   6.963
14339SOL    HW244792  11.319   1.540   6.840
14340SOL     OW44793  12.652   8.567  13.831
14340SOL    HW144794  12.637   8.478  13.800
14340SOL    HW244795  12.572   8.591  13.877
14341SOL     OW44796   5.805   9.876   0.874
14341SOL    HW144797   5.818   9.827   0.955
14341SOL    HW244798   5.758   9.816   0.816
14342SOL     OW44799  13.933   6.979   7.967
14342SOL    HW144800  13.953   7.005   8.057
14342SOL    HW244801  13.859   6.919   7.975
14343SOL     OW44802   5.344   3.950   5.023
14343SOL    HW144803   5.412   3.912   4.967
14343SOL    HW244804   5.356   3.905   5.107
14344SOL     OW44805  10.812   2.765  13.465
14344SOL    HW144806  10.812   2.690  13.525
14344SOL    HW244807  10.720   2.788  13.454
14345SOL     OW44808   5.129   8.695   8.649
14345SOL    HW144809   5.192   8.728   8.712
14345SOL    HW244810   5.179   8.682   8.569
14346SOL     OW44811  10.684   1.791  13.961
14346SOL    HW144812  10.646   1.874  13.992
14346SOL    HW244813  10.654   1.726  14.025
14347SOL     OW44814   9.971   6.680  10.618
14347SOL    HW144815   9.938   6.646  10.702
14347SOL    HW244816   9.892   6.693  10.565
14348SOL     OW44817  14.249  11.651   1.625
14348SOL    HW144818  14.207  11.598   1.557
14348SOL    HW244819  14.296  11.587   1.679
14349SOL     OW44820  11.306  13.230   5.196
14349SOL    HW144821  11.249  13.206   5.123
14349SOL    HW244822  11.260  13.300   5.241
14350SOL     OW44823  13.265   5.666  14.312
14350SOL    HW144824  13.298   5.743  14.266
14350SOL    HW244825  13.252   5.695  14.402
14351SOL     OW44826   2.895   4.273  13.082
14351SOL    HW144827   2.919   4.233  12.999
14351SOL    HW244828   2.951   4.230  13.147
14352SOL     OW44829   0.505   3.548  14.808
14352SOL    HW144830   0.531   3.540  14.717
14352SOL    HW244831   0.423   3.499  14.814
14353SOL     OW44832   8.148  12.906   8.421
14353SOL    HW144833   8.149  12.841   8.491
14353SOL    HW244834   8.115  12.986   8.463
14354SOL     OW44835  12.640  13.596   9.221
14354SOL    HW144836  12.622  13.650   9.144
14354SOL    HW244837  12.675  13.658   9.285
14355SOL     OW44838   5.199   5.668  11.090
14355SOL    HW144839   5.291   5.692  11.082
14355SOL    HW244840   5.189   5.592  11.032
14356SOL     OW44841   5.980  14.267   5.669
14356SOL    HW144842   5.908  14.329   5.685
14356SOL    HW244843   5.937  14.188   5.638
14357SOL     OW44844   7.408   5.352   8.347
14357SOL    HW144845   7.335   5.292   8.365
14357SOL    HW244846   7.390   5.385   8.259
14358SOL     OW44847  12.806  14.038  12.067
14358SOL    HW144848  12.821  14.052  11.973
14358SOL    HW244849  12.865  14.100  12.110
14359SOL     OW44850  11.141  10.022  11.826
14359SOL    HW144851  11.115  10.022  11.918
14359SOL    HW244852  11.156  10.114  11.806
14360SOL     OW44853  11.980   2.292  11.288
14360SOL    HW144854  11.950   2.203  11.307
14360SOL    HW244855  11.989   2.294  11.193
14361SOL     OW44856   0.735   5.946   0.180
14361SOL    HW144857   0.768   5.991   0.258
14361SOL    HW244858   0.782   5.987   0.107
14362SOL     OW44859  14.739  14.619   7.024
14362SOL    HW144860  14.819  14.569   7.037
14362SOL    HW244861  14.759  14.676   6.949
14363SOL     OW44862  11.567   7.686   2.332
14363SOL    HW144863  11.487   7.737   2.342
14363SOL    HW244864  11.606   7.684   2.419
14364SOL     OW44865   4.606   0.079  12.163
14364SOL    HW144866   4.635   0.167  12.140
14364SOL    HW244867   4.674   0.022  12.126
14365SOL     OW44868   2.309   6.587  10.723
14365SOL    HW144869   2.279   6.611  10.635
14365SOL    HW244870   2.286   6.663  10.777
14366SOL     OW44871  13.212   9.577  10.279
14366SOL    HW144872  13.267   9.566  10.202
14366SOL    HW244873  13.200   9.672  10.287
14367SOL     OW44874   3.867   3.440  10.302
14367SOL    HW144875   3.922   3.512  10.270
14367SOL    HW244876   3.829   3.402  10.223
14368SOL     OW44877   6.393   9.057   0.960
14368SOL    HW144878   6.338   9.050   0.882
14368SOL    HW244879   6.451   9.131   0.942
14369SOL     OW44880  10.497  14.011  13.435
14369SOL    HW144881  10.554  13.935  13.448
14369SOL    HW244882  10.492  14.022  13.340
14370SOL     OW44883   4.928   0.231   2.171
14370SOL    HW144884   4.976   0.149   2.171
14370SOL    HW244885   4.903   0.245   2.262
14371SOL     OW44886   7.216  13.286   1.526
14371SOL    HW144887   7.232  13.373   1.563
14371SOL    HW244888   7.279  13.279   1.454
14372SOL     OW44889   1.412   2.598   2.510
14372SOL    HW144890   1.435   2.507   2.531
14372SOL    HW244891   1.407   2.600   2.415
14373SOL     OW44892   3.869  14.524  12.724
14373SOL    HW144893   3.957  14.488  12.734
14373SOL    HW244894   3.818  14.482  12.793
14374SOL     OW44895   4.134  10.874  12.725
14374SOL    HW144896   4.079  10.810  12.770
14374SOL    HW244897   4.107  10.958  12.761
14375SOL     OW44898  10.775  12.374   9.533
14375SOL    HW144899  10.847  12.376   9.596
14375SOL    HW244900  10.756  12.280   9.522
14376SOL     OW44901  11.478   7.437   9.064
14376SOL    HW144902  11.472   7.357   9.011
14376SOL    HW244903  11.403   7.489   9.036
14377SOL     OW44904  13.694  13.430   4.897
14377SOL    HW144905  13.635  13.354   4.899
14377SOL    HW244906  13.679  13.471   4.812
14378SOL     OW44907   1.368  12.503   6.910
14378SOL    HW144908   1.335  12.476   6.996
14378SOL    HW244909   1.400  12.592   6.923
14379SOL     OW44910   0.898   3.263   2.362
14379SOL    HW144911   0.984   3.225   2.347
14379SOL    HW244912   0.869   3.227   2.445
14380SOL     OW44913   4.946   7.083   0.907
14380SOL    HW144914   4.981   7.077   0.818
14380SOL    HW244915   4.997   7.154   0.947
14381SOL     OW44916  14.124   1.918  12.285
14381SOL    HW144917  14.194   1.862  12.318
14381SOL    HW244918  14.114   1.893  12.193
14382SOL     OW44919   0.897   2.592   5.014
14382SOL    HW144920   0.841   2.666   4.989
14382SOL    HW244921   0.978   2.634   5.043
14383SOL     OW44922  13.184   8.396   8.221
14383SOL    HW144923  13.136   8.380   8.303
14383SOL    HW244924  13.221   8.310   8.198
14384SOL     OW44925   8.055   3.862   5.257
14384SOL    HW144926   8.144   3.845   5.290
14384SOL    HW244927   8.000   3.862   5.335
14385SOL     OW44928  14.212   8.415   4.750
14385SOL    HW144929  14.307   8.406   4.762
14385SOL    HW244930  14.175   8.403   4.837
14386SOL     OW44931   1.943  12.184  11.564
14386SOL    HW144932   1.906  12.104  11.526
14386SOL    HW244933   1.946  12.246  11.492
14387SOL     OW44934   6.555   5.692  13.831
14387SOL    HW144935   6.552   5.729  13.919
14387SOL    HW244936   6.643   5.656  13.822
14388SOL     OW44937   7.702   4.410   2.604
14388SOL    HW144938   7.647   4.488   2.604
14388SOL    HW244939   7.688   4.370   2.518
14389SOL     OW44940   9.062   9.622   5.043
14389SOL    HW144941   9.126   9.586   4.981
14389SOL    HW244942   8.978   9.589   5.012
14390SOL     OW44943   5.733   2.588   5.542
14390SOL    HW144944   5.828   2.593   5.545
14390SOL    HW244945   5.715   2.494   5.542
14391SOL     OW44946   2.831   4.871  14.172
14391SOL    HW144947   2.923   4.892  14.191
14391SOL    HW244948   2.787   4.956  14.170
14392SOL     OW44949  12.661   1.177  10.923
14392SOL    HW144950  12.737   1.181  10.981
14392SOL    HW244951  12.592   1.224  10.971
14393SOL     OW44952  12.845   0.205   0.810
14393SOL    HW144953  12.861   0.112   0.822
14393SOL    HW244954  12.756   0.219   0.843
14394SOL     OW44955   4.404  10.222   1.199
14394SOL    HW144956   4.366  10.309   1.189
14394SOL    HW244957   4.398  10.204   1.293
14395SOL     OW44958   4.658   0.449  10.599
14395SOL    HW144959   4.596   0.438  10.671
14395SOL    HW244960   4.697   0.535  10.614
14396SOL     OW44961  14.328   5.062  14.061
14396SOL    HW144962  14.237   5.088  14.045
14396SOL    HW244963  14.380   5.139  14.035
14397SOL     OW44964   6.858   5.638   1.518
14397SOL    HW144965   6.820   5.574   1.578
14397SOL    HW244966   6.783   5.687   1.485
14398SOL     OW44967   1.203  13.152   6.769
14398SOL    HW144968   1.211  13.071   6.718
14398SOL    HW244969   1.127  13.196   6.732
14399SOL     OW44970  11.709   4.680  10.603
14399SOL    HW144971  11.703   4.776  10.606
14399SOL    HW244972  11.706   4.659  10.510
14400SOL     OW44973   9.639   2.274   9.911
14400SOL    HW144974   9.687   2.321   9.843
14400SOL    HW244975   9.575   2.222   9.862
14401SOL     OW44976   1.039   5.188   6.984
14401SOL    HW144977   1.060   5.096   6.970
14401SOL    HW244978   0.944   5.193   6.977
14402SOL     OW44979   5.621  10.767   5.114
14402SOL    HW144980   5.643  10.789   5.023
14402SOL    HW244981   5.529  10.791   5.123
14403SOL     OW44982   7.803  12.102  11.370
14403SOL    HW144983   7.713  12.133  11.376
14403SOL    HW244984   7.798  12.008  11.388
14404SOL     OW44985  13.465   2.117  12.599
14404SOL    HW144986  13.430   2.062  12.670
14404SOL    HW244987  13.389   2.135  12.544
14405SOL     OW44988  13.523  12.959   9.684
14405SOL    HW144989  13.583  12.893   9.649
14405SOL    HW244990  13.483  12.999   9.606
14406SOL     OW44991   6.119   0.898  11.151
14406SOL    HW144992   6.114   0.920  11.244
14406SOL    HW244993   6.211   0.878  11.136
14407SOL     OW44994   4.157  10.580   7.169
14407SOL    HW144995   4.182  10.491   7.195
14407SOL    HW244996   4.238  10.621   7.141
14408SOL     OW44997   6.471   7.215   4.532
14408SOL    HW144998   6.399   7.166   4.494
14408SOL    HW244999   6.447   7.226   4.624
14409SOL     OW45000   7.230   9.113   8.316
14409SOL    HW145001   7.202   9.140   8.229
14409SOL    HW245002   7.173   9.162   8.376
14410SOL     OW45003  10.192   8.443  12.752
14410SOL    HW145004  10.213   8.489  12.670
14410SOL    HW245005  10.140   8.505  12.802
14411SOL     OW45006  13.797   6.414   2.438
14411SOL    HW145007  13.715   6.447   2.476
14411SOL    HW245008  13.859   6.415   2.511
14412SOL     OW45009  13.625   1.908   0.351
14412SOL    HW145010  13.552   1.935   0.294
14412SOL    HW245011  13.703   1.940   0.306
14413SOL     OW45012   7.774  13.751   4.257
14413SOL    HW145013   7.829  13.753   4.335
14413SOL    HW245014   7.831  13.718   4.188
14414SOL     OW45015   8.392   3.666   2.935
14414SOL    HW145016   8.478   3.636   2.964
14414SOL    HW245017   8.351   3.701   3.015
14415SOL     OW45018   1.557  11.979  12.544
14415SOL    HW145019   1.519  11.944  12.625
14415SOL    HW245020   1.574  12.071  12.564
14416SOL     OW45021   5.268   8.016   4.009
14416SOL    HW145022   5.229   7.933   3.982
14416SOL    HW245023   5.209   8.049   4.077
14417SOL     OW45024   7.638   0.067   1.940
14417SOL    HW145025   7.600   0.094   2.024
14417SOL    HW245026   7.596   0.124   1.875
14418SOL     OW45027  10.359   6.970   4.345
14418SOL    HW145028  10.353   7.065   4.348
14418SOL    HW245029  10.297   6.939   4.411
14419SOL     OW45030  13.749  10.657   1.767
14419SOL    HW145031  13.679  10.611   1.815
14419SOL    HW245032  13.703  10.713   1.705
14420SOL     OW45033   7.985  14.192   8.755
14420SOL    HW145034   7.949  14.244   8.826
14420SOL    HW245035   8.031  14.255   8.699
14421SOL     OW45036   6.488   0.543   6.990
14421SOL    HW145037   6.561   0.556   7.051
14421SOL    HW245038   6.425   0.490   7.039
14422SOL     OW45039   3.869   4.933  12.584
14422SOL    HW145040   3.920   4.931  12.503
14422SOL    HW245041   3.783   4.898  12.559
14423SOL     OW45042   2.730   7.320   3.694
14423SOL    HW145043   2.786   7.327   3.617
14423SOL    HW245044   2.703   7.410   3.712
14424SOL     OW45045   9.892   7.621   5.723
14424SOL    HW145046   9.808   7.665   5.736
14424SOL    HW245047   9.893   7.598   5.630
14425SOL     OW45048   8.127  13.535   2.431
14425SOL    HW145049   8.191  13.533   2.360
14425SOL    HW245050   8.105  13.628   2.441
14426SOL     OW45051  10.359   8.227   5.864
14426SOL    HW145052  10.436   8.283   5.878
14426SOL    HW245053  10.386   8.141   5.897
14427SOL     OW45054  13.860   1.512  10.872
14427SOL    HW145055  13.812   1.539  10.794
14427SOL    HW245056  13.949   1.497  10.842
14428SOL     OW45057   5.886   1.317   5.036
14428SOL    HW145058   5.891   1.362   5.120
14428SOL    HW245059   5.952   1.359   4.982
14429SOL     OW45060  13.285   6.631   8.378
14429SOL    HW145061  13.195   6.652   8.351
14429SOL    HW245062  13.296   6.675   8.462
14430SOL     OW45063  14.499  10.124   4.693
14430SOL    HW145064  14.525  10.214   4.671
14430SOL    HW245065  14.582  10.079   4.708
14431SOL     OW45066   6.931  13.419  10.941
14431SOL    HW145067   6.982  13.405  11.021
14431SOL    HW245068   6.996  13.417  10.871
14432SOL     OW45069  14.476  14.871   6.333
14432SOL    HW145070  14.402   0.046   6.302
14432SOL    HW245071  14.554   0.040   6.302
14433SOL     OW45072   7.303   4.535   0.540
14433SOL    HW145073   7.388   4.563   0.505
14433SOL    HW245074   7.325   4.474   0.610
14434SOL     OW45075   7.310   8.095   2.240
14434SOL    HW145076   7.311   8.122   2.331
14434SOL    HW245077   7.402   8.089   2.215
14435SOL     OW45078   1.626  10.740   5.972
14435SOL    HW145079   1.621  10.649   6.004
14435SOL    HW245080   1.674  10.734   5.890
14436SOL     OW45081   8.811   8.496   8.020
14436SOL    HW145082   8.748   8.457   7.959
14436SOL    HW245083   8.757   8.522   8.096
14437SOL     OW45084  11.238  13.347   9.392
14437SOL    HW145085  11.268  13.337   9.483
14437SOL    HW245086  11.290  13.283   9.343
14438SOL     OW45087   5.117   2.298  13.974
14438SOL    HW145088   5.174   2.370  14.001
14438SOL    HW245089   5.159   2.219  14.010
14439SOL     OW45090   0.480  11.191  13.450
14439SOL    HW145091   0.529  11.188  13.368
14439SOL    HW245092   0.437  11.276  13.450
14440SOL     OW45093   1.634   0.947   4.225
14440SOL    HW145094   1.692   0.914   4.156
14440SOL    HW245095   1.580   1.012   4.180
14441SOL     OW45096   8.138   9.509   1.385
14441SOL    HW145097   8.159   9.540   1.473
14441SOL    HW245098   8.110   9.588   1.338
14442SOL     OW45099   6.717  12.417   7.146
14442SOL    HW145100   6.649  12.485   7.142
14442SOL    HW245101   6.798  12.463   7.127
14443SOL     OW45102  11.583  10.714   2.651
14443SOL    HW145103  11.604  10.710   2.558
14443SOL    HW245104  11.612  10.801   2.679
14444SOL     OW45105   1.093   0.715   8.210
14444SOL    HW145106   1.099   0.811   8.213
14444SOL    HW245107   1.001   0.698   8.191
14445SOL     OW45108   3.409  11.309   9.809
14445SOL    HW145109   3.444  11.394   9.783
14445SOL    HW245110   3.315  11.323   9.818
14446SOL     OW45111  10.029   5.949  13.259
14446SOL    HW145112  10.036   5.882  13.327
14446SOL    HW245113   9.954   5.921  13.207
14447SOL     OW45114   4.579  12.222   8.768
14447SOL    HW145115   4.644  12.178   8.714
14447SOL    HW245116   4.581  12.313   8.739
14448SOL     OW45117   2.234   0.135  12.493
14448SOL    HW145118   2.245   0.177  12.578
14448SOL    HW245119   2.303   0.171  12.439
14449SOL     OW45120   1.921   0.585   0.580
14449SOL    HW145121   1.995   0.622   0.533
14449SOL    HW245122   1.896   0.507   0.530
14450SOL     OW45123  12.563   4.046   8.703
14450SOL    HW145124  12.607   4.051   8.618
14450SOL    HW245125  12.630   4.067   8.767
14451SOL     OW45126  11.697   9.375   3.723
14451SOL    HW145127  11.670   9.416   3.805
14451SOL    HW245128  11.705   9.448   3.662
14452SOL     OW45129   3.989   7.922   6.827
14452SOL    HW145130   3.961   7.926   6.918
14452SOL    HW245131   4.051   7.849   6.824
14453SOL     OW45132   2.541   7.097  12.798
14453SOL    HW145133   2.560   7.069  12.708
14453SOL    HW245134   2.479   7.169  12.788
14454SOL     OW45135  12.933   0.907   5.365
14454SOL    HW145136  12.917   0.916   5.459
14454SOL    HW245137  12.869   0.841   5.337
14455SOL     OW45138  10.781   3.369   5.267
14455SOL    HW145139  10.718   3.376   5.196
14455SOL    HW245140  10.774   3.279   5.297
14456SOL     OW45141  14.156   7.848   1.186
14456SOL    HW145142  14.236   7.796   1.196
14456SOL    HW245143  14.089   7.784   1.161
14457SOL     OW45144  10.847   4.346   8.760
14457SOL    HW145145  10.777   4.305   8.811
14457SOL    HW245146  10.924   4.343   8.816
14458SOL     OW45147  11.171   6.980   8.675
14458SOL    HW145148  11.209   7.033   8.606
14458SOL    HW245149  11.178   6.890   8.643
14459SOL     OW45150  10.965  12.273   9.763
14459SOL    HW145151  11.016  12.233   9.833
14459SOL    HW245152  10.892  12.213   9.749
14460SOL     OW45153   9.084   7.578   1.419
14460SOL    HW145154   9.141   7.642   1.461
14460SOL    HW245155   9.027   7.630   1.362
14461SOL     OW45156   5.563   8.458   6.589
14461SOL    HW145157   5.640   8.406   6.611
14461SOL    HW245158   5.567   8.467   6.493
14462SOL     OW45159   0.560   8.308   0.266
14462SOL    HW145160   0.640   8.351   0.296
14462SOL    HW245161   0.572   8.216   0.289
14463SOL     OW45162  11.904  11.726   9.502
14463SOL    HW145163  11.816  11.730   9.539
14463SOL    HW245164  11.907  11.796   9.437
14464SOL     OW45165   8.952   4.372   6.103
14464SOL    HW145166   8.966   4.441   6.169
14464SOL    HW245167   8.904   4.304   6.150
14465SOL     OW45168   0.124   0.697   1.032
14465SOL    HW145169   0.057   0.629   1.038
14465SOL    HW245170   0.138   0.726   1.122
14466SOL     OW45171  10.142  10.787   7.464
14466SOL    HW145172  10.197  10.789   7.387
14466SOL    HW245173  10.133  10.694   7.485
14467SOL     OW45174   7.790  11.772   9.570
14467SOL    HW145175   7.696  11.766   9.588
14467SOL    HW245176   7.802  11.858   9.530
14468SOL     OW45177   4.158   5.936   8.520
14468SOL    HW145178   4.157   6.027   8.548
14468SOL    HW245179   4.104   5.935   8.441
14469SOL     OW45180   7.933   2.577  12.664
14469SOL    HW145181   7.920   2.519  12.589
14469SOL    HW245182   8.027   2.595  12.665
14470SOL     OW45183   1.449   9.254   5.062
14470SOL    HW145184   1.443   9.216   5.149
14470SOL    HW245185   1.516   9.322   5.070
14471SOL     OW45186  10.934  11.347  11.354
14471SOL    HW145187  11.029  11.349  11.338
14471SOL    HW245188  10.912  11.254  11.353
14472SOL     OW45189   9.271   0.406   4.588
14472SOL    HW145190   9.183   0.395   4.623
14472SOL    HW245191   9.286   0.327   4.536
14473SOL     OW45192   6.841   3.976   3.836
14473SOL    HW145193   6.765   4.030   3.856
14473SOL    HW245194   6.826   3.895   3.885
14474SOL     OW45195   5.484  14.384   2.284
14474SOL    HW145196   5.389  14.372   2.281
14474SOL    HW245197   5.505  14.379   2.377
14475SOL     OW45198   3.797  10.612   9.849
14475SOL    HW145199   3.739  10.607   9.773
14475SOL    HW245200   3.757  10.680   9.904
14476SOL     OW45201   7.831   2.988  11.042
14476SOL    HW145202   7.911   2.972  11.091
14476SOL    HW245203   7.860   3.021  10.957
14477SOL     OW45204   2.741   1.875  10.163
14477SOL    HW145205   2.747   1.924  10.080
14477SOL    HW245206   2.809   1.913  10.218
14478SOL     OW45207   5.421   9.998   3.564
14478SOL    HW145208   5.515   9.994   3.549
14478SOL    HW245209   5.383  10.010   3.477
14479SOL     OW45210   9.041   3.649  10.229
14479SOL    HW145211   8.960   3.604  10.207
14479SOL    HW245212   9.025   3.740  10.205
14480SOL     OW45213   7.728   1.965   0.484
14480SOL    HW145214   7.734   2.057   0.512
14480SOL    HW245215   7.637   1.941   0.504
14481SOL     OW45216   9.579   2.147  13.605
14481SOL    HW145217   9.549   2.153  13.514
14481SOL    HW245218   9.503   2.113  13.652
14482SOL     OW45219   3.136   2.313  11.080
14482SOL    HW145220   3.086   2.394  11.065
14482SOL    HW245221   3.124   2.294  11.173
14483SOL     OW45222   1.728  12.522   3.434
14483SOL    HW145223   1.690  12.437   3.412
14483SOL    HW245224   1.655  12.573   3.467
14484SOL     OW45225   5.382   0.679   0.962
14484SOL    HW145226   5.471   0.715   0.965
14484SOL    HW245227   5.326   0.756   0.954
14485SOL     OW45228   8.845   7.281   2.601
14485SOL    HW145229   8.861   7.375   2.614
14485SOL    HW245230   8.750   7.272   2.606
14486SOL     OW45231  12.055  10.875   0.908
14486SOL    HW145232  12.089  10.807   0.849
14486SOL    HW245233  11.981  10.833   0.952
14487SOL     OW45234   8.922  10.669   5.804
14487SOL    HW145235   8.958  10.755   5.825
14487SOL    HW245236   8.827  10.682   5.801
14488SOL     OW45237  14.049   4.180  11.065
14488SOL    HW145238  14.022   4.214  11.151
14488SOL    HW245239  14.048   4.256  11.007
14489SOL     OW45240  10.108  11.010   3.776
14489SOL    HW145241  10.154  10.949   3.718
14489SOL    HW245242  10.163  11.014   3.854
14490SOL     OW45243  14.674   6.317   4.440
14490SOL    HW145244  14.763   6.288   4.459
14490SOL    HW245245  14.675   6.412   4.454
14491SOL     OW45246   4.656  11.039  12.711
14491SOL    HW145247   4.587  10.975  12.696
14491SOL    HW245248   4.724  11.016  12.648
14492SOL     OW45249   1.275  14.820  13.388
14492SOL    HW145250   1.218   0.017  13.407
14492SOL    HW245251   1.347  14.829  13.450
14493SOL     OW45252  10.978  11.467   3.887
14493SOL    HW145253  10.963  11.524   3.962
14493SOL    HW245254  10.941  11.382   3.914
14494SOL     OW45255  10.873   4.563   6.722
14494SOL    HW145256  10.944   4.580   6.660
14494SOL    HW245257  10.887   4.626   6.793
14495SOL     OW45258   0.382   9.646   2.457
14495SOL    HW145259   0.317   9.629   2.389
14495SOL    HW245260   0.342   9.710   2.514
14496SOL     OW45261   7.418  13.788   2.743
14496SOL    HW145262   7.454  13.809   2.829
14496SOL    HW245263   7.494  13.781   2.686
14497SOL     OW45264   3.830  12.883  14.733
14497SOL    HW145265   3.749  12.920  14.768
14497SOL    HW245266   3.823  12.789  14.750
14498SOL     OW45267   9.023   9.743   6.647
14498SOL    HW145268   9.041   9.706   6.560
14498SOL    HW245269   8.956   9.686   6.684
14499SOL     OW45270   4.197   1.575   9.044
14499SOL    HW145271   4.183   1.492   8.998
14499SOL    HW245272   4.289   1.597   9.027
14500SOL     OW45273   1.748  13.520   0.860
14500SOL    HW145274   1.746  13.468   0.940
14500SOL    HW245275   1.841  13.537   0.845
14501SOL     OW45276   0.860  12.829   0.013
14501SOL    HW145277   0.940  12.840  14.838
14501SOL    HW245278   0.831  12.740  14.872
14502SOL     OW45279  13.807   0.160   2.562
14502SOL    HW145280  13.745   0.141   2.633
14502SOL    HW245281  13.852   0.240   2.590
14503SOL     OW45282   8.843   4.087   9.786
14503SOL    HW145283   8.822   4.164   9.840
14503SOL    HW245284   8.772   4.083   9.722
14504SOL     OW45285  10.687   9.046  11.324
14504SOL    HW145286  10.651   9.093  11.249
14504SOL    HW245287  10.734   8.972  11.286
14505SOL     OW45288   5.458   3.698  13.884
14505SOL    HW145289   5.371   3.704  13.845
14505SOL    HW245290   5.518   3.691  13.810
14506SOL     OW45291  14.476   4.114   7.727
14506SOL    HW145292  14.543   4.072   7.781
14506SOL    HW245293  14.418   4.157   7.789
14507SOL     OW45294  10.797   9.397   5.921
14507SOL    HW145295  10.819   9.307   5.945
14507SOL    HW245296  10.881   9.443   5.920
14508SOL     OW45297  10.417   4.323   6.754
14508SOL    HW145298  10.477   4.398   6.760
14508SOL    HW245299  10.333   4.358   6.784
14509SOL     OW45300   2.789   2.236  10.190
14509SOL    HW145301   2.783   2.310  10.129
14509SOL    HW245302   2.874   2.196  10.169
14510SOL     OW45303  13.929   4.681  11.933
14510SOL    HW145304  13.838   4.676  11.961
14510SOL    HW245305  13.930   4.752  11.868
14511SOL     OW45306   5.486  10.657   1.471
14511SOL    HW145307   5.519  10.746   1.478
14511SOL    HW245308   5.420  10.650   1.540
14512SOL     OW45309  11.590   2.056  14.517
14512SOL    HW145310  11.532   2.075  14.590
14512SOL    HW245311  11.612   1.964  14.527
14513SOL     OW45312  14.110   3.410  11.431
14513SOL    HW145313  14.062   3.486  11.465
14513SOL    HW245314  14.120   3.428  11.337
14514SOL     OW45315   6.265   4.834   5.321
14514SOL    HW145316   6.300   4.797   5.240
14514SOL    HW245317   6.266   4.760   5.383
14515SOL     OW45318  10.617  10.958  14.300
14515SOL    HW145319  10.702  10.964  14.256
14515SOL    HW245320  10.634  10.990  14.388
14516SOL     OW45321  14.136  13.086   5.428
14516SOL    HW145322  14.051  13.083   5.384
14516SOL    HW245323  14.147  13.178   5.453
14517SOL     OW45324   5.877   5.451   2.481
14517SOL    HW145325   5.786   5.431   2.505
14517SOL    HW245326   5.928   5.385   2.528
14518SOL     OW45327   3.936  10.394  14.696
14518SOL    HW145328   3.997  10.322  14.708
14518SOL    HW245329   3.896  10.377  14.610
14519SOL     OW45330  14.680   1.722   9.833
14519SOL    HW145331  14.717   1.745   9.748
14519SOL    HW245332  14.638   1.802   9.864
14520SOL     OW45333   6.934   2.803  11.047
14520SOL    HW145334   6.887   2.723  11.023
14520SOL    HW245335   6.993   2.819  10.973
14521SOL     OW45336   8.872   2.634   3.231
14521SOL    HW145337   8.818   2.559   3.256
14521SOL    HW245338   8.905   2.612   3.144
14522SOL     OW45339   5.010   9.246   9.385
14522SOL    HW145340   5.009   9.335   9.420
14522SOL    HW245341   4.985   9.257   9.293
14523SOL     OW45342  13.230   4.985   3.987
14523SOL    HW145343  13.146   5.016   3.953
14523SOL    HW245344  13.291   5.056   3.968
14524SOL     OW45345  12.794  14.373   6.747
14524SOL    HW145346  12.700  14.376   6.760
14524SOL    HW245347  12.814  14.447   6.690
14525SOL     OW45348   6.852   9.954   4.744
14525SOL    HW145349   6.807  10.030   4.706
14525SOL    HW245350   6.908   9.923   4.674
14526SOL     OW45351   4.526  10.642   9.938
14526SOL    HW145352   4.478  10.653  10.020
14526SOL    HW245353   4.472  10.687   9.873
14527SOL     OW45354  12.951   2.489  11.366
14527SOL    HW145355  12.926   2.504  11.275
14527SOL    HW245356  12.940   2.574  11.409
14528SOL     OW45357   7.888   8.580   5.532
14528SOL    HW145358   7.819   8.646   5.521
14528SOL    HW245359   7.897   8.571   5.627
14529SOL     OW45360   0.275  12.127   7.807
14529SOL    HW145361   0.222  12.207   7.813
14529SOL    HW245362   0.216  12.057   7.833
14530SOL     OW45363   2.854   1.766   2.598
14530SOL    HW145364   2.844   1.703   2.527
14530SOL    HW245365   2.932   1.737   2.646
14531SOL     OW45366   9.757   6.798  14.705
14531SOL    HW145367   9.676   6.848  14.714
14531SOL    HW245368   9.816   6.835  14.771
14532SOL     OW45369   3.437   2.783   0.354
14532SOL    HW145370   3.374   2.713   0.339
14532SOL    HW245371   3.469   2.805   0.267
14533SOL     OW45372   6.172   2.755   2.847
14533SOL    HW145373   6.107   2.778   2.781
14533SOL    HW245374   6.202   2.668   2.821
14534SOL     OW45375  14.654  14.106   3.995
14534SOL    HW145376  14.735  14.151   3.970
14534SOL    HW245377  14.659  14.101   4.091
14535SOL     OW45378  12.534  10.057  10.265
14535SOL    HW145379  12.554  10.103  10.346
14535SOL    HW245380  12.484  10.120  10.213
14536SOL     OW45381   5.207   5.515  12.719
14536SOL    HW145382   5.149   5.477  12.652
14536SOL    HW245383   5.192   5.609  12.713
14537SOL     OW45384  14.286   9.431   8.693
14537SOL    HW145385  14.245   9.345   8.697
14537SOL    HW245386  14.375   9.413   8.663
14538SOL     OW45387   5.588   5.541   1.254
14538SOL    HW145388   5.624   5.556   1.342
14538SOL    HW245389   5.517   5.478   1.269
14539SOL     OW45390  11.814   4.180   3.745
14539SOL    HW145391  11.870   4.128   3.687
14539SOL    HW245392  11.786   4.254   3.692
14540SOL     OW45393   7.035   4.343   3.687
14540SOL    HW145394   7.068   4.377   3.603
14540SOL    HW245395   7.059   4.409   3.751
14541SOL     OW45396   1.351   5.804   5.536
14541SOL    HW145397   1.287   5.837   5.598
14541SOL    HW245398   1.301   5.786   5.456
14542SOL     OW45399   7.546   7.878   4.193
14542SOL    HW145400   7.590   7.902   4.274
14542SOL    HW245401   7.606   7.906   4.124
14543SOL     OW45402   0.439   4.515  13.011
14543SOL    HW145403   0.477   4.457  13.077
14543SOL    HW245404   0.375   4.460  12.965
14544SOL     OW45405  10.675   9.598  10.613
14544SOL    HW145406  10.668   9.532  10.682
14544SOL    HW245407  10.644   9.679  10.654
14545SOL     OW45408   6.781   6.268   9.072
14545SOL    HW145409   6.756   6.344   9.124
14545SOL    HW245410   6.874   6.283   9.051
14546SOL     OW45411  11.790  12.429  10.703
14546SOL    HW145412  11.698  12.403  10.701
14546SOL    HW245413  11.821  12.414  10.614
14547SOL     OW45414   2.563  12.006   0.760
14547SOL    HW145415   2.628  12.073   0.781
14547SOL    HW245416   2.537  11.971   0.845
14548SOL     OW45417   5.524   2.621   7.988
14548SOL    HW145418   5.613   2.613   7.952
14548SOL    HW245419   5.523   2.560   8.062
14549SOL     OW45420   1.749  11.572   4.161
14549SOL    HW145421   1.765  11.479   4.145
14549SOL    HW245422   1.671  11.592   4.109
14550SOL     OW45423  11.237  11.151  12.547
14550SOL    HW145424  11.209  11.233  12.585
14550SOL    HW245425  11.278  11.176  12.464
14551SOL     OW45426   3.195  12.513   3.415
14551SOL    HW145427   3.216  12.606   3.408
14551SOL    HW245428   3.274  12.469   3.384
14552SOL     OW45429   2.386  11.450   4.231
14552SOL    HW145430   2.367  11.542   4.216
14552SOL    HW245431   2.482  11.445   4.232
14553SOL     OW45432  13.235   3.657   5.516
14553SOL    HW145433  13.191   3.596   5.457
14553SOL    HW245434  13.219   3.743   5.478
14554SOL     OW45435   8.037  14.095  12.807
14554SOL    HW145436   8.116  14.145  12.788
14554SOL    HW245437   8.038  14.083  12.902
14555SOL     OW45438   2.159   3.441  11.424
14555SOL    HW145439   2.107   3.362  11.409
14555SOL    HW245440   2.230   3.436  11.360
14556SOL     OW45441   5.904   6.484   9.555
14556SOL    HW145442   5.832   6.469   9.617
14556SOL    HW245443   5.873   6.445   9.473
14557SOL     OW45444   5.079   4.283   9.802
14557SOL    HW145445   5.139   4.339   9.752
14557SOL    HW245446   5.033   4.232   9.736
14558SOL     OW45447   8.476  14.614  10.041
14558SOL    HW145448   8.465  14.602   9.946
14558SOL    HW245449   8.491  14.526  10.074
14559SOL     OW45450   5.671   8.665   3.263
14559SOL    HW145451   5.764   8.644   3.272
14559SOL    HW245452   5.648   8.710   3.344
14560SOL     OW45453   8.598  14.118   1.810
14560SOL    HW145454   8.599  14.054   1.740
14560SOL    HW245455   8.530  14.181   1.785
14561SOL     OW45456  10.119   5.033   0.583
14561SOL    HW145457  10.113   5.123   0.551
14561SOL    HW245458  10.029   5.000   0.579
14562SOL     OW45459  10.252   5.779   0.872
14562SOL    HW145460  10.160   5.755   0.882
14562SOL    HW245461  10.292   5.756   0.956
14563SOL     OW45462   7.589   1.017  12.824
14563SOL    HW145463   7.678   1.019  12.788
14563SOL    HW245464   7.594   1.067  12.905
14564SOL     OW45465  13.488   1.640   6.051
14564SOL    HW145466  13.582   1.641   6.034
14564SOL    HW245467  13.467   1.548   6.065
14565SOL     OW45468   0.221   5.929   1.195
14565SOL    HW145469   0.217   5.833   1.199
14565SOL    HW245470   0.157   5.952   1.127
14566SOL     OW45471   5.238   9.759   9.462
14566SOL    HW145472   5.308   9.727   9.518
14566SOL    HW245473   5.222   9.849   9.491
14567SOL     OW45474   1.918   2.862  14.007
14567SOL    HW145475   1.930   2.945  14.054
14567SOL    HW245476   1.824   2.854  13.995
14568SOL     OW45477   3.555   2.659  11.773
14568SOL    HW145478   3.511   2.698  11.698
14568SOL    HW245479   3.545   2.564  11.760
14569SOL     OW45480   7.861   4.365   6.777
14569SOL    HW145481   7.895   4.300   6.838
14569SOL    HW245482   7.861   4.447   6.827
14570SOL     OW45483  11.140   4.234   9.333
14570SOL    HW145484  11.173   4.160   9.282
14570SOL    HW245485  11.052   4.208   9.360
14571SOL     OW45486   9.048   3.892  10.105
14571SOL    HW145487   9.031   3.985  10.117
14571SOL    HW245488   9.077   3.884  10.014
14572SOL     OW45489   6.099   7.677   0.712
14572SOL    HW145490   6.124   7.710   0.626
14572SOL    HW245491   6.179   7.679   0.764
14573SOL     OW45492   0.921   2.354   1.918
14573SOL    HW145493   0.981   2.426   1.938
14573SOL    HW245494   0.839   2.398   1.894
14574SOL     OW45495   6.977   7.332  12.208
14574SOL    HW145496   6.993   7.294  12.294
14574SOL    HW245497   6.936   7.261  12.158
14575SOL     OW45498   5.518   3.052  12.985
14575SOL    HW145499   5.523   3.148  12.989
14575SOL    HW245500   5.477   3.027  13.067
14576SOL     OW45501   8.651   4.792  13.751
14576SOL    HW145502   8.730   4.820  13.797
14576SOL    HW245503   8.654   4.840  13.668
14577SOL     OW45504   7.093   4.903  11.657
14577SOL    HW145505   7.003   4.911  11.688
14577SOL    HW245506   7.137   4.850  11.723
14578SOL     OW45507   7.047   1.628   9.657
14578SOL    HW145508   7.069   1.614   9.749
14578SOL    HW245509   7.131   1.645   9.615
14579SOL     OW45510   5.123  11.403  12.929
14579SOL    HW145511   5.160  11.318  12.903
14579SOL    HW245512   5.088  11.388  13.017
14580SOL     OW45513   5.610   7.540   1.238
14580SOL    HW145514   5.687   7.562   1.186
14580SOL    HW245515   5.612   7.602   1.311
14581SOL     OW45516   2.674   1.109   2.912
14581SOL    HW145517   2.767   1.124   2.902
14581SOL    HW245518   2.645   1.179   2.971
14582SOL     OW45519   1.935  11.992   1.685
14582SOL    HW145520   1.954  11.898   1.674
14582SOL    HW245521   1.990  12.019   1.759
14583SOL     OW45522   6.334  11.401  14.241
14583SOL    HW145523   6.364  11.368  14.326
14583SOL    HW245524   6.367  11.338  14.178
14584SOL     OW45525   1.556   3.738   1.900
14584SOL    HW145526   1.625   3.674   1.916
14584SOL    HW245527   1.540   3.733   1.805
14585SOL     OW45528   2.042  14.644   6.655
14585SOL    HW145529   2.113  14.655   6.719
14585SOL    HW245530   2.051  14.553   6.625
14586SOL     OW45531   2.924   4.696   2.895
14586SOL    HW145532   2.953   4.647   2.972
14586SOL    HW245533   3.005   4.733   2.859
14587SOL     OW45534   0.393   7.991  11.560
14587SOL    HW145535   0.383   8.037  11.477
14587SOL    HW245536   0.474   8.026  11.597
14588SOL     OW45537   7.579   4.815   9.707
14588SOL    HW145538   7.611   4.883   9.646
14588SOL    HW245539   7.491   4.843   9.729
14589SOL     OW45540  13.434   8.254   2.768
14589SOL    HW145541  13.423   8.159   2.779
14589SOL    HW245542  13.348   8.290   2.789
14590SOL     OW45543   8.867   9.097  14.809
14590SOL    HW145544   8.862   9.002  14.818
14590SOL    HW245545   8.817   9.131   0.004
14591SOL     OW45546  10.656   0.129  13.059
14591SOL    HW145547  10.650   0.207  13.114
14591SOL    HW245548  10.690   0.061  13.117
14592SOL     OW45549  12.255  14.572   3.090
14592SOL    HW145550  12.316  14.631   3.134
14592SOL    HW245551  12.309  14.502   3.055
14593SOL     OW45552   9.104  10.134   9.886
14593SOL    HW145553   9.184  10.184   9.875
14593SOL    HW245554   9.129  10.061   9.942
14594SOL     OW45555   6.549  11.100  11.667
14594SOL    HW145556   6.611  11.028  11.667
14594SOL    HW245557   6.464  11.059  11.650
14595SOL     OW45558  13.874   3.445   6.079
14595SOL    HW145559  13.813   3.411   6.145
14595SOL    HW245560  13.825   3.444   5.997
14596SOL     OW45561   0.281   4.704   8.555
14596SOL    HW145562   0.265   4.646   8.629
14596SOL    HW245563   0.228   4.668   8.484
14597SOL     OW45564  13.291   7.432   4.417
14597SOL    HW145565  13.346   7.415   4.493
14597SOL    HW245566  13.208   7.464   4.454
14598SOL     OW45567   6.965   8.961   9.056
14598SOL    HW145568   7.042   8.987   9.105
14598SOL    HW245569   6.891   8.982   9.113
14599SOL     OW45570  10.665  10.340   0.707
14599SOL    HW145571  10.629  10.257   0.738
14599SOL    HW245572  10.676  10.392   0.787
14600SOL     OW45573   1.699   8.753   5.772
14600SOL    HW145574   1.766   8.820   5.784
14600SOL    HW245575   1.745   8.670   5.788
14601SOL     OW45576   0.438   5.623   1.702
14601SOL    HW145577   0.437   5.699   1.761
14601SOL    HW245578   0.352   5.582   1.714
14602SOL     OW45579   5.405   0.576   6.519
14602SOL    HW145580   5.483   0.539   6.477
14602SOL    HW245581   5.348   0.601   6.446
14603SOL     OW45582   5.628  10.722   8.181
14603SOL    HW145583   5.562  10.700   8.115
14603SOL    HW245584   5.586  10.701   8.265
14604SOL     OW45585  10.457   4.946   0.320
14604SOL    HW145586  10.447   4.864   0.271
14604SOL    HW245587  10.516   4.923   0.392
14605SOL     OW45588   5.671   7.123  10.562
14605SOL    HW145589   5.629   7.087  10.639
14605SOL    HW245590   5.701   7.210  10.589
14606SOL     OW45591   7.848   5.131  10.777
14606SOL    HW145592   7.899   5.060  10.816
14606SOL    HW245593   7.902   5.161  10.703
14607SOL     OW45594  12.020   9.661   7.522
14607SOL    HW145595  12.012   9.582   7.469
14607SOL    HW245596  12.073   9.721   7.469
14608SOL     OW45597   8.474   0.667   9.243
14608SOL    HW145598   8.402   0.623   9.289
14608SOL    HW245599   8.446   0.671   9.152
14609SOL     OW45600   7.981   5.288   0.715
14609SOL    HW145601   8.053   5.288   0.778
14609SOL    HW245602   7.995   5.367   0.662
14610SOL     OW45603  12.435   4.231   3.048
14610SOL    HW145604  12.389   4.292   3.106
14610SOL    HW245605  12.515   4.277   3.023
14611SOL     OW45606   4.178  13.053   3.528
14611SOL    HW145607   4.114  13.119   3.503
14611SOL    HW245608   4.126  12.974   3.545
14612SOL     OW45609   0.547   2.235   6.010
14612SOL    HW145610   0.577   2.243   6.100
14612SOL    HW245611   0.465   2.186   6.016
14613SOL     OW45612   4.639  12.782   1.382
14613SOL    HW145613   4.606  12.703   1.340
14613SOL    HW245614   4.662  12.840   1.310
14614SOL     OW45615   1.055   6.055   7.796
14614SOL    HW145616   1.016   6.142   7.806
14614SOL    HW245617   1.007   6.000   7.858
14615SOL     OW45618   0.203   2.933   6.761
14615SOL    HW145619   0.114   2.961   6.739
14615SOL    HW245620   0.254   2.954   6.683
14616SOL     OW45621  13.064   8.357   2.369
14616SOL    HW145622  13.086   8.396   2.454
14616SOL    HW245623  12.995   8.295   2.388
14617SOL     OW45624   5.536   4.565   4.852
14617SOL    HW145625   5.619   4.610   4.838
14617SOL    HW245626   5.548   4.478   4.815
14618SOL     OW45627  14.774   2.172   5.049
14618SOL    HW145628  14.734   2.246   5.004
14618SOL    HW245629  14.708   2.141   5.110
14619SOL     OW45630  11.791   6.123  11.629
14619SOL    HW145631  11.843   6.185  11.680
14619SOL    HW245632  11.701   6.156  11.636
14620SOL     OW45633   2.829   3.052  13.040
14620SOL    HW145634   2.889   3.002  13.095
14620SOL    HW245635   2.849   3.024  12.951
14621SOL     OW45636  13.099   9.139  11.861
14621SOL    HW145637  13.189   9.112  11.841
14621SOL    HW245638  13.059   9.155  11.776
14622SOL     OW45639  13.957  13.703   1.709
14622SOL    HW145640  14.022  13.640   1.677
14622SOL    HW245641  13.940  13.761   1.635
14623SOL     OW45642   8.971  12.045   6.906
14623SOL    HW145643   8.964  12.139   6.891
14623SOL    HW245644   8.915  12.029   6.983
14624SOL     OW45645   6.596  10.948   1.634
14624SOL    HW145646   6.558  11.035   1.625
14624SOL    HW245647   6.634  10.948   1.722
14625SOL     OW45648   5.869   2.322   4.832
14625SOL    HW145649   5.782   2.311   4.794
14625SOL    HW245650   5.928   2.326   4.756
14626SOL     OW45651  13.653   8.498   9.018
14626SOL    HW145652  13.562   8.520   9.036
14626SOL    HW245653  13.667   8.413   9.060
14627SOL     OW45654   3.762   4.041   7.775
14627SOL    HW145655   3.850   4.016   7.802
14627SOL    HW245656   3.709   4.032   7.855
14628SOL     OW45657   7.899   2.763  11.490
14628SOL    HW145658   7.991   2.747  11.506
14628SOL    HW245659   7.888   2.751  11.396
14629SOL     OW45660  10.155  14.289  12.094
14629SOL    HW145661  10.198  14.368  12.128
14629SOL    HW245662  10.063  14.312  12.087
14630SOL     OW45663  11.274   4.801  10.587
14630SOL    HW145664  11.180   4.820  10.594
14630SOL    HW245665  11.280   4.738  10.515
14631SOL     OW45666   5.478   9.820  11.651
14631SOL    HW145667   5.458   9.778  11.568
14631SOL    HW245668   5.515   9.749  11.705
14632SOL     OW45669  10.800   6.859   4.932
14632SOL    HW145670  10.826   6.838   5.022
14632SOL    HW245671  10.768   6.949   4.936
14633SOL     OW45672  12.847  10.682   5.811
14633SOL    HW145673  12.846  10.694   5.716
14633SOL    HW245674  12.754  10.682   5.836
14634SOL     OW45675   2.687   9.814   0.317
14634SOL    HW145676   2.749   9.810   0.243
14634SOL    HW245677   2.628   9.740   0.302
14635SOL     OW45678   0.680   1.590   4.469
14635SOL    HW145679   0.723   1.565   4.387
14635SOL    HW245680   0.745   1.644   4.513
14636SOL     OW45681   9.720   4.753  11.355
14636SOL    HW145682   9.665   4.822  11.391
14636SOL    HW245683   9.666   4.710  11.289
14637SOL     OW45684   7.207   3.472   8.435
14637SOL    HW145685   7.239   3.415   8.365
14637SOL    HW245686   7.188   3.413   8.508
14638SOL     OW45687  13.133   7.005  10.555
14638SOL    HW145688  13.085   6.924  10.570
14638SOL    HW245689  13.222   6.986  10.583
14639SOL     OW45690  10.744  10.534   4.201
14639SOL    HW145691  10.662  10.490   4.226
14639SOL    HW245692  10.738  10.543   4.106
14640SOL     OW45693  12.459   4.594   6.046
14640SOL    HW145694  12.496   4.651   6.113
14640SOL    HW245695  12.445   4.511   6.090
14641SOL     OW45696   2.375  11.118   3.599
14641SOL    HW145697   2.470  11.106   3.607
14641SOL    HW245698   2.342  11.104   3.688
14642SOL     OW45699  11.265   6.624   7.929
14642SOL    HW145700  11.281   6.621   7.834
14642SOL    HW245701  11.326   6.690   7.961
14643SOL     OW45702   6.843  12.752  12.337
14643SOL    HW145703   6.913  12.791  12.285
14643SOL    HW245704   6.825  12.669  12.294
14644SOL     OW45705  12.390   5.260   7.529
14644SOL    HW145706  12.318   5.199   7.511
14644SOL    HW245707  12.367   5.338   7.479
14645SOL     OW45708  13.152  13.127   0.594
14645SOL    HW145709  13.148  13.107   0.687
14645SOL    HW245710  13.168  13.043   0.551
14646SOL     OW45711  14.118   4.894   6.101
14646SOL    HW145712  14.191   4.944   6.064
14646SOL    HW245713  14.145   4.873   6.190
14647SOL     OW45714   6.211  11.016   4.877
14647SOL    HW145715   6.267  10.953   4.922
14647SOL    HW245716   6.185  10.972   4.796
14648SOL     OW45717   5.283  10.386   4.164
14648SOL    HW145718   5.352  10.362   4.225
14648SOL    HW245719   5.327  10.393   4.079
14649SOL     OW45720  12.737   1.954   4.321
14649SOL    HW145721  12.788   1.945   4.401
14649SOL    HW245722  12.647   1.971   4.351
14650SOL     OW45723   0.269   5.168   4.204
14650SOL    HW145724   0.247   5.149   4.113
14650SOL    HW245725   0.197   5.129   4.254
14651SOL     OW45726   1.244   5.407  14.229
14651SOL    HW145727   1.294   5.488  14.230
14651SOL    HW245728   1.268   5.365  14.146
14652SOL     OW45729   6.105   5.151   1.310
14652SOL    HW145730   6.116   5.066   1.268
14652SOL    HW245731   6.119   5.215   1.240
14653SOL     OW45732   9.899   5.050   1.061
14653SOL    HW145733   9.894   4.963   1.100
14653SOL    HW245734   9.856   5.107   1.125
14654SOL     OW45735  13.455  13.130   6.356
14654SOL    HW145736  13.483  13.168   6.440
14654SOL    HW245737  13.454  13.036   6.371
14655SOL     OW45738   5.614   7.845  13.239
14655SOL    HW145739   5.653   7.830  13.153
14655SOL    HW245740   5.683   7.823  13.301
14656SOL     OW45741  12.027   8.855  10.248
14656SOL    HW145742  12.072   8.787  10.298
14656SOL    HW245743  11.934   8.835  10.257
14657SOL     OW45744   0.045  13.802   9.686
14657SOL    HW145745  14.868  13.856   9.742
14657SOL    HW245746  14.875  13.720   9.678
14658SOL     OW45747   5.416   2.825   8.271
14658SOL    HW145748   5.390   2.889   8.338
14658SOL    HW245749   5.382   2.861   8.189
14659SOL     OW45750   1.760   6.151  13.062
14659SOL    HW145751   1.832   6.169  13.122
14659SOL    HW245752   1.771   6.213  12.991
14660SOL     OW45753   7.015   2.711  13.891
14660SOL    HW145754   7.078   2.781  13.873
14660SOL    HW245755   6.987   2.727  13.981
14661SOL     OW45756   3.779  14.400   1.718
14661SOL    HW145757   3.777  14.383   1.623
14661SOL    HW245758   3.841  14.472   1.727
14662SOL     OW45759  11.068   9.104  11.612
14662SOL    HW145760  11.029   9.045  11.677
14662SOL    HW245761  11.134   9.153  11.662
14663SOL     OW45762   7.885  14.820   0.090
14663SOL    HW145763   7.819   0.011   0.096
14663SOL    HW245764   7.967  14.866   0.074
14664SOL     OW45765   9.202   1.503  10.189
14664SOL    HW145766   9.202   1.416  10.150
14664SOL    HW245767   9.274   1.549  10.145
14665SOL     OW45768   0.230   5.260   1.143
14665SOL    HW145769   0.277   5.324   1.090
14665SOL    HW245770   0.216   5.304   1.227
14666SOL     OW45771   8.082  12.552   0.222
14666SOL    HW145772   8.062  12.511   0.137
14666SOL    HW245773   7.998  12.585   0.253
14667SOL     OW45774   6.821  10.871   2.772
14667SOL    HW145775   6.769  10.795   2.801
14667SOL    HW245776   6.901  10.832   2.737
14668SOL     OW45777   7.422   8.411   6.026
14668SOL    HW145778   7.426   8.469   5.949
14668SOL    HW245779   7.495   8.351   6.015
14669SOL     OW45780   7.605   6.905  13.057
14669SOL    HW145781   7.643   6.988  13.088
14669SOL    HW245782   7.673   6.840  13.074
14670SOL     OW45783  12.593   4.981   0.731
14670SOL    HW145784  12.602   4.939   0.816
14670SOL    HW245785  12.502   5.009   0.727
14671SOL     OW45786  13.738  12.516   3.324
14671SOL    HW145787  13.705  12.511   3.234
14671SOL    HW245788  13.687  12.451   3.372
14672SOL     OW45789   7.187   8.900   3.897
14672SOL    HW145790   7.143   8.941   3.972
14672SOL    HW245791   7.239   8.829   3.936
14673SOL     OW45792   5.378  13.455  10.864
14673SOL    HW145793   5.430  13.471  10.786
14673SOL    HW245794   5.292  13.430  10.831
14674SOL     OW45795   3.926   6.719   6.419
14674SOL    HW145796   4.003   6.759   6.380
14674SOL    HW245797   3.959   6.674   6.497
14675SOL     OW45798   6.564   9.975  11.516
14675SOL    HW145799   6.634   9.913  11.537
14675SOL    HW245800   6.539   9.952  11.426
14676SOL     OW45801   7.675   8.814   0.783
14676SOL    HW145802   7.646   8.867   0.857
14676SOL    HW245803   7.631   8.851   0.707
14677SOL     OW45804   2.245   3.463  10.182
14677SOL    HW145805   2.236   3.538  10.240
14677SOL    HW245806   2.308   3.492  10.115
14678SOL     OW45807   9.112  10.753   7.151
14678SOL    HW145808   9.026  10.766   7.112
14678SOL    HW245809   9.173  10.765   7.078
14679SOL     OW45810   0.689  12.160   0.026
14679SOL    HW145811   0.646  12.082   0.062
14679SOL    HW245812   0.782  12.135   0.021
14680SOL     OW45813  14.217   6.991   0.298
14680SOL    HW145814  14.311   7.008   0.309
14680SOL    HW245815  14.213   6.921   0.233
14681SOL     OW45816  14.732   1.171  11.906
14681SOL    HW145817  14.771   1.208  11.826
14681SOL    HW245818  14.769   1.224  11.977
14682SOL     OW45819  13.490  10.773   8.201
14682SOL    HW145820  13.560  10.757   8.138
14682SOL    HW245821  13.411  10.785   8.148
14683SOL     OW45822  13.146   2.717  14.436
14683SOL    HW145823  13.214   2.725  14.503
14683SOL    HW245824  13.140   2.624  14.418
14684SOL     OW45825   0.116   1.213  14.809
14684SOL    HW145826   0.183   1.161  14.853
14684SOL    HW245827   0.162   1.292  14.781
14685SOL     OW45828   5.787  11.224   9.559
14685SOL    HW145829   5.737  11.270   9.492
14685SOL    HW245830   5.877  11.257   9.549
14686SOL     OW45831  14.638   8.301   9.653
14686SOL    HW145832  14.687   8.365   9.705
14686SOL    HW245833  14.630   8.224   9.709
14687SOL     OW45834   8.582   4.969  10.354
14687SOL    HW145835   8.496   5.008  10.336
14687SOL    HW245836   8.627   4.970  10.270
14688SOL     OW45837   3.166   0.454  11.180
14688SOL    HW145838   3.131   0.455  11.091
14688SOL    HW245839   3.164   0.546  11.208
14689SOL     OW45840   0.733   0.783   9.618
14689SOL    HW145841   0.748   0.739   9.701
14689SOL    HW245842   0.640   0.768   9.600
14690SOL     OW45843   8.958  11.316  10.428
14690SOL    HW145844   8.865  11.321  10.450
14690SOL    HW245845   8.977  11.222  10.423
14691SOL     OW45846  10.989   2.320   6.576
14691SOL    HW145847  10.962   2.235   6.609
14691SOL    HW245848  10.929   2.338   6.504
14692SOL     OW45849  10.197   3.262   0.681
14692SOL    HW145850  10.253   3.334   0.652
14692SOL    HW245851  10.174   3.216   0.599
14693SOL     OW45852   4.501   2.511   0.789
14693SOL    HW145853   4.516   2.586   0.732
14693SOL    HW245854   4.435   2.458   0.744
14694SOL     OW45855   1.726  11.794   1.385
14694SOL    HW145856   1.668  11.722   1.410
14694SOL    HW245857   1.788  11.756   1.324
14695SOL     OW45858   3.033   9.724   7.964
14695SOL    HW145859   3.048   9.819   7.956
14695SOL    HW245860   2.941   9.713   7.940
14696SOL     OW45861  14.103  13.654   0.612
14696SOL    HW145862  14.137  13.642   0.700
14696SOL    HW245863  14.166  13.713   0.570
14697SOL     OW45864   0.766   1.430   7.837
14697SOL    HW145865   0.793   1.447   7.927
14697SOL    HW245866   0.770   1.516   7.794
14698SOL     OW45867  11.066   7.862   5.390
14698SOL    HW145868  11.138   7.803   5.367
14698SOL    HW245869  11.099   7.913   5.464
14699SOL     OW45870   3.800  13.027  10.956
14699SOL    HW145871   3.775  13.109  10.914
14699SOL    HW245872   3.732  12.965  10.931
14700SOL     OW45873  13.962   5.051  12.155
14700SOL    HW145874  13.886   5.021  12.104
14700SOL    HW245875  14.019   4.974  12.161
14701SOL     OW45876   1.982   5.416  14.465
14701SOL    HW145877   1.970   5.468  14.385
14701SOL    HW245878   2.070   5.380  14.457
14702SOL     OW45879   0.277  14.087  11.439
14702SOL    HW145880   0.194  14.081  11.391
14702SOL    HW245881   0.251  14.109  11.528
14703SOL     OW45882   5.978  11.860   6.327
14703SOL    HW145883   5.964  11.941   6.376
14703SOL    HW245884   5.893  11.817   6.325
14704SOL     OW45885   8.318   1.306  14.793
14704SOL    HW145886   8.246   1.365  14.815
14704SOL    HW245887   8.397   1.354  14.817
14705SOL     OW45888   7.775  14.734   4.254
14705SOL    HW145889   7.746  14.816   4.216
14705SOL    HW245890   7.738  14.734   4.343
14706SOL     OW45891   6.077   0.224   4.857
14706SOL    HW145892   6.155   0.224   4.912
14706SOL    HW245893   6.071   0.134   4.825
14707SOL     OW45894   0.112  10.248   4.990
14707SOL    HW145895   0.176  10.203   5.044
14707SOL    HW245896   0.163  10.309   4.936
14708SOL     OW45897   5.648   2.721   9.758
14708SOL    HW145898   5.684   2.760   9.678
14708SOL    HW245899   5.688   2.634   9.762
14709SOL     OW45900   7.190   5.266  14.415
14709SOL    HW145901   7.259   5.322  14.379
14709SOL    HW245902   7.211   5.258  14.508
14710SOL     OW45903   2.199   4.540   1.063
14710SOL    HW145904   2.107   4.515   1.070
14710SOL    HW245905   2.202   4.600   0.988
14711SOL     OW45906   8.165   9.001   9.523
14711SOL    HW145907   8.086   9.043   9.557
14711SOL    HW245908   8.189   8.936   9.589
14712SOL     OW45909   3.661   9.522   1.008
14712SOL    HW145910   3.586   9.581   1.002
14712SOL    HW245911   3.704   9.530   0.923
14713SOL     OW45912   6.082   9.824  11.173
14713SOL    HW145913   6.027   9.875  11.233
14713SOL    HW245914   6.049   9.734  11.182
14714SOL     OW45915  13.765  13.043  11.327
14714SOL    HW145916  13.825  13.112  11.354
14714SOL    HW245917  13.689  13.053  11.384
14715SOL     OW45918   7.248   6.264   5.463
14715SOL    HW145919   7.214   6.348   5.494
14715SOL    HW245920   7.330   6.252   5.512
14716SOL     OW45921  10.717  11.140   2.726
14716SOL    HW145922  10.643  11.191   2.693
14716SOL    HW245923  10.682  11.091   2.800
14717SOL     OW45924   9.970  11.060   1.117
14717SOL    HW145925  10.021  11.122   1.169
14717SOL    HW245926   9.950  11.108   1.036
14718SOL     OW45927  14.806  11.234  12.978
14718SOL    HW145928   0.024  11.225  12.978
14718SOL    HW245929  14.775  11.162  12.925
14719SOL     OW45930   3.077   1.928   6.096
14719SOL    HW145931   3.137   1.923   6.021
14719SOL    HW245932   3.124   1.883   6.167
14720SOL     OW45933  12.243   3.043  13.533
14720SOL    HW145934  12.302   3.038  13.608
14720SOL    HW245935  12.186   3.118  13.551
14721SOL     OW45936   7.831   0.574   8.444
14721SOL    HW145937   7.888   0.539   8.512
14721SOL    HW245938   7.743   0.555   8.475
14722SOL     OW45939  10.678   0.622   6.655
14722SOL    HW145940  10.747   0.659   6.600
14722SOL    HW245941  10.714   0.539   6.686
14723SOL     OW45942  10.286   8.331  13.047
14723SOL    HW145943  10.327   8.292  12.969
14723SOL    HW245944  10.205   8.370  13.014
14724SOL     OW45945   0.781   7.169  12.374
14724SOL    HW145946   0.721   7.177  12.449
14724SOL    HW245947   0.766   7.080  12.342
14725SOL     OW45948   7.959   6.646   2.094
14725SOL    HW145949   8.035   6.612   2.047
14725SOL    HW245950   7.966   6.608   2.181
14726SOL     OW45951   8.815   5.333   4.595
14726SOL    HW145952   8.898   5.379   4.606
14726SOL    HW245953   8.757   5.397   4.555
14727SOL     OW45954   7.050   1.540  14.082
14727SOL    HW145955   7.120   1.601  14.107
14727SOL    HW245956   7.040   1.553  13.988
14728SOL     OW45957  12.153   5.908   9.263
14728SOL    HW145958  12.133   5.853   9.187
14728SOL    HW245959  12.078   5.898   9.321
14729SOL     OW45960  14.215   6.199   1.452
14729SOL    HW145961  14.244   6.140   1.521
14729SOL    HW245962  14.274   6.274   1.458
14730SOL     OW45963   3.132  12.463   7.705
14730SOL    HW145964   3.194  12.527   7.671
14730SOL    HW245965   3.107  12.411   7.628
14731SOL     OW45966  11.769   9.330   5.297
14731SOL    HW145967  11.794   9.285   5.378
14731SOL    HW245968  11.702   9.274   5.258
14732SOL     OW45969   5.949   9.433   4.082
14732SOL    HW145970   5.932   9.439   3.988
14732SOL    HW245971   5.968   9.523   4.109
14733SOL     OW45972  10.848  10.912   5.850
14733SOL    HW145973  10.884  10.947   5.769
14733SOL    HW245974  10.892  10.827   5.861
14734SOL     OW45975   0.239   1.238   8.971
14734SOL    HW145976   0.313   1.281   9.014
14734SOL    HW245977   0.206   1.176   9.036
14735SOL     OW45978  10.455   0.247  10.449
14735SOL    HW145979  10.376   0.298  10.468
14735SOL    HW245980  10.469   0.195  10.528
14736SOL     OW45981   3.716  14.136  13.011
14736SOL    HW145982   3.703  14.155  13.103
14736SOL    HW245983   3.709  14.041  13.004
14737SOL     OW45984  11.064   0.701   1.299
14737SOL    HW145985  11.120   0.764   1.254
14737SOL    HW245986  11.012   0.660   1.229
14738SOL     OW45987   1.578  13.952   0.693
14738SOL    HW145988   1.570  14.046   0.710
14738SOL    HW245989   1.672  13.937   0.681
14739SOL     OW45990  12.695   0.207  10.906
14739SOL    HW145991  12.644   0.187  10.984
14739SOL    HW245992  12.640   0.269  10.857
14740SOL     OW45993   1.724  11.341  10.406
14740SOL    HW145994   1.717  11.436  10.411
14740SOL    HW245995   1.765  11.323  10.322
14741SOL     OW45996   1.921  14.315  11.689
14741SOL    HW145997   1.940  14.293  11.780
14741SOL    HW245998   2.004  14.304  11.644
14742SOL     OW45999   8.281   7.502  12.573
14742SOL    HW146000   8.210   7.493  12.637
14742SOL    HW246001   8.361   7.495  12.625
14743SOL     OW46002  11.695   1.377   9.273
14743SOL    HW146003  11.769   1.328   9.310
14743SOL    HW246004  11.621   1.353   9.329
14744SOL     OW46005  14.560  10.316   5.686
14744SOL    HW146006  14.503  10.359   5.622
14744SOL    HW246007  14.527  10.346   5.771
14745SOL     OW46008  11.229   6.441   3.270
14745SOL    HW146009  11.184   6.410   3.192
14745SOL    HW246010  11.213   6.535   3.272
14746SOL     OW46011  13.882  11.241   6.896
14746SOL    HW146012  13.977  11.236   6.904
14746SOL    HW246013  13.857  11.317   6.948
14747SOL     OW46014   9.559  14.073  12.087
14747SOL    HW146015   9.474  14.058  12.046
14747SOL    HW246016   9.608  13.992  12.071
14748SOL     OW46017  12.200   6.571   9.974
14748SOL    HW146018  12.196   6.559   9.879
14748SOL    HW246019  12.294   6.568   9.994
14749SOL     OW46020   0.331   2.479  12.070
14749SOL    HW146021   0.334   2.384  12.079
14749SOL    HW246022   0.395   2.498  12.002
14750SOL     OW46023   0.044   1.669  13.554
14750SOL    HW146024   0.132   1.691  13.523
14750SOL    HW246025   0.054   1.662  13.649
14751SOL     OW46026   8.661   0.064  13.418
14751SOL    HW146027   8.666   0.135  13.354
14751SOL    HW246028   8.746   0.066  13.462
14752SOL     OW46029   7.927   2.631  10.552
14752SOL    HW146030   7.960   2.666  10.635
14752SOL    HW246031   7.999   2.643  10.490
14753SOL     OW46032   4.146   3.816   4.367
14753SOL    HW146033   4.211   3.857   4.310
14753SOL    HW246034   4.063   3.857   4.342
14754SOL     OW46035  12.928  11.209  11.503
14754SOL    HW146036  12.842  11.246  11.525
14754SOL    HW246037  12.980  11.219  11.582
14755SOL     OW46038   6.035   8.676   4.669
14755SOL    HW146039   6.007   8.763   4.696
14755SOL    HW246040   6.056   8.685   4.576
14756SOL     OW46041   7.357  14.106   1.045
14756SOL    HW146042   7.317  14.126   1.130
14756SOL    HW246043   7.361  14.010   1.044
14757SOL     OW46044   2.415   3.152  10.032
14757SOL    HW146045   2.332   3.110  10.054
14757SOL    HW246046   2.459   3.165  10.116
14758SOL     OW46047   4.950   1.779   0.138
14758SOL    HW146048   4.891   1.841   0.181
14758SOL    HW246049   5.038   1.816   0.152
14759SOL     OW46050   6.874   1.009   1.334
14759SOL    HW146051   6.932   0.934   1.318
14759SOL    HW246052   6.925   1.067   1.391
14760SOL     OW46053  12.456   2.410   2.420
14760SOL    HW146054  12.448   2.446   2.509
14760SOL    HW246055  12.431   2.482   2.363
14761SOL     OW46056  12.468   1.886   6.257
14761SOL    HW146057  12.449   1.797   6.228
14761SOL    HW246058  12.540   1.915   6.201
14762SOL     OW46059   1.212  13.320  12.047
14762SOL    HW146060   1.279  13.388  12.036
14762SOL    HW246061   1.234  13.279  12.131
14763SOL     OW46062  10.681   5.006  14.082
14763SOL    HW146063  10.627   5.082  14.100
14763SOL    HW246064  10.628   4.931  14.109
14764SOL     OW46065   2.010   4.906   9.420
14764SOL    HW146066   2.002   4.935   9.329
14764SOL    HW246067   2.071   4.832   9.416
14765SOL     OW46068   6.206  13.648   0.938
14765SOL    HW146069   6.137  13.665   0.874
14765SOL    HW246070   6.273  13.714   0.920
14766SOL     OW46071   9.536   1.031   3.234
14766SOL    HW146072   9.599   0.995   3.295
14766SOL    HW246073   9.483   1.092   3.286
14767SOL     OW46074   3.089   5.373   1.452
14767SOL    HW146075   3.179   5.404   1.444
14767SOL    HW246076   3.039   5.451   1.478
14768SOL     OW46077   9.908   1.634  11.384
14768SOL    HW146078   9.855   1.663  11.310
14768SOL    HW246079   9.851   1.645  11.460
14769SOL     OW46080   9.987  10.594  11.702
14769SOL    HW146081  10.047  10.666  11.721
14769SOL    HW246082  10.003  10.531  11.773
14770SOL     OW46083   6.081   5.924   0.110
14770SOL    HW146084   6.177   5.916   0.113
14770SOL    HW246085   6.065   6.008   0.069
14771SOL     OW46086  14.035   7.503  13.579
14771SOL    HW146087  14.107   7.565  13.594
14771SOL    HW246088  14.007   7.521  13.490
14772SOL     OW46089   4.550  13.701  10.274
14772SOL    HW146090   4.605  13.653  10.336
14772SOL    HW246091   4.539  13.640  10.200
14773SOL     OW46092   1.772  13.110   7.375
14773SOL    HW146093   1.791  13.093   7.283
14773SOL    HW246094   1.854  13.091   7.421
14774SOL     OW46095   1.347   6.425  11.720
14774SOL    HW146096   1.376   6.376  11.643
14774SOL    HW246097   1.306   6.359  11.776
14775SOL     OW46098   7.227   7.965   9.553
14775SOL    HW146099   7.198   7.997   9.638
14775SOL    HW246100   7.149   7.967   9.498
14776SOL     OW46101   4.664   4.594   1.183
14776SOL    HW146102   4.702   4.596   1.095
14776SOL    HW246103   4.727   4.546   1.236
14777SOL     OW46104   1.638   3.346   6.674
14777SOL    HW146105   1.567   3.325   6.614
14777SOL    HW246106   1.717   3.320   6.628
14778SOL     OW46107   4.978   6.935  12.858
14778SOL    HW146108   4.989   6.964  12.949
14778SOL    HW246109   4.958   6.842  12.864
14779SOL     OW46110   2.432   9.231   8.912
14779SOL    HW146111   2.488   9.209   8.986
14779SOL    HW246112   2.490   9.226   8.836
14780SOL     OW46113   1.378  11.786   0.056
14780SOL    HW146114   1.460  11.768   0.009
14780SOL    HW246115   1.363  11.879   0.042
14781SOL     OW46116   2.782   7.903   9.527
14781SOL    HW146117   2.751   7.960   9.597
14781SOL    HW246118   2.729   7.824   9.535
14782SOL     OW46119   9.806   6.788   9.756
14782SOL    HW146120   9.899   6.774   9.770
14782SOL    HW246121   9.773   6.817   9.841
14783SOL     OW46122   7.909  11.516  14.127
14783SOL    HW146123   7.886  11.453  14.196
14783SOL    HW246124   7.956  11.463  14.062
14784SOL     OW46125   9.203   8.858  11.171
14784SOL    HW146126   9.211   8.798  11.097
14784SOL    HW246127   9.260   8.820  11.238
14785SOL     OW46128   1.908  13.051  10.152
14785SOL    HW146129   1.978  13.116  10.145
14785SOL    HW246130   1.827  13.102  10.143
14786SOL     OW46131   0.063   7.622   1.833
14786SOL    HW146132  14.851   7.615   1.800
14786SOL    HW246133   0.116   7.634   1.754
14787SOL     OW46134   1.053   2.548   7.970
14787SOL    HW146135   1.017   2.544   8.059
14787SOL    HW246136   1.137   2.592   7.980
14788SOL     OW46137   3.978   4.968  12.114
14788SOL    HW146138   4.010   4.904  12.176
14788SOL    HW246139   3.913   5.019  12.162
14789SOL     OW46140  10.728  13.418  11.004
14789SOL    HW146141  10.818  13.387  11.012
14789SOL    HW246142  10.735  13.504  10.963
14790SOL     OW46143   6.625   0.194  13.273
14790SOL    HW146144   6.669   0.183  13.190
14790SOL    HW246145   6.560   0.124  13.276
14791SOL     OW46146   1.885   4.336  14.450
14791SOL    HW146147   1.889   4.246  14.417
14791SOL    HW246148   1.929   4.332  14.535
14792SOL     OW46149  12.695   0.849  11.406
14792SOL    HW146150  12.689   0.798  11.326
14792SOL    HW246151  12.700   0.940  11.376
14793SOL     OW46152   8.851   4.435   7.710
14793SOL    HW146153   8.806   4.516   7.690
14793SOL    HW246154   8.831   4.419   7.803
14794SOL     OW46155   9.805   2.943   4.960
14794SOL    HW146156   9.856   3.000   4.903
14794SOL    HW246157   9.718   2.982   4.962
14795SOL     OW46158   2.392  14.018   2.298
14795SOL    HW146159   2.361  13.994   2.210
14795SOL    HW246160   2.392  14.113   2.297
14796SOL     OW46161   1.641   3.941   0.391
14796SOL    HW146162   1.698   4.009   0.355
14796SOL    HW246163   1.696   3.863   0.396
14797SOL     OW46164  14.738   4.605   7.928
14797SOL    HW146165  14.708   4.664   7.997
14797SOL    HW246166  14.673   4.536   7.925
14798SOL     OW46167   8.200   8.420   2.192
14798SOL    HW146168   8.240   8.507   2.202
14798SOL    HW246169   8.173   8.396   2.280
14799SOL     OW46170  12.652   0.689  10.782
14799SOL    HW146171  12.680   0.605  10.745
14799SOL    HW246172  12.726   0.748  10.768
14800SOL     OW46173   2.592  11.200   3.373
14800SOL    HW146174   2.609  11.166   3.461
14800SOL    HW246175   2.502  11.233   3.377
14801SOL     OW46176   5.552   8.765   8.150
14801SOL    HW146177   5.513   8.686   8.186
14801SOL    HW246178   5.534   8.833   8.215
14802SOL     OW46179   6.349   7.570   2.083
14802SOL    HW146180   6.365   7.626   2.007
14802SOL    HW246181   6.266   7.602   2.120
14803SOL     OW46182  12.756  13.431  13.401
14803SOL    HW146183  12.764  13.367  13.329
14803SOL    HW246184  12.777  13.515  13.361
14804SOL     OW46185  13.887  10.062   0.372
14804SOL    HW146186  13.864  10.011   0.450
14804SOL    HW246187  13.861  10.006   0.298
14805SOL     OW46188   3.990   7.329   5.862
14805SOL    HW146189   3.996   7.345   5.768
14805SOL    HW246190   3.930   7.396   5.894
14806SOL     OW46191   0.729  11.241   2.165
14806SOL    HW146192   0.743  11.180   2.092
14806SOL    HW246193   0.801  11.303   2.160
14807SOL     OW46194   9.987   1.312   4.210
14807SOL    HW146195   9.958   1.258   4.283
14807SOL    HW246196  10.034   1.251   4.153
14808SOL     OW46197  14.049  13.215   3.291
14808SOL    HW146198  14.008  13.181   3.370
14808SOL    HW246199  14.002  13.296   3.272
14809SOL     OW46200   1.271   8.581   8.120
14809SOL    HW146201   1.349   8.573   8.064
14809SOL    HW246202   1.265   8.674   8.140
14810SOL     OW46203   2.054   6.236   3.691
14810SOL    HW146204   2.045   6.141   3.689
14810SOL    HW246205   2.090   6.259   3.605
14811SOL     OW46206   8.894  12.870  14.064
14811SOL    HW146207   8.815  12.893  14.113
14811SOL    HW246208   8.934  12.954  14.042
14812SOL     OW46209  13.062  13.928   3.523
14812SOL    HW146210  13.061  13.984   3.601
14812SOL    HW246211  13.000  13.969   3.463
14813SOL     OW46212   0.392  10.260  12.594
14813SOL    HW146213   0.419  10.321  12.662
14813SOL    HW246214   0.407  10.307  12.512
14814SOL     OW46215   4.323  11.329   6.128
14814SOL    HW146216   4.260  11.295   6.064
14814SOL    HW246217   4.361  11.250   6.167
14815SOL     OW46218  13.981   5.737   9.463
14815SOL    HW146219  13.898   5.691   9.469
14815SOL    HW246220  14.039   5.677   9.416
14816SOL     OW46221   0.076   4.070   8.209
14816SOL    HW146222   0.161   4.026   8.213
14816SOL    HW246223   0.095   4.153   8.164
14817SOL     OW46224   7.533   4.681  11.597
14817SOL    HW146225   7.548   4.727  11.515
14817SOL    HW246226   7.560   4.743  11.665
14818SOL     OW46227   8.145   5.674   8.533
14818SOL    HW146228   8.192   5.674   8.449
14818SOL    HW246229   8.118   5.765   8.544
14819SOL     OW46230  14.307  13.583   1.096
14819SOL    HW146231  14.394  13.567   1.060
14819SOL    HW246232  14.270  13.496   1.110
14820SOL     OW46233  11.459   5.971  11.765
14820SOL    HW146234  11.418   5.886  11.750
14820SOL    HW246235  11.462   5.981  11.860
14821SOL     OW46236  12.025   1.477   4.972
14821SOL    HW146237  12.069   1.539   5.030
14821SOL    HW246238  11.957   1.528   4.929
14822SOL     OW46239  11.264  14.267  11.512
14822SOL    HW146240  11.316  14.347  11.524
14822SOL    HW246241  11.214  14.282  11.432
14823SOL     OW46242   4.902  13.516   1.099
14823SOL    HW146243   4.979  13.514   1.043
14823SOL    HW246244   4.937  13.519   1.188
14824SOL     OW46245   7.837   8.698   3.738
14824SOL    HW146246   7.877   8.744   3.812
14824SOL    HW246247   7.744   8.695   3.760
14825SOL     OW46248  10.827   5.001   2.529
14825SOL    HW146249  10.758   4.984   2.593
14825SOL    HW246250  10.781   5.013   2.446
14826SOL     OW46251  13.012   7.256  13.612
14826SOL    HW146252  13.040   7.170  13.581
14826SOL    HW246253  13.031   7.255  13.706
14827SOL     OW46254   3.322   1.175  12.403
14827SOL    HW146255   3.382   1.244  12.430
14827SOL    HW246256   3.376   1.095  12.402
14828SOL     OW46257   2.958   7.613   0.074
14828SOL    HW146258   3.049   7.632   0.052
14828SOL    HW246259   2.934   7.682   0.136
14829SOL     OW46260   9.664  12.667   1.837
14829SOL    HW146261   9.591  12.672   1.900
14829SOL    HW246262   9.625  12.694   1.754
14830SOL     OW46263   2.888   2.322   1.811
14830SOL    HW146264   2.868   2.299   1.901
14830SOL    HW246265   2.898   2.238   1.766
14831SOL     OW46266  10.723  12.744   5.207
14831SOL    HW146267  10.799  12.695   5.235
14831SOL    HW246268  10.680  12.688   5.142
14832SOL     OW46269   2.718   9.633   9.642
14832SOL    HW146270   2.691   9.545   9.667
14832SOL    HW246271   2.648   9.664   9.584
14833SOL     OW46272   5.372  13.103  12.095
14833SOL    HW146273   5.318  13.163  12.044
14833SOL    HW246274   5.390  13.031  12.036
14834SOL     OW46275   8.793   4.630  14.176
14834SOL    HW146276   8.722   4.575  14.209
14834SOL    HW246277   8.814   4.593  14.090
14835SOL     OW46278   6.561   3.058  13.842
14835SOL    HW146279   6.630   3.045  13.907
14835SOL    HW246280   6.566   2.981  13.786
14836SOL     OW46281   9.847   3.583  10.619
14836SOL    HW146282   9.806   3.531  10.688
14836SOL    HW246283   9.812   3.671  10.631
14837SOL     OW46284   3.288   3.097   5.846
14837SOL    HW146285   3.344   3.162   5.888
14837SOL    HW246286   3.215   3.085   5.907
14838SOL     OW46287  13.137   1.079   1.009
14838SOL    HW146288  13.079   1.155   1.006
14838SOL    HW246289  13.192   1.087   0.931
14839SOL     OW46290  13.900   1.111  11.495
14839SOL    HW146291  13.879   1.202  11.516
14839SOL    HW246292  13.974   1.117  11.434
14840SOL     OW46293  12.047   3.829   1.290
14840SOL    HW146294  12.063   3.908   1.238
14840SOL    HW246295  12.024   3.762   1.225
14841SOL     OW46296  11.894  13.534  11.414
14841SOL    HW146297  11.894  13.520  11.508
14841SOL    HW246298  11.983  13.562  11.393
14842SOL     OW46299  13.231   7.919  11.851
14842SOL    HW146300  13.249   7.854  11.784
14842SOL    HW246301  13.136   7.935  11.844
14843SOL     OW46302   5.456   7.183   1.992
14843SOL    HW146303   5.396   7.199   1.919
14843SOL    HW246304   5.423   7.104   2.034
14844SOL     OW46305  13.566  10.994   9.693
14844SOL    HW146306  13.516  11.072   9.668
14844SOL    HW246307  13.619  10.974   9.616
14845SOL     OW46308   9.077   7.745   9.327
14845SOL    HW146309   8.987   7.778   9.323
14845SOL    HW246310   9.122   7.788   9.255
14846SOL     OW46311   9.475  12.282   7.903
14846SOL    HW146312   9.562  12.309   7.873
14846SOL    HW246313   9.480  12.187   7.909
14847SOL     OW46314   9.425   5.173   3.684
14847SOL    HW146315   9.518   5.185   3.703
14847SOL    HW246316   9.404   5.087   3.720
14848SOL     OW46317  11.051  10.836  13.457
14848SOL    HW146318  11.142  10.836  13.429
14848SOL    HW246319  11.002  10.803  13.382
14849SOL     OW46320  14.145  11.770   8.705
14849SOL    HW146321  14.063  11.783   8.752
14849SOL    HW246322  14.211  11.757   8.773
14850SOL     OW46323  10.810   0.594  12.222
14850SOL    HW146324  10.740   0.604  12.287
14850SOL    HW246325  10.842   0.684  12.208
14851SOL     OW46326   0.492   4.946   1.926
14851SOL    HW146327   0.560   4.998   1.882
14851SOL    HW246328   0.459   4.888   1.858
14852SOL     OW46329   1.210   6.992   3.263
14852SOL    HW146330   1.298   6.962   3.287
14852SOL    HW246331   1.187   7.055   3.332
14853SOL     OW46332  10.496   5.522   2.369
14853SOL    HW146333  10.408   5.541   2.403
14853SOL    HW246334  10.500   5.570   2.287
14854SOL     OW46335  12.216   9.799  12.827
14854SOL    HW146336  12.252   9.710  12.832
14854SOL    HW246337  12.290   9.856  12.845
14855SOL     OW46338  13.855  11.921  12.146
14855SOL    HW146339  13.926  11.905  12.208
14855SOL    HW246340  13.812  12.000  12.178
14856SOL     OW46341   5.388   5.934  10.813
14856SOL    HW146342   5.428   5.891  10.888
14856SOL    HW246343   5.461   5.979  10.770
14857SOL     OW46344   9.765   5.035   0.834
14857SOL    HW146345   9.721   4.952   0.852
14857SOL    HW246346   9.825   5.048   0.907
14858SOL     OW46347   1.560   4.584  13.468
14858SOL    HW146348   1.613   4.663  13.483
14858SOL    HW246349   1.519   4.599  13.383
14859SOL     OW46350   4.314  14.377  14.136
14859SOL    HW146351   4.344  14.395  14.225
14859SOL    HW246352   4.384  14.325  14.097
14860SOL     OW46353   2.715   1.563  11.680
14860SOL    HW146354   2.746   1.542  11.591
14860SOL    HW246355   2.722   1.658  11.686
14861SOL     OW46356   4.970   4.737   7.616
14861SOL    HW146357   5.008   4.665   7.666
14861SOL    HW246358   4.940   4.799   7.682
14862SOL     OW46359   3.169   6.806  10.708
14862SOL    HW146360   3.113   6.769  10.776
14862SOL    HW246361   3.119   6.878  10.671
14863SOL     OW46362   7.978  10.112   0.097
14863SOL    HW146363   7.927  10.155   0.029
14863SOL    HW246364   8.067  10.109   0.063
14864SOL     OW46365   3.613  13.241  11.939
14864SOL    HW146366   3.659  13.157  11.938
14864SOL    HW246367   3.683  13.306  11.942
14865SOL     OW46368   7.075   2.976   6.501
14865SOL    HW146369   7.062   2.946   6.591
14865SOL    HW246370   7.036   3.063   6.498
14866SOL     OW46371   1.340   4.761  10.277
14866SOL    HW146372   1.291   4.780  10.357
14866SOL    HW246373   1.347   4.846  10.232
14867SOL     OW46374  12.352   8.850  12.510
14867SOL    HW146375  12.441   8.843  12.544
14867SOL    HW246376  12.315   8.925  12.556
14868SOL     OW46377   1.827   0.596  10.943
14868SOL    HW146378   1.883   0.639  11.008
14868SOL    HW246379   1.815   0.661  10.874
14869SOL     OW46380   8.166   6.534  11.995
14869SOL    HW146381   8.237   6.534  12.060
14869SOL    HW246382   8.172   6.619  11.953
14870SOL     OW46383   9.949   3.578   3.913
14870SOL    HW146384   9.912   3.540   3.833
14870SOL    HW246385   9.885   3.556   3.982
14871SOL     OW46386   7.389   8.093   6.134
14871SOL    HW146387   7.476   8.085   6.172
14871SOL    HW246388   7.401   8.151   6.058
14872SOL     OW46389  13.813   2.593   9.469
14872SOL    HW146390  13.755   2.533   9.515
14872SOL    HW246391  13.781   2.592   9.378
14873SOL     OW46392   1.372  11.655   8.769
14873SOL    HW146393   1.468  11.659   8.763
14873SOL    HW246394   1.344  11.747   8.764
14874SOL     OW46395   9.104  14.230   9.539
14874SOL    HW146396   9.125  14.197   9.452
14874SOL    HW246397   9.185  14.222   9.589
14875SOL     OW46398   2.760  12.483   3.092
14875SOL    HW146399   2.845  12.450   3.061
14875SOL    HW246400   2.783  12.550   3.156
14876SOL     OW46401   1.183   4.611  11.000
14876SOL    HW146402   1.119   4.660  10.948
14876SOL    HW246403   1.163   4.519  10.980
14877SOL     OW46404  14.828   5.281   2.754
14877SOL    HW146405  14.803   5.358   2.703
14877SOL    HW246406  14.816   5.307   2.845
14878SOL     OW46407   2.865  12.346   4.767
14878SOL    HW146408   2.929  12.392   4.821
14878SOL    HW246409   2.798  12.411   4.749
14879SOL     OW46410   5.162  14.847   9.021
14879SOL    HW146411   5.120  14.791   8.955
14879SOL    HW246412   5.244  14.874   8.981
14880SOL     OW46413  12.788   6.280  13.023
14880SOL    HW146414  12.715   6.324  12.980
14880SOL    HW246415  12.862   6.293  12.965
14881SOL     OW46416   0.580  14.093   9.435
14881SOL    HW146417   0.667  14.075   9.470
14881SOL    HW246418   0.537  14.008   9.432
14882SOL     OW46419   4.808   5.050   9.729
14882SOL    HW146420   4.789   5.137   9.765
14882SOL    HW246421   4.788   5.058   9.636
14883SOL     OW46422   8.249  10.326  12.342
14883SOL    HW146423   8.188  10.334  12.268
14883SOL    HW246424   8.252  10.413  12.380
14884SOL     OW46425   1.789   8.493   3.500
14884SOL    HW146426   1.864   8.505   3.558
14884SOL    HW246427   1.781   8.398   3.492
14885SOL     OW46428   5.956  10.590  11.061
14885SOL    HW146429   5.982  10.672  11.102
14885SOL    HW246430   5.917  10.615  10.977
14886SOL     OW46431   5.104   4.423   1.177
14886SOL    HW146432   5.187   4.378   1.191
14886SOL    HW246433   5.078   4.398   1.088
14887SOL     OW46434  10.235  14.762  10.362
14887SOL    HW146435  10.210  14.829  10.298
14887SOL    HW246436  10.158  14.754  10.419
14888SOL     OW46437  14.186  11.530   9.059
14888SOL    HW146438  14.218  11.467   8.995
14888SOL    HW246439  14.221  11.614   9.029
14889SOL     OW46440   9.769   7.464   3.022
14889SOL    HW146441   9.855   7.433   3.051
14889SOL    HW246442   9.727   7.387   2.984
14890SOL     OW46443   2.021  14.577  14.425
14890SOL    HW146444   2.047  14.493  14.387
14890SOL    HW246445   2.037  14.567  14.519
14891SOL     OW46446   8.047   2.137   3.428
14891SOL    HW146447   7.986   2.177   3.366
14891SOL    HW246448   7.998   2.064   3.466
14892SOL     OW46449  13.049   0.417   0.699
14892SOL    HW146450  12.966   0.387   0.735
14892SOL    HW246451  13.100   0.337   0.685
14893SOL     OW46452  12.644  14.145   4.890
14893SOL    HW146453  12.577  14.126   4.824
14893SOL    HW246454  12.598  14.196   4.957
14894SOL     OW46455   1.258   4.793   2.123
14894SOL    HW146456   1.269   4.786   2.029
14894SOL    HW246457   1.234   4.885   2.138
14895SOL     OW46458   7.037  14.574   4.863
14895SOL    HW146459   7.111  14.630   4.886
14895SOL    HW246460   6.969  14.635   4.834
14896SOL     OW46461   0.973  12.719   1.333
14896SOL    HW146462   1.068  12.730   1.330
14896SOL    HW246463   0.952  12.674   1.251
14897SOL     OW46464  13.095  10.401   2.584
14897SOL    HW146465  13.092  10.314   2.624
14897SOL    HW246466  13.147  10.389   2.505
14898SOL     OW46467   4.651   4.031   6.051
14898SOL    HW146468   4.664   3.940   6.075
14898SOL    HW246469   4.670   4.081   6.130
14899SOL     OW46470   9.429   2.894   4.265
14899SOL    HW146471   9.521   2.873   4.247
14899SOL    HW246472   9.380   2.849   4.196
14900SOL     OW46473   8.092   4.083  10.239
14900SOL    HW146474   8.004   4.106  10.268
14900SOL    HW246475   8.080   4.014  10.174
14901SOL     OW46476  10.230   6.071   8.926
14901SOL    HW146477  10.304   6.015   8.947
14901SOL    HW246478  10.264   6.160   8.938
14902SOL     OW46479   9.508  11.934  10.653
14902SOL    HW146480   9.510  11.964  10.563
14902SOL    HW246481   9.489  11.840  10.646
14903SOL     OW46482  12.473   3.420   2.607
14903SOL    HW146483  12.559   3.406   2.647
14903SOL    HW246484  12.453   3.336   2.566
14904SOL     OW46485   7.887   5.742   2.123
14904SOL    HW146486   7.920   5.652   2.125
14904SOL    HW246487   7.834   5.751   2.202
14905SOL     OW46488  12.301   6.637   6.111
14905SOL    HW146489  12.209   6.611   6.118
14905SOL    HW246490  12.307   6.719   6.161
14906SOL     OW46491   7.790  13.789   3.285
14906SOL    HW146492   7.727  13.786   3.213
14906SOL    HW246493   7.746  13.744   3.357
14907SOL     OW46494  13.623  11.183   6.348
14907SOL    HW146495  13.639  11.198   6.441
14907SOL    HW246496  13.537  11.221   6.332
14908SOL     OW46497  10.497  14.842   4.144
14908SOL    HW146498  10.518  14.773   4.081
14908SOL    HW246499  10.557   0.036   4.122
14909SOL     OW46500  12.183   1.133   4.508
14909SOL    HW146501  12.246   1.090   4.566
14909SOL    HW246502  12.198   1.227   4.523
14910SOL     OW46503   7.520  10.962  13.119
14910SOL    HW146504   7.574  10.981  13.042
14910SOL    HW246505   7.537  10.870  13.139
14911SOL     OW46506   0.198  11.692   2.119
14911SOL    HW146507   0.276  11.727   2.161
14911SOL    HW246508   0.216  11.599   2.108
14912SOL     OW46509   5.043   3.808   1.455
14912SOL    HW146510   5.045   3.717   1.424
14912SOL    HW246511   5.074   3.803   1.546
14913SOL     OW46512   6.357  11.618   6.224
14913SOL    HW146513   6.388  11.534   6.190
14913SOL    HW246514   6.433  11.675   6.218
14914SOL     OW46515  13.979   7.369   0.294
14914SOL    HW146516  13.962   7.293   0.350
14914SOL    HW246517  13.892   7.402   0.271
14915SOL     OW46518   2.535   1.189   1.445
14915SOL    HW146519   2.476   1.259   1.416
14915SOL    HW246520   2.623   1.225   1.431
14916SOL     OW46521  14.620   7.910   8.699
14916SOL    HW146522  14.552   7.964   8.740
14916SOL    HW246523  14.575   7.829   8.676
14917SOL     OW46524  12.549   5.971   2.313
14917SOL    HW146525  12.589   5.943   2.395
14917SOL    HW246526  12.493   5.898   2.287
14918SOL     OW46527  11.616   7.639   8.936
14918SOL    HW146528  11.561   7.592   8.998
14918SOL    HW246529  11.564   7.716   8.911
14919SOL     OW46530   0.010   0.431   0.960
14919SOL    HW146531  14.840   0.411   1.040
14919SOL    HW246532  14.827   0.408   0.889
14920SOL     OW46533   2.949   0.832   3.966
14920SOL    HW146534   2.991   0.792   3.890
14920SOL    HW246535   2.882   0.890   3.929
14921SOL     OW46536   4.827   0.006  14.632
14921SOL    HW146537   4.908  14.851  14.671
14921SOL    HW246538   4.843   0.099  14.617
14922SOL     OW46539   9.071   0.047   1.829
14922SOL    HW146540   9.157   0.086   1.847
14922SOL    HW246541   9.083  14.831   1.848
14923SOL     OW46542  10.617   9.289   4.795
14923SOL    HW146543  10.573   9.207   4.818
14923SOL    HW246544  10.591   9.306   4.704
14924SOL     OW46545   7.342  13.562  12.880
14924SOL    HW146546   7.248  13.550  12.862
14924SOL    HW246547   7.345  13.599  12.968
14925SOL     OW46548  13.944   6.166   4.915
14925SOL    HW146549  14.013   6.103   4.898
14925SOL    HW246550  13.915   6.147   5.004
14926SOL     OW46551   3.153   0.704   7.437
14926SOL    HW146552   3.223   0.657   7.483
14926SOL    HW246553   3.109   0.637   7.384
14927SOL     OW46554  12.005   6.364   5.955
14927SOL    HW146555  11.976   6.290   5.901
14927SOL    HW246556  12.068   6.410   5.900
14928SOL     OW46557  13.259  12.282   8.653
14928SOL    HW146558  13.259  12.369   8.693
14928SOL    HW246559  13.335  12.238   8.691
14929SOL     OW46560   2.450   3.275   5.950
14929SOL    HW146561   2.501   3.238   6.022
14929SOL    HW246562   2.457   3.211   5.879
14930SOL     OW46563   6.296  14.534   0.849
14930SOL    HW146564   6.267  14.615   0.808
14930SOL    HW246565   6.359  14.497   0.787
14931SOL     OW46566   5.123  14.603   0.078
14931SOL    HW146567   5.087  14.652   0.152
14931SOL    HW246568   5.122  14.512   0.107
14932SOL     OW46569  12.318  11.383   4.675
14932SOL    HW146570  12.408  11.394   4.702
14932SOL    HW246571  12.294  11.295   4.704
14933SOL     OW46572  12.488  11.659   1.765
14933SOL    HW146573  12.494  11.584   1.706
14933SOL    HW246574  12.549  11.638   1.836
14934SOL     OW46575   1.648  11.462  13.987
14934SOL    HW146576   1.727  11.504  13.955
14934SOL    HW246577   1.647  11.376  13.943
14935SOL     OW46578  12.339  12.591   4.714
14935SOL    HW146579  12.246  12.616   4.714
14935SOL    HW246580  12.338  12.499   4.688
14936SOL     OW46581   9.646   3.825   4.713
14936SOL    HW146582   9.701   3.784   4.779
14936SOL    HW246583   9.678   3.915   4.707
14937SOL     OW46584   3.574  13.644   2.911
14937SOL    HW146585   3.541  13.733   2.901
14937SOL    HW246586   3.665  13.655   2.941
14938SOL     OW46587  10.268  10.654   7.699
14938SOL    HW146588  10.252  10.573   7.748
14938SOL    HW246589  10.208  10.718   7.738
14939SOL     OW46590  14.415  10.179   3.913
14939SOL    HW146591  14.483  10.245   3.898
14939SOL    HW246592  14.449  10.125   3.984
14940SOL     OW46593  14.094   2.031   2.759
14940SOL    HW146594  14.154   1.957   2.768
14940SOL    HW246595  14.016   1.994   2.717
14941SOL     OW46596   4.087   8.066  11.096
14941SOL    HW146597   4.106   8.157  11.073
14941SOL    HW246598   3.994   8.067  11.119
14942SOL     OW46599  13.873   5.056  13.248
14942SOL    HW146600  13.854   5.099  13.164
14942SOL    HW246601  13.797   5.000  13.264
14943SOL     OW46602  12.524  14.339   2.501
14943SOL    HW146603  12.597  14.277   2.499
14943SOL    HW246604  12.545  14.398   2.573
14944SOL     OW46605  13.014   4.593   3.329
14944SOL    HW146606  13.031   4.650   3.255
14944SOL    HW246607  13.097   4.590   3.377
14945SOL     OW46608   9.167  12.560   0.058
14945SOL    HW146609   9.244  12.546   0.114
14945SOL    HW246610   9.095  12.576   0.119
14946SOL     OW46611   4.238  12.584   2.816
14946SOL    HW146612   4.306  12.628   2.867
14946SOL    HW246613   4.168  12.567   2.880
14947SOL     OW46614   6.691  14.308  10.707
14947SOL    HW146615   6.682  14.214  10.688
14947SOL    HW246616   6.649  14.351  10.632
14948SOL     OW46617  10.646  12.727  12.216
14948SOL    HW146618  10.572  12.781  12.242
14948SOL    HW246619  10.608  12.641  12.200
14949SOL     OW46620   0.057  14.096  13.499
14949SOL    HW146621   0.112  14.166  13.535
14949SOL    HW246622   0.082  14.091  13.407
14950SOL     OW46623   1.894  14.550  13.342
14950SOL    HW146624   1.908  14.641  13.317
14950SOL    HW246625   1.982  14.514  13.352
14951SOL     OW46626  11.795  13.224   9.738
14951SOL    HW146627  11.743  13.252   9.663
14951SOL    HW246628  11.790  13.297   9.799
14952SOL     OW46629  13.592   7.216   9.089
14952SOL    HW146630  13.546   7.273   9.151
14952SOL    HW246631  13.679   7.255   9.081
14953SOL     OW46632   3.039   9.285   5.443
14953SOL    HW146633   3.094   9.348   5.490
14953SOL    HW246634   3.088   9.263   5.364
14954SOL     OW46635  10.099   6.879   7.203
14954SOL    HW146636  10.006   6.860   7.190
14954SOL    HW246637  10.133   6.890   7.115
14955SOL     OW46638  14.153   4.697  13.359
14955SOL    HW146639  14.130   4.764  13.295
14955SOL    HW246640  14.244   4.675  13.341
14956SOL     OW46641  10.362   1.725   8.842
14956SOL    HW146642  10.379   1.684   8.927
14956SOL    HW246643  10.439   1.778   8.824
14957SOL     OW46644  14.380   8.250  13.905
14957SOL    HW146645  14.467   8.223  13.874
14957SOL    HW246646  14.352   8.318  13.844
14958SOL     OW46647   8.343   1.910   3.782
14958SOL    HW146648   8.300   1.898   3.697
14958SOL    HW246649   8.375   2.001   3.780
14959SOL     OW46650   9.287   3.094   0.556
14959SOL    HW146651   9.233   3.173   0.552
14959SOL    HW246652   9.344   3.108   0.631
14960SOL     OW46653   2.317   3.930  14.675
14960SOL    HW146654   2.269   4.012  14.664
14960SOL    HW246655   2.328   3.922  14.769
14961SOL     OW46656   6.987   0.767   8.403
14961SOL    HW146657   7.067   0.719   8.422
14961SOL    HW246658   6.956   0.730   8.320
14962SOL     OW46659   0.064  12.469  14.875
14962SOL    HW146660   0.023  12.386  14.852
14962SOL    HW246661   0.146  12.444   0.041
14963SOL     OW46662  12.603   6.400   4.818
14963SOL    HW146663  12.527   6.447   4.783
14963SOL    HW246664  12.566   6.339   4.882
14964SOL     OW46665   9.435   8.758   7.407
14964SOL    HW146666   9.487   8.838   7.415
14964SOL    HW246667   9.500   8.687   7.411
14965SOL     OW46668   7.483   5.101   5.917
14965SOL    HW146669   7.479   5.152   5.836
14965SOL    HW246670   7.428   5.150   5.978
14966SOL     OW46671  11.194  10.543   9.553
14966SOL    HW146672  11.260  10.476   9.568
14966SOL    HW246673  11.206  10.568   9.461
14967SOL     OW46674  11.368   6.933   0.016
14967SOL    HW146675  11.368   6.844  14.860
14967SOL    HW246676  11.320   6.927   0.099
14968SOL     OW46677   6.573   7.822   4.124
14968SOL    HW146678   6.629   7.759   4.168
14968SOL    HW246679   6.619   7.843   4.043
14969SOL     OW46680   5.213  10.227   2.326
14969SOL    HW146681   5.189  10.228   2.419
14969SOL    HW246682   5.160  10.296   2.286
14970SOL     OW46683   1.580   1.857   0.151
14970SOL    HW146684   1.612   1.946   0.169
14970SOL    HW246685   1.659   1.807   0.129
14971SOL     OW46686   6.577   6.357   7.180
14971SOL    HW146687   6.640   6.286   7.170
14971SOL    HW246688   6.603   6.401   7.261
14972SOL     OW46689  13.836  13.542  11.231
14972SOL    HW146690  13.803  13.514  11.316
14972SOL    HW246691  13.809  13.634  11.224
14973SOL     OW46692   2.042  12.256   3.155
14973SOL    HW146693   2.057  12.220   3.068
14973SOL    HW246694   1.963  12.212   3.187
14974SOL     OW46695   7.962  11.116  13.675
14974SOL    HW146696   8.018  11.040  13.659
14974SOL    HW246697   7.899  11.115  13.603
14975SOL     OW46698   2.888   0.446  10.322
14975SOL    HW146699   2.933   0.434  10.405
14975SOL    HW246700   2.922   0.528  10.287
14976SOL     OW46701  12.104   0.988   0.007
14976SOL    HW146702  12.164   0.942  14.826
14976SOL    HW246703  12.103   0.935   0.087
14977SOL     OW46704   6.136  12.906   4.097
14977SOL    HW146705   6.116  12.956   4.176
14977SOL    HW246706   6.055  12.910   4.045
14978SOL     OW46707  10.963  12.304   2.663
14978SOL    HW146708  10.984  12.239   2.730
14978SOL    HW246709  10.878  12.339   2.691
14979SOL     OW46710   9.414  13.758   2.000
14979SOL    HW146711   9.448  13.669   1.993
14979SOL    HW246712   9.491  13.814   1.991
14980SOL     OW46713   8.577   9.870   7.548
14980SOL    HW146714   8.646   9.922   7.507
14980SOL    HW246715   8.619   9.786   7.567
14981SOL     OW46716   1.745  14.529   3.847
14981SOL    HW146717   1.784  14.518   3.761
14981SOL    HW246718   1.761  14.621   3.869
14982SOL     OW46719   9.933   9.703   0.234
14982SOL    HW146720   9.952   9.793   0.258
14982SOL    HW246721   9.909   9.660   0.316
14983SOL     OW46722   2.736   2.475  13.038
14983SOL    HW146723   2.822   2.435  13.054
14983SOL    HW246724   2.731   2.547  13.100
14984SOL     OW46725  12.651   8.406   1.319
14984SOL    HW146726  12.668   8.500   1.328
14984SOL    HW246727  12.654   8.390   1.225
14985SOL     OW46728  14.341   9.603  12.930
14985SOL    HW146729  14.249   9.605  12.901
14985SOL    HW246730  14.348   9.523  12.982
14986SOL     OW46731   1.433   4.617  12.553
14986SOL    HW146732   1.384   4.660  12.483
14986SOL    HW246733   1.389   4.645  12.634
14987SOL     OW46734  10.266   0.605  13.486
14987SOL    HW146735  10.297   0.556  13.563
14987SOL    HW246736  10.312   0.689  13.492
14988SOL     OW46737   1.541   5.292  14.725
14988SOL    HW146738   1.598   5.302  14.802
14988SOL    HW246739   1.600   5.263  14.656
14989SOL     OW46740   2.864   7.436  14.240
14989SOL    HW146741   2.855   7.432  14.144
14989SOL    HW246742   2.795   7.496  14.268
14990SOL     OW46743   9.423  14.058   5.943
14990SOL    HW146744   9.433  14.044   6.037
14990SOL    HW246745   9.475  14.137   5.925
14991SOL     OW46746  13.196  11.964   7.568
14991SOL    HW146747  13.253  11.980   7.494
14991SOL    HW246748  13.160  12.049   7.591
14992SOL     OW46749  14.100   3.893   1.490
14992SOL    HW146750  14.097   3.974   1.542
14992SOL    HW246751  14.191   3.864   1.498
14993SOL     OW46752   0.378   8.657   3.773
14993SOL    HW146753   0.339   8.588   3.719
14993SOL    HW246754   0.473   8.648   3.758
14994SOL     OW46755   5.244   7.327   0.710
14994SOL    HW146756   5.241   7.407   0.659
14994SOL    HW246757   5.317   7.278   0.673
14995SOL     OW46758   4.935   8.419   7.121
14995SOL    HW146759   4.966   8.433   7.031
14995SOL    HW246760   4.939   8.324   7.132
14996SOL     OW46761   4.553   7.063  11.686
14996SOL    HW146762   4.514   7.052  11.599
14996SOL    HW246763   4.521   7.148  11.716
14997SOL     OW46764   5.871   2.181  12.310
14997SOL    HW146765   5.777   2.198  12.299
14997SOL    HW246766   5.895   2.131  12.232
14998SOL     OW46767   4.637   4.069   7.927
14998SOL    HW146768   4.724   4.039   7.952
14998SOL    HW246769   4.598   3.995   7.880
14999SOL     OW46770   4.032   2.456   8.197
14999SOL    HW146771   4.046   2.397   8.272
14999SOL    HW246772   4.039   2.543   8.235
15000SOL     OW46773   0.719   9.822   8.751
15000SOL    HW146774   0.768   9.883   8.806
15000SOL    HW246775   0.784   9.756   8.726
15001SOL     OW46776  11.010  11.953   9.398
15001SOL    HW146777  11.070  11.933   9.470
15001SOL    HW246778  11.000  11.870   9.351
15002SOL     OW46779  10.662   0.364   8.618
15002SOL    HW146780  10.568   0.348   8.603
15002SOL    HW246781  10.705   0.290   8.575
15003SOL     OW46782   0.389   5.842   0.662
15003SOL    HW146783   0.400   5.763   0.609
15003SOL    HW246784   0.446   5.829   0.737
15004SOL     OW46785  11.466  13.964   4.125
15004SOL    HW146786  11.470  14.011   4.041
15004SOL    HW246787  11.409  13.890   4.107
15005SOL     OW46788   3.520  14.016   0.153
15005SOL    HW146789   3.466  14.057   0.221
15005SOL    HW246790   3.518  13.922   0.174
15006SOL     OW46791   7.189   6.573   3.607
15006SOL    HW146792   7.128   6.569   3.533
15006SOL    HW246793   7.133   6.562   3.684
15007SOL     OW46794   9.819   3.736   2.959
15007SOL    HW146795   9.801   3.657   2.909
15007SOL    HW246796   9.736   3.785   2.957
15008SOL     OW46797  10.068   6.291   0.668
15008SOL    HW146798  10.140   6.231   0.688
15008SOL    HW246799  10.110   6.367   0.629
15009SOL     OW46800   8.816   0.987   2.245
15009SOL    HW146801   8.836   0.906   2.197
15009SOL    HW246802   8.897   1.008   2.290
15010SOL     OW46803  11.013   1.949  12.822
15010SOL    HW146804  11.099   1.907  12.827
15010SOL    HW246805  10.951   1.876  12.828
15011SOL     OW46806   0.333   4.631   5.072
15011SOL    HW146807   0.242   4.651   5.093
15011SOL    HW246808   0.359   4.698   5.009
15012SOL     OW46809   9.216   2.488   8.313
15012SOL    HW146810   9.185   2.491   8.404
15012SOL    HW246811   9.296   2.540   8.314
15013SOL     OW46812   9.547  12.694  10.050
15013SOL    HW146813   9.459  12.662  10.031
15013SOL    HW246814   9.563  12.669  10.141
15014SOL     OW46815   6.148  13.667   8.796
15014SOL    HW146816   6.160  13.589   8.741
15014SOL    HW246817   6.199  13.647   8.875
15015SOL     OW46818   2.825   9.659   5.188
15015SOL    HW146819   2.773   9.614   5.255
15015SOL    HW246820   2.770   9.732   5.160
15016SOL     OW46821   6.264   8.977   0.722
15016SOL    HW146822   6.276   8.892   0.679
15016SOL    HW246823   6.228   9.033   0.653
15017SOL     OW46824   9.223   2.245   4.639
15017SOL    HW146825   9.261   2.327   4.608
15017SOL    HW246826   9.140   2.270   4.679
15018SOL     OW46827   3.551   7.797   1.744
15018SOL    HW146828   3.540   7.725   1.683
15018SOL    HW246829   3.598   7.864   1.695
15019SOL     OW46830  11.587   2.729   0.752
15019SOL    HW146831  11.517   2.670   0.725
15019SOL    HW246832  11.668   2.687   0.721
15020SOL     OW46833  13.511   4.635  12.985
15020SOL    HW146834  13.460   4.714  12.973
15020SOL    HW246835  13.601   4.661  12.964
15021SOL     OW46836   5.407  14.613   3.601
15021SOL    HW146837   5.471  14.552   3.564
15021SOL    HW246838   5.459  14.670   3.658
15022SOL     OW46839   0.050   1.616  14.528
15022SOL    HW146840   0.042   1.534  14.480
15022SOL    HW246841  14.844   1.660  14.513
15023SOL     OW46842  13.669   2.316  12.278
15023SOL    HW146843  13.678   2.336  12.371
15023SOL    HW246844  13.597   2.253  12.274
15024SOL     OW46845  12.275   8.234   2.716
15024SOL    HW146846  12.291   8.151   2.762
15024SOL    HW246847  12.280   8.211   2.623
15025SOL     OW46848   7.056   1.970   2.981
15025SOL    HW146849   7.040   1.974   3.075
15025SOL    HW246850   7.151   1.956   2.974
15026SOL     OW46851  11.179  13.673  14.189
15026SOL    HW146852  11.171  13.730  14.112
15026SOL    HW246853  11.209  13.731  14.259
15027SOL     OW46854  14.770   7.605   4.237
15027SOL    HW146855  14.817   7.631   4.158
15027SOL    HW246856  14.838   7.575   4.298
15028SOL     OW46857   4.511  12.191  13.443
15028SOL    HW146858   4.576  12.222  13.380
15028SOL    HW246859   4.449  12.140  13.391
15029SOL     OW46860  12.201  11.951   0.233
15029SOL    HW146861  12.181  12.032   0.187
15029SOL    HW246862  12.226  11.889   0.164
15030SOL     OW46863   3.581   4.270   0.618
15030SOL    HW146864   3.638   4.223   0.679
15030SOL    HW246865   3.499   4.281   0.665
15031SOL     OW46866   7.206   4.184   0.364
15031SOL    HW146867   7.227   4.106   0.414
15031SOL    HW246868   7.136   4.156   0.305
15032SOL     OW46869   6.118  12.208   3.953
15032SOL    HW146870   6.098  12.173   4.039
15032SOL    HW246871   6.035  12.245   3.922
15033SOL     OW46872   0.450   4.728  12.378
15033SOL    HW146873   0.479   4.670  12.449
15033SOL    HW246874   0.465   4.678  12.298
15034SOL     OW46875  14.274   0.084   0.712
15034SOL    HW146876  14.317   0.084   0.627
15034SOL    HW246877  14.264   0.177   0.734
15035SOL     OW46878   9.960  10.143  12.480
15035SOL    HW146879   9.991  10.114  12.566
15035SOL    HW246880   9.867  10.159  12.492
15036SOL     OW46881   3.542  13.589   4.634
15036SOL    HW146882   3.556  13.550   4.548
15036SOL    HW246883   3.464  13.642   4.624
15037SOL     OW46884  13.588   2.849   4.845
15037SOL    HW146885  13.563   2.763   4.879
15037SOL    HW246886  13.642   2.829   4.768
15038SOL     OW46887   2.669  14.871   1.866
15038SOL    HW146888   2.661   0.030   1.954
15038SOL    HW246889   2.674   0.069   1.808
15039SOL     OW46890  14.345  14.618   6.058
15039SOL    HW146891  14.395  14.611   6.139
15039SOL    HW246892  14.325  14.527   6.034
15040SOL     OW46893   4.890   6.660  12.848
15040SOL    HW146894   4.825   6.592  12.827
15040SOL    HW246895   4.916   6.640  12.938
15041SOL     OW46896   1.545   4.785  12.159
15041SOL    HW146897   1.499   4.716  12.112
15041SOL    HW246898   1.597   4.828  12.092
15042SOL     OW46899   5.864   9.495   9.744
15042SOL    HW146900   5.865   9.560   9.815
15042SOL    HW246901   5.793   9.523   9.686
15043SOL     OW46902  13.931   8.725   2.515
15043SOL    HW146903  13.895   8.668   2.583
15043SOL    HW246904  13.998   8.671   2.472
15044SOL     OW46905   4.122   1.204   6.882
15044SOL    HW146906   4.206   1.213   6.838
15044SOL    HW246907   4.090   1.118   6.856
15045SOL     OW46908   7.160  13.486  11.437
15045SOL    HW146909   7.250  13.518  11.429
15045SOL    HW246910   7.116  13.553  11.488
15046SOL     OW46911   7.336   8.619   3.861
15046SOL    HW146912   7.344   8.587   3.951
15046SOL    HW246913   7.357   8.542   3.807
15047SOL     OW46914  13.594   6.535   1.411
15047SOL    HW146915  13.656   6.541   1.484
15047SOL    HW246916  13.560   6.624   1.401
15048SOL     OW46917  14.695   5.801   0.777
15048SOL    HW146918  14.704   5.889   0.742
15048SOL    HW246919  14.618   5.805   0.835
15049SOL     OW46920   9.613  12.607   5.533
15049SOL    HW146921   9.566  12.691   5.534
15049SOL    HW246922   9.608  12.578   5.442
15050SOL     OW46923   7.120   5.331   3.039
15050SOL    HW146924   7.080   5.250   3.071
15050SOL    HW246925   7.088   5.399   3.097
15051SOL     OW46926   9.661   4.719   7.637
15051SOL    HW146927   9.612   4.774   7.698
15051SOL    HW246928   9.742   4.697   7.684
15052SOL     OW46929   5.948   9.296  13.122
15052SOL    HW146930   5.940   9.347  13.203
15052SOL    HW246931   5.986   9.356  13.059
15053SOL     OW46932  13.391  13.795   0.661
15053SOL    HW146933  13.332  13.742   0.714
15053SOL    HW246934  13.466  13.738   0.645
15054SOL     OW46935   7.539   7.456   7.192
15054SOL    HW146936   7.571   7.435   7.105
15054SOL    HW246937   7.445   7.439   7.189
15055SOL     OW46938   5.507  12.202  13.802
15055SOL    HW146939   5.602  12.216  13.802
15055SOL    HW246940   5.470  12.285  13.829
15056SOL     OW46941   6.488   0.410   5.483
15056SOL    HW146942   6.409   0.356   5.491
15056SOL    HW246943   6.458   0.499   5.500
15057SOL     OW46944   2.818   8.553   1.404
15057SOL    HW146945   2.875   8.479   1.425
15057SOL    HW246946   2.850   8.625   1.459
15058SOL     OW46947   2.478  10.433   1.911
15058SOL    HW146948   2.512  10.424   1.822
15058SOL    HW246949   2.506  10.353   1.956
15059SOL     OW46950   8.156  13.426   8.348
15059SOL    HW146951   8.202  13.393   8.424
15059SOL    HW246952   8.198  13.383   8.273
15060SOL     OW46953   2.475  12.893   9.521
15060SOL    HW146954   2.393  12.865   9.480
15060SOL    HW246955   2.537  12.900   9.449
15061SOL     OW46956  12.630  14.082   5.688
15061SOL    HW146957  12.590  14.153   5.738
15061SOL    HW246958  12.595  14.002   5.727
15062SOL     OW46959   0.772   4.184  11.089
15062SOL    HW146960   0.733   4.159  11.173
15062SOL    HW246961   0.749   4.276  11.079
15063SOL     OW46962  13.033   9.869   5.566
15063SOL    HW146963  13.111   9.859   5.621
15063SOL    HW246964  13.045   9.806   5.495
15064SOL     OW46965  11.904   7.884   5.974
15064SOL    HW146966  11.950   7.968   5.981
15064SOL    HW246967  11.833   7.891   6.038
15065SOL     OW46968   5.717   8.354   8.255
15065SOL    HW146969   5.794   8.408   8.235
15065SOL    HW246970   5.705   8.300   8.177
15066SOL     OW46971   8.279   8.138   8.459
15066SOL    HW146972   8.313   8.221   8.494
15066SOL    HW246973   8.337   8.071   8.496
15067SOL     OW46974   9.431  11.672   7.657
15067SOL    HW146975   9.501  11.717   7.610
15067SOL    HW246976   9.435  11.582   7.625
15068SOL     OW46977   0.504   3.597  14.542
15068SOL    HW146978   0.466   3.683  14.559
15068SOL    HW246979   0.518   3.595  14.448
15069SOL     OW46980   4.962  10.279   0.706
15069SOL    HW146981   4.949  10.184   0.710
15069SOL    HW246982   4.978  10.304   0.797
15070SOL     OW46983  12.143   9.751   3.055
15070SOL    HW146984  12.064   9.702   3.076
15070SOL    HW246985  12.199   9.688   3.009
15071SOL     OW46986  10.915   5.625  11.699
15071SOL    HW146987  10.840   5.576  11.733
15071SOL    HW246988  10.918   5.602  11.606
15072SOL     OW46989  10.835   3.344   2.531
15072SOL    HW146990  10.828   3.283   2.458
15072SOL    HW246991  10.924   3.331   2.565
15073SOL     OW46992   7.346   8.885  10.656
15073SOL    HW146993   7.311   8.973  10.668
15073SOL    HW246994   7.432   8.898  10.615
15074SOL     OW46995   0.645   3.174   1.599
15074SOL    HW146996   0.709   3.132   1.656
15074SOL    HW246997   0.567   3.185   1.654
15075SOL     OW46998   6.584  11.229   8.180
15075SOL    HW146999   6.563  11.279   8.259
15075SOL    HW247000   6.598  11.139   8.212
15076SOL     OW47001   2.904   3.065  10.704
15076SOL    HW147002   2.851   3.143  10.692
15076SOL    HW247003   2.936   3.071  10.794
15077SOL     OW47004   1.937   8.554  12.520
15077SOL    HW147005   2.008   8.521  12.575
15077SOL    HW247006   1.858   8.517  12.558
15078SOL     OW47007   2.670   5.652   5.162
15078SOL    HW147008   2.616   5.726   5.138
15078SOL    HW247009   2.622   5.575   5.132
15079SOL     OW47010  12.348   6.118   9.831
15079SOL    HW147011  12.286   6.050   9.805
15079SOL    HW247012  12.434   6.078   9.819
15080SOL     OW47013   7.483   2.319   1.691
15080SOL    HW147014   7.463   2.256   1.622
15080SOL    HW247015   7.543   2.381   1.651
15081SOL     OW47016  10.365   2.717  10.583
15081SOL    HW147017  10.337   2.769  10.507
15081SOL    HW247018  10.425   2.774  10.630
15082SOL     OW47019   8.212  12.888   5.361
15082SOL    HW147020   8.243  12.805   5.325
15082SOL    HW247021   8.269  12.905   5.436
15083SOL     OW47022  12.720   1.098   2.238
15083SOL    HW147023  12.786   1.167   2.232
15083SOL    HW247024  12.767   1.017   2.218
15084SOL     OW47025   8.000   4.776   8.023
15084SOL    HW147026   8.055   4.751   8.097
15084SOL    HW247027   7.911   4.757   8.051
15085SOL     OW47028   3.730   0.432   3.839
15085SOL    HW147029   3.727   0.519   3.880
15085SOL    HW247030   3.675   0.377   3.895
15086SOL     OW47031   6.375   6.774  11.860
15086SOL    HW147032   6.367   6.679  11.863
15086SOL    HW247033   6.386   6.795  11.768
15087SOL     OW47034  12.258   5.174  10.504
15087SOL    HW147035  12.310   5.204  10.579
15087SOL    HW247036  12.323   5.155  10.436
15088SOL     OW47037  10.348   7.720   5.407
15088SOL    HW147038  10.255   7.709   5.425
15088SOL    HW247039  10.358   7.813   5.386
15089SOL     OW47040   9.172  12.418  10.409
15089SOL    HW147041   9.108  12.358  10.372
15089SOL    HW247042   9.253  12.400  10.360
15090SOL     OW47043   4.859   8.541   0.468
15090SOL    HW147044   4.851   8.446   0.477
15090SOL    HW247045   4.921   8.554   0.396
15091SOL     OW47046   6.076   8.627  13.989
15091SOL    HW147047   6.037   8.575  14.060
15091SOL    HW247048   6.105   8.708  14.032
15092SOL     OW47049   2.254   4.744   9.429
15092SOL    HW147050   2.309   4.821   9.418
15092SOL    HW247051   2.306   4.672   9.392
15093SOL     OW47052   6.936  13.444   2.505
15093SOL    HW147053   6.941  13.354   2.538
15093SOL    HW247054   7.001  13.492   2.556
15094SOL     OW47055  10.260   5.667   1.924
15094SOL    HW147056  10.169   5.640   1.935
15094SOL    HW247057  10.309   5.585   1.923
15095SOL     OW47058  10.630   2.737   6.608
15095SOL    HW147059  10.717   2.699   6.620
15095SOL    HW247060  10.644   2.832   6.612
15096SOL     OW47061   8.130  14.480   0.617
15096SOL    HW147062   8.122  14.408   0.554
15096SOL    HW247063   8.176  14.443   0.691
15097SOL     OW47064  10.791  12.519   0.629
15097SOL    HW147065  10.857  12.451   0.644
15097SOL    HW247066  10.752  12.496   0.544
15098SOL     OW47067   1.572  11.257   3.566
15098SOL    HW147068   1.477  11.250   3.580
15098SOL    HW247069   1.582  11.337   3.514
15099SOL     OW47070  14.751   4.981   2.078
15099SOL    HW147071  14.839   4.948   2.058
15099SOL    HW247072  14.732   4.947   2.166
15100SOL     OW47073  14.424   7.807   2.775
15100SOL    HW147074  14.506   7.856   2.777
15100SOL    HW247075  14.450   7.717   2.799
15101SOL     OW47076   2.486   8.392  10.795
15101SOL    HW147077   2.424   8.381  10.868
15101SOL    HW247078   2.472   8.314  10.741
15102SOL     OW47079   2.932   4.280   7.131
15102SOL    HW147080   2.904   4.235   7.052
15102SOL    HW247081   3.000   4.340   7.102
15103SOL     OW47082   9.017   2.962  14.103
15103SOL    HW147083   8.945   2.910  14.141
15103SOL    HW247084   9.061   2.901  14.044
15104SOL     OW47085   9.653   6.707   5.200
15104SOL    HW147086   9.714   6.669   5.137
15104SOL    HW247087   9.619   6.785   5.157
15105SOL     OW47088   1.038   5.373   4.597
15105SOL    HW147089   1.013   5.436   4.530
15105SOL    HW247090   1.131   5.355   4.580
15106SOL     OW47091   0.032   8.139   8.655
15106SOL    HW147092   0.041   8.095   8.740
15106SOL    HW247093   0.117   8.180   8.640
15107SOL     OW47094   0.266   0.164  13.421
15107SOL    HW147095   0.256   0.180  13.327
15107SOL    HW247096   0.216   0.233  13.463
15108SOL     OW47097  10.248  10.067   3.670
15108SOL    HW147098  10.199  10.088   3.590
15108SOL    HW247099  10.340  10.082   3.646
15109SOL     OW47100   2.355  10.755  14.489
15109SOL    HW147101   2.306  10.821  14.537
15109SOL    HW247102   2.343  10.674  14.540
15110SOL     OW47103  10.051  10.795   1.081
15110SOL    HW147104  10.005  10.878   1.071
15110SOL    HW247105   9.984  10.728   1.072
15111SOL     OW47106   5.993   6.578   0.866
15111SOL    HW147107   6.051   6.641   0.909
15111SOL    HW247108   6.035   6.493   0.880
15112SOL     OW47109   4.209   5.173  13.598
15112SOL    HW147110   4.149   5.239  13.562
15112SOL    HW247111   4.277   5.224  13.643
15113SOL     OW47112   4.603   8.188   4.271
15113SOL    HW147113   4.614   8.129   4.197
15113SOL    HW247114   4.512   8.216   4.266
15114SOL     OW47115   9.341   5.684   5.931
15114SOL    HW147116   9.409   5.745   5.902
15114SOL    HW247117   9.358   5.672   6.025
15115SOL     OW47118   6.230   9.776  13.261
15115SOL    HW147119   6.291   9.807  13.194
15115SOL    HW247120   6.253   9.684  13.274
15116SOL     OW47121   7.932  12.440   1.453
15116SOL    HW147122   7.851  12.474   1.493
15116SOL    HW247123   7.959  12.369   1.512
15117SOL     OW47124   6.238   2.909  10.887
15117SOL    HW147125   6.315   2.933  10.835
15117SOL    HW247126   6.233   2.977  10.955
15118SOL     OW47127  12.235   8.465   3.513
15118SOL    HW147128  12.253   8.376   3.484
15118SOL    HW247129  12.319   8.497   3.546
15119SOL     OW47130  14.438   2.684   2.591
15119SOL    HW147131  14.419   2.633   2.512
15119SOL    HW247132  14.526   2.718   2.577
15120SOL     OW47133   0.651   8.492   1.193
15120SOL    HW147134   0.576   8.543   1.224
15120SOL    HW247135   0.692   8.548   1.127
15121SOL     OW47136  13.065  14.524   5.851
15121SOL    HW147137  13.028  14.438   5.870
15121SOL    HW247138  13.148  14.506   5.806
15122SOL     OW47139   1.737  10.288   8.940
15122SOL    HW147140   1.668  10.337   8.895
15122SOL    HW247141   1.806  10.353   8.956
15123SOL     OW47142   1.754  11.603   4.992
15123SOL    HW147143   1.769  11.564   5.078
15123SOL    HW247144   1.715  11.533   4.940
15124SOL     OW47145  14.389  11.837   3.895
15124SOL    HW147146  14.426  11.748   3.890
15124SOL    HW247147  14.426  11.873   3.975
15125SOL     OW47148  12.507   1.702   4.353
15125SOL    HW147149  12.456   1.720   4.432
15125SOL    HW247150  12.594   1.679   4.385
15126SOL     OW47151  11.070   9.111  10.362
15126SOL    HW147152  11.012   9.036  10.350
15126SOL    HW247153  11.084   9.145  10.274
15127SOL     OW47154   0.124   0.774  10.612
15127SOL    HW147155   0.089   0.805  10.529
15127SOL    HW247156   0.075   0.693  10.629
15128SOL     OW47157  10.055   5.289  14.208
15128SOL    HW147158  10.106   5.210  14.188
15128SOL    HW247159  10.079   5.311  14.298
15129SOL     OW47160   0.058   6.953  10.279
15129SOL    HW147161   0.048   7.031  10.334
15129SOL    HW247162   0.141   6.966  10.233
15130SOL     OW47163   0.793   8.032   7.089
15130SOL    HW147164   0.802   8.122   7.058
15130SOL    HW247165   0.736   7.989   7.024
15131SOL     OW47166  10.186   1.725   2.713
15131SOL    HW147167  10.167   1.733   2.806
15131SOL    HW247168  10.101   1.737   2.670
15132SOL     OW47169  11.754  13.773   3.224
15132SOL    HW147170  11.824  13.717   3.191
15132SOL    HW247171  11.797  13.854   3.251
15133SOL     OW47172  12.812  12.072   2.840
15133SOL    HW147173  12.871  12.015   2.790
15133SOL    HW247174  12.726  12.031   2.832
15134SOL     OW47175   8.261  11.563   6.156
15134SOL    HW147176   8.167  11.546   6.153
15134SOL    HW247177   8.270  11.643   6.208
15135SOL     OW47178  12.407   3.575   3.261
15135SOL    HW147179  12.429   3.565   3.168
15135SOL    HW247180  12.422   3.488   3.299
15136SOL     OW47181  11.152   6.345  13.104
15136SOL    HW147182  11.068   6.298  13.110
15136SOL    HW247183  11.202   6.315  13.180
15137SOL     OW47184   8.275  11.632   2.337
15137SOL    HW147185   8.316  11.596   2.415
15137SOL    HW247186   8.321  11.715   2.323
15138SOL     OW47187   9.383   5.069   1.611
15138SOL    HW147188   9.344   5.123   1.541
15138SOL    HW247189   9.317   5.001   1.628
15139SOL     OW47190   3.424   1.721  10.203
15139SOL    HW147191   3.431   1.726  10.107
15139SOL    HW247192   3.336   1.687  10.218
15140SOL     OW47193   7.590   5.222   4.627
15140SOL    HW147194   7.613   5.282   4.556
15140SOL    HW247195   7.602   5.273   4.707
15141SOL     OW47196  14.664   8.078   9.437
15141SOL    HW147197  14.657   8.172   9.455
15141SOL    HW247198  14.574   8.046   9.441
15142SOL     OW47199   6.470  14.535   6.854
15142SOL    HW147200   6.542  14.508   6.911
15142SOL    HW247201   6.495  14.505   6.767
15143SOL     OW47202   7.118   7.580  12.295
15143SOL    HW147203   7.093   7.503  12.346
15143SOL    HW247204   7.057   7.581  12.221
15144SOL     OW47205  10.104  11.878  12.979
15144SOL    HW147206  10.043  11.946  13.006
15144SOL    HW247207  10.162  11.865  13.054
15145SOL     OW47208   9.897  11.162   7.371
15145SOL    HW147209   9.902  11.241   7.317
15145SOL    HW247210   9.938  11.186   7.454
15146SOL     OW47211   4.081  11.953   3.079
15146SOL    HW147212   4.146  11.981   3.015
15146SOL    HW247213   3.997  11.958   3.034
15147SOL     OW47214  13.152  11.474  10.779
15147SOL    HW147215  13.112  11.425  10.851
15147SOL    HW247216  13.210  11.536  10.821
15148SOL     OW47217  12.833   2.279   5.866
15148SOL    HW147218  12.746   2.271   5.826
15148SOL    HW247219  12.827   2.357   5.921
15149SOL     OW47220  10.880   7.781   6.465
15149SOL    HW147221  10.930   7.739   6.395
15149SOL    HW247222  10.915   7.743   6.546
15150SOL     OW47223  10.371  11.926   1.144
15150SOL    HW147224  10.292  11.909   1.196
15150SOL    HW247225  10.343  11.919   1.053
15151SOL     OW47226   2.489   9.558   6.917
15151SOL    HW147227   2.425   9.597   6.857
15151SOL    HW247228   2.453   9.472   6.936
15152SOL     OW47229  11.368  12.284  14.542
15152SOL    HW147230  11.308  12.239  14.483
15152SOL    HW247231  11.452  12.239  14.529
15153SOL     OW47232   2.877   9.006  10.218
15153SOL    HW147233   2.957   9.005  10.269
15153SOL    HW247234   2.871   9.095  10.183
15154SOL     OW47235   7.549   7.255   4.039
15154SOL    HW147236   7.627   7.204   4.018
15154SOL    HW247237   7.477   7.192   4.036
15155SOL     OW47238   3.298   1.084   7.873
15155SOL    HW147239   3.369   1.076   7.810
15155SOL    HW247240   3.256   0.997   7.873
15156SOL     OW47241   6.711   4.603   2.417
15156SOL    HW147242   6.632   4.650   2.392
15156SOL    HW247243   6.700   4.586   2.511
15157SOL     OW47244   0.717   2.866   3.122
15157SOL    HW147245   0.792   2.831   3.169
15157SOL    HW247246   0.754   2.933   3.064
15158SOL     OW47247   5.508   5.666   7.362
15158SOL    HW147248   5.421   5.684   7.398
15158SOL    HW247249   5.553   5.618   7.432
15159SOL     OW47250   4.107  12.326  12.597
15159SOL    HW147251   4.181  12.387  12.597
15159SOL    HW247252   4.129  12.262  12.530
15160SOL     OW47253  13.701   2.778   5.876
15160SOL    HW147254  13.775   2.750   5.822
15160SOL    HW247255  13.633   2.711   5.861
15161SOL     OW47256  12.551  10.806   9.540
15161SOL    HW147257  12.610  10.849   9.603
15161SOL    HW247258  12.572  10.846   9.456
15162SOL     OW47259   3.364   3.688   1.789
15162SOL    HW147260   3.457   3.670   1.801
15162SOL    HW247261   3.349   3.770   1.836
15163SOL     OW47262  13.877   1.361   5.922
15163SOL    HW147263  13.928   1.293   5.967
15163SOL    HW247264  13.794   1.318   5.900
15164SOL     OW47265   1.268  13.915  11.772
15164SOL    HW147266   1.272  14.003  11.733
15164SOL    HW247267   1.313  13.859  11.708
15165SOL     OW47268   5.614   8.581   2.241
15165SOL    HW147269   5.677   8.512   2.220
15165SOL    HW247270   5.532   8.534   2.259
15166SOL     OW47271   1.378   4.298   0.882
15166SOL    HW147272   1.409   4.228   0.824
15166SOL    HW247273   1.283   4.295   0.874
15167SOL     OW47274   0.707   9.886   7.344
15167SOL    HW147275   0.758   9.880   7.263
15167SOL    HW247276   0.772   9.881   7.414
15168SOL     OW47277   8.807   0.435  11.952
15168SOL    HW147278   8.895   0.397  11.951
15168SOL    HW247279   8.781   0.437  11.860
15169SOL     OW47280  12.373   2.252  10.492
15169SOL    HW147281  12.309   2.181  10.493
15169SOL    HW247282  12.409   2.252  10.404
15170SOL     OW47283   5.510   4.485   1.382
15170SOL    HW147284   5.584   4.436   1.345
15170SOL    HW247285   5.547   4.570   1.405
15171SOL     OW47286   9.975  13.457   3.784
15171SOL    HW147287   9.997  13.371   3.821
15171SOL    HW247288   9.924  13.436   3.706
15172SOL     OW47289  12.455   7.682   9.850
15172SOL    HW147290  12.451   7.715   9.940
15172SOL    HW247291  12.469   7.760   9.797
15173SOL     OW47292  13.451   4.096   1.000
15173SOL    HW147293  13.540   4.082   0.967
15173SOL    HW247294  13.451   4.052   1.086
15174SOL     OW47295  13.220   6.181   1.130
15174SOL    HW147296  13.266   6.132   1.062
15174SOL    HW247297  13.253   6.271   1.121
15175SOL     OW47298   4.942  14.644   4.571
15175SOL    HW147299   4.950  14.548   4.564
15175SOL    HW247300   4.971  14.677   4.486
15176SOL     OW47301   4.473  11.267   2.922
15176SOL    HW147302   4.540  11.239   2.985
15176SOL    HW247303   4.480  11.203   2.851
15177SOL     OW47304   2.337   0.226   7.564
15177SOL    HW147305   2.350   0.134   7.586
15177SOL    HW247306   2.251   0.229   7.520
15178SOL     OW47307  14.606   4.032   9.100
15178SOL    HW147308  14.675   4.091   9.131
15178SOL    HW247309  14.644   3.945   9.108
15179SOL     OW47310  14.797   1.242   1.326
15179SOL    HW147311  14.729   1.308   1.314
15179SOL    HW247312  14.878   1.286   1.300
15180SOL     OW47313   9.280   3.022  14.662
15180SOL    HW147314   9.269   3.116  14.647
15180SOL    HW247315   9.190   2.990  14.672
15181SOL     OW47316  12.795   7.260   1.734
15181SOL    HW147317  12.865   7.292   1.791
15181SOL    HW247318  12.750   7.194   1.786
15182SOL     OW47319   5.525   0.419   4.426
15182SOL    HW147320   5.557   0.340   4.382
15182SOL    HW247321   5.560   0.413   4.514
15183SOL     OW47322   1.355  10.823  12.574
15183SOL    HW147323   1.272  10.797  12.612
15183SOL    HW247324   1.409  10.849  12.649
15184SOL     OW47325  13.025   7.415   9.782
15184SOL    HW147326  13.026   7.446   9.692
15184SOL    HW247327  13.116   7.391   9.800
15185SOL     OW47328   0.021   7.365   8.442
15185SOL    HW147329  14.877   7.433   8.506
15185SOL    HW247330  14.838   7.380   8.370
15186SOL     OW47331   7.660  11.252   5.996
15186SOL    HW147332   7.635  11.214   6.080
15186SOL    HW247333   7.742  11.207   5.972
15187SOL     OW47334   9.717  11.608   7.088
15187SOL    HW147335   9.699  11.681   7.029
15187SOL    HW247336   9.633  11.590   7.130
15188SOL     OW47337   2.781  10.727   2.651
15188SOL    HW147338   2.839  10.653   2.671
15188SOL    HW247339   2.718  10.728   2.723
15189SOL     OW47340   3.411   9.409  14.177
15189SOL    HW147341   3.501   9.377  14.186
15189SOL    HW247342   3.357   9.330  14.185
15190SOL     OW47343   2.041   4.323  14.702
15190SOL    HW147344   2.111   4.359  14.755
15190SOL    HW247345   2.071   4.235  14.678
15191SOL     OW47346  13.059   8.095   0.100
15191SOL    HW147347  13.140   8.051   0.125
15191SOL    HW247348  13.075   8.187   0.118
15192SOL     OW47349   2.130   1.005   9.509
15192SOL    HW147350   2.089   0.932   9.556
15192SOL    HW247351   2.057   1.053   9.470
15193SOL     OW47352  14.509  10.905  12.128
15193SOL    HW147353  14.482  10.857  12.206
15193SOL    HW247354  14.483  10.996  12.145
15194SOL     OW47355  13.551  12.596   0.964
15194SOL    HW147356  13.633  12.630   0.929
15194SOL    HW247357  13.493  12.671   0.967
15195SOL     OW47358  10.396   1.455   1.774
15195SOL    HW147359  10.432   1.533   1.733
15195SOL    HW247360  10.424   1.383   1.718
15196SOL     OW47361   1.226   4.310   4.184
15196SOL    HW147362   1.158   4.244   4.197
15196SOL    HW247363   1.261   4.291   4.097
15197SOL     OW47364   1.714   9.205   4.133
15197SOL    HW147365   1.628   9.238   4.157
15197SOL    HW247366   1.703   9.173   4.043
15198SOL     OW47367  12.409   3.580   1.891
15198SOL    HW147368  12.472   3.617   1.828
15198SOL    HW247369  12.440   3.611   1.976
15199SOL     OW47370   8.197  11.899  14.864
15199SOL    HW147371   8.195  11.980   0.037
15199SOL    HW247372   8.104  11.878  14.850
15200SOL     OW47373   9.970   5.634  10.575
15200SOL    HW147374  10.004   5.706  10.628
15200SOL    HW247375   9.888   5.610  10.617
15201SOL     OW47376  13.097  13.103  14.143
15201SOL    HW147377  13.129  13.171  14.083
15201SOL    HW247378  13.073  13.030  14.086
15202SOL     OW47379   2.823   2.212  12.938
15202SOL    HW147380   2.787   2.146  12.879
15202SOL    HW247381   2.749   2.269  12.958
15203SOL     OW47382   3.547  12.485   4.993
15203SOL    HW147383   3.582  12.417   4.934
15203SOL    HW247384   3.536  12.562   4.937
15204SOL     OW47385   1.365   4.736  12.795
15204SOL    HW147386   1.445   4.789  12.796
15204SOL    HW247387   1.337   4.733  12.886
15205SOL     OW47388   0.923   8.442   1.093
15205SOL    HW147389   0.879   8.357   1.086
15205SOL    HW247390   0.946   8.450   1.185
15206SOL     OW47391   5.033   7.254   4.477
15206SOL    HW147392   5.056   7.210   4.558
15206SOL    HW247393   4.961   7.313   4.501
15207SOL     OW47394   0.876   9.961   9.983
15207SOL    HW147395   0.953  10.017   9.995
15207SOL    HW247396   0.828   9.970  10.065
15208SOL     OW47397  14.399   1.178   0.059
15208SOL    HW147398  14.494   1.184   0.053
15208SOL    HW247399  14.367   1.262   0.028
15209SOL     OW47400   4.314   2.157   4.713
15209SOL    HW147401   4.324   2.114   4.798
15209SOL    HW247402   4.403   2.179   4.687
15210SOL     OW47403  12.299   8.576   9.437
15210SOL    HW147404  12.370   8.640   9.430
15210SOL    HW247405  12.247   8.589   9.358
15211SOL     OW47406   8.445   1.475  12.593
15211SOL    HW147407   8.488   1.560  12.586
15211SOL    HW247408   8.353   1.496  12.611
15212SOL     OW47409  13.547   8.874  14.833
15212SOL    HW147410  13.628   8.900  14.788
15212SOL    HW247411  13.477   8.912  14.781
15213SOL     OW47412   1.218   0.410   5.621
15213SOL    HW147413   1.198   0.352   5.695
15213SOL    HW247414   1.293   0.369   5.578
15214SOL     OW47415   2.851   6.651   5.388
15214SOL    HW147416   2.826   6.560   5.375
15214SOL    HW247417   2.920   6.666   5.322
15215SOL     OW47418  12.498   0.796  12.709
15215SOL    HW147419  12.592   0.783  12.699
15215SOL    HW247420  12.489   0.840  12.793
15216SOL     OW47421   5.704   2.552   6.878
15216SOL    HW147422   5.748   2.467   6.881
15216SOL    HW247423   5.723   2.586   6.790
15217SOL     OW47424  13.128   2.294   2.348
15217SOL    HW147425  13.064   2.333   2.407
15217SOL    HW247426  13.196   2.260   2.406
15218SOL     OW47427   1.726   8.459  13.474
15218SOL    HW147428   1.723   8.528  13.541
15218SOL    HW247429   1.792   8.490  13.412
15219SOL     OW47430  13.131   3.102   2.740
15219SOL    HW147431  13.088   3.171   2.690
15219SOL    HW247432  13.218   3.137   2.759
15220SOL     OW47433   7.708   5.749   9.646
15220SOL    HW147434   7.781   5.688   9.637
15220SOL    HW247435   7.672   5.731   9.733
15221SOL     OW47436  14.046   7.817   8.242
15221SOL    HW147437  14.097   7.867   8.178
15221SOL    HW247438  14.001   7.750   8.190
15222SOL     OW47439   1.824  14.836  13.488
15222SOL    HW147440   1.814  14.773  13.559
15222SOL    HW247441   1.907   0.001  13.506
15223SOL     OW47442  12.291   8.692   0.009
15223SOL    HW147443  12.226   8.657   0.070
15223SOL    HW247444  12.321   8.773   0.049
15224SOL     OW47445   9.494  10.625  12.006
15224SOL    HW147446   9.541  10.543  12.021
15224SOL    HW247447   9.464  10.651  12.093
15225SOL     OW47448   7.623   7.638   9.336
15225SOL    HW147449   7.671   7.677   9.262
15225SOL    HW247450   7.542   7.688   9.341
15226SOL     OW47451   5.029   1.172   2.511
15226SOL    HW147452   4.957   1.231   2.488
15226SOL    HW247453   5.096   1.229   2.549
15227SOL     OW47454  10.126   5.081   8.731
15227SOL    HW147455  10.220   5.078   8.710
15227SOL    HW247456  10.099   4.990   8.735
15228SOL     OW47457  11.158   8.278   0.948
15228SOL    HW147458  11.087   8.243   1.003
15228SOL    HW247459  11.114   8.311   0.870
15229SOL     OW47460  10.216  12.802   6.650
15229SOL    HW147461  10.151  12.824   6.716
15229SOL    HW247462  10.288  12.864   6.666
15230SOL     OW47463   2.212   4.073  13.664
15230SOL    HW147464   2.259   4.016  13.603
15230SOL    HW247465   2.181   4.014  13.733
15231SOL     OW47466  11.656  12.978   1.425
15231SOL    HW147467  11.562  12.985   1.406
15231SOL    HW247468  11.690  13.066   1.412
15232SOL     OW47469   6.398  11.251  13.443
15232SOL    HW147470   6.370  11.305  13.369
15232SOL    HW247471   6.456  11.186  13.404
15233SOL     OW47472   8.245   1.027  11.860
15233SOL    HW147473   8.247   0.991  11.949
15233SOL    HW247474   8.285   1.113  11.868
15234SOL     OW47475  14.613  10.174  11.796
15234SOL    HW147476  14.699  10.200  11.764
15234SOL    HW247477  14.553  10.198  11.726
15235SOL     OW47478   8.920   9.526   7.381
15235SOL    HW147479   8.856   9.507   7.313
15235SOL    HW247480   8.990   9.573   7.336
15236SOL     OW47481  11.990  11.433  10.214
15236SOL    HW147482  12.027  11.521  10.225
15236SOL    HW247483  12.059  11.383  10.172
15237SOL     OW47484   3.099   3.081   0.777
15237SOL    HW147485   3.110   3.015   0.846
15237SOL    HW247486   3.087   3.163   0.825
15238SOL     OW47487   9.608   7.945  13.463
15238SOL    HW147488   9.682   7.885  13.454
15238SOL    HW247489   9.582   7.965  13.373
15239SOL     OW47490  12.716   6.372  11.587
15239SOL    HW147491  12.779   6.419  11.533
15239SOL    HW247492  12.759   6.364  11.672
15240SOL     OW47493   2.768   2.264  14.009
15240SOL    HW147494   2.763   2.333  14.075
15240SOL    HW247495   2.853   2.276  13.968
15241SOL     OW47496   7.182   6.128   6.841
15241SOL    HW147497   7.112   6.067   6.867
15241SOL    HW247498   7.259   6.097   6.888
15242SOL     OW47499   3.499   0.614  14.456
15242SOL    HW147500   3.477   0.593  14.547
15242SOL    HW247501   3.528   0.531  14.418
15243SOL     OW47502   4.439  11.070  12.996
15243SOL    HW147503   4.364  11.078  12.936
15243SOL    HW247504   4.500  11.137  12.966
15244SOL     OW47505  11.547   3.309   7.578
15244SOL    HW147506  11.601   3.382   7.548
15244SOL    HW247507  11.608   3.253   7.626
15245SOL     OW47508   2.619   4.573  10.372
15245SOL    HW147509   2.534   4.593  10.411
15245SOL    HW247510   2.681   4.579  10.444
15246SOL     OW47511   3.881   6.561   9.315
15246SOL    HW147512   3.819   6.603   9.375
15246SOL    HW247513   3.845   6.576   9.228
15247SOL     OW47514  12.807   0.840   6.767
15247SOL    HW147515  12.810   0.785   6.689
15247SOL    HW247516  12.882   0.809   6.820
15248SOL     OW47517  13.917   1.115   2.533
15248SOL    HW147518  13.917   1.034   2.584
15248SOL    HW247519  13.995   1.162   2.562
15249SOL     OW47520  11.665   6.658  11.807
15249SOL    HW147521  11.754   6.654  11.842
15249SOL    HW247522  11.678   6.659  11.712
15250SOL     OW47523   6.242  14.252   7.618
15250SOL    HW147524   6.170  14.230   7.678
15250SOL    HW247525   6.298  14.310   7.669
15251SOL     OW47526   9.487   0.839  12.789
15251SOL    HW147527   9.563   0.893  12.767
15251SOL    HW247528   9.494   0.763  12.731
15252SOL     OW47529   3.856  13.146   1.936
15252SOL    HW147530   3.775  13.197   1.935
15252SOL    HW247531   3.827  13.055   1.931
15253SOL     OW47532   7.422   4.687   1.202
15253SOL    HW147533   7.517   4.674   1.209
15253SOL    HW247534   7.409   4.777   1.232
15254SOL     OW47535   0.764   0.987   4.765
15254SOL    HW147536   0.793   0.896   4.767
15254SOL    HW247537   0.788   1.021   4.852
15255SOL     OW47538   7.866   2.156   8.450
15255SOL    HW147539   7.948   2.173   8.403
15255SOL    HW247540   7.798   2.186   8.390
15256SOL     OW47541   3.661   1.572   5.201
15256SOL    HW147542   3.731   1.512   5.177
15256SOL    HW247543   3.705   1.656   5.215
15257SOL     OW47544   1.818   9.490   7.619
15257SOL    HW147545   1.805   9.545   7.541
15257SOL    HW247546   1.884   9.537   7.670
15258SOL     OW47547  12.366  13.384  12.762
15258SOL    HW147548  12.431  13.441  12.721
15258SOL    HW247549  12.370  13.407  12.855
15259SOL     OW47550   5.581   5.891   0.965
15259SOL    HW147551   5.665   5.889   1.011
15259SOL    HW247552   5.604   5.903   0.873
15260SOL     OW47553  10.871   2.864   0.783
15260SOL    HW147554  10.850   2.831   0.870
15260SOL    HW247555  10.932   2.800   0.746
15261SOL     OW47556   2.552  12.632   9.594
15261SOL    HW147557   2.514  12.719   9.581
15261SOL    HW247558   2.612  12.643   9.667
15262SOL     OW47559  13.434   2.583   5.614
15262SOL    HW147560  13.343   2.606   5.593
15262SOL    HW247561  13.432   2.561   5.707
15263SOL     OW47562   2.810   1.104   0.797
15263SOL    HW147563   2.821   1.025   0.849
15263SOL    HW247564   2.724   1.094   0.755
15264SOL     OW47565   4.433   8.860   1.663
15264SOL    HW147566   4.456   8.790   1.723
15264SOL    HW247567   4.423   8.937   1.719
15265SOL     OW47568   6.250  11.740   2.935
15265SOL    HW147569   6.229  11.779   2.850
15265SOL    HW247570   6.242  11.646   2.921
15266SOL     OW47571   9.057   9.665  11.166
15266SOL    HW147572   9.031   9.756  11.152
15266SOL    HW247573   9.007   9.637  11.242
15267SOL     OW47574  13.085   2.510   5.328
15267SOL    HW147575  13.128   2.460   5.259
15267SOL    HW247576  13.031   2.445   5.374
15268SOL     OW47577   3.718   2.658   8.211
15268SOL    HW147578   3.633   2.620   8.231
15268SOL    HW247579   3.704   2.711   8.133
15269SOL     OW47580   9.534  11.590   6.679
15269SOL    HW147581   9.567  11.500   6.676
15269SOL    HW247582   9.612  11.643   6.696
15270SOL     OW47583   1.574   3.172  10.659
15270SOL    HW147584   1.572   3.257  10.703
15270SOL    HW247585   1.537   3.111  10.722
15271SOL     OW47586  11.176   1.525  14.034
15271SOL    HW147587  11.115   1.577  14.087
15271SOL    HW247588  11.263   1.550  14.065
15272SOL     OW47589   6.608  14.203   0.298
15272SOL    HW147590   6.521  14.237   0.276
15272SOL    HW247591   6.646  14.271   0.354
15273SOL     OW47592   2.060  12.885   9.840
15273SOL    HW147593   2.141  12.854   9.880
15273SOL    HW247594   2.088  12.958   9.784
15274SOL     OW47595  13.665   5.079   4.416
15274SOL    HW147596  13.672   4.985   4.403
15274SOL    HW247597  13.753   5.113   4.398
15275SOL     OW47598   7.075  13.343   0.698
15275SOL    HW147599   7.053  13.430   0.733
15275SOL    HW247600   7.027  13.282   0.754
15276SOL     OW47601  12.443   4.494  14.784
15276SOL    HW147602  12.356   4.507  14.822
15276SOL    HW247603  12.503   4.532  14.849
15277SOL     OW47604   6.361   6.832   3.117
15277SOL    HW147605   6.386   6.877   3.035
15277SOL    HW247606   6.368   6.739   3.096
15278SOL     OW47607  13.681   5.092   0.572
15278SOL    HW147608  13.705   5.011   0.617
15278SOL    HW247609  13.586   5.089   0.567
15279SOL     OW47610   9.096   6.112   8.772
15279SOL    HW147611   9.188   6.089   8.757
15279SOL    HW247612   9.076   6.074   8.857
15280SOL     OW47613   1.483   0.263   7.368
15280SOL    HW147614   1.497   0.331   7.434
15280SOL    HW247615   1.474   0.182   7.418
15281SOL     OW47616  11.557   6.061   6.325
15281SOL    HW147617  11.617   5.987   6.323
15281SOL    HW247618  11.575   6.104   6.408
15282SOL     OW47619  11.738   5.933   5.886
15282SOL    HW147620  11.771   5.994   5.952
15282SOL    HW247621  11.751   5.978   5.803
15283SOL     OW47622   1.562  14.138  13.809
15283SOL    HW147623   1.499  14.208  13.791
15283SOL    HW247624   1.571  14.139  13.905
15284SOL     OW47625   3.294   8.653  10.509
15284SOL    HW147626   3.205   8.647  10.475
15284SOL    HW247627   3.304   8.576  10.565
15285SOL     OW47628  11.324   3.139  11.772
15285SOL    HW147629  11.341   3.085  11.849
15285SOL    HW247630  11.291   3.222  11.807
15286SOL     OW47631   8.980   3.033   7.784
15286SOL    HW147632   9.068   3.039   7.746
15286SOL    HW247633   8.990   2.977   7.860
15287SOL     OW47634   8.087  14.290   7.867
15287SOL    HW147635   8.091  14.344   7.946
15287SOL    HW247636   8.178  14.282   7.839
15288SOL     OW47637   9.933   7.229   5.578
15288SOL    HW147638   9.899   7.302   5.526
15288SOL    HW247639   9.917   7.255   5.669
15289SOL     OW47640   2.252   2.554  10.591
15289SOL    HW147641   2.242   2.646  10.565
15289SOL    HW247642   2.217   2.551  10.680
15290SOL     OW47643   9.165  11.847   8.110
15290SOL    HW147644   9.234  11.781   8.113
15290SOL    HW247645   9.088  11.800   8.080
15291SOL     OW47646   2.679   2.082  13.394
15291SOL    HW147647   2.749   2.143  13.418
15291SOL    HW247648   2.625   2.074  13.473
15292SOL     OW47649   2.267  10.277   5.142
15292SOL    HW147650   2.275  10.249   5.233
15292SOL    HW247651   2.352  10.256   5.103
15293SOL     OW47652   2.468   2.349  13.448
15293SOL    HW147653   2.490   2.348  13.354
15293SOL    HW247654   2.428   2.435  13.462
15294SOL     OW47655   4.875  13.218  11.220
15294SOL    HW147656   4.875  13.123  11.236
15294SOL    HW247657   4.783  13.241  11.216
15295SOL     OW47658  13.205   4.606   8.834
15295SOL    HW147659  13.240   4.581   8.920
15295SOL    HW247660  13.172   4.524   8.798
15296SOL     OW47661  12.019   6.450   8.821
15296SOL    HW147662  12.005   6.544   8.821
15296SOL    HW247663  11.950   6.415   8.878
15297SOL     OW47664   0.011   5.390  12.677
15297SOL    HW147665   0.016   5.444  12.756
15297SOL    HW247666   0.098   5.351  12.669
15298SOL     OW47667  10.257   3.399   0.227
15298SOL    HW147668  10.182   3.345   0.254
15298SOL    HW247669  10.333   3.350   0.259
15299SOL     OW47670   5.809  11.015  11.110
15299SOL    HW147671   5.806  10.920  11.118
15299SOL    HW247672   5.810  11.031  11.015
15300SOL     OW47673   7.879   1.232   4.295
15300SOL    HW147674   7.796   1.244   4.341
15300SOL    HW247675   7.875   1.295   4.223
15301SOL     OW47676   3.521   4.524  10.108
15301SOL    HW147677   3.429   4.508  10.088
15301SOL    HW247678   3.569   4.460  10.056
15302SOL     OW47679   0.654   2.836   9.536
15302SOL    HW147680   0.710   2.796   9.603
15302SOL    HW247681   0.567   2.803   9.555
15303SOL     OW47682   4.486   5.930   2.572
15303SOL    HW147683   4.442   5.946   2.488
15303SOL    HW247684   4.495   5.835   2.577
15304SOL     OW47685  11.606   3.030  14.067
15304SOL    HW147686  11.541   3.049  14.135
15304SOL    HW247687  11.646   3.115  14.049
15305SOL     OW47688   8.475   8.439  11.678
15305SOL    HW147689   8.398   8.420  11.624
15305SOL    HW247690   8.468   8.377  11.751
15306SOL     OW47691   6.498  13.965  14.827
15306SOL    HW147692   6.513  14.059  14.817
15306SOL    HW247693   6.413  13.958  14.871
15307SOL     OW47694   0.554   2.844   6.080
15307SOL    HW147695   0.611   2.814   6.009
15307SOL    HW247696   0.517   2.764   6.116
15308SOL     OW47697   7.863   5.288  12.524
15308SOL    HW147698   7.944   5.329  12.555
15308SOL    HW247699   7.886   5.196  12.512
15309SOL     OW47700   9.380   9.075   0.908
15309SOL    HW147701   9.431   9.106   0.833
15309SOL    HW247702   9.290   9.073   0.877
15310SOL     OW47703  10.914  13.333   9.468
15310SOL    HW147704  11.007  13.345   9.484
15310SOL    HW247705  10.890  13.255   9.519
15311SOL     OW47706  14.744   3.869  11.239
15311SOL    HW147707  14.703   3.928  11.303
15311SOL    HW247708  14.718   3.904  11.154
15312SOL     OW47709   5.403   2.004   8.426
15312SOL    HW147710   5.421   2.094   8.450
15312SOL    HW247711   5.361   1.966   8.503
15313SOL     OW47712   0.148   1.297   1.970
15313SOL    HW147713   0.086   1.305   2.043
15313SOL    HW247714   0.174   1.205   1.970
15314SOL     OW47715   4.909  10.831  14.441
15314SOL    HW147716   4.979  10.892  14.464
15314SOL    HW247717   4.888  10.786  14.522
15315SOL     OW47718  10.937  10.251   0.710
15315SOL    HW147719  10.857  10.301   0.692
15315SOL    HW247720  10.935  10.179   0.647
15316SOL     OW47721   1.371   1.731   0.062
15316SOL    HW147722   1.321   1.719   0.143
15316SOL    HW247723   1.452   1.772   0.089
15317SOL     OW47724   9.881  12.684  11.170
15317SOL    HW147725   9.806  12.625  11.180
15317SOL    HW247726   9.904  12.709  11.259
15318SOL     OW47727   0.908   4.936  14.061
15318SOL    HW147728   0.997   4.961  14.033
15318SOL    HW247729   0.877   4.877  13.992
15319SOL     OW47730   6.328   0.648  12.657
15319SOL    HW147731   6.273   0.713  12.614
15319SOL    HW247732   6.417   0.668  12.626
15320SOL     OW47733   2.464  10.731   9.632
15320SOL    HW147734   2.390  10.752   9.576
15320SOL    HW247735   2.532  10.794   9.607
15321SOL     OW47736   6.636   2.972   7.116
15321SOL    HW147737   6.615   3.004   7.204
15321SOL    HW247738   6.687   3.043   7.077
15322SOL     OW47739   6.997  14.355  12.769
15322SOL    HW147740   7.029  14.265  12.772
15322SOL    HW247741   6.929  14.354  12.702
15323SOL     OW47742  14.611   5.552  14.359
15323SOL    HW147743  14.608   5.479  14.297
15323SOL    HW247744  14.614   5.509  14.445
15324SOL     OW47745   2.168  13.251  14.180
15324SOL    HW147746   2.262  13.234  14.181
15324SOL    HW247747   2.147  13.268  14.088
15325SOL     OW47748   7.978  10.957   2.448
15325SOL    HW147749   8.061  10.928   2.409
15325SOL    HW247750   7.911  10.926   2.388
15326SOL     OW47751  11.642   2.014  10.572
15326SOL    HW147752  11.559   2.061  10.566
15326SOL    HW247753  11.648   1.966  10.489
15327SOL     OW47754   2.726   4.507   7.374
15327SOL    HW147755   2.701   4.466   7.291
15327SOL    HW247756   2.660   4.477   7.436
15328SOL     OW47757   3.203  12.427  14.426
15328SOL    HW147758   3.269  12.367  14.394
15328SOL    HW247759   3.240  12.514  14.412
15329SOL     OW47760   9.090  10.982   3.224
15329SOL    HW147761   9.051  10.922   3.288
15329SOL    HW247762   9.046  11.066   3.240
15330SOL     OW47763   8.036  12.259   4.847
15330SOL    HW147764   7.961  12.206   4.874
15330SOL    HW247765   7.999  12.344   4.824
15331SOL     OW47766   1.042   8.270   2.820
15331SOL    HW147767   0.947   8.262   2.817
15331SOL    HW247768   1.063   8.269   2.914
15332SOL     OW47769   3.423  12.354   5.192
15332SOL    HW147770   3.467  12.413   5.130
15332SOL    HW247771   3.349  12.406   5.225
15333SOL     OW47772  12.873  12.151   7.768
15333SOL    HW147773  12.957  12.177   7.728
15333SOL    HW247774  12.856  12.063   7.734
15334SOL     OW47775   9.772   0.934  13.370
15334SOL    HW147776   9.767   0.929  13.466
15334SOL    HW247777   9.681   0.945  13.342
15335SOL     OW47778   9.274   3.555  11.424
15335SOL    HW147779   9.282   3.462  11.406
15335SOL    HW247780   9.256   3.595  11.339
15336SOL     OW47781   9.150  13.522   4.630
15336SOL    HW147782   9.198  13.534   4.712
15336SOL    HW247783   9.146  13.427   4.619
15337SOL     OW47784   7.997  14.293   9.684
15337SOL    HW147785   7.945  14.270   9.761
15337SOL    HW247786   8.024  14.384   9.699
15338SOL     OW47787   4.944  11.508   2.673
15338SOL    HW147788   4.999  11.573   2.717
15338SOL    HW247789   5.004  11.457   2.619
15339SOL     OW47790  12.600   6.893   4.613
15339SOL    HW147791  12.644   6.919   4.693
15339SOL    HW247792  12.651   6.818   4.581
15340SOL     OW47793  11.037   4.724   5.216
15340SOL    HW147794  10.978   4.653   5.192
15340SOL    HW247795  11.006   4.752   5.302
15341SOL     OW47796   9.690  12.957  13.346
15341SOL    HW147797   9.700  12.972  13.440
15341SOL    HW247798   9.597  12.937  13.334
15342SOL     OW47799   9.726   3.517   1.746
15342SOL    HW147800   9.733   3.537   1.653
15342SOL    HW247801   9.810   3.544   1.784
15343SOL     OW47802  12.055   8.982  12.821
15343SOL    HW147803  12.024   8.897  12.853
15343SOL    HW247804  12.002   9.046  12.869
15344SOL     OW47805   7.287  10.759   4.358
15344SOL    HW147806   7.337  10.818   4.301
15344SOL    HW247807   7.346  10.741   4.431
15345SOL     OW47808  10.166   5.204   8.362
15345SOL    HW147809  10.228   5.155   8.416
15345SOL    HW247810  10.186   5.296   8.379
15346SOL     OW47811   3.811   1.696   1.904
15346SOL    HW147812   3.870   1.732   1.970
15346SOL    HW247813   3.824   1.601   1.910
15347SOL     OW47814  10.885  12.306  10.236
15347SOL    HW147815  10.940  12.383  10.224
15347SOL    HW247816  10.942  12.242  10.279
15348SOL     OW47817   7.739  11.349   5.668
15348SOL    HW147818   7.654  11.322   5.634
15348SOL    HW247819   7.759  11.283   5.736
15349SOL     OW47820   8.335   5.869   5.473
15349SOL    HW147821   8.395   5.832   5.538
15349SOL    HW247822   8.288   5.938   5.520
15350SOL     OW47823  11.690   5.324   6.470
15350SOL    HW147824  11.600   5.293   6.472
15350SOL    HW247825  11.710   5.333   6.377
15351SOL     OW47826  13.884  12.475   1.609
15351SOL    HW147827  13.843  12.388   1.617
15351SOL    HW247828  13.916  12.478   1.519
15352SOL     OW47829  12.159   4.481   2.097
15352SOL    HW147830  12.066   4.503   2.088
15352SOL    HW247831  12.165   4.435   2.181
15353SOL     OW47832  10.023   9.155  11.519
15353SOL    HW147833  10.039   9.249  11.525
15353SOL    HW247834  10.093   9.115  11.571
15354SOL     OW47835  12.810  14.493   7.217
15354SOL    HW147836  12.871  14.472   7.147
15354SOL    HW247837  12.736  14.536   7.174
15355SOL     OW47838   7.250   6.477  13.432
15355SOL    HW147839   7.243   6.531  13.511
15355SOL    HW247840   7.198   6.524  13.367
15356SOL     OW47841   6.218  13.897  10.637
15356SOL    HW147842   6.262  13.869  10.557
15356SOL    HW247843   6.209  13.992  10.627
15357SOL     OW47844   4.182   5.992   7.482
15357SOL    HW147845   4.257   6.016   7.427
15357SOL    HW247846   4.156   6.074   7.524
15358SOL     OW47847   3.039   8.063  11.581
15358SOL    HW147848   3.046   8.101  11.494
15358SOL    HW247849   3.125   8.024  11.597
15359SOL     OW47850   2.381  13.073   4.545
15359SOL    HW147851   2.326  13.134   4.495
15359SOL    HW247852   2.321  13.031   4.607
15360SOL     OW47853   2.811   9.953   6.407
15360SOL    HW147854   2.820  10.033   6.457
15360SOL    HW247855   2.722   9.956   6.372
15361SOL     OW47856   2.246  13.989  12.550
15361SOL    HW147857   2.250  14.084  12.562
15361SOL    HW247858   2.302  13.954  12.620
15362SOL     OW47859  14.169   5.333   2.236
15362SOL    HW147860  14.102   5.265   2.225
15362SOL    HW247861  14.222   5.326   2.156
15363SOL     OW47862   6.269  10.605   2.044
15363SOL    HW147863   6.306  10.574   2.126
15363SOL    HW247864   6.183  10.562   2.039
15364SOL     OW47865   7.727   7.035   6.759
15364SOL    HW147866   7.705   6.994   6.676
15364SOL    HW247867   7.780   7.111   6.735
15365SOL     OW47868   5.468   7.843  11.312
15365SOL    HW147869   5.483   7.855  11.219
15365SOL    HW247870   5.533   7.898  11.355
15366SOL     OW47871   8.023   4.795   9.156
15366SOL    HW147872   8.028   4.705   9.187
15366SOL    HW247873   7.975   4.841   9.225
15367SOL     OW47874   6.081   4.320   4.340
15367SOL    HW147875   6.103   4.279   4.423
15367SOL    HW247876   6.161   4.314   4.288
15368SOL     OW47877   1.991  10.170   6.961
15368SOL    HW147878   2.086  10.181   6.965
15368SOL    HW247879   1.959  10.254   6.928
15369SOL     OW47880   4.627   4.989  12.212
15369SOL    HW147881   4.700   4.958  12.266
15369SOL    HW247882   4.608   5.077  12.246
15370SOL     OW47883   8.084   3.977   6.646
15370SOL    HW147884   8.044   4.046   6.700
15370SOL    HW247885   8.025   3.902   6.657
15371SOL     OW47886   6.863   3.579  14.715
15371SOL    HW147887   6.942   3.545  14.673
15371SOL    HW247888   6.809   3.611  14.642
15372SOL     OW47889  13.230   0.911   4.718
15372SOL    HW147890  13.228   1.007   4.723
15372SOL    HW247891  13.161   0.889   4.655
15373SOL     OW47892  12.179  10.022   1.223
15373SOL    HW147893  12.218  10.072   1.151
15373SOL    HW247894  12.115  10.082   1.261
15374SOL     OW47895  11.099  14.568  13.250
15374SOL    HW147896  11.030  14.516  13.210
15374SOL    HW247897  11.140  14.615  13.177
15375SOL     OW47898   1.738   9.917   6.916
15375SOL    HW147899   1.653   9.907   6.873
15375SOL    HW247900   1.735  10.004   6.956
15376SOL     OW47901  10.958  12.022  13.593
15376SOL    HW147902  10.872  12.057  13.615
15376SOL    HW247903  11.018  12.065  13.654
15377SOL     OW47904   1.563   2.207   0.009
15377SOL    HW147905   1.647   2.162   0.012
15377SOL    HW247906   1.536   2.212   0.101
15378SOL     OW47907   3.230   8.930   7.392
15378SOL    HW147908   3.163   8.928   7.325
15378SOL    HW247909   3.188   8.895   7.470
15379SOL     OW47910  10.809   7.965  14.067
15379SOL    HW147911  10.762   7.923  13.996
15379SOL    HW247912  10.775   8.054  14.070
15380SOL     OW47913   4.830  10.860   7.406
15380SOL    HW147914   4.830  10.956   7.401
15380SOL    HW247915   4.873  10.832   7.325
15381SOL     OW47916   5.184  10.960   1.224
15381SOL    HW147917   5.186  11.041   1.275
15381SOL    HW247918   5.128  10.901   1.276
15382SOL     OW47919   5.239   3.495   0.880
15382SOL    HW147920   5.215   3.420   0.826
15382SOL    HW247921   5.163   3.553   0.877
15383SOL     OW47922   3.754   0.316  11.633
15383SOL    HW147923   3.663   0.302  11.659
15383SOL    HW247924   3.762   0.411  11.626
15384SOL     OW47925   6.674  13.589   1.941
15384SOL    HW147926   6.664  13.683   1.927
15384SOL    HW247927   6.768  13.575   1.953
15385SOL     OW47928   8.912  13.017  13.583
15385SOL    HW147929   8.947  12.932  13.555
15385SOL    HW247930   8.876  13.000  13.670
15386SOL     OW47931  12.841  12.127   8.471
15386SOL    HW147932  12.852  12.210   8.424
15386SOL    HW247933  12.862  12.060   8.406
15387SOL     OW47934  12.178   7.893   4.189
15387SOL    HW147935  12.146   7.804   4.203
15387SOL    HW247936  12.271   7.890   4.214
15388SOL     OW47937  12.810   6.143   1.768
15388SOL    HW147938  12.858   6.070   1.806
15388SOL    HW247939  12.866   6.173   1.696
15389SOL     OW47940   9.629   5.536   1.612
15389SOL    HW147941   9.547   5.500   1.578
15389SOL    HW247942   9.691   5.463   1.607
15390SOL     OW47943  10.419   7.432   3.486
15390SOL    HW147944  10.332   7.456   3.516
15390SOL    HW247945  10.429   7.479   3.403
15391SOL     OW47946   4.436   3.009  11.797
15391SOL    HW147947   4.456   2.935  11.740
15391SOL    HW247948   4.459   3.086  11.745
15392SOL     OW47949   5.100  14.475  11.200
15392SOL    HW147950   5.122  14.516  11.283
15392SOL    HW247951   5.184  14.457  11.158
15393SOL     OW47952  14.140   0.531   4.504
15393SOL    HW147953  14.106   0.452   4.545
15393SOL    HW247954  14.190   0.575   4.573
15394SOL     OW47955   7.638   1.625   4.391
15394SOL    HW147956   7.599   1.649   4.306
15394SOL    HW247957   7.623   1.531   4.398
15395SOL     OW47958  13.782   1.986  12.056
15395SOL    HW147959  13.792   1.949  12.143
15395SOL    HW247960  13.816   2.076  12.064
15396SOL     OW47961   4.813  11.846   8.355
15396SOL    HW147962   4.739  11.790   8.378
15396SOL    HW247963   4.836  11.819   8.266
15397SOL     OW47964   9.269  10.790   7.385
15397SOL    HW147965   9.199  10.854   7.394
15397SOL    HW247966   9.240  10.731   7.316
15398SOL     OW47967  14.161   4.179  11.888
15398SOL    HW147968  14.117   4.238  11.948
15398SOL    HW247969  14.109   4.099  11.891
15399SOL     OW47970   8.329   8.147  10.343
15399SOL    HW147971   8.321   8.232  10.300
15399SOL    HW247972   8.282   8.087  10.286
15400SOL     OW47973   6.784   5.849   0.427
15400SOL    HW147974   6.863   5.828   0.377
15400SOL    HW247975   6.814   5.852   0.518
15401SOL     OW47976   6.617   8.362   2.724
15401SOL    HW147977   6.535   8.389   2.765
15401SOL    HW247978   6.598   8.362   2.630
15402SOL     OW47979   4.449   9.795   5.127
15402SOL    HW147980   4.408   9.869   5.171
15402SOL    HW247981   4.533   9.785   5.171
15403SOL     OW47982   9.993  10.607  10.741
15403SOL    HW147983   9.937  10.675  10.704
15403SOL    HW247984  10.048  10.578  10.668
15404SOL     OW47985   4.989  12.505   4.828
15404SOL    HW147986   5.064  12.475   4.880
15404SOL    HW247987   5.015  12.489   4.737
15405SOL     OW47988   5.976   9.421  14.114
15405SOL    HW147989   5.894   9.420  14.065
15405SOL    HW247990   5.993   9.329  14.133
15406SOL     OW47991   5.519   6.808   7.542
15406SOL    HW147992   5.523   6.851   7.627
15406SOL    HW247993   5.599   6.755   7.538
15407SOL     OW47994   9.777  10.848   4.911
15407SOL    HW147995   9.725  10.928   4.904
15407SOL    HW247996   9.775  10.810   4.823
15408SOL     OW47997   2.734  14.609   0.337
15408SOL    HW147998   2.685  14.549   0.393
15408SOL    HW247999   2.748  14.686   0.392
15409SOL     OW48000  10.228   2.082   8.642
15409SOL    HW148001  10.174   2.025   8.587
15409SOL    HW248002  10.318   2.065   8.613
15410SOL     OW48003   8.062   4.269  14.851
15410SOL    HW148004   8.152   4.273   0.005
15410SOL    HW248005   8.013   4.230   0.045
15411SOL     OW48006   3.702   7.646   6.678
15411SOL    HW148007   3.667   7.621   6.764
15411SOL    HW248008   3.628   7.688   6.633
15412SOL     OW48009   2.154   9.487   7.034
15412SOL    HW148010   2.094   9.484   7.109
15412SOL    HW248011   2.193   9.400   7.032
15413SOL     OW48012   3.281   6.926   1.734
15413SOL    HW148013   3.312   6.949   1.822
15413SOL    HW248014   3.201   6.977   1.723
15414SOL     OW48015  13.985   3.578   8.443
15414SOL    HW148016  13.925   3.581   8.517
15414SOL    HW248017  14.067   3.613   8.477
15415SOL     OW48018  14.718   3.229   3.518
15415SOL    HW148019  14.710   3.135   3.535
15415SOL    HW248020  14.809   3.241   3.493
15416SOL     OW48021   6.691   5.684   3.686
15416SOL    HW148022   6.595   5.676   3.693
15416SOL    HW248023   6.704   5.760   3.630
15417SOL     OW48024   7.011   1.487  11.715
15417SOL    HW148025   6.938   1.537  11.678
15417SOL    HW248026   6.971   1.404  11.743
15418SOL     OW48027   8.792  14.866   6.745
15418SOL    HW148028   8.742  14.851   6.664
15418SOL    HW248029   8.818  14.778   6.773
15419SOL     OW48030   9.734   2.676   4.568
15419SOL    HW148031   9.830   2.679   4.564
15419SOL    HW248032   9.705   2.739   4.502
15420SOL     OW48033   2.681   2.826   4.193
15420SOL    HW148034   2.731   2.787   4.121
15420SOL    HW248035   2.624   2.891   4.151
15421SOL     OW48036   9.348   3.006  10.168
15421SOL    HW148037   9.314   2.936  10.111
15421SOL    HW248038   9.434   3.026  10.132
15422SOL     OW48039  13.256   2.873   8.977
15422SOL    HW148040  13.169   2.904   8.953
15422SOL    HW248041  13.297   2.849   8.894
15423SOL     OW48042   5.553  12.768   6.675
15423SOL    HW148043   5.535  12.674   6.673
15423SOL    HW248044   5.473  12.809   6.641
15424SOL     OW48045   6.610  10.884   9.361
15424SOL    HW148046   6.516  10.900   9.356
15424SOL    HW248047   6.644  10.916   9.277
15425SOL     OW48048   0.332  11.186  10.456
15425SOL    HW148049   0.415  11.213  10.418
15425SOL    HW248050   0.271  11.185  10.382
15426SOL     OW48051   8.951   5.742  14.400
15426SOL    HW148052   8.981   5.828  14.370
15426SOL    HW248053   8.989   5.734  14.488
15427SOL     OW48054  12.528  14.355   7.691
15427SOL    HW148055  12.531  14.446   7.722
15427SOL    HW248056  12.599  14.349   7.627
15428SOL     OW48057   9.227   8.490  10.790
15428SOL    HW148058   9.223   8.501  10.695
15428SOL    HW248059   9.229   8.395  10.803
15429SOL     OW48060   2.951   1.120   8.282
15429SOL    HW148061   3.021   1.125   8.216
15429SOL    HW248062   2.966   1.036   8.326
15430SOL     OW48063   4.666   0.128   1.356
15430SOL    HW148064   4.684   0.196   1.420
15430SOL    HW248065   4.739   0.067   1.364
15431SOL     OW48066   0.292   2.023   2.039
15431SOL    HW148067   0.329   2.108   2.062
15431SOL    HW248068   0.335   1.997   1.958
15432SOL     OW48069   5.879   2.510   4.024
15432SOL    HW148070   5.840   2.461   3.951
15432SOL    HW248071   5.971   2.517   4.001
15433SOL     OW48072   2.067  14.146  14.383
15433SOL    HW148073   2.153  14.132  14.424
15433SOL    HW248074   2.005  14.134  14.454
15434SOL     OW48075   0.776   6.281   6.175
15434SOL    HW148076   0.799   6.337   6.250
15434SOL    HW248077   0.839   6.209   6.179
15435SOL     OW48078   9.836   4.698   6.934
15435SOL    HW148079   9.871   4.747   6.859
15435SOL    HW248080   9.913   4.662   6.977
15436SOL     OW48081   6.989   6.274   2.590
15436SOL    HW148082   6.994   6.354   2.642
15436SOL    HW248083   7.001   6.203   2.654
15437SOL     OW48084   0.748   1.522   0.777
15437SOL    HW148085   0.718   1.491   0.863
15437SOL    HW248086   0.760   1.442   0.725
15438SOL     OW48087   5.220   1.848   7.945
15438SOL    HW148088   5.284   1.799   7.996
15438SOL    HW248089   5.213   1.933   7.990
15439SOL     OW48090   4.212  12.399  11.136
15439SOL    HW148091   4.134  12.442  11.102
15439SOL    HW248092   4.221  12.433  11.225
15440SOL     OW48093   4.528  10.493   6.584
15440SOL    HW148094   4.568  10.444   6.512
15440SOL    HW248095   4.435  10.472   6.578
15441SOL     OW48096  11.026  10.812  14.385
15441SOL    HW148097  11.043  10.830  14.293
15441SOL    HW248098  11.008  10.899  14.423
15442SOL     OW48099   7.246  14.423   8.541
15442SOL    HW148100   7.246  14.416   8.636
15442SOL    HW248101   7.161  14.390   8.514
15443SOL     OW48102   7.885   6.402   3.915
15443SOL    HW148103   7.860   6.328   3.860
15443SOL    HW248104   7.875   6.371   4.005
15444SOL     OW48105  13.880  13.982  11.612
15444SOL    HW148106  13.911  13.969  11.701
15444SOL    HW248107  13.957  13.967  11.557
15445SOL     OW48108  12.787   2.504  13.817
15445SOL    HW148109  12.795   2.548  13.732
15445SOL    HW248110  12.844   2.428  13.810
15446SOL     OW48111  13.186   8.589   1.812
15446SOL    HW148112  13.276   8.574   1.783
15446SOL    HW248113  13.138   8.609   1.733
15447SOL     OW48114  12.940   1.999  12.409
15447SOL    HW148115  12.942   2.060  12.334
15447SOL    HW248116  13.031   1.974  12.421
15448SOL     OW48117  14.687   1.482  13.606
15448SOL    HW148118  14.727   1.545  13.547
15448SOL    HW248119  14.759   1.451  13.661
15449SOL     OW48120   6.455  12.274  11.402
15449SOL    HW148121   6.492  12.215  11.467
15449SOL    HW248122   6.487  12.241  11.318
15450SOL     OW48123  12.130   7.971  14.175
15450SOL    HW148124  12.208   7.921  14.154
15450SOL    HW248125  12.075   7.910  14.225
15451SOL     OW48126  12.750  11.452   2.088
15451SOL    HW148127  12.710  11.443   2.175
15451SOL    HW248128  12.785  11.365   2.070
15452SOL     OW48129   7.379   0.510   4.486
15452SOL    HW148130   7.471   0.534   4.478
15452SOL    HW248131   7.333   0.565   4.423
15453SOL     OW48132   4.054   2.444   1.640
15453SOL    HW148133   3.989   2.485   1.583
15453SOL    HW248134   4.071   2.509   1.708
15454SOL     OW48135   6.439   4.142  13.614
15454SOL    HW148136   6.396   4.225  13.631
15454SOL    HW248137   6.368   4.078  13.612
15455SOL     OW48138   4.820   3.531   7.789
15455SOL    HW148139   4.802   3.472   7.863
15455SOL    HW248140   4.915   3.541   7.790
15456SOL     OW48141  14.675   5.358   1.649
15456SOL    HW148142  14.635   5.444   1.657
15456SOL    HW248143  14.607   5.304   1.608
15457SOL     OW48144   8.503   8.313   0.741
15457SOL    HW148145   8.516   8.373   0.815
15457SOL    HW248146   8.429   8.350   0.693
15458SOL     OW48147   8.821   2.593  13.602
15458SOL    HW148148   8.900   2.549  13.632
15458SOL    HW248149   8.751   2.530  13.619
15459SOL     OW48150   7.810  14.499   9.339
15459SOL    HW148151   7.846  14.582   9.306
15459SOL    HW248152   7.763  14.524   9.418
15460SOL     OW48153  13.912   8.624   0.817
15460SOL    HW148154  13.988   8.681   0.817
15460SOL    HW248155  13.860   8.653   0.893
15461SOL     OW48156   4.004  11.201   8.583
15461SOL    HW148157   4.030  11.136   8.518
15461SOL    HW248158   4.086  11.242   8.609
15462SOL     OW48159   0.760   0.789   6.537
15462SOL    HW148160   0.808   0.819   6.460
15462SOL    HW248161   0.691   0.733   6.502
15463SOL     OW48162  10.821   0.323  10.470
15463SOL    HW148163  10.788   0.288  10.553
15463SOL    HW248164  10.826   0.418  10.485
15464SOL     OW48165   1.426   1.315   0.567
15464SOL    HW148166   1.513   1.356   0.570
15464SOL    HW248167   1.368   1.379   0.607
15465SOL     OW48168  12.191  14.133   4.387
15465SOL    HW148169  12.218  14.042   4.379
15465SOL    HW248170  12.115  14.141   4.330
15466SOL     OW48171   3.211  13.137  11.293
15466SOL    HW148172   3.202  13.084  11.214
15466SOL    HW248173   3.273  13.205  11.270
15467SOL     OW48174   3.144   8.788   6.551
15467SOL    HW148175   3.059   8.752   6.579
15467SOL    HW248176   3.177   8.724   6.488
15468SOL     OW48177   1.449   3.924   7.169
15468SOL    HW148178   1.418   3.918   7.079
15468SOL    HW248179   1.388   3.869   7.219
15469SOL     OW48180   8.238   0.031   7.752
15469SOL    HW148181   8.306  14.844   7.772
15469SOL    HW248182   8.157  14.858   7.749
15470SOL     OW48183   4.364   8.134   9.303
15470SOL    HW148184   4.272   8.115   9.317
15470SOL    HW248185   4.366   8.223   9.268
15471SOL     OW48186  10.091   1.781   7.763
15471SOL    HW148187  10.035   1.825   7.699
15471SOL    HW248188  10.039   1.706   7.793
15472SOL     OW48189  13.823  13.321  11.043
15472SOL    HW148190  13.799  13.379  11.115
15472SOL    HW248191  13.916  13.338  11.029
15473SOL     OW48192   6.812   9.535   1.723
15473SOL    HW148193   6.776   9.460   1.676
15473SOL    HW248194   6.812   9.606   1.659
15474SOL     OW48195   8.842   5.301   3.512
15474SOL    HW148196   8.880   5.214   3.502
15474SOL    HW248197   8.862   5.345   3.429
15475SOL     OW48198   3.092  11.165   5.077
15475SOL    HW148199   3.184  11.139   5.079
15475SOL    HW248200   3.076  11.205   5.163
15476SOL     OW48201  12.105   5.018   1.800
15476SOL    HW148202  12.114   5.064   1.716
15476SOL    HW248203  12.122   5.086   1.866
15477SOL     OW48204  10.596   5.336   3.436
15477SOL    HW148205  10.569   5.424   3.462
15477SOL    HW248206  10.691   5.335   3.451
15478SOL     OW48207   6.003  14.744   9.509
15478SOL    HW148208   5.937  14.700   9.456
15478SOL    HW248209   5.981  14.722   9.599
15479SOL     OW48210  10.353   0.558   6.975
15479SOL    HW148211  10.351   0.647   6.939
15479SOL    HW248212  10.262   0.540   7.000
15480SOL     OW48213   0.435   7.019   6.401
15480SOL    HW148214   0.440   6.959   6.476
15480SOL    HW248215   0.343   7.019   6.376
15481SOL     OW48216   6.595  13.932   0.327
15481SOL    HW148217   6.515  13.896   0.288
15481SOL    HW248218   6.594  14.024   0.303
15482SOL     OW48219  12.970   7.989   2.780
15482SOL    HW148220  12.924   8.008   2.862
15482SOL    HW248221  13.057   7.961   2.807
15483SOL     OW48222   5.100  11.606   9.197
15483SOL    HW148223   5.154  11.660   9.255
15483SOL    HW248224   5.139  11.519   9.203
15484SOL     OW48225   1.260  13.607   0.789
15484SOL    HW148226   1.305  13.653   0.718
15484SOL    HW248227   1.331  13.563   0.837
15485SOL     OW48228  14.620   2.953   8.705
15485SOL    HW148229  14.534   2.966   8.743
15485SOL    HW248230  14.651   3.041   8.684
15486SOL     OW48231   7.128  13.749   5.533
15486SOL    HW148232   7.056  13.703   5.575
15486SOL    HW248233   7.104  13.752   5.440
15487SOL     OW48234  13.827  13.231   0.389
15487SOL    HW148235  13.885  13.292   0.435
15487SOL    HW248236  13.848  13.244   0.296
15488SOL     OW48237  12.218  10.000  14.571
15488SOL    HW148238  12.226  10.026  14.662
15488SOL    HW248239  12.132   9.959  14.565
15489SOL     OW48240   5.822   0.434  11.491
15489SOL    HW148241   5.790   0.352  11.530
15489SOL    HW248242   5.791   0.502  11.551
15490SOL     OW48243  14.574   3.645  10.083
15490SOL    HW148244  14.540   3.557  10.069
15490SOL    HW248245  14.637   3.635  10.155
15491SOL     OW48246  10.940   0.258   7.195
15491SOL    HW148247  10.929   0.292   7.283
15491SOL    HW248248  10.885   0.179   7.192
15492SOL     OW48249   1.162  12.831   2.831
15492SOL    HW148250   1.121  12.896   2.774
15492SOL    HW248251   1.253  12.826   2.801
15493SOL     OW48252  14.779  11.618  12.422
15493SOL    HW148253  14.797  11.539  12.473
15493SOL    HW248254  14.685  11.634  12.436
15494SOL     OW48255   8.473   6.021  13.991
15494SOL    HW148256   8.526   6.082  13.940
15494SOL    HW248257   8.475   5.939  13.942
15495SOL     OW48258   0.606  14.632   1.497
15495SOL    HW148259   0.539  14.615   1.431
15495SOL    HW248260   0.647  14.547   1.512
15496SOL     OW48261  13.412  11.386  13.486
15496SOL    HW148262  13.379  11.331  13.415
15496SOL    HW248263  13.489  11.429  13.449
15497SOL     OW48264   0.045  12.342   0.761
15497SOL    HW148265   0.093  12.259   0.756
15497SOL    HW248266   0.045  12.364   0.854
15498SOL     OW48267  12.936  13.427   4.825
15498SOL    HW148268  13.004  13.417   4.758
15498SOL    HW248269  12.897  13.340   4.833
15499SOL     OW48270   9.753   3.497   7.489
15499SOL    HW148271   9.824   3.467   7.546
15499SOL    HW248272   9.793   3.561   7.431
15500SOL     OW48273   7.727   4.559  13.257
15500SOL    HW148274   7.652   4.617  13.254
15500SOL    HW248275   7.803   4.617  13.252
15501SOL     OW48276  12.935   3.282  10.650
15501SOL    HW148277  13.013   3.227  10.652
15501SOL    HW248278  12.929   3.319  10.738
15502SOL     OW48279  11.530   2.551   3.333
15502SOL    HW148280  11.602   2.611   3.348
15502SOL    HW248281  11.518   2.505   3.416
15503SOL     OW48282   9.475  14.147   9.201
15503SOL    HW148283   9.569  14.155   9.211
15503SOL    HW248284   9.444  14.238   9.193
15504SOL     OW48285   3.067   4.182   8.188
15504SOL    HW148286   3.147   4.215   8.147
15504SOL    HW248287   3.001   4.249   8.168
15505SOL     OW48288  10.457   9.572   1.238
15505SOL    HW148289  10.362   9.585   1.228
15505SOL    HW248290  10.474   9.592   1.330
15506SOL     OW48291  14.289   6.384   0.086
15506SOL    HW148292  14.328   6.314   0.033
15506SOL    HW248293  14.206   6.347   0.116
15507SOL     OW48294  13.424  14.301   6.827
15507SOL    HW148295  13.414  14.396   6.813
15507SOL    HW248296  13.518  14.288   6.836
15508SOL     OW48297   8.255  13.213  14.300
15508SOL    HW148298   8.304  13.204  14.381
15508SOL    HW248299   8.165  13.232  14.327
15509SOL     OW48300   8.618  14.350   1.017
15509SOL    HW148301   8.612  14.433   0.970
15509SOL    HW248302   8.560  14.360   1.092
15510SOL     OW48303   6.247  13.734   3.947
15510SOL    HW148304   6.273  13.752   3.857
15510SOL    HW248305   6.208  13.647   3.944
15511SOL     OW48306   7.812   2.963   8.800
15511SOL    HW148307   7.785   2.886   8.848
15511SOL    HW248308   7.895   2.939   8.760
15512SOL     OW48309   8.228   3.337   7.124
15512SOL    HW148310   8.198   3.373   7.207
15512SOL    HW248311   8.245   3.245   7.141
15513SOL     OW48312  11.057   5.693   6.431
15513SOL    HW148313  10.995   5.766   6.430
15513SOL    HW248314  11.008   5.619   6.396
15514SOL     OW48315   7.226   1.314   1.756
15514SOL    HW148316   7.284   1.387   1.732
15514SOL    HW248317   7.285   1.242   1.776
15515SOL     OW48318  10.133  11.852   8.298
15515SOL    HW148319  10.084  11.865   8.379
15515SOL    HW248320  10.079  11.892   8.231
15516SOL     OW48321   8.097   3.175  12.336
15516SOL    HW148322   8.100   3.192  12.430
15516SOL    HW248323   8.115   3.081  12.329
15517SOL     OW48324  13.510  13.602   1.748
15517SOL    HW148325  13.602  13.577   1.735
15517SOL    HW248326  13.498  13.597   1.843
15518SOL     OW48327   0.722  12.004   6.785
15518SOL    HW148328   0.789  12.000   6.717
15518SOL    HW248329   0.656  12.064   6.749
15519SOL     OW48330  10.523   4.380   4.579
15519SOL    HW148331  10.574   4.462   4.575
15519SOL    HW248332  10.583   4.318   4.621
15520SOL     OW48333   1.983   5.188   9.450
15520SOL    HW148334   1.976   5.093   9.453
15520SOL    HW248335   2.073   5.205   9.422
15521SOL     OW48336   9.276  13.208  10.977
15521SOL    HW148337   9.213  13.268  10.936
15521SOL    HW248338   9.359  13.254  10.971
15522SOL     OW48339   7.845   2.377   7.624
15522SOL    HW148340   7.860   2.372   7.718
15522SOL    HW248341   7.756   2.343   7.612
15523SOL     OW48342   4.311   4.110   9.963
15523SOL    HW148343   4.333   4.184   9.907
15523SOL    HW248344   4.263   4.050   9.905
15524SOL     OW48345   8.021   9.595  13.960
15524SOL    HW148346   8.097   9.562  13.911
15524SOL    HW248347   8.014   9.536  14.035
15525SOL     OW48348  13.972   3.140   7.754
15525SOL    HW148349  13.908   3.120   7.823
15525SOL    HW248350  13.958   3.233   7.735
15526SOL     OW48351   2.514   6.401   2.953
15526SOL    HW148352   2.597   6.392   2.907
15526SOL    HW248353   2.509   6.324   3.009
15527SOL     OW48354   1.826  10.121   2.761
15527SOL    HW148355   1.741  10.122   2.805
15527SOL    HW248356   1.886  10.164   2.822
15528SOL     OW48357   2.388  14.787   6.078
15528SOL    HW148358   2.394  14.725   6.006
15528SOL    HW248359   2.445  14.751   6.146
15529SOL     OW48360   6.838   0.803   6.949
15529SOL    HW148361   6.910   0.866   6.950
15529SOL    HW248362   6.880   0.718   6.964
15530SOL     OW48363   9.142  12.530   5.103
15530SOL    HW148364   9.203  12.457   5.112
15530SOL    HW248365   9.199  12.607   5.100
15531SOL     OW48366   9.187   3.169  14.014
15531SOL    HW148367   9.156   3.259  14.018
15531SOL    HW248368   9.113   3.117  14.047
15532SOL     OW48369   0.851   0.465   7.687
15532SOL    HW148370   0.876   0.525   7.757
15532SOL    HW248371   0.763   0.492   7.662
15533SOL     OW48372   9.699   8.601   1.006
15533SOL    HW148373   9.704   8.618   1.100
15533SOL    HW248374   9.712   8.506   0.999
15534SOL     OW48375   2.038   3.798   3.224
15534SOL    HW148376   1.973   3.823   3.158
15534SOL    HW248377   1.993   3.811   3.307
15535SOL     OW48378   2.031   0.647   7.181
15535SOL    HW148379   2.105   0.704   7.202
15535SOL    HW248380   1.971   0.703   7.131
15536SOL     OW48381  13.983  11.289  13.964
15536SOL    HW148382  14.011  11.299  14.055
15536SOL    HW248383  14.064  11.291  13.913
15537SOL     OW48384  13.235   5.791   4.937
15537SOL    HW148385  13.210   5.871   4.982
15537SOL    HW248386  13.158   5.768   4.884
15538SOL     OW48387   3.198   9.836   6.091
15538SOL    HW148388   3.250   9.757   6.103
15538SOL    HW248389   3.170   9.860   6.180
15539SOL     OW48390   6.406   4.216  14.175
15539SOL    HW148391   6.440   4.143  14.226
15539SOL    HW248392   6.325   4.183  14.136
15540SOL     OW48393   9.621   1.134   8.000
15540SOL    HW148394   9.537   1.089   8.003
15540SOL    HW248395   9.686   1.065   7.991
15541SOL     OW48396   3.807  11.001   2.587
15541SOL    HW148397   3.832  11.054   2.664
15541SOL    HW248398   3.719  11.031   2.565
15542SOL     OW48399   0.802  12.669  13.622
15542SOL    HW148400   0.783  12.576  13.610
15542SOL    HW248401   0.729  12.713  13.578
15543SOL     OW48402  11.227   1.436   4.275
15543SOL    HW148403  11.218   1.522   4.314
15543SOL    HW248404  11.238   1.453   4.181
15544SOL     OW48405   8.146   4.167   3.006
15544SOL    HW148406   8.220   4.190   3.064
15544SOL    HW248407   8.169   4.080   2.972
15545SOL     OW48408  14.013   9.463   9.640
15545SOL    HW148409  14.081   9.420   9.691
15545SOL    HW248410  14.049   9.549   9.618
15546SOL     OW48411   6.818   8.001   8.958
15546SOL    HW148412   6.888   7.956   9.006
15546SOL    HW248413   6.864   8.059   8.898
15547SOL     OW48414   9.943   8.911  14.480
15547SOL    HW148415   9.942   8.923  14.575
15547SOL    HW248416   9.936   8.999  14.444
15548SOL     OW48417   1.131   9.395  11.971
15548SOL    HW148418   1.202   9.454  11.997
15548SOL    HW248419   1.129   9.400  11.875
15549SOL     OW48420   6.770  14.393  13.932
15549SOL    HW148421   6.806  14.349  13.855
15549SOL    HW248422   6.840  14.452  13.960
15550SOL     OW48423   5.123  11.409  14.171
15550SOL    HW148424   5.076  11.490  14.151
15550SOL    HW248425   5.191  11.404  14.104
15551SOL     OW48426   8.853  10.732  12.372
15551SOL    HW148427   8.937  10.719  12.416
15551SOL    HW248428   8.865  10.811  12.320
15552SOL     OW48429   9.088  13.834   5.621
15552SOL    HW148430   9.001  13.845   5.582
15552SOL    HW248431   9.071  13.825   5.715
15553SOL     OW48432   9.028  13.391   7.170
15553SOL    HW148433   9.048  13.302   7.142
15553SOL    HW248434   8.947  13.383   7.220
15554SOL     OW48435   8.904   1.878   7.301
15554SOL    HW148436   8.935   1.964   7.273
15554SOL    HW248437   8.933   1.819   7.231
15555SOL     OW48438  12.658   4.832   6.603
15555SOL    HW148439  12.610   4.856   6.683
15555SOL    HW248440  12.642   4.738   6.594
15556SOL     OW48441  11.207   1.479  10.079
15556SOL    HW148442  11.154   1.432  10.143
15556SOL    HW248443  11.208   1.569  10.111
15557SOL     OW48444   6.559   2.646   6.536
15557SOL    HW148445   6.587   2.555   6.543
15557SOL    HW248446   6.630   2.697   6.577
15558SOL     OW48447   9.007   3.422   8.550
15558SOL    HW148448   9.091   3.446   8.512
15558SOL    HW248449   8.983   3.496   8.605
15559SOL     OW48450   2.014  13.484   4.581
15559SOL    HW148451   2.032  13.575   4.559
15559SOL    HW248452   2.096  13.451   4.619
15560SOL     OW48453  14.726   4.960   0.865
15560SOL    HW148454  14.786   5.007   0.922
15560SOL    HW248455  14.730   5.007   0.782
15561SOL     OW48456  12.946   6.309   9.688
15561SOL    HW148457  13.006   6.324   9.615
15561SOL    HW248458  12.859   6.319   9.650
15562SOL     OW48459   4.322   7.259   0.357
15562SOL    HW148460   4.299   7.178   0.402
15562SOL    HW248461   4.301   7.242   0.265
15563SOL     OW48462   8.352  12.973   8.261
15563SOL    HW148463   8.272  12.929   8.291
15563SOL    HW248464   8.367  13.041   8.326
15564SOL     OW48465   5.556   0.346   7.325
15564SOL    HW148466   5.544   0.251   7.335
15564SOL    HW248467   5.474   0.376   7.285
15565SOL     OW48468   4.290  11.545   6.278
15565SOL    HW148469   4.293  11.451   6.257
15565SOL    HW248470   4.277  11.588   6.194
15566SOL     OW48471   6.507   6.981  13.659
15566SOL    HW148472   6.586   6.995  13.711
15566SOL    HW248473   6.465   7.067  13.656
15567SOL     OW48474   7.568   0.008   2.289
15567SOL    HW148475   7.539  14.802   2.324
15567SOL    HW248476   7.664   0.006   2.296
15568SOL     OW48477   4.399  12.763   7.305
15568SOL    HW148478   4.322  12.760   7.363
15568SOL    HW248479   4.422  12.856   7.301
15569SOL     OW48480   1.975   9.857  13.559
15569SOL    HW148481   1.900   9.917  13.557
15569SOL    HW248482   2.049   9.911  13.587
15570SOL     OW48483   7.506  11.383   9.424
15570SOL    HW148484   7.571  11.349   9.485
15570SOL    HW248485   7.421  11.361   9.464
15571SOL     OW48486   3.332   3.378  12.906
15571SOL    HW148487   3.404   3.421  12.952
15571SOL    HW248488   3.288   3.448  12.859
15572SOL     OW48489   8.795   2.544  12.913
15572SOL    HW148490   8.718   2.563  12.968
15572SOL    HW248491   8.855   2.498  12.972
15573SOL     OW48492   8.656  12.539  13.669
15573SOL    HW148493   8.729  12.598  13.650
15573SOL    HW248494   8.633  12.501  13.584
15574SOL     OW48495   2.255   4.638  14.698
15574SOL    HW148496   2.177   4.636  14.642
15574SOL    HW248497   2.233   4.579  14.770
15575SOL     OW48498   6.234   5.320   2.581
15575SOL    HW148499   6.279   5.250   2.629
15575SOL    HW248500   6.153   5.334   2.630
15576SOL     OW48501   1.994   7.272   8.457
15576SOL    HW148502   2.067   7.290   8.517
15576SOL    HW248503   1.925   7.333   8.484
15577SOL     OW48504  13.160   1.989   0.560
15577SOL    HW148505  13.155   1.993   0.464
15577SOL    HW248506  13.083   1.939   0.586
15578SOL     OW48507   4.248   4.776   4.571
15578SOL    HW148508   4.228   4.846   4.508
15578SOL    HW248509   4.163   4.752   4.608
15579SOL     OW48510   3.491   4.020   2.922
15579SOL    HW148511   3.458   4.082   2.857
15579SOL    HW248512   3.571   4.061   2.956
15580SOL     OW48513  13.992  10.180   2.443
15580SOL    HW148514  14.069  10.229   2.474
15580SOL    HW248515  13.997  10.096   2.488
15581SOL     OW48516   6.724  11.624   2.054
15581SOL    HW148517   6.645  11.596   2.101
15581SOL    HW248518   6.778  11.545   2.048
15582SOL     OW48519  12.619   7.007   5.603
15582SOL    HW148520  12.694   6.988   5.547
15582SOL    HW248521  12.605   6.926   5.653
15583SOL     OW48522   1.267   5.435   9.916
15583SOL    HW148523   1.219   5.473   9.843
15583SOL    HW248524   1.200   5.389   9.968
15584SOL     OW48525  13.638  13.338  13.966
15584SOL    HW148526  13.695  13.264  13.943
15584SOL    HW248527  13.695  13.397  14.014
15585SOL     OW48528   0.753  14.383   0.425
15585SOL    HW148529   0.798  14.299   0.418
15585SOL    HW248530   0.705  14.392   0.342
15586SOL     OW48531  10.252   5.390  12.821
15586SOL    HW148532  10.190   5.372  12.751
15586SOL    HW248533  10.205   5.364  12.901
15587SOL     OW48534   4.913  14.605   0.435
15587SOL    HW148535   4.923  14.673   0.368
15587SOL    HW248536   5.001  14.589   0.468
15588SOL     OW48537   5.708   9.285   0.538
15588SOL    HW148538   5.772   9.329   0.594
15588SOL    HW248539   5.668   9.219   0.594
15589SOL     OW48540   4.598  13.747   9.885
15589SOL    HW148541   4.656  13.800   9.831
15589SOL    HW248542   4.528  13.720   9.826
15590SOL     OW48543   6.909   8.455   1.353
15590SOL    HW148544   6.857   8.374   1.356
15590SOL    HW248545   6.987   8.435   1.405
15591SOL     OW48546  12.937  14.381   4.290
15591SOL    HW148547  12.897  14.327   4.222
15591SOL    HW248548  13.010  14.425   4.246
15592SOL     OW48549   1.470  10.060   2.130
15592SOL    HW148550   1.541  10.119   2.105
15592SOL    HW248551   1.493   9.977   2.088
15593SOL     OW48552  13.808   5.002   5.460
15593SOL    HW148553  13.721   4.994   5.499
15593SOL    HW248554  13.793   4.995   5.366
15594SOL     OW48555  13.797  13.452  14.179
15594SOL    HW148556  13.819  13.371  14.225
15594SOL    HW248557  13.711  13.476  14.213
15595SOL     OW48558   0.185  12.715   2.207
15595SOL    HW148559   0.253  12.747   2.266
15595SOL    HW248560   0.147  12.640   2.251
15596SOL     OW48561   1.297   3.220   6.498
15596SOL    HW148562   1.270   3.311   6.484
15596SOL    HW248563   1.393   3.223   6.494
15597SOL     OW48564   5.179   0.729  10.347
15597SOL    HW148565   5.108   0.793  10.351
15597SOL    HW248566   5.241   0.766  10.284
15598SOL     OW48567   5.932  13.732   7.576
15598SOL    HW148568   5.934  13.719   7.481
15598SOL    HW248569   5.918  13.644   7.611
15599SOL     OW48570   6.770   6.178   9.897
15599SOL    HW148571   6.756   6.268   9.927
15599SOL    HW248572   6.839   6.185   9.831
15600SOL     OW48573   8.187  10.659   3.315
15600SOL    HW148574   8.169  10.623   3.228
15600SOL    HW248575   8.141  10.600   3.375
15601SOL     OW48576   2.775  13.414   3.565
15601SOL    HW148577   2.681  13.422   3.553
15601SOL    HW248578   2.788  13.416   3.660
15602SOL     OW48579   3.883   5.380   8.423
15602SOL    HW148580   3.892   5.321   8.348
15602SOL    HW248581   3.872   5.322   8.499
15603SOL     OW48582   5.910  14.300   1.321
15603SOL    HW148583   6.005  14.304   1.333
15603SOL    HW248584   5.898  14.285   1.227
15604SOL     OW48585   9.103  10.624   2.873
15604SOL    HW148586   9.100  10.529   2.873
15604SOL    HW248587   9.055  10.650   2.794
15605SOL     OW48588   1.982   6.282   4.807
15605SOL    HW148589   1.964   6.191   4.833
15605SOL    HW248590   2.021   6.275   4.720
15606SOL     OW48591   6.162  12.810   4.788
15606SOL    HW148592   6.170  12.899   4.823
15606SOL    HW248593   6.252  12.786   4.762
15607SOL     OW48594   2.903  14.300  11.464
15607SOL    HW148595   2.960  14.228  11.438
15607SOL    HW248596   2.961  14.365  11.503
15608SOL     OW48597   7.905   1.908   4.638
15608SOL    HW148598   7.834   1.896   4.575
15608SOL    HW248599   7.861   1.913   4.723
15609SOL     OW48600   3.810   9.770   8.890
15609SOL    HW148601   3.737   9.749   8.948
15609SOL    HW248602   3.858   9.687   8.880
15610SOL     OW48603   4.065  14.119   6.585
15610SOL    HW148604   4.032  14.078   6.505
15610SOL    HW248605   4.014  14.079   6.655
15611SOL     OW48606   2.076   5.828   5.808
15611SOL    HW148607   2.034   5.801   5.890
15611SOL    HW248608   2.145   5.762   5.794
15612SOL     OW48609   9.687  12.248   9.075
15612SOL    HW148610   9.655  12.292   9.153
15612SOL    HW248611   9.749  12.310   9.037
15613SOL     OW48612   8.348   6.422   7.881
15613SOL    HW148613   8.345   6.327   7.873
15613SOL    HW248614   8.391   6.437   7.966
15614SOL     OW48615  10.481   6.020   0.096
15614SOL    HW148616  10.405   6.071   0.125
15614SOL    HW248617  10.454   5.979   0.015
15615SOL     OW48618   7.935   9.689   4.379
15615SOL    HW148619   7.970   9.726   4.460
15615SOL    HW248620   7.840   9.699   4.386
15616SOL     OW48621   8.756   0.850  12.766
15616SOL    HW148622   8.819   0.835  12.837
15616SOL    HW248623   8.779   0.935  12.731
15617SOL     OW48624  13.896   1.370  11.448
15617SOL    HW148625  13.952   1.437  11.488
15617SOL    HW248626  13.901   1.387  11.354
15618SOL     OW48627   8.783  13.743   2.141
15618SOL    HW148628   8.751  13.797   2.069
15618SOL    HW248629   8.704  13.717   2.188
15619SOL     OW48630   0.161  10.260   9.645
15619SOL    HW148631   0.129  10.208   9.572
15619SOL    HW248632   0.206  10.334   9.604
15620SOL     OW48633   6.710   3.142  12.727
15620SOL    HW148634   6.660   3.219  12.702
15620SOL    HW248635   6.664   3.106  12.803
15621SOL     OW48636  10.937   4.752   2.515
15621SOL    HW148637  11.005   4.701   2.558
15621SOL    HW248638  10.963   4.843   2.529
15622SOL     OW48639   1.706  11.489   5.663
15622SOL    HW148640   1.661  11.516   5.583
15622SOL    HW248641   1.641  11.499   5.732
15623SOL     OW48642   1.535  10.876   0.433
15623SOL    HW148643   1.521  10.924   0.351
15623SOL    HW248644   1.488  10.793   0.421
15624SOL     OW48645  10.349   0.591   8.159
15624SOL    HW148646  10.319   0.502   8.179
15624SOL    HW248647  10.280   0.627   8.103
15625SOL     OW48648  11.023   1.451   5.985
15625SOL    HW148649  11.041   1.443   5.891
15625SOL    HW248650  10.951   1.514   5.990
15626SOL     OW48651   9.403  14.156  14.613
15626SOL    HW148652   9.439  14.073  14.645
15626SOL    HW248653   9.467  14.221  14.641
15627SOL     OW48654  12.557   6.602   5.931
15627SOL    HW148655  12.565   6.506   5.934
15627SOL    HW248656  12.476   6.620   5.978
15628SOL     OW48657  11.916  11.494   4.346
15628SOL    HW148658  11.867  11.422   4.385
15628SOL    HW248659  11.866  11.573   4.368
15629SOL     OW48660   9.069  13.918   3.528
15629SOL    HW148661   9.150  13.876   3.501
15629SOL    HW248662   9.036  13.863   3.599
15630SOL     OW48663   5.340   3.374  14.145
15630SOL    HW148664   5.301   3.351  14.060
15630SOL    HW248665   5.413   3.432  14.122
15631SOL     OW48666   9.705  12.221   3.563
15631SOL    HW148667   9.666  12.291   3.617
15631SOL    HW248668   9.675  12.140   3.604
15632SOL     OW48669   4.707  12.248   6.673
15632SOL    HW148670   4.666  12.211   6.594
15632SOL    HW248671   4.801  12.241   6.657
15633SOL     OW48672   2.014   2.638  11.101
15633SOL    HW148673   1.923   2.630  11.072
15633SOL    HW248674   2.019   2.582  11.179
15634SOL     OW48675  11.685   4.998  14.296
15634SOL    HW148676  11.637   5.008  14.214
15634SOL    HW248677  11.765   5.049  14.284
15635SOL     OW48678   5.495  10.419   4.339
15635SOL    HW148679   5.486  10.361   4.415
15635SOL    HW248680   5.530  10.500   4.375
15636SOL     OW48681   4.455   6.431   3.721
15636SOL    HW148682   4.440   6.375   3.645
15636SOL    HW248683   4.503   6.377   3.783
15637SOL     OW48684  12.374   3.920   6.701
15637SOL    HW148685  12.333   3.837   6.725
15637SOL    HW248686  12.304   3.984   6.707
15638SOL     OW48687   4.772   2.364   3.327
15638SOL    HW148688   4.757   2.362   3.422
15638SOL    HW248689   4.809   2.278   3.308
15639SOL     OW48690  11.074   9.467  11.666
15639SOL    HW148691  11.083   9.562  11.656
15639SOL    HW248692  11.020   9.440  11.592
15640SOL     OW48693   6.423   9.929   8.730
15640SOL    HW148694   6.474   9.890   8.658
15640SOL    HW248695   6.398  10.015   8.697
15641SOL     OW48696   3.209   6.919   4.689
15641SOL    HW148697   3.214   6.842   4.746
15641SOL    HW248698   3.284   6.910   4.630
15642SOL     OW48699   6.299  12.519   5.315
15642SOL    HW148700   6.207  12.543   5.303
15642SOL    HW248701   6.322  12.469   5.237
15643SOL     OW48702  11.667  13.645  10.020
15643SOL    HW148703  11.641  13.596  10.097
15643SOL    HW248704  11.690  13.732  10.053
15644SOL     OW48705  14.108  14.227  10.132
15644SOL    HW148706  14.193  14.183  10.123
15644SOL    HW248707  14.115  14.304  10.076
15645SOL     OW48708   4.315   8.733   3.359
15645SOL    HW148709   4.356   8.708   3.442
15645SOL    HW248710   4.374   8.797   3.321
15646SOL     OW48711   7.918  13.398   7.933
15646SOL    HW148712   7.851  13.460   7.962
15646SOL    HW248713   7.898  13.317   7.979
15647SOL     OW48714   8.062   6.947   2.266
15647SOL    HW148715   8.075   6.853   2.277
15647SOL    HW248716   8.116   6.987   2.335
15648SOL     OW48717  10.745   7.285   5.957
15648SOL    HW148718  10.664   7.277   5.906
15648SOL    HW248719  10.774   7.195   5.970
15649SOL     OW48720  10.691   5.020   1.536
15649SOL    HW148721  10.669   5.056   1.450
15649SOL    HW248722  10.682   5.093   1.596
15650SOL     OW48723   9.764   5.021  12.205
15650SOL    HW148724   9.684   4.971  12.190
15650SOL    HW248725   9.775   5.020  12.300
15651SOL     OW48726  13.604   8.180   8.091
15651SOL    HW148727  13.616   8.120   8.165
15651SOL    HW248728  13.545   8.133   8.032
15652SOL     OW48729   8.024   2.705  14.459
15652SOL    HW148730   8.053   2.762  14.387
15652SOL    HW248731   7.931   2.724  14.467
15653SOL     OW48732  11.078  14.676   2.580
15653SOL    HW148733  11.055  14.637   2.496
15653SOL    HW248734  11.002  14.662   2.636
15654SOL     OW48735   0.911  10.589   8.885
15654SOL    HW148736   0.930  10.644   8.809
15654SOL    HW248737   0.967  10.512   8.875
15655SOL     OW48738   8.389  10.615  13.513
15655SOL    HW148739   8.367  10.592  13.603
15655SOL    HW248740   8.347  10.700  13.499
15656SOL     OW48741   0.712  11.795   6.123
15656SOL    HW148742   0.760  11.875   6.145
15656SOL    HW248743   0.760  11.725   6.168
15657SOL     OW48744   9.223  11.318  12.207
15657SOL    HW148745   9.250  11.358  12.289
15657SOL    HW248746   9.303  11.285  12.167
15658SOL     OW48747   9.998   6.665   4.492
15658SOL    HW148748  10.087   6.664   4.456
15658SOL    HW248749   9.942   6.691   4.419
15659SOL     OW48750   4.632   5.998   3.256
15659SOL    HW148751   4.579   6.034   3.327
15659SOL    HW248752   4.644   5.906   3.279
15660SOL     OW48753   9.151   3.421   8.873
15660SOL    HW148754   9.244   3.399   8.879
15660SOL    HW248755   9.108   3.337   8.857
15661SOL     OW48756   5.820   9.219   7.466
15661SOL    HW148757   5.743   9.162   7.472
15661SOL    HW248758   5.798   9.295   7.520
15662SOL     OW48759  10.243   5.840  13.819
15662SOL    HW148760  10.206   5.928  13.812
15662SOL    HW248761  10.298   5.843  13.898
15663SOL     OW48762   7.414   3.351   3.946
15663SOL    HW148763   7.439   3.419   3.883
15663SOL    HW248764   7.342   3.389   3.996
15664SOL     OW48765   1.925   4.145   1.871
15664SOL    HW148766   1.925   4.079   1.941
15664SOL    HW248767   1.966   4.222   1.911
15665SOL     OW48768  12.467   8.534   8.138
15665SOL    HW148769  12.476   8.542   8.043
15665SOL    HW248770  12.526   8.462   8.162
15666SOL     OW48771  11.652   2.255   0.720
15666SOL    HW148772  11.563   2.261   0.687
15666SOL    HW248773  11.672   2.342   0.753
15667SOL     OW48774   4.352   7.457   2.548
15667SOL    HW148775   4.382   7.481   2.460
15667SOL    HW248776   4.409   7.385   2.574
15668SOL     OW48777  14.137   0.826  14.063
15668SOL    HW148778  14.228   0.824  14.093
15668SOL    HW248779  14.094   0.887  14.123
15669SOL     OW48780   8.519   5.442  11.241
15669SOL    HW148781   8.527   5.348  11.223
15669SOL    HW248782   8.424   5.458  11.238
15670SOL     OW48783   6.458   5.351  14.180
15670SOL    HW148784   6.362   5.354  14.190
15670SOL    HW248785   6.490   5.411  14.248
15671SOL     OW48786   1.741   0.587   2.773
15671SOL    HW148787   1.731   0.604   2.866
15671SOL    HW248788   1.834   0.601   2.756
15672SOL     OW48789   4.119   5.021   7.655
15672SOL    HW148790   4.193   5.003   7.597
15672SOL    HW248791   4.041   5.004   7.603
15673SOL     OW48792   3.709  13.722   8.983
15673SOL    HW148793   3.646  13.767   9.039
15673SOL    HW248794   3.794  13.742   9.021
15674SOL     OW48795   4.459   7.242   7.471
15674SOL    HW148796   4.427   7.169   7.418
15674SOL    HW248797   4.474   7.204   7.558
15675SOL     OW48798   1.757  11.736   3.355
15675SOL    HW148799   1.683  11.748   3.296
15675SOL    HW248800   1.817  11.678   3.308
15676SOL     OW48801   9.128  14.617   5.768
15676SOL    HW148802   9.164  14.640   5.682
15676SOL    HW248803   9.187  14.549   5.801
15677SOL     OW48804  12.608  12.910   1.136
15677SOL    HW148805  12.562  12.984   1.096
15677SOL    HW248806  12.588  12.917   1.229
15678SOL     OW48807   7.254   9.838  11.828
15678SOL    HW148808   7.236   9.835  11.922
15678SOL    HW248809   7.345   9.865  11.822
15679SOL     OW48810   5.480   3.522   5.908
15679SOL    HW148811   5.511   3.432   5.907
15679SOL    HW248812   5.532   3.566   5.841
15680SOL     OW48813   5.518   3.416  10.554
15680SOL    HW148814   5.551   3.504  10.536
15680SOL    HW248815   5.545   3.364  10.479
15681SOL     OW48816   2.218   8.801   8.886
15681SOL    HW148817   2.313   8.804   8.876
15681SOL    HW248818   2.190   8.892   8.879
15682SOL     OW48819   2.896  13.561   3.377
15682SOL    HW148820   2.828  13.525   3.434
15682SOL    HW248821   2.874  13.529   3.290
15683SOL     OW48822   1.063  13.183   2.416
15683SOL    HW148823   1.021  13.269   2.419
15683SOL    HW248824   0.992  13.121   2.433
15684SOL     OW48825  11.049   9.205  10.650
15684SOL    HW148826  10.978   9.228  10.711
15684SOL    HW248827  11.009   9.143  10.590
15685SOL     OW48828   1.113   9.670  13.649
15685SOL    HW148829   1.024   9.707  13.645
15685SOL    HW248830   1.166   9.732  13.599
15686SOL     OW48831   9.932   0.862   1.316
15686SOL    HW148832   9.947   0.871   1.222
15686SOL    HW248833   9.948   0.950   1.351
15687SOL     OW48834  11.208  11.876   7.485
15687SOL    HW148835  11.247  11.964   7.482
15687SOL    HW248836  11.126  11.888   7.532
15688SOL     OW48837   4.989  13.693  11.291
15688SOL    HW148838   4.894  13.685  11.300
15688SOL    HW248839   5.019  13.605  11.269
15689SOL     OW48840   1.734  11.707  12.940
15689SOL    HW148841   1.675  11.781  12.958
15689SOL    HW248842   1.769  11.683  13.026
15690SOL     OW48843  13.456  10.987   0.475
15690SOL    HW148844  13.411  11.069   0.459
15690SOL    HW248845  13.476  10.953   0.388
15691SOL     OW48846  12.365  14.136   8.128
15691SOL    HW148847  12.419  14.066   8.089
15691SOL    HW248848  12.428  14.195   8.169
15692SOL     OW48849  10.506   3.738  11.780
15692SOL    HW148850  10.450   3.749  11.857
15692SOL    HW248851  10.547   3.653  11.792
15693SOL     OW48852  10.150   4.117   9.670
15693SOL    HW148853  10.244   4.114   9.688
15693SOL    HW248854  10.109   4.120   9.756
15694SOL     OW48855  13.766   8.511   6.901
15694SOL    HW148856  13.715   8.431   6.913
15694SOL    HW248857  13.713   8.579   6.943
15695SOL     OW48858  10.900   3.956  10.022
15695SOL    HW148859  10.948   4.039  10.014
15695SOL    HW248860  10.968   3.889  10.022
15696SOL     OW48861   6.841  13.882   2.899
15696SOL    HW148862   6.789  13.801   2.901
15696SOL    HW248863   6.784  13.947   2.940
15697SOL     OW48864   4.800   8.192  12.397
15697SOL    HW148865   4.731   8.259  12.397
15697SOL    HW248866   4.837   8.195  12.485
15698SOL     OW48867   3.018  11.084  13.278
15698SOL    HW148868   2.930  11.049  13.286
15698SOL    HW248869   3.060  11.063  13.361
15699SOL     OW48870   7.719  11.326  10.078
15699SOL    HW148871   7.758  11.315   9.992
15699SOL    HW248872   7.783  11.290  10.139
15700SOL     OW48873  13.915   3.023   0.764
15700SOL    HW148874  14.004   3.004   0.794
15700SOL    HW248875  13.863   2.949   0.795
15701SOL     OW48876  10.475  14.588   4.218
15701SOL    HW148877  10.392  14.560   4.258
15701SOL    HW248878  10.472  14.683   4.223
15702SOL     OW48879   5.383   5.838  13.587
15702SOL    HW148880   5.475   5.821  13.605
15702SOL    HW248881   5.371   5.815  13.495
15703SOL     OW48882  11.066  14.081  11.543
15703SOL    HW148883  11.129  14.152  11.552
15703SOL    HW248884  11.104  14.009  11.593
15704SOL     OW48885   5.329  11.026   6.551
15704SOL    HW148886   5.238  11.002   6.566
15704SOL    HW248887   5.379  10.952   6.585
15705SOL     OW48888  11.021   0.593  13.434
15705SOL    HW148889  10.977   0.621  13.515
15705SOL    HW248890  10.956   0.607  13.365
15706SOL     OW48891   0.081   3.922   7.819
15706SOL    HW148892   0.150   3.933   7.754
15706SOL    HW248893   0.127   3.901   7.900
15707SOL     OW48894   6.073  12.928  14.061
15707SOL    HW148895   5.986  12.963  14.043
15707SOL    HW248896   6.062  12.872  14.138
15708SOL     OW48897   3.672  11.817  10.320
15708SOL    HW148898   3.739  11.812  10.388
15708SOL    HW248899   3.716  11.862  10.247
15709SOL     OW48900   2.137  10.968  11.454
15709SOL    HW148901   2.136  10.917  11.534
15709SOL    HW248902   2.105  11.054  11.480
15710SOL     OW48903   9.101  10.958   7.698
15710SOL    HW148904   9.087  10.878   7.648
15710SOL    HW248905   9.186  10.946   7.740
15711SOL     OW48906   4.083   6.434   6.372
15711SOL    HW148907   3.995   6.410   6.401
15711SOL    HW248908   4.126   6.351   6.352
15712SOL     OW48909   9.115   3.732  14.503
15712SOL    HW148910   9.154   3.704  14.420
15712SOL    HW248911   9.176   3.798  14.536
15713SOL     OW48912   5.340   9.140  11.038
15713SOL    HW148913   5.375   9.224  11.008
15713SOL    HW248914   5.360   9.079  10.966
15714SOL     OW48915  13.727   0.065   1.215
15714SOL    HW148916  13.681   0.135   1.261
15714SOL    HW248917  13.808   0.106   1.184
15715SOL     OW48918   2.205   5.209   4.499
15715SOL    HW148919   2.233   5.126   4.461
15715SOL    HW248920   2.241   5.207   4.588
15716SOL     OW48921  11.354   6.696  14.729
15716SOL    HW148922  11.373   6.662  14.642
15716SOL    HW248923  11.415   6.649  14.786
15717SOL     OW48924   7.562   2.075   1.197
15717SOL    HW148925   7.605   2.145   1.246
15717SOL    HW248926   7.474   2.109   1.180
15718SOL     OW48927   2.687   4.637   9.890
15718SOL    HW148928   2.739   4.625   9.969
15718SOL    HW248929   2.748   4.671   9.825
15719SOL     OW48930   0.849   5.155  14.445
15719SOL    HW148931   0.852   5.225  14.511
15719SOL    HW248932   0.930   5.165  14.396
15720SOL     OW48933   8.469   3.738  12.377
15720SOL    HW148934   8.461   3.738  12.281
15720SOL    HW248935   8.398   3.680  12.406
15721SOL     OW48936  13.282  11.648   8.669
15721SOL    HW148937  13.367  11.608   8.648
15721SOL    HW248938  13.218  11.590   8.627
15722SOL     OW48939  11.962   5.919   6.794
15722SOL    HW148940  12.021   5.889   6.862
15722SOL    HW248941  12.019   5.956   6.727
15723SOL     OW48942   8.261   6.717  11.357
15723SOL    HW148943   8.322   6.645  11.342
15723SOL    HW248944   8.219   6.732  11.272
15724SOL     OW48945   3.724   6.636  11.757
15724SOL    HW148946   3.764   6.617  11.841
15724SOL    HW248947   3.754   6.566  11.699
15725SOL     OW48948   5.495   9.152  13.654
15725SOL    HW148949   5.427   9.214  13.628
15725SOL    HW248950   5.564   9.206  13.691
15726SOL     OW48951   0.615   7.803   0.328
15726SOL    HW148952   0.632   7.765   0.242
15726SOL    HW248953   0.651   7.740   0.390
15727SOL     OW48954   4.317   0.754   6.319
15727SOL    HW148955   4.317   0.840   6.278
15727SOL    HW248956   4.398   0.751   6.369
15728SOL     OW48957   3.268   9.359  13.117
15728SOL    HW148958   3.351   9.355  13.164
15728SOL    HW248959   3.266   9.279  13.064
15729SOL     OW48960   4.335  12.063   5.708
15729SOL    HW148961   4.361  12.013   5.631
15729SOL    HW248962   4.267  12.010   5.750
15730SOL     OW48963  14.815   8.451   8.407
15730SOL    HW148964  14.795   8.376   8.352
15730SOL    HW248965   0.029   8.470   8.391
15731SOL     OW48966   8.091   0.558  12.250
15731SOL    HW148967   8.152   0.630  12.264
15731SOL    HW248968   8.134   0.501  12.188
15732SOL     OW48969   5.956  14.244  14.538
15732SOL    HW148970   5.958  14.156  14.500
15732SOL    HW248971   5.868  14.252  14.575
15733SOL     OW48972   6.672   0.296   3.760
15733SOL    HW148973   6.608   0.245   3.810
15733SOL    HW248974   6.757   0.263   3.787
15734SOL     OW48975   5.983  13.461   8.433
15734SOL    HW148976   5.967  13.371   8.460
15734SOL    HW248977   6.007  13.507   8.513
15735SOL     OW48978   0.866   4.405   8.974
15735SOL    HW148979   0.919   4.332   8.942
15735SOL    HW248980   0.920   4.483   8.958
15736SOL     OW48981   2.309   0.273   9.715
15736SOL    HW148982   2.304   0.363   9.747
15736SOL    HW248983   2.402   0.258   9.699
15737SOL     OW48984   9.380   7.854  10.518
15737SOL    HW148985   9.461   7.873  10.469
15737SOL    HW248986   9.311   7.856  10.452
15738SOL     OW48987  13.703   5.524   3.513
15738SOL    HW148988  13.741   5.578   3.444
15738SOL    HW248989  13.633   5.577   3.551
15739SOL     OW48990   5.945   0.936   7.172
15739SOL    HW148991   5.966   0.923   7.079
15739SOL    HW248992   5.961   1.029   7.187
15740SOL     OW48993  12.943   4.704  10.312
15740SOL    HW148994  12.891   4.669  10.384
15740SOL    HW248995  12.892   4.686  10.233
15741SOL     OW48996   0.590   3.451   2.014
15741SOL    HW148997   0.685   3.440   2.016
15741SOL    HW248998   0.565   3.460   2.105
15742SOL     OW48999  10.600   2.465   1.762
15742SOL    HW149000  10.664   2.428   1.700
15742SOL    HW249001  10.560   2.538   1.715
15743SOL     OW49002   1.264   5.617   8.038
15743SOL    HW149003   1.280   5.584   8.127
15743SOL    HW249004   1.320   5.563   7.982
15744SOL     OW49005   0.505   8.631  12.449
15744SOL    HW149006   0.534   8.697  12.386
15744SOL    HW249007   0.423   8.665  12.484
15745SOL     OW49008   2.316   0.536   9.374
15745SOL    HW149009   2.242   0.537   9.434
15745SOL    HW249010   2.328   0.443   9.353
15746SOL     OW49011  13.486   3.667   5.636
15746SOL    HW149012  13.478   3.751   5.681
15746SOL    HW249013  13.396   3.636   5.628
15747SOL     OW49014   8.198  12.392   9.763
15747SOL    HW149015   8.186  12.481   9.794
15747SOL    HW249016   8.291  12.387   9.738
15748SOL     OW49017   9.644   3.149   3.179
15748SOL    HW149018   9.584   3.223   3.174
15748SOL    HW249019   9.692   3.151   3.097
15749SOL     OW49020   2.926   9.929  13.490
15749SOL    HW149021   2.929   9.913  13.396
15749SOL    HW249022   2.990   9.869  13.527
15750SOL     OW49023  13.303   2.587   2.839
15750SOL    HW149024  13.264   2.663   2.795
15750SOL    HW249025  13.248   2.574   2.916
15751SOL     OW49026   0.999   6.409   0.456
15751SOL    HW149027   1.015   6.498   0.425
15751SOL    HW249028   0.933   6.374   0.397
15752SOL     OW49029   8.903  13.949  11.041
15752SOL    HW149030   8.947  13.983  10.963
15752SOL    HW249031   8.815  13.988  11.037
15753SOL     OW49032   4.724   6.919  14.510
15753SOL    HW149033   4.636   6.891  14.488
15753SOL    HW249034   4.714   7.009  14.541
15754SOL     OW49035  13.947  12.044   8.701
15754SOL    HW149036  13.949  11.968   8.642
15754SOL    HW249037  14.035  12.045   8.740
15755SOL     OW49038   2.887   9.254  10.168
15755SOL    HW149039   2.854   9.330  10.120
15755SOL    HW249040   2.976   9.277  10.192
15756SOL     OW49041   5.031  12.066  12.001
15756SOL    HW149042   4.936  12.065  11.994
15756SOL    HW249043   5.051  12.151  12.041
15757SOL     OW49044   8.378  10.158   6.939
15757SOL    HW149045   8.319  10.216   6.987
15757SOL    HW249046   8.465  10.195   6.953
15758SOL     OW49047   5.589   0.491  13.975
15758SOL    HW149048   5.677   0.463  13.953
15758SOL    HW249049   5.532   0.442  13.915
15759SOL     OW49050  12.710   1.437   0.284
15759SOL    HW149051  12.782   1.393   0.329
15759SOL    HW249052  12.700   1.388   0.202
15760SOL     OW49053  11.083  13.287   8.512
15760SOL    HW149054  11.141  13.225   8.557
15760SOL    HW249055  10.995  13.262   8.540
15761SOL     OW49056  12.493   1.917   2.029
15761SOL    HW149057  12.574   1.960   2.059
15761SOL    HW249058  12.487   1.838   2.083
15762SOL     OW49059   5.385   9.152  10.120
15762SOL    HW149060   5.402   9.119  10.208
15762SOL    HW249061   5.467   9.140  10.073
15763SOL     OW49062  14.467  12.107   1.254
15763SOL    HW149063  14.501  12.046   1.189
15763SOL    HW249064  14.413  12.053   1.313
15764SOL     OW49065  10.571   3.622   4.140
15764SOL    HW149066  10.545   3.714   4.145
15764SOL    HW249067  10.651   3.623   4.086
15765SOL     OW49068   1.611   0.750   2.970
15765SOL    HW149069   1.564   0.750   2.887
15765SOL    HW249070   1.544   0.738   3.037
15766SOL     OW49071   0.491  14.002  13.748
15766SOL    HW149072   0.574  13.998  13.796
15766SOL    HW249073   0.476  14.095  13.733
15767SOL     OW49074  13.705   4.694  13.961
15767SOL    HW149075  13.708   4.617  14.017
15767SOL    HW249076  13.639   4.750  14.001
15768SOL     OW49077  12.579   6.886   2.546
15768SOL    HW149078  12.506   6.948   2.554
15768SOL    HW249079  12.581   6.864   2.453
15769SOL     OW49080  12.252   1.622   1.962
15769SOL    HW149081  12.307   1.638   2.039
15769SOL    HW249082  12.241   1.709   1.923
15770SOL     OW49083   1.597   9.566   9.051
15770SOL    HW149084   1.587   9.483   9.004
15770SOL    HW249085   1.580   9.544   9.143
15771SOL     OW49086   1.891   9.179   6.110
15771SOL    HW149087   1.826   9.147   6.047
15771SOL    HW249088   1.975   9.167   6.065
15772SOL     OW49089   2.214   2.021  14.003
15772SOL    HW149090   2.142   2.078  14.030
15772SOL    HW249091   2.204   2.014  13.908
15773SOL     OW49092   6.635   8.614   4.030
15773SOL    HW149093   6.590   8.569   4.102
15773SOL    HW249094   6.708   8.557   4.007
15774SOL     OW49095   4.442   2.433   6.973
15774SOL    HW149096   4.401   2.347   6.987
15774SOL    HW249097   4.392   2.472   6.901
15775SOL     OW49098  10.265   6.700   8.010
15775SOL    HW149099  10.308   6.774   8.054
15775SOL    HW249100  10.338   6.647   7.978
15776SOL     OW49101   6.330   0.002   1.547
15776SOL    HW149102   6.268  14.831   1.493
15776SOL    HW249103   6.299  14.866   1.637
15777SOL     OW49104  13.218   0.524   4.341
15777SOL    HW149105  13.266   0.452   4.300
15777SOL    HW249106  13.127   0.495   4.340
15778SOL     OW49107  11.649   4.991   3.317
15778SOL    HW149108  11.603   4.908   3.304
15778SOL    HW249109  11.644   5.035   3.232
15779SOL     OW49110   7.030  13.596   8.172
15779SOL    HW149111   7.003  13.519   8.123
15779SOL    HW249112   6.971  13.599   8.247
15780SOL     OW49113   1.956   1.113   0.746
15780SOL    HW149114   2.028   1.085   0.689
15780SOL    HW249115   1.878   1.108   0.690
15781SOL     OW49116  13.196  10.210   0.619
15781SOL    HW149117  13.202  10.126   0.574
15781SOL    HW249118  13.250  10.269   0.566
15782SOL     OW49119   4.244   7.093  13.702
15782SOL    HW149120   4.339   7.080  13.703
15782SOL    HW249121   4.208   7.005  13.714
15783SOL     OW49122   7.471   8.691   1.542
15783SOL    HW149123   7.522   8.750   1.597
15783SOL    HW249124   7.380   8.722   1.552
15784SOL     OW49125   3.684  10.055   0.137
15784SOL    HW149126   3.679  10.150   0.128
15784SOL    HW249127   3.604  10.022   0.096
15785SOL     OW49128  10.331   8.847  10.809
15785SOL    HW149129  10.324   8.752  10.820
15785SOL    HW249130  10.242   8.879  10.824
15786SOL     OW49131  13.286   0.237   0.147
15786SOL    HW149132  13.338   0.181   0.088
15786SOL    HW249133  13.344   0.309   0.169
15787SOL     OW49134   4.536   3.889  13.972
15787SOL    HW149135   4.566   3.911  13.884
15787SOL    HW249136   4.470   3.821  13.957
15788SOL     OW49137   4.492   6.904   7.192
15788SOL    HW149138   4.446   6.823   7.210
15788SOL    HW249139   4.441   6.972   7.236
15789SOL     OW49140  12.932   3.701   0.886
15789SOL    HW149141  12.977   3.703   0.971
15789SOL    HW249142  13.003   3.692   0.822
15790SOL     OW49143  13.526  14.199   3.402
15790SOL    HW149144  13.441  14.156   3.391
15790SOL    HW249145  13.523  14.274   3.343
15791SOL     OW49146   2.048   8.737  10.710
15791SOL    HW149147   2.090   8.739  10.624
15791SOL    HW249148   2.020   8.646  10.721
15792SOL     OW49149   3.766   3.403   9.326
15792SOL    HW149150   3.824   3.474   9.300
15792SOL    HW249151   3.790   3.385   9.417
15793SOL     OW49152   1.396   1.178   4.393
15793SOL    HW149153   1.365   1.131   4.316
15793SOL    HW249154   1.316   1.202   4.440
15794SOL     OW49155   6.891   9.185   5.371
15794SOL    HW149156   6.956   9.114   5.364
15794SOL    HW249157   6.901   9.217   5.460
15795SOL     OW49158   5.706   0.327  10.263
15795SOL    HW149159   5.714   0.280  10.180
15795SOL    HW249160   5.672   0.261  10.324
15796SOL     OW49161  14.026   0.214   5.704
15796SOL    HW149162  14.108   0.237   5.660
15796SOL    HW249163  13.970   0.290   5.691
15797SOL     OW49164  10.155  10.980   6.195
15797SOL    HW149165  10.245  10.967   6.167
15797SOL    HW249166  10.162  11.019   6.282
15798SOL     OW49167  12.570   1.096   8.696
15798SOL    HW149168  12.662   1.070   8.698
15798SOL    HW249169  12.535   1.056   8.617
15799SOL     OW49170   8.260  10.934  12.490
15799SOL    HW149171   8.178  10.941  12.442
15799SOL    HW249172   8.294  10.847  12.467
15800SOL     OW49173  12.318   2.280   9.887
15800SOL    HW149174  12.327   2.188   9.910
15800SOL    HW249175  12.289   2.322   9.967
15801SOL     OW49176  12.780   5.135   9.594
15801SOL    HW149177  12.828   5.056   9.571
15801SOL    HW249178  12.720   5.149   9.520
15802SOL     OW49179  10.735   7.667   2.051
15802SOL    HW149180  10.768   7.583   2.083
15802SOL    HW249181  10.799   7.731   2.081
15803SOL     OW49182   3.554   8.885   2.930
15803SOL    HW149183   3.541   8.976   2.904
15803SOL    HW249184   3.510   8.834   2.862
15804SOL     OW49185  13.634   6.174   4.449
15804SOL    HW149186  13.601   6.126   4.525
15804SOL    HW249187  13.659   6.106   4.387
15805SOL     OW49188   0.887   5.791   4.640
15805SOL    HW149189   0.925   5.796   4.728
15805SOL    HW249190   0.813   5.851   4.643
15806SOL     OW49191   3.112   4.833   5.485
15806SOL    HW149192   3.097   4.810   5.577
15806SOL    HW249193   3.101   4.928   5.482
15807SOL     OW49194   2.554  11.466   5.436
15807SOL    HW149195   2.585  11.548   5.475
15807SOL    HW249196   2.471  11.489   5.394
15808SOL     OW49197   2.171   4.255  10.058
15808SOL    HW149198   2.250   4.205  10.040
15808SOL    HW249199   2.168   4.321   9.989
15809SOL     OW49200   8.649   8.026  11.494
15809SOL    HW149201   8.710   7.967  11.538
15809SOL    HW249202   8.614   7.973  11.422
15810SOL     OW49203  10.689   8.260   8.397
15810SOL    HW149204  10.697   8.279   8.303
15810SOL    HW249205  10.627   8.187   8.402
15811SOL     OW49206  11.522   5.259  10.643
15811SOL    HW149207  11.606   5.289  10.607
15811SOL    HW249208  11.506   5.175  10.599
15812SOL     OW49209   4.411  10.673   6.378
15812SOL    HW149210   4.324  10.712   6.376
15812SOL    HW249211   4.406  10.609   6.449
15813SOL     OW49212   3.369  12.143   6.196
15813SOL    HW149213   3.459  12.129   6.225
15813SOL    HW249214   3.376  12.156   6.101
15814SOL     OW49215   9.706   2.854   6.490
15814SOL    HW149216   9.777   2.891   6.542
15814SOL    HW249217   9.713   2.898   6.406
15815SOL     OW49218   2.492   5.466   5.091
15815SOL    HW149219   2.477   5.449   4.997
15815SOL    HW249220   2.416   5.516   5.119
15816SOL     OW49221   6.896   5.189  11.704
15816SOL    HW149222   6.969   5.185  11.642
15816SOL    HW249223   6.820   5.163  11.652
15817SOL     OW49224   9.010   9.031   6.024
15817SOL    HW149225   8.941   8.965   6.021
15817SOL    HW249226   8.964   9.114   6.031
15818SOL     OW49227   1.027  12.801  14.514
15818SOL    HW149228   1.026  12.806  14.419
15818SOL    HW249229   0.939  12.770  14.538
15819SOL     OW49230   3.539   6.677   9.850
15819SOL    HW149231   3.630   6.688   9.823
15819SOL    HW249232   3.490   6.740   9.796
15820SOL     OW49233  12.350   7.294   3.420
15820SOL    HW149234  12.323   7.255   3.337
15820SOL    HW249235  12.391   7.222   3.467
15821SOL     OW49236  13.811  12.714  10.187
15821SOL    HW149237  13.823  12.803  10.220
15821SOL    HW249238  13.724  12.689  10.217
15822SOL     OW49239  14.120   3.022   5.134
15822SOL    HW149240  14.151   3.091   5.075
15822SOL    HW249241  14.119   2.943   5.081
15823SOL     OW49242  13.311  11.134  14.211
15823SOL    HW149243  13.324  11.181  14.128
15823SOL    HW249244  13.338  11.196  14.278
15824SOL     OW49245   2.480   4.286  14.532
15824SOL    HW149246   2.485   4.381  14.520
15824SOL    HW249247   2.436   4.254  14.454
15825SOL     OW49248   4.435  10.395   2.738
15825SOL    HW149249   4.482  10.431   2.813
15825SOL    HW249250   4.489  10.322   2.708
15826SOL     OW49251   7.077  14.775  14.824
15826SOL    HW149252   7.063  14.859  14.868
15826SOL    HW249253   7.033  14.784  14.740
15827SOL     OW49254   2.817   1.327   5.901
15827SOL    HW149255   2.800   1.351   5.811
15827SOL    HW249256   2.783   1.400   5.953
15828SOL     OW49257   3.571   2.375  12.030
15828SOL    HW149258   3.563   2.393  12.124
15828SOL    HW249259   3.665   2.368  12.015
15829SOL     OW49260   7.028   0.035  12.079
15829SOL    HW149261   7.103  14.855  12.097
15829SOL    HW249262   7.038   0.059  11.987
15830SOL     OW49263   7.172   2.032   5.456
15830SOL    HW149264   7.261   2.025   5.422
15830SOL    HW249265   7.129   1.952   5.426
15831SOL     OW49266   5.688   1.176   4.024
15831SOL    HW149267   5.737   1.229   4.087
15831SOL    HW249268   5.754   1.140   3.965
15832SOL     OW49269  10.720   9.694   6.778
15832SOL    HW149270  10.794   9.726   6.728
15832SOL    HW249271  10.679   9.629   6.721
15833SOL     OW49272   2.979  12.648   0.127
15833SOL    HW149273   2.925  12.725   0.113
15833SOL    HW249274   2.986  12.640   0.222
15834SOL     OW49275   8.405   6.209   7.577
15834SOL    HW149276   8.492   6.191   7.614
15834SOL    HW249277   8.344   6.184   7.646
15835SOL     OW49278   2.021   2.350  14.717
15835SOL    HW149279   2.067   2.330  14.799
15835SOL    HW249280   2.044   2.277  14.659
15836SOL     OW49281   2.917   2.547   9.766
15836SOL    HW149282   2.937   2.469   9.714
15836SOL    HW249283   2.998   2.568   9.812
15837SOL     OW49284  13.904  10.382   1.986
15837SOL    HW149285  13.965  10.343   2.048
15837SOL    HW249286  13.820  10.382   2.031
15838SOL     OW49287   7.485  14.137   7.652
15838SOL    HW149288   7.551  14.191   7.609
15838SOL    HW249289   7.534  14.081   7.711
15839SOL     OW49290   2.021  13.147   5.439
15839SOL    HW149291   1.994  13.152   5.531
15839SOL    HW249292   1.941  13.163   5.390
15840SOL     OW49293   0.853   0.866   3.083
15840SOL    HW149294   0.912   0.854   3.009
15840SOL    HW249295   0.767   0.878   3.042
15841SOL     OW49296   1.657  11.483   8.964
15841SOL    HW149297   1.662  11.448   8.875
15841SOL    HW249298   1.589  11.431   9.007
15842SOL     OW49299   7.969  11.357   9.130
15842SOL    HW149300   7.879  11.358   9.164
15842SOL    HW249301   7.959  11.332   9.038
15843SOL     OW49302  13.201   1.128   3.074
15843SOL    HW149303  13.114   1.087   3.075
15843SOL    HW249304  13.261   1.055   3.061
15844SOL     OW49305  12.581   5.143  13.350
15844SOL    HW149306  12.613   5.165  13.262
15844SOL    HW249307  12.601   5.049  13.360
15845SOL     OW49308  10.534   4.491   3.499
15845SOL    HW149309  10.577   4.485   3.585
15845SOL    HW249310  10.606   4.497   3.436
15846SOL     OW49311   2.931  13.719  14.811
15846SOL    HW149312   3.002  13.783  14.801
15846SOL    HW249313   2.851  13.772  14.811
15847SOL     OW49314  14.390   9.589  11.741
15847SOL    HW149315  14.413   9.522  11.804
15847SOL    HW249316  14.295   9.599  11.750
15848SOL     OW49317  12.706   7.572  12.665
15848SOL    HW149318  12.627   7.543  12.620
15848SOL    HW249319  12.725   7.658  12.626
15849SOL     OW49320   3.860   0.656   6.302
15849SOL    HW149321   3.811   0.577   6.324
15849SOL    HW249322   3.950   0.625   6.288
15850SOL     OW49323   8.655   1.643   2.718
15850SOL    HW149324   8.686   1.645   2.628
15850SOL    HW249325   8.580   1.583   2.716
15851SOL     OW49326   2.815  13.613   1.396
15851SOL    HW149327   2.877  13.563   1.344
15851SOL    HW249328   2.826  13.704   1.366
15852SOL     OW49329   3.227   0.920  11.714
15852SOL    HW149330   3.288   0.938  11.642
15852SOL    HW249331   3.141   0.944  11.679
15853SOL     OW49332   2.227   9.672  13.876
15853SOL    HW149333   2.213   9.626  13.958
15853SOL    HW249334   2.140   9.705  13.852
15854SOL     OW49335   0.176   3.782   8.029
15854SOL    HW149336   0.108   3.732   8.073
15854SOL    HW249337   0.236   3.808   8.099
15855SOL     OW49338   9.636  11.161   8.430
15855SOL    HW149339   9.619  11.249   8.397
15855SOL    HW249340   9.646  11.172   8.525
15856SOL     OW49341   3.199   1.222   5.809
15856SOL    HW149342   3.151   1.218   5.891
15856SOL    HW249343   3.163   1.150   5.757
15857SOL     OW49344  10.540   8.702   5.513
15857SOL    HW149345  10.466   8.731   5.459
15857SOL    HW249346  10.588   8.641   5.457
15858SOL     OW49347   5.549  13.428   1.663
15858SOL    HW149348   5.618  13.434   1.597
15858SOL    HW249349   5.531  13.334   1.671
15859SOL     OW49350   6.400   6.792   5.788
15859SOL    HW149351   6.364   6.741   5.860
15859SOL    HW249352   6.399   6.883   5.820
15860SOL     OW49353   1.594   7.587   2.667
15860SOL    HW149354   1.686   7.602   2.645
15860SOL    HW249355   1.585   7.622   2.756
15861SOL     OW49356  13.491  12.181   4.097
15861SOL    HW149357  13.422  12.232   4.139
15861SOL    HW249358  13.525  12.238   4.028
15862SOL     OW49359   8.632   8.802   0.218
15862SOL    HW149360   8.582   8.747   0.279
15862SOL    HW249361   8.723   8.787   0.242
15863SOL     OW49362  10.303   9.848   2.675
15863SOL    HW149363  10.221   9.866   2.629
15863SOL    HW249364  10.351   9.930   2.671
15864SOL     OW49365  14.241  11.538   3.176
15864SOL    HW149366  14.164  11.594   3.184
15864SOL    HW249367  14.309  11.582   3.227
15865SOL     OW49368  13.961  13.784   3.788
15865SOL    HW149369  14.051  13.763   3.766
15865SOL    HW249370  13.908  13.723   3.738
15866SOL     OW49371   2.643  10.807   7.723
15866SOL    HW149372   2.552  10.799   7.753
15866SOL    HW249373   2.689  10.848   7.796
15867SOL     OW49374   0.879  12.422   9.741
15867SOL    HW149375   0.841  12.337   9.761
15867SOL    HW249376   0.940  12.405   9.670
15868SOL     OW49377  13.419   0.725   1.021
15868SOL    HW149378  13.477   0.759   0.953
15868SOL    HW249379  13.433   0.783   1.095
15869SOL     OW49380   4.230   5.214  12.059
15869SOL    HW149381   4.282   5.134  12.068
15869SOL    HW249382   4.206   5.238  12.148
15870SOL     OW49383   5.083   8.454   4.713
15870SOL    HW149384   5.148   8.406   4.764
15870SOL    HW249385   5.005   8.399   4.716
15871SOL     OW49386   6.696   0.167  10.279
15871SOL    HW149387   6.786   0.145  10.303
15871SOL    HW249388   6.682   0.255  10.314
15872SOL     OW49389   0.649  13.152  11.756
15872SOL    HW149390   0.731  13.201  11.749
15872SOL    HW249391   0.649  13.119  11.846
15873SOL     OW49392   7.322   1.544   4.231
15873SOL    HW149393   7.372   1.464   4.243
15873SOL    HW249394   7.284   1.562   4.318
15874SOL     OW49395  11.348   5.675  12.886
15874SOL    HW149396  11.395   5.699  12.966
15874SOL    HW249397  11.331   5.758  12.843
15875SOL     OW49398   4.643   8.052   6.917
15875SOL    HW149399   4.642   8.132   6.863
15875SOL    HW249400   4.691   7.988   6.863
15876SOL     OW49401   2.350   7.823   9.237
15876SOL    HW149402   2.375   7.914   9.219
15876SOL    HW249403   2.382   7.774   9.161
15877SOL     OW49404   9.326   7.938   2.656
15877SOL    HW149405   9.374   7.854   2.659
15877SOL    HW249406   9.315   7.962   2.748
15878SOL     OW49407   6.127   2.876   1.914
15878SOL    HW149408   6.215   2.892   1.948
15878SOL    HW249409   6.070   2.883   1.991
15879SOL     OW49410   1.321  11.708   9.723
15879SOL    HW149411   1.359  11.729   9.808
15879SOL    HW249412   1.245  11.654   9.743
15880SOL     OW49413   9.904   2.098   8.036
15880SOL    HW149414   9.881   2.005   8.041
15880SOL    HW249415   9.871   2.127   7.951
15881SOL     OW49416  14.793   5.074  12.144
15881SOL    HW149417  14.744   5.155  12.131
15881SOL    HW249418  14.822   5.078  12.235
15882SOL     OW49419   2.168   3.821  12.055
15882SOL    HW149420   2.224   3.743  12.056
15882SOL    HW249421   2.079   3.787  12.062
15883SOL     OW49422   3.676   0.827   6.588
15883SOL    HW149423   3.635   0.758   6.639
15883SOL    HW249424   3.613   0.846   6.518
15884SOL     OW49425  14.771   3.375  10.620
15884SOL    HW149426  14.749   3.287  10.652
15884SOL    HW249427  14.745   3.374  10.528
15885SOL     OW49428  13.008   0.288   0.133
15885SOL    HW149429  13.093   0.249   0.112
15885SOL    HW249430  13.030   0.378   0.158
15886SOL     OW49431   3.681   2.974   8.346
15886SOL    HW149432   3.746   2.906   8.362
15886SOL    HW249433   3.679   3.026   8.427
15887SOL     OW49434   5.500   4.279   8.248
15887SOL    HW149435   5.417   4.269   8.295
15887SOL    HW249436   5.534   4.364   8.277
15888SOL     OW49437   6.397   5.810  10.906
15888SOL    HW149438   6.413   5.757  10.984
15888SOL    HW249439   6.311   5.780  10.874
15889SOL     OW49440  11.362   0.061   3.044
15889SOL    HW149441  11.275   0.100   3.052
15889SOL    HW249442  11.359  14.862   3.101
15890SOL     OW49443   2.430   1.886  11.467
15890SOL    HW149444   2.379   1.824  11.518
15890SOL    HW249445   2.520   1.872  11.496
15891SOL     OW49446  11.304   5.661   8.722
15891SOL    HW149447  11.225   5.607   8.722
15891SOL    HW249448  11.376   5.598   8.720
15892SOL     OW49449   6.860  14.042   8.827
15892SOL    HW149450   6.909  13.961   8.846
15892SOL    HW249451   6.922  14.097   8.780
15893SOL     OW49452   1.565   9.136   8.399
15893SOL    HW149453   1.480   9.130   8.442
15893SOL    HW249454   1.618   9.067   8.439
15894SOL     OW49455   4.301   1.675  12.686
15894SOL    HW149456   4.288   1.675  12.592
15894SOL    HW249457   4.215   1.696  12.722
15895SOL     OW49458   5.099  12.573   3.935
15895SOL    HW149459   5.179  12.592   3.887
15895SOL    HW249460   5.031  12.570   3.867
15896SOL     OW49461   4.822  10.339   4.997
15896SOL    HW149462   4.867  10.364   4.916
15896SOL    HW249463   4.745  10.291   4.967
15897SOL     OW49464   8.502   2.633  13.875
15897SOL    HW149465   8.562   2.647  13.948
15897SOL    HW249466   8.443   2.565  13.905
15898SOL     OW49467   5.385   5.986  10.256
15898SOL    HW149468   5.445   6.059  10.241
15898SOL    HW249469   5.416   5.917  10.198
15899SOL     OW49470  12.378  11.466  10.950
15899SOL    HW149471  12.421  11.551  10.964
15899SOL    HW249472  12.448  11.409  10.918
15900SOL     OW49473   4.513   3.116   7.570
15900SOL    HW149474   4.597   3.094   7.610
15900SOL    HW249475   4.469   3.032   7.559
15901SOL     OW49476   4.585   4.530   5.657
15901SOL    HW149477   4.598   4.604   5.599
15901SOL    HW249478   4.570   4.455   5.599
15902SOL     OW49479   1.639   4.918  12.475
15902SOL    HW149480   1.677   4.854  12.415
15902SOL    HW249481   1.594   4.981  12.419
15903SOL     OW49482   8.359   9.230   6.992
15903SOL    HW149483   8.353   9.219   6.897
15903SOL    HW249484   8.332   9.145   7.028
15904SOL     OW49485   6.583  14.432   6.318
15904SOL    HW149486   6.583  14.344   6.356
15904SOL    HW249487   6.598  14.418   6.225
15905SOL     OW49488   9.439   0.842   7.584
15905SOL    HW149489   9.434   0.750   7.607
15905SOL    HW249490   9.378   0.886   7.643
15906SOL     OW49491   3.407  10.802   3.188
15906SOL    HW149492   3.499  10.827   3.180
15906SOL    HW249493   3.408  10.728   3.248
15907SOL     OW49494   7.938  14.249  10.287
15907SOL    HW149495   7.988  14.198  10.223
15907SOL    HW249496   7.848  14.249  10.253
15908SOL     OW49497  13.539   8.088  14.206
15908SOL    HW149498  13.518   8.007  14.159
15908SOL    HW249499  13.545   8.155  14.138
15909SOL     OW49500  13.362   0.265  14.308
15909SOL    HW149501  13.403   0.346  14.278
15909SOL    HW249502  13.350   0.214  14.227
15910SOL     OW49503   3.496   6.774   7.811
15910SOL    HW149504   3.492   6.778   7.715
15910SOL    HW249505   3.468   6.861   7.840
15911SOL     OW49506   3.187  11.534   9.672
15911SOL    HW149507   3.185  11.454   9.724
15911SOL    HW249508   3.138  11.598   9.724
15912SOL     OW49509   6.090   4.600  11.035
15912SOL    HW149510   6.040   4.615  11.115
15912SOL    HW249511   6.033   4.544  10.981
15913SOL     OW49512   0.984   7.472   3.886
15913SOL    HW149513   0.989   7.390   3.837
15913SOL    HW249514   0.979   7.540   3.818
15914SOL     OW49515   0.575   8.909   9.033
15914SOL    HW149516   0.528   8.944   9.108
15914SOL    HW249517   0.544   8.961   8.959
15915SOL     OW49518   5.870   5.174  12.970
15915SOL    HW149519   5.789   5.174  13.022
15915SOL    HW249520   5.912   5.091  12.991
15916SOL     OW49521   5.425   7.659  13.881
15916SOL    HW149522   5.332   7.664  13.904
15916SOL    HW249523   5.425   7.647  13.787
15917SOL     OW49524   3.412  10.358   4.162
15917SOL    HW149525   3.502  10.345   4.190
15917SOL    HW249526   3.373  10.414   4.229
15918SOL     OW49527   1.491   3.074  13.472
15918SOL    HW149528   1.425   3.044  13.536
15918SOL    HW249529   1.467   3.164  13.453
15919SOL     OW49530  13.267   8.348   4.288
15919SOL    HW149531  13.234   8.436   4.306
15919SOL    HW249532  13.352   8.345   4.331
15920SOL     OW49533  14.284  11.406   6.034
15920SOL    HW149534  14.331  11.485   6.060
15920SOL    HW249535  14.270  11.416   5.939
15921SOL     OW49536   6.601   9.779   6.977
15921SOL    HW149537   6.667   9.714   7.001
15921SOL    HW249538   6.545   9.734   6.915
15922SOL     OW49539   2.213  13.601  14.309
15922SOL    HW149540   2.210  13.647  14.393
15922SOL    HW249541   2.122  13.600  14.279
15923SOL     OW49542   7.753   1.662   1.934
15923SOL    HW149543   7.777   1.738   1.881
15923SOL    HW249544   7.662   1.644   1.911
15924SOL     OW49545   6.158   7.317  11.239
15924SOL    HW149546   6.090   7.252  11.253
15924SOL    HW249547   6.178   7.351  11.326
15925SOL     OW49548   9.464   0.338  13.132
15925SOL    HW149549   9.452   0.415  13.188
15925SOL    HW249550   9.550   0.304  13.156
15926SOL     OW49551   0.605   2.544   5.759
15926SOL    HW149552   0.514   2.523   5.740
15926SOL    HW249553   0.655   2.468   5.727
15927SOL     OW49554   5.898   9.914  13.014
15927SOL    HW149555   5.963   9.972  13.054
15927SOL    HW249556   5.852   9.875  13.089
15928SOL     OW49557   1.175   9.020  13.769
15928SOL    HW149558   1.262   9.013  13.808
15928SOL    HW249559   1.189   9.070  13.689
15929SOL     OW49560   3.092   7.537  10.491
15929SOL    HW149561   3.032   7.462  10.495
15929SOL    HW249562   3.134   7.529  10.405
15930SOL     OW49563   0.847  10.075   1.876
15930SOL    HW149564   0.886  10.162   1.872
15930SOL    HW249565   0.876  10.039   1.960
15931SOL     OW49566  13.234   6.016   9.105
15931SOL    HW149567  13.203   6.098   9.065
15931SOL    HW249568  13.209   5.948   9.043
15932SOL     OW49569  12.096   4.491   4.835
15932SOL    HW149570  12.024   4.531   4.786
15932SOL    HW249571  12.137   4.564   4.881
15933SOL     OW49572  13.899  13.460   2.079
15933SOL    HW149573  13.920  13.530   2.141
15933SOL    HW249574  13.973  13.460   2.018
15934SOL     OW49575   1.946   8.680  11.024
15934SOL    HW149576   1.958   8.768  10.989
15934SOL    HW249577   2.003   8.676  11.101
15935SOL     OW49578  11.881   1.046  13.899
15935SOL    HW149579  11.856   1.020  13.810
15935SOL    HW249580  11.797   1.056  13.945
15936SOL     OW49581  14.576   4.593   1.478
15936SOL    HW149582  14.483   4.584   1.460
15936SOL    HW249583  14.609   4.503   1.481
15937SOL     OW49584   5.660   8.639  10.332
15937SOL    HW149585   5.665   8.551  10.295
15937SOL    HW249586   5.568   8.650  10.357
15938SOL     OW49587   5.093  12.216   3.313
15938SOL    HW149588   5.168  12.262   3.350
15938SOL    HW249589   5.121  12.194   3.224
15939SOL     OW49590  12.480  13.375   5.188
15939SOL    HW149591  12.450  13.456   5.147
15939SOL    HW249592  12.445  13.305   5.134
15940SOL     OW49593   0.823   5.515   2.597
15940SOL    HW149594   0.910   5.516   2.636
15940SOL    HW249595   0.787   5.602   2.616
15941SOL     OW49596  14.155   9.176  11.021
15941SOL    HW149597  14.100   9.250  11.042
15941SOL    HW249598  14.099   9.117  10.970
15942SOL     OW49599  11.127   1.917   2.890
15942SOL    HW149600  11.198   1.933   2.828
15942SOL    HW249601  11.089   1.834   2.863
15943SOL     OW49602   6.026  10.136   5.025
15943SOL    HW149603   5.978  10.056   5.006
15943SOL    HW249604   5.998  10.161   5.113
15944SOL     OW49605   4.984   8.741   4.592
15944SOL    HW149606   5.042   8.804   4.550
15944SOL    HW249607   5.035   8.660   4.596
15945SOL     OW49608   6.005  14.333   8.879
15945SOL    HW149609   5.944  14.260   8.885
15945SOL    HW249610   6.013  14.351   8.786
15946SOL     OW49611  11.771  12.665  11.684
15946SOL    HW149612  11.760  12.730  11.615
15946SOL    HW249613  11.803  12.714  11.759
15947SOL     OW49614  11.244   7.861   4.005
15947SOL    HW149615  11.262   7.786   4.062
15947SOL    HW249616  11.303   7.929   4.037
15948SOL     OW49617  14.013  12.879   6.795
15948SOL    HW149618  13.928  12.898   6.835
15948SOL    HW249619  14.008  12.786   6.773
15949SOL     OW49620   5.682   1.649  14.625
15949SOL    HW149621   5.694   1.736  14.661
15949SOL    HW249622   5.702   1.658  14.532
15950SOL     OW49623  12.814   8.093  11.915
15950SOL    HW149624  12.840   8.062  12.002
15950SOL    HW249625  12.879   8.056  11.856
15951SOL     OW49626   9.779   3.335   6.843
15951SOL    HW149627   9.851   3.389   6.808
15951SOL    HW249628   9.777   3.259   6.785
15952SOL     OW49629   1.495   2.230   9.830
15952SOL    HW149630   1.408   2.248   9.795
15952SOL    HW249631   1.529   2.159   9.775
15953SOL     OW49632   6.768   5.003   9.244
15953SOL    HW149633   6.730   4.947   9.312
15953SOL    HW249634   6.813   5.072   9.292
15954SOL     OW49635   7.642   6.930   2.027
15954SOL    HW149636   7.581   6.999   2.001
15954SOL    HW249637   7.691   6.967   2.100
15955SOL     OW49638   8.100   3.290   4.185
15955SOL    HW149639   8.097   3.364   4.246
15955SOL    HW249640   8.148   3.322   4.109
15956SOL     OW49641   4.967   8.216   4.640
15956SOL    HW149642   4.902   8.171   4.586
15956SOL    HW249643   5.051   8.194   4.600
15957SOL     OW49644   6.170   8.861   3.304
15957SOL    HW149645   6.198   8.811   3.381
15957SOL    HW249646   6.075   8.861   3.308
15958SOL     OW49647  10.656   0.996  13.353
15958SOL    HW149648  10.648   0.973  13.445
15958SOL    HW249649  10.666   1.091  13.353
15959SOL     OW49650   2.852  14.413   4.057
15959SOL    HW149651   2.782  14.434   3.995
15959SOL    HW249652   2.832  14.468   4.133
15960SOL     OW49653  14.265   2.860   5.305
15960SOL    HW149654  14.284   2.789   5.244
15960SOL    HW249655  14.220   2.926   5.252
15961SOL     OW49656   1.529   5.382   9.189
15961SOL    HW149657   1.561   5.297   9.217
15961SOL    HW249658   1.436   5.368   9.171
15962SOL     OW49659   4.202   2.670  12.921
15962SOL    HW149660   4.255   2.658  12.999
15962SOL    HW249661   4.260   2.647  12.848
15963SOL     OW49662   1.745   9.230   3.130
15963SOL    HW149663   1.792   9.268   3.056
15963SOL    HW249664   1.761   9.136   3.123
15964SOL     OW49665  10.849   8.151   7.944
15964SOL    HW149666  10.900   8.074   7.970
15964SOL    HW249667  10.773   8.115   7.898
15965SOL     OW49668  10.361  12.775   1.434
15965SOL    HW149669  10.294  12.816   1.488
15965SOL    HW249670  10.313  12.722   1.371
15966SOL     OW49671   0.176  11.766  12.126
15966SOL    HW149672   0.091  11.731  12.100
15966SOL    HW249673   0.192  11.838  12.066
15967SOL     OW49674   3.284   8.843  13.239
15967SOL    HW149675   3.330   8.832  13.155
15967SOL    HW249676   3.232   8.763  13.249
15968SOL     OW49677   2.355   1.070  13.832
15968SOL    HW149678   2.349   1.166  13.826
15968SOL    HW249679   2.329   1.050  13.922
15969SOL     OW49680  12.768  12.449   3.098
15969SOL    HW149681  12.816  12.366   3.092
15969SOL    HW249682  12.832  12.515   3.074
15970SOL     OW49683   7.134   8.058   6.839
15970SOL    HW149684   7.099   8.147   6.838
15970SOL    HW249685   7.129   8.029   6.748
15971SOL     OW49686   6.929  13.535   6.251
15971SOL    HW149687   6.845  13.576   6.228
15971SOL    HW249688   6.915  13.501   6.339
15972SOL     OW49689  12.562   6.602   8.390
15972SOL    HW149690  12.487   6.661   8.380
15972SOL    HW249691  12.583   6.575   8.300
15973SOL     OW49692  11.099  13.088   7.801
15973SOL    HW149693  11.089  13.003   7.844
15973SOL    HW249694  11.016  13.132   7.817
15974SOL     OW49695  13.145   5.106   4.558
15974SOL    HW149696  13.104   5.188   4.531
15974SOL    HW249697  13.172   5.065   4.475
15975SOL     OW49698  11.755  12.548   4.389
15975SOL    HW149699  11.734  12.632   4.429
15975SOL    HW249700  11.670  12.506   4.376
15976SOL     OW49701  11.261   6.817  10.949
15976SOL    HW149702  11.279   6.804  11.042
15976SOL    HW249703  11.321   6.757  10.905
15977SOL     OW49704   6.668   4.846   8.793
15977SOL    HW149705   6.632   4.759   8.775
15977SOL    HW249706   6.720   4.834   8.873
15978SOL     OW49707   9.818  13.243   8.420
15978SOL    HW149708   9.857  13.173   8.368
15978SOL    HW249709   9.750  13.200   8.472
15979SOL     OW49710   3.964   3.966   1.927
15979SOL    HW149711   3.983   3.872   1.934
15979SOL    HW249712   4.002   3.992   1.843
15980SOL     OW49713   0.326   0.787   0.876
15980SOL    HW149714   0.266   0.732   0.926
15980SOL    HW249715   0.302   0.772   0.784
15981SOL     OW49716   4.965   1.848  13.250
15981SOL    HW149717   5.048   1.842  13.203
15981SOL    HW249718   4.903   1.798  13.196
15982SOL     OW49719   6.603  12.810   6.192
15982SOL    HW149720   6.606  12.775   6.103
15982SOL    HW249721   6.694  12.833   6.212
15983SOL     OW49722   0.343  12.601  13.134
15983SOL    HW149723   0.432  12.604  13.098
15983SOL    HW249724   0.351  12.546  13.213
15984SOL     OW49725  11.970  14.297  10.116
15984SOL    HW149726  12.008  14.217  10.153
15984SOL    HW249727  11.913  14.266  10.046
15985SOL     OW49728   8.567   3.693   0.098
15985SOL    HW149729   8.600   3.627   0.158
15985SOL    HW249730   8.607   3.671   0.014
15986SOL     OW49731   5.772   9.170   9.071
15986SOL    HW149732   5.861   9.188   9.041
15986SOL    HW249733   5.734   9.256   9.090
15987SOL     OW49734   8.990   5.745   6.822
15987SOL    HW149735   9.024   5.809   6.885
15987SOL    HW249736   9.057   5.677   6.819
15988SOL     OW49737   5.334  10.771   4.016
15988SOL    HW149738   5.311  10.721   3.937
15988SOL    HW249739   5.425  10.747   4.034
15989SOL     OW49740   6.685   0.466   1.277
15989SOL    HW149741   6.758   0.454   1.216
15989SOL    HW249742   6.611   0.423   1.233
15990SOL     OW49743   0.734  13.587  10.748
15990SOL    HW149744   0.651  13.602  10.793
15990SOL    HW249745   0.799  13.632  10.803
15991SOL     OW49746   8.083  12.292   3.063
15991SOL    HW149747   8.126  12.305   3.148
15991SOL    HW249748   8.003  12.345   3.068
15992SOL     OW49749   1.044   6.376   4.557
15992SOL    HW149750   0.998   6.294   4.537
15992SOL    HW249751   1.115   6.349   4.616
15993SOL     OW49752   6.853   3.209   5.393
15993SOL    HW149753   6.942   3.225   5.364
15993SOL    HW249754   6.807   3.179   5.314
15994SOL     OW49755  12.723   0.125  12.767
15994SOL    HW149756  12.817   0.139  12.763
15994SOL    HW249757  12.687   0.208  12.798
15995SOL     OW49758  10.251   5.442   1.699
15995SOL    HW149759  10.308   5.483   1.635
15995SOL    HW249760  10.187   5.393   1.647
15996SOL     OW49761  13.358   3.738   7.996
15996SOL    HW149762  13.417   3.740   8.070
15996SOL    HW249763  13.296   3.810   8.012
15997SOL     OW49764   6.648   2.748   3.122
15997SOL    HW149765   6.678   2.657   3.114
15997SOL    HW249766   6.565   2.741   3.169
15998SOL     OW49767   9.077   4.648   4.495
15998SOL    HW149768   9.171   4.661   4.497
15998SOL    HW249769   9.057   4.627   4.404
15999SOL     OW49770  13.782   9.949   3.031
15999SOL    HW149771  13.748  10.014   3.093
15999SOL    HW249772  13.812  10.000   2.956
16000SOL     OW49773  12.043  10.348   8.295
16000SOL    HW149774  12.080  10.381   8.214
16000SOL    HW249775  11.996  10.268   8.270
16001SOL     OW49776   4.151  12.263  14.381
16001SOL    HW149777   4.164  12.169  14.396
16001SOL    HW249778   4.122  12.298  14.465
16002SOL     OW49779   2.646   5.365   8.263
16002SOL    HW149780   2.592   5.313   8.322
16002SOL    HW249781   2.593   5.443   8.245
16003SOL     OW49782  12.813   5.329   3.782
16003SOL    HW149783  12.721   5.324   3.756
16003SOL    HW249784  12.813   5.376   3.865
16004SOL     OW49785   9.717  12.129  12.389
16004SOL    HW149786   9.679  12.144  12.476
16004SOL    HW249787   9.754  12.041  12.394
16005SOL     OW49788   7.214   9.308   7.037
16005SOL    HW149789   7.192   9.221   7.070
16005SOL    HW249790   7.138   9.335   6.985
16006SOL     OW49791   2.396   4.821   6.868
16006SOL    HW149792   2.321   4.831   6.926
16006SOL    HW249793   2.468   4.794   6.926
16007SOL     OW49794   3.314   4.763  12.419
16007SOL    HW149795   3.290   4.833  12.480
16007SOL    HW249796   3.239   4.757  12.360
16008SOL     OW49797   9.681  11.451   0.845
16008SOL    HW149798   9.713  11.387   0.781
16008SOL    HW249799   9.734  11.529   0.828
16009SOL     OW49800   7.376   4.553  10.233
16009SOL    HW149801   7.363   4.641  10.267
16009SOL    HW249802   7.431   4.564  10.155
16010SOL     OW49803   0.648  12.789   1.699
16010SOL    HW149804   0.683  12.803   1.611
16010SOL    HW249805   0.725  12.776   1.754
16011SOL     OW49806  10.743   3.003   7.466
16011SOL    HW149807  10.702   2.975   7.384
16011SOL    HW249808  10.683   2.971   7.534
16012SOL     OW49809   7.913   1.320   7.101
16012SOL    HW149810   7.910   1.298   7.008
16012SOL    HW249811   8.004   1.345   7.116
16013SOL     OW49812   0.960   9.096  14.207
16013SOL    HW149813   0.961   9.080  14.112
16013SOL    HW249814   0.869   9.080  14.232
16014SOL     OW49815   5.897   8.051  14.447
16014SOL    HW149816   5.884   8.026  14.356
16014SOL    HW249817   5.984   8.017  14.469
16015SOL     OW49818   5.786   6.109   2.715
16015SOL    HW149819   5.703   6.106   2.667
16015SOL    HW249820   5.828   6.025   2.696
16016SOL     OW49821   0.988  13.392  10.063
16016SOL    HW149822   0.928  13.460  10.032
16016SOL    HW249823   1.037  13.434  10.134
16017SOL     OW49824   9.499   9.771   9.803
16017SOL    HW149825   9.567   9.767   9.870
16017SOL    HW249826   9.448   9.691   9.815
16018SOL     OW49827  14.832   9.026   6.473
16018SOL    HW149828  14.759   8.985   6.427
16018SOL    HW249829   0.010   8.953   6.498
16019SOL     OW49830   3.247   0.292   1.105
16019SOL    HW149831   3.189   0.254   1.039
16019SOL    HW249832   3.202   0.372   1.133
16020SOL     OW49833   5.293   5.356   7.201
16020SOL    HW149834   5.202   5.375   7.218
16020SOL    HW249835   5.299   5.260   7.205
16021SOL     OW49836   4.552   5.931  10.137
16021SOL    HW149837   4.635   5.884  10.140
16021SOL    HW249838   4.577   6.022  10.116
16022SOL     OW49839   9.244   0.310   0.392
16022SOL    HW149840   9.182   0.365   0.439
16022SOL    HW249841   9.190   0.259   0.332
16023SOL     OW49842  12.022  11.180  12.688
16023SOL    HW149843  12.039  11.124  12.764
16023SOL    HW249844  12.052  11.267  12.715
16024SOL     OW49845   1.536  10.540  10.051
16024SOL    HW149846   1.516  10.620  10.098
16024SOL    HW249847   1.457  10.521  10.000
16025SOL     OW49848  11.554  11.941   1.770
16025SOL    HW149849  11.642  11.938   1.734
16025SOL    HW249850  11.553  12.018   1.827
16026SOL     OW49851   9.293   7.841  11.908
16026SOL    HW149852   9.380   7.846  11.948
16026SOL    HW249853   9.239   7.896  11.965
16027SOL     OW49854  13.109  12.292  13.008
16027SOL    HW149855  13.177  12.326  13.065
16027SOL    HW249856  13.089  12.364  12.948
16028SOL     OW49857   8.772   6.215  14.355
16028SOL    HW149858   8.706   6.200  14.424
16028SOL    HW249859   8.730   6.184  14.275
16029SOL     OW49860   8.908   5.594   8.762
16029SOL    HW149861   8.832   5.546   8.794
16029SOL    HW249862   8.983   5.540   8.788
16030SOL     OW49863   4.662   0.223  11.039
16030SOL    HW149864   4.743   0.189  11.002
16030SOL    HW249865   4.663   0.316  11.017
16031SOL     OW49866   7.970   2.576   4.814
16031SOL    HW149867   7.928   2.491   4.802
16031SOL    HW249868   7.913   2.623   4.875
16032SOL     OW49869  10.280   0.627   4.586
16032SOL    HW149870  10.210   0.573   4.550
16032SOL    HW249871  10.235   0.691   4.641
16033SOL     OW49872   9.974  10.979   2.073
16033SOL    HW149873   9.971  10.898   2.023
16033SOL    HW249874   9.893  10.979   2.124
16034SOL     OW49875  10.630   2.584  14.448
16034SOL    HW149876  10.701   2.583  14.512
16034SOL    HW249877  10.552   2.564  14.500
16035SOL     OW49878   2.999   2.763   0.442
16035SOL    HW149879   3.054   2.723   0.508
16035SOL    HW249880   2.977   2.849   0.477
16036SOL     OW49881  11.673   8.670  11.224
16036SOL    HW149882  11.655   8.760  11.249
16036SOL    HW249883  11.611   8.618  11.276
16037SOL     OW49884   0.990   3.586   4.377
16037SOL    HW149885   0.898   3.595   4.402
16037SOL    HW249886   0.987   3.537   4.295
16038SOL     OW49887   5.195   5.369   0.406
16038SOL    HW149888   5.200   5.458   0.440
16038SOL    HW249889   5.285   5.347   0.380
16039SOL     OW49890   3.810   2.495  10.987
16039SOL    HW149891   3.784   2.403  10.985
16039SOL    HW249892   3.792   2.527  10.899
16040SOL     OW49893  14.146   8.363   5.004
16040SOL    HW149894  14.218   8.379   5.064
16040SOL    HW249895  14.147   8.268   4.990
16041SOL     OW49896  11.541   7.737   5.212
16041SOL    HW149897  11.618   7.780   5.249
16041SOL    HW249898  11.538   7.766   5.121
16042SOL     OW49899   5.302   9.437   0.442
16042SOL    HW149900   5.311   9.531   0.428
16042SOL    HW249901   5.388   9.401   0.421
16043SOL     OW49902   0.662  14.327  10.232
16043SOL    HW149903   0.742  14.341  10.181
16043SOL    HW249904   0.660  14.401  10.293
16044SOL     OW49905  13.344   2.195   2.481
16044SOL    HW149906  13.349   2.252   2.558
16044SOL    HW249907  13.430   2.204   2.439
16045SOL     OW49908  14.567   2.277  13.723
16045SOL    HW149909  14.533   2.227  13.648
16045SOL    HW249910  14.639   2.223  13.757
16046SOL     OW49911   0.372   7.741   9.035
16046SOL    HW149912   0.353   7.789   8.954
16046SOL    HW249913   0.462   7.712   9.025
16047SOL     OW49914   9.568   2.523  10.089
16047SOL    HW149915   9.661   2.524  10.067
16047SOL    HW249916   9.529   2.463  10.025
16048SOL     OW49917   9.745   6.907   7.518
16048SOL    HW149918   9.721   6.999   7.526
16048SOL    HW249919   9.718   6.868   7.601
16049SOL     OW49920  14.233   3.265   2.635
16049SOL    HW149921  14.300   3.200   2.652
16049SOL    HW249922  14.229   3.317   2.715
16050SOL     OW49923  12.721   7.478   4.375
16050SOL    HW149924  12.727   7.406   4.437
16050SOL    HW249925  12.689   7.438   4.294
16051SOL     OW49926   8.732   1.296  12.028
16051SOL    HW149927   8.649   1.251  12.016
16051SOL    HW249928   8.762   1.317  11.940
16052SOL     OW49929   3.611  11.783   3.245
16052SOL    HW149930   3.697  11.807   3.278
16052SOL    HW249931   3.550  11.840   3.292
16053SOL     OW49932   5.709  14.116  14.314
16053SOL    HW149933   5.781  14.053  14.320
16053SOL    HW249934   5.641  14.081  14.372
16054SOL     OW49935   5.402   1.640   0.461
16054SOL    HW149936   5.467   1.673   0.524
16054SOL    HW249937   5.356   1.571   0.508
16055SOL     OW49938  10.221   6.420  12.502
16055SOL    HW149939  10.272   6.352  12.458
16055SOL    HW249940  10.215   6.491  12.437
16056SOL     OW49941   0.981   4.483   8.602
16056SOL    HW149942   0.969   4.398   8.560
16056SOL    HW249943   0.896   4.526   8.592
16057SOL     OW49944   4.608   7.787   4.351
16057SOL    HW149945   4.582   7.874   4.321
16057SOL    HW249946   4.529   7.750   4.390
16058SOL     OW49947  10.449  10.161   1.071
16058SOL    HW149948  10.355  10.178   1.064
16058SOL    HW249949  10.480  10.224   1.137
16059SOL     OW49950   6.457   1.370   1.087
16059SOL    HW149951   6.492   1.459   1.080
16059SOL    HW249952   6.526   1.315   1.048
16060SOL     OW49953   1.191  14.577  11.033
16060SOL    HW149954   1.266  14.566  11.091
16060SOL    HW249955   1.147  14.656  11.066
16061SOL     OW49956   4.142   1.508   5.636
16061SOL    HW149957   4.230   1.477   5.657
16061SOL    HW249958   4.097   1.432   5.600
16062SOL     OW49959   7.128   0.926   7.255
16062SOL    HW149960   7.044   0.967   7.277
16062SOL    HW249961   7.148   0.871   7.330
16063SOL     OW49962  11.011   8.304   6.339
16063SOL    HW149963  11.029   8.388   6.297
16063SOL    HW249964  11.050   8.239   6.280
16064SOL     OW49965   7.964  11.098  10.247
16064SOL    HW149966   8.006  11.092  10.161
16064SOL    HW249967   7.961  11.192  10.266
16065SOL     OW49968   4.805   0.259   0.573
16065SOL    HW149969   4.842   0.258   0.661
16065SOL    HW249970   4.712   0.239   0.585
16066SOL     OW49971   0.829   7.708   4.737
16066SOL    HW149972   0.742   7.696   4.699
16066SOL    HW249973   0.837   7.802   4.750
16067SOL     OW49974  10.371  13.682   0.138
16067SOL    HW149975  10.412  13.677   0.224
16067SOL    HW249976  10.350  13.775   0.127
16068SOL     OW49977   5.095  13.348  14.604
16068SOL    HW149978   5.157  13.421  14.597
16068SOL    HW249979   5.009  13.388  14.594
16069SOL     OW49980   7.357  14.684   9.762
16069SOL    HW149981   7.450  14.696   9.783
16069SOL    HW249982   7.332  14.602   9.804
16070SOL     OW49983   7.620   9.184  11.161
16070SOL    HW149984   7.655   9.255  11.106
16070SOL    HW249985   7.527   9.202  11.167
16071SOL     OW49986   2.593   4.495   2.292
16071SOL    HW149987   2.629   4.528   2.209
16071SOL    HW249988   2.587   4.573   2.348
16072SOL     OW49989   3.475   3.281   7.413
16072SOL    HW149990   3.398   3.299   7.468
16072SOL    HW249991   3.516   3.205   7.453
16073SOL     OW49992  13.913   9.693  14.110
16073SOL    HW149993  13.985   9.752  14.133
16073SOL    HW249994  13.954   9.622  14.061
16074SOL     OW49995   3.879  12.186   3.124
16074SOL    HW149996   3.855  12.100   3.090
16074SOL    HW249997   3.926  12.228   3.052
16075SOL     OW49998  11.099  11.777   5.227
16075SOL    HW149999  11.136  11.691   5.207
16075SOL    HW250000  11.149  11.809   5.302
16076SOL     OW50001   4.684   2.332   7.809
16076SOL    HW150002   4.683   2.422   7.776
16076SOL    HW250003   4.592   2.308   7.815
16077SOL     OW50004   8.250   4.868   6.085
16077SOL    HW150005   8.301   4.949   6.095
16077SOL    HW250006   8.237   4.837   6.174
16078SOL     OW50007   6.894   4.364   6.542
16078SOL    HW150008   6.821   4.406   6.586
16078SOL    HW250009   6.970   4.383   6.597
16079SOL     OW50010   4.662   1.206  11.785
16079SOL    HW150011   4.688   1.146  11.855
16079SOL    HW250012   4.738   1.263  11.772
16080SOL     OW50013   7.358   8.156   0.545
16080SOL    HW150014   7.416   8.204   0.604
16080SOL    HW250015   7.417   8.115   0.481
16081SOL     OW50016  10.143  13.086  13.151
16081SOL    HW150017  10.120  13.027  13.079
16081SOL    HW250018  10.119  13.173  13.118
16082SOL     OW50019   0.421   7.937   5.816
16082SOL    HW150020   0.455   7.938   5.906
16082SOL    HW250021   0.337   7.893   5.823
16083SOL     OW50022   8.838  11.628   2.861
16083SOL    HW150023   8.770  11.638   2.927
16083SOL    HW250024   8.852  11.534   2.854
16084SOL     OW50025  12.416  14.036   5.239
16084SOL    HW150026  12.510  14.050   5.226
16084SOL    HW250027  12.379  14.125   5.243
16085SOL     OW50028   2.652  12.978   9.293
16085SOL    HW150029   2.733  12.996   9.244
16085SOL    HW250030   2.592  13.047   9.266
16086SOL     OW50031   7.688   2.724   5.921
16086SOL    HW150032   7.764   2.750   5.870
16086SOL    HW250033   7.690   2.628   5.921
16087SOL     OW50034  10.116  13.919   9.070
16087SOL    HW150035  10.107  13.993   9.131
16087SOL    HW250036  10.080  13.951   8.988
16088SOL     OW50037  10.143   7.030  12.418
16088SOL    HW150038  10.194   7.104  12.386
16088SOL    HW250039  10.209   6.963  12.438
16089SOL     OW50040   4.515   3.445  12.065
16089SOL    HW150041   4.425   3.463  12.038
16089SOL    HW250042   4.566   3.450  11.984
16090SOL     OW50043   0.082  12.937   4.100
16090SOL    HW150044  14.867  12.924   4.119
16090SOL    HW250045   0.103  13.022   4.137
16091SOL     OW50046   3.247   6.272  11.035
16091SOL    HW150047   3.176   6.320  11.077
16091SOL    HW250048   3.218   6.259  10.945
16092SOL     OW50049   0.313  14.094   3.428
16092SOL    HW150050   0.358  14.067   3.507
16092SOL    HW250051   0.221  14.080   3.446
16093SOL     OW50052   6.780   9.563   2.840
16093SOL    HW150053   6.769   9.621   2.916
16093SOL    HW250054   6.870   9.532   2.846
16094SOL     OW50055   8.771   8.430  14.348
16094SOL    HW150056   8.767   8.519  14.382
16094SOL    HW250057   8.785   8.441  14.254
16095SOL     OW50058   9.070   3.540   5.624
16095SOL    HW150059   9.153   3.556   5.580
16095SOL    HW250060   9.018   3.492   5.559
16096SOL     OW50061  11.273   8.403   2.200
16096SOL    HW150062  11.223   8.485   2.209
16096SOL    HW250063  11.233   8.344   2.263
16097SOL     OW50064   9.762   0.738   0.728
16097SOL    HW150065   9.734   0.740   0.819
16097SOL    HW250066   9.841   0.793   0.726
16098SOL     OW50067   1.298  14.476  10.541
16098SOL    HW150068   1.270  14.542  10.604
16098SOL    HW250069   1.394  14.482  10.542
16099SOL     OW50070   2.144   0.559   2.692
16099SOL    HW150071   2.091   0.545   2.771
16099SOL    HW250072   2.201   0.632   2.715
16100SOL     OW50073   1.896   0.326  10.354
16100SOL    HW150074   1.803   0.334  10.333
16100SOL    HW250075   1.929   0.261  10.293
16101SOL     OW50076  14.000   1.235  10.937
16101SOL    HW150077  14.086   1.277  10.929
16101SOL    HW250078  13.982   1.202  10.849
16102SOL     OW50079  12.682  11.947  10.934
16102SOL    HW150080  12.733  12.026  10.914
16102SOL    HW250081  12.691  11.892  10.856
16103SOL     OW50082   0.535   9.121   4.178
16103SOL    HW150083   0.605   9.146   4.237
16103SOL    HW250084   0.571   9.047   4.129
16104SOL     OW50085   8.727   5.446  10.604
16104SOL    HW150086   8.667   5.420  10.533
16104SOL    HW250087   8.670   5.487  10.669
16105SOL     OW50088  10.163   3.074   1.428
16105SOL    HW150089  10.083   3.081   1.378
16105SOL    HW250090  10.212   3.003   1.387
16106SOL     OW50091   5.530  13.672   3.334
16106SOL    HW150092   5.469  13.617   3.284
16106SOL    HW250093   5.571  13.613   3.397
16107SOL     OW50094  11.836   8.807   9.451
16107SOL    HW150095  11.929   8.826   9.452
16107SOL    HW250096  11.795   8.878   9.501
16108SOL     OW50097   8.928  11.220  14.415
16108SOL    HW150098   8.980  11.248  14.490
16108SOL    HW250099   8.838  11.222  14.446
16109SOL     OW50100   2.011  10.604   7.694
16109SOL    HW150101   2.092  10.628   7.651
16109SOL    HW250102   2.038  10.568   7.779
16110SOL     OW50103   5.638  12.652   8.782
16110SOL    HW150104   5.718  12.696   8.808
16110SOL    HW250105   5.594  12.713   8.723
16111SOL     OW50106   9.862   1.523   3.786
16111SOL    HW150107   9.804   1.483   3.851
16111SOL    HW250108   9.939   1.465   3.783
16112SOL     OW50109   2.168   5.783   9.683
16112SOL    HW150110   2.223   5.750   9.754
16112SOL    HW250111   2.221   5.851   9.641
16113SOL     OW50112   3.096   6.597  14.795
16113SOL    HW150113   3.011   6.642  14.791
16113SOL    HW250114   3.079   6.509  14.760
16114SOL     OW50115   3.563   2.855  11.947
16114SOL    HW150116   3.588   2.931  11.895
16114SOL    HW250117   3.539   2.789  11.882
16115SOL     OW50118  10.877  12.706   4.483
16115SOL    HW150119  10.821  12.707   4.561
16115SOL    HW250120  10.815  12.698   4.410
16116SOL     OW50121  14.857   9.084   2.574
16116SOL    HW150122   0.001   9.050   2.661
16116SOL    HW250123   0.063   9.085   2.528
16117SOL     OW50124  12.374   7.142   5.172
16117SOL    HW150125  12.352   7.146   5.079
16117SOL    HW250126  12.405   7.230   5.194
16118SOL     OW50127   5.896  12.005   1.850
16118SOL    HW150128   5.902  11.914   1.877
16118SOL    HW250129   5.831  12.043   1.910
16119SOL     OW50130   0.705  10.063   9.793
16119SOL    HW150131   0.754  10.011   9.858
16119SOL    HW250132   0.645  10.000   9.753
16120SOL     OW50133   9.717   0.677  10.028
16120SOL    HW150134   9.729   0.600   9.972
16120SOL    HW250135   9.692   0.747   9.967
16121SOL     OW50136   2.936  13.177   2.602
16121SOL    HW150137   2.998  13.107   2.621
16121SOL    HW250138   2.862  13.160   2.661
16122SOL     OW50139   7.830   6.587   0.658
16122SOL    HW150140   7.925   6.579   0.663
16122SOL    HW250141   7.797   6.536   0.732
16123SOL     OW50142   8.303  12.738   3.892
16123SOL    HW150143   8.372  12.771   3.834
16123SOL    HW250144   8.222  12.752   3.843
16124SOL     OW50145   3.724   1.256   4.220
16124SOL    HW150146   3.651   1.198   4.196
16124SOL    HW250147   3.702   1.286   4.308
16125SOL     OW50148   7.590  11.818   0.695
16125SOL    HW150149   7.561  11.730   0.718
16125SOL    HW250150   7.566  11.872   0.770
16126SOL     OW50151   1.871  14.736   1.941
16126SOL    HW150152   1.895  14.658   1.990
16126SOL    HW250153   1.778  14.727   1.923
16127SOL     OW50154   7.499  12.950   9.222
16127SOL    HW150155   7.552  12.940   9.301
16127SOL    HW250156   7.562  12.977   9.155
16128SOL     OW50157  13.464   1.847   7.808
16128SOL    HW150158  13.527   1.918   7.819
16128SOL    HW250159  13.504   1.789   7.743
16129SOL     OW50160   8.110   5.887   9.440
16129SOL    HW150161   8.166   5.829   9.491
16129SOL    HW250162   8.164   5.966   9.428
16130SOL     OW50163   9.812   0.965   4.002
16130SOL    HW150164   9.775   0.976   4.090
16130SOL    HW250165   9.818   0.870   3.991
16131SOL     OW50166   7.663   9.059  14.538
16131SOL    HW150167   7.689   9.064  14.630
16131SOL    HW250168   7.745   9.067  14.489
16132SOL     OW50169   0.173   7.586   3.166
16132SOL    HW150170   0.232   7.576   3.092
16132SOL    HW250171   0.086   7.595   3.127
16133SOL     OW50172   8.352  12.005   8.094
16133SOL    HW150173   8.335  11.961   8.010
16133SOL    HW250174   8.444  11.987   8.111
16134SOL     OW50175   7.717   2.790   1.819
16134SOL    HW150176   7.775   2.803   1.744
16134SOL    HW250177   7.775   2.782   1.894
16135SOL     OW50178   3.082   6.160   2.076
16135SOL    HW150179   3.075   6.223   2.147
16135SOL    HW250180   2.994   6.122   2.069
16136SOL     OW50181  14.715   1.037   0.608
16136SOL    HW150182  14.741   0.946   0.604
16136SOL    HW250183  14.793   1.084   0.635
16137SOL     OW50184   2.968   9.781  10.527
16137SOL    HW150185   3.048   9.803  10.575
16137SOL    HW250186   2.913   9.859  10.534
16138SOL     OW50187   9.418   4.562   6.325
16138SOL    HW150188   9.485   4.493   6.323
16138SOL    HW250189   9.467   4.644   6.328
16139SOL     OW50190  12.093   6.809   5.917
16139SOL    HW150191  12.034   6.787   5.989
16139SOL    HW250192  12.036   6.850   5.852
16140SOL     OW50193   3.463   9.178   3.114
16140SOL    HW150194   3.405   9.235   3.163
16140SOL    HW250195   3.440   9.089   3.143
16141SOL     OW50196   0.610  10.509  12.783
16141SOL    HW150197   0.580  10.507  12.874
16141SOL    HW250198   0.642  10.420  12.767
16142SOL     OW50199   6.097   2.315   5.340
16142SOL    HW150200   6.185   2.309   5.378
16142SOL    HW250201   6.111   2.316   5.246
16143SOL     OW50202   5.011   0.555   8.202
16143SOL    HW150203   4.918   0.536   8.210
16143SOL    HW250204   5.050   0.474   8.168
16144SOL     OW50205   2.124   3.374   2.859
16144SOL    HW150206   2.033   3.360   2.833
16144SOL    HW250207   2.128   3.343   2.949
16145SOL     OW50208   2.932  12.394  11.835
16145SOL    HW150209   2.886  12.355  11.909
16145SOL    HW250210   3.007  12.440  11.874
16146SOL     OW50211   2.646   5.980   7.173
16146SOL    HW150212   2.664   5.918   7.244
16146SOL    HW250213   2.564   5.949   7.135
16147SOL     OW50214  12.701  13.006   3.681
16147SOL    HW150215  12.723  13.048   3.598
16147SOL    HW250216  12.612  12.974   3.669
16148SOL     OW50217   5.273   7.932   2.884
16148SOL    HW150218   5.251   7.841   2.864
16148SOL    HW250219   5.250   7.981   2.805
16149SOL     OW50220   7.507   8.801   5.856
16149SOL    HW150221   7.597   8.832   5.849
16149SOL    HW250222   7.514   8.712   5.889
16150SOL     OW50223   0.729   3.109   2.161
16150SOL    HW150224   0.684   3.188   2.189
16150SOL    HW250225   0.822   3.133   2.158
16151SOL     OW50226   5.994   6.124  11.065
16151SOL    HW150227   6.058   6.191  11.090
16151SOL    HW250228   5.913   6.172  11.049
16152SOL     OW50229  13.151  12.221  12.357
16152SOL    HW150230  13.201  12.269  12.291
16152SOL    HW250231  13.218  12.179  12.411
16153SOL     OW50232   9.280  13.389  10.729
16153SOL    HW150233   9.220  13.318  10.704
16153SOL    HW250234   9.236  13.434  10.801
16154SOL     OW50235  11.713   1.866   7.133
16154SOL    HW150236  11.649   1.818   7.186
16154SOL    HW250237  11.691   1.843   7.043
16155SOL     OW50238   5.807   9.353   9.512
16155SOL    HW150239   5.757   9.292   9.568
16155SOL    HW250240   5.877   9.385   9.568
16156SOL     OW50241   1.172  14.854   6.583
16156SOL    HW150242   1.134   0.024   6.656
16156SOL    HW250243   1.192  14.767   6.619
16157SOL     OW50244   9.573   7.657   6.975
16157SOL    HW150245   9.528   7.738   6.996
16157SOL    HW250246   9.619   7.634   7.056
16158SOL     OW50247   6.558   4.042   3.425
16158SOL    HW150248   6.586   4.000   3.507
16158SOL    HW250249   6.624   4.109   3.409
16159SOL     OW50250   5.766   3.988   4.218
16159SOL    HW150251   5.711   3.963   4.143
16159SOL    HW250252   5.706   3.987   4.293
16160SOL     OW50253   4.184   6.658  10.515
16160SOL    HW150254   4.215   6.615  10.594
16160SOL    HW250255   4.247   6.632  10.448
16161SOL     OW50256   0.406   1.298  12.794
16161SOL    HW150257   0.490   1.310  12.749
16161SOL    HW250258   0.425   1.234  12.863
16162SOL     OW50259   1.044   0.617   7.231
16162SOL    HW150260   1.062   0.688   7.293
16162SOL    HW250261   1.002   0.549   7.284
16163SOL     OW50262   1.861  10.678   8.367
16163SOL    HW150263   1.840  10.769   8.348
16163SOL    HW250264   1.803  10.654   8.439
16164SOL     OW50265   8.630   8.287   3.914
16164SOL    HW150266   8.571   8.294   3.839
16164SOL    HW250267   8.656   8.377   3.932
16165SOL     OW50268  10.216   0.522   0.306
16165SOL    HW150269  10.291   0.580   0.291
16165SOL    HW250270  10.234   0.446   0.251
16166SOL     OW50271  12.532  12.077   9.186
16166SOL    HW150272  12.585  12.156   9.194
16166SOL    HW250273  12.595  12.009   9.162
16167SOL     OW50274   5.233   3.560  13.764
16167SOL    HW150275   5.166   3.629  13.762
16167SOL    HW250276   5.184   3.479  13.752
16168SOL     OW50277   7.068   8.458   5.418
16168SOL    HW150278   7.156   8.494   5.404
16168SOL    HW250279   7.009   8.520   5.376
16169SOL     OW50280   7.211   6.510   9.156
16169SOL    HW150281   7.268   6.434   9.155
16169SOL    HW250282   7.250   6.568   9.222
16170SOL     OW50283  10.328  12.640   8.223
16170SOL    HW150284  10.288  12.725   8.241
16170SOL    HW250285  10.355  12.646   8.131
16171SOL     OW50286   0.334  11.806   5.696
16171SOL    HW150287   0.410  11.864   5.702
16171SOL    HW250288   0.262  11.856   5.735
16172SOL     OW50289  12.083  10.843   7.538
16172SOL    HW150290  12.029  10.899   7.594
16172SOL    HW250291  12.021  10.783   7.497
16173SOL     OW50292   3.660  12.109   6.022
16173SOL    HW150293   3.622  12.194   6.042
16173SOL    HW250294   3.602  12.072   5.955
16174SOL     OW50295   8.835   2.618   4.114
16174SOL    HW150296   8.776   2.670   4.059
16174SOL    HW250297   8.811   2.527   4.094
16175SOL     OW50298   7.847   6.983  13.294
16175SOL    HW150299   7.791   6.913  13.328
16175SOL    HW250300   7.883   7.025  13.372
16176SOL     OW50301  10.226  12.382  10.954
16176SOL    HW150302  10.310  12.426  10.953
16176SOL    HW250303  10.221  12.338  10.869
16177SOL     OW50304   1.881  13.400   9.587
16177SOL    HW150305   1.921  13.412   9.674
16177SOL    HW250306   1.797  13.444   9.593
16178SOL     OW50307  11.527  11.452   7.334
16178SOL    HW150308  11.477  11.533   7.327
16178SOL    HW250309  11.474  11.396   7.390
16179SOL     OW50310   5.039   4.059  12.677
16179SOL    HW150311   5.064   3.999  12.607
16179SOL    HW250312   4.960   4.020  12.715
16180SOL     OW50313   9.951   7.031   2.026
16180SOL    HW150314  10.008   7.023   2.102
16180SOL    HW250315   9.866   7.054   2.062
16181SOL     OW50316  11.096  10.048  12.086
16181SOL    HW150317  11.114  10.004  12.169
16181SOL    HW250318  11.075  10.138  12.110
16182SOL     OW50319  11.278   2.674   8.665
16182SOL    HW150320  11.267   2.761   8.703
16182SOL    HW250321  11.370   2.671   8.638
16183SOL     OW50322  10.525   0.935   9.669
16183SOL    HW150323  10.567   0.850   9.683
16183SOL    HW250324  10.551   0.960   9.580
16184SOL     OW50325   8.897  11.050   2.267
16184SOL    HW150326   8.812  11.055   2.225
16184SOL    HW250327   8.912  10.957   2.281
16185SOL     OW50328  11.858  14.409   9.089
16185SOL    HW150329  11.884  14.488   9.042
16185SOL    HW250330  11.921  14.403   9.161
16186SOL     OW50331   3.955  10.945  13.387
16186SOL    HW150332   4.039  10.949  13.340
16186SOL    HW250333   3.913  10.866  13.353
16187SOL     OW50334  11.177   1.603   3.302
16187SOL    HW150335  11.097   1.550   3.303
16187SOL    HW250336  11.199   1.613   3.210
16188SOL     OW50337   1.340   2.554   2.216
16188SOL    HW150338   1.308   2.576   2.129
16188SOL    HW250339   1.419   2.608   2.226
16189SOL     OW50340   4.331  14.480   3.786
16189SOL    HW150341   4.249  14.452   3.828
16189SOL    HW250342   4.395  14.414   3.813
16190SOL     OW50343   5.752  12.561   0.892
16190SOL    HW150344   5.806  12.482   0.886
16190SOL    HW250345   5.800  12.627   0.842
16191SOL     OW50346   2.639   7.558   3.766
16191SOL    HW150347   2.672   7.593   3.848
16191SOL    HW250348   2.545   7.545   3.780
16192SOL     OW50349   8.923   8.076  14.511
16192SOL    HW150350   8.837   8.101  14.476
16192SOL    HW250351   8.976   8.155  14.503
16193SOL     OW50352   2.904   9.063   5.516
16193SOL    HW150353   2.938   9.145   5.480
16193SOL    HW250354   2.817   9.086   5.550
16194SOL     OW50355   7.801   4.611  10.969
16194SOL    HW150356   7.878   4.626  11.024
16194SOL    HW250357   7.804   4.680  10.903
16195SOL     OW50358   5.320   5.074   2.138
16195SOL    HW150359   5.280   5.099   2.055
16195SOL    HW250360   5.413   5.091   2.126
16196SOL     OW50361  11.576   1.742   5.224
16196SOL    HW150362  11.613   1.830   5.229
16196SOL    HW250363  11.542   1.735   5.135
16197SOL     OW50364   0.986   5.335  12.771
16197SOL    HW150365   1.016   5.421  12.800
16197SOL    HW250366   0.941   5.351  12.688
16198SOL     OW50367  12.556  11.576   9.135
16198SOL    HW150368  12.479  11.561   9.189
16198SOL    HW250369  12.538  11.660   9.091
16199SOL     OW50370  10.364   9.620  11.504
16199SOL    HW150371  10.412   9.539  11.521
16199SOL    HW250372  10.432   9.686  11.488
16200SOL     OW50373  12.022   4.400   4.404
16200SOL    HW150374  11.949   4.461   4.393
16200SOL    HW250375  11.996   4.344   4.476
16201SOL     OW50376  11.657   0.543  11.235
16201SOL    HW150377  11.707   0.499  11.167
16201SOL    HW250378  11.621   0.620  11.193
16202SOL     OW50379  12.981  14.739   4.086
16202SOL    HW150380  12.981  14.793   4.165
16202SOL    HW250381  12.888  14.721   4.069
16203SOL     OW50382   8.971  12.546  10.789
16203SOL    HW150383   8.959  12.627  10.839
16203SOL    HW250384   8.910  12.484  10.829
16204SOL     OW50385  12.276  13.273   3.818
16204SOL    HW150386  12.190  13.255   3.856
16204SOL    HW250387  12.314  13.187   3.803
16205SOL     OW50388   2.620   2.387   3.498
16205SOL    HW150389   2.692   2.448   3.486
16205SOL    HW250390   2.662   2.302   3.511
16206SOL     OW50391   0.579   5.191   5.780
16206SOL    HW150392   0.553   5.252   5.849
16206SOL    HW250393   0.496   5.164   5.740
16207SOL     OW50394   7.455  13.579   4.573
16207SOL    HW150395   7.491  13.665   4.552
16207SOL    HW250396   7.409  13.592   4.656
16208SOL     OW50397   5.487   3.104  12.480
16208SOL    HW150398   5.460   3.013  12.466
16208SOL    HW250399   5.582   3.103  12.470
16209SOL     OW50400  14.586   7.138  12.914
16209SOL    HW150401  14.676   7.146  12.945
16209SOL    HW250402  14.580   7.199  12.840
16210SOL     OW50403  11.135   3.390   0.951
16210SOL    HW150404  11.179   3.474   0.958
16210SOL    HW250405  11.103   3.386   0.861
16211SOL     OW50406   3.346  11.505   0.658
16211SOL    HW150407   3.377  11.595   0.666
16211SOL    HW250408   3.422  11.452   0.681
16212SOL     OW50409   5.240   7.079   0.933
16212SOL    HW150410   5.323   7.032   0.942
16212SOL    HW250411   5.242   7.113   0.843
16213SOL     OW50412  10.695  13.029   3.603
16213SOL    HW150413  10.678  13.074   3.686
16213SOL    HW250414  10.777  12.980   3.619
16214SOL     OW50415  11.377   3.650  11.066
16214SOL    HW150416  11.312   3.602  11.116
16214SOL    HW250417  11.328   3.691  10.995
16215SOL     OW50418  14.016   9.057  11.808
16215SOL    HW150419  13.928   9.057  11.771
16215SOL    HW250420  14.006   9.020  11.896
16216SOL     OW50421  13.141  11.302  14.734
16216SOL    HW150422  13.221  11.354  14.731
16216SOL    HW250423  13.088  11.335  14.661
16217SOL     OW50424   0.314  13.898   4.254
16217SOL    HW150425   0.278  13.921   4.339
16217SOL    HW250426   0.344  13.982   4.217
16218SOL     OW50427  13.933   9.237   8.006
16218SOL    HW150428  13.989   9.177   8.055
16218SOL    HW250429  13.845   9.222   8.041
16219SOL     OW50430   9.354  13.547  10.360
16219SOL    HW150431   9.436  13.556  10.311
16219SOL    HW250432   9.370  13.591  10.443
16220SOL     OW50433   0.353   1.106   9.343
16220SOL    HW150434   0.297   1.181   9.362
16220SOL    HW250435   0.301   1.052   9.284
16221SOL     OW50436  13.634  13.486   2.722
16221SOL    HW150437  13.591  13.495   2.637
16221SOL    HW250438  13.703  13.552   2.721
16222SOL     OW50439   5.010   8.600   3.071
16222SOL    HW150440   4.961   8.572   3.148
16222SOL    HW250441   5.079   8.534   3.061
16223SOL     OW50442  10.198   6.045  13.026
16223SOL    HW150443  10.132   6.114  13.018
16223SOL    HW250444  10.155   5.976  13.076
16224SOL     OW50445   5.160   0.796   6.723
16224SOL    HW150446   5.191   0.853   6.653
16224SOL    HW250447   5.067   0.782   6.702
16225SOL     OW50448   1.310  12.570  10.348
16225SOL    HW150449   1.255  12.533  10.279
16225SOL    HW250450   1.324  12.497  10.409
16226SOL     OW50451   7.051  14.773  11.616
16226SOL    HW150452   7.039  14.841  11.682
16226SOL    HW250453   7.003  14.698  11.650
16227SOL     OW50454  10.252   8.534  10.904
16227SOL    HW150455  10.236   8.523  10.997
16227SOL    HW250456  10.174   8.577  10.870
16228SOL     OW50457   2.553   7.269  11.080
16228SOL    HW150458   2.514   7.338  11.133
16228SOL    HW250459   2.539   7.296  10.990
16229SOL     OW50460  13.217   1.439   4.794
16229SOL    HW150461  13.263   1.503   4.740
16229SOL    HW250462  13.176   1.491   4.864
16230SOL     OW50463   7.530   2.065   0.782
16230SOL    HW150464   7.596   2.045   0.848
16230SOL    HW250465   7.532   1.991   0.722
16231SOL     OW50466   0.222  10.895  10.215
16231SOL    HW150467   0.144  10.849  10.184
16231SOL    HW250468   0.247  10.951  10.142
16232SOL     OW50469  14.736   0.051  12.140
16232SOL    HW150470  14.658   0.104  12.120
16232SOL    HW250471  14.795   0.066  12.066
16233SOL     OW50472   1.679   1.212   7.113
16233SOL    HW150473   1.691   1.299   7.074
16233SOL    HW250474   1.625   1.165   7.049
16234SOL     OW50475   6.869  13.541  14.671
16234SOL    HW150476   6.920  13.593  14.609
16234SOL    HW250477   6.788  13.519  14.623
16235SOL     OW50478   6.200  14.256   3.323
16235SOL    HW150479   6.233  14.343   3.299
16235SOL    HW250480   6.178  14.214   3.239
16236SOL     OW50481   5.076   0.693   9.946
16236SOL    HW150482   5.006   0.638   9.981
16236SOL    HW250483   5.144   0.631   9.919
16237SOL     OW50484   9.530   1.592   9.198
16237SOL    HW150485   9.579   1.571   9.118
16237SOL    HW250486   9.441   1.611   9.168
16238SOL     OW50487   8.002   9.256   5.013
16238SOL    HW150488   8.038   9.181   5.061
16238SOL    HW250489   7.922   9.278   5.060
16239SOL     OW50490   9.068  14.076   1.841
16239SOL    HW150491   8.994  14.136   1.831
16239SOL    HW250492   9.125  14.097   1.767
16240SOL     OW50493   5.877   9.443   5.993
16240SOL    HW150494   5.914   9.527   5.965
16240SOL    HW250495   5.947   9.402   6.043
16241SOL     OW50496   4.356   1.454   7.550
16241SOL    HW150497   4.356   1.547   7.526
16241SOL    HW250498   4.300   1.412   7.485
16242SOL     OW50499   0.979  12.903  10.066
16242SOL    HW150500   1.007  12.994  10.057
16242SOL    HW250501   0.894  12.900  10.022
16243SOL     OW50502   2.737   2.229   0.746
16243SOL    HW150503   2.758   2.170   0.674
16243SOL    HW250504   2.821   2.245   0.789
16244SOL     OW50505   2.058  13.309  13.937
16244SOL    HW150506   1.988  13.358  13.894
16244SOL    HW250507   2.028  13.218  13.936
16245SOL     OW50508   4.530  11.794   6.831
16245SOL    HW150509   4.615  11.780   6.789
16245SOL    HW250510   4.485  11.858   6.775
16246SOL     OW50511  11.986   8.325   5.701
16246SOL    HW150512  11.964   8.355   5.789
16246SOL    HW250513  12.063   8.269   5.713
16247SOL     OW50514  14.163   0.074   5.446
16247SOL    HW150515  14.076   0.070   5.407
16247SOL    HW250516  14.170   0.163   5.481
16248SOL     OW50517   9.193  13.045  13.973
16248SOL    HW150518   9.118  13.105  13.967
16248SOL    HW250519   9.189  12.994  13.893
16249SOL     OW50520  11.366   4.911   7.497
16249SOL    HW150521  11.349   5.001   7.525
16249SOL    HW250522  11.320   4.902   7.414
16250SOL     OW50523   3.949   6.458   9.798
16250SOL    HW150524   3.868   6.409   9.780
16250SOL    HW250525   4.002   6.445   9.719
16251SOL     OW50526  13.283  11.132   3.048
16251SOL    HW150527  13.289  11.055   2.991
16251SOL    HW250528  13.191  11.136   3.072
16252SOL     OW50529   7.273   1.454   0.602
16252SOL    HW150530   7.285   1.359   0.612
16252SOL    HW250531   7.180   1.469   0.622
16253SOL     OW50532   0.101   0.051   0.018
16253SOL    HW150533   0.066  14.842  14.874
16253SOL    HW250534   0.166   0.033   0.086
16254SOL     OW50535  14.513  10.532   9.084
16254SOL    HW150536  14.596  10.504   9.123
16254SOL    HW250537  14.466  10.451   9.067
16255SOL     OW50538   5.040  10.005   3.163
16255SOL    HW150539   5.103  10.032   3.096
16255SOL    HW250540   4.978   9.949   3.117
16256SOL     OW50541   8.954   2.084  11.791
16256SOL    HW150542   8.901   2.155  11.755
16256SOL    HW250543   8.943   2.091  11.886
16257SOL     OW50544   9.761   3.942  14.415
16257SOL    HW150545   9.767   3.946  14.510
16257SOL    HW250546   9.685   3.886  14.398
16258SOL     OW50547   0.454   1.046   1.750
16258SOL    HW150548   0.371   1.046   1.798
16258SOL    HW250549   0.433   1.088   1.666
16259SOL     OW50550   5.470   8.675   4.219
16259SOL    HW150551   5.441   8.699   4.131
16259SOL    HW250552   5.393   8.636   4.260
16260SOL     OW50553   3.895   4.078   0.219
16260SOL    HW150554   3.818   4.022   0.232
16260SOL    HW250555   3.882   4.151   0.279
16261SOL     OW50556  12.342  13.925  14.435
16261SOL    HW150557  12.358  13.870  14.512
16261SOL    HW250558  12.315  13.863  14.367
16262SOL     OW50559  10.252   8.588   4.039
16262SOL    HW150560  10.304   8.666   4.061
16262SOL    HW250561  10.207   8.612   3.958
16263SOL     OW50562   7.920  11.111   8.699
16263SOL    HW150563   7.894  11.030   8.656
16263SOL    HW250564   8.015  11.114   8.689
16264SOL     OW50565  12.620   1.666   2.941
16264SOL    HW150566  12.671   1.614   3.003
16264SOL    HW250567  12.529   1.645   2.961
16265SOL     OW50568  11.416  13.752   0.820
16265SOL    HW150569  11.435  13.845   0.830
16265SOL    HW250570  11.325  13.742   0.848
16266SOL     OW50571   7.302   8.627   5.371
16266SOL    HW150572   7.374   8.660   5.317
16266SOL    HW250573   7.313   8.672   5.455
16267SOL     OW50574   0.596   8.784  11.467
16267SOL    HW150575   0.637   8.782  11.381
16267SOL    HW250576   0.620   8.869  11.503
16268SOL     OW50577   7.894  10.392   7.355
16268SOL    HW150578   7.895  10.382   7.450
16268SOL    HW250579   7.841  10.319   7.324
16269SOL     OW50580  13.287   6.696  12.183
16269SOL    HW150581  13.253   6.633  12.120
16269SOL    HW250582  13.217   6.760  12.193
16270SOL     OW50583   5.449   5.794  13.000
16270SOL    HW150584   5.403   5.877  12.987
16270SOL    HW250585   5.485   5.772  12.914
16271SOL     OW50586  14.545   6.129   5.439
16271SOL    HW150587  14.492   6.173   5.372
16271SOL    HW250588  14.634   6.130   5.403
16272SOL     OW50589  11.162   0.796   0.076
16272SOL    HW150590  11.238   0.755   0.117
16272SOL    HW250591  11.198   0.863   0.018
16273SOL     OW50592   4.944  13.221   5.533
16273SOL    HW150593   4.940  13.125   5.536
16273SOL    HW250594   5.014  13.244   5.595
16274SOL     OW50595   7.838  14.785  13.737
16274SOL    HW150596   7.872  14.868  13.704
16274SOL    HW250597   7.743  14.791  13.724
16275SOL     OW50598  10.868   5.190   6.171
16275SOL    HW150599  10.908   5.271   6.202
16275SOL    HW250600  10.840   5.145   6.250
16276SOL     OW50601   3.131  12.431   8.551
16276SOL    HW150602   3.092  12.474   8.474
16276SOL    HW250603   3.079  12.463   8.625
16277SOL     OW50604   4.837   9.887  11.527
16277SOL    HW150605   4.923   9.859  11.557
16277SOL    HW250606   4.854   9.965  11.475
16278SOL     OW50607   2.425   2.603  11.506
16278SOL    HW150608   2.490   2.577  11.571
16278SOL    HW250609   2.430   2.536  11.438
16279SOL     OW50610   9.669   5.807   8.011
16279SOL    HW150611   9.706   5.792   8.099
16279SOL    HW250612   9.720   5.881   7.977
16280SOL     OW50613  13.851   1.867  12.302
16280SOL    HW150614  13.835   1.775  12.324
16280SOL    HW250615  13.945   1.879  12.320
16281SOL     OW50616   8.068  11.216   3.876
16281SOL    HW150617   8.094  11.271   3.950
16281SOL    HW250618   8.144  11.217   3.818
16282SOL     OW50619   9.037  10.699   9.778
16282SOL    HW150620   9.018  10.657   9.694
16282SOL    HW250621   9.130  10.719   9.774
16283SOL     OW50622   7.891   4.497  14.842
16283SOL    HW150623   7.807   4.468  14.878
16283SOL    HW250624   7.926   4.420  14.797
16284SOL     OW50625  10.795   7.080   1.909
16284SOL    HW150626  10.887   7.088   1.883
16284SOL    HW250627  10.785   6.987   1.932
16285SOL     OW50628   8.414  11.754  14.783
16285SOL    HW150629   8.414  11.751  14.687
16285SOL    HW250630   8.340  11.810  14.805
16286SOL     OW50631  10.976  11.227   8.530
16286SOL    HW150632  10.921  11.180   8.467
16286SOL    HW250633  11.065  11.215   8.498
16287SOL     OW50634   7.582   4.141  10.258
16287SOL    HW150635   7.506   4.117  10.205
16287SOL    HW250636   7.547   4.199  10.326
16288SOL     OW50637  10.570   7.244   8.779
16288SOL    HW150638  10.478   7.249   8.805
16288SOL    HW250639  10.617   7.229   8.861
16289SOL     OW50640   4.723  10.244   5.896
16289SOL    HW150641   4.782  10.308   5.935
16289SOL    HW250642   4.669  10.295   5.835
16290SOL     OW50643  12.237   0.527   1.560
16290SOL    HW150644  12.234   0.598   1.624
16290SOL    HW250645  12.157   0.539   1.508
16291SOL     OW50646   3.016   2.840  13.138
16291SOL    HW150647   3.068   2.857  13.217
16291SOL    HW250648   3.077   2.793  13.080
16292SOL     OW50649   5.802   7.472   3.831
16292SOL    HW150650   5.767   7.450   3.745
16292SOL    HW250651   5.810   7.388   3.876
16293SOL     OW50652   6.369  11.816   0.578
16293SOL    HW150653   6.365  11.784   0.669
16293SOL    HW250654   6.278  11.832   0.554
16294SOL     OW50655   2.724   6.261  11.247
16294SOL    HW150656   2.662   6.204  11.201
16294SOL    HW250657   2.674   6.296  11.320
16295SOL     OW50658  14.079   8.313  12.263
16295SOL    HW150659  14.105   8.222  12.245
16295SOL    HW250660  14.162   8.361  12.269
16296SOL     OW50661   5.649   3.343  10.327
16296SOL    HW150662   5.714   3.376  10.266
16296SOL    HW250663   5.636   3.252  10.300
16297SOL     OW50664   6.492   3.987   8.009
16297SOL    HW150665   6.427   3.951   7.949
16297SOL    HW250666   6.444   4.000   8.091
16298SOL     OW50667   7.218   4.414  12.480
16298SOL    HW150668   7.296   4.450  12.437
16298SOL    HW250669   7.158   4.489  12.485
16299SOL     OW50670   1.918   9.900  10.349
16299SOL    HW150671   1.879   9.922  10.265
16299SOL    HW250672   1.980   9.971  10.366
16300SOL     OW50673   5.232  14.407   8.446
16300SOL    HW150674   5.164  14.345   8.421
16300SOL    HW250675   5.213  14.485   8.394
16301SOL     OW50676   6.290   2.710   8.725
16301SOL    HW150677   6.351   2.679   8.658
16301SOL    HW250678   6.272   2.633   8.778
16302SOL     OW50679   1.514   8.052   9.789
16302SOL    HW150680   1.547   7.979   9.841
16302SOL    HW250681   1.541   8.130   9.837
16303SOL     OW50682   6.237   8.626   3.481
16303SOL    HW150683   6.324   8.595   3.504
16303SOL    HW250684   6.179   8.552   3.498
16304SOL     OW50685   4.014   2.810  13.250
16304SOL    HW150686   4.101   2.801  13.288
16304SOL    HW250687   4.026   2.870  13.177
16305SOL     OW50688  13.046  13.239  14.654
16305SOL    HW150689  13.112  13.200  14.711
16305SOL    HW250690  12.980  13.171  14.641
16306SOL     OW50691   2.032  13.557  10.096
16306SOL    HW150692   2.039  13.531  10.188
16306SOL    HW250693   2.122  13.575  10.069
16307SOL     OW50694   7.178   2.976   7.585
16307SOL    HW150695   7.141   2.973   7.497
16307SOL    HW250696   7.154   3.062   7.619
16308SOL     OW50697   4.253   3.880   8.496
16308SOL    HW150698   4.189   3.945   8.468
16308SOL    HW250699   4.205   3.824   8.558
16309SOL     OW50700  12.365   4.693   4.696
16309SOL    HW150701  12.432   4.624   4.688
16309SOL    HW250702  12.334   4.686   4.786
16310SOL     OW50703   9.444   8.363   3.444
16310SOL    HW150704   9.377   8.313   3.490
16310SOL    HW250705   9.423   8.454   3.462
16311SOL     OW50706  12.071   5.440   2.993
16311SOL    HW150707  12.130   5.443   2.917
16311SOL    HW250708  12.124   5.472   3.066
16312SOL     OW50709   7.160   9.448  10.087
16312SOL    HW150710   7.152   9.366  10.136
16312SOL    HW250711   7.192   9.422  10.001
16313SOL     OW50712   5.757  10.205   5.878
16313SOL    HW150713   5.832  10.245   5.922
16313SOL    HW250714   5.685  10.212   5.941
16314SOL     OW50715   8.013   1.412   0.942
16314SOL    HW150716   8.075   1.346   0.911
16314SOL    HW250717   7.960   1.367   1.008
16315SOL     OW50718   1.375   9.708   5.805
16315SOL    HW150719   1.435   9.641   5.838
16315SOL    HW250720   1.374   9.694   5.710
16316SOL     OW50721   0.909  12.865   9.188
16316SOL    HW150722   0.986  12.854   9.131
16316SOL    HW250723   0.887  12.958   9.180
16317SOL     OW50724   5.504  11.372   8.621
16317SOL    HW150725   5.507  11.391   8.715
16317SOL    HW250726   5.582  11.415   8.585
16318SOL     OW50727   5.952  10.740   9.254
16318SOL    HW150728   5.996  10.682   9.191
16318SOL    HW250729   5.871  10.694   9.276
16319SOL     OW50730   8.448  10.527  14.275
16319SOL    HW150731   8.442  10.547  14.182
16319SOL    HW250732   8.433  10.611  14.319
16320SOL     OW50733  12.011   9.974   6.696
16320SOL    HW150734  11.929   9.999   6.737
16320SOL    HW250735  12.034  10.048   6.640
16321SOL     OW50736   6.639  10.593  11.496
16321SOL    HW150737   6.693  10.582  11.418
16321SOL    HW250738   6.641  10.686  11.515
16322SOL     OW50739   7.112   8.664   9.861
16322SOL    HW150740   7.157   8.584   9.888
16322SOL    HW250741   7.113   8.661   9.765
16323SOL     OW50742   1.935   6.992  12.811
16323SOL    HW150743   1.911   6.901  12.795
16323SOL    HW250744   1.968   7.024  12.728
16324SOL     OW50745   3.577   6.286   9.618
16324SOL    HW150746   3.598   6.316   9.706
16324SOL    HW250747   3.597   6.361   9.561
16325SOL     OW50748   2.311  11.059   8.434
16325SOL    HW150749   2.394  11.013   8.438
16325SOL    HW250750   2.315  11.108   8.352
16326SOL     OW50751   6.576   4.382  14.012
16326SOL    HW150752   6.640   4.319  14.045
16326SOL    HW250753   6.495   4.361  14.058
16327SOL     OW50754  11.830  13.521   2.783
16327SOL    HW150755  11.921  13.524   2.754
16327SOL    HW250756  11.797  13.437   2.750
16328SOL     OW50757  10.904   6.892   8.704
16328SOL    HW150758  10.937   6.970   8.748
16328SOL    HW250759  10.943   6.895   8.616
16329SOL     OW50760   7.227   6.601  12.307
16329SOL    HW150761   7.268   6.532  12.359
16329SOL    HW250762   7.211   6.561  12.221
16330SOL     OW50763   6.368  10.322   7.756
16330SOL    HW150764   6.409  10.360   7.834
16330SOL    HW250765   6.432  10.258   7.725
16331SOL     OW50766   6.614  14.688   4.800
16331SOL    HW150767   6.523  14.698   4.771
16331SOL    HW250768   6.666  14.723   4.728
16332SOL     OW50769   5.294  12.614  10.649
16332SOL    HW150770   5.283  12.569  10.733
16332SOL    HW250771   5.287  12.545  10.584
16333SOL     OW50772   1.265  14.700   5.912
16333SOL    HW150773   1.332  14.758   5.949
16333SOL    HW250774   1.307  14.660   5.836
16334SOL     OW50775  13.272   0.968   5.755
16334SOL    HW150776  13.300   0.970   5.846
16334SOL    HW250777  13.193   0.914   5.755
16335SOL     OW50778   6.357   8.120   7.922
16335SOL    HW150779   6.380   8.035   7.884
16335SOL    HW250780   6.440   8.164   7.937
16336SOL     OW50781   5.700  11.240   5.586
16336SOL    HW150782   5.638  11.271   5.519
16336SOL    HW250783   5.648  11.231   5.665
16337SOL     OW50784  10.621   7.296  11.328
16337SOL    HW150785  10.623   7.342  11.411
16337SOL    HW250786  10.681   7.346  11.271
16338SOL     OW50787   8.266   0.588   9.390
16338SOL    HW150788   8.181   0.628   9.371
16338SOL    HW250789   8.282   0.607   9.482
16339SOL     OW50790   3.143   3.338  10.468
16339SOL    HW150791   3.174   3.413  10.417
16339SOL    HW250792   3.141   3.368  10.558
16340SOL     OW50793   6.546  12.199   6.031
16340SOL    HW150794   6.545  12.190   5.936
16340SOL    HW250795   6.524  12.291   6.046
16341SOL     OW50796   4.378   8.567   8.281
16341SOL    HW150797   4.407   8.641   8.334
16341SOL    HW250798   4.404   8.489   8.331
16342SOL     OW50799  14.276   8.450  10.937
16342SOL    HW150800  14.217   8.524  10.950
16342SOL    HW250801  14.228   8.390  10.881
16343SOL     OW50802   8.916  14.194   4.568
16343SOL    HW150803   9.000  14.149   4.577
16343SOL    HW250804   8.939  14.287   4.562
16344SOL     OW50805  13.698   3.646   1.067
16344SOL    HW150806  13.741   3.572   1.026
16344SOL    HW250807  13.708   3.632   1.161
16345SOL     OW50808   9.546  12.707  13.883
16345SOL    HW150809   9.560  12.785  13.936
16345SOL    HW250810   9.460  12.675  13.909
16346SOL     OW50811   9.699  10.410   6.065
16346SOL    HW150812   9.757  10.394   6.139
16346SOL    HW250813   9.654  10.327   6.050
16347SOL     OW50814  10.386  10.751  12.404
16347SOL    HW150815  10.386  10.658  12.378
16347SOL    HW250816  10.332  10.753  12.483
16348SOL     OW50817   3.503   0.809  13.472
16348SOL    HW150818   3.581   0.803  13.527
16348SOL    HW250819   3.437   0.850  13.527
16349SOL     OW50820   1.102  12.915  14.799
16349SOL    HW150821   1.098  12.901  14.704
16349SOL    HW250822   1.195  12.913  14.820
16350SOL     OW50823   5.438  11.447   1.491
16350SOL    HW150824   5.377  11.513   1.524
16350SOL    HW250825   5.434  11.456   1.396
16351SOL     OW50826   3.167   9.724   5.768
16351SOL    HW150827   3.130   9.675   5.841
16351SOL    HW250828   3.143   9.815   5.784
16352SOL     OW50829   8.671  14.157  14.704
16352SOL    HW150830   8.725  14.210  14.646
16352SOL    HW250831   8.727  14.137  14.778
16353SOL     OW50832   8.635   8.343   2.891
16353SOL    HW150833   8.565   8.406   2.877
16353SOL    HW250834   8.657   8.351   2.984
16354SOL     OW50835  13.141   0.831   0.135
16354SOL    HW150836  13.048   0.810   0.126
16354SOL    HW250837  13.144   0.892   0.209
16355SOL     OW50838   0.221   5.556   8.295
16355SOL    HW150839   0.209   5.498   8.370
16355SOL    HW250840   0.265   5.633   8.332
16356SOL     OW50841   2.979   7.255  10.904
16356SOL    HW150842   2.927   7.321  10.857
16356SOL    HW250843   2.951   7.263  10.995
16357SOL     OW50844  11.354   8.246   2.583
16357SOL    HW150845  11.371   8.230   2.676
16357SOL    HW250846  11.436   8.283   2.550
16358SOL     OW50847   3.815   3.956   2.752
16358SOL    HW150848   3.810   3.932   2.845
16358SOL    HW250849   3.731   3.929   2.715
16359SOL     OW50850  12.533   0.226   4.491
16359SOL    HW150851  12.468   0.159   4.510
16359SOL    HW250852  12.601   0.213   4.558
16360SOL     OW50853   1.178   7.785   9.079
16360SOL    HW150854   1.191   7.878   9.062
16360SOL    HW250855   1.083   7.773   9.081
16361SOL     OW50856   4.001   9.747   0.549
16361SOL    HW150857   4.040   9.783   0.628
16361SOL    HW250858   4.063   9.680   0.520
16362SOL     OW50859  11.284   0.527   7.989
16362SOL    HW150860  11.360   0.538   7.932
16362SOL    HW250861  11.209   0.548   7.934
16363SOL     OW50862   3.817   5.472   4.909
16363SOL    HW150863   3.731   5.507   4.932
16363SOL    HW250864   3.854   5.537   4.848
16364SOL     OW50865   1.859  14.484  14.729
16364SOL    HW150866   1.889  14.416  14.789
16364SOL    HW250867   1.938  14.532  14.706
16365SOL     OW50868   7.132  12.093  13.547
16365SOL    HW150869   7.225  12.073  13.552
16365SOL    HW250870   7.097  12.064  13.632
16366SOL     OW50871   8.444  14.254  14.420
16366SOL    HW150872   8.349  14.251  14.427
16366SOL    HW250873   8.472  14.303  14.497
16367SOL     OW50874   5.348   8.829   4.757
16367SOL    HW150875   5.340   8.921   4.783
16367SOL    HW250876   5.338   8.831   4.662
16368SOL     OW50877   2.652   7.753   7.479
16368SOL    HW150878   2.667   7.827   7.420
16368SOL    HW250879   2.682   7.677   7.429
16369SOL     OW50880   3.483   9.076   3.744
16369SOL    HW150881   3.523   9.158   3.717
16369SOL    HW250882   3.475   9.083   3.839
16370SOL     OW50883  11.900   2.978  14.112
16370SOL    HW150884  11.909   3.047  14.177
16370SOL    HW250885  11.807   2.974  14.092
16371SOL     OW50886  13.553  14.586   9.996
16371SOL    HW150887  13.466  14.609  10.030
16371SOL    HW250888  13.611  14.593  10.072
16372SOL     OW50889  10.287   8.380   3.435
16372SOL    HW150890  10.271   8.349   3.524
16372SOL    HW250891  10.283   8.300   3.381
16373SOL     OW50892  11.009   8.801   9.042
16373SOL    HW150893  10.966   8.872   8.995
16373SOL    HW250894  10.998   8.724   8.985
16374SOL     OW50895   7.182  10.506  14.578
16374SOL    HW150896   7.245  10.435  14.565
16374SOL    HW250897   7.210  10.548  14.660
16375SOL     OW50898   0.891   5.450  13.855
16375SOL    HW150899   0.864   5.382  13.916
16375SOL    HW250900   0.969   5.489  13.895
16376SOL     OW50901   3.044   7.955  13.487
16376SOL    HW150902   2.977   7.904  13.443
16376SOL    HW250903   3.112   7.891  13.509
16377SOL     OW50904  11.242   6.001   2.312
16377SOL    HW150905  11.230   6.059   2.387
16377SOL    HW250906  11.278   6.057   2.243
16378SOL     OW50907  11.076  11.927  14.227
16378SOL    HW150908  10.983  11.914  14.243
16378SOL    HW250909  11.115  11.840  14.240
16379SOL     OW50910   1.461   2.505   4.918
16379SOL    HW150911   1.388   2.479   4.862
16379SOL    HW250912   1.522   2.432   4.913
16380SOL     OW50913  11.516  10.976   3.622
16380SOL    HW150914  11.510  10.882   3.636
16380SOL    HW250915  11.607  10.997   3.644
16381SOL     OW50916   8.122  10.475  14.155
16381SOL    HW150917   8.067  10.398  14.140
16381SOL    HW250918   8.208  10.451  14.118
16382SOL     OW50919   7.339   3.476   2.730
16382SOL    HW150920   7.347   3.420   2.807
16382SOL    HW250921   7.374   3.424   2.658
16383SOL     OW50922  11.512  10.587   2.349
16383SOL    HW150923  11.479  10.674   2.328
16383SOL    HW250924  11.596  10.582   2.304
16384SOL     OW50925  10.467   5.723   5.341
16384SOL    HW150926  10.455   5.785   5.414
16384SOL    HW250927  10.461   5.637   5.383
16385SOL     OW50928  13.142   1.542  11.544
16385SOL    HW150929  13.179   1.630  11.537
16385SOL    HW250930  13.217   1.485  11.557
16386SOL     OW50931  14.311  11.506  12.226
16386SOL    HW150932  14.395  11.481  12.187
16386SOL    HW250933  14.248  11.496  12.155
16387SOL     OW50934   0.434   2.175   8.600
16387SOL    HW150935   0.353   2.198   8.645
16387SOL    HW250936   0.480   2.118   8.660
16388SOL     OW50937   7.149   6.174   1.229
16388SOL    HW150938   7.066   6.204   1.265
16388SOL    HW250939   7.212   6.187   1.301
16389SOL     OW50940   4.552  14.756  10.253
16389SOL    HW150941   4.645  14.756  10.276
16389SOL    HW250942   4.533  14.847  10.229
16390SOL     OW50943   9.014   6.548   8.186
16390SOL    HW150944   8.966   6.629   8.202
16390SOL    HW250945   9.088   6.552   8.246
16391SOL     OW50946  14.842  12.136  13.122
16391SOL    HW150947  14.860  12.111  13.032
16391SOL    HW250948  14.777  12.206  13.115
16392SOL     OW50949  12.631   5.033   3.994
16392SOL    HW150950  12.602   4.943   4.003
16392SOL    HW250951  12.617   5.054   3.902
16393SOL     OW50952   3.194  10.721  12.675
16393SOL    HW150953   3.227  10.713  12.765
16393SOL    HW250954   3.208  10.635  12.637
16394SOL     OW50955   0.486  10.689   1.760
16394SOL    HW150956   0.494  10.766   1.704
16394SOL    HW250957   0.393  10.687   1.784
16395SOL     OW50958   0.491   4.120   2.016
16395SOL    HW150959   0.480   4.149   1.925
16395SOL    HW250960   0.515   4.027   2.009
16396SOL     OW50961  12.955   9.752   5.856
16396SOL    HW150962  12.994   9.731   5.771
16396SOL    HW250963  13.031   9.764   5.914
16397SOL     OW50964  11.292  14.012   0.994
16397SOL    HW150965  11.375  14.036   1.034
16397SOL    HW250966  11.300  14.040   0.903
16398SOL     OW50967   1.354   5.507   0.972
16398SOL    HW150968   1.312   5.455   0.903
16398SOL    HW250969   1.291   5.576   0.991
16399SOL     OW50970   0.573  10.060  12.121
16399SOL    HW150971   0.664  10.089  12.117
16399SOL    HW250972   0.579   9.964  12.120
16400SOL     OW50973   5.227   6.961   4.383
16400SOL    HW150974   5.291   7.015   4.428
16400SOL    HW250975   5.263   6.872   4.387
16401SOL     OW50976   0.516  10.575   8.411
16401SOL    HW150977   0.596  10.562   8.461
16401SOL    HW250978   0.542  10.629   8.336
16402SOL     OW50979  12.926   7.131   3.460
16402SOL    HW150980  12.932   7.137   3.555
16402SOL    HW250981  12.995   7.070   3.436
16403SOL     OW50982  14.378   8.038   3.955
16403SOL    HW150983  14.385   8.127   3.919
16403SOL    HW250984  14.466   8.001   3.943
16404SOL     OW50985  10.671   0.540   9.131
16404SOL    HW150986  10.595   0.491   9.163
16404SOL    HW250987  10.642   0.576   9.047
16405SOL     OW50988  10.131   5.536  10.353
16405SOL    HW150989  10.078   5.579  10.420
16405SOL    HW250990  10.087   5.559  10.270
16406SOL     OW50991  10.704   8.569  10.150
16406SOL    HW150992  10.763   8.605  10.084
16406SOL    HW250993  10.626   8.623  10.145
16407SOL     OW50994  14.337   5.054   8.451
16407SOL    HW150995  14.317   4.980   8.508
16407SOL    HW250996  14.432   5.066   8.459
16408SOL     OW50997  13.459   4.864  10.340
16408SOL    HW150998  13.461   4.842  10.433
16408SOL    HW250999  13.377   4.827  10.308
16409SOL     OW51000   9.533   9.303   8.719
16409SOL    HW151001   9.544   9.233   8.655
16409SOL    HW251002   9.556   9.383   8.671
16410SOL     OW51003   0.685  13.690   2.914
16410SOL    HW151004   0.613  13.696   2.851
16410SOL    HW251005   0.643  13.664   2.996
16411SOL     OW51006   3.412   4.597  12.776
16411SOL    HW151007   3.506   4.603  12.794
16411SOL    HW251008   3.380   4.531  12.837
16412SOL     OW51009   2.582   4.043   6.644
16412SOL    HW151010   2.640   4.050   6.568
16412SOL    HW251011   2.513   4.108   6.628
16413SOL     OW51012   3.429   8.339  11.856
16413SOL    HW151013   3.373   8.381  11.791
16413SOL    HW251014   3.428   8.398  11.931
16414SOL     OW51015   4.527  13.081   6.839
16414SOL    HW151016   4.445  13.037   6.862
16414SOL    HW251017   4.595  13.021   6.871
16415SOL     OW51018   0.415   6.486   4.533
16415SOL    HW151019   0.327   6.501   4.567
16415SOL    HW251020   0.470   6.551   4.578
16416SOL     OW51021   9.523   8.549   2.975
16416SOL    HW151022   9.565   8.583   3.054
16416SOL    HW251023   9.439   8.515   3.005
16417SOL     OW51024   6.055   5.067  10.285
16417SOL    HW151025   5.997   5.042  10.213
16417SOL    HW251026   6.034   5.006  10.355
16418SOL     OW51027  11.684   7.548   1.789
16418SOL    HW151028  11.622   7.570   1.719
16418SOL    HW251029  11.770   7.547   1.746
16419SOL     OW51030  14.162   8.986   1.142
16419SOL    HW151031  14.246   9.029   1.158
16419SOL    HW251032  14.128   9.026   1.063
16420SOL     OW51033   3.140   8.026   7.490
16420SOL    HW151034   3.178   8.069   7.566
16420SOL    HW251035   3.209   8.027   7.424
16421SOL     OW51036  11.243   2.349   7.808
16421SOL    HW151037  11.161   2.385   7.772
16421SOL    HW251038  11.232   2.356   7.903
16422SOL     OW51039  10.203   4.921  12.925
16422SOL    HW151040  10.286   4.872  12.921
16422SOL    HW251041  10.173   4.923  12.834
16423SOL     OW51042   2.573   8.818   3.451
16423SOL    HW151043   2.628   8.896   3.460
16423SOL    HW251044   2.509   8.825   3.522
16424SOL     OW51045   6.235   2.511   0.021
16424SOL    HW151046   6.152   2.555   0.044
16424SOL    HW251047   6.248   2.447   0.091
16425SOL     OW51048   3.315   7.786  10.953
16425SOL    HW151049   3.247   7.852  10.965
16425SOL    HW251050   3.361   7.783  11.037
16426SOL     OW51051   4.237  14.846   6.940
16426SOL    HW151052   4.295   0.043   6.927
16426SOL    HW251053   4.161   0.005   6.985
16427SOL     OW51054   0.925   5.936   1.712
16427SOL    HW151055   1.014   5.902   1.704
16427SOL    HW251056   0.936   6.029   1.731
16428SOL     OW51057   7.815   3.786   2.431
16428SOL    HW151058   7.763   3.708   2.412
16428SOL    HW251059   7.767   3.830   2.501
16429SOL     OW51060   7.569   9.737  12.830
16429SOL    HW151061   7.567   9.826  12.866
16429SOL    HW251062   7.526   9.745  12.745
16430SOL     OW51063   8.942   2.581   7.321
16430SOL    HW151064   8.860   2.539   7.346
16430SOL    HW251065   8.916   2.648   7.257
16431SOL     OW51066   5.695   6.277   4.200
16431SOL    HW151067   5.621   6.264   4.141
16431SOL    HW251068   5.734   6.359   4.171
16432SOL     OW51069   5.003   8.341   8.196
16432SOL    HW151070   5.014   8.427   8.235
16432SOL    HW251071   5.093   8.311   8.180
16433SOL     OW51072   4.398  12.458  14.712
16433SOL    HW151073   4.341  12.459  14.790
16433SOL    HW251074   4.419  12.366  14.699
16434SOL     OW51075   0.295  14.236   6.485
16434SOL    HW151076   0.226  14.224   6.419
16434SOL    HW251077   0.250  14.267   6.563
16435SOL     OW51078   6.316   1.091   0.297
16435SOL    HW151079   6.262   1.134   0.364
16435SOL    HW251080   6.258   1.026   0.257
16436SOL     OW51081   7.483  11.815  11.055
16436SOL    HW151082   7.389  11.803  11.073
16436SOL    HW251083   7.504  11.744  10.994
16437SOL     OW51084   9.916   6.600   8.312
16437SOL    HW151085   9.880   6.641   8.233
16437SOL    HW251086   9.840   6.569   8.360
16438SOL     OW51087   8.660   4.322  11.176
16438SOL    HW151088   8.666   4.301  11.269
16438SOL    HW251089   8.738   4.374  11.157
16439SOL     OW51090  14.323   8.324   3.342
16439SOL    HW151091  14.278   8.347   3.423
16439SOL    HW251092  14.268   8.362   3.273
16440SOL     OW51093  14.030   1.790   9.533
16440SOL    HW151094  14.000   1.699   9.526
16440SOL    HW251095  14.071   1.809   9.449
16441SOL     OW51096   5.207   5.002  10.341
16441SOL    HW151097   5.262   5.003  10.420
16441SOL    HW251098   5.196   4.909  10.321
16442SOL     OW51099   0.704   1.674   2.013
16442SOL    HW151100   0.782   1.633   2.050
16442SOL    HW251101   0.693   1.632   1.928
16443SOL     OW51102   6.053  10.410   9.407
16443SOL    HW151103   6.128  10.376   9.358
16443SOL    HW251104   5.977  10.379   9.359
16444SOL     OW51105   0.164   8.653   6.325
16444SOL    HW151106   0.075   8.680   6.302
16444SOL    HW251107   0.215   8.734   6.322
16445SOL     OW51108  13.053   8.339  13.871
16445SOL    HW151109  13.011   8.421  13.895
16445SOL    HW251110  12.980   8.279  13.853
16446SOL     OW51111  12.125   0.031   9.482
16446SOL    HW151112  12.034   0.002   9.478
16446SOL    HW251113  12.151   0.017   9.573
16447SOL     OW51114  14.071  12.553   2.752
16447SOL    HW151115  14.134  12.616   2.786
16447SOL    HW251116  14.118  12.470   2.750
16448SOL     OW51117   3.680   6.944   4.057
16448SOL    HW151118   3.697   7.007   4.128
16448SOL    HW251119   3.716   6.862   4.090
16449SOL     OW51120   2.104   8.451   3.395
16449SOL    HW151121   2.084   8.493   3.479
16449SOL    HW251122   2.193   8.479   3.375
16450SOL     OW51123   6.932   7.914  14.473
16450SOL    HW151124   7.000   7.875  14.418
16450SOL    HW251125   6.879   7.840  14.502
16451SOL     OW51126   6.287   6.297   8.779
16451SOL    HW151127   6.307   6.337   8.863
16451SOL    HW251128   6.211   6.346   8.746
16452SOL     OW51129   1.022   4.663  12.832
16452SOL    HW151130   0.953   4.706  12.883
16452SOL    HW251131   1.098   4.663  12.890
16453SOL     OW51132   2.009   4.427  12.983
16453SOL    HW151133   1.920   4.442  13.015
16453SOL    HW251134   2.065   4.454  13.055
16454SOL     OW51135   5.075   2.932   5.099
16454SOL    HW151136   5.076   2.891   5.012
16454SOL    HW251137   5.051   3.023   5.081
16455SOL     OW51138  13.049   2.646   2.578
16455SOL    HW151139  12.988   2.651   2.504
16455SOL    HW251140  13.051   2.553   2.602
16456SOL     OW51141  10.391   3.817  13.457
16456SOL    HW151142  10.338   3.897  13.462
16456SOL    HW251143  10.470   3.844  13.410
16457SOL     OW51144  13.473   5.119  12.563
16457SOL    HW151145  13.561   5.131  12.599
16457SOL    HW251146  13.436   5.046  12.612
16458SOL     OW51147   5.192   2.045   6.197
16458SOL    HW151148   5.159   2.078   6.281
16458SOL    HW251149   5.284   2.025   6.213
16459SOL     OW51150  12.832  11.849  13.719
16459SOL    HW151151  12.861  11.830  13.809
16459SOL    HW251152  12.911  11.836  13.666
16460SOL     OW51153   8.474   8.634   2.464
16460SOL    HW151154   8.518   8.683   2.394
16460SOL    HW251155   8.447   8.701   2.527
16461SOL     OW51156   9.624   2.882  14.418
16461SOL    HW151157   9.530   2.872  14.400
16461SOL    HW251158   9.667   2.852  14.338
16462SOL     OW51159  14.085   5.475   8.090
16462SOL    HW151160  14.150   5.543   8.070
16462SOL    HW251161  14.090   5.415   8.017
16463SOL     OW51162   8.143  10.844   8.866
16463SOL    HW151163   8.156  10.896   8.787
16463SOL    HW251164   8.217  10.866   8.922
16464SOL     OW51165   5.097   5.441   7.581
16464SOL    HW151166   5.072   5.429   7.489
16464SOL    HW251167   5.128   5.355   7.609
16465SOL     OW51168   3.808   5.143  13.914
16465SOL    HW151169   3.816   5.192  13.832
16465SOL    HW251170   3.893   5.156  13.957
16466SOL     OW51171   5.401   4.040   2.483
16466SOL    HW151172   5.348   4.080   2.414
16466SOL    HW251173   5.361   3.955   2.498
16467SOL     OW51174  10.752   5.894   0.340
16467SOL    HW151175  10.822   5.960   0.344
16467SOL    HW251176  10.791   5.815   0.378
16468SOL     OW51177   4.356   2.326  10.447
16468SOL    HW151178   4.425   2.314  10.512
16468SOL    HW251179   4.372   2.412  10.409
16469SOL     OW51180   5.009   0.547   8.518
16469SOL    HW151181   4.917   0.565   8.498
16469SOL    HW251182   5.051   0.542   8.433
16470SOL     OW51183  11.526  14.047   5.977
16470SOL    HW151184  11.536  14.128   6.026
16470SOL    HW251185  11.602  14.044   5.920
16471SOL     OW51186   9.872  10.346  13.528
16471SOL    HW151187   9.935  10.414  13.504
16471SOL    HW251188   9.924  10.266  13.530
16472SOL     OW51189   9.008  10.536   6.451
16472SOL    HW151190   9.049  10.466   6.502
16472SOL    HW251191   9.007  10.611   6.510
16473SOL     OW51192  13.032   2.083   3.592
16473SOL    HW151193  13.011   1.997   3.627
16473SOL    HW251194  12.954   2.110   3.544
16474SOL     OW51195   4.716  12.009   6.806
16474SOL    HW151196   4.757  11.974   6.727
16474SOL    HW251197   4.677  12.092   6.779
16475SOL     OW51198   3.180   2.959  12.670
16475SOL    HW151199   3.197   3.050  12.695
16475SOL    HW251200   3.213   2.952  12.581
16476SOL     OW51201   2.719   8.910  13.113
16476SOL    HW151202   2.811   8.929  13.131
16476SOL    HW251203   2.705   8.940  13.023
16477SOL     OW51204   6.838  12.094   6.561
16477SOL    HW151205   6.916  12.040   6.545
16477SOL    HW251206   6.873  12.178   6.591
16478SOL     OW51207   2.723   8.771  12.050
16478SOL    HW151208   2.796   8.780  11.988
16478SOL    HW251209   2.644   8.779  11.995
16479SOL     OW51210   4.307   1.381   1.492
16479SOL    HW151211   4.366   1.376   1.567
16479SOL    HW251212   4.258   1.462   1.505
16480SOL     OW51213  10.541   1.842  12.066
16480SOL    HW151214  10.460   1.792  12.050
16480SOL    HW251215  10.610   1.776  12.061
16481SOL     OW51216   6.685   5.927   1.807
16481SOL    HW151217   6.595   5.898   1.790
16481SOL    HW251218   6.715   5.872   1.880
16482SOL     OW51219   7.771   9.333   5.150
16482SOL    HW151220   7.797   9.378   5.230
16482SOL    HW251221   7.725   9.400   5.099
16483SOL     OW51222   6.242   4.898  11.816
16483SOL    HW151223   6.245   4.986  11.853
16483SOL    HW251224   6.193   4.846  11.880
16484SOL     OW51225   6.824  12.338  11.197
16484SOL    HW151226   6.801  12.281  11.270
16484SOL    HW251227   6.859  12.279  11.131
16485SOL     OW51228   5.185  14.182  14.350
16485SOL    HW151229   5.225  14.198  14.436
16485SOL    HW251230   5.259  14.164  14.292
16486SOL     OW51231  12.541  11.758  14.611
16486SOL    HW151232  12.469  11.817  14.588
16486SOL    HW251233  12.611  11.816  14.641
16487SOL     OW51234   1.510   2.551   0.019
16487SOL    HW151235   1.572   2.516   0.082
16487SOL    HW251236   1.450   2.479   0.001
16488SOL     OW51237   7.323  13.305   0.902
16488SOL    HW151238   7.306  13.392   0.867
16488SOL    HW251239   7.298  13.245   0.832
16489SOL     OW51240  11.025   8.838  10.350
16489SOL    HW151241  11.085   8.803  10.285
16489SOL    HW251242  10.964   8.766  10.367
16490SOL     OW51243  13.546   8.352  13.151
16490SOL    HW151244  13.480   8.408  13.192
16490SOL    HW251245  13.623   8.362  13.206
16491SOL     OW51246   3.509   6.875  13.876
16491SOL    HW151247   3.492   6.917  13.792
16491SOL    HW251248   3.549   6.791  13.853
16492SOL     OW51249  10.870   0.284   7.439
16492SOL    HW151250  10.791   0.308   7.488
16492SOL    HW251251  10.935   0.349   7.466
16493SOL     OW51252   5.636   4.931  12.861
16493SOL    HW151253   5.580   4.890  12.796
16493SOL    HW251254   5.717   4.951  12.814
16494SOL     OW51255   5.703   2.031   4.030
16494SOL    HW151256   5.660   1.993   4.107
16494SOL    HW251257   5.673   2.122   4.028
16495SOL     OW51258   0.028   9.736   0.928
16495SOL    HW151259   0.020   9.726   0.833
16495SOL    HW251260   0.014   9.648   0.963
16496SOL     OW51261   9.854  11.735   6.187
16496SOL    HW151262   9.766  11.750   6.222
16496SOL    HW251263   9.901  11.816   6.204
16497SOL     OW51264  10.128   0.108   8.276
16497SOL    HW151265  10.113   0.111   8.370
16497SOL    HW251266  10.140   0.199   8.250
16498SOL     OW51267   2.798  10.909  13.261
16498SOL    HW151268   2.837  10.824  13.237
16498SOL    HW251269   2.728  10.887  13.322
16499SOL     OW51270   4.572   2.552   8.867
16499SOL    HW151271   4.633   2.615   8.905
16499SOL    HW251272   4.488   2.599   8.862
16500SOL     OW51273   4.467   7.781   3.914
16500SOL    HW151274   4.421   7.865   3.913
16500SOL    HW251275   4.435   7.738   3.993
16501SOL     OW51276   7.903   6.677   3.930
16501SOL    HW151277   7.969   6.666   3.861
16501SOL    HW251278   7.875   6.587   3.950
16502SOL     OW51279  11.188   6.563  14.136
16502SOL    HW151280  11.171   6.656  14.120
16502SOL    HW251281  11.280   6.552  14.114
16503SOL     OW51282   3.921   1.935   0.934
16503SOL    HW151283   4.017   1.935   0.928
16503SOL    HW251284   3.897   1.843   0.921
16504SOL     OW51285   4.428   9.578   8.111
16504SOL    HW151286   4.412   9.663   8.152
16504SOL    HW251287   4.389   9.584   8.024
16505SOL     OW51288   1.958   1.252   3.387
16505SOL    HW151289   1.916   1.309   3.452
16505SOL    HW251290   1.897   1.179   3.376
16506SOL     OW51291   5.981   9.601  10.470
16506SOL    HW151292   6.076   9.593  10.477
16506SOL    HW251293   5.959   9.557  10.388
16507SOL     OW51294  14.157   8.063   5.998
16507SOL    HW151295  14.073   8.062   5.952
16507SOL    HW251296  14.221   8.043   5.930
16508SOL     OW51297   1.828  13.405   6.410
16508SOL    HW151298   1.763  13.468   6.378
16508SOL    HW251299   1.901  13.412   6.348
16509SOL     OW51300   4.768   5.267   3.232
16509SOL    HW151301   4.841   5.252   3.292
16509SOL    HW251302   4.693   5.286   3.289
16510SOL     OW51303   8.139   5.810   2.962
16510SOL    HW151304   8.096   5.876   2.907
16510SOL    HW251305   8.077   5.795   3.033
16511SOL     OW51306  12.516  11.960   4.604
16511SOL    HW151307  12.501  11.876   4.648
16511SOL    HW251308  12.430  11.984   4.568
16512SOL     OW51309   9.946   5.059  11.980
16512SOL    HW151310   9.885   5.046  12.052
16512SOL    HW251311   9.976   4.971  11.957
16513SOL     OW51312  13.006   6.153   7.974
16513SOL    HW151313  13.000   6.232   7.920
16513SOL    HW251314  13.092   6.116   7.952
16514SOL     OW51315   2.223   6.918   1.107
16514SOL    HW151316   2.196   6.885   1.193
16514SOL    HW251317   2.266   6.843   1.064
16515SOL     OW51318   8.218  11.171   7.620
16515SOL    HW151319   8.294  11.217   7.584
16515SOL    HW251320   8.156  11.167   7.548
16516SOL     OW51321  11.872   5.197  14.830
16516SOL    HW151322  11.924   5.149  14.766
16516SOL    HW251323  11.798   5.230  14.780
16517SOL     OW51324  12.149  10.396   8.018
16517SOL    HW151325  12.218  10.331   8.019
16517SOL    HW251326  12.179  10.463   7.957
16518SOL     OW51327   7.574   5.986  12.261
16518SOL    HW151328   7.515   5.911  12.267
16518SOL    HW251329   7.656   5.956  12.300
16519SOL     OW51330  14.146  14.445  12.566
16519SOL    HW151331  14.230  14.414  12.531
16519SOL    HW251332  14.121  14.517  12.507
16520SOL     OW51333  13.801  10.521  12.466
16520SOL    HW151334  13.722  10.481  12.430
16520SOL    HW251335  13.873  10.481  12.418
16521SOL     OW51336  14.867  11.263  10.791
16521SOL    HW151337  14.814  11.298  10.720
16521SOL    HW251338   0.053  11.206  10.747
16522SOL     OW51339  13.493   7.607  14.314
16522SOL    HW151340  13.441   7.540  14.271
16522SOL    HW251341  13.473   7.599  14.407
16523SOL     OW51342  14.738  13.457   7.047
16523SOL    HW151343  14.764  13.376   7.003
16523SOL    HW251344  14.766  13.527   6.988
16524SOL     OW51345  11.064   2.058   9.091
16524SOL    HW151346  10.972   2.053   9.117
16524SOL    HW251347  11.078   1.979   9.037
16525SOL     OW51348  11.941  13.997  13.195
16525SOL    HW151349  11.918  14.074  13.247
16525SOL    HW251350  11.914  13.922  13.248
16526SOL     OW51351  13.031   5.976   9.576
16526SOL    HW151352  13.104   6.011   9.628
16526SOL    HW251353  13.060   5.986   9.485
16527SOL     OW51354   0.844   5.723  13.229
16527SOL    HW151355   0.773   5.778  13.262
16527SOL    HW251356   0.803   5.639  13.210
16528SOL     OW51357  10.213   9.254   8.286
16528SOL    HW151358  10.170   9.334   8.254
16528SOL    HW251359  10.287   9.241   8.227
16529SOL     OW51360   6.273  10.945  10.644
16529SOL    HW151361   6.199  11.001  10.621
16529SOL    HW251362   6.237  10.883  10.708
16530SOL     OW51363   7.574   0.427  11.106
16530SOL    HW151364   7.584   0.522  11.103
16530SOL    HW251365   7.663   0.394  11.100
16531SOL     OW51366   3.526  11.120   0.066
16531SOL    HW151367   3.489  11.048   0.117
16531SOL    HW251368   3.616  11.093   0.047
16532SOL     OW51369   3.061  12.999   3.242
16532SOL    HW151370   3.068  13.070   3.306
16532SOL    HW251371   3.040  13.043   3.160
16533SOL     OW51372   4.842  11.407  12.626
16533SOL    HW151373   4.920  11.411  12.570
16533SOL    HW251374   4.871  11.445  12.709
16534SOL     OW51375   4.290   8.672   2.255
16534SOL    HW151376   4.285   8.585   2.295
16534SOL    HW251377   4.324   8.728   2.325
16535SOL     OW51378   2.219   4.704   6.322
16535SOL    HW151379   2.176   4.619   6.322
16535SOL    HW251380   2.153   4.764   6.358
16536SOL     OW51381  11.094   5.191   5.376
16536SOL    HW151382  11.053   5.277   5.387
16536SOL    HW251383  11.080   5.147   5.459
16537SOL     OW51384   1.250   5.146   9.636
16537SOL    HW151385   1.305   5.070   9.650
16537SOL    HW251386   1.231   5.145   9.542
16538SOL     OW51387  12.647   7.734   7.221
16538SOL    HW151388  12.636   7.693   7.135
16538SOL    HW251389  12.736   7.768   7.220
16539SOL     OW51390  14.369   0.445   5.749
16539SOL    HW151391  14.450   0.416   5.792
16539SOL    HW251392  14.373   0.541   5.753
16540SOL     OW51393   8.451   1.838   1.858
16540SOL    HW151394   8.516   1.771   1.879
16540SOL    HW251395   8.435   1.828   1.764
16541SOL     OW51396  11.477   9.142   9.173
16541SOL    HW151397  11.543   9.096   9.224
16541SOL    HW251398  11.411   9.170   9.237
16542SOL     OW51399   8.508   0.250  11.335
16542SOL    HW151400   8.501   0.192  11.259
16542SOL    HW251401   8.423   0.246  11.377
16543SOL     OW51402  11.808   7.554   6.648
16543SOL    HW151403  11.884   7.612   6.651
16543SOL    HW251404  11.840   7.471   6.684
16544SOL     OW51405  14.805   2.482   3.110
16544SOL    HW151406   0.009   2.433   3.115
16544SOL    HW251407  14.741   2.419   3.078
16545SOL     OW51408   4.551  14.513   5.558
16545SOL    HW151409   4.467  14.549   5.588
16545SOL    HW251410   4.537  14.491   5.466
16546SOL     OW51411   8.912   6.167   9.904
16546SOL    HW151412   8.923   6.223   9.981
16546SOL    HW251413   8.933   6.079   9.936
16547SOL     OW51414  10.954   7.156   6.377
16547SOL    HW151415  11.019   7.173   6.310
16547SOL    HW251416  10.903   7.237   6.383
16548SOL     OW51417   1.548   4.677   8.971
16548SOL    HW151418   1.622   4.648   9.025
16548SOL    HW251419   1.541   4.610   8.903
16549SOL     OW51420  12.038  11.535  13.736
16549SOL    HW151421  12.015  11.543  13.828
16549SOL    HW251422  12.133  11.541  13.734
16550SOL     OW51423  14.491   5.190   1.042
16550SOL    HW151424  14.462   5.162   0.955
16550SOL    HW251425  14.496   5.109   1.093
16551SOL     OW51426  12.324  10.829   7.854
16551SOL    HW151427  12.238  10.795   7.878
16551SOL    HW251428  12.327  10.917   7.891
16552SOL     OW51429  14.625  12.460   8.035
16552SOL    HW151430  14.541  12.499   8.058
16552SOL    HW251431  14.602  12.373   8.002
16553SOL     OW51432  10.866   3.288   3.012
16553SOL    HW151433  10.951   3.254   2.983
16553SOL    HW251434  10.882   3.381   3.030
16554SOL     OW51435   0.377   5.523   5.195
16554SOL    HW151436   0.460   5.559   5.167
16554SOL    HW251437   0.398   5.435   5.228
16555SOL     OW51438   7.899   0.733   6.633
16555SOL    HW151439   7.955   0.660   6.660
16555SOL    HW251440   7.896   0.791   6.709
16556SOL     OW51441   6.499  11.411   1.054
16556SOL    HW151442   6.487  11.475   1.125
16556SOL    HW251443   6.418  11.416   1.004
16557SOL     OW51444  13.846   1.806   0.852
16557SOL    HW151445  13.820   1.896   0.871
16557SOL    HW251446  13.909   1.814   0.781
16558SOL     OW51447  10.055   5.814   6.697
16558SOL    HW151448  10.036   5.886   6.757
16558SOL    HW251449   9.983   5.816   6.634
16559SOL     OW51450   1.183   5.326  12.002
16559SOL    HW151451   1.214   5.402  11.953
16559SOL    HW251452   1.103   5.356  12.045
16560SOL     OW51453   6.169   3.145   9.213
16560SOL    HW151454   6.155   3.067   9.266
16560SOL    HW251455   6.108   3.210   9.249
16561SOL     OW51456  13.917   8.486   6.531
16561SOL    HW151457  14.006   8.499   6.499
16561SOL    HW251458  13.912   8.392   6.551
16562SOL     OW51459  14.808  13.242   4.834
16562SOL    HW151460  14.814  13.155   4.874
16562SOL    HW251461  14.850  13.232   4.749
16563SOL     OW51462   7.504   8.681  10.750
16563SOL    HW151463   7.467   8.770  10.751
16563SOL    HW251464   7.498   8.653  10.842
16564SOL     OW51465   8.030   6.286   5.292
16564SOL    HW151466   7.957   6.239   5.333
16564SOL    HW251467   7.995   6.375   5.278
16565SOL     OW51468   2.549   0.693   0.414
16565SOL    HW151469   2.474   0.635   0.403
16565SOL    HW251470   2.547   0.749   0.337
16566SOL     OW51471  12.515   8.683  14.518
16566SOL    HW151472  12.577   8.715  14.583
16566SOL    HW251473  12.566   8.677  14.437
16567SOL     OW51474   7.279   2.211   8.939
16567SOL    HW151475   7.334   2.210   9.017
16567SOL    HW251476   7.190   2.221   8.973
16568SOL     OW51477   5.197  12.445   9.360
16568SOL    HW151478   5.285  12.485   9.361
16568SOL    HW251479   5.184  12.414   9.449
16569SOL     OW51480  10.075   4.667  14.256
16569SOL    HW151481  10.100   4.748  14.301
16569SOL    HW251482  10.146   4.651  14.193
16570SOL     OW51483   4.230   9.232  13.706
16570SOL    HW151484   4.240   9.263  13.616
16570SOL    HW251485   4.227   9.137  13.699
16571SOL     OW51486   9.027  10.485   5.654
16571SOL    HW151487   8.998  10.404   5.696
16571SOL    HW251488   8.999  10.555   5.713
16572SOL     OW51489   5.396  11.393  12.434
16572SOL    HW151490   5.301  11.391  12.439
16572SOL    HW251491   5.423  11.302  12.446
16573SOL     OW51492   7.024   0.167   3.463
16573SOL    HW151493   7.002   0.205   3.548
16573SOL    HW251494   6.939   0.148   3.423
16574SOL     OW51495   0.557  13.462   5.477
16574SOL    HW151496   0.476  13.442   5.525
16574SOL    HW251497   0.586  13.546   5.515
16575SOL     OW51498  13.902   3.243   1.141
16575SOL    HW151499  13.891   3.148   1.135
16575SOL    HW251500  13.964   3.256   1.212
16576SOL     OW51501   4.022   0.899   5.064
16576SOL    HW151502   3.949   0.961   5.070
16576SOL    HW251503   4.026   0.875   4.972
16577SOL     OW51504   0.840  10.324  10.715
16577SOL    HW151505   0.885  10.407  10.699
16577SOL    HW251506   0.755  10.350  10.752
16578SOL     OW51507   0.731   5.726  14.312
16578SOL    HW151508   0.669   5.795  14.287
16578SOL    HW251509   0.794   5.724  14.240
16579SOL     OW51510   7.756   6.473   3.522
16579SOL    HW151511   7.796   6.558   3.544
16579SOL    HW251512   7.665   6.495   3.502
16580SOL     OW51513  12.034   5.310  12.889
16580SOL    HW151514  12.013   5.316  12.795
16580SOL    HW251515  11.948   5.304  12.932
16581SOL     OW51516   0.337   8.977   9.145
16581SOL    HW151517   0.290   8.900   9.177
16581SOL    HW251518   0.340   9.036   9.220
16582SOL     OW51519   1.243   5.439   1.663
16582SOL    HW151520   1.224   5.406   1.751
16582SOL    HW251521   1.213   5.370   1.604
16583SOL     OW51522   8.592   8.590   8.742
16583SOL    HW151523   8.544   8.550   8.814
16583SOL    HW251524   8.614   8.678   8.774
16584SOL     OW51525   4.890   7.611   3.626
16584SOL    HW151526   4.933   7.548   3.568
16584SOL    HW251527   4.831   7.660   3.569
16585SOL     OW51528  10.848   0.244   1.936
16585SOL    HW151529  10.852   0.171   1.997
16585SOL    HW251530  10.757   0.246   1.907
16586SOL     OW51531   4.463   4.408   8.592
16586SOL    HW151532   4.549   4.440   8.565
16586SOL    HW251533   4.468   4.313   8.581
16587SOL     OW51534   9.488   7.268  13.781
16587SOL    HW151535   9.474   7.360  13.806
16587SOL    HW251536   9.400   7.236  13.758
16588SOL     OW51537  13.035  14.545  13.237
16588SOL    HW151538  12.969  14.515  13.174
16588SOL    HW251539  13.031  14.481  13.308
16589SOL     OW51540   7.443   0.175  14.285
16589SOL    HW151541   7.384   0.239  14.324
16589SOL    HW251542   7.477   0.125  14.360
16590SOL     OW51543   3.957   3.306   3.377
16590SOL    HW151544   3.871   3.267   3.388
16590SOL    HW251545   3.943   3.381   3.320
16591SOL     OW51546   0.868  14.457  11.370
16591SOL    HW151547   0.903  14.412  11.447
16591SOL    HW251548   0.942  14.461  11.310
16592SOL     OW51549   9.760  14.298   6.016
16592SOL    HW151550   9.844  14.335   6.042
16592SOL    HW251551   9.774  14.204   6.016
16593SOL     OW51552   8.849   8.077  10.749
16593SOL    HW151553   8.851   8.102  10.657
16593SOL    HW251554   8.879   7.986  10.750
16594SOL     OW51555   7.827   3.385  12.068
16594SOL    HW151556   7.786   3.343  11.993
16594SOL    HW251557   7.813   3.324  12.141
16595SOL     OW51558   8.788   5.981   7.549
16595SOL    HW151559   8.754   6.035   7.620
16595SOL    HW251560   8.864   6.030   7.517
16596SOL     OW51561  12.608   3.556  12.571
16596SOL    HW151562  12.674   3.592  12.630
16596SOL    HW251563  12.586   3.471  12.609
16597SOL     OW51564   1.141   5.567  13.930
16597SOL    HW151565   1.169   5.521  14.009
16597SOL    HW251566   1.222   5.592  13.886
16598SOL     OW51567   5.350   3.846  14.233
16598SOL    HW151568   5.433   3.822  14.274
16598SOL    HW251569   5.350   3.942  14.231
16599SOL     OW51570   6.614  10.572  14.204
16599SOL    HW151571   6.528  10.564  14.244
16599SOL    HW251572   6.622  10.496  14.146
16600SOL     OW51573   1.531  14.536   3.241
16600SOL    HW151574   1.497  14.602   3.301
16600SOL    HW251575   1.465  14.531   3.171
16601SOL     OW51576   0.034  13.291   6.036
16601SOL    HW151577   0.052  13.385   6.037
16601SOL    HW251578   0.032  13.266   6.128
16602SOL     OW51579   1.449  13.231   6.686
16602SOL    HW151580   1.357  13.251   6.703
16602SOL    HW251581   1.496  13.266   6.761
16603SOL     OW51582   4.596   9.383  12.613
16603SOL    HW151583   4.529   9.365  12.679
16603SOL    HW251584   4.661   9.314  12.625
16604SOL     OW51585   9.191  12.978   6.692
16604SOL    HW151586   9.234  12.892   6.692
16604SOL    HW251587   9.136  12.978   6.771
16605SOL     OW51588   1.849   6.634  13.026
16605SOL    HW151589   1.840   6.695  12.952
16605SOL    HW251590   1.844   6.547  12.986
16606SOL     OW51591   2.193  10.712   7.547
16606SOL    HW151592   2.145  10.792   7.565
16606SOL    HW251593   2.193  10.704   7.452
16607SOL     OW51594   2.321   0.607  10.745
16607SOL    HW151595   2.255   0.538  10.736
16607SOL    HW251596   2.335   0.638  10.656
16608SOL     OW51597   7.030   5.199   0.803
16608SOL    HW151598   6.982   5.239   0.730
16608SOL    HW251599   7.003   5.250   0.880
16609SOL     OW51600  10.860   9.081  12.333
16609SOL    HW151601  10.902   9.137  12.398
16609SOL    HW251602  10.891   8.993  12.354
16610SOL     OW51603   9.388   5.030   8.981
16610SOL    HW151604   9.429   4.957   9.027
16610SOL    HW251605   9.340   5.077   9.050
16611SOL     OW51606   0.707   2.982   1.368
16611SOL    HW151607   0.739   3.038   1.438
16611SOL    HW251608   0.614   2.967   1.389
16612SOL     OW51609   8.822   2.275   9.371
16612SOL    HW151610   8.810   2.363   9.408
16612SOL    HW251611   8.792   2.283   9.280
16613SOL     OW51612   7.184  10.366   9.421
16613SOL    HW151613   7.178  10.330   9.332
16613SOL    HW251614   7.212  10.292   9.475
16614SOL     OW51615  11.013   0.451  11.603
16614SOL    HW151616  11.015   0.358  11.581
16614SOL    HW251617  11.084   0.462  11.666
16615SOL     OW51618  13.005   9.762   1.870
16615SOL    HW151619  12.973   9.706   1.940
16615SOL    HW251620  12.928   9.786   1.820
16616SOL     OW51621  13.339  13.221  14.756
16616SOL    HW151622  13.389  13.145  14.787
16616SOL    HW251623  13.406  13.286  14.733
16617SOL     OW51624  10.839   5.438   5.333
16617SOL    HW151625  10.748   5.411   5.326
16617SOL    HW251626  10.882   5.393   5.260
16618SOL     OW51627  14.760  14.069   3.404
16618SOL    HW151628  14.736  14.159   3.422
16618SOL    HW251629  14.742  14.022   3.486
16619SOL     OW51630  12.303  11.049  11.953
16619SOL    HW151631  12.237  10.995  11.910
16619SOL    HW251632  12.326  11.115  11.888
16620SOL     OW51633   3.260  12.887   1.359
16620SOL    HW151634   3.226  12.827   1.292
16620SOL    HW251635   3.184  12.937   1.388
16621SOL     OW51636   9.903   0.812   3.778
16621SOL    HW151637   9.969   0.800   3.846
16621SOL    HW251638   9.904   0.905   3.758
16622SOL     OW51639  10.081  11.724   2.116
16622SOL    HW151640  10.143  11.650   2.109
16622SOL    HW251641  10.132  11.800   2.089
16623SOL     OW51642   0.444   5.563   7.028
16623SOL    HW151643   0.412   5.652   7.047
16623SOL    HW251644   0.535   5.564   7.057
16624SOL     OW51645  10.405   2.951   9.864
16624SOL    HW151646  10.344   2.879   9.845
16624SOL    HW251647  10.352   3.030   9.854
16625SOL     OW51648   4.052   0.971   7.783
16625SOL    HW151649   4.073   0.944   7.694
16625SOL    HW251650   4.136   0.969   7.829
16626SOL     OW51651   2.515  11.065   6.650
16626SOL    HW151652   2.568  10.989   6.674
16626SOL    HW251653   2.440  11.028   6.602
16627SOL     OW51654   5.219  10.959   3.198
16627SOL    HW151655   5.209  11.025   3.130
16627SOL    HW251656   5.312  10.960   3.219
16628SOL     OW51657   7.466   4.012   1.606
16628SOL    HW151658   7.377   4.048   1.601
16628SOL    HW251659   7.523   4.088   1.592
16629SOL     OW51660   6.069   4.876   0.280
16629SOL    HW151661   6.072   4.817   0.204
16629SOL    HW251662   6.125   4.950   0.255
16630SOL     OW51663  11.954   3.257   9.142
16630SOL    HW151664  11.909   3.188   9.093
16630SOL    HW251665  11.909   3.337   9.118
16631SOL     OW51666   3.697  11.666   0.749
16631SOL    HW151667   3.780  11.714   0.747
16631SOL    HW251668   3.717  11.582   0.709
16632SOL     OW51669   9.034   2.195   6.921
16632SOL    HW151670   9.091   2.272   6.920
16632SOL    HW251671   9.057   2.148   6.841
16633SOL     OW51672   7.563  10.405  14.812
16633SOL    HW151673   7.644  10.414  14.862
16633SOL    HW251674   7.583  10.446  14.728
16634SOL     OW51675   8.825  12.222  14.637
16634SOL    HW151676   8.817  12.210  14.732
16634SOL    HW251677   8.899  12.282  14.627
16635SOL     OW51678  13.737   4.214  11.997
16635SOL    HW151679  13.830   4.220  12.020
16635SOL    HW251680  13.710   4.129  12.031
16636SOL     OW51681  11.812  14.146   8.844
16636SOL    HW151682  11.829  14.077   8.908
16636SOL    HW251683  11.893  14.195   8.839
16637SOL     OW51684  12.037  11.559   9.277
16637SOL    HW151685  12.018  11.601   9.361
16637SOL    HW251686  12.129  11.532   9.284
16638SOL     OW51687   1.457   6.624   3.260
16638SOL    HW151688   1.389   6.600   3.197
16638SOL    HW251689   1.419   6.697   3.309
16639SOL     OW51690   1.920   7.791  11.926
16639SOL    HW151691   1.848   7.813  11.866
16639SOL    HW251692   1.914   7.697  11.937
16640SOL     OW51693   3.025  12.118   3.637
16640SOL    HW151694   3.069  12.093   3.718
16640SOL    HW251695   3.085  12.182   3.597
16641SOL     OW51696   9.977  14.507   4.824
16641SOL    HW151697   9.909  14.443   4.846
16641SOL    HW251698   9.963  14.526   4.731
16642SOL     OW51699   8.771   3.231   4.861
16642SOL    HW151700   8.771   3.322   4.831
16642SOL    HW251701   8.757   3.180   4.781
16643SOL     OW51702   6.780   7.213   9.822
16643SOL    HW151703   6.775   7.308   9.812
16643SOL    HW251704   6.817   7.183   9.739
16644SOL     OW51705   0.147   6.534   4.580
16644SOL    HW151706   0.089   6.542   4.655
16644SOL    HW251707   0.094   6.492   4.512
16645SOL     OW51708   2.683   4.387   6.189
16645SOL    HW151709   2.618   4.317   6.182
16645SOL    HW251710   2.660   4.449   6.120
16646SOL     OW51711   7.754   1.956   6.937
16646SOL    HW151712   7.841   1.969   6.974
16646SOL    HW251713   7.758   1.869   6.897
16647SOL     OW51714   6.730   8.082  12.287
16647SOL    HW151715   6.742   8.133  12.207
16647SOL    HW251716   6.760   7.994  12.264
16648SOL     OW51717   9.639   6.320   6.695
16648SOL    HW151718   9.550   6.323   6.728
16648SOL    HW251719   9.692   6.294   6.770
16649SOL     OW51720  12.107  13.300  14.112
16649SOL    HW151721  12.109  13.228  14.049
16649SOL    HW251722  12.020  13.338  14.101
16650SOL     OW51723  13.692  11.065   7.830
16650SOL    HW151724  13.659  11.009   7.900
16650SOL    HW251725  13.787  11.062   7.841
16651SOL     OW51726   4.151   9.785   7.598
16651SOL    HW151727   4.083   9.805   7.662
16651SOL    HW251728   4.108   9.730   7.532
16652SOL     OW51729   8.396   1.348   5.787
16652SOL    HW151730   8.345   1.349   5.706
16652SOL    HW251731   8.397   1.256   5.813
16653SOL     OW51732   1.396   4.199   3.782
16653SOL    HW151733   1.445   4.244   3.713
16653SOL    HW251734   1.304   4.217   3.761
16654SOL     OW51735   0.595   3.601   7.672
16654SOL    HW151736   0.579   3.549   7.751
16654SOL    HW251737   0.551   3.552   7.602
16655SOL     OW51738   7.527   2.135   6.723
16655SOL    HW151739   7.486   2.221   6.723
16655SOL    HW251740   7.606   2.146   6.668
16656SOL     OW51741  12.984   3.880   1.387
16656SOL    HW151742  12.898   3.852   1.418
16656SOL    HW251743  12.986   3.855   1.295
16657SOL     OW51744  13.713   1.214  10.052
16657SOL    HW151745  13.749   1.135  10.011
16657SOL    HW251746  13.708   1.193  10.145
16658SOL     OW51747  11.015   6.579  13.125
16658SOL    HW151748  10.960   6.576  13.047
16658SOL    HW251749  11.068   6.500  13.120
16659SOL     OW51750   7.143  13.965   4.635
16659SOL    HW151751   7.093  13.954   4.555
16659SOL    HW251752   7.099  13.910   4.700
16660SOL     OW51753   3.754   2.041   8.878
16660SOL    HW151754   3.764   2.037   8.973
16660SOL    HW251755   3.734   2.133   8.860
16661SOL     OW51756  14.202   6.732  14.654
16661SOL    HW151757  14.140   6.719  14.727
16661SOL    HW251758  14.176   6.816  14.616
16662SOL     OW51759   1.930   9.812   3.113
16662SOL    HW151760   1.970   9.898   3.125
16662SOL    HW251761   1.836   9.829   3.109
16663SOL     OW51762  14.534   5.226   4.112
16663SOL    HW151763  14.504   5.311   4.142
16663SOL    HW251764  14.482   5.208   4.034
16664SOL     OW51765   9.124   9.676   1.558
16664SOL    HW151766   9.052   9.661   1.620
16664SOL    HW251767   9.198   9.629   1.597
16665SOL     OW51768  14.035   2.991   2.633
16665SOL    HW151769  13.979   3.056   2.589
16665SOL    HW251770  14.077   3.040   2.704
16666SOL     OW51771  13.679   9.800  10.732
16666SOL    HW151772  13.662   9.827  10.822
16666SOL    HW251773  13.775   9.793  10.726
16667SOL     OW51774   6.429  13.699  11.560
16667SOL    HW151775   6.499  13.636  11.575
16667SOL    HW251776   6.353  13.661  11.605
16668SOL     OW51777   5.423  13.824   4.024
16668SOL    HW151778   5.336  13.840   4.060
16668SOL    HW251779   5.431  13.728   4.024
16669SOL     OW51780   0.232  11.644   1.090
16669SOL    HW151781   0.320  11.654   1.054
16669SOL    HW251782   0.234  11.691   1.173
16670SOL     OW51783   4.832   8.103   6.024
16670SOL    HW151784   4.767   8.152   5.975
16670SOL    HW251785   4.906   8.093   5.963
16671SOL     OW51786  11.273   9.304  12.919
16671SOL    HW151787  11.361   9.332  12.947
16671SOL    HW251788  11.213   9.361  12.967
16672SOL     OW51789   0.254  14.794   3.911
16672SOL    HW151790   0.191  14.856   3.873
16672SOL    HW251791   0.270  14.826   3.999
16673SOL     OW51792   9.391   4.294   3.860
16673SOL    HW151793   9.432   4.296   3.947
16673SOL    HW251794   9.465   4.298   3.799
16674SOL     OW51795   1.437  11.453   4.357
16674SOL    HW151796   1.448  11.486   4.268
16674SOL    HW251797   1.378  11.378   4.347
16675SOL     OW51798   7.272   7.542   5.407
16675SOL    HW151799   7.354   7.587   5.426
16675SOL    HW251800   7.267   7.541   5.312
16676SOL     OW51801  12.414   5.888  10.727
16676SOL    HW151802  12.382   5.870  10.815
16676SOL    HW251803  12.474   5.817  10.707
16677SOL     OW51804   5.279   9.079   9.609
16677SOL    HW151805   5.335   9.005   9.585
16677SOL    HW251806   5.245   9.112   9.526
16678SOL     OW51807   0.769  14.716  10.689
16678SOL    HW151808   0.802  14.632  10.722
16678SOL    HW251809   0.819  14.732  10.609
16679SOL     OW51810  14.330   8.391   6.942
16679SOL    HW151811  14.387   8.467   6.927
16679SOL    HW251812  14.390   8.316   6.942
16680SOL     OW51813   3.226   7.206   2.209
16680SOL    HW151814   3.229   7.111   2.201
16680SOL    HW251815   3.296   7.227   2.271
16681SOL     OW51816   1.308   8.350  14.368
16681SOL    HW151817   1.396   8.328  14.398
16681SOL    HW251818   1.317   8.436  14.327
16682SOL     OW51819   3.856  11.089   2.875
16682SOL    HW151820   3.830  11.004   2.909
16682SOL    HW251821   3.788  11.149   2.906
16683SOL     OW51822   4.092   5.093  14.423
16683SOL    HW151823   4.125   5.038  14.495
16683SOL    HW251824   4.006   5.122  14.453
16684SOL     OW51825   2.441  12.031  11.674
16684SOL    HW151826   2.404  12.090  11.609
16684SOL    HW251827   2.388  12.045  11.753
16685SOL     OW51828   6.547   1.965  13.973
16685SOL    HW151829   6.515   2.044  13.929
16685SOL    HW251830   6.617   1.995  14.030
16686SOL     OW51831   8.964   6.553  13.971
16686SOL    HW151832   8.971   6.468  13.929
16686SOL    HW251833   9.033   6.606  13.932
16687SOL     OW51834   7.526  11.647   5.816
16687SOL    HW151835   7.511  11.572   5.873
16687SOL    HW251836   7.500  11.617   5.729
16688SOL     OW51837   2.733   1.847  11.744
16688SOL    HW151838   2.761   1.939  11.747
16688SOL    HW251839   2.659   1.843  11.805
16689SOL     OW51840  12.541   5.594   7.984
16689SOL    HW151841  12.635   5.582   7.977
16689SOL    HW251842  12.530   5.677   8.030
16690SOL     OW51843  11.282   5.038  10.948
16690SOL    HW151844  11.247   5.048  11.036
16690SOL    HW251845  11.294   5.128  10.917
16691SOL     OW51846   8.663   3.040   7.700
16691SOL    HW151847   8.610   2.977   7.748
16691SOL    HW251848   8.744   3.048   7.751
16692SOL     OW51849   7.381   8.416   1.436
16692SOL    HW151850   7.413   8.507   1.436
16692SOL    HW251851   7.458   8.364   1.413
16693SOL     OW51852  11.625  13.356   3.864
16693SOL    HW151853  11.701  13.301   3.878
16693SOL    HW251854  11.648  13.440   3.903
16694SOL     OW51855   0.697  11.543  14.288
16694SOL    HW151856   0.714  11.452  14.313
16694SOL    HW251857   0.724  11.548  14.196
16695SOL     OW51858   5.690   1.725   0.098
16695SOL    HW151859   5.768   1.672   0.116
16695SOL    HW251860   5.723   1.799   0.047
16696SOL     OW51861  13.916   6.477   6.376
16696SOL    HW151862  13.975   6.450   6.447
16696SOL    HW251863  13.829   6.477   6.417
16697SOL     OW51864   1.177   3.574   2.217
16697SOL    HW151865   1.092   3.535   2.239
16697SOL    HW251866   1.172   3.663   2.253
16698SOL     OW51867  10.484   9.090  12.853
16698SOL    HW151868  10.560   9.137  12.817
16698SOL    HW251869  10.521   9.032  12.919
16699SOL     OW51870   5.329   8.065   5.404
16699SOL    HW151871   5.398   8.122   5.371
16699SOL    HW251872   5.280   8.119   5.466
16700SOL     OW51873   6.252  14.706  12.959
16700SOL    HW151874   6.223  14.797  12.966
16700SOL    HW251875   6.266  14.678  13.050
16701SOL     OW51876   4.579   3.418   7.140
16701SOL    HW151877   4.566   3.333   7.097
16701SOL    HW251878   4.497   3.464   7.127
16702SOL     OW51879  13.748   7.033   3.172
16702SOL    HW151880  13.691   7.054   3.246
16702SOL    HW251881  13.753   7.114   3.121
16703SOL     OW51882   3.121   1.301  12.544
16703SOL    HW151883   3.104   1.242  12.618
16703SOL    HW251884   3.209   1.277  12.514
16704SOL     OW51885   0.209  13.013  10.953
16704SOL    HW151886   0.286  12.994  11.006
16704SOL    HW251887   0.195  12.933  10.901
16705SOL     OW51888  14.625   3.126   7.061
16705SOL    HW151889  14.682   3.184   7.011
16705SOL    HW251890  14.582   3.185   7.124
16706SOL     OW51891   6.961   2.803   3.636
16706SOL    HW151892   6.923   2.716   3.651
16706SOL    HW251893   6.888   2.863   3.647
16707SOL     OW51894   5.019  12.696  10.170
16707SOL    HW151895   5.113  12.684  10.181
16707SOL    HW251896   5.001  12.781  10.210
16708SOL     OW51897   2.984  10.509   2.721
16708SOL    HW151898   2.951  10.431   2.676
16708SOL    HW251899   3.076  10.490   2.738
16709SOL     OW51900   2.180   1.435   4.885
16709SOL    HW151901   2.262   1.439   4.935
16709SOL    HW251902   2.208   1.433   4.794
16710SOL     OW51903   2.481  13.429  12.305
16710SOL    HW151904   2.441  13.343  12.320
16710SOL    HW251905   2.561  13.410  12.257
16711SOL     OW51906   0.848  12.130   1.883
16711SOL    HW151907   0.943  12.147   1.879
16711SOL    HW251908   0.814  12.167   1.802
16712SOL     OW51909   7.734   0.489  11.543
16712SOL    HW151910   7.658   0.503  11.486
16712SOL    HW251911   7.806   0.473  11.482
16713SOL     OW51912  11.867  14.553  10.074
16713SOL    HW151913  11.790  14.524  10.123
16713SOL    HW251914  11.923  14.475  10.067
16714SOL     OW51915   5.564   7.804  12.577
16714SOL    HW151916   5.605   7.857  12.508
16714SOL    HW251917   5.584   7.850  12.658
16715SOL     OW51918   0.053   4.574  10.111
16715SOL    HW151919   0.024   4.495  10.065
16715SOL    HW251920   0.005   4.573  10.194
16716SOL     OW51921  11.856   0.327   7.875
16716SOL    HW151922  11.897   0.412   7.891
16716SOL    HW251923  11.851   0.286   7.961
16717SOL     OW51924   1.088  11.655   4.269
16717SOL    HW151925   1.145  11.669   4.344
16717SOL    HW251926   1.009  11.705   4.289
16718SOL     OW51927   1.093   8.065  14.466
16718SOL    HW151928   1.178   8.033  14.496
16718SOL    HW251929   1.113   8.114  14.386
16719SOL     OW51930   0.243  11.686   6.632
16719SOL    HW151931   0.313  11.746   6.660
16719SOL    HW251932   0.166  11.715   6.681
16720SOL     OW51933   7.840   0.567  11.014
16720SOL    HW151934   7.892   0.641  10.986
16720SOL    HW251935   7.791   0.599  11.090
16721SOL     OW51936   2.224   0.516  12.408
16721SOL    HW151937   2.283   0.586  12.382
16721SOL    HW251938   2.144   0.560  12.435
16722SOL     OW51939   8.965  12.191  13.274
16722SOL    HW151940   8.876  12.182  13.240
16722SOL    HW251941   9.013  12.235  13.205
16723SOL     OW51942  11.822   5.352   3.619
16723SOL    HW151943  11.867   5.287   3.672
16723SOL    HW251944  11.844   5.328   3.529
16724SOL     OW51945   0.069  10.477  11.491
16724SOL    HW151946   0.140  10.512  11.438
16724SOL    HW251947   0.109  10.405  11.540
16725SOL     OW51948   6.231   1.253  12.934
16725SOL    HW151949   6.271   1.211  13.010
16725SOL    HW251950   6.300   1.308  12.897
16726SOL     OW51951   5.102  12.432   1.467
16726SOL    HW151952   5.098  12.337   1.477
16726SOL    HW251953   5.148  12.462   1.545
16727SOL     OW51954  11.456   8.614   7.987
16727SOL    HW151955  11.514   8.672   7.938
16727SOL    HW251956  11.368   8.642   7.964
16728SOL     OW51957   1.107   0.940   9.608
16728SOL    HW151958   1.098   0.971   9.518
16728SOL    HW251959   1.199   0.952   9.629
16729SOL     OW51960   6.346   3.159  14.744
16729SOL    HW151961   6.351   3.184  14.651
16729SOL    HW251962   6.382   3.071  14.747
16730SOL     OW51963   1.889  14.501   8.265
16730SOL    HW151964   1.968  14.506   8.319
16730SOL    HW251965   1.916  14.450   8.188
16731SOL     OW51966   6.186   7.671  14.700
16731SOL    HW151967   6.205   7.680  14.793
16731SOL    HW251968   6.271   7.675  14.657
16732SOL     OW51969   1.097  12.823   6.224
16732SOL    HW151970   1.164  12.839   6.158
16732SOL    HW251971   1.146  12.797   6.302
16733SOL     OW51972   4.893   7.991   9.374
16733SOL    HW151973   4.987   7.983   9.354
16733SOL    HW251974   4.886   7.966   9.466
16734SOL     OW51975   1.677   7.660  12.309
16734SOL    HW151976   1.657   7.587  12.250
16734SOL    HW251977   1.731   7.622  12.378
16735SOL     OW51978  10.339   9.070   1.016
16735SOL    HW151979  10.334   9.065   0.920
16735SOL    HW251980  10.406   9.006   1.040
16736SOL     OW51981   9.573   6.730   7.418
16736SOL    HW151982   9.495   6.785   7.425
16736SOL    HW251983   9.639   6.775   7.472
16737SOL     OW51984   3.119  13.805   8.843
16737SOL    HW151985   3.172  13.845   8.774
16737SOL    HW251986   3.179  13.748   8.889
16738SOL     OW51987   5.905  10.169   4.019
16738SOL    HW151988   5.916  10.264   4.028
16738SOL    HW251989   5.829  10.149   4.073
16739SOL     OW51990   2.290   0.641   3.141
16739SOL    HW151991   2.196   0.628   3.154
16739SOL    HW251992   2.300   0.653   3.047
16740SOL     OW51993  13.372   7.340   8.667
16740SOL    HW151994  13.466   7.331   8.679
16740SOL    HW251995  13.346   7.407   8.731
16741SOL     OW51996   9.260   0.733   5.137
16741SOL    HW151997   9.173   0.694   5.136
16741SOL    HW251998   9.247   0.821   5.172
16742SOL     OW51999   1.737   9.049   0.689
16742SOL    HW152000   1.719   9.076   0.779
16742SOL    HW252001   1.725   8.954   0.690
16743SOL     OW52002   9.067   6.961   6.418
16743SOL    HW152003   9.046   6.976   6.510
16743SOL    HW252004   9.159   6.934   6.419
16744SOL     OW52005   0.480   4.647   5.918
16744SOL    HW152006   0.489   4.613   5.829
16744SOL    HW252007   0.569   4.647   5.952
16745SOL     OW52008  14.390   7.606   0.537
16745SOL    HW152009  14.482   7.632   0.526
16745SOL    HW252010  14.388   7.514   0.510
16746SOL     OW52011  14.443   0.196  10.048
16746SOL    HW152012  14.435   0.216   9.955
16746SOL    HW252013  14.361   0.151  10.069
16747SOL     OW52014   4.265   1.091   7.892
16747SOL    HW152015   4.324   1.066   7.964
16747SOL    HW252016   4.252   1.185   7.904
16748SOL     OW52017  11.273   8.146   9.881
16748SOL    HW152018  11.343   8.140   9.816
16748SOL    HW252019  11.315   8.187   9.957
16749SOL     OW52020   7.319  14.295  11.994
16749SOL    HW152021   7.236  14.253  11.973
16749SOL    HW252022   7.377  14.272  11.921
16750SOL     OW52023   2.201  10.661   4.651
16750SOL    HW152024   2.253  10.633   4.576
16750SOL    HW252025   2.266  10.692   4.715
16751SOL     OW52026   8.321   4.647  14.694
16751SOL    HW152027   8.262   4.670  14.766
16751SOL    HW252028   8.273   4.581  14.644
16752SOL     OW52029   6.959   8.259  13.737
16752SOL    HW152030   6.913   8.326  13.787
16752SOL    HW252031   7.045   8.299  13.718
16753SOL     OW52032   5.247   6.507  12.402
16753SOL    HW152033   5.189   6.445  12.357
16753SOL    HW252034   5.216   6.593  12.373
16754SOL     OW52035  11.791   8.617  11.955
16754SOL    HW152036  11.773   8.642  12.046
16754SOL    HW252037  11.707   8.582  11.923
16755SOL     OW52038   4.173   6.477   5.193
16755SOL    HW152039   4.215   6.458   5.277
16755SOL    HW252040   4.079   6.465   5.210
16756SOL     OW52041   3.755  10.561  12.258
16756SOL    HW152042   3.678  10.528  12.211
16756SOL    HW252043   3.812  10.597  12.190
16757SOL     OW52044   1.442   9.358   8.746
16757SOL    HW152045   1.453   9.310   8.664
16757SOL    HW252046   1.530   9.364   8.782
16758SOL     OW52047   3.012  13.090  13.090
16758SOL    HW152048   2.980  13.138  13.014
16758SOL    HW252049   2.938  13.088  13.150
16759SOL     OW52050   2.975  11.124  13.825
16759SOL    HW152051   2.962  11.091  13.914
16759SOL    HW252052   3.066  11.154  13.824
16760SOL     OW52053   6.310   5.293  12.824
16760SOL    HW152054   6.286   5.242  12.746
16760SOL    HW252055   6.345   5.228  12.885
16761SOL     OW52056  13.892   3.324   4.058
16761SOL    HW152057  13.817   3.384   4.053
16761SOL    HW252058  13.968   3.380   4.043
16762SOL     OW52059   4.606  13.968   4.663
16762SOL    HW152060   4.689  13.990   4.621
16762SOL    HW252061   4.540  13.982   4.595
16763SOL     OW52062   9.370   0.373   3.063
16763SOL    HW152063   9.379   0.326   3.146
16763SOL    HW252064   9.456   0.365   3.021
16764SOL     OW52065  14.024   8.408   9.763
16764SOL    HW152066  14.107   8.370   9.792
16764SOL    HW252067  13.986   8.445   9.843
16765SOL     OW52068  10.713   5.488  13.476
16765SOL    HW152069  10.801   5.450  13.475
16765SOL    HW252070  10.710   5.539  13.558
16766SOL     OW52071  10.533   9.928  11.329
16766SOL    HW152072  10.503  10.018  11.320
16766SOL    HW252073  10.627   9.936  11.345
16767SOL     OW52074  11.049   2.814  10.220
16767SOL    HW152075  11.117   2.793  10.156
16767SOL    HW252076  11.079   2.895  10.261
16768SOL     OW52077   2.899   3.414  13.013
16768SOL    HW152078   2.972   3.407  13.074
16768SOL    HW252079   2.935   3.383  12.929
16769SOL     OW52080  11.360   9.692  10.539
16769SOL    HW152081  11.320   9.779  10.546
16769SOL    HW252082  11.286   9.631  10.544
16770SOL     OW52083   1.626   5.486  12.946
16770SOL    HW152084   1.693   5.478  12.878
16770SOL    HW252085   1.644   5.413  13.006
16771SOL     OW52086  14.412  13.007  12.584
16771SOL    HW152087  14.416  12.948  12.509
16771SOL    HW252088  14.503  13.016  12.612
16772SOL     OW52089   1.043   7.379   7.041
16772SOL    HW152090   1.112   7.427   7.087
16772SOL    HW252091   1.068   7.383   6.949
16773SOL     OW52092  11.354   9.271   0.505
16773SOL    HW152093  11.325   9.190   0.549
16773SOL    HW252094  11.272   9.314   0.479
16774SOL     OW52095   6.470   1.617   7.917
16774SOL    HW152096   6.527   1.632   7.841
16774SOL    HW252097   6.479   1.524   7.935
16775SOL     OW52098   4.926   9.543  10.456
16775SOL    HW152099   4.922   9.453  10.490
16775SOL    HW252100   4.885   9.596  10.524
16776SOL     OW52101   4.155   7.263   3.595
16776SOL    HW152102   4.189   7.328   3.658
16776SOL    HW252103   4.062   7.257   3.616
16777SOL     OW52104   1.140   5.376   7.700
16777SOL    HW152105   1.221   5.423   7.679
16777SOL    HW252106   1.137   5.305   7.636
16778SOL     OW52107   9.232  11.722  12.235
16778SOL    HW152108   9.193  11.679  12.159
16778SOL    HW252109   9.303  11.663  12.261
16779SOL     OW52110  12.893  14.062   4.847
16779SOL    HW152111  12.957  14.120   4.806
16779SOL    HW252112  12.822  14.121   4.874
16780SOL     OW52113  11.370  10.307   9.571
16780SOL    HW152114  11.310  10.243   9.609
16780SOL    HW252115  11.457  10.276   9.596
16781SOL     OW52116  14.540  13.897  10.819
16781SOL    HW152117  14.627  13.883  10.784
16781SOL    HW252118  14.548  13.977  10.871
16782SOL     OW52119   1.052   1.321  12.194
16782SOL    HW152120   1.103   1.250  12.153
16782SOL    HW252121   1.111   1.356  12.261
16783SOL     OW52122  10.982  14.525   1.617
16783SOL    HW152123  11.070  14.491   1.599
16783SOL    HW252124  10.930  14.495   1.542
16784SOL     OW52125   6.941  13.908   3.220
16784SOL    HW152126   7.003  13.894   3.292
16784SOL    HW252127   6.988  13.881   3.141
16785SOL     OW52128   7.848  10.125   4.272
16785SOL    HW152129   7.856  10.073   4.192
16785SOL    HW252130   7.806  10.066   4.334
16786SOL     OW52131   6.515   8.916   5.873
16786SOL    HW152132   6.436   8.862   5.877
16786SOL    HW252133   6.562   8.896   5.954
16787SOL     OW52134   6.601   7.361   9.288
16787SOL    HW152135   6.673   7.404   9.241
16787SOL    HW252136   6.537   7.430   9.302
16788SOL     OW52137  14.551   0.263   8.899
16788SOL    HW152138  14.455   0.268   8.902
16788SOL    HW252139  14.571   0.173   8.926
16789SOL     OW52140  10.534   9.671   9.111
16789SOL    HW152141  10.579   9.712   9.036
16789SOL    HW252142  10.470   9.612   9.071
16790SOL     OW52143  12.749  11.482   6.682
16790SOL    HW152144  12.679  11.547   6.681
16790SOL    HW252145  12.780  11.480   6.772
16791SOL     OW52146  10.764   0.194  14.729
16791SOL    HW152147  10.801   0.120  14.682
16791SOL    HW252148  10.744   0.159  14.816
16792SOL     OW52149  10.400  11.981   0.302
16792SOL    HW152150  10.329  11.918   0.296
16792SOL    HW252151  10.357  12.066   0.308
16793SOL     OW52152   0.630   8.755   6.724
16793SOL    HW152153   0.636   8.692   6.797
16793SOL    HW252154   0.720   8.765   6.694
16794SOL     OW52155   9.032   5.248  11.347
16794SOL    HW152156   9.029   5.341  11.368
16794SOL    HW252157   9.078   5.244  11.263
16795SOL     OW52158   5.793   8.763   0.647
16795SOL    HW152159   5.753   8.688   0.604
16795SOL    HW252160   5.722   8.805   0.695
16796SOL     OW52161   9.250  10.628   5.776
16796SOL    HW152162   9.179  10.587   5.726
16796SOL    HW252163   9.329  10.582   5.748
16797SOL     OW52164   7.536  12.513  10.464
16797SOL    HW152165   7.500  12.556  10.387
16797SOL    HW252166   7.630  12.505  10.445
16798SOL     OW52167   8.003   0.608  11.835
16798SOL    HW152168   7.912   0.631  11.813
16798SOL    HW252169   8.004   0.512  11.833
16799SOL     OW52170   8.752  11.682   7.124
16799SOL    HW152171   8.684  11.666   7.059
16799SOL    HW252172   8.779  11.594   7.153
16800SOL     OW52173  10.392  11.401  12.109
16800SOL    HW152174  10.469  11.406  12.164
16800SOL    HW252175  10.360  11.311  12.119
16801SOL     OW52176  14.534   9.757  13.883
16801SOL    HW152177  14.540   9.816  13.808
16801SOL    HW252178  14.559   9.672  13.848
16802SOL     OW52179   9.149   5.825  11.607
16802SOL    HW152180   9.095   5.837  11.528
16802SOL    HW252181   9.151   5.912  11.648
16803SOL     OW52182  14.608   2.733   4.448
16803SOL    HW152183  14.695   2.695   4.461
16803SOL    HW252184  14.620   2.799   4.380
16804SOL     OW52185   4.313  13.085  12.915
16804SOL    HW152186   4.343  13.077  12.825
16804SOL    HW252187   4.286  13.177  12.923
16805SOL     OW52188   6.261   6.003  12.608
16805SOL    HW152189   6.305   5.958  12.535
16805SOL    HW252190   6.330   6.014  12.674
16806SOL     OW52191   0.533  11.006  14.652
16806SOL    HW152192   0.548  11.084  14.705
16806SOL    HW252193   0.460  11.030  14.596
16807SOL     OW52194   3.993  13.238   3.714
16807SOL    HW152195   3.923  13.173   3.708
16807SOL    HW252196   4.007  13.267   3.624
16808SOL     OW52197   0.438  14.737   4.298
16808SOL    HW152198   0.436  14.643   4.280
16808SOL    HW252199   0.472  14.743   4.388
16809SOL     OW52200   5.942   2.660   0.897
16809SOL    HW152201   5.877   2.670   0.827
16809SOL    HW252202   6.021   2.703   0.862
16810SOL     OW52203   3.605   9.414   0.456
16810SOL    HW152204   3.580   9.495   0.501
16810SOL    HW252205   3.698   9.425   0.436
16811SOL     OW52206   3.334   1.917   4.509
16811SOL    HW152207   3.290   1.832   4.508
16811SOL    HW252208   3.330   1.944   4.601
16812SOL     OW52209   3.448  14.385  10.199
16812SOL    HW152210   3.497  14.426  10.128
16812SOL    HW252211   3.480  14.426  10.279
16813SOL     OW52212  11.046   9.861   0.938
16813SOL    HW152213  11.000   9.944   0.950
16813SOL    HW252214  10.993   9.797   0.985
16814SOL     OW52215  14.526   0.175  14.698
16814SOL    HW152216  14.517   0.242  14.630
16814SOL    HW252217  14.596   0.207  14.754
16815SOL     OW52218   3.756  13.766   4.658
16815SOL    HW152219   3.680  13.716   4.686
16815SOL    HW252220   3.758  13.758   4.563
16816SOL     OW52221   1.650  14.814   0.926
16816SOL    HW152222   1.567  14.771   0.909
16816SOL    HW252223   1.641   0.024   0.889
16817SOL     OW52224  11.896  10.985   7.655
16817SOL    HW152225  11.946  11.056   7.695
16817SOL    HW252226  11.817  11.026   7.621
16818SOL     OW52227   0.531   0.795  13.822
16818SOL    HW152228   0.517   0.778  13.729
16818SOL    HW252229   0.526   0.890  13.830
16819SOL     OW52230   1.561  10.937   8.470
16819SOL    HW152231   1.627  10.963   8.406
16819SOL    HW252232   1.571  10.999   8.542
16820SOL     OW52233  10.622  13.932   5.384
16820SOL    HW152234  10.580  14.017   5.401
16820SOL    HW252235  10.583  13.903   5.302
16821SOL     OW52236   5.960   7.817   8.784
16821SOL    HW152237   6.012   7.881   8.736
16821SOL    HW252238   5.896   7.869   8.833
16822SOL     OW52239   5.194  12.083  13.198
16822SOL    HW152240   5.186  12.168  13.155
16822SOL    HW252241   5.104  12.050  13.204
16823SOL     OW52242   2.149  13.086   6.581
16823SOL    HW152243   2.151  12.999   6.621
16823SOL    HW252244   2.057  13.098   6.555
16824SOL     OW52245  14.492   5.281   2.989
16824SOL    HW152246  14.430   5.217   3.022
16824SOL    HW252247  14.578   5.241   3.004
16825SOL     OW52248  11.567  10.433   4.714
16825SOL    HW152249  11.599  10.347   4.741
16825SOL    HW252250  11.640  10.470   4.664
16826SOL     OW52251  11.114   7.102   6.663
16826SOL    HW152252  11.154   7.119   6.577
16826SOL    HW252253  11.142   7.013   6.685
16827SOL     OW52254   2.316  10.765   2.408
16827SOL    HW152255   2.399  10.737   2.445
16827SOL    HW252256   2.329  10.760   2.313
16828SOL     OW52257  13.217   0.255   6.315
16828SOL    HW152258  13.230   0.209   6.232
16828SOL    HW252259  13.267   0.336   6.306
16829SOL     OW52260   1.759   2.383   7.877
16829SOL    HW152261   1.764   2.337   7.961
16829SOL    HW252262   1.668   2.412   7.870
16830SOL     OW52263   3.169   2.264  13.017
16830SOL    HW152264   3.252   2.237  12.980
16830SOL    HW252265   3.192   2.328  13.084
16831SOL     OW52266   8.742   6.768  12.636
16831SOL    HW152267   8.740   6.842  12.698
16831SOL    HW252268   8.685   6.796  12.564
16832SOL     OW52269   7.949  11.253   6.607
16832SOL    HW152270   7.897  11.306   6.667
16832SOL    HW252271   7.937  11.163   6.638
16833SOL     OW52272   3.360   0.625  13.706
16833SOL    HW152273   3.336   0.711  13.740
16833SOL    HW252274   3.337   0.629  13.613
16834SOL     OW52275   3.642  14.727   1.614
16834SOL    HW152276   3.599  14.642   1.610
16834SOL    HW252277   3.642  14.749   1.707
16835SOL     OW52278   3.086  10.006  13.734
16835SOL    HW152279   3.093   9.921  13.778
16835SOL    HW252280   3.005  10.044  13.767
16836SOL     OW52281   5.133  14.751   8.334
16836SOL    HW152282   5.088  14.723   8.414
16836SOL    HW252283   5.224  14.763   8.361
16837SOL     OW52284   5.514   6.844   6.714
16837SOL    HW152285   5.542   6.897   6.640
16837SOL    HW252286   5.587   6.850   6.776
16838SOL     OW52287   0.304  10.533   8.096
16838SOL    HW152288   0.389  10.492   8.082
16838SOL    HW252289   0.320  10.597   8.166
16839SOL     OW52290  11.371   1.158   2.414
16839SOL    HW152291  11.287   1.204   2.419
16839SOL    HW252292  11.402   1.176   2.325
16840SOL     OW52293  12.105   7.864  13.910
16840SOL    HW152294  12.150   7.780  13.913
16840SOL    HW252295  12.096   7.890  14.002
16841SOL     OW52296  13.086  11.193  10.482
16841SOL    HW152297  13.082  11.284  10.453
16841SOL    HW252298  13.009  11.152  10.444
16842SOL     OW52299   4.993   6.066  13.237
16842SOL    HW152300   5.005   6.024  13.322
16842SOL    HW252301   5.031   6.005  13.174
16843SOL     OW52302  11.054   4.267  12.676
16843SOL    HW152303  11.082   4.359  12.671
16843SOL    HW252304  11.095   4.234  12.756
16844SOL     OW52305   5.117  10.745   2.888
16844SOL    HW152306   5.054  10.814   2.908
16844SOL    HW252307   5.137  10.705   2.972
16845SOL     OW52308  11.387   8.040   0.957
16845SOL    HW152309  11.384   8.134   0.936
16845SOL    HW252310  11.480   8.021   0.969
16846SOL     OW52311   2.763   3.781  10.809
16846SOL    HW152312   2.804   3.861  10.843
16846SOL    HW252313   2.761   3.722  10.884
16847SOL     OW52314   4.712   0.662  11.633
16847SOL    HW152315   4.781   0.729  11.635
16847SOL    HW252316   4.675   0.669  11.545
16848SOL     OW52317   7.672   0.118   6.110
16848SOL    HW152318   7.732   0.191   6.128
16848SOL    HW252319   7.723   0.040   6.130
16849SOL     OW52320   2.702  13.099   0.923
16849SOL    HW152321   2.743  13.094   1.010
16849SOL    HW252322   2.634  13.032   0.926
16850SOL     OW52323   1.134   0.094   2.974
16850SOL    HW152324   1.062   0.154   2.953
16850SOL    HW252325   1.178   0.080   2.890
16851SOL     OW52326  13.481  12.346   6.529
16851SOL    HW152327  13.395  12.317   6.500
16851SOL    HW252328  13.526  12.265   6.555
16852SOL     OW52329  10.235  12.221  10.723
16852SOL    HW152330  10.170  12.161  10.688
16852SOL    HW252331  10.307  12.217  10.660
16853SOL     OW52332  10.001  13.650   4.194
16853SOL    HW152333  10.092  13.625   4.203
16853SOL    HW252334   9.951  13.572   4.218
16854SOL     OW52335  13.099  10.452   4.948
16854SOL    HW152336  13.181  10.488   4.915
16854SOL    HW252337  13.120  10.362   4.973
16855SOL     OW52338   2.416  10.470   0.454
16855SOL    HW152339   2.439  10.417   0.378
16855SOL    HW252340   2.494  10.468   0.509
16856SOL     OW52341   4.840  12.523   7.318
16856SOL    HW152342   4.858  12.446   7.263
16856SOL    HW252343   4.750  12.548   7.294
16857SOL     OW52344   1.135   3.027   6.401
16857SOL    HW152345   1.048   3.060   6.423
16857SOL    HW252346   1.195   3.097   6.427
16858SOL     OW52347  10.169   7.878  12.148
16858SOL    HW152348  10.165   7.974  12.157
16858SOL    HW252349  10.262   7.860  12.132
16859SOL     OW52350   5.837   0.841  10.191
16859SOL    HW152351   5.759   0.868  10.240
16859SOL    HW252352   5.827   0.747  10.178
16860SOL     OW52353   2.033   1.478   5.962
16860SOL    HW152354   2.029   1.432   6.046
16860SOL    HW252355   2.117   1.452   5.924
16861SOL     OW52356   8.907   4.837  13.866
16861SOL    HW152357   8.972   4.770  13.844
16861SOL    HW252358   8.909   4.843  13.961
16862SOL     OW52359  12.046   1.916   2.903
16862SOL    HW152360  12.047   1.969   2.824
16862SOL    HW252361  12.006   1.973   2.969
16863SOL     OW52362   9.410   0.483   4.868
16863SOL    HW152363   9.366   0.433   4.799
16863SOL    HW252364   9.389   0.435   4.948
16864SOL     OW52365  11.348   3.112  10.131
16864SOL    HW152366  11.360   3.137  10.223
16864SOL    HW252367  11.437   3.095  10.099
16865SOL     OW52368  12.301  10.816   1.062
16865SOL    HW152369  12.210  10.806   1.034
16865SOL    HW252370  12.296  10.869   1.142
16866SOL     OW52371   7.342   1.940   9.645
16866SOL    HW152372   7.288   1.863   9.661
16866SOL    HW252373   7.306   2.007   9.703
16867SOL     OW52374   6.197  14.661  13.264
16867SOL    HW152375   6.287  14.648  13.293
16867SOL    HW252376   6.173  14.747  13.301
16868SOL     OW52377  12.775   2.698   3.587
16868SOL    HW152378  12.749   2.655   3.668
16868SOL    HW252379  12.725   2.780   3.586
16869SOL     OW52380   0.953   2.979  10.977
16869SOL    HW152381   1.039   2.951  11.008
16869SOL    HW252382   0.906   3.006  11.055
16870SOL     OW52383   9.285   1.976  13.546
16870SOL    HW152384   9.305   2.001  13.636
16870SOL    HW252385   9.196   1.942  13.550
16871SOL     OW52386   2.224   5.684  13.648
16871SOL    HW152387   2.292   5.690  13.582
16871SOL    HW252388   2.166   5.758  13.630
16872SOL     OW52389  11.317   5.148   6.690
16872SOL    HW152390  11.393   5.141   6.748
16872SOL    HW252391  11.242   5.136   6.748
16873SOL     OW52392   7.201   5.903   8.781
16873SOL    HW152393   7.132   5.949   8.829
16873SOL    HW252394   7.237   5.841   8.844
16874SOL     OW52395  12.777   6.007   1.465
16874SOL    HW152396  12.689   5.996   1.430
16874SOL    HW252397  12.796   6.100   1.454
16875SOL     OW52398   3.887  12.406   2.317
16875SOL    HW152399   3.923  12.429   2.403
16875SOL    HW252400   3.807  12.458   2.310
16876SOL     OW52401   1.192   9.429  14.282
16876SOL    HW152402   1.125   9.428  14.350
16876SOL    HW252403   1.240   9.347  14.294
16877SOL     OW52404   9.250  10.724  14.168
16877SOL    HW152405   9.323  10.702  14.110
16877SOL    HW252406   9.216  10.638  14.195
16878SOL     OW52407   4.375   5.572   8.609
16878SOL    HW152408   4.282   5.563   8.587
16878SOL    HW252409   4.388   5.513   8.683
16879SOL     OW52410   7.192  13.998   8.490
16879SOL    HW152411   7.244  13.990   8.410
16879SOL    HW252412   7.102  13.977   8.463
16880SOL     OW52413   7.592  11.597  10.426
16880SOL    HW152414   7.572  11.686  10.398
16880SOL    HW252415   7.561  11.542  10.354
16881SOL     OW52416  13.178  13.674   1.108
16881SOL    HW152417  13.204  13.663   1.016
16881SOL    HW252418  13.223  13.754   1.136
16882SOL     OW52419   2.965   7.988   9.360
16882SOL    HW152420   2.927   7.968   9.275
16882SOL    HW252421   2.895   7.969   9.423
16883SOL     OW52422   4.088   9.909  12.295
16883SOL    HW152423   4.103   9.816  12.314
16883SOL    HW252424   4.163   9.954  12.334
16884SOL     OW52425  12.686   5.329   1.444
16884SOL    HW152426  12.615   5.373   1.398
16884SOL    HW252427  12.743   5.400   1.473
16885SOL     OW52428   4.640   5.356   8.503
16885SOL    HW152429   4.571   5.333   8.565
16885SOL    HW252430   4.597   5.412   8.439
16886SOL     OW52431   0.437  13.961   1.575
16886SOL    HW152432   0.348  13.964   1.609
16886SOL    HW252433   0.429  13.914   1.492
16887SOL     OW52434  14.581  10.500   9.710
16887SOL    HW152435  14.506  10.441   9.721
16887SOL    HW252436  14.633  10.486   9.789
16888SOL     OW52437   8.446  12.683   9.738
16888SOL    HW152438   8.487  12.598   9.727
16888SOL    HW252439   8.402  12.700   9.654
16889SOL     OW52440  11.726   1.489   1.316
16889SOL    HW152441  11.766   1.415   1.362
16889SOL    HW252442  11.784   1.563   1.335
16890SOL     OW52443   3.382   9.522   1.978
16890SOL    HW152444   3.412   9.442   1.934
16890SOL    HW252445   3.292   9.534   1.947
16891SOL     OW52446   8.809   0.945   1.826
16891SOL    HW152447   8.833   1.019   1.882
16891SOL    HW252448   8.752   0.891   1.882
16892SOL     OW52449   5.870   8.196   1.956
16892SOL    HW152450   5.959   8.199   1.922
16892SOL    HW252451   5.879   8.163   2.045
16893SOL     OW52452   9.199   2.753   3.528
16893SOL    HW152453   9.266   2.773   3.463
16893SOL    HW252454   9.222   2.666   3.560
16894SOL     OW52455   9.059   3.965  13.713
16894SOL    HW152456   9.111   4.036  13.675
16894SOL    HW252457   9.003   4.008  13.777
16895SOL     OW52458   4.581   3.894   4.057
16895SOL    HW152459   4.529   3.943   3.993
16895SOL    HW252460   4.582   3.804   4.025
16896SOL     OW52461   1.301  10.776   5.324
16896SOL    HW152462   1.307  10.682   5.306
16896SOL    HW252463   1.373  10.794   5.384
16897SOL     OW52464   4.660   1.429   6.340
16897SOL    HW152465   4.652   1.391   6.427
16897SOL    HW252466   4.670   1.523   6.355
16898SOL     OW52467   0.777  11.218   6.589
16898SOL    HW152468   0.754  11.175   6.507
16898SOL    HW252469   0.837  11.156   6.632
16899SOL     OW52470   1.798   7.165  10.930
16899SOL    HW152471   1.845   7.153  10.848
16899SOL    HW252472   1.774   7.077  10.957
16900SOL     OW52473   7.119   5.782   5.470
16900SOL    HW152474   7.075   5.794   5.554
16900SOL    HW252475   7.068   5.835   5.409
16901SOL     OW52476   4.565   5.955   4.445
16901SOL    HW152477   4.660   5.944   4.447
16901SOL    HW252478   4.532   5.885   4.502
16902SOL     OW52479  13.481   7.754   8.741
16902SOL    HW152480  13.520   7.840   8.727
16902SOL    HW252481  13.531   7.696   8.683
16903SOL     OW52482  10.567   8.617   5.880
16903SOL    HW152483  10.567   8.704   5.840
16903SOL    HW252484  10.565   8.634   5.974
16904SOL     OW52485  12.273  11.905   9.742
16904SOL    HW152486  12.197  11.848   9.754
16904SOL    HW252487  12.254  11.952   9.660
16905SOL     OW52488   7.856   7.455   6.040
16905SOL    HW152489   7.891   7.532   5.995
16905SOL    HW252490   7.775   7.485   6.080
16906SOL     OW52491  14.734  12.752  10.625
16906SOL    HW152492  14.795  12.680  10.637
16906SOL    HW252493  14.752  12.812  10.697
16907SOL     OW52494   5.508   5.313   9.204
16907SOL    HW152495   5.546   5.400   9.219
16907SOL    HW252496   5.415   5.331   9.184
16908SOL     OW52497   2.505   3.488   4.336
16908SOL    HW152498   2.443   3.448   4.275
16908SOL    HW252499   2.561   3.543   4.280
16909SOL     OW52500   6.821   3.490  12.422
16909SOL    HW152501   6.907   3.448  12.413
16909SOL    HW252502   6.805   3.489  12.517
16910SOL     OW52503   6.280  12.938  10.333
16910SOL    HW152504   6.312  13.021  10.297
16910SOL    HW252505   6.357  12.899  10.374
16911SOL     OW52506  11.941   9.910  12.130
16911SOL    HW152507  11.902   9.828  12.100
16911SOL    HW252508  11.868   9.972  12.129
16912SOL     OW52509  14.053   9.055   8.183
16912SOL    HW152510  13.990   8.988   8.155
16912SOL    HW252511  14.134   9.032   8.136
16913SOL     OW52512   0.415  11.554   4.984
16913SOL    HW152513   0.392  11.629   4.928
16913SOL    HW252514   0.336  11.499   4.984
16914SOL     OW52515   2.594   6.222   0.774
16914SOL    HW152516   2.536   6.219   0.698
16914SOL    HW252517   2.563   6.298   0.825
16915SOL     OW52518  10.170  12.743   7.289
16915SOL    HW152519  10.212  12.766   7.206
16915SOL    HW252520  10.242  12.731   7.351
16916SOL     OW52521   3.267  14.751  11.669
16916SOL    HW152522   3.323  14.675  11.659
16916SOL    HW252523   3.299  14.794  11.748
16917SOL     OW52524  10.407   6.114  11.293
16917SOL    HW152525  10.352   6.083  11.221
16917SOL    HW252526  10.371   6.074  11.371
16918SOL     OW52527   1.145  14.075   4.300
16918SOL    HW152528   1.070  14.034   4.344
16918SOL    HW252529   1.152  14.161   4.339
16919SOL     OW52530  14.274  13.341   8.112
16919SOL    HW152531  14.241  13.424   8.078
16919SOL    HW252532  14.359  13.363   8.150
16920SOL     OW52533  12.252   3.696   6.810
16920SOL    HW152534  12.292   3.612   6.790
16920SOL    HW252535  12.183   3.677   6.872
16921SOL     OW52536   6.713   4.674   1.607
16921SOL    HW152537   6.753   4.755   1.637
16921SOL    HW252538   6.708   4.684   1.512
16922SOL     OW52539  10.753  12.046  14.144
16922SOL    HW152540  10.780  11.985  14.213
16922SOL    HW252541  10.750  12.132  14.187
16923SOL     OW52542   1.156   8.212   8.554
16923SOL    HW152543   1.065   8.188   8.574
16923SOL    HW252544   1.150   8.302   8.522
16924SOL     OW52545   9.043   2.483   1.976
16924SOL    HW152546   9.106   2.523   1.917
16924SOL    HW252547   9.024   2.398   1.937
16925SOL     OW52548   1.908   5.016   1.792
16925SOL    HW152549   1.979   5.037   1.731
16925SOL    HW252550   1.856   4.950   1.745
16926SOL     OW52551   4.300   1.912  11.322
16926SOL    HW152552   4.239   1.872  11.384
16926SOL    HW252553   4.247   1.975  11.273
16927SOL     OW52554  11.012   6.399  14.767
16927SOL    HW152555  11.042   6.375  14.679
16927SOL    HW252556  10.951   6.330  14.791
16928SOL     OW52557  13.104   8.256   3.634
16928SOL    HW152558  13.105   8.220   3.545
16928SOL    HW252559  13.113   8.350   3.622
16929SOL     OW52560   3.625   1.240   5.301
16929SOL    HW152561   3.558   1.245   5.233
16929SOL    HW252562   3.690   1.306   5.276
16930SOL     OW52563   0.113  13.766   1.160
16930SOL    HW152564   0.067  13.696   1.207
16930SOL    HW252565   0.197  13.773   1.206
16931SOL     OW52566   4.734  12.580  11.117
16931SOL    HW152567   4.677  12.568  11.192
16931SOL    HW252568   4.779  12.663  11.134
16932SOL     OW52569  10.461   3.970   2.300
16932SOL    HW152570  10.538   4.002   2.347
16932SOL    HW252571  10.456   3.878   2.324
16933SOL     OW52572  13.295  10.915   3.943
16933SOL    HW152573  13.341  10.943   3.865
16933SOL    HW252574  13.305  10.819   3.945
16934SOL     OW52575   1.041   6.256  10.282
16934SOL    HW152576   1.011   6.325  10.223
16934SOL    HW252577   0.984   6.182  10.263
16935SOL     OW52578  10.509  11.719  11.165
16935SOL    HW152579  10.510  11.806  11.205
16935SOL    HW252580  10.417  11.694  11.165
16936SOL     OW52581  12.924  13.587  14.324
16936SOL    HW152582  12.847  13.611  14.273
16936SOL    HW252583  12.902  13.502  14.363
16937SOL     OW52584   3.378   1.896   7.429
16937SOL    HW152585   3.462   1.924   7.465
16937SOL    HW252586   3.351   1.969   7.373
16938SOL     OW52587  10.355   3.454   0.641
16938SOL    HW152588  10.421   3.456   0.571
16938SOL    HW252589  10.406   3.459   0.722
16939SOL     OW52590  13.162   9.393  11.569
16939SOL    HW152591  13.100   9.425  11.634
16939SOL    HW252592  13.199   9.313  11.608
16940SOL     OW52593   5.136   6.241  10.728
16940SOL    HW152594   5.231   6.251  10.715
16940SOL    HW252595   5.099   6.325  10.700
16941SOL     OW52596  10.817   2.219  13.086
16941SOL    HW152597  10.882   2.283  13.113
16941SOL    HW252598  10.865   2.135  13.087
16942SOL     OW52599   6.579   7.189   1.865
16942SOL    HW152600   6.518   7.259   1.890
16942SOL    HW252601   6.657   7.235   1.835
16943SOL     OW52602  14.270  10.018  11.924
16943SOL    HW152603  14.204   9.979  11.867
16943SOL    HW252604  14.343   9.956  11.922
16944SOL     OW52605  10.212  12.545   2.265
16944SOL    HW152606  10.249  12.495   2.192
16944SOL    HW252607  10.176  12.624   2.223
16945SOL     OW52608  13.387  10.941   3.289
16945SOL    HW152609  13.379  11.022   3.238
16945SOL    HW252610  13.333  10.878   3.241
16946SOL     OW52611   8.256   8.967  12.548
16946SOL    HW152612   8.337   8.997  12.589
16946SOL    HW252613   8.284   8.930  12.464
16947SOL     OW52614  14.292   8.614   1.617
16947SOL    HW152615  14.237   8.562   1.558
16947SOL    HW252616  14.375   8.622   1.571
16948SOL     OW52617   1.290  12.068  14.546
16948SOL    HW152618   1.251  12.017  14.618
16948SOL    HW252619   1.384  12.059  14.558
16949SOL     OW52620  11.282  10.743  10.861
16949SOL    HW152621  11.211  10.723  10.800
16949SOL    HW252622  11.332  10.662  10.867
16950SOL     OW52623  12.461   4.037  12.834
16950SOL    HW152624  12.504   4.024  12.750
16950SOL    HW252625  12.455   3.950  12.872
16951SOL     OW52626   9.902  13.243  10.700
16951SOL    HW152627   9.975  13.227  10.640
16951SOL    HW252628   9.830  13.193  10.663
16952SOL     OW52629   5.818  14.484   5.349
16952SOL    HW152630   5.802  14.486   5.254
16952SOL    HW252631   5.741  14.528   5.386
16953SOL     OW52632   4.093   5.001   2.058
16953SOL    HW152633   4.173   4.969   2.016
16953SOL    HW252634   4.101   4.975   2.149
16954SOL     OW52635  13.732  11.614  12.419
16954SOL    HW152636  13.699  11.544  12.362
16954SOL    HW252637  13.820  11.585  12.444
16955SOL     OW52638  13.357   8.860   1.032
16955SOL    HW152639  13.388   8.772   1.053
16955SOL    HW252640  13.266   8.860   1.059
16956SOL     OW52641   7.098   9.794   2.579
16956SOL    HW152642   7.110   9.876   2.626
16956SOL    HW252643   7.015   9.760   2.612
16957SOL     OW52644   2.837   5.835  13.333
16957SOL    HW152645   2.901   5.878  13.391
16957SOL    HW252646   2.879   5.835  13.247
16958SOL     OW52647   2.935   8.400   0.899
16958SOL    HW152648   2.878   8.437   0.832
16958SOL    HW252649   2.876   8.350   0.956
16959SOL     OW52650  12.033   7.543   1.373
16959SOL    HW152651  12.007   7.634   1.386
16959SOL    HW252652  12.036   7.532   1.278
16960SOL     OW52653   7.436   3.527   0.062
16960SOL    HW152654   7.461   3.605   0.013
16960SOL    HW252655   7.432   3.458  14.874
16961SOL     OW52656   1.904  12.181   9.317
16961SOL    HW152657   1.974  12.237   9.349
16961SOL    HW252658   1.823  12.224   9.345
16962SOL     OW52659   8.679   7.852   9.147
16962SOL    HW152660   8.723   7.848   9.232
16962SOL    HW252661   8.601   7.797   9.157
16963SOL     OW52662   7.618  11.033   9.944
16963SOL    HW152663   7.643  11.063  10.031
16963SOL    HW252664   7.624  10.937   9.949
16964SOL     OW52665  13.538   4.354  13.958
16964SOL    HW152666  13.619   4.385  13.918
16964SOL    HW252667  13.471   4.415  13.927
16965SOL     OW52668   2.607   1.208   1.125
16965SOL    HW152669   2.541   1.235   1.189
16965SOL    HW252670   2.568   1.134   1.079
16966SOL     OW52671  14.095   0.737  13.802
16966SOL    HW152672  13.999   0.737  13.791
16966SOL    HW252673  14.110   0.778  13.887
16967SOL     OW52674   5.535   4.755   2.124
16967SOL    HW152675   5.449   4.732   2.090
16967SOL    HW252676   5.579   4.799   2.052
16968SOL     OW52677   3.318   5.733   5.697
16968SOL    HW152678   3.241   5.787   5.714
16968SOL    HW252679   3.336   5.689   5.781
16969SOL     OW52680   1.154  12.347  12.866
16969SOL    HW152681   1.175  12.372  12.776
16969SOL    HW252682   1.079  12.288  12.857
16970SOL     OW52683   5.213  12.511   8.081
16970SOL    HW152684   5.215  12.558   7.998
16970SOL    HW252685   5.130  12.536   8.121
16971SOL     OW52686  11.584   4.680   7.384
16971SOL    HW152687  11.625   4.609   7.433
16971SOL    HW252688  11.562   4.641   7.299
16972SOL     OW52689   2.739  13.809   3.652
16972SOL    HW152690   2.665  13.751   3.635
16972SOL    HW252691   2.796  13.759   3.712
16973SOL     OW52692  12.814  11.502   4.700
16973SOL    HW152693  12.774  11.589   4.711
16973SOL    HW252694  12.789  11.475   4.612
16974SOL     OW52695  11.914   0.162   0.234
16974SOL    HW152696  11.913   0.116   0.318
16974SOL    HW252697  11.950   0.098   0.172
16975SOL     OW52698  12.085   9.867  12.364
16975SOL    HW152699  12.016   9.833  12.420
16975SOL    HW252700  12.039   9.897  12.285
16976SOL     OW52701   5.707   7.662   8.096
16976SOL    HW152702   5.753   7.724   8.040
16976SOL    HW252703   5.695   7.708   8.178
16977SOL     OW52704   0.353  10.335   3.476
16977SOL    HW152705   0.402  10.351   3.556
16977SOL    HW252706   0.411  10.363   3.406
16978SOL     OW52707  11.932   8.852  13.893
16978SOL    HW152708  11.888   8.910  13.830
16978SOL    HW252709  11.897   8.765  13.874
16979SOL     OW52710   9.619   8.864   2.485
16979SOL    HW152711   9.529   8.836   2.501
16979SOL    HW252712   9.615   8.910   2.401
16980SOL     OW52713  11.145   9.354   9.314
16980SOL    HW152714  11.098   9.434   9.336
16980SOL    HW252715  11.194   9.376   9.235
16981SOL     OW52716   4.848   2.629  14.410
16981SOL    HW152717   4.784   2.558  14.411
16981SOL    HW252718   4.889   2.626  14.497
16982SOL     OW52719  12.676  10.548  11.731
16982SOL    HW152720  12.622  10.627  11.736
16982SOL    HW252721  12.696  10.526  11.822
16983SOL     OW52722   7.390   3.459  14.415
16983SOL    HW152723   7.452   3.400  14.372
16983SOL    HW252724   7.304   3.429  14.386
16984SOL     OW52725   4.202   3.594   1.722
16984SOL    HW152726   4.165   3.558   1.802
16984SOL    HW252727   4.290   3.556   1.717
16985SOL     OW52728   2.880  10.083   6.741
16985SOL    HW152729   2.849  10.001   6.705
16985SOL    HW252730   2.971  10.066   6.766
16986SOL     OW52731  10.784   4.308  10.269
16986SOL    HW152732  10.729   4.233  10.250
16986SOL    HW252733  10.723   4.377  10.295
16987SOL     OW52734  10.570  14.506  11.283
16987SOL    HW152735  10.619  14.582  11.252
16987SOL    HW252736  10.507  14.543  11.345
16988SOL     OW52737  14.321   1.054  11.550
16988SOL    HW152738  14.358   1.141  11.567
16988SOL    HW252739  14.396   1.001  11.522
16989SOL     OW52740   3.843   3.639  13.015
16989SOL    HW152741   3.768   3.600  13.060
16989SOL    HW252742   3.888   3.690  13.082
16990SOL     OW52743   3.371  14.555   2.841
16990SOL    HW152744   3.313  14.486   2.872
16990SOL    HW252745   3.363  14.625   2.906
16991SOL     OW52746   7.131   8.894   6.551
16991SOL    HW152747   7.162   8.804   6.564
16991SOL    HW252748   7.175   8.922   6.470
16992SOL     OW52749  13.202   3.980   8.836
16992SOL    HW152750  13.158   3.975   8.751
16992SOL    HW252751  13.143   4.031   8.891
16993SOL     OW52752  10.455  11.084   4.857
16993SOL    HW152753  10.457  11.180   4.852
16993SOL    HW252754  10.539  11.057   4.820
16994SOL     OW52755  11.550   6.612   0.021
16994SOL    HW152756  11.601   6.541   0.060
16994SOL    HW252757  11.581   6.691   0.065
16995SOL     OW52758   2.683  11.602   0.114
16995SOL    HW152759   2.641  11.676   0.069
16995SOL    HW252760   2.647  11.604   0.202
16996SOL     OW52761   3.368   7.379   7.341
16996SOL    HW152762   3.343   7.331   7.262
16996SOL    HW252763   3.447   7.334   7.372
16997SOL     OW52764   3.123   0.979   7.450
16997SOL    HW152765   3.079   1.002   7.368
16997SOL    HW252766   3.149   0.887   7.439
16998SOL     OW52767   1.257  11.003   8.509
16998SOL    HW152768   1.290  11.070   8.450
16998SOL    HW252769   1.301  11.020   8.592
16999SOL     OW52770   6.205   8.837  14.870
16999SOL    HW152771   6.159   8.820  14.788
16999SOL    HW252772   6.274   8.770  14.873
17000SOL     OW52773  11.164  13.851  13.960
17000SOL    HW152774  11.110  13.921  13.995
17000SOL    HW252775  11.197  13.886  13.877
17001SOL     OW52776  14.278  14.512   0.825
17001SOL    HW152777  14.328  14.470   0.754
17001SOL    HW252778  14.318  14.479   0.905
17002SOL     OW52779  13.534  13.857   3.246
17002SOL    HW152780  13.580  13.812   3.316
17002SOL    HW252781  13.584  13.937   3.231
17003SOL     OW52782  13.993   0.772   2.099
17003SOL    HW152783  14.070   0.758   2.044
17003SOL    HW252784  13.924   0.721   2.058
17004SOL     OW52785   0.897   4.032  11.706
17004SOL    HW152786   0.802   4.029  11.698
17004SOL    HW252787   0.914   4.025  11.800
17005SOL     OW52788  11.874   7.643   0.314
17005SOL    HW152789  11.950   7.690   0.280
17005SOL    HW252790  11.813   7.712   0.340
17006SOL     OW52791  13.535  13.370  14.673
17006SOL    HW152792  13.629  13.364  14.656
17006SOL    HW252793  13.524  13.451  14.722
17007SOL     OW52794   2.668  11.108  12.320
17007SOL    HW152795   2.645  11.087  12.411
17007SOL    HW252796   2.718  11.189  12.326
17008SOL     OW52797  11.912   6.174   8.035
17008SOL    HW152798  11.833   6.152   8.084
17008SOL    HW252799  11.890   6.254   7.988
17009SOL     OW52800  10.584  11.077  11.899
17009SOL    HW152801  10.617  10.988  11.901
17009SOL    HW252802  10.496  11.071  11.937
17010SOL     OW52803   8.521  13.155  12.402
17010SOL    HW152804   8.551  13.245  12.390
17010SOL    HW252805   8.547  13.111  12.320
17011SOL     OW52806  14.801  12.700  10.319
17011SOL    HW152807  14.716  12.730  10.289
17011SOL    HW252808  14.804  12.723  10.412
17012SOL     OW52809  10.432   3.451   8.857
17012SOL    HW152810  10.512   3.433   8.906
17012SOL    HW252811  10.386   3.518   8.908
17013SOL     OW52812   2.883   8.096   1.935
17013SOL    HW152813   2.939   8.164   1.970
17013SOL    HW252814   2.795   8.133   1.940
17014SOL     OW52815  14.365  12.517   0.831
17014SOL    HW152816  14.285  12.538   0.782
17014SOL    HW252817  14.436  12.550   0.776
17015SOL     OW52818  13.424   3.727   7.174
17015SOL    HW152819  13.458   3.707   7.087
17015SOL    HW252820  13.502   3.739   7.228
17016SOL     OW52821   9.534   6.310  11.413
17016SOL    HW152822   9.507   6.274  11.497
17016SOL    HW252823   9.453   6.326  11.366
17017SOL     OW52824   2.087   9.045  10.494
17017SOL    HW152825   2.047   9.007  10.416
17017SOL    HW252826   2.019   9.101  10.531
17018SOL     OW52827  10.522   3.579   6.290
17018SOL    HW152828  10.530   3.599   6.196
17018SOL    HW252829  10.428   3.584   6.307
17019SOL     OW52830   3.855   5.149   3.274
17019SOL    HW152831   3.865   5.054   3.274
17019SOL    HW252832   3.902   5.179   3.196
17020SOL     OW52833  10.900  11.615   2.198
17020SOL    HW152834  10.938  11.699   2.172
17020SOL    HW252835  10.973  11.553   2.191
17021SOL     OW52836   5.633  12.651   1.119
17021SOL    HW152837   5.604  12.563   1.143
17021SOL    HW252838   5.667  12.642   1.030
17022SOL     OW52839   2.007   4.194  13.534
17022SOL    HW152840   2.086   4.154  13.570
17022SOL    HW252841   1.947   4.199  13.609
17023SOL     OW52842   3.447   2.328   3.931
17023SOL    HW152843   3.510   2.391   3.966
17023SOL    HW252844   3.480   2.243   3.960
17024SOL     OW52845  11.191  11.022   6.517
17024SOL    HW152846  11.287  11.021   6.527
17024SOL    HW252847  11.170  11.110   6.487
17025SOL     OW52848   4.590   9.172   6.935
17025SOL    HW152849   4.655   9.206   6.997
17025SOL    HW252850   4.551   9.249   6.896
17026SOL     OW52851  14.736  11.330   6.933
17026SOL    HW152852  14.747  11.297   6.844
17026SOL    HW252853  14.781  11.267   6.988
17027SOL     OW52854  12.104   1.091  11.396
17027SOL    HW152855  12.138   1.023  11.337
17027SOL    HW252856  12.181   1.123  11.443
17028SOL     OW52857   4.363   7.287  13.865
17028SOL    HW152858   4.274   7.257  13.845
17028SOL    HW252859   4.402   7.303  13.779
17029SOL     OW52860   8.162  11.490   4.101
17029SOL    HW152861   8.108  11.512   4.026
17029SOL    HW252862   8.202  11.573   4.128
17030SOL     OW52863   9.144  14.674   5.022
17030SOL    HW152864   9.101  14.759   5.015
17030SOL    HW252865   9.227  14.686   4.975
17031SOL     OW52866  14.474  11.655   9.800
17031SOL    HW152867  14.554  11.635   9.750
17031SOL    HW252868  14.431  11.723   9.748
17032SOL     OW52869  14.539  12.277   2.118
17032SOL    HW152870  14.455  12.244   2.150
17032SOL    HW252871  14.550  12.234   2.033
17033SOL     OW52872  12.565   5.805  11.682
17033SOL    HW152873  12.497   5.801  11.749
17033SOL    HW252874  12.600   5.715  11.678
17034SOL     OW52875   2.482  12.442   1.562
17034SOL    HW152876   2.523  12.440   1.649
17034SOL    HW252877   2.553  12.417   1.502
17035SOL     OW52878   5.049   9.199   0.947
17035SOL    HW152879   4.964   9.168   0.977
17035SOL    HW252880   5.041   9.295   0.947
17036SOL     OW52881   6.755   2.427   5.192
17036SOL    HW152882   6.661   2.415   5.199
17036SOL    HW252883   6.792   2.343   5.221
17037SOL     OW52884   5.475  12.256   7.323
17037SOL    HW152885   5.515  12.335   7.287
17037SOL    HW252886   5.496  12.188   7.259
17038SOL     OW52887   6.280   7.322   1.659
17038SOL    HW152888   6.342   7.364   1.718
17038SOL    HW252889   6.218   7.277   1.717
17039SOL     OW52890  14.778   9.808  11.257
17039SOL    HW152891  14.711   9.809  11.189
17039SOL    HW252892  14.860   9.793  11.211
17040SOL     OW52893   6.108   5.402   2.893
17040SOL    HW152894   6.054   5.328   2.921
17040SOL    HW252895   6.197   5.375   2.912
17041SOL     OW52896   4.085   0.937   6.863
17041SOL    HW152897   4.168   0.890   6.859
17041SOL    HW252898   4.021   0.874   6.828
17042SOL     OW52899   0.925   2.434  12.127
17042SOL    HW152900   0.981   2.421  12.051
17042SOL    HW252901   0.852   2.486  12.094
17043SOL     OW52902  10.711  14.556   6.002
17043SOL    HW152903  10.658  14.495   5.951
17043SOL    HW252904  10.661  14.637   6.003
17044SOL     OW52905  11.467   0.153  13.465
17044SOL    HW152906  11.491   0.221  13.528
17044SOL    HW252907  11.549   0.133  13.420
17045SOL     OW52908   9.555   4.338   3.647
17045SOL    HW152909   9.497   4.323   3.572
17045SOL    HW252910   9.603   4.418   3.624
17046SOL     OW52911  10.784   2.829   3.001
17046SOL    HW152912  10.743   2.756   3.047
17046SOL    HW252913  10.719   2.856   2.936
17047SOL     OW52914   6.178   7.658   2.724
17047SOL    HW152915   6.124   7.596   2.774
17047SOL    HW252916   6.266   7.649   2.762
17048SOL     OW52917  13.694   0.670   3.584
17048SOL    HW152918  13.598   0.671   3.583
17048SOL    HW252919  13.717   0.601   3.521
17049SOL     OW52920  10.521   4.968  11.881
17049SOL    HW152921  10.608   4.969  11.922
17049SOL    HW252922  10.526   4.897  11.816
17050SOL     OW52923   7.512  10.306   6.973
17050SOL    HW152924   7.488  10.395   6.944
17050SOL    HW252925   7.597  10.290   6.932
17051SOL     OW52926   7.692   7.341   3.254
17051SOL    HW152927   7.708   7.340   3.348
17051SOL    HW252928   7.728   7.259   3.222
17052SOL     OW52929  12.214  12.193   0.087
17052SOL    HW152930  12.142  12.194   0.024
17052SOL    HW252931  12.293  12.198   0.033
17053SOL     OW52932   9.468  14.812  11.596
17053SOL    HW152933   9.447  14.820  11.503
17053SOL    HW252934   9.412  14.876  11.639
17054SOL     OW52935  13.947   8.591   7.340
17054SOL    HW152936  13.912   8.522   7.283
17054SOL    HW252937  14.041   8.575   7.342
17055SOL     OW52938   0.167   5.446   9.604
17055SOL    HW152939   0.157   5.388   9.679
17055SOL    HW252940   0.078   5.463   9.573
17056SOL     OW52941  10.121   5.237   2.457
17056SOL    HW152942  10.121   5.208   2.548
17056SOL    HW252943  10.190   5.304   2.452
17057SOL     OW52944  14.490  14.582   2.514
17057SOL    HW152945  14.524  14.520   2.449
17057SOL    HW252946  14.429  14.530   2.566
17058SOL     OW52947   7.201   1.177   2.775
17058SOL    HW152948   7.194   1.257   2.722
17058SOL    HW252949   7.128   1.123   2.746
17059SOL     OW52950  10.485  12.177  11.161
17059SOL    HW152951  10.390  12.186  11.154
17059SOL    HW252952  10.500  12.161  11.255
17060SOL     OW52953   3.392  11.617   1.619
17060SOL    HW152954   3.389  11.671   1.699
17060SOL    HW252955   3.303  11.582   1.611
17061SOL     OW52956   1.062  13.266  11.164
17061SOL    HW152957   1.012  13.201  11.214
17061SOL    HW252958   1.087  13.332  11.229
17062SOL     OW52959   5.276   2.939   2.100
17062SOL    HW152960   5.242   2.854   2.074
17062SOL    HW252961   5.206   3.001   2.080
17063SOL     OW52962   5.735   3.580   5.765
17063SOL    HW152963   5.665   3.592   5.701
17063SOL    HW252964   5.783   3.503   5.735
17064SOL     OW52965   6.774  11.341   4.678
17064SOL    HW152966   6.835  11.364   4.748
17064SOL    HW252967   6.756  11.248   4.692
17065SOL     OW52968   3.080  13.174   4.438
17065SOL    HW152969   3.032  13.248   4.475
17065SOL    HW252970   3.122  13.208   4.359
17066SOL     OW52971   2.281  12.643   1.903
17066SOL    HW152972   2.198  12.691   1.896
17066SOL    HW252973   2.254  12.553   1.923
17067SOL     OW52974   5.596   9.330  14.430
17067SOL    HW152975   5.538   9.328  14.506
17067SOL    HW252976   5.669   9.386  14.456
17068SOL     OW52977  10.563  13.940   7.943
17068SOL    HW152978  10.648  13.901   7.964
17068SOL    HW252979  10.583  14.012   7.883
17069SOL     OW52980   4.944  12.208   6.051
17069SOL    HW152981   4.917  12.172   5.967
17069SOL    HW252982   5.031  12.172   6.066
17070SOL     OW52983  14.692  13.238   7.320
17070SOL    HW152984  14.780  13.274   7.332
17070SOL    HW252985  14.635  13.297   7.369
17071SOL     OW52986  12.798  13.465   1.199
17071SOL    HW152987  12.774  13.468   1.107
17071SOL    HW252988  12.715  13.470   1.246
17072SOL     OW52989   3.908   1.648   9.042
17072SOL    HW152990   4.003   1.657   9.033
17072SOL    HW252991   3.874   1.670   8.955
17073SOL     OW52992  13.440  11.650   8.999
17073SOL    HW152993  13.514  11.603   8.962
17073SOL    HW252994  13.367  11.632   8.939
17074SOL     OW52995   1.652  11.669   0.249
17074SOL    HW152996   1.616  11.607   0.313
17074SOL    HW252997   1.598  11.655   0.171
17075SOL     OW52998   4.838  10.494   2.865
17075SOL    HW152999   4.847  10.420   2.925
17075SOL    HW253000   4.813  10.568   2.921
17076SOL     OW53001   2.606   5.701   1.234
17076SOL    HW153002   2.537   5.766   1.236
17076SOL    HW253003   2.661   5.721   1.310
17077SOL     OW53004  14.027   1.820  13.496
17077SOL    HW153005  14.002   1.904  13.457
17077SOL    HW253006  14.076   1.844  13.575
17078SOL     OW53007  11.656   3.427  13.493
17078SOL    HW153008  11.639   3.485  13.419
17078SOL    HW253009  11.587   3.361  13.487
17079SOL     OW53010   7.567   0.298   2.887
17079SOL    HW153011   7.562   0.244   2.809
17079SOL    HW253012   7.562   0.388   2.855
17080SOL     OW53013  10.467   6.525  10.158
17080SOL    HW153014  10.437   6.531  10.068
17080SOL    HW253015  10.445   6.436  10.186
17081SOL     OW53016   6.850  10.317   3.464
17081SOL    HW153017   6.892  10.265   3.533
17081SOL    HW253018   6.899  10.296   3.385
17082SOL     OW53019  10.591  10.624   1.830
17082SOL    HW153020  10.522  10.679   1.794
17082SOL    HW253021  10.568  10.613   1.922
17083SOL     OW53022  13.267  13.602   2.915
17083SOL    HW153023  13.322  13.596   2.837
17083SOL    HW253024  13.232  13.691   2.914
17084SOL     OW53025   3.835   0.325   2.894
17084SOL    HW153026   3.782   0.405   2.896
17084SOL    HW253027   3.773   0.256   2.871
17085SOL     OW53028   8.463   0.804   9.724
17085SOL    HW153029   8.392   0.742   9.706
17085SOL    HW253030   8.420   0.877   9.769
17086SOL     OW53031  10.904  14.019   6.778
17086SOL    HW153032  10.843  13.971   6.722
17086SOL    HW253033  10.907  13.968   6.859
17087SOL     OW53034  13.260  13.936  14.497
17087SOL    HW153035  13.351  13.965  14.505
17087SOL    HW253036  13.223  13.990  14.428
17088SOL     OW53037   9.618  11.006   5.746
17088SOL    HW153038   9.579  11.040   5.665
17088SOL    HW253039   9.545  10.998   5.807
17089SOL     OW53040   3.650   8.474  12.428
17089SOL    HW153041   3.734   8.430  12.417
17089SOL    HW253042   3.652   8.508  12.517
17090SOL     OW53043   6.499   0.054  13.921
17090SOL    HW153044   6.476  14.851  13.875
17090SOL    HW253045   6.594   0.059  13.914
17091SOL     OW53046   4.862   0.287   2.435
17091SOL    HW153047   4.849   0.342   2.512
17091SOL    HW253048   4.789   0.225   2.438
17092SOL     OW53049   6.118   5.997  14.376
17092SOL    HW153050   6.191   5.944  14.409
17092SOL    HW253051   6.079   6.036  14.454
17093SOL     OW53052   4.979   1.689   2.669
17093SOL    HW153053   5.048   1.636   2.629
17093SOL    HW253054   4.976   1.769   2.618
17094SOL     OW53055  12.247  14.873   4.364
17094SOL    HW153056  12.181   0.059   4.338
17094SOL    HW253057  12.330   0.034   4.335
17095SOL     OW53058  11.525  10.811   8.535
17095SOL    HW153059  11.603  10.763   8.564
17095SOL    HW253060  11.489  10.849   8.616
17096SOL     OW53061   0.638   0.960  13.371
17096SOL    HW153062   0.725   0.936  13.402
17096SOL    HW253063   0.652   1.000  13.285
17097SOL     OW53064  14.008  11.524  12.382
17097SOL    HW153065  14.007  11.429  12.397
17097SOL    HW253066  14.100  11.545  12.366
17098SOL     OW53067   9.109   9.184  10.700
17098SOL    HW153068   9.142   9.097  10.722
17098SOL    HW253069   9.187   9.239  10.694
17099SOL     OW53070   0.997   8.674   7.232
17099SOL    HW153071   1.053   8.745   7.203
17099SOL    HW253072   0.915   8.687   7.184
17100SOL     OW53073   3.294   5.621   3.939
17100SOL    HW153074   3.257   5.706   3.914
17100SOL    HW253075   3.368   5.609   3.880
17101SOL     OW53076  13.438   7.539   7.979
17101SOL    HW153077  13.463   7.572   7.893
17101SOL    HW253078  13.380   7.466   7.961
17102SOL     OW53079   8.104   5.162   5.182
17102SOL    HW153080   8.109   5.120   5.096
17102SOL    HW253081   8.029   5.121   5.225
17103SOL     OW53082  13.097  12.035  11.484
17103SOL    HW153083  13.052  12.075  11.558
17103SOL    HW253084  13.067  11.944  11.483
17104SOL     OW53085   8.349   6.483   8.637
17104SOL    HW153086   8.360   6.427   8.713
17104SOL    HW253087   8.255   6.504   8.636
17105SOL     OW53088   0.419   9.922   1.821
17105SOL    HW153089   0.439   9.855   1.886
17105SOL    HW253090   0.330   9.902   1.793
17106SOL     OW53091   8.768   3.876   4.767
17106SOL    HW153092   8.708   3.949   4.782
17106SOL    HW253093   8.781   3.874   4.672
17107SOL     OW53094   0.896   1.632   1.068
17107SOL    HW153095   0.910   1.679   0.985
17107SOL    HW253096   0.823   1.678   1.109
17108SOL     OW53097   4.238  10.876   9.069
17108SOL    HW153098   4.194  10.792   9.083
17108SOL    HW253099   4.322  10.867   9.113
17109SOL     OW53100  13.933   6.351  12.315
17109SOL    HW153101  13.853   6.389  12.351
17109SOL    HW253102  13.946   6.270  12.366
17110SOL     OW53103   8.305   4.449   4.517
17110SOL    HW153104   8.285   4.540   4.496
17110SOL    HW253105   8.294   4.443   4.612
17111SOL     OW53106   0.508   4.550   7.190
17111SOL    HW153107   0.579   4.500   7.230
17111SOL    HW253108   0.454   4.485   7.146
17112SOL     OW53109   7.289   6.866  10.080
17112SOL    HW153110   7.251   6.864  10.168
17112SOL    HW253111   7.256   6.948  10.043
17113SOL     OW53112  10.659   6.102  13.127
17113SOL    HW153113  10.676   6.012  13.154
17113SOL    HW253114  10.589   6.095  13.062
17114SOL     OW53115   2.305   8.214   3.371
17114SOL    HW153116   2.319   8.208   3.466
17114SOL    HW253117   2.305   8.307   3.353
17115SOL     OW53118  14.654  12.609  13.940
17115SOL    HW153119  14.613  12.683  13.984
17115SOL    HW253120  14.746  12.635  13.933
17116SOL     OW53121   3.315   5.675  10.460
17116SOL    HW153122   3.291   5.765  10.482
17116SOL    HW253123   3.326   5.675  10.365
17117SOL     OW53124  10.850   2.031   4.049
17117SOL    HW153125  10.890   2.109   4.011
17117SOL    HW253126  10.768   2.061   4.087
17118SOL     OW53127   3.052   9.174   3.780
17118SOL    HW153128   2.981   9.212   3.729
17118SOL    HW253129   3.124   9.165   3.717
17119SOL     OW53130   7.860   1.269   5.545
17119SOL    HW153131   7.808   1.348   5.536
17119SOL    HW253132   7.800   1.204   5.583
17120SOL     OW53133   3.895   8.064   4.471
17120SOL    HW153134   3.869   7.993   4.531
17120SOL    HW253135   3.820   8.123   4.470
17121SOL     OW53136   3.268   6.504   2.970
17121SOL    HW153137   3.280   6.597   2.988
17121SOL    HW253138   3.353   6.465   2.988
17122SOL     OW53139   2.469   9.723   4.848
17122SOL    HW153140   2.458   9.632   4.876
17122SOL    HW253141   2.555   9.748   4.879
17123SOL     OW53142   5.677   8.725  11.430
17123SOL    HW153143   5.620   8.682  11.366
17123SOL    HW253144   5.685   8.815  11.399
17124SOL     OW53145   0.845   5.895   5.407
17124SOL    HW153146   0.753   5.883   5.384
17124SOL    HW253147   0.856   5.989   5.415
17125SOL     OW53148   2.920  10.857   2.433
17125SOL    HW153149   2.943  10.787   2.494
17125SOL    HW253150   2.851  10.906   2.477
17126SOL     OW53151   8.567   6.186   9.121
17126SOL    HW153152   8.559   6.264   9.176
17126SOL    HW253153   8.568   6.113   9.183
17127SOL     OW53154   6.072   2.319   9.079
17127SOL    HW153155   6.062   2.224   9.074
17127SOL    HW253156   6.092   2.337   9.171
17128SOL     OW53157   5.740   1.941   1.898
17128SOL    HW153158   5.809   1.879   1.875
17128SOL    HW253159   5.684   1.944   1.821
17129SOL     OW53160  11.084   4.694   7.127
17129SOL    HW153161  11.002   4.667   7.168
17129SOL    HW253162  11.058   4.758   7.061
17130SOL     OW53163   6.858   5.329  10.139
17130SOL    HW153164   6.952   5.317  10.125
17130SOL    HW253165   6.831   5.254  10.191
17131SOL     OW53166   2.345  10.657   3.266
17131SOL    HW153167   2.272  10.639   3.208
17131SOL    HW253168   2.308  10.712   3.335
17132SOL     OW53169   4.380   0.122   3.383
17132SOL    HW153170   4.376   0.104   3.477
17132SOL    HW253171   4.294   0.156   3.360
17133SOL     OW53172   3.308   1.884   1.616
17133SOL    HW153173   3.282   1.904   1.525
17133SOL    HW253174   3.381   1.823   1.607
17134SOL     OW53175  10.120   7.674   1.024
17134SOL    HW153176  10.066   7.732   1.078
17134SOL    HW253177  10.117   7.714   0.937
17135SOL     OW53178   1.908   1.023   4.847
17135SOL    HW153179   1.905   0.942   4.796
17135SOL    HW253180   1.929   1.091   4.783
17136SOL     OW53181  13.692   2.840   2.260
17136SOL    HW153182  13.747   2.775   2.304
17136SOL    HW253183  13.619   2.855   2.321
17137SOL     OW53184   2.749   1.584  11.227
17137SOL    HW153185   2.816   1.572  11.294
17137SOL    HW253186   2.699   1.660  11.256
17138SOL     OW53187   2.693   2.686   9.838
17138SOL    HW153188   2.654   2.742   9.772
17138SOL    HW253189   2.776   2.658   9.800
17139SOL     OW53190   0.077  11.603   1.838
17139SOL    HW153191   0.164  11.564   1.841
17139SOL    HW253192   0.069  11.650   1.921
17140SOL     OW53193  11.193  11.516   7.529
17140SOL    HW153194  11.151  11.430   7.538
17140SOL    HW253195  11.247  11.508   7.450
17141SOL     OW53196   8.921  11.518   1.573
17141SOL    HW153197   8.926  11.485   1.663
17141SOL    HW253198   8.934  11.612   1.581
17142SOL     OW53199  13.909  11.839   8.317
17142SOL    HW153200  13.996  11.876   8.305
17142SOL    HW253201  13.914  11.751   8.280
17143SOL     OW53202   4.310   5.727   8.283
17143SOL    HW153203   4.293   5.668   8.209
17143SOL    HW253204   4.224   5.759   8.308
17144SOL     OW53205   8.369   2.294  10.476
17144SOL    HW153206   8.446   2.279  10.421
17144SOL    HW253207   8.372   2.387  10.497
17145SOL     OW53208   7.177   0.497  14.234
17145SOL    HW153209   7.109   0.549  14.191
17145SOL    HW253210   7.246   0.560  14.253
17146SOL     OW53211   4.672  13.658   6.208
17146SOL    HW153212   4.667  13.598   6.282
17146SOL    HW253213   4.619  13.617   6.140
17147SOL     OW53214  12.117   5.585   7.789
17147SOL    HW153215  12.076   5.609   7.706
17147SOL    HW253216  12.044   5.574   7.850
17148SOL     OW53217   2.580   8.952   3.074
17148SOL    HW153218   2.609   9.028   3.124
17148SOL    HW253219   2.655   8.892   3.077
17149SOL     OW53220  14.410   0.421   2.852
17149SOL    HW153221  14.345   0.351   2.856
17149SOL    HW253222  14.372   0.492   2.904
17150SOL     OW53223   5.771   1.319   2.369
17150SOL    HW153224   5.730   1.233   2.358
17150SOL    HW253225   5.756   1.340   2.462
17151SOL     OW53226  10.719   8.656   7.457
17151SOL    HW153227  10.803   8.612   7.445
17151SOL    HW253228  10.660   8.587   7.489
17152SOL     OW53229   5.475   4.362   5.371
17152SOL    HW153230   5.547   4.360   5.308
17152SOL    HW253231   5.418   4.432   5.339
17153SOL     OW53232  10.191  11.702   6.979
17153SOL    HW153233  10.132  11.629   6.998
17153SOL    HW253234  10.135  11.779   6.982
17154SOL     OW53235   1.958   5.450   7.461
17154SOL    HW153236   1.926   5.528   7.507
17154SOL    HW253237   1.899   5.380   7.487
17155SOL     OW53238   8.482  14.678  12.778
17155SOL    HW153239   8.424  14.638  12.713
17155SOL    HW253240   8.563  14.628  12.771
17156SOL     OW53241   6.784   2.585   0.452
17156SOL    HW153242   6.701   2.612   0.491
17156SOL    HW253243   6.789   2.491   0.472
17157SOL     OW53244   5.133  13.615   0.565
17157SOL    HW153245   5.053  13.565   0.557
17157SOL    HW253246   5.198  13.552   0.595
17158SOL     OW53247   4.036  14.520   6.272
17158SOL    HW153248   4.099  14.574   6.223
17158SOL    HW253249   4.014  14.574   6.349
17159SOL     OW53250   3.002   2.659   7.548
17159SOL    HW153251   3.020   2.636   7.457
17159SOL    HW253252   2.907   2.651   7.556
17160SOL     OW53253   6.020   5.724   6.696
17160SOL    HW153254   5.997   5.740   6.788
17160SOL    HW253255   6.115   5.736   6.693
17161SOL     OW53256   5.958   6.517   5.643
17161SOL    HW153257   5.977   6.610   5.644
17161SOL    HW253258   5.971   6.490   5.552
17162SOL     OW53259   8.655  13.265   1.101
17162SOL    HW153260   8.573  13.312   1.084
17162SOL    HW253261   8.669  13.275   1.195
17163SOL     OW53262   8.011   4.737  13.247
17163SOL    HW153263   8.023   4.766  13.338
17163SOL    HW253264   8.076   4.668  13.236
17164SOL     OW53265   3.126  13.556   4.883
17164SOL    HW153266   3.190  13.575   4.952
17164SOL    HW253267   3.047  13.603   4.910
17165SOL     OW53268  12.476   5.910   3.441
17165SOL    HW153269  12.569   5.924   3.458
17165SOL    HW253270  12.442   5.873   3.523
17166SOL     OW53271  12.008   8.453  10.145
17166SOL    HW153272  12.015   8.362  10.118
17166SOL    HW253273  11.953   8.451  10.223
17167SOL     OW53274   2.903  10.853   0.285
17167SOL    HW153275   2.862  10.925   0.236
17167SOL    HW253276   2.932  10.792   0.218
17168SOL     OW53277   7.280   0.556   9.172
17168SOL    HW153278   7.345   0.502   9.126
17168SOL    HW253279   7.304   0.646   9.149
17169SOL     OW53280   7.263   4.399   4.291
17169SOL    HW153281   7.193   4.398   4.226
17169SOL    HW253282   7.219   4.387   4.375
17170SOL     OW53283   6.508   7.525  10.349
17170SOL    HW153284   6.494   7.618  10.369
17170SOL    HW253285   6.460   7.478  10.417
17171SOL     OW53286  14.697   6.253   9.113
17171SOL    HW153287  14.637   6.327   9.102
17171SOL    HW253288  14.690   6.230   9.206
17172SOL     OW53289  11.025  10.900   8.518
17172SOL    HW153290  10.981  10.816   8.502
17172SOL    HW253291  11.030  10.908   8.613
17173SOL     OW53292   0.863   9.535   2.339
17173SOL    HW153293   0.916   9.500   2.267
17173SOL    HW253294   0.785   9.480   2.339
17174SOL     OW53295   7.680  12.261  10.261
17174SOL    HW153296   7.700  12.179  10.305
17174SOL    HW253297   7.723  12.328  10.314
17175SOL     OW53298   0.724  13.515  14.102
17175SOL    HW153299   0.721  13.590  14.043
17175SOL    HW253300   0.704  13.440  14.046
17176SOL     OW53301  13.987   0.054  12.199
17176SOL    HW153302  13.908   0.001  12.211
17176SOL    HW253303  13.964   0.140  12.234
17177SOL     OW53304   0.764   0.282   0.553
17177SOL    HW153305   0.691   0.252   0.498
17177SOL    HW253306   0.754   0.233   0.634
17178SOL     OW53307   3.001   5.636   2.365
17178SOL    HW153308   2.906   5.637   2.351
17178SOL    HW253309   3.018   5.555   2.413
17179SOL     OW53310  11.185   5.786  10.618
17179SOL    HW153311  11.151   5.776  10.529
17179SOL    HW253312  11.122   5.741  10.674
17180SOL     OW53313   2.373  13.676   6.256
17180SOL    HW153314   2.352  13.584   6.238
17180SOL    HW253315   2.289  13.721   6.254
17181SOL     OW53316   6.689  14.328   9.677
17181SOL    HW153317   6.778  14.328   9.712
17181SOL    HW253318   6.641  14.389   9.733
17182SOL     OW53319   6.432   2.808   2.364
17182SOL    HW153320   6.363   2.870   2.386
17182SOL    HW253321   6.408   2.777   2.276
17183SOL     OW53322   6.550   2.963   1.098
17183SOL    HW153323   6.625   2.952   1.039
17183SOL    HW253324   6.583   3.020   1.168
17184SOL     OW53325   4.903   3.743  14.516
17184SOL    HW153326   4.882   3.660  14.473
17184SOL    HW253327   4.935   3.717  14.603
17185SOL     OW53328   3.628   0.267   1.909
17185SOL    HW153329   3.696   0.202   1.893
17185SOL    HW253330   3.548   0.227   1.875
17186SOL     OW53331   7.923   1.670   7.263
17186SOL    HW153332   7.881   1.749   7.296
17186SOL    HW253333   7.862   1.635   7.198
17187SOL     OW53334   5.093   8.032  12.441
17187SOL    HW153335   5.093   7.955  12.384
17187SOL    HW253336   5.013   8.024  12.493
17188SOL     OW53337   7.788   1.778  13.397
17188SOL    HW153338   7.757   1.790  13.308
17188SOL    HW253339   7.779   1.865  13.437
17189SOL     OW53340   7.272   5.713   7.414
17189SOL    HW153341   7.277   5.618   7.431
17189SOL    HW253342   7.258   5.720   7.320
17190SOL     OW53343   2.185   4.792   0.589
17190SOL    HW153344   2.118   4.852   0.556
17190SOL    HW253345   2.232   4.764   0.511
17191SOL     OW53346   1.265  14.041   1.205
17191SOL    HW153347   1.234  13.951   1.215
17191SOL    HW253348   1.325  14.037   1.131
17192SOL     OW53349   2.009   6.048   6.421
17192SOL    HW153350   1.925   6.010   6.396
17192SOL    HW253351   2.066   6.033   6.346
17193SOL     OW53352  14.829   8.326   1.817
17193SOL    HW153353   0.029   8.366   1.778
17193SOL    HW253354  14.757   8.360   1.764
17194SOL     OW53355   1.501   2.497   4.573
17194SOL    HW153356   1.494   2.590   4.556
17194SOL    HW253357   1.546   2.461   4.496
17195SOL     OW53358  12.652   2.965   7.984
17195SOL    HW153359  12.630   3.058   7.978
17195SOL    HW253360  12.748   2.964   7.987
17196SOL     OW53361   8.826   5.568  14.864
17196SOL    HW153362   8.823   5.509  14.789
17196SOL    HW253363   8.858   5.651  14.829
17197SOL     OW53364   9.456  13.864   4.811
17197SOL    HW153365   9.424  13.815   4.735
17197SOL    HW253366   9.498  13.798   4.867
17198SOL     OW53367   1.784   0.634  11.469
17198SOL    HW153368   1.809   0.723  11.444
17198SOL    HW253369   1.810   0.627  11.561
17199SOL     OW53370   5.208  13.045   2.579
17199SOL    HW153371   5.265  13.068   2.653
17199SOL    HW253372   5.126  13.016   2.620
17200SOL     OW53373   6.460   6.649  11.040
17200SOL    HW153374   6.553   6.630  11.055
17200SOL    HW253375   6.450   6.741  11.063
17201SOL     OW53376   7.643   3.466   1.089
17201SOL    HW153377   7.645   3.549   1.041
17201SOL    HW253378   7.593   3.407   1.031
17202SOL     OW53379  10.086   0.933   2.396
17202SOL    HW153380  10.092   0.905   2.488
17202SOL    HW253381  10.118   0.858   2.346
17203SOL     OW53382   5.541   7.938   7.894
17203SOL    HW153383   5.511   7.995   7.965
17203SOL    HW253384   5.480   7.864   7.895
17204SOL     OW53385   9.000  10.712   3.946
17204SOL    HW153386   9.009  10.619   3.925
17204SOL    HW253387   8.953  10.714   4.029
17205SOL     OW53388   4.251   7.075  11.709
17205SOL    HW153389   4.176   7.043  11.760
17205SOL    HW253390   4.293   6.996  11.675
17206SOL     OW53391  10.428   9.167   6.769
17206SOL    HW153392  10.516   9.142   6.741
17206SOL    HW253393  10.376   9.087   6.760
17207SOL     OW53394   1.228   8.352   1.328
17207SOL    HW153395   1.302   8.311   1.371
17207SOL    HW253396   1.152   8.302   1.358
17208SOL     OW53397   1.429   4.030   7.474
17208SOL    HW153398   1.409   3.950   7.522
17208SOL    HW253399   1.458   4.001   7.388
17209SOL     OW53400   2.037  12.092   5.324
17209SOL    HW153401   2.002  12.176   5.297
17209SOL    HW253402   2.127  12.092   5.292
17210SOL     OW53403   7.371  10.057   3.232
17210SOL    HW153404   7.372  10.024   3.142
17210SOL    HW253405   7.315  10.135   3.228
17211SOL     OW53406  11.170   2.739  14.516
17211SOL    HW153407  11.261   2.711  14.529
17211SOL    HW253408  11.174   2.834  14.510
17212SOL     OW53409  14.110   0.974   0.492
17212SOL    HW153410  14.192   1.011   0.459
17212SOL    HW253411  14.055   1.050   0.511
17213SOL     OW53412   0.987   9.340   9.980
17213SOL    HW153413   1.045   9.347   9.905
17213SOL    HW253414   0.900   9.360   9.946
17214SOL     OW53415   5.213  13.828   4.912
17214SOL    HW153416   5.121  13.807   4.897
17214SOL    HW253417   5.216  13.862   5.002
17215SOL     OW53418   4.898   7.044   9.233
17215SOL    HW153419   4.905   7.037   9.328
17215SOL    HW253420   4.849   6.966   9.207
17216SOL     OW53421   6.169   6.498   5.428
17216SOL    HW153422   6.236   6.485   5.495
17216SOL    HW253423   6.203   6.455   5.351
17217SOL     OW53424   0.512  10.151  14.821
17217SOL    HW153425   0.536  10.072  14.870
17217SOL    HW253426   0.573  10.151  14.747
17218SOL     OW53427  13.221   8.666   3.337
17218SOL    HW153428  13.142   8.639   3.383
17218SOL    HW253429  13.250   8.745   3.383
17219SOL     OW53430   8.312  14.871  12.890
17219SOL    HW153431   8.280   0.014  12.802
17219SOL    HW253432   8.367  14.793  12.876
17220SOL     OW53433   6.593   0.547   9.844
17220SOL    HW153434   6.609   0.457   9.870
17220SOL    HW253435   6.675   0.593   9.861
17221SOL     OW53436   6.468   0.413   7.499
17221SOL    HW153437   6.503   0.496   7.529
17221SOL    HW253438   6.376   0.431   7.479
17222SOL     OW53439   4.311   0.113   9.055
17222SOL    HW153440   4.350   0.198   9.074
17222SOL    HW253441   4.383   0.061   9.019
17223SOL     OW53442   3.088   2.652   1.149
17223SOL    HW153443   3.068   2.617   1.062
17223SOL    HW253444   3.022   2.612   1.207
17224SOL     OW53445   0.228   8.795   1.210
17224SOL    HW153446   0.145   8.785   1.255
17224SOL    HW253447   0.214   8.870   1.151
17225SOL     OW53448  14.744   1.368   5.946
17225SOL    HW153449  14.763   1.458   5.973
17225SOL    HW253450  14.819   1.318   5.976
17226SOL     OW53451  10.579  13.832  14.805
17226SOL    HW153452  10.527  13.754  14.823
17226SOL    HW253453  10.524  13.884  14.747
17227SOL     OW53454  13.567   1.711   8.767
17227SOL    HW153455  13.598   1.686   8.854
17227SOL    HW253456  13.543   1.628   8.726
17228SOL     OW53457  11.628   6.035   8.709
17228SOL    HW153458  11.693   6.063   8.646
17228SOL    HW253459  11.575   6.114   8.725
17229SOL     OW53460  10.821   6.853   2.460
17229SOL    HW153461  10.807   6.763   2.429
17229SOL    HW253462  10.836   6.843   2.554
17230SOL     OW53463  14.744   4.029   5.233
17230SOL    HW153464  14.662   3.985   5.256
17230SOL    HW253465  14.811   3.981   5.280
17231SOL     OW53466   7.293  10.929   6.296
17231SOL    HW153467   7.219  10.871   6.276
17231SOL    HW253468   7.347  10.879   6.356
17232SOL     OW53469   2.927  13.355   6.166
17232SOL    HW153470   2.901  13.273   6.209
17232SOL    HW253471   2.999  13.331   6.109
17233SOL     OW53472   8.582  11.136  11.841
17233SOL    HW153473   8.511  11.122  11.904
17233SOL    HW253474   8.596  11.050  11.801
17234SOL     OW53475   6.933   7.219   2.727
17234SOL    HW153476   7.017   7.243   2.765
17234SOL    HW253477   6.889   7.168   2.796
17235SOL     OW53478   6.186  12.721  10.176
17235SOL    HW153479   6.207  12.801  10.225
17235SOL    HW253480   6.220  12.650  10.231
17236SOL     OW53481   2.647  14.259   1.391
17236SOL    HW153482   2.728  14.309   1.396
17236SOL    HW253483   2.594  14.305   1.327
17237SOL     OW53484  11.288   5.282   3.040
17237SOL    HW153485  11.345   5.314   2.969
17237SOL    HW253486  11.343   5.222   3.090
17238SOL     OW53487  13.509   6.979   6.069
17238SOL    HW153488  13.556   7.040   6.126
17238SOL    HW253489  13.532   7.007   5.980
17239SOL     OW53490  14.173  14.554   1.734
17239SOL    HW153491  14.211  14.608   1.664
17239SOL    HW253492  14.249  14.514   1.777
17240SOL     OW53493  11.277   3.422  14.286
17240SOL    HW153494  11.184   3.399  14.284
17240SOL    HW253495  11.287   3.472  14.367
17241SOL     OW53496   3.750   5.794   7.168
17241SOL    HW153497   3.689   5.867   7.176
17241SOL    HW253498   3.815   5.809   7.237
17242SOL     OW53499   3.500  13.708   3.209
17242SOL    HW153500   3.456  13.772   3.153
17242SOL    HW253501   3.487  13.741   3.298
17243SOL     OW53502   2.364   5.738  12.107
17243SOL    HW153503   2.382   5.797  12.180
17243SOL    HW253504   2.451   5.714  12.074
17244SOL     OW53505  11.355  12.765   0.760
17244SOL    HW153506  11.439  12.719   0.766
17244SOL    HW253507  11.341  12.803   0.847
17245SOL     OW53508   5.732   2.686   7.187
17245SOL    HW153509   5.733   2.680   7.282
17245SOL    HW253510   5.716   2.779   7.169
17246SOL     OW53511   2.941  10.209   5.206
17246SOL    HW153512   2.909  10.260   5.131
17246SOL    HW253513   2.952  10.274   5.275
17247SOL     OW53514  10.324   9.858   1.991
17247SOL    HW153515  10.388   9.901   2.048
17247SOL    HW253516  10.376   9.825   1.918
17248SOL     OW53517   4.505   6.279   3.483
17248SOL    HW153518   4.458   6.242   3.408
17248SOL    HW253519   4.544   6.359   3.449
17249SOL     OW53520   3.445   0.839  11.887
17249SOL    HW153521   3.352   0.846  11.867
17249SOL    HW253522   3.486   0.819  11.803
17250SOL     OW53523   2.892  12.769   9.836
17250SOL    HW153524   2.863  12.854   9.803
17250SOL    HW253525   2.816  12.712   9.826
17251SOL     OW53526   7.232   5.634  14.856
17251SOL    HW153527   7.292   5.700  14.822
17251SOL    HW253528   7.244   5.636   0.073
17252SOL     OW53529  11.423   3.097  14.722
17252SOL    HW153530  11.433   3.021  14.664
17252SOL    HW253531  11.498   3.153  14.702
17253SOL     OW53532  11.548   5.802   8.565
17253SOL    HW153533  11.465   5.824   8.523
17253SOL    HW253534  11.558   5.866   8.635
17254SOL     OW53535  11.660   9.137  10.739
17254SOL    HW153536  11.675   9.052  10.779
17254SOL    HW253537  11.743   9.184  10.749
17255SOL     OW53538   7.085   0.755  11.007
17255SOL    HW153539   7.083   0.763  10.912
17255SOL    HW253540   7.124   0.669  11.023
17256SOL     OW53541  12.202   0.321  10.133
17256SOL    HW153542  12.159   0.349  10.213
17256SOL    HW253543  12.152   0.244  10.105
17257SOL     OW53544   6.751   1.548   1.829
17257SOL    HW153545   6.820   1.483   1.814
17257SOL    HW253546   6.696   1.543   1.751
17258SOL     OW53547   7.135  10.182  12.528
17258SOL    HW153548   7.144  10.199  12.434
17258SOL    HW253549   7.061  10.123  12.536
17259SOL     OW53550  12.890   8.001   9.617
17259SOL    HW153551  12.856   8.071   9.562
17259SOL    HW253552  12.983   7.994   9.593
17260SOL     OW53553   5.938  13.481  13.324
17260SOL    HW153554   5.885  13.425  13.268
17260SOL    HW253555   5.877  13.548  13.355
17261SOL     OW53556   6.293   4.237   8.865
17261SOL    HW153557   6.290   4.148   8.830
17261SOL    HW253558   6.205   4.252   8.899
17262SOL     OW53559   3.558  11.471  12.398
17262SOL    HW153560   3.480  11.458  12.452
17262SOL    HW253561   3.556  11.564  12.374
17263SOL     OW53562   3.437   2.080   6.738
17263SOL    HW153563   3.519   2.129   6.743
17263SOL    HW253564   3.386   2.111   6.813
17264SOL     OW53565   2.682   6.424  12.219
17264SOL    HW153566   2.752   6.374  12.260
17264SOL    HW253567   2.702   6.421  12.125
17265SOL     OW53568   3.101  12.847   4.545
17265SOL    HW153569   3.112  12.856   4.639
17265SOL    HW253570   3.009  12.866   4.529
17266SOL     OW53571  10.062   9.006   0.901
17266SOL    HW153572  10.045   8.927   0.952
17266SOL    HW253573  10.094   9.070   0.965
17267SOL     OW53574   0.258   8.677   5.318
17267SOL    HW153575   0.202   8.685   5.395
17267SOL    HW253576   0.198   8.652   5.247
17268SOL     OW53577   8.606   7.813  12.977
17268SOL    HW153578   8.516   7.801  13.007
17268SOL    HW253579   8.657   7.816  13.058
17269SOL     OW53580  12.110   9.312  11.309
17269SOL    HW153581  12.098   9.356  11.224
17269SOL    HW253582  12.204   9.294  11.314
17270SOL     OW53583   7.093  12.443  10.583
17270SOL    HW153584   7.131  12.528  10.606
17270SOL    HW253585   7.060  12.455  10.494
17271SOL     OW53586   3.097  10.303  11.552
17271SOL    HW153587   3.038  10.351  11.610
17271SOL    HW253588   3.158  10.369  11.519
17272SOL     OW53589  12.291  12.943  13.689
17272SOL    HW153590  12.322  12.893  13.614
17272SOL    HW253591  12.293  12.882  13.762
17273SOL     OW53592   4.322   0.349   6.358
17273SOL    HW153593   4.311   0.389   6.445
17273SOL    HW253594   4.411   0.315   6.359
17274SOL     OW53595   0.921   9.952  11.257
17274SOL    HW153596   0.838   9.905  11.269
17274SOL    HW253597   0.946   9.933  11.167
17275SOL     OW53598  13.422  11.645   9.276
17275SOL    HW153599  13.496  11.654   9.337
17275SOL    HW253600  13.463  11.646   9.189
17276SOL     OW53601  14.570  13.133  14.259
17276SOL    HW153602  14.566  13.064  14.326
17276SOL    HW253603  14.662  13.158  14.255
17277SOL     OW53604   2.406  10.757  13.089
17277SOL    HW153605   2.360  10.683  13.049
17277SOL    HW253606   2.470  10.784  13.023
17278SOL     OW53607   6.284  10.489   0.963
17278SOL    HW153608   6.207  10.450   0.923
17278SOL    HW253609   6.341  10.509   0.888
17279SOL     OW53610   7.128   5.158   7.712
17279SOL    HW153611   7.129   5.150   7.616
17279SOL    HW253612   7.197   5.098   7.741
17280SOL     OW53613   9.853   2.762   1.226
17280SOL    HW153614   9.826   2.692   1.167
17280SOL    HW253615   9.893   2.716   1.300
17281SOL     OW53616  12.947   2.029  12.911
17281SOL    HW153617  12.955   2.115  12.951
17281SOL    HW253618  12.900   2.045  12.829
17282SOL     OW53619   7.531  11.031   5.723
17282SOL    HW153620   7.599  10.988   5.774
17282SOL    HW253621   7.524  10.978   5.643
17283SOL     OW53622  13.999   0.925  14.781
17283SOL    HW153623  13.944   0.943  14.858
17283SOL    HW253624  14.084   0.962  14.803
17284SOL     OW53625   8.432   3.237   0.545
17284SOL    HW153626   8.484   3.300   0.595
17284SOL    HW253627   8.497   3.176   0.509
17285SOL     OW53628   6.077  13.406   5.014
17285SOL    HW153629   6.173  13.405   5.014
17285SOL    HW253630   6.053  13.359   5.094
17286SOL     OW53631   7.257   3.200   3.201
17286SOL    HW153632   7.173   3.246   3.197
17286SOL    HW253633   7.265   3.157   3.116
17287SOL     OW53634   7.356   8.546  10.562
17287SOL    HW153635   7.401   8.556  10.646
17287SOL    HW253636   7.390   8.616  10.507
17288SOL     OW53637  12.779  13.776   9.390
17288SOL    HW153638  12.853  13.766   9.448
17288SOL    HW253639  12.725  13.844   9.431
17289SOL     OW53640   9.789   5.127   0.337
17289SOL    HW153641   9.818   5.112   0.427
17289SOL    HW253642   9.695   5.109   0.340
17290SOL     OW53643   4.053   2.497   0.571
17290SOL    HW153644   4.053   2.582   0.615
17290SOL    HW253645   4.065   2.517   0.479
17291SOL     OW53646   5.182   1.679  13.655
17291SOL    HW153647   5.130   1.729  13.593
17291SOL    HW253648   5.245   1.743  13.691
17292SOL     OW53649  10.800  14.721   3.983
17292SOL    HW153650  10.720  14.761   3.949
17292SOL    HW253651  10.847  14.794   4.024
17293SOL     OW53652  11.216   1.371   5.170
17293SOL    HW153653  11.295   1.383   5.222
17293SOL    HW253654  11.197   1.277   5.175
17294SOL     OW53655   4.370   2.986   8.922
17294SOL    HW153656   4.293   3.033   8.891
17294SOL    HW253657   4.439   3.009   8.859
17295SOL     OW53658  12.015  12.181   4.692
17295SOL    HW153659  12.023  12.262   4.643
17295SOL    HW253660  12.086  12.185   4.756
17296SOL     OW53661  10.302   2.640   7.580
17296SOL    HW153662  10.338   2.567   7.531
17296SOL    HW253663  10.207   2.632   7.570
17297SOL     OW53664   6.801  12.213   6.095
17297SOL    HW153665   6.793  12.186   6.187
17297SOL    HW253666   6.711  12.227   6.066
17298SOL     OW53667   3.072   3.667   7.273
17298SOL    HW153668   3.124   3.618   7.210
17298SOL    HW253669   2.998   3.610   7.293
17299SOL     OW53670   3.801   0.580  10.935
17299SOL    HW153671   3.851   0.567  10.855
17299SOL    HW253672   3.828   0.666  10.967
17300SOL     OW53673   0.782  12.460  14.460
17300SOL    HW153674   0.865  12.419  14.435
17300SOL    HW253675   0.739  12.396  14.516
17301SOL     OW53676  12.238  13.732  11.337
17301SOL    HW153677  12.314  13.790  11.334
17301SOL    HW253678  12.252  13.670  11.265
17302SOL     OW53679   5.751  13.079   5.416
17302SOL    HW153680   5.801  13.006   5.379
17302SOL    HW253681   5.731  13.134   5.340
17303SOL     OW53682   3.995  10.247   4.429
17303SOL    HW153683   4.083  10.222   4.399
17303SOL    HW253684   3.937  10.182   4.388
17304SOL     OW53685   9.925   5.211   4.864
17304SOL    HW153686   9.971   5.243   4.785
17304SOL    HW253687   9.985   5.232   4.936
17305SOL     OW53688  10.417   9.754   4.802
17305SOL    HW153689  10.496   9.763   4.855
17305SOL    HW253690  10.383   9.843   4.792
17306SOL     OW53691   0.546   4.831   0.295
17306SOL    HW153692   0.623   4.819   0.350
17306SOL    HW253693   0.575   4.804   0.207
17307SOL     OW53694   3.743  13.230   1.165
17307SOL    HW153695   3.830  13.270   1.167
17307SOL    HW253696   3.704  13.253   1.249
17308SOL     OW53697   4.437   5.681   1.411
17308SOL    HW153698   4.530   5.678   1.434
17308SOL    HW253699   4.429   5.757   1.353
17309SOL     OW53700   3.825   8.035   3.734
17309SOL    HW153701   3.798   8.063   3.646
17309SOL    HW253702   3.914   8.000   3.722
17310SOL     OW53703  14.424   2.516   5.515
17310SOL    HW153704  14.362   2.482   5.579
17310SOL    HW253705  14.510   2.489   5.548
17311SOL     OW53706   0.533   9.417   8.385
17311SOL    HW153707   0.521   9.512   8.391
17311SOL    HW253708   0.616   9.407   8.337
17312SOL     OW53709   7.647   2.050   2.547
17312SOL    HW153710   7.736   2.085   2.558
17312SOL    HW253711   7.643   2.022   2.456
17313SOL     OW53712   6.225   4.737  12.427
17313SOL    HW153713   6.138   4.769  12.450
17313SOL    HW253714   6.255   4.692  12.506
17314SOL     OW53715   1.545   3.885   4.570
17314SOL    HW153716   1.513   3.938   4.497
17314SOL    HW253717   1.634   3.861   4.545
17315SOL     OW53718   1.287   7.587   5.286
17315SOL    HW153719   1.372   7.552   5.311
17315SOL    HW253720   1.283   7.575   5.192
17316SOL     OW53721   5.587  10.931  10.763
17316SOL    HW153722   5.541  10.849  10.781
17316SOL    HW253723   5.524  10.984  10.714
17317SOL     OW53724  12.032   2.882   2.347
17317SOL    HW153725  12.072   2.907   2.431
17317SOL    HW253726  12.107   2.872   2.288
17318SOL     OW53727   8.873   7.533   5.575
17318SOL    HW153728   8.943   7.509   5.636
17318SOL    HW253729   8.794   7.495   5.614
17319SOL     OW53730   9.772   8.105   2.338
17319SOL    HW153731   9.732   8.066   2.260
17319SOL    HW253732   9.793   8.194   2.311
17320SOL     OW53733   4.814  14.062  13.990
17320SOL    HW153734   4.752  14.039  13.921
17320SOL    HW253735   4.824  14.157  13.983
17321SOL     OW53736   3.355  10.805  14.315
17321SOL    HW153737   3.445  10.832  14.296
17321SOL    HW253738   3.364  10.719  14.357
17322SOL     OW53739   8.480  11.022  11.407
17322SOL    HW153740   8.478  10.952  11.473
17322SOL    HW253741   8.565  11.014  11.365
17323SOL     OW53742   7.661   0.166   0.631
17323SOL    HW153743   7.736   0.114   0.603
17323SOL    HW253744   7.635   0.127   0.715
17324SOL     OW53745   2.848   3.912   2.902
17324SOL    HW153746   2.783   3.857   2.859
17324SOL    HW253747   2.881   3.970   2.833
17325SOL     OW53748   2.420   8.702   4.906
17325SOL    HW153749   2.390   8.766   4.971
17325SOL    HW253750   2.382   8.732   4.824
17326SOL     OW53751   3.143   3.132   2.487
17326SOL    HW153752   3.048   3.125   2.497
17326SOL    HW253753   3.166   3.059   2.429
17327SOL     OW53754   2.378   5.813   0.331
17327SOL    HW153755   2.416   5.878   0.271
17327SOL    HW253756   2.376   5.732   0.280
17328SOL     OW53757  12.955   3.349   1.072
17328SOL    HW153758  12.963   3.272   1.016
17328SOL    HW253759  13.042   3.361   1.110
17329SOL     OW53760   6.084   1.140  14.260
17329SOL    HW153761   6.123   1.120  14.175
17329SOL    HW253762   5.991   1.123  14.249
17330SOL     OW53763  13.543  12.403  14.579
17330SOL    HW153764  13.448  12.402  14.578
17330SOL    HW253765  13.568  12.449  14.499
17331SOL     OW53766   4.029   0.509  10.029
17331SOL    HW153767   4.090   0.470  10.091
17331SOL    HW253768   4.071   0.496   9.943
17332SOL     OW53769   2.714   7.881   3.863
17332SOL    HW153770   2.747   7.931   3.938
17332SOL    HW253771   2.708   7.791   3.895
17333SOL     OW53772   1.057   4.137  10.405
17333SOL    HW153773   1.141   4.178  10.388
17333SOL    HW253774   1.049   4.138  10.500
17334SOL     OW53775  10.599   2.142  10.898
17334SOL    HW153776  10.595   2.226  10.944
17334SOL    HW253777  10.572   2.161  10.809
17335SOL     OW53778   1.911  13.113   6.487
17335SOL    HW153779   1.859  13.185   6.451
17335SOL    HW253780   1.848  13.043   6.503
17336SOL     OW53781  11.845   0.703   6.181
17336SOL    HW153782  11.875   0.738   6.265
17336SOL    HW253783  11.750   0.718   6.180
17337SOL     OW53784  11.526   4.186  13.164
17337SOL    HW153785  11.534   4.168  13.258
17337SOL    HW253786  11.518   4.282  13.159
17338SOL     OW53787   3.862  14.133   5.949
17338SOL    HW153788   3.883  14.155   5.858
17338SOL    HW253789   3.768  14.114   5.948
17339SOL     OW53790   5.114   6.716  12.660
17339SOL    HW153791   5.030   6.700  12.704
17339SOL    HW253792   5.097   6.788  12.600
17340SOL     OW53793   5.129  10.993   9.357
17340SOL    HW153794   5.188  10.949   9.296
17340SOL    HW253795   5.185  11.021   9.429
17341SOL     OW53796  12.611   9.622   2.239
17341SOL    HW153797  12.635   9.529   2.232
17341SOL    HW253798  12.687   9.663   2.281
17342SOL     OW53799   0.572   6.704   6.338
17342SOL    HW153800   0.492   6.755   6.324
17342SOL    HW253801   0.640   6.769   6.350
17343SOL     OW53802   2.467   7.412   2.880
17343SOL    HW153803   2.465   7.369   2.966
17343SOL    HW253804   2.386   7.385   2.838
17344SOL     OW53805  11.919   8.196   4.868
17344SOL    HW153806  11.885   8.241   4.945
17344SOL    HW253807  11.992   8.144   4.902
17345SOL     OW53808  11.276   1.489   0.809
17345SOL    HW153809  11.236   1.432   0.742
17345SOL    HW253810  11.258   1.578   0.778
17346SOL     OW53811   0.647   8.660   3.480
17346SOL    HW153812   0.728   8.705   3.454
17346SOL    HW253813   0.603   8.641   3.398
17347SOL     OW53814   9.519  14.125  12.881
17347SOL    HW153815   9.482  14.089  12.801
17347SOL    HW253816   9.454  14.189  12.911
17348SOL     OW53817  14.310   5.098   9.811
17348SOL    HW153818  14.288   5.011   9.844
17348SOL    HW253819  14.368   5.082   9.737
17349SOL     OW53820   2.205   6.952   6.158
17349SOL    HW153821   2.236   6.883   6.099
17349SOL    HW253822   2.203   6.910   6.244
17350SOL     OW53823   3.055  14.063  11.829
17350SOL    HW153824   3.012  14.148  11.827
17350SOL    HW253825   3.070  14.046  11.922
17351SOL     OW53826   7.002  11.566   7.943
17351SOL    HW153827   6.948  11.605   8.012
17351SOL    HW253828   7.027  11.480   7.977
17352SOL     OW53829  11.953   1.792  11.595
17352SOL    HW153830  11.884   1.778  11.529
17352SOL    HW253831  11.913   1.850  11.659
17353SOL     OW53832  14.064   3.766  11.033
17353SOL    HW153833  14.148   3.789  11.072
17353SOL    HW253834  14.022   3.709  11.097
17354SOL     OW53835  13.799   5.567  10.744
17354SOL    HW153836  13.761   5.566  10.832
17354SOL    HW253837  13.771   5.485  10.704
17355SOL     OW53838   6.554  11.287   0.384
17355SOL    HW153839   6.471  11.334   0.394
17355SOL    HW253840   6.611  11.325   0.451
17356SOL     OW53841   9.429   5.042   4.972
17356SOL    HW153842   9.335   5.029   4.985
17356SOL    HW253843   9.467   4.954   4.976
17357SOL     OW53844   3.730   7.232  11.711
17357SOL    HW153845   3.677   7.153  11.700
17357SOL    HW253846   3.791   7.211  11.780
17358SOL     OW53847   7.240   9.768   5.456
17358SOL    HW153848   7.308   9.701   5.453
17358SOL    HW253849   7.273   9.838   5.399
17359SOL     OW53850   0.797  12.831  11.326
17359SOL    HW153851   0.828  12.892  11.392
17359SOL    HW253852   0.707  12.859  11.308
17360SOL     OW53853  14.688  14.431   4.623
17360SOL    HW153854  14.634  14.496   4.577
17360SOL    HW253855  14.625  14.380   4.674
17361SOL     OW53856   1.454  11.196   9.438
17361SOL    HW153857   1.517  11.264   9.460
17361SOL    HW253858   1.374  11.243   9.415
17362SOL     OW53859   3.575   7.392   6.380
17362SOL    HW153860   3.576   7.390   6.476
17362SOL    HW253861   3.505   7.332   6.356
17363SOL     OW53862   1.718   2.582   5.617
17363SOL    HW153863   1.766   2.619   5.542
17363SOL    HW253864   1.626   2.603   5.599
17364SOL     OW53865   4.156   2.155   6.315
17364SOL    HW153866   4.083   2.119   6.266
17364SOL    HW253867   4.232   2.105   6.284
17365SOL     OW53868  13.150   8.341   6.864
17365SOL    HW153869  13.155   8.399   6.788
17365SOL    HW253870  13.088   8.384   6.923
17366SOL     OW53871   3.060   2.097   9.509
17366SOL    HW153872   2.999   2.129   9.443
17366SOL    HW253873   3.118   2.038   9.461
17367SOL     OW53874   0.437   3.280   6.745
17367SOL    HW153875   0.407   3.202   6.792
17367SOL    HW253876   0.422   3.260   6.653
17368SOL     OW53877   4.645   8.889   6.184
17368SOL    HW153878   4.578   8.896   6.251
17368SOL    HW253879   4.607   8.933   6.108
17369SOL     OW53880  10.678  12.017   5.020
17369SOL    HW153881  10.740  12.017   5.093
17369SOL    HW253882  10.702  11.941   4.967
17370SOL     OW53883   8.680  12.835  10.802
17370SOL    HW153884   8.769  12.847  10.771
17370SOL    HW253885   8.674  12.888  10.882
17371SOL     OW53886   3.800   8.802   9.253
17371SOL    HW153887   3.775   8.861   9.325
17371SOL    HW253888   3.880   8.759   9.282
17372SOL     OW53889  10.702   0.574   7.394
17372SOL    HW153890  10.653   0.566   7.313
17372SOL    HW253891  10.688   0.491   7.440
17373SOL     OW53892   0.366   1.176   2.207
17373SOL    HW153893   0.279   1.215   2.220
17373SOL    HW253894   0.407   1.181   2.294
17374SOL     OW53895   3.734   2.967   0.767
17374SOL    HW153896   3.769   3.051   0.796
17374SOL    HW253897   3.806   2.926   0.719
17375SOL     OW53898   2.662   3.737   9.867
17375SOL    HW153899   2.668   3.831   9.883
17375SOL    HW253900   2.718   3.698   9.935
17376SOL     OW53901   3.673   9.642  13.246
17376SOL    HW153902   3.745   9.642  13.309
17376SOL    HW253903   3.643   9.552  13.244
17377SOL     OW53904   8.320   7.231   3.072
17377SOL    HW153905   8.398   7.230   3.017
17377SOL    HW253906   8.346   7.277   3.151
17378SOL     OW53907   2.572   4.655  11.279
17378SOL    HW153908   2.640   4.699  11.228
17378SOL    HW253909   2.526   4.725  11.325
17379SOL     OW53910   5.951   4.125  12.123
17379SOL    HW153911   5.963   4.216  12.096
17379SOL    HW253912   6.029   4.080  12.091
17380SOL     OW53913  11.859  13.858   8.928
17380SOL    HW153914  11.952  13.876   8.941
17380SOL    HW253915  11.846  13.868   8.834
17381SOL     OW53916   4.614   1.848  13.098
17381SOL    HW153917   4.675   1.789  13.054
17381SOL    HW253918   4.562   1.791  13.155
17382SOL     OW53919   7.980  13.339   1.436
17382SOL    HW153920   7.944  13.343   1.347
17382SOL    HW253921   8.024  13.254   1.441
17383SOL     OW53922   3.426   7.335  13.858
17383SOL    HW153923   3.357   7.271  13.840
17383SOL    HW253924   3.423   7.348  13.952
17384SOL     OW53925   4.792  12.312  11.402
17384SOL    HW153926   4.811  12.239  11.343
17384SOL    HW253927   4.700  12.301  11.424
17385SOL     OW53928  13.408   0.846   7.833
17385SOL    HW153929  13.416   0.756   7.866
17385SOL    HW253930  13.492   0.865   7.793
17386SOL     OW53931  11.124   7.552   9.235
17386SOL    HW153932  11.076   7.522   9.159
17386SOL    HW253933  11.060   7.550   9.307
17387SOL     OW53934   7.025   8.390  14.192
17387SOL    HW153935   7.106   8.440  14.200
17387SOL    HW253936   6.955   8.454  14.203
17388SOL     OW53937   4.962   8.834   4.847
17388SOL    HW153938   4.980   8.785   4.767
17388SOL    HW253939   5.018   8.795   4.913
17389SOL     OW53940   1.360   2.944   9.772
17389SOL    HW153941   1.347   3.038   9.766
17389SOL    HW253942   1.393   2.929   9.860
17390SOL     OW53943   2.843  10.230   1.466
17390SOL    HW153944   2.901  10.153   1.468
17390SOL    HW253945   2.805  10.228   1.378
17391SOL     OW53946   5.277  13.301   7.889
17391SOL    HW153947   5.342  13.322   7.956
17391SOL    HW253948   5.299  13.357   7.815
17392SOL     OW53949  10.705   0.370   0.516
17392SOL    HW153950  10.653   0.344   0.440
17392SOL    HW253951  10.755   0.446   0.487
17393SOL     OW53952   6.152  10.679  10.454
17393SOL    HW153953   6.138  10.586  10.476
17393SOL    HW253954   6.244  10.694  10.472
17394SOL     OW53955  10.254   4.239   7.363
17394SOL    HW153956  10.179   4.295   7.383
17394SOL    HW253957  10.217   4.151   7.357
17395SOL     OW53958  13.533   6.655   1.931
17395SOL    HW153959  13.509   6.667   2.023
17395SOL    HW253960  13.620   6.615   1.934
17396SOL     OW53961   0.762   4.651   5.979
17396SOL    HW153962   0.782   4.699   5.898
17396SOL    HW253963   0.802   4.565   5.966
17397SOL     OW53964  14.626   9.078   6.695
17397SOL    HW153965  14.586   9.165   6.692
17397SOL    HW253966  14.700   9.083   6.636
17398SOL     OW53967   9.550  10.040   8.545
17398SOL    HW153968   9.600   9.959   8.554
17398SOL    HW253969   9.569  10.071   8.456
17399SOL     OW53970   9.264   5.624  10.839
17399SOL    HW153971   9.193   5.562  10.822
17399SOL    HW253972   9.343   5.576  10.816
17400SOL     OW53973  14.148   4.193   3.469
17400SOL    HW153974  14.142   4.179   3.563
17400SOL    HW253975  14.230   4.242   3.457
17401SOL     OW53976   7.912  13.851   0.798
17401SOL    HW153977   7.930  13.776   0.742
17401SOL    HW253978   7.886  13.813   0.882
17402SOL     OW53979   5.804   8.581  12.865
17402SOL    HW153980   5.713   8.586  12.895
17402SOL    HW253981   5.804   8.628  12.781
17403SOL     OW53982   8.616   2.811  13.678
17403SOL    HW153983   8.603   2.740  13.741
17403SOL    HW253984   8.552   2.793  13.608
17404SOL     OW53985   7.222   6.381   8.303
17404SOL    HW153986   7.160   6.360   8.373
17404SOL    HW253987   7.179   6.450   8.252
17405SOL     OW53988   4.729   9.826   5.172
17405SOL    HW153989   4.801   9.763   5.182
17405SOL    HW253990   4.729   9.875   5.254
17406SOL     OW53991   4.585   4.576   2.589
17406SOL    HW153992   4.534   4.594   2.510
17406SOL    HW253993   4.537   4.506   2.634
17407SOL     OW53994  13.550  11.907   5.355
17407SOL    HW153995  13.578  11.897   5.446
17407SOL    HW253996  13.455  11.916   5.359
17408SOL     OW53997   7.969   0.811   3.876
17408SOL    HW153998   7.882   0.774   3.892
17408SOL    HW253999   7.974   0.886   3.936
17409SOL     OW54000   0.189   1.402   2.926
17409SOL    HW154001   0.151   1.347   2.858
17409SOL    HW254002   0.227   1.341   2.989
17410SOL     OW54003   8.488   7.586   9.904
17410SOL    HW154004   8.544   7.532   9.849
17410SOL    HW254005   8.548   7.629   9.964
17411SOL     OW54006   0.934   2.585   7.641
17411SOL    HW154007   0.909   2.543   7.559
17411SOL    HW254008   0.970   2.514   7.694
17412SOL     OW54009   4.553   8.017   2.375
17412SOL    HW154010   4.584   7.927   2.366
17412SOL    HW254011   4.491   8.029   2.304
17413SOL     OW54012  10.592   2.170   2.134
17413SOL    HW154013  10.532   2.178   2.060
17413SOL    HW254014  10.648   2.096   2.112
17414SOL     OW54015   4.934   9.591  12.061
17414SOL    HW154016   4.931   9.683  12.032
17414SOL    HW254017   4.895   9.542  11.989
17415SOL     OW54018  14.753   1.946   1.730
17415SOL    HW154019  14.694   1.876   1.701
17415SOL    HW254020  14.699   2.002   1.785
17416SOL     OW54021  11.329   8.942   8.711
17416SOL    HW154022  11.424   8.948   8.704
17416SOL    HW254023  11.312   8.932   8.805
17417SOL     OW54024   1.406   1.582   4.059
17417SOL    HW154025   1.395   1.559   3.967
17417SOL    HW254026   1.432   1.674   4.059
17418SOL     OW54027   7.725   2.225   4.970
17418SOL    HW154028   7.779   2.257   5.043
17418SOL    HW254029   7.694   2.140   4.999
17419SOL     OW54030  14.317   4.495   9.136
17419SOL    HW154031  14.356   4.486   9.049
17419SOL    HW254032  14.222   4.491   9.119
17420SOL     OW54033  13.041   8.849  12.517
17420SOL    HW154034  12.990   8.918  12.558
17420SOL    HW254035  12.977   8.781  12.496
17421SOL     OW54036   4.301   0.071  11.951
17421SOL    HW154037   4.372   0.007  11.941
17421SOL    HW254038   4.298   0.116  11.867
17422SOL     OW54039  14.314   5.343   4.729
17422SOL    HW154040  14.322   5.344   4.825
17422SOL    HW254041  14.252   5.273   4.711
17423SOL     OW54042   4.272   8.574  11.919
17423SOL    HW154043   4.232   8.629  11.851
17423SOL    HW254044   4.318   8.637  11.975
17424SOL     OW54045   5.446   5.847  11.080
17424SOL    HW154046   5.413   5.875  11.165
17424SOL    HW254047   5.535   5.882  11.076
17425SOL     OW54048   5.199   8.344   0.774
17425SOL    HW154049   5.224   8.344   0.681
17425SOL    HW254050   5.139   8.419   0.782
17426SOL     OW54051  10.676   5.629   7.507
17426SOL    HW154052  10.640   5.556   7.557
17426SOL    HW254053  10.760   5.647   7.549
17427SOL     OW54054   8.920  13.134  14.307
17427SOL    HW154055   8.876  13.204  14.259
17427SOL    HW254056   8.902  13.153  14.399
17428SOL     OW54057   8.543   1.210   1.858
17428SOL    HW154058   8.598   1.254   1.793
17428SOL    HW254059   8.456   1.246   1.843
17429SOL     OW54060   8.959   6.891   8.020
17429SOL    HW154061   8.892   6.843   7.972
17429SOL    HW254062   8.910   6.949   8.078
17430SOL     OW54063  13.785  10.393   1.709
17430SOL    HW154064  13.839  10.361   1.781
17430SOL    HW254065  13.779  10.488   1.723
17431SOL     OW54066  11.037  13.259   5.798
17431SOL    HW154067  11.038  13.351   5.772
17431SOL    HW254068  11.129  13.239   5.817
17432SOL     OW54069  11.194  10.129   1.671
17432SOL    HW154070  11.210  10.157   1.762
17432SOL    HW254071  11.116  10.177   1.644
17433SOL     OW54072   0.297  11.801  10.798
17433SOL    HW154073   0.214  11.828  10.759
17433SOL    HW254074   0.324  11.877  10.851
17434SOL     OW54075  13.370   8.547   9.829
17434SOL    HW154076  13.287   8.501   9.839
17434SOL    HW254077  13.401   8.521   9.742
17435SOL     OW54078   2.154  11.477   0.149
17435SOL    HW154079   2.080  11.533   0.126
17435SOL    HW254080   2.122  11.422   0.220
17436SOL     OW54081   5.352  11.576   9.893
17436SOL    HW154082   5.260  11.550   9.885
17436SOL    HW254083   5.371  11.569   9.987
17437SOL     OW54084   2.669   6.614  11.199
17437SOL    HW154085   2.666   6.585  11.290
17437SOL    HW254086   2.587   6.662  11.187
17438SOL     OW54087   8.536   0.905   8.099
17438SOL    HW154088   8.509   0.883   8.009
17438SOL    HW254089   8.457   0.895   8.151
17439SOL     OW54090   8.390   9.025  13.781
17439SOL    HW154091   8.366   8.940  13.818
17439SOL    HW254092   8.470   9.008  13.731
17440SOL     OW54093   2.996   4.382  13.865
17440SOL    HW154094   3.014   4.459  13.919
17440SOL    HW254095   2.945   4.324  13.922
17441SOL     OW54096  13.176   3.956  11.677
17441SOL    HW154097  13.169   3.889  11.745
17441SOL    HW254098  13.122   4.028  11.709
17442SOL     OW54099  12.649  10.165  10.500
17442SOL    HW154100  12.707  10.096  10.532
17442SOL    HW254101  12.627  10.215  10.579
17443SOL     OW54102   9.030  14.694   9.879
17443SOL    HW154103   8.978  14.631   9.829
17443SOL    HW254104   9.059  14.645   9.956
17444SOL     OW54105   4.808  12.417   1.039
17444SOL    HW154106   4.888  12.465   1.058
17444SOL    HW254107   4.763  12.412   1.124
17445SOL     OW54108   7.401  14.746  12.394
17445SOL    HW154109   7.459  14.814  12.359
17445SOL    HW254110   7.458  14.669  12.404
17446SOL     OW54111  13.723  14.860   9.965
17446SOL    HW154112  13.726  14.788  10.029
17446SOL    HW254113  13.712  14.817   9.881
17447SOL     OW54114   8.260   4.120   4.025
17447SOL    HW154115   8.200   4.184   3.985
17447SOL    HW254116   8.209   4.040   4.029
17448SOL     OW54117  10.749  14.154   3.677
17448SOL    HW154118  10.686  14.174   3.747
17448SOL    HW254119  10.694  14.123   3.605
17449SOL     OW54120  13.906   0.235  11.939
17449SOL    HW154121  13.884   0.157  11.990
17449SOL    HW254122  13.982   0.209  11.887
17450SOL     OW54123   1.049   6.494  11.893
17450SOL    HW154124   1.123   6.443  11.924
17450SOL    HW254125   0.972   6.449  11.929
17451SOL     OW54126   1.622   4.656   0.597
17451SOL    HW154127   1.637   4.575   0.646
17451SOL    HW254128   1.670   4.723   0.645
17452SOL     OW54129  14.612  14.717   3.598
17452SOL    HW154130  14.518  14.724   3.580
17452SOL    HW254131  14.650  14.690   3.515
17453SOL     OW54132   0.499   2.760   3.257
17453SOL    HW154133   0.526   2.672   3.281
17453SOL    HW254134   0.578   2.802   3.225
17454SOL     OW54135   1.038   8.009  14.028
17454SOL    HW154136   1.100   8.012  14.101
17454SOL    HW254137   1.032   7.917  14.006
17455SOL     OW54138   7.571  10.544   8.125
17455SOL    HW154139   7.546  10.636   8.114
17455SOL    HW254140   7.666  10.546   8.136
17456SOL     OW54141   2.439   7.741  14.355
17456SOL    HW154142   2.362   7.705  14.398
17456SOL    HW254143   2.436   7.835  14.373
17457SOL     OW54144  10.192   6.251   4.476
17457SOL    HW154145  10.142   6.299   4.410
17457SOL    HW254146  10.282   6.251   4.443
17458SOL     OW54147   0.401   5.550   9.683
17458SOL    HW154148   0.306   5.560   9.672
17458SOL    HW254149   0.420   5.462   9.649
17459SOL     OW54150  14.622   7.253   3.817
17459SOL    HW154151  14.555   7.184   3.810
17459SOL    HW254152  14.651   7.250   3.908
17460SOL     OW54153  12.578   2.886  12.141
17460SOL    HW154154  12.546   2.817  12.200
17460SOL    HW254155  12.594   2.961  12.199
17461SOL     OW54156  10.524   9.546  12.122
17461SOL    HW154157  10.620   9.548  12.127
17461SOL    HW254158  10.497   9.504  12.203
17462SOL     OW54159   6.939   5.675  12.871
17462SOL    HW154160   7.001   5.747  12.881
17462SOL    HW254161   6.994   5.596  12.875
17463SOL     OW54162   9.699   9.975   5.853
17463SOL    HW154163   9.788   9.974   5.816
17463SOL    HW254164   9.696   9.896   5.908
17464SOL     OW54165   9.523  13.048   2.258
17464SOL    HW154166   9.432  13.075   2.249
17464SOL    HW254167   9.522  12.978   2.323
17465SOL     OW54168   2.487   8.023  10.906
17465SOL    HW154169   2.525   8.085  10.969
17465SOL    HW254170   2.453   7.952  10.961
17466SOL     OW54171   2.545  11.198  11.434
17466SOL    HW154172   2.461  11.204  11.387
17466SOL    HW254173   2.552  11.280  11.482
17467SOL     OW54174  12.006   3.118  12.217
17467SOL    HW154175  12.062   3.176  12.269
17467SOL    HW254176  12.027   3.140  12.126
17468SOL     OW54177   1.745   2.660  13.495
17468SOL    HW154178   1.678   2.609  13.541
17468SOL    HW254179   1.730   2.640  13.402
17469SOL     OW54180  13.143  12.034   9.665
17469SOL    HW154181  13.090  12.097   9.616
17469SOL    HW254182  13.160  11.964   9.602
17470SOL     OW54183   0.481  10.912   1.604
17470SOL    HW154184   0.390  10.904   1.632
17470SOL    HW254185   0.493  11.005   1.584
17471SOL     OW54186   2.260  13.611   3.190
17471SOL    HW154187   2.307  13.529   3.202
17471SOL    HW254188   2.315  13.661   3.130
17472SOL     OW54189   6.555   6.047   2.728
17472SOL    HW154190   6.629   6.039   2.668
17472SOL    HW254191   6.477   6.047   2.672
17473SOL     OW54192   6.431   7.258   9.761
17473SOL    HW154193   6.430   7.243   9.667
17473SOL    HW254194   6.519   7.290   9.779
17474SOL     OW54195  11.874   9.060  13.741
17474SOL    HW154196  11.901   9.149  13.763
17474SOL    HW254197  11.786   9.070  13.705
17475SOL     OW54198   4.892  12.872   3.819
17475SOL    HW154199   4.877  12.787   3.861
17475SOL    HW254200   4.883  12.854   3.725
17476SOL     OW54201   3.335   5.760   8.320
17476SOL    HW154202   3.252   5.790   8.356
17476SOL    HW254203   3.321   5.756   8.226
17477SOL     OW54204   9.261   6.358   0.360
17477SOL    HW154205   9.336   6.373   0.417
17477SOL    HW254206   9.264   6.430   0.297
17478SOL     OW54207   5.817  10.133   4.421
17478SOL    HW154208   5.870  10.089   4.487
17478SOL    HW254209   5.865  10.213   4.401
17479SOL     OW54210  12.856   7.132  11.846
17479SOL    HW154211  12.917   7.185  11.795
17479SOL    HW254212  12.785   7.111  11.784
17480SOL     OW54213   7.435  12.629  13.795
17480SOL    HW154214   7.396  12.545  13.772
17480SOL    HW254215   7.424  12.636  13.890
17481SOL     OW54216  13.628  13.614  12.043
17481SOL    HW154217  13.677  13.534  12.062
17481SOL    HW254218  13.537  13.585  12.037
17482SOL     OW54219   1.311  10.435  10.231
17482SOL    HW154220   1.329  10.370  10.163
17482SOL    HW254221   1.316  10.385  10.313
17483SOL     OW54222   6.041  12.675   0.153
17483SOL    HW154223   5.962  12.671   0.099
17483SOL    HW254224   6.092  12.598   0.126
17484SOL     OW54225   2.656  12.412   5.888
17484SOL    HW154226   2.749  12.432   5.901
17484SOL    HW254227   2.655  12.323   5.852
17485SOL     OW54228   8.023   3.897  12.023
17485SOL    HW154229   8.084   3.859  11.959
17485SOL    HW254230   8.072   3.898  12.105
17486SOL     OW54231   3.828  12.851  13.883
17486SOL    HW154232   3.833  12.760  13.911
17486SOL    HW254233   3.896  12.896  13.934
17487SOL     OW54234  10.929   7.798   4.813
17487SOL    HW154235  10.853   7.856   4.820
17487SOL    HW254236  10.899   7.714   4.847
17488SOL     OW54237   1.367   0.893   9.556
17488SOL    HW154238   1.424   0.964   9.528
17488SOL    HW254239   1.391   0.877   9.647
17489SOL     OW54240   4.134  13.963  11.191
17489SOL    HW154241   4.141  14.049  11.233
17489SOL    HW254242   4.221  13.946  11.156
17490SOL     OW54243   4.005  10.981   9.910
17490SOL    HW154244   3.929  11.001   9.965
17490SOL    HW254245   4.036  10.896   9.942
17491SOL     OW54246  10.165   3.939   1.214
17491SOL    HW154247  10.233   3.886   1.173
17491SOL    HW254248  10.100   3.876   1.245
17492SOL     OW54249   4.124  12.821  11.659
17492SOL    HW154250   4.096  12.907  11.629
17492SOL    HW254251   4.063  12.800  11.729
17493SOL     OW54252   7.393   3.549   6.053
17493SOL    HW154253   7.345   3.631   6.064
17493SOL    HW254254   7.351   3.505   5.979
17494SOL     OW54255  11.739   5.333   6.195
17494SOL    HW154256  11.783   5.248   6.197
17494SOL    HW254257  11.684   5.329   6.117
17495SOL     OW54258  14.297   7.677   2.994
17495SOL    HW154259  14.243   7.642   2.923
17495SOL    HW254260  14.253   7.757   3.021
17496SOL     OW54261   4.655   0.003   2.958
17496SOL    HW154262   4.745  14.848   2.968
17496SOL    HW254263   4.660   0.095   2.981
17497SOL     OW54264   0.401  11.181   7.834
17497SOL    HW154265   0.349  11.231   7.897
17497SOL    HW254266   0.351  11.100   7.821
17498SOL     OW54267   6.674  10.971   0.992
17498SOL    HW154268   6.630  10.901   0.944
17498SOL    HW254269   6.648  10.957   1.083
17499SOL     OW54270   5.163   9.043   4.999
17499SOL    HW154271   5.150   8.951   4.978
17499SOL    HW254272   5.257   9.053   5.009
17500SOL     OW54273  10.563  12.274   7.393
17500SOL    HW154274  10.634  12.275   7.328
17500SOL    HW254275  10.538  12.182   7.400
17501SOL     OW54276  12.652  13.897   7.326
17501SOL    HW154277  12.566  13.939   7.329
17501SOL    HW254278  12.714  13.970   7.315
17502SOL     OW54279   5.245   0.597  12.975
17502SOL    HW154280   5.294   0.577  13.056
17502SOL    HW254281   5.313   0.618  12.911
17503SOL     OW54282   8.193   3.187   7.681
17503SOL    HW154283   8.286   3.201   7.662
17503SOL    HW254284   8.189   3.097   7.716
17504SOL     OW54285   5.552   8.489   1.225
17504SOL    HW154286   5.537   8.562   1.285
17504SOL    HW254287   5.499   8.509   1.148
17505SOL     OW54288   6.590  13.300   5.676
17505SOL    HW154289   6.681  13.318   5.701
17505SOL    HW254290   6.580  13.206   5.692
17506SOL     OW54291   4.164  11.558   6.513
17506SOL    HW154292   4.204  11.486   6.563
17506SOL    HW254293   4.206  11.554   6.427
17507SOL     OW54294   9.024   2.329   0.773
17507SOL    HW154295   9.014   2.325   0.678
17507SOL    HW254296   8.939   2.301   0.807
17508SOL     OW54297   8.531   8.183   0.364
17508SOL    HW154298   8.626   8.193   0.369
17508SOL    HW254299   8.510   8.118   0.431
17509SOL     OW54300   2.743   9.925   5.217
17509SOL    HW154301   2.692   9.943   5.138
17509SOL    HW254302   2.814   9.990   5.215
17510SOL     OW54303  11.994   7.062   0.582
17510SOL    HW154304  12.073   7.108   0.611
17510SOL    HW254305  11.926   7.131   0.580
17511SOL     OW54306  11.510   9.073  11.086
17511SOL    HW154307  11.470   9.093  11.002
17511SOL    HW254308  11.540   9.157  11.120
17512SOL     OW54309  13.578   2.909  13.333
17512SOL    HW154310  13.497   2.960  13.325
17512SOL    HW254311  13.597   2.911  13.427
17513SOL     OW54312   8.944   6.401   8.514
17513SOL    HW154313   8.849   6.393   8.522
17513SOL    HW254314   8.975   6.311   8.498
17514SOL     OW54315  14.851   9.423   0.704
17514SOL    HW154316  14.790   9.357   0.671
17514SOL    HW254317   0.055   9.405   0.657
17515SOL     OW54318  13.170  14.619   1.338
17515SOL    HW154319  13.162  14.551   1.272
17515SOL    HW254320  13.138  14.698   1.294
17516SOL     OW54321  13.048   2.456   7.805
17516SOL    HW154322  13.136   2.422   7.788
17516SOL    HW254323  12.991   2.399   7.753
17517SOL     OW54324   0.479  14.099   5.593
17517SOL    HW154325   0.559  14.068   5.551
17517SOL    HW254326   0.409  14.073   5.533
17518SOL     OW54327   6.053   9.020   2.424
17518SOL    HW154328   6.134   9.071   2.421
17518SOL    HW254329   6.082   8.931   2.445
17519SOL     OW54330   7.751   4.620   4.922
17519SOL    HW154331   7.771   4.539   4.970
17519SOL    HW254332   7.782   4.603   4.833
17520SOL     OW54333   1.864   1.027  12.315
17520SOL    HW154334   1.944   1.054  12.270
17520SOL    HW254335   1.794   1.073  12.269
17521SOL     OW54336  11.355   3.108   6.729
17521SOL    HW154337  11.444   3.126   6.699
17521SOL    HW254338  11.313   3.194   6.732
17522SOL     OW54339   6.887  13.833  11.813
17522SOL    HW154340   6.946  13.790  11.752
17522SOL    HW254341   6.897  13.784  11.895
17523SOL     OW54342  14.735  10.286  10.243
17523SOL    HW154343  14.776  10.332  10.316
17523SOL    HW254344  14.805  10.230  10.209
17524SOL     OW54345   8.661  10.604   5.519
17524SOL    HW154346   8.659  10.509   5.531
17524SOL    HW254347   8.584  10.636   5.565
17525SOL     OW54348  10.048   2.656   5.082
17525SOL    HW154349  10.047   2.752   5.075
17525SOL    HW254350   9.961   2.629   5.053
17526SOL     OW54351  13.119   3.078   1.075
17526SOL    HW154352  13.055   3.017   1.039
17526SOL    HW254353  13.158   3.121   0.999
17527SOL     OW54354   7.752   1.158   8.420
17527SOL    HW154355   7.689   1.215   8.466
17527SOL    HW254356   7.716   1.151   8.332
17528SOL     OW54357   0.497   5.321   9.605
17528SOL    HW154358   0.508   5.250   9.668
17528SOL    HW254359   0.488   5.277   9.520
17529SOL     OW54360  13.388  10.201  13.614
17529SOL    HW154361  13.420  10.135  13.676
17529SOL    HW254362  13.343  10.265  13.668
17530SOL     OW54363   6.064   1.765   8.810
17530SOL    HW154364   6.140   1.791   8.861
17530SOL    HW254365   5.991   1.815   8.846
17531SOL     OW54366  10.525  12.083  12.514
17531SOL    HW154367  10.472  12.124  12.582
17531SOL    HW254368  10.506  11.989  12.522
17532SOL     OW54369   6.610   4.129   9.612
17532SOL    HW154370   6.534   4.094   9.567
17532SOL    HW254371   6.604   4.224   9.601
17533SOL     OW54372   1.381   7.943  11.764
17533SOL    HW154373   1.380   7.857  11.724
17533SOL    HW254374   1.470   7.975  11.751
17534SOL     OW54375   8.869   6.043   0.466
17534SOL    HW154376   8.948   6.089   0.496
17534SOL    HW254377   8.893   6.009   0.380
17535SOL     OW54378   5.223   8.908   6.095
17535SOL    HW154379   5.206   8.846   6.166
17535SOL    HW254380   5.225   8.855   6.016
17536SOL     OW54381  12.682   1.388  12.516
17536SOL    HW154382  12.776   1.373  12.508
17536SOL    HW254383  12.656   1.419  12.429
17537SOL     OW54384   9.046   7.609   3.196
17537SOL    HW154385   9.118   7.547   3.203
17537SOL    HW254386   9.008   7.593   3.109
17538SOL     OW54387  14.127   1.451   2.841
17538SOL    HW154388  14.121   1.361   2.871
17538SOL    HW254389  14.207   1.454   2.789
17539SOL     OW54390   4.191  11.254  12.552
17539SOL    HW154391   4.100  11.230  12.568
17539SOL    HW254392   4.236  11.233  12.634
17540SOL     OW54393   9.296  10.723   1.183
17540SOL    HW154394   9.236  10.797   1.185
17540SOL    HW254395   9.244  10.650   1.148
17541SOL     OW54396  11.655   9.448   1.555
17541SOL    HW154397  11.626   9.507   1.485
17541SOL    HW254398  11.732   9.404   1.518
17542SOL     OW54399   6.933   8.627   5.223
17542SOL    HW154400   6.879   8.561   5.179
17542SOL    HW254401   6.997   8.654   5.157
17543SOL     OW54402  10.038   6.660   1.945
17543SOL    HW154403  10.005   6.732   1.890
17543SOL    HW254404  10.071   6.596   1.883
17544SOL     OW54405  12.420   3.297   3.308
17544SOL    HW154406  12.420   3.216   3.258
17544SOL    HW254407  12.475   3.278   3.384
17545SOL     OW54408  10.205  12.558  10.098
17545SOL    HW154409  10.227  12.471  10.064
17545SOL    HW254410  10.285  12.609  10.088
17546SOL     OW54411  13.058   6.797   0.052
17546SOL    HW154412  13.029   6.726   0.110
17546SOL    HW254413  13.078   6.754  14.847
17547SOL     OW54414  10.398   9.885   4.484
17547SOL    HW154415  10.458   9.860   4.414
17547SOL    HW254416  10.357   9.804   4.511
17548SOL     OW54417   1.681  12.123   0.287
17548SOL    HW154418   1.699  12.173   0.366
17548SOL    HW254419   1.692  12.032   0.313
17549SOL     OW54420   4.599   8.120   6.635
17549SOL    HW154421   4.587   8.081   6.548
17549SOL    HW254422   4.513   8.157   6.657
17550SOL     OW54423  11.729  11.183   5.485
17550SOL    HW154424  11.724  11.225   5.399
17550SOL    HW254425  11.678  11.103   5.475
17551SOL     OW54426   5.682   0.763   0.459
17551SOL    HW154427   5.708   0.806   0.540
17551SOL    HW254428   5.602   0.716   0.482
17552SOL     OW54429  12.507  11.510   5.631
17552SOL    HW154430  12.488  11.427   5.588
17552SOL    HW254431  12.578  11.489   5.692
17553SOL     OW54432   2.011  13.516   6.214
17553SOL    HW154433   2.040  13.607   6.219
17553SOL    HW254434   2.092  13.465   6.213
17554SOL     OW54435  14.273  14.594  13.753
17554SOL    HW154436  14.209  14.598  13.682
17554SOL    HW254437  14.221  14.604  13.833
17555SOL     OW54438   9.931   2.015  12.226
17555SOL    HW154439  10.017   2.036  12.191
17555SOL    HW254440   9.948   1.956  12.299
17556SOL     OW54441   7.590   9.050   7.271
17556SOL    HW154442   7.667   8.998   7.248
17556SOL    HW254443   7.575   9.106   7.195
17557SOL     OW54444   8.927  13.220   4.455
17557SOL    HW154445   9.023  13.217   4.447
17557SOL    HW254446   8.903  13.130   4.480
17558SOL     OW54447  13.008   2.473   0.930
17558SOL    HW154448  12.965   2.479   1.015
17558SOL    HW254449  13.008   2.379   0.910
17559SOL     OW54450   1.851   2.396  12.080
17559SOL    HW154451   1.865   2.371  12.172
17559SOL    HW254452   1.781   2.461  12.084
17560SOL     OW54453  12.727   1.711   9.788
17560SOL    HW154454  12.715   1.806   9.786
17560SOL    HW254455  12.653   1.676   9.739
17561SOL     OW54456   1.592   8.268   9.915
17561SOL    HW154457   1.649   8.343   9.903
17561SOL    HW254458   1.504   8.306   9.922
17562SOL     OW54459   0.013   5.778   4.085
17562SOL    HW154460  14.822   5.843   4.098
17562SOL    HW254461  14.877   5.714   4.155
17563SOL     OW54462   0.106  11.579  11.623
17563SOL    HW154463   0.089  11.495  11.579
17563SOL    HW254464   0.037  11.637  11.593
17564SOL     OW54465   9.898   5.585   6.101
17564SOL    HW154466   9.900   5.681   6.097
17564SOL    HW254467   9.871   5.566   6.191
17565SOL     OW54468  12.506   9.520   3.828
17565SOL    HW154469  12.432   9.512   3.769
17565SOL    HW254470  12.544   9.605   3.808
17566SOL     OW54471   8.514   2.761   2.041
17566SOL    HW154472   8.494   2.684   1.988
17566SOL    HW254473   8.605   2.783   2.019
17567SOL     OW54474   2.980  14.143   1.663
17567SOL    HW154475   3.025  14.210   1.612
17567SOL    HW254476   2.904  14.118   1.609
17568SOL     OW54477  14.219   6.479   6.810
17568SOL    HW154478  14.250   6.528   6.734
17568SOL    HW254479  14.230   6.540   6.884
17569SOL     OW54480   3.581  11.295  10.080
17569SOL    HW154481   3.544  11.279   9.993
17569SOL    HW254482   3.646  11.363  10.067
17570SOL     OW54483  10.388  14.019   8.152
17570SOL    HW154484  10.372  14.113   8.151
17570SOL    HW254485  10.445  14.002   8.077
17571SOL     OW54486  12.332   8.907  11.456
17571SOL    HW154487  12.380   8.858  11.389
17571SOL    HW254488  12.398   8.965  11.494
17572SOL     OW54489   6.560  11.911   9.945
17572SOL    HW154490   6.511  11.833   9.917
17572SOL    HW254491   6.649  11.895   9.914
17573SOL     OW54492   8.858   6.393  12.383
17573SOL    HW154493   8.854   6.329  12.312
17573SOL    HW254494   8.899   6.470  12.342
17574SOL     OW54495  10.457  10.734  12.810
17574SOL    HW154496  10.372  10.696  12.787
17574SOL    HW254497  10.441  10.776  12.895
17575SOL     OW54498   4.281  10.014  11.395
17575SOL    HW154499   4.277  10.065  11.476
17575SOL    HW254500   4.350   9.949  11.411
17576SOL     OW54501   6.910   0.265  10.819
17576SOL    HW154502   6.976   0.197  10.830
17576SOL    HW254503   6.849   0.230  10.754
17577SOL     OW54504   1.618   3.424   2.158
17577SOL    HW154505   1.587   3.364   2.091
17577SOL    HW254506   1.543   3.436   2.217
17578SOL     OW54507   4.032   7.732  13.327
17578SOL    HW154508   3.958   7.676  13.348
17578SOL    HW254509   3.997   7.797  13.266
17579SOL     OW54510   2.290   1.486   5.372
17579SOL    HW154511   2.228   1.495   5.444
17579SOL    HW254512   2.306   1.576   5.343
17580SOL     OW54513  13.606   7.398  14.643
17580SOL    HW154514  13.595   7.342  14.566
17580SOL    HW254515  13.532   7.460  14.638
17581SOL     OW54516   1.545  14.204   0.734
17581SOL    HW154517   1.623  14.190   0.786
17581SOL    HW254518   1.506  14.284   0.769
17582SOL     OW54519   2.205   8.737  10.135
17582SOL    HW154520   2.203   8.650  10.175
17582SOL    HW254521   2.113   8.763  10.127
17583SOL     OW54522  11.525   9.268  14.552
17583SOL    HW154523  11.568   9.201  14.499
17583SOL    HW254524  11.480   9.324  14.489
17584SOL     OW54525   8.767   0.842   8.338
17584SOL    HW154526   8.699   0.830   8.272
17584SOL    HW254527   8.743   0.923   8.383
17585SOL     OW54528  12.539   2.829  13.964
17585SOL    HW154529  12.614   2.888  13.968
17585SOL    HW254530  12.516   2.813  14.056
17586SOL     OW54531  11.963  10.936  12.000
17586SOL    HW154532  12.011  10.888  11.932
17586SOL    HW254533  11.968  11.028  11.973
17587SOL     OW54534   1.661   4.456  12.265
17587SOL    HW154535   1.721   4.531  12.264
17587SOL    HW254536   1.657   4.427  12.174
17588SOL     OW54537  12.122   1.007   6.246
17588SOL    HW154538  12.159   1.017   6.334
17588SOL    HW254539  12.031   0.983   6.261
17589SOL     OW54540   1.998   7.557   1.563
17589SOL    HW154541   2.039   7.559   1.649
17589SOL    HW254542   1.940   7.481   1.565
17590SOL     OW54543  13.033   0.587   9.776
17590SOL    HW154544  12.945   0.576   9.811
17590SOL    HW254545  13.085   0.522   9.823
17591SOL     OW54546   3.763   1.930  13.142
17591SOL    HW154547   3.671   1.904  13.155
17591SOL    HW254548   3.805   1.853  13.104
17592SOL     OW54549  10.026  12.777   5.240
17592SOL    HW154550   9.953  12.836   5.255
17592SOL    HW254551  10.003  12.729   5.161
17593SOL     OW54552   0.946  12.982   8.711
17593SOL    HW154553   0.890  12.943   8.778
17593SOL    HW254554   0.889  12.988   8.634
17594SOL     OW54555   0.854   0.938  12.202
17594SOL    HW154556   0.780   0.894  12.161
17594SOL    HW254557   0.930   0.912  12.149
17595SOL     OW54558  12.366   3.311   5.945
17595SOL    HW154559  12.443   3.355   5.979
17595SOL    HW254560  12.306   3.306   6.019
17596SOL     OW54561  12.972  10.557   4.545
17596SOL    HW154562  12.999  10.585   4.458
17596SOL    HW254563  12.972  10.637   4.598
17597SOL     OW54564   3.805   8.364   8.629
17597SOL    HW154565   3.886   8.344   8.583
17597SOL    HW254566   3.832   8.424   8.699
17598SOL     OW54567  13.278   9.245   3.806
17598SOL    HW154568  13.292   9.308   3.877
17598SOL    HW254569  13.188   9.261   3.777
17599SOL     OW54570   4.160  14.357   1.937
17599SOL    HW154571   4.136  14.287   1.998
17599SOL    HW254572   4.102  14.430   1.961
17600SOL     OW54573   3.603  13.184   3.824
17600SOL    HW154574   3.529  13.244   3.815
17600SOL    HW254575   3.629  13.164   3.734
17601SOL     OW54576   0.404  14.794   8.450
17601SOL    HW154577   0.325  14.783   8.397
17601SOL    HW254578   0.408   0.010   8.467
17602SOL     OW54579   4.289   4.916   1.885
17602SOL    HW154580   4.333   4.976   1.825
17602SOL    HW254581   4.356   4.852   1.909
17603SOL     OW54582  14.117   0.893   3.893
17603SOL    HW154583  14.110   0.949   3.971
17603SOL    HW254584  14.038   0.912   3.842
17604SOL     OW54585   9.553   1.537   6.187
17604SOL    HW154586   9.509   1.509   6.106
17604SOL    HW254587   9.643   1.553   6.161
17605SOL     OW54588   3.750   9.230   3.055
17605SOL    HW154589   3.754   9.239   2.960
17605SOL    HW254590   3.658   9.210   3.074
17606SOL     OW54591  12.687   2.605   0.964
17606SOL    HW154592  12.698   2.692   1.003
17606SOL    HW254593  12.677   2.622   0.870
17607SOL     OW54594   5.397   0.624   8.277
17607SOL    HW154595   5.341   0.686   8.231
17607SOL    HW254596   5.448   0.678   8.337
17608SOL     OW54597   1.889   9.703   7.010
17608SOL    HW154598   1.953   9.729   7.075
17608SOL    HW254599   1.861   9.786   6.969
17609SOL     OW54600   4.054  13.000   1.774
17609SOL    HW154601   4.094  12.988   1.860
17609SOL    HW254602   3.976  13.053   1.791
17610SOL     OW54603   7.387   3.690  13.464
17610SOL    HW154604   7.336   3.609  13.465
17610SOL    HW254605   7.323   3.758  13.444
17611SOL     OW54606   0.452   4.283   0.137
17611SOL    HW154607   0.412   4.368   0.153
17611SOL    HW254608   0.384   4.220   0.158
17612SOL     OW54609  11.289   1.572  13.766
17612SOL    HW154610  11.229   1.538  13.832
17612SOL    HW254611  11.342   1.496  13.741
17613SOL     OW54612  10.520  12.588  14.044
17613SOL    HW154613  10.611  12.562  14.033
17613SOL    HW254614  10.470  12.515  14.007
17614SOL     OW54615   2.790   1.569   6.033
17614SOL    HW154616   2.750   1.536   6.113
17614SOL    HW254617   2.810   1.661   6.052
17615SOL     OW54618   4.500   1.224   4.899
17615SOL    HW154619   4.580   1.251   4.854
17615SOL    HW254620   4.530   1.185   4.981
17616SOL     OW54621   3.446   0.714   7.051
17616SOL    HW154622   3.446   0.654   6.976
17616SOL    HW254623   3.419   0.660   7.125
17617SOL     OW54624   6.312   4.980   9.016
17617SOL    HW154625   6.396   5.025   9.008
17617SOL    HW254626   6.296   4.944   8.928
17618SOL     OW54627  11.476   8.176  13.880
17618SOL    HW154628  11.524   8.210  13.955
17618SOL    HW254629  11.414   8.245  13.857
17619SOL     OW54630   4.317  13.013  13.234
17619SOL    HW154631   4.392  12.989  13.289
17619SOL    HW254632   4.345  13.094  13.189
17620SOL     OW54633  10.019  12.740   8.524
17620SOL    HW154634   9.995  12.658   8.567
17620SOL    HW254635  10.003  12.724   8.431
17621SOL     OW54636  11.576   9.730   3.029
17621SOL    HW154637  11.493   9.689   3.007
17621SOL    HW254638  11.558   9.824   3.029
17622SOL     OW54639  14.303   2.461  12.776
17622SOL    HW154640  14.282   2.437  12.686
17622SOL    HW254641  14.380   2.517  12.768
17623SOL     OW54642   6.312   9.136  13.310
17623SOL    HW154643   6.356   9.144  13.226
17623SOL    HW254644   6.348   9.207  13.363
17624SOL     OW54645  10.842  10.637   1.619
17624SOL    HW154646  10.748  10.655   1.631
17624SOL    HW254647  10.881  10.654   1.705
17625SOL     OW54648   5.890   0.240  12.709
17625SOL    HW154649   5.861   0.271  12.623
17625SOL    HW254650   5.810   0.237  12.762
17626SOL     OW54651  12.038  11.650  10.575
17626SOL    HW154652  12.133  11.641  10.570
17626SOL    HW254653  12.014  11.699  10.497
17627SOL     OW54654   4.529  14.024   4.286
17627SOL    HW154655   4.594  13.966   4.246
17627SOL    HW254656   4.581  14.095   4.323
17628SOL     OW54657   9.226   0.973   5.325
17628SOL    HW154658   9.264   1.023   5.398
17628SOL    HW254659   9.137   0.953   5.354
17629SOL     OW54660   6.071  12.635   0.405
17629SOL    HW154661   5.990  12.586   0.421
17629SOL    HW254662   6.065  12.661   0.313
17630SOL     OW54663  11.170   4.078  13.424
17630SOL    HW154664  11.203   4.045  13.507
17630SOL    HW254665  11.177   4.004  13.364
17631SOL     OW54666  12.715  14.733   8.553
17631SOL    HW154667  12.726  14.743   8.647
17631SOL    HW254668  12.623  14.710   8.542
17632SOL     OW54669  10.953   9.219   6.842
17632SOL    HW154670  10.992   9.300   6.809
17632SOL    HW254671  10.922   9.241   6.930
17633SOL     OW54672   0.659   0.602   5.747
17633SOL    HW154673   0.671   0.515   5.785
17633SOL    HW254674   0.727   0.608   5.679
17634SOL     OW54675   1.039   6.590   9.257
17634SOL    HW154676   0.973   6.607   9.190
17634SOL    HW254677   1.122   6.609   9.213
17635SOL     OW54678   0.688  12.273   8.992
17635SOL    HW154679   0.712  12.186   9.023
17635SOL    HW254680   0.669  12.260   8.899
17636SOL     OW54681   2.038   6.287   4.546
17636SOL    HW154682   2.059   6.194   4.536
17636SOL    HW254683   2.099   6.331   4.486
17637SOL     OW54684   9.666  13.583   9.574
17637SOL    HW154685   9.713  13.547   9.498
17637SOL    HW254686   9.736  13.603   9.637
17638SOL     OW54687   0.270   0.542  12.425
17638SOL    HW154688   0.189   0.508  12.387
17638SOL    HW254689   0.340   0.505  12.370
17639SOL     OW54690   3.930  13.455   2.229
17639SOL    HW154691   3.836  13.452   2.213
17639SOL    HW254692   3.956  13.364   2.239
17640SOL     OW54693   3.282   0.281   2.231
17640SOL    HW154694   3.280   0.241   2.318
17640SOL    HW254695   3.374   0.306   2.219
17641SOL     OW54696  11.102  14.197   1.185
17641SOL    HW154697  11.131  14.129   1.125
17641SOL    HW254698  11.027  14.159   1.231
17642SOL     OW54699   6.050  14.669  11.648
17642SOL    HW154700   5.964  14.667  11.691
17642SOL    HW254701   6.073  14.577  11.638
17643SOL     OW54702  12.335   9.998   1.458
17643SOL    HW154703  12.349  10.093   1.455
17643SOL    HW254704  12.279   9.980   1.382
17644SOL     OW54705   0.879  10.874   8.157
17644SOL    HW154706   0.933  10.904   8.230
17644SOL    HW254707   0.793  10.913   8.174
17645SOL     OW54708   7.911   3.453   4.830
17645SOL    HW154709   7.889   3.545   4.846
17645SOL    HW254710   7.982   3.456   4.766
17646SOL     OW54711  12.481  10.012  11.092
17646SOL    HW154712  12.411   9.949  11.084
17646SOL    HW254713  12.529  10.006  11.010
17647SOL     OW54714  11.165  10.387   5.258
17647SOL    HW154715  11.132  10.357   5.173
17647SOL    HW254716  11.202  10.309   5.299
17648SOL     OW54717   7.357   9.616   3.655
17648SOL    HW154718   7.275   9.569   3.638
17648SOL    HW254719   7.373   9.601   3.749
17649SOL     OW54720  13.043   2.616   0.359
17649SOL    HW154721  12.970   2.584   0.306
17649SOL    HW254722  13.048   2.555   0.432
17650SOL     OW54723  14.656  14.368   0.209
17650SOL    HW154724  14.670  14.459   0.237
17650SOL    HW254725  14.577  14.372   0.155
17651SOL     OW54726   6.365  12.739   4.084
17651SOL    HW154727   6.298  12.806   4.067
17651SOL    HW254728   6.447  12.780   4.057
17652SOL     OW54729   2.313  14.686   5.477
17652SOL    HW154730   2.379  14.715   5.541
17652SOL    HW254731   2.363  14.667   5.398
17653SOL     OW54732  13.294   1.207  13.254
17653SOL    HW154733  13.317   1.122  13.291
17653SOL    HW254734  13.375   1.240  13.217
17654SOL     OW54735  14.080  10.606   3.919
17654SOL    HW154736  14.147  10.567   3.974
17654SOL    HW254737  14.036  10.670   3.975
17655SOL     OW54738   0.322   1.628   4.758
17655SOL    HW154739   0.237   1.671   4.769
17655SOL    HW254740   0.384   1.691   4.795
17656SOL     OW54741   3.951   5.332   5.423
17656SOL    HW154742   4.033   5.335   5.473
17656SOL    HW254743   3.883   5.351   5.488
17657SOL     OW54744  14.840  10.982   4.888
17657SOL    HW154745  14.833  10.945   4.976
17657SOL    HW254746   0.031  11.047   4.895
17658SOL     OW54747  12.042   8.133  10.125
17658SOL    HW154748  12.050   8.092  10.039
17658SOL    HW254749  11.965   8.092  10.164
17659SOL     OW54750  14.835  14.337  10.591
17659SOL    HW154751  14.842  14.415  10.535
17659SOL    HW254752  14.803  14.372  10.675
17660SOL     OW54753  13.746   8.677   6.659
17660SOL    HW154754  13.751   8.631   6.742
17660SOL    HW254755  13.806   8.629   6.601
17661SOL     OW54756  12.003  11.117   0.758
17661SOL    HW154757  12.023  11.042   0.814
17661SOL    HW254758  11.909  11.131   0.770
17662SOL     OW54759   5.452   8.905   2.397
17662SOL    HW154760   5.398   8.839   2.353
17662SOL    HW254761   5.429   8.896   2.489
17663SOL     OW54762   5.363   9.595   9.644
17663SOL    HW154763   5.459   9.604   9.645
17663SOL    HW254764   5.347   9.509   9.683
17664SOL     OW54765   0.330   6.666   0.954
17664SOL    HW154766   0.293   6.752   0.972
17664SOL    HW254767   0.254   6.609   0.943
17665SOL     OW54768   6.847   5.386   4.305
17665SOL    HW154769   6.925   5.414   4.257
17665SOL    HW254770   6.842   5.292   4.289
17666SOL     OW54771   9.260   5.084   9.711
17666SOL    HW154772   9.195   5.021   9.742
17666SOL    HW254773   9.338   5.032   9.694
17667SOL     OW54774   8.817   8.726  12.418
17667SOL    HW154775   8.906   8.758  12.435
17667SOL    HW254776   8.762   8.803  12.428
17668SOL     OW54777   6.957   2.857   3.360
17668SOL    HW154778   6.980   2.841   3.451
17668SOL    HW254779   7.041   2.858   3.314
17669SOL     OW54780  13.586   9.978  11.786
17669SOL    HW154781  13.654  10.044  11.799
17669SOL    HW254782  13.517  10.023  11.739
17670SOL     OW54783   1.529   9.388   9.874
17670SOL    HW154784   1.519   9.297   9.901
17670SOL    HW254785   1.523   9.385   9.778
17671SOL     OW54786   3.105  10.014   0.634
17671SOL    HW154787   3.147  10.084   0.583
17671SOL    HW254788   3.074   9.952   0.568
17672SOL     OW54789   7.311   8.840   4.440
17672SOL    HW154790   7.395   8.808   4.408
17672SOL    HW254791   7.246   8.783   4.397
17673SOL     OW54792   6.204   0.995   1.494
17673SOL    HW154793   6.199   1.067   1.430
17673SOL    HW254794   6.276   1.020   1.552
17674SOL     OW54795   4.945  10.714   4.986
17674SOL    HW154796   5.012  10.653   5.016
17674SOL    HW254797   4.969  10.735   4.896
17675SOL     OW54798  13.569  12.194  11.483
17675SOL    HW154799  13.520  12.154  11.554
17675SOL    HW254800  13.532  12.155  11.403
17676SOL     OW54801   2.656  12.413   1.795
17676SOL    HW154802   2.614  12.419   1.881
17676SOL    HW254803   2.636  12.325   1.764
17677SOL     OW54804  10.910   7.774   8.621
17677SOL    HW154805  10.971   7.827   8.569
17677SOL    HW254806  10.887   7.701   8.565
17678SOL     OW54807  12.630   9.353   2.182
17678SOL    HW154808  12.631   9.377   2.089
17678SOL    HW254809  12.687   9.276   2.187
17679SOL     OW54810   7.849   7.326   2.161
17679SOL    HW154811   7.784   7.372   2.214
17679SOL    HW254812   7.871   7.387   2.091
17680SOL     OW54813  14.706  13.163   5.405
17680SOL    HW154814  14.786  13.146   5.455
17680SOL    HW254815  14.737  13.183   5.317
17681SOL     OW54816   3.843   4.020   2.171
17681SOL    HW154817   3.888   4.026   2.087
17681SOL    HW254818   3.787   3.942   2.162
17682SOL     OW54819  12.297   0.502  12.982
17682SOL    HW154820  12.230   0.563  12.951
17682SOL    HW254821  12.352   0.486  12.905
17683SOL     OW54822   3.358  13.657   9.281
17683SOL    HW154823   3.341  13.600   9.357
17683SOL    HW254824   3.294  13.727   9.290
17684SOL     OW54825   0.409  12.101   8.560
17684SOL    HW154826   0.415  12.164   8.489
17684SOL    HW254827   0.337  12.133   8.615
17685SOL     OW54828  12.589  13.436  14.333
17685SOL    HW154829  12.613  13.458  14.242
17685SOL    HW254830  12.672  13.417  14.375
17686SOL     OW54831   4.565   8.363   6.845
17686SOL    HW154832   4.600   8.399   6.926
17686SOL    HW254833   4.473   8.392   6.844
17687SOL     OW54834   7.372   9.594   8.475
17687SOL    HW154835   7.460   9.629   8.463
17687SOL    HW254836   7.372   9.511   8.426
17688SOL     OW54837   8.292  14.868  14.795
17688SOL    HW154838   8.356   0.040  14.744
17688SOL    HW254839   8.299  14.778  14.761
17689SOL     OW54840  12.760   8.943   9.145
17689SOL    HW154841  12.757   8.856   9.105
17689SOL    HW254842  12.704   8.996   9.088
17690SOL     OW54843   6.894   6.968   2.046
17690SOL    HW154844   6.849   7.031   2.102
17690SOL    HW254845   6.983   7.002   2.039
17691SOL     OW54846   4.909   2.489   0.337
17691SOL    HW154847   4.907   2.556   0.406
17691SOL    HW254848   4.946   2.412   0.381
17692SOL     OW54849   2.660  13.915   6.026
17692SOL    HW154850   2.736  13.869   5.992
17692SOL    HW254851   2.696  13.994   6.066
17693SOL     OW54852  11.845   9.788   5.324
17693SOL    HW154853  11.894   9.848   5.268
17693SOL    HW254854  11.838   9.707   5.272
17694SOL     OW54855  12.864   3.717   5.129
17694SOL    HW154856  12.890   3.698   5.039
17694SOL    HW254857  12.814   3.799   5.124
17695SOL     OW54858   1.225   5.317   5.809
17695SOL    HW154859   1.188   5.248   5.754
17695SOL    HW254860   1.173   5.394   5.789
17696SOL     OW54861  13.798   6.574   8.074
17696SOL    HW154862  13.881   6.575   8.025
17696SOL    HW254863  13.731   6.557   8.008
17697SOL     OW54864   2.302   6.642   0.085
17697SOL    HW154865   2.330   6.734   0.083
17697SOL    HW254866   2.275   6.628   0.176
17698SOL     OW54867  11.645  14.156   3.696
17698SOL    HW154868  11.716  14.136   3.757
17698SOL    HW254869  11.670  14.112   3.615
17699SOL     OW54870   8.532   6.709   6.932
17699SOL    HW154871   8.470   6.776   6.903
17699SOL    HW254872   8.534   6.646   6.860
17700SOL     OW54873  13.878   4.180  12.382
17700SOL    HW154874  13.873   4.249  12.447
17700SOL    HW254875  13.788   4.151  12.370
17701SOL     OW54876   9.450  11.729   4.880
17701SOL    HW154877   9.394  11.667   4.834
17701SOL    HW254878   9.471  11.687   4.963
17702SOL     OW54879   3.259   6.266   3.959
17702SOL    HW154880   3.342   6.301   3.991
17702SOL    HW254881   3.283   6.209   3.887
17703SOL     OW54882   4.549   5.348   7.372
17703SOL    HW154883   4.488   5.339   7.446
17703SOL    HW254884   4.633   5.317   7.407
17704SOL     OW54885   1.463   4.556  11.343
17704SOL    HW154886   1.390   4.516  11.391
17704SOL    HW254887   1.428   4.640  11.314
17705SOL     OW54888   9.024   4.499  12.882
17705SOL    HW154889   9.058   4.501  12.972
17705SOL    HW254890   9.049   4.413  12.849
17706SOL     OW54891  13.505  13.921   9.724
17706SOL    HW154892  13.548  13.846   9.765
17706SOL    HW254893  13.499  13.898   9.631
17707SOL     OW54894   2.113   8.750   5.838
17707SOL    HW154895   2.098   8.682   5.904
17707SOL    HW254896   2.198   8.729   5.800
17708SOL     OW54897  10.213   7.079   2.911
17708SOL    HW154898  10.208   7.172   2.890
17708SOL    HW254899  10.307   7.061   2.920
17709SOL     OW54900   2.119   0.163   8.622
17709SOL    HW154901   2.049   0.099   8.635
17709SOL    HW254902   2.102   0.200   8.535
17710SOL     OW54903  13.848  13.741   2.478
17710SOL    HW154904  13.894  13.686   2.542
17710SOL    HW254905  13.893  13.723   2.395
17711SOL     OW54906   3.083   3.521   2.881
17711SOL    HW154907   3.081   3.460   2.955
17711SOL    HW254908   3.009   3.496   2.826
17712SOL     OW54909   3.208  11.865   0.896
17712SOL    HW154910   3.196  11.916   0.976
17712SOL    HW254911   3.267  11.918   0.842
17713SOL     OW54912   9.843  10.255   3.453
17713SOL    HW154913   9.817  10.247   3.361
17713SOL    HW254914   9.853  10.165   3.483
17714SOL     OW54915   8.364  14.223   7.826
17714SOL    HW154916   8.399  14.293   7.771
17714SOL    HW254917   8.430  14.211   7.895
17715SOL     OW54918   0.195  12.687  12.198
17715SOL    HW154919   0.185  12.665  12.105
17715SOL    HW254920   0.113  12.658  12.238
17716SOL     OW54921  12.507   4.727   2.397
17716SOL    HW154922  12.416   4.721   2.365
17716SOL    HW254923  12.558   4.748   2.319
17717SOL     OW54924   0.765  11.288  11.967
17717SOL    HW154925   0.800  11.372  11.995
17717SOL    HW254926   0.674  11.305  11.943
17718SOL     OW54927  14.801  13.538  14.158
17718SOL    HW154928  14.726  13.561  14.103
17718SOL    HW254929  14.765  13.480  14.225
17719SOL     OW54930   3.742  12.518   7.478
17719SOL    HW154931   3.782  12.433   7.498
17719SOL    HW254932   3.712  12.550   7.563
17720SOL     OW54933   0.351   1.537  11.580
17720SOL    HW154934   0.383   1.553  11.491
17720SOL    HW254935   0.429   1.541  11.635
17721SOL     OW54936   7.566   3.521   5.818
17721SOL    HW154937   7.545   3.550   5.730
17721SOL    HW254938   7.489   3.543   5.870
17722SOL     OW54939   9.286   6.421   3.735
17722SOL    HW154940   9.316   6.391   3.649
17722SOL    HW254941   9.314   6.512   3.740
17723SOL     OW54942   1.766   4.867   4.932
17723SOL    HW154943   1.785   4.874   5.026
17723SOL    HW254944   1.718   4.946   4.911
17724SOL     OW54945   1.331  12.035   7.815
17724SOL    HW154946   1.253  12.040   7.761
17724SOL    HW254947   1.300  12.048   7.904
17725SOL     OW54948  13.069   1.671   7.099
17725SOL    HW154949  13.004   1.643   7.163
17725SOL    HW254950  13.044   1.625   7.018
17726SOL     OW54951   3.071   1.112   4.821
17726SOL    HW154952   3.087   1.027   4.778
17726SOL    HW254953   2.983   1.104   4.857
17727SOL     OW54954   9.925   1.554   0.037
17727SOL    HW154955   9.902   1.496   0.109
17727SOL    HW254956   9.876   1.519  14.840
17728SOL     OW54957   0.053   1.847   4.417
17728SOL    HW154958   0.040   1.780   4.483
17728SOL    HW254959   0.147   1.849   4.402
17729SOL     OW54960   0.088   6.116   9.487
17729SOL    HW154961   0.151   6.165   9.435
17729SOL    HW254962   0.103   6.145   9.577
17730SOL     OW54963   7.409   4.975   4.565
17730SOL    HW154964   7.328   5.019   4.593
17730SOL    HW254965   7.474   5.046   4.562
17731SOL     OW54966  10.268   6.326  12.100
17731SOL    HW154967  10.240   6.236  12.083
17731SOL    HW254968  10.338   6.342  12.037
17732SOL     OW54969  14.449  14.187   8.390
17732SOL    HW154970  14.487  14.272   8.367
17732SOL    HW254971  14.358  14.194   8.363
17733SOL     OW54972   8.716   1.517   6.829
17733SOL    HW154973   8.770   1.582   6.784
17733SOL    HW254974   8.653   1.489   6.763
17734SOL     OW54975   1.833  10.078   6.180
17734SOL    HW154976   1.769  10.147   6.165
17734SOL    HW254977   1.819  10.051   6.271
17735SOL     OW54978   5.474  10.446  10.796
17735SOL    HW154979   5.405  10.411  10.852
17735SOL    HW254980   5.555  10.407  10.831
17736SOL     OW54981  10.101   6.488   3.508
17736SOL    HW154982  10.036   6.501   3.439
17736SOL    HW254983  10.103   6.572   3.556
17737SOL     OW54984   9.472   9.456   3.093
17737SOL    HW154985   9.384   9.418   3.082
17737SOL    HW254986   9.528   9.402   3.038
17738SOL     OW54987   6.027  11.088   0.968
17738SOL    HW154988   6.047  11.171   1.010
17738SOL    HW254989   6.068  11.094   0.882
17739SOL     OW54990  14.692  11.940   6.188
17739SOL    HW154991  14.634  11.987   6.129
17739SOL    HW254992  14.706  11.999   6.262
17740SOL     OW54993   6.406   0.434  14.140
17740SOL    HW154994   6.381   0.493  14.211
17740SOL    HW254995   6.323   0.407  14.101
17741SOL     OW54996   9.547  10.751   0.561
17741SOL    HW154997   9.596  10.694   0.502
17741SOL    HW254998   9.525  10.695   0.635
17742SOL     OW54999   7.761   5.650  13.173
17742SOL    HW155000   7.677   5.610  13.195
17742SOL    HW255001   7.814   5.639  13.252
17743SOL     OW55002   9.523   2.852   1.959
17743SOL    HW155003   9.444   2.866   1.906
17743SOL    HW255004   9.549   2.940   1.986
17744SOL     OW55005  11.441   8.877   5.734
17744SOL    HW155006  11.370   8.934   5.765
17744SOL    HW255007  11.396   8.798   5.704
17745SOL     OW55008   8.128  11.902   6.807
17745SOL    HW155009   8.067  11.967   6.841
17745SOL    HW255010   8.195  11.895   6.876
17746SOL     OW55011   0.674   2.259   6.246
17746SOL    HW155012   0.668   2.189   6.311
17746SOL    HW255013   0.736   2.321   6.283
17747SOL     OW55014  10.713   8.537  13.727
17747SOL    HW155015  10.675   8.462  13.773
17747SOL    HW255016  10.642   8.570  13.673
17748SOL     OW55017   5.954   5.243   2.648
17748SOL    HW155018   5.983   5.152   2.653
17748SOL    HW255019   5.892   5.253   2.720
17749SOL     OW55020   0.173   5.759   0.816
17749SOL    HW155021   0.231   5.749   0.741
17749SOL    HW255022   0.112   5.685   0.809
17750SOL     OW55023   4.821   4.026   5.844
17750SOL    HW155024   4.751   4.015   5.908
17750SOL    HW255025   4.882   4.087   5.885
17751SOL     OW55026  13.578  13.063   7.189
17751SOL    HW155027  13.534  13.118   7.254
17751SOL    HW255028  13.620  12.994   7.241
17752SOL     OW55029   5.604  12.107  14.359
17752SOL    HW155030   5.657  12.151  14.293
17752SOL    HW255031   5.635  12.142  14.442
17753SOL     OW55032   6.960  11.782  12.719
17753SOL    HW155033   6.934  11.691  12.705
17753SOL    HW255034   6.920  11.806  12.802
17754SOL     OW55035  12.883   8.450  12.708
17754SOL    HW155036  12.972   8.459  12.744
17754SOL    HW255037  12.834   8.522  12.748
17755SOL     OW55038   6.015   0.215  13.720
17755SOL    HW155039   6.104   0.184  13.738
17755SOL    HW255040   6.027   0.289  13.661
17756SOL     OW55041   4.908   9.376   8.626
17756SOL    HW155042   4.922   9.424   8.545
17756SOL    HW255043   4.844   9.308   8.603
17757SOL     OW55044   2.158   5.092   8.691
17757SOL    HW155045   2.116   5.159   8.744
17757SOL    HW255046   2.245   5.127   8.672
17758SOL     OW55047   6.712  11.249   1.216
17758SOL    HW155048   6.676  11.313   1.154
17758SOL    HW255049   6.641  11.233   1.278
17759SOL     OW55050  11.243   0.058   6.893
17759SOL    HW155051  11.210   0.059   6.803
17759SOL    HW255052  11.221  14.849   6.926
17760SOL     OW55053   4.380  13.675  12.908
17760SOL    HW155054   4.361  13.682  13.001
17760SOL    HW255055   4.306  13.718  12.865
17761SOL     OW55056   7.334   5.012  11.860
17761SOL    HW155057   7.336   5.072  11.786
17761SOL    HW255058   7.312   4.927  11.822
17762SOL     OW55059  12.664   8.079  14.163
17762SOL    HW155060  12.688   7.992  14.131
17762SOL    HW255061  12.733   8.137  14.132
17763SOL     OW55062  10.033   5.265   9.828
17763SOL    HW155063   9.952   5.271   9.777
17763SOL    HW255064  10.005   5.284   9.918
17764SOL     OW55065   6.763  13.040  14.327
17764SOL    HW155066   6.709  12.967  14.296
17764SOL    HW255067   6.852  13.004  14.333
17765SOL     OW55068   0.573   7.949   6.911
17765SOL    HW155069   0.520   7.888   6.963
17765SOL    HW255070   0.551   8.035   6.945
17766SOL     OW55071   0.003   5.849   7.551
17766SOL    HW155072   0.053   5.915   7.503
17766SOL    HW255073   0.032   5.858   7.642
17767SOL     OW55074   7.092  12.129  12.828
17767SOL    HW155075   7.076  12.062  12.893
17767SOL    HW255076   7.036  12.202  12.854
17768SOL     OW55077   7.485  10.943   2.487
17768SOL    HW155078   7.431  10.878   2.442
17768SOL    HW255079   7.524  10.896   2.561
17769SOL     OW55080   8.682   1.804   3.826
17769SOL    HW155081   8.610   1.840   3.878
17769SOL    HW255082   8.757   1.805   3.886
17770SOL     OW55083  12.146   8.737   2.039
17770SOL    HW155084  12.229   8.727   2.086
17770SOL    HW255085  12.155   8.820   1.992
17771SOL     OW55086   0.476   1.886  11.328
17771SOL    HW155087   0.487   1.852  11.417
17771SOL    HW255088   0.544   1.842  11.277
17772SOL     OW55089   3.489  11.138   6.998
17772SOL    HW155090   3.585  11.141   7.008
17772SOL    HW255091   3.471  11.206   6.932
17773SOL     OW55092  14.165  10.539  14.077
17773SOL    HW155093  14.203  10.515  14.161
17773SOL    HW255094  14.165  10.457  14.027
17774SOL     OW55095   2.408   0.299   5.850
17774SOL    HW155096   2.364   0.308   5.765
17774SOL    HW255097   2.477   0.366   5.847
17775SOL     OW55098   6.862   7.469   8.748
17775SOL    HW155099   6.876   7.555   8.789
17775SOL    HW255100   6.904   7.477   8.662
17776SOL     OW55101  11.189   0.013   9.751
17776SOL    HW155102  11.117  14.834   9.777
17776SOL    HW255103  11.215  14.858   9.664
17777SOL     OW55104   5.346  13.144   8.972
17777SOL    HW155105   5.363  13.162   8.880
17777SOL    HW255106   5.428  13.167   9.017
17778SOL     OW55107   2.716   1.808   9.663
17778SOL    HW155108   2.670   1.772   9.588
17778SOL    HW255109   2.806   1.818   9.634
17779SOL     OW55110   2.930   6.989   5.381
17779SOL    HW155111   2.858   7.051   5.385
17779SOL    HW255112   2.930   6.947   5.467
17780SOL     OW55113   7.987   6.839   1.086
17780SOL    HW155114   7.894   6.850   1.064
17780SOL    HW255115   8.017   6.928   1.107
17781SOL     OW55116   4.846  11.664   5.630
17781SOL    HW155117   4.799  11.623   5.557
17781SOL    HW255118   4.778  11.677   5.697
17782SOL     OW55119  10.530   8.772  10.387
17782SOL    HW155120  10.550   8.849  10.334
17782SOL    HW255121  10.512   8.702  10.323
17783SOL     OW55122  13.804   1.744   7.882
17783SOL    HW155123  13.786   1.700   7.799
17783SOL    HW255124  13.785   1.836   7.865
17784SOL     OW55125   7.315  11.158   1.678
17784SOL    HW155126   7.382  11.108   1.724
17784SOL    HW255127   7.249  11.092   1.653
17785SOL     OW55128  10.927  10.240   9.307
17785SOL    HW155129  11.013  10.199   9.315
17785SOL    HW255130  10.877  10.208   9.382
17786SOL     OW55131  12.820   6.397   7.566
17786SOL    HW155132  12.905   6.370   7.530
17786SOL    HW255133  12.829   6.383   7.660
17787SOL     OW55134  10.560  11.514  12.614
17787SOL    HW155135  10.613  11.549  12.543
17787SOL    HW255136  10.533  11.427  12.584
17788SOL     OW55137   3.704   4.861   2.050
17788SOL    HW155138   3.744   4.802   2.115
17788SOL    HW255139   3.690   4.805   1.973
17789SOL     OW55140   6.969   7.889  13.057
17789SOL    HW155141   7.049   7.935  13.082
17789SOL    HW255142   6.943   7.928  12.974
17790SOL     OW55143   6.954  10.067   3.726
17790SOL    HW155144   6.918  10.118   3.798
17790SOL    HW255145   7.048  10.061   3.746
17791SOL     OW55146   4.382   4.450  10.799
17791SOL    HW155147   4.474   4.468  10.816
17791SOL    HW255148   4.380   4.420  10.708
17792SOL     OW55149  11.014   0.076   0.191
17792SOL    HW155150  11.027   0.086   0.285
17792SOL    HW255151  11.101   0.090   0.153
17793SOL     OW55152   4.022   4.682   2.773
17793SOL    HW155153   4.046   4.750   2.837
17793SOL    HW255154   4.007   4.604   2.826
17794SOL     OW55155   4.268  13.280   0.215
17794SOL    HW155156   4.197  13.237   0.263
17794SOL    HW255157   4.343  13.222   0.225
17795SOL     OW55158  11.891   5.775  12.433
17795SOL    HW155159  11.925   5.834  12.365
17795SOL    HW255160  11.844   5.707  12.385
17796SOL     OW55161  13.034   8.105   4.374
17796SOL    HW155162  13.096   8.074   4.307
17796SOL    HW255163  13.090   8.130   4.448
17797SOL     OW55164   2.849  12.994  11.612
17797SOL    HW155165   2.880  12.966  11.698
17797SOL    HW255166   2.821  13.085  11.625
17798SOL     OW55167  13.663   3.043   5.929
17798SOL    HW155168  13.757   3.058   5.942
17798SOL    HW255169  13.654   2.948   5.927
17799SOL     OW55170   4.911   9.318   8.882
17799SOL    HW155171   4.931   9.224   8.878
17799SOL    HW255172   4.924   9.349   8.792
17800SOL     OW55173   7.635   4.294  12.332
17800SOL    HW155174   7.552   4.329  12.301
17800SOL    HW255175   7.679   4.262  12.253
17801SOL     OW55176   7.496   0.260  11.696
17801SOL    HW155177   7.591   0.272  11.699
17801SOL    HW255178   7.480   0.183  11.750
17802SOL     OW55179   8.677  14.861   9.982
17802SOL    HW155180   8.712  14.870  10.071
17802SOL    HW255181   8.612  14.791   9.988
17803SOL     OW55182  14.199   9.301  10.446
17803SOL    HW155183  14.158   9.230  10.497
17803SOL    HW255184  14.141   9.376  10.460
17804SOL     OW55185   8.687  11.170  12.363
17804SOL    HW155186   8.713  11.100  12.303
17804SOL    HW255187   8.592  11.161  12.371
17805SOL     OW55188   9.800   0.941  10.210
17805SOL    HW155189   9.835   1.027  10.236
17805SOL    HW255190   9.763   0.905  10.290
17806SOL     OW55191  10.870  13.029   5.024
17806SOL    HW155192  10.818  13.096   5.069
17806SOL    HW255193  10.837  13.028   4.935
17807SOL     OW55194   6.067   6.734   7.978
17807SOL    HW155195   6.147   6.751   7.929
17807SOL    HW255196   6.096   6.688   8.056
17808SOL     OW55197  14.093  13.858   4.256
17808SOL    HW155198  14.041  13.833   4.180
17808SOL    HW255199  14.044  13.930   4.296
17809SOL     OW55200   7.301   4.936   5.659
17809SOL    HW155201   7.319   4.869   5.593
17809SOL    HW255202   7.233   4.991   5.619
17810SOL     OW55203   6.034  13.016   1.972
17810SOL    HW155204   6.113  13.046   2.017
17810SOL    HW255205   6.066  12.967   1.897
17811SOL     OW55206   2.615  12.849   0.658
17811SOL    HW155207   2.558  12.830   0.583
17811SOL    HW255208   2.616  12.944   0.664
17812SOL     OW55209  11.097   5.458   3.442
17812SOL    HW155210  11.174   5.406   3.465
17812SOL    HW255211  11.089   5.447   3.347
17813SOL     OW55212   6.610   4.340   9.386
17813SOL    HW155213   6.544   4.395   9.345
17813SOL    HW255214   6.688   4.395   9.389
17814SOL     OW55215   3.522   2.387  12.704
17814SOL    HW155216   3.427   2.391  12.697
17814SOL    HW255217   3.551   2.477  12.687
17815SOL     OW55218  10.173   4.955   9.655
17815SOL    HW155219  10.087   4.967   9.616
17815SOL    HW255220  10.157   4.908   9.737
17816SOL     OW55221   4.362  14.129  13.200
17816SOL    HW155222   4.417  14.054  13.180
17816SOL    HW255223   4.317  14.149  13.118
17817SOL     OW55224   2.767   1.256  11.536
17817SOL    HW155225   2.759   1.223  11.447
17817SOL    HW255226   2.858   1.238  11.560
17818SOL     OW55227   1.286   5.639   5.273
17818SOL    HW155228   1.264   5.732   5.275
17818SOL    HW255229   1.209   5.596   5.312
17819SOL     OW55230   3.546  11.585   4.742
17819SOL    HW155231   3.530  11.500   4.782
17819SOL    HW255232   3.608  11.628   4.801
17820SOL     OW55233   8.182  10.856   2.272
17820SOL    HW155234   8.206  10.777   2.321
17820SOL    HW255235   8.106  10.829   2.219
17821SOL     OW55236   7.673   0.970  11.338
17821SOL    HW155237   7.687   1.061  11.361
17821SOL    HW255238   7.760   0.936  11.318
17822SOL     OW55239   5.239   1.153   3.932
17822SOL    HW155240   5.308   1.135   3.996
17822SOL    HW255241   5.157   1.135   3.979
17823SOL     OW55242  12.439  13.105   4.795
17823SOL    HW155243  12.423  13.124   4.887
17823SOL    HW255244  12.461  13.189   4.756
17824SOL     OW55245  14.065   5.981  12.713
17824SOL    HW155246  14.019   5.906  12.750
17824SOL    HW255247  14.042   6.055  12.769
17825SOL     OW55248   8.505  13.428   2.742
17825SOL    HW155249   8.436  13.457   2.802
17825SOL    HW255250   8.464  13.426   2.656
17826SOL     OW55251  12.912   4.792  13.666
17826SOL    HW155252  13.004   4.789  13.691
17826SOL    HW255253  12.911   4.764  13.574
17827SOL     OW55254  10.170  11.676   9.648
17827SOL    HW155255  10.099  11.618   9.674
17827SOL    HW255256  10.230  11.675   9.722
17828SOL     OW55257  11.759   6.580   5.744
17828SOL    HW155258  11.810   6.503   5.719
17828SOL    HW255259  11.772   6.588   5.838
17829SOL     OW55260   9.020   6.771   1.047
17829SOL    HW155261   8.959   6.717   0.996
17829SOL    HW255262   8.979   6.857   1.050
17830SOL     OW55263  13.546   5.255   6.053
17830SOL    HW155264  13.506   5.338   6.076
17830SOL    HW255265  13.639   5.274   6.042
17831SOL     OW55266   2.338  10.405   8.060
17831SOL    HW155267   2.293  10.377   8.140
17831SOL    HW255268   2.281  10.374   7.989
17832SOL     OW55269   5.407   4.039   0.320
17832SOL    HW155270   5.380   4.091   0.395
17832SOL    HW255271   5.393   3.948   0.347
17833SOL     OW55272   7.482   1.556  12.000
17833SOL    HW155273   7.400   1.575  11.954
17833SOL    HW255274   7.550   1.567  11.933
17834SOL     OW55275   8.391   7.200   3.959
17834SOL    HW155276   8.409   7.111   3.988
17834SOL    HW255277   8.450   7.255   4.010
17835SOL     OW55278   0.594  10.217   6.401
17835SOL    HW155279   0.528  10.172   6.348
17835SOL    HW255280   0.545  10.264   6.467
17836SOL     OW55281   9.632  12.881  10.408
17836SOL    HW155282   9.648  12.853  10.498
17836SOL    HW255283   9.659  12.807  10.354
17837SOL     OW55284  11.113  11.623  11.352
17837SOL    HW155285  11.184  11.599  11.412
17837SOL    HW255286  11.153  11.619  11.265
17838SOL     OW55287  10.247  13.988   5.414
17838SOL    HW155288  10.258  13.988   5.509
17838SOL    HW255289  10.160  13.952   5.400
17839SOL     OW55290   2.419   9.267   0.237
17839SOL    HW155291   2.419   9.172   0.252
17839SOL    HW255292   2.486   9.300   0.297
17840SOL     OW55293   1.983   1.851   9.161
17840SOL    HW155294   1.890   1.862   9.142
17840SOL    HW255295   2.024   1.929   9.124
17841SOL     OW55296   3.337  11.900   8.696
17841SOL    HW155297   3.389  11.973   8.662
17841SOL    HW255298   3.326  11.842   8.620
17842SOL     OW55299  13.511   1.865   8.413
17842SOL    HW155300  13.542   1.846   8.325
17842SOL    HW255301  13.426   1.908   8.400
17843SOL     OW55302  13.193   9.231  14.432
17843SOL    HW155303  13.213   9.146  14.471
17843SOL    HW255304  13.135   9.273  14.496
17844SOL     OW55305   5.593   9.853  11.334
17844SOL    HW155306   5.548   9.777  11.371
17844SOL    HW255307   5.523   9.915  11.314
17845SOL     OW55308   0.157  13.706  14.715
17845SOL    HW155309   0.077  13.674  14.758
17845SOL    HW255310   0.194  13.768  14.778
17846SOL     OW55311   6.941  13.396   7.990
17846SOL    HW155312   6.899  13.313   8.010
17846SOL    HW255313   6.997  13.377   7.915
17847SOL     OW55314  12.096   4.963   4.612
17847SOL    HW155315  12.089   4.878   4.656
17847SOL    HW255316  12.008   5.001   4.621
17848SOL     OW55317   5.071   6.476  13.882
17848SOL    HW155318   4.986   6.520  13.892
17848SOL    HW255319   5.132   6.547  13.860
17849SOL     OW55320  13.824   1.682   3.854
17849SOL    HW155321  13.782   1.675   3.940
17849SOL    HW255322  13.872   1.765   3.857
17850SOL     OW55323  13.491   9.154  13.457
17850SOL    HW155324  13.424   9.212  13.493
17850SOL    HW255325  13.564   9.161  13.518
17851SOL     OW55326   8.427   9.088   2.157
17851SOL    HW155327   8.388   9.062   2.240
17851SOL    HW255328   8.353   9.103   2.098
17852SOL     OW55329   5.240  12.969  10.334
17852SOL    HW155330   5.333  12.984  10.354
17852SOL    HW255331   5.213  12.904  10.399
17853SOL     OW55332  11.943   0.707   3.424
17853SOL    HW155333  11.940   0.673   3.334
17853SOL    HW255334  11.912   0.635   3.478
17854SOL     OW55335   9.801   6.638  13.637
17854SOL    HW155336   9.743   6.584  13.691
17854SOL    HW255337   9.870   6.667  13.697
17855SOL     OW55338   8.218  13.399  10.761
17855SOL    HW155339   8.305  13.399  10.801
17855SOL    HW255340   8.191  13.491  10.761
17856SOL     OW55341   4.922   7.892  10.102
17856SOL    HW155342   4.914   7.982  10.136
17856SOL    HW255343   5.013   7.869  10.118
17857SOL     OW55344  14.752   6.320   7.754
17857SOL    HW155345  14.663   6.287   7.763
17857SOL    HW255346  14.806   6.258   7.803
17858SOL     OW55347   3.590   2.255  10.519
17858SOL    HW155348   3.650   2.198  10.567
17858SOL    HW255349   3.627   2.260  10.431
17859SOL     OW55350  10.067   3.814   0.887
17859SOL    HW155351  10.142   3.864   0.856
17859SOL    HW255352  10.018   3.792   0.807
17860SOL     OW55353   8.189  13.565   6.053
17860SOL    HW155354   8.110  13.513   6.066
17860SOL    HW255355   8.248  13.535   6.122
17861SOL     OW55356   6.712   6.365   6.147
17861SOL    HW155357   6.700   6.302   6.076
17861SOL    HW255358   6.776   6.428   6.114
17862SOL     OW55359  14.477  10.266  10.222
17862SOL    HW155360  14.572  10.255  10.218
17862SOL    HW255361  14.454  10.312  10.142
17863SOL     OW55362  11.775  14.794  12.428
17863SOL    HW155363  11.791  14.704  12.397
17863SOL    HW255364  11.837  14.805  12.501
17864SOL     OW55365   7.597   4.916   9.368
17864SOL    HW155366   7.651   4.963   9.433
17864SOL    HW255367   7.646   4.924   9.286
17865SOL     OW55368   0.187   7.410   7.267
17865SOL    HW155369   0.169   7.317   7.283
17865SOL    HW255370   0.206   7.414   7.173
17866SOL     OW55371  12.265  11.060   7.446
17866SOL    HW155372  12.321  11.093   7.516
17866SOL    HW255373  12.211  10.993   7.487
17867SOL     OW55374   3.887   8.500   7.853
17867SOL    HW155375   3.871   8.585   7.812
17867SOL    HW255376   3.838   8.438   7.800
17868SOL     OW55377   6.687   5.165   0.656
17868SOL    HW155378   6.703   5.081   0.698
17868SOL    HW255379   6.768   5.214   0.669
17869SOL     OW55380   1.447   1.283   1.425
17869SOL    HW155381   1.455   1.260   1.332
17869SOL    HW255382   1.371   1.340   1.429
17870SOL     OW55383   8.397   6.304   2.403
17870SOL    HW155384   8.364   6.231   2.455
17870SOL    HW255385   8.353   6.296   2.319
17871SOL     OW55386   9.572   7.658   0.376
17871SOL    HW155387   9.582   7.751   0.396
17871SOL    HW255388   9.493   7.632   0.423
17872SOL     OW55389   0.781   1.297  12.938
17872SOL    HW155390   0.744   1.372  12.891
17872SOL    HW255391   0.757   1.221  12.884
17873SOL     OW55392   1.778   3.883   5.584
17873SOL    HW155393   1.787   3.790   5.605
17873SOL    HW255394   1.700   3.888   5.529
17874SOL     OW55395   6.244  13.692   0.338
17874SOL    HW155396   6.293  13.679   0.420
17874SOL    HW255397   6.155  13.664   0.359
17875SOL     OW55398   2.819   1.541   3.297
17875SOL    HW155399   2.822   1.446   3.301
17875SOL    HW255400   2.728   1.564   3.312
17876SOL     OW55401   5.499   3.691   1.591
17876SOL    HW155402   5.434   3.666   1.525
17876SOL    HW255403   5.557   3.752   1.546
17877SOL     OW55404  12.169   0.370   7.531
17877SOL    HW155405  12.261   0.399   7.526
17877SOL    HW255406  12.168   0.304   7.600
17878SOL     OW55407   0.077   2.332  13.033
17878SOL    HW155408   0.157   2.281  13.042
17878SOL    HW255409   0.080   2.396  13.104
17879SOL     OW55410   0.234   0.954   3.149
17879SOL    HW155411   0.202   1.044   3.154
17879SOL    HW255412   0.297   0.947   3.221
17880SOL     OW55413   9.798   5.020  13.096
17880SOL    HW155414   9.805   5.056  13.185
17880SOL    HW255415   9.878   4.970  13.084
17881SOL     OW55416   5.719   5.208  12.325
17881SOL    HW155417   5.813   5.221  12.312
17881SOL    HW255418   5.681   5.296  12.323
17882SOL     OW55419   2.418  14.489   7.532
17882SOL    HW155420   2.475  14.493   7.608
17882SOL    HW255421   2.333  14.518   7.564
17883SOL     OW55422  11.718  13.774   2.665
17883SOL    HW155423  11.800  13.804   2.626
17883SOL    HW255424  11.734  13.682   2.685
17884SOL     OW55425   1.511   6.258   8.604
17884SOL    HW155426   1.556   6.186   8.648
17884SOL    HW255427   1.457   6.298   8.672
17885SOL     OW55428   5.525  11.597   3.134
17885SOL    HW155429   5.621  11.596   3.139
17885SOL    HW255430   5.504  11.514   3.092
17886SOL     OW55431   1.009   4.709   4.783
17886SOL    HW155432   0.941   4.655   4.742
17886SOL    HW255433   1.087   4.653   4.784
17887SOL     OW55434  12.661   7.061   7.510
17887SOL    HW155435  12.678   6.984   7.456
17887SOL    HW255436  12.679   7.136   7.453
17888SOL     OW55437  12.969   8.092  10.249
17888SOL    HW155438  12.895   8.077  10.190
17888SOL    HW255439  13.038   8.035  10.215
17889SOL     OW55440  12.572   1.682   7.316
17889SOL    HW155441  12.513   1.738   7.366
17889SOL    HW255442  12.629   1.642   7.382
17890SOL     OW55443  14.133   6.244  10.985
17890SOL    HW155444  14.124   6.176  11.052
17890SOL    HW255445  14.044   6.254  10.949
17891SOL     OW55446   9.460   0.576  14.611
17891SOL    HW155447   9.462   0.607  14.520
17891SOL    HW255448   9.385   0.621  14.650
17892SOL     OW55449   9.470   4.862   4.712
17892SOL    HW155450   9.549   4.866   4.658
17892SOL    HW255451   9.502   4.845   4.800
17893SOL     OW55452   8.622   7.205   0.494
17893SOL    HW155453   8.637   7.291   0.534
17893SOL    HW255454   8.700   7.155   0.516
17894SOL     OW55455   4.153   8.048   5.135
17894SOL    HW155456   4.174   7.960   5.167
17894SOL    HW255457   4.126   8.034   5.044
17895SOL     OW55458   2.323   2.736   4.808
17895SOL    HW155459   2.294   2.672   4.742
17895SOL    HW255460   2.284   2.819   4.780
17896SOL     OW55461   1.026   5.026  10.750
17896SOL    HW155462   1.042   5.113  10.787
17896SOL    HW255463   1.079   5.025  10.670
17897SOL     OW55464  14.565   3.682  11.861
17897SOL    HW155465  14.526   3.625  11.928
17897SOL    HW255466  14.656   3.654  11.855
17898SOL     OW55467  13.487   2.643  10.869
17898SOL    HW155468  13.537   2.691  10.935
17898SOL    HW255469  13.491   2.699  10.791
17899SOL     OW55470   6.645   7.723  12.011
17899SOL    HW155471   6.707   7.757  12.076
17899SOL    HW255472   6.694   7.725  11.929
17900SOL     OW55473  10.663   4.835   4.915
17900SOL    HW155474  10.663   4.793   5.001
17900SOL    HW255475  10.728   4.785   4.864
17901SOL     OW55476  13.514   0.581   1.334
17901SOL    HW155477  13.497   0.651   1.270
17901SOL    HW255478  13.440   0.521   1.325
17902SOL     OW55479   8.546   8.423  11.275
17902SOL    HW155480   8.471   8.469  11.238
17902SOL    HW255481   8.611   8.491  11.292
17903SOL     OW55482   7.575  11.331  12.654
17903SOL    HW155483   7.508  11.366  12.712
17903SOL    HW255484   7.621  11.408  12.621
17904SOL     OW55485   6.168   9.972   5.583
17904SOL    HW155486   6.258   9.955   5.609
17904SOL    HW255487   6.124   9.997   5.664
17905SOL     OW55488   1.856   4.451  14.854
17905SOL    HW155489   1.904   4.390  14.798
17905SOL    HW255490   1.825   4.519  14.794
17906SOL     OW55491  12.824   9.078   9.638
17906SOL    HW155492  12.780   9.020   9.576
17906SOL    HW255493  12.833   9.161   9.592
17907SOL     OW55494  13.888   2.060  11.785
17907SOL    HW155495  13.848   2.037  11.868
17907SOL    HW255496  13.826   2.119  11.743
17908SOL     OW55497   8.731   6.620   7.385
17908SOL    HW155498   8.730   6.659   7.297
17908SOL    HW255499   8.667   6.671   7.434
17909SOL     OW55500   2.146   3.725  10.016
17909SOL    HW155501   2.120   3.703   9.927
17909SOL    HW255502   2.067   3.760  10.056
17910SOL     OW55503   2.134   3.232  11.024
17910SOL    HW155504   2.224   3.217  10.997
17910SOL    HW255505   2.081   3.177  10.966
17911SOL     OW55506  13.055   0.920   4.483
17911SOL    HW155507  13.119   0.884   4.422
17911SOL    HW255508  13.007   0.985   4.431
17912SOL     OW55509  10.544  11.937   9.102
17912SOL    HW155510  10.551  11.987   9.020
17912SOL    HW255511  10.485  11.865   9.081
17913SOL     OW55512  14.578  11.597   8.911
17913SOL    HW155513  14.594  11.520   8.966
17913SOL    HW255514  14.641  11.662   8.942
17914SOL     OW55515   3.903   5.475  13.235
17914SOL    HW155516   3.952   5.393  13.236
17914SOL    HW255517   3.847   5.469  13.158
17915SOL     OW55518  14.736   1.815  11.677
17915SOL    HW155519  14.773   1.774  11.754
17915SOL    HW255520  14.648   1.841  11.704
17916SOL     OW55521  10.801  11.398   4.196
17916SOL    HW155522  10.788  11.332   4.129
17916SOL    HW255523  10.867  11.360   4.254
17917SOL     OW55524   1.293   7.061   2.371
17917SOL    HW155525   1.267   7.153   2.378
17917SOL    HW255526   1.358   7.048   2.440
17918SOL     OW55527  14.050   9.557  12.845
17918SOL    HW155528  13.957   9.574  12.860
17918SOL    HW255529  14.055   9.462  12.831
17919SOL     OW55530   0.716   4.894   3.828
17919SOL    HW155531   0.756   4.968   3.873
17919SOL    HW255532   0.716   4.919   3.735
17920SOL     OW55533   7.175   7.120   5.649
17920SOL    HW155534   7.238   7.081   5.590
17920SOL    HW255535   7.187   7.215   5.639
17921SOL     OW55536  13.104   4.030  12.211
17921SOL    HW155537  13.029   3.970  12.208
17921SOL    HW255538  13.160   4.001  12.139
17922SOL     OW55539   5.013   0.940  12.355
17922SOL    HW155540   5.087   0.942  12.295
17922SOL    HW255541   5.041   0.882  12.426
17923SOL     OW55542  11.109   1.411   6.525
17923SOL    HW155543  11.038   1.449   6.474
17923SOL    HW255544  11.171   1.483   6.539
17924SOL     OW55545  11.510  14.330   3.288
17924SOL    HW155546  11.556  14.407   3.254
17924SOL    HW255547  11.554  14.256   3.248
17925SOL     OW55548  12.180   3.952   1.764
17925SOL    HW155549  12.109   3.888   1.771
17925SOL    HW255550  12.149   4.014   1.698
17926SOL     OW55551  13.997   3.011   2.315
17926SOL    HW155552  13.960   2.989   2.401
17926SOL    HW255553  13.936   3.075   2.279
17927SOL     OW55554  14.180   7.184   6.503
17927SOL    HW155555  14.098   7.135   6.509
17927SOL    HW255556  14.177   7.243   6.578
17928SOL     OW55557  11.416   6.399   7.600
17928SOL    HW155558  11.443   6.409   7.509
17928SOL    HW255559  11.358   6.323   7.600
17929SOL     OW55560   9.411   1.251   0.104
17929SOL    HW155561   9.485   1.287   0.054
17929SOL    HW255562   9.432   1.158   0.114
17930SOL     OW55563   0.264   5.836   6.916
17930SOL    HW155564   0.202   5.906   6.896
17930SOL    HW255565   0.239   5.806   7.004
17931SOL     OW55566   3.895   1.165  11.788
17931SOL    HW155567   3.902   1.184  11.695
17931SOL    HW255568   3.818   1.109  11.795
17932SOL     OW55569  11.180   1.377   3.100
17932SOL    HW155570  11.153   1.287   3.081
17932SOL    HW255571  11.168   1.423   3.017
17933SOL     OW55572   7.519   9.100   9.332
17933SOL    HW155573   7.462   9.140   9.266
17933SOL    HW255574   7.604   9.142   9.317
17934SOL     OW55575  13.242   8.947  12.014
17934SOL    HW155576  13.271   9.033  12.044
17934SOL    HW255577  13.153   8.938  12.049
17935SOL     OW55578   4.947   9.986   1.109
17935SOL    HW155579   4.952  10.014   1.201
17935SOL    HW255580   5.031   9.942   1.093
17936SOL     OW55581  11.878  12.756   7.851
17936SOL    HW155582  11.940  12.829   7.840
17936SOL    HW255583  11.933  12.678   7.846
17937SOL     OW55584   4.487  10.229   6.214
17937SOL    HW155585   4.543  10.152   6.210
17937SOL    HW255586   4.399  10.196   6.196
17938SOL     OW55587   4.902   1.054   0.046
17938SOL    HW155588   4.826   1.040   0.102
17938SOL    HW255589   4.955   0.975   0.058
17939SOL     OW55590  13.973  11.326   0.592
17939SOL    HW155591  13.905  11.278   0.640
17939SOL    HW255592  13.992  11.272   0.516
17940SOL     OW55593  12.001   9.930  10.873
17940SOL    HW155594  12.026  10.019  10.899
17940SOL    HW255595  11.966   9.941  10.784
17941SOL     OW55596  10.166   5.459  10.718
17941SOL    HW155597  10.256   5.489  10.708
17941SOL    HW255598  10.113   5.522  10.668
17942SOL     OW55599  11.545   7.337   7.163
17942SOL    HW155600  11.467   7.357   7.112
17942SOL    HW255601  11.611   7.313   7.097
17943SOL     OW55602   8.809   3.639   1.879
17943SOL    HW155603   8.874   3.622   1.947
17943SOL    HW255604   8.861   3.665   1.803
17944SOL     OW55605   8.467   1.953   8.875
17944SOL    HW155606   8.480   1.943   8.969
17944SOL    HW255607   8.509   1.876   8.837
17945SOL     OW55608   8.587   7.694  13.732
17945SOL    HW155609   8.646   7.618  13.733
17945SOL    HW255610   8.639   7.763  13.690
17946SOL     OW55611   4.361   5.076   9.845
17946SOL    HW155612   4.300   5.100   9.916
17946SOL    HW255613   4.351   4.982   9.836
17947SOL     OW55614   5.513   3.661   5.618
17947SOL    HW155615   5.474   3.628   5.537
17947SOL    HW255616   5.438   3.694   5.668
17948SOL     OW55617   9.166   5.224   9.494
17948SOL    HW155618   9.199   5.180   9.572
17948SOL    HW255619   9.086   5.176   9.471
17949SOL     OW55620   5.266  13.700   4.391
17949SOL    HW155621   5.340  13.641   4.374
17949SOL    HW255622   5.196  13.668   4.334
17950SOL     OW55623  14.175   2.726  10.644
17950SOL    HW155624  14.214   2.807  10.679
17950SOL    HW255625  14.150   2.676  10.722
17951SOL     OW55626   7.443   0.900   6.500
17951SOL    HW155627   7.393   0.893   6.582
17951SOL    HW255628   7.382   0.943   6.440
17952SOL     OW55629   3.571   1.594  11.867
17952SOL    HW155630   3.589   1.514  11.916
17952SOL    HW255631   3.649   1.648  11.878
17953SOL     OW55632   6.134   7.272   0.445
17953SOL    HW155633   6.163   7.220   0.520
17953SOL    HW255634   6.047   7.304   0.471
17954SOL     OW55635  14.361   7.405  13.823
17954SOL    HW155636  14.332   7.469  13.758
17954SOL    HW255637  14.318   7.324  13.798
17955SOL     OW55638   1.637   9.237   6.514
17955SOL    HW155639   1.643   9.281   6.599
17955SOL    HW255640   1.551   9.194   6.515
17956SOL     OW55641  14.739   2.053   5.426
17956SOL    HW155642  14.818   2.041   5.373
17956SOL    HW255643  14.678   2.099   5.369
17957SOL     OW55644  12.160   3.922   7.676
17957SOL    HW155645  12.153   3.828   7.657
17957SOL    HW255646  12.235   3.928   7.735
17958SOL     OW55647   9.535  13.830   7.283
17958SOL    HW155648   9.458  13.778   7.261
17958SOL    HW255649   9.599  13.809   7.215
17959SOL     OW55650   3.762  11.600   1.686
17959SOL    HW155651   3.772  11.639   1.599
17959SOL    HW255652   3.838  11.543   1.695
17960SOL     OW55653   7.937   9.834  14.073
17960SOL    HW155654   7.894   9.826  14.158
17960SOL    HW255655   7.957   9.744  14.049
17961SOL     OW55656   5.150   4.792   9.972
17961SOL    HW155657   5.123   4.715   9.923
17961SOL    HW255658   5.090   4.797  10.046
17962SOL     OW55659   6.444   6.051  10.806
17962SOL    HW155660   6.410   6.036  10.717
17962SOL    HW255661   6.421   5.972  10.854
17963SOL     OW55662   2.094  14.674   0.367
17963SOL    HW155663   2.031  14.714   0.428
17963SOL    HW255664   2.057  14.689   0.281
17964SOL     OW55665   9.974   2.649   1.762
17964SOL    HW155666   9.895   2.670   1.812
17964SOL    HW255667   9.993   2.558   1.785
17965SOL     OW55668   1.289   0.995  11.960
17965SOL    HW155669   1.307   1.036  11.875
17965SOL    HW255670   1.354   0.926  11.968
17966SOL     OW55671   8.102  12.038   9.304
17966SOL    HW155672   8.128  12.000   9.387
17966SOL    HW255673   8.039  12.106   9.327
17967SOL     OW55674   1.354  13.821   4.609
17967SOL    HW155675   1.363  13.726   4.610
17967SOL    HW255676   1.384  13.848   4.523
17968SOL     OW55677   6.968  12.324   0.245
17968SOL    HW155678   6.930  12.245   0.206
17968SOL    HW255679   6.936  12.323   0.335
17969SOL     OW55680  10.500   0.448  14.075
17969SOL    HW155681  10.555   0.429  14.151
17969SOL    HW255682  10.421   0.487  14.111
17970SOL     OW55683   7.844   3.237   8.749
17970SOL    HW155684   7.806   3.255   8.663
17970SOL    HW255685   7.812   3.149   8.770
17971SOL     OW55686   6.010   4.924  12.978
17971SOL    HW155687   5.977   4.897  12.892
17971SOL    HW255688   5.969   4.864  13.040
17972SOL     OW55689   8.261   8.711   6.750
17972SOL    HW155690   8.255   8.805   6.766
17972SOL    HW255691   8.342   8.700   6.701
17973SOL     OW55692   6.608   1.077   7.866
17973SOL    HW155693   6.604   1.170   7.886
17973SOL    HW255694   6.691   1.067   7.818
17974SOL     OW55695   7.419   8.125   3.136
17974SOL    HW155696   7.486   8.120   3.068
17974SOL    HW255697   7.394   8.034   3.152
17975SOL     OW55698  11.961   3.623   6.924
17975SOL    HW155699  11.888   3.621   6.862
17975SOL    HW255700  11.985   3.716   6.929
17976SOL     OW55701   7.667   2.461   9.830
17976SOL    HW155702   7.659   2.542   9.780
17976SOL    HW255703   7.592   2.408   9.802
17977SOL     OW55704   5.293   3.849   6.216
17977SOL    HW155705   5.332   3.764   6.193
17977SOL    HW255706   5.275   3.843   6.309
17978SOL     OW55707  10.998   1.777   0.307
17978SOL    HW155708  10.985   1.852   0.250
17978SOL    HW255709  11.004   1.702   0.248
17979SOL     OW55710  14.015   0.809   8.073
17979SOL    HW155711  14.002   0.902   8.055
17979SOL    HW255712  13.987   0.798   8.164
17980SOL     OW55713  14.781   2.279  14.061
17980SOL    HW155714  14.754   2.370  14.070
17980SOL    HW255715  14.872   2.283  14.032
17981SOL     OW55716   3.394  11.593   9.197
17981SOL    HW155717   3.479  11.563   9.231
17981SOL    HW255718   3.335  11.587   9.271
17982SOL     OW55719   6.754   3.843  11.232
17982SOL    HW155720   6.828   3.784  11.247
17982SOL    HW255721   6.692   3.791  11.182
17983SOL     OW55722   6.668   3.871  11.912
17983SOL    HW155723   6.728   3.809  11.954
17983SOL    HW255724   6.711   3.956  11.920
17984SOL     OW55725  12.900   2.240  10.750
17984SOL    HW155726  12.994   2.230  10.762
17984SOL    HW255727  12.864   2.153  10.767
17985SOL     OW55728   7.606   8.901  10.561
17985SOL    HW155729   7.644   8.942  10.483
17985SOL    HW255730   7.649   8.816  10.567
17986SOL     OW55731   5.000  13.874  11.833
17986SOL    HW155732   5.044  13.803  11.880
17986SOL    HW255733   5.022  13.860  11.741
17987SOL     OW55734   7.893   5.886  10.012
17987SOL    HW155735   7.898   5.975  10.045
17987SOL    HW255736   7.927   5.832  10.083
17988SOL     OW55737  14.843  11.180   7.460
17988SOL    HW155738  14.869  11.102   7.411
17988SOL    HW255739   0.047  11.225   7.480
17989SOL     OW55740  10.818  14.226   2.990
17989SOL    HW155741  10.870  14.304   3.008
17989SOL    HW255742  10.817  14.218   2.895
17990SOL     OW55743   3.244   1.179  12.803
17990SOL    HW155744   3.335   1.184  12.775
17990SOL    HW255745   3.227   1.265  12.844
17991SOL     OW55746   2.752   8.281   7.052
17991SOL    HW155747   2.665   8.242   7.046
17991SOL    HW255748   2.746   8.340   7.128
17992SOL     OW55749   9.257   2.651  14.856
17992SOL    HW155750   9.315   2.596  14.804
17992SOL    HW255751   9.313   2.687   0.047
17993SOL     OW55752   9.825   9.992   9.004
17993SOL    HW155753   9.766  10.034   8.941
17993SOL    HW255754   9.769   9.932   9.053
17994SOL     OW55755  12.978   6.823   4.858
17994SOL    HW155756  12.980   6.874   4.777
17994SOL    HW255757  13.002   6.735   4.832
17995SOL     OW55758  11.680   1.039   6.139
17995SOL    HW155759  11.659   1.088   6.059
17995SOL    HW255760  11.599   1.038   6.189
17996SOL     OW55761   2.934  11.527   6.144
17996SOL    HW155762   2.913  11.548   6.053
17996SOL    HW255763   2.880  11.450   6.164
17997SOL     OW55764   0.890  10.475   7.381
17997SOL    HW155765   0.795  10.477   7.396
17997SOL    HW255766   0.919  10.564   7.401
17998SOL     OW55767   1.664  10.134   5.846
17998SOL    HW155768   1.658  10.185   5.926
17998SOL    HW255769   1.588  10.076   5.848
17999SOL     OW55770   4.328  14.680   9.739
17999SOL    HW155771   4.415  14.671   9.700
17999SOL    HW255772   4.271  14.701   9.665
18000SOL     OW55773   2.997   6.870   0.891
18000SOL    HW155774   3.028   6.822   0.814
18000SOL    HW255775   2.902   6.856   0.891
18001SOL     OW55776   9.441   4.216   6.500
18001SOL    HW155777   9.486   4.156   6.440
18001SOL    HW255778   9.359   4.172   6.521
18002SOL     OW55779   9.686   0.504   2.635
18002SOL    HW155780   9.768   0.482   2.679
18002SOL    HW255781   9.690   0.456   2.553
18003SOL     OW55782   5.800   6.024   3.801
18003SOL    HW155783   5.853   5.946   3.788
18003SOL    HW255784   5.794   6.034   3.897
18004SOL     OW55785   4.672   5.049   6.389
18004SOL    HW155786   4.716   4.987   6.448
18004SOL    HW255787   4.610   5.096   6.446
18005SOL     OW55788   2.477   7.582  14.871
18005SOL    HW155789   2.522   7.666  14.866
18005SOL    HW255790   2.424   7.588   0.072
18006SOL     OW55791  14.149   2.135   9.048
18006SOL    HW155792  14.149   2.076   8.974
18006SOL    HW255793  14.167   2.222   9.010
18007SOL     OW55794  12.539  13.431   2.043
18007SOL    HW155795  12.511  13.495   2.109
18007SOL    HW255796  12.477  13.442   1.971
18008SOL     OW55797   5.646   4.990   0.302
18008SOL    HW155798   5.583   5.042   0.352
18008SOL    HW255799   5.690   4.936   0.369
18009SOL     OW55800   1.271   3.454   1.541
18009SOL    HW155801   1.322   3.513   1.486
18009SOL    HW255802   1.197   3.428   1.486
18010SOL     OW55803  12.987   1.863   4.748
18010SOL    HW155804  12.986   1.932   4.815
18010SOL    HW255805  12.976   1.910   4.666
18011SOL     OW55806   6.816   6.470   4.122
18011SOL    HW155807   6.765   6.502   4.197
18011SOL    HW255808   6.897   6.438   4.162
18012SOL     OW55809   8.298   2.811  14.522
18012SOL    HW155810   8.295   2.730  14.471
18012SOL    HW255811   8.240   2.795  14.597
18013SOL     OW55812   8.664   2.472  10.651
18013SOL    HW155813   8.670   2.513  10.565
18013SOL    HW255814   8.620   2.537  10.706
18014SOL     OW55815   9.549   1.945   2.670
18014SOL    HW155816   9.478   1.918   2.612
18014SOL    HW255817   9.547   1.882   2.742
18015SOL     OW55818   0.718  10.645   2.013
18015SOL    HW155819   0.639  10.625   1.963
18015SOL    HW255820   0.783  10.670   1.948
18016SOL     OW55821   1.275  13.592   2.611
18016SOL    HW155822   1.270  13.581   2.706
18016SOL    HW255823   1.297  13.505   2.578
18017SOL     OW55824  13.883  10.111   7.531
18017SOL    HW155825  13.943  10.167   7.578
18017SOL    HW255826  13.862  10.160   7.451
18018SOL     OW55827   9.742   1.904   1.893
18018SOL    HW155828   9.799   1.848   1.840
18018SOL    HW255829   9.719   1.850   1.969
18019SOL     OW55830   8.525   3.600   7.167
18019SOL    HW155831   8.577   3.599   7.248
18019SOL    HW255832   8.579   3.646   7.103
18020SOL     OW55833   5.089   9.720   6.639
18020SOL    HW155834   5.122   9.675   6.717
18020SOL    HW255835   5.146   9.796   6.629
18021SOL     OW55836  11.096   2.269  14.646
18021SOL    HW155837  11.189   2.291  14.651
18021SOL    HW255838  11.063   2.323  14.574
18022SOL     OW55839   3.561   4.913   2.916
18022SOL    HW155840   3.561   4.830   2.869
18022SOL    HW255841   3.469   4.939   2.920
18023SOL     OW55842  12.023  11.799   1.918
18023SOL    HW155843  12.023  11.893   1.899
18023SOL    HW255844  12.115  11.778   1.936
18024SOL     OW55845  12.383   4.650  13.187
18024SOL    HW155846  12.389   4.746  13.184
18024SOL    HW255847  12.352   4.625  13.100
18025SOL     OW55848   6.284   0.700   7.561
18025SOL    HW155849   6.362   0.741   7.600
18025SOL    HW255850   6.219   0.770   7.558
18026SOL     OW55851   0.034  12.357  13.969
18026SOL    HW155852   0.107  12.420  13.968
18026SOL    HW255853  14.850  12.391  13.904
18027SOL     OW55854   5.638  13.614   6.692
18027SOL    HW155855   5.685  13.631   6.773
18027SOL    HW255856   5.585  13.693   6.678
18028SOL     OW55857   6.365  14.810   6.801
18028SOL    HW155858   6.395  14.720   6.814
18028SOL    HW255859   6.403  14.836   6.717
18029SOL     OW55860  13.074   4.707   3.106
18029SOL    HW155861  13.039   4.732   3.020
18029SOL    HW255862  13.147   4.648   3.086
18030SOL     OW55863   9.544  13.583  11.920
18030SOL    HW155864   9.483  13.590  11.994
18030SOL    HW255865   9.492  13.609  11.844
18031SOL     OW55866  12.168  13.253   0.157
18031SOL    HW155867  12.200  13.300   0.080
18031SOL    HW255868  12.087  13.297   0.180
18032SOL     OW55869   4.449  14.869  14.426
18032SOL    HW155870   4.371  14.831  14.385
18032SOL    HW255871   4.427  14.876  14.518
18033SOL     OW55872   2.109   0.607  14.487
18033SOL    HW155873   2.016   0.595  14.466
18033SOL    HW255874   2.150   0.630  14.404
18034SOL     OW55875  12.905   6.768  11.571
18034SOL    HW155876  12.848   6.834  11.530
18034SOL    HW255877  12.915   6.700  11.505
18035SOL     OW55878  12.749  10.125  13.775
18035SOL    HW155879  12.809  10.187  13.734
18035SOL    HW255880  12.667  10.134  13.726
18036SOL     OW55881   1.375   4.035   5.483
18036SOL    HW155882   1.423   3.954   5.465
18036SOL    HW255883   1.410   4.098   5.421
18037SOL     OW55884  14.478  11.975  13.512
18037SOL    HW155885  14.409  11.966  13.579
18037SOL    HW255886  14.488  11.888  13.475
18038SOL     OW55887  11.482  12.165   8.930
18038SOL    HW155888  11.416  12.186   8.996
18038SOL    HW255889  11.564  12.198   8.967
18039SOL     OW55890   9.706   2.436   5.962
18039SOL    HW155891   9.712   2.503   6.030
18039SOL    HW255892   9.654   2.477   5.893
18040SOL     OW55893   7.497   8.648  13.506
18040SOL    HW155894   7.428   8.584  13.484
18040SOL    HW255895   7.578   8.605  13.482
18041SOL     OW55896  12.609  12.755   6.702
18041SOL    HW155897  12.618  12.808   6.781
18041SOL    HW255898  12.677  12.789   6.643
18042SOL     OW55899   4.058   1.072  13.665
18042SOL    HW155900   3.989   1.127  13.702
18042SOL    HW255901   4.051   0.989  13.713
18043SOL     OW55902   4.213   0.463  12.088
18043SOL    HW155903   4.268   0.404  12.036
18043SOL    HW255904   4.124   0.440  12.063
18044SOL     OW55905   9.889   4.629   4.924
18044SOL    HW155906   9.881   4.634   5.019
18044SOL    HW255907   9.963   4.570   4.908
18045SOL     OW55908   9.857  10.930   6.113
18045SOL    HW155909   9.939  10.973   6.088
18045SOL    HW255910   9.881  10.874   6.187
18046SOL     OW55911  14.780  10.601   4.844
18046SOL    HW155912  14.783  10.518   4.796
18046SOL    HW255913  14.687  10.624   4.848
18047SOL     OW55914   6.091   0.027  12.708
18047SOL    HW155915   6.176   0.067  12.725
18047SOL    HW255916   6.035   0.100  12.682
18048SOL     OW55917   5.127  13.061   9.617
18048SOL    HW155918   5.133  12.968   9.642
18048SOL    HW255919   5.189  13.105   9.675
18049SOL     OW55920   6.533  12.720   2.359
18049SOL    HW155921   6.589  12.795   2.336
18049SOL    HW255922   6.544  12.659   2.286
18050SOL     OW55923  12.139   5.427  10.829
18050SOL    HW155924  12.106   5.403  10.743
18050SOL    HW255925  12.184   5.349  10.860
18051SOL     OW55926   1.650   2.074   8.573
18051SOL    HW155927   1.687   2.076   8.661
18051SOL    HW255928   1.724   2.054   8.516
18052SOL     OW55929   7.423   5.172   4.151
18052SOL    HW155930   7.427   5.216   4.066
18052SOL    HW255931   7.378   5.090   4.134
18053SOL     OW55932   8.583   5.766   1.841
18053SOL    HW155933   8.598   5.672   1.832
18053SOL    HW255934   8.599   5.785   1.933
18054SOL     OW55935   7.356   0.754  11.233
18054SOL    HW155936   7.409   0.732  11.157
18054SOL    HW255937   7.368   0.848  11.244
18055SOL     OW55938  14.142   8.609   2.403
18055SOL    HW155939  14.095   8.578   2.325
18055SOL    HW255940  14.224   8.645   2.369
18056SOL     OW55941   1.475  12.551   9.675
18056SOL    HW155942   1.561  12.556   9.718
18056SOL    HW255943   1.430  12.631   9.704
18057SOL     OW55944   0.595   8.914   4.002
18057SOL    HW155945   0.667   8.926   3.940
18057SOL    HW255946   0.516   8.923   3.949
18058SOL     OW55947   9.373   2.375   0.344
18058SOL    HW155948   9.379   2.281   0.358
18058SOL    HW255949   9.423   2.391   0.264
18059SOL     OW55950   0.582   0.907   4.583
18059SOL    HW155951   0.618   0.835   4.531
18059SOL    HW255952   0.641   0.914   4.658
18060SOL     OW55953  11.240   2.716  12.104
18060SOL    HW155954  11.286   2.740  12.185
18060SOL    HW255955  11.166   2.663  12.133
18061SOL     OW55956   3.439   5.747  10.047
18061SOL    HW155957   3.468   5.814   9.985
18061SOL    HW255958   3.388   5.685   9.993
18062SOL     OW55959   6.946   8.465  13.085
18062SOL    HW155960   6.967   8.376  13.058
18062SOL    HW255961   6.852   8.472  13.074
18063SOL     OW55962  11.370  11.485   0.301
18063SOL    HW155963  11.391  11.496   0.394
18063SOL    HW255964  11.277  11.461   0.300
18064SOL     OW55965   9.976   8.635   4.129
18064SOL    HW155966   9.965   8.730   4.126
18064SOL    HW255967  10.070   8.621   4.119
18065SOL     OW55968  10.752   3.524   1.981
18065SOL    HW155969  10.732   3.483   2.065
18065SOL    HW255970  10.794   3.607   2.004
18066SOL     OW55971   5.549   3.944   4.834
18066SOL    HW155972   5.476   3.999   4.805
18066SOL    HW255973   5.524   3.855   4.807
18067SOL     OW55974  13.723   0.956   6.624
18067SOL    HW155975  13.639   0.917   6.648
18067SOL    HW255976  13.702   1.015   6.552
18068SOL     OW55977   8.496   3.263   7.663
18068SOL    HW155978   8.566   3.197   7.667
18068SOL    HW255979   8.523   3.330   7.725
18069SOL     OW55980   3.844  11.294   5.113
18069SOL    HW155981   3.901  11.226   5.148
18069SOL    HW255982   3.883  11.376   5.143
18070SOL     OW55983   4.312   3.256   8.122
18070SOL    HW155984   4.328   3.328   8.061
18070SOL    HW255985   4.242   3.206   8.081
18071SOL     OW55986   7.700   4.794  13.538
18071SOL    HW155987   7.621   4.787  13.591
18071SOL    HW255988   7.755   4.721  13.566
18072SOL     OW55989   3.162   3.645  11.666
18072SOL    HW155990   3.256   3.662  11.669
18072SOL    HW255991   3.138   3.654  11.574
18073SOL     OW55992   2.563   8.576   7.775
18073SOL    HW155993   2.576   8.665   7.806
18073SOL    HW255994   2.475   8.575   7.737
18074SOL     OW55995   0.748   1.125  10.072
18074SOL    HW155996   0.712   1.195  10.018
18074SOL    HW255997   0.713   1.142  10.159
18075SOL     OW55998  13.620  12.722   1.316
18075SOL    HW155999  13.574  12.699   1.397
18075SOL    HW256000  13.563  12.785   1.273
18076SOL     OW56001  13.277   5.859   6.878
18076SOL    HW156002  13.300   5.785   6.935
18076SOL    HW256003  13.348   5.863   6.814
18077SOL     OW56004   8.698   0.196  14.294
18077SOL    HW156005   8.696   0.182  14.199
18077SOL    HW256006   8.698   0.291  14.304
18078SOL     OW56007  14.816  14.785  14.408
18078SOL    HW156008  14.766  14.802  14.488
18078SOL    HW256009  14.792  14.856  14.349
18079SOL     OW56010   6.225  10.267   3.800
18079SOL    HW156011   6.223  10.312   3.884
18079SOL    HW256012   6.270  10.184   3.818
18080SOL     OW56013   4.734   8.044  10.380
18080SOL    HW156014   4.678   8.117  10.354
18080SOL    HW256015   4.761   8.065  10.469
18081SOL     OW56016  13.775   3.501   8.892
18081SOL    HW156017  13.786   3.444   8.968
18081SOL    HW256018  13.683   3.527   8.896
18082SOL     OW56019   3.751   9.309   9.167
18082SOL    HW156020   3.767   9.252   9.092
18082SOL    HW256021   3.828   9.297   9.222
18083SOL     OW56022   3.916   3.152  13.333
18083SOL    HW156023   3.848   3.092  13.301
18083SOL    HW256024   3.975   3.096  13.385
18084SOL     OW56025   3.797  12.615  14.841
18084SOL    HW156026   3.848  12.564   0.027
18084SOL    HW256027   3.708  12.580  14.848
18085SOL     OW56028  14.274   4.044  10.975
18085SOL    HW156029  14.203   4.074  11.033
18085SOL    HW256030  14.341   4.111  10.982
18086SOL     OW56031   1.404   3.164   2.313
18086SOL    HW156032   1.396   3.259   2.306
18086SOL    HW256033   1.411   3.133   2.222
18087SOL     OW56034   3.684   5.600  10.111
18087SOL    HW156035   3.607   5.633  10.067
18087SOL    HW256036   3.654   5.522  10.158
18088SOL     OW56037  10.864  10.466   1.400
18088SOL    HW156038  10.864  10.520   1.480
18088SOL    HW256039  10.916  10.389   1.423
18089SOL     OW56040  12.851  14.470  13.609
18089SOL    HW156041  12.775  14.453  13.665
18089SOL    HW256042  12.880  14.557  13.633
18090SOL     OW56043  11.083   0.928   2.843
18090SOL    HW156044  11.077   0.952   2.935
18090SOL    HW256045  11.124   1.004   2.801
18091SOL     OW56046   9.814  13.355  13.603
18091SOL    HW156047   9.789  13.396  13.686
18091SOL    HW256048   9.845  13.427  13.549
18092SOL     OW56049   7.146   0.014   2.772
18092SOL    HW156050   7.209   0.037   2.840
18092SOL    HW256051   7.136  14.797   2.780
18093SOL     OW56052   4.983   1.561   2.293
18093SOL    HW156053   4.923   1.584   2.364
18093SOL    HW256054   4.931   1.506   2.234
18094SOL     OW56055   8.461   4.668   5.308
18094SOL    HW156056   8.393   4.671   5.376
18094SOL    HW256057   8.529   4.727   5.340
18095SOL     OW56058  10.718   4.806   7.615
18095SOL    HW156059  10.783   4.757   7.564
18095SOL    HW256060  10.766   4.882   7.647
18096SOL     OW56061  11.872   3.405  10.013
18096SOL    HW156062  11.780   3.409  10.039
18096SOL    HW256063  11.916   3.467  10.071
18097SOL     OW56064   7.947   6.489   9.811
18097SOL    HW156065   7.955   6.503   9.716
18097SOL    HW256066   7.861   6.524   9.833
18098SOL     OW56067   4.140   9.125   5.090
18098SOL    HW156068   4.063   9.128   5.034
18098SOL    HW256069   4.197   9.194   5.056
18099SOL     OW56070   2.604   7.746  13.279
18099SOL    HW156071   2.615   7.721  13.187
18099SOL    HW256072   2.591   7.840  13.277
18100SOL     OW56073   9.223   8.237   3.283
18100SOL    HW156074   9.181   8.152   3.266
18100SOL    HW256075   9.206   8.254   3.375
18101SOL     OW56076   8.081   7.004   4.932
18101SOL    HW156077   8.049   7.062   5.001
18101SOL    HW256078   8.173   7.028   4.920
18102SOL     OW56079   9.790  14.639   9.414
18102SOL    HW156080   9.869  14.692   9.421
18102SOL    HW256081   9.806  14.583   9.338
18103SOL     OW56082   5.518   6.837   4.450
18103SOL    HW156083   5.499   6.745   4.469
18103SOL    HW256084   5.514   6.880   4.536
18104SOL     OW56085  13.194  10.636   6.839
18104SOL    HW156086  13.278  10.680   6.850
18104SOL    HW256087  13.170  10.652   6.747
18105SOL     OW56088   3.118  12.201   6.932
18105SOL    HW156089   3.088  12.122   6.886
18105SOL    HW256090   3.211  12.207   6.911
18106SOL     OW56091   9.867  10.455   9.181
18106SOL    HW156092   9.878  10.360   9.176
18106SOL    HW256093   9.836  10.471   9.270
18107SOL     OW56094   4.548   4.076  14.636
18107SOL    HW156095   4.618   4.056  14.698
18107SOL    HW256096   4.473   4.027  14.667
18108SOL     OW56097   1.858   7.383   4.808
18108SOL    HW156098   1.865   7.430   4.725
18108SOL    HW256099   1.770   7.343   4.806
18109SOL     OW56100   7.157   3.777   0.101
18109SOL    HW156101   7.218   3.803   0.033
18109SOL    HW256102   7.070   3.792   0.063
18110SOL     OW56103  10.159   3.756   6.100
18110SOL    HW156104  10.105   3.833   6.081
18110SOL    HW256105  10.104   3.682   6.075
18111SOL     OW56106   8.100   3.262   7.421
18111SOL    HW156107   8.191   3.281   7.398
18111SOL    HW256108   8.098   3.268   7.516
18112SOL     OW56109  13.952   4.412   1.748
18112SOL    HW156110  13.996   4.488   1.787
18112SOL    HW256111  13.975   4.339   1.805
18113SOL     OW56112   8.540   4.172   3.487
18113SOL    HW156113   8.446   4.154   3.495
18113SOL    HW256114   8.580   4.126   3.561
18114SOL     OW56115   5.606   8.456   8.531
18114SOL    HW156116   5.666   8.530   8.537
18114SOL    HW256117   5.661   8.379   8.542
18115SOL     OW56118  13.510   2.001  12.023
18115SOL    HW156119  13.467   1.916  12.021
18115SOL    HW256120  13.603   1.981  12.019
18116SOL     OW56121   2.864   0.711   7.063
18116SOL    HW156122   2.805   0.771   7.109
18116SOL    HW256123   2.949   0.724   7.105
18117SOL     OW56124  11.505   8.935   2.278
18117SOL    HW156125  11.470   8.852   2.247
18117SOL    HW256126  11.592   8.913   2.311
18118SOL     OW56127   7.841  10.474   5.765
18118SOL    HW156128   7.856  10.434   5.679
18118SOL    HW256129   7.895  10.553   5.765
18119SOL     OW56130   1.573  12.298   9.031
18119SOL    HW156131   1.496  12.278   9.084
18119SOL    HW256132   1.573  12.232   8.961
18120SOL     OW56133   1.625  10.855   1.039
18120SOL    HW156134   1.588  10.774   1.003
18120SOL    HW256135   1.595  10.857   1.129
18121SOL     OW56136   2.726   2.849  10.699
18121SOL    HW156137   2.756   2.805  10.619
18121SOL    HW256138   2.791   2.918  10.714
18122SOL     OW56139  11.998  13.168   7.503
18122SOL    HW156140  11.905  13.185   7.521
18122SOL    HW256141  12.016  13.216   7.422
18123SOL     OW56142   0.072  10.428   6.362
18123SOL    HW156143   0.048  10.508   6.315
18123SOL    HW256144   0.164  10.441   6.385
18124SOL     OW56145  14.673   4.034  11.487
18124SOL    HW156146  14.635   4.091  11.420
18124SOL    HW256147  14.598   3.991  11.527
18125SOL     OW56148  13.928  12.008  13.453
18125SOL    HW156149  13.874  12.085  13.435
18125SOL    HW256150  13.867  11.934  13.445
18126SOL     OW56151   2.057   8.033   1.579
18126SOL    HW156152   2.041   7.952   1.532
18126SOL    HW256153   2.116   8.008   1.650
18127SOL     OW56154   6.255   5.395  10.100
18127SOL    HW156155   6.266   5.300  10.096
18127SOL    HW256156   6.320   5.429  10.039
18128SOL     OW56157   2.901  13.424   2.497
18128SOL    HW156158   2.814  13.448   2.531
18128SOL    HW256159   2.908  13.331   2.514
18129SOL     OW56160   8.782   1.078  14.681
18129SOL    HW156161   8.815   1.001  14.727
18129SOL    HW256162   8.843   1.148  14.704
18130SOL     OW56163  14.245  12.000   6.119
18130SOL    HW156164  14.171  12.061   6.122
18130SOL    HW256165  14.217  11.932   6.058
18131SOL     OW56166   9.489   5.987  14.163
18131SOL    HW156167   9.446   5.903  14.179
18131SOL    HW256168   9.425   6.053  14.192
18132SOL     OW56169   6.179   7.470   3.882
18132SOL    HW156170   6.116   7.419   3.934
18132SOL    HW256171   6.142   7.557   3.878
18133SOL     OW56172   2.781  14.230  13.970
18133SOL    HW156173   2.733  14.170  14.028
18133SOL    HW256174   2.873  14.206  13.981
18134SOL     OW56175   9.600   4.690   0.619
18134SOL    HW156176   9.600   4.770   0.567
18134SOL    HW256177   9.515   4.690   0.664
18135SOL     OW56178   0.494   0.710  10.031
18135SOL    HW156179   0.552   0.764   9.978
18135SOL    HW256180   0.550   0.640  10.065
18136SOL     OW56181   0.952   8.707  12.978
18136SOL    HW156182   0.926   8.770  12.911
18136SOL    HW256183   1.048   8.715  12.982
18137SOL     OW56184   9.635   6.539   6.532
18137SOL    HW156185   9.593   6.617   6.569
18137SOL    HW256186   9.638   6.477   6.605
18138SOL     OW56187  13.378   7.956   3.941
18138SOL    HW156188  13.443   7.947   3.871
18138SOL    HW256189  13.309   7.893   3.918
18139SOL     OW56190   1.025   1.643   7.851
18139SOL    HW156191   0.977   1.604   7.923
18139SOL    HW256192   1.094   1.580   7.831
18140SOL     OW56193   0.231   4.027  13.417
18140SOL    HW156194   0.182   4.068  13.488
18140SOL    HW256195   0.321   4.023  13.449
18141SOL     OW56196  10.945  10.848  13.167
18141SOL    HW156197  10.967  10.809  13.082
18141SOL    HW256198  11.022  10.898  13.192
18142SOL     OW56199  13.564   0.866   6.922
18142SOL    HW156200  13.516   0.943   6.893
18142SOL    HW256201  13.639   0.901   6.970
18143SOL     OW56202   6.659   3.566   2.965
18143SOL    HW156203   6.586   3.583   2.906
18143SOL    HW256204   6.670   3.471   2.964
18144SOL     OW56205   3.738  12.230   0.113
18144SOL    HW156206   3.691  12.262   0.036
18144SOL    HW256207   3.669  12.194   0.169
18145SOL     OW56208   8.878  12.893  14.616
18145SOL    HW156209   8.887  12.798  14.612
18145SOL    HW256210   8.822  12.908  14.693
18146SOL     OW56211   5.319   7.887   4.582
18146SOL    HW156212   5.270   7.830   4.641
18146SOL    HW256213   5.311   7.845   4.497
18147SOL     OW56214   8.673   5.687  12.928
18147SOL    HW156215   8.604   5.625  12.907
18147SOL    HW256216   8.705   5.717  12.843
18148SOL     OW56217  10.880  11.546  12.225
18148SOL    HW156218  10.873  11.465  12.176
18148SOL    HW256219  10.930  11.523  12.303
18149SOL     OW56220  14.415   2.181   3.280
18149SOL    HW156221  14.378   2.219   3.201
18149SOL    HW256222  14.463   2.104   3.249
18150SOL     OW56223   6.300   8.086  13.321
18150SOL    HW156224   6.377   8.142  13.330
18150SOL    HW256225   6.329   8.001  13.354
18151SOL     OW56226   9.115  14.272   2.680
18151SOL    HW156227   9.137  14.188   2.720
18151SOL    HW256228   9.195  14.300   2.636
18152SOL     OW56229   0.860   3.385   6.885
18152SOL    HW156230   0.822   3.319   6.943
18152SOL    HW256231   0.822   3.468   6.915
18153SOL     OW56232  12.923  13.971  10.303
18153SOL    HW156233  12.843  13.948  10.256
18153SOL    HW256234  12.992  13.968  10.236
18154SOL     OW56235  13.889   9.275   7.751
18154SOL    HW156236  13.797   9.251   7.740
18154SOL    HW256237  13.904   9.271   7.845
18155SOL     OW56238  13.314   5.009  11.468
18155SOL    HW156239  13.269   4.938  11.422
18155SOL    HW256240  13.249   5.079  11.474
18156SOL     OW56241   8.750  12.516   1.957
18156SOL    HW156242   8.694  12.455   1.909
18156SOL    HW256243   8.750  12.482   2.047
18157SOL     OW56244   0.564   1.533   6.854
18157SOL    HW156245   0.656   1.508   6.849
18157SOL    HW256246   0.547   1.547   6.947
18158SOL     OW56247   5.147   8.843   7.265
18158SOL    HW156248   5.072   8.795   7.301
18158SOL    HW256249   5.194   8.874   7.342
18159SOL     OW56250  13.226   1.579   6.617
18159SOL    HW156251  13.190   1.643   6.678
18159SOL    HW256252  13.149   1.540   6.575
18160SOL     OW56253   9.920  13.650  10.804
18160SOL    HW156254  10.015  13.660  10.797
18160SOL    HW256255   9.884  13.726  10.757
18161SOL     OW56256  10.192  14.001  12.652
18161SOL    HW156257  10.156  13.915  12.629
18161SOL    HW256258  10.154  14.021  12.738
18162SOL     OW56259  12.998  12.239   4.824
18162SOL    HW156260  12.910  12.270   4.849
18162SOL    HW256261  13.033  12.201   4.905
18163SOL     OW56262  10.643  10.215   6.598
18163SOL    HW156263  10.660  10.287   6.658
18163SOL    HW256264  10.730  10.179   6.578
18164SOL     OW56265   3.601   0.558   4.221
18164SOL    HW156266   3.598   0.576   4.127
18164SOL    HW256267   3.510   0.560   4.249
18165SOL     OW56268  10.914   6.550   4.845
18165SOL    HW156269  10.877   6.532   4.932
18165SOL    HW256270  10.841   6.584   4.794
18166SOL     OW56271  10.437   9.035   3.284
18166SOL    HW156272  10.519   8.987   3.272
18166SOL    HW256273  10.369   8.967   3.282
18167SOL     OW56274   7.133   0.604  11.384
18167SOL    HW156275   7.158   0.647  11.302
18167SOL    HW256276   7.207   0.619  11.443
18168SOL     OW56277  12.864  10.871   0.307
18168SOL    HW156278  12.925  10.838   0.241
18168SOL    HW256279  12.916  10.875   0.388
18169SOL     OW56280   9.530   8.171   1.006
18169SOL    HW156281   9.559   8.112   0.936
18169SOL    HW256282   9.525   8.257   0.965
18170SOL     OW56283   1.043  14.545  13.664
18170SOL    HW156284   1.106  14.581  13.727
18170SOL    HW256285   1.001  14.623  13.626
18171SOL     OW56286   0.078  14.726   9.107
18171SOL    HW156287   0.068  14.665   9.180
18171SOL    HW256288   0.039  14.681   9.032
18172SOL     OW56289  13.114  14.395  11.485
18172SOL    HW156290  13.081  14.367  11.400
18172SOL    HW256291  13.085  14.326  11.546
18173SOL     OW56292   9.693  13.551  13.394
18173SOL    HW156293   9.771  13.506  13.361
18173SOL    HW256294   9.621  13.515  13.342
18174SOL     OW56295   7.398  13.207   6.150
18174SOL    HW156296   7.305  13.224   6.131
18174SOL    HW256297   7.444  13.238   6.072
18175SOL     OW56298  12.460   9.539   6.284
18175SOL    HW156299  12.442   9.623   6.328
18175SOL    HW256300  12.554   9.527   6.295
18176SOL     OW56301   9.745   4.098   2.746
18176SOL    HW156302   9.682   4.167   2.723
18176SOL    HW256303   9.692   4.018   2.753
18177SOL     OW56304  10.182   7.422   0.336
18177SOL    HW156305  10.274   7.397   0.350
18177SOL    HW256306  10.142   7.344   0.296
18178SOL     OW56307   9.585   6.860   4.364
18178SOL    HW156308   9.506   6.873   4.311
18178SOL    HW256309   9.614   6.948   4.385
18179SOL     OW56310  14.058   1.265   9.148
18179SOL    HW156311  14.014   1.225   9.074
18179SOL    HW256312  14.067   1.357   9.124
18180SOL     OW56313   2.876   0.339   8.788
18180SOL    HW156314   2.872   0.352   8.693
18180SOL    HW256315   2.830   0.415   8.824
18181SOL     OW56316   0.787   1.115   3.987
18181SOL    HW156317   0.816   1.143   4.073
18181SOL    HW256318   0.867   1.106   3.935
18182SOL     OW56319   2.252   1.164   4.553
18182SOL    HW156320   2.196   1.137   4.480
18182SOL    HW256321   2.276   1.254   4.533
18183SOL     OW56322   3.346  11.122   5.021
18183SOL    HW156323   3.419  11.177   5.049
18183SOL    HW256324   3.360  11.109   4.927
18184SOL     OW56325   3.932   4.266   7.629
18184SOL    HW156326   3.946   4.346   7.680
18184SOL    HW256327   3.904   4.201   7.693
18185SOL     OW56328   6.665   7.607   7.113
18185SOL    HW156329   6.659   7.571   7.025
18185SOL    HW256330   6.759   7.618   7.127
18186SOL     OW56331   8.154  12.265   4.565
18186SOL    HW156332   8.099  12.188   4.579
18186SOL    HW256333   8.236  12.245   4.610
18187SOL     OW56334   2.353  14.237  12.177
18187SOL    HW156335   2.324  14.309  12.121
18187SOL    HW256336   2.356  14.275  12.265
18188SOL     OW56337   4.187   5.692   1.588
18188SOL    HW156338   4.133   5.757   1.542
18188SOL    HW256339   4.263   5.679   1.531
18189SOL     OW56340   8.947   2.235  13.740
18189SOL    HW156341   8.910   2.190  13.664
18189SOL    HW256342   8.953   2.168  13.808
18190SOL     OW56343   1.456   2.421   4.081
18190SOL    HW156344   1.500   2.447   4.162
18190SOL    HW256345   1.422   2.333   4.099
18191SOL     OW56346   7.215  10.619   3.169
18191SOL    HW156347   7.138  10.562   3.171
18191SOL    HW256348   7.218  10.652   3.079
18192SOL     OW56349  12.525  12.166  11.043
18192SOL    HW156350  12.439  12.123  11.048
18192SOL    HW256351  12.579  12.103  10.995
18193SOL     OW56352   9.524  11.662  11.257
18193SOL    HW156353   9.440  11.707  11.251
18193SOL    HW256354   9.521  11.595  11.189
18194SOL     OW56355   9.976   3.511   6.770
18194SOL    HW156356  10.066   3.480   6.766
18194SOL    HW256357   9.982   3.605   6.786
18195SOL     OW56358   5.850   3.955   1.465
18195SOL    HW156359   5.918   3.888   1.464
18195SOL    HW256360   5.815   3.952   1.554
18196SOL     OW56361  14.067   1.908   3.634
18196SOL    HW156362  14.006   1.854   3.585
18196SOL    HW256363  14.147   1.909   3.581
18197SOL     OW56364   0.413   3.591   8.065
18197SOL    HW156365   0.332   3.576   8.016
18197SOL    HW256366   0.453   3.666   8.022
18198SOL     OW56367   7.581   7.215  12.817
18198SOL    HW156368   7.648   7.281  12.835
18198SOL    HW256369   7.602   7.184  12.729
18199SOL     OW56370  13.281  11.065   7.275
18199SOL    HW156371  13.332  11.090   7.198
18199SOL    HW256372  13.190  11.068   7.246
18200SOL     OW56373  10.442  12.470   9.464
18200SOL    HW156374  10.530  12.472   9.500
18200SOL    HW256375  10.441  12.394   9.405
18201SOL     OW56376   5.003  14.354   5.041
18201SOL    HW156377   5.020  14.359   5.135
18201SOL    HW256378   4.981  14.262   5.026
18202SOL     OW56379   8.981   3.012   4.887
18202SOL    HW156380   8.939   2.926   4.885
18202SOL    HW256381   8.908   3.074   4.884
18203SOL     OW56382  11.041   5.830   2.884
18203SOL    HW156383  11.047   5.734   2.878
18203SOL    HW256384  10.957   5.847   2.925
18204SOL     OW56385   2.196  12.532  11.806
18204SOL    HW156386   2.137  12.459  11.783
18204SOL    HW256387   2.279  12.489  11.826
18205SOL     OW56388   1.475   0.712   5.637
18205SOL    HW156389   1.462   0.675   5.550
18205SOL    HW256390   1.398   0.685   5.687
18206SOL     OW56391  11.795  14.360   8.538
18206SOL    HW156392  11.770  14.267   8.545
18206SOL    HW256393  11.727  14.398   8.482
18207SOL     OW56394  13.935   9.517   5.951
18207SOL    HW156395  13.877   9.537   6.025
18207SOL    HW256396  13.879   9.527   5.874
18208SOL     OW56397   1.811  12.439  13.419
18208SOL    HW156398   1.885  12.475  13.371
18208SOL    HW256399   1.851  12.377  13.481
18209SOL     OW56400   4.864   7.326  13.641
18209SOL    HW156401   4.795   7.297  13.581
18209SOL    HW256402   4.840   7.286  13.725
18210SOL     OW56403   1.195   6.498   6.558
18210SOL    HW156404   1.132   6.437   6.597
18210SOL    HW256405   1.261   6.512   6.626
18211SOL     OW56406   2.869   9.087   0.412
18211SOL    HW156407   2.849   9.104   0.320
18211SOL    HW256408   2.853   9.170   0.456
18212SOL     OW56409   2.993  12.246   6.105
18212SOL    HW156410   3.038  12.331   6.106
18212SOL    HW256411   2.962  12.237   6.015
18213SOL     OW56412  13.601   3.137   3.659
18213SOL    HW156413  13.545   3.073   3.616
18213SOL    HW256414  13.552   3.219   3.657
18214SOL     OW56415  14.767   6.144   7.307
18214SOL    HW156416  14.795   6.229   7.274
18214SOL    HW256417  14.823   6.128   7.383
18215SOL     OW56418  14.280   6.609   1.482
18215SOL    HW156419  14.193   6.591   1.518
18215SOL    HW256420  14.272   6.589   1.389
18216SOL     OW56421   1.988   4.209  13.257
18216SOL    HW156422   1.983   4.190  13.351
18216SOL    HW256423   2.051   4.145  13.223
18217SOL     OW56424   2.839  14.397  10.880
18217SOL    HW156425   2.769  14.429  10.936
18217SOL    HW256426   2.795  14.347  10.812
18218SOL     OW56427   6.617  14.500   2.712
18218SOL    HW156428   6.530  14.464   2.729
18218SOL    HW256429   6.661  14.434   2.658
18219SOL     OW56430   4.420  10.445  12.726
18219SOL    HW156431   4.385  10.499  12.655
18219SOL    HW256432   4.462  10.508  12.785
18220SOL     OW56433   8.851   6.335   3.296
18220SOL    HW156434   8.836   6.363   3.386
18220SOL    HW256435   8.852   6.416   3.245
18221SOL     OW56436   3.705   6.551  12.638
18221SOL    HW156437   3.757   6.621  12.677
18221SOL    HW256438   3.731   6.551  12.546
18222SOL     OW56439   6.474   0.035   2.957
18222SOL    HW156440   6.399   0.094   2.968
18222SOL    HW256441   6.444  14.829   2.992
18223SOL     OW56442   0.092   8.197   6.917
18223SOL    HW156443   0.060   8.278   6.955
18223SOL    HW256444   0.033   8.129   6.952
18224SOL     OW56445   8.119  11.414   1.719
18224SOL    HW156446   8.152  11.360   1.791
18224SOL    HW256447   8.125  11.358   1.642
18225SOL     OW56448   1.912   7.810   9.814
18225SOL    HW156449   1.824   7.835   9.784
18225SOL    HW256450   1.971   7.842   9.746
18226SOL     OW56451   1.043  11.676   7.069
18226SOL    HW156452   1.058  11.671   6.975
18226SOL    HW256453   1.126  11.707   7.105
18227SOL     OW56454   5.438  13.619  13.351
18227SOL    HW156455   5.358  13.596  13.305
18227SOL    HW256456   5.433  13.573  13.434
18228SOL     OW56457   7.696   2.445  12.115
18228SOL    HW156458   7.741   2.386  12.054
18228SOL    HW256459   7.603   2.433  12.097
18229SOL     OW56460  13.298   7.916  13.549
18229SOL    HW156461  13.276   7.992  13.495
18229SOL    HW256462  13.391   7.901  13.532
18230SOL     OW56463  12.355  12.985   9.320
18230SOL    HW156464  12.362  13.017   9.410
18230SOL    HW256465  12.377  12.892   9.327
18231SOL     OW56466   0.322   0.321   4.248
18231SOL    HW156467   0.368   0.337   4.330
18231SOL    HW256468   0.249   0.383   4.249
18232SOL     OW56469   0.378   4.102  12.995
18232SOL    HW156470   0.354   4.151  12.916
18232SOL    HW256471   0.295   4.066  13.026
18233SOL     OW56472  11.332   4.798  13.488
18233SOL    HW156473  11.395   4.731  13.516
18233SOL    HW256474  11.384   4.859  13.436
18234SOL     OW56475  11.411   6.494   8.462
18234SOL    HW156476  11.317   6.480   8.467
18234SOL    HW256477  11.443   6.426   8.402
18235SOL     OW56478   6.454  10.411   0.741
18235SOL    HW156479   6.481  10.323   0.769
18235SOL    HW256480   6.502  10.425   0.659
18236SOL     OW56481   3.037   2.640   3.795
18236SOL    HW156482   3.058   2.587   3.718
18236SOL    HW256483   3.118   2.686   3.815
18237SOL     OW56484   6.127  13.495   3.970
18237SOL    HW156485   6.032  13.509   3.980
18237SOL    HW256486   6.134  13.424   3.907
18238SOL     OW56487  13.252  14.058   3.330
18238SOL    HW156488  13.198  14.097   3.260
18238SOL    HW256489  13.210  13.974   3.348
18239SOL     OW56490  10.564   1.434  12.090
18239SOL    HW156491  10.498   1.448  12.157
18239SOL    HW256492  10.521   1.378  12.026
18240SOL     OW56493  12.521   8.888   5.770
18240SOL    HW156494  12.616   8.882   5.762
18240SOL    HW256495  12.491   8.917   5.684
18241SOL     OW56496   1.458  12.843   0.661
18241SOL    HW156497   1.493  12.924   0.697
18241SOL    HW256498   1.453  12.784   0.736
18242SOL     OW56499   2.215  12.663   5.862
18242SOL    HW156500   2.246  12.674   5.773
18242SOL    HW256501   2.277  12.712   5.916
18243SOL     OW56502  13.462   0.255   7.704
18243SOL    HW156503  13.535   0.283   7.649
18243SOL    HW256504  13.390   0.313   7.681
18244SOL     OW56505   9.410  14.576   0.817
18244SOL    HW156506   9.415  14.672   0.822
18244SOL    HW256507   9.386  14.550   0.906
18245SOL     OW56508  12.251   4.848  11.667
18245SOL    HW156509  12.220   4.871  11.754
18245SOL    HW256510  12.265   4.753  11.671
18246SOL     OW56511  14.758   5.428   9.987
18246SOL    HW156512  14.769   5.518  10.021
18246SOL    HW256513  14.675   5.430   9.941
18247SOL     OW56514   2.789  14.622   6.994
18247SOL    HW156515   2.873  14.635   7.039
18247SOL    HW256516   2.751  14.710   6.988
18248SOL     OW56517  10.131   9.247   2.218
18248SOL    HW156518  10.179   9.194   2.282
18248SOL    HW256519  10.177   9.330   2.215
18249SOL     OW56520   1.327   4.206   1.945
18249SOL    HW156521   1.412   4.167   1.924
18249SOL    HW256522   1.342   4.256   2.025
18250SOL     OW56523  10.241   7.915  14.226
18250SOL    HW156524  10.264   7.859  14.152
18250SOL    HW256525  10.176   7.865  14.274
18251SOL     OW56526   0.814   8.881   5.227
18251SOL    HW156527   0.842   8.914   5.312
18251SOL    HW256528   0.850   8.793   5.221
18252SOL     OW56529   4.983   3.105   1.139
18252SOL    HW156530   4.954   3.125   1.050
18252SOL    HW256531   4.931   3.163   1.195
18253SOL     OW56532   4.501   7.621  14.268
18253SOL    HW156533   4.562   7.649  14.336
18253SOL    HW256534   4.518   7.680  14.195
18254SOL     OW56535   6.341   2.689   7.248
18254SOL    HW156536   6.251   2.661   7.234
18254SOL    HW256537   6.360   2.747   7.174
18255SOL     OW56538   7.315   6.348  12.389
18255SOL    HW156539   7.247   6.305  12.442
18255SOL    HW256540   7.315   6.299  12.307
18256SOL     OW56541   6.228   4.301   0.798
18256SOL    HW156542   6.251   4.394   0.802
18256SOL    HW256543   6.211   4.284   0.705
18257SOL     OW56544   0.581  14.127  10.391
18257SOL    HW156545   0.600  14.041  10.353
18257SOL    HW256546   0.617  14.190  10.329
18258SOL     OW56547   0.414  10.079   6.638
18258SOL    HW156548   0.323  10.061   6.615
18258SOL    HW256549   0.465  10.016   6.587
18259SOL     OW56550   7.811   9.010   6.441
18259SOL    HW156551   7.731   8.974   6.404
18259SOL    HW256552   7.869   8.934   6.449
18260SOL     OW56553   4.231  10.081  13.964
18260SOL    HW156554   4.193  10.030  13.892
18260SOL    HW256555   4.218  10.172  13.938
18261SOL     OW56556  13.895   4.846   2.858
18261SOL    HW156557  13.953   4.782   2.818
18261SOL    HW256558  13.900   4.922   2.801
18262SOL     OW56559   9.392  14.595   4.758
18262SOL    HW156560   9.451  14.533   4.800
18262SOL    HW256561   9.382  14.666   4.822
18263SOL     OW56562  12.034   0.529   0.012
18263SOL    HW156563  12.027   0.488   0.098
18263SOL    HW256564  11.963   0.593   0.010
18264SOL     OW56565   1.329  13.306   4.580
18264SOL    HW156566   1.272  13.379   4.555
18264SOL    HW256567   1.303  13.285   4.670
18265SOL     OW56568   2.099   9.642   8.021
18265SOL    HW156569   2.105   9.556   7.979
18265SOL    HW256570   2.015   9.641   8.066
18266SOL     OW56571   9.084   5.733  14.642
18266SOL    HW156572   9.124   5.666  14.697
18266SOL    HW256573   9.029   5.783  14.702
18267SOL     OW56574  13.828  14.002   9.809
18267SOL    HW156575  13.869  14.087   9.791
18267SOL    HW256576  13.899  13.939   9.798
18268SOL     OW56577   7.512  10.896  12.001
18268SOL    HW156578   7.583  10.918  12.062
18268SOL    HW256579   7.450  10.846  12.054
18269SOL     OW56580   3.105  12.279   9.777
18269SOL    HW156581   3.110  12.209   9.712
18269SOL    HW256582   3.070  12.354   9.729
18270SOL     OW56583  12.026   8.967   4.119
18270SOL    HW156584  11.975   8.967   4.200
18270SOL    HW256585  12.048   8.875   4.104
18271SOL     OW56586   6.744   0.486   2.284
18271SOL    HW156587   6.731   0.578   2.306
18271SOL    HW256588   6.674   0.440   2.329
18272SOL     OW56589   6.646   9.760   6.345
18272SOL    HW156590   6.652   9.741   6.251
18272SOL    HW256591   6.613   9.849   6.350
18273SOL     OW56592   9.469   5.366   9.154
18273SOL    HW156593   9.433   5.418   9.226
18273SOL    HW256594   9.493   5.431   9.088
18274SOL     OW56595  10.346   0.262  11.056
18274SOL    HW156596  10.265   0.245  11.007
18274SOL    HW256597  10.328   0.342  11.105
18275SOL     OW56598   5.647   9.931  13.545
18275SOL    HW156599   5.718   9.982  13.585
18275SOL    HW256600   5.676   9.840  13.553
18276SOL     OW56601   9.706   1.882   8.054
18276SOL    HW156602   9.634   1.848   8.000
18276SOL    HW256603   9.663   1.941   8.115
18277SOL     OW56604   9.546   8.290  10.937
18277SOL    HW156605   9.617   8.277  10.874
18277SOL    HW256606   9.472   8.242  10.899
18278SOL     OW56607  14.187  11.724   4.758
18278SOL    HW156608  14.217  11.657   4.819
18278SOL    HW256609  14.096  11.700   4.739
18279SOL     OW56610  10.398   8.960  12.516
18279SOL    HW156611  10.429   8.881  12.560
18279SOL    HW256612  10.434   9.032  12.568
18280SOL     OW56613  11.016   0.644   2.013
18280SOL    HW156614  11.031   0.589   1.936
18280SOL    HW256615  10.920   0.650   2.019
18281SOL     OW56616  10.940   9.561   8.598
18281SOL    HW156617  10.949   9.641   8.546
18281SOL    HW256618  10.950   9.590   8.689
18282SOL     OW56619   6.037   3.861   4.148
18282SOL    HW156620   5.958   3.898   4.108
18282SOL    HW256621   6.030   3.886   4.241
18283SOL     OW56622  10.486  11.553   1.270
18283SOL    HW156623  10.520  11.473   1.309
18283SOL    HW256624  10.471  11.531   1.178
18284SOL     OW56625   7.628   2.700   7.758
18284SOL    HW156626   7.618   2.710   7.664
18284SOL    HW256627   7.560   2.637   7.783
18285SOL     OW56628   2.918   8.547   8.887
18285SOL    HW156629   2.954   8.464   8.918
18285SOL    HW256630   2.980   8.613   8.916
18286SOL     OW56631   9.145  13.050   5.821
18286SOL    HW156632   9.169  12.985   5.888
18286SOL    HW256633   9.130  12.998   5.742
18287SOL     OW56634   7.693   0.476   8.809
18287SOL    HW156635   7.722   0.394   8.769
18287SOL    HW256636   7.772   0.530   8.812
18288SOL     OW56637   8.974   7.256   4.826
18288SOL    HW156638   8.928   7.330   4.786
18288SOL    HW256639   9.005   7.289   4.910
18289SOL     OW56640   9.753  11.891   0.821
18289SOL    HW156641   9.802  11.837   0.883
18289SOL    HW256642   9.802  11.974   0.818
18290SOL     OW56643   3.537   3.031   7.515
18290SOL    HW156644   3.627   3.045   7.545
18290SOL    HW256645   3.546   2.972   7.441
18291SOL     OW56646   0.127  10.541   0.181
18291SOL    HW156647   0.098  10.556   0.271
18291SOL    HW256648   0.222  10.533   0.188
18292SOL     OW56649   4.787  14.512   2.592
18292SOL    HW156650   4.810  14.604   2.577
18292SOL    HW256651   4.836  14.463   2.526
18293SOL     OW56652  12.762   5.442  13.249
18293SOL    HW156653  12.734   5.532  13.235
18293SOL    HW256654  12.854   5.448  13.272
18294SOL     OW56655  13.265   1.207   9.496
18294SOL    HW156656  13.357   1.232   9.489
18294SOL    HW256657  13.238   1.240   9.582
18295SOL     OW56658  10.710   7.635  10.216
18295SOL    HW156659  10.615   7.629  10.231
18295SOL    HW256660  10.718   7.686  10.135
18296SOL     OW56661  14.656   3.644  12.800
18296SOL    HW156662  14.562   3.658  12.816
18296SOL    HW256663  14.674   3.694  12.721
18297SOL     OW56664   6.730   6.631   0.379
18297SOL    HW156665   6.714   6.701   0.443
18297SOL    HW256666   6.660   6.568   0.394
18298SOL     OW56667   9.356   3.939   7.098
18298SOL    HW156668   9.306   3.866   7.062
18298SOL    HW256669   9.291   3.993   7.143
18299SOL     OW56670  13.590   2.328   2.519
18299SOL    HW156671  13.665   2.288   2.474
18299SOL    HW256672  13.622   2.415   2.545
18300SOL     OW56673  10.010   6.961   7.774
18300SOL    HW156674  10.028   6.915   7.691
18300SOL    HW256675   9.935   7.017   7.754
18301SOL     OW56676   6.504   8.992   4.816
18301SOL    HW156677   6.458   8.991   4.901
18301SOL    HW256678   6.547   9.078   4.814
18302SOL     OW56679  10.574   0.603  13.855
18302SOL    HW156680  10.535   0.547  13.922
18302SOL    HW256681  10.626   0.667  13.904
18303SOL     OW56682   0.844  13.637   1.114
18303SOL    HW156683   0.928  13.603   1.085
18303SOL    HW256684   0.866  13.704   1.178
18304SOL     OW56685  11.598   2.133  13.498
18304SOL    HW156686  11.669   2.192  13.472
18304SOL    HW256687  11.520   2.170  13.455
18305SOL     OW56688   9.402  14.019   1.169
18305SOL    HW156689   9.465  13.949   1.187
18305SOL    HW256690   9.345  14.021   1.246
18306SOL     OW56691  12.208   3.912   9.234
18306SOL    HW156692  12.301   3.926   9.252
18306SOL    HW256693  12.207   3.842   9.168
18307SOL     OW56694   5.765  14.559   1.992
18307SOL    HW156695   5.845  14.542   1.943
18307SOL    HW256696   5.713  14.478   1.983
18308SOL     OW56697  14.517   8.379  12.350
18308SOL    HW156698  14.572   8.378  12.272
18308SOL    HW256699  14.439   8.428  12.324
18309SOL     OW56700   9.670   6.526   2.811
18309SOL    HW156701   9.630   6.528   2.898
18309SOL    HW256702   9.654   6.437   2.779
18310SOL     OW56703  13.303   3.227   2.313
18310SOL    HW156704  13.282   3.134   2.318
18310SOL    HW256705  13.258   3.257   2.234
18311SOL     OW56706   7.409   9.079   8.545
18311SOL    HW156707   7.446   9.001   8.588
18311SOL    HW256708   7.372   9.046   8.464
18312SOL     OW56709   2.286   1.070   1.984
18312SOL    HW156710   2.225   1.138   1.956
18312SOL    HW256711   2.322   1.035   1.903
18313SOL     OW56712   7.601   8.449   3.525
18313SOL    HW156713   7.613   8.384   3.456
18313SOL    HW256714   7.689   8.482   3.543
18314SOL     OW56715   1.448   4.098   2.508
18314SOL    HW156716   1.526   4.150   2.526
18314SOL    HW256717   1.386   4.159   2.469
18315SOL     OW56718  12.407  10.434   9.672
18315SOL    HW156719  12.371  10.522   9.676
18315SOL    HW256720  12.501  10.447   9.660
18316SOL     OW56721  11.825   5.151   6.666
18316SOL    HW156722  11.810   5.178   6.575
18316SOL    HW256723  11.785   5.219   6.719
18317SOL     OW56724   5.182   0.186   4.050
18317SOL    HW156725   5.231   0.214   4.128
18317SOL    HW256726   5.185   0.091   4.053
18318SOL     OW56727   5.287   1.295  13.040
18318SOL    HW156728   5.215   1.235  13.021
18318SOL    HW256729   5.306   1.282  13.133
18319SOL     OW56730   3.916  10.878   7.952
18319SOL    HW156731   3.934  10.864   7.859
18319SOL    HW256732   4.003  10.893   7.990
18320SOL     OW56733  10.073   0.486   4.146
18320SOL    HW156734  10.123   0.475   4.227
18320SOL    HW256735  10.101   0.570   4.111
18321SOL     OW56736   4.339   3.710   0.372
18321SOL    HW156737   4.415   3.746   0.325
18321SOL    HW256738   4.286   3.787   0.393
18322SOL     OW56739   4.847   8.983  11.893
18322SOL    HW156740   4.867   8.905  11.841
18322SOL    HW256741   4.755   8.972  11.919
18323SOL     OW56742   1.098  11.606   6.360
18323SOL    HW156743   1.173  11.649   6.401
18323SOL    HW256744   1.037  11.590   6.433
18324SOL     OW56745  11.659   4.982  14.032
18324SOL    HW156746  11.583   5.001  13.976
18324SOL    HW256747  11.703   4.909  13.987
18325SOL     OW56748   8.326  12.948   2.191
18325SOL    HW156749   8.407  12.979   2.232
18325SOL    HW256750   8.273  13.027   2.179
18326SOL     OW56751   8.125   0.678  13.577
18326SOL    HW156752   8.133   0.731  13.497
18326SOL    HW256753   8.118   0.742  13.648
18327SOL     OW56754   1.564   8.873  13.612
18327SOL    HW156755   1.578   8.889  13.519
18327SOL    HW256756   1.523   8.953  13.644
18328SOL     OW56757   3.394   7.979  13.800
18328SOL    HW156758   3.360   8.007  13.885
18328SOL    HW256759   3.484   8.010  13.799
18329SOL     OW56760  12.954   2.191   6.434
18329SOL    HW156761  12.939   2.232   6.519
18329SOL    HW256762  12.994   2.261   6.381
18330SOL     OW56763  12.308  14.329   9.192
18330SOL    HW156764  12.375  14.263   9.209
18330SOL    HW256765  12.348  14.411   9.220
18331SOL     OW56766  13.144  11.806   6.619
18331SOL    HW156767  13.118  11.804   6.711
18331SOL    HW256768  13.240  11.804   6.621
18332SOL     OW56769   4.582   8.598   9.811
18332SOL    HW156770   4.634   8.544   9.751
18332SOL    HW256771   4.625   8.683   9.810
18333SOL     OW56772   9.887   3.980   1.730
18333SOL    HW156773   9.931   3.964   1.647
18333SOL    HW256774   9.938   3.931   1.794
18334SOL     OW56775  14.442   3.296   0.583
18334SOL    HW156776  14.493   3.216   0.595
18334SOL    HW256777  14.433   3.304   0.488
18335SOL     OW56778   6.707   9.815   2.479
18335SOL    HW156779   6.634   9.768   2.440
18335SOL    HW256780   6.776   9.749   2.489
18336SOL     OW56781  14.440  13.410  14.272
18336SOL    HW156782  14.422  13.329  14.320
18336SOL    HW256783  14.355  13.453  14.263
18337SOL     OW56784  13.238   8.840   2.627
18337SOL    HW156785  13.237   8.802   2.715
18337SOL    HW256786  13.310   8.795   2.583
18338SOL     OW56787  14.522  10.424  13.118
18338SOL    HW156788  14.477  10.394  13.197
18338SOL    HW256789  14.604  10.374  13.117
18339SOL     OW56790  10.536   3.205   2.984
18339SOL    HW156791  10.611   3.176   3.036
18339SOL    HW256792  10.570   3.213   2.895
18340SOL     OW56793   8.864  14.721  10.878
18340SOL    HW156794   8.951  14.690  10.853
18340SOL    HW256795   8.805  14.677  10.818
18341SOL     OW56796   9.485   1.078  14.672
18341SOL    HW156797   9.473   1.055  14.580
18341SOL    HW256798   9.397   1.096  14.705
18342SOL     OW56799   1.395   2.408   1.196
18342SOL    HW156800   1.491   2.407   1.187
18342SOL    HW256801   1.363   2.367   1.116
18343SOL     OW56802   6.134  14.290   0.011
18343SOL    HW156803   6.043  14.293  14.857
18343SOL    HW256804   6.148  14.377   0.049
18344SOL     OW56805   1.599   0.609  11.096
18344SOL    HW156806   1.665   0.604  11.027
18344SOL    HW256807   1.593   0.520  11.131
18345SOL     OW56808   8.114   1.356  13.010
18345SOL    HW156809   8.040   1.391  12.960
18345SOL    HW256810   8.183   1.344  12.945
18346SOL     OW56811   1.827   7.153  13.007
18346SOL    HW156812   1.857   7.130  12.919
18346SOL    HW256813   1.767   7.227  12.994
18347SOL     OW56814   7.358   1.044   6.267
18347SOL    HW156815   7.419   1.051   6.193
18347SOL    HW256816   7.309   1.125   6.265
18348SOL     OW56817   1.356  10.737   4.615
18348SOL    HW156818   1.418  10.681   4.662
18348SOL    HW256819   1.405  10.819   4.601
18349SOL     OW56820  11.429   8.281   6.811
18349SOL    HW156821  11.506   8.330   6.838
18349SOL    HW256822  11.463   8.210   6.758
18350SOL     OW56823  13.733   4.862   1.752
18350SOL    HW156824  13.733   4.773   1.716
18350SOL    HW256825  13.654   4.902   1.716
18351SOL     OW56826   3.599   4.850  13.434
18351SOL    HW156827   3.601   4.789  13.359
18351SOL    HW256828   3.618   4.795  13.510
18352SOL     OW56829  14.488  10.477   0.774
18352SOL    HW156830  14.515  10.414   0.707
18352SOL    HW256831  14.394  10.462   0.785
18353SOL     OW56832   0.366   3.071   0.454
18353SOL    HW156833   0.381   3.043   0.363
18353SOL    HW256834   0.442   3.126   0.474
18354SOL     OW56835   9.690   4.469   9.545
18354SOL    HW156836   9.740   4.443   9.622
18354SOL    HW256837   9.720   4.411   9.475
18355SOL     OW56838   8.954   5.336  10.983
18355SOL    HW156839   8.973   5.428  10.965
18355SOL    HW256840   9.016   5.312  11.052
18356SOL     OW56841   8.839   1.932   8.592
18356SOL    HW156842   8.897   1.973   8.527
18356SOL    HW256843   8.899   1.902   8.660
18357SOL     OW56844  10.651   4.985   6.809
18357SOL    HW156845  10.736   5.028   6.794
18357SOL    HW256846  10.587   5.049   6.779
18358SOL     OW56847   1.507   3.932  14.842
18358SOL    HW156848   1.549   4.013  14.869
18358SOL    HW256849   1.485   3.887   0.046
18359SOL     OW56850   2.790   4.885   5.617
18359SOL    HW156851   2.861   4.904   5.678
18359SOL    HW256852   2.795   4.790   5.605
18360SOL     OW56853  12.175   4.404  12.437
18360SOL    HW156854  12.103   4.455  12.399
18360SOL    HW256855  12.254   4.444  12.400
18361SOL     OW56856  10.748   1.380   2.438
18361SOL    HW156857  10.840   1.382   2.410
18361SOL    HW256858  10.749   1.411   2.529
18362SOL     OW56859  14.097   8.455   3.247
18362SOL    HW156860  14.146   8.537   3.239
18362SOL    HW256861  14.046   8.450   3.166
18363SOL     OW56862   9.676   9.780  12.618
18363SOL    HW156863   9.743   9.738  12.671
18363SOL    HW256864   9.668   9.869  12.653
18364SOL     OW56865  10.230   5.860   9.229
18364SOL    HW156866  10.246   5.953   9.238
18364SOL    HW256867  10.290   5.831   9.160
18365SOL     OW56868   1.933   9.730   1.266
18365SOL    HW156869   1.971   9.678   1.336
18365SOL    HW256870   1.859   9.775   1.307
18366SOL     OW56871  10.055   6.198   5.972
18366SOL    HW156872  10.110   6.275   5.982
18366SOL    HW256873  10.068   6.170   5.882
18367SOL     OW56874  13.049   8.803  10.020
18367SOL    HW156875  13.021   8.855   9.945
18367SOL    HW256876  13.013   8.716  10.004
18368SOL     OW56877   3.775   4.233   3.389
18368SOL    HW156878   3.731   4.176   3.452
18368SOL    HW256879   3.858   4.189   3.371
18369SOL     OW56880   2.134   1.227  10.305
18369SOL    HW156881   2.149   1.141  10.265
18369SOL    HW256882   2.181   1.289  10.249
18370SOL     OW56883   5.387   9.696  14.341
18370SOL    HW156884   5.472   9.737  14.352
18370SOL    HW256885   5.326   9.755  14.385
18371SOL     OW56886   9.967   9.578  11.742
18371SOL    HW156887   9.987   9.524  11.665
18371SOL    HW256888  10.028   9.651  11.737
18372SOL     OW56889  14.346  13.305   1.124
18372SOL    HW156890  14.423  13.268   1.081
18372SOL    HW256891  14.379  13.340   1.207
18373SOL     OW56892   8.755   1.113  12.630
18373SOL    HW156893   8.809   1.190  12.649
18373SOL    HW256894   8.665   1.145  12.637
18374SOL     OW56895   9.415  12.413   1.831
18374SOL    HW156896   9.376  12.486   1.880
18374SOL    HW256897   9.438  12.451   1.746
18375SOL     OW56898   2.022   1.537   8.319
18375SOL    HW156899   1.932   1.508   8.307
18375SOL    HW256900   2.073   1.456   8.321
18376SOL     OW56901   4.584   3.769  14.570
18376SOL    HW156902   4.561   3.772  14.477
18376SOL    HW256903   4.669   3.813  14.575
18377SOL     OW56904  12.640  12.355  12.935
18377SOL    HW156905  12.581  12.411  12.884
18377SOL    HW256906  12.607  12.267  12.920
18378SOL     OW56907  12.408  13.254  11.747
18378SOL    HW156908  12.359  13.311  11.806
18378SOL    HW256909  12.345  13.188  11.720
18379SOL     OW56910   6.299   7.208   7.424
18379SOL    HW156911   6.233   7.254   7.373
18379SOL    HW256912   6.370   7.271   7.433
18380SOL     OW56913  13.930   8.934   1.259
18380SOL    HW156914  13.887   9.017   1.242
18380SOL    HW256915  14.018   8.945   1.224
18381SOL     OW56916   0.966  10.641   9.372
18381SOL    HW156917   0.997  10.581   9.304
18381SOL    HW256918   0.989  10.598   9.455
18382SOL     OW56919   0.531   3.766  11.395
18382SOL    HW156920   0.479   3.719  11.330
18382SOL    HW256921   0.504   3.857  11.386
18383SOL     OW56922   3.764   7.236  13.495
18383SOL    HW156923   3.742   7.272  13.581
18383SOL    HW256924   3.722   7.149  13.495
18384SOL     OW56925  11.693   7.100   5.358
18384SOL    HW156926  11.666   7.161   5.427
18384SOL    HW256927  11.670   7.144   5.276
18385SOL     OW56928   1.905   1.561   4.747
18385SOL    HW156929   1.961   1.523   4.679
18385SOL    HW256930   1.928   1.511   4.826
18386SOL     OW56931   0.412  10.254   9.077
18386SOL    HW156932   0.493  10.206   9.055
18386SOL    HW256933   0.399  10.313   9.003
18387SOL     OW56934   1.886  11.782   5.990
18387SOL    HW156935   1.971  11.825   5.998
18387SOL    HW256936   1.895  11.724   5.915
18388SOL     OW56937   3.046   3.780   2.609
18388SOL    HW156938   2.978   3.713   2.603
18388SOL    HW256939   2.999   3.863   2.602
18389SOL     OW56940   5.968   3.991   5.166
18389SOL    HW156941   6.040   4.054   5.158
18389SOL    HW256942   5.894   4.033   5.123
18390SOL     OW56943  10.804  11.963  11.181
18390SOL    HW156944  10.792  11.889  11.239
18390SOL    HW256945  10.794  11.927  11.093
18391SOL     OW56946   9.044  10.032  12.996
18391SOL    HW156947   8.998  10.084  13.061
18391SOL    HW256948   9.043   9.943  13.030
18392SOL     OW56949   6.316   6.209  14.109
18392SOL    HW156950   6.368   6.132  14.134
18392SOL    HW256951   6.303   6.199  14.015
18393SOL     OW56952   8.800  14.544   6.788
18393SOL    HW156953   8.879  14.559   6.735
18393SOL    HW256954   8.750  14.479   6.739
18394SOL     OW56955   7.563   8.297   1.969
18394SOL    HW156956   7.485   8.315   1.917
18394SOL    HW256957   7.603   8.384   1.983
18395SOL     OW56958   2.441   9.959   3.285
18395SOL    HW156959   2.391   9.890   3.242
18395SOL    HW256960   2.524   9.918   3.307
18396SOL     OW56961   5.077   3.700  10.290
18396SOL    HW156962   5.151   3.688  10.230
18396SOL    HW256963   5.111   3.759  10.357
18397SOL     OW56964   6.402   2.089   4.742
18397SOL    HW156965   6.438   2.175   4.764
18397SOL    HW256966   6.431   2.032   4.813
18398SOL     OW56967   8.403   7.431  13.809
18398SOL    HW156968   8.443   7.494  13.869
18398SOL    HW256969   8.372   7.360  13.865
18399SOL     OW56970  13.883   6.233  10.909
18399SOL    HW156971  13.846   6.147  10.891
18399SOL    HW256972  13.812   6.281  10.952
18400SOL     OW56973   6.264   4.630   0.843
18400SOL    HW156974   6.260   4.645   0.937
18400SOL    HW256975   6.183   4.667   0.809
18401SOL     OW56976   3.083   0.476   5.325
18401SOL    HW156977   3.166   0.489   5.371
18401SOL    HW256978   3.109   0.461   5.234
18402SOL     OW56979   4.012   5.612   0.125
18402SOL    HW156980   3.926   5.653   0.132
18402SOL    HW256981   4.057   5.638   0.206
18403SOL     OW56982   5.496  11.442  13.294
18403SOL    HW156983   5.561  11.416  13.359
18403SOL    HW256984   5.538  11.422  13.210
18404SOL     OW56985   2.947   9.931   1.742
18404SOL    HW156986   3.025   9.956   1.692
18404SOL    HW256987   2.970   9.948   1.833
18405SOL     OW56988  10.722   0.408  14.591
18405SOL    HW156989  10.726   0.332  14.649
18405SOL    HW256990  10.774   0.475  14.637
18406SOL     OW56991  12.806   2.095   8.973
18406SOL    HW156992  12.723   2.117   9.016
18406SOL    HW256993  12.816   2.162   8.905
18407SOL     OW56994   1.402   7.922   6.373
18407SOL    HW156995   1.408   7.877   6.458
18407SOL    HW256996   1.359   7.860   6.315
18408SOL     OW56997   9.068   9.810   2.940
18408SOL    HW156998   9.015   9.858   3.004
18408SOL    HW256999   9.087   9.875   2.872
18409SOL     OW57000   4.910  10.800   5.435
18409SOL    HW157001   4.836  10.740   5.427
18409SOL    HW257002   4.921  10.835   5.347
18410SOL     OW57003  10.730   9.558  14.484
18410SOL    HW157004  10.759   9.471  14.455
18410SOL    HW257005  10.694   9.544  14.572
18411SOL     OW57006   9.781   7.444  13.240
18411SOL    HW157007   9.700   7.465  13.285
18411SOL    HW257008   9.849   7.455  13.306
18412SOL     OW57009   2.582   1.057   6.268
18412SOL    HW157010   2.678   1.060   6.275
18412SOL    HW257011   2.552   1.053   6.359
18413SOL     OW57012   9.376   1.108   6.007
18413SOL    HW157013   9.436   1.049   6.052
18413SOL    HW257014   9.432   1.177   5.972
18414SOL     OW57015   0.015   2.419   8.779
18414SOL    HW157016   0.025   2.342   8.834
18414SOL    HW257017   0.100   2.428   8.735
18415SOL     OW57018   9.471   8.432  12.049
18415SOL    HW157019   9.438   8.410  11.962
18415SOL    HW257020   9.502   8.522  12.040
18416SOL     OW57021   2.907   1.546   2.446
18416SOL    HW157022   2.836   1.484   2.432
18416SOL    HW257023   2.984   1.503   2.409
18417SOL     OW57024   5.039   5.937   3.699
18417SOL    HW157025   5.031   5.904   3.610
18417SOL    HW257026   5.131   5.925   3.721
18418SOL     OW57027  13.383   0.639   6.291
18418SOL    HW157028  13.407   0.596   6.209
18418SOL    HW257029  13.456   0.622   6.350
18419SOL     OW57030   6.780   9.765  11.103
18419SOL    HW157031   6.768   9.809  11.019
18419SOL    HW257032   6.810   9.677  11.080
18420SOL     OW57033   5.389   1.788   5.222
18420SOL    HW157034   5.339   1.754   5.296
18420SOL    HW257035   5.478   1.798   5.257
18421SOL     OW57036   2.233   0.845  14.656
18421SOL    HW157037   2.311   0.789  14.663
18421SOL    HW257038   2.168   0.790  14.613
18422SOL     OW57039   1.447   7.362   2.850
18422SOL    HW157040   1.530   7.330   2.884
18422SOL    HW257041   1.470   7.402   2.766
18423SOL     OW57042   0.712   5.040  14.234
18423SOL    HW157043   0.772   5.060  14.305
18423SOL    HW257044   0.767   5.003  14.165
18424SOL     OW57045  10.688   5.689   5.145
18424SOL    HW157046  10.600   5.702   5.181
18424SOL    HW257047  10.687   5.600   5.112
18425SOL     OW57048  10.587   4.965   2.950
18425SOL    HW157049  10.502   4.937   2.983
18425SOL    HW257050  10.585   5.061   2.957
18426SOL     OW57051   3.619   9.896   4.876
18426SOL    HW157052   3.703   9.861   4.845
18426SOL    HW257053   3.641   9.980   4.916
18427SOL     OW57054  13.526   6.232  11.832
18427SOL    HW157055  13.447   6.192  11.867
18427SOL    HW257056  13.564   6.279  11.906
18428SOL     OW57057   7.025   2.504   9.496
18428SOL    HW157058   7.050   2.579   9.442
18428SOL    HW257059   7.087   2.436   9.471
18429SOL     OW57060   6.214  11.476   4.462
18429SOL    HW157061   6.218  11.452   4.555
18429SOL    HW257062   6.271  11.553   4.455
18430SOL     OW57063   3.680   1.565   1.451
18430SOL    HW157064   3.714   1.485   1.412
18430SOL    HW257065   3.618   1.600   1.386
18431SOL     OW57066   3.881   2.880   1.741
18431SOL    HW157067   3.963   2.916   1.774
18431SOL    HW257068   3.813   2.923   1.793
18432SOL     OW57069   8.314   5.185   8.103
18432SOL    HW157070   8.294   5.266   8.151
18432SOL    HW257071   8.277   5.199   8.016
18433SOL     OW57072   3.796  14.566   8.341
18433SOL    HW157073   3.803  14.547   8.247
18433SOL    HW257074   3.856  14.640   8.355
18434SOL     OW57075  14.287   5.554   8.764
18434SOL    HW157076  14.252   5.588   8.846
18434SOL    HW257077  14.290   5.459   8.776
18435SOL     OW57078   8.818  11.068  14.787
18435SOL    HW157079   8.900  11.087  14.832
18435SOL    HW257080   8.828  10.979  14.755
18436SOL     OW57081   0.181   0.775  13.070
18436SOL    HW157082   0.143   0.799  13.155
18436SOL    HW257083   0.106   0.761  13.013
18437SOL     OW57084  13.414  12.112  13.782
18437SOL    HW157085  13.418  12.118  13.686
18437SOL    HW257086  13.331  12.067  13.799
18438SOL     OW57087   6.742   7.966   1.848
18438SOL    HW157088   6.811   7.961   1.914
18438SOL    HW257089   6.728   7.876   1.820
18439SOL     OW57090   8.820   9.120  11.414
18439SOL    HW157091   8.894   9.092  11.361
18439SOL    HW257092   8.834   9.213  11.429
18440SOL     OW57093  10.742  13.983   6.378
18440SOL    HW157094  10.712  13.970   6.468
18440SOL    HW257095  10.827  14.027   6.387
18441SOL     OW57096   8.222   7.227  14.627
18441SOL    HW157097   8.232   7.313  14.588
18441SOL    HW257098   8.132   7.226  14.661
18442SOL     OW57099  12.177   5.458   0.729
18442SOL    HW157100  12.106   5.478   0.668
18442SOL    HW257101  12.253   5.506   0.695
18443SOL     OW57102  14.677   6.273  10.463
18443SOL    HW157103  14.671   6.250  10.555
18443SOL    HW257104  14.722   6.357  10.461
18444SOL     OW57105   1.821  14.736  14.339
18444SOL    HW157106   1.791  14.739  14.430
18444SOL    HW257107   1.909  14.699  14.344
18445SOL     OW57108   4.940   8.452   9.502
18445SOL    HW157109   4.904   8.420   9.419
18445SOL    HW257110   4.997   8.525   9.477
18446SOL     OW57111  14.672   0.945  10.238
18446SOL    HW157112  14.635   0.931  10.151
18446SOL    HW257113  14.610   0.903  10.298
18447SOL     OW57114  11.141   1.351  13.191
18447SOL    HW157115  11.176   1.440  13.191
18447SOL    HW257116  11.120   1.333  13.100
18448SOL     OW57117  11.202   9.048   8.018
18448SOL    HW157118  11.297   9.054   8.028
18448SOL    HW257119  11.176   8.977   8.077
18449SOL     OW57120   0.998   0.926   1.515
18449SOL    HW157121   1.018   0.832   1.517
18449SOL    HW257122   1.065   0.964   1.459
18450SOL     OW57123   9.163   1.802   0.676
18450SOL    HW157124   9.073   1.834   0.669
18450SOL    HW257125   9.161   1.715   0.638
18451SOL     OW57126   3.455   8.943  13.451
18451SOL    HW157127   3.451   8.863  13.502
18451SOL    HW257128   3.413   8.922  13.368
18452SOL     OW57129  14.779  14.080  10.521
18452SOL    HW157130  14.797  14.170  10.547
18452SOL    HW257131  14.687  14.080  10.495
18453SOL     OW57132   2.589   1.489   1.853
18453SOL    HW157133   2.628   1.417   1.902
18453SOL    HW257134   2.637   1.490   1.770
18454SOL     OW57135  11.249   2.498  13.280
18454SOL    HW157136  11.267   2.592  13.288
18454SOL    HW257137  11.170   2.484  13.332
18455SOL     OW57138   0.596   1.041   8.399
18455SOL    HW157139   0.628   1.008   8.483
18455SOL    HW257140   0.507   1.071   8.417
18456SOL     OW57141   4.659   9.465   8.937
18456SOL    HW157142   4.742   9.422   8.918
18456SOL    HW257143   4.665   9.549   8.890
18457SOL     OW57144  14.171  10.369  12.644
18457SOL    HW157145  14.191  10.439  12.582
18457SOL    HW257146  14.256  10.341  12.677
18458SOL     OW57147   3.363  10.224   3.767
18458SOL    HW157148   3.357  10.311   3.806
18458SOL    HW257149   3.322  10.166   3.830
18459SOL     OW57150   9.259   0.975  14.872
18459SOL    HW157151   9.227   0.972   0.084
18459SOL    HW257152   9.263   0.883  14.846
18460SOL     OW57153   3.872   8.324   1.206
18460SOL    HW157154   3.838   8.325   1.117
18460SOL    HW257155   3.906   8.413   1.219
18461SOL     OW57156  12.145   8.793   7.673
18461SOL    HW157157  12.123   8.881   7.703
18461SOL    HW257158  12.176   8.748   7.751
18462SOL     OW57159   6.149   8.017   7.429
18462SOL    HW157160   6.104   8.101   7.417
18462SOL    HW257161   6.108   7.959   7.364
18463SOL     OW57162  10.564   6.406  12.534
18463SOL    HW157163  10.505   6.412  12.459
18463SOL    HW257164  10.609   6.322  12.523
18464SOL     OW57165   6.585  13.255  13.002
18464SOL    HW157166   6.643  13.196  12.954
18464SOL    HW257167   6.567  13.209  13.084
18465SOL     OW57168   6.759   5.248  11.038
18465SOL    HW157169   6.701   5.313  11.078
18465SOL    HW257170   6.737   5.250  10.945
18466SOL     OW57171  10.612   7.124  13.066
18466SOL    HW157172  10.535   7.180  13.072
18466SOL    HW257173  10.669   7.152  13.137
18467SOL     OW57174  13.225  13.991   0.027
18467SOL    HW157175  13.312  14.028   0.012
18467SOL    HW257176  13.224  13.910  14.854
18468SOL     OW57177   5.103  10.362   8.393
18468SOL    HW157178   5.063  10.440   8.430
18468SOL    HW257179   5.117  10.304   8.468
18469SOL     OW57180   6.654   5.839   2.828
18469SOL    HW157181   6.659   5.788   2.747
18469SOL    HW257182   6.595   5.911   2.807
18470SOL     OW57183  13.330   3.657  12.281
18470SOL    HW157184  13.398   3.593  12.299
18470SOL    HW257185  13.248   3.610  12.298
18471SOL     OW57186   2.329   8.412   5.572
18471SOL    HW157187   2.288   8.358   5.505
18471SOL    HW257188   2.423   8.393   5.565
18472SOL     OW57189  14.413   5.801   2.344
18472SOL    HW157190  14.369   5.880   2.376
18472SOL    HW257191  14.342   5.747   2.310
18473SOL     OW57192   0.226   7.213  13.016
18473SOL    HW157193   0.213   7.247  13.105
18473SOL    HW257194   0.256   7.123  13.030
18474SOL     OW57195   5.953   6.304  13.221
18474SOL    HW157196   5.906   6.364  13.162
18474SOL    HW257197   6.045   6.317  13.200
18475SOL     OW57198   5.338  11.072  12.156
18475SOL    HW157199   5.279  11.082  12.231
18475SOL    HW257200   5.360  10.979  12.155
18476SOL     OW57201  12.749  10.492   7.376
18476SOL    HW157202  12.684  10.562   7.375
18476SOL    HW257203  12.780  10.489   7.467
18477SOL     OW57204   0.419   5.661   8.991
18477SOL    HW157205   0.504   5.685   8.955
18477SOL    HW257206   0.384   5.743   9.027
18478SOL     OW57207  11.887   4.706   5.742
18478SOL    HW157208  11.887   4.613   5.764
18478SOL    HW257209  11.962   4.718   5.685
18479SOL     OW57210   1.816   6.741  13.276
18479SOL    HW157211   1.830   6.830  13.243
18479SOL    HW257212   1.824   6.685  13.198
18480SOL     OW57213   6.549  14.081   9.099
18480SOL    HW157214   6.483  14.043   9.157
18480SOL    HW257215   6.552  14.174   9.124
18481SOL     OW57216  13.672  12.737   8.847
18481SOL    HW157217  13.654  12.812   8.790
18481SOL    HW257218  13.661  12.660   8.790
18482SOL     OW57219  12.668   7.892   4.577
18482SOL    HW157220  12.652   7.859   4.489
18482SOL    HW257221  12.712   7.976   4.564
18483SOL     OW57222   5.042  14.852   1.015
18483SOL    HW157223   5.073   0.064   1.016
18483SOL    HW257224   5.113  14.802   1.057
18484SOL     OW57225   2.724   0.148   0.111
18484SOL    HW157226   2.667   0.098   0.052
18484SOL    HW257227   2.774   0.081   0.157
18485SOL     OW57228   7.998   3.376   2.542
18485SOL    HW157229   8.056   3.309   2.508
18485SOL    HW257230   8.036   3.400   2.626
18486SOL     OW57231   2.421   5.465  12.585
18486SOL    HW157232   2.346   5.516  12.615
18486SOL    HW257233   2.455   5.514  12.510
18487SOL     OW57234  12.019   2.544   3.625
18487SOL    HW157235  12.099   2.495   3.606
18487SOL    HW257236  11.956   2.478   3.652
18488SOL     OW57237   8.744  10.346  10.354
18488SOL    HW157238   8.777  10.412  10.293
18488SOL    HW257239   8.696  10.284  10.299
18489SOL     OW57240  11.279   6.524   8.735
18489SOL    HW157241  11.201   6.576   8.752
18489SOL    HW257242  11.341   6.586   8.697
18490SOL     OW57243   0.950  11.080  12.758
18490SOL    HW157244   0.861  11.098  12.788
18490SOL    HW257245   0.948  11.099  12.664
18491SOL     OW57246  14.849   0.204  11.642
18491SOL    HW157247  14.854   0.111  11.618
18491SOL    HW257248  14.755   0.221  11.651
18492SOL     OW57249  11.925   8.319   6.862
18492SOL    HW157250  11.985   8.358   6.926
18492SOL    HW257251  11.934   8.224   6.875
18493SOL     OW57252   7.112  14.487   6.654
18493SOL    HW157253   7.097  14.550   6.724
18493SOL    HW257254   7.027  14.479   6.610
18494SOL     OW57255   1.138   4.191   6.660
18494SOL    HW157256   1.191   4.219   6.585
18494SOL    HW257257   1.139   4.267   6.719
18495SOL     OW57258   8.756   1.905   5.322
18495SOL    HW157259   8.756   1.901   5.226
18495SOL    HW257260   8.805   1.985   5.343
18496SOL     OW57261   2.571   7.376   5.129
18496SOL    HW157262   2.554   7.470   5.127
18496SOL    HW257263   2.526   7.341   5.052
18497SOL     OW57264  14.520  11.127   8.537
18497SOL    HW157265  14.566  11.167   8.610
18497SOL    HW257266  14.459  11.195   8.507
18498SOL     OW57267   8.400   3.585  12.630
18498SOL    HW157268   8.399   3.655  12.695
18498SOL    HW257269   8.387   3.505  12.681
18499SOL     OW57270   6.160  13.708  13.242
18499SOL    HW157271   6.083  13.737  13.291
18499SOL    HW257272   6.133  13.715  13.150
18500SOL     OW57273  10.318  10.796   9.059
18500SOL    HW157274  10.300  10.718   9.112
18500SOL    HW257275  10.241  10.852   9.073
18501SOL     OW57276   3.810   0.161   6.687
18501SOL    HW157277   3.870   0.099   6.728
18501SOL    HW257278   3.732   0.109   6.666
18502SOL     OW57279   9.321   3.196  13.201
18502SOL    HW157280   9.353   3.256  13.133
18502SOL    HW257281   9.289   3.254  13.270
18503SOL     OW57282  13.636   7.491   1.617
18503SOL    HW157283  13.575   7.493   1.543
18503SOL    HW257284  13.588   7.531   1.690
18504SOL     OW57285  11.683   3.380   2.812
18504SOL    HW157286  11.695   3.350   2.722
18504SOL    HW257287  11.718   3.309   2.866
18505SOL     OW57288   8.614   1.153   6.069
18505SOL    HW157289   8.704   1.176   6.046
18505SOL    HW257290   8.566   1.235   6.061
18506SOL     OW57291  12.500   3.520   5.247
18506SOL    HW157292  12.540   3.539   5.162
18506SOL    HW257293  12.425   3.464   5.225
18507SOL     OW57294   5.428   2.074  10.770
18507SOL    HW157295   5.417   1.984  10.740
18507SOL    HW257296   5.473   2.118  10.697
18508SOL     OW57297   4.776  10.483   9.514
18508SOL    HW157298   4.772  10.531   9.597
18508SOL    HW257299   4.785  10.391   9.540
18509SOL     OW57300  10.133   4.724  12.164
18509SOL    HW157301  10.087   4.703  12.082
18509SOL    HW257302  10.201   4.786  12.138
18510SOL     OW57303   4.049  14.846   3.873
18510SOL    HW157304   4.088   0.039   3.822
18510SOL    HW257305   3.963  14.831   3.834
18511SOL     OW57306   0.076   5.477  13.579
18511SOL    HW157307   0.013   5.418  13.539
18511SOL    HW257308   0.064   5.560  13.532
18512SOL     OW57309   0.262  10.637  10.868
18512SOL    HW157310   0.189  10.679  10.913
18512SOL    HW257311   0.264  10.547  10.903
18513SOL     OW57312  11.057   6.384   2.449
18513SOL    HW157313  11.075   6.361   2.358
18513SOL    HW257314  11.085   6.474   2.457
18514SOL     OW57315   0.579   7.120   1.797
18514SOL    HW157316   0.581   7.179   1.872
18514SOL    HW257317   0.609   7.036   1.831
18515SOL     OW57318   6.391  10.297   3.280
18515SOL    HW157319   6.414  10.300   3.187
18515SOL    HW257320   6.447  10.228   3.317
18516SOL     OW57321   4.663   5.612  13.973
18516SOL    HW157322   4.680   5.691  13.922
18516SOL    HW257323   4.739   5.557  13.957
18517SOL     OW57324  12.768  12.216  13.540
18517SOL    HW157325  12.840  12.273  13.512
18517SOL    HW257326  12.698  12.277  13.566
18518SOL     OW57327   1.892   7.120  12.416
18518SOL    HW157328   1.872   7.032  12.383
18518SOL    HW257329   1.976   7.110  12.460
18519SOL     OW57330  10.914   4.709   1.066
18519SOL    HW157331  10.875   4.621   1.069
18519SOL    HW257332  10.988   4.699   1.006
18520SOL     OW57333   9.785   8.552   2.913
18520SOL    HW157334   9.807   8.604   2.836
18520SOL    HW257335   9.691   8.536   2.905
18521SOL     OW57336   1.491   0.413   3.626
18521SOL    HW157337   1.442   0.339   3.590
18521SOL    HW257338   1.543   0.375   3.697
18522SOL     OW57339   7.078  11.035   5.176
18522SOL    HW157340   7.087  10.985   5.257
18522SOL    HW257341   7.012  11.101   5.196
18523SOL     OW57342  13.810   8.641   9.372
18523SOL    HW157343  13.767   8.557   9.386
18523SOL    HW257344  13.747   8.692   9.322
18524SOL     OW57345   8.654   2.766   6.429
18524SOL    HW157346   8.735   2.750   6.477
18524SOL    HW257347   8.663   2.714   6.349
18525SOL     OW57348   7.099   8.150   8.219
18525SOL    HW157349   7.036   8.082   8.244
18525SOL    HW257350   7.184   8.114   8.243
18526SOL     OW57351   3.686   2.909   4.349
18526SOL    HW157352   3.685   3.001   4.375
18526SOL    HW257353   3.692   2.912   4.253
18527SOL     OW57354   9.358  11.226  10.578
18527SOL    HW157355   9.435  11.215  10.523
18527SOL    HW257356   9.391  11.222  10.668
18528SOL     OW57357   9.100   1.464   2.023
18528SOL    HW157358   9.073   1.397   2.085
18528SOL    HW257359   9.085   1.426   1.937
18529SOL     OW57360  11.060  12.701  13.501
18529SOL    HW157361  11.083  12.621  13.548
18529SOL    HW257362  11.067  12.770  13.566
18530SOL     OW57363   7.703   8.320   8.058
18530SOL    HW157364   7.776   8.375   8.084
18530SOL    HW257365   7.628   8.353   8.107
18531SOL     OW57366   7.356  12.122  13.251
18531SOL    HW157367   7.357  12.042  13.304
18531SOL    HW257368   7.265  12.130  13.222
18532SOL     OW57369   6.223   4.611   8.712
18532SOL    HW157370   6.208   4.527   8.755
18532SOL    HW257371   6.207   4.594   8.620
18533SOL     OW57372   5.772   4.746   4.704
18533SOL    HW157373   5.705   4.792   4.653
18533SOL    HW257374   5.853   4.791   4.684
18534SOL     OW57375   3.279   7.411   1.022
18534SOL    HW157376   3.187   7.386   1.034
18534SOL    HW257377   3.299   7.386   0.932
18535SOL     OW57378   6.144   0.029  12.059
18535SOL    HW157379   6.207  14.839  12.084
18535SOL    HW257380   6.119   0.006  11.969
18536SOL     OW57381  13.123  11.941   0.064
18536SOL    HW157382  13.091  11.970   0.149
18536SOL    HW257383  13.156  12.021   0.022
18537SOL     OW57384   0.281   3.441  14.767
18537SOL    HW157385   0.251   3.523  14.728
18537SOL    HW257386   0.210   3.379  14.752
18538SOL     OW57387   9.457   2.623   4.369
18538SOL    HW157388   9.474   2.715   4.392
18538SOL    HW257389   9.538   2.577   4.392
18539SOL     OW57390   6.010   3.778   8.441
18539SOL    HW157391   6.050   3.747   8.523
18539SOL    HW257392   6.034   3.712   8.376
18540SOL     OW57393   1.256   3.057   1.532
18540SOL    HW157394   1.285   3.052   1.623
18540SOL    HW257395   1.245   2.966   1.505
18541SOL     OW57396   6.751   8.604   0.688
18541SOL    HW157397   6.723   8.681   0.639
18541SOL    HW257398   6.787   8.638   0.770
18542SOL     OW57399   4.112   4.516   9.720
18542SOL    HW157400   4.150   4.475   9.798
18542SOL    HW257401   4.098   4.608   9.746
18543SOL     OW57402   8.960   2.470   4.759
18543SOL    HW157403   8.866   2.470   4.741
18543SOL    HW257404   8.968   2.425   4.843
18544SOL     OW57405   2.401  14.103   3.577
18544SOL    HW157406   2.405  14.135   3.487
18544SOL    HW257407   2.412  14.182   3.630
18545SOL     OW57408   9.695  13.872   3.679
18545SOL    HW157409   9.659  13.851   3.765
18545SOL    HW257410   9.622  13.908   3.630
18546SOL     OW57411   0.076   8.208   3.900
18546SOL    HW157412   0.105   8.125   3.861
18546SOL    HW257413  14.860   8.209   3.886
18547SOL     OW57414   7.859  10.830   9.355
18547SOL    HW157415   7.856  10.919   9.320
18547SOL    HW257416   7.915  10.837   9.433
18548SOL     OW57417   1.699  11.467   1.545
18548SOL    HW157418   1.661  11.488   1.630
18548SOL    HW257419   1.627  11.476   1.483
18549SOL     OW57420   6.306  10.011  13.839
18549SOL    HW157421   6.287   9.962  13.759
18549SOL    HW257422   6.340   9.946  13.900
18550SOL     OW57423   8.458   9.810  11.292
18550SOL    HW157424   8.522   9.749  11.255
18550SOL    HW257425   8.487   9.823  11.382
18551SOL     OW57426   8.427   0.636   3.079
18551SOL    HW157427   8.418   0.593   2.994
18551SOL    HW257428   8.455   0.567   3.138
18552SOL     OW57429   3.676  11.282   4.509
18552SOL    HW157430   3.690  11.375   4.493
18552SOL    HW257431   3.652  11.277   4.601
18553SOL     OW57432  13.792   7.142  14.317
18553SOL    HW157433  13.879   7.182  14.312
18553SOL    HW257434  13.747   7.191  14.387
18554SOL     OW57435  11.146  14.220   7.549
18554SOL    HW157436  11.138  14.206   7.454
18554SOL    HW257437  11.227  14.270   7.558
18555SOL     OW57438  13.678   5.064   5.196
18555SOL    HW157439  13.672   5.059   5.101
18555SOL    HW257440  13.694   5.157   5.214
18556SOL     OW57441   1.516   1.063   0.499
18556SOL    HW157442   1.438   1.010   0.487
18556SOL    HW257443   1.484   1.153   0.504
18557SOL     OW57444   0.919   2.639   8.467
18557SOL    HW157445   0.862   2.617   8.393
18557SOL    HW257446   0.954   2.726   8.444
18558SOL     OW57447   5.570   7.617   5.469
18558SOL    HW157448   5.507   7.547   5.450
18558SOL    HW257449   5.515   7.690   5.498
18559SOL     OW57450   2.329  12.507  14.260
18559SOL    HW157451   2.394  12.455  14.212
18559SOL    HW257452   2.265  12.444  14.291
18560SOL     OW57453   4.987   1.440  14.444
18560SOL    HW157454   5.020   1.529  14.433
18560SOL    HW257455   5.063   1.384  14.429
18561SOL     OW57456  12.616   3.902  13.092
18561SOL    HW157457  12.674   3.887  13.017
18561SOL    HW257458  12.553   3.829  13.088
18562SOL     OW57459   1.500  12.464   5.615
18562SOL    HW157460   1.542  12.450   5.531
18562SOL    HW257461   1.544  12.542   5.651
18563SOL     OW57462   6.983   8.869   0.511
18563SOL    HW157463   6.910   8.810   0.496
18563SOL    HW257464   6.985   8.926   0.433
18564SOL     OW57465   6.346  13.345   3.617
18564SOL    HW157466   6.421  13.396   3.647
18564SOL    HW257467   6.379  13.294   3.543
18565SOL     OW57468  13.765  14.038   6.823
18565SOL    HW157469  13.827  14.059   6.754
18565SOL    HW257470  13.779  13.945   6.841
18566SOL     OW57471   8.294   1.606   9.147
18566SOL    HW157472   8.320   1.522   9.185
18566SOL    HW257473   8.367   1.631   9.090
18567SOL     OW57474   1.456   2.242   8.482
18567SOL    HW157475   1.510   2.164   8.491
18567SOL    HW257476   1.370   2.216   8.515
18568SOL     OW57477   6.151   5.710  10.837
18568SOL    HW157478   6.088   5.645  10.867
18568SOL    HW257479   6.162   5.693  10.744
18569SOL     OW57480  14.847  10.035  13.760
18569SOL    HW157481   0.008  10.120  13.781
18569SOL    HW257482   0.044   9.976  13.748
18570SOL     OW57483  11.471   1.069  10.870
18570SOL    HW157484  11.559   1.038  10.850
18570SOL    HW257485  11.448   1.125  10.796
18571SOL     OW57486   3.930   2.310   6.083
18571SOL    HW157487   3.847   2.357   6.090
18571SOL    HW257488   3.975   2.352   6.010
18572SOL     OW57489   3.311  10.508   9.698
18572SOL    HW157490   3.352  10.463   9.624
18572SOL    HW257491   3.232  10.546   9.661
18573SOL     OW57492   1.061  11.071  11.478
18573SOL    HW157493   0.995  11.118  11.528
18573SOL    HW257494   1.132  11.054  11.540
18574SOL     OW57495   9.130   1.701   4.925
18574SOL    HW157496   9.050   1.707   4.978
18574SOL    HW257497   9.145   1.607   4.916
18575SOL     OW57498   8.392   6.840   5.095
18575SOL    HW157499   8.392   6.930   5.063
18575SOL    HW257500   8.473   6.833   5.146
18576SOL     OW57501   9.045   3.886   6.504
18576SOL    HW157502   9.024   3.817   6.566
18576SOL    HW257503   9.077   3.841   6.426
18577SOL     OW57504   6.558   8.994   6.247
18577SOL    HW157505   6.561   9.081   6.286
18577SOL    HW257506   6.468   8.964   6.262
18578SOL     OW57507   6.340  14.136   6.029
18578SOL    HW157508   6.352  14.231   6.022
18578SOL    HW257509   6.347  14.118   6.123
18579SOL     OW57510  13.725  14.025  10.851
18579SOL    HW157511  13.736  13.950  10.908
18579SOL    HW257512  13.706  13.987  10.765
18580SOL     OW57513  10.819   8.623  11.366
18580SOL    HW157514  10.826   8.548  11.306
18580SOL    HW257515  10.805   8.583  11.452
18581SOL     OW57516   1.071   0.368  12.202
18581SOL    HW157517   1.061   0.283  12.160
18581SOL    HW257518   1.109   0.349  12.287
18582SOL     OW57519   5.905   7.529  12.967
18582SOL    HW157520   5.842   7.458  12.966
18582SOL    HW257521   5.974   7.500  13.026
18583SOL     OW57522   6.142   0.968   2.363
18583SOL    HW157523   6.212   0.964   2.298
18583SOL    HW257524   6.062   0.976   2.311
18584SOL     OW57525  10.267  11.399  13.418
18584SOL    HW157526  10.182  11.360  13.398
18584SOL    HW257527  10.246  11.483  13.460
18585SOL     OW57528   2.057  10.173   3.979
18585SOL    HW157529   2.061  10.161   3.884
18585SOL    HW257530   2.128  10.234   3.998
18586SOL     OW57531   9.165  14.772   1.488
18586SOL    HW157532   9.082  14.745   1.528
18586SOL    HW257533   9.232  14.751   1.553
18587SOL     OW57534  14.250  11.751  10.546
18587SOL    HW157535  14.309  11.745  10.471
18587SOL    HW257536  14.164  11.729  10.510
18588SOL     OW57537   9.956   7.943   4.782
18588SOL    HW157538   9.896   7.918   4.852
18588SOL    HW257539   9.997   8.024   4.812
18589SOL     OW57540   4.367  11.721   5.947
18589SOL    HW157541   4.311  11.794   5.921
18589SOL    HW257542   4.424  11.757   6.015
18590SOL     OW57543   3.509   1.367   3.072
18590SOL    HW157544   3.474   1.375   2.984
18590SOL    HW257545   3.524   1.457   3.101
18591SOL     OW57546   1.652   1.195   5.297
18591SOL    HW157547   1.704   1.171   5.220
18591SOL    HW257548   1.650   1.291   5.295
18592SOL     OW57549  14.335   7.983  14.650
18592SOL    HW157550  14.350   7.978  14.556
18592SOL    HW257551  14.418   7.956  14.689
18593SOL     OW57552  13.780  13.078   1.077
18593SOL    HW157553  13.762  13.106   1.167
18593SOL    HW257554  13.694  13.064   1.038
18594SOL     OW57555   1.439  11.297   5.253
18594SOL    HW157556   1.381  11.335   5.187
18594SOL    HW257557   1.386  11.229   5.295
18595SOL     OW57558   8.165  13.263  11.719
18595SOL    HW157559   8.099  13.320  11.679
18595SOL    HW257560   8.148  13.267  11.813
18596SOL     OW57561   9.493   4.251   3.366
18596SOL    HW157562   9.573   4.302   3.380
18596SOL    HW257563   9.515   4.192   3.293
18597SOL     OW57564  11.472   5.452   5.739
18597SOL    HW157565  11.513   5.537   5.751
18597SOL    HW257566  11.406   5.466   5.670
18598SOL     OW57567   3.512   5.716   1.279
18598SOL    HW157568   3.456   5.674   1.214
18598SOL    HW257569   3.487   5.676   1.362
18599SOL     OW57570   5.132   0.053   7.034
18599SOL    HW157571   5.131  14.859   7.098
18599SOL    HW257572   5.221   0.054   7.000
18600SOL     OW57573   8.267   7.034   8.944
18600SOL    HW157574   8.252   6.950   8.988
18600SOL    HW257575   8.184   7.054   8.900
18601SOL     OW57576   0.411   7.240   9.178
18601SOL    HW157577   0.377   7.329   9.166
18601SOL    HW257578   0.458   7.221   9.097
18602SOL     OW57579   2.842  11.318  14.478
18602SOL    HW157580   2.796  11.349  14.556
18602SOL    HW257581   2.927  11.288  14.512
18603SOL     OW57582   3.996  12.665   8.601
18603SOL    HW157583   4.043  12.749   8.602
18603SOL    HW257584   3.909  12.687   8.567
18604SOL     OW57585  10.554   9.551   6.578
18604SOL    HW157586  10.544   9.511   6.492
18604SOL    HW257587  10.485   9.618   6.581
18605SOL     OW57588   0.420   2.286   6.478
18605SOL    HW157589   0.506   2.320   6.502
18605SOL    HW257590   0.371   2.283   6.561
18606SOL     OW57591   1.911  13.693   4.861
18606SOL    HW157592   1.891  13.600   4.848
18606SOL    HW257593   1.900  13.706   4.955
18607SOL     OW57594  12.029   7.548  11.227
18607SOL    HW157595  12.008   7.471  11.280
18607SOL    HW257596  11.946   7.572  11.186
18608SOL     OW57597   0.834  13.888   3.426
18608SOL    HW157598   0.850  13.871   3.333
18608SOL    HW257599   0.739  13.894   3.433
18609SOL     OW57600  14.759  11.694  14.745
18609SOL    HW157601  14.848  11.696  14.711
18609SOL    HW257602  14.709  11.751  14.687
18610SOL     OW57603   2.471  12.212  13.212
18610SOL    HW157604   2.404  12.280  13.203
18610SOL    HW257605   2.532  12.246  13.278
18611SOL     OW57606   8.502   9.433  13.897
18611SOL    HW157607   8.593   9.405  13.906
18611SOL    HW257608   8.493   9.505  13.959
18612SOL     OW57609   2.686   5.535   5.988
18612SOL    HW157610   2.750   5.606   5.996
18612SOL    HW257611   2.616   5.558   6.049
18613SOL     OW57612  10.553   8.642   1.780
18613SOL    HW157613  10.554   8.565   1.723
18613SOL    HW257614  10.626   8.628   1.840
18614SOL     OW57615   2.304   0.526   9.834
18614SOL    HW157616   2.280   0.616   9.812
18614SOL    HW257617   2.239   0.498   9.898
18615SOL     OW57618   7.140   4.500   4.542
18615SOL    HW157619   7.149   4.511   4.636
18615SOL    HW257620   7.188   4.574   4.504
18616SOL     OW57621   4.881  10.992   8.107
18616SOL    HW157622   4.901  10.928   8.039
18616SOL    HW257623   4.785  10.998   8.108
18617SOL     OW57624   2.738   1.402  10.901
18617SOL    HW157625   2.830   1.426  10.889
18617SOL    HW257626   2.706   1.383  10.813
18618SOL     OW57627  12.091   9.015   1.786
18618SOL    HW157628  12.030   8.987   1.854
18618SOL    HW257629  12.049   8.989   1.704
18619SOL     OW57630   4.101  13.616   1.126
18619SOL    HW157631   4.104  13.580   1.037
18619SOL    HW257632   4.021  13.668   1.128
18620SOL     OW57633   0.313   5.247   9.949
18620SOL    HW157634   0.363   5.195   9.886
18620SOL    HW257635   0.239   5.281   9.898
18621SOL     OW57636  13.507   5.710   3.277
18621SOL    HW157637  13.569   5.783   3.268
18621SOL    HW257638  13.445   5.739   3.343
18622SOL     OW57639   2.916   4.076   2.692
18622SOL    HW157640   2.938   4.155   2.741
18622SOL    HW257641   2.853   4.107   2.626
18623SOL     OW57642  10.838   4.640   3.475
18623SOL    HW157643  10.857   4.567   3.534
18623SOL    HW257644  10.807   4.710   3.532
18624SOL     OW57645  14.616   8.318  11.066
18624SOL    HW157646  14.611   8.376  10.990
18624SOL    HW257647  14.644   8.234  11.030
18625SOL     OW57648   4.692  10.869   4.628
18625SOL    HW157649   4.699  10.806   4.557
18625SOL    HW257650   4.657  10.819   4.702
18626SOL     OW57651   6.029   6.855   1.642
18626SOL    HW157652   6.032   6.777   1.697
18626SOL    HW257653   5.959   6.836   1.579
18627SOL     OW57654   9.688  12.016  10.834
18627SOL    HW157655   9.747  11.942  10.820
18627SOL    HW257656   9.618  12.003  10.770
18628SOL     OW57657  13.896   4.739   6.521
18628SOL    HW157658  13.859   4.739   6.609
18628SOL    HW257659  13.835   4.687   6.469
18629SOL     OW57660  10.907   5.227   0.287
18629SOL    HW157661  10.928   5.316   0.315
18629SOL    HW257662  10.963   5.212   0.211
18630SOL     OW57663   8.629  11.680   3.782
18630SOL    HW157664   8.573  11.629   3.840
18630SOL    HW257665   8.593  11.664   3.694
18631SOL     OW57666  11.658   7.141   9.167
18631SOL    HW157667  11.743   7.168   9.132
18631SOL    HW257668  11.677   7.109   9.255
18632SOL     OW57669   9.506  10.454  13.883
18632SOL    HW157670   9.444  10.498  13.826
18632SOL    HW257671   9.458  10.439  13.964
18633SOL     OW57672   9.491  10.507   1.490
18633SOL    HW157673   9.486  10.487   1.584
18633SOL    HW257674   9.410  10.555   1.472
18634SOL     OW57675  10.809  12.971   9.294
18634SOL    HW157676  10.761  12.889   9.309
18634SOL    HW257677  10.742  13.031   9.261
18635SOL     OW57678   0.367  14.094   8.809
18635SOL    HW157679   0.300  14.028   8.793
18635SOL    HW257680   0.429  14.083   8.737
18636SOL     OW57681  10.598   7.395   5.189
18636SOL    HW157682  10.533   7.426   5.126
18636SOL    HW257683  10.627   7.474   5.234
18637SOL     OW57684   8.394   6.525   3.871
18637SOL    HW157685   8.432   6.473   3.801
18637SOL    HW257686   8.446   6.605   3.873
18638SOL     OW57687   3.398   4.742   6.662
18638SOL    HW157688   3.386   4.818   6.605
18638SOL    HW257689   3.376   4.773   6.749
18639SOL     OW57690   5.295   7.040  12.995
18639SOL    HW157691   5.206   7.067  13.017
18639SOL    HW257692   5.284   6.960  12.943
18640SOL     OW57693   7.634  13.091   0.393
18640SOL    HW157694   7.698  13.082   0.464
18640SOL    HW257695   7.606  13.183   0.399
18641SOL     OW57696   1.029  11.785   1.718
18641SOL    HW157697   0.967  11.812   1.651
18641SOL    HW257698   1.076  11.865   1.741
18642SOL     OW57699   9.287   4.615   7.222
18642SOL    HW157700   9.222   4.552   7.192
18642SOL    HW257701   9.278   4.616   7.317
18643SOL     OW57702  14.287   7.058   7.974
18643SOL    HW157703  14.380   7.044   7.988
18643SOL    HW257704  14.255   6.977   7.935
18644SOL     OW57705  12.147   9.805   3.804
18644SOL    HW157706  12.178   9.716   3.825
18644SOL    HW257707  12.082   9.792   3.735
18645SOL     OW57708   3.188   7.530   5.214
18645SOL    HW157709   3.238   7.451   5.194
18645SOL    HW257710   3.242   7.577   5.277
18646SOL     OW57711  13.836   1.461   6.299
18646SOL    HW157712  13.815   1.554   6.287
18646SOL    HW257713  13.922   1.462   6.343
18647SOL     OW57714  10.088  14.131   0.278
18647SOL    HW157715  10.054  14.156   0.364
18647SOL    HW257716  10.069  14.206   0.222
18648SOL     OW57717  13.425   4.211  14.746
18648SOL    HW157718  13.479   4.137  14.720
18648SOL    HW257719  13.487   4.278  14.773
18649SOL     OW57720   0.159  14.429  11.892
18649SOL    HW157721   0.083  14.478  11.860
18649SOL    HW257722   0.198  14.486  11.958
18650SOL     OW57723  14.068   5.259  11.421
18650SOL    HW157724  14.084   5.221  11.507
18650SOL    HW257725  14.035   5.347  11.439
18651SOL     OW57726   3.796   3.348   9.597
18651SOL    HW157727   3.885   3.370   9.625
18651SOL    HW257728   3.786   3.255   9.618
18652SOL     OW57729   0.694  10.832   5.011
18652SOL    HW157730   0.673  10.786   5.092
18652SOL    HW257731   0.634  10.906   5.009
18653SOL     OW57732  11.288   9.970   6.279
18653SOL    HW157733  11.381   9.972   6.298
18653SOL    HW257734  11.257   9.891   6.324
18654SOL     OW57735   2.484   0.689  14.711
18654SOL    HW157736   2.508   0.649  14.795
18654SOL    HW257737   2.527   0.634  14.645
18655SOL     OW57738   9.251   4.670   2.076
18655SOL    HW157739   9.341   4.660   2.107
18655SOL    HW257740   9.197   4.634   2.146
18656SOL     OW57741  13.864   4.660   0.563
18656SOL    HW157742  13.792   4.618   0.515
18656SOL    HW257743  13.825   4.740   0.598
18657SOL     OW57744   1.750   8.428   4.586
18657SOL    HW157745   1.805   8.456   4.659
18657SOL    HW257746   1.715   8.343   4.614
18658SOL     OW57747   0.560   7.492   1.138
18658SOL    HW157748   0.620   7.510   1.210
18658SOL    HW257749   0.506   7.419   1.169
18659SOL     OW57750  11.580  14.424  13.884
18659SOL    HW157751  11.654  14.441  13.941
18659SOL    HW257752  11.590  14.486  13.812
18660SOL     OW57753   4.766   0.713   2.846
18660SOL    HW157754   4.836   0.686   2.786
18660SOL    HW257755   4.801   0.696   2.933
18661SOL     OW57756   1.136  11.338   0.707
18661SOL    HW157757   1.047  11.353   0.737
18661SOL    HW257758   1.127  11.281   0.631
18662SOL     OW57759   6.444   2.136  13.802
18662SOL    HW157760   6.381   2.118  13.732
18662SOL    HW257761   6.418   2.220  13.838
18663SOL     OW57762  13.721   5.348  11.954
18663SOL    HW157763  13.789   5.374  11.892
18663SOL    HW257764  13.731   5.253  11.962
18664SOL     OW57765  14.317   0.074   2.994
18664SOL    HW157766  14.408   0.102   3.006
18664SOL    HW257767  14.304   0.006   3.060
18665SOL     OW57768  14.320   7.196  10.575
18665SOL    HW157769  14.352   7.266  10.632
18665SOL    HW257770  14.303   7.123  10.634
18666SOL     OW57771   5.491   1.025   6.011
18666SOL    HW157772   5.574   0.992   6.045
18666SOL    HW257773   5.449   0.948   5.972
18667SOL     OW57774   7.844   3.727   6.301
18667SOL    HW157775   7.865   3.720   6.394
18667SOL    HW257776   7.767   3.672   6.289
18668SOL     OW57777  10.668  10.411   7.381
18668SOL    HW157778  10.622  10.472   7.324
18668SOL    HW257779  10.756  10.446   7.388
18669SOL     OW57780   8.883   8.009   3.704
18669SOL    HW157781   8.819   7.982   3.638
18669SOL    HW257782   8.961   8.033   3.654
18670SOL     OW57783   1.591   7.390  11.350
18670SOL    HW157784   1.511   7.337  11.349
18670SOL    HW257785   1.580   7.449  11.275
18671SOL     OW57786  13.049   3.335   5.479
18671SOL    HW157787  12.998   3.318   5.558
18671SOL    HW257788  13.022   3.422   5.451
18672SOL     OW57789  10.452   2.177   6.178
18672SOL    HW157790  10.397   2.146   6.251
18672SOL    HW257791  10.393   2.230   6.124
18673SOL     OW57792  12.126  14.242   1.427
18673SOL    HW157793  12.220  14.245   1.446
18673SOL    HW257794  12.084  14.259   1.511
18674SOL     OW57795  13.994  12.465  10.850
18674SOL    HW157796  13.929  12.449  10.780
18674SOL    HW257797  13.996  12.384  10.900
18675SOL     OW57798  10.573   3.955   3.913
18675SOL    HW157799  10.611   3.944   4.000
18675SOL    HW257800  10.496   4.010   3.928
18676SOL     OW57801  14.484  14.165  11.375
18676SOL    HW157802  14.524  14.249  11.397
18676SOL    HW257803  14.408  14.188  11.321
18677SOL     OW57804  13.473   5.378   8.425
18677SOL    HW157805  13.391   5.399   8.469
18677SOL    HW257806  13.523   5.460   8.428
18678SOL     OW57807  12.727  11.424   8.592
18678SOL    HW157808  12.766  11.349   8.637
18678SOL    HW257809  12.763  11.501   8.637
18679SOL     OW57810   3.926   7.477   9.921
18679SOL    HW157811   3.919   7.451  10.013
18679SOL    HW257812   3.927   7.573   9.923
18680SOL     OW57813  12.486  14.317   6.796
18680SOL    HW157814  12.408  14.309   6.741
18680SOL    HW257815  12.451  14.337   6.883
18681SOL     OW57816   4.622  10.447  11.501
18681SOL    HW157817   4.661  10.507  11.437
18681SOL    HW257818   4.532  10.434  11.471
18682SOL     OW57819   6.867  14.624   1.788
18682SOL    HW157820   6.902  14.560   1.850
18682SOL    HW257821   6.930  14.695   1.788
18683SOL     OW57822   9.347   6.090   0.306
18683SOL    HW157823   9.294   6.167   0.324
18683SOL    HW257824   9.311   6.022   0.364
18684SOL     OW57825   8.591   0.679   1.209
18684SOL    HW157826   8.585   0.641   1.297
18684SOL    HW257827   8.500   0.689   1.181
18685SOL     OW57828  12.400  13.906  11.642
18685SOL    HW157829  12.333  13.966  11.675
18685SOL    HW257830  12.352  13.828  11.615
18686SOL     OW57831   8.642   4.400   3.965
18686SOL    HW157832   8.633   4.326   4.025
18686SOL    HW257833   8.721   4.380   3.914
18687SOL     OW57834  11.562   2.829  11.835
18687SOL    HW157835  11.594   2.903  11.784
18687SOL    HW257836  11.542   2.865  11.921
18688SOL     OW57837   9.719  14.787   6.111
18688SOL    HW157838   9.668  14.794   6.030
18688SOL    HW257839   9.653  14.777   6.180
18689SOL     OW57840   9.109   2.384  11.956
18689SOL    HW157841   9.104   2.290  11.975
18689SOL    HW257842   9.188   2.393  11.902
18690SOL     OW57843   3.098   4.976   1.907
18690SOL    HW157844   3.128   5.046   1.966
18690SOL    HW257845   3.018   5.011   1.868
18691SOL     OW57846  11.075  12.957   3.081
18691SOL    HW157847  11.169  12.951   3.098
18691SOL    HW257848  11.037  12.980   3.166
18692SOL     OW57849   2.528   4.792   4.001
18692SOL    HW157850   2.480   4.863   4.043
18692SOL    HW257851   2.512   4.716   4.057
18693SOL     OW57852   7.524  14.050  13.446
18693SOL    HW157853   7.486  14.077  13.530
18693SOL    HW257854   7.601  14.106  13.437
18694SOL     OW57855  13.539   6.513   7.384
18694SOL    HW157856  13.545   6.512   7.289
18694SOL    HW257857  13.461   6.565   7.403
18695SOL     OW57858   7.080   6.818   0.328
18695SOL    HW157859   7.067   6.907   0.361
18695SOL    HW257860   7.042   6.819   0.240
18696SOL     OW57861   0.731   6.512   8.790
18696SOL    HW157862   0.789   6.586   8.773
18696SOL    HW257863   0.777   6.460   8.856
18697SOL     OW57864   1.782   6.455   3.617
18697SOL    HW157865   1.875   6.476   3.609
18697SOL    HW257866   1.760   6.411   3.535
18698SOL     OW57867   4.351   4.572  13.035
18698SOL    HW157868   4.311   4.597  12.951
18698SOL    HW257869   4.328   4.643  13.094
18699SOL     OW57870   3.532   0.196   6.434
18699SOL    HW157871   3.550   0.133   6.504
18699SOL    HW257872   3.437   0.206   6.435
18700SOL     OW57873   3.558   8.627   4.528
18700SOL    HW157874   3.471   8.661   4.550
18700SOL    HW257875   3.544   8.534   4.513
18701SOL     OW57876  12.789   5.416  10.188
18701SOL    HW157877  12.803   5.501  10.229
18701SOL    HW257878  12.841   5.420  10.107
18702SOL     OW57879   9.234   7.307   4.382
18702SOL    HW157880   9.181   7.263   4.449
18702SOL    HW257881   9.201   7.272   4.299
18703SOL     OW57882   9.009   3.013  13.365
18703SOL    HW157883   8.940   2.970  13.415
18703SOL    HW257884   9.053   3.069  13.429
18704SOL     OW57885  13.920  11.743   8.846
18704SOL    HW157886  13.857  11.814   8.837
18704SOL    HW257887  13.874  11.666   8.815
18705SOL     OW57888   3.854   6.552  11.051
18705SOL    HW157889   3.885   6.499  11.124
18705SOL    HW257890   3.917   6.623  11.044
18706SOL     OW57891   4.680   7.154  13.828
18706SOL    HW157892   4.704   7.062  13.817
18706SOL    HW257893   4.717   7.178  13.913
18707SOL     OW57894  13.312   8.254   1.117
18707SOL    HW157895  13.218   8.243   1.107
18707SOL    HW257896  13.333   8.209   1.199
18708SOL     OW57897  11.160  11.356   5.899
18708SOL    HW157898  11.166  11.450   5.884
18708SOL    HW257899  11.067  11.335   5.883
18709SOL     OW57900   4.934   8.036   7.047
18709SOL    HW157901   4.977   7.958   7.081
18709SOL    HW257902   4.870   8.004   6.984
18710SOL     OW57903  14.692   8.462   9.270
18710SOL    HW157904  14.650   8.487   9.187
18710SOL    HW257905  14.639   8.505   9.337
18711SOL     OW57906  10.099   7.024   6.055
18711SOL    HW157907  10.025   7.027   5.994
18711SOL    HW257908  10.165   7.081   6.015
18712SOL     OW57909   7.290  14.322   6.013
18712SOL    HW157910   7.202  14.296   6.042
18712SOL    HW257911   7.293  14.297   5.920
18713SOL     OW57912  14.681   9.939   5.237
18713SOL    HW157913  14.764   9.923   5.193
18713SOL    HW257914  14.697   9.913   5.328
18714SOL     OW57915  13.710   9.823  13.974
18714SOL    HW157916  13.786   9.767  13.959
18714SOL    HW257917  13.641   9.785  13.919
18715SOL     OW57918  10.410  13.498   5.796
18715SOL    HW157919  10.380  13.503   5.887
18715SOL    HW257920  10.417  13.590   5.769
18716SOL     OW57921   5.356   0.372   0.456
18716SOL    HW157922   5.393   0.436   0.518
18716SOL    HW257923   5.414   0.377   0.380
18717SOL     OW57924   9.413   1.555  14.721
18717SOL    HW157925   9.332   1.517  14.754
18717SOL    HW257926   9.411   1.646  14.749
18718SOL     OW57927   4.904  12.990   6.214
18718SOL    HW157928   4.902  13.084   6.230
18718SOL    HW257929   4.993  12.972   6.185
18719SOL     OW57930   2.667  13.374  13.415
18719SOL    HW157931   2.665  13.451  13.472
18719SOL    HW257932   2.590  13.323  13.440
18720SOL     OW57933   9.906  11.453  10.210
18720SOL    HW157934   9.960  11.382  10.174
18720SOL    HW257935   9.816  11.423  10.199
18721SOL     OW57936   1.528  14.077   5.046
18721SOL    HW157937   1.477  14.005   5.010
18721SOL    HW257938   1.497  14.085   5.136
18722SOL     OW57939   6.518  11.231  11.940
18722SOL    HW157940   6.527  11.168  11.868
18722SOL    HW257941   6.427  11.261  11.935
18723SOL     OW57942  11.893  13.926  14.069
18723SOL    HW157943  11.816  13.943  14.124
18723SOL    HW257944  11.884  13.986  13.995
18724SOL     OW57945  12.369   0.180   5.529
18724SOL    HW157946  12.366   0.096   5.484
18724SOL    HW257947  12.437   0.169   5.595
18725SOL     OW57948  13.145   4.877   8.075
18725SOL    HW157949  13.120   4.848   8.163
18725SOL    HW257950  13.105   4.812   8.017
18726SOL     OW57951  12.081   5.089  12.586
18726SOL    HW157952  12.176   5.078  12.597
18726SOL    HW257953  12.052   5.007  12.546
18727SOL     OW57954   0.561   7.003   2.751
18727SOL    HW157955   0.567   6.920   2.704
18727SOL    HW257956   0.485   6.992   2.808
18728SOL     OW57957  13.557   7.314  10.773
18728SOL    HW157958  13.497   7.257  10.821
18728SOL    HW257959  13.644   7.293  10.807
18729SOL     OW57960  10.589  12.531   8.783
18729SOL    HW157961  10.667  12.488   8.816
18729SOL    HW257962  10.535  12.460   8.749
18730SOL     OW57963   9.219   4.583  10.282
18730SOL    HW157964   9.285   4.650  10.296
18730SOL    HW257965   9.229   4.557  10.190
18731SOL     OW57966   8.328   9.819   4.666
18731SOL    HW157967   8.261   9.796   4.730
18731SOL    HW257968   8.299   9.777   4.585
18732SOL     OW57969  12.541   3.617   4.974
18732SOL    HW157970  12.554   3.628   4.879
18732SOL    HW257971  12.448   3.634   4.987
18733SOL     OW57972   9.751   8.313   0.497
18733SOL    HW157973   9.829   8.259   0.499
18733SOL    HW257974   9.763   8.371   0.422
18734SOL     OW57975   3.844  14.062   1.528
18734SOL    HW157976   3.873  14.034   1.615
18734SOL    HW257977   3.922  14.101   1.489
18735SOL     OW57978   9.189   9.340  13.487
18735SOL    HW157979   9.121   9.274  13.472
18735SOL    HW257980   9.256   9.294  13.538
18736SOL     OW57981   6.567   9.444   6.037
18736SOL    HW157982   6.597   9.535   6.039
18736SOL    HW257983   6.640   9.395   6.001
18737SOL     OW57984   4.920   7.000   4.411
18737SOL    HW157985   4.998   6.945   4.418
18737SOL    HW257986   4.953   7.089   4.419
18738SOL     OW57987   6.574   6.413   9.907
18738SOL    HW157988   6.532   6.348   9.851
18738SOL    HW257989   6.582   6.491   9.852
18739SOL     OW57990   0.841   8.878   6.056
18739SOL    HW157991   0.813   8.939   6.125
18739SOL    HW257992   0.936   8.893   6.048
18740SOL     OW57993   7.734  10.805  11.766
18740SOL    HW157994   7.736  10.803  11.670
18740SOL    HW257995   7.746  10.898  11.787
18741SOL     OW57996  14.001   8.655  14.434
18741SOL    HW157997  13.955   8.709  14.370
18741SOL    HW257998  13.958   8.675  14.517
18742SOL     OW57999  13.204  11.290   1.787
18742SOL    HW158000  13.269  11.256   1.725
18742SOL    HW258001  13.150  11.214   1.809
18743SOL     OW58002  13.512  14.552  12.901
18743SOL    HW158003  13.568  14.627  12.920
18743SOL    HW258004  13.490  14.515  12.986
18744SOL     OW58005   9.454   6.292   6.283
18744SOL    HW158006   9.536   6.278   6.330
18744SOL    HW258007   9.405   6.210   6.296
18745SOL     OW58008   1.042   0.545  10.664
18745SOL    HW158009   1.109   0.567  10.599
18745SOL    HW258010   0.999   0.628  10.683
18746SOL     OW58011  13.943   3.954   2.514
18746SOL    HW158012  14.027   3.998   2.515
18746SOL    HW258013  13.953   3.884   2.449
18747SOL     OW58014   3.634  12.940   9.672
18747SOL    HW158015   3.614  13.005   9.739
18747SOL    HW258016   3.724  12.959   9.646
18748SOL     OW58017   2.850   4.148   8.651
18748SOL    HW158018   2.919   4.185   8.597
18748SOL    HW258019   2.776   4.135   8.591
18749SOL     OW58020  14.006   6.744  10.834
18749SOL    HW158021  13.924   6.747  10.882
18749SOL    HW258022  14.071   6.775  10.897
18750SOL     OW58023   6.612   9.384   7.734
18750SOL    HW158024   6.593   9.339   7.816
18750SOL    HW258025   6.661   9.319   7.683
18751SOL     OW58026   5.232   2.919   6.701
18751SOL    HW158027   5.191   2.993   6.656
18751SOL    HW258028   5.219   2.937   6.794
18752SOL     OW58029  10.174   5.861   3.771
18752SOL    HW158030  10.214   5.830   3.852
18752SOL    HW258031  10.088   5.893   3.798
18753SOL     OW58032  10.746   3.626   8.069
18753SOL    HW158033  10.691   3.637   8.147
18753SOL    HW258034  10.834   3.646   8.099
18754SOL     OW58035   5.709   1.900  10.535
18754SOL    HW158036   5.711   1.964  10.464
18754SOL    HW258037   5.801   1.881  10.554
18755SOL     OW58038   6.569   1.479  10.467
18755SOL    HW158039   6.655   1.441  10.454
18755SOL    HW258040   6.541   1.506  10.380
18756SOL     OW58041  10.810  12.443   4.091
18756SOL    HW158042  10.733  12.406   4.048
18756SOL    HW258043  10.823  12.388   4.168
18757SOL     OW58044   5.995   8.359   0.549
18757SOL    HW158045   5.948   8.285   0.509
18757SOL    HW258046   5.964   8.436   0.500
18758SOL     OW58047   1.736   6.771   0.915
18758SOL    HW158048   1.734   6.679   0.942
18758SOL    HW258049   1.676   6.776   0.841
18759SOL     OW58050  11.512   4.572   7.146
18759SOL    HW158051  11.556   4.488   7.134
18759SOL    HW258052  11.423   4.558   7.113
18760SOL     OW58053  12.166  12.026   6.556
18760SOL    HW158054  12.233  12.069   6.610
18760SOL    HW258055  12.084  12.044   6.602
18761SOL     OW58056  14.101   4.221   4.659
18761SOL    HW158057  14.041   4.165   4.707
18761SOL    HW258058  14.057   4.238   4.576
18762SOL     OW58059  13.957   7.529   3.510
18762SOL    HW158060  13.870   7.527   3.471
18762SOL    HW258061  13.941   7.532   3.605
18763SOL     OW58062   3.868   6.940   0.503
18763SOL    HW158063   3.852   6.862   0.450
18763SOL    HW258064   3.782   6.979   0.514
18764SOL     OW58065   9.172   5.821   6.214
18764SOL    HW158066   9.131   5.743   6.176
18764SOL    HW258067   9.180   5.882   6.141
18765SOL     OW58068   5.098   5.999  10.286
18765SOL    HW158069   5.189   5.982  10.263
18765SOL    HW258070   5.071   5.922  10.336
18766SOL     OW58071   5.102  11.444  14.721
18766SOL    HW158072   5.073  11.367  14.770
18766SOL    HW258073   5.156  11.408  14.651
18767SOL     OW58074   6.281  14.187  14.686
18767SOL    HW158075   6.345  14.202  14.755
18767SOL    HW258076   6.200  14.225  14.719
18768SOL     OW58077   5.237  14.446   1.285
18768SOL    HW158078   5.331  14.429   1.290
18768SOL    HW258079   5.227  14.500   1.207
18769SOL     OW58080  11.833   6.534   7.483
18769SOL    HW158081  11.763   6.591   7.514
18769SOL    HW258082  11.792   6.447   7.479
18770SOL     OW58083   9.931   1.516   2.071
18770SOL    HW158084  10.016   1.561   2.067
18770SOL    HW258085   9.946   1.442   2.130
18771SOL     OW58086   2.870  11.153   6.413
18771SOL    HW158087   2.869  11.163   6.318
18771SOL    HW258088   2.793  11.200   6.443
18772SOL     OW58089   9.334   8.722   2.144
18772SOL    HW158090   9.340   8.685   2.232
18772SOL    HW258091   9.402   8.789   2.141
18773SOL     OW58092  12.291  13.828   1.850
18773SOL    HW158093  12.251  13.782   1.776
18773SOL    HW258094  12.273  13.920   1.833
18774SOL     OW58095   8.326   5.947   8.910
18774SOL    HW158096   8.415   5.915   8.926
18774SOL    HW258097   8.332   5.993   8.827
18775SOL     OW58098   6.611   7.249   6.241
18775SOL    HW158099   6.695   7.219   6.208
18775SOL    HW258100   6.605   7.341   6.214
18776SOL     OW58101  13.156  12.784   4.716
18776SOL    HW158102  13.069  12.744   4.710
18776SOL    HW258103  13.216  12.710   4.705
18777SOL     OW58104  11.887  10.778   9.710
18777SOL    HW158105  11.871  10.873   9.707
18777SOL    HW258106  11.832  10.747   9.782
18778SOL     OW58107   0.645   3.034   7.542
18778SOL    HW158108   0.597   2.980   7.479
18778SOL    HW258109   0.731   2.993   7.548
18779SOL     OW58110   8.339   0.379   0.258
18779SOL    HW158111   8.380   0.353   0.176
18779SOL    HW258112   8.245   0.373   0.241
18780SOL     OW58113   9.490   7.007   1.067
18780SOL    HW158114   9.572   6.957   1.069
18780SOL    HW258115   9.473   7.030   1.158
18781SOL     OW58116   9.013  10.266   9.328
18781SOL    HW158117   9.094  10.218   9.348
18781SOL    HW258118   8.959  10.256   9.407
18782SOL     OW58119   5.009  11.754   5.331
18782SOL    HW158120   4.922  11.775   5.364
18782SOL    HW258121   4.993  11.688   5.263
18783SOL     OW58122  14.126  14.204   0.221
18783SOL    HW158123  14.044  14.222   0.175
18783SOL    HW258124  14.131  14.108   0.224
18784SOL     OW58125   3.595   8.866   3.580
18784SOL    HW158126   3.589   8.882   3.486
18784SOL    HW258127   3.567   8.948   3.620
18785SOL     OW58128   3.388   2.860   5.825
18785SOL    HW158129   3.373   2.955   5.828
18785SOL    HW258130   3.303   2.821   5.843
18786SOL     OW58131   6.119   9.304   6.048
18786SOL    HW158132   6.168   9.382   6.073
18786SOL    HW258133   6.159   9.234   6.099
18787SOL     OW58134   2.123   7.246   1.181
18787SOL    HW158135   2.200   7.273   1.230
18787SOL    HW258136   2.113   7.153   1.201
18788SOL     OW58137   3.029   1.868   3.713
18788SOL    HW158138   2.969   1.793   3.718
18788SOL    HW258139   3.010   1.920   3.791
18789SOL     OW58140   2.475   8.166  11.140
18789SOL    HW158141   2.428   8.248  11.128
18789SOL    HW258142   2.408   8.103  11.167
18790SOL     OW58143   3.077  10.355  10.570
18790SOL    HW158144   3.021  10.417  10.523
18790SOL    HW258145   3.110  10.404  10.645
18791SOL     OW58146  12.437  14.508   9.700
18791SOL    HW158147  12.430  14.548   9.614
18791SOL    HW258148  12.530  14.493   9.713
18792SOL     OW58149   2.604   1.785   8.734
18792SOL    HW158150   2.597   1.696   8.768
18792SOL    HW258151   2.696   1.807   8.744
18793SOL     OW58152   7.359   1.362  10.700
18793SOL    HW158153   7.315   1.375  10.784
18793SOL    HW258154   7.435   1.420  10.704
18794SOL     OW58155   0.275   4.657  13.712
18794SOL    HW158156   0.278   4.749  13.739
18794SOL    HW258157   0.182   4.639  13.698
18795SOL     OW58158  11.821   3.897  12.870
18795SOL    HW158159  11.910   3.863  12.870
18795SOL    HW258160  11.766   3.820  12.882
18796SOL     OW58161   8.020  10.815   3.138
18796SOL    HW158162   7.939  10.864   3.154
18796SOL    HW258163   7.992  10.724   3.129
18797SOL     OW58164  13.385   1.109   6.824
18797SOL    HW158165  13.395   1.177   6.757
18797SOL    HW258166  13.355   1.157   6.902
18798SOL     OW58167  12.937   1.070   3.238
18798SOL    HW158168  12.946   1.143   3.300
18798SOL    HW258169  12.908   0.996   3.292
18799SOL     OW58170   8.462   5.209   3.387
18799SOL    HW158171   8.540   5.158   3.366
18799SOL    HW258172   8.495   5.296   3.408
18800SOL     OW58173  11.540   5.541   8.644
18800SOL    HW158174  11.548   5.634   8.624
18800SOL    HW258175  11.597   5.527   8.720
18801SOL     OW58176   9.613  13.599  11.462
18801SOL    HW158177   9.690  13.595  11.405
18801SOL    HW258178   9.622  13.523  11.519
18802SOL     OW58179   9.922   9.957  10.491
18802SOL    HW158180   9.923   9.965  10.587
18802SOL    HW258181  10.010   9.927  10.468
18803SOL     OW58182  14.258  14.400   4.767
18803SOL    HW158183  14.288  14.484   4.800
18803SOL    HW258184  14.339  14.351   4.749
18804SOL     OW58185   2.566   1.703   2.206
18804SOL    HW158186   2.541   1.705   2.114
18804SOL    HW258187   2.661   1.703   2.205
18805SOL     OW58188   7.221  10.936   7.595
18805SOL    HW158189   7.279  10.860   7.584
18805SOL    HW258190   7.249  10.997   7.526
18806SOL     OW58191  12.458  12.857  13.961
18806SOL    HW158192  12.369  12.830  13.937
18806SOL    HW258193  12.448  12.946  13.993
18807SOL     OW58194  12.239   7.643   7.486
18807SOL    HW158195  12.193   7.565   7.456
18807SOL    HW258196  12.313   7.609   7.537
18808SOL     OW58197   4.470  11.764   2.586
18808SOL    HW158198   4.475  11.711   2.666
18808SOL    HW258199   4.527  11.717   2.524
18809SOL     OW58200  12.732  14.344  14.468
18809SOL    HW158201  12.661  14.288  14.499
18809SOL    HW258202  12.804  14.283  14.449
18810SOL     OW58203   9.899  12.463  14.810
18810SOL    HW158204   9.819  12.413  14.828
18810SOL    HW258205   9.883  12.547  14.853
18811SOL     OW58206   5.094  12.462   8.728
18811SOL    HW158207   5.183  12.451   8.694
18811SOL    HW258208   5.094  12.415   8.811
18812SOL     OW58209   4.579  10.859   3.371
18812SOL    HW158210   4.573  10.776   3.418
18812SOL    HW258211   4.534  10.844   3.289
18813SOL     OW58212   9.433   0.754   5.724
18813SOL    HW158213   9.446   0.744   5.819
18813SOL    HW258214   9.478   0.835   5.702
18814SOL     OW58215   3.728   8.111   6.211
18814SOL    HW158216   3.806   8.056   6.224
18814SOL    HW258217   3.683   8.071   6.136
18815SOL     OW58218  12.828   3.443   6.551
18815SOL    HW158219  12.869   3.480   6.473
18815SOL    HW258220  12.734   3.455   6.536
18816SOL     OW58221   3.940  13.525  14.257
18816SOL    HW158222   3.938  13.472  14.336
18816SOL    HW258223   3.993  13.601  14.280
18817SOL     OW58224   9.839   0.266   7.908
18817SOL    HW158225   9.879   0.208   7.843
18817SOL    HW258226   9.864   0.228   7.992
18818SOL     OW58227   3.873   5.783   2.238
18818SOL    HW158228   3.929   5.854   2.206
18818SOL    HW258229   3.934   5.717   2.271
18819SOL     OW58230   6.138  12.335   7.491
18819SOL    HW158231   6.222  12.367   7.525
18819SOL    HW258232   6.114  12.397   7.423
18820SOL     OW58233   6.864   5.184   7.268
18820SOL    HW158234   6.862   5.109   7.327
18820SOL    HW258235   6.824   5.255   7.319
18821SOL     OW58236  13.892  10.514  10.294
18821SOL    HW158237  13.859  10.542  10.380
18821SOL    HW258238  13.987  10.528  10.299
18822SOL     OW58239   7.369   1.121  10.971
18822SOL    HW158240   7.328   1.206  10.990
18822SOL    HW258241   7.380   1.121  10.875
18823SOL     OW58242   1.468  10.425  10.825
18823SOL    HW158243   1.417  10.505  10.809
18823SOL    HW258244   1.478  10.385  10.739
18824SOL     OW58245   3.448   6.942  14.732
18824SOL    HW158246   3.526   6.891  14.754
18824SOL    HW258247   3.388   6.879  14.692
18825SOL     OW58248  13.506   9.955   7.699
18825SOL    HW158249  13.543  10.042   7.716
18825SOL    HW258250  13.555   9.896   7.755
18826SOL     OW58251  13.156   1.043   0.314
18826SOL    HW158252  13.096   1.086   0.253
18826SOL    HW258253  13.146   1.090   0.396
18827SOL     OW58254   1.299   0.247  11.311
18827SOL    HW158255   1.213   0.233  11.273
18827SOL    HW258256   1.318   0.165  11.358
18828SOL     OW58257   4.094   4.175   5.074
18828SOL    HW158258   4.186   4.149   5.080
18828SOL    HW258259   4.067   4.146   4.987
18829SOL     OW58260   9.398  14.412   1.896
18829SOL    HW158261   9.431  14.322   1.892
18829SOL    HW258262   9.306  14.403   1.921
18830SOL     OW58263   1.443   0.294   4.891
18830SOL    HW158264   1.428   0.217   4.836
18830SOL    HW258265   1.527   0.276   4.934
18831SOL     OW58266  10.841   6.335   9.024
18831SOL    HW158267  10.894   6.363   9.099
18831SOL    HW258268  10.752   6.361   9.047
18832SOL     OW58269   5.636   4.369   9.568
18832SOL    HW158270   5.576   4.309   9.611
18832SOL    HW258271   5.707   4.313   9.536
18833SOL     OW58272  11.579   5.800   4.753
18833SOL    HW158273  11.571   5.745   4.831
18833SOL    HW258274  11.669   5.790   4.725
18834SOL     OW58275  12.414  14.245   1.480
18834SOL    HW158276  12.439  14.270   1.391
18834SOL    HW258277  12.490  14.269   1.534
18835SOL     OW58278  11.952   3.432   0.614
18835SOL    HW158279  11.879   3.492   0.609
18835SOL    HW258280  11.916   3.353   0.656
18836SOL     OW58281  13.913   9.548  10.660
18836SOL    HW158282  13.899   9.478  10.723
18836SOL    HW258283  13.922   9.627  10.713
18837SOL     OW58284   0.133   7.766  11.317
18837SOL    HW158285   0.062   7.748  11.380
18837SOL    HW258286   0.213   7.750  11.367
18838SOL     OW58287   2.900  11.367   5.072
18838SOL    HW158288   2.922  11.297   5.011
18838SOL    HW258289   2.867  11.321   5.149
18839SOL     OW58290   0.436  13.477  14.670
18839SOL    HW158291   0.463  13.389  14.643
18839SOL    HW258292   0.472  13.487  14.759
18840SOL     OW58293  13.290   3.824   1.059
18840SOL    HW158294  13.296   3.898   1.000
18840SOL    HW258295  13.318   3.749   1.006
18841SOL     OW58296   5.989  11.535   6.450
18841SOL    HW158297   6.039  11.466   6.407
18841SOL    HW258298   5.897  11.511   6.437
18842SOL     OW58299   2.788   1.487   5.254
18842SOL    HW158300   2.738   1.563   5.223
18842SOL    HW258301   2.781   1.491   5.349
18843SOL     OW58302   4.143   8.737   5.115
18843SOL    HW158303   4.222   8.701   5.155
18843SOL    HW258304   4.110   8.667   5.059
18844SOL     OW58305  11.333  10.778   5.416
18844SOL    HW158306  11.256  10.784   5.359
18844SOL    HW258307  11.356  10.685   5.416
18845SOL     OW58308   5.820   0.560   3.549
18845SOL    HW158309   5.753   0.605   3.599
18845SOL    HW258310   5.895   0.619   3.550
18846SOL     OW58311   0.715  14.738  12.614
18846SOL    HW158312   0.747  14.828  12.608
18846SOL    HW258313   0.711  14.720  12.708
18847SOL     OW58314  11.742   6.990  11.805
18847SOL    HW158315  11.709   7.056  11.744
18847SOL    HW258316  11.664   6.942  11.833
18848SOL     OW58317   4.157   4.422   5.190
18848SOL    HW158318   4.119   4.344   5.151
18848SOL    HW258319   4.234   4.390   5.237
18849SOL     OW58320   2.528  11.133   0.833
18849SOL    HW158321   2.576  11.210   0.804
18849SOL    HW258322   2.517  11.080   0.754
18850SOL     OW58323   7.281   8.146   8.574
18850SOL    HW158324   7.318   8.227   8.610
18850SOL    HW258325   7.349   8.113   8.515
18851SOL     OW58326  12.082  12.502   1.718
18851SOL    HW158327  12.103  12.572   1.779
18851SOL    HW258328  12.117  12.423   1.760
18852SOL     OW58329  10.786   9.516   3.532
18852SOL    HW158330  10.738   9.588   3.492
18852SOL    HW258331  10.878   9.542   3.524
18853SOL     OW58332   8.500   3.769  10.621
18853SOL    HW158333   8.560   3.844  10.612
18853SOL    HW258334   8.551   3.703  10.668
18854SOL     OW58335   5.754   0.602  10.117
18854SOL    HW158336   5.834   0.609  10.065
18854SOL    HW258337   5.770   0.529  10.176
18855SOL     OW58338   9.871   6.716   0.867
18855SOL    HW158339   9.856   6.809   0.884
18855SOL    HW258340   9.847   6.673   0.949
18856SOL     OW58341  12.288   8.635   3.894
18856SOL    HW158342  12.226   8.569   3.864
18856SOL    HW258343  12.373   8.592   3.890
18857SOL     OW58344   8.910  11.196   6.173
18857SOL    HW158345   8.928  11.105   6.197
18857SOL    HW258346   8.846  11.190   6.103
18858SOL     OW58347   8.218  13.405   0.967
18858SOL    HW158348   8.203  13.312   0.987
18858SOL    HW258349   8.313  13.413   0.957
18859SOL     OW58350  14.258   0.915   6.797
18859SOL    HW158351  14.168   0.928   6.766
18859SOL    HW258352  14.295   0.851   6.737
18860SOL     OW58353   6.275  10.026   7.687
18860SOL    HW158354   6.214  10.091   7.722
18860SOL    HW258355   6.224   9.945   7.685
18861SOL     OW58356  10.153   8.339   6.295
18861SOL    HW158357  10.220   8.403   6.271
18861SOL    HW258358  10.185   8.256   6.260
18862SOL     OW58359   3.291   6.595   4.522
18862SOL    HW158360   3.238   6.572   4.446
18862SOL    HW258361   3.304   6.690   4.514
18863SOL     OW58362   2.340   6.385  11.282
18863SOL    HW158363   2.308   6.468  11.247
18863SOL    HW258364   2.295   6.318  11.231
18864SOL     OW58365   7.608   2.498  13.289
18864SOL    HW158366   7.638   2.431  13.351
18864SOL    HW258367   7.528   2.532  13.328
18865SOL     OW58368   9.120   9.619   3.700
18865SOL    HW158369   9.030   9.651   3.687
18865SOL    HW258370   9.114   9.565   3.778
18866SOL     OW58371   0.283   0.190   2.327
18866SOL    HW158372   0.192   0.162   2.338
18866SOL    HW258373   0.321   0.184   2.414
18867SOL     OW58374   5.790   8.740  13.943
18867SOL    HW158375   5.736   8.736  13.864
18867SOL    HW258376   5.857   8.674  13.930
18868SOL     OW58377  12.984   9.206  11.042
18868SOL    HW158378  12.996   9.115  11.067
18868SOL    HW258379  12.889   9.218  11.041
18869SOL     OW58380   5.663   9.585   4.420
18869SOL    HW158381   5.730   9.631   4.471
18869SOL    HW258382   5.683   9.606   4.329
18870SOL     OW58383   1.440   9.208  11.859
18870SOL    HW158384   1.497   9.285  11.859
18870SOL    HW258385   1.410   9.201  11.768
18871SOL     OW58386   1.173   1.801   1.661
18871SOL    HW158387   1.092   1.837   1.698
18871SOL    HW258388   1.226   1.878   1.641
18872SOL     OW58389   4.784   7.698   8.010
18872SOL    HW158390   4.879   7.699   8.007
18872SOL    HW258391   4.759   7.790   8.004
18873SOL     OW58392   1.595   0.219  11.234
18873SOL    HW158393   1.631   0.260  11.312
18873SOL    HW258394   1.501   0.215  11.249
18874SOL     OW58395   5.933   5.535   5.076
18874SOL    HW158396   5.901   5.533   4.986
18874SOL    HW258397   6.026   5.514   5.070
18875SOL     OW58398   9.377   4.642  13.503
18875SOL    HW158399   9.321   4.700  13.555
18875SOL    HW258400   9.466   4.675  13.517
18876SOL     OW58401  11.338  11.604   1.574
18876SOL    HW158402  11.254  11.624   1.534
18876SOL    HW258403  11.401  11.613   1.503
18877SOL     OW58404   9.685   7.366   3.577
18877SOL    HW158405   9.596   7.331   3.566
18877SOL    HW258406   9.683   7.451   3.535
18878SOL     OW58407   5.972   1.015   4.523
18878SOL    HW158408   5.922   1.043   4.600
18878SOL    HW258409   5.917   0.947   4.483
18879SOL     OW58410  10.321   1.437  10.017
18879SOL    HW158411  10.236   1.475  10.042
18879SOL    HW258412  10.307   1.342  10.024
18880SOL     OW58413   3.839   7.735   4.547
18880SOL    HW158414   3.834   7.725   4.452
18880SOL    HW258415   3.770   7.798   4.569
18881SOL     OW58416   1.905   0.257  11.840
18881SOL    HW158417   1.987   0.306  11.836
18881SOL    HW258418   1.913   0.201  11.917
18882SOL     OW58419   7.301   3.055  14.054
18882SOL    HW158420   7.209   3.081  14.047
18882SOL    HW258421   7.310   3.026  14.145
18883SOL     OW58422   7.989   7.143   5.448
18883SOL    HW158423   8.073   7.168   5.410
18883SOL    HW258424   8.007   7.135   5.542
18884SOL     OW58425   6.967  10.392   2.145
18884SOL    HW158426   7.008  10.316   2.104
18884SOL    HW258427   7.017  10.467   2.113
18885SOL     OW58428  10.825   4.103   8.433
18885SOL    HW158429  10.835   4.183   8.381
18885SOL    HW258430  10.746   4.118   8.485
18886SOL     OW58431  10.323  12.716  13.647
18886SOL    HW158432  10.364  12.631  13.629
18886SOL    HW258433  10.280  12.704  13.731
18887SOL     OW58434   6.437   7.983  10.621
18887SOL    HW158435   6.464   7.917  10.557
18887SOL    HW258436   6.440   8.065  10.573
18888SOL     OW58437  11.635  12.585  14.804
18888SOL    HW158438  11.555  12.568  14.755
18888SOL    HW258439  11.624  12.673  14.839
18889SOL     OW58440   4.559  11.843   4.601
18889SOL    HW158441   4.500  11.773   4.573
18889SOL    HW258442   4.510  11.923   4.583
18890SOL     OW58443   9.570   7.106  10.001
18890SOL    HW158444   9.538   7.114   9.911
18890SOL    HW258445   9.496   7.133  10.055
18891SOL     OW58446   3.730  10.604   5.351
18891SOL    HW158447   3.707  10.681   5.403
18891SOL    HW258448   3.826  10.607   5.346
18892SOL     OW58449  10.012   7.509   8.430
18892SOL    HW158450   9.970   7.591   8.403
18892SOL    HW258451   9.992   7.502   8.524
18893SOL     OW58452   2.958   4.331   2.824
18893SOL    HW158453   2.965   4.368   2.912
18893SOL    HW258454   2.913   4.399   2.773
18894SOL     OW58455  10.503  13.847   1.376
18894SOL    HW158456  10.466  13.846   1.464
18894SOL    HW258457  10.463  13.923   1.333
18895SOL     OW58458   7.967   9.567   0.851
18895SOL    HW158459   7.930   9.653   0.871
18895SOL    HW258460   7.960   9.518   0.932
18896SOL     OW58461   8.006   8.110   8.471
18896SOL    HW158462   7.981   8.068   8.553
18896SOL    HW258463   8.100   8.090   8.462
18897SOL     OW58464   5.671   6.831   1.559
18897SOL    HW158465   5.595   6.888   1.568
18897SOL    HW258466   5.687   6.826   1.465
18898SOL     OW58467   6.894   3.778   2.236
18898SOL    HW158468   6.813   3.801   2.282
18898SOL    HW258469   6.919   3.858   2.190
18899SOL     OW58470   5.387  13.356  13.457
18899SOL    HW158471   5.452  13.328  13.392
18899SOL    HW258472   5.427  13.333  13.541
18900SOL     OW58473   3.447  10.283   8.990
18900SOL    HW158474   3.494  10.268   9.072
18900SOL    HW258475   3.502  10.346   8.943
18901SOL     OW58476   0.611   2.786  14.070
18901SOL    HW158477   0.659   2.864  14.040
18901SOL    HW258478   0.527   2.819  14.101
18902SOL     OW58479   0.707   2.783   5.841
18902SOL    HW158480   0.658   2.706   5.812
18902SOL    HW258481   0.707   2.842   5.765
18903SOL     OW58482   7.702  13.738   0.338
18903SOL    HW158483   7.759  13.690   0.278
18903SOL    HW258484   7.709  13.829   0.309
18904SOL     OW58485   2.448   2.125   3.278
18904SOL    HW158486   2.531   2.169   3.260
18904SOL    HW258487   2.461   2.082   3.362
18905SOL     OW58488   1.472   4.880   4.266
18905SOL    HW158489   1.472   4.924   4.181
18905SOL    HW258490   1.540   4.925   4.316
18906SOL     OW58491   1.815   9.423   3.905
18906SOL    HW158492   1.840   9.515   3.896
18906SOL    HW258493   1.874   9.388   3.972
18907SOL     OW58494  10.943  11.652   8.106
18907SOL    HW158495  10.934  11.576   8.163
18907SOL    HW258496  11.001  11.711   8.154
18908SOL     OW58497  11.498   2.106   2.191
18908SOL    HW158498  11.517   2.171   2.122
18908SOL    HW258499  11.505   2.156   2.273
18909SOL     OW58500  11.303  14.082   2.261
18909SOL    HW158501  11.328  14.069   2.169
18909SOL    HW258502  11.274  13.995   2.290
18910SOL     OW58503   4.072   2.446  10.658
18910SOL    HW158504   4.123   2.369  10.635
18910SOL    HW258505   4.078   2.453  10.753
18911SOL     OW58506   5.717   0.408   1.204
18911SOL    HW158507   5.704   0.500   1.183
18911SOL    HW258508   5.739   0.368   1.120
18912SOL     OW58509   1.518   9.389  10.249
18912SOL    HW158510   1.551   9.305  10.280
18912SOL    HW258511   1.425   9.374  10.231
18913SOL     OW58512   3.162   5.677  10.812
18913SOL    HW158513   3.176   5.641  10.900
18913SOL    HW258514   3.177   5.771  10.823
18914SOL     OW58515  14.138   7.778  12.972
18914SOL    HW158516  14.125   7.684  12.962
18914SOL    HW258517  14.230   7.793  12.947
18915SOL     OW58518   2.456  10.910   7.215
18915SOL    HW158519   2.519  10.898   7.144
18915SOL    HW258520   2.374  10.933   7.171
18916SOL     OW58521   2.526   6.774  14.729
18916SOL    HW158522   2.492   6.688  14.756
18916SOL    HW258523   2.499   6.783  14.637
18917SOL     OW58524  11.762   2.393   7.509
18917SOL    HW158525  11.714   2.361   7.433
18917SOL    HW258526  11.699   2.390   7.581
18918SOL     OW58527   6.014   5.218  14.354
18918SOL    HW158528   5.925   5.230  14.322
18918SOL    HW258529   6.003   5.176  14.440
18919SOL     OW58530   4.826   8.051   4.081
18919SOL    HW158531   4.848   8.103   4.004
18919SOL    HW258532   4.792   7.969   4.046
18920SOL     OW58533  13.670   9.756  14.257
18920SOL    HW158534  13.714   9.675  14.280
18920SOL    HW258535  13.708   9.781  14.173
18921SOL     OW58536   3.367   4.972   2.325
18921SOL    HW158537   3.431   4.902   2.339
18921SOL    HW258538   3.391   5.009   2.240
18922SOL     OW58539   6.799  11.735  10.229
18922SOL    HW158540   6.758  11.711  10.312
18922SOL    HW258541   6.804  11.653  10.180
18923SOL     OW58542   7.999  12.538   7.572
18923SOL    HW158543   8.010  12.459   7.625
18923SOL    HW258544   7.980  12.607   7.635
18924SOL     OW58545   7.512  13.390   9.953
18924SOL    HW158546   7.565  13.323   9.995
18924SOL    HW258547   7.535  13.471   9.999
18925SOL     OW58548   2.231   8.111  12.374
18925SOL    HW158549   2.295   8.102  12.304
18925SOL    HW258550   2.205   8.021  12.394
18926SOL     OW58551   8.119   2.348   2.871
18926SOL    HW158552   8.139   2.412   2.939
18926SOL    HW258553   8.129   2.397   2.789
18927SOL     OW58554   2.231  13.948   7.122
18927SOL    HW158555   2.226  14.014   7.052
18927SOL    HW258556   2.188  13.990   7.197
18928SOL     OW58557   3.132  14.198   0.286
18928SOL    HW158558   3.076  14.255   0.339
18928SOL    HW258559   3.079  14.120   0.271
18929SOL     OW58560   1.660   3.846  12.054
18929SOL    HW158561   1.581   3.791  12.056
18929SOL    HW258562   1.680   3.862  12.146
18930SOL     OW58563   6.654   9.925   0.537
18930SOL    HW158564   6.722   9.958   0.478
18930SOL    HW258565   6.702   9.883   0.608
18931SOL     OW58566  11.275   3.611  12.810
18931SOL    HW158567  11.296   3.688  12.757
18931SOL    HW258568  11.312   3.631  12.897
18932SOL     OW58569   5.265   1.215  12.299
18932SOL    HW158570   5.322   1.150  12.339
18932SOL    HW258571   5.200   1.234  12.367
18933SOL     OW58572   5.980   9.086   0.789
18933SOL    HW158573   6.057   9.030   0.776
18933SOL    HW258574   5.912   9.027   0.821
18934SOL     OW58575   8.899  14.008   4.779
18934SOL    HW158576   8.880  13.953   4.703
18934SOL    HW258577   8.886  14.097   4.747
18935SOL     OW58578   9.128  10.514   9.552
18935SOL    HW158579   9.116  10.434   9.603
18935SOL    HW258580   9.215  10.506   9.515
18936SOL     OW58581  12.548   7.242   9.140
18936SOL    HW158582  12.601   7.180   9.191
18936SOL    HW258583  12.578   7.328   9.170
18937SOL     OW58584   6.370   7.032   9.258
18937SOL    HW158585   6.306   7.071   9.317
18937SOL    HW258586   6.454   7.051   9.298
18938SOL     OW58587   0.333  13.205   1.717
18938SOL    HW158588   0.279  13.194   1.795
18938SOL    HW258589   0.392  13.278   1.740
18939SOL     OW58590   6.835   8.282   3.122
18939SOL    HW158591   6.820   8.341   3.049
18939SOL    HW258592   6.793   8.200   3.096
18940SOL     OW58593   0.534   5.966   0.983
18940SOL    HW158594   0.532   5.871   0.968
18940SOL    HW258595   0.602   5.998   0.924
18941SOL     OW58596   6.050  13.473   0.180
18941SOL    HW158597   5.987  13.402   0.170
18941SOL    HW258598   6.013  13.528   0.250
18942SOL     OW58599   6.027  10.812   3.954
18942SOL    HW158600   6.083  10.748   3.910
18942SOL    HW258601   6.086  10.884   3.975
18943SOL     OW58602  10.458   3.795  14.634
18943SOL    HW158603  10.422   3.805  14.723
18943SOL    HW258604  10.396   3.842  14.578
18944SOL     OW58605   4.127   7.308   7.645
18944SOL    HW158606   4.205   7.289   7.592
18944SOL    HW258607   4.090   7.222   7.663
18945SOL     OW58608   6.857   4.488   8.352
18945SOL    HW158609   6.908   4.407   8.357
18945SOL    HW258610   6.920   4.555   8.325
18946SOL     OW58611   2.281  12.031   5.227
18946SOL    HW158612   2.344  12.055   5.159
18946SOL    HW258613   2.336  12.007   5.302
18947SOL     OW58614   6.146   2.640   4.797
18947SOL    HW158615   6.063   2.635   4.749
18947SOL    HW258616   6.208   2.677   4.734
18948SOL     OW58617  14.424   5.409  10.011
18948SOL    HW158618  14.344   5.462  10.004
18948SOL    HW258619  14.462   5.412   9.924
18949SOL     OW58620   3.292   0.142   8.180
18949SOL    HW158621   3.305   0.057   8.138
18949SOL    HW258622   3.381   0.171   8.203
18950SOL     OW58623   2.662   8.717   9.816
18950SOL    HW158624   2.709   8.754   9.741
18950SOL    HW258625   2.686   8.773   9.889
18951SOL     OW58626  11.936   0.696   5.705
18951SOL    HW158627  11.873   0.708   5.633
18951SOL    HW258628  11.977   0.782   5.715
18952SOL     OW58629   1.172  11.038   3.923
18952SOL    HW158630   1.165  11.020   3.829
18952SOL    HW258631   1.158  11.133   3.929
18953SOL     OW58632  11.045  11.276   6.893
18953SOL    HW158633  11.057  11.300   6.801
18953SOL    HW258634  10.952  11.295   6.910
18954SOL     OW58635  12.465  13.222  12.072
18954SOL    HW158636  12.450  13.142  12.022
18954SOL    HW258637  12.554  13.213  12.106
18955SOL     OW58638  13.783   4.995   6.181
18955SOL    HW158639  13.863   5.044   6.198
18955SOL    HW258640  13.781   4.983   6.086
18956SOL     OW58641   1.309   5.982   1.228
18956SOL    HW158642   1.254   5.981   1.307
18956SOL    HW258643   1.351   5.896   1.227
18957SOL     OW58644  12.854  11.249   6.581
18957SOL    HW158645  12.830  11.339   6.601
18957SOL    HW258646  12.838  11.240   6.487
18958SOL     OW58647   7.539  14.083   5.461
18958SOL    HW158648   7.455  14.044   5.437
18958SOL    HW258649   7.593  14.009   5.487
18959SOL     OW58650  11.236   7.374   8.656
18959SOL    HW158651  11.200   7.401   8.572
18959SOL    HW258652  11.324   7.340   8.635
18960SOL     OW58653  12.733   5.997  13.935
18960SOL    HW158654  12.811   5.948  13.911
18960SOL    HW258655  12.698   6.028  13.851
18961SOL     OW58656   0.193   8.449  14.577
18961SOL    HW158657   0.141   8.508  14.632
18961SOL    HW258658   0.170   8.361  14.608
18962SOL     OW58659   3.820  13.508  10.700
18962SOL    HW158660   3.798  13.423  10.740
18962SOL    HW258661   3.795  13.499  10.608
18963SOL     OW58662   3.587  14.619  10.122
18963SOL    HW158663   3.645  14.675  10.071
18963SOL    HW258664   3.602  14.644  10.213
18964SOL     OW58665   6.882   5.946   4.114
18964SOL    HW158666   6.866   5.884   4.042
18964SOL    HW258667   6.977   5.952   4.119
18965SOL     OW58668  10.420   4.866  10.602
18965SOL    HW158669  10.497   4.865  10.658
18965SOL    HW258670  10.455   4.882  10.514
18966SOL     OW58671  12.945  13.312   2.274
18966SOL    HW158672  12.908  13.333   2.189
18966SOL    HW258673  13.037  13.294   2.256
18967SOL     OW58674  14.623   6.747  10.633
18967SOL    HW158675  14.699   6.760  10.578
18967SOL    HW258676  14.581   6.669  10.598
18968SOL     OW58677  12.242  13.479   6.657
18968SOL    HW158678  12.209  13.461   6.746
18968SOL    HW258679  12.324  13.430   6.652
18969SOL     OW58680  11.348   6.293  12.409
18969SOL    HW158681  11.283   6.359  12.430
18969SOL    HW258682  11.365   6.248  12.492
18970SOL     OW58683  10.999  11.924  12.839
18970SOL    HW158684  11.089  11.892  12.849
18970SOL    HW258685  10.952  11.851  12.800
18971SOL     OW58686   9.638   1.231   4.987
18971SOL    HW158687   9.711   1.253   4.929
18971SOL    HW258688   9.581   1.175   4.935
18972SOL     OW58689  13.161  13.664  14.273
18972SOL    HW158690  13.075  13.634  14.301
18972SOL    HW258691  13.173  13.626  14.186
18973SOL     OW58692  12.129  11.949  12.211
18973SOL    HW158693  12.142  11.995  12.127
18973SOL    HW258694  12.038  11.920  12.207
18974SOL     OW58695   1.403   2.687   2.781
18974SOL    HW158696   1.482   2.641   2.810
18974SOL    HW258697   1.392   2.661   2.689
18975SOL     OW58698   2.051   2.487   5.364
18975SOL    HW158699   2.121   2.442   5.411
18975SOL    HW258700   2.070   2.472   5.271
18976SOL     OW58701   4.298  10.977   1.969
18976SOL    HW158702   4.206  10.951   1.971
18976SOL    HW258703   4.311  11.013   1.881
18977SOL     OW58704   7.857   3.937  10.905
18977SOL    HW158705   7.855   4.033  10.906
18977SOL    HW258706   7.937   3.914  10.951
18978SOL     OW58707  12.853   4.259   9.676
18978SOL    HW158708  12.842   4.199   9.750
18978SOL    HW258709  12.899   4.334   9.713
18979SOL     OW58710  11.708  11.859   2.309
18979SOL    HW158711  11.626  11.810   2.323
18979SOL    HW258712  11.770  11.793   2.278
18980SOL     OW58713  13.815  14.647  13.707
18980SOL    HW158714  13.797  14.661  13.614
18980SOL    HW258715  13.870  14.569  13.710
18981SOL     OW58716  10.438   9.304  13.151
18981SOL    HW158717  10.346   9.329  13.161
18981SOL    HW258718  10.443   9.217  13.190
18982SOL     OW58719  10.386   0.090  10.694
18982SOL    HW158720  10.443   0.014  10.694
18982SOL    HW258721  10.322   0.072  10.763
18983SOL     OW58722  13.043  11.500   8.636
18983SOL    HW158723  12.991  11.532   8.562
18983SOL    HW258724  12.998  11.535   8.713
18984SOL     OW58725   6.962  11.483  10.355
18984SOL    HW158726   6.867  11.492  10.345
18984SOL    HW258727   6.974  11.396  10.391
18985SOL     OW58728   4.324  11.019  13.905
18985SOL    HW158729   4.395  10.961  13.877
18985SOL    HW258730   4.256  10.959  13.938
18986SOL     OW58731  11.968   0.826   1.771
18986SOL    HW158732  11.936   0.916   1.761
18986SOL    HW258733  11.923   0.792   1.848
18987SOL     OW58734   6.638  10.646   8.445
18987SOL    HW158735   6.554  10.653   8.491
18987SOL    HW258736   6.649  10.552   8.429
18988SOL     OW58737   3.578  11.569  10.650
18988SOL    HW158738   3.547  11.531  10.732
18988SOL    HW258739   3.515  11.541  10.584
18989SOL     OW58740  10.439   8.395   8.197
18989SOL    HW158741  10.478   8.481   8.210
18989SOL    HW258742  10.351   8.402   8.232
18990SOL     OW58743   2.451   3.191   0.594
18990SOL    HW158744   2.474   3.279   0.563
18990SOL    HW258745   2.391   3.157   0.527
18991SOL     OW58746  13.778   5.647   8.934
18991SOL    HW158747  13.716   5.604   8.874
18991SOL    HW258748  13.735   5.644   9.019
18992SOL     OW58749   2.897   9.978  11.060
18992SOL    HW158750   2.905   9.926  10.980
18992SOL    HW258751   2.867  10.064  11.030
18993SOL     OW58752  12.267  11.298  14.519
18993SOL    HW158753  12.224  11.245  14.585
18993SOL    HW258754  12.196  11.347  14.477
18994SOL     OW58755   6.040  11.614  11.342
18994SOL    HW158756   6.135  11.613  11.352
18994SOL    HW258757   6.016  11.706  11.355
18995SOL     OW58758   1.609   1.173   8.360
18995SOL    HW158759   1.561   1.118   8.297
18995SOL    HW258760   1.652   1.110   8.418
18996SOL     OW58761   9.202   2.976   5.454
18996SOL    HW158762   9.249   3.055   5.427
18996SOL    HW258763   9.243   2.951   5.537
18997SOL     OW58764  14.572   8.241   6.069
18997SOL    HW158765  14.642   8.244   6.135
18997SOL    HW258766  14.495   8.276   6.114
18998SOL     OW58767   6.773  14.086   0.076
18998SOL    HW158768   6.739  14.001   0.047
18998SOL    HW258769   6.745  14.093   0.167
18999SOL     OW58770   3.262   3.666   2.721
18999SOL    HW158771   3.225   3.607   2.787
18999SOL    HW258772   3.187   3.714   2.688
19000SOL     OW58773  11.250  11.555   5.356
19000SOL    HW158774  11.256  11.535   5.450
19000SOL    HW258775  11.319  11.619   5.341
19001SOL     OW58776   3.345   2.927  10.499
19001SOL    HW158777   3.422   2.935  10.554
19001SOL    HW258778   3.376   2.882  10.420
19002SOL     OW58779   3.825   2.677  12.744
19002SOL    HW158780   3.739   2.720  12.747
19002SOL    HW258781   3.844   2.667  12.651
19003SOL     OW58782   1.711  11.058  14.749
19003SOL    HW158783   1.697  11.128  14.813
19003SOL    HW258784   1.697  10.977  14.797
19004SOL     OW58785   8.630   0.484   5.738
19004SOL    HW158786   8.655   0.503   5.647
19004SOL    HW258787   8.539   0.454   5.731
19005SOL     OW58788  11.654  10.345   2.973
19005SOL    HW158789  11.597  10.414   3.007
19005SOL    HW258790  11.621  10.265   3.014
19006SOL     OW58791   0.685   5.669   1.479
19006SOL    HW158792   0.731   5.747   1.449
19006SOL    HW258793   0.676   5.682   1.574
19007SOL     OW58794   6.304   3.876   3.516
19007SOL    HW158795   6.394   3.843   3.508
19007SOL    HW258796   6.270   3.833   3.595
19008SOL     OW58797   8.013  14.022   6.794
19008SOL    HW158798   7.978  13.961   6.729
19008SOL    HW258799   8.056  13.967   6.858
19009SOL     OW58800  14.564   4.445  14.678
19009SOL    HW158801  14.609   4.398  14.608
19009SOL    HW258802  14.486   4.392  14.695
19010SOL     OW58803   4.913  11.329   9.055
19010SOL    HW158804   4.918  11.286   9.140
19010SOL    HW258805   4.844  11.282   9.009
19011SOL     OW58806   9.964   6.918   4.916
19011SOL    HW158807   9.913   6.886   4.842
19011SOL    HW258808  10.047   6.872   4.910
19012SOL     OW58809   4.272   9.210   4.101
19012SOL    HW158810   4.207   9.141   4.090
19012SOL    HW258811   4.350   9.164   4.134
19013SOL     OW58812   8.843   9.036  13.883
19013SOL    HW158813   8.787   8.974  13.835
19013SOL    HW258814   8.830   9.015  13.975
19014SOL     OW58815  12.371  11.761   7.618
19014SOL    HW158816  12.429  11.747   7.692
19014SOL    HW258817  12.427  11.800   7.551
19015SOL     OW58818  14.053   9.005   3.694
19015SOL    HW158819  14.084   8.916   3.710
19015SOL    HW258820  13.961   8.994   3.670
19016SOL     OW58821   0.394   2.947   1.906
19016SOL    HW158822   0.418   3.020   1.848
19016SOL    HW258823   0.478   2.915   1.940
19017SOL     OW58824  13.696   5.242  13.506
19017SOL    HW158825  13.746   5.232  13.425
19017SOL    HW258826  13.656   5.156  13.519
19018SOL     OW58827   0.382   6.184   7.944
19018SOL    HW158828   0.430   6.105   7.920
19018SOL    HW258829   0.406   6.248   7.877
19019SOL     OW58830   4.988   5.480   3.455
19019SOL    HW158831   5.052   5.421   3.495
19019SOL    HW258832   4.906   5.430   3.454
19020SOL     OW58833   7.189  12.902  13.417
19020SOL    HW158834   7.208  12.812  13.389
19020SOL    HW258835   7.181  12.896  13.512
19021SOL     OW58836   8.407   7.907   8.928
19021SOL    HW158837   8.500   7.924   8.911
19021SOL    HW258838   8.405   7.817   8.961
19022SOL     OW58839   3.544   0.854  12.660
19022SOL    HW158840   3.524   0.765  12.691
19022SOL    HW258841   3.486   0.867  12.585
19023SOL     OW58842  11.084   6.893  13.532
19023SOL    HW158843  11.045   6.818  13.487
19023SOL    HW258844  11.177   6.871  13.538
19024SOL     OW58845   0.521  11.142  13.936
19024SOL    HW158846   0.451  11.185  13.887
19024SOL    HW258847   0.581  11.109  13.869
19025SOL     OW58848   8.917  12.154   0.259
19025SOL    HW158849   8.889  12.102   0.183
19025SOL    HW258850   8.891  12.101   0.335
19026SOL     OW58851   8.234   5.356   1.844
19026SOL    HW158852   8.207   5.446   1.862
19026SOL    HW258853   8.278   5.360   1.759
19027SOL     OW58854   2.380   8.583  11.732
19027SOL    HW158855   2.429   8.625  11.802
19027SOL    HW258856   2.295   8.564  11.770
19028SOL     OW58857   8.796   5.135  12.517
19028SOL    HW158858   8.720   5.081  12.536
19028SOL    HW258859   8.760   5.215  12.479
19029SOL     OW58860   7.352   2.534   4.272
19029SOL    HW158861   7.359   2.444   4.306
19029SOL    HW258862   7.347   2.588   4.351
19030SOL     OW58863   0.517   5.710   0.877
19030SOL    HW158864   0.454   5.647   0.914
19030SOL    HW258865   0.602   5.670   0.892
19031SOL     OW58866  10.174   9.526   0.802
19031SOL    HW158867  10.098   9.583   0.815
19031SOL    HW258868  10.233   9.546   0.875
19032SOL     OW58869  12.987   3.880   8.516
19032SOL    HW158870  13.030   3.798   8.540
19032SOL    HW258871  12.905   3.853   8.475
19033SOL     OW58872   2.687   9.564  12.668
19033SOL    HW158873   2.644   9.580  12.584
19033SOL    HW258874   2.713   9.651  12.699
19034SOL     OW58875  10.674   9.653  13.745
19034SOL    HW158876  10.642   9.699  13.822
19034SOL    HW258877  10.664   9.561  13.766
19035SOL     OW58878  13.818  12.087  11.540
19035SOL    HW158879  13.741  12.142  11.528
19035SOL    HW258880  13.807  12.048  11.627
19036SOL     OW58881   4.390  11.946   5.052
19036SOL    HW158882   4.348  11.918   4.971
19036SOL    HW258883   4.472  11.896   5.055
19037SOL     OW58884  11.277   7.141  10.172
19037SOL    HW158885  11.194   7.107  10.138
19037SOL    HW258886  11.336   7.141  10.096
19038SOL     OW58887   9.022   4.428   0.861
19038SOL    HW158888   9.045   4.358   0.799
19038SOL    HW258889   9.077   4.411   0.937
19039SOL     OW58890   6.243  14.206   9.837
19039SOL    HW158891   6.221  14.120   9.871
19039SOL    HW258892   6.174  14.225   9.773
19040SOL     OW58893   6.402   9.828  12.638
19040SOL    HW158894   6.339   9.781  12.583
19040SOL    HW258895   6.483   9.779  12.627
19041SOL     OW58896   9.159   5.494   0.130
19041SOL    HW158897   9.202   5.580   0.130
19041SOL    HW258898   9.171   5.461   0.041
19042SOL     OW58899   8.279  11.251   9.089
19042SOL    HW158900   8.209  11.212   9.036
19042SOL    HW258901   8.324  11.310   9.029
19043SOL     OW58902   9.284  14.147  14.371
19043SOL    HW158903   9.313  14.075  14.315
19043SOL    HW258904   9.334  14.137  14.452
19044SOL     OW58905   7.008  11.944  13.019
19044SOL    HW158906   6.917  11.920  13.036
19044SOL    HW258907   7.059  11.893  13.081
19045SOL     OW58908   1.694   7.070   9.114
19045SOL    HW158909   1.605   7.034   9.121
19045SOL    HW258910   1.681   7.163   9.098
19046SOL     OW58911   2.264  12.828  11.035
19046SOL    HW158912   2.339  12.789  11.079
19046SOL    HW258913   2.282  12.922  11.036
19047SOL     OW58914   1.135   5.108   2.839
19047SOL    HW158915   1.223   5.109   2.801
19047SOL    HW258916   1.117   5.016   2.855
19048SOL     OW58917   2.441   0.403   5.382
19048SOL    HW158918   2.387   0.398   5.461
19048SOL    HW258919   2.501   0.476   5.398
19049SOL     OW58920  10.288  14.662   5.450
19049SOL    HW158921  10.285  14.592   5.515
19049SOL    HW258922  10.263  14.621   5.368
19050SOL     OW58923   8.598   0.693   2.240
19050SOL    HW158924   8.671   0.659   2.291
19050SOL    HW258925   8.571   0.773   2.287
19051SOL     OW58926   1.353   7.859  12.896
19051SOL    HW158927   1.421   7.927  12.896
19051SOL    HW258928   1.282   7.895  12.842
19052SOL     OW58929   5.040   8.210  10.893
19052SOL    HW158930   5.047   8.125  10.849
19052SOL    HW258931   5.105   8.206  10.963
19053SOL     OW58932  14.302  11.982   3.321
19053SOL    HW158933  14.230  12.045   3.317
19053SOL    HW258934  14.374  12.030   3.362
19054SOL     OW58935  12.844   3.656   7.354
19054SOL    HW158936  12.768   3.694   7.311
19054SOL    HW258937  12.844   3.694   7.442
19055SOL     OW58938   6.894  10.493  14.131
19055SOL    HW158939   6.809  10.449  14.126
19055SOL    HW258940   6.875  10.585  14.113
19056SOL     OW58941  12.946  13.540   2.806
19056SOL    HW158942  13.016  13.488   2.844
19056SOL    HW258943  12.888  13.477   2.765
19057SOL     OW58944   8.463  12.741   2.485
19057SOL    HW158945   8.460  12.736   2.390
19057SOL    HW258946   8.386  12.692   2.514
19058SOL     OW58947   0.407  10.052   0.454
19058SOL    HW158948   0.340  10.049   0.385
19058SOL    HW258949   0.476   9.995   0.421
19059SOL     OW58950   1.023   8.277  12.979
19059SOL    HW158951   0.958   8.341  13.008
19059SOL    HW258952   1.082   8.266  13.053
19060SOL     OW58953   9.818   5.232   2.682
19060SOL    HW158954   9.888   5.169   2.668
19060SOL    HW258955   9.737   5.181   2.672
19061SOL     OW58956   0.854  14.665   8.368
19061SOL    HW158957   0.788  14.611   8.324
19061SOL    HW258958   0.840  14.650   8.461
19062SOL     OW58959   0.386  13.512  12.328
19062SOL    HW158960   0.387  13.564  12.248
19062SOL    HW258961   0.448  13.555  12.387
19063SOL     OW58962   1.687   9.650   8.791
19063SOL    HW158963   1.719   9.615   8.708
19063SOL    HW258964   1.717   9.587   8.857
19064SOL     OW58965   0.477   8.218  11.767
19064SOL    HW158966   0.537   8.144  11.775
19064SOL    HW258967   0.503   8.277  11.838
19065SOL     OW58968   0.046   6.257   2.753
19065SOL    HW158969   0.040   6.219   2.841
19065SOL    HW258970   0.030   6.183   2.694
19066SOL     OW58971  10.518   0.587   5.642
19066SOL    HW158972  10.429   0.609   5.616
19066SOL    HW258973  10.566   0.670   5.636
19067SOL     OW58974  11.765   5.751   3.039
19067SOL    HW158975  11.691   5.700   3.006
19067SOL    HW258976  11.725   5.823   3.087
19068SOL     OW58977   8.993   3.518   2.073
19068SOL    HW158978   9.034   3.434   2.051
19068SOL    HW258979   9.066   3.579   2.079
19069SOL     OW58980   7.159   1.091   5.601
19069SOL    HW158981   7.118   1.104   5.515
19069SOL    HW258982   7.143   1.000   5.623
19070SOL     OW58983   5.913   1.936   8.957
19070SOL    HW158984   5.860   2.011   8.932
19070SOL    HW258985   5.870   1.901   9.035
19071SOL     OW58986   9.045  12.434   3.221
19071SOL    HW158987   8.987  12.425   3.297
19071SOL    HW258988   9.010  12.372   3.157
19072SOL     OW58989   1.398   9.537   0.578
19072SOL    HW158990   1.409   9.443   0.597
19072SOL    HW258991   1.487   9.569   0.566
19073SOL     OW58992  12.482   9.193   1.473
19073SOL    HW158993  12.411   9.146   1.430
19073SOL    HW258994  12.519   9.249   1.404
19074SOL     OW58995   2.055  10.961  10.732
19074SOL    HW158996   1.968  10.983  10.696
19074SOL    HW258997   2.054  11.000  10.820
19075SOL     OW58998   6.675   7.854   6.824
19075SOL    HW158999   6.594   7.802   6.824
19075SOL    HW259000   6.737   7.800   6.774
19076SOL     OW59001   9.027   0.299  10.535
19076SOL    HW159002   9.074   0.287  10.452
19076SOL    HW259003   9.037   0.215  10.580
19077SOL     OW59004   7.764  10.995  13.508
19077SOL    HW159005   7.688  11.053  13.509
19077SOL    HW259006   7.727  10.907  13.514
19078SOL     OW59007  14.540  13.983   9.326
19078SOL    HW159008  14.536  13.989   9.421
19078SOL    HW259009  14.611  14.043   9.302
19079SOL     OW59010   1.357   2.623   6.662
19079SOL    HW159011   1.394   2.553   6.609
19079SOL    HW259012   1.344   2.696   6.601
19080SOL     OW59013   5.800   6.394   8.573
19080SOL    HW159014   5.777   6.395   8.666
19080SOL    HW259015   5.798   6.486   8.547
19081SOL     OW59016   8.087   8.792  12.123
19081SOL    HW159017   8.062   8.881  12.148
19081SOL    HW259018   8.083   8.792  12.028
19082SOL     OW59019  11.973   9.452  14.712
19082SOL    HW159020  11.986   9.508  14.788
19082SOL    HW259021  11.914   9.383  14.743
19083SOL     OW59022   0.162  14.072   6.269
19083SOL    HW159023   0.213  14.053   6.190
19083SOL    HW259024   0.071  14.054   6.243
19084SOL     OW59025   4.887   3.954   5.145
19084SOL    HW159026   4.944   3.976   5.218
19084SOL    HW259027   4.941   3.965   5.067
19085SOL     OW59028   8.192   2.528  10.975
19085SOL    HW159029   8.276   2.570  10.989
19085SOL    HW259030   8.137   2.596  10.936
19086SOL     OW59031   9.892   1.046   8.935
19086SOL    HW159032   9.904   1.136   8.965
19086SOL    HW259033   9.804   1.022   8.962
19087SOL     OW59034   4.658  12.089  13.658
19087SOL    HW159035   4.601  12.124  13.590
19087SOL    HW259036   4.621  12.004  13.680
19088SOL     OW59037   8.546   3.316   7.141
19088SOL    HW159038   8.511   3.405   7.140
19088SOL    HW259039   8.510   3.276   7.062
19089SOL     OW59040   5.360   8.004   3.730
19089SOL    HW159041   5.454   7.992   3.742
19089SOL    HW259042   5.326   8.021   3.818
19090SOL     OW59043  10.064   6.801  14.571
19090SOL    HW159044   9.977   6.791  14.608
19090SOL    HW259045  10.053   6.781  14.478
19091SOL     OW59046   5.332   8.354   4.865
19091SOL    HW159047   5.357   8.412   4.793
19091SOL    HW259048   5.331   8.410   4.943
19092SOL     OW59049  10.394  10.840   6.120
19092SOL    HW159050  10.376  10.857   6.027
19092SOL    HW259051  10.464  10.775   6.119
19093SOL     OW59052  11.256   9.707   2.104
19093SOL    HW159053  11.272   9.788   2.151
19093SOL    HW259054  11.208   9.734   2.025
19094SOL     OW59055  13.457  13.578   1.071
19094SOL    HW159056  13.483  13.669   1.084
19094SOL    HW259057  13.457  13.541   1.159
19095SOL     OW59058   2.554   8.091  10.475
19095SOL    HW159059   2.490   8.104  10.546
19095SOL    HW259060   2.635   8.066  10.520
19096SOL     OW59061   9.719  12.842   9.879
19096SOL    HW159062   9.680  12.787   9.947
19096SOL    HW259063   9.728  12.785   9.803
19097SOL     OW59064  10.074   6.300   8.543
19097SOL    HW159065  10.120   6.254   8.613
19097SOL    HW259066  10.010   6.236   8.511
19098SOL     OW59067  11.459  14.639   8.211
19098SOL    HW159068  11.487  14.585   8.137
19098SOL    HW259069  11.470  14.729   8.180
19099SOL     OW59070   3.287   0.812  10.915
19099SOL    HW159071   3.240   0.875  10.860
19099SOL    HW259072   3.270   0.727  10.874
19100SOL     OW59073   2.208   0.992  10.201
19100SOL    HW159074   2.240   0.903  10.188
19100SOL    HW259075   2.268   1.046  10.151
19101SOL     OW59076  13.811   7.208   0.459
19101SOL    HW159077  13.773   7.205   0.547
19101SOL    HW259078  13.735   7.200   0.400
19102SOL     OW59079   3.169   7.293  11.135
19102SOL    HW159080   3.166   7.272  11.042
19102SOL    HW259081   3.245   7.350  11.144
19103SOL     OW59082   5.139   9.906   5.112
19103SOL    HW159083   5.218   9.959   5.098
19103SOL    HW259084   5.068   9.958   5.074
19104SOL     OW59085   4.594  11.471   8.572
19104SOL    HW159086   4.519  11.450   8.517
19104SOL    HW259087   4.559  11.530   8.639
19105SOL     OW59088   9.633   5.301   3.447
19105SOL    HW159089   9.602   5.245   3.375
19105SOL    HW259090   9.555   5.351   3.473
19106SOL     OW59091   0.643   9.283   3.171
19106SOL    HW159092   0.691   9.238   3.240
19106SOL    HW259093   0.623   9.369   3.207
19107SOL     OW59094   2.247   5.908   9.100
19107SOL    HW159095   2.277   5.961   9.174
19107SOL    HW259096   2.153   5.924   9.096
19108SOL     OW59097   8.311   1.751  11.824
19108SOL    HW159098   8.240   1.746  11.761
19108SOL    HW259099   8.280   1.813  11.890
19109SOL     OW59100  13.486   5.255  13.124
19109SOL    HW159101  13.481   5.172  13.173
19109SOL    HW259102  13.483   5.229  13.032
19110SOL     OW59103   7.560   8.699   7.528
19110SOL    HW159104   7.561   8.643   7.605
19110SOL    HW259105   7.649   8.735   7.523
19111SOL     OW59106   1.155   0.507   5.293
19111SOL    HW159107   1.192   0.510   5.205
19111SOL    HW259108   1.231   0.506   5.352
19112SOL     OW59109   7.975   3.503   3.966
19112SOL    HW159110   8.018   3.587   3.949
19112SOL    HW259111   8.043   3.448   4.004
19113SOL     OW59112   4.548  13.355  13.837
19113SOL    HW159113   4.546  13.273  13.786
19113SOL    HW259114   4.637  13.387  13.827
19114SOL     OW59115   7.769   3.125   4.602
19114SOL    HW159116   7.778   3.076   4.684
19114SOL    HW259117   7.856   3.124   4.564
19115SOL     OW59118  13.998   4.607  13.686
19115SOL    HW159119  14.043   4.547  13.747
19115SOL    HW259120  14.013   4.694  13.723
19116SOL     OW59121  14.466   3.196   3.067
19116SOL    HW159122  14.455   3.104   3.093
19116SOL    HW259123  14.457   3.244   3.149
19117SOL     OW59124   2.394   3.612  12.803
19117SOL    HW159125   2.306   3.650  12.805
19117SOL    HW259126   2.387   3.541  12.739
19118SOL     OW59127   0.968   1.829   7.452
19118SOL    HW159128   1.029   1.838   7.525
19118SOL    HW259129   0.977   1.738   7.424
19119SOL     OW59130  13.577   3.293   2.977
19119SOL    HW159131  13.620   3.209   2.993
19119SOL    HW259132  13.618   3.353   3.040
19120SOL     OW59133   2.518   9.791   5.860
19120SOL    HW159134   2.445   9.852   5.872
19120SOL    HW259135   2.493   9.737   5.785
19121SOL     OW59136   2.218   4.282   6.014
19121SOL    HW159137   2.169   4.243   6.087
19121SOL    HW259138   2.230   4.374   6.040
19122SOL     OW59139   7.345  12.697  11.613
19122SOL    HW159140   7.331  12.792  11.619
19122SOL    HW259141   7.434  12.684  11.646
19123SOL     OW59142   7.898   0.188  10.218
19123SOL    HW159143   7.907   0.213  10.310
19123SOL    HW259144   7.979   0.218  10.177
19124SOL     OW59145   2.636  14.581   9.882
19124SOL    HW159146   2.629  14.489   9.854
19124SOL    HW259147   2.728  14.602   9.870
19125SOL     OW59148  12.756  10.477   1.992
19125SOL    HW159149  12.777  10.496   1.901
19125SOL    HW259150  12.761  10.382   1.999
19126SOL     OW59151   0.725  10.665   8.625
19126SOL    HW159152   0.657  10.695   8.685
19126SOL    HW259153   0.745  10.741   8.570
19127SOL     OW59154   6.254   8.546  13.039
19127SOL    HW159155   6.219   8.461  13.067
19127SOL    HW259156   6.348   8.538  13.053
19128SOL     OW59157   1.200   9.555   8.414
19128SOL    HW159158   1.129   9.510   8.461
19128SOL    HW259159   1.186   9.648   8.433
19129SOL     OW59160   2.863  13.151  10.666
19129SOL    HW159161   2.822  13.162  10.580
19129SOL    HW259162   2.797  13.180  10.729
19130SOL     OW59163  12.550   2.865   4.291
19130SOL    HW159164  12.634   2.824   4.272
19130SOL    HW259165  12.571   2.932   4.357
19131SOL     OW59166   8.254   1.435   7.341
19131SOL    HW159167   8.237   1.443   7.247
19131SOL    HW259168   8.333   1.381   7.346
19132SOL     OW59169  10.953  13.767  11.868
19132SOL    HW159170  11.039  13.789  11.904
19132SOL    HW259171  10.955  13.672  11.860
19133SOL     OW59172  10.287   8.517   1.609
19133SOL    HW159173  10.350   8.479   1.669
19133SOL    HW259174  10.262   8.445   1.551
19134SOL     OW59175   6.830   7.523   5.914
19134SOL    HW159176   6.893   7.566   5.856
19134SOL    HW259177   6.749   7.574   5.904
19135SOL     OW59178  14.816   7.014   4.234
19135SOL    HW159179   0.023   7.058   4.245
19135SOL    HW259180  14.830   6.953   4.162
19136SOL     OW59181   4.781   2.886  12.233
19136SOL    HW159182   4.729   2.921  12.160
19136SOL    HW259183   4.844   2.955  12.252
19137SOL     OW59184   6.257   8.794   7.299
19137SOL    HW159185   6.224   8.799   7.209
19137SOL    HW259186   6.213   8.867   7.344
19138SOL     OW59187   4.943  13.405   9.430
19138SOL    HW159188   4.953  13.461   9.353
19138SOL    HW259189   4.862  13.356   9.413
19139SOL     OW59190   7.109   9.274   7.371
19139SOL    HW159191   7.056   9.197   7.349
19139SOL    HW259192   7.165   9.245   7.443
19140SOL     OW59193  14.695  12.389   4.317
19140SOL    HW159194  14.766  12.325   4.319
19140SOL    HW259195  14.727  12.461   4.372
19141SOL     OW59196   8.189   2.402   5.374
19141SOL    HW159197   8.161   2.350   5.450
19141SOL    HW259198   8.266   2.449   5.404
19142SOL     OW59199   4.865   0.831   3.289
19142SOL    HW159200   4.815   0.822   3.370
19142SOL    HW259201   4.816   0.896   3.238
19143SOL     OW59202  11.610  13.130   3.614
19143SOL    HW159203  11.609  13.212   3.665
19143SOL    HW259204  11.610  13.061   3.680
19144SOL     OW59205   7.338  12.691   7.568
19144SOL    HW159206   7.391  12.732   7.500
19144SOL    HW259207   7.398  12.635   7.616
19145SOL     OW59208  13.541   8.033  14.484
19145SOL    HW159209  13.508   8.020  14.395
19145SOL    HW259210  13.632   8.002  14.481
19146SOL     OW59211  11.915   1.291   4.293
19146SOL    HW159212  11.841   1.231   4.284
19146SOL    HW259213  11.888   1.369   4.243
19147SOL     OW59214   2.151  11.327  11.020
19147SOL    HW159215   2.138  11.232  11.024
19147SOL    HW259216   2.197  11.348  11.102
19148SOL     OW59217   2.072   4.549  12.574
19148SOL    HW159218   2.011   4.623  12.562
19148SOL    HW259219   2.124   4.573  12.651
19149SOL     OW59220  10.508   0.210   6.196
19149SOL    HW159221  10.539   0.261   6.271
19149SOL    HW259222  10.465   0.133   6.235
19150SOL     OW59223   6.972  13.013  12.669
19150SOL    HW159224   7.065  13.033  12.685
19150SOL    HW259225   6.968  12.917  12.674
19151SOL     OW59226  14.572   9.777   1.212
19151SOL    HW159227  14.604   9.687   1.218
19151SOL    HW259228  14.540   9.785   1.122
19152SOL     OW59229   1.453   5.199   6.700
19152SOL    HW159230   1.477   5.240   6.617
19152SOL    HW259231   1.526   5.218   6.758
19153SOL     OW59232  13.947  11.167   4.137
19153SOL    HW159233  13.851  11.163   4.142
19153SOL    HW259234  13.966  11.253   4.101
19154SOL     OW59235   0.608   4.555   8.052
19154SOL    HW159236   0.661   4.620   8.097
19154SOL    HW259237   0.535   4.605   8.016
19155SOL     OW59238   4.376   3.078   2.204
19155SOL    HW159239   4.455   3.023   2.200
19155SOL    HW259240   4.311   3.024   2.249
19156SOL     OW59241  10.560   7.387  12.404
19156SOL    HW159242  10.542   7.301  12.365
19156SOL    HW259243  10.648   7.378  12.443
19157SOL     OW59244   7.874   0.272   3.722
19157SOL    HW159245   7.942   0.318   3.673
19157SOL    HW259246   7.907   0.269   3.812
19158SOL     OW59247  13.779   7.989   5.014
19158SOL    HW159248  13.709   8.040   5.055
19158SOL    HW259249  13.859   8.038   5.033
19159SOL     OW59250   9.609   6.878   0.822
19159SOL    HW159251   9.573   6.944   0.881
19159SOL    HW259252   9.584   6.794   0.861
19160SOL     OW59253   8.757  10.973   9.378
19160SOL    HW159254   8.846  10.948   9.400
19160SOL    HW259255   8.702  10.928   9.443
19161SOL     OW59256   9.970   0.569  13.711
19161SOL    HW159257   9.904   0.592  13.775
19161SOL    HW259258  10.004   0.484  13.740
19162SOL     OW59259   6.192   1.961   0.536
19162SOL    HW159260   6.275   2.008   0.541
19162SOL    HW259261   6.130   2.017   0.582
19163SOL     OW59262   1.803   7.710   5.586
19163SOL    HW159263   1.753   7.681   5.510
19163SOL    HW259264   1.763   7.794   5.611
19164SOL     OW59265   3.887   9.878  13.798
19164SOL    HW159266   3.871   9.853  13.890
19164SOL    HW259267   3.971   9.923  13.800
19165SOL     OW59268   9.611   5.378   5.710
19165SOL    HW159269   9.541   5.346   5.767
19165SOL    HW259270   9.604   5.474   5.717
19166SOL     OW59271  10.490   9.574   3.349
19166SOL    HW159272  10.509   9.666   3.330
19166SOL    HW259273  10.495   9.530   3.265
19167SOL     OW59274   6.084   9.204   0.356
19167SOL    HW159275   6.113   9.266   0.423
19167SOL    HW259276   6.165   9.173   0.316
19168SOL     OW59277   8.347   7.330  10.291
19168SOL    HW159278   8.371   7.312  10.200
19168SOL    HW259279   8.430   7.329  10.338
19169SOL     OW59280   9.393   3.661  11.647
19169SOL    HW159281   9.455   3.720  11.605
19169SOL    HW259282   9.340   3.626  11.576
19170SOL     OW59283   4.525   3.418  10.435
19170SOL    HW159284   4.446   3.365  10.450
19170SOL    HW259285   4.554   3.392  10.348
19171SOL     OW59286   5.489  14.696   0.644
19171SOL    HW159287   5.500  14.791   0.644
19171SOL    HW259288   5.438  14.677   0.564
19172SOL     OW59289  14.671   3.000  11.623
19172SOL    HW159290  14.626   3.081  11.599
19172SOL    HW259291  14.615   2.961  11.690
19173SOL     OW59292   4.602   0.464  10.222
19173SOL    HW159293   4.645   0.410  10.157
19173SOL    HW259294   4.673   0.509  10.268
19174SOL     OW59295  13.110  10.470  10.669
19174SOL    HW159296  13.058  10.432  10.740
19174SOL    HW259297  13.194  10.426  10.675
19175SOL     OW59298   5.419  10.306   0.640
19175SOL    HW159299   5.403  10.338   0.729
19175SOL    HW259300   5.477  10.370   0.601
19176SOL     OW59301   4.636   7.997   8.575
19176SOL    HW159302   4.658   7.944   8.498
19176SOL    HW259303   4.593   7.935   8.634
19177SOL     OW59304   5.724  12.636   2.691
19177SOL    HW159305   5.761  12.584   2.620
19177SOL    HW259306   5.798  12.658   2.747
19178SOL     OW59307   6.182   4.899  10.790
19178SOL    HW159308   6.202   4.963  10.858
19178SOL    HW259309   6.125   4.946  10.730
19179SOL     OW59310  12.458  10.421   6.828
19179SOL    HW159311  12.482  10.458   6.743
19179SOL    HW259312  12.528  10.358   6.847
19180SOL     OW59313   5.812   9.738   7.868
19180SOL    HW159314   5.779   9.706   7.952
19180SOL    HW259315   5.904   9.759   7.884
19181SOL     OW59316  10.317   8.702   4.920
19181SOL    HW159317  10.345   8.727   4.832
19181SOL    HW259318  10.234   8.657   4.907
19182SOL     OW59319  11.016   6.108   4.265
19182SOL    HW159320  11.071   6.042   4.307
19182SOL    HW259321  11.017   6.084   4.172
19183SOL     OW59322   0.119  11.760   1.619
19183SOL    HW159323   0.071  11.711   1.552
19183SOL    HW259324   0.109  11.707   1.698
19184SOL     OW59325   6.898  13.235   5.157
19184SOL    HW159326   6.894  13.299   5.228
19184SOL    HW259327   6.934  13.284   5.083
19185SOL     OW59328  12.622   4.587   0.099
19185SOL    HW159329  12.710   4.621   0.110
19185SOL    HW259330  12.569   4.637   0.162
19186SOL     OW59331   8.750  10.504   7.528
19186SOL    HW159332   8.669  10.457   7.547
19186SOL    HW259333   8.790  10.518   7.613
19187SOL     OW59334   1.394   3.155   5.338
19187SOL    HW159335   1.483   3.185   5.357
19187SOL    HW259336   1.359   3.128   5.423
19188SOL     OW59337   2.472   5.480   9.948
19188SOL    HW159338   2.425   5.462  10.030
19188SOL    HW259339   2.448   5.408   9.891
19189SOL     OW59340   8.450  13.916   7.039
19189SOL    HW159341   8.522  13.879   7.090
19189SOL    HW259342   8.373  13.865   7.065
19190SOL     OW59343   8.363  12.628   8.083
19190SOL    HW159344   8.379  12.644   8.176
19190SOL    HW259345   8.378  12.534   8.071
19191SOL     OW59346   1.212   2.930   8.500
19191SOL    HW159347   1.250   2.885   8.425
19191SOL    HW259348   1.119   2.935   8.480
19192SOL     OW59349   9.132   3.273  12.928
19192SOL    HW159350   9.153   3.255  12.836
19192SOL    HW259351   9.158   3.193  12.974
19193SOL     OW59352   6.986  11.428  14.235
19193SOL    HW159353   6.990  11.334  14.253
19193SOL    HW259354   6.897  11.444  14.205
19194SOL     OW59355   7.111   8.899   4.213
19194SOL    HW159356   7.076   8.825   4.263
19194SOL    HW259357   7.141   8.961   4.279
19195SOL     OW59358   0.399  12.202   2.281
19195SOL    HW159359   0.399  12.290   2.242
19195SOL    HW259360   0.468  12.155   2.234
19196SOL     OW59361  12.545  10.956  14.583
19196SOL    HW159362  12.565  10.875  14.537
19196SOL    HW259363  12.506  11.013  14.517
19197SOL     OW59364   2.216  10.637   3.010
19197SOL    HW159365   2.153  10.617   2.941
19197SOL    HW259366   2.195  10.727   3.036
19198SOL     OW59367  11.857   7.518   8.629
19198SOL    HW159368  11.878   7.473   8.547
19198SOL    HW259369  11.935   7.572   8.647
19199SOL     OW59370   7.754  14.082  13.108
19199SOL    HW159371   7.665  14.047  13.110
19199SOL    HW259372   7.751  14.149  13.040
19200SOL     OW59373   3.815   0.533   7.037
19200SOL    HW159374   3.761   0.470   6.989
19200SOL    HW259375   3.897   0.486   7.054
19201SOL     OW59376   8.852   6.498  12.670
19201SOL    HW159377   8.828   6.591  12.668
19201SOL    HW259378   8.824   6.465  12.584
19202SOL     OW59379   7.023   1.251   6.670
19202SOL    HW159380   7.112   1.286   6.680
19202SOL    HW259381   7.037   1.166   6.627
19203SOL     OW59382  10.799   1.407   5.673
19203SOL    HW159383  10.773   1.463   5.600
19203SOL    HW259384  10.885   1.373   5.648
19204SOL     OW59385   3.238  10.445   2.719
19204SOL    HW159386   3.255  10.378   2.653
19204SOL    HW259387   3.324  10.481   2.740
19205SOL     OW59388  12.797   8.444  11.534
19205SOL    HW159389  12.866   8.378  11.531
19205SOL    HW259390  12.774   8.459  11.442
19206SOL     OW59391   5.096  12.872  13.674
19206SOL    HW159392   5.005  12.874  13.703
19206SOL    HW259393   5.121  12.779  13.677
19207SOL     OW59394   6.588   0.241  14.117
19207SOL    HW159395   6.535   0.316  14.146
19207SOL    HW259396   6.548   0.214  14.034
19208SOL     OW59397  14.064  12.506  11.313
19208SOL    HW159398  13.991  12.542  11.263
19208SOL    HW259399  14.064  12.555  11.395
19209SOL     OW59400   5.350   9.340   4.549
19209SOL    HW159401   5.328   9.428   4.519
19209SOL    HW259402   5.445   9.335   4.545
19210SOL     OW59403  10.541  11.226   8.602
19210SOL    HW159404  10.549  11.194   8.692
19210SOL    HW259405  10.451  11.259   8.595
19211SOL     OW59406   9.359   6.388   8.346
19211SOL    HW159407   9.293   6.444   8.388
19211SOL    HW259408   9.413   6.449   8.296
19212SOL     OW59409   2.621   3.248  14.842
19212SOL    HW159410   2.654   3.191   0.034
19212SOL    HW259411   2.610   3.333   0.006
19213SOL     OW59412   4.294   0.260   2.052
19213SOL    HW159413   4.352   0.184   2.044
19213SOL    HW259414   4.244   0.260   1.970
19214SOL     OW59415   0.851   3.184   8.133
19214SOL    HW159416   0.811   3.150   8.213
19214SOL    HW259417   0.798   3.149   8.062
19215SOL     OW59418   3.308   2.692   4.534
19215SOL    HW159419   3.292   2.618   4.593
19215SOL    HW259420   3.377   2.742   4.576
19216SOL     OW59421  12.478   0.206   1.260
19216SOL    HW159422  12.444   0.250   1.182
19216SOL    HW259423  12.545   0.146   1.226
19217SOL     OW59424   7.441  11.110  11.323
19217SOL    HW159425   7.498  11.109  11.246
19217SOL    HW259426   7.352  11.103  11.287
19218SOL     OW59427  13.796   8.414  10.614
19218SOL    HW159428  13.805   8.326  10.577
19218SOL    HW259429  13.747   8.462  10.547
19219SOL     OW59430   3.120   8.997  12.710
19219SOL    HW159431   3.167   8.923  12.671
19219SOL    HW259432   3.029   8.966  12.717
19220SOL     OW59433   9.821   3.828   6.141
19220SOL    HW159434   9.816   3.898   6.206
19220SOL    HW259435   9.765   3.759   6.176
19221SOL     OW59436   9.264   4.921   8.328
19221SOL    HW159437   9.309   4.849   8.282
19221SOL    HW259438   9.204   4.957   8.263
19222SOL     OW59439   1.281   9.230   4.843
19222SOL    HW159440   1.191   9.262   4.841
19222SOL    HW259441   1.313   9.255   4.930
19223SOL     OW59442   2.483  11.937   7.221
19223SOL    HW159443   2.505  11.970   7.134
19223SOL    HW259444   2.444  12.012   7.266
19224SOL     OW59445   9.229  12.578   2.371
19224SOL    HW159446   9.222  12.673   2.360
19224SOL    HW259447   9.319  12.565   2.401
19225SOL     OW59448   5.518   8.096   4.557
19225SOL    HW159449   5.563   8.118   4.639
19225SOL    HW259450   5.497   8.003   4.567
19226SOL     OW59451   6.632   9.203   1.242
19226SOL    HW159452   6.647   9.147   1.318
19226SOL    HW259453   6.585   9.279   1.277
19227SOL     OW59454   4.445   4.271   1.145
19227SOL    HW159455   4.534   4.268   1.179
19227SOL    HW259456   4.423   4.180   1.124
19228SOL     OW59457   0.415  11.458  11.382
19228SOL    HW159458   0.411  11.549  11.411
19228SOL    HW259459   0.433  11.463  11.288
19229SOL     OW59460  12.079  11.667   9.706
19229SOL    HW159461  12.026  11.652   9.784
19229SOL    HW259462  12.022  11.641   9.633
19230SOL     OW59463   0.180   7.420   5.147
19230SOL    HW159464   0.259   7.473   5.147
19230SOL    HW259465   0.201   7.345   5.202
19231SOL     OW59466   1.547   0.117  14.320
19231SOL    HW159467   1.514   0.157  14.239
19231SOL    HW259468   1.609   0.050  14.290
19232SOL     OW59469   2.286  14.487   2.708
19232SOL    HW159470   2.289  14.521   2.797
19232SOL    HW259471   2.319  14.398   2.715
19233SOL     OW59472  14.432  10.336   9.331
19233SOL    HW159473  14.521  10.366   9.351
19233SOL    HW259474  14.381  10.359   9.409
19234SOL     OW59475   4.561   7.587   2.827
19234SOL    HW159476   4.586   7.505   2.870
19234SOL    HW259477   4.470   7.574   2.802
19235SOL     OW59478  11.210  11.217   2.823
19235SOL    HW159479  11.115  11.202   2.824
19235SOL    HW259480  11.241  11.167   2.747
19236SOL     OW59481   7.377   3.944   3.807
19236SOL    HW159482   7.449   4.007   3.805
19236SOL    HW259483   7.299   3.997   3.789
19237SOL     OW59484  11.983   4.209   4.902
19237SOL    HW159485  12.069   4.168   4.904
19237SOL    HW259486  12.000   4.303   4.890
19238SOL     OW59487   8.410   0.518  11.038
19238SOL    HW159488   8.453   0.526  11.123
19238SOL    HW259489   8.479   0.533  10.973
19239SOL     OW59490   7.987   5.519   4.957
19239SOL    HW159491   8.064   5.463   4.952
19239SOL    HW259492   7.935   5.496   4.880
19240SOL     OW59493   4.738   6.643  12.165
19240SOL    HW159494   4.745   6.646  12.261
19240SOL    HW259495   4.707   6.731  12.141
19241SOL     OW59496   8.974   3.372   2.473
19241SOL    HW159497   8.960   3.413   2.558
19241SOL    HW259498   9.066   3.389   2.453
19242SOL     OW59499   9.892   1.600  14.513
19242SOL    HW159500   9.922   1.686  14.542
19242SOL    HW259501   9.800   1.613  14.491
19243SOL     OW59502   0.497   7.444   5.668
19243SOL    HW159503   0.517   7.521   5.615
19243SOL    HW259504   0.478   7.479   5.755
19244SOL     OW59505   6.874  11.594   8.513
19244SOL    HW159506   6.854  11.500   8.509
19244SOL    HW259507   6.934  11.602   8.587
19245SOL     OW59508   6.486   4.070   4.383
19245SOL    HW159509   6.504   4.159   4.414
19245SOL    HW259510   6.469   4.020   4.463
19246SOL     OW59511  13.664   4.000   7.901
19246SOL    HW159512  13.682   4.092   7.918
19246SOL    HW259513  13.674   3.957   7.986
19247SOL     OW59514   0.061  11.917   6.457
19247SOL    HW159515   0.048  11.832   6.499
19247SOL    HW259516   0.153  11.918   6.432
19248SOL     OW59517   4.137   0.722   5.983
19248SOL    HW159518   4.229   0.709   6.006
19248SOL    HW259519   4.099   0.634   5.985
19249SOL     OW59520  11.869   6.924   1.109
19249SOL    HW159521  11.938   6.961   1.054
19249SOL    HW259522  11.832   6.853   1.057
19250SOL     OW59523   0.507  12.897   5.664
19250SOL    HW159524   0.509  12.808   5.629
19250SOL    HW259525   0.506  12.885   5.759
19251SOL     OW59526  11.495  10.145   3.800
19251SOL    HW159527  11.491  10.050   3.787
19251SOL    HW259528  11.406  10.175   3.783
19252SOL     OW59529   7.744  11.613   2.715
19252SOL    HW159530   7.746  11.630   2.620
19252SOL    HW259531   7.824  11.565   2.732
19253SOL     OW59532   4.453   7.016   6.166
19253SOL    HW159533   4.455   6.960   6.089
19253SOL    HW259534   4.524   6.985   6.222
19254SOL     OW59535  11.975   1.698   5.609
19254SOL    HW159536  11.908   1.698   5.678
19254SOL    HW259537  12.027   1.620   5.628
19255SOL     OW59538  14.552   1.547  11.418
19255SOL    HW159539  14.546   1.643  11.424
19255SOL    HW259540  14.644   1.528  11.433
19256SOL     OW59541   2.484   2.747  11.906
19256SOL    HW159542   2.482   2.665  11.857
19256SOL    HW259543   2.456   2.814  11.844
19257SOL     OW59544   3.112  14.840   1.202
19257SOL    HW159545   3.205  14.845   1.181
19257SOL    HW259546   3.069   0.007   1.130
19258SOL     OW59547   9.454   4.836  14.117
19258SOL    HW159548   9.458   4.916  14.168
19258SOL    HW259549   9.546   4.819  14.093
19259SOL     OW59550   6.850  11.198   8.085
19259SOL    HW159551   6.877  11.177   8.174
19259SOL    HW259552   6.757  11.222   8.092
19260SOL     OW59553   3.791  10.147   9.281
19260SOL    HW159554   3.825  10.108   9.362
19260SOL    HW259555   3.813  10.084   9.213
19261SOL     OW59556  10.419   2.364   2.896
19261SOL    HW159557  10.375   2.333   2.975
19261SOL    HW259558  10.356   2.425   2.855
19262SOL     OW59559   8.349   5.017  13.772
19262SOL    HW159560   8.297   5.093  13.797
19262SOL    HW259561   8.437   5.052  13.756
19263SOL     OW59562  13.485   2.450   0.375
19263SOL    HW159563  13.516   2.538   0.350
19263SOL    HW259564  13.468   2.457   0.469
19264SOL     OW59565  13.667  13.128  11.833
19264SOL    HW159566  13.722  13.082  11.769
19264SOL    HW259567  13.635  13.205  11.785
19265SOL     OW59568   9.312  11.780   8.433
19265SOL    HW159569   9.396  11.769   8.479
19265SOL    HW259570   9.254  11.716   8.475
19266SOL     OW59571  13.276   7.333   8.075
19266SOL    HW159572  13.346   7.291   8.023
19266SOL    HW259573  13.306   7.325   8.166
19267SOL     OW59574   1.374  11.869   1.545
19267SOL    HW159575   1.376  11.773   1.540
19267SOL    HW259576   1.370  11.897   1.453
19268SOL     OW59577   3.457  13.759   5.344
19268SOL    HW159578   3.456  13.763   5.439
19268SOL    HW259579   3.483  13.847   5.317
19269SOL     OW59580  10.745   0.582   1.653
19269SOL    HW159581  10.810   0.641   1.614
19269SOL    HW259582  10.666   0.636   1.661
19270SOL     OW59583  13.292   8.587   6.221
19270SOL    HW159584  13.231   8.594   6.294
19270SOL    HW259585  13.329   8.675   6.212
19271SOL     OW59586   3.437   6.508   1.763
19271SOL    HW159587   3.510   6.565   1.787
19271SOL    HW259588   3.473   6.420   1.766
19272SOL     OW59589   0.514   2.696   8.757
19272SOL    HW159590   0.458   2.722   8.829
19272SOL    HW259591   0.601   2.728   8.781
19273SOL     OW59592   8.606  10.355   1.817
19273SOL    HW159593   8.519  10.348   1.856
19273SOL    HW259594   8.666  10.326   1.885
19274SOL     OW59595   1.669  13.165   6.325
19274SOL    HW159596   1.728  13.239   6.308
19274SOL    HW259597   1.589  13.206   6.357
19275SOL     OW59598   8.798  10.588   9.253
19275SOL    HW159599   8.838  10.558   9.171
19275SOL    HW259600   8.709  10.614   9.229
19276SOL     OW59601  14.656   2.917   9.243
19276SOL    HW159602  14.657   2.938   9.337
19276SOL    HW259603  14.580   2.965   9.210
19277SOL     OW59604   7.601  12.506   6.195
19277SOL    HW159605   7.581  12.542   6.281
19277SOL    HW259606   7.521  12.463   6.167
19278SOL     OW59607  14.172   9.630   2.112
19278SOL    HW159608  14.147   9.709   2.160
19278SOL    HW259609  14.258   9.607   2.147
19279SOL     OW59610   0.466   4.461   6.835
19279SOL    HW159611   0.375   4.489   6.844
19279SOL    HW259612   0.516   4.524   6.887
19280SOL     OW59613   1.276   9.622  14.564
19280SOL    HW159614   1.300   9.544  14.613
19280SOL    HW259615   1.356   9.674  14.559
19281SOL     OW59616   1.863   4.902  12.045
19281SOL    HW159617   1.928   4.870  11.982
19281SOL    HW259618   1.901   4.982  12.081
19282SOL     OW59619   7.478   9.352   6.822
19282SOL    HW159620   7.533   9.399   6.759
19282SOL    HW259621   7.423   9.420   6.862
19283SOL     OW59622   9.069   7.237   7.543
19283SOL    HW159623   9.098   7.238   7.452
19283SOL    HW259624   9.124   7.170   7.585
19284SOL     OW59625  13.556  12.640   9.890
19284SOL    HW159626  13.601  12.593   9.960
19284SOL    HW259627  13.541  12.573   9.822
19285SOL     OW59628   9.390  12.328  10.266
19285SOL    HW159629   9.390  12.287  10.180
19285SOL    HW259630   9.471  12.379  10.269
19286SOL     OW59631  11.108  14.745   2.217
19286SOL    HW159632  11.165  14.688   2.165
19286SOL    HW259633  11.057  14.685   2.271
19287SOL     OW59634   7.248   3.081   8.802
19287SOL    HW159635   7.327   3.122   8.838
19287SOL    HW259636   7.217   3.023   8.871
19288SOL     OW59637   4.618   6.129  14.083
19288SOL    HW159638   4.588   6.167  14.000
19288SOL    HW259639   4.713   6.136  14.080
19289SOL     OW59640   7.057   8.610   7.979
19289SOL    HW159641   7.102   8.545   7.926
19289SOL    HW259642   7.125   8.670   8.009
19290SOL     OW59643   3.933  14.700   6.478
19290SOL    HW159644   3.933  14.732   6.568
19290SOL    HW259645   3.846  14.663   6.465
19291SOL     OW59646   1.819  11.739  14.657
19291SOL    HW159647   1.897  11.684  14.668
19291SOL    HW259648   1.833  11.784  14.574
19292SOL     OW59649   5.496   6.712  14.220
19292SOL    HW159650   5.433   6.782  14.200
19292SOL    HW259651   5.475   6.643  14.157
19293SOL     OW59652  10.710  12.397  13.038
19293SOL    HW159653  10.733  12.310  13.004
19293SOL    HW259654  10.721  12.455  12.963
19294SOL     OW59655   5.421  12.627   1.557
19294SOL    HW159656   5.346  12.666   1.512
19294SOL    HW259657   5.410  12.653   1.649
19295SOL     OW59658   4.292   0.796   9.039
19295SOL    HW159659   4.370   0.782   8.986
19295SOL    HW259660   4.245   0.867   8.995
19296SOL     OW59661   3.886  12.472   9.423
19296SOL    HW159662   3.879  12.557   9.379
19296SOL    HW259663   3.923  12.413   9.358
19297SOL     OW59664   1.930   9.159  10.978
19297SOL    HW159665   1.897   9.092  10.917
19297SOL    HW259666   1.927   9.240  10.928
19298SOL     OW59667   6.598   9.752   3.050
19298SOL    HW159668   6.572   9.671   3.094
19298SOL    HW259669   6.693   9.757   3.062
19299SOL     OW59670  12.575  14.687   6.101
19299SOL    HW159671  12.513  14.688   6.028
19299SOL    HW259672  12.616  14.773   6.098
19300SOL     OW59673   2.790  12.185  11.615
19300SOL    HW159674   2.719  12.212  11.674
19300SOL    HW259675   2.838  12.266  11.598
19301SOL     OW59676  14.315  11.623   6.707
19301SOL    HW159677  14.312  11.585   6.619
19301SOL    HW259678  14.400  11.597   6.742
19302SOL     OW59679  12.511  10.914  12.096
19302SOL    HW159680  12.446  10.962  12.045
19302SOL    HW259681  12.463  10.840  12.134
19303SOL     OW59682   5.699   3.003  11.754
19303SOL    HW159683   5.676   3.095  11.768
19303SOL    HW259684   5.738   2.975  11.837
19304SOL     OW59685   1.340   6.696   5.102
19304SOL    HW159686   1.420   6.744   5.080
19304SOL    HW259687   1.359   6.657   5.187
19305SOL     OW59688   9.918  13.374   4.232
19305SOL    HW159689   9.853  13.318   4.189
19305SOL    HW259690   9.884  13.387   4.320
19306SOL     OW59691   1.420   1.279  12.367
19306SOL    HW159692   1.377   1.342  12.426
19306SOL    HW259693   1.350   1.248  12.310
19307SOL     OW59694   3.789   3.217  11.301
19307SOL    HW159695   3.699   3.196  11.324
19307SOL    HW259696   3.810   3.159  11.228
19308SOL     OW59697   2.013   0.627  14.087
19308SOL    HW159698   2.055   0.672  14.161
19308SOL    HW259699   1.941   0.578  14.128
19309SOL     OW59700   6.484   4.877   2.773
19309SOL    HW159701   6.556   4.891   2.712
19309SOL    HW259702   6.526   4.845   2.853
19310SOL     OW59703  11.986   8.263   6.601
19310SOL    HW159704  11.893   8.242   6.590
19310SOL    HW259705  11.993   8.294   6.691
19311SOL     OW59706   3.007   5.296  12.225
19311SOL    HW159707   3.090   5.306  12.178
19311SOL    HW259708   2.998   5.202  12.239
19312SOL     OW59709   3.459   5.216   0.910
19312SOL    HW159710   3.448   5.146   0.973
19312SOL    HW259711   3.494   5.290   0.961
19313SOL     OW59712   9.289   9.265   5.840
19313SOL    HW159713   9.271   9.188   5.787
19313SOL    HW259714   9.276   9.236   5.930
19314SOL     OW59715   9.466  12.414  12.584
19314SOL    HW159716   9.494  12.480  12.520
19314SOL    HW259717   9.437  12.340  12.531
19315SOL     OW59718   6.256   7.715  12.287
19315SOL    HW159719   6.337   7.664  12.284
19315SOL    HW259720   6.212   7.685  12.367
19316SOL     OW59721   0.190   0.041  10.144
19316SOL    HW159722   0.141   0.066  10.066
19316SOL    HW259723   0.227  14.834  10.123
19317SOL     OW59724   4.320   7.707  10.010
19317SOL    HW159725   4.399   7.661   9.983
19317SOL    HW259726   4.334   7.726  10.103
19318SOL     OW59727   0.037   1.137   3.489
19318SOL    HW159728   0.092   1.092   3.553
19318SOL    HW259729   0.006   1.068   3.431
19319SOL     OW59730   0.055  14.334   5.861
19319SOL    HW159731   0.141  14.307   5.830
19319SOL    HW259732   0.058  14.430   5.858
19320SOL     OW59733   1.905   7.646   9.241
19320SOL    HW159734   1.848   7.620   9.169
19320SOL    HW259735   1.868   7.603   9.318
19321SOL     OW59736   0.862   8.336   7.391
19321SOL    HW159737   0.869   8.432   7.394
19321SOL    HW259738   0.947   8.305   7.419
19322SOL     OW59739   4.469   8.840   9.962
19322SOL    HW159740   4.388   8.834   9.911
19322SOL    HW259741   4.441   8.866  10.050
19323SOL     OW59742  13.602  14.618   0.437
19323SOL    HW159743  13.648  14.692   0.397
19323SOL    HW259744  13.622  14.625   0.530
19324SOL     OW59745   9.937   0.480  14.180
19324SOL    HW159746   9.945   0.384  14.181
19324SOL    HW259747   9.938   0.505  14.272
19325SOL     OW59748  13.280   1.421  11.926
19325SOL    HW159749  13.269   1.485  11.856
19325SOL    HW259750  13.195   1.376  11.931
19326SOL     OW59751   4.642   7.144   0.248
19326SOL    HW159752   4.691   7.164   0.328
19326SOL    HW259753   4.659   7.052   0.231
19327SOL     OW59754   1.419   8.667   6.209
19327SOL    HW159755   1.470   8.654   6.129
19327SOL    HW259756   1.383   8.580   6.228
19328SOL     OW59757  14.348   5.077   7.800
19328SOL    HW159758  14.318   5.009   7.739
19328SOL    HW259759  14.424   5.037   7.844
19329SOL     OW59760   0.311   0.458   9.234
19329SOL    HW159761   0.394   0.424   9.268
19329SOL    HW259762   0.293   0.404   9.158
19330SOL     OW59763  11.810  11.062  14.572
19330SOL    HW159764  11.832  11.138  14.625
19330SOL    HW259765  11.716  11.071  14.555
19331SOL     OW59766   5.246  11.893  12.970
19331SOL    HW159767   5.198  11.947  13.032
19331SOL    HW259768   5.302  11.837  13.024
19332SOL     OW59769   5.319  14.667   2.714
19332SOL    HW159770   5.237  14.636   2.750
19332SOL    HW259771   5.380  14.594   2.726
19333SOL     OW59772  10.266  12.439   1.936
19333SOL    HW159773  10.301  12.520   1.900
19333SOL    HW259774  10.219  12.399   1.862
19334SOL     OW59775   1.314  14.512   8.184
19334SOL    HW159776   1.286  14.440   8.241
19334SOL    HW259777   1.393  14.546   8.225
19335SOL     OW59778   5.669   4.080   9.822
19335SOL    HW159779   5.604   4.060   9.755
19335SOL    HW259780   5.751   4.093   9.773
19336SOL     OW59781  10.835   6.249   6.754
19336SOL    HW159782  10.819   6.162   6.717
19336SOL    HW259783  10.860   6.233   6.845
19337SOL     OW59784   6.628  14.161   1.085
19337SOL    HW159785   6.694  14.229   1.092
19337SOL    HW259786   6.676  14.079   1.101
19338SOL     OW59787   1.885  13.530   2.427
19338SOL    HW159788   1.916  13.501   2.513
19338SOL    HW259789   1.882  13.450   2.375
19339SOL     OW59790   5.407   1.836  12.422
19339SOL    HW159791   5.493   1.877  12.426
19339SOL    HW259792   5.417   1.765  12.358
19340SOL     OW59793   2.036  11.150  12.840
19340SOL    HW159794   1.950  11.109  12.836
19340SOL    HW259795   2.093  11.083  12.879
19341SOL     OW59796   4.481  11.108   2.698
19341SOL    HW159797   4.498  11.040   2.633
19341SOL    HW259798   4.394  11.143   2.675
19342SOL     OW59799   5.971   0.078  12.254
19342SOL    HW159800   5.928  14.871  12.265
19342SOL    HW259801   6.032   0.065  12.182
19343SOL     OW59802   9.648  10.737   3.035
19343SOL    HW159803   9.648  10.646   3.005
19343SOL    HW259804   9.556  10.761   3.038
19344SOL     OW59805   7.251   6.486  14.823
19344SOL    HW159806   7.346   6.471  14.821
19344SOL    HW259807   7.235   6.541  14.745
19345SOL     OW59808   6.656   4.410   1.670
19345SOL    HW159809   6.680   4.358   1.592
19345SOL    HW259810   6.687   4.498   1.651
19346SOL     OW59811  11.090   9.858   4.048
19346SOL    HW159812  11.115   9.946   4.074
19346SOL    HW259813  11.085   9.809   4.130
19347SOL     OW59814   6.813   2.594  10.935
19347SOL    HW159815   6.804   2.499  10.929
19347SOL    HW259816   6.772   2.626  10.854
19348SOL     OW59817  10.599   4.183   3.387
19348SOL    HW159818  10.679   4.180   3.438
19348SOL    HW259819  10.600   4.102   3.336
19349SOL     OW59820   6.746   2.206  14.144
19349SOL    HW159821   6.831   2.249  14.133
19349SOL    HW259822   6.766   2.119  14.179
19350SOL     OW59823   2.109  10.700  14.641
19350SOL    HW159824   2.120  10.707  14.735
19350SOL    HW259825   2.031  10.646  14.629
19351SOL     OW59826   6.405   0.168   1.908
19351SOL    HW159827   6.353   0.164   1.987
19351SOL    HW259828   6.359   0.231   1.852
19352SOL     OW59829  11.650   4.608   1.971
19352SOL    HW159830  11.611   4.557   1.900
19352SOL    HW259831  11.577   4.659   2.006
19353SOL     OW59832   0.366   6.982   3.458
19353SOL    HW159833   0.307   7.051   3.486
19353SOL    HW259834   0.361   6.916   3.527
19354SOL     OW59835  14.439   9.163  14.289
19354SOL    HW159836  14.461   9.074  14.260
19354SOL    HW259837  14.498   9.179  14.362
19355SOL     OW59838   8.085  11.718  13.738
19355SOL    HW159839   8.135  11.670  13.805
19355SOL    HW259840   8.151  11.771  13.693
19356SOL     OW59841   3.279   6.760   9.728
19356SOL    HW159842   3.282   6.754   9.824
19356SOL    HW259843   3.299   6.851   9.709
19357SOL     OW59844  12.415   1.618   6.374
19357SOL    HW159845  12.421   1.522   6.373
19357SOL    HW259846  12.324   1.637   6.395
19358SOL     OW59847   5.111   0.561  10.542
19358SOL    HW159848   5.060   0.624  10.594
19358SOL    HW259849   5.136   0.609  10.464
19359SOL     OW59850  11.729  13.557   7.270
19359SOL    HW159851  11.651  13.530   7.320
19359SOL    HW259852  11.780  13.609   7.332
19360SOL     OW59853   5.966   8.675   8.806
19360SOL    HW159854   6.016   8.629   8.739
19360SOL    HW259855   5.989   8.767   8.795
19361SOL     OW59856   1.191   3.314  12.475
19361SOL    HW159857   1.183   3.370  12.551
19361SOL    HW259858   1.101   3.302  12.444
19362SOL     OW59859   5.713   7.799   1.355
19362SOL    HW159860   5.774   7.762   1.291
19362SOL    HW259861   5.708   7.892   1.332
19363SOL     OW59862   7.117   3.738   5.792
19363SOL    HW159863   7.197   3.770   5.749
19363SOL    HW259864   7.051   3.738   5.722
19364SOL     OW59865   3.613  13.821  14.709
19364SOL    HW159866   3.549  13.885  14.680
19364SOL    HW259867   3.603  13.747  14.648
19365SOL     OW59868   7.864   2.655   7.576
19365SOL    HW159869   7.868   2.560   7.564
19365SOL    HW259870   7.817   2.667   7.658
19366SOL     OW59871   9.173  11.896  14.547
19366SOL    HW159872   9.220  11.909  14.465
19366SOL    HW259873   9.235  11.850  14.603
19367SOL     OW59874   1.621  11.545  11.551
19367SOL    HW159875   1.650  11.539  11.641
19367SOL    HW259876   1.530  11.515  11.553
19368SOL     OW59877  11.105  12.063   0.556
19368SOL    HW159878  11.073  12.049   0.467
19368SOL    HW259879  11.194  12.096   0.545
19369SOL     OW59880   7.863   0.065   5.650
19369SOL    HW159881   7.862  14.877   5.581
19369SOL    HW259882   7.857   0.014   5.731
19370SOL     OW59883   2.567   1.315  12.960
19370SOL    HW159884   2.582   1.367  13.039
19370SOL    HW259885   2.652   1.278  12.939
19371SOL     OW59886   8.593  14.707  14.006
19371SOL    HW159887   8.514  14.706  13.951
19371SOL    HW259888   8.644  14.632  13.975
19372SOL     OW59889   6.598   6.395  13.171
19372SOL    HW159890   6.604   6.394  13.075
19372SOL    HW259891   6.606   6.487  13.195
19373SOL     OW59892   1.255   2.287   0.937
19373SOL    HW159893   1.345   2.257   0.924
19373SOL    HW259894   1.201   2.211   0.916
19374SOL     OW59895   6.524   6.078   3.351
19374SOL    HW159896   6.541   6.065   3.258
19374SOL    HW259897   6.490   6.168   3.357
19375SOL     OW59898   7.865  10.931   1.661
19375SOL    HW159899   7.941  10.908   1.609
19375SOL    HW259900   7.803  10.969   1.599
19376SOL     OW59901   4.619   6.424  14.638
19376SOL    HW159902   4.699   6.371  14.636
19376SOL    HW259903   4.576   6.406  14.554
19377SOL     OW59904   0.124   1.289   5.974
19377SOL    HW159905   0.181   1.217   5.998
19377SOL    HW259906   0.182   1.365   5.966
19378SOL     OW59907  13.576   7.388   5.854
19378SOL    HW159908  13.578   7.484   5.862
19378SOL    HW259909  13.521   7.359   5.927
19379SOL     OW59910  11.788   4.284   5.313
19379SOL    HW159911  11.782   4.217   5.244
19379SOL    HW259912  11.820   4.236   5.390
19380SOL     OW59913   2.972   9.999   1.418
19380SOL    HW159914   3.019  10.026   1.339
19380SOL    HW259915   2.931   9.915   1.394
19381SOL     OW59916   6.316  14.315   2.908
19381SOL    HW159917   6.364  14.341   2.986
19381SOL    HW259918   6.224  14.328   2.931
19382SOL     OW59919  13.866   9.784   2.385
19382SOL    HW159920  13.960   9.787   2.372
19382SOL    HW259921  13.854   9.786   2.480
19383SOL     OW59922   0.996   1.064   3.324
19383SOL    HW159923   1.016   1.045   3.233
19383SOL    HW259924   1.080   1.060   3.369
19384SOL     OW59925   5.769   0.951  13.435
19384SOL    HW159926   5.834   1.010  13.471
19384SOL    HW259927   5.689   0.970  13.484
19385SOL     OW59928   0.549   9.393  13.711
19385SOL    HW159929   0.583   9.315  13.667
19385SOL    HW259930   0.462   9.368  13.741
19386SOL     OW59931   3.901   9.515   5.102
19386SOL    HW159932   3.884   9.606   5.128
19386SOL    HW259933   3.967   9.522   5.033
19387SOL     OW59934  14.690  13.409  11.369
19387SOL    HW159935  14.634  13.451  11.303
19387SOL    HW259936  14.716  13.480  11.427
19388SOL     OW59937  11.854   4.430   7.267
19388SOL    HW159938  11.780   4.435   7.207
19388SOL    HW259939  11.926   4.396   7.214
19389SOL     OW59940  12.425  12.894   7.195
19389SOL    HW159941  12.355  12.851   7.244
19389SOL    HW259942  12.410  12.988   7.209
19390SOL     OW59943  11.504   8.118  11.075
19390SOL    HW159944  11.553   8.169  11.010
19390SOL    HW259945  11.462   8.184  11.130
19391SOL     OW59946   8.383   1.888  12.568
19391SOL    HW159947   8.461   1.837  12.589
19391SOL    HW259948   8.323   1.825  12.528
19392SOL     OW59949   8.813   6.952   8.635
19392SOL    HW159950   8.849   6.980   8.719
19392SOL    HW259951   8.818   7.030   8.580
19393SOL     OW59952   3.628   0.870   2.891
19393SOL    HW159953   3.641   0.834   2.979
19393SOL    HW259954   3.534   0.861   2.875
19394SOL     OW59955   1.886  11.462   2.278
19394SOL    HW159956   1.841  11.487   2.359
19394SOL    HW259957   1.853  11.524   2.213
19395SOL     OW59958  12.651   6.222  10.290
19395SOL    HW159959  12.718   6.184  10.233
19395SOL    HW259960  12.675   6.314  10.299
19396SOL     OW59961  10.350   5.243   0.666
19396SOL    HW159962  10.324   5.193   0.742
19396SOL    HW259963  10.420   5.192   0.626
19397SOL     OW59964  11.148  14.643  11.330
19397SOL    HW159965  11.218  14.697  11.295
19397SOL    HW259966  11.075  14.704  11.343
19398SOL     OW59967   1.176  10.930   4.395
19398SOL    HW159968   1.203  10.845   4.359
19398SOL    HW259969   1.136  10.975   4.321
19399SOL     OW59970   6.328  12.531  12.786
19399SOL    HW159971   6.371  12.479  12.853
19399SOL    HW259972   6.358  12.493  12.703
19400SOL     OW59973   4.703   5.287  14.041
19400SOL    HW159974   4.748   5.260  14.121
19400SOL    HW259975   4.610   5.278  14.061
19401SOL     OW59976  10.078   1.537  10.204
19401SOL    HW159977   9.988   1.524  10.177
19401SOL    HW259978  10.097   1.463  10.262
19402SOL     OW59979   0.435   4.805  13.156
19402SOL    HW159980   0.489   4.787  13.080
19402SOL    HW259981   0.348   4.772  13.133
19403SOL     OW59982   8.190   8.605   8.816
19403SOL    HW159983   8.228   8.533   8.766
19403SOL    HW259984   8.264   8.642   8.864
19404SOL     OW59985  12.985  10.698   4.802
19404SOL    HW159986  13.063  10.712   4.856
19404SOL    HW259987  12.931  10.638   4.854
19405SOL     OW59988   9.166  13.081   9.926
19405SOL    HW159989   9.262  13.082   9.937
19405SOL    HW259990   9.139  12.995   9.959
19406SOL     OW59991   9.539   5.580   9.011
19406SOL    HW159992   9.628   5.614   9.009
19406SOL    HW259993   9.516   5.565   8.919
19407SOL     OW59994  10.877  13.574  10.032
19407SOL    HW159995  10.922  13.640  10.084
19407SOL    HW259996  10.803  13.546  10.087
19408SOL     OW59997  14.177   1.443   1.373
19408SOL    HW159998  14.094   1.397   1.388
19408SOL    HW259999  14.238   1.374   1.344
19409SOL     OW60000   3.579  10.354  14.295
19409SOL    HW160001   3.498  10.306  14.309
19409SOL    HW260002   3.612  10.323  14.210
19410SOL     OW60003   8.040   0.132  13.724
19410SOL    HW160004   8.085   0.142  13.641
19410SOL    HW260005   8.105   0.092  13.782
19411SOL     OW60006   9.761   7.890   7.174
19411SOL    HW160007   9.711   7.808   7.179
19411SOL    HW260008   9.702   7.951   7.130
19412SOL     OW60009   8.166  10.592  14.432
19412SOL    HW160010   8.148  10.509  14.388
19412SOL    HW260011   8.136  10.659  14.370
19413SOL     OW60012   4.772   6.201   3.731
19413SOL    HW160013   4.834   6.136   3.763
19413SOL    HW260014   4.770   6.268   3.799
19414SOL     OW60015   9.157   8.498  11.179
19414SOL    HW160016   9.179   8.496  11.086
19414SOL    HW260017   9.091   8.430  11.190
19415SOL     OW60018   7.292   5.435  12.476
19415SOL    HW160019   7.328   5.500  12.536
19415SOL    HW260020   7.301   5.474  12.390
19416SOL     OW60021   0.219   7.278   0.681
19416SOL    HW160022   0.186   7.216   0.746
19416SOL    HW260023   0.297   7.316   0.721
19417SOL     OW60024   2.546  12.228   9.843
19417SOL    HW160025   2.512  12.209   9.755
19417SOL    HW260026   2.470  12.264   9.890
19418SOL     OW60027   7.669   0.144  10.032
19418SOL    HW160028   7.727   0.175  10.101
19418SOL    HW260029   7.727   0.118   9.961
19419SOL     OW60030   0.580  13.178  12.012
19419SOL    HW160031   0.494  13.153  11.979
19419SOL    HW260032   0.563  13.211  12.100
19420SOL     OW60033   7.490   9.571   3.328
19420SOL    HW160034   7.532   9.587   3.243
19420SOL    HW260035   7.546   9.507   3.371
19421SOL     OW60036   4.103  13.895   6.357
19421SOL    HW160037   4.102  13.800   6.369
19421SOL    HW260038   4.036  13.911   6.290
19422SOL     OW60039   1.254   6.403   1.994
19422SOL    HW160040   1.250   6.465   1.921
19422SOL    HW260041   1.238   6.457   2.072
19423SOL     OW60042  10.168  12.255   7.576
19423SOL    HW160043  10.101  12.223   7.637
19423SOL    HW260044  10.251  12.238   7.620
19424SOL     OW60045  13.303   0.672   4.844
19424SOL    HW160046  13.269   0.755   4.809
19424SOL    HW260047  13.359   0.639   4.774
19425SOL     OW60048   2.201   8.651  12.330
19425SOL    HW160049   2.198   8.588  12.402
19425SOL    HW260050   2.256   8.722  12.363
19426SOL     OW60051   8.787  11.591  11.421
19426SOL    HW160052   8.715  11.540  11.459
19426SOL    HW260053   8.848  11.526  11.388
19427SOL     OW60054   8.368  11.018  10.847
19427SOL    HW160055   8.363  11.003  10.942
19427SOL    HW260056   8.334  10.938  10.809
19428SOL     OW60057   0.030  12.551   9.960
19428SOL    HW160058   0.008  12.641   9.985
19428SOL    HW260059   0.097  12.524  10.023
19429SOL     OW60060   7.175  11.185   4.935
19429SOL    HW160061   7.229  11.157   4.861
19429SOL    HW260062   7.204  11.129   5.008
19430SOL     OW60063   2.043   3.691   7.312
19430SOL    HW160064   2.061   3.740   7.232
19430SOL    HW260065   2.052   3.599   7.287
19431SOL     OW60066  13.880   0.503   8.898
19431SOL    HW160067  13.921   0.416   8.902
19431SOL    HW260068  13.815   0.501   8.968
19432SOL     OW60069  11.720   9.282   2.658
19432SOL    HW160070  11.628   9.258   2.648
19432SOL    HW260071  11.733   9.288   2.752
19433SOL     OW60072   2.365   6.303  12.149
19433SOL    HW160073   2.456   6.316  12.177
19433SOL    HW260074   2.317   6.375  12.188
19434SOL     OW60075   8.039   3.020   2.362
19434SOL    HW160076   7.972   3.088   2.350
19434SOL    HW260077   8.018   2.981   2.447
19435SOL     OW60078  11.665   1.716  14.523
19435SOL    HW160079  11.715   1.657  14.466
19435SOL    HW260080  11.719   1.724  14.601
19436SOL     OW60081   0.772   0.006  13.680
19436SOL    HW160082   0.683   0.016  13.647
19436SOL    HW260083   0.767   0.031  13.772
19437SOL     OW60084   7.794   6.356   7.548
19437SOL    HW160085   7.724   6.307   7.591
19437SOL    HW260086   7.787   6.444   7.586
19438SOL     OW60087   7.892   5.411   2.827
19438SOL    HW160088   7.858   5.351   2.893
19438SOL    HW260089   7.961   5.459   2.872
19439SOL     OW60090   9.470   2.588  12.568
19439SOL    HW160091   9.442   2.644  12.496
19439SOL    HW260092   9.474   2.500  12.531
19440SOL     OW60093  12.039   8.942  11.603
19440SOL    HW160094  11.998   9.025  11.580
19440SOL    HW260095  12.046   8.944  11.699
19441SOL     OW60096   7.887  14.788   5.422
19441SOL    HW160097   7.806  14.773   5.372
19441SOL    HW260098   7.946  14.719   5.395
19442SOL     OW60099  11.683  10.881  12.668
19442SOL    HW160100  11.759  10.834  12.705
19442SOL    HW260101  11.609  10.824  12.687
19443SOL     OW60102   7.137   0.911   6.978
19443SOL    HW160103   7.162   0.879   7.065
19443SOL    HW260104   7.135   1.006   6.987
19444SOL     OW60105  11.097   3.970  14.169
19444SOL    HW160106  11.033   3.953  14.100
19444SOL    HW260107  11.164   3.902  14.157
19445SOL     OW60108  11.582   3.150   6.533
19445SOL    HW160109  11.602   3.065   6.495
19445SOL    HW260110  11.601   3.213   6.463
19446SOL     OW60111   4.072  10.657  13.090
19446SOL    HW160112   4.155  10.694  13.057
19446SOL    HW260113   4.099  10.586  13.148
19447SOL     OW60114   2.050  13.087  13.616
19447SOL    HW160115   1.963  13.101  13.655
19447SOL    HW260116   2.052  12.993  13.596
19448SOL     OW60117  10.712   6.505  10.787
19448SOL    HW160118  10.632   6.461  10.818
19448SOL    HW260119  10.687   6.546  10.704
19449SOL     OW60120  13.801   0.351  13.719
19449SOL    HW160121  13.850   0.403  13.655
19449SOL    HW260122  13.778   0.413  13.788
19450SOL     OW60123  10.389  12.241   2.451
19450SOL    HW160124  10.419  12.170   2.394
19450SOL    HW260125  10.323  12.287   2.400
19451SOL     OW60126   4.520   6.114   0.086
19451SOL    HW160127   4.583   6.162   0.139
19451SOL    HW260128   4.489   6.178   0.022
19452SOL     OW60129   7.698  14.357   8.627
19452SOL    HW160130   7.750  14.296   8.679
19452SOL    HW260131   7.756  14.383   8.555
19453SOL     OW60132  10.404   3.048   3.198
19453SOL    HW160133  10.492   3.080   3.175
19453SOL    HW260134  10.420   2.982   3.266
19454SOL     OW60135  11.664   8.475   8.888
19454SOL    HW160136  11.629   8.511   8.969
19454SOL    HW260137  11.716   8.399   8.915
19455SOL     OW60138  11.009   6.259  14.073
19455SOL    HW160139  11.024   6.165  14.073
19455SOL    HW260140  10.964   6.277  14.156
19456SOL     OW60141  10.319  11.617   9.882
19456SOL    HW160142  10.347  11.527   9.896
19456SOL    HW260143  10.283  11.645   9.966
19457SOL     OW60144   3.914  10.462   0.833
19457SOL    HW160145   3.856  10.409   0.778
19457SOL    HW260146   3.917  10.415   0.917
19458SOL     OW60147   6.531   2.495  10.064
19458SOL    HW160148   6.562   2.506  10.154
19458SOL    HW260149   6.469   2.423  10.067
19459SOL     OW60150  11.912  13.638   9.660
19459SOL    HW160151  11.873  13.580   9.595
19459SOL    HW260152  11.971  13.582   9.709
19460SOL     OW60153   0.169   7.968  11.861
19460SOL    HW160154   0.099   7.950  11.798
19460SOL    HW260155   0.243   7.915  11.830
19461SOL     OW60156  14.775   8.034   6.703
19461SOL    HW160157  14.853   8.088   6.690
19461SOL    HW260158  14.703   8.088   6.669
19462SOL     OW60159  14.816   5.608   7.429
19462SOL    HW160160  14.807   5.702   7.442
19462SOL    HW260161  14.734   5.571   7.463
19463SOL     OW60162   7.859  13.535   0.116
19463SOL    HW160163   7.781  13.480   0.122
19463SOL    HW260164   7.863  13.563   0.025
19464SOL     OW60165   7.309   3.756  10.480
19464SOL    HW160166   7.369   3.817  10.438
19464SOL    HW260167   7.275   3.804  10.556
19465SOL     OW60168  13.632  12.954   1.666
19465SOL    HW160169  13.577  12.880   1.639
19465SOL    HW260170  13.665  12.930   1.752
19466SOL     OW60171  11.098   7.129   8.432
19466SOL    HW160172  11.177   7.160   8.387
19466SOL    HW260173  11.029   7.135   8.367
19467SOL     OW60174   0.319  10.767   9.689
19467SOL    HW160175   0.361  10.853   9.684
19467SOL    HW260176   0.307  10.752   9.783
19468SOL     OW60177  14.065  14.198  13.811
19468SOL    HW160178  14.028  14.236  13.891
19468SOL    HW260179  14.013  14.120  13.796
19469SOL     OW60180  13.145  12.162   3.503
19469SOL    HW160181  13.065  12.177   3.453
19469SOL    HW260182  13.164  12.069   3.490
19470SOL     OW60183  11.440  11.994  14.602
19470SOL    HW160184  11.457  11.965  14.692
19470SOL    HW260185  11.359  11.949  14.577
19471SOL     OW60186  13.233   9.018   3.633
19471SOL    HW160187  13.158   9.070   3.606
19471SOL    HW260188  13.277   9.071   3.700
19472SOL     OW60189  12.385  13.569   6.927
19472SOL    HW160190  12.437  13.642   6.961
19472SOL    HW260191  12.305  13.570   6.978
19473SOL     OW60192  14.861   5.920   5.936
19473SOL    HW160193   0.069   5.888   5.909
19473SOL    HW260194   0.001   5.973   6.014
19474SOL     OW60195   3.964  14.279  12.894
19474SOL    HW160196   4.012  14.358  12.916
19474SOL    HW260197   3.878  14.291  12.936
19475SOL     OW60198  13.368  11.495   5.044
19475SOL    HW160199  13.277  11.525   5.033
19475SOL    HW260200  13.374  11.417   4.990
19476SOL     OW60201   4.086   2.993   8.544
19476SOL    HW160202   4.176   3.014   8.520
19476SOL    HW260203   4.064   3.058   8.611
19477SOL     OW60204   2.305   8.068   5.581
19477SOL    HW160205   2.250   8.013   5.637
19477SOL    HW260206   2.365   8.112   5.641
19478SOL     OW60207   7.297   4.777   6.025
19478SOL    HW160208   7.214   4.814   5.994
19478SOL    HW260209   7.364   4.824   5.976
19479SOL     OW60210   5.196   5.446   2.075
19479SOL    HW160211   5.126   5.381   2.067
19479SOL    HW260212   5.151   5.530   2.068
19480SOL     OW60213  12.333   2.032   6.733
19480SOL    HW160214  12.367   2.023   6.644
19480SOL    HW260215  12.283   2.114   6.732
19481SOL     OW60216   7.264  12.578   6.808
19481SOL    HW160217   7.184  12.580   6.861
19481SOL    HW260218   7.316  12.507   6.845
19482SOL     OW60219   2.572  10.449  10.271
19482SOL    HW160220   2.565  10.488  10.183
19482SOL    HW260221   2.516  10.504  10.325
19483SOL     OW60222   9.599   9.943   7.146
19483SOL    HW160223   9.538   9.876   7.114
19483SOL    HW260224   9.549   9.990   7.213
19484SOL     OW60225  10.894   9.713  13.091
19484SOL    HW160226  10.982   9.740  13.119
19484SOL    HW260227  10.906   9.625  13.055
19485SOL     OW60228   4.655  14.706   8.955
19485SOL    HW160229   4.607  14.626   8.979
19485SOL    HW260230   4.641  14.765   9.029
19486SOL     OW60231  13.333  13.263   1.301
19486SOL    HW160232  13.258  13.292   1.250
19486SOL    HW260233  13.375  13.344   1.330
19487SOL     OW60234   0.807  10.862  12.954
19487SOL    HW160235   0.768  10.811  13.025
19487SOL    HW260236   0.899  10.836  12.954
19488SOL     OW60237  10.489   0.733  10.884
19488SOL    HW160238  10.560   0.787  10.918
19488SOL    HW260239  10.450   0.694  10.963
19489SOL     OW60240   8.209   7.893  13.856
19489SOL    HW160241   8.128   7.940  13.875
19489SOL    HW260242   8.190   7.843  13.777
19490SOL     OW60243   9.193  14.700   6.206
19490SOL    HW160244   9.111  14.750   6.202
19490SOL    HW260245   9.177  14.624   6.150
19491SOL     OW60246  11.120  14.120  11.061
19491SOL    HW160247  11.208  14.132  11.026
19491SOL    HW260248  11.068  14.187  11.017
19492SOL     OW60249   8.551   2.532  12.545
19492SOL    HW160250   8.456   2.533  12.549
19492SOL    HW260251   8.572   2.592  12.473
19493SOL     OW60252  14.411   8.825   3.889
19493SOL    HW160253  14.492   8.779   3.867
19493SOL    HW260254  14.421   8.847   3.982
19494SOL     OW60255  14.830   3.960  14.245
19494SOL    HW160256  14.797   4.046  14.219
19494SOL    HW260257  14.751   3.910  14.268
19495SOL     OW60258   8.371  14.148  10.584
19495SOL    HW160259   8.281  14.146  10.550
19495SOL    HW260260   8.406  14.061  10.563
19496SOL     OW60261   1.364  10.092   9.744
19496SOL    HW160262   1.449  10.074   9.785
19496SOL    HW260263   1.342  10.011   9.698
19497SOL     OW60264  10.859   0.282   3.869
19497SOL    HW160265  10.907   0.365   3.872
19497SOL    HW260266  10.890   0.234   3.946
19498SOL     OW60267   0.265  14.210  14.097
19498SOL    HW160268   0.299  14.120  14.098
19498SOL    HW260269   0.170  14.199  14.108
19499SOL     OW60270   9.050   2.858  11.131
19499SOL    HW160271   9.126   2.891  11.083
19499SOL    HW260272   9.038   2.769  11.099
19500SOL     OW60273   8.454   8.255   9.302
19500SOL    HW160274   8.438   8.179   9.359
19500SOL    HW260275   8.420   8.228   9.217
19501SOL     OW60276   2.528  11.127  10.511
19501SOL    HW160277   2.598  11.187  10.485
19501SOL    HW260278   2.565  11.040  10.495
19502SOL     OW60279   7.566   8.422  13.875
19502SOL    HW160280   7.514   8.486  13.828
19502SOL    HW260281   7.508   8.389  13.944
19503SOL     OW60282   9.419   6.056  11.174
19503SOL    HW160283   9.332   6.083  11.203
19503SOL    HW260284   9.451   6.128  11.120
19504SOL     OW60285   4.773  10.289   7.072
19504SOL    HW160286   4.735  10.328   6.993
19504SOL    HW260287   4.856  10.251   7.041
19505SOL     OW60288   5.263  10.027   9.873
19505SOL    HW160289   5.353  10.001   9.854
19505SOL    HW260290   5.266  10.062   9.962
19506SOL     OW60291  14.736   3.188   9.101
19506SOL    HW160292  14.665   3.129   9.126
19506SOL    HW260293  14.814   3.149   9.140
19507SOL     OW60294   5.761  14.844   7.186
19507SOL    HW160295   5.809  14.795   7.119
19507SOL    HW260296   5.705   0.026   7.137
19508SOL     OW60297   3.032  13.858  10.811
19508SOL    HW160298   3.089  13.900  10.876
19508SOL    HW260299   3.008  13.929  10.751
19509SOL     OW60300  14.214   7.580   3.604
19509SOL    HW160301  14.136   7.550   3.556
19509SOL    HW260302  14.186   7.580   3.696
19510SOL     OW60303  13.861  10.875  10.901
19510SOL    HW160304  13.921  10.841  10.834
19510SOL    HW260305  13.898  10.960  10.925
19511SOL     OW60306   3.221  10.541   0.033
19511SOL    HW160307   3.298  10.538  14.853
19511SOL    HW260308   3.171  10.462   0.010
19512SOL     OW60309  11.109   5.917   9.409
19512SOL    HW160310  11.094   5.908   9.315
19512SOL    HW260311  11.026   5.890   9.448
19513SOL     OW60312   3.503  13.377   2.727
19513SOL    HW160313   3.581  13.360   2.676
19513SOL    HW260314   3.534  13.381   2.818
19514SOL     OW60315   8.453  11.254   8.135
19514SOL    HW160316   8.510  11.315   8.182
19514SOL    HW260317   8.446  11.290   8.047
19515SOL     OW60318   6.408   5.712   3.651
19515SOL    HW160319   6.347   5.641   3.672
19515SOL    HW260320   6.375   5.787   3.702
19516SOL     OW60321   8.300  12.184   0.748
19516SOL    HW160322   8.206  12.189   0.731
19516SOL    HW260323   8.318  12.091   0.758
19517SOL     OW60324   2.828   9.205  12.118
19517SOL    HW160325   2.920   9.193  12.097
19517SOL    HW260326   2.820   9.174  12.209
19518SOL     OW60327   1.361  12.528  13.077
19518SOL    HW160328   1.327  12.535  13.166
19518SOL    HW260329   1.286  12.549  13.021
19519SOL     OW60330   1.833   7.086   6.604
19519SOL    HW160331   1.825   7.109   6.697
19519SOL    HW260332   1.765   7.137   6.561
19520SOL     OW60333  14.857  11.772  12.665
19520SOL    HW160334  14.836  11.772  12.572
19520SOL    HW260335  14.875  11.680  12.686
19521SOL     OW60336   9.882   2.894   7.495
19521SOL    HW160337   9.825   2.890   7.418
19521SOL    HW260338   9.964   2.931   7.463
19522SOL     OW60339   4.910  13.536  10.836
19522SOL    HW160340   4.992  13.538  10.884
19522SOL    HW260341   4.929  13.581  10.754
19523SOL     OW60342  11.357   4.609   7.721
19523SOL    HW160343  11.277   4.660   7.706
19523SOL    HW260344  11.325   4.522   7.747
19524SOL     OW60345   3.533  14.397   4.300
19524SOL    HW160346   3.522  14.407   4.395
19524SOL    HW260347   3.474  14.325   4.277
19525SOL     OW60348   5.474  13.588   3.867
19525SOL    HW160349   5.394  13.573   3.817
19525SOL    HW260350   5.467  13.527   3.941
19526SOL     OW60351   1.661  10.550   0.337
19526SOL    HW160352   1.718  10.533   0.411
19526SOL    HW260353   1.718  10.590   0.271
19527SOL     OW60354  13.655   1.952  10.892
19527SOL    HW160355  13.736   1.946  10.841
19527SOL    HW260356  13.674   1.907  10.974
19528SOL     OW60357  12.575   8.545   1.755
19528SOL    HW160358  12.546   8.484   1.687
19528SOL    HW260359  12.647   8.594   1.715
19529SOL     OW60360  10.506   1.800   9.361
19529SOL    HW160361  10.545   1.875   9.316
19529SOL    HW260362  10.427   1.835   9.401
19530SOL     OW60363   9.992  13.256   0.661
19530SOL    HW160364   9.943  13.215   0.732
19530SOL    HW260365  10.084  13.241   0.683
19531SOL     OW60366  13.443   0.649   2.360
19531SOL    HW160367  13.454   0.656   2.265
19531SOL    HW260368  13.353   0.617   2.372
19532SOL     OW60369  14.310  11.867   9.637
19532SOL    HW160370  14.377  11.890   9.573
19532SOL    HW260371  14.300  11.946   9.691
19533SOL     OW60372   8.542  12.234   2.347
19533SOL    HW160373   8.479  12.225   2.275
19533SOL    HW260374   8.579  12.147   2.358
19534SOL     OW60375   5.393  13.679   4.764
19534SOL    HW160376   5.346  13.709   4.842
19534SOL    HW260377   5.340  13.607   4.730
19535SOL     OW60378   2.560   7.985   6.769
19535SOL    HW160379   2.465   7.970   6.777
19535SOL    HW260380   2.592   7.981   6.860
19536SOL     OW60381   3.682  12.048   7.705
19536SOL    HW160382   3.721  12.022   7.622
19536SOL    HW260383   3.751  12.099   7.748
19537SOL     OW60384   1.789   8.756  10.238
19537SOL    HW160385   1.797   8.661  10.244
19537SOL    HW260386   1.710   8.770  10.186
19538SOL     OW60387   8.195   9.746  11.284
19538SOL    HW160388   8.289   9.755  11.297
19538SOL    HW260389   8.174   9.813  11.219
19539SOL     OW60390  14.606   7.392   9.589
19539SOL    HW160391  14.582   7.303   9.617
19539SOL    HW260392  14.586   7.393   9.495
19540SOL     OW60393   4.039  14.376   0.017
19540SOL    HW160394   4.094  14.301  14.872
19540SOL    HW260395   3.998  14.402  14.813
19541SOL     OW60396  13.661   5.636  12.911
19541SOL    HW160397  13.711   5.679  12.841
19541SOL    HW260398  13.644   5.548  12.877
19542SOL     OW60399   1.926   5.163  11.904
19542SOL    HW160400   2.016   5.135  11.884
19542SOL    HW260401   1.929   5.190  11.996
19543SOL     OW60402   5.437   9.041   7.623
19543SOL    HW160403   5.520   9.018   7.665
19543SOL    HW260404   5.389   9.089   7.690
19544SOL     OW60405  10.188   2.795   4.688
19544SOL    HW160406  10.268   2.800   4.741
19544SOL    HW260407  10.127   2.854   4.732
19545SOL     OW60408   6.420   3.192   5.923
19545SOL    HW160409   6.454   3.225   5.840
19545SOL    HW260410   6.457   3.251   5.989
19546SOL     OW60411   5.497  10.560  14.627
19546SOL    HW160412   5.579  10.587  14.669
19546SOL    HW260413   5.496  10.607  14.544
19547SOL     OW60414  11.480  14.191  12.209
19547SOL    HW160415  11.492  14.109  12.161
19547SOL    HW260416  11.448  14.165  12.295
19548SOL     OW60417   3.456   6.941   0.972
19548SOL    HW160418   3.435   7.030   1.000
19548SOL    HW260419   3.371   6.903   0.948
19549SOL     OW60420   3.180   2.190   1.888
19549SOL    HW160421   3.169   2.282   1.913
19549SOL    HW260422   3.163   2.141   1.968
19550SOL     OW60423   2.352   2.030   5.255
19550SOL    HW160424   2.370   2.047   5.163
19550SOL    HW260425   2.400   2.099   5.302
19551SOL     OW60426  14.477   2.629   2.863
19551SOL    HW160427  14.541   2.698   2.847
19551SOL    HW260428  14.443   2.607   2.777
19552SOL     OW60429  14.297   4.493  14.359
19552SOL    HW160430  14.312   4.529  14.446
19552SOL    HW260431  14.345   4.410  14.359
19553SOL     OW60432   3.444   3.369   4.622
19553SOL    HW160433   3.451   3.446   4.566
19553SOL    HW260434   3.395   3.399   4.698
19554SOL     OW60435   0.058   6.674   5.454
19554SOL    HW160436   0.129   6.680   5.390
19554SOL    HW260437   0.062   6.585   5.487
19555SOL     OW60438   7.741   3.944   7.548
19555SOL    HW160439   7.805   4.002   7.507
19555SOL    HW260440   7.789   3.903   7.620
19556SOL     OW60441   2.928   6.406   8.616
19556SOL    HW160442   2.964   6.364   8.694
19556SOL    HW260443   2.913   6.497   8.641
19557SOL     OW60444   0.266   2.509   2.766
19557SOL    HW160445   0.302   2.435   2.718
19557SOL    HW260446   0.304   2.502   2.853
19558SOL     OW60447   0.552   1.111  10.261
19558SOL    HW160448   0.528   1.200  10.238
19558SOL    HW260449   0.487   1.056  10.218
19559SOL     OW60450   6.698   2.732  13.184
19559SOL    HW160451   6.652   2.736  13.268
19559SOL    HW260452   6.761   2.805  13.187
19560SOL     OW60453  10.859   5.315   3.443
19560SOL    HW160454  10.884   5.247   3.380
19560SOL    HW260455  10.941   5.357   3.467
19561SOL     OW60456   3.584  12.062   5.096
19561SOL    HW160457   3.619  12.097   5.014
19561SOL    HW260458   3.523  12.129   5.127
19562SOL     OW60459   4.157   5.413   1.998
19562SOL    HW160460   4.144   5.324   1.964
19562SOL    HW260461   4.187   5.463   1.922
19563SOL     OW60462  10.758  12.512   7.039
19563SOL    HW160463  10.770  12.561   6.957
19563SOL    HW260464  10.752  12.580   7.107
19564SOL     OW60465   0.637   0.086   4.224
19564SOL    HW160466   0.625   0.179   4.203
19564SOL    HW260467   0.648   0.084   4.319
19565SOL     OW60468  10.123  14.125   0.987
19565SOL    HW160469  10.117  14.036   1.019
19565SOL    HW260470  10.033  14.150   0.967
19566SOL     OW60471   9.877   1.877   3.188
19566SOL    HW160472   9.966   1.910   3.202
19566SOL    HW260473   9.863   1.814   3.259
19567SOL     OW60474  10.275   6.280  13.197
19567SOL    HW160475  10.219   6.355  13.221
19567SOL    HW260476  10.221   6.229  13.136
19568SOL     OW60477  13.755   6.910   5.142
19568SOL    HW160478  13.762   6.963   5.063
19568SOL    HW260479  13.758   6.819   5.110
19569SOL     OW60480   8.849   0.736   1.641
19569SOL    HW160481   8.939   0.730   1.611
19569SOL    HW260482   8.837   0.828   1.664
19570SOL     OW60483  14.870   7.932   4.258
19570SOL    HW160484   0.051   7.858   4.274
19570SOL    HW260485   0.050   8.002   4.229
19571SOL     OW60486   2.790   5.649   2.872
19571SOL    HW160487   2.800   5.561   2.909
19571SOL    HW260488   2.764   5.704   2.946
19572SOL     OW60489   7.215  13.092   5.921
19572SOL    HW160490   7.273  13.031   5.875
19572SOL    HW260491   7.248  13.179   5.895
19573SOL     OW60492   9.023   5.393   9.118
19573SOL    HW160493   8.927   5.389   9.117
19573SOL    HW260494   9.043   5.476   9.162
19574SOL     OW60495   3.429   7.992   8.231
19574SOL    HW160496   3.389   8.043   8.160
19574SOL    HW260497   3.513   8.035   8.247
19575SOL     OW60498   3.133   0.418   4.797
19575SOL    HW160499   3.163   0.509   4.791
19575SOL    HW260500   3.196   0.368   4.745
19576SOL     OW60501   5.839   0.691   8.436
19576SOL    HW160502   5.759   0.738   8.410
19576SOL    HW260503   5.842   0.701   8.531
19577SOL     OW60504   4.597  12.949  13.494
19577SOL    HW160505   4.599  12.902  13.577
19577SOL    HW260506   4.531  12.902  13.442
19578SOL     OW60507  11.275   3.531   5.659
19578SOL    HW160508  11.227   3.499   5.583
19578SOL    HW260509  11.283   3.456   5.717
19579SOL     OW60510   2.715  13.850  13.239
19579SOL    HW160511   2.735  13.760  13.214
19579SOL    HW260512   2.621  13.849  13.256
19580SOL     OW60513  12.794  14.808   6.476
19580SOL    HW160514  12.863  14.842   6.418
19580SOL    HW260515  12.780  14.878   6.540
19581SOL     OW60516  11.606  10.055   9.890
19581SOL    HW160517  11.529  10.025   9.938
19581SOL    HW260518  11.607  10.001   9.811
19582SOL     OW60519   5.469   7.735   7.634
19582SOL    HW160520   5.559   7.766   7.620
19582SOL    HW260521   5.474   7.683   7.714
19583SOL     OW60522   1.227   6.867   7.269
19583SOL    HW160523   1.315   6.894   7.294
19583SOL    HW260524   1.175   6.875   7.350
19584SOL     OW60525   9.874   4.017  13.900
19584SOL    HW160526   9.959   3.993  13.863
19584SOL    HW260527   9.884   4.108  13.927
19585SOL     OW60528   3.210  14.146  14.375
19585SOL    HW160529   3.301  14.171  14.364
19585SOL    HW260530   3.208  14.052  14.355
19586SOL     OW60531   0.831   0.234   7.253
19586SOL    HW160532   0.889   0.291   7.303
19586SOL    HW260533   0.857   0.145   7.276
19587SOL     OW60534   1.496  12.910   2.230
19587SOL    HW160535   1.493  12.885   2.138
19587SOL    HW260536   1.405  12.909   2.258
19588SOL     OW60537  12.249  13.730   0.016
19588SOL    HW160538  12.211  13.677   0.086
19588SOL    HW260539  12.260  13.817   0.055
19589SOL     OW60540   2.025  12.423  10.035
19589SOL    HW160541   2.011  12.333  10.007
19589SOL    HW260542   1.957  12.439  10.101
19590SOL     OW60543   5.752   8.989   8.392
19590SOL    HW160544   5.784   8.935   8.320
19590SOL    HW260545   5.817   9.059   8.401
19591SOL     OW60546  13.375   0.666  11.608
19591SOL    HW160547  13.445   0.731  11.619
19591SOL    HW260548  13.294   0.717  11.619
19592SOL     OW60549  14.141  11.551   6.905
19592SOL    HW160550  14.198  11.564   6.981
19592SOL    HW260551  14.195  11.574   6.830
19593SOL     OW60552   5.110  12.970   5.553
19593SOL    HW160553   5.108  12.916   5.631
19593SOL    HW260554   5.044  12.932   5.495
19594SOL     OW60555   0.176   3.834   9.579
19594SOL    HW160556   0.212   3.871   9.660
19594SOL    HW260557   0.177   3.739   9.594
19595SOL     OW60558   1.455   7.470  13.779
19595SOL    HW160559   1.454   7.564  13.760
19595SOL    HW260560   1.410   7.430  13.704
19596SOL     OW60561   6.448   6.467  14.751
19596SOL    HW160562   6.532   6.488  14.793
19596SOL    HW260563   6.469   6.457  14.659
19597SOL     OW60564  11.488   5.904   6.101
19597SOL    HW160565  11.565   5.848   6.096
19597SOL    HW260566  11.482   5.928   6.193
19598SOL     OW60567  10.159   6.530   1.651
19598SOL    HW160568  10.191   6.507   1.564
19598SOL    HW260569  10.152   6.446   1.697
19599SOL     OW60570  13.598   2.341  12.765
19599SOL    HW160571  13.593   2.249  12.741
19599SOL    HW260572  13.566   2.388  12.688
19600SOL     OW60573  13.861   9.522   7.347
19600SOL    HW160574  13.804   9.554   7.416
19600SOL    HW260575  13.920   9.595   7.327
19601SOL     OW60576   4.933   6.745  10.779
19601SOL    HW160577   4.998   6.712  10.717
19601SOL    HW260578   4.955   6.837  10.791
19602SOL     OW60579  10.509   1.331   0.882
19602SOL    HW160580  10.444   1.385   0.836
19602SOL    HW260581  10.567   1.395   0.923
19603SOL     OW60582  10.139  14.732   4.184
19603SOL    HW160583  10.182  14.814   4.157
19603SOL    HW260584  10.108  14.749   4.273
19604SOL     OW60585   8.840   0.389   3.940
19604SOL    HW160586   8.912   0.452   3.938
19604SOL    HW260587   8.791   0.406   3.859
19605SOL     OW60588  11.734   5.655  14.342
19605SOL    HW160589  11.752   5.711  14.266
19605SOL    HW260590  11.690   5.578  14.306
19606SOL     OW60591  14.368   6.987   5.771
19606SOL    HW160592  14.367   6.901   5.814
19606SOL    HW260593  14.426   7.040   5.825
19607SOL     OW60594   0.828   1.164  14.291
19607SOL    HW160595   0.856   1.206  14.210
19607SOL    HW260596   0.891   1.093  14.304
19608SOL     OW60597   3.443   3.471   1.266
19608SOL    HW160598   3.391   3.391   1.281
19608SOL    HW260599   3.437   3.485   1.171
19609SOL     OW60600  13.983   6.098   2.674
19609SOL    HW160601  14.033   6.017   2.661
19609SOL    HW260602  13.893   6.074   2.651
19610SOL     OW60603   6.854   4.450  12.444
19610SOL    HW160604   6.843   4.423  12.353
19610SOL    HW260605   6.922   4.517  12.441
19611SOL     OW60606   4.040   2.474  12.094
19611SOL    HW160607   3.971   2.439  12.150
19611SOL    HW260608   4.084   2.539  12.149
19612SOL     OW60609  12.212   6.615   2.008
19612SOL    HW160610  12.293   6.623   2.058
19612SOL    HW260611  12.231   6.656   1.924
19613SOL     OW60612   9.589   1.950   5.068
19613SOL    HW160613   9.499   1.966   5.042
19613SOL    HW260614   9.640   2.013   5.018
19614SOL     OW60615   6.126   1.741   1.562
19614SOL    HW160616   6.145   1.835   1.568
19614SOL    HW260617   6.036   1.733   1.594
19615SOL     OW60618  14.419   7.151  14.058
19615SOL    HW160619  14.385   7.235  14.028
19615SOL    HW260620  14.513   7.166  14.069
19616SOL     OW60621   0.564   2.478  14.643
19616SOL    HW160622   0.608   2.482  14.727
19616SOL    HW260623   0.478   2.439  14.662
19617SOL     OW60624  11.437  13.463   5.580
19617SOL    HW160625  11.365  13.524   5.596
19617SOL    HW260626  11.465  13.482   5.491
19618SOL     OW60627   1.613   3.765   6.832
19618SOL    HW160628   1.532   3.814   6.817
19618SOL    HW260629   1.676   3.803   6.771
19619SOL     OW60630  13.280   5.521  12.073
19619SOL    HW160631  13.325   5.456  12.126
19619SOL    HW260632  13.350   5.568  12.028
19620SOL     OW60633   4.056   4.034   4.172
19620SOL    HW160634   4.077   4.049   4.080
19620SOL    HW260635   4.065   4.119   4.213
19621SOL     OW60636   6.530   9.527  13.728
19621SOL    HW160637   6.583   9.524  13.648
19621SOL    HW260638   6.591   9.557  13.796
19622SOL     OW60639  14.284  14.186   4.134
19622SOL    HW160640  14.222  14.215   4.067
19622SOL    HW260641  14.264  14.239   4.211
19623SOL     OW60642  14.049   8.232   8.830
19623SOL    HW160643  14.082   8.173   8.762
19623SOL    HW260644  13.998   8.297   8.782
19624SOL     OW60645   5.846  13.976   6.162
19624SOL    HW160646   5.763  13.964   6.210
19624SOL    HW260647   5.905  13.911   6.200
19625SOL     OW60648   8.732   6.893   3.756
19625SOL    HW160649   8.775   6.973   3.725
19625SOL    HW260650   8.802   6.844   3.798
19626SOL     OW60651  14.296  14.822  13.246
19626SOL    HW160652  14.275  14.739  13.203
19626SOL    HW260653  14.262  14.811  13.336
19627SOL     OW60654  13.795   1.164   5.489
19627SOL    HW160655  13.736   1.240   5.485
19627SOL    HW260656  13.738   1.089   5.474
19628SOL     OW60657   5.072  14.578   8.931
19628SOL    HW160658   5.123  14.537   8.862
19628SOL    HW260659   4.989  14.531   8.931
19629SOL     OW60660  11.500  14.222   5.646
19629SOL    HW160661  11.568  14.172   5.601
19629SOL    HW260662  11.437  14.156   5.673
19630SOL     OW60663  14.826  13.058   9.754
19630SOL    HW160664  14.803  12.969   9.728
19630SOL    HW260665   0.043  13.062   9.745
19631SOL     OW60666  10.788   9.045   3.729
19631SOL    HW160667  10.799   8.952   3.709
19631SOL    HW260668  10.753   9.083   3.648
19632SOL     OW60669   4.888  14.630   0.940
19632SOL    HW160670   4.969  14.676   0.961
19632SOL    HW260671   4.900  14.542   0.976
19633SOL     OW60672  14.304   5.385   5.017
19633SOL    HW160673  14.333   5.457   5.072
19633SOL    HW260674  14.208   5.389   5.020
19634SOL     OW60675   9.940  12.859  14.784
19634SOL    HW160676   9.972  12.926  14.724
19634SOL    HW260677  10.019  12.819  14.820
19635SOL     OW60678   1.770  12.304   0.505
19635SOL    HW160679   1.745  12.245   0.575
19635SOL    HW260680   1.701  12.371   0.503
19636SOL     OW60681  13.343   1.481   1.829
19636SOL    HW160682  13.298   1.442   1.754
19636SOL    HW260683  13.273   1.502   1.890
19637SOL     OW60684   4.390   7.335   5.284
19637SOL    HW160685   4.425   7.366   5.367
19637SOL    HW260686   4.299   7.365   5.283
19638SOL     OW60687   7.938   4.430  10.213
19638SOL    HW160688   7.889   4.512  10.203
19638SOL    HW260689   7.996   4.446  10.288
19639SOL     OW60690   7.307   8.022  14.492
19639SOL    HW160691   7.285   7.955  14.557
19639SOL    HW260692   7.229   8.077  14.486
19640SOL     OW60693   9.898   9.481   7.974
19640SOL    HW160694   9.965   9.416   7.951
19640SOL    HW260695   9.834   9.433   8.026
19641SOL     OW60696   6.910  14.010  13.297
19641SOL    HW160697   6.975  14.019  13.227
19641SOL    HW260698   6.914  13.918  13.322
19642SOL     OW60699   8.120   7.182  13.962
19642SOL    HW160700   8.141   7.207  14.052
19642SOL    HW260701   8.193   7.128  13.934
19643SOL     OW60702  13.618   5.567   9.995
19643SOL    HW160703  13.668   5.645   9.971
19643SOL    HW260704  13.641   5.551  10.087
19644SOL     OW60705  12.637   0.301   0.939
19644SOL    HW160706  12.667   0.228   0.993
19644SOL    HW260707  12.547   0.317   0.968
19645SOL     OW60708   0.257   6.322  11.473
19645SOL    HW160709   0.305   6.289  11.549
19645SOL    HW260710   0.222   6.406  11.501
19646SOL     OW60711   2.776   4.306   5.923
19646SOL    HW160712   2.755   4.305   6.016
19646SOL    HW260713   2.854   4.363   5.917
19647SOL     OW60714   7.145   7.619   3.237
19647SOL    HW160715   7.131   7.710   3.264
19647SOL    HW260716   7.189   7.626   3.153
19648SOL     OW60717  11.772  14.480  14.749
19648SOL    HW160718  11.693  14.436  14.780
19648SOL    HW260719  11.805  14.424  14.679
19649SOL     OW60720   2.661   4.090  14.303
19649SOL    HW160721   2.662   4.176  14.345
19649SOL    HW260722   2.640   4.108  14.212
19650SOL     OW60723   2.361   7.552  13.742
19650SOL    HW160724   2.376   7.625  13.681
19650SOL    HW260725   2.274   7.568  13.777
19651SOL     OW60726  10.705   1.045   1.554
19651SOL    HW160727  10.630   1.046   1.495
19651SOL    HW260728  10.766   1.109   1.516
19652SOL     OW60729   9.690  13.347   5.056
19652SOL    HW160730   9.674  13.401   5.133
19652SOL    HW260731   9.748  13.278   5.087
19653SOL     OW60732   9.506   8.980  14.036
19653SOL    HW160733   9.561   8.957  14.111
19653SOL    HW260734   9.489   9.073  14.047
19654SOL     OW60735  13.642   4.726   4.038
19654SOL    HW160736  13.551   4.757   4.033
19654SOL    HW260737  13.652   4.698   4.128
19655SOL     OW60738  12.704   4.373   0.949
19655SOL    HW160739  12.778   4.317   0.974
19655SOL    HW260740  12.734   4.462   0.967
19656SOL     OW60741   0.786  13.091   1.643
19656SOL    HW160742   0.852  13.022   1.634
19656SOL    HW260743   0.709  13.057   1.598
19657SOL     OW60744   5.830  14.547  11.482
19657SOL    HW160745   5.772  14.564  11.408
19657SOL    HW260746   5.783  14.581  11.558
19658SOL     OW60747  14.600   7.728   1.382
19658SOL    HW160748  14.508   7.727   1.409
19658SOL    HW260749  14.603   7.672   1.304
19659SOL     OW60750   7.874  14.660   7.340
19659SOL    HW160751   7.852  14.665   7.247
19659SOL    HW260752   7.877  14.751   7.369
19660SOL     OW60753  13.857   9.329   8.748
19660SOL    HW160754  13.898   9.396   8.802
19660SOL    HW260755  13.768   9.360   8.734
19661SOL     OW60756  14.070   0.509   9.863
19661SOL    HW160757  14.133   0.571   9.903
19661SOL    HW260758  14.041   0.553   9.784
19662SOL     OW60759  13.729  13.761  13.611
19662SOL    HW160760  13.768  13.678  13.638
19662SOL    HW260761  13.800  13.825  13.618
19663SOL     OW60762   7.505  14.045   2.995
19663SOL    HW160763   7.572  14.112   3.010
19663SOL    HW260764   7.442  14.087   2.936
19664SOL     OW60765   9.028   3.160  12.009
19664SOL    HW160766   9.008   3.072  11.976
19664SOL    HW260767   9.123   3.168  11.999
19665SOL     OW60768   8.522  14.874  13.636
19665SOL    HW160769   8.452  14.809  13.625
19665SOL    HW260770   8.539   0.028  13.547
19666SOL     OW60771   6.559   1.052   7.343
19666SOL    HW160772   6.569   0.969   7.390
19666SOL    HW260773   6.499   1.031   7.271
19667SOL     OW60774   4.741  10.058   3.097
19667SOL    HW160775   4.761  10.039   3.006
19667SOL    HW260776   4.655  10.099   3.095
19668SOL     OW60777   1.612  12.483   3.985
19668SOL    HW160778   1.587  12.520   3.901
19668SOL    HW260779   1.636  12.559   4.039
19669SOL     OW60780  10.841   4.822  14.834
19669SOL    HW160781  10.825   4.872   0.036
19669SOL    HW260782  10.934   4.798  14.839
19670SOL     OW60783  10.962  11.464   7.194
19670SOL    HW160784  10.911  11.389   7.165
19670SOL    HW260785  11.019  11.484   7.120
19671SOL     OW60786  14.058  12.929   2.585
19671SOL    HW160787  14.109  12.898   2.660
19671SOL    HW260788  14.027  13.015   2.611
19672SOL     OW60789  10.452   0.214  14.429
19672SOL    HW160790  10.385   0.188  14.365
19672SOL    HW260791  10.505   0.279  14.383
19673SOL     OW60792   8.160  12.501  11.833
19673SOL    HW160793   8.068  12.510  11.859
19673SOL    HW260794   8.196  12.437  11.895
19674SOL     OW60795   0.170   6.569  10.263
19674SOL    HW160796   0.212   6.601  10.343
19674SOL    HW260797   0.076   6.571  10.283
19675SOL     OW60798   0.156  14.358   3.622
19675SOL    HW160799   0.186  14.342   3.532
19675SOL    HW260800   0.216  14.425   3.655
19676SOL     OW60801  12.813   9.466  12.297
19676SOL    HW160802  12.798   9.559  12.281
19676SOL    HW260803  12.779   9.451  12.385
19677SOL     OW60804   9.128  12.291  14.620
19677SOL    HW160805   9.156  12.230  14.688
19677SOL    HW260806   9.140  12.243  14.538
19678SOL     OW60807  13.564   1.478   6.384
19678SOL    HW160808  13.558   1.526   6.302
19678SOL    HW260809  13.650   1.501   6.419
19679SOL     OW60810  11.862   1.553   6.127
19679SOL    HW160811  11.848   1.557   6.032
19679SOL    HW260812  11.871   1.645   6.153
19680SOL     OW60813  11.478   9.453   7.181
19680SOL    HW160814  11.426   9.464   7.100
19680SOL    HW260815  11.499   9.360   7.183
19681SOL     OW60816   9.469  14.539   6.495
19681SOL    HW160817   9.535  14.500   6.437
19681SOL    HW260818   9.512  14.543   6.581
19682SOL     OW60819   7.155   0.597  10.127
19682SOL    HW160820   7.133   0.526  10.187
19682SOL    HW260821   7.157   0.556  10.041
19683SOL     OW60822  13.448   0.872   3.468
19683SOL    HW160823  13.357   0.898   3.482
19683SOL    HW260824  13.446   0.776   3.473
19684SOL     OW60825   2.070   9.231  13.297
19684SOL    HW160826   2.084   9.306  13.355
19684SOL    HW260827   2.128   9.247  13.223
19685SOL     OW60828  12.147   3.627   3.303
19685SOL    HW160829  12.237   3.614   3.270
19685SOL    HW260830  12.147   3.585   3.389
19686SOL     OW60831   1.545   4.125   0.720
19686SOL    HW160832   1.536   4.033   0.695
19686SOL    HW260833   1.597   4.164   0.649
19687SOL     OW60834  10.697   1.707   4.328
19687SOL    HW160835  10.637   1.633   4.329
19687SOL    HW260836  10.645   1.780   4.293
19688SOL     OW60837   4.608  13.924   1.482
19688SOL    HW160838   4.665  13.979   1.428
19688SOL    HW260839   4.641  13.835   1.468
19689SOL     OW60840  12.753  12.326   9.401
19689SOL    HW160841  12.713  12.402   9.444
19689SOL    HW260842  12.847  12.346   9.398
19690SOL     OW60843   1.277  11.541   6.689
19690SOL    HW160844   1.330  11.508   6.762
19690SOL    HW260845   1.334  11.535   6.613
19691SOL     OW60846   0.838  12.359   0.171
19691SOL    HW160847   0.790  12.293   0.121
19691SOL    HW260848   0.771  12.415   0.208
19692SOL     OW60849   9.874   4.577  14.079
19692SOL    HW160850   9.926   4.562  14.000
19692SOL    HW260851   9.937   4.609  14.143
19693SOL     OW60852   5.454   5.697   2.983
19693SOL    HW160853   5.480   5.766   2.921
19693SOL    HW260854   5.412   5.743   3.055
19694SOL     OW60855   0.224   6.038   7.533
19694SOL    HW160856   0.177   6.117   7.562
19694SOL    HW260857   0.256   6.061   7.446
19695SOL     OW60858   4.353  11.308   4.813
19695SOL    HW160859   4.276  11.318   4.870
19695SOL    HW260860   4.385  11.220   4.831
19696SOL     OW60861   6.980  14.127   4.884
19696SOL    HW160862   7.068  14.158   4.864
19696SOL    HW260863   6.932  14.135   4.801
19697SOL     OW60864   2.948   5.975   8.610
19697SOL    HW160865   2.892   6.033   8.662
19697SOL    HW260866   2.920   5.989   8.519
19698SOL     OW60867   4.808  10.286   9.105
19698SOL    HW160868   4.837  10.369   9.142
19698SOL    HW260869   4.783  10.234   9.181
19699SOL     OW60870   6.425  10.148   2.170
19699SOL    HW160871   6.472  10.065   2.166
19699SOL    HW260872   6.334  10.124   2.188
19700SOL     OW60873   2.623   8.026  13.459
19700SOL    HW160874   2.602   7.946  13.506
19700SOL    HW260875   2.667   8.081  13.523
19701SOL     OW60876  11.836   8.779   6.119
19701SOL    HW160877  11.829   8.749   6.029
19701SOL    HW260878  11.829   8.875   6.113
19702SOL     OW60879   0.315  11.487   8.717
19702SOL    HW160880   0.267  11.507   8.637
19702SOL    HW260881   0.345  11.573   8.749
19703SOL     OW60882  14.380   3.153  10.401
19703SOL    HW160883  14.296   3.190  10.373
19703SOL    HW260884  14.366   3.126  10.491
19704SOL     OW60885   9.271   3.972   4.941
19704SOL    HW160886   9.214   3.983   4.865
19704SOL    HW260887   9.215   3.993   5.016
19705SOL     OW60888   2.759   5.264   8.055
19705SOL    HW160889   2.690   5.222   8.005
19705SOL    HW260890   2.713   5.317   8.121
19706SOL     OW60891   9.209   1.409  12.580
19706SOL    HW160892   9.167   1.495  12.580
19706SOL    HW260893   9.213   1.384  12.488
19707SOL     OW60894   5.786   6.396  10.145
19707SOL    HW160895   5.820   6.469  10.093
19707SOL    HW260896   5.822   6.411  10.232
19708SOL     OW60897  12.312  11.982  14.610
19708SOL    HW160898  12.235  11.934  14.580
19708SOL    HW260899  12.290  12.074  14.595
19709SOL     OW60900   5.725   9.178  12.298
19709SOL    HW160901   5.815   9.170  12.267
19709SOL    HW260902   5.733   9.199  12.391
19710SOL     OW60903   2.533   1.647   0.512
19710SOL    HW160904   2.498   1.722   0.464
19710SOL    HW260905   2.575   1.685   0.589
19711SOL     OW60906   8.982   0.611   3.021
19711SOL    HW160907   9.062   0.558   3.018
19711SOL    HW260908   9.012   0.698   3.051
19712SOL     OW60909  14.592  11.722   6.317
19712SOL    HW160910  14.520  11.708   6.256
19712SOL    HW260911  14.645  11.790   6.276
19713SOL     OW60912  10.041   5.487   9.399
19713SOL    HW160913  10.016   5.558   9.340
19713SOL    HW260914   9.963   5.431   9.403
19714SOL     OW60915   4.158   0.166   3.711
19714SOL    HW160916   4.105   0.196   3.637
19714SOL    HW260917   4.159   0.241   3.771
19715SOL     OW60918   7.991   3.402   3.721
19715SOL    HW160919   7.967   3.444   3.803
19715SOL    HW260920   7.908   3.375   3.682
19716SOL     OW60921   3.876  10.822   4.797
19716SOL    HW160922   3.837  10.906   4.770
19716SOL    HW260923   3.805  10.759   4.786
19717SOL     OW60924   3.794   6.579  13.117
19717SOL    HW160925   3.745   6.615  13.044
19717SOL    HW260926   3.728   6.562  13.185
19718SOL     OW60927   4.035   9.460  12.561
19718SOL    HW160928   3.942   9.480  12.568
19718SOL    HW260929   4.077   9.522  12.621
19719SOL     OW60930   0.158   2.905  11.826
19719SOL    HW160931   0.095   2.956  11.876
19719SOL    HW260932   0.167   2.823  11.873
19720SOL     OW60933  13.948   3.652  11.478
19720SOL    HW160934  13.911   3.679  11.562
19720SOL    HW260935  13.912   3.715  11.415
19721SOL     OW60936  12.229   1.643  12.342
19721SOL    HW160937  12.252   1.648  12.435
19721SOL    HW260938  12.133   1.645  12.341
19722SOL     OW60939  10.854   0.730   4.696
19722SOL    HW160940  10.927   0.792   4.699
19722SOL    HW260941  10.839   0.715   4.603
19723SOL     OW60942   5.039  12.779   8.379
19723SOL    HW160943   5.127  12.772   8.417
19723SOL    HW260944   5.050  12.840   8.305
19724SOL     OW60945   4.364  10.637   1.982
19724SOL    HW160946   4.329  10.704   1.923
19724SOL    HW260947   4.335  10.554   1.944
19725SOL     OW60948   4.515   1.206   7.433
19725SOL    HW160949   4.580   1.266   7.470
19725SOL    HW260950   4.510   1.134   7.495
19726SOL     OW60951  12.032  12.266   9.764
19726SOL    HW160952  11.971  12.234   9.697
19726SOL    HW260953  12.031  12.198   9.831
19727SOL     OW60954  11.821   8.540   3.844
19727SOL    HW160955  11.752   8.603   3.825
19727SOL    HW260956  11.902   8.589   3.830
19728SOL     OW60957   5.191   3.235   2.013
19728SOL    HW160958   5.197   3.326   1.983
19728SOL    HW260959   5.268   3.192   1.976
19729SOL     OW60960   0.664  11.900   0.109
19729SOL    HW160961   0.603  11.918   0.181
19729SOL    HW260962   0.657  11.806   0.094
19730SOL     OW60963   2.754   7.354   1.543
19730SOL    HW160964   2.765   7.260   1.534
19730SOL    HW260965   2.835   7.391   1.507
19731SOL     OW60966   2.142   8.109   3.799
19731SOL    HW160967   2.218   8.051   3.810
19731SOL    HW260968   2.090   8.067   3.730
19732SOL     OW60969   0.138   4.893   1.998
19732SOL    HW160970   0.197   4.849   2.059
19732SOL    HW260971   0.186   4.971   1.970
19733SOL     OW60972   5.707   8.952  13.046
19733SOL    HW160973   5.701   9.039  13.006
19733SOL    HW260974   5.653   8.897  12.990
19734SOL     OW60975   3.577   4.257  13.084
19734SOL    HW160976   3.587   4.171  13.043
19734SOL    HW260977   3.519   4.242  13.158
19735SOL     OW60978   6.572   6.589   6.588
19735SOL    HW160979   6.621   6.507   6.583
19735SOL    HW260980   6.613   6.646   6.524
19736SOL     OW60981   0.185   3.112  13.840
19736SOL    HW160982   0.098   3.128  13.804
19736SOL    HW260983   0.193   3.174  13.912
19737SOL     OW60984   2.318   1.101   4.816
19737SOL    HW160985   2.253   1.065   4.877
19737SOL    HW260986   2.270   1.109   4.734
19738SOL     OW60987   1.708  11.133   4.980
19738SOL    HW160988   1.741  11.046   4.959
19738SOL    HW260989   1.615  11.129   4.958
19739SOL     OW60990   9.166  12.305  12.810
19739SOL    HW160991   9.254  12.341  12.823
19739SOL    HW260992   9.176  12.244  12.737
19740SOL     OW60993   9.062  11.508   9.196
19740SOL    HW160994   9.004  11.524   9.270
19740SOL    HW260995   9.127  11.577   9.201
19741SOL     OW60996   3.447   6.636   2.735
19741SOL    HW160997   3.419   6.723   2.766
19741SOL    HW260998   3.539   6.631   2.761
19742SOL     OW60999   8.883  12.782  11.878
19742SOL    HW161000   8.850  12.820  11.959
19742SOL    HW261001   8.941  12.711  11.906
19743SOL     OW61002   7.380  14.534   5.640
19743SOL    HW161003   7.443  14.468   5.611
19743SOL    HW261004   7.434  14.607   5.671
19744SOL     OW61005   2.125   3.826   0.353
19744SOL    HW161006   2.112   3.842   0.447
19744SOL    HW261007   2.211   3.784   0.347
19745SOL     OW61008   1.557  10.184   2.408
19745SOL    HW161009   1.534  10.253   2.471
19745SOL    HW261010   1.474  10.143   2.385
19746SOL     OW61011  14.516  14.729   5.048
19746SOL    HW161012  14.485  14.693   5.132
19746SOL    HW261013  14.487  14.820   5.050
19747SOL     OW61014  11.505   9.887   8.822
19747SOL    HW161015  11.577   9.823   8.817
19747SOL    HW261016  11.431   9.843   8.780
19748SOL     OW61017   3.455   9.135   4.373
19748SOL    HW161018   3.495   9.058   4.332
19748SOL    HW261019   3.361   9.121   4.364
19749SOL     OW61020   9.677   5.482  10.210
19749SOL    HW161021   9.614   5.554  10.207
19749SOL    HW261022   9.657   5.435  10.291
19750SOL     OW61023  14.621   8.531   1.371
19750SOL    HW161024  14.549   8.496   1.319
19750SOL    HW261025  14.639   8.617   1.332
19751SOL     OW61026   5.674  11.108  14.871
19751SOL    HW161027   5.727  11.107   0.073
19751SOL    HW261028   5.640  11.019  14.864
19752SOL     OW61029  13.578   6.220  13.768
19752SOL    HW161030  13.639   6.271  13.821
19752SOL    HW261031  13.551   6.279  13.698
19753SOL     OW61032   8.589   9.379   4.245
19753SOL    HW161033   8.506   9.365   4.198
19753SOL    HW261034   8.631   9.293   4.245
19754SOL     OW61035   4.456   8.870   8.413
19754SOL    HW161036   4.504   8.934   8.465
19754SOL    HW261037   4.393   8.832   8.475
19755SOL     OW61038  12.542   7.830   0.231
19755SOL    HW161039  12.567   7.746   0.192
19755SOL    HW261040  12.461   7.813   0.277
19756SOL     OW61041  10.159  13.952   8.452
19756SOL    HW161042  10.203  14.034   8.476
19756SOL    HW261043  10.215  13.884   8.489
19757SOL     OW61044   7.104  11.942   1.339
19757SOL    HW161045   7.052  11.875   1.384
19757SOL    HW261046   7.106  11.914   1.247
19758SOL     OW61047   3.400   1.522   5.181
19758SOL    HW161048   3.408   1.427   5.186
19758SOL    HW261049   3.489   1.554   5.198
19759SOL     OW61050   2.719   1.166  13.921
19759SOL    HW161051   2.642   1.221  13.936
19759SOL    HW261052   2.704   1.128  13.834
19760SOL     OW61053  11.262   7.149  11.684
19760SOL    HW161054  11.210   7.152  11.765
19760SOL    HW261055  11.225   7.076  11.634
19761SOL     OW61056   8.768   6.892  13.565
19761SOL    HW161057   8.703   6.938  13.512
19761SOL    HW261058   8.790   6.954  13.635
19762SOL     OW61059  14.491   6.291   0.978
19762SOL    HW161060  14.440   6.362   0.940
19762SOL    HW261061  14.556   6.336   1.033
19763SOL     OW61062  13.347  10.032   4.203
19763SOL    HW161063  13.377  10.033   4.294
19763SOL    HW261064  13.254  10.011   4.209
19764SOL     OW61065   2.001   1.761   0.246
19764SOL    HW161066   2.048   1.812   0.313
19764SOL    HW261067   2.070   1.714   0.199
19765SOL     OW61068   0.642   0.523   1.042
19765SOL    HW161069   0.620   0.440   0.999
19765SOL    HW261070   0.566   0.542   1.098
19766SOL     OW61071   6.654   9.858  13.561
19766SOL    HW161072   6.655   9.843  13.656
19766SOL    HW261073   6.563   9.881  13.542
19767SOL     OW61074  10.237   7.675  12.696
19767SOL    HW161075  10.290   7.604  12.661
19767SOL    HW261076  10.215   7.648  12.785
19768SOL     OW61077   6.062   8.683  11.501
19768SOL    HW161078   6.110   8.600  11.495
19768SOL    HW261079   6.015   8.689  11.418
19769SOL     OW61080   6.314   3.709   2.072
19769SOL    HW161081   6.282   3.641   2.013
19769SOL    HW261082   6.303   3.790   2.024
19770SOL     OW61083  11.978   5.584   8.171
19770SOL    HW161084  11.924   5.586   8.092
19770SOL    HW261085  11.962   5.498   8.209
19771SOL     OW61086  14.486  12.818  11.012
19771SOL    HW161087  14.482  12.859  10.926
19771SOL    HW261088  14.579  12.818  11.035
19772SOL     OW61089   4.955   8.126   5.733
19772SOL    HW161090   4.976   8.190   5.665
19772SOL    HW261091   4.884   8.166   5.783
19773SOL     OW61092   0.964   7.703  14.814
19773SOL    HW161093   1.057   7.721  14.805
19773SOL    HW261094   0.924   7.741  14.736
19774SOL     OW61095  14.135  13.938   0.213
19774SOL    HW161096  14.145  13.844   0.203
19774SOL    HW261097  14.051  13.949   0.258
19775SOL     OW61098   2.945   7.971   6.679
19775SOL    HW161099   2.871   8.002   6.626
19775SOL    HW261100   2.912   7.972   6.769
19776SOL     OW61101   0.238   4.058   2.197
19776SOL    HW161102   0.320   4.051   2.149
19776SOL    HW261103   0.209   3.967   2.209
19777SOL     OW61104   2.169  14.319   9.429
19777SOL    HW161105   2.139  14.260   9.359
19777SOL    HW261106   2.143  14.275   9.510
19778SOL     OW61107  10.963  13.163  10.404
19778SOL    HW161108  11.004  13.143  10.319
19778SOL    HW261109  10.997  13.250  10.427
19779SOL     OW61110   3.784   3.773  13.433
19779SOL    HW161111   3.805   3.694  13.483
19779SOL    HW261112   3.708   3.810  13.478
19780SOL     OW61113   4.709  12.572   1.681
19780SOL    HW161114   4.746  12.615   1.759
19780SOL    HW261115   4.618  12.556   1.704
19781SOL     OW61116   1.431   0.289   5.499
19781SOL    HW161117   1.454   0.366   5.447
19781SOL    HW261118   1.512   0.237   5.502
19782SOL     OW61119   8.865   4.761   7.595
19782SOL    HW161120   8.873   4.856   7.608
19782SOL    HW261121   8.773   4.742   7.610
19783SOL     OW61122   5.739   4.049   5.458
19783SOL    HW161123   5.736   4.009   5.545
19783SOL    HW261124   5.751   3.976   5.398
19784SOL     OW61125   3.855   6.880   5.044
19784SOL    HW161126   3.760   6.895   5.048
19784SOL    HW261127   3.863   6.786   5.030
19785SOL     OW61128   5.232   7.528  10.580
19785SOL    HW161129   5.208   7.452  10.528
19785SOL    HW261130   5.193   7.512  10.666
19786SOL     OW61131   9.303  12.410   6.739
19786SOL    HW161132   9.343  12.345   6.682
19786SOL    HW261133   9.325  12.381   6.828
19787SOL     OW61134  14.511  13.810   5.013
19787SOL    HW161135  14.593  13.831   5.058
19787SOL    HW261136  14.444  13.818   5.080
19788SOL     OW61137  11.238   1.780   9.723
19788SOL    HW161138  11.153   1.735   9.722
19788SOL    HW261139  11.303   1.710   9.718
19789SOL     OW61140   5.595  12.940   2.063
19789SOL    HW161141   5.600  12.896   1.978
19789SOL    HW261142   5.685  12.942   2.094
19790SOL     OW61143  14.400  11.971   6.373
19790SOL    HW161144  14.345  11.953   6.296
19790SOL    HW261145  14.488  11.945   6.345
19791SOL     OW61146   7.679   1.328   0.631
19791SOL    HW161147   7.752   1.284   0.587
19791SOL    HW261148   7.713   1.353   0.716
19792SOL     OW61149   3.987   9.481   8.258
19792SOL    HW161150   4.036   9.423   8.199
19792SOL    HW261151   3.895   9.467   8.234
19793SOL     OW61152  10.751   4.237   5.243
19793SOL    HW161153  10.828   4.181   5.248
19793SOL    HW261154  10.739   4.270   5.332
19794SOL     OW61155   7.399   8.631  11.682
19794SOL    HW161156   7.378   8.639  11.589
19794SOL    HW261157   7.385   8.719  11.718
19795SOL     OW61158  14.635  12.412   0.991
19795SOL    HW161159  14.611  12.381   1.078
19795SOL    HW261160  14.552  12.422   0.944
19796SOL     OW61161  13.004   1.371   6.689
19796SOL    HW161162  12.954   1.442   6.648
19796SOL    HW261163  13.052   1.331   6.616
19797SOL     OW61164  10.029   2.362   5.831
19797SOL    HW161165   9.994   2.405   5.909
19797SOL    HW261166  10.087   2.427   5.792
19798SOL     OW61167   3.931  11.498   6.747
19798SOL    HW161168   3.977  11.531   6.670
19798SOL    HW261169   3.970  11.413   6.765
19799SOL     OW61170  13.736   8.376   9.454
19799SOL    HW161171  13.826   8.363   9.486
19799SOL    HW261172  13.707   8.288   9.428
19800SOL     OW61173   1.429  13.300   2.945
19800SOL    HW161174   1.399  13.209   2.954
19800SOL    HW261175   1.517  13.300   2.983
19801SOL     OW61176  12.940  13.692   1.231
19801SOL    HW161177  12.911  13.604   1.206
19801SOL    HW261178  13.025  13.701   1.189
19802SOL     OW61179   0.380  13.449   9.465
19802SOL    HW161180   0.399  13.370   9.413
19802SOL    HW261181   0.455  13.506   9.449
19803SOL     OW61182   5.742   9.362  12.569
19803SOL    HW161183   5.793   9.292  12.609
19803SOL    HW261184   5.652   9.331  12.571
19804SOL     OW61185  11.269   2.145   8.931
19804SOL    HW161186  11.193   2.128   8.986
19804SOL    HW261187  11.305   2.228   8.962
19805SOL     OW61188   8.288   1.451   9.795
19805SOL    HW161189   8.298   1.545   9.810
19805SOL    HW261190   8.228   1.444   9.721
19806SOL     OW61191  14.667   1.039   3.251
19806SOL    HW161192  14.656   1.003   3.339
19806SOL    HW261193  14.601   1.108   3.245
19807SOL     OW61194   4.049   9.366   2.322
19807SOL    HW161195   4.096   9.428   2.267
19807SOL    HW261196   4.095   9.369   2.406
19808SOL     OW61197   3.576  12.927  14.855
19808SOL    HW161198   3.566  12.832  14.854
19808SOL    HW261199   3.586  12.950   0.070
19809SOL     OW61200   0.579  12.346   2.873
19809SOL    HW161201   0.540  12.387   2.950
19809SOL    HW261202   0.623  12.268   2.906
19810SOL     OW61203   7.945   3.859   0.846
19810SOL    HW161204   7.933   3.830   0.755
19810SOL    HW261205   8.040   3.867   0.856
19811SOL     OW61206   9.170   6.100  11.301
19811SOL    HW161207   9.166   6.156  11.378
19811SOL    HW261208   9.088   6.118  11.254
19812SOL     OW61209   3.727   9.619   7.386
19812SOL    HW161210   3.676   9.690   7.348
19812SOL    HW261211   3.713   9.545   7.328
19813SOL     OW61212   3.749   3.577  12.370
19813SOL    HW161213   3.762   3.638  12.298
19813SOL    HW261214   3.797   3.616  12.443
19814SOL     OW61215   9.059   9.986   0.294
19814SOL    HW161216   9.090   9.896   0.286
19814SOL    HW261217   9.043   9.998   0.388
19815SOL     OW61218   5.366   0.789   2.785
19815SOL    HW161219   5.295   0.853   2.792
19815SOL    HW261220   5.413   0.796   2.868
19816SOL     OW61221   3.662   1.058  11.290
19816SOL    HW161222   3.715   1.126  11.248
19816SOL    HW261223   3.584   1.051  11.235
19817SOL     OW61224   3.180  13.687   8.239
19817SOL    HW161225   3.241  13.668   8.311
19817SOL    HW261226   3.207  13.773   8.207
19818SOL     OW61227   5.783   6.825   9.265
19818SOL    HW161228   5.848   6.795   9.329
19818SOL    HW261229   5.735   6.894   9.310
19819SOL     OW61230   2.781   2.523   5.681
19819SOL    HW161231   2.702   2.514   5.734
19819SOL    HW261232   2.753   2.573   5.604
19820SOL     OW61233   4.507   3.376   3.600
19820SOL    HW161234   4.458   3.455   3.577
19820SOL    HW261235   4.520   3.383   3.695
19821SOL     OW61236  10.348  11.303   1.196
19821SOL    HW161237  10.313  11.392   1.186
19821SOL    HW261238  10.342  11.285   1.289
19822SOL     OW61239   6.784   4.909  12.063
19822SOL    HW161240   6.853   4.896  12.127
19822SOL    HW261241   6.826   4.895  11.978
19823SOL     OW61242  13.581   6.370   9.704
19823SOL    HW161243  13.626   6.285   9.710
19823SOL    HW261244  13.621   6.413   9.629
19824SOL     OW61245   2.202   5.475   9.554
19824SOL    HW161246   2.283   5.525   9.541
19824SOL    HW261247   2.183   5.484   9.648
19825SOL     OW61248   1.547   4.603   3.839
19825SOL    HW161249   1.544   4.685   3.790
19825SOL    HW261250   1.463   4.561   3.820
19826SOL     OW61251  10.834  10.847   2.346
19826SOL    HW161252  10.874  10.874   2.264
19826SOL    HW261253  10.803  10.928   2.387
19827SOL     OW61254   1.087  12.859  11.254
19827SOL    HW161255   1.105  12.766  11.268
19827SOL    HW261256   1.091  12.897  11.341
19828SOL     OW61257   0.128   9.866   2.443
19828SOL    HW161258   0.183   9.921   2.387
19828SOL    HW261259   0.066   9.927   2.484
19829SOL     OW61260   1.601   8.456   0.467
19829SOL    HW161261   1.536   8.391   0.441
19829SOL    HW261262   1.560   8.504   0.539
19830SOL     OW61263   4.446   6.615   5.551
19830SOL    HW161264   4.520   6.628   5.610
19830SOL    HW261265   4.468   6.666   5.473
19831SOL     OW61266  12.955  11.077  12.863
19831SOL    HW161267  13.010  11.003  12.886
19831SOL    HW261268  12.922  11.109  12.946
19832SOL     OW61269  10.712   8.175   3.032
19832SOL    HW161270  10.754   8.091   3.015
19832SOL    HW261271  10.781   8.229   3.072
19833SOL     OW61272  11.248   1.599  10.486
19833SOL    HW161273  11.306   1.570  10.415
19833SOL    HW261274  11.161   1.599  10.448
19834SOL     OW61275   2.060   3.488   8.532
19834SOL    HW161276   2.028   3.578   8.537
19834SOL    HW261277   2.067   3.470   8.438
19835SOL     OW61278  11.421   0.103   2.075
19835SOL    HW161279  11.401   0.040   2.006
19835SOL    HW261280  11.363   0.177   2.057
19836SOL     OW61281   9.263  12.980   9.489
19836SOL    HW161282   9.327  12.934   9.435
19836SOL    HW261283   9.270  12.938   9.575
19837SOL     OW61284   3.022  11.424   1.100
19837SOL    HW161285   3.005  11.354   1.038
19837SOL    HW261286   2.988  11.503   1.058
19838SOL     OW61287   4.469   6.020   4.958
19838SOL    HW161288   4.535   6.008   5.025
19838SOL    HW261289   4.464   6.115   4.946
19839SOL     OW61290   2.063   9.578   8.444
19839SOL    HW161291   2.045   9.613   8.357
19839SOL    HW261292   2.158   9.590   8.455
19840SOL     OW61293   6.401   1.809  13.199
19840SOL    HW161294   6.419   1.902  13.214
19840SOL    HW261295   6.470   1.781  13.138
19841SOL     OW61296   1.079   6.045  13.227
19841SOL    HW161297   1.142   5.984  13.265
19841SOL    HW261298   1.060   6.010  13.140
19842SOL     OW61299  10.447   7.970  14.829
19842SOL    HW161300  10.403   7.931   0.027
19842SOL    HW261301  10.518   8.022  14.867
19843SOL     OW61302   0.546   2.298   3.660
19843SOL    HW161303   0.512   2.365   3.719
19843SOL    HW261304   0.626   2.336   3.623
19844SOL     OW61305  13.583   0.871  10.815
19844SOL    HW161306  13.629   0.925  10.879
19844SOL    HW261307  13.499   0.850  10.857
19845SOL     OW61308  11.510   6.925   6.153
19845SOL    HW161309  11.558   6.850   6.119
19845SOL    HW261310  11.431   6.888   6.191
19846SOL     OW61311  11.767   0.052   4.611
19846SOL    HW161312  11.706   0.119   4.641
19846SOL    HW261313  11.736  14.849   4.652
19847SOL     OW61314  13.281  14.691  13.920
19847SOL    HW161315  13.246  14.667  14.006
19847SOL    HW261316  13.376  14.696  13.933
19848SOL     OW61317   1.532   1.489   6.415
19848SOL    HW161318   1.509   1.411   6.466
19848SOL    HW261319   1.507   1.562   6.471
19849SOL     OW61320   7.099   4.163  14.064
19849SOL    HW161321   7.170   4.159  14.129
19849SOL    HW261322   7.129   4.225  13.999
19850SOL     OW61323   9.070  13.419   3.503
19850SOL    HW161324   9.076  13.400   3.409
19850SOL    HW261325   8.980  13.449   3.516
19851SOL     OW61326   7.351  13.146  10.927
19851SOL    HW161327   7.440  13.163  10.896
19851SOL    HW261328   7.342  13.200  11.005
19852SOL     OW61329   8.509  11.105   8.551
19852SOL    HW161330   8.430  11.076   8.506
19852SOL    HW261331   8.533  11.032   8.608
19853SOL     OW61332  14.594   1.585  10.835
19853SOL    HW161333  14.621   1.500  10.868
19853SOL    HW261334  14.595   1.643  10.911
19854SOL     OW61335   5.967  14.768   3.499
19854SOL    HW161336   5.952  14.842   3.441
19854SOL    HW261337   6.045  14.792   3.549
19855SOL     OW61338   6.369  14.113  12.299
19855SOL    HW161339   6.450  14.070  12.271
19855SOL    HW261340   6.308  14.100  12.227
19856SOL     OW61341   2.797   7.839   5.657
19856SOL    HW161342   2.727   7.882   5.608
19856SOL    HW261343   2.841   7.783   5.593
19857SOL     OW61344   1.350  11.995  13.984
19857SOL    HW161345   1.283  11.927  13.975
19857SOL    HW261346   1.357  12.008  14.079
19858SOL     OW61347  10.680  12.811   1.965
19858SOL    HW161348  10.589  12.792   1.988
19858SOL    HW261349  10.732  12.775   2.037
19859SOL     OW61350  14.122   9.330   3.483
19859SOL    HW161351  14.057   9.334   3.554
19859SOL    HW261352  14.182   9.260   3.509
19860SOL     OW61353  11.662   6.207   4.378
19860SOL    HW161354  11.568   6.214   4.396
19860SOL    HW261355  11.694   6.144   4.443
19861SOL     OW61356   7.448  11.579  14.280
19861SOL    HW161357   7.436  11.640  14.353
19861SOL    HW261358   7.362  11.576  14.237
19862SOL     OW61359   3.555   9.026  11.374
19862SOL    HW161360   3.553   8.951  11.315
19862SOL    HW261361   3.464   9.053  11.382
19863SOL     OW61362  11.886   8.688   7.570
19863SOL    HW161363  11.952   8.748   7.606
19863SOL    HW261364  11.858   8.731   7.489
19864SOL     OW61365   5.568   6.711  14.826
19864SOL    HW161366   5.479   6.747  14.823
19864SOL    HW261367   5.564   6.630  14.777
19865SOL     OW61368   3.088   9.088   2.601
19865SOL    HW161369   3.113   9.014   2.546
19865SOL    HW261370   3.169   9.138   2.613
19866SOL     OW61371   6.878   0.324  12.722
19866SOL    HW161372   6.916   0.345  12.637
19866SOL    HW261373   6.915   0.238  12.744
19867SOL     OW61374   8.530   1.047   0.280
19867SOL    HW161375   8.595   1.115   0.298
19867SOL    HW261376   8.456   1.094   0.244
19868SOL     OW61377   6.460   5.200  11.114
19868SOL    HW161378   6.475   5.115  11.071
19868SOL    HW261379   6.451   5.262  11.041
19869SOL     OW61380   3.950   7.076  14.249
19869SOL    HW161381   3.866   7.074  14.204
19869SOL    HW261382   3.978   7.168  14.244
19870SOL     OW61383   5.374   2.326   8.017
19870SOL    HW161384   5.279   2.323   8.026
19870SOL    HW261385   5.389   2.378   7.938
19871SOL     OW61386  13.655   4.801   7.070
19871SOL    HW161387  13.702   4.764   7.145
19871SOL    HW261388  13.584   4.852   7.109
19872SOL     OW61389   9.649   1.097   7.418
19872SOL    HW161390   9.560   1.122   7.444
19872SOL    HW261391   9.665   1.145   7.337
19873SOL     OW61392  14.423   3.469  10.619
19873SOL    HW161393  14.334   3.495  10.594
19873SOL    HW261394  14.460   3.431  10.539
19874SOL     OW61395  14.428   1.513   2.436
19874SOL    HW161396  14.519   1.525   2.409
19874SOL    HW261397  14.380   1.504   2.354
19875SOL     OW61398   7.943  11.750   1.457
19875SOL    HW161399   7.927  11.684   1.524
19875SOL    HW261400   7.928  11.834   1.501
19876SOL     OW61401  11.093  11.222  10.531
19876SOL    HW161402  11.182  11.230  10.499
19876SOL    HW261403  11.051  11.305  10.509
19877SOL     OW61404   8.276   0.062  13.873
19877SOL    HW161405   8.289  14.851  13.904
19877SOL    HW261406   8.314   0.064  13.785
19878SOL     OW61407  11.737   8.359   8.041
19878SOL    HW161408  11.740   8.445   8.083
19878SOL    HW261409  11.787   8.302   8.098
19879SOL     OW61410  11.189   4.652   2.815
19879SOL    HW161411  11.171   4.560   2.796
19879SOL    HW261412  11.104   4.688   2.838
19880SOL     OW61413  12.752   5.564  12.044
19880SOL    HW161414  12.799   5.606  12.116
19880SOL    HW261415  12.782   5.610  11.966
19881SOL     OW61416   6.793   3.114  11.573
19881SOL    HW161417   6.783   3.186  11.512
19881SOL    HW261418   6.849   3.148  11.643
19882SOL     OW61419   5.386   4.103  10.526
19882SOL    HW161420   5.321   4.150  10.473
19882SOL    HW261421   5.464   4.159  10.524
19883SOL     OW61422   0.454  13.857  12.306
19883SOL    HW161423   0.397  13.798  12.256
19883SOL    HW261424   0.541  13.845  12.267
19884SOL     OW61425   7.651  14.725   4.906
19884SOL    HW161426   7.717  14.793   4.893
19884SOL    HW261427   7.647  14.678   4.823
19885SOL     OW61428  11.494   4.381   5.921
19885SOL    HW161429  11.473   4.469   5.953
19885SOL    HW261430  11.479   4.386   5.827
19886SOL     OW61431   1.700   6.558   6.994
19886SOL    HW161432   1.678   6.566   6.901
19886SOL    HW261433   1.621   6.521   7.034
19887SOL     OW61434   9.578  13.816   1.192
19887SOL    HW161435   9.672  13.813   1.208
19887SOL    HW261436   9.550  13.724   1.192
19888SOL     OW61437   1.481   5.694  12.194
19888SOL    HW161438   1.450   5.655  12.112
19888SOL    HW261439   1.418   5.764  12.212
19889SOL     OW61440   1.820   0.376   0.981
19889SOL    HW161441   1.899   0.429   0.978
19889SOL    HW261442   1.789   0.383   1.071
19890SOL     OW61443   3.378   6.570  10.131
19890SOL    HW161444   3.343   6.655  10.102
19890SOL    HW261445   3.402   6.525  10.051
19891SOL     OW61446   0.730  13.269  11.224
19891SOL    HW161447   0.719  13.319  11.305
19891SOL    HW261448   0.732  13.336  11.155
19892SOL     OW61449   1.898   9.165   9.119
19892SOL    HW161450   1.946   9.239   9.083
19892SOL    HW261451   1.836   9.203   9.181
19893SOL     OW61452   7.837  11.848  11.412
19893SOL    HW161453   7.793  11.814  11.490
19893SOL    HW261454   7.861  11.770  11.362
19894SOL     OW61455   4.104   5.995  12.964
19894SOL    HW161456   4.195   5.965  12.957
19894SOL    HW261457   4.110   6.091  12.955
19895SOL     OW61458   4.985   8.400   5.083
19895SOL    HW161459   4.962   8.334   5.018
19895SOL    HW261460   4.905   8.450   5.097
19896SOL     OW61461   9.884  12.162   0.831
19896SOL    HW161462   9.966  12.211   0.824
19896SOL    HW261463   9.832  12.193   0.757
19897SOL     OW61464   7.992   1.235   7.451
19897SOL    HW161465   8.055   1.250   7.522
19897SOL    HW261466   8.038   1.263   7.372
19898SOL     OW61467   6.426   3.176   2.162
19898SOL    HW161468   6.456   3.240   2.098
19898SOL    HW261469   6.407   3.227   2.240
19899SOL     OW61470   6.124  14.002   0.988
19899SOL    HW161471   6.151  14.075   0.932
19899SOL    HW261472   6.204  13.977   1.034
19900SOL     OW61473   5.678  11.922  13.470
19900SOL    HW161474   5.598  11.975  13.468
19900SOL    HW261475   5.680  11.878  13.385
19901SOL     OW61476   8.535  13.155  12.103
19901SOL    HW161477   8.573  13.072  12.133
19901SOL    HW261478   8.501  13.134  12.016
19902SOL     OW61479  13.751   9.792   8.798
19902SOL    HW161480  13.751   9.855   8.870
19902SOL    HW261481  13.660   9.764   8.790
19903SOL     OW61482   3.796  12.617   4.236
19903SOL    HW161483   3.790  12.660   4.321
19903SOL    HW261484   3.845  12.679   4.182
19904SOL     OW61485  13.019  14.688   7.790
19904SOL    HW161486  13.051  14.708   7.702
19904SOL    HW261487  12.944  14.746   7.802
19905SOL     OW61488   2.823   4.455   3.688
19905SOL    HW161489   2.797   4.458   3.780
19905SOL    HW261490   2.915   4.427   3.690
19906SOL     OW61491   9.626   0.666  12.327
19906SOL    HW161492   9.676   0.709  12.257
19906SOL    HW261493   9.665   0.700  12.408
19907SOL     OW61494   5.148   1.656  14.415
19907SOL    HW161495   5.190   1.632  14.333
19907SOL    HW261496   5.176   1.746  14.432
19908SOL     OW61497  10.967   4.997   8.516
19908SOL    HW161498  11.015   5.033   8.441
19908SOL    HW261499  10.992   5.053   8.589
19909SOL     OW61500   8.090  13.567  13.107
19909SOL    HW161501   8.151  13.496  13.088
19909SOL    HW261502   8.020  13.525  13.157
19910SOL     OW61503   0.103   7.971   8.944
19910SOL    HW161504   0.187   8.015   8.931
19910SOL    HW261505   0.093   7.966   9.039
19911SOL     OW61506   9.279   3.558  14.233
19911SOL    HW161507   9.332   3.637  14.243
19911SOL    HW261508   9.285   3.536  14.141
19912SOL     OW61509   0.437  12.480   0.786
19912SOL    HW161510   0.431  12.407   0.724
19912SOL    HW261511   0.497  12.448   0.854
19913SOL     OW61512  11.060   8.871  12.347
19913SOL    HW161513  11.105   8.802  12.395
19913SOL    HW261514  11.077   8.851  12.255
19914SOL     OW61515  12.136   7.686   2.770
19914SOL    HW161516  12.213   7.718   2.816
19914SOL    HW261517  12.159   7.691   2.678
19915SOL     OW61518  12.382  11.604  14.406
19915SOL    HW161519  12.416  11.577  14.320
19915SOL    HW261520  12.455  11.649  14.447
19916SOL     OW61521   1.190   8.199   4.496
19916SOL    HW161522   1.283   8.185   4.516
19916SOL    HW261523   1.162   8.116   4.457
19917SOL     OW61524   7.168  14.441  12.414
19917SOL    HW161525   7.103  14.423  12.346
19917SOL    HW261526   7.252  14.428  12.369
19918SOL     OW61527   9.316  10.370   5.063
19918SOL    HW161528   9.310  10.437   4.995
19918SOL    HW261529   9.314  10.418   5.145
19919SOL     OW61530   5.800   9.517   0.726
19919SOL    HW161531   5.748   9.514   0.806
19919SOL    HW261532   5.769   9.595   0.680
19920SOL     OW61533  10.792   3.438  13.675
19920SOL    HW161534  10.796   3.370  13.742
19920SOL    HW261535  10.752   3.513  13.719
19921SOL     OW61536   5.024   0.848  14.416
19921SOL    HW161537   4.930   0.834  14.430
19921SOL    HW261538   5.049   0.913  14.482
19922SOL     OW61539   6.605   5.525   8.436
19922SOL    HW161540   6.545   5.462   8.476
19922SOL    HW261541   6.675   5.471   8.398
19923SOL     OW61542  13.239   2.610  10.855
19923SOL    HW161543  13.334   2.618  10.859
19923SOL    HW261544  13.207   2.675  10.918
19924SOL     OW61545   4.495   3.014   6.162
19924SOL    HW161546   4.403   3.039   6.149
19924SOL    HW261547   4.544   3.092   6.136
19925SOL     OW61548   2.688   2.353  14.749
19925SOL    HW161549   2.650   2.417  14.810
19925SOL    HW261550   2.708   2.277  14.803
19926SOL     OW61551   0.879  12.004   6.229
19926SOL    HW161552   0.904  12.096   6.243
19926SOL    HW261553   0.962  11.956   6.229
19927SOL     OW61554   6.626   9.514   1.942
19927SOL    HW161555   6.575   9.594   1.936
19927SOL    HW261556   6.692   9.522   1.873
19928SOL     OW61557  14.794   3.028   0.962
19928SOL    HW161558  14.777   2.941   0.925
19928SOL    HW261559   0.011   3.036   0.962
19929SOL     OW61560   2.540  12.599   2.409
19929SOL    HW161561   2.473  12.654   2.370
19929SOL    HW261562   2.609  12.659   2.436
19930SOL     OW61563  10.435  10.460   7.595
19930SOL    HW161564  10.474  10.464   7.507
19930SOL    HW261565  10.407  10.549   7.613
19931SOL     OW61566   6.042   8.294   4.096
19931SOL    HW161567   6.078   8.354   4.031
19931SOL    HW261568   6.072   8.328   4.180
19932SOL     OW61569  12.438   1.502  12.568
19932SOL    HW161570  12.531   1.481  12.560
19932SOL    HW261571  12.393   1.422  12.539
19933SOL     OW61572   9.426   6.591   3.502
19933SOL    HW161573   9.350   6.632   3.462
19933SOL    HW261574   9.414   6.497   3.484
19934SOL     OW61575  12.273   6.262   1.577
19934SOL    HW161576  12.332   6.200   1.620
19934SOL    HW261577  12.303   6.348   1.607
19935SOL     OW61578   3.160   9.998  10.404
19935SOL    HW161579   3.186   9.965  10.318
19935SOL    HW261580   3.074  10.037  10.390
19936SOL     OW61581   1.304  14.219   7.441
19936SOL    HW161582   1.244  14.145   7.446
19936SOL    HW261583   1.295  14.264   7.525
19937SOL     OW61584   1.764  13.301   8.605
19937SOL    HW161585   1.705  13.359   8.653
19937SOL    HW261586   1.729  13.299   8.516
19938SOL     OW61587   5.093  13.842   8.694
19938SOL    HW161588   5.110  13.754   8.725
19938SOL    HW261589   5.006  13.864   8.728
19939SOL     OW61590   1.566   2.294  10.086
19939SOL    HW161591   1.648   2.247  10.100
19939SOL    HW261592   1.542   2.275   9.995
19940SOL     OW61593   4.684   8.036  14.338
19940SOL    HW161594   4.632   8.011  14.261
19940SOL    HW261595   4.768   8.064  14.303
19941SOL     OW61596  11.300  10.949   1.894
19941SOL    HW161597  11.243  11.024   1.877
19941SOL    HW261598  11.241  10.875   1.903
19942SOL     OW61599   4.245   7.450  11.030
19942SOL    HW161600   4.328   7.479  10.992
19942SOL    HW261601   4.181   7.465  10.960
19943SOL     OW61602   4.872   0.655   6.925
19943SOL    HW161603   4.886   0.695   6.839
19943SOL    HW261604   4.934   0.582   6.928
19944SOL     OW61605   0.813   0.661   9.978
19944SOL    HW161606   0.823   0.568   9.957
19944SOL    HW261607   0.902   0.690   9.997
19945SOL     OW61608  12.995   8.606  12.206
19945SOL    HW161609  13.028   8.684  12.162
19945SOL    HW261610  12.931   8.639  12.269
19946SOL     OW61611   4.936  13.052   7.706
19946SOL    HW161612   4.938  12.957   7.714
19946SOL    HW261613   4.864  13.079   7.762
19947SOL     OW61614  11.540   1.643  11.738
19947SOL    HW161615  11.516   1.577  11.673
19947SOL    HW261616  11.621   1.611  11.778
19948SOL     OW61617   2.415   1.289  14.274
19948SOL    HW161618   2.424   1.385  14.275
19948SOL    HW261619   2.505   1.257  14.269
19949SOL     OW61620   1.491   2.363  13.395
19949SOL    HW161621   1.544   2.289  13.422
19949SOL    HW261622   1.553   2.425  13.357
19950SOL     OW61623   3.396  13.941  11.257
19950SOL    HW161624   3.481  13.984  11.248
19950SOL    HW261625   3.400  13.897  11.342
19951SOL     OW61626   0.654   9.968   3.965
19951SOL    HW161627   0.736   9.970   4.015
19951SOL    HW261628   0.676  10.010   3.882
19952SOL     OW61629   7.607  12.358   5.794
19952SOL    HW161630   7.597  12.431   5.732
19952SOL    HW261631   7.566  12.283   5.750
19953SOL     OW61632   5.222   6.049   5.591
19953SOL    HW161633   5.164   5.990   5.543
19953SOL    HW261634   5.279   5.991   5.642
19954SOL     OW61635   7.325   9.697   4.658
19954SOL    HW161636   7.402   9.737   4.699
19954SOL    HW261637   7.263   9.770   4.649
19955SOL     OW61638   2.515   4.374   0.217
19955SOL    HW161639   2.588   4.419   0.260
19955SOL    HW261640   2.458   4.346   0.288
19956SOL     OW61641   2.600   4.824   6.175
19956SOL    HW161642   2.627   4.757   6.113
19956SOL    HW261643   2.558   4.776   6.246
19957SOL     OW61644   9.987  10.663   6.422
19957SOL    HW161645  10.080  10.651   6.439
19957SOL    HW261646   9.947  10.580   6.447
19958SOL     OW61647  11.002   9.337   4.708
19958SOL    HW161648  10.937   9.402   4.683
19958SOL    HW261649  10.952   9.265   4.744
19959SOL     OW61650   0.241   0.177   5.817
19959SOL    HW161651   0.237   0.271   5.798
19959SOL    HW261652   0.242   0.173   5.913
19960SOL     OW61653   1.007  11.853   3.480
19960SOL    HW161654   1.016  11.901   3.563
19960SOL    HW261655   1.006  11.921   3.413
19961SOL     OW61656   2.672  10.590   1.624
19961SOL    HW161657   2.679  10.496   1.642
19961SOL    HW261658   2.718  10.632   1.696
19962SOL     OW61659  13.658   6.122   5.358
19962SOL    HW161660  13.661   6.212   5.392
19962SOL    HW261661  13.673   6.067   5.435
19963SOL     OW61662   2.696   5.435   9.234
19963SOL    HW161663   2.660   5.351   9.204
19963SOL    HW261664   2.790   5.418   9.246
19964SOL     OW61665   1.176   9.222  10.325
19964SOL    HW161666   1.100   9.279  10.335
19964SOL    HW261667   1.232   9.245  10.399
19965SOL     OW61668   9.768   4.944  10.292
19965SOL    HW161669   9.806   4.983  10.214
19965SOL    HW261670   9.681   4.986  10.300
19966SOL     OW61671   6.058  14.534  13.587
19966SOL    HW161672   5.980  14.485  13.614
19966SOL    HW261673   6.104  14.475  13.528
19967SOL     OW61674  12.539   0.716   1.233
19967SOL    HW161675  12.558   0.638   1.181
19967SOL    HW261676  12.564   0.691   1.323
19968SOL     OW61677   6.541  11.385   7.671
19968SOL    HW161678   6.496  11.345   7.745
19968SOL    HW261679   6.564  11.473   7.701
19969SOL     OW61680   5.404   1.133   4.788
19969SOL    HW161681   5.434   1.132   4.879
19969SOL    HW261682   5.480   1.164   4.738
19970SOL     OW61683  14.676   4.060   6.209
19970SOL    HW161684  14.605   4.112   6.246
19970SOL    HW261685  14.712   4.114   6.139
19971SOL     OW61686   4.414   9.236   7.760
19971SOL    HW161687   4.367   9.291   7.696
19971SOL    HW261688   4.453   9.166   7.708
19972SOL     OW61689   9.295   2.968   1.854
19972SOL    HW161690   9.285   2.996   1.763
19972SOL    HW261691   9.322   3.047   1.900
19973SOL     OW61692   7.172   0.997  11.873
19973SOL    HW161693   7.078   0.980  11.874
19973SOL    HW261694   7.193   1.018  11.965
19974SOL     OW61695   4.757   7.008  11.238
19974SOL    HW161696   4.758   7.084  11.181
19974SOL    HW261697   4.823   7.027  11.305
19975SOL     OW61698   7.620   3.832   7.350
19975SOL    HW161699   7.536   3.879   7.348
19975SOL    HW261700   7.670   3.876   7.418
19976SOL     OW61701   9.875  12.998   4.893
19976SOL    HW161702   9.790  13.016   4.933
19976SOL    HW261703   9.939  13.039   4.952
19977SOL     OW61704   3.924   0.452   4.217
19977SOL    HW161705   3.880   0.468   4.300
19977SOL    HW261706   3.892   0.521   4.159
19978SOL     OW61707   5.509   0.700   7.901
19978SOL    HW161708   5.527   0.613   7.936
19978SOL    HW261709   5.520   0.691   7.806
19979SOL     OW61710   8.126  13.284   7.225
19979SOL    HW161711   8.109  13.274   7.319
19979SOL    HW261712   8.077  13.363   7.200
19980SOL     OW61713  11.610  12.945   0.697
19980SOL    HW161714  11.534  12.887   0.707
19980SOL    HW261715  11.587  13.002   0.625
19981SOL     OW61716  11.997  10.274   0.994
19981SOL    HW161717  12.091  10.253   0.988
19981SOL    HW261718  11.958  10.231   0.919
19982SOL     OW61719  13.420  14.749  12.092
19982SOL    HW161720  13.433  14.731  11.999
19982SOL    HW261721  13.506  14.737  12.132
19983SOL     OW61722   9.933   6.316   0.119
19983SOL    HW161723   9.880   6.394   0.140
19983SOL    HW261724  10.020   6.351   0.101
19984SOL     OW61725  10.532   9.181  11.943
19984SOL    HW161726  10.517   9.092  11.909
19984SOL    HW261727  10.563   9.168  12.032
19985SOL     OW61728   1.377  13.337   8.251
19985SOL    HW161729   1.343  13.278   8.318
19985SOL    HW261730   1.453  13.293   8.215
19986SOL     OW61731   7.767  14.087   9.128
19986SOL    HW161732   7.843  14.114   9.180
19986SOL    HW261733   7.801  14.018   9.071
19987SOL     OW61734   0.783   1.505  11.821
19987SOL    HW161735   0.872   1.476  11.841
19987SOL    HW261736   0.774   1.586  11.871
19988SOL     OW61737   8.971   0.754  12.281
19988SOL    HW161738   8.992   0.832  12.230
19988SOL    HW261739   9.002   0.774  12.369
19989SOL     OW61740  13.946  14.032  12.304
19989SOL    HW161741  13.854  14.006  12.312
19989SOL    HW261742  13.944  14.127  12.314
19990SOL     OW61743  10.849   9.449   6.478
19990SOL    HW161744  10.905   9.456   6.555
19990SOL    HW261745  10.791   9.524   6.484
19991SOL     OW61746   2.046   7.215   8.826
19991SOL    HW161747   2.094   7.210   8.908
19991SOL    HW261748   2.107   7.257   8.765
19992SOL     OW61749  12.113  14.871  11.290
19992SOL    HW161750  12.137   0.085  11.276
19992SOL    HW261751  12.080  14.868  11.379
19993SOL     OW61752  14.320   9.534  11.486
19993SOL    HW161753  14.225   9.530  11.498
19993SOL    HW261754  14.352   9.579  11.565
19994SOL     OW61755  11.827   3.631   5.714
19994SOL    HW161756  11.896   3.685   5.675
19994SOL    HW261757  11.872   3.580   5.781
19995SOL     OW61758  10.217  12.004  11.897
19995SOL    HW161759  10.257  12.087  11.870
19995SOL    HW261760  10.283  11.938  11.876
19996SOL     OW61761  12.903  12.160  12.233
19996SOL    HW161762  12.865  12.094  12.290
19996SOL    HW261763  12.985  12.185  12.275
19997SOL     OW61764  12.397   1.435   5.417
19997SOL    HW161765  12.433   1.374   5.481
19997SOL    HW261766  12.418   1.396   5.332
19998SOL     OW61767   2.270   6.452   7.259
19998SOL    HW161768   2.261   6.543   7.231
19998SOL    HW261769   2.363   6.433   7.251
19999SOL     OW61770   2.429   0.409   0.742
19999SOL    HW161771   2.522   0.402   0.763
19999SOL    HW261772   2.418   0.500   0.715
20000SOL     OW61773   0.461   8.844  13.001
20000SOL    HW161774   0.485   8.845  12.908
20000SOL    HW261775   0.491   8.759  13.033
20001SOL     OW61776  10.213  13.189   8.919
20001SOL    HW161777  10.295  13.216   8.878
20001SOL    HW261778  10.153  13.262   8.905
20002SOL     OW61779   3.655   2.868   1.939
20002SOL    HW161780   3.559   2.866   1.933
20002SOL    HW261781   3.677   2.796   1.998
20003SOL     OW61782   9.948  11.505   8.296
20003SOL    HW161783   9.938  11.421   8.250
20003SOL    HW261784  10.039  11.530   8.281
20004SOL     OW61785  10.463   5.679  13.356
20004SOL    HW161786  10.514   5.747  13.400
20004SOL    HW261787  10.434   5.621  13.427
20005SOL     OW61788  10.591   6.381   1.712
20005SOL    HW161789  10.585   6.308   1.650
20005SOL    HW261790  10.679   6.417   1.697
20006SOL     OW61791   4.736  11.308   7.949
20006SOL    HW161792   4.711  11.229   7.901
20006SOL    HW261793   4.825  11.326   7.921
20007SOL     OW61794  12.950  11.443  12.575
20007SOL    HW161795  13.001  11.380  12.524
20007SOL    HW261796  12.911  11.391  12.645
20008SOL     OW61797   2.151   5.496  14.210
20008SOL    HW161798   2.212   5.437  14.166
20008SOL    HW261799   2.180   5.584  14.185
20009SOL     OW61800   3.511  13.378   9.180
20009SOL    HW161801   3.581  13.352   9.241
20009SOL    HW261802   3.430  13.353   9.224
20010SOL     OW61803   3.576   5.396   1.080
20010SOL    HW161804   3.499   5.397   1.137
20010SOL    HW261805   3.549   5.446   1.003
20011SOL     OW61806  11.149  13.799   9.189
20011SOL    HW161807  11.167  13.766   9.101
20011SOL    HW261808  11.225  13.774   9.241
20012SOL     OW61809   3.629   1.194  13.103
20012SOL    HW161810   3.650   1.233  13.018
20012SOL    HW261811   3.592   1.109  13.080
20013SOL     OW61812   1.860   5.821  13.603
20013SOL    HW161813   1.845   5.727  13.613
20013SOL    HW261814   1.913   5.845  13.680
20014SOL     OW61815   7.862   7.785   3.119
20014SOL    HW161816   7.934   7.814   3.063
20014SOL    HW261817   7.803   7.860   3.122
20015SOL     OW61818   2.481   7.574  13.437
20015SOL    HW161819   2.409   7.634  13.457
20015SOL    HW261820   2.523   7.611  13.359
20016SOL     OW61821   4.828   4.892   2.542
20016SOL    HW161822   4.916   4.858   2.557
20016SOL    HW261823   4.799   4.849   2.462
20017SOL     OW61824   2.924   0.260  11.378
20017SOL    HW161825   2.951   0.176  11.341
20017SOL    HW261826   2.986   0.324  11.344
20018SOL     OW61827   8.729   0.071  14.046
20018SOL    HW161828   8.667   0.001  14.063
20018SOL    HW261829   8.701   0.109  13.963
20019SOL     OW61830   6.390   1.560  11.614
20019SOL    HW161831   6.404   1.488  11.675
20019SOL    HW261832   6.299   1.549  11.585
20020SOL     OW61833  14.164  10.958   5.814
20020SOL    HW161834  14.201  11.036   5.773
20020SOL    HW261835  14.200  10.884   5.765
20021SOL     OW61836   5.693   5.331   2.264
20021SOL    HW161837   5.757   5.401   2.258
20021SOL    HW261838   5.743   5.251   2.252
20022SOL     OW61839   3.218   6.759   8.012
20022SOL    HW161840   3.244   6.696   8.079
20022SOL    HW261841   3.299   6.804   7.989
20023SOL     OW61842   3.708   3.422  11.138
20023SOL    HW161843   3.714   3.352  11.203
20023SOL    HW261844   3.726   3.379  11.054
20024SOL     OW61845  10.409   0.284   1.828
20024SOL    HW161846  10.352   0.278   1.751
20024SOL    HW261847  10.497   0.264   1.794
20025SOL     OW61848   4.366   8.950  11.079
20025SOL    HW161849   4.387   9.000  11.158
20025SOL    HW261850   4.388   8.859  11.100
20026SOL     OW61851   2.689   6.518   8.017
20026SOL    HW161852   2.648   6.572   8.084
20026SOL    HW261853   2.651   6.431   8.030
20027SOL     OW61854   9.962   8.051   8.434
20027SOL    HW161855   9.871   8.078   8.437
20027SOL    HW261856  10.002   8.091   8.512
20028SOL     OW61857   7.879  10.273   4.737
20028SOL    HW161858   7.941  10.243   4.804
20028SOL    HW261859   7.795  10.235   4.765
20029SOL     OW61860  13.593  11.788   2.083
20029SOL    HW161861  13.501  11.810   2.099
20029SOL    HW261862  13.643  11.860   2.121
20030SOL     OW61863   8.462   3.671  13.715
20030SOL    HW161864   8.457   3.706  13.804
20030SOL    HW261865   8.550   3.693  13.685
20031SOL     OW61866   7.926   7.181   1.008
20031SOL    HW161867   7.944   7.273   0.988
20031SOL    HW261868   8.002   7.152   1.059
20032SOL     OW61869   1.862  11.189   7.210
20032SOL    HW161870   1.938  11.246   7.220
20032SOL    HW261871   1.787  11.247   7.226
20033SOL     OW61872   7.190   4.383  13.866
20033SOL    HW161873   7.136   4.459  13.844
20033SOL    HW261874   7.279   4.418  13.868
20034SOL     OW61875  14.665  10.699   7.462
20034SOL    HW161876  14.623  10.616   7.439
20034SOL    HW261877  14.750  10.696   7.418
20035SOL     OW61878   2.344   6.389  10.308
20035SOL    HW161879   2.286   6.368  10.381
20035SOL    HW261880   2.425   6.417  10.349
20036SOL     OW61881  11.176   5.260   1.150
20036SOL    HW161882  11.160   5.341   1.198
20036SOL    HW261883  11.111   5.261   1.080
20037SOL     OW61884   5.281  10.414   1.702
20037SOL    HW161885   5.212  10.419   1.768
20037SOL    HW261886   5.320  10.502   1.702
20038SOL     OW61887   7.378   3.936  14.532
20038SOL    HW161888   7.426   3.881  14.469
20038SOL    HW261889   7.418   4.022  14.524
20039SOL     OW61890   5.491   5.915  14.218
20039SOL    HW161891   5.415   5.922  14.160
20039SOL    HW261892   5.453   5.908  14.306
20040SOL     OW61893   1.108  10.658  14.170
20040SOL    HW161894   1.029  10.636  14.218
20040SOL    HW261895   1.077  10.692  14.086
20041SOL     OW61896   3.454   0.031   7.203
20041SOL    HW161897   3.402   0.087   7.261
20041SOL    HW261898   3.544   0.048   7.228
20042SOL     OW61899   2.724  12.461   9.265
20042SOL    HW161900   2.769  12.427   9.187
20042SOL    HW261901   2.662  12.526   9.230
20043SOL     OW61902   6.733   2.499  12.000
20043SOL    HW161903   6.773   2.484  12.086
20043SOL    HW261904   6.804   2.537  11.948
20044SOL     OW61905  11.513   8.596  13.535
20044SOL    HW161906  11.587   8.611  13.476
20044SOL    HW261907  11.452   8.544  13.484
20045SOL     OW61908  11.551   9.082   4.488
20045SOL    HW161909  11.573   9.174   4.475
20045SOL    HW261910  11.614   9.034   4.434
20046SOL     OW61911   5.222   3.191   5.888
20046SOL    HW161912   5.260   3.155   5.968
20046SOL    HW261913   5.265   3.143   5.817
20047SOL     OW61914  12.107  11.998  11.881
20047SOL    HW161915  12.013  11.985  11.865
20047SOL    HW261916  12.116  12.093  11.889
20048SOL     OW61917   2.142   3.945  10.344
20048SOL    HW161918   2.170   4.029  10.309
20048SOL    HW261919   2.047   3.954  10.354
20049SOL     OW61920  11.129   0.595   4.469
20049SOL    HW161921  11.047   0.631   4.434
20049SOL    HW261922  11.103   0.553   4.551
20050SOL     OW61923   4.241   1.632   9.882
20050SOL    HW161924   4.151   1.642   9.851
20050SOL    HW261925   4.233   1.577   9.960
20051SOL     OW61926   2.163  10.194   8.416
20051SOL    HW161927   2.229  10.164   8.479
20051SOL    HW261928   2.089  10.222   8.469
20052SOL     OW61929   0.561   1.484   2.738
20052SOL    HW161930   0.612   1.552   2.694
20052SOL    HW261931   0.472   1.519   2.742
20053SOL     OW61932   6.996  14.398   3.872
20053SOL    HW161933   7.021  14.328   3.931
20053SOL    HW261934   7.071  14.407   3.812
20054SOL     OW61935  13.463   7.011   0.581
20054SOL    HW161936  13.370   6.991   0.591
20054SOL    HW261937  13.499   6.935   0.535
20055SOL     OW61938   8.759   3.885  13.469
20055SOL    HW161939   8.743   3.797  13.503
20055SOL    HW261940   8.853   3.886  13.450
20056SOL     OW61941  12.848  13.888  12.847
20056SOL    HW161942  12.877  13.866  12.759
20056SOL    HW261943  12.928  13.910  12.894
20057SOL     OW61944   0.434  14.370   9.090
20057SOL    HW161945   0.510  14.321   9.057
20057SOL    HW261946   0.362  14.307   9.088
20058SOL     OW61947   6.700  10.307  14.114
20058SOL    HW161948   6.625  10.255  14.145
20058SOL    HW261949   6.769  10.243  14.100
20059SOL     OW61950   7.243   3.992   2.451
20059SOL    HW161951   7.223   3.904   2.481
20059SOL    HW261952   7.196   4.050   2.512
20060SOL     OW61953   4.022   9.996   1.012
20060SOL    HW161954   3.987   9.936   1.078
20060SOL    HW261955   3.965   9.985   0.936
20061SOL     OW61956  13.345  13.341  11.791
20061SOL    HW161957  13.301  13.426  11.782
20061SOL    HW261958  13.311  13.306  11.874
20062SOL     OW61959   2.054   8.009   5.311
20062SOL    HW161960   2.041   7.963   5.227
20062SOL    HW261961   2.088   7.941   5.369
20063SOL     OW61962  13.156   2.389  11.028
20063SOL    HW161963  13.247   2.418  11.025
20063SOL    HW261964  13.105   2.469  11.012
20064SOL     OW61965   4.628   5.657  11.393
20064SOL    HW161966   4.539   5.627  11.411
20064SOL    HW261967   4.623   5.699  11.307
20065SOL     OW61968   4.330   4.855   0.439
20065SOL    HW161969   4.275   4.788   0.398
20065SOL    HW261970   4.339   4.826   0.530
20066SOL     OW61971  12.379   8.869  14.182
20066SOL    HW161972  12.475   8.865  14.181
20066SOL    HW261973  12.354   8.852  14.092
20067SOL     OW61974   2.182  11.771   5.296
20067SOL    HW161975   2.178  11.865   5.278
20067SOL    HW261976   2.188  11.730   5.209
20068SOL     OW61977   1.507   5.662   8.399
20068SOL    HW161978   1.421   5.624   8.379
20068SOL    HW261979   1.489   5.729   8.465
20069SOL     OW61980  10.152   4.066  14.718
20069SOL    HW161981  10.177   4.158  14.707
20069SOL    HW261982  10.204   4.018  14.654
20070SOL     OW61983   7.687   1.442   2.958
20070SOL    HW161984   7.772   1.417   2.995
20070SOL    HW261985   7.640   1.359   2.946
20071SOL     OW61986  13.070  13.975   4.226
20071SOL    HW161987  13.041  13.894   4.269
20071SOL    HW261988  12.990  14.010   4.186
20072SOL     OW61989   0.842  14.589   4.125
20072SOL    HW161990   0.778  14.643   4.080
20072SOL    HW261991   0.878  14.532   4.057
20073SOL     OW61992  11.548  10.110   7.375
20073SOL    HW161993  11.599  10.168   7.320
20073SOL    HW261994  11.538  10.030   7.323
20074SOL     OW61995   2.777   9.591  10.699
20074SOL    HW161996   2.784   9.681  10.669
20074SOL    HW261997   2.687   9.584  10.733
20075SOL     OW61998   1.811  13.396   4.913
20075SOL    HW161999   1.731  13.424   4.868
20075SOL    HW262000   1.845  13.325   4.859
20076SOL     OW62001  12.229   0.286  14.510
20076SOL    HW162002  12.192   0.312  14.595
20076SOL    HW262003  12.157   0.242  14.465
20077SOL     OW62004  10.198   7.200   5.105
20077SOL    HW162005  10.161   7.126   5.153
20077SOL    HW262006  10.134   7.270   5.117
20078SOL     OW62007   2.970   5.479  14.819
20078SOL    HW162008   2.952   5.439   0.026
20078SOL    HW262009   3.054   5.524  14.830
20079SOL     OW62010   9.248   5.592  14.439
20079SOL    HW162011   9.197   5.625  14.513
20079SOL    HW262012   9.188   5.597  14.364
20080SOL     OW62013   2.303  11.641   8.751
20080SOL    HW162014   2.339  11.572   8.696
20080SOL    HW262015   2.239  11.597   8.807
20081SOL     OW62016  10.441   8.886   3.778
20081SOL    HW162017  10.502   8.816   3.803
20081SOL    HW262018  10.460   8.902   3.685
20082SOL     OW62019   9.510   1.247  14.041
20082SOL    HW162020   9.580   1.215  14.098
20082SOL    HW262021   9.550   1.249  13.954
20083SOL     OW62022  12.006   1.016   8.616
20083SOL    HW162023  11.998   0.921   8.612
20083SOL    HW262024  12.100   1.032   8.603
20084SOL     OW62025   0.470   3.650   1.857
20084SOL    HW162026   0.485   3.557   1.839
20084SOL    HW262027   0.555   3.682   1.888
20085SOL     OW62028  13.031   1.731  14.196
20085SOL    HW162029  13.075   1.646  14.207
20085SOL    HW262030  13.084   1.792  14.246
20086SOL     OW62031   7.869   4.536   1.397
20086SOL    HW162032   7.849   4.443   1.389
20086SOL    HW262033   7.962   4.539   1.421
20087SOL     OW62034   5.304   2.767  13.904
20087SOL    HW162035   5.332   2.857  13.922
20087SOL    HW262036   5.210   2.774  13.886
20088SOL     OW62037   4.160   2.277   0.233
20088SOL    HW162038   4.231   2.311   0.287
20088SOL    HW262039   4.204   2.223   0.167
20089SOL     OW62040   0.382   4.120  13.698
20089SOL    HW162041   0.333   4.197  13.669
20089SOL    HW262042   0.436   4.096  13.623
20090SOL     OW62043  11.521   0.086   8.824
20090SOL    HW162044  11.461   0.042   8.884
20090SOL    HW262045  11.587   0.126   8.882
20091SOL     OW62046   8.648  14.216  12.339
20091SOL    HW162047   8.678  14.278  12.273
20091SOL    HW262048   8.667  14.130  12.302
20092SOL     OW62049   9.748   6.276  10.112
20092SOL    HW162050   9.668   6.247  10.067
20092SOL    HW262051   9.732   6.369  10.132
20093SOL     OW62052   1.426  10.096   5.145
20093SOL    HW162053   1.476  10.053   5.077
20093SOL    HW262054   1.349  10.133   5.100
20094SOL     OW62055   7.222   2.554  11.158
20094SOL    HW162056   7.165   2.490  11.114
20094SOL    HW262057   7.304   2.508  11.171
20095SOL     OW62058   5.774   1.200   5.808
20095SOL    HW162059   5.762   1.250   5.728
20095SOL    HW262060   5.869   1.188   5.815
20096SOL     OW62061   6.204   0.042   0.022
20096SOL    HW162062   6.143   0.115   0.021
20096SOL    HW262063   6.233   0.034  14.809
20097SOL     OW62064   3.824  13.713   5.817
20097SOL    HW162065   3.831  13.714   5.912
20097SOL    HW262066   3.906  13.751   5.786
20098SOL     OW62067   5.649  14.423  12.661
20098SOL    HW162068   5.553  14.431  12.656
20098SOL    HW262069   5.674  14.477  12.735
20099SOL     OW62070  12.665   8.254   8.391
20099SOL    HW162071  12.583   8.262   8.440
20099SOL    HW262072  12.725   8.211   8.452
20100SOL     OW62073  13.091   2.667   9.870
20100SOL    HW162074  13.083   2.702   9.959
20100SOL    HW262075  13.023   2.599   9.866
20101SOL     OW62076  13.308  13.361  14.260
20101SOL    HW162077  13.254  13.340  14.184
20101SOL    HW262078  13.245  13.374  14.331
20102SOL     OW62079  10.319  13.131  10.896
20102SOL    HW162080  10.386  13.100  10.956
20102SOL    HW262081  10.366  13.186  10.833
20103SOL     OW62082  14.221   2.959  10.159
20103SOL    HW162083  14.237   3.050  10.182
20103SOL    HW262084  14.260   2.909  10.230
20104SOL     OW62085   7.292  13.117  12.042
20104SOL    HW162086   7.238  13.114  12.121
20104SOL    HW262087   7.343  13.036  12.045
20105SOL     OW62088   4.753  14.021   3.517
20105SOL    HW162089   4.716  14.101   3.477
20105SOL    HW262090   4.687  13.994   3.581
20106SOL     OW62091   0.002   5.000   6.288
20106SOL    HW162092  14.852   5.029   6.202
20106SOL    HW262093   0.046   4.916   6.272
20107SOL     OW62094   7.077  12.237   6.860
20107SOL    HW162095   7.090  12.142   6.869
20107SOL    HW262096   7.158  12.276   6.894
20108SOL     OW62097   3.125   0.670   0.746
20108SOL    HW162098   3.068   0.650   0.672
20108SOL    HW262099   3.074   0.730   0.800
20109SOL     OW62100  12.857   8.502   8.106
20109SOL    HW162101  12.937   8.481   8.058
20109SOL    HW262102  12.813   8.568   8.052
20110SOL     OW62103   3.456   3.130   0.293
20110SOL    HW162104   3.503   3.094   0.217
20110SOL    HW262105   3.364   3.112   0.275
20111SOL     OW62106   5.725  13.699   8.096
20111SOL    HW162107   5.770  13.746   8.166
20111SOL    HW262108   5.795  13.677   8.034
20112SOL     OW62109   7.474   7.598   4.781
20112SOL    HW162110   7.546   7.535   4.785
20112SOL    HW262111   7.462   7.616   4.688
20113SOL     OW62112  12.895   0.235   9.935
20113SOL    HW162113  12.918   0.171   9.868
20113SOL    HW262114  12.941   0.205  10.013
20114SOL     OW62115  13.809  12.169  11.016
20114SOL    HW162116  13.905  12.165  11.009
20114SOL    HW262117  13.790  12.132  11.102
20115SOL     OW62118  10.911   3.208   4.861
20115SOL    HW162119  10.975   3.277   4.879
20115SOL    HW262120  10.964   3.129   4.849
20116SOL     OW62121   7.498   8.561  10.218
20116SOL    HW162122   7.577   8.587  10.170
20116SOL    HW262123   7.486   8.629  10.284
20117SOL     OW62124   1.564   0.829   1.937
20117SOL    HW162125   1.641   0.884   1.953
20117SOL    HW262126   1.519   0.871   1.864
20118SOL     OW62127   9.479   8.689  13.971
20118SOL    HW162128   9.529   8.718  13.895
20118SOL    HW262129   9.420   8.761  13.991
20119SOL     OW62130  11.680  10.647  11.169
20119SOL    HW162131  11.723  10.720  11.127
20119SOL    HW262132  11.693  10.573  11.110
20120SOL     OW62133  10.453   3.769  13.968
20120SOL    HW162134  10.389   3.735  13.906
20120SOL    HW262135  10.429   3.861  13.980
20121SOL     OW62136  10.322  12.715   0.585
20121SOL    HW162137  10.412  12.726   0.555
20121SOL    HW262138  10.326  12.727   0.679
20122SOL     OW62139   6.848  12.286   2.847
20122SOL    HW162140   6.881  12.267   2.759
20122SOL    HW262141   6.804  12.205   2.873
20123SOL     OW62142   6.925   2.191   7.561
20123SOL    HW162143   6.926   2.199   7.656
20123SOL    HW262144   7.017   2.194   7.536
20124SOL     OW62145   6.954  10.294   5.641
20124SOL    HW162146   7.045  10.270   5.621
20124SOL    HW262147   6.909  10.289   5.557
20125SOL     OW62148   8.093  11.514  11.013
20125SOL    HW162149   8.162  11.554  11.068
20125SOL    HW262150   8.063  11.586  10.958
20126SOL     OW62151   9.791  12.747   6.902
20126SOL    HW162152   9.716  12.733   6.844
20126SOL    HW262153   9.789  12.672   6.961
20127SOL     OW62154   5.256  10.069  10.439
20127SOL    HW162155   5.339  10.032  10.468
20127SOL    HW262156   5.279  10.124  10.364
20128SOL     OW62157   8.571   1.669   4.900
20128SOL    HW162158   8.483   1.668   4.937
20128SOL    HW262159   8.575   1.593   4.843
20129SOL     OW62160   8.564  14.861   7.721
20129SOL    HW162161   8.494  14.796   7.729
20129SOL    HW262162   8.618  14.847   7.799
20130SOL     OW62163  11.845  12.410   0.030
20130SOL    HW162164  11.926  12.460   0.024
20130SOL    HW262165  11.776  12.473   0.010
20131SOL     OW62166   1.433  13.806   2.541
20131SOL    HW162167   1.379  13.747   2.594
20131SOL    HW262168   1.482  13.747   2.483
20132SOL     OW62169   5.335   7.111   8.650
20132SOL    HW162170   5.375   7.191   8.684
20132SOL    HW262171   5.355   7.112   8.556
20133SOL     OW62172  11.946   5.739   0.128
20133SOL    HW162173  11.942   5.681   0.052
20133SOL    HW262174  11.897   5.694   0.196
20134SOL     OW62175   5.598   6.914  12.015
20134SOL    HW162176   5.551   6.891  12.096
20134SOL    HW262177   5.585   6.838  11.958
20135SOL     OW62178  10.313   5.248   5.440
20135SOL    HW162179  10.229   5.261   5.397
20135SOL    HW262180  10.306   5.163   5.484
20136SOL     OW62181  12.417  11.790   8.979
20136SOL    HW162182  12.409  11.859   8.913
20136SOL    HW262183  12.344  11.731   8.961
20137SOL     OW62184   3.049   9.180  12.534
20137SOL    HW162185   3.081   9.115  12.596
20137SOL    HW262186   3.128   9.216  12.494
20138SOL     OW62187  10.383  10.076  10.095
20138SOL    HW162188  10.344   9.988  10.093
20138SOL    HW262189  10.448  10.074  10.025
20139SOL     OW62190  13.468  12.120   3.692
20139SOL    HW162191  13.379  12.095   3.667
20139SOL    HW262192  13.459  12.209   3.726
20140SOL     OW62193   4.618   4.008   8.727
20140SOL    HW162194   4.566   3.934   8.694
20140SOL    HW262195   4.703   3.997   8.685
20141SOL     OW62196   7.090   4.884   5.860
20141SOL    HW162197   7.077   4.965   5.910
20141SOL    HW262198   7.168   4.902   5.807
20142SOL     OW62199  13.613   2.673   0.247
20142SOL    HW162200  13.699   2.631   0.250
20142SOL    HW262201  13.591   2.677   0.154
20143SOL     OW62202   7.184  13.708   2.830
20143SOL    HW162203   7.152  13.763   2.902
20143SOL    HW262204   7.267  13.747   2.805
20144SOL     OW62205   6.728   8.372  13.562
20144SOL    HW162206   6.705   8.309  13.630
20144SOL    HW262207   6.653   8.432  13.558
20145SOL     OW62208   9.271   1.282   9.184
20145SOL    HW162209   9.201   1.249   9.127
20145SOL    HW262210   9.278   1.375   9.160
20146SOL     OW62211   8.477   0.633  11.678
20146SOL    HW162212   8.506   0.660  11.765
20146SOL    HW262213   8.556   0.638  11.623
20147SOL     OW62214  10.457   1.142   1.839
20147SOL    HW162215  10.496   1.069   1.886
20147SOL    HW262216  10.388   1.174   1.897
20148SOL     OW62217   2.784   9.126   0.139
20148SOL    HW162218   2.793   9.157   0.049
20148SOL    HW262219   2.710   9.066   0.137
20149SOL     OW62220  12.121  10.315   3.987
20149SOL    HW162221  12.039  10.290   3.946
20149SOL    HW262222  12.111  10.293   4.079
20150SOL     OW62223   4.737   3.329   9.297
20150SOL    HW162224   4.651   3.352   9.331
20150SOL    HW262225   4.722   3.313   9.204
20151SOL     OW62226   8.763   8.542   0.319
20151SOL    HW162227   8.757   8.477   0.389
20151SOL    HW262228   8.830   8.604   0.350
20152SOL     OW62229  11.207   7.979  13.190
20152SOL    HW162230  11.155   8.000  13.113
20152SOL    HW262231  11.222   7.884  13.184
20153SOL     OW62232  14.292   2.482   6.472
20153SOL    HW162233  14.356   2.421   6.508
20153SOL    HW262234  14.294   2.557   6.532
20154SOL     OW62235   1.923   8.420   5.044
20154SOL    HW162236   1.834   8.452   5.057
20154SOL    HW262237   1.978   8.479   5.096
20155SOL     OW62238   3.607   4.793   4.350
20155SOL    HW162239   3.605   4.801   4.255
20155SOL    HW262240   3.694   4.824   4.374
20156SOL     OW62241  10.490   3.593   9.398
20156SOL    HW162242  10.584   3.577   9.385
20156SOL    HW262243  10.487   3.671   9.454
20157SOL     OW62244   9.157   8.918  10.749
20157SOL    HW162245   9.127   8.844  10.801
20157SOL    HW262246   9.177   8.881  10.663
20158SOL     OW62247   9.209   1.068  11.259
20158SOL    HW162248   9.172   1.054  11.172
20158SOL    HW262249   9.155   1.136  11.298
20159SOL     OW62250   2.366  10.211  13.284
20159SOL    HW162251   2.363  10.181  13.193
20159SOL    HW262252   2.357  10.306  13.279
20160SOL     OW62253   4.944   0.463  12.599
20160SOL    HW162254   4.971   0.457  12.691
20160SOL    HW262255   4.925   0.372  12.574
20161SOL     OW62256  14.034  10.893   2.834
20161SOL    HW162257  14.080  10.928   2.910
20161SOL    HW262258  14.061  10.801   2.829
20162SOL     OW62259  12.565   0.334   6.184
20162SOL    HW162260  12.534   0.372   6.102
20162SOL    HW262261  12.607   0.407   6.230
20163SOL     OW62262   4.767   5.794  12.229
20163SOL    HW162263   4.822   5.715  12.232
20163SOL    HW262264   4.812   5.851  12.166
20164SOL     OW62265   5.066  10.096   2.042
20164SOL    HW162266   5.010  10.138   1.976
20164SOL    HW262267   5.093  10.168   2.099
20165SOL     OW62268   4.124   5.097   0.647
20165SOL    HW162269   4.220   5.087   0.647
20165SOL    HW262270   4.094   5.034   0.712
20166SOL     OW62271   8.795   9.101   8.063
20166SOL    HW162272   8.803   9.024   8.119
20166SOL    HW262273   8.751   9.166   8.117
20167SOL     OW62274   8.804   9.934   6.605
20167SOL    HW162275   8.764   9.945   6.691
20167SOL    HW262276   8.872   9.868   6.618
20168SOL     OW62277   0.772  13.009   6.446
20168SOL    HW162278   0.685  13.005   6.485
20168SOL    HW262279   0.796  12.917   6.432
20169SOL     OW62280   4.596  12.029  14.572
20169SOL    HW162281   4.585  12.121  14.548
20169SOL    HW262282   4.606  11.983  14.489
20170SOL     OW62283   3.628   3.333   5.215
20170SOL    HW162284   3.557   3.357   5.275
20170SOL    HW262285   3.689   3.283   5.270
20171SOL     OW62286  10.762  13.705   4.265
20171SOL    HW162287  10.847  13.690   4.306
20171SOL    HW262288  10.725  13.779   4.313
20172SOL     OW62289   0.164   5.781   6.201
20172SOL    HW162290   0.071   5.792   6.223
20172SOL    HW262291   0.190   5.702   6.247
20173SOL     OW62292   1.088   6.804   6.684
20173SOL    HW162293   1.179   6.833   6.674
20173SOL    HW262294   1.095   6.709   6.696
20174SOL     OW62295   6.002   5.544   9.800
20174SOL    HW162296   5.971   5.469   9.750
20174SOL    HW262297   5.926   5.571   9.852
20175SOL     OW62298   7.167  12.650   7.344
20175SOL    HW162299   7.219  12.629   7.267
20175SOL    HW262300   7.228  12.643   7.417
20176SOL     OW62301   2.165  11.368   9.135
20176SOL    HW162302   2.104  11.346   9.064
20176SOL    HW262303   2.185  11.283   9.176
20177SOL     OW62304   0.619  13.123   2.824
20177SOL    HW162305   0.620  13.178   2.746
20177SOL    HW262306   0.704  13.080   2.824
20178SOL     OW62307   7.354   6.031  12.682
20178SOL    HW162308   7.283   6.096  12.677
20178SOL    HW262309   7.429   6.075  12.643
20179SOL     OW62310   3.661   5.233   3.780
20179SOL    HW162311   3.634   5.210   3.869
20179SOL    HW262312   3.644   5.154   3.729
20180SOL     OW62313   5.954   7.910  13.148
20180SOL    HW162314   5.910   7.847  13.090
20180SOL    HW262315   5.985   7.979  13.090
20181SOL     OW62316  11.560   4.904   4.778
20181SOL    HW162317  11.507   4.983   4.772
20181SOL    HW262318  11.506   4.843   4.829
20182SOL     OW62319   2.357   2.830   4.340
20182SOL    HW162320   2.291   2.788   4.395
20182SOL    HW262321   2.331   2.810   4.250
20183SOL     OW62322  14.029   4.204   2.816
20183SOL    HW162323  14.121   4.195   2.793
20183SOL    HW262324  13.993   4.263   2.749
20184SOL     OW62325   4.168   7.806  11.052
20184SOL    HW162326   4.133   7.889  11.085
20184SOL    HW262327   4.096   7.768  11.004
20185SOL     OW62328   3.182   9.388   8.441
20185SOL    HW162329   3.200   9.468   8.390
20185SOL    HW262330   3.199   9.413   8.532
20186SOL     OW62331   4.846   9.881   2.356
20186SOL    HW162332   4.923   9.829   2.335
20186SOL    HW262333   4.855   9.903   2.449
20187SOL     OW62334   6.700   1.226   9.899
20187SOL    HW162335   6.672   1.235   9.990
20187SOL    HW262336   6.749   1.306   9.881
20188SOL     OW62337   4.200  14.642  11.328
20188SOL    HW162338   4.216  14.619  11.420
20188SOL    HW262339   4.211  14.560  11.281
20189SOL     OW62340   5.347  12.923   4.845
20189SOL    HW162341   5.425  12.949   4.894
20189SOL    HW262342   5.344  12.983   4.771
20190SOL     OW62343   6.204   2.881   0.145
20190SOL    HW162344   6.200   2.889   0.050
20190SOL    HW262345   6.215   2.787   0.160
20191SOL     OW62346   5.059  12.145   9.415
20191SOL    HW162347   5.023  12.095   9.489
20191SOL    HW262348   4.983  12.164   9.360
20192SOL     OW62349  12.205   3.644   1.414
20192SOL    HW162350  12.136   3.700   1.378
20192SOL    HW262351  12.237   3.693   1.490
20193SOL     OW62352   0.586   5.689   3.383
20193SOL    HW162353   0.664   5.642   3.352
20193SOL    HW262354   0.604   5.781   3.365
20194SOL     OW62355   9.999   4.494   0.353
20194SOL    HW162356  10.067   4.560   0.340
20194SOL    HW262357   9.975   4.502   0.446
20195SOL     OW62358  12.787   8.003   1.909
20195SOL    HW162359  12.711   7.998   1.851
20195SOL    HW262360  12.860   7.970   1.856
20196SOL     OW62361   5.753   6.654   7.480
20196SOL    HW162362   5.773   6.723   7.417
20196SOL    HW262363   5.839   6.621   7.507
20197SOL     OW62364   3.458   5.927   0.883
20197SOL    HW162365   3.507   5.930   0.966
20197SOL    HW262366   3.389   5.993   0.894
20198SOL     OW62367  12.684   8.867   2.174
20198SOL    HW162368  12.683   8.794   2.112
20198SOL    HW262369  12.664   8.827   2.259
20199SOL     OW62370  13.305   6.156   3.970
20199SOL    HW162371  13.274   6.067   3.986
20199SOL    HW262372  13.379   6.167   4.031
20200SOL     OW62373  13.153   8.481   8.572
20200SOL    HW162374  13.089   8.553   8.574
20200SOL    HW262375  13.115   8.416   8.514
20201SOL     OW62376  12.488   3.761  10.157
20201SOL    HW162377  12.532   3.691  10.109
20201SOL    HW262378  12.531   3.762  10.243
20202SOL     OW62379   7.236  13.603  13.818
20202SOL    HW162380   7.328  13.579  13.811
20202SOL    HW262381   7.189  13.534  13.772
20203SOL     OW62382  14.679   2.515  14.103
20203SOL    HW162383  14.735   2.591  14.121
20203SOL    HW262384  14.610   2.520  14.170
20204SOL     OW62385   3.948   8.804   5.982
20204SOL    HW162386   3.977   8.784   6.071
20204SOL    HW262387   3.925   8.720   5.945
20205SOL     OW62388  11.830   7.031  13.082
20205SOL    HW162389  11.822   7.038  13.177
20205SOL    HW262390  11.922   7.051  13.064
20206SOL     OW62391   1.487   6.084  12.934
20206SOL    HW162392   1.461   5.996  12.959
20206SOL    HW262393   1.539   6.116  13.008
20207SOL     OW62394  10.375   1.911  11.439
20207SOL    HW162395  10.286   1.881  11.419
20207SOL    HW262396  10.399   1.863  11.519
20208SOL     OW62397   0.244   2.746  12.043
20208SOL    HW162398   0.188   2.750  12.120
20208SOL    HW262399   0.297   2.667  12.055
20209SOL     OW62400   1.960  12.100   3.504
20209SOL    HW162401   2.036  12.078   3.557
20209SOL    HW262402   1.960  12.196   3.501
20210SOL     OW62403   9.160  11.570   3.613
20210SOL    HW162404   9.209  11.565   3.530
20210SOL    HW262405   9.115  11.654   3.608
20211SOL     OW62406  10.846  14.475   1.393
20211SOL    HW162407  10.841  14.450   1.301
20211SOL    HW262408  10.779  14.423   1.437
20212SOL     OW62409   5.998  11.452   8.119
20212SOL    HW162410   5.993  11.510   8.195
20212SOL    HW262411   5.965  11.505   8.046
20213SOL     OW62412   4.553  12.949   9.180
20213SOL    HW162413   4.527  12.966   9.271
20213SOL    HW262414   4.643  12.917   9.186
20214SOL     OW62415   4.103   1.553   6.526
20214SOL    HW162416   4.047   1.481   6.557
20214SOL    HW262417   4.144   1.587   6.606
20215SOL     OW62418  14.799  14.382   2.843
20215SOL    HW162419  14.794  14.386   2.938
20215SOL    HW262420  14.795  14.289   2.822
20216SOL     OW62421  10.925   3.838   0.038
20216SOL    HW162422  10.880   3.796   0.112
20216SOL    HW262423  10.855   3.860  14.854
20217SOL     OW62424   8.032   0.022   6.225
20217SOL    HW162425   7.964  14.833   6.221
20217SOL    HW262426   8.030   0.064   6.139
20218SOL     OW62427   7.617  13.685   0.585
20218SOL    HW162428   7.668  13.695   0.505
20218SOL    HW262429   7.536  13.642   0.557
20219SOL     OW62430  11.024   3.372  11.532
20219SOL    HW162431  11.043   3.310  11.462
20219SOL    HW262432  11.103   3.425  11.540
20220SOL     OW62433   1.311   4.794  14.222
20220SOL    HW162434   1.318   4.703  14.250
20220SOL    HW262435   1.271   4.790  14.135
20221SOL     OW62436   2.110  12.693   6.139
20221SOL    HW162437   2.030  12.695   6.191
20221SOL    HW262438   2.087  12.642   6.061
20222SOL     OW62439   9.282   5.296   6.129
20222SOL    HW162440   9.290   5.361   6.059
20222SOL    HW262441   9.358   5.240   6.117
20223SOL     OW62442   1.470   5.528   8.731
20223SOL    HW162443   1.485   5.458   8.795
20223SOL    HW262444   1.375   5.539   8.729
20224SOL     OW62445   2.568  13.752   2.730
20224SOL    HW162446   2.577  13.790   2.642
20224SOL    HW262447   2.656  13.719   2.750
20225SOL     OW62448   8.767   0.755   0.241
20225SOL    HW162449   8.755   0.709   0.158
20225SOL    HW262450   8.840   0.815   0.225
20226SOL     OW62451   2.648   1.876   8.137
20226SOL    HW162452   2.694   1.936   8.197
20226SOL    HW262453   2.589   1.826   8.193
20227SOL     OW62454   2.561  11.857   3.832
20227SOL    HW162455   2.577  11.807   3.752
20227SOL    HW262456   2.580  11.795   3.903
20228SOL     OW62457  13.877   1.004   3.223
20228SOL    HW162458  13.889   1.095   3.252
20228SOL    HW262459  13.782   0.992   3.224
20229SOL     OW62460   5.109   6.908   0.316
20229SOL    HW162461   5.035   6.859   0.351
20229SOL    HW262462   5.144   6.852   0.246
20230SOL     OW62463   7.986   1.004   4.070
20230SOL    HW162464   8.043   0.991   4.145
20230SOL    HW262465   7.946   1.090   4.084
20231SOL     OW62466  10.589   2.073   9.295
20231SOL    HW162467  10.497   2.096   9.288
20231SOL    HW262468  10.631   2.151   9.332
20232SOL     OW62469   9.331   8.979   9.124
20232SOL    HW162470   9.240   8.953   9.136
20232SOL    HW262471   9.341   8.991   9.029
20233SOL     OW62472  11.199  12.206   4.662
20233SOL    HW162473  11.200  12.201   4.758
20233SOL    HW262474  11.289  12.187   4.636
20234SOL     OW62475  10.448   8.958   8.006
20234SOL    HW162476  10.384   8.961   7.934
20234SOL    HW262477  10.533   8.964   7.962
20235SOL     OW62478  12.560   1.240  10.251
20235SOL    HW162479  12.501   1.177  10.291
20235SOL    HW262480  12.512   1.273  10.175
20236SOL     OW62481   3.265   5.960   5.084
20236SOL    HW162482   3.178   5.980   5.119
20236SOL    HW262483   3.307   5.908   5.153
20237SOL     OW62484   5.003  14.026  10.645
20237SOL    HW162485   5.071  13.975  10.601
20237SOL    HW262486   5.018  14.010  10.739
20238SOL     OW62487   9.619  11.438   8.329
20238SOL    HW162488   9.563  11.505   8.290
20238SOL    HW262489   9.669  11.403   8.255
20239SOL     OW62490   7.866   5.043  11.598
20239SOL    HW162491   7.841   5.102  11.669
20239SOL    HW262492   7.882   4.959  11.640
20240SOL     OW62493   1.194   0.622  14.291
20240SOL    HW162494   1.114   0.569  14.293
20240SOL    HW262495   1.225   0.622  14.382
20241SOL     OW62496   9.199   9.132   3.789
20241SOL    HW162497   9.258   9.098   3.857
20241SOL    HW262498   9.200   9.064   3.722
20242SOL     OW62499   8.184  13.801  13.305
20242SOL    HW162500   8.149  13.738  13.367
20242SOL    HW262501   8.278  13.804  13.323
20243SOL     OW62502   7.021  12.359  12.923
20243SOL    HW162503   7.015  12.408  12.841
20243SOL    HW262504   7.081  12.411  12.977
20244SOL     OW62505  14.328   8.872   1.759
20244SOL    HW162506  14.247   8.902   1.718
20244SOL    HW262507  14.318   8.777   1.767
20245SOL     OW62508  11.937  12.472   5.537
20245SOL    HW162509  11.900  12.559   5.524
20245SOL    HW262510  12.024  12.477   5.497
20246SOL     OW62511   0.637   9.233  13.137
20246SOL    HW162512   0.649   9.158  13.195
20246SOL    HW262513   0.544   9.255  13.145
20247SOL     OW62514  13.557  12.266  10.223
20247SOL    HW162515  13.611  12.235  10.296
20247SOL    HW262516  13.619  12.299  10.159
20248SOL     OW62517   4.098   2.830   3.760
20248SOL    HW162518   4.168   2.790   3.812
20248SOL    HW262519   4.136   2.911   3.726
20249SOL     OW62520   3.314   4.849   0.333
20249SOL    HW162521   3.234   4.884   0.372
20249SOL    HW262522   3.356   4.925   0.292
20250SOL     OW62523  11.824   6.365   8.993
20250SOL    HW162524  11.769   6.287   8.991
20250SOL    HW262525  11.774   6.428   9.044
20251SOL     OW62526   9.797  14.226  14.081
20251SOL    HW162527   9.790  14.135  14.113
20251SOL    HW262528   9.744  14.228  14.002
20252SOL     OW62529  14.048  10.320   7.961
20252SOL    HW162530  14.068  10.298   8.052
20252SOL    HW262531  14.087  10.407   7.949
20253SOL     OW62532   2.485  13.780  13.369
20253SOL    HW162533   2.425  13.706  13.358
20253SOL    HW262534   2.446  13.833  13.438
20254SOL     OW62535   9.459  13.872   0.368
20254SOL    HW162536   9.379  13.825   0.386
20254SOL    HW262537   9.455  13.950   0.423
20255SOL     OW62538   0.147  12.637   0.274
20255SOL    HW162539   0.173  12.606   0.187
20255SOL    HW262540   0.204  12.712   0.291
20256SOL     OW62541   8.342  10.273   6.249
20256SOL    HW162542   8.294  10.321   6.317
20256SOL    HW262543   8.331  10.181   6.272
20257SOL     OW62544  14.350  10.339  13.313
20257SOL    HW162545  14.386  10.283  13.382
20257SOL    HW262546  14.321  10.418  13.358
20258SOL     OW62547   9.018  12.961   6.896
20258SOL    HW162548   8.954  12.940   6.828
20258SOL    HW262549   8.974  12.941   6.978
20259SOL     OW62550  10.671   7.961   3.688
20259SOL    HW162551  10.732   8.013   3.636
20259SOL    HW262552  10.644   7.890   3.629
20260SOL     OW62553  12.635   0.848   1.003
20260SOL    HW162554  12.608   0.810   1.087
20260SOL    HW262555  12.691   0.922   1.027
20261SOL     OW62556   5.053   7.653   8.638
20261SOL    HW162557   5.014   7.698   8.564
20261SOL    HW262558   5.073   7.723   8.701
20262SOL     OW62559   2.861   7.512  11.827
20262SOL    HW162560   2.804   7.560  11.767
20262SOL    HW262561   2.911   7.581  11.872
20263SOL     OW62562  11.795   4.946  12.908
20263SOL    HW162563  11.748   4.942  12.824
20263SOL    HW262564  11.887   4.945  12.883
20264SOL     OW62565   6.041   1.596   0.534
20264SOL    HW162566   5.996   1.530   0.481
20264SOL    HW262567   6.109   1.631   0.476
20265SOL     OW62568  11.362  11.913  13.972
20265SOL    HW162569  11.268  11.907  13.953
20265SOL    HW262570  11.388  11.823  13.992
20266SOL     OW62571  11.469  13.684   2.548
20266SOL    HW162572  11.541  13.739   2.578
20266SOL    HW262573  11.495  13.595   2.573
20267SOL     OW62574   9.216  13.006   3.876
20267SOL    HW162575   9.161  13.077   3.842
20267SOL    HW262576   9.155  12.937   3.899
20268SOL     OW62577  13.747   0.436   6.144
20268SOL    HW162578  13.712   0.353   6.114
20268SOL    HW262579  13.740   0.432   6.239
20269SOL     OW62580   7.363   0.719  10.608
20269SOL    HW162581   7.296   0.712  10.540
20269SOL    HW262582   7.429   0.777  10.571
20270SOL     OW62583   2.309  14.002   2.625
20270SOL    HW162584   2.239  14.045   2.576
20270SOL    HW262585   2.363  13.959   2.558
20271SOL     OW62586   3.702  14.256   8.044
20271SOL    HW162587   3.796  14.259   8.024
20271SOL    HW262588   3.687  14.166   8.074
20272SOL     OW62589   2.701  13.164   6.284
20272SOL    HW162590   2.784  13.139   6.326
20272SOL    HW262591   2.634  13.129   6.343
20273SOL     OW62592  11.886   7.654   3.575
20273SOL    HW162593  11.930   7.593   3.515
20273SOL    HW262594  11.842   7.597   3.638
20274SOL     OW62595   6.869   1.227   5.524
20274SOL    HW162596   6.779   1.250   5.548
20274SOL    HW262597   6.883   1.141   5.565
20275SOL     OW62598   4.570  14.447   8.972
20275SOL    HW162599   4.496  14.437   8.912
20275SOL    HW262600   4.563  14.371   9.031
20276SOL     OW62601  14.579   0.901   0.370
20276SOL    HW162602  14.567   0.880   0.463
20276SOL    HW262603  14.493   0.933   0.342
20277SOL     OW62604   3.720   9.238   3.649
20277SOL    HW162605   3.743   9.191   3.569
20277SOL    HW262606   3.715   9.330   3.622
20278SOL     OW62607   9.103  11.263   4.222
20278SOL    HW162608   9.080  11.254   4.129
20278SOL    HW262609   9.168  11.334   4.224
20279SOL     OW62610  13.437   4.859  14.528
20279SOL    HW162611  13.448   4.837  14.621
20279SOL    HW262612  13.355   4.909  14.525
20280SOL     OW62613   9.919   9.487   6.830
20280SOL    HW162614   9.993   9.427   6.847
20280SOL    HW262615   9.846   9.429   6.809
20281SOL     OW62616  14.539  13.521   0.992
20281SOL    HW162617  14.604  13.579   0.952
20281SOL    HW262618  14.584  13.480   1.065
20282SOL     OW62619  11.249   2.035  13.618
20282SOL    HW162620  11.281   1.954  13.657
20282SOL    HW262621  11.326   2.074  13.576
20283SOL     OW62622   0.318   1.995   0.840
20283SOL    HW162623   0.413   2.000   0.841
20283SOL    HW262624   0.292   2.014   0.931
20284SOL     OW62625   9.268   0.750   0.576
20284SOL    HW162626   9.243   0.696   0.651
20284SOL    HW262627   9.360   0.729   0.561
20285SOL     OW62628   1.804   3.864   3.087
20285SOL    HW162629   1.759   3.809   3.022
20285SOL    HW262630   1.734   3.914   3.128
20286SOL     OW62631   0.581   8.526   9.715
20286SOL    HW162632   0.572   8.595   9.649
20286SOL    HW262633   0.661   8.480   9.691
20287SOL     OW62634   2.894  11.469  12.416
20287SOL    HW162635   2.934  11.551  12.387
20287SOL    HW262636   2.914  11.465  12.510
20288SOL     OW62637   3.587  13.324   4.809
20288SOL    HW162638   3.572  13.416   4.788
20288SOL    HW262639   3.501  13.282   4.799
20289SOL     OW62640  12.306   4.397   3.218
20289SOL    HW162641  12.233   4.453   3.190
20289SOL    HW262642  12.320   4.421   3.309
20290SOL     OW62643   6.557   7.556  14.093
20290SOL    HW162644   6.470   7.587  14.119
20290SOL    HW262645   6.613   7.634  14.102
20291SOL     OW62646  14.503   7.032   0.362
20291SOL    HW162647  14.580   7.010   0.310
20291SOL    HW262648  14.539   7.069   0.443
20292SOL     OW62649  11.782  10.376   9.117
20292SOL    HW162650  11.768  10.282   9.108
20292SOL    HW262651  11.763  10.394   9.209
20293SOL     OW62652  10.287   0.716   2.949
20293SOL    HW162653  10.380   0.714   2.929
20293SOL    HW262654  10.267   0.629   2.982
20294SOL     OW62655  10.387  11.072  10.972
20294SOL    HW162656  10.303  11.043  10.935
20294SOL    HW262657  10.399  11.161  10.938
20295SOL     OW62658   4.332   7.724   4.483
20295SOL    HW162659   4.336   7.820   4.486
20295SOL    HW262660   4.258   7.702   4.539
20296SOL     OW62661  11.111   7.861   9.043
20296SOL    HW162662  11.092   7.927   8.976
20296SOL    HW262663  11.206   7.866   9.055
20297SOL     OW62664   7.075  13.474  12.770
20297SOL    HW162665   7.022  13.420  12.828
20297SOL    HW262666   7.026  13.556  12.763
20298SOL     OW62667   1.576  12.391   4.868
20298SOL    HW162668   1.620  12.306   4.869
20298SOL    HW262669   1.528  12.392   4.785
20299SOL     OW62670   9.300   9.357  10.687
20299SOL    HW162671   9.385   9.362  10.642
20299SOL    HW262672   9.319   9.389  10.775
20300SOL     OW62673  12.564  11.300  10.853
20300SOL    HW162674  12.527  11.218  10.821
20300SOL    HW262675  12.657  11.282  10.864
20301SOL     OW62676  12.247  11.914   3.847
20301SOL    HW162677  12.196  11.835   3.829
20301SOL    HW262678  12.187  11.986   3.829
20302SOL     OW62679   9.142   7.519   7.995
20302SOL    HW162680   9.089   7.594   8.021
20302SOL    HW262681   9.094   7.443   8.029
20303SOL     OW62682   5.562   4.728  11.635
20303SOL    HW162683   5.549   4.683  11.719
20303SOL    HW262684   5.657   4.737  11.627
20304SOL     OW62685   8.222  10.791   5.813
20304SOL    HW162686   8.217  10.756   5.902
20304SOL    HW262687   8.268  10.874   5.822
20305SOL     OW62688   0.512   3.597   7.413
20305SOL    HW162689   0.476   3.560   7.333
20305SOL    HW262690   0.564   3.672   7.384
20306SOL     OW62691  14.722  10.397   9.229
20306SOL    HW162692  14.778  10.319   9.230
20306SOL    HW262693  14.783  10.470   9.226
20307SOL     OW62694   0.725  13.874   6.743
20307SOL    HW162695   0.766  13.931   6.678
20307SOL    HW262696   0.791  13.807   6.760
20308SOL     OW62697   0.220   3.527  10.570
20308SOL    HW162698   0.231   3.543  10.663
20308SOL    HW262699   0.300   3.481  10.543
20309SOL     OW62700   3.086   0.946  14.360
20309SOL    HW162701   3.066   0.874  14.300
20309SOL    HW262702   3.180   0.938  14.377
20310SOL     OW62703  12.024   4.153   2.056
20310SOL    HW162704  12.113   4.182   2.072
20310SOL    HW262705  11.969   4.223   2.091
20311SOL     OW62706  12.548   2.044   9.446
20311SOL    HW162707  12.492   2.108   9.490
20311SOL    HW262708  12.517   1.959   9.477
20312SOL     OW62709  13.173   9.657  12.883
20312SOL    HW162710  13.147   9.748  12.867
20312SOL    HW262711  13.116   9.605  12.827
20313SOL     OW62712   2.024  14.748  13.118
20313SOL    HW162713   1.938  14.767  13.080
20313SOL    HW262714   2.046  14.827  13.168
20314SOL     OW62715  14.001   0.767   6.400
20314SOL    HW162716  13.912   0.801   6.396
20314SOL    HW262717  14.030   0.764   6.309
20315SOL     OW62718   7.035   8.819   5.756
20315SOL    HW162719   6.966   8.863   5.707
20315SOL    HW262720   7.020   8.725   5.740
20316SOL     OW62721   5.978   1.078   6.060
20316SOL    HW162722   5.957   1.057   5.969
20316SOL    HW262723   5.958   0.998   6.109
20317SOL     OW62724  11.176   2.145   9.852
20317SOL    HW162725  11.085   2.171   9.863
20317SOL    HW262726  11.180   2.106   9.764
20318SOL     OW62727   9.377  13.961   1.808
20318SOL    HW162728   9.447  14.023   1.786
20318SOL    HW262729   9.365  13.971   1.902
20319SOL     OW62730  12.423  12.549   6.945
20319SOL    HW162731  12.459  12.600   6.872
20319SOL    HW262732  12.499  12.530   7.000
20320SOL     OW62733   8.227   4.553   5.767
20320SOL    HW162734   8.164   4.484   5.745
20320SOL    HW262735   8.301   4.538   5.708
20321SOL     OW62736  14.037   2.737  14.138
20321SOL    HW162737  14.129   2.764  14.139
20321SOL    HW262738  14.030   2.677  14.213
20322SOL     OW62739  12.329   0.429   7.144
20322SOL    HW162740  12.289   0.361   7.199
20322SOL    HW262741  12.382   0.379   7.081
20323SOL     OW62742  14.243   0.236  14.170
20323SOL    HW162743  14.182   0.162  14.172
20323SOL    HW262744  14.198   0.306  14.218
20324SOL     OW62745   4.747   0.775  14.097
20324SOL    HW162746   4.652   0.771  14.083
20324SOL    HW262747   4.759   0.841  14.164
20325SOL     OW62748   1.007  10.603   9.702
20325SOL    HW162749   0.917  10.631   9.717
20325SOL    HW262750   1.058  10.684   9.700
20326SOL     OW62751   6.903  11.575   4.189
20326SOL    HW162752   6.892  11.635   4.262
20326SOL    HW262753   6.920  11.631   4.114
20327SOL     OW62754   2.633   5.610   1.854
20327SOL    HW162755   2.641   5.548   1.927
20327SOL    HW262756   2.560   5.667   1.879
20328SOL     OW62757   8.707   8.946   0.644
20328SOL    HW162758   8.684   8.857   0.616
20328SOL    HW262759   8.646   8.966   0.715
20329SOL     OW62760   2.053   6.576   0.536
20329SOL    HW162761   1.977   6.534   0.494
20329SOL    HW262762   2.086   6.510   0.597
20330SOL     OW62763   5.870  12.463   7.441
20330SOL    HW162764   5.942  12.511   7.399
20330SOL    HW262765   5.855  12.388   7.384
20331SOL     OW62766   7.586   3.639  11.766
20331SOL    HW162767   7.669   3.678  11.791
20331SOL    HW262768   7.526   3.661  11.838
20332SOL     OW62769   1.345  10.018  12.571
20332SOL    HW162770   1.277  10.083  12.591
20332SOL    HW262771   1.350  10.019  12.475
20333SOL     OW62772  13.293   7.165   6.989
20333SOL    HW162773  13.264   7.075   7.005
20333SOL    HW262774  13.269   7.183   6.898
20334SOL     OW62775   2.050   8.264   6.909
20334SOL    HW162776   2.117   8.197   6.924
20334SOL    HW262777   2.060   8.288   6.817
20335SOL     OW62778   5.555  14.217   9.455
20335SOL    HW162779   5.522  14.306   9.441
20335SOL    HW262780   5.586  14.217   9.546
20336SOL     OW62781   6.161   0.950   2.058
20336SOL    HW162782   6.205   0.920   1.978
20336SOL    HW262783   6.072   0.915   2.050
20337SOL     OW62784   4.359   0.192  13.482
20337SOL    HW162785   4.339   0.108  13.442
20337SOL    HW262786   4.455   0.195  13.485
20338SOL     OW62787  14.463   3.099   2.633
20338SOL    HW162788  14.414   3.032   2.585
20338SOL    HW262789  14.551   3.097   2.594
20339SOL     OW62790   1.072   3.070   3.282
20339SOL    HW162791   1.018   3.019   3.344
20339SOL    HW262792   1.035   3.158   3.286
20340SOL     OW62793   3.100   8.268   6.501
20340SOL    HW162794   3.137   8.188   6.540
20340SOL    HW262795   3.156   8.339   6.533
20341SOL     OW62796   3.613   0.718   0.853
20341SOL    HW162797   3.655   0.794   0.813
20341SOL    HW262798   3.678   0.685   0.916
20342SOL     OW62799  13.459   9.488  10.900
20342SOL    HW162800  13.515   9.463  10.974
20342SOL    HW262801  13.406   9.561  10.934
20343SOL     OW62802   7.870   3.691  14.479
20343SOL    HW162803   7.870   3.771  14.426
20343SOL    HW262804   7.912   3.625  14.424
20344SOL     OW62805   8.513  10.689  14.759
20344SOL    HW162806   8.544  10.614  14.810
20344SOL    HW262807   8.439  10.654  14.708
20345SOL     OW62808   5.085   1.335  12.701
20345SOL    HW162809   5.009   1.371  12.654
20345SOL    HW262810   5.069   1.240  12.701
20346SOL     OW62811   1.785   0.012  13.053
20346SOL    HW162812   1.842   0.082  13.021
20346SOL    HW262813   1.766   0.037  13.143
20347SOL     OW62814   7.145   1.821   5.705
20347SOL    HW162815   7.240   1.834   5.709
20347SOL    HW262816   7.128   1.786   5.618
20348SOL     OW62817  12.124   2.880   2.897
20348SOL    HW162818  12.127   2.973   2.920
20348SOL    HW262819  12.107   2.835   2.979
20349SOL     OW62820   9.356   7.652  10.691
20349SOL    HW162821   9.399   7.713  10.630
20349SOL    HW262822   9.343   7.572  10.639
20350SOL     OW62823   7.963   3.657   9.428
20350SOL    HW162824   7.907   3.610   9.489
20350SOL    HW262825   8.051   3.621   9.442
20351SOL     OW62826   9.692   3.669   0.952
20351SOL    HW162827   9.681   3.654   0.858
20351SOL    HW262828   9.714   3.582   0.987
20352SOL     OW62829   5.685   3.028   0.853
20352SOL    HW162830   5.692   2.938   0.886
20352SOL    HW262831   5.694   3.019   0.758
20353SOL     OW62832  10.185   8.499   2.679
20353SOL    HW162833  10.105   8.548   2.697
20353SOL    HW262834  10.213   8.466   2.765
20354SOL     OW62835  13.949  13.899  13.511
20354SOL    HW162836  13.918  13.837  13.445
20354SOL    HW262837  14.035  13.865  13.536
20355SOL     OW62838   5.928  14.437  10.061
20355SOL    HW162839   5.921  14.371   9.991
20355SOL    HW262840   5.848  14.427  10.112
20356SOL     OW62841   4.958   5.675   4.931
20356SOL    HW162842   4.973   5.606   4.996
20356SOL    HW262843   4.867   5.662   4.903
20357SOL     OW62844   5.840   7.022   4.307
20357SOL    HW162845   5.877   7.027   4.218
20357SOL    HW262846   5.843   7.112   4.339
20358SOL     OW62847   8.204   1.892  11.461
20358SOL    HW162848   8.154   1.878  11.542
20358SOL    HW262849   8.293   1.912  11.492
20359SOL     OW62850   2.129   6.760   6.718
20359SOL    HW162851   2.107   6.841   6.672
20359SOL    HW262852   2.068   6.695   6.683
20360SOL     OW62853   3.647  12.420   6.970
20360SOL    HW162854   3.729  12.404   6.923
20360SOL    HW262855   3.668  12.397   7.061
20361SOL     OW62856  10.293   4.471   5.827
20361SOL    HW162857  10.319   4.509   5.911
20361SOL    HW262858  10.277   4.546   5.770
20362SOL     OW62859   9.750   4.362   3.997
20362SOL    HW162860   9.808   4.403   4.061
20362SOL    HW262861   9.722   4.434   3.940
20363SOL     OW62862   4.060  12.988  10.868
20363SOL    HW162863   4.132  13.048  10.887
20363SOL    HW262864   3.984  13.026  10.911
20364SOL     OW62865   6.031   7.398   7.645
20364SOL    HW162866   5.955   7.376   7.592
20364SOL    HW262867   6.096   7.331   7.623
20365SOL     OW62868   3.064   8.670  10.092
20365SOL    HW162869   3.138   8.700  10.144
20365SOL    HW262870   3.098   8.595  10.043
20366SOL     OW62871  14.818   6.005  14.658
20366SOL    HW162872  14.820   6.058  14.737
20366SOL    HW262873  14.865   6.057  14.593
20367SOL     OW62874   4.268   0.494  11.220
20367SOL    HW162875   4.192   0.490  11.161
20367SOL    HW262876   4.244   0.440  11.295
20368SOL     OW62877   8.429   9.336   1.398
20368SOL    HW162878   8.398   9.418   1.436
20368SOL    HW262879   8.522   9.351   1.381
20369SOL     OW62880   7.914   7.089  13.552
20369SOL    HW162881   7.847   7.147  13.589
20369SOL    HW262882   7.996   7.123  13.586
20370SOL     OW62883  11.280   3.925  10.284
20370SOL    HW162884  11.302   4.001  10.231
20370SOL    HW262885  11.341   3.857  10.255
20371SOL     OW62886   1.120   1.856  14.826
20371SOL    HW162887   1.199   1.810  14.854
20371SOL    HW262888   1.149   1.946  14.813
20372SOL     OW62889  14.003   9.434   2.583
20372SOL    HW162890  13.938   9.388   2.529
20372SOL    HW262891  13.962   9.442   2.669
20373SOL     OW62892  10.567  10.454   3.029
20373SOL    HW162893  10.508  10.527   3.008
20373SOL    HW262894  10.582  10.411   2.945
20374SOL     OW62895   7.835   5.980   8.703
20374SOL    HW162896   7.882   5.904   8.668
20374SOL    HW262897   7.802   6.025   8.625
20375SOL     OW62898   3.635   3.451  13.169
20375SOL    HW162899   3.598   3.477  13.254
20375SOL    HW262900   3.722   3.418  13.191
20376SOL     OW62901  10.691   0.986   8.962
20376SOL    HW162902  10.744   1.001   9.040
20376SOL    HW262903  10.620   0.929   8.991
20377SOL     OW62904   5.423   6.586   7.379
20377SOL    HW162905   5.468   6.631   7.450
20377SOL    HW262906   5.478   6.601   7.302
20378SOL     OW62907   6.360   7.291  12.082
20378SOL    HW162908   6.331   7.364  12.137
20378SOL    HW262909   6.279   7.251  12.051
20379SOL     OW62910  14.042  12.327   6.587
20379SOL    HW162911  14.093  12.311   6.508
20379SOL    HW262912  14.062  12.251   6.643
20380SOL     OW62913   2.111   0.339  14.274
20380SOL    HW162914   2.201   0.310  14.291
20380SOL    HW262915   2.095   0.404  14.343
20381SOL     OW62916  13.991   8.366   3.488
20381SOL    HW162917  14.032   8.421   3.422
20381SOL    HW262918  13.910   8.336   3.448
20382SOL     OW62919  12.705   5.726   0.579
20382SOL    HW162920  12.799   5.743   0.585
20382SOL    HW262921  12.695   5.636   0.609
20383SOL     OW62922   4.118  11.065   4.730
20383SOL    HW162923   4.041  11.069   4.672
20383SOL    HW262924   4.192  11.053   4.671
20384SOL     OW62925  14.011   9.353   0.848
20384SOL    HW162926  14.067   9.399   0.785
20384SOL    HW262927  13.925   9.349   0.807
20385SOL     OW62928   3.570   4.469   2.945
20385SOL    HW162929   3.598   4.478   2.854
20385SOL    HW262930   3.651   4.469   2.996
20386SOL     OW62931   5.272   7.071  10.590
20386SOL    HW162932   5.257   6.981  10.619
20386SOL    HW262933   5.352   7.066  10.537
20387SOL     OW62934  10.848   4.181  11.546
20387SOL    HW162935  10.879   4.130  11.471
20387SOL    HW262936  10.885   4.136  11.622
20388SOL     OW62937   7.658   3.379  10.486
20388SOL    HW162938   7.677   3.368  10.579
20388SOL    HW262939   7.586   3.443  10.484
20389SOL     OW62940   0.874  12.094   7.068
20389SOL    HW162941   0.854  12.001   7.058
20389SOL    HW262942   0.791  12.135   7.091
20390SOL     OW62943   7.744  11.286   8.260
20390SOL    HW162944   7.821  11.239   8.227
20390SOL    HW262945   7.699  11.318   8.182
20391SOL     OW62946   9.244  12.819   8.013
20391SOL    HW162947   9.250  12.825   7.917
20391SOL    HW262948   9.229  12.726   8.030
20392SOL     OW62949   9.647  10.083   5.010
20392SOL    HW162950   9.609  10.113   4.927
20392SOL    HW262951   9.734  10.123   5.012
20393SOL     OW62952   7.966   8.986   7.968
20393SOL    HW162953   7.932   8.928   8.036
20393SOL    HW262954   8.058   8.997   7.991
20394SOL     OW62955   1.485  13.543   0.976
20394SOL    HW162956   1.566  13.528   0.928
20394SOL    HW262957   1.503  13.618   1.033
20395SOL     OW62958   4.776   5.313   1.376
20395SOL    HW162959   4.714   5.297   1.304
20395SOL    HW262960   4.862   5.309   1.334
20396SOL     OW62961  14.841  13.685   1.873
20396SOL    HW162962  14.841  13.721   1.962
20396SOL    HW262963   0.040  13.628   1.870
20397SOL     OW62964   0.634   5.646  11.685
20397SOL    HW162965   0.586   5.636  11.602
20397SOL    HW262966   0.586   5.713  11.733
20398SOL     OW62967   4.234   0.315   1.013
20398SOL    HW162968   4.318   0.273   0.996
20398SOL    HW262969   4.169   0.259   0.971
20399SOL     OW62970  13.894   6.274   1.313
20399SOL    HW162971  13.821   6.266   1.374
20399SOL    HW262972  13.931   6.186   1.309
20400SOL     OW62973   7.720  13.602  12.516
20400SOL    HW162974   7.718  13.529  12.579
20400SOL    HW262975   7.641  13.653  12.535
20401SOL     OW62976   7.672  11.468   1.315
20401SOL    HW162977   7.686  11.397   1.253
20401SOL    HW262978   7.712  11.545   1.273
20402SOL     OW62979   8.608   1.643  11.557
20402SOL    HW162980   8.631   1.578  11.622
20402SOL    HW262981   8.692   1.670  11.519
20403SOL     OW62982   7.038  11.942   8.993
20403SOL    HW162983   6.959  11.887   8.990
20403SOL    HW262984   7.108  11.883   9.021
20404SOL     OW62985   4.411   0.136   8.233
20404SOL    HW162986   4.448   0.176   8.154
20404SOL    HW262987   4.464   0.058   8.248
20405SOL     OW62988   2.763   8.157  13.684
20405SOL    HW162989   2.762   8.103  13.763
20405SOL    HW262990   2.701   8.228  13.702
20406SOL     OW62991   4.539  13.745   0.367
20406SOL    HW162992   4.473  13.798   0.410
20406SOL    HW262993   4.622  13.788   0.386
20407SOL     OW62994  14.277   6.021   8.556
20407SOL    HW162995  14.193   6.006   8.513
20407SOL    HW262996  14.342   5.979   8.500
20408SOL     OW62997   0.145   7.799  14.581
20408SOL    HW162998   0.214   7.778  14.644
20408SOL    HW262999   0.070   7.824  14.634
20409SOL     OW63000   7.074   2.881   5.783
20409SOL    HW163001   7.104   2.966   5.753
20409SOL    HW263002   7.096   2.821   5.712
20410SOL     OW63003  12.274   3.043  14.798
20410SOL    HW163004  12.263   3.133  14.768
20410SOL    HW263005  12.364   3.020  14.773
20411SOL     OW63006   6.929   1.810  10.704
20411SOL    HW163007   6.836   1.822  10.682
20411SOL    HW263008   6.936   1.716  10.724
20412SOL     OW63009   7.624  12.318   5.206
20412SOL    HW163010   7.566  12.246   5.182
20412SOL    HW263011   7.637  12.309   5.300
20413SOL     OW63012  10.558   5.671   6.449
20413SOL    HW163013  10.545   5.765   6.463
20413SOL    HW263014  10.488   5.645   6.390
20414SOL     OW63015   3.228   7.427   4.490
20414SOL    HW163016   3.176   7.507   4.490
20414SOL    HW263017   3.175   7.364   4.537
20415SOL     OW63018   6.531   1.149   8.496
20415SOL    HW163019   6.524   1.220   8.431
20415SOL    HW263020   6.618   1.161   8.534
20416SOL     OW63021  13.324  13.682   2.652
20416SOL    HW163022  13.376  13.655   2.577
20416SOL    HW263023  13.242  13.713   2.615
20417SOL     OW63024  13.453   6.932   7.214
20417SOL    HW163025  13.487   7.006   7.264
20417SOL    HW263026  13.527   6.900   7.163
20418SOL     OW63027  12.553   3.866   9.236
20418SOL    HW163028  12.603   3.879   9.155
20418SOL    HW263029  12.565   3.773   9.256
20419SOL     OW63030   4.311   5.329   0.738
20419SOL    HW163031   4.385   5.379   0.774
20419SOL    HW263032   4.346   5.242   0.723
20420SOL     OW63033   9.526   7.511   5.505
20420SOL    HW163034   9.445   7.472   5.472
20420SOL    HW263035   9.547   7.458   5.583
20421SOL     OW63036   4.196  11.394   6.756
20421SOL    HW163037   4.204  11.380   6.850
20421SOL    HW263038   4.285  11.381   6.722
20422SOL     OW63039   5.928  11.237   2.517
20422SOL    HW163040   5.880  11.200   2.442
20422SOL    HW263041   6.000  11.176   2.532
20423SOL     OW63042  13.101   0.748  10.054
20423SOL    HW163043  13.046   0.765  10.131
20423SOL    HW263044  13.103   0.653  10.046
20424SOL     OW63045   3.065  10.151  10.752
20424SOL    HW163046   3.085  10.215  10.684
20424SOL    HW263047   3.148  10.137  10.797
20425SOL     OW63048   7.920  12.464   9.588
20425SOL    HW163049   8.011  12.473   9.617
20425SOL    HW263050   7.872  12.439   9.667
20426SOL     OW63051   1.020  14.704  12.977
20426SOL    HW163052   1.044  14.791  12.948
20426SOL    HW263053   1.054  14.698  13.067
20427SOL     OW63054   8.512   2.992  14.174
20427SOL    HW163055   8.571   3.051  14.220
20427SOL    HW263056   8.517   3.018  14.082
20428SOL     OW63057  11.988   9.154  12.114
20428SOL    HW163058  11.998   9.075  12.060
20428SOL    HW263059  11.952   9.121  12.196
20429SOL     OW63060   7.977  10.230  14.091
20429SOL    HW163061   7.951  10.246  14.000
20429SOL    HW263062   7.897  10.199  14.133
20430SOL     OW63063  12.420   9.562  11.646
20430SOL    HW163064  12.359   9.488  11.647
20430SOL    HW263065  12.488   9.536  11.584
20431SOL     OW63066   0.809   0.278   6.618
20431SOL    HW163067   0.789   0.360   6.665
20431SOL    HW263068   0.903   0.267   6.629
20432SOL     OW63069   2.116   3.381  13.679
20432SOL    HW163070   2.138   3.299  13.633
20432SOL    HW263071   2.190   3.395  13.738
20433SOL     OW63072   8.090  14.328   9.120
20433SOL    HW163073   8.185  14.321   9.129
20433SOL    HW263074   8.055  14.289   9.201
20434SOL     OW63075   9.392   0.421   6.651
20434SOL    HW163076   9.314   0.474   6.667
20434SOL    HW263077   9.415   0.385   6.737
20435SOL     OW63078  11.619   8.901   2.580
20435SOL    HW163079  11.678   8.835   2.543
20435SOL    HW263080  11.669   8.939   2.653
20436SOL     OW63081  12.845   3.091   8.702
20436SOL    HW163082  12.865   3.032   8.629
20436SOL    HW263083  12.921   3.085   8.759
20437SOL     OW63084   6.414   0.394   2.266
20437SOL    HW163085   6.456   0.474   2.296
20437SOL    HW263086   6.426   0.395   2.171
20438SOL     OW63087   2.294   3.214   7.076
20438SOL    HW163088   2.267   3.306   7.076
20438SOL    HW263089   2.368   3.210   7.016
20439SOL     OW63090   8.194   9.265   2.805
20439SOL    HW163091   8.194   9.334   2.739
20439SOL    HW263092   8.125   9.291   2.867
20440SOL     OW63093  13.270  10.732   8.881
20440SOL    HW163094  13.196  10.673   8.891
20440SOL    HW263095  13.243  10.793   8.813
20441SOL     OW63096  12.908   5.441   9.140
20441SOL    HW163097  12.910   5.454   9.235
20441SOL    HW263098  12.822   5.473   9.114
20442SOL     OW63099   4.388   3.980  12.033
20442SOL    HW163100   4.335   3.948  12.106
20442SOL    HW263101   4.406   4.071  12.055
20443SOL     OW63102   4.370  10.353  11.399
20443SOL    HW163103   4.313  10.311  11.464
20443SOL    HW263104   4.314  10.417  11.356
20444SOL     OW63105   5.197   4.789   6.568
20444SOL    HW163106   5.193   4.757   6.658
20444SOL    HW263107   5.265   4.857   6.570
20445SOL     OW63108   7.430   4.203   1.058
20445SOL    HW163109   7.380   4.163   0.987
20445SOL    HW263110   7.511   4.232   1.016
20446SOL     OW63111  11.325   2.337   8.253
20446SOL    HW163112  11.303   2.264   8.310
20446SOL    HW263113  11.420   2.348   8.265
20447SOL     OW63114   3.751   2.413   6.300
20447SOL    HW163115   3.818   2.478   6.279
20447SOL    HW263116   3.689   2.418   6.228
20448SOL     OW63117  12.914   3.313   9.400
20448SOL    HW163118  12.948   3.226   9.381
20448SOL    HW263119  12.823   3.310   9.371
20449SOL     OW63120   1.965   4.905   5.938
20449SOL    HW163121   1.909   4.860   5.875
20449SOL    HW263122   2.004   4.836   5.990
20450SOL     OW63123  12.086  12.700   2.240
20450SOL    HW163124  12.141  12.775   2.260
20450SOL    HW263125  12.139  12.624   2.263
20451SOL     OW63126   0.182  11.279   6.590
20451SOL    HW163127   0.207  11.202   6.540
20451SOL    HW263128   0.177  11.350   6.525
20452SOL     OW63129   8.565   1.439   6.072
20452SOL    HW163130   8.495   1.501   6.052
20452SOL    HW263131   8.641   1.472   6.024
20453SOL     OW63132   0.534  11.965   1.247
20453SOL    HW163133   0.598  11.975   1.177
20453SOL    HW263134   0.510  12.054   1.272
20454SOL     OW63135   5.775   6.806   4.942
20454SOL    HW163136   5.791   6.807   5.037
20454SOL    HW263137   5.842   6.746   4.908
20455SOL     OW63138  13.360   3.352  11.864
20455SOL    HW163139  13.405   3.397  11.936
20455SOL    HW263140  13.346   3.420  11.798
20456SOL     OW63141   8.046  13.036   2.514
20456SOL    HW163142   8.091  13.030   2.430
20456SOL    HW263143   8.100  13.095   2.566
20457SOL     OW63144   1.441   6.882   5.816
20457SOL    HW163145   1.405   6.966   5.787
20457SOL    HW263146   1.524   6.874   5.768
20458SOL     OW63147   3.704   3.761   9.204
20458SOL    HW163148   3.625   3.728   9.163
20458SOL    HW263149   3.675   3.835   9.258
20459SOL     OW63150   8.492   7.409  11.929
20459SOL    HW163151   8.453   7.395  11.842
20459SOL    HW263152   8.540   7.491  11.920
20460SOL     OW63153   3.595   9.844  11.561
20460SOL    HW163154   3.691   9.849  11.565
20460SOL    HW263155   3.578   9.782  11.489
20461SOL     OW63156   8.373  10.306   1.978
20461SOL    HW163157   8.384  10.224   1.931
20461SOL    HW263158   8.284  10.335   1.956
20462SOL     OW63159   2.299  13.572   9.955
20462SOL    HW163160   2.321  13.649   9.903
20462SOL    HW263161   2.343  13.586  10.039
20463SOL     OW63162  13.130   0.076   6.504
20463SOL    HW163163  13.109   0.136   6.576
20463SOL    HW263164  13.153   0.133   6.431
20464SOL     OW63165   6.538   0.831  10.342
20464SOL    HW163166   6.476   0.881  10.289
20464SOL    HW263167   6.620   0.880  10.337
20465SOL     OW63168  11.384   5.461  11.561
20465SOL    HW163169  11.456   5.507  11.517
20465SOL    HW263170  11.307   5.478  11.506
20466SOL     OW63171   9.599  10.725   5.251
20466SOL    HW163172   9.525  10.753   5.197
20466SOL    HW263173   9.668  10.788   5.230
20467SOL     OW63174   5.711   3.954   1.214
20467SOL    HW163175   5.788   3.949   1.271
20467SOL    HW263176   5.669   4.037   1.239
20468SOL     OW63177  11.187   5.428  11.061
20468SOL    HW163178  11.226   5.363  11.118
20468SOL    HW263179  11.208   5.398  10.972
20469SOL     OW63180  13.897   7.879  13.644
20469SOL    HW163181  13.911   7.896  13.551
20469SOL    HW263182  13.925   7.959  13.688
20470SOL     OW63183   4.911   8.162  10.169
20470SOL    HW163184   4.849   8.184  10.239
20470SOL    HW263185   4.995   8.196  10.200
20471SOL     OW63186   2.959  13.283  10.386
20471SOL    HW163187   3.051  13.293  10.363
20471SOL    HW263188   2.919  13.245  10.307
20472SOL     OW63189   2.304  13.713  11.583
20472SOL    HW163190   2.276  13.736  11.494
20472SOL    HW263191   2.397  13.735  11.585
20473SOL     OW63192   7.786   9.926   6.002
20473SOL    HW163193   7.815  10.013   6.029
20473SOL    HW263194   7.811   9.869   6.075
20474SOL     OW63195   7.693  13.663  12.874
20474SOL    HW163196   7.696  13.587  12.817
20474SOL    HW263197   7.618  13.713  12.842
20475SOL     OW63198   8.054   4.397  11.258
20475SOL    HW163199   8.009   4.318  11.229
20475SOL    HW263200   8.058   4.389  11.353
20476SOL     OW63201   9.800  12.839   2.496
20476SOL    HW163202   9.893  12.817   2.497
20476SOL    HW263203   9.794  12.914   2.437
20477SOL     OW63204   7.185   9.311   6.195
20477SOL    HW163205   7.114   9.259   6.233
20477SOL    HW263206   7.251   9.316   6.263
20478SOL     OW63207  14.419   4.821   5.464
20478SOL    HW163208  14.495   4.794   5.515
20478SOL    HW263209  14.390   4.741   5.420
20479SOL     OW63210   6.410   2.360   8.567
20479SOL    HW163211   6.359   2.347   8.487
20479SOL    HW263212   6.409   2.275   8.610
20480SOL     OW63213   6.308  14.278   7.171
20480SOL    HW163214   6.265  14.198   7.201
20480SOL    HW263215   6.258  14.348   7.212
20481SOL     OW63216  13.759  12.787   9.210
20481SOL    HW163217  13.830  12.847   9.231
20481SOL    HW263218  13.688  12.844   9.179
20482SOL     OW63219   8.336   0.229  10.815
20482SOL    HW163220   8.363   0.199  10.728
20482SOL    HW263221   8.259   0.283  10.799
20483SOL     OW63222   6.855  12.852   4.369
20483SOL    HW163223   6.879  12.770   4.326
20483SOL    HW263224   6.923  12.865   4.435
20484SOL     OW63225   7.383   2.314   6.423
20484SOL    HW163226   7.467   2.280   6.453
20484SOL    HW263227   7.362   2.262   6.346
20485SOL     OW63228   0.101   3.081   1.525
20485SOL    HW163229   0.146   3.017   1.580
20485SOL    HW263230   0.016   3.042   1.505
20486SOL     OW63231   5.000  11.897   8.550
20486SOL    HW163232   4.918  11.925   8.508
20486SOL    HW263233   5.054  11.864   8.478
20487SOL     OW63234  12.612   3.749  11.555
20487SOL    HW163235  12.654   3.694  11.621
20487SOL    HW263236  12.524   3.764  11.590
20488SOL     OW63237  13.481  14.719   5.608
20488SOL    HW163238  13.518  14.806   5.592
20488SOL    HW263239  13.544  14.677   5.666
20489SOL     OW63240  10.590  10.050   1.843
20489SOL    HW163241  10.545  10.008   1.917
20489SOL    HW263242  10.574  10.143   1.855
20490SOL     OW63243  10.165   4.926  12.620
20490SOL    HW163244  10.179   4.855  12.557
20490SOL    HW263245  10.081   4.904  12.662
20491SOL     OW63246   6.403   1.035  14.707
20491SOL    HW163247   6.398   1.089  14.785
20491SOL    HW263248   6.443   1.091  14.640
20492SOL     OW63249   2.493   5.461   5.790
20492SOL    HW163250   2.528   5.427   5.708
20492SOL    HW263251   2.570   5.489   5.839
20493SOL     OW63252  14.573   1.780   2.200
20493SOL    HW163253  14.504   1.717   2.179
20493SOL    HW263254  14.653   1.727   2.205
20494SOL     OW63255   5.289   8.205   6.275
20494SOL    HW163256   5.302   8.137   6.341
20494SOL    HW263257   5.246   8.277   6.322
20495SOL     OW63258   4.970   0.674   7.826
20495SOL    HW163259   4.971   0.581   7.849
20495SOL    HW263260   5.061   0.701   7.833
20496SOL     OW63261   3.188  11.283  11.019
20496SOL    HW163262   3.170  11.314  10.931
20496SOL    HW263263   3.230  11.197  11.007
20497SOL     OW63264   0.773   4.905   5.032
20497SOL    HW163265   0.697   4.944   5.074
20497SOL    HW263266   0.775   4.944   4.945
20498SOL     OW63267  13.030   6.360  11.532
20498SOL    HW163268  13.121   6.387  11.538
20498SOL    HW263269  13.018   6.301  11.607
20499SOL     OW63270   4.483   3.248  11.643
20499SOL    HW163271   4.554   3.312  11.639
20499SOL    HW263272   4.427   3.270  11.568
20500SOL     OW63273   0.608  10.226  14.237
20500SOL    HW163274   0.661  10.221  14.158
20500SOL    HW263275   0.521  10.197  14.209
20501SOL     OW63276  10.269   0.924   1.450
20501SOL    HW163277  10.209   0.926   1.375
20501SOL    HW263278  10.276   0.831   1.472
20502SOL     OW63279   9.022   5.534  11.300
20502SOL    HW163280   8.931   5.562  11.290
20502SOL    HW263281   9.065   5.566  11.221
20503SOL     OW63282   9.599   3.191  14.231
20503SOL    HW163283   9.606   3.163  14.323
20503SOL    HW263284   9.594   3.109  14.182
20504SOL     OW63285  10.184   2.487   0.580
20504SOL    HW163286  10.134   2.405   0.586
20504SOL    HW263287  10.137   2.548   0.637
20505SOL     OW63288  10.501  12.953   9.962
20505SOL    HW163289  10.446  12.876   9.945
20505SOL    HW263290  10.587  12.929   9.928
20506SOL     OW63291  13.532   6.671   8.182
20506SOL    HW163292  13.575   6.591   8.153
20506SOL    HW263293  13.453   6.640   8.227
20507SOL     OW63294   4.885   1.565  14.205
20507SOL    HW163295   4.910   1.473  14.195
20507SOL    HW263296   4.941   1.598  14.275
20508SOL     OW63297  14.247   0.863   1.721
20508SOL    HW163298  14.336   0.844   1.752
20508SOL    HW263299  14.252   0.855   1.626
20509SOL     OW63300   8.019  10.270   8.697
20509SOL    HW163301   8.067  10.352   8.706
20509SOL    HW263302   8.086  10.206   8.673
20510SOL     OW63303   3.244   0.595   9.743
20510SOL    HW163304   3.270   0.555   9.660
20510SOL    HW263305   3.268   0.530   9.809
20511SOL     OW63306   3.023   6.442   0.156
20511SOL    HW163307   3.008   6.502   0.083
20511SOL    HW263308   2.998   6.493   0.233
20512SOL     OW63309  11.391   4.114   8.698
20512SOL    HW163310  11.469   4.064   8.672
20512SOL    HW263311  11.415   4.205   8.679
20513SOL     OW63312   6.949  11.455   3.203
20513SOL    HW163313   6.956  11.366   3.236
20513SOL    HW263314   6.920  11.445   3.113
20514SOL     OW63315   0.164   2.470   7.074
20514SOL    HW163316   0.202   2.494   7.159
20514SOL    HW263317   0.091   2.531   7.063
20515SOL     OW63318  10.415   7.489   7.018
20515SOL    HW163319  10.426   7.556   7.085
20515SOL    HW263320  10.458   7.525   6.941
20516SOL     OW63321   4.251   6.690   5.026
20516SOL    HW163322   4.229   6.629   5.096
20516SOL    HW263323   4.174   6.692   4.970
20517SOL     OW63324   8.658  14.447  12.795
20517SOL    HW163325   8.601  14.411  12.727
20517SOL    HW263326   8.731  14.486  12.746
20518SOL     OW63327  10.942  13.644   8.849
20518SOL    HW163328  10.858  13.659   8.893
20518SOL    HW263329  10.991  13.589   8.909
20519SOL     OW63330   5.266  10.272   3.276
20519SOL    HW163331   5.278  10.179   3.290
20519SOL    HW263332   5.235  10.306   3.360
20520SOL     OW63333  10.355   4.425   9.679
20520SOL    HW163334  10.415   4.467   9.740
20520SOL    HW263335  10.363   4.331   9.698
20521SOL     OW63336   3.389   7.448   0.485
20521SOL    HW163337   3.334   7.477   0.412
20521SOL    HW263338   3.450   7.386   0.446
20522SOL     OW63339  11.004   3.638   8.959
20522SOL    HW163340  11.092   3.612   8.930
20522SOL    HW263341  10.994   3.727   8.927
20523SOL     OW63342  13.162  14.408   7.845
20523SOL    HW163343  13.251  14.414   7.881
20523SOL    HW263344  13.124  14.494   7.859
20524SOL     OW63345  11.821  13.457   7.631
20524SOL    HW163346  11.756  13.399   7.592
20524SOL    HW263347  11.789  13.474   7.719
20525SOL     OW63348  10.653  14.128  11.802
20525SOL    HW163349  10.731  14.099  11.849
20525SOL    HW263350  10.580  14.102  11.858
20526SOL     OW63351  12.814  11.150   1.012
20526SOL    HW163352  12.754  11.165   0.939
20526SOL    HW263353  12.899  11.177   0.978
20527SOL     OW63354  10.738   6.291  12.912
20527SOL    HW163355  10.763   6.246  12.994
20527SOL    HW263356  10.664   6.240  12.880
20528SOL     OW63357  12.643  11.146   1.588
20528SOL    HW163358  12.584  11.076   1.559
20528SOL    HW263359  12.644  11.209   1.516
20529SOL     OW63360  11.744  12.638   9.373
20529SOL    HW163361  11.671  12.580   9.396
20529SOL    HW263362  11.822  12.582   9.379
20530SOL     OW63363   7.180   5.829   8.481
20530SOL    HW163364   7.224   5.914   8.476
20530SOL    HW263365   7.238   5.769   8.435
20531SOL     OW63366   1.639   5.445   0.898
20531SOL    HW163367   1.662   5.524   0.848
20531SOL    HW263368   1.551   5.462   0.930
20532SOL     OW63369   2.600   2.719   8.062
20532SOL    HW163370   2.525   2.675   8.020
20532SOL    HW263371   2.663   2.732   7.991
20533SOL     OW63372   4.281   0.833   9.838
20533SOL    HW163373   4.368   0.794   9.843
20533SOL    HW263374   4.262   0.862   9.927
20534SOL     OW63375   6.721   3.264   6.360
20534SOL    HW163376   6.778   3.270   6.284
20534SOL    HW263377   6.647   3.321   6.340
20535SOL     OW63378   1.098  14.392   4.886
20535SOL    HW163379   1.047  14.442   4.949
20535SOL    HW263380   1.112  14.307   4.928
20536SOL     OW63381  11.992   8.773  12.993
20536SOL    HW163382  12.039   8.830  13.054
20536SOL    HW263383  11.927   8.728  13.047
20537SOL     OW63384   2.764   7.505   1.017
20537SOL    HW163385   2.731   7.518   1.106
20537SOL    HW263386   2.703   7.444   0.977
20538SOL     OW63387   1.650   2.767  14.746
20538SOL    HW163388   1.608   2.788  14.663
20538SOL    HW263389   1.602   2.692  14.780
20539SOL     OW63390   7.469   1.809  12.581
20539SOL    HW163391   7.426   1.811  12.496
20539SOL    HW263392   7.397   1.803  12.644
20540SOL     OW63393   7.443   9.052   8.871
20540SOL    HW163394   7.493   9.037   8.951
20540SOL    HW263395   7.483   8.994   8.806
20541SOL     OW63396   1.911  14.430   6.064
20541SOL    HW163397   1.973  14.358   6.052
20541SOL    HW263398   1.869  14.439   5.979
20542SOL     OW63399   5.259   6.663   1.937
20542SOL    HW163400   5.330   6.720   1.966
20542SOL    HW263401   5.206   6.717   1.879
20543SOL     OW63402  12.639   6.292  12.719
20543SOL    HW163403  12.628   6.362  12.654
20543SOL    HW263404  12.585   6.319  12.793
20544SOL     OW63405   7.334   8.735  12.021
20544SOL    HW163406   7.334   8.799  11.950
20544SOL    HW263407   7.425   8.708  12.029
20545SOL     OW63408   9.909   5.849   6.032
20545SOL    HW163409   9.905   5.921   6.095
20545SOL    HW263410   9.849   5.874   5.962
20546SOL     OW63411   3.233   2.793   7.678
20546SOL    HW163412   3.272   2.717   7.635
20546SOL    HW263413   3.139   2.774   7.679
20547SOL     OW63414   2.989  11.347  11.834
20547SOL    HW163415   3.048  11.302  11.774
20547SOL    HW263416   2.969  11.430  11.790
20548SOL     OW63417   8.114  12.940  11.044
20548SOL    HW163418   8.170  12.913  11.117
20548SOL    HW263419   8.068  12.860  11.018
20549SOL     OW63420   2.513   5.426   8.682
20549SOL    HW163421   2.471   5.505   8.647
20549SOL    HW263422   2.595   5.458   8.720
20550SOL     OW63423   8.893   1.546  10.601
20550SOL    HW163424   8.890   1.621  10.542
20550SOL    HW263425   8.905   1.470  10.543
20551SOL     OW63426   7.430   4.767   3.147
20551SOL    HW163427   7.433   4.672   3.144
20551SOL    HW263428   7.492   4.795   3.080
20552SOL     OW63429   9.999  11.740  11.449
20552SOL    HW163430  10.028  11.672  11.510
20552SOL    HW263431   9.919  11.705  11.410
20553SOL     OW63432   6.786  12.198   3.548
20553SOL    HW163433   6.774  12.238   3.634
20553SOL    HW263434   6.876  12.219   3.524
20554SOL     OW63435   9.628  14.749  12.770
20554SOL    HW163436   9.594  14.748  12.681
20554SOL    HW263437   9.656  14.659  12.786
20555SOL     OW63438   1.090   4.721   6.806
20555SOL    HW163439   1.110   4.809   6.774
20555SOL    HW263440   1.174   4.675   6.806
20556SOL     OW63441   4.758   4.905   5.167
20556SOL    HW163442   4.733   4.901   5.075
20556SOL    HW263443   4.813   4.983   5.174
20557SOL     OW63444   3.176   4.115   4.447
20557SOL    HW163445   3.138   4.109   4.535
20557SOL    HW263446   3.131   4.189   4.407
20558SOL     OW63447  11.919  10.536  14.241
20558SOL    HW163448  11.987  10.470  14.257
20558SOL    HW263449  11.918  10.547  14.146
20559SOL     OW63450   3.981   5.456   2.995
20559SOL    HW163451   4.019   5.477   2.909
20559SOL    HW263452   3.891   5.487   2.990
20560SOL     OW63453  11.233   1.901  14.684
20560SOL    HW163454  11.286   1.979  14.697
20560SOL    HW263455  11.271   1.858  14.608
20561SOL     OW63456   3.521  13.686   8.583
20561SOL    HW163457   3.427  13.667   8.580
20561SOL    HW263458   3.531  13.740   8.661
20562SOL     OW63459   1.861   9.363  10.784
20562SOL    HW163460   1.947   9.381  10.747
20562SOL    HW263461   1.800   9.374  10.711
20563SOL     OW63462  10.185  14.523  12.210
20563SOL    HW163463  10.278  14.548  12.210
20563SOL    HW263464  10.151  14.557  12.127
20564SOL     OW63465  10.088   4.403  12.483
20564SOL    HW163466  10.037   4.458  12.423
20564SOL    HW263467  10.143   4.349  12.425
20565SOL     OW63468  11.634  10.964  12.411
20565SOL    HW163469  11.615  11.057  12.423
20565SOL    HW263470  11.656  10.932  12.498
20566SOL     OW63471  10.563  10.509  11.268
20566SOL    HW163472  10.543  10.603  11.271
20566SOL    HW263473  10.636  10.502  11.207
20567SOL     OW63474   5.378   5.314   1.573
20567SOL    HW163475   5.364   5.291   1.481
20567SOL    HW263476   5.290   5.331   1.607
20568SOL     OW63477  11.848  14.401  10.831
20568SOL    HW163478  11.830  14.340  10.902
20568SOL    HW263479  11.768  14.399  10.777
20569SOL     OW63480   7.266   0.546   7.613
20569SOL    HW163481   7.259   0.479   7.681
20569SOL    HW263482   7.295   0.625   7.658
20570SOL     OW63483  11.683  12.864   1.050
20570SOL    HW163484  11.588  12.856   1.040
20570SOL    HW263485  11.712  12.775   1.070
20571SOL     OW63486  14.282  11.715   3.405
20571SOL    HW163487  14.290  11.805   3.375
20571SOL    HW263488  14.188  11.704   3.422
20572SOL     OW63489  13.346   5.455   4.167
20572SOL    HW163490  13.408   5.492   4.229
20572SOL    HW263491  13.399   5.437   4.089
20573SOL     OW63492   0.337   6.395  13.313
20573SOL    HW163493   0.295   6.476  13.342
20573SOL    HW263494   0.350   6.406  13.219
20574SOL     OW63495   3.453   8.163   7.560
20574SOL    HW163496   3.419   8.221   7.492
20574SOL    HW263497   3.470   8.080   7.515
20575SOL     OW63498   4.499   9.857   5.943
20575SOL    HW163499   4.460   9.943   5.928
20575SOL    HW263500   4.591   9.876   5.961
20576SOL     OW63501  10.923   0.800   3.375
20576SOL    HW163502  10.847   0.767   3.424
20576SOL    HW263503  10.885   0.859   3.310
20577SOL     OW63504  12.385   9.135   8.444
20577SOL    HW163505  12.351   9.181   8.368
20577SOL    HW263506  12.363   9.043   8.428
20578SOL     OW63507   6.635   2.305   4.382
20578SOL    HW163508   6.715   2.263   4.414
20578SOL    HW263509   6.654   2.325   4.290
20579SOL     OW63510   0.413   0.744  13.355
20579SOL    HW163511   0.472   0.819  13.347
20579SOL    HW263512   0.413   0.705  13.268
20580SOL     OW63513   2.404  10.741   7.862
20580SOL    HW163514   2.407  10.666   7.803
20580SOL    HW263515   2.427  10.705   7.947
20581SOL     OW63516   5.259  12.600   6.778
20581SOL    HW163517   5.172  12.570   6.753
20581SOL    HW263518   5.244  12.678   6.832
20582SOL     OW63519   3.899   7.858  11.370
20582SOL    HW163520   3.872   7.885  11.458
20582SOL    HW263521   3.993   7.842  11.378
20583SOL     OW63522   3.338   4.241  13.244
20583SOL    HW163523   3.318   4.334  13.254
20583SOL    HW263524   3.360   4.212  13.332
20584SOL     OW63525   7.054   9.011   0.273
20584SOL    HW163526   7.021   9.075   0.336
20584SOL    HW263527   7.114   9.060   0.218
20585SOL     OW63528   5.227   3.464   5.826
20585SOL    HW163529   5.216   3.371   5.847
20585SOL    HW263530   5.311   3.488   5.865
20586SOL     OW63531   3.831   6.143   8.399
20586SOL    HW163532   3.873   6.107   8.321
20586SOL    HW263533   3.899   6.196   8.441
20587SOL     OW63534   7.864   0.601   5.244
20587SOL    HW163535   7.850   0.659   5.319
20587SOL    HW263536   7.812   0.523   5.263
20588SOL     OW63537   3.439   1.444  10.551
20588SOL    HW163538   3.457   1.373  10.613
20588SOL    HW263539   3.347   1.466  10.566
20589SOL     OW63540   5.678   2.531  10.957
20589SOL    HW163541   5.752   2.569  10.910
20589SOL    HW263542   5.636   2.605  11.001
20590SOL     OW63543   1.385  14.417   1.224
20590SOL    HW163544   1.364  14.481   1.155
20590SOL    HW263545   1.447  14.357   1.182
20591SOL     OW63546   3.119   3.025   1.768
20591SOL    HW163547   3.114   3.067   1.682
20591SOL    HW263548   3.167   3.087   1.823
20592SOL     OW63549   1.500   8.520   1.612
20592SOL    HW163550   1.584   8.565   1.602
20592SOL    HW263551   1.444   8.558   1.543
20593SOL     OW63552   8.913   5.587  12.294
20593SOL    HW163553   8.872   5.673  12.289
20593SOL    HW263554   8.942   5.568  12.205
20594SOL     OW63555  13.484  13.761  12.979
20594SOL    HW163556  13.576  13.787  12.974
20594SOL    HW263557  13.465  13.760  13.073
20595SOL     OW63558   8.535  13.602  12.623
20595SOL    HW163559   8.551  13.687  12.664
20595SOL    HW263560   8.622  13.570  12.600
20596SOL     OW63561   3.839   7.349   4.287
20596SOL    HW163562   3.914   7.296   4.262
20596SOL    HW263563   3.871   7.402   4.360
20597SOL     OW63564   2.178   2.270   2.664
20597SOL    HW163565   2.113   2.331   2.631
20597SOL    HW263566   2.260   2.320   2.664
20598SOL     OW63567   6.242  11.042   7.352
20598SOL    HW163568   6.300  10.986   7.298
20598SOL    HW263569   6.291  11.123   7.362
20599SOL     OW63570   6.905   9.165  11.696
20599SOL    HW163571   6.940   9.242  11.652
20599SOL    HW263572   6.847   9.124  11.631
20600SOL     OW63573  14.339   2.116  13.501
20600SOL    HW163574  14.304   2.108  13.412
20600SOL    HW263575  14.347   2.210  13.515
20601SOL     OW63576   6.768   1.531   3.678
20601SOL    HW163577   6.857   1.509   3.708
20601SOL    HW263578   6.765   1.626   3.683
20602SOL     OW63579   0.586   2.608   9.071
20602SOL    HW163580   0.506   2.658   9.058
20602SOL    HW263581   0.651   2.651   9.015
20603SOL     OW63582  13.568   2.121   1.118
20603SOL    HW163583  13.594   2.104   1.209
20603SOL    HW263584  13.507   2.195   1.125
20604SOL     OW63585   4.375  12.491   0.607
20604SOL    HW163586   4.430  12.470   0.532
20604SOL    HW263587   4.406  12.576   0.638
20605SOL     OW63588  14.385   6.219   6.350
20605SOL    HW163589  14.322   6.246   6.283
20605SOL    HW263590  14.465   6.268   6.329
20606SOL     OW63591  12.535   0.133   0.210
20606SOL    HW163592  12.454   0.127   0.161
20606SOL    HW263593  12.521   0.078   0.287
20607SOL     OW63594  12.994  13.139  12.617
20607SOL    HW163595  13.011  13.150  12.523
20607SOL    HW263596  12.933  13.066  12.622
20608SOL     OW63597  14.097   5.187  10.538
20608SOL    HW163598  14.132   5.194  10.626
20608SOL    HW263599  14.093   5.093  10.521
20609SOL     OW63600  11.868   3.786  12.088
20609SOL    HW163601  11.889   3.876  12.111
20609SOL    HW263602  11.833   3.792  11.999
20610SOL     OW63603  12.174   9.059  10.585
20610SOL    HW163604  12.203   8.971  10.607
20610SOL    HW263605  12.199   9.071  10.493
20611SOL     OW63606   8.430   6.252   0.735
20611SOL    HW163607   8.429   6.254   0.639
20611SOL    HW263608   8.429   6.159   0.757
20612SOL     OW63609   0.941  13.318  11.999
20612SOL    HW163610   0.913  13.235  11.960
20612SOL    HW263611   1.036  13.314  12.000
20613SOL     OW63612   3.782   2.469   3.318
20613SOL    HW163613   3.737   2.523   3.384
20613SOL    HW263614   3.802   2.530   3.247
20614SOL     OW63615   4.056   8.079   3.092
20614SOL    HW163616   4.016   8.129   3.021
20614SOL    HW263617   4.062   8.142   3.164
20615SOL     OW63618  12.224   8.636   8.182
20615SOL    HW163619  12.308   8.596   8.201
20615SOL    HW263620  12.179   8.573   8.126
20616SOL     OW63621   9.129   2.159   0.349
20616SOL    HW163622   9.114   2.226   0.417
20616SOL    HW263623   9.091   2.197   0.270
20617SOL     OW63624   6.004  11.271  14.851
20617SOL    HW163625   6.035  11.231  14.770
20617SOL    HW263626   6.074  11.255   0.036
20618SOL     OW63627   8.805  13.131  13.329
20618SOL    HW163628   8.797  13.055  13.270
20618SOL    HW263629   8.840  13.095  13.410
20619SOL     OW63630  11.235   7.420   3.180
20619SOL    HW163631  11.260   7.493   3.236
20619SOL    HW263632  11.259   7.447   3.092
20620SOL     OW63633  12.602  14.707   2.948
20620SOL    HW163634  12.584  14.789   2.902
20620SOL    HW263635  12.687  14.721   2.990
20621SOL     OW63636  14.227  13.127  11.573
20621SOL    HW163637  14.181  13.068  11.515
20621SOL    HW263638  14.198  13.215  11.547
20622SOL     OW63639   2.808  12.208  10.035
20622SOL    HW163640   2.738  12.265  10.003
20622SOL    HW263641   2.873  12.268  10.071
20623SOL     OW63642   5.336  10.009   6.027
20623SOL    HW163643   5.331   9.937   6.090
20623SOL    HW263644   5.248  10.047   6.029
20624SOL     OW63645   0.607  12.566  14.261
20624SOL    HW163646   0.662  12.626  14.210
20624SOL    HW263647   0.664  12.533  14.330
20625SOL     OW63648  13.959   7.349   2.858
20625SOL    HW163649  13.908   7.282   2.812
20625SOL    HW263650  14.046   7.342   2.820
20626SOL     OW63651  11.518  13.353   5.076
20626SOL    HW163652  11.460  13.307   5.137
20626SOL    HW263653  11.472  13.435   5.058
20627SOL     OW63654  13.300  11.193   2.597
20627SOL    HW163655  13.291  11.263   2.663
20627SOL    HW263656  13.323  11.239   2.517
20628SOL     OW63657   5.319  13.159   2.897
20628SOL    HW163658   5.314  13.081   2.953
20628SOL    HW263659   5.403  13.199   2.920
20629SOL     OW63660  14.822   4.401   5.745
20629SOL    HW163661  14.768   4.351   5.683
20629SOL    HW263662   0.020   4.428   5.694
20630SOL     OW63663   1.044   4.092  10.657
20630SOL    HW163664   1.045   4.022  10.722
20630SOL    HW263665   0.952   4.100  10.632
20631SOL     OW63666  13.380   8.104   6.627
20631SOL    HW163667  13.398   8.109   6.721
20631SOL    HW263668  13.429   8.027   6.598
20632SOL     OW63669   5.737   2.678   7.458
20632SOL    HW163670   5.729   2.713   7.547
20632SOL    HW263671   5.809   2.616   7.464
20633SOL     OW63672   7.972   6.114  14.826
20633SOL    HW163673   8.022   6.082   0.023
20633SOL    HW263674   7.990   6.050  14.757
20634SOL     OW63675   4.334  10.519   9.596
20634SOL    HW163676   4.356  10.460   9.669
20634SOL    HW263677   4.297  10.461   9.529
20635SOL     OW63678   1.839   6.747   2.175
20635SOL    HW163679   1.840   6.748   2.271
20635SOL    HW263680   1.755   6.707   2.153
20636SOL     OW63681   3.396   5.512   2.697
20636SOL    HW163682   3.342   5.549   2.767
20636SOL    HW263683   3.485   5.541   2.717
20637SOL     OW63684   3.720  12.362  14.600
20637SOL    HW163685   3.795  12.417  14.575
20637SOL    HW263686   3.718  12.294  14.533
20638SOL     OW63687  11.001  12.346   0.639
20638SOL    HW163688  11.009  12.359   0.733
20638SOL    HW263689  11.062  12.275   0.619
20639SOL     OW63690   4.453   5.845  14.117
20639SOL    HW163691   4.512   5.880  14.050
20639SOL    HW263692   4.455   5.750  14.102
20640SOL     OW63693  10.131   0.571  12.264
20640SOL    HW163694  10.146   0.662  12.291
20640SOL    HW263695  10.151   0.570  12.170
20641SOL     OW63696  12.446   3.209  11.485
20641SOL    HW163697  12.466   3.231  11.576
20641SOL    HW263698  12.475   3.285  11.435
20642SOL     OW63699   2.577   9.652   5.325
20642SOL    HW163700   2.559   9.731   5.375
20642SOL    HW263701   2.503   9.643   5.266
20643SOL     OW63702  11.178  14.780  10.815
20643SOL    HW163703  11.270  14.757  10.802
20643SOL    HW263704  11.176  14.875  10.809
20644SOL     OW63705   1.608   1.336   4.640
20644SOL    HW163706   1.551   1.259   4.639
20644SOL    HW263707   1.696   1.301   4.628
20645SOL     OW63708   8.787   2.793   7.840
20645SOL    HW163709   8.787   2.698   7.835
20645SOL    HW263710   8.813   2.822   7.753
20646SOL     OW63711  11.432   0.095  11.372
20646SOL    HW163712  11.497   0.155  11.407
20646SOL    HW263713  11.350   0.120  11.415
20647SOL     OW63714  11.040  13.560  13.668
20647SOL    HW163715  11.044  13.487  13.607
20647SOL    HW263716  11.132  13.579  13.687
20648SOL     OW63717  10.626   6.428   5.329
20648SOL    HW163718  10.588   6.441   5.416
20648SOL    HW263719  10.550   6.419   5.271
20649SOL     OW63720  13.945  10.800   5.599
20649SOL    HW163721  13.917  10.891   5.595
20649SOL    HW263722  13.894  10.762   5.670
20650SOL     OW63723   1.454   9.000   4.906
20650SOL    HW163724   1.420   9.027   4.820
20650SOL    HW263725   1.467   9.082   4.953
20651SOL     OW63726   3.485   7.557  10.900
20651SOL    HW163727   3.470   7.516  10.815
20651SOL    HW263728   3.448   7.644  10.892
20652SOL     OW63729   9.020   6.653   5.041
20652SOL    HW163730   9.077   6.577   5.038
20652SOL    HW263731   8.983   6.660   4.953
20653SOL     OW63732  10.089   5.435   0.768
20653SOL    HW163733  10.058   5.526   0.764
20653SOL    HW263734  10.177   5.441   0.803
20654SOL     OW63735   4.344   8.045   5.879
20654SOL    HW163736   4.387   8.071   5.961
20654SOL    HW263737   4.254   8.025   5.904
20655SOL     OW63738   0.272  10.317   5.559
20655SOL    HW163739   0.287  10.408   5.535
20655SOL    HW263740   0.218  10.282   5.488
20656SOL     OW63741   4.068   9.530   9.550
20656SOL    HW163742   3.987   9.568   9.515
20656SOL    HW263743   4.115   9.499   9.472
20657SOL     OW63744   7.549  11.741   0.278
20657SOL    HW163745   7.545  11.829   0.316
20657SOL    HW263746   7.643  11.722   0.273
20658SOL     OW63747  10.435   8.419  14.337
20658SOL    HW163748  10.391   8.334  14.326
20658SOL    HW263749  10.528   8.398  14.330
20659SOL     OW63750   3.501   5.780   1.943
20659SOL    HW163751   3.533   5.834   1.871
20659SOL    HW263752   3.457   5.842   2.001
20660SOL     OW63753   3.825   1.196   8.289
20660SOL    HW163754   3.732   1.218   8.292
20660SOL    HW263755   3.833   1.136   8.215
20661SOL     OW63756   9.790   1.164   3.545
20661SOL    HW163757   9.796   1.143   3.639
20661SOL    HW263758   9.766   1.257   3.542
20662SOL     OW63759  12.632  11.703  11.337
20662SOL    HW163760  12.596  11.621  11.304
20662SOL    HW263761  12.680  11.740  11.262
20663SOL     OW63762   8.985   7.646   1.889
20663SOL    HW163763   9.054   7.609   1.833
20663SOL    HW263764   8.928   7.571   1.909
20664SOL     OW63765   6.525   7.108  13.968
20664SOL    HW163766   6.504   7.111  14.061
20664SOL    HW263767   6.516   7.198  13.938
20665SOL     OW63768   8.743   1.922  12.510
20665SOL    HW163769   8.778   2.008  12.534
20665SOL    HW263770   8.702   1.935  12.425
20666SOL     OW63771   5.346  10.908   7.439
20666SOL    HW163772   5.335  10.814   7.452
20666SOL    HW263773   5.427  10.929   7.486
20667SOL     OW63774  13.060   5.548  12.904
20667SOL    HW163775  13.135   5.607  12.916
20667SOL    HW263776  12.993   5.582  12.964
20668SOL     OW63777  12.607  11.494   0.327
20668SOL    HW163778  12.583  11.558   0.260
20668SOL    HW263779  12.528  11.442   0.340
20669SOL     OW63780   4.836  13.105   1.883
20669SOL    HW163781   4.770  13.076   1.820
20669SOL    HW263782   4.840  13.200   1.873
20670SOL     OW63783   8.359  14.518  13.238
20670SOL    HW163784   8.436  14.533  13.182
20670SOL    HW263785   8.308  14.598  13.230
20671SOL     OW63786   1.899  14.864   6.013
20671SOL    HW163787   1.978   0.015   6.059
20671SOL    HW263788   1.834  14.852   6.082
20672SOL     OW63789  10.880   0.286  13.346
20672SOL    HW163790  10.927   0.212  13.384
20672SOL    HW263791  10.950   0.346  13.318
20673SOL     OW63792   6.162   6.627   5.898
20673SOL    HW163793   6.173   6.641   5.992
20673SOL    HW263794   6.151   6.532   5.889
20674SOL     OW63795   9.220   4.448   2.386
20674SOL    HW163796   9.179   4.410   2.309
20674SOL    HW263797   9.220   4.543   2.369
20675SOL     OW63798   7.955   7.562   4.084
20675SOL    HW163799   7.971   7.603   3.999
20675SOL    HW263800   8.039   7.567   4.129
20676SOL     OW63801   6.451   4.955  10.181
20676SOL    HW163802   6.394   5.030  10.163
20676SOL    HW263803   6.509   4.950  10.104
20677SOL     OW63804   3.419  13.085   8.207
20677SOL    HW163805   3.347  13.026   8.185
20677SOL    HW263806   3.399  13.166   8.161
20678SOL     OW63807  11.101  12.003   3.056
20678SOL    HW163808  11.009  12.000   3.083
20678SOL    HW263809  11.138  12.076   3.105
20679SOL     OW63810   7.522   3.889  10.387
20679SOL    HW163811   7.592   3.841  10.432
20679SOL    HW263812   7.567   3.964  10.347
20680SOL     OW63813   0.094   0.974   2.619
20680SOL    HW163814   0.070   1.016   2.701
20680SOL    HW263815   0.011   0.950   2.578
20681SOL     OW63816   4.980  10.935   0.813
20681SOL    HW163817   4.919  10.983   0.870
20681SOL    HW263818   5.050  10.998   0.795
20682SOL     OW63819   9.693   0.858   4.258
20682SOL    HW163820   9.747   0.789   4.219
20682SOL    HW263821   9.750   0.898   4.323
20683SOL     OW63822  13.298   3.957  12.025
20683SOL    HW163823  13.329   3.869  12.002
20683SOL    HW263824  13.290   4.003  11.942
20684SOL     OW63825  12.642   1.090   5.562
20684SOL    HW163826  12.555   1.070   5.595
20684SOL    HW263827  12.683   1.142   5.631
20685SOL     OW63828   4.569   9.186   3.889
20685SOL    HW163829   4.576   9.091   3.880
20685SOL    HW263830   4.488   9.208   3.843
20686SOL     OW63831  13.996   1.150  13.926
20686SOL    HW163832  14.063   1.219  13.930
20686SOL    HW263833  14.028   1.090  13.859
20687SOL     OW63834  12.226  11.317   5.466
20687SOL    HW163835  12.155  11.253   5.456
20687SOL    HW263836  12.200  11.370   5.541
20688SOL     OW63837   6.556   0.666  12.526
20688SOL    HW163838   6.574   0.651  12.434
20688SOL    HW263839   6.591   0.753  12.544
20689SOL     OW63840   8.171  13.556  13.888
20689SOL    HW163841   8.212  13.617  13.828
20689SOL    HW263842   8.226  13.557  13.966
20690SOL     OW63843   5.997  14.796   0.161
20690SOL    HW163844   6.069  14.827   0.106
20690SOL    HW263845   5.918  14.820   0.113
20691SOL     OW63846   5.838   7.796   0.902
20691SOL    HW163847   5.764   7.839   0.859
20691SOL    HW263848   5.912   7.812   0.844
20692SOL     OW63849   3.926  11.147   1.135
20692SOL    HW163850   3.852  11.166   1.077
20692SOL    HW263851   3.936  11.227   1.187
20693SOL     OW63852   4.354   5.451  14.571
20693SOL    HW163853   4.295   5.488  14.636
20693SOL    HW263854   4.432   5.425  14.621
20694SOL     OW63855  11.225   2.278   4.116
20694SOL    HW163856  11.314   2.259   4.088
20694SOL    HW263857  11.210   2.369   4.089
20695SOL     OW63858   7.323  13.936   8.716
20695SOL    HW163859   7.381  14.012   8.714
20695SOL    HW263860   7.269  13.946   8.637
20696SOL     OW63861  10.617   6.204   3.687
20696SOL    HW163862  10.630   6.144   3.760
20696SOL    HW263863  10.522   6.205   3.673
20697SOL     OW63864  10.561   6.418   1.031
20697SOL    HW163865  10.466   6.405   1.032
20697SOL    HW263866  10.586   6.416   1.124
20698SOL     OW63867  10.377   3.080   2.140
20698SOL    HW163868  10.289   3.114   2.154
20698SOL    HW263869  10.364   2.989   2.113
20699SOL     OW63870   2.460   3.301   5.465
20699SOL    HW163871   2.368   3.272   5.464
20699SOL    HW263872   2.466   3.358   5.541
20700SOL     OW63873  11.050   8.444  10.486
20700SOL    HW163874  10.967   8.398  10.493
20700SOL    HW263875  11.060   8.490  10.570
20701SOL     OW63876   8.950   7.278  14.849
20701SOL    HW163877   8.865   7.264   0.013
20701SOL    HW263878   8.987   7.354   0.016
20702SOL     OW63879   5.771  13.402  12.326
20702SOL    HW163880   5.808  13.327  12.280
20702SOL    HW263881   5.685  13.372  12.355
20703SOL     OW63882   9.661   7.344  11.279
20703SOL    HW163883   9.733   7.338  11.342
20703SOL    HW263884   9.640   7.253  11.257
20704SOL     OW63885  14.655   0.419  10.075
20704SOL    HW163886  14.616   0.338  10.109
20704SOL    HW263887  14.614   0.431   9.989
20705SOL     OW63888  13.761   4.243   8.961
20705SOL    HW163889  13.748   4.202   9.047
20705SOL    HW263890  13.683   4.297   8.948
20706SOL     OW63891   5.017  13.530   1.341
20706SOL    HW163892   5.090  13.591   1.346
20706SOL    HW263893   4.981  13.528   1.429
20707SOL     OW63894   5.029  13.534   8.719
20707SOL    HW163895   5.101  13.515   8.779
20707SOL    HW263896   4.995  13.449   8.693
20708SOL     OW63897   8.421  11.435  14.777
20708SOL    HW163898   8.488  11.367  14.790
20708SOL    HW263899   8.470  11.509  14.741
20709SOL     OW63900  11.490  13.391  10.694
20709SOL    HW163901  11.523  13.406  10.783
20709SOL    HW263902  11.539  13.315  10.663
20710SOL     OW63903   1.143  12.550  14.110
20710SOL    HW163904   1.162  12.459  14.091
20710SOL    HW263905   1.099  12.583  14.031
20711SOL     OW63906  11.514   1.249  14.069
20711SOL    HW163907  11.432   1.263  14.116
20711SOL    HW263908  11.544   1.336  14.045
20712SOL     OW63909  11.711   6.089   8.216
20712SOL    HW163910  11.725   6.011   8.269
20712SOL    HW263911  11.626   6.076   8.175
20713SOL     OW63912   2.797   9.475  13.846
20713SOL    HW163913   2.712   9.466  13.804
20713SOL    HW263914   2.821   9.567  13.834
20714SOL     OW63915  11.056  12.582   0.473
20714SOL    HW163916  11.019  12.500   0.503
20714SOL    HW263917  11.138  12.591   0.521
20715SOL     OW63918   2.740  10.488   7.337
20715SOL    HW163919   2.715  10.566   7.287
20715SOL    HW263920   2.763  10.424   7.270
20716SOL     OW63921   9.441   7.468   3.832
20716SOL    HW163922   9.533   7.469   3.857
20716SOL    HW263923   9.437   7.412   3.755
20717SOL     OW63924   7.763  13.953   5.011
20717SOL    HW163925   7.849  13.985   5.038
20717SOL    HW263926   7.734  13.897   5.083
20718SOL     OW63927   8.869  11.211  12.561
20718SOL    HW163928   8.836  11.157  12.633
20718SOL    HW263929   8.801  11.205  12.494
20719SOL     OW63930   7.944   3.908   0.105
20719SOL    HW163931   8.034   3.878   0.091
20719SOL    HW263932   7.954   3.987   0.157
20720SOL     OW63933   7.983  10.850   1.412
20720SOL    HW163934   8.056  10.793   1.436
20720SOL    HW263935   8.021  10.915   1.353
20721SOL     OW63936  12.184   1.083  14.274
20721SOL    HW163937  12.099   1.062  14.236
20721SOL    HW263938  12.203   1.010  14.333
20722SOL     OW63939   2.867  12.735   8.739
20722SOL    HW163940   2.859  12.667   8.671
20722SOL    HW263941   2.961  12.745   8.752
20723SOL     OW63942   5.230   1.751  10.049
20723SOL    HW163943   5.153   1.700  10.022
20723SOL    HW263944   5.271   1.697  10.116
20724SOL     OW63945   1.145   9.525   3.065
20724SOL    HW163946   1.195   9.483   3.135
20724SOL    HW263947   1.202   9.518   2.988
20725SOL     OW63948  11.477   0.233   7.896
20725SOL    HW163949  11.515   0.234   7.808
20725SOL    HW263950  11.452   0.324   7.912
20726SOL     OW63951   9.350  10.830  10.995
20726SOL    HW163952   9.265  10.850  10.958
20726SOL    HW263953   9.357  10.735  10.990
20727SOL     OW63954   0.982   4.430   1.016
20727SOL    HW163955   0.909   4.435   1.079
20727SOL    HW263956   0.966   4.502   0.955
20728SOL     OW63957   9.810  13.474   8.924
20728SOL    HW163958   9.829  13.453   9.016
20728SOL    HW263959   9.857  13.556   8.908
20729SOL     OW63960  13.874  13.484   1.456
20729SOL    HW163961  13.817  13.437   1.517
20729SOL    HW263962  13.941  13.523   1.512
20730SOL     OW63963   0.430  13.857   9.460
20730SOL    HW163964   0.364  13.797   9.425
20730SOL    HW263965   0.497  13.800   9.498
20731SOL     OW63966  10.286   3.345   1.965
20731SOL    HW163967  10.281   3.351   2.060
20731SOL    HW263968  10.348   3.273   1.949
20732SOL     OW63969  12.549   1.731  13.995
20732SOL    HW163970  12.643   1.748  13.997
20732SOL    HW263971  12.524   1.723  14.087
20733SOL     OW63972   3.376   5.227   2.875
20733SOL    HW163973   3.303   5.259   2.822
20733SOL    HW263974   3.355   5.135   2.890
20734SOL     OW63975   2.963  13.370  10.898
20734SOL    HW163976   2.979  13.447  10.952
20734SOL    HW263977   3.024  13.378  10.825
20735SOL     OW63978   7.083  12.219   3.061
20735SOL    HW163979   7.011  12.159   3.083
20735SOL    HW263980   7.104  12.199   2.970
20736SOL     OW63981   8.430   6.954   6.842
20736SOL    HW163982   8.369   6.981   6.773
20736SOL    HW263983   8.507   7.009   6.828
20737SOL     OW63984   4.324  14.454   7.868
20737SOL    HW163985   4.360  14.465   7.780
20737SOL    HW263986   4.287  14.366   7.868
20738SOL     OW63987   4.868  10.483  14.409
20738SOL    HW163988   4.943  10.476  14.469
20738SOL    HW263989   4.903  10.529  14.333
20739SOL     OW63990   8.388   6.398  10.385
20739SOL    HW163991   8.389   6.459  10.310
20739SOL    HW263992   8.454   6.332  10.363
20740SOL     OW63993   4.260  13.964   6.709
20740SOL    HW163994   4.212  14.013   6.642
20740SOL    HW263995   4.229  14.001   6.792
20741SOL     OW63996   7.419  13.356   8.121
20741SOL    HW163997   7.485  13.297   8.086
20741SOL    HW263998   7.336  13.312   8.104
20742SOL     OW63999   2.974   4.521   9.579
20742SOL    HW164000   2.884   4.512   9.610
20742SOL    HW264001   3.026   4.473   9.643
20743SOL     OW64002   1.648   0.270   3.803
20743SOL    HW164003   1.707   0.216   3.750
20743SOL    HW264004   1.657   0.234   3.892
20744SOL     OW64005   1.099   9.951   0.116
20744SOL    HW164006   1.182   9.925   0.077
20744SOL    HW264007   1.058   9.869   0.142
20745SOL     OW64008   3.727   0.500   1.748
20745SOL    HW164009   3.731   0.408   1.774
20745SOL    HW264010   3.637   0.526   1.763
20746SOL     OW64011  10.705  10.633   5.061
20746SOL    HW164012  10.619  10.649   5.099
20746SOL    HW264013  10.688  10.602   4.972
20747SOL     OW64014  11.937   6.969  14.684
20747SOL    HW164015  11.885   7.050  14.693
20747SOL    HW264016  11.967   6.950  14.773
20748SOL     OW64017  14.068   5.537  13.328
20748SOL    HW164018  14.103   5.478  13.261
20748SOL    HW264019  14.021   5.604  13.278
20749SOL     OW64020  11.384  11.438  11.915
20749SOL    HW164021  11.322  11.449  11.843
20749SOL    HW264022  11.341  11.375  11.973
20750SOL     OW64023   0.087   0.195  10.442
20750SOL    HW164024   0.079   0.283  10.405
20750SOL    HW264025   0.174   0.166  10.414
20751SOL     OW64026   3.803   8.727   6.699
20751SOL    HW164027   3.709   8.707   6.705
20751SOL    HW264028   3.821   8.780   6.777
20752SOL     OW64029   6.116  14.800  11.074
20752SOL    HW164030   6.105  14.792  11.169
20752SOL    HW264031   6.156  14.717  11.047
20753SOL     OW64032   9.418  12.419  11.312
20753SOL    HW164033   9.476  12.346  11.293
20753SOL    HW264034   9.417  12.426  11.408
20754SOL     OW64035  13.878   5.739   5.029
20754SOL    HW164036  13.935   5.736   4.952
20754SOL    HW264037  13.846   5.829   5.032
20755SOL     OW64038   2.933   0.365   3.145
20755SOL    HW164039   2.935   0.330   3.056
20755SOL    HW264040   2.845   0.401   3.155
20756SOL     OW64041   3.775   9.938   3.832
20756SOL    HW164042   3.721   9.883   3.889
20756SOL    HW264043   3.720  10.014   3.813
20757SOL     OW64044   0.241   5.971   9.697
20757SOL    HW164045   0.309   5.928   9.749
20757SOL    HW264046   0.238   5.921   9.615
20758SOL     OW64047  11.328   4.008   8.098
20758SOL    HW164048  11.390   3.936   8.108
20758SOL    HW264049  11.243   3.970   8.122
20759SOL     OW64050   3.387   8.206   1.512
20759SOL    HW164051   3.445   8.182   1.440
20759SOL    HW264052   3.445   8.224   1.585
20760SOL     OW64053   0.761   3.699  14.012
20760SOL    HW164054   0.808   3.724  13.932
20760SOL    HW264055   0.693   3.766  14.021
20761SOL     OW64056  11.886   7.113  12.793
20761SOL    HW164057  11.863   7.185  12.734
20761SOL    HW264058  11.818   7.116  12.861
20762SOL     OW64059   6.467   5.036   1.824
20762SOL    HW164060   6.538   5.090   1.858
20762SOL    HW264061   6.482   4.950   1.863
20763SOL     OW64062  13.896   6.332  12.055
20763SOL    HW164063  13.916   6.342  12.148
20763SOL    HW264064  13.876   6.420  12.025
20764SOL     OW64065  10.015  13.681  12.076
20764SOL    HW164066  10.041  13.596  12.042
20764SOL    HW264067  10.042  13.679  12.168
20765SOL     OW64068   3.470  12.099   8.557
20765SOL    HW164069   3.427  12.145   8.485
20765SOL    HW264070   3.546  12.153   8.578
20766SOL     OW64071   9.254  10.235   8.294
20766SOL    HW164072   9.216  10.322   8.285
20766SOL    HW264073   9.324  10.245   8.359
20767SOL     OW64074  14.854  14.824   7.701
20767SOL    HW164075   0.057  14.775   7.714
20767SOL    HW264076  14.790  14.781   7.757
20768SOL     OW64077   6.171   0.334   9.711
20768SOL    HW164078   6.226   0.394   9.760
20768SOL    HW264079   6.181   0.250   9.755
20769SOL     OW64080   5.408  13.912   3.685
20769SOL    HW164081   5.480  13.920   3.748
20769SOL    HW264082   5.350  13.985   3.707
20770SOL     OW64083   2.980   7.204   7.175
20770SOL    HW164084   3.038   7.130   7.192
20770SOL    HW264085   2.966   7.203   7.081
20771SOL     OW64086   0.549  11.431   4.151
20771SOL    HW164087   0.496  11.377   4.091
20771SOL    HW264088   0.637  11.394   4.144
20772SOL     OW64089  11.398  11.452   7.922
20772SOL    HW164090  11.306  11.449   7.897
20772SOL    HW264091  11.398  11.493   8.008
20773SOL     OW64092  11.956   8.429   8.231
20773SOL    HW164093  11.936   8.337   8.217
20773SOL    HW264094  12.018   8.451   8.161
20774SOL     OW64095   4.555   8.971  11.954
20774SOL    HW164096   4.479   8.918  11.979
20774SOL    HW264097   4.581   9.014  12.035
20775SOL     OW64098   0.167   3.717  11.846
20775SOL    HW164099   0.160   3.717  11.942
20775SOL    HW264100   0.261   3.725  11.829
20776SOL     OW64101   7.524  12.096   6.597
20776SOL    HW164102   7.553  12.031   6.533
20776SOL    HW264103   7.484  12.044   6.667
20777SOL     OW64104   6.236  12.258  12.988
20777SOL    HW164105   6.290  12.317  13.042
20777SOL    HW264106   6.245  12.172  13.031
20778SOL     OW64107   7.437   3.279   2.895
20778SOL    HW164108   7.425   3.191   2.931
20778SOL    HW264109   7.488   3.325   2.961
20779SOL     OW64110  12.151  14.818   0.452
20779SOL    HW164111  12.083   0.007   0.453
20779SOL    HW264112  12.214  14.848   0.387
20780SOL     OW64113  13.322   1.214   7.639
20780SOL    HW164114  13.313   1.273   7.564
20780SOL    HW264115  13.391   1.154   7.615
20781SOL     OW64116   5.922   5.920  12.527
20781SOL    HW164117   5.976   5.868  12.469
20781SOL    HW264118   5.949   5.894  12.615
20782SOL     OW64119   6.325   4.221  11.579
20782SOL    HW164120   6.325   4.312  11.550
20782SOL    HW264121   6.416   4.203  11.603
20783SOL     OW64122  11.020   9.277   8.171
20783SOL    HW164123  11.033   9.365   8.207
20783SOL    HW264124  11.025   9.289   8.076
20784SOL     OW64125   0.618   1.694   8.012
20784SOL    HW164126   0.641   1.759   8.079
20784SOL    HW264127   0.685   1.704   7.945
20785SOL     OW64128   7.724   5.201   7.649
20785SOL    HW164129   7.653   5.202   7.584
20785SOL    HW264130   7.802   5.179   7.598
20786SOL     OW64131   3.113   2.781  11.833
20786SOL    HW164132   3.084   2.778  11.924
20786SOL    HW264133   3.125   2.689  11.809
20787SOL     OW64134  13.968   2.080   7.163
20787SOL    HW164135  13.999   2.069   7.253
20787SOL    HW264136  13.995   2.000   7.118
20788SOL     OW64137   1.011   5.168   7.544
20788SOL    HW164138   0.998   5.196   7.453
20788SOL    HW264139   0.926   5.133   7.571
20789SOL     OW64140   5.230   2.536  14.040
20789SOL    HW164141   5.249   2.611  13.984
20789SOL    HW264142   5.223   2.573  14.129
20790SOL     OW64143   8.379   4.540   9.947
20790SOL    HW164144   8.426   4.525   9.865
20790SOL    HW264145   8.344   4.454   9.970
20791SOL     OW64146   9.815   2.478  12.816
20791SOL    HW164147   9.840   2.526  12.895
20791SOL    HW264148   9.886   2.416  12.802
20792SOL     OW64149  11.059   0.552   7.775
20792SOL    HW164150  11.130   0.537   7.713
20792SOL    HW264151  11.023   0.637   7.749
20793SOL     OW64152  12.712   7.744  14.652
20793SOL    HW164153  12.716   7.687  14.575
20793SOL    HW264154  12.769   7.817  14.631
20794SOL     OW64155  12.740   5.701  12.433
20794SOL    HW164156  12.801   5.680  12.503
20794SOL    HW264157  12.793   5.704  12.354
20795SOL     OW64158   7.994   4.162  11.149
20795SOL    HW164159   7.990   4.211  11.067
20795SOL    HW264160   7.915   4.107  11.148
20796SOL     OW64161   7.746  14.337  12.969
20796SOL    HW164162   7.827  14.359  13.013
20796SOL    HW264163   7.680  14.396  13.008
20797SOL     OW64164   6.895   0.860   5.831
20797SOL    HW164165   6.982   0.830   5.858
20797SOL    HW264166   6.893   0.952   5.853
20798SOL     OW64167   3.347  11.213  11.724
20798SOL    HW164168   3.286  11.225  11.651
20798SOL    HW264169   3.360  11.302  11.759
20799SOL     OW64170   5.638   9.199   9.686
20799SOL    HW164171   5.603   9.119   9.646
20799SOL    HW264172   5.565   9.261   9.684
20800SOL     OW64173  13.344  11.001  13.771
20800SOL    HW164174  13.386  11.086  13.764
20800SOL    HW264175  13.408  10.945  13.815
20801SOL     OW64176  13.524   4.781   5.994
20801SOL    HW164177  13.459   4.847   5.968
20801SOL    HW264178  13.606   4.811   5.954
20802SOL     OW64179   9.267   1.178   6.293
20802SOL    HW164180   9.339   1.232   6.326
20802SOL    HW264181   9.300   1.144   6.209
20803SOL     OW64182   6.971   8.891   2.853
20803SOL    HW164183   7.047   8.839   2.880
20803SOL    HW264184   6.933   8.841   2.781
20804SOL     OW64185  12.101  13.729   1.677
20804SOL    HW164186  12.035  13.733   1.746
20804SOL    HW264187  12.050  13.712   1.597
20805SOL     OW64188   5.818  13.726   1.784
20805SOL    HW164189   5.747  13.744   1.846
20805SOL    HW264190   5.865  13.652   1.822
20806SOL     OW64191  11.089   4.496   8.873
20806SOL    HW164192  11.111   4.447   8.953
20806SOL    HW264193  11.150   4.570   8.872
20807SOL     OW64194   8.355   0.061  11.613
20807SOL    HW164195   8.271   0.030  11.579
20807SOL    HW264196   8.420   0.020  11.557
20808SOL     OW64197   5.347   3.074   8.052
20808SOL    HW164198   5.318   3.121   7.974
20808SOL    HW264199   5.337   2.981   8.030
20809SOL     OW64200  13.552   3.685   0.411
20809SOL    HW164201  13.625   3.651   0.359
20809SOL    HW264202  13.588   3.763   0.453
20810SOL     OW64203   9.157   3.914   7.411
20810SOL    HW164204   9.072   3.947   7.383
20810SOL    HW264205   9.170   3.834   7.359
20811SOL     OW64206   6.071   6.408   1.941
20811SOL    HW164207   6.102   6.344   1.876
20811SOL    HW264208   6.143   6.471   1.948
20812SOL     OW64209  13.891  10.301   8.664
20812SOL    HW164210  13.958  10.327   8.601
20812SOL    HW264211  13.935  10.300   8.748
20813SOL     OW64212   4.330  12.440   4.825
20813SOL    HW164213   4.381  12.365   4.855
20813SOL    HW264214   4.393  12.512   4.820
20814SOL     OW64215  14.702   9.230   3.394
20814SOL    HW164216  14.702   9.310   3.341
20814SOL    HW264217  14.793   9.217   3.419
20815SOL     OW64218   5.487   2.005   2.137
20815SOL    HW164219   5.453   1.950   2.066
20815SOL    HW264220   5.576   1.973   2.152
20816SOL     OW64221  13.192  14.191  12.474
20816SOL    HW164222  13.214  14.103  12.442
20816SOL    HW264223  13.132  14.176  12.547
20817SOL     OW64224   4.480   0.807  13.761
20817SOL    HW164225   4.561   0.804  13.709
20817SOL    HW264226   4.411   0.786  13.699
20818SOL     OW64227   6.235  14.816   8.773
20818SOL    HW164228   6.206  14.810   8.865
20818SOL    HW264229   6.259  14.726   8.750
20819SOL     OW64230   0.157   5.650   1.222
20819SOL    HW164231   0.077   5.622   1.177
20819SOL    HW264232   0.149   5.613   1.310
20820SOL     OW64233  13.380  10.340  11.287
20820SOL    HW164234  13.310  10.314  11.347
20820SOL    HW264235  13.460  10.329  11.337
20821SOL     OW64236  14.709  11.041   2.185
20821SOL    HW164237  14.782  11.096   2.214
20821SOL    HW264238  14.659  11.096   2.126
20822SOL     OW64239  14.308   5.069   4.357
20822SOL    HW164240  14.360   5.038   4.283
20822SOL    HW264241  14.235   5.007   4.364
20823SOL     OW64242  13.220   4.367   9.193
20823SOL    HW164243  13.293   4.305   9.199
20823SOL    HW264244  13.175   4.361   9.277
20824SOL     OW64245   2.008   0.106  14.096
20824SOL    HW164246   2.079   0.048  14.123
20824SOL    HW264247   2.030   0.190  14.135
20825SOL     OW64248   0.745   5.472  14.435
20825SOL    HW164249   0.757   5.567  14.435
20825SOL    HW264250   0.699   5.454  14.353
20826SOL     OW64251   2.320   8.307   1.731
20826SOL    HW164252   2.303   8.215   1.752
20826SOL    HW264253   2.299   8.355   1.811
20827SOL     OW64254   2.365   4.248   4.162
20827SOL    HW164255   2.450   4.220   4.196
20827SOL    HW264256   2.378   4.255   4.068
20828SOL     OW64257   7.840   1.530  10.925
20828SOL    HW164258   7.863   1.604  10.981
20828SOL    HW264259   7.842   1.565  10.837
20829SOL     OW64260  10.887   0.782   1.517
20829SOL    HW164261  10.842   0.852   1.566
20829SOL    HW264262  10.950   0.828   1.462
20830SOL     OW64263   6.590   6.786  12.015
20830SOL    HW164264   6.548   6.802  12.100
20830SOL    HW264265   6.518   6.782  11.953
20831SOL     OW64266   6.165   8.124   7.097
20831SOL    HW164267   6.244   8.167   7.067
20831SOL    HW264268   6.195   8.058   7.160
20832SOL     OW64269   0.379   7.590   4.572
20832SOL    HW164270   0.303   7.534   4.557
20832SOL    HW264271   0.347   7.659   4.630
20833SOL     OW64272  11.438  11.080   4.600
20833SOL    HW164273  11.497  11.047   4.533
20833SOL    HW264274  11.477  11.163   4.628
20834SOL     OW64275   6.794   6.662  13.598
20834SOL    HW164276   6.776   6.658  13.692
20834SOL    HW264277   6.736   6.597  13.560
20835SOL     OW64278   2.587   9.235   7.118
20835SOL    HW164279   2.646   9.257   7.190
20835SOL    HW264280   2.630   9.162   7.073
20836SOL     OW64281   2.413   9.266   5.483
20836SOL    HW164282   2.444   9.307   5.402
20836SOL    HW264283   2.360   9.191   5.453
20837SOL     OW64284   6.076  11.127   5.370
20837SOL    HW164285   6.020  11.105   5.295
20837SOL    HW264286   6.113  11.213   5.347
20838SOL     OW64287   5.155   1.765   2.216
20838SOL    HW164288   5.112   1.830   2.271
20838SOL    HW264289   5.105   1.685   2.229
20839SOL     OW64290  14.644   0.656   3.044
20839SOL    HW164291  14.698   0.685   3.118
20839SOL    HW264292  14.681   0.701   2.968
20840SOL     OW64293  13.927  11.933   5.331
20840SOL    HW164294  13.928  11.993   5.405
20840SOL    HW264295  13.847  11.882   5.342
20841SOL     OW64296   4.800  10.599  12.121
20841SOL    HW164297   4.711  10.603  12.086
20841SOL    HW264298   4.844  10.675  12.085
20842SOL     OW64299  10.806   9.842   8.140
20842SOL    HW164300  10.729   9.812   8.189
20842SOL    HW264301  10.854   9.896   8.203
20843SOL     OW64302  14.658  13.503   4.238
20843SOL    HW164303  14.585  13.477   4.181
20843SOL    HW264304  14.643  13.596   4.256
20844SOL     OW64305  13.915  12.042   8.992
20844SOL    HW164306  13.823  12.065   9.006
20844SOL    HW264307  13.933  12.072   8.903
20845SOL     OW64308   7.193  12.156   9.334
20845SOL    HW164309   7.269  12.151   9.276
20845SOL    HW264310   7.161  12.066   9.337
20846SOL     OW64311  10.659  11.282  10.828
20846SOL    HW164312  10.583  11.317  10.875
20846SOL    HW264313  10.707  11.232  10.895
20847SOL     OW64314  12.414   9.057   9.453
20847SOL    HW164315  12.335   9.106   9.475
20847SOL    HW264316  12.477   9.081   9.522
20848SOL     OW64317   7.398   2.062   5.690
20848SOL    HW164318   7.405   2.155   5.711
20848SOL    HW264319   7.305   2.046   5.676
20849SOL     OW64320   8.143  12.648  12.284
20849SOL    HW164321   8.081  12.587  12.244
20849SOL    HW264322   8.199  12.593  12.339
20850SOL     OW64323   8.892   8.730  10.631
20850SOL    HW164324   8.970   8.777  10.604
20850SOL    HW264325   8.850   8.702  10.550
20851SOL     OW64326  11.117  12.268  12.435
20851SOL    HW164327  11.125  12.190  12.489
20851SOL    HW264328  11.133  12.237  12.346
20852SOL     OW64329  11.609  11.503   6.512
20852SOL    HW164330  11.698  11.509   6.479
20852SOL    HW264331  11.577  11.418   6.480
20853SOL     OW64332  12.717  10.152   9.629
20853SOL    HW164333  12.800  10.110   9.652
20853SOL    HW264334  12.720  10.238   9.671
20854SOL     OW64335   9.141  11.931   2.727
20854SOL    HW164336   9.192  12.012   2.736
20854SOL    HW264337   9.148  11.909   2.634
20855SOL     OW64338   6.296   4.889   4.724
20855SOL    HW164339   6.238   4.956   4.760
20855SOL    HW264340   6.268   4.807   4.765
20856SOL     OW64341   2.636   4.870   1.847
20856SOL    HW164342   2.574   4.797   1.854
20856SOL    HW264343   2.720   4.829   1.830
20857SOL     OW64344   1.945   0.517   4.835
20857SOL    HW164345   1.991   0.447   4.881
20857SOL    HW264346   2.002   0.594   4.847
20858SOL     OW64347   2.460   0.128   3.932
20858SOL    HW164348   2.382   0.162   3.976
20858SOL    HW264349   2.526   0.123   4.001
20859SOL     OW64350   4.057   8.032   9.132
20859SOL    HW164351   4.099   8.007   9.050
20859SOL    HW264352   4.089   7.968   9.196
20860SOL     OW64353   6.711   6.642  11.173
20860SOL    HW164354   6.786   6.586  11.193
20860SOL    HW264355   6.730   6.724  11.219
20861SOL     OW64356   3.054   3.970   2.083
20861SOL    HW164357   3.037   3.919   2.004
20861SOL    HW264358   2.999   4.048   2.073
20862SOL     OW64359   0.855   3.674  12.753
20862SOL    HW164360   0.799   3.600  12.778
20862SOL    HW264361   0.943   3.637  12.750
20863SOL     OW64362   5.260   4.208  12.159
20863SOL    HW164363   5.259   4.249  12.072
20863SOL    HW264364   5.338   4.245  12.202
20864SOL     OW64365   4.494  13.223  12.238
20864SOL    HW164366   4.465  13.313  12.219
20864SOL    HW264367   4.484  13.177  12.154
20865SOL     OW64368   8.507  11.029   1.266
20865SOL    HW164369   8.543  11.035   1.178
20865SOL    HW264370   8.476  10.939   1.273
20866SOL     OW64371   1.061   2.101   9.954
20866SOL    HW164372   1.048   2.138  10.041
20866SOL    HW264373   0.974   2.072   9.927
20867SOL     OW64374  14.872  12.465   1.935
20867SOL    HW164375  14.844  12.477   1.844
20867SOL    HW264376   0.024  12.375   1.939
20868SOL     OW64377   6.112  13.180   9.816
20868SOL    HW164378   6.173  13.132   9.873
20868SOL    HW264379   6.040  13.119   9.802
20869SOL     OW64380   0.741  12.080   1.065
20869SOL    HW164381   0.749  12.073   0.969
20869SOL    HW264382   0.662  12.132   1.078
20870SOL     OW64383  10.594   2.980  14.337
20870SOL    HW164384  10.512   2.938  14.362
20870SOL    HW264385  10.573   3.027  14.255
20871SOL     OW64386  13.511   6.957   8.963
20871SOL    HW164387  13.530   7.044   8.996
20871SOL    HW264388  13.442   6.923   9.020
20872SOL     OW64389  12.757   4.863   8.781
20872SOL    HW164390  12.755   4.946   8.733
20872SOL    HW264391  12.848   4.835   8.777
20873SOL     OW64392  12.457   8.111   0.053
20873SOL    HW164393  12.547   8.141   0.059
20873SOL    HW264394  12.463   8.023   0.015
20874SOL     OW64395  10.859   5.024  11.011
20874SOL    HW164396  10.943   4.988  10.982
20874SOL    HW264397  10.812   5.042  10.929
20875SOL     OW64398   3.065   1.328   3.667
20875SOL    HW164399   2.989   1.297   3.715
20875SOL    HW264400   3.104   1.394   3.724
20876SOL     OW64401  11.806   4.399   2.988
20876SOL    HW164402  11.883   4.456   2.982
20876SOL    HW264403  11.842   4.312   3.006
20877SOL     OW64404   2.384  14.002  11.889
20877SOL    HW164405   2.336  13.936  11.838
20877SOL    HW264406   2.377  13.972  11.979
20878SOL     OW64407   7.496  10.662  10.171
20878SOL    HW164408   7.522  10.635  10.259
20878SOL    HW264409   7.438  10.592  10.141
20879SOL     OW64410   9.098   6.494   2.079
20879SOL    HW164411   9.069   6.437   2.151
20879SOL    HW264412   9.088   6.440   2.001
20880SOL     OW64413   0.442   4.422   8.308
20880SOL    HW164414   0.434   4.329   8.291
20880SOL    HW264415   0.523   4.448   8.264
20881SOL     OW64416  10.324  11.273  11.366
20881SOL    HW164417  10.351  11.216  11.439
20881SOL    HW264418  10.311  11.358  11.407
20882SOL     OW64419  11.434   0.468  10.510
20882SOL    HW164420  11.473   0.549  10.543
20882SOL    HW264421  11.486   0.445  10.433
20883SOL     OW64422   8.978   7.123   6.064
20883SOL    HW164423   8.958   7.217   6.058
20883SOL    HW264424   9.046   7.118   6.131
20884SOL     OW64425   6.248  14.105   8.610
20884SOL    HW164426   6.183  14.035   8.617
20884SOL    HW264427   6.329  14.059   8.585
20885SOL     OW64428   2.080  13.595   1.714
20885SOL    HW164429   1.987  13.600   1.736
20885SOL    HW264430   2.113  13.522   1.766
20886SOL     OW64431   0.258   7.223   8.055
20886SOL    HW164432   0.227   7.201   7.967
20886SOL    HW264433   0.248   7.142   8.105
20887SOL     OW64434  12.284   0.449   2.823
20887SOL    HW164435  12.273   0.388   2.750
20887SOL    HW264436  12.205   0.503   2.822
20888SOL     OW64437   3.423  12.804   4.162
20888SOL    HW164438   3.442  12.897   4.178
20888SOL    HW264439   3.387  12.773   4.245
20889SOL     OW64440  10.131  11.128  13.433
20889SOL    HW164441  10.078  11.049  13.433
20889SOL    HW264442  10.098  11.180  13.507
20890SOL     OW64443  11.432   5.237   6.439
20890SOL    HW164444  11.388   5.204   6.360
20890SOL    HW264445  11.411   5.172   6.506
20891SOL     OW64446   6.333   4.433   4.231
20891SOL    HW164447   6.342   4.497   4.160
20891SOL    HW264448   6.304   4.484   4.307
20892SOL     OW64449   8.882  13.043   7.825
20892SOL    HW164450   8.959  13.092   7.796
20892SOL    HW264451   8.883  12.963   7.772
20893SOL     OW64452  14.214  13.705   3.059
20893SOL    HW164453  14.223  13.757   2.979
20893SOL    HW264454  14.129  13.731   3.095
20894SOL     OW64455   0.333   4.400   9.862
20894SOL    HW164456   0.262   4.416   9.799
20894SOL    HW264457   0.397   4.349   9.813
20895SOL     OW64458  13.559   6.958  14.605
20895SOL    HW164459  13.529   6.977  14.516
20895SOL    HW264460  13.654   6.964  14.600
20896SOL     OW64461  11.332   9.663  13.512
20896SOL    HW164462  11.394   9.601  13.473
20896SOL    HW264463  11.364   9.749  13.486
20897SOL     OW64464   8.155  13.443   7.801
20897SOL    HW164465   8.202  13.368   7.766
20897SOL    HW264466   8.064  13.415   7.804
20898SOL     OW64467   8.046   2.449  14.431
20898SOL    HW164468   8.050   2.540  14.460
20898SOL    HW264469   8.137   2.423  14.420
20899SOL     OW64470  13.293   7.000  14.670
20899SOL    HW164471  13.279   6.911  14.703
20899SOL    HW264472  13.383   7.000  14.637
20900SOL     OW64473   6.414   9.952   3.327
20900SOL    HW164474   6.410   9.864   3.364
20900SOL    HW264475   6.502   9.983   3.347
20901SOL     OW64476   0.870   1.719   5.209
20901SOL    HW164477   0.929   1.787   5.174
20901SOL    HW264478   0.892   1.641   5.159
20902SOL     OW64479  10.588   4.081  10.462
20902SOL    HW164480  10.662   4.130  10.497
20902SOL    HW264481  10.613   4.062  10.371
20903SOL     OW64482   9.292   1.717  10.572
20903SOL    HW164483   9.347   1.791  10.545
20903SOL    HW264484   9.276   1.732  10.666
20904SOL     OW64485   8.337   5.809   9.581
20904SOL    HW164486   8.392   5.730   9.589
20904SOL    HW264487   8.397   5.882   9.596
20905SOL     OW64488   7.758  12.819  12.147
20905SOL    HW164489   7.837  12.850  12.190
20905SOL    HW264490   7.775  12.831  12.053
20906SOL     OW64491   5.424   2.616   1.350
20906SOL    HW164492   5.479   2.571   1.414
20906SOL    HW264493   5.348   2.646   1.400
20907SOL     OW64494   8.146   3.644  13.836
20907SOL    HW164495   8.178   3.657  13.925
20907SOL    HW264496   8.214   3.592  13.793
20908SOL     OW64497  13.415   8.889  10.683
20908SOL    HW164498  13.446   8.892  10.593
20908SOL    HW264499  13.389   8.979  10.702
20909SOL     OW64500   7.185  13.151   4.926
20909SOL    HW164501   7.116  13.216   4.924
20909SOL    HW264502   7.189  13.124   5.018
20910SOL     OW64503   8.103  10.973   3.426
20910SOL    HW164504   8.065  10.939   3.507
20910SOL    HW264505   8.096  11.068   3.434
20911SOL     OW64506   5.916   5.471   7.623
20911SOL    HW164507   5.963   5.500   7.702
20911SOL    HW264508   5.954   5.524   7.552
20912SOL     OW64509   1.894   5.858  14.172
20912SOL    HW164510   1.837   5.908  14.114
20912SOL    HW264511   1.873   5.767  14.153
20913SOL     OW64512  12.906   7.843   5.370
20913SOL    HW164513  12.930   7.905   5.301
20913SOL    HW264514  12.980   7.781   5.372
20914SOL     OW64515   0.374   7.676   8.088
20914SOL    HW164516   0.400   7.599   8.036
20914SOL    HW264517   0.370   7.643   8.178
20915SOL     OW64518   6.030   5.852  11.667
20915SOL    HW164519   6.118   5.841  11.702
20915SOL    HW264520   5.991   5.765  11.669
20916SOL     OW64521  14.787   8.318   6.285
20916SOL    HW164522  14.800   8.390   6.222
20916SOL    HW264523  14.856   8.331   6.350
20917SOL     OW64524   3.749  11.234   7.048
20917SOL    HW164525   3.778  11.292   6.977
20917SOL    HW264526   3.823  11.232   7.109
20918SOL     OW64527  12.015   9.824   4.738
20918SOL    HW164528  12.104   9.852   4.719
20918SOL    HW264529  12.019   9.789   4.827
20919SOL     OW64530   7.009   3.018  11.920
20919SOL    HW164531   7.053   3.011  12.005
20919SOL    HW264532   6.975   2.930  11.904
20920SOL     OW64533   8.495  12.720  13.895
20920SOL    HW164534   8.570  12.679  13.854
20920SOL    HW264535   8.421  12.662  13.876
20921SOL     OW64536   3.837   9.339   4.547
20921SOL    HW164537   3.874   9.266   4.498
20921SOL    HW264538   3.742   9.329   4.536
20922SOL     OW64539   6.900  13.742  12.831
20922SOL    HW164540   6.861  13.776  12.751
20922SOL    HW264541   6.845  13.776  12.901
20923SOL     OW64542   1.807   9.658   5.544
20923SOL    HW164543   1.780   9.572   5.578
20923SOL    HW264544   1.770   9.720   5.607
20924SOL     OW64545  10.205   8.512   1.308
20924SOL    HW164546  10.234   8.426   1.338
20924SOL    HW264547  10.278   8.545   1.256
20925SOL     OW64548   4.563   7.783   1.434
20925SOL    HW164549   4.575   7.870   1.474
20925SOL    HW264550   4.641   7.771   1.380
20926SOL     OW64551   7.491  14.307   0.049
20926SOL    HW164552   7.453  14.367  14.863
20926SOL    HW264553   7.477  14.349   0.133
20927SOL     OW64554  10.259   3.881  11.899
20927SOL    HW164555  10.197   3.808  11.912
20927SOL    HW264556  10.221   3.932  11.827
20928SOL     OW64557  11.407   5.867  10.466
20928SOL    HW164558  11.473   5.933  10.488
20928SOL    HW264559  11.353   5.861  10.544
20929SOL     OW64560   3.143  14.173   7.345
20929SOL    HW164561   3.183  14.259   7.337
20929SOL    HW264562   3.209  14.112   7.313
20930SOL     OW64563  12.564   3.718   1.723
20930SOL    HW164564  12.619   3.646   1.691
20930SOL    HW264565  12.622   3.793   1.726
20931SOL     OW64566   2.469  14.469   5.983
20931SOL    HW164567   2.548  14.427   6.019
20931SOL    HW264568   2.418  14.493   6.060
20932SOL     OW64569   4.096   0.791  12.686
20932SOL    HW164570   4.149   0.811  12.609
20932SOL    HW264571   4.094   0.695  12.690
20933SOL     OW64572   1.317   1.556  12.975
20933SOL    HW164573   1.389   1.616  12.994
20933SOL    HW264574   1.281   1.534  13.060
20934SOL     OW64575  12.300   4.035  12.381
20934SOL    HW164576  12.286   4.125  12.351
20934SOL    HW264577  12.248   3.982  12.321
20935SOL     OW64578   2.883   9.884   8.743
20935SOL    HW164579   2.876   9.843   8.829
20935SOL    HW264580   2.809   9.946   8.740
20936SOL     OW64581  13.282   1.501   5.502
20936SOL    HW164582  13.255   1.586   5.537
20936SOL    HW264583  13.306   1.519   5.412
20937SOL     OW64584   8.447   4.351  12.956
20937SOL    HW164585   8.434   4.368  13.049
20937SOL    HW264586   8.391   4.276  12.937
20938SOL     OW64587   3.009   8.142   4.603
20938SOL    HW164588   3.043   8.089   4.675
20938SOL    HW264589   3.049   8.104   4.524
20939SOL     OW64590  12.823   9.492   1.515
20939SOL    HW164591  12.856   9.403   1.507
20939SOL    HW264592  12.739   9.482   1.559
20940SOL     OW64593  11.109  11.507   4.627
20940SOL    HW164594  11.148  11.591   4.602
20940SOL    HW264595  11.170  11.441   4.592
20941SOL     OW64596   6.424   8.524   1.629
20941SOL    HW164597   6.369   8.599   1.654
20941SOL    HW264598   6.391   8.498   1.543
20942SOL     OW64599  10.031   2.475  13.915
20942SOL    HW164600  10.036   2.474  13.819
20942SOL    HW264601  10.099   2.537  13.942
20943SOL     OW64602  10.405   2.451  10.536
20943SOL    HW164603  10.385   2.542  10.555
20943SOL    HW264604  10.429   2.451  10.443
20944SOL     OW64605  13.272  13.729  10.373
20944SOL    HW164606  13.243  13.751  10.284
20944SOL    HW264607  13.322  13.805  10.401
20945SOL     OW64608   4.114   7.107   0.549
20945SOL    HW164609   4.100   7.193   0.590
20945SOL    HW264610   4.035   7.057   0.569
20946SOL     OW64611  14.739   8.053  12.686
20946SOL    HW164612  14.788   8.133  12.709
20946SOL    HW264613  14.648   8.081  12.682
20947SOL     OW64614   3.231   0.540  12.337
20947SOL    HW164615   3.257   0.565  12.248
20947SOL    HW264616   3.289   0.468  12.360
20948SOL     OW64617   4.908   3.547   7.478
20948SOL    HW164618   4.890   3.516   7.567
20948SOL    HW264619   4.853   3.492   7.422
20949SOL     OW64620  10.028  11.367   6.718
20949SOL    HW164621  10.090  11.398   6.652
20949SOL    HW264622   9.952  11.338   6.668
20950SOL     OW64623   3.762  12.555  11.110
20950SOL    HW164624   3.854  12.532  11.097
20950SOL    HW264625   3.754  12.571  11.204
20951SOL     OW64626   4.855   9.307  10.583
20951SOL    HW164627   4.783   9.307  10.646
20951SOL    HW264628   4.894   9.220  10.590
20952SOL     OW64629   2.496  11.658   6.888
20952SOL    HW164630   2.502  11.563   6.883
20952SOL    HW264631   2.424  11.681   6.829
20953SOL     OW64632   9.118   5.968  10.942
20953SOL    HW164633   9.049   5.910  10.909
20953SOL    HW264634   9.176   5.911  10.991
20954SOL     OW64635  12.659   9.029  10.437
20954SOL    HW164636  12.652   9.080  10.356
20954SOL    HW264637  12.705   9.087  10.498
20955SOL     OW64638  13.185   9.363   0.185
20955SOL    HW164639  13.217   9.329   0.268
20955SOL    HW264640  13.191   9.458   0.194
20956SOL     OW64641  11.696   8.422   0.357
20956SOL    HW164642  11.705   8.510   0.320
20956SOL    HW264643  11.749   8.366   0.301
20957SOL     OW64644   4.820   2.606  12.051
20957SOL    HW164645   4.761   2.624  12.124
20957SOL    HW264646   4.812   2.682  11.994
20958SOL     OW64647  11.442   3.316   1.643
20958SOL    HW164648  11.392   3.306   1.724
20958SOL    HW264649  11.382   3.360   1.582
20959SOL     OW64650   0.280   8.212   5.589
20959SOL    HW164651   0.226   8.137   5.613
20959SOL    HW264652   0.355   8.207   5.647
20960SOL     OW64653   4.903   7.319   6.752
20960SOL    HW164654   4.878   7.237   6.793
20960SOL    HW264655   4.974   7.353   6.806
20961SOL     OW64656   2.095  11.905   5.536
20961SOL    HW164657   2.078  11.983   5.483
20961SOL    HW264658   2.144  11.847   5.478
20962SOL     OW64659   7.211   4.604   8.854
20962SOL    HW164660   7.154   4.624   8.780
20962SOL    HW264661   7.176   4.523   8.891
20963SOL     OW64662   9.877   5.848   6.509
20963SOL    HW164663   9.896   5.880   6.421
20963SOL    HW264664   9.792   5.886   6.530
20964SOL     OW64665   8.554   4.575  13.625
20964SOL    HW164666   8.533   4.537  13.710
20964SOL    HW264667   8.618   4.644  13.644
20965SOL     OW64668   7.592  14.630   3.322
20965SOL    HW164669   7.524  14.697   3.310
20965SOL    HW264670   7.562  14.580   3.398
20966SOL     OW64671   7.282  13.677   5.950
20966SOL    HW164672   7.251  13.738   6.016
20966SOL    HW264673   7.238  13.594   5.972
20967SOL     OW64674  12.122  14.480   2.034
20967SOL    HW164675  12.086  14.464   1.947
20967SOL    HW264676  12.045  14.489   2.091
20968SOL     OW64677   8.676   4.316   3.295
20968SOL    HW164678   8.683   4.403   3.333
20968SOL    HW264679   8.627   4.265   3.359
20969SOL     OW64680   5.153   7.459   1.819
20969SOL    HW164681   5.064   7.493   1.823
20969SOL    HW264682   5.182   7.458   1.911
20970SOL     OW64683   1.594   8.577   9.826
20970SOL    HW164684   1.622   8.619   9.745
20970SOL    HW264685   1.577   8.650   9.886
20971SOL     OW64686   9.527   6.746   6.670
20971SOL    HW164687   9.548   6.780   6.757
20971SOL    HW264688   9.488   6.820   6.624
20972SOL     OW64689  11.781   7.900   6.366
20972SOL    HW164690  11.876   7.904   6.352
20972SOL    HW264691  11.744   7.890   6.278
20973SOL     OW64692   9.311   9.746   0.334
20973SOL    HW164693   9.384   9.717   0.388
20973SOL    HW264694   9.311   9.841   0.341
20974SOL     OW64695   0.198   9.812   0.371
20974SOL    HW164696   0.250   9.764   0.307
20974SOL    HW264697   0.195   9.901   0.336
20975SOL     OW64698   8.485   9.774   8.880
20975SOL    HW164699   8.546   9.774   8.806
20975SOL    HW264700   8.415   9.715   8.852
20976SOL     OW64701   0.653  12.610   1.292
20976SOL    HW164702   0.568  12.652   1.281
20976SOL    HW264703   0.693  12.655   1.367
20977SOL     OW64704   7.898  11.833  14.536
20977SOL    HW164705   7.899  11.783  14.455
20977SOL    HW264706   7.812  11.815  14.574
20978SOL     OW64707   6.237   4.193   7.034
20978SOL    HW164708   6.189   4.111   7.041
20978SOL    HW264709   6.309   4.173   6.973
20979SOL     OW64710   4.747   3.721   6.595
20979SOL    HW164711   4.829   3.683   6.564
20979SOL    HW264712   4.679   3.678   6.542
20980SOL     OW64713  12.826   2.748   2.904
20980SOL    HW164714  12.767   2.738   2.979
20980SOL    HW264715  12.787   2.693   2.836
20981SOL     OW64716  11.033   0.310   6.248
20981SOL    HW164717  10.962   0.285   6.189
20981SOL    HW264718  11.105   0.250   6.225
20982SOL     OW64719   1.370   4.823   0.677
20982SOL    HW164720   1.368   4.835   0.582
20982SOL    HW264721   1.421   4.743   0.690
20983SOL     OW64722   8.278  12.748  11.603
20983SOL    HW164723   8.257  12.657  11.622
20983SOL    HW264724   8.273  12.792  11.688
20984SOL     OW64725   6.655   0.042   7.035
20984SOL    HW164726   6.658   0.130   6.998
20984SOL    HW264727   6.679  14.863   6.962
20985SOL     OW64728   1.085   7.235  13.143
20985SOL    HW164729   1.041   7.168  13.091
20985SOL    HW264730   1.067   7.317  13.097
20986SOL     OW64731   0.852   0.065   2.540
20986SOL    HW164732   0.813   0.011   2.472
20986SOL    HW264733   0.905   0.129   2.493
20987SOL     OW64734  14.381   5.572   6.531
20987SOL    HW164735  14.366   5.657   6.489
20987SOL    HW264736  14.389   5.592   6.624
20988SOL     OW64737  13.539   6.757  12.232
20988SOL    HW164738  13.567   6.836  12.186
20988SOL    HW264739  13.445   6.751  12.215
20989SOL     OW64740   7.992   1.888  13.986
20989SOL    HW164741   8.050   1.964  13.981
20989SOL    HW264742   7.985   1.869  14.080
20990SOL     OW64743   7.703   2.730   2.479
20990SOL    HW164744   7.646   2.655   2.497
20990SOL    HW264745   7.659   2.804   2.520
20991SOL     OW64746   8.751   3.677  12.345
20991SOL    HW164747   8.657   3.687  12.360
20991SOL    HW264748   8.785   3.641  12.427
20992SOL     OW64749  10.221   2.890   7.653
20992SOL    HW164750  10.266   2.820   7.605
20992SOL    HW264751  10.184   2.946   7.585
20993SOL     OW64752  10.585  10.895   2.078
20993SOL    HW164753  10.506  10.943   2.105
20993SOL    HW264754  10.589  10.907   1.983
20994SOL     OW64755   6.746   6.657   3.562
20994SOL    HW164756   6.727   6.734   3.616
20994SOL    HW264757   6.749   6.585   3.625
20995SOL     OW64758   8.906  12.916   6.089
20995SOL    HW164759   8.909  12.820   6.097
20995SOL    HW264760   8.902  12.947   6.179
20996SOL     OW64761   9.097   0.148   2.455
20996SOL    HW164762   9.050   0.174   2.534
20996SOL    HW264763   9.087   0.222   2.395
20997SOL     OW64764   2.910   4.888   4.756
20997SOL    HW164765   2.894   4.806   4.801
20997SOL    HW264766   3.004   4.903   4.765
20998SOL     OW64767   5.217   3.648  12.647
20998SOL    HW164768   5.213   3.696  12.729
20998SOL    HW264769   5.198   3.713  12.580
20999SOL     OW64770   0.948  14.349   0.008
20999SOL    HW164771   1.006  14.291   0.057
20999SOL    HW264772   1.007  14.398  14.827
21000SOL     OW64773  12.870  14.874   4.300
21000SOL    HW164774  12.854  14.788   4.337
21000SOL    HW264775  12.806   0.054   4.343
21001SOL     OW64776   8.288   7.613  14.079
21001SOL    HW164777   8.244   7.698  14.069
21001SOL    HW264778   8.381   7.635  14.079
21002SOL     OW64779   2.804   8.121   5.491
21002SOL    HW164780   2.714   8.095   5.475
21002SOL    HW264781   2.838   8.146   5.405
21003SOL     OW64782   1.458   9.588   7.600
21003SOL    HW164783   1.508   9.583   7.519
21003SOL    HW264784   1.502   9.526   7.659
21004SOL     OW64785   8.409   0.189  14.391
21004SOL    HW164786   8.391   0.109  14.342
21004SOL    HW264787   8.496   0.216  14.362
21005SOL     OW64788   6.583   4.795   5.828
21005SOL    HW164789   6.557   4.844   5.906
21005SOL    HW264790   6.662   4.749   5.853
21006SOL     OW64791   2.694   2.006  12.856
21006SOL    HW164792   2.613   1.995  12.906
21006SOL    HW264793   2.669   1.989  12.765
21007SOL     OW64794  14.387   4.900   1.838
21007SOL    HW164795  14.445   4.947   1.779
21007SOL    HW264796  14.339   4.840   1.782
21008SOL     OW64797   9.846  13.405   2.915
21008SOL    HW164798   9.935  13.377   2.894
21008SOL    HW264799   9.857  13.493   2.951
21009SOL     OW64800  10.438   5.183   6.238
21009SOL    HW164801  10.485   5.129   6.176
21009SOL    HW264802  10.441   5.271   6.201
21010SOL     OW64803  14.295   1.089   3.390
21010SOL    HW164804  14.270   1.115   3.301
21010SOL    HW264805  14.217   1.106   3.443
21011SOL     OW64806   4.140   2.418   6.396
21011SOL    HW164807   4.093   2.462   6.325
21011SOL    HW264808   4.158   2.330   6.361
21012SOL     OW64809   1.641   6.861   5.266
21012SOL    HW164810   1.736   6.850   5.260
21012SOL    HW264811   1.611   6.780   5.307
21013SOL     OW64812   5.432   6.860   2.637
21013SOL    HW164813   5.337   6.863   2.638
21013SOL    HW264814   5.455   6.819   2.721
21014SOL     OW64815  13.337   1.718   5.281
21014SOL    HW164816  13.413   1.769   5.307
21014SOL    HW264817  13.264   1.779   5.287
21015SOL     OW64818   5.956   2.810   6.773
21015SOL    HW164819   5.888   2.757   6.731
21015SOL    HW264820   6.037   2.778   6.734
21016SOL     OW64821  12.333   5.631   0.340
21016SOL    HW164822  12.297   5.582   0.266
21016SOL    HW264823  12.427   5.614   0.337
21017SOL     OW64824   2.584   1.878  11.962
21017SOL    HW164825   2.506   1.934  11.963
21017SOL    HW264826   2.630   1.899  12.043
21018SOL     OW64827   8.227  10.928   6.961
21018SOL    HW164828   8.314  10.921   7.002
21018SOL    HW264829   8.222  10.851   6.904
21019SOL     OW64830  10.047  12.971   9.108
21019SOL    HW164831  10.054  13.033   9.035
21019SOL    HW264832  10.104  13.008   9.176
21020SOL     OW64833  13.211  14.112   5.864
21020SOL    HW164834  13.271  14.135   5.936
21020SOL    HW264835  13.266  14.063   5.803
21021SOL     OW64836  14.663   0.909   6.857
21021SOL    HW164837  14.701   0.950   6.934
21021SOL    HW264838  14.569   0.930   6.863
21022SOL     OW64839  12.837   5.969   9.330
21022SOL    HW164840  12.766   5.905   9.332
21022SOL    HW264841  12.834   6.011   9.416
21023SOL     OW64842   2.579  11.016  11.104
21023SOL    HW164843   2.492  11.017  11.143
21023SOL    HW264844   2.603  11.109  11.096
21024SOL     OW64845   8.063   1.833   1.240
21024SOL    HW164846   8.021   1.776   1.175
21024SOL    HW264847   7.993   1.893   1.268
21025SOL     OW64848  11.242   1.281   3.365
21025SOL    HW164849  11.243   1.340   3.289
21025SOL    HW264850  11.198   1.331   3.433
21026SOL     OW64851   5.493   4.718   2.715
21026SOL    HW164852   5.459   4.637   2.677
21026SOL    HW264853   5.445   4.788   2.671
21027SOL     OW64854   2.152  14.113  10.258
21027SOL    HW164855   2.144  14.141  10.349
21027SOL    HW264856   2.219  14.171  10.221
21028SOL     OW64857  10.723   2.817  12.717
21028SOL    HW164858  10.769   2.866  12.785
21028SOL    HW264859  10.687   2.741  12.763
21029SOL     OW64860   9.166  10.467  14.249
21029SOL    HW164861   9.118  10.387  14.270
21029SOL    HW264862   9.157  10.521  14.327
21030SOL     OW64863  12.364  12.899   5.654
21030SOL    HW164864  12.441  12.853   5.619
21030SOL    HW264865  12.346  12.854   5.737
21031SOL     OW64866   2.540   4.187   1.160
21031SOL    HW164867   2.585   4.262   1.120
21031SOL    HW264868   2.454   4.221   1.185
21032SOL     OW64869   5.874  12.261   9.364
21032SOL    HW164870   5.826  12.188   9.324
21032SOL    HW264871   5.963  12.226   9.378
21033SOL     OW64872   2.434   4.737   3.042
21033SOL    HW164873   2.516   4.752   2.995
21033SOL    HW264874   2.380   4.688   2.980
21034SOL     OW64875  11.581  13.250   8.455
21034SOL    HW164876  11.523  13.176   8.472
21034SOL    HW264877  11.522  13.326   8.450
21035SOL     OW64878   4.917   3.409   4.002
21035SOL    HW164879   4.994   3.414   4.059
21035SOL    HW264880   4.953   3.401   3.913
21036SOL     OW64881   6.004   3.040   8.809
21036SOL    HW164882   6.038   2.965   8.760
21036SOL    HW264883   5.984   3.105   8.742
21037SOL     OW64884   6.298  13.929   3.334
21037SOL    HW164885   6.313  13.919   3.428
21037SOL    HW264886   6.371  13.982   3.304
21038SOL     OW64887   5.792   7.518  11.056
21038SOL    HW164888   5.802   7.430  11.021
21038SOL    HW264889   5.827   7.513  11.145
21039SOL     OW64890   1.321   3.458   9.220
21039SOL    HW164891   1.314   3.363   9.217
21039SOL    HW264892   1.258   3.485   9.287
21040SOL     OW64893  11.843   1.372   1.536
21040SOL    HW164894  11.748   1.361   1.542
21040SOL    HW264895  11.873   1.375   1.627
21041SOL     OW64896  10.152   0.187   2.959
21041SOL    HW164897  10.151   0.133   2.880
21041SOL    HW264898  10.077   0.245   2.950
21042SOL     OW64899  11.418   6.568  13.291
21042SOL    HW164900  11.432   6.631  13.220
21042SOL    HW264901  11.331   6.589  13.324
21043SOL     OW64902   7.074  12.178   8.006
21043SOL    HW164903   6.981  12.196   8.019
21043SOL    HW264904   7.081  12.083   8.005
21044SOL     OW64905   3.618   3.485   5.713
21044SOL    HW164906   3.654   3.484   5.802
21044SOL    HW264907   3.694   3.483   5.656
21045SOL     OW64908   8.053   3.919  13.480
21045SOL    HW164909   8.149   3.915  13.482
21045SOL    HW264910   8.032   3.967  13.400
21046SOL     OW64911  11.622  11.504   6.021
21046SOL    HW164912  11.559  11.459   5.965
21046SOL    HW264913  11.673  11.559   5.961
21047SOL     OW64914  13.245   6.184   4.934
21047SOL    HW164915  13.308   6.246   4.970
21047SOL    HW264916  13.162   6.209   4.974
21048SOL     OW64917   4.853   1.139   3.339
21048SOL    HW164918   4.817   1.125   3.252
21048SOL    HW264919   4.945   1.112   3.332
21049SOL     OW64920   4.743  11.995   0.676
21049SOL    HW164921   4.718  11.903   0.675
21049SOL    HW264922   4.747  12.018   0.769
21050SOL     OW64923   8.258  11.629  13.948
21050SOL    HW164924   8.212  11.677  14.016
21050SOL    HW264925   8.336  11.594  13.992
21051SOL     OW64926  11.166   9.614   8.042
21051SOL    HW164927  11.124   9.626   8.128
21051SOL    HW264928  11.212   9.531   8.049
21052SOL     OW64929   0.158   1.301   9.404
21052SOL    HW164930   0.100   1.340   9.339
21052SOL    HW264931   0.108   1.226   9.439
21053SOL     OW64932   8.214   7.754   6.942
21053SOL    HW164933   8.287   7.693   6.948
21053SOL    HW264934   8.233   7.807   6.865
21054SOL     OW64935   0.172   6.270   3.317
21054SOL    HW164936   0.225   6.195   3.345
21054SOL    HW264937   0.235   6.337   3.295
21055SOL     OW64938   3.923   7.137   1.226
21055SOL    HW164939   3.981   7.174   1.159
21055SOL    HW264940   3.953   7.047   1.235
21056SOL     OW64941   0.370   3.000  10.452
21056SOL    HW164942   0.454   3.003  10.499
21056SOL    HW264943   0.308   3.039  10.514
21057SOL     OW64944   5.270   1.334   0.943
21057SOL    HW164945   5.251   1.383   1.024
21057SOL    HW264946   5.184   1.312   0.908
21058SOL     OW64947   1.528   4.000   8.515
21058SOL    HW164948   1.488   3.934   8.572
21058SOL    HW264949   1.455   4.057   8.490
21059SOL     OW64950   8.107   6.662   1.311
21059SOL    HW164951   8.045   6.694   1.377
21059SOL    HW264952   8.075   6.697   1.228
21060SOL     OW64953   4.371  13.026   5.145
21060SOL    HW164954   4.435  12.962   5.113
21060SOL    HW264955   4.340  13.071   5.066
21061SOL     OW64956   3.802   6.435   3.958
21061SOL    HW164957   3.896   6.433   3.942
21061SOL    HW264958   3.763   6.390   3.884
21062SOL     OW64959   5.709   4.460  12.169
21062SOL    HW164960   5.778   4.394  12.159
21062SOL    HW264961   5.743   4.521  12.235
21063SOL     OW64962   6.358   4.645  14.186
21063SOL    HW164963   6.362   4.730  14.143
21063SOL    HW264964   6.437   4.600  14.159
21064SOL     OW64965   6.203   3.250   6.379
21064SOL    HW164966   6.129   3.303   6.349
21064SOL    HW264967   6.227   3.289   6.463
21065SOL     OW64968  14.410   4.011  11.977
21065SOL    HW164969  14.392   4.091  11.929
21065SOL    HW264970  14.443   3.950  11.911
21066SOL     OW64971  11.554  11.686   6.765
21066SOL    HW164972  11.540  11.631   6.689
21066SOL    HW264973  11.509  11.641   6.836
21067SOL     OW64974   2.374   3.227   3.842
21067SOL    HW164975   2.308   3.207   3.908
21067SOL    HW264976   2.385   3.323   3.846
21068SOL     OW64977  11.596   9.863  10.862
21068SOL    HW164978  11.644   9.921  10.802
21068SOL    HW264979  11.614   9.899  10.949
21069SOL     OW64980   3.328   8.699   3.753
21069SOL    HW164981   3.386   8.762   3.710
21069SOL    HW264982   3.264   8.676   3.686
21070SOL     OW64983  14.169   0.711   8.464
21070SOL    HW164984  14.196   0.622   8.441
21070SOL    HW264985  14.080   0.718   8.431
21071SOL     OW64986  14.400   7.246  11.901
21071SOL    HW164987  14.480   7.194  11.894
21071SOL    HW264988  14.364   7.247  11.813
21072SOL     OW64989   1.702  13.482  14.224
21072SOL    HW164990   1.618  13.491  14.269
21072SOL    HW264991   1.697  13.397  14.179
21073SOL     OW64992   5.024   2.942  11.987
21073SOL    HW164993   5.119   2.954  11.991
21073SOL    HW264994   4.990   3.004  12.052
21074SOL     OW64995   3.893  10.264   7.898
21074SOL    HW164996   3.824  10.326   7.919
21074SOL    HW264997   3.970  10.296   7.946
21075SOL     OW64998  13.388   4.737  13.532
21075SOL    HW164999  13.425   4.748  13.445
21075SOL    HW265000  13.464   4.727  13.589
21076SOL     OW65001   8.928   8.279   9.983
21076SOL    HW165002   8.931   8.372   9.962
21076SOL    HW265003   8.980   8.237   9.915
21077SOL     OW65004   3.508   9.532  14.781
21077SOL    HW165005   3.509   9.553  14.874
21077SOL    HW265006   3.431   9.578  14.747
21078SOL     OW65007   8.617   8.513  12.345
21078SOL    HW165008   8.659   8.580  12.400
21078SOL    HW265009   8.621   8.549  12.256
21079SOL     OW65010   6.920  10.533  11.959
21079SOL    HW165011   6.983  10.548  11.889
21079SOL    HW265012   6.921  10.439  11.973
21080SOL     OW65013   8.259  14.389  10.737
21080SOL    HW165014   8.283  14.305  10.697
21080SOL    HW265015   8.179  14.415  10.693
21081SOL     OW65016  13.643   0.393   6.673
21081SOL    HW165017  13.738   0.384   6.678
21081SOL    HW265018  13.627   0.483   6.701
21082SOL     OW65019   8.163   2.779   3.912
21082SOL    HW165020   8.100   2.796   3.842
21082SOL    HW265021   8.240   2.743   3.868
21083SOL     OW65022   2.757   2.696  12.322
21083SOL    HW165023   2.730   2.705  12.231
21083SOL    HW265024   2.675   2.696  12.372
21084SOL     OW65025  11.062  14.419   2.783
21084SOL    HW165026  11.021  14.438   2.867
21084SOL    HW265027  11.140  14.475   2.781
21085SOL     OW65028   5.697   5.945   7.462
21085SOL    HW165029   5.672   5.934   7.554
21085SOL    HW265030   5.777   5.996   7.464
21086SOL     OW65031   4.887   4.616   7.125
21086SOL    HW165032   4.924   4.658   7.203
21086SOL    HW265033   4.922   4.668   7.052
21087SOL     OW65034  13.217   8.769   2.906
21087SOL    HW165035  13.229   8.695   2.965
21087SOL    HW265036  13.205   8.844   2.964
21088SOL     OW65037   4.354   3.018   2.528
21088SOL    HW165038   4.361   2.924   2.511
21088SOL    HW265039   4.271   3.028   2.575
21089SOL     OW65040   4.535   0.675  14.454
21089SOL    HW165041   4.567   0.758  14.420
21089SOL    HW265042   4.440   0.677  14.441
21090SOL     OW65043   0.286   3.682   4.802
21090SOL    HW165044   0.298   3.683   4.707
21090SOL    HW265045   0.191   3.691   4.814
21091SOL     OW65046  11.914   0.873  12.344
21091SOL    HW165047  11.853   0.800  12.352
21091SOL    HW265048  11.876   0.942  12.398
21092SOL     OW65049   5.334   6.099  11.871
21092SOL    HW165050   5.307   6.188  11.849
21092SOL    HW265051   5.391   6.073  11.798
21093SOL     OW65052  10.842   8.427  12.403
21093SOL    HW165053  10.792   8.484  12.346
21093SOL    HW265054  10.931   8.428  12.366
21094SOL     OW65055  12.044   7.598  10.528
21094SOL    HW165056  11.962   7.559  10.499
21094SOL    HW265057  12.017   7.672  10.583
21095SOL     OW65058   7.155   5.013  13.444
21095SOL    HW165059   7.211   5.065  13.386
21095SOL    HW265060   7.195   5.023  13.530
21096SOL     OW65061   2.689   8.958   6.866
21096SOL    HW165062   2.716   8.869   6.845
21096SOL    HW265063   2.593   8.953   6.870
21097SOL     OW65064   7.378   2.852  10.624
21097SOL    HW165065   7.325   2.924  10.589
21097SOL    HW265066   7.407   2.883  10.710
21098SOL     OW65067   3.057   0.659   9.982
21098SOL    HW165068   3.079   0.642   9.891
21098SOL    HW265069   3.013   0.579  10.011
21099SOL     OW65070   4.651   6.942   3.256
21099SOL    HW165071   4.622   7.033   3.252
21099SOL    HW265072   4.615   6.910   3.339
21100SOL     OW65073  12.946  11.615   9.992
21100SOL    HW165074  13.006  11.689   9.999
21100SOL    HW265075  12.998  11.538  10.016
21101SOL     OW65076   5.417  13.731   6.298
21101SOL    HW165077   5.379  13.702   6.380
21101SOL    HW265078   5.343  13.734   6.237
21102SOL     OW65079   5.406   1.818   3.041
21102SOL    HW165080   5.458   1.875   3.097
21102SOL    HW265081   5.328   1.798   3.092
21103SOL     OW65082   7.058   5.426   8.263
21103SOL    HW165083   7.044   5.499   8.203
21103SOL    HW265084   7.089   5.468   8.344
21104SOL     OW65085   0.170   8.504  11.929
21104SOL    HW165086   0.165   8.461  11.844
21104SOL    HW265087   0.196   8.594  11.909
21105SOL     OW65088   3.606  13.170   8.895
21105SOL    HW165089   3.696  13.149   8.921
21105SOL    HW265090   3.599  13.265   8.908
21106SOL     OW65091   1.491   3.513   0.836
21106SOL    HW165092   1.537   3.517   0.753
21106SOL    HW265093   1.422   3.448   0.823
21107SOL     OW65094  12.776   6.823   0.269
21107SOL    HW165095  12.787   6.878   0.347
21107SOL    HW265096  12.835   6.749   0.283
21108SOL     OW65097   5.694   2.842   2.131
21108SOL    HW165098   5.728   2.919   2.176
21108SOL    HW265099   5.672   2.872   2.043
21109SOL     OW65100   3.276   3.258   0.599
21109SOL    HW165101   3.319   3.215   0.525
21109SOL    HW265102   3.213   3.193   0.631
21110SOL     OW65103  12.438  14.041   2.343
21110SOL    HW165104  12.468  14.131   2.329
21110SOL    HW265105  12.363  14.031   2.285
21111SOL     OW65106   8.319  10.027  10.480
21111SOL    HW165107   8.239   9.976  10.470
21111SOL    HW265108   8.321  10.084  10.403
21112SOL     OW65109   5.613  10.991  10.069
21112SOL    HW165110   5.615  11.087  10.077
21112SOL    HW265111   5.692  10.970  10.019
21113SOL     OW65112   1.053   8.797   5.802
21113SOL    HW165113   0.984   8.731   5.800
21113SOL    HW265114   1.025   8.863   5.739
21114SOL     OW65115  12.692   6.160   7.424
21114SOL    HW165116  12.622   6.140   7.486
21114SOL    HW265117  12.738   6.234   7.462
21115SOL     OW65118  14.277  14.593  13.085
21115SOL    HW165119  14.361  14.610  13.043
21115SOL    HW265120  14.256  14.502  13.063
21116SOL     OW65121   6.668  14.788   5.513
21116SOL    HW165122   6.724  14.746   5.447
21116SOL    HW265123   6.729  14.823   5.578
21117SOL     OW65124   6.247   5.284   8.282
21117SOL    HW165125   6.210   5.302   8.195
21117SOL    HW265126   6.255   5.371   8.323
21118SOL     OW65127   5.379   2.532   7.775
21118SOL    HW165128   5.304   2.586   7.801
21118SOL    HW265129   5.449   2.558   7.835
21119SOL     OW65130   2.019  13.472   5.070
21119SOL    HW165131   1.992  13.555   5.110
21119SOL    HW265132   1.944  13.444   5.018
21120SOL     OW65133  10.744   2.418   9.216
21120SOL    HW165134  10.724   2.386   9.305
21120SOL    HW265135  10.704   2.354   9.158
21121SOL     OW65136   6.293   6.442   3.871
21121SOL    HW165137   6.364   6.503   3.853
21121SOL    HW265138   6.263   6.413   3.785
21122SOL     OW65139   1.112   8.929   8.642
21122SOL    HW165140   1.038   8.981   8.675
21122SOL    HW265141   1.098   8.923   8.548
21123SOL     OW65142   6.214   7.926   0.948
21123SOL    HW165143   6.301   7.892   0.929
21123SOL    HW265144   6.192   7.890   1.034
21124SOL     OW65145  13.339   6.837   4.249
21124SOL    HW165146  13.315   6.904   4.313
21124SOL    HW265147  13.401   6.781   4.296
21125SOL     OW65148   5.911   9.006   9.802
21125SOL    HW165149   5.962   9.001   9.884
21125SOL    HW265150   5.906   9.100   9.783
21126SOL     OW65151   0.292   1.668   1.410
21126SOL    HW165152   0.252   1.698   1.491
21126SOL    HW265153   0.240   1.710   1.341
21127SOL     OW65154   4.891   2.453  14.141
21127SOL    HW165155   4.844   2.537  14.139
21127SOL    HW265156   4.977   2.474  14.103
21128SOL     OW65157  14.435  11.636   0.466
21128SOL    HW165158  14.498  11.704   0.441
21128SOL    HW265159  14.458  11.614   0.556
21129SOL     OW65160   9.622   6.545   6.970
21129SOL    HW165161   9.555   6.479   6.989
21129SOL    HW265162   9.576   6.629   6.976
21130SOL     OW65163  11.731   8.062   0.307
21130SOL    HW165164  11.695   8.037   0.222
21130SOL    HW265165  11.822   8.084   0.290
21131SOL     OW65166   1.419   0.285   1.079
21131SOL    HW165167   1.358   0.347   1.038
21131SOL    HW265168   1.490   0.276   1.015
21132SOL     OW65169   0.906  11.624  13.595
21132SOL    HW165170   0.820  11.651  13.626
21132SOL    HW265171   0.939  11.700  13.547
21133SOL     OW65172   2.158   1.608  13.652
21133SOL    HW165173   2.177   1.665  13.726
21133SOL    HW265174   2.142   1.522  13.691
21134SOL     OW65175   4.669   8.699   8.297
21134SOL    HW165176   4.703   8.618   8.335
21134SOL    HW265177   4.631   8.672   8.213
21135SOL     OW65178   7.317  13.338   5.855
21135SOL    HW165179   7.330  13.400   5.784
21135SOL    HW265180   7.269  13.387   5.922
21136SOL     OW65181   1.858  11.327  13.021
21136SOL    HW165182   1.939  11.327  12.970
21136SOL    HW265183   1.802  11.264  12.976
21137SOL     OW65184   5.871   5.875   2.635
21137SOL    HW165185   5.877   5.810   2.705
21137SOL    HW265186   5.839   5.826   2.560
21138SOL     OW65187  11.507   0.324  12.626
21138SOL    HW165188  11.532   0.245  12.577
21138SOL    HW265189  11.411   0.318  12.633
21139SOL     OW65190  13.008  11.899   7.277
21139SOL    HW165191  13.004  11.837   7.351
21139SOL    HW265192  12.917  11.922   7.261
21140SOL     OW65193  10.308  11.443   5.510
21140SOL    HW165194  10.332  11.451   5.602
21140SOL    HW265195  10.364  11.374   5.477
21141SOL     OW65196   8.785   1.133   6.720
21141SOL    HW165197   8.787   1.169   6.809
21141SOL    HW265198   8.855   1.179   6.674
21142SOL     OW65199  10.585  12.279   4.367
21142SOL    HW165200  10.561  12.191   4.393
21142SOL    HW265201  10.674  12.271   4.333
21143SOL     OW65202   6.324   2.717   3.533
21143SOL    HW165203   6.290   2.630   3.512
21143SOL    HW265204   6.254   2.777   3.509
21144SOL     OW65205   9.484   4.488   0.988
21144SOL    HW165206   9.563   4.499   0.935
21144SOL    HW265207   9.427   4.561   0.963
21145SOL     OW65208   2.986  13.014   7.440
21145SOL    HW165209   2.892  13.003   7.455
21145SOL    HW265210   2.991  13.047   7.350
21146SOL     OW65211  13.689   8.272   6.435
21146SOL    HW165212  13.732   8.351   6.466
21146SOL    HW265213  13.741   8.200   6.471
21147SOL     OW65214   7.569   5.218  13.822
21147SOL    HW165215   7.585   5.290  13.883
21147SOL    HW265216   7.496   5.248  13.767
21148SOL     OW65217  13.359   4.449   6.757
21148SOL    HW165218  13.398   4.363   6.747
21148SOL    HW265219  13.419   4.497   6.814
21149SOL     OW65220  11.964   7.752   1.736
21149SOL    HW165221  12.011   7.829   1.704
21149SOL    HW265222  11.891   7.789   1.787
21150SOL     OW65223  13.318   1.752  10.314
21150SOL    HW165224  13.321   1.826  10.254
21150SOL    HW265225  13.379   1.689  10.277
21151SOL     OW65226   3.072   5.894   9.794
21151SOL    HW165227   3.082   5.917   9.886
21151SOL    HW265228   3.000   5.832   9.792
21152SOL     OW65229   6.703   6.341   5.781
21152SOL    HW165230   6.758   6.301   5.849
21152SOL    HW265231   6.760   6.406   5.739
21153SOL     OW65232   6.329   7.675   8.223
21153SOL    HW165233   6.294   7.607   8.282
21153SOL    HW265234   6.379   7.626   8.158
21154SOL     OW65235   3.242  14.578   1.707
21154SOL    HW165236   3.178  14.642   1.738
21154SOL    HW265237   3.190  14.510   1.665
21155SOL     OW65238  12.387   4.350   6.167
21155SOL    HW165239  12.399   4.344   6.261
21155SOL    HW265240  12.292   4.349   6.154
21156SOL     OW65241   3.055  11.356   6.924
21156SOL    HW165242   3.129  11.412   6.948
21156SOL    HW265243   3.078  11.322   6.837
21157SOL     OW65244  11.034  11.097  10.085
21157SOL    HW165245  11.074  11.010  10.081
21157SOL    HW265246  10.947  11.086  10.046
21158SOL     OW65247   9.637   0.001  12.027
21158SOL    HW165248   9.693   0.071  12.062
21158SOL    HW265249   9.633  14.814  12.098
21159SOL     OW65250   5.184   4.638   3.547
21159SOL    HW165251   5.094   4.663   3.529
21159SOL    HW265252   5.222   4.620   3.461
21160SOL     OW65253  12.539   0.982  12.907
21160SOL    HW165254  12.568   1.022  12.825
21160SOL    HW265255  12.511   1.056  12.961
21161SOL     OW65256   9.930   6.502   2.941
21161SOL    HW165257   9.849   6.477   2.897
21161SOL    HW265258   9.965   6.420   2.975
21162SOL     OW65259   8.610   8.216   8.926
21162SOL    HW165260   8.641   8.126   8.918
21162SOL    HW265261   8.682   8.263   8.967
21163SOL     OW65262   2.121   6.812   5.564
21163SOL    HW165263   2.030   6.819   5.534
21163SOL    HW265264   2.124   6.730   5.613
21164SOL     OW65265  14.199   6.341   8.866
21164SOL    HW165266  14.210   6.409   8.932
21164SOL    HW265267  14.121   6.293   8.893
21165SOL     OW65268   3.159  10.570  11.197
21165SOL    HW165269   3.184  10.552  11.288
21165SOL    HW265270   3.173  10.487  11.152
21166SOL     OW65271   6.509  14.360  13.425
21166SOL    HW165272   6.455  14.281  13.425
21166SOL    HW265273   6.595  14.329  13.397
21167SOL     OW65274   3.634   8.515   1.606
21167SOL    HW165275   3.627   8.520   1.510
21167SOL    HW265276   3.726   8.536   1.624
21168SOL     OW65277   1.340  14.723   8.778
21168SOL    HW165278   1.268  14.729   8.716
21168SOL    HW265279   1.374  14.812   8.785
21169SOL     OW65280   0.554   0.091   5.952
21169SOL    HW165281   0.542   0.106   6.045
21169SOL    HW265282   0.547  14.874   5.941
21170SOL     OW65283   3.089   2.539   0.875
21170SOL    HW165284   3.079   2.458   0.825
21170SOL    HW265285   3.006   2.585   0.863
21171SOL     OW65286  13.373   8.132   5.020
21171SOL    HW165287  13.429   8.079   5.076
21171SOL    HW265288  13.409   8.221   5.027
21172SOL     OW65289  11.968   9.990   1.470
21172SOL    HW165290  11.998  10.078   1.449
21172SOL    HW265291  11.982   9.981   1.564
21173SOL     OW65292  12.848   9.239   3.044
21173SOL    HW165293  12.933   9.272   3.013
21173SOL    HW265294  12.802   9.318   3.074
21174SOL     OW65295  10.326   3.865  12.175
21174SOL    HW165296  10.420   3.861  12.191
21174SOL    HW265297  10.317   3.865  12.080
21175SOL     OW65298   1.066   0.558   2.600
21175SOL    HW165299   1.147   0.523   2.563
21175SOL    HW265300   1.028   0.612   2.530
21176SOL     OW65301  14.091  11.364   8.166
21176SOL    HW165302  14.030  11.304   8.123
21176SOL    HW265303  14.143  11.401   8.095
21177SOL     OW65304   6.715   4.892   2.596
21177SOL    HW165305   6.762   4.880   2.514
21177SOL    HW265306   6.707   4.804   2.633
21178SOL     OW65307   5.142  13.766   2.147
21178SOL    HW165308   5.081  13.789   2.076
21178SOL    HW265309   5.195  13.695   2.111
21179SOL     OW65310   9.769  13.594   0.748
21179SOL    HW165311   9.774  13.598   0.653
21179SOL    HW265312   9.719  13.672   0.773
21180SOL     OW65313   6.330   9.878   7.031
21180SOL    HW165314   6.333   9.832   7.114
21180SOL    HW265315   6.420   9.906   7.016
21181SOL     OW65316  14.725  10.188   1.919
21181SOL    HW165317  14.756  10.147   1.999
21181SOL    HW265318  14.661  10.126   1.883
21182SOL     OW65319   1.764  10.010   2.500
21182SOL    HW165320   1.690  10.065   2.476
21182SOL    HW265321   1.799  10.049   2.580
21183SOL     OW65322   9.294   2.196   1.478
21183SOL    HW165323   9.329   2.280   1.508
21183SOL    HW265324   9.371   2.139   1.472
21184SOL     OW65325   9.815   8.633   7.090
21184SOL    HW165326   9.720   8.634   7.077
21184SOL    HW265327   9.845   8.554   7.045
21185SOL     OW65328   1.716   7.756  13.637
21185SOL    HW165329   1.776   7.803  13.695
21185SOL    HW265330   1.766   7.680  13.607
21186SOL     OW65331   7.281   8.559  14.225
21186SOL    HW165332   7.302   8.541  14.317
21186SOL    HW265333   7.203   8.614  14.229
21187SOL     OW65334   9.524   4.492  10.079
21187SOL    HW165335   9.467   4.418  10.101
21187SOL    HW265336   9.573   4.509  10.159
21188SOL     OW65337   4.944   7.850   2.024
21188SOL    HW165338   4.986   7.908   2.087
21188SOL    HW265339   4.851   7.852   2.047
21189SOL     OW65340   9.284  12.330  11.574
21189SOL    HW165341   9.199  12.333  11.530
21189SOL    HW265342   9.294  12.238  11.599
21190SOL     OW65343   5.985   6.965   4.575
21190SOL    HW165344   5.906   6.966   4.630
21190SOL    HW265345   5.968   7.030   4.507
21191SOL     OW65346   7.540  11.090   7.011
21191SOL    HW165347   7.564  11.182   6.999
21191SOL    HW265348   7.444  11.090   7.006
21192SOL     OW65349   4.698   1.997   2.419
21192SOL    HW165350   4.612   1.959   2.436
21192SOL    HW265351   4.683   2.062   2.350
21193SOL     OW65352  14.022   2.871  10.002
21193SOL    HW165353  14.051   2.780   9.991
21193SOL    HW265354  14.097   2.915  10.042
21194SOL     OW65355   8.760   0.583   6.469
21194SOL    HW165356   8.742   0.509   6.528
21194SOL    HW265357   8.730   0.660   6.517
21195SOL     OW65358   1.892   6.385  11.470
21195SOL    HW165359   1.804   6.394  11.505
21195SOL    HW265360   1.929   6.473  11.474
21196SOL     OW65361   2.756   4.515  11.026
21196SOL    HW165362   2.757   4.607  11.053
21196SOL    HW265363   2.784   4.467  11.104
21197SOL     OW65364   6.620  14.670   3.926
21197SOL    HW165365   6.551  14.606   3.942
21197SOL    HW265366   6.679  14.626   3.865
21198SOL     OW65367   2.181   0.135   4.094
21198SOL    HW165368   2.108   0.089   4.052
21198SOL    HW265369   2.156   0.141   4.186
21199SOL     OW65370   1.054  11.115  13.416
21199SOL    HW165371   1.143  11.128  13.382
21199SOL    HW265372   1.021  11.204  13.431
21200SOL     OW65373  13.019   6.386   6.565
21200SOL    HW165374  12.992   6.440   6.640
21200SOL    HW265375  12.954   6.317   6.560
21201SOL     OW65376  10.917  12.849   6.593
21201SOL    HW165377  10.879  12.868   6.508
21201SOL    HW265378  10.941  12.756   6.589
21202SOL     OW65379   0.631  12.996   8.807
21202SOL    HW165380   0.588  12.995   8.893
21202SOL    HW265381   0.647  13.089   8.790
21203SOL     OW65382  10.911   2.783  12.015
21203SOL    HW165383  10.960   2.860  11.986
21203SOL    HW265384  10.830   2.818  12.053
21204SOL     OW65385  12.363   3.612  13.508
21204SOL    HW165386  12.422   3.538  13.516
21204SOL    HW265387  12.308   3.607  13.587
21205SOL     OW65388  14.664   9.233  13.095
21205SOL    HW165389  14.670   9.280  13.012
21205SOL    HW265390  14.675   9.141  13.071
21206SOL     OW65391   3.423  12.256  10.514
21206SOL    HW165392   3.481  12.253  10.438
21206SOL    HW265393   3.438  12.342  10.553
21207SOL     OW65394   8.187   4.708   3.264
21207SOL    HW165395   8.183   4.753   3.180
21207SOL    HW265396   8.128   4.758   3.320
21208SOL     OW65397   0.919  13.092  12.232
21208SOL    HW165398   0.833  13.052  12.222
21208SOL    HW265399   0.900  13.182  12.261
21209SOL     OW65400   4.926   6.880  14.836
21209SOL    HW165401   4.922   6.819   0.032
21209SOL    HW265402   4.897   6.828  14.761
21210SOL     OW65403   9.538   4.213   4.071
21210SOL    HW165404   9.627   4.242   4.050
21210SOL    HW265405   9.549   4.154   4.146
21211SOL     OW65406   8.651   5.027   1.353
21211SOL    HW165407   8.646   5.076   1.435
21211SOL    HW265408   8.741   5.042   1.323
21212SOL     OW65409   4.655   6.109   7.855
21212SOL    HW165410   4.683   6.049   7.924
21212SOL    HW265411   4.581   6.066   7.814
21213SOL     OW65412   0.734   0.959   2.511
21213SOL    HW165413   0.667   0.911   2.462
21213SOL    HW265414   0.740   1.044   2.468
21214SOL     OW65415   8.063   8.187   9.317
21214SOL    HW165416   8.106   8.265   9.350
21214SOL    HW265417   8.084   8.186   9.223
21215SOL     OW65418   2.824   5.345  13.611
21215SOL    HW165419   2.858   5.356  13.522
21215SOL    HW265420   2.878   5.276  13.648
21216SOL     OW65421   2.838   4.690   1.259
21216SOL    HW165422   2.785   4.673   1.337
21216SOL    HW265423   2.899   4.759   1.285
21217SOL     OW65424   9.726  11.707   4.199
21217SOL    HW165425   9.653  11.760   4.166
21217SOL    HW265426   9.794  11.717   4.133
21218SOL     OW65427   6.184  14.317   4.869
21218SOL    HW165428   6.273  14.285   4.864
21218SOL    HW265429   6.145  14.293   4.785
21219SOL     OW65430  10.983  13.858  13.107
21219SOL    HW165431  11.055  13.823  13.159
21219SOL    HW265432  10.937  13.917  13.167
21220SOL     OW65433  11.553   2.715   8.631
21220SOL    HW165434  11.647   2.708   8.618
21220SOL    HW265435  11.540   2.801   8.670
21221SOL     OW65436   8.760   2.647  10.403
21221SOL    HW165437   8.695   2.640  10.332
21221SOL    HW265438   8.844   2.630  10.360
21222SOL     OW65439   4.628   7.302  11.536
21222SOL    HW165440   4.687   7.245  11.586
21222SOL    HW265441   4.679   7.326  11.458
21223SOL     OW65442   7.017  12.625   3.636
21223SOL    HW165443   6.952  12.618   3.707
21223SOL    HW265444   6.968  12.607   3.556
21224SOL     OW65445   2.788   3.010   2.112
21224SOL    HW165446   2.714   2.951   2.119
21224SOL    HW265447   2.767   3.083   2.172
21225SOL     OW65448  13.127   7.676  14.704
21225SOL    HW165449  13.096   7.691  14.793
21225SOL    HW265450  13.205   7.731  14.696
21226SOL     OW65451  13.573   8.764   6.277
21226SOL    HW165452  13.534   8.742   6.192
21226SOL    HW265453  13.650   8.707   6.284
21227SOL     OW65454  11.265   2.841  12.599
21227SOL    HW165455  11.200   2.850  12.530
21227SOL    HW265456  11.286   2.748  12.600
21228SOL     OW65457   1.421  11.035   6.504
21228SOL    HW165458   1.473  11.007   6.429
21228SOL    HW265459   1.341  11.070   6.465
21229SOL     OW65460   6.804  12.151   9.896
21229SOL    HW165461   6.756  12.219   9.850
21229SOL    HW265462   6.891  12.152   9.857
21230SOL     OW65463   0.068  13.071   8.791
21230SOL    HW165464   0.141  13.009   8.785
21230SOL    HW265465   0.054  13.083   8.885
21231SOL     OW65466   9.355  13.810   4.539
21231SOL    HW165467   9.295  13.882   4.555
21231SOL    HW265468   9.320  13.766   4.462
21232SOL     OW65469   0.767   1.696   7.776
21232SOL    HW165470   0.857   1.720   7.756
21232SOL    HW265471   0.714   1.765   7.736
21233SOL     OW65472   0.577   2.290   0.699
21233SOL    HW165473   0.508   2.339   0.656
21233SOL    HW265474   0.624   2.354   0.752
21234SOL     OW65475   2.578  11.481   1.723
21234SOL    HW165476   2.642  11.535   1.769
21234SOL    HW265477   2.493  11.512   1.754
21235SOL     OW65478  11.126   9.447   3.701
21235SOL    HW165479  11.164   9.469   3.616
21235SOL    HW265480  11.198   9.454   3.763
21236SOL     OW65481   3.557   1.508   7.657
21236SOL    HW165482   3.593   1.420   7.645
21236SOL    HW265483   3.503   1.501   7.735
21237SOL     OW65484   2.245   1.940  14.496
21237SOL    HW165485   2.219   1.848  14.497
21237SOL    HW265486   2.335   1.939  14.527
21238SOL     OW65487  10.459   4.063  13.966
21238SOL    HW165488  10.383   4.053  14.023
21238SOL    HW265489  10.501   4.144  13.995
21239SOL     OW65490   1.579   4.380   6.072
21239SOL    HW165491   1.601   4.463   6.028
21239SOL    HW265492   1.664   4.346   6.101
21240SOL     OW65493   6.936   8.584   8.314
21240SOL    HW165494   6.933   8.666   8.265
21240SOL    HW265495   6.992   8.603   8.389
21241SOL     OW65496  10.121   3.054  10.414
21241SOL    HW165497  10.169   3.104  10.348
21241SOL    HW265498  10.030   3.059  10.386
21242SOL     OW65499  10.942  14.201  13.517
21242SOL    HW165500  10.892  14.186  13.597
21242SOL    HW265501  11.027  14.231  13.547
21243SOL     OW65502   0.847   4.594   9.587
21243SOL    HW165503   0.871   4.505   9.564
21243SOL    HW265504   0.751   4.592   9.596
21244SOL     OW65505  10.899   8.687   9.955
21244SOL    HW165506  10.991   8.688   9.982
21244SOL    HW265507  10.901   8.708   9.861
21245SOL     OW65508   1.056   2.599  14.703
21245SOL    HW165509   1.031   2.547  14.627
21245SOL    HW265510   1.125   2.657  14.670
21246SOL     OW65511  11.874   0.104   8.371
21246SOL    HW165512  11.964   0.072   8.371
21246SOL    HW265513  11.876   0.179   8.430
21247SOL     OW65514   9.108  10.413   2.647
21247SOL    HW165515   9.093  10.340   2.588
21247SOL    HW265516   9.201  10.409   2.668
21248SOL     OW65517   6.564   9.531   5.227
21248SOL    HW165518   6.480   9.489   5.211
21248SOL    HW265519   6.589   9.502   5.315
21249SOL     OW65520  11.964   1.645   2.430
21249SOL    HW165521  11.914   1.690   2.499
21249SOL    HW265522  11.966   1.554   2.459
21250SOL     OW65523  14.126   9.674  11.791
21250SOL    HW165524  14.119   9.695  11.885
21250SOL    HW265525  14.079   9.745  11.748
21251SOL     OW65526  14.195   9.243   0.574
21251SOL    HW165527  14.213   9.336   0.588
21251SOL    HW265528  14.099   9.236   0.577
21252SOL     OW65529   4.494   0.903   0.751
21252SOL    HW165530   4.519   0.938   0.836
21252SOL    HW265531   4.432   0.833   0.770
21253SOL     OW65532   5.442   5.549  12.134
21253SOL    HW165533   5.376   5.487  12.163
21253SOL    HW265534   5.394   5.611  12.079
21254SOL     OW65535  12.454   2.635   4.480
21254SOL    HW165536  12.431   2.702   4.545
21254SOL    HW265537  12.469   2.683   4.399
21255SOL     OW65538  12.285  14.820  14.632
21255SOL    HW165539  12.261  14.728  14.646
21255SOL    HW265540  12.224  14.870  14.686
21256SOL     OW65541   0.155  10.546   6.598
21256SOL    HW165542   0.079  10.583   6.643
21256SOL    HW265543   0.170  10.606   6.524
21257SOL     OW65544  11.345   2.572   4.102
21257SOL    HW165545  11.322   2.539   4.015
21257SOL    HW265546  11.320   2.664   4.099
21258SOL     OW65547   6.018  13.323   4.219
21258SOL    HW165548   6.059  13.393   4.169
21258SOL    HW265549   6.076  13.248   4.207
21259SOL     OW65550   4.212   9.038   3.135
21259SOL    HW165551   4.265   9.100   3.086
21259SOL    HW265552   4.135   9.024   3.080
21260SOL     OW65553   7.355   2.723   1.310
21260SOL    HW165554   7.391   2.649   1.261
21260SOL    HW265555   7.278   2.750   1.260
21261SOL     OW65556   3.957  14.841   6.847
21261SOL    HW165557   3.946   0.008   6.931
21261SOL    HW265558   4.052  14.843   6.832
21262SOL     OW65559   7.519   6.801   9.518
21262SOL    HW165560   7.494   6.885   9.479
21262SOL    HW265561   7.547   6.823   9.607
21263SOL     OW65562  12.634   2.874   9.277
21263SOL    HW165563  12.589   2.932   9.216
21263SOL    HW265564  12.704   2.835   9.226
21264SOL     OW65565   9.337   3.925  13.469
21264SOL    HW165566   9.330   3.941  13.375
21264SOL    HW265567   9.309   4.007  13.510
21265SOL     OW65568   9.197  11.511  11.319
21265SOL    HW165569   9.271  11.451  11.309
21265SOL    HW265570   9.236  11.593  11.351
21266SOL     OW65571  11.253   1.746   6.821
21266SOL    HW165572  11.296   1.827   6.850
21266SOL    HW265573  11.168   1.747   6.865
21267SOL     OW65574   9.656  11.792   8.425
21267SOL    HW165575   9.629  11.734   8.496
21267SOL    HW265576   9.678  11.874   8.468
21268SOL     OW65577  14.310  11.918   5.675
21268SOL    HW165578  14.404  11.918   5.694
21268SOL    HW265579  14.300  11.982   5.604
21269SOL     OW65580   6.977   5.565   3.904
21269SOL    HW165581   6.982   5.559   4.000
21269SOL    HW265582   6.936   5.649   3.888
21270SOL     OW65583   6.486  13.041   3.492
21270SOL    HW165584   6.490  12.958   3.445
21270SOL    HW265585   6.558  13.037   3.555
21271SOL     OW65586   5.019  13.945  14.429
21271SOL    HW165587   4.986  13.952  14.339
21271SOL    HW265588   5.094  14.004  14.432
21272SOL     OW65589  14.114  13.785   4.546
21272SOL    HW165590  14.089  13.767   4.455
21272SOL    HW265591  14.180  13.718   4.566
21273SOL     OW65592   9.233  11.504   7.979
21273SOL    HW165593   9.328  11.501   7.975
21273SOL    HW265594   9.205  11.415   7.957
21274SOL     OW65595  14.745  14.553  12.680
21274SOL    HW165596  14.741  14.517  12.769
21274SOL    HW265597  14.700  14.488  12.626
21275SOL     OW65598   9.700   3.703   8.112
21275SOL    HW165599   9.646   3.630   8.081
21275SOL    HW265600   9.711   3.758   8.034
21276SOL     OW65601   8.583   5.776   8.953
21276SOL    HW165602   8.673   5.756   8.979
21276SOL    HW265603   8.590   5.811   8.864
21277SOL     OW65604   6.519  12.137  13.282
21277SOL    HW165605   6.506  12.085  13.362
21277SOL    HW265606   6.587  12.091  13.234
21278SOL     OW65607   4.900  10.654   7.178
21278SOL    HW165608   4.895  10.583   7.242
21278SOL    HW265609   4.834  10.633   7.113
21279SOL     OW65610   1.140  11.688  11.379
21279SOL    HW165611   1.224  11.650  11.405
21279SOL    HW265612   1.075  11.625  11.410
21280SOL     OW65613   1.348   4.690   7.091
21280SOL    HW165614   1.410   4.751   7.132
21280SOL    HW265615   1.309   4.643   7.165
21281SOL     OW65616  14.494   2.788   1.785
21281SOL    HW165617  14.408   2.813   1.816
21281SOL    HW265618  14.549   2.786   1.863
21282SOL     OW65619   1.887   4.635   6.618
21282SOL    HW165620   1.958   4.676   6.666
21282SOL    HW265621   1.904   4.541   6.624
21283SOL     OW65622   3.535   8.340   8.102
21283SOL    HW165623   3.553   8.432   8.079
21283SOL    HW265624   3.562   8.333   8.193
21284SOL     OW65625   7.685  11.840   4.873
21284SOL    HW165626   7.594  11.859   4.897
21284SOL    HW265627   7.716  11.782   4.944
21285SOL     OW65628  14.671  12.586   7.381
21285SOL    HW165629  14.763  12.560   7.387
21285SOL    HW265630  14.650  12.621   7.467
21286SOL     OW65631   1.590  13.769  11.204
21286SOL    HW165632   1.643  13.806  11.275
21286SOL    HW265633   1.594  13.835  11.135
21287SOL     OW65634   2.197   3.941  10.860
21287SOL    HW165635   2.232   4.030  10.852
21287SOL    HW265636   2.272   3.888  10.889
21288SOL     OW65637   3.362   9.575   2.672
21288SOL    HW165638   3.365   9.667   2.645
21288SOL    HW265639   3.396   9.527   2.597
21289SOL     OW65640   7.600   9.047  10.792
21289SOL    HW165641   7.608   9.016  10.701
21289SOL    HW265642   7.683   9.022  10.833
21290SOL     OW65643   6.479   0.035   5.833
21290SOL    HW165644   6.558   0.023   5.885
21290SOL    HW265645   6.444  14.825   5.822
21291SOL     OW65646   2.855   8.540   3.901
21291SOL    HW165647   2.886   8.500   3.820
21291SOL    HW265648   2.918   8.610   3.919
21292SOL     OW65649   7.036  14.225  14.602
21292SOL    HW165650   7.003  14.202  14.515
21292SOL    HW265651   6.970  14.283  14.638
21293SOL     OW65652   1.152   2.374   4.398
21293SOL    HW165653   1.159   2.460   4.356
21293SOL    HW265654   1.155   2.312   4.325
21294SOL     OW65655   4.349   3.714  11.581
21294SOL    HW165656   4.290   3.788  11.568
21294SOL    HW265657   4.371   3.717  11.674
21295SOL     OW65658   5.064  12.448   7.458
21295SOL    HW165659   4.994  12.488   7.406
21295SOL    HW265660   5.115  12.523   7.491
21296SOL     OW65661   4.201   2.797   7.848
21296SOL    HW165662   4.114   2.795   7.808
21296SOL    HW265663   4.202   2.721   7.906
21297SOL     OW65664   2.722   7.447  12.910
21297SOL    HW165665   2.786   7.414  12.974
21297SOL    HW265666   2.638   7.435  12.953
21298SOL     OW65667  10.302   7.563  10.651
21298SOL    HW165668  10.388   7.527  10.632
21298SOL    HW265669  10.274   7.602  10.568
21299SOL     OW65670  14.633  11.965  14.780
21299SOL    HW165671  14.597  12.036  14.833
21299SOL    HW265672  14.728  11.973  14.790
21300SOL     OW65673  10.915   7.508  12.460
21300SOL    HW165674  10.853   7.479  12.527
21300SOL    HW265675  10.948   7.426  12.422
21301SOL     OW65676   6.599   3.519  10.705
21301SOL    HW165677   6.619   3.522  10.611
21301SOL    HW265678   6.543   3.443  10.715
21302SOL     OW65679   0.219   7.516   9.966
21302SOL    HW165680   0.219   7.461   9.887
21302SOL    HW265681   0.296   7.488  10.015
21303SOL     OW65682  13.564   1.310   2.619
21303SOL    HW165683  13.577   1.311   2.524
21303SOL    HW265684  13.642   1.351   2.655
21304SOL     OW65685  10.573   2.208   2.727
21304SOL    HW165686  10.657   2.244   2.697
21304SOL    HW265687  10.541   2.271   2.791
21305SOL     OW65688   6.275  10.164   4.865
21305SOL    HW165689   6.210  10.138   4.930
21305SOL    HW265690   6.358  10.128   4.898
21306SOL     OW65691   9.500  12.186   9.591
21306SOL    HW165692   9.515  12.281   9.598
21306SOL    HW265693   9.432  12.168   9.656
21307SOL     OW65694  12.475   0.553  10.395
21307SOL    HW165695  12.546   0.602  10.355
21307SOL    HW265696  12.417   0.531  10.322
21308SOL     OW65697   5.908   7.929   4.358
21308SOL    HW165698   5.995   7.962   4.380
21308SOL    HW265699   5.925   7.846   4.314
21309SOL     OW65700   4.912   6.717   0.181
21309SOL    HW165701   4.980   6.662   0.221
21309SOL    HW265702   4.829   6.674   0.205
21310SOL     OW65703   6.459   1.582   5.438
21310SOL    HW165704   6.385   1.598   5.497
21310SOL    HW265705   6.473   1.488   5.441
21311SOL     OW65706   8.096  14.743   0.392
21311SOL    HW165707   8.100  14.666   0.448
21311SOL    HW265708   8.076  14.709   0.305
21312SOL     OW65709   0.854   8.331   6.684
21312SOL    HW165710   0.893   8.307   6.600
21312SOL    HW265711   0.926   8.325   6.747
21313SOL     OW65712   4.790  11.001   0.086
21313SOL    HW165713   4.787  10.969  14.874
21313SOL    HW265714   4.793  10.922   0.140
21314SOL     OW65715   6.672  12.540   4.782
21314SOL    HW165716   6.754  12.582   4.807
21314SOL    HW265717   6.658  12.568   4.692
21315SOL     OW65718   2.826   1.231   3.790
21315SOL    HW165719   2.825   1.136   3.803
21315SOL    HW265720   2.738   1.252   3.759
21316SOL     OW65721   3.894   2.519   9.236
21316SOL    HW165722   3.925   2.601   9.274
21316SOL    HW265723   3.934   2.451   9.289
21317SOL     OW65724   2.803  12.634   5.002
21317SOL    HW165725   2.786  12.728   4.999
21317SOL    HW265726   2.736  12.596   4.945
21318SOL     OW65727  10.565   6.005   6.526
21318SOL    HW165728  10.515   6.051   6.459
21318SOL    HW265729  10.504   5.994   6.599
21319SOL     OW65730  11.779   5.143   1.823
21319SOL    HW165731  11.822   5.187   1.896
21319SOL    HW265732  11.696   5.111   1.859
21320SOL     OW65733   7.284   6.216   7.923
21320SOL    HW165734   7.192   6.225   7.899
21320SOL    HW265735   7.310   6.304   7.950
21321SOL     OW65736   5.956  10.356  11.163
21321SOL    HW165737   5.919  10.321  11.082
21321SOL    HW265738   5.957  10.451  11.151
21322SOL     OW65739  11.688   2.441  11.694
21322SOL    HW165740  11.694   2.471  11.785
21322SOL    HW265741  11.777   2.414  11.672
21323SOL     OW65742   7.238   0.799   4.949
21323SOL    HW165743   7.281   0.715   4.943
21323SOL    HW265744   7.263   0.833   5.036
21324SOL     OW65745  11.463   1.322   9.358
21324SOL    HW165746  11.433   1.287   9.274
21324SOL    HW265747  11.392   1.381   9.386
21325SOL     OW65748  10.255   6.867  14.119
21325SOL    HW165749  10.212   6.927  14.057
21325SOL    HW265750  10.282   6.792  14.066
21326SOL     OW65751   1.828   2.528   9.660
21326SOL    HW165752   1.831   2.433   9.648
21326SOL    HW265753   1.735   2.550   9.657
21327SOL     OW65754   1.350   4.459   1.812
21327SOL    HW165755   1.321   4.377   1.851
21327SOL    HW265756   1.423   4.488   1.867
21328SOL     OW65757  13.186  11.871  12.420
21328SOL    HW165758  13.212  11.957  12.452
21328SOL    HW265759  13.127  11.837  12.487
21329SOL     OW65760   2.752  13.506   6.021
21329SOL    HW165761   2.825  13.566   6.034
21329SOL    HW265762   2.782  13.423   6.057
21330SOL     OW65763   8.367   6.316   0.140
21330SOL    HW165764   8.316   6.396   0.128
21330SOL    HW265765   8.449   6.333   0.094
21331SOL     OW65766  11.580  12.374  11.592
21331SOL    HW165767  11.580  12.448  11.532
21331SOL    HW265768  11.521  12.310  11.552
21332SOL     OW65769  14.708  11.001  13.365
21332SOL    HW165770  14.754  10.974  13.445
21332SOL    HW265771  14.644  11.065  13.396
21333SOL     OW65772   6.819   8.441  11.356
21333SOL    HW165773   6.751   8.506  11.337
21333SOL    HW265774   6.842   8.405  11.270
21334SOL     OW65775   2.335  14.502  11.735
21334SOL    HW165776   2.361  14.503  11.643
21334SOL    HW265777   2.363  14.417  11.768
21335SOL     OW65778   0.381   8.164   4.712
21335SOL    HW165779   0.431   8.084   4.731
21335SOL    HW265780   0.302   8.133   4.667
21336SOL     OW65781   5.110  11.358   0.449
21336SOL    HW165782   5.083  11.293   0.385
21336SOL    HW265783   5.047  11.348   0.521
21337SOL     OW65784   5.516   8.422  12.720
21337SOL    HW165785   5.506   8.477  12.798
21337SOL    HW265786   5.446   8.450  12.662
21338SOL     OW65787   4.301   7.685  11.650
21338SOL    HW165788   4.216   7.645  11.629
21338SOL    HW265789   4.364   7.614  11.638
21339SOL     OW65790   4.283   4.064   6.234
21339SOL    HW165791   4.377   4.067   6.251
21339SOL    HW265792   4.260   4.154   6.212
21340SOL     OW65793   6.950   9.624   0.738
21340SOL    HW165794   6.866   9.665   0.760
21340SOL    HW265795   7.011   9.697   0.731
21341SOL     OW65796   6.540   5.997  11.808
21341SOL    HW165797   6.610   5.965  11.865
21341SOL    HW265798   6.581   6.067  11.757
21342SOL     OW65799  12.971   5.301  12.026
21342SOL    HW165800  12.956   5.361  12.099
21342SOL    HW265801  12.990   5.217  12.068
21343SOL     OW65802  12.801   0.627   7.676
21343SOL    HW165803  12.798   0.532   7.660
21343SOL    HW265804  12.861   0.661   7.610
21344SOL     OW65805  12.605  14.375   3.843
21344SOL    HW165806  12.549  14.439   3.886
21344SOL    HW265807  12.556  14.349   3.765
21345SOL     OW65808   7.701  10.376  12.290
21345SOL    HW165809   7.660  10.356  12.373
21345SOL    HW265810   7.652  10.451  12.256
21346SOL     OW65811   0.683   2.415   0.125
21346SOL    HW165812   0.591   2.399   0.106
21346SOL    HW265813   0.721   2.328   0.135
21347SOL     OW65814   2.454   1.547   7.989
21347SOL    HW165815   2.543   1.529   8.019
21347SOL    HW265816   2.411   1.586   8.065
21348SOL     OW65817   6.592   5.548   4.293
21348SOL    HW165818   6.554   5.543   4.381
21348SOL    HW265819   6.649   5.471   4.288
21349SOL     OW65820   8.281  13.628   7.148
21349SOL    HW165821   8.214  13.608   7.213
21349SOL    HW265822   8.323  13.544   7.129
21350SOL     OW65823   4.214   3.171   6.094
21350SOL    HW165824   4.259   3.254   6.080
21350SOL    HW265825   4.217   3.128   6.009
21351SOL     OW65826   2.749  13.460  14.485
21351SOL    HW165827   2.695  13.382  14.471
21351SOL    HW265828   2.743  13.477  14.579
21352SOL     OW65829   0.834  13.177   4.870
21352SOL    HW165830   0.886  13.098   4.886
21352SOL    HW265831   0.752  13.145   4.831
21353SOL     OW65832   8.797  12.526  14.763
21353SOL    HW165833   8.850  12.468  14.817
21353SOL    HW265834   8.841  12.525  14.678
21354SOL     OW65835   9.928  13.176   5.577
21354SOL    HW165836   9.898  13.242   5.639
21354SOL    HW265837  10.021  13.195   5.565
21355SOL     OW65838  10.233  13.361  11.044
21355SOL    HW165839  10.152  13.389  11.000
21355SOL    HW265840  10.252  13.275  11.007
21356SOL     OW65841   6.999  13.631   5.234
21356SOL    HW165842   6.931  13.630   5.302
21356SOL    HW265843   6.967  13.694   5.169
21357SOL     OW65844  13.904  12.833   4.369
21357SOL    HW165845  13.942  12.871   4.290
21357SOL    HW265846  13.838  12.896   4.397
21358SOL     OW65847   2.454   7.635   1.342
21358SOL    HW165848   2.427   7.695   1.273
21358SOL    HW265849   2.484   7.691   1.413
21359SOL     OW65850   7.080   5.628   8.667
21359SOL    HW165851   7.120   5.714   8.672
21359SOL    HW265852   6.994   5.639   8.709
21360SOL     OW65853  13.627   6.617  10.278
21360SOL    HW165854  13.551   6.597  10.332
21360SOL    HW265855  13.591   6.643  10.193
21361SOL     OW65856  10.358   6.894   8.437
21361SOL    HW165857  10.293   6.959   8.466
21361SOL    HW265858  10.367   6.835   8.512
21362SOL     OW65859   7.386  12.257   9.719
21362SOL    HW165860   7.396  12.334   9.775
21362SOL    HW265861   7.374  12.185   9.781
21363SOL     OW65862   0.373   5.599   3.538
21363SOL    HW165863   0.315   5.542   3.488
21363SOL    HW265864   0.442   5.624   3.476
21364SOL     OW65865  12.204   3.327  14.829
21364SOL    HW165866  12.212   3.322   0.046
21364SOL    HW265867  12.111   3.309  14.812
21365SOL     OW65868   9.995   2.643   4.547
21365SOL    HW165869  10.065   2.674   4.605
21365SOL    HW265870  10.019   2.676   4.460
21366SOL     OW65871   0.294   4.133   9.366
21366SOL    HW165872   0.223   4.070   9.374
21366SOL    HW265873   0.372   4.081   9.348
21367SOL     OW65874   0.168   3.588   6.795
21367SOL    HW165875   0.177   3.576   6.701
21367SOL    HW265876   0.158   3.499   6.830
21368SOL     OW65877   0.596   4.335  12.706
21368SOL    HW165878   0.674   4.388  12.718
21368SOL    HW265879   0.629   4.246  12.694
21369SOL     OW65880   5.509   8.027   9.844
21369SOL    HW165881   5.522   8.049   9.752
21369SOL    HW265882   5.583   7.970   9.865
21370SOL     OW65883   5.694  11.382  10.989
21370SOL    HW165884   5.740  11.447  11.041
21370SOL    HW265885   5.658  11.321  11.053
21371SOL     OW65886   1.256   0.496  11.951
21371SOL    HW165887   1.224   0.551  12.023
21371SOL    HW265888   1.259   0.555  11.876
21372SOL     OW65889  13.150   3.906   3.016
21372SOL    HW165890  13.208   3.840   3.054
21372SOL    HW265891  13.207   3.960   2.962
21373SOL     OW65892   3.145   1.854  10.506
21373SOL    HW165893   3.154   1.828  10.598
21373SOL    HW265894   3.225   1.902  10.487
21374SOL     OW65895   6.684  10.533  14.474
21374SOL    HW165896   6.769  10.497  14.496
21374SOL    HW265897   6.687  10.548  14.380
21375SOL     OW65898   1.351   0.374  14.502
21375SOL    HW165899   1.427   0.432  14.503
21375SOL    HW265900   1.338   0.352  14.410
21376SOL     OW65901   8.829  13.948   5.518
21376SOL    HW165902   8.814  13.897   5.598
21376SOL    HW265903   8.778  13.903   5.451
21377SOL     OW65904  14.818   9.340   9.702
21377SOL    HW165905   0.009   9.274   9.701
21377SOL    HW265906  14.802   9.361   9.610
21378SOL     OW65907   5.295   5.039   8.378
21378SOL    HW165908   5.253   5.115   8.337
21378SOL    HW265909   5.320   4.983   8.305
21379SOL     OW65910  14.286   2.843  11.696
21379SOL    HW165911  14.347   2.915  11.707
21379SOL    HW265912  14.294   2.818  11.604
21380SOL     OW65913   4.553  10.796   7.287
21380SOL    HW165914   4.538  10.860   7.356
21380SOL    HW265915   4.605  10.727   7.328
21381SOL     OW65916   9.454   7.736   9.351
21381SOL    HW165917   9.412   7.706   9.270
21381SOL    HW265918   9.455   7.831   9.343
21382SOL     OW65919   4.578  11.599   2.371
21382SOL    HW165920   4.550  11.512   2.399
21382SOL    HW265921   4.659  11.584   2.323
21383SOL     OW65922  11.689   7.064   6.308
21383SOL    HW165923  11.712   6.975   6.336
21383SOL    HW265924  11.615   7.052   6.249
21384SOL     OW65925  13.802   4.543  13.189
21384SOL    HW165926  13.843   4.554  13.275
21384SOL    HW265927  13.837   4.460  13.156
21385SOL     OW65928   5.553   7.600  12.847
21385SOL    HW165929   5.505   7.641  12.919
21385SOL    HW265930   5.490   7.598  12.775
21386SOL     OW65931   2.674   0.480  14.786
21386SOL    HW165932   2.684   0.394  14.744
21386SOL    HW265933   2.733   0.538  14.737
21387SOL     OW65934   4.635   6.533   0.679
21387SOL    HW165935   4.550   6.533   0.724
21387SOL    HW265936   4.674   6.617   0.702
21388SOL     OW65937   8.950   2.414   1.575
21388SOL    HW165938   8.876   2.420   1.635
21388SOL    HW265939   9.017   2.367   1.625
21389SOL     OW65940  14.724   9.630   6.347
21389SOL    HW165941  14.738   9.633   6.441
21389SOL    HW265942  14.631   9.608   6.337
21390SOL     OW65943   4.940   5.596   4.647
21390SOL    HW165944   5.012   5.539   4.621
21390SOL    HW265945   4.951   5.609   4.741
21391SOL     OW65946   5.388   4.935   2.582
21391SOL    HW165947   5.309   4.964   2.628
21391SOL    HW265948   5.437   5.015   2.566
21392SOL     OW65949   9.555  10.995  10.035
21392SOL    HW165950   9.593  11.056   9.972
21392SOL    HW265951   9.551  10.911   9.988
21393SOL     OW65952  10.337   4.941   6.087
21393SOL    HW165953  10.416   4.989   6.062
21393SOL    HW265954  10.272   5.010   6.102
21394SOL     OW65955  11.691  12.808  10.421
21394SOL    HW165956  11.725  12.774  10.504
21394SOL    HW265957  11.646  12.889  10.445
21395SOL     OW65958  10.042  13.032   8.083
21395SOL    HW165959   9.956  13.031   8.124
21395SOL    HW265960  10.077  13.119   8.103
21396SOL     OW65961  13.537   3.366   2.638
21396SOL    HW165962  13.469   3.317   2.683
21396SOL    HW265963  13.615   3.312   2.645
21397SOL     OW65964   4.503   7.537   8.848
21397SOL    HW165965   4.585   7.506   8.811
21397SOL    HW265966   4.527   7.581   8.929
21398SOL     OW65967   1.866   4.327   6.966
21398SOL    HW165968   1.959   4.304   6.955
21398SOL    HW265969   1.839   4.360   6.880
21399SOL     OW65970   5.527   3.696   5.167
21399SOL    HW165971   5.542   3.652   5.251
21399SOL    HW265972   5.432   3.698   5.158
21400SOL     OW65973  14.243   9.970  10.707
21400SOL    HW165974  14.281   9.951  10.793
21400SOL    HW265975  14.237   9.884  10.664
21401SOL     OW65976   5.382   0.059   7.364
21401SOL    HW165977   5.406   0.042   7.455
21401SOL    HW265978   5.429  14.870   7.314
21402SOL     OW65979   8.998   7.115   9.088
21402SOL    HW165980   8.915   7.126   9.135
21402SOL    HW265981   9.058   7.174   9.132
21403SOL     OW65982   6.837   1.124   1.745
21403SOL    HW165983   6.902   1.054   1.759
21403SOL    HW265984   6.853   1.185   1.817
21404SOL     OW65985  10.109   6.754   3.635
21404SOL    HW165986  10.163   6.750   3.714
21404SOL    HW265987  10.027   6.792   3.665
21405SOL     OW65988  13.269   4.309  14.120
21405SOL    HW165989  13.271   4.289  14.026
21405SOL    HW265990  13.222   4.393  14.126
21406SOL     OW65991  12.206  10.124   7.435
21406SOL    HW165992  12.246  10.177   7.366
21406SOL    HW265993  12.137  10.075   7.390
21407SOL     OW65994   1.110   3.776   4.139
21407SOL    HW165995   1.195   3.820   4.139
21407SOL    HW265996   1.057   3.827   4.202
21408SOL     OW65997   5.669  12.035   7.283
21408SOL    HW165998   5.731  11.992   7.342
21408SOL    HW265999   5.722  12.102   7.238
21409SOL     OW66000   8.559   2.107   1.809
21409SOL    HW166001   8.510   2.030   1.838
21409SOL    HW266002   8.650   2.083   1.821
21410SOL     OW66003   3.787   8.201   1.468
21410SOL    HW166004   3.746   8.254   1.536
21410SOL    HW266005   3.873   8.240   1.456
21411SOL     OW66006   5.554  11.789   0.645
21411SOL    HW166007   5.543  11.816   0.554
21411SOL    HW266008   5.543  11.694   0.643
21412SOL     OW66009   0.315   0.457   4.879
21412SOL    HW166010   0.374   0.487   4.810
21412SOL    HW266011   0.285   0.538   4.921
21413SOL     OW66012   6.722   4.769   2.974
21413SOL    HW166013   6.742   4.762   3.067
21413SOL    HW266014   6.737   4.862   2.953
21414SOL     OW66015   4.782   7.165   3.396
21414SOL    HW166016   4.737   7.242   3.431
21414SOL    HW266017   4.875   7.188   3.398
21415SOL     OW66018   0.538   6.247  14.677
21415SOL    HW166019   0.511   6.187  14.746
21415SOL    HW266020   0.598   6.309  14.720
21416SOL     OW66021   0.855  11.863   9.024
21416SOL    HW166022   0.948  11.845   9.040
21416SOL    HW266023   0.814  11.850   9.109
21417SOL     OW66024   8.214   1.693  13.927
21417SOL    HW166025   8.170   1.608  13.925
21417SOL    HW266026   8.145   1.755  13.951
21418SOL     OW66027   8.811  14.312   8.031
21418SOL    HW166028   8.889  14.282   8.079
21418SOL    HW266029   8.846  14.372   7.965
21419SOL     OW66030   4.138  11.965   3.352
21419SOL    HW166031   4.135  11.956   3.256
21419SOL    HW266032   4.142  12.059   3.367
21420SOL     OW66033   6.938   0.079  12.357
21420SOL    HW166034   7.006   0.053  12.419
21420SOL    HW266035   6.966   0.042  12.273
21421SOL     OW66036   6.226   6.673   0.984
21421SOL    HW166037   6.301   6.632   1.027
21421SOL    HW266038   6.262   6.750   0.941
21422SOL     OW66039   4.325   4.601   3.205
21422SOL    HW166040   4.277   4.520   3.185
21422SOL    HW266041   4.341   4.641   3.120
21423SOL     OW66042   7.509   6.063   2.407
21423SOL    HW166043   7.550   6.129   2.463
21423SOL    HW266044   7.525   6.093   2.318
21424SOL     OW66045   2.722  12.257   5.327
21424SOL    HW166046   2.747  12.346   5.349
21424SOL    HW266047   2.805  12.211   5.313
21425SOL     OW66048  10.909  13.675   0.504
21425SOL    HW166049  10.970  13.610   0.469
21425SOL    HW266050  10.854  13.698   0.429
21426SOL     OW66051   7.753   3.288   8.501
21426SOL    HW166052   7.744   3.284   8.405
21426SOL    HW266053   7.747   3.381   8.522
21427SOL     OW66054  10.207   2.871  11.360
21427SOL    HW166055  10.254   2.830  11.433
21427SOL    HW266056  10.262   2.856  11.284
21428SOL     OW66057   8.771  13.512  12.528
21428SOL    HW166058   8.833  13.566  12.479
21428SOL    HW266059   8.822  13.437  12.557
21429SOL     OW66060   2.061   8.581   5.224
21429SOL    HW166061   2.140   8.536   5.255
21429SOL    HW266062   2.093   8.641   5.157
21430SOL     OW66063   7.497   3.112  12.921
21430SOL    HW166064   7.441   3.185  12.893
21430SOL    HW266065   7.535   3.142  13.004
21431SOL     OW66066   1.170   1.858   1.013
21431SOL    HW166067   1.225   1.845   1.091
21431SOL    HW266068   1.084   1.883   1.048
21432SOL     OW66069   7.932   8.592   2.203
21432SOL    HW166070   7.984   8.557   2.130
21432SOL    HW266071   7.917   8.684   2.179
21433SOL     OW66072   3.327  10.785   9.722
21433SOL    HW166073   3.382  10.814   9.794
21433SOL    HW266074   3.269  10.719   9.761
21434SOL     OW66075   5.715   8.955  11.287
21434SOL    HW166076   5.681   8.906  11.212
21434SOL    HW266077   5.640   9.006  11.318
21435SOL     OW66078   5.262  14.068  14.830
21435SOL    HW166079   5.209  14.082   0.030
21435SOL    HW266080   5.267  13.973  14.821
21436SOL     OW66081   2.991  14.769  11.715
21436SOL    HW166082   3.084  14.766  11.691
21436SOL    HW266083   2.945  14.784  11.632
21437SOL     OW66084  11.579  14.543   4.603
21437SOL    HW166085  11.605  14.571   4.516
21437SOL    HW266086  11.658  14.554   4.657
21438SOL     OW66087   4.991  11.173  14.060
21438SOL    HW166088   4.902  11.197  14.087
21438SOL    HW266089   5.046  11.246  14.090
21439SOL     OW66090   8.822  13.468  10.915
21439SOL    HW166091   8.767  13.449  10.991
21439SOL    HW266092   8.784  13.547  10.878
21440SOL     OW66093   4.660   5.416   4.663
21440SOL    HW166094   4.631   5.462   4.584
21440SOL    HW266095   4.727   5.355   4.631
21441SOL     OW66096  13.794  12.424   9.791
21441SOL    HW166097  13.705  12.403   9.764
21441SOL    HW266098  13.849  12.397   9.718
21442SOL     OW66099   9.986   2.689  12.641
21442SOL    HW166100  10.005   2.705  12.734
21442SOL    HW266101  10.059   2.730  12.595
21443SOL     OW66102   5.743   0.831   0.992
21443SOL    HW166103   5.739   0.925   1.010
21443SOL    HW266104   5.721   0.790   1.076
21444SOL     OW66105  13.308   8.223   5.896
21444SOL    HW166106  13.261   8.299   5.929
21444SOL    HW266107  13.247   8.150   5.907
21445SOL     OW66108   6.494   2.764   6.236
21445SOL    HW166109   6.443   2.835   6.197
21445SOL    HW266110   6.558   2.809   6.293
21446SOL     OW66111   8.904  10.759   6.546
21446SOL    HW166112   8.848  10.805   6.483
21446SOL    HW266113   8.846  10.740   6.620
21447SOL     OW66114   7.530   6.376  14.839
21447SOL    HW166115   7.610   6.326  14.828
21447SOL    HW266116   7.538   6.415   0.049
21448SOL     OW66117   8.519   5.588   3.982
21448SOL    HW166118   8.592   5.564   4.038
21448SOL    HW266119   8.448   5.610   4.042
21449SOL     OW66120  13.911  12.375   0.468
21449SOL    HW166121  13.909  12.399   0.375
21449SOL    HW266122  13.833  12.417   0.505
21450SOL     OW66123  12.916  12.517  13.202
21450SOL    HW166124  12.901  12.512  13.108
21450SOL    HW266125  12.836  12.555  13.237
21451SOL     OW66126  13.819   0.947   7.066
21451SOL    HW166127  13.859   0.955   7.152
21451SOL    HW266128  13.793   1.036   7.042
21452SOL     OW66129   1.812  10.165   1.211
21452SOL    HW166130   1.735  10.143   1.264
21452SOL    HW266131   1.870  10.212   1.271
21453SOL     OW66132  10.920   5.248   1.047
21453SOL    HW166133  10.832   5.285   1.062
21453SOL    HW266134  10.928   5.179   1.112
21454SOL     OW66135   5.203   0.352   4.539
21454SOL    HW166136   5.148   0.274   4.533
21454SOL    HW266137   5.249   0.342   4.623
21455SOL     OW66138   2.063   3.740   2.574
21455SOL    HW166139   2.115   3.691   2.638
21455SOL    HW266140   2.090   3.704   2.489
21456SOL     OW66141   0.483  12.874   1.912
21456SOL    HW166142   0.519  12.843   1.829
21456SOL    HW266143   0.549  12.935   1.945
21457SOL     OW66144   2.182  11.993   0.855
21457SOL    HW166145   2.171  12.064   0.918
21457SOL    HW266146   2.277  11.986   0.844
21458SOL     OW66147   6.696   6.080   4.271
21458SOL    HW166148   6.768   6.034   4.227
21458SOL    HW266149   6.644   6.010   4.310
21459SOL     OW66150   5.389  10.687   2.383
21459SOL    HW166151   5.364  10.718   2.470
21459SOL    HW266152   5.382  10.764   2.327
21460SOL     OW66153   5.045   3.901  11.420
21460SOL    HW166154   4.959   3.904  11.378
21460SOL    HW266155   5.040   3.966  11.490
21461SOL     OW66156   3.001  14.586  12.180
21461SOL    HW166157   3.067  14.631  12.128
21461SOL    HW266158   3.051  14.535  12.244
21462SOL     OW66159   1.367   4.256   9.625
21462SOL    HW166160   1.377   4.344   9.587
21462SOL    HW266161   1.286   4.261   9.675
21463SOL     OW66162  13.031   2.469   8.912
21463SOL    HW166163  12.938   2.489   8.907
21463SOL    HW266164  13.056   2.451   8.821
21464SOL     OW66165   2.785   2.253   2.067
21464SOL    HW166166   2.775   2.324   2.131
21464SOL    HW266167   2.717   2.190   2.091
21465SOL     OW66168  10.821   8.339   9.918
21465SOL    HW166169  10.774   8.338  10.002
21465SOL    HW266170  10.898   8.285   9.934
21466SOL     OW66171  11.296   0.268  11.743
21466SOL    HW166172  11.366   0.214  11.781
21466SOL    HW266173  11.236   0.284  11.816
21467SOL     OW66174   2.528   1.624  12.011
21467SOL    HW166175   2.540   1.567  11.936
21467SOL    HW266176   2.591   1.694  11.999
21468SOL     OW66177   2.496   4.651   4.243
21468SOL    HW166178   2.580   4.697   4.244
21468SOL    HW266179   2.504   4.585   4.312
21469SOL     OW66180   7.313   9.287   8.694
21469SOL    HW166181   7.369   9.209   8.692
21469SOL    HW266182   7.334   9.333   8.613
21470SOL     OW66183   2.930   4.705   8.841
21470SOL    HW166184   2.997   4.720   8.775
21470SOL    HW266185   2.852   4.749   8.807
21471SOL     OW66186   7.856   9.763   6.218
21471SOL    HW166187   7.910   9.721   6.285
21471SOL    HW266188   7.791   9.697   6.194
21472SOL     OW66189   6.629   7.643   9.199
21472SOL    HW166190   6.719   7.646   9.231
21472SOL    HW266191   6.626   7.707   9.128
21473SOL     OW66192  12.820   6.354   0.134
21473SOL    HW166193  12.828   6.280   0.073
21473SOL    HW266194  12.755   6.411   0.094
21474SOL     OW66195   7.628  10.000   6.433
21474SOL    HW166196   7.648   9.907   6.442
21474SOL    HW266197   7.677  10.042   6.503
21475SOL     OW66198   6.297  12.760   3.267
21475SOL    HW166199   6.384  12.794   3.246
21475SOL    HW266200   6.314  12.688   3.329
21476SOL     OW66201   6.598   1.107   1.632
21476SOL    HW166202   6.689   1.105   1.663
21476SOL    HW266203   6.550   1.154   1.700
21477SOL     OW66204  11.882  13.070   3.608
21477SOL    HW166205  11.791  13.096   3.592
21477SOL    HW266206  11.882  12.975   3.594
21478SOL     OW66207  12.876   1.766  12.715
21478SOL    HW166208  12.875   1.854  12.678
21478SOL    HW266209  12.896   1.709  12.640
21479SOL     OW66210   2.431   5.158  11.294
21479SOL    HW166211   2.463   5.243  11.264
21479SOL    HW266212   2.340   5.174  11.317
21480SOL     OW66213   4.656   9.736  14.871
21480SOL    HW166214   4.613   9.798  14.811
21480SOL    HW266215   4.746   9.731  14.838
21481SOL     OW66216  11.755   0.962   5.567
21481SOL    HW166217  11.673   0.916   5.588
21481SOL    HW266218  11.776   1.010   5.647
21482SOL     OW66219   7.086  10.343  12.729
21482SOL    HW166220   6.996  10.374  12.724
21482SOL    HW266221   7.095  10.283  12.655
21483SOL     OW66222  11.478  12.616   8.840
21483SOL    HW166223  11.426  12.674   8.784
21483SOL    HW266224  11.432  12.618   8.924
21484SOL     OW66225   8.323   3.958   3.160
21484SOL    HW166226   8.342   3.918   3.075
21484SOL    HW266227   8.371   4.041   3.160
21485SOL     OW66228   4.237   2.376  14.122
21485SOL    HW166229   4.259   2.430  14.047
21485SOL    HW266230   4.233   2.286  14.088
21486SOL     OW66231  12.454   6.311  11.608
21486SOL    HW166232  12.451   6.216  11.619
21486SOL    HW266233  12.545   6.334  11.624
21487SOL     OW66234   9.850   4.645   3.545
21487SOL    HW166235   9.924   4.605   3.499
21487SOL    HW266236   9.891   4.697   3.614
21488SOL     OW66237   0.939   8.932  13.950
21488SOL    HW166238   0.874   8.872  13.914
21488SOL    HW266239   1.010   8.933  13.885
21489SOL     OW66240   5.664   8.501   4.528
21489SOL    HW166241   5.692   8.587   4.496
21489SOL    HW266242   5.694   8.440   4.461
21490SOL     OW66243   7.720  10.294   4.068
21490SOL    HW166244   7.649  10.264   4.012
21490SOL    HW266245   7.741  10.218   4.122
21491SOL     OW66246  12.524   8.642  11.024
21491SOL    HW166247  12.559   8.647  10.936
21491SOL    HW266248  12.533   8.549  11.048
21492SOL     OW66249  11.058   1.802  12.285
21492SOL    HW166250  10.962   1.800  12.285
21492SOL    HW266251  11.081   1.840  12.370
21493SOL     OW66252  12.440  13.271   6.500
21493SOL    HW166253  12.511  13.231   6.449
21493SOL    HW266254  12.370  13.286   6.437
21494SOL     OW66255   9.404   1.490   6.633
21494SOL    HW166256   9.472   1.507   6.698
21494SOL    HW266257   9.324   1.477   6.684
21495SOL     OW66258   7.928   1.251  14.564
21495SOL    HW166259   7.892   1.306  14.634
21495SOL    HW266260   7.931   1.163  14.602
21496SOL     OW66261  11.935   5.807   8.451
21496SOL    HW166262  11.990   5.872   8.408
21496SOL    HW266263  11.846   5.838   8.437
21497SOL     OW66264   8.578  14.360  13.918
21497SOL    HW166265   8.654  14.417  13.907
21497SOL    HW266266   8.588  14.323  14.006
21498SOL     OW66267   6.481   7.441   1.802
21498SOL    HW166268   6.474   7.536   1.811
21498SOL    HW266269   6.575   7.424   1.792
21499SOL     OW66270   7.457  14.286   4.749
21499SOL    HW166271   7.500  14.371   4.746
21499SOL    HW266272   7.499  14.236   4.679
21500SOL     OW66273  11.999   3.184   9.744
21500SOL    HW166274  11.929   3.195   9.679
21500SOL    HW266275  12.080   3.193   9.694
21501SOL     OW66276  14.175   6.334   4.129
21501SOL    HW166277  14.118   6.388   4.184
21501SOL    HW266278  14.134   6.247   4.131
21502SOL     OW66279  10.941   2.476  12.502
21502SOL    HW166280  10.885   2.532  12.448
21502SOL    HW266281  10.881   2.434  12.563
21503SOL     OW66282  12.382  10.130  13.401
21503SOL    HW166283  12.332  10.049  13.396
21503SOL    HW266284  12.455  10.117  13.340
21504SOL     OW66285   4.964  10.529   9.783
21504SOL    HW166286   4.949  10.616   9.747
21504SOL    HW266287   4.894  10.518   9.849
21505SOL     OW66288   9.894  12.093  11.698
21505SOL    HW166289   9.881  12.091  11.793
21505SOL    HW266290   9.873  12.005  11.669
21506SOL     OW66291   8.551   2.701   0.005
21506SOL    HW166292   8.604   2.624   0.026
21506SOL    HW266293   8.489   2.670  14.817
21507SOL     OW66294  13.131   6.066   0.071
21507SOL    HW166295  13.067   5.997   0.056
21507SOL    HW266296  13.216   6.021   0.068
21508SOL     OW66297   8.289  13.507   2.881
21508SOL    HW166298   8.284  13.472   2.971
21508SOL    HW266299   8.199  13.507   2.850
21509SOL     OW66300   1.693   8.546   7.621
21509SOL    HW166301   1.674   8.460   7.583
21509SOL    HW266302   1.674   8.608   7.551
21510SOL     OW66303   8.749  13.404   4.516
21510SOL    HW166304   8.811  13.338   4.486
21510SOL    HW266305   8.722  13.374   4.603
21511SOL     OW66306   1.567   3.923   3.236
21511SOL    HW166307   1.478   3.902   3.263
21511SOL    HW266308   1.558   4.005   3.187
21512SOL     OW66309  11.123   6.585   6.672
21512SOL    HW166310  11.046   6.535   6.648
21512SOL    HW266311  11.196   6.523   6.664
21513SOL     OW66312  11.608  13.791   2.999
21513SOL    HW166313  11.651  13.792   3.085
21513SOL    HW266314  11.675  13.824   2.939
21514SOL     OW66315   4.031  13.618   4.182
21514SOL    HW166316   4.095  13.679   4.217
21514SOL    HW266317   3.964  13.611   4.250
21515SOL     OW66318   1.647   3.366   7.889
21515SOL    HW166319   1.682   3.357   7.978
21515SOL    HW266320   1.722   3.346   7.832
21516SOL     OW66321   5.094  10.517  10.993
21516SOL    HW166322   5.066  10.443  10.938
21516SOL    HW266323   5.107  10.588  10.930
21517SOL     OW66324   9.280   0.754   7.981
21517SOL    HW166325   9.258   0.713   8.065
21517SOL    HW266326   9.199   0.751   7.931
21518SOL     OW66327  14.443  14.225  13.103
21518SOL    HW166328  14.490  14.283  13.163
21518SOL    HW266329  14.355  14.264  13.097
21519SOL     OW66330   2.507  13.778   2.098
21519SOL    HW166331   2.565  13.849   2.068
21519SOL    HW266332   2.540  13.700   2.054
21520SOL     OW66333  13.781   7.686   0.747
21520SOL    HW166334  13.865   7.644   0.765
21520SOL    HW266335  13.719   7.613   0.739
21521SOL     OW66336   6.917   1.191   0.661
21521SOL    HW166337   6.989   1.195   0.597
21521SOL    HW266338   6.949   1.241   0.736
21522SOL     OW66339  14.136   1.108   4.091
21522SOL    HW166340  14.160   1.058   4.169
21522SOL    HW266341  14.051   1.147   4.112
21523SOL     OW66342  14.514   2.198   9.527
21523SOL    HW166343  14.601   2.236   9.536
21523SOL    HW266344  14.454   2.266   9.560
21524SOL     OW66345   3.736   7.386   5.656
21524SOL    HW166346   3.747   7.308   5.602
21524SOL    HW266347   3.642   7.403   5.654
21525SOL     OW66348   2.051   1.743  14.238
21525SOL    HW166349   1.997   1.765  14.162
21525SOL    HW266350   2.139   1.729  14.202
21526SOL     OW66351  12.704  13.786   9.767
21526SOL    HW166352  12.790  13.748   9.750
21526SOL    HW266353  12.722  13.877   9.791
21527SOL     OW66354   0.373   4.859   6.032
21527SOL    HW166355   0.312   4.885   5.962
21527SOL    HW266356   0.403   4.772   6.005
21528SOL     OW66357  13.568   2.501  12.105
21528SOL    HW166358  13.611   2.459  12.179
21528SOL    HW266359  13.482   2.458  12.099
21529SOL     OW66360   1.304  10.386   5.409
21529SOL    HW166361   1.377  10.337   5.446
21529SOL    HW266362   1.344  10.450   5.351
21530SOL     OW66363   2.335   3.572   6.604
21530SOL    HW166364   2.416   3.533   6.571
21530SOL    HW266365   2.361   3.613   6.687
21531SOL     OW66366   6.579   4.972   3.941
21531SOL    HW166367   6.543   5.046   3.990
21531SOL    HW266368   6.666   5.000   3.916
21532SOL     OW66369   7.422   5.257   5.361
21532SOL    HW166370   7.463   5.249   5.275
21532SOL    HW266371   7.330   5.275   5.343
21533SOL     OW66372   8.080   4.556  11.022
21533SOL    HW166373   8.106   4.485  11.082
21533SOL    HW266374   8.082   4.634  11.077
21534SOL     OW66375   6.638   5.873  10.349
21534SOL    HW166376   6.664   5.811  10.281
21534SOL    HW266377   6.701   5.860  10.419
21535SOL     OW66378   0.757   8.426   2.254
21535SOL    HW166379   0.793   8.364   2.191
21535SOL    HW266380   0.782   8.390   2.340
21536SOL     OW66381   9.152   5.473   8.843
21536SOL    HW166382   9.137   5.439   8.932
21536SOL    HW266383   9.240   5.444   8.821
21537SOL     OW66384   9.900   3.409  10.204
21537SOL    HW166385   9.937   3.490  10.167
21537SOL    HW266386   9.912   3.419  10.299
21538SOL     OW66387   6.469   5.709   7.154
21538SOL    HW166388   6.431   5.796   7.162
21538SOL    HW266389   6.551   5.722   7.106
21539SOL     OW66390  12.222   8.727   7.938
21539SOL    HW166391  12.207   8.715   8.032
21539SOL    HW266392  12.293   8.667   7.917
21540SOL     OW66393  10.257  11.090  12.766
21540SOL    HW166394  10.244  11.046  12.682
21540SOL    HW266395  10.172  11.129  12.786
21541SOL     OW66396   2.873  13.560  11.659
21541SOL    HW166397   2.894  13.653  11.648
21541SOL    HW266398   2.832  13.534  11.577
21542SOL     OW66399   2.553   6.080   8.554
21542SOL    HW166400   2.497   6.045   8.623
21542SOL    HW266401   2.635   6.102   8.599
21543SOL     OW66402   5.659   7.363   7.813
21543SOL    HW166403   5.571   7.380   7.848
21543SOL    HW266404   5.656   7.397   7.724
21544SOL     OW66405   8.813   3.918  12.248
21544SOL    HW166406   8.871   3.972  12.302
21544SOL    HW266407   8.801   3.838  12.299
21545SOL     OW66408  14.820  13.480   5.644
21545SOL    HW166409  14.743  13.449   5.596
21545SOL    HW266410  14.785  13.534   5.714
21546SOL     OW66411   6.790  10.639   4.924
21546SOL    HW166412   6.878  10.653   4.887
21546SOL    HW266413   6.745  10.722   4.909
21547SOL     OW66414  11.456  11.806   3.837
21547SOL    HW166415  11.477  11.722   3.876
21547SOL    HW266416  11.523  11.819   3.770
21548SOL     OW66417   8.628   4.135   1.701
21548SOL    HW166418   8.582   4.215   1.677
21548SOL    HW266419   8.564   4.065   1.687
21549SOL     OW66420   2.336  11.632   9.716
21549SOL    HW166421   2.333  11.714   9.666
21549SOL    HW266422   2.317  11.657   9.806
21550SOL     OW66423  13.433   5.636   6.395
21550SOL    HW166424  13.505   5.637   6.458
21550SOL    HW266425  13.358   5.603   6.445
21551SOL     OW66426   5.199  11.344   9.290
21551SOL    HW166427   5.130  11.282   9.263
21551SOL    HW266428   5.195  11.345   9.385
21552SOL     OW66429   0.858   0.232   7.848
21552SOL    HW166430   0.848   0.147   7.805
21552SOL    HW266431   0.865   0.294   7.776
21553SOL     OW66432   7.165   3.839  10.092
21553SOL    HW166433   7.143   3.775  10.024
21553SOL    HW266434   7.093   3.903  10.089
21554SOL     OW66435   1.876  12.313   1.154
21554SOL    HW166436   1.885  12.266   1.237
21554SOL    HW266437   1.891  12.405   1.177
21555SOL     OW66438  13.947  13.730  12.395
21555SOL    HW166439  13.940  13.782  12.476
21555SOL    HW266440  13.859  13.735  12.356
21556SOL     OW66441   1.588  12.605   1.943
21556SOL    HW166442   1.611  12.664   1.871
21556SOL    HW266443   1.516  12.552   1.908
21557SOL     OW66444   5.680  11.924   9.550
21557SOL    HW166445   5.624  11.848   9.536
21557SOL    HW266446   5.630  11.980   9.609
21558SOL     OW66447   0.803   2.299   3.295
21558SOL    HW166448   0.884   2.251   3.280
21558SOL    HW266449   0.826   2.369   3.356
21559SOL     OW66450   7.999  12.063   4.619
21559SOL    HW166451   7.996  11.967   4.613
21559SOL    HW266452   7.913  12.087   4.652
21560SOL     OW66453   2.604  10.086  13.379
21560SOL    HW166454   2.677  10.131  13.336
21560SOL    HW266455   2.526  10.132  13.348
21561SOL     OW66456  10.132   2.205   8.089
21561SOL    HW166457  10.179   2.121   8.093
21561SOL    HW266458  10.041   2.181   8.073
21562SOL     OW66459  13.118  12.874   8.074
21562SOL    HW166460  13.206  12.850   8.102
21562SOL    HW266461  13.070  12.893   8.155
21563SOL     OW66462  10.003  14.681   5.872
21563SOL    HW166463  10.096  14.670   5.891
21563SOL    HW266464   9.962  14.696   5.958
21564SOL     OW66465   6.851   1.354   2.913
21564SOL    HW166466   6.780   1.310   2.960
21564SOL    HW266467   6.808   1.423   2.863
21565SOL     OW66468  11.226   0.006  12.487
21565SOL    HW166469  11.201  14.867  12.395
21565SOL    HW266470  11.215  14.799  12.530
21566SOL     OW66471   1.709   5.714   0.714
21566SOL    HW166472   1.750   5.771   0.779
21566SOL    HW266473   1.658   5.773   0.659
21567SOL     OW66474  14.316  12.972   5.618
21567SOL    HW166475  14.258  13.011   5.552
21567SOL    HW266476  14.281  12.884   5.631
21568SOL     OW66477  13.826   7.882   0.568
21568SOL    HW166478  13.860   7.948   0.628
21568SOL    HW266479  13.811   7.805   0.623
21569SOL     OW66480   6.536   4.684  11.097
21569SOL    HW166481   6.522   4.652  11.185
21569SOL    HW266482   6.573   4.609  11.049
21570SOL     OW66483   3.336   1.387   4.088
21570SOL    HW166484   3.385   1.468   4.102
21570SOL    HW266485   3.402   1.323   4.062
21571SOL     OW66486   9.065   1.039   2.342
21571SOL    HW166487   9.118   1.066   2.266
21571SOL    HW266488   9.087   1.102   2.410
21572SOL     OW66489   8.959   9.404   5.654
21572SOL    HW166490   9.016   9.429   5.727
21572SOL    HW266491   8.992   9.319   5.625
21573SOL     OW66492  14.294   3.349   7.745
21573SOL    HW166493  14.339   3.355   7.661
21573SOL    HW266494  14.277   3.439   7.770
21574SOL     OW66495   5.940   3.645   0.565
21574SOL    HW166496   6.012   3.607   0.616
21574SOL    HW266497   5.905   3.571   0.515
21575SOL     OW66498   7.417   4.855  13.628
21575SOL    HW166499   7.391   4.838  13.537
21575SOL    HW266500   7.390   4.777  13.676
21576SOL     OW66501   1.848  10.669  12.955
21576SOL    HW166502   1.891  10.720  13.024
21576SOL    HW266503   1.776  10.725  12.925
21577SOL     OW66504   0.740   3.294  12.602
21577SOL    HW166505   0.806   3.330  12.662
21577SOL    HW266506   0.785   3.285  12.518
21578SOL     OW66507  14.802   5.598   2.075
21578SOL    HW166508  14.768   5.513   2.047
21578SOL    HW266509  14.762   5.612   2.161
21579SOL     OW66510   3.179   8.978  11.908
21579SOL    HW166511   3.139   8.892  11.924
21579SOL    HW266512   3.150   9.002  11.819
21580SOL     OW66513   7.202   7.411  14.227
21580SOL    HW166514   7.245   7.496  14.219
21580SOL    HW266515   7.252   7.353  14.170
21581SOL     OW66516   0.273   3.921   9.106
21581SOL    HW166517   0.211   3.910   9.178
21581SOL    HW266518   0.358   3.897   9.143
21582SOL     OW66519   6.895   4.686   7.844
21582SOL    HW166520   6.908   4.768   7.797
21582SOL    HW266521   6.945   4.696   7.925
21583SOL     OW66522  11.692   0.057   1.446
21583SOL    HW166523  11.644   0.024   1.522
21583SOL    HW266524  11.722   0.144   1.472
21584SOL     OW66525   1.535   9.706  12.424
21584SOL    HW166526   1.540   9.782  12.365
21584SOL    HW266527   1.610   9.652  12.400
21585SOL     OW66528   1.937  12.899  12.510
21585SOL    HW166529   1.858  12.950  12.528
21585SOL    HW266530   2.002  12.963  12.483
21586SOL     OW66531   1.080   9.684   9.863
21586SOL    HW166532   1.055   9.741   9.790
21586SOL    HW266533   1.006   9.688   9.923
21587SOL     OW66534  11.188  13.940  12.106
21587SOL    HW166535  11.182  13.999  12.031
21587SOL    HW266536  11.270  13.965  12.149
21588SOL     OW66537  10.846  10.884   3.435
21588SOL    HW166538  10.798  10.801   3.432
21588SOL    HW266539  10.802  10.937   3.501
21589SOL     OW66540   0.206  10.243   9.912
21589SOL    HW166541   0.115  10.218   9.926
21589SOL    HW266542   0.210  10.272   9.821
21590SOL     OW66543   3.757   4.539  12.386
21590SOL    HW166544   3.851   4.546  12.373
21590SOL    HW266545   3.728   4.477  12.320
21591SOL     OW66546   7.180   5.173   4.570
21591SOL    HW166547   7.164   5.112   4.498
21591SOL    HW266548   7.093   5.199   4.598
21592SOL     OW66549   1.591   2.029   9.504
21592SOL    HW166550   1.667   1.970   9.503
21592SOL    HW266551   1.629   2.116   9.510
21593SOL     OW66552   6.937   6.197  14.198
21593SOL    HW166553   6.880   6.226  14.269
21593SOL    HW266554   6.966   6.110  14.225
21594SOL     OW66555   8.694  13.613   9.885
21594SOL    HW166556   8.672  13.642   9.973
21594SOL    HW266557   8.737  13.528   9.898
21595SOL     OW66558   1.155  14.412  10.141
21595SOL    HW166559   1.220  14.482  10.151
21595SOL    HW266560   1.188  14.341  10.195
21596SOL     OW66561  13.720   8.829   9.903
21596SOL    HW166562  13.722   8.828   9.808
21596SOL    HW266563  13.701   8.739   9.928
21597SOL     OW66564   7.310   0.084   4.679
21597SOL    HW166565   7.349   0.072   4.765
21597SOL    HW266566   7.302  14.873   4.643
21598SOL     OW66567   3.056  12.408  12.333
21598SOL    HW166568   3.033  12.373  12.419
21598SOL    HW266569   3.117  12.479  12.352
21599SOL     OW66570   9.523   2.351   2.202
21599SOL    HW166571   9.546   2.350   2.295
21599SOL    HW266572   9.597   2.394   2.159
21600SOL     OW66573   2.535   1.276   7.278
21600SOL    HW166574   2.577   1.348   7.230
21600SOL    HW266575   2.473   1.320   7.336
21601SOL     OW66576   2.473   8.550   4.107
21601SOL    HW166577   2.446   8.555   4.198
21601SOL    HW266578   2.410   8.490   4.067
21602SOL     OW66579   9.858  10.921   6.413
21602SOL    HW166580   9.890  10.831   6.412
21602SOL    HW266581   9.769  10.916   6.448
21603SOL     OW66582   4.395   9.604   0.794
21603SOL    HW166583   4.314   9.630   0.838
21603SOL    HW266584   4.389   9.509   0.787
21604SOL     OW66585   5.898  14.178  12.892
21604SOL    HW166586   5.966  14.173  12.824
21604SOL    HW266587   5.927  14.115  12.958
21605SOL     OW66588  13.165  12.294   8.367
21605SOL    HW166589  13.237  12.246   8.326
21605SOL    HW266590  13.177  12.280   8.461
21606SOL     OW66591   9.080   9.236   9.251
21606SOL    HW166592   9.121   9.284   9.180
21606SOL    HW266593   9.153   9.205   9.305
21607SOL     OW66594  10.243  12.143   4.834
21607SOL    HW166595  10.305  12.075   4.860
21607SOL    HW266596  10.271  12.169   4.746
21608SOL     OW66597   5.496   8.631   8.922
21608SOL    HW166598   5.513   8.537   8.922
21608SOL    HW266599   5.583   8.671   8.925
21609SOL     OW66600   1.240   1.101  12.241
21609SOL    HW166601   1.251   1.100  12.146
21609SOL    HW266602   1.227   1.010  12.265
21610SOL     OW66603   6.988   7.184   9.280
21610SOL    HW166604   6.940   7.158   9.201
21610SOL    HW266605   7.029   7.103   9.310
21611SOL     OW66606  14.655   0.621   5.963
21611SOL    HW166607  14.619   0.593   6.047
21611SOL    HW266608  14.731   0.675   5.988
21612SOL     OW66609  14.490  12.563   5.636
21612SOL    HW166610  14.495  12.584   5.543
21612SOL    HW266611  14.582  12.556   5.664
21613SOL     OW66612   8.865   4.778   4.232
21613SOL    HW166613   8.772   4.787   4.248
21613SOL    HW266614   8.875   4.792   4.138
21614SOL     OW66615  11.111   4.583   9.496
21614SOL    HW166616  11.166   4.510   9.466
21614SOL    HW266617  11.103   4.569   9.590
21615SOL     OW66618  11.664   3.093   9.437
21615SOL    HW166619  11.609   3.144   9.378
21615SOL    HW266620  11.643   3.001   9.416
21616SOL     OW66621   2.406  11.844   8.941
21616SOL    HW166622   2.314  11.862   8.961
21616SOL    HW266623   2.403  11.769   8.881
21617SOL     OW66624  12.955  10.965   7.156
21617SOL    HW166625  12.978  10.954   7.248
21617SOL    HW266626  12.907  10.885   7.134
21618SOL     OW66627  12.238   6.772   2.387
21618SOL    HW166628  12.230   6.823   2.468
21618SOL    HW266629  12.332   6.754   2.379
21619SOL     OW66630  10.653  13.847  13.588
21619SOL    HW166631  10.602  13.824  13.666
21619SOL    HW266632  10.740  13.868  13.621
21620SOL     OW66633   9.530   6.020  10.826
21620SOL    HW166634   9.461   6.087  10.830
21620SOL    HW266635   9.612   6.069  10.829
21621SOL     OW66636   5.182   8.724  14.053
21621SOL    HW166637   5.187   8.778  14.132
21621SOL    HW266638   5.267   8.680  14.049
21622SOL     OW66639  11.817   4.900   6.456
21622SOL    HW166640  11.904   4.913   6.494
21622SOL    HW266641  11.808   4.971   6.392
21623SOL     OW66642  12.609  14.622  10.301
21623SOL    HW166643  12.518  14.634  10.272
21623SOL    HW266644  12.615  14.672  10.382
21624SOL     OW66645   7.705   1.399   3.347
21624SOL    HW166646   7.716   1.318   3.298
21624SOL    HW266647   7.625   1.386   3.397
21625SOL     OW66648  13.306  13.029   7.855
21625SOL    HW166649  13.333  13.095   7.790
21625SOL    HW266650  13.240  13.074   7.908
21626SOL     OW66651  12.035   2.566  10.794
21626SOL    HW166652  12.029   2.506  10.869
21626SOL    HW266653  12.113   2.538  10.747
21627SOL     OW66654   8.350  14.276  12.122
21627SOL    HW166655   8.405  14.209  12.081
21627SOL    HW266656   8.284  14.296  12.056
21628SOL     OW66657   0.872   5.731   3.951
21628SOL    HW166658   0.929   5.801   3.919
21628SOL    HW266659   0.881   5.734   4.046
21629SOL     OW66660   2.017   1.195   7.988
21629SOL    HW166661   2.050   1.110   8.016
21629SOL    HW266662   2.092   1.238   7.947
21630SOL     OW66663   2.221  13.923   0.544
21630SOL    HW166664   2.166  13.998   0.521
21630SOL    HW266665   2.304  13.961   0.572
21631SOL     OW66666   6.505  14.082  13.762
21631SOL    HW166667   6.541  14.057  13.677
21631SOL    HW266668   6.508  14.177  13.762
21632SOL     OW66669  11.376   6.113   9.096
21632SOL    HW166670  11.428   6.044   9.136
21632SOL    HW266671  11.337   6.071   9.019
21633SOL     OW66672   8.935  13.188  12.891
21633SOL    HW166673   8.904  13.144  12.970
21633SOL    HW266674   9.031  13.179  12.895
21634SOL     OW66675   3.150  14.390  11.553
21634SOL    HW166676   3.185  14.421  11.637
21634SOL    HW266677   3.227  14.366  11.502
21635SOL     OW66678   5.609  13.526   7.412
21635SOL    HW166679   5.697  13.490   7.405
21635SOL    HW266680   5.555  13.453   7.443
21636SOL     OW66681   7.139   0.228  10.082
21636SOL    HW166682   7.209   0.256  10.023
21636SOL    HW266683   7.100   0.153  10.038
21637SOL     OW66684   4.662   2.305  13.112
21637SOL    HW166685   4.740   2.336  13.158
21637SOL    HW266686   4.694   2.278  13.026
21638SOL     OW66687   8.203   4.430  14.060
21638SOL    HW166688   8.151   4.488  14.004
21638SOL    HW266689   8.198   4.471  14.147
21639SOL     OW66690  13.569   9.119   1.296
21639SOL    HW166691  13.543   9.194   1.242
21639SOL    HW266692  13.638   9.154   1.353
21640SOL     OW66693   8.526   6.645   9.786
21640SOL    HW166694   8.540   6.557   9.821
21640SOL    HW266695   8.474   6.689   9.852
21641SOL     OW66696   0.776   5.681   6.450
21641SOL    HW166697   0.805   5.679   6.542
21641SOL    HW266698   0.687   5.716   6.454
21642SOL     OW66699  14.586   0.723  12.078
21642SOL    HW166700  14.512   0.784  12.077
21642SOL    HW266701  14.657   0.772  12.036
21643SOL     OW66702   8.760   2.069   4.832
21643SOL    HW166703   8.749   2.162   4.812
21643SOL    HW266704   8.852   2.050   4.813
21644SOL     OW66705  14.264  14.031   3.425
21644SOL    HW166706  14.220  14.069   3.501
21644SOL    HW266707  14.303  14.106   3.380
21645SOL     OW66708  12.123  13.920   3.857
21645SOL    HW166709  12.164  13.846   3.813
21645SOL    HW266710  12.104  13.982   3.787
21646SOL     OW66711   9.980   3.526   9.518
21646SOL    HW166712  10.067   3.509   9.555
21646SOL    HW266713   9.919   3.508   9.591
21647SOL     OW66714   1.450   6.242  12.241
21647SOL    HW166715   1.391   6.302  12.286
21647SOL    HW266716   1.404   6.158  12.241
21648SOL     OW66717   5.196   2.425  10.062
21648SOL    HW166718   5.250   2.365  10.114
21648SOL    HW266719   5.184   2.501  10.119
21649SOL     OW66720   8.100   1.532  14.243
21649SOL    HW166721   8.166   1.549  14.177
21649SOL    HW266722   8.017   1.530  14.195
21650SOL     OW66723  11.400   8.424   5.282
21650SOL    HW166724  11.381   8.335   5.251
21650SOL    HW266725  11.373   8.481   5.210
21651SOL     OW66726  13.021   6.222   1.603
21651SOL    HW166727  13.094   6.161   1.612
21651SOL    HW266728  13.037   6.266   1.520
21652SOL     OW66729   2.678   4.875  12.425
21652SOL    HW166730   2.709   4.917  12.505
21652SOL    HW266731   2.584   4.862  12.439
21653SOL     OW66732   9.358   3.265   0.181
21653SOL    HW166733   9.446   3.297   0.163
21653SOL    HW266734   9.301   3.342   0.170
21654SOL     OW66735   6.921  12.663   4.809
21654SOL    HW166736   6.996  12.617   4.848
21654SOL    HW266737   6.960  12.735   4.760
21655SOL     OW66738   6.614   0.253   7.663
21655SOL    HW166739   6.689   0.310   7.678
21655SOL    HW266740   6.556   0.303   7.606
21656SOL     OW66741   3.313   9.298  10.813
21656SOL    HW166742   3.372   9.366  10.846
21656SOL    HW266743   3.339   9.286  10.721
21657SOL     OW66744   5.772  10.607   9.896
21657SOL    HW166745   5.730  10.523   9.878
21657SOL    HW266746   5.780  10.649   9.810
21658SOL     OW66747   7.500  13.988   3.287
21658SOL    HW166748   7.477  14.033   3.206
21658SOL    HW266749   7.435  13.918   3.295
21659SOL     OW66750   9.671   6.840  10.000
21659SOL    HW166751   9.583   6.807   9.980
21659SOL    HW266752   9.661   6.935  10.000
21660SOL     OW66753   4.157   0.991   3.342
21660SOL    HW166754   4.163   1.079   3.380
21660SOL    HW266755   4.245   0.974   3.308
21661SOL     OW66756  11.954   5.321  12.633
21661SOL    HW166757  11.867   5.288  12.610
21661SOL    HW266758  12.015   5.261  12.590
21662SOL     OW66759   5.506  14.096   3.141
21662SOL    HW166760   5.523  14.057   3.227
21662SOL    HW266761   5.530  14.029   3.079
21663SOL     OW66762   9.849   9.511   8.579
21663SOL    HW166763   9.833   9.418   8.563
21663SOL    HW266764   9.816   9.526   8.668
21664SOL     OW66765  13.363   1.910   0.268
21664SOL    HW166766  13.279   1.955   0.262
21664SOL    HW266767  13.340   1.819   0.290
21665SOL     OW66768   3.113  13.912   6.235
21665SOL    HW166769   3.094  13.868   6.318
21665SOL    HW266770   3.068  13.997   6.241
21666SOL     OW66771   7.872   9.376   1.013
21666SOL    HW166772   7.777   9.377   1.026
21666SOL    HW266773   7.909   9.385   1.101
21667SOL     OW66774  11.340   4.206  10.774
21667SOL    HW166775  11.417   4.263  10.784
21667SOL    HW266776  11.375   4.126  10.734
21668SOL     OW66777  11.852   0.122   7.348
21668SOL    HW166778  11.767   0.095   7.314
21668SOL    HW266779  11.883   0.189   7.287
21669SOL     OW66780   8.661  12.945  12.207
21669SOL    HW166781   8.610  12.880  12.158
21669SOL    HW266782   8.750  12.934  12.175
21670SOL     OW66783  10.191  13.303   0.461
21670SOL    HW166784  10.240  13.233   0.505
21670SOL    HW266785  10.102  13.295   0.495
21671SOL     OW66786   8.845   5.297  14.330
21671SOL    HW166787   8.855   5.314  14.236
21671SOL    HW266788   8.797   5.373  14.363
21672SOL     OW66789  13.561   4.746   7.393
21672SOL    HW166790  13.654   4.723   7.391
21672SOL    HW266791  13.533   4.727   7.483
21673SOL     OW66792   9.637  11.473  13.723
21673SOL    HW166793   9.577  11.439  13.788
21673SOL    HW266794   9.673  11.553  13.763
21674SOL     OW66795   4.537   6.759   9.774
21674SOL    HW166796   4.458   6.777   9.825
21674SOL    HW266797   4.608   6.792   9.829
21675SOL     OW66798   9.355   0.783  12.259
21675SOL    HW166799   9.266   0.749  12.267
21675SOL    HW266800   9.410   0.705  12.248
21676SOL     OW66801   6.581  12.405  10.905
21676SOL    HW166802   6.577  12.343  10.978
21676SOL    HW266803   6.613  12.486  10.945
21677SOL     OW66804   6.588   3.544   5.433
21677SOL    HW166805   6.619   3.474   5.492
21677SOL    HW266806   6.493   3.546   5.447
21678SOL     OW66807   2.999  10.075  13.237
21678SOL    HW166808   2.936  10.110  13.300
21678SOL    HW266809   3.077  10.129  13.249
21679SOL     OW66810  12.905  14.391  10.138
21679SOL    HW166811  12.956  14.398  10.057
21679SOL    HW266812  12.818  14.364  10.110
21680SOL     OW66813   6.351  14.040   6.803
21680SOL    HW166814   6.335  14.122   6.850
21680SOL    HW266815   6.360  13.974   6.872
21681SOL     OW66816   8.617   1.937   0.590
21681SOL    HW166817   8.628   1.857   0.540
21681SOL    HW266818   8.551   1.916   0.656
21682SOL     OW66819   5.783   1.932   9.920
21682SOL    HW166820   5.697   1.891   9.911
21682SOL    HW266821   5.829   1.877   9.983
21683SOL     OW66822   3.089   6.958   5.028
21683SOL    HW166823   3.064   6.881   4.977
21683SOL    HW266824   3.165   6.994   4.981
21684SOL     OW66825   9.883  10.510   6.870
21684SOL    HW166826   9.822  10.481   6.938
21684SOL    HW266827   9.969  10.487   6.904
21685SOL     OW66828  10.642   9.163   0.103
21685SOL    HW166829  10.551   9.185   0.085
21685SOL    HW266830  10.683   9.248   0.122
21686SOL     OW66831  10.280   1.654  14.197
21686SOL    HW166832  10.217   1.725  14.210
21686SOL    HW266833  10.239   1.579  14.239
21687SOL     OW66834   1.375   3.671   2.761
21687SOL    HW166835   1.329   3.751   2.734
21687SOL    HW266836   1.395   3.686   2.853
21688SOL     OW66837  12.500   8.202   9.168
21688SOL    HW166838  12.578   8.148   9.159
21688SOL    HW266839  12.522   8.266   9.236
21689SOL     OW66840   2.683   1.880   9.361
21689SOL    HW166841   2.608   1.901   9.305
21689SOL    HW266842   2.737   1.822   9.306
21690SOL     OW66843   9.979   9.080  14.757
21690SOL    HW166844   9.923   9.142  14.804
21690SOL    HW266845  10.055   9.069  14.814
21691SOL     OW66846   4.106   1.661  14.774
21691SOL    HW166847   4.180   1.613  14.811
21691SOL    HW266848   4.032   1.601  14.783
21692SOL     OW66849  10.862   9.432   9.860
21692SOL    HW166850  10.889   9.360   9.802
21692SOL    HW266851  10.900   9.409   9.945
21693SOL     OW66852  13.934  10.320  14.082
21693SOL    HW166853  13.930  10.392  14.145
21693SOL    HW266854  13.843  10.298  14.065
21694SOL     OW66855   1.978  11.983  12.386
21694SOL    HW166856   2.029  12.038  12.445
21694SOL    HW266857   1.974  11.898  12.430
21695SOL     OW66858   4.712  12.405   1.305
21695SOL    HW166859   4.734  12.314   1.326
21695SOL    HW266860   4.786  12.456   1.338
21696SOL     OW66861   5.844   1.841   1.459
21696SOL    HW166862   5.847   1.812   1.550
21696SOL    HW266863   5.763   1.803   1.425
21697SOL     OW66864  14.111   9.640   8.734
21697SOL    HW166865  14.046   9.612   8.669
21697SOL    HW266866  14.178   9.572   8.731
21698SOL     OW66867   9.338   2.818   0.468
21698SOL    HW166868   9.402   2.801   0.537
21698SOL    HW266869   9.302   2.904   0.490
21699SOL     OW66870   1.778  14.188   2.939
21699SOL    HW166871   1.786  14.223   2.850
21699SOL    HW266872   1.853  14.129   2.948
21700SOL     OW66873   3.623  14.407   0.702
21700SOL    HW166874   3.698  14.412   0.761
21700SOL    HW266875   3.660  14.419   0.614
21701SOL     OW66876   1.168  13.288  14.711
21701SOL    HW166877   1.143  13.355  14.647
21701SOL    HW266878   1.100  13.294  14.779
21702SOL     OW66879   5.186   9.987   9.600
21702SOL    HW166880   5.245  10.051   9.558
21702SOL    HW266881   5.194  10.006   9.693
21703SOL     OW66882   6.747   2.799  14.528
21703SOL    HW166883   6.712   2.820  14.614
21703SOL    HW266884   6.670   2.779  14.475
21704SOL     OW66885   2.777   5.491  12.826
21704SOL    HW166886   2.773   5.581  12.795
21704SOL    HW266887   2.870   5.470  12.829
21705SOL     OW66888   5.755   2.199  12.692
21705SOL    HW166889   5.815   2.191  12.766
21705SOL    HW266890   5.707   2.279  12.708
21706SOL     OW66891  10.754   3.032   3.787
21706SOL    HW166892  10.697   3.063   3.717
21706SOL    HW266893  10.839   3.020   3.745
21707SOL     OW66894   0.316   6.172   7.300
21707SOL    HW166895   0.403   6.137   7.317
21707SOL    HW266896   0.332   6.257   7.258
21708SOL     OW66897  12.613  13.750   1.803
21708SOL    HW166898  12.589  13.752   1.711
21708SOL    HW266899  12.530  13.760   1.850
21709SOL     OW66900  11.127   0.747   1.004
21709SOL    HW166901  11.095   0.819   0.950
21709SOL    HW266902  11.188   0.788   1.065
21710SOL     OW66903   2.002   3.019   5.993
21710SOL    HW166904   1.947   3.098   5.990
21710SOL    HW266905   1.960   2.965   6.060
21711SOL     OW66906  10.656  13.537   1.747
21711SOL    HW166907  10.743  13.568   1.776
21711SOL    HW266908  10.620  13.494   1.825
21712SOL     OW66909   3.688   9.295   2.810
21712SOL    HW166910   3.649   9.373   2.848
21712SOL    HW266911   3.618   9.229   2.813
21713SOL     OW66912   0.000  14.295  13.110
21713SOL    HW166913  14.872  14.389  13.121
21713SOL    HW266914   0.071  14.268  13.168
21714SOL     OW66915   5.040  14.350   3.765
21714SOL    HW166916   5.071  14.336   3.854
21714SOL    HW266917   4.959  14.299   3.759
21715SOL     OW66918   4.654   6.594   4.418
21715SOL    HW166919   4.670   6.502   4.441
21715SOL    HW266920   4.687   6.643   4.494
21716SOL     OW66921   6.743  14.604   5.794
21716SOL    HW166922   6.656  14.631   5.766
21716SOL    HW266923   6.801  14.673   5.763
21717SOL     OW66924   8.344   0.565   9.998
21717SOL    HW166925   8.375   0.601  10.081
21717SOL    HW266926   8.378   0.476   9.997
21718SOL     OW66927   5.444   3.452  13.645
21718SOL    HW166928   5.382   3.487  13.709
21718SOL    HW266929   5.458   3.524  13.583
21719SOL     OW66930  13.727   5.081   2.618
21719SOL    HW166931  13.755   5.160   2.573
21719SOL    HW266932  13.788   5.013   2.588
21720SOL     OW66933   0.899   8.261  10.721
21720SOL    HW166934   0.959   8.273  10.795
21720SOL    HW266935   0.841   8.337  10.725
21721SOL     OW66936  12.348   5.226   9.910
21721SOL    HW166937  12.442   5.244   9.910
21721SOL    HW266938  12.324   5.225   9.817
21722SOL     OW66939   0.594  11.340   0.514
21722SOL    HW166940   0.627  11.426   0.538
21722SOL    HW266941   0.569  11.348   0.422
21723SOL     OW66942  14.287   2.523   8.842
21723SOL    HW166943  14.234   2.512   8.763
21723SOL    HW266944  14.344   2.598   8.822
21724SOL     OW66945   6.028   5.600   7.407
21724SOL    HW166946   6.078   5.659   7.350
21724SOL    HW266947   5.971   5.552   7.347
21725SOL     OW66948   2.843  14.372   0.893
21725SOL    HW166949   2.855  14.392   0.985
21725SOL    HW266950   2.844  14.457   0.849
21726SOL     OW66951  14.081   5.234   8.595
21726SOL    HW166952  14.045   5.192   8.517
21726SOL    HW266953  14.163   5.187   8.610
21727SOL     OW66954  12.109   9.746   1.386
21727SOL    HW166955  12.050   9.821   1.391
21727SOL    HW266956  12.070   9.689   1.319
21728SOL     OW66957  14.623  14.536  10.535
21728SOL    HW166958  14.672  14.476  10.479
21728SOL    HW266959  14.609  14.614  10.482
21729SOL     OW66960  14.085   0.058   9.185
21729SOL    HW166961  14.073   0.143   9.227
21729SOL    HW266962  13.996   0.028   9.165
21730SOL     OW66963  11.062   7.644   5.631
21730SOL    HW166964  11.125   7.717   5.624
21730SOL    HW266965  10.981   7.679   5.594
21731SOL     OW66966  13.580   2.103   5.573
21731SOL    HW166967  13.559   2.142   5.657
21731SOL    HW266968  13.519   2.143   5.512
21732SOL     OW66969   9.988  12.645   5.009
21732SOL    HW166970   9.927  12.672   4.940
21732SOL    HW266971  10.069  12.623   4.962
21733SOL     OW66972   2.919   3.149   1.199
21733SOL    HW166973   2.871   3.101   1.132
21733SOL    HW266974   2.860   3.151   1.274
21734SOL     OW66975   2.608   0.991   9.592
21734SOL    HW166976   2.683   0.981   9.534
21734SOL    HW266977   2.534   1.009   9.534
21735SOL     OW66978   3.644   9.910   9.680
21735SOL    HW166979   3.596   9.885   9.759
21735SOL    HW266980   3.660   9.827   9.635
21736SOL     OW66981  12.830  13.795   1.469
21736SOL    HW166982  12.743  13.816   1.436
21736SOL    HW266983  12.881  13.776   1.390
21737SOL     OW66984  11.131   4.005  11.979
21737SOL    HW166985  11.143   4.022  12.073
21737SOL    HW266986  11.209   4.043  11.938
21738SOL     OW66987  11.483  13.244   1.849
21738SOL    HW166988  11.566  13.197   1.849
21738SOL    HW266989  11.507  13.335   1.866
21739SOL     OW66990   7.626   8.173   7.838
21739SOL    HW166991   7.656   8.222   7.914
21739SOL    HW266992   7.646   8.082   7.859
21740SOL     OW66993  11.021   2.835   3.422
21740SOL    HW166994  10.936   2.802   3.392
21740SOL    HW266995  11.085   2.794   3.364
21741SOL     OW66996   4.486  12.009   5.331
21741SOL    HW166997   4.484  12.104   5.323
21741SOL    HW266998   4.461  11.977   5.244
21742SOL     OW66999   8.590  10.248   8.724
21742SOL    HW167000   8.587  10.301   8.644
21742SOL    HW267001   8.567  10.160   8.695
21743SOL     OW67002   1.099   7.571   0.162
21743SOL    HW167003   1.165   7.509   0.192
21743SOL    HW267004   1.149   7.638   0.114
21744SOL     OW67005  14.778   4.213   7.588
21744SOL    HW167006  14.703   4.162   7.616
21744SOL    HW267007  14.781   4.287   7.649
21745SOL     OW67008   6.376   2.768   8.441
21745SOL    HW167009   6.432   2.692   8.426
21745SOL    HW267010   6.312   2.766   8.369
21746SOL     OW67011  12.549  10.965   7.619
21746SOL    HW167012  12.639  10.938   7.636
21746SOL    HW267013  12.557  11.052   7.581
21747SOL     OW67014  10.350  10.738   1.342
21747SOL    HW167015  10.336  10.816   1.290
21747SOL    HW267016  10.436  10.706   1.316
21748SOL     OW67017   1.486   6.851   4.933
21748SOL    HW167018   1.450   6.918   4.874
21748SOL    HW267019   1.467   6.768   4.890
21749SOL     OW67020   7.641   8.094   1.639
21749SOL    HW167021   7.631   8.084   1.733
21749SOL    HW267022   7.554   8.075   1.603
21750SOL     OW67023   4.016   7.482  14.539
21750SOL    HW167024   4.084   7.543  14.566
21750SOL    HW267025   3.957   7.476  14.614
21751SOL     OW67026   0.911   8.227   6.454
21751SOL    HW167027   0.991   8.182   6.425
21751SOL    HW267028   0.846   8.203   6.388
21752SOL     OW67029   0.176  13.619   5.532
21752SOL    HW167030   0.096  13.583   5.571
21752SOL    HW267031   0.247  13.572   5.576
21753SOL     OW67032  14.452   1.930   6.244
21753SOL    HW167033  14.477   1.839   6.260
21753SOL    HW267034  14.357   1.928   6.233
21754SOL     OW67035  13.096   8.013   1.559
21754SOL    HW167036  13.035   8.073   1.518
21754SOL    HW267037  13.177   8.063   1.567
21755SOL     OW67038   1.177   2.393  11.291
21755SOL    HW167039   1.210   2.366  11.376
21755SOL    HW267040   1.205   2.484  11.282
21756SOL     OW67041   7.427  11.241   7.666
21756SOL    HW167042   7.459  11.152   7.659
21756SOL    HW267043   7.470  11.288   7.595
21757SOL     OW67044   8.697   6.155   3.698
21757SOL    HW167045   8.662   6.068   3.681
21757SOL    HW267046   8.758   6.142   3.771
21758SOL     OW67047   3.119   8.263   6.867
21758SOL    HW167048   3.152   8.220   6.788
21758SOL    HW267049   3.070   8.195   6.913
21759SOL     OW67050   8.684   0.694  10.116
21759SOL    HW167051   8.737   0.624  10.155
21759SOL    HW267052   8.680   0.672  10.023
21760SOL     OW67053  14.649   5.576   6.923
21760SOL    HW167054  14.726   5.625   6.892
21760SOL    HW267055  14.575   5.636   6.908
21761SOL     OW67056  10.570  13.647   6.128
21761SOL    HW167057  10.492  13.613   6.084
21761SOL    HW267058  10.629  13.672   6.057
21762SOL     OW67059   0.260  12.974   3.527
21762SOL    HW167060   0.330  13.038   3.518
21762SOL    HW267061   0.220  12.969   3.440
21763SOL     OW67062  10.712   9.956  11.063
21763SOL    HW167063  10.626   9.921  11.042
21763SOL    HW267064  10.755   9.969  10.979
21764SOL     OW67065  10.397  11.642  10.265
21764SOL    HW167066  10.406  11.735  10.285
21764SOL    HW267067  10.315  11.636  10.217
21765SOL     OW67068  14.717   5.089  13.790
21765SOL    HW167069  14.622   5.094  13.784
21765SOL    HW267070  14.734   5.014  13.846
21766SOL     OW67071   7.250   5.144   1.016
21766SOL    HW167072   7.222   5.231   0.985
21766SOL    HW267073   7.187   5.083   0.976
21767SOL     OW67074   5.218   3.803   3.580
21767SOL    HW167075   5.242   3.712   3.560
21767SOL    HW267076   5.147   3.823   3.520
21768SOL     OW67077   9.976   2.771   7.953
21768SOL    HW167078   9.957   2.763   8.046
21768SOL    HW267079   9.904   2.825   7.919
21769SOL     OW67080   8.259   9.824   8.376
21769SOL    HW167081   8.227   9.753   8.319
21769SOL    HW267082   8.226   9.904   8.336
21770SOL     OW67083   4.606   4.261   7.051
21770SOL    HW167084   4.566   4.223   7.129
21770SOL    HW267085   4.540   4.249   6.982
21771SOL     OW67086   2.000   5.899  10.732
21771SOL    HW167087   1.978   5.987  10.765
21771SOL    HW267088   1.915   5.854  10.727
21772SOL     OW67089   5.107  14.413  12.014
21772SOL    HW167090   5.155  14.390  12.093
21772SOL    HW267091   5.023  14.448  12.046
21773SOL     OW67092  14.611   6.893   7.810
21773SOL    HW167093  14.550   6.910   7.738
21773SOL    HW267094  14.599   6.800   7.830
21774SOL     OW67095   0.299   5.105  11.476
21774SOL    HW167096   0.367   5.132  11.415
21774SOL    HW267097   0.300   5.172  11.544
21775SOL     OW67098   3.886   9.941  13.421
21775SOL    HW167099   3.846   9.949  13.335
21775SOL    HW267100   3.923   9.853  13.423
21776SOL     OW67101   6.872  10.233   2.660
21776SOL    HW167102   6.870  10.264   2.569
21776SOL    HW267103   6.803  10.167   2.664
21777SOL     OW67104   5.961   2.066   5.758
21777SOL    HW167105   6.029   2.125   5.790
21777SOL    HW267106   5.963   1.992   5.819
21778SOL     OW67107   2.175  12.391   6.307
21778SOL    HW167108   2.264  12.365   6.283
21778SOL    HW267109   2.170  12.483   6.282
21779SOL     OW67110   1.326   7.268  13.613
21779SOL    HW167111   1.233   7.288  13.605
21779SOL    HW267112   1.370   7.336  13.562
21780SOL     OW67113  13.217  14.274  12.960
21780SOL    HW167114  13.307  14.256  12.930
21780SOL    HW267115  13.175  14.316  12.885
21781SOL     OW67116   1.614  14.715   7.261
21781SOL    HW167117   1.576  14.727   7.174
21781SOL    HW267118   1.563  14.644   7.300
21782SOL     OW67119   1.432   4.196   0.456
21782SOL    HW167120   1.526   4.202   0.442
21782SOL    HW267121   1.394   4.193   0.369
21783SOL     OW67122  12.558   5.195   4.210
21783SOL    HW167123  12.636   5.140   4.213
21783SOL    HW267124  12.520   5.178   4.125
21784SOL     OW67125  10.167   5.653  14.600
21784SOL    HW167126  10.089   5.705  14.620
21784SOL    HW267127  10.191   5.679  14.511
21785SOL     OW67128   4.731   5.080   9.461
21785SOL    HW167129   4.684   5.076   9.378
21785SOL    HW267130   4.824   5.080   9.437
21786SOL     OW67131   4.680   1.918  10.971
21786SOL    HW167132   4.767   1.892  11.002
21786SOL    HW267133   4.621   1.896  11.043
21787SOL     OW67134   0.916   8.208   3.787
21787SOL    HW167135   0.969   8.261   3.846
21787SOL    HW267136   0.826   8.228   3.811
21788SOL     OW67137   3.758  12.045  12.877
21788SOL    HW167138   3.774  11.952  12.861
21788SOL    HW267139   3.727  12.049  12.967
21789SOL     OW67140  13.446   0.030   8.201
21789SOL    HW167141  13.464  14.822   8.163
21789SOL    HW267142  13.478   0.092   8.136
21790SOL     OW67143   3.468  11.559   9.699
21790SOL    HW167144   3.545  11.604   9.666
21790SOL    HW267145   3.394  11.601   9.654
21791SOL     OW67146   7.313  10.285   0.308
21791SOL    HW167147   7.380  10.265   0.373
21791SOL    HW267148   7.239  10.319   0.360
21792SOL     OW67149  12.505  13.106   3.977
21792SOL    HW167150  12.501  13.189   4.025
21792SOL    HW267151  12.533  13.131   3.889
21793SOL     OW67152  12.074   8.373  14.635
21793SOL    HW167153  12.123   8.456  14.632
21793SOL    HW267154  12.129   8.314  14.686
21794SOL     OW67155  10.397  12.192   5.410
21794SOL    HW167156  10.319  12.175   5.463
21794SOL    HW267157  10.405  12.115   5.353
21795SOL     OW67158   2.460   0.529   7.990
21795SOL    HW167159   2.453   0.497   7.901
21795SOL    HW267160   2.429   0.619   7.986
21796SOL     OW67161  14.052  14.138  13.481
21796SOL    HW167162  14.018  14.052  13.507
21796SOL    HW267163  14.120  14.158  13.545
21797SOL     OW67164   2.744   0.651  13.601
21797SOL    HW167165   2.687   0.698  13.541
21797SOL    HW267166   2.827   0.641  13.554
21798SOL     OW67167   4.945   9.754   4.569
21798SOL    HW167168   4.931   9.824   4.505
21798SOL    HW267169   5.027   9.713   4.543
21799SOL     OW67170  11.162   0.911   4.421
21799SOL    HW167171  11.083   0.963   4.433
21799SOL    HW267172  11.135   0.839   4.364
21800SOL     OW67173  13.666   9.456   9.015
21800SOL    HW167174  13.740   9.509   8.984
21800SOL    HW267175  13.628   9.421   8.935
21801SOL     OW67176   4.249  12.749  12.400
21801SOL    HW167177   4.196  12.678  12.363
21801SOL    HW267178   4.284  12.795  12.325
21802SOL     OW67179   0.414  10.124   4.853
21802SOL    HW167180   0.452  10.212   4.860
21802SOL    HW267181   0.372  10.110   4.938
21803SOL     OW67182   0.780  13.562  13.634
21803SOL    HW167183   0.771  13.643  13.585
21803SOL    HW267184   0.862  13.524  13.604
21804SOL     OW67185   1.953   3.216   3.766
21804SOL    HW167186   1.975   3.266   3.845
21804SOL    HW267187   1.858   3.205   3.770
21805SOL     OW67188   5.433   5.279   2.316
21805SOL    HW167189   5.404   5.189   2.300
21805SOL    HW267190   5.527   5.278   2.299
21806SOL     OW67191   0.809   6.814  11.901
21806SOL    HW167192   0.782   6.787  11.813
21806SOL    HW267193   0.735   6.864  11.935
21807SOL     OW67194   4.064   5.705   6.547
21807SOL    HW167195   3.979   5.661   6.549
21807SOL    HW267196   4.080   5.722   6.455
21808SOL     OW67197  14.738  14.634   9.304
21808SOL    HW167198  14.712  14.724   9.324
21808SOL    HW267199  14.681  14.607   9.233
21809SOL     OW67200   9.770   0.664   5.730
21809SOL    HW167201   9.858   0.641   5.761
21809SOL    HW267202   9.719   0.584   5.742
21810SOL     OW67203   9.806   5.934  11.722
21810SOL    HW167204   9.802   5.872  11.795
21810SOL    HW267205   9.758   6.011  11.752
21811SOL     OW67206   7.964   6.312   7.173
21811SOL    HW167207   7.965   6.220   7.198
21811SOL    HW267208   8.028   6.318   7.102
21812SOL     OW67209  12.324   8.567  13.123
21812SOL    HW167210  12.308   8.552  13.216
21812SOL    HW267211  12.269   8.642  13.101
21813SOL     OW67212   0.625   2.421   2.281
21813SOL    HW167213   0.579   2.399   2.361
21813SOL    HW267214   0.657   2.511   2.294
21814SOL     OW67215   4.119   2.279   1.121
21814SOL    HW167216   4.202   2.233   1.129
21814SOL    HW267217   4.141   2.360   1.075
21815SOL     OW67218   1.355   3.450  12.733
21815SOL    HW167219   1.407   3.473  12.657
21815SOL    HW267220   1.395   3.498  12.805
21816SOL     OW67221   4.717  10.702   3.600
21816SOL    HW167222   4.725  10.726   3.692
21816SOL    HW267223   4.788  10.748   3.556
21817SOL     OW67224   2.706  14.717  13.314
21817SOL    HW167225   2.636  14.750  13.257
21817SOL    HW267226   2.669  14.719  13.402
21818SOL     OW67227  14.332   3.884   5.562
21818SOL    HW167228  14.312   3.792   5.576
21818SOL    HW267229  14.261   3.932   5.606
21819SOL     OW67230   2.251   8.170   7.868
21819SOL    HW167231   2.324   8.220   7.905
21819SOL    HW267232   2.184   8.235   7.850
21820SOL     OW67233  11.901   8.078  13.896
21820SOL    HW167234  11.986   8.037  13.883
21820SOL    HW267235  11.839   8.005  13.899
21821SOL     OW67236  10.563   0.419   1.066
21821SOL    HW167237  10.639   0.362   1.080
21821SOL    HW267238  10.594   0.485   1.004
21822SOL     OW67239   8.769   3.886   6.923
21822SOL    HW167240   8.792   3.928   6.840
21822SOL    HW267241   8.677   3.862   6.913
21823SOL     OW67242   7.520   8.056   9.857
21823SOL    HW167243   7.522   8.067   9.762
21823SOL    HW267244   7.453   7.990   9.872
21824SOL     OW67245  11.393  10.362   6.603
21824SOL    HW167246  11.370  10.380   6.512
21824SOL    HW267247  11.426  10.446   6.636
21825SOL     OW67248   5.872   2.451   3.440
21825SOL    HW167249   5.791   2.498   3.460
21825SOL    HW267250   5.845   2.379   3.383
21826SOL     OW67251   3.266   5.508  13.692
21826SOL    HW167252   3.177   5.528  13.721
21826SOL    HW267253   3.255   5.473  13.604
21827SOL     OW67254   0.625   5.096  13.670
21827SOL    HW167255   0.534   5.096  13.639
21827SOL    HW267256   0.634   5.179  13.716
21828SOL     OW67257  14.863   5.050  10.446
21828SOL    HW167258  14.810   5.126  10.469
21828SOL    HW267259   0.063   5.086  10.405
21829SOL     OW67260  12.509   0.982   7.914
21829SOL    HW167261  12.539   0.967   7.825
21829SOL    HW267262  12.552   1.064   7.940
21830SOL     OW67263  14.498   3.356   2.487
21830SOL    HW167264  14.468   3.279   2.438
21830SOL    HW267265  14.430   3.370   2.552
21831SOL     OW67266  10.967   4.829   5.468
21831SOL    HW167267  10.944   4.911   5.511
21831SOL    HW267268  10.913   4.763   5.511
21832SOL     OW67269  13.610   3.713   5.954
21832SOL    HW167270  13.703   3.729   5.971
21832SOL    HW267271  13.573   3.801   5.943
21833SOL     OW67272  12.103  12.111   1.580
21833SOL    HW167273  12.076  12.125   1.671
21833SOL    HW267274  12.139  12.196   1.553
21834SOL     OW67275   2.212  14.548   7.709
21834SOL    HW167276   2.141  14.527   7.648
21834SOL    HW267277   2.194  14.494   7.786
21835SOL     OW67278  11.516  13.984   5.143
21835SOL    HW167279  11.492  14.041   5.070
21835SOL    HW267280  11.458  13.908   5.135
21836SOL     OW67281  10.911  10.272  12.800
21836SOL    HW167282  10.836  10.220  12.772
21836SOL    HW267283  10.947  10.225  12.876
21837SOL     OW67284   0.143   1.022   7.634
21837SOL    HW167285   0.216   0.963   7.653
21837SOL    HW267286   0.103   0.986   7.556
21838SOL     OW67287   7.584   9.858   3.281
21838SOL    HW167288   7.675   9.876   3.260
21838SOL    HW267289   7.538   9.940   3.261
21839SOL     OW67290  12.540  12.723   4.871
21839SOL    HW167291  12.471  12.690   4.813
21839SOL    HW267292  12.593  12.780   4.815
21840SOL     OW67293  10.772   2.397   7.306
21840SOL    HW167294  10.782   2.310   7.268
21840SOL    HW267295  10.724   2.383   7.387
21841SOL     OW67296  11.660   4.080  12.692
21841SOL    HW167297  11.698   4.006  12.740
21841SOL    HW267298  11.725   4.101  12.625
21842SOL     OW67299  13.034   3.898  13.170
21842SOL    HW167300  12.960   3.893  13.231
21842SOL    HW267301  13.062   3.807  13.159
21843SOL     OW67302   3.791   6.670   9.753
21843SOL    HW167303   3.827   6.686   9.666
21843SOL    HW267304   3.847   6.601   9.789
21844SOL     OW67305   7.793  12.935   4.605
21844SOL    HW167306   7.710  12.912   4.647
21844SOL    HW267307   7.857  12.933   4.676
21845SOL     OW67308   1.570   7.450   1.824
21845SOL    HW167309   1.478   7.467   1.846
21845SOL    HW267310   1.568   7.370   1.772
21846SOL     OW67311   0.042   1.639   7.654
21846SOL    HW167312   0.051   1.549   7.624
21846SOL    HW267313  14.825   1.652   7.665
21847SOL     OW67314  10.274   0.344  10.673
21847SOL    HW167315  10.356   0.392  10.688
21847SOL    HW267316  10.299   0.252  10.680
21848SOL     OW67317   3.041   6.467   8.105
21848SOL    HW167318   3.021   6.547   8.058
21848SOL    HW267319   2.974   6.405   8.077
21849SOL     OW67320   9.086   9.505   8.821
21849SOL    HW167321   9.123   9.424   8.857
21849SOL    HW267322   9.081   9.488   8.727
21850SOL     OW67323   4.469   7.342   6.836
21850SOL    HW167324   4.409   7.267   6.839
21850SOL    HW267325   4.547   7.312   6.883
21851SOL     OW67326   0.172  11.982   5.469
21851SOL    HW167327   0.080  11.966   5.446
21851SOL    HW267328   0.179  11.952   5.560
21852SOL     OW67329   8.583  11.348  13.208
21852SOL    HW167330   8.646  11.392  13.266
21852SOL    HW267331   8.608  11.377  13.120
21853SOL     OW67332  10.936   9.075  13.045
21853SOL    HW167333  10.930   9.025  12.963
21853SOL    HW267334  11.030   9.078  13.065
21854SOL     OW67335  12.274   3.926   2.049
21854SOL    HW167336  12.226   3.943   1.968
21854SOL    HW267337  12.365   3.947   2.029
21855SOL     OW67338  12.383  12.611  10.455
21855SOL    HW167339  12.300  12.616  10.407
21855SOL    HW267340  12.357  12.597  10.546
21856SOL     OW67341   6.205  12.863  12.151
21856SOL    HW167342   6.186  12.955  12.129
21856SOL    HW267343   6.138  12.813  12.104
21857SOL     OW67344   2.431  10.181   5.932
21857SOL    HW167345   2.383  10.186   6.015
21857SOL    HW267346   2.374  10.130   5.874
21858SOL     OW67347   2.892   6.055   4.182
21858SOL    HW167348   2.873   6.018   4.096
21858SOL    HW267349   2.976   6.015   4.207
21859SOL     OW67350   6.971   6.901   8.590
21859SOL    HW167351   7.034   6.885   8.520
21859SOL    HW267352   6.926   6.981   8.563
21860SOL     OW67353   6.657  14.529   3.134
21860SOL    HW167354   6.738  14.580   3.132
21860SOL    HW267355   6.590  14.588   3.098
21861SOL     OW67356  10.405   6.838   5.443
21861SOL    HW167357  10.416   6.776   5.372
21861SOL    HW267358  10.325   6.810   5.488
21862SOL     OW67359   4.920   6.373   0.764
21862SOL    HW167360   5.011   6.401   0.757
21862SOL    HW267361   4.883   6.425   0.836
21863SOL     OW67362   5.504   6.293  11.529
21863SOL    HW167363   5.414   6.278  11.559
21863SOL    HW267364   5.498   6.287  11.434
21864SOL     OW67365   2.601   4.247   2.365
21864SOL    HW167366   2.650   4.255   2.446
21864SOL    HW267367   2.595   4.336   2.331
21865SOL     OW67368   7.365   8.984   6.079
21865SOL    HW167369   7.416   8.909   6.048
21865SOL    HW267370   7.274   8.959   6.062
21866SOL     OW67371   0.166   0.238   5.483
21866SOL    HW167372   0.120   0.245   5.566
21866SOL    HW267373   0.173   0.328   5.451
21867SOL     OW67374  14.048   2.806   8.698
21867SOL    HW167375  14.083   2.883   8.654
21867SOL    HW267376  14.018   2.749   8.627
21868SOL     OW67377   1.364  11.654  10.640
21868SOL    HW167378   1.331  11.732  10.685
21868SOL    HW267379   1.402  11.688  10.559
21869SOL     OW67380  13.168   6.478  11.975
21869SOL    HW167381  13.196   6.403  12.027
21869SOL    HW267382  13.074   6.485  11.992
21870SOL     OW67383   1.389   8.909   3.299
21870SOL    HW167384   1.370   8.816   3.307
21870SOL    HW267385   1.375   8.944   3.387
21871SOL     OW67386   6.926   3.771   9.001
21871SOL    HW167387   6.979   3.849   8.986
21871SOL    HW267388   6.989   3.700   9.012
21872SOL     OW67389  14.685   8.151  14.603
21872SOL    HW167390  14.629   8.227  14.621
21872SOL    HW267391  14.638   8.103  14.535
21873SOL     OW67392  10.407  13.165   4.646
21873SOL    HW167393  10.394  13.200   4.558
21873SOL    HW267394  10.319  13.164   4.685
21874SOL     OW67395   4.706  13.741   2.872
21874SOL    HW167396   4.755  13.660   2.888
21874SOL    HW267397   4.638  13.715   2.810
21875SOL     OW67398  12.602   3.655   2.890
21875SOL    HW167399  12.580   3.736   2.935
21875SOL    HW267400  12.592   3.587   2.957
21876SOL     OW67401   1.255  10.616  10.867
21876SOL    HW167402   1.257  10.712  10.871
21876SOL    HW267403   1.251  10.588  10.958
21877SOL     OW67404   9.402  14.628   1.710
21877SOL    HW167405   9.395  14.564   1.781
21877SOL    HW267406   9.413  14.575   1.632
21878SOL     OW67407   5.628  12.374  12.127
21878SOL    HW167408   5.678  12.422  12.061
21878SOL    HW267409   5.546  12.422  12.136
21879SOL     OW67410   1.601   7.383   7.073
21879SOL    HW167411   1.596   7.291   7.046
21879SOL    HW267412   1.601   7.432   6.991
21880SOL     OW67413   0.344   9.254   3.478
21880SOL    HW167414   0.316   9.246   3.569
21880SOL    HW267415   0.438   9.272   3.483
21881SOL     OW67416  11.446   9.462   8.492
21881SOL    HW167417  11.372   9.470   8.552
21881SOL    HW267418  11.471   9.369   8.497
21882SOL     OW67419   5.777  14.669  14.405
21882SOL    HW167420   5.845  14.620  14.359
21882SOL    HW267421   5.794  14.654  14.498
21883SOL     OW67422   0.479   9.257  12.321
21883SOL    HW167423   0.522   9.309  12.253
21883SOL    HW267424   0.547   9.241  12.386
21884SOL     OW67425   0.014   3.377  11.897
21884SOL    HW167426   0.030   3.459  11.944
21884SOL    HW267427  14.805   3.389  11.857
21885SOL     OW67428  13.903   9.567  10.226
21885SOL    HW167429  13.899   9.473  10.246
21885SOL    HW267430  13.937   9.571  10.137
21886SOL     OW67431   1.477   8.807   7.076
21886SOL    HW167432   1.492   8.888   7.126
21886SOL    HW267433   1.524   8.821   6.994
21887SOL     OW67434   2.417   7.565  10.064
21887SOL    HW167435   2.442   7.514   9.987
21887SOL    HW267436   2.358   7.633  10.030
21888SOL     OW67437   8.515  12.890   1.931
21888SOL    HW167438   8.465  12.900   2.012
21888SOL    HW267439   8.598  12.853   1.959
21889SOL     OW67440  14.665   6.472   1.138
21889SOL    HW167441  14.681   6.565   1.122
21889SOL    HW267442  14.749   6.439   1.171
21890SOL     OW67443   0.686   9.807  13.786
21890SOL    HW167444   0.621   9.841  13.848
21890SOL    HW267445   0.704   9.718  13.817
21891SOL     OW67446  14.026  13.969  14.373
21891SOL    HW167447  14.072  14.046  14.339
21891SOL    HW267448  13.973  13.938  14.298
21892SOL     OW67449   2.239   1.434  10.663
21892SOL    HW167450   2.177   1.445  10.735
21892SOL    HW267451   2.200   1.483  10.590
21893SOL     OW67452  10.874   4.131  11.072
21893SOL    HW167453  10.852   4.222  11.095
21893SOL    HW267454  10.820   4.078  11.131
21894SOL     OW67455   1.466  10.700  11.721
21894SOL    HW167456   1.436  10.771  11.778
21894SOL    HW267457   1.386  10.671  11.677
21895SOL     OW67458   3.953  11.354  10.185
21895SOL    HW167459   3.995  11.358  10.099
21895SOL    HW267460   3.998  11.420  10.238
21896SOL     OW67461   4.266   4.156  13.785
21896SOL    HW167462   4.232   4.067  13.792
21896SOL    HW267463   4.340   4.149  13.724
21897SOL     OW67464   7.336  13.676  11.225
21897SOL    HW167465   7.242  13.690  11.231
21897SOL    HW267466   7.346  13.599  11.170
21898SOL     OW67467   6.193  11.636  11.755
21898SOL    HW167468   6.207  11.590  11.672
21898SOL    HW267469   6.267  11.609  11.810
21899SOL     OW67470   1.708  14.136  14.599
21899SOL    HW167471   1.772  14.112  14.666
21899SOL    HW267472   1.623  14.112  14.637
21900SOL     OW67473   4.334   7.986   9.924
21900SOL    HW167474   4.250   8.017   9.956
21900SOL    HW267475   4.335   7.893   9.946
21901SOL     OW67476   8.960   1.820  12.362
21901SOL    HW167477   9.041   1.872  12.365
21901SOL    HW267478   8.908   1.853  12.435
21902SOL     OW67479   7.097   0.833   1.016
21902SOL    HW167480   7.155   0.852   0.942
21902SOL    HW267481   7.040   0.910   1.022
21903SOL     OW67482  13.684   9.308  12.230
21903SOL    HW167483  13.660   9.227  12.186
21903SOL    HW267484  13.715   9.366  12.160
21904SOL     OW67485  12.232   1.646   9.436
21904SOL    HW167486  12.303   1.591   9.404
21904SOL    HW267487  12.160   1.585   9.453
21905SOL     OW67488  12.544   3.727   7.731
21905SOL    HW167489  12.516   3.640   7.759
21905SOL    HW267490  12.502   3.787   7.793
21906SOL     OW67491  14.667   1.528   2.312
21906SOL    HW167492  14.715   1.464   2.365
21906SOL    HW267493  14.669   1.492   2.223
21907SOL     OW67494   0.916   7.186  11.527
21907SOL    HW167495   1.006   7.189  11.560
21907SOL    HW267496   0.895   7.277  11.507
21908SOL     OW67497   8.994  14.448   4.646
21908SOL    HW167498   8.972  14.501   4.570
21908SOL    HW267499   9.088  14.431   4.637
21909SOL     OW67500   0.562   3.785   4.647
21909SOL    HW167501   0.478   3.779   4.602
21909SOL    HW267502   0.621   3.731   4.594
21910SOL     OW67503   5.477  12.666   7.060
21910SOL    HW167504   5.460  12.578   7.025
21910SOL    HW267505   5.418  12.723   7.011
21911SOL     OW67506  11.123  11.967   8.702
21911SOL    HW167507  11.163  11.973   8.615
21911SOL    HW267508  11.029  11.966   8.685
21912SOL     OW67509   1.157  12.509   6.208
21912SOL    HW167510   1.195  12.569   6.272
21912SOL    HW267511   1.073  12.547   6.186
21913SOL     OW67512   7.759   5.939   4.723
21913SOL    HW167513   7.730   5.853   4.751
21913SOL    HW267514   7.842   5.953   4.768
21914SOL     OW67515   1.574  12.041   7.683
21914SOL    HW167516   1.582  12.132   7.657
21914SOL    HW267517   1.490  12.036   7.729
21915SOL     OW67518   2.856  11.545  11.150
21915SOL    HW167519   2.855  11.461  11.197
21915SOL    HW267520   2.789  11.597  11.194
21916SOL     OW67521   6.823   1.062   5.280
21916SOL    HW167522   6.753   0.998   5.270
21916SOL    HW267523   6.799   1.113   5.358
21917SOL     OW67524   0.527   0.640  13.593
21917SOL    HW167525   0.513   0.660  13.500
21917SOL    HW267526   0.527   0.545  13.598
21918SOL     OW67527   7.653  11.994   5.430
21918SOL    HW167528   7.659  11.951   5.515
21918SOL    HW267529   7.571  11.962   5.392
21919SOL     OW67530   8.292  12.991   8.685
21919SOL    HW167531   8.207  13.034   8.675
21919SOL    HW267532   8.347  13.030   8.617
21920SOL     OW67533   2.071   6.628  10.269
21920SOL    HW167534   2.023   6.699  10.227
21920SOL    HW267535   2.004   6.572  10.306
21921SOL     OW67536  10.882   7.467   9.483
21921SOL    HW167537  10.838   7.424   9.556
21921SOL    HW267538  10.911   7.551   9.518
21922SOL     OW67539   2.020  12.623   0.360
21922SOL    HW167540   2.072  12.571   0.421
21922SOL    HW267541   1.944  12.568   0.341
21923SOL     OW67542   3.021  14.436   6.554
21923SOL    HW167543   3.020  14.479   6.468
21923SOL    HW267544   2.993  14.503   6.615
21924SOL     OW67545   2.724   6.465   0.520
21924SOL    HW167546   2.642   6.511   0.535
21924SOL    HW267547   2.760   6.449   0.607
21925SOL     OW67548  13.669   3.629  10.974
21925SOL    HW167549  13.679   3.696  10.907
21925SOL    HW267550  13.680   3.675  11.057
21926SOL     OW67551   6.005   0.249   2.094
21926SOL    HW167552   6.043   0.279   2.177
21926SOL    HW267553   6.079   0.246   2.033
21927SOL     OW67554   1.361   5.420   7.536
21927SOL    HW167555   1.416   5.352   7.496
21927SOL    HW267556   1.398   5.502   7.505
21928SOL     OW67557  11.930   0.108   7.676
21928SOL    HW167558  11.885   0.064   7.748
21928SOL    HW267559  11.914   0.202   7.691
21929SOL     OW67560  12.770  12.346   2.751
21929SOL    HW167561  12.770  12.294   2.832
21929SOL    HW267562  12.799  12.285   2.683
21930SOL     OW67563  11.171   7.915   1.674
21930SOL    HW167564  11.245   7.860   1.701
21930SOL    HW267565  11.179   7.994   1.727
21931SOL     OW67566   2.138  12.083  13.584
21931SOL    HW167567   2.165  11.992  13.595
21931SOL    HW267568   2.175  12.109  13.500
21932SOL     OW67569  14.606   6.755  12.587
21932SOL    HW167570  14.583   6.769  12.679
21932SOL    HW267571  14.696   6.786  12.579
21933SOL     OW67572   6.422   9.427   7.159
21933SOL    HW167573   6.402   9.393   7.246
21933SOL    HW267574   6.480   9.502   7.176
21934SOL     OW67575   5.843  11.250   6.272
21934SOL    HW167576   5.818  11.204   6.352
21934SOL    HW267577   5.877  11.181   6.215
21935SOL     OW67578  12.442   7.835   6.856
21935SOL    HW167579  12.355   7.856   6.824
21935SOL    HW267580  12.498   7.838   6.778
21936SOL     OW67581   0.779   4.642   2.952
21936SOL    HW167582   0.831   4.617   2.875
21936SOL    HW267583   0.689   4.644   2.921
21937SOL     OW67584  12.472  12.785   4.531
21937SOL    HW167585  12.549  12.782   4.587
21937SOL    HW267586  12.417  12.713   4.562
21938SOL     OW67587  14.100  11.028   9.908
21938SOL    HW167588  14.170  11.086   9.940
21938SOL    HW267589  14.136  10.940   9.917
21939SOL     OW67590   6.076  12.210   5.302
21939SOL    HW167591   6.119  12.269   5.363
21939SOL    HW267592   6.116  12.230   5.217
21940SOL     OW67593   6.518   9.830   8.492
21940SOL    HW167594   6.484   9.754   8.446
21940SOL    HW267595   6.607   9.805   8.519
21941SOL     OW67596  11.458   5.867   8.051
21941SOL    HW167597  11.441   5.950   8.095
21941SOL    HW267598  11.372   5.829   8.036
21942SOL     OW67599   9.935  10.748   3.849
21942SOL    HW167600   9.857  10.696   3.869
21942SOL    HW267601   9.967  10.777   3.935
21943SOL     OW67602   6.914   6.968   4.593
21943SOL    HW167603   6.829   6.929   4.613
21943SOL    HW267604   6.895   7.034   4.526
21944SOL     OW67605  13.425   0.671   0.496
21944SOL    HW167606  13.373   0.604   0.541
21944SOL    HW267607  13.375   0.752   0.506
21945SOL     OW67608   2.949   3.671   5.845
21945SOL    HW167609   3.006   3.630   5.910
21945SOL    HW267610   3.005   3.733   5.799
21946SOL     OW67611   6.100  12.332   5.937
21946SOL    HW167612   6.175  12.373   5.893
21946SOL    HW267613   6.045  12.298   5.867
21947SOL     OW67614   8.907   9.756   3.578
21947SOL    HW167615   8.981   9.739   3.519
21947SOL    HW267616   8.835   9.780   3.520
21948SOL     OW67617   2.143  11.175  12.572
21948SOL    HW167618   2.098  11.140  12.495
21948SOL    HW267619   2.113  11.120  12.644
21949SOL     OW67620   1.344   3.127  11.863
21949SOL    HW167621   1.404   3.059  11.832
21949SOL    HW267622   1.258   3.085  11.863
21950SOL     OW67623   0.220   8.316  11.168
21950SOL    HW167624   0.249   8.367  11.244
21950SOL    HW267625   0.142   8.270  11.198
21951SOL     OW67626   6.530   6.062   1.177
21951SOL    HW167627   6.466   6.133   1.186
21951SOL    HW267628   6.502   6.013   1.100
21952SOL     OW67629   7.095  13.333   2.204
21952SOL    HW167630   7.046  13.397   2.254
21952SOL    HW267631   7.045  13.252   2.211
21953SOL     OW67632  11.234  13.179  10.700
21953SOL    HW167633  11.305  13.227  10.657
21953SOL    HW267634  11.250  13.087  10.678
21954SOL     OW67635   5.924   4.694   8.540
21954SOL    HW167636   5.948   4.689   8.632
21954SOL    HW267637   5.978   4.628   8.497
21955SOL     OW67638   4.831   2.147  13.891
21955SOL    HW167639   4.755   2.149  13.949
21955SOL    HW267640   4.823   2.226  13.838
21956SOL     OW67641  10.965   9.206   4.106
21956SOL    HW167642  11.032   9.273   4.093
21956SOL    HW267643  10.945   9.210   4.199
21957SOL     OW67644   3.798  14.611   7.827
21957SOL    HW167645   3.731  14.678   7.840
21957SOL    HW267646   3.876  14.660   7.803
21958SOL     OW67647  14.569   5.473   1.238
21958SOL    HW167648  14.651   5.511   1.271
21958SOL    HW267649  14.577   5.380   1.257
21959SOL     OW67650   7.371   3.976   7.268
21959SOL    HW167651   7.281   4.007   7.275
21959SOL    HW267652   7.380   3.950   7.176
21960SOL     OW67653   0.427   0.120  13.147
21960SOL    HW167654   0.390   0.066  13.078
21960SOL    HW267655   0.382   0.205  13.138
21961SOL     OW67656   3.951  10.554  13.951
21961SOL    HW167657   3.912  10.624  14.004
21961SOL    HW267658   4.045  10.560  13.970
21962SOL     OW67659   1.630  11.892   0.399
21962SOL    HW167660   1.657  11.859   0.484
21962SOL    HW267661   1.654  11.822   0.338
21963SOL     OW67662  14.282   7.217   2.378
21963SOL    HW167663  14.273   7.179   2.465
21963SOL    HW267664  14.282   7.141   2.319
21964SOL     OW67665   4.598   2.944   1.788
21964SOL    HW167666   4.679   2.935   1.840
21964SOL    HW267667   4.593   3.037   1.767
21965SOL     OW67668   5.644   9.477  14.149
21965SOL    HW167669   5.664   9.428  14.229
21965SOL    HW267670   5.551   9.460  14.134
21966SOL     OW67671  12.765  14.761   8.827
21966SOL    HW167672  12.813  14.842   8.845
21966SOL    HW267673  12.733  14.733   8.913
21967SOL     OW67674  10.723  10.286  14.211
21967SOL    HW167675  10.712  10.296  14.116
21967SOL    HW267676  10.817  10.275  14.223
21968SOL     OW67677   0.487   7.237   5.158
21968SOL    HW167678   0.407   7.197   5.124
21968SOL    HW267679   0.528   7.167   5.210
21969SOL     OW67680   0.987  14.793   1.641
21969SOL    HW167681   0.955  14.772   1.729
21969SOL    HW267682   1.073  14.832   1.656
21970SOL     OW67683  10.409   4.105  13.218
21970SOL    HW167684  10.464   4.121  13.141
21970SOL    HW267685  10.448   4.028  13.259
21971SOL     OW67686   8.431  13.206   7.425
21971SOL    HW167687   8.507  13.199   7.366
21971SOL    HW267688   8.391  13.119   7.424
21972SOL     OW67689  14.584   3.118   1.808
21972SOL    HW167690  14.652   3.055   1.832
21972SOL    HW267691  14.524   3.069   1.752
21973SOL     OW67692   1.497  10.527   8.374
21973SOL    HW167693   1.540  10.576   8.444
21973SOL    HW267694   1.531  10.566   8.293
21974SOL     OW67695   5.252   0.041  14.437
21974SOL    HW167696   5.216  14.830  14.437
21974SOL    HW267697   5.204   0.086  14.368
21975SOL     OW67698  12.880   8.554  13.952
21975SOL    HW167699  12.791   8.572  13.920
21975SOL    HW267700  12.922   8.640  13.954
21976SOL     OW67701   8.897  10.790  13.050
21976SOL    HW167702   8.920  10.872  13.094
21976SOL    HW267703   8.961  10.727  13.081
21977SOL     OW67704   4.163   2.039   1.567
21977SOL    HW167705   4.244   2.004   1.529
21977SOL    HW267706   4.192   2.110   1.624
21978SOL     OW67707   4.557   1.095   3.668
21978SOL    HW167708   4.557   1.014   3.618
21978SOL    HW267709   4.639   1.138   3.643
21979SOL     OW67710   0.271   1.778   6.919
21979SOL    HW167711   0.345   1.795   6.978
21979SOL    HW267712   0.252   1.685   6.931
21980SOL     OW67713  14.779   8.715  10.404
21980SOL    HW167714  14.830   8.796  10.408
21980SOL    HW267715  14.727   8.716  10.485
21981SOL     OW67716   5.107  13.781  10.831
21981SOL    HW167717   5.140  13.727  10.903
21981SOL    HW267718   5.084  13.864  10.872
21982SOL     OW67719   5.073  10.439   2.164
21982SOL    HW167720   5.018  10.405   2.234
21982SOL    HW267721   5.022  10.512   2.127
21983SOL     OW67722   2.282  10.997   3.387
21983SOL    HW167723   2.321  11.041   3.463
21983SOL    HW267724   2.330  11.030   3.312
21984SOL     OW67725   2.524   3.075   6.611
21984SOL    HW167726   2.501   3.113   6.526
21984SOL    HW267727   2.608   3.032   6.597
21985SOL     OW67728   7.307   8.161   1.075
21985SOL    HW167729   7.340   8.131   0.990
21985SOL    HW267730   7.248   8.092   1.104
21986SOL     OW67731   5.752   5.624   3.485
21986SOL    HW167732   5.784   5.592   3.400
21986SOL    HW267733   5.704   5.550   3.521
21987SOL     OW67734  10.407  11.949   1.617
21987SOL    HW167735  10.436  11.885   1.552
21987SOL    HW267736  10.404  12.032   1.569
21988SOL     OW67737  14.322   1.022   0.277
21988SOL    HW167738  14.250   0.964   0.252
21988SOL    HW267739  14.346   1.067   0.196
21989SOL     OW67740  10.140   0.857   6.244
21989SOL    HW167741  10.215   0.802   6.220
21989SOL    HW267742  10.149   0.935   6.190
21990SOL     OW67743   2.170   9.943   2.071
21990SOL    HW167744   2.143   9.965   2.160
21990SOL    HW267745   2.130   9.858   2.055
21991SOL     OW67746  14.199  10.385   4.597
21991SOL    HW167747  14.138  10.447   4.557
21991SOL    HW267748  14.280  10.394   4.547
21992SOL     OW67749   9.848   7.552   5.429
21992SOL    HW167750   9.759   7.561   5.394
21992SOL    HW267751   9.899   7.516   5.356
21993SOL     OW67752  14.674   5.359   2.002
21993SOL    HW167753  14.591   5.404   1.987
21993SOL    HW267754  14.650   5.275   2.041
21994SOL     OW67755   0.327   6.675   5.364
21994SOL    HW167756   0.343   6.587   5.331
21994SOL    HW267757   0.400   6.693   5.423
21995SOL     OW67758   2.714  13.469   4.709
21995SOL    HW167759   2.766  13.424   4.642
21995SOL    HW267760   2.658  13.401   4.746
21996SOL     OW67761  11.202   8.074  12.577
21996SOL    HW167762  11.120   8.120  12.597
21996SOL    HW267763  11.186   7.984  12.606
21997SOL     OW67764   6.364   4.543   3.988
21997SOL    HW167765   6.441   4.500   3.952
21997SOL    HW267766   6.291   4.506   3.939
21998SOL     OW67767   1.719  11.329  14.325
21998SOL    HW167768   1.648  11.317  14.262
21998SOL    HW267769   1.731  11.424  14.331
21999SOL     OW67770   7.391   5.002   8.986
21999SOL    HW167771   7.327   5.015   8.916
21999SOL    HW267772   7.392   5.085   9.034
22000SOL     OW67773   6.747   1.215   3.205
22000SOL    HW167774   6.726   1.272   3.278
22000SOL    HW267775   6.681   1.236   3.138
22001SOL     OW67776   0.535  10.904  11.436
22001SOL    HW167777   0.604  10.838  11.447
22001SOL    HW267778   0.564  10.956  11.361
22002SOL     OW67779   3.520   1.605   7.959
22002SOL    HW167780   3.513   1.682   7.903
22002SOL    HW267781   3.433   1.566   7.959
22003SOL     OW67782   8.394   7.710   8.521
22003SOL    HW167783   8.466   7.651   8.546
22003SOL    HW267784   8.367   7.678   8.435
22004SOL     OW67785   5.802  10.485  11.841
22004SOL    HW167786   5.751  10.426  11.897
22004SOL    HW267787   5.893  10.458  11.854
22005SOL     OW67788   0.702  13.282   6.307
22005SOL    HW167789   0.639  13.285   6.379
22005SOL    HW267790   0.733  13.192   6.306
22006SOL     OW67791  10.386  14.243   0.092
22006SOL    HW167792  10.342  14.309   0.145
22006SOL    HW267793  10.373  14.271   0.001
22007SOL     OW67794   8.317   4.714   2.780
22007SOL    HW167795   8.361   4.669   2.708
22007SOL    HW267796   8.376   4.704   2.854
22008SOL     OW67797   4.125   0.660   1.432
22008SOL    HW167798   4.211   0.700   1.427
22008SOL    HW267799   4.121   0.619   1.518
22009SOL     OW67800   7.269   4.738  11.845
22009SOL    HW167801   7.337   4.672  11.863
22009SOL    HW267802   7.212   4.734  11.921
22010SOL     OW67803   8.693   4.258   7.222
22010SOL    HW167804   8.670   4.299   7.305
22010SOL    HW267805   8.643   4.177   7.221
22011SOL     OW67806   7.878   5.491  10.537
22011SOL    HW167807   7.878   5.533  10.623
22011SOL    HW267808   7.946   5.537  10.488
22012SOL     OW67809  12.936   5.706   9.959
22012SOL    HW167810  12.900   5.681  10.044
22012SOL    HW267811  13.019   5.659   9.953
22013SOL     OW67812   6.983   6.206   5.690
22013SOL    HW167813   7.062   6.213   5.637
22013SOL    HW267814   6.911   6.215   5.627
22014SOL     OW67815   1.036   1.689   7.141
22014SOL    HW167816   1.017   1.687   7.235
22014SOL    HW267817   1.032   1.597   7.115
22015SOL     OW67818   9.932   8.447  13.731
22015SOL    HW167819   9.918   8.542  13.727
22015SOL    HW267820   9.851   8.410  13.696
22016SOL     OW67821   4.828   7.306  10.744
22016SOL    HW167822   4.846   7.224  10.698
22016SOL    HW267823   4.769   7.354  10.685
22017SOL     OW67824  11.250  12.344   2.839
22017SOL    HW167825  11.216  12.269   2.791
22017SOL    HW267826  11.178  12.370   2.897
22018SOL     OW67827   7.405   1.410  11.194
22018SOL    HW167828   7.408   1.343  11.262
22018SOL    HW267829   7.426   1.491  11.240
22019SOL     OW67830  12.967   4.585  11.739
22019SOL    HW167831  12.972   4.589  11.834
22019SOL    HW267832  12.974   4.676  11.710
22020SOL     OW67833   7.255   4.209  11.483
22020SOL    HW167834   7.259   4.291  11.532
22020SOL    HW267835   7.239   4.236  11.392
22021SOL     OW67836   8.757   6.221  10.996
22021SOL    HW167837   8.772   6.206  10.902
22021SOL    HW267838   8.765   6.316  11.006
22022SOL     OW67839  10.340   9.814   6.094
22022SOL    HW167840  10.317   9.732   6.139
22022SOL    HW267841  10.382   9.785   6.012
22023SOL     OW67842   7.564   0.818   6.891
22023SOL    HW167843   7.497   0.750   6.888
22023SOL    HW267844   7.634   0.783   6.946
22024SOL     OW67845  11.418   1.522   8.415
22024SOL    HW167846  11.355   1.579   8.372
22024SOL    HW267847  11.375   1.437   8.418
22025SOL     OW67848  14.469   9.424  12.279
22025SOL    HW167849  14.541   9.368  12.308
22025SOL    HW267850  14.434   9.461  12.360
22026SOL     OW67851  12.263  13.649   9.445
22026SOL    HW167852  12.330  13.610   9.501
22026SOL    HW267853  12.311  13.690   9.374
22027SOL     OW67854  14.839   4.269   5.309
22027SOL    HW167855  14.806   4.190   5.267
22027SOL    HW267856  14.774   4.336   5.289
22028SOL     OW67857   5.858   8.063   9.591
22028SOL    HW167858   5.842   8.078   9.685
22028SOL    HW267859   5.770   8.058   9.553
22029SOL     OW67860   4.722   4.537  11.186
22029SOL    HW167861   4.744   4.595  11.259
22029SOL    HW267862   4.737   4.449  11.220
22030SOL     OW67863   6.856   3.587   1.790
22030SOL    HW167864   6.917   3.639   1.737
22030SOL    HW267865   6.809   3.534   1.725
22031SOL     OW67866  12.906   0.176   3.726
22031SOL    HW167867  12.879   0.220   3.807
22031SOL    HW267868  12.945   0.094   3.755
22032SOL     OW67869   8.781  12.361  13.060
22032SOL    HW167870   8.837  12.439  13.050
22032SOL    HW267871   8.797  12.310  12.981
22033SOL     OW67872  11.891  10.076   8.265
22033SOL    HW167873  11.896  10.006   8.330
22033SOL    HW267874  11.841  10.039   8.193
22034SOL     OW67875  13.408  14.546  14.637
22034SOL    HW167876  13.456  14.591  14.707
22034SOL    HW267877  13.363  14.474  14.681
22035SOL     OW67878  13.094  14.186  13.181
22035SOL    HW167879  13.128  14.219  13.098
22035SOL    HW267880  13.060  14.263  13.226
22036SOL     OW67881   0.444  13.795   5.054
22036SOL    HW167882   0.492  13.741   4.992
22036SOL    HW267883   0.403  13.733   5.114
22037SOL     OW67884  13.981  10.624  10.753
22037SOL    HW167885  13.942  10.634  10.839
22037SOL    HW267886  13.907  10.611  10.694
22038SOL     OW67887  11.025   2.948  14.351
22038SOL    HW167888  10.948   2.897  14.327
22038SOL    HW267889  11.099   2.899  14.315
22039SOL     OW67890   9.569  14.042   6.596
22039SOL    HW167891   9.487  14.092   6.593
22039SOL    HW267892   9.568  13.999   6.682
22040SOL     OW67893   8.942   4.520  12.577
22040SOL    HW167894   8.923   4.503  12.670
22040SOL    HW267895   9.024   4.474  12.561
22041SOL     OW67896   3.352  14.470   0.531
22041SOL    HW167897   3.387  14.541   0.584
22041SOL    HW267898   3.388  14.390   0.571
22042SOL     OW67899   8.664   9.728  10.734
22042SOL    HW167900   8.632   9.681  10.811
22042SOL    HW267901   8.602   9.800  10.722
22043SOL     OW67902  10.042  10.763   0.429
22043SOL    HW167903   9.985  10.754   0.506
22043SOL    HW267904  10.130  10.753   0.463
22044SOL     OW67905  11.549   9.870   6.315
22044SOL    HW167906  11.579   9.779   6.308
22044SOL    HW267907  11.594   9.915   6.243
22045SOL     OW67908   1.432   1.915   8.431
22045SOL    HW167909   1.441   1.826   8.465
22045SOL    HW267910   1.523   1.943   8.416
22046SOL     OW67911   6.698   7.616   7.596
22046SOL    HW167912   6.702   7.521   7.585
22046SOL    HW267913   6.624   7.643   7.541
22047SOL     OW67914   8.632  12.199   8.148
22047SOL    HW167915   8.722  12.186   8.118
22047SOL    HW267916   8.602  12.112   8.174
22048SOL     OW67917  10.659   6.329   8.370
22048SOL    HW167918  10.595   6.318   8.300
22048SOL    HW267919  10.609   6.364   8.444
22049SOL     OW67920   1.025   9.129  11.736
22049SOL    HW167921   1.040   9.218  11.704
22049SOL    HW267922   1.110   9.085  11.726
22050SOL     OW67923   6.466  13.623   3.229
22050SOL    HW167924   6.537  13.634   3.291
22050SOL    HW267925   6.490  13.678   3.155
22051SOL     OW67926   8.478  14.359  14.701
22051SOL    HW167927   8.514  14.418  14.767
22051SOL    HW267928   8.536  14.283  14.702
22052SOL     OW67929   2.259   6.422  13.886
22052SOL    HW167930   2.320   6.380  13.947
22052SOL    HW267931   2.174   6.383  13.907
22053SOL     OW67932   7.697   3.465  12.648
22053SOL    HW167933   7.674   3.443  12.738
22053SOL    HW267934   7.752   3.391  12.619
22054SOL     OW67935   2.934   0.185  11.061
22054SOL    HW167936   2.989   0.254  11.023
22054SOL    HW267937   2.850   0.194  11.015
22055SOL     OW67938   6.184   3.387   9.522
22055SOL    HW167939   6.118   3.417   9.459
22055SOL    HW267940   6.194   3.459   9.583
22056SOL     OW67941   4.971  11.192   9.296
22056SOL    HW167942   4.925  11.197   9.379
22056SOL    HW267943   5.029  11.116   9.305
22057SOL     OW67944  13.188   3.228  12.741
22057SOL    HW167945  13.214   3.158  12.800
22057SOL    HW267946  13.167   3.184  12.659
22058SOL     OW67947   9.492   1.258  13.644
22058SOL    HW167948   9.577   1.263  13.600
22058SOL    HW267949   9.493   1.174  13.689
22059SOL     OW67950   4.152   6.399  13.609
22059SOL    HW167951   4.117   6.365  13.527
22059SOL    HW267952   4.197   6.325  13.649
22060SOL     OW67953  13.687   3.104  12.831
22060SOL    HW167954  13.726   3.189  12.810
22060SOL    HW267955  13.633   3.084  12.755
22061SOL     OW67956   5.378   3.651   9.361
22061SOL    HW167957   5.323   3.728   9.349
22061SOL    HW267958   5.315   3.579   9.373
22062SOL     OW67959  11.436   2.479   5.860
22062SOL    HW167960  11.387   2.402   5.830
22062SOL    HW267961  11.391   2.553   5.821
22063SOL     OW67962   1.377  14.298   1.494
22063SOL    HW167963   1.454  14.336   1.536
22063SOL    HW267964   1.378  14.334   1.405
22064SOL     OW67965  10.661   5.770   4.853
22064SOL    HW167966  10.569   5.793   4.841
22064SOL    HW267967  10.664   5.733   4.941
22065SOL     OW67968   8.720   9.117   2.132
22065SOL    HW167969   8.752   9.193   2.180
22065SOL    HW267970   8.625   9.119   2.144
22066SOL     OW67971  10.129  13.137   6.681
22066SOL    HW167972  10.178  13.144   6.599
22066SOL    HW267973  10.107  13.045   6.688
22067SOL     OW67974   6.226   0.876   4.181
22067SOL    HW167975   6.310   0.859   4.224
22067SOL    HW267976   6.160   0.844   4.242
22068SOL     OW67977  13.339  11.178   9.664
22068SOL    HW167978  13.294  11.145   9.586
22068SOL    HW267979  13.300  11.264   9.680
22069SOL     OW67980   8.251   2.036  14.294
22069SOL    HW167981   8.251   2.060  14.386
22069SOL    HW267982   8.344   2.028  14.271
22070SOL     OW67983   1.218   2.301  12.690
22070SOL    HW167984   1.152   2.236  12.712
22070SOL    HW267985   1.222   2.300  12.595
22071SOL     OW67986  11.820   1.333  12.673
22071SOL    HW167987  11.903   1.377  12.661
22071SOL    HW267988  11.834   1.244  12.639
22072SOL     OW67989  11.510   1.050   5.876
22072SOL    HW167990  11.541   0.960   5.886
22072SOL    HW267991  11.428   1.053   5.925
22073SOL     OW67992   8.545  11.870   7.285
22073SOL    HW167993   8.530  11.962   7.308
22073SOL    HW267994   8.610  11.873   7.215
22074SOL     OW67995   9.544   0.977   3.684
22074SOL    HW167996   9.616   1.037   3.700
22074SOL    HW267997   9.544   0.918   3.760
22075SOL     OW67998   9.614   0.530   1.848
22075SOL    HW167999   9.582   0.615   1.817
22075SOL    HW268000   9.634   0.481   1.768
22076SOL     OW68001   0.548   7.124   1.161
22076SOL    HW168002   0.586   7.054   1.214
22076SOL    HW268003   0.612   7.139   1.091
22077SOL     OW68004  12.162  11.866   4.138
22077SOL    HW168005  12.254  11.880   4.116
22077SOL    HW268006  12.160  11.777   4.174
22078SOL     OW68007   5.525   4.284   8.724
22078SOL    HW168008   5.565   4.250   8.644
22078SOL    HW268009   5.440   4.318   8.695
22079SOL     OW68010  11.207  10.341   9.111
22079SOL    HW168011  11.294  10.359   9.148
22079SOL    HW268012  11.173  10.268   9.164
22080SOL     OW68013   3.948   0.482   0.637
22080SOL    HW168014   3.968   0.562   0.687
22080SOL    HW268015   3.883   0.510   0.572
22081SOL     OW68016   1.720  14.697   2.689
22081SOL    HW168017   1.797  14.716   2.743
22081SOL    HW268018   1.690  14.783   2.659
22082SOL     OW68019   2.006  13.519   0.863
22082SOL    HW168020   2.067  13.592   0.862
22082SOL    HW268021   2.008  13.487   0.953
22083SOL     OW68022   4.661  14.542  11.054
22083SOL    HW168023   4.641  14.559  11.146
22083SOL    HW268024   4.692  14.626  11.019
22084SOL     OW68025   1.190   0.845  12.342
22084SOL    HW168026   1.254   0.794  12.391
22084SOL    HW268027   1.161   0.787  12.273
22085SOL     OW68028  14.326  11.462  13.480
22085SOL    HW168029  14.374  11.389  13.518
22085SOL    HW268030  14.255  11.421  13.430
22086SOL     OW68031  12.946   1.124   7.377
22086SOL    HW168032  13.018   1.145   7.437
22086SOL    HW268033  12.868   1.155   7.423
22087SOL     OW68034  10.008  14.761   3.307
22087SOL    HW168035   9.971  14.739   3.392
22087SOL    HW268036   9.957  14.836   3.277
22088SOL     OW68037   0.627   8.781  12.255
22088SOL    HW168038   0.662   8.861  12.296
22088SOL    HW268039   0.694   8.755  12.192
22089SOL     OW68040   6.352   7.054   5.032
22089SOL    HW168041   6.303   7.086   5.108
22089SOL    HW268042   6.443   7.056   5.060
22090SOL     OW68043   2.064  12.901   8.474
22090SOL    HW168044   2.032  12.824   8.427
22090SOL    HW268045   2.159  12.894   8.470
22091SOL     OW68046   3.875   0.533  10.668
22091SOL    HW168047   3.846   0.468  10.604
22091SOL    HW268048   3.967   0.511  10.684
22092SOL     OW68049   7.391  11.959   5.532
22092SOL    HW168050   7.391  11.933   5.624
22092SOL    HW268051   7.380  12.054   5.534
22093SOL     OW68052  11.220   1.957   0.328
22093SOL    HW168053  11.167   1.967   0.248
22093SOL    HW268054  11.167   1.902   0.385
22094SOL     OW68055  13.828   5.011  12.964
22094SOL    HW168056  13.796   4.921  12.964
22094SOL    HW268057  13.918   5.005  12.932
22095SOL     OW68058   7.245   0.016  12.947
22095SOL    HW168059   7.174  14.830  12.950
22095SOL    HW268060   7.220   0.083  13.010
22096SOL     OW68061   4.784  11.711   0.478
22096SOL    HW168062   4.744  11.655   0.545
22096SOL    HW268063   4.875  11.681   0.473
22097SOL     OW68064   3.674  10.754   8.867
22097SOL    HW168065   3.752  10.792   8.826
22097SOL    HW268066   3.708  10.705   8.942
22098SOL     OW68067  11.406   4.599   1.435
22098SOL    HW168068  11.488   4.647   1.428
22098SOL    HW268069  11.423   4.516   1.390
22099SOL     OW68070   4.479  14.559   0.268
22099SOL    HW168071   4.410  14.533   0.329
22099SOL    HW268072   4.533  14.481   0.258
22100SOL     OW68073   2.121   7.095   0.240
22100SOL    HW168074   2.067   7.023   0.272
22100SOL    HW268075   2.178   7.117   0.314
22101SOL     OW68076   1.764   8.058   6.205
22101SOL    HW168077   1.716   7.981   6.176
22101SOL    HW268078   1.709   8.096   6.274
22102SOL     OW68079   4.506  11.369   3.572
22102SOL    HW168080   4.556  11.389   3.493
22102SOL    HW268081   4.565  11.317   3.626
22103SOL     OW68082   7.313  13.718  12.315
22103SOL    HW168083   7.366  13.795  12.294
22103SOL    HW268084   7.373  13.644  12.307
22104SOL     OW68085   0.573   5.550  10.750
22104SOL    HW168086   0.611   5.505  10.675
22104SOL    HW268087   0.543   5.479  10.807
22105SOL     OW68088   6.087   1.672   0.987
22105SOL    HW168089   6.149   1.730   0.943
22105SOL    HW268090   6.026   1.731   1.031
22106SOL     OW68091  14.094  10.880   2.390
22106SOL    HW168092  14.165  10.916   2.337
22106SOL    HW268093  14.088  10.939   2.465
22107SOL     OW68094  14.026   1.404   3.513
22107SOL    HW168095  14.024   1.308   3.506
22107SOL    HW268096  14.038   1.421   3.607
22108SOL     OW68097   0.399   5.669   7.449
22108SOL    HW168098   0.407   5.718   7.367
22108SOL    HW268099   0.390   5.578   7.421
22109SOL     OW68100   7.921   6.310  13.482
22109SOL    HW168101   7.936   6.370  13.555
22109SOL    HW268102   7.967   6.350  13.409
22110SOL     OW68103   3.593  14.874  14.833
22110SOL    HW168104   3.632   0.078  14.864
22110SOL    HW268105   3.659  14.807  14.854
22111SOL     OW68106   0.280  14.402  14.372
22111SOL    HW168107   0.235  14.323  14.343
22111SOL    HW268108   0.370  14.373  14.390
22112SOL     OW68109   1.311   8.799   1.523
22112SOL    HW168110   1.308   8.777   1.430
22112SOL    HW268111   1.279   8.890   1.527
22113SOL     OW68112   8.032   4.795   4.663
22113SOL    HW168113   8.068   4.883   4.656
22113SOL    HW268114   8.000   4.789   4.753
22114SOL     OW68115  14.317  14.671   1.538
22114SOL    HW168116  14.339  14.669   1.445
22114SOL    HW268117  14.327  14.762   1.563
22115SOL     OW68118  10.445   9.239   6.126
22115SOL    HW168119  10.473   9.180   6.055
22115SOL    HW268120  10.462   9.326   6.092
22116SOL     OW68121   7.213   1.250   4.850
22116SOL    HW168122   7.196   1.155   4.851
22116SOL    HW268123   7.278   1.262   4.781
22117SOL     OW68124   7.270   3.191  13.176
22117SOL    HW168125   7.209   3.242  13.123
22117SOL    HW268126   7.256   3.100  13.146
22118SOL     OW68127  11.960   7.831   7.686
22118SOL    HW168128  11.866   7.824   7.700
22118SOL    HW268129  11.988   7.742   7.665
22119SOL     OW68130   8.886  12.723   7.590
22119SOL    HW168131   8.886  12.715   7.685
22119SOL    HW268132   8.972  12.761   7.569
22120SOL     OW68133   8.178  10.738   0.418
22120SOL    HW168134   8.130  10.660   0.392
22120SOL    HW268135   8.188  10.730   0.513
22121SOL     OW68136   9.228  10.306   6.590
22121SOL    HW168137   9.296  10.350   6.539
22121SOL    HW268138   9.202  10.231   6.537
22122SOL     OW68139  11.216  11.321  11.229
22122SOL    HW168140  11.291  11.335  11.287
22122SOL    HW268141  11.245  11.253  11.169
22123SOL     OW68142   4.460   8.899   6.415
22123SOL    HW168143   4.491   8.946   6.493
22123SOL    HW268144   4.406   8.963   6.369
22124SOL     OW68145   9.595  11.041   6.117
22124SOL    HW168146   9.683  11.016   6.090
22124SOL    HW268147   9.544  11.043   6.036
22125SOL     OW68148  14.389  10.671  11.957
22125SOL    HW168149  14.425  10.734  12.020
22125SOL    HW268150  14.307  10.711  11.928
22126SOL     OW68151  13.884  11.622  14.223
22126SOL    HW168152  13.950  11.629  14.292
22126SOL    HW268153  13.830  11.700  14.234
22127SOL     OW68154   8.234   9.067  10.354
22127SOL    HW168155   8.149   9.106  10.373
22127SOL    HW268156   8.274   9.126  10.290
22128SOL     OW68157   8.128   7.913   5.454
22128SOL    HW168158   8.165   7.999   5.437
22128SOL    HW268159   8.153   7.861   5.377
22129SOL     OW68160   5.314   7.653  11.777
22129SOL    HW168161   5.317   7.744  11.749
22129SOL    HW268162   5.285   7.656  11.868
22130SOL     OW68163  11.137   4.893   0.268
22130SOL    HW168164  11.223   4.867   0.302
22130SOL    HW268165  11.140   4.871   0.175
22131SOL     OW68166   3.241   9.005   8.664
22131SOL    HW168167   3.280   9.012   8.751
22131SOL    HW268168   3.149   9.024   8.678
22132SOL     OW68169   8.108  12.195   6.276
22132SOL    HW168170   8.019  12.173   6.250
22132SOL    HW268171   8.147  12.233   6.198
22133SOL     OW68172   0.521  11.891   3.761
22133SOL    HW168173   0.474  11.807   3.759
22133SOL    HW268174   0.566  11.895   3.676
22134SOL     OW68175   3.015   1.991   8.316
22134SOL    HW168176   3.030   2.019   8.226
22134SOL    HW268177   3.086   2.031   8.366
22135SOL     OW68178   8.829   3.275  11.647
22135SOL    HW168179   8.747   3.292  11.694
22135SOL    HW268180   8.891   3.340  11.681
22136SOL     OW68181  10.632   2.859  13.900
22136SOL    HW168182  10.674   2.788  13.949
22136SOL    HW268183  10.704   2.904  13.856
22137SOL     OW68184   7.260   7.499   4.480
22137SOL    HW168185   7.187   7.445   4.451
22137SOL    HW268186   7.224   7.552   4.551
22138SOL     OW68187   8.362  10.587  14.005
22138SOL    HW168188   8.416  10.664  13.988
22138SOL    HW268189   8.356  10.542  13.921
22139SOL     OW68190  14.276   9.104   2.636
22139SOL    HW168191  14.278   9.009   2.649
22139SOL    HW268192  14.362   9.134   2.664
22140SOL     OW68193   1.171   0.939   2.564
22140SOL    HW168194   1.105   0.874   2.542
22140SOL    HW268195   1.252   0.905   2.524
22141SOL     OW68196  14.824   1.807  10.739
22141SOL    HW168197  14.749   1.813  10.798
22141SOL    HW268198   0.019   1.783  10.796
22142SOL     OW68199   5.410   9.149   8.223
22142SOL    HW168200   5.472   9.087   8.262
22142SOL    HW268201   5.328   9.131   8.267
22143SOL     OW68202   4.117   4.664   8.287
22143SOL    HW168203   4.061   4.669   8.209
22143SOL    HW268204   4.201   4.701   8.259
22144SOL     OW68205  14.343   2.460   1.198
22144SOL    HW168206  14.374   2.378   1.159
22144SOL    HW268207  14.256   2.472   1.161
22145SOL     OW68208  10.282  10.266  11.689
22145SOL    HW168209  10.371  10.240  11.667
22145SOL    HW268210  10.228  10.226  11.621
22146SOL     OW68211   7.603   6.598   1.730
22146SOL    HW168212   7.662   6.599   1.806
22146SOL    HW268213   7.521   6.636   1.763
22147SOL     OW68214  14.500  14.508   8.751
22147SOL    HW168215  14.591  14.497   8.723
22147SOL    HW268216  14.492  14.602   8.766
22148SOL     OW68217   4.707  10.279  12.713
22148SOL    HW168218   4.627  10.328  12.693
22148SOL    HW268219   4.681  10.216  12.781
22149SOL     OW68220   6.080   7.339  14.426
22149SOL    HW168221   6.076   7.256  14.474
22149SOL    HW268222   6.133   7.319  14.349
22150SOL     OW68223  11.981   2.454   9.353
22150SOL    HW168224  11.916   2.451   9.283
22150SOL    HW268225  11.994   2.362   9.377
22151SOL     OW68226   2.720  13.464   1.107
22151SOL    HW168227   2.730  13.559   1.111
22151SOL    HW268228   2.723  13.444   1.013
22152SOL     OW68229   5.065   0.999   5.005
22152SOL    HW168230   5.001   1.070   5.012
22152SOL    HW268231   5.121   1.025   4.932
22153SOL     OW68232   0.132  14.509  13.341
22153SOL    HW168233   0.135  14.414  13.331
22153SOL    HW268234   0.194  14.543  13.276
22154SOL     OW68235   8.391   8.160   9.053
22154SOL    HW168236   8.368   8.080   9.007
22154SOL    HW268237   8.472   8.189   9.012
22155SOL     OW68238   7.666  14.159   1.074
22155SOL    HW168239   7.591  14.218   1.068
22155SOL    HW268240   7.640  14.082   1.024
22156SOL     OW68241   9.270   3.657   7.839
22156SOL    HW168242   9.208   3.600   7.792
22156SOL    HW268243   9.278   3.734   7.784
22157SOL     OW68244  13.064   5.069  14.340
22157SOL    HW168245  13.066   5.033  14.429
22157SOL    HW268246  13.012   5.149  14.348
22158SOL     OW68247   5.400  10.503  10.080
22158SOL    HW168248   5.321  10.487  10.132
22158SOL    HW268249   5.427  10.592  10.104
22159SOL     OW68250   6.361  13.009   1.064
22159SOL    HW168251   6.399  13.012   0.977
22159SOL    HW268252   6.429  12.972   1.120
22160SOL     OW68253   6.434   9.606   4.878
22160SOL    HW168254   6.517   9.647   4.903
22160SOL    HW268255   6.404   9.658   4.803
22161SOL     OW68256   4.321  14.721   4.178
22161SOL    HW168257   4.403  14.768   4.193
22161SOL    HW268258   4.346  14.629   4.180
22162SOL     OW68259   0.618   5.390  14.150
22162SOL    HW168260   0.703   5.361  14.118
22162SOL    HW268261   0.585   5.315  14.200
22163SOL     OW68262   4.308   4.784  13.202
22163SOL    HW168263   4.298   4.877  13.184
22163SOL    HW268264   4.240   4.765  13.268
22164SOL     OW68265   4.061   1.556   9.702
22164SOL    HW168266   3.971   1.547   9.672
22164SOL    HW268267   4.109   1.488   9.655
22165SOL     OW68268  14.733   4.221  14.189
22165SOL    HW168269  14.698   4.265  14.112
22165SOL    HW268270  14.825   4.246  14.191
22166SOL     OW68271   8.324   6.023   3.035
22166SOL    HW168272   8.269   5.957   2.993
22166SOL    HW268273   8.279   6.106   3.021
22167SOL     OW68274   1.764   8.338  14.013
22167SOL    HW168275   1.693   8.354  13.951
22167SOL    HW268276   1.780   8.423  14.053
22168SOL     OW68277   6.899   0.690   9.467
22168SOL    HW168278   6.833   0.630   9.501
22168SOL    HW268279   6.850   0.750   9.410
22169SOL     OW68280   4.035  12.401  10.722
22169SOL    HW168281   4.034  12.491  10.690
22169SOL    HW268282   3.945  12.371  10.713
22170SOL     OW68283   4.239   9.598   2.186
22170SOL    HW168284   4.311   9.538   2.166
22170SOL    HW268285   4.280   9.668   2.237
22171SOL     OW68286  12.963  13.800   4.925
22171SOL    HW168287  12.903  13.784   4.851
22171SOL    HW268288  12.961  13.895   4.937
22172SOL     OW68289   8.873  14.845   0.571
22172SOL    HW168290   8.807  14.848   0.640
22172SOL    HW268291   8.921  14.764   0.587
22173SOL     OW68292   1.952   6.807   4.206
22173SOL    HW168293   2.036   6.768   4.182
22173SOL    HW268294   1.944   6.789   4.300
22174SOL     OW68295   7.820   2.224  11.972
22174SOL    HW168296   7.913   2.203  11.979
22174SOL    HW268297   7.780   2.145  11.937
22175SOL     OW68298   2.134   2.798  13.042
22175SOL    HW168299   2.135   2.785  12.947
22175SOL    HW268300   2.042   2.792  13.065
22176SOL     OW68301  10.099   4.563  14.521
22176SOL    HW168302  10.043   4.579  14.445
22176SOL    HW268303  10.053   4.498  14.573
22177SOL     OW68304   8.990   3.302  13.185
22177SOL    HW168305   8.958   3.219  13.152
22177SOL    HW268306   9.033   3.343  13.110
22178SOL     OW68307   0.120   6.284   7.548
22178SOL    HW168308   0.180   6.357   7.532
22178SOL    HW268309   0.073   6.308   7.629
22179SOL     OW68310   2.180  14.369   8.700
22179SOL    HW168311   2.088  14.396   8.706
22179SOL    HW268312   2.229  14.451   8.702
22180SOL     OW68313  10.209   1.281   7.004
22180SOL    HW168314  10.302   1.283   7.029
22180SOL    HW268315  10.197   1.195   6.964
22181SOL     OW68316   0.591   4.733  12.931
22181SOL    HW168317   0.580   4.747  12.837
22181SOL    HW268318   0.567   4.642  12.945
22182SOL     OW68319   5.315   1.835   0.735
22182SOL    HW168320   5.362   1.906   0.778
22182SOL    HW268321   5.354   1.755   0.770
22183SOL     OW68322   3.948  13.792   8.274
22183SOL    HW168323   4.033  13.796   8.318
22183SOL    HW268324   3.931  13.699   8.262
22184SOL     OW68325   6.516   3.922   1.736
22184SOL    HW168326   6.552   3.962   1.657
22184SOL    HW268327   6.587   3.869   1.771
22185SOL     OW68328  10.105   7.959   1.585
22185SOL    HW168329  10.049   7.969   1.508
22185SOL    HW268330  10.058   7.897   1.641
22186SOL     OW68331  14.460   6.686  14.759
22186SOL    HW168332  14.488   6.776  14.746
22186SOL    HW268333  14.370   6.684  14.725
22187SOL     OW68334   4.592  13.556   5.500
22187SOL    HW168335   4.582  13.652   5.499
22187SOL    HW268336   4.576  13.530   5.409
22188SOL     OW68337   3.147   3.509   4.099
22188SOL    HW168338   3.193   3.432   4.066
22188SOL    HW268339   3.186   3.583   4.051
22189SOL     OW68340   9.930   7.163  14.413
22189SOL    HW168341   9.846   7.121  14.431
22189SOL    HW268342   9.943   7.151  14.319
22190SOL     OW68343  12.281  13.908   3.384
22190SOL    HW168344  12.292  13.852   3.307
22190SOL    HW268345  12.362  13.897   3.434
22191SOL     OW68346   5.818  10.609  10.160
22191SOL    HW168347   5.732  10.599  10.200
22191SOL    HW268348   5.804  10.586  10.068
22192SOL     OW68349  11.987   7.964  11.138
22192SOL    HW168350  11.939   8.030  11.088
22192SOL    HW268351  11.927   7.939  11.209
22193SOL     OW68352   7.750  13.956  11.847
22193SOL    HW168353   7.669  13.940  11.897
22193SOL    HW268354   7.719  13.989  11.763
22194SOL     OW68355   6.458   6.537   4.733
22194SOL    HW168356   6.477   6.446   4.757
22194SOL    HW268357   6.363   6.545   4.740
22195SOL     OW68358   8.032  14.324  12.259
22195SOL    HW168359   8.027  14.230  12.280
22195SOL    HW268360   8.000  14.368  12.338
22196SOL     OW68361   0.617   1.157   6.880
22196SOL    HW168362   0.653   1.132   6.795
22196SOL    HW268363   0.544   1.215   6.860
22197SOL     OW68364  13.744   5.538   3.154
22197SOL    HW168365  13.648   5.542   3.146
22197SOL    HW268366  13.763   5.588   3.233
22198SOL     OW68367   4.549   7.592   3.730
22198SOL    HW168368   4.627   7.549   3.766
22198SOL    HW268369   4.530   7.662   3.792
22199SOL     OW68370   3.525   6.019   5.779
22199SOL    HW168371   3.582   5.945   5.799
22199SOL    HW268372   3.468   5.987   5.709
22200SOL     OW68373   4.576   4.173   5.767
22200SOL    HW168374   4.531   4.204   5.846
22200SOL    HW268375   4.662   4.144   5.799
22201SOL     OW68376   1.861   2.417   0.887
22201SOL    HW168377   1.921   2.356   0.844
22201SOL    HW268378   1.897   2.429   0.975
22202SOL     OW68379   0.866  13.415  13.132
22202SOL    HW168380   0.937  13.360  13.099
22202SOL    HW268381   0.805  13.422  13.058
22203SOL     OW68382   2.954   3.309   3.364
22203SOL    HW168383   2.985   3.236   3.310
22203SOL    HW268384   2.913   3.266   3.440
22204SOL     OW68385   2.915   8.173  10.218
22204SOL    HW168386   2.895   8.081  10.234
22204SOL    HW268387   2.868   8.220  10.287
22205SOL     OW68388   3.535   6.636  14.602
22205SOL    HW168389   3.531   6.545  14.631
22205SOL    HW268390   3.577   6.682  14.675
22206SOL     OW68391  14.482   2.736   4.939
22206SOL    HW168392  14.477   2.714   4.846
22206SOL    HW268393  14.520   2.824   4.942
22207SOL     OW68394   4.183   0.604   3.679
22207SOL    HW168395   4.219   0.517   3.662
22207SOL    HW268396   4.178   0.645   3.592
22208SOL     OW68397  13.346   6.204   6.829
22208SOL    HW168398  13.325   6.288   6.789
22208SOL    HW268399  13.263   6.156   6.828
22209SOL     OW68400  13.743   6.000   6.189
22209SOL    HW168401  13.798   6.060   6.241
22209SOL    HW268402  13.695   5.949   6.254
22210SOL     OW68403   5.110   4.132   7.564
22210SOL    HW168404   5.101   4.113   7.657
22210SOL    HW268405   5.025   4.168   7.538
22211SOL     OW68406   1.481  14.174  12.440
22211SOL    HW168407   1.505  14.090  12.399
22211SOL    HW268408   1.405  14.204  12.391
22212SOL     OW68409   5.069   9.749   2.260
22212SOL    HW168410   5.021   9.711   2.187
22212SOL    HW268411   5.159   9.757   2.228
22213SOL     OW68412   8.519  12.439  14.747
22213SOL    HW168413   8.609  12.469  14.753
22213SOL    HW268414   8.491  12.462  14.658
22214SOL     OW68415   0.052  12.743   5.166
22214SOL    HW168416   0.043  12.671   5.103
22214SOL    HW268417  14.846  12.746   5.212
22215SOL     OW68418   5.163   2.801  12.819
22215SOL    HW168419   5.230   2.868  12.815
22215SOL    HW268420   5.173   2.752  12.737
22216SOL     OW68421   8.405   1.155   8.277
22216SOL    HW168422   8.395   1.247   8.298
22216SOL    HW268423   8.373   1.108   8.354
22217SOL     OW68424  12.211   0.751   1.705
22217SOL    HW168425  12.261   0.736   1.785
22217SOL    HW268426  12.122   0.770   1.735
22218SOL     OW68427   6.997  13.070   2.284
22218SOL    HW168428   6.954  13.104   2.363
22218SOL    HW268429   7.044  12.992   2.314
22219SOL     OW68430   8.902   5.433   3.190
22219SOL    HW168431   8.852   5.376   3.132
22219SOL    HW268432   8.987   5.443   3.146
22220SOL     OW68433   4.897   0.084  11.703
22220SOL    HW168434   4.864   0.137  11.631
22220SOL    HW268435   4.942   0.146  11.760
22221SOL     OW68436   3.727  12.508   8.906
22221SOL    HW168437   3.759  12.502   8.997
22221SOL    HW268438   3.804  12.487   8.853
22222SOL     OW68439   2.190   1.287  13.758
22222SOL    HW168440   2.194   1.259  13.667
22222SOL    HW268441   2.132   1.224  13.800
22223SOL     OW68442  10.981  14.053   8.554
22223SOL    HW168443  11.010  13.996   8.625
22223SOL    HW268444  10.891  14.077   8.577
22224SOL     OW68445   1.695   3.611  14.643
22224SOL    HW168446   1.655   3.528  14.616
22224SOL    HW268447   1.775   3.617  14.591
22225SOL     OW68448   5.278   4.044   8.760
22225SOL    HW168449   5.292   4.127   8.713
22225SOL    HW268450   5.202   4.060   8.816
22226SOL     OW68451   9.658   3.019   4.583
22226SOL    HW168452   9.749   3.029   4.612
22226SOL    HW268453   9.656   3.060   4.496
22227SOL     OW68454   5.002  10.334  13.939
22227SOL    HW168455   5.053  10.414  13.927
22227SOL    HW268456   5.026  10.303  14.026
22228SOL     OW68457  10.359  11.319  11.691
22228SOL    HW168458  10.268  11.305  11.718
22228SOL    HW268459  10.376  11.411  11.711
22229SOL     OW68460   1.522  10.700   4.850
22229SOL    HW168461   1.575  10.757   4.795
22229SOL    HW268462   1.486  10.757   4.917
22230SOL     OW68463  14.231   9.831   5.241
22230SOL    HW168464  14.150   9.882   5.234
22230SOL    HW268465  14.251   9.830   5.335
22231SOL     OW68466   9.915   2.223   9.154
22231SOL    HW168467  10.008   2.221   9.178
22231SOL    HW268468   9.885   2.134   9.170
22232SOL     OW68469   5.932   6.407   6.106
22232SOL    HW168470   5.980   6.415   6.023
22232SOL    HW268471   5.950   6.318   6.135
22233SOL     OW68472  12.251  12.321   4.422
22233SOL    HW168473  12.157  12.311   4.411
22233SOL    HW268474  12.270  12.283   4.508
22234SOL     OW68475  13.689   0.420  13.258
22234SOL    HW168476  13.739   0.352  13.305
22234SOL    HW268477  13.710   0.501  13.305
22235SOL     OW68478  12.208  11.027   4.287
22235SOL    HW168479  12.239  10.999   4.374
22235SOL    HW268480  12.251  11.111   4.272
22236SOL     OW68481   4.482   5.506   1.785
22236SOL    HW168482   4.429   5.571   1.738
22236SOL    HW268483   4.448   5.422   1.756
22237SOL     OW68484   2.791   4.579  14.128
22237SOL    HW168485   2.741   4.556  14.049
22237SOL    HW268486   2.773   4.673  14.141
22238SOL     OW68487   1.115   2.896  11.370
22238SOL    HW168488   1.203   2.870  11.396
22238SOL    HW268489   1.066   2.814  11.366
22239SOL     OW68490   7.162   9.417   8.977
22239SOL    HW168491   7.098   9.450   8.914
22239SOL    HW268492   7.241   9.468   8.958
22240SOL     OW68493   8.516   8.582   1.387
22240SOL    HW168494   8.505   8.505   1.331
22240SOL    HW268495   8.519   8.547   1.476
22241SOL     OW68496  14.108   9.975  12.697
22241SOL    HW168497  14.058  10.051  12.670
22241SOL    HW268498  14.144  10.000  12.782
22242SOL     OW68499  12.351   0.152   7.335
22242SOL    HW168500  12.313   0.146   7.248
22242SOL    HW268501  12.281   0.123   7.394
22243SOL     OW68502  10.435   5.971  12.619
22243SOL    HW168503  10.371   5.903  12.600
22243SOL    HW268504  10.468   5.950  12.707
22244SOL     OW68505   0.928  10.004   5.463
22244SOL    HW168506   1.002   9.990   5.522
22244SOL    HW268507   0.851   9.987   5.517
22245SOL     OW68508   7.463   1.009   1.061
22245SOL    HW168509   7.536   1.039   1.115
22245SOL    HW268510   7.502   0.991   0.976
22246SOL     OW68511  12.500   5.055  12.947
22246SOL    HW168512  12.591   5.042  12.974
22246SOL    HW268513  12.473   5.136  12.992
22247SOL     OW68514   3.232  14.545   8.303
22247SOL    HW168515   3.284  14.465   8.312
22247SOL    HW268516   3.268  14.589   8.226
22248SOL     OW68517   2.710   4.533   7.717
22248SOL    HW168518   2.643   4.584   7.763
22248SOL    HW268519   2.661   4.478   7.657
22249SOL     OW68520   6.310  10.960   3.557
22249SOL    HW168521   6.312  10.914   3.473
22249SOL    HW268522   6.375  10.914   3.611
22250SOL     OW68523   5.390   7.810   5.524
22250SOL    HW168524   5.410   7.898   5.493
22250SOL    HW268525   5.318   7.781   5.468
22251SOL     OW68526   4.593   4.319  12.902
22251SOL    HW168527   4.544   4.386  12.854
22251SOL    HW268528   4.547   4.237  12.881
22252SOL     OW68529  11.680   4.485   0.670
22252SOL    HW168530  11.614   4.534   0.620
22252SOL    HW268531  11.659   4.393   0.653
22253SOL     OW68532  10.952   6.265   9.699
22253SOL    HW168533  10.883   6.208   9.665
22253SOL    HW268534  11.010   6.207   9.748
22254SOL     OW68535  12.928  10.859   3.036
22254SOL    HW168536  12.929  10.836   2.943
22254SOL    HW268537  12.898  10.780   3.080
22255SOL     OW68538   1.135  14.518   8.462
22255SOL    HW168539   1.218  14.471   8.470
22255SOL    HW268540   1.079  14.459   8.412
22256SOL     OW68541   0.834   6.892  11.198
22256SOL    HW168542   0.775   6.964  11.176
22256SOL    HW268543   0.917   6.916  11.157
22257SOL     OW68544  11.901   6.388   0.067
22257SOL    HW168545  11.867   6.452   0.004
22257SOL    HW268546  11.979   6.431   0.104
22258SOL     OW68547   8.890   6.401   6.365
22258SOL    HW168548   8.879   6.495   6.356
22258SOL    HW268549   8.840   6.378   6.444
22259SOL     OW68550  13.493   9.583  10.464
22259SOL    HW168551  13.450   9.550  10.385
22259SOL    HW268552  13.565   9.636  10.432
22260SOL     OW68553   2.394   5.556   5.491
22260SOL    HW168554   2.314   5.509   5.511
22260SOL    HW268555   2.383   5.641   5.534
22261SOL     OW68556   9.934   1.168  12.092
22261SOL    HW168557   9.877   1.210  12.156
22261SOL    HW268558   9.939   1.077  12.120
22262SOL     OW68559   3.055   4.390   2.521
22262SOL    HW168560   3.068   4.363   2.612
22262SOL    HW268561   3.068   4.485   2.522
22263SOL     OW68562  12.746  11.041   2.915
22263SOL    HW168563  12.798  10.963   2.933
22263SOL    HW268564  12.796  11.089   2.849
22264SOL     OW68565  14.831  12.596   3.227
22264SOL    HW168566  14.752  12.610   3.279
22264SOL    HW268567   0.023  12.591   3.292
22265SOL     OW68568   3.320   7.409  12.489
22265SOL    HW168569   3.353   7.447  12.571
22265SOL    HW268570   3.369   7.453  12.420
22266SOL     OW68571  11.396   3.137  12.569
22266SOL    HW168572  11.356   3.070  12.625
22266SOL    HW268573  11.417   3.208  12.629
22267SOL     OW68574   7.725   8.385   1.614
22267SOL    HW168575   7.655   8.320   1.606
22267SOL    HW268576   7.697   8.457   1.557
22268SOL     OW68577   8.429   7.843   5.565
22268SOL    HW168578   8.432   7.865   5.658
22268SOL    HW268579   8.379   7.761   5.562
22269SOL     OW68580   2.078   6.567   3.810
22269SOL    HW168581   2.087   6.476   3.840
22269SOL    HW268582   2.045   6.559   3.720
22270SOL     OW68583  12.571   0.827   6.939
22270SOL    HW168584  12.644   0.833   6.878
22270SOL    HW268585  12.578   0.740   6.978
22271SOL     OW68586   2.395   4.768  11.447
22271SOL    HW168587   2.396   4.716  11.528
22271SOL    HW268588   2.303   4.793  11.436
22272SOL     OW68589   5.785  12.512   5.441
22272SOL    HW168590   5.811  12.440   5.498
22272SOL    HW268591   5.690  12.519   5.453
22273SOL     OW68592   9.094  13.885   5.940
22273SOL    HW168593   9.015  13.931   5.967
22273SOL    HW268594   9.075  13.792   5.958
22274SOL     OW68595   6.547  10.083   7.806
22274SOL    HW168596   6.529  10.016   7.740
22274SOL    HW268597   6.639  10.069   7.830
22275SOL     OW68598  14.729   7.607  13.984
22275SOL    HW168599  14.710   7.515  13.968
22275SOL    HW268600  14.813   7.607  14.031
22276SOL     OW68601   3.051   8.512  13.728
22276SOL    HW168602   3.094   8.533  13.644
22276SOL    HW268603   3.112   8.544  13.794
22277SOL     OW68604   5.795   3.998  10.959
22277SOL    HW168605   5.771   3.992  10.866
22277SOL    HW268606   5.713   3.981  11.005
22278SOL     OW68607  13.512   0.613  13.490
22278SOL    HW168608  13.547   0.571  13.569
22278SOL    HW268609  13.580   0.674  13.463
22279SOL     OW68610   9.133   2.354  11.010
22279SOL    HW168611   9.199   2.364  10.941
22279SOL    HW268612   9.087   2.274  10.989
22280SOL     OW68613   2.043   3.194   6.748
22280SOL    HW168614   2.081   3.278   6.721
22280SOL    HW268615   2.112   3.130   6.730
22281SOL     OW68616   2.332   7.639  14.116
22281SOL    HW168617   2.409   7.660  14.169
22281SOL    HW268618   2.327   7.544  14.116
22282SOL     OW68619   2.846   0.883   3.568
22282SOL    HW168620   2.844   0.948   3.497
22282SOL    HW268621   2.818   0.801   3.527
22283SOL     OW68622   6.772  13.790  13.080
22283SOL    HW168623   6.749  13.712  13.131
22283SOL    HW268624   6.844  13.829  13.128
22284SOL     OW68625   9.796   2.285   8.891
22284SOL    HW168626   9.818   2.203   8.847
22284SOL    HW268627   9.816   2.270   8.983
22285SOL     OW68628   3.751  13.731   1.553
22285SOL    HW168629   3.759  13.763   1.643
22285SOL    HW268630   3.841  13.716   1.525
22286SOL     OW68631   7.365   1.242   2.220
22286SOL    HW168632   7.366   1.160   2.270
22286SOL    HW268633   7.274   1.271   2.225
22287SOL     OW68634  12.478   2.288   5.521
22287SOL    HW168635  12.479   2.231   5.597
22287SOL    HW268636  12.569   2.314   5.509
22288SOL     OW68637  13.918   7.230   6.332
22288SOL    HW168638  13.885   7.318   6.315
22288SOL    HW268639  14.001   7.226   6.285
22289SOL     OW68640  11.249   0.212  13.827
22289SOL    HW168641  11.285   0.286  13.875
22289SOL    HW268642  11.163   0.242  13.797
22290SOL     OW68643   0.119   7.853   2.258
22290SOL    HW168644   0.181   7.780   2.261
22290SOL    HW268645   0.086   7.854   2.168
22291SOL     OW68646  11.042  13.610   6.106
22291SOL    HW168647  11.031  13.547   6.177
22291SOL    HW268648  10.955  13.647   6.093
22292SOL     OW68649   0.523   1.905  12.604
22292SOL    HW168650   0.529   1.811  12.621
22292SOL    HW268651   0.470   1.939  12.676
22293SOL     OW68652  11.656   1.149   1.322
22293SOL    HW168653  11.595   1.114   1.387
22293SOL    HW268654  11.693   1.071   1.280
22294SOL     OW68655   8.632  11.503   1.351
22294SOL    HW168656   8.618  11.585   1.398
22294SOL    HW268657   8.571  11.508   1.277
22295SOL     OW68658   0.316   3.552  10.003
22295SOL    HW168659   0.241   3.578  10.057
22295SOL    HW268660   0.323   3.622   9.938
22296SOL     OW68661  12.026   2.640   1.028
22296SOL    HW168662  11.939   2.601   1.033
22296SOL    HW268663  12.082   2.571   0.992
22297SOL     OW68664   2.794   6.015   3.467
22297SOL    HW168665   2.760   6.105   3.472
22297SOL    HW268666   2.807   5.989   3.558
22298SOL     OW68667  11.834   0.554   5.326
22298SOL    HW168668  11.817   0.528   5.235
22298SOL    HW268669  11.747   0.571   5.362
22299SOL     OW68670   4.011   5.965   5.219
22299SOL    HW168671   4.073   6.005   5.279
22299SOL    HW268672   4.056   5.888   5.184
22300SOL     OW68673   2.252   0.827  11.342
22300SOL    HW168674   2.319   0.759  11.336
22300SOL    HW268675   2.291   0.902  11.298
22301SOL     OW68676   9.858   5.636   4.514
22301SOL    HW168677   9.766   5.624   4.539
22301SOL    HW268678   9.884   5.552   4.476
22302SOL     OW68679   0.433   0.298  13.744
22302SOL    HW168680   0.452   0.212  13.781
22302SOL    HW268681   0.517   0.328  13.708
22303SOL     OW68682   5.717   5.491   8.897
22303SOL    HW168683   5.675   5.410   8.868
22303SOL    HW268684   5.745   5.534   8.817
22304SOL     OW68685   2.092   3.812   7.764
22304SOL    HW168686   2.098   3.793   7.857
22304SOL    HW268687   2.176   3.850   7.741
22305SOL     OW68688   9.556  11.459   3.524
22305SOL    HW168689   9.583  11.368   3.507
22305SOL    HW268690   9.575  11.505   3.442
22306SOL     OW68691   2.344   0.756   3.834
22306SOL    HW168692   2.343   0.671   3.879
22306SOL    HW268693   2.301   0.816   3.895
22307SOL     OW68694   5.318   0.487  10.346
22307SOL    HW168695   5.271   0.570  10.341
22307SOL    HW268696   5.370   0.484  10.266
22308SOL     OW68697   4.077  10.598   8.543
22308SOL    HW168698   4.118  10.650   8.612
22308SOL    HW268699   4.150  10.553   8.501
22309SOL     OW68700   1.104   8.937   8.374
22309SOL    HW168701   1.066   8.898   8.295
22309SOL    HW268702   1.113   9.030   8.353
22310SOL     OW68703   0.042   0.755   3.134
22310SOL    HW168704   0.082   0.842   3.122
22310SOL    HW268705   0.108   0.706   3.183
22311SOL     OW68706  13.263   8.652  14.738
22311SOL    HW168707  13.237   8.649  14.830
22311SOL    HW268708  13.203   8.715  14.698
22312SOL     OW68709  12.614   1.474  12.274
22312SOL    HW168710  12.693   1.475  12.221
22312SOL    HW268711  12.547   1.513  12.218
22313SOL     OW68712   8.255   6.734   4.731
22313SOL    HW168713   8.203   6.807   4.698
22313SOL    HW268714   8.337   6.773   4.761
22314SOL     OW68715   2.113   1.382   1.098
22314SOL    HW168716   2.066   1.349   1.175
22314SOL    HW268717   2.070   1.465   1.077
22315SOL     OW68718  12.238   6.375   8.416
22315SOL    HW168719  12.329   6.358   8.441
22315SOL    HW268720  12.212   6.297   8.368
22316SOL     OW68721  11.971  10.471   6.802
22316SOL    HW168722  11.960  10.456   6.896
22316SOL    HW268723  12.050  10.525   6.795
22317SOL     OW68724  12.813   4.814   2.307
22317SOL    HW168725  12.903   4.821   2.338
22317SOL    HW268726  12.799   4.894   2.255
22318SOL     OW68727  13.703   4.879  11.749
22318SOL    HW168728  13.673   4.796  11.711
22318SOL    HW268729  13.629   4.910  11.801
22319SOL     OW68730  13.130   2.075   0.258
22319SOL    HW168731  13.170   2.162   0.260
22319SOL    HW268732  13.037   2.090   0.274
22320SOL     OW68733   2.828  10.922   7.430
22320SOL    HW168734   2.809  10.998   7.376
22320SOL    HW268735   2.878  10.957   7.504
22321SOL     OW68736  12.756   4.898  10.736
22321SOL    HW168737  12.765   4.806  10.762
22321SOL    HW268738  12.669   4.903  10.697
22322SOL     OW68739   8.172   7.204   1.873
22322SOL    HW168740   8.117   7.276   1.903
22322SOL    HW268741   8.111   7.140   1.836
22323SOL     OW68742  14.847   2.328   8.272
22323SOL    HW168743  14.845   2.417   8.305
22323SOL    HW268744   0.044   2.326   8.212
22324SOL     OW68745   8.720   9.179  11.953
22324SOL    HW168746   8.731   9.088  11.980
22324SOL    HW268747   8.627   9.187  11.932
22325SOL     OW68748   6.812  10.411   4.321
22325SOL    HW168749   6.897  10.404   4.278
22325SOL    HW268750   6.832  10.445   4.409
22326SOL     OW68751   3.998   6.459  13.839
22326SOL    HW168752   4.036   6.422  13.759
22326SOL    HW268753   3.918   6.409  13.852
22327SOL     OW68754   0.370  12.485  11.969
22327SOL    HW168755   0.279  12.494  11.943
22327SOL    HW268756   0.392  12.394  11.949
22328SOL     OW68757  13.729  10.872  12.216
22328SOL    HW168758  13.780  10.852  12.138
22328SOL    HW268759  13.788  10.854  12.289
22329SOL     OW68760   4.725   2.377  14.808
22329SOL    HW168761   4.702   2.315  14.877
22329SOL    HW268762   4.808   2.416  14.837
22330SOL     OW68763   3.603   2.741   6.488
22330SOL    HW168764   3.549   2.662   6.487
22330SOL    HW268765   3.682   2.716   6.535
22331SOL     OW68766  13.139   3.233   6.687
22331SOL    HW168767  13.178   3.146   6.680
22331SOL    HW268768  13.133   3.264   6.597
22332SOL     OW68769   9.411   1.177   3.980
22332SOL    HW168770   9.497   1.161   4.019
22332SOL    HW268771   9.364   1.094   3.991
22333SOL     OW68772   3.805   2.941   6.822
22333SOL    HW168773   3.823   2.938   6.916
22333SOL    HW268774   3.710   2.932   6.815
22334SOL     OW68775   3.373   2.757  12.425
22334SOL    HW168776   3.417   2.741  12.341
22334SOL    HW268777   3.440   2.742  12.491
22335SOL     OW68778   8.711  13.861   7.548
22335SOL    HW168779   8.724  13.919   7.623
22335SOL    HW268780   8.652  13.910   7.490
22336SOL     OW68781   0.377   6.450   5.718
22336SOL    HW168782   0.447   6.424   5.657
22336SOL    HW268783   0.332   6.369   5.739
22337SOL     OW68784   7.604   8.119  10.518
22337SOL    HW168785   7.654   8.080  10.590
22337SOL    HW268786   7.640   8.207  10.508
22338SOL     OW68787   5.976   7.191   5.665
22338SOL    HW168788   5.972   7.192   5.569
22338SOL    HW268789   5.886   7.207   5.693
22339SOL     OW68790   7.469  12.849   5.921
22339SOL    HW168791   7.471  12.900   6.002
22339SOL    HW268792   7.407  12.778   5.939
22340SOL     OW68793   4.831  10.123   8.694
22340SOL    HW168794   4.799  10.196   8.642
22340SOL    HW268795   4.926  10.123   8.679
22341SOL     OW68796   1.375   3.384   3.148
22341SOL    HW168797   1.465   3.411   3.170
22341SOL    HW268798   1.343   3.453   3.090
22342SOL     OW68799   7.771   2.608   6.645
22342SOL    HW168800   7.776   2.637   6.736
22342SOL    HW268801   7.838   2.540   6.639
22343SOL     OW68802   3.790  13.787   9.337
22343SOL    HW168803   3.735  13.831   9.272
22343SOL    HW268804   3.727  13.745   9.396
22344SOL     OW68805   7.055   7.587   1.934
22344SOL    HW168806   7.142   7.601   1.971
22344SOL    HW268807   6.995   7.597   2.008
22345SOL     OW68808   6.977   9.487  12.045
22345SOL    HW168809   6.952   9.403  12.007
22345SOL    HW268810   7.030   9.464  12.122
22346SOL     OW68811   7.932  13.782   5.449
22346SOL    HW168812   7.976  13.859   5.484
22346SOL    HW268813   8.003  13.720   5.431
22347SOL     OW68814  13.147   7.794   1.415
22347SOL    HW168815  13.192   7.739   1.479
22347SOL    HW268816  13.136   7.878   1.460
22348SOL     OW68817   1.009   3.775   8.993
22348SOL    HW168818   0.955   3.700   9.020
22348SOL    HW268819   1.065   3.792   9.069
22349SOL     OW68820   8.161   7.148   8.666
22349SOL    HW168821   8.231   7.173   8.727
22349SOL    HW268822   8.149   7.224   8.610
22350SOL     OW68823   9.117   0.327   9.488
22350SOL    HW168824   9.035   0.375   9.496
22350SOL    HW268825   9.149   0.348   9.401
22351SOL     OW68826   5.112  12.930  13.940
22351SOL    HW168827   5.106  12.926  13.844
22351SOL    HW268828   5.119  12.839  13.967
22352SOL     OW68829   0.928   4.394   4.476
22352SOL    HW168830   0.900   4.385   4.385
22352SOL    HW268831   0.909   4.485   4.498
22353SOL     OW68832  11.768   2.355   6.454
22353SOL    HW168833  11.760   2.389   6.365
22353SOL    HW268834  11.677   2.343   6.483
22354SOL     OW68835   8.783   7.765  12.806
22354SOL    HW168836   8.840   7.721  12.868
22354SOL    HW268837   8.703   7.783  12.855
22355SOL     OW68838   3.973  10.180   4.931
22355SOL    HW168839   3.974  10.222   4.845
22355SOL    HW268840   3.993  10.089   4.914
22356SOL     OW68841   0.265   8.655  14.424
22356SOL    HW168842   0.253   8.724  14.490
22356SOL    HW268843   0.265   8.574  14.475
22357SOL     OW68844  14.297   1.865   3.508
22357SOL    HW168845  14.311   1.800   3.438
22357SOL    HW268846  14.368   1.849   3.570
22358SOL     OW68847   7.978   2.468   0.527
22358SOL    HW168848   7.965   2.529   0.600
22358SOL    HW268849   8.068   2.438   0.537
22359SOL     OW68850   9.990   6.542  12.166
22359SOL    HW168851  10.053   6.576  12.229
22359SOL    HW268852   9.970   6.454  12.197
22360SOL     OW68853   9.232   6.800   1.732
22360SOL    HW168854   9.237   6.799   1.828
22360SOL    HW268855   9.141   6.824   1.713
22361SOL     OW68856  12.380   2.631   1.183
22361SOL    HW168857  12.397   2.584   1.264
22361SOL    HW268858  12.379   2.563   1.116
22362SOL     OW68859   7.956   4.081   1.565
22362SOL    HW168860   7.905   4.004   1.593
22362SOL    HW268861   7.962   4.136   1.643
22363SOL     OW68862  14.157  12.282  13.715
22363SOL    HW168863  14.211  12.314  13.787
22363SOL    HW268864  14.104  12.358  13.689
22364SOL     OW68865   9.672   7.213   2.913
22364SOL    HW168866   9.598   7.194   2.856
22364SOL    HW268867   9.710   7.128   2.934
22365SOL     OW68868   6.951   4.742  13.913
22365SOL    HW168869   6.932   4.770  13.824
22365SOL    HW268870   6.866   4.743  13.957
22366SOL     OW68871   0.040  11.778   4.382
22366SOL    HW168872   0.029  11.847   4.448
22366SOL    HW268873  14.831  11.767   4.344
22367SOL     OW68874  13.978   4.006   6.429
22367SOL    HW168875  14.019   3.978   6.348
22367SOL    HW268876  14.021   4.089   6.450
22368SOL     OW68877  10.406  14.621   0.059
22368SOL    HW168878  10.329  14.677   0.046
22368SOL    HW268879  10.393  14.582   0.146
22369SOL     OW68880  14.706   7.603   3.300
22369SOL    HW168881  14.689   7.587   3.207
22369SOL    HW268882  14.666   7.688   3.318
22370SOL     OW68883   6.145   4.449  11.412
22370SOL    HW168884   6.186   4.383  11.357
22370SOL    HW268885   6.062   4.469  11.369
22371SOL     OW68886   1.766   8.756  12.219
22371SOL    HW168887   1.724   8.838  12.194
22371SOL    HW268888   1.701   8.710  12.271
22372SOL     OW68889  13.448   5.740   7.444
22372SOL    HW168890  13.360   5.762   7.475
22372SOL    HW268891  13.499   5.727   7.524
22373SOL     OW68892   6.853   2.319  11.632
22373SOL    HW168893   6.899   2.402  11.621
22373SOL    HW268894   6.899   2.257  11.576
22374SOL     OW68895   5.922   9.272  10.860
22374SOL    HW168896   5.937   9.367  10.867
22374SOL    HW268897   5.828   9.262  10.878
22375SOL     OW68898   6.710   0.014  12.509
22375SOL    HW168899   6.763   0.030  12.431
22375SOL    HW268900   6.773   0.015  12.581
22376SOL     OW68901   3.196   7.571  11.920
22376SOL    HW168902   3.170   7.638  11.984
22376SOL    HW268903   3.261   7.615  11.865
22377SOL     OW68904  12.534   5.220  10.951
22377SOL    HW168905  12.506   5.203  10.861
22377SOL    HW268906  12.457   5.200  11.004
22378SOL     OW68907   1.011   0.054   5.214
22378SOL    HW168908   1.003   0.130   5.157
22378SOL    HW268909   1.101   0.058   5.247
22379SOL     OW68910   9.254  14.639   8.778
22379SOL    HW168911   9.294  14.560   8.742
22379SOL    HW268912   9.208  14.609   8.856
22380SOL     OW68913  12.994   1.512   9.210
22380SOL    HW168914  13.087   1.507   9.232
22380SOL    HW268915  12.949   1.504   9.294
22381SOL     OW68916  13.657  13.536   3.817
22381SOL    HW168917  13.577  13.503   3.776
22381SOL    HW268918  13.723  13.530   3.747
22382SOL     OW68919   4.736   3.285  12.182
22382SOL    HW168920   4.670   3.335  12.134
22382SOL    HW268921   4.809   3.346  12.192
22383SOL     OW68922  11.331  14.509  11.733
22383SOL    HW168923  11.386  14.485  11.807
22383SOL    HW268924  11.382  14.483  11.656
22384SOL     OW68925  12.971   2.607   1.441
22384SOL    HW168926  13.040   2.669   1.462
22384SOL    HW268927  12.890   2.652   1.466
22385SOL     OW68928   7.277   1.883   8.748
22385SOL    HW168929   7.313   1.820   8.686
22385SOL    HW268930   7.346   1.949   8.757
22386SOL     OW68931   4.075   3.175   3.920
22386SOL    HW168932   4.006   3.125   3.876
22386SOL    HW268933   4.039   3.195   4.006
22387SOL     OW68934   4.496  10.447   1.602
22387SOL    HW168935   4.475  10.531   1.560
22387SOL    HW268936   4.532  10.472   1.687
22388SOL     OW68937   9.106  10.205  11.498
22388SOL    HW168938   9.129  10.293  11.529
22388SOL    HW268939   9.036  10.219  11.435
22389SOL     OW68940   0.525  13.537   8.148
22389SOL    HW168941   0.555  13.527   8.058
22389SOL    HW268942   0.557  13.623   8.174
22390SOL     OW68943   8.699   6.920   2.923
22390SOL    HW168944   8.689   6.977   2.999
22390SOL    HW268945   8.621   6.936   2.870
22391SOL     OW68946   7.745   1.869  12.591
22391SOL    HW168947   7.722   1.944  12.646
22391SOL    HW268948   7.665   1.816  12.588
22392SOL     OW68949   7.517  13.460  14.284
22392SOL    HW168950   7.604  13.469  14.246
22392SOL    HW268951   7.463  13.523  14.235
22393SOL     OW68952   9.410   3.369   8.933
22393SOL    HW168953   9.455   3.304   8.878
22393SOL    HW268954   9.481   3.419   8.973
22394SOL     OW68955   7.270   5.720   8.965
22394SOL    HW168956   7.229   5.668   9.034
22394SOL    HW268957   7.339   5.770   9.009
22395SOL     OW68958  11.553  10.369   2.530
22395SOL    HW168959  11.520  10.367   2.620
22395SOL    HW268960  11.559  10.462   2.509
22396SOL     OW68961  13.552   1.296   3.263
22396SOL    HW168962  13.621   1.360   3.245
22396SOL    HW268963  13.571   1.265   3.351
22397SOL     OW68964   7.240   1.816  12.731
22397SOL    HW168965   7.166   1.756  12.721
22397SOL    HW268966   7.244   1.834  12.825
22398SOL     OW68967   1.935   0.591  12.507
22398SOL    HW168968   1.909   0.555  12.593
22398SOL    HW268969   1.896   0.679  12.506
22399SOL     OW68970   1.296   9.283   5.661
22399SOL    HW168971   1.211   9.245   5.680
22399SOL    HW268972   1.354   9.247   5.729
22400SOL     OW68973   7.818   4.002  11.300
22400SOL    HW168974   7.817   3.968  11.390
22400SOL    HW268975   7.762   4.079  11.303
22401SOL     OW68976   7.705  10.128   7.284
22401SOL    HW168977   7.680  10.068   7.214
22401SOL    HW268978   7.768  10.078   7.336
22402SOL     OW68979   1.621   5.929   0.539
22402SOL    HW168980   1.710   5.964   0.534
22402SOL    HW268981   1.572   5.980   0.475
22403SOL     OW68982   2.851  11.673   8.714
22403SOL    HW168983   2.823  11.731   8.784
22403SOL    HW268984   2.790  11.598   8.719
22404SOL     OW68985   0.547  10.545  11.574
22404SOL    HW168986   0.491  10.468  11.580
22404SOL    HW268987   0.555  10.576  11.664
22405SOL     OW68988   4.662   9.964   0.676
22405SOL    HW168989   4.745   9.999   0.643
22405SOL    HW268990   4.666   9.871   0.655
22406SOL     OW68991  10.224   5.286   9.370
22406SOL    HW168992  10.179   5.236   9.301
22406SOL    HW268993  10.172   5.366   9.379
22407SOL     OW68994   3.818   7.115   5.994
22407SOL    HW168995   3.770   7.070   5.925
22407SOL    HW268996   3.858   7.190   5.950
22408SOL     OW68997   9.521   9.629  13.886
22408SOL    HW168998   9.563   9.619  13.972
22408SOL    HW268999   9.457   9.699  13.899
22409SOL     OW69000  10.859  14.044   7.589
22409SOL    HW169001  10.932  13.995   7.627
22409SOL    HW269002  10.862  14.023   7.496
22410SOL     OW69003   6.261  11.699  14.241
22410SOL    HW169004   6.171  11.669  14.253
22410SOL    HW269005   6.315  11.625  14.268
22411SOL     OW69006  13.309   6.307   7.923
22411SOL    HW169007  13.268   6.349   7.847
22411SOL    HW269008  13.293   6.213   7.909
22412SOL     OW69009   1.999   3.620  12.593
22412SOL    HW169010   2.042   3.544  12.634
22412SOL    HW269011   2.011   3.691  12.656
22413SOL     OW69012  10.747  11.385   1.813
22413SOL    HW169013  10.674  11.409   1.756
22413SOL    HW269014  10.809  11.457   1.805
22414SOL     OW69015   5.272   4.289   8.643
22414SOL    HW169016   5.253   4.290   8.550
22414SOL    HW269017   5.200   4.338   8.683
22415SOL     OW69018   4.757  10.817   3.871
22415SOL    HW169019   4.790  10.765   3.944
22415SOL    HW269020   4.784  10.907   3.892
22416SOL     OW69021   8.759   9.660   7.567
22416SOL    HW169022   8.681   9.605   7.578
22416SOL    HW269023   8.812   9.613   7.503
22417SOL     OW69024   9.358   0.622   4.163
22417SOL    HW169025   9.299   0.587   4.096
22417SOL    HW269026   9.443   0.584   4.142
22418SOL     OW69027   6.891   3.157   8.880
22418SOL    HW169028   6.834   3.118   8.814
22418SOL    HW269029   6.941   3.084   8.915
22419SOL     OW69030  13.896  13.534   5.518
22419SOL    HW169031  13.894  13.461   5.579
22419SOL    HW269032  13.955  13.506   5.448
22420SOL     OW69033   1.226  10.552   7.181
22420SOL    HW169034   1.202  10.628   7.234
22420SOL    HW269035   1.288  10.504   7.237
22421SOL     OW69036   3.407   7.046  10.137
22421SOL    HW169037   3.355   7.119  10.169
22421SOL    HW269038   3.469   7.086  10.076
22422SOL     OW69039   8.366  14.458   4.911
22422SOL    HW169040   8.392  14.423   4.825
22422SOL    HW269041   8.426  14.416   4.973
22423SOL     OW69042   4.273  13.524   9.362
22423SOL    HW169043   4.229  13.449   9.322
22423SOL    HW269044   4.204  13.568   9.412
22424SOL     OW69045  12.735  11.094   2.017
22424SOL    HW169046  12.666  11.122   1.957
22424SOL    HW269047  12.702  11.116   2.104
22425SOL     OW69048  11.201   8.923   0.383
22425SOL    HW169049  11.195   8.889   0.472
22425SOL    HW269050  11.132   8.989   0.377
22426SOL     OW69051   5.926   9.363   0.201
22426SOL    HW169052   5.941   9.438   0.259
22426SOL    HW269053   5.962   9.288   0.249
22427SOL     OW69054   3.564   2.331  13.664
22427SOL    HW169055   3.631   2.398  13.648
22427SOL    HW269056   3.598   2.280  13.737
22428SOL     OW69057  13.645   0.740   0.796
22428SOL    HW169058  13.736   0.726   0.820
22428SOL    HW269059  13.632   0.686   0.718
22429SOL     OW69060   5.387   9.841   8.279
22429SOL    HW169061   5.361   9.798   8.361
22429SOL    HW269062   5.483   9.845   8.283
22430SOL     OW69063   8.798   4.347   8.374
22430SOL    HW169064   8.742   4.331   8.450
22430SOL    HW269065   8.749   4.311   8.300
22431SOL     OW69066   2.410  14.250  14.742
22431SOL    HW169067   2.447  14.330  14.779
22431SOL    HW269068   2.472  14.181  14.766
22432SOL     OW69069   0.479   7.117   8.267
22432SOL    HW169070   0.487   7.064   8.187
22432SOL    HW269071   0.392   7.095   8.301
22433SOL     OW69072   2.991   6.135   2.710
22433SOL    HW169073   2.989   6.042   2.733
22433SOL    HW269074   3.055   6.172   2.771
22434SOL     OW69075   7.061   0.411  11.820
22434SOL    HW169076   7.150   0.434  11.793
22434SOL    HW269077   7.065   0.412  11.916
22435SOL     OW69078  11.323   1.888  13.349
22435SOL    HW169079  11.371   1.968  13.329
22435SOL    HW269080  11.368   1.852  13.426
22436SOL     OW69081   0.699   4.138   5.974
22436SOL    HW169082   0.678   4.087   6.052
22436SOL    HW269083   0.621   4.193   5.960
22437SOL     OW69084   3.209   0.190  10.591
22437SOL    HW169085   3.295   0.211  10.627
22437SOL    HW269086   3.177   0.119  10.646
22438SOL     OW69087   9.559   4.463   6.602
22438SOL    HW169088   9.524   4.398   6.541
22438SOL    HW269089   9.620   4.414   6.656
22439SOL     OW69090   0.981  12.114   6.645
22439SOL    HW169091   0.971  12.177   6.574
22439SOL    HW269092   1.063  12.138   6.687
22440SOL     OW69093   5.067  13.203  12.060
22440SOL    HW169094   4.992  13.254  12.028
22440SOL    HW269095   5.141  13.235  12.009
22441SOL     OW69096   1.998   4.973   3.834
22441SOL    HW169097   1.955   4.926   3.763
22441SOL    HW269098   1.934   5.038   3.863
22442SOL     OW69099   7.093   6.146  13.369
22442SOL    HW169100   7.030   6.095  13.421
22442SOL    HW269101   7.166   6.086  13.355
22443SOL     OW69102   3.987   1.753   2.100
22443SOL    HW169103   4.010   1.772   2.191
22443SOL    HW269104   4.065   1.712   2.063
22444SOL     OW69105  14.407   7.780   6.019
22444SOL    HW169106  14.312   7.778   6.010
22444SOL    HW269107  14.434   7.859   5.972
22445SOL     OW69108  10.667  10.514   5.877
22445SOL    HW169109  10.585  10.465   5.879
22445SOL    HW269110  10.731  10.453   5.839
22446SOL     OW69111   3.487   1.768  12.715
22446SOL    HW169112   3.496   1.797  12.624
22446SOL    HW269113   3.437   1.838  12.757
22447SOL     OW69114   9.412   0.776   4.897
22447SOL    HW169115   9.408   0.699   4.840
22447SOL    HW269116   9.335   0.767   4.954
22448SOL     OW69117  13.387   0.494   6.714
22448SOL    HW169118  13.454   0.434   6.682
22448SOL    HW269119  13.305   0.445   6.708
22449SOL     OW69120   8.899   3.328   3.735
22449SOL    HW169121   8.917   3.306   3.644
22449SOL    HW269122   8.923   3.421   3.743
22450SOL     OW69123   9.481  13.207  13.393
22450SOL    HW169124   9.538  13.130  13.389
22450SOL    HW269125   9.443  13.204  13.481
22451SOL     OW69126   4.671   2.677   0.047
22451SOL    HW169127   4.681   2.697  14.832
22451SOL    HW269128   4.577   2.678   0.062
22452SOL     OW69129   4.741   3.115   7.979
22452SOL    HW169130   4.759   3.034   8.027
22452SOL    HW269131   4.725   3.087   7.889
22453SOL     OW69132   9.091   1.390   7.568
22453SOL    HW169133   9.022   1.390   7.634
22453SOL    HW269134   9.066   1.459   7.506
22454SOL     OW69135   5.879   2.610   5.101
22454SOL    HW169136   5.800   2.639   5.057
22454SOL    HW269137   5.916   2.543   5.043
22455SOL     OW69138  10.504  13.277   7.566
22455SOL    HW169139  10.515  13.333   7.489
22455SOL    HW269140  10.454  13.331   7.628
22456SOL     OW69141  13.125   4.185  10.314
22456SOL    HW169142  13.203   4.235  10.291
22456SOL    HW269143  13.057   4.218  10.254
22457SOL     OW69144  14.279   4.857   9.416
22457SOL    HW169145  14.262   4.806   9.495
22457SOL    HW269146  14.352   4.915   9.441
22458SOL     OW69147   0.184  14.070   4.746
22458SOL    HW169148   0.112  14.018   4.781
22458SOL    HW269149   0.156  14.161   4.757
22459SOL     OW69150  11.216  11.481   2.380
22459SOL    HW169151  11.282  11.447   2.441
22459SOL    HW269152  11.200  11.570   2.411
22460SOL     OW69153   9.357  10.497   5.337
22460SOL    HW169154   9.433  10.511   5.392
22460SOL    HW269155   9.310  10.424   5.378
22461SOL     OW69156   1.326   1.459   0.086
22461SOL    HW169157   1.260   1.474   0.019
22461SOL    HW269158   1.373   1.543   0.093
22462SOL     OW69159   2.531  10.200  12.378
22462SOL    HW169160   2.509  10.252  12.301
22462SOL    HW269161   2.490  10.245  12.451
22463SOL     OW69162   8.075  13.516   3.694
22463SOL    HW169163   8.147  13.545   3.638
22463SOL    HW269164   8.003  13.500   3.633
22464SOL     OW69165   3.071  14.137   1.022
22464SOL    HW169166   3.020  14.178   1.092
22464SOL    HW269167   3.016  14.145   0.945
22465SOL     OW69168   8.562   5.788  13.178
22465SOL    HW169169   8.584   5.759  13.090
22465SOL    HW269170   8.647   5.809  13.218
22466SOL     OW69171  11.424   3.705   0.705
22466SOL    HW169172  11.349   3.713   0.646
22466SOL    HW269173  11.472   3.630   0.670
22467SOL     OW69174   9.772   7.121  11.001
22467SOL    HW169175   9.750   7.105  11.093
22467SOL    HW269176   9.784   7.034  10.964
22468SOL     OW69177   2.933  11.271   0.871
22468SOL    HW169178   3.005  11.287   0.811
22468SOL    HW269179   2.860  11.323   0.837
22469SOL     OW69180   6.114   1.473  12.083
22469SOL    HW169181   6.023   1.459  12.110
22469SOL    HW269182   6.144   1.388  12.052
22470SOL     OW69183   3.258   4.599   7.349
22470SOL    HW169184   3.166   4.604   7.321
22470SOL    HW269185   3.277   4.685   7.386
22471SOL     OW69186  10.837   3.368   8.020
22471SOL    HW169187  10.801   3.452   7.991
22471SOL    HW269188  10.856   3.382   8.113
22472SOL     OW69189   7.726  14.723  12.752
22472SOL    HW169190   7.648  14.737  12.806
22472SOL    HW269191   7.761  14.811  12.738
22473SOL     OW69192   8.484  10.641   5.293
22473SOL    HW169193   8.552  10.641   5.226
22473SOL    HW269194   8.528  10.611   5.373
22474SOL     OW69195  14.758   7.387  12.830
22474SOL    HW169196  14.744   7.450  12.759
22474SOL    HW269197  14.810   7.435  12.895
22475SOL     OW69198   7.388   2.122   0.181
22475SOL    HW169199   7.342   2.195   0.139
22475SOL    HW269200   7.322   2.053   0.188
22476SOL     OW69201   2.174   2.331   5.566
22476SOL    HW169202   2.238   2.394   5.599
22476SOL    HW269203   2.220   2.247   5.569
22477SOL     OW69204   7.151   6.364  14.289
22477SOL    HW169205   7.068   6.368  14.242
22477SOL    HW269206   7.147   6.436  14.352
22478SOL     OW69207  11.997   0.829   1.436
22478SOL    HW169208  12.033   0.775   1.506
22478SOL    HW269209  12.018   0.919   1.460
22479SOL     OW69210  11.636   7.529  10.194
22479SOL    HW169211  11.630   7.493  10.105
22479SOL    HW269212  11.607   7.620  10.185
22480SOL     OW69213   1.308   8.615  10.200
22480SOL    HW169214   1.216   8.591  10.192
22480SOL    HW269215   1.316   8.649  10.289
22481SOL     OW69216   2.835   2.844  11.088
22481SOL    HW169217   2.826   2.770  11.027
22481SOL    HW269218   2.862   2.804  11.170
22482SOL     OW69219   3.471  14.396   3.775
22482SOL    HW169220   3.564  14.386   3.754
22482SOL    HW269221   3.428  14.402   3.690
22483SOL     OW69222   8.846   7.447   3.629
22483SOL    HW169223   8.869   7.536   3.654
22483SOL    HW269224   8.770   7.426   3.683
22484SOL     OW69225  12.649  10.687  14.510
22484SOL    HW169226  12.689  10.601  14.499
22484SOL    HW269227  12.709  10.734  14.568
22485SOL     OW69228  12.063   1.955   9.529
22485SOL    HW169229  11.968   1.950   9.537
22485SOL    HW269230  12.079   1.987   9.440
22486SOL     OW69231   2.723   2.911   5.329
22486SOL    HW169232   2.642   2.949   5.365
22486SOL    HW269233   2.707   2.904   5.235
22487SOL     OW69234   6.882   3.771  11.608
22487SOL    HW169235   6.886   3.863  11.635
22487SOL    HW269236   6.942   3.765  11.534
22488SOL     OW69237   3.827   4.735   2.279
22488SOL    HW169238   3.869   4.720   2.363
22488SOL    HW269239   3.847   4.658   2.226
22489SOL     OW69240   0.729  13.197  10.631
22489SOL    HW169241   0.819  13.222  10.612
22489SOL    HW269242   0.730  13.173  10.724
22490SOL     OW69243  11.570   2.342   7.810
22490SOL    HW169244  11.504   2.384   7.755
22490SOL    HW269245  11.555   2.248   7.799
22491SOL     OW69246  10.014   1.986   2.335
22491SOL    HW169247   9.959   1.908   2.334
22491SOL    HW269248  10.099   1.956   2.302
22492SOL     OW69249   9.940   7.108   3.361
22492SOL    HW169250  10.007   7.043   3.382
22492SOL    HW269251   9.958   7.182   3.419
22493SOL     OW69252  14.164   5.775  11.834
22493SOL    HW169253  14.194   5.862  11.807
22493SOL    HW269254  14.229   5.746  11.897
22494SOL     OW69255   2.959   7.001   8.697
22494SOL    HW169256   2.955   7.072   8.634
22494SOL    HW269257   2.917   7.036   8.776
22495SOL     OW69258   6.861  12.180   1.667
22495SOL    HW169259   6.792  12.119   1.640
22495SOL    HW269260   6.848  12.190   1.761
22496SOL     OW69261  11.866   1.316  10.108
22496SOL    HW169262  11.957   1.346  10.100
22496SOL    HW269263  11.824   1.342  10.026
22497SOL     OW69264   6.419  10.807  10.149
22497SOL    HW169265   6.331  10.784  10.179
22497SOL    HW269266   6.410  10.818  10.054
22498SOL     OW69267   9.388  12.357   2.190
22498SOL    HW169268   9.358  12.301   2.261
22498SOL    HW269269   9.357  12.314   2.110
22499SOL     OW69270  10.089   9.274   7.126
22499SOL    HW169271  10.013   9.236   7.083
22499SOL    HW269272  10.124   9.336   7.061
22500SOL     OW69273  10.678   9.679   8.865
22500SOL    HW169274  10.681   9.698   8.771
22500SOL    HW269275  10.652   9.587   8.870
22501SOL     OW69276   1.221   9.869  13.514
22501SOL    HW169277   1.208   9.918  13.595
22501SOL    HW269278   1.314   9.878  13.495
22502SOL     OW69279   4.459   5.275   8.730
22502SOL    HW169280   4.366   5.252   8.721
22502SOL    HW269281   4.505   5.193   8.716
22503SOL     OW69282   9.896  10.281  14.597
22503SOL    HW169283   9.822  10.256  14.542
22503SOL    HW269284   9.972  10.243  14.553
22504SOL     OW69285   1.845   6.484   4.620
22504SOL    HW169286   1.906   6.528   4.679
22504SOL    HW269287   1.896   6.410   4.585
22505SOL     OW69288  13.431   3.784  10.097
22505SOL    HW169289  13.376   3.712  10.065
22505SOL    HW269290  13.371   3.858  10.107
22506SOL     OW69291  12.055   2.527   8.479
22506SOL    HW169292  12.102   2.448   8.504
22506SOL    HW269293  11.983   2.496   8.423
22507SOL     OW69294  10.303   2.959   1.181
22507SOL    HW169295  10.288   2.886   1.240
22507SOL    HW269296  10.221   2.967   1.132
22508SOL     OW69297   4.377  14.767   5.067
22508SOL    HW169298   4.342  14.854   5.046
22508SOL    HW269299   4.395  14.771   5.161
22509SOL     OW69300   0.648  11.676   7.196
22509SOL    HW169301   0.564  11.646   7.161
22509SOL    HW269302   0.672  11.749   7.139
22510SOL     OW69303  13.970  13.710   9.564
22510SOL    HW169304  13.960  13.763   9.485
22510SOL    HW269305  13.961  13.620   9.533
22511SOL     OW69306   5.311   6.086   4.340
22511SOL    HW169307   5.305   6.174   4.302
22511SOL    HW269308   5.345   6.101   4.428
22512SOL     OW69309   8.572   4.481  14.286
22512SOL    HW169310   8.522   4.558  14.312
22512SOL    HW269311   8.607   4.447  14.369
22513SOL     OW69312  14.031   3.453   4.990
22513SOL    HW169313  14.010   3.541   5.022
22513SOL    HW269314  14.039   3.400   5.069
22514SOL     OW69315   4.107   1.410   9.986
22514SOL    HW169316   4.165   1.334   9.990
22514SOL    HW269317   4.020   1.374   9.974
22515SOL     OW69318   6.832  10.769   4.534
22515SOL    HW169319   6.745  10.791   4.566
22515SOL    HW269320   6.891  10.827   4.583
22516SOL     OW69321   6.123  12.624   7.611
22516SOL    HW169322   6.108  12.628   7.517
22516SOL    HW269323   6.067  12.693   7.648
22517SOL     OW69324  12.334   5.595   0.981
22517SOL    HW169325  12.402   5.533   1.009
22517SOL    HW269326  12.318   5.574   0.889
22518SOL     OW69327   8.244   1.175  11.429
22518SOL    HW169328   8.197   1.146  11.508
22518SOL    HW269329   8.330   1.132  11.437
22519SOL     OW69330   5.695   4.722  13.496
22519SOL    HW169331   5.739   4.640  13.475
22519SOL    HW269332   5.602   4.702  13.487
22520SOL     OW69333   2.664  12.175   5.790
22520SOL    HW169334   2.611  12.165   5.711
22520SOL    HW269335   2.619  12.122   5.856
22521SOL     OW69336  14.003   5.248  13.785
22521SOL    HW169337  14.099   5.250  13.779
22521SOL    HW269338  13.974   5.259  13.694
22522SOL     OW69339  10.236  11.316   4.609
22522SOL    HW169340  10.328  11.342   4.611
22522SOL    HW269341  10.236  11.225   4.641
22523SOL     OW69342   8.480   9.405   0.996
22523SOL    HW169343   8.442   9.344   1.059
22523SOL    HW269344   8.412   9.415   0.929
22524SOL     OW69345   4.102   8.912   3.708
22524SOL    HW169346   4.013   8.881   3.691
22524SOL    HW269347   4.106   8.922   3.804
22525SOL     OW69348   9.828   9.115  14.136
22525SOL    HW169349   9.735   9.124  14.117
22525SOL    HW269350   9.834   9.118  14.232
22526SOL     OW69351   3.260  13.322   4.805
22526SOL    HW169352   3.222  13.282   4.883
22526SOL    HW269353   3.242  13.416   4.816
22527SOL     OW69354  13.998   9.898  13.766
22527SOL    HW169355  13.957   9.840  13.702
22527SOL    HW269356  14.092   9.889  13.750
22528SOL     OW69357   0.230   9.383  10.759
22528SOL    HW169358   0.260   9.308  10.708
22528SOL    HW269359   0.138   9.392  10.735
22529SOL     OW69360   6.479   9.969   7.541
22529SOL    HW169361   6.408   9.998   7.598
22529SOL    HW269362   6.463  10.012   7.458
22530SOL     OW69363   1.179  11.369  11.828
22530SOL    HW169364   1.182  11.375  11.923
22530SOL    HW269365   1.113  11.301  11.810
22531SOL     OW69366  13.421   5.153   0.177
22531SOL    HW169367  13.485   5.146   0.247
22531SOL    HW269368  13.471   5.182   0.101
22532SOL     OW69369   5.615  14.640   1.046
22532SOL    HW169370   5.698  14.613   1.087
22532SOL    HW269371   5.592  14.566   0.989
22533SOL     OW69372   6.316   3.225   8.703
22533SOL    HW169373   6.283   3.288   8.639
22533SOL    HW269374   6.249   3.156   8.706
22534SOL     OW69375   3.246   9.118   3.581
22534SOL    HW169376   3.279   9.199   3.540
22534SOL    HW269377   3.318   9.090   3.638
22535SOL     OW69378   0.841   0.613   1.832
22535SOL    HW169379   0.764   0.661   1.802
22535SOL    HW269380   0.876   0.572   1.752
22536SOL     OW69381   3.035  11.627  10.303
22536SOL    HW169382   3.082  11.703  10.338
22536SOL    HW269383   2.967  11.609  10.368
22537SOL     OW69384  11.097  12.123   3.783
22537SOL    HW169385  11.087  12.040   3.735
22537SOL    HW269386  11.161  12.103   3.851
22538SOL     OW69387  13.970  13.146   0.877
22538SOL    HW169388  13.909  13.100   0.936
22538SOL    HW269389  14.001  13.220   0.929
22539SOL     OW69390   0.937   1.550   2.107
22539SOL    HW169391   0.946   1.466   2.061
22539SOL    HW269392   1.026   1.584   2.113
22540SOL     OW69393   5.189   9.935  12.758
22540SOL    HW169394   5.246   9.858  12.766
22540SOL    HW269395   5.124   9.909  12.693
22541SOL     OW69396  11.126   3.692   7.493
22541SOL    HW169397  11.077   3.616   7.523
22541SOL    HW269398  11.217   3.663   7.494
22542SOL     OW69399   1.635   4.125   0.118
22542SOL    HW169400   1.725   4.094   0.108
22542SOL    HW269401   1.643   4.202   0.176
22543SOL     OW69402   9.577   9.669  11.272
22543SOL    HW169403   9.486   9.693  11.290
22543SOL    HW269404   9.617   9.661  11.359
22544SOL     OW69405   9.306   5.646   1.139
22544SOL    HW169406   9.316   5.697   1.058
22544SOL    HW269407   9.332   5.557   1.115
22545SOL     OW69408   9.316   7.294   1.001
22545SOL    HW169409   9.326   7.383   1.035
22545SOL    HW269410   9.390   7.246   1.038
22546SOL     OW69411   3.613  14.116   9.989
22546SOL    HW169412   3.652  14.202  10.001
22546SOL    HW269413   3.616  14.075  10.076
22547SOL     OW69414   2.479   7.995   4.649
22547SOL    HW169415   2.423   7.962   4.719
22547SOL    HW269416   2.531   8.064   4.690
22548SOL     OW69417  10.092  11.849   0.764
22548SOL    HW169418  10.096  11.923   0.824
22548SOL    HW269419  10.124  11.775   0.815
22549SOL     OW69420   5.703  13.695   9.227
22549SOL    HW169421   5.638  13.703   9.297
22549SOL    HW269422   5.768  13.762   9.248
22550SOL     OW69423   5.309   1.172  14.152
22550SOL    HW169424   5.315   1.135  14.064
22550SOL    HW269425   5.220   1.208  14.156
22551SOL     OW69426   9.357   2.731   6.972
22551SOL    HW169427   9.291   2.750   7.039
22551SOL    HW269428   9.405   2.814   6.962
22552SOL     OW69429  13.023   7.405   3.529
22552SOL    HW169430  12.946   7.380   3.580
22552SOL    HW269431  13.037   7.331   3.470
22553SOL     OW69432  11.942   0.834  10.647
22553SOL    HW169433  12.000   0.772  10.691
22553SOL    HW269434  11.999   0.887  10.592
22554SOL     OW69435   3.653   4.272   8.575
22554SOL    HW169436   3.741   4.281   8.611
22554SOL    HW269437   3.643   4.178   8.560
22555SOL     OW69438  12.221   0.652   7.201
22555SOL    HW169439  12.268   0.733   7.182
22555SOL    HW269440  12.284   0.582   7.182
22556SOL     OW69441   4.916   5.984   7.316
22556SOL    HW169442   4.975   5.953   7.248
22556SOL    HW269443   4.963   6.057   7.358
22557SOL     OW69444  12.063  10.960   3.129
22557SOL    HW169445  12.012  10.964   3.048
22557SOL    HW269446  12.150  10.992   3.104
22558SOL     OW69447  10.113   8.619   7.098
22558SOL    HW169448  10.063   8.556   7.149
22558SOL    HW269449  10.072   8.703   7.118
22559SOL     OW69450   7.413   5.448   1.114
22559SOL    HW169451   7.449   5.516   1.171
22559SOL    HW269452   7.340   5.411   1.165
22560SOL     OW69453  14.586   8.667   0.180
22560SOL    HW169454  14.527   8.680   0.254
22560SOL    HW269455  14.651   8.605   0.211
22561SOL     OW69456   4.845   2.983   0.785
22561SOL    HW169457   4.936   2.988   0.755
22561SOL    HW269458   4.795   3.026   0.715
22562SOL     OW69459   5.970   8.280  13.255
22562SOL    HW169460   5.891   8.285  13.200
22562SOL    HW269461   5.988   8.371  13.278
22563SOL     OW69462   4.653   3.448   3.936
22563SOL    HW169463   4.747   3.435   3.951
22563SOL    HW269464   4.645   3.540   3.910
22564SOL     OW69465   0.852  11.864   8.278
22564SOL    HW169466   0.807  11.869   8.362
22564SOL    HW269467   0.938  11.826   8.299
22565SOL     OW69468   4.895   9.027   2.731
22565SOL    HW169469   4.971   9.074   2.697
22565SOL    HW269470   4.931   8.964   2.794
22566SOL     OW69471  11.912  11.302  10.973
22566SOL    HW169472  11.965  11.227  10.999
22566SOL    HW269473  11.974  11.361  10.930
22567SOL     OW69474  12.095  13.739  14.669
22567SOL    HW169475  12.154  13.739  14.744
22567SOL    HW269476  12.121  13.661  14.619
22568SOL     OW69477   0.535   5.225   1.317
22568SOL    HW169478   0.580   5.309   1.308
22568SOL    HW269479   0.497   5.228   1.405
22569SOL     OW69480   4.865   1.632   2.015
22569SOL    HW169481   4.835   1.639   1.924
22569SOL    HW269482   4.908   1.546   2.019
22570SOL     OW69483  11.813  13.375   5.767
22570SOL    HW169484  11.875  13.315   5.727
22570SOL    HW269485  11.863  13.455   5.784
22571SOL     OW69486   1.050   7.949  10.139
22571SOL    HW169487   1.076   8.040  10.150
22571SOL    HW269488   1.114   7.899  10.190
22572SOL     OW69489  12.897  10.590   2.589
22572SOL    HW169490  12.959  10.525   2.556
22572SOL    HW269491  12.849  10.544   2.658
22573SOL     OW69492   5.836  10.194  10.649
22573SOL    HW169493   5.773  10.124  10.665
22573SOL    HW269494   5.804  10.239  10.571
22574SOL     OW69495  11.226   7.322  14.341
22574SOL    HW169496  11.147   7.314  14.288
22574SOL    HW269497  11.258   7.411  14.324
22575SOL     OW69498  10.218   4.382   8.939
22575SOL    HW169499  10.154   4.445   8.906
22575SOL    HW269500  10.191   4.299   8.901
22576SOL     OW69501   4.448   1.683   4.753
22576SOL    HW169502   4.359   1.714   4.739
22576SOL    HW269503   4.475   1.647   4.669
22577SOL     OW69504   0.222  12.141   0.748
22577SOL    HW169505   0.267  12.092   0.817
22577SOL    HW269506   0.291  12.168   0.688
22578SOL     OW69507   6.540   3.356  10.065
22578SOL    HW169508   6.598   3.346   9.989
22578SOL    HW269509   6.499   3.270  10.075
22579SOL     OW69510   9.659   4.591   8.310
22579SOL    HW169511   9.710   4.536   8.250
22579SOL    HW269512   9.720   4.610   8.382
22580SOL     OW69513   0.800   2.556  11.167
22580SOL    HW169514   0.852   2.586  11.093
22580SOL    HW269515   0.746   2.485  11.131
22581SOL     OW69516   7.579  12.457  10.055
22581SOL    HW169517   7.592  12.546  10.088
22581SOL    HW269518   7.588  12.401  10.132
22582SOL     OW69519   9.975   1.515   7.873
22582SOL    HW169520   9.931   1.449   7.927
22582SOL    HW269521   9.917   1.527   7.798
22583SOL     OW69522  11.599  12.521  13.967
22583SOL    HW169523  11.511  12.529  14.004
22583SOL    HW269524  11.605  12.592  13.904
22584SOL     OW69525   9.873   1.776   3.789
22584SOL    HW169526   9.944   1.772   3.852
22584SOL    HW269527   9.856   1.685   3.766
22585SOL     OW69528   7.267  12.728   3.220
22585SOL    HW169529   7.258  12.698   3.310
22585SOL    HW269530   7.200  12.679   3.172
22586SOL     OW69531  10.841  11.522  13.312
22586SOL    HW169532  10.751  11.547  13.331
22586SOL    HW269533  10.869  11.585  13.246
22587SOL     OW69534   3.891   9.065  11.925
22587SOL    HW169535   3.927   9.110  12.001
22587SOL    HW269536   3.899   9.128  11.853
22588SOL     OW69537   1.016   5.723   8.711
22588SOL    HW169538   0.962   5.803   8.712
22588SOL    HW269539   0.959   5.655   8.746
22589SOL     OW69540   1.653   2.780  12.675
22589SOL    HW169541   1.560   2.759  12.668
22589SOL    HW269542   1.681   2.797  12.585
22590SOL     OW69543   5.787   3.241  10.924
22590SOL    HW169544   5.773   3.232  11.019
22590SOL    HW269545   5.701   3.225  10.885
22591SOL     OW69546   3.093   7.682   2.754
22591SOL    HW169547   3.095   7.756   2.693
22591SOL    HW269548   3.186   7.663   2.771
22592SOL     OW69549  14.448  14.349  13.783
22592SOL    HW169550  14.515  14.370  13.717
22592SOL    HW269551  14.395  14.428  13.789
22593SOL     OW69552   1.500   4.477   8.787
22593SOL    HW169553   1.550   4.417   8.732
22593SOL    HW269554   1.415   4.484   8.743
22594SOL     OW69555  10.360   0.740   3.834
22594SOL    HW169556  10.316   0.664   3.872
22594SOL    HW269557  10.316   0.755   3.750
22595SOL     OW69558  11.367   2.308   2.936
22595SOL    HW169559  11.315   2.291   3.015
22595SOL    HW269560  11.388   2.222   2.902
22596SOL     OW69561   8.390  10.006   8.717
22596SOL    HW169562   8.451   9.961   8.776
22596SOL    HW269563   8.319   9.944   8.704
22597SOL     OW69564  12.390  13.416  13.624
22597SOL    HW169565  12.396  13.400  13.530
22597SOL    HW269566  12.432  13.340  13.664
22598SOL     OW69567   3.469   7.486   9.037
22598SOL    HW169568   3.476   7.511   8.945
22598SOL    HW269569   3.467   7.569   9.085
22599SOL     OW69570  11.855   9.432   6.943
22599SOL    HW169571  11.849   9.336   6.938
22599SOL    HW269572  11.849   9.461   6.852
22600SOL     OW69573   1.361   5.473   3.238
22600SOL    HW169574   1.282   5.422   3.255
22600SOL    HW269575   1.343   5.558   3.277
22601SOL     OW69576   8.230   2.209   0.986
22601SOL    HW169577   8.156   2.149   0.975
22601SOL    HW269578   8.286   2.192   0.911
22602SOL     OW69579  11.318   1.851  13.891
22602SOL    HW169580  11.303   1.785  13.823
22602SOL    HW269581  11.236   1.853  13.941
22603SOL     OW69582   6.347   1.328   9.348
22603SOL    HW169583   6.349   1.365   9.260
22603SOL    HW269584   6.339   1.403   9.406
22604SOL     OW69585  11.965   6.318  14.123
22604SOL    HW169586  12.011   6.381  14.067
22604SOL    HW269587  12.003   6.233  14.101
22605SOL     OW69588   5.353   7.824   9.407
22605SOL    HW169589   5.359   7.753   9.471
22605SOL    HW269590   5.301   7.892   9.450
22606SOL     OW69591   3.886  10.051   5.650
22606SOL    HW169592   3.947   9.985   5.616
22606SOL    HW269593   3.804  10.034   5.604
22607SOL     OW69594   5.774  13.312   8.150
22607SOL    HW169595   5.842  13.380   8.147
22607SOL    HW269596   5.802  13.253   8.220
22608SOL     OW69597   2.680   5.862   7.404
22608SOL    HW169598   2.641   5.777   7.386
22608SOL    HW269599   2.625   5.900   7.473
22609SOL     OW69600   1.203   6.350   6.991
22609SOL    HW169601   1.163   6.436   6.978
22609SOL    HW269602   1.133   6.296   7.027
22610SOL     OW69603   5.762   1.698   2.597
22610SOL    HW169604   5.711   1.618   2.609
22610SOL    HW269605   5.777   1.703   2.502
22611SOL     OW69606  10.029  12.653  14.388
22611SOL    HW169607  10.061  12.567  14.415
22611SOL    HW269608   9.936  12.653  14.412
22612SOL     OW69609   3.204  11.358  10.778
22612SOL    HW169610   3.113  11.388  10.776
22612SOL    HW269611   3.207  11.288  10.712
22613SOL     OW69612   6.431   9.610   8.352
22613SOL    HW169613   6.347   9.640   8.319
22613SOL    HW269614   6.410   9.533   8.406
22614SOL     OW69615   3.056   9.489   6.714
22614SOL    HW169616   3.043   9.409   6.663
22614SOL    HW269617   3.020   9.468   6.801
22615SOL     OW69618  13.717   2.331   0.910
22615SOL    HW169619  13.650   2.288   0.856
22615SOL    HW269620  13.702   2.298   0.998
22616SOL     OW69621  13.344   9.669   8.847
22616SOL    HW169622  13.300   9.584   8.848
22616SOL    HW269623  13.409   9.664   8.917
22617SOL     OW69624  12.970  10.864   0.557
22617SOL    HW169625  12.934  10.933   0.614
22617SOL    HW269626  13.020  10.809   0.616
22618SOL     OW69627   4.832   0.680   9.699
22618SOL    HW169628   4.920   0.710   9.720
22618SOL    HW269629   4.777   0.714   9.770
22619SOL     OW69630   5.351  14.138  10.590
22619SOL    HW169631   5.294  14.206  10.626
22619SOL    HW269632   5.435  14.151  10.633
22620SOL     OW69633   1.484  14.815   7.577
22620SOL    HW169634   1.427  14.812   7.500
22620SOL    HW269635   1.451   0.011   7.628
22621SOL     OW69636   7.192   9.713   1.695
22621SOL    HW169637   7.271   9.670   1.661
22621SOL    HW269638   7.136   9.641   1.723
22622SOL     OW69639   4.786  11.389  10.490
22622SOL    HW169640   4.875  11.355  10.491
22622SOL    HW269641   4.789  11.463  10.429
22623SOL     OW69642   2.356   1.911   3.966
22623SOL    HW169643   2.350   2.001   3.998
22623SOL    HW269644   2.270   1.893   3.928
22624SOL     OW69645   7.556   6.017   5.433
22624SOL    HW169646   7.527   6.102   5.401
22624SOL    HW269647   7.500   6.000   5.509
22625SOL     OW69648   7.188   2.653   1.889
22625SOL    HW169649   7.270   2.701   1.895
22625SOL    HW269650   7.126   2.716   1.851
22626SOL     OW69651  13.922   7.160  10.307
22626SOL    HW169652  13.967   7.244  10.305
22626SOL    HW269653  13.882   7.152  10.221
22627SOL     OW69654   6.666   0.015  14.659
22627SOL    HW169655   6.722  14.845  14.720
22627SOL    HW269656   6.614  14.826  14.616
22628SOL     OW69657   6.858  11.733   3.133
22628SOL    HW169658   6.909  11.656   3.157
22628SOL    HW269659   6.782  11.698   3.086
22629SOL     OW69660   4.767   0.910   7.129
22629SOL    HW169661   4.835   0.945   7.072
22629SOL    HW269662   4.809   0.900   7.214
22630SOL     OW69663   7.167  11.987   1.892
22630SOL    HW169664   7.162  12.062   1.832
22630SOL    HW269665   7.111  11.921   1.852
22631SOL     OW69666   0.649  10.833  10.807
22631SOL    HW169667   0.745  10.842  10.802
22631SOL    HW269668   0.617  10.923  10.799
22632SOL     OW69669   8.174   0.872  14.731
22632SOL    HW169670   8.245   0.936  14.743
22632SOL    HW269671   8.214   0.803  14.678
22633SOL     OW69672  11.649  10.115  13.893
22633SOL    HW169673  11.655  10.122  13.988
22633SOL    HW269674  11.620  10.025  13.877
22634SOL     OW69675   7.640   4.404   7.143
22634SOL    HW169676   7.552   4.428   7.174
22634SOL    HW269677   7.625   4.329   7.085
22635SOL     OW69678   3.915   2.633   7.374
22635SOL    HW169679   3.931   2.545   7.407
22635SOL    HW269680   3.830   2.658   7.412
22636SOL     OW69681   6.277  13.514  14.689
22636SOL    HW169682   6.317  13.445  14.742
22636SOL    HW269683   6.333  13.590  14.701
22637SOL     OW69684  10.642   2.072  10.032
22637SOL    HW169685  10.589   2.123   9.971
22637SOL    HW269686  10.596   1.988  10.039
22638SOL     OW69687   4.581   9.693   8.465
22638SOL    HW169688   4.626   9.696   8.380
22638SOL    HW269689   4.521   9.767   8.462
22639SOL     OW69690   3.610  13.003  11.502
22639SOL    HW169691   3.641  13.057  11.430
22639SOL    HW269692   3.589  13.065  11.572
22640SOL     OW69693   3.032  10.802   4.295
22640SOL    HW169694   3.007  10.809   4.387
22640SOL    HW269695   2.951  10.813   4.246
22641SOL     OW69696   6.198  10.678   8.057
22641SOL    HW169697   6.230  10.754   8.105
22641SOL    HW269698   6.125  10.646   8.109
22642SOL     OW69699   9.912  13.650   3.004
22642SOL    HW169700   9.894  13.642   3.097
22642SOL    HW269701  10.004  13.675   2.998
22643SOL     OW69702   9.850  13.090   2.359
22643SOL    HW169703   9.789  13.163   2.374
22643SOL    HW269704   9.935  13.132   2.345
22644SOL     OW69705  10.158   7.572  11.202
22644SOL    HW169706  10.090   7.640  11.204
22644SOL    HW269707  10.191   7.574  11.112
22645SOL     OW69708   0.080   3.871   0.822
22645SOL    HW169709   0.145   3.838   0.884
22645SOL    HW269710   0.012   3.803   0.822
22646SOL     OW69711   7.452  12.326  10.934
22646SOL    HW169712   7.538  12.308  10.973
22646SOL    HW269713   7.414  12.240  10.917
22647SOL     OW69714   5.263  11.701   5.412
22647SOL    HW169715   5.261  11.605   5.410
22647SOL    HW269716   5.177  11.727   5.379
22648SOL     OW69717   6.767  12.636   9.893
22648SOL    HW169718   6.761  12.665   9.802
22648SOL    HW269719   6.812  12.708   9.938
22649SOL     OW69720   5.125  14.530   6.977
22649SOL    HW169721   5.207  14.574   7.000
22649SOL    HW269722   5.143  14.436   6.989
22650SOL     OW69723   8.605   6.829   0.048
22650SOL    HW169724   8.562   6.783  14.853
22650SOL    HW269725   8.550   6.906   0.064
22651SOL     OW69726   2.051  14.278   8.461
22651SOL    HW169727   2.123  14.318   8.509
22651SOL    HW269728   1.974  14.291   8.517
22652SOL     OW69729  14.611   1.101  12.492
22652SOL    HW169730  14.591   1.047  12.416
22652SOL    HW269731  14.698   1.071  12.520
22653SOL     OW69732  13.116   6.796   5.104
22653SOL    HW169733  13.101   6.823   5.013
22653SOL    HW269734  13.201   6.834   5.126
22654SOL     OW69735   3.799   4.241   0.426
22654SOL    HW169736   3.837   4.175   0.484
22654SOL    HW269737   3.719   4.269   0.471
22655SOL     OW69738   8.757  13.679   5.974
22655SOL    HW169739   8.674  13.723   5.987
22655SOL    HW269740   8.767  13.622   6.050
22656SOL     OW69741  14.709   4.951   4.599
22656SOL    HW169742  14.647   5.024   4.600
22656SOL    HW269743  14.669   4.884   4.654
22657SOL     OW69744   0.088   2.577  11.160
22657SOL    HW169745   0.023   2.643  11.137
22657SOL    HW269746   0.116   2.540  11.076
22658SOL     OW69747  12.939   1.264   7.636
22658SOL    HW169748  12.871   1.330   7.619
22658SOL    HW269749  13.008   1.312   7.682
22659SOL     OW69750  12.143   7.174   2.519
22659SOL    HW169751  12.127   7.151   2.428
22659SOL    HW269752  12.057   7.173   2.560
22660SOL     OW69753   2.975   6.505   4.677
22660SOL    HW169754   2.945   6.535   4.592
22660SOL    HW269755   3.009   6.584   4.720
22661SOL     OW69756  10.158   6.233   3.588
22661SOL    HW169757  10.069   6.215   3.558
22661SOL    HW269758  10.165   6.329   3.587
22662SOL     OW69759   9.595  14.560   6.788
22662SOL    HW169760   9.555  14.641   6.822
22662SOL    HW269761   9.524  14.496   6.792
22663SOL     OW69762   9.887  13.652  10.095
22663SOL    HW169763   9.959  13.700  10.054
22663SOL    HW269764   9.831  13.625  10.022
22664SOL     OW69765   4.307   6.469   9.863
22664SOL    HW169766   4.340   6.455   9.775
22664SOL    HW269767   4.260   6.389   9.884
22665SOL     OW69768   9.484   0.223   0.532
22665SOL    HW169769   9.498   0.159   0.463
22665SOL    HW269770   9.392   0.248   0.523
22666SOL     OW69771  14.567  12.386  13.389
22666SOL    HW169772  14.508  12.384  13.465
22666SOL    HW269773  14.520  12.338  13.321
22667SOL     OW69774   1.904   9.735   9.994
22667SOL    HW169775   1.818   9.775  10.006
22667SOL    HW269776   1.915   9.728   9.900
22668SOL     OW69777  13.076   1.761   6.757
22668SOL    HW169778  12.985   1.740   6.734
22668SOL    HW269779  13.070   1.804   6.842
22669SOL     OW69780   0.459  12.374   9.928
22669SOL    HW169781   0.498  12.391  10.014
22669SOL    HW269782   0.373  12.337   9.948
22670SOL     OW69783   7.243  12.320   8.182
22670SOL    HW169784   7.160  12.277   8.160
22670SOL    HW269785   7.270  12.281   8.265
22671SOL     OW69786  13.312   8.467   7.193
22671SOL    HW169787  13.309   8.563   7.188
22671SOL    HW269788  13.403   8.446   7.171
22672SOL     OW69789   9.461  11.416   5.017
22672SOL    HW169790   9.537  11.375   4.974
22672SOL    HW269791   9.390  11.354   5.002
22673SOL     OW69792  13.039   6.949  12.654
22673SOL    HW169793  13.108   6.981  12.596
22673SOL    HW269794  13.046   6.854  12.650
22674SOL     OW69795  11.458   2.894   6.854
22674SOL    HW169796  11.534   2.930   6.899
22674SOL    HW269797  11.412   2.970   6.818
22675SOL     OW69798   0.045  13.419   4.412
22675SOL    HW169799   0.116  13.480   4.431
22675SOL    HW269800   0.001  13.457   4.336
22676SOL     OW69801   7.301   5.090   3.066
22676SOL    HW169802   7.322   5.098   2.973
22676SOL    HW269803   7.229   5.151   3.080
22677SOL     OW69804   8.756   1.425  14.432
22677SOL    HW169805   8.824   1.404  14.497
22677SOL    HW269806   8.801   1.479  14.367
22678SOL     OW69807   9.018  14.133   8.114
22678SOL    HW169808   9.014  14.126   8.018
22678SOL    HW269809   9.101  14.177   8.131
22679SOL     OW69810   8.752   5.185  10.957
22679SOL    HW169811   8.830   5.234  10.981
22679SOL    HW269812   8.738   5.125  11.030
22680SOL     OW69813   7.361  10.391   8.300
22680SOL    HW169814   7.335  10.469   8.252
22680SOL    HW269815   7.438  10.358   8.255
22681SOL     OW69816  14.307  12.799   3.201
22681SOL    HW169817  14.305  12.895   3.206
22681SOL    HW269818  14.398  12.776   3.217
22682SOL     OW69819  10.040  12.375   6.446
22682SOL    HW169820  10.120  12.404   6.490
22682SOL    HW269821  10.003  12.308   6.503
22683SOL     OW69822  14.860  13.736   4.850
22683SOL    HW169823  14.858  13.686   4.931
22683SOL    HW269824  14.843  13.827   4.877
22684SOL     OW69825   3.804  10.538   6.330
22684SOL    HW169826   3.807  10.548   6.425
22684SOL    HW269827   3.755  10.457   6.316
22685SOL     OW69828   2.609   9.968  11.510
22685SOL    HW169829   2.530   9.954  11.458
22685SOL    HW269830   2.679   9.979  11.446
22686SOL     OW69831   9.415   7.802   6.640
22686SOL    HW169832   9.392   7.884   6.596
22686SOL    HW269833   9.344   7.786   6.701
22687SOL     OW69834  14.348   6.932   9.770
22687SOL    HW169835  14.392   7.014   9.792
22687SOL    HW269836  14.275   6.926   9.833
22688SOL     OW69837  10.645  10.554   6.973
22688SOL    HW169838  10.679  10.497   7.042
22688SOL    HW269839  10.646  10.642   7.012
22689SOL     OW69840  12.294   3.800   9.943
22689SOL    HW169841  12.370   3.815  10.001
22689SOL    HW269842  12.298   3.706   9.924
22690SOL     OW69843   3.526   6.109   5.241
22690SOL    HW169844   3.506   6.016   5.245
22690SOL    HW269845   3.604   6.115   5.186
22691SOL     OW69846   3.921  12.273  11.990
22691SOL    HW169847   3.834  12.288  12.028
22691SOL    HW269848   3.912  12.303  11.900
22692SOL     OW69849   1.209   7.738   8.414
22692SOL    HW169850   1.187   7.666   8.473
22692SOL    HW269851   1.285   7.780   8.455
22693SOL     OW69852   3.445   4.489   3.214
22693SOL    HW169853   3.361   4.533   3.203
22693SOL    HW269854   3.477   4.476   3.125
22694SOL     OW69855   9.891  13.905  10.659
22694SOL    HW169856   9.971  13.876  10.615
22694SOL    HW269857   9.920  13.977  10.716
22695SOL     OW69858   3.705  10.688  11.576
22695SOL    HW169859   3.706  10.783  11.587
22695SOL    HW269860   3.699  10.676  11.481
22696SOL     OW69861   1.807   1.668   6.499
22696SOL    HW169862   1.713   1.672   6.481
22696SOL    HW269863   1.818   1.590   6.553
22697SOL     OW69864  10.457   7.419  12.791
22697SOL    HW169865  10.524   7.480  12.762
22697SOL    HW269866  10.397   7.412  12.717
22698SOL     OW69867   3.353  14.460   6.889
22698SOL    HW169868   3.370  14.402   6.963
22698SOL    HW269869   3.270  14.503   6.911
22699SOL     OW69870  10.769   9.106   4.491
22699SOL    HW169871  10.700   9.158   4.451
22699SOL    HW269872  10.850   9.151   4.467
22700SOL     OW69873  13.502   8.097  10.737
22700SOL    HW169874  13.563   8.045  10.684
22700SOL    HW269875  13.416   8.080  10.698
22701SOL     OW69876   4.520   7.244   0.005
22701SOL    HW169877   4.535   7.209   0.093
22701SOL    HW269878   4.425   7.244  14.873
22702SOL     OW69879   5.281   3.730  11.764
22702SOL    HW169880   5.326   3.800  11.811
22702SOL    HW269881   5.318   3.734  11.676
22703SOL     OW69882   0.178   4.284  13.608
22703SOL    HW169883   0.122   4.328  13.672
22703SOL    HW269884   0.177   4.342  13.531
22704SOL     OW69885   9.837   0.193   2.919
22704SOL    HW169886   9.826   0.163   2.829
22704SOL    HW269887   9.854   0.112   2.968
22705SOL     OW69888   2.834   2.796   3.911
22705SOL    HW169889   2.907   2.763   3.858
22705SOL    HW269890   2.801   2.871   3.861
22706SOL     OW69891  10.973   8.752   3.876
22706SOL    HW169892  11.061   8.735   3.843
22706SOL    HW269893  10.986   8.807   3.954
22707SOL     OW69894  14.503   7.905   0.242
22707SOL    HW169895  14.584   7.925   0.289
22707SOL    HW269896  14.491   7.979   0.182
22708SOL     OW69897   7.604   7.347   0.070
22708SOL    HW169898   7.685   7.300   0.088
22708SOL    HW269899   7.617   7.434   0.109
22709SOL     OW69900  12.364  12.320   4.686
22709SOL    HW169901  12.451  12.289   4.713
22709SOL    HW269902  12.306  12.295   4.759
22710SOL     OW69903   3.520   8.334   1.974
22710SOL    HW169904   3.561   8.421   1.982
22710SOL    HW269905   3.489   8.315   2.062
22711SOL     OW69906  13.489  11.399   5.289
22711SOL    HW169907  13.421  11.418   5.225
22711SOL    HW269908  13.459  11.440   5.370
22712SOL     OW69909   7.884   6.263   6.262
22712SOL    HW169910   7.980   6.256   6.259
22712SOL    HW269911   7.857   6.194   6.322
22713SOL     OW69912   4.175   9.054   8.360
22713SOL    HW169913   4.263   9.060   8.396
22713SOL    HW269914   4.125   9.119   8.409
22714SOL     OW69915  12.703   1.700  11.249
22714SOL    HW169916  12.716   1.752  11.170
22714SOL    HW269917  12.790   1.693  11.287
22715SOL     OW69918   0.461   5.610  12.763
22715SOL    HW169919   0.433   5.585  12.675
22715SOL    HW269920   0.550   5.643  12.751
22716SOL     OW69921  14.118  14.760   6.978
22716SOL    HW169922  14.102  14.676   7.021
22716SOL    HW269923  14.210  14.758   6.953
22717SOL     OW69924   0.966   0.995   3.637
22717SOL    HW169925   1.039   1.033   3.588
22717SOL    HW269926   0.936   0.923   3.582
22718SOL     OW69927   0.422   6.438   9.881
22718SOL    HW169928   0.363   6.512   9.895
22718SOL    HW269929   0.382   6.366   9.930
22719SOL     OW69930   5.747   1.001   8.284
22719SOL    HW169931   5.818   1.047   8.329
22719SOL    HW269932   5.709   1.066   8.225
22720SOL     OW69933  10.161   6.530   5.189
22720SOL    HW169934  10.140   6.454   5.243
22720SOL    HW269935  10.139   6.504   5.100
22721SOL     OW69936   5.443  13.040   0.990
22721SOL    HW169937   5.424  13.124   1.032
22721SOL    HW269938   5.358  13.010   0.957
22722SOL     OW69939  11.664   0.756  14.362
22722SOL    HW169940  11.716   0.682  14.392
22722SOL    HW269941  11.696   0.774  14.274
22723SOL     OW69942  10.209   0.024  10.075
22723SOL    HW169943  10.165   0.006   9.992
22723SOL    HW269944  10.273   0.092  10.054
22724SOL     OW69945  13.669  12.033   3.031
22724SOL    HW169946  13.629  12.119   3.021
22724SOL    HW269947  13.756  12.052   3.068
22725SOL     OW69948   2.332  13.048   4.974
22725SOL    HW169949   2.384  12.972   5.002
22725SOL    HW269950   2.305  13.090   5.056
22726SOL     OW69951   0.936   3.655   6.159
22726SOL    HW169952   0.994   3.701   6.219
22726SOL    HW269953   0.991   3.590   6.116
22727SOL     OW69954  10.766   7.793   7.500
22727SOL    HW169955  10.753   7.751   7.585
22727SOL    HW269956  10.702   7.863   7.497
22728SOL     OW69957  14.286  12.438   4.611
22728SOL    HW169958  14.267  12.357   4.656
22728SOL    HW269959  14.201  12.472   4.583
22729SOL     OW69960  12.701   8.539   1.006
22729SOL    HW169961  12.663   8.451   1.000
22729SOL    HW269962  12.630   8.594   1.039
22730SOL     OW69963  10.167   9.049   1.674
22730SOL    HW169964  10.196   8.966   1.635
22730SOL    HW269965  10.246   9.104   1.674
22731SOL     OW69966   8.169   2.807  11.189
22731SOL    HW169967   8.074   2.798  11.179
22731SOL    HW269968   8.180   2.870  11.261
22732SOL     OW69969   8.788   8.406   2.655
22732SOL    HW169970   8.798   8.498   2.679
22732SOL    HW269971   8.745   8.366   2.730
22733SOL     OW69972  12.190   5.163   4.428
22733SOL    HW169973  12.271   5.203   4.461
22733SOL    HW269974  12.145   5.131   4.506
22734SOL     OW69975   2.472  10.330  12.134
22734SOL    HW169976   2.481  10.256  12.073
22734SOL    HW269977   2.527  10.398  12.097
22735SOL     OW69978  12.881   6.853   2.216
22735SOL    HW169979  12.900   6.937   2.173
22735SOL    HW269980  12.845   6.798   2.147
22736SOL     OW69981   4.943  11.352   4.786
22736SOL    HW169982   4.997  11.299   4.844
22736SOL    HW269983   4.856  11.312   4.790
22737SOL     OW69984  13.833  14.362   4.032
22737SOL    HW169985  13.763  14.424   4.012
22737SOL    HW269986  13.806  14.320   4.113
22738SOL     OW69987   8.727   0.234   3.229
22738SOL    HW169988   8.803   0.183   3.257
22738SOL    HW269989   8.758   0.324   3.227
22739SOL     OW69990   7.416   0.630   9.568
22739SOL    HW169991   7.378   0.707   9.611
22739SOL    HW269992   7.359   0.614   9.493
22740SOL     OW69993  10.389  14.810   6.604
22740SOL    HW169994  10.425  14.816   6.692
22740SOL    HW269995  10.295  14.822   6.616
22741SOL     OW69996   8.714   0.717   9.389
22741SOL    HW169997   8.705   0.802   9.432
22741SOL    HW269998   8.633   0.708   9.338
22742SOL     OW69999   4.872   7.997  12.639
22742SOL    HW170000   4.859   8.079  12.686
22742SOL    HW270001   4.920   7.942  12.701
22743SOL     OW70002  11.320   4.710   2.035
22743SOL    HW170003  11.245   4.652   2.040
22743SOL    HW270004  11.301   4.767   1.960
22744SOL     OW70005  10.354   9.192   0.052
22744SOL    HW170006  10.294   9.137   0.102
22744SOL    HW270007  10.317   9.280   0.057
22745SOL     OW70008   8.530  11.640   3.541
22745SOL    HW170009   8.572  11.562   3.503
22745SOL    HW270010   8.482  11.679   3.468
22746SOL     OW70011   9.643   6.937  13.420
22746SOL    HW170012   9.612   6.847  13.407
22746SOL    HW270013   9.563   6.990  13.424
22747SOL     OW70014  13.517   8.940  12.708
22747SOL    HW170015  13.427   8.971  12.696
22747SOL    HW270016  13.507   8.851  12.744
22748SOL     OW70017   3.258  11.971   1.769
22748SOL    HW170018   3.195  11.942   1.703
22748SOL    HW270019   3.287  11.890   1.811
22749SOL     OW70020   9.457   7.542   6.456
22749SOL    HW170021   9.405   7.479   6.507
22749SOL    HW270022   9.478   7.611   6.519
22750SOL     OW70023   1.088   3.327   7.464
22750SOL    HW170024   1.113   3.419   7.456
22750SOL    HW270025   1.025   3.313   7.394
22751SOL     OW70026   8.994   3.147  12.291
22751SOL    HW170027   8.993   3.186  12.203
22751SOL    HW270028   9.036   3.062  12.279
22752SOL     OW70029   1.470   0.120   8.630
22752SOL    HW170030   1.444   0.205   8.666
22752SOL    HW270031   1.452   0.127   8.536
22753SOL     OW70032   5.495   1.825  11.217
22753SOL    HW170033   5.471   1.899  11.161
22753SOL    HW270034   5.415   1.772  11.221
22754SOL     OW70035  11.077   2.940   4.693
22754SOL    HW170036  11.108   2.859   4.734
22754SOL    HW270037  11.156   2.982   4.660
22755SOL     OW70038   5.987  13.777   6.308
22755SOL    HW170039   6.074  13.784   6.348
22755SOL    HW270040   5.939  13.716   6.364
22756SOL     OW70041   0.991   5.119   3.355
22756SOL    HW170042   0.915   5.061   3.347
22756SOL    HW270043   1.047   5.095   3.281
22757SOL     OW70044   3.601   7.510  13.237
22757SOL    HW170045   3.512   7.524  13.269
22757SOL    HW270046   3.627   7.596  13.202
22758SOL     OW70047  11.730  10.951  11.725
22758SOL    HW170048  11.748  11.007  11.648
22758SOL    HW270049  11.717  10.864  11.688
22759SOL     OW70050   7.729   7.505  12.722
22759SOL    HW170051   7.783   7.442  12.770
22759SOL    HW270052   7.792   7.555  12.669
22760SOL     OW70053   5.188  12.329  13.053
22760SOL    HW170054   5.266  12.366  13.012
22760SOL    HW270055   5.140  12.288  12.982
22761SOL     OW70056   5.637  10.104   8.265
22761SOL    HW170057   5.677  10.030   8.220
22761SOL    HW270058   5.633  10.173   8.199
22762SOL     OW70059  10.010   0.539   1.675
22762SOL    HW170060  10.078   0.525   1.610
22762SOL    HW270061   9.937   0.484   1.646
22763SOL     OW70062   2.051  13.306   2.896
22763SOL    HW170063   1.990  13.239   2.928
22763SOL    HW270064   2.132  13.258   2.879
22764SOL     OW70065   4.022   4.195   4.582
22764SOL    HW170066   4.110   4.181   4.618
22764SOL    HW270067   4.036   4.250   4.505
22765SOL     OW70068  11.137  13.874  12.564
22765SOL    HW170069  11.176  13.929  12.632
22765SOL    HW270070  11.105  13.797  12.611
22766SOL     OW70071   1.890   8.430   3.219
22766SOL    HW170072   1.925   8.395   3.301
22766SOL    HW270073   1.795   8.416   3.225
22767SOL     OW70074   4.775   2.387   1.324
22767SOL    HW170075   4.798   2.466   1.275
22767SOL    HW270076   4.686   2.366   1.295
22768SOL     OW70077   9.272   7.678  13.404
22768SOL    HW170078   9.223   7.685  13.486
22768SOL    HW270079   9.363   7.694  13.429
22769SOL     OW70080   5.502   3.754   9.578
22769SOL    HW170081   5.542   3.839   9.562
22769SOL    HW270082   5.464   3.729   9.494
22770SOL     OW70083  11.310  12.034   2.331
22770SOL    HW170084  11.394  12.070   2.361
22770SOL    HW270085  11.245  12.072   2.390
22771SOL     OW70086  13.033   6.087   3.136
22771SOL    HW170087  13.094   6.072   3.064
22771SOL    HW270088  13.078   6.055   3.214
22772SOL     OW70089   4.331   9.379   6.172
22772SOL    HW170090   4.391   9.381   6.097
22772SOL    HW270091   4.308   9.471   6.187
22773SOL     OW70092   8.176   3.748   6.941
22773SOL    HW170093   8.232   3.676   6.914
22773SOL    HW270094   8.123   3.768   6.864
22774SOL     OW70095   1.773   9.031  13.775
22774SOL    HW170096   1.727   9.111  13.751
22774SOL    HW270097   1.713   8.960  13.751
22775SOL     OW70098   1.586  10.462   4.701
22775SOL    HW170099   1.503  10.417   4.689
22775SOL    HW270100   1.567  10.532   4.764
22776SOL     OW70101   0.195   0.662   3.741
22776SOL    HW170102   0.160   0.609   3.668
22776SOL    HW270103   0.130   0.731   3.754
22777SOL     OW70104  11.864   8.341   9.706
22777SOL    HW170105  11.845   8.393   9.784
22777SOL    HW270106  11.863   8.404   9.634
22778SOL     OW70107  11.052  14.084   9.775
22778SOL    HW170108  11.042  13.990   9.755
22778SOL    HW270109  11.112  14.086   9.849
22779SOL     OW70110   5.278   6.750  12.886
22779SOL    HW170111   5.366   6.764  12.849
22779SOL    HW270112   5.228   6.711  12.815
22780SOL     OW70113   1.969   3.485  14.143
22780SOL    HW170114   1.942   3.559  14.089
22780SOL    HW270115   1.992   3.416  14.081
22781SOL     OW70116  13.039   1.269   9.764
22781SOL    HW170117  13.008   1.195   9.817
22781SOL    HW270118  12.993   1.345   9.799
22782SOL     OW70119   5.930   4.804  12.767
22782SOL    HW170120   5.996   4.766  12.709
22782SOL    HW270121   5.858   4.740  12.767
22783SOL     OW70122   8.418   5.478   9.761
22783SOL    HW170123   8.341   5.466   9.705
22783SOL    HW270124   8.492   5.473   9.700
22784SOL     OW70125   7.084   5.123  12.703
22784SOL    HW170126   6.998   5.156  12.730
22784SOL    HW270127   7.105   5.056  12.767
22785SOL     OW70128  12.924  11.221   9.808
22785SOL    HW170129  12.923  11.125   9.813
22785SOL    HW270130  12.956  11.240   9.719
22786SOL     OW70131   9.630  11.573   9.034
22786SOL    HW170132   9.656  11.513   9.104
22786SOL    HW270133   9.574  11.521   8.977
22787SOL     OW70134   9.709   9.460   3.994
22787SOL    HW170135   9.693   9.518   4.068
22787SOL    HW270136   9.623   9.431   3.966
22788SOL     OW70137  11.890  12.121   4.316
22788SOL    HW170138  11.857  12.057   4.378
22788SOL    HW270139  11.888  12.076   4.231
22789SOL     OW70140  11.167  10.619   6.366
22789SOL    HW170141  11.177  10.643   6.274
22789SOL    HW270142  11.236  10.554   6.382
22790SOL     OW70143   4.880   9.338   7.140
22790SOL    HW170144   4.839   9.251   7.136
22790SOL    HW270145   4.961   9.324   7.188
22791SOL     OW70146  13.347   3.004   9.227
22791SOL    HW170147  13.421   2.944   9.234
22791SOL    HW270148  13.297   2.972   9.152
22792SOL     OW70149  14.061  13.434  12.715
22792SOL    HW170150  14.099  13.519  12.691
22792SOL    HW270151  14.130  13.371  12.698
22793SOL     OW70152   5.780   6.891   7.273
22793SOL    HW170153   5.787   6.847   7.189
22793SOL    HW270154   5.851   6.956   7.273
22794SOL     OW70155  13.162   6.517   5.099
22794SOL    HW170156  13.145   6.610   5.112
22794SOL    HW270157  13.245   6.502   5.142
22795SOL     OW70158   9.706   0.958   9.393
22795SOL    HW170159   9.645   1.031   9.407
22795SOL    HW270160   9.753   0.950   9.476
22796SOL     OW70161   6.609  13.516  14.568
22796SOL    HW170162   6.592  13.474  14.484
22796SOL    HW270163   6.533  13.572  14.584
22797SOL     OW70164   3.681   9.519   3.604
22797SOL    HW170165   3.655   9.550   3.518
22797SOL    HW270166   3.732   9.591   3.642
22798SOL     OW70167  13.692  14.176   8.044
22798SOL    HW170168  13.701  14.085   8.072
22798SOL    HW270169  13.753  14.225   8.100
22799SOL     OW70170  14.557  11.566   1.606
22799SOL    HW170171  14.498  11.503   1.648
22799SOL    HW270172  14.645  11.536   1.629
22800SOL     OW70173   1.720   8.510   0.218
22800SOL    HW170174   1.652   8.502   0.284
22800SOL    HW270175   1.802   8.496   0.266
22801SOL     OW70176   7.938   4.076   4.242
22801SOL    HW170177   7.975   4.162   4.221
22801SOL    HW270178   7.888   4.090   4.322
22802SOL     OW70179   5.539  12.417  12.826
22802SOL    HW170180   5.505  12.405  12.915
22802SOL    HW270181   5.634  12.409  12.836
22803SOL     OW70182   0.044   0.706  11.631
22803SOL    HW170183   0.068   0.650  11.705
22803SOL    HW270184   0.055   0.795  11.663
22804SOL     OW70185  14.861  11.173  11.046
22804SOL    HW170186  14.874  11.203  10.956
22804SOL    HW270187  14.790  11.228  11.080
22805SOL     OW70188   2.491   6.697   5.028
22805SOL    HW170189   2.552   6.627   5.006
22805SOL    HW270190   2.483   6.693   5.124
22806SOL     OW70191  14.524  14.711   8.096
22806SOL    HW170192  14.455  14.774   8.075
22806SOL    HW270193  14.604  14.749   8.060
22807SOL     OW70194   4.555  12.444   5.570
22807SOL    HW170195   4.560  12.537   5.548
22807SOL    HW270196   4.641  12.409   5.547
22808SOL     OW70197   1.346   3.226   9.731
22808SOL    HW170198   1.412   3.213   9.663
22808SOL    HW270199   1.381   3.298   9.784
22809SOL     OW70200  10.864   7.400   2.468
22809SOL    HW170201  10.834   7.310   2.458
22809SOL    HW270202  10.792   7.453   2.436
22810SOL     OW70203  13.372   0.590   4.568
22810SOL    HW170204  13.323   0.587   4.486
22810SOL    HW270205  13.356   0.506   4.609
22811SOL     OW70206   0.092   1.828   0.264
22811SOL    HW170207   0.020   1.873   0.221
22811SOL    HW270208   0.141   1.787   0.192
22812SOL     OW70209  13.624   9.813   1.765
22812SOL    HW170210  13.591   9.735   1.810
22812SOL    HW270211  13.549   9.849   1.719
22813SOL     OW70212   5.938   6.210   9.112
22813SOL    HW170213   5.895   6.267   9.176
22813SOL    HW270214   6.030   6.236   9.116
22814SOL     OW70215   8.176  11.783   9.835
22814SOL    HW170216   8.257  11.739   9.862
22814SOL    HW270217   8.193  11.876   9.850
22815SOL     OW70218   3.084   6.464  11.155
22815SOL    HW170219   3.062   6.460  11.248
22815SOL    HW270220   3.003   6.493  11.112
22816SOL     OW70221   5.275   2.594   6.296
22816SOL    HW170222   5.322   2.596   6.379
22816SOL    HW270223   5.249   2.502   6.285
22817SOL     OW70224   8.998   4.913  14.732
22817SOL    HW170225   9.008   5.007  14.714
22817SOL    HW270226   8.904   4.903  14.750
22818SOL     OW70227   4.241  14.602   4.481
22818SOL    HW170228   4.194  14.587   4.563
22818SOL    HW270229   4.187  14.665   4.434
22819SOL     OW70230  10.709   7.633   0.402
22819SOL    HW170231  10.771   7.588   0.346
22819SOL    HW270232  10.693   7.716   0.357
22820SOL     OW70233   8.318   1.200  13.461
22820SOL    HW170234   8.248   1.171  13.404
22820SOL    HW270235   8.338   1.289  13.432
22821SOL     OW70236  13.423  11.258   0.406
22821SOL    HW170237  13.382  11.329   0.356
22821SOL    HW270238  13.463  11.302   0.481
22822SOL     OW70239   0.997  12.498   5.188
22822SOL    HW170240   0.905  12.521   5.181
22822SOL    HW270241   0.998  12.402   5.191
22823SOL     OW70242  10.961   8.329   8.437
22823SOL    HW170243  10.868   8.349   8.436
22823SOL    HW270244  10.971   8.266   8.509
22824SOL     OW70245   3.667  13.743   8.299
22824SOL    HW170246   3.727  13.669   8.301
22824SOL    HW270247   3.661  13.772   8.390
22825SOL     OW70248  12.551   8.134  13.898
22825SOL    HW170249  12.570   8.124  13.992
22825SOL    HW270250  12.541   8.044  13.867
22826SOL     OW70251   5.284  10.271  13.086
22826SOL    HW170252   5.284  10.297  13.178
22826SOL    HW270253   5.341  10.194  13.082
22827SOL     OW70254   9.816  13.504   8.442
22827SOL    HW170255   9.878  13.502   8.514
22827SOL    HW270256   9.808  13.413   8.414
22828SOL     OW70257   9.942   0.283   9.742
22828SOL    HW170258  10.034   0.257   9.753
22828SOL    HW270259   9.894   0.226   9.802
22829SOL     OW70260   0.193   7.334   4.396
22829SOL    HW170261   0.101   7.361   4.400
22829SOL    HW270262   0.191   7.250   4.350
22830SOL     OW70263   2.745  12.081   2.258
22830SOL    HW170264   2.665  12.035   2.284
22830SOL    HW270265   2.735  12.169   2.294
22831SOL     OW70266   6.529   7.984  10.201
22831SOL    HW170267   6.585   7.971  10.278
22831SOL    HW270268   6.585   7.961  10.127
22832SOL     OW70269   0.155   9.821  11.153
22832SOL    HW170270   0.196   9.881  11.090
22832SOL    HW270271   0.224   9.759  11.177
22833SOL     OW70272   3.934  13.696   6.888
22833SOL    HW170273   4.026  13.690   6.864
22833SOL    HW270274   3.916  13.615   6.935
22834SOL     OW70275   4.377   6.490   7.091
22834SOL    HW170276   4.390   6.396   7.095
22834SOL    HW270277   4.449   6.522   7.037
22835SOL     OW70278   1.376   4.530  13.245
22835SOL    HW170279   1.387   4.622  13.223
22835SOL    HW270280   1.281   4.519  13.255
22836SOL     OW70281   6.237   3.376   4.148
22836SOL    HW170282   6.183   3.307   4.110
22836SOL    HW270283   6.197   3.458   4.118
22837SOL     OW70284   1.101  12.638  10.577
22837SOL    HW170285   1.088  12.695  10.652
22837SOL    HW270286   1.151  12.564  10.611
22838SOL     OW70287  13.870   5.665  13.592
22838SOL    HW170288  13.957   5.652  13.630
22838SOL    HW270289  13.845   5.578  13.560
22839SOL     OW70290   6.729  10.043  13.372
22839SOL    HW170291   6.795  10.102  13.409
22839SOL    HW270292   6.712   9.979  13.441
22840SOL     OW70293  14.355   0.826  11.747
22840SOL    HW170294  14.397   0.860  11.668
22840SOL    HW270295  14.396   0.740  11.760
22841SOL     OW70296   1.616   8.236  13.589
22841SOL    HW170297   1.687   8.227  13.653
22841SOL    HW270298   1.633   8.320  13.547
22842SOL     OW70299   3.726   7.679   8.012
22842SOL    HW170300   3.637   7.707   7.989
22842SOL    HW270301   3.776   7.689   7.930
22843SOL     OW70302   2.295  13.395  12.822
22843SOL    HW170303   2.238  13.454  12.772
22843SOL    HW270304   2.383  13.427  12.806
22844SOL     OW70305   9.972  13.475   6.578
22844SOL    HW170306  10.063  13.480   6.607
22844SOL    HW270307   9.977  13.447   6.486
22845SOL     OW70308  12.135  11.588   4.203
22845SOL    HW170309  12.164  11.531   4.132
22845SOL    HW270310  12.054  11.548   4.235
22846SOL     OW70311   8.709   7.831   0.421
22846SOL    HW170312   8.788   7.809   0.370
22846SOL    HW270313   8.706   7.927   0.419
22847SOL     OW70314  14.367  10.934   9.321
22847SOL    HW170315  14.374  10.851   9.275
22847SOL    HW270316  14.342  10.997   9.254
22848SOL     OW70317  10.774  14.605  13.421
22848SOL    HW170318  10.772  14.528  13.364
22848SOL    HW270319  10.783  14.679  13.361
22849SOL     OW70320   9.579   3.489   7.727
22849SOL    HW170321   9.624   3.502   7.643
22849SOL    HW270322   9.616   3.408   7.762
22850SOL     OW70323  11.584  12.640   0.779
22850SOL    HW170324  11.604  12.623   0.687
22850SOL    HW270325  11.669  12.638   0.823
22851SOL     OW70326   6.353   4.637   9.514
22851SOL    HW170327   6.377   4.608   9.426
22851SOL    HW270328   6.324   4.728   9.502
22852SOL     OW70329   4.267   2.938   1.222
22852SOL    HW170330   4.182   2.894   1.220
22852SOL    HW270331   4.254   3.016   1.168
22853SOL     OW70332   0.294   7.625  12.856
22853SOL    HW170333   0.339   7.546  12.884
22853SOL    HW270334   0.358   7.695  12.869
22854SOL     OW70335   8.457   5.395  13.400
22854SOL    HW170336   8.480   5.366  13.311
22854SOL    HW270337   8.530   5.452  13.425
22855SOL     OW70338   3.181   7.305   2.723
22855SOL    HW170339   3.219   7.366   2.660
22855SOL    HW270340   3.093   7.338   2.740
22856SOL     OW70341   1.878  11.877   8.671
22856SOL    HW170342   1.971  11.889   8.654
22856SOL    HW270343   1.835  11.920   8.597
22857SOL     OW70344   5.498  14.612  10.581
22857SOL    HW170345   5.567  14.648  10.526
22857SOL    HW270346   5.543  14.555  10.643
22858SOL     OW70347   1.980   3.087   4.431
22858SOL    HW170348   2.018   3.070   4.518
22858SOL    HW270349   1.910   3.022   4.422
22859SOL     OW70350   5.288   1.939  10.442
22859SOL    HW170351   5.346   1.987  10.383
22859SOL    HW270352   5.281   1.852  10.402
22860SOL     OW70353   6.508   4.549   6.082
22860SOL    HW170354   6.597   4.570   6.110
22860SOL    HW270355   6.505   4.574   5.990
22861SOL     OW70356  10.151   0.546   5.471
22861SOL    HW170357  10.125   0.610   5.405
22861SOL    HW270358  10.197   0.596   5.538
22862SOL     OW70359  13.792   5.349   5.580
22862SOL    HW170360  13.882   5.325   5.604
22862SOL    HW270361  13.780   5.312   5.492
22863SOL     OW70362   3.245   6.247  11.796
22863SOL    HW170363   3.240   6.338  11.824
22863SOL    HW270364   3.188   6.199  11.855
22864SOL     OW70365   9.057   4.809   6.720
22864SOL    HW170366   9.125   4.762   6.671
22864SOL    HW270367   8.976   4.762   6.698
22865SOL     OW70368   1.044   0.463   9.301
22865SOL    HW170369   1.094   0.520   9.359
22865SOL    HW270370   1.104   0.442   9.230
22866SOL     OW70371   7.946   2.925   4.968
22866SOL    HW170372   7.948   3.008   4.921
22866SOL    HW270373   8.037   2.894   4.966
22867SOL     OW70374  11.291   5.550   2.509
22867SOL    HW170375  11.267   5.510   2.592
22867SOL    HW270376  11.303   5.643   2.530
22868SOL     OW70377   7.053   8.948   0.756
22868SOL    HW170378   7.016   9.034   0.774
22868SOL    HW270379   7.019   8.925   0.669
22869SOL     OW70380   5.489  12.399   5.452
22869SOL    HW170381   5.409  12.373   5.407
22869SOL    HW270382   5.541  12.318   5.457
22870SOL     OW70383  10.400  11.148  10.037
22870SOL    HW170384  10.437  11.211  10.099
22870SOL    HW270385  10.416  11.187   9.951
22871SOL     OW70386  12.261   1.633   0.802
22871SOL    HW170387  12.207   1.629   0.723
22871SOL    HW270388  12.294   1.544   0.814
22872SOL     OW70389   8.494   4.299   5.788
22872SOL    HW170390   8.482   4.239   5.862
22872SOL    HW270391   8.570   4.352   5.812
22873SOL     OW70392   4.544  12.420  12.060
22873SOL    HW170393   4.472  12.361  12.082
22873SOL    HW270394   4.603  12.367  12.006
22874SOL     OW70395   6.154  14.445  13.021
22874SOL    HW170396   6.171  14.526  12.973
22874SOL    HW270397   6.232  14.432  13.075
22875SOL     OW70398   7.671  13.639   7.029
22875SOL    HW170399   7.585  13.676   7.011
22875SOL    HW270400   7.653  13.550   7.059
22876SOL     OW70401   9.761   2.127   1.514
22876SOL    HW170402   9.700   2.067   1.469
22876SOL    HW270403   9.815   2.069   1.568
22877SOL     OW70404  12.456   8.347  12.930
22877SOL    HW170405  12.436   8.376  13.019
22877SOL    HW270406  12.383   8.380  12.878
22878SOL     OW70407   5.760  13.374   5.673
22878SOL    HW170408   5.825  13.315   5.635
22878SOL    HW270409   5.749  13.442   5.607
22879SOL     OW70410  10.110  14.405   1.559
22879SOL    HW170411  10.147  14.466   1.624
22879SOL    HW270412  10.017  14.403   1.578
22880SOL     OW70413   0.243  11.720  10.510
22880SOL    HW170414   0.307  11.678  10.567
22880SOL    HW270415   0.234  11.809  10.545
22881SOL     OW70416   0.540   4.634   3.270
22881SOL    HW170417   0.497   4.626   3.185
22881SOL    HW270418   0.469   4.656   3.330
22882SOL     OW70419   3.520   9.465  13.723
22882SOL    HW170420   3.568   9.384  13.736
22882SOL    HW270421   3.517   9.476  13.627
22883SOL     OW70422   5.268   2.974   3.500
22883SOL    HW170423   5.273   2.988   3.405
22883SOL    HW270424   5.175   2.972   3.519
22884SOL     OW70425   5.048   4.333   3.920
22884SOL    HW170426   5.006   4.356   3.837
22884SOL    HW270427   5.103   4.409   3.940
22885SOL     OW70428   1.256   4.658  14.854
22885SOL    HW170429   1.169   4.624  14.834
22885SOL    HW270430   1.257   4.746  14.816
22886SOL     OW70431  10.827   9.895  10.601
22886SOL    HW170432  10.888   9.842  10.653
22886SOL    HW270433  10.873   9.909  10.519
22887SOL     OW70434   6.550   0.402  11.027
22887SOL    HW170435   6.629   0.446  10.995
22887SOL    HW270436   6.583   0.326  11.076
22888SOL     OW70437   5.630   4.138   2.003
22888SOL    HW170438   5.701   4.083   1.971
22888SOL    HW270439   5.553   4.107   1.956
22889SOL     OW70440   3.162   5.204   4.356
22889SOL    HW170441   3.168   5.299   4.366
22889SOL    HW270442   3.139   5.191   4.264
22890SOL     OW70443   7.810   9.448  11.392
22890SOL    HW170444   7.822   9.502  11.470
22890SOL    HW270445   7.813   9.358  11.424
22891SOL     OW70446   6.331   4.842  11.383
22891SOL    HW170447   6.417   4.802  11.396
22891SOL    HW270448   6.317   4.838  11.289
22892SOL     OW70449   9.106   4.138   9.049
22892SOL    HW170450   9.186   4.191   9.054
22892SOL    HW270451   9.035   4.202   9.051
22893SOL     OW70452   2.122  10.599   8.309
22893SOL    HW170453   2.043  10.631   8.354
22893SOL    HW270454   2.121  10.643   8.224
22894SOL     OW70455   9.712   6.289   7.176
22894SOL    HW170456   9.717   6.384   7.182
22894SOL    HW270457   9.618   6.270   7.174
22895SOL     OW70458  10.302  13.486   9.785
22895SOL    HW170459  10.282  13.419   9.850
22895SOL    HW270460  10.398  13.490   9.783
22896SOL     OW70461  12.149   6.034  13.122
22896SOL    HW170462  12.166   5.940  13.121
22896SOL    HW270463  12.201   6.067  13.196
22897SOL     OW70464   2.593   5.344   4.491
22897SOL    HW170465   2.595   5.440   4.488
22897SOL    HW270466   2.643   5.322   4.570
22898SOL     OW70467   6.539   7.346  10.148
22898SOL    HW170468   6.635   7.337  10.142
22898SOL    HW270469   6.526   7.409  10.219
22899SOL     OW70470   0.985  10.433   4.281
22899SOL    HW170471   1.080  10.439   4.274
22899SOL    HW270472   0.969  10.419   4.374
22900SOL     OW70473   6.479   7.794   7.874
22900SOL    HW170474   6.496   7.700   7.871
22900SOL    HW270475   6.386   7.803   7.857
22901SOL     OW70476   6.023   5.911  12.897
22901SOL    HW170477   6.059   5.865  12.972
22901SOL    HW270478   5.993   5.995  12.932
22902SOL     OW70479   2.392   7.128  13.949
22902SOL    HW170480   2.397   7.047  14.000
22902SOL    HW270481   2.477   7.169  13.962
22903SOL     OW70482   9.669   1.513  13.877
22903SOL    HW170483   9.705   1.601  13.881
22903SOL    HW270484   9.714   1.465  13.947
22904SOL     OW70485  10.182   6.888  12.682
22904SOL    HW170486  10.196   6.929  12.767
22904SOL    HW270487  10.214   6.799  12.693
22905SOL     OW70488   6.072  14.562   5.033
22905SOL    HW170489   6.115  14.633   5.079
22905SOL    HW270490   6.143  14.505   5.003
22906SOL     OW70491   8.109  13.814   1.952
22906SOL    HW170492   8.068  13.729   1.969
22906SOL    HW270493   8.177  13.795   1.888
22907SOL     OW70494  12.497  14.261   4.279
22907SOL    HW170495  12.444  14.202   4.224
22907SOL    HW270496  12.547  14.313   4.216
22908SOL     OW70497   3.248   1.096   6.632
22908SOL    HW170498   3.298   1.113   6.712
22908SOL    HW270499   3.273   1.007   6.607
22909SOL     OW70500   6.405  11.721   4.477
22909SOL    HW170501   6.424  11.765   4.560
22909SOL    HW270502   6.434  11.782   4.410
22910SOL     OW70503   0.974   2.894   8.353
22910SOL    HW170504   0.999   2.893   8.260
22910SOL    HW270505   0.882   2.922   8.353
22911SOL     OW70506  12.176  10.311   7.188
22911SOL    HW170507  12.089  10.350   7.187
22911SOL    HW270508  12.235  10.382   7.163
22912SOL     OW70509  10.401   1.041   6.828
22912SOL    HW170510  10.310   1.013   6.832
22912SOL    HW270511  10.433   1.007   6.744
22913SOL     OW70512   4.310   5.543  13.249
22913SOL    HW170513   4.343   5.545  13.159
22913SOL    HW270514   4.327   5.454  13.279
22914SOL     OW70515   5.891   3.049   3.268
22914SOL    HW170516   5.860   2.968   3.308
22914SOL    HW270517   5.959   3.021   3.206
22915SOL     OW70518  13.090   3.369  12.954
22915SOL    HW170519  13.132   3.324  12.880
22915SOL    HW270520  12.996   3.363  12.935
22916SOL     OW70521  10.069   4.802   4.823
22916SOL    HW170522  10.008   4.762   4.885
22916SOL    HW270523  10.124   4.729   4.793
22917SOL     OW70524  14.254  10.719   6.493
22917SOL    HW170525  14.167  10.681   6.500
22917SOL    HW270526  14.305  10.653   6.446
22918SOL     OW70527   6.661   0.353   2.699
22918SOL    HW170528   6.595   0.297   2.658
22918SOL    HW270529   6.630   0.442   2.685
22919SOL     OW70530   9.500   0.046   6.938
22919SOL    HW170531   9.422   0.047   6.993
22919SOL    HW270532   9.522   0.138   6.924
22920SOL     OW70533   5.755   4.264  10.275
22920SOL    HW170534   5.684   4.243  10.215
22920SOL    HW270535   5.827   4.207  10.247
22921SOL     OW70536  13.775  10.853  11.170
22921SOL    HW170537  13.844  10.858  11.237
22921SOL    HW270538  13.822  10.845  11.088
22922SOL     OW70539   5.450   0.855   3.043
22922SOL    HW170540   5.523   0.833   3.100
22922SOL    HW270541   5.372   0.830   3.092
22923SOL     OW70542  14.116   6.490   3.656
22923SOL    HW170543  14.189   6.549   3.675
22923SOL    HW270544  14.115   6.427   3.728
22924SOL     OW70545   9.340   2.443   0.618
22924SOL    HW170546   9.251   2.444   0.654
22924SOL    HW270547   9.328   2.437   0.523
22925SOL     OW70548   6.295  13.043   8.365
22925SOL    HW170549   6.314  13.021   8.274
22925SOL    HW270550   6.320  13.135   8.374
22926SOL     OW70551  10.716   6.838   9.118
22926SOL    HW170552  10.796   6.842   9.172
22926SOL    HW270553  10.677   6.924   9.126
22927SOL     OW70554  11.182   4.435  10.684
22927SOL    HW170555  11.189   4.494  10.759
22927SOL    HW270556  11.175   4.348  10.723
22928SOL     OW70557  12.679   0.400   2.270
22928SOL    HW170558  12.608   0.368   2.326
22928SOL    HW270559  12.754   0.345   2.293
22929SOL     OW70560   8.616  10.073   4.861
22929SOL    HW170561   8.578  10.071   4.948
22929SOL    HW270562   8.590   9.989   4.821
22930SOL     OW70563   5.934  14.720   7.034
22930SOL    HW170564   5.923  14.669   6.954
22930SOL    HW270565   6.028  14.736   7.041
22931SOL     OW70566   2.007   3.336   5.676
22931SOL    HW170567   1.913   3.342   5.660
22931SOL    HW270568   2.027   3.413   5.730
22932SOL     OW70569   6.928  14.290   9.822
22932SOL    HW170570   6.979  14.353   9.771
22932SOL    HW270571   6.906  14.336   9.902
22933SOL     OW70572   8.301  14.334  14.100
22933SOL    HW170573   8.248  14.255  14.104
22933SOL    HW270574   8.269  14.381  14.023
22934SOL     OW70575   5.464   7.944  13.796
22934SOL    HW170576   5.445   7.855  13.824
22934SOL    HW270577   5.380   7.989  13.799
22935SOL     OW70578   7.267  11.330   9.572
22935SOL    HW170579   7.198  11.358   9.631
22935SOL    HW270580   7.286  11.240   9.598
22936SOL     OW70581  10.006  10.537   0.285
22936SOL    HW170582   9.923  10.553   0.240
22936SOL    HW270583  10.020  10.614   0.339
22937SOL     OW70584   2.818   0.906   9.755
22937SOL    HW170585   2.879   0.911   9.829
22937SOL    HW270586   2.752   0.972   9.775
22938SOL     OW70587   4.649   2.519   8.619
22938SOL    HW170588   4.653   2.427   8.594
22938SOL    HW270589   4.618   2.518   8.710
22939SOL     OW70590   9.758   8.804   5.204
22939SOL    HW170591   9.719   8.887   5.231
22939SOL    HW270592   9.748   8.747   5.280
22940SOL     OW70593   7.459   9.442   8.835
22940SOL    HW170594   7.407   9.380   8.784
22940SOL    HW270595   7.548   9.406   8.832
22941SOL     OW70596   5.143   8.811  12.611
22941SOL    HW170597   5.108   8.873  12.676
22941SOL    HW270598   5.133   8.855  12.527
22942SOL     OW70599   2.050   0.536  10.406
22942SOL    HW170600   2.021   0.493  10.486
22942SOL    HW270601   1.999   0.493  10.336
22943SOL     OW70602   9.049   2.960   6.542
22943SOL    HW170603   9.091   2.882   6.507
22943SOL    HW270604   9.078   2.966   6.633
22944SOL     OW70605   4.950   3.717   3.735
22944SOL    HW170606   5.042   3.721   3.762
22944SOL    HW270607   4.918   3.807   3.745
22945SOL     OW70608  12.517   1.213   0.816
22945SOL    HW170609  12.598   1.164   0.803
22945SOL    HW270610  12.467   1.161   0.880
22946SOL     OW70611   2.210  12.190  12.208
22946SOL    HW170612   2.146  12.220  12.272
22946SOL    HW270613   2.288  12.169  12.261
22947SOL     OW70614   2.522   0.632  10.975
22947SOL    HW170615   2.476   0.631  10.891
22947SOL    HW270616   2.588   0.701  10.966
22948SOL     OW70617  12.651   4.644   8.590
22948SOL    HW170618  12.628   4.551   8.591
22948SOL    HW270619  12.624   4.676   8.676
22949SOL     OW70620   4.304  12.852  13.483
22949SOL    HW170621   4.227  12.860  13.426
22949SOL    HW270622   4.359  12.787  13.440
22950SOL     OW70623  11.566  13.999  10.889
22950SOL    HW170624  11.601  13.911  10.875
22950SOL    HW270625  11.513  13.991  10.968
22951SOL     OW70626   3.584  13.388  14.715
22951SOL    HW170627   3.661  13.432  14.680
22951SOL    HW270628   3.522  13.458  14.733
22952SOL     OW70629  12.791   6.658   9.629
22952SOL    HW170630  12.762   6.569   9.609
22952SOL    HW270631  12.722   6.693   9.685
22953SOL     OW70632   0.261   3.586  10.824
22953SOL    HW170633   0.196   3.627  10.881
22953SOL    HW270634   0.286   3.506  10.871
22954SOL     OW70635   0.098   0.705  14.318
22954SOL    HW170636   0.163   0.736  14.381
22954SOL    HW270637   0.147   0.697  14.236
22955SOL     OW70638   0.376  10.937   9.158
22955SOL    HW170639   0.292  10.895   9.141
22955SOL    HW270640   0.406  10.898   9.240
22956SOL     OW70641   8.554   8.561  12.701
22956SOL    HW170642   8.632   8.613  12.719
22956SOL    HW270643   8.587   8.477  12.671
22957SOL     OW70644  12.162  12.317   6.753
22957SOL    HW170645  12.171  12.407   6.724
22957SOL    HW270646  12.074  12.291   6.723
22958SOL     OW70647   1.015   1.890  10.646
22958SOL    HW170648   0.928   1.929  10.633
22958SOL    HW270649   1.070   1.964  10.673
22959SOL     OW70650  12.534  11.611  11.838
22959SOL    HW170651  12.584  11.543  11.883
22959SOL    HW270652  12.445  11.600  11.871
22960SOL     OW70653   7.330   8.672   1.812
22960SOL    HW170654   7.419   8.665   1.779
22960SOL    HW270655   7.291   8.587   1.794
22961SOL     OW70656  12.048   2.800   8.434
22961SOL    HW170657  12.054   2.707   8.456
22961SOL    HW270658  12.129   2.819   8.387
22962SOL     OW70659   5.451   2.123  14.648
22962SOL    HW170660   5.512   2.128  14.575
22962SOL    HW270661   5.420   2.032  14.647
22963SOL     OW70662   4.275   7.081   8.117
22963SOL    HW170663   4.244   7.146   8.181
22963SOL    HW270664   4.286   7.001   8.168
22964SOL     OW70665   2.202   7.663  14.471
22964SOL    HW170666   2.144   7.692  14.541
22964SOL    HW270667   2.160   7.585  14.436
22965SOL     OW70668   1.978   0.672   9.883
22965SOL    HW170669   1.913   0.732   9.919
22965SOL    HW270670   2.062   0.707   9.911
22966SOL     OW70671   1.971  10.578   0.816
22966SOL    HW170672   1.979  10.567   0.911
22966SOL    HW270673   2.011  10.663   0.798
22967SOL     OW70674   0.657   0.607   9.156
22967SOL    HW170675   0.699   0.596   9.241
22967SOL    HW270676   0.663   0.521   9.114
22968SOL     OW70677  14.574   0.145   3.068
22968SOL    HW170678  14.622   0.143   3.151
22968SOL    HW270679  14.613   0.216   3.018
22969SOL     OW70680  11.289   4.880   5.925
22969SOL    HW170681  11.264   4.851   6.013
22969SOL    HW270682  11.256   4.969   5.919
22970SOL     OW70683   8.976   6.109   1.589
22970SOL    HW170684   8.897   6.115   1.535
22970SOL    HW270685   8.949   6.058   1.665
22971SOL     OW70686   1.511   2.003  14.517
22971SOL    HW170687   1.583   1.941  14.518
22971SOL    HW270688   1.454   1.975  14.588
22972SOL     OW70689   1.030   8.551  10.542
22972SOL    HW170690   1.080   8.577  10.620
22972SOL    HW270691   0.965   8.620  10.532
22973SOL     OW70692   7.498   2.565   0.324
22973SOL    HW170693   7.543   2.604   0.399
22973SOL    HW270694   7.420   2.620   0.312
22974SOL     OW70695  10.921   5.997   1.578
22974SOL    HW170696  10.985   5.926   1.571
22974SOL    HW270697  10.869   5.975   1.656
22975SOL     OW70698   9.590  14.448   6.277
22975SOL    HW170699   9.637  14.365   6.279
22975SOL    HW270700   9.659  14.514   6.287
22976SOL     OW70701   3.969   0.541   1.249
22976SOL    HW170702   3.992   0.450   1.270
22976SOL    HW270703   4.010   0.593   1.318
22977SOL     OW70704   7.519   1.142  10.166
22977SOL    HW170705   7.519   1.238  10.158
22977SOL    HW270706   7.603   1.122  10.206
22978SOL     OW70707   2.454   0.759   6.980
22978SOL    HW170708   2.474   0.685   7.038
22978SOL    HW270709   2.393   0.813   7.030
22979SOL     OW70710   0.721   9.354   8.168
22979SOL    HW170711   0.815   9.359   8.149
22979SOL    HW270712   0.691   9.275   8.123
22980SOL     OW70713   4.050   5.989   2.222
22980SOL    HW170714   4.086   6.018   2.306
22980SOL    HW270715   4.112   6.021   2.157
22981SOL     OW70716   0.196   8.400   1.078
22981SOL    HW170717   0.207   8.478   1.023
22981SOL    HW270718   0.129   8.425   1.142
22982SOL     OW70719  12.541   3.254   7.065
22982SOL    HW170720  12.542   3.160   7.050
22982SOL    HW270721  12.615   3.270   7.124
22983SOL     OW70722  10.908   1.012   7.531
22983SOL    HW170723  10.925   1.076   7.600
22983SOL    HW270724  10.823   1.037   7.496
22984SOL     OW70725  13.912   8.723   8.496
22984SOL    HW170726  13.837   8.732   8.555
22984SOL    HW270727  13.979   8.781   8.532
22985SOL     OW70728  13.476   8.053  11.866
22985SOL    HW170729  13.466   8.107  11.944
22985SOL    HW270730  13.388   8.016  11.851
22986SOL     OW70731  14.035  14.313   7.336
22986SOL    HW170732  13.945  14.312   7.370
22986SOL    HW270733  14.054  14.222   7.315
22987SOL     OW70734  13.504  11.488  11.464
22987SOL    HW170735  13.560  11.410  11.453
22987SOL    HW270736  13.439  11.481  11.394
22988SOL     OW70737  10.785  13.472  14.828
22988SOL    HW170738  10.826  13.443   0.031
22988SOL    HW270739  10.820  13.414  14.761
22989SOL     OW70740   8.091   1.421   5.774
22989SOL    HW170741   8.032   1.384   5.840
22989SOL    HW270742   8.112   1.347   5.717
22990SOL     OW70743   1.041   6.988   9.196
22990SOL    HW170744   1.079   6.978   9.284
22990SOL    HW270745   1.043   6.900   9.159
22991SOL     OW70746  14.650   3.402   6.200
22991SOL    HW170747  14.639   3.307   6.194
22991SOL    HW270748  14.743   3.414   6.221
22992SOL     OW70749   0.460  14.057   5.134
22992SOL    HW170750   0.434  14.095   5.050
22992SOL    HW270751   0.471  13.963   5.115
22993SOL     OW70752  13.364   9.505   8.193
22993SOL    HW170753  13.342   9.447   8.120
22993SOL    HW270754  13.361   9.593   8.155
22994SOL     OW70755  12.301  10.218  11.160
22994SOL    HW170756  12.365  10.288  11.170
22994SOL    HW270757  12.348  10.139  11.184
22995SOL     OW70758  13.918  11.372  12.808
22995SOL    HW170759  13.880  11.299  12.759
22995SOL    HW270760  14.010  11.349  12.819
22996SOL     OW70761   8.955   0.931   9.796
22996SOL    HW170762   8.913   0.858   9.750
22996SOL    HW270763   9.045   0.931   9.763
22997SOL     OW70764   8.904   8.852  10.343
22997SOL    HW170765   8.886   8.835  10.251
22997SOL    HW270766   8.976   8.793  10.366
22998SOL     OW70767  11.687  10.456   8.066
22998SOL    HW170768  11.748  10.442   8.139
22998SOL    HW270769  11.692  10.376   8.015
22999SOL     OW70770   1.463  13.120   3.513
22999SOL    HW170771   1.435  13.052   3.574
22999SOL    HW270772   1.469  13.199   3.566
23000SOL     OW70773  11.101   9.159   3.191
23000SOL    HW170774  11.037   9.103   3.147
23000SOL    HW270775  11.070   9.165   3.281
23001SOL     OW70776  10.063   0.479   6.139
23001SOL    HW170777  10.030   0.391   6.122
23001SOL    HW270778  10.152   0.465   6.173
23002SOL     OW70779   2.771  13.370   9.316
23002SOL    HW170780   2.775  13.349   9.223
23002SOL    HW270781   2.745  13.463   9.319
23003SOL     OW70782  11.658   4.417  13.605
23003SOL    HW170783  11.610   4.403  13.687
23003SOL    HW270784  11.726   4.349  13.605
23004SOL     OW70785  14.401   2.942   8.074
23004SOL    HW170786  14.429   3.027   8.040
23004SOL    HW270787  14.476   2.911   8.126
23005SOL     OW70788   9.516  12.241   0.753
23005SOL    HW170789   9.491  12.307   0.817
23005SOL    HW270790   9.522  12.160   0.802
23006SOL     OW70791  12.208   4.909  12.387
23006SOL    HW170792  12.233   4.896  12.296
23006SOL    HW270793  12.267   4.978  12.419
23007SOL     OW70794  14.209   3.000   0.863
23007SOL    HW170795  14.211   3.086   0.904
23007SOL    HW270796  14.290   2.995   0.813
23008SOL     OW70797   2.156  10.025   5.390
23008SOL    HW170798   2.230   9.992   5.339
23008SOL    HW270799   2.174   9.995   5.479
23009SOL     OW70800   1.482   2.878   1.364
23009SOL    HW170801   1.403   2.836   1.330
23009SOL    HW270802   1.524   2.917   1.288
23010SOL     OW70803   1.232   1.341   9.896
23010SOL    HW170804   1.235   1.263   9.951
23010SOL    HW270805   1.138   1.357   9.882
23011SOL     OW70806  12.791   5.966   3.197
23011SOL    HW170807  12.871   6.016   3.182
23011SOL    HW270808  12.725   6.008   3.142
23012SOL     OW70809   4.715   7.192  11.992
23012SOL    HW170810   4.708   7.201  12.087
23012SOL    HW270811   4.624   7.189  11.961
23013SOL     OW70812   6.198  11.101  13.500
23013SOL    HW170813   6.285  11.131  13.475
23013SOL    HW270814   6.185  11.138  13.588
23014SOL     OW70815  10.850   4.440  11.410
23014SOL    HW170816  10.783   4.498  11.446
23014SOL    HW270817  10.859   4.370  11.475
23015SOL     OW70818   9.780   7.674   4.743
23015SOL    HW170819   9.723   7.715   4.808
23015SOL    HW270820   9.752   7.713   4.659
23016SOL     OW70821   8.428  14.642   7.206
23016SOL    HW170822   8.508  14.595   7.231
23016SOL    HW270823   8.395  14.678   7.288
23017SOL     OW70824   6.577  10.643   6.613
23017SOL    HW170825   6.630  10.602   6.682
23017SOL    HW270826   6.602  10.736   6.615
23018SOL     OW70827   8.034   4.781   5.930
23018SOL    HW170828   8.123   4.801   5.961
23018SOL    HW270829   7.991   4.739   6.004
23019SOL     OW70830  13.444  11.982   0.197
23019SOL    HW170831  13.386  12.023   0.133
23019SOL    HW270832  13.518  11.950   0.145
23020SOL     OW70833   8.345  14.538   0.994
23020SOL    HW170834   8.393  14.544   0.912
23020SOL    HW270835   8.405  14.574   1.059
23021SOL     OW70836  14.752  12.654   7.850
23021SOL    HW170837  14.716  12.596   7.918
23021SOL    HW270838  14.784  12.730   7.898
23022SOL     OW70839  10.906   6.144  14.746
23022SOL    HW170840  10.813   6.120  14.740
23022SOL    HW270841  10.925   6.187  14.662
23023SOL     OW70842   9.914   2.205   8.300
23023SOL    HW170843   9.927   2.141   8.369
23023SOL    HW270844   9.897   2.152   8.222
23024SOL     OW70845  14.590  13.780   4.238
23024SOL    HW170846  14.496  13.790   4.225
23024SOL    HW270847  14.613  13.849   4.300
23025SOL     OW70848   0.221  11.239   1.326
23025SOL    HW170849   0.178  11.157   1.351
23025SOL    HW270850   0.158  11.283   1.270
23026SOL     OW70851   0.255  14.789   0.279
23026SOL    HW170852   0.276  14.720   0.343
23026SOL    HW270853   0.272  14.748   0.194
23027SOL     OW70854   0.442  12.008   7.070
23027SOL    HW170855   0.391  12.019   6.989
23027SOL    HW270856   0.483  12.093   7.085
23028SOL     OW70857  10.650   9.415  13.881
23028SOL    HW170858  10.706   9.432  13.957
23028SOL    HW270859  10.612   9.329  13.898
23029SOL     OW70860   3.879  11.638   3.202
23029SOL    HW170861   3.960  11.599   3.237
23029SOL    HW270862   3.884  11.730   3.226
23030SOL     OW70863  14.764   0.116   7.055
23030SOL    HW170864  14.770   0.181   6.985
23030SOL    HW270865  14.839   0.059   7.042
23031SOL     OW70866   8.243   8.695   2.738
23031SOL    HW170867   8.321   8.750   2.730
23031SOL    HW270868   8.192   8.716   2.660
23032SOL     OW70869   1.420   3.744   9.004
23032SOL    HW170870   1.413   3.839   8.995
23032SOL    HW270871   1.361   3.722   9.076
23033SOL     OW70872   9.691   1.526   8.982
23033SOL    HW170873   9.717   1.444   8.941
23033SOL    HW270874   9.723   1.594   8.923
23034SOL     OW70875   6.754  13.419   4.725
23034SOL    HW170876   6.749  13.324   4.730
23034SOL    HW270877   6.732  13.440   4.635
23035SOL     OW70878   0.364   7.771  14.760
23035SOL    HW170879   0.438   7.832  14.764
23035SOL    HW270880   0.405   7.685  14.744
23036SOL     OW70881   4.027   8.993   1.686
23036SOL    HW170882   4.056   9.084   1.676
23036SOL    HW270883   3.933   8.995   1.666
23037SOL     OW70884  11.691  12.578   1.164
23037SOL    HW170885  11.726  12.567   1.253
23037SOL    HW270886  11.597  12.586   1.176
23038SOL     OW70887  10.765   1.080  13.774
23038SOL    HW170888  10.749   1.155  13.832
23038SOL    HW270889  10.830   1.111  13.711
23039SOL     OW70890   3.215   1.850  12.130
23039SOL    HW170891   3.192   1.802  12.210
23039SOL    HW270892   3.167   1.806  12.061
23040SOL     OW70893  14.526   6.541   3.237
23040SOL    HW170894  14.615   6.576   3.245
23040SOL    HW270895  14.485   6.599   3.172
23041SOL     OW70896  12.019  13.677  11.062
23041SOL    HW170897  11.952  13.640  11.119
23041SOL    HW270898  12.101  13.646  11.099
23042SOL     OW70899   6.298  11.754   7.600
23042SOL    HW170900   6.369  11.808   7.634
23042SOL    HW270901   6.333  11.716   7.520
23043SOL     OW70902   2.189   9.099   3.014
23043SOL    HW170903   2.206   9.086   3.107
23043SOL    HW270904   2.157   9.014   2.984
23044SOL     OW70905   7.399   9.876   2.161
23044SOL    HW170906   7.363   9.842   2.079
23044SOL    HW270907   7.388   9.803   2.223
23045SOL     OW70908  14.278  10.145   6.046
23045SOL    HW170909  14.199  10.187   6.079
23045SOL    HW270910  14.270  10.152   5.951
23046SOL     OW70911   0.413   7.914  14.350
23046SOL    HW170912   0.489   7.855  14.347
23046SOL    HW270913   0.342   7.865  14.309
23047SOL     OW70914  11.267   7.070   4.233
23047SOL    HW170915  11.323   6.996   4.210
23047SOL    HW270916  11.255   7.063   4.327
23048SOL     OW70917   3.651   2.121   9.823
23048SOL    HW170918   3.735   2.147   9.859
23048SOL    HW270919   3.653   2.150   9.732
23049SOL     OW70920   2.116   9.424  11.984
23049SOL    HW170921   2.150   9.467  11.905
23049SOL    HW270922   2.176   9.351  11.999
23050SOL     OW70923   2.328  12.825  13.908
23050SOL    HW170924   2.329  12.921  13.909
23050SOL    HW270925   2.383  12.800  13.982
23051SOL     OW70926   2.482  14.721   9.677
23051SOL    HW170927   2.532  14.655   9.725
23051SOL    HW270928   2.495  14.802   9.727
23052SOL     OW70929  13.991  12.450   2.246
23052SOL    HW170930  13.947  12.401   2.315
23052SOL    HW270931  14.027  12.527   2.291
23053SOL     OW70932   1.633   7.859   5.985
23053SOL    HW170933   1.565   7.801   6.020
23053SOL    HW270934   1.714   7.810   5.994
23054SOL     OW70935   6.080   2.054   3.418
23054SOL    HW170936   6.173   2.044   3.401
23054SOL    HW270937   6.063   2.000   3.495
23055SOL     OW70938  11.760  13.361   6.511
23055SOL    HW170939  11.691  13.296   6.527
23055SOL    HW270940  11.747  13.389   6.421
23056SOL     OW70941   0.450   3.899   4.883
23056SOL    HW170942   0.371   3.947   4.860
23056SOL    HW270943   0.458   3.831   4.816
23057SOL     OW70944   9.197  10.628   7.842
23057SOL    HW170945   9.264  10.615   7.775
23057SOL    HW270946   9.146  10.703   7.811
23058SOL     OW70947  14.242   7.517   7.028
23058SOL    HW170948  14.316   7.477   7.075
23058SOL    HW270949  14.268   7.608   7.017
23059SOL     OW70950   5.874  13.202  14.350
23059SOL    HW170951   5.832  13.264  14.411
23059SOL    HW270952   5.840  13.116  14.377
23060SOL     OW70953   7.333   8.065  11.140
23060SOL    HW170954   7.318   8.102  11.227
23060SOL    HW270955   7.412   8.109  11.109
23061SOL     OW70956  12.402   4.073  11.280
23061SOL    HW170957  12.424   4.142  11.217
23061SOL    HW270958  12.344   4.014  11.232
23062SOL     OW70959   9.481  10.729  13.697
23062SOL    HW170960   9.536  10.760  13.625
23062SOL    HW270961   9.517  10.643  13.720
23063SOL     OW70962   7.735  13.424  11.843
23063SOL    HW170963   7.708  13.337  11.872
23063SOL    HW270964   7.774  13.465  11.921
23064SOL     OW70965  11.452  14.445  12.996
23064SOL    HW170966  11.462  14.529  12.952
23064SOL    HW270967  11.496  14.383  12.939
23065SOL     OW70968  14.138   8.343   5.324
23065SOL    HW170969  14.205   8.286   5.287
23065SOL    HW270970  14.164   8.432   5.297
23066SOL     OW70971   9.371   4.167  12.321
23066SOL    HW170972   9.333   4.232  12.262
23066SOL    HW270973   9.465   4.185  12.318
23067SOL     OW70974   9.435  13.332  11.566
23067SOL    HW170975   9.436  13.250  11.616
23067SOL    HW270976   9.527  13.352  11.552
23068SOL     OW70977   3.847   3.176   6.665
23068SOL    HW170978   3.806   3.110   6.722
23068SOL    HW270979   3.930   3.197   6.709
23069SOL     OW70980   6.763  13.219   1.772
23069SOL    HW170981   6.820  13.293   1.753
23069SOL    HW270982   6.741  13.182   1.687
23070SOL     OW70983  12.417  12.450   2.546
23070SOL    HW170984  12.451  12.497   2.622
23070SOL    HW270985  12.477  12.473   2.475
23071SOL     OW70986   0.670   8.820   0.168
23071SOL    HW170987   0.723   8.741   0.166
23071SOL    HW270988   0.728   8.888   0.202
23072SOL     OW70989   1.821   7.876   8.926
23072SOL    HW170990   1.829   7.784   8.902
23072SOL    HW270991   1.794   7.875   9.018
23073SOL     OW70992   6.294   3.156  12.047
23073SOL    HW170993   6.347   3.080  12.072
23073SOL    HW270994   6.312   3.221  12.115
23074SOL     OW70995   1.188   1.727  10.187
23074SOL    HW170996   1.174   1.705  10.279
23074SOL    HW270997   1.244   1.804  10.189
23075SOL     OW70998   6.921   0.902   0.616
23075SOL    HW170999   6.825   0.906   0.617
23075SOL    HW271000   6.948   0.990   0.640
23076SOL     OW71001  11.375   0.422   7.080
23076SOL    HW171002  11.333   0.337   7.090
23076SOL    HW271003  11.303   0.485   7.088
23077SOL     OW71004  13.098   3.528   7.716
23077SOL    HW171005  13.159   3.469   7.761
23077SOL    HW271006  13.056   3.472   7.650
23078SOL     OW71007   4.800  14.037   8.396
23078SOL    HW171008   4.754  14.108   8.441
23078SOL    HW271009   4.778  13.958   8.446
23079SOL     OW71010  10.831  10.977  10.710
23079SOL    HW171011  10.923  10.966  10.736
23079SOL    HW271012  10.835  11.042  10.640
23080SOL     OW71013   8.388   1.392   7.904
23080SOL    HW171014   8.307   1.435   7.876
23080SOL    HW271015   8.449   1.407   7.831
23081SOL     OW71016  10.678   6.973   5.628
23081SOL    HW171017  10.639   7.034   5.564
23081SOL    HW271018  10.602   6.930   5.668
23082SOL     OW71019   8.356   9.241   1.156
23082SOL    HW171020   8.328   9.296   1.230
23082SOL    HW271021   8.351   9.152   1.190
23083SOL     OW71022   7.796  10.504   0.596
23083SOL    HW171023   7.854  10.561   0.648
23083SOL    HW271024   7.711  10.511   0.640
23084SOL     OW71025  11.300   4.686   8.961
23084SOL    HW171026  11.229   4.687   9.026
23084SOL    HW271027  11.296   4.771   8.919
23085SOL     OW71028   4.356  14.831  12.203
23085SOL    HW171029   4.299  14.858  12.131
23085SOL    HW271030   4.440  14.873  12.185
23086SOL     OW71031  13.580   5.490   4.917
23086SOL    HW171032  13.528   5.462   4.842
23086SOL    HW271033  13.589   5.584   4.906
23087SOL     OW71034   2.124   9.770   2.428
23087SOL    HW171035   2.127   9.818   2.345
23087SOL    HW271036   2.133   9.837   2.496
23088SOL     OW71037  14.003   0.693   7.804
23088SOL    HW171038  13.915   0.707   7.769
23088SOL    HW271039  14.001   0.733   7.891
23089SOL     OW71040   3.324  12.250   1.564
23089SOL    HW171041   3.314  12.315   1.633
23089SOL    HW271042   3.383  12.184   1.602
23090SOL     OW71043  10.293   3.038   9.299
23090SOL    HW171044  10.266   3.009   9.212
23090SOL    HW271045  10.388   3.022   9.300
23091SOL     OW71046  14.061   6.075   6.557
23091SOL    HW171047  14.145   6.117   6.536
23091SOL    HW271048  14.053   6.086   6.652
23092SOL     OW71049   7.072   3.544   0.935
23092SOL    HW171050   7.086   3.610   1.002
23092SOL    HW271051   6.981   3.516   0.947
23093SOL     OW71052   4.428   9.386   5.186
23093SOL    HW171053   4.377   9.464   5.163
23093SOL    HW271054   4.505   9.390   5.129
23094SOL     OW71055   9.944   9.371   9.273
23094SOL    HW171056   9.874   9.434   9.290
23094SOL    HW271057   9.899   9.289   9.257
23095SOL     OW71058  12.131   3.784  11.863
23095SOL    HW171059  12.186   3.710  11.891
23095SOL    HW271060  12.077   3.748  11.792
23096SOL     OW71061  10.911   1.017   4.461
23096SOL    HW171062  10.925   1.064   4.544
23096SOL    HW271063  10.902   1.087   4.396
23097SOL     OW71064  10.356   2.344  14.870
23097SOL    HW171065  10.271   2.376   0.021
23097SOL    HW271066  10.368   2.262   0.041
23098SOL     OW71067   4.080   6.473   9.170
23098SOL    HW171068   4.004   6.510   9.215
23098SOL    HW271069   4.154   6.491   9.228
23099SOL     OW71070  13.245  13.273   5.780
23099SOL    HW171071  13.200  13.215   5.842
23099SOL    HW271072  13.267  13.351   5.831
23100SOL     OW71073   3.777   7.516  12.407
23100SOL    HW171074   3.794   7.532  12.500
23100SOL    HW271075   3.776   7.420  12.400
23101SOL     OW71076  10.536  10.193  11.630
23101SOL    HW171077  10.583  10.111  11.629
23101SOL    HW271078  10.567  10.240  11.552
23102SOL     OW71079   2.976   0.090   8.697
23102SOL    HW171080   2.984   0.043   8.780
23102SOL    HW271081   2.962   0.181   8.722
23103SOL     OW71082   9.827   9.183  14.430
23103SOL    HW171083   9.868   9.266  14.406
23103SOL    HW271084   9.763   9.206  14.497
23104SOL     OW71085   8.019  12.910  14.312
23104SOL    HW171086   8.104  12.880  14.279
23104SOL    HW271087   7.984  12.835  14.360
23105SOL     OW71088  14.081   8.878  13.739
23105SOL    HW171089  14.152   8.878  13.804
23105SOL    HW271090  14.097   8.956  13.686
23106SOL     OW71091   7.219   4.518   7.458
23106SOL    HW171092   7.256   4.441   7.503
23106SOL    HW271093   7.132   4.528   7.496
23107SOL     OW71094  14.112   7.789  12.279
23107SOL    HW171095  14.078   7.716  12.228
23107SOL    HW271096  14.116   7.755  12.369
23108SOL     OW71097   6.866   3.173   9.370
23108SOL    HW171098   6.836   3.195   9.282
23108SOL    HW271099   6.822   3.090   9.391
23109SOL     OW71100   0.831   3.468   1.625
23109SOL    HW171101   0.754   3.452   1.570
23109SOL    HW271102   0.880   3.385   1.622
23110SOL     OW71103  14.065   2.241   1.706
23110SOL    HW171104  14.065   2.336   1.709
23110SOL    HW271105  13.976   2.215   1.729
23111SOL     OW71106   8.606   2.692   9.932
23111SOL    HW171107   8.512   2.682   9.947
23111SOL    HW271108   8.612   2.739   9.849
23112SOL     OW71109   0.395   4.961   2.530
23112SOL    HW171110   0.487   4.939   2.546
23112SOL    HW271111   0.380   4.934   2.439
23113SOL     OW71112   1.618   7.288   4.735
23113SOL    HW171113   1.545   7.343   4.765
23113SOL    HW271114   1.600   7.275   4.641
23114SOL     OW71115  13.463   3.107   8.610
23114SOL    HW171116  13.471   3.158   8.690
23114SOL    HW271117  13.541   3.130   8.559
23115SOL     OW71118   5.840  14.418   7.098
23115SOL    HW171119   5.902  14.489   7.110
23115SOL    HW271120   5.779  14.450   7.031
23116SOL     OW71121  13.822   0.881   9.102
23116SOL    HW171122  13.842   0.963   9.058
23116SOL    HW271123  13.894   0.823   9.078
23117SOL     OW71124  13.826   4.328   9.274
23117SOL    HW171125  13.900   4.300   9.327
23117SOL    HW271126  13.749   4.306   9.327
23118SOL     OW71127   9.975  10.615  10.312
23118SOL    HW171128  10.064  10.589  10.287
23118SOL    HW271129   9.947  10.547  10.374
23119SOL     OW71130   1.640  14.538   4.921
23119SOL    HW171131   1.679  14.465   4.969
23119SOL    HW271132   1.559  14.502   4.885
23120SOL     OW71133   3.731  13.628   6.097
23120SOL    HW171134   3.699  13.556   6.151
23120SOL    HW271135   3.737  13.702   6.157
23121SOL     OW71136   7.717   8.759  14.835
23121SOL    HW171137   7.632   8.727  14.804
23121SOL    HW271138   7.781   8.720  14.775
23122SOL     OW71139   7.600   3.493  10.179
23122SOL    HW171140   7.586   3.548  10.102
23122SOL    HW271141   7.633   3.553  10.246
23123SOL     OW71142  12.487  10.480  13.794
23123SOL    HW171143  12.400  10.482  13.835
23123SOL    HW271144  12.547  10.502  13.864
23124SOL     OW71145  13.555   6.509   2.572
23124SOL    HW171146  13.491   6.522   2.501
23124SOL    HW271147  13.540   6.582   2.631
23125SOL     OW71148   5.769  10.634  14.742
23125SOL    HW171149   5.762  10.539  14.729
23125SOL    HW271150   5.840  10.644  14.804
23126SOL     OW71151  11.258   2.841  10.061
23126SOL    HW171152  11.252   2.933  10.089
23126SOL    HW271153  11.318   2.843   9.986
23127SOL     OW71154  11.619   1.580  12.433
23127SOL    HW171155  11.656   1.645  12.493
23127SOL    HW271156  11.665   1.594  12.351
23128SOL     OW71157  13.581  14.076   4.818
23128SOL    HW171158  13.601  14.018   4.745
23128SOL    HW271159  13.601  14.024   4.896
23129SOL     OW71160   2.327   4.149  12.631
23129SOL    HW171161   2.293   4.223  12.581
23129SOL    HW271162   2.373   4.189  12.705
23130SOL     OW71163   9.222   1.643   2.364
23130SOL    HW171164   9.237   1.572   2.427
23130SOL    HW271165   9.149   1.692   2.400
23131SOL     OW71166   0.337  12.426  14.270
23131SOL    HW171167   0.301  12.510  14.242
23131SOL    HW271168   0.262  12.379  14.308
23132SOL     OW71169   2.326  10.699   1.093
23132SOL    HW171170   2.357  10.782   1.056
23132SOL    HW271171   2.401  10.666   1.143
23133SOL     OW71172  10.229  11.846  10.534
23133SOL    HW171173  10.166  11.774  10.533
23133SOL    HW271174  10.255  11.856  10.442
23134SOL     OW71175   8.952   2.775   8.483
23134SOL    HW171176   9.005   2.781   8.404
23134SOL    HW271177   8.878   2.834   8.468
23135SOL     OW71178   7.053  13.002  11.328
23135SOL    HW171179   7.003  13.054  11.266
23135SOL    HW271180   7.069  13.062  11.401
23136SOL     OW71181   6.649   3.746   2.383
23136SOL    HW171182   6.684   3.683   2.447
23136SOL    HW271183   6.672   3.831   2.419
23137SOL     OW71184   7.504   8.953   6.613
23137SOL    HW171185   7.524   8.863   6.588
23137SOL    HW271186   7.536   9.006   6.539
23138SOL     OW71187   8.289   1.024   9.683
23138SOL    HW171188   8.294   1.066   9.597
23138SOL    HW271189   8.362   1.062   9.732
23139SOL     OW71190  13.917  10.523   0.285
23139SOL    HW171191  13.827  10.553   0.293
23139SOL    HW271192  13.909  10.435   0.247
23140SOL     OW71193  10.728   1.662  12.052
23140SOL    HW171194  10.789   1.638  11.982
23140SOL    HW271195  10.687   1.579  12.078
23141SOL     OW71196   7.758   1.994  13.538
23141SOL    HW171197   7.805   2.074  13.563
23141SOL    HW271198   7.779   1.931  13.607
23142SOL     OW71199   5.797   4.983   6.453
23142SOL    HW171200   5.862   5.034   6.404
23142SOL    HW271201   5.840   4.962   6.535
23143SOL     OW71202   3.945  14.025   5.243
23143SOL    HW171203   3.912  13.944   5.204
23143SOL    HW271204   3.957  14.084   5.168
23144SOL     OW71205  12.579   8.531  10.286
23144SOL    HW171206  12.560   8.561  10.198
23144SOL    HW271207  12.666   8.491  10.280
23145SOL     OW71208   4.619   8.107  12.909
23145SOL    HW171209   4.619   8.063  12.994
23145SOL    HW271210   4.609   8.037  12.845
23146SOL     OW71211   5.094   3.332  13.343
23146SOL    HW171212   5.069   3.245  13.373
23146SOL    HW271213   5.129   3.318  13.255
23147SOL     OW71214  14.676   4.017  11.004
23147SOL    HW171215  14.749   3.986  10.950
23147SOL    HW271216  14.686   4.112  11.005
23148SOL     OW71217   4.400   1.922   7.199
23148SOL    HW171218   4.465   1.929   7.128
23148SOL    HW271219   4.452   1.933   7.279
23149SOL     OW71220   4.024   7.422  11.332
23149SOL    HW171221   4.047   7.410  11.240
23149SOL    HW271222   3.977   7.342  11.356
23150SOL     OW71223   9.758   8.881   4.103
23150SOL    HW171224   9.703   8.882   4.181
23150SOL    HW271225   9.715   8.819   4.044
23151SOL     OW71226  10.890   2.657   6.607
23151SOL    HW171227  10.920   2.567   6.614
23151SOL    HW271228  10.877   2.672   6.513
23152SOL     OW71229   4.936   7.065   4.999
23152SOL    HW171230   4.898   7.037   4.916
23152SOL    HW271231   4.954   6.983   5.046
23153SOL     OW71232   0.554   1.231   1.993
23153SOL    HW171233   0.539   1.192   1.907
23153SOL    HW271234   0.474   1.212   2.043
23154SOL     OW71235   6.406  14.465  13.133
23154SOL    HW171236   6.446  14.483  13.218
23154SOL    HW271237   6.475  14.420  13.084
23155SOL     OW71238   5.290  14.041   2.176
23155SOL    HW171239   5.252  13.953   2.182
23155SOL    HW271240   5.372  14.028   2.128
23156SOL     OW71241  13.507   9.100  11.463
23156SOL    HW171242  13.486   9.101  11.370
23156SOL    HW271243  13.537   9.011  11.481
23157SOL     OW71244   0.169   6.517   6.181
23157SOL    HW171245   0.137   6.592   6.132
23157SOL    HW271246   0.244   6.486   6.131
23158SOL     OW71247   7.225  13.732  10.432
23158SOL    HW171248   7.280  13.773  10.499
23158SOL    HW271249   7.178  13.804  10.391
23159SOL     OW71250   0.691  13.317  14.720
23159SOL    HW171251   0.701  13.405  14.683
23159SOL    HW271252   0.751  13.262  14.669
23160SOL     OW71253   1.948  10.267   6.561
23160SOL    HW171254   1.952  10.312   6.646
23160SOL    HW271255   1.888  10.319   6.509
23161SOL     OW71256   6.220   9.690   1.648
23161SOL    HW171257   6.314   9.702   1.640
23161SOL    HW271258   6.184   9.730   1.568
23162SOL     OW71259   2.149   8.681   4.119
23162SOL    HW171260   2.104   8.736   4.183
23162SOL    HW271261   2.095   8.602   4.113
23163SOL     OW71262   7.640   5.084   9.590
23163SOL    HW171263   7.652   5.175   9.563
23163SOL    HW271264   7.646   5.086   9.686
23164SOL     OW71265   3.308   1.361   9.434
23164SOL    HW171266   3.358   1.361   9.516
23164SOL    HW271267   3.226   1.318   9.456
23165SOL     OW71268   5.695   9.370   5.816
23165SOL    HW171269   5.718   9.436   5.750
23165SOL    HW271270   5.753   9.387   5.889
23166SOL     OW71271   3.456   8.366   4.032
23166SOL    HW171272   3.381   8.307   4.025
23166SOL    HW271273   3.487   8.377   3.942
23167SOL     OW71274   2.794  10.260   1.906
23167SOL    HW171275   2.743  10.184   1.933
23167SOL    HW271276   2.857  10.273   1.978
23168SOL     OW71277   1.935   0.368   7.711
23168SOL    HW171278   2.015   0.335   7.753
23168SOL    HW271279   1.959   0.455   7.680
23169SOL     OW71280   1.183   8.006  12.717
23169SOL    HW171281   1.212   7.986  12.628
23169SOL    HW271282   1.177   8.101  12.720
23170SOL     OW71283   3.507   2.531   1.507
23170SOL    HW171284   3.475   2.525   1.417
23170SOL    HW271285   3.491   2.444   1.544
23171SOL     OW71286   9.252  14.585  14.649
23171SOL    HW171287   9.291  14.667  14.620
23171SOL    HW271288   9.241  14.534  14.569
23172SOL     OW71289   1.849  13.725   1.471
23172SOL    HW171290   1.817  13.703   1.558
23172SOL    HW271291   1.828  13.818   1.461
23173SOL     OW71292  10.838  14.715   0.467
23173SOL    HW171293  10.763  14.661   0.443
23173SOL    HW271294  10.805  14.770   0.538
23174SOL     OW71295   2.538   8.788   0.633
23174SOL    HW171296   2.628   8.801   0.602
23174SOL    HW271297   2.535   8.834   0.716
23175SOL     OW71298   0.832  13.688   7.837
23175SOL    HW171299   0.916  13.674   7.794
23175SOL    HW271300   0.801  13.601   7.860
23176SOL     OW71301  13.407  14.414  11.418
23176SOL    HW171302  13.398  14.406  11.513
23176SOL    HW271303  13.318  14.434  11.388
23177SOL     OW71304   5.425   5.183   4.154
23177SOL    HW171305   5.426   5.278   4.164
23177SOL    HW271306   5.366   5.167   4.080
23178SOL     OW71307   4.814   6.339   9.565
23178SOL    HW171308   4.864   6.261   9.542
23178SOL    HW271309   4.763   6.359   9.486
23179SOL     OW71310   2.521   4.033   6.928
23179SOL    HW171311   2.609   4.048   6.963
23179SOL    HW271312   2.534   4.018   6.834
23180SOL     OW71313   9.530   7.403  14.207
23180SOL    HW171314   9.455   7.454  14.178
23180SOL    HW271315   9.537   7.420  14.301
23181SOL     OW71316   0.141  12.171   6.652
23181SOL    HW171317   0.118  12.101   6.592
23181SOL    HW271318   0.063  12.185   6.705
23182SOL     OW71319   3.009   7.957  14.203
23182SOL    HW171320   2.991   7.971  14.110
23182SOL    HW271321   3.104   7.969  14.211
23183SOL     OW71322  12.399  11.516   8.182
23183SOL    HW171323  12.317  11.519   8.133
23183SOL    HW271324  12.403  11.600   8.228
23184SOL     OW71325   8.364  12.815   5.747
23184SOL    HW171326   8.376  12.870   5.669
23184SOL    HW271327   8.282  12.768   5.730
23185SOL     OW71328   0.601  14.290  13.146
23185SOL    HW171329   0.676  14.346  13.130
23185SOL    HW271330   0.539  14.312  13.076
23186SOL     OW71331   5.010  10.659  14.253
23186SOL    HW171332   5.004  10.703  14.168
23186SOL    HW271333   4.973  10.722  14.315
23187SOL     OW71334   4.956  11.396   5.800
23187SOL    HW171335   4.912  11.321   5.761
23187SOL    HW271336   4.888  11.463   5.807
23188SOL     OW71337  13.426  11.581   3.816
23188SOL    HW171338  13.390  11.651   3.871
23188SOL    HW271339  13.429  11.619   3.728
23189SOL     OW71340   6.509  11.021   2.910
23189SOL    HW171341   6.487  11.109   2.880
23189SOL    HW271342   6.519  10.970   2.829
23190SOL     OW71343  10.991   5.060   8.975
23190SOL    HW171344  11.047   5.020   9.042
23190SOL    HW271345  10.904   5.024   8.993
23191SOL     OW71346  11.430   5.826   4.180
23191SOL    HW171347  11.438   5.882   4.103
23191SOL    HW271348  11.442   5.737   4.146
23192SOL     OW71349   0.897   4.370   4.179
23192SOL    HW171350   0.803   4.351   4.177
23192SOL    HW271351   0.939   4.288   4.154
23193SOL     OW71352   1.012   8.935   9.903
23193SOL    HW171353   1.031   8.842   9.910
23193SOL    HW271354   1.090   8.973   9.864
23194SOL     OW71355   0.414   5.085   0.052
23194SOL    HW171356   0.393   5.022  14.861
23194SOL    HW271357   0.428   5.167   0.005
23195SOL     OW71358   1.995  11.514   1.776
23195SOL    HW171359   1.930  11.449   1.802
23195SOL    HW271360   1.970  11.594   1.824
23196SOL     OW71361  14.147   5.831   7.640
23196SOL    HW171362  14.053   5.826   7.661
23196SOL    HW271363  14.191   5.797   7.718
23197SOL     OW71364  10.605   5.959  12.333
23197SOL    HW171365  10.552   5.919  12.264
23197SOL    HW271366  10.596   5.900  12.408
23198SOL     OW71367  13.961  13.984   8.908
23198SOL    HW171368  14.050  13.955   8.887
23198SOL    HW271369  13.965  14.080   8.900
23199SOL     OW71370   3.772   6.244   4.189
23199SOL    HW171371   3.857   6.287   4.182
23199SOL    HW271372   3.743   6.233   4.099
23200SOL     OW71373   4.303  12.548   9.344
23200SOL    HW171374   4.295  12.505   9.258
23200SOL    HW271375   4.397  12.560   9.356
23201SOL     OW71376   1.790   3.617   2.062
23201SOL    HW171377   1.735   3.551   2.105
23201SOL    HW271378   1.857   3.565   2.017
23202SOL     OW71379   8.511   2.292  10.915
23202SOL    HW171380   8.544   2.278  11.003
23202SOL    HW271381   8.581   2.260  10.858
23203SOL     OW71382  14.672   8.703  12.054
23203SOL    HW171383  14.719   8.622  12.073
23203SOL    HW271384  14.733   8.754  11.999
23204SOL     OW71385   9.297  10.780   5.351
23204SOL    HW171386   9.311  10.685   5.345
23204SOL    HW271387   9.306  10.812   5.262
23205SOL     OW71388   4.591  14.785   8.268
23205SOL    HW171389   4.620  14.807   8.357
23205SOL    HW271390   4.601  14.690   8.262
23206SOL     OW71391  13.180   0.161  10.035
23206SOL    HW171392  13.205   0.169   9.943
23206SOL    HW271393  13.252   0.203  10.083
23207SOL     OW71394  13.697   9.842   4.058
23207SOL    HW171395  13.700   9.882   4.145
23207SOL    HW271396  13.788   9.833   4.032
23208SOL     OW71397  11.423   7.696  10.431
23208SOL    HW171398  11.441   7.769  10.371
23208SOL    HW271399  11.509   7.668  10.461
23209SOL     OW71400   5.494  12.256   5.073
23209SOL    HW171401   5.482  12.350   5.088
23209SOL    HW271402   5.494  12.247   4.978
23210SOL     OW71403   2.216  11.428  10.594
23210SOL    HW171404   2.265  11.384  10.663
23210SOL    HW271405   2.228  11.372  10.517
23211SOL     OW71406   4.907  13.843   1.986
23211SOL    HW171407   4.903  13.787   1.908
23211SOL    HW271408   4.873  13.928   1.956
23212SOL     OW71409  13.542   6.810  10.667
23212SOL    HW171410  13.611   6.816  10.602
23212SOL    HW271411  13.556   6.887  10.723
23213SOL     OW71412  10.628   4.277  14.063
23213SOL    HW171413  10.723   4.268  14.075
23213SOL    HW271414  10.609   4.368  14.088
23214SOL     OW71415   6.151  11.616  10.977
23214SOL    HW171416   6.140  11.537  10.925
23214SOL    HW271417   6.244  11.636  10.972
23215SOL     OW71418  12.368  10.774  11.609
23215SOL    HW171419  12.419  10.780  11.689
23215SOL    HW271420  12.282  10.811  11.632
23216SOL     OW71421   3.624   3.782   3.700
23216SOL    HW171422   3.688   3.830   3.647
23216SOL    HW271423   3.648   3.802   3.791
23217SOL     OW71424  13.170   7.080   7.350
23217SOL    HW171425  13.140   7.038   7.431
23217SOL    HW271426  13.266   7.074   7.354
23218SOL     OW71427  11.879   2.728   4.255
23218SOL    HW171428  11.936   2.723   4.178
23218SOL    HW271429  11.940   2.723   4.330
23219SOL     OW71430   3.571   4.348  13.670
23219SOL    HW171431   3.602   4.438  13.685
23219SOL    HW271432   3.519   4.328  13.747
23220SOL     OW71433   8.726   1.659   8.765
23220SOL    HW171434   8.755   1.593   8.701
23220SOL    HW271435   8.711   1.738   8.713
23221SOL     OW71436   7.108   5.712   9.700
23221SOL    HW171437   7.166   5.787   9.711
23221SOL    HW271438   7.021   5.750   9.688
23222SOL     OW71439   4.008   5.537  11.290
23222SOL    HW171440   3.982   5.478  11.360
23222SOL    HW271441   3.937   5.602  11.286
23223SOL     OW71442   3.735   2.592   1.809
23223SOL    HW171443   3.795   2.562   1.741
23223SOL    HW271444   3.743   2.688   1.808
23224SOL     OW71445   6.850   7.925   2.913
23224SOL    HW171446   6.934   7.971   2.919
23224SOL    HW271447   6.871   7.835   2.938
23225SOL     OW71448   8.255   9.728  10.917
23225SOL    HW171449   8.162   9.724  10.940
23225SOL    HW271450   8.292   9.647  10.954
23226SOL     OW71451  13.869   5.000   7.257
23226SOL    HW171452  13.945   4.993   7.198
23226SOL    HW271453  13.817   5.071   7.221
23227SOL     OW71454  13.741  13.139   9.381
23227SOL    HW171455  13.666  13.197   9.388
23227SOL    HW271456  13.795  13.160   9.457
23228SOL     OW71457  11.554  11.288   4.171
23228SOL    HW171458  11.544  11.310   4.078
23228SOL    HW271459  11.495  11.214   4.185
23229SOL     OW71460  14.166   1.446   7.464
23229SOL    HW171461  14.077   1.445   7.428
23229SOL    HW271462  14.174   1.532   7.505
23230SOL     OW71463  13.597   9.396   8.739
23230SOL    HW171464  13.572   9.433   8.655
23230SOL    HW271465  13.553   9.311   8.742
23231SOL     OW71466   0.548   2.023   0.576
23231SOL    HW171467   0.454   2.008   0.566
23231SOL    HW271468   0.554   2.111   0.614
23232SOL     OW71469   1.624   1.335   4.332
23232SOL    HW171470   1.581   1.420   4.326
23232SOL    HW271471   1.554   1.275   4.358
23233SOL     OW71472   1.575   1.130   2.158
23233SOL    HW171473   1.670   1.117   2.152
23233SOL    HW271474   1.561   1.159   2.248
23234SOL     OW71475   1.999   3.754   1.658
23234SOL    HW171476   1.994   3.780   1.566
23234SOL    HW271477   1.934   3.809   1.702
23235SOL     OW71478   7.863   2.295   0.748
23235SOL    HW171479   7.790   2.341   0.789
23235SOL    HW271480   7.839   2.290   0.655
23236SOL     OW71481   3.045  14.586   1.217
23236SOL    HW171482   3.095  14.576   1.299
23236SOL    HW271483   3.051  14.680   1.198
23237SOL     OW71484   8.411  11.286   1.438
23237SOL    HW171485   8.438  11.377   1.448
23237SOL    HW271486   8.373  11.281   1.351
23238SOL     OW71487  13.120   1.790   4.234
23238SOL    HW171488  13.180   1.715   4.233
23238SOL    HW271489  13.154   1.848   4.302
23239SOL     OW71490   2.524  14.693  14.439
23239SOL    HW171491   2.527  14.789  14.433
23239SOL    HW271492   2.459  14.676  14.507
23240SOL     OW71493   3.407  14.338  12.233
23240SOL    HW171494   3.393  14.294  12.149
23240SOL    HW271495   3.499  14.320  12.254
23241SOL     OW71496   2.617   7.933   5.462
23241SOL    HW171497   2.525   7.926   5.436
23241SOL    HW271498   2.666   7.917   5.382
23242SOL     OW71499   7.754   3.276   0.770
23242SOL    HW171500   7.679   3.235   0.728
23242SOL    HW271501   7.756   3.239   0.858
23243SOL     OW71502   1.281  10.153   3.407
23243SOL    HW171503   1.296  10.094   3.480
23243SOL    HW271504   1.331  10.116   3.334
23244SOL     OW71505   9.186   6.170   2.275
23244SOL    HW171506   9.258   6.168   2.212
23244SOL    HW271507   9.191   6.086   2.320
23245SOL     OW71508  11.376   6.340   6.191
23245SOL    HW171509  11.298   6.340   6.135
23245SOL    HW271510  11.445   6.306   6.135
23246SOL     OW71511   0.579   0.311  12.585
23246SOL    HW171512   0.612   0.324  12.497
23246SOL    HW271513   0.557   0.399  12.616
23247SOL     OW71514   6.757   9.345   2.113
23247SOL    HW171515   6.722   9.392   2.037
23247SOL    HW271516   6.740   9.403   2.187
23248SOL     OW71517   0.216   0.424   8.317
23248SOL    HW171518   0.306   0.457   8.313
23248SOL    HW271519   0.220   0.354   8.382
23249SOL     OW71520   3.210   3.167  12.087
23249SOL    HW171521   3.159   3.243  12.114
23249SOL    HW271522   3.237   3.125  12.168
23250SOL     OW71523   0.118  11.194   4.984
23250SOL    HW171524   0.157  11.281   4.992
23250SOL    HW271525   0.193  11.135   4.978
23251SOL     OW71526   6.287  12.530   7.132
23251SOL    HW171527   6.290  12.591   7.058
23251SOL    HW271528   6.253  12.449   7.094
23252SOL     OW71529  12.791   8.370   4.104
23252SOL    HW171530  12.883   8.388   4.089
23252SOL    HW271531  12.789   8.283   4.144
23253SOL     OW71532   1.212   8.653   0.935
23253SOL    HW171533   1.212   8.567   0.975
23253SOL    HW271534   1.130   8.693   0.965
23254SOL     OW71535  11.003  13.719  14.821
23254SOL    HW171536  10.950  13.793  14.852
23254SOL    HW271537  11.092  13.741  14.848
23255SOL     OW71538   6.407   8.581   6.010
23255SOL    HW171539   6.320   8.573   5.970
23255SOL    HW271540   6.423   8.495   6.050
23256SOL     OW71541   6.037   3.133  12.700
23256SOL    HW171542   6.077   3.202  12.753
23256SOL    HW271543   5.972   3.093  12.758
23257SOL     OW71544   0.012  12.536   7.660
23257SOL    HW171545  14.839  12.576   7.730
23257SOL    HW271546  14.833  12.468   7.624
23258SOL     OW71547   9.051   8.391   2.802
23258SOL    HW171548   9.010   8.476   2.814
23258SOL    HW271549   9.000   8.349   2.733
23259SOL     OW71550   2.484  14.412   9.456
23259SOL    HW171551   2.539  14.484   9.425
23259SOL    HW271552   2.400  14.426   9.411
23260SOL     OW71553   5.391  12.887  11.928
23260SOL    HW171554   5.477  12.850  11.912
23260SOL    HW271555   5.353  12.899  11.841
23261SOL     OW71556   0.029  11.558   1.387
23261SOL    HW171557   0.033  11.514   1.302
23261SOL    HW271558   0.120  11.561   1.417
23262SOL     OW71559   0.063   4.206   6.154
23262SOL    HW171560   0.029   4.268   6.219
23262SOL    HW271561   0.078   4.126   6.204
23263SOL     OW71562   5.949   3.043  13.458
23263SOL    HW171563   5.922   2.956  13.429
23263SOL    HW271564   6.042   3.049  13.434
23264SOL     OW71565   1.844   5.166   0.117
23264SOL    HW171566   1.775   5.101   0.131
23264SOL    HW271567   1.892   5.135   0.040
23265SOL     OW71568  12.246   3.174   8.393
23265SOL    HW171569  12.319   3.225   8.356
23265SOL    HW271570  12.246   3.093   8.343
23266SOL     OW71571   9.447   2.452   5.047
23266SOL    HW171572   9.498   2.530   5.027
23266SOL    HW271573   9.509   2.379   5.039
23267SOL     OW71574   2.419   3.325   9.623
23267SOL    HW171575   2.365   3.345   9.547
23267SOL    HW271576   2.508   3.324   9.589
23268SOL     OW71577   4.810  10.545   0.871
23268SOL    HW171578   4.856  10.468   0.906
23268SOL    HW271579   4.880  10.607   0.851
23269SOL     OW71580  12.824  14.637  11.059
23269SOL    HW171581  12.729  14.649  11.053
23269SOL    HW271582  12.846  14.579  10.986
23270SOL     OW71583  12.923  10.567   7.164
23270SOL    HW171584  12.889  10.544   7.251
23270SOL    HW271585  13.012  10.598   7.181
23271SOL     OW71586  10.393  10.645  14.736
23271SOL    HW171587  10.471  10.592  14.721
23271SOL    HW271588  10.322  10.582  14.744
23272SOL     OW71589  11.010  13.117   5.298
23272SOL    HW171590  10.951  13.164   5.239
23272SOL    HW271591  10.956  13.049   5.337
23273SOL     OW71592   5.294  10.161   1.035
23273SOL    HW171593   5.272  10.068   1.027
23273SOL    HW271594   5.377  10.162   1.083
23274SOL     OW71595  13.070   3.096  13.169
23274SOL    HW171596  13.158   3.111  13.202
23274SOL    HW271597  13.013   3.110  13.245
23275SOL     OW71598  11.612  12.882  14.181
23275SOL    HW171599  11.652  12.934  14.251
23275SOL    HW271600  11.652  12.795  14.189
23276SOL     OW71601   2.608   7.429   6.647
23276SOL    HW171602   2.674   7.495   6.625
23276SOL    HW271603   2.558   7.469   6.719
23277SOL     OW71604   2.106   4.194   9.391
23277SOL    HW171605   2.135   4.241   9.312
23277SOL    HW271606   2.188   4.171   9.435
23278SOL     OW71607  12.302  14.480   8.449
23278SOL    HW171608  12.364  14.407   8.454
23278SOL    HW271609  12.216  14.438   8.458
23279SOL     OW71610   3.472   4.917  10.552
23279SOL    HW171611   3.488   5.004  10.588
23279SOL    HW271612   3.383   4.895  10.580
23280SOL     OW71613   9.847  12.764  12.523
23280SOL    HW171614   9.819  12.760  12.431
23280SOL    HW271615   9.918  12.828  12.523
23281SOL     OW71616  12.369   3.710  14.272
23281SOL    HW171617  12.290   3.750  14.234
23281SOL    HW271618  12.441   3.764  14.242
23282SOL     OW71619  11.836   2.753   7.848
23282SOL    HW171620  11.759   2.711   7.886
23282SOL    HW271621  11.831   2.844   7.877
23283SOL     OW71622   2.206  11.377   7.611
23283SOL    HW171623   2.178  11.452   7.663
23283SOL    HW271624   2.296  11.360   7.640
23284SOL     OW71625   5.323   3.565  12.293
23284SOL    HW171626   5.251   3.502  12.281
23284SOL    HW271627   5.283   3.650  12.276
23285SOL     OW71628  13.764   1.721   6.288
23285SOL    HW171629  13.807   1.777   6.354
23285SOL    HW271630  13.768   1.772   6.208
23286SOL     OW71631  12.760   7.240   7.333
23286SOL    HW171632  12.849   7.267   7.311
23286SOL    HW271633  12.731   7.189   7.257
23287SOL     OW71634   7.014   3.216   2.376
23287SOL    HW171635   6.982   3.306   2.370
23287SOL    HW271636   6.969   3.179   2.452
23288SOL     OW71637   2.012  14.705  10.648
23288SOL    HW171638   1.931  14.674  10.608
23288SOL    HW271639   1.993  14.708  10.742
23289SOL     OW71640   8.275   6.361   9.415
23289SOL    HW171641   8.239   6.402   9.336
23289SOL    HW271642   8.366   6.341   9.392
23290SOL     OW71643  12.884   4.637  14.214
23290SOL    HW171644  12.804   4.602  14.252
23290SOL    HW271645  12.885   4.729  14.240
23291SOL     OW71646   2.734   8.682   4.311
23291SOL    HW171647   2.824   8.712   4.306
23291SOL    HW271648   2.684   8.748   4.263
23292SOL     OW71649  14.785  10.093   4.870
23292SOL    HW171650  14.797  10.004   4.903
23292SOL    HW271651  14.813  10.150   4.942
23293SOL     OW71652   7.348  11.306   3.100
23293SOL    HW171653   7.273  11.250   3.079
23293SOL    HW271654   7.408  11.249   3.148
23294SOL     OW71655  13.091   0.141  14.610
23294SOL    HW171656  13.050   0.079  14.671
23294SOL    HW271657  13.049   0.122  14.526
23295SOL     OW71658  10.125   7.534   6.500
23295SOL    HW171659  10.152   7.445   6.478
23295SOL    HW271660  10.029   7.528   6.508
23296SOL     OW71661  13.735   8.807   9.637
23296SOL    HW171662  13.786   8.883   9.609
23296SOL    HW271663  13.713   8.762   9.556
23297SOL     OW71664   5.625  10.103   4.157
23297SOL    HW171665   5.617  10.047   4.234
23297SOL    HW271666   5.549  10.161   4.162
23298SOL     OW71667   6.306   5.560  11.893
23298SOL    HW171668   6.356   5.641  11.880
23298SOL    HW271669   6.215   5.590  11.903
23299SOL     OW71670   6.369   9.623  11.329
23299SOL    HW171671   6.423   9.652  11.403
23299SOL    HW271672   6.279   9.631  11.361
23300SOL     OW71673   5.635   0.425  14.464
23300SOL    HW171674   5.585   0.352  14.428
23300SOL    HW271675   5.716   0.385  14.495
23301SOL     OW71676   4.102   9.173   6.447
23301SOL    HW171677   4.011   9.168   6.478
23301SOL    HW271678   4.111   9.099   6.388
23302SOL     OW71679  14.850   2.898   9.693
23302SOL    HW171680  14.871   2.873   9.783
23302SOL    HW271681  14.838   2.815   9.648
23303SOL     OW71682   0.760  10.478   5.897
23303SOL    HW171683   0.743  10.415   5.967
23303SOL    HW271684   0.849  10.510   5.916
23304SOL     OW71685   7.022  13.769   4.798
23304SOL    HW171686   7.077  13.788   4.874
23304SOL    HW271687   6.932  13.782   4.830
23305SOL     OW71688   4.882   6.662  12.458
23305SOL    HW171689   4.797   6.704  12.474
23305SOL    HW271690   4.946   6.731  12.472
23306SOL     OW71691  13.742  10.729   5.787
23306SOL    HW171692  13.741  10.639   5.821
23306SOL    HW271693  13.688  10.778   5.850
23307SOL     OW71694   4.245   3.761  10.598
23307SOL    HW171695   4.311   3.733  10.534
23307SOL    HW271696   4.264   3.854  10.613
23308SOL     OW71697   3.504   6.768   3.599
23308SOL    HW171698   3.527   6.719   3.678
23308SOL    HW271699   3.420   6.731   3.571
23309SOL     OW71700   6.720   6.407   0.805
23309SOL    HW171701   6.725   6.325   0.854
23309SOL    HW271702   6.784   6.397   0.735
23310SOL     OW71703  14.689  12.159  11.351
23310SOL    HW171704  14.690  12.134  11.259
23310SOL    HW271705  14.650  12.084  11.396
23311SOL     OW71706   6.877   2.772   6.461
23311SOL    HW171707   6.791   2.812   6.452
23311SOL    HW271708   6.939   2.841   6.438
23312SOL     OW71709   4.297   7.452   8.367
23312SOL    HW171710   4.334   7.419   8.449
23312SOL    HW271711   4.364   7.511   8.332
23313SOL     OW71712   8.880   2.820   1.200
23313SOL    HW171713   8.825   2.778   1.265
23313SOL    HW271714   8.864   2.770   1.119
23314SOL     OW71715  14.378   5.624   4.739
23314SOL    HW171716  14.354   5.531   4.732
23314SOL    HW271717  14.331   5.655   4.817
23315SOL     OW71718   9.320   8.068   0.197
23315SOL    HW171719   9.303   8.028   0.112
23315SOL    HW271720   9.358   8.154   0.176
23316SOL     OW71721   5.865   0.622  14.139
23316SOL    HW171722   5.832   0.660  14.058
23316SOL    HW271723   5.792   0.630  14.201
23317SOL     OW71724   8.064   6.337   3.364
23317SOL    HW171725   8.129   6.376   3.423
23317SOL    HW271726   8.010   6.411   3.336
23318SOL     OW71727  10.649  12.809   2.688
23318SOL    HW171728  10.734  12.824   2.728
23318SOL    HW271729  10.662  12.735   2.630
23319SOL     OW71730   4.405   5.763  14.812
23319SOL    HW171731   4.384   5.827   0.002
23319SOL    HW271732   4.498   5.776  14.794
23320SOL     OW71733   1.301  13.246   5.162
23320SOL    HW171734   1.305  13.237   5.257
23320SOL    HW271735   1.225  13.302   5.147
23321SOL     OW71736   8.987   0.399   7.363
23321SOL    HW171737   8.943   0.355   7.436
23321SOL    HW271738   8.960   0.351   7.285
23322SOL     OW71739   2.707  12.200   0.901
23322SOL    HW171740   2.777  12.163   0.954
23322SOL    HW271741   2.744  12.281   0.866
23323SOL     OW71742   1.869  14.775  10.198
23323SOL    HW171743   1.935  14.727  10.247
23323SOL    HW271744   1.845  14.717  10.126
23324SOL     OW71745   0.735   5.674  14.658
23324SOL    HW171746   0.702   5.763  14.665
23324SOL    HW271747   0.669   5.628  14.606
23325SOL     OW71748   3.777   1.125   4.567
23325SOL    HW171749   3.699   1.071   4.563
23325SOL    HW271750   3.815   1.107   4.653
23326SOL     OW71751   0.980   6.050   0.432
23326SOL    HW171752   0.915   6.103   0.478
23326SOL    HW271753   1.042   6.024   0.500
23327SOL     OW71754   9.133  10.476   9.209
23327SOL    HW171755   9.068  10.492   9.140
23327SOL    HW271756   9.092  10.411   9.266
23328SOL     OW71757  11.528  13.472  12.313
23328SOL    HW171758  11.439  13.469  12.347
23328SOL    HW271759  11.584  13.465  12.390
23329SOL     OW71760  11.213   3.969  10.567
23329SOL    HW171761  11.222   3.965  10.472
23329SOL    HW271762  11.291   3.925  10.600
23330SOL     OW71763   5.981  12.790  11.310
23330SOL    HW171764   5.985  12.866  11.369
23330SOL    HW271765   6.069  12.783  11.274
23331SOL     OW71766  13.499   0.637   7.976
23331SOL    HW171767  13.537   0.679   8.054
23331SOL    HW271768  13.408   0.618   8.001
23332SOL     OW71769   5.564  11.454   0.996
23332SOL    HW171770   5.498  11.465   0.928
23332SOL    HW271771   5.600  11.366   0.982
23333SOL     OW71772   5.649  10.857   4.836
23333SOL    HW171773   5.596  10.935   4.816
23333SOL    HW271774   5.600  10.785   4.796
23334SOL     OW71775   3.047  13.586  10.228
23334SOL    HW171776   3.120  13.534  10.193
23334SOL    HW271777   3.084  13.674  10.240
23335SOL     OW71778   2.354   7.659   0.201
23335SOL    HW171779   2.366   7.683   0.293
23335SOL    HW271780   2.293   7.724   0.167
23336SOL     OW71781   4.577  14.832   4.166
23336SOL    HW171782   4.520   0.007   4.222
23336SOL    HW271783   4.624   0.017   4.112
23337SOL     OW71784  10.550   2.483   5.239
23337SOL    HW171785  10.520   2.573   5.239
23337SOL    HW271786  10.617   2.480   5.171
23338SOL     OW71787   1.278   7.134   4.226
23338SOL    HW171788   1.345   7.130   4.158
23338SOL    HW271789   1.195   7.139   4.178
23339SOL     OW71790   7.693   8.826   4.622
23339SOL    HW171791   7.701   8.740   4.580
23339SOL    HW271792   7.696   8.888   4.549
23340SOL     OW71793   2.350  13.920  13.980
23340SOL    HW171794   2.265  13.915  13.936
23340SOL    HW271795   2.338  13.870  14.060
23341SOL     OW71796   7.657   6.372   7.024
23341SOL    HW171797   7.736   6.393   6.974
23341SOL    HW271798   7.688   6.355   7.113
23342SOL     OW71799   0.964   7.753   3.978
23342SOL    HW171800   0.975   7.739   4.072
23342SOL    HW271801   0.931   7.670   3.945
23343SOL     OW71802   3.691   1.308   1.229
23343SOL    HW171803   3.770   1.272   1.269
23343SOL    HW271804   3.621   1.247   1.256
23344SOL     OW71805   1.132  11.185   0.470
23344SOL    HW171806   1.141  11.162   0.377
23344SOL    HW271807   1.041  11.161   0.491
23345SOL     OW71808   1.533  13.792   1.085
23345SOL    HW171809   1.498  13.856   1.023
23345SOL    HW271810   1.458  13.768   1.140
23346SOL     OW71811   4.584  10.140   1.512
23346SOL    HW171812   4.498  10.155   1.472
23346SOL    HW271813   4.641  10.206   1.472
23347SOL     OW71814  10.234   3.377   7.055
23347SOL    HW171815  10.246   3.394   6.962
23347SOL    HW271816  10.313   3.330   7.082
23348SOL     OW71817   2.112   7.037   2.493
23348SOL    HW171818   2.130   6.966   2.555
23348SOL    HW271819   2.121   7.117   2.544
23349SOL     OW71820  11.294   4.608   5.791
23349SOL    HW171821  11.335   4.615   5.706
23349SOL    HW271822  11.302   4.696   5.829
23350SOL     OW71823  13.300   2.348   7.716
23350SOL    HW171824  13.328   2.382   7.630
23350SOL    HW271825  13.361   2.387   7.778
23351SOL     OW71826   7.259   2.415  13.137
23351SOL    HW171827   7.292   2.333  13.101
23351SOL    HW271828   7.257   2.475  13.063
23352SOL     OW71829   3.878   9.192   1.526
23352SOL    HW171830   3.937   9.264   1.547
23352SOL    HW271831   3.802   9.235   1.487
23353SOL     OW71832   7.164  13.530  12.106
23353SOL    HW171833   7.131  13.474  12.176
23353SOL    HW271834   7.228  13.587  12.149
23354SOL     OW71835   0.344  14.613  12.441
23354SOL    HW171836   0.261  14.658  12.422
23354SOL    HW271837   0.410  14.682  12.436
23355SOL     OW71838   1.202  13.480  11.346
23355SOL    HW171839   1.297  13.487  11.357
23355SOL    HW271840   1.183  13.533  11.268
23356SOL     OW71841  13.025   1.472   6.432
23356SOL    HW171842  13.063   1.515   6.356
23356SOL    HW271843  12.932   1.462   6.409
23357SOL     OW71844   8.017   8.201  10.493
23357SOL    HW171845   8.013   8.130  10.428
23357SOL    HW271846   7.989   8.159  10.575
23358SOL     OW71847   7.492   2.440  10.065
23358SOL    HW171848   7.477   2.351  10.034
23358SOL    HW271849   7.578   2.464  10.029
23359SOL     OW71850   6.788   0.241  14.708
23359SOL    HW171851   6.744   0.161  14.682
23359SOL    HW271852   6.740   0.271  14.785
23360SOL     OW71853  10.397   7.064   4.092
23360SOL    HW171854  10.476   7.115   4.107
23360SOL    HW271855  10.397   6.999   4.163
23361SOL     OW71856   6.296   3.396  10.492
23361SOL    HW171857   6.386   3.419  10.467
23361SOL    HW271858   6.289   3.423  10.584
23362SOL     OW71859  11.997  11.298  10.546
23362SOL    HW171860  11.951  11.319  10.464
23362SOL    HW271861  11.930  11.255  10.600
23363SOL     OW71862   5.226  10.784   1.940
23363SOL    HW171863   5.249  10.724   2.011
23363SOL    HW271864   5.186  10.859   1.984
23364SOL     OW71865   8.880  13.899  10.574
23364SOL    HW171866   8.933  13.927  10.650
23364SOL    HW271867   8.876  13.804  10.583
23365SOL     OW71868   7.497  10.880  12.414
23365SOL    HW171869   7.452  10.861  12.496
23365SOL    HW271870   7.556  10.806  12.402
23366SOL     OW71871   8.957   9.285   1.028
23366SOL    HW171872   8.953   9.360   1.086
23366SOL    HW271873   8.868   9.277   0.992
23367SOL     OW71874   0.268  12.961  10.115
23367SOL    HW171875   0.232  13.044  10.084
23367SOL    HW271876   0.194  12.900  10.114
23368SOL     OW71877   5.320   2.792  10.053
23368SOL    HW171878   5.243   2.790  10.109
23368SOL    HW271879   5.288   2.761   9.968
23369SOL     OW71880   9.345   9.782  14.300
23369SOL    HW171881   9.299   9.863  14.279
23369SOL    HW271882   9.334   9.773  14.395
23370SOL     OW71883   8.156   4.010   5.007
23370SOL    HW171884   8.104   3.967   5.075
23370SOL    HW271885   8.209   3.939   4.970
23371SOL     OW71886   8.805  13.227   3.625
23371SOL    HW171887   8.824  13.296   3.562
23371SOL    HW271888   8.776  13.153   3.572
23372SOL     OW71889   6.158   8.074  12.512
23372SOL    HW171890   6.249   8.080  12.484
23372SOL    HW271891   6.162   8.036  12.599
23373SOL     OW71892   5.285   4.161   6.618
23373SOL    HW171893   5.271   4.242   6.668
23373SOL    HW271894   5.332   4.190   6.540
23374SOL     OW71895  11.840  12.359   2.346
23374SOL    HW171896  11.761  12.406   2.373
23374SOL    HW271897  11.882  12.334   2.429
23375SOL     OW71898   9.741  11.190  12.099
23375SOL    HW171899   9.649  11.183  12.075
23375SOL    HW271900   9.783  11.116  12.056
23376SOL     OW71901   4.776   8.958   3.196
23376SOL    HW171902   4.817   9.011   3.265
23376SOL    HW271903   4.811   8.993   3.115
23377SOL     OW71904  10.311  14.599   4.515
23377SOL    HW171905  10.268  14.514   4.523
23377SOL    HW271906  10.362  14.607   4.596
23378SOL     OW71907   4.682   9.688   8.767
23378SOL    HW171908   4.592   9.690   8.735
23378SOL    HW271909   4.735   9.706   8.689
23379SOL     OW71910   7.866   1.784  10.120
23379SOL    HW171911   7.943   1.782  10.178
23379SOL    HW271912   7.791   1.774  10.178
23380SOL     OW71913   5.459   5.045   6.220
23380SOL    HW171914   5.549   5.078   6.214
23380SOL    HW271915   5.427   5.049   6.130
23381SOL     OW71916  13.788  11.107   5.879
23381SOL    HW171917  13.784  11.166   5.954
23381SOL    HW271918  13.872  11.062   5.887
23382SOL     OW71919   2.588  14.247   7.202
23382SOL    HW171920   2.673  14.211   7.176
23382SOL    HW271921   2.606  14.338   7.224
23383SOL     OW71922   3.138  13.206  14.585
23383SOL    HW171923   3.094  13.263  14.647
23383SOL    HW271924   3.169  13.132  14.638
23384SOL     OW71925  11.905   4.149   3.032
23384SOL    HW171926  11.899   4.067   3.081
23384SOL    HW271927  11.875   4.126   2.944
23385SOL     OW71928   1.398   2.737  10.206
23385SOL    HW171929   1.438   2.763  10.288
23385SOL    HW271930   1.396   2.641  10.209
23386SOL     OW71931   5.827   4.955   4.250
23386SOL    HW171932   5.917   4.925   4.263
23386SOL    HW271933   5.827   5.045   4.283
23387SOL     OW71934  14.469   9.230  11.618
23387SOL    HW171935  14.496   9.175  11.544
23387SOL    HW271936  14.378   9.204  11.634
23388SOL     OW71937   3.884   1.639   0.909
23388SOL    HW171938   3.902   1.604   0.822
23388SOL    HW271939   3.810   1.588   0.941
23389SOL     OW71940   9.121   5.130   1.966
23389SOL    HW171941   9.044   5.113   1.912
23389SOL    HW271942   9.182   5.060   1.944
23390SOL     OW71943   1.874  12.767   0.565
23390SOL    HW171944   1.914  12.711   0.498
23390SOL    HW271945   1.886  12.719   0.647
23391SOL     OW71946  13.496  14.152  11.011
23391SOL    HW171947  13.509  14.145  11.105
23391SOL    HW271948  13.584  14.149  10.973
23392SOL     OW71949   4.118   2.896   5.973
23392SOL    HW171950   4.053   2.941   5.918
23392SOL    HW271951   4.097   2.925   6.062
23393SOL     OW71952  13.850   5.961   5.933
23393SOL    HW171953  13.815   5.880   5.896
23393SOL    HW271954  13.803   5.973   6.015
23394SOL     OW71955   3.861   3.484   5.180
23394SOL    HW171956   3.780   3.438   5.203
23394SOL    HW271957   3.904   3.425   5.118
23395SOL     OW71958   8.726   0.019   9.726
23395SOL    HW171959   8.678  14.816   9.708
23395SOL    HW271960   8.727   0.026   9.821
23396SOL     OW71961   4.910   4.740   6.320
23396SOL    HW171962   4.966   4.674   6.359
23396SOL    HW271963   4.919   4.816   6.378
23397SOL     OW71964   0.864   6.295  11.440
23397SOL    HW171965   0.788   6.286  11.497
23397SOL    HW271966   0.935   6.252  11.488
23398SOL     OW71967  13.058   1.896   5.358
23398SOL    HW171968  13.008   1.946   5.422
23398SOL    HW271969  13.086   1.818   5.406
23399SOL     OW71970   4.408   1.624   4.228
23399SOL    HW171971   4.371   1.646   4.314
23399SOL    HW271972   4.363   1.682   4.167
23400SOL     OW71973   8.142   3.025  10.405
23400SOL    HW171974   8.064   3.044  10.457
23400SOL    HW271975   8.171   3.111  10.373
23401SOL     OW71976   4.827  12.717  11.475
23401SOL    HW171977   4.742  12.759  11.459
23401SOL    HW271978   4.817  12.628  11.441
23402SOL     OW71979  11.540   6.754   1.619
23402SOL    HW171980  11.626   6.712   1.619
23402SOL    HW271981  11.546   6.822   1.687
23403SOL     OW71982  10.206   1.948   8.103
23403SOL    HW171983  10.126   1.898   8.086
23403SOL    HW271984  10.265   1.886   8.145
23404SOL     OW71985   2.125   8.580   3.133
23404SOL    HW171986   2.070   8.539   3.199
23404SOL    HW271987   2.080   8.563   3.050
23405SOL     OW71988  11.125   7.302   8.921
23405SOL    HW171989  11.220   7.303   8.915
23405SOL    HW271990  11.101   7.391   8.946
23406SOL     OW71991  14.503   3.984   2.740
23406SOL    HW171992  14.516   3.967   2.647
23406SOL    HW271993  14.532   3.903   2.783
23407SOL     OW71994   7.835  13.802  13.180
23407SOL    HW171995   7.782  13.878  13.157
23407SOL    HW271996   7.774  13.728  13.175
23408SOL     OW71997   7.554  11.149  13.517
23408SOL    HW171998   7.484  11.173  13.456
23408SOL    HW271999   7.510  11.144  13.602
23409SOL     OW72000   9.503   9.769   1.741
23409SOL    HW172001   9.431   9.708   1.757
23409SOL    HW272002   9.537   9.744   1.655
23410SOL     OW72003   8.080  14.270   2.094
23410SOL    HW172004   8.151  14.322   2.055
23410SOL    HW272005   8.005  14.286   2.036
23411SOL     OW72006   9.953   8.859   7.123
23411SOL    HW172007   9.902   8.783   7.093
23411SOL    HW272008   9.918   8.932   7.073
23412SOL     OW72009   9.555   1.312   8.534
23412SOL    HW172010   9.539   1.387   8.478
23412SOL    HW272011   9.615   1.345   8.602
23413SOL     OW72012  14.570   0.921   9.994
23413SOL    HW172013  14.493   0.881   9.952
23413SOL    HW272014  14.605   0.980   9.927
23414SOL     OW72015   4.692   6.064   8.148
23414SOL    HW172016   4.661   5.985   8.193
23414SOL    HW272017   4.619   6.126   8.155
23415SOL     OW72018  13.011   0.432  12.596
23415SOL    HW172019  13.106   0.427  12.603
23415SOL    HW272020  12.981   0.341  12.607
23416SOL     OW72021   9.999   8.020   3.485
23416SOL    HW172022  10.053   8.048   3.558
23416SOL    HW272023   9.952   7.943   3.517
23417SOL     OW72024  12.675   6.789  14.074
23417SOL    HW172025  12.710   6.823  14.156
23417SOL    HW272026  12.580   6.800  14.081
23418SOL     OW72027   5.924   7.549  10.383
23418SOL    HW172028   5.975   7.620  10.423
23418SOL    HW272029   5.922   7.572  10.290
23419SOL     OW72030   4.440   1.166   8.924
23419SOL    HW172031   4.448   1.172   8.829
23419SOL    HW272032   4.510   1.106   8.951
23420SOL     OW72033   0.142  13.204  10.023
23420SOL    HW172034   0.051  13.186  10.000
23420SOL    HW272035   0.164  13.284   9.975
23421SOL     OW72036   4.424   6.368  14.442
23421SOL    HW172037   4.389   6.456  14.424
23421SOL    HW272038   4.410   6.319  14.361
23422SOL     OW72039   1.613  11.493   3.426
23422SOL    HW172040   1.553  11.524   3.358
23422SOL    HW272041   1.677  11.564   3.435
23423SOL     OW72042   9.618  12.557   5.265
23423SOL    HW172043   9.681  12.487   5.247
23423SOL    HW272044   9.602  12.598   5.180
23424SOL     OW72045   1.354   6.099   2.949
23424SOL    HW172046   1.356   6.093   2.854
23424SOL    HW272047   1.261   6.108   2.971
23425SOL     OW72048   9.303  12.161   4.283
23425SOL    HW172049   9.303  12.215   4.362
23425SOL    HW272050   9.394  12.160   4.253
23426SOL     OW72051  11.896   7.475   8.381
23426SOL    HW172052  11.985   7.445   8.361
23426SOL    HW272053  11.849   7.466   8.298
23427SOL     OW72054  13.961   8.330   1.965
23427SOL    HW172055  13.908   8.328   1.885
23427SOL    HW272056  13.908   8.379   2.028
23428SOL     OW72057  11.612   9.848  10.525
23428SOL    HW172058  11.637   9.842  10.433
23428SOL    HW272059  11.537   9.789  10.534
23429SOL     OW72060   3.739  13.578   7.226
23429SOL    HW172061   3.827  13.592   7.189
23429SOL    HW272062   3.751  13.506   7.288
23430SOL     OW72063   1.037  14.699  12.029
23430SOL    HW172064   0.943  14.704  12.049
23430SOL    HW272065   1.043  14.730  11.939
23431SOL     OW72066   3.777   9.327   6.164
23431SOL    HW172067   3.772   9.369   6.078
23431SOL    HW272068   3.871   9.316   6.179
23432SOL     OW72069   8.650  10.567   1.654
23432SOL    HW172070   8.626  10.497   1.714
23432SOL    HW272071   8.567  10.604   1.625
23433SOL     OW72072  14.474   6.762  13.800
23433SOL    HW172073  14.480   6.770  13.896
23433SOL    HW272074  14.380   6.767  13.782
23434SOL     OW72075  11.391   0.901  10.218
23434SOL    HW172076  11.409   0.994  10.229
23434SOL    HW272077  11.470   0.857  10.251
23435SOL     OW72078   4.585   0.849  11.801
23435SOL    HW172079   4.647   0.787  11.762
23435SOL    HW272080   4.593   0.835  11.895
23436SOL     OW72081  14.019   1.499   4.716
23436SOL    HW172082  14.056   1.492   4.803
23436SOL    HW272083  14.020   1.410   4.682
23437SOL     OW72084   2.885   4.856   7.190
23437SOL    HW172085   2.948   4.841   7.120
23437SOL    HW272086   2.800   4.854   7.146
23438SOL     OW72087  14.352   1.699  11.127
23438SOL    HW172088  14.392   1.774  11.171
23438SOL    HW272089  14.416   1.629  11.136
23439SOL     OW72090   9.340  12.879   0.135
23439SOL    HW172091   9.304  12.869   0.047
23439SOL    HW272092   9.264  12.889   0.191
23440SOL     OW72093   8.971   4.551  10.032
23440SOL    HW172094   9.031   4.588   9.967
23440SOL    HW272095   8.988   4.457  10.031
23441SOL     OW72096  10.524   1.533   2.343
23441SOL    HW172097  10.613   1.513   2.369
23441SOL    HW272098  10.512   1.487   2.259
23442SOL     OW72099   8.772   5.884   7.103
23442SOL    HW172100   8.784   5.805   7.156
23442SOL    HW272101   8.848   5.937   7.122
23443SOL     OW72102   3.368  12.531   1.700
23443SOL    HW172103   3.383  12.626   1.706
23443SOL    HW272104   3.302  12.523   1.630
23444SOL     OW72105   8.625  10.428  12.855
23444SOL    HW172106   8.653  10.516  12.882
23444SOL    HW272107   8.618  10.379  12.938
23445SOL     OW72108   0.902  14.346   7.472
23445SOL    HW172109   0.824  14.327   7.421
23445SOL    HW272110   0.975  14.330   7.412
23446SOL     OW72111  14.712   9.633   6.600
23446SOL    HW172112  14.766   9.571   6.649
23446SOL    HW272113  14.641   9.655   6.660
23447SOL     OW72114  10.035   2.070  14.741
23447SOL    HW172115  10.126   2.063  14.715
23447SOL    HW272116  10.006   2.154  14.706
23448SOL     OW72117   7.001   6.806  12.271
23448SOL    HW172118   7.023   6.842  12.356
23448SOL    HW272119   7.048   6.723  12.267
23449SOL     OW72120   4.630   8.161   0.303
23449SOL    HW172121   4.594   8.240   0.263
23449SOL    HW272122   4.589   8.156   0.389
23450SOL     OW72123   6.348   9.507   7.926
23450SOL    HW172124   6.317   9.486   7.838
23450SOL    HW272125   6.431   9.554   7.911
23451SOL     OW72126  10.085   9.514  10.588
23451SOL    HW172127  10.012   9.462  10.553
23451SOL    HW272128  10.043   9.591  10.626
23452SOL     OW72129   0.827  10.112   0.607
23452SOL    HW172130   0.913  10.104   0.565
23452SOL    HW272131   0.777  10.168   0.548
23453SOL     OW72132   0.179  11.552   9.312
23453SOL    HW172133   0.104  11.519   9.362
23453SOL    HW272134   0.215  11.474   9.269
23454SOL     OW72135   8.266  11.325   2.912
23454SOL    HW172136   8.225  11.255   2.963
23454SOL    HW272137   8.228  11.406   2.947
23455SOL     OW72138   6.570   0.670   6.598
23455SOL    HW172139   6.501   0.605   6.586
23455SOL    HW272140   6.543   0.721   6.674
23456SOL     OW72141   0.492   7.080  13.135
23456SOL    HW172142   0.566   7.059  13.079
23456SOL    HW272143   0.524   7.150  13.192
23457SOL     OW72144   7.108   2.451  10.747
23457SOL    HW172145   7.055   2.528  10.727
23457SOL    HW272146   7.166   2.441  10.671
23458SOL     OW72147   2.967   3.880   8.562
23458SOL    HW172148   2.934   3.910   8.646
23458SOL    HW272149   2.907   3.810   8.535
23459SOL     OW72150   2.981   8.017   0.928
23459SOL    HW172151   2.962   7.924   0.925
23459SOL    HW272152   2.954   8.050   0.842
23460SOL     OW72153   9.145   2.822  12.240
23460SOL    HW172154   9.090   2.749  12.212
23460SOL    HW272155   9.227   2.781  12.267
23461SOL     OW72156   5.148   5.010  14.456
23461SOL    HW172157   5.222   5.046  14.408
23461SOL    HW272158   5.153   5.051  14.542
23462SOL     OW72159   5.977  13.433  11.731
23462SOL    HW172160   5.955  13.411  11.821
23462SOL    HW272161   5.951  13.525  11.722
23463SOL     OW72162   4.741   6.766   4.812
23463SOL    HW172163   4.790   6.794   4.735
23463SOL    HW272164   4.649   6.776   4.787
23464SOL     OW72165   6.003   4.103   9.774
23464SOL    HW172166   5.970   4.094   9.863
23464SOL    HW272167   6.095   4.079   9.779
23465SOL     OW72168  11.036  11.291   4.350
23465SOL    HW172169  11.019  11.197   4.354
23465SOL    HW272170  11.010  11.324   4.436
23466SOL     OW72171   7.804  12.214   0.620
23466SOL    HW172172   7.793  12.298   0.665
23466SOL    HW272173   7.730  12.208   0.560
23467SOL     OW72174   8.712   8.962  12.725
23467SOL    HW172175   8.763   8.884  12.704
23467SOL    HW272176   8.775   9.021  12.766
23468SOL     OW72177   3.288   4.631  13.542
23468SOL    HW172178   3.277   4.557  13.481
23468SOL    HW272179   3.373   4.616  13.583
23469SOL     OW72180   5.370   9.452   5.172
23469SOL    HW172181   5.408   9.507   5.240
23469SOL    HW272182   5.276   9.453   5.189
23470SOL     OW72183   1.457   3.360  14.602
23470SOL    HW172184   1.470   3.266  14.599
23470SOL    HW272185   1.372   3.372  14.644
23471SOL     OW72186   5.397  12.671  12.773
23471SOL    HW172187   5.446  12.604  12.822
23471SOL    HW272188   5.383  12.633  12.687
23472SOL     OW72189   7.126   7.389   9.430
23472SOL    HW172190   7.162   7.460   9.376
23472SOL    HW272191   7.081   7.332   9.368
23473SOL     OW72192   5.210  11.731   7.430
23473SOL    HW172193   5.191  11.818   7.395
23473SOL    HW272194   5.298  11.738   7.466
23474SOL     OW72195   0.398   4.123   4.671
23474SOL    HW172196   0.306   4.099   4.664
23474SOL    HW272197   0.404   4.173   4.752
23475SOL     OW72198   9.468   5.447  10.869
23475SOL    HW172199   9.419   5.472  10.948
23475SOL    HW272200   9.546   5.402  10.902
23476SOL     OW72201   7.756  14.493   3.161
23476SOL    HW172202   7.789  14.413   3.201
23476SOL    HW272203   7.701  14.533   3.229
23477SOL     OW72204   8.732   6.113  10.736
23477SOL    HW172205   8.822   6.118  10.702
23477SOL    HW272206   8.707   6.021  10.723
23478SOL     OW72207   3.835   1.280   5.796
23478SOL    HW172208   3.876   1.248   5.716
23478SOL    HW272209   3.750   1.313   5.768
23479SOL     OW72210  12.505   2.543   7.098
23479SOL    HW172211  12.467   2.625   7.131
23479SOL    HW272212  12.464   2.475   7.152
23480SOL     OW72213   2.888   2.492  11.568
23480SOL    HW172214   2.951   2.552  11.608
23480SOL    HW272215   2.875   2.423  11.634
23481SOL     OW72216   7.371   7.043   7.253
23481SOL    HW172217   7.352   6.989   7.177
23481SOL    HW272218   7.346   6.989   7.328
23482SOL     OW72219  13.691   8.593   5.962
23482SOL    HW172220  13.702   8.526   6.029
23482SOL    HW272221  13.723   8.553   5.882
23483SOL     OW72222  10.507   1.933  12.484
23483SOL    HW172223  10.569   1.970  12.548
23483SOL    HW272224  10.560   1.873  12.432
23484SOL     OW72225   1.388  11.679   7.372
23484SOL    HW172226   1.357  11.760   7.414
23484SOL    HW272227   1.481  11.674   7.394
23485SOL     OW72228  11.359   3.173   2.707
23485SOL    HW172229  11.307   3.126   2.641
23485SOL    HW272230  11.399   3.245   2.659
23486SOL     OW72231   1.375   7.952   2.109
23486SOL    HW172232   1.345   7.980   2.023
23486SOL    HW272233   1.297   7.956   2.164
23487SOL     OW72234   6.761  10.225   0.117
23487SOL    HW172235   6.718  10.226   0.031
23487SOL    HW272236   6.700  10.271   0.174
23488SOL     OW72237  10.627   8.315   5.962
23488SOL    HW172238  10.693   8.311   6.031
23488SOL    HW272239  10.634   8.404   5.928
23489SOL     OW72240   3.735  13.826   1.302
23489SOL    HW172241   3.762  13.850   1.391
23489SOL    HW272242   3.699  13.738   1.311
23490SOL     OW72243  12.266   8.839   5.176
23490SOL    HW172244  12.272   8.749   5.142
23490SOL    HW272245  12.183   8.841   5.224
23491SOL     OW72246   0.429   0.992  13.561
23491SOL    HW172247   0.448   0.909  13.604
23491SOL    HW272248   0.493   0.997  13.490
23492SOL     OW72249   2.057   5.373   8.205
23492SOL    HW172250   2.115   5.359   8.280
23492SOL    HW272251   1.969   5.363   8.241
23493SOL     OW72252   6.664   8.792   9.757
23493SOL    HW172253   6.711   8.875   9.749
23493SOL    HW272254   6.585   8.805   9.704
23494SOL     OW72255  13.893  13.810   5.547
23494SOL    HW172256  13.946  13.825   5.625
23494SOL    HW272257  13.875  13.716   5.548
23495SOL     OW72258   4.015   9.124  13.019
23495SOL    HW172259   3.969   9.131  12.935
23495SOL    HW272260   3.948   9.142  13.085
23496SOL     OW72261   1.150  10.403   7.627
23496SOL    HW172262   1.234  10.433   7.591
23496SOL    HW272263   1.109  10.483   7.661
23497SOL     OW72264   1.753   0.031  14.156
23497SOL    HW172265   1.782  14.839  14.214
23497SOL    HW272266   1.834   0.072  14.126
23498SOL     OW72267  11.236  12.997   3.475
23498SOL    HW172268  11.213  13.089   3.460
23498SOL    HW272269  11.155  12.957   3.506
23499SOL     OW72270   7.448   3.078   8.335
23499SOL    HW172271   7.487   3.013   8.277
23499SOL    HW272272   7.450   3.038   8.421
23500SOL     OW72273   6.256   4.534   6.465
23500SOL    HW172274   6.230   4.626   6.471
23500SOL    HW272275   6.190   4.487   6.517
23501SOL     OW72276   4.871   4.891   6.572
23501SOL    HW172277   4.807   4.882   6.643
23501SOL    HW272278   4.945   4.937   6.612
23502SOL     OW72279  12.223   1.277   0.058
23502SOL    HW172280  12.189   1.204   0.005
23502SOL    HW272281  12.305   1.243   0.094
23503SOL     OW72282  13.340   3.290   3.821
23503SOL    HW172283  13.326   3.196   3.814
23503SOL    HW272284  13.257   3.324   3.856
23504SOL     OW72285   1.290  11.807   3.789
23504SOL    HW172286   1.214  11.756   3.761
23504SOL    HW272287   1.364  11.763   3.750
23505SOL     OW72288   9.459  13.330   4.399
23505SOL    HW172289   9.415  13.315   4.483
23505SOL    HW272290   9.531  13.266   4.399
23506SOL     OW72291  11.316   6.500   2.210
23506SOL    HW172292  11.308   6.413   2.172
23506SOL    HW272293  11.234   6.544   2.188
23507SOL     OW72294   9.937   6.690  10.194
23507SOL    HW172295   9.861   6.746  10.176
23507SOL    HW272296  10.011   6.750  10.191
23508SOL     OW72297   8.635  10.122  14.239
23508SOL    HW172298   8.603  10.172  14.314
23508SOL    HW272299   8.619  10.031  14.262
23509SOL     OW72300  10.477   1.556   4.529
23509SOL    HW172301  10.540   1.595   4.590
23509SOL    HW272302  10.432   1.631   4.491
23510SOL     OW72303  12.076  11.215   5.910
23510SOL    HW172304  12.158  11.251   5.877
23510SOL    HW272305  12.021  11.291   5.928
23511SOL     OW72306   0.958   0.236  13.129
23511SOL    HW172307   0.905   0.298  13.180
23511SOL    HW272308   0.932   0.150  13.162
23512SOL     OW72309   0.125  11.313  14.010
23512SOL    HW172310   0.216  11.337  14.028
23512SOL    HW272311   0.122  11.298  13.916
23513SOL     OW72312   0.680   8.487  11.131
23513SOL    HW172313   0.662   8.416  11.193
23513SOL    HW272314   0.775   8.501  11.138
23514SOL     OW72315   9.489   1.603   0.741
23514SOL    HW172316   9.406   1.650   0.749
23514SOL    HW272317   9.553   1.672   0.724
23515SOL     OW72318  10.706   6.638  11.576
23515SOL    HW172319  10.700   6.728  11.606
23515SOL    HW272320  10.676   6.641  11.485
23516SOL     OW72321  12.938  12.581   6.606
23516SOL    HW172322  12.936  12.556   6.698
23516SOL    HW272323  12.860  12.540   6.569
23517SOL     OW72324   3.999  11.152   0.798
23517SOL    HW172325   3.928  11.114   0.850
23517SOL    HW272326   4.048  11.206   0.859
23518SOL     OW72327   7.732  10.869  14.574
23518SOL    HW172328   7.782  10.927  14.631
23518SOL    HW272329   7.794  10.799  14.551
23519SOL     OW72330   8.053   8.507  12.422
23519SOL    HW172331   8.047   8.585  12.477
23519SOL    HW272332   8.082   8.539  12.337
23520SOL     OW72333  12.552   5.925   9.895
23520SOL    HW172334  12.539   5.871   9.817
23520SOL    HW272335  12.644   5.912   9.918
23521SOL     OW72336   6.699   4.396  13.616
23521SOL    HW172337   6.611   4.427  13.638
23521SOL    HW272338   6.727   4.453  13.545
23522SOL     OW72339  11.674   4.678  12.786
23522SOL    HW172340  11.682   4.590  12.824
23522SOL    HW272341  11.596   4.715  12.827
23523SOL     OW72342   9.604   6.497  11.861
23523SOL    HW172343   9.639   6.415  11.896
23523SOL    HW272344   9.631   6.498  11.769
23524SOL     OW72345   4.894  11.290   0.623
23524SOL    HW172346   4.911  11.204   0.584
23524SOL    HW272347   4.923  11.280   0.714
23525SOL     OW72348   1.543   5.074  11.204
23525SOL    HW172349   1.567   5.122  11.125
23525SOL    HW272350   1.487   5.003  11.173
23526SOL     OW72351   9.193   1.807   1.506
23526SOL    HW172352   9.277   1.821   1.548
23526SOL    HW272353   9.157   1.730   1.550
23527SOL     OW72354  11.666   6.850   5.732
23527SOL    HW172355  11.572   6.857   5.713
23527SOL    HW272356  11.677   6.762   5.767
23528SOL     OW72357   1.076   3.881  11.599
23528SOL    HW172358   1.014   3.812  11.574
23528SOL    HW272359   1.020   3.951  11.633
23529SOL     OW72360   5.691  10.470   2.763
23529SOL    HW172361   5.678  10.549   2.711
23529SOL    HW272362   5.608  10.458   2.810
23530SOL     OW72363   2.091   1.133  10.558
23530SOL    HW172364   2.055   1.195  10.621
23530SOL    HW272365   2.116   1.187  10.483
23531SOL     OW72366  10.530   7.396   0.423
23531SOL    HW172367  10.582   7.476   0.416
23531SOL    HW272368  10.593   7.329   0.449
23532SOL     OW72369   1.595   4.254   1.030
23532SOL    HW172370   1.582   4.161   1.048
23532SOL    HW272371   1.518   4.280   0.979
23533SOL     OW72372   6.844   7.902  13.975
23533SOL    HW172373   6.902   7.833  14.006
23533SOL    HW272374   6.883   7.983  14.009
23534SOL     OW72375   5.586   6.669   0.448
23534SOL    HW172376   5.663   6.691   0.500
23534SOL    HW272377   5.611   6.691   0.358
23535SOL     OW72378   7.888  12.193   6.559
23535SOL    HW172379   7.860  12.109   6.593
23535SOL    HW272380   7.836  12.258   6.606
23536SOL     OW72381  12.433   9.721  13.636
23536SOL    HW172382  12.480   9.755  13.560
23536SOL    HW272383  12.442   9.626  13.630
23537SOL     OW72384  10.632  14.252   1.390
23537SOL    HW172385  10.608  14.294   1.307
23537SOL    HW272386  10.549  14.230   1.431
23538SOL     OW72387   2.122   3.003   6.362
23538SOL    HW172388   2.173   2.954   6.427
23538SOL    HW272389   2.077   3.071   6.413
23539SOL     OW72390   4.778   0.986   4.784
23539SOL    HW172391   4.855   0.981   4.728
23539SOL    HW272392   4.765   1.080   4.799
23540SOL     OW72393   8.943   8.280  14.860
23540SOL    HW172394   8.980   8.345  14.801
23540SOL    HW272395   8.866   8.323   0.020
23541SOL     OW72396  14.500   8.237   9.958
23541SOL    HW172397  14.533   8.149   9.976
23541SOL    HW272398  14.577   8.294   9.963
23542SOL     OW72399  13.123  13.048   4.585
23542SOL    HW172400  13.116  13.012   4.496
23542SOL    HW272401  13.150  12.973   4.639
23543SOL     OW72402   5.486   0.251   1.281
23543SOL    HW172403   5.568   0.299   1.269
23543SOL    HW272404   5.421   0.319   1.301
23544SOL     OW72405   3.725   9.772  12.903
23544SOL    HW172406   3.758   9.775  12.813
23544SOL    HW272407   3.645   9.720  12.898
23545SOL     OW72408   7.931   4.545   2.984
23545SOL    HW172409   7.998   4.551   3.053
23545SOL    HW272410   7.928   4.633   2.946
23546SOL     OW72411   2.848  10.563  13.375
23546SOL    HW172412   2.872  10.631  13.437
23546SOL    HW272413   2.929  10.516  13.357
23547SOL     OW72414   5.175   5.100  14.712
23547SOL    HW172415   5.260   5.065  14.740
23547SOL    HW272416   5.136   5.137  14.791
23548SOL     OW72417  12.425   9.789   3.127
23548SOL    HW172418  12.346   9.775   3.075
23548SOL    HW272419  12.416   9.878   3.162
23549SOL     OW72420   4.284   3.013   5.560
23549SOL    HW172421   4.351   2.978   5.502
23549SOL    HW272422   4.247   2.935   5.602
23550SOL     OW72423   1.857   9.309  12.505
23550SOL    HW172424   1.946   9.297  12.537
23550SOL    HW272425   1.823   9.221  12.493
23551SOL     OW72426   4.512   5.685  14.452
23551SOL    HW172427   4.529   5.664  14.360
23551SOL    HW272428   4.483   5.602  14.490
23552SOL     OW72429  13.251  13.782  12.641
23552SOL    HW172430  13.263  13.855  12.702
23552SOL    HW272431  13.281  13.705  12.690
23553SOL     OW72432   7.279  10.088   0.137
23553SOL    HW172433   7.253  10.140   0.060
23553SOL    HW272434   7.310  10.153   0.200
23554SOL     OW72435  10.989  12.866   3.496
23554SOL    HW172436  10.921  12.851   3.429
23554SOL    HW272437  10.958  12.817   3.572
23555SOL     OW72438  13.496   2.704   8.210
23555SOL    HW172439  13.536   2.619   8.228
23555SOL    HW272440  13.473   2.700   8.117
23556SOL     OW72441   2.049   7.892   2.929
23556SOL    HW172442   2.080   7.841   2.854
23556SOL    HW272443   2.082   7.981   2.912
23557SOL     OW72444   7.067   5.878  11.289
23557SOL    HW172445   7.132   5.947  11.300
23557SOL    HW272446   7.117   5.800  11.264
23558SOL     OW72447   0.570   3.871   8.433
23558SOL    HW172448   0.550   3.785   8.395
23558SOL    HW272449   0.662   3.886   8.410
23559SOL     OW72450   0.924  10.876  10.794
23559SOL    HW172451   0.970  10.933  10.855
23559SOL    HW272452   0.962  10.896  10.708
23560SOL     OW72453   1.778  12.203  13.050
23560SOL    HW172454   1.725  12.282  13.039
23560SOL    HW272455   1.811  12.209  13.140
23561SOL     OW72456   6.610   3.777  12.530
23561SOL    HW172457   6.521   3.788  12.564
23561SOL    HW272458   6.666   3.783  12.607
23562SOL     OW72459   7.978   0.928   6.818
23562SOL    HW172460   8.021   0.959   6.739
23562SOL    HW272461   7.890   0.967   6.815
23563SOL     OW72462   6.974   4.937   8.436
23563SOL    HW172463   6.920   4.998   8.486
23563SOL    HW272464   6.930   4.929   8.352
23564SOL     OW72465  11.237   0.599  13.622
23564SOL    HW172466  11.251   0.693  13.635
23564SOL    HW272467  11.169   0.594  13.555
23565SOL     OW72468  12.109  11.290   7.399
23565SOL    HW172469  12.149  11.204   7.411
23565SOL    HW272470  12.016  11.276   7.413
23566SOL     OW72471   3.172   3.294  10.095
23566SOL    HW172472   3.198   3.314  10.184
23566SOL    HW272473   3.151   3.200  10.096
23567SOL     OW72474   8.119   6.722   1.808
23567SOL    HW172475   8.185   6.772   1.855
23567SOL    HW272476   8.136   6.631   1.833
23568SOL     OW72477   9.638   8.310   3.263
23568SOL    HW172478   9.577   8.338   3.330
23568SOL    HW272479   9.705   8.259   3.310
23569SOL     OW72480   0.409   9.243   4.826
23569SOL    HW172481   0.354   9.291   4.888
23569SOL    HW272482   0.347   9.205   4.764
23570SOL     OW72483  12.167   7.603   1.820
23570SOL    HW172484  12.095   7.656   1.783
23570SOL    HW272485  12.134   7.575   1.905
23571SOL     OW72486   7.058   2.128   1.404
23571SOL    HW172487   6.986   2.173   1.448
23571SOL    HW272488   7.017   2.057   1.355
23572SOL     OW72489  13.439   0.732  14.384
23572SOL    HW172490  13.349   0.698  14.379
23572SOL    HW272491  13.428   0.825  14.402
23573SOL     OW72492  10.605   1.576  10.112
23573SOL    HW172493  10.571   1.487  10.103
23573SOL    HW272494  10.654   1.575  10.195
23574SOL     OW72495   4.326  14.483   7.546
23574SOL    HW172496   4.394  14.541   7.511
23574SOL    HW272497   4.251  14.540   7.561
23575SOL     OW72498   6.941   0.383   2.591
23575SOL    HW172499   6.847   0.377   2.611
23575SOL    HW272500   6.972   0.293   2.594
23576SOL     OW72501   6.041   5.460  11.230
23576SOL    HW172502   5.962   5.406  11.230
23576SOL    HW272503   6.009   5.550  11.240
23577SOL     OW72504  11.225  10.214   2.324
23577SOL    HW172505  11.222  10.274   2.249
23577SOL    HW272506  11.317  10.192   2.334
23578SOL     OW72507   5.621   5.479   7.108
23578SOL    HW172508   5.582   5.566   7.094
23578SOL    HW272509   5.691   5.494   7.172
23579SOL     OW72510   1.720  12.815   8.537
23579SOL    HW172511   1.635  12.798   8.579
23579SOL    HW272512   1.780  12.755   8.581
23580SOL     OW72513   0.218   1.208  11.970
23580SOL    HW172514   0.186   1.211  11.879
23580SOL    HW272515   0.309   1.239  11.964
23581SOL     OW72516   7.033  11.471   0.910
23581SOL    HW172517   6.943  11.439   0.914
23581SOL    HW272518   7.035  11.524   0.830
23582SOL     OW72519   2.067   2.974   7.490
23582SOL    HW172520   2.027   2.887   7.492
23582SOL    HW272521   2.057   3.003   7.399
23583SOL     OW72522  12.250   5.058   5.195
23583SOL    HW172523  12.222   5.055   5.286
23583SOL    HW272524  12.169   5.071   5.145
23584SOL     OW72525  13.726   7.508  13.159
23584SOL    HW172526  13.705   7.415  13.161
23584SOL    HW272527  13.661   7.546  13.099
23585SOL     OW72528   0.296   2.155   5.328
23585SOL    HW172529   0.287   2.138   5.235
23585SOL    HW272530   0.292   2.250   5.336
23586SOL     OW72531   8.228  13.141  12.369
23586SOL    HW172532   8.318  13.163  12.395
23586SOL    HW272533   8.192  13.093  12.443
23587SOL     OW72534   3.334   7.962  14.517
23587SOL    HW172535   3.415   8.012  14.530
23587SOL    HW272536   3.265   8.018  14.552
23588SOL     OW72537  10.576   8.082  10.007
23588SOL    HW172538  10.592   8.144  10.078
23588SOL    HW272539  10.578   8.136   9.928
23589SOL     OW72540   7.832   6.611  10.878
23589SOL    HW172541   7.797   6.699  10.890
23589SOL    HW272542   7.780   6.575  10.806
23590SOL     OW72543   4.207   5.568  14.777
23590SOL    HW172544   4.129   5.570  14.832
23590SOL    HW272545   4.274   5.614  14.828
23591SOL     OW72546   8.434   6.609   5.799
23591SOL    HW172547   8.382   6.687   5.779
23591SOL    HW272548   8.499   6.605   5.730
23592SOL     OW72549   7.635   9.697  11.338
23592SOL    HW172550   7.730   9.709  11.334
23592SOL    HW272551   7.615   9.637  11.266
23593SOL     OW72552   1.069   7.506  13.056
23593SOL    HW172553   1.093   7.490  12.965
23593SOL    HW272554   0.982   7.544  13.053
23594SOL     OW72555   4.646   9.425   8.177
23594SOL    HW172556   4.616   9.419   8.268
23594SOL    HW272557   4.588   9.490   8.137
23595SOL     OW72558   4.524  14.551   6.547
23595SOL    HW172559   4.510  14.458   6.528
23595SOL    HW272560   4.444  14.578   6.593
23596SOL     OW72561   0.012   2.399   0.540
23596SOL    HW172562   0.050   2.407   0.627
23596SOL    HW272563   0.087   2.397   0.481
23597SOL     OW72564  13.464  14.871   5.993
23597SOL    HW172565  13.402  14.813   5.949
23597SOL    HW272566  13.550  14.831   5.977
23598SOL     OW72567   4.857  10.016  14.305
23598SOL    HW172568   4.812  10.012  14.220
23598SOL    HW272569   4.819  10.093  14.348
23599SOL     OW72570  12.440   7.369   9.488
23599SOL    HW172571  12.488   7.408   9.415
23599SOL    HW272572  12.359   7.421   9.494
23600SOL     OW72573  12.641   3.931  12.342
23600SOL    HW172574  12.598   3.927  12.427
23600SOL    HW272575  12.726   3.888  12.355
23601SOL     OW72576   0.990  11.309   1.773
23601SOL    HW172577   0.959  11.280   1.687
23601SOL    HW272578   0.977  11.404   1.772
23602SOL     OW72579   3.962   3.226  11.545
23602SOL    HW172580   4.032   3.283  11.514
23602SOL    HW272581   3.921   3.192  11.466
23603SOL     OW72582   6.095   4.814  10.012
23603SOL    HW172583   6.012   4.851  10.043
23603SOL    HW272584   6.069   4.749   9.947
23604SOL     OW72585   2.427   5.343   8.994
23604SOL    HW172586   2.491   5.288   9.040
23604SOL    HW272587   2.474   5.376   8.918
23605SOL     OW72588   9.017   5.406   0.335
23605SOL    HW172589   8.931   5.408   0.293
23605SOL    HW272590   9.077   5.443   0.270
23606SOL     OW72591   7.694  12.279  11.063
23606SOL    HW172592   7.747  12.349  11.102
23606SOL    HW272593   7.626  12.261  11.128
23607SOL     OW72594   7.530  10.968   1.715
23607SOL    HW172595   7.577  10.896   1.757
23607SOL    HW272596   7.592  11.002   1.651
23608SOL     OW72597   8.714   0.178   6.909
23608SOL    HW172598   8.730   0.106   6.848
23608SOL    HW272599   8.684   0.136   6.989
23609SOL     OW72600  13.172  11.556   6.971
23609SOL    HW172601  13.217  11.537   7.053
23609SOL    HW272602  13.206  11.641   6.944
23610SOL     OW72603  13.710  14.775   7.530
23610SOL    HW172604  13.692  14.811   7.443
23610SOL    HW272605  13.645  14.816   7.587
23611SOL     OW72606   5.489  11.997   5.148
23611SOL    HW172607   5.397  12.006   5.173
23611SOL    HW272608   5.516  12.085   5.124
23612SOL     OW72609  12.254   4.694   4.953
23612SOL    HW172610  12.169   4.704   4.996
23612SOL    HW272611  12.295   4.780   4.960
23613SOL     OW72612  13.896   5.530   7.362
23613SOL    HW172613  13.821   5.472   7.375
23613SOL    HW272614  13.939   5.533   7.447
23614SOL     OW72615   5.299   2.587  10.716
23614SOL    HW172616   5.384   2.614  10.680
23614SOL    HW272617   5.320   2.513  10.773
23615SOL     OW72618   1.482   2.298   7.265
23615SOL    HW172619   1.455   2.215   7.304
23615SOL    HW272620   1.577   2.300   7.276
23616SOL     OW72621  10.284   8.749  14.715
23616SOL    HW172622  10.220   8.759  14.786
23616SOL    HW272623  10.272   8.826  14.661
23617SOL     OW72624   9.151  10.838   1.693
23617SOL    HW172625   9.067  10.823   1.650
23617SOL    HW272626   9.188  10.913   1.646
23618SOL     OW72627  12.578   3.307  12.694
23618SOL    HW172628  12.576   3.219  12.657
23618SOL    HW272629  12.505   3.309  12.755
23619SOL     OW72630  11.129   3.807   4.356
23619SOL    HW172631  11.120   3.754   4.436
23619SOL    HW272632  11.223   3.817   4.345
23620SOL     OW72633   3.082  14.196   1.912
23620SOL    HW172634   3.035  14.171   1.832
23620SOL    HW272635   3.151  14.130   1.922
23621SOL     OW72636  10.283   0.966   6.042
23621SOL    HW172637  10.223   0.994   5.973
23621SOL    HW272638  10.319   0.883   6.011
23622SOL     OW72639  10.104   0.041  11.297
23622SOL    HW172640  10.032   0.045  11.234
23622SOL    HW272641  10.163  14.852  11.264
23623SOL     OW72642  14.224   7.085  14.837
23623SOL    HW172643  14.236   7.015   0.023
23623SOL    HW272644  14.171   7.151   0.004
23624SOL     OW72645   7.537  12.327  12.527
23624SOL    HW172646   7.495  12.379  12.459
23624SOL    HW272647   7.465  12.298  12.584
23625SOL     OW72648   3.636   7.005  13.502
23625SOL    HW172649   3.692   6.965  13.568
23625SOL    HW272650   3.547   6.996  13.539
23626SOL     OW72651  12.489   4.694  11.114
23626SOL    HW172652  12.534   4.757  11.170
23626SOL    HW272653  12.405   4.679  11.157
23627SOL     OW72654  11.125   1.358   9.716
23627SOL    HW172655  11.034   1.333   9.732
23627SOL    HW272656  11.170   1.339   9.799
23628SOL     OW72657   1.561   9.473   9.307
23628SOL    HW172658   1.622   9.514   9.368
23628SOL    HW272659   1.478   9.468   9.355
23629SOL     OW72660   2.612   6.255   7.860
23629SOL    HW172661   2.545   6.208   7.910
23629SOL    HW272662   2.566   6.288   7.783
23630SOL     OW72663   7.674   8.373  12.623
23630SOL    HW172664   7.708   8.462  12.616
23630SOL    HW272665   7.675   8.355  12.717
23631SOL     OW72666   5.876   9.157   4.871
23631SOL    HW172667   5.815   9.114   4.811
23631SOL    HW272668   5.828   9.165   4.954
23632SOL     OW72669   3.380  14.865  14.685
23632SOL    HW172670   3.464  14.871  14.730
23632SOL    HW272671   3.352  14.775  14.698
23633SOL     OW72672   1.108   5.341   4.254
23633SOL    HW172673   1.149   5.397   4.188
23633SOL    HW272674   1.025   5.383   4.274
23634SOL     OW72675  11.167  12.620   3.657
23634SOL    HW172676  11.139  12.584   3.742
23634SOL    HW272677  11.096  12.599   3.597
23635SOL     OW72678   5.445   4.560   4.570
23635SOL    HW172679   5.464   4.483   4.623
23635SOL    HW272680   5.448   4.529   4.480
23636SOL     OW72681   7.924   1.273   6.557
23636SOL    HW172682   7.845   1.224   6.580
23636SOL    HW272683   7.904   1.312   6.472
23637SOL     OW72684  14.242   8.604  13.858
23637SOL    HW172685  14.266   8.528  13.804
23637SOL    HW272686  14.149   8.619  13.840
23638SOL     OW72687   4.801  11.675  10.354
23638SOL    HW172688   4.895  11.661  10.361
23638SOL    HW272689   4.781  11.735  10.426
23639SOL     OW72690   0.590   4.538   5.163
23639SOL    HW172691   0.504   4.580   5.161
23639SOL    HW272692   0.629   4.561   5.078
23640SOL     OW72693   7.631  10.336  13.278
23640SOL    HW172694   7.708  10.291  13.314
23640SOL    HW272695   7.579  10.358  13.355
23641SOL     OW72696   3.451  13.845  11.529
23641SOL    HW172697   3.374  13.864  11.582
23641SOL    HW272698   3.523  13.889  11.574
23642SOL     OW72699  13.629  13.935   0.115
23642SOL    HW172700  13.587  14.015   0.081
23642SOL    HW272701  13.559  13.891   0.163
23643SOL     OW72702  11.832  11.231   0.141
23643SOL    HW172703  11.765  11.296   0.163
23643SOL    HW272704  11.904  11.248   0.201
23644SOL     OW72705   9.794  10.162  10.097
23644SOL    HW172706   9.713  10.120  10.066
23644SOL    HW272707   9.767  10.250  10.123
23645SOL     OW72708   1.999  12.153   9.961
23645SOL    HW172709   1.930  12.110   9.912
23645SOL    HW272710   2.077  12.101   9.944
23646SOL     OW72711  10.423  11.047   3.638
23646SOL    HW172712  10.420  11.128   3.689
23646SOL    HW272713  10.346  11.051   3.582
23647SOL     OW72714  14.233   3.921   2.540
23647SOL    HW172715  14.294   3.967   2.482
23647SOL    HW272716  14.287   3.857   2.586
23648SOL     OW72717   9.272   0.655   3.763
23648SOL    HW172718   9.358   0.620   3.789
23648SOL    HW272719   9.293   0.727   3.703
23649SOL     OW72720  12.977   5.514  13.848
23649SOL    HW172721  13.056   5.470  13.879
23649SOL    HW272722  12.918   5.443  13.824
23650SOL     OW72723  12.818   1.073  12.544
23650SOL    HW172724  12.797   1.123  12.622
23650SOL    HW272725  12.806   0.981  12.570
23651SOL     OW72726   9.737   0.267  12.120
23651SOL    HW172727   9.702   0.286  12.033
23651SOL    HW272728   9.826   0.301  12.118
23652SOL     OW72729   2.731   7.626   9.246
23652SOL    HW172730   2.811   7.582   9.277
23652SOL    HW272731   2.660   7.579   9.290
23653SOL     OW72732   6.060   1.261   4.126
23653SOL    HW172733   6.022   1.261   4.038
23653SOL    HW272734   5.994   1.304   4.180
23654SOL     OW72735   6.262   0.348   8.631
23654SOL    HW172736   6.324   0.357   8.702
23654SOL    HW272737   6.184   0.395   8.661
23655SOL     OW72738  13.573   0.751  12.247
23655SOL    HW172739  13.490   0.784  12.214
23655SOL    HW272740  13.583   0.793  12.333
23656SOL     OW72741   5.463   7.552   2.273
23656SOL    HW172742   5.539   7.608   2.292
23656SOL    HW272743   5.440   7.573   2.182
23657SOL     OW72744   0.127   6.412   0.952
23657SOL    HW172745   0.055   6.384   1.009
23657SOL    HW272746   0.203   6.418   1.010
23658SOL     OW72747   7.664   5.774   5.393
23658SOL    HW172748   7.607   5.700   5.413
23658SOL    HW272749   7.604   5.849   5.386
23659SOL     OW72750   4.735   8.208   2.470
23659SOL    HW172751   4.725   8.297   2.437
23659SOL    HW272752   4.648   8.170   2.463
23660SOL     OW72753  13.091   1.218   8.856
23660SOL    HW172754  13.147   1.293   8.871
23660SOL    HW272755  13.002   1.254   8.853
23661SOL     OW72756   4.779   5.624   3.062
23661SOL    HW172757   4.706   5.636   3.123
23661SOL    HW272758   4.849   5.679   3.097
23662SOL     OW72759   7.331   0.652   0.902
23662SOL    HW172760   7.259   0.589   0.900
23662SOL    HW272761   7.290   0.736   0.884
23663SOL     OW72762  11.143  10.430   0.785
23663SOL    HW172763  11.080  10.370   0.745
23663SOL    HW272764  11.215  10.435   0.722
23664SOL     OW72765  10.573   9.983  14.078
23664SOL    HW172766  10.576   9.902  14.027
23664SOL    HW272767  10.598  10.051  14.017
23665SOL     OW72768   9.883   9.656   9.839
23665SOL    HW172769   9.926   9.591   9.895
23665SOL    HW272770   9.953   9.716   9.814
23666SOL     OW72771  14.204   4.236   8.426
23666SOL    HW172772  14.299   4.225   8.427
23666SOL    HW272773  14.185   4.294   8.499
23667SOL     OW72774  11.283   4.796  13.833
23667SOL    HW172775  11.302   4.819  13.742
23667SOL    HW272776  11.366   4.761  13.866
23668SOL     OW72777   8.471  11.344   2.267
23668SOL    HW172778   8.506  11.370   2.352
23668SOL    HW272779   8.415  11.268   2.286
23669SOL     OW72780  12.773   2.264  14.343
23669SOL    HW172781  12.766   2.178  14.302
23669SOL    HW272782  12.826   2.315  14.281
23670SOL     OW72783   5.384   1.243  13.719
23670SOL    HW172784   5.303   1.271  13.676
23670SOL    HW272785   5.407   1.315  13.778
23671SOL     OW72786   9.855   3.834   3.530
23671SOL    HW172787   9.857   3.930   3.537
23671SOL    HW272788   9.783   3.817   3.470
23672SOL     OW72789   4.861   1.416   7.339
23672SOL    HW172790   4.911   1.340   7.369
23672SOL    HW272791   4.779   1.411   7.387
23673SOL     OW72792  12.666  13.224   6.370
23673SOL    HW172793  12.724  13.298   6.353
23673SOL    HW272794  12.642  13.191   6.283
23674SOL     OW72795   0.026   7.421  11.314
23674SOL    HW172796   0.088   7.467  11.257
23674SOL    HW272797   0.020   7.476  11.392
23675SOL     OW72798   7.282  12.668  13.334
23675SOL    HW172799   7.230  12.612  13.392
23675SOL    HW272800   7.373  12.646  13.354
23676SOL     OW72801   5.344  12.834   7.681
23676SOL    HW172802   5.376  12.924   7.671
23676SOL    HW272803   5.268  12.843   7.738
23677SOL     OW72804   7.110   8.872   8.270
23677SOL    HW172805   7.165   8.813   8.218
23677SOL    HW272806   7.170   8.912   8.333
23678SOL     OW72807   5.330  11.617   0.791
23678SOL    HW172808   5.356  11.690   0.735
23678SOL    HW272809   5.256  11.650   0.841
23679SOL     OW72810   4.346  12.835   7.878
23679SOL    HW172811   4.390  12.806   7.959
23679SOL    HW272812   4.291  12.761   7.854
23680SOL     OW72813   2.462   1.958   0.605
23680SOL    HW172814   2.370   1.970   0.626
23680SOL    HW272815   2.500   2.046   0.608
23681SOL     OW72816   8.418  12.815   3.078
23681SOL    HW172817   8.391  12.895   3.032
23681SOL    HW272818   8.342  12.791   3.131
23682SOL     OW72819   1.935   3.015  10.337
23682SOL    HW172820   2.004   3.081  10.329
23682SOL    HW272821   1.871   3.055  10.395
23683SOL     OW72822   0.948   7.926   9.414
23683SOL    HW172823   0.918   7.944   9.503
23683SOL    HW272824   1.035   7.887   9.425
23684SOL     OW72825   2.482  13.143   6.974
23684SOL    HW172826   2.391  13.122   6.951
23684SOL    HW272827   2.484  13.239   6.977
23685SOL     OW72828  13.677   5.098   3.903
23685SOL    HW172829  13.651   5.038   3.973
23685SOL    HW272830  13.750   5.148   3.940
23686SOL     OW72831   1.593   3.067  14.016
23686SOL    HW172832   1.512   3.073  13.965
23686SOL    HW272833   1.570   3.106  14.101
23687SOL     OW72834   4.110   5.398   9.712
23687SOL    HW172835   4.146   5.443   9.789
23687SOL    HW272836   4.032   5.353   9.745
23688SOL     OW72837   4.087  14.626   9.230
23688SOL    HW172838   4.058  14.632   9.138
23688SOL    HW272839   4.125  14.712   9.248
23689SOL     OW72840   2.973  13.130   6.362
23689SOL    HW172841   3.049  13.120   6.304
23689SOL    HW272842   3.006  13.107   6.449
23690SOL     OW72843   0.999   4.782   6.421
23690SOL    HW172844   1.082   4.794   6.468
23690SOL    HW272845   0.958   4.868   6.422
23691SOL     OW72846   2.958   3.617  14.659
23691SOL    HW172847   2.888   3.613  14.724
23691SOL    HW272848   2.916   3.590  14.577
23692SOL     OW72849  11.727   1.527   3.721
23692SOL    HW172850  11.742   1.433   3.735
23692SOL    HW272851  11.756   1.543   3.631
23693SOL     OW72852   5.419   5.151   9.405
23693SOL    HW172853   5.402   5.062   9.373
23693SOL    HW272854   5.457   5.196   9.330
23694SOL     OW72855   7.827  13.801  13.784
23694SOL    HW172856   7.837  13.730  13.848
23694SOL    HW272857   7.780  13.760  13.711
23695SOL     OW72858   8.794  12.904   9.147
23695SOL    HW172859   8.816  12.903   9.054
23695SOL    HW272860   8.876  12.928   9.190
23696SOL     OW72861   0.471  11.761   2.598
23696SOL    HW172862   0.469  11.850   2.631
23696SOL    HW272863   0.387  11.723   2.626
23697SOL     OW72864   7.795  10.084   3.215
23697SOL    HW172865   7.858  10.020   3.246
23697SOL    HW272866   7.781  10.062   3.123
23698SOL     OW72867  14.571   9.392  12.841
23698SOL    HW172868  14.602   9.386  12.750
23698SOL    HW272869  14.475   9.395  12.833
23699SOL     OW72870   6.633   7.165  14.747
23699SOL    HW172871   6.697   7.202  14.686
23699SOL    HW272872   6.664   7.193  14.833
23700SOL     OW72873  10.687   1.124   2.332
23700SOL    HW172874  10.758   1.153   2.274
23700SOL    HW272875  10.666   1.201   2.384
23701SOL     OW72876  14.444  14.187  14.701
23701SOL    HW172877  14.428  14.275  14.736
23701SOL    HW272878  14.392  14.129  14.757
23702SOL     OW72879   1.513   3.600   6.241
23702SOL    HW172880   1.454   3.606   6.165
23702SOL    HW272881   1.485   3.670   6.299
23703SOL     OW72882  11.493   0.148   6.827
23703SOL    HW172883  11.434   0.210   6.785
23703SOL    HW272884  11.436   0.088   6.875
23704SOL     OW72885   5.583   6.026  10.661
23704SOL    HW172886   5.647   6.093  10.685
23704SOL    HW272887   5.632   5.944  10.666
23705SOL     OW72888   3.126   2.756   5.751
23705SOL    HW172889   3.108   2.719   5.665
23705SOL    HW272890   3.046   2.740   5.801
23706SOL     OW72891   5.904   6.433   8.147
23706SOL    HW172892   5.845   6.474   8.084
23706SOL    HW272893   5.963   6.381   8.094
23707SOL     OW72894  10.937  13.904   8.792
23707SOL    HW172895  10.932  13.810   8.808
23707SOL    HW272896  11.027  13.928   8.817
23708SOL     OW72897  13.571   6.710   3.146
23708SOL    HW172898  13.607   6.786   3.102
23708SOL    HW272899  13.502   6.678   3.088
23709SOL     OW72900   1.422  12.177   6.032
23709SOL    HW172901   1.377  12.259   6.012
23709SOL    HW272902   1.515  12.199   6.028
23710SOL     OW72903  13.656  13.351   1.959
23710SOL    HW172904  13.591  13.311   2.017
23710SOL    HW272905  13.718  13.394   2.019
23711SOL     OW72906  13.784   4.108   4.819
23711SOL    HW172907  13.831   4.161   4.883
23711SOL    HW272908  13.736   4.044   4.872
23712SOL     OW72909   8.147   4.658   8.217
23712SOL    HW172910   8.233   4.641   8.256
23712SOL    HW272911   8.086   4.612   8.274
23713SOL     OW72912  11.063   7.378   4.069
23713SOL    HW172913  11.133   7.342   4.124
23713SOL    HW272914  11.108   7.406   3.989
23714SOL     OW72915   3.241   6.766   7.493
23714SOL    HW172916   3.196   6.752   7.576
23714SOL    HW272917   3.171   6.789   7.431
23715SOL     OW72918  13.544   6.800   1.714
23715SOL    HW172919  13.514   6.755   1.792
23715SOL    HW272920  13.607   6.741   1.673
23716SOL     OW72921   8.206   3.529   9.486
23716SOL    HW172922   8.167   3.442   9.491
23716SOL    HW272923   8.286   3.517   9.434
23717SOL     OW72924   3.154  14.424  12.326
23717SOL    HW172925   3.182  14.471  12.405
23717SOL    HW272926   3.235  14.390  12.288
23718SOL     OW72927   5.317  10.647   6.808
23718SOL    HW172928   5.255  10.650   6.882
23718SOL    HW272929   5.403  10.646   6.850
23719SOL     OW72930   5.046   9.675   8.111
23719SOL    HW172931   5.114   9.611   8.090
23719SOL    HW272932   5.053   9.741   8.041
23720SOL     OW72933   0.858   9.950   0.311
23720SOL    HW172934   0.904  10.033   0.318
23720SOL    HW272935   0.838   9.941   0.218
23721SOL     OW72936   2.291  11.688   0.226
23721SOL    HW172937   2.319  11.698   0.135
23721SOL    HW272938   2.226  11.617   0.223
23722SOL     OW72939  10.108   2.680   2.092
23722SOL    HW172940  10.041   2.735   2.051
23722SOL    HW272941  10.076   2.591   2.081
23723SOL     OW72942   4.486  12.768  13.012
23723SOL    HW172943   4.444  12.782  12.927
23723SOL    HW272944   4.413  12.753  13.073
23724SOL     OW72945   7.511   8.699   2.096
23724SOL    HW172946   7.527   8.696   2.001
23724SOL    HW272947   7.588   8.656   2.134
23725SOL     OW72948   7.050  12.214  10.207
23725SOL    HW172949   6.977  12.157  10.185
23725SOL    HW272950   7.083  12.245  10.123
23726SOL     OW72951   1.660   7.046  14.874
23726SOL    HW172952   1.619   7.118  14.826
23726SOL    HW272953   1.754   7.061  14.863
23727SOL     OW72954   2.377  12.368   3.543
23727SOL    HW172955   2.340  12.356   3.456
23727SOL    HW272956   2.457  12.418   3.529
23728SOL     OW72957  12.862   5.785  13.424
23728SOL    HW172958  12.792   5.746  13.373
23728SOL    HW272959  12.830   5.873  13.445
23729SOL     OW72960  11.792   9.214   6.144
23729SOL    HW172961  11.872   9.235   6.193
23729SOL    HW272962  11.736   9.170   6.209
23730SOL     OW72963   8.972   6.662   9.839
23730SOL    HW172964   8.912   6.628   9.773
23730SOL    HW272965   8.951   6.612   9.918
23731SOL     OW72966  13.758   9.284  11.798
23731SOL    HW172967  13.835   9.337  11.778
23731SOL    HW272968  13.739   9.304  11.890
23732SOL     OW72969  14.627  11.012   3.892
23732SOL    HW172970  14.682  11.017   3.813
23732SOL    HW272971  14.538  11.019   3.859
23733SOL     OW72972  13.161   4.632   0.231
23733SOL    HW172973  13.156   4.728   0.240
23733SOL    HW272974  13.136   4.599   0.317
23734SOL     OW72975   3.177   1.279   1.764
23734SOL    HW172976   3.177   1.371   1.791
23734SOL    HW272977   3.251   1.271   1.705
23735SOL     OW72978   2.444   7.469  14.639
23735SOL    HW172979   2.521   7.508  14.599
23735SOL    HW272980   2.449   7.496  14.731
23736SOL     OW72981   6.387   4.230   9.913
23736SOL    HW172982   6.325   4.185   9.855
23736SOL    HW272983   6.412   4.163   9.977
23737SOL     OW72984   4.291   5.718   3.340
23737SOL    HW172985   4.203   5.726   3.378
23737SOL    HW272986   4.301   5.796   3.286
23738SOL     OW72987   9.309   2.237   8.326
23738SOL    HW172988   9.346   2.233   8.414
23738SOL    HW272989   9.256   2.317   8.325
23739SOL     OW72990  13.483   8.751  13.111
23739SOL    HW172991  13.459   8.697  13.187
23739SOL    HW272992  13.486   8.840  13.146
23740SOL     OW72993   7.927   8.346  13.573
23740SOL    HW172994   7.834   8.325  13.563
23740SOL    HW272995   7.964   8.329  13.486
23741SOL     OW72996   7.893   4.611   0.807
23741SOL    HW172997   7.909   4.614   0.712
23741SOL    HW272998   7.900   4.702   0.836
23742SOL     OW72999  12.378  14.764   1.093
23742SOL    HW173000  12.302  14.748   1.149
23742SOL    HW273001  12.381  14.688   1.035
23743SOL     OW73002   4.142   4.374   6.548
23743SOL    HW173003   4.147   4.469   6.536
23743SOL    HW273004   4.184   4.358   6.632
23744SOL     OW73005  11.264   4.397  12.102
23744SOL    HW173006  11.233   4.403  12.012
23744SOL    HW273007  11.313   4.478  12.116
23745SOL     OW73008  14.129   6.029   1.227
23745SOL    HW173009  14.190   6.065   1.163
23745SOL    HW273010  14.136   6.087   1.303
23746SOL     OW73011  13.827  12.387   7.730
23746SOL    HW173012  13.920  12.410   7.731
23746SOL    HW273013  13.781  12.471   7.732
23747SOL     OW73014   8.549   6.228   4.292
23747SOL    HW173015   8.568   6.311   4.337
23747SOL    HW273016   8.554   6.250   4.199
23748SOL     OW73017   2.055   3.032   9.508
23748SOL    HW173018   2.028   3.087   9.435
23748SOL    HW273019   2.038   3.086   9.586
23749SOL     OW73020  13.949   3.776  10.203
23749SOL    HW173021  13.975   3.758  10.113
23749SOL    HW273022  13.853   3.774  10.201
23750SOL     OW73023   4.640  11.929  14.318
23750SOL    HW173024   4.702  11.886  14.259
23750SOL    HW273025   4.554  11.913  14.279
23751SOL     OW73026   3.510   5.470  12.445
23751SOL    HW173027   3.517   5.561  12.416
23751SOL    HW273028   3.509   5.419  12.364
23752SOL     OW73029   3.772   4.595   4.757
23752SOL    HW173030   3.804   4.506   4.741
23752SOL    HW273031   3.700   4.606   4.695
23753SOL     OW73032   4.602  11.579  12.826
23753SOL    HW173033   4.559  11.641  12.886
23753SOL    HW273034   4.690  11.568  12.862
23754SOL     OW73035   8.653   1.291   2.990
23754SOL    HW173036   8.732   1.336   3.018
23754SOL    HW273037   8.658   1.205   3.031
23755SOL     OW73038   6.709  13.944   1.993
23755SOL    HW173039   6.705  13.882   1.920
23755SOL    HW273040   6.619  13.954   2.022
23756SOL     OW73041   0.850   9.823   3.515
23756SOL    HW173042   0.832   9.917   3.527
23756SOL    HW273043   0.861   9.813   3.421
23757SOL     OW73044   7.754  10.029   6.726
23757SOL    HW173045   7.738   9.936   6.741
23757SOL    HW273046   7.840  10.032   6.684
23758SOL     OW73047  12.092   4.921   9.569
23758SOL    HW173048  12.174   4.906   9.616
23758SOL    HW273049  12.027   4.935   9.638
23759SOL     OW73050  13.135   3.478   6.099
23759SOL    HW173051  13.213   3.486   6.045
23759SOL    HW273052  13.088   3.560   6.086
23760SOL     OW73053  14.116  11.622   3.937
23760SOL    HW173054  14.066  11.702   3.923
23760SOL    HW273055  14.156  11.603   3.852
23761SOL     OW73056   0.126   2.756   1.382
23761SOL    HW173057   0.106   2.728   1.471
23761SOL    HW273058   0.041   2.774   1.343
23762SOL     OW73059  10.196   7.369  13.280
23762SOL    HW173060  10.251   7.311  13.331
23762SOL    HW273061  10.254   7.440  13.252
23763SOL     OW73062  12.440  13.827  12.323
23763SOL    HW173063  12.418  13.920  12.317
23763SOL    HW273064  12.487  13.819  12.407
23764SOL     OW73065   0.779  14.129  12.081
23764SOL    HW173066   0.684  14.137  12.092
23764SOL    HW273067   0.806  14.068  12.149
23765SOL     OW73068   3.705  11.229   2.200
23765SOL    HW173069   3.647  11.301   2.175
23765SOL    HW273070   3.648  11.170   2.251
23766SOL     OW73071   6.897   1.702   6.688
23766SOL    HW173072   6.809   1.728   6.712
23766SOL    HW273073   6.937   1.670   6.769
23767SOL     OW73074   4.775   9.888  13.846
23767SOL    HW173075   4.735   9.850  13.768
23767SOL    HW273076   4.869   9.890  13.827
23768SOL     OW73077   8.118   6.446   8.255
23768SOL    HW173078   8.203   6.484   8.233
23768SOL    HW273079   8.071   6.517   8.299
23769SOL     OW73080   7.797   6.480   4.265
23769SOL    HW173081   7.772   6.441   4.349
23769SOL    HW273082   7.810   6.406   4.207
23770SOL     OW73083   4.730   3.385   8.296
23770SOL    HW173084   4.774   3.468   8.313
23770SOL    HW273085   4.695   3.395   8.207
23771SOL     OW73086   3.597   8.029  12.480
23771SOL    HW173087   3.621   8.017  12.389
23771SOL    HW273088   3.510   8.068  12.478
23772SOL     OW73089  12.968   5.801   3.759
23772SOL    HW173090  12.939   5.720   3.716
23772SOL    HW273091  12.912   5.807   3.837
23773SOL     OW73092  11.547   8.999   0.451
23773SOL    HW173093  11.484   8.990   0.380
23773SOL    HW273094  11.497   8.977   0.530
23774SOL     OW73095  13.640   5.825  13.658
23774SOL    HW173096  13.618   5.807  13.749
23774SOL    HW273097  13.734   5.805  13.652
23775SOL     OW73098  12.255   8.263   9.075
23775SOL    HW173099  12.223   8.253   9.164
23775SOL    HW273100  12.349   8.244   9.081
23776SOL     OW73101   9.120  11.538  12.053
23776SOL    HW173102   9.165  11.480  12.114
23776SOL    HW273103   9.048  11.485  12.018
23777SOL     OW73104   8.338   8.197   3.008
23777SOL    HW173105   8.411   8.175   3.066
23777SOL    HW273106   8.289   8.264   3.054
23778SOL     OW73107   2.618   9.986   9.376
23778SOL    HW173108   2.602  10.055   9.311
23778SOL    HW273109   2.707  10.002   9.406
23779SOL     OW73110   9.661   2.168   2.607
23779SOL    HW173111   9.749   2.143   2.579
23779SOL    HW273112   9.614   2.085   2.613
23780SOL     OW73113   8.470   4.098   9.388
23780SOL    HW173114   8.527   4.168   9.357
23780SOL    HW273115   8.493   4.022   9.334
23781SOL     OW73116   6.244  14.564  14.586
23781SOL    HW173117   6.323  14.582  14.536
23781SOL    HW273118   6.195  14.501  14.532
23782SOL     OW73119  13.711   3.764  12.262
23782SOL    HW173120  13.691   3.672  12.279
23782SOL    HW273121  13.725   3.802  12.348
23783SOL     OW73122   6.670   7.408   0.585
23783SOL    HW173123   6.720   7.371   0.512
23783SOL    HW273124   6.686   7.502   0.580
23784SOL     OW73125   5.571   4.545   7.024
23784SOL    HW173126   5.641   4.519   6.965
23784SOL    HW273127   5.493   4.551   6.967
23785SOL     OW73128   0.697   4.918  13.487
23785SOL    HW173129   0.673   4.993  13.542
23785SOL    HW273130   0.619   4.901  13.434
23786SOL     OW73131   4.612   8.747   7.968
23786SOL    HW173132   4.640   8.797   7.891
23786SOL    HW273133   4.571   8.812   8.025
23787SOL     OW73134   2.327  14.263   7.384
23787SOL    HW173135   2.338  14.349   7.426
23787SOL    HW273136   2.415  14.239   7.355
23788SOL     OW73137   7.803   8.994   0.284
23788SOL    HW173138   7.884   8.946   0.302
23788SOL    HW273139   7.734   8.932   0.307
23789SOL     OW73140  14.499  11.144   8.960
23789SOL    HW173141  14.542  11.068   9.000
23789SOL    HW273142  14.406  11.131   8.979
23790SOL     OW73143   5.824  13.517   7.117
23790SOL    HW173144   5.729  13.523   7.114
23790SOL    HW273145   5.844  13.437   7.067
23791SOL     OW73146   8.602   8.583   1.797
23791SOL    HW173147   8.687   8.610   1.833
23791SOL    HW273148   8.540   8.648   1.829
23792SOL     OW73149  14.155   8.865  11.612
23792SOL    HW173150  14.082   8.917  11.646
23792SOL    HW273151  14.231   8.894  11.664
23793SOL     OW73152   4.055   7.561   4.030
23793SOL    HW173153   3.962   7.581   4.040
23793SOL    HW273154   4.090   7.566   4.119
23794SOL     OW73155   5.654   9.018   2.077
23794SOL    HW173156   5.676   8.927   2.095
23794SOL    HW273157   5.713   9.069   2.133
23795SOL     OW73158   1.763  11.964   2.267
23795SOL    HW173159   1.692  11.984   2.329
23795SOL    HW273160   1.791  12.050   2.236
23796SOL     OW73161  10.884   0.666  11.366
23796SOL    HW173162  10.878   0.667  11.271
23796SOL    HW273163  10.948   0.597  11.385
23797SOL     OW73164   2.582   1.683   3.356
23797SOL    HW173165   2.590   1.627   3.433
23797SOL    HW273166   2.501   1.653   3.314
23798SOL     OW73167   4.384   4.756   3.414
23798SOL    HW173168   4.300   4.793   3.440
23798SOL    HW273169   4.364   4.702   3.338
23799SOL     OW73170   2.049   0.694   1.630
23799SOL    HW173171   2.023   0.606   1.603
23799SOL    HW273172   2.144   0.695   1.622
23800SOL     OW73173  11.271   0.969  12.260
23800SOL    HW173174  11.256   0.916  12.182
23800SOL    HW273175  11.209   0.936  12.325
23801SOL     OW73176  10.801   7.569   7.277
23801SOL    HW173177  10.736   7.555   7.345
23801SOL    HW273178  10.766   7.642   7.225
23802SOL     OW73179   6.930   7.414   6.197
23802SOL    HW173180   6.955   7.401   6.289
23802SOL    HW273181   6.884   7.498   6.198
23803SOL     OW73182  13.177   0.115   7.145
23803SOL    HW173183  13.246   0.118   7.078
23803SOL    HW273184  13.113   0.181   7.117
23804SOL     OW73185   9.311   7.125  10.147
23804SOL    HW173186   9.301   7.165  10.234
23804SOL    HW273187   9.292   7.195  10.086
23805SOL     OW73188   3.406   2.290   5.650
23805SOL    HW173189   3.361   2.244   5.721
23805SOL    HW273190   3.348   2.363   5.628
23806SOL     OW73191   9.315   4.412  12.211
23806SOL    HW173192   9.405   4.424  12.181
23806SOL    HW273193   9.272   4.496  12.194
23807SOL     OW73194  14.803   3.423   2.774
23807SOL    HW173195  14.722   3.388   2.810
23807SOL    HW273196  14.797   3.409   2.680
23808SOL     OW73197   2.855  10.654  13.047
23808SOL    HW173198   2.932  10.647  13.104
23808SOL    HW273199   2.796  10.585  13.078
23809SOL     OW73200   2.383   8.790   1.539
23809SOL    HW173201   2.378   8.695   1.542
23809SOL    HW273202   2.390   8.811   1.446
23810SOL     OW73203   7.082  12.302   5.632
23810SOL    HW173204   7.038  12.276   5.713
23810SOL    HW273205   7.019  12.359   5.588
23811SOL     OW73206   6.177  14.180   6.440
23811SOL    HW173207   6.225  14.257   6.470
23811SOL    HW273208   6.111  14.165   6.508
23812SOL     OW73209   8.719  13.615   7.729
23812SOL    HW173210   8.718  13.679   7.657
23812SOL    HW273211   8.811  13.590   7.736
23813SOL     OW73212  14.193   7.658  11.491
23813SOL    HW173213  14.146   7.729  11.447
23813SOL    HW273214  14.225   7.602  11.420
23814SOL     OW73215   0.795  10.673   0.278
23814SOL    HW173216   0.854  10.749   0.276
23814SOL    HW273217   0.834  10.611   0.216
23815SOL     OW73218  10.961   9.776   2.513
23815SOL    HW173219  10.883   9.750   2.463
23815SOL    HW273220  11.028   9.791   2.446
23816SOL     OW73221  10.206   4.771   5.883
23816SOL    HW173222  10.255   4.792   5.804
23816SOL    HW273223  10.220   4.845   5.941
23817SOL     OW73224   2.661  13.786  10.317
23817SOL    HW173225   2.644  13.733  10.395
23817SOL    HW273226   2.589  13.848  10.314
23818SOL     OW73227   1.434  14.138   2.377
23818SOL    HW173228   1.361  14.122   2.437
23818SOL    HW273229   1.457  14.052   2.343
23819SOL     OW73230   3.905   8.079   8.069
23819SOL    HW173231   3.954   8.089   7.988
23819SOL    HW273232   3.957   8.126   8.134
23820SOL     OW73233  14.720   9.661  10.927
23820SOL    HW173234  14.675   9.581  10.955
23820SOL    HW273235  14.770   9.635  10.849
23821SOL     OW73236   9.832  10.161   4.605
23821SOL    HW173237   9.925  10.156   4.583
23821SOL    HW273238   9.793  10.085   4.560
23822SOL     OW73239   3.850   0.192   8.499
23822SOL    HW173240   3.828   0.202   8.591
23822SOL    HW273241   3.941   0.163   8.499
23823SOL     OW73242   4.969   0.094   0.420
23823SOL    HW173243   5.041   0.140   0.463
23823SOL    HW273244   4.892   0.116   0.473
23824SOL     OW73245  10.870   1.190   3.375
23824SOL    HW173246  10.896   1.158   3.461
23824SOL    HW273247  10.851   1.111   3.325
23825SOL     OW73248   5.813  10.630   4.625
23825SOL    HW173249   5.894  10.615   4.578
23825SOL    HW273250   5.836  10.621   4.718
23826SOL     OW73251   5.374   0.886   0.274
23826SOL    HW173252   5.355   0.816   0.337
23826SOL    HW273253   5.405   0.959   0.328
23827SOL     OW73254   8.854  12.884   8.440
23827SOL    HW173255   8.941  12.848   8.458
23827SOL    HW273256   8.825  12.838   8.361
23828SOL     OW73257  11.979   6.444   5.389
23828SOL    HW173258  12.030   6.523   5.406
23828SOL    HW273259  11.960   6.447   5.295
23829SOL     OW73260  13.013  12.309   8.139
23829SOL    HW173261  13.049  12.320   8.227
23829SOL    HW273262  13.079  12.257   8.092
23830SOL     OW73263   6.044  14.200  11.829
23830SOL    HW173264   6.012  14.185  11.740
23830SOL    HW273265   6.132  14.235  11.816
23831SOL     OW73266  10.157  11.813   7.460
23831SOL    HW173267  10.183  11.827   7.369
23831SOL    HW273268  10.161  11.899   7.500
23832SOL     OW73269   6.393   8.543   2.291
23832SOL    HW173270   6.437   8.583   2.216
23832SOL    HW273271   6.340   8.613   2.328
23833SOL     OW73272  14.501   5.881  12.486
23833SOL    HW173273  14.485   5.974  12.471
23833SOL    HW273274  14.512   5.844  12.398
23834SOL     OW73275   7.056   1.165  12.577
23834SOL    HW173276   7.107   1.244  12.555
23834SOL    HW273277   7.047   1.119  12.493
23835SOL     OW73278  14.463  14.675   2.061
23835SOL    HW173279  14.491  14.729   2.135
23835SOL    HW273280  14.496  14.720   1.984
23836SOL     OW73281   7.340   5.664  12.664
23836SOL    HW173282   7.276   5.727  12.632
23836SOL    HW273283   7.384   5.709  12.736
23837SOL     OW73284   3.253   8.897  10.694
23837SOL    HW173285   3.216   8.843  10.623
23837SOL    HW273286   3.334   8.852  10.718
23838SOL     OW73287  12.412   2.343   0.297
23838SOL    HW173288  12.332   2.315   0.253
23838SOL    HW273289  12.450   2.409   0.239
23839SOL     OW73290   2.113   9.818  11.860
23839SOL    HW173291   2.030   9.783  11.894
23839SOL    HW273292   2.097   9.912  11.852
23840SOL     OW73293  11.650   4.805   9.838
23840SOL    HW173294  11.680   4.833   9.925
23840SOL    HW273295  11.620   4.715   9.852
23841SOL     OW73296   9.223   7.139   2.574
23841SOL    HW173297   9.131   7.121   2.592
23841SOL    HW273298   9.271   7.072   2.624
23842SOL     OW73299   1.988   4.720   0.924
23842SOL    HW173300   1.965   4.634   0.958
23842SOL    HW273301   2.080   4.711   0.899
23843SOL     OW73302   7.625   5.511  12.677
23843SOL    HW173303   7.642   5.432  12.627
23843SOL    HW273304   7.549   5.551  12.634
23844SOL     OW73305  10.854  10.777   4.668
23844SOL    HW173306  10.832  10.687   4.642
23844SOL    HW273307  10.949  10.781   4.664
23845SOL     OW73308   8.447   5.974  12.491
23845SOL    HW173309   8.448   6.005  12.401
23845SOL    HW273310   8.446   6.054  12.544
23846SOL     OW73311   4.704   3.220   3.048
23846SOL    HW173312   4.683   3.298   3.100
23846SOL    HW273313   4.619   3.185   3.021
23847SOL     OW73314   4.650   4.854   1.648
23847SOL    HW173315   4.711   4.909   1.698
23847SOL    HW273316   4.704   4.781   1.617
23848SOL     OW73317   1.721  12.969   3.874
23848SOL    HW173318   1.725  13.046   3.817
23848SOL    HW273319   1.650  12.988   3.935
23849SOL     OW73320   5.328   5.024   6.630
23849SOL    HW173321   5.394   5.008   6.697
23849SOL    HW273322   5.373   5.077   6.564
23850SOL     OW73323   6.766   3.144   3.681
23850SOL    HW173324   6.754   3.218   3.621
23850SOL    HW273325   6.859   3.123   3.675
23851SOL     OW73326   5.425   7.937  10.789
23851SOL    HW173327   5.499   7.914  10.733
23851SOL    HW273328   5.435   8.031  10.806
23852SOL     OW73329   2.022   1.886  12.104
23852SOL    HW173330   2.100   1.856  12.058
23852SOL    HW273331   2.027   1.843  12.190
23853SOL     OW73332  11.434   1.624  14.207
23853SOL    HW173333  11.414   1.609  14.299
23853SOL    HW273334  11.422   1.718  14.195
23854SOL     OW73335   7.298   5.131  12.280
23854SOL    HW173336   7.391   5.153  12.272
23854SOL    HW273337   7.278   5.146  12.372
23855SOL     OW73338  14.824   8.668   0.350
23855SOL    HW173339   0.040   8.661   0.328
23855SOL    HW273340  14.813   8.607   0.423
23856SOL     OW73341   3.009   2.533  11.033
23856SOL    HW173342   2.919   2.566  11.030
23856SOL    HW273343   3.057   2.589  10.972
23857SOL     OW73344   6.972   5.013   3.425
23857SOL    HW173345   7.017   5.097   3.420
23857SOL    HW273346   6.883   5.031   3.395
23858SOL     OW73347  14.168   1.816  12.049
23858SOL    HW173348  14.085   1.782  12.014
23858SOL    HW273349  14.214   1.849  11.972
23859SOL     OW73350   6.612   0.438   4.330
23859SOL    HW173351   6.679   0.494   4.369
23859SOL    HW273352   6.555   0.415   4.402
23860SOL     OW73353   4.999   5.653   7.731
23860SOL    HW173354   5.039   5.579   7.684
23860SOL    HW273355   5.038   5.730   7.691
23861SOL     OW73356  12.287   3.608  12.782
23861SOL    HW173357  12.277   3.564  12.698
23861SOL    HW273358  12.211   3.581  12.833
23862SOL     OW73359  10.765  11.682   0.176
23862SOL    HW173360  10.717  11.756   0.139
23862SOL    HW273361  10.854  11.716   0.190
23863SOL     OW73362  12.457   4.483   3.691
23863SOL    HW173363  12.508   4.562   3.708
23863SOL    HW273364  12.440   4.446   3.777
23864SOL     OW73365   5.436  10.589  14.157
23864SOL    HW173366   5.462  10.509  14.113
23864SOL    HW273367   5.440  10.656  14.090
23865SOL     OW73368   2.808  13.168  13.255
23865SOL    HW173369   2.741  13.163  13.187
23865SOL    HW273370   2.769  13.223  13.323
23866SOL     OW73371   4.153  11.818  13.140
23866SOL    HW173372   4.124  11.833  13.050
23866SOL    HW273373   4.169  11.723  13.145
23867SOL     OW73374   2.228   1.045   6.585
23867SOL    HW173375   2.201   1.131   6.552
23867SOL    HW273376   2.178   0.983   6.533
23868SOL     OW73377   4.169   9.402   9.067
23868SOL    HW173378   4.133   9.324   9.026
23868SOL    HW273379   4.154   9.472   9.003
23869SOL     OW73380   5.996   9.998  10.908
23869SOL    HW173381   5.993  10.001  10.813
23869SOL    HW273382   6.064   9.935  10.929
23870SOL     OW73383   9.688   9.738   9.983
23870SOL    HW173384   9.648   9.674  10.043
23870SOL    HW273385   9.764   9.693   9.947
23871SOL     OW73386   1.725   7.623   3.961
23871SOL    HW173387   1.722   7.554   3.894
23871SOL    HW273388   1.762   7.699   3.916
23872SOL     OW73389  12.579   5.567  11.459
23872SOL    HW173390  12.488   5.546  11.439
23872SOL    HW273391  12.580   5.584  11.553
23873SOL     OW73392   1.206  12.051   3.867
23873SOL    HW173393   1.255  11.977   3.831
23873SOL    HW273394   1.273  12.110   3.902
23874SOL     OW73395  14.181  14.325  13.040
23874SOL    HW173396  14.152  14.345  12.951
23874SOL    HW273397  14.100  14.313  13.090
23875SOL     OW73398   1.640   7.616  12.847
23875SOL    HW173399   1.548   7.594  12.860
23875SOL    HW273400   1.662   7.675  12.920
23876SOL     OW73401  14.129   9.500   0.642
23876SOL    HW173402  14.135   9.591   0.671
23876SOL    HW273403  14.066   9.502   0.570
23877SOL     OW73404  13.415  12.961   4.596
23877SOL    HW173405  13.372  12.882   4.564
23877SOL    HW273406  13.393  12.965   4.689
23878SOL     OW73407   1.538  12.076   5.440
23878SOL    HW173408   1.501  12.120   5.517
23878SOL    HW273409   1.633  12.080   5.453
23879SOL     OW73410   3.950  13.219   3.022
23879SOL    HW173411   3.931  13.217   2.928
23879SOL    HW273412   4.024  13.159   3.033
23880SOL     OW73413   1.697   1.882   9.241
23880SOL    HW173414   1.674   1.972   9.217
23880SOL    HW273415   1.735   1.889   9.328
23881SOL     OW73416   5.402  11.875  10.922
23881SOL    HW173417   5.362  11.805  10.974
23881SOL    HW273418   5.450  11.928  10.985
23882SOL     OW73419   1.700  12.541   9.839
23882SOL    HW173420   1.667  12.497   9.918
23882SOL    HW273421   1.736  12.624   9.871
23883SOL     OW73422  13.882   0.088  12.570
23883SOL    HW173423  13.824   0.117  12.499
23883SOL    HW273424  13.952   0.153  12.570
23884SOL     OW73425   2.793  10.225   7.479
23884SOL    HW173426   2.867  10.203   7.422
23884SOL    HW273427   2.776  10.317   7.461
23885SOL     OW73428  13.490   4.059   8.564
23885SOL    HW173429  13.548   4.077   8.489
23885SOL    HW273430  13.402   4.062   8.527
23886SOL     OW73431  10.692   9.148   9.416
23886SOL    HW173432  10.663   9.199   9.491
23886SOL    HW273433  10.717   9.213   9.351
23887SOL     OW73434   8.925   9.914   3.817
23887SOL    HW173435   8.972   9.968   3.752
23887SOL    HW273436   8.890   9.841   3.766
23888SOL     OW73437   9.928  10.319  12.757
23888SOL    HW173438   9.970  10.250  12.810
23888SOL    HW273439   9.945  10.293  12.667
23889SOL     OW73440  13.341  12.942   4.853
23889SOL    HW173441  13.295  12.860   4.834
23889SOL    HW273442  13.304  12.971   4.936
23890SOL     OW73443   1.781  11.082   0.955
23890SOL    HW173444   1.755  11.122   1.038
23890SOL    HW273445   1.747  10.993   0.959
23891SOL     OW73446   5.485   8.199  10.436
23891SOL    HW173447   5.398   8.226  10.406
23891SOL    HW273448   5.485   8.104  10.424
23892SOL     OW73449   0.620   3.488  11.179
23892SOL    HW173450   0.690   3.427  11.206
23892SOL    HW273451   0.639   3.507  11.088
23893SOL     OW73452  14.582   9.037   0.009
23893SOL    HW173453  14.506   9.024  14.829
23893SOL    HW273454  14.657   9.018  14.832
23894SOL     OW73455   9.683  14.650   7.816
23894SOL    HW173456   9.677  14.719   7.750
23894SOL    HW273457   9.770  14.613   7.805
23895SOL     OW73458   3.568  10.304  13.623
23895SOL    HW173459   3.617  10.221  13.628
23895SOL    HW273460   3.591  10.339  13.537
23896SOL     OW73461  11.464   9.425  14.081
23896SOL    HW173462  11.445   9.518  14.091
23896SOL    HW273463  11.436   9.386  14.164
23897SOL     OW73464   7.884   9.972  14.382
23897SOL    HW173465   7.842   9.991  14.466
23897SOL    HW273466   7.848  10.037  14.321
23898SOL     OW73467   6.805  14.533  14.642
23898SOL    HW173468   6.823  14.481  14.721
23898SOL    HW273469   6.751  14.475  14.587
23899SOL     OW73470  12.484   4.693   1.458
23899SOL    HW173471  12.431   4.720   1.383
23899SOL    HW273472  12.468   4.760   1.525
23900SOL     OW73473   9.370  11.386   6.541
23900SOL    HW173474   9.453  11.389   6.493
23900SOL    HW273475   9.303  11.386   6.473
23901SOL     OW73476   6.931   2.645   9.710
23901SOL    HW173477   6.963   2.587   9.641
23901SOL    HW273478   6.851   2.602   9.743
23902SOL     OW73479   7.878   3.565   8.937
23902SOL    HW173480   7.971   3.587   8.929
23902SOL    HW273481   7.834   3.627   8.878
23903SOL     OW73482   0.636   2.436   2.682
23903SOL    HW173483   0.720   2.457   2.641
23903SOL    HW273484   0.623   2.343   2.664
23904SOL     OW73485   7.682   0.518  14.518
23904SOL    HW173486   7.603   0.472  14.545
23904SOL    HW273487   7.651   0.588  14.460
23905SOL     OW73488  11.816  14.636   4.740
23905SOL    HW173489  11.893  14.679   4.702
23905SOL    HW273490  11.851  14.589   4.816
23906SOL     OW73491   4.279   6.171   3.693
23906SOL    HW173492   4.311   6.153   3.782
23906SOL    HW273493   4.359   6.183   3.641
23907SOL     OW73494   5.445   0.252  10.991
23907SOL    HW173495   5.449   0.163  11.025
23907SOL    HW273496   5.536   0.283  10.995
23908SOL     OW73497  13.391  10.359  12.858
23908SOL    HW173498  13.340  10.437  12.840
23908SOL    HW273499  13.463  10.361  12.795
23909SOL     OW73500   5.216   7.763  11.382
23909SOL    HW173501   5.178   7.770  11.294
23909SOL    HW273502   5.304   7.799  11.373
23910SOL     OW73503   2.265   5.139   3.910
23910SOL    HW173504   2.299   5.055   3.881
23910SOL    HW273505   2.181   5.117   3.952
23911SOL     OW73506   0.845   3.525  13.596
23911SOL    HW173507   0.801   3.460  13.541
23911SOL    HW273508   0.891   3.581  13.533
23912SOL     OW73509   9.375   7.378  10.938
23912SOL    HW173510   9.465   7.356  10.912
23912SOL    HW273511   9.386   7.428  11.019
23913SOL     OW73512   9.778   6.145   6.078
23913SOL    HW173513   9.817   6.232   6.069
23913SOL    HW273514   9.738   6.129   5.993
23914SOL     OW73515   2.861   7.356   3.057
23914SOL    HW173516   2.862   7.424   2.990
23914SOL    HW273517   2.942   7.370   3.106
23915SOL     OW73518  10.798   9.364   8.521
23915SOL    HW173519  10.858   9.438   8.530
23915SOL    HW273520  10.840   9.307   8.457
23916SOL     OW73521   7.534   0.036  14.508
23916SOL    HW173522   7.518   0.074  14.595
23916SOL    HW273523   7.621  14.874  14.515
23917SOL     OW73524   0.083   7.968   3.758
23917SOL    HW173525   0.115   8.019   3.684
23917SOL    HW273526   0.131   7.886   3.754
23918SOL     OW73527  13.275   2.832   7.290
23918SOL    HW173528  13.325   2.761   7.252
23918SOL    HW273529  13.243   2.882   7.215
23919SOL     OW73530   8.670  12.079  14.225
23919SOL    HW173531   8.677  12.143  14.154
23919SOL    HW273532   8.760  12.066  14.255
23920SOL     OW73533   8.909  10.309   4.767
23920SOL    HW173534   8.947  10.368   4.702
23920SOL    HW273535   8.885  10.231   4.718
23921SOL     OW73536  12.392  14.018  12.035
23921SOL    HW173537  12.441  14.083  12.085
23921SOL    HW273538  12.343  13.969  12.102
23922SOL     OW73539  14.540   2.669   8.407
23922SOL    HW173540  14.603   2.634   8.470
23922SOL    HW273541  14.567   2.633   8.323
23923SOL     OW73542   0.358  10.363   4.367
23923SOL    HW173543   0.284  10.375   4.427
23923SOL    HW273544   0.318  10.359   4.280
23924SOL     OW73545   7.756   7.421   0.506
23924SOL    HW173546   7.831   7.476   0.485
23924SOL    HW273547   7.770   7.396   0.598
23925SOL     OW73548  12.285  14.695   3.491
23925SOL    HW173549  12.351  14.652   3.437
23925SOL    HW273550  12.208  14.639   3.485
23926SOL     OW73551   1.518   3.726   1.639
23926SOL    HW173552   1.559   3.812   1.625
23926SOL    HW273553   1.442   3.725   1.581
23927SOL     OW73554  11.770   4.021  10.834
23927SOL    HW173555  11.701   3.961  10.861
23927SOL    HW273556  11.760   4.097  10.891
23928SOL     OW73557   1.653   9.945   8.456
23928SOL    HW173558   1.658   9.851   8.473
23928SOL    HW273559   1.713   9.959   8.382
23929SOL     OW73560   3.207  14.731   6.133
23929SOL    HW173561   3.295  14.732   6.171
23929SOL    HW273562   3.212  14.666   6.063
23930SOL     OW73563   0.585   8.159   9.369
23930SOL    HW173564   0.545   8.205   9.443
23930SOL    HW273565   0.679   8.171   9.381
23931SOL     OW73566   9.732   9.526   3.335
23931SOL    HW173567   9.708   9.446   3.289
23931SOL    HW273568   9.663   9.588   3.312
23932SOL     OW73569   5.887  11.463  12.830
23932SOL    HW173570   5.809  11.439  12.779
23932SOL    HW273571   5.955  11.478  12.763
23933SOL     OW73572  10.129   8.777   7.707
23933SOL    HW173573  10.189   8.739   7.644
23933SOL    HW273574  10.064   8.708   7.723
23934SOL     OW73575   7.294   1.012   4.327
23934SOL    HW173576   7.330   1.101   4.332
23934SOL    HW273577   7.242   1.003   4.407
23935SOL     OW73578   3.643  10.885   1.478
23935SOL    HW173579   3.632  10.903   1.571
23935SOL    HW273580   3.718  10.938   1.452
23936SOL     OW73581   7.061  11.173  10.255
23936SOL    HW173582   7.033  11.082  10.248
23936SOL    HW273583   7.054  11.193  10.349
23937SOL     OW73584  12.795  13.379   7.878
23937SOL    HW173585  12.763  13.388   7.789
23937SOL    HW273586  12.891  13.381   7.870
23938SOL     OW73587   1.714  14.525  14.146
23938SOL    HW173588   1.730  14.584  14.220
23938SOL    HW273589   1.632  14.556  14.108
23939SOL     OW73590   9.158   6.545   5.490
23939SOL    HW173591   9.179   6.494   5.568
23939SOL    HW273592   9.237   6.596   5.473
23940SOL     OW73593  14.628   2.161   0.745
23940SOL    HW173594  14.639   2.245   0.790
23940SOL    HW273595  14.681   2.170   0.665
23941SOL     OW73596   4.332   3.888   4.833
23941SOL    HW173597   4.362   3.953   4.896
23941SOL    HW273598   4.265   3.838   4.880
23942SOL     OW73599   0.822   8.905   7.452
23942SOL    HW173600   0.800   8.983   7.401
23942SOL    HW273601   0.756   8.840   7.426
23943SOL     OW73602  12.705   6.843   1.624
23943SOL    HW173603  12.622   6.887   1.642
23943SOL    HW273604  12.771   6.899   1.664
23944SOL     OW73605  14.379   2.313  14.184
23944SOL    HW173606  14.320   2.317  14.259
23944SOL    HW273607  14.409   2.403  14.171
23945SOL     OW73608   1.410   1.856   9.239
23945SOL    HW173609   1.389   1.950   9.236
23945SOL    HW273610   1.502   1.854   9.265
23946SOL     OW73611   7.009  10.307   0.018
23946SOL    HW173612   6.932  10.264   0.057
23946SOL    HW273613   7.029  10.254  14.819
23947SOL     OW73614  13.428   0.452   6.115
23947SOL    HW173615  13.424   0.422   6.024
23947SOL    HW273616  13.484   0.388   6.158
23948SOL     OW73617  11.011   1.335   4.038
23948SOL    HW173618  11.102   1.306   4.029
23948SOL    HW273619  10.964   1.285   3.971
23949SOL     OW73620   5.291   2.188  12.118
23949SOL    HW173621   5.311   2.137  12.039
23949SOL    HW273622   5.327   2.275  12.100
23950SOL     OW73623   5.727   9.879   6.065
23950SOL    HW173624   5.684   9.963   6.081
23950SOL    HW273625   5.701   9.824   6.139
23951SOL     OW73626   6.576   8.736   7.507
23951SOL    HW173627   6.500   8.685   7.481
23951SOL    HW273628   6.572   8.814   7.452
23952SOL     OW73629  14.520   1.184   2.341
23952SOL    HW173630  14.535   1.132   2.262
23952SOL    HW273631  14.599   1.170   2.394
23953SOL     OW73632   9.186   7.620   0.319
23953SOL    HW173633   9.245   7.552   0.286
23953SOL    HW273634   9.143   7.579   0.394
23954SOL     OW73635   9.917   3.362  10.474
23954SOL    HW173636   9.866   3.430  10.518
23954SOL    HW273637  10.002   3.364  10.519
23955SOL     OW73638   1.618  12.207  10.252
23955SOL    HW173639   1.607  12.269  10.180
23955SOL    HW273640   1.713  12.195  10.260
23956SOL     OW73641   2.418   6.859   0.727
23956SOL    HW173642   2.491   6.909   0.689
23956SOL    HW273643   2.428   6.871   0.821
23957SOL     OW73644  13.232   3.088   5.638
23957SOL    HW173645  13.288   3.157   5.602
23957SOL    HW273646  13.204   3.037   5.562
23958SOL     OW73647  14.855   9.086   5.713
23958SOL    HW173648   0.037   9.028   5.759
23958SOL    HW273649  14.815   9.031   5.645
23959SOL     OW73650   0.523   6.082   3.620
23959SOL    HW173651   0.579   6.010   3.650
23959SOL    HW273652   0.501   6.130   3.701
23960SOL     OW73653   0.333  13.117  11.906
23960SOL    HW173654   0.357  13.035  11.863
23960SOL    HW273655   0.261  13.094  11.965
23961SOL     OW73656   2.808  11.775   1.175
23961SOL    HW173657   2.866  11.720   1.121
23961SOL    HW273658   2.726  11.726   1.180
23962SOL     OW73659  11.757  12.196  14.118
23962SOL    HW173660  11.824  12.264  14.120
23962SOL    HW273661  11.678  12.238  14.152
23963SOL     OW73662  11.318   8.190   4.514
23963SOL    HW173663  11.336   8.279   4.484
23963SOL    HW273664  11.228   8.174   4.487
23964SOL     OW73665   6.633  13.407   5.175
23964SOL    HW173666   6.578  13.482   5.197
23964SOL    HW273667   6.693  13.439   5.108
23965SOL     OW73668  10.630   3.678   9.681
23965SOL    HW173669  10.607   3.587   9.701
23965SOL    HW273670  10.619   3.724   9.764
23966SOL     OW73671   3.259  11.769   4.785
23966SOL    HW173672   3.195  11.698   4.792
23966SOL    HW273673   3.344  11.727   4.796
23967SOL     OW73674  12.257   1.411   6.604
23967SOL    HW173675  12.206   1.492   6.609
23967SOL    HW273676  12.210   1.349   6.659
23968SOL     OW73677  10.828  12.002   8.944
23968SOL    HW173678  10.866  11.927   8.899
23968SOL    HW273679  10.737  12.004   8.914
23969SOL     OW73680   9.371  13.296   4.148
23969SOL    HW173681   9.410  13.213   4.120
23969SOL    HW273682   9.416  13.316   4.231
23970SOL     OW73683   0.991  13.949   9.881
23970SOL    HW173684   1.004  14.042   9.864
23970SOL    HW273685   1.077  13.917   9.908
23971SOL     OW73686   3.136  12.774   2.312
23971SOL    HW173687   3.118  12.771   2.218
23971SOL    HW273688   3.223  12.813   2.318
23972SOL     OW73689  13.458   7.550   1.038
23972SOL    HW173690  13.466   7.594   0.954
23972SOL    HW273691  13.409   7.612   1.093
23973SOL     OW73692   5.429   2.023   4.314
23973SOL    HW173693   5.465   1.948   4.266
23973SOL    HW273694   5.337   2.026   4.288
23974SOL     OW73695   9.863   4.160   9.092
23974SOL    HW173696   9.878   4.081   9.143
23974SOL    HW273697   9.904   4.142   9.007
23975SOL     OW73698   6.151   3.560   0.694
23975SOL    HW173699   6.226   3.502   0.708
23975SOL    HW273700   6.188   3.649   0.697
23976SOL     OW73701   4.646   3.040   6.465
23976SOL    HW173702   4.643   3.115   6.405
23976SOL    HW273703   4.665   2.965   6.409
23977SOL     OW73704  12.824  14.144   4.434
23977SOL    HW173705  12.844  14.091   4.511
23977SOL    HW273706  12.867  14.228   4.450
23978SOL     OW73707   8.600   9.735  12.305
23978SOL    HW173708   8.577   9.721  12.397
23978SOL    HW273709   8.543   9.674  12.257
23979SOL     OW73710   7.071   8.012   5.768
23979SOL    HW173711   7.032   7.977   5.687
23979SOL    HW273712   6.997   8.051   5.815
23980SOL     OW73713   6.977   9.661   5.206
23980SOL    HW173714   7.022   9.583   5.173
23980SOL    HW273715   6.952   9.638   5.296
23981SOL     OW73716   4.985  13.064   0.187
23981SOL    HW173717   5.061  13.109   0.151
23981SOL    HW273718   5.007  12.971   0.185
23982SOL     OW73719   0.043   8.137   7.367
23982SOL    HW173720   0.039   8.057   7.420
23982SOL    HW273721   0.136   8.154   7.355
23983SOL     OW73722   0.831   6.112  14.255
23983SOL    HW173723   0.908   6.152  14.296
23983SOL    HW273724   0.757   6.161  14.290
23984SOL     OW73725  14.257   4.083   2.768
23984SOL    HW173726  14.352   4.071   2.763
23984SOL    HW273727  14.226   4.058   2.681
23985SOL     OW73728  13.930  14.003   3.588
23985SOL    HW173729  13.985  14.069   3.630
23985SOL    HW273730  13.853  13.996   3.644
23986SOL     OW73731   3.382   8.643   9.828
23986SOL    HW173732   3.411   8.715   9.771
23986SOL    HW273733   3.448   8.640   9.897
23987SOL     OW73734   3.805  10.753   2.415
23987SOL    HW173735   3.818  10.834   2.465
23987SOL    HW273736   3.873  10.756   2.348
23988SOL     OW73737   9.316   5.053  11.527
23988SOL    HW173738   9.233   5.032  11.483
23988SOL    HW273739   9.325   5.147  11.517
23989SOL     OW73740   3.792  13.866  12.710
23989SOL    HW173741   3.777  13.851  12.803
23989SOL    HW273742   3.708  13.844  12.669
23990SOL     OW73743  12.063   0.815  11.211
23990SOL    HW173744  12.007   0.741  11.234
23990SOL    HW273745  12.002   0.887  11.194
23991SOL     OW73746  12.397  14.441  12.328
23991SOL    HW173747  12.433  14.436  12.416
23991SOL    HW273748  12.430  14.524  12.293
23992SOL     OW73749   8.110  14.542   9.770
23992SOL    HW173750   8.144  14.607   9.832
23992SOL    HW273751   8.079  14.594   9.695
23993SOL     OW73752  13.160   1.796   9.793
23993SOL    HW173753  13.232   1.737   9.769
23993SOL    HW273754  13.097   1.787   9.721
23994SOL     OW73755   0.495   8.082  10.036
23994SOL    HW173756   0.525   8.100  10.126
23994SOL    HW273757   0.436   8.007  10.045
23995SOL     OW73758   9.124  12.768   2.926
23995SOL    HW173759   9.165  12.851   2.898
23995SOL    HW273760   9.183  12.700   2.892
23996SOL     OW73761   5.974   5.977   5.322
23996SOL    HW173762   5.996   5.934   5.405
23996SOL    HW273763   5.889   6.019   5.339
23997SOL     OW73764  13.282   0.610   8.657
23997SOL    HW173765  13.224   0.673   8.699
23997SOL    HW273766  13.366   0.623   8.701
23998SOL     OW73767  12.196   5.007   2.249
23998SOL    HW173768  12.243   5.089   2.260
23998SOL    HW273769  12.236   4.966   2.172
23999SOL     OW73770   7.642   5.827   2.356
23999SOL    HW173771   7.614   5.832   2.265
23999SOL    HW273772   7.594   5.897   2.400
24000SOL     OW73773   4.404  13.347   7.603
24000SOL    HW173774   4.414  13.330   7.697
24000SOL    HW273775   4.468  13.288   7.562
24001SOL     OW73776   1.413  12.462  13.584
24001SOL    HW173777   1.333  12.480  13.632
24001SOL    HW273778   1.435  12.371  13.604
24002SOL     OW73779   1.918   0.535  13.832
24002SOL    HW173780   1.848   0.471  13.841
24002SOL    HW273781   1.951   0.548  13.921
24003SOL     OW73782   4.021  14.152  10.581
24003SOL    HW173783   4.078  14.207  10.528
24003SOL    HW273784   4.081  14.105  10.640
24004SOL     OW73785   1.572  13.669   5.960
24004SOL    HW173786   1.505  13.613   5.922
24004SOL    HW273787   1.637  13.681   5.891
24005SOL     OW73788   2.363  10.715   4.394
24005SOL    HW173789   2.404  10.759   4.319
24005SOL    HW273790   2.315  10.642   4.355
24006SOL     OW73791   8.443  13.055  13.561
24006SOL    HW173792   8.462  13.085  13.472
24006SOL    HW273793   8.498  12.977  13.572
24007SOL     OW73794   4.098   3.618  13.450
24007SOL    HW173795   4.114   3.712  13.456
24007SOL    HW273796   4.069   3.592  13.538
24008SOL     OW73797   3.047   5.395   6.943
24008SOL    HW173798   3.030   5.450   6.867
24008SOL    HW273799   2.990   5.429   7.012
24009SOL     OW73800  10.223   0.344   3.557
24009SOL    HW173801  10.317   0.357   3.559
24009SOL    HW273802  10.209   0.275   3.491
24010SOL     OW73803   7.298   5.660   1.845
24010SOL    HW173804   7.208   5.674   1.874
24010SOL    HW273805   7.292   5.654   1.750
24011SOL     OW73806   3.272  10.125  14.702
24011SOL    HW173807   3.205  10.058  14.686
24011SOL    HW273808   3.222  10.201  14.732
24012SOL     OW73809  14.375  11.142  12.173
24012SOL    HW173810  14.402  11.216  12.118
24012SOL    HW273811  14.376  11.177  12.262
24013SOL     OW73812   3.571   7.385   4.912
24013SOL    HW173813   3.622   7.463   4.932
24013SOL    HW273814   3.632   7.312   4.925
24014SOL     OW73815   8.115  12.115   8.631
24014SOL    HW173816   8.048  12.059   8.592
24014SOL    HW273817   8.198  12.080   8.598
24015SOL     OW73818   0.196   7.204   3.469
24015SOL    HW173819   0.171   7.252   3.390
24015SOL    HW273820   0.118   7.208   3.525
24016SOL     OW73821  11.535  12.965  11.856
24016SOL    HW173822  11.505  12.962  11.947
24016SOL    HW273823  11.621  13.007  11.861
24017SOL     OW73824   9.417  11.038   8.341
24017SOL    HW173825   9.498  11.063   8.386
24017SOL    HW273826   9.360  11.007   8.411
24018SOL     OW73827  11.889   2.129   0.833
24018SOL    HW173828  11.848   2.100   0.915
24018SOL    HW273829  11.816   2.159   0.779
24019SOL     OW73830   6.671   4.770   5.406
24019SOL    HW173831   6.590   4.743   5.363
24019SOL    HW273832   6.715   4.688   5.429
24020SOL     OW73833  14.326   4.753   4.341
24020SOL    HW173834  14.302   4.750   4.434
24020SOL    HW273835  14.407   4.804   4.339
24021SOL     OW73836   5.917   6.797   6.621
24021SOL    HW173837   5.866   6.853   6.563
24021SOL    HW273838   5.856   6.729   6.650
24022SOL     OW73839   2.055   8.932   3.956
24022SOL    HW173840   1.989   8.912   3.889
24022SOL    HW273841   2.067   8.850   4.003
24023SOL     OW73842  14.158   6.519  10.762
24023SOL    HW173843  14.105   6.594  10.786
24023SOL    HW273844  14.205   6.495  10.842
24024SOL     OW73845   9.406   0.077  10.296
24024SOL    HW173846   9.497   0.073  10.323
24024SOL    HW273847   9.409   0.110  10.206
24025SOL     OW73848   8.571   4.593  11.656
24025SOL    HW173849   8.536   4.530  11.593
24025SOL    HW273850   8.506   4.594  11.727
24026SOL     OW73851   6.837   4.699   5.905
24026SOL    HW173852   6.871   4.625   5.855
24026SOL    HW273853   6.905   4.766   5.898
24027SOL     OW73854   5.778   4.802   3.692
24027SOL    HW173855   5.746   4.801   3.602
24027SOL    HW273856   5.722   4.866   3.736
24028SOL     OW73857   0.732  10.358   0.058
24028SOL    HW173858   0.769  10.274   0.029
24028SOL    HW273859   0.661  10.333   0.117
24029SOL     OW73860   8.893  14.221   1.090
24029SOL    HW173861   8.845  14.193   1.168
24029SOL    HW273862   8.829  14.271   1.039
24030SOL     OW73863   0.634  12.927   1.223
24030SOL    HW173864   0.575  12.862   1.186
24030SOL    HW273865   0.601  13.011   1.191
24031SOL     OW73866  11.767   3.690   6.560
24031SOL    HW173867  11.781   3.621   6.495
24031SOL    HW273868  11.737   3.643   6.638
24032SOL     OW73869   1.049   6.227  12.426
24032SOL    HW173870   1.008   6.196  12.506
24032SOL    HW273871   1.114   6.161  12.405
24033SOL     OW73872  14.683  12.413   6.866
24033SOL    HW173873  14.692  12.454   6.780
24033SOL    HW273874  14.655  12.484   6.924
24034SOL     OW73875  13.561  13.017  13.476
24034SOL    HW173876  13.590  13.018  13.385
24034SOL    HW273877  13.468  12.998  13.472
24035SOL     OW73878   4.001  13.615  13.603
24035SOL    HW173879   4.086  13.608  13.648
24035SOL    HW273880   3.943  13.655  13.668
24036SOL     OW73881  13.422   2.315   9.154
24036SOL    HW173882  13.424   2.336   9.247
24036SOL    HW273883  13.330   2.323   9.129
24037SOL     OW73884   9.164  11.961   6.013
24037SOL    HW173885   9.246  12.006   6.033
24037SOL    HW273886   9.143  11.987   5.924
24038SOL     OW73887  10.997   3.897   7.343
24038SOL    HW173888  10.901   3.891   7.345
24038SOL    HW273889  11.026   3.808   7.364
24039SOL     OW73890   9.711  14.297   1.511
24039SOL    HW173891   9.686  14.209   1.539
24039SOL    HW273892   9.680  14.303   1.420
24040SOL     OW73893  10.317   0.880  13.431
24040SOL    HW173894  10.345   0.909  13.344
24040SOL    HW273895  10.221   0.884  13.428
24041SOL     OW73896   8.355   3.724  14.733
24041SOL    HW173897   8.400   3.780  14.796
24041SOL    HW273898   8.378   3.635  14.759
24042SOL     OW73899   4.514   2.932  10.053
24042SOL    HW173900   4.468   2.998  10.104
24042SOL    HW273901   4.606   2.940  10.080
24043SOL     OW73902   4.842   4.260  12.797
24043SOL    HW173903   4.778   4.320  12.836
24043SOL    HW273904   4.816   4.174  12.827
24044SOL     OW73905   0.482   6.690  10.732
24044SOL    HW173906   0.411   6.628  10.714
24044SOL    HW273907   0.559   6.635  10.743
24045SOL     OW73908  14.657   7.967   2.806
24045SOL    HW173909  14.741   7.952   2.849
24045SOL    HW273910  14.608   8.021   2.868
24046SOL     OW73911   9.263  12.489   2.869
24046SOL    HW173912   9.339  12.535   2.904
24046SOL    HW273913   9.263  12.404   2.915
24047SOL     OW73914   6.570   2.219   5.864
24047SOL    HW173915   6.657   2.196   5.832
24047SOL    HW273916   6.570   2.315   5.866
24048SOL     OW73917   9.442  12.544   1.611
24048SOL    HW173918   9.447  12.640   1.608
24048SOL    HW273919   9.372  12.523   1.549
24049SOL     OW73920  12.379   7.296  12.262
24049SOL    HW173921  12.401   7.240  12.188
24049SOL    HW273922  12.284   7.289  12.269
24050SOL     OW73923   1.599  12.189   2.031
24050SOL    HW173924   1.687  12.184   2.067
24050SOL    HW273925   1.591  12.112   1.975
24051SOL     OW73926   0.212   4.878   5.773
24051SOL    HW173927   0.120   4.858   5.791
24051SOL    HW273928   0.246   4.800   5.730
24052SOL     OW73929   0.667  10.322   6.154
24052SOL    HW173930   0.638  10.237   6.120
24052SOL    HW273931   0.647  10.318   6.248
24053SOL     OW73932   6.981  13.501   3.852
24053SOL    HW173933   7.010  13.430   3.794
24053SOL    HW273934   7.016  13.478   3.938
24054SOL     OW73935   8.845   7.328   4.240
24054SOL    HW173936   8.905   7.398   4.217
24054SOL    HW273937   8.825   7.342   4.332
24055SOL     OW73938  12.956   5.773   4.658
24055SOL    HW173939  12.913   5.763   4.743
24055SOL    HW273940  12.884   5.775   4.595
24056SOL     OW73941   8.597  12.064   8.720
24056SOL    HW173942   8.681  12.048   8.677
24056SOL    HW273943   8.611  12.035   8.810
24057SOL     OW73944   4.762  14.592   7.989
24057SOL    HW173945   4.832  14.535   7.958
24057SOL    HW273946   4.743  14.559   8.077
24058SOL     OW73947  11.885   6.599  12.238
24058SOL    HW173948  11.903   6.558  12.322
24058SOL    HW273949  11.858   6.527  12.181
24059SOL     OW73950   8.032  13.951   0.280
24059SOL    HW173951   8.061  13.870   0.239
24059SOL    HW273952   7.954  13.925   0.329
24060SOL     OW73953   8.681   4.604   1.483
24060SOL    HW173954   8.717   4.670   1.542
24060SOL    HW273955   8.617   4.557   1.536
24061SOL     OW73956   5.354   9.992   9.043
24061SOL    HW173957   5.367   9.995   9.137
24061SOL    HW273958   5.260   9.978   9.031
24062SOL     OW73959   0.015   0.495   2.368
24062SOL    HW173960   0.033   0.584   2.397
24062SOL    HW273961   0.094   0.469   2.320
24063SOL     OW73962   1.486  12.531   3.111
24063SOL    HW173963   1.504  12.437   3.122
24063SOL    HW273964   1.398  12.543   3.146
24064SOL     OW73965   6.842   3.473  10.543
24064SOL    HW173966   6.902   3.425  10.485
24064SOL    HW273967   6.840   3.420  10.623
24065SOL     OW73968   5.879   5.665  13.476
24065SOL    HW173969   5.939   5.739  13.478
24065SOL    HW273970   5.912   5.605  13.543
24066SOL     OW73971   1.448   3.652   4.691
24066SOL    HW173972   1.360   3.632   4.658
24066SOL    HW273973   1.471   3.734   4.647
24067SOL     OW73974   2.598   0.401   4.314
24067SOL    HW173975   2.664   0.463   4.346
24067SOL    HW273976   2.519   0.423   4.363
24068SOL     OW73977   1.411   7.483  14.202
24068SOL    HW173978   1.376   7.499  14.114
24068SOL    HW273979   1.504   7.464  14.187
24069SOL     OW73980  11.472  14.466   7.021
24069SOL    HW173981  11.551  14.418   7.046
24069SOL    HW273982  11.434  14.414   6.950
24070SOL     OW73983  10.237   7.750   3.831
24070SOL    HW173984  10.191   7.802   3.897
24070SOL    HW273985  10.201   7.662   3.841
24071SOL     OW73986  10.186   3.678  14.025
24071SOL    HW173987  10.221   3.623  13.955
24071SOL    HW273988  10.129   3.619  14.075
24072SOL     OW73989  10.130   1.115   7.453
24072SOL    HW173990  10.202   1.097   7.392
24072SOL    HW273991  10.174   1.140   7.534
24073SOL     OW73992  11.662   6.384  13.848
24073SOL    HW173993  11.615   6.426  13.776
24073SOL    HW273994  11.678   6.455  13.911
24074SOL     OW73995   1.704   4.558  13.854
24074SOL    HW173996   1.779   4.504  13.828
24074SOL    HW273997   1.712   4.637  13.801
24075SOL     OW73998   5.305   1.647  10.390
24075SOL    HW173999   5.333   1.574  10.445
24075SOL    HW274000   5.385   1.678  10.348
24076SOL     OW74001   6.132   5.538   3.703
24076SOL    HW174002   6.094   5.601   3.641
24076SOL    HW274003   6.187   5.482   3.649
24077SOL     OW74004   2.569   7.917   9.992
24077SOL    HW174005   2.571   8.012   9.990
24077SOL    HW274006   2.545   7.891   9.903
24078SOL     OW74007   2.530   2.549   8.772
24078SOL    HW174008   2.574   2.548   8.687
24078SOL    HW274009   2.542   2.639   8.804
24079SOL     OW74010  10.203   6.786   0.928
24079SOL    HW174011  10.201   6.862   0.870
24079SOL    HW274012  10.122   6.791   0.978
24080SOL     OW74013   3.123   6.110   6.072
24080SOL    HW174014   3.030   6.129   6.087
24080SOL    HW274015   3.154   6.078   6.157
24081SOL     OW74016   6.178  12.330  10.855
24081SOL    HW174017   6.213  12.262  10.911
24081SOL    HW274018   6.194  12.298  10.766
24082SOL     OW74019  11.515  10.579   7.013
24082SOL    HW174020  11.454  10.559   7.084
24082SOL    HW274021  11.528  10.674   7.018
24083SOL     OW74022   6.918   2.899   4.852
24083SOL    HW174023   6.839   2.914   4.905
24083SOL    HW274024   6.946   2.811   4.876
24084SOL     OW74025  10.761   0.366   9.905
24084SOL    HW174026  10.776   0.310   9.982
24084SOL    HW274027  10.776   0.455   9.938
24085SOL     OW74028  10.914   0.680   0.047
24085SOL    HW174029  10.938   0.587   0.047
24085SOL    HW274030  10.986   0.724   0.093
24086SOL     OW74031   8.245   6.916  14.406
24086SOL    HW174032   8.251   7.011  14.402
24086SOL    HW274033   8.187   6.899  14.480
24087SOL     OW74034   5.744   2.531   9.246
24087SOL    HW174035   5.829   2.572   9.226
24087SOL    HW274036   5.765   2.465   9.312
24088SOL     OW74037  14.028   3.734   6.569
24088SOL    HW174038  14.038   3.794   6.496
24088SOL    HW274039  14.011   3.649   6.528
24089SOL     OW74040   1.660   3.894   5.247
24089SOL    HW174041   1.754   3.910   5.252
24089SOL    HW274042   1.644   3.874   5.155
24090SOL     OW74043   8.467   8.841   2.645
24090SOL    HW174044   8.543   8.873   2.693
24090SOL    HW274045   8.402   8.910   2.654
24091SOL     OW74046   2.266   6.594   4.896
24091SOL    HW174047   2.297   6.550   4.817
24091SOL    HW274048   2.345   6.636   4.932
24092SOL     OW74049   3.896  13.558   4.427
24092SOL    HW174050   3.832  13.488   4.437
24092SOL    HW274051   3.846  13.633   4.395
24093SOL     OW74052   6.068   4.219   3.100
24093SOL    HW174053   6.079   4.259   3.186
24093SOL    HW274054   6.096   4.128   3.112
24094SOL     OW74055   6.581   0.749  11.305
24094SOL    HW174056   6.660   0.746  11.251
24094SOL    HW274057   6.524   0.682  11.268
24095SOL     OW74058   9.795  11.806  14.568
24095SOL    HW174059   9.887  11.793  14.544
24095SOL    HW274060   9.797  11.871  14.638
24096SOL     OW74061   6.041   2.688   4.338
24096SOL    HW174062   6.080   2.697   4.424
24096SOL    HW274063   6.089   2.749   4.283
24097SOL     OW74064   6.855  10.831   6.513
24097SOL    HW174065   6.911  10.828   6.591
24097SOL    HW274066   6.769  10.858   6.546
24098SOL     OW74067   0.908  14.186  11.838
24098SOL    HW174068   0.927  14.092  11.840
24098SOL    HW274069   0.877  14.206  11.926
24099SOL     OW74070   0.068  13.851  11.212
24099SOL    HW174071   0.128  13.881  11.144
24099SOL    HW274072   0.001  13.920  11.217
24100SOL     OW74073   3.655   3.221   6.465
24100SOL    HW174074   3.723   3.265   6.516
24100SOL    HW274075   3.576   3.230   6.518
24101SOL     OW74076   2.515   2.790  12.750
24101SOL    HW174077   2.422   2.811  12.740
24101SOL    HW274078   2.528   2.783  12.844
24102SOL     OW74079  10.169  11.405  10.392
24102SOL    HW174080  10.263  11.393  10.389
24102SOL    HW274081  10.136  11.326  10.434
24103SOL     OW74082  12.406  11.272   6.971
24103SOL    HW174083  12.372  11.202   7.027
24103SOL    HW274084  12.394  11.352   7.023
24104SOL     OW74085   1.098   6.290   5.128
24104SOL    HW174086   1.097   6.378   5.089
24104SOL    HW274087   1.121   6.232   5.055
24105SOL     OW74088  12.004   1.596   4.659
24105SOL    HW174089  11.918   1.580   4.698
24105SOL    HW274090  12.066   1.574   4.729
24106SOL     OW74091  12.385   8.411  11.741
24106SOL    HW174092  12.410   8.489  11.691
24106SOL    HW274093  12.359   8.446  11.826
24107SOL     OW74094   2.953   0.637   4.899
24107SOL    HW174095   3.005   0.638   4.979
24107SOL    HW274096   2.868   0.672   4.925
24108SOL     OW74097  10.861  12.036   5.211
24108SOL    HW174098  10.940  12.089   5.200
24108SOL    HW274099  10.872  11.995   5.297
24109SOL     OW74100   5.967  11.885   1.065
24109SOL    HW174101   5.936  11.975   1.081
24109SOL    HW274102   5.911  11.854   0.994
24110SOL     OW74103  11.517   7.486  11.959
24110SOL    HW174104  11.477   7.399  11.965
24110SOL    HW274105  11.470   7.539  12.022
24111SOL     OW74106   6.343   2.796   1.632
24111SOL    HW174107   6.418   2.789   1.572
24111SOL    HW274108   6.321   2.889   1.632
24112SOL     OW74109   3.667   8.996   5.907
24112SOL    HW174110   3.677   9.081   5.864
24112SOL    HW274111   3.608   8.946   5.850
24113SOL     OW74112  13.121   1.687   7.945
24113SOL    HW174113  13.152   1.770   7.981
24113SOL    HW274114  13.141   1.623   8.013
24114SOL     OW74115   3.536  10.501   8.863
24114SOL    HW174116   3.572  10.544   8.786
24114SOL    HW274117   3.494  10.571   8.912
24115SOL     OW74118  12.208  14.052   2.217
24115SOL    HW174119  12.204  13.972   2.164
24115SOL    HW274120  12.125  14.055   2.264
24116SOL     OW74121   5.886  10.109   5.507
24116SOL    HW174122   5.814  10.137   5.563
24116SOL    HW274123   5.947  10.064   5.566
24117SOL     OW74124  10.346   2.417   2.126
24117SOL    HW174125  10.375   2.353   2.061
24117SOL    HW274126  10.395   2.496   2.106
24118SOL     OW74127  11.041   7.703   9.540
24118SOL    HW174128  10.992   7.769   9.589
24118SOL    HW274129  11.133   7.729   9.549
24119SOL     OW74130  10.710   0.406   3.667
24119SOL    HW174131  10.714   0.370   3.756
24119SOL    HW274132  10.797   0.390   3.631
24120SOL     OW74133   5.951  11.841   5.810
24120SOL    HW174134   5.986  11.893   5.882
24120SOL    HW274135   5.908  11.767   5.852
24121SOL     OW74136   8.278  13.284  13.825
24121SOL    HW174137   8.268  13.368  13.870
24121SOL    HW274138   8.307  13.307  13.736
24122SOL     OW74139   0.131   7.640   8.330
24122SOL    HW174140   0.124   7.735   8.319
24122SOL    HW274141   0.175   7.628   8.414
24123SOL     OW74142  14.212  10.759   9.925
24123SOL    HW174143  14.293  10.728   9.965
24123SOL    HW274144  14.233  10.768   9.832
24124SOL     OW74145   7.498  11.520  11.162
24124SOL    HW174146   7.524  11.514  11.254
24124SOL    HW274147   7.579  11.513  11.113
24125SOL     OW74148   9.617  13.240   1.212
24125SOL    HW174149   9.670  13.317   1.233
24125SOL    HW274150   9.639  13.177   1.280
24126SOL     OW74151   0.259  12.095   0.324
24126SOL    HW174152   0.183  12.143   0.355
24126SOL    HW274153   0.259  12.013   0.374
24127SOL     OW74154  14.391   6.682  10.965
24127SOL    HW174155  14.470   6.714  11.008
24127SOL    HW274156  14.414   6.594  10.935
24128SOL     OW74157  10.803   8.666   3.366
24128SOL    HW174158  10.769   8.578   3.381
24128SOL    HW274159  10.726   8.720   3.351
24129SOL     OW74160   6.800  13.538   2.304
24129SOL    HW174161   6.832  13.483   2.376
24129SOL    HW274162   6.815  13.628   2.334
24130SOL     OW74163   3.004   1.776  14.507
24130SOL    HW174164   3.006   1.712  14.436
24130SOL    HW274165   3.092   1.814  14.508
24131SOL     OW74166  13.619   4.359   4.772
24131SOL    HW174167  13.599   4.366   4.865
24131SOL    HW274168  13.701   4.310   4.769
24132SOL     OW74169   0.637   2.107   9.204
24132SOL    HW174170   0.713   2.108   9.262
24132SOL    HW274171   0.586   2.184   9.230
24133SOL     OW74172  13.713   5.167   8.955
24133SOL    HW174173  13.618   5.176   8.963
24133SOL    HW274174  13.743   5.151   9.044
24134SOL     OW74175   2.442   5.813  11.314
24134SOL    HW174176   2.527   5.806  11.271
24134SOL    HW274177   2.386   5.858  11.251
24135SOL     OW74178   3.279  10.848   0.847
24135SOL    HW174179   3.256  10.819   0.935
24135SOL    HW274180   3.196  10.851   0.800
24136SOL     OW74181   3.916  11.558   4.990
24136SOL    HW174182   3.965  11.597   4.918
24136SOL    HW274183   3.830  11.601   4.986
24137SOL     OW74184   0.690  14.043   6.482
24137SOL    HW174185   0.684  14.135   6.505
24137SOL    HW274186   0.602  14.009   6.495
24138SOL     OW74187   9.893   9.383  14.052
24138SOL    HW174188   9.885   9.290  14.075
24138SOL    HW274189   9.888   9.429  14.135
24139SOL     OW74190   7.677   3.917   4.489
24139SOL    HW174191   7.683   3.822   4.501
24139SOL    HW274192   7.645   3.928   4.400
24140SOL     OW74193  12.660   6.547   0.539
24140SOL    HW174194  12.606   6.543   0.618
24140SOL    HW274195  12.750   6.539   0.572
24141SOL     OW74196  13.511  13.871   6.883
24141SOL    HW174197  13.568  13.883   6.806
24141SOL    HW274198  13.531  13.782   6.913
24142SOL     OW74199   1.082   3.412   1.345
24142SOL    HW174200   1.045   3.328   1.317
24142SOL    HW274201   1.011   3.475   1.331
24143SOL     OW74202   9.031  12.423   2.713
24143SOL    HW174203   9.076  12.487   2.767
24143SOL    HW274204   8.953  12.400   2.762
24144SOL     OW74205   8.172   1.742   7.214
24144SOL    HW174206   8.185   1.788   7.297
24144SOL    HW274207   8.087   1.699   7.224
24145SOL     OW74208   2.765   7.628  12.308
24145SOL    HW174209   2.761   7.579  12.390
24145SOL    HW274210   2.784   7.718  12.335
24146SOL     OW74211  12.769   0.665   9.736
24146SOL    HW174212  12.705   0.656   9.807
24146SOL    HW274213  12.785   0.576   9.706
24147SOL     OW74214   8.609  12.003   5.300
24147SOL    HW174215   8.677  12.009   5.233
24147SOL    HW274216   8.621  11.915   5.337
24148SOL     OW74217  14.084  13.551   9.992
24148SOL    HW174218  14.134  13.529  10.071
24148SOL    HW274219  13.997  13.575  10.024
24149SOL     OW74220   4.139   9.061   6.901
24149SOL    HW174221   4.188   9.010   6.837
24149SOL    HW274222   4.205   9.087   6.966
24150SOL     OW74223   5.945   2.867  11.106
24150SOL    HW174224   5.953   2.932  11.175
24150SOL    HW274225   6.020   2.809  11.118
24151SOL     OW74226   8.917  12.931  12.129
24151SOL    HW174227   8.919  12.990  12.054
24151SOL    HW274228   9.008  12.925  12.159
24152SOL     OW74229   5.587   2.070   6.593
24152SOL    HW174230   5.681   2.081   6.584
24152SOL    HW274231   5.552   2.159   6.591
24153SOL     OW74232   6.885   5.185   0.345
24153SOL    HW174233   6.811   5.240   0.317
24153SOL    HW274234   6.958   5.215   0.291
24154SOL     OW74235   4.272  13.313   2.481
24154SOL    HW174236   4.365  13.296   2.495
24154SOL    HW274237   4.267  13.352   2.394
24155SOL     OW74238   8.242   3.659  10.200
24155SOL    HW174239   8.178   3.631  10.134
24155SOL    HW274240   8.323   3.672  10.151
24156SOL     OW74241  14.686   8.987  13.050
24156SOL    HW174242  14.767   8.946  13.019
24156SOL    HW274243  14.617   8.926  13.024
24157SOL     OW74244   9.852  13.734   2.739
24157SOL    HW174245   9.865  13.825   2.711
24157SOL    HW274246   9.881  13.732   2.830
24158SOL     OW74247   6.631  13.228   7.173
24158SOL    HW174248   6.663  13.146   7.210
24158SOL    HW274249   6.559  13.253   7.230
24159SOL     OW74250   3.257  12.086  11.990
24159SOL    HW174251   3.248  12.044  12.075
24159SOL    HW274252   3.250  12.180  12.009
24160SOL     OW74253   2.829   3.904  13.966
24160SOL    HW174254   2.871   3.930  13.884
24160SOL    HW274255   2.857   3.814  13.980
24161SOL     OW74256   1.402   6.519   6.754
24161SOL    HW174257   1.460   6.444   6.739
24161SOL    HW274258   1.343   6.489   6.824
24162SOL     OW74259   6.998   7.233  14.253
24162SOL    HW174260   6.989   7.237  14.348
24162SOL    HW274261   7.059   7.302  14.231
24163SOL     OW74262   9.698  13.505   6.726
24163SOL    HW174263   9.743  13.510   6.642
24163SOL    HW274264   9.618  13.455   6.707
24164SOL     OW74265   8.915  14.350   4.892
24164SOL    HW174266   8.932  14.343   4.986
24164SOL    HW274267   8.992  14.397   4.857
24165SOL     OW74268   8.991  14.110  14.291
24165SOL    HW174269   8.993  14.015  14.297
24165SOL    HW274270   9.068  14.139  14.339
24166SOL     OW74271   9.973   3.050  11.690
24166SOL    HW174272   9.921   3.036  11.611
24166SOL    HW274273  10.064   3.052  11.658
24167SOL     OW74274   4.921   4.105  14.239
24167SOL    HW174275   4.898   4.012  14.243
24167SOL    HW274276   5.011   4.106  14.209
24168SOL     OW74277  10.950  11.636   4.098
24168SOL    HW174278  10.928  11.630   4.191
24168SOL    HW274279  11.017  11.705   4.094
24169SOL     OW74280   1.461  14.213   7.202
24169SOL    HW174281   1.415  14.291   7.171
24169SOL    HW274282   1.444  14.211   7.296
24170SOL     OW74283   0.622  11.609  10.075
24170SOL    HW174284   0.711  11.579  10.090
24170SOL    HW274285   0.597  11.653  10.156
24171SOL     OW74286  14.293   1.456  12.615
24171SOL    HW174287  14.291   1.367  12.580
24171SOL    HW274288  14.375   1.461  12.664
24172SOL     OW74289   4.057   6.908   9.106
24172SOL    HW174290   4.021   6.978   9.051
24172SOL    HW274291   4.114   6.858   9.048
24173SOL     OW74292   3.997   4.939   1.514
24173SOL    HW174293   3.916   4.898   1.484
24173SOL    HW274294   3.969   5.006   1.576
24174SOL     OW74295   6.708  11.782   3.371
24174SOL    HW174296   6.766  11.802   3.298
24174SOL    HW274297   6.766  11.783   3.448
24175SOL     OW74298   4.413   2.890  14.836
24175SOL    HW174299   4.488   2.924  14.787
24175SOL    HW274300   4.400   2.802  14.801
24176SOL     OW74301   1.218   0.879  14.780
24176SOL    HW174302   1.139   0.931  14.764
24176SOL    HW274303   1.196   0.825  14.856
24177SOL     OW74304   4.851   0.206  12.404
24177SOL    HW174305   4.863   0.192  12.498
24177SOL    HW274306   4.758   0.186  12.389
24178SOL     OW74307   3.524   8.307   6.174
24178SOL    HW174308   3.466   8.239   6.209
24178SOL    HW274309   3.612   8.269   6.181
24179SOL     OW74310   7.979   8.968   8.940
24179SOL    HW174311   7.934   8.902   8.887
24179SOL    HW274312   7.938   8.962   9.026
24180SOL     OW74313   9.711   9.838   5.296
24180SOL    HW174314   9.693   9.751   5.333
24180SOL    HW274315   9.723   9.894   5.372
24181SOL     OW74316   2.628  14.709   4.554
24181SOL    HW174317   2.655  14.723   4.644
24181SOL    HW274318   2.692  14.756   4.502
24182SOL     OW74319  12.396   5.422   9.042
24182SOL    HW174320  12.467   5.359   9.032
24182SOL    HW274321  12.325   5.372   9.082
24183SOL     OW74322   7.877   3.147   3.803
24183SOL    HW174323   7.940   3.139   3.875
24183SOL    HW274324   7.927   3.129   3.724
24184SOL     OW74325   5.734   0.226  10.949
24184SOL    HW174326   5.829   0.220  10.965
24184SOL    HW274327   5.719   0.172  10.872
24185SOL     OW74328   8.224   1.480  11.928
24185SOL    HW174329   8.257   1.407  11.875
24185SOL    HW274330   8.289   1.549  11.916
24186SOL     OW74331   1.979   0.274  12.667
24186SOL    HW174332   2.010   0.224  12.592
24186SOL    HW274333   1.903   0.322  12.634
24187SOL     OW74334   2.439   4.112   0.043
24187SOL    HW174335   2.366   4.076   0.093
24187SOL    HW274336   2.474   4.182   0.099
24188SOL     OW74337   2.417   7.052  10.147
24188SOL    HW174338   2.450   7.135  10.181
24188SOL    HW274339   2.362   7.076  10.073
24189SOL     OW74340  12.487  10.707   5.930
24189SOL    HW174341  12.525  10.668   5.852
24189SOL    HW274342  12.460  10.795   5.902
24190SOL     OW74343  13.091   7.625   6.304
24190SOL    HW174344  13.124   7.658   6.388
24190SOL    HW274345  13.139   7.677   6.238
24191SOL     OW74346   7.135  10.594   2.040
24191SOL    HW174347   7.119  10.686   2.060
24191SOL    HW274348   7.227  10.580   2.065
24192SOL     OW74349   7.155   0.027  13.523
24192SOL    HW174350   7.074   0.052  13.479
24192SOL    HW274351   7.171  14.815  13.493
24193SOL     OW74352   5.275   8.580   5.984
24193SOL    HW174353   5.351   8.637   5.976
24193SOL    HW274354   5.310   8.491   5.975
24194SOL     OW74355   4.592   0.229   7.271
24194SOL    HW174356   4.583   0.313   7.316
24194SOL    HW274357   4.681   0.199   7.294
24195SOL     OW74358  13.116   9.737   6.083
24195SOL    HW174359  13.168   9.657   6.074
24195SOL    HW274360  13.172   9.796   6.135
24196SOL     OW74361   8.267   1.014   7.675
24196SOL    HW174362   8.323   0.986   7.602
24196SOL    HW274363   8.250   1.107   7.657
24197SOL     OW74364   4.886  11.214   3.266
24197SOL    HW174365   4.884  11.218   3.362
24197SOL    HW274366   4.864  11.123   3.246
24198SOL     OW74367  10.125   1.460  13.499
24198SOL    HW174368  10.091   1.479  13.586
24198SOL    HW274369  10.052   1.477  13.439
24199SOL     OW74370   6.243  12.821  10.942
24199SOL    HW174371   6.290  12.903  10.930
24199SOL    HW274372   6.258  12.799  11.034
24200SOL     OW74373   3.883   6.908   6.140
24200SOL    HW174374   3.907   6.924   6.231
24200SOL    HW274375   3.871   6.995   6.102
24201SOL     OW74376  12.382  11.492   7.184
24201SOL    HW174377  12.432  11.569   7.158
24201SOL    HW274378  12.291  11.522   7.186
24202SOL     OW74379   5.191  11.845   0.235
24202SOL    HW174380   5.139  11.773   0.198
24202SOL    HW274381   5.233  11.885   0.159
24203SOL     OW74382   0.470   8.286  14.392
24203SOL    HW174383   0.384   8.244  14.393
24203SOL    HW274384   0.513   8.255  14.471
24204SOL     OW74385  14.767  12.075   5.654
24204SOL    HW174386  14.687  12.031   5.683
24204SOL    HW274387  14.749  12.100   5.563
24205SOL     OW74388  11.615   2.488  13.580
24205SOL    HW174389  11.591   2.432  13.654
24205SOL    HW274390  11.707   2.510  13.596
24206SOL     OW74391   6.723   9.792   0.757
24206SOL    HW174392   6.653   9.728   0.746
24206SOL    HW274393   6.689   9.854   0.821
24207SOL     OW74394   6.619   1.218  10.904
24207SOL    HW174395   6.637   1.166  10.825
24207SOL    HW274396   6.677   1.182  10.971
24208SOL     OW74397   1.653   5.426   4.591
24208SOL    HW174398   1.655   5.477   4.510
24208SOL    HW274399   1.582   5.464   4.642
24209SOL     OW74400  12.890   2.788   6.349
24209SOL    HW174401  12.876   2.880   6.373
24209SOL    HW274402  12.864   2.739   6.427
24210SOL     OW74403  13.943   9.859  10.597
24210SOL    HW174404  13.953   9.951  10.572
24210SOL    HW274405  14.001   9.811  10.538
24211SOL     OW74406  14.681  11.829   9.027
24211SOL    HW174407  14.609  11.880   8.989
24211SOL    HW274408  14.760  11.862   8.983
24212SOL     OW74409   7.690   0.952  12.418
24212SOL    HW174410   7.706   0.858  12.406
24212SOL    HW274411   7.678   0.986  12.329
24213SOL     OW74412   0.875   8.941  11.580
24213SOL    HW174413   0.929   9.003  11.629
24213SOL    HW274414   0.786   8.975  11.589
24214SOL     OW74415   9.553  12.363   8.603
24214SOL    HW174416   9.562  12.437   8.544
24214SOL    HW274417   9.507  12.398   8.679
24215SOL     OW74418   5.854   9.705   6.991
24215SOL    HW174419   5.841   9.668   7.078
24215SOL    HW274420   5.904   9.785   7.006
24216SOL     OW74421   8.758  12.339   7.117
24216SOL    HW174422   8.706  12.302   7.046
24216SOL    HW274423   8.782  12.427   7.088
24217SOL     OW74424   2.716   1.173   9.838
24217SOL    HW174425   2.650   1.176   9.768
24217SOL    HW274426   2.789   1.223   9.803
24218SOL     OW74427   6.573   5.421   6.522
24218SOL    HW174428   6.566   5.335   6.562
24218SOL    HW274429   6.483   5.442   6.495
24219SOL     OW74430   1.336   3.299   0.747
24219SOL    HW174431   1.407   3.262   0.695
24219SOL    HW274432   1.263   3.307   0.686
24220SOL     OW74433   6.025   8.452  10.427
24220SOL    HW174434   6.100   8.451  10.488
24220SOL    HW274435   6.065   8.449  10.340
24221SOL     OW74436   6.257   6.364  14.406
24221SOL    HW174437   6.164   6.380  14.386
24221SOL    HW274438   6.292   6.324  14.327
24222SOL     OW74439   9.641  12.340   4.937
24222SOL    HW174440   9.639  12.247   4.962
24222SOL    HW274441   9.712  12.377   4.988
24223SOL     OW74442   0.182  13.327   6.599
24223SOL    HW174443   0.255  13.300   6.655
24223SOL    HW274444   0.120  13.254   6.603
24224SOL     OW74445   1.111  11.465  11.057
24224SOL    HW174446   1.069  11.437  11.138
24224SOL    HW274447   1.203  11.476  11.080
24225SOL     OW74448   2.055   6.688   9.672
24225SOL    HW174449   2.108   6.622   9.625
24225SOL    HW274450   2.012   6.638   9.741
24226SOL     OW74451   9.120   7.470  13.592
24226SOL    HW174452   9.110   7.558  13.629
24226SOL    HW274453   9.134   7.414  13.668
24227SOL     OW74454   9.656  11.853  11.401
24227SOL    HW174455   9.705  11.902  11.334
24227SOL    HW274456   9.600  11.794  11.351
24228SOL     OW74457   6.311   5.466   0.854
24228SOL    HW174458   6.370   5.504   0.920
24228SOL    HW274459   6.228   5.512   0.867
24229SOL     OW74460  11.262   9.026   1.561
24229SOL    HW174461  11.235   8.994   1.647
24229SOL    HW274462  11.186   9.074   1.529
24230SOL     OW74463   0.296   7.247   2.084
24230SOL    HW174464   0.264   7.211   2.001
24230SOL    HW274465   0.244   7.326   2.098
24231SOL     OW74466   9.731   8.875   5.782
24231SOL    HW174467   9.708   8.786   5.756
24231SOL    HW274468   9.647   8.919   5.797
24232SOL     OW74469   0.798  12.137   3.471
24232SOL    HW174470   0.747  12.203   3.518
24232SOL    HW274471   0.881  12.132   3.519
24233SOL     OW74472   3.714   8.866  12.233
24233SOL    HW174473   3.723   8.787  12.285
24233SOL    HW274474   3.740   8.937  12.291
24234SOL     OW74475   3.460   0.460   7.924
24234SOL    HW174476   3.480   0.504   8.007
24234SOL    HW274477   3.376   0.416   7.940
24235SOL     OW74478   6.055   1.153  10.574
24235SOL    HW174479   6.110   1.228  10.551
24235SOL    HW274480   6.072   1.138  10.667
24236SOL     OW74481   1.940   9.541  11.105
24236SOL    HW174482   2.000   9.514  11.036
24236SOL    HW274483   1.968   9.491  11.182
24237SOL     OW74484   6.037  10.889   3.593
24237SOL    HW174485   6.127  10.866   3.572
24237SOL    HW274486   6.032  10.983   3.574
24238SOL     OW74487  13.460   3.219   0.952
24238SOL    HW174488  13.488   3.153   0.889
24238SOL    HW274489  13.379   3.254   0.916
24239SOL     OW74490   4.321   9.727  12.651
24239SOL    HW174491   4.304   9.815  12.618
24239SOL    HW274492   4.401   9.735  12.702
24240SOL     OW74493  14.335   3.516   9.465
24240SOL    HW174494  14.347   3.463   9.385
24240SOL    HW274495  14.406   3.488   9.523
24241SOL     OW74496   4.373   4.350   9.810
24241SOL    HW174497   4.364   4.407   9.734
24241SOL    HW274498   4.408   4.406   9.879
24242SOL     OW74499   1.388   8.614  13.576
24242SOL    HW174500   1.376   8.625  13.671
24242SOL    HW274501   1.461   8.672  13.554
24243SOL     OW74502  13.768   6.019  12.829
24243SOL    HW174503  13.809   5.938  12.859
24243SOL    HW274504  13.778   6.080  12.902
24244SOL     OW74505   2.829  13.834  14.166
24244SOL    HW174506   2.804  13.918  14.206
24244SOL    HW274507   2.778  13.769  14.214
24245SOL     OW74508   9.142   5.707   2.064
24245SOL    HW174509   9.064   5.753   2.032
24245SOL    HW274510   9.167   5.755   2.143
24246SOL     OW74511  11.724   9.460   5.962
24246SOL    HW174512  11.744   9.423   5.876
24246SOL    HW274513  11.787   9.419   6.021
24247SOL     OW74514  14.859   3.457   1.743
24247SOL    HW174515  14.868   3.537   1.795
24247SOL    HW274516  14.767   3.431   1.754
24248SOL     OW74517   5.087   8.974   0.487
24248SOL    HW174518   5.068   9.061   0.522
24248SOL    HW274519   5.077   8.915   0.562
24249SOL     OW74520  14.845  13.355   0.773
24249SOL    HW174521   0.040  13.404   0.736
24249SOL    HW274522  14.866  13.263   0.755
24250SOL     OW74523   5.357   9.936   5.742
24250SOL    HW174524   5.331   9.965   5.829
24250SOL    HW274525   5.415  10.005   5.710
24251SOL     OW74526   8.004  14.084  12.383
24251SOL    HW174527   8.027  14.042  12.466
24251SOL    HW274528   8.040  14.026  12.316
24252SOL     OW74529  13.746   1.271  13.955
24252SOL    HW174530  13.826   1.238  13.913
24252SOL    HW274531  13.675   1.224  13.912
24253SOL     OW74532  12.405   0.777   7.583
24253SOL    HW174533  12.452   0.738   7.509
24253SOL    HW274534  12.361   0.702   7.625
24254SOL     OW74535   0.228   1.521  11.829
24254SOL    HW174536   0.284   1.450  11.860
24254SOL    HW274537   0.242   1.523  11.735
24255SOL     OW74538  11.108   5.329  13.345
24255SOL    HW174539  11.077   5.255  13.397
24255SOL    HW274540  11.135   5.395  13.409
24256SOL     OW74541   8.983  13.710  11.190
24256SOL    HW174542   8.888  13.714  11.200
24256SOL    HW274543   9.003  13.774  11.122
24257SOL     OW74544   8.368   9.360   0.060
24257SOL    HW174545   8.286   9.319   0.086
24257SOL    HW274546   8.351   9.396  14.851
24258SOL     OW74547   8.256   8.929   0.003
24258SOL    HW174548   8.205   8.973  14.813
24258SOL    HW274549   8.337   8.980   0.008
24259SOL     OW74550  13.444   6.602   0.189
24259SOL    HW174551  13.486   6.684   0.216
24259SOL    HW274552  13.503   6.565   0.123
24260SOL     OW74553   4.982   5.979   4.672
24260SOL    HW174554   5.012   5.982   4.762
24260SOL    HW274555   4.891   5.949   4.678
24261SOL     OW74556   9.925  13.072   6.433
24261SOL    HW174557   9.902  12.982   6.412
24261SOL    HW274558   9.842  13.112   6.461
24262SOL     OW74559   6.214   9.686   0.746
24262SOL    HW174560   6.159   9.765   0.745
24262SOL    HW274561   6.161   9.621   0.793
24263SOL     OW74562   4.041  13.849   9.419
24263SOL    HW174563   3.962  13.860   9.367
24263SOL    HW274564   4.031  13.764   9.461
24264SOL     OW74565   6.645   4.003   2.223
24264SOL    HW174566   6.655   4.004   2.128
24264SOL    HW274567   6.551   4.005   2.238
24265SOL     OW74568   2.640   8.590  13.675
24265SOL    HW174569   2.717   8.600  13.619
24265SOL    HW274570   2.637   8.670  13.726
24266SOL     OW74571   3.240  10.831   4.989
24266SOL    HW174572   3.268  10.888   4.918
24266SOL    HW274573   3.241  10.743   4.951
24267SOL     OW74574   3.973   4.065   4.870
24267SOL    HW174575   3.879   4.082   4.864
24267SOL    HW274576   3.987   3.989   4.813
24268SOL     OW74577   2.159   2.756   2.488
24268SOL    HW174578   2.070   2.749   2.454
24268SOL    HW274579   2.167   2.846   2.518
24269SOL     OW74580  11.227  13.804   5.999
24269SOL    HW174581  11.255  13.773   5.913
24269SOL    HW274582  11.168  13.736   6.031
24270SOL     OW74583   3.598  12.856  12.404
24270SOL    HW174584   3.544  12.932  12.426
24270SOL    HW274585   3.682  12.873  12.446
24271SOL     OW74586  13.832   8.152   3.179
24271SOL    HW174587  13.872   8.115   3.258
24271SOL    HW274588  13.907   8.174   3.123
24272SOL     OW74589   1.008   4.632   8.945
24272SOL    HW174590   1.086   4.678   8.976
24272SOL    HW274591   0.938   4.698   8.947
24273SOL     OW74592   0.855  11.522   8.895
24273SOL    HW174593   0.934  11.526   8.841
24273SOL    HW274594   0.843  11.429   8.913
24274SOL     OW74595  12.924   9.339  10.221
24274SOL    HW174596  12.894   9.428  10.241
24274SOL    HW274597  12.879   9.316  10.140
24275SOL     OW74598   8.372   8.466  13.342
24275SOL    HW174599   8.428   8.403  13.387
24275SOL    HW274600   8.325   8.511  13.412
24276SOL     OW74601  11.493   6.241   8.801
24276SOL    HW174602  11.406   6.261   8.766
24276SOL    HW274603  11.494   6.286   8.886
24277SOL     OW74604   5.368   5.937  12.081
24277SOL    HW174605   5.361   6.003  12.012
24277SOL    HW274606   5.336   5.856  12.041
24278SOL     OW74607   0.251   1.066   4.237
24278SOL    HW174608   0.257   1.161   4.227
24278SOL    HW274609   0.286   1.049   4.324
24279SOL     OW74610  10.618   8.886   4.591
24279SOL    HW174611  10.594   8.903   4.682
24279SOL    HW274612  10.656   8.969   4.560
24280SOL     OW74613  14.796   0.070  12.732
24280SOL    HW174614  14.730   0.000  12.734
24280SOL    HW274615  14.746   0.151  12.740
24281SOL     OW74616  11.654   2.663  14.639
24281SOL    HW174617  11.694   2.579  14.615
24281SOL    HW274618  11.583   2.639  14.699
24282SOL     OW74619   0.939  12.044   5.305
24282SOL    HW174620   0.858  12.044   5.357
24282SOL    HW274621   1.008  12.067   5.367
24283SOL     OW74622   6.118  14.747  11.360
24283SOL    HW174623   6.071  14.708  11.434
24283SOL    HW274624   6.074  14.831  11.345
24284SOL     OW74625   3.250  11.696  13.575
24284SOL    HW174626   3.242  11.614  13.526
24284SOL    HW274627   3.268  11.669  13.665
24285SOL     OW74628   9.204   1.102  14.325
24285SOL    HW174629   9.141   1.086  14.254
24285SOL    HW274630   9.164   1.063  14.402
24286SOL     OW74631   0.406   6.684  12.065
24286SOL    HW174632   0.408   6.588  12.063
24286SOL    HW274633   0.313   6.706  12.055
24287SOL     OW74634  12.656   3.363   9.307
24287SOL    HW174635  12.581   3.308   9.283
24287SOL    HW274636  12.692   3.392   9.223
24288SOL     OW74637   4.319   9.328   0.386
24288SOL    HW174638   4.384   9.351   0.320
24288SOL    HW274639   4.267   9.407   0.398
24289SOL     OW74640   4.460   6.668  12.484
24289SOL    HW174641   4.450   6.613  12.562
24289SOL    HW274642   4.481   6.606  12.414
24290SOL     OW74643   8.804   8.847  14.713
24290SOL    HW174644   8.887   8.819  14.751
24290SOL    HW274645   8.737   8.806  14.767
24291SOL     OW74646  13.936  11.962   7.084
24291SOL    HW174647  14.003  11.990   7.021
24291SOL    HW274648  13.888  12.043   7.104
24292SOL     OW74649  12.477   1.898   5.290
24292SOL    HW174650  12.560   1.945   5.277
24292SOL    HW274651  12.504   1.813   5.324
24293SOL     OW74652  12.174   2.897   7.498
24293SOL    HW174653  12.133   2.850   7.571
24293SOL    HW274654  12.163   2.839   7.423
24294SOL     OW74655   1.881   3.454   2.514
24294SOL    HW174656   1.851   3.529   2.463
24294SOL    HW274657   1.804   3.428   2.565
24295SOL     OW74658   1.915  10.994  14.560
24295SOL    HW174659   1.905  11.024  14.470
24295SOL    HW274660   1.832  11.018  14.602
24296SOL     OW74661   4.010   2.401   8.912
24296SOL    HW174662   4.048   2.355   8.837
24296SOL    HW274663   3.975   2.332   8.967
24297SOL     OW74664   8.753  12.435   5.675
24297SOL    HW174665   8.695  12.360   5.685
24297SOL    HW274666   8.834  12.409   5.718
24298SOL     OW74667   2.065  11.525   4.114
24298SOL    HW174668   2.074  11.541   4.021
24298SOL    HW274669   2.069  11.612   4.154
24299SOL     OW74670  11.544   2.036  11.518
24299SOL    HW174671  11.515   1.985  11.594
24299SOL    HW274672  11.467   2.087  11.493
24300SOL     OW74673   2.453   0.070   3.117
24300SOL    HW174674   2.456   0.033   3.205
24300SOL    HW274675   2.484  14.877   3.060
24301SOL     OW74676   3.636   7.911   2.622
24301SOL    HW174677   3.716   7.919   2.570
24301SOL    HW274678   3.567   7.899   2.557
24302SOL     OW74679  11.391   9.128   5.379
24302SOL    HW174680  11.348   9.139   5.464
24302SOL    HW274681  11.334   9.067   5.332
24303SOL     OW74682   5.113  13.471  13.837
24303SOL    HW174683   5.097  13.376  13.842
24303SOL    HW274684   5.113  13.500  13.928
24304SOL     OW74685  13.286   0.081   2.628
24304SOL    HW174686  13.363   0.130   2.601
24304SOL    HW274687  13.302   0.058   2.720
24305SOL     OW74688   7.213   4.436   6.317
24305SOL    HW174689   7.276   4.365   6.332
24305SOL    HW274690   7.252   4.512   6.360
24306SOL     OW74691   3.261  10.701   1.123
24306SOL    HW174692   3.243  10.613   1.090
24306SOL    HW274693   3.174  10.741   1.132
24307SOL     OW74694   1.648   5.126   3.124
24307SOL    HW174695   1.556   5.147   3.106
24307SOL    HW274696   1.663   5.156   3.213
24308SOL     OW74697  14.814   5.189  10.105
24308SOL    HW174698  14.732   5.157  10.143
24308SOL    HW274699  14.788   5.264  10.052
24309SOL     OW74700   2.704   7.442   7.592
24309SOL    HW174701   2.660   7.374   7.644
24309SOL    HW274702   2.633   7.482   7.541
24310SOL     OW74703   3.667   4.480   8.377
24310SOL    HW174704   3.646   4.402   8.429
24310SOL    HW274705   3.748   4.456   8.331
24311SOL     OW74706   3.340   3.159   9.294
24311SOL    HW174707   3.297   3.175   9.378
24311SOL    HW274708   3.429   3.135   9.316
24312SOL     OW74709   5.341  14.365  11.124
24312SOL    HW174710   5.316  14.273  11.120
24312SOL    HW274711   5.402  14.371  11.197
24313SOL     OW74712   9.113   5.859   0.322
24313SOL    HW174713   9.175   5.901   0.382
24313SOL    HW274714   9.117   5.766   0.346
24314SOL     OW74715   9.880  13.210   9.265
24314SOL    HW174716   9.859  13.167   9.182
24314SOL    HW274717   9.969  13.244   9.253
24315SOL     OW74718   8.027   6.060   2.840
24315SOL    HW174719   7.943   6.020   2.816
24315SOL    HW274720   8.007   6.110   2.919
24316SOL     OW74721  10.346   2.191   6.970
24316SOL    HW174722  10.341   2.178   6.875
24316SOL    HW274723  10.309   2.277   6.984
24317SOL     OW74724   4.092   8.252   2.152
24317SOL    HW174725   4.086   8.157   2.156
24317SOL    HW274726   4.160   8.269   2.087
24318SOL     OW74727  13.963   6.771  14.381
24318SOL    HW174728  14.059   6.781  14.383
24318SOL    HW274729  13.944   6.735  14.295
24319SOL     OW74730  11.623   6.339  10.550
24319SOL    HW174731  11.649   6.320  10.640
24319SOL    HW274732  11.557   6.408  10.559
24320SOL     OW74733   1.717   6.272   6.313
24320SOL    HW174734   1.630   6.238   6.335
24320SOL    HW274735   1.756   6.295   6.397
24321SOL     OW74736   8.376  13.436   0.237
24321SOL    HW174737   8.309  13.389   0.189
24321SOL    HW274738   8.446  13.372   0.250
24322SOL     OW74739  14.142  14.145   8.637
24322SOL    HW174740  14.172  14.228   8.601
24322SOL    HW274741  14.209  14.082   8.612
24323SOL     OW74742   8.242   7.518  14.861
24323SOL    HW174743   8.331   7.545   0.006
24323SOL    HW274744   8.252   7.467  14.781
24324SOL     OW74745  10.274  11.524   0.218
24324SOL    HW174746  10.291  11.429   0.220
24324SOL    HW274747  10.358  11.564   0.240
24325SOL     OW74748   6.906  12.887   2.644
24325SOL    HW174749   6.922  12.815   2.583
24325SOL    HW274750   6.973  12.876   2.712
24326SOL     OW74751   6.123  11.613   8.715
24326SOL    HW174752   6.193  11.626   8.652
24326SOL    HW274753   6.079  11.698   8.719
24327SOL     OW74754   3.085  13.741   4.173
24327SOL    HW174755   3.136  13.780   4.102
24327SOL    HW274756   3.027  13.811   4.203
24328SOL     OW74757   6.415   4.713   5.092
24328SOL    HW174758   6.482   4.780   5.079
24328SOL    HW274759   6.432   4.647   5.026
24329SOL     OW74760  13.890   2.753   7.496
24329SOL    HW174761  13.894   2.665   7.532
24329SOL    HW274762  13.796   2.774   7.492
24330SOL     OW74763   7.048   0.103   4.518
24330SOL    HW174764   7.042   0.195   4.490
24330SOL    HW274765   7.077   0.107   4.609
24331SOL     OW74766   3.298  12.287   3.206
24331SOL    HW174767   3.292  12.297   3.111
24331SOL    HW274768   3.392  12.284   3.224
24332SOL     OW74769  13.569   3.470  12.039
24332SOL    HW174770  13.643   3.523  12.010
24332SOL    HW274771  13.594   3.439  12.126
24333SOL     OW74772   5.048   4.343  13.087
24333SOL    HW174773   4.995   4.407  13.039
24333SOL    HW274774   5.137   4.357  13.054
24334SOL     OW74775  10.315   5.707  11.690
24334SOL    HW174776  10.378   5.639  11.710
24334SOL    HW274777  10.252   5.665  11.632
24335SOL     OW74778   7.571   4.780   4.673
24335SOL    HW174779   7.509   4.849   4.649
24335SOL    HW274780   7.623   4.766   4.594
24336SOL     OW74781  14.226   7.697   2.070
24336SOL    HW174782  14.236   7.627   2.006
24336SOL    HW274783  14.228   7.652   2.155
24337SOL     OW74784   3.467  11.588   4.484
24337SOL    HW174785   3.382  11.631   4.477
24337SOL    HW274786   3.484  11.583   4.578
24338SOL     OW74787  10.278   4.855   2.723
24338SOL    HW174788  10.319   4.801   2.655
24338SOL    HW274789  10.294   4.806   2.804
24339SOL     OW74790   5.658  13.678  10.734
24339SOL    HW174791   5.657  13.752  10.795
24339SOL    HW274792   5.566  13.662  10.712
24340SOL     OW74793   5.443   2.760   0.771
24340SOL    HW174794   5.423   2.833   0.831
24340SOL    HW274795   5.445   2.800   0.684
24341SOL     OW74796   4.026   1.056   1.648
24341SOL    HW174797   4.095   1.076   1.584
24341SOL    HW274798   3.964   1.001   1.600
24342SOL     OW74799   5.236   5.762   6.553
24342SOL    HW174800   5.262   5.772   6.462
24342SOL    HW274801   5.226   5.852   6.585
24343SOL     OW74802  12.484   5.859  10.434
24343SOL    HW174803  12.476   5.881  10.527
24343SOL    HW274804  12.438   5.929  10.388
24344SOL     OW74805   6.218   8.486   9.578
24344SOL    HW174806   6.141   8.447   9.537
24344SOL    HW274807   6.208   8.467   9.671
24345SOL     OW74808   0.224   4.284  11.152
24345SOL    HW174809   0.278   4.336  11.091
24345SOL    HW274810   0.146   4.337  11.166
24346SOL     OW74811  13.487  11.804  14.160
24346SOL    HW174812  13.564  11.827  14.213
24346SOL    HW274813  13.518  11.807  14.070
24347SOL     OW74814   7.531   5.260   0.942
24347SOL    HW174815   7.451   5.213   0.921
24347SOL    HW274816   7.504   5.328   1.004
24348SOL     OW74817   6.813   5.432   1.233
24348SOL    HW174818   6.738   5.416   1.290
24348SOL    HW274819   6.888   5.400   1.283
24349SOL     OW74820  10.971  12.028   3.461
24349SOL    HW174821  11.010  11.954   3.415
24349SOL    HW274822  10.881  12.000   3.479
24350SOL     OW74823   8.443  13.451   9.568
24350SOL    HW174824   8.514  13.514   9.564
24350SOL    HW274825   8.484  13.367   9.544
24351SOL     OW74826  12.606   2.573  13.007
24351SOL    HW174827  12.571   2.583  13.096
24351SOL    HW274828  12.543   2.618  12.951
24352SOL     OW74829   6.417   6.497  11.957
24352SOL    HW174830   6.499   6.534  11.991
24352SOL    HW274831   6.411   6.411  11.999
24353SOL     OW74832  13.206   7.478   7.425
24353SOL    HW174833  13.193   7.441   7.337
24353SOL    HW274834  13.210   7.401   7.482
24354SOL     OW74835  11.278   3.096  13.738
24354SOL    HW174836  11.361   3.048  13.740
24354SOL    HW274837  11.243   3.079  13.650
24355SOL     OW74838   1.303   8.535  12.402
24355SOL    HW174839   1.360   8.483  12.459
24355SOL    HW274840   1.241   8.472  12.367
24356SOL     OW74841   6.531  13.249   7.884
24356SOL    HW174842   6.572  13.324   7.926
24356SOL    HW274843   6.546  13.264   7.790
24357SOL     OW74844   4.816  14.710  10.050
24357SOL    HW174845   4.776  14.779   9.997
24357SOL    HW274846   4.837  14.751  10.133
24358SOL     OW74847  10.761   0.354   6.425
24358SOL    HW174848  10.824   0.328   6.358
24358SOL    HW274849  10.812   0.353   6.506
24359SOL     OW74850   4.963   0.204   8.905
24359SOL    HW174851   5.015   0.241   8.834
24359SOL    HW274852   4.949   0.113   8.879
24360SOL     OW74853   6.810   4.497   3.264
24360SOL    HW174854   6.854   4.564   3.211
24360SOL    HW274855   6.718   4.503   3.239
24361SOL     OW74856   1.369  14.860   2.250
24361SOL    HW174857   1.406  14.774   2.233
24361SOL    HW274858   1.424   0.042   2.198
24362SOL     OW74859   7.146   7.871  14.655
24362SOL    HW174860   7.067   7.829  14.622
24362SOL    HW274861   7.203   7.798  14.681
24363SOL     OW74862   7.700   3.125   1.685
24363SOL    HW174863   7.668   3.121   1.775
24363SOL    HW274864   7.792   3.151   1.694
24364SOL     OW74865   2.867  12.463   6.781
24364SOL    HW174866   2.865  12.559   6.792
24364SOL    HW274867   2.797  12.444   6.719
24365SOL     OW74868   9.407   1.160   6.825
24365SOL    HW174869   9.324   1.159   6.777
24365SOL    HW274870   9.471   1.189   6.760
24366SOL     OW74871   3.515   8.107  14.053
24366SOL    HW174872   3.533   8.172  14.121
24366SOL    HW274873   3.573   8.034  14.073
24367SOL     OW74874  11.826   0.542   0.877
24367SOL    HW174875  11.775   0.600   0.821
24367SOL    HW274876  11.904   0.593   0.900
24368SOL     OW74877  13.553   3.237  12.244
24368SOL    HW174878  13.557   3.196  12.158
24368SOL    HW274879  13.477   3.196  12.286
24369SOL     OW74880  11.873   7.020   8.923
24369SOL    HW174881  11.780   6.997   8.929
24369SOL    HW274882  11.913   6.983   9.002
24370SOL     OW74883   7.572  13.747  11.542
24370SOL    HW174884   7.508  13.716  11.479
24370SOL    HW274885   7.547  13.704  11.624
24371SOL     OW74886   9.573   5.917  10.192
24371SOL    HW174887   9.508   5.848  10.177
24371SOL    HW274888   9.585   5.917  10.287
24372SOL     OW74889  13.050   7.005   4.231
24372SOL    HW174890  12.974   6.946   4.240
24372SOL    HW274891  13.119   6.950   4.194
24373SOL     OW74892  12.712  10.321   8.380
24373SOL    HW174893  12.637  10.359   8.334
24373SOL    HW274894  12.712  10.229   8.354
24374SOL     OW74895   3.931   3.452   4.647
24374SOL    HW174896   3.913   3.406   4.729
24374SOL    HW274897   3.856   3.509   4.634
24375SOL     OW74898   3.734   0.472  13.310
24375SOL    HW174899   3.770   0.420  13.238
24375SOL    HW274900   3.679   0.537  13.266
24376SOL     OW74901  10.843  11.646   1.795
24376SOL    HW174902  10.765  11.695   1.820
24376SOL    HW274903  10.916  11.707   1.806
24377SOL     OW74904  11.529   1.877   1.243
24377SOL    HW174905  11.483   1.793   1.244
24377SOL    HW274906  11.563   1.885   1.154
24378SOL     OW74907  10.652  12.865   5.702
24378SOL    HW174908  10.694  12.785   5.671
24378SOL    HW274909  10.718  12.934   5.686
24379SOL     OW74910   6.047   5.722  14.739
24379SOL    HW174911   6.136   5.754  14.751
24379SOL    HW274912   6.000   5.754  14.816
24380SOL     OW74913   7.974  14.575   4.584
24380SOL    HW174914   8.015  14.639   4.643
24380SOL    HW274915   8.020  14.493   4.603
24381SOL     OW74916  11.424   8.950   4.673
24381SOL    HW174917  11.443   8.995   4.591
24381SOL    HW274918  11.414   9.021   4.737
24382SOL     OW74919   2.559   8.668   8.481
24382SOL    HW174920   2.527   8.673   8.391
24382SOL    HW274921   2.562   8.760   8.510
24383SOL     OW74922  11.056   8.106   7.210
24383SOL    HW174923  10.998   8.102   7.287
24383SOL    HW274924  10.997   8.097   7.136
24384SOL     OW74925   2.515   6.782  11.693
24384SOL    HW174926   2.451   6.809  11.759
24384SOL    HW274927   2.473   6.803  11.610
24385SOL     OW74928   1.276   5.919  12.795
24385SOL    HW174929   1.218   5.974  12.848
24385SOL    HW274930   1.327   5.982  12.743
24386SOL     OW74931   2.977   3.664  11.855
24386SOL    HW174932   3.022   3.597  11.906
24386SOL    HW274933   3.034   3.680  11.780
24387SOL     OW74934   7.758   8.109  14.696
24387SOL    HW174935   7.703   8.102  14.618
24387SOL    HW274936   7.744   8.198  14.728
24388SOL     OW74937   0.961   3.002   7.396
24388SOL    HW174938   0.959   3.095   7.374
24388SOL    HW274939   0.923   2.958   7.320
24389SOL     OW74940   9.942  11.276   4.445
24389SOL    HW174941   9.932  11.371   4.437
24389SOL    HW274942  10.027  11.265   4.487
24390SOL     OW74943   4.707   4.299  13.423
24390SOL    HW174944   4.655   4.374  13.452
24390SOL    HW274945   4.774   4.337  13.366
24391SOL     OW74946   7.471  14.571   4.356
24391SOL    HW174947   7.433  14.584   4.269
24391SOL    HW274948   7.523  14.492   4.349
24392SOL     OW74949  12.946   9.777   7.715
24392SOL    HW174950  12.989   9.848   7.667
24392SOL    HW274951  12.988   9.779   7.801
24393SOL     OW74952   2.060   3.274  10.252
24393SOL    HW174953   2.121   3.346  10.238
24393SOL    HW274954   1.979   3.303  10.211
24394SOL     OW74955   7.741   2.160   1.705
24394SOL    HW174956   7.810   2.226   1.713
24394SOL    HW274957   7.705   2.153   1.793
24395SOL     OW74958  11.198   1.801   4.859
24395SOL    HW174959  11.221   1.872   4.799
24395SOL    HW274960  11.187   1.724   4.802
24396SOL     OW74961  12.061  12.798   5.694
24396SOL    HW174962  12.106  12.846   5.625
24396SOL    HW274963  11.985  12.759   5.651
24397SOL     OW74964   9.016   1.906   9.594
24397SOL    HW174965   9.020   1.970   9.523
24397SOL    HW274966   9.099   1.859   9.589
24398SOL     OW74967   6.461   3.714   9.466
24398SOL    HW174968   6.384   3.668   9.433
24398SOL    HW274969   6.535   3.664   9.432
24399SOL     OW74970  14.652   7.979   4.043
24399SOL    HW174971  14.606   8.028   4.110
24399SOL    HW274972  14.738   7.960   4.082
24400SOL     OW74973  12.688  10.761   0.923
24400SOL    HW174974  12.681  10.845   0.969
24400SOL    HW274975  12.776  10.730   0.941
24401SOL     OW74976   1.556   2.270   4.839
24401SOL    HW174977   1.624   2.202   4.837
24401SOL    HW274978   1.483   2.229   4.886
24402SOL     OW74979   1.897   6.876  13.670
24402SOL    HW174980   1.935   6.940  13.610
24402SOL    HW274981   1.897   6.794  13.621
24403SOL     OW74982   9.655  13.970   2.012
24403SOL    HW174983   9.721  13.935   2.071
24403SOL    HW274984   9.690  13.956   1.924
24404SOL     OW74985   7.580   1.980   3.912
24404SOL    HW174986   7.494   2.002   3.875
24404SOL    HW274987   7.641   2.039   3.868
24405SOL     OW74988   9.767  13.588   1.918
24405SOL    HW174989   9.852  13.567   1.879
24405SOL    HW274990   9.708  13.593   1.844
24406SOL     OW74991   8.722   8.302  11.499
24406SOL    HW174992   8.680   8.220  11.526
24406SOL    HW274993   8.676   8.327  11.419
24407SOL     OW74994   9.779  13.860   0.986
24407SOL    HW174995   9.736  13.876   0.902
24407SOL    HW274996   9.709  13.825   1.042
24408SOL     OW74997  14.678   7.937  14.311
24408SOL    HW174998  14.644   8.027  14.317
24408SOL    HW274999  14.635   7.901  14.233
24409SOL     OW75000   0.954  11.279   6.108
24409SOL    HW175001   1.033  11.307   6.154
24409SOL    HW275002   0.921  11.204   6.157
24410SOL     OW75003  10.667  13.116   4.417
24410SOL    HW175004  10.596  13.142   4.358
24410SOL    HW275005  10.693  13.030   4.386
24411SOL     OW75006   6.325  14.654   2.481
24411SOL    HW175007   6.287  14.620   2.400
24411SOL    HW275008   6.365  14.737   2.455
24412SOL     OW75009   9.156   7.280  14.412
24412SOL    HW175010   9.093   7.296  14.482
24412SOL    HW275011   9.137   7.348  14.347
24413SOL     OW75012  11.997   5.592  12.851
24413SOL    HW175013  11.984   5.553  12.764
24413SOL    HW275014  12.006   5.517  12.909
24414SOL     OW75015   8.150  10.999   1.247
24414SOL    HW175016   8.142  10.920   1.193
24414SOL    HW275017   8.160  11.070   1.184
24415SOL     OW75018   0.278   6.716   1.556
24415SOL    HW175019   0.301   6.716   1.649
24415SOL    HW275020   0.276   6.623   1.533
24416SOL     OW75021  12.485   9.817   8.926
24416SOL    HW175022  12.527   9.731   8.913
24416SOL    HW275023  12.462   9.845   8.838
24417SOL     OW75024   4.487  11.082  12.404
24417SOL    HW175025   4.490  11.167  12.447
24417SOL    HW275026   4.533  11.096  12.321
24418SOL     OW75027   6.342   8.253   4.381
24418SOL    HW175028   6.406   8.184   4.362
24418SOL    HW275029   6.392   8.320   4.429
24419SOL     OW75030   1.103  13.082  11.426
24419SOL    HW175031   1.124  13.175  11.430
24419SOL    HW275032   1.016  13.074  11.465
24420SOL     OW75033   9.791  11.681  13.848
24420SOL    HW175034   9.868  11.694  13.793
24420SOL    HW275035   9.825  11.688  13.938
24421SOL     OW75036  11.600  10.395   3.811
24421SOL    HW175037  11.520  10.423   3.856
24421SOL    HW275038  11.593  10.299   3.808
24422SOL     OW75039  12.848  13.966  11.765
24422SOL    HW175040  12.803  14.037  11.718
24422SOL    HW275041  12.930  13.953  11.718
24423SOL     OW75042  14.098   2.325   5.268
24423SOL    HW175043  14.024   2.265   5.268
24423SOL    HW275044  14.154   2.294   5.339
24424SOL     OW75045  10.729  13.543   0.733
24424SOL    HW175046  10.661  13.552   0.667
24424SOL    HW275047  10.807  13.580   0.692
24425SOL     OW75048   5.236  12.332   4.501
24425SOL    HW175049   5.190  12.412   4.528
24425SOL    HW275050   5.328  12.349   4.522
24426SOL     OW75051  14.705   8.163   8.202
24426SOL    HW175052  14.678   8.084   8.249
24426SOL    HW275053  14.638   8.228   8.225
24427SOL     OW75054  14.075  11.712   2.764
24427SOL    HW175055  14.114  11.660   2.694
24427SOL    HW275056  14.012  11.769   2.719
24428SOL     OW75057  10.027  11.752   9.013
24428SOL    HW175058  10.001  11.769   9.103
24428SOL    HW275059   9.946  11.765   8.962
24429SOL     OW75060   1.670  11.529  12.745
24429SOL    HW175061   1.753  11.486  12.722
24429SOL    HW275062   1.693  11.585  12.819
24430SOL     OW75063  10.624   6.901   2.735
24430SOL    HW175064  10.570   6.886   2.658
24430SOL    HW275065  10.562   6.928   2.803
24431SOL     OW75066  11.763  11.083   1.390
24431SOL    HW175067  11.819  11.018   1.432
24431SOL    HW275068  11.714  11.122   1.462
24432SOL     OW75069   7.934   9.343   5.562
24432SOL    HW175070   7.961   9.252   5.545
24432SOL    HW275071   7.874   9.337   5.636
24433SOL     OW75072  14.832   7.067   9.483
24433SOL    HW175073   0.017   7.102   9.419
24433SOL    HW275074  14.870   7.088   9.568
24434SOL     OW75075   5.586  10.128   6.094
24434SOL    HW175076   5.576  10.152   6.186
24434SOL    HW275077   5.506  10.079   6.073
24435SOL     OW75078   8.517   6.099   8.738
24435SOL    HW175079   8.497   6.192   8.738
24435SOL    HW275080   8.612   6.095   8.728
24436SOL     OW75081   1.707   5.525   6.651
24436SOL    HW175082   1.623   5.572   6.642
24436SOL    HW275083   1.763   5.586   6.699
24437SOL     OW75084  14.194  10.374  14.369
24437SOL    HW175085  14.257  10.325  14.422
24437SOL    HW275086  14.208  10.465  14.392
24438SOL     OW75087   3.305   9.453   9.161
24438SOL    HW175088   3.258   9.379   9.199
24438SOL    HW275089   3.357   9.415   9.090
24439SOL     OW75090   3.559  12.788  11.935
24439SOL    HW175091   3.616  12.789  12.012
24439SOL    HW275092   3.610  12.742  11.868
24440SOL     OW75093   9.301   9.541   7.960
24440SOL    HW175094   9.294   9.526   7.866
24440SOL    HW275095   9.389   9.576   7.972
24441SOL     OW75096  10.925  13.198   2.455
24441SOL    HW175097  10.860  13.152   2.508
24441SOL    HW275098  10.973  13.253   2.517
24442SOL     OW75099   2.697   5.761  10.562
24442SOL    HW175100   2.787   5.788  10.582
24442SOL    HW275101   2.694   5.668  10.583
24443SOL     OW75102  14.222   5.212  11.201
24443SOL    HW175103  14.178   5.258  11.273
24443SOL    HW275104  14.185   5.124  11.203
24444SOL     OW75105   2.138   0.791  11.575
24444SOL    HW175106   2.190   0.711  11.586
24444SOL    HW275107   2.183   0.840  11.507
24445SOL     OW75108  13.218   4.589   4.373
24445SOL    HW175109  13.130   4.556   4.355
24445SOL    HW275110  13.207   4.646   4.449
24446SOL     OW75111   2.299  12.240   6.588
24446SOL    HW175112   2.320  12.175   6.521
24446SOL    HW275113   2.383  12.275   6.616
24447SOL     OW75114   4.588  12.882  14.007
24447SOL    HW175115   4.496  12.859  14.022
24447SOL    HW275116   4.637  12.811  14.050
24448SOL     OW75117   7.247   4.706   4.928
24448SOL    HW175118   7.254   4.669   5.016
24448SOL    HW275119   7.322   4.765   4.922
24449SOL     OW75120   8.260   0.035  10.290
24449SOL    HW175121   8.193   0.089  10.249
24449SOL    HW275122   8.230  14.823  10.276
24450SOL     OW75123   7.738   3.673  10.366
24450SOL    HW175124   7.769   3.744  10.309
24450SOL    HW275125   7.808   3.663  10.431
24451SOL     OW75126   8.077   5.511   2.981
24451SOL    HW175127   8.166   5.547   2.992
24451SOL    HW275128   8.068   5.448   3.053
24452SOL     OW75129   2.956   9.242   0.680
24452SOL    HW175130   2.938   9.153   0.710
24452SOL    HW275131   3.020   9.276   0.743
24453SOL     OW75132  13.502   5.723  11.998
24453SOL    HW175133  13.585   5.691  11.965
24453SOL    HW275134  13.525   5.783  12.069
24454SOL     OW75135  13.366   2.404   3.054
24454SOL    HW175136  13.456   2.374   3.049
24454SOL    HW275137  13.340   2.418   2.963
24455SOL     OW75138  10.626   5.311   8.359
24455SOL    HW175139  10.639   5.234   8.415
24455SOL    HW275140  10.585   5.277   8.280
24456SOL     OW75141   1.449   9.252   4.169
24456SOL    HW175142   1.399   9.171   4.158
24456SOL    HW275143   1.427   9.282   4.257
24457SOL     OW75144  11.831   4.429  12.097
24457SOL    HW175145  11.803   4.341  12.122
24457SOL    HW275146  11.865   4.418  12.008
24458SOL     OW75147  14.452   1.974   0.673
24458SOL    HW175148  14.518   2.043   0.666
24458SOL    HW275149  14.501   1.893   0.671
24459SOL     OW75150   3.580   0.440   0.199
24459SOL    HW175151   3.673   0.441   0.173
24459SOL    HW275152   3.538   0.500   0.138
24460SOL     OW75153   4.006   3.950   7.859
24460SOL    HW175154   4.060   4.005   7.915
24460SOL    HW275155   4.068   3.900   7.806
24461SOL     OW75156   9.551   3.564   1.999
24461SOL    HW175157   9.570   3.634   2.062
24461SOL    HW275158   9.609   3.582   1.925
24462SOL     OW75159  10.481   0.222  11.745
24462SOL    HW175160  10.571   0.254  11.741
24462SOL    HW275161  10.434   0.287  11.797
24463SOL     OW75162   9.434   4.724   8.268
24463SOL    HW175163   9.390   4.666   8.206
24463SOL    HW275164   9.512   4.675   8.295
24464SOL     OW75165   8.414  14.054   3.008
24464SOL    HW175166   8.362  14.022   2.934
24464SOL    HW275167   8.501  14.071   2.971
24465SOL     OW75168   4.118  14.303   3.607
24465SOL    HW175169   4.124  14.274   3.698
24465SOL    HW275170   4.067  14.235   3.564
24466SOL     OW75171   2.590  13.140   7.249
24466SOL    HW175172   2.556  13.170   7.333
24466SOL    HW275173   2.515  13.143   7.190
24467SOL     OW75174   6.232  13.450  10.851
24467SOL    HW175175   6.275  13.378  10.804
24467SOL    HW275176   6.302  13.511  10.871
24468SOL     OW75177  13.116   1.433   7.753
24468SOL    HW175178  13.124   1.527   7.769
24468SOL    HW275179  13.205   1.400   7.764
24469SOL     OW75180  13.142  10.036   3.538
24469SOL    HW175181  13.180   9.958   3.499
24469SOL    HW275182  13.070  10.003   3.592
24470SOL     OW75183   6.215   0.520   5.335
24470SOL    HW175184   6.199   0.448   5.274
24470SOL    HW275185   6.163   0.593   5.301
24471SOL     OW75186   5.014   1.719   5.298
24471SOL    HW175187   5.040   1.758   5.382
24471SOL    HW275188   5.064   1.638   5.294
24472SOL     OW75189   1.437   3.198   7.845
24472SOL    HW175190   1.476   3.128   7.794
24472SOL    HW275191   1.506   3.264   7.854
24473SOL     OW75192   6.238   3.137   4.702
24473SOL    HW175193   6.173   3.174   4.642
24473SOL    HW275194   6.322   3.172   4.671
24474SOL     OW75195   2.527   5.397   3.236
24474SOL    HW175196   2.553   5.421   3.148
24474SOL    HW275197   2.521   5.480   3.283
24475SOL     OW75198   2.427   3.299  11.007
24475SOL    HW175199   2.449   3.369  10.947
24475SOL    HW275200   2.450   3.218  10.960
24476SOL     OW75201  11.720  11.303   4.408
24476SOL    HW175202  11.773  11.233   4.371
24476SOL    HW275203  11.648  11.314   4.346
24477SOL     OW75204  10.640   5.398   5.117
24477SOL    HW175205  10.637   5.410   5.022
24477SOL    HW275206  10.570   5.336   5.136
24478SOL     OW75207  13.156   8.528  12.525
24478SOL    HW175208  13.147   8.492  12.437
24478SOL    HW275209  13.121   8.617  12.519
24479SOL     OW75210   0.770   4.147  10.553
24479SOL    HW175211   0.762   4.067  10.501
24479SOL    HW275212   0.733   4.125  10.638
24480SOL     OW75213  14.067   4.862  13.827
24480SOL    HW175214  14.045   4.928  13.893
24480SOL    HW275215  14.162   4.862  13.825
24481SOL     OW75216   3.868   5.436   3.893
24481SOL    HW175217   3.799   5.381   3.855
24481SOL    HW275218   3.916   5.470   3.817
24482SOL     OW75219  11.533  13.139   3.331
24482SOL    HW175220  11.536  13.097   3.417
24482SOL    HW275221  11.564  13.228   3.347
24483SOL     OW75222   4.487   8.755  12.675
24483SOL    HW175223   4.572   8.716  12.656
24483SOL    HW275224   4.504   8.849  12.680
24484SOL     OW75225   1.040  10.302   1.184
24484SOL    HW175226   1.028  10.382   1.236
24484SOL    HW275227   1.118  10.319   1.132
24485SOL     OW75228  13.681   4.065   7.612
24485SOL    HW175229  13.669   4.067   7.706
24485SOL    HW275230  13.762   4.114   7.597
24486SOL     OW75231   7.103   4.205  12.315
24486SOL    HW175232   7.122   4.258  12.393
24486SOL    HW275233   7.162   4.131  12.321
24487SOL     OW75234  13.336  11.017   6.779
24487SOL    HW175235  13.265  11.020   6.844
24487SOL    HW275236  13.301  11.064   6.704
24488SOL     OW75237   7.320   3.132  13.422
24488SOL    HW175238   7.261   3.174  13.485
24488SOL    HW275239   7.285   3.157  13.337
24489SOL     OW75240   2.183  11.646  12.313
24489SOL    HW175241   2.239  11.692  12.375
24489SOL    HW275242   2.146  11.574  12.364
24490SOL     OW75243   4.056  12.039   0.488
24490SOL    HW175244   4.091  12.128   0.493
24490SOL    HW275245   4.012  12.035   0.403
24491SOL     OW75246   4.695   5.462   6.566
24491SOL    HW175247   4.614   5.509   6.546
24491SOL    HW275248   4.764   5.529   6.561
24492SOL     OW75249   6.287   9.313   7.720
24492SOL    HW175250   6.315   9.271   7.802
24492SOL    HW275251   6.333   9.264   7.652
24493SOL     OW75252   6.514   3.823  11.685
24493SOL    HW175253   6.558   3.894  11.638
24493SOL    HW275254   6.528   3.842  11.778
24494SOL     OW75255   0.140   3.185  12.952
24494SOL    HW175256   0.146   3.200  12.858
24494SOL    HW275257   0.074   3.247  12.982
24495SOL     OW75258   2.148  14.360  11.561
24495SOL    HW175259   2.195  14.367  11.644
24495SOL    HW275260   2.178  14.277  11.524
24496SOL     OW75261  10.331   8.822   5.376
24496SOL    HW175262  10.308   8.903   5.421
24496SOL    HW275263  10.338   8.847   5.284
24497SOL     OW75264   8.066   1.241   4.935
24497SOL    HW175265   8.040   1.186   4.861
24497SOL    HW275266   8.067   1.330   4.899
24498SOL     OW75267  13.638   3.838  13.927
24498SOL    HW175268  13.632   3.870  13.837
24498SOL    HW275269  13.561   3.875  13.970
24499SOL     OW75270  12.077  14.400   6.092
24499SOL    HW175271  12.058  14.343   6.018
24499SOL    HW275272  12.123  14.475   6.054
24500SOL     OW75273   6.037  11.911   6.057
24500SOL    HW175274   6.103  11.976   6.083
24500SOL    HW275275   6.009  11.872   6.140
24501SOL     OW75276   6.863   2.038   8.070
24501SOL    HW175277   6.945   2.003   8.106
24501SOL    HW275278   6.814   1.960   8.042
24502SOL     OW75279   5.190   6.502   2.796
24502SOL    HW175280   5.152   6.499   2.708
24502SOL    HW275281   5.142   6.436   2.846
24503SOL     OW75282  11.461  13.508   5.881
24503SOL    HW175283  11.486  13.599   5.863
24503SOL    HW275284  11.425  13.476   5.798
24504SOL     OW75285   1.895   7.369   5.970
24504SOL    HW175286   1.890   7.381   6.065
24504SOL    HW275287   1.979   7.407   5.945
24505SOL     OW75288  11.800   7.796  12.587
24505SOL    HW175289  11.846   7.783  12.504
24505SOL    HW275290  11.852   7.748  12.652
24506SOL     OW75291   6.754   8.259   6.992
24506SOL    HW175292   6.774   8.170   6.964
24506SOL    HW275293   6.823   8.313   6.954
24507SOL     OW75294   4.687   4.380   7.599
24507SOL    HW175295   4.661   4.423   7.681
24507SOL    HW275296   4.621   4.407   7.536
24508SOL     OW75297  10.246  14.787  11.065
24508SOL    HW175298  10.302  14.862  11.082
24508SOL    HW275299  10.273  14.721  11.129
24509SOL     OW75300  14.164   2.848   1.077
24509SOL    HW175301  14.176   2.895   0.995
24509SOL    HW275302  14.098   2.899   1.125
24510SOL     OW75303  11.743  11.466   9.004
24510SOL    HW175304  11.685  11.392   8.988
24510SOL    HW275305  11.736  11.520   8.926
24511SOL     OW75306   4.086   5.867   6.912
24511SOL    HW175307   4.120   5.928   6.847
24511SOL    HW275308   3.999   5.843   6.880
24512SOL     OW75309   4.939   3.696   5.270
24512SOL    HW175310   4.913   3.771   5.217
24512SOL    HW275311   5.005   3.730   5.330
24513SOL     OW75312  14.231   8.366   0.402
24513SOL    HW175313  14.181   8.404   0.474
24513SOL    HW275314  14.184   8.392   0.323
24514SOL     OW75315  12.596   9.309   9.181
24514SOL    HW175316  12.537   9.237   9.203
24514SOL    HW275317  12.619   9.293   9.089
24515SOL     OW75318   4.116   2.505   3.548
24515SOL    HW175319   4.104   2.600   3.558
24515SOL    HW275320   4.207   2.496   3.521
24516SOL     OW75321  11.725   4.456   7.502
24516SOL    HW175322  11.677   4.379   7.532
24516SOL    HW275323  11.778   4.424   7.429
24517SOL     OW75324   1.184  12.777   3.435
24517SOL    HW175325   1.112  12.818   3.482
24517SOL    HW275326   1.254  12.770   3.500
24518SOL     OW75327   6.636  14.560  12.209
24518SOL    HW175328   6.646  14.483  12.153
24518SOL    HW275329   6.690  14.627  12.167
24519SOL     OW75330   1.905   1.196   1.495
24519SOL    HW175331   1.834   1.202   1.558
24519SOL    HW275332   1.872   1.241   1.417
24520SOL     OW75333   9.887  14.218   0.878
24520SOL    HW175334   9.804  14.200   0.922
24520SOL    HW275335   9.876  14.184   0.789
24521SOL     OW75336   3.613  10.464   7.115
24521SOL    HW175337   3.690  10.422   7.153
24521SOL    HW275338   3.556  10.391   7.090
24522SOL     OW75339   2.698   5.731  12.726
24522SOL    HW175340   2.661   5.717  12.639
24522SOL    HW275341   2.628   5.773  12.776
24523SOL     OW75342  10.156  13.757   0.379
24523SOL    HW175343  10.133  13.845   0.411
24523SOL    HW275344  10.092  13.740   0.310
24524SOL     OW75345   5.450  14.270   7.840
24524SOL    HW175346   5.447  14.247   7.933
24524SOL    HW275347   5.461  14.186   7.795
24525SOL     OW75348   6.738   0.183   3.382
24525SOL    HW175349   6.663   0.185   3.441
24525SOL    HW275350   6.700   0.199   3.295
24526SOL     OW75351   5.663   2.063  14.452
24526SOL    HW175352   5.748   2.020  14.455
24526SOL    HW275353   5.631   2.045  14.363
24527SOL     OW75354  12.591   8.363   0.263
24527SOL    HW175355  12.651   8.295   0.232
24527SOL    HW275356  12.543   8.390   0.185
24528SOL     OW75357   2.805   4.901   7.468
24528SOL    HW175358   2.851   4.833   7.516
24528SOL    HW275359   2.829   4.887   7.376
24529SOL     OW75360   8.165   8.739   5.258
24529SOL    HW175361   8.217   8.806   5.302
24529SOL    HW275362   8.186   8.750   5.165
24530SOL     OW75363   3.796   9.300  13.973
24530SOL    HW175364   3.801   9.394  13.955
24530SOL    HW275365   3.753   9.295  14.059
24531SOL     OW75366   2.096   7.101  12.616
24531SOL    HW175367   2.147   7.078  12.539
24531SOL    HW275368   2.133   7.183  12.646
24532SOL     OW75369  13.085  12.769   9.348
24532SOL    HW175370  13.073  12.752   9.255
24532SOL    HW275371  13.080  12.683   9.389
24533SOL     OW75372  11.000   9.830   8.419
24533SOL    HW175373  10.985   9.923   8.436
24533SOL    HW275374  11.094   9.818   8.430
24534SOL     OW75375  13.616   2.396   1.687
24534SOL    HW175376  13.590   2.306   1.710
24534SOL    HW275377  13.550   2.451   1.729
24535SOL     OW75378   9.821  13.067   8.756
24535SOL    HW175379   9.827  12.972   8.758
24535SOL    HW275380   9.741  13.085   8.707
24536SOL     OW75381  11.008   9.877  11.022
24536SOL    HW175382  11.005   9.857  11.116
24536SOL    HW275383  10.953   9.955  11.012
24537SOL     OW75384   8.235   3.254  10.285
24537SOL    HW175385   8.192   3.340  10.294
24537SOL    HW275386   8.303   3.255  10.353
24538SOL     OW75387   3.223  13.271  10.275
24538SOL    HW175388   3.294  13.331  10.251
24538SOL    HW275389   3.178  13.254  10.192
24539SOL     OW75390   6.795   8.981   3.683
24539SOL    HW175391   6.832   9.066   3.707
24539SOL    HW275392   6.771   8.941   3.767
24540SOL     OW75393   8.471   7.879  11.133
24540SOL    HW175394   8.412   7.894  11.059
24540SOL    HW275395   8.464   7.959  11.185
24541SOL     OW75396   7.807   7.830  14.665
24541SOL    HW175397   7.877   7.819  14.601
24541SOL    HW275398   7.780   7.921  14.656
24542SOL     OW75399  14.714   9.846  12.320
24542SOL    HW175400  14.773   9.904  12.368
24542SOL    HW275401  14.639   9.902  12.298
24543SOL     OW75402   8.428   7.157   5.648
24543SOL    HW175403   8.478   7.190   5.723
24543SOL    HW275404   8.429   7.062   5.659
24544SOL     OW75405   1.367  13.185   5.453
24544SOL    HW175406   1.441  13.244   5.436
24544SOL    HW275407   1.291  13.243   5.453
24545SOL     OW75408   3.525  13.350   5.582
24545SOL    HW175409   3.488  13.295   5.651
24545SOL    HW275410   3.571  13.419   5.629
24546SOL     OW75411  13.175   3.682   2.081
24546SOL    HW175412  13.220   3.744   2.024
24546SOL    HW275413  13.221   3.689   2.165
24547SOL     OW75414  10.649  11.571  11.347
24547SOL    HW175415  10.616  11.610  11.427
24547SOL    HW275416  10.597  11.610  11.277
24548SOL     OW75417   5.169  14.340   5.668
24548SOL    HW175418   5.155  14.279   5.596
24548SOL    HW275419   5.083  14.381   5.682
24549SOL     OW75420   3.768   2.091   5.116
24549SOL    HW175421   3.835   2.068   5.051
24549SOL    HW275422   3.819   2.117   5.193
24550SOL     OW75423   1.671  10.446  14.304
24550SOL    HW175424   1.741  10.475  14.362
24550SOL    HW275425   1.613  10.394  14.360
24551SOL     OW75426  13.452   2.805  12.085
24551SOL    HW175427  13.449   2.819  11.991
24551SOL    HW275428  13.492   2.719  12.095
24552SOL     OW75429   9.143   7.572  12.748
24552SOL    HW175430   9.132   7.630  12.823
24552SOL    HW275431   9.101   7.618  12.675
24553SOL     OW75432   9.374   8.617  11.323
24553SOL    HW175433   9.303   8.557  11.300
24553SOL    HW275434   9.442   8.600  11.257
24554SOL     OW75435  12.167   3.316   0.977
24554SOL    HW175436  12.106   3.256   1.021
24554SOL    HW275437  12.117   3.353   0.905
24555SOL     OW75438   2.086   3.455   0.538
24555SOL    HW175439   2.069   3.363   0.560
24555SOL    HW275440   2.005   3.500   0.563
24556SOL     OW75441   4.519   9.291  13.348
24556SOL    HW175442   4.539   9.259  13.436
24556SOL    HW275443   4.478   9.376  13.362
24557SOL     OW75444   4.096   8.113   5.591
24557SOL    HW175445   4.080   8.207   5.594
24557SOL    HW275446   4.183   8.105   5.552
24558SOL     OW75447  13.010   6.907   1.475
24558SOL    HW175448  12.926   6.916   1.430
24558SOL    HW275449  13.074   6.905   1.404
24559SOL     OW75450  11.153   6.779   6.450
24559SOL    HW175451  11.242   6.783   6.486
24559SOL    HW275452  11.098   6.815   6.520
24560SOL     OW75453   7.683   8.538  13.219
24560SOL    HW175454   7.685   8.610  13.156
24560SOL    HW275455   7.707   8.578  13.302
24561SOL     OW75456  12.958   8.068   4.809
24561SOL    HW175457  12.874   8.032   4.838
24561SOL    HW275458  12.961   8.156   4.847
24562SOL     OW75459  10.311   1.024   2.932
24562SOL    HW175460  10.294   0.936   2.966
24562SOL    HW275461  10.240   1.040   2.869
24563SOL     OW75462   3.902   7.938   6.077
24563SOL    HW175463   3.980   7.913   6.127
24563SOL    HW275464   3.935   7.995   6.008
24564SOL     OW75465   0.346  11.700   9.460
24564SOL    HW175466   0.312  11.679   9.547
24564SOL    HW275467   0.278  11.672   9.400
24565SOL     OW75468  14.792  11.704  10.402
24565SOL    HW175469  14.853  11.696  10.475
24565SOL    HW275470  14.713  11.742  10.440
24566SOL     OW75471   1.892  12.592   0.817
24566SOL    HW175472   1.954  12.521   0.832
24566SOL    HW275473   1.897  12.645   0.896
24567SOL     OW75474  12.912  14.686  10.701
24567SOL    HW175475  12.965  14.681  10.621
24567SOL    HW275476  12.945  14.764  10.747
24568SOL     OW75477   0.124   9.566   7.754
24568SOL    HW175478   0.076   9.648   7.742
24568SOL    HW275479   0.193   9.588   7.817
24569SOL     OW75480   3.316   0.573  12.690
24569SOL    HW175481   3.230   0.572  12.648
24569SOL    HW275482   3.325   0.485  12.728
24570SOL     OW75483   7.802  13.541  10.011
24570SOL    HW175484   7.784  13.576  10.098
24570SOL    HW275485   7.874  13.479  10.024
24571SOL     OW75486  14.513   9.560   2.486
24571SOL    HW175487  14.457   9.546   2.409
24571SOL    HW275488  14.538   9.652   2.480
24572SOL     OW75489   2.197  10.834   1.499
24572SOL    HW175490   2.217  10.899   1.432
24572SOL    HW275491   2.283  10.810   1.535
24573SOL     OW75492   4.583   2.387  14.179
24573SOL    HW175493   4.672   2.365  14.207
24573SOL    HW275494   4.570   2.338  14.098
24574SOL     OW75495   5.886   9.907   0.251
24574SOL    HW175496   5.976   9.882   0.268
24574SOL    HW275497   5.853   9.839   0.192
24575SOL     OW75498  13.967  11.709   5.936
24575SOL    HW175499  13.951  11.618   5.910
24575SOL    HW275500  13.937  11.714   6.027
24576SOL     OW75501  14.841   2.511   1.965
24576SOL    HW175502  14.859   2.485   2.055
24576SOL    HW275503  14.757   2.558   1.970
24577SOL     OW75504  10.842  11.575   4.894
24577SOL    HW175505  10.818  11.607   4.981
24577SOL    HW275506  10.925  11.530   4.908
24578SOL     OW75507   7.793   6.719  13.100
24578SOL    HW175508   7.846   6.641  13.080
24578SOL    HW275509   7.765   6.706  13.191
24579SOL     OW75510   4.452   3.240  14.307
24579SOL    HW175511   4.388   3.309  14.324
24579SOL    HW275512   4.506   3.237  14.386
24580SOL     OW75513  12.764  11.157  13.114
24580SOL    HW175514  12.780  11.111  13.197
24580SOL    HW275515  12.813  11.238  13.122
24581SOL     OW75516  11.992  14.658  10.753
24581SOL    HW175517  12.078  14.620  10.735
24581SOL    HW275518  11.939  14.585  10.785
24582SOL     OW75519   8.879   2.475   8.901
24582SOL    HW175520   8.933   2.552   8.922
24582SOL    HW275521   8.810   2.510   8.845
24583SOL     OW75522   4.900  10.136   9.366
24583SOL    HW175523   4.872  10.154   9.456
24583SOL    HW275524   4.923  10.043   9.367
24584SOL     OW75525   4.635  13.831   2.415
24584SOL    HW175526   4.699  13.834   2.344
24584SOL    HW275527   4.576  13.760   2.392
24585SOL     OW75528   5.379   2.050   5.477
24585SOL    HW175529   5.383   2.057   5.382
24585SOL    HW275530   5.466   2.076   5.507
24586SOL     OW75531   7.606  11.379  14.366
24586SOL    HW175532   7.550  11.444  14.323
24586SOL    HW275533   7.548  11.304  14.380
24587SOL     OW75534   4.889   6.973   9.931
24587SOL    HW175535   4.904   7.067   9.921
24587SOL    HW275536   4.796   6.966   9.953
24588SOL     OW75537   3.331   0.679  10.302
24588SOL    HW175538   3.407   0.670  10.360
24588SOL    HW275539   3.257   0.689  10.362
24589SOL     OW75540   5.544   7.470   0.999
24589SOL    HW175541   5.499   7.553   0.981
24589SOL    HW275542   5.593   7.486   1.079
24590SOL     OW75543   2.145   1.861   3.339
24590SOL    HW175544   2.128   1.940   3.390
24590SOL    HW275545   2.085   1.868   3.264
24591SOL     OW75546  13.099   1.827  10.065
24591SOL    HW175547  13.122   1.822   9.972
24591SOL    HW275548  13.175   1.790  10.111
24592SOL     OW75549   7.458   1.082   6.857
24592SOL    HW175550   7.427   1.120   6.939
24592SOL    HW275551   7.482   0.992   6.880
24593SOL     OW75552   6.383   2.468   1.091
24593SOL    HW175553   6.418   2.554   1.115
24593SOL    HW275554   6.325   2.444   1.163
24594SOL     OW75555   8.065  11.469   2.230
24594SOL    HW175556   8.136  11.534   2.239
24594SOL    HW275557   8.088  11.400   2.293
24595SOL     OW75558  11.962   1.779   7.189
24595SOL    HW175559  11.963   1.721   7.266
24595SOL    HW275560  11.874   1.818   7.190
24596SOL     OW75561   5.018  14.837   2.215
24596SOL    HW175562   5.070  14.766   2.252
24596SOL    HW275563   4.946  14.849   2.277
24597SOL     OW75564   6.060  12.396   7.787
24597SOL    HW175565   6.059  12.439   7.702
24597SOL    HW275566   6.138  12.430   7.831
24598SOL     OW75567  12.861   8.538   5.330
24598SOL    HW175568  12.938   8.564   5.279
24598SOL    HW275569  12.851   8.445   5.313
24599SOL     OW75570   5.570  14.790  14.253
24599SOL    HW175571   5.585  14.798  14.159
24599SOL    HW275572   5.651  14.750  14.286
24600SOL     OW75573  11.803  12.047  12.939
24600SOL    HW175574  11.843  11.988  12.875
24600SOL    HW275575  11.872  12.067  13.001
24601SOL     OW75576   5.980  14.333  11.393
24601SOL    HW175577   5.948  14.279  11.466
24601SOL    HW275578   5.927  14.413  11.397
24602SOL     OW75579  10.726  12.245   3.651
24602SOL    HW175580  10.728  12.340   3.651
24602SOL    HW275581  10.808  12.219   3.694
24603SOL     OW75582  14.492  10.234   5.012
24603SOL    HW175583  14.488  10.171   4.941
24603SOL    HW275584  14.478  10.319   4.970
24604SOL     OW75585  14.758   1.485   7.461
24604SOL    HW175586  14.679   1.537   7.448
24604SOL    HW275587  14.813   1.507   7.385
24605SOL     OW75588  13.779  14.776  14.489
24605SOL    HW175589  13.733  14.692  14.478
24605SOL    HW275590  13.726  14.824  14.553
24606SOL     OW75591  14.171  10.771   4.761
24606SOL    HW175592  14.159  10.677   4.752
24606SOL    HW275593  14.224  10.781   4.840
24607SOL     OW75594   6.881   6.790   2.799
24607SOL    HW175595   6.933   6.838   2.734
24607SOL    HW275596   6.865   6.853   2.869
24608SOL     OW75597   3.419  10.083  11.189
24608SOL    HW175598   3.336  10.060  11.148
24608SOL    HW275599   3.396  10.145  11.258
24609SOL     OW75600   1.701  14.430   5.410
24609SOL    HW175601   1.796  14.418   5.410
24609SOL    HW275602   1.666  14.348   5.443
24610SOL     OW75603   1.614   8.191  10.201
24610SOL    HW175604   1.579   8.250  10.135
24610SOL    HW275605   1.669   8.246  10.256
24611SOL     OW75606  11.618   2.759  13.428
24611SOL    HW175607  11.645   2.743  13.518
24611SOL    HW275608  11.686   2.817  13.393
24612SOL     OW75609   1.121  14.390  13.363
24612SOL    HW175610   1.205  14.376  13.407
24612SOL    HW275611   1.126  14.478  13.328
24613SOL     OW75612   7.923  14.476   2.290
24613SOL    HW175613   7.869  14.411   2.243
24613SOL    HW275614   7.907  14.558   2.243
24614SOL     OW75615   1.188   9.795   8.954
24614SOL    HW175616   1.258   9.751   8.906
24614SOL    HW275617   1.117   9.802   8.891
24615SOL     OW75618  10.030  11.630   1.795
24615SOL    HW175619   9.961  11.641   1.860
24615SOL    HW275620   9.997  11.563   1.735
24616SOL     OW75621   7.953   8.284  11.398
24616SOL    HW175622   7.869   8.281  11.443
24616SOL    HW275623   7.956   8.370  11.357
24617SOL     OW75624  13.287   2.193   0.947
24617SOL    HW175625  13.336   2.232   1.019
24617SOL    HW275626  13.203   2.168   0.986
24618SOL     OW75627  11.633  12.970   6.202
24618SOL    HW175628  11.590  12.888   6.179
24618SOL    HW275629  11.686  12.949   6.279
24619SOL     OW75630   9.429  14.476   2.290
24619SOL    HW175631   9.453  14.542   2.226
24619SOL    HW275632   9.511  14.458   2.337
24620SOL     OW75633   6.596   3.176   4.506
24620SOL    HW175634   6.604   3.117   4.580
24620SOL    HW275635   6.604   3.120   4.429
24621SOL     OW75636   9.909   5.972   2.178
24621SOL    HW175637   9.948   5.990   2.092
24621SOL    HW275638   9.977   5.997   2.240
24622SOL     OW75639   5.297   2.105  12.375
24622SOL    HW175640   5.321   2.013  12.373
24622SOL    HW275641   5.283   2.129  12.284
24623SOL     OW75642   1.437  14.349   0.306
24623SOL    HW175643   1.484  14.402   0.371
24623SOL    HW275644   1.396  14.279   0.357
24624SOL     OW75645  13.588   9.103   0.778
24624SOL    HW175646  13.527   9.033   0.755
24624SOL    HW275647  13.537   9.161   0.835
24625SOL     OW75648  11.590   0.931   2.202
24625SOL    HW175649  11.686   0.932   2.207
24625SOL    HW275650  11.566   0.842   2.226
24626SOL     OW75651   2.461   3.531  10.502
24626SOL    HW175652   2.411   3.613  10.498
24626SOL    HW275653   2.469   3.504  10.410
24627SOL     OW75654  10.049   9.546  10.090
24627SOL    HW175655  10.145   9.549  10.088
24627SOL    HW275656  10.023   9.638  10.091
24628SOL     OW75657   5.827  12.049  10.963
24628SOL    HW175658   5.820  11.955  10.947
24628SOL    HW275659   5.888  12.081  10.897
24629SOL     OW75660   0.141   1.230  12.329
24629SOL    HW175661   0.119   1.211  12.420
24629SOL    HW275662   0.120   1.149  12.282
24630SOL     OW75663  12.895   9.440   8.700
24630SOL    HW175664  12.940   9.360   8.672
24630SOL    HW275665  12.802   9.423   8.683
24631SOL     OW75666   9.926   7.653   5.146
24631SOL    HW175667   9.841   7.624   5.112
24631SOL    HW275668   9.922   7.749   5.140
24632SOL     OW75669  14.278   5.790  12.646
24632SOL    HW175670  14.222   5.864  12.671
24632SOL    HW275671  14.345   5.829  12.590
24633SOL     OW75672   0.705   5.749   9.408
24633SOL    HW175673   0.610   5.739   9.401
24633SOL    HW275674   0.718   5.844   9.419
24634SOL     OW75675   1.774   2.824  12.438
24634SOL    HW175676   1.717   2.846  12.365
24634SOL    HW275677   1.855   2.792  12.398
24635SOL     OW75678  14.651   8.683   3.895
24635SOL    HW175679  14.730   8.696   3.948
24635SOL    HW275680  14.604   8.612   3.938
24636SOL     OW75681   3.506   0.349   2.552
24636SOL    HW175682   3.585   0.316   2.595
24636SOL    HW275683   3.523   0.337   2.458
24637SOL     OW75684   6.441   0.665   5.585
24637SOL    HW175685   6.473   0.725   5.652
24637SOL    HW275686   6.389   0.720   5.527
24638SOL     OW75687  13.702   1.434  11.855
24638SOL    HW175688  13.750   1.370  11.908
24638SOL    HW275689  13.626   1.457  11.908
24639SOL     OW75690   7.035  11.493   5.087
24639SOL    HW175691   7.082  11.564   5.045
24639SOL    HW275692   7.019  11.430   5.017
24640SOL     OW75693  10.173   4.602   6.138
24640SOL    HW175694  10.147   4.655   6.063
24640SOL    HW275695  10.268   4.592   6.129
24641SOL     OW75696   5.454  14.870   4.272
24641SOL    HW175697   5.390  14.830   4.331
24641SOL    HW275698   5.430  14.836   4.185
24642SOL     OW75699   2.026   1.794   8.504
24642SOL    HW175700   2.044   1.769   8.594
24642SOL    HW275701   2.028   1.712   8.455
24643SOL     OW75702   7.410   9.211  12.177
24643SOL    HW175703   7.346   9.162  12.125
24643SOL    HW275704   7.406   9.300  12.143
24644SOL     OW75705   1.397  11.224   8.363
24644SOL    HW175706   1.467  11.241   8.300
24644SOL    HW275707   1.389  11.306   8.412
24645SOL     OW75708   6.470  12.957   2.060
24645SOL    HW175709   6.562  12.959   2.035
24645SOL    HW275710   6.433  12.884   2.011
24646SOL     OW75711  14.867   3.629   9.063
24646SOL    HW175712  14.855   3.691   8.991
24646SOL    HW275713   0.039   3.557   9.024
24647SOL     OW75714   4.339   8.091   3.010
24647SOL    HW175715   4.248   8.080   3.035
24647SOL    HW275716   4.357   8.019   2.950
24648SOL     OW75717   4.335   8.773   6.031
24648SOL    HW175718   4.243   8.789   6.012
24648SOL    HW275719   4.335   8.739   6.120
24649SOL     OW75720   4.156   6.602  13.298
24649SOL    HW175721   4.106   6.537  13.347
24649SOL    HW275722   4.090   6.666  13.269
24650SOL     OW75723   5.215   0.006   9.629
24650SOL    HW175724   5.154  14.842   9.568
24650SOL    HW275725   5.159   0.049   9.693
24651SOL     OW75726   1.947   1.719  13.525
24651SOL    HW175727   2.022   1.674  13.563
24651SOL    HW275728   1.876   1.655  13.528
24652SOL     OW75729   5.691  11.146   6.538
24652SOL    HW175730   5.746  11.070   6.519
24652SOL    HW275731   5.738  11.193   6.607
24653SOL     OW75732   6.209   1.124  12.677
24653SOL    HW175733   6.172   1.193  12.622
24653SOL    HW275734   6.197   1.156  12.767
24654SOL     OW75735   5.493   6.021   7.708
24654SOL    HW175736   5.547   6.083   7.756
24654SOL    HW275737   5.532   5.935   7.727
24655SOL     OW75738  11.926   9.544   8.462
24655SOL    HW175739  12.015   9.568   8.491
24655SOL    HW275740  11.869   9.599   8.514
24656SOL     OW75741   5.583  14.455  13.878
24656SOL    HW175742   5.521  14.383  13.868
24656SOL    HW275743   5.538  14.530  13.839
24657SOL     OW75744   2.136   2.387  13.005
24657SOL    HW175745   2.103   2.332  13.076
24657SOL    HW275746   2.195   2.449  13.048
24658SOL     OW75747  11.107  12.717   0.227
24658SOL    HW175748  11.081  12.679   0.311
24658SOL    HW275749  11.126  12.642   0.171
24659SOL     OW75750  11.556  14.005  12.776
24659SOL    HW175751  11.520  13.938  12.835
24659SOL    HW275752  11.555  13.964  12.690
24660SOL     OW75753  10.859  10.320   9.003
24660SOL    HW175754  10.831  10.236   9.038
24660SOL    HW275755  10.790  10.381   9.028
24661SOL     OW75756   8.528  14.824   9.301
24661SOL    HW175757   8.574  14.873   9.370
24661SOL    HW275758   8.594  14.813   9.232
24662SOL     OW75759   6.759   9.625   5.687
24662SOL    HW175760   6.768   9.582   5.772
24662SOL    HW275761   6.683   9.682   5.697
24663SOL     OW75762  11.057   7.120   9.292
24663SOL    HW175763  11.087   7.149   9.378
24663SOL    HW275764  10.989   7.183   9.268
24664SOL     OW75765  12.430   7.519   8.547
24664SOL    HW175766  12.420   7.588   8.612
24664SOL    HW275767  12.392   7.442   8.588
24665SOL     OW75768   3.314   4.253   0.702
24665SOL    HW175769   3.277   4.312   0.767
24665SOL    HW275770   3.278   4.167   0.724
24666SOL     OW75771   3.251   3.269   4.052
24666SOL    HW175772   3.208   3.213   4.117
24666SOL    HW275773   3.221   3.236   3.968
24667SOL     OW75774   6.236  11.400   2.891
24667SOL    HW175775   6.303  11.406   2.959
24667SOL    HW275776   6.264  11.326   2.837
24668SOL     OW75777   7.118  14.555   9.201
24668SOL    HW175778   7.067  14.586   9.275
24668SOL    HW275779   7.167  14.480   9.235
24669SOL     OW75780  13.681  10.951   2.694
24669SOL    HW175781  13.753  11.009   2.719
24669SOL    HW275782  13.607  11.009   2.679
24670SOL     OW75783   1.127  12.237   2.551
24670SOL    HW175784   1.128  12.197   2.464
24670SOL    HW275785   1.199  12.299   2.549
24671SOL     OW75786   0.769   4.396  13.557
24671SOL    HW175787   0.685   4.420  13.595
24671SOL    HW275788   0.798   4.321  13.608
24672SOL     OW75789   8.149  12.621  14.756
24672SOL    HW175790   8.160  12.716  14.746
24672SOL    HW275791   8.061  12.611  14.791
24673SOL     OW75792  13.390  13.384  12.747
24673SOL    HW175793  13.362  13.475  12.741
24673SOL    HW275794  13.422  13.375  12.837
24674SOL     OW75795   9.090  11.777   6.912
24674SOL    HW175796   9.063  11.867   6.891
24674SOL    HW275797   9.088  11.774   7.007
24675SOL     OW75798   4.411   4.319  10.553
24675SOL    HW175799   4.462   4.257  10.501
24675SOL    HW275800   4.321   4.309  10.521
24676SOL     OW75801   4.692   2.151   8.306
24676SOL    HW175802   4.781   2.129   8.331
24676SOL    HW275803   4.638   2.114   8.375
24677SOL     OW75804   9.870   7.362   1.861
24677SOL    HW175805   9.873   7.342   1.955
24677SOL    HW275806   9.950   7.412   1.845
24678SOL     OW75807   9.813   0.143   5.139
24678SOL    HW175808   9.762   0.109   5.066
24678SOL    HW275809   9.899   0.163   5.102
24679SOL     OW75810  11.968   3.845  13.170
24679SOL    HW175811  12.056   3.870  13.143
24679SOL    HW275812  11.926   3.928  13.193
24680SOL     OW75813   0.669   2.271   8.492
24680SOL    HW175814   0.670   2.351   8.544
24680SOL    HW275815   0.593   2.222   8.524
24681SOL     OW75816   3.955   4.885   6.483
24681SOL    HW175817   3.918   4.810   6.437
24681SOL    HW275818   4.038   4.854   6.518
24682SOL     OW75819  12.058  10.922   5.155
24682SOL    HW175820  12.025  11.012   5.145
24682SOL    HW275821  12.152  10.929   5.143
24683SOL     OW75822  11.493   7.930  10.631
24683SOL    HW175823  11.558   7.922  10.701
24683SOL    HW275824  11.412   7.897  10.671
24684SOL     OW75825  13.791  14.052   6.192
24684SOL    HW175826  13.837  13.971   6.168
24684SOL    HW275827  13.766  14.038   6.284
24685SOL     OW75828   1.969  14.177   4.193
24685SOL    HW175829   1.914  14.181   4.115
24685SOL    HW275830   2.047  14.228   4.171
24686SOL     OW75831  10.112   1.029  14.341
24686SOL    HW175832  10.186   1.048  14.283
24686SOL    HW275833  10.097   0.935  14.331
24687SOL     OW75834   1.285   3.361  10.632
24687SOL    HW175835   1.241   3.301  10.571
24687SOL    HW275836   1.337   3.304  10.688
24688SOL     OW75837  12.011   9.447   7.352
24688SOL    HW175838  12.070   9.374   7.336
24688SOL    HW275839  11.964   9.459   7.269
24689SOL     OW75840   7.280   7.876   4.659
24689SOL    HW175841   7.234   7.954   4.690
24689SOL    HW275842   7.335   7.850   4.733
24690SOL     OW75843   1.605  11.777   2.515
24690SOL    HW175844   1.701  11.788   2.515
24690SOL    HW275845   1.571  11.865   2.499
24691SOL     OW75846  13.234   7.421   0.585
24691SOL    HW175847  13.309   7.396   0.640
24691SOL    HW275848  13.181   7.477   0.642
24692SOL     OW75849  14.686   4.606  12.015
24692SOL    HW175850  14.760   4.559  11.977
24692SOL    HW275851  14.708   4.699  12.002
24693SOL     OW75852   5.115   7.308   4.233
24693SOL    HW175853   5.093   7.310   4.326
24693SOL    HW275854   5.210   7.301   4.230
24694SOL     OW75855  10.143  12.719  14.874
24694SOL    HW175856  10.147  12.636  14.825
24694SOL    HW275857  10.230  12.728   0.033
24695SOL     OW75858   0.131   3.474   8.132
24695SOL    HW175859   0.167   3.505   8.215
24695SOL    HW275860   0.175   3.390   8.117
24696SOL     OW75861  11.351  11.296   7.478
24696SOL    HW175862  11.284  11.280   7.412
24696SOL    HW275863  11.313  11.262   7.559
24697SOL     OW75864   3.880  11.528   8.019
24697SOL    HW175865   3.805  11.478   7.988
24697SOL    HW275866   3.857  11.619   8.002
24698SOL     OW75867  12.917   6.833   2.831
24698SOL    HW175868  12.907   6.830   2.736
24698SOL    HW275869  12.848   6.893   2.860
24699SOL     OW75870   2.223   3.462   6.975
24699SOL    HW175871   2.142   3.507   6.951
24699SOL    HW275872   2.286   3.488   6.908
24700SOL     OW75873  11.756   9.958   7.913
24700SOL    HW175874  11.792   9.871   7.900
24700SOL    HW275875  11.721   9.957   8.002
24701SOL     OW75876   8.406  12.328   0.159
24701SOL    HW175877   8.477  12.388   0.137
24701SOL    HW275878   8.344  12.336   0.087
24702SOL     OW75879  11.805   5.787   0.783
24702SOL    HW175880  11.832   5.725   0.850
24702SOL    HW275881  11.867   5.773   0.711
24703SOL     OW75882  12.461  14.373   8.685
24703SOL    HW175883  12.551  14.379   8.716
24703SOL    HW275884  12.408  14.403   8.759
24704SOL     OW75885  11.818   7.673  13.985
24704SOL    HW175886  11.748   7.658  14.048
24704SOL    HW275887  11.898   7.675  14.037
24705SOL     OW75888  14.528   2.023   1.411
24705SOL    HW175889  14.591   2.074   1.461
24705SOL    HW275890  14.476   1.978   1.477
24706SOL     OW75891  13.046   7.393   4.603
24706SOL    HW175892  13.093   7.341   4.669
24706SOL    HW275893  12.975   7.335   4.573
24707SOL     OW75894   3.895  11.217  12.502
24707SOL    HW175895   3.833  11.235  12.431
24707SOL    HW275896   3.901  11.121  12.505
24708SOL     OW75897   9.864  12.939   7.762
24708SOL    HW175898   9.912  12.946   7.680
24708SOL    HW275899   9.908  12.869   7.810
24709SOL     OW75900   3.193   9.508   1.395
24709SOL    HW175901   3.157   9.422   1.418
24709SOL    HW275902   3.260   9.524   1.461
24710SOL     OW75903   4.775   8.401   8.554
24710SOL    HW175904   4.860   8.364   8.530
24710SOL    HW275905   4.797   8.482   8.601
24711SOL     OW75906   4.031  14.516  11.028
24711SOL    HW175907   4.099  14.548  10.968
24711SOL    HW275908   4.039  14.421  11.026
24712SOL     OW75909  13.059   6.417   5.748
24712SOL    HW175910  12.998   6.477   5.793
24712SOL    HW275911  13.131   6.406   5.809
24713SOL     OW75912   5.364   6.486  10.184
24713SOL    HW175913   5.280   6.528  10.202
24713SOL    HW275914   5.428   6.557  10.188
24714SOL     OW75915  12.532   6.670   1.412
24714SOL    HW175916  12.544   6.756   1.452
24714SOL    HW275917  12.508   6.689   1.321
24715SOL     OW75918   1.125   9.848   7.433
24715SOL    HW175919   1.181   9.805   7.368
24715SOL    HW275920   1.160   9.818   7.518
24716SOL     OW75921  13.464  12.722   6.672
24716SOL    HW175922  13.454  12.781   6.747
24716SOL    HW275923  13.412  12.645   6.695
24717SOL     OW75924  10.068  10.404   3.130
24717SOL    HW175925  10.033  10.468   3.192
24717SOL    HW275926  10.004  10.333   3.131
24718SOL     OW75927  13.130  13.500   3.741
24718SOL    HW175928  13.123  13.592   3.714
24718SOL    HW275929  13.045  13.462   3.719
24719SOL     OW75930   3.194   6.358   1.679
24719SOL    HW175931   3.246   6.413   1.738
24719SOL    HW275932   3.240   6.363   1.595
24720SOL     OW75933  14.543   2.976   9.510
24720SOL    HW175934  14.606   3.002   9.577
24720SOL    HW275935  14.492   2.906   9.552
24721SOL     OW75936  14.121   6.403   2.202
24721SOL    HW175937  14.212   6.383   2.182
24721SOL    HW275938  14.111   6.382   2.295
24722SOL     OW75939  12.900   0.892   9.640
24722SOL    HW175940  12.874   0.812   9.685
24722SOL    HW275941  12.995   0.885   9.631
24723SOL     OW75942  10.372  13.277   9.415
24723SOL    HW175943  10.337  13.334   9.347
24723SOL    HW275944  10.424  13.334   9.471
24724SOL     OW75945   1.423  14.068   9.261
24724SOL    HW175946   1.463  14.018   9.190
24724SOL    HW275947   1.330  14.072   9.238
24725SOL     OW75948   5.248  11.798   5.946
24725SOL    HW175949   5.166  11.763   5.911
24725SOL    HW275950   5.270  11.871   5.888
24726SOL     OW75951   6.724   4.804  13.135
24726SOL    HW175952   6.772   4.850  13.204
24726SOL    HW275953   6.780   4.810  13.058
24727SOL     OW75954   3.800   2.522   6.828
24727SOL    HW175955   3.844   2.447   6.867
24727SOL    HW275956   3.824   2.519   6.736
24728SOL     OW75957  12.748  11.771   4.698
24728SOL    HW175958  12.820  11.820   4.739
24728SOL    HW275959  12.737  11.813   4.613
24729SOL     OW75960  10.015   7.639   2.985
24729SOL    HW175961   9.941   7.631   3.045
24729SOL    HW275962  10.028   7.734   2.976
24730SOL     OW75963   5.313  13.288   2.454
24730SOL    HW175964   5.391  13.233   2.451
24730SOL    HW275965   5.253  13.242   2.513
24731SOL     OW75966  10.092  13.765   7.494
24731SOL    HW175967  10.023  13.704   7.518
24731SOL    HW275968  10.059  13.810   7.416
24732SOL     OW75969   2.030  11.964   4.839
24732SOL    HW175970   1.962  11.899   4.853
24732SOL    HW275971   2.108  11.914   4.817
24733SOL     OW75972   6.980  10.475   3.150
24733SOL    HW175973   6.940  10.546   3.102
24733SOL    HW275974   6.929  10.397   3.127
24734SOL     OW75975   1.694   1.248   5.879
24734SOL    HW175976   1.629   1.290   5.935
24734SOL    HW275977   1.647   1.175   5.838
24735SOL     OW75978   9.643  14.356   1.241
24735SOL    HW175979   9.658  14.289   1.174
24735SOL    HW275980   9.707  14.424   1.221
24736SOL     OW75981   4.534   6.021  12.199
24736SOL    HW175982   4.590   5.955  12.240
24736SOL    HW275983   4.531   5.995  12.107
24737SOL     OW75984   4.715  13.686   4.526
24737SOL    HW175985   4.770  13.672   4.602
24737SOL    HW275986   4.742  13.772   4.492
24738SOL     OW75987   6.350   0.593   7.301
24738SOL    HW175988   6.351   0.632   7.388
24738SOL    HW275989   6.307   0.508   7.313
24739SOL     OW75990  12.346  14.020   6.396
24739SOL    HW175991  12.275  14.075   6.360
24739SOL    HW275992  12.364  14.057   6.482
24740SOL     OW75993   4.466  13.340  11.550
24740SOL    HW175994   4.454  13.305  11.462
24740SOL    HW275995   4.508  13.269  11.598
24741SOL     OW75996  10.883   2.820  13.176
24741SOL    HW175997  10.916   2.833  13.265
24741SOL    HW275998  10.820   2.748  13.184
24742SOL     OW75999   0.548   9.577  10.375
24742SOL    HW176000   0.528   9.590  10.283
24742SOL    HW276001   0.463   9.562  10.417
24743SOL     OW76002  12.048   4.965   5.437
24743SOL    HW176003  12.055   5.031   5.506
24743SOL    HW276004  11.954   4.959   5.419
24744SOL     OW76005  14.216   8.487   4.264
24744SOL    HW176006  14.171   8.423   4.320
24744SOL    HW276007  14.236   8.560   4.323
24745SOL     OW76008  11.113   6.320   1.180
24745SOL    HW176009  11.172   6.363   1.242
24745SOL    HW276010  11.164   6.247   1.146
24746SOL     OW76011   7.866   9.797   8.959
24746SOL    HW176012   7.877   9.791   9.053
24746SOL    HW276013   7.802   9.729   8.937
24747SOL     OW76014  10.520  13.813   2.476
24747SOL    HW176015  10.507  13.824   2.570
24747SOL    HW276016  10.467  13.882   2.436
24748SOL     OW76017   1.762   4.545   9.104
24748SOL    HW176018   1.797   4.624   9.145
24748SOL    HW276019   1.805   4.540   9.019
24749SOL     OW76020   7.706   8.864  11.940
24749SOL    HW176021   7.660   8.807  12.002
24749SOL    HW276022   7.727   8.807  11.866
24750SOL     OW76023  12.844   9.908  13.144
24750SOL    HW176024  12.830   9.902  13.238
24750SOL    HW276025  12.757   9.898  13.106
24751SOL     OW76026   3.154   8.033   9.972
24751SOL    HW176027   3.123   7.960  10.026
24751SOL    HW276028   3.075   8.070   9.933
24752SOL     OW76029   6.343  12.358   8.283
24752SOL    HW176030   6.428  12.382   8.247
24752SOL    HW276031   6.290  12.437   8.275
24753SOL     OW76032   0.202   3.608   8.705
24753SOL    HW176033   0.173   3.659   8.629
24753SOL    HW276034   0.233   3.673   8.767
24754SOL     OW76035  11.390   7.693   7.517
24754SOL    HW176036  11.387   7.683   7.422
24754SOL    HW276037  11.306   7.733   7.540
24755SOL     OW76038   6.499   5.909  11.521
24755SOL    HW176039   6.521   5.931  11.612
24755SOL    HW276040   6.484   5.815  11.522
24756SOL     OW76041   2.803  11.142  11.366
24756SOL    HW176042   2.718  11.148  11.409
24756SOL    HW276043   2.858  11.206  11.412
24757SOL     OW76044  12.461   6.685  12.993
24757SOL    HW176045  12.378   6.655  13.027
24757SOL    HW276046  12.492   6.749  13.057
24758SOL     OW76047   9.547  13.803   2.642
24758SOL    HW176048   9.579  13.784   2.554
24758SOL    HW276049   9.610  13.760   2.700
24759SOL     OW76050   6.032  14.585   0.319
24759SOL    HW176051   5.980  14.518   0.273
24759SOL    HW276052   6.007  14.667   0.277
24760SOL     OW76053   3.460  13.612   2.158
24760SOL    HW176054   3.386  13.586   2.104
24760SOL    HW276055   3.424  13.626   2.246
24761SOL     OW76056  13.712   4.948   1.452
24761SOL    HW176057  13.647   4.968   1.520
24761SOL    HW276058  13.698   4.856   1.432
24762SOL     OW76059   5.737   3.572  11.100
24762SOL    HW176060   5.810   3.619  11.141
24762SOL    HW276061   5.702   3.517  11.171
24763SOL     OW76062   2.886  14.008   9.584
24763SOL    HW176063   2.894  13.925   9.538
24763SOL    HW276064   2.929  13.992   9.669
24764SOL     OW76065   5.585  10.939   7.010
24764SOL    HW176066   5.546  10.860   6.974
24764SOL    HW276067   5.615  10.914   7.098
24765SOL     OW76068  12.145   0.229   8.170
24765SOL    HW176069  12.160   0.159   8.234
24765SOL    HW276070  12.205   0.209   8.098
24766SOL     OW76071   7.155   6.169   9.918
24766SOL    HW176072   7.187   6.223   9.991
24766SOL    HW276073   7.122   6.090   9.959
24767SOL     OW76074   4.378   8.410   9.835
24767SOL    HW176075   4.293   8.454   9.829
24767SOL    HW276076   4.440   8.473   9.797
24768SOL     OW76077  14.736   0.722   1.219
24768SOL    HW176078  14.657   0.746   1.171
24768SOL    HW276079  14.793   0.798   1.212
24769SOL     OW76080   3.839   7.513  13.398
24769SOL    HW176081   3.846   7.438  13.457
24769SOL    HW276082   3.778   7.485  13.330
24770SOL     OW76083   8.077  11.023   1.868
24770SOL    HW176084   8.046  10.977   1.946
24770SOL    HW276085   8.011  11.003   1.801
24771SOL     OW76086   2.154   7.498   9.166
24771SOL    HW176087   2.095   7.562   9.207
24771SOL    HW276088   2.162   7.428   9.231
24772SOL     OW76089   3.510   6.938   8.463
24772SOL    HW176090   3.473   6.996   8.396
24772SOL    HW276091   3.595   6.977   8.483
24773SOL     OW76092   3.972   7.765   8.612
24773SOL    HW176093   3.952   7.842   8.560
24773SOL    HW276094   3.917   7.696   8.576
24774SOL     OW76095  12.341  14.421   3.652
24774SOL    HW176096  12.327  14.329   3.675
24774SOL    HW276097  12.255  14.450   3.620
24775SOL     OW76098   1.287  13.224   3.313
24775SOL    HW176099   1.346  13.300   3.315
24775SOL    HW276100   1.329  13.159   3.370
24776SOL     OW76101  13.111   4.535   2.164
24776SOL    HW176102  13.151   4.552   2.079
24776SOL    HW276103  13.096   4.621   2.202
24777SOL     OW76104   5.692   8.929  14.465
24777SOL    HW176105   5.680   8.866  14.394
24777SOL    HW276106   5.604   8.965  14.480
24778SOL     OW76107   5.057  10.503   1.853
24778SOL    HW176108   5.026  10.594   1.854
24778SOL    HW276109   5.072  10.482   1.945
24779SOL     OW76110   7.199   3.250   0.147
24779SOL    HW176111   7.127   3.267   0.086
24779SOL    HW276112   7.191   3.318   0.214
24780SOL     OW76113   2.796   1.039   4.929
24780SOL    HW176114   2.717   1.057   4.980
24780SOL    HW276115   2.797   0.944   4.920
24781SOL     OW76116   9.954  10.342   5.320
24781SOL    HW176117   9.947  10.436   5.301
24781SOL    HW276118  10.038  10.333   5.365
24782SOL     OW76119  10.669  13.862   0.819
24782SOL    HW176120  10.600  13.870   0.753
24782SOL    HW276121  10.623  13.831   0.897
24783SOL     OW76122   8.162  12.140   8.218
24783SOL    HW176123   8.089  12.081   8.201
24783SOL    HW276124   8.238  12.097   8.178
24784SOL     OW76125  11.788   8.269   8.632
24784SOL    HW176126  11.724   8.233   8.570
24784SOL    HW276127  11.816   8.350   8.591
24785SOL     OW76128   1.350   5.960   8.303
24785SOL    HW176129   1.399   5.922   8.230
24785SOL    HW276130   1.373   5.906   8.378
24786SOL     OW76131   1.400  10.418   2.033
24786SOL    HW176132   1.374  10.507   2.058
24786SOL    HW276133   1.371  10.410   1.942
24787SOL     OW76134   9.491   4.024   4.311
24787SOL    HW176135   9.432   3.948   4.318
24787SOL    HW276136   9.575   3.991   4.341
24788SOL     OW76137  11.043   6.344   2.173
24788SOL    HW176138  10.983   6.363   2.101
24788SOL    HW276139  11.118   6.301   2.131
24789SOL     OW76140   7.947  13.100  12.830
24789SOL    HW176141   8.008  13.145  12.771
24789SOL    HW276142   7.896  13.043  12.772
24790SOL     OW76143   2.195   7.698   7.072
24790SOL    HW176144   2.164   7.684   6.983
24790SOL    HW276145   2.133   7.650   7.127
24791SOL     OW76146  12.233   5.533   8.303
24791SOL    HW176147  12.286   5.466   8.260
24791SOL    HW276148  12.179   5.570   8.233
24792SOL     OW76149   0.151   2.709   1.036
24792SOL    HW176150   0.155   2.789   1.090
24792SOL    HW276151   0.062   2.709   1.000
24793SOL     OW76152  12.215   6.349  13.234
24793SOL    HW176153  12.267   6.270  13.247
24793SOL    HW276154  12.216   6.393  13.319
24794SOL     OW76155   8.864   6.312   8.947
24794SOL    HW176156   8.934   6.364   8.986
24794SOL    HW276157   8.814   6.375   8.895
24795SOL     OW76158   5.815   5.123   3.403
24795SOL    HW176159   5.723   5.131   3.381
24795SOL    HW276160   5.840   5.210   3.433
24796SOL     OW76161  11.092   5.488   6.842
24796SOL    HW176162  11.082   5.564   6.901
24796SOL    HW276163  11.170   5.508   6.790
24797SOL     OW76164   0.510  10.877  13.986
24797SOL    HW176165   0.537  10.968  14.000
24797SOL    HW276166   0.580  10.825  14.024
24798SOL     OW76167  12.163   7.350  14.766
24798SOL    HW176168  12.235   7.314  14.818
24798SOL    HW276169  12.089   7.293  14.785
24799SOL     OW76170  10.564   8.207   0.785
24799SOL    HW176171  10.580   8.208   0.691
24799SOL    HW276172  10.509   8.130   0.799
24800SOL     OW76173  11.544   1.887  12.988
24800SOL    HW176174  11.549   1.901  12.894
24800SOL    HW276175  11.558   1.793  12.999
24801SOL     OW76176   5.478   7.450  14.825
24801SOL    HW176177   5.535   7.516  14.785
24801SOL    HW276178   5.537   7.396  14.878
24802SOL     OW76179   1.796   8.454  11.357
24802SOL    HW176180   1.846   8.535  11.366
24802SOL    HW276181   1.730   8.474  11.290
24803SOL     OW76182   5.226  13.090  13.576
24803SOL    HW176183   5.277  13.034  13.518
24803SOL    HW276184   5.167  13.030  13.622
24804SOL     OW76185   4.827  13.483   3.420
24804SOL    HW176186   4.830  13.577   3.433
24804SOL    HW276187   4.746  13.468   3.371
24805SOL     OW76188  13.550  11.515   5.959
24805SOL    HW176189  13.575  11.605   5.937
24805SOL    HW276190  13.587  11.462   5.888
24806SOL     OW76191   0.129   6.847  11.637
24806SOL    HW176192   0.142   6.896  11.556
24806SOL    HW276193   0.120   6.756  11.609
24807SOL     OW76194  14.052   8.042  14.615
24807SOL    HW176195  14.046   8.120  14.558
24807SOL    HW276196  14.145   8.025  14.623
24808SOL     OW76197  13.571   4.222  13.183
24808SOL    HW176198  13.578   4.207  13.277
24808SOL    HW276199  13.492   4.175  13.156
24809SOL     OW76200   3.198   5.652  14.805
24809SOL    HW176201   3.201   5.648   0.022
24809SOL    HW276202   3.192   5.745  14.785
24810SOL     OW76203  11.755   6.188   0.619
24810SOL    HW176204  11.692   6.221   0.684
24810SOL    HW276205  11.746   6.093   0.623
24811SOL     OW76206   5.209  11.092   4.637
24811SOL    HW176207   5.156  11.130   4.567
24811SOL    HW276208   5.282  11.152   4.648
24812SOL     OW76209   9.172  10.823  14.659
24812SOL    HW176210   9.080  10.831  14.637
24812SOL    HW276211   9.202  10.913  14.673
24813SOL     OW76212   1.884  14.560  11.537
24813SOL    HW176213   1.885  14.475  11.582
24813SOL    HW276214   1.881  14.624  11.607
24814SOL     OW76215   7.425  12.361   1.151
24814SOL    HW176216   7.359  12.331   1.213
24814SOL    HW276217   7.377  12.377   1.070
24815SOL     OW76218   1.002  10.207   5.777
24815SOL    HW176219   1.037  10.255   5.852
24815SOL    HW276220   1.008  10.115   5.803
24816SOL     OW76221   6.057  13.747  12.975
24816SOL    HW176222   5.986  13.794  13.019
24816SOL    HW276223   6.119  13.816  12.951
24817SOL     OW76224  10.784   2.093  11.616
24817SOL    HW176225  10.832   2.080  11.698
24817SOL    HW276226  10.795   2.011  11.568
24818SOL     OW76227   1.980   4.546   0.408
24818SOL    HW176228   2.030   4.468   0.383
24818SOL    HW276229   1.960   4.533   0.501
24819SOL     OW76230   0.263  14.557  10.852
24819SOL    HW176231   0.235  14.514  10.772
24819SOL    HW276232   0.355  14.578  10.837
24820SOL     OW76233   9.568  13.739  12.651
24820SOL    HW176234   9.660  13.758  12.671
24820SOL    HW276235   9.571  13.695  12.566
24821SOL     OW76236  11.159   2.429  12.923
24821SOL    HW176237  11.219   2.356  12.941
24821SOL    HW276238  11.215   2.507  12.925
24822SOL     OW76239   8.199   6.266   8.455
24822SOL    HW176240   8.170   6.343   8.405
24822SOL    HW276241   8.272   6.231   8.404
24823SOL     OW76242   2.286   3.954  11.234
24823SOL    HW176243   2.243   4.040  11.234
24823SOL    HW276244   2.378   3.973  11.215
24824SOL     OW76245  11.523   8.239   2.066
24824SOL    HW176246  11.474   8.164   2.032
24824SOL    HW276247  11.456   8.294   2.108
24825SOL     OW76248   0.079   7.705   5.079
24825SOL    HW176249   0.052   7.615   5.062
24825SOL    HW276250   0.138   7.699   5.154
24826SOL     OW76251  10.358  12.282   3.961
24826SOL    HW176252  10.421  12.212   3.978
24826SOL    HW276253  10.352  12.331   4.043
24827SOL     OW76254   8.283   8.041   5.191
24827SOL    HW176255   8.258   8.122   5.237
24827SOL    HW276256   8.374   8.055   5.165
24828SOL     OW76257   5.611  12.005   0.826
24828SOL    HW176258   5.598  11.937   0.761
24828SOL    HW276259   5.541  11.991   0.890
24829SOL     OW76260   8.021   4.781   9.560
24829SOL    HW176261   8.109   4.744   9.563
24829SOL    HW276262   7.963   4.704   9.561
24830SOL     OW76263   6.660   4.736   8.329
24830SOL    HW176264   6.736   4.722   8.273
24830SOL    HW276265   6.621   4.649   8.339
24831SOL     OW76266   1.827   5.923  12.975
24831SOL    HW176267   1.796   6.008  13.007
24831SOL    HW276268   1.754   5.889  12.923
24832SOL     OW76269   6.305   0.104  14.347
24832SOL    HW176270   6.276   0.132  14.260
24832SOL    HW276271   6.393   0.068  14.332
24833SOL     OW76272  12.672   1.972   9.692
24833SOL    HW176273  12.602   1.979   9.626
24833SOL    HW276274  12.749   2.010   9.650
24834SOL     OW76275   3.379   0.578   0.757
24834SOL    HW176276   3.421   0.657   0.791
24834SOL    HW276277   3.287   0.601   0.748
24835SOL     OW76278  12.597   6.385   2.556
24835SOL    HW176279  12.576   6.343   2.639
24835SOL    HW276280  12.562   6.326   2.489
24836SOL     OW76281   2.160  10.815   0.784
24836SOL    HW176282   2.103  10.891   0.778
24836SOL    HW276283   2.200  10.822   0.871
24837SOL     OW76284  11.540   0.481   0.272
24837SOL    HW176285  11.469   0.429   0.308
24837SOL    HW276286  11.603   0.489   0.344
24838SOL     OW76287  12.684  12.033  14.584
24838SOL    HW176288  12.714  11.949  14.552
24838SOL    HW276289  12.622  12.064  14.518
24839SOL     OW76290  11.069   0.167  14.738
24839SOL    HW176291  11.071   0.235  14.670
24839SOL    HW276292  11.000   0.107  14.709
24840SOL     OW76293   6.727  11.652  11.996
24840SOL    HW176294   6.666  11.634  12.068
24840SOL    HW276295   6.763  11.566  11.973
24841SOL     OW76296   4.968   8.849   2.957
24841SOL    HW176297   5.019   8.915   3.005
24841SOL    HW276298   4.975   8.770   3.010
24842SOL     OW76299   3.462   5.850   5.259
24842SOL    HW176300   3.555   5.828   5.256
24842SOL    HW276301   3.429   5.808   5.338
24843SOL     OW76302   3.080   2.973   6.429
24843SOL    HW176303   3.021   2.904   6.459
24843SOL    HW276304   3.029   3.054   6.439
24844SOL     OW76305   4.692  11.856  11.775
24844SOL    HW176306   4.689  11.771  11.732
24844SOL    HW276307   4.600  11.876  11.794
24845SOL     OW76308   2.544   7.243   6.438
24845SOL    HW176309   2.594   7.295   6.377
24845SOL    HW276310   2.571   7.274   6.525
24846SOL     OW76311  14.778   7.558  13.473
24846SOL    HW176312  14.858   7.601  13.505
24846SOL    HW276313  14.751   7.503  13.546
24847SOL     OW76314   6.204   0.958   0.838
24847SOL    HW176315   6.241   0.988   0.921
24847SOL    HW276316   6.112   0.939   0.858
24848SOL     OW76317  14.028  13.537   5.255
24848SOL    HW176318  13.968  13.471   5.221
24848SOL    HW276319  14.115  13.504   5.234
24849SOL     OW76320   2.231  11.443   8.317
24849SOL    HW176321   2.220  11.452   8.412
24849SOL    HW276322   2.267  11.527   8.289
24850SOL     OW76323   7.310   0.903   9.644
24850SOL    HW176324   7.245   0.972   9.635
24850SOL    HW276325   7.383   0.944   9.690
24851SOL     OW76326   6.839   8.157   8.432
24851SOL    HW176327   6.897   8.226   8.465
24851SOL    HW276328   6.897   8.083   8.415
24852SOL     OW76329   8.857   1.339   4.522
24852SOL    HW176330   8.922   1.324   4.454
24852SOL    HW276331   8.788   1.389   4.478
24853SOL     OW76332   9.336   5.310   1.951
24853SOL    HW176333   9.306   5.397   1.924
24853SOL    HW276334   9.262   5.253   1.934
24854SOL     OW76335   1.342   5.256  14.018
24854SOL    HW176336   1.260   5.216  13.991
24854SOL    HW276337   1.390   5.185  14.062
24855SOL     OW76338   8.248   2.025  11.231
24855SOL    HW176339   8.228   1.982  11.314
24855SOL    HW276340   8.200   2.107  11.234
24856SOL     OW76341   3.815   5.203  10.206
24856SOL    HW176342   3.892   5.259  10.216
24856SOL    HW276343   3.819   5.171  10.117
24857SOL     OW76344  12.005   1.017  12.070
24857SOL    HW176345  11.981   1.018  11.978
24857SOL    HW276346  11.947   0.951  12.109
24858SOL     OW76347  12.958   2.936   8.931
24858SOL    HW176348  12.868   2.928   8.899
24858SOL    HW276349  12.948   2.962   9.023
24859SOL     OW76350  13.444   8.508  12.287
24859SOL    HW176351  13.442   8.564  12.365
24859SOL    HW276352  13.354   8.477  12.278
24860SOL     OW76353   2.549   9.009   8.218
24860SOL    HW176354   2.619   9.011   8.153
24860SOL    HW276355   2.536   9.101   8.242
24861SOL     OW76356  13.378  14.853   3.261
24861SOL    HW176357  13.437  14.864   3.186
24861SOL    HW276358  13.397  14.765   3.293
24862SOL     OW76359   0.573   6.510  10.118
24862SOL    HW176360   0.664   6.521  10.093
24862SOL    HW276361   0.536   6.452  10.051
24863SOL     OW76362   9.691   6.224   6.431
24863SOL    HW176363   9.770   6.274   6.409
24863SOL    HW276364   9.673   6.245   6.522
24864SOL     OW76365  10.951   8.725  13.066
24864SOL    HW176366  10.987   8.735  13.154
24864SOL    HW276367  11.014   8.767  13.009
24865SOL     OW76368   9.892  11.636  13.040
24865SOL    HW176369   9.895  11.730  13.022
24865SOL    HW276370   9.952  11.598  12.975
24866SOL     OW76371  10.049   5.189   7.050
24866SOL    HW176372  10.087   5.102   7.037
24866SOL    HW276373   9.955   5.174   7.051
24867SOL     OW76374   9.745   3.119  10.358
24867SOL    HW176375   9.767   3.060  10.431
24867SOL    HW276376   9.794   3.199  10.376
24868SOL     OW76377   6.528   4.056  12.060
24868SOL    HW176378   6.570   4.063  12.146
24868SOL    HW276379   6.559   3.972  12.026
24869SOL     OW76380   0.347   7.426   3.409
24869SOL    HW176381   0.331   7.332   3.411
24869SOL    HW276382   0.315   7.455   3.324
24870SOL     OW76383   5.433   4.303  10.888
24870SOL    HW176384   5.457   4.361  10.816
24870SOL    HW276385   5.339   4.316  10.898
24871SOL     OW76386  12.102   1.192  13.957
24871SOL    HW176387  12.020   1.150  13.932
24871SOL    HW276388  12.082   1.236  14.040
24872SOL     OW76389   4.151  11.601   0.100
24872SOL    HW176390   4.073  11.603   0.045
24872SOL    HW276391   4.119  11.617   0.188
24873SOL     OW76392  13.901   4.423  12.808
24873SOL    HW176393  13.813   4.396  12.781
24873SOL    HW276394  13.901   4.518  12.798
24874SOL     OW76395   7.377   8.010   8.827
24874SOL    HW176396   7.315   8.042   8.762
24874SOL    HW276397   7.386   8.082   8.889
24875SOL     OW76398   9.592   0.379   9.594
24875SOL    HW176399   9.555   0.455   9.549
24875SOL    HW276400   9.546   0.377   9.678
24876SOL     OW76401  11.657  12.226   0.081
24876SOL    HW176402  11.594  12.276   0.133
24876SOL    HW276403  11.734  12.283   0.076
24877SOL     OW76404   9.101   8.025   3.522
24877SOL    HW176405   9.114   8.120   3.517
24877SOL    HW276406   9.087   7.998   3.431
24878SOL     OW76407  12.785   6.458  10.002
24878SOL    HW176408  12.765   6.549   9.980
24878SOL    HW276409  12.723   6.406   9.949
24879SOL     OW76410  13.198   9.586  10.715
24879SOL    HW176411  13.269   9.650  10.727
24879SOL    HW276412  13.217   9.517  10.779
24880SOL     OW76413   9.896   1.436   8.597
24880SOL    HW176414   9.977   1.384   8.598
24880SOL    HW276415   9.895   1.481   8.681
24881SOL     OW76416   6.201  12.469  13.452
24881SOL    HW176417   6.147  12.548  13.448
24881SOL    HW276418   6.287  12.500  13.480
24882SOL     OW76419  13.591  11.025   4.532
24882SOL    HW176420  13.625  11.082   4.600
24882SOL    HW276421  13.602  11.075   4.451
24883SOL     OW76422   5.231   7.987   9.608
24883SOL    HW176423   5.150   8.029   9.637
24883SOL    HW276424   5.295   8.058   9.606
24884SOL     OW76425   2.023   2.145   8.053
24884SOL    HW176426   1.970   2.090   7.995
24884SOL    HW276427   1.997   2.235   8.032
24885SOL     OW76428   7.959  13.359   4.802
24885SOL    HW176429   8.016  13.308   4.861
24885SOL    HW276430   7.881  13.377   4.854
24886SOL     OW76431   4.895   5.840   6.891
24886SOL    HW176432   4.968   5.790   6.855
24886SOL    HW276433   4.853   5.780   6.953
24887SOL     OW76434  10.483   8.975   9.728
24887SOL    HW176435  10.439   9.052   9.763
24887SOL    HW276436  10.567   8.973   9.772
24888SOL     OW76437   7.019   1.616  13.599
24888SOL    HW176438   7.114   1.621  13.609
24888SOL    HW276439   7.002   1.525  13.575
24889SOL     OW76440  14.527  14.521   3.146
24889SOL    HW176441  14.450  14.496   3.094
24889SOL    HW276442  14.535  14.615   3.134
24890SOL     OW76443   0.682  13.469  13.325
24890SOL    HW176444   0.649  13.388  13.363
24890SOL    HW276445   0.731  13.441  13.247
24891SOL     OW76446  14.198  12.501   0.585
24891SOL    HW176447  14.109  12.494   0.551
24891SOL    HW276448  14.252  12.458   0.518
24892SOL     OW76449   2.383   4.119   5.615
24892SOL    HW176450   2.447   4.100   5.684
24892SOL    HW276451   2.333   4.038   5.607
24893SOL     OW76452   7.522  11.454  12.977
24893SOL    HW176453   7.613  11.463  12.951
24893SOL    HW276454   7.524  11.398  13.054
24894SOL     OW76455   8.755   7.526  13.242
24894SOL    HW176456   8.801   7.607  13.265
24894SOL    HW276457   8.799   7.458  13.293
24895SOL     OW76458  11.899  10.283   2.295
24895SOL    HW176459  11.911  10.376   2.311
24895SOL    HW276460  11.929  10.240   2.375
24896SOL     OW76461   8.171  11.957  12.982
24896SOL    HW176462   8.162  11.971  13.076
24896SOL    HW276463   8.188  11.864  12.972
24897SOL     OW76464   6.308   0.737   6.250
24897SOL    HW176465   6.343   0.726   6.162
24897SOL    HW276466   6.287   0.648   6.279
24898SOL     OW76467   2.307   0.363  12.945
24898SOL    HW176468   2.329   0.438  12.999
24898SOL    HW276469   2.278   0.296  13.006
24899SOL     OW76470   4.889  12.977   3.291
24899SOL    HW176471   4.959  12.951   3.232
24899SOL    HW276472   4.812  12.988   3.235
24900SOL     OW76473   2.909   0.048  12.547
24900SOL    HW176474   2.957   0.101  12.483
24900SOL    HW276475   2.886  14.846  12.499
24901SOL     OW76476   1.806  12.132   5.466
24901SOL    HW176477   1.877  12.084   5.424
24901SOL    HW276478   1.849  12.204   5.512
24902SOL     OW76479  10.378   8.324   1.441
24902SOL    HW176480  10.407   8.233   1.450
24902SOL    HW276481  10.449   8.376   1.479
24903SOL     OW76482   6.080  13.942   1.328
24903SOL    HW176483   6.094  14.033   1.304
24903SOL    HW276484   6.032  13.945   1.411
24904SOL     OW76485   1.804  11.959   7.756
24904SOL    HW176486   1.841  12.045   7.773
24904SOL    HW276487   1.712  11.977   7.734
24905SOL     OW76488   9.829   2.819  14.253
24905SOL    HW176489   9.888   2.766  14.199
24905SOL    HW276490   9.807   2.894  14.197
24906SOL     OW76491   0.218   0.176   2.662
24906SOL    HW176492   0.145   0.113   2.659
24906SOL    HW276493   0.188   0.244   2.722
24907SOL     OW76494   3.800  12.009   3.866
24907SOL    HW176495   3.728  11.961   3.825
24907SOL    HW276496   3.860  12.029   3.794
24908SOL     OW76497   5.270  14.834  11.729
24908SOL    HW176498   5.235  14.786  11.804
24908SOL    HW276499   5.311   0.034  11.767
24909SOL     OW76500   8.403  12.783  10.732
24909SOL    HW176501   8.416  12.766  10.825
24909SOL    HW276502   8.482  12.830  10.705
24910SOL     OW76503   3.547   3.977   2.419
24910SOL    HW176504   3.582   3.896   2.382
24910SOL    HW276505   3.522   3.954   2.508
24911SOL     OW76506   2.389  11.703   2.072
24911SOL    HW176507   2.356  11.617   2.047
24911SOL    HW276508   2.320  11.764   2.045
24912SOL     OW76509   5.783   6.807  10.374
24912SOL    HW176510   5.876   6.808  10.352
24912SOL    HW276511   5.760   6.899  10.387
24913SOL     OW76512   6.425  12.060   1.177
24913SOL    HW176513   6.511  12.096   1.201
24913SOL    HW276514   6.362  12.121   1.217
24914SOL     OW76515   6.060   6.041   5.883
24914SOL    HW176516   6.130   6.027   5.947
24914SOL    HW276517   5.979   6.025   5.931
24915SOL     OW76518   4.649   9.264  14.008
24915SOL    HW176519   4.565   9.276  13.964
24915SOL    HW276520   4.642   9.179  14.051
24916SOL     OW76521   3.239   3.243   2.164
24916SOL    HW176522   3.226   3.154   2.195
24916SOL    HW276523   3.206   3.298   2.235
24917SOL     OW76524   8.591  10.535   9.984
24917SOL    HW176525   8.518  10.596   9.994
24917SOL    HW276526   8.669  10.590   9.986
24918SOL     OW76527   1.240  10.916   0.255
24918SOL    HW176528   1.322  10.961   0.234
24918SOL    HW276529   1.243  10.835   0.203
24919SOL     OW76530  13.801  10.387   6.439
24919SOL    HW176531  13.727  10.407   6.381
24919SOL    HW276532  13.837  10.305   6.406
24920SOL     OW76533   1.396   8.745   8.467
24920SOL    HW176534   1.326   8.771   8.526
24920SOL    HW276535   1.471   8.730   8.525
24921SOL     OW76536   9.408  12.321  14.446
24921SOL    HW176537   9.393  12.393  14.507
24921SOL    HW276538   9.411  12.243  14.501
24922SOL     OW76539  13.031   5.798   9.204
24922SOL    HW176540  13.028   5.730   9.271
24922SOL    HW276541  12.962   5.860   9.229
24923SOL     OW76542  13.556   0.079   0.988
24923SOL    HW176543  13.536   0.011   0.923
24923SOL    HW276544  13.573   0.030   1.069
24924SOL     OW76545   8.146  12.215   1.829
24924SOL    HW176546   8.138  12.254   1.742
24924SOL    HW276547   8.210  12.270   1.874
24925SOL     OW76548   8.495  13.743   5.954
24925SOL    HW176549   8.480  13.829   5.914
24925SOL    HW276550   8.449  13.748   6.038
24926SOL     OW76551   2.353  13.260   0.124
24926SOL    HW176552   2.276  13.206   0.110
24926SOL    HW276553   2.333  13.343   0.081
24927SOL     OW76554   8.281  13.555   9.043
24927SOL    HW176555   8.239  13.488   9.098
24927SOL    HW276556   8.354  13.509   9.002
24928SOL     OW76557   0.847   7.739  13.185
24928SOL    HW176558   0.786   7.809  13.165
24928SOL    HW276559   0.824   7.668  13.125
24929SOL     OW76560   9.868   7.001   0.985
24929SOL    HW176561   9.847   7.090   0.955
24929SOL    HW276562   9.796   6.978   1.044
24930SOL     OW76563  13.112   1.150   6.127
24930SOL    HW176564  13.169   1.198   6.187
24930SOL    HW276565  13.148   1.168   6.040
24931SOL     OW76566  12.669   3.689  13.985
24931SOL    HW176567  12.717   3.693  13.902
24931SOL    HW276568  12.628   3.602  13.984
24932SOL     OW76569  12.276   1.386   2.425
24932SOL    HW176570  12.292   1.481   2.432
24932SOL    HW276571  12.210   1.378   2.355
24933SOL     OW76572   8.511   1.309  10.692
24933SOL    HW176573   8.435   1.301  10.750
24933SOL    HW276574   8.474   1.335  10.608
24934SOL     OW76575  10.132  10.766   4.871
24934SOL    HW176576  10.063  10.822   4.835
24934SOL    HW276577  10.191  10.826   4.915
24935SOL     OW76578   3.274  10.075   7.000
24935SOL    HW176579   3.290  10.114   7.086
24935SOL    HW276580   3.341  10.008   6.991
24936SOL     OW76581   7.934   7.674  10.636
24936SOL    HW176582   8.027   7.651  10.626
24936SOL    HW276583   7.894   7.645  10.554
24937SOL     OW76584   4.121   4.945   2.323
24937SOL    HW176585   4.199   4.923   2.372
24937SOL    HW276586   4.053   4.959   2.389
24938SOL     OW76587  14.341  11.912  13.030
24938SOL    HW176588  14.319  11.992  13.079
24938SOL    HW276589  14.376  11.944  12.947
24939SOL     OW76590   6.395   1.101  13.722
24939SOL    HW176591   6.443   1.132  13.799
24939SOL    HW276592   6.400   1.174  13.660
24940SOL     OW76593  14.559   1.018   8.788
24940SOL    HW176594  14.465   1.004   8.792
24940SOL    HW276595  14.569   1.112   8.774
24941SOL     OW76596   1.238   0.381   1.684
24941SOL    HW176597   1.204   0.324   1.753
24941SOL    HW276598   1.240   0.468   1.724
24942SOL     OW76599   2.849   1.430  12.038
24942SOL    HW176600   2.830   1.497  12.104
24942SOL    HW276601   2.785   1.361  12.055
24943SOL     OW76602   7.669  12.925  10.379
24943SOL    HW176603   7.756  12.892  10.399
24943SOL    HW276604   7.637  12.960  10.463
24944SOL     OW76605  13.835   7.104  10.057
24944SOL    HW176606  13.785   7.031  10.022
24944SOL    HW276607  13.876   7.144   9.981
24945SOL     OW76608  10.668   8.964   7.332
24945SOL    HW176609  10.644   8.936   7.243
24945SOL    HW276610  10.678   8.883   7.381
24946SOL     OW76611   2.845  11.369   2.971
24946SOL    HW176612   2.938  11.375   2.996
24946SOL    HW276613   2.802  11.438   3.022
24947SOL     OW76614   8.487  10.812  13.948
24947SOL    HW176615   8.530  10.847  13.870
24947SOL    HW276616   8.531  10.855  14.021
24948SOL     OW76617  12.531  11.843  13.335
24948SOL    HW176618  12.496  11.929  13.313
24948SOL    HW276619  12.571  11.855  13.421
24949SOL     OW76620   2.815   1.824   7.223
24949SOL    HW176621   2.748   1.779   7.171
24949SOL    HW276622   2.895   1.814   7.171
24950SOL     OW76623   1.171   5.681   1.267
24950SOL    HW176624   1.085   5.647   1.292
24950SOL    HW276625   1.215   5.698   1.351
24951SOL     OW76626  11.085   5.208   0.067
24951SOL    HW176627  11.153   5.164   0.118
24951SOL    HW276628  11.109   5.301   0.069
24952SOL     OW76629   1.335   9.194  10.790
24952SOL    HW176630   1.416   9.226  10.831
24952SOL    HW276631   1.273   9.265  10.802
24953SOL     OW76632  10.422  14.302  13.324
24953SOL    HW176633  10.453  14.262  13.406
24953SOL    HW276634  10.343  14.253  13.302
24954SOL     OW76635   0.715   4.310   1.942
24954SOL    HW176636   0.690   4.373   2.009
24954SOL    HW276637   0.633   4.286   1.899
24955SOL     OW76638   1.492  11.775  14.455
24955SOL    HW176639   1.446  11.792  14.372
24955SOL    HW276640   1.434  11.716  14.503
24956SOL     OW76641   4.157   8.106  13.546
24956SOL    HW176642   4.240   8.096  13.592
24956SOL    HW276643   4.183   8.124  13.455
24957SOL     OW76644   8.550  14.753   2.805
24957SOL    HW176645   8.563  14.751   2.899
24957SOL    HW276646   8.458  14.730   2.792
24958SOL     OW76647   9.569   6.247   0.252
24958SOL    HW176648   9.655   6.206   0.257
24958SOL    HW276649   9.508   6.176   0.271
24959SOL     OW76650   6.848   7.877   9.703
24959SOL    HW176651   6.812   7.811   9.644
24959SOL    HW276652   6.929   7.839   9.735
24960SOL     OW76653   5.158  11.553   5.704
24960SOL    HW176654   5.068  11.527   5.721
24960SOL    HW276655   5.156  11.649   5.708
24961SOL     OW76656   5.237  14.828   4.432
24961SOL    HW176657   5.243   0.006   4.509
24961SOL    HW276658   5.149  14.845   4.397
24962SOL     OW76659   6.847   8.210   4.462
24962SOL    HW176660   6.924   8.168   4.425
24962SOL    HW276661   6.834   8.167   4.546
24963SOL     OW76662   2.672  12.306  11.111
24963SOL    HW176663   2.730  12.233  11.090
24963SOL    HW276664   2.694  12.330  11.201
24964SOL     OW76665   7.089   7.515   2.709
24964SOL    HW176666   7.110   7.554   2.624
24964SOL    HW276667   7.161   7.454   2.726
24965SOL     OW76668   1.945  14.788   5.395
24965SOL    HW176669   2.029  14.821   5.426
24965SOL    HW276670   1.946  14.695   5.416
24966SOL     OW76671   9.149   0.591   9.729
24966SOL    HW176672   9.197   0.515   9.764
24966SOL    HW276673   9.107   0.629   9.806
24967SOL     OW76674   1.450  11.441   0.217
24967SOL    HW176675   1.397  11.383   0.162
24967SOL    HW276676   1.476  11.386   0.291
24968SOL     OW76677   5.720   2.119   2.308
24968SOL    HW176678   5.719   2.210   2.337
24968SOL    HW276679   5.757   2.123   2.220
24969SOL     OW76680   8.123   0.013   3.895
24969SOL    HW176681   8.125  14.851   3.982
24969SOL    HW276682   8.215   0.018   3.868
24970SOL     OW76683   1.337  10.531  11.345
24970SOL    HW176684   1.287  10.515  11.425
24970SOL    HW276685   1.277  10.580  11.288
24971SOL     OW76686   4.966   5.293  11.671
24971SOL    HW176687   5.014   5.361  11.624
24971SOL    HW276688   5.032   5.254  11.729
24972SOL     OW76689   0.283   0.033   4.160
24972SOL    HW176690   0.332  14.849   4.214
24972SOL    HW276691   0.297   0.118   4.202
24973SOL     OW76692   5.851   7.520   7.072
24973SOL    HW176693   5.945   7.505   7.062
24973SOL    HW276694   5.845   7.601   7.123
24974SOL     OW76695  14.639   8.418  14.392
24974SOL    HW176696  14.730   8.447  14.383
24974SOL    HW276697  14.607   8.463  14.470
24975SOL     OW76698   0.955  12.414   2.717
24975SOL    HW176699   0.877  12.457   2.683
24975SOL    HW276700   0.998  12.377   2.640
24976SOL     OW76701   3.047  11.885   2.912
24976SOL    HW176702   3.076  11.947   2.845
24976SOL    HW276703   3.068  11.928   2.995
24977SOL     OW76704   3.268   2.427  13.215
24977SOL    HW176705   3.317   2.425  13.297
24977SOL    HW276706   3.237   2.517  13.207
24978SOL     OW76707   1.659  10.481   5.956
24978SOL    HW176708   1.750  10.466   5.984
24978SOL    HW276709   1.608  10.418   6.006
24979SOL     OW76710  11.646   9.103   6.332
24979SOL    HW176711  11.623   9.077   6.421
24979SOL    HW276712  11.591   9.047   6.276
24980SOL     OW76713   6.995  13.388  10.015
24980SOL    HW176714   7.051  13.322   9.975
24980SOL    HW276715   6.927  13.339  10.060
24981SOL     OW76716  13.241  11.944   7.154
24981SOL    HW176717  13.165  11.935   7.210
24981SOL    HW276718  13.313  11.963   7.214
24982SOL     OW76719  10.477  14.101   8.425
24982SOL    HW176720  10.419  14.175   8.444
24982SOL    HW276721  10.441  14.063   8.345
24983SOL     OW76722   0.303  14.350   8.785
24983SOL    HW176723   0.329  14.392   8.867
24983SOL    HW276724   0.307  14.257   8.804
24984SOL     OW76725   5.304   7.492  11.120
24984SOL    HW176726   5.371   7.534  11.174
24984SOL    HW276727   5.348   7.476  11.036
24985SOL     OW76728   1.529   3.399  10.804
24985SOL    HW176729   1.585   3.350  10.865
24985SOL    HW276730   1.514   3.483  10.848
24986SOL     OW76731   4.099   5.522  12.435
24986SOL    HW176732   4.036   5.577  12.482
24986SOL    HW276733   4.146   5.582  12.377
24987SOL     OW76734   0.750  12.456   5.077
24987SOL    HW176735   0.732  12.549   5.068
24987SOL    HW276736   0.785  12.429   4.992
24988SOL     OW76737   2.820   7.910  10.233
24988SOL    HW176738   2.744   7.928  10.176
24988SOL    HW276739   2.813   7.816  10.252
24989SOL     OW76740   1.741   5.571  11.937
24989SOL    HW176741   1.823   5.527  11.917
24989SOL    HW276742   1.766   5.662  11.953
24990SOL     OW76743   0.727  11.145   6.336
24990SOL    HW176744   0.800  11.087   6.316
24990SOL    HW276745   0.650  11.089   6.331
24991SOL     OW76746   9.260   2.175  10.706
24991SOL    HW176747   9.297   2.195  10.620
24991SOL    HW276748   9.285   2.249  10.761
24992SOL     OW76749   0.611  12.127   9.229
24992SOL    HW176750   0.666  12.180   9.287
24992SOL    HW276751   0.522  12.140   9.263
24993SOL     OW76752  13.891   4.043   0.374
24993SOL    HW176753  13.906   4.137   0.381
24993SOL    HW276754  13.976   4.003   0.393
24994SOL     OW76755   0.729   8.241   5.102
24994SOL    HW176756   0.806   8.208   5.149
24994SOL    HW276757   0.761   8.264   5.015
24995SOL     OW76758  10.402  14.218   7.611
24995SOL    HW176759  10.350  14.187   7.685
24995SOL    HW276760  10.396  14.314   7.616
24996SOL     OW76761   4.294   4.545   1.689
24996SOL    HW176762   4.307   4.612   1.622
24996SOL    HW276763   4.207   4.564   1.725
24997SOL     OW76764   5.178   7.670   3.664
24997SOL    HW176765   5.087   7.692   3.684
24997SOL    HW276766   5.172   7.593   3.608
24998SOL     OW76767   5.845   3.144  14.555
24998SOL    HW176768   5.905   3.214  14.530
24998SOL    HW276769   5.812   3.109  14.473
24999SOL     OW76770  10.742  10.564  10.108
24999SOL    HW176771  10.836  10.559  10.095
24999SOL    HW276772  10.710  10.476  10.088
25000SOL     OW76773   5.970   0.616  11.093
25000SOL    HW176774   6.002   0.599  11.004
25000SOL    HW276775   5.973   0.711  11.101
25001SOL     OW76776   8.933   1.187   3.229
25001SOL    HW176777   8.881   1.126   3.176
25001SOL    HW276778   8.938   1.266   3.175
25002SOL     OW76779   2.418   6.387   5.864
25002SOL    HW176780   2.372   6.308   5.891
25002SOL    HW276781   2.432   6.377   5.770
25003SOL     OW76782   3.488  11.461   6.546
25003SOL    HW176783   3.396  11.470   6.523
25003SOL    HW276784   3.511  11.372   6.518
25004SOL     OW76785   0.917   9.607   3.909
25004SOL    HW176786   0.865   9.552   3.967
25004SOL    HW276787   0.990   9.551   3.883
25005SOL     OW76788   3.755   6.055   3.270
25005SOL    HW176789   3.723   5.970   3.301
25005SOL    HW276790   3.726   6.059   3.179
25006SOL     OW76791   2.770   6.884   8.147
25006SOL    HW176792   2.820   6.966   8.145
25006SOL    HW276793   2.785   6.850   8.234
25007SOL     OW76794  13.612  14.667   7.847
25007SOL    HW176795  13.578  14.680   7.936
25007SOL    HW276796  13.570  14.736   7.795
25008SOL     OW76797  11.879  10.367   0.640
25008SOL    HW176798  11.917  10.296   0.589
25008SOL    HW276799  11.789  10.339   0.657
25009SOL     OW76800  13.186   4.750  13.716
25009SOL    HW176801  13.238   4.743  13.636
25009SOL    HW276802  13.250   4.741  13.786
25010SOL     OW76803   8.747   8.976  10.985
25010SOL    HW176804   8.754   9.071  10.986
25010SOL    HW276805   8.749   8.951  11.077
25011SOL     OW76806   6.855   0.325   6.880
25011SOL    HW176807   6.882   0.265   6.810
25011SOL    HW276808   6.776   0.285   6.917
25012SOL     OW76809   3.209   7.739   5.937
25012SOL    HW176810   3.155   7.677   5.887
25012SOL    HW276811   3.275   7.685   5.980
25013SOL     OW76812   6.765  12.483   6.332
25013SOL    HW176813   6.731  12.548   6.393
25013SOL    HW276814   6.743  12.399   6.372
25014SOL     OW76815   4.607   3.148   7.095
25014SOL    HW176816   4.544   3.151   7.166
25014SOL    HW276817   4.684   3.195   7.129
25015SOL     OW76818  12.628   2.283  14.769
25015SOL    HW176819  12.602   2.359  14.821
25015SOL    HW276820  12.682   2.230  14.829
25016SOL     OW76821   7.515   1.255  12.051
25016SOL    HW176822   7.434   1.288  12.013
25016SOL    HW276823   7.489   1.212  12.132
25017SOL     OW76824   7.327   7.394  10.480
25017SOL    HW176825   7.282   7.313  10.504
25017SOL    HW276826   7.260   7.447  10.437
25018SOL     OW76827  14.087   2.467  11.507
25018SOL    HW176828  14.067   2.472  11.600
25018SOL    HW276829  14.149   2.394  11.500
25019SOL     OW76830  11.200   9.644  14.377
25019SOL    HW176831  11.120   9.630  14.326
25019SOL    HW276832  11.184   9.601  14.461
25020SOL     OW76833   4.561   7.065   8.981
25020SOL    HW176834   4.482   7.106   8.946
25020SOL    HW276835   4.601   7.133   9.035
25021SOL     OW76836   5.514   8.949  13.475
25021SOL    HW176837   5.538   8.987  13.390
25021SOL    HW276838   5.510   9.023  13.535
25022SOL     OW76839   6.832   7.879   7.570
25022SOL    HW176840   6.798   7.792   7.591
25022SOL    HW276841   6.811   7.891   7.477
25023SOL     OW76842  13.063   6.505   0.898
25023SOL    HW176843  13.013   6.445   0.953
25023SOL    HW276844  13.117   6.555   0.960
25024SOL     OW76845   0.110   1.277  10.301
25024SOL    HW176846   0.180   1.242  10.357
25024SOL    HW276847   0.135   1.368  10.286
25025SOL     OW76848   0.244   2.139   2.410
25025SOL    HW176849   0.243   2.055   2.363
25025SOL    HW276850   0.154   2.171   2.402
25026SOL     OW76851   1.868   4.491   9.451
25026SOL    HW176852   1.794   4.437   9.480
25026SOL    HW276853   1.914   4.512   9.532
25027SOL     OW76854   6.884   0.691   1.149
25027SOL    HW176855   6.964   0.650   1.181
25027SOL    HW276856   6.914   0.768   1.100
25028SOL     OW76857   4.583   5.290   2.926
25028SOL    HW176858   4.586   5.289   3.022
25028SOL    HW276859   4.618   5.204   2.901
25029SOL     OW76860   8.941   6.185  12.220
25029SOL    HW176861   8.914   6.162  12.132
25029SOL    HW276862   8.982   6.106  12.255
25030SOL     OW76863   5.932  10.135  13.251
25030SOL    HW176864   5.972  10.064  13.301
25030SOL    HW276865   5.841  10.136  13.279
25031SOL     OW76866  10.768   4.952   0.191
25031SOL    HW176867  10.794   5.029   0.241
25031SOL    HW276868  10.683   4.977   0.152
25032SOL     OW76869   6.085   9.069   9.337
25032SOL    HW176870   6.024   9.019   9.391
25032SOL    HW276871   6.110   9.008   9.268
25033SOL     OW76872   9.203  14.570  10.286
25033SOL    HW176873   9.238  14.482  10.300
25033SOL    HW276874   9.109  14.558  10.275
25034SOL     OW76875   2.838  10.785   4.107
25034SOL    HW176876   2.750  10.751   4.123
25034SOL    HW276877   2.870  10.736   4.032
25035SOL     OW76878  14.774   3.077  12.431
25035SOL    HW176879  14.793   3.147  12.493
25035SOL    HW276880  14.682   3.054  12.447
25036SOL     OW76881   8.787   2.997  12.997
25036SOL    HW176882   8.765   3.083  12.961
25036SOL    HW276883   8.844   2.958  12.932
25037SOL     OW76884   5.940   2.755  14.792
25037SOL    HW176885   5.941   2.850  14.805
25037SOL    HW276886   5.849   2.734  14.774
25038SOL     OW76887  11.424   3.931  12.997
25038SOL    HW176888  11.432   3.920  12.902
25038SOL    HW276889  11.408   4.025  13.009
25039SOL     OW76890   8.068   8.002   3.260
25039SOL    HW176891   8.035   7.981   3.348
25039SOL    HW276892   7.989   8.017   3.208
25040SOL     OW76893   4.065   7.600   9.514
25040SOL    HW176894   4.097   7.645   9.593
25040SOL    HW276895   4.143   7.559   9.477
25041SOL     OW76896   5.130  14.739  13.835
25041SOL    HW176897   5.143  14.753  13.928
25041SOL    HW276898   5.192  14.799  13.793
25042SOL     OW76899   9.025  13.694   2.651
25042SOL    HW176900   9.049  13.602   2.650
25042SOL    HW276901   9.108  13.741   2.645
25043SOL     OW76902   8.639   1.114   4.031
25043SOL    HW176903   8.640   1.020   4.008
25043SOL    HW276904   8.693   1.120   4.110
25044SOL     OW76905   0.815   1.768  11.503
25044SOL    HW176906   0.861   1.842  11.463
25044SOL    HW276907   0.874   1.738  11.572
25045SOL     OW76908   4.721  12.630  14.139
25045SOL    HW176909   4.646  12.582  14.175
25045SOL    HW276910   4.771  12.565  14.090
25046SOL     OW76911  12.213   9.279   0.398
25046SOL    HW176912  12.152   9.206   0.399
25046SOL    HW276913  12.174   9.344   0.457
25047SOL     OW76914   5.013   2.486  11.481
25047SOL    HW176915   5.061   2.440  11.549
25047SOL    HW276916   4.942   2.427  11.456
25048SOL     OW76917   4.548   5.266   3.832
25048SOL    HW176918   4.470   5.311   3.799
25048SOL    HW276919   4.577   5.212   3.758
25049SOL     OW76920  11.392   4.833   0.331
25049SOL    HW176921  11.401   4.836   0.235
25049SOL    HW276922  11.442   4.909   0.361
25050SOL     OW76923   8.304   4.228  11.113
25050SOL    HW176924   8.210   4.224  11.095
25050SOL    HW276925   8.320   4.157  11.174
25051SOL     OW76926   9.510  10.999   7.612
25051SOL    HW176927   9.464  10.958   7.538
25051SOL    HW276928   9.516  11.091   7.588
25052SOL     OW76929  14.271  11.348   9.243
25052SOL    HW176930  14.223  11.292   9.182
25052SOL    HW276931  14.261  11.436   9.208
25053SOL     OW76932   0.701  13.084   7.952
25053SOL    HW176933   0.671  13.120   8.035
25053SOL    HW276934   0.635  13.017   7.930
25054SOL     OW76935  12.902   1.348  12.191
25054SOL    HW176936  12.820   1.306  12.216
25054SOL    HW276937  12.915   1.323  12.099
25055SOL     OW76938   6.557   6.603  11.417
25055SOL    HW176939   6.546   6.647  11.332
25055SOL    HW276940   6.483   6.634  11.469
25056SOL     OW76941  13.831   5.533   2.380
25056SOL    HW176942  13.894   5.543   2.308
25056SOL    HW276943  13.748   5.515   2.336
25057SOL     OW76944   7.747   7.822   3.842
25057SOL    HW176945   7.749   7.890   3.908
25057SOL    HW276946   7.792   7.860   3.766
25058SOL     OW76947  11.439  14.125   2.960
25058SOL    HW176948  11.508  14.133   2.894
25058SOL    HW276949  11.484  14.131   3.044
25059SOL     OW76950   4.408   6.311   7.359
25059SOL    HW176951   4.371   6.384   7.309
25059SOL    HW276952   4.363   6.234   7.326
25060SOL     OW76953  13.870  11.840   3.680
25060SOL    HW176954  13.932  11.853   3.751
25060SOL    HW276955  13.812  11.770   3.712
25061SOL     OW76956   1.492   8.802   1.748
25061SOL    HW176957   1.561   8.748   1.709
25061SOL    HW276958   1.435   8.826   1.675
25062SOL     OW76959  12.794   4.019  11.681
25062SOL    HW176960  12.778   3.957  11.752
25062SOL    HW276961  12.765   4.103  11.716
25063SOL     OW76962   0.917   8.126  13.248
25063SOL    HW176963   0.985   8.192  13.263
25063SOL    HW276964   0.932   8.061  13.317
25064SOL     OW76965   9.554  12.683   7.213
25064SOL    HW176966   9.480  12.713   7.265
25064SOL    HW276967   9.582  12.602   7.255
25065SOL     OW76968   2.300  11.201   8.206
25065SOL    HW176969   2.291  11.224   8.114
25065SOL    HW276970   2.258  11.274   8.253
25066SOL     OW76971   0.243  11.157  14.748
25066SOL    HW176972   0.237  11.062  14.736
25066SOL    HW276973   0.263  11.191  14.662
25067SOL     OW76974   0.601   6.050  11.273
25067SOL    HW176975   0.653   6.065  11.194
25067SOL    HW276976   0.554   5.969  11.256
25068SOL     OW76977  14.188  11.342   9.925
25068SOL    HW176978  14.147  11.365  10.009
25068SOL    HW276979  14.168  11.417   9.868
25069SOL     OW76980  14.533   3.395   1.225
25069SOL    HW176981  14.556   3.404   1.317
25069SOL    HW276982  14.497   3.306   1.218
25070SOL     OW76983  12.810  11.026  14.120
25070SOL    HW176984  12.894  11.026  14.167
25070SOL    HW276985  12.751  10.977  14.178
25071SOL     OW76986   9.363   1.111   8.528
25071SOL    HW176987   9.424   1.184   8.520
25071SOL    HW276988   9.296   1.142   8.589
25072SOL     OW76989   2.341  10.719   5.662
25072SOL    HW176990   2.313  10.664   5.736
25072SOL    HW276991   2.267  10.777   5.646
25073SOL     OW76992  11.400   0.285  13.196
25073SOL    HW176993  11.424   0.284  13.289
25073SOL    HW276994  11.457   0.352  13.157
25074SOL     OW76995   1.349   2.316  14.749
25074SOL    HW176996   1.393   2.334  14.666
25074SOL    HW276997   1.417   2.275  14.803
25075SOL     OW76998   8.546   1.937   7.512
25075SOL    HW176999   8.564   2.030   7.527
25075SOL    HW277000   8.521   1.932   7.420
25076SOL     OW77001   7.611   4.289   6.731
25076SOL    HW177002   7.698   4.327   6.729
25076SOL    HW277003   7.552   4.363   6.748
25077SOL     OW77004   7.888   0.008   6.566
25077SOL    HW177005   7.823  14.825   6.533
25077SOL    HW277006   7.956  14.830   6.604
25078SOL     OW77007   0.613  14.716   7.254
25078SOL    HW177008   0.622  14.762   7.337
25078SOL    HW277009   0.655  14.772   7.190
25079SOL     OW77010   6.006   9.630   6.391
25079SOL    HW177011   5.998   9.567   6.320
25079SOL    HW277012   5.927   9.618   6.444
25080SOL     OW77013   3.085  11.537  13.370
25080SOL    HW177014   3.107  11.465  13.310
25080SOL    HW277015   3.076  11.495  13.455
25081SOL     OW77016  14.518   2.580  14.865
25081SOL    HW177017  14.570   2.566  14.786
25081SOL    HW277018  14.574   2.551   0.058
25082SOL     OW77019   6.493   2.117  14.800
25082SOL    HW177020   6.539   2.166  14.732
25082SOL    HW277021   6.539   2.141   0.003
25083SOL     OW77022   9.446   6.059   7.916
25083SOL    HW177023   9.352   6.058   7.933
25083SOL    HW277024   9.485   6.098   7.995
25084SOL     OW77025  12.557   1.245   6.178
25084SOL    HW177026  12.644   1.262   6.215
25084SOL    HW277027  12.497   1.263   6.251
25085SOL     OW77028  13.439   3.290   9.746
25085SOL    HW177029  13.519   3.328   9.710
25085SOL    HW277030  13.373   3.357   9.732
25086SOL     OW77031  11.303   4.053   1.853
25086SOL    HW177032  11.286   4.084   1.941
25086SOL    HW277033  11.249   3.974   1.845
25087SOL     OW77034  14.732   9.965  11.540
25087SOL    HW177035  14.721  10.060  11.547
25087SOL    HW277036  14.753   9.950  11.448
25088SOL     OW77037   2.286  13.556   0.001
25088SOL    HW177038   2.249  13.632  14.836
25088SOL    HW277039   2.330  13.507  14.809
25089SOL     OW77040   1.576   5.065   0.703
25089SOL    HW177041   1.647   5.061   0.639
25089SOL    HW277042   1.546   4.974   0.711
25090SOL     OW77043  10.673   9.746   8.594
25090SOL    HW177044  10.632   9.681   8.538
25090SOL    HW277045  10.673   9.826   8.542
25091SOL     OW77046   8.179  10.256   7.092
25091SOL    HW177047   8.224  10.294   7.168
25091SOL    HW277048   8.106  10.207   7.130
25092SOL     OW77049   4.642   8.209   8.384
25092SOL    HW177050   4.679   8.288   8.426
25092SOL    HW277051   4.629   8.148   8.457
25093SOL     OW77052   5.783   8.340   1.170
25093SOL    HW177053   5.835   8.393   1.231
25093SOL    HW277054   5.694   8.376   1.177
25094SOL     OW77055   4.809   2.130   9.415
25094SOL    HW177056   4.809   2.157   9.507
25094SOL    HW277057   4.884   2.071   9.408
25095SOL     OW77058  10.704  10.341   8.648
25095SOL    HW177059  10.797  10.353   8.665
25095SOL    HW277060  10.694  10.357   8.554
25096SOL     OW77061  10.298  10.513  10.826
25096SOL    HW177062  10.225  10.474  10.778
25096SOL    HW277063  10.359  10.540  10.757
25097SOL     OW77064   1.866   8.516   5.884
25097SOL    HW177065   1.946   8.464   5.897
25097SOL    HW277066   1.795   8.452   5.886
25098SOL     OW77067   6.046   9.992   2.493
25098SOL    HW177068   6.105   9.918   2.475
25098SOL    HW277069   5.982   9.989   2.422
25099SOL     OW77070   9.738   7.191   4.012
25099SOL    HW177071   9.711   7.107   4.048
25099SOL    HW277072   9.807   7.222   4.071
25100SOL     OW77073  14.282  14.837   9.383
25100SOL    HW177074  14.356   0.016   9.359
25100SOL    HW277075  14.227  14.834   9.305
25101SOL     OW77076   0.976  13.153  14.323
25101SOL    HW177077   0.989  13.247  14.340
25101SOL    HW277078   0.919  13.124  14.394
25102SOL     OW77079  11.196   8.210   9.161
25102SOL    HW177080  11.117   8.206   9.106
25102SOL    HW277081  11.189   8.133   9.217
25103SOL     OW77082   3.110  13.793   5.103
25103SOL    HW177083   3.184  13.800   5.042
25103SOL    HW277084   3.126  13.862   5.167
25104SOL     OW77085  11.812   8.041   2.987
25104SOL    HW177086  11.796   8.134   2.978
25104SOL    HW277087  11.736   7.999   2.948
25105SOL     OW77088  11.295  13.541   9.750
25105SOL    HW177089  11.258  13.625   9.780
25105SOL    HW277090  11.389  13.551   9.763
25106SOL     OW77091   4.925   0.081  12.139
25106SOL    HW177092   4.930   0.110  12.230
25106SOL    HW277093   4.866   0.144  12.097
25107SOL     OW77094  14.629  10.334   0.977
25107SOL    HW177095  14.707  10.386   0.959
25107SOL    HW277096  14.562  10.369   0.919
25108SOL     OW77097   2.343  11.642   1.740
25108SOL    HW177098   2.297  11.593   1.671
25108SOL    HW277099   2.277  11.701   1.776
25109SOL     OW77100   7.657  11.838   2.848
25109SOL    HW177101   7.694  11.838   2.936
25109SOL    HW277102   7.683  11.753   2.812
25110SOL     OW77103  13.685  12.204   9.089
25110SOL    HW177104  13.662  12.255   9.011
25110SOL    HW277105  13.743  12.262   9.139
25111SOL     OW77106   3.987   7.185   6.498
25111SOL    HW177107   3.989   7.245   6.424
25111SOL    HW277108   4.079   7.168   6.518
25112SOL     OW77109  11.738   9.860  11.767
25112SOL    HW177110  11.819   9.910  11.778
25112SOL    HW277111  11.719   9.865  11.673
25113SOL     OW77112   6.632  12.640   7.516
25113SOL    HW177113   6.538  12.659   7.515
25113SOL    HW277114   6.668  12.691   7.443
25114SOL     OW77115   6.114  13.447   9.135
25114SOL    HW177116   6.041  13.467   9.077
25114SOL    HW277117   6.187  13.498   9.099
25115SOL     OW77118   3.318   2.522   1.286
25115SOL    HW177119   3.254   2.587   1.312
25115SOL    HW277120   3.322   2.528   1.190
25116SOL     OW77121  11.973  11.344   0.383
25116SOL    HW177122  11.957  11.423   0.331
25116SOL    HW277123  11.959  11.372   0.473
25117SOL     OW77124  13.887   1.181  13.180
25117SOL    HW177125  13.902   1.137  13.097
25117SOL    HW277126  13.826   1.125  13.227
25118SOL     OW77127   5.048  13.527   7.599
25118SOL    HW177128   5.130  13.509   7.645
25118SOL    HW277129   4.979  13.505   7.662
25119SOL     OW77130  13.308   6.113  11.977
25119SOL    HW177131  13.214   6.125  11.987
25119SOL    HW277132  13.318   6.025  11.942
25120SOL     OW77133   0.252   0.300  11.479
25120SOL    HW177134   0.171   0.251  11.465
25120SOL    HW277135   0.225   0.392  11.475
25121SOL     OW77136  13.384   6.534   9.848
25121SOL    HW177137  13.326   6.469   9.885
25121SOL    HW277138  13.443   6.484   9.791
25122SOL     OW77139   9.039   6.133  10.748
25122SOL    HW177140   9.054   6.227  10.749
25122SOL    HW277141   9.095   6.099  10.818
25123SOL     OW77142   9.313  12.806  14.164
25123SOL    HW177143   9.273  12.787  14.079
25123SOL    HW277144   9.406  12.789  14.151
25124SOL     OW77145   0.662   0.474  11.324
25124SOL    HW177146   0.738   0.420  11.303
25124SOL    HW277147   0.602   0.415  11.369
25125SOL     OW77148   6.919  11.881   9.629
25125SOL    HW177149   6.938  11.971   9.603
25125SOL    HW277150   6.938  11.829   9.551
25126SOL     OW77151   7.115  14.267   3.425
25126SOL    HW177152   7.117  14.348   3.374
25126SOL    HW277153   7.149  14.200   3.364
25127SOL     OW77154  12.522   2.313   3.495
25127SOL    HW177155  12.592   2.280   3.437
25127SOL    HW277156  12.547   2.281   3.582
25128SOL     OW77157  14.120   4.036   5.605
25128SOL    HW177158  14.042   3.996   5.642
25128SOL    HW277159  14.143   4.105   5.668
25129SOL     OW77160   0.505   9.964   0.179
25129SOL    HW177161   0.593   9.966   0.144
25129SOL    HW277162   0.509   9.902   0.252
25130SOL     OW77163   4.347  13.434   3.465
25130SOL    HW177164   4.317  13.409   3.377
25130SOL    HW277165   4.308  13.520   3.480
25131SOL     OW77166   2.397   7.363   3.133
25131SOL    HW177167   2.314   7.352   3.180
25131SOL    HW277168   2.454   7.406   3.196
25132SOL     OW77169  11.745   5.957   1.886
25132SOL    HW177170  11.652   5.933   1.878
25132SOL    HW277171  11.773   5.972   1.795
25133SOL     OW77172   0.254   1.018   1.275
25133SOL    HW177173   0.223   1.036   1.186
25133SOL    HW277174   0.334   1.070   1.283
25134SOL     OW77175   4.419   8.957   2.134
25134SOL    HW177176   4.331   8.993   2.122
25134SOL    HW277177   4.404   8.870   2.171
25135SOL     OW77178  11.793   1.354   5.652
25135SOL    HW177179  11.786   1.274   5.703
25135SOL    HW277180  11.817   1.324   5.564
25136SOL     OW77181  12.406   3.561   9.284
25136SOL    HW177182  12.321   3.523   9.307
25136SOL    HW277183  12.468   3.515   9.340
25137SOL     OW77184   0.857  14.560   6.963
25137SOL    HW177185   0.938  14.512   6.980
25137SOL    HW277186   0.797  14.530   7.031
25138SOL     OW77187   0.377  13.653   3.902
25138SOL    HW177188   0.307  13.598   3.937
25138SOL    HW277189   0.437  13.665   3.976
25139SOL     OW77190  14.220  13.814  11.742
25139SOL    HW177191  14.185  13.735  11.700
25139SOL    HW277192  14.149  13.846  11.797
25140SOL     OW77193   9.602  11.922   1.711
25140SOL    HW177194   9.665  11.917   1.640
25140SOL    HW277195   9.640  11.984   1.773
25141SOL     OW77196  10.711  14.739   0.825
25141SOL    HW177197  10.791  14.749   0.875
25141SOL    HW277198  10.659  14.816   0.846
25142SOL     OW77199   9.661   4.007   9.935
25142SOL    HW177200   9.578   4.044   9.907
25142SOL    HW277201   9.654   4.000  10.030
25143SOL     OW77202   2.288   0.680  11.888
25143SOL    HW177203   2.213   0.633  11.924
25143SOL    HW277204   2.281   0.666  11.793
25144SOL     OW77205  10.058   6.483   4.952
25144SOL    HW177206  10.097   6.484   4.864
25144SOL    HW277207  10.031   6.392   4.964
25145SOL     OW77208  14.791   7.195   1.905
25145SOL    HW177209  14.790   7.120   1.845
25145SOL    HW277210  14.834   7.264   1.855
25146SOL     OW77211   5.256   2.221   5.081
25146SOL    HW177212   5.244   2.131   5.054
25146SOL    HW277213   5.282   2.267   5.001
25147SOL     OW77214  10.714   5.936   8.674
25147SOL    HW177215  10.720   5.843   8.652
25147SOL    HW277216  10.753   5.943   8.761
25148SOL     OW77217   7.297  14.350   8.144
25148SOL    HW177218   7.295  14.254   8.152
25148SOL    HW277219   7.206  14.377   8.148
25149SOL     OW77220   4.133   4.339   4.227
25149SOL    HW177221   4.104   4.390   4.303
25149SOL    HW277222   4.159   4.404   4.162
25150SOL     OW77223   1.320   5.930   0.018
25150SOL    HW177224   1.392   5.993   0.011
25150SOL    HW277225   1.360   5.853   0.056
25151SOL     OW77226  11.773   6.424   2.747
25151SOL    HW177227  11.810   6.509   2.724
25151SOL    HW277228  11.702   6.411   2.685
25152SOL     OW77229   9.923  12.423  11.464
25152SOL    HW177230   9.887  12.415  11.376
25152SOL    HW277231   9.866  12.370  11.519
25153SOL     OW77232  12.055  14.683   1.605
25153SOL    HW177233  12.100  14.756   1.562
25153SOL    HW277234  12.125  14.630   1.643
25154SOL     OW77235   6.059  10.667  11.757
25154SOL    HW177236   6.147  10.682  11.792
25154SOL    HW277237   6.060  10.577  11.725
25155SOL     OW77238   1.465   8.957   6.000
25155SOL    HW177239   1.558   8.955   6.025
25155SOL    HW277240   1.441   8.865   5.989
25156SOL     OW77241   6.317   6.265   9.471
25156SOL    HW177242   6.342   6.228   9.386
25156SOL    HW277243   6.258   6.200   9.509
25157SOL     OW77244  10.075  12.400   4.758
25157SOL    HW177245  10.150  12.427   4.810
25157SOL    HW277246  10.057  12.310   4.786
25158SOL     OW77247   3.051  12.007   4.282
25158SOL    HW177248   3.048  11.966   4.368
25158SOL    HW277249   2.976  11.972   4.235
25159SOL     OW77250   4.093  10.048   5.881
25159SOL    HW177251   4.005  10.009   5.881
25159SOL    HW277252   4.098  10.093   5.797
25160SOL     OW77253  14.263  12.220   3.577
25160SOL    HW177254  14.318  12.296   3.558
25160SOL    HW277255  14.231  12.191   3.492
25161SOL     OW77256  11.554  13.733   3.415
25161SOL    HW177257  11.549  13.637   3.415
25161SOL    HW277258  11.608  13.753   3.339
25162SOL     OW77259   6.702  13.898   3.764
25162SOL    HW177260   6.704  13.812   3.805
25162SOL    HW277261   6.656  13.954   3.827
25163SOL     OW77262  10.739  10.093   6.165
25163SOL    HW177263  10.770  10.178   6.198
25163SOL    HW277264  10.648  10.108   6.142
25164SOL     OW77265   2.840   9.854   4.562
25164SOL    HW177266   2.862   9.769   4.600
25164SOL    HW277267   2.758   9.879   4.604
25165SOL     OW77268   7.713   1.575   7.113
25165SOL    HW177269   7.624   1.568   7.148
25165SOL    HW277270   7.748   1.486   7.118
25166SOL     OW77271  13.003   8.336   0.546
25166SOL    HW177272  12.973   8.247   0.530
25166SOL    HW277273  12.941   8.391   0.499
25167SOL     OW77274   4.808   6.744   1.692
25167SOL    HW177275   4.749   6.681   1.733
25167SOL    HW277276   4.865   6.772   1.763
25168SOL     OW77277   1.171   8.906  12.095
25168SOL    HW177278   1.216   8.838  12.144
25168SOL    HW277279   1.216   8.987  12.118
25169SOL     OW77280   3.702   8.972   6.412
25169SOL    HW177281   3.652   8.911   6.466
25169SOL    HW277282   3.684   8.944   6.322
25170SOL     OW77283   9.473   4.946  11.167
25170SOL    HW177284   9.382   4.918  11.171
25170SOL    HW277285   9.517   4.877  11.117
25171SOL     OW77286   3.518   6.882  11.040
25171SOL    HW177287   3.550   6.815  10.981
25171SOL    HW277288   3.431   6.853  11.066
25172SOL     OW77289  12.240   3.091   5.742
25172SOL    HW177290  12.266   3.144   5.667
25172SOL    HW277291  12.288   3.128   5.816
25173SOL     OW77292  12.162   2.708   7.288
25173SOL    HW177293  12.088   2.695   7.228
25173SOL    HW277294  12.182   2.619   7.319
25174SOL     OW77295   1.045  12.258  11.479
25174SOL    HW177296   1.093  12.269  11.397
25174SOL    HW277297   1.079  12.176  11.515
25175SOL     OW77298   0.054   9.265   4.059
25175SOL    HW177299   0.032   9.335   3.997
25175SOL    HW277300   0.143   9.287   4.088
25176SOL     OW77301   5.774  11.771   4.927
25176SOL    HW177302   5.686  11.809   4.928
25176SOL    HW277303   5.830  11.841   4.961
25177SOL     OW77304   2.881  12.909   7.039
25177SOL    HW177305   2.916  12.983   7.089
25177SOL    HW277306   2.800  12.885   7.083
25178SOL     OW77307   8.155   7.062   2.513
25178SOL    HW177308   8.238   7.054   2.560
25178SOL    HW277309   8.132   7.154   2.518
25179SOL     OW77310  12.162   5.171   6.906
25179SOL    HW177311  12.179   5.080   6.881
25179SOL    HW277312  12.215   5.184   6.985
25180SOL     OW77313   6.851   5.345   3.747
25180SOL    HW177314   6.826   5.363   3.656
25180SOL    HW277315   6.925   5.403   3.764
25181SOL     OW77316   5.077   7.166   7.923
25181SOL    HW177317   5.052   7.256   7.901
25181SOL    HW277318   5.049   7.154   8.013
25182SOL     OW77319   0.995  11.307  11.289
25182SOL    HW177320   1.049  11.230  11.270
25182SOL    HW277321   0.908  11.284  11.255
25183SOL     OW77322   0.495   4.322  14.596
25183SOL    HW177323   0.508   4.417  14.603
25183SOL    HW277324   0.581   4.285  14.617
25184SOL     OW77325  11.803   5.017   2.970
25184SOL    HW177326  11.789   5.044   2.879
25184SOL    HW277327  11.787   5.097   3.020
25185SOL     OW77328   0.702   0.084   1.419
25185SOL    HW177329   0.648   0.030   1.477
25185SOL    HW277330   0.752   0.021   1.367
25186SOL     OW77331  10.527   3.659  12.257
25186SOL    HW177332  10.527   3.575  12.211
25186SOL    HW277333  10.436   3.671  12.284
25187SOL     OW77334  12.203   9.413   6.013
25187SOL    HW177335  12.296   9.410   6.035
25187SOL    HW277336  12.200   9.400   5.918
25188SOL     OW77337   1.869   7.859  13.836
25188SOL    HW177338   1.864   7.912  13.916
25188SOL    HW277339   1.951   7.885  13.795
25189SOL     OW77340   7.702   3.929   2.638
25189SOL    HW177341   7.613   3.960   2.655
25189SOL    HW277342   7.758   3.983   2.693
25190SOL     OW77343  10.764  11.604   5.148
25190SOL    HW177344  10.830  11.587   5.215
25190SOL    HW277345  10.680  11.590   5.193
25191SOL     OW77346   7.303   4.909  14.637
25191SOL    HW177347   7.377   4.912  14.698
25191SOL    HW277348   7.230   4.876  14.689
25192SOL     OW77349  11.115  13.144  14.236
25192SOL    HW177350  11.106  13.063  14.185
25192SOL    HW277351  11.079  13.212  14.180
25193SOL     OW77352   9.261  12.391   8.269
25193SOL    HW177353   9.169  12.366   8.272
25193SOL    HW277354   9.260  12.487   8.264
25194SOL     OW77355  13.434   6.563  13.799
25194SOL    HW177356  13.400   6.651  13.780
25194SOL    HW277357  13.486   6.541  13.721
25195SOL     OW77358   9.151  12.605   0.768
25195SOL    HW177359   9.176  12.651   0.848
25195SOL    HW277360   9.232  12.563   0.738
25196SOL     OW77361   9.943   1.108  13.710
25196SOL    HW177362  10.034   1.081  13.726
25196SOL    HW277363   9.949   1.202  13.696
25197SOL     OW77364   8.260   0.855   2.123
25197SOL    HW177365   8.264   0.789   2.054
25197SOL    HW277366   8.340   0.907   2.111
25198SOL     OW77367  12.290   9.854   5.252
25198SOL    HW177368  12.235   9.776   5.244
25198SOL    HW277369  12.343   9.838   5.330
25199SOL     OW77370  11.627   8.219   6.062
25199SOL    HW177371  11.592   8.287   6.005
25199SOL    HW277372  11.590   8.138   6.027
25200SOL     OW77373   3.959   8.373   2.375
25200SOL    HW177374   4.013   8.325   2.313
25200SOL    HW277375   3.998   8.460   2.377
25201SOL     OW77376   1.738   0.143   8.169
25201SOL    HW177377   1.794   0.217   8.145
25201SOL    HW277378   1.695   0.118   8.088
25202SOL     OW77379   3.724  11.711  13.657
25202SOL    HW177380   3.685  11.771  13.594
25202SOL    HW277381   3.786  11.659  13.606
25203SOL     OW77382  14.257   1.962   0.493
25203SOL    HW177383  14.331   1.993   0.545
25203SOL    HW277384  14.259   1.867   0.502
25204SOL     OW77385   4.094   4.998  11.876
25204SOL    HW177386   4.055   4.986  11.963
25204SOL    HW277387   4.157   5.069  11.887
25205SOL     OW77388  14.715   7.318  10.044
25205SOL    HW177389  14.684   7.407  10.030
25205SOL    HW277390  14.807   7.327  10.067
25206SOL     OW77391   2.300   9.893  14.280
25206SOL    HW177392   2.241   9.911  14.207
25206SOL    HW277393   2.250   9.915  14.358
25207SOL     OW77394  13.299   8.604   4.846
25207SOL    HW177395  13.327   8.594   4.938
25207SOL    HW277396  13.318   8.695   4.825
25208SOL     OW77397  11.985   1.177   6.075
25208SOL    HW177398  12.005   1.127   6.154
25208SOL    HW277399  12.058   1.238   6.066
25209SOL     OW77400  11.737   0.997   9.465
25209SOL    HW177401  11.820   0.956   9.492
25209SOL    HW277402  11.671   0.931   9.486
25210SOL     OW77403   4.641   0.018   4.672
25210SOL    HW177404   4.654   0.028   4.578
25210SOL    HW277405   4.689  14.816   4.695
25211SOL     OW77406  10.846   2.601   0.358
25211SOL    HW177407  10.790   2.647   0.295
25211SOL    HW277408  10.912   2.665   0.383
25212SOL     OW77409   4.263   6.784   8.126
25212SOL    HW177410   4.202   6.713   8.148
25212SOL    HW277411   4.231   6.818   8.043
25213SOL     OW77412   4.032   4.878  10.052
25213SOL    HW177413   4.094   4.952  10.054
25213SOL    HW277414   3.974   4.895  10.126
25214SOL     OW77415   1.110   8.068   6.223
25214SOL    HW177416   1.051   8.004   6.263
25214SOL    HW277417   1.172   8.016   6.172
25215SOL     OW77418  11.423   5.382  13.374
25215SOL    HW177419  11.368   5.429  13.437
25215SOL    HW277420  11.371   5.380  13.294
25216SOL     OW77421   7.334   7.827   6.169
25216SOL    HW177422   7.355   7.921   6.168
25216SOL    HW277423   7.395   7.788   6.106
25217SOL     OW77424  11.194  14.275   5.260
25217SOL    HW177425  11.258  14.346   5.255
25217SOL    HW277426  11.139  14.297   5.335
25218SOL     OW77427   0.270   6.520   8.939
25218SOL    HW177428   0.235   6.542   8.852
25218SOL    HW277429   0.250   6.427   8.950
25219SOL     OW77430   9.777   7.957   0.286
25219SOL    HW177431   9.867   7.946   0.316
25219SOL    HW277432   9.734   8.003   0.359
25220SOL     OW77433  14.620  10.634   8.427
25220SOL    HW177434  14.561  10.562   8.403
25220SOL    HW277435  14.577  10.678   8.500
25221SOL     OW77436   8.956   9.710   0.524
25221SOL    HW177437   8.972   9.761   0.444
25221SOL    HW277438   8.867   9.732   0.549
25222SOL     OW77439  12.480  12.398  11.325
25222SOL    HW177440  12.460  12.386  11.417
25222SOL    HW277441  12.455  12.315  11.284
25223SOL     OW77442  14.777   7.966   7.012
25223SOL    HW177443  14.707   7.929   7.066
25223SOL    HW277444  14.733   8.003   6.937
25224SOL     OW77445   2.402   8.272  13.803
25224SOL    HW177446   2.372   8.188  13.836
25224SOL    HW277447   2.405   8.261  13.708
25225SOL     OW77448   8.009   8.740  10.944
25225SOL    HW177449   7.970   8.672  10.889
25225SOL    HW277450   8.069   8.786  10.886
25226SOL     OW77451   6.786   8.563  12.808
25226SOL    HW177452   6.763   8.583  12.899
25226SOL    HW277453   6.780   8.467  12.803
25227SOL     OW77454  13.084   4.351   8.792
25227SOL    HW177455  12.996   4.380   8.816
25227SOL    HW277456  13.070   4.266   8.750
25228SOL     OW77457  10.977  14.206   6.943
25228SOL    HW177458  11.025  14.139   6.992
25228SOL    HW277459  10.926  14.156   6.879
25229SOL     OW77460   1.105   5.602   9.751
25229SOL    HW177461   1.080   5.624   9.661
25229SOL    HW277462   1.039   5.538   9.779
25230SOL     OW77463   1.540   7.111   5.416
25230SOL    HW177464   1.567   7.020   5.400
25230SOL    HW277465   1.445   7.109   5.407
25231SOL     OW77466  13.238   5.994   7.181
25231SOL    HW177467  13.314   6.048   7.204
25231SOL    HW277468  13.251   5.972   7.089
25232SOL     OW77469  12.791   5.292   6.976
25232SOL    HW177470  12.746   5.217   6.937
25232SOL    HW277471  12.793   5.273   7.070
25233SOL     OW77472   7.665   7.094   4.844
25233SOL    HW177473   7.743   7.053   4.806
25233SOL    HW277474   7.592   7.054   4.798
25234SOL     OW77475  13.479   9.694  11.504
25234SOL    HW177476  13.530   9.767  11.541
25234SOL    HW277477  13.413   9.675  11.571
25235SOL     OW77478   4.391   6.074   5.750
25235SOL    HW177479   4.389   6.097   5.657
25235SOL    HW277480   4.423   6.152   5.794
25236SOL     OW77481   6.052  11.115   3.910
25236SOL    HW177482   6.071  11.117   4.004
25236SOL    HW277483   6.099  11.038   3.878
25237SOL     OW77484   9.184   0.120   0.599
25237SOL    HW177485   9.191   0.044   0.541
25237SOL    HW277486   9.201   0.195   0.541
25238SOL     OW77487  12.250   1.013   7.579
25238SOL    HW177488  12.318   0.956   7.614
25238SOL    HW277489  12.190   1.027   7.653
25239SOL     OW77490  13.052  11.725  14.289
25239SOL    HW177491  13.093  11.696  14.370
25239SOL    HW277492  13.096  11.674  14.221
25240SOL     OW77493   0.645  14.346  10.860
25240SOL    HW177494   0.598  14.265  10.837
25240SOL    HW277495   0.728  14.315  10.897
25241SOL     OW77496   4.191  12.006  14.449
25241SOL    HW177497   4.127  11.936  14.443
25241SOL    HW277498   4.233  11.994  14.534
25242SOL     OW77499   7.955   4.246   1.779
25242SOL    HW177500   7.960   4.225   1.872
25242SOL    HW277501   8.038   4.289   1.759
25243SOL     OW77502  13.517   9.798   2.577
25243SOL    HW177503  13.462   9.875   2.588
25243SOL    HW277504  13.456   9.724   2.578
25244SOL     OW77505   2.861  10.244   6.068
25244SOL    HW177506   2.798  10.178   6.096
25244SOL    HW277507   2.928  10.244   6.135
25245SOL     OW77508  10.905   8.741   9.689
25245SOL    HW177509  10.977   8.776   9.636
25245SOL    HW277510  10.826   8.782   9.652
25246SOL     OW77511  13.183   0.266   3.391
25246SOL    HW177512  13.103   0.259   3.443
25246SOL    HW277513  13.165   0.213   3.313
25247SOL     OW77514  14.613  10.475  10.783
25247SOL    HW177515  14.602  10.435  10.697
25247SOL    HW277516  14.592  10.405  10.845
25248SOL     OW77517   2.102  12.573  10.955
25248SOL    HW177518   2.007  12.582  10.955
25248SOL    HW277519   2.129  12.595  11.044
25249SOL     OW77520  10.658   3.529   4.391
25249SOL    HW177521  10.707   3.448   4.377
25249SOL    HW277522  10.642   3.562   4.302
25250SOL     OW77523   5.487   6.325   8.266
25250SOL    HW177524   5.447   6.334   8.180
25250SOL    HW277525   5.480   6.412   8.305
25251SOL     OW77526   4.689   6.759  10.653
25251SOL    HW177527   4.648   6.844  10.669
25251SOL    HW277528   4.767   6.759  10.708
25252SOL     OW77529   4.426   2.604   1.396
25252SOL    HW177530   4.487   2.676   1.410
25252SOL    HW277531   4.341   2.647   1.385
25253SOL     OW77532   5.868   7.277  14.038
25253SOL    HW177533   5.923   7.199  14.031
25253SOL    HW277534   5.841   7.295  13.948
25254SOL     OW77535   9.716  14.525  12.450
25254SOL    HW177536   9.799  14.477  12.446
25254SOL    HW277537   9.657  14.466  12.498
25255SOL     OW77538   5.199   1.420   7.673
25255SOL    HW177539   5.141   1.413   7.749
25255SOL    HW277540   5.246   1.337   7.671
25256SOL     OW77541   8.875   9.734   9.991
25256SOL    HW177542   8.970   9.745   9.992
25256SOL    HW277543   8.841   9.814  10.032
25257SOL     OW77544  14.132   0.948  10.804
25257SOL    HW177545  14.083   0.866  10.799
25257SOL    HW277546  14.102   0.989  10.885
25258SOL     OW77547   8.956  13.390   4.903
25258SOL    HW177548   8.975  13.425   4.990
25258SOL    HW277549   8.979  13.297   4.910
25259SOL     OW77550  12.364   5.920   2.731
25259SOL    HW177551  12.363   5.997   2.674
25259SOL    HW277552  12.300   5.940   2.799
25260SOL     OW77553  13.831   9.589  13.794
25260SOL    HW177554  13.904   9.540  13.833
25260SOL    HW277555  13.856   9.598  13.702
25261SOL     OW77556  11.662   5.486  13.273
25261SOL    HW177557  11.698   5.542  13.342
25261SOL    HW277558  11.581   5.451  13.310
25262SOL     OW77559   2.900   1.868  13.455
25262SOL    HW177560   2.953   1.793  13.429
25262SOL    HW277561   2.910   1.931  13.383
25263SOL     OW77562  12.616   6.871  14.484
25263SOL    HW177563  12.681   6.936  14.512
25263SOL    HW277564  12.658   6.787  14.501
25264SOL     OW77565   1.642   9.198   8.939
25264SOL    HW177566   1.686   9.125   8.896
25264SOL    HW277567   1.571   9.158   8.989
25265SOL     OW77568  13.155  11.843   7.821
25265SOL    HW177569  13.161  11.915   7.758
25265SOL    HW277570  13.137  11.766   7.767
25266SOL     OW77571  10.167   0.911   4.345
25266SOL    HW177572  10.216   0.950   4.417
25266SOL    HW277573  10.128   0.832   4.383
25267SOL     OW77574   6.395  10.574   6.132
25267SOL    HW177575   6.454  10.611   6.197
25267SOL    HW277576   6.452  10.552   6.058
25268SOL     OW77577  13.565   5.878  10.250
25268SOL    HW177578  13.496   5.812  10.241
25268SOL    HW277579  13.525   5.946  10.303
25269SOL     OW77580  10.751  14.061   8.247
25269SOL    HW177581  10.772  14.101   8.331
25269SOL    HW277582  10.701  14.128   8.201
25270SOL     OW77583  12.779   1.296   9.526
25270SOL    HW177584  12.750   1.216   9.571
25270SOL    HW277585  12.867   1.276   9.495
25271SOL     OW77586   7.262  10.807   8.378
25271SOL    HW177587   7.348  10.768   8.396
25271SOL    HW277588   7.238  10.772   8.292
25272SOL     OW77589   6.952   6.043   7.471
25272SOL    HW177590   6.861   6.073   7.468
25272SOL    HW277591   6.970   6.031   7.564
25273SOL     OW77592  14.581  13.417   5.535
25273SOL    HW177593  14.557  13.486   5.473
25273SOL    HW277594  14.590  13.339   5.481
25274SOL     OW77595   0.090   7.894   2.945
25274SOL    HW177596   0.087   7.989   2.950
25274SOL    HW277597   0.120   7.876   2.856
25275SOL     OW77598  13.380  13.956  10.471
25275SOL    HW177599  13.470  13.986  10.458
25275SOL    HW277600  13.326  14.035  10.460
25276SOL     OW77601  12.886   7.762  10.316
25276SOL    HW177602  12.809   7.737  10.264
25276SOL    HW277603  12.853   7.828  10.377
25277SOL     OW77604   7.251   9.264   4.373
25277SOL    HW177605   7.304   9.304   4.303
25277SOL    HW277606   7.250   9.329   4.442
25278SOL     OW77607  11.993  14.740  13.206
25278SOL    HW177608  12.026  14.672  13.148
25278SOL    HW277609  11.970  14.695  13.287
25279SOL     OW77610   5.386   2.246   2.871
25279SOL    HW177611   5.349   2.334   2.879
25279SOL    HW277612   5.425   2.244   2.784
25280SOL     OW77613   4.224   0.258   0.149
25280SOL    HW177614   4.201   0.166   0.162
25280SOL    HW277615   4.290   0.257   0.079
25281SOL     OW77616  13.155   2.219   0.695
25281SOL    HW177617  13.164   2.151   0.628
25281SOL    HW277618  13.152   2.171   0.777
25282SOL     OW77619   0.543  11.343   6.204
25282SOL    HW177620   0.616  11.365   6.145
25282SOL    HW277621   0.586  11.315   6.285
25283SOL     OW77622   1.572  11.945  13.804
25283SOL    HW177623   1.490  11.920  13.845
25283SOL    HW277624   1.548  12.013  13.741
25284SOL     OW77625   0.581   1.631  12.475
25284SOL    HW177626   0.587   1.539  12.449
25284SOL    HW277627   0.648   1.675  12.423
25285SOL     OW77628  13.733   0.726  13.357
25285SOL    HW177629  13.827   0.732  13.370
25285SOL    HW277630  13.716   0.778  13.279
25286SOL     OW77631   2.045  10.730  10.597
25286SOL    HW177632   2.100  10.670  10.646
25286SOL    HW277633   2.054  10.814  10.642
25287SOL     OW77634   8.383  11.963   8.567
25287SOL    HW177635   8.458  12.009   8.604
25287SOL    HW277636   8.371  11.887   8.623
25288SOL     OW77637   4.249  14.088   2.965
25288SOL    HW177638   4.342  14.071   2.980
25288SOL    HW277639   4.203  14.027   3.023
25289SOL     OW77640   9.527   4.657   9.871
25289SOL    HW177641   9.540   4.578   9.923
25289SOL    HW277642   9.525   4.728   9.936
25290SOL     OW77643  10.419   9.426   1.793
25290SOL    HW177644  10.452   9.359   1.734
25290SOL    HW277645  10.436   9.392   1.881
25291SOL     OW77646   1.369  10.109  10.080
25291SOL    HW177647   1.385  10.048  10.008
25291SOL    HW277648   1.456  10.130  10.114
25292SOL     OW77649   6.150  13.933  13.568
25292SOL    HW177650   6.193  13.942  13.483
25292SOL    HW277651   6.128  14.023  13.593
25293SOL     OW77652  10.068  12.278   3.881
25293SOL    HW177653  10.161  12.291   3.901
25293SOL    HW277654  10.038  12.363   3.850
25294SOL     OW77655   1.239   4.271   6.403
25294SOL    HW177656   1.168   4.335   6.408
25294SOL    HW277657   1.279   4.286   6.317
25295SOL     OW77658   4.902   5.933  14.594
25295SOL    HW177659   4.907   6.020  14.555
25295SOL    HW277660   4.987   5.892  14.573
25296SOL     OW77661   2.702   4.532  14.402
25296SOL    HW177662   2.723   4.531  14.309
25296SOL    HW277663   2.730   4.446  14.434
25297SOL     OW77664  14.023   3.238   6.526
25297SOL    HW177665  13.990   3.151   6.503
25297SOL    HW277666  14.017   3.241   6.622
25298SOL     OW77667   8.603   1.674  10.687
25298SOL    HW177668   8.550   1.623  10.625
25298SOL    HW277669   8.693   1.645  10.673
25299SOL     OW77670   7.774   1.488  11.212
25299SOL    HW177671   7.713   1.514  11.143
25299SOL    HW277672   7.859   1.522  11.184
25300SOL     OW77673   8.833   9.370   0.500
25300SOL    HW177674   8.878   9.400   0.579
25300SOL    HW277675   8.784   9.447   0.470
25301SOL     OW77676   9.275  14.836   2.501
25301SOL    HW177677   9.220   0.036   2.505
25301SOL    HW277678   9.294  14.825   2.408
25302SOL     OW77679   8.005   7.700   5.134
25302SOL    HW177680   8.008   7.707   5.038
25302SOL    HW277681   8.096   7.684   5.159
25303SOL     OW77682   7.293  13.203  10.028
25303SOL    HW177683   7.361  13.268  10.045
25303SOL    HW277684   7.248  13.192  10.111
25304SOL     OW77685  12.374   5.635   0.707
25304SOL    HW177686  12.431   5.666   0.777
25304SOL    HW277687  12.408   5.677   0.628
25305SOL     OW77688   7.114   7.915   3.227
25305SOL    HW177689   7.097   7.963   3.146
25305SOL    HW277690   7.209   7.921   3.240
25306SOL     OW77691   3.931  11.780  13.312
25306SOL    HW177692   3.997  11.848  13.303
25306SOL    HW277693   3.943  11.725  13.234
25307SOL     OW77694   6.682   9.056   1.459
25307SOL    HW177695   6.755   9.008   1.420
25307SOL    HW277696   6.644   8.994   1.522
25308SOL     OW77697   6.202   8.809   5.419
25308SOL    HW177698   6.271   8.854   5.371
25308SOL    HW277699   6.188   8.727   5.372
25309SOL     OW77700   1.033   8.324  10.391
25309SOL    HW177701   1.121   8.286  10.382
25309SOL    HW277702   1.045   8.397  10.451
25310SOL     OW77703  11.248  10.537  10.425
25310SOL    HW177704  11.256  10.468  10.492
25310SOL    HW277705  11.156  10.536  10.401
25311SOL     OW77706  14.563  11.851  10.475
25311SOL    HW177707  14.553  11.939  10.512
25311SOL    HW277708  14.489  11.841  10.416
25312SOL     OW77709   0.643   4.847   9.660
25312SOL    HW177710   0.714   4.830   9.598
25312SOL    HW277711   0.565   4.850   9.606
25313SOL     OW77712   7.374  12.857  10.495
25313SOL    HW177713   7.466  12.870  10.470
25313SOL    HW277714   7.330  12.834  10.414
25314SOL     OW77715   8.493   3.136  12.436
25314SOL    HW177716   8.462   3.227  12.442
25314SOL    HW277717   8.588   3.143  12.429
25315SOL     OW77718   3.465   3.659   9.121
25315SOL    HW177719   3.456   3.613   9.204
25315SOL    HW277720   3.413   3.607   9.060
25316SOL     OW77721   3.211  14.546  13.438
25316SOL    HW177722   3.132  14.599  13.443
25316SOL    HW277723   3.192  14.481  13.370
25317SOL     OW77724   6.049   4.796   7.368
25317SOL    HW177725   5.962   4.835   7.376
25317SOL    HW277726   6.062   4.748   7.450
25318SOL     OW77727   8.980  12.589  11.493
25318SOL    HW177728   8.994  12.509  11.442
25318SOL    HW277729   8.891  12.582  11.527
25319SOL     OW77730   8.199   2.384   9.856
25319SOL    HW177731   8.157   2.454   9.907
25319SOL    HW277732   8.142   2.308   9.870
25320SOL     OW77733   6.741  13.096  13.552
25320SOL    HW177734   6.811  13.152  13.520
25320SOL    HW277735   6.739  13.022  13.491
25321SOL     OW77736   3.309   3.951  10.260
25321SOL    HW177737   3.291   4.034  10.217
25321SOL    HW277738   3.223   3.922  10.293
25322SOL     OW77739  10.398   7.696   6.235
25322SOL    HW177740  10.486   7.690   6.199
25322SOL    HW277741  10.346   7.738   6.166
25323SOL     OW77742  10.966   0.152   4.074
25323SOL    HW177743  10.995   0.160   4.165
25323SOL    HW277744  11.043   0.120   4.027
25324SOL     OW77745   4.712   1.587   3.036
25324SOL    HW177746   4.729   1.642   3.112
25324SOL    HW277747   4.638   1.532   3.063
25325SOL     OW77748   1.732   2.913  12.938
25325SOL    HW177749   1.708   2.996  12.898
25325SOL    HW277750   1.726   2.850  12.866
25326SOL     OW77751   1.528   0.658   3.235
25326SOL    HW177752   1.558   0.733   3.286
25326SOL    HW277753   1.517   0.588   3.300
25327SOL     OW77754   6.816   6.578  14.314
25327SOL    HW177755   6.880   6.567  14.244
25327SOL    HW277756   6.732   6.550  14.275
25328SOL     OW77757   6.623   8.347   0.774
25328SOL    HW177758   6.688   8.295   0.822
25328SOL    HW277759   6.614   8.427   0.825
25329SOL     OW77760   5.205   9.720   0.779
25329SOL    HW177761   5.278   9.773   0.748
25329SOL    HW277762   5.235   9.681   0.860
25330SOL     OW77763   2.512  11.914   2.304
25330SOL    HW177764   2.420  11.927   2.328
25330SOL    HW277765   2.550  11.869   2.380
25331SOL     OW77766   8.577  10.325  14.431
25331SOL    HW177767   8.654  10.380  14.435
25331SOL    HW277768   8.516  10.373  14.375
25332SOL     OW77769   8.710   3.321  11.342
25332SOL    HW177770   8.647   3.392  11.329
25332SOL    HW277771   8.731   3.324  11.435
25333SOL     OW77772   8.252   3.518  11.868
25333SOL    HW177773   8.171   3.519  11.919
25333SOL    HW277774   8.278   3.426  11.865
25334SOL     OW77775   8.399   5.814   6.158
25334SOL    HW177776   8.350   5.760   6.220
25334SOL    HW277777   8.377   5.904   6.182
25335SOL     OW77778   4.860   1.401  12.538
25335SOL    HW177779   4.774   1.375  12.506
25335SOL    HW277780   4.921   1.344  12.492
25336SOL     OW77781   7.817  12.489   5.148
25336SOL    HW177782   7.871  12.478   5.226
25336SOL    HW277783   7.751  12.421   5.154
25337SOL     OW77784   0.619   5.070  12.617
25337SOL    HW177785   0.564   5.101  12.688
25337SOL    HW277786   0.709   5.092  12.644
25338SOL     OW77787  12.632  12.326   0.126
25338SOL    HW177788  12.642  12.358   0.215
25338SOL    HW277789  12.634  12.231   0.134
25339SOL     OW77790  10.571   4.000   4.947
25339SOL    HW177791  10.494   3.948   4.926
25339SOL    HW277792  10.634   3.979   4.878
25340SOL     OW77793   2.321  12.330   5.548
25340SOL    HW177794   2.328  12.322   5.643
25340SOL    HW277795   2.398  12.285   5.514
25341SOL     OW77796   7.639   9.998  12.537
25341SOL    HW177797   7.551   9.959  12.543
25341SOL    HW277798   7.656  10.004  12.443
25342SOL     OW77799   7.110   5.144  10.634
25342SOL    HW177800   7.203   5.143  10.654
25342SOL    HW277801   7.106   5.135  10.539
25343SOL     OW77802  13.207   2.740  11.572
25343SOL    HW177803  13.160   2.772  11.649
25343SOL    HW277804  13.171   2.653  11.557
25344SOL     OW77805   4.203   9.652  13.714
25344SOL    HW177806   4.283   9.622  13.757
25344SOL    HW277807   4.152   9.573  13.699
25345SOL     OW77808   2.921  14.685  10.858
25345SOL    HW177809   2.847  14.746  10.858
25345SOL    HW277810   2.881  14.599  10.844
25346SOL     OW77811   3.006   8.161   5.232
25346SOL    HW177812   3.031   8.253   5.239
25346SOL    HW277813   2.963   8.153   5.147
25347SOL     OW77814   3.067  13.609  10.660
25347SOL    HW177815   2.985  13.584  10.618
25347SOL    HW277816   3.047  13.692  10.704
25348SOL     OW77817   2.975  11.854  11.762
25348SOL    HW177818   3.021  11.891  11.687
25348SOL    HW277819   2.890  11.899  11.762
25349SOL     OW77820  12.126   4.682  10.683
25349SOL    HW177821  12.038   4.667  10.716
25349SOL    HW277822  12.125   4.774  10.655
25350SOL     OW77823  11.081   8.856   7.008
25350SOL    HW177824  11.029   8.845   7.088
25350SOL    HW277825  11.017   8.846   6.937
25351SOL     OW77826  12.165   3.711   6.543
25351SOL    HW177827  12.155   3.727   6.636
25351SOL    HW277828  12.119   3.628   6.527
25352SOL     OW77829   9.281  11.156   2.916
25352SOL    HW177830   9.190  11.151   2.886
25352SOL    HW277831   9.289  11.084   2.979
25353SOL     OW77832   4.223   3.357  12.518
25353SOL    HW177833   4.159   3.286  12.519
25353SOL    HW277834   4.293   3.326  12.461
25354SOL     OW77835  14.153  11.910  12.277
25354SOL    HW177836  14.196  11.832  12.312
25354SOL    HW277837  14.114  11.952  12.353
25355SOL     OW77838   1.105   4.442  14.114
25355SOL    HW177839   1.105   4.396  14.198
25355SOL    HW277840   1.023   4.416  14.073
25356SOL     OW77841  14.571   7.098   1.617
25356SOL    HW177842  14.663   7.072   1.605
25356SOL    HW277843  14.536   7.101   1.528
25357SOL     OW77844   3.799   3.142  12.746
25357SOL    HW177845   3.852   3.208  12.791
25357SOL    HW277846   3.809   3.164  12.653
25358SOL     OW77847   2.580  14.563   7.729
25358SOL    HW177848   2.651  14.609   7.683
25358SOL    HW277849   2.625  14.499   7.784
25359SOL     OW77850   0.597   1.263  14.688
25359SOL    HW177851   0.591   1.300  14.776
25359SOL    HW277852   0.691   1.245  14.676
25360SOL     OW77853  13.674   9.811  12.406
25360SOL    HW177854  13.637   9.806  12.494
25360SOL    HW277855  13.727   9.890  12.407
25361SOL     OW77856   5.989  10.798  10.279
25361SOL    HW177857   6.050  10.750  10.336
25361SOL    HW277858   5.930  10.731  10.244
25362SOL     OW77859   9.356  10.134  14.013
25362SOL    HW177860   9.382  10.214  14.061
25362SOL    HW277861   9.333  10.165  13.926
25363SOL     OW77862   6.495   2.982  13.231
25363SOL    HW177863   6.500   2.917  13.301
25363SOL    HW277864   6.538   3.060  13.267
25364SOL     OW77865  10.834   4.005   3.021
25364SOL    HW177866  10.926   3.990   3.000
25364SOL    HW277867  10.815   4.092   2.986
25365SOL     OW77868  12.295   6.186   7.233
25365SOL    HW177869  12.287   6.246   7.307
25365SOL    HW277870  12.262   6.236   7.158
25366SOL     OW77871   8.479  11.888  14.324
25366SOL    HW177872   8.390  11.923  14.331
25366SOL    HW277873   8.530  11.959  14.287
25367SOL     OW77874   3.177   2.033  13.263
25367SOL    HW177875   3.139   2.025  13.175
25367SOL    HW277876   3.254   2.089  13.251
25368SOL     OW77877   7.523   6.127   8.262
25368SOL    HW177878   7.440   6.122   8.215
25368SOL    HW277879   7.529   6.045   8.310
25369SOL     OW77880   6.498   7.109   8.127
25369SOL    HW177881   6.405   7.092   8.143
25369SOL    HW277882   6.534   7.023   8.104
25370SOL     OW77883   1.994  12.619   3.824
25370SOL    HW177884   2.055  12.555   3.862
25370SOL    HW277885   1.984  12.686   3.891
25371SOL     OW77886   1.060   5.271   6.016
25371SOL    HW177887   1.094   5.298   6.102
25371SOL    HW277888   1.130   5.292   5.955
25372SOL     OW77889  14.194   8.566   8.785
25372SOL    HW177890  14.110   8.540   8.746
25372SOL    HW277891  14.170   8.610   8.866
25373SOL     OW77892   9.281  13.627   1.781
25373SOL    HW177893   9.307  13.697   1.840
25373SOL    HW277894   9.250  13.557   1.839
25374SOL     OW77895   6.534  11.795  11.551
25374SOL    HW177896   6.524  11.726  11.616
25374SOL    HW277897   6.446  11.806  11.514
25375SOL     OW77898  14.818  13.771  13.075
25375SOL    HW177899  14.731  13.757  13.113
25375SOL    HW277900  14.830  13.866  13.076
25376SOL     OW77901   6.344   6.740   9.268
25376SOL    HW177902   6.394   6.722   9.189
25376SOL    HW277903   6.315   6.831   9.258
25377SOL     OW77904   4.437  12.266   7.868
25377SOL    HW177905   4.490  12.194   7.903
25377SOL    HW277906   4.480  12.290   7.786
25378SOL     OW77907  10.219   2.079   4.344
25378SOL    HW177908  10.142   2.024   4.357
25378SOL    HW277909  10.196   2.136   4.271
25379SOL     OW77910  13.688  14.323   9.558
25379SOL    HW177911  13.661  14.248   9.504
25379SOL    HW277912  13.763  14.360   9.511
25380SOL     OW77913   1.998   7.392   3.362
25380SOL    HW177914   1.988   7.304   3.398
25380SOL    HW277915   2.028   7.445   3.437
25381SOL     OW77916   7.505   1.717   0.112
25381SOL    HW177917   7.525   1.661   0.187
25381SOL    HW277918   7.589   1.727   0.067
25382SOL     OW77919   3.905   9.042   7.988
25382SOL    HW177920   3.993   9.057   7.956
25382SOL    HW277921   3.871   9.129   8.006
25383SOL     OW77922  10.134   8.925   2.303
25383SOL    HW177923  10.146   8.838   2.342
25383SOL    HW277924  10.164   8.916   2.213
25384SOL     OW77925  14.477   8.192   3.000
25384SOL    HW177926  14.435   8.168   2.918
25384SOL    HW277927  14.459   8.285   3.010
25385SOL     OW77928  11.876   8.587  14.837
25385SOL    HW177929  11.865   8.497  14.805
25385SOL    HW277930  11.944   8.579   0.027
25386SOL     OW77931   7.785   0.699   4.120
25386SOL    HW177932   7.738   0.729   4.042
25386SOL    HW277933   7.725   0.718   4.192
25387SOL     OW77934   7.386   2.482   1.176
25387SOL    HW177935   7.337   2.400   1.175
25387SOL    HW277936   7.477   2.456   1.189
25388SOL     OW77937  13.871  11.182  10.655
25388SOL    HW177938  13.883  11.099  10.702
25388SOL    HW277939  13.789  11.217  10.689
25389SOL     OW77940   0.367  13.108  14.428
25389SOL    HW177941   0.338  13.178  14.486
25389SOL    HW277942   0.463  13.114  14.429
25390SOL     OW77943   5.767   9.480   6.712
25390SOL    HW177944   5.677   9.504   6.734
25390SOL    HW277945   5.762   9.386   6.692
25391SOL     OW77946  12.565  12.334  14.622
25391SOL    HW177947  12.653  12.298  14.622
25391SOL    HW277948  12.566  12.402  14.555
25392SOL     OW77949   5.515   8.394  11.887
25392SOL    HW177950   5.497   8.444  11.966
25392SOL    HW277951   5.430   8.385  11.844
25393SOL     OW77952   6.684   1.708   0.170
25393SOL    HW177953   6.637   1.625   0.182
25393SOL    HW277954   6.766   1.683   0.128
25394SOL     OW77955   5.993   3.444   5.649
25394SOL    HW177956   6.040   3.467   5.730
25394SOL    HW277957   5.991   3.526   5.599
25395SOL     OW77958   3.361   5.406   5.524
25395SOL    HW177959   3.280   5.386   5.570
25395SOL    HW277960   3.427   5.414   5.593
25396SOL     OW77961   1.470   5.049   5.609
25396SOL    HW177962   1.541   5.067   5.670
25396SOL    HW277963   1.391   5.078   5.655
25397SOL     OW77964  11.872   3.885  10.630
25397SOL    HW177965  11.854   3.800  10.671
25397SOL    HW277966  11.855   3.949  10.699
25398SOL     OW77967   8.323  10.289   0.741
25398SOL    HW177968   8.390  10.222   0.730
25398SOL    HW277969   8.352  10.339   0.817
25399SOL     OW77970  14.819  11.365  12.225
25399SOL    HW177971  14.779  11.363  12.313
25399SOL    HW277972  14.805  11.277  12.190
25400SOL     OW77973   7.995  13.592  11.438
25400SOL    HW177974   8.030  13.668  11.486
25400SOL    HW277975   7.968  13.531  11.507
25401SOL     OW77976   3.852   1.256  12.633
25401SOL    HW177977   3.830   1.164  12.621
25401SOL    HW277978   3.878   1.286  12.547
25402SOL     OW77979   5.098   8.101   0.332
25402SOL    HW177980   5.087   8.154   0.411
25402SOL    HW277981   5.110   8.012   0.366
25403SOL     OW77982  11.262  10.226   1.922
25403SOL    HW177983  11.221  10.304   1.961
25403SOL    HW277984  11.355  10.248   1.917
25404SOL     OW77985   9.519   7.020  10.876
25404SOL    HW177986   9.480   7.090  10.824
25404SOL    HW277987   9.600   6.998  10.830
25405SOL     OW77988  10.802   1.253  14.664
25405SOL    HW177989  10.708   1.236  14.656
25405SOL    HW277990  10.814   1.336  14.618
25406SOL     OW77991  13.079   8.273  11.903
25406SOL    HW177992  13.078   8.242  11.812
25406SOL    HW277993  13.023   8.350  11.902
25407SOL     OW77994   5.522   1.902  13.076
25407SOL    HW177995   5.608   1.945  13.077
25407SOL    HW277996   5.531   1.830  13.139
25408SOL     OW77997   2.998   1.565   3.506
25408SOL    HW177998   2.975   1.500   3.572
25408SOL    HW277999   2.930   1.556   3.439
25409SOL     OW78000   1.365   6.954  14.479
25409SOL    HW178001   1.273   6.926  14.478
25409SOL    HW278002   1.362   7.044  14.510
25410SOL     OW78003   1.217   5.674  10.139
25410SOL    HW178004   1.231   5.580  10.130
25410SOL    HW278005   1.196   5.686  10.232
25411SOL     OW78006   7.423   0.277   3.249
25411SOL    HW178007   7.332   0.307   3.256
25411SOL    HW278008   7.470   0.354   3.218
25412SOL     OW78009   0.974   7.119  14.358
25412SOL    HW178010   0.907   7.167  14.408
25412SOL    HW278011   0.925   7.078  14.286
25413SOL     OW78012  10.551   4.090   8.278
25413SOL    HW178013  10.555   4.183   8.301
25413SOL    HW278014  10.516   4.088   8.189
25414SOL     OW78015   7.830  12.648  11.462
25414SOL    HW178016   7.743  12.612  11.444
25414SOL    HW278017   7.814  12.738  11.488
25415SOL     OW78018  12.709   4.032   6.013
25415SOL    HW178019  12.705   4.126   5.998
25415SOL    HW278020  12.803   4.013   6.023
25416SOL     OW78021   5.068  12.877   3.097
25416SOL    HW178022   5.128  12.875   3.022
25416SOL    HW278023   5.015  12.798   3.087
25417SOL     OW78024  10.818  10.047   1.304
25417SOL    HW178025  10.889  10.016   1.360
25417SOL    HW278026  10.772  10.112   1.356
25418SOL     OW78027   3.401  14.304  14.098
25418SOL    HW178028   3.310  14.309  14.126
25418SOL    HW278029   3.443  14.381  14.137
25419SOL     OW78030   1.186   3.903   3.031
25419SOL    HW178031   1.208   3.962   2.959
25419SOL    HW278032   1.164   3.960   3.104
25420SOL     OW78033  13.351   5.852   8.543
25420SOL    HW178034  13.259   5.844   8.517
25420SOL    HW278035  13.355   5.936   8.588
25421SOL     OW78036  11.361  13.333   6.349
25421SOL    HW178037  11.335  13.333   6.256
25421SOL    HW278038  11.377  13.426   6.369
25422SOL     OW78039   5.325   3.581   1.366
25422SOL    HW178040   5.407   3.533   1.356
25422SOL    HW278041   5.300   3.604   1.276
25423SOL     OW78042   1.864   9.435  11.986
25423SOL    HW178043   1.953   9.403  11.970
25423SOL    HW278044   1.852   9.427  12.080
25424SOL     OW78045  13.103  13.292   2.582
25424SOL    HW178046  13.018  13.255   2.556
25424SOL    HW278047  13.093  13.310   2.675
25425SOL     OW78048   3.466   2.146   3.637
25425SOL    HW178049   3.470   2.181   3.725
25425SOL    HW278050   3.511   2.210   3.582
25426SOL     OW78051  13.898   8.889  13.988
25426SOL    HW178052  13.928   8.894  13.898
25426SOL    HW278053  13.938   8.964  14.031
25427SOL     OW78054   1.512   9.019   3.045
25427SOL    HW178055   1.594   8.971   3.051
25427SOL    HW278056   1.461   8.991   3.121
25428SOL     OW78057   3.298   1.815   3.700
25428SOL    HW178058   3.203   1.811   3.702
25428SOL    HW278059   3.318   1.901   3.664
25429SOL     OW78060  10.892   3.294   6.255
25429SOL    HW178061  10.931   3.377   6.228
25429SOL    HW278062  10.839   3.316   6.332
25430SOL     OW78063   9.566  10.702  10.418
25430SOL    HW178064   9.570  10.693  10.323
25430SOL    HW278065   9.503  10.773  10.433
25431SOL     OW78066   6.982   6.161   5.128
25431SOL    HW178067   6.993   6.256   5.121
25431SOL    HW278068   6.894   6.145   5.092
25432SOL     OW78069   6.501   0.935  12.300
25432SOL    HW178070   6.549   0.895  12.372
25432SOL    HW278071   6.499   0.868  12.232
25433SOL     OW78072   0.890   8.682   2.018
25433SOL    HW178073   0.876   8.657   2.110
25433SOL    HW278074   0.985   8.692   2.010
25434SOL     OW78075  13.212   3.697   3.336
25434SOL    HW178076  13.134   3.740   3.301
25434SOL    HW278077  13.279   3.710   3.269
25435SOL     OW78078  11.467   8.539   7.297
25435SOL    HW178079  11.407   8.583   7.236
25435SOL    HW278080  11.426   8.454   7.313
25436SOL     OW78081   9.611  11.416  11.873
25436SOL    HW178082   9.540  11.414  11.808
25436SOL    HW278083   9.647  11.328  11.872
25437SOL     OW78084  14.705   4.741   6.295
25437SOL    HW178085  14.800   4.751   6.294
25437SOL    HW278086  14.673   4.805   6.232
25438SOL     OW78087   2.304   7.848   9.527
25438SOL    HW178088   2.305   7.814   9.438
25438SOL    HW278089   2.329   7.940   9.519
25439SOL     OW78090   2.481  14.325   4.919
25439SOL    HW178091   2.540  14.397   4.898
25439SOL    HW278092   2.534  14.264   4.970
25440SOL     OW78093   3.189   9.513   4.800
25440SOL    HW178094   3.141   9.556   4.871
25440SOL    HW278095   3.272   9.560   4.795
25441SOL     OW78096   2.191   3.091   5.767
25441SOL    HW178097   2.138   3.051   5.836
25441SOL    HW278098   2.157   3.181   5.759
25442SOL     OW78099   9.959   9.620   7.049
25442SOL    HW178100  10.042   9.658   7.020
25442SOL    HW278101   9.936   9.558   6.979
25443SOL     OW78102  13.711   4.513   5.282
25443SOL    HW178103  13.652   4.589   5.277
25443SOL    HW278104  13.678   4.463   5.357
25444SOL     OW78105   6.699   6.967  12.730
25444SOL    HW178106   6.615   7.009  12.749
25444SOL    HW278107   6.756   6.992  12.803
25445SOL     OW78108   0.575   4.921   5.273
25445SOL    HW178109   0.536   4.998   5.313
25445SOL    HW278110   0.624   4.878   5.343
25446SOL     OW78111   8.510  10.402  12.588
25446SOL    HW178112   8.549  10.388  12.674
25446SOL    HW278113   8.416  10.405  12.604
25447SOL     OW78114   0.046  10.404  12.414
25447SOL    HW178115  14.851  10.375  12.359
25447SOL    HW278116   0.029  10.365  12.500
25448SOL     OW78117   0.614   5.044   7.235
25448SOL    HW178118   0.681   5.008   7.293
25448SOL    HW278119   0.531   5.029   7.281
25449SOL     OW78120  11.409   6.551   2.496
25449SOL    HW178121  11.385   6.533   2.405
25449SOL    HW278122  11.329   6.587   2.535
25450SOL     OW78123   5.667   2.344  14.793
25450SOL    HW178124   5.643   2.273  14.852
25450SOL    HW278125   5.763   2.347  14.797
25451SOL     OW78126  13.267   1.053   7.212
25451SOL    HW178127  13.315   1.122   7.167
25451SOL    HW278128  13.197   1.028   7.152
25452SOL     OW78129   5.767   1.330   6.068
25452SOL    HW178130   5.817   1.262   6.113
25452SOL    HW278131   5.757   1.298   5.979
25453SOL     OW78132   0.637   0.328   8.375
25453SOL    HW178133   0.643   0.363   8.463
25453SOL    HW278134   0.586   0.393   8.326
25454SOL     OW78135   1.115   6.775   0.100
25454SOL    HW178136   1.207   6.763   0.078
25454SOL    HW278137   1.067   6.751   0.020
25455SOL     OW78138   2.418   2.795   5.906
25455SOL    HW178139   2.402   2.887   5.923
25455SOL    HW278140   2.333   2.753   5.917
25456SOL     OW78141  13.194   9.938   0.459
25456SOL    HW178142  13.245   9.887   0.523
25456SOL    HW278143  13.103   9.918   0.480
25457SOL     OW78144   8.937   2.588  14.305
25457SOL    HW178145   9.031   2.573  14.299
25457SOL    HW278146   8.907   2.528  14.373
25458SOL     OW78147  13.024  10.579   5.196
25458SOL    HW178148  13.092  10.591   5.130
25458SOL    HW278149  12.977  10.500   5.168
25459SOL     OW78150   1.339   1.074   6.808
25459SOL    HW178151   1.278   1.092   6.736
25459SOL    HW278152   1.367   0.984   6.794
25460SOL     OW78153   8.289  13.947   9.508
25460SOL    HW178154   8.331  13.945   9.594
25460SOL    HW278155   8.336  13.882   9.457
25461SOL     OW78156   0.550   2.427  12.603
25461SOL    HW178157   0.617   2.380  12.653
25461SOL    HW278158   0.589   2.439  12.516
25462SOL     OW78159   4.377  14.866   0.739
25462SOL    HW178160   4.299  14.816   0.759
25462SOL    HW278161   4.447  14.800   0.734
25463SOL     OW78162   3.779   7.005   9.521
25463SOL    HW178163   3.822   7.084   9.488
25463SOL    HW278164   3.798   7.004   9.615
25464SOL     OW78165   2.659   0.855   8.757
25464SOL    HW178166   2.578   0.855   8.807
25464SOL    HW278167   2.692   0.945   8.765
25465SOL     OW78168  10.735  14.163  10.959
25465SOL    HW178169  10.651  14.207  10.970
25465SOL    HW278170  10.787  14.191  11.034
25466SOL     OW78171   2.768   3.148   7.579
25466SOL    HW178172   2.825   3.090   7.629
25466SOL    HW278173   2.804   3.236   7.593
25467SOL     OW78174  10.913  12.517  11.900
25467SOL    HW178175  10.833  12.482  11.940
25467SOL    HW278176  10.926  12.602  11.943
25468SOL     OW78177   3.809  14.701   0.617
25468SOL    HW178178   3.870  14.771   0.639
25468SOL    HW278179   3.792  14.658   0.701
25469SOL     OW78180   0.862   6.761   1.402
25469SOL    HW178181   0.945   6.742   1.357
25469SOL    HW278182   0.828   6.674   1.425
25470SOL     OW78183   6.789   9.396  11.294
25470SOL    HW178184   6.764   9.467  11.234
25470SOL    HW278185   6.804   9.321  11.237
25471SOL     OW78186   3.878  10.740   9.220
25471SOL    HW178187   3.817  10.681   9.175
25471SOL    HW278188   3.844  10.747   9.309
25472SOL     OW78189   1.690   3.680   9.613
25472SOL    HW178190   1.760   3.715   9.669
25472SOL    HW278191   1.675   3.749   9.548
25473SOL     OW78192   5.591  14.625  14.787
25473SOL    HW178193   5.586  14.705  14.841
25473SOL    HW278194   5.506  14.621  14.743
25474SOL     OW78195   3.172  10.435   1.006
25474SOL    HW178196   3.086  10.442   1.047
25474SOL    HW278197   3.216  10.364   1.052
25475SOL     OW78198   9.460   9.608   0.525
25475SOL    HW178199   9.405   9.533   0.546
25475SOL    HW278200   9.511   9.623   0.604
25476SOL     OW78201  10.441   0.736   2.550
25476SOL    HW178202  10.429   0.831   2.553
25476SOL    HW278203  10.535   0.723   2.551
25477SOL     OW78204   2.668   1.898   0.281
25477SOL    HW178205   2.622   1.891   0.198
25477SOL    HW278206   2.760   1.908   0.257
25478SOL     OW78207   9.684   7.723   3.410
25478SOL    HW178208   9.594   7.703   3.435
25478SOL    HW278209   9.677   7.763   3.324
25479SOL     OW78210   2.407   3.063   9.661
25479SOL    HW178211   2.324   3.080   9.616
25479SOL    HW278212   2.436   3.149   9.691
25480SOL     OW78213   6.012   6.831   3.351
25480SOL    HW178214   5.978   6.747   3.320
25480SOL    HW278215   5.947   6.861   3.415
25481SOL     OW78216  11.701   0.273   7.024
25481SOL    HW178217  11.667   0.360   7.044
25481SOL    HW278218  11.623   0.221   7.006
25482SOL     OW78219   0.675  13.348   5.258
25482SOL    HW178220   0.629  13.395   5.328
25482SOL    HW278221   0.662  13.256   5.279
25483SOL     OW78222   1.821   1.472  13.637
25483SOL    HW178223   1.886   1.417  13.680
25483SOL    HW278224   1.796   1.423  13.559
25484SOL     OW78225   0.165   2.504   0.104
25484SOL    HW178226   0.204   2.537   0.023
25484SOL    HW278227   0.126   2.581   0.145
25485SOL     OW78228   9.693   3.857   9.688
25485SOL    HW178229   9.732   3.924   9.633
25485SOL    HW278230   9.681   3.900   9.773
25486SOL     OW78231   1.501  13.369   9.561
25486SOL    HW178232   1.586  13.332   9.584
25486SOL    HW278233   1.488  13.344   9.469
25487SOL     OW78234  13.391   1.516   0.104
25487SOL    HW178235  13.462   1.534   0.165
25487SOL    HW278236  13.318   1.569   0.136
25488SOL     OW78237  10.121   4.911   1.516
25488SOL    HW178238  10.124   4.862   1.598
25488SOL    HW278239  10.099   4.845   1.449
25489SOL     OW78240   7.002  11.293   3.841
25489SOL    HW178241   7.074  11.355   3.852
25489SOL    HW278242   6.936  11.321   3.905
25490SOL     OW78243  14.774   6.003   7.033
25490SOL    HW178244  14.865   6.019   7.005
25490SOL    HW278245  14.768   6.045   7.119
25491SOL     OW78246   2.337   2.507   6.138
25491SOL    HW178247   2.423   2.473   6.114
25491SOL    HW278248   2.275   2.445   6.100
25492SOL     OW78249  12.240   9.101  14.210
25492SOL    HW178250  12.165   9.070  14.159
25492SOL    HW278251  12.309   9.037  14.191
25493SOL     OW78252  13.396  11.451   3.436
25493SOL    HW178253  13.367  11.386   3.501
25493SOL    HW278254  13.335  11.439   3.363
25494SOL     OW78255   0.221   1.045   6.056
25494SOL    HW178256   0.243   0.992   6.133
25494SOL    HW278257   0.233   0.985   5.982
25495SOL     OW78258   8.823   5.019  13.607
25495SOL    HW178259   8.891   4.977  13.659
25495SOL    HW278260   8.853   5.012  13.517
25496SOL     OW78261   5.821   3.904  11.255
25496SOL    HW178262   5.751   3.874  11.196
25496SOL    HW278263   5.780   3.908  11.341
25497SOL     OW78264   5.087  11.194  14.415
25497SOL    HW178265   5.132  11.258  14.470
25497SOL    HW278266   5.119  11.212  14.327
25498SOL     OW78267  10.631   6.657  14.585
25498SOL    HW178268  10.550   6.708  14.593
25498SOL    HW278269  10.655   6.664  14.493
25499SOL     OW78270  11.255   9.957  13.809
25499SOL    HW178271  11.339   9.910  13.804
25499SOL    HW278272  11.225   9.941  13.898
25500SOL     OW78273   2.650   5.678   8.963
25500SOL    HW178274   2.675   5.706   9.051
25500SOL    HW278275   2.596   5.750   8.930
25501SOL     OW78276   6.056  13.746   9.731
25501SOL    HW178277   6.080  13.680   9.666
25501SOL    HW278278   5.997  13.700   9.791
25502SOL     OW78279   0.316   7.751  10.526
25502SOL    HW178280   0.235   7.761  10.576
25502SOL    HW278281   0.378   7.714  10.590
25503SOL     OW78282   0.426   8.143   2.988
25503SOL    HW178283   0.340   8.182   2.974
25503SOL    HW278284   0.410   8.071   3.049
25504SOL     OW78285  10.695   8.052  12.038
25504SOL    HW178286  10.761   8.116  12.012
25504SOL    HW278287  10.734   7.967  12.019
25505SOL     OW78288  10.512   5.275  10.820
25505SOL    HW178289  10.467   5.193  10.838
25505SOL    HW278290  10.514   5.320  10.905
25506SOL     OW78291   7.149   0.976   8.548
25506SOL    HW178292   7.096   0.931   8.483
25506SOL    HW278293   7.161   1.064   8.513
25507SOL     OW78294   3.582   2.604  13.404
25507SOL    HW178295   3.608   2.512  13.405
25507SOL    HW278296   3.602   2.634  13.315
25508SOL     OW78297   3.042   7.440  12.424
25508SOL    HW178298   3.133   7.424  12.446
25508SOL    HW278299   3.011   7.502  12.490
25509SOL     OW78300   2.191   4.467   9.903
25509SOL    HW178301   2.202   4.503   9.815
25509SOL    HW278302   2.211   4.541   9.962
25510SOL     OW78303   3.361   2.319  13.465
25510SOL    HW178304   3.332   2.228  13.468
25510SOL    HW278305   3.443   2.320  13.513
25511SOL     OW78306  10.863   7.062   0.794
25511SOL    HW178307  10.930   7.001   0.825
25511SOL    HW278308  10.810   7.011   0.733
25512SOL     OW78309   1.666  11.723   9.351
25512SOL    HW178310   1.717  11.794   9.390
25512SOL    HW278311   1.685  11.729   9.257
25513SOL     OW78312  10.877   0.666  11.743
25513SOL    HW178313  10.933   0.624  11.678
25513SOL    HW278314  10.902   0.626  11.826
25514SOL     OW78315   1.147   1.261   6.345
25514SOL    HW178316   1.140   1.287   6.437
25514SOL    HW278317   1.186   1.337   6.302
25515SOL     OW78318   7.005  10.896   0.744
25515SOL    HW178319   7.092  10.891   0.784
25515SOL    HW278320   6.954  10.828   0.788
25516SOL     OW78321   0.563   2.566   4.087
25516SOL    HW178322   0.500   2.505   4.049
25516SOL    HW278323   0.646   2.543   4.045
25517SOL     OW78324   2.583   2.128   7.994
25517SOL    HW178325   2.608   2.046   8.037
25517SOL    HW278326   2.492   2.113   7.967
25518SOL     OW78327   6.742   3.826   1.892
25518SOL    HW178328   6.798   3.759   1.851
25518SOL    HW278329   6.716   3.787   1.975
25519SOL     OW78330   2.532   8.827  11.323
25519SOL    HW178331   2.613   8.790  11.287
25519SOL    HW278332   2.504   8.763  11.389
25520SOL     OW78333  10.357   0.211   8.080
25520SOL    HW178334  10.287   0.149   8.063
25520SOL    HW278335  10.323   0.295   8.049
25521SOL     OW78336   0.888  11.555   7.239
25521SOL    HW178337   0.802  11.597   7.229
25521SOL    HW278338   0.948  11.611   7.191
25522SOL     OW78339  13.092   5.355   4.144
25522SOL    HW178340  13.074   5.430   4.086
25522SOL    HW278341  13.187   5.357   4.156
25523SOL     OW78342  11.200   8.664   6.423
25523SOL    HW178343  11.168   8.633   6.338
25523SOL    HW278344  11.264   8.599   6.450
25524SOL     OW78345   5.267   9.592   0.141
25524SOL    HW178346   5.314   9.618   0.221
25524SOL    HW278347   5.282   9.498   0.134
25525SOL     OW78348   1.972   8.411   4.780
25525SOL    HW178349   1.966   8.485   4.841
25525SOL    HW278350   2.019   8.343   4.828
25526SOL     OW78351   1.856   9.022   8.870
25526SOL    HW178352   1.869   9.061   8.957
25526SOL    HW278353   1.932   9.050   8.819
25527SOL     OW78354   9.296   6.742   1.434
25527SOL    HW178355   9.270   6.694   1.512
25527SOL    HW278356   9.360   6.686   1.391
25528SOL     OW78357  10.701   6.342  10.020
25528SOL    HW178358  10.694   6.334  10.115
25528SOL    HW278359  10.672   6.257   9.986
25529SOL     OW78360  13.997   7.658   5.503
25529SOL    HW178361  14.045   7.622   5.429
25529SOL    HW278362  13.960   7.740   5.470
25530SOL     OW78363  10.863   8.033   5.268
25530SOL    HW178364  10.931   7.984   5.315
25530SOL    HW278365  10.897   8.044   5.180
25531SOL     OW78366   8.883   4.223   2.406
25531SOL    HW178367   8.817   4.185   2.348
25531SOL    HW278368   8.952   4.157   2.411
25532SOL     OW78369   2.350  14.018   4.222
25532SOL    HW178370   2.301  13.939   4.198
25532SOL    HW278371   2.355  14.069   4.141
25533SOL     OW78372   3.219   9.398   1.116
25533SOL    HW178373   3.267   9.328   1.160
25533SOL    HW278374   3.225   9.472   1.176
25534SOL     OW78375   8.947  13.792   3.763
25534SOL    HW178376   8.852  13.780   3.770
25534SOL    HW278377   8.973  13.826   3.849
25535SOL     OW78378  12.386   4.340  12.808
25535SOL    HW178379  12.315   4.305  12.755
25535SOL    HW278380  12.396   4.277  12.880
25536SOL     OW78381   8.213  11.613  11.397
25536SOL    HW178382   8.135  11.655  11.361
25536SOL    HW278383   8.275  11.612  11.324
25537SOL     OW78384  14.707  11.707  14.008
25537SOL    HW178385  14.653  11.628  13.999
25537SOL    HW278386  14.669  11.769  13.947
25538SOL     OW78387   6.730   5.004   5.293
25538SOL    HW178388   6.682   5.068   5.346
25538SOL    HW278389   6.709   4.920   5.333
25539SOL     OW78390   7.693   0.295   1.443
25539SOL    HW178391   7.660   0.377   1.480
25539SOL    HW278392   7.614   0.248   1.417
25540SOL     OW78393  13.666   5.947   5.573
25540SOL    HW178394  13.732   5.888   5.537
25540SOL    HW278395  13.595   5.890   5.601
25541SOL     OW78396   7.034  10.394  13.601
25541SOL    HW178397   7.029  10.373  13.694
25541SOL    HW278398   7.119  10.438  13.591
25542SOL     OW78399  14.023  12.289  10.193
25542SOL    HW178400  13.944  12.249  10.156
25542SOL    HW278401  14.007  12.290  10.288
25543SOL     OW78402   8.056  12.528   4.531
25543SOL    HW178403   8.072  12.438   4.558
25543SOL    HW278404   7.976  12.523   4.479
25544SOL     OW78405   5.817   9.208  14.238
25544SOL    HW178406   5.819   9.127  14.187
25544SOL    HW278407   5.742   9.199  14.295
25545SOL     OW78408  12.284   8.166  10.245
25545SOL    HW178409  12.286   8.219  10.325
25545SOL    HW278410  12.197   8.179  10.209
25546SOL     OW78411   5.237  10.242  12.230
25546SOL    HW178412   5.231  10.287  12.146
25546SOL    HW278413   5.195  10.301  12.293
25547SOL     OW78414   9.177   4.804   6.327
25547SOL    HW178415   9.246   4.835   6.269
25547SOL    HW278416   9.170   4.872   6.394
25548SOL     OW78417   5.159  11.929   3.712
25548SOL    HW178418   5.079  11.982   3.719
25548SOL    HW278419   5.228  11.992   3.691
25549SOL     OW78420  11.286  10.439   5.541
25549SOL    HW178421  11.192  10.460   5.540
25549SOL    HW278422  11.325  10.506   5.597
25550SOL     OW78423   1.004   7.646  13.422
25550SOL    HW178424   0.943   7.621  13.491
25550SOL    HW278425   0.951   7.645  13.342
25551SOL     OW78426   0.761   0.241  11.166
25551SOL    HW178427   0.671   0.207  11.168
25551SOL    HW278428   0.797   0.210  11.083
25552SOL     OW78429  12.347   9.603   0.304
25552SOL    HW178430  12.312   9.677   0.255
25552SOL    HW278431  12.442   9.609   0.292
25553SOL     OW78432   1.105  10.389   8.843
25553SOL    HW178433   1.093  10.305   8.800
25553SOL    HW278434   1.176  10.375   8.905
25554SOL     OW78435   1.568   4.116  12.106
25554SOL    HW178436   1.522   4.093  12.186
25554SOL    HW278437   1.660   4.101  12.126
25555SOL     OW78438  12.713   6.259  11.926
25555SOL    HW178439  12.618   6.252  11.922
25555SOL    HW278440  12.737   6.223  12.011
25556SOL     OW78441   1.306  14.649   7.951
25556SOL    HW178442   1.371  14.712   7.981
25556SOL    HW278443   1.270  14.612   8.031
25557SOL     OW78444  14.423   6.103  13.742
25557SOL    HW178445  14.400   6.089  13.650
25557SOL    HW278446  14.435   6.015  13.777
25558SOL     OW78447   2.915   5.682  11.736
25558SOL    HW178448   2.834   5.716  11.772
25558SOL    HW278449   2.893   5.593  11.707
25559SOL     OW78450   1.877   7.309   1.573
25559SOL    HW178451   1.843   7.233   1.621
25559SOL    HW278452   1.900   7.274   1.487
25560SOL     OW78453  12.070   8.318  13.840
25560SOL    HW178454  12.020   8.300  13.920
25560SOL    HW278455  12.121   8.238  13.825
25561SOL     OW78456   4.721  13.781  12.199
25561SOL    HW178457   4.632  13.799  12.228
25561SOL    HW278458   4.777  13.833  12.256
25562SOL     OW78459  13.413  14.445   8.002
25562SOL    HW178460  13.473  14.425   7.930
25562SOL    HW278461  13.467  14.440   8.081
25563SOL     OW78462   2.308   8.613  12.051
25563SOL    HW178463   2.351   8.535  12.086
25563SOL    HW278464   2.253   8.645  12.123
25564SOL     OW78465  10.843   9.812  13.482
25564SOL    HW178466  10.935   9.790  13.495
25564SOL    HW278467  10.795   9.748  13.534
25565SOL     OW78468  13.054   6.760   6.469
25565SOL    HW178469  13.076   6.776   6.560
25565SOL    HW278470  13.023   6.844   6.437
25566SOL     OW78471  11.168  14.179   3.267
25566SOL    HW178472  11.139  14.132   3.190
25566SOL    HW278473  11.144  14.123   3.341
25567SOL     OW78474  10.895   9.573   7.756
25567SOL    HW178475  10.968   9.617   7.712
25567SOL    HW278476  10.916   9.580   7.849
25568SOL     OW78477   3.398   1.780  10.934
25568SOL    HW178478   3.413   1.871  10.959
25568SOL    HW278479   3.363   1.784  10.845
25569SOL     OW78480   6.956  12.020  11.748
25569SOL    HW178481   6.914  11.934  11.757
25569SOL    HW278482   7.044  12.000  11.717
25570SOL     OW78483   6.747   1.785  10.464
25570SOL    HW178484   6.692   1.808  10.540
25570SOL    HW278485   6.807   1.859  10.455
25571SOL     OW78486   9.140   1.476  11.528
25571SOL    HW178487   9.181   1.554  11.490
25571SOL    HW278488   9.071   1.510  11.585
25572SOL     OW78489  12.582   5.797   0.870
25572SOL    HW178490  12.677   5.811   0.870
25572SOL    HW278491  12.546   5.873   0.825
25573SOL     OW78492  13.746   4.188   3.511
25573SOL    HW178493  13.692   4.186   3.431
25573SOL    HW278494  13.826   4.141   3.487
25574SOL     OW78495  11.465   1.793   3.189
25574SOL    HW178496  11.497   1.855   3.254
25574SOL    HW278497  11.370   1.793   3.202
25575SOL     OW78498  12.866   8.285  14.331
25575SOL    HW178499  12.945   8.246  14.292
25575SOL    HW278500  12.885   8.287  14.425
25576SOL     OW78501   6.483   8.798  12.897
25576SOL    HW178502   6.391   8.826  12.902
25576SOL    HW278503   6.481   8.721  12.840
25577SOL     OW78504   6.935   1.647   8.922
25577SOL    HW178505   6.961   1.669   9.012
25577SOL    HW278506   6.994   1.576   8.897
25578SOL     OW78507  10.003   3.980   8.457
25578SOL    HW178508  10.055   3.903   8.478
25578SOL    HW278509   9.937   3.949   8.396
25579SOL     OW78510   5.429  12.868   6.223
25579SOL    HW178511   5.386  12.866   6.308
25579SOL    HW278512   5.508  12.920   6.238
25580SOL     OW78513   8.393   5.968  12.851
25580SOL    HW178514   8.359   5.879  12.863
25580SOL    HW278515   8.468   5.957  12.794
25581SOL     OW78516   2.910  13.701  13.910
25581SOL    HW178517   2.841  13.734  13.853
25581SOL    HW278518   2.914  13.763  13.982
25582SOL     OW78519   4.963   0.633   8.776
25582SOL    HW178520   4.990   0.587   8.697
25582SOL    HW278521   5.044   0.671   8.811
25583SOL     OW78522   6.908   9.950   2.844
25583SOL    HW178523   6.904   9.936   2.939
25583SOL    HW278524   6.976  10.017   2.833
25584SOL     OW78525   9.654   8.001   2.099
25584SOL    HW178526   9.663   7.948   2.020
25584SOL    HW278527   9.587   8.065   2.076
25585SOL     OW78528   6.444   6.275   6.627
25585SOL    HW178529   6.463   6.190   6.587
25585SOL    HW278530   6.390   6.254   6.704
25586SOL     OW78531  13.578   3.107   1.189
25586SOL    HW178532  13.551   3.016   1.189
25586SOL    HW278533  13.519   3.150   1.126
25587SOL     OW78534  11.293   5.829  10.184
25587SOL    HW178535  11.383   5.815  10.214
25587SOL    HW278536  11.240   5.829  10.265
25588SOL     OW78537  14.178   9.176   5.284
25588SOL    HW178538  14.272   9.164   5.295
25588SOL    HW278539  14.145   9.187   5.373
25589SOL     OW78540  14.609  11.527  11.433
25589SOL    HW178541  14.641  11.522  11.343
25589SOL    HW278542  14.642  11.448  11.476
25590SOL     OW78543   6.178  14.388   7.392
25590SOL    HW178544   6.258  14.440   7.381
25590SOL    HW278545   6.184  14.354   7.481
25591SOL     OW78546  11.328   9.643   4.263
25591SOL    HW178547  11.353   9.609   4.349
25591SOL    HW278548  11.252   9.699   4.281
25592SOL     OW78549   5.134  13.439   3.426
25592SOL    HW178550   5.129  13.347   3.453
25592SOL    HW278551   5.048  13.456   3.386
25593SOL     OW78552   3.629   3.015   6.048
25593SOL    HW178553   3.721   3.041   6.039
25593SOL    HW278554   3.618   2.999   6.142
25594SOL     OW78555   5.338  10.101   8.202
25594SOL    HW178556   5.403  10.159   8.242
25594SOL    HW278557   5.344  10.020   8.253
25595SOL     OW78558   6.223   6.995   3.971
25595SOL    HW178559   6.299   7.050   3.988
25595SOL    HW278560   6.209   7.002   3.876
25596SOL     OW78561  10.944  12.407   4.718
25596SOL    HW178562  10.866  12.461   4.704
25596SOL    HW278563  10.929  12.330   4.664
25597SOL     OW78564   4.425   3.370   7.558
25597SOL    HW178565   4.333   3.373   7.533
25597SOL    HW278566   4.447   3.277   7.558
25598SOL     OW78567  11.601  13.528  12.944
25598SOL    HW178568  11.615  13.492  12.856
25598SOL    HW278569  11.630  13.459  13.003
25599SOL     OW78570   8.346   2.239   2.655
25599SOL    HW178571   8.332   2.146   2.674
25599SOL    HW278572   8.288   2.257   2.581
25600SOL     OW78573  10.057   7.657   9.531
25600SOL    HW178574  10.002   7.672   9.453
25600SOL    HW278575  10.089   7.744   9.555
25601SOL     OW78576  13.658   1.190   5.884
25601SOL    HW178577  13.669   1.100   5.915
25601SOL    HW278578  13.590   1.184   5.816
25602SOL     OW78579   2.480   6.260   6.851
25602SOL    HW178580   2.406   6.303   6.894
25602SOL    HW278581   2.543   6.243   6.921
25603SOL     OW78582  13.825   2.537   7.007
25603SOL    HW178583  13.829   2.446   6.981
25603SOL    HW278584  13.915   2.569   7.000
25604SOL     OW78585   8.251   1.453   3.433
25604SOL    HW178586   8.177   1.392   3.431
25604SOL    HW278587   8.212   1.539   3.419
25605SOL     OW78588   0.278   1.150   0.720
25605SOL    HW178589   0.199   1.165   0.669
25605SOL    HW278590   0.298   1.235   0.760
25606SOL     OW78591   7.602   7.466   5.301
25606SOL    HW178592   7.666   7.534   5.316
25606SOL    HW278593   7.640   7.387   5.339
25607SOL     OW78594   2.159   2.583   3.732
25607SOL    HW178595   2.230   2.538   3.686
25607SOL    HW278596   2.098   2.608   3.664
25608SOL     OW78597  10.048  11.859  14.561
25608SOL    HW178598  10.047  11.899  14.648
25608SOL    HW278599  10.137  11.876  14.528
25609SOL     OW78600   1.277   7.889   6.095
25609SOL    HW178601   1.270   7.796   6.119
25609SOL    HW278602   1.366   7.914   6.121
25610SOL     OW78603   9.783  14.650   0.590
25610SOL    HW178604   9.755  14.573   0.640
25610SOL    HW278605   9.709  14.671   0.534
25611SOL     OW78606  13.598  13.252   5.170
25611SOL    HW178607  13.580  13.292   5.255
25611SOL    HW278608  13.595  13.158   5.186
25612SOL     OW78609   4.992  12.888   1.826
25612SOL    HW178610   4.917  12.944   1.848
25612SOL    HW278611   4.964  12.800   1.850
25613SOL     OW78612   9.609   1.670   4.061
25613SOL    HW178613   9.611   1.766   4.056
25613SOL    HW278614   9.695   1.646   4.094
25614SOL     OW78615  12.720   5.748   1.578
25614SOL    HW178616  12.715   5.843   1.587
25614SOL    HW278617  12.720   5.716   1.668
25615SOL     OW78618   9.124   2.812   6.109
25615SOL    HW178619   9.103   2.733   6.159
25615SOL    HW278620   9.091   2.794   6.021
25616SOL     OW78621   8.158   5.554  13.375
25616SOL    HW178622   8.223   5.486  13.361
25616SOL    HW278623   8.190   5.629  13.325
25617SOL     OW78624   1.830   7.485   9.525
25617SOL    HW178625   1.797   7.444   9.605
25617SOL    HW278626   1.922   7.504   9.545
25618SOL     OW78627  14.729   2.951  14.876
25618SOL    HW178628  14.793   3.022  14.876
25618SOL    HW278629  14.778   2.875   0.029
25619SOL     OW78630  10.174  11.325  14.486
25619SOL    HW178631  10.165  11.279  14.402
25619SOL    HW278632  10.141  11.263  14.551
25620SOL     OW78633   5.673   7.368  12.945
25620SOL    HW178634   5.646   7.459  12.936
25620SOL    HW278635   5.629   7.323  12.872
25621SOL     OW78636   0.781  11.863   9.287
25621SOL    HW178637   0.722  11.939   9.278
25621SOL    HW278638   0.806  11.863   9.379
25622SOL     OW78639   8.256  14.707   0.711
25622SOL    HW178640   8.212  14.628   0.679
25622SOL    HW278641   8.185  14.769   0.727
25623SOL     OW78642  11.130   8.010  14.811
25623SOL    HW178643  11.136   7.941  14.745
25623SOL    HW278644  11.036   8.028  14.818
25624SOL     OW78645  12.170   0.051   6.820
25624SOL    HW178646  12.156  14.842   6.784
25624SOL    HW278647  12.212   0.100   6.749
25625SOL     OW78648   6.795  10.811   8.915
25625SOL    HW178649   6.754  10.799   8.830
25625SOL    HW278650   6.888  10.795   8.900
25626SOL     OW78651   5.229  14.263   9.548
25626SOL    HW178652   5.239  14.185   9.494
25626SOL    HW278653   5.248  14.233   9.637
25627SOL     OW78654  12.608   3.718   7.243
25627SOL    HW178655  12.675   3.707   7.175
25627SOL    HW278656  12.525   3.717   7.196
25628SOL     OW78657   9.249  13.845  10.986
25628SOL    HW178658   9.327  13.876  11.033
25628SOL    HW278659   9.283  13.780  10.924
25629SOL     OW78660   0.904  11.177   9.280
25629SOL    HW178661   0.840  11.205   9.345
25629SOL    HW278662   0.926  11.087   9.304
25630SOL     OW78663   5.321  12.322  12.050
25630SOL    HW178664   5.348  12.275  12.129
25630SOL    HW278665   5.345  12.413  12.067
25631SOL     OW78666   3.337   4.132   3.947
25631SOL    HW178667   3.339   4.054   3.893
25631SOL    HW278668   3.299   4.200   3.891
25632SOL     OW78669   3.911  13.013  14.437
25632SOL    HW178670   3.896  12.999  14.530
25632SOL    HW278671   3.956  12.934  14.408
25633SOL     OW78672   1.106   7.120   0.388
25633SOL    HW178673   1.043   7.191   0.376
25633SOL    HW278674   1.053   7.040   0.387
25634SOL     OW78675  14.335   0.056  13.965
25634SOL    HW178676  14.326   0.141  14.008
25634SOL    HW278677  14.250   0.013  13.979
25635SOL     OW78678  13.183   8.014   9.621
25635SOL    HW178679  13.217   7.950   9.683
25635SOL    HW278680  13.260   8.059   9.587
25636SOL     OW78681   7.169   8.925  13.619
25636SOL    HW178682   7.093   8.903  13.565
25636SOL    HW278683   7.168   8.860  13.689
25637SOL     OW78684   3.062   0.477  12.628
25637SOL    HW178685   2.992   0.504  12.570
25637SOL    HW278686   3.092   0.393  12.592
25638SOL     OW78687   6.681   4.027   0.704
25638SOL    HW178688   6.651   4.080   0.630
25638SOL    HW278689   6.695   4.090   0.775
25639SOL     OW78690   1.285   6.662  12.145
25639SOL    HW178691   1.236   6.660  12.227
25639SOL    HW278692   1.228   6.709  12.084
25640SOL     OW78693   3.245   2.795   2.937
25640SOL    HW178694   3.289   2.713   2.959
25640SOL    HW278695   3.153   2.770   2.924
25641SOL     OW78696   9.974  12.598   4.051
25641SOL    HW178697   9.943  12.520   4.096
25641SOL    HW278698   9.895  12.639   4.016
25642SOL     OW78699  10.535   8.440   7.210
25642SOL    HW178700  10.610   8.442   7.270
25642SOL    HW278701  10.469   8.390   7.257
25643SOL     OW78702   7.857   5.256  12.120
25643SOL    HW178703   7.864   5.276  12.213
25643SOL    HW278704   7.768   5.281  12.097
25644SOL     OW78705   3.179  13.305  12.879
25644SOL    HW178706   3.127  13.380  12.910
25644SOL    HW278707   3.240  13.288  12.951
25645SOL     OW78708   4.961   6.577   7.372
25645SOL    HW178709   4.940   6.670   7.386
25645SOL    HW278710   5.043   6.564   7.420
25646SOL     OW78711   6.713   0.674   5.490
25646SOL    HW178712   6.620   0.670   5.512
25646SOL    HW278713   6.716   0.650   5.397
25647SOL     OW78714   5.952  11.780   9.720
25647SOL    HW178715   5.861  11.810   9.714
25647SOL    HW278716   5.961  11.750   9.810
25648SOL     OW78717  13.397   2.889  12.504
25648SOL    HW178718  13.334   2.920  12.438
25648SOL    HW278719  13.450   2.966  12.525
25649SOL     OW78720   8.857   3.204   9.075
25649SOL    HW178721   8.892   3.129   9.123
25649SOL    HW278722   8.924   3.223   9.008
25650SOL     OW78723  10.460   9.450   9.596
25650SOL    HW178724  10.531   9.388   9.608
25650SOL    HW278725  10.389   9.416   9.650
25651SOL     OW78726   7.745   2.364   2.920
25651SOL    HW178727   7.753   2.283   2.870
25651SOL    HW278728   7.830   2.406   2.911
25652SOL     OW78729   0.014  14.838   0.438
25652SOL    HW178730   0.081  14.838   0.371
25652SOL    HW278731  14.833   0.032   0.415
25653SOL     OW78732  12.152   3.741  12.442
25653SOL    HW178733  12.199   3.661  12.467
25653SOL    HW278734  12.129   3.728  12.350
25654SOL     OW78735   2.536   9.493  13.768
25654SOL    HW178736   2.544   9.559  13.699
25654SOL    HW278737   2.442   9.478  13.776
25655SOL     OW78738  10.261   7.956  11.764
25655SOL    HW178739  10.277   7.863  11.780
25655SOL    HW278740  10.222   7.959  11.676
25656SOL     OW78741  13.781   1.772   1.176
25656SOL    HW178742  13.833   1.768   1.095
25656SOL    HW278743  13.843   1.748   1.245
25657SOL     OW78744   0.596  12.176   0.716
25657SOL    HW178745   0.528  12.227   0.671
25657SOL    HW278746   0.678  12.219   0.691
25658SOL     OW78747   1.562  10.894  13.222
25658SOL    HW178748   1.562  10.800  13.208
25658SOL    HW278749   1.505  10.908  13.297
25659SOL     OW78750  13.397  11.282  14.428
25659SOL    HW178751  13.466  11.245  14.483
25659SOL    HW278752  13.438  11.358  14.387
25660SOL     OW78753   7.535  13.637   2.075
25660SOL    HW178754   7.517  13.626   2.169
25660SOL    HW278755   7.628  13.621   2.066
25661SOL     OW78756   4.393  11.594  13.589
25661SOL    HW178757   4.395  11.689  13.581
25661SOL    HW278758   4.325  11.577  13.654
25662SOL     OW78759   3.240  11.980  12.334
25662SOL    HW178760   3.213  11.961  12.424
25662SOL    HW278761   3.168  11.949  12.280
25663SOL     OW78762  13.646  11.258  10.773
25663SOL    HW178763  13.600  11.315  10.710
25663SOL    HW278764  13.585  11.186  10.788
25664SOL     OW78765   6.935   1.951   0.376
25664SOL    HW178766   6.991   1.957   0.454
25664SOL    HW278767   6.962   1.870   0.333
25665SOL     OW78768   3.732   2.221   2.903
25665SOL    HW178769   3.788   2.266   2.966
25665SOL    HW278770   3.771   2.134   2.894
25666SOL     OW78771   9.179  13.181   4.397
25666SOL    HW178772   9.239  13.150   4.329
25666SOL    HW278773   9.233  13.237   4.452
25667SOL     OW78774  10.105   4.602   3.440
25667SOL    HW178775  10.181   4.608   3.498
25667SOL    HW278776  10.081   4.509   3.440
25668SOL     OW78777   7.269  11.781  10.402
25668SOL    HW178778   7.201  11.810  10.341
25668SOL    HW278779   7.346  11.831  10.378
25669SOL     OW78780   9.972   4.301   5.106
25669SOL    HW178781  10.000   4.358   5.034
25669SOL    HW278782   9.927   4.228   5.063
25670SOL     OW78783   2.283  11.821   0.484
25670SOL    HW178784   2.190  11.843   0.494
25670SOL    HW278785   2.294  11.809   0.390
25671SOL     OW78786   2.531  13.378   0.760
25671SOL    HW178787   2.614  13.355   0.719
25671SOL    HW278788   2.492  13.294   0.785
25672SOL     OW78789   6.649   4.781   2.129
25672SOL    HW178790   6.733   4.825   2.147
25672SOL    HW278791   6.616   4.757   2.215
25673SOL     OW78792   7.854   1.892  11.624
25673SOL    HW178793   7.868   1.797  11.623
25673SOL    HW278794   7.807   1.910  11.543
25674SOL     OW78795   9.158   4.078  14.069
25674SOL    HW178796   9.212   4.025  14.011
25674SOL    HW278797   9.131   4.153  14.016
25675SOL     OW78798   1.268  10.313   6.790
25675SOL    HW178799   1.321  10.289   6.867
25675SOL    HW278800   1.207  10.378   6.824
25676SOL     OW78801   6.580  13.331   2.007
25676SOL    HW178802   6.604  13.256   1.953
25676SOL    HW278803   6.638  13.401   1.978
25677SOL     OW78804   7.607  12.600  14.145
25677SOL    HW178805   7.579  12.519  14.188
25677SOL    HW278806   7.526  12.645  14.122
25678SOL     OW78807   7.178   5.859  11.721
25678SOL    HW178808   7.187   5.763  11.725
25678SOL    HW278809   7.226   5.884  11.642
25679SOL     OW78810   1.510   5.318   8.895
25679SOL    HW178811   1.459   5.359   8.964
25679SOL    HW278812   1.466   5.235   8.878
25680SOL     OW78813   8.475  12.097   9.836
25680SOL    HW178814   8.423  12.128   9.762
25680SOL    HW278815   8.411  12.075   9.904
25681SOL     OW78816  14.082   4.712  12.986
25681SOL    HW178817  14.141   4.639  12.966
25681SOL    HW278818  14.107   4.781  12.925
25682SOL     OW78819  12.040   6.823   2.174
25682SOL    HW178820  12.088   6.831   2.256
25682SOL    HW278821  12.101   6.780   2.115
25683SOL     OW78822   5.246   4.493   9.691
25683SOL    HW178823   5.175   4.550   9.722
25683SOL    HW278824   5.282   4.539   9.615
25684SOL     OW78825   8.777  14.840   5.212
25684SOL    HW178826   8.787   0.051   5.177
25684SOL    HW278827   8.758  14.786   5.135
25685SOL     OW78828   9.514   8.355   2.719
25685SOL    HW178829   9.482   8.406   2.794
25685SOL    HW278830   9.460   8.384   2.645
25686SOL     OW78831   7.306   5.006   9.661
25686SOL    HW178832   7.304   5.001   9.566
25686SOL    HW278833   7.325   5.098   9.680
25687SOL     OW78834  13.244  14.391  13.806
25687SOL    HW178835  13.235  14.486  13.803
25687SOL    HW278836  13.285  14.373  13.891
25688SOL     OW78837   9.218  10.940   2.314
25688SOL    HW178838   9.221  10.997   2.237
25688SOL    HW278839   9.128  10.907   2.316
25689SOL     OW78840   3.637  10.410   8.496
25689SOL    HW178841   3.718  10.405   8.547
25689SOL    HW278842   3.659  10.370   8.412
25690SOL     OW78843   4.287  14.862   0.458
25690SOL    HW178844   4.369  14.853   0.409
25690SOL    HW278845   4.314   0.014   0.545
25691SOL     OW78846  13.380  13.637   7.177
25691SOL    HW178847  13.311  13.572   7.193
25691SOL    HW278848  13.363  13.667   7.088
25692SOL     OW78849   6.920   7.307   3.900
25692SOL    HW178850   7.007   7.303   3.941
25692SOL    HW278851   6.934   7.353   3.818
25693SOL     OW78852   7.762   8.533   2.786
25693SOL    HW178853   7.667   8.533   2.780
25693SOL    HW278854   7.780   8.536   2.880
25694SOL     OW78855   1.365  12.993   0.224
25694SOL    HW178856   1.317  13.075   0.211
25694SOL    HW278857   1.334  12.936   0.154
25695SOL     OW78858   4.850  10.247   9.642
25695SOL    HW178859   4.923  10.250   9.705
25695SOL    HW278860   4.779  10.205   9.691
25696SOL     OW78861  14.764  14.342  12.855
25696SOL    HW178862  14.789  14.274  12.918
25696SOL    HW278863  14.673  14.321  12.832
25697SOL     OW78864  11.732   3.513   1.932
25697SOL    HW178865  11.715   3.419   1.933
25697SOL    HW278866  11.807   3.524   1.875
25698SOL     OW78867   5.775  10.301   4.799
25698SOL    HW178868   5.836  10.343   4.859
25698SOL    HW278869   5.831  10.250   4.740
25699SOL     OW78870   4.138   3.189   9.376
25699SOL    HW178871   4.127   3.250   9.449
25699SOL    HW278872   4.206   3.128   9.405
25700SOL     OW78873   1.382   5.430  10.251
25700SOL    HW178874   1.415   5.493  10.316
25700SOL    HW278875   1.447   5.434  10.180
25701SOL     OW78876   4.472   5.972   4.182
25701SOL    HW178877   4.505   5.962   4.271
25701SOL    HW278878   4.532   5.919   4.129
25702SOL     OW78879   0.659   1.930   0.232
25702SOL    HW178880   0.616   1.903   0.151
25702SOL    HW278881   0.654   1.853   0.289
25703SOL     OW78882   9.974   3.382   1.273
25703SOL    HW178883   9.927   3.354   1.351
25703SOL    HW278884  10.063   3.399   1.304
25704SOL     OW78885  14.288   9.335   3.888
25704SOL    HW178886  14.221   9.332   3.956
25704SOL    HW278887  14.363   9.378   3.929
25705SOL     OW78888   3.106   9.632   3.314
25705SOL    HW178889   3.020   9.614   3.275
25705SOL    HW278890   3.114   9.727   3.310
25706SOL     OW78891   3.535  14.211   8.528
25706SOL    HW178892   3.621  14.239   8.497
25706SOL    HW278893   3.536  14.229   8.622
25707SOL     OW78894  11.379   1.808  14.500
25707SOL    HW178895  11.471   1.799  14.523
25707SOL    HW278896  11.377   1.804  14.405
25708SOL     OW78897   6.477   0.862  13.293
25708SOL    HW178898   6.547   0.797  13.286
25708SOL    HW278899   6.479   0.890  13.385
25709SOL     OW78900   6.392  10.974  12.293
25709SOL    HW178901   6.374  10.888  12.254
25709SOL    HW278902   6.320  11.030  12.263
25710SOL     OW78903   0.612   9.236   6.879
25710SOL    HW178904   0.582   9.199   6.962
25710SOL    HW278905   0.647   9.323   6.902
25711SOL     OW78906  10.260  11.970   7.237
25711SOL    HW178907  10.230  11.943   7.150
25711SOL    HW278908  10.202  12.041   7.262
25712SOL     OW78909   2.065  14.166   0.491
25712SOL    HW178910   2.083  14.199   0.579
25712SOL    HW278911   2.094  14.237   0.433
25713SOL     OW78912   9.630  10.497   5.063
25713SOL    HW178913   9.598  10.507   5.152
25713SOL    HW278914   9.692  10.569   5.051
25714SOL     OW78915   9.553   0.405   1.608
25714SOL    HW178916   9.555   0.465   1.533
25714SOL    HW278917   9.471   0.357   1.598
25715SOL     OW78918   0.873   0.601   0.015
25715SOL    HW178919   0.793   0.628   0.059
25715SOL    HW278920   0.858   0.620  14.800
25716SOL     OW78921  11.088  12.191  12.931
25716SOL    HW178922  11.089  12.104  12.971
25716SOL    HW278923  11.108  12.251  13.002
25717SOL     OW78924   6.416  12.924   0.220
25717SOL    HW178925   6.417  12.952   0.129
25717SOL    HW278926   6.505  12.939   0.251
25718SOL     OW78927   2.456   8.830  13.214
25718SOL    HW178928   2.494   8.909  13.176
25718SOL    HW278929   2.526   8.793  13.268
25719SOL     OW78930   4.352  11.464   8.453
25719SOL    HW178931   4.344  11.557   8.470
25719SOL    HW278932   4.303  11.449   8.372
25720SOL     OW78933   7.138   4.411  12.140
25720SOL    HW178934   7.130   4.351  12.214
25720SOL    HW278935   7.231   4.435  12.139
25721SOL     OW78936   6.394   7.061  14.791
25721SOL    HW178937   6.327   7.119  14.754
25721SOL    HW278938   6.477   7.103  14.770
25722SOL     OW78939  13.540  11.857   1.779
25722SOL    HW178940  13.463  11.810   1.809
25722SOL    HW278941  13.612  11.795   1.790
25723SOL     OW78942  10.140  13.624  11.123
25723SOL    HW178943  10.227  13.603  11.089
25723SOL    HW278944  10.084  13.553  11.093
25724SOL     OW78945   7.704  14.872   9.434
25724SOL    HW178946   7.711  14.804   9.500
25724SOL    HW278947   7.732   0.074   9.478
25725SOL     OW78948   8.777  14.577   7.049
25725SOL    HW178949   8.782  14.601   6.957
25725SOL    HW278950   8.702  14.517   7.054
25726SOL     OW78951  12.219   9.955   6.082
25726SOL    HW178952  12.257  10.043   6.085
25726SOL    HW278953  12.236   9.919   6.170
25727SOL     OW78954   4.587   7.464   4.687
25727SOL    HW178955   4.680   7.442   4.689
25727SOL    HW278956   4.585   7.560   4.698
25728SOL     OW78957   8.466   7.074  10.046
25728SOL    HW178958   8.418   7.147  10.009
25728SOL    HW278959   8.535   7.114  10.099
25729SOL     OW78960   3.639   5.588  14.761
25729SOL    HW178961   3.658   5.682  14.759
25729SOL    HW278962   3.598   5.574  14.846
25730SOL     OW78963   6.231   5.718  13.514
25730SOL    HW178964   6.258   5.677  13.432
25730SOL    HW278965   6.164   5.782  13.489
25731SOL     OW78966  12.984  11.581   0.718
25731SOL    HW178967  13.023  11.636   0.786
25731SOL    HW278968  12.903  11.626   0.694
25732SOL     OW78969   9.842   6.831   4.673
25732SOL    HW178970   9.750   6.808   4.670
25732SOL    HW278971   9.879   6.796   4.592
25733SOL     OW78972  13.527  13.357   2.952
25733SOL    HW178973  13.563  13.389   2.870
25733SOL    HW278974  13.485  13.274   2.929
25734SOL     OW78975   8.755   5.000   5.486
25734SOL    HW178976   8.833   5.047   5.456
25734SOL    HW278977   8.770   4.910   5.460
25735SOL     OW78978  13.735   1.864   5.260
25735SOL    HW178979  13.658   1.861   5.318
25735SOL    HW278980  13.706   1.918   5.186
25736SOL     OW78981   5.457   8.255   4.322
25736SOL    HW178982   5.495   8.230   4.407
25736SOL    HW278983   5.440   8.349   4.330
25737SOL     OW78984   4.813   7.747   3.413
25737SOL    HW178985   4.856   7.736   3.328
25737SOL    HW278986   4.725   7.776   3.392
25738SOL     OW78987   9.772  10.713   8.141
25738SOL    HW178988   9.858  10.703   8.181
25738SOL    HW278989   9.723  10.637   8.172
25739SOL     OW78990   3.498   4.397  14.283
25739SOL    HW178991   3.422   4.446  14.317
25739SOL    HW278992   3.567   4.463  14.276
25740SOL     OW78993   5.476   4.763   5.039
25740SOL    HW178994   5.383   4.756   5.059
25740SOL    HW278995   5.495   4.685   4.986
25741SOL     OW78996   6.482  14.464   8.066
25741SOL    HW178997   6.441  14.379   8.082
25741SOL    HW278998   6.567  14.458   8.110
25742SOL     OW78999   3.547   8.561   9.474
25742SOL    HW179000   3.577   8.523   9.556
25742SOL    HW279001   3.486   8.630   9.500
25743SOL     OW79002  11.244  11.979   8.447
25743SOL    HW179003  11.177  11.975   8.379
25743SOL    HW279004  11.316  11.927   8.412
25744SOL     OW79005  13.676  12.553  11.081
25744SOL    HW179006  13.645  12.514  11.162
25744SOL    HW279007  13.718  12.635  11.109
25745SOL     OW79008   2.096   9.678   3.269
25745SOL    HW179009   2.041   9.725   3.207
25745SOL    HW279010   2.044   9.673   3.350
25746SOL     OW79011   4.512   4.077  10.387
25746SOL    HW179012   4.607   4.091  10.382
25746SOL    HW279013   4.486   4.054  10.298
25747SOL     OW79014  12.430  12.172   3.959
25747SOL    HW179015  12.357  12.117   3.988
25747SOL    HW279016  12.486  12.180   4.035
25748SOL     OW79017   8.765  14.037   1.546
25748SOL    HW179018   8.849  14.083   1.546
25748SOL    HW279019   8.717  14.074   1.472
25749SOL     OW79020  14.394   7.774   7.699
25749SOL    HW179021  14.319   7.768   7.759
25749SOL    HW279022  14.462   7.720   7.740
25750SOL     OW79023   8.480   6.548  10.844
25750SOL    HW179024   8.412   6.498  10.889
25750SOL    HW279025   8.493   6.503  10.761
25751SOL     OW79026   1.522  11.549   6.236
25751SOL    HW179027   1.603  11.545   6.185
25751SOL    HW279028   1.522  11.637   6.274
25752SOL     OW79029   3.693   3.767   6.786
25752SOL    HW179030   3.682   3.850   6.834
25752SOL    HW279031   3.780   3.736   6.812
25753SOL     OW79032  12.452  12.137   0.641
25753SOL    HW179033  12.464  12.229   0.661
25753SOL    HW279034  12.423  12.135   0.550
25754SOL     OW79035   0.894   5.524   5.069
25754SOL    HW179036   0.896   5.431   5.045
25754SOL    HW279037   0.860   5.524   5.159
25755SOL     OW79038   2.435   0.702   1.871
25755SOL    HW179039   2.350   0.744   1.855
25755SOL    HW279040   2.443   0.637   1.801
25756SOL     OW79041   2.413   2.175   2.029
25756SOL    HW179042   2.463   2.196   1.950
25756SOL    HW279043   2.359   2.100   2.003
25757SOL     OW79044  13.795   1.253   8.018
25757SOL    HW179045  13.702   1.252   8.040
25757SOL    HW279046  13.805   1.324   7.955
25758SOL     OW79047   5.975   2.721   7.778
25758SOL    HW179048   6.050   2.727   7.718
25758SOL    HW279049   6.010   2.753   7.861
25759SOL     OW79050   1.079   7.723   7.722
25759SOL    HW179051   1.047   7.806   7.757
25759SOL    HW279052   1.168   7.742   7.692
25760SOL     OW79053   4.220  11.742   4.895
25760SOL    HW179054   4.211  11.793   4.815
25760SOL    HW279055   4.301  11.692   4.882
25761SOL     OW79056  10.087   0.821  13.604
25761SOL    HW179057  10.068   0.730  13.627
25761SOL    HW279058  10.062   0.828  13.512
25762SOL     OW79059   9.793  14.821   1.171
25762SOL    HW179060   9.750  14.831   1.086
25762SOL    HW279061   9.838   0.027   1.185
25763SOL     OW79062  14.371   5.350   8.430
25763SOL    HW179063  14.329   5.271   8.464
25763SOL    HW279064  14.341   5.356   8.340
25764SOL     OW79065  10.696  13.698  11.918
25764SOL    HW179066  10.619  13.733  11.874
25764SOL    HW279067  10.769  13.748  11.883
25765SOL     OW79068   4.867  13.092   8.944
25765SOL    HW179069   4.847  13.155   9.013
25765SOL    HW279070   4.960  13.072   8.955
25766SOL     OW79071   6.603   1.295   7.467
25766SOL    HW179072   6.529   1.328   7.517
25766SOL    HW279073   6.574   1.209   7.436
25767SOL     OW79074   3.631   3.561   2.749
25767SOL    HW179075   3.681   3.539   2.670
25767SOL    HW279076   3.607   3.652   2.737
25768SOL     OW79077   0.651   7.247   7.396
25768SOL    HW179078   0.574   7.302   7.388
25768SOL    HW279079   0.716   7.286   7.337
25769SOL     OW79080   5.559  11.214  14.491
25769SOL    HW179081   5.539  11.125  14.462
25769SOL    HW279082   5.535  11.269  14.416
25770SOL     OW79083   7.412   2.102  13.961
25770SOL    HW179084   7.491   2.051  13.944
25770SOL    HW279085   7.402   2.100  14.056
25771SOL     OW79086   8.626   3.311  13.644
25771SOL    HW179087   8.591   3.289  13.557
25771SOL    HW279088   8.601   3.403  13.656
25772SOL     OW79089  11.516  11.375   7.664
25772SOL    HW179090  11.455  11.368   7.591
25772SOL    HW279091  11.463  11.407   7.737
25773SOL     OW79092  11.886  14.288  11.529
25773SOL    HW179093  11.854  14.297  11.439
25773SOL    HW279094  11.981  14.290  11.521
25774SOL     OW79095   2.223   7.335   0.112
25774SOL    HW179096   2.318   7.340   0.113
25774SOL    HW279097   2.203   7.247   0.145
25775SOL     OW79098   2.132   0.583   5.130
25775SOL    HW179099   2.101   0.625   5.050
25775SOL    HW279100   2.054   0.543   5.169
25776SOL     OW79101   6.619  12.442   0.048
25776SOL    HW179102   6.648  12.468  14.839
25776SOL    HW279103   6.636  12.519   0.103
25777SOL     OW79104   6.698  10.973  12.040
25777SOL    HW179105   6.729  11.058  12.070
25777SOL    HW279106   6.671  10.927  12.120
25778SOL     OW79107   7.672  14.663   9.804
25778SOL    HW179108   7.651  14.640   9.894
25778SOL    HW279109   7.742  14.728   9.812
25779SOL     OW79110  10.008   4.386  13.080
25779SOL    HW179111   9.933   4.327  13.092
25779SOL    HW279112  10.012   4.401  12.985
25780SOL     OW79113  12.242   7.315   1.808
25780SOL    HW179114  12.203   7.402   1.803
25780SOL    HW279115  12.328   7.325   1.766
25781SOL     OW79116   5.916   8.040   5.313
25781SOL    HW179117   5.957   8.092   5.382
25781SOL    HW279118   5.822   8.046   5.331
25782SOL     OW79119   8.966  12.219  10.309
25782SOL    HW179120   9.032  12.180  10.252
25782SOL    HW279121   8.910  12.146  10.335
25783SOL     OW79122   1.451   7.157   3.978
25783SOL    HW179123   1.468   7.074   3.934
25783SOL    HW279124   1.419   7.214   3.908
25784SOL     OW79125  13.913   8.298   7.527
25784SOL    HW179126  13.920   8.349   7.608
25784SOL    HW279127  14.003   8.270   7.509
25785SOL     OW79128   9.160  11.637  14.237
25785SOL    HW179129   9.070  11.669  14.249
25785SOL    HW279130   9.187  11.608  14.323
25786SOL     OW79131   5.247  14.861  10.106
25786SOL    HW179132   5.215  14.772  10.093
25786SOL    HW279133   5.250  14.872  10.201
25787SOL     OW79134  13.694   0.561   5.457
25787SOL    HW179135  13.677   0.622   5.385
25787SOL    HW279136  13.612   0.561   5.508
25788SOL     OW79137   1.138   9.610  13.307
25788SOL    HW179138   1.214   9.603  13.364
25788SOL    HW279139   1.064   9.587  13.363
25789SOL     OW79140  14.442  11.781   5.138
25789SOL    HW179141  14.500  11.825   5.076
25789SOL    HW279142  14.415  11.701   5.093
25790SOL     OW79143   0.557  14.522  13.871
25790SOL    HW179144   0.643  14.507  13.909
25790SOL    HW279145   0.495  14.499  13.940
25791SOL     OW79146  12.765   0.474   8.006
25791SOL    HW179147  12.826   0.477   8.079
25791SOL    HW279148  12.791   0.547   7.950
25792SOL     OW79149   4.064   3.274   9.654
25792SOL    HW179150   4.143   3.270   9.708
25792SOL    HW279151   4.027   3.186   9.660
25793SOL     OW79152   9.451  10.393   7.375
25793SOL    HW179153   9.472  10.381   7.468
25793SOL    HW279154   9.504  10.468   7.348
25794SOL     OW79155  12.774   0.327  14.599
25794SOL    HW179156  12.697   0.287  14.559
25794SOL    HW279157  12.828   0.355  14.524
25795SOL     OW79158   1.148   7.341  10.555
25795SOL    HW179159   1.077   7.308  10.501
25795SOL    HW279160   1.176   7.265  10.607
25796SOL     OW79161  14.590  10.249   4.245
25796SOL    HW179162  14.570  10.167   4.200
25796SOL    HW279163  14.625  10.306   4.177
25797SOL     OW79164   3.224   9.739   3.949
25797SOL    HW179165   3.207   9.655   3.906
25797SOL    HW279166   3.311   9.765   3.919
25798SOL     OW79167   3.919   4.138   9.134
25798SOL    HW179168   4.001   4.091   9.149
25798SOL    HW279169   3.888   4.106   9.050
25799SOL     OW79170  12.325   9.356   0.166
25799SOL    HW179171  12.264   9.313   0.226
25799SOL    HW279172  12.327   9.448   0.195
25800SOL     OW79173   7.371  12.828   6.990
25800SOL    HW179174   7.457  12.836   6.950
25800SOL    HW279175   7.368  12.739   7.024
25801SOL     OW79176   2.876   0.890   5.702
25801SOL    HW179177   2.910   0.801   5.691
25801SOL    HW279178   2.831   0.889   5.787
25802SOL     OW79179  10.164  13.075   7.369
25802SOL    HW179180  10.183  13.156   7.416
25802SOL    HW279181  10.245  13.025   7.373
25803SOL     OW79182  10.158  10.449   6.926
25803SOL    HW179183  10.188  10.382   6.986
25803SOL    HW279184  10.220  10.447   6.854
25804SOL     OW79185   8.226   1.092   4.712
25804SOL    HW179186   8.194   1.032   4.645
25804SOL    HW279187   8.199   1.053   4.795
25805SOL     OW79188   7.995   3.622  13.511
25805SOL    HW179189   7.993   3.609  13.416
25805SOL    HW279190   8.001   3.716  13.523
25806SOL     OW79191   6.843  10.616   6.347
25806SOL    HW179192   6.900  10.558   6.399
25806SOL    HW279193   6.854  10.702   6.387
25807SOL     OW79194  13.949  12.464  13.039
25807SOL    HW179195  13.971  12.546  13.083
25807SOL    HW279196  13.874  12.430  13.089
25808SOL     OW79197   7.172   6.894   7.078
25808SOL    HW179198   7.215   6.860   7.156
25808SOL    HW279199   7.238   6.886   7.009
25809SOL     OW79200   1.292   4.771   3.022
25809SOL    HW179201   1.262   4.845   3.075
25809SOL    HW279202   1.239   4.774   2.943
25810SOL     OW79203   8.135   2.089  13.697
25810SOL    HW179204   8.157   1.998  13.679
25810SOL    HW279205   8.149   2.099  13.792
25811SOL     OW79206   7.782   5.882   1.377
25811SOL    HW179207   7.865   5.924   1.399
25811SOL    HW279208   7.777   5.888   1.281
25812SOL     OW79209  11.310  12.916   3.730
25812SOL    HW179210  11.313  12.995   3.785
25812SOL    HW279211  11.300  12.948   3.641
25813SOL     OW79212   7.163   6.585  10.597
25813SOL    HW179213   7.119   6.640  10.532
25813SOL    HW279214   7.117   6.502  10.594
25814SOL     OW79215   0.460  12.014   2.754
25814SOL    HW179216   0.535  12.053   2.800
25814SOL    HW279217   0.420  12.088   2.708
25815SOL     OW79218   4.818  13.219  14.455
25815SOL    HW179219   4.759  13.162  14.405
25815SOL    HW279220   4.900  13.217  14.406
25816SOL     OW79221   9.297   8.404   2.318
25816SOL    HW179222   9.227   8.383   2.256
25816SOL    HW279223   9.373   8.424   2.264
25817SOL     OW79224   9.002  10.059  13.889
25817SOL    HW179225   8.913  10.094  13.882
25817SOL    HW279226   9.057  10.135  13.903
25818SOL     OW79227  11.743  14.251   0.986
25818SOL    HW179228  11.788  14.332   0.960
25818SOL    HW279229  11.765  14.188   0.918
25819SOL     OW79230   5.815   8.292   3.023
25819SOL    HW179231   5.902   8.293   2.984
25819SOL    HW279232   5.830   8.298   3.117
25820SOL     OW79233   5.048   6.736  11.356
25820SOL    HW179234   5.051   6.819  11.402
25820SOL    HW279235   5.004   6.755  11.273
25821SOL     OW79236   4.134   6.722   2.500
25821SOL    HW179237   4.135   6.772   2.419
25821SOL    HW279238   4.226   6.698   2.515
25822SOL     OW79239   9.535  14.273  11.900
25822SOL    HW179240   9.477  14.316  11.963
25822SOL    HW279241   9.568  14.196  11.947
25823SOL     OW79242   8.529   7.554   3.456
25823SOL    HW179243   8.484   7.630   3.491
25823SOL    HW279244   8.545   7.498   3.532
25824SOL     OW79245   7.674   6.902   6.514
25824SOL    HW179246   7.632   6.818   6.498
25824SOL    HW279247   7.618   6.966   6.471
25825SOL     OW79248   6.337   7.701  10.058
25825SOL    HW179249   6.431   7.711  10.042
25825SOL    HW279250   6.297   7.765   9.999
25826SOL     OW79251   9.278  13.779   6.658
25826SOL    HW179252   9.270  13.703   6.716
25826SOL    HW279253   9.364  13.816   6.677
25827SOL     OW79254  13.883   5.842   8.068
25827SOL    HW179255  13.842   5.757   8.082
25827SOL    HW279256  13.831   5.903   8.119
25828SOL     OW79257   1.907   3.161   7.811
25828SOL    HW179258   1.874   3.158   7.721
25828SOL    HW279259   1.999   3.186   7.802
25829SOL     OW79260  10.721  12.475   7.836
25829SOL    HW179261  10.695  12.395   7.880
25829SOL    HW279262  10.709  12.456   7.743
25830SOL     OW79263   8.143   1.527   9.569
25830SOL    HW179264   8.138   1.621   9.550
25830SOL    HW279265   8.086   1.486   9.504
25831SOL     OW79266   6.072   7.657   0.305
25831SOL    HW179267   6.057   7.739   0.352
25831SOL    HW279268   5.993   7.645   0.252
25832SOL     OW79269  12.474  13.572   4.016
25832SOL    HW179270  12.469  13.516   4.093
25832SOL    HW279271  12.427  13.524   3.947
25833SOL     OW79272  10.534  12.902   7.144
25833SOL    HW179273  10.601  12.837   7.167
25833SOL    HW279274  10.461  12.851   7.109
25834SOL     OW79275   2.234   7.858   4.080
25834SOL    HW179276   2.288   7.814   4.146
25834SOL    HW279277   2.157   7.889   4.129
25835SOL     OW79278   8.098  10.504   8.462
25835SOL    HW179279   8.133  10.450   8.533
25835SOL    HW279280   8.004  10.485   8.461
25836SOL     OW79281  13.414  10.658   4.519
25836SOL    HW179282  13.335  10.696   4.481
25836SOL    HW279283  13.382  10.601   4.589
25837SOL     OW79284  10.081   3.252   9.949
25837SOL    HW179285  10.049   3.248  10.039
25837SOL    HW279286  10.018   3.308   9.903
25838SOL     OW79287   3.443  11.755   3.553
25838SOL    HW179288   3.428  11.839   3.509
25838SOL    HW279289   3.481  11.779   3.638
25839SOL     OW79290   4.343   7.806   6.843
25839SOL    HW179291   4.362   7.755   6.764
25839SOL    HW279292   4.348   7.744   6.915
25840SOL     OW79293   9.040  10.619  13.797
25840SOL    HW179294   9.059  10.668  13.877
25840SOL    HW279295   8.960  10.659  13.762
25841SOL     OW79296   9.898   2.943   1.636
25841SOL    HW179297   9.814   2.897   1.642
25841SOL    HW279298   9.938   2.908   1.557
25842SOL     OW79299   7.824   7.462  14.718
25842SOL    HW179300   7.846   7.526  14.786
25842SOL    HW279301   7.847   7.504  14.636
25843SOL     OW79302   5.384   6.501  14.411
25843SOL    HW179303   5.405   6.584  14.368
25843SOL    HW279304   5.410   6.514  14.502
25844SOL     OW79305  13.535  14.868   2.984
25844SOL    HW179306  13.592  14.809   3.034
25844SOL    HW279307  13.596   0.048   2.938
25845SOL     OW79308  10.757   6.059   5.929
25845SOL    HW179309  10.793   5.980   5.968
25845SOL    HW279310  10.691   6.089   5.992
25846SOL     OW79311   1.571  11.300   2.770
25846SOL    HW179312   1.561  11.222   2.824
25846SOL    HW279313   1.519  11.282   2.692
25847SOL     OW79314   7.619  13.613  13.408
25847SOL    HW179315   7.567  13.688  13.379
25847SOL    HW279316   7.638  13.565  13.328
25848SOL     OW79317   9.187   7.849  12.584
25848SOL    HW179318   9.117   7.798  12.544
25848SOL    HW279319   9.153   7.938  12.589
25849SOL     OW79320  14.636   9.757   5.991
25849SOL    HW179321  14.691   9.698   5.940
25849SOL    HW279322  14.573   9.699   6.034
25850SOL     OW79323   1.798  13.323  13.544
25850SOL    HW179324   1.824  13.263  13.474
25850SOL    HW279325   1.783  13.266  13.620
25851SOL     OW79326   3.939   6.339   8.954
25851SOL    HW179327   3.876   6.411   8.948
25851SOL    HW279328   4.016   6.377   8.995
25852SOL     OW79329   2.068   4.503  11.275
25852SOL    HW179330   2.072   4.594  11.246
25852SOL    HW279331   1.995   4.466  11.225
25853SOL     OW79332  13.907  11.870   3.401
25853SOL    HW179333  13.876  11.955   3.371
25853SOL    HW279334  13.887  11.869   3.495
25854SOL     OW79335  11.735   1.614   0.059
25854SOL    HW179336  11.788   1.538   0.083
25854SOL    HW279337  11.650   1.598   0.100
25855SOL     OW79338   1.781   5.617   9.318
25855SOL    HW179339   1.793   5.585   9.229
25855SOL    HW279340   1.853   5.579   9.367
25856SOL     OW79341   7.073  14.658  10.411
25856SOL    HW179342   7.015  14.722  10.369
25856SOL    HW279343   7.029  14.638  10.494
25857SOL     OW79344   5.081  13.102   7.926
25857SOL    HW179345   5.138  13.178   7.913
25857SOL    HW279346   5.049  13.081   7.838
25858SOL     OW79347   1.711  11.956   8.199
25858SOL    HW179348   1.646  11.903   8.152
25858SOL    HW279349   1.724  12.033   8.144
25859SOL     OW79350   9.941   0.832   6.422
25859SOL    HW179351   9.991   0.815   6.502
25859SOL    HW279352  10.007   0.832   6.353
25860SOL     OW79353   9.236  11.808   7.419
25860SOL    HW179354   9.205  11.721   7.445
25860SOL    HW279355   9.328  11.809   7.445
25861SOL     OW79356   5.791  12.377   1.285
25861SOL    HW179357   5.774  12.456   1.337
25861SOL    HW279358   5.857  12.404   1.221
25862SOL     OW79359   6.526   3.370   1.970
25862SOL    HW179360   6.535   3.413   1.885
25862SOL    HW279361   6.593   3.411   2.025
25863SOL     OW79362   9.018   5.105   2.463
25863SOL    HW179363   9.064   5.126   2.382
25863SOL    HW279364   8.933   5.148   2.454
25864SOL     OW79365   8.797  10.870   1.306
25864SOL    HW179366   8.801  10.795   1.247
25864SOL    HW279367   8.707  10.871   1.338
25865SOL     OW79368   1.301  14.299   9.035
25865SOL    HW179369   1.390  14.286   9.070
25865SOL    HW279370   1.288  14.394   9.038
25866SOL     OW79371   7.438   7.604   0.340
25866SOL    HW179372   7.454   7.688   0.382
25866SOL    HW279373   7.504   7.599   0.271
25867SOL     OW79374  14.494  12.895   6.932
25867SOL    HW179375  14.520  12.939   7.012
25867SOL    HW279376  14.403  12.920   6.919
25868SOL     OW79377   0.816   0.379   9.854
25868SOL    HW179378   0.747   0.390   9.789
25868SOL    HW279379   0.854   0.294   9.835
25869SOL     OW79380   6.884   0.693  11.765
25869SOL    HW179381   6.807   0.663  11.813
25869SOL    HW279382   6.958   0.654  11.812
25870SOL     OW79383  14.866   5.531   9.217
25870SOL    HW179384  14.798   5.516   9.151
25870SOL    HW279385  14.857   5.624   9.239
25871SOL     OW79386   9.325   6.677  14.718
25871SOL    HW179387   9.308   6.752  14.661
25871SOL    HW279388   9.238   6.649  14.747
25872SOL     OW79389  12.029   3.822   2.813
25872SOL    HW179390  12.078   3.801   2.893
25872SOL    HW279391  12.097   3.848   2.751
25873SOL     OW79392   9.973  12.126   6.562
25873SOL    HW179393  10.058  12.083   6.569
25873SOL    HW279394   9.917  12.062   6.518
25874SOL     OW79395   9.034   1.761   5.478
25874SOL    HW179396   8.993   1.846   5.498
25874SOL    HW279397   9.008   1.742   5.388
25875SOL     OW79398  11.143   0.923   7.056
25875SOL    HW179399  11.126   1.017   7.070
25875SOL    HW279400  11.087   0.900   6.982
25876SOL     OW79401   5.025   9.695  14.185
25876SOL    HW179402   4.984   9.690  14.271
25876SOL    HW279403   5.024   9.789  14.163
25877SOL     OW79404   4.956   3.682   7.197
25877SOL    HW179405   4.937   3.759   7.143
25877SOL    HW279406   4.892   3.686   7.268
25878SOL     OW79407   6.686   5.691  12.903
25878SOL    HW179408   6.779   5.679  12.885
25878SOL    HW279409   6.647   5.605  12.886
25879SOL     OW79410   8.788   2.895   7.497
25879SOL    HW179411   8.726   2.888   7.425
25879SOL    HW279412   8.755   2.969   7.548
25880SOL     OW79413   8.026   6.771   1.561
25880SOL    HW179414   8.059   6.755   1.650
25880SOL    HW279415   7.932   6.784   1.573
25881SOL     OW79416   7.824  12.060   3.411
25881SOL    HW179417   7.764  12.095   3.345
25881SOL    HW279418   7.767  12.013   3.472
25882SOL     OW79419   9.557   3.976   5.019
25882SOL    HW179420   9.577   3.893   5.062
25882SOL    HW279421   9.466   3.967   4.990
25883SOL     OW79422  12.251   4.328  13.495
25883SOL    HW179423  12.321   4.354  13.555
25883SOL    HW279424  12.296   4.305  13.414
25884SOL     OW79425  13.951   8.532   1.597
25884SOL    HW179426  14.028   8.477   1.607
25884SOL    HW279427  13.905   8.496   1.521
25885SOL     OW79428   2.669   0.102   7.445
25885SOL    HW179429   2.639   0.038   7.381
25885SOL    HW279430   2.590   0.125   7.494
25886SOL     OW79431   1.469  10.782   3.734
25886SOL    HW179432   1.528  10.707   3.731
25886SOL    HW279433   1.497  10.838   3.662
25887SOL     OW79434   5.729   0.166   9.125
25887SOL    HW179435   5.770   0.176   9.039
25887SOL    HW279436   5.754   0.078   9.153
25888SOL     OW79437  14.751   2.441   7.206
25888SOL    HW179438  14.792   2.358   7.183
25888SOL    HW279439  14.685   2.418   7.272
25889SOL     OW79440   2.770  12.321  10.352
25889SOL    HW179441   2.738  12.284  10.435
25889SOL    HW279442   2.865  12.325  10.363
25890SOL     OW79443   9.049   5.693  11.838
25890SOL    HW179444   9.122   5.724  11.893
25890SOL    HW279445   9.057   5.746  11.758
25891SOL     OW79446  10.573   2.268   9.820
25891SOL    HW179447  10.646   2.324   9.793
25891SOL    HW279448  10.570   2.200   9.753
25892SOL     OW79449   3.115   6.726   0.659
25892SOL    HW179450   3.133   6.718   0.565
25892SOL    HW279451   3.045   6.664   0.675
25893SOL     OW79452   3.155  12.285   0.360
25893SOL    HW179453   3.193  12.209   0.404
25893SOL    HW279454   3.166  12.266   0.266
25894SOL     OW79455   6.991  11.448   2.922
25894SOL    HW179456   7.079  11.411   2.913
25894SOL    HW279457   6.943  11.414   2.847
25895SOL     OW79458   4.970   3.156   8.224
25895SOL    HW179459   5.019   3.074   8.226
25895SOL    HW279460   4.890   3.137   8.274
25896SOL     OW79461   9.967   4.876   6.744
25896SOL    HW179462   9.884   4.890   6.699
25896SOL    HW279463  10.034   4.903   6.681
25897SOL     OW79464   6.548  12.662  14.622
25897SOL    HW179465   6.627  12.609  14.609
25897SOL    HW279466   6.581  12.746  14.654
25898SOL     OW79467   6.141  14.575   9.181
25898SOL    HW179468   6.209  14.598   9.244
25898SOL    HW279469   6.188  14.540   9.106
25899SOL     OW79470  14.107   7.010  10.167
25899SOL    HW179471  14.088   7.061  10.246
25899SOL    HW279472  14.042   6.940  10.167
25900SOL     OW79473  10.397   2.370   0.732
25900SOL    HW179474  10.361   2.299   0.785
25900SOL    HW279475  10.321   2.406   0.686
25901SOL     OW79476   2.539   2.083  10.514
25901SOL    HW179477   2.466   2.023  10.529
25901SOL    HW279478   2.522   2.119  10.427
25902SOL     OW79479  11.218   6.311  12.149
25902SOL    HW179480  11.245   6.296  12.239
25902SOL    HW279481  11.123   6.298  12.149
25903SOL     OW79482  13.211   9.827  13.160
25903SOL    HW179483  13.214   9.907  13.212
25903SOL    HW279484  13.188   9.856  13.072
25904SOL     OW79485  11.818   6.780   7.201
25904SOL    HW179486  11.742   6.723   7.197
25904SOL    HW279487  11.795   6.846   7.266
25905SOL     OW79488  14.536   7.774   9.114
25905SOL    HW179489  14.533   7.869   9.108
25905SOL    HW279490  14.536   7.756   9.208
25906SOL     OW79491   2.319   2.027  14.748
25906SOL    HW179492   2.338   2.121  14.745
25906SOL    HW279493   2.268   2.011  14.669
25907SOL     OW79494  14.562   4.246   2.732
25907SOL    HW179495  14.527   4.253   2.643
25907SOL    HW279496  14.536   4.159   2.761
25908SOL     OW79497  10.211  10.956   6.924
25908SOL    HW179498  10.151  10.908   6.869
25908SOL    HW279499  10.277  10.892   6.950
25909SOL     OW79500   8.687   4.578   4.998
25909SOL    HW179501   8.780   4.555   4.990
25909SOL    HW279502   8.642   4.521   4.936
25910SOL     OW79503   8.690   6.846   3.244
25910SOL    HW179504   8.784   6.830   3.237
25910SOL    HW279505   8.666   6.810   3.330
25911SOL     OW79506  12.390   1.486   7.591
25911SOL    HW179507  12.318   1.428   7.616
25911SOL    HW279508  12.350   1.549   7.532
25912SOL     OW79509   6.240   3.437  14.429
25912SOL    HW179510   6.240   3.465  14.337
25912SOL    HW279511   6.309   3.488  14.470
25913SOL     OW79512   8.127  14.001   8.140
25913SOL    HW179513   8.200  14.034   8.192
25913SOL    HW279514   8.068  14.075   8.131
25914SOL     OW79515  11.569  13.423   3.399
25914SOL    HW179516  11.485  13.400   3.360
25914SOL    HW279517  11.622  13.454   3.326
25915SOL     OW79518   9.637  10.167   1.208
25915SOL    HW179519   9.638  10.139   1.300
25915SOL    HW279520   9.553  10.211   1.198
25916SOL     OW79521  11.241  14.198   9.550
25916SOL    HW179522  11.174  14.188   9.617
25916SOL    HW279523  11.198  14.248   9.480
25917SOL     OW79524   9.244   6.870   6.105
25917SOL    HW179525   9.308   6.800   6.120
25917SOL    HW279526   9.284   6.947   6.146
25918SOL     OW79527   8.633  13.203   6.296
25918SOL    HW179528   8.543  13.215   6.327
25918SOL    HW279529   8.687  13.237   6.367
25919SOL     OW79530   3.113  12.017   5.876
25919SOL    HW179531   3.197  12.062   5.882
25919SOL    HW279532   3.053  12.083   5.842
25920SOL     OW79533   8.985   1.522   1.426
25920SOL    HW179534   8.962   1.615   1.417
25920SOL    HW279535   9.057   1.521   1.490
25921SOL     OW79536   2.423  14.301  10.805
25921SOL    HW179537   2.386  14.370  10.750
25921SOL    HW279538   2.373  14.306  10.886
25922SOL     OW79539   0.630   5.378   8.371
25922SOL    HW179540   0.588   5.303   8.329
25922SOL    HW279541   0.677   5.422   8.301
25923SOL     OW79542   6.623   6.358   1.578
25923SOL    HW179543   6.620   6.335   1.485
25923SOL    HW279544   6.643   6.452   1.579
25924SOL     OW79545  12.846  11.917   5.586
25924SOL    HW179546  12.834  11.882   5.674
25924SOL    HW279547  12.759  11.911   5.546
25925SOL     OW79548   9.480   7.801  12.466
25925SOL    HW179549   9.473   7.887  12.508
25925SOL    HW279550   9.410   7.750  12.505
25926SOL     OW79551   4.978   3.486  12.199
25926SOL    HW179552   5.000   3.565  12.150
25926SOL    HW279553   4.918   3.516  12.267
25927SOL     OW79554   3.858   4.321   5.360
25927SOL    HW179555   3.920   4.377   5.313
25927SOL    HW279556   3.881   4.232   5.333
25928SOL     OW79557   3.126   0.389  13.997
25928SOL    HW179558   3.040   0.377  14.037
25928SOL    HW279559   3.175   0.310  14.021
25929SOL     OW79560   1.555   6.407  10.028
25929SOL    HW179561   1.539   6.482   9.971
25929SOL    HW279562   1.526   6.331   9.977
25930SOL     OW79563   7.216  13.423   6.461
25930SOL    HW179564   7.186  13.505   6.422
25930SOL    HW279565   7.152  13.404   6.529
25931SOL     OW79566  12.229   9.045   4.393
25931SOL    HW179567  12.316   9.086   4.395
25931SOL    HW279568  12.168   9.118   4.404
25932SOL     OW79569   7.278   7.243  11.348
25932SOL    HW179570   7.261   7.287  11.431
25932SOL    HW279571   7.283   7.150  11.370
25933SOL     OW79572  13.876  10.637  11.942
25933SOL    HW179573  13.950  10.576  11.937
25933SOL    HW279574  13.916  10.724  11.940
25934SOL     OW79575   8.443  10.070  14.636
25934SOL    HW179576   8.378  10.024  14.582
25934SOL    HW279577   8.501  10.112  14.573
25935SOL     OW79578  14.574   4.424  11.810
25935SOL    HW179579  14.600   4.475  11.887
25935SOL    HW279580  14.584   4.333  11.838
25936SOL     OW79581  11.835   1.152   4.838
25936SOL    HW179582  11.862   1.071   4.795
25936SOL    HW279583  11.855   1.221   4.775
25937SOL     OW79584   1.488   8.240   8.287
25937SOL    HW179585   1.457   8.197   8.207
25937SOL    HW279586   1.452   8.329   8.282
25938SOL     OW79587   3.435  10.763   8.339
25938SOL    HW179588   3.370  10.728   8.400
25938SOL    HW279589   3.480  10.831   8.388
25939SOL     OW79590   4.756   4.685  10.968
25939SOL    HW179591   4.767   4.637  11.050
25939SOL    HW279592   4.708   4.764  10.993
25940SOL     OW79593   1.905  14.466   8.667
25940SOL    HW179594   1.933  14.553   8.638
25940SOL    HW279595   1.843  14.484   8.738
25941SOL     OW79596  10.655   7.030   6.896
25941SOL    HW179597  10.608   7.113   6.903
25941SOL    HW279598  10.589   6.964   6.915
25942SOL     OW79599   7.234  13.670   3.741
25942SOL    HW179600   7.264  13.636   3.825
25942SOL    HW279601   7.160  13.727   3.763
25943SOL     OW79602   2.849   8.478   7.954
25943SOL    HW179603   2.754   8.491   7.950
25943SOL    HW279604   2.860   8.399   8.007
25944SOL     OW79605  11.818   2.895  13.321
25944SOL    HW179606  11.870   2.915  13.243
25944SOL    HW279607  11.769   2.976  13.338
25945SOL     OW79608   6.307  14.693  10.708
25945SOL    HW179609   6.250  14.759  10.745
25945SOL    HW279610   6.390  14.738  10.692
25946SOL     OW79611   3.828   8.460   0.340
25946SOL    HW179612   3.836   8.492   0.430
25946SOL    HW279613   3.907   8.407   0.326
25947SOL     OW79614  10.752  10.006   4.340
25947SOL    HW179615  10.802  10.035   4.416
25947SOL    HW279616  10.733  10.086   4.291
25948SOL     OW79617  10.162   5.504   6.014
25948SOL    HW179618  10.076   5.494   6.054
25948SOL    HW279619  10.147   5.561   5.938
25949SOL     OW79620   1.135   1.333   0.357
25949SOL    HW179621   1.059   1.326   0.299
25949SOL    HW279622   1.099   1.323   0.446
25950SOL     OW79623   7.551   0.776  13.762
25950SOL    HW179624   7.611   0.769  13.836
25950SOL    HW279625   7.596   0.730  13.690
25951SOL     OW79626   7.069  11.375   4.256
25951SOL    HW179627   6.991  11.427   4.237
25951SOL    HW279628   7.047  11.329   4.337
25952SOL     OW79629  10.723   7.300  14.028
25952SOL    HW179630  10.763   7.273  13.946
25952SOL    HW279631  10.663   7.228  14.050
25953SOL     OW79632  11.016   8.574   7.417
25953SOL    HW179633  10.981   8.486   7.400
25953SOL    HW279634  11.016   8.581   7.513
25954SOL     OW79635   3.830   2.645  13.490
25954SOL    HW179636   3.840   2.734  13.457
25954SOL    HW279637   3.749   2.613  13.450
25955SOL     OW79638   3.031   2.204   3.417
25955SOL    HW179639   3.023   2.109   3.417
25955SOL    HW279640   3.126   2.221   3.419
25956SOL     OW79641  14.520   4.088  13.096
25956SOL    HW179642  14.559   4.025  13.156
25956SOL    HW279643  14.465   4.036  13.038
25957SOL     OW79644  10.988  10.655   7.197
25957SOL    HW179645  10.943  10.572   7.178
25957SOL    HW279646  10.971  10.709   7.120
25958SOL     OW79647   7.092  11.126  14.302
25958SOL    HW179648   7.120  11.050  14.252
25958SOL    HW279649   7.050  11.090  14.380
25959SOL     OW79650   6.713  13.119   3.265
25959SOL    HW179651   6.676  13.203   3.292
25959SOL    HW279652   6.806  13.137   3.248
25960SOL     OW79653  14.622   5.302   5.756
25960SOL    HW179654  14.595   5.386   5.717
25960SOL    HW279655  14.644   5.323   5.846
25961SOL     OW79656   9.613  10.210  13.929
25961SOL    HW179657   9.569  10.293  13.908
25961SOL    HW279658   9.600  10.156  13.851
25962SOL     OW79659   9.416  13.226  14.019
25962SOL    HW179660   9.351  13.157  14.003
25962SOL    HW279661   9.365  13.301  14.051
25963SOL     OW79662  10.157  10.986   5.422
25963SOL    HW179663  10.067  10.963   5.444
25963SOL    HW279664  10.210  10.929   5.477
25964SOL     OW79665  10.881   1.579  12.728
25964SOL    HW179666  10.875   1.667  12.765
25964SOL    HW279667  10.793   1.562  12.693
25965SOL     OW79668   7.617   7.851  13.233
25965SOL    HW179669   7.545   7.883  13.178
25965SOL    HW279670   7.667   7.794  13.174
25966SOL     OW79671  11.296   1.436  14.819
25966SOL    HW179672  11.209   1.407  14.792
25966SOL    HW279673  11.322   1.373   0.008
25967SOL     OW79674  10.112   9.358  11.215
25967SOL    HW179675  10.155   9.272  11.219
25967SOL    HW279676  10.020   9.337  11.198
25968SOL     OW79677   1.307  10.265  10.978
25968SOL    HW179678   1.351  10.247  11.062
25968SOL    HW279679   1.370  10.317  10.929
25969SOL     OW79680  12.767   0.492   8.876
25969SOL    HW179681  12.749   0.405   8.840
25969SOL    HW279682  12.858   0.487   8.907
25970SOL     OW79683   5.082   1.865   3.600
25970SOL    HW179684   5.143   1.867   3.674
25970SOL    HW279685   5.036   1.949   3.603
25971SOL     OW79686  10.748   1.734  14.619
25971SOL    HW179687  10.834   1.775  14.627
25971SOL    HW279688  10.687   1.802  14.647
25972SOL     OW79689   4.056   8.346  11.478
25972SOL    HW179690   4.065   8.380  11.567
25972SOL    HW279691   4.130   8.286  11.467
25973SOL     OW79692   8.739   7.739   5.728
25973SOL    HW179693   8.729   7.645   5.746
25973SOL    HW279694   8.801   7.743   5.655
25974SOL     OW79695  11.814   8.221   8.917
25974SOL    HW179696  11.891   8.165   8.908
25974SOL    HW279697  11.810   8.269   8.834
25975SOL     OW79698   0.173  12.259  14.677
25975SOL    HW179699   0.181  12.250  14.582
25975SOL    HW279700   0.262  12.246  14.710
25976SOL     OW79701   0.324   4.427  12.319
25976SOL    HW179702   0.250   4.485  12.308
25976SOL    HW279703   0.394   4.465  12.266
25977SOL     OW79704   5.168   4.096  11.249
25977SOL    HW179705   5.204   4.163  11.308
25977SOL    HW279706   5.132   4.030  11.308
25978SOL     OW79707   3.335   0.710  13.170
25978SOL    HW179708   3.331   0.712  13.074
25978SOL    HW279709   3.347   0.618  13.191
25979SOL     OW79710  10.626  11.471   7.445
25979SOL    HW179711  10.554  11.444   7.389
25979SOL    HW279712  10.694  11.406   7.430
25980SOL     OW79713  14.109  10.830   4.459
25980SOL    HW179714  14.087  10.811   4.551
25980SOL    HW279715  14.191  10.879   4.463
25981SOL     OW79716   7.272  10.119  13.589
25981SOL    HW179717   7.215  10.050  13.554
25981SOL    HW279718   7.360  10.081  13.587
25982SOL     OW79719   3.887   9.503   8.872
25982SOL    HW179720   3.858   9.412   8.879
25982SOL    HW279721   3.901   9.516   8.778
25983SOL     OW79722   1.500   3.188  12.695
25983SOL    HW179723   1.443   3.113  12.713
25983SOL    HW279724   1.581   3.150  12.662
25984SOL     OW79725  10.984   3.647  14.430
25984SOL    HW179726  10.911   3.603  14.473
25984SOL    HW279727  11.003   3.593  14.353
25985SOL     OW79728   7.215   1.290   6.189
25985SOL    HW179729   7.189   1.208   6.147
25985SOL    HW279730   7.201   1.357   6.122
25986SOL     OW79731   5.783   6.542  13.559
25986SOL    HW179732   5.794   6.520  13.651
25986SOL    HW279733   5.738   6.627  13.560
25987SOL     OW79734   5.045   4.310  12.271
25987SOL    HW179735   5.061   4.309  12.366
25987SOL    HW279736   5.124   4.270  12.234
25988SOL     OW79737   5.448  11.794  11.623
25988SOL    HW179738   5.461  11.871  11.679
25988SOL    HW279739   5.525  11.739  11.640
25989SOL     OW79740  12.551   7.149   1.823
25989SOL    HW179741  12.537   7.216   1.756
25989SOL    HW279742  12.576   7.198   1.902
25990SOL     OW79743   5.825   0.145   6.831
25990SOL    HW179744   5.814   0.212   6.763
25990SOL    HW279745   5.887   0.083   6.794
25991SOL     OW79746   2.073   1.815   7.805
25991SOL    HW179747   2.012   1.888   7.818
25991SOL    HW279748   2.054   1.783   7.717
25992SOL     OW79749  10.842  14.453   6.567
25992SOL    HW179750  10.851  14.426   6.476
25992SOL    HW279751  10.908  14.401   6.614
25993SOL     OW79752   0.581   8.258   6.909
25993SOL    HW179753   0.646   8.302   6.965
25993SOL    HW279754   0.500   8.307   6.925
25994SOL     OW79755   8.861   4.082  13.870
25994SOL    HW179756   8.849   4.164  13.918
25994SOL    HW279757   8.795   4.023  13.906
25995SOL     OW79758   8.460   2.092   7.946
25995SOL    HW179759   8.395   2.069   7.880
25995SOL    HW279760   8.509   2.011   7.961
25996SOL     OW79761   3.106   7.900  10.258
25996SOL    HW179762   3.012   7.911  10.244
25996SOL    HW279763   3.114   7.815  10.301
25997SOL     OW79764   8.403   5.707   4.354
25997SOL    HW179765   8.309   5.715   4.336
25997SOL    HW279766   8.431   5.796   4.373
25998SOL     OW79767  13.045   4.888   2.053
25998SOL    HW179768  13.070   4.888   1.961
25998SOL    HW279769  13.126   4.908   2.100
25999SOL     OW79770   8.081   6.687   5.501
25999SOL    HW179771   8.040   6.718   5.582
25999SOL    HW279772   8.156   6.745   5.488
26000SOL     OW79773   7.748  12.853   1.445
26000SOL    HW179774   7.782  12.868   1.533
26000SOL    HW279775   7.707  12.936   1.420
26001SOL     OW79776   6.100   7.099   8.315
26001SOL    HW179777   6.111   7.070   8.405
26001SOL    HW279778   6.172   7.058   8.268
26002SOL     OW79779   0.918   9.668  13.913
26002SOL    HW179780   0.878   9.606  13.852
26002SOL    HW279781   0.845   9.721  13.945
26003SOL     OW79782  12.747   6.019   2.117
26003SOL    HW179783  12.771   6.103   2.155
26003SOL    HW279784  12.669   5.992   2.165
26004SOL     OW79785  12.653   2.198   1.587
26004SOL    HW179786  12.684   2.288   1.595
26004SOL    HW279787  12.558   2.204   1.596
26005SOL     OW79788  10.701   2.272   6.634
26005SOL    HW179789  10.791   2.255   6.662
26005SOL    HW279790  10.688   2.217   6.557
26006SOL     OW79791   8.843  14.135  12.622
26006SOL    HW179792   8.842  14.040  12.632
26006SOL    HW279793   8.806  14.168  12.704
26007SOL     OW79794  14.218   0.038  14.778
26007SOL    HW179795  14.197   0.046  14.685
26007SOL    HW279796  14.296   0.092  14.789
26008SOL     OW79797  11.770  10.042   2.717
26008SOL    HW179798  11.788   9.972   2.779
26008SOL    HW279799  11.718  10.001   2.648
26009SOL     OW79800  12.361   2.580   4.057
26009SOL    HW179801  12.413   2.500   4.057
26009SOL    HW279802  12.331   2.589   3.967
26010SOL     OW79803  11.314   7.914  10.885
26010SOL    HW179804  11.273   7.994  10.852
26010SOL    HW279805  11.345   7.937  10.973
26011SOL     OW79806  11.886   2.103   9.119
26011SOL    HW179807  11.904   2.040   9.050
26011SOL    HW279808  11.953   2.085   9.186
26012SOL     OW79809   9.856   8.463   6.222
26012SOL    HW179810   9.929   8.485   6.279
26012SOL    HW279811   9.847   8.539   6.165
26013SOL     OW79812  11.333   6.856   9.036
26013SOL    HW179813  11.335   6.760   9.037
26013SOL    HW279814  11.244   6.878   9.010
26014SOL     OW79815   8.635   2.317   9.175
26014SOL    HW179816   8.591   2.285   9.096
26014SOL    HW279817   8.572   2.303   9.246
26015SOL     OW79818   2.247  11.282   4.371
26015SOL    HW179819   2.303  11.342   4.322
26015SOL    HW279820   2.177  11.259   4.310
26016SOL     OW79821   2.474  13.243   5.660
26016SOL    HW179822   2.489  13.304   5.588
26016SOL    HW279823   2.528  13.167   5.639
26017SOL     OW79824  11.032  13.453   6.344
26017SOL    HW179825  11.009  13.373   6.391
26017SOL    HW279826  11.076  13.508   6.409
26018SOL     OW79827   1.281  13.425   6.072
26018SOL    HW179828   1.328  13.453   6.151
26018SOL    HW279829   1.222  13.497   6.052
26019SOL     OW79830   6.311  12.156   1.647
26019SOL    HW179831   6.359  12.112   1.718
26019SOL    HW279832   6.236  12.195   1.691
26020SOL     OW79833   9.867   7.366  12.573
26020SOL    HW179834   9.871   7.410  12.489
26020SOL    HW279835   9.782   7.322  12.574
26021SOL     OW79836  11.066   4.406   9.122
26021SOL    HW179837  10.984   4.376   9.081
26021SOL    HW279838  11.076   4.350   9.198
26022SOL     OW79839   0.053   1.109   9.603
26022SOL    HW179840   0.003   1.137   9.680
26022SOL    HW279841   0.094   1.027   9.630
26023SOL     OW79842   9.083  13.224   3.775
26023SOL    HW179843   9.096  13.319   3.774
26023SOL    HW279844   9.033  13.206   3.695
26024SOL     OW79845   3.547   1.647   2.079
26024SOL    HW179846   3.623   1.653   2.022
26024SOL    HW279847   3.482   1.704   2.038
26025SOL     OW79848   9.655  12.936   0.888
26025SOL    HW179849   9.575  12.897   0.851
26025SOL    HW279850   9.709  12.955   0.812
26026SOL     OW79851   2.455   3.691   1.723
26026SOL    HW179852   2.364   3.691   1.692
26026SOL    HW279853   2.455   3.632   1.798
26027SOL     OW79854   3.231   6.803  14.639
26027SOL    HW179855   3.156   6.863  14.638
26027SOL    HW279856   3.194   6.720  14.670
26028SOL     OW79857   2.067  14.091  12.158
26028SOL    HW179858   2.112  14.014  12.193
26028SOL    HW279859   2.106  14.165  12.203
26029SOL     OW79860  13.860   0.056  11.104
26029SOL    HW179861  13.935   0.088  11.054
26029SOL    HW279862  13.786   0.065  11.045
26030SOL     OW79863   9.214  14.871   0.027
26030SOL    HW179864   9.266   0.027  14.832
26030SOL    HW279865   9.279  14.835   0.088
26031SOL     OW79866   7.428  13.901  11.115
26031SOL    HW179867   7.522  13.895  11.131
26031SOL    HW279868   7.391  13.828  11.165
26032SOL     OW79869   5.551   2.953  14.285
26032SOL    HW179870   5.609   3.030  14.280
26032SOL    HW279871   5.469   2.987  14.320
26033SOL     OW79872   1.305  14.431   5.919
26033SOL    HW179873   1.274  14.520   5.936
26033SOL    HW279874   1.351  14.406   5.999
26034SOL     OW79875   8.066  12.199   7.415
26034SOL    HW179876   8.117  12.257   7.359
26034SOL    HW279877   8.021  12.140   7.354
26035SOL     OW79878   5.691   8.945   5.961
26035SOL    HW179879   5.719   8.914   5.875
26035SOL    HW279880   5.772   8.976   6.002
26036SOL     OW79881  12.253  14.682   2.363
26036SOL    HW179882  12.215  14.602   2.400
26036SOL    HW279883  12.344  14.660   2.347
26037SOL     OW79884   2.307   0.428   3.321
26037SOL    HW179885   2.348   0.491   3.262
26037SOL    HW279886   2.353   0.439   3.404
26038SOL     OW79887   1.777   5.282   6.037
26038SOL    HW179888   1.832   5.333   6.097
26038SOL    HW279889   1.760   5.200   6.084
26039SOL     OW79890   2.151   5.995   9.987
26039SOL    HW179891   2.243   5.975   9.971
26039SOL    HW279892   2.105   5.914   9.965
26040SOL     OW79893   1.632   0.518   5.789
26040SOL    HW179894   1.595   0.568   5.717
26040SOL    HW279895   1.726   0.539   5.788
26041SOL     OW79896   4.928   7.382   1.493
26041SOL    HW179897   4.851   7.333   1.466
26041SOL    HW279898   4.894   7.454   1.546
26042SOL     OW79899  11.192  13.754   3.804
26042SOL    HW179900  11.282  13.779   3.784
26042SOL    HW279901  11.179  13.782   3.895
26043SOL     OW79902  12.878   9.928  12.859
26043SOL    HW179903  12.971   9.909  12.850
26043SOL    HW279904  12.842   9.851  12.903
26044SOL     OW79905  14.423  13.631   3.203
26044SOL    HW179906  14.454  13.706   3.254
26044SOL    HW279907  14.334  13.655   3.177
26045SOL     OW79908  12.769   0.460   7.316
26045SOL    HW179909  12.818   0.542   7.310
26045SOL    HW279910  12.835   0.392   7.319
26046SOL     OW79911   0.947   2.806   1.321
26046SOL    HW179912   0.975   2.876   1.380
26046SOL    HW279913   0.852   2.812   1.319
26047SOL     OW79914   6.590   1.237   2.946
26047SOL    HW179915   6.507   1.276   2.917
26047SOL    HW279916   6.576   1.143   2.934
26048SOL     OW79917   0.998   0.393   7.439
26048SOL    HW179918   0.957   0.404   7.525
26048SOL    HW279919   1.083   0.353   7.458
26049SOL     OW79920  11.356   0.165   8.296
26049SOL    HW179921  11.427   0.224   8.318
26049SOL    HW279922  11.321   0.137   8.381
26050SOL     OW79923   4.283  13.364  12.922
26050SOL    HW179924   4.287  13.418  12.844
26050SOL    HW279925   4.190  13.350  12.938
26051SOL     OW79926   3.344   9.874   2.318
26051SOL    HW179927   3.324   9.783   2.298
26051SOL    HW279928   3.351   9.877   2.414
26052SOL     OW79929   4.105   6.413  12.046
26052SOL    HW179930   4.180   6.369  12.006
26052SOL    HW279931   4.110   6.389  12.138
26053SOL     OW79932  11.479   2.527   7.218
26053SOL    HW179933  11.567   2.511   7.252
26053SOL    HW279934  11.424   2.539   7.296
26054SOL     OW79935   1.629   2.280   6.998
26054SOL    HW179936   1.569   2.320   7.061
26054SOL    HW279937   1.706   2.337   6.999
26055SOL     OW79938   7.692   2.944   9.569
26055SOL    HW179939   7.676   2.904   9.483
26055SOL    HW279940   7.649   3.029   9.565
26056SOL     OW79941   8.975  14.465  12.290
26056SOL    HW179942   8.980  14.425  12.376
26056SOL    HW279943   9.046  14.530  12.290
26057SOL     OW79944  11.120   3.181   8.830
26057SOL    HW179945  11.038   3.186   8.780
26057SOL    HW279946  11.096   3.212   8.918
26058SOL     OW79947   9.217   4.348   3.472
26058SOL    HW179948   9.246   4.424   3.522
26058SOL    HW279949   9.232   4.371   3.381
26059SOL     OW79950   5.543   1.448   3.490
26059SOL    HW179951   5.486   1.522   3.508
26059SOL    HW279952   5.502   1.402   3.417
26060SOL     OW79953   0.913   8.427  13.359
26060SOL    HW179954   0.881   8.454  13.274
26060SOL    HW279955   1.004   8.401  13.344
26061SOL     OW79956   7.500   1.335  13.260
26061SOL    HW179957   7.522   1.394  13.333
26061SOL    HW279958   7.407   1.350  13.246
26062SOL     OW79959   5.866   1.541  13.083
26062SOL    HW179960   5.850   1.494  13.165
26062SOL    HW279961   5.865   1.633  13.109
26063SOL     OW79962   4.043   3.309   8.013
26063SOL    HW179963   4.049   3.299   7.918
26063SOL    HW279964   3.988   3.235   8.041
26064SOL     OW79965  13.551   7.641   4.023
26064SOL    HW179966  13.578   7.596   4.103
26064SOL    HW279967  13.510   7.722   4.054
26065SOL     OW79968   9.543  13.926  10.977
26065SOL    HW179969   9.542  13.981  10.899
26065SOL    HW279970   9.522  13.986  11.049
26066SOL     OW79971   6.644   2.492  14.025
26066SOL    HW179972   6.626   2.576  13.984
26066SOL    HW279973   6.693   2.443  13.959
26067SOL     OW79974   5.510   1.938   1.329
26067SOL    HW179975   5.596   1.969   1.358
26067SOL    HW279976   5.517   1.843   1.328
26068SOL     OW79977   6.411  10.837   2.074
26068SOL    HW179978   6.361  10.763   2.038
26068SOL    HW279979   6.477  10.796   2.130
26069SOL     OW79980   2.516   2.861   2.122
26069SOL    HW179981   2.473   2.780   2.096
26069SOL    HW279982   2.512   2.861   2.217
26070SOL     OW79983   1.410  14.351   5.656
26070SOL    HW179984   1.338  14.304   5.613
26070SOL    HW279985   1.371  14.389   5.734
26071SOL     OW79986   4.854  13.203   8.116
26071SOL    HW179987   4.939  13.179   8.080
26071SOL    HW279988   4.844  13.296   8.094
26072SOL     OW79989   9.156  14.310   3.377
26072SOL    HW179990   9.152  14.300   3.472
26072SOL    HW279991   9.134  14.223   3.343
26073SOL     OW79992   2.867  13.363   5.763
26073SOL    HW179993   2.827  13.441   5.802
26073SOL    HW279994   2.957  13.389   5.743
26074SOL     OW79995   6.318   6.870   1.906
26074SOL    HW179996   6.299   6.955   1.945
26074SOL    HW279997   6.315   6.885   1.812
26075SOL     OW79998  11.363  12.539  14.632
26075SOL    HW179999  11.363  12.585  14.548
26075SOL    HW280000  11.377  12.447  14.609
26076SOL     OW80001  11.972   2.985   5.164
26076SOL    HW180002  11.950   2.939   5.245
26076SOL    HW280003  11.956   2.922   5.094
26077SOL     OW80004   6.521   9.203   3.652
26077SOL    HW180005   6.559   9.140   3.591
26077SOL    HW280006   6.556   9.288   3.624
26078SOL     OW80007   1.436   4.301   7.341
26078SOL    HW180008   1.446   4.228   7.403
26078SOL    HW280009   1.500   4.283   7.272
26079SOL     OW80010   9.940   5.594   5.824
26079SOL    HW180011   9.892   5.663   5.779
26079SOL    HW280012   9.903   5.593   5.913
26080SOL     OW80013   9.833   6.012   7.884
26080SOL    HW180014   9.802   6.088   7.836
26080SOL    HW280015   9.837   6.041   7.975
26081SOL     OW80016  13.978   6.727   1.968
26081SOL    HW180017  14.046   6.702   2.030
26081SOL    HW280018  13.944   6.810   2.002
26082SOL     OW80019   5.580   4.187  10.086
26082SOL    HW180020   5.488   4.165  10.098
26082SOL    HW280021   5.594   4.184   9.991
26083SOL     OW80022   5.663  13.399  10.244
26083SOL    HW180023   5.650  13.424  10.336
26083SOL    HW280024   5.660  13.304  10.244
26084SOL     OW80025  13.703   4.146   3.789
26084SOL    HW180026  13.786   4.181   3.822
26084SOL    HW280027  13.717   4.130   3.696
26085SOL     OW80028   9.420  13.460   9.028
26085SOL    HW180029   9.457  13.423   8.947
26085SOL    HW280030   9.325  13.457   9.014
26086SOL     OW80031   0.807  10.899   0.754
26086SOL    HW180032   0.835  10.988   0.776
26086SOL    HW280033   0.712  10.904   0.752
26087SOL     OW80034   0.611   2.380   6.670
26087SOL    HW180035   0.564   2.307   6.711
26087SOL    HW280036   0.703   2.353   6.672
26088SOL     OW80037   3.418  11.137   1.590
26088SOL    HW180038   3.504  11.160   1.556
26088SOL    HW280039   3.436  11.076   1.662
26089SOL     OW80040  11.795   0.313   5.585
26089SOL    HW180041  11.715   0.342   5.627
26089SOL    HW280042  11.863   0.369   5.621
26090SOL     OW80043   6.537  14.238  14.858
26090SOL    HW180044   6.599  14.246   0.053
26090SOL    HW280045   6.592  14.239  14.780
26091SOL     OW80046   4.621   0.411   8.789
26091SOL    HW180047   4.663   0.379   8.710
26091SOL    HW280048   4.681   0.477   8.824
26092SOL     OW80049   4.674   8.901   1.331
26092SOL    HW180050   4.648   8.826   1.383
26092SOL    HW280051   4.740   8.867   1.270
26093SOL     OW80052   5.891   1.412   5.303
26093SOL    HW180053   5.827   1.483   5.293
26093SOL    HW280054   5.956   1.447   5.364
26094SOL     OW80055   0.095   9.465  11.091
26094SOL    HW180056   0.106   9.371  11.100
26094SOL    HW280057   0.053   9.477  11.006
26095SOL     OW80058  13.783   8.557   9.742
26095SOL    HW180059  13.756   8.644   9.713
26095SOL    HW280060  13.848   8.529   9.678
26096SOL     OW80061  10.386   1.702   3.134
26096SOL    HW180062  10.450   1.724   3.201
26096SOL    HW280063  10.378   1.606   3.138
26097SOL     OW80064   9.378   6.830   6.421
26097SOL    HW180065   9.454   6.843   6.363
26097SOL    HW280066   9.353   6.739   6.407
26098SOL     OW80067  10.358   1.743   9.722
26098SOL    HW180068  10.290   1.785   9.775
26098SOL    HW280069  10.347   1.781   9.635
26099SOL     OW80070   1.842  10.992   4.193
26099SOL    HW180071   1.837  10.996   4.098
26099SOL    HW280072   1.858  11.082   4.220
26100SOL     OW80073   5.637   6.006   1.268
26100SOL    HW180074   5.546   6.034   1.265
26100SOL    HW280075   5.642   5.948   1.344
26101SOL     OW80076   2.997   0.708  10.247
26101SOL    HW180077   3.033   0.701  10.159
26101SOL    HW280078   2.925   0.770  10.239
26102SOL     OW80079   8.960   5.635   0.695
26102SOL    HW180080   9.008   5.641   0.778
26102SOL    HW280081   8.868   5.628   0.722
26103SOL     OW80082  13.418   4.860   8.062
26103SOL    HW180083  13.332   4.886   8.029
26103SOL    HW280084  13.411   4.766   8.075
26104SOL     OW80085   0.330  14.827  14.115
26104SOL    HW180086   0.251  14.865  14.155
26104SOL    HW280087   0.318  14.733  14.122
26105SOL     OW80088   0.602   6.962   3.934
26105SOL    HW180089   0.654   6.992   3.860
26105SOL    HW280090   0.523   7.017   3.931
26106SOL     OW80091   0.534   7.980   5.110
26106SOL    HW180092   0.489   8.042   5.052
26106SOL    HW280093   0.553   8.031   5.189
26107SOL     OW80094  10.025  11.520   9.355
26107SOL    HW180095  10.120  11.529   9.366
26107SOL    HW280096   9.993  11.611   9.354
26108SOL     OW80097  12.989   5.075  11.223
26108SOL    HW180098  12.955   5.127  11.297
26108SOL    HW280099  13.022   5.141  11.162
26109SOL     OW80100   5.108  12.619   9.597
26109SOL    HW180101   5.140  12.656   9.680
26109SOL    HW280102   5.014  12.608   9.610
26110SOL     OW80103  12.887   0.917   2.123
26110SOL    HW180104  12.961   0.867   2.158
26110SOL    HW280105  12.924   0.966   2.049
26111SOL     OW80106  14.499   0.188   8.580
26111SOL    HW180107  14.449   0.106   8.585
26111SOL    HW280108  14.435   0.253   8.550
26112SOL     OW80109   1.034   3.681   2.621
26112SOL    HW180110   1.038   3.722   2.707
26112SOL    HW280111   0.945   3.647   2.615
26113SOL     OW80112   8.988   7.105   8.818
26113SOL    HW180113   8.995   7.119   8.913
26113SOL    HW280114   9.075   7.073   8.793
26114SOL     OW80115  10.540   9.465   4.528
26114SOL    HW180116  10.524   9.532   4.462
26114SOL    HW280117  10.457   9.456   4.575
26115SOL     OW80118   1.551   3.410  10.474
26115SOL    HW180119   1.530   3.459  10.555
26115SOL    HW280120   1.606   3.338  10.504
26116SOL     OW80121   7.654   0.392   7.285
26116SOL    HW180122   7.564   0.366   7.268
26116SOL    HW280123   7.657   0.411   7.379
26117SOL     OW80124   0.879   1.000  10.823
26117SOL    HW180125   0.916   0.989  10.910
26117SOL    HW280126   0.867   1.094  10.813
26118SOL     OW80127  11.729  11.038   6.316
26118SOL    HW180128  11.695  10.949   6.314
26118SOL    HW280129  11.770  11.050   6.230
26119SOL     OW80130  11.871   8.704   1.976
26119SOL    HW180131  11.823   8.621   1.984
26119SOL    HW280132  11.956   8.686   2.017
26120SOL     OW80133   2.315  11.941   3.881
26120SOL    HW180134   2.324  11.970   3.972
26120SOL    HW280135   2.400  11.905   3.858
26121SOL     OW80136   2.719   6.837  10.445
26121SOL    HW180137   2.773   6.757  10.447
26121SOL    HW280138   2.635   6.808  10.410
26122SOL     OW80139   9.068   5.837   4.166
26122SOL    HW180140   9.119   5.829   4.247
26122SOL    HW280141   9.037   5.748   4.149
26123SOL     OW80142   7.893   0.887   7.066
26123SOL    HW180143   7.851   0.801   7.068
26123SOL    HW280144   7.937   0.890   6.981
26124SOL     OW80145   8.118  14.807  11.575
26124SOL    HW180146   8.023  14.819  11.573
26124SOL    HW280147   8.132  14.719  11.540
26125SOL     OW80148   0.856  13.636  10.374
26125SOL    HW180149   0.786  13.573  10.392
26125SOL    HW280150   0.937  13.590  10.398
26126SOL     OW80151   5.459  13.330   8.137
26126SOL    HW180152   5.548  13.324   8.103
26126SOL    HW280153   5.468  13.307   8.230
26127SOL     OW80154   5.588   7.178   9.311
26127SOL    HW180155   5.542   7.115   9.255
26127SOL    HW280156   5.611   7.128   9.389
26128SOL     OW80157  12.942   4.849   4.715
26128SOL    HW180158  12.883   4.783   4.679
26128SOL    HW280159  12.923   4.928   4.664
26129SOL     OW80160   1.472   9.699   1.207
26129SOL    HW180161   1.445   9.679   1.297
26129SOL    HW280162   1.513   9.618   1.176
26130SOL     OW80163  11.772   4.249   8.905
26130SOL    HW180164  11.718   4.325   8.885
26130SOL    HW280165  11.862   4.281   8.901
26131SOL     OW80166  14.552   3.073   3.698
26131SOL    HW180167  14.520   3.160   3.679
26131SOL    HW280168  14.603   3.083   3.779
26132SOL     OW80169  11.704   3.374   9.069
26132SOL    HW180170  11.649   3.326   9.131
26132SOL    HW280171  11.676   3.465   9.076
26133SOL     OW80172   7.965   9.137  10.422
26133SOL    HW180173   7.916   9.081  10.362
26133SOL    HW280174   7.906   9.152  10.495
26134SOL     OW80175   5.202   2.989  12.529
26134SOL    HW180176   5.169   2.991  12.440
26134SOL    HW280177   5.190   2.899  12.558
26135SOL     OW80178   9.680   2.668  13.747
26135SOL    HW180179   9.600   2.712  13.719
26135SOL    HW280180   9.666   2.576  13.725
26136SOL     OW80181   2.969  11.102   2.669
26136SOL    HW180182   3.028  11.096   2.744
26136SOL    HW280183   3.028  11.109   2.594
26137SOL     OW80184   8.689  10.023   4.378
26137SOL    HW180185   8.609  10.074   4.371
26137SOL    HW280186   8.660   9.935   4.401
26138SOL     OW80187  12.534  13.436   7.671
26138SOL    HW180188  12.574  13.362   7.716
26138SOL    HW280189  12.462  13.463   7.728
26139SOL     OW80190   1.474   1.322   6.871
26139SOL    HW180191   1.443   1.233   6.856
26139SOL    HW280192   1.412   1.358   6.936
26140SOL     OW80193   3.690   6.988  11.470
26140SOL    HW180194   3.715   7.010  11.380
26140SOL    HW280195   3.595   6.980  11.467
26141SOL     OW80196   2.492   4.355   2.728
26141SOL    HW180197   2.464   4.361   2.637
26141SOL    HW280198   2.491   4.262   2.748
26142SOL     OW80199   4.126   4.185  13.077
26142SOL    HW180200   4.175   4.112  13.116
26142SOL    HW280201   4.035   4.166  13.097
26143SOL     OW80202   9.945   9.693   7.593
26143SOL    HW180203   9.895   9.712   7.513
26143SOL    HW280204   9.924   9.602   7.613
26144SOL     OW80205   2.623   9.724   8.902
26144SOL    HW180206   2.618   9.631   8.878
26144SOL    HW280207   2.664   9.724   8.988
26145SOL     OW80208   2.493  10.029  13.664
26145SOL    HW180209   2.472   9.989  13.749
26145SOL    HW280210   2.589  10.036  13.664
26146SOL     OW80211   8.527  12.938   9.462
26146SOL    HW180212   8.471  12.908   9.533
26146SOL    HW280213   8.536  12.862   9.404
26147SOL     OW80214  14.292   9.159   0.331
26147SOL    HW180215  14.230   9.165   0.259
26147SOL    HW280216  14.248   9.202   0.405
26148SOL     OW80217  14.434   1.401   3.895
26148SOL    HW180218  14.407   1.487   3.864
26148SOL    HW280219  14.457   1.353   3.815
26149SOL     OW80220   3.238  13.582   1.528
26149SOL    HW180221   3.280  13.593   1.442
26149SOL    HW280222   3.151  13.620   1.516
26150SOL     OW80223  12.689   2.723   6.526
26150SOL    HW180224  12.669   2.629   6.518
26150SOL    HW280225  12.640   2.763   6.455
26151SOL     OW80226  12.537  11.508  10.208
26151SOL    HW180227  12.617  11.489  10.257
26151SOL    HW280228  12.495  11.579  10.257
26152SOL     OW80229   1.425  10.291  11.967
26152SOL    HW180230   1.515  10.269  11.990
26152SOL    HW280231   1.404  10.232  11.895
26153SOL     OW80232  11.261  10.995   4.782
26153SOL    HW180233  11.204  11.072   4.794
26153SOL    HW280234  11.320  11.021   4.711
26154SOL     OW80235  12.073  13.696   2.981
26154SOL    HW180236  12.084  13.791   2.974
26154SOL    HW280237  12.014  13.673   2.910
26155SOL     OW80238  12.958   8.690   3.426
26155SOL    HW180239  12.895   8.639   3.375
26155SOL    HW280240  12.917   8.775   3.437
26156SOL     OW80241  11.332  12.426   0.576
26156SOL    HW180242  11.280  12.396   0.502
26156SOL    HW280243  11.268  12.457   0.640
26157SOL     OW80244   2.013  13.981   1.637
26157SOL    HW180245   1.975  14.032   1.709
26157SOL    HW280246   1.949  13.988   1.566
26158SOL     OW80247   2.365   1.848   8.911
26158SOL    HW180248   2.422   1.799   8.851
26158SOL    HW280249   2.309   1.901   8.853
26159SOL     OW80250   1.324   5.159   0.341
26159SOL    HW180251   1.364   5.224   0.399
26159SOL    HW280252   1.261   5.113   0.396
26160SOL     OW80253  14.532  14.662  10.748
26160SOL    HW180254  14.575  14.598  10.692
26160SOL    HW280255  14.573  14.745  10.725
26161SOL     OW80256   1.087   3.634   7.760
26161SOL    HW180257   1.161   3.639   7.821
26161SOL    HW280258   1.010   3.644   7.816
26162SOL     OW80259  14.779   0.329   2.590
26162SOL    HW180260  14.808   0.377   2.513
26162SOL    HW280261  14.714   0.387   2.631
26163SOL     OW80262  11.248  14.676   9.914
26163SOL    HW180263  11.306  14.635   9.979
26163SOL    HW280264  11.307  14.728   9.859
26164SOL     OW80265   8.439   5.639   2.168
26164SOL    HW180266   8.498   5.688   2.110
26164SOL    HW280267   8.461   5.669   2.256
26165SOL     OW80268  11.414   9.944   9.447
26165SOL    HW180269  11.375   9.861   9.419
26165SOL    HW280270  11.473   9.968   9.376
26166SOL     OW80271   8.285   5.325   3.044
26166SOL    HW180272   8.359   5.268   3.022
26166SOL    HW280273   8.272   5.379   2.965
26167SOL     OW80274  11.173   0.160  12.914
26167SOL    HW180275  11.120   0.155  12.994
26167SOL    HW280276  11.125   0.108  12.850
26168SOL     OW80277  14.111  14.300   3.920
26168SOL    HW180278  14.024  14.336   3.939
26168SOL    HW280279  14.107  14.275   3.828
26169SOL     OW80280   0.963   7.356   8.968
26169SOL    HW180281   0.910   7.403   9.033
26169SOL    HW280282   0.923   7.269   8.963
26170SOL     OW80283  12.173   9.203  14.443
26170SOL    HW180284  12.180   9.171  14.353
26170SOL    HW280285  12.108   9.146  14.484
26171SOL     OW80286   3.132   9.990   5.251
26171SOL    HW180287   3.091  10.074   5.273
26171SOL    HW280288   3.132   9.987   5.156
26172SOL     OW80289   7.752  14.518   7.775
26172SOL    HW180290   7.669  14.470   7.766
26172SOL    HW280291   7.728  14.610   7.767
26173SOL     OW80292  14.359   4.889   0.566
26173SOL    HW180293  14.445   4.859   0.536
26173SOL    HW280294  14.316   4.809   0.596
26174SOL     OW80295  10.949   7.134   4.744
26174SOL    HW180296  10.958   7.046   4.707
26174SOL    HW280297  10.921   7.188   4.671
26175SOL     OW80298   2.734  14.433   3.778
26175SOL    HW180299   2.659  14.491   3.792
26175SOL    HW280300   2.699  14.345   3.789
26176SOL     OW80301   6.317   7.596   5.648
26176SOL    HW180302   6.319   7.500   5.649
26176SOL    HW280303   6.357   7.622   5.731
26177SOL     OW80304   8.816  11.039  12.785
26177SOL    HW180305   8.821  11.090  12.865
26177SOL    HW280306   8.906  11.008  12.771
26178SOL     OW80307   5.727  11.668   9.371
26178SOL    HW180308   5.694  11.695   9.286
26178SOL    HW280309   5.807  11.719   9.383
26179SOL     OW80310   1.397  13.736  10.334
26179SOL    HW180311   1.351  13.749  10.418
26179SOL    HW280312   1.327  13.740  10.268
26180SOL     OW80313   1.687   3.939   6.367
26180SOL    HW180314   1.720   3.979   6.287
26180SOL    HW280315   1.594   3.958   6.367
26181SOL     OW80316   7.657   0.289   0.962
26181SOL    HW180317   7.623   0.342   0.890
26181SOL    HW280318   7.749   0.275   0.940
26182SOL     OW80319   1.696  12.009   1.562
26182SOL    HW180320   1.679  11.939   1.499
26182SOL    HW280321   1.773  11.979   1.610
26183SOL     OW80322  11.623  11.863   2.683
26183SOL    HW180323  11.651  11.774   2.664
26183SOL    HW280324  11.688  11.918   2.640
26184SOL     OW80325  12.344   3.798   1.609
26184SOL    HW180326  12.305   3.861   1.669
26184SOL    HW280327  12.415   3.758   1.659
26185SOL     OW80328   9.254   1.859   2.919
26185SOL    HW180329   9.281   1.923   2.985
26185SOL    HW280330   9.336   1.821   2.887
26186SOL     OW80331   7.151   2.927   8.595
26186SOL    HW180332   7.195   2.987   8.656
26186SOL    HW280333   7.073   2.898   8.643
26187SOL     OW80334   8.307  13.733  13.646
26187SOL    HW180335   8.368  13.803  13.668
26187SOL    HW280336   8.225  13.777  13.628
26188SOL     OW80337   6.245   2.095  13.386
26188SOL    HW180338   6.336   2.085  13.357
26188SOL    HW280339   6.247   2.074  13.479
26189SOL     OW80340  13.884   9.519   5.643
26189SOL    HW180341  13.959   9.498   5.698
26189SOL    HW280342  13.906   9.603   5.603
26190SOL     OW80343  14.834   1.057   6.479
26190SOL    HW180344   0.016   1.105   6.422
26190SOL    HW280345  14.803   1.122   6.542
26191SOL     OW80346  13.871   6.146   6.378
26191SOL    HW180347  13.920   6.189   6.309
26191SOL    HW280348  13.934   6.134   6.449
26192SOL     OW80349   6.579   7.872   5.725
26192SOL    HW180350   6.627   7.805   5.676
26192SOL    HW280351   6.498   7.883   5.676
26193SOL     OW80352   5.754  13.247  10.512
26193SOL    HW180353   5.781  13.337  10.529
26193SOL    HW280354   5.742  13.208  10.599
26194SOL     OW80355   2.875  14.688  12.409
26194SOL    HW180356   2.902  14.664  12.321
26194SOL    HW280357   2.819  14.615  12.437
26195SOL     OW80358  11.317  11.298   6.787
26195SOL    HW180359  11.378  11.224   6.784
26195SOL    HW280360  11.260  11.279   6.862
26196SOL     OW80361   1.332  11.912   3.047
26196SOL    HW180362   1.289  11.979   3.101
26196SOL    HW280363   1.288  11.830   3.071
26197SOL     OW80364   9.721   8.007  11.882
26197SOL    HW180365   9.757   8.061  11.952
26197SOL    HW280366   9.678   8.069  11.823
26198SOL     OW80367  11.494   4.939   8.286
26198SOL    HW180368  11.500   4.969   8.377
26198SOL    HW280369  11.582   4.909   8.265
26199SOL     OW80370  14.075  14.754  14.453
26199SOL    HW180371  14.100  14.843  14.479
26199SOL    HW280372  14.003  14.731  14.512
26200SOL     OW80373   5.892   4.750   2.200
26200SOL    HW180374   5.817   4.717   2.249
26200SOL    HW280375   5.911   4.835   2.240
26201SOL     OW80376   7.088   2.150   8.688
26201SOL    HW180377   7.168   2.164   8.738
26201SOL    HW280378   7.053   2.067   8.721
26202SOL     OW80379  11.716  12.609   9.038
26202SOL    HW180380  11.689  12.690   8.996
26202SOL    HW280381  11.793  12.634   9.090
26203SOL     OW80382  10.558  10.387  14.694
26203SOL    HW180383  10.618  10.364  14.623
26203SOL    HW280384  10.616  10.410  14.767
26204SOL     OW80385   3.048   6.259   8.814
26204SOL    HW180386   3.012   6.170   8.816
26204SOL    HW280387   3.140   6.248   8.838
26205SOL     OW80388   1.567  11.889   2.032
26205SOL    HW180389   1.648  11.927   2.065
26205SOL    HW280390   1.592  11.802   2.001
26206SOL     OW80391  10.554   4.910   5.523
26206SOL    HW180392  10.621   4.968   5.557
26206SOL    HW280393  10.554   4.927   5.428
26207SOL     OW80394   8.950   5.744   3.667
26207SOL    HW180395   9.034   5.697   3.663
26207SOL    HW280396   8.884   5.675   3.658
26208SOL     OW80397  12.582   6.219   8.439
26208SOL    HW180398  12.563   6.199   8.347
26208SOL    HW280399  12.651   6.286   8.436
26209SOL     OW80400  10.806   8.180   4.250
26209SOL    HW180401  10.888   8.217   4.218
26209SOL    HW280402  10.753   8.165   4.172
26210SOL     OW80403  12.683   2.886   6.753
26210SOL    HW180404  12.692   2.851   6.664
26210SOL    HW280405  12.709   2.815   6.810
26211SOL     OW80406   1.843  10.526  13.722
26211SOL    HW180407   1.755  10.553  13.748
26211SOL    HW280408   1.866  10.584  13.650
26212SOL     OW80409   5.783   7.261   8.284
26212SOL    HW180410   5.786   7.210   8.365
26212SOL    HW280411   5.826   7.206   8.219
26213SOL     OW80412   1.559   1.399  13.710
26213SOL    HW180413   1.571   1.369  13.800
26213SOL    HW280414   1.646   1.426  13.682
26214SOL     OW80415   2.777   5.025  12.124
26214SOL    HW180416   2.761   4.953  12.063
26214SOL    HW280417   2.753   4.991  12.210
26215SOL     OW80418   1.261   7.496   9.123
26215SOL    HW180419   1.168   7.516   9.116
26215SOL    HW280420   1.305   7.580   9.114
26216SOL     OW80421  10.878   4.259   1.660
26216SOL    HW180422  10.971   4.281   1.651
26216SOL    HW280423  10.840   4.336   1.704
26217SOL     OW80424   3.032   0.792  12.558
26217SOL    HW180425   2.994   0.857  12.499
26217SOL    HW280426   3.026   0.710  12.510
26218SOL     OW80427  10.128  13.202  12.363
26218SOL    HW180428  10.188  13.258  12.413
26218SOL    HW280429  10.041  13.235  12.385
26219SOL     OW80430   7.570   3.812   3.268
26219SOL    HW180431   7.609   3.761   3.197
26219SOL    HW280432   7.481   3.831   3.239
26220SOL     OW80433   1.964   3.176   4.101
26220SOL    HW180434   1.930   3.230   4.173
26220SOL    HW280435   1.886   3.137   4.061
26221SOL     OW80436   5.686   8.460   9.241
26221SOL    HW180437   5.611   8.515   9.261
26221SOL    HW280438   5.716   8.490   9.155
26222SOL     OW80439   2.960   3.518   2.398
26222SOL    HW180440   2.913   3.539   2.479
26222SOL    HW280441   2.983   3.604   2.361
26223SOL     OW80442  14.820  13.374   2.691
26223SOL    HW180443  14.749  13.403   2.747
26223SOL    HW280444  14.829  13.280   2.709
26224SOL     OW80445  12.952  12.722   4.521
26224SOL    HW180446  13.004  12.642   4.518
26224SOL    HW280447  12.928  12.738   4.430
26225SOL     OW80448  11.015   8.468   3.685
26225SOL    HW180449  11.039   8.560   3.688
26225SOL    HW280450  11.076   8.424   3.743
26226SOL     OW80451  13.896   3.649   8.694
26226SOL    HW180452  13.811   3.674   8.731
26226SOL    HW280453  13.933   3.588   8.758
26227SOL     OW80454   3.711   0.423  10.420
26227SOL    HW180455   3.711   0.328  10.431
26227SOL    HW280456   3.724   0.436  10.326
26228SOL     OW80457   6.019  12.196   1.488
26228SOL    HW180458   6.034  12.215   1.580
26228SOL    HW280459   5.929  12.164   1.483
26229SOL     OW80460  14.281   9.260   3.022
26229SOL    HW180461  14.254   9.296   2.938
26229SOL    HW280462  14.362   9.213   3.003
26230SOL     OW80463  14.480   4.376   7.036
26230SOL    HW180464  14.542   4.365   6.963
26230SOL    HW280465  14.453   4.287   7.057
26231SOL     OW80466   7.402   4.216   5.671
26231SOL    HW180467   7.319   4.178   5.644
26231SOL    HW280468   7.417   4.289   5.611
26232SOL     OW80469   4.890   5.607   9.375
26232SOL    HW180470   4.854   5.696   9.382
26232SOL    HW280471   4.860   5.576   9.290
26233SOL     OW80472   2.763  13.339   9.037
26233SOL    HW180473   2.852  13.344   9.002
26233SOL    HW280474   2.710  13.392   8.978
26234SOL     OW80475  11.706  12.010  13.445
26234SOL    HW180476  11.691  11.918  13.467
26234SOL    HW280477  11.653  12.059  13.509
26235SOL     OW80478   4.044   1.808   7.457
26235SOL    HW180479   3.969   1.755   7.430
26235SOL    HW280480   4.068   1.857   7.378
26236SOL     OW80481  12.496  14.370   0.089
26236SOL    HW180482  12.456  14.380   0.002
26236SOL    HW280483  12.430  14.321   0.139
26237SOL     OW80484  12.432   2.808   9.766
26237SOL    HW180485  12.441   2.803   9.861
26237SOL    HW280486  12.502   2.751   9.732
26238SOL     OW80487   7.318   5.919   1.979
26238SOL    HW180488   7.273   5.844   2.017
26238SOL    HW280489   7.379   5.882   1.915
26239SOL     OW80490   1.362   7.188  11.480
26239SOL    HW180491   1.308   7.199  11.559
26239SOL    HW280492   1.300   7.196  11.408
26240SOL     OW80493   8.848   8.226   4.052
26240SOL    HW180494   8.767   8.221   4.001
26240SOL    HW280495   8.842   8.309   4.099
26241SOL     OW80496   9.470  10.677   2.758
26241SOL    HW180497   9.436  10.681   2.847
26241SOL    HW280498   9.413  10.735   2.708
26242SOL     OW80499  12.082  13.900  12.958
26242SOL    HW180500  12.168  13.928  12.991
26242SOL    HW280501  12.019  13.951  13.010
26243SOL     OW80502   9.008   7.518   0.746
26243SOL    HW180503   8.999   7.522   0.651
26243SOL    HW280504   9.056   7.437   0.763
26244SOL     OW80505   3.706   4.141   4.828
26244SOL    HW180506   3.627   4.149   4.881
26244SOL    HW280507   3.682   4.079   4.759
26245SOL     OW80508   4.911   5.052  14.299
26245SOL    HW180509   4.862   5.096  14.368
26245SOL    HW280510   5.001   5.048  14.332
26246SOL     OW80511   0.813  13.038   4.214
26246SOL    HW180512   0.759  13.117   4.221
26246SOL    HW280513   0.761  12.978   4.161
26247SOL     OW80514   6.510   8.034   3.285
26247SOL    HW180515   6.436   8.002   3.233
26247SOL    HW280516   6.562   8.086   3.223
26248SOL     OW80517  14.824   8.500   7.765
26248SOL    HW180518  14.771   8.529   7.691
26248SOL    HW280519   0.022   8.559   7.764
26249SOL     OW80520   3.672   1.522  14.310
26249SOL    HW180521   3.576   1.512  14.308
26249SOL    HW280522   3.692   1.537  14.402
26250SOL     OW80523   7.912   3.859   7.082
26250SOL    HW180524   7.972   3.856   7.156
26250SOL    HW280525   7.929   3.778   7.034
26251SOL     OW80526  11.108   6.124   9.863
26251SOL    HW180527  11.196   6.092   9.879
26251SOL    HW280528  11.052   6.048   9.874
26252SOL     OW80529   6.826   6.865   8.261
26252SOL    HW180530   6.870   6.799   8.208
26252SOL    HW280531   6.887   6.886   8.331
26253SOL     OW80532   1.766   1.122   0.571
26253SOL    HW180533   1.687   1.072   0.588
26253SOL    HW280534   1.746   1.172   0.492
26254SOL     OW80535  11.221  10.963   4.388
26254SOL    HW180536  11.257  10.967   4.300
26254SOL    HW280537  11.134  11.003   4.381
26255SOL     OW80538   4.668   3.093   4.903
26255SOL    HW180539   4.614   3.103   4.981
26255SOL    HW280540   4.752   3.133   4.927
26256SOL     OW80541   2.679   2.598   8.544
26256SOL    HW180542   2.743   2.653   8.588
26256SOL    HW280543   2.606   2.657   8.524
26257SOL     OW80544  13.252   5.870   3.977
26257SOL    HW180545  13.324   5.814   4.006
26257SOL    HW280546  13.176   5.838   4.026
26258SOL     OW80547   2.203  13.815   8.538
26258SOL    HW180548   2.242  13.898   8.566
26258SOL    HW280549   2.124  13.806   8.591
26259SOL     OW80550   1.807   1.615  12.194
26259SOL    HW180551   1.803   1.688  12.133
26259SOL    HW280552   1.726   1.566  12.180
26260SOL     OW80553   4.922   0.214  13.347
26260SOL    HW180554   4.921   0.122  13.323
26260SOL    HW280555   4.951   0.260  13.268
26261SOL     OW80556   0.754   6.347  13.933
26261SOL    HW180557   0.796   6.263  13.952
26261SOL    HW280558   0.704   6.332  13.853
26262SOL     OW80559   0.795   6.703   0.018
26262SOL    HW180560   0.764   6.689   0.107
26262SOL    HW280561   0.804   6.797   0.009
26263SOL     OW80562   0.398   7.698   7.710
26263SOL    HW180563   0.346   7.653   7.643
26263SOL    HW280564   0.462   7.634   7.738
26264SOL     OW80565   9.943  13.119   6.100
26264SOL    HW180566   9.898  13.092   6.020
26264SOL    HW280567   9.890  13.191   6.135
26265SOL     OW80568   3.843   1.922   4.556
26265SOL    HW180569   3.891   1.857   4.504
26265SOL    HW280570   3.906   1.992   4.573
26266SOL     OW80571   2.962   5.406  11.556
26266SOL    HW180572   3.045   5.368  11.583
26266SOL    HW280573   2.921   5.434  11.638
26267SOL     OW80574   0.383   4.131  10.023
26267SOL    HW180575   0.402   4.217  10.061
26267SOL    HW280576   0.465   4.104   9.982
26268SOL     OW80577   7.477   6.901   6.279
26268SOL    HW180578   7.546   6.870   6.221
26268SOL    HW280579   7.464   6.993   6.255
26269SOL     OW80580  11.244   9.739   5.664
26269SOL    HW180581  11.169   9.787   5.698
26269SOL    HW280582  11.291   9.709   5.742
26270SOL     OW80583  13.254   4.938   8.568
26270SOL    HW180584  13.302   5.017   8.540
26270SOL    HW280585  13.308   4.866   8.536
26271SOL     OW80586   2.838   9.021  13.585
26271SOL    HW180587   2.852   9.113  13.608
26271SOL    HW280588   2.873   9.013  13.496
26272SOL     OW80589   5.060   4.343   5.357
26272SOL    HW180590   5.069   4.436   5.336
26272SOL    HW280591   5.092   4.336   5.447
26273SOL     OW80592   8.040   6.907  13.100
26273SOL    HW180593   7.976   6.961  13.146
26273SOL    HW280594   8.053   6.952  13.016
26274SOL     OW80595  14.049   3.115   2.884
26274SOL    HW180596  13.958   3.086   2.876
26274SOL    HW280597  14.094   3.040   2.924
26275SOL     OW80598   4.608  12.658  12.609
26275SOL    HW180599   4.612  12.717  12.534
26275SOL    HW280600   4.660  12.582  12.583
26276SOL     OW80601   0.439   2.978   0.995
26276SOL    HW180602   0.517   2.931   1.025
26276SOL    HW280603   0.407   2.926   0.921
26277SOL     OW80604  10.027   9.080   5.002
26277SOL    HW180605   9.973   9.002   4.985
26277SOL    HW280606  10.016   9.134   4.923
26278SOL     OW80607   5.642  10.421   0.058
26278SOL    HW180608   5.675  10.402  14.848
26278SOL    HW280609   5.717  10.457   0.104
26279SOL     OW80610   4.002  12.846   0.410
26279SOL    HW180611   3.937  12.847   0.479
26279SOL    HW280612   3.969  12.783   0.346
26280SOL     OW80613   0.104   9.227   9.037
26280SOL    HW180614   0.164   9.300   9.051
26280SOL    HW280615   0.109   9.209   8.943
26281SOL     OW80616   0.834   9.485  13.692
26281SOL    HW180617   0.883   9.403  13.679
26281SOL    HW280618   0.744   9.457  13.705
26282SOL     OW80619   9.804  11.910  14.309
26282SOL    HW180620   9.755  11.866  14.379
26282SOL    HW280621   9.857  11.840  14.270
26283SOL     OW80622   0.811   3.997  12.557
26283SOL    HW180623   0.833   4.083  12.521
26283SOL    HW280624   0.715   3.995  12.558
26284SOL     OW80625  14.522   6.000   1.673
26284SOL    HW180626  14.583   5.986   1.601
26284SOL    HW280627  14.506   6.094   1.674
26285SOL     OW80628  14.665  13.316   5.826
26285SOL    HW180629  14.716  13.291   5.748
26285SOL    HW280630  14.574  13.307   5.799
26286SOL     OW80631   8.261   1.177   5.130
26286SOL    HW180632   8.214   1.198   5.049
26286SOL    HW280633   8.257   1.082   5.136
26287SOL     OW80634  12.767   9.154  13.595
26287SOL    HW180635  12.693   9.103  13.628
26287SOL    HW280636  12.833   9.088  13.573
26288SOL     OW80637  12.546  10.218   7.631
26288SOL    HW180638  12.615  10.159   7.661
26288SOL    HW280639  12.554  10.216   7.535
26289SOL     OW80640  10.360   7.486   2.435
26289SOL    HW180641  10.310   7.404   2.435
26289SOL    HW280642  10.359   7.514   2.527
26290SOL     OW80643   0.187  10.112  12.807
26290SOL    HW180644   0.209  10.019  12.814
26290SOL    HW280645   0.245  10.145  12.738
26291SOL     OW80646   5.693   1.145   3.026
26291SOL    HW180647   5.734   1.066   3.059
26291SOL    HW280648   5.608   1.115   2.991
26292SOL     OW80649   8.369   3.416  12.849
26292SOL    HW180650   8.299   3.430  12.913
26292SOL    HW280651   8.366   3.322  12.830
26293SOL     OW80652  14.349   0.834   7.525
26293SOL    HW180653  14.259   0.850   7.494
26293SOL    HW280654  14.373   0.915   7.569
26294SOL     OW80655   3.057   0.279   9.014
26294SOL    HW180656   3.026   0.277   8.924
26294SOL    HW280657   2.997   0.338   9.059
26295SOL     OW80658   0.053   1.114   7.295
26295SOL    HW180659   0.094   1.184   7.346
26295SOL    HW280660   0.037   1.044   7.359
26296SOL     OW80661  10.232   7.690  10.409
26296SOL    HW180662  10.269   7.774  10.436
26296SOL    HW280663  10.138   7.698  10.424
26297SOL     OW80664   8.347   4.016   1.260
26297SOL    HW180665   8.331   3.941   1.316
26297SOL    HW280666   8.267   4.068   1.265
26298SOL     OW80667   0.809  14.832   6.410
26298SOL    HW180668   0.770   0.035   6.444
26298SOL    HW280669   0.735  14.781   6.379
26299SOL     OW80670   4.751  12.297  13.047
26299SOL    HW180671   4.673  12.297  13.102
26299SOL    HW280672   4.749  12.382  13.003
26300SOL     OW80673  13.218   8.280  14.114
26300SOL    HW180674  13.169   8.291  14.033
26300SOL    HW280675  13.233   8.186  14.121
26301SOL     OW80676   9.642   8.615  13.120
26301SOL    HW180677   9.645   8.526  13.155
26301SOL    HW280678   9.551   8.642  13.132
26302SOL     OW80679   3.312   8.999   9.073
26302SOL    HW180680   3.260   8.994   9.154
26302SOL    HW280681   3.312   8.910   9.039
26303SOL     OW80682  13.786  13.519  13.675
26303SOL    HW180683  13.856  13.454  13.678
26303SOL    HW280684  13.718  13.478  13.620
26304SOL     OW80685   7.026   5.635  10.236
26304SOL    HW180686   7.040   5.636  10.141
26304SOL    HW280687   7.103   5.591  10.272
26305SOL     OW80688   7.835  12.401  11.917
26305SOL    HW180689   7.835  12.305  11.924
26305SOL    HW280690   7.864  12.417  11.827
26306SOL     OW80691  14.871  14.620   7.979
26306SOL    HW180692  14.798  14.579   7.933
26306SOL    HW280693  14.830  14.678   8.043
26307SOL     OW80694  13.852   0.847  11.544
26307SOL    HW180695  13.764   0.835  11.507
26307SOL    HW280696  13.848   0.933  11.586
26308SOL     OW80697  12.096  12.213   8.229
26308SOL    HW180698  12.123  12.291   8.180
26308SOL    HW280699  12.038  12.166   8.169
26309SOL     OW80700   0.299  11.017  14.492
26309SOL    HW180701   0.293  11.112  14.492
26309SOL    HW280702   0.273  10.991  14.403
26310SOL     OW80703   2.109  11.648   2.263
26310SOL    HW180704   2.062  11.623   2.343
26310SOL    HW280705   2.158  11.570   2.238
26311SOL     OW80706   9.383   0.956   6.604
26311SOL    HW180707   9.296   0.918   6.597
26311SOL    HW280708   9.377   1.040   6.558
26312SOL     OW80709  10.116   4.676   6.948
26312SOL    HW180710  10.100   4.759   6.993
26312SOL    HW280711  10.212   4.671   6.941
26313SOL     OW80712   7.000   7.441  12.920
26313SOL    HW180713   7.075   7.382  12.928
26313SOL    HW280714   7.039   7.529  12.914
26314SOL     OW80715  11.764   7.927   4.409
26314SOL    HW180716  11.669   7.934   4.421
26314SOL    HW280717  11.785   7.995   4.345
26315SOL     OW80718   5.308  12.766  12.334
26315SOL    HW180719   5.305  12.861  12.323
26315SOL    HW280720   5.261  12.731  12.258
26316SOL     OW80721   4.772   4.592   5.854
26316SOL    HW180722   4.848   4.611   5.799
26316SOL    HW280723   4.705   4.563   5.793
26317SOL     OW80724  14.813  12.084   2.965
26317SOL    HW180725  14.851  12.171   2.975
26317SOL    HW280726   0.000  12.025   3.003
26318SOL     OW80727   3.483  13.263   7.961
26318SOL    HW180728   3.472  13.249   7.867
26318SOL    HW280729   3.535  13.188   7.990
26319SOL     OW80730  12.161   4.440  13.787
26319SOL    HW180731  12.129   4.384  13.716
26319SOL    HW280732  12.255   4.422  13.792
26320SOL     OW80733   7.719   0.499  13.056
26320SOL    HW180734   7.625   0.512  13.070
26320SOL    HW280735   7.740   0.558  12.983
26321SOL     OW80736   9.775  12.357   8.728
26321SOL    HW180737   9.689  12.328   8.697
26321SOL    HW280738   9.813  12.280   8.770
26322SOL     OW80739   4.078   9.636  12.770
26322SOL    HW180740   4.042   9.725  12.761
26322SOL    HW280741   4.168   9.645  12.739
26323SOL     OW80742  11.045   1.909  11.188
26323SOL    HW180743  11.011   1.998  11.195
26323SOL    HW280744  11.127   1.910  11.237
26324SOL     OW80745   0.689   0.164  12.878
26324SOL    HW180746   0.629   0.090  12.869
26324SOL    HW280747   0.735   0.148  12.961
26325SOL     OW80748  14.752   0.920   4.887
26325SOL    HW180749  14.658   0.936   4.881
26325SOL    HW280750  14.761   0.862   4.963
26326SOL     OW80751   3.245   3.151   8.719
26326SOL    HW180752   3.217   3.089   8.653
26326SOL    HW280753   3.300   3.100   8.778
26327SOL     OW80754   3.888   6.590   6.884
26327SOL    HW180755   3.979   6.567   6.866
26327SOL    HW280756   3.838   6.538   6.821
26328SOL     OW80757   4.671   9.881  11.224
26328SOL    HW180758   4.740   9.939  11.254
26328SOL    HW280759   4.717   9.810  11.180
26329SOL     OW80760   2.706   0.925   1.281
26329SOL    HW180761   2.683   0.930   1.188
26329SOL    HW280762   2.743   1.010   1.302
26330SOL     OW80763   5.137   2.162   1.592
26330SOL    HW180764   5.131   2.211   1.675
26330SOL    HW280765   5.068   2.198   1.537
26331SOL     OW80766  12.407  13.736  11.903
26331SOL    HW180767  12.347  13.745  11.977
26331SOL    HW280768  12.387  13.810  11.847
26332SOL     OW80769   6.035   1.757  14.080
26332SOL    HW180770   5.957   1.764  14.135
26332SOL    HW280771   6.061   1.847  14.062
26333SOL     OW80772   8.381  11.492   2.576
26333SOL    HW180773   8.393  11.555   2.648
26333SOL    HW280774   8.464  11.444   2.573
26334SOL     OW80775   2.263   7.854   7.834
26334SOL    HW180776   2.240   7.857   7.927
26334SOL    HW280777   2.188   7.894   7.789
26335SOL     OW80778   9.356   5.603   8.088
26335SOL    HW180779   9.408   5.528   8.061
26335SOL    HW280780   9.384   5.673   8.029
26336SOL     OW80781   5.492   7.646   7.886
26336SOL    HW180782   5.549   7.657   7.962
26336SOL    HW280783   5.447   7.563   7.902
26337SOL     OW80784  11.352  10.672   3.298
26337SOL    HW180785  11.415  10.664   3.370
26337SOL    HW280786  11.281  10.726   3.334
26338SOL     OW80787  13.170  10.192   4.022
26338SOL    HW180788  13.199  10.207   4.112
26338SOL    HW280789  13.160  10.280   3.985
26339SOL     OW80790  14.774   6.930   5.390
26339SOL    HW180791  14.826   6.856   5.422
26339SOL    HW280792  14.761   6.912   5.297
26340SOL     OW80793   8.570   4.899  14.520
26340SOL    HW180794   8.621   4.905  14.601
26340SOL    HW280795   8.547   4.807  14.512
26341SOL     OW80796   0.798   9.742  12.377
26341SOL    HW180797   0.837   9.680  12.316
26341SOL    HW280798   0.716   9.700  12.404
26342SOL     OW80799  12.600  11.191   9.750
26342SOL    HW180800  12.604  11.237   9.666
26342SOL    HW280801  12.653  11.113   9.737
26343SOL     OW80802   7.750   8.723  13.819
26343SOL    HW180803   7.726   8.797  13.763
26343SOL    HW280804   7.667   8.695  13.857
26344SOL     OW80805   4.964   7.534  12.527
26344SOL    HW180806   4.878   7.553  12.489
26344SOL    HW280807   4.973   7.439  12.520
26345SOL     OW80808  10.880   0.189  14.413
26345SOL    HW180809  10.880   0.135  14.492
26345SOL    HW280810  10.788   0.198  14.391
26346SOL     OW80811   5.583  14.637  11.321
26346SOL    HW180812   5.590  14.708  11.258
26346SOL    HW280813   5.510  14.663  11.378
26347SOL     OW80814   8.076   7.067   4.323
26347SOL    HW180815   8.137   7.119   4.271
26347SOL    HW280816   8.040   7.129   4.387
26348SOL     OW80817   8.888   7.305   0.325
26348SOL    HW180818   8.799   7.336   0.308
26348SOL    HW280819   8.899   7.231   0.265
26349SOL     OW80820   6.483   6.270   4.811
26349SOL    HW180821   6.528   6.211   4.750
26349SOL    HW280822   6.464   6.215   4.888
26350SOL     OW80823  13.148   4.863   7.359
26350SOL    HW180824  13.227   4.900   7.398
26350SOL    HW280825  13.132   4.783   7.409
26351SOL     OW80826   3.168   0.481   1.834
26351SOL    HW180827   3.229   0.546   1.799
26351SOL    HW280828   3.180   0.485   1.929
26352SOL     OW80829   5.910   7.912   6.525
26352SOL    HW180830   5.952   7.975   6.584
26352SOL    HW280831   5.938   7.826   6.558
26353SOL     OW80832   7.815   8.816   3.509
26353SOL    HW180833   7.846   8.762   3.581
26353SOL    HW280834   7.893   8.830   3.455
26354SOL     OW80835   6.474   7.265  14.493
26354SOL    HW180836   6.387   7.226  14.490
26354SOL    HW280837   6.477   7.311  14.577
26355SOL     OW80838  11.762   5.240   7.136
26355SOL    HW180839  11.690   5.195   7.181
26355SOL    HW280840  11.786   5.181   7.065
26356SOL     OW80841   2.371   0.280   9.281
26356SOL    HW180842   2.283   0.269   9.246
26356SOL    HW280843   2.374   0.221   9.357
26357SOL     OW80844   9.051   1.587   7.968
26357SOL    HW180845   9.112   1.519   7.940
26357SOL    HW280846   9.071   1.602   8.060
26358SOL     OW80847   1.461   0.990   3.509
26358SOL    HW180848   1.502   1.042   3.440
26358SOL    HW280849   1.372   0.973   3.478
26359SOL     OW80850  14.367  12.701   9.002
26359SOL    HW180851  14.417  12.687   8.922
26359SOL    HW280852  14.287  12.744   8.973
26360SOL     OW80853   6.326   7.169   1.456
26360SOL    HW180854   6.312   7.214   1.540
26360SOL    HW280855   6.254   7.106   1.450
26361SOL     OW80856   4.885   2.666   9.345
26361SOL    HW180857   4.822   2.645   9.413
26361SOL    HW280858   4.851   2.622   9.267
26362SOL     OW80859  11.286   4.972   0.897
26362SOL    HW180860  11.362   5.030   0.887
26362SOL    HW280861  11.314   4.907   0.962
26363SOL     OW80862   3.545   9.601  12.730
26363SOL    HW180863   3.558   9.665  12.660
26363SOL    HW280864   3.463   9.627  12.772
26364SOL     OW80865  14.818   7.662   0.038
26364SOL    HW180866  14.848   7.611   0.113
26364SOL    HW280867  14.864   7.746   0.045
26365SOL     OW80868  11.573   1.429  14.676
26365SOL    HW180869  11.491   1.397  14.714
26365SOL    HW280870  11.554   1.520  14.651
26366SOL     OW80871   2.917  13.254  12.032
26366SOL    HW180872   2.859  13.232  12.104
26366SOL    HW280873   2.866  13.313  11.977
26367SOL     OW80874   9.660   3.484   5.310
26367SOL    HW180875   9.667   3.445   5.397
26367SOL    HW280876   9.680   3.413   5.250
26368SOL     OW80877  12.670  10.700   6.334
26368SOL    HW180878  12.711  10.725   6.418
26368SOL    HW280879  12.742  10.663   6.283
26369SOL     OW80880   0.977  11.400   3.090
26369SOL    HW180881   0.882  11.389   3.098
26369SOL    HW280882   1.002  11.450   3.168
26370SOL     OW80883   7.351   9.223   9.115
26370SOL    HW180884   7.386   9.235   9.027
26370SOL    HW280885   7.299   9.302   9.131
26371SOL     OW80886  14.250   8.738   1.196
26371SOL    HW180887  14.226   8.827   1.170
26371SOL    HW280888  14.314   8.711   1.131
26372SOL     OW80889  10.896  13.038   0.673
26372SOL    HW180890  10.864  13.071   0.757
26372SOL    HW280891  10.905  12.944   0.686
26373SOL     OW80892  12.713  12.857   5.053
26373SOL    HW180893  12.660  12.805   4.992
26373SOL    HW280894  12.659  12.865   5.131
26374SOL     OW80895  13.075   8.945   6.474
26374SOL    HW180896  13.030   9.030   6.471
26374SOL    HW280897  13.004   8.882   6.487
26375SOL     OW80898  13.300   3.725  11.008
26375SOL    HW180899  13.317   3.762  11.094
26375SOL    HW280900  13.382   3.735  10.960
26376SOL     OW80901   3.378   5.561  14.609
26376SOL    HW180902   3.316   5.571  14.681
26376SOL    HW280903   3.455   5.520  14.649
26377SOL     OW80904  12.239   4.540  11.703
26377SOL    HW180905  12.226   4.457  11.748
26377SOL    HW280906  12.265   4.516  11.614
26378SOL     OW80907   5.980   0.074  14.529
26378SOL    HW180908   5.938   0.158  14.506
26378SOL    HW280909   5.926   0.039  14.600
26379SOL     OW80910  13.746   0.364  14.122
26379SOL    HW180911  13.730   0.273  14.100
26379SOL    HW280912  13.679   0.413  14.074
26380SOL     OW80913   1.267   4.924   2.663
26380SOL    HW180914   1.237   4.851   2.716
26380SOL    HW280915   1.325   4.885   2.598
26381SOL     OW80916   8.356   5.306   0.477
26381SOL    HW180917   8.299   5.369   0.522
26381SOL    HW280918   8.349   5.226   0.529
26382SOL     OW80919  13.008   2.182  11.993
26382SOL    HW180920  13.094   2.206  11.958
26382SOL    HW280921  12.953   2.258  11.974
26383SOL     OW80922  13.440  10.834   0.230
26383SOL    HW180923  13.371  10.844   0.165
26383SOL    HW280924  13.430  10.744   0.262
26384SOL     OW80925   2.245   2.651   0.872
26384SOL    HW180926   2.247   2.675   0.964
26384SOL    HW280927   2.330   2.678   0.838
26385SOL     OW80928  10.493  14.466   8.428
26385SOL    HW180929  10.556  14.394   8.430
26385SOL    HW280930  10.490  14.493   8.336
26386SOL     OW80931   1.048  14.647  14.461
26386SOL    HW180932   1.017  14.737  14.473
26386SOL    HW280933   1.077  14.620  14.548
26387SOL     OW80934   8.533   1.351  13.063
26387SOL    HW180935   8.568   1.384  12.980
26387SOL    HW280936   8.516   1.258  13.046
26388SOL     OW80937   3.186   6.913   8.865
26388SOL    HW180938   3.121   6.961   8.814
26388SOL    HW280939   3.161   6.822   8.856
26389SOL     OW80940   1.650   6.372   5.256
26389SOL    HW180941   1.641   6.281   5.285
26389SOL    HW280942   1.710   6.368   5.182
26390SOL     OW80943  10.185   7.615  10.886
26390SOL    HW180944  10.208   7.591  10.797
26390SOL    HW280945  10.090   7.632  10.883
26391SOL     OW80946  10.680  12.483   2.246
26391SOL    HW180947  10.667  12.447   2.158
26391SOL    HW280948  10.686  12.406   2.303
26392SOL     OW80949  10.038   3.693   2.711
26392SOL    HW180950  10.128   3.722   2.697
26392SOL    HW280951   9.994   3.768   2.749
26393SOL     OW80952   7.165   5.373   7.885
26393SOL    HW180953   7.074   5.392   7.911
26393SOL    HW280954   7.157   5.298   7.826
26394SOL     OW80955   2.849   0.543   4.636
26394SOL    HW180956   2.922   0.482   4.651
26394SOL    HW280957   2.863   0.614   4.698
26395SOL     OW80958   5.407  14.843  10.963
26395SOL    HW180959   5.324  14.874  10.926
26395SOL    HW280960   5.398  14.748  10.965
26396SOL     OW80961   4.009   7.589   0.969
26396SOL    HW180962   4.018   7.635   1.052
26396SOL    HW280963   4.098   7.560   0.948
26397SOL     OW80964   9.091   8.333   7.241
26397SOL    HW180965   9.028   8.338   7.169
26397SOL    HW280966   9.068   8.252   7.287
26398SOL     OW80967   8.686   1.525   5.777
26398SOL    HW180968   8.604   1.475   5.773
26398SOL    HW280969   8.747   1.474   5.724
26399SOL     OW80970  13.024  11.200  13.417
26399SOL    HW180971  12.990  11.111  13.407
26399SOL    HW280972  12.965  11.254  13.364
26400SOL     OW80973   8.436   0.316   1.269
26400SOL    HW180974   8.432   0.378   1.342
26400SOL    HW280975   8.345   0.302   1.245
26401SOL     OW80976  11.928   2.124   7.459
26401SOL    HW180977  11.852   2.069   7.480
26401SOL    HW280978  11.896   2.214   7.467
26402SOL     OW80979   6.960   6.528   2.726
26402SOL    HW180980   6.938   6.619   2.745
26402SOL    HW280981   7.052   6.530   2.701
26403SOL     OW80982   7.266   1.363   6.686
26403SOL    HW180983   7.259   1.431   6.619
26403SOL    HW280984   7.346   1.315   6.664
26404SOL     OW80985   1.318   3.927  14.359
26404SOL    HW180986   1.362   3.880  14.430
26404SOL    HW280987   1.305   4.015  14.393
26405SOL     OW80988   3.083   6.225  12.607
26405SOL    HW180989   3.011   6.204  12.547
26405SOL    HW280990   3.161   6.225  12.551
26406SOL     OW80991   4.175   6.518  10.759
26406SOL    HW180992   4.232   6.443  10.743
26406SOL    HW280993   4.221   6.569  10.825
26407SOL     OW80994   8.639   4.991   6.867
26407SOL    HW180995   8.710   4.948   6.916
26407SOL    HW280996   8.647   4.955   6.778
26408SOL     OW80997   9.107   7.427   3.975
26408SOL    HW180998   9.188   7.471   3.950
26408SOL    HW280999   9.062   7.490   4.031
26409SOL     OW81000   3.841  13.665  13.828
26409SOL    HW181001   3.762  13.625  13.792
26409SOL    HW281002   3.884  13.594  13.877
26410SOL     OW81003   7.009   9.256   9.940
26410SOL    HW181004   7.038   9.247  10.031
26410SOL    HW281005   6.934   9.197   9.933
26411SOL     OW81006   2.215   9.576   0.521
26411SOL    HW181007   2.122   9.597   0.520
26411SOL    HW281008   2.251   9.627   0.449
26412SOL     OW81009  10.714   3.764   3.407
26412SOL    HW181010  10.641   3.759   3.468
26412SOL    HW281011  10.782   3.812   3.454
26413SOL     OW81012  13.038   4.154   9.008
26413SOL    HW181013  12.958   4.173   9.057
26413SOL    HW281014  13.096   4.228   9.028
26414SOL     OW81015  11.143   8.060   7.897
26414SOL    HW181016  11.185   7.976   7.913
26414SOL    HW281017  11.209   8.110   7.848
26415SOL     OW81018   5.999   5.382   3.280
26415SOL    HW181019   5.990   5.384   3.376
26415SOL    HW281020   6.037   5.467   3.258
26416SOL     OW81021   0.714   3.582   3.064
26416SOL    HW181022   0.795   3.544   3.032
26416SOL    HW281023   0.712   3.560   3.157
26417SOL     OW81024   0.248   8.914   5.596
26417SOL    HW181025   0.236   8.896   5.689
26417SOL    HW281026   0.341   8.896   5.580
26418SOL     OW81027  11.161   6.065  10.705
26418SOL    HW181028  11.199   5.977  10.712
26418SOL    HW281029  11.146   6.077  10.612
26419SOL     OW81030   2.322   0.688   0.733
26419SOL    HW181031   2.229   0.696   0.712
26419SOL    HW281032   2.328   0.705   0.827
26420SOL     OW81033  13.819   8.181   4.564
26420SOL    HW181034  13.828   8.089   4.588
26420SOL    HW281035  13.765   8.220   4.632
26421SOL     OW81036   2.704   1.509   8.143
26421SOL    HW181037   2.691   1.422   8.180
26421SOL    HW281038   2.693   1.569   8.217
26422SOL     OW81039   4.642  12.096   3.665
26422SOL    HW181040   4.697  12.028   3.625
26422SOL    HW281041   4.658  12.174   3.612
26423SOL     OW81042   8.572   8.368   1.217
26423SOL    HW181043   8.584   8.275   1.235
26423SOL    HW281044   8.659   8.406   1.224
26424SOL     OW81045   0.104  10.994   5.690
26424SOL    HW181046   0.098  10.911   5.738
26424SOL    HW281047   0.157  11.050   5.747
26425SOL     OW81048  13.460  11.742   2.397
26425SOL    HW181049  13.515  11.821   2.404
26425SOL    HW281050  13.522  11.672   2.376
26426SOL     OW81051   1.300   8.175  10.443
26426SOL    HW181052   1.322   8.233  10.516
26426SOL    HW281053   1.380   8.126  10.425
26427SOL     OW81054   8.879   2.480  11.813
26427SOL    HW181055   8.965   2.441  11.826
26427SOL    HW281056   8.886   2.567  11.852
26428SOL     OW81057   8.544  14.454   3.973
26428SOL    HW181058   8.583  14.430   3.888
26428SOL    HW281059   8.489  14.530   3.953
26429SOL     OW81060  14.172  11.344   7.749
26429SOL    HW181061  14.242  11.278   7.750
26429SOL    HW281062  14.147  11.351   7.657
26430SOL     OW81063  14.061   1.571   6.000
26430SOL    HW181064  13.983   1.520   5.980
26430SOL    HW281065  14.119   1.558   5.925
26431SOL     OW81066  13.674  12.273   0.272
26431SOL    HW181067  13.682  12.185   0.310
26431SOL    HW281068  13.641  12.327   0.344
26432SOL     OW81069   7.915   4.069   3.734
26432SOL    HW181070   7.908   4.018   3.653
26432SOL    HW281071   7.914   4.004   3.804
26433SOL     OW81072   0.855   9.092   2.034
26433SOL    HW181073   0.826   9.085   2.125
26433SOL    HW281074   0.833   9.182   2.009
26434SOL     OW81075   4.973  11.526   4.268
26434SOL    HW181076   5.066  11.548   4.259
26434SOL    HW281077   4.929  11.611   4.273
26435SOL     OW81078  13.773   8.747   1.021
26435SOL    HW181079  13.715   8.820   1.042
26435SOL    HW281080  13.805   8.716   1.106
26436SOL     OW81081   7.174  10.463   2.450
26436SOL    HW181082   7.244  10.437   2.391
26436SOL    HW281083   7.218  10.497   2.528
26437SOL     OW81084   2.326   8.498   4.605
26437SOL    HW181085   2.421   8.488   4.615
26437SOL    HW281086   2.290   8.422   4.652
26438SOL     OW81087   4.136  12.861   5.816
26438SOL    HW181088   4.101  12.908   5.892
26438SOL    HW281089   4.100  12.909   5.740
26439SOL     OW81090   1.357  12.615   1.645
26439SOL    HW181091   1.433  12.670   1.626
26439SOL    HW281092   1.392  12.526   1.648
26440SOL     OW81093  11.035  11.206   3.564
26440SOL    HW181094  11.010  11.118   3.592
26440SOL    HW281095  11.065  11.195   3.474
26441SOL     OW81096   0.001  11.543  10.053
26441SOL    HW181097   0.007  11.639  10.056
26441SOL    HW281098  14.806  11.522  10.111
26442SOL     OW81099  12.453   3.975   0.614
26442SOL    HW181100  12.533   3.993   0.565
26442SOL    HW281101  12.436   3.882   0.598
26443SOL     OW81102   0.765  14.701  12.053
26443SOL    HW181103   0.686  14.724  12.004
26443SOL    HW281104   0.756  14.607  12.069
26444SOL     OW81105   1.864  12.663   6.256
26444SOL    HW181106   1.819  12.579   6.265
26444SOL    HW281107   1.794  12.727   6.246
26445SOL     OW81108  11.317   8.091   0.359
26445SOL    HW181109  11.373   8.168   0.361
26445SOL    HW281110  11.234   8.121   0.396
26446SOL     OW81111  10.425  14.028  10.183
26446SOL    HW181112  10.352  14.061  10.131
26446SOL    HW281113  10.490  14.099  10.180
26447SOL     OW81114   7.782   8.488   9.722
26447SOL    HW181115   7.815   8.527   9.802
26447SOL    HW281116   7.817   8.398   9.722
26448SOL     OW81117  11.130   3.074   3.872
26448SOL    HW181118  11.183   3.147   3.839
26448SOL    HW281119  11.094   3.033   3.794
26449SOL     OW81120   7.654   4.552   1.790
26449SOL    HW181121   7.606   4.609   1.730
26449SOL    HW281122   7.656   4.599   1.873
26450SOL     OW81123  12.236   6.420   9.284
26450SOL    HW181124  12.218   6.499   9.233
26450SOL    HW281125  12.210   6.348   9.226
26451SOL     OW81126   8.429   1.282  11.832
26451SOL    HW181127   8.474   1.366  11.826
26451SOL    HW281128   8.411   1.270  11.926
26452SOL     OW81129   0.664   8.416   4.171
26452SOL    HW181130   0.577   8.412   4.130
26452SOL    HW281131   0.692   8.507   4.156
26453SOL     OW81132   4.441   1.349   0.676
26453SOL    HW181133   4.381   1.423   0.681
26453SOL    HW281134   4.387   1.273   0.695
26454SOL     OW81135   5.637   9.749   8.345
26454SOL    HW181136   5.728   9.764   8.320
26454SOL    HW281137   5.642   9.727   8.438
26455SOL     OW81138  11.416  13.540   7.909
26455SOL    HW181139  11.449  13.451   7.903
26455SOL    HW281140  11.478  13.585   7.966
26456SOL     OW81141   7.733   5.609   7.331
26456SOL    HW181142   7.674   5.604   7.407
26456SOL    HW281143   7.813   5.567   7.361
26457SOL     OW81144   7.174   2.673   2.261
26457SOL    HW181145   7.264   2.648   2.240
26457SOL    HW281146   7.165   2.654   2.354
26458SOL     OW81147   5.005   4.124   1.689
26458SOL    HW181148   4.988   4.122   1.783
26458SOL    HW281149   5.100   4.133   1.682
26459SOL     OW81150   3.163   4.678  10.356
26459SOL    HW181151   3.147   4.725  10.274
26459SOL    HW281152   3.258   4.682  10.368
26460SOL     OW81153   3.790   0.703   2.521
26460SOL    HW181154   3.789   0.609   2.538
26460SOL    HW281155   3.816   0.710   2.429
26461SOL     OW81156  12.359  12.072   7.294
26461SOL    HW181157  12.278  12.062   7.244
26461SOL    HW281158  12.427  12.034   7.238
26462SOL     OW81159  11.348   5.401   8.032
26462SOL    HW181160  11.256   5.427   8.026
26462SOL    HW281161  11.386   5.427   7.948
26463SOL     OW81162   1.707   7.921   9.153
26463SOL    HW181163   1.724   7.912   9.247
26463SOL    HW281164   1.620   7.960   9.148
26464SOL     OW81165   2.266   6.636   0.350
26464SOL    HW181166   2.196   6.640   0.416
26464SOL    HW281167   2.280   6.727   0.324
26465SOL     OW81168  13.736   9.838  13.171
26465SOL    HW181169  13.678   9.911  13.148
26465SOL    HW281170  13.804   9.839  13.104
26466SOL     OW81171   8.497   3.529   0.999
26466SOL    HW181172   8.477   3.438   0.978
26466SOL    HW281173   8.482   3.576   0.917
26467SOL     OW81174   3.570   5.160   6.311
26467SOL    HW181175   3.636   5.120   6.368
26467SOL    HW281176   3.550   5.092   6.246
26468SOL     OW81177   8.960   6.962  14.026
26468SOL    HW181178   8.947   7.041  14.079
26468SOL    HW281179   8.910   6.894  14.071
26469SOL     OW81180  13.728  14.557   3.078
26469SOL    HW181181  13.760  14.524   2.994
26469SOL    HW281182  13.744  14.652   3.074
26470SOL     OW81183   3.451  13.047   4.249
26470SOL    HW181184   3.401  13.101   4.187
26470SOL    HW281185   3.441  13.091   4.333
26471SOL     OW81186  12.321   7.274  14.406
26471SOL    HW181187  12.350   7.183  14.395
26471SOL    HW281188  12.237   7.267  14.451
26472SOL     OW81189   0.258   2.161   5.640
26472SOL    HW181190   0.166   2.184   5.655
26472SOL    HW281191   0.259   2.121   5.553
26473SOL     OW81192   0.763  14.660  13.308
26473SOL    HW181193   0.780  14.566  13.313
26473SOL    HW281194   0.668  14.668  13.313
26474SOL     OW81195   1.808   3.766   8.831
26474SOL    HW181196   1.730   3.714   8.809
26474SOL    HW281197   1.808   3.836   8.766
26475SOL     OW81198   7.045   7.639  13.369
26475SOL    HW181199   6.962   7.682  13.390
26475SOL    HW281200   7.104   7.710  13.345
26476SOL     OW81201   1.871   4.821   8.776
26476SOL    HW181202   1.805   4.889   8.786
26476SOL    HW281203   1.852   4.779   8.693
26477SOL     OW81204  14.252   5.817   4.926
26477SOL    HW181205  14.299   5.886   4.880
26477SOL    HW281206  14.174   5.860   4.961
26478SOL     OW81207   8.752   0.683  13.255
26478SOL    HW181208   8.730   0.671  13.347
26478SOL    HW281209   8.698   0.619  13.209
26479SOL     OW81210  11.063  14.479   7.293
26479SOL    HW181211  11.102  14.527   7.219
26479SOL    HW281212  10.981  14.525   7.311
26480SOL     OW81213   3.475   7.642   6.324
26480SOL    HW181214   3.561   7.671   6.294
26480SOL    HW281215   3.491   7.554   6.360
26481SOL     OW81216  14.071   1.698  10.354
26481SOL    HW181217  14.076   1.776  10.408
26481SOL    HW281218  14.121   1.719  10.275
26482SOL     OW81219   8.252   9.836   5.974
26482SOL    HW181220   8.201   9.916   5.966
26482SOL    HW281221   8.268   9.808   5.884
26483SOL     OW81222   6.326   3.143   0.914
26483SOL    HW181223   6.304   3.229   0.949
26483SOL    HW281224   6.414   3.154   0.879
26484SOL     OW81225  12.885   0.774   0.542
26484SOL    HW181226  12.802   0.743   0.578
26484SOL    HW281227  12.859   0.843   0.480
26485SOL     OW81228   9.232   9.498  12.600
26485SOL    HW181229   9.153   9.531  12.559
26485SOL    HW281230   9.290   9.574  12.606
26486SOL     OW81231   9.581  11.018   0.945
26486SOL    HW181232   9.497  10.981   0.915
26486SOL    HW281233   9.558  11.106   0.975
26487SOL     OW81234   7.217  10.530  12.379
26487SOL    HW181235   7.193  10.524  12.287
26487SOL    HW281236   7.133  10.531  12.426
26488SOL     OW81237   4.755   5.323  13.730
26488SOL    HW181238   4.700   5.280  13.795
26488SOL    HW281239   4.810   5.253  13.695
26489SOL     OW81240   0.606  11.915   5.195
26489SOL    HW181241   0.523  11.891   5.236
26489SOL    HW281242   0.587  11.993   5.145
26490SOL     OW81243  12.874  14.047  10.687
26490SOL    HW181244  12.905  14.003  10.609
26490SOL    HW281245  12.862  13.977  10.752
26491SOL     OW81246  11.943   6.618   3.658
26491SOL    HW181247  12.030   6.647   3.685
26491SOL    HW281248  11.958   6.536   3.610
26492SOL     OW81249   3.471  10.120  12.888
26492SOL    HW181250   3.383  10.091  12.912
26492SOL    HW281251   3.530  10.055  12.928
26493SOL     OW81252   8.371  10.297   5.428
26493SOL    HW181253   8.314  10.328   5.358
26493SOL    HW281254   8.351  10.204   5.436
26494SOL     OW81255   5.262   1.475   9.023
26494SOL    HW181256   5.310   1.421   9.085
26494SOL    HW281257   5.170   1.460   9.044
26495SOL     OW81258   5.664   3.965   0.102
26495SOL    HW181259   5.611   4.027   0.051
26495SOL    HW281260   5.702   4.018   0.172
26496SOL     OW81261   8.731   0.982  12.135
26496SOL    HW181262   8.769   1.064  12.104
26496SOL    HW281263   8.750   0.981  12.229
26497SOL     OW81264   0.897  14.406   3.942
26497SOL    HW181265   0.892  14.414   3.846
26497SOL    HW281266   0.990  14.396   3.960
26498SOL     OW81267   0.844   7.016  13.879
26498SOL    HW181268   0.775   6.981  13.822
26498SOL    HW281269   0.922   6.964  13.858
26499SOL     OW81270   0.666   7.782   7.210
26499SOL    HW181271   0.582   7.767   7.167
26499SOL    HW281272   0.646   7.840   7.283
26500SOL     OW81273   3.445   3.081  14.799
26500SOL    HW181274   3.386   3.020  14.842
26500SOL    HW281275   3.447   3.158  14.856
26501SOL     OW81276   0.422   6.024   0.251
26501SOL    HW181277   0.454   6.020   0.341
26501SOL    HW281278   0.338   6.069   0.257
26502SOL     OW81279   8.696   4.578   2.874
26502SOL    HW181280   8.770   4.632   2.847
26502SOL    HW281281   8.727   4.488   2.865
26503SOL     OW81282   7.011   8.070  12.532
26503SOL    HW181283   7.012   8.017  12.452
26503SOL    HW281284   6.939   8.131  12.519
26504SOL     OW81285   2.905   5.223   6.182
26504SOL    HW181286   2.991   5.184   6.169
26504SOL    HW281287   2.867   5.227   6.094
26505SOL     OW81288   3.870   6.554  12.405
26505SOL    HW181289   3.804   6.539  12.337
26505SOL    HW281290   3.934   6.612  12.364
26506SOL     OW81291   0.529  10.114  10.809
26506SOL    HW181292   0.560  10.094  10.721
26506SOL    HW281293   0.557  10.204  10.825
26507SOL     OW81294  12.877   2.502   8.238
26507SOL    HW181295  12.915   2.580   8.278
26507SOL    HW281296  12.815   2.470   8.303
26508SOL     OW81297   2.212   1.897  13.449
26508SOL    HW181298   2.145   1.837  13.418
26508SOL    HW281299   2.292   1.871  13.403
26509SOL     OW81300   2.341   9.944   4.999
26509SOL    HW181301   2.344   9.872   4.936
26509SOL    HW281302   2.248   9.961   5.011
26510SOL     OW81303  12.889   7.705   6.845
26510SOL    HW181304  12.799   7.691   6.875
26510SOL    HW281305  12.915   7.787   6.886
26511SOL     OW81306  14.361   0.783  13.723
26511SOL    HW181307  14.425   0.785  13.795
26511SOL    HW281308  14.294   0.721  13.752
26512SOL     OW81309   1.753   4.875  14.525
26512SOL    HW181310   1.689   4.915  14.585
26512SOL    HW281311   1.766   4.942  14.457
26513SOL     OW81312  11.416  10.077   3.300
26513SOL    HW181313  11.363  10.021   3.357
26513SOL    HW281314  11.389  10.166   3.322
26514SOL     OW81315  13.370   8.418   5.543
26514SOL    HW181316  13.423   8.486   5.502
26514SOL    HW281317  13.302   8.466   5.591
26515SOL     OW81318  11.886   9.534   9.264
26515SOL    HW181319  11.859   9.505   9.177
26515SOL    HW281320  11.968   9.488   9.282
26516SOL     OW81321   5.004   8.448   6.843
26516SOL    HW181322   5.001   8.543   6.834
26516SOL    HW281323   4.924   8.417   6.800
26517SOL     OW81324   9.264   8.473   2.967
26517SOL    HW181325   9.228   8.481   3.055
26517SOL    HW281326   9.215   8.401   2.927
26518SOL     OW81327   0.447  10.246  11.227
26518SOL    HW181328   0.479  10.324  11.272
26518SOL    HW281329   0.352  10.255  11.228
26519SOL     OW81330   4.108   4.890   6.106
26519SOL    HW181331   4.192   4.905   6.061
26519SOL    HW281332   4.107   4.795   6.122
26520SOL     OW81333  14.608   2.521  13.844
26520SOL    HW181334  14.638   2.522  13.935
26520SOL    HW281335  14.595   2.429  13.825
26521SOL     OW81336   4.299   0.280   4.016
26521SOL    HW181337   4.345   0.360   3.990
26521SOL    HW281338   4.357   0.209   3.991
26522SOL     OW81339   1.480   0.193   4.272
26522SOL    HW181340   1.435   0.166   4.352
26522SOL    HW281341   1.504   0.285   4.288
26523SOL     OW81342   8.183  10.505   8.729
26523SOL    HW181343   8.259  10.475   8.779
26523SOL    HW281344   8.146  10.577   8.781
26524SOL     OW81345   9.524   1.161   4.602
26524SOL    HW181346   9.465   1.136   4.674
26524SOL    HW281347   9.469   1.157   4.524
26525SOL     OW81348  10.046   1.058  14.699
26525SOL    HW181349  10.101   1.117  14.749
26525SOL    HW281350  10.107   1.000  14.653
26526SOL     OW81351   2.636   2.561   2.007
26526SOL    HW181352   2.716   2.584   1.960
26526SOL    HW281353   2.565   2.581   1.945
26527SOL     OW81354   1.582   2.996   5.110
26527SOL    HW181355   1.551   2.931   5.174
26527SOL    HW281356   1.600   3.074   5.162
26528SOL     OW81357  12.995  11.579  13.663
26528SOL    HW181358  13.053  11.505  13.643
26528SOL    HW281359  13.019  11.604  13.752
26529SOL     OW81360  11.631  11.984   7.478
26529SOL    HW181361  11.585  11.983   7.562
26529SOL    HW281362  11.629  12.075   7.451
26530SOL     OW81363  11.362   3.344   5.242
26530SOL    HW181364  11.419   3.408   5.200
26530SOL    HW281365  11.303   3.314   5.172
26531SOL     OW81366  14.438   8.112   2.019
26531SOL    HW181367  14.372   8.050   1.988
26531SOL    HW281368  14.481   8.067   2.092
26532SOL     OW81369   2.968  10.416   5.020
26532SOL    HW181370   2.986  10.443   5.110
26532SOL    HW281371   2.909  10.483   4.986
26533SOL     OW81372   2.042   6.226  14.034
26533SOL    HW181373   2.082   6.142  14.013
26533SOL    HW281374   2.003   6.213  14.121
26534SOL     OW81375  10.944   4.200   8.980
26534SOL    HW181376  11.031   4.163   8.968
26534SOL    HW281377  10.920   4.179   9.070
26535SOL     OW81378   3.264  10.927   2.175
26535SOL    HW181379   3.240  10.935   2.083
26535SOL    HW281380   3.342  10.981   2.185
26536SOL     OW81381   1.070   9.781  12.920
26536SOL    HW181382   1.114   9.731  12.851
26536SOL    HW281383   1.141   9.808  12.979
26537SOL     OW81384  13.028   0.731   4.069
26537SOL    HW181385  13.028   0.639   4.044
26537SOL    HW281386  12.956   0.769   4.017
26538SOL     OW81387   1.425   6.558   5.306
26538SOL    HW181388   1.483   6.482   5.293
26538SOL    HW281389   1.464   6.605   5.380
26539SOL     OW81390  12.820   0.909  13.348
26539SOL    HW181391  12.778   0.919  13.262
26539SOL    HW281392  12.802   0.819  13.373
26540SOL     OW81393   3.582   1.764   6.937
26540SOL    HW181394   3.605   1.733   6.850
26540SOL    HW281395   3.659   1.812   6.967
26541SOL     OW81396  10.522  11.493   0.987
26541SOL    HW181397  10.524  11.484   0.892
26541SOL    HW281398  10.534  11.404   1.020
26542SOL     OW81399  10.081  11.191   8.902
26542SOL    HW181400  10.078  11.286   8.905
26542SOL    HW281401  10.145  11.167   8.970
26543SOL     OW81402   2.503   1.161   7.627
26543SOL    HW181403   2.510   1.115   7.710
26543SOL    HW281404   2.500   1.091   7.561
26544SOL     OW81405   3.692   1.161  10.517
26544SOL    HW181406   3.755   1.114  10.462
26544SOL    HW281407   3.636   1.208  10.455
26545SOL     OW81408   4.300   6.411  13.120
26545SOL    HW181409   4.261   6.419  13.033
26545SOL    HW281410   4.273   6.491  13.166
26546SOL     OW81411  11.305  13.918   8.355
26546SOL    HW181412  11.255  13.992   8.388
26546SOL    HW281413  11.388  13.955   8.326
26547SOL     OW81414   2.525   3.705   3.225
26547SOL    HW181415   2.455   3.736   3.169
26547SOL    HW281416   2.546   3.617   3.193
26548SOL     OW81417  13.716   3.783   3.014
26548SOL    HW181418  13.715   3.694   2.978
26548SOL    HW281419  13.750   3.837   2.943
26549SOL     OW81420  14.426   2.393   6.714
26549SOL    HW181421  14.473   2.310   6.724
26549SOL    HW281422  14.453   2.445   6.789
26550SOL     OW81423   7.804   1.565   0.179
26550SOL    HW181424   7.857   1.614   0.116
26550SOL    HW281425   7.808   1.617   0.259
26551SOL     OW81426  12.442   0.758   0.626
26551SOL    HW181427  12.408   0.808   0.701
26551SOL    HW281428  12.374   0.693   0.608
26552SOL     OW81429   3.435   5.289   1.985
26552SOL    HW181430   3.462   5.354   2.050
26552SOL    HW281431   3.516   5.256   1.949
26553SOL     OW81432   2.553  11.441  11.540
26553SOL    HW181433   2.457  11.442  11.543
26553SOL    HW281434   2.580  11.462  11.629
26554SOL     OW81435   1.057   8.774  12.391
26554SOL    HW181436   0.963   8.773  12.376
26554SOL    HW281437   1.092   8.714  12.325
26555SOL     OW81438   3.423   7.754   4.265
26555SOL    HW181439   3.424   7.850   4.263
26555SOL    HW281440   3.408   7.732   4.357
26556SOL     OW81441   0.160   2.638   6.057
26556SOL    HW181442   0.192   2.551   6.080
26556SOL    HW281443   0.205   2.660   5.976
26557SOL     OW81444   1.804   6.722   2.458
26557SOL    HW181445   1.720   6.686   2.428
26557SOL    HW281446   1.837   6.656   2.520
26558SOL     OW81447  13.361   0.195  12.516
26558SOL    HW181448  13.375   0.229  12.428
26558SOL    HW281449  13.428   0.128  12.528
26559SOL     OW81450   4.218  11.029   6.948
26559SOL    HW181451   4.154  11.093   6.980
26559SOL    HW281452   4.297  11.048   6.998
26560SOL     OW81453  11.679   2.392   1.826
26560SOL    HW181454  11.668   2.348   1.742
26560SOL    HW281455  11.730   2.470   1.806
26561SOL     OW81456   7.678  10.817   5.831
26561SOL    HW181457   7.640  10.732   5.809
26561SOL    HW281458   7.737  10.837   5.758
26562SOL     OW81459   2.428  14.619   6.395
26562SOL    HW181460   2.375  14.575   6.328
26562SOL    HW281461   2.469  14.549   6.444
26563SOL     OW81462  13.854   0.237   3.121
26563SOL    HW181463  13.810   0.307   3.169
26563SOL    HW281464  13.924   0.207   3.180
26564SOL     OW81465   6.240  13.068   7.112
26564SOL    HW181466   6.243  12.994   7.172
26564SOL    HW281467   6.221  13.029   7.026
26565SOL     OW81468   9.096  11.769  13.283
26565SOL    HW181469   9.155  11.821  13.229
26565SOL    HW281470   9.120  11.793  13.373
26566SOL     OW81471  11.577   4.428   9.548
26566SOL    HW181472  11.628   4.354   9.513
26566SOL    HW281473  11.520   4.388   9.613
26567SOL     OW81474   5.256   3.097   4.926
26567SOL    HW181475   5.224   3.090   4.837
26567SOL    HW281476   5.263   3.007   4.957
26568SOL     OW81477   5.125   2.068  11.121
26568SOL    HW181478   5.209   2.031  11.149
26568SOL    HW281479   5.140   2.162  11.120
26569SOL     OW81480   4.198  14.004   8.837
26569SOL    HW181481   4.163  14.012   8.926
26569SOL    HW281482   4.208  13.910   8.824
26570SOL     OW81483  10.426   3.177  12.055
26570SOL    HW181484  10.417   3.082  12.067
26570SOL    HW281485  10.518   3.189  12.029
26571SOL     OW81486   9.044  14.329  11.559
26571SOL    HW181487   9.068  14.259  11.620
26571SOL    HW281488   8.955  14.352  11.583
26572SOL     OW81489   5.445  12.208   4.822
26572SOL    HW181490   5.429  12.167   4.737
26572SOL    HW281491   5.455  12.301   4.802
26573SOL     OW81492   1.122   3.115   3.957
26573SOL    HW181493   1.029   3.129   3.936
26573SOL    HW281494   1.141   3.028   3.920
26574SOL     OW81495   3.973  10.722  11.695
26574SOL    HW181496   3.898  10.753  11.645
26574SOL    HW281497   3.954  10.631  11.715
26575SOL     OW81498   8.876   8.557   0.003
26575SOL    HW181499   8.923   8.637   0.026
26575SOL    HW281500   8.802   8.554   0.064
26576SOL     OW81501   3.821  11.763  12.911
26576SOL    HW181502   3.770  11.727  12.839
26576SOL    HW281503   3.871  11.689  12.945
26577SOL     OW81504   5.861  12.805   5.421
26577SOL    HW181505   5.828  12.837   5.338
26577SOL    HW281506   5.821  12.718   5.430
26578SOL     OW81507   9.546   0.672   0.526
26578SOL    HW181508   9.598   0.637   0.598
26578SOL    HW281509   9.602   0.664   0.449
26579SOL     OW81510   5.739   7.749   8.967
26579SOL    HW181511   5.733   7.653   8.961
26579SOL    HW281512   5.695   7.780   8.888
26580SOL     OW81513  12.388   2.548   5.731
26580SOL    HW181514  12.371   2.530   5.639
26580SOL    HW281515  12.349   2.473   5.777
26581SOL     OW81516  13.296   8.568   3.074
26581SOL    HW181517  13.268   8.595   3.162
26581SOL    HW281518  13.390   8.555   3.082
26582SOL     OW81519   3.160  10.074   4.219
26582SOL    HW181520   3.115  10.157   4.205
26582SOL    HW281521   3.093  10.015   4.252
26583SOL     OW81522  13.623  13.873   2.783
26583SOL    HW181523  13.593  13.820   2.857
26583SOL    HW281524  13.617  13.963   2.814
26584SOL     OW81525   8.043   6.373  12.549
26584SOL    HW181526   8.132   6.338  12.543
26584SOL    HW281527   8.055   6.468  12.551
26585SOL     OW81528   2.344   3.640  14.328
26585SOL    HW181529   2.392   3.690  14.261
26585SOL    HW281530   2.326   3.556  14.286
26586SOL     OW81531   4.873  13.973  12.332
26586SOL    HW181532   4.963  13.975  12.299
26586SOL    HW281533   4.855  14.063  12.358
26587SOL     OW81534   9.002  12.573   0.294
26587SOL    HW181535   8.910  12.566   0.318
26587SOL    HW281536   9.049  12.565   0.377
26588SOL     OW81537   8.443   5.954   6.709
26588SOL    HW181538   8.498   5.894   6.659
26588SOL    HW281539   8.390   5.898   6.765
26589SOL     OW81540   3.397   6.875   4.493
26589SOL    HW181541   3.489   6.863   4.517
26589SOL    HW281542   3.397   6.875   4.397
26590SOL     OW81543  13.988   6.452   7.265
26590SOL    HW181544  13.986   6.445   7.361
26590SOL    HW281545  13.898   6.435   7.238
26591SOL     OW81546   6.179  14.407  13.831
26591SOL    HW181547   6.137  14.458  13.762
26591SOL    HW281548   6.151  14.317  13.814
26592SOL     OW81549   6.244   1.377   4.553
26592SOL    HW181550   6.231   1.461   4.509
26592SOL    HW281551   6.214   1.312   4.489
26593SOL     OW81552   5.648   1.311  11.973
26593SOL    HW181553   5.639   1.365  12.052
26593SOL    HW281554   5.732   1.267  11.984
26594SOL     OW81555  11.547   9.329  11.210
26594SOL    HW181556  11.466   9.288  11.242
26594SOL    HW281557  11.517   9.407  11.164
26595SOL     OW81558   8.520  11.550  12.110
26595SOL    HW181559   8.462  11.493  12.160
26595SOL    HW281560   8.544  11.498  12.033
26596SOL     OW81561   6.290   6.736  12.401
26596SOL    HW181562   6.264   6.681  12.475
26596SOL    HW281563   6.281   6.680  12.325
26597SOL     OW81564   6.229   1.423   0.941
26597SOL    HW181565   6.174   1.492   0.978
26597SOL    HW281566   6.310   1.426   0.992
26598SOL     OW81567  10.043   1.833  12.877
26598SOL    HW181568  10.033   1.774  12.802
26598SOL    HW281569   9.954   1.858  12.900
26599SOL     OW81570   4.327   1.749   7.452
26599SOL    HW181571   4.372   1.801   7.518
26599SOL    HW281572   4.234   1.766   7.467
26600SOL     OW81573   6.211   7.969   2.639
26600SOL    HW181574   6.180   7.993   2.726
26600SOL    HW281575   6.200   7.874   2.635
26601SOL     OW81576   3.620  11.133   4.288
26601SOL    HW181577   3.650  11.199   4.350
26601SOL    HW281578   3.639  11.050   4.331
26602SOL     OW81579  13.336  13.646   8.215
26602SOL    HW181580  13.258  13.661   8.162
26602SOL    HW281581  13.400  13.710   8.182
26603SOL     OW81582  13.534   1.063   7.563
26603SOL    HW181583  13.557   1.062   7.470
26603SOL    HW281584  13.616   1.086   7.607
26604SOL     OW81585  14.524  13.784  12.793
26604SOL    HW181586  14.479  13.707  12.757
26604SOL    HW281587  14.501  13.784  12.885
26605SOL     OW81588   9.752   7.233   7.884
26605SOL    HW181589   9.714   7.313   7.846
26605SOL    HW281590   9.691   7.209   7.954
26606SOL     OW81591   1.315   9.820   7.637
26606SOL    HW181592   1.322   9.838   7.730
26606SOL    HW281593   1.375   9.746   7.622
26607SOL     OW81594  13.048   1.821   7.697
26607SOL    HW181595  13.088   1.792   7.779
26607SOL    HW281596  13.041   1.916   7.707
26608SOL     OW81597  13.960   5.791   0.671
26608SOL    HW181598  14.046   5.775   0.632
26608SOL    HW281599  13.923   5.863   0.619
26609SOL     OW81600   9.065  12.736   6.586
26609SOL    HW181601   8.997  12.774   6.641
26609SOL    HW281602   9.081  12.803   6.518
26610SOL     OW81603   6.274   9.654  10.438
26610SOL    HW181604   6.320   9.727  10.480
26610SOL    HW281605   6.343   9.603  10.396
26611SOL     OW81606   6.568   2.788   0.121
26611SOL    HW181607   6.490   2.794   0.178
26611SOL    HW281608   6.552   2.712   0.066
26612SOL     OW81609   8.406  10.735  10.100
26612SOL    HW181610   8.384  10.767  10.188
26612SOL    HW281611   8.330  10.757  10.047
26613SOL     OW81612   7.515   3.216   9.187
26613SOL    HW181613   7.536   3.132   9.227
26613SOL    HW281614   7.600   3.254   9.163
26614SOL     OW81615  10.115  13.786  10.012
26614SOL    HW181616  10.153  13.842   9.945
26614SOL    HW281617  10.188  13.763  10.069
26615SOL     OW81618   6.702  14.407   5.983
26615SOL    HW181619   6.607  14.394   5.978
26615SOL    HW281620   6.718  14.483   5.928
26616SOL     OW81621  11.594   8.874   8.708
26616SOL    HW181622  11.549   8.825   8.639
26616SOL    HW281623  11.668   8.818   8.732
26617SOL     OW81624  11.584   6.916  10.205
26617SOL    HW181625  11.516   6.932  10.270
26617SOL    HW281626  11.616   7.003  10.182
26618SOL     OW81627   5.595   5.843  11.851
26618SOL    HW181628   5.576   5.924  11.804
26618SOL    HW281629   5.509   5.807  11.873
26619SOL     OW81630   0.543   8.980   6.149
26619SOL    HW181631   0.609   8.961   6.215
26619SOL    HW281632   0.503   9.062   6.177
26620SOL     OW81633   9.982  11.563   4.408
26620SOL    HW181634  10.014  11.564   4.499
26620SOL    HW281635   9.926  11.641   4.402
26621SOL     OW81636   3.245   9.826   2.010
26621SOL    HW181637   3.219   9.745   1.966
26621SOL    HW281638   3.339   9.818   2.024
26622SOL     OW81639  13.418   8.178   2.300
26622SOL    HW181640  13.374   8.104   2.341
26622SOL    HW281641  13.358   8.206   2.230
26623SOL     OW81642   7.394   7.628  14.188
26623SOL    HW181643   7.392   7.714  14.230
26623SOL    HW281644   7.419   7.647  14.097
26624SOL     OW81645   3.745   2.266   0.425
26624SOL    HW181646   3.728   2.351   0.385
26624SOL    HW281647   3.757   2.285   0.518
26625SOL     OW81648   6.020   8.028   0.788
26625SOL    HW181649   6.008   8.101   0.848
26625SOL    HW281650   6.093   7.977   0.825
26626SOL     OW81651  10.277  14.663   5.927
26626SOL    HW181652  10.275  14.600   5.999
26626SOL    HW281653  10.320  14.616   5.856
26627SOL     OW81654   8.275   9.421  13.579
26627SOL    HW181655   8.303   9.330  13.570
26627SOL    HW281656   8.187   9.422  13.540
26628SOL     OW81657   9.359  13.823   4.163
26628SOL    HW181658   9.448  13.828   4.128
26628SOL    HW281659   9.353  13.737   4.204
26629SOL     OW81660  14.333   8.804   9.077
26629SOL    HW181661  14.247   8.771   9.102
26629SOL    HW281662  14.318   8.895   9.051
26630SOL     OW81663  14.707   0.044   1.597
26630SOL    HW181664  14.692  14.859   1.527
26630SOL    HW281665  14.792   0.020   1.634
26631SOL     OW81666  10.796   4.473   8.509
26631SOL    HW181667  10.774   4.563   8.531
26631SOL    HW281668  10.859   4.447   8.577
26632SOL     OW81669   1.682   9.836   7.515
26632SOL    HW181670   1.716   9.839   7.604
26632SOL    HW281671   1.594   9.875   7.521
26633SOL     OW81672   2.609  12.106   3.738
26633SOL    HW181673   2.688  12.134   3.784
26633SOL    HW281674   2.600  12.014   3.761
26634SOL     OW81675   4.512  12.271   9.942
26634SOL    HW181676   4.509  12.263  10.037
26634SOL    HW281677   4.427  12.311   9.919
26635SOL     OW81678  13.649  14.873   8.423
26635SOL    HW181679  13.701  14.795   8.446
26635SOL    HW281680  13.606  14.850   8.341
26636SOL     OW81681  12.816  14.199  12.844
26636SOL    HW181682  12.901  14.157  12.829
26636SOL    HW281683  12.817  14.275  12.785
26637SOL     OW81684  14.441  11.580   4.859
26637SOL    HW181685  14.371  11.587   4.924
26637SOL    HW281686  14.427  11.494   4.819
26638SOL     OW81687  11.825  12.539   0.920
26638SOL    HW181688  11.769  12.532   0.997
26638SOL    HW281689  11.835  12.449   0.889
26639SOL     OW81690   0.027  12.781   8.347
26639SOL    HW181691   0.047  12.874   8.336
26639SOL    HW281692   0.026  12.768   8.442
26640SOL     OW81693  10.886  14.497   1.899
26640SOL    HW181694  10.792  14.511   1.883
26640SOL    HW281695  10.928  14.526   1.818
26641SOL     OW81696  13.182   1.757  11.011
26641SOL    HW181697  13.275   1.768  11.032
26641SOL    HW281698  13.137   1.779  11.092
26642SOL     OW81699   0.714  14.192   4.532
26642SOL    HW181700   0.703  14.275   4.486
26642SOL    HW281701   0.749  14.217   4.618
26643SOL     OW81702   2.406  13.676   3.763
26643SOL    HW181703   2.356  13.746   3.721
26643SOL    HW281704   2.427  13.711   3.850
26644SOL     OW81705   7.271  11.238   1.122
26644SOL    HW181706   7.281  11.324   1.081
26644SOL    HW281707   7.360  11.203   1.128
26645SOL     OW81708   2.637  10.828   6.186
26645SOL    HW181709   2.680  10.784   6.259
26645SOL    HW281710   2.544  10.829   6.210
26646SOL     OW81711   8.533  11.648   8.047
26646SOL    HW181712   8.598  11.716   8.031
26646SOL    HW281713   8.541  11.628   8.140
26647SOL     OW81714  11.511  10.652   6.161
26647SOL    HW181715  11.571  10.580   6.139
26647SOL    HW281716  11.568  10.721   6.194
26648SOL     OW81717  10.167   7.454   1.418
26648SOL    HW181718  10.110   7.524   1.386
26648SOL    HW281719  10.210   7.490   1.495
26649SOL     OW81720  11.102  10.809   3.441
26649SOL    HW181721  11.124  10.870   3.371
26649SOL    HW281722  11.009  10.824   3.458
26650SOL     OW81723  13.138   3.275   3.442
26650SOL    HW181724  13.122   3.315   3.357
26650SOL    HW281725  13.203   3.207   3.425
26651SOL     OW81726   5.205   6.145   7.984
26651SOL    HW181727   5.288   6.096   7.980
26651SOL    HW281728   5.141   6.080   8.013
26652SOL     OW81729   6.204   8.821   7.031
26652SOL    HW181730   6.251   8.750   6.986
26652SOL    HW281731   6.117   8.822   6.989
26653SOL     OW81732   1.644  14.714   6.461
26653SOL    HW181733   1.704  14.643   6.439
26653SOL    HW281734   1.560  14.687   6.425
26654SOL     OW81735   9.138   6.298   5.964
26654SOL    HW181736   9.147   6.210   5.928
26654SOL    HW281737   9.043   6.312   5.970
26655SOL     OW81738   9.821  12.174  10.510
26655SOL    HW181739   9.874  12.125  10.573
26655SOL    HW281740   9.857  12.263  10.513
26656SOL     OW81741   9.533   6.966  12.034
26656SOL    HW181742   9.612   7.010  12.067
26656SOL    HW281743   9.499   7.025  11.967
26657SOL     OW81744   9.278  13.675  13.127
26657SOL    HW181745   9.353  13.617  13.116
26657SOL    HW281746   9.288  13.741  13.058
26658SOL     OW81747   9.022  13.710  12.636
26658SOL    HW181748   9.014  13.727  12.542
26658SOL    HW281749   9.072  13.629  12.641
26659SOL     OW81750   3.780   6.955  12.461
26659SOL    HW181751   3.736   6.900  12.526
26659SOL    HW281752   3.854   6.902  12.431
26660SOL     OW81753   3.127   7.231   7.473
26660SOL    HW181754   3.171   7.175   7.537
26660SOL    HW281755   3.198   7.282   7.432
26661SOL     OW81756   8.388  13.447  12.823
26661SOL    HW181757   8.396  13.506  12.748
26661SOL    HW281758   8.293  13.442  12.839
26662SOL     OW81759  11.332  13.183   0.091
26662SOL    HW181760  11.355  13.092   0.076
26662SOL    HW281761  11.385  13.232   0.029
26663SOL     OW81762  11.549   7.974  14.389
26663SOL    HW181763  11.624   7.935  14.434
26663SOL    HW281764  11.531   8.055  14.437
26664SOL     OW81765  11.311   6.579   2.815
26664SOL    HW181766  11.243   6.641   2.790
26664SOL    HW281767  11.393   6.622   2.788
26665SOL     OW81768   4.413   0.198   8.701
26665SOL    HW181769   4.428   0.107   8.725
26665SOL    HW281770   4.500   0.232   8.682
26666SOL     OW81771   3.453   6.043  12.291
26666SOL    HW181772   3.464   5.999  12.375
26666SOL    HW281773   3.473   6.135  12.308
26667SOL     OW81774  10.442   7.022   4.679
26667SOL    HW181775  10.448   7.101   4.732
26667SOL    HW281776  10.349   6.997   4.683
26668SOL     OW81777  11.560   2.155   4.733
26668SOL    HW181778  11.619   2.188   4.665
26668SOL    HW281779  11.615   2.148   4.811
26669SOL     OW81780  12.430   1.707   2.185
26669SOL    HW181781  12.501   1.717   2.250
26669SOL    HW281782  12.350   1.722   2.235
26670SOL     OW81783   1.586  14.438  14.775
26670SOL    HW181784   1.535  14.438  14.694
26670SOL    HW281785   1.676  14.455  14.747
26671SOL     OW81786  12.029   3.474   1.600
26671SOL    HW181787  11.991   3.553   1.637
26671SOL    HW281788  12.082   3.505   1.526
26672SOL     OW81789   5.590  12.684   4.042
26672SOL    HW181790   5.638  12.693   3.959
26672SOL    HW281791   5.657  12.693   4.109
26673SOL     OW81792   5.160  12.578   6.121
26673SOL    HW181793   5.172  12.486   6.143
26673SOL    HW281794   5.249  12.612   6.110
26674SOL     OW81795   4.653   7.290   4.416
26674SOL    HW181796   4.565   7.312   4.447
26674SOL    HW281797   4.693   7.374   4.394
26675SOL     OW81798   0.818  11.296  10.750
26675SOL    HW181799   0.840  11.373  10.803
26675SOL    HW281800   0.901  11.251  10.738
26676SOL     OW81801  10.379   2.968   6.930
26676SOL    HW181802  10.463   2.922   6.924
26676SOL    HW281803  10.396   3.053   6.890
26677SOL     OW81804   6.997  13.767   1.376
26677SOL    HW181805   7.054  13.826   1.328
26677SOL    HW281806   6.933  13.738   1.311
26678SOL     OW81807   7.522   6.909   3.675
26678SOL    HW181808   7.605   6.878   3.709
26678SOL    HW281809   7.474   6.941   3.752
26679SOL     OW81810  14.275   9.672   2.814
26679SOL    HW181811  14.246   9.758   2.845
26679SOL    HW281812  14.367   9.667   2.840
26680SOL     OW81813   8.852  12.842   5.447
26680SOL    HW181814   8.769  12.831   5.493
26680SOL    HW281815   8.839  12.799   5.362
26681SOL     OW81816   9.700  14.279  10.963
26681SOL    HW181817   9.746  14.248  10.886
26681SOL    HW281818   9.762  14.266  11.035
26682SOL     OW81819   6.455   0.725   8.096
26682SOL    HW181820   6.399   0.661   8.052
26682SOL    HW281821   6.521   0.748   8.031
26683SOL     OW81822  11.359   4.505  12.577
26683SOL    HW181823  11.395   4.581  12.531
26683SOL    HW281824  11.359   4.435  12.512
26684SOL     OW81825   1.290   7.129   8.422
26684SOL    HW181826   1.341   7.209   8.431
26684SOL    HW281827   1.201   7.159   8.401
26685SOL     OW81828  14.165   0.164  14.533
26685SOL    HW181829  14.199   0.244  14.494
26685SOL    HW281830  14.086   0.191  14.579
26686SOL     OW81831   3.234   5.442   8.929
26686SOL    HW181832   3.288   5.446   9.007
26686SOL    HW281833   3.211   5.533   8.911
26687SOL     OW81834   6.341   9.326  13.745
26687SOL    HW181835   6.405   9.391  13.774
26687SOL    HW281836   6.342   9.260  13.814
26688SOL     OW81837  14.110  14.620  12.370
26688SOL    HW181838  14.095  14.610  12.276
26688SOL    HW281839  14.127  14.713  12.382
26689SOL     OW81840   5.039   2.343   2.675
26689SOL    HW181841   5.043   2.277   2.606
26689SOL    HW281842   4.993   2.416   2.635
26690SOL     OW81843   7.094   1.078   6.078
26690SOL    HW181844   7.059   1.059   5.991
26690SOL    HW281845   7.027   1.045   6.138
26691SOL     OW81846   6.559  14.445  10.424
26691SOL    HW181847   6.479  14.497  10.431
26691SOL    HW281848   6.628  14.509  10.408
26692SOL     OW81849   7.948   6.027   4.928
26692SOL    HW181850   7.916   5.953   4.980
26692SOL    HW281851   7.958   6.098   4.991
26693SOL     OW81852   2.211   0.986  14.379
26693SOL    HW181853   2.296   1.013  14.412
26693SOL    HW281854   2.183   1.058  14.322
26694SOL     OW81855   2.561  10.110   7.074
26694SOL    HW181856   2.581  10.042   7.009
26694SOL    HW281857   2.634  10.171   7.067
26695SOL     OW81858  12.595   6.112   4.059
26695SOL    HW181859  12.560   6.093   4.146
26695SOL    HW281860  12.634   6.030   4.030
26696SOL     OW81861  10.014  10.482   8.846
26696SOL    HW181862   9.960  10.417   8.801
26696SOL    HW281863   9.952  10.548   8.877
26697SOL     OW81864   4.345  11.337   7.962
26697SOL    HW181865   4.275  11.364   7.903
26697SOL    HW281866   4.394  11.418   7.980
26698SOL     OW81867   1.328   8.853   8.773
26698SOL    HW181868   1.239   8.882   8.751
26698SOL    HW281869   1.369   8.931   8.810
26699SOL     OW81870   1.036   1.836   4.008
26699SOL    HW181871   1.003   1.836   4.099
26699SOL    HW281872   0.963   1.801   3.957
26700SOL     OW81873  10.029   9.914  14.170
26700SOL    HW181874  10.011   9.935  14.262
26700SOL    HW281875   9.951   9.943  14.123
26701SOL     OW81876   2.517  12.792  11.189
26701SOL    HW181877   2.612  12.786  11.194
26701SOL    HW281878   2.486  12.739  11.263
26702SOL     OW81879   7.330  14.132   6.389
26702SOL    HW181880   7.384  14.096   6.319
26702SOL    HW281881   7.375  14.212   6.416
26703SOL     OW81882   7.454  13.293  11.640
26703SOL    HW181883   7.419  13.212  11.603
26703SOL    HW281884   7.391  13.317  11.708
26704SOL     OW81885   9.923  14.146   2.902
26704SOL    HW181886   9.981  14.124   2.975
26704SOL    HW281887   9.851  14.084   2.909
26705SOL     OW81888  11.425   2.448  10.461
26705SOL    HW181889  11.454   2.383  10.398
26705SOL    HW281890  11.437   2.532  10.417
26706SOL     OW81891   2.470  12.785   5.978
26706SOL    HW181892   2.553  12.801   6.024
26706SOL    HW281893   2.495  12.775   5.886
26707SOL     OW81894  11.292   3.765   1.521
26707SOL    HW181895  11.328   3.775   1.433
26707SOL    HW281896  11.366   3.738   1.575
26708SOL     OW81897   7.067  11.301   7.956
26708SOL    HW181898   7.133  11.248   8.000
26708SOL    HW281899   6.983  11.271   7.992
26709SOL     OW81900  14.081  14.227  10.780
26709SOL    HW181901  14.079  14.143  10.734
26709SOL    HW281902  13.998  14.231  10.827
26710SOL     OW81903   6.790   3.391  11.535
26710SOL    HW181904   6.744   3.463  11.578
26710SOL    HW281905   6.781   3.409  11.441
26711SOL     OW81906   8.386  13.420   3.814
26711SOL    HW181907   8.380  13.382   3.727
26711SOL    HW281908   8.471  13.390   3.847
26712SOL     OW81909  10.390  10.447   1.206
26712SOL    HW181910  10.476  10.484   1.227
26712SOL    HW281911  10.328  10.517   1.225
26713SOL     OW81912   7.819   3.839  11.553
26713SOL    HW181913   7.853   3.767  11.500
26713SOL    HW281914   7.819   3.804  11.643
26714SOL     OW81915  11.837   7.504   8.924
26714SOL    HW181916  11.763   7.564   8.926
26714SOL    HW281917  11.863   7.501   8.832
26715SOL     OW81918   1.184   1.895  11.926
26715SOL    HW181919   1.255   1.903  11.989
26715SOL    HW281920   1.108   1.932  11.971
26716SOL     OW81921   7.293  13.502  14.448
26716SOL    HW181922   7.381  13.480  14.419
26716SOL    HW281923   7.249  13.537  14.370
26717SOL     OW81924  13.194   8.040  14.315
26717SOL    HW181925  13.109   7.995  14.312
26717SOL    HW281926  13.258   7.969  14.312
26718SOL     OW81927  11.079   5.390   8.046
26718SOL    HW181928  10.989   5.374   8.020
26718SOL    HW281929  11.082   5.365   8.139
26719SOL     OW81930   9.186   9.304   4.987
26719SOL    HW181931   9.110   9.343   4.943
26719SOL    HW281932   9.193   9.216   4.949
26720SOL     OW81933   7.301   1.120   7.137
26720SOL    HW181934   7.245   1.056   7.182
26720SOL    HW281935   7.241   1.167   7.079
26721SOL     OW81936   9.522   0.286  14.787
26721SOL    HW181937   9.474   0.203  14.787
26721SOL    HW281938   9.589   0.275  14.719
26722SOL     OW81939  12.387   5.228   2.166
26722SOL    HW181940  12.478   5.251   2.145
26722SOL    HW281941  12.385   5.221   2.261
26723SOL     OW81942   9.886   0.934   5.591
26723SOL    HW181943   9.855   0.852   5.553
26723SOL    HW281944   9.938   0.975   5.522
26724SOL     OW81945   4.931   3.131   3.984
26724SOL    HW181946   4.907   3.223   3.991
26724SOL    HW281947   5.004   3.120   4.045
26725SOL     OW81948   3.769  11.930   5.700
26725SOL    HW181949   3.790  11.849   5.747
26725SOL    HW281950   3.817  11.923   5.618
26726SOL     OW81951   7.202   2.948  10.179
26726SOL    HW181952   7.221   2.973  10.270
26726SOL    HW281953   7.231   3.022  10.127
26727SOL     OW81954   1.247   8.669   1.275
26727SOL    HW181955   1.212   8.580   1.289
26727SOL    HW281956   1.281   8.668   1.185
26728SOL     OW81957   9.233   4.977   4.641
26728SOL    HW181958   9.157   4.919   4.644
26728SOL    HW281959   9.301   4.930   4.690
26729SOL     OW81960  14.183  12.248   4.833
26729SOL    HW181961  14.231  12.166   4.841
26729SOL    HW281962  14.101  12.224   4.790
26730SOL     OW81963   2.243   4.372   5.297
26730SOL    HW181964   2.166   4.376   5.354
26730SOL    HW281965   2.256   4.279   5.281
26731SOL     OW81966   1.576  10.964   9.861
26731SOL    HW181967   1.634  11.001   9.794
26731SOL    HW281968   1.488  10.984   9.830
26732SOL     OW81969   4.913   2.576   6.158
26732SOL    HW181970   4.825   2.583   6.195
26732SOL    HW281971   4.941   2.487   6.181
26733SOL     OW81972   3.153   7.232  13.405
26733SOL    HW181973   3.170   7.206  13.315
26733SOL    HW281974   3.076   7.181  13.430
26734SOL     OW81975  11.947   4.799   1.810
26734SOL    HW181976  12.007   4.873   1.822
26734SOL    HW281977  11.863   4.831   1.843
26735SOL     OW81978  12.069  14.074   1.222
26735SOL    HW181979  12.083  14.143   1.286
26735SOL    HW281980  11.978  14.085   1.194
26736SOL     OW81981   6.541   3.475   6.353
26736SOL    HW181982   6.537   3.440   6.442
26736SOL    HW281983   6.456   3.454   6.315
26737SOL     OW81984  12.059  13.265  12.410
26737SOL    HW181985  12.135  13.276  12.353
26737SOL    HW281986  12.091  13.288  12.497
26738SOL     OW81987   7.680   5.911   3.335
26738SOL    HW181988   7.608   5.862   3.376
26738SOL    HW281989   7.667   6.001   3.364
26739SOL     OW81990  14.310   1.244   4.699
26739SOL    HW181991  14.233   1.247   4.756
26739SOL    HW281992  14.323   1.335   4.672
26740SOL     OW81993   1.378  14.083   9.977
26740SOL    HW181994   1.347  13.994   9.962
26740SOL    HW281995   1.360  14.129   9.895
26741SOL     OW81996   4.589   6.768   8.487
26741SOL    HW181997   4.578   6.763   8.392
26741SOL    HW281998   4.648   6.695   8.508
26742SOL     OW81999   6.388   1.665  13.830
26742SOL    HW182000   6.311   1.705  13.789
26742SOL    HW282001   6.384   1.693  13.921
26743SOL     OW82002  14.013   6.593   6.148
26743SOL    HW182003  13.995   6.561   6.236
26743SOL    HW282004  14.022   6.688   6.159
26744SOL     OW82005   1.356   9.800   6.463
26744SOL    HW182006   1.295   9.779   6.533
26744SOL    HW282007   1.436   9.752   6.485
26745SOL     OW82008   1.186   6.574   1.786
26745SOL    HW182009   1.212   6.530   1.705
26745SOL    HW282010   1.090   6.575   1.783
26746SOL     OW82011   2.074   5.582  10.980
26746SOL    HW182012   2.150   5.527  10.960
26746SOL    HW282013   2.112   5.665  11.009
26747SOL     OW82014   6.850   8.450   4.312
26747SOL    HW182015   6.826   8.501   4.390
26747SOL    HW282016   6.871   8.363   4.346
26748SOL     OW82017  10.865   8.889  11.178
26748SOL    HW182018  10.919   8.871  11.255
26748SOL    HW282019  10.794   8.825  11.183
26749SOL     OW82020   8.821  11.073   4.752
26749SOL    HW182021   8.800  11.037   4.838
26749SOL    HW282022   8.761  11.030   4.692
26750SOL     OW82023   9.973   4.648  11.288
26750SOL    HW182024   9.881   4.673  11.295
26750SOL    HW282025  10.021   4.722  11.324
26751SOL     OW82026   2.538   3.121  10.290
26751SOL    HW182027   2.456   3.088  10.327
26751SOL    HW282028   2.605   3.060  10.321
26752SOL     OW82029   0.742   9.812  14.086
26752SOL    HW182030   0.695   9.890  14.055
26752SOL    HW282031   0.834   9.839  14.086
26753SOL     OW82032   1.929   9.438  11.365
26753SOL    HW182033   1.929   9.496  11.441
26753SOL    HW282034   1.965   9.355  11.397
26754SOL     OW82035  14.088   9.160   1.451
26754SOL    HW182036  14.086   9.064   1.453
26754SOL    HW282037  14.043   9.186   1.531
26755SOL     OW82038   6.989   4.929   1.362
26755SOL    HW182039   7.010   4.872   1.288
26755SOL    HW282040   7.071   4.939   1.410
26756SOL     OW82041   0.587   0.044   0.258
26756SOL    HW182042   0.636  14.874   0.192
26756SOL    HW282043   0.600   0.136   0.236
26757SOL     OW82044   6.020   5.932  14.158
26757SOL    HW182045   5.939   5.904  14.200
26757SOL    HW282046   6.076   5.961  14.231
26758SOL     OW82047   7.425   7.769   8.937
26758SOL    HW182048   7.421   7.699   8.871
26758SOL    HW282049   7.413   7.850   8.886
26759SOL     OW82050  12.437  10.136  13.048
26759SOL    HW182051  12.533  10.134  13.052
26759SOL    HW282052  12.411  10.191  13.122
26760SOL     OW82053   8.706   9.188   0.130
26760SOL    HW182054   8.695   9.282   0.145
26760SOL    HW282055   8.719   9.152   0.218
26761SOL     OW82056  10.234   9.761   3.507
26761SOL    HW182057  10.169   9.727   3.445
26761SOL    HW282058  10.188   9.762   3.591
26762SOL     OW82059  10.123   6.961   6.954
26762SOL    HW182060  10.038   6.978   6.915
26762SOL    HW282061  10.170   6.910   6.887
26763SOL     OW82062   7.382   7.005   1.805
26763SOL    HW182063   7.304   7.011   1.750
26763SOL    HW282064   7.393   6.911   1.821
26764SOL     OW82065   3.722   3.489   2.183
26764SOL    HW182066   3.633   3.470   2.154
26764SOL    HW282067   3.778   3.447   2.118
26765SOL     OW82068   1.968   4.659   7.040
26765SOL    HW182069   1.969   4.590   7.106
26765SOL    HW282070   1.878   4.658   7.006
26766SOL     OW82071   7.961   9.306   7.885
26766SOL    HW182072   7.963   9.215   7.857
26766SOL    HW282073   7.874   9.317   7.923
26767SOL     OW82074  11.740   9.936   4.168
26767SOL    HW182075  11.785   9.922   4.251
26767SOL    HW282076  11.795   9.892   4.103
26768SOL     OW82077  13.879  14.601  14.864
26768SOL    HW182078  13.883  14.538  14.792
26768SOL    HW282079  13.848  14.550   0.061
26769SOL     OW82080  12.783   7.435   9.201
26769SOL    HW182081  12.851   7.496   9.228
26769SOL    HW282082  12.827   7.375   9.140
26770SOL     OW82083   3.974   6.784   3.964
26770SOL    HW182084   4.006   6.702   4.001
26770SOL    HW282085   3.988   6.849   4.033
26771SOL     OW82086   1.352   8.721   2.981
26771SOL    HW182087   1.330   8.754   2.894
26771SOL    HW282088   1.300   8.773   3.041
26772SOL     OW82089  12.507  10.824   4.292
26772SOL    HW182090  12.487  10.914   4.318
26772SOL    HW282091  12.589  10.830   4.243
26773SOL     OW82092  12.687   2.756  11.205
26773SOL    HW182093  12.619   2.769  11.139
26773SOL    HW282094  12.708   2.845  11.235
26774SOL     OW82095   8.381   3.232   6.090
26774SOL    HW182096   8.345   3.195   6.010
26774SOL    HW282097   8.308   3.282   6.128
26775SOL     OW82098   5.635  11.357   9.379
26775SOL    HW182099   5.557  11.325   9.336
26775SOL    HW282100   5.668  11.426   9.322
26776SOL     OW82101  12.796  11.949   1.638
26776SOL    HW182102  12.821  11.857   1.636
26776SOL    HW282103  12.752  11.964   1.554
26777SOL     OW82104  12.304  11.623   9.270
26777SOL    HW182105  12.340  11.708   9.243
26777SOL    HW282106  12.308  11.626   9.366
26778SOL     OW82107  10.279   6.059   8.548
26778SOL    HW182108  10.198   6.009   8.555
26778SOL    HW282109  10.290   6.074   8.454
26779SOL     OW82110  10.423   5.388   9.150
26779SOL    HW182111  10.514   5.370   9.171
26779SOL    HW282112  10.374   5.359   9.227
26780SOL     OW82113  14.167   7.642   4.006
26780SOL    HW182114  14.101   7.668   4.070
26780SOL    HW282115  14.232   7.712   4.010
26781SOL     OW82116  14.225   5.614   2.258
26781SOL    HW182117  14.232   5.520   2.245
26781SOL    HW282118  14.140   5.637   2.220
26782SOL     OW82119  10.716   5.926  10.683
26782SOL    HW182120  10.733   6.008  10.729
26782SOL    HW282121  10.702   5.862  10.752
26783SOL     OW82122   0.221   0.072   9.712
26783SOL    HW182123   0.231   0.061   9.617
26783SOL    HW282124   0.148   0.013   9.734
26784SOL     OW82125   3.124   0.378   4.379
26784SOL    HW182126   3.065   0.351   4.449
26784SOL    HW282127   3.065   0.410   4.310
26785SOL     OW82128  11.400  10.726   5.071
26785SOL    HW182129  11.314  10.748   5.034
26785SOL    HW282130  11.379  10.681   5.153
26786SOL     OW82131   4.010  11.106  12.848
26786SOL    HW182132   4.046  11.087  12.935
26786SOL    HW282133   3.917  11.087  12.856
26787SOL     OW82134   2.168   0.110   1.423
26787SOL    HW182135   2.175   0.015   1.434
26787SOL    HW282136   2.142   0.122   1.332
26788SOL     OW82137   7.350   9.267  12.495
26788SOL    HW182138   7.367   9.177  12.469
26788SOL    HW282139   7.429   9.315  12.469
26789SOL     OW82140   1.103   6.626   3.293
26789SOL    HW182141   1.120   6.659   3.381
26789SOL    HW282142   1.013   6.593   3.296
26790SOL     OW82143   6.326  10.947   0.878
26790SOL    HW182144   6.350  11.039   0.889
26790SOL    HW282145   6.238  10.949   0.840
26791SOL     OW82146   7.076   6.068   4.575
26791SOL    HW182147   7.089   6.158   4.604
26791SOL    HW282148   7.148   6.052   4.513
26792SOL     OW82149   8.395   2.728   9.260
26792SOL    HW182150   8.385   2.716   9.355
26792SOL    HW282151   8.467   2.791   9.252
26793SOL     OW82152   2.528   7.010   8.462
26793SOL    HW182153   2.559   6.926   8.496
26793SOL    HW282154   2.493   7.055   8.539
26794SOL     OW82155   2.603   7.672   0.765
26794SOL    HW182156   2.582   7.580   0.752
26794SOL    HW282157   2.694   7.680   0.736
26795SOL     OW82158  13.231   3.511  14.372
26795SOL    HW182159  13.181   3.440  14.412
26795SOL    HW282160  13.164   3.574  14.343
26796SOL     OW82161  10.074  14.443   5.721
26796SOL    HW182162  10.022  14.390   5.660
26796SOL    HW282163  10.009  14.496   5.767
26797SOL     OW82164   4.878   7.505  11.792
26797SOL    HW182165   4.829   7.585  11.813
26797SOL    HW282166   4.948   7.502  11.857
26798SOL     OW82167  14.829   5.740  14.377
26798SOL    HW182168  14.789   5.788  14.449
26798SOL    HW282169  14.763   5.677  14.350
26799SOL     OW82170   0.687   0.220  14.771
26799SOL    HW182171   0.639   0.286  14.821
26799SOL    HW282172   0.637   0.210  14.690
26800SOL     OW82173  10.015   1.351   0.721
26800SOL    HW182174  10.049   1.374   0.807
26800SOL    HW282175   9.963   1.272   0.736
26801SOL     OW82176  12.502   9.484  10.354
26801SOL    HW182177  12.448   9.562  10.336
26801SOL    HW282178  12.457   9.413  10.308
26802SOL     OW82179  11.232  10.066   6.846
26802SOL    HW182180  11.279  10.059   6.763
26802SOL    HW282181  11.181   9.985   6.851
26803SOL     OW82182   9.026   1.147  13.065
26803SOL    HW182183   8.967   1.181  12.998
26803SOL    HW282184   8.991   1.061  13.087
26804SOL     OW82185   3.436   8.085  10.850
26804SOL    HW182186   3.342   8.101  10.853
26804SOL    HW282187   3.461   8.073  10.942
26805SOL     OW82188  11.732  12.263   1.220
26805SOL    HW182189  11.818  12.226   1.237
26805SOL    HW282190  11.741  12.308   1.136
26806SOL     OW82191   9.279  12.662   5.743
26806SOL    HW182192   9.349  12.696   5.687
26806SOL    HW282193   9.272  12.725   5.814
26807SOL     OW82194   3.741   5.462  14.083
26807SOL    HW182195   3.775   5.375  14.103
26807SOL    HW282196   3.799   5.496  14.015
26808SOL     OW82197   8.565   8.332   1.540
26808SOL    HW182198   8.572   8.320   1.634
26808SOL    HW282199   8.471   8.328   1.521
26809SOL     OW82200  14.075   4.138   2.257
26809SOL    HW182201  14.023   4.065   2.222
26809SOL    HW282202  14.129   4.166   2.183
26810SOL     OW82203   2.505  12.507   2.005
26810SOL    HW182204   2.437  12.554   1.958
26810SOL    HW282205   2.459  12.462   2.076
26811SOL     OW82206  11.592  11.400   0.497
26811SOL    HW182207  11.531  11.425   0.566
26811SOL    HW282208  11.581  11.305   0.488
26812SOL     OW82209   6.872   2.641   6.812
26812SOL    HW182210   6.870   2.659   6.906
26812SOL    HW282211   6.816   2.708   6.774
26813SOL     OW82212   5.049   0.848   2.099
26813SOL    HW182213   5.069   0.897   2.179
26813SOL    HW282214   5.089   0.900   2.029
26814SOL     OW82215  10.987   0.105   6.667
26814SOL    HW182216  10.989   0.091   6.573
26814SOL    HW282217  11.032   0.188   6.681
26815SOL     OW82218  13.853   9.766   4.898
26815SOL    HW182219  13.766   9.727   4.913
26815SOL    HW282220  13.853   9.787   4.805
26816SOL     OW82221   6.566   9.367   2.456
26816SOL    HW182222   6.553   9.411   2.540
26816SOL    HW282223   6.588   9.276   2.479
26817SOL     OW82224  10.910   0.213   8.717
26817SOL    HW182225  10.970   0.141   8.737
26817SOL    HW282226  10.850   0.176   8.652
26818SOL     OW82227   2.531  11.381   7.366
26818SOL    HW182228   2.460  11.332   7.408
26818SOL    HW282229   2.486  11.448   7.314
26819SOL     OW82230  13.487  11.138   8.345
26819SOL    HW182231  13.561  11.098   8.390
26819SOL    HW282232  13.422  11.152   8.413
26820SOL     OW82233   2.686  11.445  10.902
26820SOL    HW182234   2.755  11.454  10.968
26820SOL    HW282235   2.632  11.372  10.934
26821SOL     OW82236   9.898   9.378   3.581
26821SOL    HW182237   9.870   9.351   3.493
26821SOL    HW282238   9.841   9.328   3.640
26822SOL     OW82239   2.825   5.920   3.953
26822SOL    HW182240   2.770   5.921   3.875
26822SOL    HW282241   2.912   5.899   3.921
26823SOL     OW82242   6.330  11.435   4.069
26823SOL    HW182243   6.283  11.487   4.004
26823SOL    HW282244   6.408  11.487   4.090
26824SOL     OW82245   6.823   2.340  10.783
26824SOL    HW182246   6.885   2.365  10.714
26824SOL    HW282247   6.877   2.332  10.862
26825SOL     OW82248   7.821  10.551  10.226
26825SOL    HW182249   7.795  10.462  10.201
26825SOL    HW282250   7.915  10.554  10.211
26826SOL     OW82251   3.456  12.322  12.489
26826SOL    HW182252   3.364  12.333  12.513
26826SOL    HW282253   3.502  12.321  12.573
26827SOL     OW82254  12.070  13.264   9.266
26827SOL    HW182255  12.152  13.305   9.241
26827SOL    HW282256  12.002  13.320   9.228
26828SOL     OW82257   2.129   6.776   5.076
26828SOL    HW182258   2.151   6.734   4.993
26828SOL    HW282259   2.180   6.729   5.142
26829SOL     OW82260  12.873   8.560   6.959
26829SOL    HW182261  12.906   8.588   7.044
26829SOL    HW282262  12.949   8.561   6.901
26830SOL     OW82263   6.851   0.445  14.221
26830SOL    HW182264   6.867   0.391  14.144
26830SOL    HW282265   6.796   0.391  14.278
26831SOL     OW82266  13.374  11.063  10.161
26831SOL    HW182267  13.444  11.115  10.120
26831SOL    HW282268  13.373  10.981  10.112
26832SOL     OW82269  13.559  11.534   6.915
26832SOL    HW182270  13.530  11.624   6.900
26832SOL    HW282271  13.653  11.541   6.932
26833SOL     OW82272  11.752   3.279   7.251
26833SOL    HW182273  11.824   3.308   7.307
26833SOL    HW282274  11.792   3.266   7.165
26834SOL     OW82275   5.018  10.575   8.551
26834SOL    HW182276   4.997  10.648   8.492
26834SOL    HW282277   4.982  10.601   8.636
26835SOL     OW82278   1.993  12.386   1.624
26835SOL    HW182279   2.001  12.428   1.539
26835SOL    HW282280   2.074  12.335   1.633
26836SOL     OW82281   2.946  14.830   2.425
26836SOL    HW182282   2.916  14.856   2.337
26836SOL    HW282283   2.927   0.028   2.480
26837SOL     OW82284   7.275  11.424  10.599
26837SOL    HW182285   7.222  11.503  10.601
26837SOL    HW282286   7.311  11.417  10.688
26838SOL     OW82287   8.779   0.904   2.625
26838SOL    HW182288   8.770   0.943   2.712
26838SOL    HW282289   8.864   0.860   2.628
26839SOL     OW82290   1.335   5.396  12.650
26839SOL    HW182291   1.408   5.458  12.651
26839SOL    HW282292   1.341   5.349  12.732
26840SOL     OW82293  11.101   5.553  12.904
26840SOL    HW182294  11.187   5.592  12.918
26840SOL    HW282295  11.047   5.587  12.976
26841SOL     OW82296  10.775  12.511  14.000
26841SOL    HW182297  10.804  12.458  13.926
26841SOL    HW282298  10.818  12.596  13.986
26842SOL     OW82299  13.497   4.263   2.459
26842SOL    HW182300  13.414   4.296   2.493
26842SOL    HW282301  13.496   4.287   2.366
26843SOL     OW82302   5.190   8.925  14.706
26843SOL    HW182303   5.131   8.869  14.656
26843SOL    HW282304   5.148   8.936  14.791
26844SOL     OW82305   2.230   4.606  12.767
26844SOL    HW182306   2.216   4.697  12.796
26844SOL    HW282307   2.293   4.571  12.830
26845SOL     OW82308   7.546   8.576  14.181
26845SOL    HW182309   7.586   8.619  14.257
26845SOL    HW282310   7.452   8.584  14.196
26846SOL     OW82311   0.142   2.083   9.454
26846SOL    HW182312   0.051   2.090   9.428
26846SOL    HW282313   0.192   2.098   9.373
26847SOL     OW82314   1.299   6.626   8.516
26847SOL    HW182315   1.289   6.669   8.601
26847SOL    HW282316   1.311   6.698   8.454
26848SOL     OW82317   1.226   0.445  13.320
26848SOL    HW182318   1.209   0.364  13.368
26848SOL    HW282319   1.222   0.514  13.387
26849SOL     OW82320   1.922   0.320   5.407
26849SOL    HW182321   1.965   0.300   5.490
26849SOL    HW282322   1.921   0.415   5.402
26850SOL     OW82323   9.401   6.446   4.650
26850SOL    HW182324   9.491   6.469   4.671
26850SOL    HW282325   9.402   6.430   4.556
26851SOL     OW82326   9.555   7.339   9.339
26851SOL    HW182327   9.549   7.246   9.316
26851SOL    HW282328   9.517   7.384   9.264
26852SOL     OW82329   7.458  11.427   5.945
26852SOL    HW182330   7.519  11.353   5.947
26852SOL    HW282331   7.376  11.388   5.915
26853SOL     OW82332  12.235   9.046   0.608
26853SOL    HW182333  12.149   9.088   0.611
26853SOL    HW282334  12.217   8.957   0.579
26854SOL     OW82335   3.656   4.492   3.443
26854SOL    HW182336   3.592   4.535   3.386
26854SOL    HW282337   3.673   4.408   3.401
26855SOL     OW82338   5.083  13.595   6.745
26855SOL    HW182339   5.041  13.615   6.829
26855SOL    HW282340   5.012  13.599   6.681
26856SOL     OW82341   1.047  12.257   5.881
26856SOL    HW182342   0.973  12.207   5.847
26856SOL    HW282343   1.123  12.224   5.832
26857SOL     OW82344  12.915  12.265   7.067
26857SOL    HW182345  12.961  12.206   7.007
26857SOL    HW282346  12.864  12.207   7.124
26858SOL     OW82347   4.513   4.186  11.300
26858SOL    HW182348   4.540   4.180  11.392
26858SOL    HW282349   4.423   4.155  11.299
26859SOL     OW82350  12.061  10.434   2.958
26859SOL    HW182351  11.975  10.397   2.935
26859SOL    HW282352  12.112  10.429   2.878
26860SOL     OW82353  13.881   6.208  11.268
26860SOL    HW182354  13.950   6.156  11.227
26860SOL    HW282355  13.825   6.236  11.195
26861SOL     OW82356   5.619   3.852  14.047
26861SOL    HW182357   5.560   3.824  13.976
26861SOL    HW282358   5.577   3.820  14.127
26862SOL     OW82359   0.123   1.416  14.123
26862SOL    HW182360   0.212   1.384  14.114
26862SOL    HW282361   0.132   1.510  14.140
26863SOL     OW82362   8.512   0.548  12.514
26863SOL    HW182363   8.580   0.596  12.466
26863SOL    HW282364   8.486   0.477  12.456
26864SOL     OW82365   5.333   2.818   7.998
26864SOL    HW182366   5.406   2.782   7.949
26864SOL    HW282367   5.259   2.760   7.978
26865SOL     OW82368   3.982  13.374   1.197
26865SOL    HW182369   4.017  13.367   1.286
26865SOL    HW282370   4.005  13.462   1.168
26866SOL     OW82371   4.634   2.583  10.029
26866SOL    HW182372   4.597   2.661   9.988
26866SOL    HW282373   4.568   2.515  10.016
26867SOL     OW82374   7.715  12.392   6.673
26867SOL    HW182375   7.668  12.474   6.688
26867SOL    HW282376   7.774  12.384   6.748
26868SOL     OW82377   5.474   0.495   5.199
26868SOL    HW182378   5.522   0.420   5.162
26868SOL    HW282379   5.538   0.565   5.205
26869SOL     OW82380   1.414   9.561   4.240
26869SOL    HW182381   1.409   9.651   4.273
26869SOL    HW282382   1.482   9.564   4.172
26870SOL     OW82383  10.076  13.925  14.714
26870SOL    HW182384  10.040  14.014  14.712
26870SOL    HW282385  10.092  13.908  14.807
26871SOL     OW82386   5.981   3.616   7.764
26871SOL    HW182387   5.973   3.705   7.799
26871SOL    HW282388   5.891   3.589   7.746
26872SOL     OW82389   9.336   8.994   3.103
26872SOL    HW182390   9.416   9.042   3.083
26872SOL    HW282391   9.366   8.908   3.132
26873SOL     OW82392   1.273   6.613   9.109
26873SOL    HW182393   1.264   6.561   9.029
26873SOL    HW282394   1.318   6.693   9.080
26874SOL     OW82395   6.390   2.800   0.355
26874SOL    HW182396   6.315   2.751   0.387
26874SOL    HW282397   6.462   2.775   0.413
26875SOL     OW82398   5.062   0.931   4.037
26875SOL    HW182399   4.984   0.954   3.988
26875SOL    HW282400   5.030   0.906   4.124
26876SOL     OW82401   6.879   7.216  10.617
26876SOL    HW182402   6.815   7.153  10.585
26876SOL    HW282403   6.834   7.300  10.612
26877SOL     OW82404   1.384   0.753  13.871
26877SOL    HW182405   1.358   0.802  13.793
26877SOL    HW282406   1.472   0.786  13.891
26878SOL     OW82407  13.237   3.858  14.311
26878SOL    HW182408  13.252   3.924  14.378
26878SOL    HW282409  13.144   3.836  14.319
26879SOL     OW82410   7.432  10.452   8.784
26879SOL    HW182411   7.394  10.423   8.701
26879SOL    HW282412   7.446  10.546   8.772
26880SOL     OW82413   3.566   1.104  11.535
26880SOL    HW182414   3.595   1.184  11.580
26880SOL    HW282415   3.626   1.096  11.461
26881SOL     OW82416  13.103  10.603  13.163
26881SOL    HW182417  13.174  10.620  13.101
26881SOL    HW282418  13.144  10.550  13.232
26882SOL     OW82419   8.853   1.743   3.638
26882SOL    HW182420   8.789   1.782   3.699
26882SOL    HW282421   8.818   1.656   3.620
26883SOL     OW82422  10.822   3.600  11.906
26883SOL    HW182423  10.822   3.694  11.922
26883SOL    HW282424  10.731   3.578  11.887
26884SOL     OW82425  10.879   3.706  10.909
26884SOL    HW182426  10.863   3.793  10.873
26884SOL    HW282427  10.835   3.647  10.848
26885SOL     OW82428  10.856  11.636   7.350
26885SOL    HW182429  10.769  11.607   7.376
26885SOL    HW282430  10.886  11.570   7.287
26886SOL     OW82431   7.578   8.289   0.211
26886SOL    HW182432   7.660   8.317   0.251
26886SOL    HW282433   7.510   8.333   0.262
26887SOL     OW82434   2.351   8.437   7.615
26887SOL    HW182435   2.380   8.412   7.528
26887SOL    HW282436   2.274   8.492   7.600
26888SOL     OW82437   1.591  11.027   2.899
26888SOL    HW182438   1.585  10.931   2.906
26888SOL    HW282439   1.678  11.047   2.935
26889SOL     OW82440   0.990   0.865   8.836
26889SOL    HW182441   0.963   0.857   8.928
26889SOL    HW282442   1.080   0.833   8.836
26890SOL     OW82443   0.883   4.985   6.560
26890SOL    HW182444   0.965   5.035   6.561
26890SOL    HW282445   0.867   4.965   6.652
26891SOL     OW82446  14.826   2.880   8.909
26891SOL    HW182447  14.753   2.907   8.853
26891SOL    HW282448  14.846   2.958   8.961
26892SOL     OW82449   6.705  13.633   3.362
26892SOL    HW182450   6.728  13.700   3.298
26892SOL    HW282451   6.764  13.649   3.436
26893SOL     OW82452   6.622  11.095   0.602
26893SOL    HW182453   6.669  11.012   0.596
26893SOL    HW282454   6.601  11.117   0.512
26894SOL     OW82455  10.860   7.863   8.039
26894SOL    HW182456  10.774   7.868   8.081
26894SOL    HW282457  10.875   7.769   8.027
26895SOL     OW82458   8.590  10.644  12.472
26895SOL    HW182459   8.682  10.639  12.446
26895SOL    HW282460   8.567  10.555  12.498
26896SOL     OW82461  10.961   2.442   2.956
26896SOL    HW182462  11.039   2.459   2.903
26896SOL    HW282463  10.902   2.515   2.935
26897SOL     OW82464   2.387   8.323   8.985
26897SOL    HW182465   2.444   8.399   8.987
26897SOL    HW282466   2.345   8.326   8.899
26898SOL     OW82467   5.599   6.084  11.705
26898SOL    HW182468   5.575   6.154  11.644
26898SOL    HW282469   5.666   6.034  11.659
26899SOL     OW82470  12.036   6.142   4.700
26899SOL    HW182471  11.963   6.182   4.748
26899SOL    HW282472  12.114   6.188   4.733
26900SOL     OW82473   1.322  10.236   8.919
26900SOL    HW182474   1.308  10.177   8.845
26900SOL    HW282475   1.379  10.305   8.885
26901SOL     OW82476   8.064  14.165   4.420
26901SOL    HW182477   8.025  14.151   4.333
26901SOL    HW282478   8.099  14.080   4.445
26902SOL     OW82479   3.150   0.731   5.885
26902SOL    HW182480   3.219   0.775   5.935
26902SOL    HW282481   3.168   0.638   5.896
26903SOL     OW82482   9.878   6.133   8.422
26903SOL    HW182483   9.890   6.129   8.327
26903SOL    HW282484   9.803   6.190   8.434
26904SOL     OW82485   7.879   7.053  11.880
26904SOL    HW182486   7.923   7.078  11.799
26904SOL    HW282487   7.843   7.134  11.914
26905SOL     OW82488  11.310   8.667   0.311
26905SOL    HW182489  11.276   8.757   0.313
26905SOL    HW282490  11.363   8.659   0.390
26906SOL     OW82491   4.698  14.430   7.470
26906SOL    HW182492   4.790  14.404   7.465
26906SOL    HW282493   4.696  14.521   7.440
26907SOL     OW82494  10.734   6.950  13.464
26907SOL    HW182495  10.764   6.935  13.374
26907SOL    HW282496  10.671   7.022  13.457
26908SOL     OW82497   0.862  11.196   0.595
26908SOL    HW182498   0.781  11.193   0.646
26908SOL    HW282499   0.844  11.260   0.526
26909SOL     OW82500  11.134   3.800   6.615
26909SOL    HW182501  11.148   3.893   6.601
26909SOL    HW282502  11.121   3.764   6.527
26910SOL     OW82503   4.176  12.976   0.998
26910SOL    HW182504   4.270  12.993   0.987
26910SOL    HW282505   4.138  13.062   1.015
26911SOL     OW82506  11.215   4.425   4.957
26911SOL    HW182507  11.151   4.448   5.024
26911SOL    HW282508  11.294   4.474   4.981
26912SOL     OW82509   4.585  11.885   1.969
26912SOL    HW182510   4.544  11.952   2.025
26912SOL    HW282511   4.511  11.834   1.935
26913SOL     OW82512   4.734   7.509   8.208
26913SOL    HW182513   4.826   7.514   8.235
26913SOL    HW282514   4.727   7.570   8.135
26914SOL     OW82515   6.397   2.052  12.019
26914SOL    HW182516   6.374   2.061  11.926
26914SOL    HW282517   6.316   2.073  12.066
26915SOL     OW82518   8.268  11.487   3.483
26915SOL    HW182519   8.207  11.528   3.422
26915SOL    HW282520   8.340  11.456   3.428
26916SOL     OW82521   8.736  11.731   8.551
26916SOL    HW182522   8.800  11.676   8.506
26916SOL    HW282523   8.788  11.782   8.613
26917SOL     OW82524   1.159   2.195   2.180
26917SOL    HW182525   1.253   2.215   2.179
26917SOL    HW282526   1.155   2.100   2.190
26918SOL     OW82527   0.768   5.783  10.952
26918SOL    HW182528   0.788   5.727  11.027
26918SOL    HW282529   0.752   5.722  10.881
26919SOL     OW82530  12.438   3.797   7.027
26919SOL    HW182531  12.463   3.878   6.984
26919SOL    HW282532  12.396   3.745   6.959
26920SOL     OW82533   4.436   5.858   1.195
26920SOL    HW182534   4.519   5.843   1.149
26920SOL    HW282535   4.370   5.857   1.125
26921SOL     OW82536   7.826  10.095   5.212
26921SOL    HW182537   7.891  10.090   5.283
26921SOL    HW282538   7.810  10.003   5.188
26922SOL     OW82539  10.862  14.060  14.684
26922SOL    HW182540  10.840  14.030  14.772
26922SOL    HW282541  10.807  14.137  14.671
26923SOL     OW82542  10.942   8.154   1.976
26923SOL    HW182543  11.025   8.153   1.928
26923SOL    HW282544  10.916   8.247   1.977
26924SOL     OW82545  12.404   5.521   4.149
26924SOL    HW182546  12.334   5.532   4.085
26924SOL    HW282547  12.362   5.479   4.224
26925SOL     OW82548   2.076   1.331   9.241
26925SOL    HW182549   2.052   1.422   9.227
26925SOL    HW282550   2.152   1.317   9.185
26926SOL     OW82551  13.876   0.315   7.493
26926SOL    HW182552  13.910   0.358   7.571
26926SOL    HW282553  13.947   0.321   7.429
26927SOL     OW82554   4.328   3.765   3.978
26927SOL    HW182555   4.388   3.771   4.052
26927SOL    HW282556   4.260   3.704   4.007
26928SOL     OW82557   2.595   3.684   2.512
26928SOL    HW182558   2.554   3.762   2.475
26928SOL    HW282559   2.541   3.612   2.481
26929SOL     OW82560   8.782   2.788   8.783
26929SOL    HW182561   8.792   2.708   8.732
26929SOL    HW282562   8.738   2.849   8.724
26930SOL     OW82563   4.051  11.607   7.178
26930SOL    HW182564   4.033  11.568   7.093
26930SOL    HW282565   3.964  11.618   7.218
26931SOL     OW82566   6.596  10.167  11.730
26931SOL    HW182567   6.619  10.096  11.670
26931SOL    HW282568   6.595  10.126  11.816
26932SOL     OW82569   0.796   6.709   3.829
26932SOL    HW182570   0.814   6.683   3.738
26932SOL    HW282571   0.720   6.656   3.854
26933SOL     OW82572   4.902  10.608   2.553
26933SOL    HW182573   4.910  10.560   2.636
26933SOL    HW282574   4.829  10.565   2.508
26934SOL     OW82575   1.839   8.103  12.374
26934SOL    HW182576   1.880   8.029  12.331
26934SOL    HW282577   1.912   8.154  12.409
26935SOL     OW82578   6.742   8.617   9.483
26935SOL    HW182579   6.730   8.554   9.412
26935SOL    HW282580   6.687   8.584   9.554
26936SOL     OW82581   1.157   9.236  12.438
26936SOL    HW182582   1.102   9.254  12.362
26936SOL    HW282583   1.127   9.151  12.470
26937SOL     OW82584  12.795  12.350   4.531
26937SOL    HW182585  12.811  12.421   4.469
26937SOL    HW282586  12.874  12.297   4.529
26938SOL     OW82587  10.374   5.916   5.518
26938SOL    HW182588  10.391   5.923   5.612
26938SOL    HW282589  10.292   5.964   5.505
26939SOL     OW82590  10.074   8.889   2.831
26939SOL    HW182591  10.127   8.880   2.910
26939SOL    HW282592  10.054   8.982   2.826
26940SOL     OW82593   3.715   7.638   6.984
26940SOL    HW182594   3.805   7.619   7.012
26940SOL    HW282595   3.665   7.561   7.009
26941SOL     OW82596   2.180   4.108  11.607
26941SOL    HW182597   2.269   4.136  11.589
26941SOL    HW282598   2.179   4.089  11.701
26942SOL     OW82599   2.575   2.988   8.225
26942SOL    HW182600   2.650   3.045   8.242
26942SOL    HW282601   2.613   2.902   8.209
26943SOL     OW82602   9.756   1.641   1.697
26943SOL    HW182603   9.741   1.659   1.604
26943SOL    HW282604   9.668   1.639   1.735
26944SOL     OW82605   6.992  11.070   2.356
26944SOL    HW182606   6.967  11.119   2.277
26944SOL    HW282607   7.079  11.103   2.378
26945SOL     OW82608   2.911  14.566   8.297
26945SOL    HW182609   2.881  14.572   8.207
26945SOL    HW282610   3.006  14.573   8.292
26946SOL     OW82611  12.739   4.322   5.084
26946SOL    HW182612  12.752   4.351   4.993
26946SOL    HW282613  12.644   4.311   5.091
26947SOL     OW82614   1.182   7.421  10.866
26947SOL    HW182615   1.139   7.391  10.946
26947SOL    HW282616   1.196   7.341  10.815
26948SOL     OW82617   7.762  14.500  10.761
26948SOL    HW182618   7.729  14.542  10.841
26948SOL    HW282619   7.685  14.494  10.704
26949SOL     OW82620   8.766  14.664   4.025
26949SOL    HW182621   8.795  14.639   3.937
26949SOL    HW282622   8.715  14.590   4.056
26950SOL     OW82623  14.854   0.898   0.367
26950SOL    HW182624  14.761   0.909   0.348
26950SOL    HW282625  14.863   0.806   0.394
26951SOL     OW82626   5.540  13.130   2.472
26951SOL    HW182627   5.572  13.116   2.561
26951SOL    HW282628   5.617  13.157   2.422
26952SOL     OW82629  13.195   3.805   1.542
26952SOL    HW182630  13.136   3.838   1.475
26952SOL    HW282631  13.139   3.790   1.618
26953SOL     OW82632   1.794  11.884   7.316
26953SOL    HW182633   1.734  11.957   7.336
26953SOL    HW282634   1.782  11.823   7.389
26954SOL     OW82635   5.128   8.261  13.255
26954SOL    HW182636   5.065   8.307  13.310
26954SOL    HW282637   5.088   8.176  13.237
26955SOL     OW82638  14.434   5.712   9.225
26955SOL    HW182639  14.345   5.684   9.204
26955SOL    HW282640  14.447   5.684   9.316
26956SOL     OW82641  10.124  11.801  13.772
26956SOL    HW182642  10.095  11.858  13.701
26956SOL    HW282643  10.217  11.787  13.756
26957SOL     OW82644  14.438   1.078  13.105
26957SOL    HW182645  14.421   1.062  13.013
26957SOL    HW282646  14.531   1.055  13.116
26958SOL     OW82647   5.067  13.224  14.313
26958SOL    HW182648   5.069  13.138  14.272
26958SOL    HW282649   5.145  13.226  14.369
26959SOL     OW82650   6.858   8.598  14.478
26959SOL    HW182651   6.794   8.655  14.521
26959SOL    HW282652   6.838   8.605  14.385
26960SOL     OW82653   7.148  13.823  14.259
26960SOL    HW182654   7.118  13.872  14.336
26960SOL    HW282655   7.177  13.890  14.198
26961SOL     OW82656  13.420   2.526   6.783
26961SOL    HW182657  13.362   2.561   6.716
26961SOL    HW282658  13.400   2.432   6.785
26962SOL     OW82659   4.170   9.454   4.149
26962SOL    HW182660   4.130   9.438   4.064
26962SOL    HW282661   4.202   9.369   4.178
26963SOL     OW82662   9.375   8.144   3.666
26963SOL    HW182663   9.290   8.154   3.622
26963SOL    HW282664   9.360   8.180   3.754
26964SOL     OW82665   1.777  11.699   2.185
26964SOL    HW182666   1.689  11.670   2.209
26964SOL    HW282667   1.785  11.785   2.227
26965SOL     OW82668   4.019   9.653  14.436
26965SOL    HW182669   3.970   9.572  14.452
26965SOL    HW282670   3.955   9.714  14.400
26966SOL     OW82671   9.618   1.276   7.733
26966SOL    HW182672   9.652   1.298   7.646
26966SOL    HW282673   9.677   1.209   7.766
26967SOL     OW82674   0.732  11.010  10.484
26967SOL    HW182675   0.707  11.024  10.393
26967SOL    HW282676   0.818  11.051  10.492
26968SOL     OW82677   8.420   5.082   8.624
26968SOL    HW182678   8.428   5.167   8.581
26968SOL    HW282679   8.508   5.063   8.656
26969SOL     OW82680   8.095   4.266   3.863
26969SOL    HW182681   8.046   4.188   3.836
26969SOL    HW282682   8.031   4.319   3.911
26970SOL     OW82683  12.311  10.559   7.029
26970SOL    HW182684  12.342  10.501   6.960
26970SOL    HW282685  12.375  10.630   7.031
26971SOL     OW82686   6.930   7.984  13.721
26971SOL    HW182687   6.939   8.079  13.724
26971SOL    HW282688   6.882   7.962  13.801
26972SOL     OW82689   6.207   4.496   0.215
26972SOL    HW182690   6.143   4.436   0.176
26972SOL    HW282691   6.157   4.576   0.230
26973SOL     OW82692   3.310  13.048  14.787
26973SOL    HW182693   3.375  13.004  14.841
26973SOL    HW282694   3.287  13.127  14.836
26974SOL     OW82695  14.355   9.309  11.320
26974SOL    HW182696  14.357   9.359  11.401
26974SOL    HW282697  14.441   9.266  11.316
26975SOL     OW82698  11.288   9.052   0.655
26975SOL    HW182699  11.326   9.059   0.742
26975SOL    HW282700  11.199   9.021   0.669
26976SOL     OW82701   1.323   4.535  14.312
26976SOL    HW182702   1.318   4.512  14.404
26976SOL    HW282703   1.329   4.451  14.266
26977SOL     OW82704   9.534  11.773   9.981
26977SOL    HW182705   9.486  11.728  10.050
26977SOL    HW282706   9.620  11.791  10.019
26978SOL     OW82707  13.295   1.612   5.035
26978SOL    HW182708  13.204   1.584   5.042
26978SOL    HW282709  13.316   1.647   5.121
26979SOL     OW82710   6.494   5.957   5.445
26979SOL    HW182711   6.448   5.913   5.373
26979SOL    HW282712   6.537   6.031   5.403
26980SOL     OW82713   1.354  10.847   8.270
26980SOL    HW182714   1.449  10.843   8.287
26980SOL    HW282715   1.316  10.871   8.355
26981SOL     OW82716   8.495  14.340  12.595
26981SOL    HW182717   8.531  14.294  12.520
26981SOL    HW282718   8.406  14.306  12.604
26982SOL     OW82719   2.378  10.642  14.204
26982SOL    HW182720   2.324  10.566  14.182
26982SOL    HW282721   2.342  10.672  14.288
26983SOL     OW82722  11.120   9.780   4.358
26983SOL    HW182723  11.141   9.873   4.358
26983SOL    HW282724  11.092   9.762   4.448
26984SOL     OW82725   0.771  13.410   5.006
26984SOL    HW182726   0.722  13.391   5.086
26984SOL    HW282727   0.787  13.325   4.966
26985SOL     OW82728  11.350   3.635  10.451
26985SOL    HW182729  11.388   3.562  10.500
26985SOL    HW282730  11.392   3.630  10.365
26986SOL     OW82731  14.730   1.300   7.232
26986SOL    HW182732  14.704   1.349   7.310
26986SOL    HW282733  14.813   1.259   7.256
26987SOL     OW82734   0.945   6.610   2.070
26987SOL    HW182735   0.936   6.698   2.107
26987SOL    HW282736   1.026   6.614   2.019
26988SOL     OW82737  14.546   4.610   6.751
26988SOL    HW182738  14.594   4.625   6.669
26988SOL    HW282739  14.532   4.698   6.787
26989SOL     OW82740  10.080   9.007   1.303
26989SOL    HW182741  10.074   9.079   1.240
26989SOL    HW282742  10.073   8.928   1.251
26990SOL     OW82743   9.027   3.636   5.130
26990SOL    HW182744   9.103   3.651   5.073
26990SOL    HW282745   8.952   3.653   5.074
26991SOL     OW82746   5.322  13.742   7.576
26991SOL    HW182747   5.275  13.826   7.573
26991SOL    HW282748   5.413  13.766   7.557
26992SOL     OW82749   5.189   4.664  14.549
26992SOL    HW182750   5.273   4.710  14.561
26992SOL    HW282751   5.156   4.698  14.466
26993SOL     OW82752   0.070   0.881   9.933
26993SOL    HW182753  14.870   0.923   9.895
26993SOL    HW282754   0.085   0.930  10.014
26994SOL     OW82755   4.962  11.237   8.395
26994SOL    HW182756   4.891  11.244   8.459
26994SOL    HW282757   4.986  11.144   8.396
26995SOL     OW82758  14.793   6.938   6.358
26995SOL    HW182759  14.832   6.941   6.446
26995SOL    HW282760  14.789   6.845   6.337
26996SOL     OW82761  10.617   2.594  12.812
26996SOL    HW182762  10.675   2.521  12.836
26996SOL    HW282763  10.537   2.577  12.863
26997SOL     OW82764   0.991   1.255  13.852
26997SOL    HW182765   1.070   1.305  13.832
26997SOL    HW282766   0.937   1.263  13.774
26998SOL     OW82767  12.230   9.261  12.313
26998SOL    HW182768  12.192   9.307  12.239
26998SOL    HW282769  12.318   9.298  12.322
26999SOL     OW82770   2.183  11.643   8.052
26999SOL    HW182771   2.260  11.633   7.997
26999SOL    HW282772   2.152  11.554   8.067
27000SOL     OW82773  14.231  11.116   6.402
27000SOL    HW182774  14.237  11.186   6.467
27000SOL    HW282775  14.243  11.036   6.453
27001SOL     OW82776   4.633  10.627  10.775
27001SOL    HW182777   4.611  10.608  10.684
27001SOL    HW282778   4.643  10.722  10.778
27002SOL     OW82779   3.483   6.686  12.599
27002SOL    HW182780   3.558   6.641  12.638
27002SOL    HW282781   3.430   6.616  12.561
27003SOL     OW82782  10.057   9.701   3.746
27003SOL    HW182783   9.965   9.685   3.767
27003SOL    HW282784  10.104   9.680   3.827
27004SOL     OW82785   6.667   3.984  12.298
27004SOL    HW182786   6.694   3.892  12.303
27004SOL    HW282787   6.725   4.030  12.359
27005SOL     OW82788   8.660  11.456  12.943
27005SOL    HW182789   8.729  11.522  12.939
27005SOL    HW282790   8.640  11.436  12.851
27006SOL     OW82791  14.335   4.483  10.273
27006SOL    HW182792  14.423   4.509  10.245
27006SOL    HW282793  14.278   4.551  10.236
27007SOL     OW82794   5.960   3.383  14.473
27007SOL    HW182795   6.032   3.439  14.502
27007SOL    HW282796   5.893   3.444  14.443
27008SOL     OW82797  12.429   9.655   2.668
27008SOL    HW182798  12.414   9.621   2.756
27008SOL    HW282799  12.395   9.586   2.610
27009SOL     OW82800  14.151   0.920   9.772
27009SOL    HW182801  14.138   0.998   9.718
27009SOL    HW282802  14.196   0.951   9.850
27010SOL     OW82803   6.913   0.033   0.849
27010SOL    HW182804   6.952   0.070   0.770
27010SOL    HW282805   6.903  14.817   0.830
27011SOL     OW82806   3.522   4.047   7.154
27011SOL    HW182807   3.481   4.116   7.102
27011SOL    HW282808   3.591   4.011   7.097
27012SOL     OW82809   8.708   6.277   6.525
27012SOL    HW182810   8.693   6.184   6.511
27012SOL    HW282811   8.643   6.321   6.471
27013SOL     OW82812  14.865  11.216  10.173
27013SOL    HW182813   0.082  11.229  10.181
27013SOL    HW282814  14.827  11.276  10.237
27014SOL     OW82815  10.724   5.523   8.213
27014SOL    HW182816  10.677   5.467   8.275
27014SOL    HW282817  10.769   5.461   8.155
27015SOL     OW82818  14.761   3.761   7.719
27015SOL    HW182819  14.783   3.757   7.625
27015SOL    HW282820  14.835   3.806   7.759
27016SOL     OW82821  13.835  12.273   8.589
27016SOL    HW182822  13.888  12.195   8.603
27016SOL    HW282823  13.888  12.345   8.624
27017SOL     OW82824  13.842   7.470  13.775
27017SOL    HW182825  13.904   7.474  13.703
27017SOL    HW282826  13.840   7.559  13.810
27018SOL     OW82827   5.787  10.359  14.680
27018SOL    HW182828   5.839  10.286  14.714
27018SOL    HW282829   5.748  10.325  14.599
27019SOL     OW82830   6.106   2.103   6.377
27019SOL    HW182831   6.145   2.189   6.363
27019SOL    HW282832   6.126   2.055   6.296
27020SOL     OW82833   6.823   1.874  12.319
27020SOL    HW182834   6.856   1.934  12.252
27020SOL    HW282835   6.762   1.926  12.370
27021SOL     OW82836   8.709   5.696   6.520
27021SOL    HW182837   8.721   5.773   6.575
27021SOL    HW282838   8.798   5.665   6.503
27022SOL     OW82839   9.457  14.272   0.068
27022SOL    HW182840   9.405  14.195   0.047
27022SOL    HW282841   9.548  14.244   0.054
27023SOL     OW82842   1.402   4.781   4.815
27023SOL    HW182843   1.366   4.865   4.841
27023SOL    HW282844   1.352   4.756   4.737
27024SOL     OW82845   7.791  13.861   2.200
27024SOL    HW182846   7.764  13.777   2.239
27024SOL    HW282847   7.823  13.912   2.274
27025SOL     OW82848   2.281   0.594   0.384
27025SOL    HW182849   2.239   0.648   0.451
27025SOL    HW282850   2.273   0.505   0.416
27026SOL     OW82851   5.390   2.759  13.556
27026SOL    HW182852   5.368   2.786  13.467
27026SOL    HW282853   5.306   2.761  13.602
27027SOL     OW82854   7.019   8.948   6.200
27027SOL    HW182855   7.083   8.978   6.264
27027SOL    HW282856   7.072   8.914   6.127
27028SOL     OW82857  14.480   7.227   8.164
27028SOL    HW182858  14.564   7.258   8.132
27028SOL    HW282859  14.479   7.134   8.141
27029SOL     OW82860  11.996   4.598   6.590
27029SOL    HW182861  12.018   4.641   6.507
27029SOL    HW282862  11.900   4.596   6.590
27030SOL     OW82863   2.298   2.970   4.642
27030SOL    HW182864   2.300   2.920   4.561
27030SOL    HW282865   2.386   3.008   4.649
27031SOL     OW82866  12.711   9.391   2.624
27031SOL    HW182867  12.738   9.302   2.646
27031SOL    HW282868  12.758   9.447   2.686
27032SOL     OW82869  12.923  11.090   3.401
27032SOL    HW182870  12.878  11.011   3.431
27032SOL    HW282871  12.983  11.111   3.473
27033SOL     OW82872   0.871   8.766  10.531
27033SOL    HW182873   0.923   8.840  10.501
27033SOL    HW282874   0.783   8.803  10.544
27034SOL     OW82875  14.601  13.488  12.238
27034SOL    HW182876  14.509  13.476  12.263
27034SOL    HW282877  14.639  13.537  12.311
27035SOL     OW82878   1.637   4.114  11.829
27035SOL    HW182879   1.695   4.046  11.794
27035SOL    HW282880   1.623   4.089  11.920
27036SOL     OW82881  13.321   8.374   9.160
27036SOL    HW182882  13.308   8.349   9.252
27036SOL    HW282883  13.393   8.318   9.130
27037SOL     OW82884   7.090   0.631  13.181
27037SOL    HW182885   7.068   0.638  13.274
27037SOL    HW282886   7.006   0.637  13.136
27038SOL     OW82887   9.839  13.829   4.779
27038SOL    HW182888   9.770  13.770   4.806
27038SOL    HW282889   9.873  13.792   4.698
27039SOL     OW82890   8.238  14.221   9.542
27039SOL    HW182891   8.275  14.134   9.560
27039SOL    HW282892   8.145  14.213   9.562
27040SOL     OW82893  14.782  10.319  13.181
27040SOL    HW182894  14.854  10.264  13.149
27040SOL    HW282895  14.798  10.327  13.275
27041SOL     OW82896  11.240  12.790  12.974
27041SOL    HW182897  11.255  12.727  12.904
27041SOL    HW282898  11.264  12.743  13.054
27042SOL     OW82899   6.548   5.695   3.025
27042SOL    HW182900   6.589   5.750   2.959
27042SOL    HW282901   6.470   5.744   3.052
27043SOL     OW82902   7.167   9.569   4.477
27043SOL    HW182903   7.217   9.603   4.551
27043SOL    HW282904   7.096   9.519   4.517
27044SOL     OW82905   7.171   6.955   7.891
27044SOL    HW182906   7.143   6.894   7.823
27044SOL    HW282907   7.135   7.039   7.864
27045SOL     OW82908   7.231  14.013  11.629
27045SOL    HW182909   7.190  14.098  11.641
27045SOL    HW282910   7.293  14.006  11.701
27046SOL     OW82911  11.344   5.778   5.066
27046SOL    HW182912  11.294   5.854   5.095
27046SOL    HW282913  11.412   5.815   5.008
27047SOL     OW82914  13.686  11.590   3.549
27047SOL    HW182915  13.711  11.583   3.642
27047SOL    HW282916  13.598  11.626   3.551
27048SOL     OW82917   2.400   8.931   6.880
27048SOL    HW182918   2.344   8.992   6.831
27048SOL    HW282919   2.372   8.941   6.971
27049SOL     OW82920   3.844  10.708   4.095
27049SOL    HW182921   3.936  10.705   4.121
27049SOL    HW282922   3.846  10.737   4.004
27050SOL     OW82923   4.644   2.211   4.231
27050SOL    HW182924   4.727   2.184   4.271
27050SOL    HW282925   4.638   2.160   4.151
27051SOL     OW82926   9.990   0.629   3.542
27051SOL    HW182927   9.925   0.639   3.472
27051SOL    HW282928   9.959   0.686   3.612
27052SOL     OW82929   1.805  14.480  11.294
27052SOL    HW182930   1.847  14.512  11.374
27052SOL    HW282931   1.742  14.415  11.325
27053SOL     OW82932   7.591  11.317   1.542
27053SOL    HW182933   7.631  11.379   1.481
27053SOL    HW282934   7.507  11.294   1.503
27054SOL     OW82935  13.383  11.327   8.929
27054SOL    HW182936  13.370  11.233   8.924
27054SOL    HW282937  13.409  11.343   9.020
27055SOL     OW82938  12.864  11.234   9.330
27055SOL    HW182939  12.877  11.236   9.235
27055SOL    HW282940  12.875  11.325   9.358
27056SOL     OW82941   5.180   5.174   7.619
27056SOL    HW182942   5.255   5.116   7.606
27056SOL    HW282943   5.105   5.121   7.591
27057SOL     OW82944   4.405   2.497   3.506
27057SOL    HW182945   4.424   2.558   3.577
27057SOL    HW282946   4.464   2.423   3.522
27058SOL     OW82947   9.877  12.405   2.839
27058SOL    HW182948   9.883  12.493   2.802
27058SOL    HW282949   9.856  12.348   2.764
27059SOL     OW82950   9.734   6.732  11.199
27059SOL    HW182951   9.681   6.670  11.249
27059SOL    HW282952   9.671   6.778  11.144
27060SOL     OW82953   8.973   0.778   3.688
27060SOL    HW182954   8.980   0.792   3.783
27060SOL    HW282955   9.050   0.727   3.666
27061SOL     OW82956   1.135   0.617  11.005
27061SOL    HW182957   1.099   0.663  11.081
27061SOL    HW282958   1.069   0.552  10.983
27062SOL     OW82959   5.070  12.020   4.511
27062SOL    HW182960   5.014  12.089   4.544
27062SOL    HW282961   5.010  11.956   4.472
27063SOL     OW82962  12.385  11.440   6.431
27063SOL    HW182963  12.450  11.376   6.458
27063SOL    HW282964  12.417  11.523   6.467
27064SOL     OW82965   5.411   2.644   4.113
27064SOL    HW182966   5.467   2.588   4.166
27064SOL    HW282967   5.331   2.593   4.099
27065SOL     OW82968   7.207   0.467  12.525
27065SOL    HW182969   7.158   0.534  12.572
27065SOL    HW282970   7.141   0.417  12.477
27066SOL     OW82971  13.428   7.584   2.565
27066SOL    HW182972  13.468   7.653   2.619
27066SOL    HW282973  13.400   7.518   2.628
27067SOL     OW82974   6.982  12.270   8.579
27067SOL    HW182975   6.988  12.187   8.533
27067SOL    HW282976   7.026  12.333   8.522
27068SOL     OW82977   9.951   9.390  12.173
27068SOL    HW182978   9.997   9.329  12.115
27068SOL    HW282979  10.014   9.408  12.243
27069SOL     OW82980   6.632  14.073  13.516
27069SOL    HW182981   6.655  14.063  13.424
27069SOL    HW282982   6.673  13.998  13.560
27070SOL     OW82983   1.239  11.026  12.785
27070SOL    HW182984   1.278  11.051  12.701
27070SOL    HW282985   1.146  11.043  12.774
27071SOL     OW82986   3.489   5.172  10.642
27071SOL    HW182987   3.534   5.242  10.595
27071SOL    HW282988   3.429   5.217  10.701
27072SOL     OW82989  13.188   8.443   7.740
27072SOL    HW182990  13.261   8.473   7.794
27072SOL    HW282991  13.229   8.398   7.667
27073SOL     OW82992   9.204  10.233   2.375
27073SOL    HW182993   9.176  10.186   2.454
27073SOL    HW282994   9.268  10.175   2.334
27074SOL     OW82995   8.847   3.517   2.910
27074SOL    HW182996   8.837   3.613   2.911
27074SOL    HW282997   8.759   3.484   2.927
27075SOL     OW82998  14.397  12.101   7.557
27075SOL    HW182999  14.437  12.015   7.542
27075SOL    HW283000  14.342  12.088   7.634
27076SOL     OW83001  14.604   4.499   7.514
27076SOL    HW183002  14.597   4.405   7.499
27076SOL    HW283003  14.586   4.539   7.429
27077SOL     OW83004   4.956   4.167  14.569
27077SOL    HW183005   4.886   4.188  14.506
27077SOL    HW283006   4.989   4.252  14.597
27078SOL     OW83007   5.744   9.500  13.912
27078SOL    HW183008   5.705   9.482  13.998
27078SOL    HW283009   5.774   9.591  13.919
27079SOL     OW83010   0.829  13.778   5.729
27079SOL    HW183011   0.911  13.743   5.697
27079SOL    HW283012   0.761  13.737   5.676
27080SOL     OW83013   4.367  11.910   7.978
27080SOL    HW183014   4.328  11.912   8.065
27080SOL    HW283015   4.455  11.947   7.991
27081SOL     OW83016   1.404  14.471   1.989
27081SOL    HW183017   1.360  14.401   2.037
27081SOL    HW283018   1.336  14.507   1.932
27082SOL     OW83019  12.407   2.801  13.183
27082SOL    HW183020  12.435   2.796  13.091
27082SOL    HW283021  12.317   2.769  13.182
27083SOL     OW83022   2.238  11.528   4.787
27083SOL    HW183023   2.184  11.541   4.709
27083SOL    HW283024   2.242  11.433   4.799
27084SOL     OW83025  12.130  14.296   0.218
27084SOL    HW183026  12.120  14.207   0.182
27084SOL    HW283027  12.058  14.346   0.178
27085SOL     OW83028   6.987   6.067   8.895
27085SOL    HW183029   6.982   6.162   8.883
27085SOL    HW283030   6.903   6.043   8.935
27086SOL     OW83031   5.773  13.920   3.629
27086SOL    HW183032   5.738  13.929   3.717
27086SOL    HW283033   5.860  13.882   3.641
27087SOL     OW83034   2.874   9.116   2.135
27087SOL    HW183035   2.964   9.131   2.163
27087SOL    HW283036   2.849   9.034   2.178
27088SOL     OW83037   5.743   1.257  14.311
27088SOL    HW183038   5.738   1.285  14.402
27088SOL    HW283039   5.770   1.165  14.315
27089SOL     OW83040   5.623   6.103   8.235
27089SOL    HW183041   5.578   6.183   8.260
27089SOL    HW283042   5.716   6.125   8.242
27090SOL     OW83043  10.556   6.390   9.647
27090SOL    HW183044  10.641   6.431   9.632
27090SOL    HW283045  10.501   6.424   9.576
27091SOL     OW83046  10.583  13.244  11.819
27091SOL    HW183047  10.537  13.177  11.869
27091SOL    HW283048  10.626  13.298  11.884
27092SOL     OW83049  11.498   4.373   1.335
27092SOL    HW183050  11.587   4.365   1.369
27092SOL    HW283051  11.462   4.284   1.344
27093SOL     OW83052  14.788  10.072  13.463
27093SOL    HW183053  14.845  10.065  13.387
27093SOL    HW283054  14.846  10.062  13.538
27094SOL     OW83055  13.823  13.863  14.556
27094SOL    HW183056  13.859  13.779  14.583
27094SOL    HW283057  13.894  13.905  14.507
27095SOL     OW83058  12.239   2.883   6.607
27095SOL    HW183059  12.324   2.927   6.612
27095SOL    HW283060  12.207   2.905   6.519
27096SOL     OW83061   1.109   3.140  12.118
27096SOL    HW183062   1.128   3.233  12.109
27096SOL    HW283063   1.113   3.106  12.028
27097SOL     OW83064  13.033   8.109   2.041
27097SOL    HW183065  12.979   8.068   2.108
27097SOL    HW283066  13.030   8.047   1.967
27098SOL     OW83067   1.328   8.916  10.713
27098SOL    HW183068   1.283   9.001  10.717
27098SOL    HW283069   1.420   8.936  10.730
27099SOL     OW83070  12.145   4.066   6.721
27099SOL    HW183071  12.073   4.003   6.723
27099SOL    HW283072  12.106   4.146   6.685
27100SOL     OW83073  11.216  12.255   7.226
27100SOL    HW183074  11.290  12.196   7.215
27100SOL    HW283075  11.144  12.213   7.178
27101SOL     OW83076   2.790   3.711   3.987
27101SOL    HW183077   2.833   3.726   4.071
27101SOL    HW283078   2.788   3.797   3.945
27102SOL     OW83079   3.421   2.976  11.226
27102SOL    HW183080   3.330   2.980  11.195
27102SOL    HW283081   3.422   3.033  11.303
27103SOL     OW83082   8.528  12.823   8.996
27103SOL    HW183083   8.487  12.756   9.052
27103SOL    HW283084   8.620  12.800   8.994
27104SOL     OW83085   6.239   2.404   7.882
27104SOL    HW183086   6.164   2.396   7.822
27104SOL    HW283087   6.275   2.491   7.865
27105SOL     OW83088   2.800  10.717  11.670
27105SOL    HW183089   2.719  10.749  11.630
27105SOL    HW283090   2.870  10.768  11.628
27106SOL     OW83091   6.296   2.369   2.553
27106SOL    HW183092   6.293   2.274   2.561
27106SOL    HW283093   6.302   2.385   2.458
27107SOL     OW83094  10.541   2.695  13.374
27107SOL    HW183095  10.511   2.776  13.334
27107SOL    HW283096  10.580   2.645  13.302
27108SOL     OW83097   1.324   2.184   7.679
27108SOL    HW183098   1.334   2.175   7.774
27108SOL    HW283099   1.390   2.249   7.654
27109SOL     OW83100  13.011  14.275   9.027
27109SOL    HW183101  13.016  14.291   8.933
27109SOL    HW283102  13.100  14.285   9.059
27110SOL     OW83103   0.218   4.384   5.080
27110SOL    HW183104   0.243   4.313   5.139
27110SOL    HW283105   0.287   4.450   5.093
27111SOL     OW83106  10.872   7.038  12.153
27111SOL    HW183107  10.879   7.118  12.101
27111SOL    HW283108  10.779   7.019  12.155
27112SOL     OW83109   2.693  13.350  11.276
27112SOL    HW183110   2.606  13.330  11.241
27112SOL    HW283111   2.754  13.315  11.210
27113SOL     OW83112  10.882   7.381   7.713
27113SOL    HW183113  10.813   7.334   7.665
27113SOL    HW283114  10.848   7.470   7.723
27114SOL     OW83115  12.716   6.410   4.560
27114SOL    HW183116  12.763   6.327   4.548
27114SOL    HW283117  12.670   6.399   4.644
27115SOL     OW83118  11.099   0.809  12.420
27115SOL    HW183119  11.058   0.848  12.497
27115SOL    HW283120  11.122   0.720  12.447
27116SOL     OW83121  13.153   5.848  10.317
27116SOL    HW183122  13.117   5.936  10.310
27116SOL    HW283123  13.210   5.852  10.395
27117SOL     OW83124  12.371   9.469  11.061
27117SOL    HW183125  12.366   9.376  11.081
27117SOL    HW283126  12.317   9.480  10.982
27118SOL     OW83127   7.892   0.259   1.634
27118SOL    HW183128   7.967   0.203   1.613
27118SOL    HW283129   7.836   0.254   1.556
27119SOL     OW83130  11.353   1.669   2.517
27119SOL    HW183131  11.409   1.599   2.550
27119SOL    HW283132  11.351   1.656   2.422
27120SOL     OW83133   8.428   0.287   0.020
27120SOL    HW183134   8.473   0.238  14.829
27120SOL    HW283135   8.409   0.373  14.858
27121SOL     OW83136   8.558   4.681   0.835
27121SOL    HW183137   8.534   4.722   0.752
27121SOL    HW283138   8.628   4.619   0.813
27122SOL     OW83139   0.599   9.170   6.629
27122SOL    HW183140   0.504   9.180   6.631
27122SOL    HW283141   0.627   9.183   6.719
27123SOL     OW83142  11.483   2.827   0.251
27123SOL    HW183143  11.564   2.790   0.217
27123SOL    HW283144  11.417   2.810   0.183
27124SOL     OW83145   7.099  14.657   1.531
27124SOL    HW183146   7.135  14.655   1.619
27124SOL    HW283147   7.051  14.740   1.526
27125SOL     OW83148  14.423   1.832   9.220
27125SOL    HW183149  14.356   1.900   9.217
27125SOL    HW283150  14.459   1.836   9.308
27126SOL     OW83151  10.878   8.783   7.183
27126SOL    HW183152  10.840   8.746   7.103
27126SOL    HW283153  10.890   8.708   7.241
27127SOL     OW83154   5.977   2.366   6.495
27127SOL    HW183155   5.955   2.275   6.516
27127SOL    HW283156   6.071   2.366   6.482
27128SOL     OW83157  14.527  13.996  11.579
27128SOL    HW183158  14.514  14.047  11.499
27128SOL    HW283159  14.546  13.908  11.549
27129SOL     OW83160   8.349   9.180   9.882
27129SOL    HW183161   8.337   9.096   9.838
27129SOL    HW283162   8.348   9.244   9.810
27130SOL     OW83163  12.708   4.680   1.781
27130SOL    HW183164  12.635   4.699   1.839
27130SOL    HW283165  12.703   4.585   1.766
27131SOL     OW83166  10.715  11.695  11.925
27131SOL    HW183167  10.808  11.674  11.939
27131SOL    HW283168  10.696  11.761  11.991
27132SOL     OW83169  14.857  12.005   3.790
27132SOL    HW183170  14.839  11.918   3.826
27132SOL    HW283171   0.040  11.989   3.718
27133SOL     OW83172   6.933  11.759   3.915
27133SOL    HW183173   6.959  11.848   3.936
27133SOL    HW283174   6.852  11.745   3.965
27134SOL     OW83175  10.721   8.688   4.080
27134SOL    HW183176  10.794   8.751   4.081
27134SOL    HW283177  10.710   8.663   4.172
27135SOL     OW83178  12.000   7.248  10.457
27135SOL    HW183179  11.950   7.316  10.412
27135SOL    HW283180  11.944   7.171  10.452
27136SOL     OW83181  11.621  12.128   3.050
27136SOL    HW183182  11.593  12.039   3.072
27136SOL    HW283183  11.702  12.140   3.099
27137SOL     OW83184  11.667   9.570  14.720
27137SOL    HW183185  11.653   9.566  14.815
27137SOL    HW283186  11.693   9.482  14.695
27138SOL     OW83187   0.959   0.849  11.086
27138SOL    HW183188   1.038   0.903  11.087
27138SOL    HW283189   0.968   0.792  11.163
27139SOL     OW83190   9.683   7.084  10.312
27139SOL    HW183191   9.732   7.060  10.234
27139SOL    HW283192   9.732   7.157  10.349
27140SOL     OW83193   9.347   6.450   3.121
27140SOL    HW183194   9.313   6.525   3.169
27140SOL    HW283195   9.272   6.418   3.071
27141SOL     OW83196  14.539   2.976  14.070
27141SOL    HW183197  14.605   2.910  14.051
27141SOL    HW283198  14.544   2.989  14.165
27142SOL     OW83199   0.391  12.284  11.484
27142SOL    HW183200   0.335  12.300  11.559
27142SOL    HW283201   0.453  12.358  11.484
27143SOL     OW83202   6.582  11.223   3.824
27143SOL    HW183203   6.677  11.217   3.815
27143SOL    HW283204   6.568  11.235   3.918
27144SOL     OW83205   8.396  13.781   9.992
27144SOL    HW183206   8.422  13.695   9.960
27144SOL    HW283207   8.401  13.774  10.087
27145SOL     OW83208   8.928   9.966   1.827
27145SOL    HW183209   8.950  10.009   1.744
27145SOL    HW283210   8.839   9.932   1.814
27146SOL     OW83211   1.900   9.736   0.816
27146SOL    HW183212   1.870   9.784   0.893
27146SOL    HW283213   1.961   9.795   0.773
27147SOL     OW83214   8.627   2.184   0.602
27147SOL    HW183215   8.662   2.199   0.514
27147SOL    HW283216   8.628   2.089   0.613
27148SOL     OW83217  11.829   9.511   6.259
27148SOL    HW183218  11.855   9.435   6.311
27148SOL    HW283219  11.738   9.494   6.235
27149SOL     OW83220   8.201  13.111   6.179
27149SOL    HW183221   8.231  13.122   6.089
27149SOL    HW283222   8.109  13.089   6.171
27150SOL     OW83223   6.832   0.072  14.387
27150SOL    HW183224   6.738   0.055  14.384
27150SOL    HW283225   6.839   0.166  14.402
27151SOL     OW83226   8.244   4.272  13.816
27151SOL    HW183227   8.233   4.312  13.903
27151SOL    HW283228   8.179   4.316  13.761
27152SOL     OW83229  12.317   3.170  12.240
27152SOL    HW183230  12.331   3.249  12.188
27152SOL    HW283231  12.279   3.107  12.179
27153SOL     OW83232   9.618   3.758  10.604
27153SOL    HW183233   9.550   3.736  10.668
27153SOL    HW283234   9.580   3.829  10.552
27154SOL     OW83235   5.316   3.857   5.289
27154SOL    HW183236   5.271   3.815   5.362
27154SOL    HW283237   5.371   3.925   5.330
27155SOL     OW83238   5.419   8.109   1.626
27155SOL    HW183239   5.414   8.201   1.603
27155SOL    HW283240   5.457   8.107   1.714
27156SOL     OW83241   6.797   8.160   5.149
27156SOL    HW183242   6.884   8.199   5.162
27156SOL    HW283243   6.752   8.172   5.232
27157SOL     OW83244   0.306   2.975   2.254
27157SOL    HW183245   0.389   2.941   2.220
27157SOL    HW283246   0.303   2.943   2.344
27158SOL     OW83247   7.364  12.521   9.258
27158SOL    HW183248   7.322  12.466   9.323
27158SOL    HW283249   7.451  12.483   9.246
27159SOL     OW83250   5.347  11.692  11.127
27159SOL    HW183251   5.294  11.697  11.206
27159SOL    HW283252   5.437  11.679  11.158
27160SOL     OW83253  13.861  12.573   7.383
27160SOL    HW183254  13.848  12.667   7.397
27160SOL    HW283255  13.880  12.565   7.289
27161SOL     OW83256  14.559  12.757  12.999
27161SOL    HW183257  14.571  12.810  12.921
27161SOL    HW283258  14.478  12.790  13.039
27162SOL     OW83259   2.412  12.994   0.227
27162SOL    HW183260   2.411  13.081   0.188
27162SOL    HW283261   2.331  12.990   0.279
27163SOL     OW83262  10.948  13.547   7.563
27163SOL    HW183263  10.968  13.497   7.642
27163SOL    HW283264  11.032  13.582   7.534
27164SOL     OW83265  10.313   9.476   4.712
27164SOL    HW183266  10.225   9.471   4.748
27164SOL    HW283267  10.342   9.565   4.731
27165SOL     OW83268   0.731  10.880   1.685
27165SOL    HW183269   0.743  10.798   1.732
27165SOL    HW283270   0.638  10.880   1.661
27166SOL     OW83271  11.509  11.716  10.433
27166SOL    HW183272  11.576  11.657  10.400
27166SOL    HW283273  11.517  11.710  10.529
27167SOL     OW83274   9.516   1.926  14.512
27167SOL    HW183275   9.558   1.875  14.582
27167SOL    HW283276   9.441   1.873  14.485
27168SOL     OW83277   6.636  12.444   8.179
27168SOL    HW183278   6.647  12.537   8.159
27168SOL    HW283279   6.679  12.399   8.107
27169SOL     OW83280  10.419  14.623  13.975
27169SOL    HW183281  10.411  14.568  14.053
27169SOL    HW283282  10.419  14.561  13.902
27170SOL     OW83283   3.127   3.976   2.328
27170SOL    HW183284   3.112   4.066   2.356
27170SOL    HW283285   3.114   3.978   2.233
27171SOL     OW83286   1.628  11.866   5.023
27171SOL    HW183287   1.666  11.790   4.978
27171SOL    HW283288   1.646  11.850   5.116
27172SOL     OW83289   6.048   4.290  14.695
27172SOL    HW183290   6.061   4.196  14.679
27172SOL    HW283291   5.954   4.303  14.684
27173SOL     OW83292   9.079   1.801  10.025
27173SOL    HW183293   9.120   1.825  10.108
27173SOL    HW283294   9.076   1.882   9.975
27174SOL     OW83295   4.237   9.960   9.817
27174SOL    HW183296   4.303   9.891   9.823
27174SOL    HW283297   4.159   9.915   9.785
27175SOL     OW83298  12.301   2.154   9.337
27175SOL    HW183299  12.292   2.249   9.341
27175SOL    HW283300  12.317   2.127   9.427
27176SOL     OW83301   6.495   5.803   9.525
27176SOL    HW183302   6.489   5.787   9.431
27176SOL    HW283303   6.533   5.723   9.561
27177SOL     OW83304  10.153   4.402   8.050
27177SOL    HW183305  10.213   4.448   8.109
27177SOL    HW283306  10.199   4.400   7.966
27178SOL     OW83307  10.441   1.308  10.605
27178SOL    HW183308  10.403   1.263  10.681
27178SOL    HW283309  10.528   1.268  10.595
27179SOL     OW83310   0.899   9.741   4.174
27179SOL    HW183311   0.935   9.702   4.095
27179SOL    HW283312   0.926   9.681   4.245
27180SOL     OW83313   4.404  12.204   4.970
27180SOL    HW183314   4.309  12.191   4.966
27180SOL    HW283315   4.440  12.117   4.985
27181SOL     OW83316   4.667   0.967   2.785
27181SOL    HW183317   4.674   0.874   2.805
27181SOL    HW283318   4.748   0.988   2.740
27182SOL     OW83319   6.800   4.062   3.032
27182SOL    HW183320   6.859   4.137   3.028
27182SOL    HW283321   6.849   3.994   3.079
27183SOL     OW83322   4.460   9.823   4.858
27183SOL    HW183323   4.439   9.828   4.951
27183SOL    HW283324   4.550   9.790   4.856
27184SOL     OW83325   2.228   5.600   1.125
27184SOL    HW183326   2.212   5.618   1.218
27184SOL    HW283327   2.324   5.595   1.118
27185SOL     OW83328  14.170   6.272  13.915
27185SOL    HW183329  14.135   6.183  13.919
27185SOL    HW283330  14.183   6.289  13.821
27186SOL     OW83331  12.182  10.703   0.056
27186SOL    HW183332  12.115  10.728  14.871
27186SOL    HW283333  12.254  10.669   0.002
27187SOL     OW83334   1.951   2.599  13.854
27187SOL    HW183335   1.965   2.578  13.762
27187SOL    HW283336   1.936   2.694  13.855
27188SOL     OW83337   4.824  12.248  12.267
27188SOL    HW183338   4.901  12.276  12.218
27188SOL    HW283339   4.794  12.170  12.221
27189SOL     OW83340   4.321   1.010   6.197
27189SOL    HW183341   4.306   1.101   6.221
27189SOL    HW283342   4.237   0.979   6.162
27190SOL     OW83343  10.784  10.064  10.221
27190SOL    HW183344  10.820  10.002  10.284
27190SOL    HW283345  10.733  10.010  10.161
27191SOL     OW83346   7.825   4.861   7.298
27191SOL    HW183347   7.804   4.939   7.246
27191SOL    HW283348   7.910   4.832   7.264
27192SOL     OW83349   0.335   7.925   1.883
27192SOL    HW183350   0.262   7.866   1.899
27192SOL    HW283351   0.301   7.990   1.821
27193SOL     OW83352   5.209  11.990   5.543
27193SOL    HW183353   5.163  11.920   5.590
27193SOL    HW283354   5.252  11.946   5.470
27194SOL     OW83355   9.384   5.527  11.118
27194SOL    HW183356   9.406   5.617  11.096
27194SOL    HW283357   9.430   5.510  11.200
27195SOL     OW83358   1.884  11.733   6.313
27195SOL    HW183359   1.842  11.695   6.237
27195SOL    HW283360   1.878  11.828   6.300
27196SOL     OW83361  12.858   0.241   7.921
27196SOL    HW183362  12.818   0.302   7.984
27196SOL    HW283363  12.949   0.268   7.915
27197SOL     OW83364   0.260   3.918   9.827
27197SOL    HW183365   0.221   3.975   9.893
27197SOL    HW283366   0.322   3.864   9.876
27198SOL     OW83367   6.797   7.253   6.773
27198SOL    HW183368   6.892   7.252   6.760
27198SOL    HW283369   6.762   7.244   6.684
27199SOL     OW83370   0.663   0.624   4.147
27199SOL    HW183371   0.569   0.635   4.133
27199SOL    HW283372   0.688   0.701   4.198
27200SOL     OW83373   9.766  10.913   5.199
27200SOL    HW183374   9.767  10.971   5.275
27200SOL    HW283375   9.850  10.928   5.156
27201SOL     OW83376   2.970   9.659   1.406
27201SOL    HW183377   3.059   9.627   1.390
27201SOL    HW283378   2.953   9.720   1.334
27202SOL     OW83379  12.372   3.754   3.473
27202SOL    HW183380  12.442   3.819   3.481
27202SOL    HW283381  12.401   3.696   3.402
27203SOL     OW83382  11.274   0.656   6.485
27203SOL    HW183383  11.233   0.709   6.554
27203SOL    HW283384  11.368   0.672   6.496
27204SOL     OW83385   9.594   5.100   2.571
27204SOL    HW183386   9.633   5.042   2.506
27204SOL    HW283387   9.504   5.110   2.543
27205SOL     OW83388   3.981  12.676   7.443
27205SOL    HW183389   3.899  12.627   7.443
27205SOL    HW283390   4.049  12.608   7.443
27206SOL     OW83391   0.259   8.540   9.400
27206SOL    HW183392   0.252   8.557   9.306
27206SOL    HW283393   0.327   8.600   9.430
27207SOL     OW83394   6.012   1.024   1.787
27207SOL    HW183395   6.026   0.930   1.795
27207SOL    HW283396   6.040   1.045   1.698
27208SOL     OW83397  11.794  13.998   2.931
27208SOL    HW183398  11.888  14.009   2.914
27208SOL    HW283399  11.751  14.048   2.861
27209SOL     OW83400   2.969   7.474   8.706
27209SOL    HW183401   2.949   7.518   8.789
27209SOL    HW283402   2.997   7.544   8.648
27210SOL     OW83403   9.704   1.953  10.247
27210SOL    HW183404   9.692   1.988  10.335
27210SOL    HW283405   9.636   1.997  10.195
27211SOL     OW83406   5.179  10.116  10.693
27211SOL    HW183407   5.209  10.030  10.723
27211SOL    HW283408   5.194  10.115  10.598
27212SOL     OW83409   2.161   2.130   6.190
27212SOL    HW183410   2.214   2.167   6.261
27212SOL    HW283411   2.158   2.200   6.124
27213SOL     OW83412  13.047   4.964   4.231
27213SOL    HW183413  13.111   5.029   4.260
27213SOL    HW283414  13.048   4.969   4.136
27214SOL     OW83415   4.822  14.724  14.003
27214SOL    HW183416   4.758  14.700  13.937
27214SOL    HW283417   4.818  14.820  14.006
27215SOL     OW83418   7.270   9.826  10.349
27215SOL    HW183419   7.323   9.843  10.427
27215SOL    HW283420   7.212   9.901  10.343
27216SOL     OW83421  10.303   1.182  10.050
27216SOL    HW183422  10.384   1.141  10.020
27216SOL    HW283423  10.240   1.167   9.980
27217SOL     OW83424   0.521   9.959  13.974
27217SOL    HW183425   0.476  10.035  13.936
27217SOL    HW283426   0.461   9.928  14.042
27218SOL     OW83427  11.037   3.532   5.307
27218SOL    HW183428  11.104   3.471   5.276
27218SOL    HW283429  10.954   3.488   5.287
27219SOL     OW83430   6.588   7.118   3.386
27219SOL    HW183431   6.587   7.177   3.461
27219SOL    HW283432   6.547   7.038   3.418
27220SOL     OW83433   3.497   8.847   3.328
27220SOL    HW183434   3.413   8.840   3.283
27220SOL    HW283435   3.562   8.824   3.261
27221SOL     OW83436  10.867   4.807   8.703
27221SOL    HW183437  10.925   4.733   8.716
27221SOL    HW283438  10.914   4.865   8.643
27222SOL     OW83439   3.183   7.955   5.365
27222SOL    HW183440   3.148   7.866   5.371
27222SOL    HW283441   3.114   8.004   5.320
27223SOL     OW83442   7.217   8.308  13.072
27223SOL    HW183443   7.307   8.332  13.095
27223SOL    HW283444   7.219   8.297  12.977
27224SOL     OW83445  10.760  13.001  13.695
27224SOL    HW183446  10.758  12.905  13.686
27224SOL    HW283447  10.772  13.015  13.789
27225SOL     OW83448   6.051   5.110   9.859
27225SOL    HW183449   6.014   5.029   9.824
27225SOL    HW283450   6.099   5.148   9.785
27226SOL     OW83451   6.058   6.316   3.686
27226SOL    HW183452   5.992   6.260   3.647
27226SOL    HW283453   6.009   6.375   3.743
27227SOL     OW83454   0.863  10.382   4.768
27227SOL    HW183455   0.838  10.387   4.676
27227SOL    HW283456   0.850  10.471   4.801
27228SOL     OW83457   6.732   7.398   5.364
27228SOL    HW183458   6.803   7.341   5.394
27228SOL    HW283459   6.654   7.342   5.364
27229SOL     OW83460   0.554   2.322  10.643
27229SOL    HW183461   0.490   2.259  10.675
27229SOL    HW283462   0.566   2.300  10.551
27230SOL     OW83463   0.481   0.846   1.478
27230SOL    HW183464   0.449   0.921   1.427
27230SOL    HW283465   0.576   0.856   1.479
27231SOL     OW83466  13.711   9.552   9.397
27231SOL    HW183467  13.704   9.467   9.440
27231SOL    HW283468  13.629   9.597   9.418
27232SOL     OW83469   3.790   5.994   5.408
27232SOL    HW183470   3.733   5.921   5.384
27232SOL    HW283471   3.847   6.005   5.332
27233SOL     OW83472   6.525   3.843  13.461
27233SOL    HW183473   6.612   3.848  13.503
27233SOL    HW283474   6.493   3.755  13.483
27234SOL     OW83475   8.777  14.485   8.443
27234SOL    HW183476   8.772  14.449   8.531
27234SOL    HW283477   8.867  14.466   8.414
27235SOL     OW83478   1.774   7.631   8.770
27235SOL    HW183479   1.816   7.649   8.686
27235SOL    HW283480   1.796   7.540   8.789
27236SOL     OW83481   6.021  11.585   6.123
27236SOL    HW183482   6.037  11.652   6.189
27236SOL    HW283483   6.081  11.606   6.051
27237SOL     OW83484  11.498   3.743  12.175
27237SOL    HW183485  11.557   3.711  12.243
27237SOL    HW283486  11.411   3.721  12.206
27238SOL     OW83487  10.052  14.095   9.235
27238SOL    HW183488   9.968  14.138   9.219
27238SOL    HW283489  10.038  14.046   9.316
27239SOL     OW83490   2.607  10.895   9.287
27239SOL    HW183491   2.613  10.931   9.375
27239SOL    HW283492   2.655  10.957   9.232
27240SOL     OW83493   1.855  13.295   4.652
27240SOL    HW183494   1.767  13.332   4.658
27240SOL    HW283495   1.909  13.366   4.617
27241SOL     OW83496   3.881  14.436   9.711
27241SOL    HW183497   3.966  14.391   9.714
27241SOL    HW283498   3.890  14.498   9.638
27242SOL     OW83499  12.370  13.130  14.037
27242SOL    HW183500  12.463  13.149  14.043
27242SOL    HW283501  12.342  13.171  13.955
27243SOL     OW83502   2.602  12.276   3.197
27243SOL    HW183503   2.605  12.319   3.283
27243SOL    HW283504   2.650  12.335   3.139
27244SOL     OW83505   5.956  11.840   9.370
27244SOL    HW183506   6.036  11.803   9.334
27244SOL    HW283507   5.965  11.830   9.465
27245SOL     OW83508  11.785   5.037  11.918
27245SOL    HW183509  11.718   5.052  11.851
27245SOL    HW283510  11.763   4.951  11.954
27246SOL     OW83511   2.707  11.857  14.226
27246SOL    HW183512   2.780  11.919  14.221
27246SOL    HW283513   2.732  11.787  14.165
27247SOL     OW83514   4.280   6.613   0.265
27247SOL    HW183515   4.219   6.544   0.291
27247SOL    HW283516   4.314   6.584   0.181
27248SOL     OW83517   5.211   2.672   3.633
27248SOL    HW183518   5.252   2.606   3.578
27248SOL    HW283519   5.273   2.685   3.705
27249SOL     OW83520   3.562   6.222   8.034
27249SOL    HW183521   3.542   6.314   8.019
27249SOL    HW283522   3.522   6.176   7.960
27250SOL     OW83523  13.215  13.587  11.880
27250SOL    HW183524  13.160  13.551  11.950
27250SOL    HW283525  13.152  13.618  11.815
27251SOL     OW83526   1.028   2.603   1.861
27251SOL    HW183527   0.934   2.620   1.872
27251SOL    HW283528   1.063   2.687   1.830
27252SOL     OW83529   1.861   9.237   7.682
27252SOL    HW183530   1.872   9.236   7.778
27252SOL    HW283531   1.848   9.329   7.660
27253SOL     OW83532   0.544  11.251   5.924
27253SOL    HW183533   0.478  11.319   5.911
27253SOL    HW283534   0.627  11.294   5.905
27254SOL     OW83535   9.678   8.155   8.418
27254SOL    HW183536   9.665   8.088   8.484
27254SOL    HW283537   9.592   8.165   8.377
27255SOL     OW83538   1.202  11.950  11.737
27255SOL    HW183539   1.111  11.972  11.720
27255SOL    HW283540   1.208  11.856  11.721
27256SOL     OW83541   2.585  10.410   4.391
27256SOL    HW183542   2.492  10.394   4.405
27256SOL    HW283543   2.628  10.349   4.451
27257SOL     OW83544  12.913   7.259   6.568
27257SOL    HW183545  12.871   7.344   6.558
27257SOL    HW283546  12.840   7.198   6.581
27258SOL     OW83547  10.524  12.223   6.143
27258SOL    HW183548  10.450  12.174   6.109
27258SOL    HW283549  10.488  12.276   6.214
27259SOL     OW83550   8.748  10.209   8.446
27259SOL    HW183551   8.800  10.267   8.501
27259SOL    HW283552   8.813  10.153   8.402
27260SOL     OW83553   7.685   4.184  12.067
27260SOL    HW183554   7.693   4.089  12.078
27260SOL    HW283555   7.753   4.208  12.004
27261SOL     OW83556   2.664  10.767   9.866
27261SOL    HW183557   2.578  10.807   9.877
27261SOL    HW283558   2.711  10.827   9.807
27262SOL     OW83559  13.179   3.731  10.367
27262SOL    HW183560  13.163   3.701  10.456
27262SOL    HW283561  13.274   3.729  10.358
27263SOL     OW83562   9.487   6.443  14.676
27263SOL    HW183563   9.449   6.530  14.687
27263SOL    HW283564   9.528   6.446  14.590
27264SOL     OW83565  10.067   0.689   0.490
27264SOL    HW183566  10.138   0.740   0.529
27264SOL    HW283567  10.111   0.626   0.432
27265SOL     OW83568   8.507  10.025  12.704
27265SOL    HW183569   8.449  10.080  12.652
27265SOL    HW283570   8.555  10.086  12.760
27266SOL     OW83571   0.170   4.565  12.858
27266SOL    HW183572   0.097   4.542  12.801
27266SOL    HW283573   0.244   4.576  12.799
27267SOL     OW83574   4.075   8.747   6.216
27267SOL    HW183575   4.004   8.724   6.276
27267SOL    HW283576   4.154   8.714   6.258
27268SOL     OW83577   3.700   7.317  13.742
27268SOL    HW183578   3.720   7.408  13.718
27268SOL    HW283579   3.609   7.320  13.773
27269SOL     OW83580   3.701   5.316  14.719
27269SOL    HW183581   3.671   5.407  14.712
27269SOL    HW283582   3.782   5.322  14.770
27270SOL     OW83583   2.702   8.023   7.392
27270SOL    HW183584   2.792   7.992   7.409
27270SOL    HW283585   2.682   8.079   7.467
27271SOL     OW83586  12.119   4.665   3.491
27271SOL    HW183587  12.166   4.722   3.552
27271SOL    HW283588  12.047   4.629   3.542
27272SOL     OW83589   5.538   6.000   3.204
27272SOL    HW183590   5.553   6.090   3.233
27272SOL    HW283591   5.595   5.990   3.127
27273SOL     OW83592  10.868   9.687   1.068
27273SOL    HW183593  10.874   9.609   1.123
27273SOL    HW283594  10.813   9.747   1.118
27274SOL     OW83595   7.219   6.457   1.544
27274SOL    HW183596   7.273   6.474   1.621
27274SOL    HW283597   7.224   6.537   1.492
27275SOL     OW83598   1.352  10.399  12.866
27275SOL    HW183599   1.280  10.388  12.929
27275SOL    HW283600   1.395  10.480  12.893
27276SOL     OW83601  11.876   8.840   9.132
27276SOL    HW183602  11.844   8.869   9.217
27276SOL    HW283603  11.855   8.912   9.073
27277SOL     OW83604  12.077   6.142  12.347
27277SOL    HW183605  12.158   6.123  12.394
27277SOL    HW283606  12.018   6.177  12.413
27278SOL     OW83607   4.077  12.323   0.989
27278SOL    HW183608   4.129  12.249   1.019
27278SOL    HW283609   4.050  12.368   1.069
27279SOL     OW83610   5.294   3.117   9.716
27279SOL    HW183611   5.367   3.063   9.685
27279SOL    HW283612   5.218   3.060   9.712
27280SOL     OW83613   4.874   1.449  11.270
27280SOL    HW183614   4.824   1.465  11.190
27280SOL    HW283615   4.848   1.361  11.297
27281SOL     OW83616   0.461  10.827   9.408
27281SOL    HW183617   0.495  10.901   9.459
27281SOL    HW283618   0.468  10.752   9.468
27282SOL     OW83619   3.829   9.617  12.192
27282SOL    HW183620   3.849   9.618  12.098
27282SOL    HW283621   3.810   9.708  12.213
27283SOL     OW83622   3.746   5.638   0.211
27283SOL    HW183623   3.763   5.602   0.298
27283SOL    HW283624   3.671   5.588   0.178
27284SOL     OW83625  13.032   8.879  12.234
27284SOL    HW183626  12.965   8.944  12.217
27284SOL    HW283627  13.033   8.869  12.330
27285SOL     OW83628   0.433   7.963   7.980
27285SOL    HW183629   0.516   8.006   7.961
27285SOL    HW283630   0.457   7.876   8.013
27286SOL     OW83631   9.390   1.778   7.517
27286SOL    HW183632   9.466   1.833   7.536
27286SOL    HW283633   9.358   1.810   7.433
27287SOL     OW83634   5.117   3.990  12.200
27287SOL    HW183635   5.171   4.069  12.191
27287SOL    HW283636   5.035   4.012  12.155
27288SOL     OW83637  12.663   5.161   0.270
27288SOL    HW183638  12.736   5.175   0.210
27288SOL    HW283639  12.697   5.095   0.332
27289SOL     OW83640   9.190   2.202   2.052
27289SOL    HW183641   9.270   2.167   2.090
27289SOL    HW283642   9.123   2.190   2.119
27290SOL     OW83643   9.402  10.574   9.495
27290SOL    HW183644   9.457  10.601   9.568
27290SOL    HW283645   9.459  10.520   9.440
27291SOL     OW83646   9.706  14.051   8.395
27291SOL    HW183647   9.692  14.134   8.440
27291SOL    HW283648   9.675  13.985   8.457
27292SOL     OW83649   1.361   7.913   5.552
27292SOL    HW183650   1.394   7.823   5.560
27292SOL    HW283651   1.321   7.931   5.637
27293SOL     OW83652   0.579  10.249   4.069
27293SOL    HW183653   0.647  10.233   4.133
27293SOL    HW283654   0.540  10.164   4.053
27294SOL     OW83655  12.069  13.003  14.480
27294SOL    HW183656  12.056  13.095  14.459
27294SOL    HW283657  12.058  12.957  14.396
27295SOL     OW83658   3.014   1.894   1.508
27295SOL    HW183659   3.084   1.912   1.446
27295SOL    HW283660   2.934   1.902   1.456
27296SOL     OW83661  14.271  12.909  13.744
27296SOL    HW183662  14.304  12.823  13.717
27296SOL    HW283663  14.317  12.928  13.826
27297SOL     OW83664  14.304  13.563   4.632
27297SOL    HW183665  14.367  13.504   4.590
27297SOL    HW283666  14.343  13.581   4.717
27298SOL     OW83667   5.421   0.759  10.991
27298SOL    HW183668   5.395   0.767  10.899
27298SOL    HW283669   5.487   0.690  10.992
27299SOL     OW83670   5.401   1.339   3.042
27299SOL    HW183671   5.410   1.251   3.005
27299SOL    HW283672   5.437   1.397   2.975
27300SOL     OW83673   6.105  10.377  11.661
27300SOL    HW183674   6.121  10.302  11.604
27300SOL    HW283675   6.193  10.405  11.689
27301SOL     OW83676   3.374   3.920   4.549
27301SOL    HW183677   3.335   4.001   4.517
27301SOL    HW283678   3.374   3.929   4.644
27302SOL     OW83679   5.014   5.657   1.705
27302SOL    HW183680   5.013   5.571   1.662
27302SOL    HW283681   4.930   5.661   1.751
27303SOL     OW83682   5.714   6.622   4.562
27303SOL    HW183683   5.660   6.547   4.537
27303SOL    HW283684   5.688   6.641   4.652
27304SOL     OW83685  11.965  11.814  10.357
27304SOL    HW183686  11.925  11.769  10.283
27304SOL    HW283687  11.929  11.903  10.353
27305SOL     OW83688   2.289  14.137  11.485
27305SOL    HW183689   2.246  14.058  11.520
27305SOL    HW283690   2.382  14.114  11.482
27306SOL     OW83691   5.540   6.133   2.217
27306SOL    HW183692   5.466   6.157   2.161
27306SOL    HW283693   5.537   6.198   2.288
27307SOL     OW83694   1.828   7.010  13.248
27307SOL    HW183695   1.748   7.041  13.290
27307SOL    HW283696   1.819   7.034  13.156
27308SOL     OW83697   1.814  13.119  13.755
27308SOL    HW183698   1.862  13.100  13.835
27308SOL    HW283699   1.736  13.064  13.759
27309SOL     OW83700  11.824  11.418   1.649
27309SOL    HW183701  11.766  11.420   1.572
27309SOL    HW283702  11.798  11.494   1.701
27310SOL     OW83703   8.186   3.237   4.909
27310SOL    HW183704   8.245   3.163   4.925
27310SOL    HW283705   8.244   3.313   4.908
27311SOL     OW83706   7.434  13.109   3.143
27311SOL    HW183707   7.526  13.102   3.120
27311SOL    HW283708   7.406  13.192   3.104
27312SOL     OW83709   5.429   4.083   9.259
27312SOL    HW183710   5.493   4.015   9.280
27312SOL    HW283711   5.419   4.079   9.164
27313SOL     OW83712  12.195   3.154  12.958
27313SOL    HW183713  12.193   3.069  13.002
27313SOL    HW283714  12.103   3.176  12.945
27314SOL     OW83715   4.851   2.827  11.130
27314SOL    HW183716   4.818   2.744  11.097
27314SOL    HW283717   4.937   2.837  11.089
27315SOL     OW83718   3.998   2.933   9.061
27315SOL    HW183719   4.080   2.887   9.078
27315SOL    HW283720   3.950   2.876   9.001
27316SOL     OW83721   8.446   5.803   7.567
27316SOL    HW183722   8.489   5.732   7.519
27316SOL    HW283723   8.436   5.873   7.503
27317SOL     OW83724   4.537  10.318   0.459
27317SOL    HW183725   4.451  10.360   0.450
27317SOL    HW283726   4.587  10.379   0.514
27318SOL     OW83727   2.781   9.106  11.769
27318SOL    HW183728   2.704   9.080  11.819
27318SOL    HW283729   2.792   9.037  11.704
27319SOL     OW83730   3.435  12.455  13.651
27319SOL    HW183731   3.487  12.442  13.730
27319SOL    HW283732   3.350  12.416  13.673
27320SOL     OW83733   8.248   9.738   5.388
27320SOL    HW183734   8.212   9.668   5.335
27320SOL    HW283735   8.329   9.702   5.425
27321SOL     OW83736   3.780  11.390   9.683
27321SOL    HW183737   3.786  11.294   9.680
27321SOL    HW283738   3.729  11.407   9.763
27322SOL     OW83739   9.786   3.470   4.493
27322SOL    HW183740   9.818   3.422   4.569
27322SOL    HW283741   9.822   3.422   4.418
27323SOL     OW83742  13.886   9.848   8.532
27323SOL    HW183743  13.817   9.800   8.577
27323SOL    HW283744  13.841   9.925   8.495
27324SOL     OW83745   5.222   8.214  14.348
27324SOL    HW183746   5.231   8.156  14.273
27324SOL    HW283747   5.215   8.155  14.423
27325SOL     OW83748  10.263  14.608  10.002
27325SOL    HW183749  10.340  14.623   9.947
27325SOL    HW283750  10.216  14.692  10.002
27326SOL     OW83751   9.791   9.264   8.503
27326SOL    HW183752   9.716   9.205   8.514
27326SOL    HW283753   9.864   9.206   8.480
27327SOL     OW83754   5.514   9.459  12.802
27327SOL    HW183755   5.438   9.415  12.841
27327SOL    HW283756   5.499   9.452  12.707
27328SOL     OW83757   8.777  12.814   2.484
27328SOL    HW183758   8.694  12.804   2.437
27328SOL    HW283759   8.844  12.795   2.419
27329SOL     OW83760   2.238  11.399  14.194
27329SOL    HW183761   2.255  11.388  14.288
27329SOL    HW283762   2.146  11.425  14.190
27330SOL     OW83763  10.591   1.646   8.182
27330SOL    HW183764  10.664   1.676   8.127
27330SOL    HW283765  10.632   1.598   8.253
27331SOL     OW83766  10.608   7.578   2.373
27331SOL    HW183767  10.524   7.546   2.404
27331SOL    HW283768  10.622   7.533   2.290
27332SOL     OW83769   1.977  10.786   1.629
27332SOL    HW183770   1.943  10.701   1.601
27332SOL    HW283771   2.040  10.810   1.562
27333SOL     OW83772  12.474  14.674   3.294
27333SOL    HW183773  12.536  14.607   3.323
27333SOL    HW283774  12.516  14.757   3.316
27334SOL     OW83775   5.127   6.567   2.157
27334SOL    HW183776   5.161   6.606   2.077
27334SOL    HW283777   5.046   6.523   2.130
27335SOL     OW83778   4.188  12.947   4.714
27335SOL    HW183779   4.176  12.952   4.809
27335SOL    HW283780   4.202  13.038   4.687
27336SOL     OW83781   6.154   9.167   4.910
27336SOL    HW183782   6.078   9.177   4.967
27336SOL    HW283783   6.203   9.248   4.921
27337SOL     OW83784   6.076   1.828   4.086
27337SOL    HW183785   6.065   1.831   4.181
27337SOL    HW283786   6.170   1.839   4.072
27338SOL     OW83787  10.065  14.759   7.453
27338SOL    HW183788  10.025  14.672   7.445
27338SOL    HW283789   9.998  14.819   7.419
27339SOL     OW83790  10.935  11.665   0.829
27339SOL    HW183791  10.974  11.604   0.766
27339SOL    HW283792  10.908  11.610   0.903
27340SOL     OW83793   9.738  14.733   8.491
27340SOL    HW183794   9.752  14.696   8.579
27340SOL    HW283795   9.825  14.738   8.452
27341SOL     OW83796  13.724   0.466   0.627
27341SOL    HW183797  13.704   0.418   0.707
27341SOL    HW283798  13.653   0.443   0.567
27342SOL     OW83799   9.490   6.348   2.237
27342SOL    HW183800   9.568   6.362   2.183
27342SOL    HW283801   9.438   6.285   2.188
27343SOL     OW83802   5.546  11.248   2.495
27343SOL    HW183803   5.494  11.319   2.457
27343SOL    HW283804   5.621  11.240   2.436
27344SOL     OW83805   0.345   6.836  12.810
27344SOL    HW183806   0.312   6.750  12.783
27344SOL    HW283807   0.305   6.851  12.896
27345SOL     OW83808   6.581   7.010   9.635
27345SOL    HW183809   6.603   6.918   9.621
27345SOL    HW283810   6.567   7.018   9.729
27346SOL     OW83811  10.569   4.946   2.311
27346SOL    HW183812  10.539   5.037   2.317
27346SOL    HW283813  10.491   4.896   2.288
27347SOL     OW83814  13.578  10.668   9.395
27347SOL    HW183815  13.653  10.608   9.395
27347SOL    HW283816  13.506  10.616   9.432
27348SOL     OW83817  12.500  10.942   2.831
27348SOL    HW183818  12.568  11.001   2.863
27348SOL    HW283819  12.542  10.894   2.759
27349SOL     OW83820  13.196  14.456   3.207
27349SOL    HW183821  13.153  14.414   3.282
27349SOL    HW283822  13.278  14.407   3.197
27350SOL     OW83823  10.502   2.030   3.150
27350SOL    HW183824  10.577   2.073   3.109
27350SOL    HW283825  10.516   2.042   3.244
27351SOL     OW83826  10.683   5.554  13.174
27351SOL    HW183827  10.663   5.521  13.262
27351SOL    HW283828  10.774   5.528  13.158
27352SOL     OW83829  13.635   7.169   3.384
27352SOL    HW183830  13.583   7.138   3.458
27352SOL    HW283831  13.586   7.243   3.348
27353SOL     OW83832   8.324   6.526   4.280
27353SOL    HW183833   8.271   6.551   4.204
27353SOL    HW283834   8.264   6.476   4.335
27354SOL     OW83835  10.762   4.534   1.504
27354SOL    HW183836  10.767   4.624   1.538
27354SOL    HW283837  10.844   4.523   1.456
27355SOL     OW83838   5.213  13.748   6.099
27355SOL    HW183839   5.244  13.741   6.009
27355SOL    HW283840   5.130  13.700   6.099
27356SOL     OW83841  13.139   3.069  10.240
27356SOL    HW183842  13.147   3.097  10.149
27356SOL    HW283843  13.150   3.150  10.290
27357SOL     OW83844   1.478   7.489  10.868
27357SOL    HW183845   1.465   7.566  10.812
27357SOL    HW283846   1.392   7.448  10.873
27358SOL     OW83847  14.477  11.249   4.323
27358SOL    HW183848  14.407  11.224   4.263
27358SOL    HW283849  14.542  11.180   4.315
27359SOL     OW83850   5.059  11.287   0.092
27359SOL    HW183851   5.153  11.303   0.083
27359SOL    HW283852   5.053  11.203   0.136
27360SOL     OW83853   1.916   7.619  10.577
27360SOL    HW183854   1.943   7.538  10.620
27360SOL    HW283855   1.936   7.688  10.641
27361SOL     OW83856   7.888   4.338   3.645
27361SOL    HW183857   7.794   4.353   3.637
27361SOL    HW283858   7.895   4.258   3.696
27362SOL     OW83859  13.146   9.563   6.966
27362SOL    HW183860  13.056   9.531   6.975
27362SOL    HW283861  13.187   9.501   6.906
27363SOL     OW83862   4.856   1.862  12.749
27363SOL    HW183863   4.891   1.773  12.746
27363SOL    HW283864   4.908   1.911  12.685
27364SOL     OW83865  11.647   9.267   2.321
27364SOL    HW183866  11.670   9.188   2.272
27364SOL    HW283867  11.563   9.247   2.361
27365SOL     OW83868   0.831   8.374   9.212
27365SOL    HW183869   0.865   8.413   9.131
27365SOL    HW283870   0.737   8.392   9.210
27366SOL     OW83871   4.583  11.433   9.857
27366SOL    HW183872   4.514  11.461   9.796
27366SOL    HW283873   4.624  11.515   9.886
27367SOL     OW83874  11.996  12.754   4.399
27367SOL    HW183875  12.015  12.674   4.350
27367SOL    HW283876  11.901  12.759   4.402
27368SOL     OW83877  10.137   5.537   7.495
27368SOL    HW183878  10.054   5.560   7.538
27368SOL    HW283879  10.166   5.458   7.541
27369SOL     OW83880  14.143  10.185   6.470
27369SOL    HW183881  14.228  10.231   6.466
27369SOL    HW283882  14.150  10.130   6.548
27370SOL     OW83883   5.280   7.120   9.983
27370SOL    HW183884   5.372   7.128   9.960
27370SOL    HW283885   5.234   7.162   9.910
27371SOL     OW83886   9.628   9.548   6.612
27371SOL    HW183887   9.648   9.486   6.682
27371SOL    HW283888   9.540   9.524   6.584
27372SOL     OW83889  13.390   3.848   7.638
27372SOL    HW183890  13.311   3.809   7.600
27372SOL    HW283891  13.436   3.887   7.563
27373SOL     OW83892   0.198   0.042  12.270
27373SOL    HW183893   0.113   0.002  12.250
27373SOL    HW283894   0.196   0.057  12.364
27374SOL     OW83895  13.819   2.495   0.537
27374SOL    HW183896  13.746   2.555   0.554
27374SOL    HW283897  13.856   2.525   0.454
27375SOL     OW83898  13.155  13.054  14.407
27375SOL    HW183899  13.132  13.141  14.440
27375SOL    HW283900  13.160  13.066  14.312
27376SOL     OW83901  12.232   3.737   2.255
27376SOL    HW183902  12.150   3.692   2.230
27376SOL    HW283903  12.243   3.804   2.188
27377SOL     OW83904   6.940  12.467   8.769
27377SOL    HW183905   6.961  12.397   8.707
27377SOL    HW283906   6.861  12.436   8.814
27378SOL     OW83907   5.862   4.804  10.574
27378SOL    HW183908   5.934   4.749  10.544
27378SOL    HW283909   5.809   4.746  10.630
27379SOL     OW83910   1.312   9.946   8.690
27379SOL    HW183911   1.353   9.866   8.724
27379SOL    HW283912   1.378  10.014   8.705
27380SOL     OW83913   2.527   3.036   7.518
27380SOL    HW183914   2.615   3.073   7.523
27380SOL    HW283915   2.542   2.944   7.494
27381SOL     OW83916  11.796  12.254   0.702
27381SOL    HW183917  11.708  12.287   0.718
27381SOL    HW283918  11.843  12.269   0.784
27382SOL     OW83919   5.576   9.094  10.335
27382SOL    HW183920   5.617   9.016  10.297
27382SOL    HW283921   5.649   9.148  10.363
27383SOL     OW83922  10.297  11.887  10.270
27383SOL    HW183923  10.342  11.970  10.250
27383SOL    HW283924  10.241  11.871  10.193
27384SOL     OW83925  11.346   1.309  13.375
27384SOL    HW183926  11.301   1.316  13.291
27384SOL    HW283927  11.439   1.316  13.353
27385SOL     OW83928   1.945   6.327   8.269
27385SOL    HW183929   1.855   6.343   8.241
27385SOL    HW283930   1.975   6.254   8.214
27386SOL     OW83931  13.492   1.224  14.561
27386SOL    HW183932  13.443   1.223  14.643
27386SOL    HW283933  13.556   1.295  14.572
27387SOL     OW83934  12.284  12.017  11.044
27387SOL    HW183935  12.294  11.962  10.966
27387SOL    HW283936  12.200  11.990  11.082
27388SOL     OW83937  13.284   6.381  12.695
27388SOL    HW183938  13.224   6.433  12.642
27388SOL    HW283939  13.250   6.292  12.690
27389SOL     OW83940   1.963  10.016   7.639
27389SOL    HW183941   2.008  10.075   7.579
27389SOL    HW283942   1.872  10.045   7.638
27390SOL     OW83943   2.263   9.178  11.928
27390SOL    HW183944   2.235   9.193  11.838
27390SOL    HW283945   2.216   9.099  11.955
27391SOL     OW83946   7.998  10.495  12.689
27391SOL    HW183947   7.987  10.551  12.766
27391SOL    HW283948   7.997  10.406  12.723
27392SOL     OW83949   5.522  14.736   7.269
27392SOL    HW183950   5.510  14.663   7.329
27392SOL    HW283951   5.617  14.748   7.265
27393SOL     OW83952   3.510   7.573   0.179
27393SOL    HW183953   3.417   7.584   0.159
27393SOL    HW283954   3.531   7.484   0.149
27394SOL     OW83955   8.525   5.779  13.855
27394SOL    HW183956   8.602   5.754  13.803
27394SOL    HW283957   8.463   5.707  13.841
27395SOL     OW83958  12.565  10.069   2.886
27395SOL    HW183959  12.573  10.147   2.940
27395SOL    HW283960  12.472  10.045   2.892
27396SOL     OW83961   5.803   5.174   1.764
27396SOL    HW183962   5.856   5.136   1.835
27396SOL    HW283963   5.805   5.107   1.695
27397SOL     OW83964   6.625   7.485   6.870
27397SOL    HW183965   6.613   7.505   6.778
27397SOL    HW283966   6.691   7.416   6.871
27398SOL     OW83967   2.384  11.714  12.493
27398SOL    HW183968   2.366  11.734  12.585
27398SOL    HW283969   2.473  11.679  12.494
27399SOL     OW83970  13.386   8.769  13.829
27399SOL    HW183971  13.451   8.764  13.759
27399SOL    HW283972  13.364   8.862  13.836
27400SOL     OW83973   3.599   8.101   6.940
27400SOL    HW183974   3.653   8.175   6.966
27400SOL    HW283975   3.638   8.026   6.985
27401SOL     OW83976   6.837   8.791   1.946
27401SOL    HW183977   6.926   8.772   1.974
27401SOL    HW283978   6.811   8.868   1.997
27402SOL     OW83979   6.500   7.647  13.085
27402SOL    HW183980   6.576   7.677  13.135
27402SOL    HW283981   6.460   7.727  13.053
27403SOL     OW83982   3.091  12.014  11.063
27403SOL    HW183983   3.011  12.024  11.010
27403SOL    HW283984   3.059  11.985  11.148
27404SOL     OW83985   7.891   0.068  12.742
27404SOL    HW183986   7.853   0.146  12.702
27404SOL    HW283987   7.975   0.097  12.777
27405SOL     OW83988   4.219  14.488   5.932
27405SOL    HW183989   4.285  14.554   5.912
27405SOL    HW283990   4.245  14.454   6.018
27406SOL     OW83991   3.927  14.623   3.060
27406SOL    HW183992   3.878  14.618   3.142
27406SOL    HW283993   4.016  14.648   3.087
27407SOL     OW83994   7.367   5.285  10.299
27407SOL    HW183995   7.414   5.277  10.382
27407SOL    HW283996   7.275   5.285  10.324
27408SOL     OW83997   5.631   7.417   6.086
27408SOL    HW183998   5.638   7.471   6.165
27408SOL    HW283999   5.593   7.475   6.020
27409SOL     OW84000   5.068   1.939   6.627
27409SOL    HW184001   5.115   1.909   6.705
27409SOL    HW284002   4.995   1.991   6.662
27410SOL     OW84003  14.371   4.733  13.713
27410SOL    HW184004  14.399   4.762  13.799
27410SOL    HW284005  14.419   4.652  13.698
27411SOL     OW84006  14.293   2.202   6.233
27411SOL    HW184007  14.275   2.121   6.281
27411SOL    HW284008  14.384   2.223   6.255
27412SOL     OW84009   0.111   9.549   2.846
27412SOL    HW184010   0.191   9.501   2.825
27412SOL    HW284011   0.115   9.562   2.941
27413SOL     OW84012   6.794  12.246   0.443
27413SOL    HW184013   6.758  12.331   0.470
27413SOL    HW284014   6.720  12.201   0.401
27414SOL     OW84015   5.876   7.695   4.952
27414SOL    HW184016   5.892   7.601   4.962
27414SOL    HW284017   5.964   7.733   4.942
27415SOL     OW84018  11.159   9.888   5.227
27415SOL    HW184019  11.079   9.836   5.237
27415SOL    HW284020  11.170   9.932   5.311
27416SOL     OW84021  10.321  14.066   8.824
27416SOL    HW184022  10.228  14.046   8.836
27416SOL    HW284023  10.324  14.161   8.813
27417SOL     OW84024   7.584   1.026   5.382
27417SOL    HW184025   7.602   1.049   5.291
27417SOL    HW284026   7.546   0.938   5.378
27418SOL     OW84027  14.645   9.477   4.539
27418SOL    HW184028  14.699   9.514   4.468
27418SOL    HW284029  14.644   9.383   4.520
27419SOL     OW84030  11.945  12.366   4.424
27419SOL    HW184031  11.869  12.423   4.416
27419SOL    HW284032  11.925  12.291   4.368
27420SOL     OW84033  14.119   0.309  11.232
27420SOL    HW184034  14.130   0.398  11.266
27420SOL    HW284035  14.024   0.296  11.229
27421SOL     OW84036   0.930   8.409  11.826
27421SOL    HW184037   0.953   8.501  11.812
27421SOL    HW284038   0.896   8.406  11.915
27422SOL     OW84039  12.597   0.263   9.439
27422SOL    HW184040  12.558   0.304   9.517
27422SOL    HW284041  12.522   0.247   9.381
27423SOL     OW84042  10.083   3.816   9.759
27423SOL    HW184043  10.025   3.877   9.712
27423SOL    HW284044  10.038   3.801   9.842
27424SOL     OW84045  11.681   8.506   3.557
27424SOL    HW184046  11.716   8.583   3.511
27424SOL    HW284047  11.626   8.463   3.492
27425SOL     OW84048   8.823   9.759  14.105
27425SOL    HW184049   8.902   9.710  14.080
27425SOL    HW284050   8.787   9.710  14.179
27426SOL     OW84051   0.497   5.201   9.342
27426SOL    HW184052   0.543   5.117   9.343
27426SOL    HW284053   0.550   5.257   9.285
27427SOL     OW84054   7.043   0.987   6.571
27427SOL    HW184055   6.954   0.950   6.572
27427SOL    HW284056   7.098   0.916   6.538
27428SOL     OW84057  13.804  12.796   7.515
27428SOL    HW184058  13.784  12.745   7.593
27428SOL    HW284059  13.851  12.873   7.547
27429SOL     OW84060  13.670   7.911  12.656
27429SOL    HW184061  13.733   7.940  12.591
27429SOL    HW284062  13.595   7.970  12.645
27430SOL     OW84063   4.014   7.269   4.611
27430SOL    HW184064   4.069   7.201   4.572
27430SOL    HW284065   3.932   7.224   4.631
27431SOL     OW84066   9.220   1.208   2.981
27431SOL    HW184067   9.227   1.242   3.071
27431SOL    HW284068   9.311   1.195   2.954
27432SOL     OW84069  11.520   4.886   2.908
27432SOL    HW184070  11.449   4.821   2.915
27432SOL    HW284071  11.594   4.836   2.874
27433SOL     OW84072   0.268   9.258   6.646
27433SOL    HW184073   0.264   9.307   6.728
27433SOL    HW284074   0.232   9.172   6.667
27434SOL     OW84075   7.019   5.978   7.742
27434SOL    HW184076   6.999   5.943   7.829
27434SOL    HW284077   7.102   5.938   7.719
27435SOL     OW84078   7.147  10.350  10.556
27435SOL    HW184079   7.225  10.317  10.602
27435SOL    HW284080   7.076  10.294  10.588
27436SOL     OW84081   3.187   4.763   0.748
27436SOL    HW184082   3.208   4.722   0.832
27436SOL    HW284083   3.238   4.845   0.748
27437SOL     OW84084   6.806  14.760   6.792
27437SOL    HW184085   6.759  14.704   6.730
27437SOL    HW284086   6.846  14.699   6.853
27438SOL     OW84087  12.934  14.508   1.916
27438SOL    HW184088  12.910  14.417   1.895
27438SOL    HW284089  12.936  14.510   2.012
27439SOL     OW84090  10.041  14.654  14.179
27439SOL    HW184091   9.984  14.579  14.162
27439SOL    HW284092  10.104  14.653  14.107
27440SOL     OW84093  11.655   1.979   0.095
27440SOL    HW184094  11.618   2.060   0.061
27440SOL    HW284095  11.586   1.914   0.084
27441SOL     OW84096   9.442   6.393   5.604
27441SOL    HW184097   9.430   6.477   5.647
27441SOL    HW284098   9.374   6.337   5.641
27442SOL     OW84099  14.816   2.862  13.768
27442SOL    HW184100  14.790   2.952  13.749
27442SOL    HW284101   0.034   2.866  13.774
27443SOL     OW84102   4.185  10.482  10.325
27443SOL    HW184103   4.153  10.403  10.281
27443SOL    HW284104   4.257  10.451  10.381
27444SOL     OW84105   0.373   8.392   2.561
27444SOL    HW184106   0.325   8.455   2.614
27444SOL    HW284107   0.384   8.316   2.618
27445SOL     OW84108   6.771  13.436   5.989
27445SOL    HW184109   6.680  13.452   5.965
27445SOL    HW284110   6.767  13.394   6.075
27446SOL     OW84111   3.589   4.746   2.697
27446SOL    HW184112   3.569   4.659   2.660
27446SOL    HW284113   3.659   4.780   2.640
27447SOL     OW84114   1.913   3.823  11.383
27447SOL    HW184115   1.976   3.800  11.315
27447SOL    HW284116   1.942   3.773  11.460
27448SOL     OW84117   3.311   4.326   7.368
27448SOL    HW184118   3.318   4.422   7.359
27448SOL    HW284119   3.281   4.313   7.458
27449SOL     OW84120   9.883   1.528  10.890
27449SOL    HW184121   9.870   1.437  10.919
27449SOL    HW284122   9.956   1.523  10.828
27450SOL     OW84123   6.574  14.630   2.155
27450SOL    HW184124   6.665  14.609   2.177
27450SOL    HW284125   6.555  14.710   2.204
27451SOL     OW84126   9.444  12.590   2.532
27451SOL    HW184127   9.480  12.623   2.614
27451SOL    HW284128   9.519  12.587   2.472
27452SOL     OW84129  11.149   3.973   9.202
27452SOL    HW184130  11.159   3.975   9.107
27452SOL    HW284131  11.061   3.936   9.216
27453SOL     OW84132   0.339   0.470   2.732
27453SOL    HW184133   0.307   0.523   2.805
27453SOL    HW284134   0.355   0.384   2.770
27454SOL     OW84135  11.886   8.871   0.639
27454SOL    HW184136  11.804   8.823   0.644
27454SOL    HW284137  11.879   8.922   0.558
27455SOL     OW84138   0.104   1.796   4.757
27455SOL    HW184139   0.017   1.785   4.720
27455SOL    HW284140   0.094   1.861   4.826
27456SOL     OW84141   8.235   4.410  14.587
27456SOL    HW184142   8.328   4.390  14.594
27456SOL    HW284143   8.199   4.385  14.672
27457SOL     OW84144   8.324   4.271   3.703
27457SOL    HW184145   8.260   4.292   3.771
27457SOL    HW284146   8.282   4.203   3.650
27458SOL     OW84147   5.042   1.204   4.430
27458SOL    HW184148   5.083   1.174   4.511
27458SOL    HW284149   5.038   1.127   4.374
27459SOL     OW84150  13.162  10.962   1.088
27459SOL    HW184151  13.163  10.874   1.124
27459SOL    HW284152  13.248  10.973   1.050
27460SOL     OW84153   0.831   3.185   5.859
27460SOL    HW184154   0.814   3.138   5.941
27460SOL    HW284155   0.745   3.213   5.829
27461SOL     OW84156  12.042   5.703   9.091
27461SOL    HW184157  11.988   5.686   9.013
27461SOL    HW284158  12.039   5.621   9.140
27462SOL     OW84159   6.764   9.263   1.655
27462SOL    HW184160   6.722   9.218   1.581
27462SOL    HW284161   6.831   9.202   1.685
27463SOL     OW84162   1.774   9.518   1.498
27463SOL    HW184163   1.845   9.475   1.450
27463SOL    HW284164   1.810   9.533   1.586
27464SOL     OW84165  13.310  11.456  12.334
27464SOL    HW184166  13.361  11.439  12.413
27464SOL    HW284167  13.361  11.522  12.287
27465SOL     OW84168   5.324   5.880   8.521
27465SOL    HW184169   5.318   5.896   8.427
27465SOL    HW284170   5.240   5.840   8.544
27466SOL     OW84171   7.493  11.645   2.006
27466SOL    HW184172   7.570  11.625   2.060
27466SOL    HW284173   7.467  11.560   1.970
27467SOL     OW84174  12.097   2.889  12.375
27467SOL    HW184175  12.178   2.890  12.325
27467SOL    HW284176  12.042   2.956  12.334
27468SOL     OW84177  12.093   5.540   0.454
27468SOL    HW184178  12.028   5.477   0.423
27468SOL    HW284179  12.174   5.516   0.408
27469SOL     OW84180  13.200   4.064  11.197
27469SOL    HW184181  13.215   4.109  11.280
27469SOL    HW284182  13.124   4.008  11.212
27470SOL     OW84183   0.299   8.685   8.679
27470SOL    HW184184   0.212   8.648   8.695
27470SOL    HW284185   0.283   8.777   8.661
27471SOL     OW84186   7.708  13.439   9.680
27471SOL    HW184187   7.614  13.455   9.693
27471SOL    HW284188   7.723  13.353   9.721
27472SOL     OW84189   4.555   7.869  12.809
27472SOL    HW184190   4.622   7.802  12.796
27472SOL    HW284191   4.487   7.847  12.745
27473SOL     OW84192   5.825   5.536   5.310
27473SOL    HW184193   5.852   5.535   5.218
27473SOL    HW284194   5.771   5.615   5.317
27474SOL     OW84195  13.165   0.020   8.806
27474SOL    HW184196  13.087   0.070   8.830
27474SOL    HW284197  13.217   0.081   8.754
27475SOL     OW84198  13.315  10.779   1.947
27475SOL    HW184199  13.335  10.809   2.035
27475SOL    HW284200  13.221  10.791   1.938
27476SOL     OW84201   6.551   5.328   0.106
27476SOL    HW184202   6.562   5.242   0.148
27476SOL    HW284203   6.613   5.326   0.034
27477SOL     OW84204  14.638  14.187   8.649
27477SOL    HW184205  14.730  14.195   8.673
27477SOL    HW284206  14.606  14.277   8.646
27478SOL     OW84207   1.499   4.667   3.376
27478SOL    HW184208   1.442   4.701   3.444
27478SOL    HW284209   1.447   4.673   3.296
27479SOL     OW84210   5.400   5.029   5.950
27479SOL    HW184211   5.459   5.105   5.945
27479SOL    HW284212   5.330   5.048   5.888
27480SOL     OW84213  14.603  13.471   9.021
27480SOL    HW184214  14.632  13.400   9.077
27480SOL    HW284215  14.516  13.445   8.990
27481SOL     OW84216   2.498  10.463   5.888
27481SOL    HW184217   2.458  10.377   5.903
27481SOL    HW284218   2.446  10.522   5.943
27482SOL     OW84219   3.343   7.369   0.769
27482SOL    HW184220   3.405   7.407   0.707
27482SOL    HW284221   3.299   7.300   0.720
27483SOL     OW84222   7.523   2.049  10.511
27483SOL    HW184223   7.510   2.140  10.538
27483SOL    HW284224   7.514   2.052  10.415
27484SOL     OW84225   7.189  13.107   9.811
27484SOL    HW184226   7.251  13.136   9.878
27484SOL    HW284227   7.196  13.011   9.813
27485SOL     OW84228  13.388   4.403   4.610
27485SOL    HW184229  13.324   4.470   4.635
27485SOL    HW284230  13.454   4.405   4.679
27486SOL     OW84231  13.111   4.218   5.525
27486SOL    HW184232  13.055   4.170   5.464
27486SOL    HW284233  13.054   4.285   5.562
27487SOL     OW84234  14.388   3.725   2.617
27487SOL    HW184235  14.459   3.683   2.568
27487SOL    HW284236  14.395   3.689   2.705
27488SOL     OW84237   9.698   0.673   4.569
27488SOL    HW184238   9.605   0.654   4.556
27488SOL    HW284239   9.726   0.711   4.486
27489SOL     OW84240  10.358   6.415   8.823
27489SOL    HW184241  10.385   6.496   8.866
27489SOL    HW284242  10.264   6.424   8.810
27490SOL     OW84243   2.910   9.308   9.775
27490SOL    HW184244   2.953   9.381   9.821
27490SOL    HW284245   2.969   9.234   9.788
27491SOL     OW84246   3.910  11.315  13.357
27491SOL    HW184247   3.997  11.288  13.385
27491SOL    HW284248   3.917  11.327  13.262
27492SOL     OW84249   3.047   4.018  11.334
27492SOL    HW184250   3.102   3.992  11.260
27492SOL    HW284251   3.083   4.102  11.363
27493SOL     OW84252   8.558  10.586  11.177
27493SOL    HW184253   8.600  10.668  11.149
27493SOL    HW284254   8.570  10.585  11.272
27494SOL     OW84255   9.195   3.906  12.807
27494SOL    HW184256   9.218   3.920  12.899
27494SOL    HW284257   9.245   3.971  12.760
27495SOL     OW84258   7.972   4.960  14.206
27495SOL    HW184259   8.011   5.000  14.127
27495SOL    HW284260   7.878   4.973  14.195
27496SOL     OW84261   6.139   7.929   6.875
27496SOL    HW184262   6.211   7.872   6.848
27496SOL    HW284263   6.141   7.927   6.971
27497SOL     OW84264  14.665   4.344   1.426
27497SOL    HW184265  14.646   4.308   1.339
27497SOL    HW284266  14.705   4.272   1.474
27498SOL     OW84267   8.236   7.943   8.727
27498SOL    HW184268   8.279   7.939   8.812
27498SOL    HW284269   8.307   7.935   8.663
27499SOL     OW84270   3.494   5.674  10.713
27499SOL    HW184271   3.437   5.637  10.781
27499SOL    HW284272   3.459   5.638  10.631
27500SOL     OW84273   4.228   4.744   3.911
27500SOL    HW184274   4.265   4.724   3.825
27500SOL    HW284275   4.265   4.829   3.934
27501SOL     OW84276   4.207  13.905  13.604
27501SOL    HW184277   4.218  13.982  13.660
27501SOL    HW284278   4.171  13.940  13.522
27502SOL     OW84279   4.877   5.323   2.986
27502SOL    HW184280   4.817   5.281   3.048
27502SOL    HW284281   4.869   5.417   3.003
27503SOL     OW84282   2.088   5.130   0.548
27503SOL    HW184283   2.020   5.153   0.484
27503SOL    HW284284   2.042   5.133   0.633
27504SOL     OW84285   9.074  10.413   7.025
27504SOL    HW184286   9.124  10.395   7.104
27504SOL    HW284287   8.986  10.378   7.043
27505SOL     OW84288  14.407  10.465   1.599
27505SOL    HW184289  14.443  10.480   1.686
27505SOL    HW284290  14.333  10.406   1.614
27506SOL     OW84291   3.896   3.364   7.072
27506SOL    HW184292   3.900   3.347   6.978
27506SOL    HW284293   3.899   3.459   7.080
27507SOL     OW84294   6.035   9.878   0.693
27507SOL    HW184295   5.968   9.811   0.704
27507SOL    HW284296   6.003   9.932   0.620
27508SOL     OW84297  11.230   7.901  10.292
27508SOL    HW184298  11.168   7.906  10.220
27508SOL    HW284299  11.241   7.808  10.309
27509SOL     OW84300  12.635  10.304   3.041
27509SOL    HW184301  12.695  10.305   3.116
27509SOL    HW284302  12.557  10.350   3.072
27510SOL     OW84303   9.609  11.350   3.928
27510SOL    HW184304   9.647  11.437   3.921
27510SOL    HW284305   9.547  11.356   4.001
27511SOL     OW84306   0.767  10.088  13.246
27511SOL    HW184307   0.823  10.015  13.272
27511SOL    HW284308   0.787  10.102  13.153
27512SOL     OW84309   1.827   9.548   2.962
27512SOL    HW184310   1.909   9.596   2.976
27512SOL    HW284311   1.855   9.460   2.938
27513SOL     OW84312  13.201   7.624   5.006
27513SOL    HW184313  13.218   7.619   5.100
27513SOL    HW284314  13.272   7.679   4.972
27514SOL     OW84315  13.050   7.736  12.885
27514SOL    HW184316  13.104   7.791  12.827
27514SOL    HW284317  13.092   7.650  12.882
27515SOL     OW84318  13.845   5.478   9.503
27515SOL    HW184319  13.870   5.465   9.595
27515SOL    HW284320  13.752   5.498   9.506
27516SOL     OW84321   1.208  13.336  11.715
27516SOL    HW184322   1.279  13.277  11.739
27516SOL    HW284323   1.225  13.416  11.765
27517SOL     OW84324   1.587   9.570  11.658
27517SOL    HW184325   1.525   9.622  11.606
27517SOL    HW284326   1.664   9.627  11.668
27518SOL     OW84327  13.958   6.627   3.466
27518SOL    HW184328  14.021   6.564   3.501
27518SOL    HW284329  13.958   6.699   3.528
27519SOL     OW84330   8.271   3.537   0.125
27519SOL    HW184331   8.343   3.497   0.175
27519SOL    HW284332   8.287   3.510   0.034
27520SOL     OW84333   5.495   5.200  14.699
27520SOL    HW184334   5.577   5.244  14.675
27520SOL    HW284335   5.514   5.161  14.785
27521SOL     OW84336   1.948   6.385   6.854
27521SOL    HW184337   1.985   6.471   6.875
27521SOL    HW284338   1.994   6.358   6.775
27522SOL     OW84339   3.902   5.219   9.803
27522SOL    HW184340   3.971   5.158   9.775
27522SOL    HW284341   3.831   5.162   9.835
27523SOL     OW84342   4.371   9.085   6.233
27523SOL    HW184343   4.361   9.178   6.213
27523SOL    HW284344   4.285   9.046   6.215
27524SOL     OW84345   1.352   7.870   5.271
27524SOL    HW184346   1.362   7.888   5.365
27524SOL    HW284347   1.356   7.775   5.264
27525SOL     OW84348   4.623   9.567   7.684
27525SOL    HW184349   4.639   9.539   7.774
27525SOL    HW284350   4.711   9.583   7.648
27526SOL     OW84351   3.033   6.721   5.207
27526SOL    HW184352   3.059   6.813   5.216
27526SOL    HW284353   3.107   6.679   5.163
27527SOL     OW84354   5.324   7.896  12.823
27527SOL    HW184355   5.417   7.874  12.828
27527SOL    HW284356   5.320   7.989  12.843
27528SOL     OW84357   9.617  13.631  12.404
27528SOL    HW184358   9.590  13.711  12.359
27528SOL    HW284359   9.612  13.563  12.336
27529SOL     OW84360   8.530   5.242   6.849
27529SOL    HW184361   8.564   5.258   6.937
27529SOL    HW284362   8.569   5.159   6.823
27530SOL     OW84363  11.031   4.693  13.942
27530SOL    HW184364  11.108   4.694  13.884
27530SOL    HW284365  10.960   4.663  13.886
27531SOL     OW84366   6.227  11.191   1.559
27531SOL    HW184367   6.171  11.243   1.502
27531SOL    HW284368   6.193  11.102   1.552
27532SOL     OW84369   1.689   0.564  13.199
27532SOL    HW184370   1.690   0.490  13.260
27532SOL    HW284371   1.759   0.544  13.136
27533SOL     OW84372   3.903  13.695   4.874
27533SOL    HW184373   3.896  13.616   4.822
27533SOL    HW284374   3.883  13.767   4.813
27534SOL     OW84375  10.129   3.452  14.193
27534SOL    HW184376  10.065   3.382  14.180
27534SOL    HW284377  10.155   3.445  14.284
27535SOL     OW84378   0.600  11.058  11.130
27535SOL    HW184379   0.615  11.114  11.054
27535SOL    HW284380   0.526  11.002  11.104
27536SOL     OW84381   1.958  10.923  13.672
27536SOL    HW184382   1.998  10.885  13.751
27536SOL    HW284383   1.864  10.909  13.684
27537SOL     OW84384   9.983   0.159   4.561
27537SOL    HW184385   9.930   0.123   4.632
27537SOL    HW284386  10.049   0.091   4.544
27538SOL     OW84387  14.497  14.832  11.544
27538SOL    HW184388  14.412  14.876  11.546
27538SOL    HW284389  14.536  14.853  11.629
27539SOL     OW84390   1.305  13.204  12.333
27539SOL    HW184391   1.378  13.215  12.395
27539SOL    HW284392   1.303  13.110  12.315
27540SOL     OW84393  11.674   5.565   8.876
27540SOL    HW184394  11.767   5.546   8.883
27540SOL    HW284395  11.663   5.648   8.923
27541SOL     OW84396   1.433  11.620  13.488
27541SOL    HW184397   1.476  11.563  13.424
27541SOL    HW284398   1.344  11.630  13.454
27542SOL     OW84399   2.552   8.124   8.008
27542SOL    HW184400   2.601   8.196   7.969
27542SOL    HW284401   2.484   8.167   8.060
27543SOL     OW84402   8.920   1.420  12.364
27543SOL    HW184403   8.951   1.333  12.339
27543SOL    HW284404   8.958   1.479  12.299
27544SOL     OW84405  13.806   8.918   4.894
27544SOL    HW184406  13.792   8.967   4.814
27544SOL    HW284407  13.901   8.911   4.903
27545SOL     OW84408   8.149   3.566   3.303
27545SOL    HW184409   8.152   3.533   3.393
27545SOL    HW284410   8.088   3.640   3.306
27546SOL     OW84411   0.851   6.279  11.935
27546SOL    HW184412   0.913   6.211  11.908
27546SOL    HW284413   0.842   6.266  12.030
27547SOL     OW84414   4.820  13.511   2.988
27547SOL    HW184415   4.742  13.475   3.030
27547SOL    HW284416   4.873  13.543   3.061
27548SOL     OW84417   5.793   3.300   4.544
27548SOL    HW184418   5.774   3.313   4.451
27548SOL    HW284419   5.710   3.269   4.582
27549SOL     OW84420   9.309   9.385   2.827
27549SOL    HW184421   9.263   9.380   2.911
27549SOL    HW284422   9.271   9.460   2.783
27550SOL     OW84423  11.020   0.657  12.008
27550SOL    HW184424  10.978   0.740  11.985
27550SOL    HW284425  11.072   0.677  12.085
27551SOL     OW84426  11.235   7.101   4.510
27551SOL    HW184427  11.323   7.121   4.541
27551SOL    HW284428  11.239   7.008   4.488
27552SOL     OW84429  14.741   8.462   5.348
27552SOL    HW184430  14.708   8.376   5.375
27552SOL    HW284431  14.666   8.520   5.354
27553SOL     OW84432   0.512  14.807   3.356
27553SOL    HW184433   0.447  14.864   3.314
27553SOL    HW284434   0.558  14.764   3.284
27554SOL     OW84435   6.976   2.112   2.404
27554SOL    HW184436   6.970   2.074   2.317
27554SOL    HW284437   6.891   2.096   2.444
27555SOL     OW84438  10.753  11.519  13.941
27555SOL    HW184439  10.743  11.425  13.953
27555SOL    HW284440  10.772  11.553  14.029
27556SOL     OW84441   2.734   9.047   0.887
27556SOL    HW184442   2.796   8.997   0.834
27556SOL    HW284443   2.773   9.047   0.975
27557SOL     OW84444  12.657  14.319   1.637
27557SOL    HW184445  12.646  14.241   1.692
27557SOL    HW284446  12.751  14.325   1.623
27558SOL     OW84447   0.031  12.255  11.073
27558SOL    HW184448   0.097  12.240  11.141
27558SOL    HW284449   0.001  12.344  11.088
27559SOL     OW84450   8.085  14.683   9.537
27559SOL    HW184451   8.171  14.709   9.506
27559SOL    HW284452   8.038  14.655   9.459
27560SOL     OW84453   6.517   2.794  11.595
27560SOL    HW184454   6.498   2.750  11.512
27560SOL    HW284455   6.547   2.724  11.653
27561SOL     OW84456   2.427  10.703   2.840
27561SOL    HW184457   2.345  10.669   2.875
27561SOL    HW284458   2.446  10.780   2.895
27562SOL     OW84459   0.124  10.904   6.584
27562SOL    HW184460   0.180  10.930   6.510
27562SOL    HW284461   0.036  10.902   6.547
27563SOL     OW84462   4.114   6.689   9.712
27563SOL    HW184463   4.169   6.754   9.755
27563SOL    HW284464   4.115   6.613   9.770
27564SOL     OW84465   2.130  10.797   2.620
27564SOL    HW184466   2.176  10.876   2.648
27564SOL    HW284467   2.195  10.747   2.571
27565SOL     OW84468   5.033  14.290   0.758
27565SOL    HW184469   5.086  14.369   0.769
27565SOL    HW284470   4.949  14.322   0.724
27566SOL     OW84471  14.383  12.456  14.607
27566SOL    HW184472  14.470  12.416  14.604
27566SOL    HW284473  14.352  12.441  14.697
27567SOL     OW84474   4.486   8.751  10.549
27567SOL    HW184475   4.475   8.703  10.467
27567SOL    HW284476   4.549   8.699  10.598
27568SOL     OW84477  12.178   0.230   2.335
27568SOL    HW184478  12.206   0.207   2.246
27568SOL    HW284479  12.167   0.325   2.333
27569SOL     OW84480   7.339  13.118  13.325
27569SOL    HW184481   7.277  13.047  13.343
27569SOL    HW284482   7.423  13.074  13.314
27570SOL     OW84483   6.060   7.474   5.647
27570SOL    HW184484   6.033   7.383   5.660
27570SOL    HW284485   6.144   7.467   5.601
27571SOL     OW84486   0.938  13.874  10.227
27571SOL    HW184487   0.888  13.823  10.290
27571SOL    HW284488   0.873  13.914  10.170
27572SOL     OW84489  10.934  10.690  11.424
27572SOL    HW184490  10.907  10.601  11.400
27572SOL    HW284491  11.024  10.697  11.394
27573SOL     OW84492   3.092   3.408   6.645
27573SOL    HW184493   3.110   3.409   6.739
27573SOL    HW284494   3.175   3.433   6.605
27574SOL     OW84495   9.749   3.095   7.611
27574SOL    HW184496   9.802   3.038   7.556
27574SOL    HW284497   9.659   3.075   7.586
27575SOL     OW84498  12.987   6.356  12.802
27575SOL    HW184499  12.921   6.425  12.797
27575SOL    HW284500  12.998   6.326  12.712
27576SOL     OW84501   8.913  13.121   3.980
27576SOL    HW184502   8.938  13.165   3.898
27576SOL    HW284503   8.901  13.192   4.042
27577SOL     OW84504   6.640  12.606   8.770
27577SOL    HW184505   6.595  12.683   8.736
27577SOL    HW284506   6.620  12.536   8.708
27578SOL     OW84507   7.226   2.574   9.067
27578SOL    HW184508   7.139   2.539   9.083
27578SOL    HW284509   7.268   2.575   9.153
27579SOL     OW84510   8.001   7.464  11.672
27579SOL    HW184511   8.051   7.450  11.591
27579SOL    HW284512   7.913   7.431  11.652
27580SOL     OW84513  10.287   0.774   0.778
27580SOL    HW184514  10.305   0.843   0.842
27580SOL    HW284515  10.325   0.695   0.817
27581SOL     OW84516  13.368  10.583   1.407
27581SOL    HW184517  13.368  10.533   1.326
27581SOL    HW284518  13.350  10.518   1.475
27582SOL     OW84519   9.735   3.256  10.044
27582SOL    HW184520   9.660   3.312  10.025
27582SOL    HW284521   9.785   3.303  10.111
27583SOL     OW84522  13.226   1.127  11.084
27583SOL    HW184523  13.243   1.169  11.168
27583SOL    HW284524  13.309   1.134  11.036
27584SOL     OW84525   1.582   9.123  10.272
27584SOL    HW184526   1.644   9.124  10.199
27584SOL    HW284527   1.549   9.033  10.274
27585SOL     OW84528   6.733  11.246  12.117
27585SOL    HW184529   6.659  11.252  12.056
27585SOL    HW284530   6.693  11.225  12.201
27586SOL     OW84531  12.707   4.515  13.007
27586SOL    HW184532  12.740   4.442  12.955
27586SOL    HW284533  12.780   4.538  13.065
27587SOL     OW84534   1.446   5.296   8.302
27587SOL    HW184535   1.351   5.283   8.296
27587SOL    HW284536   1.480   5.262   8.220
27588SOL     OW84537  12.724   8.003   8.277
27588SOL    HW184538  12.809   8.031   8.242
27588SOL    HW284539  12.677   8.084   8.294
27589SOL     OW84540   5.734   4.259   0.214
27589SOL    HW184541   5.651   4.306   0.223
27589SOL    HW284542   5.779   4.274   0.297
27590SOL     OW84543   4.397   5.709  11.848
27590SOL    HW184544   4.384   5.616  11.829
27590SOL    HW284545   4.334   5.754  11.791
27591SOL     OW84546   9.735   6.099  12.593
27591SOL    HW184547   9.702   6.189  12.597
27591SOL    HW284548   9.826   6.108  12.564
27592SOL     OW84549   1.968  14.717  10.917
27592SOL    HW184550   1.882  14.683  10.940
27592SOL    HW284551   1.980  14.793  10.974
27593SOL     OW84552   4.841  11.016  12.527
27593SOL    HW184553   4.897  10.941  12.507
27593SOL    HW284554   4.863  11.080  12.460
27594SOL     OW84555   3.465   4.945  11.687
27594SOL    HW184556   3.394   4.887  11.659
27594SOL    HW284557   3.508   4.972  11.606
27595SOL     OW84558  12.319   6.707   5.553
27595SOL    HW184559  12.229   6.676   5.541
27595SOL    HW284560  12.320   6.794   5.513
27596SOL     OW84561   4.460  12.645   1.760
27596SOL    HW184562   4.409  12.699   1.700
27596SOL    HW284563   4.397  12.584   1.798
27597SOL     OW84564  14.250   3.092   6.745
27597SOL    HW184565  14.297   3.156   6.797
27597SOL    HW284566  14.159   3.100   6.773
27598SOL     OW84567   8.318   2.365   6.596
27598SOL    HW184568   8.331   2.319   6.678
27598SOL    HW284569   8.386   2.433   6.595
27599SOL     OW84570   4.997   0.349   5.321
27599SOL    HW184571   5.066   0.412   5.300
27599SOL    HW284572   5.015   0.273   5.266
27600SOL     OW84573   1.135  10.909  13.703
27600SOL    HW184574   1.191  10.986  13.693
27600SOL    HW284575   1.142  10.863  13.619
27601SOL     OW84576   4.114   9.268  10.354
27601SOL    HW184577   4.045   9.231  10.300
27601SOL    HW284578   4.070   9.331  10.410
27602SOL     OW84579   4.690   1.945   5.870
27602SOL    HW184580   4.630   1.878   5.901
27602SOL    HW284581   4.634   2.014   5.834
27603SOL     OW84582   3.956   0.506   8.638
27603SOL    HW184583   3.988   0.499   8.728
27603SOL    HW284584   3.862   0.520   8.647
27604SOL     OW84585   7.920   5.549  11.613
27604SOL    HW184586   8.010   5.580  11.615
27604SOL    HW284587   7.901   5.526  11.704
27605SOL     OW84588  11.505  11.911  11.997
27605SOL    HW184589  11.556  11.854  12.054
27605SOL    HW284590  11.565  11.982  11.974
27606SOL     OW84591   1.770   2.113   3.591
27606SOL    HW184592   1.756   2.104   3.685
27606SOL    HW284593   1.705   2.177   3.562
27607SOL     OW84594   4.107   7.317   2.214
27607SOL    HW184595   4.132   7.233   2.176
27607SOL    HW284596   4.174   7.334   2.280
27608SOL     OW84597   3.309   2.312   3.346
27608SOL    HW184598   3.287   2.239   3.288
27608SOL    HW284599   3.363   2.370   3.292
27609SOL     OW84600   7.295   9.503  14.696
27609SOL    HW184601   7.389   9.507  14.677
27609SOL    HW284602   7.261   9.436  14.637
27610SOL     OW84603   9.486   6.009   2.463
27610SOL    HW184604   9.532   5.970   2.537
27610SOL    HW284605   9.527   6.095   2.452
27611SOL     OW84606   1.385  14.113  11.470
27611SOL    HW184607   1.471  14.086  11.502
27611SOL    HW284608   1.338  14.141  11.549
27612SOL     OW84609   9.561  14.550   3.675
27612SOL    HW184610   9.652  14.548   3.706
27612SOL    HW284611   9.510  14.523   3.751
27613SOL     OW84612   1.782  10.717   9.228
27613SOL    HW184613   1.800  10.753   9.315
27613SOL    HW284614   1.835  10.637   9.224
27614SOL     OW84615   7.788   8.417   4.959
27614SOL    HW184616   7.815   8.445   4.872
27614SOL    HW284617   7.845   8.466   5.019
27615SOL     OW84618  12.348   6.380  10.324
27615SOL    HW184619  12.333   6.312  10.259
27615SOL    HW284620  12.398   6.336  10.394
27616SOL     OW84621   9.980   1.867   5.499
27616SOL    HW184622  10.023   1.934   5.446
27616SOL    HW284623  10.052   1.812   5.531
27617SOL     OW84624   5.282   7.496   6.306
27617SOL    HW184625   5.277   7.407   6.273
27617SOL    HW284626   5.303   7.549   6.229
27618SOL     OW84627   4.804  13.342   9.969
27618SOL    HW184628   4.777  13.254   9.992
27618SOL    HW284629   4.833  13.335   9.878
27619SOL     OW84630  12.344   5.065   6.245
27619SOL    HW184631  12.352   5.000   6.176
27619SOL    HW284632  12.320   5.016   6.323
27620SOL     OW84633   5.409   1.224   3.743
27620SOL    HW184634   5.473   1.285   3.781
27620SOL    HW284635   5.344   1.211   3.812
27621SOL     OW84636   4.314  12.150  12.005
27621SOL    HW184637   4.369  12.128  11.930
27621SOL    HW284638   4.339  12.088  12.073
27622SOL     OW84639   5.785   9.314   7.853
27622SOL    HW184640   5.804   9.379   7.784
27622SOL    HW284641   5.868   9.267   7.863
27623SOL     OW84642   4.081   0.800   4.547
27623SOL    HW184643   4.098   0.723   4.493
27623SOL    HW284644   4.072   0.766   4.636
27624SOL     OW84645  10.652   5.635   3.440
27624SOL    HW184646  10.711   5.646   3.515
27624SOL    HW284647  10.627   5.723   3.416
27625SOL     OW84648   4.185   0.947   1.842
27625SOL    HW184649   4.133   0.985   1.772
27625SOL    HW284650   4.272   0.985   1.831
27626SOL     OW84651  12.755   9.728  12.282
27626SOL    HW184652  12.825   9.765  12.229
27626SOL    HW284653  12.686   9.707  12.219
27627SOL     OW84654   8.633  13.099   8.162
27627SOL    HW184655   8.695  13.026   8.159
27627SOL    HW284656   8.554  13.066   8.120
27628SOL     OW84657   1.890  10.521   0.545
27628SOL    HW184658   1.968  10.484   0.504
27628SOL    HW284659   1.920  10.550   0.631
27629SOL     OW84660  12.016   4.877  14.170
27629SOL    HW184661  12.093   4.827  14.199
27629SOL    HW284662  11.942   4.829  14.208
27630SOL     OW84663  13.590   1.217   2.892
27630SOL    HW184664  13.512   1.174   2.857
27630SOL    HW284665  13.560   1.303   2.920
27631SOL     OW84666   7.711   2.430   8.816
27631SOL    HW184667   7.744   2.466   8.733
27631SOL    HW284668   7.617   2.448   8.815
27632SOL     OW84669  13.370   4.326   8.154
27632SOL    HW184670  13.423   4.345   8.232
27632SOL    HW284671  13.435   4.307   8.086
27633SOL     OW84672   8.124  11.614   6.446
27633SOL    HW184673   8.102  11.700   6.410
27633SOL    HW284674   8.191  11.633   6.512
27634SOL     OW84675   1.605  12.519   0.497
27634SOL    HW184676   1.618  12.609   0.466
27634SOL    HW284677   1.510  12.512   0.512
27635SOL     OW84678  12.440   9.235   7.577
27635SOL    HW184679  12.404   9.281   7.653
27635SOL    HW284680  12.487   9.160   7.614
27636SOL     OW84681   4.979  10.745   9.505
27636SOL    HW184682   5.031  10.825   9.496
27636SOL    HW284683   4.918  10.748   9.431
27637SOL     OW84684   7.157  11.101  13.239
27637SOL    HW184685   7.095  11.151  13.292
27637SOL    HW284686   7.116  11.094  13.153
27638SOL     OW84687   0.919   9.402   8.384
27638SOL    HW184688   0.973   9.410   8.305
27638SOL    HW284689   0.829   9.415   8.353
27639SOL     OW84690   0.952   0.764  14.573
27639SOL    HW184691   1.047   0.762  14.573
27639SOL    HW284692   0.929   0.831  14.637
27640SOL     OW84693   4.004   2.019   4.966
27640SOL    HW184694   4.015   1.930   5.000
27640SOL    HW284695   4.040   2.016   4.878
27641SOL     OW84696   6.260   8.617   2.014
27641SOL    HW184697   6.292   8.543   1.963
27641SOL    HW284698   6.301   8.694   1.974
27642SOL     OW84699  11.086   3.274   0.043
27642SOL    HW184700  11.176   3.308   0.048
27642SOL    HW284701  11.067   3.246   0.132
27643SOL     OW84702   0.283   6.243   5.444
27643SOL    HW184703   0.365   6.219   5.486
27643SOL    HW284704   0.221   6.175   5.470
27644SOL     OW84705   9.271   0.952  13.119
27644SOL    HW184706   9.237   0.888  13.057
27644SOL    HW284707   9.209   0.950  13.192
27645SOL     OW84708  10.923  13.878   2.022
27645SOL    HW184709  10.941  13.869   2.116
27645SOL    HW284710  10.876  13.961   2.015
27646SOL     OW84711   0.995   9.553   5.245
27646SOL    HW184712   0.973   9.633   5.293
27646SOL    HW284713   0.910   9.518   5.218
27647SOL     OW84714  13.118   1.999   8.564
27647SOL    HW184715  13.040   1.959   8.601
27647SOL    HW284716  13.184   1.991   8.633
27648SOL     OW84717   1.992   7.961  12.125
27648SOL    HW184718   2.012   8.043  12.081
27648SOL    HW284719   1.982   7.897  12.055
27649SOL     OW84720   4.864  14.868   8.069
27649SOL    HW184721   4.930  14.835   8.130
27649SOL    HW284722   4.782  14.832   8.101
27650SOL     OW84723   7.738   2.213  14.692
27650SOL    HW184724   7.731   2.232  14.786
27650SOL    HW284725   7.803   2.144  14.686
27651SOL     OW84726   8.349   4.693  12.607
27651SOL    HW184727   8.353   4.711  12.701
27651SOL    HW284728   8.354   4.598  12.601
27652SOL     OW84729  13.542   8.501   3.596
27652SOL    HW184730  13.499   8.446   3.661
27652SOL    HW284731  13.483   8.497   3.520
27653SOL     OW84732   9.320  11.940   1.773
27653SOL    HW184733   9.283  11.898   1.695
27653SOL    HW284734   9.415  11.932   1.761
27654SOL     OW84735  10.628   0.334   8.138
27654SOL    HW184736  10.658   0.377   8.217
27654SOL    HW284737  10.571   0.263   8.169
27655SOL     OW84738   7.236   3.568   1.736
27655SOL    HW184739   7.289   3.556   1.657
27655SOL    HW284740   7.156   3.610   1.704
27656SOL     OW84741   5.940   7.973   2.884
27656SOL    HW184742   5.899   7.901   2.835
27656SOL    HW284743   5.921   8.051   2.832
27657SOL     OW84744   8.133   1.946   6.056
27657SOL    HW184745   8.214   1.894   6.057
27657SOL    HW284746   8.096   1.932   5.969
27658SOL     OW84747   2.976   3.893  14.608
27658SOL    HW184748   2.968   3.798  14.612
27658SOL    HW284749   2.996   3.912  14.516
27659SOL     OW84750   9.360   5.776   1.433
27659SOL    HW184751   9.448   5.771   1.397
27659SOL    HW284752   9.318   5.847   1.385
27660SOL     OW84753   6.338  14.580   0.101
27660SOL    HW184754   6.279  14.598   0.028
27660SOL    HW284755   6.412  14.640   0.088
27661SOL     OW84756   1.153   1.503  14.765
27661SOL    HW184757   1.167   1.511  14.670
27661SOL    HW284758   1.067   1.543  14.779
27662SOL     OW84759   4.131   3.560  10.746
27662SOL    HW184760   4.080   3.532  10.671
27662SOL    HW284761   4.178   3.638  10.716
27663SOL     OW84762   0.146   6.564   7.116
27663SOL    HW184763   0.124   6.587   7.025
27663SOL    HW284764   0.064   6.534   7.154
27664SOL     OW84765  10.511  13.182   2.235
27664SOL    HW184766  10.598  13.196   2.197
27664SOL    HW284767  10.528  13.159   2.326
27665SOL     OW84768   0.379   6.621   0.267
27665SOL    HW184769   0.407   6.687   0.204
27665SOL    HW284770   0.395   6.537   0.223
27666SOL     OW84771   5.379   5.645  14.368
27666SOL    HW184772   5.302   5.658  14.312
27666SOL    HW284773   5.395   5.731  14.407
27667SOL     OW84774   7.589   8.686   9.999
27667SOL    HW184775   7.535   8.764  10.004
27667SOL    HW284776   7.531   8.618   9.965
27668SOL     OW84777  12.161   5.459   4.976
27668SOL    HW184778  12.242   5.437   5.023
27668SOL    HW284779  12.097   5.475   5.045
27669SOL     OW84780   5.632   4.758  14.698
27669SOL    HW184781   5.633   4.750  14.794
27669SOL    HW284782   5.716   4.798  14.676
27670SOL     OW84783   3.647  13.227   5.056
27670SOL    HW184784   3.609  13.139   5.060
27670SOL    HW284785   3.652  13.246   4.962
27671SOL     OW84786  12.796   3.268   0.404
27671SOL    HW184787  12.891   3.260   0.393
27671SOL    HW284788  12.760   3.229   0.325
27672SOL     OW84789  12.682   8.435   5.101
27672SOL    HW184790  12.634   8.510   5.136
27672SOL    HW284791  12.689   8.375   5.175
27673SOL     OW84792  12.159   7.912   2.294
27673SOL    HW184793  12.142   7.890   2.386
27673SOL    HW284794  12.148   8.007   2.290
27674SOL     OW84795   9.305  10.218  11.090
27674SOL    HW184796   9.378  10.161  11.067
27674SOL    HW284797   9.336  10.269  11.165
27675SOL     OW84798   0.314  11.967   7.312
27675SOL    HW184799   0.326  11.928   7.225
27675SOL    HW284800   0.381  12.035   7.317
27676SOL     OW84801   2.709  11.273  11.156
27676SOL    HW184802   2.770  11.249  11.088
27676SOL    HW284803   2.728  11.214  11.229
27677SOL     OW84804  13.459  14.692  10.474
27677SOL    HW184805  13.425  14.617  10.426
27677SOL    HW284806  13.527  14.728  10.418
27678SOL     OW84807   9.599   5.910   3.066
27678SOL    HW184808   9.631   5.992   3.029
27678SOL    HW284809   9.614   5.919   3.160
27679SOL     OW84810   3.255   2.338  14.023
27679SOL    HW184811   3.236   2.396  14.097
27679SOL    HW284812   3.351   2.340  14.016
27680SOL     OW84813   9.002  11.886  11.240
27680SOL    HW184814   9.082  11.849  11.204
27680SOL    HW284815   9.000  11.854  11.331
27681SOL     OW84816   1.708  11.826   3.060
27681SOL    HW184817   1.751  11.742   3.045
27681SOL    HW284818   1.624  11.819   3.013
27682SOL     OW84819   9.215  12.074   0.546
27682SOL    HW184820   9.244  12.011   0.612
27682SOL    HW284821   9.138  12.116   0.584
27683SOL     OW84822   1.684  10.086   7.338
27683SOL    HW184823   1.667  10.003   7.383
27683SOL    HW284824   1.748  10.064   7.270
27684SOL     OW84825  12.071   0.726  13.199
27684SOL    HW184826  12.091   0.790  13.130
27684SOL    HW284827  12.009   0.666  13.158
27685SOL     OW84828   3.566  11.766   4.302
27685SOL    HW184829   3.492  11.821   4.327
27685SOL    HW284830   3.579  11.707   4.376
27686SOL     OW84831   3.681   5.322   1.447
27686SOL    HW184832   3.621   5.390   1.418
27686SOL    HW284833   3.687   5.262   1.372
27687SOL     OW84834  11.080   8.832  11.026
27687SOL    HW184835  11.005   8.832  11.086
27687SOL    HW284836  11.043   8.814  10.940
27688SOL     OW84837  12.980   0.550   9.476
27688SOL    HW184838  13.011   0.541   9.566
27688SOL    HW284839  13.033   0.620   9.438
27689SOL     OW84840  11.667   6.335   9.307
27689SOL    HW184841  11.695   6.265   9.248
27689SOL    HW284842  11.739   6.398   9.305
27690SOL     OW84843  13.897   3.431   2.895
27690SOL    HW184844  13.836   3.389   2.835
27690SOL    HW284845  13.915   3.516   2.855
27691SOL     OW84846   5.181   3.142   9.275
27691SOL    HW184847   5.202   3.140   9.182
27691SOL    HW284848   5.202   3.231   9.303
27692SOL     OW84849   8.918   6.710   4.512
27692SOL    HW184850   8.924   6.716   4.416
27692SOL    HW284851   8.839   6.658   4.527
27693SOL     OW84852  11.572   4.828   2.597
27693SOL    HW184853  11.628   4.847   2.521
27693SOL    HW284854  11.633   4.818   2.670
27694SOL     OW84855  11.475   7.824  12.270
27694SOL    HW184856  11.566   7.838  12.244
27694SOL    HW284857  11.434   7.910  12.259
27695SOL     OW84858  14.356   5.605   8.106
27695SOL    HW184859  14.362   5.674   8.172
27695SOL    HW284860  14.411   5.534   8.139
27696SOL     OW84861   9.603   7.966   6.073
27696SOL    HW184862   9.673   7.903   6.058
27696SOL    HW284863   9.528   7.913   6.099
27697SOL     OW84864   5.935  12.354  13.368
27697SOL    HW184865   5.940  12.262  13.344
27697SOL    HW284866   6.025  12.380  13.386
27698SOL     OW84867   6.343   7.836   0.636
27698SOL    HW184868   6.377   7.756   0.596
27698SOL    HW284869   6.398   7.906   0.600
27699SOL     OW84870  12.259   8.044   8.441
27699SOL    HW184871  12.313   8.119   8.465
27699SOL    HW284872  12.172   8.081   8.426
27700SOL     OW84873   6.265   2.209  10.400
27700SOL    HW184874   6.271   2.304  10.409
27700SOL    HW284875   6.211   2.181  10.474
27701SOL     OW84876   2.384   5.599   2.699
27701SOL    HW184877   2.342   5.575   2.617
27701SOL    HW284878   2.434   5.678   2.678
27702SOL     OW84879  14.690   8.562  11.220
27702SOL    HW184880  14.715   8.651  11.196
27702SOL    HW284881  14.638   8.531  11.146
27703SOL     OW84882  11.670  14.536   0.876
27703SOL    HW184883  11.756  14.577   0.883
27703SOL    HW284884  11.608  14.604   0.902
27704SOL     OW84885   4.974   9.232   4.983
27704SOL    HW184886   5.052   9.178   4.973
27704SOL    HW284887   4.901   9.174   4.960
27705SOL     OW84888   5.514   9.727   2.434
27705SOL    HW184889   5.434   9.686   2.467
27705SOL    HW284890   5.584   9.688   2.486
27706SOL     OW84891   8.480   5.313   0.118
27706SOL    HW184892   8.472   5.316   0.023
27706SOL    HW284893   8.504   5.222   0.137
27707SOL     OW84894   1.321   8.699   9.877
27707SOL    HW184895   1.361   8.733   9.958
27707SOL    HW284896   1.343   8.764   9.810
27708SOL     OW84897   2.650   5.981   1.792
27708SOL    HW184898   2.725   5.923   1.785
27708SOL    HW284899   2.580   5.925   1.827
27709SOL     OW84900   3.408   0.802  14.067
27709SOL    HW184901   3.502   0.817  14.054
27709SOL    HW284902   3.365   0.860  14.005
27710SOL     OW84903  10.605  11.714  12.836
27710SOL    HW184904  10.519  11.720  12.793
27710SOL    HW284905  10.660  11.667  12.774
27711SOL     OW84906   6.082   5.608   0.977
27711SOL    HW184907   6.087   5.703   0.968
27711SOL    HW284908   6.005   5.582   0.926
27712SOL     OW84909   3.082   5.951   7.491
27712SOL    HW184910   3.006   6.007   7.473
27712SOL    HW284911   3.090   5.952   7.587
27713SOL     OW84912  11.974  12.406  14.148
27713SOL    HW184913  12.006  12.384  14.236
27713SOL    HW284914  12.016  12.489  14.127
27714SOL     OW84915   8.629  10.482   9.607
27714SOL    HW184916   8.634  10.435   9.524
27714SOL    HW284917   8.683  10.431   9.667
27715SOL     OW84918   7.466   4.959   1.821
27715SOL    HW184919   7.389   4.987   1.771
27715SOL    HW284920   7.536   5.019   1.792
27716SOL     OW84921   7.268   5.313   5.935
27716SOL    HW184922   7.217   5.232   5.940
27716SOL    HW284923   7.260   5.341   5.844
27717SOL     OW84924  10.357   8.168   4.427
27717SOL    HW184925  10.357   8.213   4.343
27717SOL    HW284926  10.447   8.177   4.459
27718SOL     OW84927   0.012   9.968   1.478
27718SOL    HW184928   0.017   9.935   1.388
27718SOL    HW284929   0.101   9.999   1.496
27719SOL     OW84930   5.413  11.577   3.975
27719SOL    HW184931   5.434  11.501   3.921
27719SOL    HW284932   5.489  11.588   4.032
27720SOL     OW84933   5.291  10.577  11.392
27720SOL    HW184934   5.351  10.627  11.337
27720SOL    HW284935   5.345  10.543  11.463
27721SOL     OW84936   0.386   4.338  10.784
27721SOL    HW184937   0.382   4.243  10.791
27721SOL    HW284938   0.300   4.363  10.751
27722SOL     OW84939   4.419   4.731   4.774
27722SOL    HW184940   4.369   4.729   4.692
27722SOL    HW284941   4.357   4.763   4.839
27723SOL     OW84942   4.313   5.168  11.809
27723SOL    HW184943   4.298   5.188  11.901
27723SOL    HW284944   4.397   5.122  11.808
27724SOL     OW84945  11.934   7.662  11.697
27724SOL    HW184946  11.990   7.592  11.731
27724SOL    HW284947  11.961   7.672  11.606
27725SOL     OW84948  12.764  14.803   0.879
27725SOL    HW184949  12.772  14.774   0.788
27725SOL    HW284950  12.822  14.744   0.927
27726SOL     OW84951  13.326   6.417   1.061
27726SOL    HW184952  13.402   6.410   1.118
27726SOL    HW284953  13.267   6.478   1.107
27727SOL     OW84954   9.260   4.634   6.568
27727SOL    HW184955   9.302   4.635   6.482
27727SOL    HW284956   9.308   4.568   6.617
27728SOL     OW84957   9.073   6.460   7.934
27728SOL    HW184958   9.026   6.470   8.017
27728SOL    HW284959   9.162   6.437   7.960
27729SOL     OW84960   7.298   0.220   6.547
27729SOL    HW184961   7.290   0.310   6.578
27729SOL    HW284962   7.208   0.188   6.539
27730SOL     OW84963   1.152  13.025   4.572
27730SOL    HW184964   1.095  13.089   4.530
27730SOL    HW284965   1.175  12.964   4.502
27731SOL     OW84966   6.109  10.326   9.998
27731SOL    HW184967   6.092  10.354  10.088
27731SOL    HW284968   6.028  10.285   9.970
27732SOL     OW84969   1.885   9.245  10.464
27732SOL    HW184970   1.922   9.259  10.377
27732SOL    HW284971   1.949   9.284  10.524
27733SOL     OW84972  11.604   9.758   3.828
27733SOL    HW184973  11.562   9.739   3.912
27733SOL    HW284974  11.631   9.849   3.835
27734SOL     OW84975   9.577   4.009   1.427
27734SOL    HW184976   9.510   3.949   1.458
27734SOL    HW284977   9.637   3.954   1.375
27735SOL     OW84978   7.935   4.533   8.383
27735SOL    HW184979   7.905   4.552   8.472
27735SOL    HW284980   7.918   4.440   8.371
27736SOL     OW84981   2.928  13.826  12.520
27736SOL    HW184982   2.916  13.731  12.511
27736SOL    HW284983   2.840  13.862  12.513
27737SOL     OW84984   4.416   7.684   9.599
27737SOL    HW184985   4.378   7.772   9.599
27737SOL    HW284986   4.506   7.696   9.571
27738SOL     OW84987   6.338  13.594   8.985
27738SOL    HW184988   6.390  13.670   8.957
27738SOL    HW284989   6.398  13.542   9.038
27739SOL     OW84990   7.017  12.157   5.434
27739SOL    HW184991   7.047  12.199   5.515
27739SOL    HW284992   7.056  12.210   5.364
27740SOL     OW84993   4.504   3.757   5.027
27740SOL    HW184994   4.536   3.690   4.967
27740SOL    HW284995   4.459   3.708   5.096
27741SOL     OW84996   7.687  10.493   3.877
27741SOL    HW184997   7.596  10.486   3.903
27741SOL    HW284998   7.736  10.447   3.945
27742SOL     OW84999   5.943   9.504   3.812
27742SOL    HW185000   5.909   9.568   3.749
27742SOL    HW285001   6.038   9.510   3.802
27743SOL     OW85002   4.793   5.292   7.566
27743SOL    HW185003   4.852   5.234   7.518
27743SOL    HW285004   4.782   5.250   7.651
27744SOL     OW85005   0.807   2.015  11.740
27744SOL    HW185006   0.839   2.071  11.670
27744SOL    HW285007   0.868   1.941  11.740
27745SOL     OW85008  14.121   6.794  11.073
27745SOL    HW185009  14.111   6.789  11.168
27745SOL    HW285010  14.208   6.757  11.057
27746SOL     OW85011  11.998  11.704   8.737
27746SOL    HW185012  11.929  11.770   8.740
27746SOL    HW285013  11.961  11.634   8.683
27747SOL     OW85014  12.575   6.602  11.083
27747SOL    HW185015  12.558   6.533  11.018
27747SOL    HW285016  12.543   6.565  11.165
27748SOL     OW85017  11.467   0.091   1.309
27748SOL    HW185018  11.556   0.081   1.344
27748SOL    HW285019  11.481   0.112   1.217
27749SOL     OW85020  10.342   1.686   1.462
27749SOL    HW185021  10.365   1.768   1.418
27749SOL    HW285022  10.329   1.711   1.554
27750SOL     OW85023   7.925   0.967   2.062
27750SOL    HW185024   7.831   0.965   2.077
27750SOL    HW285025   7.963   0.933   2.143
27751SOL     OW85026   5.859   2.470   4.436
27751SOL    HW185027   5.885   2.381   4.462
27751SOL    HW285028   5.933   2.501   4.384
27752SOL     OW85029  11.161  13.366   3.817
27752SOL    HW185030  11.173  13.430   3.747
27752SOL    HW285031  11.248  13.330   3.832
27753SOL     OW85032   6.520   8.003   6.157
27753SOL    HW185033   6.611   7.977   6.171
27753SOL    HW285034   6.498   8.053   6.236
27754SOL     OW85035  10.233   8.608  12.194
27754SOL    HW185036  10.213   8.557  12.115
27754SOL    HW285037  10.203   8.696  12.173
27755SOL     OW85038   9.605   4.811   7.909
27755SOL    HW185039   9.522   4.805   7.957
27755SOL    HW285040   9.658   4.872   7.960
27756SOL     OW85041   7.066   8.686   3.772
27756SOL    HW185042   7.018   8.681   3.855
27756SOL    HW285043   7.157   8.670   3.797
27757SOL     OW85044   3.271  12.295   4.471
27757SOL    HW185045   3.263  12.357   4.398
27757SOL    HW285046   3.183  12.258   4.481
27758SOL     OW85047   7.952   1.811   7.943
27758SOL    HW185048   8.040   1.840   7.967
27758SOL    HW285049   7.898   1.890   7.950
27759SOL     OW85050  11.161   4.948   1.417
27759SOL    HW185051  11.126   4.867   1.453
27759SOL    HW285052  11.142   5.014   1.484
27760SOL     OW85053  11.767   6.113   5.231
27760SOL    HW185054  11.724   6.196   5.211
27760SOL    HW285055  11.738   6.053   5.162
27761SOL     OW85056  14.227   1.449   7.146
27761SOL    HW185057  14.177   1.417   7.221
27761SOL    HW285058  14.174   1.426   7.070
27762SOL     OW85059   7.369  10.683  12.878
27762SOL    HW185060   7.422  10.710  12.953
27762SOL    HW285061   7.373  10.587  12.880
27763SOL     OW85062  11.292   8.214  10.466
27763SOL    HW185063  11.322   8.259  10.545
27763SOL    HW285064  11.202   8.243  10.454
27764SOL     OW85065   2.599  12.327   3.910
27764SOL    HW185066   2.530  12.280   3.864
27764SOL    HW285067   2.677  12.313   3.857
27765SOL     OW85068  10.876   4.431  14.841
27765SOL    HW185069  10.782   4.440  14.856
27765SOL    HW285070  10.887   4.448  14.747
27766SOL     OW85071   8.673  10.306   1.322
27766SOL    HW185072   8.688  10.274   1.411
27766SOL    HW285073   8.656  10.227   1.271
27767SOL     OW85074  14.250  12.112   8.054
27767SOL    HW185075  14.279  12.023   8.073
27767SOL    HW285076  14.155  12.106   8.051
27768SOL     OW85077   7.293   0.165  12.215
27768SOL    HW185078   7.296   0.145  12.309
27768SOL    HW285079   7.374   0.213  12.198
27769SOL     OW85080   4.304  10.342   7.561
27769SOL    HW185081   4.239  10.410   7.544
27769SOL    HW285082   4.252  10.264   7.581
27770SOL     OW85083   9.194  12.888  11.844
27770SOL    HW185084   9.139  12.907  11.768
27770SOL    HW285085   9.146  12.821  11.892
27771SOL     OW85086   4.684   9.338   5.679
27771SOL    HW185087   4.662   9.373   5.766
27771SOL    HW285088   4.780   9.333   5.679
27772SOL     OW85089  12.154   6.396   2.646
27772SOL    HW185090  12.231   6.426   2.696
27772SOL    HW285091  12.124   6.319   2.694
27773SOL     OW85092  12.069  12.862   8.192
27773SOL    HW185093  12.090  12.927   8.125
27773SOL    HW285094  12.058  12.913   8.272
27774SOL     OW85095  14.494   0.572   0.457
27774SOL    HW185096  14.421   0.510   0.461
27774SOL    HW285097  14.500   0.596   0.364
27775SOL     OW85098   9.328   6.378  11.264
27775SOL    HW185099   9.378   6.346  11.188
27775SOL    HW285100   9.304   6.468  11.240
27776SOL     OW85101  10.011  11.114  14.652
27776SOL    HW185102   9.945  11.066  14.602
27776SOL    HW285103  10.091  11.062  14.641
27777SOL     OW85104   4.631   7.895  14.652
27777SOL    HW185105   4.595   7.974  14.691
27777SOL    HW285106   4.613   7.826  14.716
27778SOL     OW85107   1.100  14.055   7.567
27778SOL    HW185108   1.159  13.991   7.609
27778SOL    HW285109   1.023  14.003   7.543
27779SOL     OW85110  10.268   8.852   9.616
27779SOL    HW185111  10.352   8.890   9.644
27779SOL    HW285112  10.211   8.861   9.692
27780SOL     OW85113  13.548  11.101   2.056
27780SOL    HW185114  13.530  11.070   2.144
27780SOL    HW285115  13.589  11.027   2.012
27781SOL     OW85116   7.986   7.168   5.706
27781SOL    HW185117   8.057   7.178   5.769
27781SOL    HW285118   7.912   7.135   5.758
27782SOL     OW85119  14.070   2.797   4.294
27782SOL    HW185120  14.057   2.723   4.353
27782SOL    HW285121  14.144   2.846   4.331
27783SOL     OW85122   7.519   8.599   4.955
27783SOL    HW185123   7.452   8.615   4.888
27783SOL    HW285124   7.598   8.577   4.905
27784SOL     OW85125   1.108   0.900  10.321
27784SOL    HW185126   1.110   0.979  10.266
27784SOL    HW285127   1.187   0.906  10.375
27785SOL     OW85128   6.448   2.141  11.271
27785SOL    HW185129   6.359   2.106  11.268
27785SOL    HW285130   6.460   2.169  11.362
27786SOL     OW85131   0.314  14.516   6.930
27786SOL    HW185132   0.339  14.550   7.016
27786SOL    HW285133   0.220  14.531   6.924
27787SOL     OW85134   7.296   6.297  14.085
27787SOL    HW185135   7.249   6.217  14.063
27787SOL    HW285136   7.245   6.336  14.156
27788SOL     OW85137   3.228   6.276   5.141
27788SOL    HW185138   3.265   6.285   5.229
27788SOL    HW285139   3.254   6.188   5.113
27789SOL     OW85140   5.540   4.220   7.439
27789SOL    HW185141   5.578   4.240   7.354
27789SOL    HW285142   5.474   4.288   7.452
27790SOL     OW85143  14.254  12.443  13.029
27790SOL    HW185144  14.164  12.472  13.021
27790SOL    HW285145  14.288  12.489  13.106
27791SOL     OW85146   5.627  11.663  14.398
27791SOL    HW185147   5.583  11.589  14.355
27791SOL    HW285148   5.563  11.694  14.462
27792SOL     OW85149   4.130   5.205  11.592
27792SOL    HW185150   4.081   5.123  11.605
27792SOL    HW285151   4.205   5.198  11.650
27793SOL     OW85152   4.359   2.717   8.877
27793SOL    HW185153   4.295   2.701   8.946
27793SOL    HW285154   4.406   2.795   8.906
27794SOL     OW85155  10.383  10.060  13.199
27794SOL    HW185156  10.409  10.070  13.107
27794SOL    HW285157  10.346  10.145  13.223
27795SOL     OW85158  10.382  12.208  12.285
27795SOL    HW185159  10.290  12.218  12.310
27795SOL    HW285160  10.420  12.154  12.354
27796SOL     OW85161   8.304  11.907   8.949
27796SOL    HW185162   8.312  11.848   8.874
27796SOL    HW285163   8.214  11.895   8.979
27797SOL     OW85164  14.447   5.203   2.166
27797SOL    HW185165  14.397   5.122   2.171
27797SOL    HW285166  14.447   5.226   2.073
27798SOL     OW85167  12.292  12.855   8.530
27798SOL    HW185168  12.245  12.772   8.533
27798SOL    HW285169  12.369  12.837   8.476
27799SOL     OW85170   5.613   3.758  13.666
27799SOL    HW185171   5.616   3.847  13.701
27799SOL    HW285172   5.698   3.746  13.624
27800SOL     OW85173   7.343   3.268   2.507
27800SOL    HW185174   7.355   3.211   2.431
27800SOL    HW285175   7.252   3.296   2.503
27801SOL     OW85176   1.208   5.385   4.832
27801SOL    HW185177   1.127   5.379   4.781
27801SOL    HW285178   1.237   5.295   4.842
27802SOL     OW85179  10.985   4.920   4.942
27802SOL    HW185180  10.985   4.896   5.034
27802SOL    HW285181  10.897   4.954   4.926
27803SOL     OW85182  13.633   4.328   5.465
27803SOL    HW185183  13.706   4.273   5.436
27803SOL    HW285184  13.566   4.266   5.493
27804SOL     OW85185   1.234   5.813  11.513
27804SOL    HW185186   1.171   5.879  11.482
27804SOL    HW285187   1.260   5.768  11.433
27805SOL     OW85188   0.278   9.604   7.029
27805SOL    HW185189   0.234   9.565   7.105
27805SOL    HW285190   0.216   9.670   6.997
27806SOL     OW85191   5.057   3.672  11.140
27806SOL    HW185192   5.129   3.610  11.130
27806SOL    HW285193   5.066   3.732  11.067
27807SOL     OW85194  11.555   9.215   8.921
27807SOL    HW185195  11.556   9.311   8.916
27807SOL    HW285196  11.532   9.197   9.012
27808SOL     OW85197   5.139   8.887   2.511
27808SOL    HW185198   5.159   8.833   2.588
27808SOL    HW285199   5.083   8.832   2.457
27809SOL     OW85200  11.101   7.835   8.245
27809SOL    HW185201  11.024   7.844   8.188
27809SOL    HW285202  11.093   7.747   8.282
27810SOL     OW85203  12.529   8.479   3.810
27810SOL    HW185204  12.536   8.406   3.872
27810SOL    HW285205  12.590   8.457   3.740
27811SOL     OW85206   5.547   5.463  11.259
27811SOL    HW185207   5.589   5.548  11.252
27811SOL    HW285208   5.526   5.439  11.169
27812SOL     OW85209   5.445  11.214   2.793
27812SOL    HW185210   5.503  11.261   2.852
27812SOL    HW285211   5.490  11.214   2.709
27813SOL     OW85212  14.463  13.465   8.602
27813SOL    HW185213  14.512  13.399   8.651
27813SOL    HW285214  14.488  13.548   8.643
27814SOL     OW85215   5.095   0.127  14.212
27814SOL    HW185216   5.003   0.145  14.193
27814SOL    HW285217   5.144   0.193  14.163
27815SOL     OW85218   9.213  13.320  13.722
27815SOL    HW185219   9.267  13.243  13.704
27815SOL    HW285220   9.274  13.394  13.713
27816SOL     OW85221  11.298  12.956   8.128
27816SOL    HW185222  11.214  12.986   8.162
27816SOL    HW285223  11.310  13.004   8.046
27817SOL     OW85224  14.023   7.614  10.359
27817SOL    HW185225  13.936   7.646  10.383
27817SOL    HW285226  14.010   7.569  10.276
27818SOL     OW85227   5.563   1.101  13.229
27818SOL    HW185228   5.597   1.098  13.319
27818SOL    HW285229   5.633   1.141  13.178
27819SOL     OW85230  13.451   0.747   5.834
27819SOL    HW185231  13.478   0.805   5.762
27819SOL    HW285232  13.527   0.691   5.849
27820SOL     OW85233   5.410   1.011  12.399
27820SOL    HW185234   5.374   0.967  12.476
27820SOL    HW285235   5.500   1.033  12.424
27821SOL     OW85236  12.318   5.773  11.817
27821SOL    HW185237  12.287   5.708  11.880
27821SOL    HW285238  12.293   5.737  11.731
27822SOL     OW85239  11.583   7.968   7.425
27822SOL    HW185240  11.619   7.977   7.513
27822SOL    HW285241  11.489   7.986   7.436
27823SOL     OW85242   4.762   2.251   6.284
27823SOL    HW185243   4.737   2.159   6.275
27823SOL    HW285244   4.815   2.269   6.206
27824SOL     OW85245  12.042   3.172   6.614
27824SOL    HW185246  11.964   3.151   6.666
27824SOL    HW285247  12.053   3.097   6.556
27825SOL     OW85248   6.373   1.419   7.016
27825SOL    HW185249   6.452   1.385   6.974
27825SOL    HW285250   6.302   1.370   6.975
27826SOL     OW85251  10.866   9.980   2.654
27826SOL    HW185252  10.886   9.895   2.613
27826SOL    HW285253  10.951  10.013   2.683
27827SOL     OW85254  14.099   4.773   7.942
27827SOL    HW185255  14.029   4.837   7.930
27827SOL    HW285256  14.123   4.747   7.853
27828SOL     OW85257   2.371  13.741   1.563
27828SOL    HW185258   2.423  13.671   1.522
27828SOL    HW285259   2.280  13.711   1.555
27829SOL     OW85260   5.127   2.958   0.708
27829SOL    HW185261   5.190   2.889   0.687
27829SOL    HW285262   5.168   3.005   0.781
27830SOL     OW85263   6.480  14.219   9.941
27830SOL    HW185264   6.385  14.218   9.930
27830SOL    HW285265   6.495  14.177  10.026
27831SOL     OW85266   8.459  10.173   9.210
27831SOL    HW185267   8.506  10.184   9.127
27831SOL    HW285268   8.485  10.086   9.240
27832SOL     OW85269  13.065   0.894   2.957
27832SOL    HW185270  13.105   0.815   2.994
27832SOL    HW285271  13.035   0.867   2.870
27833SOL     OW85272   5.603   6.594   9.324
27833SOL    HW185273   5.657   6.672   9.310
27833SOL    HW285274   5.518   6.628   9.351
27834SOL     OW85275   5.923  13.935   5.566
27834SOL    HW185276   5.834  13.939   5.600
27834SOL    HW285277   5.915  13.893   5.481
27835SOL     OW85278   2.251   2.811   6.502
27835SOL    HW185279   2.327   2.801   6.444
27835SOL    HW285280   2.289   2.825   6.589
27836SOL     OW85281   9.529   7.336  12.825
27836SOL    HW185282   9.605   7.282  12.849
27836SOL    HW285283   9.542   7.418  12.871
27837SOL     OW85284   4.147  13.406   5.579
27837SOL    HW185285   4.089  13.384   5.651
27837SOL    HW285286   4.208  13.332   5.573
27838SOL     OW85287   2.215   5.695   6.306
27838SOL    HW185288   2.120   5.688   6.299
27838SOL    HW285289   2.247   5.611   6.273
27839SOL     OW85290  12.773   8.071  10.073
27839SOL    HW185291  12.731   8.153  10.048
27839SOL    HW285292  12.766   8.015   9.996
27840SOL     OW85293   0.611  11.246   4.685
27840SOL    HW185294   0.567  11.186   4.744
27840SOL    HW285295   0.635  11.321   4.740
27841SOL     OW85296  10.755   6.176  11.778
27841SOL    HW185297  10.790   6.100  11.731
27841SOL    HW285298  10.665   6.185  11.746
27842SOL     OW85299   5.204  12.360   1.790
27842SOL    HW185300   5.209  12.454   1.807
27842SOL    HW285301   5.147  12.325   1.859
27843SOL     OW85302   2.275   7.887   1.496
27843SOL    HW185303   2.304   7.900   1.406
27843SOL    HW285304   2.180   7.877   1.489
27844SOL     OW85305   8.993   8.009   6.369
27844SOL    HW185306   8.960   8.075   6.429
27844SOL    HW285307   8.945   8.024   6.287
27845SOL     OW85308   2.487   2.961   4.015
27845SOL    HW185309   2.547   3.035   4.023
27845SOL    HW285310   2.400   2.998   4.030
27846SOL     OW85311   0.857   0.567  12.138
27846SOL    HW185312   0.793   0.572  12.209
27846SOL    HW285313   0.907   0.487  12.156
27847SOL     OW85314   2.138  10.905   3.065
27847SOL    HW185315   2.098  10.939   3.145
27847SOL    HW285316   2.222  10.951   3.059
27848SOL     OW85317  14.519  13.075   8.106
27848SOL    HW185318  14.499  13.153   8.054
27848SOL    HW285319  14.521  13.105   8.196
27849SOL     OW85320   6.092  11.952   5.408
27849SOL    HW185321   6.040  11.875   5.384
27849SOL    HW285322   6.055  12.023   5.356
27850SOL     OW85323   7.718   7.136  14.056
27850SOL    HW185324   7.749   7.091  14.135
27850SOL    HW285325   7.625   7.152  14.072
27851SOL     OW85326   6.760   2.167   5.270
27851SOL    HW185327   6.807   2.118   5.202
27851SOL    HW285328   6.775   2.117   5.350
27852SOL     OW85329   2.064  11.509   1.296
27852SOL    HW185330   2.134  11.509   1.360
27852SOL    HW285331   2.086  11.580   1.235
27853SOL     OW85332  13.393   8.562   7.892
27853SOL    HW185333  13.468   8.514   7.858
27853SOL    HW285334  13.416   8.583   7.982
27854SOL     OW85335   1.742   4.612   3.479
27854SOL    HW185336   1.662   4.611   3.427
27854SOL    HW285337   1.810   4.639   3.418
27855SOL     OW85338   6.856   3.046   6.094
27855SOL    HW185339   6.929   2.985   6.080
27855SOL    HW285340   6.896   3.122   6.135
27856SOL     OW85341   4.473   0.726  10.164
27856SOL    HW185342   4.501   0.637  10.184
27856SOL    HW285343   4.393   0.738  10.216
27857SOL     OW85344  11.219  14.769   9.479
27857SOL    HW185345  11.291  14.805   9.427
27857SOL    HW285346  11.160  14.729   9.414
27858SOL     OW85347   4.373   4.502  12.107
27858SOL    HW185348   4.348   4.487  12.016
27858SOL    HW285349   4.403   4.593  12.108
27859SOL     OW85350   7.909   9.201   8.795
27859SOL    HW185351   7.878   9.155   8.717
27859SOL    HW285352   7.918   9.132   8.861
27860SOL     OW85353   3.600   4.777   5.330
27860SOL    HW185354   3.601   4.872   5.323
27860SOL    HW285355   3.532   4.758   5.394
27861SOL     OW85356   4.570   0.927   8.818
27861SOL    HW185357   4.578   0.936   8.723
27861SOL    HW285358   4.554   0.834   8.832
27862SOL     OW85359   3.652   3.114  11.845
27862SOL    HW185360   3.679   3.155  11.927
27862SOL    HW285361   3.734   3.093  11.800
27863SOL     OW85362  13.070  12.553   5.562
27863SOL    HW185363  13.095  12.515   5.646
27863SOL    HW285364  13.021  12.632   5.585
27864SOL     OW85365   2.807  13.290   7.625
27864SOL    HW185366   2.767  13.208   7.596
27864SOL    HW285367   2.890  13.263   7.666
27865SOL     OW85368   5.909   7.422   4.917
27865SOL    HW185369   5.836   7.363   4.937
27865SOL    HW285370   5.909   7.428   4.822
27866SOL     OW85371   3.790   8.830   3.786
27866SOL    HW185372   3.744   8.862   3.709
27866SOL    HW285373   3.724   8.828   3.855
27867SOL     OW85374  10.283   1.518  11.256
27867SOL    HW185375  10.209   1.574  11.234
27867SOL    HW285376  10.257   1.474  11.337
27868SOL     OW85377   5.570   0.992  12.836
27868SOL    HW185378   5.576   0.951  12.923
27868SOL    HW285379   5.577   1.086  12.853
27869SOL     OW85380  14.848   8.675   6.774
27869SOL    HW185381  14.787   8.725   6.829
27869SOL    HW285382  14.869   8.735   6.702
27870SOL     OW85383  13.963   9.839   3.990
27870SOL    HW185384  13.990   9.799   3.907
27870SOL    HW285385  13.938   9.928   3.967
27871SOL     OW85386   9.547   5.100   1.819
27871SOL    HW185387   9.473   5.098   1.759
27871SOL    HW285388   9.516   5.152   1.894
27872SOL     OW85389  11.639   0.572   8.874
27872SOL    HW185390  11.608   0.633   8.807
27872SOL    HW285391  11.704   0.622   8.923
27873SOL     OW85392  11.796   8.836   1.304
27873SOL    HW185393  11.859   8.888   1.254
27873SOL    HW285394  11.740   8.901   1.347
27874SOL     OW85395   4.619  11.410   6.186
27874SOL    HW185396   4.526  11.436   6.188
27874SOL    HW285397   4.640  11.391   6.277
27875SOL     OW85398   4.643   0.429   0.936
27875SOL    HW185399   4.654   0.502   0.997
27875SOL    HW285400   4.709   0.444   0.869
27876SOL     OW85401  12.812   3.706  12.741
27876SOL    HW185402  12.786   3.669  12.826
27876SOL    HW285403  12.907   3.712  12.746
27877SOL     OW85404   9.225  10.344   3.005
27877SOL    HW185405   9.237  10.301   3.090
27877SOL    HW285406   9.130  10.344   2.991
27878SOL     OW85407  14.542  13.528   6.414
27878SOL    HW185408  14.548  13.439   6.449
27878SOL    HW285409  14.583  13.523   6.328
27879SOL     OW85410   7.428   5.555   6.379
27879SOL    HW185411   7.392   5.573   6.466
27879SOL    HW285412   7.369   5.601   6.319
27880SOL     OW85413  13.592   9.857  10.972
27880SOL    HW185414  13.500   9.859  10.997
27880SOL    HW285415  13.630   9.787  11.025
27881SOL     OW85416  13.574   2.397   2.080
27881SOL    HW185417  13.626   2.421   2.157
27881SOL    HW285418  13.554   2.480   2.038
27882SOL     OW85419  13.686   5.320  14.617
27882SOL    HW185420  13.625   5.378  14.571
27882SOL    HW285421  13.682   5.238  14.569
27883SOL     OW85422   5.843   8.195   5.798
27883SOL    HW185423   5.796   8.163   5.722
27883SOL    HW285424   5.933   8.164   5.785
27884SOL     OW85425   0.163   0.756   0.662
27884SOL    HW185426   0.098   0.768   0.593
27884SOL    HW285427   0.181   0.662   0.662
27885SOL     OW85428   0.252  13.933   7.802
27885SOL    HW185429   0.321  13.907   7.742
27885SOL    HW285430   0.173  13.936   7.748
27886SOL     OW85431   1.131   2.526   9.223
27886SOL    HW185432   1.069   2.591   9.188
27886SOL    HW285433   1.203   2.526   9.160
27887SOL     OW85434   0.478   5.443   2.048
27887SOL    HW185435   0.404   5.437   2.108
27887SOL    HW285436   0.479   5.359   2.002
27888SOL     OW85437   0.553   0.442   7.854
27888SOL    HW185438   0.492   0.500   7.900
27888SOL    HW285439   0.498   0.367   7.828
27889SOL     OW85440   0.377  14.616   4.853
27889SOL    HW185441   0.435  14.549   4.889
27889SOL    HW285442   0.301  14.616   4.911
27890SOL     OW85443   4.485   3.212   2.634
27890SOL    HW185444   4.465   3.131   2.588
27890SOL    HW285445   4.400   3.247   2.661
27891SOL     OW85446   1.270   2.100  13.047
27891SOL    HW185447   1.324   2.142  12.980
27891SOL    HW285448   1.240   2.172  13.102
27892SOL     OW85449   4.472   0.445   1.837
27892SOL    HW185450   4.540   0.498   1.879
27892SOL    HW285451   4.452   0.377   1.901
27893SOL     OW85452   5.672  11.245   3.704
27893SOL    HW185453   5.580  11.220   3.715
27893SOL    HW285454   5.721  11.171   3.740
27894SOL     OW85455  11.352   5.342  12.699
27894SOL    HW185456  11.400   5.341  12.782
27894SOL    HW285457  11.415   5.373  12.635
27895SOL     OW85458   3.087   4.848   7.637
27895SOL    HW185459   3.163   4.809   7.679
27895SOL    HW285460   3.032   4.773   7.613
27896SOL     OW85461   8.360   4.049  10.552
27896SOL    HW185462   8.455   4.062  10.547
27896SOL    HW285463   8.341   3.985  10.483
27897SOL     OW85464  11.490   0.586  10.874
27897SOL    HW185465  11.565   0.638  10.904
27897SOL    HW285466  11.479   0.518  10.940
27898SOL     OW85467   0.726   2.776   9.301
27898SOL    HW185468   0.677   2.694   9.293
27898SOL    HW285469   0.701   2.811   9.387
27899SOL     OW85470  10.766   7.874   6.835
27899SOL    HW185471  10.726   7.950   6.792
27899SOL    HW285472  10.747   7.801   6.777
27900SOL     OW85473  13.485  13.375   8.591
27900SOL    HW185474  13.505  13.445   8.529
27900SOL    HW285475  13.457  13.302   8.536
27901SOL     OW85476   4.090  11.051  10.224
27901SOL    HW185477   4.002  11.077  10.198
27901SOL    HW285478   4.129  11.132  10.259
27902SOL     OW85479  11.571  14.861   5.403
27902SOL    HW185480  11.613   0.059   5.364
27902SOL    HW285481  11.485   0.016   5.431
27903SOL     OW85482  11.285  10.134  14.868
27903SOL    HW185483  11.288  10.078  14.791
27903SOL    HW285484  11.338  10.210  14.845
27904SOL     OW85485  12.721   3.235  10.144
27904SOL    HW185486  12.682   3.247  10.058
27904SOL    HW285487  12.794   3.296  10.146
27905SOL     OW85488  13.240   6.036  11.595
27905SOL    HW185489  13.165   6.078  11.637
27905SOL    HW285490  13.218   5.943  11.595
27906SOL     OW85491   2.168  12.413   1.974
27906SOL    HW185492   2.162  12.354   2.050
27906SOL    HW285493   2.156  12.355   1.898
27907SOL     OW85494  10.093   6.447  10.166
27907SOL    HW185495  10.144   6.514  10.211
27907SOL    HW285496  10.041   6.495  10.102
27908SOL     OW85497   3.327   4.940   5.647
27908SOL    HW185498   3.315   4.871   5.581
27908SOL    HW285499   3.246   4.939   5.698
27909SOL     OW85500  12.019   7.933   5.453
27909SOL    HW185501  12.067   7.915   5.372
27909SOL    HW285502  12.083   7.919   5.523
27910SOL     OW85503   5.704  14.832   5.967
27910SOL    HW185504   5.658  14.787   6.038
27910SOL    HW285505   5.659   0.038   5.958
27911SOL     OW85506   6.378  14.792  12.246
27911SOL    HW185507   6.346  14.768  12.333
27911SOL    HW285508   6.428  14.716  12.216
27912SOL     OW85509  10.432   4.888   9.908
27912SOL    HW185510  10.352   4.836   9.904
27912SOL    HW285511  10.406   4.970   9.950
27913SOL     OW85512  13.847   9.212   1.625
27913SOL    HW185513  13.796   9.132   1.610
27913SOL    HW285514  13.890   9.198   1.709
27914SOL     OW85515   6.601   4.496  14.724
27914SOL    HW185516   6.620   4.563  14.789
27914SOL    HW285517   6.602   4.542  14.640
27915SOL     OW85518   7.664   6.267  12.177
27915SOL    HW185519   7.596   6.203  12.197
27915SOL    HW285520   7.621   6.352  12.185
27916SOL     OW85521  12.279   1.911  14.392
27916SOL    HW185522  12.312   1.964  14.319
27916SOL    HW285523  12.357   1.891  14.445
27917SOL     OW85524   4.163   8.472   1.530
27917SOL    HW185525   4.132   8.557   1.561
27917SOL    HW285526   4.254   8.468   1.559
27918SOL     OW85527   3.853  14.038  11.086
27918SOL    HW185528   3.940  14.043  11.126
27918SOL    HW285529   3.869  14.004  10.998
27919SOL     OW85530  12.908   5.938   1.909
27919SOL    HW185531  13.003   5.940   1.911
27919SOL    HW285532  12.882   5.943   2.001
27920SOL     OW85533   9.066   6.579  14.877
27920SOL    HW185534   9.039   6.493  14.846
27920SOL    HW285535   8.988   6.634  14.865
27921SOL     OW85536  14.439   5.952   6.763
27921SOL    HW185537  14.427   5.955   6.668
27921SOL    HW285538  14.350   5.944   6.798
27922SOL     OW85539   2.290   5.729  14.125
27922SOL    HW185540   2.271   5.819  14.100
27922SOL    HW285541   2.376   5.732  14.167
27923SOL     OW85542   5.412  13.674   1.502
27923SOL    HW185543   5.502  13.665   1.471
27923SOL    HW285544   5.419  13.670   1.597
27924SOL     OW85545  13.758   2.044   2.904
27924SOL    HW185546  13.773   2.124   2.854
27924SOL    HW285547  13.780   2.068   2.994
27925SOL     OW85548  12.034  12.627   0.565
27925SOL    HW185549  11.994  12.608   0.480
27925SOL    HW285550  12.109  12.682   0.544
27926SOL     OW85551   2.145   7.352   2.475
27926SOL    HW185552   2.098   7.405   2.410
27926SOL    HW285553   2.215   7.311   2.424
27927SOL     OW85554  12.795   3.036  14.861
27927SOL    HW185555  12.841   2.973   0.037
27927SOL    HW285556  12.863   3.080  14.810
27928SOL     OW85557   5.631   1.323  11.324
27928SOL    HW185558   5.601   1.411  11.349
27928SOL    HW285559   5.704   1.338  11.264
27929SOL     OW85560   1.172  12.398  12.264
27929SOL    HW185561   1.241  12.353  12.314
27929SOL    HW285562   1.094  12.392  12.320
27930SOL     OW85563   1.847  14.745  11.739
27930SOL    HW185564   1.783  14.810  11.710
27930SOL    HW285565   1.928  14.794  11.750
27931SOL     OW85566   1.621   5.770   3.513
27931SOL    HW185567   1.548   5.822   3.480
27931SOL    HW285568   1.693   5.832   3.521
27932SOL     OW85569   4.225   9.150  12.247
27932SOL    HW185570   4.265   9.063  12.250
27932SOL    HW285571   4.265   9.197  12.320
27933SOL     OW85572  13.523   0.960  12.032
27933SOL    HW185573  13.566   1.000  11.957
27933SOL    HW285574  13.593   0.951  12.097
27934SOL     OW85575   1.205   0.859   4.401
27934SOL    HW185576   1.127   0.897   4.441
27934SOL    HW285577   1.206   0.894   4.312
27935SOL     OW85578  11.585  14.438   5.073
27935SOL    HW185579  11.644  14.507   5.044
27935SOL    HW285580  11.559  14.393   4.993
27936SOL     OW85581   4.463   8.144   9.565
27936SOL    HW185582   4.434   8.148   9.474
27936SOL    HW285583   4.495   8.233   9.583
27937SOL     OW85584   4.896  10.731   1.763
27937SOL    HW185585   4.880  10.758   1.854
27937SOL    HW285586   4.809  10.728   1.723
27938SOL     OW85587   1.182  14.254  12.013
27938SOL    HW185588   1.231  14.301  11.946
27938SOL    HW285589   1.091  14.280  11.998
27939SOL     OW85590   9.786   4.514   7.384
27939SOL    HW185591   9.759   4.437   7.334
27939SOL    HW285592   9.739   4.507   7.466
27940SOL     OW85593  13.316   3.285   0.504
27940SOL    HW185594  13.400   3.323   0.477
27940SOL    HW285595  13.252   3.328   0.448
27941SOL     OW85596  13.652   8.789   2.414
27941SOL    HW185597  13.666   8.831   2.330
27941SOL    HW285598  13.740   8.764   2.444
27942SOL     OW85599  13.810  13.414   6.871
27942SOL    HW185600  13.767  13.412   6.957
27942SOL    HW285601  13.881  13.350   6.878
27943SOL     OW85602   1.960   1.017  14.855
27943SOL    HW185603   1.936   1.105  14.827
27943SOL    HW285604   2.039   1.029   0.029
27944SOL     OW85605   1.197   9.006  10.978
27944SOL    HW185606   1.169   9.097  10.987
27944SOL    HW285607   1.258   9.007  10.904
27945SOL     OW85608  11.044   1.089  13.246
27945SOL    HW185609  11.065   1.182  13.238
27945SOL    HW285610  11.038   1.057  13.156
27946SOL     OW85611   4.347  13.266   7.179
27946SOL    HW185612   4.434  13.304   7.165
27946SOL    HW285613   4.286  13.330   7.143
27947SOL     OW85614   4.902   6.127  14.128
27947SOL    HW185615   4.953   6.059  14.174
27947SOL    HW285616   4.918   6.207  14.178
27948SOL     OW85617   6.365  10.816   9.881
27948SOL    HW185618   6.293  10.849   9.827
27948SOL    HW285619   6.353  10.721   9.881
27949SOL     OW85620   7.119   9.715   8.564
27949SOL    HW185621   7.065   9.678   8.494
27949SOL    HW285622   7.203   9.670   8.554
27950SOL     OW85623   6.026   3.243   6.914
27950SOL    HW185624   5.990   3.248   7.003
27950SOL    HW285625   6.000   3.156   6.883
27951SOL     OW85626   5.746   2.841   7.684
27951SOL    HW185627   5.703   2.848   7.769
27951SOL    HW285628   5.838   2.824   7.705
27952SOL     OW85629   2.651   2.405   9.278
27952SOL    HW185630   2.712   2.403   9.352
27952SOL    HW285631   2.707   2.395   9.201
27953SOL     OW85632   8.088   9.713  12.197
27953SOL    HW185633   8.111   9.771  12.125
27953SOL    HW285634   8.019   9.759  12.244
27954SOL     OW85635  13.432  12.156   8.865
27954SOL    HW185636  13.442  12.074   8.913
27954SOL    HW285637  13.521  12.189   8.854
27955SOL     OW85638   7.533   3.338   2.077
27955SOL    HW185639   7.448   3.360   2.038
27955SOL    HW285640   7.564   3.420   2.114
27956SOL     OW85641  11.886   0.199  10.055
27956SOL    HW185642  11.950   0.128  10.060
27956SOL    HW285643  11.919   0.266  10.115
27957SOL     OW85644   4.139   6.965  12.099
27957SOL    HW185645   4.085   6.948  12.022
27957SOL    HW285646   4.137   6.883  12.148
27958SOL     OW85647   1.370   9.846   9.971
27958SOL    HW185648   1.384   9.846   9.877
27958SOL    HW285649   1.413   9.765  10.001
27959SOL     OW85650  12.294   5.097  13.576
27959SOL    HW185651  12.306   5.009  13.612
27959SOL    HW285652  12.269   5.151  13.650
27960SOL     OW85653   0.793   7.021   9.996
27960SOL    HW185654   0.816   7.109   9.967
27960SOL    HW285655   0.865   6.966   9.965
27961SOL     OW85656   2.840   2.525   6.808
27961SOL    HW185657   2.829   2.618   6.827
27961SOL    HW285658   2.751   2.491   6.800
27962SOL     OW85659  11.132   9.986   2.743
27962SOL    HW185660  11.138   9.905   2.692
27962SOL    HW285661  11.219  10.024   2.739
27963SOL     OW85662   3.035   1.417   8.083
27963SOL    HW185663   2.998   1.473   8.151
27963SOL    HW285664   3.083   1.476   8.026
27964SOL     OW85665   5.162  13.460  10.263
27964SOL    HW185666   5.089  13.516  10.234
27964SOL    HW285667   5.129  13.417  10.342
27965SOL     OW85668   7.044   0.152  14.849
27965SOL    HW185669   6.964   0.166  14.799
27965SOL    HW285670   7.110   0.204  14.803
27966SOL     OW85671   8.205   3.382  13.087
27966SOL    HW185672   8.245   3.396  13.173
27966SOL    HW285673   8.167   3.466  13.064
27967SOL     OW85674   8.742  12.806   2.038
27967SOL    HW185675   8.830  12.843   2.035
27967SOL    HW285676   8.754  12.713   2.020
27968SOL     OW85677   6.657   8.877   2.279
27968SOL    HW185678   6.687   8.954   2.232
27968SOL    HW285679   6.581   8.907   2.329
27969SOL     OW85680  12.918   1.353   1.224
27969SOL    HW185681  12.868   1.434   1.216
27969SOL    HW285682  12.987   1.361   1.158
27970SOL     OW85683   2.881   7.778   0.557
27970SOL    HW185684   2.857   7.779   0.650
27970SOL    HW285685   2.948   7.710   0.550
27971SOL     OW85686   1.544   3.687   8.339
27971SOL    HW185687   1.605   3.633   8.389
27971SOL    HW285688   1.457   3.653   8.362
27972SOL     OW85689  14.398   8.036   5.346
27972SOL    HW185690  14.308   8.017   5.373
27972SOL    HW285691  14.389   8.098   5.274
27973SOL     OW85692  12.054   3.905   0.482
27973SOL    HW185693  12.091   3.869   0.563
27973SOL    HW285694  11.971   3.943   0.508
27974SOL     OW85695  13.885  13.639  11.878
27974SOL    HW185696  13.793  13.635  11.855
27974SOL    HW285697  13.898  13.729  11.910
27975SOL     OW85698  12.689  12.309   1.021
27975SOL    HW185699  12.645  12.225   1.034
27975SOL    HW285700  12.649  12.367   1.086
27976SOL     OW85701   4.469  14.750   7.574
27976SOL    HW185702   4.493  14.728   7.484
27976SOL    HW285703   4.521  14.690   7.628
27977SOL     OW85704   5.526   7.140   3.762
27977SOL    HW185705   5.482   7.125   3.679
27977SOL    HW285706   5.525   7.235   3.772
27978SOL     OW85707   4.091   5.330   0.968
27978SOL    HW185708   4.161   5.303   0.908
27978SOL    HW285709   4.106   5.278   1.047
27979SOL     OW85710  11.358  11.905   6.625
27979SOL    HW185711  11.309  11.981   6.658
27979SOL    HW285712  11.373  11.852   6.703
27980SOL     OW85713   3.433  10.376  10.582
27980SOL    HW185714   3.495  10.404  10.515
27980SOL    HW285715   3.382  10.306  10.540
27981SOL     OW85716   6.983   7.036   6.367
27981SOL    HW185717   7.032   6.955   6.353
27981SOL    HW285718   6.962   7.036   6.460
27982SOL     OW85719   7.199   5.953   4.973
27982SOL    HW185720   7.278   5.931   5.022
27982SOL    HW285721   7.156   6.020   5.025
27983SOL     OW85722   8.207  10.904  13.994
27983SOL    HW185723   8.298  10.891  13.968
27983SOL    HW285724   8.206  10.986  14.043
27984SOL     OW85725   2.085  13.677   7.444
27984SOL    HW185726   2.028  13.612   7.486
27984SOL    HW285727   2.147  13.702   7.513
27985SOL     OW85728  13.257   2.841  13.615
27985SOL    HW185729  13.281   2.769  13.556
27985SOL    HW285730  13.327   2.844  13.680
27986SOL     OW85731  13.652   9.766   7.927
27986SOL    HW185732  13.672   9.737   8.016
27986SOL    HW285733  13.556   9.765   7.923
27987SOL     OW85734   5.217   9.554   2.034
27987SOL    HW185735   5.249   9.629   2.084
27987SOL    HW285736   5.246   9.477   2.084
27988SOL     OW85737  11.874   5.336  13.753
27988SOL    HW185738  11.826   5.335  13.670
27988SOL    HW285739  11.934   5.410  13.745
27989SOL     OW85740   7.067   1.355  12.803
27989SOL    HW185741   7.097   1.300  12.731
27989SOL    HW285742   7.112   1.320  12.880
27990SOL     OW85743   3.307   6.450   7.702
27990SOL    HW185744   3.321   6.541   7.726
27990SOL    HW285745   3.307   6.402   7.785
27991SOL     OW85746  10.538   4.590   5.378
27991SOL    HW185747  10.561   4.635   5.459
27991SOL    HW285748  10.460   4.538   5.400
27992SOL     OW85749  13.400  11.076   3.748
27992SOL    HW185750  13.388  11.171   3.752
27992SOL    HW285751  13.352  11.048   3.670
27993SOL     OW85752  11.544   1.962  12.707
27993SOL    HW185753  11.519   1.960  12.615
27993SOL    HW285754  11.541   2.055  12.730
27994SOL     OW85755   2.034  10.044   2.364
27994SOL    HW185756   2.024  10.134   2.394
27994SOL    HW285757   1.945  10.014   2.346
27995SOL     OW85758   9.897   3.957  14.659
27995SOL    HW185759   9.986   3.985  14.682
27995SOL    HW285760   9.887   3.871  14.698
27996SOL     OW85761   3.588   0.524  13.904
27996SOL    HW185762   3.606   0.459  13.836
27996SOL    HW285763   3.518   0.578  13.867
27997SOL     OW85764   9.418   7.605  14.865
27997SOL    HW185765   9.498   7.646   0.019
27997SOL    HW285766   9.376   7.673  14.813
27998SOL     OW85767   9.473   5.113  10.815
27998SOL    HW185768   9.494   5.026  10.781
27998SOL    HW285769   9.394   5.139  10.768
27999SOL     OW85770   9.167  11.344   4.897
27999SOL    HW185771   9.121  11.337   4.981
27999SOL    HW285772   9.123  11.280   4.841
28000SOL     OW85773   5.494   7.477   0.724
28000SOL    HW185774   5.553   7.484   0.800
28000SOL    HW285775   5.470   7.567   0.704
28001SOL     OW85776   9.244  12.439   9.397
28001SOL    HW185777   9.189  12.391   9.335
28001SOL    HW285778   9.181  12.479   9.458
28002SOL     OW85779   8.642  11.187  14.313
28002SOL    HW185780   8.643  11.216  14.221
28002SOL    HW285781   8.660  11.266  14.363
28003SOL     OW85782   2.105   1.656   8.742
28003SOL    HW185783   2.027   1.604   8.724
28003SOL    HW285784   2.165   1.595   8.785
28004SOL     OW85785   9.376   3.048   9.796
28004SOL    HW185786   9.463   3.033   9.834
28004SOL    HW285787   9.323   2.976   9.830
28005SOL     OW85788  13.405   4.910   6.708
28005SOL    HW185789  13.313   4.889   6.725
28005SOL    HW285790  13.402   4.978   6.641
28006SOL     OW85791  11.277   0.871   1.190
28006SOL    HW185792  11.349   0.852   1.251
28006SOL    HW285793  11.310   0.943   1.137
28007SOL     OW85794   3.901   8.426   9.022
28007SOL    HW185795   3.958   8.451   9.095
28007SOL    HW285796   3.959   8.381   8.961
28008SOL     OW85797   2.798   4.200  13.404
28008SOL    HW185798   2.833   4.278  13.447
28008SOL    HW285799   2.705   4.201  13.425
28009SOL     OW85800   5.203   4.266  12.801
28009SOL    HW185801   5.132   4.206  12.776
28009SOL    HW285802   5.274   4.244  12.741
28010SOL     OW85803   0.098  11.559  14.254
28010SOL    HW185804   0.169  11.623  14.259
28010SOL    HW285805   0.019  11.611  14.237
28011SOL     OW85806  11.357   2.792  13.952
28011SOL    HW185807  11.428   2.848  13.921
28011SOL    HW285808  11.400   2.716  13.989
28012SOL     OW85809  13.747  13.912  12.972
28012SOL    HW185810  13.802  13.973  12.923
28012SOL    HW285811  13.789  13.827  12.960
28013SOL     OW85812   1.883   6.773  11.315
28013SOL    HW185813   1.832   6.847  11.348
28013SOL    HW285814   1.943   6.812  11.252
28014SOL     OW85815  10.531  10.282   9.861
28014SOL    HW185816  10.566  10.362   9.821
28014SOL    HW285817  10.509  10.226   9.787
28015SOL     OW85818   4.150   3.860   0.693
28015SOL    HW185819   4.121   3.898   0.776
28015SOL    HW285820   4.241   3.888   0.685
28016SOL     OW85821   9.295   4.152   2.171
28016SOL    HW185822   9.337   4.195   2.245
28016SOL    HW285823   9.366   4.108   2.125
28017SOL     OW85824  13.304   9.371   6.863
28017SOL    HW185825  13.281   9.278   6.861
28017SOL    HW285826  13.400   9.372   6.860
28018SOL     OW85827   6.458   1.831   9.194
28018SOL    HW185828   6.534   1.823   9.137
28018SOL    HW285829   6.432   1.923   9.186
28019SOL     OW85830  14.542   5.343  12.526
28019SOL    HW185831  14.581   5.274  12.580
28019SOL    HW285832  14.600   5.418  12.538
28020SOL     OW85833   8.356  11.070  11.118
28020SOL    HW185834   8.406  11.044  11.195
28020SOL    HW285835   8.332  11.161  11.135
28021SOL     OW85836   5.277  12.078  11.832
28021SOL    HW185837   5.274  12.140  11.904
28021SOL    HW285838   5.186  12.050  11.821
28022SOL     OW85839  11.912   9.120  11.117
28022SOL    HW185840  11.935   9.212  11.111
28022SOL    HW285841  11.844   9.117  11.185
28023SOL     OW85842   1.583  12.203   5.191
28023SOL    HW185843   1.556  12.157   5.270
28023SOL    HW285844   1.535  12.159   5.120
28024SOL     OW85845  14.878  14.490   7.709
28024SOL    HW185846   0.077  14.446   7.743
28024SOL    HW285847   0.003  14.476   7.614
28025SOL     OW85848   3.738   6.164   1.071
28025SOL    HW185849   3.826   6.129   1.060
28025SOL    HW285850   3.686   6.090   1.101
28026SOL     OW85851   5.227  12.495   1.214
28026SOL    HW185852   5.196  12.478   1.303
28026SOL    HW285853   5.310  12.541   1.226
28027SOL     OW85854   5.738   7.532   4.381
28027SOL    HW185855   5.779   7.526   4.295
28027SOL    HW285856   5.684   7.611   4.377
28028SOL     OW85857   7.899   0.272   2.889
28028SOL    HW185858   7.949   0.352   2.907
28028SOL    HW285859   7.807   0.300   2.893
28029SOL     OW85860   5.055   3.351  14.413
28029SOL    HW185861   5.016   3.391  14.335
28029SOL    HW285862   5.145   3.383  14.414
28030SOL     OW85863   9.900   8.388  11.404
28030SOL    HW185864   9.838   8.343  11.460
28030SOL    HW285865   9.973   8.410  11.463
28031SOL     OW85866  13.482   5.982   4.683
28031SOL    HW185867  13.428   5.927   4.626
28031SOL    HW285868  13.420   6.023   4.743
28032SOL     OW85869   0.211   0.030   8.120
28032SOL    HW185870   0.139   0.084   8.087
28032SOL    HW285871   0.280   0.039   8.054
28033SOL     OW85872   5.523  14.164  10.006
28033SOL    HW185873   5.506  14.255   9.981
28033SOL    HW285874   5.456  14.143  10.071
28034SOL     OW85875  14.569   8.604  13.681
28034SOL    HW185876  14.663   8.599  13.698
28034SOL    HW285877  14.549   8.697  13.681
28035SOL     OW85878   5.012   0.774  12.595
28035SOL    HW185879   4.953   0.752  12.667
28035SOL    HW285880   5.060   0.693  12.578
28036SOL     OW85881   2.593  13.232  13.099
28036SOL    HW185882   2.611  13.326  13.109
28036SOL    HW285883   2.542  13.226  13.018
28037SOL     OW85884   3.893   4.802  14.516
28037SOL    HW185885   3.855   4.863  14.453
28037SOL    HW285886   3.887   4.716  14.474
28038SOL     OW85887   4.135   5.921  13.827
28038SOL    HW185888   4.171   5.833  13.831
28038SOL    HW285889   4.044   5.912  13.855
28039SOL     OW85890   5.247   0.883  12.221
28039SOL    HW185891   5.328   0.921  12.253
28039SOL    HW285892   5.273   0.832  12.143
28040SOL     OW85893   4.674   9.781   3.569
28040SOL    HW185894   4.640   9.696   3.598
28040SOL    HW285895   4.625   9.801   3.489
28041SOL     OW85896  11.744  13.328  12.796
28041SOL    HW185897  11.783  13.274  12.865
28041SOL    HW285898  11.807  13.399  12.782
28042SOL     OW85899   0.069  11.665   7.493
28042SOL    HW185900   0.003  11.597   7.505
28042SOL    HW285901   0.030  11.726   7.431
28043SOL     OW85902   6.590   5.649  10.173
28043SOL    HW185903   6.506   5.682  10.141
28043SOL    HW285904   6.633   5.613  10.096
28044SOL     OW85905  12.826  10.232   6.103
28044SOL    HW185906  12.836  10.138   6.085
28044SOL    HW285907  12.846  10.240   6.197
28045SOL     OW85908   2.701   9.734   7.070
28045SOL    HW185909   2.657   9.718   7.154
28045SOL    HW285910   2.663   9.670   7.010
28046SOL     OW85911   9.595   2.169   9.324
28046SOL    HW185912   9.626   2.149   9.236
28046SOL    HW285913   9.523   2.107   9.339
28047SOL     OW85914  12.626   5.706   4.253
28047SOL    HW185915  12.605   5.749   4.171
28047SOL    HW285916  12.610   5.613   4.237
28048SOL     OW85917   7.420  12.543  11.117
28048SOL    HW185918   7.426  12.468  11.059
28048SOL    HW285919   7.329  12.573  11.109
28049SOL     OW85920   6.726   8.306   5.939
28049SOL    HW185921   6.764   8.225   5.905
28049SOL    HW285922   6.756   8.310   6.030
28050SOL     OW85923   8.578   6.039   6.206
28050SOL    HW185924   8.649   6.027   6.269
28050SOL    HW285925   8.623   6.053   6.123
28051SOL     OW85926  13.369   4.469  10.949
28051SOL    HW185927  13.371   4.393  10.890
28051SOL    HW285928  13.360   4.432  11.036
28052SOL     OW85929   5.940   4.569   4.374
28052SOL    HW185930   5.991   4.648   4.393
28052SOL    HW285931   6.000   4.497   4.393
28053SOL     OW85932   4.141   4.359  12.661
28053SOL    HW185933   4.203   4.297  12.701
28053SOL    HW285934   4.086   4.305  12.604
28054SOL     OW85935   4.705   6.955  14.066
28054SOL    HW185936   4.715   6.882  14.126
28054SOL    HW285937   4.787   7.004  14.072
28055SOL     OW85938   9.723   9.552   0.079
28055SOL    HW185939   9.782   9.627   0.078
28055SOL    HW285940   9.710   9.530  14.864
28056SOL     OW85941  12.563  13.678   2.942
28056SOL    HW185942  12.586  13.589   2.969
28056SOL    HW285943  12.567  13.675   2.847
28057SOL     OW85944   8.841  13.099   2.252
28057SOL    HW185945   8.843  13.192   2.275
28057SOL    HW285946   8.890  13.056   2.323
28058SOL     OW85947   7.196  14.265   1.888
28058SOL    HW185948   7.219  14.187   1.838
28058SOL    HW285949   7.231  14.249   1.975
28059SOL     OW85950  10.778   7.125   2.706
28059SOL    HW185951  10.785   7.145   2.613
28059SOL    HW285952  10.712   7.056   2.711
28060SOL     OW85953   8.254  14.012   5.489
28060SOL    HW185954   8.267  14.052   5.575
28060SOL    HW285955   8.159  14.003   5.481
28061SOL     OW85956   6.601   1.003   1.400
28061SOL    HW185957   6.599   1.055   1.480
28061SOL    HW285958   6.690   1.015   1.366
28062SOL     OW85959   2.260  12.477   0.280
28062SOL    HW185960   2.189  12.535   0.252
28062SOL    HW285961   2.301  12.448   0.198
28063SOL     OW85962   1.698   4.918  10.234
28063SOL    HW185963   1.641   4.849  10.200
28063SOL    HW285964   1.641   4.971  10.289
28064SOL     OW85965  13.582  10.636   9.805
28064SOL    HW185966  13.671  10.602   9.795
28064SOL    HW285967  13.588  10.700   9.876
28065SOL     OW85968   1.025   8.116   4.089
28065SOL    HW185969   1.026   8.211   4.101
28065SOL    HW285970   0.933   8.095   4.073
28066SOL     OW85971   1.508   8.646   2.218
28066SOL    HW185972   1.518   8.676   2.128
28066SOL    HW285973   1.469   8.720   2.265
28067SOL     OW85974   9.119  14.580   2.195
28067SOL    HW185975   9.167  14.559   2.275
28067SOL    HW285976   9.027  14.563   2.217
28068SOL     OW85977  11.635   1.708  13.718
28068SOL    HW185978  11.684   1.692  13.799
28068SOL    HW285979  11.598   1.623  13.695
28069SOL     OW85980   9.408   6.857   4.123
28069SOL    HW185981   9.418   6.763   4.107
28069SOL    HW285982   9.361   6.889   4.046
28070SOL     OW85983   3.207   7.598   8.581
28070SOL    HW185984   3.206   7.618   8.674
28070SOL    HW285985   3.204   7.684   8.538
28071SOL     OW85986   8.715   3.946   0.218
28071SOL    HW185987   8.749   3.928   0.130
28071SOL    HW285988   8.737   4.038   0.234
28072SOL     OW85989   4.471   4.341  14.246
28072SOL    HW185990   4.427   4.335  14.331
28072SOL    HW285991   4.468   4.434  14.224
28073SOL     OW85992   4.645   1.641  11.877
28073SOL    HW185993   4.651   1.577  11.948
28073SOL    HW285994   4.589   1.711  11.912
28074SOL     OW85995   0.859   7.987   9.688
28074SOL    HW185996   0.816   8.066   9.656
28074SOL    HW285997   0.844   7.989   9.783
28075SOL     OW85998   4.439  14.393   8.125
28075SOL    HW185999   4.393  14.318   8.163
28075SOL    HW286000   4.393  14.412   8.043
28076SOL     OW86001   8.027  12.386  12.371
28076SOL    HW186002   8.104  12.343  12.335
28076SOL    HW286003   8.042  12.387  12.466
28077SOL     OW86004   8.253  10.629  10.544
28077SOL    HW186005   8.326  10.567  10.545
28077SOL    HW286006   8.179  10.578  10.509
28078SOL     OW86007  14.289  13.074   3.175
28078SOL    HW186008  14.199  13.084   3.206
28078SOL    HW286009  14.328  13.160   3.186
28079SOL     OW86010   5.546   5.766   7.114
28079SOL    HW186011   5.518   5.718   7.192
28079SOL    HW286012   5.466   5.810   7.083
28080SOL     OW86013   8.266   2.180  10.847
28080SOL    HW186014   8.283   2.094  10.885
28080SOL    HW286015   8.351   2.223  10.846
28081SOL     OW86016   1.612   7.039  11.527
28081SOL    HW186017   1.523   7.072  11.540
28081SOL    HW286018   1.622   6.971  11.594
28082SOL     OW86019   9.979  10.312   2.672
28082SOL    HW186020   9.910  10.296   2.608
28082SOL    HW286021   9.934  10.311   2.756
28083SOL     OW86022   4.687   5.580   4.877
28083SOL    HW186023   4.709   5.505   4.821
28083SOL    HW286024   4.613   5.550   4.929
28084SOL     OW86025   9.381  14.617   3.186
28084SOL    HW186026   9.448  14.677   3.153
28084SOL    HW286027   9.405  14.601   3.277
28085SOL     OW86028   7.962  11.641  12.029
28085SOL    HW186029   7.954  11.718  12.086
28085SOL    HW286030   7.873  11.608  12.021
28086SOL     OW86031   5.968   7.070  10.907
28086SOL    HW186032   5.949   6.981  10.936
28086SOL    HW286033   6.064   7.072  10.898
28087SOL     OW86034  13.666  12.398   2.133
28087SOL    HW186035  13.576  12.367   2.134
28087SOL    HW286036  13.703  12.368   2.216
28088SOL     OW86037   6.972   8.547   0.555
28088SOL    HW186038   6.884   8.579   0.575
28088SOL    HW286039   7.020   8.552   0.638
28089SOL     OW86040  13.869   0.690   6.006
28089SOL    HW186041  13.956   0.678   6.044
28089SOL    HW286042  13.822   0.610   6.028
28090SOL     OW86043   7.619   5.103   8.874
28090SOL    HW186044   7.586   5.193   8.881
28090SOL    HW286045   7.563   5.053   8.934
28091SOL     OW86046  11.054   5.371   8.332
28091SOL    HW186047  10.993   5.433   8.374
28091SOL    HW286048  11.135   5.381   8.382
28092SOL     OW86049   2.510   1.064   0.112
28092SOL    HW186050   2.571   1.102   0.048
28092SOL    HW286051   2.555   1.075   0.196
28093SOL     OW86052   9.511   6.876  11.092
28093SOL    HW186053   9.521   6.917  11.006
28093SOL    HW286054   9.418   6.857  11.099
28094SOL     OW86055   4.632   3.327  12.435
28094SOL    HW186056   4.687   3.327  12.357
28094SOL    HW286057   4.550   3.287  12.407
28095SOL     OW86058  10.276   3.820   6.611
28095SOL    HW186059  10.252   3.828   6.519
28095SOL    HW286060  10.346   3.884   6.624
28096SOL     OW86061   3.051   4.181  11.940
28096SOL    HW186062   3.024   4.196  12.030
28096SOL    HW286063   3.036   4.088  11.926
28097SOL     OW86064  14.789   5.444  10.382
28097SOL    HW186065  14.719   5.477  10.327
28097SOL    HW286066  14.745   5.387  10.446
28098SOL     OW86067  12.430   7.421  11.858
28098SOL    HW186068  12.483   7.436  11.936
28098SOL    HW286069  12.364   7.357  11.884
28099SOL     OW86070   8.573   3.536  10.375
28099SOL    HW186071   8.597   3.523  10.283
28099SOL    HW286072   8.478   3.546  10.374
28100SOL     OW86073   6.464   4.019   2.522
28100SOL    HW186074   6.456   4.023   2.426
28100SOL    HW286075   6.430   3.933   2.545
28101SOL     OW86076   0.169   9.863   1.743
28101SOL    HW186077   0.092   9.817   1.776
28101SOL    HW286078   0.140   9.953   1.728
28102SOL     OW86079   9.449  10.339   8.805
28102SOL    HW186080   9.473  10.354   8.896
28102SOL    HW286081   9.519  10.282   8.771
28103SOL     OW86082   0.297   0.472  13.940
28103SOL    HW186083   0.261   0.399  13.990
28103SOL    HW286084   0.327   0.433  13.858
28104SOL     OW86085   4.096   6.964   3.231
28104SOL    HW186086   4.177   6.917   3.250
28104SOL    HW286087   4.124   7.046   3.191
28105SOL     OW86088  14.512   8.333   7.918
28105SOL    HW186089  14.598   8.372   7.934
28105SOL    HW286090  14.528   8.267   7.851
28106SOL     OW86091   1.289   9.294   1.489
28106SOL    HW186092   1.285   9.200   1.509
28106SOL    HW286093   1.375   9.306   1.449
28107SOL     OW86094   5.208   8.675   6.432
28107SOL    HW186095   5.294   8.709   6.406
28107SOL    HW286096   5.168   8.646   6.350
28108SOL     OW86097   8.840   3.001   0.397
28108SOL    HW186098   8.891   3.077   0.368
28108SOL    HW286099   8.811   2.959   0.316
28109SOL     OW86100  13.664   0.465  11.517
28109SOL    HW186101  13.700   0.392  11.568
28109SOL    HW286102  13.632   0.526  11.582
28110SOL     OW86103   5.441   3.690  13.461
28110SOL    HW186104   5.385   3.767  13.471
28110SOL    HW286105   5.516   3.707  13.518
28111SOL     OW86106  11.561   2.950   3.397
28111SOL    HW186107  11.503   3.020   3.426
28111SOL    HW286108  11.649   2.980   3.421
28112SOL     OW86109   2.011   0.586   0.049
28112SOL    HW186110   1.988   0.635  14.848
28112SOL    HW286111   1.949   0.617   0.115
28113SOL     OW86112  12.741   8.559  14.771
28113SOL    HW186113  12.764   8.605  14.690
28113SOL    HW286114  12.685   8.487  14.742
28114SOL     OW86115   3.283  11.226  14.004
28114SOL    HW186116   3.214  11.207  14.067
28114SOL    HW286117   3.358  11.174  14.034
28115SOL     OW86118  11.208   7.492   5.217
28115SOL    HW186119  11.226   7.515   5.126
28115SOL    HW286120  11.193   7.397   5.215
28116SOL     OW86121   5.128  13.439  12.610
28116SOL    HW186122   5.035  13.441  12.630
28116SOL    HW286123   5.132  13.415  12.518
28117SOL     OW86124   2.980   2.143   8.061
28117SOL    HW186125   3.000   2.230   8.027
28117SOL    HW286126   2.925   2.103   7.995
28118SOL     OW86127   2.772  13.498   1.681
28118SOL    HW186128   2.693  13.453   1.713
28118SOL    HW286129   2.740  13.553   1.610
28119SOL     OW86130  14.385   5.278   8.861
28119SOL    HW186131  14.416   5.191   8.839
28119SOL    HW286132  14.465   5.328   8.878
28120SOL     OW86133   3.275   2.698  13.477
28120SOL    HW186134   3.245   2.619  13.521
28120SOL    HW286135   3.360   2.717  13.516
28121SOL     OW86136   6.704   8.896  10.808
28121SOL    HW186137   6.688   8.859  10.895
28121SOL    HW286138   6.773   8.961  10.821
28122SOL     OW86139   9.739  12.818   4.180
28122SOL    HW186140   9.765  12.815   4.088
28122SOL    HW286141   9.644  12.812   4.179
28123SOL     OW86142   6.245  11.166   7.941
28123SOL    HW186143   6.282  11.126   7.862
28123SOL    HW286144   6.153  11.138   7.942
28124SOL     OW86145   7.147  13.493   2.654
28124SOL    HW186146   7.213  13.424   2.667
28124SOL    HW286147   7.173  13.563   2.714
28125SOL     OW86148  10.259  13.418  14.634
28125SOL    HW186149  10.287  13.427  14.725
28125SOL    HW286150  10.172  13.458  14.631
28126SOL     OW86151   8.816  14.272  14.155
28126SOL    HW186152   8.887  14.211  14.175
28126SOL    HW286153   8.737  14.218  14.159
28127SOL     OW86154  12.764   6.819  12.804
28127SOL    HW186155  12.714   6.877  12.861
28127SOL    HW286156  12.780   6.871  12.725
28128SOL     OW86157   5.122   9.371   5.819
28128SOL    HW186158   5.206   9.412   5.799
28128SOL    HW286159   5.137   9.323   5.900
28129SOL     OW86160   1.743   7.155   0.311
28129SOL    HW186161   1.732   7.061   0.295
28129SOL    HW286162   1.707   7.197   0.234
28130SOL     OW86163   2.783   2.632   9.445
28130SOL    HW186164   2.828   2.549   9.462
28130SOL    HW286165   2.802   2.650   9.353
28131SOL     OW86166   8.293   5.425   7.862
28131SOL    HW186167   8.202   5.402   7.879
28131SOL    HW286168   8.289   5.500   7.802
28132SOL     OW86169   0.121  14.034  10.328
28132SOL    HW186170   0.057  14.038  10.400
28132SOL    HW286171   0.158  14.123  10.325
28133SOL     OW86172  12.140   8.183   7.044
28133SOL    HW186173  12.116   8.274   7.060
28133SOL    HW286174  12.119   8.138   7.125
28134SOL     OW86175   5.065  12.350   5.704
28134SOL    HW186176   5.098  12.278   5.757
28134SOL    HW286177   5.073  12.320   5.613
28135SOL     OW86178   3.832  11.009  13.127
28135SOL    HW186179   3.787  11.026  13.210
28135SOL    HW286180   3.899  11.077  13.121
28136SOL     OW86181   4.460   9.327   3.472
28136SOL    HW186182   4.460   9.232   3.474
28136SOL    HW286183   4.379   9.350   3.425
28137SOL     OW86184  14.535  10.793  11.361
28137SOL    HW186185  14.474  10.856  11.323
28137SOL    HW286186  14.480  10.720  11.390
28138SOL     OW86187  11.028   7.577   1.463
28138SOL    HW186188  11.119   7.603   1.471
28138SOL    HW286189  10.996   7.628   1.388
28139SOL     OW86190  13.591  13.565   5.099
28139SOL    HW186191  13.643  13.545   5.177
28139SOL    HW286192  13.633  13.514   5.029
28140SOL     OW86193   5.024   6.248   7.769
28140SOL    HW186194   5.046   6.192   7.844
28140SOL    HW286195   5.064   6.204   7.694
28141SOL     OW86196  11.552   7.582   4.879
28141SOL    HW186197  11.512   7.667   4.895
28141SOL    HW286198  11.646   7.598   4.889
28142SOL     OW86199  14.122   6.544   9.619
28142SOL    HW186200  14.042   6.583   9.583
28142SOL    HW286201  14.137   6.466   9.565
28143SOL     OW86202   9.271   7.562   1.084
28143SOL    HW186203   9.349   7.588   1.134
28143SOL    HW286204   9.215   7.640   1.084
28144SOL     OW86205   9.365   6.872   2.648
28144SOL    HW186206   9.327   6.847   2.564
28144SOL    HW286207   9.449   6.826   2.651
28145SOL     OW86208   1.539   0.621   0.477
28145SOL    HW186209   1.555   0.653   0.388
28145SOL    HW286210   1.588   0.680   0.534
28146SOL     OW86211   6.094  14.062   5.874
28146SOL    HW186212   6.122  14.087   5.786
28146SOL    HW286213   6.170  14.082   5.930
28147SOL     OW86214   5.312   0.542   9.956
28147SOL    HW186215   5.366   0.542   9.877
28147SOL    HW286216   5.373   0.521  10.027
28148SOL     OW86217   1.833   8.988  13.039
28148SOL    HW186218   1.797   9.072  13.012
28148SOL    HW286219   1.756   8.934  13.059
28149SOL     OW86220   9.399   4.845   7.476
28149SOL    HW186221   9.339   4.772   7.485
28149SOL    HW286222   9.382   4.880   7.389
28150SOL     OW86223   2.252   3.975   0.750
28150SOL    HW186224   2.326   3.935   0.795
28150SOL    HW286225   2.268   4.069   0.755
28151SOL     OW86226   5.542  11.893   4.890
28151SOL    HW186227   5.463  11.867   4.842
28151SOL    HW286228   5.515  11.970   4.940
28152SOL     OW86229  10.066   2.369   8.836
28152SOL    HW186230  10.038   2.459   8.819
28152SOL    HW286231   9.984   2.322   8.854
28153SOL     OW86232  13.729   1.011  12.444
28153SOL    HW186233  13.670   1.048  12.379
28153SOL    HW286234  13.739   1.080  12.509
28154SOL     OW86235  14.227   4.860   5.119
28154SOL    HW186236  14.160   4.839   5.184
28154SOL    HW286237  14.207   4.949   5.090
28155SOL     OW86238  14.197  11.240   2.719
28155SOL    HW186239  14.263  11.187   2.674
28155SOL    HW286240  14.194  11.205   2.808
28156SOL     OW86241   8.325   9.343   0.588
28156SOL    HW186242   8.353   9.434   0.585
28156SOL    HW286243   8.369   9.302   0.514
28157SOL     OW86244  13.325   2.242  10.381
28157SOL    HW186245  13.364   2.256  10.468
28157SOL    HW286246  13.384   2.288  10.321
28158SOL     OW86247  11.305   3.646  13.542
28158SOL    HW186248  11.297   3.708  13.469
28158SOL    HW286249  11.358   3.693  13.607
28159SOL     OW86250  11.758  13.734   4.734
28159SOL    HW186251  11.731  13.713   4.824
28159SOL    HW286252  11.682  13.777   4.696
28160SOL     OW86253  11.724   2.583  12.609
28160SOL    HW186254  11.766   2.584  12.696
28160SOL    HW286255  11.725   2.490  12.584
28161SOL     OW86256  10.697   6.141   5.685
28161SOL    HW186257  10.729   6.144   5.775
28161SOL    HW286258  10.692   6.233   5.658
28162SOL     OW86259   9.851   0.326   1.584
28162SOL    HW186260   9.861   0.232   1.572
28162SOL    HW286261   9.758   0.338   1.603
28163SOL     OW86262   1.135   6.320  11.212
28163SOL    HW186263   1.041   6.304  11.203
28163SOL    HW286264   1.175   6.269  11.142
28164SOL     OW86265  14.120   4.312   1.505
28164SOL    HW186266  14.056   4.246   1.531
28164SOL    HW286267  14.173   4.267   1.438
28165SOL     OW86268   0.924   6.336   8.374
28165SOL    HW186269   0.878   6.362   8.294
28165SOL    HW286270   1.013   6.369   8.362
28166SOL     OW86271  10.140   0.393   8.210
28166SOL    HW186272  10.100   0.434   8.287
28166SOL    HW286273  10.075   0.406   8.141
28167SOL     OW86274   8.540  14.219   4.129
28167SOL    HW186275   8.548  14.301   4.081
28167SOL    HW286276   8.508  14.245   4.216
28168SOL     OW86277  10.413  12.512  11.104
28168SOL    HW186278  10.413  12.606  11.086
28168SOL    HW286279  10.337  12.499  11.161
28169SOL     OW86280   0.290  10.229   0.035
28169SOL    HW186281   0.369  10.189  14.877
28169SOL    HW286282   0.266  10.296  14.850
28170SOL     OW86283  11.802   2.035  11.634
28170SOL    HW186284  11.714   2.049  11.601
28170SOL    HW286285  11.845   2.120  11.625
28171SOL     OW86286   5.446  13.032   5.255
28171SOL    HW186287   5.482  13.024   5.343
28171SOL    HW286288   5.362  13.077   5.268
28172SOL     OW86289   7.467   3.913  13.771
28172SOL    HW186290   7.542   3.969  13.790
28172SOL    HW286291   7.503   3.824  13.774
28173SOL     OW86292   8.787   1.448  11.361
28173SOL    HW186293   8.855   1.484  11.304
28173SOL    HW286294   8.707   1.493  11.334
28174SOL     OW86295   0.512   6.653  13.945
28174SOL    HW186296   0.606   6.637  13.933
28174SOL    HW286297   0.508   6.745  13.974
28175SOL     OW86298   0.017  13.370   7.451
28175SOL    HW186299   0.029  13.438   7.517
28175SOL    HW286300   0.100  13.322   7.450
28176SOL     OW86301  12.052   5.366  10.565
28176SOL    HW186302  12.132   5.315  10.549
28176SOL    HW286303  12.053   5.434  10.498
28177SOL     OW86304   5.783   3.076  13.100
28177SOL    HW186305   5.720   3.120  13.158
28177SOL    HW286306   5.741   2.994  13.076
28178SOL     OW86307  13.037   0.456  10.073
28178SOL    HW186308  13.108   0.410  10.118
28178SOL    HW286309  12.958   0.407  10.095
28179SOL     OW86310   7.072   3.929   6.273
28179SOL    HW186311   7.000   3.894   6.222
28179SOL    HW286312   7.051   4.022   6.283
28180SOL     OW86313   1.008  14.553   2.335
28180SOL    HW186314   0.997  14.510   2.420
28180SOL    HW286315   0.928  14.532   2.287
28181SOL     OW86316   8.198   4.773   1.265
28181SOL    HW186317   8.280   4.817   1.245
28181SOL    HW286318   8.194   4.699   1.205
28182SOL     OW86319  10.271  14.289   1.154
28182SOL    HW186320  10.199  14.331   1.200
28182SOL    HW286321  10.230  14.239   1.084
28183SOL     OW86322   9.809   3.074  10.977
28183SOL    HW186323   9.831   3.117  10.894
28183SOL    HW286324   9.737   3.015  10.956
28184SOL     OW86325  11.223  13.792   9.857
28184SOL    HW186326  11.214  13.770   9.950
28184SOL    HW286327  11.133  13.802   9.826
28185SOL     OW86328   4.033  14.758   5.286
28185SOL    HW186329   4.056  14.697   5.356
28185SOL    HW286330   4.039  14.845   5.328
28186SOL     OW86331   4.013  14.436  10.732
28186SOL    HW186332   3.943  14.372  10.720
28186SOL    HW286333   4.072  14.396  10.796
28187SOL     OW86334  13.442  11.654   1.555
28187SOL    HW186335  13.456  11.743   1.524
28187SOL    HW286336  13.513  11.603   1.516
28188SOL     OW86337   4.138   4.438  14.370
28188SOL    HW186338   4.155   4.492  14.447
28188SOL    HW286339   4.145   4.348  14.402
28189SOL     OW86340   5.448  13.043  13.398
28189SOL    HW186341   5.438  12.982  13.325
28189SOL    HW286342   5.488  13.121  13.359
28190SOL     OW86343   6.560   4.726  11.473
28190SOL    HW186344   6.636   4.675  11.501
28190SOL    HW286345   6.517   4.751  11.555
28191SOL     OW86346   7.867   3.547  13.969
28191SOL    HW186347   7.935   3.560  14.035
28191SOL    HW286348   7.785   3.556  14.017
28192SOL     OW86349   2.863  13.184  14.720
28192SOL    HW186350   2.903  13.271  14.723
28192SOL    HW286351   2.909  13.134  14.787
28193SOL     OW86352  12.006   4.173  11.187
28193SOL    HW186353  11.911   4.172  11.203
28193SOL    HW286354  12.016   4.225  11.108
28194SOL     OW86355  10.825   3.215   7.234
28194SOL    HW186356  10.907   3.246   7.272
28194SOL    HW286357  10.835   3.120   7.229
28195SOL     OW86358  12.890   4.329   1.302
28195SOL    HW186359  12.883   4.422   1.324
28195SOL    HW286360  12.975   4.302   1.337
28196SOL     OW86361   1.357   2.160   5.166
28196SOL    HW186362   1.281   2.216   5.182
28196SOL    HW286363   1.429   2.222   5.150
28197SOL     OW86364  13.439   7.126   3.037
28197SOL    HW186365  13.383   7.078   3.099
28197SOL    HW286366  13.486   7.189   3.092
28198SOL     OW86367   0.231   0.806   4.636
28198SOL    HW186368   0.167   0.746   4.673
28198SOL    HW286369   0.274   0.757   4.566
28199SOL     OW86370  11.135  14.852  12.213
28199SOL    HW186371  11.157  14.780  12.154
28199SOL    HW286372  11.053   0.009  12.179
28200SOL     OW86373  14.520   0.395  10.467
28200SOL    HW186374  14.429   0.384  10.493
28200SOL    HW286375  14.564   0.318  10.503
28201SOL     OW86376  13.145   6.322   0.394
28201SOL    HW186377  13.143   6.348   0.302
28201SOL    HW286378  13.230   6.351   0.425
28202SOL     OW86379  13.558   9.464   0.679
28202SOL    HW186380  13.463   9.459   0.684
28202SOL    HW286381  13.576   9.502   0.593
28203SOL     OW86382   7.958  10.281   9.656
28203SOL    HW186383   7.868  10.249   9.643
28203SOL    HW286384   8.010  10.228   9.595
28204SOL     OW86385  11.523  14.389   1.132
28204SOL    HW186386  11.540  14.321   1.196
28204SOL    HW286387  11.592  14.378   1.066
28205SOL     OW86388   7.544   7.386  12.246
28205SOL    HW186389   7.458   7.403  12.209
28205SOL    HW286390   7.595   7.465  12.227
28206SOL     OW86391   9.444   5.221  11.059
28206SOL    HW186392   9.460   5.140  11.107
28206SOL    HW286393   9.459   5.198  10.967
28207SOL     OW86394  14.636   0.083   4.494
28207SOL    HW186395  14.696   0.155   4.515
28207SOL    HW286396  14.624   0.088   4.399
28208SOL     OW86397  10.223   1.899  14.333
28208SOL    HW186398  10.301   1.856  14.368
28208SOL    HW286399  10.255   1.983  14.299
28209SOL     OW86400  11.826   3.185   5.978
28209SOL    HW186401  11.765   3.203   5.906
28209SOL    HW286402  11.775   3.133   6.040
28210SOL     OW86403  10.476   3.939   7.437
28210SOL    HW186404  10.485   3.872   7.505
28210SOL    HW286405  10.388   3.924   7.401
28211SOL     OW86406  12.870   0.210  14.185
28211SOL    HW186407  12.815   0.239  14.112
28211SOL    HW286408  12.930   0.283  14.201
28212SOL     OW86409  11.496   7.272  10.899
28212SOL    HW186410  11.430   7.206  10.877
28212SOL    HW286411  11.572   7.221  10.928
28213SOL     OW86412  11.209   0.069   3.887
28213SOL    HW186413  11.272   0.034   3.950
28213SOL    HW286414  11.155  14.871   3.862
28214SOL     OW86415   6.495  10.250  12.125
28214SOL    HW186416   6.429  10.183  12.142
28214SOL    HW286417   6.558  10.207  12.067
28215SOL     OW86418   2.265  10.217  10.572
28215SOL    HW186419   2.316  10.173  10.639
28215SOL    HW286420   2.208  10.149  10.536
28216SOL     OW86421  12.698   0.657   0.250
28216SOL    HW186422  12.651   0.574   0.250
28216SOL    HW286423  12.630   0.723   0.263
28217SOL     OW86424   5.383   0.810   4.414
28217SOL    HW186425   5.358   0.725   4.450
28217SOL    HW286426   5.437   0.789   4.338
28218SOL     OW86427  11.968  14.115  14.327
28218SOL    HW186428  11.996  14.152  14.411
28218SOL    HW286429  11.982  14.186  14.265
28219SOL     OW86430   4.317   4.656   3.675
28219SOL    HW186431   4.372   4.674   3.599
28219SOL    HW286432   4.307   4.561   3.675
28220SOL     OW86433  11.742   1.585   4.461
28220SOL    HW186434  11.809   1.570   4.528
28220SOL    HW286435  11.792   1.595   4.379
28221SOL     OW86436   5.545   4.386  14.290
28221SOL    HW186437   5.549   4.336  14.371
28221SOL    HW286438   5.615   4.450  14.298
28222SOL     OW86439   8.201   7.612   4.444
28222SOL    HW186440   8.295   7.613   4.424
28222SOL    HW286441   8.166   7.541   4.390
28223SOL     OW86442   1.087  13.543   6.554
28223SOL    HW186443   0.998  13.578   6.550
28223SOL    HW286444   1.141  13.612   6.515
28224SOL     OW86445   7.320   6.179   6.368
28224SOL    HW186446   7.391   6.120   6.394
28224SOL    HW286447   7.266   6.186   6.447
28225SOL     OW86448   1.942   1.819   8.187
28225SOL    HW186449   1.958   1.773   8.269
28225SOL    HW286450   1.846   1.818   8.177
28226SOL     OW86451   9.489   6.703  12.099
28226SOL    HW186452   9.511   6.796  12.099
28226SOL    HW286453   9.554   6.663  12.042
28227SOL     OW86454   0.769   9.932   5.056
28227SOL    HW186455   0.803   9.879   4.984
28227SOL    HW286456   0.676   9.909   5.060
28228SOL     OW86457  10.514   5.015  13.231
28228SOL    HW186458  10.531   5.067  13.152
28228SOL    HW286459  10.443   4.956  13.206
28229SOL     OW86460   8.640   5.184   9.326
28229SOL    HW186461   8.569   5.151   9.270
28229SOL    HW286462   8.629   5.138   9.408
28230SOL     OW86463  14.259   2.232  11.437
28230SOL    HW186464  14.286   2.243  11.346
28230SOL    HW286465  14.339   2.207  11.483
28231SOL     OW86466   3.199   1.793   0.934
28231SOL    HW186467   3.179   1.728   0.867
28231SOL    HW286468   3.266   1.752   0.988
28232SOL     OW86469   3.422   1.900  10.421
28232SOL    HW186470   3.401   1.832  10.358
28232SOL    HW286471   3.415   1.982  10.372
28233SOL     OW86472   7.037   4.932   7.409
28233SOL    HW186473   7.101   4.883   7.358
28233SOL    HW286474   6.971   4.867   7.434
28234SOL     OW86475   3.910   2.364   3.672
28234SOL    HW186476   3.820   2.397   3.673
28234SOL    HW286477   3.957   2.425   3.614
28235SOL     OW86478   0.472  11.879   3.151
28235SOL    HW186479   0.557  11.922   3.161
28235SOL    HW286480   0.439  11.910   3.067
28236SOL     OW86481   6.200   2.064   5.131
28236SOL    HW186482   6.150   2.099   5.205
28236SOL    HW286483   6.146   2.085   5.054
28237SOL     OW86484   4.073   8.666   5.710
28237SOL    HW186485   4.018   8.655   5.787
28237SOL    HW286486   4.014   8.700   5.643
28238SOL     OW86487   4.643   8.595  10.716
28238SOL    HW186488   4.707   8.544  10.664
28238SOL    HW286489   4.695   8.631  10.788
28239SOL     OW86490   2.661  10.446   8.881
28239SOL    HW186491   2.693  10.511   8.943
28239SOL    HW286492   2.596  10.492   8.829
28240SOL     OW86493   2.678   4.314  10.517
28240SOL    HW186494   2.664   4.295  10.610
28240SOL    HW286495   2.764   4.356  10.514
28241SOL     OW86496   5.659   1.212   0.070
28241SOL    HW186497   5.742   1.185   0.110
28241SOL    HW286498   5.647   1.153  14.874
28242SOL     OW86499   0.892   6.289   8.953
28242SOL    HW186500   0.928   6.225   9.014
28242SOL    HW286501   0.802   6.258   8.937
28243SOL     OW86502   2.285  10.123   7.361
28243SOL    HW186503   2.193  10.106   7.383
28243SOL    HW286504   2.327  10.139   7.446
28244SOL     OW86505  10.659   8.140   8.837
28244SOL    HW186506  10.574   8.178   8.860
28244SOL    HW286507  10.721   8.213   8.844
28245SOL     OW86508   0.896   0.539   4.301
28245SOL    HW186509   0.982   0.521   4.265
28245SOL    HW286510   0.837   0.533   4.226
28246SOL     OW86511   5.596   1.131   9.491
28246SOL    HW186512   5.651   1.063   9.452
28246SOL    HW286513   5.640   1.213   9.469
28247SOL     OW86514  10.080   6.104  14.209
28247SOL    HW186515  10.059   6.183  14.258
28247SOL    HW286516   9.995   6.062  14.194
28248SOL     OW86517   1.921   8.248   0.546
28248SOL    HW186518   1.991   8.304   0.580
28248SOL    HW286519   1.846   8.267   0.602
28249SOL     OW86520   8.070  11.720   2.472
28249SOL    HW186521   8.147  11.716   2.415
28249SOL    HW286522   8.035  11.631   2.471
28250SOL     OW86523   6.356  12.979   0.527
28250SOL    HW186524   6.363  13.070   0.498
28250SOL    HW286525   6.270  12.951   0.496
28251SOL     OW86526   0.359  14.151   1.139
28251SOL    HW186527   0.317  14.198   1.066
28251SOL    HW286528   0.391  14.070   1.100
28252SOL     OW86529   2.876   4.001   1.663
28252SOL    HW186530   2.799   3.956   1.701
28252SOL    HW286531   2.841   4.084   1.631
28253SOL     OW86532   5.485  13.982   7.124
28253SOL    HW186533   5.409  13.943   7.167
28253SOL    HW286534   5.512  13.918   7.058
28254SOL     OW86535   3.235   2.059   4.136
28254SOL    HW186536   3.283   2.140   4.115
28254SOL    HW286537   3.296   1.989   4.110
28255SOL     OW86538   5.074   4.233   7.884
28255SOL    HW186539   4.999   4.266   7.933
28255SOL    HW286540   5.137   4.207   7.952
28256SOL     OW86541   3.751   6.030   2.345
28256SOL    HW186542   3.817   5.961   2.341
28256SOL    HW286543   3.677   5.995   2.295
28257SOL     OW86544  11.751   8.831   3.888
28257SOL    HW186545  11.840   8.803   3.864
28257SOL    HW286546  11.747   8.922   3.858
28258SOL     OW86547   5.020  11.090  12.068
28258SOL    HW186548   4.965  11.158  12.105
28258SOL    HW286549   5.096  11.136  12.034
28259SOL     OW86550  12.042   3.583   9.821
28259SOL    HW186551  11.985   3.526   9.871
28259SOL    HW286552  12.129   3.543   9.826
28260SOL     OW86553  14.254   6.159  14.469
28260SOL    HW186554  14.338   6.200  14.489
28260SOL    HW286555  14.255   6.146  14.375
28261SOL     OW86556  14.751   5.524   8.437
28261SOL    HW186557  14.742   5.528   8.342
28261SOL    HW286558  14.661   5.521   8.470
28262SOL     OW86559  11.340   6.370   7.052
28262SOL    HW186560  11.377   6.444   7.006
28262SOL    HW286561  11.269   6.338   6.995
28263SOL     OW86562   6.481   5.156  10.653
28263SOL    HW186563   6.477   5.063  10.675
28263SOL    HW286564   6.452   5.161  10.562
28264SOL     OW86565   0.786   9.095   3.677
28264SOL    HW186566   0.754   9.005   3.681
28264SOL    HW286567   0.872   9.088   3.635
28265SOL     OW86568   7.590   1.893   7.177
28265SOL    HW186569   7.608   1.929   7.090
28265SOL    HW286570   7.519   1.946   7.212
28266SOL     OW86571   1.545   0.509   0.894
28266SOL    HW186572   1.628   0.542   0.928
28266SOL    HW286573   1.489   0.587   0.888
28267SOL     OW86574   2.403   3.424  12.602
28267SOL    HW186575   2.417   3.334  12.632
28267SOL    HW286576   2.322   3.420  12.552
28268SOL     OW86577   4.042   0.303  13.649
28268SOL    HW186578   4.049   0.225  13.593
28268SOL    HW286579   4.046   0.377  13.588
28269SOL     OW86580   8.148  11.279   5.611
28269SOL    HW186581   8.156  11.291   5.705
28269SOL    HW286582   8.099  11.197   5.601
28270SOL     OW86583   2.370  11.679   2.916
28270SOL    HW186584   2.456  11.638   2.922
28270SOL    HW286585   2.388  11.772   2.904
28271SOL     OW86586   6.693   0.857   4.986
28271SOL    HW186587   6.628   0.825   4.924
28271SOL    HW286588   6.667   0.947   5.004
28272SOL     OW86589   5.936   1.561   3.771
28272SOL    HW186590   5.926   1.470   3.800
28272SOL    HW286591   6.013   1.559   3.714
28273SOL     OW86592   9.411   7.445  11.196
28273SOL    HW186593   9.337   7.482  11.244
28273SOL    HW286594   9.484   7.446  11.259
28274SOL     OW86595   6.458  12.788   9.350
28274SOL    HW186596   6.477  12.878   9.322
28274SOL    HW286597   6.527  12.768   9.413
28275SOL     OW86598   3.095   0.028  12.165
28275SOL    HW186599   3.100   0.008  12.258
28275SOL    HW286600   3.009   0.068  12.153
28276SOL     OW86601   2.740   7.945  14.696
28276SOL    HW186602   2.797   7.956  14.620
28276SOL    HW286603   2.774   8.006  14.761
28277SOL     OW86604   3.591  14.129   1.532
28277SOL    HW186605   3.533  14.087   1.468
28277SOL    HW286606   3.679  14.106   1.503
28278SOL     OW86607  11.409   0.018  10.622
28278SOL    HW186608  11.341   0.059  10.676
28278SOL    HW286609  11.361  14.852  10.552
28279SOL     OW86610   2.486  11.339  13.466
28279SOL    HW186611   2.537  11.276  13.517
28279SOL    HW286612   2.545  11.413  13.454
28280SOL     OW86613   2.135  11.207   6.967
28280SOL    HW186614   2.052  11.195   6.921
28280SOL    HW286615   2.119  11.280   7.027
28281SOL     OW86616   4.523  12.264  10.227
28281SOL    HW186617   4.556  12.179  10.254
28281SOL    HW286618   4.561  12.326  10.289
28282SOL     OW86619  12.398  12.942  11.352
28282SOL    HW186620  12.328  12.916  11.292
28282SOL    HW286621  12.452  12.864  11.362
28283SOL     OW86622   3.137   5.923  10.080
28283SOL    HW186623   3.139   5.829  10.061
28283SOL    HW286624   3.124   5.928  10.175
28284SOL     OW86625   5.387   4.227  12.613
28284SOL    HW186626   5.367   4.296  12.550
28284SOL    HW286627   5.483   4.226  12.617
28285SOL     OW86628   4.013  11.378  10.631
28285SOL    HW186629   4.044  11.289  10.645
28285SOL    HW286630   3.918  11.373  10.642
28286SOL     OW86631   1.747   5.144  10.619
28286SOL    HW186632   1.785   5.056  10.630
28286SOL    HW286633   1.780   5.193  10.694
28287SOL     OW86634   3.591   8.764   3.937
28287SOL    HW186635   3.612   8.681   3.980
28287SOL    HW286636   3.500   8.781   3.961
28288SOL     OW86637   0.817  10.898   5.423
28288SOL    HW186638   0.868  10.956   5.367
28288SOL    HW286639   0.729  10.935   5.422
28289SOL     OW86640   3.475   7.909   3.412
28289SOL    HW186641   3.413   7.920   3.341
28289SOL    HW286642   3.517   7.994   3.422
28290SOL     OW86643   2.268  11.319  11.549
28290SOL    HW186644   2.278  11.399  11.600
28290SOL    HW286645   2.270  11.248  11.613
28291SOL     OW86646   7.505   1.245   6.649
28291SOL    HW186647   7.478   1.191   6.723
28291SOL    HW286648   7.568   1.191   6.601
28292SOL     OW86649   8.788  11.639  10.638
28292SOL    HW186650   8.721  11.692  10.682
28292SOL    HW286651   8.786  11.670  10.548
28293SOL     OW86652   6.841  12.470   7.563
28293SOL    HW186653   6.753  12.508   7.563
28293SOL    HW286654   6.899  12.543   7.540
28294SOL     OW86655   4.383   2.184  11.445
28294SOL    HW186656   4.324   2.112  11.422
28294SOL    HW286657   4.455   2.142  11.493
28295SOL     OW86658   6.069  13.929   3.993
28295SOL    HW186659   6.112  14.006   3.955
28295SOL    HW286660   6.125  13.856   3.968
28296SOL     OW86661  14.656   8.286  12.143
28296SOL    HW186662  14.735   8.341  12.144
28296SOL    HW286663  14.656   8.246  12.056
28297SOL     OW86664  11.469  10.326  13.797
28297SOL    HW186665  11.441  10.248  13.845
28297SOL    HW286666  11.561  10.309  13.775
28298SOL     OW86667   0.132   9.599   4.366
28298SOL    HW186668   0.064   9.551   4.318
28298SOL    HW286669   0.170   9.658   4.301
28299SOL     OW86670   0.037   8.468   6.486
28299SOL    HW186671   0.095   8.427   6.550
28299SOL    HW286672   0.089   8.537   6.445
28300SOL     OW86673   5.693   3.423  13.174
28300SOL    HW186674   5.633   3.387  13.240
28300SOL    HW286675   5.663   3.386  13.091
28301SOL     OW86676   4.707   5.646  10.963
28301SOL    HW186677   4.724   5.735  10.933
28301SOL    HW286678   4.616   5.647  10.993
28302SOL     OW86679  12.331  10.416   0.905
28302SOL    HW186680  12.391  10.482   0.937
28302SOL    HW286681  12.385  10.356   0.854
28303SOL     OW86682   1.227   0.888   6.040
28303SOL    HW186683   1.146   0.937   6.055
28303SOL    HW286684   1.279   0.903   6.118
28304SOL     OW86685   1.844   8.118   4.612
28304SOL    HW186686   1.800   8.056   4.555
28304SOL    HW286687   1.778   8.145   4.675
28305SOL     OW86688  12.101   8.761   3.548
28305SOL    HW186689  12.062   8.694   3.491
28305SOL    HW286690  12.193   8.764   3.521
28306SOL     OW86691   3.228  13.265   8.862
28306SOL    HW186692   3.263  13.177   8.876
28306SOL    HW286693   3.303  13.316   8.832
28307SOL     OW86694  10.870  12.132  10.828
28307SOL    HW186695  10.920  12.050  10.827
28307SOL    HW286696  10.789  12.110  10.874
28308SOL     OW86697  13.840   3.091   3.780
28308SOL    HW186698  13.850   3.159   3.846
28308SOL    HW286699  13.756   3.110   3.738
28309SOL     OW86700   3.416   9.341   1.779
28309SOL    HW186701   3.440   9.392   1.702
28309SOL    HW286702   3.442   9.251   1.758
28310SOL     OW86703  12.620   2.903   3.628
28310SOL    HW186704  12.609   2.941   3.715
28310SOL    HW286705  12.553   2.946   3.575
28311SOL     OW86706   7.990   5.500  13.000
28311SOL    HW186707   7.910   5.486  12.949
28311SOL    HW286708   7.970   5.577  13.054
28312SOL     OW86709  14.367   0.846   5.553
28312SOL    HW186710  14.319   0.792   5.489
28312SOL    HW286711  14.402   0.783   5.616
28313SOL     OW86712  12.488   3.792   6.489
28313SOL    HW186713  12.494   3.855   6.417
28313SOL    HW286714  12.433   3.835   6.554
28314SOL     OW86715   3.389  10.533   5.117
28314SOL    HW186716   3.357  10.483   5.042
28314SOL    HW286717   3.352  10.488   5.193
28315SOL     OW86718   5.900  12.667   8.013
28315SOL    HW186719   5.891  12.711   7.929
28315SOL    HW286720   5.922  12.737   8.074
28316SOL     OW86721   5.748   4.609   3.069
28316SOL    HW186722   5.763   4.677   3.003
28316SOL    HW286723   5.805   4.537   3.043
28317SOL     OW86724  10.896  14.348  13.030
28317SOL    HW186725  10.846  14.282  12.982
28317SOL    HW286726  10.983  14.308  13.042
28318SOL     OW86727   0.487  12.219   1.360
28318SOL    HW186728   0.464  12.310   1.344
28318SOL    HW286729   0.434  12.194   1.435
28319SOL     OW86730   9.315   8.793  12.532
28319SOL    HW186731   9.290   8.702  12.553
28319SOL    HW286732   9.396   8.785  12.482
28320SOL     OW86733  11.533   9.579   6.270
28320SOL    HW186734  11.439   9.596   6.258
28320SOL    HW286735  11.536   9.505   6.330
28321SOL     OW86736   9.404  11.445   8.849
28321SOL    HW186737   9.381  11.362   8.807
28321SOL    HW286738   9.331  11.463   8.907
28322SOL     OW86739  12.909   2.848  13.278
28322SOL    HW186740  12.872   2.856  13.191
28322SOL    HW286741  12.845   2.797  13.327
28323SOL     OW86742  11.531   4.994   5.166
28323SOL    HW186743  11.533   4.923   5.231
28323SOL    HW286744  11.449   5.041   5.185
28324SOL     OW86745   9.939   5.376   7.208
28324SOL    HW186746   9.912   5.322   7.282
28324SOL    HW286747  10.030   5.351   7.191
28325SOL     OW86748   0.897  12.482   8.624
28325SOL    HW186749   0.862  12.504   8.710
28325SOL    HW286750   0.991  12.477   8.636
28326SOL     OW86751   1.741   4.271  14.139
28326SOL    HW186752   1.655   4.230  14.132
28326SOL    HW286753   1.722   4.363  14.160
28327SOL     OW86754   1.153   6.662   4.906
28327SOL    HW186755   1.208   6.665   4.984
28327SOL    HW286756   1.082   6.602   4.929
28328SOL     OW86757   1.448   5.161   2.794
28328SOL    HW186758   1.517   5.227   2.783
28328SOL    HW286759   1.399   5.165   2.712
28329SOL     OW86760   2.791   2.383   9.053
28329SOL    HW186761   2.886   2.378   9.053
28329SOL    HW286762   2.764   2.327   8.979
28330SOL     OW86763  10.314   5.755   1.483
28330SOL    HW186764  10.330   5.791   1.570
28330SOL    HW286765  10.395   5.709   1.461
28331SOL     OW86766  11.408  12.066   2.712
28331SOL    HW186767  11.450  11.996   2.663
28331SOL    HW286768  11.466  12.083   2.785
28332SOL     OW86769  12.549   6.318   3.759
28332SOL    HW186770  12.494   6.274   3.824
28332SOL    HW286771  12.537   6.411   3.776
28333SOL     OW86772   0.228   7.835   9.482
28333SOL    HW186773   0.143   7.810   9.446
28333SOL    HW286774   0.247   7.920   9.444
28334SOL     OW86775   4.844   5.611   0.874
28334SOL    HW186776   4.930   5.627   0.913
28334SOL    HW286777   4.822   5.521   0.898
28335SOL     OW86778   4.605  14.077   6.932
28335SOL    HW186779   4.690  14.054   6.895
28335SOL    HW286780   4.607  14.172   6.940
28336SOL     OW86781  12.799   7.504   6.529
28336SOL    HW186782  12.831   7.571   6.469
28336SOL    HW286783  12.718   7.473   6.489
28337SOL     OW86784   8.860  11.157   9.868
28337SOL    HW186785   8.848  11.079   9.814
28337SOL    HW286786   8.895  11.124   9.951
28338SOL     OW86787   6.701   5.763   2.045
28338SOL    HW186788   6.690   5.682   2.094
28338SOL    HW286789   6.781   5.802   2.081
28339SOL     OW86790   6.836   4.476   9.705
28339SOL    HW186791   6.884   4.520   9.775
28339SOL    HW286792   6.780   4.413   9.751
28340SOL     OW86793   1.482   6.528   5.690
28340SOL    HW186794   1.561   6.572   5.721
28340SOL    HW286795   1.442   6.491   5.769
28341SOL     OW86796  10.022  11.327   7.604
28341SOL    HW186797   9.931  11.302   7.620
28341SOL    HW286798  10.016  11.411   7.557
28342SOL     OW86799   9.208   7.720   4.015
28342SOL    HW186800   9.218   7.800   3.964
28342SOL    HW286801   9.211   7.750   4.106
28343SOL     OW86802  14.749  11.761  12.165
28343SOL    HW186803  14.653  11.760  12.155
28343SOL    HW286804  14.764  11.727  12.253
28344SOL     OW86805   4.911  14.032  10.237
28344SOL    HW186806   4.975  13.962  10.221
28344SOL    HW286807   4.832  14.004  10.193
28345SOL     OW86808   7.496   3.602  11.515
28345SOL    HW186809   7.536   3.678  11.473
28345SOL    HW286810   7.526   3.607  11.606
28346SOL     OW86811   8.298   0.434   7.003
28346SOL    HW186812   8.300   0.529   7.011
28346SOL    HW286813   8.218   0.407   7.047
28347SOL     OW86814  11.890   9.788   3.983
28347SOL    HW186815  11.952   9.718   4.001
28347SOL    HW286816  11.809   9.742   3.958
28348SOL     OW86817   8.864   1.754   1.322
28348SOL    HW186818   8.882   1.807   1.399
28348SOL    HW286819   8.769   1.755   1.313
28349SOL     OW86820   1.516   2.765  14.520
28349SOL    HW186821   1.589   2.703  14.516
28349SOL    HW286822   1.534   2.828  14.450
28350SOL     OW86823   7.731   4.909   3.567
28350SOL    HW186824   7.683   4.957   3.635
28350SOL    HW286825   7.662   4.867   3.515
28351SOL     OW86826   9.526  13.829   0.075
28351SOL    HW186827   9.527  13.859   0.165
28351SOL    HW286828   9.456  13.764   0.072
28352SOL     OW86829   0.680   2.868   1.139
28352SOL    HW186830   0.724   2.926   1.201
28352SOL    HW286831   0.652   2.792   1.191
28353SOL     OW86832   0.546  11.759  11.701
28353SOL    HW186833   0.494  11.682  11.721
28353SOL    HW286834   0.486  11.818  11.656
28354SOL     OW86835   3.494   3.324   0.043
28354SOL    HW186836   3.539   3.319  14.837
28354SOL    HW286837   3.512   3.413   0.074
28355SOL     OW86838   8.750   8.385  13.334
28355SOL    HW186839   8.759   8.332  13.256
28355SOL    HW286840   8.684   8.339  13.387
28356SOL     OW86841  10.463   1.422   5.583
28356SOL    HW186842  10.549   1.459   5.566
28356SOL    HW286843  10.407   1.497   5.603
28357SOL     OW86844   6.455  13.611  13.718
28357SOL    HW186845   6.392  13.595  13.788
28357SOL    HW286846   6.437  13.544  13.652
28358SOL     OW86847  11.180   0.280   8.106
28358SOL    HW186848  11.191   0.371   8.079
28358SOL    HW286849  11.260   0.259   8.153
28359SOL     OW86850   4.062   1.503  13.879
28359SOL    HW186851   4.138   1.445  13.883
28359SOL    HW286852   3.999   1.457  13.824
28360SOL     OW86853  12.876   3.828  11.507
28360SOL    HW186854  12.791   3.786  11.521
28360SOL    HW286855  12.879   3.897  11.574
28361SOL     OW86856   1.305  10.067   9.423
28361SOL    HW186857   1.399  10.079   9.409
28361SOL    HW286858   1.279  10.003   9.357
28362SOL     OW86859  10.891   9.546  14.858
28362SOL    HW186860  10.820   9.483  14.843
28362SOL    HW286861  10.846   9.624   0.012
28363SOL     OW86862  10.156   6.057   8.100
28363SOL    HW186863  10.213   6.099   8.036
28363SOL    HW286864  10.182   6.096   8.184
28364SOL     OW86865  11.893   1.531   7.748
28364SOL    HW186866  11.944   1.450   7.752
28364SOL    HW286867  11.861   1.544   7.837
28365SOL     OW86868   2.946   7.704   1.994
28365SOL    HW186869   2.889   7.629   2.009
28365SOL    HW286870   2.900   7.757   1.929
28366SOL     OW86871   5.511   0.347   1.727
28366SOL    HW186872   5.431   0.298   1.748
28366SOL    HW286873   5.558   0.292   1.665
28367SOL     OW86874  10.202   0.806   1.154
28367SOL    HW186875  10.114   0.830   1.125
28367SOL    HW286876  10.199   0.711   1.164
28368SOL     OW86877  14.529   3.322   5.848
28368SOL    HW186878  14.448   3.300   5.802
28368SOL    HW286879  14.547   3.245   5.902
28369SOL     OW86880   7.556   3.757  13.246
28369SOL    HW186881   7.531   3.850  13.239
28369SOL    HW286882   7.542   3.735  13.338
28370SOL     OW86883  10.066   6.275   2.964
28370SOL    HW186884  10.033   6.277   2.874
28370SOL    HW286885  10.059   6.183   2.990
28371SOL     OW86886  10.115  13.968   0.573
28371SOL    HW186887  10.146  13.988   0.661
28371SOL    HW286888  10.063  13.889   0.583
28372SOL     OW86889  12.243   7.005   8.774
28372SOL    HW186890  12.281   7.043   8.853
28372SOL    HW286891  12.317   6.997   8.714
28373SOL     OW86892   3.293   1.084   4.244
28373SOL    HW186893   3.227   1.015   4.245
28373SOL    HW286894   3.245   1.164   4.264
28374SOL     OW86895   2.424  13.050  11.921
28374SOL    HW186896   2.465  13.129  11.888
28374SOL    HW286897   2.350  13.034  11.863
28375SOL     OW86898   3.393   2.893   3.356
28375SOL    HW186899   3.472   2.869   3.404
28375SOL    HW286900   3.343   2.947   3.418
28376SOL     OW86901   6.845  13.161   4.062
28376SOL    HW186902   6.763  13.149   4.014
28376SOL    HW286903   6.823  13.144   4.153
28377SOL     OW86904   7.542   1.639   3.153
28377SOL    HW186905   7.635   1.615   3.158
28377SOL    HW286906   7.519   1.661   3.243
28378SOL     OW86907  14.075   5.277   8.279
28378SOL    HW186908  14.090   5.353   8.223
28378SOL    HW286909  14.070   5.203   8.219
28379SOL     OW86910   8.255   4.548  12.143
28379SOL    HW186911   8.216   4.531  12.228
28379SOL    HW286912   8.278   4.642  12.145
28380SOL     OW86913   9.175   1.164   1.098
28380SOL    HW186914   9.189   1.075   1.131
28380SOL    HW286915   9.218   1.166   1.013
28381SOL     OW86916   8.176   1.832   3.150
28381SOL    HW186917   8.096   1.879   3.125
28381SOL    HW286918   8.246   1.895   3.134
28382SOL     OW86919   3.803  13.203   3.249
28382SOL    HW186920   3.711  13.188   3.227
28382SOL    HW286921   3.847  13.210   3.164
28383SOL     OW86922   4.531   8.237   0.542
28383SOL    HW186923   4.613   8.286   0.537
28383SOL    HW286924   4.551   8.163   0.600
28384SOL     OW86925  13.411   4.802  14.803
28384SOL    HW186926  13.383   4.845   0.006
28384SOL    HW286927  13.392   4.709  14.817
28385SOL     OW86928   7.585   1.988   8.966
28385SOL    HW186929   7.671   2.013   8.931
28385SOL    HW286930   7.526   1.996   8.891
28386SOL     OW86931  10.761   7.492  14.408
28386SOL    HW186932  10.691   7.466  14.348
28386SOL    HW286933  10.764   7.422  14.473
28387SOL     OW86934   3.038   7.919   6.153
28387SOL    HW186935   3.013   7.841   6.104
28387SOL    HW286936   3.124   7.898   6.189
28388SOL     OW86937  14.793   8.170   4.440
28388SOL    HW186938  14.784   8.094   4.382
28388SOL    HW286939  14.845   8.138   4.513
28389SOL     OW86940  12.013   3.414  13.196
28389SOL    HW186941  11.926   3.374  13.199
28389SOL    HW286942  12.071   3.347  13.233
28390SOL     OW86943  12.832   7.639  10.683
28390SOL    HW186944  12.784   7.690  10.619
28390SOL    HW286945  12.920   7.631  10.645
28391SOL     OW86946   9.380  14.486   8.115
28391SOL    HW186947   9.463  14.534   8.123
28391SOL    HW286948   9.319  14.550   8.078
28392SOL     OW86949   3.183   3.982   4.957
28392SOL    HW186950   3.098   3.989   4.914
28392SOL    HW286951   3.196   3.888   4.969
28393SOL     OW86952   5.034  14.022  12.733
28393SOL    HW186953   4.960  13.983  12.779
28393SOL    HW286954   4.995  14.081  12.669
28394SOL     OW86955   6.364   0.490   6.537
28394SOL    HW186956   6.295   0.455   6.594
28394SOL    HW286957   6.328   0.483   6.449
28395SOL     OW86958  12.575  13.363  10.938
28395SOL    HW186959  12.616  13.295  10.883
28395SOL    HW286960  12.501  13.393  10.886
28396SOL     OW86961  14.157  10.262   7.267
28396SOL    HW186962  14.172  10.173   7.236
28396SOL    HW286963  14.238  10.286   7.312
28397SOL     OW86964  12.539   1.391   9.014
28397SOL    HW186965  12.502   1.477   9.033
28397SOL    HW286966  12.583   1.364   9.094
28398SOL     OW86967   2.955  11.311   8.795
28398SOL    HW186968   3.037  11.352   8.765
28398SOL    HW286969   2.918  11.273   8.716
28399SOL     OW86970  11.222   8.938   1.830
28399SOL    HW186971  11.156   8.961   1.895
28399SOL    HW286972  11.302   8.981   1.860
28400SOL     OW86973  14.538   8.721   3.138
28400SOL    HW186974  14.581   8.802   3.109
28400SOL    HW286975  14.528   8.732   3.232
28401SOL     OW86976   6.988  12.457   9.836
28401SOL    HW186977   7.029  12.480   9.753
28401SOL    HW286978   6.923  12.525   9.851
28402SOL     OW86979   2.353   2.996  13.608
28402SOL    HW186980   2.328   3.019  13.697
28402SOL    HW286981   2.404   2.915  13.618
28403SOL     OW86982   8.750   0.070   3.792
28403SOL    HW186983   8.834   0.048   3.752
28403SOL    HW286984   8.762   0.055   3.885
28404SOL     OW86985   8.625   3.281   6.533
28404SOL    HW186986   8.547   3.262   6.480
28404SOL    HW286987   8.685   3.208   6.514
28405SOL     OW86988  13.169  11.638  13.418
28405SOL    HW186989  13.182  11.600  13.331
28405SOL    HW286990  13.138  11.565  13.471
28406SOL     OW86991   9.574   2.232  10.899
28406SOL    HW186992   9.568   2.141  10.870
28406SOL    HW286993   9.656   2.264  10.862
28407SOL     OW86994   6.010   6.452  14.267
28407SOL    HW186995   6.038   6.378  14.214
28407SOL    HW286996   6.041   6.529  14.220
28408SOL     OW86997   0.277   7.262   4.675
28408SOL    HW186998   0.212   7.281   4.607
28408SOL    HW286999   0.248   7.180   4.714
28409SOL     OW87000   7.796   6.462   4.553
28409SOL    HW187001   7.707   6.425   4.551
28409SOL    HW287002   7.850   6.392   4.588
28410SOL     OW87003   4.025   4.895   2.976
28410SOL    HW187004   3.981   4.975   2.948
28410SOL    HW287005   4.091   4.925   3.039
28411SOL     OW87006   9.015   6.963  12.258
28411SOL    HW187007   8.976   6.922  12.182
28411SOL    HW287008   9.099   6.998  12.226
28412SOL     OW87009   8.534  11.680   5.106
28412SOL    HW187010   8.572  11.760   5.068
28412SOL    HW287011   8.512  11.626   5.030
28413SOL     OW87012  10.083  13.694   0.651
28413SOL    HW187013  10.012  13.636   0.679
28413SOL    HW287014  10.102  13.666   0.561
28414SOL     OW87015   9.326  10.865  13.897
28414SOL    HW187016   9.368  10.838  13.816
28414SOL    HW287017   9.388  10.927  13.936
28415SOL     OW87018   2.327   1.574   1.220
28415SOL    HW187019   2.382   1.649   1.246
28415SOL    HW287020   2.313   1.587   1.126
28416SOL     OW87021   9.517  12.783  12.000
28416SOL    HW187022   9.535  12.695  12.033
28416SOL    HW287023   9.451  12.770  11.932
28417SOL     OW87024   0.204   9.964   5.385
28417SOL    HW187025   0.181   9.875   5.411
28417SOL    HW287026   0.299   9.960   5.370
28418SOL     OW87027  13.425  14.091   7.289
28418SOL    HW187028  13.400  14.031   7.219
28418SOL    HW287029  13.513  14.062   7.315
28419SOL     OW87030   7.695   1.424   4.205
28419SOL    HW187031   7.698   1.379   4.121
28419SOL    HW287032   7.771   1.482   4.205
28420SOL     OW87033   1.090   5.670   0.984
28420SOL    HW187034   1.128   5.719   1.056
28420SOL    HW287035   0.998   5.660   1.006
28421SOL     OW87036   5.677   2.031   7.548
28421SOL    HW187037   5.740   2.024   7.619
28421SOL    HW287038   5.618   1.958   7.560
28422SOL     OW87039   8.390   4.638   5.038
28422SOL    HW187040   8.433   4.661   5.120
28422SOL    HW287041   8.461   4.612   4.980
28423SOL     OW87042  11.021   1.630   8.100
28423SOL    HW187043  10.930   1.642   8.071
28423SOL    HW287044  11.035   1.698   8.165
28424SOL     OW87045  14.756  12.620   0.383
28424SOL    HW187046  14.837  12.598   0.335
28424SOL    HW287047  14.725  12.700   0.341
28425SOL     OW87048  13.679   8.034  10.163
28425SOL    HW187049  13.745   8.103  10.171
28425SOL    HW287050  13.683   7.988  10.247
28426SOL     OW87051   5.060   5.829   5.571
28426SOL    HW187052   4.984   5.835   5.515
28426SOL    HW287053   5.034   5.768   5.641
28427SOL     OW87054   9.278   3.362   4.972
28427SOL    HW187055   9.233   3.279   4.952
28427SOL    HW287056   9.296   3.400   4.886
28428SOL     OW87057   2.401  14.643  11.023
28428SOL    HW187058   2.356  14.637  11.108
28428SOL    HW287059   2.390  14.733  10.996
28429SOL     OW87060   4.058  11.468   9.193
28429SOL    HW187061   4.000  11.543   9.202
28429SOL    HW287062   4.025  11.421   9.116
28430SOL     OW87063   1.927   0.968  14.303
28430SOL    HW187064   1.917   0.875  14.324
28430SOL    HW287065   2.017   0.989  14.327
28431SOL     OW87066  14.353  14.114  10.107
28431SOL    HW187067  14.373  14.024  10.134
28431SOL    HW287068  14.399  14.124  10.023
28432SOL     OW87069  10.135   8.904   2.025
28432SOL    HW187070  10.217   8.906   1.976
28432SOL    HW287071  10.069   8.936   1.963
28433SOL     OW87072  12.705   8.921   3.402
28433SOL    HW187073  12.773   8.939   3.337
28433SOL    HW287074  12.623   8.924   3.352
28434SOL     OW87075   7.568  10.771   4.260
28434SOL    HW187076   7.609  10.790   4.175
28434SOL    HW287077   7.556  10.676   4.259
28435SOL     OW87078   7.328  10.187  11.321
28435SOL    HW187079   7.357  10.193  11.412
28435SOL    HW287080   7.252  10.245  11.315
28436SOL     OW87081  11.216  12.931   0.579
28436SOL    HW187082  11.223  12.853   0.634
28436SOL    HW287083  11.215  13.005   0.640
28437SOL     OW87084   6.838  10.708  12.907
28437SOL    HW187085   6.790  10.768  12.850
28437SOL    HW287086   6.930  10.728  12.890
28438SOL     OW87087   9.780   5.789  11.964
28438SOL    HW187088   9.843   5.721  11.989
28438SOL    HW287089   9.695   5.748  11.974
28439SOL     OW87090   0.097   4.878   9.233
28439SOL    HW187091   0.183   4.866   9.194
28439SOL    HW287092   0.035   4.861   9.162
28440SOL     OW87093   2.597  10.934   0.412
28440SOL    HW187094   2.544  10.953   0.334
28440SOL    HW287095   2.659  11.007   0.418
28441SOL     OW87096   2.820  13.685  12.804
28441SOL    HW187097   2.907  13.663  12.771
28441SOL    HW287098   2.797  13.766  12.759
28442SOL     OW87099   8.133   8.758  12.913
28442SOL    HW187100   8.090   8.836  12.878
28442SOL    HW287101   8.206   8.742  12.853
28443SOL     OW87102  13.501  10.469   6.701
28443SOL    HW187103  13.425  10.415   6.682
28443SOL    HW287104  13.572  10.406   6.715
28444SOL     OW87105  12.445  11.863   2.173
28444SOL    HW187106  12.471  11.935   2.116
28444SOL    HW287107  12.453  11.899   2.262
28445SOL     OW87108   3.489   6.236  11.150
28445SOL    HW187109   3.488   6.282  11.234
28445SOL    HW287110   3.404   6.255  11.110
28446SOL     OW87111  10.187  10.414  12.904
28446SOL    HW187112  10.214  10.410  12.812
28446SOL    HW287113  10.094  10.394  12.902
28447SOL     OW87114   2.268   6.396   8.272
28447SOL    HW187115   2.334   6.359   8.331
28447SOL    HW287116   2.262   6.333   8.200
28448SOL     OW87117   8.492  10.404  13.313
28448SOL    HW187118   8.471  10.424  13.404
28448SOL    HW287119   8.416  10.436  13.264
28449SOL     OW87120   1.251  14.043   7.920
28449SOL    HW187121   1.256  14.049   7.824
28449SOL    HW287122   1.204  13.961   7.936
28450SOL     OW87123   6.120  13.037  11.363
28450SOL    HW187124   6.214  13.055  11.363
28450SOL    HW287125   6.080  13.121  11.338
28451SOL     OW87126   5.949  14.176   9.948
28451SOL    HW187127   6.008  14.102   9.933
28451SOL    HW287128   5.911  14.194   9.862
28452SOL     OW87129  12.171  13.071   0.350
28452SOL    HW187130  12.088  13.093   0.392
28452SOL    HW287131  12.178  13.132   0.277
28453SOL     OW87132   7.566  13.620   1.012
28453SOL    HW187133   7.533  13.544   1.060
28453SOL    HW287134   7.618  13.583   0.941
28454SOL     OW87135   1.523   6.797  10.867
28454SOL    HW187136   1.546   6.811  10.959
28454SOL    HW287137   1.428   6.787  10.868
28455SOL     OW87138   2.251   8.587   6.130
28455SOL    HW187139   2.273   8.567   6.221
28455SOL    HW287140   2.323   8.550   6.080
28456SOL     OW87141   1.060  14.028  10.760
28456SOL    HW187142   1.129  14.095  10.758
28456SOL    HW287143   0.991  14.064  10.705
28457SOL     OW87144   0.291   2.051   3.028
28457SOL    HW187145   0.334   1.994   3.091
28457SOL    HW287146   0.199   2.025   3.032
28458SOL     OW87147  12.135   6.273  14.633
28458SOL    HW187148  12.044   6.268  14.602
28458SOL    HW287149  12.187   6.250  14.556
28459SOL     OW87150   1.690  10.925   7.296
28459SOL    HW187151   1.723  10.959   7.212
28459SOL    HW287152   1.622  10.987   7.322
28460SOL     OW87153   8.451   0.314  10.009
28460SOL    HW187154   8.481   0.301   9.919
28460SOL    HW287155   8.427   0.227  10.039
28461SOL     OW87156   1.264   8.110   1.925
28461SOL    HW187157   1.172   8.109   1.900
28461SOL    HW287158   1.307   8.160   1.856
28462SOL     OW87159   4.494   6.937   2.842
28462SOL    HW187160   4.407   6.920   2.877
28462SOL    HW287161   4.519   6.854   2.800
28463SOL     OW87162   4.369   7.591   1.117
28463SOL    HW187163   4.359   7.509   1.068
28463SOL    HW287164   4.282   7.609   1.153
28464SOL     OW87165   4.566   4.327   9.086
28464SOL    HW187166   4.495   4.389   9.103
28464SOL    HW287167   4.587   4.291   9.172
28465SOL     OW87168  11.900  13.231   6.035
28465SOL    HW187169  11.879  13.223   6.128
28465SOL    HW287170  11.826  13.278   5.998
28466SOL     OW87171  10.617  12.794   8.746
28466SOL    HW187172  10.636  12.714   8.795
28466SOL    HW287173  10.620  12.768   8.654
28467SOL     OW87174  14.134   2.229   7.964
28467SOL    HW187175  14.154   2.309   7.914
28467SOL    HW287176  14.199   2.228   8.034
28468SOL     OW87177   4.305  14.253  12.917
28468SOL    HW187178   4.280  14.265  12.825
28468SOL    HW287179   4.348  14.335  12.941
28469SOL     OW87180  14.400   8.544   6.020
28469SOL    HW187181  14.354   8.469   5.982
28469SOL    HW287182  14.399   8.528   6.114
28470SOL     OW87183   2.397  14.198  11.255
28470SOL    HW187184   2.354  14.198  11.341
28470SOL    HW287185   2.343  14.254  11.201
28471SOL     OW87186   3.729   3.455   2.469
28471SOL    HW187187   3.732   3.473   2.375
28471SOL    HW287188   3.639   3.428   2.486
28472SOL     OW87189  10.906   0.945   8.543
28472SOL    HW187190  10.968   1.011   8.511
28472SOL    HW287191  10.923   0.941   8.638
28473SOL     OW87192  12.022  14.752   0.923
28473SOL    HW187193  12.084  14.738   0.852
28473SOL    HW287194  12.007  14.665   0.960
28474SOL     OW87195   0.264   9.421  11.477
28474SOL    HW187196   0.305   9.352  11.529
28474SOL    HW287197   0.245   9.490  11.541
28475SOL     OW87198   4.908   7.609   1.911
28475SOL    HW187199   4.924   7.700   1.937
28475SOL    HW287200   4.901   7.561   1.993
28476SOL     OW87201  12.516   8.511  14.136
28476SOL    HW187202  12.553   8.458  14.207
28476SOL    HW287203  12.577   8.583  14.124
28477SOL     OW87204   2.634   0.919   1.016
28477SOL    HW187205   2.632   0.833   0.974
28477SOL    HW287206   2.571   0.971   0.967
28478SOL     OW87207   9.040   7.425   1.165
28478SOL    HW187208   9.123   7.441   1.119
28478SOL    HW287209   9.002   7.512   1.176
28479SOL     OW87210   1.754  14.747   5.599
28479SOL    HW187211   1.823  14.740   5.533
28479SOL    HW287212   1.729  14.657   5.619
28480SOL     OW87213  11.801  11.328   7.791
28480SOL    HW187214  11.717  11.307   7.749
28480SOL    HW287215  11.855  11.363   7.720
28481SOL     OW87216   6.626   9.236   8.615
28481SOL    HW187217   6.623   9.145   8.646
28481SOL    HW287218   6.672   9.282   8.685
28482SOL     OW87219  12.941   4.371   3.494
28482SOL    HW187220  12.947   4.449   3.438
28482SOL    HW287221  12.950   4.298   3.433
28483SOL     OW87222   5.993  11.859   4.710
28483SOL    HW187223   6.059  11.916   4.673
28483SOL    HW287224   5.933  11.917   4.757
28484SOL     OW87225   3.209   4.805  13.787
28484SOL    HW187226   3.298   4.838  13.799
28484SOL    HW287227   3.217   4.738  13.720
28485SOL     OW87228   9.637   9.493  12.467
28485SOL    HW187229   9.613   9.429  12.534
28485SOL    HW287230   9.645   9.575  12.515
28486SOL     OW87231   6.679  10.566   5.176
28486SOL    HW187232   6.705  10.614   5.097
28486SOL    HW287233   6.585  10.582   5.183
28487SOL     OW87234  12.926   5.642   4.056
28487SOL    HW187235  12.988   5.629   3.984
28487SOL    HW287236  12.853   5.690   4.016
28488SOL     OW87237  13.391  10.931   9.181
28488SOL    HW187238  13.441  11.012   9.182
28488SOL    HW287239  13.451  10.866   9.144
28489SOL     OW87240  14.390   6.483  11.875
28489SOL    HW187241  14.456   6.551  11.884
28489SOL    HW287242  14.306   6.530  11.884
28490SOL     OW87243  13.481   1.913   6.494
28490SOL    HW187244  13.486   1.902   6.399
28490SOL    HW287245  13.421   1.987   6.507
28491SOL     OW87246   4.779   1.878   7.691
28491SOL    HW187247   4.856   1.840   7.734
28491SOL    HW287248   4.765   1.824   7.614
28492SOL     OW87249   1.925   7.926   7.815
28492SOL    HW187250   1.934   8.019   7.793
28492SOL    HW287251   1.862   7.893   7.752
28493SOL     OW87252  11.488   8.407   3.392
28493SOL    HW187253  11.449   8.492   3.413
28493SOL    HW287254  11.452   8.383   3.307
28494SOL     OW87255  10.601   4.254   6.953
28494SOL    HW187256  10.567   4.169   6.981
28494SOL    HW287257  10.551   4.275   6.875
28495SOL     OW87258  10.964  12.110   0.098
28495SOL    HW187259  10.904  12.118   0.024
28495SOL    HW287260  10.911  12.072   0.168
28496SOL     OW87261  14.006   9.720   6.405
28496SOL    HW187262  13.986   9.814   6.410
28496SOL    HW287263  14.055   9.711   6.323
28497SOL     OW87264  11.344   7.088   5.496
28497SOL    HW187265  11.333   7.018   5.561
28497SOL    HW287266  11.428   7.128   5.519
28498SOL     OW87267   5.497  11.539   0.531
28498SOL    HW187268   5.521  11.447   0.523
28498SOL    HW287269   5.478  11.567   0.442
28499SOL     OW87270   4.154   2.652   1.395
28499SOL    HW187271   4.162   2.642   1.300
28499SOL    HW287272   4.061   2.670   1.408
28500SOL     OW87273   0.849  12.732   4.696
28500SOL    HW187274   0.931  12.715   4.742
28500SOL    HW287275   0.847  12.827   4.686
28501SOL     OW87276   7.698   3.181   6.555
28501SOL    HW187277   7.645   3.228   6.491
28501SOL    HW287278   7.693   3.235   6.634
28502SOL     OW87279   1.570   6.662  12.067
28502SOL    HW187280   1.478   6.637  12.078
28502SOL    HW287281   1.600   6.610  11.993
28503SOL     OW87282   4.736   4.958   9.024
28503SOL    HW187283   4.745   5.053   9.022
28503SOL    HW287284   4.691   4.936   8.942
28504SOL     OW87285   8.635   3.249  10.725
28504SOL    HW187286   8.678   3.248  10.810
28504SOL    HW287287   8.628   3.341  10.702
28505SOL     OW87288   2.138   4.107   4.780
28505SOL    HW187289   2.147   4.091   4.686
28505SOL    HW287290   2.211   4.165   4.802
28506SOL     OW87291   7.126   9.592   6.754
28506SOL    HW187292   7.132   9.506   6.795
28506SOL    HW287293   7.206   9.638   6.782
28507SOL     OW87294   5.059  11.622  10.318
28507SOL    HW187295   5.109  11.560  10.264
28507SOL    HW287296   5.063  11.705  10.270
28508SOL     OW87297   1.553   0.538  10.624
28508SOL    HW187298   1.491   0.578  10.685
28508SOL    HW287299   1.632   0.592  10.632
28509SOL     OW87300  12.132   8.685  12.539
28509SOL    HW187301  12.125   8.660  12.631
28509SOL    HW287302  12.212   8.737  12.535
28510SOL     OW87303   7.914  13.253   2.882
28510SOL    HW187304   7.988  13.298   2.921
28510SOL    HW287305   7.946  13.223   2.797
28511SOL     OW87306   4.905  13.954   3.225
28511SOL    HW187307   4.926  14.042   3.196
28511SOL    HW287308   4.989  13.914   3.247
28512SOL     OW87309  13.595   3.258   2.393
28512SOL    HW187310  13.514   3.243   2.342
28512SOL    HW287311  13.574   3.332   2.449
28513SOL     OW87312  11.316   2.175  11.473
28513SOL    HW187313  11.317   2.232  11.397
28513SOL    HW287314  11.311   2.235  11.548
28514SOL     OW87315  12.494   2.628   2.008
28514SOL    HW187316  12.538   2.545   2.026
28514SOL    HW287317  12.455   2.653   2.091
28515SOL     OW87318   8.918   6.526   1.271
28515SOL    HW187319   8.989   6.515   1.208
28515SOL    HW287320   8.950   6.485   1.351
28516SOL     OW87321   3.564  11.107   5.362
28516SOL    HW187322   3.477  11.127   5.328
28516SOL    HW287323   3.594  11.189   5.401
28517SOL     OW87324   1.656   7.863  12.579
28517SOL    HW187325   1.571   7.825  12.604
28517SOL    HW287326   1.667   7.840  12.487
28518SOL     OW87327   5.002  11.832  12.854
28518SOL    HW187328   4.967  11.917  12.880
28518SOL    HW287329   5.097  11.839  12.870
28519SOL     OW87330   4.548   9.316   9.998
28519SOL    HW187331   4.453   9.316   9.980
28519SOL    HW287332   4.557   9.264  10.078
28520SOL     OW87333   4.207   2.573   8.013
28520SOL    HW187334   4.178   2.527   7.934
28520SOL    HW287335   4.172   2.521   8.085
28521SOL     OW87336   9.969   7.572   6.834
28521SOL    HW187337   9.939   7.564   6.744
28521SOL    HW287338  10.061   7.597   6.826
28522SOL     OW87339   9.851   1.426  13.075
28522SOL    HW187340   9.783   1.480  13.035
28522SOL    HW287341   9.812   1.338  13.077
28523SOL     OW87342   5.529   5.567   1.584
28523SOL    HW187343   5.623   5.564   1.566
28523SOL    HW287344   5.513   5.494   1.643
28524SOL     OW87345   8.200   4.200   9.103
28524SOL    HW187346   8.261   4.129   9.128
28524SOL    HW287347   8.153   4.165   9.028
28525SOL     OW87348   1.828   8.792  11.533
28525SOL    HW187349   1.885   8.721  11.562
28525SOL    HW287350   1.740   8.756  11.536
28526SOL     OW87351   1.448   0.669   3.719
28526SOL    HW187352   1.459   0.591   3.665
28526SOL    HW287353   1.484   0.645   3.805
28527SOL     OW87354   0.922  14.553  11.766
28527SOL    HW187355   0.903  14.560  11.859
28527SOL    HW287356   0.981  14.626  11.747
28528SOL     OW87357   8.790   7.124  10.756
28528SOL    HW187358   8.840   7.133  10.675
28528SOL    HW287359   8.725   7.194  10.752
28529SOL     OW87360  12.085  11.430   1.721
28529SOL    HW187361  12.066  11.438   1.815
28529SOL    HW287362  11.999  11.419   1.680
28530SOL     OW87363   8.654  14.707   8.487
28530SOL    HW187364   8.653  14.694   8.581
28530SOL    HW287365   8.711  14.638   8.454
28531SOL     OW87366   7.792   2.520  13.664
28531SOL    HW187367   7.788   2.505  13.569
28531SOL    HW287368   7.703   2.544  13.689
28532SOL     OW87369   1.609   5.393  12.131
28532SOL    HW187370   1.656   5.470  12.099
28532SOL    HW287371   1.600   5.336  12.055
28533SOL     OW87372   2.131   4.813   6.655
28533SOL    HW187373   2.121   4.893   6.707
28533SOL    HW287374   2.098   4.837   6.568
28534SOL     OW87375   5.454  13.774   6.972
28534SOL    HW187376   5.433  13.796   6.882
28534SOL    HW287377   5.369  13.759   7.013
28535SOL     OW87378  10.672  13.130  13.919
28535SOL    HW187379  10.584  13.168  13.913
28535SOL    HW287380  10.731  13.205  13.910
28536SOL     OW87381  10.334   3.810   9.606
28536SOL    HW187382  10.245   3.809   9.642
28536SOL    HW287383  10.376   3.733   9.644
28537SOL     OW87384   7.484  14.119   9.232
28537SOL    HW187385   7.562  14.075   9.199
28537SOL    HW287386   7.411  14.065   9.201
28538SOL     OW87387   9.183  10.325   7.258
28538SOL    HW187388   9.126  10.287   7.324
28538SOL    HW287389   9.267  10.336   7.303
28539SOL     OW87390   8.018   3.336  11.759
28539SOL    HW187391   7.956   3.337  11.686
28539SOL    HW287392   8.032   3.429  11.779
28540SOL     OW87393   8.185  10.441   1.013
28540SOL    HW187394   8.200  10.489   1.094
28540SOL    HW287395   8.248  10.370   1.014
28541SOL     OW87396   6.174   6.542   9.600
28541SOL    HW187397   6.212   6.506   9.680
28541SOL    HW287398   6.087   6.503   9.595
28542SOL     OW87399   0.202   3.879   0.256
28542SOL    HW187400   0.274   3.834   0.212
28542SOL    HW287401   0.161   3.811   0.310
28543SOL     OW87402   1.315   3.592   1.981
28543SOL    HW187403   1.318   3.556   2.069
28543SOL    HW287404   1.391   3.649   1.976
28544SOL     OW87405  11.765   5.197   0.209
28544SOL    HW187406  11.758   5.107   0.239
28544SOL    HW287407  11.809   5.191   0.124
28545SOL     OW87408   6.920   5.078   2.557
28545SOL    HW187409   7.003   5.126   2.548
28545SOL    HW287410   6.854   5.141   2.528
28546SOL     OW87411   6.272   2.877  13.513
28546SOL    HW187412   6.192   2.823  13.514
28546SOL    HW287413   6.336   2.824  13.560
28547SOL     OW87414  14.711   3.249   0.368
28547SOL    HW187415  14.756   3.297   0.299
28547SOL    HW287416  14.624   3.289   0.373
28548SOL     OW87417  13.188   2.421  10.595
28548SOL    HW187418  13.170   2.336  10.635
28548SOL    HW287419  13.189   2.483  10.668
28549SOL     OW87420   3.981  12.872   7.891
28549SOL    HW187421   4.009  12.964   7.886
28549SOL    HW287422   4.060  12.822   7.871
28550SOL     OW87423   4.097   2.888   6.291
28550SOL    HW187424   4.068   2.979   6.285
28550SOL    HW287425   4.108   2.872   6.385
28551SOL     OW87426   5.802   8.969  14.157
28551SOL    HW187427   5.776   8.910  14.087
28551SOL    HW287428   5.842   8.912  14.223
28552SOL     OW87429  14.268  12.881  12.790
28552SOL    HW187430  14.192  12.855  12.738
28552SOL    HW287431  14.321  12.934  12.730
28553SOL     OW87432   8.210   0.113   0.494
28553SOL    HW187433   8.168   0.032   0.463
28553SOL    HW287434   8.238   0.093   0.583
28554SOL     OW87435   1.123   1.708   4.412
28554SOL    HW187436   1.148   1.691   4.503
28554SOL    HW287437   1.162   1.636   4.362
28555SOL     OW87438  13.652   7.573  12.596
28555SOL    HW187439  13.741   7.542  12.610
28555SOL    HW287440  13.639   7.642  12.661
28556SOL     OW87441  13.315   2.294   4.896
28556SOL    HW187442  13.409   2.286   4.884
28556SOL    HW287443  13.278   2.220   4.849
28557SOL     OW87444   9.291   6.320  12.740
28557SOL    HW187445   9.258   6.242  12.785
28557SOL    HW287446   9.232   6.332  12.666
28558SOL     OW87447   6.705   6.149  10.301
28558SOL    HW187448   6.640   6.078  10.295
28558SOL    HW287449   6.789   6.104  10.304
28559SOL     OW87450  13.676   3.534   3.816
28559SOL    HW187451  13.621   3.502   3.888
28559SOL    HW287452  13.621   3.598   3.771
28560SOL     OW87453   3.258  12.772   4.922
28560SOL    HW187454   3.253  12.732   5.009
28560SOL    HW287455   3.179  12.826   4.915
28561SOL     OW87456   6.541  14.307   8.581
28561SOL    HW187457   6.459  14.264   8.605
28561SOL    HW287458   6.567  14.354   8.661
28562SOL     OW87459   6.047   6.307   0.784
28562SOL    HW187460   5.993   6.251   0.728
28562SOL    HW287461   6.032   6.276   0.872
28563SOL     OW87462   1.840   7.035   0.957
28563SOL    HW187463   1.914   7.064   0.903
28563SOL    HW287464   1.823   6.946   0.927
28564SOL     OW87465   1.812   4.197   3.603
28564SOL    HW187466   1.772   4.276   3.565
28564SOL    HW287467   1.847   4.227   3.687
28565SOL     OW87468  10.819  14.857  10.087
28565SOL    HW187469  10.772  14.843  10.168
28565SOL    HW287470  10.881  14.784  10.082
28566SOL     OW87471   0.513   4.762   6.568
28566SOL    HW187472   0.546   4.850   6.555
28566SOL    HW287473   0.589   4.705   6.555
28567SOL     OW87474   5.353   7.337   3.377
28567SOL    HW187475   5.391   7.354   3.291
28567SOL    HW287476   5.373   7.245   3.395
28568SOL     OW87477  14.311   3.263   3.656
28568SOL    HW187478  14.267   3.213   3.724
28568SOL    HW287479  14.249   3.333   3.633
28569SOL     OW87480   2.831   5.394  11.802
28569SOL    HW187481   2.861   5.319  11.853
28569SOL    HW287482   2.738   5.379  11.789
28570SOL     OW87483  13.076   6.661  13.892
28570SOL    HW187484  13.132   6.670  13.969
28570SOL    HW287485  13.132   6.619  13.827
28571SOL     OW87486  13.095   8.676  13.643
28571SOL    HW187487  13.128   8.746  13.587
28571SOL    HW287488  13.118   8.703  13.732
28572SOL     OW87489   5.535   9.287   0.100
28572SOL    HW187490   5.440   9.293   0.094
28572SOL    HW287491   5.553   9.194   0.114
28573SOL     OW87492   9.366   6.099   1.770
28573SOL    HW187493   9.458   6.096   1.797
28573SOL    HW287494   9.357   6.026   1.709
28574SOL     OW87495   4.510   0.447   1.208
28574SOL    HW187496   4.558   0.402   1.138
28574SOL    HW287497   4.469   0.522   1.164
28575SOL     OW87498   8.501   2.787   2.449
28575SOL    HW187499   8.573   2.754   2.396
28575SOL    HW287500   8.542   2.848   2.510
28576SOL     OW87501   7.443   8.505   8.414
28576SOL    HW187502   7.466   8.491   8.322
28576SOL    HW287503   7.528   8.519   8.457
28577SOL     OW87504   4.393   1.655   8.610
28577SOL    HW187505   4.424   1.730   8.660
28577SOL    HW287506   4.300   1.649   8.630
28578SOL     OW87507  10.837   1.590  11.483
28578SOL    HW187508  10.799   1.504  11.504
28578SOL    HW287509  10.814   1.645  11.558
28579SOL     OW87510  13.658   0.195   9.567
28579SOL    HW187511  13.751   0.213   9.579
28579SOL    HW287512  13.627   0.171   9.654
28580SOL     OW87513  10.427   6.433   7.719
28580SOL    HW187514  10.343   6.446   7.676
28580SOL    HW287515  10.467   6.521   7.720
28581SOL     OW87516  13.586   8.018   3.187
28581SOL    HW187517  13.668   8.064   3.171
28581SOL    HW287518  13.611   7.927   3.198
28582SOL     OW87519   4.600   0.927   5.448
28582SOL    HW187520   4.636   0.910   5.535
28582SOL    HW287521   4.608   0.844   5.402
28583SOL     OW87522  13.449   5.571   8.125
28583SOL    HW187523  13.525   5.521   8.155
28583SOL    HW287524  13.382   5.505   8.106
28584SOL     OW87525   8.860   4.941  11.845
28584SOL    HW187526   8.772   4.908  11.859
28584SOL    HW287527   8.860   5.028  11.886
28585SOL     OW87528   3.460   0.178   7.753
28585SOL    HW187529   3.499   0.244   7.811
28585SOL    HW287530   3.370   0.168   7.785
28586SOL     OW87531   7.783   5.428   9.759
28586SOL    HW187532   7.854   5.485   9.730
28586SOL    HW287533   7.748   5.390   9.678
28587SOL     OW87534  10.601   1.814   6.352
28587SOL    HW187535  10.601   1.875   6.426
28587SOL    HW287536  10.656   1.741   6.381
28588SOL     OW87537   2.476  12.721   8.611
28588SOL    HW187538   2.527  12.795   8.642
28588SOL    HW287539   2.479  12.657   8.682
28589SOL     OW87540   1.911   1.463   8.990
28589SOL    HW187541   1.942   1.547   9.023
28589SOL    HW287542   1.838   1.440   9.048
28590SOL     OW87543  14.084  11.450  13.041
28590SOL    HW187544  14.090  11.380  13.106
28590SOL    HW287545  14.066  11.529  13.092
28591SOL     OW87546  13.003  13.558  11.124
28591SOL    HW187547  13.042  13.600  11.047
28591SOL    HW287548  12.918  13.526  11.092
28592SOL     OW87549  12.354  10.220  12.783
28592SOL    HW187550  12.356  10.194  12.875
28592SOL    HW287551  12.435  10.184  12.746
28593SOL     OW87552   8.826  12.005   0.050
28593SOL    HW187553   8.748  12.032   0.001
28593SOL    HW287554   8.845  11.917   0.018
28594SOL     OW87555   8.067   8.457   1.747
28594SOL    HW187556   8.064   8.548   1.718
28594SOL    HW287557   7.987   8.419   1.711
28595SOL     OW87558   8.749   0.542  11.640
28595SOL    HW187559   8.716   0.470  11.586
28595SOL    HW287560   8.830   0.569  11.597
28596SOL     OW87561   6.039   9.159   6.588
28596SOL    HW187562   5.989   9.170   6.669
28596SOL    HW287563   5.974   9.133   6.523
28597SOL     OW87564   8.281   0.282  11.818
28597SOL    HW187565   8.359   0.227  11.827
28597SOL    HW287566   8.208   0.221  11.818
28598SOL     OW87567   2.093   2.903  11.158
28598SOL    HW187568   2.171   2.914  11.105
28598SOL    HW287569   2.055   2.820  11.129
28599SOL     OW87570   2.606  14.205   8.914
28599SOL    HW187571   2.558  14.286   8.901
28599SOL    HW287572   2.673  14.226   8.978
28600SOL     OW87573   1.786  10.457  11.525
28600SOL    HW187574   1.772  10.476  11.432
28600SOL    HW287575   1.846  10.526  11.555
28601SOL     OW87576  11.844   5.354   8.245
28601SOL    HW187577  11.781   5.373   8.315
28601SOL    HW287578  11.801   5.288   8.191
28602SOL     OW87579  12.987  12.122   2.000
28602SOL    HW187580  12.943  12.206   2.006
28602SOL    HW287581  13.014  12.116   1.908
28603SOL     OW87582   2.114  10.801   8.788
28603SOL    HW187583   2.087  10.811   8.879
28603SOL    HW287584   2.208  10.822   8.788
28604SOL     OW87585   0.588   4.598   7.715
28604SOL    HW187586   0.665   4.644   7.748
28604SOL    HW287587   0.523   4.608   7.784
28605SOL     OW87588   1.034  14.433   2.855
28605SOL    HW187589   1.082  14.500   2.903
28605SOL    HW287590   0.964  14.405   2.914
28606SOL     OW87591   6.817  13.537  10.370
28606SOL    HW187592   6.885  13.562  10.432
28606SOL    HW287593   6.838  13.585  10.290
28607SOL     OW87594  10.278   8.257   4.878
28607SOL    HW187595  10.257   8.328   4.938
28607SOL    HW287596  10.195   8.235   4.836
28608SOL     OW87597   8.080   3.192  12.609
28608SOL    HW187598   8.033   3.159  12.686
28608SOL    HW287599   8.047   3.281  12.598
28609SOL     OW87600  12.445   2.363   1.241
28609SOL    HW187601  12.443   2.321   1.327
28609SOL    HW287602  12.367   2.329   1.197
28610SOL     OW87603   7.377   3.562   9.597
28610SOL    HW187604   7.300   3.526   9.552
28610SOL    HW287605   7.401   3.494   9.660
28611SOL     OW87606  11.531   8.497  12.173
28611SOL    HW187607  11.598   8.449  12.123
28611SOL    HW287608  11.564   8.499  12.263
28612SOL     OW87609  12.997   8.125   8.255
28612SOL    HW187610  13.064   8.092   8.314
28612SOL    HW287611  13.028   8.101   8.167
28613SOL     OW87612   1.160  10.498   4.963
28613SOL    HW187613   1.112  10.561   5.017
28613SOL    HW287614   1.141  10.525   4.873
28614SOL     OW87615  11.069  13.107  14.518
28614SOL    HW187616  11.078  13.012  14.519
28614SOL    HW287617  11.047  13.129  14.428
28615SOL     OW87618   6.082   8.948   4.714
28615SOL    HW187619   6.024   9.022   4.731
28615SOL    HW287620   6.144   8.980   4.649
28616SOL     OW87621   6.463   3.978  14.323
28616SOL    HW187622   6.418   3.899  14.292
28616SOL    HW287623   6.488   3.957  14.413
28617SOL     OW87624   7.809   8.115  12.980
28617SOL    HW187625   7.863   8.064  13.041
28617SOL    HW287626   7.845   8.094  12.894
28618SOL     OW87627   5.213   1.730   6.493
28618SOL    HW187628   5.142   1.793   6.494
28618SOL    HW287629   5.284   1.774   6.446
28619SOL     OW87630   0.593   7.340   2.611
28619SOL    HW187631   0.645   7.277   2.562
28619SOL    HW287632   0.502   7.317   2.592
28620SOL     OW87633  10.658   0.645   5.892
28620SOL    HW187634  10.677   0.729   5.851
28620SOL    HW287635  10.679   0.580   5.824
28621SOL     OW87636   5.643  12.653  12.335
28621SOL    HW187637   5.687  12.571  12.357
28621SOL    HW287638   5.668  12.714  12.404
28622SOL     OW87639   1.551  10.562  12.442
28622SOL    HW187640   1.517  10.525  12.524
28622SOL    HW287641   1.474  10.566  12.385
28623SOL     OW87642   2.748   8.716  11.136
28623SOL    HW187643   2.774   8.624  11.138
28623SOL    HW287644   2.831   8.764  11.127
28624SOL     OW87645  11.268   5.219   0.613
28624SOL    HW187646  11.334   5.181   0.672
28624SOL    HW287647  11.187   5.216   0.663
28625SOL     OW87648  11.322   6.470   1.312
28625SOL    HW187649  11.394   6.513   1.266
28625SOL    HW287650  11.330   6.501   1.403
28626SOL     OW87651   3.872   4.619   4.102
28626SOL    HW187652   3.917   4.688   4.053
28626SOL    HW287653   3.859   4.549   4.038
28627SOL     OW87654   7.020   8.927  13.021
28627SOL    HW187655   7.082   8.922  12.948
28627SOL    HW287656   6.942   8.881  12.990
28628SOL     OW87657  14.328  12.531   1.110
28628SOL    HW187658  14.362  12.525   1.020
28628SOL    HW287659  14.301  12.622   1.119
28629SOL     OW87660  13.335   7.865  13.197
28629SOL    HW187661  13.401   7.803  13.167
28629SOL    HW287662  13.272   7.811  13.246
28630SOL     OW87663   4.046   5.529   6.307
28630SOL    HW187664   4.008   5.448   6.272
28630SOL    HW287665   3.980   5.596   6.288
28631SOL     OW87666   7.182   9.446   9.275
28631SOL    HW187667   7.168   9.530   9.232
28631SOL    HW287668   7.134   9.383   9.221
28632SOL     OW87669   9.249   1.408  11.165
28632SOL    HW187670   9.327   1.366  11.201
28632SOL    HW287671   9.182   1.396  11.233
28633SOL     OW87672   0.437   2.519   7.991
28633SOL    HW187673   0.407   2.429   7.981
28633SOL    HW287674   0.522   2.521   7.945
28634SOL     OW87675  10.067   6.911   2.626
28634SOL    HW187676  10.081   6.832   2.677
28634SOL    HW287677  10.070   6.881   2.535
28635SOL     OW87678  11.655   5.798  11.145
28635SOL    HW187679  11.596   5.800  11.070
28635SOL    HW287680  11.597   5.787  11.221
28636SOL     OW87681   3.087  10.296  14.847
28636SOL    HW187682   3.024  10.321  14.780
28636SOL    HW287683   3.037  10.297   0.050
28637SOL     OW87684  12.539  10.417  10.979
28637SOL    HW187685  12.619  10.445  10.935
28637SOL    HW287686  12.562  10.415  11.072
28638SOL     OW87687   4.797  14.429   4.877
28638SOL    HW187688   4.768  14.340   4.855
28638SOL    HW287689   4.871  14.417   4.936
28639SOL     OW87690   4.413  13.555   6.989
28639SOL    HW187691   4.466  13.628   7.023
28639SOL    HW287692   4.477  13.491   6.958
28640SOL     OW87693  13.976   1.615   2.990
28640SOL    HW187694  13.988   1.710   2.995
28640SOL    HW287695  14.045   1.585   2.931
28641SOL     OW87696   4.301  13.603   8.565
28641SOL    HW187697   4.333  13.513   8.572
28641SOL    HW287698   4.301  13.636   8.655
28642SOL     OW87699   5.374  14.198   5.341
28642SOL    HW187700   5.461  14.238   5.334
28642SOL    HW287701   5.374  14.152   5.425
28643SOL     OW87702   7.869  12.196  13.846
28643SOL    HW187703   7.943  12.148  13.883
28643SOL    HW287704   7.903  12.284  13.830
28644SOL     OW87705   0.187  12.040  14.184
28644SOL    HW187706   0.282  12.053  14.178
28644SOL    HW287707   0.156  12.047  14.094
28645SOL     OW87708   0.879   6.955   5.359
28645SOL    HW187709   0.948   6.927   5.298
28645SOL    HW287710   0.855   6.875   5.405
28646SOL     OW87711   3.925  12.259   1.291
28646SOL    HW187712   3.866  12.264   1.366
28646SOL    HW287713   3.950  12.350   1.274
28647SOL     OW87714  10.753   1.818  10.827
28647SOL    HW187715  10.793   1.810  10.914
28647SOL    HW287716  10.794   1.896  10.789
28648SOL     OW87717  13.839   8.829  14.244
28648SOL    HW187718  13.752   8.853  14.273
28648SOL    HW287719  13.835   8.833  14.149
28649SOL     OW87720   0.370  13.262   2.528
28649SOL    HW187721   0.329  13.287   2.445
28649SOL    HW287722   0.297  13.241   2.586
28650SOL     OW87723   4.617  14.270  10.458
28650SOL    HW187724   4.581  14.345  10.410
28650SOL    HW287725   4.639  14.305  10.544
28651SOL     OW87726   5.459  14.119   4.678
28651SOL    HW187727   5.391  14.059   4.646
28651SOL    HW287728   5.506  14.068   4.744
28652SOL     OW87729   3.690   4.279  14.599
28652SOL    HW187730   3.650   4.366  14.597
28652SOL    HW287731   3.715   4.267  14.691
28653SOL     OW87732   8.635   0.796   5.786
28653SOL    HW187733   8.722   0.800   5.825
28653SOL    HW287734   8.603   0.708   5.807
28654SOL     OW87735  10.781  13.384  10.619
28654SOL    HW187736  10.772  13.479  10.607
28654SOL    HW287737  10.873  13.371  10.640
28655SOL     OW87738   1.117  11.455   8.731
28655SOL    HW187739   1.117  11.365   8.763
28655SOL    HW287740   1.153  11.506   8.804
28656SOL     OW87741  10.219   8.624   9.437
28656SOL    HW187742  10.232   8.696   9.497
28656SOL    HW287743  10.160   8.659   9.370
28657SOL     OW87744   5.938   1.848   3.293
28657SOL    HW187745   5.958   1.938   3.320
28657SOL    HW287746   6.023   1.804   3.291
28658SOL     OW87747  12.397  10.911   5.807
28658SOL    HW187748  12.453  10.987   5.793
28658SOL    HW287749  12.326  10.922   5.744
28659SOL     OW87750   8.184   1.094   5.922
28659SOL    HW187751   8.242   1.146   5.977
28659SOL    HW287752   8.210   1.003   5.937
28660SOL     OW87753   1.779   3.154  14.523
28660SOL    HW187754   1.803   3.246  14.524
28660SOL    HW287755   1.854   3.110  14.481
28661SOL     OW87756  14.632   5.061   1.857
28661SOL    HW187757  14.549   5.099   1.885
28661SOL    HW287758  14.674   5.034   1.939
28662SOL     OW87759   9.254   7.210   1.861
28662SOL    HW187760   9.325   7.147   1.860
28662SOL    HW287761   9.296   7.295   1.877
28663SOL     OW87762   3.487  11.922   4.628
28663SOL    HW187763   3.450  11.928   4.540
28663SOL    HW287764   3.428  11.975   4.683
28664SOL     OW87765  11.930   7.077  10.996
28664SOL    HW187766  11.953   6.997  10.949
28664SOL    HW287767  11.871   7.124  10.937
28665SOL     OW87768  11.609  12.682   5.662
28665SOL    HW187769  11.650  12.740   5.727
28665SOL    HW287770  11.535  12.733   5.628
28666SOL     OW87771  11.156   8.012   5.856
28666SOL    HW187772  11.239   8.057   5.839
28666SOL    HW287773  11.129   8.043   5.943
28667SOL     OW87774   4.850   3.056   4.570
28667SOL    HW187775   4.879   3.025   4.656
28667SOL    HW287776   4.820   3.146   4.585
28668SOL     OW87777   8.226  11.113   3.214
28668SOL    HW187778   8.164  11.149   3.151
28668SOL    HW287779   8.209  11.163   3.295
28669SOL     OW87780   4.119  11.523  13.433
28669SOL    HW187781   4.040  11.542  13.482
28669SOL    HW287782   4.156  11.445  13.474
28670SOL     OW87783  14.050   2.732  10.349
28670SOL    HW187784  14.007   2.759  10.430
28670SOL    HW287785  14.017   2.792  10.283
28671SOL     OW87786  11.979  14.472   2.502
28671SOL    HW187787  12.070  14.467   2.470
28671SOL    HW287788  11.982  14.428   2.587
28672SOL     OW87789   2.258   7.509  10.765
28672SOL    HW187790   2.217   7.436  10.718
28672SOL    HW287791   2.286   7.569  10.696
28673SOL     OW87792  11.537  14.641   2.645
28673SOL    HW187793  11.596  14.712   2.672
28673SOL    HW287794  11.451  14.682   2.642
28674SOL     OW87795   6.755  10.619   7.920
28674SOL    HW187796   6.699  10.550   7.885
28674SOL    HW287797   6.695  10.676   7.969
28675SOL     OW87798  12.374   2.086   8.105
28675SOL    HW187799  12.315   2.138   8.051
28675SOL    HW287800  12.394   2.009   8.050
28676SOL     OW87801   4.737  11.235  11.128
28676SOL    HW187802   4.702  11.244  11.040
28676SOL    HW287803   4.831  11.222  11.115
28677SOL     OW87804   2.630   0.587   1.537
28677SOL    HW187805   2.685   0.568   1.614
28677SOL    HW287806   2.588   0.503   1.516
28678SOL     OW87807   2.156   0.655  13.223
28678SOL    HW187808   2.226   0.644  13.159
28678SOL    HW287809   2.086   0.700  13.176
28679SOL     OW87810   0.546   5.839  14.148
28679SOL    HW187811   0.476   5.903  14.131
28679SOL    HW287812   0.519   5.760  14.100
28680SOL     OW87813   8.462  14.838   0.171
28680SOL    HW187814   8.440   0.003   0.089
28680SOL    HW287815   8.488   0.032   0.230
28681SOL     OW87816   4.242  14.652  14.832
28681SOL    HW187817   4.183  14.649   0.029
28681SOL    HW287818   4.326  14.619  14.866
28682SOL     OW87819   1.813   2.898   7.264
28682SOL    HW187820   1.768   2.954   7.201
28682SOL    HW287821   1.864   2.838   7.211
28683SOL     OW87822  14.036   9.552   4.958
28683SOL    HW187823  14.096   9.606   5.009
28683SOL    HW287824  13.970   9.615   4.926
28684SOL     OW87825   1.973   7.024  13.477
28684SOL    HW187826   1.917   7.010  13.401
28684SOL    HW287827   2.042   7.083  13.445
28685SOL     OW87828   2.275   6.940   7.881
28685SOL    HW187829   2.294   7.006   7.814
28685SOL    HW287830   2.359   6.923   7.923
28686SOL     OW87831   8.866  13.364   2.446
28686SOL    HW187832   8.776  13.370   2.478
28686SOL    HW287833   8.920  13.370   2.525
28687SOL     OW87834   2.362   1.640   6.541
28687SOL    HW187835   2.363   1.559   6.489
28687SOL    HW287836   2.339   1.709   6.479
28688SOL     OW87837  10.772   1.322  12.217
28688SOL    HW187838  10.697   1.328  12.159
28688SOL    HW287839  10.735   1.294  12.301
28689SOL     OW87840  13.168  11.665   6.324
28689SOL    HW187841  13.205  11.632   6.242
28689SOL    HW287842  13.217  11.620   6.393
28690SOL     OW87843   5.840   8.047  13.348
28690SOL    HW187844   5.876   7.996  13.276
28690SOL    HW287845   5.893   8.126  13.350
28691SOL     OW87846   9.098   2.905   5.730
28691SOL    HW187847   9.174   2.920   5.786
28691SOL    HW287848   9.077   2.990   5.693
28692SOL     OW87849   3.270  13.413   5.467
28692SOL    HW187850   3.352  13.401   5.516
28692SOL    HW287851   3.287  13.372   5.382
28693SOL     OW87852   8.901  12.205   4.135
28693SOL    HW187853   8.888  12.154   4.215
28693SOL    HW287854   8.814  12.237   4.113
28694SOL     OW87855  11.357   4.178   0.746
28694SOL    HW187856  11.279   4.128   0.723
28694SOL    HW287857  11.332   4.269   0.733
28695SOL     OW87858   2.684   4.113  12.036
28695SOL    HW187859   2.681   4.030  11.990
28695SOL    HW287860   2.704   4.090  12.127
28696SOL     OW87861   6.919  11.678   2.759
28696SOL    HW187862   6.853  11.694   2.827
28696SOL    HW287863   6.986  11.627   2.803
28697SOL     OW87864  11.911  11.869  12.758
28697SOL    HW187865  11.999  11.897  12.733
28697SOL    HW287866  11.874  11.833  12.678
28698SOL     OW87867  12.342   8.884   3.957
28698SOL    HW187868  12.325   8.795   3.924
28698SOL    HW287869  12.279   8.939   3.911
28699SOL     OW87870   4.021   3.767   5.457
28699SOL    HW187871   3.960   3.785   5.527
28699SOL    HW287872   4.105   3.753   5.501
28700SOL     OW87873  11.965  13.063  12.653
28700SOL    HW187874  12.005  13.130  12.709
28700SOL    HW287875  12.002  13.078  12.566
28701SOL     OW87876  14.288   5.237  13.701
28701SOL    HW187877  14.369   5.266  13.660
28701SOL    HW287878  14.260   5.162  13.648
28702SOL     OW87879   8.596   8.639  13.252
28702SOL    HW187880   8.648   8.574  13.299
28702SOL    HW287881   8.514   8.594  13.231
28703SOL     OW87882  13.933   7.961  12.395
28703SOL    HW187883  13.979   7.896  12.342
28703SOL    HW287884  13.894   8.021  12.330
28704SOL     OW87885   3.658  14.840  11.532
28704SOL    HW187886   3.721  14.819  11.464
28704SOL    HW287887   3.708  14.834  11.614
28705SOL     OW87888   9.342  13.458  12.407
28705SOL    HW187889   9.334  13.364  12.393
28705SOL    HW287890   9.366  13.467  12.499
28706SOL     OW87891   3.451   3.272   6.005
28706SOL    HW187892   3.428   3.282   6.098
28706SOL    HW287893   3.493   3.186   6.000
28707SOL     OW87894   3.913  13.000  13.637
28707SOL    HW187895   3.930  12.943  13.562
28707SOL    HW287896   3.917  12.942  13.713
28708SOL     OW87897   9.923   4.205   0.020
28708SOL    HW187898   9.952   4.176  14.812
28708SOL    HW287899   9.903   4.125   0.068
28709SOL     OW87900   1.811   2.991  12.037
28709SOL    HW187901   1.737   2.961  11.984
28709SOL    HW287902   1.878   3.014  11.973
28710SOL     OW87903   3.505  11.609  11.907
28710SOL    HW187904   3.525  11.702  11.920
28710SOL    HW287905   3.574  11.563  11.955
28711SOL     OW87906   2.319  12.178   4.843
28711SOL    HW187907   2.286  12.228   4.769
28711SOL    HW287908   2.244  12.127   4.873
28712SOL     OW87909  12.906  10.955  10.903
28712SOL    HW187910  12.850  10.888  10.944
28712SOL    HW287911  12.947  10.910  10.830
28713SOL     OW87912   8.524   9.048  14.861
28713SOL    HW187913   8.493   9.136  14.838
28713SOL    HW287914   8.585   9.063   0.056
28714SOL     OW87915   3.947   5.178   3.024
28714SOL    HW187916   3.963   5.273   3.020
28714SOL    HW287917   3.872   5.164   2.966
28715SOL     OW87918   9.011  11.409   1.137
28715SOL    HW187919   9.044  11.325   1.104
28715SOL    HW287920   8.943  11.384   1.200
28716SOL     OW87921  13.366   7.665   3.225
28716SOL    HW187922  13.353   7.622   3.141
28716SOL    HW287923  13.350   7.758   3.208
28717SOL     OW87924  14.101   3.074   8.560
28717SOL    HW187925  14.195   3.091   8.562
28717SOL    HW287926  14.062   3.159   8.538
28718SOL     OW87927   8.364  10.327   9.493
28718SOL    HW187928   8.444  10.283   9.464
28718SOL    HW287929   8.382  10.420   9.479
28719SOL     OW87930  11.780   1.136  10.294
28719SOL    HW187931  11.738   1.189  10.362
28719SOL    HW287932  11.808   1.199  10.228
28720SOL     OW87933  12.313   8.827   9.651
28720SOL    HW187934  12.336   8.883   9.725
28720SOL    HW287935  12.280   8.746   9.691
28721SOL     OW87936   9.603   9.085   2.303
28721SOL    HW187937   9.603   9.130   2.388
28721SOL    HW287938   9.692   9.050   2.295
28722SOL     OW87939   8.166   7.874  12.012
28722SOL    HW187940   8.120   7.838  12.087
28722SOL    HW287941   8.136   7.964  12.006
28723SOL     OW87942   7.114   7.435  13.181
28723SOL    HW187943   7.085   7.514  13.225
28723SOL    HW287944   7.051   7.368  13.207
28724SOL     OW87945   0.345  12.153   9.247
28724SOL    HW187946   0.336  12.068   9.291
28724SOL    HW287947   0.303  12.215   9.308
28725SOL     OW87948   7.083  14.557   5.410
28725SOL    HW187949   7.050  14.647   5.401
28725SOL    HW287950   7.054  14.529   5.497
28726SOL     OW87951   8.390   3.462   5.790
28726SOL    HW187952   8.422   3.507   5.712
28726SOL    HW287953   8.469   3.436   5.837
28727SOL     OW87954  12.148   9.268   8.957
28727SOL    HW187955  12.215   9.301   8.898
28727SOL    HW287956  12.066   9.277   8.908
28728SOL     OW87957   9.669   2.207   6.983
28728SOL    HW187958   9.715   2.125   6.962
28728SOL    HW287959   9.739   2.270   6.998
28729SOL     OW87960  12.028   2.319   2.323
28729SOL    HW187961  11.944   2.361   2.341
28729SOL    HW287962  12.079   2.333   2.403
28730SOL     OW87963  10.354   9.691   2.370
28730SOL    HW187964  10.431   9.710   2.424
28730SOL    HW287965  10.297   9.767   2.381
28731SOL     OW87966   1.440  13.658   5.104
28731SOL    HW187967   1.376  13.649   5.175
28731SOL    HW287968   1.387  13.679   5.027
28732SOL     OW87969   5.802  12.889   0.197
28732SOL    HW187970   5.725  12.942   0.175
28732SOL    HW287971   5.780  12.801   0.167
28733SOL     OW87972   5.195  14.224  13.698
28733SOL    HW187973   5.177  14.314  13.725
28733SOL    HW287974   5.125  14.202  13.636
28734SOL     OW87975  12.773   8.130   3.677
28734SOL    HW187976  12.759   8.067   3.748
28734SOL    HW287977  12.810   8.207   3.720
28735SOL     OW87978   8.811   3.379   7.743
28735SOL    HW187979   8.798   3.470   7.770
28735SOL    HW287980   8.840   3.334   7.824
28736SOL     OW87981  10.814  13.514  12.848
28736SOL    HW187982  10.834  13.428  12.810
28736SOL    HW287983  10.885  13.529  12.911
28737SOL     OW87984   6.777   3.082  13.473
28737SOL    HW187985   6.821   3.043  13.397
28737SOL    HW287986   6.849   3.119  13.525
28738SOL     OW87987   1.669   1.701   9.698
28738SOL    HW187988   1.608   1.754   9.750
28738SOL    HW287989   1.692   1.628   9.755
28739SOL     OW87990   8.071   9.143   2.200
28739SOL    HW187991   8.004   9.210   2.186
28739SOL    HW287992   8.121   9.141   2.118
28740SOL     OW87993   4.833   4.461   3.735
28740SOL    HW187994   4.856   4.553   3.744
28740SOL    HW287995   4.855   4.439   3.644
28741SOL     OW87996  14.329   9.805   6.092
28741SOL    HW187997  14.377   9.871   6.142
28741SOL    HW287998  14.336   9.835   6.001
28742SOL     OW87999   6.378   3.573  12.418
28742SOL    HW188000   6.417   3.653  12.382
28742SOL    HW288001   6.389   3.581  12.513
28743SOL     OW88002  12.521  14.196   9.311
28743SOL    HW188003  12.506  14.103   9.295
28743SOL    HW288004  12.477  14.213   9.394
28744SOL     OW88005   8.386   4.335   2.358
28744SOL    HW188006   8.298   4.370   2.346
28744SOL    HW288007   8.384   4.250   2.314
28745SOL     OW88008   2.492   3.507  13.414
28745SOL    HW188009   2.438   3.435  13.380
28745SOL    HW288010   2.438   3.585  13.401
28746SOL     OW88011  11.327   2.578   2.304
28746SOL    HW188012  11.298   2.665   2.276
28746SOL    HW288013  11.422   2.585   2.309
28747SOL     OW88014  10.927  11.308  10.257
28747SOL    HW188015  10.863  11.332  10.190
28747SOL    HW288016  10.979  11.239  10.217
28748SOL     OW88017  10.799   4.383  11.145
28748SOL    HW188018  10.801   4.413  11.236
28748SOL    HW288019  10.710   4.400  11.116
28749SOL     OW88020  14.439   7.724   3.992
28749SOL    HW188021  14.516   7.668   3.980
28749SOL    HW288022  14.474   7.803   4.033
28750SOL     OW88023   9.846  14.724   2.537
28750SOL    HW188024   9.815  14.812   2.520
28750SOL    HW288025   9.857  14.720   2.632
28751SOL     OW88026   1.080  11.366   4.833
28751SOL    HW188027   1.064  11.372   4.738
28751SOL    HW288028   1.150  11.428   4.849
28752SOL     OW88029  11.840   3.780  12.502
28752SOL    HW188030  11.934   3.780  12.484
28752SOL    HW288031  11.833   3.778  12.597
28753SOL     OW88032   9.697   2.166   0.523
28753SOL    HW188033   9.664   2.123   0.444
28753SOL    HW288034   9.620   2.179   0.578
28754SOL     OW88035   4.740  10.007   6.017
28754SOL    HW188036   4.678  10.007   6.091
28754SOL    HW288037   4.718  10.087   5.969
28755SOL     OW88038   2.451   4.565   9.752
28755SOL    HW188039   2.514   4.612   9.806
28755SOL    HW288040   2.372   4.619   9.757
28756SOL     OW88041  12.685   6.064   2.721
28756SOL    HW188042  12.687   5.995   2.655
28756SOL    HW288043  12.775   6.098   2.722
28757SOL     OW88044  10.557   2.045   1.841
28757SOL    HW188045  10.558   2.008   1.753
28757SOL    HW288046  10.641   2.019   1.879
28758SOL     OW88047   2.913   8.658  14.742
28758SOL    HW188048   3.003   8.671  14.771
28758SOL    HW288049   2.874   8.600  14.809
28759SOL     OW88050   0.064   7.688  11.824
28759SOL    HW188051   0.159   7.694  11.832
28759SOL    HW288052   0.048   7.689  11.730
28760SOL     OW88053   8.313   7.879   4.943
28760SOL    HW188054   8.257   7.924   5.006
28760SOL    HW288055   8.391   7.934   4.935
28761SOL     OW88056  12.732  11.283   3.351
28761SOL    HW188057  12.810  11.229   3.362
28761SOL    HW288058  12.732  11.307   3.258
28762SOL     OW88059   1.376   3.178   8.496
28762SOL    HW188060   1.458   3.134   8.472
28762SOL    HW288061   1.316   3.106   8.517
28763SOL     OW88062  13.772   2.670   1.819
28763SOL    HW188063  13.686   2.629   1.810
28763SOL    HW288064  13.792   2.664   1.912
28764SOL     OW88065  13.544  12.373   3.894
28764SOL    HW188066  13.586  12.413   3.970
28764SOL    HW288067  13.580  12.420   3.819
28765SOL     OW88068   0.884   1.387   9.134
28765SOL    HW188069   0.922   1.300   9.146
28765SOL    HW288070   0.881   1.399   9.039
28766SOL     OW88071   2.997   0.160   4.852
28766SOL    HW188072   3.029   0.126   4.936
28766SOL    HW288073   3.018   0.253   4.855
28767SOL     OW88074   5.067   2.078  10.593
28767SOL    HW188075   5.036   2.115  10.510
28767SOL    HW288076   5.145   2.028  10.569
28768SOL     OW88077  12.992   2.823  10.394
28768SOL    HW188078  13.077   2.845  10.356
28768SOL    HW288079  12.954   2.907  10.419
28769SOL     OW88080   1.385   3.618   5.360
28769SOL    HW188081   1.325   3.600   5.433
28769SOL    HW288082   1.328   3.623   5.284
28770SOL     OW88083  11.645  10.658   5.206
28770SOL    HW188084  11.577  10.668   5.139
28770SOL    HW288085  11.673  10.566   5.197
28771SOL     OW88086  11.751   7.091  10.477
28771SOL    HW188087  11.724   7.007  10.512
28771SOL    HW288088  11.777   7.073  10.387
28772SOL     OW88089   6.071   8.079   5.712
28772SOL    HW188090   6.144   8.127   5.674
28772SOL    HW288091   6.090   7.987   5.694
28773SOL     OW88092   1.185  14.656   6.775
28773SOL    HW188093   1.251  14.587   6.782
28773SOL    HW288094   1.184  14.697   6.862
28774SOL     OW88095   1.135  10.570  10.444
28774SOL    HW188096   1.189  10.517  10.385
28774SOL    HW288097   1.061  10.597  10.390
28775SOL     OW88098   3.986   8.638   7.506
28775SOL    HW188099   3.977   8.546   7.483
28775SOL    HW288100   4.080   8.653   7.513
28776SOL     OW88101   5.816   0.959  10.894
28776SOL    HW188102   5.807   0.939  10.987
28776SOL    HW288103   5.829   0.874  10.852
28777SOL     OW88104  14.108   5.747   3.262
28777SOL    HW188105  14.155   5.790   3.190
28777SOL    HW288106  14.134   5.655   3.256
28778SOL     OW88107   8.708   9.827   8.065
28778SOL    HW188108   8.624   9.846   8.107
28778SOL    HW288109   8.753   9.911   8.063
28779SOL     OW88110  13.355   4.560   7.241
28779SOL    HW188111  13.316   4.614   7.171
28779SOL    HW288112  13.429   4.612   7.272
28780SOL     OW88113  14.133  12.955   7.943
28780SOL    HW188114  14.045  12.992   7.938
28780SOL    HW288115  14.128  12.874   7.893
28781SOL     OW88116  11.740   5.581  11.974
28781SOL    HW188117  11.662   5.635  11.987
28781SOL    HW288118  11.748   5.572  11.880
28782SOL     OW88119   1.015   2.409   7.416
28782SOL    HW188120   1.029   2.501   7.438
28782SOL    HW288121   1.080   2.391   7.347
28783SOL     OW88122   0.264   9.394   0.994
28783SOL    HW188123   0.170   9.414   0.990
28783SOL    HW288124   0.293   9.433   1.076
28784SOL     OW88125   4.234   5.202  10.320
28784SOL    HW188126   4.282   5.127  10.355
28784SOL    HW288127   4.259   5.274  10.377
28785SOL     OW88128   3.150   8.322   5.799
28785SOL    HW188129   3.161   8.262   5.873
28785SOL    HW288130   3.057   8.320   5.779
28786SOL     OW88131   0.404  12.371  12.431
28786SOL    HW188132   0.374  12.448  12.479
28786SOL    HW288133   0.480  12.340  12.480
28787SOL     OW88134  11.017   1.080  11.431
28787SOL    HW188135  11.008   1.024  11.508
28787SOL    HW288136  10.927   1.108  11.411
28788SOL     OW88137   6.398   5.135  13.026
28788SOL    HW188138   6.475   5.163  13.076
28788SOL    HW288139   6.331   5.119  13.092
28789SOL     OW88140   8.781   9.649  11.655
28789SOL    HW188141   8.875   9.631  11.661
28789SOL    HW288142   8.751   9.644  11.746
28790SOL     OW88143  14.094   1.606   8.974
28790SOL    HW188144  14.076   1.690   8.930
28790SOL    HW288145  14.161   1.627   9.039
28791SOL     OW88146  11.346   1.276  13.628
28791SOL    HW188147  11.321   1.305  13.540
28791SOL    HW288148  11.265   1.242  13.666
28792SOL     OW88149  11.514   0.687   2.304
28792SOL    HW188150  11.430   0.664   2.263
28792SOL    HW288151  11.496   0.682   2.398
28793SOL     OW88152   0.618   5.425   4.358
28793SOL    HW188153   0.537   5.381   4.333
28793SOL    HW288154   0.604   5.451   4.449
28794SOL     OW88155   0.483   2.863  13.403
28794SOL    HW188156   0.508   2.912  13.324
28794SOL    HW288157   0.440   2.927  13.458
28795SOL     OW88158   6.699   7.732   3.703
28795SOL    HW188159   6.720   7.824   3.689
28795SOL    HW288160   6.668   7.702   3.617
28796SOL     OW88161  14.470  11.894  11.756
28796SOL    HW188162  14.459  11.801  11.777
28796SOL    HW288163  14.484  11.937  11.840
28797SOL     OW88164  10.065   6.896   4.113
28797SOL    HW188165  10.011   6.828   4.072
28797SOL    HW288166  10.024   6.910   4.199
28798SOL     OW88167  12.469   3.278  12.948
28798SOL    HW188168  12.426   3.322  13.021
28798SOL    HW288169  12.398   3.236  12.900
28799SOL     OW88170  10.842   8.099   4.889
28799SOL    HW188171  10.788   8.075   4.813
28799SOL    HW288172  10.930   8.068   4.868
28800SOL     OW88173   5.986  11.097   6.107
28800SOL    HW188174   6.002  11.095   6.012
28800SOL    HW288175   6.030  11.020   6.141
28801SOL     OW88176   6.925   2.549   5.783
28801SOL    HW188177   6.957   2.548   5.693
28801SOL    HW288178   6.982   2.613   5.828
28802SOL     OW88179   2.668   1.397   2.757
28802SOL    HW188180   2.737   1.354   2.706
28802SOL    HW288181   2.713   1.431   2.835
28803SOL     OW88182   6.050   2.397   3.672
28803SOL    HW188183   6.006   2.321   3.709
28803SOL    HW288184   6.016   2.404   3.583
28804SOL     OW88185  10.418   4.767  12.795
28804SOL    HW188186  10.332   4.732  12.771
28804SOL    HW288187  10.473   4.690  12.804
28805SOL     OW88188   2.746   0.367   9.930
28805SOL    HW188189   2.827   0.373   9.879
28805SOL    HW288190   2.732   0.273   9.943
28806SOL     OW88191  10.903  12.914  11.834
28806SOL    HW188192  10.813  12.942  11.849
28806SOL    HW288193  10.899  12.864  11.752
28807SOL     OW88194   5.157   3.830   3.284
28807SOL    HW188195   5.116   3.749   3.255
28807SOL    HW288196   5.207   3.860   3.208
28808SOL     OW88197   5.466   5.671  10.199
28808SOL    HW188198   5.515   5.592  10.219
28808SOL    HW288199   5.495   5.696  10.111
28809SOL     OW88200   9.177   5.340  11.864
28809SOL    HW188201   9.235   5.323  11.790
28809SOL    HW288202   9.091   5.351  11.824
28810SOL     OW88203   1.714  13.675   7.628
28810SOL    HW188204   1.679  13.607   7.686
28810SOL    HW288205   1.659  13.670   7.549
28811SOL     OW88206  12.808   2.983  14.219
28811SOL    HW188207  12.886   2.963  14.271
28811SOL    HW288208  12.750   3.029  14.280
28812SOL     OW88209   0.247   5.255  12.648
28812SOL    HW188210   0.273   5.237  12.558
28812SOL    HW288211   0.283   5.182  12.699
28813SOL     OW88212  11.028   4.095   4.547
28813SOL    HW188213  10.966   4.119   4.616
28813SOL    HW288214  10.995   4.138   4.468
28814SOL     OW88215   0.158   5.854  14.152
28814SOL    HW188216   0.120   5.838  14.238
28814SOL    HW288217   0.149   5.771  14.105
28815SOL     OW88218   3.820   4.735  13.677
28815SOL    HW188219   3.885   4.805  13.672
28815SOL    HW288220   3.866   4.657  13.646
28816SOL     OW88221   9.941   7.807   6.437
28816SOL    HW188222   9.927   7.837   6.527
28816SOL    HW288223  10.025   7.846   6.412
28817SOL     OW88224   4.625   2.174   4.656
28817SOL    HW188225   4.662   2.150   4.741
28817SOL    HW288226   4.666   2.258   4.635
28818SOL     OW88227   0.336   2.259  14.141
28818SOL    HW188228   0.390   2.269  14.062
28818SOL    HW288229   0.369   2.179  14.182
28819SOL     OW88230   8.104  13.926  12.593
28819SOL    HW188231   8.078  13.979  12.668
28819SOL    HW288232   8.144  13.847  12.631
28820SOL     OW88233   8.905  10.222   6.794
28820SOL    HW188234   8.840  10.154   6.814
28820SOL    HW288235   8.861  10.304   6.815
28821SOL     OW88236   1.796  11.320  14.629
28821SOL    HW188237   1.884  11.301  14.660
28821SOL    HW288238   1.798  11.296  14.536
28822SOL     OW88239   5.376  14.654   7.008
28822SOL    HW188240   5.393  14.733   6.958
28822SOL    HW288241   5.450  14.647   7.068
28823SOL     OW88242   3.096  12.278  13.472
28823SOL    HW188243   3.045  12.234  13.540
28823SOL    HW288244   3.167  12.217  13.452
28824SOL     OW88245  11.005   3.769  13.291
28824SOL    HW188246  10.988   3.675  13.286
28824SOL    HW288247  11.071   3.778  13.359
28825SOL     OW88248   7.159   4.881   6.859
28825SOL    HW188249   7.135   4.880   6.952
28825SOL    HW288250   7.223   4.952   6.852
28826SOL     OW88251  10.741  11.301   5.142
28826SOL    HW188252  10.768  11.339   5.225
28826SOL    HW288253  10.703  11.374   5.093
28827SOL     OW88254   5.354   8.172  11.413
28827SOL    HW188255   5.271   8.211  11.385
28827SOL    HW288256   5.327   8.100  11.471
28828SOL     OW88257   9.250   1.156   8.851
28828SOL    HW188258   9.204   1.222   8.800
28828SOL    HW288259   9.180   1.101   8.888
28829SOL     OW88260  13.301   1.566   4.227
28829SOL    HW188261  13.376   1.600   4.275
28829SOL    HW288262  13.336   1.494   4.175
28830SOL     OW88263   2.829   6.542   3.132
28830SOL    HW188264   2.890   6.558   3.204
28830SOL    HW288265   2.847   6.452   3.104
28831SOL     OW88266  12.070   9.496   9.934
28831SOL    HW188267  12.039   9.586   9.947
28831SOL    HW288268  12.129   9.480  10.008
28832SOL     OW88269  10.944  14.488   9.595
28832SOL    HW188270  10.970  14.502   9.504
28832SOL    HW288271  10.849  14.476   9.592
28833SOL     OW88272   8.770   5.693   7.298
28833SOL    HW188273   8.864   5.697   7.317
28833SOL    HW288274   8.732   5.649   7.374
28834SOL     OW88275   3.846   7.591  14.746
28834SOL    HW188276   3.788   7.618  14.675
28834SOL    HW288277   3.813   7.505  14.773
28835SOL     OW88278   0.397   5.187  11.794
28835SOL    HW188279   0.372   5.264  11.743
28835SOL    HW288280   0.445   5.223  11.868
28836SOL     OW88281  13.769  14.349   4.631
28836SOL    HW188282  13.756  14.371   4.538
28836SOL    HW288283  13.682  14.325   4.662
28837SOL     OW88284  13.679   8.572   8.030
28837SOL    HW188285  13.658   8.503   7.966
28837SOL    HW288286  13.717   8.525   8.104
28838SOL     OW88287  13.937   2.848   8.267
28838SOL    HW188288  13.928   2.902   8.346
28838SOL    HW288289  13.849   2.845   8.230
28839SOL     OW88290   7.236   0.589  10.818
28839SOL    HW188291   7.173   0.544  10.762
28839SOL    HW288292   7.282   0.649  10.759
28840SOL     OW88293   0.216  11.603   8.460
28840SOL    HW188294   0.264  11.605   8.377
28840SOL    HW288295   0.201  11.695   8.482
28841SOL     OW88296   4.683  12.017  12.375
28841SOL    HW188297   4.623  11.990  12.444
28841SOL    HW288298   4.722  12.098  12.408
28842SOL     OW88299  10.868   0.342   1.207
28842SOL    HW188300  10.888   0.427   1.167
28842SOL    HW288301  10.939   0.329   1.270
28843SOL     OW88302  13.992   7.970   3.907
28843SOL    HW188303  13.918   7.913   3.931
28843SOL    HW288304  14.020   7.937   3.821
28844SOL     OW88305  12.644   4.027   4.896
28844SOL    HW188306  12.603   4.019   4.810
28844SOL    HW288307  12.574   4.007   4.958
28845SOL     OW88308   7.065   4.406   4.102
28845SOL    HW188309   7.090   4.317   4.077
28845SOL    HW288310   6.988   4.394   4.158
28846SOL     OW88311   6.374  13.155  11.175
28846SOL    HW188312   6.398  13.087  11.237
28846SOL    HW288313   6.361  13.233  11.228
28847SOL     OW88314   9.201  10.529   1.455
28847SOL    HW188315   9.118  10.514   1.501
28847SOL    HW288316   9.183  10.507   1.364
28848SOL     OW88317   2.055   1.629  11.404
28848SOL    HW188318   2.023   1.717  11.423
28848SOL    HW288319   2.149   1.641  11.388
28849SOL     OW88320   9.456   5.260   2.765
28849SOL    HW188321   9.474   5.183   2.711
28849SOL    HW288322   9.477   5.334   2.708
28850SOL     OW88323  11.995   0.019   2.320
28850SOL    HW188324  12.069   0.079   2.320
28850SOL    HW288325  11.979   0.001   2.227
28851SOL     OW88326   6.820  10.874  14.721
28851SOL    HW188327   6.750  10.813  14.746
28851SOL    HW288328   6.788  10.960  14.749
28852SOL     OW88329   1.349  14.025   6.344
28852SOL    HW188330   1.265  14.065   6.363
28852SOL    HW288331   1.348  13.942   6.391
28853SOL     OW88332  14.341   6.915   4.444
28853SOL    HW188333  14.246   6.908   4.446
28853SOL    HW288334  14.372   6.826   4.462
28854SOL     OW88335   0.269   3.248  11.314
28854SOL    HW188336   0.314   3.330  11.335
28854SOL    HW288337   0.226   3.222  11.395
28855SOL     OW88338   5.136   3.662  14.116
28855SOL    HW188339   5.214   3.696  14.159
28855SOL    HW288340   5.126   3.717  14.038
28856SOL     OW88341  14.582   0.807   7.329
28856SOL    HW188342  14.573   0.794   7.234
28856SOL    HW288343  14.513   0.869   7.351
28857SOL     OW88344   8.738   5.860   8.380
28857SOL    HW188345   8.733   5.950   8.348
28857SOL    HW288346   8.679   5.811   8.323
28858SOL     OW88347   7.365   0.355   3.536
28858SOL    HW188348   7.331   0.341   3.447
28858SOL    HW288349   7.395   0.446   3.535
28859SOL     OW88350   0.378   4.077  14.689
28859SOL    HW188351   0.419   4.161  14.669
28859SOL    HW288352   0.406   4.058  14.779
28860SOL     OW88353   4.400   9.497  14.050
28860SOL    HW188354   4.441   9.567  13.999
28860SOL    HW288355   4.430   9.511  14.140
28861SOL     OW88356   7.056   3.466  14.538
28861SOL    HW188357   7.074   3.454  14.445
28861SOL    HW288358   7.115   3.404  14.582
28862SOL     OW88359   1.605   6.978  12.334
28862SOL    HW188360   1.598   7.041  12.263
28862SOL    HW288361   1.669   6.914  12.303
28863SOL     OW88362   7.085  14.005   5.344
28863SOL    HW188363   7.069  14.057   5.265
28863SOL    HW288364   6.999  13.968   5.366
28864SOL     OW88365   9.569   3.287   4.754
28864SOL    HW188366   9.559   3.297   4.660
28864SOL    HW288367   9.625   3.360   4.781
28865SOL     OW88368  10.724   4.698  12.050
28865SOL    HW188369  10.635   4.666  12.063
28865SOL    HW288370  10.772   4.670  12.127
28866SOL     OW88371  12.303   2.286   6.504
28866SOL    HW188372  12.299   2.366   6.452
28866SOL    HW288373  12.231   2.295   6.566
28867SOL     OW88374   2.437  11.703   1.333
28867SOL    HW188375   2.361  11.761   1.339
28867SOL    HW288376   2.497  11.733   1.401
28868SOL     OW88377   9.155   5.557  13.314
28868SOL    HW188378   9.119   5.645  13.312
28868SOL    HW288379   9.079   5.500  13.329
28869SOL     OW88380  10.785  12.089   6.946
28869SOL    HW188381  10.699  12.049   6.956
28869SOL    HW288382  10.778  12.174   6.990
28870SOL     OW88383   6.577   2.777  12.831
28870SOL    HW188384   6.663   2.797  12.792
28870SOL    HW288385   6.545   2.862  12.861
28871SOL     OW88386  13.006   8.039  11.725
28871SOL    HW188387  12.975   7.973  11.663
28871SOL    HW288388  13.052   8.103  11.670
28872SOL     OW88389   9.364  11.847   9.547
28872SOL    HW188390   9.272  11.826   9.530
28872SOL    HW288391   9.396  11.776   9.603
28873SOL     OW88392  12.493  10.414   2.085
28873SOL    HW188393  12.502  10.323   2.114
28873SOL    HW288394  12.582  10.440   2.061
28874SOL     OW88395   6.128  13.405  11.114
28874SOL    HW188396   6.180  13.427  11.037
28874SOL    HW288397   6.114  13.310  11.108
28875SOL     OW88398   3.705  10.550   9.127
28875SOL    HW188399   3.727  10.470   9.080
28875SOL    HW288400   3.611  10.562   9.112
28876SOL     OW88401  10.522  13.222  10.727
28876SOL    HW188402  10.606  13.268  10.732
28876SOL    HW288403  10.533  13.157  10.657
28877SOL     OW88404   4.545  10.836   4.245
28877SOL    HW188405   4.480  10.819   4.177
28877SOL    HW288406   4.575  10.925   4.230
28878SOL     OW88407   8.762   3.467  14.210
28878SOL    HW188408   8.779   3.459  14.303
28878SOL    HW288409   8.848   3.483  14.171
28879SOL     OW88410   2.541   5.725  14.247
28879SOL    HW188411   2.627   5.712  14.209
28879SOL    HW288412   2.543   5.676  14.329
28880SOL     OW88413   8.918   4.062   8.017
28880SOL    HW188414   8.971   4.091   8.092
28880SOL    HW288415   8.937   3.969   8.009
28881SOL     OW88416  13.370   1.638  11.741
28881SOL    HW188417  13.369   1.548  11.709
28881SOL    HW288418  13.388   1.691  11.664
28882SOL     OW88419   2.578   4.391   8.219
28882SOL    HW188420   2.518   4.319   8.199
28882SOL    HW288421   2.542   4.466   8.172
28883SOL     OW88422   9.251  14.733   6.504
28883SOL    HW188423   9.338  14.694   6.512
28883SOL    HW288424   9.218  14.701   6.420
28884SOL     OW88425  12.545   7.501  11.048
28884SOL    HW188426  12.620   7.507  11.106
28884SOL    HW288427  12.469   7.517  11.105
28885SOL     OW88428   4.950  10.179   5.229
28885SOL    HW188429   4.922  10.230   5.153
28885SOL    HW288430   5.045  10.179   5.224
28886SOL     OW88431  12.315  14.841   6.435
28886SOL    HW188432  12.396  14.790   6.442
28886SOL    HW288433  12.335   0.028   6.367
28887SOL     OW88434   3.048   5.776   4.376
28887SOL    HW188435   3.135   5.808   4.403
28887SOL    HW288436   3.064   5.732   4.293
28888SOL     OW88437  11.531   4.971   8.985
28888SOL    HW188438  11.527   5.062   9.013
28888SOL    HW288439  11.445   4.954   8.946
28889SOL     OW88440   4.249  10.184   4.355
28889SOL    HW188441   4.327  10.141   4.322
28889SOL    HW288442   4.278  10.229   4.434
28890SOL     OW88443   4.344   0.038   2.619
28890SOL    HW188444   4.298  14.876   2.693
28890SOL    HW288445   4.385   0.116   2.656
28891SOL     OW88446  12.157  14.674   0.703
28891SOL    HW188447  12.146  14.702   0.612
28891SOL    HW288448  12.247  14.642   0.707
28892SOL     OW88449   2.677   6.509   2.607
28892SOL    HW188450   2.583   6.496   2.623
28892SOL    HW288451   2.719   6.472   2.684
28893SOL     OW88452   5.842   0.866   4.148
28893SOL    HW188453   5.868   0.818   4.070
28893SOL    HW288454   5.748   0.849   4.157
28894SOL     OW88455   3.678   5.984   8.132
28894SOL    HW188456   3.635   6.065   8.101
28894SOL    HW288457   3.771   5.997   8.114
28895SOL     OW88458   4.818   1.343   2.458
28895SOL    HW188459   4.840   1.348   2.365
28895SOL    HW288460   4.800   1.434   2.483
28896SOL     OW88461  14.660   7.981   2.163
28896SOL    HW188462  14.687   8.067   2.195
28896SOL    HW288463  14.726   7.921   2.197
28897SOL     OW88464  11.641   0.191   0.221
28897SOL    HW188465  11.664   0.277   0.186
28897SOL    HW288466  11.724   0.154   0.252
28898SOL     OW88467   2.806   2.189   2.443
28898SOL    HW188468   2.755   2.156   2.517
28898SOL    HW288469   2.796   2.123   2.375
28899SOL     OW88470   5.615   0.047  13.248
28899SOL    HW188471   5.708   0.065  13.266
28899SOL    HW288472   5.616  14.841  13.201
28900SOL     OW88473   4.506  12.150  10.806
28900SOL    HW188474   4.477  12.194  10.886
28900SOL    HW288475   4.507  12.057  10.829
28901SOL     OW88476  10.005   0.145  10.200
28901SOL    HW188477  10.084   0.119  10.153
28901SOL    HW288478  10.020   0.237  10.223
28902SOL     OW88479   7.759   8.655   0.570
28902SOL    HW188480   7.721   8.658   0.658
28902SOL    HW288481   7.727   8.734   0.527
28903SOL     OW88482   0.140  13.022  11.586
28903SOL    HW188483   0.146  13.104  11.537
28903SOL    HW288484   0.219  12.973  11.561
28904SOL     OW88485   9.518   9.736   4.437
28904SOL    HW188486   9.473   9.711   4.518
28904SOL    HW288487   9.447   9.749   4.374
28905SOL     OW88488   2.253  10.190   2.951
28905SOL    HW188489   2.328  10.247   2.962
28905SOL    HW288490   2.290  10.103   2.936
28906SOL     OW88491   4.325   8.081   6.850
28906SOL    HW188492   4.329   7.985   6.853
28906SOL    HW288493   4.415   8.108   6.832
28907SOL     OW88494   8.584   3.034   0.506
28907SOL    HW188495   8.676   3.023   0.481
28907SOL    HW288496   8.539   2.961   0.465
28908SOL     OW88497  13.350   2.232  13.820
28908SOL    HW188498  13.399   2.277  13.888
28908SOL    HW288499  13.380   2.142  13.823
28909SOL     OW88500  11.060   9.877   7.999
28909SOL    HW188501  10.968   9.883   8.024
28909SOL    HW288502  11.086   9.788   8.024
28910SOL     OW88503  11.350  14.354  13.244
28910SOL    HW188504  11.394  14.385  13.165
28910SOL    HW288505  11.274  14.306  13.211
28911SOL     OW88506   9.385  14.416  12.606
28911SOL    HW188507   9.316  14.451  12.661
28911SOL    HW288508   9.445  14.373  12.667
28912SOL     OW88509   0.297   4.258   3.422
28912SOL    HW188510   0.370   4.320   3.424
28912SOL    HW288511   0.337   4.173   3.436
28913SOL     OW88512   5.547   0.066   1.870
28913SOL    HW188513   5.620   0.125   1.888
28913SOL    HW288514   5.477   0.096   1.928
28914SOL     OW88515  11.361   6.797   2.284
28914SOL    HW188516  11.429   6.793   2.351
28914SOL    HW288517  11.357   6.707   2.249
28915SOL     OW88518  11.430   8.646   0.580
28915SOL    HW188519  11.465   8.571   0.628
28915SOL    HW288520  11.353   8.672   0.629
28916SOL     OW88521  11.607   5.413   0.633
28916SOL    HW188522  11.669   5.341   0.645
28916SOL    HW288523  11.577   5.404   0.542
28917SOL     OW88524   1.879   1.298  10.703
28917SOL    HW188525   1.915   1.387  10.705
28917SOL    HW288526   1.899   1.263  10.790
28918SOL     OW88527   9.644   8.352   4.813
28918SOL    HW188528   9.696   8.286   4.859
28918SOL    HW288529   9.672   8.346   4.722
28919SOL     OW88530   4.984   9.784   9.631
28919SOL    HW188531   5.033   9.728   9.691
28919SOL    HW288532   5.047   9.851   9.605
28920SOL     OW88533   9.475  14.340   7.897
28920SOL    HW188534   9.550  14.379   7.853
28920SOL    HW288535   9.478  14.376   7.986
28921SOL     OW88536   5.912  13.024  10.463
28921SOL    HW188537   5.869  12.977  10.534
28921SOL    HW288538   5.866  13.108  10.458
28922SOL     OW88539  10.409  13.577   4.453
28922SOL    HW188540  10.421  13.671   4.440
28922SOL    HW288541  10.436  13.561   4.543
28923SOL     OW88542   1.664   2.587  12.913
28923SOL    HW188543   1.585   2.630  12.880
28923SOL    HW288544   1.714   2.565  12.835
28924SOL     OW88545   1.646   1.284  10.464
28924SOL    HW188546   1.700   1.256  10.390
28924SOL    HW288547   1.689   1.363  10.496
28925SOL     OW88548   8.958   8.899   1.790
28925SOL    HW188549   9.014   8.850   1.850
28925SOL    HW288550   8.872   8.898   1.832
28926SOL     OW88551  10.345  10.995   0.335
28926SOL    HW188552  10.322  10.989   0.242
28926SOL    HW288553  10.428  10.947   0.342
28927SOL     OW88554  13.721   2.037  12.890
28927SOL    HW188555  13.658   1.967  12.873
28927SOL    HW288556  13.790   1.995  12.941
28928SOL     OW88557   2.148  14.561   1.471
28928SOL    HW188558   2.168  14.587   1.561
28928SOL    HW288559   2.073  14.616   1.447
28929SOL     OW88560  12.799   2.708   4.326
28929SOL    HW188561  12.808   2.770   4.399
28929SOL    HW288562  12.889   2.686   4.302
28930SOL     OW88563  14.832   6.785  10.483
28930SOL    HW188564  14.871   6.792  10.396
28930SOL    HW288565   0.024   6.809  10.543
28931SOL     OW88566   2.647  10.141  10.659
28931SOL    HW188567   2.568  10.104  10.620
28931SOL    HW288568   2.652  10.229  10.623
28932SOL     OW88569   7.591   0.777   9.832
28932SOL    HW188570   7.635   0.749   9.752
28932SOL    HW288571   7.528   0.843   9.803
28933SOL     OW88572   2.084  12.559  10.658
28933SOL    HW188573   2.080  12.608  10.576
28933SOL    HW288574   2.164  12.590  10.701
28934SOL     OW88575   6.158   1.429   6.762
28934SOL    HW188576   6.163   1.493   6.833
28934SOL    HW288577   6.208   1.469   6.691
28935SOL     OW88578  11.789   5.463   4.713
28935SOL    HW188579  11.816   5.548   4.748
28935SOL    HW288580  11.822   5.463   4.623
28936SOL     OW88581  13.627   7.381   5.576
28936SOL    HW188582  13.602   7.355   5.665
28936SOL    HW288583  13.603   7.305   5.522
28937SOL     OW88584   6.562   4.150   7.808
28937SOL    HW188585   6.522   4.235   7.827
28937SOL    HW288586   6.538   4.095   7.882
28938SOL     OW88587  12.880  14.451  13.045
28938SOL    HW188588  12.952  14.438  12.983
28938SOL    HW288589  12.854  14.363  13.072
28939SOL     OW88590   8.128  10.944  11.450
28939SOL    HW188591   8.082  11.024  11.474
28939SOL    HW288592   8.199  10.972  11.392
28940SOL     OW88593  14.324   2.811  10.363
28940SOL    HW188594  14.245   2.776  10.405
28940SOL    HW288595  14.358   2.875  10.425
28941SOL     OW88596   9.801  11.813  12.040
28941SOL    HW188597   9.844  11.807  12.126
28941SOL    HW288598   9.872  11.823  11.978
28942SOL     OW88599   7.403   2.194   2.437
28942SOL    HW188600   7.484   2.165   2.480
28942SOL    HW288601   7.338   2.196   2.508
28943SOL     OW88602  12.528  12.660  14.126
28943SOL    HW188603  12.515  12.734  14.066
28943SOL    HW288604  12.440  12.626  14.141
28944SOL     OW88605   1.336  12.270   9.208
28944SOL    HW188606   1.305  12.182   9.185
28944SOL    HW288607   1.336  12.270   9.304
28945SOL     OW88608  14.793   8.744   6.265
28945SOL    HW188609  14.755   8.659   6.245
28945SOL    HW288610  14.719   8.796   6.297
28946SOL     OW88611   3.691  14.700  10.388
28946SOL    HW188612   3.678  14.794  10.377
28946SOL    HW288613   3.780  14.693  10.423
28947SOL     OW88614   9.149  10.467   4.536
28947SOL    HW188615   9.135  10.430   4.449
28947SOL    HW288616   9.240  10.447   4.558
28948SOL     OW88617   4.026   9.451   3.144
28948SOL    HW188618   4.093   9.516   3.121
28948SOL    HW288619   3.978   9.436   3.063
28949SOL     OW88620  10.841   3.209  10.882
28949SOL    HW188621  10.936   3.208  10.896
28949SOL    HW288622  10.822   3.129  10.833
28950SOL     OW88623   3.834   2.228  10.810
28950SOL    HW188624   3.830   2.316  10.774
28950SOL    HW288625   3.787   2.174  10.747
28951SOL     OW88626   5.356   6.239   4.977
28951SOL    HW188627   5.421   6.243   4.907
28951SOL    HW288628   5.394   6.178   5.041
28952SOL     OW88629   1.860  10.848   9.479
28952SOL    HW188630   1.882  10.930   9.434
28952SOL    HW288631   1.815  10.876   9.559
28953SOL     OW88632   8.565  11.664  13.274
28953SOL    HW188633   8.530  11.682  13.187
28953SOL    HW288634   8.652  11.627  13.258
28954SOL     OW88635  13.815   6.008   1.004
28954SOL    HW188636  13.757   5.967   0.940
28954SOL    HW288637  13.866   5.936   1.041
28955SOL     OW88638  14.469   5.894   0.154
28955SOL    HW188639  14.457   5.809   0.197
28955SOL    HW288640  14.399   5.949   0.190
28956SOL     OW88641   1.520   8.425  10.514
28956SOL    HW188642   1.498   8.419  10.607
28956SOL    HW288643   1.449   8.478  10.476
28957SOL     OW88644  13.504   0.617   1.860
28957SOL    HW188645  13.500   0.530   1.901
28957SOL    HW288646  13.519   0.599   1.767
28958SOL     OW88647   5.037   4.819  10.513
28958SOL    HW188648   4.947   4.847  10.526
28958SOL    HW288649   5.038   4.779  10.426
28959SOL     OW88650   4.490   9.392   4.763
28959SOL    HW188651   4.559   9.403   4.698
28959SOL    HW288652   4.480   9.480   4.802
28960SOL     OW88653   8.311  13.305   8.162
28960SOL    HW188654   8.302  13.221   8.118
28960SOL    HW288655   8.396  13.339   8.132
28961SOL     OW88656  10.572   3.326   4.038
28961SOL    HW188657  10.649   3.308   3.983
28961SOL    HW288658  10.538   3.410   4.006
28962SOL     OW88659   2.307   5.487  13.448
28962SOL    HW188660   2.377   5.435  13.487
28962SOL    HW288661   2.348   5.531  13.374
28963SOL     OW88662   6.492   1.874   1.604
28963SOL    HW188663   6.401   1.889   1.575
28963SOL    HW288664   6.545   1.918   1.538
28964SOL     OW88665   1.838   6.988   2.400
28964SOL    HW188666   1.930   6.993   2.375
28964SOL    HW288667   1.828   6.900   2.437
28965SOL     OW88668   3.573   5.620   3.248
28965SOL    HW188669   3.629   5.587   3.178
28965SOL    HW288670   3.502   5.556   3.254
28966SOL     OW88671  11.139  12.794   7.086
28966SOL    HW188672  11.115  12.747   7.166
28966SOL    HW288673  11.055  12.816   7.046
28967SOL     OW88674   9.991   3.988   6.898
28967SOL    HW188675  10.008   4.060   6.959
28967SOL    HW288676   9.930   3.931   6.945
28968SOL     OW88677   4.663   6.888  12.059
28968SOL    HW188678   4.646   6.862  11.968
28968SOL    HW288679   4.623   6.975  12.067
28969SOL     OW88680   5.051  12.297  12.128
28969SOL    HW188681   5.090  12.255  12.204
28969SOL    HW288682   5.123  12.343  12.084
28970SOL     OW88683   2.851  13.884   1.329
28970SOL    HW188684   2.946  13.878   1.320
28970SOL    HW288685   2.837  13.953   1.395
28971SOL     OW88686  13.175  10.223   5.478
28971SOL    HW188687  13.098  10.184   5.438
28971SOL    HW288688  13.161  10.317   5.471
28972SOL     OW88689  11.227   7.608  10.246
28972SOL    HW188690  11.272   7.650  10.174
28972SOL    HW288691  11.290   7.608  10.318
28973SOL     OW88692   1.605   6.236   2.450
28973SOL    HW188693   1.675   6.227   2.385
28973SOL    HW288694   1.587   6.147   2.479
28974SOL     OW88695  13.874  14.014  13.761
28974SOL    HW188696  13.783  14.023  13.790
28974SOL    HW288697  13.869  14.012  13.666
28975SOL     OW88698   9.701   2.274  14.756
28975SOL    HW188699   9.658   2.263  14.671
28975SOL    HW288700   9.659   2.351  14.795
28976SOL     OW88701  11.649   8.165  11.360
28976SOL    HW188702  11.707   8.091  11.344
28976SOL    HW288703  11.672   8.228  11.291
28977SOL     OW88704  12.450   2.791   0.491
28977SOL    HW188705  12.458   2.775   0.397
28977SOL    HW288706  12.473   2.883   0.502
28978SOL     OW88707   7.909  11.538  10.793
28978SOL    HW188708   7.885  11.479  10.721
28978SOL    HW288709   7.859  11.618  10.774
28979SOL     OW88710  11.886   6.670   4.161
28979SOL    HW188711  11.800   6.696   4.129
28979SOL    HW288712  11.913   6.741   4.219
28980SOL     OW88713  10.182   1.083   0.626
28980SOL    HW188714  10.231   1.091   0.707
28980SOL    HW288715  10.129   1.162   0.621
28981SOL     OW88716   2.557  12.930  12.122
28981SOL    HW188717   2.503  12.946  12.044
28981SOL    HW288718   2.628  12.994  12.115
28982SOL     OW88719   9.715  10.387   2.272
28982SOL    HW188720   9.656  10.392   2.197
28982SOL    HW288721   9.800  10.416   2.238
28983SOL     OW88722   7.981   9.582   7.475
28983SOL    HW188723   7.979   9.544   7.563
28983SOL    HW288724   7.916   9.652   7.477
28984SOL     OW88725   1.522   2.771   7.869
28984SOL    HW188726   1.493   2.820   7.946
28984SOL    HW288727   1.549   2.839   7.806
28985SOL     OW88728   3.829  14.007   2.196
28985SOL    HW188729   3.848  14.086   2.146
28985SOL    HW288730   3.860  13.935   2.141
28986SOL     OW88731   9.909   1.971   8.428
28986SOL    HW188732   9.853   1.904   8.468
28986SOL    HW288733   9.997   1.936   8.435
28987SOL     OW88734   9.180  12.418   8.732
28987SOL    HW188735   9.186  12.460   8.646
28987SOL    HW288736   9.269  12.391   8.752
28988SOL     OW88737   9.579   5.491  13.225
28988SOL    HW188738   9.546   5.565  13.175
28988SOL    HW288739   9.674   5.506  13.230
28989SOL     OW88740   3.144   0.272   1.668
28989SOL    HW188741   3.186   0.297   1.586
28989SOL    HW288742   3.141   0.353   1.719
28990SOL     OW88743   7.083   3.633   9.953
28990SOL    HW188744   7.082   3.653   9.860
28990SOL    HW288745   7.033   3.551   9.961
28991SOL     OW88746   6.629   3.656   7.108
28991SOL    HW188747   6.534   3.664   7.094
28991SOL    HW288748   6.665   3.650   7.019
28992SOL     OW88749   7.817   5.613   1.428
28992SOL    HW188750   7.902   5.573   1.410
28992SOL    HW288751   7.819   5.697   1.383
28993SOL     OW88752   0.757   9.418   4.466
28993SOL    HW188753   0.821   9.429   4.537
28993SOL    HW288754   0.672   9.431   4.508
28994SOL     OW88755   7.435  12.398  14.274
28994SOL    HW188756   7.443  12.393  14.178
28994SOL    HW288757   7.361  12.340  14.294
28995SOL     OW88758   2.781   4.014   2.304
28995SOL    HW188759   2.701   4.013   2.357
28995SOL    HW288760   2.808   4.106   2.303
28996SOL     OW88761   3.832  14.380   6.636
28996SOL    HW188762   3.785  14.346   6.712
28996SOL    HW288763   3.857  14.302   6.587
28997SOL     OW88764   4.742   6.740   0.816
28997SOL    HW188765   4.833   6.745   0.789
28997SOL    HW288766   4.730   6.814   0.876
28998SOL     OW88767   0.549   9.472   2.568
28998SOL    HW188768   0.582   9.444   2.483
28998SOL    HW288769   0.493   9.548   2.549
28999SOL     OW88770  10.121   8.712   0.065
28999SOL    HW188771  10.091   8.793   0.106
28999SOL    HW288772  10.042   8.659   0.055
29000SOL     OW88773   9.551   2.511  10.635
29000SOL    HW188774   9.615   2.574  10.602
29000SOL    HW288775   9.514   2.471  10.556
29001SOL     OW88776  11.349   9.058  14.259
29001SOL    HW188777  11.304   9.002  14.195
29001SOL    HW288778  11.298   9.138  14.260
29002SOL     OW88779   7.680   3.276   8.237
29002SOL    HW188780   7.637   3.260   8.153
29002SOL    HW288781   7.608   3.289   8.298
29003SOL     OW88782   9.675   7.636   7.962
29003SOL    HW188783   9.591   7.679   7.979
29003SOL    HW288784   9.660   7.587   7.881
29004SOL     OW88785   8.910   2.166   5.234
29004SOL    HW188786   8.819   2.196   5.233
29004SOL    HW288787   8.955   2.230   5.288
29005SOL     OW88788  14.492  11.727  12.125
29005SOL    HW188789  14.435  11.730  12.049
29005SOL    HW288790  14.470  11.645  12.169
29006SOL     OW88791   8.831  11.666   0.027
29006SOL    HW188792   8.798  11.577   0.033
29006SOL    HW288793   8.782  11.715   0.093
29007SOL     OW88794   8.049   2.753   6.560
29007SOL    HW188795   7.961   2.760   6.597
29007SOL    HW288796   8.064   2.836   6.515
29008SOL     OW88797   7.001   1.300  14.482
29008SOL    HW188798   6.919   1.320  14.436
29008SOL    HW288799   7.025   1.213  14.450
29009SOL     OW88800  13.064   3.924   6.478
29009SOL    HW188801  13.024   3.878   6.404
29009SOL    HW288802  13.148   3.879   6.492
29010SOL     OW88803   1.387   3.044   0.001
29010SOL    HW188804   1.398   2.951   0.018
29010SOL    HW288805   1.347   3.080   0.080
29011SOL     OW88806   0.040   4.358   4.333
29011SOL    HW188807   0.020   4.419   4.404
29011SOL    HW288808   0.024   4.408   4.253
29012SOL     OW88809   3.295  11.038  10.989
29012SOL    HW188810   3.272  10.957  11.034
29012SOL    HW288811   3.352  11.010  10.917
29013SOL     OW88812   3.363  13.797   4.567
29013SOL    HW188813   3.269  13.785   4.584
29013SOL    HW288814   3.380  13.888   4.592
29014SOL     OW88815   5.438  13.778  10.267
29014SOL    HW188816   5.526  13.748  10.289
29014SOL    HW288817   5.399  13.705  10.218
29015SOL     OW88818   9.113  10.007   4.335
29015SOL    HW188819   9.031   9.962   4.352
29015SOL    HW288820   9.129  10.058   4.415
29016SOL     OW88821   1.901   7.625   2.620
29016SOL    HW188822   1.867   7.702   2.575
29016SOL    HW288823   1.985   7.652   2.655
29017SOL     OW88824   8.216  10.054   4.734
29017SOL    HW188825   8.273   9.982   4.709
29017SOL    HW288826   8.247  10.129   4.683
29018SOL     OW88827  14.616  10.734  12.921
29018SOL    HW188828  14.595  10.801  12.856
29018SOL    HW288829  14.634  10.782  13.001
29019SOL     OW88830  14.746  10.852   4.078
29019SOL    HW188831  14.656  10.885   4.072
29019SOL    HW288832  14.784  10.873   3.992
29020SOL     OW88833  11.470  13.605   8.750
29020SOL    HW188834  11.561  13.590   8.722
29020SOL    HW288835  11.438  13.672   8.690
29021SOL     OW88836  10.253   8.548  14.541
29021SOL    HW188837  10.278   8.591  14.623
29021SOL    HW288838  10.296   8.462  14.545
29022SOL     OW88839   9.599   3.744  14.314
29022SOL    HW188840   9.512   3.766  14.281
29022SOL    HW288841   9.623   3.664  14.266
29023SOL     OW88842   0.981  12.157  13.655
29023SOL    HW188843   0.910  12.103  13.621
29023SOL    HW288844   1.061  12.113  13.625
29024SOL     OW88845   8.719  14.124  10.497
29024SOL    HW188846   8.776  14.048  10.508
29024SOL    HW288847   8.630  14.088  10.495
29025SOL     OW88848  11.015  11.698  12.049
29025SOL    HW188849  10.957  11.651  12.108
29025SOL    HW288850  11.099  11.704  12.096
29026SOL     OW88851  10.992   9.878   3.202
29026SOL    HW188852  11.017   9.970   3.207
29026SOL    HW288853  10.900   9.880   3.176
29027SOL     OW88854  14.310   4.324  14.723
29027SOL    HW188855  14.236   4.334  14.663
29027SOL    HW288856  14.322   4.230  14.731
29028SOL     OW88857   7.415  14.564   6.706
29028SOL    HW188858   7.383  14.581   6.617
29028SOL    HW288859   7.346  14.597   6.763
29029SOL     OW88860   8.829  11.003   3.987
29029SOL    HW188861   8.761  10.938   3.974
29029SOL    HW288862   8.907  10.952   4.010
29030SOL     OW88863  13.996   9.095   7.289
29030SOL    HW188864  14.054   9.111   7.363
29030SOL    HW288865  13.915   9.064   7.328
29031SOL     OW88866   5.871   6.877   3.585
29031SOL    HW188867   5.886   6.815   3.656
29031SOL    HW288868   5.921   6.955   3.610
29032SOL     OW88869  10.227  10.232   7.113
29032SOL    HW188870  10.176  10.152   7.103
29032SOL    HW288871  10.213  10.259   7.203
29033SOL     OW88872   9.328  13.944   5.458
29033SOL    HW188873   9.324  14.013   5.525
29033SOL    HW288874   9.269  13.876   5.492
29034SOL     OW88875   5.592   1.860  11.678
29034SOL    HW188876   5.645   1.867  11.758
29034SOL    HW288877   5.633   1.922  11.617
29035SOL     OW88878   6.075  14.411   1.567
29035SOL    HW188879   6.068  14.473   1.640
29035SOL    HW288880   6.074  14.325   1.608
29036SOL     OW88881  12.052  14.462  10.330
29036SOL    HW188882  11.966  14.457  10.371
29036SOL    HW288883  12.041  14.421  10.245
29037SOL     OW88884   5.113   3.277   3.433
29037SOL    HW188885   5.104   3.252   3.525
29037SOL    HW288886   5.208   3.288   3.421
29038SOL     OW88887   0.877   7.349   8.690
29038SOL    HW188888   0.789   7.381   8.708
29038SOL    HW288889   0.901   7.298   8.767
29039SOL     OW88890  13.452   7.734  11.329
29039SOL    HW188891  13.359   7.725  11.346
29039SOL    HW288892  13.491   7.752  11.414
29040SOL     OW88893   9.633  11.434   5.949
29040SOL    HW188894   9.719  11.477   5.949
29040SOL    HW288895   9.573  11.502   5.979
29041SOL     OW88896   2.653   0.347  12.176
29041SOL    HW188897   2.661   0.436  12.142
29041SOL    HW288898   2.591   0.354  12.248
29042SOL     OW88899   2.193   0.078  14.466
29042SOL    HW188900   2.249   0.155  14.463
29042SOL    HW288901   2.105   0.113  14.479
29043SOL     OW88902  13.763  13.041   3.155
29043SOL    HW188903  13.711  12.966   3.126
29043SOL    HW288904  13.835  13.046   3.093
29044SOL     OW88905   1.199   2.145  11.770
29044SOL    HW188906   1.288   2.149  11.735
29044SOL    HW288907   1.187   2.053  11.795
29045SOL     OW88908  14.170   6.376   5.578
29045SOL    HW188909  14.254   6.418   5.563
29045SOL    HW288910  14.107   6.449   5.582
29046SOL     OW88911   7.662  14.215   5.250
29046SOL    HW188912   7.603  14.213   5.175
29046SOL    HW288913   7.616  14.167   5.318
29047SOL     OW88914   8.596   0.422   6.894
29047SOL    HW188915   8.512   0.413   6.939
29047SOL    HW288916   8.643   0.341   6.913
29048SOL     OW88917   4.300   6.781   6.898
29048SOL    HW188918   4.371   6.739   6.946
29048SOL    HW288919   4.336   6.798   6.811
29049SOL     OW88920   8.228  10.314   9.189
29049SOL    HW188921   8.313  10.271   9.178
29049SOL    HW288922   8.250  10.403   9.218
29050SOL     OW88923  11.451   4.029  12.197
29050SOL    HW188924  11.475   3.938  12.210
29050SOL    HW288925  11.527   4.078  12.230
29051SOL     OW88926   0.114   0.532  11.816
29051SOL    HW188927   0.131   0.573  11.901
29051SOL    HW288928   0.197   0.491  11.791
29052SOL     OW88929  13.662  10.483   3.331
29052SOL    HW188930  13.687  10.516   3.417
29052SOL    HW288931  13.737  10.505   3.275
29053SOL     OW88932   0.085   3.852   6.531
29053SOL    HW188933   0.060   3.770   6.572
29053SOL    HW288934   0.145   3.893   6.592
29054SOL     OW88935   1.207  12.987   9.447
29054SOL    HW188936   1.115  13.003   9.467
29054SOL    HW288937   1.252  13.001   9.530
29055SOL     OW88938  11.845   3.971   4.391
29055SOL    HW188939  11.775   3.990   4.329
29055SOL    HW288940  11.924   4.005   4.349
29056SOL     OW88941  10.968   7.430   2.786
29056SOL    HW188942  10.939   7.388   2.705
29056SOL    HW288943  10.944   7.369   2.856
29057SOL     OW88944   5.190   3.881   0.603
29057SOL    HW188945   5.194   3.823   0.527
29057SOL    HW288946   5.260   3.945   0.588
29058SOL     OW88947   3.014   9.942   5.909
29058SOL    HW188948   3.059  10.026   5.904
29058SOL    HW288949   3.056   9.898   5.984
29059SOL     OW88950   5.499   9.762   4.935
29059SOL    HW188951   5.585   9.726   4.914
29059SOL    HW288952   5.440   9.720   4.872
29060SOL     OW88953  12.533  11.892  11.799
29060SOL    HW188954  12.556  11.810  11.843
29060SOL    HW288955  12.551  11.874  11.706
29061SOL     OW88956   4.135   2.642   3.074
29061SOL    HW188957   4.063   2.679   3.124
29061SOL    HW288958   4.134   2.549   3.098
29062SOL     OW88959   0.430   2.039   7.348
29062SOL    HW188960   0.434   2.011   7.440
29062SOL    HW288961   0.428   1.957   7.299
29063SOL     OW88962   6.491   1.559   5.176
29063SOL    HW188963   6.454   1.476   5.144
29063SOL    HW288964   6.472   1.558   5.270
29064SOL     OW88965   7.176   1.280  10.499
29064SOL    HW188966   7.242   1.295  10.567
29064SOL    HW288967   7.192   1.191  10.468
29065SOL     OW88968   4.261   0.012   4.764
29065SOL    HW188969   4.180  14.849   4.792
29065SOL    HW288970   4.322  14.817   4.753
29066SOL     OW88971   5.242   4.480   1.478
29066SOL    HW188972   5.338   4.482   1.475
29066SOL    HW288973   5.219   4.391   1.452
29067SOL     OW88974   7.673   7.936   1.242
29067SOL    HW188975   7.705   7.998   1.307
29067SOL    HW288976   7.751   7.908   1.195
29068SOL     OW88977   0.312   4.010   7.734
29068SOL    HW188978   0.354   4.088   7.771
29068SOL    HW288979   0.376   3.976   7.671
29069SOL     OW88980   3.710   8.178   4.726
29069SOL    HW188981   3.667   8.218   4.801
29069SOL    HW288982   3.803   8.175   4.750
29070SOL     OW88983   7.093  14.258  11.539
29070SOL    HW188984   7.137  14.325  11.487
29070SOL    HW288985   7.106  14.286  11.630
29071SOL     OW88986   7.986   3.496   0.093
29071SOL    HW188987   8.031   3.554   0.032
29071SOL    HW288988   8.008   3.530   0.180
29072SOL     OW88989   8.563   0.879   3.690
29072SOL    HW188990   8.476   0.885   3.650
29072SOL    HW288991   8.581   0.968   3.721
29073SOL     OW88992   7.758   0.101  11.869
29073SOL    HW188993   7.762   0.134  11.779
29073SOL    HW288994   7.727   0.176  11.920
29074SOL     OW88995   8.901  11.185   0.300
29074SOL    HW188996   8.980  11.133   0.287
29074SOL    HW288997   8.849  11.136   0.363
29075SOL     OW88998   9.205  12.930  12.961
29075SOL    HW188999   9.258  13.009  12.976
29075SOL    HW289000   9.206  12.919  12.866
29076SOL     OW89001  10.164   1.239   7.751
29076SOL    HW189002  10.199   1.164   7.799
29076SOL    HW289003  10.069   1.234   7.765
29077SOL     OW89004   1.851   2.658   7.742
29077SOL    HW189005   1.805   2.591   7.792
29077SOL    HW289006   1.849   2.736   7.799
29078SOL     OW89007  12.499   7.360   6.041
29078SOL    HW189008  12.515   7.454   6.032
29078SOL    HW289009  12.586   7.321   6.045
29079SOL     OW89010  11.955   1.476   3.473
29079SOL    HW189011  11.926   1.416   3.542
29079SOL    HW289012  12.034   1.518   3.509
29080SOL     OW89013   3.980   8.354   5.014
29080SOL    HW189014   4.043   8.411   4.971
29080SOL    HW289015   3.941   8.303   4.942
29081SOL     OW89016   9.639   9.091   9.609
29081SOL    HW189017   9.677   9.112   9.524
29081SOL    HW289018   9.714   9.088   9.669
29082SOL     OW89019  10.911   6.751  12.129
29082SOL    HW189020  10.915   6.846  12.125
29082SOL    HW289021  10.941   6.722  12.043
29083SOL     OW89022   8.449   6.568  12.448
29083SOL    HW189023   8.538   6.534  12.456
29083SOL    HW289024   8.411   6.557  12.535
29084SOL     OW89025   1.843  11.938  11.107
29084SOL    HW189026   1.866  12.017  11.057
29084SOL    HW289027   1.750  11.923  11.087
29085SOL     OW89028  12.837  14.098   9.447
29085SOL    HW189029  12.848  14.100   9.352
29085SOL    HW289030  12.904  14.038   9.479
29086SOL     OW89031  12.726  12.917   2.115
29086SOL    HW189032  12.809  12.948   2.077
29086SOL    HW289033  12.662  12.930   2.045
29087SOL     OW89034   9.089   5.555   9.492
29087SOL    HW189035   9.136   5.472   9.496
29087SOL    HW289036   9.013   5.536   9.436
29088SOL     OW89037   9.283  10.167   1.444
29088SOL    HW189038   9.267  10.073   1.443
29088SOL    HW289039   9.198  10.206   1.465
29089SOL     OW89040   0.525  10.534   0.936
29089SOL    HW189041   0.457  10.541   1.003
29089SOL    HW289042   0.603  10.506   0.984
29090SOL     OW89043  10.394   3.142   7.932
29090SOL    HW189044  10.342   3.062   7.931
29090SOL    HW289045  10.481   3.114   7.959
29091SOL     OW89046   3.294  13.132   2.933
29091SOL    HW189047   3.305  13.124   2.838
29091SOL    HW289048   3.307  13.225   2.950
29092SOL     OW89049  13.851   6.847  12.018
29092SOL    HW189050  13.768   6.890  12.037
29092SOL    HW289051  13.841   6.814  11.929
29093SOL     OW89052   5.913  11.056   5.630
29093SOL    HW189053   5.847  11.125   5.623
29093SOL    HW289054   5.958  11.057   5.546
29094SOL     OW89055  14.751   5.940   0.219
29094SOL    HW189056  14.763   6.028   0.256
29094SOL    HW289057  14.673   5.949   0.164
29095SOL     OW89058   0.851   5.955  14.040
29095SOL    HW189059   0.775   5.897  14.031
29095SOL    HW289060   0.846   5.985  14.131
29096SOL     OW89061   6.269   0.675   9.548
29096SOL    HW189062   6.224   0.631   9.475
29096SOL    HW289063   6.353   0.629   9.555
29097SOL     OW89064   1.895   2.164  11.371
29097SOL    HW189065   1.930   2.113  11.298
29097SOL    HW289066   1.972   2.182  11.425
29098SOL     OW89067   9.348   3.994   3.962
29098SOL    HW189068   9.337   3.984   3.867
29098SOL    HW289069   9.411   4.065   3.972
29099SOL     OW89070  13.670   7.855   5.846
29099SOL    HW189071  13.689   7.946   5.868
29099SOL    HW289072  13.617   7.860   5.767
29100SOL     OW89073   7.947  11.390   0.389
29100SOL    HW189074   7.854  11.397   0.368
29100SOL    HW289075   7.991  11.430   0.314
29101SOL     OW89076   6.195  10.134   5.342
29101SOL    HW189077   6.112  10.170   5.311
29101SOL    HW289078   6.170  10.064   5.401
29102SOL     OW89079   5.538  14.523   7.438
29102SOL    HW189080   5.605  14.455   7.450
29102SOL    HW289081   5.499  14.534   7.525
29103SOL     OW89082   8.170   6.082   3.361
29103SOL    HW189083   8.154   6.174   3.380
29103SOL    HW289084   8.094   6.054   3.310
29104SOL     OW89085   2.407   3.289  14.403
29104SOL    HW189086   2.425   3.303  14.310
29104SOL    HW289087   2.351   3.212  14.405
29105SOL     OW89088  10.834   2.416   0.122
29105SOL    HW189089  10.862   2.466   0.199
29105SOL    HW289090  10.741   2.438   0.111
29106SOL     OW89091   1.228   5.630   7.112
29106SOL    HW189092   1.195   5.564   7.173
29106SOL    HW289093   1.149   5.668   7.073
29107SOL     OW89094  11.482   9.626   3.386
29107SOL    HW189095  11.432   9.662   3.312
29107SOL    HW289096  11.417   9.613   3.455
29108SOL     OW89097   6.228   2.906   9.330
29108SOL    HW189098   6.170   2.834   9.353
29108SOL    HW289099   6.284   2.870   9.260
29109SOL     OW89100   6.375   6.294   0.957
29109SOL    HW189101   6.281   6.278   0.965
29109SOL    HW289102   6.403   6.240   0.883
29110SOL     OW89103   5.110   8.589  13.508
29110SOL    HW189104   5.147   8.590  13.420
29110SOL    HW289105   5.179   8.549  13.562
29111SOL     OW89106   7.160   8.978   3.643
29111SOL    HW189107   7.132   8.911   3.580
29111SOL    HW289108   7.163   8.931   3.727
29112SOL     OW89109   2.409   1.542  13.502
29112SOL    HW189110   2.332   1.559  13.557
29112SOL    HW289111   2.443   1.629  13.482
29113SOL     OW89112   8.462   8.133  11.218
29113SOL    HW189113   8.527   8.201  11.231
29113SOL    HW289114   8.419   8.156  11.136
29114SOL     OW89115  10.181  12.235  11.172
29114SOL    HW189116  10.210  12.271  11.088
29114SOL    HW289117  10.158  12.311  11.225
29115SOL     OW89118   9.904   0.859   1.027
29115SOL    HW189119   9.874   0.769   1.041
29115SOL    HW289120   9.932   0.861   0.936
29116SOL     OW89121   0.281   0.903   5.323
29116SOL    HW189122   0.336   0.837   5.281
29116SOL    HW289123   0.239   0.950   5.251
29117SOL     OW89124  11.704  10.881   6.982
29117SOL    HW189125  11.727  10.844   6.897
29117SOL    HW289126  11.781  10.865   7.037
29118SOL     OW89127   8.740   3.024  13.265
29118SOL    HW189128   8.745   3.026  13.170
29118SOL    HW289129   8.827   2.993  13.293
29119SOL     OW89130  14.083  12.276   7.804
29119SOL    HW189131  14.038  12.194   7.821
29119SOL    HW289132  14.103  12.274   7.711
29120SOL     OW89133   2.708  13.055   4.180
29120SOL    HW189134   2.738  13.041   4.270
29120SOL    HW289135   2.621  13.094   4.189
29121SOL     OW89136  14.872   8.609   4.439
29121SOL    HW189137   0.013   8.699   4.412
29121SOL    HW289138   0.049   8.554   4.383
29122SOL     OW89139   5.374   4.087   0.608
29122SOL    HW189140   5.467   4.069   0.618
29122SOL    HW289141   5.362   4.174   0.647
29123SOL     OW89142   1.381   1.477   3.815
29123SOL    HW189143   1.338   1.506   3.734
29123SOL    HW289144   1.346   1.390   3.831
29124SOL     OW89145   2.833   1.702   2.172
29124SOL    HW189146   2.881   1.697   2.255
29124SOL    HW289147   2.874   1.636   2.117
29125SOL     OW89148   1.634   5.579  10.665
29125SOL    HW189149   1.559   5.523  10.649
29125SOL    HW289150   1.670   5.549  10.749
29126SOL     OW89151   8.978  12.843   1.313
29126SOL    HW189152   8.926  12.896   1.373
29126SOL    HW289153   9.060  12.827   1.360
29127SOL     OW89154   1.590   0.212   2.594
29127SOL    HW189155   1.684   0.206   2.613
29127SOL    HW289156   1.561   0.291   2.639
29128SOL     OW89157  10.441  12.485  12.300
29128SOL    HW189158  10.401  12.399  12.288
29128SOL    HW289159  10.367  12.546  12.299
29129SOL     OW89160   0.474   9.836  13.599
29129SOL    HW189161   0.563   9.834  13.565
29129SOL    HW289162   0.458   9.747  13.631
29130SOL     OW89163   9.443   0.130   9.810
29130SOL    HW189164   9.479   0.045   9.782
29130SOL    HW289165   9.408   0.113   9.897
29131SOL     OW89166  13.926   8.299   6.042
29131SOL    HW189167  13.999   8.309   6.103
29131SOL    HW289168  13.849   8.292   6.098
29132SOL     OW89169   9.089   0.722  10.346
29132SOL    HW189170   9.059   0.772  10.270
29132SOL    HW289171   9.182   0.745  10.355
29133SOL     OW89172   4.876  13.544  12.425
29133SOL    HW189173   4.865  13.514  12.515
29133SOL    HW289174   4.875  13.640  12.432
29134SOL     OW89175  11.651   2.047   5.242
29134SOL    HW189176  11.743   2.055   5.270
29134SOL    HW289177  11.638   2.120   5.181
29135SOL     OW89178   3.182   3.600   9.411
29135SOL    HW189179   3.181   3.627   9.503
29135SOL    HW289180   3.233   3.669   9.367
29136SOL     OW89181   6.571   7.026   0.426
29136SOL    HW189182   6.586   7.086   0.353
29136SOL    HW289183   6.659   7.007   0.459
29137SOL     OW89184  13.679   6.337   3.943
29137SOL    HW189185  13.650   6.324   3.853
29137SOL    HW289186  13.617   6.400   3.979
29138SOL     OW89187   3.048   7.262   4.618
29138SOL    HW189188   3.089   7.275   4.703
29138SOL    HW289189   3.038   7.167   4.609
29139SOL     OW89190  10.488   5.625   6.746
29139SOL    HW189191  10.550   5.570   6.792
29139SOL    HW289192  10.486   5.591   6.656
29140SOL     OW89193   5.023   4.383   6.876
29140SOL    HW189194   5.104   4.428   6.851
29140SOL    HW289195   4.954   4.427   6.825
29141SOL     OW89196   0.830   5.695   2.909
29141SOL    HW189197   0.910   5.677   2.959
29141SOL    HW289198   0.765   5.635   2.946
29142SOL     OW89199   9.874  12.092   2.206
29142SOL    HW189200   9.951  12.106   2.151
29142SOL    HW289201   9.908  12.090   2.295
29143SOL     OW89202  11.324   7.617   3.393
29143SOL    HW189203  11.382   7.569   3.452
29143SOL    HW289204  11.380   7.682   3.352
29144SOL     OW89205  10.063  13.238   2.808
29144SOL    HW189206  10.103  13.219   2.723
29144SOL    HW289207  10.082  13.160   2.861
29145SOL     OW89208   2.628   8.236   3.665
29145SOL    HW189209   2.688   8.220   3.592
29145SOL    HW289210   2.679   8.211   3.743
29146SOL     OW89211   5.669   0.427   9.221
29146SOL    HW189212   5.697   0.357   9.162
29146SOL    HW289213   5.717   0.410   9.302
29147SOL     OW89214   9.226   3.039   2.641
29147SOL    HW189215   9.226   2.973   2.572
29147SOL    HW289216   9.157   3.011   2.702
29148SOL     OW89217   9.072   5.036   7.755
29148SOL    HW189218   9.018   5.026   7.833
29148SOL    HW289219   9.153   4.989   7.775
29149SOL     OW89220   5.188   0.642   7.393
29149SOL    HW189221   5.260   0.704   7.397
29149SOL    HW289222   5.211   0.583   7.321
29150SOL     OW89223   5.954  11.697   9.971
29150SOL    HW189224   6.011  11.710  10.047
29150SOL    HW289225   5.891  11.631   9.999
29151SOL     OW89226   3.062   3.295   4.474
29151SOL    HW189227   2.972   3.307   4.444
29151SOL    HW289228   3.053   3.256   4.561
29152SOL     OW89229  14.114  12.601   4.303
29152SOL    HW189230  14.115  12.696   4.297
29152SOL    HW289231  14.201  12.578   4.336
29153SOL     OW89232   8.087  14.123   2.930
29153SOL    HW189233   8.170  14.146   2.889
29153SOL    HW289234   8.022  14.177   2.884
29154SOL     OW89235   9.240   7.251   0.357
29154SOL    HW189236   9.149   7.278   0.342
29154SOL    HW289237   9.292   7.317   0.312
29155SOL     OW89238   1.800   2.202   0.642
29155SOL    HW189239   1.785   2.265   0.713
29155SOL    HW289240   1.731   2.222   0.578
29156SOL     OW89241  11.083   9.604  13.505
29156SOL    HW189242  11.177   9.607  13.525
29156SOL    HW289243  11.040   9.606  13.591
29157SOL     OW89244   0.895  13.832  10.860
29157SOL    HW189245   0.891  13.924  10.833
29157SOL    HW289246   0.943  13.834  10.943
29158SOL     OW89247   7.315   4.688   1.903
29158SOL    HW189248   7.330   4.753   1.971
29158SOL    HW289249   7.330   4.604   1.946
29159SOL     OW89250  13.943   2.571   5.180
29159SOL    HW189251  14.038   2.585   5.181
29159SOL    HW289252  13.932   2.487   5.135
29160SOL     OW89253   8.221  12.521   6.202
29160SOL    HW189254   8.140  12.551   6.245
29160SOL    HW289255   8.192  12.448   6.147
29161SOL     OW89256   2.497   9.304  12.629
29161SOL    HW189257   2.472   9.388  12.592
29161SOL    HW289258   2.568   9.324  12.690
29162SOL     OW89259   5.465   5.174  11.617
29162SOL    HW189260   5.440   5.086  11.590
29162SOL    HW289261   5.431   5.231  11.547
29163SOL     OW89262   1.196  13.411   4.858
29163SOL    HW189263   1.137  13.420   4.933
29163SOL    HW289264   1.278  13.380   4.895
29164SOL     OW89265   0.891   0.122   8.559
29164SOL    HW189266   0.798   0.100   8.564
29164SOL    HW289267   0.916   0.100   8.470
29165SOL     OW89268  13.316   6.583  11.763
29165SOL    HW189269  13.388   6.630  11.805
29165SOL    HW289270  13.270   6.540  11.835
29166SOL     OW89271   2.763   6.474   5.662
29166SOL    HW189272   2.835   6.535   5.675
29166SOL    HW289273   2.767   6.450   5.570
29167SOL     OW89274  13.970   8.658   1.237
29167SOL    HW189275  14.051   8.637   1.191
29167SOL    HW289276  13.980   8.750   1.262
29168SOL     OW89277  10.105   6.048   5.727
29168SOL    HW189278  10.065   5.985   5.668
29168SOL    HW289279  10.165   6.099   5.671
29169SOL     OW89280   4.401   4.374   5.384
29169SOL    HW189281   4.434   4.287   5.406
29169SOL    HW289282   4.479   4.426   5.368
29170SOL     OW89283  14.441  13.066   0.816
29170SOL    HW189284  14.462  13.083   0.907
29170SOL    HW289285  14.365  13.009   0.818
29171SOL     OW89286   2.275   6.619   5.747
29171SOL    HW189287   2.218   6.574   5.685
29171SOL    HW289288   2.323   6.549   5.791
29172SOL     OW89289  10.215   6.501  13.762
29172SOL    HW189290  10.192   6.541  13.678
29172SOL    HW289291  10.303   6.465  13.748
29173SOL     OW89292   2.108   0.708   4.023
29173SOL    HW189293   2.151   0.776   4.075
29173SOL    HW289294   2.016   0.734   4.022
29174SOL     OW89295   2.009   8.319   5.655
29174SOL    HW189296   2.052   8.359   5.731
29174SOL    HW289297   2.022   8.225   5.666
29175SOL     OW89298   8.383   0.962   5.480
29175SOL    HW189299   8.391   1.052   5.448
29175SOL    HW289300   8.289   0.948   5.491
29176SOL     OW89301   5.136  10.399   0.553
29176SOL    HW189302   5.211  10.348   0.585
29176SOL    HW289303   5.065  10.376   0.613
29177SOL     OW89304   2.743   2.462   3.784
29177SOL    HW189305   2.654   2.478   3.752
29177SOL    HW289306   2.757   2.368   3.771
29178SOL     OW89307  13.215   7.242  12.048
29178SOL    HW189308  13.256   7.329  12.042
29178SOL    HW289309  13.153   7.250  12.121
29179SOL     OW89310   6.733  12.417   2.542
29179SOL    HW189311   6.676  12.405   2.617
29179SOL    HW289312   6.781  12.335   2.534
29180SOL     OW89313  12.496   0.045  10.382
29180SOL    HW189314  12.589   0.025  10.375
29180SOL    HW289315  12.493   0.130  10.427
29181SOL     OW89316   2.825   2.719  10.467
29181SOL    HW189317   2.818   2.646  10.405
29181SOL    HW289318   2.779   2.791  10.424
29182SOL     OW89319  12.261   1.118   0.955
29182SOL    HW189320  12.175   1.117   0.913
29182SOL    HW289321  12.254   1.185   1.023
29183SOL     OW89322  12.703   7.365  10.024
29183SOL    HW189323  12.698   7.323   9.938
29183SOL    HW289324  12.665   7.299  10.084
29184SOL     OW89325   9.483   3.554   4.302
29184SOL    HW189326   9.560   3.538   4.247
29184SOL    HW289327   9.422   3.600   4.244
29185SOL     OW89328  11.748   8.148  12.363
29185SOL    HW189329  11.837   8.167  12.393
29185SOL    HW289330  11.752   8.059  12.328
29186SOL     OW89331  13.189  13.487   0.018
29186SOL    HW189332  13.238  13.420  14.848
29186SOL    HW289333  13.219  13.480   0.108
29187SOL     OW89334   6.249   8.128   9.883
29187SOL    HW189335   6.233   8.040   9.849
29187SOL    HW289336   6.335   8.152   9.849
29188SOL     OW89337   9.662   1.076   1.338
29188SOL    HW189338   9.685   1.090   1.246
29188SOL    HW289339   9.744   1.091   1.386
29189SOL     OW89340   5.995   4.402  12.775
29189SOL    HW189341   6.079   4.382  12.818
29189SOL    HW289342   5.935   4.419  12.847
29190SOL     OW89343   9.335  10.296   0.259
29190SOL    HW189344   9.289  10.363   0.209
29190SOL    HW289345   9.398  10.344   0.313
29191SOL     OW89346   6.595   7.878   0.802
29191SOL    HW189347   6.548   7.835   0.874
29191SOL    HW289348   6.686   7.851   0.814
29192SOL     OW89349   8.100   5.841  13.121
29192SOL    HW189350   8.122   5.779  13.190
29192SOL    HW289351   8.063   5.916  13.168
29193SOL     OW89352   7.087   4.996   9.286
29193SOL    HW189353   7.070   4.947   9.366
29193SOL    HW289354   7.174   5.034   9.299
29194SOL     OW89355   5.692  11.209  13.270
29194SOL    HW189356   5.751  11.270  13.226
29194SOL    HW289357   5.746  11.130  13.282
29195SOL     OW89358  10.569  10.139   5.402
29195SOL    HW189359  10.583  10.232   5.385
29195SOL    HW289360  10.547  10.134   5.495
29196SOL     OW89361   9.100   8.793   9.419
29196SOL    HW189362   9.082   8.843   9.339
29196SOL    HW289363   9.185   8.753   9.405
29197SOL     OW89364  11.175  11.683  14.081
29197SOL    HW189365  11.267  11.682  14.056
29197SOL    HW289366  11.130  11.635  14.011
29198SOL     OW89367   9.084  13.507  12.969
29198SOL    HW189368   9.025  13.458  13.026
29198SOL    HW289369   9.151  13.542  13.027
29199SOL     OW89370   8.018   0.232  13.274
29199SOL    HW189371   8.022   0.323  13.247
29199SOL    HW289372   8.089   0.189  13.226
29200SOL     OW89373   9.648   2.581  14.199
29200SOL    HW189374   9.695   2.647  14.149
29200SOL    HW289375   9.713   2.544  14.259
29201SOL     OW89376   5.028   8.601   7.571
29201SOL    HW189377   5.098   8.556   7.523
29201SOL    HW289378   4.979   8.647   7.504
29202SOL     OW89379   2.969   8.121   7.051
29202SOL    HW189380   2.897   8.178   7.076
29202SOL    HW289381   2.985   8.067   7.129
29203SOL     OW89382   0.886   7.907  10.407
29203SOL    HW189383   0.857   7.938  10.322
29203SOL    HW289384   0.819   7.938  10.468
29204SOL     OW89385   0.291   2.761   2.704
29204SOL    HW189386   0.387   2.766   2.706
29204SOL    HW289387   0.272   2.668   2.714
29205SOL     OW89388   7.287  10.246   2.297
29205SOL    HW189389   7.250  10.198   2.372
29205SOL    HW289390   7.212  10.259   2.239
29206SOL     OW89391   7.226   3.912   2.721
29206SOL    HW189392   7.191   3.830   2.757
29206SOL    HW289393   7.173   3.980   2.761
29207SOL     OW89394  14.744   9.432   3.779
29207SOL    HW189395  14.739   9.458   3.687
29207SOL    HW289396  14.694   9.351   3.784
29208SOL     OW89397  11.151  13.879  10.862
29208SOL    HW189398  11.158  13.841  10.950
29208SOL    HW289399  11.189  13.813  10.805
29209SOL     OW89400   8.777   2.269  13.082
29209SOL    HW189401   8.706   2.259  13.146
29209SOL    HW289402   8.733   2.293  13.001
29210SOL     OW89403   4.974   9.632   2.863
29210SOL    HW189404   5.069   9.623   2.874
29210SOL    HW289405   4.951   9.710   2.914
29211SOL     OW89406   9.929   3.570   1.534
29211SOL    HW189407   9.909   3.480   1.507
29211SOL    HW289408   9.978   3.560   1.615
29212SOL     OW89409   8.312   8.284   1.973
29212SOL    HW189410   8.284   8.193   1.982
29212SOL    HW289411   8.284   8.326   2.055
29213SOL     OW89412   6.246   4.533   6.997
29213SOL    HW189413   6.159   4.569   7.017
29213SOL    HW289414   6.298   4.610   6.972
29214SOL     OW89415   2.828   9.736  13.190
29214SOL    HW189416   2.763   9.763  13.255
29214SOL    HW289417   2.911   9.768  13.225
29215SOL     OW89418  14.606   2.084  12.529
29215SOL    HW189419  14.631   1.995  12.556
29215SOL    HW289420  14.688   2.130  12.519
29216SOL     OW89421  12.620   2.220  13.374
29216SOL    HW189422  12.618   2.124  13.382
29216SOL    HW289423  12.576   2.237  13.291
29217SOL     OW89424   1.772   1.111   3.031
29217SOL    HW189425   1.797   1.115   2.939
29217SOL    HW289426   1.851   1.080   3.076
29218SOL     OW89427  10.374   6.834   2.537
29218SOL    HW189428  10.391   6.820   2.443
29218SOL    HW289429  10.364   6.929   2.545
29219SOL     OW89430   4.881   7.322   8.499
29219SOL    HW189431   4.875   7.227   8.514
29219SOL    HW289432   4.932   7.355   8.573
29220SOL     OW89433  13.028   6.535  10.640
29220SOL    HW189434  12.966   6.463  10.622
29220SOL    HW289435  13.011   6.598  10.570
29221SOL     OW89436  11.890  12.311   5.286
29221SOL    HW189437  11.871  12.353   5.370
29221SOL    HW289438  11.978  12.343   5.262
29222SOL     OW89439  13.853   1.921   8.605
29222SOL    HW189440  13.778   1.978   8.622
29222SOL    HW289441  13.826   1.865   8.532
29223SOL     OW89442  10.776   7.018   3.461
29223SOL    HW189443  10.692   6.982   3.489
29223SOL    HW289444  10.825   6.942   3.429
29224SOL     OW89445  14.022  11.275   9.409
29224SOL    HW189446  14.066  11.319   9.483
29224SOL    HW289447  14.016  11.184   9.436
29225SOL     OW89448   8.558   3.509   4.492
29225SOL    HW189449   8.477   3.459   4.491
29225SOL    HW289450   8.608   3.472   4.565
29226SOL     OW89451   2.168   9.401   3.982
29226SOL    HW189452   2.117   9.327   4.016
29226SOL    HW289453   2.130   9.478   4.025
29227SOL     OW89454  13.480   6.127   4.188
29227SOL    HW189455  13.504   6.216   4.214
29227SOL    HW289456  13.390   6.117   4.217
29228SOL     OW89457   9.547   9.839   3.905
29228SOL    HW189458   9.474   9.797   3.950
29228SOL    HW289459   9.545   9.802   3.817
29229SOL     OW89460  12.803  11.045   0.701
29229SOL    HW189461  12.716  11.068   0.733
29229SOL    HW289462  12.842  11.128   0.677
29230SOL     OW89463   5.173   7.251  14.784
29230SOL    HW189464   5.094   7.207  14.816
29230SOL    HW289465   5.147   7.289  14.701
29231SOL     OW89466  11.542   3.293   3.704
29231SOL    HW189467  11.600   3.354   3.750
29231SOL    HW289468  11.553   3.211   3.751
29232SOL     OW89469  10.994   6.860   4.730
29232SOL    HW189470  10.945   6.864   4.813
29232SOL    HW289471  10.995   6.768   4.707
29233SOL     OW89472  12.929   1.528   9.473
29233SOL    HW189473  13.014   1.510   9.513
29233SOL    HW289474  12.867   1.479   9.528
29234SOL     OW89475  10.953   6.445   3.104
29234SOL    HW189476  11.037   6.425   3.062
29234SOL    HW289477  10.944   6.539   3.096
29235SOL     OW89478  10.212   0.698   1.711
29235SOL    HW189479  10.212   0.673   1.803
29235SOL    HW289480  10.140   0.648   1.672
29236SOL     OW89481   3.453   2.144   5.226
29236SOL    HW189482   3.491   2.150   5.139
29236SOL    HW289483   3.507   2.202   5.280
29237SOL     OW89484   2.010   2.364   8.900
29237SOL    HW189485   2.039   2.365   8.808
29237SOL    HW289486   1.924   2.321   8.898
29238SOL     OW89487   2.639   3.368   4.900
29238SOL    HW189488   2.669   3.410   4.980
29238SOL    HW289489   2.545   3.387   4.897
29239SOL     OW89490  12.174   3.238   4.956
29239SOL    HW189491  12.187   3.264   4.865
29239SOL    HW289492  12.158   3.144   4.953
29240SOL     OW89493   4.273   7.190  13.431
29240SOL    HW189494   4.291   7.169  13.523
29240SOL    HW289495   4.289   7.284  13.425
29241SOL     OW89496  12.250   1.075   3.708
29241SOL    HW189497  12.220   1.048   3.621
29241SOL    HW289498  12.195   1.026   3.768
29242SOL     OW89499   5.710   8.524  11.624
29242SOL    HW189500   5.660   8.450  11.589
29242SOL    HW289501   5.723   8.582  11.548
29243SOL     OW89502   3.023   8.033  10.501
29243SOL    HW189503   3.043   7.993  10.417
29243SOL    HW289504   3.100   8.013  10.556
29244SOL     OW89505   2.998   6.409   1.292
29244SOL    HW189506   2.924   6.390   1.351
29244SOL    HW289507   3.004   6.331   1.236
29245SOL     OW89508  13.044   9.388   5.559
29245SOL    HW189509  12.998   9.415   5.638
29245SOL    HW289510  12.976   9.356   5.500
29246SOL     OW89511   1.055   6.466  14.340
29246SOL    HW189512   1.072   6.399  14.406
29246SOL    HW289513   1.008   6.419  14.270
29247SOL     OW89514   3.997   4.730   4.681
29247SOL    HW189515   3.932   4.688   4.738
29247SOL    HW289516   3.958   4.727   4.594
29248SOL     OW89517  14.202  14.744   8.962
29248SOL    HW189518  14.177  14.655   8.988
29248SOL    HW289519  14.147  14.801   9.017
29249SOL     OW89520   1.361  13.849   6.668
29249SOL    HW189521   1.374  13.766   6.621
29249SOL    HW289522   1.373  13.827   6.760
29250SOL     OW89523   4.724   1.524   7.132
29250SOL    HW189524   4.765   1.458   7.188
29250SOL    HW289525   4.664   1.571   7.191
29251SOL     OW89526  14.044   2.271   9.925
29251SOL    HW189527  14.073   2.228  10.005
29251SOL    HW289528  14.121   2.267   9.867
29252SOL     OW89529   6.698   3.531  10.213
29252SOL    HW189530   6.787   3.496  10.211
29252SOL    HW289531   6.647   3.470  10.160
29253SOL     OW89532   7.715   2.798  10.670
29253SOL    HW189533   7.630   2.787  10.628
29253SOL    HW289534   7.779   2.789  10.599
29254SOL     OW89535   1.232   1.302   9.213
29254SOL    HW189536   1.238   1.394   9.190
29254SOL    HW289537   1.213   1.257   9.131
29255SOL     OW89538  11.682   8.770  13.734
29255SOL    HW189539  11.613   8.833  13.714
29255SOL    HW289540  11.679   8.707  13.662
29256SOL     OW89541   1.231   2.499   1.418
29256SOL    HW189542   1.241   2.458   1.504
29256SOL    HW289543   1.292   2.452   1.361
29257SOL     OW89544   6.674  10.645  11.986
29257SOL    HW189545   6.755  10.595  11.980
29257SOL    HW289546   6.683  10.696  12.067
29258SOL     OW89547   0.793   1.629   9.219
29258SOL    HW189548   0.738   1.593   9.289
29258SOL    HW289549   0.831   1.552   9.177
29259SOL     OW89550  12.190  10.633  14.287
29259SOL    HW189551  12.104  10.668  14.310
29259SOL    HW289552  12.203  10.659  14.195
29260SOL     OW89553   0.620   2.168   0.941
29260SOL    HW189554   0.601   2.074   0.943
29260SOL    HW289555   0.597   2.194   0.851
29261SOL     OW89556   7.274   7.722   5.167
29261SOL    HW189557   7.360   7.757   5.188
29261SOL    HW289558   7.288   7.669   5.088
29262SOL     OW89559   5.851   3.026   9.219
29262SOL    HW189560   5.835   3.025   9.125
29262SOL    HW289561   5.790   2.961   9.254
29263SOL     OW89562   8.285  13.887  10.772
29263SOL    HW189563   8.289  13.981  10.789
29263SOL    HW289564   8.237  13.851  10.846
29264SOL     OW89565  12.285  13.258   5.503
29264SOL    HW189566  12.304  13.216   5.586
29264SOL    HW289567  12.354  13.227   5.444
29265SOL     OW89568   1.230   3.548   4.529
29265SOL    HW189569   1.290   3.576   4.460
29265SOL    HW289570   1.143   3.567   4.493
29266SOL     OW89571   3.449   3.305  11.071
29266SOL    HW189572   3.454   3.235  11.136
29266SOL    HW289573   3.503   3.375  11.107
29267SOL     OW89574   8.888  12.652  10.403
29267SOL    HW189575   8.896  12.561  10.429
29267SOL    HW289576   8.794  12.672  10.414
29268SOL     OW89577   8.501   0.287   9.496
29268SOL    HW189578   8.538   0.205   9.464
29268SOL    HW289579   8.419   0.297   9.447
29269SOL     OW89580  10.911  13.946  12.846
29269SOL    HW189581  10.950  13.908  12.925
29269SOL    HW289582  10.985  13.978  12.796
29270SOL     OW89583   6.243  12.435  11.359
29270SOL    HW189584   6.233  12.482  11.276
29270SOL    HW289585   6.320  12.381  11.347
29271SOL     OW89586   1.064  12.303   1.603
29271SOL    HW189587   1.120  12.286   1.527
29271SOL    HW289588   1.021  12.386   1.582
29272SOL     OW89589   9.435   1.966   6.880
29272SOL    HW189590   9.466   2.007   6.798
29272SOL    HW289591   9.449   2.034   6.946
29273SOL     OW89592   1.552   4.348  13.071
29273SOL    HW189593   1.505   4.348  12.988
29273SOL    HW289594   1.496   4.400  13.130
29274SOL     OW89595   8.444   5.843  11.204
29274SOL    HW189596   8.421   5.822  11.295
29274SOL    HW289597   8.464   5.936  11.205
29275SOL     OW89598  12.015   1.591  10.561
29275SOL    HW189599  11.926   1.608  10.529
29275SOL    HW289600  12.040   1.508  10.520
29276SOL     OW89601  12.583   2.763   5.139
29276SOL    HW189602  12.670   2.789   5.108
29276SOL    HW289603  12.523   2.822   5.093
29277SOL     OW89604   9.424   4.396   6.837
29277SOL    HW189605   9.474   4.436   6.766
29277SOL    HW289606   9.452   4.444   6.915
29278SOL     OW89607   4.744   2.497   9.196
29278SOL    HW189608   4.685   2.571   9.180
29278SOL    HW289609   4.690   2.433   9.243
29279SOL     OW89610   9.696   6.977  10.606
29279SOL    HW189611   9.628   6.919  10.572
29279SOL    HW289612   9.694   7.053  10.548
29280SOL     OW89613   9.144   4.710   2.322
29280SOL    HW189614   9.159   4.801   2.297
29280SOL    HW289615   9.049   4.702   2.327
29281SOL     OW89616  14.630   7.258  11.063
29281SOL    HW189617  14.620   7.203  10.985
29281SOL    HW289618  14.717   7.237  11.095
29282SOL     OW89619   5.243   2.880   4.043
29282SOL    HW189620   5.308   2.813   4.064
29282SOL    HW289621   5.161   2.844   4.076
29283SOL     OW89622   6.919   5.813   1.716
29283SOL    HW189623   6.849   5.875   1.695
29283SOL    HW289624   6.933   5.765   1.634
29284SOL     OW89625  12.394   9.376   6.680
29284SOL    HW189626  12.452   9.452   6.692
29284SOL    HW289627  12.325   9.388   6.745
29285SOL     OW89628   2.286  11.863  13.595
29285SOL    HW189629   2.368  11.855  13.645
29285SOL    HW289630   2.314  11.888  13.507
29286SOL     OW89631   6.547   0.387   2.970
29286SOL    HW189632   6.458   0.408   2.941
29286SOL    HW289633   6.590   0.353   2.891
29287SOL     OW89634  12.539   9.496   7.551
29287SOL    HW189635  12.456   9.528   7.515
29287SOL    HW289636  12.525   9.402   7.562
29288SOL     OW89637   0.310   5.936  11.840
29288SOL    HW189638   0.342   5.942  11.750
29288SOL    HW289639   0.353   5.858  11.875
29289SOL     OW89640   6.556   1.645   1.079
29289SOL    HW189641   6.599   1.705   1.017
29289SOL    HW289642   6.628   1.603   1.126
29290SOL     OW89643  12.340   1.608   3.406
29290SOL    HW189644  12.342   1.514   3.389
29290SOL    HW289645  12.414   1.643   3.356
29291SOL     OW89646  10.376  12.933   2.047
29291SOL    HW189647  10.428  12.987   2.106
29291SOL    HW289648  10.294  12.982   2.036
29292SOL     OW89649   8.092   1.920   0.695
29292SOL    HW189650   8.025   1.956   0.753
29292SOL    HW289651   8.063   1.946   0.607
29293SOL     OW89652   4.486   8.001   1.070
29293SOL    HW189653   4.517   7.923   1.023
29293SOL    HW289654   4.483   8.070   1.004
29294SOL     OW89655  13.788   5.272   8.342
29294SOL    HW189656  13.757   5.317   8.420
29294SOL    HW289657  13.882   5.259   8.358
29295SOL     OW89658   4.192   8.301   4.748
29295SOL    HW189659   4.267   8.276   4.693
29295SOL    HW289660   4.230   8.356   4.817
29296SOL     OW89661  12.130   4.136   2.606
29296SOL    HW189662  12.056   4.187   2.639
29296SOL    HW289663  12.207   4.179   2.644
29297SOL     OW89664  14.805   4.023   9.556
29297SOL    HW189665  14.872   3.978   9.505
29297SOL    HW289666  14.853   4.063   9.629
29298SOL     OW89667  12.718   6.841   1.988
29298SOL    HW189668  12.783   6.909   1.966
29298SOL    HW289669  12.635   6.888   1.992
29299SOL     OW89670   7.760   3.382   9.204
29299SOL    HW189671   7.679   3.426   9.230
29299SOL    HW289672   7.803   3.445   9.146
29300SOL     OW89673   8.196   3.317   5.331
29300SOL    HW189674   8.257   3.388   5.353
29300SOL    HW289675   8.245   3.261   5.271
29301SOL     OW89676   6.003   7.691  11.709
29301SOL    HW189677   5.956   7.751  11.768
29301SOL    HW289678   6.020   7.613  11.763
29302SOL     OW89679   4.975  11.665   0.166
29302SOL    HW189680   4.963  11.627   0.079
29302SOL    HW289681   4.931  11.750   0.162
29303SOL     OW89682  12.288   4.876   5.740
29303SOL    HW189683  12.230   4.949   5.760
29303SOL    HW289684  12.354   4.878   5.808
29304SOL     OW89685   2.844   3.099  12.654
29304SOL    HW189686   2.779   3.139  12.712
29304SOL    HW289687   2.874   3.021  12.702
29305SOL     OW89688   4.461   5.666   2.489
29305SOL    HW189689   4.503   5.594   2.442
29305SOL    HW289690   4.368   5.642   2.491
29306SOL     OW89691   1.283   1.475   6.261
29306SOL    HW189692   1.283   1.565   6.230
29306SOL    HW289693   1.368   1.463   6.304
29307SOL     OW89694   8.901  11.837   8.729
29307SOL    HW189695   8.915  11.931   8.713
29307SOL    HW289696   8.892  11.829   8.824
29308SOL     OW89697   2.675   9.383   8.706
29308SOL    HW189698   2.757   9.424   8.681
29308SOL    HW289699   2.615   9.404   8.635
29309SOL     OW89700  13.692   4.119  12.946
29309SOL    HW189701  13.681   4.026  12.962
29309SOL    HW289702  13.657   4.161  13.025
29310SOL     OW89703  10.606   7.642   6.594
29310SOL    HW189704  10.536   7.689   6.547
29310SOL    HW289705  10.658   7.601   6.525
29311SOL     OW89706   7.613   9.496  14.637
29311SOL    HW189707   7.690   9.456  14.597
29311SOL    HW289708   7.600   9.446  14.718
29312SOL     OW89709   6.511   7.843   8.340
29312SOL    HW189710   6.430   7.805   8.305
29312SOL    HW289711   6.529   7.792   8.419
29313SOL     OW89712  12.690   0.086   0.488
29313SOL    HW189713  12.754   0.073   0.558
29313SOL    HW289714  12.743   0.105   0.410
29314SOL     OW89715   4.466  10.298  14.304
29314SOL    HW189716   4.394  10.360  14.314
29314SOL    HW289717   4.452  10.232  14.371
29315SOL     OW89718   4.420   9.104   8.722
29315SOL    HW189719   4.435   9.009   8.716
29315SOL    HW289720   4.427   9.123   8.816
29316SOL     OW89721   3.462  13.192   9.629
29316SOL    HW189722   3.481  13.286   9.628
29316SOL    HW289723   3.413  13.179   9.710
29317SOL     OW89724   6.252   2.709   2.182
29317SOL    HW189725   6.158   2.727   2.187
29317SOL    HW289726   6.285   2.771   2.117
29318SOL     OW89727   6.244  13.995  14.292
29318SOL    HW189728   6.300  13.964  14.221
29318SOL    HW289729   6.214  14.081  14.263
29319SOL     OW89730  13.097   6.985   7.992
29319SOL    HW189731  13.125   7.052   8.055
29319SOL    HW289732  13.009   6.960   8.020
29320SOL     OW89733  14.304   3.078   3.467
29320SOL    HW189734  14.309   3.127   3.548
29320SOL    HW289735  14.211   3.076   3.445
29321SOL     OW89736  13.962   8.588  13.876
29321SOL    HW189737  13.925   8.502  13.854
29321SOL    HW289738  13.885   8.643  13.890
29322SOL     OW89739   1.506   8.073   0.578
29322SOL    HW189740   1.562   8.004   0.543
29322SOL    HW289741   1.439   8.087   0.511
29323SOL     OW89742   4.139  14.606   5.077
29323SOL    HW189743   4.227  14.644   5.068
29323SOL    HW289744   4.094  14.664   5.138
29324SOL     OW89745   4.425  10.735  12.215
29324SOL    HW189746   4.463  10.805  12.161
29324SOL    HW289747   4.370  10.686  12.154
29325SOL     OW89748   4.858   1.253   1.379
29325SOL    HW189749   4.824   1.294   1.299
29325SOL    HW289750   4.888   1.167   1.351
29326SOL     OW89751  14.332   4.796  11.021
29326SOL    HW189752  14.284   4.862  11.072
29326SOL    HW289753  14.391   4.846  10.965
29327SOL     OW89754  12.883   4.311   8.415
29327SOL    HW189755  12.897   4.401   8.444
29327SOL    HW289756  12.950   4.297   8.348
29328SOL     OW89757   3.853  13.360  12.407
29328SOL    HW189758   3.774  13.390  12.452
29328SOL    HW289759   3.921  13.358  12.474
29329SOL     OW89760   4.299   9.268   3.791
29329SOL    HW189761   4.215   9.233   3.822
29329SOL    HW289762   4.301   9.357   3.825
29330SOL     OW89763   2.862   3.864   5.442
29330SOL    HW189764   2.854   3.790   5.503
29330SOL    HW289765   2.929   3.835   5.379
29331SOL     OW89766   4.140  10.771  11.114
29331SOL    HW189767   4.222  10.757  11.068
29331SOL    HW289768   4.155  10.848  11.169
29332SOL     OW89769   5.321  11.395   0.151
29332SOL    HW189770   5.368  11.479   0.156
29332SOL    HW289771   5.280  11.386   0.237
29333SOL     OW89772   1.429   6.236   1.181
29333SOL    HW189773   1.417   6.330   1.174
29333SOL    HW289774   1.340   6.200   1.184
29334SOL     OW89775  12.076   7.471   5.528
29334SOL    HW189776  12.128   7.514   5.460
29334SOL    HW289777  12.115   7.384   5.537
29335SOL     OW89778   1.793  13.617  10.015
29335SOL    HW189779   1.883  13.586  10.028
29335SOL    HW289780   1.802  13.708   9.986
29336SOL     OW89781   0.789   9.531  14.610
29336SOL    HW189782   0.755   9.451  14.571
29336SOL    HW289783   0.766   9.600  14.547
29337SOL     OW89784   3.415   5.463   8.014
29337SOL    HW189785   3.353   5.535   8.027
29337SOL    HW289786   3.364   5.384   8.032
29338SOL     OW89787  11.655   5.882   0.578
29338SOL    HW189788  11.702   5.861   0.658
29338SOL    HW289789  11.563   5.864   0.598
29339SOL     OW89790   8.676   6.194   7.673
29339SOL    HW189791   8.693   6.256   7.745
29339SOL    HW289792   8.684   6.247   7.594
29340SOL     OW89793   2.025  14.007   7.759
29340SOL    HW189794   2.068  14.023   7.843
29340SOL    HW289795   2.088  14.037   7.694
29341SOL     OW89796  14.244  12.566  12.475
29341SOL    HW189797  14.153  12.554  12.447
29341SOL    HW289798  14.241  12.565  12.570
29342SOL     OW89799   1.058   2.506   8.246
29342SOL    HW189800   1.034   2.414   8.257
29342SOL    HW289801   0.980   2.554   8.272
29343SOL     OW89802   5.966   7.307  11.577
29343SOL    HW189803   5.891   7.314  11.517
29343SOL    HW289804   6.039   7.342  11.527
29344SOL     OW89805  11.752   7.395   8.143
29344SOL    HW189806  11.796   7.315   8.116
29344SOL    HW289807  11.732   7.440   8.061
29345SOL     OW89808   1.949   9.724   7.775
29345SOL    HW189809   2.004   9.739   7.852
29345SOL    HW289810   1.871   9.777   7.791
29346SOL     OW89811   5.751   0.775   6.250
29346SOL    HW189812   5.727   0.717   6.178
29346SOL    HW289813   5.823   0.730   6.294
29347SOL     OW89814  12.901   4.087  12.614
29347SOL    HW189815  12.904   4.066  12.707
29347SOL    HW289816  12.834   4.156  12.607
29348SOL     OW89817   5.040   9.082   7.481
29348SOL    HW189818   4.977   9.015   7.509
29348SOL    HW289819   5.091   9.101   7.560
29349SOL     OW89820   2.530   4.045   5.129
29349SOL    HW189821   2.559   4.114   5.071
29349SOL    HW289822   2.528   4.086   5.216
29350SOL     OW89823  12.967  12.666   9.684
29350SOL    HW189824  13.009  12.634   9.604
29350SOL    HW289825  13.023  12.737   9.714
29351SOL     OW89826   9.690  14.015   5.666
29351SOL    HW189827   9.710  14.102   5.698
29351SOL    HW289828   9.732  13.956   5.728
29352SOL     OW89829   8.278   2.427  13.890
29352SOL    HW189830   8.299   2.395  13.977
29352SOL    HW289831   8.183   2.438  13.891
29353SOL     OW89832  12.042   1.554  10.217
29353SOL    HW189833  12.084   1.509  10.291
29353SOL    HW289834  11.959   1.585  10.252
29354SOL     OW89835   6.925   6.162   6.297
29354SOL    HW189836   6.976   6.167   6.216
29354SOL    HW289837   6.853   6.222   6.283
29355SOL     OW89838  11.957   2.410   5.363
29355SOL    HW189839  12.019   2.400   5.435
29355SOL    HW289840  11.962   2.326   5.315
29356SOL     OW89841  14.031   9.134  14.029
29356SOL    HW189842  14.049   9.155  14.121
29356SOL    HW289843  14.103   9.175  13.981
29357SOL     OW89844   0.836   4.766  13.019
29357SOL    HW189845   0.743   4.744  13.011
29357SOL    HW289846   0.863   4.728  13.102
29358SOL     OW89847  14.740  14.836   8.801
29358SOL    HW189848  14.801  14.770   8.766
29358SOL    HW289849  14.770   0.040   8.763
29359SOL     OW89850   2.792  10.547   0.300
29359SOL    HW189851   2.706  10.560   0.261
29359SOL    HW289852   2.789  10.597   0.381
29360SOL     OW89853  11.457  12.798   3.098
29360SOL    HW189854  11.425  12.708   3.097
29360SOL    HW289855  11.522  12.801   3.027
29361SOL     OW89856   3.017  10.447   5.353
29361SOL    HW189857   2.970  10.465   5.434
29361SOL    HW289858   3.109  10.441   5.379
29362SOL     OW89859   3.581  10.970   2.284
29362SOL    HW189860   3.529  10.937   2.357
29362SOL    HW289861   3.637  10.897   2.259
29363SOL     OW89862   4.896   2.067  12.950
29363SOL    HW189863   4.874   1.987  12.901
29363SOL    HW289864   4.837   2.134  12.914
29364SOL     OW89865   9.452   5.396   0.137
29364SOL    HW189866   9.361   5.370   0.123
29364SOL    HW289867   9.496   5.316   0.167
29365SOL     OW89868   9.861   9.971  11.542
29365SOL    HW189869   9.866  10.010  11.629
29365SOL    HW289870   9.854  10.046  11.483
29366SOL     OW89871   8.250   3.856   4.105
29366SOL    HW189872   8.343   3.863   4.082
29366SOL    HW289873   8.248   3.799   4.181
29367SOL     OW89874  13.120   7.791   2.446
29367SOL    HW189875  13.032   7.770   2.416
29367SOL    HW289876  13.125   7.755   2.534
29368SOL     OW89877   5.191   6.002   0.403
29368SOL    HW189878   5.142   6.083   0.420
29368SOL    HW289879   5.180   5.950   0.482
29369SOL     OW89880   1.213   1.241   2.544
29369SOL    HW189881   1.267   1.272   2.617
29369SOL    HW289882   1.221   1.146   2.547
29370SOL     OW89883   2.994   3.321   7.583
29370SOL    HW189884   2.967   3.377   7.656
29370SOL    HW289885   3.088   3.338   7.575
29371SOL     OW89886   3.269   1.105   6.154
29371SOL    HW189887   3.234   1.146   6.233
29371SOL    HW289888   3.358   1.141   6.147
29372SOL     OW89889   6.271  11.331   2.221
29372SOL    HW189890   6.252  11.237   2.220
29372SOL    HW289891   6.214  11.369   2.154
29373SOL     OW89892   0.869   0.525   1.544
29373SOL    HW189893   0.812   0.528   1.467
29373SOL    HW289894   0.863   0.434   1.574
29374SOL     OW89895   3.754   3.219   7.262
29374SOL    HW189896   3.818   3.239   7.331
29374SOL    HW289897   3.785   3.268   7.186
29375SOL     OW89898   4.762  13.607   5.223
29375SOL    HW189899   4.842  13.581   5.177
29375SOL    HW289900   4.697  13.541   5.197
29376SOL     OW89901   4.910   2.671   3.572
29376SOL    HW189902   4.987   2.615   3.563
29376SOL    HW289903   4.853   2.645   3.500
29377SOL     OW89904   4.640   1.350  14.492
29377SOL    HW189905   4.605   1.437  14.510
29377SOL    HW289906   4.566   1.291  14.503
29378SOL     OW89907   7.974  13.066  12.073
29378SOL    HW189908   8.014  12.989  12.112
29378SOL    HW289909   8.047  13.116  12.037
29379SOL     OW89910   9.407   6.314  12.362
29379SOL    HW189911   9.473   6.365  12.409
29379SOL    HW289912   9.351   6.380  12.321
29380SOL     OW89913   3.346   5.924   3.462
29380SOL    HW189914   3.343   6.017   3.440
29380SOL    HW289915   3.321   5.879   3.381
29381SOL     OW89916  13.408   5.333  11.249
29381SOL    HW189917  13.325   5.371  11.221
29381SOL    HW289918  13.422   5.259  11.190
29382SOL     OW89919   1.272   9.536   6.261
29382SOL    HW189920   1.199   9.498   6.310
29382SOL    HW289921   1.350   9.503   6.304
29383SOL     OW89922  13.287   3.198   9.981
29383SOL    HW189923  13.307   3.252   9.905
29383SOL    HW289924  13.355   3.221  10.045
29384SOL     OW89925   4.578   9.901   2.361
29384SOL    HW189926   4.673   9.899   2.353
29384SOL    HW289927   4.556   9.995   2.363
29385SOL     OW89928  14.683  12.072  12.265
29385SOL    HW189929  14.693  12.008  12.194
29385SOL    HW289930  14.764  12.062  12.316
29386SOL     OW89931   8.199  10.705   6.811
29386SOL    HW189932   8.190  10.616   6.844
29386SOL    HW289933   8.122  10.717   6.755
29387SOL     OW89934   4.531  14.415   1.047
29387SOL    HW189935   4.470  14.342   1.061
29387SOL    HW289936   4.590  14.383   0.978
29388SOL     OW89937   7.594   2.147   9.992
29388SOL    HW189938   7.645   2.085   9.940
29388SOL    HW289939   7.660   2.197  10.040
29389SOL     OW89940   5.282   9.304   0.137
29389SOL    HW189941   5.189   9.325   0.129
29389SOL    HW289942   5.286   9.232   0.199
29390SOL     OW89943   3.218  14.024  12.065
29390SOL    HW189944   3.183  13.938  12.044
29390SOL    HW289945   3.209  14.031  12.160
29391SOL     OW89946   6.218  10.488  13.254
29391SOL    HW189947   6.267  10.508  13.335
29391SOL    HW289948   6.273  10.423  13.209
29392SOL     OW89949   8.538   6.670  10.457
29392SOL    HW189950   8.626   6.680  10.493
29392SOL    HW289951   8.488   6.742  10.496
29393SOL     OW89952  14.575  14.415   3.905
29393SOL    HW189953  14.562  14.325   3.875
29393SOL    HW289954  14.629  14.406   3.984
29394SOL     OW89955   7.112  13.761   9.841
29394SOL    HW189956   7.198  13.773   9.802
29394SOL    HW289957   7.057  13.827   9.798
29395SOL     OW89958  14.292   8.789   5.993
29395SOL    HW189959  14.330   8.702   6.003
29395SOL    HW289960  14.222   8.793   6.059
29396SOL     OW89961   6.712   4.229   9.078
29396SOL    HW189962   6.723   4.269   8.992
29396SOL    HW289963   6.794   4.248   9.124
29397SOL     OW89964  11.544   2.835   1.311
29397SOL    HW189965  11.625   2.878   1.285
29397SOL    HW289966  11.565   2.741   1.307
29398SOL     OW89967   3.636   7.360   7.684
29398SOL    HW189968   3.622   7.349   7.590
29398SOL    HW289969   3.585   7.438   7.706
29399SOL     OW89970   4.937   7.486   5.741
29399SOL    HW189971   4.919   7.565   5.690
29399SOL    HW289972   5.022   7.502   5.782
29400SOL     OW89973  11.611   2.471   4.122
29400SOL    HW189974  11.531   2.523   4.116
29400SOL    HW289975  11.676   2.520   4.072
29401SOL     OW89976   2.286   7.760  13.537
29401SOL    HW189977   2.195   7.738  13.556
29401SOL    HW289978   2.285   7.855  13.525
29402SOL     OW89979   7.206  11.084   8.145
29402SOL    HW189980   7.226  11.104   8.237
29402SOL    HW289981   7.172  10.995   8.147
29403SOL     OW89982   1.229   4.652  13.997
29403SOL    HW189983   1.206   4.572  14.045
29403SOL    HW289984   1.287   4.621  13.926
29404SOL     OW89985   9.611   9.801  14.198
29404SOL    HW189986   9.519   9.810  14.225
29404SOL    HW289987   9.632   9.885  14.156
29405SOL     OW89988  14.261   3.589   4.395
29405SOL    HW189989  14.337   3.568   4.341
29405SOL    HW289990  14.298   3.619   4.478
29406SOL     OW89991   4.284   0.777  12.466
29406SOL    HW189992   4.364   0.727  12.451
29406SOL    HW289993   4.235   0.769  12.384
29407SOL     OW89994   6.584  11.559   5.106
29407SOL    HW189995   6.526  11.620   5.060
29407SOL    HW289996   6.526  11.514   5.167
29408SOL     OW89997  12.484   2.741   0.205
29408SOL    HW189998  12.443   2.827   0.196
29408SOL    HW289999  12.498   2.711   0.116
29409SOL     OW90000   2.934   8.566   6.103
29409SOL    HW190001   2.905   8.481   6.071
29409SOL    HW290002   2.927   8.623   6.026
29410SOL     OW90003   6.784  13.364   1.370
29410SOL    HW190004   6.689  13.374   1.364
29410SOL    HW290005   6.803  13.372   1.463
29411SOL     OW90006   2.737   1.614   8.384
29411SOL    HW190007   2.768   1.559   8.455
29411SOL    HW290008   2.695   1.689   8.427
29412SOL     OW90009   4.926   5.552  13.838
29412SOL    HW190010   4.859   5.545  13.770
29412SOL    HW290011   4.978   5.472  13.827
29413SOL     OW90012   8.599   2.584   7.756
29413SOL    HW190013   8.556   2.501   7.776
29413SOL    HW290014   8.567   2.644   7.823
29414SOL     OW90015   7.818  13.948   8.731
29414SOL    HW190016   7.793  13.939   8.823
29414SOL    HW290017   7.843  14.039   8.721
29415SOL     OW90018   9.625  11.755   5.537
29415SOL    HW190019   9.577  11.672   5.537
29415SOL    HW290020   9.617  11.788   5.447
29416SOL     OW90021   6.265   5.012   3.832
29416SOL    HW190022   6.358   5.029   3.839
29416SOL    HW290023   6.249   4.939   3.891
29417SOL     OW90024   8.551  13.482  14.391
29417SOL    HW190025   8.476  13.519  14.437
29417SOL    HW290026   8.580  13.411  14.447
29418SOL     OW90027   6.122   1.728  11.816
29418SOL    HW190028   6.079   1.642  11.813
29418SOL    HW290029   6.201   1.713  11.868
29419SOL     OW90030   0.878   6.064   8.350
29419SOL    HW190031   0.964   6.043   8.314
29419SOL    HW290032   0.881   6.157   8.369
29420SOL     OW90033   6.289   0.055   2.698
29420SOL    HW190034   6.335   0.127   2.655
29420SOL    HW290035   6.203   0.090   2.719
29421SOL     OW90036   5.230   6.265   9.646
29421SOL    HW190037   5.256   6.315   9.724
29421SOL    HW290038   5.307   6.212   9.625
29422SOL     OW90039  13.313   2.118  14.097
29422SOL    HW190040  13.292   2.035  14.142
29422SOL    HW290041  13.249   2.124  14.026
29423SOL     OW90042  14.050  10.617   8.880
29423SOL    HW190043  14.039  10.706   8.914
29423SOL    HW290044  14.016  10.621   8.790
29424SOL     OW90045  11.581  11.677   4.617
29424SOL    HW190046  11.628  11.648   4.695
29424SOL    HW290047  11.493  11.698   4.647
29425SOL     OW90048  10.029   9.040   7.989
29425SOL    HW190049   9.999   8.956   8.024
29425SOL    HW290050   9.979   9.052   7.909
29426SOL     OW90051   0.163   7.173   7.770
29426SOL    HW190052   0.189   7.105   7.708
29426SOL    HW290053   0.087   7.136   7.815
29427SOL     OW90054   1.056   6.850   7.055
29427SOL    HW190055   1.126   6.882   7.111
29427SOL    HW290056   1.019   6.928   7.016
29428SOL     OW90057   3.851  12.218   4.030
29428SOL    HW190058   3.945  12.216   4.049
29428SOL    HW290059   3.837  12.145   3.970
29429SOL     OW90060   1.949   8.950   6.994
29429SOL    HW190061   1.972   8.888   6.925
29429SOL    HW290062   1.998   9.030   6.972
29430SOL     OW90063   2.056   9.484   6.508
29430SOL    HW190064   2.136   9.442   6.476
29430SOL    HW290065   1.985   9.436   6.466
29431SOL     OW90066  12.800   7.670  13.832
29431SOL    HW190067  12.843   7.585  13.841
29431SOL    HW290068  12.710   7.649  13.807
29432SOL     OW90069   8.102   6.613   8.694
29432SOL    HW190070   8.074   6.658   8.613
29432SOL    HW290071   8.170   6.670   8.729
29433SOL     OW90072   1.524  12.641   9.417
29433SOL    HW190073   1.525  12.618   9.510
29433SOL    HW290074   1.611  12.617   9.385
29434SOL     OW90075   8.319   1.917   4.830
29434SOL    HW190076   8.231   1.916   4.866
29434SOL    HW290077   8.355   2.002   4.855
29435SOL     OW90078   4.978  13.554   9.210
29435SOL    HW190079   5.065  13.563   9.171
29435SOL    HW290080   4.938  13.640   9.201
29436SOL     OW90081  13.203   5.870   1.993
29436SOL    HW190082  13.241   5.957   1.997
29436SOL    HW290083  13.240   5.831   1.913
29437SOL     OW90084   0.901   3.533   9.305
29437SOL    HW190085   0.987   3.567   9.328
29437SOL    HW290086   0.880   3.471   9.374
29438SOL     OW90087  10.919  12.192   8.542
29438SOL    HW190088  11.010  12.216   8.522
29438SOL    HW290089  10.868  12.269   8.521
29439SOL     OW90090   8.013   9.512  14.319
29439SOL    HW190091   8.086   9.572  14.326
29439SOL    HW290092   8.044   9.442  14.262
29440SOL     OW90093   0.760   8.101  12.649
29440SOL    HW190094   0.828   8.163  12.676
29440SOL    HW290095   0.678   8.143  12.675
29441SOL     OW90096   6.479   8.764  13.183
29441SOL    HW190097   6.462   8.789  13.092
29441SOL    HW290098   6.556   8.814  13.208
29442SOL     OW90099   1.134  11.217   8.901
29442SOL    HW190100   1.051  11.176   8.922
29442SOL    HW290101   1.162  11.259   8.982
29443SOL     OW90102  10.225   5.100   6.400
29443SOL    HW190103  10.316   5.102   6.369
29443SOL    HW290104  10.215   5.014   6.440
29444SOL     OW90105  14.217   4.867   6.344
29444SOL    HW190106  14.281   4.924   6.386
29444SOL    HW290107  14.132   4.906   6.368
29445SOL     OW90108   5.426   0.480   9.422
29445SOL    HW190109   5.473   0.560   9.399
29445SOL    HW290110   5.494   0.414   9.436
29446SOL     OW90111   4.762  12.472   0.616
29446SOL    HW190112   4.755  12.567   0.616
29446SOL    HW290113   4.726  12.445   0.531
29447SOL     OW90114   7.135   0.907  14.564
29447SOL    HW190115   7.063   0.858  14.604
29447SOL    HW290116   7.096   0.949  14.487
29448SOL     OW90117   1.058   1.352   9.422
29448SOL    HW190118   1.128   1.378   9.481
29448SOL    HW290119   1.102   1.327   9.341
29449SOL     OW90120  11.135   3.728  14.773
29449SOL    HW190121  11.075   3.778  14.830
29449SOL    HW290122  11.080   3.660  14.735
29450SOL     OW90123   8.933  10.072  14.296
29450SOL    HW190124   8.847  10.096  14.263
29450SOL    HW290125   8.963  10.001  14.239
29451SOL     OW90126  11.375  14.863  10.323
29451SOL    HW190127  11.282  14.869  10.300
29451SOL    HW290128  11.398  14.772  10.302
29452SOL     OW90129   3.541   7.648   2.091
29452SOL    HW190130   3.556   7.555   2.111
29452SOL    HW290131   3.476   7.647   2.021
29453SOL     OW90132   0.953  12.052   0.813
29453SOL    HW190133   0.933  11.992   0.741
29453SOL    HW290134   0.971  12.136   0.771
29454SOL     OW90135  13.461  11.443   1.716
29454SOL    HW190136  13.423  11.480   1.795
29454SOL    HW290137  13.451  11.512   1.650
29455SOL     OW90138   3.305  14.730   7.058
29455SOL    HW190139   3.319  14.780   6.978
29455SOL    HW290140   3.367  14.767   7.121
29456SOL     OW90141   9.776   7.505   7.720
29456SOL    HW190142   9.861   7.524   7.761
29456SOL    HW290143   9.788   7.528   7.628
29457SOL     OW90144   3.889   1.901   5.915
29457SOL    HW190145   3.912   1.810   5.934
29457SOL    HW290146   3.951   1.929   5.848
29458SOL     OW90147   0.172   5.462   4.945
29458SOL    HW190148   0.209   5.427   5.026
29458SOL    HW290149   0.190   5.395   4.879
29459SOL     OW90150   0.845   6.163   5.452
29459SOL    HW190151   0.850   6.187   5.359
29459SOL    HW290152   0.933   6.180   5.486
29460SOL     OW90153   8.505  11.987   4.045
29460SOL    HW190154   8.558  11.936   4.105
29460SOL    HW290155   8.444  12.035   4.102
29461SOL     OW90156   5.606   4.427  13.124
29461SOL    HW190157   5.615   4.365  13.196
29461SOL    HW290158   5.516   4.458  13.130
29462SOL     OW90159  11.259   0.106   1.493
29462SOL    HW190160  11.203   0.180   1.468
29462SOL    HW290161  11.316   0.093   1.417
29463SOL     OW90162   2.227   8.815  13.401
29463SOL    HW190163   2.291   8.744  13.412
29463SOL    HW290164   2.231   8.837  13.307
29464SOL     OW90165   9.207   3.006   9.096
29464SOL    HW190166   9.275   2.966   9.040
29464SOL    HW290167   9.256   3.047   9.167
29465SOL     OW90168   9.004   5.888   8.436
29465SOL    HW190169   9.015   5.813   8.495
29465SOL    HW290170   8.910   5.891   8.419
29466SOL     OW90171  14.686   6.738  13.649
29466SOL    HW190172  14.603   6.743  13.697
29466SOL    HW290173  14.738   6.674  13.698
29467SOL     OW90174   3.281   2.239   6.918
29467SOL    HW190175   3.233   2.293   6.856
29467SOL    HW290176   3.349   2.297   6.953
29468SOL     OW90177   4.426   0.941   0.279
29468SOL    HW190178   4.349   0.926   0.335
29468SOL    HW290179   4.437   1.036   0.278
29469SOL     OW90180   1.672   2.285   3.970
29469SOL    HW190181   1.719   2.348   3.915
29469SOL    HW290182   1.591   2.329   3.993
29470SOL     OW90183  14.140  12.280   7.539
29470SOL    HW190184  14.220  12.286   7.486
29470SOL    HW290185  14.097  12.201   7.508
29471SOL     OW90186   3.363  12.160   5.910
29471SOL    HW190187   3.395  12.248   5.889
29471SOL    HW290188   3.406  12.103   5.847
29472SOL     OW90189   6.336   9.809   7.291
29472SOL    HW190190   6.349   9.732   7.347
29472SOL    HW290191   6.421   9.853   7.291
29473SOL     OW90192   4.652   2.834   4.979
29473SOL    HW190193   4.659   2.929   4.973
29473SOL    HW290194   4.687   2.813   5.065
29474SOL     OW90195   9.849   8.935  11.510
29474SOL    HW190196   9.904   9.014  11.510
29474SOL    HW290197   9.786   8.950  11.580
29475SOL     OW90198  13.642   3.502  12.318
29475SOL    HW190199  13.678   3.502  12.407
29475SOL    HW290200  13.582   3.427  12.317
29476SOL     OW90201   2.004   8.437   8.747
29476SOL    HW190202   1.942   8.436   8.820
29476SOL    HW290203   2.011   8.529   8.723
29477SOL     OW90204   9.217   1.712   3.356
29477SOL    HW190205   9.242   1.692   3.266
29477SOL    HW290206   9.128   1.678   3.363
29478SOL     OW90207   3.826   5.196   4.960
29478SOL    HW190208   3.808   5.283   4.926
29478SOL    HW290209   3.846   5.210   5.053
29479SOL     OW90210   3.034   0.057   6.260
29479SOL    HW190211   3.064  14.850   6.228
29479SOL    HW290212   3.101   0.119   6.228
29480SOL     OW90213   8.068   9.474   5.370
29480SOL    HW190214   8.135   9.406   5.368
29480SOL    HW290215   8.012   9.452   5.445
29481SOL     OW90216   2.892   4.311  11.192
29481SOL    HW190217   2.935   4.319  11.107
29481SOL    HW290218   2.960   4.337  11.255
29482SOL     OW90219   9.818   1.931  13.479
29482SOL    HW190220   9.844   1.905  13.390
29482SOL    HW290221   9.735   1.976  13.467
29483SOL     OW90222  10.474   2.867   3.414
29483SOL    HW190223  10.458   2.922   3.490
29483SOL    HW290224  10.434   2.783   3.436
29484SOL     OW90225   5.671   9.563   3.170
29484SOL    HW190226   5.735   9.492   3.171
29484SOL    HW290227   5.592   9.523   3.135
29485SOL     OW90228  10.144   9.746   9.166
29485SOL    HW190229  10.183   9.730   9.252
29485SOL    HW290230  10.137   9.659   9.127
29486SOL     OW90231   3.024   6.469  10.634
29486SOL    HW190232   3.117   6.451  10.616
29486SOL    HW290233   3.025   6.544  10.693
29487SOL     OW90234  14.147  14.740   9.604
29487SOL    HW190235  14.138  14.649   9.576
29487SOL    HW290236  14.213  14.777   9.545
29488SOL     OW90237   2.769   4.317   9.068
29488SOL    HW190238   2.741   4.366   8.991
29488SOL    HW290239   2.766   4.381   9.139
29489SOL     OW90240   0.770   6.982   8.656
29489SOL    HW190241   0.762   6.896   8.614
29489SOL    HW290242   0.719   7.041   8.600
29490SOL     OW90243  14.648   2.591   9.346
29490SOL    HW190244  14.640   2.501   9.314
29490SOL    HW290245  14.561   2.629   9.335
29491SOL     OW90246  12.616  11.276   2.686
29491SOL    HW190247  12.658  11.362   2.688
29491SOL    HW290248  12.687  11.214   2.702
29492SOL     OW90249   9.188  12.697   5.422
29492SOL    HW190250   9.230  12.716   5.506
29492SOL    HW290251   9.150  12.610   5.434
29493SOL     OW90252   9.981   0.962  10.539
29493SOL    HW190253   9.885   0.961  10.541
29493SOL    HW290254  10.007   0.901  10.609
29494SOL     OW90255   3.795  12.260  10.696
29494SOL    HW190256   3.769  12.203  10.624
29494SOL    HW290257   3.717  12.264  10.752
29495SOL     OW90258  11.774   9.214   2.935
29495SOL    HW190259  11.803   9.193   3.024
29495SOL    HW290260  11.752   9.307   2.938
29496SOL     OW90261   5.244   5.667   7.461
29496SOL    HW190262   5.227   5.603   7.530
29496SOL    HW290263   5.184   5.642   7.390
29497SOL     OW90264   8.233   9.544   6.051
29497SOL    HW190265   8.229   9.634   6.020
29497SOL    HW290266   8.142   9.519   6.067
29498SOL     OW90267  13.024  11.785   1.875
29498SOL    HW190268  12.970  11.824   1.943
29498SOL    HW290269  12.962  11.764   1.805
29499SOL     OW90270  12.484   3.110  10.852
29499SOL    HW190271  12.470   3.015  10.857
29499SOL    HW290272  12.557   3.120  10.790
29500SOL     OW90273  13.357  11.305   6.351
29500SOL    HW190274  13.353  11.391   6.393
29500SOL    HW290275  13.288  11.308   6.285
29501SOL     OW90276   8.529  10.465   0.959
29501SOL    HW190277   8.523  10.535   1.024
29501SOL    HW290278   8.471  10.397   0.991
29502SOL     OW90279  10.215   5.052   0.327
29502SOL    HW190280  10.306   5.023   0.319
29502SOL    HW290281  10.195   5.039   0.420
29503SOL     OW90282   5.802   7.151   8.535
29503SOL    HW190283   5.708   7.172   8.539
29503SOL    HW290284   5.842   7.203   8.604
29504SOL     OW90285  12.918   0.120   6.115
29504SOL    HW190286  12.968   0.039   6.117
29504SOL    HW290287  12.982   0.189   6.132
29505SOL     OW90288   7.109   0.637  13.988
29505SOL    HW190289   7.039   0.606  13.931
29505SOL    HW290290   7.184   0.652  13.930
29506SOL     OW90291   7.814  12.987   3.883
29506SOL    HW190292   7.832  13.033   3.801
29506SOL    HW290293   7.827  13.054   3.950
29507SOL     OW90294   2.748   7.852   5.217
29507SOL    HW190295   2.703   7.767   5.216
29507SOL    HW290296   2.687   7.912   5.175
29508SOL     OW90297   2.166   0.950   0.676
29508SOL    HW190298   2.169   0.953   0.772
29508SOL    HW290299   2.256   0.969   0.649
29509SOL     OW90300  11.716   1.756  12.618
29509SOL    HW190301  11.650   1.823  12.635
29509SOL    HW290302  11.793   1.786  12.665
29510SOL     OW90303   6.805  12.818   7.319
29510SOL    HW190304   6.732  12.880   7.309
29510SOL    HW290305   6.881  12.864   7.284
29511SOL     OW90306   2.078   2.589  10.204
29511SOL    HW190307   1.984   2.579  10.184
29511SOL    HW290308   2.122   2.563  10.123
29512SOL     OW90309   2.693   7.722   3.281
29512SOL    HW190310   2.781   7.685   3.288
29512SOL    HW290311   2.665   7.735   3.372
29513SOL     OW90312   4.156   6.138   4.498
29513SOL    HW190313   4.222   6.185   4.448
29513SOL    HW290314   4.172   6.045   4.478
29514SOL     OW90315   9.286  13.214  12.307
29514SOL    HW190316   9.200  13.174  12.313
29514SOL    HW290317   9.344  13.143  12.279
29515SOL     OW90318   2.948   4.481   1.463
29515SOL    HW190319   3.016   4.545   1.480
29515SOL    HW290320   2.867   4.523   1.493
29516SOL     OW90321  13.175  11.525   1.270
29516SOL    HW190322  13.220  11.442   1.256
29516SOL    HW290323  13.103  11.504   1.330
29517SOL     OW90324  13.102   9.355  14.658
29517SOL    HW190325  13.186   9.351  14.704
29517SOL    HW290326  13.038   9.326  14.723
29518SOL     OW90327   0.790   9.604  11.991
29518SOL    HW190328   0.811   9.577  11.901
29518SOL    HW290329   0.853   9.674  12.010
29519SOL     OW90330  13.056  12.273   0.453
29519SOL    HW190331  13.049  12.297   0.545
29519SOL    HW290332  13.128  12.326   0.419
29520SOL     OW90333   0.240   6.855   5.097
29520SOL    HW190334   0.305   6.853   5.167
29520SOL    HW290335   0.223   6.763   5.077
29521SOL     OW90336   5.521   6.213   9.335
29521SOL    HW190337   5.444   6.219   9.279
29521SOL    HW290338   5.548   6.121   9.329
29522SOL     OW90339   0.629   0.381   8.958
29522SOL    HW190340   0.712   0.340   8.932
29522SOL    HW290341   0.587   0.316   9.014
29523SOL     OW90342   8.126   9.683   4.867
29523SOL    HW190343   8.129   9.691   4.963
29523SOL    HW290344   8.094   9.595   4.851
29524SOL     OW90345   2.842   3.118   1.844
29524SOL    HW190346   2.917   3.078   1.800
29524SOL    HW290347   2.831   3.067   1.924
29525SOL     OW90348   3.492   7.630   1.541
29525SOL    HW190349   3.560   7.606   1.479
29525SOL    HW290350   3.419   7.572   1.520
29526SOL     OW90351  10.197  14.844  11.627
29526SOL    HW190352  10.157  14.863  11.542
29526SOL    HW290353  10.134  14.787  11.671
29527SOL     OW90354  10.445  12.863  10.252
29527SOL    HW190355  10.415  12.942  10.297
29527SOL    HW290356  10.460  12.891  10.162
29528SOL     OW90357   4.342  13.868   1.595
29528SOL    HW190358   4.333  13.829   1.508
29528SOL    HW290359   4.435  13.886   1.603
29529SOL     OW90360  13.147   5.015  13.039
29529SOL    HW190361  13.151   5.107  13.065
29529SOL    HW290362  13.057   5.003  13.009
29530SOL     OW90363   5.836  14.379   8.046
29530SOL    HW190364   5.850  14.380   8.141
29530SOL    HW290365   5.840  14.286   8.023
29531SOL     OW90366   8.868   5.976   9.394
29531SOL    HW190367   8.872   6.023   9.477
29531SOL    HW290368   8.935   5.908   9.402
29532SOL     OW90369  13.205  12.065  11.974
29532SOL    HW190370  13.278  12.009  11.999
29532SOL    HW290371  13.127  12.018  12.007
29533SOL     OW90372   2.349   8.590   0.323
29533SOL    HW190373   2.388   8.672   0.293
29533SOL    HW290374   2.391   8.522   0.269
29534SOL     OW90375  14.713  13.042   9.308
29534SOL    HW190376  14.670  13.044   9.394
29534SOL    HW290377  14.676  12.966   9.264
29535SOL     OW90378   7.812   7.917  13.439
29535SOL    HW190379   7.783   7.932  13.348
29535SOL    HW290380   7.746   7.962  13.492
29536SOL     OW90381   2.237  14.562  10.142
29536SOL    HW190382   2.254  14.489  10.083
29536SOL    HW290383   2.237  14.639  10.086
29537SOL     OW90384   6.744  11.548   7.431
29537SOL    HW190385   6.762  11.552   7.525
29537SOL    HW290386   6.670  11.487   7.424
29538SOL     OW90387   4.245  13.733   0.180
29538SOL    HW190388   4.330  13.699   0.153
29538SOL    HW290389   4.213  13.669   0.244
29539SOL     OW90390  11.330  12.310  13.857
29539SOL    HW190391  11.340  12.388  13.912
29539SOL    HW290392  11.413  12.264  13.866
29540SOL     OW90393  12.782   9.690  10.959
29540SOL    HW190394  12.835   9.635  10.902
29540SOL    HW290395  12.719   9.732  10.900
29541SOL     OW90396  10.193   2.545  13.242
29541SOL    HW190397  10.107   2.503  13.239
29541SOL    HW290398  10.213   2.553  13.336
29542SOL     OW90399   0.603  13.295   8.456
29542SOL    HW190400   0.522  13.267   8.415
29542SOL    HW290401   0.598  13.260   8.545
29543SOL     OW90402  11.306  10.695  14.367
29543SOL    HW190403  11.255  10.775  14.380
29543SOL    HW290404  11.390  10.713  14.410
29544SOL     OW90405   4.171   9.103   0.353
29544SOL    HW190406   4.224   9.183   0.357
29544SOL    HW290407   4.132   9.105   0.265
29545SOL     OW90408  13.626   8.169  14.716
29545SOL    HW190409  13.559   8.218  14.764
29545SOL    HW290410  13.580   8.136  14.639
29546SOL     OW90411   0.744   0.788  12.700
29546SOL    HW190412   0.735   0.695  12.679
29546SOL    HW290413   0.795   0.824  12.628
29547SOL     OW90414  10.964   7.500   9.033
29547SOL    HW190415  10.946   7.568   8.969
29547SOL    HW290416  10.877   7.467   9.058
29548SOL     OW90417   4.236   5.426   9.337
29548SOL    HW190418   4.149   5.455   9.308
29548SOL    HW290419   4.285   5.413   9.257
29549SOL     OW90420  10.249   7.037   1.696
29549SOL    HW190421  10.207   7.100   1.637
29549SOL    HW290422  10.325   7.083   1.730
29550SOL     OW90423   6.726  12.363  10.174
29550SOL    HW190424   6.742  12.302  10.102
29550SOL    HW290425   6.720  12.308  10.252
29551SOL     OW90426  14.543  14.377   5.753
29551SOL    HW190427  14.604  14.341   5.689
29551SOL    HW290428  14.542  14.471   5.736
29552SOL     OW90429  14.660   2.740   3.862
29552SOL    HW190430  14.579   2.693   3.845
29552SOL    HW290431  14.634   2.820   3.907
29553SOL     OW90432   2.403  13.141   9.551
29553SOL    HW190433   2.429  13.049   9.541
29553SOL    HW290434   2.341  13.156   9.479
29554SOL     OW90435   6.778   9.019   1.084
29554SOL    HW190436   6.740   9.031   0.996
29554SOL    HW290437   6.733   9.084   1.138
29555SOL     OW90438   3.342   9.829  11.716
29555SOL    HW190439   3.397   9.751  11.718
29555SOL    HW290440   3.370   9.876  11.637
29556SOL     OW90441  14.658   0.787   4.646
29556SOL    HW190442  14.687   0.843   4.718
29556SOL    HW290443  14.652   0.845   4.570
29557SOL     OW90444  11.966  12.142  10.356
29557SOL    HW190445  11.987  12.189  10.275
29557SOL    HW290446  11.871  12.155  10.366
29558SOL     OW90447   5.819   6.088  13.323
29558SOL    HW190448   5.802   6.049  13.237
29558SOL    HW290449   5.853   6.175  13.303
29559SOL     OW90450   4.787   1.111  12.798
29559SOL    HW190451   4.802   1.200  12.832
29559SOL    HW290452   4.875   1.077  12.782
29560SOL     OW90453   1.294   3.749   1.491
29560SOL    HW190454   1.233   3.699   1.545
29560SOL    HW290455   1.240   3.783   1.419
29561SOL     OW90456  11.676  11.445   5.636
29561SOL    HW190457  11.728  11.385   5.582
29561SOL    HW290458  11.733  11.466   5.710
29562SOL     OW90459   5.475   3.514   5.391
29562SOL    HW190460   5.514   3.447   5.448
29562SOL    HW290461   5.431   3.464   5.323
29563SOL     OW90462  12.905   5.498   9.697
29563SOL    HW190463  12.874   5.580   9.660
29563SOL    HW290464  12.937   5.448   9.622
29564SOL     OW90465  14.417  11.085   2.561
29564SOL    HW190466  14.449  11.174   2.549
29564SOL    HW290467  14.407  11.050   2.473
29565SOL     OW90468   7.671   2.908  13.189
29565SOL    HW190469   7.647   2.992  13.228
29565SOL    HW290470   7.720   2.930  13.111
29566SOL     OW90471  11.788   7.132   6.727
29566SOL    HW190472  11.744   7.054   6.695
29566SOL    HW290473  11.793   7.121   6.822
29567SOL     OW90474   6.575  11.767   1.536
29567SOL    HW190475   6.505  11.790   1.475
29567SOL    HW290476   6.537  11.703   1.595
29568SOL     OW90477  12.145   3.759   5.933
29568SOL    HW190478  12.236   3.772   5.908
29568SOL    HW290479  12.097   3.830   5.891
29569SOL     OW90480   1.255  13.421   8.007
29569SOL    HW190481   1.169  13.379   8.009
29569SOL    HW290482   1.294  13.398   8.092
29570SOL     OW90483   1.597   0.672   9.142
29570SOL    HW190484   1.565   0.735   9.077
29570SOL    HW290485   1.525   0.662   9.203
29571SOL     OW90486  14.356  10.556   1.069
29571SOL    HW190487  14.361  10.503   1.149
29571SOL    HW290488  14.337  10.492   1.000
29572SOL     OW90489  11.374  13.143  11.664
29572SOL    HW190490  11.443  13.100  11.716
29572SOL    HW290491  11.293  13.121  11.710
29573SOL     OW90492   6.772   4.993  10.854
29573SOL    HW190493   6.809   4.914  10.814
29573SOL    HW290494   6.680   4.972  10.869
29574SOL     OW90495  10.116  11.128   7.945
29574SOL    HW190496  10.184  11.118   8.012
29574SOL    HW290497  10.155  11.186   7.880
29575SOL     OW90498   0.031   5.730   0.141
29575SOL    HW190499  14.867   5.814   0.159
29575SOL    HW290500  14.836   5.671   0.121
29576SOL     OW90501   4.944  12.682  10.921
29576SOL    HW190502   4.977  12.714  11.006
29576SOL    HW290503   4.895  12.603  10.942
29577SOL     OW90504  11.709   6.730   9.118
29577SOL    HW190505  11.651   6.805   9.106
29577SOL    HW290506  11.690   6.699   9.207
29578SOL     OW90507   6.388  14.044   3.009
29578SOL    HW190508   6.374  14.083   2.923
29578SOL    HW290509   6.419  14.116   3.064
29579SOL     OW90510   4.705   3.900   5.454
29579SOL    HW190511   4.800   3.897   5.471
29579SOL    HW290512   4.698   3.894   5.359
29580SOL     OW90513   9.213   4.679   5.017
29580SOL    HW190514   9.281   4.709   5.077
29580SOL    HW290515   9.252   4.606   4.969
29581SOL     OW90516  13.516  11.453   0.140
29581SOL    HW190517  13.523  11.491   0.228
29581SOL    HW290518  13.426  11.420   0.136
29582SOL     OW90519   4.447  11.198  10.011
29582SOL    HW190520   4.524  11.242   9.975
29582SOL    HW290521   4.408  11.153   9.936
29583SOL     OW90522  12.480   5.910   8.382
29583SOL    HW190523  12.571   5.938   8.372
29583SOL    HW290524  12.441   5.978   8.437
29584SOL     OW90525   7.387  13.022   3.390
29584SOL    HW190526   7.388  13.044   3.297
29584SOL    HW290527   7.299  13.046   3.420
29585SOL     OW90528  12.478   6.615   2.396
29585SOL    HW190529  12.535   6.542   2.421
29585SOL    HW290530  12.538   6.682   2.363
29586SOL     OW90531   1.688   0.307  12.012
29586SOL    HW190532   1.773   0.291  11.972
29586SOL    HW290533   1.709   0.347  12.097
29587SOL     OW90534   8.521  11.806  12.042
29587SOL    HW190535   8.538  11.720  12.080
29587SOL    HW290536   8.505  11.790  11.949
29588SOL     OW90537   1.833   5.001  11.176
29588SOL    HW190538   1.742   5.024  11.191
29588SOL    HW290539   1.868   5.075  11.126
29589SOL     OW90540  14.053   0.063   8.539
29589SOL    HW190541  14.042   0.011   8.618
29589SOL    HW290542  14.147   0.075   8.530
29590SOL     OW90543   0.436   6.748   8.898
29590SOL    HW190544   0.385   6.681   8.944
29590SOL    HW290545   0.441   6.717   8.808
29591SOL     OW90546   5.772  14.126   0.811
29591SOL    HW190547   5.837  14.176   0.760
29591SOL    HW290548   5.708  14.098   0.746
29592SOL     OW90549  14.802  14.150   0.285
29592SOL    HW190550  14.781  14.069   0.238
29592SOL    HW290551  14.755  14.219   0.236
29593SOL     OW90552   0.359  12.460   8.804
29593SOL    HW190553   0.442  12.486   8.763
29593SOL    HW290554   0.384  12.431   8.892
29594SOL     OW90555  14.553   8.461   2.795
29594SOL    HW190556  14.511   8.405   2.731
29594SOL    HW290557  14.496   8.457   2.872
29595SOL     OW90558   7.632   8.122   1.057
29595SOL    HW190559   7.607   8.091   0.969
29595SOL    HW290560   7.649   8.041   1.106
29596SOL     OW90561   1.331   2.202   3.555
29596SOL    HW190562   1.356   2.118   3.516
29596SOL    HW290563   1.238   2.192   3.577
29597SOL     OW90564   2.127  12.092  14.849
29597SOL    HW190565   2.219  12.088  14.876
29597SOL    HW290566   2.092  12.167   0.018
29598SOL     OW90567  10.973   6.101   9.232
29598SOL    HW190568  11.063   6.126   9.253
29598SOL    HW290569  10.920   6.169   9.275
29599SOL     OW90570   0.917  13.319   0.675
29599SOL    HW190571   0.964  13.400   0.658
29599SOL    HW290572   0.983  13.250   0.665
29600SOL     OW90573  14.234  10.439   0.834
29600SOL    HW190574  14.173  10.420   0.763
29600SOL    HW290575  14.214  10.375   0.902
29601SOL     OW90576   4.497   7.177  13.639
29601SOL    HW190577   4.561   7.160  13.708
29601SOL    HW290578   4.549   7.212  13.566
29602SOL     OW90579   5.077  10.899  13.281
29602SOL    HW190580   5.127  10.829  13.241
29602SOL    HW290581   5.104  10.978  13.233
29603SOL     OW90582  13.057   8.553   5.148
29603SOL    HW190583  13.047   8.539   5.053
29603SOL    HW290584  13.151   8.566   5.160
29604SOL     OW90585  11.485   4.622  13.648
29604SOL    HW190586  11.547   4.553  13.624
29604SOL    HW290587  11.497   4.634  13.742
29605SOL     OW90588  14.348  11.833  10.931
29605SOL    HW190589  14.379  11.916  10.896
29605SOL    HW290590  14.313  11.855  11.018
29606SOL     OW90591   0.723   1.666   2.590
29606SOL    HW190592   0.721   1.762   2.593
29606SOL    HW290593   0.727   1.646   2.497
29607SOL     OW90594  10.844  13.280   8.645
29607SOL    HW190595  10.794  13.257   8.567
29607SOL    HW290596  10.811  13.366   8.670
29608SOL     OW90597  12.719  13.528   4.433
29608SOL    HW190598  12.643  13.586   4.433
29608SOL    HW290599  12.712  13.480   4.350
29609SOL     OW90600   4.950   1.877   4.925
29609SOL    HW190601   4.968   1.968   4.948
29609SOL    HW290602   4.894   1.845   4.995
29610SOL     OW90603  10.520   3.108  13.067
29610SOL    HW190604  10.574   3.184  13.047
29610SOL    HW290605  10.515   3.059  12.986
29611SOL     OW90606   8.284   5.114   1.567
29611SOL    HW190607   8.330   5.133   1.649
29611SOL    HW290608   8.225   5.041   1.589
29612SOL     OW90609  11.057   7.987   6.891
29612SOL    HW190610  11.061   8.053   6.822
29612SOL    HW290611  11.032   7.906   6.846
29613SOL     OW90612   2.539  11.301   1.097
29613SOL    HW190613   2.539  11.213   1.060
29613SOL    HW290614   2.450  11.314   1.129
29614SOL     OW90615   3.651   5.455  11.656
29614SOL    HW190616   3.645   5.407  11.573
29614SOL    HW290617   3.705   5.399  11.712
29615SOL     OW90618   1.230  10.579   1.589
29615SOL    HW190619   1.296  10.511   1.577
29615SOL    HW290620   1.146  10.532   1.581
29616SOL     OW90621   6.500   0.782  11.574
29616SOL    HW190622   6.512   0.693  11.608
29616SOL    HW290623   6.534   0.778  11.484
29617SOL     OW90624   4.026   2.211   1.836
29617SOL    HW190625   4.039   2.276   1.767
29617SOL    HW290626   3.932   2.213   1.854
29618SOL     OW90627  10.828  10.358   0.420
29618SOL    HW190628  10.904  10.342   0.363
29618SOL    HW290629  10.801  10.270   0.448
29619SOL     OW90630   7.498   8.715  13.950
29619SOL    HW190631   7.530   8.657  14.020
29619SOL    HW290632   7.430   8.768  13.992
29620SOL     OW90633   3.945   6.147   0.644
29620SOL    HW190634   3.920   6.236   0.620
29620SOL    HW290635   3.863   6.106   0.674
29621SOL     OW90636  14.487   5.499  14.878
29621SOL    HW190637  14.426   5.461   0.063
29621SOL    HW290638  14.451   5.586  14.859
29622SOL     OW90639  14.681   6.216   0.209
29622SOL    HW190640  14.645   6.204   0.297
29622SOL    HW290641  14.754   6.277   0.221
29623SOL     OW90642  14.387   2.614  11.848
29623SOL    HW190643  14.359   2.703  11.827
29623SOL    HW290644  14.448   2.591  11.778
29624SOL     OW90645   4.453  11.601   1.115
29624SOL    HW190646   4.542  11.622   1.143
29624SOL    HW290647   4.401  11.677   1.140
29625SOL     OW90648   3.529   8.644   9.192
29625SOL    HW190649   3.541   8.609   9.281
29625SOL    HW290650   3.613   8.685   9.172
29626SOL     OW90651  11.427   5.036  13.353
29626SOL    HW190652  11.400   5.001  13.268
29626SOL    HW290653  11.443   5.129  13.337
29627SOL     OW90654  13.692  14.303  13.366
29627SOL    HW190655  13.617  14.245  13.349
29627SOL    HW290656  13.715  14.286  13.457
29628SOL     OW90657  14.538   1.272   7.809
29628SOL    HW190658  14.533   1.341   7.743
29628SOL    HW290659  14.568   1.316   7.888
29629SOL     OW90660  13.989   6.526   7.872
29629SOL    HW190661  13.927   6.585   7.828
29629SOL    HW290662  14.075   6.559   7.847
29630SOL     OW90663   0.888  11.280  14.283
29630SOL    HW190664   0.859  11.282  14.191
29630SOL    HW290665   0.980  11.308  14.279
29631SOL     OW90666   6.646   9.008   6.638
29631SOL    HW190667   6.671   8.969   6.722
29631SOL    HW290668   6.718   8.987   6.579
29632SOL     OW90669   2.005   3.557   6.893
29632SOL    HW190670   1.915   3.543   6.864
29632SOL    HW290671   2.015   3.652   6.894
29633SOL     OW90672  13.427   1.667   9.052
29633SOL    HW190673  13.520   1.650   9.037
29633SOL    HW290674  13.425   1.758   9.083
29634SOL     OW90675  13.199   4.569  11.619
29634SOL    HW190676  13.269   4.518  11.658
29634SOL    HW290677  13.125   4.558  11.678
29635SOL     OW90678  12.154  11.189   6.478
29635SOL    HW190679  12.185  11.269   6.437
29635SOL    HW290680  12.112  11.140   6.408
29636SOL     OW90681   8.757   2.305   0.118
29636SOL    HW190682   8.771   2.378   0.058
29636SOL    HW290683   8.743   2.229   0.061
29637SOL     OW90684  13.349  10.625   2.912
29637SOL    HW190685  13.422  10.687   2.921
29637SOL    HW290686  13.346  10.579   2.996
29638SOL     OW90687   9.768   1.296   2.455
29638SOL    HW190688   9.798   1.209   2.428
29638SOL    HW290689   9.712   1.325   2.383
29639SOL     OW90690   6.648   8.727   3.211
29639SOL    HW190691   6.565   8.767   3.236
29639SOL    HW290692   6.657   8.652   3.270
29640SOL     OW90693  10.522   0.858   7.233
29640SOL    HW190694  10.541   0.793   7.165
29640SOL    HW290695  10.608   0.894   7.256
29641SOL     OW90696  12.268   9.737   0.049
29641SOL    HW190697  12.354   9.729   0.006
29641SOL    HW290698  12.231   9.818   0.014
29642SOL     OW90699   7.694   5.052  11.942
29642SOL    HW190700   7.779   5.011  11.957
29642SOL    HW290701   7.707   5.108  11.866
29643SOL     OW90702  10.585   5.442   4.408
29643SOL    HW190703  10.571   5.440   4.313
29643SOL    HW290704  10.678   5.461   4.418
29644SOL     OW90705   9.041   1.838   2.747
29644SOL    HW190706   9.076   1.843   2.658
29644SOL    HW290707   9.110   1.875   2.802
29645SOL     OW90708  14.505   8.155   7.131
29645SOL    HW190709  14.565   8.114   7.194
29645SOL    HW290710  14.560   8.216   7.082
29646SOL     OW90711   2.647   2.547  13.869
29646SOL    HW190712   2.637   2.598  13.950
29646SOL    HW290713   2.570   2.489  13.868
29647SOL     OW90714   8.825   0.370  12.300
29647SOL    HW190715   8.746   0.396  12.252
29647SOL    HW290716   8.865   0.303  12.245
29648SOL     OW90717   6.907   0.078   3.121
29648SOL    HW190718   6.854   0.072   3.200
29648SOL    HW290719   6.849   0.051   3.050
29649SOL     OW90720   9.131   0.267   4.252
29649SOL    HW190721   9.135   0.189   4.196
29649SOL    HW290722   9.185   0.245   4.328
29650SOL     OW90723   2.959  12.737  11.083
29650SOL    HW190724   2.879  12.777  11.116
29650SOL    HW290725   2.932  12.651  11.051
29651SOL     OW90726   8.635  10.334   5.475
29651SOL    HW190727   8.675  10.265   5.422
29651SOL    HW290728   8.544  10.336   5.445
29652SOL     OW90729   1.924   7.712  14.383
29652SOL    HW190730   1.910   7.619  14.396
29652SOL    HW290731   1.950   7.720  14.291
29653SOL     OW90732   5.889   7.893   3.841
29653SOL    HW190733   5.961   7.955   3.849
29653SOL    HW290734   5.819   7.942   3.798
29654SOL     OW90735  14.389  14.571   4.273
29654SOL    HW190736  14.434  14.602   4.351
29654SOL    HW290737  14.342  14.493   4.301
29655SOL     OW90738   9.401   8.368   6.819
29655SOL    HW190739   9.406   8.375   6.724
29655SOL    HW290740   9.471   8.426   6.850
29656SOL     OW90741  13.313   2.649  14.006
29656SOL    HW190742  13.220   2.660  13.986
29656SOL    HW290743  13.317   2.569  14.060
29657SOL     OW90744   9.375  14.786  14.507
29657SOL    HW190745   9.326  14.816  14.431
29657SOL    HW290746   9.464  14.771  14.474
29658SOL     OW90747   4.186   0.970   2.164
29658SOL    HW190748   4.217   0.924   2.086
29658SOL    HW290749   4.265   1.011   2.200
29659SOL     OW90750   0.680  14.203   3.902
29659SOL    HW190751   0.737  14.225   3.975
29659SOL    HW290752   0.731  14.142   3.849
29660SOL     OW90753   8.763  12.596  10.041
29660SOL    HW190754   8.764  12.505  10.072
29660SOL    HW290755   8.835  12.601   9.978
29661SOL     OW90756   5.305   2.742   6.082
29661SOL    HW190757   5.300   2.683   6.158
29661SOL    HW290758   5.389   2.786   6.091
29662SOL     OW90759   4.192  10.590   6.818
29662SOL    HW190760   4.158  10.513   6.772
29662SOL    HW290761   4.122  10.655   6.810
29663SOL     OW90762   1.257   8.854   2.406
29663SOL    HW190763   1.338   8.878   2.360
29663SOL    HW290764   1.257   8.758   2.405
29664SOL     OW90765   7.059  10.202   4.770
29664SOL    HW190766   6.986  10.189   4.710
29664SOL    HW290767   7.078  10.114   4.804
29665SOL     OW90768   5.431   6.977   9.196
29665SOL    HW190769   5.388   6.922   9.262
29665SOL    HW290770   5.361   7.001   9.135
29666SOL     OW90771   4.246   1.967   5.121
29666SOL    HW190772   4.168   2.013   5.092
29666SOL    HW290773   4.306   2.037   5.150
29667SOL     OW90774   6.595  13.172   5.301
29667SOL    HW190775   6.638  13.254   5.279
29667SOL    HW290776   6.520  13.167   5.241
29668SOL     OW90777  10.289   1.628   4.952
29668SOL    HW190778  10.384   1.632   4.963
29668SOL    HW290779  10.276   1.643   4.858
29669SOL     OW90780   0.099   9.520   5.731
29669SOL    HW190781   0.144   9.436   5.740
29669SOL    HW290782   0.014   9.498   5.693
29670SOL     OW90783   9.220   2.404  14.106
29670SOL    HW190784   9.145   2.449  14.066
29670SOL    HW290785   9.282   2.473  14.126
29671SOL     OW90786   7.392   3.190   4.826
29671SOL    HW190787   7.468   3.229   4.782
29671SOL    HW290788   7.375   3.248   4.901
29672SOL     OW90789   9.348  10.801   4.068
29672SOL    HW190790   9.356  10.758   3.983
29672SOL    HW290791   9.436  10.798   4.106
29673SOL     OW90792  14.579   7.701  14.487
29673SOL    HW190793  14.620   7.784  14.464
29673SOL    HW290794  14.635   7.634  14.448
29674SOL     OW90795   0.126   3.308   0.404
29674SOL    HW190796   0.198   3.353   0.448
29674SOL    HW290797   0.062   3.291   0.473
29675SOL     OW90798   1.818  14.670   9.519
29675SOL    HW190799   1.756  14.597   9.521
29675SOL    HW290800   1.898  14.635   9.559
29676SOL     OW90801   2.459   3.453   3.953
29676SOL    HW190802   2.503   3.388   3.899
29676SOL    HW290803   2.523   3.477   4.020
29677SOL     OW90804  10.347  14.571  12.528
29677SOL    HW190805  10.376  14.491  12.485
29677SOL    HW290806  10.252  14.565  12.528
29678SOL     OW90807   2.132   6.557   1.692
29678SOL    HW190808   2.067   6.610   1.738
29678SOL    HW290809   2.095   6.469   1.691
29679SOL     OW90810  13.642   4.259   6.554
29679SOL    HW190811  13.687   4.258   6.639
29679SOL    HW290812  13.664   4.343   6.516
29680SOL     OW90813   5.786   4.777   9.401
29680SOL    HW190814   5.755   4.714   9.466
29680SOL    HW290815   5.730   4.763   9.325
29681SOL     OW90816  11.387   2.044   5.358
29681SOL    HW190817  11.479   2.050   5.333
29681SOL    HW290818  11.351   1.975   5.303
29682SOL     OW90819   9.335   5.109   2.534
29682SOL    HW190820   9.252   5.152   2.556
29682SOL    HW290821   9.309   5.034   2.480
29683SOL     OW90822  12.050  13.169   9.656
29683SOL    HW190823  12.058  13.078   9.625
29683SOL    HW290824  11.957  13.180   9.672
29684SOL     OW90825  11.419   5.794   1.125
29684SOL    HW190826  11.333   5.801   1.085
29684SOL    HW290827  11.413   5.719   1.183
29685SOL     OW90828   7.658  11.433  13.818
29685SOL    HW190829   7.642  11.501  13.884
29685SOL    HW290830   7.743  11.456  13.780
29686SOL     OW90831  13.796   9.759  14.599
29686SOL    HW190832  13.765   9.844  14.632
29686SOL    HW290833  13.726   9.728  14.542
29687SOL     OW90834  13.013   6.948  13.845
29687SOL    HW190835  13.015   6.860  13.881
29687SOL    HW290836  13.011   6.935  13.750
29688SOL     OW90837   3.290   0.586  14.162
29688SOL    HW190838   3.225   0.571  14.093
29688SOL    HW290839   3.338   0.663  14.133
29689SOL     OW90840  11.365  13.304   0.346
29689SOL    HW190841  11.323  13.388   0.330
29689SOL    HW290842  11.344  13.252   0.268
29690SOL     OW90843   7.233   7.581   9.232
29690SOL    HW190844   7.237   7.527   9.153
29690SOL    HW290845   7.249   7.670   9.201
29691SOL     OW90846   1.925   9.192   2.111
29691SOL    HW190847   1.994   9.127   2.108
29691SOL    HW290848   1.910   9.208   2.204
29692SOL     OW90849  14.068  10.937  12.586
29692SOL    HW190850  14.028  10.976  12.664
29692SOL    HW290851  14.120  10.863  12.620
29693SOL     OW90852   0.002   8.542  12.434
29693SOL    HW190853   0.013   8.447  12.426
29693SOL    HW290854  14.789   8.553  12.459
29694SOL     OW90855  13.368   5.837   6.246
29694SOL    HW190856  13.394   5.761   6.297
29694SOL    HW290857  13.399   5.912   6.297
29695SOL     OW90858  13.510   7.803   6.099
29695SOL    HW190859  13.487   7.827   6.188
29695SOL    HW290860  13.521   7.886   6.053
29696SOL     OW90861   7.417   7.905   4.905
29696SOL    HW190862   7.472   7.984   4.903
29696SOL    HW290863   7.478   7.834   4.928
29697SOL     OW90864   1.081   2.277   8.773
29697SOL    HW190865   1.080   2.365   8.736
29697SOL    HW290866   0.988   2.255   8.783
29698SOL     OW90867  14.349   1.708   0.529
29698SOL    HW190868  14.381   1.677   0.614
29698SOL    HW290869  14.282   1.643   0.504
29699SOL     OW90870   7.732   7.182   9.215
29699SOL    HW190871   7.698   7.266   9.187
29699SOL    HW290872   7.707   7.176   9.308
29700SOL     OW90873   1.883   0.585   5.757
29700SOL    HW190874   1.928   0.558   5.837
29700SOL    HW290875   1.860   0.676   5.772
29701SOL     OW90876   3.699  13.356  14.226
29701SOL    HW190877   3.623  13.414  14.212
29701SOL    HW290878   3.775  13.412  14.208
29702SOL     OW90879   6.256   0.355   7.188
29702SOL    HW190880   6.273   0.267   7.153
29702SOL    HW290881   6.162   0.368   7.174
29703SOL     OW90882   1.447   4.041  10.594
29703SOL    HW190883   1.502   4.054  10.516
29703SOL    HW290884   1.449   3.947  10.609
29704SOL     OW90885   7.986   7.917  11.727
29704SOL    HW190886   8.029   7.887  11.808
29704SOL    HW290887   7.995   8.012  11.729
29705SOL     OW90888   2.579   6.218   1.957
29705SOL    HW190889   2.485   6.209   1.975
29705SOL    HW290890   2.592   6.170   1.876
29706SOL     OW90891  13.272   2.635  12.691
29706SOL    HW190892  13.246   2.543  12.692
29706SOL    HW290893  13.330   2.644  12.767
29707SOL     OW90894   3.705  12.995   5.264
29707SOL    HW190895   3.737  13.024   5.178
29707SOL    HW290896   3.767  13.034   5.326
29708SOL     OW90897   1.971   1.324   6.986
29708SOL    HW190898   1.956   1.235   6.953
29708SOL    HW290899   1.939   1.322   7.076
29709SOL     OW90900  11.723   2.031   5.579
29709SOL    HW190901  11.690   1.989   5.658
29709SOL    HW290902  11.644   2.059   5.532
29710SOL     OW90903  14.214   7.567  10.555
29710SOL    HW190904  14.256   7.653  10.561
29710SOL    HW290905  14.146   7.578  10.489
29711SOL     OW90906   0.742  13.302   0.278
29711SOL    HW190907   0.675  13.292   0.345
29711SOL    HW290908   0.697  13.288   0.195
29712SOL     OW90909   7.231  11.301   8.677
29712SOL    HW190910   7.307  11.243   8.678
29712SOL    HW290911   7.269  11.389   8.674
29713SOL     OW90912  13.230   1.682   0.852
29713SOL    HW190913  13.246   1.683   0.946
29713SOL    HW290914  13.287   1.613   0.819
29714SOL     OW90915  10.101   9.198  13.511
29714SOL    HW190916  10.176   9.250  13.481
29714SOL    HW290917  10.118   9.184  13.604
29715SOL     OW90918  10.586   4.055   0.284
29715SOL    HW190919  10.545   4.059   0.370
29715SOL    HW290920  10.517   4.024   0.226
29716SOL     OW90921   2.075   5.159   7.329
29716SOL    HW190922   2.134   5.179   7.401
29716SOL    HW290923   2.009   5.101   7.367
29717SOL     OW90924   3.574  14.618   8.957
29717SOL    HW190925   3.604  14.700   8.919
29717SOL    HW290926   3.545  14.641   9.045
29718SOL     OW90927   5.973  13.991  14.448
29718SOL    HW190928   6.063  13.998  14.417
29718SOL    HW290929   5.934  13.923  14.393
29719SOL     OW90930   1.001   1.630   1.514
29719SOL    HW190931   0.947   1.696   1.471
29719SOL    HW290932   1.062   1.681   1.568
29720SOL     OW90933   8.612   4.688   2.323
29720SOL    HW190934   8.588   4.631   2.396
29720SOL    HW290935   8.551   4.664   2.253
29721SOL     OW90936   1.404   6.683  12.839
29721SOL    HW190937   1.352   6.697  12.918
29721SOL    HW290938   1.411   6.588  12.832
29722SOL     OW90939   2.128  10.207   9.879
29722SOL    HW190940   2.213  10.240   9.849
29722SOL    HW290941   2.138  10.197   9.974
29723SOL     OW90942   0.528   7.005   3.116
29723SOL    HW190943   0.605   7.048   3.154
29723SOL    HW290944   0.469   7.077   3.094
29724SOL     OW90945   4.294   1.569  14.218
29724SOL    HW190946   4.367   1.623  14.188
29724SOL    HW290947   4.303   1.569  14.313
29725SOL     OW90948   1.793   8.067   3.993
29725SOL    HW190949   1.751   8.047   3.909
29725SOL    HW290950   1.819   7.982   4.028
29726SOL     OW90951   3.893   6.707   3.715
29726SOL    HW190952   3.925   6.737   3.801
29726SOL    HW290953   3.876   6.787   3.666
29727SOL     OW90954   7.676   1.987   8.608
29727SOL    HW190955   7.737   2.039   8.555
29727SOL    HW290956   7.600   2.044   8.619
29728SOL     OW90957   2.783  13.455   5.265
29728SOL    HW190958   2.854  13.397   5.238
29728SOL    HW290959   2.821  13.543   5.259
29729SOL     OW90960  13.377   8.531  14.429
29729SOL    HW190961  13.315   8.604  14.424
29729SOL    HW290962  13.322   8.453  14.432
29730SOL     OW90963   5.934   3.253   1.149
29730SOL    HW190964   5.851   3.249   1.101
29730SOL    HW290965   5.941   3.168   1.192
29731SOL     OW90966   5.206   2.067  11.454
29731SOL    HW190967   5.146   2.139  11.474
29731SOL    HW290968   5.290   2.110  11.439
29732SOL     OW90969   3.842   1.922   7.648
29732SOL    HW190970   3.893   1.908   7.568
29732SOL    HW290971   3.804   1.836   7.668
29733SOL     OW90972  10.074   1.002   9.301
29733SOL    HW190973  10.063   0.935   9.368
29733SOL    HW290974   9.986   1.037   9.286
29734SOL     OW90975   8.354   9.438  12.449
29734SOL    HW190976   8.370   9.442  12.543
29734SOL    HW290977   8.435   9.403  12.413
29735SOL     OW90978  12.240  10.366  10.630
29735SOL    HW190979  12.187  10.432  10.674
29735SOL    HW290980  12.205  10.362  10.541
29736SOL     OW90981  12.106   2.319  12.456
29736SOL    HW190982  12.115   2.267  12.536
29736SOL    HW290983  12.021   2.295  12.421
29737SOL     OW90984   4.764  10.845  11.490
29737SOL    HW190985   4.755  10.831  11.585
29737SOL    HW290986   4.699  10.787  11.451
29738SOL     OW90987   6.794  10.441   3.776
29738SOL    HW190988   6.814  10.360   3.728
29738SOL    HW290989   6.863  10.448   3.841
29739SOL     OW90990  11.127  14.324   9.299
29739SOL    HW190991  11.086  14.238   9.295
29739SOL    HW290992  11.193  14.323   9.229
29740SOL     OW90993  10.811  12.505   3.687
29740SOL    HW190994  10.880  12.505   3.620
29740SOL    HW290995  10.764  12.587   3.673
29741SOL     OW90996   2.157   1.194  14.636
29741SOL    HW190997   2.170   1.190  14.541
29741SOL    HW290998   2.187   1.110  14.669
29742SOL     OW90999   7.862  13.828   7.658
29742SOL    HW191000   7.881  13.891   7.728
29742SOL    HW291001   7.793  13.868   7.607
29743SOL     OW91002  14.194   1.321  11.296
29743SOL    HW191003  14.203   1.343  11.203
29743SOL    HW291004  14.151   1.236  11.297
29744SOL     OW91005   1.582   6.671   2.217
29744SOL    HW191006   1.549   6.626   2.295
29744SOL    HW291007   1.514   6.736   2.198
29745SOL     OW91008  13.189   4.030   4.761
29745SOL    HW191009  13.095   4.028   4.775
29745SOL    HW291010  13.203   4.107   4.705
29746SOL     OW91011  12.178   0.716  14.758
29746SOL    HW191012  12.146   0.655  14.824
29746SOL    HW291013  12.260   0.678  14.728
29747SOL     OW91014   9.642   7.360  10.898
29747SOL    HW191015   9.700   7.403  10.961
29747SOL    HW291016   9.664   7.267  10.905
29748SOL     OW91017   3.341  14.189   2.182
29748SOL    HW191018   3.426  14.146   2.193
29748SOL    HW291019   3.314  14.168   2.093
29749SOL     OW91020  13.148  11.580   1.652
29749SOL    HW191021  13.128  11.494   1.616
29749SOL    HW291022  13.228  11.607   1.607
29750SOL     OW91023   4.791   3.192   2.655
29750SOL    HW191024   4.813   3.215   2.565
29750SOL    HW291025   4.697   3.176   2.654
29751SOL     OW91026   0.909   8.130   8.667
29751SOL    HW191027   0.858   8.204   8.702
29751SOL    HW291028   0.855   8.053   8.685
29752SOL     OW91029  12.762   3.210  13.570
29752SOL    HW191030  12.727   3.240  13.654
29752SOL    HW291031  12.793   3.121  13.587
29753SOL     OW91032   7.289   2.956   9.528
29753SOL    HW191033   7.295   2.865   9.501
29753SOL    HW291034   7.275   2.953   9.623
29754SOL     OW91035   8.288  14.341   8.137
29754SOL    HW191036   8.312  14.420   8.186
29754SOL    HW291037   8.344  14.272   8.173
29755SOL     OW91038  12.489   8.776   0.432
29755SOL    HW191039  12.407   8.821   0.413
29755SOL    HW291040  12.466   8.683   0.432
29756SOL     OW91041   8.633  12.549   3.677
29756SOL    HW191042   8.634  12.512   3.765
29756SOL    HW291043   8.632  12.473   3.619
29757SOL     OW91044  13.101   0.284   1.012
29757SOL    HW191045  13.087   0.255   1.102
29757SOL    HW291046  13.029   0.344   0.994
29758SOL     OW91047   3.850  10.688  12.024
29758SOL    HW191048   3.777  10.684  11.963
29758SOL    HW291049   3.921  10.641  11.979
29759SOL     OW91050   5.311   3.483  14.427
29759SOL    HW191051   5.365   3.545  14.476
29759SOL    HW291052   5.359   3.468  14.346
29760SOL     OW91053   0.424   9.615   0.659
29760SOL    HW191054   0.481   9.619   0.582
29760SOL    HW291055   0.385   9.702   0.664
29761SOL     OW91056  11.501   6.992  14.613
29761SOL    HW191057  11.560   6.922  14.641
29761SOL    HW291058  11.432   6.994  14.679
29762SOL     OW91059   5.227   6.564  13.110
29762SOL    HW191060   5.135   6.553  13.088
29762SOL    HW291061   5.245   6.656  13.090
29763SOL     OW91062   5.552   6.195  14.769
29763SOL    HW191063   5.486   6.143  14.815
29763SOL    HW291064   5.539   6.173  14.676
29764SOL     OW91065  11.292   7.139   1.276
29764SOL    HW191066  11.242   7.151   1.357
29764SOL    HW291067  11.370   7.193   1.289
29765SOL     OW91068   4.591  14.680   1.116
29765SOL    HW191069   4.584  14.603   1.060
29765SOL    HW291070   4.676  14.718   1.095
29766SOL     OW91071   7.525   1.794   3.431
29766SOL    HW191072   7.601   1.824   3.381
29766SOL    HW291073   7.535   1.836   3.516
29767SOL     OW91074   0.611   0.654   2.893
29767SOL    HW191075   0.597   0.638   2.799
29767SOL    HW291076   0.541   0.605   2.936
29768SOL     OW91077   0.284  10.740   8.334
29768SOL    HW191078   0.302  10.658   8.379
29768SOL    HW291079   0.255  10.799   8.403
29769SOL     OW91080   5.284   6.870   0.629
29769SOL    HW191081   5.350   6.805   0.655
29769SOL    HW291082   5.334   6.942   0.593
29770SOL     OW91083   2.008  14.200   1.006
29770SOL    HW191084   1.998  14.119   1.056
29770SOL    HW291085   2.086  14.242   1.043
29771SOL     OW91086   3.464   6.066   9.476
29771SOL    HW191087   3.485   6.141   9.532
29771SOL    HW291088   3.373   6.046   9.497
29772SOL     OW91089   3.979   3.981  11.953
29772SOL    HW191090   4.032   4.058  11.974
29772SOL    HW291091   3.905   4.016  11.904
29773SOL     OW91092   8.644   7.794   2.884
29773SOL    HW191093   8.556   7.766   2.910
29773SOL    HW291094   8.658   7.876   2.930
29774SOL     OW91095   8.603   2.603   2.246
29774SOL    HW191096   8.697   2.605   2.229
29774SOL    HW291097   8.565   2.659   2.178
29775SOL     OW91098   0.603   4.433   1.630
29775SOL    HW191099   0.696   4.434   1.655
29775SOL    HW291100   0.573   4.522   1.648
29776SOL     OW91101   8.074   5.080   0.235
29776SOL    HW191102   8.029   5.142   0.178
29776SOL    HW291103   8.028   5.086   0.318
29777SOL     OW91104   3.815   0.485   4.486
29777SOL    HW191105   3.845   0.426   4.556
29777SOL    HW291106   3.811   0.571   4.528
29778SOL     OW91107   1.120   2.774  12.202
29778SOL    HW191108   1.134   2.687  12.164
29778SOL    HW291109   1.028   2.774  12.229
29779SOL     OW91110  13.847   4.155   9.615
29779SOL    HW191111  13.816   4.238   9.651
29779SOL    HW291112  13.893   4.113   9.687
29780SOL     OW91113  11.102   3.764   9.696
29780SOL    HW191114  11.156   3.831   9.654
29780SOL    HW291115  11.033   3.746   9.633
29781SOL     OW91116  14.156  11.047  14.874
29781SOL    HW191117  14.111  11.131   0.004
29781SOL    HW291118  14.224  11.063  14.808
29782SOL     OW91119   2.610  13.574  13.590
29782SOL    HW191120   2.624  13.647  13.530
29782SOL    HW291121   2.630  13.610  13.676
29783SOL     OW91122  14.511   9.973   5.603
29783SOL    HW191123  14.496  10.033   5.529
29783SOL    HW291124  14.602   9.947   5.594
29784SOL     OW91125   8.779   6.223  13.245
29784SOL    HW191126   8.760   6.155  13.180
29784SOL    HW291127   8.796   6.302  13.194
29785SOL     OW91128  13.940  11.832   5.707
29785SOL    HW191129  13.952  11.745   5.668
29785SOL    HW291130  13.926  11.815   5.801
29786SOL     OW91131   6.531   8.166   9.803
29786SOL    HW191132   6.575   8.086   9.833
29786SOL    HW291133   6.592   8.237   9.827
29787SOL     OW91134   4.132  12.472   9.014
29787SOL    HW191135   4.214  12.521   9.010
29787SOL    HW291136   4.150  12.392   8.964
29788SOL     OW91137   0.441  11.050  13.051
29788SOL    HW191138   0.529  11.059  13.088
29788SOL    HW291139   0.409  10.966  13.084
29789SOL     OW91140   3.089   6.346  13.182
29789SOL    HW191141   3.058   6.426  13.223
29789SOL    HW291142   3.016   6.317  13.127
29790SOL     OW91143  13.776   1.435   3.070
29790SOL    HW191144  13.830   1.504   3.032
29790SOL    HW291145  13.689   1.450   3.034
29791SOL     OW91146   4.945   4.921  14.679
29791SOL    HW191147   5.010   4.922  14.608
29791SOL    HW291148   4.993   4.950  14.756
29792SOL     OW91149  14.275   0.665   3.430
29792SOL    HW191150  14.349   0.726   3.430
29792SOL    HW291151  14.201   0.717   3.396
29793SOL     OW91152   7.167   5.173   8.435
29793SOL    HW191153   7.195   5.082   8.439
29793SOL    HW291154   7.132   5.192   8.522
29794SOL     OW91155  10.769   6.993   3.092
29794SOL    HW191156  10.777   6.899   3.076
29794SOL    HW291157  10.688   7.001   3.143
29795SOL     OW91158  14.245  11.657   7.486
29795SOL    HW191159  14.166  11.697   7.450
29795SOL    HW291160  14.232  11.563   7.472
29796SOL     OW91161   4.791   4.005   6.485
29796SOL    HW191162   4.868   3.987   6.539
29796SOL    HW291163   4.726   3.941   6.513
29797SOL     OW91164   5.886   0.397  11.872
29797SOL    HW191165   5.908   0.489  11.854
29797SOL    HW291166   5.952   0.368  11.934
29798SOL     OW91167   3.242   8.329  11.389
29798SOL    HW191168   3.320   8.335  11.334
29798SOL    HW291169   3.214   8.238  11.381
29799SOL     OW91170  14.659   5.773   7.131
29799SOL    HW191171  14.697   5.691   7.100
29799SOL    HW291172  14.700   5.840   7.076
29800SOL     OW91173  14.540  10.929   9.526
29800SOL    HW191174  14.598  11.000   9.502
29800SOL    HW291175  14.475  10.926   9.456
29801SOL     OW91176   4.363   3.711  12.384
29801SOL    HW191177   4.337   3.800  12.358
29801SOL    HW291178   4.281   3.670  12.412
29802SOL     OW91179   1.730  14.497  12.258
29802SOL    HW191180   1.637  14.476  12.245
29802SOL    HW291181   1.771  14.412  12.275
29803SOL     OW91182   7.306   4.373  12.769
29803SOL    HW191183   7.323   4.391  12.676
29803SOL    HW291184   7.379   4.413  12.815
29804SOL     OW91185  13.652   7.565   6.230
29804SOL    HW191186  13.684   7.611   6.307
29804SOL    HW291187  13.569   7.525   6.258
29805SOL     OW91188   0.298   1.754   9.942
29805SOL    HW191189   0.298   1.769   9.847
29805SOL    HW291190   0.210   1.722   9.961
29806SOL     OW91191   3.988   5.754   4.102
29806SOL    HW191192   4.025   5.684   4.156
29806SOL    HW291193   4.064   5.802   4.070
29807SOL     OW91194   8.645  13.651   8.688
29807SOL    HW191195   8.677  13.584   8.748
29807SOL    HW291196   8.560  13.676   8.723
29808SOL     OW91197  12.626   9.954   6.496
29808SOL    HW191198  12.620   9.918   6.407
29808SOL    HW291199  12.543   9.999   6.509
29809SOL     OW91200  10.027  13.960   2.343
29809SOL    HW191201   9.971  13.986   2.416
29809SOL    HW291202  10.036  14.040   2.290
29810SOL     OW91203  10.985  10.521  13.640
29810SOL    HW191204  10.984  10.456  13.570
29810SOL    HW291205  11.078  10.539  13.654
29811SOL     OW91206   4.735  14.334   0.209
29811SOL    HW191207   4.820  14.325   0.253
29811SOL    HW291208   4.755  14.378   0.127
29812SOL     OW91209   8.241   0.848   6.909
29812SOL    HW191210   8.318   0.830   6.855
29812SOL    HW291211   8.232   0.943   6.908
29813SOL     OW91212   7.821  12.979   5.886
29813SOL    HW191213   7.799  12.911   5.950
29813SOL    HW291214   7.746  12.982   5.827
29814SOL     OW91215   0.551   7.185   4.445
29814SOL    HW191216   0.458   7.203   4.437
29814SOL    HW291217   0.557   7.091   4.459
29815SOL     OW91218   6.815   8.401   0.369
29815SOL    HW191219   6.869   8.324   0.350
29815SOL    HW291220   6.874   8.460   0.415
29816SOL     OW91221  14.438   7.448   8.511
29816SOL    HW191222  14.408   7.534   8.482
29816SOL    HW291223  14.485   7.465   8.593
29817SOL     OW91224   4.446  10.028  14.140
29817SOL    HW191225   4.380  10.046  14.073
29817SOL    HW291226   4.404  10.054  14.222
29818SOL     OW91227  12.068   8.858  11.330
29818SOL    HW191228  11.981   8.866  11.370
29818SOL    HW291229  12.129   8.882  11.399
29819SOL     OW91230   0.474   2.598  12.311
29819SOL    HW191231   0.487   2.693  12.314
29819SOL    HW291232   0.426   2.583  12.230
29820SOL     OW91233  11.159  14.642   2.948
29820SOL    HW191234  11.247  14.607   2.957
29820SOL    HW291235  11.114  14.613   3.028
29821SOL     OW91236  10.532  13.452   7.381
29821SOL    HW191237  10.505  13.490   7.297
29821SOL    HW291238  10.557  13.527   7.435
29822SOL     OW91239  12.714   0.340   3.380
29822SOL    HW191240  12.741   0.320   3.290
29822SOL    HW291241  12.629   0.383   3.370
29823SOL     OW91242  11.220   2.471  10.162
29823SOL    HW191243  11.138   2.478  10.112
29823SOL    HW291244  11.235   2.377  10.171
29824SOL     OW91245   9.203   9.877   7.263
29824SOL    HW191246   9.269   9.875   7.332
29824SOL    HW291247   9.204   9.789   7.225
29825SOL     OW91248   4.535   3.380   0.215
29825SOL    HW191249   4.524   3.465   0.174
29825SOL    HW291250   4.445   3.352   0.236
29826SOL     OW91251   2.183   7.219  13.811
29826SOL    HW191252   2.252   7.184  13.868
29826SOL    HW291253   2.110   7.238  13.871
29827SOL     OW91254  11.302   1.314   9.895
29827SOL    HW191255  11.280   1.368   9.971
29827SOL    HW291256  11.342   1.375   9.833
29828SOL     OW91257   0.398  11.681  11.066
29828SOL    HW191258   0.382  11.739  10.991
29828SOL    HW291259   0.312  11.647  11.088
29829SOL     OW91260   5.615   2.753  10.634
29829SOL    HW191261   5.678   2.712  10.692
29829SOL    HW291262   5.668   2.803  10.572
29830SOL     OW91263   9.302   1.703   6.375
29830SOL    HW191264   9.383   1.676   6.332
29830SOL    HW291265   9.300   1.653   6.457
29831SOL     OW91266   7.794   9.521  11.133
29831SOL    HW191267   7.870   9.476  11.097
29831SOL    HW291268   7.786   9.487  11.222
29832SOL     OW91269   8.902   9.940   6.109
29832SOL    HW191270   8.865   9.936   6.021
29832SOL    HW291271   8.825   9.947   6.167
29833SOL     OW91272   7.926   6.709   6.088
29833SOL    HW191273   7.924   6.691   6.182
29833SOL    HW291274   7.852   6.660   6.053
29834SOL     OW91275   2.382   9.770   7.616
29834SOL    HW191276   2.441   9.822   7.671
29834SOL    HW291277   2.422   9.683   7.615
29835SOL     OW91278  11.744   4.101   6.503
29835SOL    HW191279  11.713   4.030   6.447
29835SOL    HW291280  11.798   4.058   6.569
29836SOL     OW91281   9.902   8.319  14.211
29836SOL    HW191282   9.956   8.376  14.155
29836SOL    HW291283   9.943   8.233  14.203
29837SOL     OW91284   0.987   8.110   5.244
29837SOL    HW191285   0.945   8.112   5.330
29837SOL    HW291286   1.022   8.021   5.237
29838SOL     OW91287   5.630   0.196   4.336
29838SOL    HW191288   5.637   0.224   4.244
29838SOL    HW291289   5.573   0.119   4.333
29839SOL     OW91290   8.407   9.149   6.109
29839SOL    HW191291   8.453   9.220   6.154
29839SOL    HW291292   8.466   9.074   6.117
29840SOL     OW91293   7.778   9.759  11.690
29840SOL    HW191294   7.828   9.837  11.666
29840SOL    HW291295   7.818   9.688  11.640
29841SOL     OW91296  10.800  12.420   8.952
29841SOL    HW191297  10.858  12.352   8.919
29841SOL    HW291298  10.725  12.372   8.988
29842SOL     OW91299   0.581   2.772   0.637
29842SOL    HW191300   0.595   2.851   0.585
29842SOL    HW291301   0.614   2.795   0.724
29843SOL     OW91302   0.668   4.305   8.231
29843SOL    HW191303   0.737   4.275   8.172
29843SOL    HW291304   0.711   4.370   8.286
29844SOL     OW91305   3.046   0.967   9.957
29844SOL    HW191306   3.032   1.010  10.041
29844SOL    HW291307   3.087   0.883   9.980
29845SOL     OW91308  11.803   1.058  12.658
29845SOL    HW191309  11.818   0.964  12.666
29845SOL    HW291310  11.723   1.064  12.607
29846SOL     OW91311   9.708   7.718   4.445
29846SOL    HW191312   9.616   7.725   4.471
29846SOL    HW291313   9.705   7.680   4.357
29847SOL     OW91314   2.568   4.300   5.050
29847SOL    HW191315   2.615   4.345   4.980
29847SOL    HW291316   2.553   4.367   5.116
29848SOL     OW91317   8.959  13.378   1.094
29848SOL    HW191318   8.978  13.357   1.002
29848SOL    HW291319   8.958  13.293   1.138
29849SOL     OW91320  12.202  13.056   5.987
29849SOL    HW191321  12.215  13.147   6.013
29849SOL    HW291322  12.151  13.018   6.059
29850SOL     OW91323   8.120   3.543   2.332
29850SOL    HW191324   8.063   3.497   2.394
29850SOL    HW291325   8.089   3.515   2.246
29851SOL     OW91326   6.721   3.621   6.216
29851SOL    HW191327   6.630   3.648   6.209
29851SOL    HW291328   6.724   3.563   6.293
29852SOL     OW91329   7.995  10.405   3.860
29852SOL    HW191330   7.992  10.319   3.901
29852SOL    HW291331   8.080  10.408   3.816
29853SOL     OW91332   7.370  13.774   1.450
29853SOL    HW191333   7.394  13.742   1.537
29853SOL    HW291334   7.335  13.697   1.405
29854SOL     OW91335  10.554   2.957   9.277
29854SOL    HW191336  10.618   3.023   9.305
29854SOL    HW291337  10.600   2.874   9.286
29855SOL     OW91338  13.768  10.374   4.677
29855SOL    HW191339  13.828  10.319   4.729
29855SOL    HW291340  13.744  10.445   4.736
29856SOL     OW91341  13.012   1.465   5.647
29856SOL    HW191342  13.101   1.475   5.612
29856SOL    HW291343  12.956   1.470   5.570
29857SOL     OW91344  12.072  12.622  10.563
29857SOL    HW191345  12.054  12.528  10.562
29857SOL    HW291346  12.069  12.646  10.656
29858SOL     OW91347   7.079  14.048  14.823
29858SOL    HW191348   7.052  14.093  14.743
29858SOL    HW291349   7.086  14.117   0.010
29859SOL     OW91350  14.702  12.246  14.141
29859SOL    HW191351  14.773  12.274  14.083
29859SOL    HW291352  14.642  12.320  14.143
29860SOL     OW91353   7.222   1.002   4.068
29860SOL    HW191354   7.129   1.016   4.049
29860SOL    HW291355   7.227   0.999   4.164
29861SOL     OW91356  13.295  10.750   6.355
29861SOL    HW191357  13.302  10.845   6.355
29861SOL    HW291358  13.382  10.718   6.379
29862SOL     OW91359   9.028   3.573  14.084
29862SOL    HW191360   9.073   3.646  14.041
29862SOL    HW291361   9.048   3.497  14.029
29863SOL     OW91362   0.223  12.872  12.652
29863SOL    HW191363   0.242  12.920  12.732
29863SOL    HW291364   0.308  12.854  12.613
29864SOL     OW91365   0.767   5.207   6.973
29864SOL    HW191366   0.695   5.197   6.910
29864SOL    HW291367   0.732   5.172   7.054
29865SOL     OW91368   3.769   9.739   0.058
29865SOL    HW191369   3.761   9.835   0.060
29865SOL    HW291370   3.789   9.720  14.844
29866SOL     OW91371  11.777   4.942  13.355
29866SOL    HW191372  11.841   4.918  13.423
29866SOL    HW291373  11.710   4.873  13.360
29867SOL     OW91374   4.241   4.225   3.774
29867SOL    HW191375   4.192   4.288   3.828
29867SOL    HW291376   4.290   4.172   3.836
29868SOL     OW91377  11.968   3.523   1.203
29868SOL    HW191378  11.920   3.456   1.252
29868SOL    HW291379  11.902   3.585   1.176
29869SOL     OW91380   0.972   9.595  12.212
29869SOL    HW191381   0.950   9.510  12.251
29869SOL    HW291382   1.016   9.573  12.130
29870SOL     OW91383   2.429   6.255   4.826
29870SOL    HW191384   2.427   6.163   4.803
29870SOL    HW291385   2.402   6.257   4.918
29871SOL     OW91386   3.059   6.703   1.812
29871SOL    HW191387   3.063   6.621   1.862
29871SOL    HW291388   3.117   6.688   1.738
29872SOL     OW91389   9.983   7.235  14.678
29872SOL    HW191390   9.968   7.194  14.593
29872SOL    HW291391  10.001   7.327  14.658
29873SOL     OW91392   4.300  12.927   5.403
29873SOL    HW191393   4.349  12.946   5.323
29873SOL    HW291394   4.226  12.875   5.374
29874SOL     OW91395  12.640   6.635   7.779
29874SOL    HW191396  12.613   6.556   7.826
29874SOL    HW291397  12.579   6.703   7.809
29875SOL     OW91398  13.511  13.917   7.619
29875SOL    HW191399  13.471  13.873   7.545
29875SOL    HW291400  13.477  14.006   7.616
29876SOL     OW91401  10.061  10.590   5.677
29876SOL    HW191402  10.003  10.607   5.603
29876SOL    HW291403  10.041  10.659   5.740
29877SOL     OW91404  12.493  10.920   4.885
29877SOL    HW191405  12.502  10.842   4.939
29877SOL    HW291406  12.399  10.933   4.876
29878SOL     OW91407   4.159   2.993   8.170
29878SOL    HW191408   4.222   2.991   8.242
29878SOL    HW291409   4.158   2.903   8.136
29879SOL     OW91410  13.727   3.660   0.120
29879SOL    HW191411  13.817   3.640   0.094
29879SOL    HW291412  13.689   3.574   0.141
29880SOL     OW91413   3.284   8.711   5.609
29880SOL    HW191414   3.205   8.756   5.579
29880SOL    HW291415   3.330   8.686   5.528
29881SOL     OW91416  13.212   3.580   7.274
29881SOL    HW191417  13.260   3.649   7.227
29881SOL    HW291418  13.212   3.609   7.365
29882SOL     OW91419   1.466   5.888  13.186
29882SOL    HW191420   1.388   5.892  13.241
29882SOL    HW291421   1.444   5.823  13.119
29883SOL     OW91422   4.367   0.930   4.908
29883SOL    HW191423   4.435   0.949   4.843
29883SOL    HW291424   4.415   0.891   4.981
29884SOL     OW91425  10.350  12.635   8.903
29884SOL    HW191426  10.439  12.627   8.869
29884SOL    HW291427  10.330  12.729   8.897
29885SOL     OW91428  12.466   5.091   1.452
29885SOL    HW191429  12.390   5.077   1.395
29885SOL    HW291430  12.488   5.184   1.440
29886SOL     OW91431  11.465  12.301   3.184
29886SOL    HW191432  11.484  12.271   3.273
29886SOL    HW291433  11.520  12.245   3.128
29887SOL     OW91434  10.835   0.017   7.173
29887SOL    HW191435  10.751  14.849   7.179
29887SOL    HW291436  10.877  14.859   7.094
29888SOL     OW91437   8.493  14.319   6.771
29888SOL    HW191438   8.453  14.233   6.758
29888SOL    HW291439   8.580  14.312   6.731
29889SOL     OW91440  12.469   5.701   2.657
29889SOL    HW191441  12.439   5.653   2.735
29889SOL    HW291442  12.431   5.789   2.667
29890SOL     OW91443  10.955   4.394  10.913
29890SOL    HW191444  11.029   4.335  10.932
29890SOL    HW291445  10.924   4.422  10.999
29891SOL     OW91446   9.554  13.084  14.264
29891SOL    HW191447   9.560  13.177  14.242
29891SOL    HW291448   9.595  13.077  14.350
29892SOL     OW91449   4.896   6.218   1.637
29892SOL    HW191450   4.964   6.259   1.691
29892SOL    HW291451   4.853   6.156   1.696
29893SOL     OW91452  12.225   6.460  12.648
29893SOL    HW191453  12.176   6.441  12.728
29893SOL    HW291454  12.286   6.529  12.672
29894SOL     OW91455   9.163   7.229   2.143
29894SOL    HW191456   9.182   7.223   2.049
29894SOL    HW291457   9.070   7.249   2.147
29895SOL     OW91458   9.695  14.811  11.749
29895SOL    HW191459   9.627  14.787  11.686
29895SOL    HW291460   9.646  14.836  11.828
29896SOL     OW91461  14.552   9.865   0.935
29896SOL    HW191462  14.489   9.935   0.916
29896SOL    HW291463  14.637   9.904   0.911
29897SOL     OW91464   3.264   7.634   9.870
29897SOL    HW191465   3.312   7.716   9.885
29897SOL    HW291466   3.180   7.646   9.914
29898SOL     OW91467   9.990  13.480  14.535
29898SOL    HW191468   9.920  13.545  14.535
29898SOL    HW291469   9.949  13.400  14.568
29899SOL     OW91470   0.554   5.970   4.253
29899SOL    HW191471   0.648   5.957   4.247
29899SOL    HW291472   0.530   5.939   4.340
29900SOL     OW91473  10.793  10.634   2.053
29900SOL    HW191474  10.844  10.624   1.973
29900SOL    HW291475  10.854  10.674   2.115
29901SOL     OW91476   4.746   7.013   2.658
29901SOL    HW191477   4.656   6.988   2.679
29901SOL    HW291478   4.752   6.999   2.563
29902SOL     OW91479   9.816   6.294  14.705
29902SOL    HW191480   9.863   6.373  14.732
29902SOL    HW291481   9.747   6.283  14.769
29903SOL     OW91482   7.779   6.791   5.653
29903SOL    HW191483   7.712   6.728   5.627
29903SOL    HW291484   7.854   6.738   5.677
29904SOL     OW91485  10.326  14.727   2.452
29904SOL    HW191486  10.257  14.760   2.395
29904SOL    HW291487  10.399  14.787   2.438
29905SOL     OW91488  14.347  12.462  11.899
29905SOL    HW191489  14.359  12.556  11.886
29905SOL    HW291490  14.432  12.430  11.927
29906SOL     OW91491   8.465  11.499   4.427
29906SOL    HW191492   8.505  11.472   4.344
29906SOL    HW291493   8.497  11.588   4.441
29907SOL     OW91494   9.893   0.186   3.289
29907SOL    HW191495   9.801   0.199   3.310
29907SOL    HW291496   9.916   0.260   3.233
29908SOL     OW91497  11.418  11.954   1.035
29908SOL    HW191498  11.408  11.861   1.058
29908SOL    HW291499  11.452  11.953   0.946
29909SOL     OW91500   8.214  12.699   7.060
29909SOL    HW191501   8.304  12.731   7.055
29909SOL    HW291502   8.169  12.743   6.988
29910SOL     OW91503  10.963   6.000  14.428
29910SOL    HW191504  11.041   5.960  14.466
29910SOL    HW291505  10.892   5.940  14.448
29911SOL     OW91506  13.880  12.714   3.481
29911SOL    HW191507  13.956  12.728   3.424
29911SOL    HW291508  13.836  12.638   3.442
29912SOL     OW91509   4.131   3.429   2.264
29912SOL    HW191510   4.076   3.476   2.327
29912SOL    HW291511   4.167   3.355   2.314
29913SOL     OW91512   8.176   1.268   2.630
29913SOL    HW191513   8.204   1.335   2.567
29913SOL    HW291514   8.191   1.185   2.585
29914SOL     OW91515   8.095   6.034   5.436
29914SOL    HW191516   8.152   6.076   5.371
29914SOL    HW291517   8.006   6.053   5.405
29915SOL     OW91518  11.383   3.743   2.158
29915SOL    HW191519  11.458   3.797   2.133
29915SOL    HW291520  11.307   3.799   2.140
29916SOL     OW91521   9.042  14.104   5.477
29916SOL    HW191522   9.098  14.034   5.443
29916SOL    HW291523   8.958  14.061   5.496
29917SOL     OW91524  10.465  10.176  11.264
29917SOL    HW191525  10.453  10.260  11.308
29917SOL    HW291526  10.524  10.195  11.192
29918SOL     OW91527   7.839   5.191   5.951
29918SOL    HW191528   7.886   5.164   5.872
29918SOL    HW291529   7.757   5.228   5.919
29919SOL     OW91530   7.403   0.773   8.630
29919SOL    HW191531   7.349   0.751   8.554
29919SOL    HW291532   7.363   0.725   8.702
29920SOL     OW91533  12.132   1.172   1.867
29920SOL    HW191534  12.076   1.226   1.924
29920SOL    HW291535  12.202   1.230   1.839
29921SOL     OW91536   9.297  10.992  14.433
29921SOL    HW191537   9.225  10.977  14.371
29921SOL    HW291538   9.299  11.087  14.444
29922SOL     OW91539   9.956  12.146   5.967
29922SOL    HW191540   9.896  12.072   5.958
29922SOL    HW291541  10.035  12.108   6.006
29923SOL     OW91542   9.989   2.217   5.437
29923SOL    HW191543  10.031   2.295   5.400
29923SOL    HW291544  10.019   2.146   5.381
29924SOL     OW91545  12.259   9.654  12.315
29924SOL    HW191546  12.310   9.621  12.389
29924SOL    HW291547  12.212   9.729  12.350
29925SOL     OW91548   5.170   7.597   5.583
29925SOL    HW191549   5.186   7.669   5.645
29925SOL    HW291550   5.082   7.613   5.551
29926SOL     OW91551   1.798   4.743   8.535
29926SOL    HW191552   1.712   4.705   8.519
29926SOL    HW291553   1.842   4.737   8.450
29927SOL     OW91554   0.594   7.004  11.907
29927SOL    HW191555   0.503   6.987  11.882
29927SOL    HW291556   0.640   7.015  11.823
29928SOL     OW91557  11.987   6.520  11.174
29928SOL    HW191558  12.082   6.533  11.166
29928SOL    HW291559  11.978   6.460  11.249
29929SOL     OW91560  12.968   6.125   2.703
29929SOL    HW191561  12.992   6.040   2.740
29929SOL    HW291562  13.045   6.153   2.654
29930SOL     OW91563  13.334   1.857  14.724
29930SOL    HW191564  13.419   1.869  14.766
29930SOL    HW291565  13.344   1.778  14.671
29931SOL     OW91566   9.660  14.522  14.771
29931SOL    HW191567   9.670  14.447  14.712
29931SOL    HW291568   9.565  14.532  14.780
29932SOL     OW91569   0.017   5.319   1.854
29932SOL    HW191570  14.840   5.346   1.928
29932SOL    HW291571  14.839   5.326   1.777
29933SOL     OW91572  10.807  10.405   5.394
29933SOL    HW191573  10.807  10.385   5.300
29933SOL    HW291574  10.728  10.458   5.407
29934SOL     OW91575   3.554   2.899  14.242
29934SOL    HW191576   3.558   2.991  14.267
29934SOL    HW291577   3.462   2.882  14.223
29935SOL     OW91578   4.633  11.511  13.131
29935SOL    HW191579   4.590  11.473  13.207
29935SOL    HW291580   4.563  11.556  13.083
29936SOL     OW91581   3.678  13.740   3.837
29936SOL    HW191582   3.741  13.697   3.778
29936SOL    HW291583   3.730  13.773   3.909
29937SOL     OW91584   8.503   2.713   7.981
29937SOL    HW191585   8.526   2.678   8.068
29937SOL    HW291586   8.530   2.805   7.985
29938SOL     OW91587   5.126   9.492   9.495
29938SOL    HW191588   5.191   9.562   9.499
29938SOL    HW291589   5.115   9.465   9.586
29939SOL     OW91590   2.824   1.233  13.476
29939SOL    HW191591   2.863   1.172  13.414
29939SOL    HW291592   2.828   1.318  13.432
29940SOL     OW91593   4.241   3.356   3.786
29940SOL    HW191594   4.297   3.280   3.768
29940SOL    HW291595   4.175   3.324   3.847
29941SOL     OW91596  12.275   9.359   4.610
29941SOL    HW191597  12.254   9.453   4.615
29941SOL    HW291598  12.195   9.315   4.639
29942SOL     OW91599   6.339  13.211   6.029
29942SOL    HW191600   6.262  13.268   6.037
29942SOL    HW291601   6.414  13.269   6.044
29943SOL     OW91602   3.333   3.941   3.622
29943SOL    HW191603   3.308   3.865   3.570
29943SOL    HW291604   3.280   4.013   3.588
29944SOL     OW91605   4.854  10.023   5.733
29944SOL    HW191606   4.862  10.032   5.828
29944SOL    HW291607   4.943  10.008   5.702
29945SOL     OW91608   9.400   3.403  11.752
29945SOL    HW191609   9.458   3.389  11.827
29945SOL    HW291610   9.418   3.494  11.726
29946SOL     OW91611   1.496   7.629   6.107
29946SOL    HW191612   1.568   7.646   6.169
29946SOL    HW291613   1.422   7.604   6.163
29947SOL     OW91614  11.127   9.256   0.035
29947SOL    HW191615  11.215   9.221   0.050
29947SOL    HW291616  11.138   9.351   0.044
29948SOL     OW91617   2.497   6.450   0.912
29948SOL    HW191618   2.405   6.461   0.936
29948SOL    HW291619   2.539   6.421   0.993
29949SOL     OW91620   3.474   3.638   4.471
29949SOL    HW191621   3.457   3.629   4.377
29949SOL    HW291622   3.423   3.715   4.497
29950SOL     OW91623  11.709   2.957   8.506
29950SOL    HW191624  11.723   3.040   8.461
29950SOL    HW291625  11.697   2.980   8.598
29951SOL     OW91626  12.982   9.153  11.614
29951SOL    HW191627  12.992   9.245  11.588
29951SOL    HW291628  12.887   9.141  11.621
29952SOL     OW91629   2.650   6.469   9.101
29952SOL    HW191630   2.735   6.499   9.135
29952SOL    HW291631   2.588   6.535   9.130
29953SOL     OW91632  14.465  11.315   6.224
29953SOL    HW191633  14.385  11.342   6.177
29953SOL    HW291634  14.462  11.220   6.222
29954SOL     OW91635   8.812   7.548   8.933
29954SOL    HW191636   8.796   7.473   8.877
29954SOL    HW291637   8.823   7.511   9.021
29955SOL     OW91638  13.398   4.888   2.544
29955SOL    HW191639  13.461   4.846   2.602
29955SOL    HW291640  13.313   4.858   2.577
29956SOL     OW91641  12.156   0.356  12.076
29956SOL    HW191642  12.170   0.343  11.982
29956SOL    HW291643  12.134   0.448  12.085
29957SOL     OW91644  13.458   2.188   5.340
29957SOL    HW191645  13.508   2.193   5.258
29957SOL    HW291646  13.374   2.230   5.320
29958SOL     OW91647   8.757  14.718  12.189
29958SOL    HW191648   8.720  14.759  12.111
29958SOL    HW291649   8.846  14.751  12.194
29959SOL     OW91650  13.944  13.656  10.850
29959SOL    HW191651  14.030  13.615  10.846
29959SOL    HW291652  13.902  13.632  10.767
29960SOL     OW91653   8.757  13.229  10.458
29960SOL    HW191654   8.708  13.162  10.506
29960SOL    HW291655   8.691  13.273  10.405
29961SOL     OW91656  11.840  13.041  11.942
29961SOL    HW191657  11.864  13.067  12.031
29961SOL    HW291658  11.915  12.990  11.912
29962SOL     OW91659  10.286   0.736   5.611
29962SOL    HW191660  10.248   0.782   5.686
29962SOL    HW291661  10.273   0.796   5.537
29963SOL     OW91662   9.856   7.520  14.325
29963SOL    HW191663   9.811   7.486  14.248
29963SOL    HW291664   9.826   7.464  14.397
29964SOL     OW91665  11.297   0.782  10.898
29964SOL    HW191666  11.304   0.855  10.959
29964SOL    HW291667  11.367   0.721  10.925
29965SOL     OW91668   2.659  10.526  12.613
29965SOL    HW191669   2.636  10.450  12.667
29965SOL    HW291670   2.739  10.500  12.566
29966SOL     OW91671   0.833   6.482  12.335
29966SOL    HW191672   0.761   6.531  12.295
29966SOL    HW291673   0.813   6.483  12.429
29967SOL     OW91674   0.801  14.707   9.385
29967SOL    HW191675   0.871  14.767   9.410
29967SOL    HW291676   0.810  14.633   9.445
29968SOL     OW91677   4.468   4.984   2.813
29968SOL    HW191678   4.513   5.021   2.737
29968SOL    HW291679   4.539   4.960   2.873
29969SOL     OW91680   2.302   0.772  13.885
29969SOL    HW191681   2.379   0.829  13.885
29969SOL    HW291682   2.335   0.686  13.859
29970SOL     OW91683   3.308   0.242   9.197
29970SOL    HW191684   3.243   0.290   9.146
29970SOL    HW291685   3.389   0.250   9.146
29971SOL     OW91686  12.633  14.411  13.768
29971SOL    HW191687  12.600  14.327  13.798
29971SOL    HW291688  12.680  14.447  13.844
29972SOL     OW91689   6.293  11.680   6.886
29972SOL    HW191690   6.248  11.607   6.928
29972SOL    HW291691   6.234  11.708   6.816
29973SOL     OW91692   2.184  12.146  14.355
29973SOL    HW191693   2.099  12.138  14.310
29973SOL    HW291694   2.184  12.236  14.389
29974SOL     OW91695   2.233  11.301   6.552
29974SOL    HW191696   2.186  11.265   6.477
29974SOL    HW291697   2.290  11.368   6.514
29975SOL     OW91698   8.479  12.781   0.392
29975SOL    HW191699   8.568  12.796   0.422
29975SOL    HW291700   8.434  12.745   0.469
29976SOL     OW91701   2.565   8.481  12.819
29976SOL    HW191702   2.504   8.407  12.816
29976SOL    HW291703   2.529   8.539  12.885
29977SOL     OW91704   7.313   6.533   4.457
29977SOL    HW191705   7.315   6.524   4.362
29977SOL    HW291706   7.251   6.605   4.473
29978SOL     OW91707  13.491  13.244   4.913
29978SOL    HW191708  13.395  13.242   4.916
29978SOL    HW291709  13.518  13.222   5.003
29979SOL     OW91710   2.014  10.460   1.737
29979SOL    HW191711   1.995  10.371   1.766
29979SOL    HW291712   2.081  10.491   1.798
29980SOL     OW91713  12.244  13.387   7.146
29980SOL    HW191714  12.287  13.302   7.158
29980SOL    HW291715  12.303  13.450   7.187
29981SOL     OW91716   8.936  12.071   0.632
29981SOL    HW191717   8.866  12.096   0.572
29981SOL    HW291718   8.952  11.979   0.613
29982SOL     OW91719   6.629   4.016   1.514
29982SOL    HW191720   6.663   4.102   1.493
29982SOL    HW291721   6.621   3.971   1.430
29983SOL     OW91722  14.766   1.565   4.258
29983SOL    HW191723  14.741   1.489   4.205
29983SOL    HW291724  14.823   1.529   4.326
29984SOL     OW91725  10.283   9.149  11.145
29984SOL    HW191726  10.282   9.055  11.164
29984SOL    HW291727  10.303   9.155  11.052
29985SOL     OW91728   8.794   5.163   6.622
29985SOL    HW191729   8.766   5.081   6.581
29985SOL    HW291730   8.734   5.229   6.589
29986SOL     OW91731  13.839  11.054   5.577
29986SOL    HW191732  13.819  11.080   5.667
29986SOL    HW291733  13.784  11.109   5.523
29987SOL     OW91734  11.331   6.806   1.425
29987SOL    HW191735  11.386   6.806   1.346
29987SOL    HW291736  11.394   6.797   1.497
29988SOL     OW91737   4.724  12.015  12.101
29988SOL    HW191738   4.696  12.005  12.192
29988SOL    HW291739   4.760  11.930  12.077
29989SOL     OW91740  11.253  11.826   2.070
29989SOL    HW191741  11.231  11.812   2.162
29989SOL    HW291742  11.325  11.888   2.071
29990SOL     OW91743   1.081   0.088  11.591
29990SOL    HW191744   1.167   0.069  11.555
29990SOL    HW291745   1.090   0.174  11.632
29991SOL     OW91746   7.128   4.400  10.271
29991SOL    HW191747   7.146   4.344  10.346
29991SOL    HW291748   7.210   4.448  10.256
29992SOL     OW91749   8.752   9.560   5.558
29992SOL    HW191750   8.835   9.517   5.577
29992SOL    HW291751   8.705   9.560   5.641
29993SOL     OW91752  11.964  10.806  11.183
29993SOL    HW191753  12.048  10.814  11.228
29993SOL    HW291754  11.920  10.890  11.199
29994SOL     OW91755  13.969   2.922  11.454
29994SOL    HW191756  13.910   2.996  11.438
29994SOL    HW291757  14.050   2.945  11.408
29995SOL     OW91758   3.927   5.048   4.051
29995SOL    HW191759   3.995   5.098   4.005
29995SOL    HW291760   3.876   5.114   4.098
29996SOL     OW91761  12.968   9.719  13.640
29996SOL    HW191762  12.877   9.714  13.669
29996SOL    HW291763  13.004   9.796  13.686
29997SOL     OW91764   9.910   7.540   6.278
29997SOL    HW191765   9.997   7.513   6.251
29997SOL    HW291766   9.925   7.600   6.352
29998SOL     OW91767   9.067   1.189   7.020
29998SOL    HW191768   9.119   1.265   7.046
29998SOL    HW291769   9.132   1.120   7.006
29999SOL     OW91770  14.023  13.800  11.151
29999SOL    HW191771  13.995  13.734  11.087
29999SOL    HW291772  14.054  13.873  11.097
30000SOL     OW91773   6.527   0.792   7.221
30000SOL    HW191774   6.491   0.703   7.215
30000SOL    HW291775   6.600   0.784   7.282
30001SOL     OW91776   9.100   4.505  11.796
30001SOL    HW191777   9.047   4.561  11.853
30001SOL    HW291778   9.130   4.434  11.853
30002SOL     OW91779   8.026   6.444   0.904
30002SOL    HW191780   8.072   6.515   0.950
30002SOL    HW291781   8.033   6.467   0.811
30003SOL     OW91782   6.739   8.988  13.994
30003SOL    HW191783   6.832   8.992  14.017
30003SOL    HW291784   6.739   8.977  13.899
30004SOL     OW91785   1.341   2.762   4.556
30004SOL    HW191786   1.305   2.737   4.641
30004SOL    HW291787   1.265   2.767   4.498
30005SOL     OW91788  12.338  11.884   0.657
30005SOL    HW191789  12.251  11.884   0.618
30005SOL    HW291790  12.374  11.970   0.635
30006SOL     OW91791   5.993  11.603   1.164
30006SOL    HW191792   5.995  11.675   1.101
30006SOL    HW291793   6.018  11.643   1.247
30007SOL     OW91794   5.156  12.786   4.166
30007SOL    HW191795   5.116  12.865   4.129
30007SOL    HW291796   5.102  12.714   4.134
30008SOL     OW91797  13.041   4.982  12.008
30008SOL    HW191798  13.039   4.979  11.912
30008SOL    HW291799  13.119   5.033  12.028
30009SOL     OW91800  13.781   3.537   7.068
30009SOL    HW191801  13.821   3.624   7.067
30009SOL    HW291802  13.722   3.538   7.142
30010SOL     OW91803   5.068   3.201  11.849
30010SOL    HW191804   4.990   3.147  11.861
30010SOL    HW291805   5.042   3.269  11.788
30011SOL     OW91806   1.411   9.195  12.328
30011SOL    HW191807   1.351   9.233  12.392
30011SOL    HW291808   1.370   9.213  12.243
30012SOL     OW91809   5.854   3.531   1.396
30012SOL    HW191810   5.881   3.450   1.440
30012SOL    HW291811   5.887   3.601   1.452
30013SOL     OW91812   3.749  10.146  11.412
30013SOL    HW191813   3.717  10.177  11.327
30013SOL    HW291814   3.767  10.053  11.399
30014SOL     OW91815  11.326   3.953  12.715
30014SOL    HW191816  11.293   4.028  12.764
30014SOL    HW291817  11.280   3.958  12.631
30015SOL     OW91818   9.298   3.831   2.743
30015SOL    HW191819   9.349   3.771   2.798
30015SOL    HW291820   9.323   3.918   2.772
30016SOL     OW91821  10.383  11.311   3.673
30016SOL    HW191822  10.460  11.355   3.637
30016SOL    HW291823  10.345  11.374   3.733
30017SOL     OW91824   8.606   3.146   7.402
30017SOL    HW191825   8.620   3.096   7.322
30017SOL    HW291826   8.524   3.112   7.437
30018SOL     OW91827   6.467   2.703   5.445
30018SOL    HW191828   6.544   2.759   5.460
30018SOL    HW291829   6.454   2.657   5.528
30019SOL     OW91830   2.917   8.194  14.751
30019SOL    HW191831   2.868   8.271  14.723
30019SOL    HW291832   2.974   8.174  14.676
30020SOL     OW91833  12.742   4.599   5.590
30020SOL    HW191834  12.706   4.550   5.516
30020SOL    HW291835  12.674   4.596   5.657
30021SOL     OW91836   8.044   2.907   0.526
30021SOL    HW191837   8.104   2.980   0.533
30021SOL    HW291838   7.978   2.923   0.594
30022SOL     OW91839  12.987  13.805   8.740
30022SOL    HW191840  13.020  13.717   8.721
30022SOL    HW291841  12.965  13.841   8.655
30023SOL     OW91842   8.823  12.656   7.913
30023SOL    HW191843   8.768  12.587   7.951
30023SOL    HW291844   8.893  12.608   7.869
30024SOL     OW91845   7.835   2.794  13.917
30024SOL    HW191846   7.779   2.784  13.840
30024SOL    HW291847   7.810   2.720  13.973
30025SOL     OW91848   6.557   0.585  14.747
30025SOL    HW191849   6.564   0.566  14.840
30025SOL    HW291850   6.552   0.681  14.742
30026SOL     OW91851   6.712  10.829   8.663
30026SOL    HW191852   6.716  10.912   8.616
30026SOL    HW291853   6.692  10.764   8.596
30027SOL     OW91854   5.324   7.976  13.158
30027SOL    HW191855   5.342   7.888  13.124
30027SOL    HW291856   5.256   8.010  13.099
30028SOL     OW91857  13.816   7.776   9.969
30028SOL    HW191858  13.779   7.854   9.927
30028SOL    HW291859  13.821   7.799  10.062
30029SOL     OW91860   5.980   1.777  10.107
30029SOL    HW191861   5.964   1.813  10.194
30029SOL    HW291862   6.019   1.692  10.123
30030SOL     OW91863   4.094  14.704   7.507
30030SOL    HW191864   4.153  14.778   7.492
30030SOL    HW291865   4.049  14.726   7.589
30031SOL     OW91866   9.920  13.911  11.312
30031SOL    HW191867   9.907  13.899  11.218
30031SOL    HW291868   9.954  14.001  11.320
30032SOL     OW91869   4.896   3.518  13.342
30032SOL    HW191870   4.822   3.471  13.305
30032SOL    HW291871   4.965   3.452  13.350
30033SOL     OW91872   9.580   3.114   4.978
30033SOL    HW191873   9.503   3.120   5.035
30033SOL    HW291874   9.568   3.184   4.914
30034SOL     OW91875   9.523   7.106   3.149
30034SOL    HW191876   9.509   7.047   3.075
30034SOL    HW291877   9.550   7.189   3.109
30035SOL     OW91878   4.670  13.243   8.720
30035SOL    HW191879   4.749  13.280   8.681
30035SOL    HW291880   4.673  13.150   8.697
30036SOL     OW91881   3.648   2.015   0.445
30036SOL    HW191882   3.682   2.104   0.449
30036SOL    HW291883   3.581   2.012   0.513
30037SOL     OW91884   9.049   3.112  10.498
30037SOL    HW191885   8.958   3.137  10.487
30037SOL    HW291886   9.095   3.156  10.427
30038SOL     OW91887   6.481   8.768   4.658
30038SOL    HW191888   6.425   8.839   4.625
30038SOL    HW291889   6.546   8.813   4.712
30039SOL     OW91890  10.450  10.744   3.800
30039SOL    HW191891  10.425  10.763   3.710
30039SOL    HW291892  10.425  10.653   3.814
30040SOL     OW91893   6.891   0.216   3.932
30040SOL    HW191894   6.882   0.186   4.023
30040SOL    HW291895   6.965   0.277   3.934
30041SOL     OW91896   8.436   7.164  11.182
30041SOL    HW191897   8.502   7.216  11.135
30041SOL    HW291898   8.447   7.075  11.146
30042SOL     OW91899   6.879  12.749   8.709
30042SOL    HW191900   6.787  12.725   8.718
30042SOL    HW291901   6.926  12.666   8.718
30043SOL     OW91902   4.704   9.700  12.976
30043SOL    HW191903   4.676   9.789  12.996
30043SOL    HW291904   4.790   9.710  12.937
30044SOL     OW91905   1.046   1.474  11.901
30044SOL    HW191906   1.069   1.483  11.993
30044SOL    HW291907   1.126   1.495  11.853
30045SOL     OW91908  12.960   4.813  12.605
30045SOL    HW191909  12.898   4.833  12.534
30045SOL    HW291910  12.907   4.770  12.672
30046SOL     OW91911   4.319  14.141   4.674
30046SOL    HW191912   4.327  14.107   4.764
30046SOL    HW291913   4.328  14.063   4.619
30047SOL     OW91914  13.783   8.636  12.535
30047SOL    HW191915  13.858   8.641  12.476
30047SOL    HW291916  13.822   8.632  12.623
30048SOL     OW91917   5.345   2.027   8.133
30048SOL    HW191918   5.361   2.057   8.222
30048SOL    HW291919   5.370   2.101   8.077
30049SOL     OW91920   3.212   3.996  12.985
30049SOL    HW191921   3.126   3.954  12.987
30049SOL    HW291922   3.200   4.071  12.926
30050SOL     OW91923  13.679   7.896   2.691
30050SOL    HW191924  13.707   7.810   2.661
30050SOL    HW291925  13.731   7.958   2.641
30051SOL     OW91926  12.349   4.836  10.394
30051SOL    HW191927  12.320   4.745  10.398
30051SOL    HW291928  12.369   4.851  10.302
30052SOL     OW91929  12.811   5.922   7.888
30052SOL    HW191930  12.861   5.983   7.943
30052SOL    HW291931  12.722   5.957   7.889
30053SOL     OW91932   4.800   3.672  12.744
30053SOL    HW191933   4.794   3.577  12.739
30053SOL    HW291934   4.879   3.688  12.795
30054SOL     OW91935   6.221   5.120  10.086
30054SOL    HW191936   6.171   5.093  10.009
30054SOL    HW291937   6.166   5.094  10.161
30055SOL     OW91938   4.423   2.570   0.229
30055SOL    HW191939   4.373   2.651   0.240
30055SOL    HW291940   4.410   2.546   0.137
30056SOL     OW91941   7.646   2.532   4.672
30056SOL    HW191942   7.716   2.484   4.717
30056SOL    HW291943   7.685   2.616   4.649
30057SOL     OW91944   4.162  13.738   9.950
30057SOL    HW191945   4.092  13.791   9.911
30057SOL    HW291946   4.232  13.800   9.970
30058SOL     OW91947  13.442  12.526   2.479
30058SOL    HW191948  13.378  12.512   2.410
30058SOL    HW291949  13.443  12.444   2.528
30059SOL     OW91950   3.686   7.488  10.428
30059SOL    HW191951   3.728   7.574  10.422
30059SOL    HW291952   3.621   7.499  10.497
30060SOL     OW91953  12.478   0.296  14.806
30060SOL    HW191954  12.544   0.314  14.873
30060SOL    HW291955  12.526   0.251  14.736
30061SOL     OW91956   7.615  12.552   2.465
30061SOL    HW191957   7.659  12.637   2.474
30061SOL    HW291958   7.607  12.519   2.554
30062SOL     OW91959   4.052  11.842   1.281
30062SOL    HW191960   4.028  11.880   1.366
30062SOL    HW291961   3.996  11.764   1.273
30063SOL     OW91962  10.425   1.656  10.835
30063SOL    HW191963  10.374   1.668  10.755
30063SOL    HW291964  10.430   1.743  10.874
30064SOL     OW91965   4.537   1.006  14.419
30064SOL    HW191966   4.573   1.040  14.501
30064SOL    HW291967   4.443   1.009  14.432
30065SOL     OW91968  13.553   4.743   4.985
30065SOL    HW191969  13.488   4.675   5.002
30065SOL    HW291970  13.581   4.772   5.072
30066SOL     OW91971   6.967   9.152   2.088
30066SOL    HW191972   6.887   9.184   2.130
30066SOL    HW291973   6.936   9.091   2.021
30067SOL     OW91974   1.741  10.184   7.575
30067SOL    HW191975   1.746  10.158   7.483
30067SOL    HW291976   1.650  10.169   7.599
30068SOL     OW91977   0.625   4.685  10.927
30068SOL    HW191978   0.717   4.710  10.930
30068SOL    HW291979   0.578   4.760  10.963
30069SOL     OW91980   1.026   6.344  12.979
30069SOL    HW191981   0.931   6.338  12.991
30069SOL    HW291982   1.037   6.391  12.896
30070SOL     OW91983  12.734  14.047   9.879
30070SOL    HW191984  12.710  14.114   9.815
30070SOL    HW291985  12.829  14.051   9.884
30071SOL     OW91986  13.468   5.644   3.655
30071SOL    HW191987  13.411   5.590   3.600
30071SOL    HW291988  13.421   5.727   3.664
30072SOL     OW91989   3.266   0.430   2.974
30072SOL    HW191990   3.298   0.500   3.031
30072SOL    HW291991   3.258   0.355   3.032
30073SOL     OW91992   5.923   3.314   3.329
30073SOL    HW191993   5.914   3.222   3.305
30073SOL    HW291994   5.916   3.315   3.424
30074SOL     OW91995   1.077   6.914  14.505
30074SOL    HW191996   1.039   6.995  14.470
30074SOL    HW291997   1.082   6.855  14.430
30075SOL     OW91998  11.715  12.385  13.762
30075SOL    HW191999  11.747  12.297  13.781
30075SOL    HW292000  11.677  12.415  13.845
30076SOL     OW92001   4.825   6.028   1.834
30076SOL    HW192002   4.743   5.996   1.797
30076SOL    HW292003   4.832   5.984   1.919
30077SOL     OW92004  10.867   1.254   9.465
30077SOL    HW192005  10.953   1.213   9.465
30077SOL    HW292006  10.858   1.290   9.553
30078SOL     OW92007   2.880  10.425  13.856
30078SOL    HW192008   2.907  10.504  13.808
30078SOL    HW292009   2.801  10.395  13.810
30079SOL     OW92010  12.815   8.203   9.451
30079SOL    HW192011  12.866   8.203   9.370
30079SOL    HW292012  12.792   8.295   9.466
30080SOL     OW92013   3.069   3.098   1.523
30080SOL    HW192014   3.090   3.058   1.439
30080SOL    HW292015   2.995   3.155   1.505
30081SOL     OW92016   8.467   6.466   6.230
30081SOL    HW192017   8.454   6.375   6.257
30081SOL    HW292018   8.410   6.516   6.288
30082SOL     OW92019   3.266  14.479  13.846
30082SOL    HW192020   3.255  14.450  13.936
30082SOL    HW292021   3.289  14.399  13.798
30083SOL     OW92022  10.526   0.339  13.475
30083SOL    HW192023  10.615   0.364  13.497
30083SOL    HW292024  10.473   0.372  13.547
30084SOL     OW92025   1.637  10.249   2.031
30084SOL    HW192026   1.560  10.306   2.032
30084SOL    HW292027   1.687  10.274   2.109
30085SOL     OW92028  11.778   2.217   0.158
30085SOL    HW192029  11.781   2.126   0.129
30085SOL    HW292030  11.776   2.213   0.253
30086SOL     OW92031   6.351  10.175   9.081
30086SOL    HW192032   6.425  10.148   9.026
30086SOL    HW292033   6.274  10.144   9.034
30087SOL     OW92034  10.439   8.908  14.020
30087SOL    HW192035  10.456   8.877  14.109
30087SOL    HW292036  10.349   8.941  14.022
30088SOL     OW92037   6.405   4.682   7.518
30088SOL    HW192038   6.357   4.618   7.466
30088SOL    HW292039   6.497   4.653   7.515
30089SOL     OW92040   7.193   8.496  12.104
30089SOL    HW192041   7.207   8.437  12.030
30089SOL    HW292042   7.226   8.581  12.073
30090SOL     OW92043  11.426  11.491   4.266
30090SOL    HW192044  11.339  11.457   4.287
30090SOL    HW292045  11.479  11.413   4.250
30091SOL     OW92046   7.584   9.136  11.920
30091SOL    HW192047   7.586   9.166  12.010
30091SOL    HW292048   7.638   9.057  11.920
30092SOL     OW92049   1.416   8.088   4.852
30092SOL    HW192050   1.322   8.099   4.834
30092SOL    HW292051   1.424   8.098   4.947
30093SOL     OW92052  13.935   3.326  14.565
30093SOL    HW192053  13.886   3.335  14.646
30093SOL    HW292054  13.970   3.414  14.548
30094SOL     OW92055  13.269   8.022   2.489
30094SOL    HW192056  13.210   7.948   2.481
30094SOL    HW292057  13.211   8.097   2.506
30095SOL     OW92058  10.525  13.515  10.048
30095SOL    HW192059  10.530  13.425  10.017
30095SOL    HW292060  10.463  13.512  10.122
30096SOL     OW92061   0.884   4.719  10.604
30096SOL    HW192062   0.851   4.639  10.563
30096SOL    HW292063   0.817   4.785  10.586
30097SOL     OW92064  12.344   5.359   5.182
30097SOL    HW192065  12.403   5.288   5.158
30097SOL    HW292066  12.273   5.316   5.229
30098SOL     OW92067  12.947   9.219   7.152
30098SOL    HW192068  12.862   9.212   7.196
30098SOL    HW292069  12.948   9.148   7.088
30099SOL     OW92070  10.855   9.122   2.755
30099SOL    HW192071  10.938   9.121   2.707
30099SOL    HW292072  10.796   9.068   2.702
30100SOL     OW92073  12.427   7.794   4.303
30100SOL    HW192074  12.414   7.729   4.372
30100SOL    HW292075  12.522   7.800   4.293
30101SOL     OW92076   1.165  10.433   2.833
30101SOL    HW192077   1.105  10.446   2.906
30101SOL    HW292078   1.170  10.518   2.790
30102SOL     OW92079  14.203   5.504   3.206
30102SOL    HW192080  14.268   5.435   3.222
30102SOL    HW292081  14.190   5.503   3.112
30103SOL     OW92082   4.985   6.136   5.869
30103SOL    HW192083   5.001   6.159   5.777
30103SOL    HW292084   5.071   6.115   5.904
30104SOL     OW92085  13.571   3.640   9.341
30104SOL    HW192086  13.509   3.698   9.386
30104SOL    HW292087  13.625   3.603   9.411
30105SOL     OW92088   9.649  13.434  12.199
30105SOL    HW192089   9.656  13.339  12.199
30105SOL    HW292090   9.691  13.461  12.117
30106SOL     OW92091   3.683  11.447   6.858
30106SOL    HW192092   3.603  11.439   6.806
30106SOL    HW292093   3.753  11.459   6.793
30107SOL     OW92094   9.324   9.839  10.653
30107SOL    HW192095   9.250   9.869  10.706
30107SOL    HW292096   9.284   9.782  10.587
30108SOL     OW92097  13.278  12.990   9.027
30108SOL    HW192098  13.361  12.947   9.047
30108SOL    HW292099  13.216  12.918   9.016
30109SOL     OW92100  13.757   2.114  10.653
30109SOL    HW192101  13.800   2.066  10.582
30109SOL    HW292102  13.752   2.050  10.725
30110SOL     OW92103   5.776   8.973  10.927
30110SOL    HW192104   5.711   8.913  10.963
30110SOL    HW292105   5.845   8.916  10.892
30111SOL     OW92106  11.628   8.966   9.297
30111SOL    HW192107  11.554   8.906   9.312
30111SOL    HW292108  11.670   8.974   9.383
30112SOL     OW92109   6.866   9.287   6.381
30112SOL    HW192110   6.861   9.193   6.397
30112SOL    HW292111   6.776   9.318   6.390
30113SOL     OW92112   0.065  10.766  13.714
30113SOL    HW192113   0.006  10.739  13.784
30113SOL    HW292114   0.153  10.757  13.752
30114SOL     OW92115  11.144  13.437  12.092
30114SOL    HW192116  11.206  13.385  12.142
30114SOL    HW292117  11.177  13.434  12.002
30115SOL     OW92118  11.357   8.565   1.659
30115SOL    HW192119  11.277   8.617   1.662
30115SOL    HW292120  11.389   8.564   1.750
30116SOL     OW92121  14.525  13.690   8.744
30116SOL    HW192122  14.570  13.669   8.826
30116SOL    HW292123  14.528  13.786   8.739
30117SOL     OW92124  14.090  10.342   9.575
30117SOL    HW192125  14.133  10.258   9.597
30117SOL    HW292126  14.020  10.318   9.515
30118SOL     OW92127   9.317  14.329  12.085
30118SOL    HW192128   9.242  14.271  12.095
30118SOL    HW292129   9.324  14.374  12.169
30119SOL     OW92130   7.573  13.836  12.386
30119SOL    HW192131   7.515  13.802  12.455
30119SOL    HW292132   7.621  13.907  12.428
30120SOL     OW92133  11.964   6.558   9.559
30120SOL    HW192134  11.960   6.525   9.470
30120SOL    HW292135  11.875   6.546   9.593
30121SOL     OW92136   0.298   6.876   5.821
30121SOL    HW192137   0.258   6.789   5.820
30121SOL    HW292138   0.343   6.881   5.905
30122SOL     OW92139  14.758   6.423   6.719
30122SOL    HW192140  14.719   6.487   6.661
30122SOL    HW292141  14.766   6.343   6.666
30123SOL     OW92142   7.723   1.844  13.136
30123SOL    HW192143   7.660   1.791  13.087
30123SOL    HW292144   7.725   1.928  13.089
30124SOL     OW92145   1.170   8.964   5.044
30124SOL    HW192146   1.252   8.949   4.996
30124SOL    HW292147   1.148   8.878   5.081
30125SOL     OW92148   6.657  13.169  12.352
30125SOL    HW192149   6.617  13.082  12.350
30125SOL    HW292150   6.636  13.208  12.268
30126SOL     OW92151   4.316  13.205  13.949
30126SOL    HW192152   4.276  13.220  13.864
30126SOL    HW292153   4.407  13.234  13.938
30127SOL     OW92154   0.086   9.856  10.807
30127SOL    HW192155   0.017   9.847  10.873
30127SOL    HW292156   0.149   9.787  10.829
30128SOL     OW92157  11.746  13.558   8.636
30128SOL    HW192158  11.840  13.539   8.642
30128SOL    HW292159  11.724  13.540   8.545
30129SOL     OW92160   8.111   0.871  13.358
30129SOL    HW192161   8.043   0.920  13.405
30129SOL    HW292162   8.175   0.937  13.333
30130SOL     OW92163   2.502   4.614   7.057
30130SOL    HW192164   2.411   4.593   7.079
30130SOL    HW292165   2.552   4.536   7.081
30131SOL     OW92166   2.085   1.999   5.341
30131SOL    HW192167   2.178   2.002   5.320
30131SOL    HW292168   2.082   1.998   5.437
30132SOL     OW92169   7.445   6.497   1.066
30132SOL    HW192170   7.453   6.403   1.050
30132SOL    HW292171   7.354   6.509   1.094
30133SOL     OW92172   0.195  10.393   9.227
30133SOL    HW192173   0.255  10.404   9.301
30133SOL    HW292174   0.240  10.333   9.167
30134SOL     OW92175  14.633   4.753  11.557
30134SOL    HW192176  14.662   4.815  11.624
30134SOL    HW292177  14.555   4.712  11.594
30135SOL     OW92178   1.767   4.991   9.577
30135SOL    HW192179   1.761   5.084   9.600
30135SOL    HW292180   1.857   4.980   9.547
30136SOL     OW92181  13.704  14.213   1.912
30136SOL    HW192182  13.674  14.123   1.906
30136SOL    HW292183  13.779  14.218   1.853
30137SOL     OW92184   2.127   6.761   3.192
30137SOL    HW192185   2.194   6.824   3.219
30137SOL    HW292186   2.162   6.676   3.217
30138SOL     OW92187   0.593   9.463   7.731
30138SOL    HW192188   0.629   9.551   7.731
30138SOL    HW292189   0.534   9.461   7.656
30139SOL     OW92190   4.108  10.139   6.476
30139SOL    HW192191   4.098  10.046   6.497
30139SOL    HW292192   4.033  10.159   6.420
30140SOL     OW92193   1.439  12.250   4.013
30140SOL    HW192194   1.502  12.321   3.997
30140SOL    HW292195   1.460  12.218   4.101
30141SOL     OW92196   6.761   3.887  13.585
30141SOL    HW192197   6.731   3.923  13.669
30141SOL    HW292198   6.833   3.828  13.609
30142SOL     OW92199   6.602   1.823   8.716
30142SOL    HW192200   6.651   1.904   8.701
30142SOL    HW292201   6.519   1.836   8.670
30143SOL     OW92202   6.857   0.798  12.724
30143SOL    HW192203   6.850   0.894  12.729
30143SOL    HW292204   6.779   0.765  12.768
30144SOL     OW92205   4.119   5.726   7.518
30144SOL    HW192206   4.199   5.684   7.483
30144SOL    HW292207   4.133   5.819   7.505
30145SOL     OW92208   0.386  13.697   6.728
30145SOL    HW192209   0.308  13.644   6.740
30145SOL    HW292210   0.418  13.714   6.817
30146SOL     OW92211   5.507   6.144  12.377
30146SOL    HW192212   5.598   6.114  12.375
30146SOL    HW292213   5.503   6.206  12.449
30147SOL     OW92214   2.523   1.108   9.150
30147SOL    HW192215   2.474   1.057   9.215
30147SOL    HW292216   2.481   1.194   9.150
30148SOL     OW92217   3.072   1.204  14.292
30148SOL    HW192218   3.058   1.111  14.311
30148SOL    HW292219   3.109   1.205  14.204
30149SOL     OW92220   8.503   5.918   1.091
30149SOL    HW192221   8.436   5.986   1.095
30149SOL    HW292222   8.512   5.900   0.998
30150SOL     OW92223  10.688   1.760   0.079
30150SOL    HW192224  10.769   1.711   0.092
30150SOL    HW292225  10.628   1.699   0.035
30151SOL     OW92226   5.861  12.186   6.909
30151SOL    HW192227   5.853  12.281   6.915
30151SOL    HW292228   5.945  12.172   6.865
30152SOL     OW92229   3.415   6.263   6.480
30152SOL    HW192230   3.493   6.270   6.425
30152SOL    HW292231   3.354   6.327   6.443
30153SOL     OW92232   7.776  10.969  10.673
30153SOL    HW192233   7.833  10.932  10.740
30153SOL    HW292234   7.756  11.058  10.704
30154SOL     OW92235   7.906   2.232  13.116
30154SOL    HW192236   7.916   2.300  13.183
30154SOL    HW292237   7.923   2.277  13.034
30155SOL     OW92238   3.065   8.442   3.409
30155SOL    HW192239   3.144   8.388   3.409
30155SOL    HW292240   3.004   8.396   3.351
30156SOL     OW92241   7.516   4.876   7.112
30156SOL    HW192242   7.468   4.953   7.144
30156SOL    HW292243   7.600   4.910   7.084
30157SOL     OW92244   5.991   1.272   6.296
30157SOL    HW192245   6.005   1.204   6.363
30157SOL    HW292246   6.014   1.229   6.213
30158SOL     OW92247   1.226   4.246   9.235
30158SOL    HW192248   1.259   4.167   9.280
30158SOL    HW292249   1.254   4.235   9.144
30159SOL     OW92250  12.634   9.284   0.300
30159SOL    HW192251  12.575   9.234   0.356
30159SOL    HW292252  12.612   9.255   0.211
30160SOL     OW92253  14.080  11.254  14.503
30160SOL    HW192254  14.173  11.277  14.502
30160SOL    HW292255  14.043  11.308  14.572
30161SOL     OW92256   3.748   9.239   6.427
30161SOL    HW192257   3.719   9.149   6.411
30161SOL    HW292258   3.752   9.279   6.341
30162SOL     OW92259   0.210   0.718  10.079
30162SOL    HW192260   0.305   0.720  10.067
30162SOL    HW292261   0.176   0.765  10.003
30163SOL     OW92262   7.406   3.934  10.144
30163SOL    HW192263   7.430   3.887  10.225
30163SOL    HW292264   7.314   3.911  10.129
30164SOL     OW92265   6.945   7.755   6.782
30164SOL    HW192266   6.903   7.709   6.709
30164SOL    HW292267   7.028   7.786   6.746
30165SOL     OW92268  13.940   5.354   8.811
30165SOL    HW192269  13.896   5.288   8.865
30165SOL    HW292270  14.000   5.303   8.756
30166SOL     OW92271   3.556   5.470   4.288
30166SOL    HW192272   3.645   5.435   4.284
30166SOL    HW292273   3.526   5.447   4.376
30167SOL     OW92274   5.297   2.446   2.578
30167SOL    HW192275   5.238   2.501   2.525
30167SOL    HW292276   5.239   2.402   2.640
30168SOL     OW92277   1.597   0.518   7.115
30168SOL    HW192278   1.590   0.612   7.097
30168SOL    HW292279   1.512   0.495   7.154
30169SOL     OW92280   2.449  11.113   5.169
30169SOL    HW192281   2.422  11.104   5.260
30169SOL    HW292282   2.431  11.205   5.147
30170SOL     OW92283   5.429   8.201  10.830
30170SOL    HW192284   5.417   8.269  10.764
30170SOL    HW292285   5.365   8.222  10.898
30171SOL     OW92286  13.432  13.518   2.427
30171SOL    HW192287  13.396  13.536   2.340
30171SOL    HW292288  13.492  13.591   2.443
30172SOL     OW92289   2.657  13.383   9.882
30172SOL    HW192290   2.647  13.453   9.947
30172SOL    HW292291   2.650  13.428   9.798
30173SOL     OW92292   1.825   6.862   7.507
30173SOL    HW192293   1.787   6.800   7.569
30173SOL    HW292294   1.914   6.877   7.540
30174SOL     OW92295  14.115   7.855   6.767
30174SOL    HW192296  14.165   7.870   6.847
30174SOL    HW292297  14.170   7.796   6.716
30175SOL     OW92298   8.326   0.022   9.803
30175SOL    HW192299   8.377  14.821   9.819
30175SOL    HW292300   8.391   0.091   9.788
30176SOL     OW92301  10.356   6.081   3.788
30176SOL    HW192302  10.268   6.118   3.779
30176SOL    HW292303  10.342   5.986   3.792
30177SOL     OW92304   0.889  11.675   4.677
30177SOL    HW192305   0.826  11.623   4.727
30177SOL    HW292306   0.857  11.672   4.587
30178SOL     OW92307   7.089  12.982   6.120
30178SOL    HW192308   7.142  13.027   6.054
30178SOL    HW292309   7.142  12.907   6.147
30179SOL     OW92310   8.608  11.657   3.118
30179SOL    HW192311   8.544  11.684   3.185
30179SOL    HW292312   8.692  11.659   3.164
30180SOL     OW92313   4.073   7.653   6.764
30180SOL    HW192314   4.149   7.611   6.724
30180SOL    HW292315   4.066   7.613   6.851
30181SOL     OW92316  13.686   7.444   9.350
30181SOL    HW192317  13.719   7.526   9.314
30181SOL    HW292318  13.764   7.401   9.386
30182SOL     OW92319   0.043   9.176  12.716
30182SOL    HW192320   0.074   9.248  12.772
30182SOL    HW292321   0.027   9.217  12.631
30183SOL     OW92322   8.460  14.654  14.489
30183SOL    HW192323   8.443  14.601  14.411
30183SOL    HW292324   8.391  14.630  14.550
30184SOL     OW92325   0.159  14.400  12.756
30184SOL    HW192326   0.067  14.395  12.782
30184SOL    HW292327   0.162  14.356  12.671
30185SOL     OW92328  13.911  11.541  12.114
30185SOL    HW192329  14.005  11.539  12.095
30185SOL    HW292330  13.905  11.524  12.208
30186SOL     OW92331   7.191   4.699  12.142
30186SOL    HW192332   7.173   4.761  12.213
30186SOL    HW292333   7.112   4.645  12.138
30187SOL     OW92334   7.680   2.186   3.723
30187SOL    HW192335   7.662   2.160   3.632
30187SOL    HW292336   7.631   2.267   3.735
30188SOL     OW92337   3.726   6.270  10.639
30188SOL    HW192338   3.765   6.337  10.695
30188SOL    HW292339   3.798   6.243  10.581
30189SOL     OW92340   7.541   9.437   5.702
30189SOL    HW192341   7.629   9.400   5.715
30189SOL    HW292342   7.512   9.460   5.790
30190SOL     OW92343   7.650   1.565   9.179
30190SOL    HW192344   7.649   1.469   9.172
30190SOL    HW292345   7.562   1.588   9.206
30191SOL     OW92346   6.210   6.467  10.289
30191SOL    HW192347   6.208   6.552  10.332
30191SOL    HW292348   6.217   6.487  10.195
30192SOL     OW92349   7.521   0.553  10.787
30192SOL    HW192350   7.432   0.528  10.814
30192SOL    HW292351   7.508   0.598  10.704
30193SOL     OW92352   7.654   4.898   6.348
30193SOL    HW192353   7.560   4.911   6.340
30193SOL    HW292354   7.690   4.939   6.269
30194SOL     OW92355   4.235  11.902   4.634
30194SOL    HW192356   4.279  11.972   4.585
30194SOL    HW292357   4.188  11.852   4.568
30195SOL     OW92358   4.167   7.255  12.949
30195SOL    HW192359   4.131   7.276  12.863
30195SOL    HW292360   4.105   7.294  13.011
30196SOL     OW92361  11.234  11.117  14.052
30196SOL    HW192362  11.159  11.148  14.002
30196SOL    HW292363  11.293  11.080  13.987
30197SOL     OW92364   7.620   9.438   6.366
30197SOL    HW192365   7.536   9.483   6.357
30197SOL    HW292366   7.637   9.437   6.460
30198SOL     OW92367  10.375  10.609   2.920
30198SOL    HW192368  10.311  10.655   2.975
30198SOL    HW292369  10.342  10.519   2.916
30199SOL     OW92370  11.619   7.612   6.859
30199SOL    HW192371  11.537   7.570   6.832
30199SOL    HW292372  11.673   7.612   6.780
30200SOL     OW92373   0.355  14.326  12.948
30200SOL    HW192374   0.338  14.236  12.977
30200SOL    HW292375   0.285  14.344  12.885
30201SOL     OW92376   5.068   3.476   9.198
30201SOL    HW192377   5.089   3.514   9.283
30201SOL    HW292378   4.974   3.490   9.188
30202SOL     OW92379   6.182   9.776   4.321
30202SOL    HW192380   6.154   9.737   4.238
30202SOL    HW292381   6.268   9.737   4.338
30203SOL     OW92382  10.869  11.303  12.483
30203SOL    HW192383  10.897  11.291  12.392
30203SOL    HW292384  10.828  11.390  12.484
30204SOL     OW92385   5.093   7.441  10.793
30204SOL    HW192386   5.086   7.486  10.878
30204SOL    HW292387   5.009   7.397  10.783
30205SOL     OW92388  13.182   6.646   0.256
30205SOL    HW192389  13.269   6.614   0.231
30205SOL    HW292390  13.193   6.741   0.264
30206SOL     OW92391   5.270   5.609   3.710
30206SOL    HW192392   5.185   5.565   3.717
30206SOL    HW292393   5.330   5.554   3.760
30207SOL     OW92394  13.836   8.507  14.783
30207SOL    HW192395  13.926   8.507  14.814
30207SOL    HW292396  13.831   8.433  14.722
30208SOL     OW92397   2.985  12.449   6.472
30208SOL    HW192398   3.058  12.423   6.528
30208SOL    HW292399   2.909  12.407   6.512
30209SOL     OW92400   2.461   2.838   8.498
30209SOL    HW192401   2.465   2.884   8.414
30209SOL    HW292402   2.477   2.907   8.563
30210SOL     OW92403   1.533  13.330  11.378
30210SOL    HW192404   1.628  13.342  11.367
30210SOL    HW292405   1.508  13.270  11.307
30211SOL     OW92406   6.216  11.478   3.812
30211SOL    HW192407   6.173  11.488   3.727
30211SOL    HW292408   6.295  11.427   3.793
30212SOL     OW92409  10.905   7.117  11.617
30212SOL    HW192410  10.946   7.050  11.672
30212SOL    HW292411  10.902   7.195  11.673
30213SOL     OW92412  12.799   2.221  13.735
30213SOL    HW192413  12.766   2.144  13.688
30213SOL    HW292414  12.891   2.200  13.753
30214SOL     OW92415   1.233  12.989  11.038
30214SOL    HW192416   1.198  12.928  11.102
30214SOL    HW292417   1.285  13.051  11.091
30215SOL     OW92418   1.310   1.139   3.273
30215SOL    HW192419   1.244   1.123   3.205
30215SOL    HW292420   1.393   1.114   3.233
30216SOL     OW92421   8.009   3.176  13.105
30216SOL    HW192422   8.032   3.101  13.051
30216SOL    HW292423   8.083   3.236  13.096
30217SOL     OW92424   9.194  14.690   4.184
30217SOL    HW192425   9.110  14.645   4.183
30217SOL    HW292426   9.175  14.776   4.147
30218SOL     OW92427  12.892   1.332   2.521
30218SOL    HW192428  12.895   1.237   2.531
30218SOL    HW292429  12.879   1.365   2.610
30219SOL     OW92430   3.251   8.509   0.562
30219SOL    HW192431   3.169   8.558   0.564
30219SOL    HW292432   3.228   8.421   0.593
30220SOL     OW92433   2.802   5.290   5.921
30220SOL    HW192434   2.786   5.300   5.827
30220SOL    HW292435   2.791   5.378   5.957
30221SOL     OW92436   4.069   9.418  13.193
30221SOL    HW192437   4.027   9.492  13.150
30221SOL    HW292438   4.008   9.345  13.182
30222SOL     OW92439  14.187   6.701  12.847
30222SOL    HW192440  14.275   6.734  12.834
30222SOL    HW292441  14.135   6.742  12.778
30223SOL     OW92442   5.382   8.619   0.622
30223SOL    HW192443   5.470   8.645   0.596
30223SOL    HW292444   5.370   8.532   0.583
30224SOL     OW92445   8.796   3.532   2.251
30224SOL    HW192446   8.866   3.529   2.186
30224SOL    HW292447   8.834   3.494   2.330
30225SOL     OW92448   7.615  14.436   7.025
30225SOL    HW192449   7.601  14.526   7.053
30225SOL    HW292450   7.630  14.387   7.106
30226SOL     OW92451   7.323  12.043  11.300
30226SOL    HW192452   7.233  12.013  11.288
30226SOL    HW292453   7.324  12.132  11.263
30227SOL     OW92454  12.211  12.036   6.274
30227SOL    HW192455  12.142  11.971   6.263
30227SOL    HW292456  12.216  12.051   6.368
30228SOL     OW92457   7.429   6.256   6.982
30228SOL    HW192458   7.370   6.318   6.939
30228SOL    HW292459   7.513   6.301   6.983
30229SOL     OW92460   1.316  12.763   9.788
30229SOL    HW192461   1.241  12.726   9.834
30229SOL    HW292462   1.280  12.839   9.743
30230SOL     OW92463   5.941  14.524   3.163
30230SOL    HW192464   5.909  14.472   3.237
30230SOL    HW292465   6.021  14.565   3.196
30231SOL     OW92466  10.611   1.217   9.399
30231SOL    HW192467  10.701   1.211   9.429
30231SOL    HW292468  10.575   1.130   9.412
30232SOL     OW92469   6.694   3.309  12.268
30232SOL    HW192470   6.745   3.376  12.315
30232SOL    HW292471   6.748   3.287  12.192
30233SOL     OW92472   1.504   8.794   6.447
30233SOL    HW192473   1.484   8.746   6.367
30233SOL    HW292474   1.600   8.793   6.453
30234SOL     OW92475   0.600  13.487   7.246
30234SOL    HW192476   0.695  13.480   7.232
30234SOL    HW292477   0.590  13.562   7.304
30235SOL     OW92478   0.037  12.801  10.093
30235SOL    HW192479  14.829  12.838  10.072
30235SOL    HW292480   0.025  12.760  10.179
30236SOL     OW92481  11.945   9.504   1.546
30236SOL    HW192482  12.014   9.509   1.612
30236SOL    HW292483  11.948   9.413   1.516
30237SOL     OW92484   3.483   4.568  10.850
30237SOL    HW192485   3.438   4.555  10.767
30237SOL    HW292486   3.575   4.579  10.827
30238SOL     OW92487   1.861   5.319  10.804
30238SOL    HW192488   1.927   5.273  10.856
30238SOL    HW292489   1.821   5.380  10.866
30239SOL     OW92490  12.905   5.069   2.194
30239SOL    HW192491  12.960   5.146   2.178
30239SOL    HW292492  12.958   4.995   2.167
30240SOL     OW92493   6.975   0.478  13.660
30240SOL    HW192494   7.004   0.510  13.746
30240SOL    HW292495   6.901   0.420  13.680
30241SOL     OW92496   5.733  11.150   4.123
30241SOL    HW192497   5.705  11.224   4.070
30241SOL    HW292498   5.828  11.156   4.125
30242SOL     OW92499   2.460   5.175   8.387
30242SOL    HW192500   2.474   5.172   8.482
30242SOL    HW292501   2.446   5.084   8.361
30243SOL     OW92502   9.869   5.817   5.624
30243SOL    HW192503   9.904   5.766   5.550
30243SOL    HW292504   9.792   5.860   5.588
30244SOL     OW92505   3.569  11.511   8.433
30244SOL    HW192506   3.635  11.572   8.466
30244SOL    HW292507   3.573  11.436   8.493
30245SOL     OW92508  13.646  14.671   8.788
30245SOL    HW192509  13.578  14.669   8.855
30245SOL    HW292510  13.628  14.751   8.738
30246SOL     OW92511   0.135   2.918   2.002
30246SOL    HW192512   0.147   2.920   2.097
30246SOL    HW292513   0.223   2.929   1.967
30247SOL     OW92514   4.627   3.370   5.519
30247SOL    HW192515   4.537   3.343   5.500
30247SOL    HW292516   4.681   3.296   5.490
30248SOL     OW92517   2.900   5.113   2.804
30248SOL    HW192518   2.809   5.111   2.834
30248SOL    HW292519   2.944   5.049   2.860
30249SOL     OW92520   0.541   8.665  14.624
30249SOL    HW192521   0.545   8.621  14.539
30249SOL    HW292522   0.597   8.613  14.681
30250SOL     OW92523   0.125   1.751  11.328
30250SOL    HW192524   0.209   1.705  11.319
30250SOL    HW292525   0.145   1.841  11.302
30251SOL     OW92526   2.300   1.540  14.826
30251SOL    HW192527   2.321   1.454  14.862
30251SOL    HW292528   2.328   1.535  14.735
30252SOL     OW92529  14.409   7.391   9.757
30252SOL    HW192530  14.471   7.402   9.686
30252SOL    HW292531  14.435   7.309   9.800
30253SOL     OW92532   0.349   5.486   0.998
30253SOL    HW192533   0.289   5.538   1.052
30253SOL    HW292534   0.294   5.452   0.927
30254SOL     OW92535   1.904   3.663  14.479
30254SOL    HW192536   1.989   3.699  14.452
30254SOL    HW292537   1.866   3.629  14.397
30255SOL     OW92538   8.994  10.263   9.639
30255SOL    HW192539   8.912  10.305   9.666
30255SOL    HW292540   9.016  10.203   9.711
30256SOL     OW92541   7.981   4.487   0.271
30256SOL    HW192542   7.995   4.489   0.176
30256SOL    HW292543   8.070   4.486   0.308
30257SOL     OW92544  10.255   9.721   5.119
30257SOL    HW192545  10.182   9.767   5.077
30257SOL    HW292546  10.263   9.639   5.071
30258SOL     OW92547  14.385   3.617   4.619
30258SOL    HW192548  14.426   3.670   4.688
30258SOL    HW292549  14.364   3.534   4.662
30259SOL     OW92550   0.397   4.432   6.158
30259SOL    HW192551   0.475   4.458   6.207
30259SOL    HW292552   0.327   4.431   6.223
30260SOL     OW92553   8.688   3.526   5.777
30260SOL    HW192554   8.669   3.439   5.740
30260SOL    HW292555   8.733   3.508   5.859
30261SOL     OW92556   4.259   5.318   1.369
30261SOL    HW192557   4.171   5.351   1.384
30261SOL    HW292558   4.251   5.260   1.293
30262SOL     OW92559  11.855   5.241   8.848
30262SOL    HW192560  11.901   5.159   8.831
30262SOL    HW292561  11.864   5.291   8.766
30263SOL     OW92562   4.542   5.340  13.151
30263SOL    HW192563   4.618   5.366  13.203
30263SOL    HW292564   4.474   5.324  13.215
30264SOL     OW92565   4.163   5.715  14.171
30264SOL    HW192566   4.187   5.805  14.192
30264SOL    HW292567   4.068   5.717  14.164
30265SOL     OW92568  12.570  12.468   1.205
30265SOL    HW192569  12.516  12.402   1.248
30265SOL    HW292570  12.511  12.543   1.191
30266SOL     OW92571   8.412   7.510   0.205
30266SOL    HW192572   8.506   7.516   0.221
30266SOL    HW292573   8.390   7.419   0.224
30267SOL     OW92574   8.448  11.527  10.814
30267SOL    HW192575   8.405  11.444  10.793
30267SOL    HW292576   8.499  11.508  10.893
30268SOL     OW92577  10.656  11.390   9.020
30268SOL    HW192578  10.709  11.418   9.095
30268SOL    HW292579  10.682  11.299   9.006
30269SOL     OW92580   6.626  12.344   4.980
30269SOL    HW192581   6.654  12.420   4.928
30269SOL    HW292582   6.581  12.287   4.917
30270SOL     OW92583  14.479   3.393   9.987
30270SOL    HW192584  14.477   3.298   9.983
30270SOL    HW292585  14.389   3.417  10.010
30271SOL     OW92586   8.987   4.056  12.392
30271SOL    HW192587   8.973   4.075  12.485
30271SOL    HW292588   9.075   4.019  12.388
30272SOL     OW92589   3.127  14.720   7.557
30272SOL    HW192590   3.093  14.791   7.611
30272SOL    HW292591   3.149  14.762   7.473
30273SOL     OW92592  13.666  12.975   4.413
30273SOL    HW192593  13.681  13.067   4.390
30273SOL    HW292594  13.587  12.978   4.468
30274SOL     OW92595   2.670  14.796   7.240
30274SOL    HW192596   2.761  14.776   7.263
30274SOL    HW292597   2.670  14.801   7.144
30275SOL     OW92598   2.081  13.216   5.706
30275SOL    HW192599   2.038  13.301   5.719
30275SOL    HW292600   2.083  13.177   5.793
30276SOL     OW92601   2.509  12.807   5.424
30276SOL    HW192602   2.454  12.783   5.498
30276SOL    HW292603   2.491  12.740   5.358
30277SOL     OW92604   4.828   8.872   0.184
30277SOL    HW192605   4.864   8.960   0.178
30277SOL    HW292606   4.740   8.884   0.219
30278SOL     OW92607   9.257   7.392   9.927
30278SOL    HW192608   9.176   7.397   9.875
30278SOL    HW292609   9.327   7.389   9.862
30279SOL     OW92610  14.473  14.163   0.267
30279SOL    HW192611  14.501  14.078   0.301
30279SOL    HW292612  14.553  14.217   0.269
30280SOL     OW92613  11.950  13.588   3.206
30280SOL    HW192614  11.994  13.520   3.256
30280SOL    HW292615  12.011  13.610   3.136
30281SOL     OW92616   0.368   2.386   8.943
30281SOL    HW192617   0.284   2.350   8.973
30281SOL    HW292618   0.357   2.481   8.948
30282SOL     OW92619   8.378  10.796  12.964
30282SOL    HW192620   8.352  10.863  12.901
30282SOL    HW292621   8.384  10.715  12.912
30283SOL     OW92622  12.720   6.062  14.568
30283SOL    HW192623  12.708   5.969  14.550
30283SOL    HW292624  12.796   6.088  14.516
30284SOL     OW92625   4.293   2.218   9.916
30284SOL    HW192626   4.370   2.180   9.957
30284SOL    HW292627   4.220   2.187   9.969
30285SOL     OW92628   3.082   5.669  12.963
30285SOL    HW192629   3.111   5.646  13.052
30285SOL    HW292630   3.145   5.626  12.905
30286SOL     OW92631   5.998   1.924  10.361
30286SOL    HW192632   6.064   1.993  10.358
30286SOL    HW292633   6.042   1.850  10.402
30287SOL     OW92634   2.071   3.238  11.985
30287SOL    HW192635   2.017   3.228  11.906
30287SOL    HW292636   2.052   3.326  12.016
30288SOL     OW92637   2.800  13.776   7.158
30288SOL    HW192638   2.746  13.720   7.213
30288SOL    HW292639   2.744  13.850   7.135
30289SOL     OW92640   5.626   6.747   3.501
30289SOL    HW192641   5.555   6.811   3.501
30289SOL    HW292642   5.705   6.797   3.481
30290SOL     OW92643  10.023   7.823  11.513
30290SOL    HW192644  10.000   7.758  11.447
30290SOL    HW292645   9.941   7.838  11.561
30291SOL     OW92646  11.506   5.149  14.821
30291SOL    HW192647  11.524   5.091  14.748
30291SOL    HW292648  11.496   5.236  14.781
30292SOL     OW92649   3.161  12.646   1.238
30292SOL    HW192650   3.237  12.647   1.180
30292SOL    HW292651   3.101  12.584   1.197
30293SOL     OW92652   1.173  10.168  11.461
30293SOL    HW192653   1.112  10.179  11.388
30293SOL    HW292654   1.253  10.133  11.421
30294SOL     OW92655   2.280   6.373   0.418
30294SOL    HW192656   2.238   6.343   0.338
30294SOL    HW292657   2.303   6.464   0.402
30295SOL     OW92658   2.680   2.390   7.940
30295SOL    HW192659   2.648   2.310   7.981
30295SOL    HW292660   2.717   2.441   8.012
30296SOL     OW92661   2.521   2.514  11.753
30296SOL    HW192662   2.600   2.483  11.798
30296SOL    HW292663   2.460   2.441  11.759
30297SOL     OW92664   3.843  11.333  14.860
30297SOL    HW192665   3.914  11.326  14.797
30297SOL    HW292666   3.840  11.247   0.024
30298SOL     OW92667  11.502   6.455   3.256
30298SOL    HW192668  11.485   6.538   3.210
30298SOL    HW292669  11.416   6.414   3.264
30299SOL     OW92670   1.353  11.926   6.129
30299SOL    HW192671   1.414  11.868   6.085
30299SOL    HW292672   1.372  12.013   6.093
30300SOL     OW92673   8.309   0.276   7.764
30300SOL    HW192674   8.349   0.278   7.851
30300SOL    HW292675   8.286   0.185   7.749
30301SOL     OW92676   2.997   1.662  13.333
30301SOL    HW192677   2.956   1.655  13.247
30301SOL    HW292678   3.003   1.571  13.364
30302SOL     OW92679   0.343   2.198   3.478
30302SOL    HW192680   0.349   2.247   3.396
30302SOL    HW292681   0.420   2.226   3.528
30303SOL     OW92682   9.160  11.785   0.061
30303SOL    HW192683   9.065  11.772   0.061
30303SOL    HW292684   9.177  11.838   0.140
30304SOL     OW92685  12.784   6.579   1.074
30304SOL    HW192686  12.700   6.576   1.119
30304SOL    HW292687  12.774   6.520   0.999
30305SOL     OW92688  14.289  14.248   2.932
30305SOL    HW192689  14.254  14.306   2.864
30305SOL    HW292690  14.383  14.268   2.935
30306SOL     OW92691  14.438  13.770   9.695
30306SOL    HW192692  14.490  13.850   9.704
30306SOL    HW292693  14.417  13.765   9.602
30307SOL     OW92694   4.160   0.198   6.708
30307SOL    HW192695   4.251   0.187   6.681
30307SOL    HW292696   4.161   0.274   6.767
30308SOL     OW92697   5.144   5.768  10.627
30308SOL    HW192698   5.228   5.777  10.583
30308SOL    HW292699   5.164   5.778  10.720
30309SOL     OW92700  12.551  13.601   3.513
30309SOL    HW192701  12.464  13.563   3.500
30309SOL    HW292702  12.611  13.527   3.503
30310SOL     OW92703   3.603  11.467  14.786
30310SOL    HW192704   3.631  11.511  14.705
30310SOL    HW292705   3.657  11.389  14.790
30311SOL     OW92706   9.999   1.312   7.227
30311SOL    HW192707  10.045   1.247   7.281
30311SOL    HW292708  10.066   1.346   7.168
30312SOL     OW92709   6.123   1.518  10.079
30312SOL    HW192710   6.075   1.472  10.147
30312SOL    HW292711   6.081   1.492   9.998
30313SOL     OW92712   8.394   9.243  11.614
30313SOL    HW192713   8.319   9.195  11.650
30313SOL    HW292714   8.415   9.197  11.532
30314SOL     OW92715   1.106  13.913   5.001
30314SOL    HW192716   1.038  13.926   4.934
30314SOL    HW292717   1.151  13.997   5.006
30315SOL     OW92718  10.015   6.703   6.238
30315SOL    HW192719   9.922   6.708   6.214
30315SOL    HW292720  10.015   6.681   6.331
30316SOL     OW92721   0.950  10.421   2.340
30316SOL    HW192722   0.872  10.467   2.307
30316SOL    HW292723   1.002  10.489   2.382
30317SOL     OW92724   3.058   7.027   9.739
30317SOL    HW192725   3.144   7.020   9.698
30317SOL    HW292726   3.014   7.097   9.691
30318SOL     OW92727   6.855  14.053  13.893
30318SOL    HW192728   6.889  14.038  13.981
30318SOL    HW292729   6.760  14.045  13.901
30319SOL     OW92730  12.513   6.493   0.761
30319SOL    HW192731  12.440   6.554   0.769
30319SOL    HW292732  12.508   6.438   0.839
30320SOL     OW92733   9.034  14.678  13.124
30320SOL    HW192734   8.968  14.646  13.063
30320SOL    HW292735   9.051  14.768  13.096
30321SOL     OW92736   1.325  13.104  11.872
30321SOL    HW192737   1.378  13.026  11.885
30321SOL    HW292738   1.262  13.103  11.944
30322SOL     OW92739   1.640   5.479   3.230
30322SOL    HW192740   1.674   5.497   3.142
30322SOL    HW292741   1.545   5.476   3.219
30323SOL     OW92742   7.327   7.467  12.151
30323SOL    HW192743   7.327   7.516  12.068
30323SOL    HW292744   7.257   7.507  12.203
30324SOL     OW92745  11.029   0.987   0.900
30324SOL    HW192746  11.011   0.984   0.806
30324SOL    HW292747  10.961   1.045   0.936
30325SOL     OW92748  13.700   7.217   4.756
30325SOL    HW192749  13.714   7.277   4.829
30325SOL    HW292750  13.625   7.163   4.782
30326SOL     OW92751  11.994  14.496   4.943
30326SOL    HW192752  12.006  14.405   4.916
30326SOL    HW292753  11.963  14.490   5.033
30327SOL     OW92754   9.519   0.128   6.439
30327SOL    HW192755   9.468   0.207   6.422
30327SOL    HW292756   9.504   0.073   6.362
30328SOL     OW92757  14.699   7.785  13.287
30328SOL    HW192758  14.770   7.849  13.286
30328SOL    HW292759  14.722   7.725  13.358
30329SOL     OW92760   8.328   2.051   1.252
30329SOL    HW192761   8.275   1.979   1.287
30329SOL    HW292762   8.326   2.037   1.157
30330SOL     OW92763  13.309  13.468   9.039
30330SOL    HW192764  13.309  13.384   9.085
30330SOL    HW292765  13.221  13.476   9.003
30331SOL     OW92766  13.833   6.849   1.010
30331SOL    HW192767  13.771   6.854   0.938
30331SOL    HW292768  13.910   6.897   0.979
30332SOL     OW92769  12.991   7.091  13.116
30332SOL    HW192770  12.986   7.023  13.050
30332SOL    HW292771  12.947   7.167  13.076
30333SOL     OW92772  11.358   5.478   3.655
30333SOL    HW192773  11.278   5.427   3.668
30333SOL    HW292774  11.428   5.421   3.687
30334SOL     OW92775   6.133  13.239   4.576
30334SOL    HW192776   6.198  13.293   4.620
30334SOL    HW292777   6.068  13.301   4.543
30335SOL     OW92778  10.289   0.249  13.852
30335SOL    HW192779  10.207   0.205  13.832
30335SOL    HW292780  10.352   0.178  13.865
30336SOL     OW92781  11.488   1.069   7.241
30336SOL    HW192782  11.433   1.018   7.300
30336SOL    HW292783  11.525   1.005   7.181
30337SOL     OW92784   1.107   3.888   6.669
30337SOL    HW192785   1.091   3.980   6.691
30337SOL    HW292786   1.054   3.839   6.733
30338SOL     OW92787   6.450   4.473   4.924
30338SOL    HW192788   6.377   4.413   4.938
30338SOL    HW292789   6.528   4.418   4.929
30339SOL     OW92790  13.567   4.252  10.443
30339SOL    HW192791  13.611   4.207  10.370
30339SOL    HW292792  13.620   4.331  10.457
30340SOL     OW92793   5.276   5.427   2.763
30340SOL    HW192794   5.182   5.444   2.758
30340SOL    HW292795   5.296   5.427   2.857
30341SOL     OW92796   6.371   2.860   3.817
30341SOL    HW192797   6.427   2.937   3.812
30341SOL    HW292798   6.355   2.835   3.726
30342SOL     OW92799  12.382   8.661   9.015
30342SOL    HW192800  12.316   8.602   9.050
30342SOL    HW292801  12.334   8.742   8.995
30343SOL     OW92802   5.382  13.670  10.676
30343SOL    HW192803   5.339  13.731  10.616
30343SOL    HW292804   5.321  13.660  10.748
30344SOL     OW92805   6.387  14.560   4.717
30344SOL    HW192806   6.300  14.543   4.682
30344SOL    HW292807   6.439  14.485   4.687
30345SOL     OW92808  14.702  14.086   7.772
30345SOL    HW192809  14.696  14.129   7.857
30345SOL    HW292810  14.654  14.004   7.783
30346SOL     OW92811   4.496  11.268   5.665
30346SOL    HW192812   4.462  11.347   5.707
30346SOL    HW292813   4.443  11.197   5.700
30347SOL     OW92814   9.193   4.554   0.219
30347SOL    HW192815   9.157   4.535   0.133
30347SOL    HW292816   9.117   4.572   0.274
30348SOL     OW92817   7.274  14.102   3.853
30348SOL    HW192818   7.335  14.035   3.885
30348SOL    HW292819   7.306  14.184   3.891
30349SOL     OW92820   3.906   4.185  14.172
30349SOL    HW192821   3.906   4.231  14.088
30349SOL    HW292822   3.998   4.186  14.199
30350SOL     OW92823   3.857   4.596   7.804
30350SOL    HW192824   3.775   4.548   7.792
30350SOL    HW292825   3.837   4.685   7.774
30351SOL     OW92826   3.475  14.056  14.325
30351SOL    HW192827   3.526  13.981  14.295
30351SOL    HW292828   3.509  14.130  14.274
30352SOL     OW92829  11.493   6.843  14.305
30352SOL    HW192830  11.466   6.932  14.327
30352SOL    HW292831  11.431   6.787  14.351
30353SOL     OW92832  12.303  12.593   0.182
30353SOL    HW192833  12.357  12.588   0.104
30353SOL    HW292834  12.359  12.636   0.247
30354SOL     OW92835   9.519   8.925  13.154
30354SOL    HW192836   9.563   8.888  13.231
30354SOL    HW292837   9.426   8.911  13.171
30355SOL     OW92838   2.875   7.528   4.970
30355SOL    HW192839   2.830   7.452   4.933
30355SOL    HW292840   2.959   7.531   4.925
30356SOL     OW92841   8.106  12.580  14.305
30356SOL    HW192842   8.142  12.624  14.228
30356SOL    HW292843   8.102  12.487  14.281
30357SOL     OW92844   7.539   8.459   7.725
30357SOL    HW192845   7.630   8.440   7.748
30357SOL    HW292846   7.488   8.402   7.781
30358SOL     OW92847   4.680   2.339   3.577
30358SOL    HW192848   4.603   2.283   3.583
30358SOL    HW292849   4.694   2.372   3.666
30359SOL     OW92850   6.545   8.706   1.167
30359SOL    HW192851   6.631   8.680   1.199
30359SOL    HW292852   6.533   8.795   1.202
30360SOL     OW92853   0.987   3.357  12.737
30360SOL    HW192854   1.037   3.424  12.784
30360SOL    HW292855   1.038   3.277  12.749
30361SOL     OW92856   0.213   9.380  13.768
30361SOL    HW192857   0.247   9.302  13.724
30361SOL    HW292858   0.164   9.346  13.842
30362SOL     OW92859   2.914   0.524  12.213
30362SOL    HW192860   2.879   0.496  12.129
30362SOL    HW292861   3.009   0.517  12.203
30363SOL     OW92862   4.626  14.308   1.330
30363SOL    HW192863   4.587  14.339   1.249
30363SOL    HW292864   4.704  14.363   1.342
30364SOL     OW92865   6.140  12.828  12.422
30364SOL    HW192866   6.092  12.911  12.431
30364SOL    HW292867   6.154  12.819  12.328
30365SOL     OW92868  11.628   1.812   4.796
30365SOL    HW192869  11.684   1.883   4.826
30365SOL    HW292870  11.629   1.818   4.701
30366SOL     OW92871  11.526   9.855   2.028
30366SOL    HW192872  11.489   9.767   2.026
30366SOL    HW292873  11.537   9.874   2.121
30367SOL     OW92874  11.037   8.569   6.794
30367SOL    HW192875  10.996   8.483   6.799
30367SOL    HW292876  11.117   8.554   6.742
30368SOL     OW92877   8.695   1.268  10.930
30368SOL    HW192878   8.779   1.301  10.897
30368SOL    HW292879   8.643   1.254  10.851
30369SOL     OW92880   4.687   6.091  13.638
30369SOL    HW192881   4.759   6.043  13.679
30369SOL    HW292882   4.608   6.044  13.665
30370SOL     OW92883   0.906   6.334  13.454
30370SOL    HW192884   0.867   6.418  13.430
30370SOL    HW292885   0.995   6.339  13.420
30371SOL     OW92886   0.300   4.795   6.710
30371SOL    HW192887   0.369   4.779   6.645
30371SOL    HW292888   0.326   4.876   6.753
30372SOL     OW92889   1.006   5.704   2.214
30372SOL    HW192890   1.044   5.791   2.225
30372SOL    HW292891   0.948   5.693   2.289
30373SOL     OW92892  10.936   5.028   9.813
30373SOL    HW192893  10.964   5.003   9.901
30373SOL    HW292894  10.848   4.990   9.804
30374SOL     OW92895   6.215  11.496  13.465
30374SOL    HW192896   6.120  11.497  13.479
30374SOL    HW292897   6.249  11.445  13.538
30375SOL     OW92898  12.525   4.995   8.085
30375SOL    HW192899  12.601   4.956   8.129
30375SOL    HW292900  12.450   4.962   8.134
30376SOL     OW92901   6.008   1.883   3.615
30376SOL    HW192902   5.998   1.879   3.710
30376SOL    HW292903   6.043   1.797   3.591
30377SOL     OW92904  12.129   6.263   5.548
30377SOL    HW192905  12.087   6.313   5.477
30377SOL    HW292906  12.219   6.297   5.550
30378SOL     OW92907   5.633   5.813  13.637
30378SOL    HW192908   5.701   5.763  13.593
30378SOL    HW292909   5.671   5.836  13.722
30379SOL     OW92910  10.724   7.918  10.974
30379SOL    HW192911  10.683   7.900  10.889
30379SOL    HW292912  10.684   8.001  11.002
30380SOL     OW92913   6.930  10.008  12.550
30380SOL    HW192914   6.871  10.015  12.475
30380SOL    HW292915   6.951   9.914  12.555
30381SOL     OW92916   5.406   4.459   4.291
30381SOL    HW192917   5.433   4.399   4.222
30381SOL    HW292918   5.311   4.466   4.282
30382SOL     OW92919   7.206  12.819   9.561
30382SOL    HW192920   7.180  12.729   9.581
30382SOL    HW292921   7.209  12.823   9.466
30383SOL     OW92922  14.072  10.170   3.379
30383SOL    HW192923  14.137  10.112   3.418
30383SOL    HW292924  14.078  10.251   3.430
30384SOL     OW92925   6.685   2.418   0.132
30384SOL    HW192926   6.714   2.498   0.175
30384SOL    HW292927   6.632   2.449   0.058
30385SOL     OW92928  13.180   5.382  13.984
30385SOL    HW192929  13.187   5.380  14.080
30385SOL    HW292930  13.247   5.319  13.955
30386SOL     OW92931  14.691  12.436   1.609
30386SOL    HW192932  14.656  12.489   1.537
30386SOL    HW292933  14.664  12.347   1.589
30387SOL     OW92934  14.298   3.883   5.926
30387SOL    HW192935  14.363   3.813   5.920
30387SOL    HW292936  14.348   3.960   5.950
30388SOL     OW92937   6.216   7.320  14.165
30388SOL    HW192938   6.282   7.337  14.098
30388SOL    HW292939   6.133   7.324  14.118
30389SOL     OW92940  14.382  14.843   5.910
30389SOL    HW192941  14.367  14.757   5.950
30389SOL    HW292942  14.306   0.017   5.937
30390SOL     OW92943   1.731  13.746   9.586
30390SOL    HW192944   1.752  13.697   9.665
30390SOL    HW292945   1.666  13.811   9.615
30391SOL     OW92946   5.055  12.528  12.526
30391SOL    HW192947   5.148  12.551  12.525
30391SOL    HW292948   5.013  12.596  12.474
30392SOL     OW92949  11.967   0.208   3.608
30392SOL    HW192950  11.988   0.291   3.651
30392SOL    HW292951  11.971   0.143   3.678
30393SOL     OW92952   9.829   9.393   6.483
30393SOL    HW192953   9.750   9.436   6.516
30393SOL    HW292954   9.797   9.316   6.436
30394SOL     OW92955   5.376   6.391   3.039
30394SOL    HW192956   5.310   6.334   3.078
30394SOL    HW292957   5.332   6.476   3.032
30395SOL     OW92958  13.554  14.189   2.151
30395SOL    HW192959  13.626  14.218   2.094
30395SOL    HW292960  13.480  14.245   2.126
30396SOL     OW92961   3.171   8.577   0.249
30396SOL    HW192962   3.251   8.627   0.240
30396SOL    HW292963   3.194   8.504   0.307
30397SOL     OW92964  13.388   7.043  11.974
30397SOL    HW192965  13.325   7.105  12.010
30397SOL    HW292966  13.421   7.086  11.895
30398SOL     OW92967   5.724   6.616  14.063
30398SOL    HW192968   5.731   6.547  14.129
30398SOL    HW292969   5.687   6.690  14.110
30399SOL     OW92970  11.446  12.014  10.446
30399SOL    HW192971  11.353  11.993  10.450
30399SOL    HW292972  11.490  11.934  10.476
30400SOL     OW92973   0.469  14.108  13.351
30400SOL    HW192974   0.536  14.148  13.295
30400SOL    HW292975   0.473  14.159  13.432
30401SOL     OW92976   1.641   8.646   3.325
30401SOL    HW192977   1.676   8.584   3.388
30401SOL    HW292978   1.546   8.645   3.340
30402SOL     OW92979  13.608   6.797   0.271
30402SOL    HW192980  13.588   6.877   0.223
30402SOL    HW292981  13.703   6.786   0.261
30403SOL     OW92982  14.504  10.431  10.512
30403SOL    HW192983  14.599  10.418  10.509
30403SOL    HW292984  14.468  10.356  10.465
30404SOL     OW92985  14.467   0.554   6.882
30404SOL    HW192986  14.380   0.528   6.912
30404SOL    HW292987  14.472   0.519   6.793
30405SOL     OW92988   9.769   3.199   8.720
30405SOL    HW192989   9.847   3.178   8.771
30405SOL    HW292990   9.700   3.146   8.760
30406SOL     OW92991  13.986  10.500  14.747
30406SOL    HW192992  14.061  10.441  14.747
30406SOL    HW292993  13.938  10.479  14.667
30407SOL     OW92994   2.324  13.548  12.147
30407SOL    HW192995   2.387  13.511  12.208
30407SOL    HW292996   2.374  13.613  12.097
30408SOL     OW92997   7.837   6.683  12.270
30408SOL    HW192998   7.867   6.683  12.361
30408SOL    HW292999   7.879   6.759  12.231
30409SOL     OW93000   0.444   1.380  14.448
30409SOL    HW193001   0.522   1.332  14.477
30409SOL    HW293002   0.462   1.471  14.471
30410SOL     OW93003   2.879  13.812   5.490
30410SOL    HW193004   2.818  13.769   5.550
30410SOL    HW293005   2.894  13.748   5.420
30411SOL     OW93006   0.530   7.513  13.232
30411SOL    HW193007   0.517   7.527  13.326
30411SOL    HW293008   0.448   7.541  13.192
30412SOL     OW93009   5.502   3.407   2.975
30412SOL    HW193010   5.448   3.331   2.996
30412SOL    HW293011   5.576   3.401   3.035
30413SOL     OW93012   3.578   5.724   8.001
30413SOL    HW193013   3.602   5.782   8.072
30413SOL    HW293014   3.596   5.775   7.921
30414SOL     OW93015   5.798   8.648   8.549
30414SOL    HW193016   5.799   8.709   8.623
30414SOL    HW293017   5.845   8.694   8.480
30415SOL     OW93018   2.874   4.220   6.285
30415SOL    HW193019   2.846   4.301   6.242
30415SOL    HW293020   2.955   4.196   6.239
30416SOL     OW93021  14.294   0.350   8.862
30416SOL    HW193022  14.249   0.432   8.840
30416SOL    HW293023  14.244   0.282   8.816
30417SOL     OW93024   1.019   3.544   0.823
30417SOL    HW193025   0.988   3.634   0.826
30417SOL    HW293026   1.040   3.529   0.730
30418SOL     OW93027   2.521   7.972  12.396
30418SOL    HW193028   2.598   7.925  12.366
30418SOL    HW293029   2.545   8.065  12.389
30419SOL     OW93030   1.121   7.644   7.184
30419SOL    HW193031   1.194   7.604   7.137
30419SOL    HW293032   1.092   7.715   7.126
30420SOL     OW93033   0.257   0.409   9.598
30420SOL    HW193034   0.310   0.334   9.572
30420SOL    HW293035   0.316   0.484   9.586
30421SOL     OW93036   4.559   8.603   0.271
30421SOL    HW193037   4.535   8.511   0.284
30421SOL    HW293038   4.475   8.649   0.272
30422SOL     OW93039   9.099   5.922   5.554
30422SOL    HW193040   9.046   5.843   5.542
30422SOL    HW293041   9.189   5.892   5.552
30423SOL     OW93042   8.764  12.212   6.741
30423SOL    HW193043   8.788  12.132   6.694
30423SOL    HW293044   8.837  12.272   6.725
30424SOL     OW93045   3.333  13.305   2.365
30424SOL    HW193046   3.274  13.380   2.377
30424SOL    HW293047   3.412  13.328   2.415
30425SOL     OW93048  13.121  14.094   3.757
30425SOL    HW193049  13.163  14.086   3.843
30425SOL    HW293050  13.187  14.136   3.702
30426SOL     OW93051   5.323   0.597  10.765
30426SOL    HW193052   5.309   0.503  10.779
30426SOL    HW293053   5.269   0.618  10.688
30427SOL     OW93054   9.992   4.700  11.943
30427SOL    HW193055   9.910   4.658  11.917
30427SOL    HW293056  10.024   4.742  11.864
30428SOL     OW93057  11.903   6.908   3.016
30428SOL    HW193058  11.960   6.837   3.045
30428SOL    HW293059  11.961   6.983   3.004
30429SOL     OW93060   3.109   9.587   9.592
30429SOL    HW193061   3.075   9.565   9.679
30429SOL    HW293062   3.204   9.579   9.600
30430SOL     OW93063  10.146   6.989   3.464
30430SOL    HW193064  10.133   6.917   3.402
30430SOL    HW293065  10.121   6.951   3.549
30431SOL     OW93066  11.621   0.433   5.955
30431SOL    HW193067  11.712   0.406   5.967
30431SOL    HW293068  11.614   0.453   5.862
30432SOL     OW93069   3.374   6.477   8.884
30432SOL    HW193070   3.352   6.538   8.955
30432SOL    HW293071   3.461   6.504   8.855
30433SOL     OW93072   2.374   5.139   0.548
30433SOL    HW193073   2.279   5.129   0.562
30433SOL    HW293074   2.383   5.145   0.453
30434SOL     OW93075   7.896   5.632  10.764
30434SOL    HW193076   7.871   5.648  10.855
30434SOL    HW293077   7.991   5.641  10.764
30435SOL     OW93078   0.733  11.207   2.641
30435SOL    HW193079   0.699  11.217   2.730
30435SOL    HW293080   0.660  11.232   2.585
30436SOL     OW93081   4.780  10.297  10.625
30436SOL    HW193082   4.686  10.283  10.629
30436SOL    HW293083   4.792  10.390  10.646
30437SOL     OW93084   6.164   2.735   7.550
30437SOL    HW193085   6.248   2.776   7.529
30437SOL    HW293086   6.103   2.773   7.487
30438SOL     OW93087   8.073   4.398  10.476
30438SOL    HW193088   8.063   4.431  10.565
30438SOL    HW293089   8.164   4.371  10.470
30439SOL     OW93090   6.485   7.605  13.813
30439SOL    HW193091   6.551   7.617  13.745
30439SOL    HW293092   6.455   7.693  13.834
30440SOL     OW93093  10.135   5.087   0.890
30440SOL    HW193094  10.075   5.095   0.964
30440SOL    HW293095  10.084   5.045   0.822
30441SOL     OW93096   5.248   3.221   5.511
30441SOL    HW193097   5.285   3.251   5.428
30441SOL    HW293098   5.320   3.176   5.555
30442SOL     OW93099  12.121   1.879  12.916
30442SOL    HW193100  12.136   1.785  12.906
30442SOL    HW293101  12.150   1.899  13.005
30443SOL     OW93102   3.324   7.336   5.091
30443SOL    HW193103   3.302   7.243   5.095
30443SOL    HW293104   3.418   7.338   5.074
30444SOL     OW93105  12.450  10.474   3.199
30444SOL    HW193106  12.386  10.544   3.187
30444SOL    HW293107  12.448  10.455   3.292
30445SOL     OW93108  10.802   2.360  12.721
30445SOL    HW193109  10.881   2.314  12.750
30445SOL    HW293110  10.739   2.290  12.703
30446SOL     OW93111   8.997  12.933   2.087
30446SOL    HW193112   8.973  13.021   2.116
30446SOL    HW293113   8.989  12.879   2.166
30447SOL     OW93114  12.531  10.555   5.686
30447SOL    HW193115  12.487  10.616   5.627
30447SOL    HW293116  12.539  10.474   5.634
30448SOL     OW93117   7.484   1.737   8.328
30448SOL    HW193118   7.549   1.707   8.264
30448SOL    HW293119   7.487   1.833   8.321
30449SOL     OW93120   4.947   3.515   3.546
30449SOL    HW193121   4.957   3.591   3.603
30449SOL    HW293122   4.931   3.442   3.605
30450SOL     OW93123   6.800   9.055   9.779
30450SOL    HW193124   6.838   9.087   9.697
30450SOL    HW293125   6.716   9.101   9.786
30451SOL     OW93126   6.870  11.299   7.322
30451SOL    HW193127   6.940  11.274   7.383
30451SOL    HW293128   6.792  11.306   7.376
30452SOL     OW93129   8.231  10.500  13.248
30452SOL    HW193130   8.220  10.593  13.229
30452SOL    HW293131   8.167  10.456  13.192
30453SOL     OW93132   4.131  11.606  10.537
30453SOL    HW193133   4.068  11.544  10.576
30453SOL    HW293134   4.164  11.562  10.460
30454SOL     OW93135   1.200  11.001   9.550
30454SOL    HW193136   1.277  11.050   9.582
30454SOL    HW293137   1.148  11.066   9.503
30455SOL     OW93138  10.268   6.420  11.600
30455SOL    HW193139  10.264   6.408  11.505
30455SOL    HW293140  10.294   6.511  11.611
30456SOL     OW93141   7.526   1.873   6.263
30456SOL    HW193142   7.594   1.864   6.328
30456SOL    HW293143   7.570   1.858   6.179
30457SOL     OW93144   5.696  10.372   3.340
30457SOL    HW193145   5.770  10.349   3.396
30457SOL    HW293146   5.656  10.288   3.316
30458SOL     OW93147   8.096   2.994   9.507
30458SOL    HW193148   8.015   3.044   9.518
30458SOL    HW293149   8.102   2.941   9.586
30459SOL     OW93150   5.663   4.431  12.558
30459SOL    HW193151   5.722   4.355  12.558
30459SOL    HW293152   5.630   4.435  12.468
30460SOL     OW93153   0.064   6.244   4.513
30460SOL    HW193154   0.103   6.219   4.597
30460SOL    HW293155   0.110   6.190   4.448
30461SOL     OW93156  13.117   7.699  14.089
30461SOL    HW193157  13.112   7.662  14.001
30461SOL    HW293158  13.119   7.624  14.147
30462SOL     OW93159   2.482   3.191   6.896
30462SOL    HW193160   2.460   3.146   6.814
30462SOL    HW293161   2.556   3.142   6.932
30463SOL     OW93162   1.200   6.873   8.376
30463SOL    HW193163   1.119   6.919   8.399
30463SOL    HW293164   1.270   6.936   8.391
30464SOL     OW93165   6.184   2.740   5.819
30464SOL    HW193166   6.117   2.772   5.879
30464SOL    HW293167   6.256   2.802   5.829
30465SOL     OW93168   3.974  14.564   0.421
30465SOL    HW193169   3.919  14.610   0.485
30465SOL    HW293170   4.052  14.540   0.470
30466SOL     OW93171   3.197   8.473  14.822
30466SOL    HW193172   3.235   8.547  14.869
30466SOL    HW293173   3.221   8.397  14.874
30467SOL     OW93174   1.476  12.131   5.727
30467SOL    HW193175   1.457  12.039   5.747
30467SOL    HW293176   1.424  12.181   5.790
30468SOL     OW93177   5.985  13.810   5.069
30468SOL    HW193178   5.936  13.757   5.007
30468SOL    HW293179   6.077  13.795   5.046
30469SOL     OW93180   9.480  14.251   0.347
30469SOL    HW193181   9.479  14.253   0.251
30469SOL    HW293182   9.389  14.265   0.372
30470SOL     OW93183   6.013   1.357  10.837
30470SOL    HW193184   6.074   1.364  10.910
30470SOL    HW293185   5.994   1.263  10.831
30471SOL     OW93186   0.111   1.929  13.896
30471SOL    HW193187   0.076   1.939  13.984
30471SOL    HW293188   0.072   2.001  13.846
30472SOL     OW93189   6.328   7.220   4.070
30472SOL    HW193190   6.412   7.261   4.048
30472SOL    HW293191   6.263   7.289   4.055
30473SOL     OW93192   8.592   6.639   9.362
30473SOL    HW193193   8.685   6.652   9.346
30473SOL    HW293194   8.549   6.704   9.306
30474SOL     OW93195  11.430   8.283  10.061
30474SOL    HW193196  11.425   8.377  10.083
30474SOL    HW293197  11.523   8.262  10.067
30475SOL     OW93198   3.000   2.390  12.835
30475SOL    HW193199   3.080   2.377  12.887
30475SOL    HW293200   2.939   2.326  12.871
30476SOL     OW93201   7.785   3.467   1.916
30476SOL    HW193202   7.766   3.373   1.907
30476SOL    HW293203   7.700   3.509   1.906
30477SOL     OW93204   8.750  10.022   9.283
30477SOL    HW193205   8.711   9.955   9.227
30477SOL    HW293206   8.823   9.977   9.326
30478SOL     OW93207   7.946   3.160   4.833
30478SOL    HW193208   7.905   3.246   4.838
30478SOL    HW293209   8.040   3.179   4.830
30479SOL     OW93210  13.107  11.810  10.100
30479SOL    HW193211  13.046  11.875  10.136
30479SOL    HW293212  13.170  11.861  10.050
30480SOL     OW93213   6.994   7.480  13.713
30480SOL    HW193214   7.054   7.552  13.693
30480SOL    HW293215   6.962   7.499  13.801
30481SOL     OW93216   1.708   0.289   5.911
30481SOL    HW193217   1.760   0.249   5.841
30481SOL    HW293218   1.669   0.366   5.870
30482SOL     OW93219   4.494   5.123   5.258
30482SOL    HW193220   4.403   5.150   5.271
30482SOL    HW293221   4.492   5.070   5.178
30483SOL     OW93222   6.816  12.088  12.083
30483SOL    HW193223   6.834  12.172  12.124
30483SOL    HW293224   6.902  12.045  12.077
30484SOL     OW93225  11.808   9.539   8.170
30484SOL    HW193226  11.726   9.585   8.190
30484SOL    HW293227  11.863   9.554   8.248
30485SOL     OW93228  14.635   3.281  10.385
30485SOL    HW193229  14.544   3.256  10.366
30485SOL    HW293230  14.682   3.265  10.303
30486SOL     OW93231   5.430   1.329  14.337
30486SOL    HW193232   5.516   1.286  14.334
30486SOL    HW293233   5.389   1.305  14.254
30487SOL     OW93234   3.032  10.110  10.068
30487SOL    HW193235   2.951  10.067  10.095
30487SOL    HW293236   3.028  10.111   9.972
30488SOL     OW93237   3.619   7.291   2.675
30488SOL    HW193238   3.542   7.261   2.725
30488SOL    HW293239   3.647   7.215   2.625
30489SOL     OW93240  14.803  14.753   6.105
30489SOL    HW193241  14.769  14.830   6.151
30489SOL    HW293242   0.019  14.767   6.100
30490SOL     OW93243   7.119   0.154   0.258
30490SOL    HW193244   7.101   0.230   0.315
30490SOL    HW293245   7.120   0.190   0.170
30491SOL     OW93246   6.741  12.387   3.733
30491SOL    HW193247   6.784  12.473   3.730
30491SOL    HW293248   6.725  12.372   3.827
30492SOL     OW93249   9.290   8.408   4.397
30492SOL    HW193250   9.293   8.487   4.343
30492SOL    HW293251   9.348   8.347   4.352
30493SOL     OW93252   4.542  12.996   4.848
30493SOL    HW193253   4.480  12.923   4.842
30493SOL    HW293254   4.546  13.031   4.759
30494SOL     OW93255   5.154   2.956   8.838
30494SOL    HW193256   5.175   2.898   8.910
30494SOL    HW293257   5.078   2.916   8.796
30495SOL     OW93258   0.478  12.343  12.180
30495SOL    HW193259   0.442  12.414  12.127
30495SOL    HW293260   0.442  12.356  12.267
30496SOL     OW93261   3.446   9.847   3.374
30496SOL    HW193262   3.503   9.920   3.401
30496SOL    HW293263   3.444   9.790   3.451
30497SOL     OW93264  12.043   3.512   1.898
30497SOL    HW193265  12.030   3.466   1.981
30497SOL    HW293266  12.133   3.492   1.874
30498SOL     OW93267  11.767   5.769  12.805
30498SOL    HW193268  11.689   5.715  12.791
30498SOL    HW293269  11.835   5.707  12.829
30499SOL     OW93270   5.495   3.249   8.826
30499SOL    HW193271   5.571   3.284   8.872
30499SOL    HW293272   5.516   3.158   8.809
30500SOL     OW93273   1.219   2.856   3.958
30500SOL    HW193274   1.142   2.833   4.009
30500SOL    HW293275   1.282   2.888   4.023
30501SOL     OW93276  12.977   7.181   6.890
30501SOL    HW193277  12.952   7.273   6.895
30501SOL    HW293278  12.899   7.137   6.856
30502SOL     OW93279  10.620   3.969   4.182
30502SOL    HW193280  10.529   3.942   4.194
30502SOL    HW293281  10.632   4.041   4.244
30503SOL     OW93282  13.642   0.053   4.252
30503SOL    HW193283  13.589   0.109   4.195
30503SOL    HW293284  13.729   0.094   4.251
30504SOL     OW93285   2.742  14.751   0.589
30504SOL    HW193286   2.790  14.728   0.668
30504SOL    HW293287   2.754  14.846   0.580
30505SOL     OW93288  13.842   8.265  13.065
30505SOL    HW193289  13.816   8.339  13.119
30505SOL    HW293290  13.929   8.240  13.097
30506SOL     OW93291   1.892  11.332   1.441
30506SOL    HW193292   1.926  11.395   1.378
30506SOL    HW293293   1.813  11.374   1.476
30507SOL     OW93294   9.700   6.847   5.878
30507SOL    HW193295   9.744   6.917   5.925
30507SOL    HW293296   9.659   6.890   5.803
30508SOL     OW93297   0.439   4.011   3.379
30508SOL    HW193298   0.446   3.926   3.336
30508SOL    HW293299   0.518   4.058   3.351
30509SOL     OW93300  14.713  13.060   2.214
30509SOL    HW193301  14.695  12.970   2.242
30509SOL    HW293302  14.627  13.096   2.192
30510SOL     OW93303  11.557   6.938  14.039
30510SOL    HW193304  11.577   6.890  14.119
30510SOL    HW293305  11.462   6.932  14.030
30511SOL     OW93306   7.741  11.637   8.886
30511SOL    HW193307   7.832  11.664   8.873
30511SOL    HW293308   7.745  11.542   8.895
30512SOL     OW93309   1.548   7.070   8.139
30512SOL    HW193310   1.460   7.055   8.173
30512SOL    HW293311   1.589   7.128   8.203
30513SOL     OW93312   9.990   3.876   4.168
30513SOL    HW193313   9.895   3.862   4.171
30513SOL    HW293314  10.000   3.965   4.135
30514SOL     OW93315  12.472   3.070   0.567
30514SOL    HW193316  12.408   3.125   0.612
30514SOL    HW293317  12.557   3.101   0.599
30515SOL     OW93318   9.229   7.864   1.717
30515SOL    HW193319   9.283   7.943   1.722
30515SOL    HW293320   9.284   7.795   1.754
30516SOL     OW93321  13.532   7.549  10.931
30516SOL    HW193322  13.556   7.484  10.865
30516SOL    HW293323  13.598   7.540  10.999
30517SOL     OW93324   4.519   1.404   6.958
30517SOL    HW193325   4.502   1.394   7.051
30517SOL    HW293326   4.614   1.392   6.949
30518SOL     OW93327   8.319   7.537   3.785
30518SOL    HW193328   8.345   7.539   3.877
30518SOL    HW293329   8.342   7.449   3.756
30519SOL     OW93330  10.216  11.745   1.419
30519SOL    HW193331  10.176  11.734   1.505
30519SOL    HW293332  10.308  11.722   1.432
30520SOL     OW93333   3.120   1.450  12.884
30520SOL    HW193334   3.169   1.487  12.958
30520SOL    HW293335   3.062   1.521  12.857
30521SOL     OW93336   8.245  11.639   0.171
30521SOL    HW193337   8.305  11.632   0.097
30521SOL    HW293338   8.173  11.580   0.149
30522SOL     OW93339   0.657   7.968   7.415
30522SOL    HW193340   0.630   7.946   7.504
30522SOL    HW293341   0.592   8.031   7.385
30523SOL     OW93342   9.042   0.092   9.615
30523SOL    HW193343   9.083   0.166   9.571
30523SOL    HW293344   9.109   0.023   9.612
30524SOL     OW93345  11.254   6.287   1.880
30524SOL    HW193346  11.184   6.342   1.845
30524SOL    HW293347  11.333   6.318   1.836
30525SOL     OW93348   2.958  14.316   3.205
30525SOL    HW193349   2.914  14.332   3.288
30525SOL    HW293350   3.047  14.350   3.218
30526SOL     OW93351   1.509   2.964   5.549
30526SOL    HW193352   1.468   2.933   5.630
30526SOL    HW293353   1.483   2.900   5.483
30527SOL     OW93354   5.879  10.486  12.509
30527SOL    HW193355   5.928  10.525  12.437
30527SOL    HW293356   5.787  10.498  12.485
30528SOL     OW93357   8.767   5.377   0.194
30528SOL    HW193358   8.673   5.371   0.209
30528SOL    HW293359   8.777   5.445   0.128
30529SOL     OW93360   0.472   3.956   2.364
30529SOL    HW193361   0.405   3.898   2.328
30529SOL    HW293362   0.424   4.020   2.417
30530SOL     OW93363   2.763  13.339   6.579
30530SOL    HW193364   2.728  13.315   6.493
30530SOL    HW293365   2.694  13.394   6.618
30531SOL     OW93366   5.361   2.073   0.859
30531SOL    HW193367   5.268   2.090   0.877
30531SOL    HW293368   5.408   2.139   0.910
30532SOL     OW93369   5.189  13.786  12.521
30532SOL    HW193370   5.222  13.873  12.546
30532SOL    HW293371   5.104  13.780  12.563
30533SOL     OW93372   4.626  10.853   7.717
30533SOL    HW193373   4.626  10.886   7.627
30533SOL    HW293374   4.613  10.759   7.707
30534SOL     OW93375   0.475  10.450   8.868
30534SOL    HW193376   0.521  10.407   8.795
30534SOL    HW293377   0.458  10.539   8.836
30535SOL     OW93378  12.213  12.750  13.888
30535SOL    HW193379  12.224  12.660  13.919
30535SOL    HW293380  12.121  12.755  13.862
30536SOL     OW93381   1.902   5.208   5.572
30536SOL    HW193382   1.881   5.301   5.567
30536SOL    HW293383   1.844   5.173   5.639
30537SOL     OW93384   7.616   2.745   3.679
30537SOL    HW193385   7.670   2.792   3.615
30537SOL    HW293386   7.635   2.787   3.762
30538SOL     OW93387   3.267   1.039  10.333
30538SOL    HW193388   3.198   1.049  10.267
30538SOL    HW293389   3.305   1.126  10.342
30539SOL     OW93390   0.211   4.849  10.205
30539SOL    HW193391   0.244   4.937  10.188
30539SOL    HW293392   0.256   4.793  10.141
30540SOL     OW93393   9.389   4.554   2.800
30540SOL    HW193394   9.462   4.615   2.800
30540SOL    HW293395   9.348   4.565   2.714
30541SOL     OW93396   6.820   8.408   6.683
30541SOL    HW193397   6.745   8.446   6.729
30541SOL    HW293398   6.782   8.335   6.633
30542SOL     OW93399  14.841  12.516  11.687
30542SOL    HW193400  14.765  12.468  11.654
30542SOL    HW293401  14.830  12.605  11.653
30543SOL     OW93402   1.909  13.589   6.900
30543SOL    HW193403   1.913  13.677   6.938
30543SOL    HW293404   1.816  13.573   6.886
30544SOL     OW93405   4.424  13.870  13.149
30544SOL    HW193406   4.438  13.922  13.070
30544SOL    HW293407   4.329  13.866  13.158
30545SOL     OW93408  13.045   6.052  13.007
30545SOL    HW193409  13.105   6.051  13.081
30545SOL    HW293410  12.978   6.116  13.031
30546SOL     OW93411   9.779  11.691   8.174
30546SOL    HW193412   9.728  11.734   8.242
30546SOL    HW293413   9.847  11.643   8.222
30547SOL     OW93414   5.853  14.392  13.690
30547SOL    HW193415   5.817  14.425  13.773
30547SOL    HW293416   5.778  14.353  13.645
30548SOL     OW93417   6.468   7.530   3.376
30548SOL    HW193418   6.509   7.596   3.320
30548SOL    HW293419   6.402   7.579   3.425
30549SOL     OW93420  11.237   7.914   6.427
30549SOL    HW193421  11.254   7.859   6.502
30549SOL    HW293422  11.174   7.980   6.458
30550SOL     OW93423   6.546   2.532   4.042
30550SOL    HW193424   6.608   2.462   4.059
30550SOL    HW293425   6.600   2.609   4.026
30551SOL     OW93426   2.307   9.393  14.512
30551SOL    HW193427   2.377   9.352  14.562
30551SOL    HW293428   2.339   9.482  14.494
30552SOL     OW93429   8.541   6.534   6.710
30552SOL    HW193430   8.513   6.574   6.628
30552SOL    HW293431   8.609   6.472   6.684
30553SOL     OW93432   8.242  12.419  11.572
30553SOL    HW193433   8.265  12.328  11.557
30553SOL    HW293434   8.207  12.421  11.661
30554SOL     OW93435   3.867   3.974   4.465
30554SOL    HW193436   3.863   4.035   4.391
30554SOL    HW293437   3.914   4.021   4.533
30555SOL     OW93438   1.533   5.804  13.644
30555SOL    HW193439   1.597   5.769  13.707
30555SOL    HW293440   1.585   5.821  13.565
30556SOL     OW93441   7.066  13.642   0.579
30556SOL    HW193442   7.030  13.729   0.562
30556SOL    HW293443   7.150  13.658   0.621
30557SOL     OW93444  10.669   3.174   0.547
30557SOL    HW193445  10.719   3.100   0.514
30557SOL    HW293446  10.724   3.212   0.616
30558SOL     OW93447   9.369  13.158   7.670
30558SOL    HW193448   9.355  13.166   7.576
30558SOL    HW293449   9.453  13.113   7.678
30559SOL     OW93450   7.884   7.772  11.502
30559SOL    HW193451   7.792   7.747  11.507
30559SOL    HW293452   7.892   7.846  11.561
30560SOL     OW93453  10.520  13.579   1.213
30560SOL    HW193454  10.470  13.498   1.225
30560SOL    HW293455  10.483  13.639   1.278
30561SOL     OW93456  10.385  11.877   8.066
30561SOL    HW193457  10.413  11.868   8.157
30561SOL    HW293458  10.457  11.840   8.015
30562SOL     OW93459  13.175   6.418  10.237
30562SOL    HW193460  13.267   6.392  10.232
30562SOL    HW293461  13.153   6.448  10.149
30563SOL     OW93462   1.591   4.917   8.758
30563SOL    HW193463   1.586   4.841   8.816
30563SOL    HW293464   1.511   4.966   8.775
30564SOL     OW93465   9.630   5.548   4.564
30564SOL    HW193466   9.647   5.455   4.553
30564SOL    HW293467   9.546   5.553   4.609
30565SOL     OW93468  10.424  12.175   0.576
30565SOL    HW193469  10.356  12.233   0.543
30565SOL    HW293470  10.502  12.230   0.583
30566SOL     OW93471   6.434   5.625   4.933
30566SOL    HW193472   6.442   5.581   4.848
30566SOL    HW293473   6.515   5.602   4.979
30567SOL     OW93474  13.625  11.374  13.057
30567SOL    HW193475  13.539  11.340  13.081
30567SOL    HW293476  13.674  11.376  13.140
30568SOL     OW93477  14.299   5.448   0.179
30568SOL    HW193478  14.273   5.536   0.205
30568SOL    HW293479  14.218   5.407   0.148
30569SOL     OW93480  13.759   0.390   7.972
30569SOL    HW193481  13.710   0.463   8.009
30569SOL    HW293482  13.845   0.427   7.951
30570SOL     OW93483   5.392   5.697   0.263
30570SOL    HW193484   5.474   5.649   0.259
30570SOL    HW293485   5.353   5.671   0.347
30571SOL     OW93486   8.424   6.142   7.135
30571SOL    HW193487   8.429   6.186   7.050
30571SOL    HW293488   8.507   6.163   7.177
30572SOL     OW93489   0.858   6.795   7.214
30572SOL    HW193490   0.928   6.795   7.149
30572SOL    HW293491   0.884   6.860   7.279
30573SOL     OW93492   7.768   6.494  11.594
30573SOL    HW193493   7.752   6.446  11.512
30573SOL    HW293494   7.852   6.537  11.581
30574SOL     OW93495   5.097   5.551   2.536
30574SOL    HW193496   5.159   5.528   2.466
30574SOL    HW293497   5.025   5.489   2.525
30575SOL     OW93498   6.636   6.358   1.281
30575SOL    HW193499   6.552   6.313   1.275
30575SOL    HW293500   6.635   6.421   1.210
30576SOL     OW93501   7.807  11.957  14.253
30576SOL    HW193502   7.877  11.893  14.265
30576SOL    HW293503   7.731  11.906  14.223
30577SOL     OW93504   8.233  10.503   2.963
30577SOL    HW193505   8.250  10.597   2.953
30577SOL    HW293506   8.141  10.498   2.989
30578SOL     OW93507   7.184   7.692   1.223
30578SOL    HW193508   7.222   7.627   1.283
30578SOL    HW293509   7.090   7.683   1.234
30579SOL     OW93510   1.946  11.104  11.840
30579SOL    HW193511   2.002  11.056  11.778
30579SOL    HW293512   1.981  11.082  11.926
30580SOL     OW93513  12.177  13.484   9.102
30580SOL    HW193514  12.261  13.528   9.087
30580SOL    HW293515  12.114  13.555   9.112
30581SOL     OW93516   0.072  12.597   6.822
30581SOL    HW193517   0.150  12.649   6.801
30581SOL    HW293518   0.033  12.577   6.737
30582SOL     OW93519   9.834  14.315  11.737
30582SOL    HW193520   9.782  14.279  11.666
30582SOL    HW293521   9.773  14.369  11.787
30583SOL     OW93522   7.525   5.955  11.325
30583SOL    HW193523   7.548   5.885  11.264
30583SOL    HW293524   7.447   5.995  11.288
30584SOL     OW93525   1.512   7.595   8.639
30584SOL    HW193526   1.513   7.686   8.612
30584SOL    HW293527   1.574   7.591   8.712
30585SOL     OW93528  13.296   1.058   0.782
30585SOL    HW193529  13.281   0.971   0.746
30585SOL    HW293530  13.388   1.077   0.761
30586SOL     OW93531   9.665  14.831  14.403
30586SOL    HW193532   9.628   0.013  14.338
30586SOL    HW293533   9.728   0.006  14.452
30587SOL     OW93534   2.809   3.769   3.253
30587SOL    HW193535   2.839   3.710   3.322
30587SOL    HW293536   2.714   3.758   3.252
30588SOL     OW93537   0.551  10.480   3.117
30588SOL    HW193538   0.514  10.534   3.187
30588SOL    HW293539   0.642  10.508   3.111
30589SOL     OW93540   8.788   9.625   1.543
30589SOL    HW193541   8.786   9.538   1.504
30589SOL    HW293542   8.764   9.684   1.472
30590SOL     OW93543  13.477   4.677  12.321
30590SOL    HW193544  13.408   4.634  12.371
30590SOL    HW293545  13.510   4.608  12.263
30591SOL     OW93546   2.293   2.481  14.351
30591SOL    HW193547   2.320   2.499  14.441
30591SOL    HW293548   2.198   2.494  14.352
30592SOL     OW93549   5.521  10.017  11.014
30592SOL    HW193550   5.516   9.940  11.071
30592SOL    HW293551   5.613  10.042  11.016
30593SOL     OW93552  12.641  13.206   2.202
30593SOL    HW193553  12.582  13.253   2.144
30593SOL    HW293554  12.728  13.215   2.161
30594SOL     OW93555   6.294   0.909   7.288
30594SOL    HW193556   6.371   0.853   7.282
30594SOL    HW293557   6.269   0.926   7.197
30595SOL     OW93558   6.593   8.180  13.705
30595SOL    HW193559   6.538   8.101  13.711
30595SOL    HW293560   6.604   8.209  13.795
30596SOL     OW93561   3.289   1.374   8.475
30596SOL    HW193562   3.301   1.308   8.406
30596SOL    HW293563   3.249   1.325   8.548
30597SOL     OW93564   0.493   2.647   3.627
30597SOL    HW193565   0.437   2.575   3.599
30597SOL    HW293566   0.481   2.651   3.722
30598SOL     OW93567   7.530   0.757   1.988
30598SOL    HW193568   7.603   0.725   2.040
30598SOL    HW293569   7.562   0.839   1.949
30599SOL     OW93570   8.978  11.082   6.706
30599SOL    HW193571   8.963  11.176   6.698
30599SOL    HW293572   9.017  11.057   6.622
30600SOL     OW93573   0.023   3.381  13.650
30600SOL    HW193574   0.088   3.422  13.592
30600SOL    HW293575   0.047   3.412  13.737
30601SOL     OW93576   6.859   2.952  13.235
30601SOL    HW193577   6.918   2.890  13.279
30601SOL    HW293578   6.916   3.002  13.178
30602SOL     OW93579   0.742  12.921   9.838
30602SOL    HW193580   0.661  12.928   9.888
30602SOL    HW293581   0.718  12.876   9.758
30603SOL     OW93582  12.528  11.198  12.072
30603SOL    HW193583  12.520  11.106  12.096
30603SOL    HW293584  12.441  11.222  12.039
30604SOL     OW93585   2.312   4.838   1.765
30604SOL    HW193586   2.396   4.797   1.784
30604SOL    HW293587   2.306   4.911   1.827
30605SOL     OW93588   2.692  13.633  10.052
30605SOL    HW193589   2.718  13.688  10.126
30605SOL    HW293590   2.721  13.682   9.975
30606SOL     OW93591  13.828  14.477   7.777
30606SOL    HW193592  13.750  14.528   7.799
30606SOL    HW293593  13.882  14.537   7.725
30607SOL     OW93594   3.151  11.941   3.475
30607SOL    HW193595   3.090  11.867   3.479
30607SOL    HW293596   3.109  12.008   3.529
30608SOL     OW93597   6.015   2.819   2.610
30608SOL    HW193598   5.998   2.891   2.549
30608SOL    HW293599   5.985   2.741   2.563
30609SOL     OW93600  14.244   7.749   4.304
30609SOL    HW193601  14.171   7.706   4.260
30609SOL    HW293602  14.228   7.842   4.292
30610SOL     OW93603   8.933   1.606   1.116
30610SOL    HW193604   9.011   1.624   1.063
30610SOL    HW293605   8.939   1.668   1.189
30611SOL     OW93606  10.559   8.106   1.511
30611SOL    HW193607  10.605   8.152   1.582
30611SOL    HW293608  10.585   8.015   1.521
30612SOL     OW93609   8.900   2.058   2.515
30612SOL    HW193610   8.831   2.106   2.470
30612SOL    HW293611   8.870   2.051   2.606
30613SOL     OW93612  13.923   7.345  14.493
30613SOL    HW193613  13.849   7.393  14.455
30613SOL    HW293614  13.973   7.315  14.417
30614SOL     OW93615   2.894   5.309   2.105
30614SOL    HW193616   2.965   5.293   2.043
30614SOL    HW293617   2.935   5.298   2.191
30615SOL     OW93618   0.046  13.525   6.805
30615SOL    HW193619   0.043  13.570   6.721
30615SOL    HW293620   0.064  13.433   6.783
30616SOL     OW93621   4.920  10.068   1.383
30616SOL    HW193622   4.944  10.152   1.421
30616SOL    HW293623   4.825  10.073   1.371
30617SOL     OW93624   5.143   6.718  12.255
30617SOL    HW193625   5.178   6.719  12.166
30617SOL    HW293626   5.100   6.803  12.265
30618SOL     OW93627  13.613   5.723   5.244
30618SOL    HW193628  13.688   5.723   5.184
30618SOL    HW293629  13.646   5.678   5.323
30619SOL     OW93630   1.881   4.179   1.322
30619SOL    HW193631   1.857   4.223   1.240
30619SOL    HW293632   1.812   4.115   1.336
30620SOL     OW93633  11.231   3.518  11.486
30620SOL    HW193634  11.249   3.612  11.484
30620SOL    HW293635  11.301   3.481  11.540
30621SOL     OW93636  11.647   8.153   0.579
30621SOL    HW193637  11.649   8.117   0.490
30621SOL    HW293638  11.601   8.086   0.630
30622SOL     OW93639   9.975   3.496  11.582
30622SOL    HW193640  10.007   3.489  11.492
30622SOL    HW293641   9.947   3.588  11.591
30623SOL     OW93642  13.293   0.775   3.783
30623SOL    HW193643  13.244   0.799   3.705
30623SOL    HW293644  13.300   0.857   3.833
30624SOL     OW93645  14.821   5.521   8.142
30624SOL    HW193646   0.022   5.555   8.184
30624SOL    HW293647  14.838   5.529   8.048
30625SOL     OW93648   8.163   7.952   3.566
30625SOL    HW193649   8.152   8.047   3.564
30625SOL    HW293650   8.257   7.938   3.568
30626SOL     OW93651   2.632  13.580   7.282
30626SOL    HW193652   2.547  13.565   7.242
30626SOL    HW293653   2.612  13.617   7.368
30627SOL     OW93654   0.774   2.566   0.510
30627SOL    HW193655   0.724   2.623   0.451
30627SOL    HW293656   0.747   2.592   0.598
30628SOL     OW93657   9.905  12.432  10.499
30628SOL    HW193658   9.998  12.412  10.504
30628SOL    HW293659   9.902  12.527  10.487
30629SOL     OW93660   6.661  13.972  14.442
30629SOL    HW193661   6.582  13.958  14.495
30629SOL    HW293662   6.632  14.028  14.370
30630SOL     OW93663   6.195   5.102  10.986
30630SOL    HW193664   6.238   5.171  10.935
30630SOL    HW293665   6.131   5.149  11.040
30631SOL     OW93666   8.724   1.587   3.232
30631SOL    HW193667   8.720   1.668   3.181
30631SOL    HW293668   8.681   1.609   3.315
30632SOL     OW93669  10.895   2.766  14.750
30632SOL    HW193670  10.974   2.814  14.727
30632SOL    HW293671  10.824   2.813  14.706
30633SOL     OW93672  10.563  13.905   8.875
30633SOL    HW193673  10.606  13.901   8.790
30633SOL    HW293674  10.480  13.949   8.858
30634SOL     OW93675   3.430   1.631   7.435
30634SOL    HW193676   3.453   1.618   7.527
30634SOL    HW293677   3.398   1.721   7.431
30635SOL     OW93678   9.056   9.552   4.387
30635SOL    HW193679   9.050   9.457   4.375
30635SOL    HW293680   9.005   9.588   4.314
30636SOL     OW93681   0.858   2.313  11.276
30636SOL    HW193682   0.838   2.406  11.273
30636SOL    HW293683   0.948   2.306  11.243
30637SOL     OW93684   2.493   3.782   4.568
30637SOL    HW193685   2.411   3.759   4.526
30637SOL    HW293686   2.558   3.780   4.497
30638SOL     OW93687   9.914   1.722   3.455
30638SOL    HW193688   9.965   1.649   3.420
30638SOL    HW293689   9.977   1.772   3.507
30639SOL     OW93690   3.160   6.457   3.207
30639SOL    HW193691   3.249   6.445   3.240
30639SOL    HW293692   3.167   6.442   3.113
30640SOL     OW93693   7.201  12.038   0.260
30640SOL    HW193694   7.243  11.968   0.210
30640SOL    HW293695   7.128  12.067   0.205
30641SOL     OW93696  11.720   9.531  10.996
30641SOL    HW193697  11.703   9.625  11.006
30641SOL    HW293698  11.634   9.491  10.999
30642SOL     OW93699   2.020   3.417   8.265
30642SOL    HW193700   1.976   3.336   8.289
30642SOL    HW293701   2.037   3.408   8.171
30643SOL     OW93702  14.811   9.448  10.718
30643SOL    HW193703  14.773   9.383  10.658
30643SOL    HW293704  14.797   9.532  10.673
30644SOL     OW93705   7.389   2.861  12.900
30644SOL    HW193706   7.421   2.915  12.973
30644SOL    HW293707   7.347   2.923  12.841
30645SOL     OW93708  14.397   2.382   2.014
30645SOL    HW193709  14.413   2.332   2.094
30645SOL    HW293710  14.462   2.349   1.952
30646SOL     OW93711   6.676  10.653   9.508
30646SOL    HW193712   6.699  10.684   9.596
30646SOL    HW293713   6.652  10.732   9.460
30647SOL     OW93714  13.603   2.037   8.640
30647SOL    HW193715  13.556   2.011   8.560
30647SOL    HW293716  13.547   2.105   8.679
30648SOL     OW93717  11.990  12.076  13.447
30648SOL    HW193718  11.899  12.053  13.429
30648SOL    HW293719  11.999  12.067  13.542
30649SOL     OW93720   5.141  13.544  10.987
30649SOL    HW193721   5.111  13.519  11.075
30649SOL    HW293722   5.230  13.507  10.981
30650SOL     OW93723   7.107   7.095   5.175
30650SOL    HW193724   7.019   7.118   5.146
30650SOL    HW293725   7.108   6.999   5.175
30651SOL     OW93726   8.443   4.707   7.008
30651SOL    HW193727   8.431   4.643   6.938
30651SOL    HW293728   8.536   4.700   7.031
30652SOL     OW93729   4.921   5.260  13.015
30652SOL    HW193730   4.997   5.203  13.025
30652SOL    HW293731   4.862   5.236  13.087
30653SOL     OW93732   8.136   6.137  11.970
30653SOL    HW193733   8.186   6.204  12.015
30653SOL    HW293734   8.046   6.149  12.000
30654SOL     OW93735  12.670   8.718   5.426
30654SOL    HW193736  12.728   8.662   5.374
30654SOL    HW293737  12.612   8.656   5.470
30655SOL     OW93738   2.512   2.548   0.466
30655SOL    HW193739   2.571   2.562   0.391
30655SOL    HW293740   2.569   2.516   0.535
30656SOL     OW93741   2.798  10.334   0.885
30656SOL    HW193742   2.880  10.300   0.850
30656SOL    HW293743   2.788  10.420   0.844
30657SOL     OW93744   2.960   4.162   6.859
30657SOL    HW193745   2.947   4.200   6.772
30657SOL    HW293746   3.048   4.125   6.856
30658SOL     OW93747  10.250   0.238   1.626
30658SOL    HW193748  10.239   0.317   1.574
30658SOL    HW293749  10.223   0.167   1.568
30659SOL     OW93750   4.085   8.218   4.333
30659SOL    HW193751   4.046   8.214   4.246
30659SOL    HW293752   4.012   8.198   4.392
30660SOL     OW93753  14.455   5.867   7.281
30660SOL    HW193754  14.537   5.842   7.237
30660SOL    HW293755  14.396   5.890   7.210
30661SOL     OW93756   4.266   4.372   9.045
30661SOL    HW193757   4.285   4.278   9.053
30661SOL    HW293758   4.178   4.375   9.007
30662SOL     OW93759  12.837   2.916   5.370
30662SOL    HW193760  12.756   2.929   5.322
30662SOL    HW293761  12.894   2.987   5.340
30663SOL     OW93762   9.356  12.567  10.898
30663SOL    HW193763   9.308  12.561  10.815
30663SOL    HW293764   9.411  12.645  10.888
30664SOL     OW93765  14.772   6.844  14.007
30664SOL    HW193766  14.685   6.818  14.037
30664SOL    HW293767  14.810   6.765  13.970
30665SOL     OW93768   7.926   1.374  11.736
30665SOL    HW193769   7.848   1.332  11.775
30665SOL    HW293770   7.993   1.365  11.804
30666SOL     OW93771   8.386  11.685  10.502
30666SOL    HW193772   8.456  11.729  10.551
30666SOL    HW293773   8.405  11.592  10.512
30667SOL     OW93774  12.964   0.656  14.687
30667SOL    HW193775  12.916   0.617  14.760
30667SOL    HW293776  13.022   0.586  14.656
30668SOL     OW93777   8.335   2.360   3.252
30668SOL    HW193778   8.418   2.313   3.260
30668SOL    HW293779   8.361   2.451   3.233
30669SOL     OW93780   5.134   5.469  13.478
30669SOL    HW193781   5.221   5.434  13.454
30669SOL    HW293782   5.109   5.523  13.403
30670SOL     OW93783  10.685   7.304   1.879
30670SOL    HW193784  10.731   7.220   1.880
30670SOL    HW293785  10.731   7.356   1.813
30671SOL     OW93786   6.948   8.794   3.548
30671SOL    HW193787   6.906   8.874   3.579
30671SOL    HW293788   6.987   8.755   3.626
30672SOL     OW93789   7.910   8.263   2.765
30672SOL    HW193790   7.904   8.342   2.711
30672SOL    HW293791   7.911   8.295   2.855
30673SOL     OW93792   5.164   6.801   7.676
30673SOL    HW193793   5.172   6.721   7.624
30673SOL    HW293794   5.073   6.828   7.665
30674SOL     OW93795   9.647  10.693   8.534
30674SOL    HW193796   9.570  10.732   8.575
30674SOL    HW293797   9.720  10.747   8.563
30675SOL     OW93798  10.246  13.393   5.399
30675SOL    HW193799  10.341  13.404   5.395
30675SOL    HW293800  10.234  13.303   5.431
30676SOL     OW93801  12.325   0.769   3.219
30676SOL    HW193802  12.318   0.688   3.170
30676SOL    HW293803  12.234   0.799   3.229
30677SOL     OW93804  14.457  10.121   2.597
30677SOL    HW193805  14.538  10.165   2.622
30677SOL    HW293806  14.472  10.093   2.507
30678SOL     OW93807  14.028   8.997  14.383
30678SOL    HW193808  13.980   8.937  14.326
30678SOL    HW293809  13.961   9.052  14.423
30679SOL     OW93810   0.322  14.778   2.972
30679SOL    HW193811   0.268  14.752   3.047
30679SOL    HW293812   0.308  14.709   2.907
30680SOL     OW93813   5.522  13.481   7.070
30680SOL    HW193814   5.532  13.576   7.069
30680SOL    HW293815   5.484  13.459   6.985
30681SOL     OW93816   9.450  10.073   2.361
30681SOL    HW193817   9.385  10.004   2.349
30681SOL    HW293818   9.523  10.048   2.304
30682SOL     OW93819  10.815   1.110   9.914
30682SOL    HW193820  10.886   1.145   9.968
30682SOL    HW293821  10.855   1.039   9.865
30683SOL     OW93822   0.910   1.174   6.495
30683SOL    HW193823   0.843   1.236   6.467
30683SOL    HW293824   0.946   1.139   6.414
30684SOL     OW93825   2.236  14.861  12.217
30684SOL    HW193826   2.197  14.828  12.299
30684SOL    HW293827   2.330  14.842  12.226
30685SOL     OW93828   2.016   9.789   2.845
30685SOL    HW193829   2.041   9.858   2.783
30685SOL    HW293830   2.038   9.824   2.931
30686SOL     OW93831   7.083   8.717  14.308
30686SOL    HW193832   7.048   8.805  14.326
30686SOL    HW293833   7.029   8.658  14.360
30687SOL     OW93834  10.157   3.025   2.831
30687SOL    HW193835  10.239   2.985   2.801
30687SOL    HW293836  10.182   3.074   2.910
30688SOL     OW93837   7.882  12.802  10.124
30688SOL    HW193838   7.943  12.875  10.111
30688SOL    HW293839   7.804  12.827  10.074
30689SOL     OW93840   5.777  10.291   0.536
30689SOL    HW193841   5.779  10.312   0.629
30689SOL    HW293842   5.726  10.362   0.497
30690SOL     OW93843   5.242   8.094  13.799
30690SOL    HW193844   5.289   8.165  13.842
30690SOL    HW293845   5.238   8.120  13.707
30691SOL     OW93846   4.658   5.259   8.973
30691SOL    HW193847   4.585   5.256   8.912
30691SOL    HW293848   4.698   5.346   8.960
30692SOL     OW93849   7.990   1.847   2.920
30692SOL    HW193850   8.051   1.915   2.891
30692SOL    HW293851   8.004   1.774   2.859
30693SOL     OW93852  12.898   0.288   4.212
30693SOL    HW193853  12.857   0.257   4.132
30693SOL    HW293854  12.979   0.238   4.219
30694SOL     OW93855   3.182  14.452   1.952
30694SOL    HW193856   3.149  14.366   1.926
30694SOL    HW293857   3.220  14.488   1.872
30695SOL     OW93858  11.859   4.699   6.890
30695SOL    HW193859  11.801   4.769   6.862
30695SOL    HW293860  11.876   4.718   6.983
30696SOL     OW93861  12.522  11.818   9.756
30696SOL    HW193862  12.565  11.830   9.671
30696SOL    HW293863  12.432  11.847   9.741
30697SOL     OW93864   2.123   2.557   7.852
30697SOL    HW193865   2.032   2.584   7.836
30697SOL    HW293866   2.152   2.613   7.924
30698SOL     OW93867   2.457   9.331  10.788
30698SOL    HW193868   2.538   9.292  10.821
30698SOL    HW293869   2.480   9.422  10.768
30699SOL     OW93870   1.919  12.266   6.682
30699SOL    HW193871   1.901  12.172   6.680
30699SOL    HW293872   2.005  12.274   6.722
30700SOL     OW93873   0.463   5.616  14.014
30700SOL    HW193874   0.446   5.598  13.922
30700SOL    HW293875   0.509   5.538  14.046
30701SOL     OW93876  12.272   8.881   8.768
30701SOL    HW193877  12.192   8.923   8.736
30701SOL    HW293878  12.335   8.953   8.778
30702SOL     OW93879   0.831   6.731  14.188
30702SOL    HW193880   0.771   6.694  14.253
30702SOL    HW293881   0.809   6.687  14.106
30703SOL     OW93882   6.093  10.679   9.876
30703SOL    HW193883   6.084  10.589   9.846
30703SOL    HW293884   6.005  10.716   9.868
30704SOL     OW93885   9.280   5.825  11.954
30704SOL    HW193886   9.341   5.897  11.965
30704SOL    HW293887   9.335   5.748  11.941
30705SOL     OW93888  13.254   2.852   6.910
30705SOL    HW193889  13.306   2.895   6.842
30705SOL    HW293890  13.318   2.829   6.978
30706SOL     OW93891   7.714   3.129  12.157
30706SOL    HW193892   7.648   3.079  12.205
30706SOL    HW293893   7.671   3.150  12.073
30707SOL     OW93894  12.429  13.031   0.286
30707SOL    HW193895  12.411  13.125   0.280
30707SOL    HW293896  12.348  12.993   0.320
30708SOL     OW93897  12.717   3.620   2.449
30708SOL    HW193898  12.668   3.684   2.499
30708SOL    HW293899  12.733   3.548   2.510
30709SOL     OW93900   6.428  14.720   8.028
30709SOL    HW193901   6.451  14.629   8.049
30709SOL    HW293902   6.513  14.765   8.021
30710SOL     OW93903   8.345   0.354   3.673
30710SOL    HW193904   8.367   0.269   3.635
30710SOL    HW293905   8.397   0.417   3.621
30711SOL     OW93906   3.755  10.990   5.829
30711SOL    HW193907   3.777  10.970   5.920
30711SOL    HW293908   3.718  10.908   5.795
30712SOL     OW93909   1.615  14.081  12.808
30712SOL    HW193910   1.676  14.021  12.851
30712SOL    HW293911   1.664  14.163  12.798
30713SOL     OW93912   5.119   5.975   9.362
30713SOL    HW193913   5.089   5.931   9.282
30713SOL    HW293914   5.163   5.907   9.412
30714SOL     OW93915  10.574  12.643   6.182
30714SOL    HW193916  10.493  12.614   6.224
30714SOL    HW293917  10.545  12.707   6.117
30715SOL     OW93918   1.938   3.119  13.016
30715SOL    HW193919   1.879   3.044  13.002
30715SOL    HW293920   1.959   3.149  12.927
30716SOL     OW93921   7.772   7.346   0.772
30716SOL    HW193922   7.831   7.354   0.847
30716SOL    HW293923   7.704   7.285   0.802
30717SOL     OW93924   5.573   2.485   4.246
30717SOL    HW193925   5.575   2.408   4.303
30717SOL    HW293926   5.654   2.532   4.265
30718SOL     OW93927   6.910  11.495   7.688
30718SOL    HW193928   6.992  11.451   7.666
30718SOL    HW293929   6.924  11.529   7.776
30719SOL     OW93930   7.521  12.014   7.429
30719SOL    HW193931   7.600  12.067   7.427
30719SOL    HW293932   7.481  12.031   7.514
30720SOL     OW93933   7.974  12.126  12.225
30720SOL    HW193934   7.919  12.154  12.298
30720SOL    HW293935   8.062  12.119  12.263
30721SOL     OW93936   5.083   6.180  13.743
30721SOL    HW193937   5.125   6.095  13.727
30721SOL    HW293938   5.154   6.236  13.775
30722SOL     OW93939  14.780   9.887   6.186
30722SOL    HW193940  14.712   9.905   6.122
30722SOL    HW293941  14.748   9.812   6.236
30723SOL     OW93942  11.053   8.715  12.084
30723SOL    HW193943  11.020   8.776  12.018
30723SOL    HW293944  11.102   8.650  12.034
30724SOL     OW93945   1.210   9.435  10.992
30724SOL    HW193946   1.234   9.526  10.978
30724SOL    HW293947   1.115   9.432  10.975
30725SOL     OW93948  12.664  11.185   2.277
30725SOL    HW193949  12.739  11.224   2.323
30725SOL    HW293950  12.588  11.220   2.322
30726SOL     OW93951  13.232   4.155  12.930
30726SOL    HW193952  13.279   4.232  12.898
30726SOL    HW293953  13.274   4.133  13.012
30727SOL     OW93954  11.547   0.780  11.156
30727SOL    HW193955  11.589   0.829  11.226
30727SOL    HW293956  11.483   0.840  11.119
30728SOL     OW93957   0.214   3.202   7.494
30728SOL    HW193958   0.126   3.238   7.505
30728SOL    HW293959   0.221   3.137   7.564
30729SOL     OW93960   0.858  10.277   6.588
30729SOL    HW193961   0.763  10.288   6.594
30729SOL    HW293962   0.891  10.304   6.673
30730SOL     OW93963   6.485   9.017  12.219
30730SOL    HW193964   6.528   9.040  12.136
30730SOL    HW293965   6.451   9.100  12.251
30731SOL     OW93966  10.555   4.155  11.010
30731SOL    HW193967  10.563   4.212  11.087
30731SOL    HW293968  10.638   4.167  10.963
30732SOL     OW93969   5.741   6.352   4.792
30732SOL    HW193970   5.788   6.415   4.738
30732SOL    HW293971   5.659   6.396   4.814
30733SOL     OW93972   6.505   4.313  12.000
30733SOL    HW193973   6.495   4.220  12.021
30733SOL    HW293974   6.503   4.358  12.085
30734SOL     OW93975   5.563  12.356   3.158
30734SOL    HW193976   5.652  12.334   3.132
30734SOL    HW293977   5.509  12.284   3.125
30735SOL     OW93978  14.460  13.704  11.005
30735SOL    HW193979  14.476  13.796  10.985
30735SOL    HW293980  14.529  13.658  10.956
30736SOL     OW93981   3.858   9.758   3.598
30736SOL    HW193982   3.946   9.790   3.576
30736SOL    HW293983   3.807   9.837   3.617
30737SOL     OW93984  14.464   6.205   3.037
30737SOL    HW193985  14.374   6.236   3.028
30737SOL    HW293986  14.456   6.119   3.077
30738SOL     OW93987   8.475  14.831   8.328
30738SOL    HW193988   8.537  14.795   8.391
30738SOL    HW293989   8.439  14.754   8.283
30739SOL     OW93990  12.898  14.731  13.681
30739SOL    HW193991  12.819  14.784  13.685
30739SOL    HW293992  12.969  14.794  13.672
30740SOL     OW93993  11.465   7.780   8.731
30740SOL    HW193994  11.371   7.759   8.728
30740SOL    HW293995  11.508   7.702   8.694
30741SOL     OW93996  12.284   2.874  14.453
30741SOL    HW193997  12.345   2.837  14.517
30741SOL    HW293998  12.207   2.898  14.503
30742SOL     OW93999   4.334   7.674  13.654
30742SOL    HW194000   4.420   7.712  13.671
30742SOL    HW294001   4.281   7.749  13.624
30743SOL     OW94002   4.908   7.831   4.911
30743SOL    HW194003   4.874   7.918   4.891
30743SOL    HW294004   5.002   7.845   4.924
30744SOL     OW94005   9.367   5.822   1.733
30744SOL    HW194006   9.276   5.807   1.708
30744SOL    HW294007   9.416   5.809   1.651
30745SOL     OW94008   8.287   1.030   3.917
30745SOL    HW194009   8.264   0.938   3.901
30745SOL    HW294010   8.367   1.026   3.969
30746SOL     OW94011  11.861   3.410   4.487
30746SOL    HW194012  11.921   3.363   4.429
30746SOL    HW294013  11.845   3.493   4.442
30747SOL     OW94014   6.328   2.172   1.369
30747SOL    HW194015   6.297   2.130   1.289
30747SOL    HW294016   6.300   2.263   1.361
30748SOL     OW94017   8.430  11.260   4.797
30748SOL    HW194018   8.517  11.272   4.758
30748SOL    HW294019   8.429  11.170   4.828
30749SOL     OW94020   0.045   0.470  12.300
30749SOL    HW194021   0.058   0.446  12.208
30749SOL    HW294022  14.869   0.549  12.297
30750SOL     OW94023  14.018   6.404  13.073
30750SOL    HW194024  14.108   6.435  13.063
30750SOL    HW294025  13.976   6.470  13.129
30751SOL     OW94026   2.816  11.041   0.100
30751SOL    HW194027   2.727  11.048   0.135
30751SOL    HW294028   2.804  11.037   0.005
30752SOL     OW94029   0.750   1.370   3.366
30752SOL    HW194030   0.673   1.399   3.413
30752SOL    HW294031   0.718   1.348   3.278
30753SOL     OW94032  12.978   3.681   2.923
30753SOL    HW194033  13.039   3.743   2.963
30753SOL    HW294034  12.932   3.732   2.856
30754SOL     OW94035   3.389   5.123  10.219
30754SOL    HW194036   3.305   5.084  10.240
30754SOL    HW294037   3.446   5.049  10.199
30755SOL     OW94038   3.630   2.298   8.932
30755SOL    HW194039   3.637   2.274   9.024
30755SOL    HW294040   3.658   2.389   8.928
30756SOL     OW94041  11.358  11.183  10.492
30756SOL    HW194042  11.364  11.103  10.545
30756SOL    HW294043  11.381  11.155  10.403
30757SOL     OW94044   1.630   7.878   0.448
30757SOL    HW194045   1.707   7.831   0.481
30757SOL    HW294046   1.580   7.812   0.400
30758SOL     OW94047   2.278  11.863   8.158
30758SOL    HW194048   2.235  11.791   8.111
30758SOL    HW294049   2.212  11.893   8.220
30759SOL     OW94050   6.903  11.602   1.240
30759SOL    HW194051   6.847  11.627   1.166
30759SOL    HW294052   6.919  11.683   1.287
30760SOL     OW94053   3.714  13.625   5.269
30760SOL    HW194054   3.624  13.652   5.283
30760SOL    HW294055   3.745  13.596   5.355
30761SOL     OW94056   7.858   5.380   1.594
30761SOL    HW194057   7.776   5.369   1.642
30761SOL    HW294058   7.832   5.418   1.510
30762SOL     OW94059  12.854   6.581   1.891
30762SOL    HW194060  12.896   6.612   1.811
30762SOL    HW294061  12.819   6.660   1.932
30763SOL     OW94062   6.397   6.086   5.095
30763SOL    HW194063   6.304   6.099   5.114
30763SOL    HW294064   6.442   6.115   5.174
30764SOL     OW94065   8.476  14.307   4.400
30764SOL    HW194066   8.486  14.347   4.486
30764SOL    HW294067   8.475  14.213   4.417
30765SOL     OW94068   3.618   0.708   7.377
30765SOL    HW194069   3.581   0.788   7.414
30765SOL    HW294070   3.630   0.727   7.284
30766SOL     OW94071   5.434   3.015   1.400
30766SOL    HW194072   5.493   3.054   1.336
30766SOL    HW294073   5.365   2.973   1.348
30767SOL     OW94074  14.631   5.391   8.778
30767SOL    HW194075  14.677   5.454   8.722
30767SOL    HW294076  14.637   5.428   8.866
30768SOL     OW94077  12.018   9.444   0.775
30768SOL    HW194078  12.007   9.531   0.736
30768SOL    HW294079  12.113   9.433   0.783
30769SOL     OW94080  10.586   0.172  10.966
30769SOL    HW194081  10.496   0.186  10.996
30769SOL    HW294082  10.640   0.212  11.034
30770SOL     OW94083   5.546   8.592  12.939
30770SOL    HW194084   5.592   8.609  13.022
30770SOL    HW294085   5.467   8.546  12.965
30771SOL     OW94086   6.493   1.815   1.308
30771SOL    HW194087   6.504   1.885   1.243
30771SOL    HW294088   6.503   1.734   1.258
30772SOL     OW94089   0.852   5.793   1.085
30772SOL    HW194090   0.804   5.710   1.085
30772SOL    HW294091   0.835   5.830   1.172
30773SOL     OW94092   5.875   2.171   2.911
30773SOL    HW194093   5.906   2.201   2.997
30773SOL    HW294094   5.938   2.208   2.849
30774SOL     OW94095  12.665   9.007   4.283
30774SOL    HW194096  12.599   9.076   4.277
30774SOL    HW294097  12.677   8.978   4.192
30775SOL     OW94098   2.367  12.579   8.192
30775SOL    HW194099   2.376  12.672   8.171
30775SOL    HW294100   2.456  12.546   8.191
30776SOL     OW94101   4.510   0.917   5.151
30776SOL    HW194102   4.533   1.007   5.173
30776SOL    HW294103   4.593   0.876   5.127
30777SOL     OW94104  10.639  10.310   9.212
30777SOL    HW194105  10.550  10.283   9.189
30777SOL    HW294106  10.695  10.237   9.185
30778SOL     OW94107  12.080  11.836   8.096
30778SOL    HW194108  12.006  11.894   8.080
30778SOL    HW294109  12.147  11.866   8.035
30779SOL     OW94110  13.447   9.697  14.132
30779SOL    HW194111  13.531   9.723  14.170
30779SOL    HW294112  13.470   9.655  14.050
30780SOL     OW94113  10.235  11.641  13.487
30780SOL    HW194114  10.264  11.719  13.440
30780SOL    HW294115  10.140  11.653  13.497
30781SOL     OW94116  12.619   7.655   2.905
30781SOL    HW194117  12.682   7.651   2.977
30781SOL    HW294118  12.674   7.656   2.826
30782SOL     OW94119   8.793  14.528  13.903
30782SOL    HW194120   8.875  14.530  13.953
30782SOL    HW294121   8.812  14.580  13.825
30783SOL     OW94122   4.997  11.001   1.696
30783SOL    HW194123   5.071  11.026   1.751
30783SOL    HW294124   4.991  10.906   1.706
30784SOL     OW94125  12.301   8.988  11.744
30784SOL    HW194126  12.300   9.084  11.739
30784SOL    HW294127  12.276   8.959  11.657
30785SOL     OW94128   8.230   2.834   4.991
30785SOL    HW194129   8.267   2.852   5.078
30785SOL    HW294130   8.223   2.739   4.987
30786SOL     OW94131   8.959   1.354   3.901
30786SOL    HW194132   8.990   1.267   3.879
30786SOL    HW294133   9.038   1.409   3.900
30787SOL     OW94134  14.191   4.272   5.741
30787SOL    HW194135  14.165   4.298   5.829
30787SOL    HW294136  14.272   4.321   5.725
30788SOL     OW94137   9.601  14.355  12.763
30788SOL    HW194138   9.595  14.263  12.787
30788SOL    HW294139   9.674  14.389  12.815
30789SOL     OW94140  10.574   0.972  12.058
30789SOL    HW194141  10.497   1.030  12.051
30789SOL    HW294142  10.605   0.985  12.147
30790SOL     OW94143   2.863   1.467   5.595
30790SOL    HW194144   2.916   1.430   5.524
30790SOL    HW294145   2.783   1.415   5.595
30791SOL     OW94146   2.800   3.287  10.632
30791SOL    HW194147   2.840   3.374  10.637
30791SOL    HW294148   2.713   3.299  10.672
30792SOL     OW94149   0.935   2.415  12.678
30792SOL    HW194150   0.937   2.484  12.612
30792SOL    HW294151   0.993   2.347  12.644
30793SOL     OW94152  13.882   6.596  13.889
30793SOL    HW194153  13.838   6.680  13.900
30793SOL    HW294154  13.943   6.591  13.963
30794SOL     OW94155  11.174   8.570   8.192
30794SOL    HW194156  11.137   8.564   8.280
30794SOL    HW294157  11.136   8.496   8.145
30795SOL     OW94158   8.205  12.573   8.813
30795SOL    HW194159   8.287  12.532   8.840
30795SOL    HW294160   8.144  12.554   8.884
30796SOL     OW94161   2.846   9.734   3.690
30796SOL    HW194162   2.753   9.746   3.709
30796SOL    HW294163   2.851   9.646   3.652
30797SOL     OW94164   3.118  12.653   3.137
30797SOL    HW194165   3.133  12.621   3.047
30797SOL    HW294166   3.205  12.665   3.173
30798SOL     OW94167  14.692  10.987   6.656
30798SOL    HW194168  14.700  10.987   6.560
30798SOL    HW294169  14.719  11.075   6.682
30799SOL     OW94170   5.302   7.705  10.892
30799SOL    HW194171   5.334   7.789  10.860
30799SOL    HW294172   5.367   7.642  10.863
30800SOL     OW94173   0.807   7.478   4.123
30800SOL    HW194174   0.729   7.446   4.077
30800SOL    HW294175   0.879   7.456   4.064
30801SOL     OW94176   7.184  10.306   3.179
30801SOL    HW194177   7.099  10.350   3.186
30801SOL    HW294178   7.173  10.242   3.109
30802SOL     OW94179   9.614  13.267  11.838
30802SOL    HW194180   9.531  13.313  11.846
30802SOL    HW294181   9.592  13.185  11.794
30803SOL     OW94182  10.473   3.830  11.007
30803SOL    HW194183  10.503   3.920  11.020
30803SOL    HW294184  10.444   3.827  10.916
30804SOL     OW94185   6.399   6.413   8.513
30804SOL    HW194186   6.402   6.508   8.505
30804SOL    HW294187   6.374   6.398   8.604
30805SOL     OW94188  13.662  12.354  10.888
30805SOL    HW194189  13.723  12.299  10.937
30805SOL    HW294190  13.639  12.425  10.949
30806SOL     OW94191  14.603  10.442   7.374
30806SOL    HW194192  14.661  10.394   7.315
30806SOL    HW294193  14.519  10.397   7.368
30807SOL     OW94194   5.912   6.163   4.996
30807SOL    HW194195   5.855   6.205   4.932
30807SOL    HW294196   5.890   6.070   4.990
30808SOL     OW94197  12.748   0.337   9.721
30808SOL    HW194198  12.780   0.305   9.805
30808SOL    HW294199  12.810   0.303   9.657
30809SOL     OW94200   5.892   5.034  11.631
30809SOL    HW194201   5.865   4.988  11.710
30809SOL    HW294202   5.974   4.992  11.605
30810SOL     OW94203   7.087  12.584   0.516
30810SOL    HW194204   7.158  12.533   0.476
30810SOL    HW294205   7.069  12.653   0.453
30811SOL     OW94206  12.223   7.229   5.514
30811SOL    HW194207  12.277   7.152   5.497
30811SOL    HW294208  12.163   7.233   5.439
30812SOL     OW94209   3.404  14.213  12.544
30812SOL    HW194210   3.494  14.243  12.559
30812SOL    HW294211   3.355  14.245  12.619
30813SOL     OW94212  11.514   8.855   9.882
30813SOL    HW194213  11.512   8.759   9.884
30813SOL    HW294214  11.591   8.878   9.935
30814SOL     OW94215   4.847  14.105  13.519
30814SOL    HW194216   4.844  14.031  13.580
30814SOL    HW294217   4.842  14.182  13.576
30815SOL     OW94218  11.104   1.365   1.514
30815SOL    HW194219  11.190   1.408   1.519
30815SOL    HW294220  11.110   1.292   1.576
30816SOL     OW94221   7.767   7.481   1.899
30816SOL    HW194222   7.730   7.399   1.866
30816SOL    HW294223   7.714   7.503   1.975
30817SOL     OW94224  10.165   8.137  13.213
30817SOL    HW194225  10.236   8.134  13.277
30817SOL    HW294226  10.195   8.200  13.147
30818SOL     OW94227   7.025  12.964  13.811
30818SOL    HW194228   7.099  12.985  13.755
30818SOL    HW294229   7.060  12.970  13.900
30819SOL     OW94230   1.761  14.549  10.681
30819SOL    HW194231   1.703  14.554  10.605
30819SOL    HW294232   1.703  14.532  10.755
30820SOL     OW94233   8.644  13.316  14.607
30820SOL    HW194234   8.665  13.369  14.684
30820SOL    HW294235   8.720  13.260  14.595
30821SOL     OW94236   6.373   5.379   9.197
30821SOL    HW194237   6.373   5.290   9.233
30821SOL    HW294238   6.444   5.377   9.132
30822SOL     OW94239  13.992  12.029  14.619
30822SOL    HW194240  14.030  12.115  14.636
30822SOL    HW294241  13.902  12.048  14.592
30823SOL     OW94242  12.501  11.929   9.426
30823SOL    HW194243  12.589  11.899   9.449
30823SOL    HW294244  12.510  11.966   9.338
30824SOL     OW94245  10.983  10.313  12.109
30824SOL    HW194246  10.927  10.361  12.170
30824SOL    HW294247  10.985  10.367  12.030
30825SOL     OW94248   0.972   5.398  12.176
30825SOL    HW194249   0.921   5.320  12.199
30825SOL    HW294250   0.911   5.471  12.183
30826SOL     OW94251   1.015   0.451  14.434
30826SOL    HW194252   0.921   0.451  14.453
30826SOL    HW294253   1.055   0.486  14.514
30827SOL     OW94254  10.342   7.020   7.571
30827SOL    HW194255  10.262   6.973   7.547
30827SOL    HW294256  10.324   7.111   7.548
30828SOL     OW94257   1.339   8.301  14.060
30828SOL    HW194258   1.360   8.289  13.967
30828SOL    HW294259   1.388   8.380  14.085
30829SOL     OW94260  12.015  12.159  12.572
30829SOL    HW194261  12.056  12.234  12.616
30829SOL    HW294262  12.073  12.140  12.498
30830SOL     OW94263  12.174   6.421   7.801
30830SOL    HW194264  12.178   6.461   7.714
30830SOL    HW294265  12.080   6.409   7.817
30831SOL     OW94266   5.159   7.914  12.055
30831SOL    HW194267   5.069   7.884  12.044
30831SOL    HW294268   5.205   7.839  12.090
30832SOL     OW94269   2.883   6.717  13.853
30832SOL    HW194270   2.905   6.668  13.932
30832SOL    HW294271   2.796   6.753  13.871
30833SOL     OW94272  14.594   4.194  13.412
30833SOL    HW194273  14.631   4.108  13.391
30833SOL    HW294274  14.592   4.197  13.508
30834SOL     OW94275   2.478   8.002   7.778
30834SOL    HW194276   2.413   7.937   7.804
30834SOL    HW294277   2.499   8.048   7.860
30835SOL     OW94278   7.915   9.127   2.711
30835SOL    HW194279   8.010   9.122   2.703
30835SOL    HW294280   7.899   9.131   2.805
30836SOL     OW94281   3.479   9.433  12.162
30836SOL    HW194282   3.521   9.386  12.089
30836SOL    HW294283   3.535   9.413  12.237
30837SOL     OW94284   7.254  11.875   4.675
30837SOL    HW194285   7.229  11.803   4.733
30837SOL    HW294286   7.236  11.842   4.587
30838SOL     OW94287   9.033   1.166  10.316
30838SOL    HW194288   9.107   1.189  10.260
30838SOL    HW294289   9.073   1.131  10.396
30839SOL     OW94290   6.551  12.123   6.650
30839SOL    HW194291   6.488  12.138   6.720
30839SOL    HW294292   6.608  12.054   6.683
30840SOL     OW94293  11.155   4.516   9.757
30840SOL    HW194294  11.224   4.580   9.777
30840SOL    HW294295  11.191   4.432   9.787
30841SOL     OW94296   3.014   2.166  10.666
30841SOL    HW194297   2.964   2.086  10.646
30841SOL    HW294298   3.051   2.149  10.753
30842SOL     OW94299  10.512   9.718   1.794
30842SOL    HW194300  10.498   9.633   1.837
30842SOL    HW294301  10.598   9.746   1.825
30843SOL     OW94302  11.227  12.271   9.601
30843SOL    HW194303  11.163  12.210   9.563
30843SOL    HW294304  11.180  12.311   9.675
30844SOL     OW94305   1.490  12.170  13.580
30844SOL    HW194306   1.418  12.107  13.576
30844SOL    HW294307   1.490  12.212  13.493
30845SOL     OW94308   1.170  10.127   1.366
30845SOL    HW194309   1.167  10.032   1.360
30845SOL    HW294310   1.148  10.157   1.278
30846SOL     OW94311  10.711  12.500   6.576
30846SOL    HW194312  10.720  12.434   6.644
30846SOL    HW294313  10.745  12.458   6.497
30847SOL     OW94314  10.851   2.583   4.335
30847SOL    HW194315  10.817   2.619   4.253
30847SOL    HW294316  10.816   2.641   4.403
30848SOL     OW94317   3.678  13.230   9.319
30848SOL    HW194318   3.731  13.267   9.389
30848SOL    HW294319   3.741  13.212   9.248
30849SOL     OW94320  11.836   9.057  13.443
30849SOL    HW194321  11.772   9.026  13.508
30849SOL    HW294322  11.902   8.988  13.440
30850SOL     OW94323  12.013  11.696  11.268
30850SOL    HW194324  11.949  11.631  11.297
30850SOL    HW294325  12.054  11.727  11.348
30851SOL     OW94326  11.763   0.054  14.422
30851SOL    HW194327  11.847   0.044  14.377
30851SOL    HW294328  11.742   0.147  14.412
30852SOL     OW94329  10.679   8.920   3.307
30852SOL    HW194330  10.745   8.945   3.371
30852SOL    HW294331  10.708   8.959   3.224
30853SOL     OW94332   5.860  13.135  13.183
30853SOL    HW194333   5.817  13.058  13.145
30853SOL    HW294334   5.953  13.120  13.167
30854SOL     OW94335   7.513   3.171   9.504
30854SOL    HW194336   7.429   3.125   9.505
30854SOL    HW294337   7.504   3.238   9.437
30855SOL     OW94338  10.622  10.152  13.860
30855SOL    HW194339  10.656  10.241  13.869
30855SOL    HW294340  10.558  10.157  13.789
30856SOL     OW94341   1.539   9.542   5.955
30856SOL    HW194342   1.589   9.472   5.913
30856SOL    HW294343   1.574   9.547   6.044
30857SOL     OW94344   8.080   7.485  12.761
30857SOL    HW194345   8.121   7.529  12.835
30857SOL    HW294346   8.052   7.400  12.796
30858SOL     OW94347   9.247   0.317   7.445
30858SOL    HW194348   9.324   0.374   7.433
30858SOL    HW294349   9.173   0.370   7.414
30859SOL     OW94350   0.050   9.548   3.502
30859SOL    HW194351   0.115   9.614   3.477
30859SOL    HW294352   0.101   9.476   3.537
30860SOL     OW94353   5.349  13.085   4.388
30860SOL    HW194354   5.353  13.067   4.294
30860SOL    HW294355   5.263  13.054   4.415
30861SOL     OW94356   6.430  12.662   2.631
30861SOL    HW194357   6.489  12.706   2.692
30861SOL    HW294358   6.455  12.695   2.545
30862SOL     OW94359   8.115   7.997  12.863
30862SOL    HW194360   8.101   8.017  12.770
30862SOL    HW294361   8.209   8.011  12.876
30863SOL     OW94362  12.514   5.576   9.364
30863SOL    HW194363  12.454   5.547   9.433
30863SOL    HW294364  12.579   5.506   9.358
30864SOL     OW94365   8.555   5.316  12.410
30864SOL    HW194366   8.520   5.300  12.497
30864SOL    HW294367   8.536   5.408  12.393
30865SOL     OW94368   8.894  11.910   9.002
30865SOL    HW194369   8.876  11.902   9.096
30865SOL    HW294370   8.896  12.004   8.986
30866SOL     OW94371   3.433   1.175   5.498
30866SOL    HW194372   3.415   1.083   5.476
30866SOL    HW294373   3.487   1.206   5.426
30867SOL     OW94374   1.575   7.154   6.490
30867SOL    HW194375   1.607   7.215   6.555
30867SOL    HW294376   1.481   7.149   6.505
30868SOL     OW94377   4.386  11.678   9.849
30868SOL    HW194378   4.472  11.702   9.813
30868SOL    HW294379   4.331  11.755   9.833
30869SOL     OW94380   2.388   9.642   2.430
30869SOL    HW194381   2.327   9.715   2.427
30869SOL    HW294382   2.377   9.597   2.346
30870SOL     OW94383   1.095   4.696   0.950
30870SOL    HW194384   1.097   4.780   0.903
30870SOL    HW294385   1.113   4.631   0.882
30871SOL     OW94386  14.225   1.890  11.660
30871SOL    HW194387  14.184   1.886  11.573
30871SOL    HW294388  14.182   1.822  11.710
30872SOL     OW94389   1.625  10.030   0.877
30872SOL    HW194390   1.680   9.968   0.925
30872SOL    HW294391   1.580   9.975   0.812
30873SOL     OW94392   2.431  14.808   2.112
30873SOL    HW194393   2.363  14.748   2.082
30873SOL    HW294394   2.513  14.769   2.082
30874SOL     OW94395   1.096  14.308   8.267
30874SOL    HW194396   1.164  14.240   8.263
30874SOL    HW294397   1.017  14.264   8.237
30875SOL     OW94398   9.093  14.111  11.724
30875SOL    HW194399   9.033  14.039  11.746
30875SOL    HW294400   9.177  14.069  11.710
30876SOL     OW94401  10.797   5.998   1.326
30876SOL    HW194402  10.790   6.088   1.292
30876SOL    HW294403  10.815   6.009   1.419
30877SOL     OW94404  11.985   0.516   6.413
30877SOL    HW194405  11.951   0.604   6.432
30877SOL    HW294406  12.045   0.530   6.339
30878SOL     OW94407  12.899  10.423  11.671
30878SOL    HW194408  12.817  10.438  11.718
30878SOL    HW294409  12.918  10.506  11.629
30879SOL     OW94410   2.339   0.728  10.478
30879SOL    HW194411   2.256   0.740  10.432
30879SOL    HW294412   2.365   0.816  10.505
30880SOL     OW94413   4.538  14.299   7.661
30880SOL    HW194414   4.620  14.327   7.621
30880SOL    HW294415   4.473  14.362   7.629
30881SOL     OW94416   6.115   2.577   3.850
30881SOL    HW194417   6.102   2.513   3.780
30881SOL    HW294418   6.184   2.540   3.905
30882SOL     OW94419   3.932   1.784   6.853
30882SOL    HW194420   3.876   1.711   6.828
30882SOL    HW294421   4.018   1.760   6.821
30883SOL     OW94422  12.638   5.304  10.498
30883SOL    HW194423  12.695   5.252  10.442
30883SOL    HW294424  12.590   5.361  10.438
30884SOL     OW94425   6.382  13.665   0.602
30884SOL    HW194426   6.377  13.728   0.674
30884SOL    HW294427   6.449  13.602   0.629
30885SOL     OW94428   3.731   9.886   0.373
30885SOL    HW194429   3.699   9.934   0.297
30885SOL    HW294430   3.753   9.799   0.339
30886SOL     OW94431   6.702   6.930   7.334
30886SOL    HW194432   6.640   6.879   7.283
30886SOL    HW294433   6.785   6.921   7.287
30887SOL     OW94434   8.262   5.971   2.034
30887SOL    HW194435   8.296   5.897   1.985
30887SOL    HW294436   8.336   6.002   2.086
30888SOL     OW94437  10.656  12.230   9.157
30888SOL    HW194438  10.740  12.206   9.196
30888SOL    HW294439  10.626  12.149   9.115
30889SOL     OW94440   8.511  10.080   8.095
30889SOL    HW194441   8.486  10.099   8.186
30889SOL    HW294442   8.607  10.077   8.097
30890SOL     OW94443   9.016  13.379   2.723
30890SOL    HW194444   9.111  13.382   2.709
30890SOL    HW294445   9.005  13.320   2.797
30891SOL     OW94446   5.586   7.391   8.135
30891SOL    HW194447   5.626   7.476   8.116
30891SOL    HW294448   5.649   7.345   8.190
30892SOL     OW94449   4.546   2.254  13.937
30892SOL    HW194450   4.485   2.184  13.960
30892SOL    HW294451   4.512   2.289  13.854
30893SOL     OW94452   7.451  12.689   9.717
30893SOL    HW194453   7.510  12.757   9.748
30893SOL    HW294454   7.385  12.735   9.666
30894SOL     OW94455   9.914  14.616  11.505
30894SOL    HW194456   9.828  14.581  11.481
30894SOL    HW294457   9.970  14.597  11.430
30895SOL     OW94458   1.009  10.675   5.062
30895SOL    HW194459   0.940  10.693   4.998
30895SOL    HW294460   1.017  10.756   5.112
30896SOL     OW94461  10.258   9.047  10.178
30896SOL    HW194462  10.272   9.039  10.273
30896SOL    HW294463  10.163   9.042  10.167
30897SOL     OW94464   1.969  14.061   6.952
30897SOL    HW194465   1.880  14.070   6.919
30897SOL    HW294466   2.007  14.149   6.943
30898SOL     OW94467   5.811   1.700  11.246
30898SOL    HW194468   5.842   1.790  11.253
30898SOL    HW294469   5.725   1.707  11.205
30899SOL     OW94470   0.414   4.518  12.559
30899SOL    HW194471   0.362   4.460  12.503
30899SOL    HW294472   0.476   4.459  12.602
30900SOL     OW94473   1.620  14.051   9.869
30900SOL    HW194474   1.565  14.037   9.792
30900SOL    HW294475   1.559  14.080   9.937
30901SOL     OW94476   3.618  11.833  12.265
30901SOL    HW194477   3.650  11.922  12.277
30901SOL    HW294478   3.558  11.839  12.191
30902SOL     OW94479  11.470  14.083   3.893
30902SOL    HW194480  11.514  14.088   3.809
30902SOL    HW294481  11.387  14.128   3.880
30903SOL     OW94482  14.720   3.703  13.160
30903SOL    HW194483  14.694   3.622  13.116
30903SOL    HW294484  14.748   3.761  13.089
30904SOL     OW94485   0.747  11.660   4.405
30904SOL    HW194486   0.742  11.731   4.342
30904SOL    HW294487   0.660  11.621   4.404
30905SOL     OW94488   3.467   1.326  11.980
30905SOL    HW194489   3.422   1.341  11.897
30905SOL    HW294490   3.427   1.389  12.041
30906SOL     OW94491   4.450  11.329   9.539
30906SOL    HW194492   4.393  11.252   9.528
30906SOL    HW294493   4.414  11.373   9.616
30907SOL     OW94494  12.446  11.185   0.562
30907SOL    HW194495  12.429  11.218   0.474
30907SOL    HW294496  12.392  11.107   0.570
30908SOL     OW94497   4.158   4.697   0.800
30908SOL    HW194498   4.168   4.603   0.810
30908SOL    HW294499   4.122   4.727   0.884
30909SOL     OW94500  11.740   0.387  12.231
30909SOL    HW194501  11.762   0.293  12.232
30909SOL    HW294502  11.664   0.392  12.173
30910SOL     OW94503  13.582  10.388   2.058
30910SOL    HW194504  13.527  10.368   2.133
30910SOL    HW294505  13.563  10.318   1.995
30911SOL     OW94506   8.166  10.172   7.486
30911SOL    HW194507   8.112  10.250   7.493
30911SOL    HW294508   8.208  10.179   7.400
30912SOL     OW94509   0.516   2.638   2.051
30912SOL    HW194510   0.546   2.547   2.044
30912SOL    HW294511   0.431   2.639   2.005
30913SOL     OW94512  14.439   4.277  14.332
30913SOL    HW194513  14.506   4.216  14.302
30913SOL    HW294514  14.358   4.245  14.291
30914SOL     OW94515  13.648   0.099  10.797
30914SOL    HW194516  13.560   0.070  10.819
30914SOL    HW294517  13.676   0.040  10.726
30915SOL     OW94518  11.543  14.698  11.464
30915SOL    HW194519  11.637  14.714  11.467
30915SOL    HW294520  11.505  14.783  11.442
30916SOL     OW94521   0.799  13.416   0.885
30916SOL    HW194522   0.840  13.379   0.807
30916SOL    HW294523   0.743  13.486   0.852
30917SOL     OW94524   2.311  13.379   6.560
30917SOL    HW194525   2.289  13.289   6.537
30917SOL    HW294526   2.227  13.426   6.559
30918SOL     OW94527   2.786   3.508   1.407
30918SOL    HW194528   2.745   3.594   1.397
30918SOL    HW294529   2.774   3.487   1.500
30919SOL     OW94530   2.763   2.670  10.904
30919SOL    HW194531   2.732   2.711  10.822
30919SOL    HW294532   2.795   2.584  10.877
30920SOL     OW94533  13.049  10.132  14.218
30920SOL    HW194534  12.958  10.142  14.190
30920SOL    HW294535  13.064  10.037  14.216
30921SOL     OW94536   2.781   8.915   2.296
30921SOL    HW194537   2.774   8.829   2.339
30921SOL    HW294538   2.774   8.978   2.367
30922SOL     OW94539  13.226   7.194   3.371
30922SOL    HW194540  13.261   7.182   3.459
30922SOL    HW294541  13.259   7.280   3.344
30923SOL     OW94542   4.379   8.703   2.910
30923SOL    HW194543   4.345   8.790   2.889
30923SOL    HW294544   4.381   8.657   2.826
30924SOL     OW94545   8.937   7.636  14.096
30924SOL    HW194546   8.892   7.635  14.012
30924SOL    HW294547   8.935   7.727  14.124
30925SOL     OW94548   1.058  14.039  13.564
30925SOL    HW194549   1.012  14.122  13.581
30925SOL    HW294550   1.135  14.042  13.621
30926SOL     OW94551   2.844   9.284  13.638
30926SOL    HW194552   2.905   9.308  13.568
30926SOL    HW294553   2.842   9.361  13.695
30927SOL     OW94554   1.488  13.667   9.997
30927SOL    HW194555   1.576  13.673  10.033
30927SOL    HW294556   1.485  13.582   9.953
30928SOL     OW94557   3.811  10.069  14.145
30928SOL    HW194558   3.831  10.130  14.074
30928SOL    HW294559   3.873  10.092  14.215
30929SOL     OW94560   1.610  10.390   9.543
30929SOL    HW194561   1.663  10.447   9.598
30929SOL    HW294562   1.536  10.445   9.517
30930SOL     OW94563   0.219  10.164   2.434
30930SOL    HW194564   0.279  10.105   2.388
30930SOL    HW294565   0.267  10.190   2.513
30931SOL     OW94566   1.053   2.556   8.683
30931SOL    HW194567   1.108   2.633   8.676
30931SOL    HW294568   0.985   2.569   8.616
30932SOL     OW94569  10.083  14.391   1.291
30932SOL    HW194570  10.062  14.416   1.381
30932SOL    HW294571  10.015  14.432   1.238
30933SOL     OW94572  11.522  10.752   9.746
30933SOL    HW194573  11.432  10.771   9.771
30933SOL    HW294574  11.574  10.772   9.824
30934SOL     OW94575  10.971   4.768  11.390
30934SOL    HW194576  11.062   4.739  11.391
30934SOL    HW294577  10.927   4.710  11.452
30935SOL     OW94578  10.261   0.947  10.219
30935SOL    HW194579  10.286   0.988  10.302
30935SOL    HW294580  10.283   1.012  10.153
30936SOL     OW94581   0.812   5.706   0.353
30936SOL    HW194582   0.905   5.721   0.371
30936SOL    HW294583   0.781   5.790   0.318
30937SOL     OW94584  12.728  11.161  12.451
30937SOL    HW194585  12.788  11.087  12.440
30937SOL    HW294586  12.680  11.141  12.531
30938SOL     OW94587   9.043   5.922   3.479
30938SOL    HW194588   9.132   5.886   3.479
30938SOL    HW294589   8.990   5.858   3.526
30939SOL     OW94590  14.781   4.167   4.990
30939SOL    HW194591  14.773   4.107   4.917
30939SOL    HW294592  14.777   4.111   5.068
30940SOL     OW94593  13.029  13.422   1.414
30940SOL    HW194594  12.969  13.478   1.463
30940SOL    HW294595  13.045  13.348   1.472
30941SOL     OW94596  11.159   6.624   2.489
30941SOL    HW194597  11.153   6.702   2.435
30941SOL    HW294598  11.122   6.649   2.573
30942SOL     OW94599   2.761   4.431  12.058
30942SOL    HW194600   2.824   4.490  12.017
30942SOL    HW294601   2.746   4.363  11.992
30943SOL     OW94602   0.735   8.297  10.430
30943SOL    HW194603   0.830   8.288  10.434
30943SOL    HW294604   0.713   8.361  10.498
30944SOL     OW94605  11.376   7.912   2.444
30944SOL    HW194606  11.421   7.861   2.512
30944SOL    HW294607  11.435   7.986   2.426
30945SOL     OW94608  14.695   4.884   3.610
30945SOL    HW194609  14.664   4.876   3.520
30945SOL    HW294610  14.757   4.812   3.621
30946SOL     OW94611   9.915   5.523  14.429
30946SOL    HW194612   9.849   5.588  14.454
30946SOL    HW294613   9.968   5.567  14.363
30947SOL     OW94614  12.344  12.043  11.324
30947SOL    HW194615  12.283  12.106  11.361
30947SOL    HW294616  12.312  12.027  11.235
30948SOL     OW94617   6.570   5.956   0.550
30948SOL    HW194618   6.645   5.902   0.527
30948SOL    HW294619   6.606   6.044   0.560
30949SOL     OW94620   6.339  13.497   0.138
30949SOL    HW194621   6.243  13.501   0.141
30949SOL    HW294622   6.368  13.574   0.188
30950SOL     OW94623   8.259  12.183   7.078
30950SOL    HW194624   8.276  12.090   7.095
30950SOL    HW294625   8.252  12.188   6.983
30951SOL     OW94626  12.221  12.341   5.499
30951SOL    HW194627  12.314  12.363   5.507
30951SOL    HW294628  12.196  12.373   5.412
30952SOL     OW94629  14.297   3.239   8.990
30952SOL    HW194630  14.317   3.332   8.994
30952SOL    HW294631  14.203   3.235   8.972
30953SOL     OW94632   4.044   7.361   5.600
30953SOL    HW194633   4.009   7.349   5.512
30953SOL    HW294634   4.097   7.282   5.615
30954SOL     OW94635   8.989   9.326   3.100
30954SOL    HW194636   9.077   9.290   3.114
30954SOL    HW294637   8.933   9.249   3.093
30955SOL     OW94638   3.776   1.582   9.541
30955SOL    HW194639   3.712   1.615   9.604
30955SOL    HW294640   3.812   1.661   9.500
30956SOL     OW94641   5.866   6.289   0.564
30956SOL    HW194642   5.857   6.243   0.481
30956SOL    HW294643   5.786   6.269   0.612
30957SOL     OW94644  12.241   0.615   0.500
30957SOL    HW194645  12.235   0.551   0.429
30957SOL    HW294646  12.177   0.682   0.478
30958SOL     OW94647  14.802   2.522   4.471
30958SOL    HW194648  14.768   2.438   4.439
30958SOL    HW294649   0.003   2.537   4.420
30959SOL     OW94650   7.418  11.583   4.647
30959SOL    HW194651   7.502  11.626   4.661
30959SOL    HW294652   7.384  11.621   4.566
30960SOL     OW94653   4.398   0.116   2.374
30960SOL    HW194654   4.455   0.044   2.345
30960SOL    HW294655   4.397   0.108   2.469
30961SOL     OW94656   7.977   7.218   8.087
30961SOL    HW194657   7.993   7.312   8.083
30961SOL    HW294658   8.059   7.181   8.120
30962SOL     OW94659  11.489  10.035   0.142
30962SOL    HW194660  11.472   9.946   0.174
30962SOL    HW294661  11.403  10.071   0.124
30963SOL     OW94662  14.686   7.206   6.534
30963SOL    HW194663  14.769   7.159   6.530
30963SOL    HW294664  14.708   7.296   6.512
30964SOL     OW94665   9.119   7.006   2.315
30964SOL    HW194666   9.187   7.032   2.377
30964SOL    HW294667   9.092   7.088   2.273
30965SOL     OW94668   5.158   6.926  11.959
30965SOL    HW194669   5.228   6.954  12.018
30965SOL    HW294670   5.169   6.832  11.951
30966SOL     OW94671   4.812   2.553  10.766
30966SOL    HW194672   4.861   2.478  10.735
30966SOL    HW294673   4.785   2.599  10.686
30967SOL     OW94674   1.802  11.211   4.345
30967SOL    HW194675   1.768  11.277   4.406
30967SOL    HW294676   1.888  11.245   4.319
30968SOL     OW94677  12.212  11.609   1.272
30968SOL    HW194678  12.225  11.555   1.350
30968SOL    HW294679  12.260  11.690   1.290
30969SOL     OW94680   6.963   7.894  13.464
30969SOL    HW194681   6.940   7.876  13.555
30969SOL    HW294682   7.028   7.964  13.469
30970SOL     OW94683   4.749  11.329   6.969
30970SOL    HW194684   4.818  11.371   7.020
30970SOL    HW294685   4.771  11.236   6.971
30971SOL     OW94686   3.784   4.784   3.070
30971SOL    HW194687   3.707   4.818   3.025
30971SOL    HW294688   3.858   4.826   3.026
30972SOL     OW94689   9.832  13.625   1.548
30972SOL    HW194690   9.749  13.652   1.587
30972SOL    HW294691   9.814  13.539   1.510
30973SOL     OW94692   0.478   1.585  14.120
30973SOL    HW194693   0.457   1.495  14.146
30973SOL    HW294694   0.544   1.575  14.050
30974SOL     OW94695  10.398   2.088  10.404
30974SOL    HW194696  10.418   2.024  10.472
30974SOL    HW294697  10.478   2.139  10.394
30975SOL     OW94698  13.017   3.754   7.851
30975SOL    HW194699  12.924   3.733   7.859
30975SOL    HW294700  13.056   3.677   7.811
30976SOL     OW94701  13.429  12.306   9.956
30976SOL    HW194702  13.362  12.374   9.959
30976SOL    HW294703  13.446  12.286  10.048
30977SOL     OW94704   8.398  12.206   3.102
30977SOL    HW194705   8.435  12.174   3.020
30977SOL    HW294706   8.386  12.300   3.088
30978SOL     OW94707  11.973   8.558  11.771
30978SOL    HW194708  11.910   8.582  11.839
30978SOL    HW294709  12.056   8.596  11.801
30979SOL     OW94710  13.535   6.262   1.976
30979SOL    HW194711  13.599   6.215   1.924
30979SOL    HW294712  13.505   6.333   1.919
30980SOL     OW94713  13.329   5.356   1.249
30980SOL    HW194714  13.396   5.304   1.205
30980SOL    HW294715  13.374   5.394   1.324
30981SOL     OW94716   6.292  10.300  11.226
30981SOL    HW194717   6.336  10.358  11.289
30981SOL    HW294718   6.200  10.326  11.229
30982SOL     OW94719  14.271   6.192   1.864
30982SOL    HW194720  14.199   6.164   1.806
30982SOL    HW294721  14.348   6.191   1.808
30983SOL     OW94722   7.458   5.098   8.174
30983SOL    HW194723   7.462   5.142   8.259
30983SOL    HW294724   7.549   5.074   8.154
30984SOL     OW94725  12.131  12.704  10.323
30984SOL    HW194726  12.101  12.792  10.305
30984SOL    HW294727  12.096  12.683  10.410
30985SOL     OW94728   2.322   2.592   0.033
30985SOL    HW194729   2.281   2.547   0.107
30985SOL    HW294730   2.312   2.531  14.837
30986SOL     OW94731   5.894  11.362   4.648
30986SOL    HW194732   5.829  11.315   4.597
30986SOL    HW294733   5.883  11.454   4.622
30987SOL     OW94734   0.522   2.343  13.914
30987SOL    HW194735   0.494   2.435  13.905
30987SOL    HW294736   0.590   2.332  13.849
30988SOL     OW94737  10.386   7.980  12.988
30988SOL    HW194738  10.449   8.027  13.042
30988SOL    HW294739  10.342   8.048  12.937
30989SOL     OW94740   8.696   0.398  10.109
30989SOL    HW194741   8.686   0.394  10.204
30989SOL    HW294742   8.613   0.365  10.074
30990SOL     OW94743   4.400   1.509  13.142
30990SOL    HW194744   4.470   1.453  13.174
30990SOL    HW294745   4.422   1.526  13.051
30991SOL     OW94746   7.315   5.568   2.343
30991SOL    HW194747   7.360   5.508   2.282
30991SOL    HW294748   7.370   5.567   2.422
30992SOL     OW94749  12.076   3.008   1.263
30992SOL    HW194750  12.110   3.051   1.342
30992SOL    HW294751  12.154   2.989   1.211
30993SOL     OW94752   4.437   3.027   9.182
30993SOL    HW194753   4.435   3.019   9.086
30993SOL    HW294754   4.530   3.031   9.204
30994SOL     OW94755  13.712   1.594  14.842
30994SOL    HW194756  13.684   1.579   0.054
30994SOL    HW294757  13.777   1.526  14.825
30995SOL     OW94758   7.926   0.878   2.593
30995SOL    HW194759   7.875   0.872   2.674
30995SOL    HW294760   8.016   0.862   2.620
30996SOL     OW94761  13.706   9.573  12.976
30996SOL    HW194762  13.618   9.581  12.939
30996SOL    HW294763  13.734   9.663  12.992
30997SOL     OW94764   2.005   0.720  12.797
30997SOL    HW194765   1.915   0.695  12.774
30997SOL    HW294766   2.057   0.641  12.782
30998SOL     OW94767  11.360   8.237   9.467
30998SOL    HW194768  11.270   8.266   9.479
30998SOL    HW294769  11.395   8.295   9.399
30999SOL     OW94770  12.134  13.982  12.643
30999SOL    HW194771  12.213  13.988  12.698
30999SOL    HW294772  12.068  13.943  12.700
31000SOL     OW94773  12.637   4.181   6.595
31000SOL    HW194774  12.608   4.226   6.674
31000SOL    HW294775  12.728   4.158   6.613
31001SOL     OW94776   8.585   5.646  12.148
31001SOL    HW194777   8.577   5.619  12.056
31001SOL    HW294778   8.611   5.737  12.145
31002SOL     OW94779   2.742   2.947   9.188
31002SOL    HW194780   2.709   2.857   9.182
31002SOL    HW294781   2.671   2.995   9.230
31003SOL     OW94782  12.930  12.895  11.826
31003SOL    HW194783  12.862  12.841  11.866
31003SOL    HW294784  12.959  12.845  11.750
31004SOL     OW94785  14.031   5.695  11.627
31004SOL    HW194786  13.968   5.760  11.598
31004SOL    HW294787  14.096   5.744  11.678
31005SOL     OW94788   4.280  11.398   2.021
31005SOL    HW194789   4.359  11.396   2.074
31005SOL    HW294790   4.311  11.413   1.931
31006SOL     OW94791  14.587   5.042   8.988
31006SOL    HW194792  14.563   5.065   9.078
31006SOL    HW294793  14.682   5.029   8.992
31007SOL     OW94794  13.666   2.129   1.413
31007SOL    HW194795  13.700   2.070   1.480
31007SOL    HW294796  13.588   2.168   1.452
31008SOL     OW94797   5.094   5.634   8.072
31008SOL    HW194798   5.150   5.697   8.027
31008SOL    HW294799   5.134   5.623   8.159
31009SOL     OW94800   3.134  10.948   1.924
31009SOL    HW194801   3.043  10.921   1.935
31009SOL    HW294802   3.157  10.919   1.836
31010SOL     OW94803  11.186   8.989  13.055
31010SOL    HW194804  11.206   8.899  13.081
31010SOL    HW294805  11.269   9.024  13.022
31011SOL     OW94806   6.320   4.409   6.232
31011SOL    HW194807   6.318   4.463   6.311
31011SOL    HW294808   6.390   4.447   6.179
31012SOL     OW94809   5.650  11.744   9.091
31012SOL    HW194810   5.573  11.688   9.087
31012SOL    HW294811   5.616  11.833   9.078
31013SOL     OW94812   8.076  11.421   0.090
31013SOL    HW194813   8.071  11.457   0.001
31013SOL    HW294814   8.129  11.342   0.080
31014SOL     OW94815   5.664   7.447   3.611
31014SOL    HW194816   5.638   7.443   3.519
31014SOL    HW294817   5.581   7.450   3.659
31015SOL     OW94818   1.720  14.099  11.894
31015SOL    HW194819   1.679  14.183  11.915
31015SOL    HW294820   1.722  14.052  11.977
31016SOL     OW94821   0.777   0.431  13.236
31016SOL    HW194822   0.689   0.410  13.266
31016SOL    HW294823   0.825   0.451  13.316
31017SOL     OW94824   6.397   6.176  14.580
31017SOL    HW194825   6.428   6.220  14.659
31017SOL    HW294826   6.322   6.226  14.552
31018SOL     OW94827   8.475   2.207  12.258
31018SOL    HW194828   8.488   2.112  12.265
31018SOL    HW294829   8.458   2.235  12.348
31019SOL     OW94830  11.461   1.885  14.231
31019SOL    HW194831  11.399   1.943  14.187
31019SOL    HW294832  11.542   1.935  14.237
31020SOL     OW94833  13.754   4.584  11.343
31020SOL    HW194834  13.828   4.599  11.402
31020SOL    HW294835  13.793   4.583  11.256
31021SOL     OW94836   9.093   1.644   3.894
31021SOL    HW194837   9.069   1.733   3.869
31021SOL    HW294838   9.088   1.644   3.990
31022SOL     OW94839  13.629  11.578   9.900
31022SOL    HW194840  13.665  11.568   9.812
31022SOL    HW294841  13.558  11.641   9.890
31023SOL     OW94842   8.309  14.473   4.286
31023SOL    HW194843   8.221  14.462   4.321
31023SOL    HW294844   8.358  14.397   4.320
31024SOL     OW94845  11.458   6.529   6.853
31024SOL    HW194846  11.448   6.618   6.821
31024SOL    HW294847  11.468   6.476   6.773
31025SOL     OW94848   9.251   0.566   1.921
31025SOL    HW194849   9.206   0.597   2.000
31025SOL    HW294850   9.303   0.491   1.951
31026SOL     OW94851   1.511   8.517   3.792
31026SOL    HW194852   1.552   8.496   3.708
31026SOL    HW294853   1.557   8.463   3.856
31027SOL     OW94854  14.715   6.368  13.914
31027SOL    HW194855  14.657   6.320  13.973
31027SOL    HW294856  14.785   6.307  13.893
31028SOL     OW94857   4.702  13.009   2.541
31028SOL    HW194858   4.774  13.022   2.603
31028SOL    HW294859   4.727  13.061   2.464
31029SOL     OW94860   1.019   7.758   9.916
31029SOL    HW194861   1.045   7.824   9.852
31029SOL    HW294862   0.966   7.805   9.980
31030SOL     OW94863  11.368   3.001   8.120
31030SOL    HW194864  11.463   3.009   8.111
31030SOL    HW294865  11.355   2.950   8.200
31031SOL     OW94866  10.611   3.711   1.025
31031SOL    HW194867  10.639   3.695   0.935
31031SOL    HW294868  10.594   3.805   1.028
31032SOL     OW94869  11.003  14.642   8.930
31032SOL    HW194870  10.953  14.626   9.009
31032SOL    HW294871  11.050  14.560   8.914
31033SOL     OW94872   1.860   7.418  11.278
31033SOL    HW194873   1.773   7.391  11.307
31033SOL    HW294874   1.920   7.358  11.321
31034SOL     OW94875  13.046  11.988  14.138
31034SOL    HW194876  13.016  11.924  14.203
31034SOL    HW294877  13.036  12.072  14.182
31035SOL     OW94878   9.177  11.240   5.697
31035SOL    HW194879   9.091  11.199   5.687
31035SOL    HW294880   9.167  11.298   5.772
31036SOL     OW94881   4.626  10.659   1.978
31036SOL    HW194882   4.622  10.726   1.910
31036SOL    HW294883   4.534  10.641   1.999
31037SOL     OW94884  10.683   6.682   1.975
31037SOL    HW194885  10.630   6.728   1.909
31037SOL    HW294886  10.723   6.752   2.026
31038SOL     OW94887   1.525  12.781   6.291
31038SOL    HW194888   1.442  12.755   6.331
31038SOL    HW294889   1.517  12.751   6.200
31039SOL     OW94890   7.517   9.261  14.404
31039SOL    HW194891   7.581   9.195  14.430
31039SOL    HW294892   7.469   9.220  14.332
31040SOL     OW94893   5.482   6.423   6.477
31040SOL    HW194894   5.531   6.454   6.401
31040SOL    HW294895   5.391   6.422   6.449
31041SOL     OW94896   7.723   8.737  13.037
31041SOL    HW194897   7.653   8.729  12.973
31041SOL    HW294898   7.751   8.829  13.030
31042SOL     OW94899  12.023   6.962   0.852
31042SOL    HW194900  12.000   6.869   0.855
31042SOL    HW294901  11.997   6.990   0.765
31043SOL     OW94902   1.787   4.630   6.306
31043SOL    HW194903   1.817   4.629   6.397
31043SOL    HW294904   1.867   4.640   6.255
31044SOL     OW94905   7.493   2.966   1.136
31044SOL    HW194906   7.500   3.051   1.180
31044SOL    HW294907   7.546   2.907   1.189
31045SOL     OW94908   2.588   9.711   1.120
31045SOL    HW194909   2.505   9.680   1.156
31045SOL    HW294910   2.617   9.641   1.062
31046SOL     OW94911   6.577   5.389  13.269
31046SOL    HW194912   6.619   5.423  13.348
31046SOL    HW294913   6.483   5.401  13.284
31047SOL     OW94914  10.712   0.015  11.585
31047SOL    HW194915  10.695  14.819  11.644
31047SOL    HW294916  10.625   0.050  11.566
31048SOL     OW94917   9.167  11.331   6.317
31048SOL    HW194918   9.208  11.393   6.256
31048SOL    HW294919   9.080  11.316   6.282
31049SOL     OW94920   6.754   1.447  13.107
31049SOL    HW194921   6.744   1.408  13.194
31049SOL    HW294922   6.776   1.539  13.125
31050SOL     OW94923  10.272   8.529  12.462
31050SOL    HW194924  10.253   8.567  12.377
31050SOL    HW294925  10.359   8.492  12.454
31051SOL     OW94926   1.930   2.888  13.364
31051SOL    HW194927   1.859   2.835  13.328
31051SOL    HW294928   1.957   2.841  13.443
31052SOL     OW94929   9.919  10.152   9.226
31052SOL    HW194930  10.004  10.107   9.226
31052SOL    HW294931   9.860  10.092   9.181
31053SOL     OW94932  11.247  10.949   0.375
31053SOL    HW194933  11.248  10.870   0.429
31053SOL    HW294934  11.186  11.008   0.421
31054SOL     OW94935   4.690   8.784   4.493
31054SOL    HW194936   4.732   8.731   4.425
31054SOL    HW294937   4.761   8.807   4.553
31055SOL     OW94938   7.547   9.757   9.495
31055SOL    HW194939   7.634   9.791   9.517
31055SOL    HW294940   7.537   9.778   9.402
31056SOL     OW94941   8.080  14.806   2.230
31056SOL    HW194942   8.157  14.848   2.269
31056SOL    HW294943   8.111  14.719   2.204
31057SOL     OW94944  10.801   7.247   7.242
31057SOL    HW194945  10.872   7.184   7.227
31057SOL    HW294946  10.811   7.311   7.171
31058SOL     OW94947  10.171  13.809  11.652
31058SOL    HW194948  10.094  13.756  11.671
31058SOL    HW294949  10.197  13.783  11.564
31059SOL     OW94950   9.913   4.467   8.156
31059SOL    HW194951  10.003   4.446   8.133
31059SOL    HW294952   9.886   4.532   8.091
31060SOL     OW94953   8.453   6.867   4.502
31060SOL    HW194954   8.358   6.862   4.507
31060SOL    HW294955   8.471   6.946   4.451
31061SOL     OW94956  12.321   4.946   2.573
31061SOL    HW194957  12.364   4.908   2.497
31061SOL    HW294958  12.355   4.896   2.647
31062SOL     OW94959   6.597  11.309   3.301
31062SOL    HW194960   6.576  11.216   3.307
31062SOL    HW294961   6.632  11.320   3.212
31063SOL     OW94962  10.854  11.454   8.296
31063SOL    HW194963  10.796  11.378   8.302
31063SOL    HW294964  10.941  11.416   8.285
31064SOL     OW94965   8.154   5.768  14.822
31064SOL    HW194966   8.115   5.681  14.834
31064SOL    HW294967   8.231   5.767   0.001
31065SOL     OW94968   5.207   4.773   3.894
31065SOL    HW194969   5.282   4.728   3.934
31065SOL    HW294970   5.230   4.866   3.898
31066SOL     OW94971   6.310  13.206   9.629
31066SOL    HW194972   6.244  13.192   9.698
31066SOL    HW294973   6.274  13.162   9.552
31067SOL     OW94974   2.623   9.909   7.589
31067SOL    HW194975   2.557   9.914   7.520
31067SOL    HW294976   2.658   9.820   7.582
31068SOL     OW94977   8.014  10.611  12.186
31068SOL    HW194978   7.982  10.576  12.269
31068SOL    HW294979   7.939  10.657  12.149
31069SOL     OW94980   5.775   5.388   3.070
31069SOL    HW194981   5.848   5.408   3.129
31069SOL    HW294982   5.697   5.399   3.124
31070SOL     OW94983   7.462   0.603  10.195
31070SOL    HW194984   7.479   0.535  10.130
31070SOL    HW294985   7.455   0.556  10.278
31071SOL     OW94986  12.729   8.799   6.021
31071SOL    HW194987  12.738   8.758   5.935
31071SOL    HW294988  12.779   8.743   6.080
31072SOL     OW94989   7.793   9.656   4.912
31072SOL    HW194990   7.877   9.635   4.871
31072SOL    HW294991   7.807   9.639   5.005
31073SOL     OW94992  13.176   5.972   0.474
31073SOL    HW194993  13.123   6.022   0.536
31073SOL    HW294994  13.235   6.037   0.435
31074SOL     OW94995  13.472   3.457   3.968
31074SOL    HW194996  13.444   3.383   3.915
31074SOL    HW294997  13.401   3.520   3.961
31075SOL     OW94998   2.252  14.618   1.992
31075SOL    HW194999   2.231  14.642   1.902
31075SOL    HW295000   2.270  14.525   1.989
31076SOL     OW95001   2.876  14.426   6.115
31076SOL    HW195002   2.786  14.394   6.121
31076SOL    HW295003   2.884  14.461   6.026
31077SOL     OW95004  13.474  11.706  12.882
31077SOL    HW195005  13.541  11.764  12.918
31077SOL    HW295006  13.485  11.713  12.787
31078SOL     OW95007   2.286  10.296   2.160
31078SOL    HW195008   2.247  10.353   2.226
31078SOL    HW295009   2.215  10.235   2.136
31079SOL     OW95010   8.478  11.358   6.127
31079SOL    HW195011   8.463  11.277   6.175
31079SOL    HW295012   8.395  11.405   6.132
31080SOL     OW95013   1.076   4.946  13.704
31080SOL    HW195014   1.172   4.941  13.705
31080SOL    HW295015   1.049   4.887  13.774
31081SOL     OW95016   9.408   8.033  11.231
31081SOL    HW195017   9.413   7.938  11.224
31081SOL    HW295018   9.477   8.065  11.173
31082SOL     OW95019   3.690  10.155   4.824
31082SOL    HW195020   3.779  10.183   4.804
31082SOL    HW295021   3.657  10.120   4.741
31083SOL     OW95022   1.688   5.883   9.202
31083SOL    HW195023   1.728   5.821   9.263
31083SOL    HW295024   1.747   5.959   9.204
31084SOL     OW95025   6.140  14.643   3.298
31084SOL    HW195026   6.120  14.712   3.361
31084SOL    HW295027   6.197  14.583   3.346
31085SOL     OW95028   6.240  11.012  11.948
31085SOL    HW195029   6.265  11.045  12.034
31085SOL    HW295030   6.144  11.019  11.946
31086SOL     OW95031   8.320  14.344   3.733
31086SOL    HW195032   8.340  14.437   3.725
31086SOL    HW295033   8.333  14.308   3.645
31087SOL     OW95034  12.954   6.013  12.349
31087SOL    HW195035  12.881   5.982  12.404
31087SOL    HW295036  13.029   5.961  12.377
31088SOL     OW95037   2.331   3.725   4.834
31088SOL    HW195038   2.390   3.755   4.902
31088SOL    HW295039   2.387   3.714   4.757
31089SOL     OW95040   8.892   3.114   2.440
31089SOL    HW195041   8.950   3.087   2.512
31089SOL    HW295042   8.934   3.193   2.404
31090SOL     OW95043  13.799   9.084  13.274
31090SOL    HW195044  13.831   9.125  13.354
31090SOL    HW295045  13.705   9.103  13.273
31091SOL     OW95046  14.832  13.099   0.591
31091SOL    HW195047  14.763  13.064   0.535
31091SOL    HW295048  14.851  13.029   0.653
31092SOL     OW95049   9.480   8.662   7.118
31092SOL    HW195050   9.413   8.609   7.162
31092SOL    HW295051   9.526   8.706   7.189
31093SOL     OW95052   0.044   0.016  14.072
31093SOL    HW195053  14.859   0.074  14.113
31093SOL    HW295054  14.869  14.823  14.035
31094SOL     OW95055  12.400   7.775   1.744
31094SOL    HW195056  12.330   7.729   1.791
31094SOL    HW295057  12.383   7.757   1.652
31095SOL     OW95058   2.526   1.376   0.541
31095SOL    HW195059   2.543   1.470   0.526
31095SOL    HW295060   2.463   1.352   0.473
31096SOL     OW95061   8.104   1.524   2.223
31096SOL    HW195062   8.132   1.589   2.288
31096SOL    HW295063   8.010   1.540   2.212
31097SOL     OW95064   3.721   2.678   3.748
31097SOL    HW195065   3.736   2.741   3.818
31097SOL    HW295066   3.779   2.706   3.678
31098SOL     OW95067   6.178  12.221  10.606
31098SOL    HW195068   6.158  12.136  10.568
31098SOL    HW295069   6.126  12.283  10.555
31099SOL     OW95070   7.770   0.528   1.889
31099SOL    HW195071   7.733   0.603   1.842
31099SOL    HW295072   7.741   0.540   1.979
31100SOL     OW95073   2.783   5.416  12.125
31100SOL    HW195074   2.772   5.354  12.053
31100SOL    HW295075   2.868   5.393  12.163
31101SOL     OW95076  11.776   5.415   7.512
31101SOL    HW195077  11.681   5.405   7.502
31101SOL    HW295078  11.801   5.477   7.444
31102SOL     OW95079  10.746   3.594   7.498
31102SOL    HW195080  10.752   3.688   7.478
31102SOL    HW295081  10.672   3.587   7.559
31103SOL     OW95082  10.947   6.895  13.144
31103SOL    HW195083  10.982   6.812  13.113
31103SOL    HW295084  10.861   6.873  13.179
31104SOL     OW95085   4.641   9.182   7.207
31104SOL    HW195086   4.704   9.123   7.248
31104SOL    HW295087   4.556   9.142   7.224
31105SOL     OW95088   3.794  11.679  12.634
31105SOL    HW195089   3.841  11.696  12.552
31105SOL    HW295090   3.847  11.613  12.679
31106SOL     OW95091   3.377   6.122   1.513
31106SOL    HW195092   3.311   6.183   1.480
31106SOL    HW295093   3.457   6.145   1.465
31107SOL     OW95094   3.156   1.339   4.279
31107SOL    HW195095   3.205   1.367   4.202
31107SOL    HW295096   3.205   1.376   4.353
31108SOL     OW95097   9.649   9.040   4.592
31108SOL    HW195098   9.574   9.094   4.619
31108SOL    HW295099   9.715   9.104   4.564
31109SOL     OW95100  14.277   9.144   3.686
31109SOL    HW195101  14.262   9.209   3.754
31109SOL    HW295102  14.194   9.097   3.678
31110SOL     OW95103   5.791   7.695   3.496
31110SOL    HW195104   5.768   7.774   3.447
31110SOL    HW295105   5.718   7.635   3.479
31111SOL     OW95106  12.358   3.654   0.076
31111SOL    HW195107  12.414   3.583   0.109
31111SOL    HW295108  12.272   3.614   0.067
31112SOL     OW95109   9.655   0.763   5.515
31112SOL    HW195110   9.622   0.845   5.553
31112SOL    HW295111   9.675   0.708   5.591
31113SOL     OW95112   3.363   9.806   9.788
31113SOL    HW195113   3.276   9.846   9.777
31113SOL    HW295114   3.415   9.874   9.830
31114SOL     OW95115   5.800   7.094  11.256
31114SOL    HW195116   5.799   7.133  11.168
31114SOL    HW295117   5.893   7.076  11.273
31115SOL     OW95118  11.418   8.055   9.648
31115SOL    HW195119  11.367   7.976   9.630
31115SOL    HW295120  11.399   8.113   9.574
31116SOL     OW95121   5.188   4.228  13.289
31116SOL    HW195122   5.113   4.260  13.239
31116SOL    HW295123   5.252   4.201  13.222
31117SOL     OW95124  10.216  14.436  14.432
31117SOL    HW195125  10.165  14.402  14.359
31117SOL    HW295126  10.300  14.461  14.393
31118SOL     OW95127   3.831   3.361   1.107
31118SOL    HW195128   3.773   3.332   1.177
31118SOL    HW295129   3.917   3.327   1.131
31119SOL     OW95130   3.168   3.043   6.158
31119SOL    HW195131   3.144   3.033   6.250
31119SOL    HW295132   3.234   2.976   6.144
31120SOL     OW95133   9.282   8.642   1.207
31120SOL    HW195134   9.270   8.736   1.196
31120SOL    HW295135   9.205   8.614   1.256
31121SOL     OW95136   3.435  13.013  10.885
31121SOL    HW195137   3.527  12.997  10.868
31121SOL    HW295138   3.424  13.107  10.870
31122SOL     OW95139   0.644   4.323  13.870
31122SOL    HW195140   0.645   4.399  13.929
31122SOL    HW295141   0.589   4.351  13.796
31123SOL     OW95142   9.621  11.064   2.964
31123SOL    HW195143   9.610  11.118   2.886
31123SOL    HW295144   9.545  11.005   2.964
31124SOL     OW95145   1.391  11.097  11.310
31124SOL    HW195146   1.449  11.053  11.372
31124SOL    HW295147   1.381  11.185  11.345
31125SOL     OW95148   1.133   8.470   6.410
31125SOL    HW195149   1.115   8.517   6.491
31125SOL    HW295150   1.148   8.380   6.437
31126SOL     OW95151   7.107  10.927   9.583
31126SOL    HW195152   7.012  10.933   9.573
31126SOL    HW295153   7.129  10.839   9.552
31127SOL     OW95154  10.564   8.748  11.300
31127SOL    HW195155  10.617   8.675  11.332
31127SOL    HW295156  10.569   8.742  11.205
31128SOL     OW95157   5.566   8.722   6.062
31128SOL    HW195158   5.587   8.813   6.043
31128SOL    HW295159   5.645   8.673   6.039
31129SOL     OW95160   2.619  10.578   4.112
31129SOL    HW195161   2.692  10.516   4.121
31129SOL    HW295162   2.561  10.558   4.185
31130SOL     OW95163  10.390   6.668  12.627
31130SOL    HW195164  10.456   6.610  12.588
31130SOL    HW295165  10.397   6.652  12.721
31131SOL     OW95166   4.513   2.766   4.680
31131SOL    HW195167   4.608   2.772   4.693
31131SOL    HW295168   4.498   2.810   4.597
31132SOL     OW95169   7.787   3.158  12.501
31132SOL    HW195170   7.861   3.161  12.440
31132SOL    HW295171   7.821   3.113  12.578
31133SOL     OW95172   7.945   0.016   3.649
31133SOL    HW195173   7.901   0.099   3.669
31133SOL    HW295174   7.989  14.870   3.730
31134SOL     OW95175   1.997   5.083  14.753
31134SOL    HW195176   1.964   4.994  14.753
31134SOL    HW295177   2.079   5.079  14.704
31135SOL     OW95178   5.448   6.229   2.793
31135SOL    HW195179   5.367   6.186   2.821
31135SOL    HW295180   5.459   6.302   2.854
31136SOL     OW95181  13.206  13.561   4.574
31136SOL    HW195182  13.123  13.581   4.530
31136SOL    HW295183  13.270  13.619   4.533
31137SOL     OW95184  13.960   6.744  10.131
31137SOL    HW195185  13.960   6.649  10.118
31137SOL    HW295186  13.882   6.775  10.086
31138SOL     OW95187   8.135   4.832   5.318
31138SOL    HW195188   8.181   4.772   5.377
31138SOL    HW295189   8.060   4.782   5.287
31139SOL     OW95190   4.144   4.594   2.385
31139SOL    HW195191   4.200   4.616   2.311
31139SOL    HW295192   4.202   4.550   2.448
31140SOL     OW95193   5.502   2.277  12.422
31140SOL    HW195194   5.424   2.222  12.429
31140SOL    HW295195   5.552   2.240  12.350
31141SOL     OW95196   8.796   2.061   3.291
31141SOL    HW195197   8.856   2.125   3.329
31141SOL    HW295198   8.831   1.976   3.319
31142SOL     OW95199   0.157  13.488   9.867
31142SOL    HW195200   0.157  13.530   9.954
31142SOL    HW295201   0.089  13.533   9.818
31143SOL     OW95202   5.059  10.035  13.425
31143SOL    HW195203   5.008  10.058  13.348
31143SOL    HW295204   5.140   9.997  13.389
31144SOL     OW95205   4.599  12.188  11.916
31144SOL    HW195206   4.624  12.117  11.976
31144SOL    HW295207   4.659  12.178  11.842
31145SOL     OW95208   4.139   8.545   9.830
31145SOL    HW195209   4.085   8.577   9.902
31145SOL    HW295210   4.083   8.551   9.753
31146SOL     OW95211  11.965  14.560  12.970
31146SOL    HW195212  11.988  14.478  13.014
31146SOL    HW295213  11.898  14.535  12.906
31147SOL     OW95214   5.961   1.534  13.779
31147SOL    HW195215   6.027   1.472  13.811
31147SOL    HW295216   5.937   1.501  13.692
31148SOL     OW95217   2.707   6.323   1.381
31148SOL    HW195218   2.716   6.243   1.432
31148SOL    HW295219   2.684   6.390   1.445
31149SOL     OW95220   6.477  12.616   5.064
31149SOL    HW195221   6.534  12.626   5.140
31149SOL    HW295222   6.530  12.570   5.000
31150SOL     OW95223  10.058   4.877   7.691
31150SOL    HW195224  10.072   4.790   7.655
31150SOL    HW295225  10.114   4.880   7.768
31151SOL     OW95226  13.225   9.984  13.933
31151SOL    HW195227  13.317   9.991  13.906
31151SOL    HW295228  13.230   9.972  14.028
31152SOL     OW95229   3.517   2.942   6.333
31152SOL    HW195230   3.499   2.992   6.412
31152SOL    HW295231   3.563   2.864   6.363
31153SOL     OW95232  11.861   8.712  10.981
31153SOL    HW195233  11.939   8.713  11.036
31153SOL    HW295234  11.789   8.700  11.043
31154SOL     OW95235   5.881  12.250   2.818
31154SOL    HW195236   5.841  12.315   2.875
31154SOL    HW295237   5.854  12.166   2.855
31155SOL     OW95238  11.942  12.227   6.254
31155SOL    HW195239  11.961  12.225   6.160
31155SOL    HW295240  11.947  12.319   6.278
31156SOL     OW95241   7.493   6.479  11.933
31156SOL    HW195242   7.551   6.532  11.987
31156SOL    HW295243   7.546   6.402  11.909
31157SOL     OW95244  13.102   9.063   4.155
31157SOL    HW195245  13.032   9.116   4.118
31157SOL    HW295246  13.097   8.980   4.108
31158SOL     OW95247   9.000   4.163  13.363
31158SOL    HW195248   8.986   4.241  13.417
31158SOL    HW295249   8.915   4.146  13.324
31159SOL     OW95250   7.664   7.017   0.546
31159SOL    HW195251   7.719   7.033   0.622
31159SOL    HW295252   7.698   7.076   0.479
31160SOL     OW95253  11.817   9.263  10.272
31160SOL    HW195254  11.782   9.184  10.313
31160SOL    HW295255  11.848   9.234  10.187
31161SOL     OW95256   6.148   2.411   3.189
31161SOL    HW195257   6.098   2.492   3.203
31161SOL    HW295258   6.163   2.409   3.094
31162SOL     OW95259  13.127  10.806   5.555
31162SOL    HW195260  13.138  10.861   5.478
31162SOL    HW295261  13.136  10.867   5.629
31163SOL     OW95262  11.301   3.597  14.487
31163SOL    HW195263  11.206   3.590  14.485
31163SOL    HW295264  11.328   3.540  14.560
31164SOL     OW95265   6.517   8.713  13.834
31164SOL    HW195266   6.548   8.770  13.763
31164SOL    HW295267   6.497   8.630  13.792
31165SOL     OW95268   5.932  11.901   3.734
31165SOL    HW195269   5.987  11.827   3.761
31165SOL    HW295270   5.976  11.978   3.771
31166SOL     OW95271   3.087   1.218  10.565
31166SOL    HW195272   3.110   1.307  10.594
31166SOL    HW295273   3.167   1.167  10.581
31167SOL     OW95274  12.841   4.372  12.189
31167SOL    HW195275  12.826   4.292  12.139
31167SOL    HW295276  12.910   4.349  12.251
31168SOL     OW95277   4.309  12.420   1.865
31168SOL    HW195278   4.382  12.363   1.892
31168SOL    HW295279   4.280  12.385   1.781
31169SOL     OW95280   4.744   3.551  14.861
31169SOL    HW195281   4.779   3.569   0.070
31169SOL    HW295282   4.670   3.611  14.852
31170SOL     OW95283  14.323  13.196   2.591
31170SOL    HW195284  14.314  13.101   2.586
31170SOL    HW295285  14.418  13.211   2.596
31171SOL     OW95286   0.408   1.991  10.415
31171SOL    HW195287   0.404   1.914  10.358
31171SOL    HW295288   0.319   2.027  10.414
31172SOL     OW95289  12.863  12.806  14.456
31172SOL    HW195290  12.875  12.728  14.403
31172SOL    HW295291  12.837  12.874  14.393
31173SOL     OW95292   0.089   5.182   8.628
31173SOL    HW195293   0.078   5.249   8.696
31173SOL    HW295294   0.009   5.188   8.575
31174SOL     OW95295   1.686   6.864   1.375
31174SOL    HW195296   1.734   6.924   1.318
31174SOL    HW295297   1.637   6.808   1.315
31175SOL     OW95298  12.147   2.773   0.407
31175SOL    HW195299  12.205   2.731   0.470
31175SOL    HW295300  12.203   2.791   0.331
31176SOL     OW95301  14.652   3.388  12.647
31176SOL    HW195302  14.676   3.453  12.713
31176SOL    HW295303  14.683   3.305  12.682
31177SOL     OW95304   0.697   7.146   0.943
31177SOL    HW195305   0.742   7.067   0.912
31177SOL    HW295306   0.656   7.182   0.864
31178SOL     OW95307   6.031   9.077   3.985
31178SOL    HW195308   6.090   9.084   4.060
31178SOL    HW295309   5.950   9.041   4.021
31179SOL     OW95310   1.613   6.579   4.102
31179SOL    HW195311   1.578   6.619   4.182
31179SOL    HW295312   1.674   6.644   4.068
31180SOL     OW95313  10.958  14.748  14.371
31180SOL    HW195314  10.952  14.654  14.385
31180SOL    HW295315  11.028  14.758  14.306
31181SOL     OW95316  10.817   9.867  14.198
31181SOL    HW195317  10.725   9.893  14.201
31181SOL    HW295318  10.866   9.948  14.208
31182SOL     OW95319   3.290   1.373  11.766
31182SOL    HW195320   3.298   1.464  11.795
31182SOL    HW295321   3.196   1.353  11.776
31183SOL     OW95322   1.953  11.553   8.622
31183SOL    HW195323   1.935  11.638   8.580
31183SOL    HW295324   1.925  11.489   8.557
31184SOL     OW95325  13.804   4.959  10.752
31184SOL    HW195326  13.883   4.987  10.798
31184SOL    HW295327  13.820   4.983  10.661
31185SOL     OW95328   3.998   2.329   3.361
31185SOL    HW195329   4.049   2.358   3.437
31185SOL    HW295330   3.924   2.390   3.358
31186SOL     OW95331   6.940   2.293   0.176
31186SOL    HW195332   6.863   2.349   0.187
31186SOL    HW295333   6.929   2.253   0.090
31187SOL     OW95334   0.950   7.764   8.533
31187SOL    HW195335   0.922   7.814   8.609
31187SOL    HW295336   1.037   7.797   8.512
31188SOL     OW95337   4.112   1.396  14.515
31188SOL    HW195338   4.103   1.489  14.493
31188SOL    HW295339   4.181   1.364  14.457
31189SOL     OW95340   8.721   5.765  10.222
31189SOL    HW195341   8.657   5.766  10.294
31189SOL    HW295342   8.790   5.707  10.252
31190SOL     OW95343  14.224  12.843  11.084
31190SOL    HW195344  14.304  12.808  11.044
31190SOL    HW295345  14.213  12.929  11.045
31191SOL     OW95346  10.624  11.960   0.497
31191SOL    HW195347  10.545  12.013   0.488
31191SOL    HW295348  10.592  11.870   0.502
31192SOL     OW95349  13.483   2.569   5.890
31192SOL    HW195350  13.542   2.543   5.961
31192SOL    HW295351  13.433   2.642   5.926
31193SOL     OW95352   3.676   4.349  12.210
31193SOL    HW195353   3.642   4.420  12.156
31193SOL    HW295354   3.603   4.323  12.266
31194SOL     OW95355   1.913   4.567  12.110
31194SOL    HW195356   1.945   4.488  12.066
31194SOL    HW295357   1.990   4.621  12.124
31195SOL     OW95358  12.956   1.619   0.859
31195SOL    HW195359  13.043   1.657   0.855
31195SOL    HW295360  12.897   1.693   0.841
31196SOL     OW95361  11.083   2.238  12.472
31196SOL    HW195362  11.051   2.191  12.549
31196SOL    HW295363  11.042   2.325  12.479
31197SOL     OW95364   1.888  10.003   6.713
31197SOL    HW195365   1.856   9.961   6.793
31197SOL    HW295366   1.949  10.070   6.743
31198SOL     OW95367  14.319  11.477   5.324
31198SOL    HW195368  14.356  11.420   5.391
31198SOL    HW295369  14.272  11.544   5.373
31199SOL     OW95370   3.932   1.669  13.311
31199SOL    HW195371   3.978   1.674  13.227
31199SOL    HW295372   3.923   1.576  13.328
31200SOL     OW95373   8.905  10.190   9.085
31200SOL    HW195374   8.876  10.118   9.140
31200SOL    HW295375   8.957  10.246   9.143
31201SOL     OW95376   3.455  13.347  13.524
31201SOL    HW195377   3.361  13.365  13.518
31201SOL    HW295378   3.461  13.271  13.583
31202SOL     OW95379   9.360   6.821   8.413
31202SOL    HW195380   9.410   6.885   8.465
31202SOL    HW295381   9.425   6.780   8.357
31203SOL     OW95382   0.146   9.348  12.905
31203SOL    HW195383   0.130   9.381  12.993
31203SOL    HW295384   0.239   9.325  12.905
31204SOL     OW95385  13.340   5.939  10.593
31204SOL    HW195386  13.386   5.969  10.672
31204SOL    HW295387  13.259   5.899  10.626
31205SOL     OW95388   7.954   6.732   7.222
31205SOL    HW195389   7.902   6.729   7.302
31205SOL    HW295390   8.026   6.671   7.237
31206SOL     OW95391   0.639   5.404   3.302
31206SOL    HW195392   0.684   5.338   3.249
31206SOL    HW295393   0.708   5.466   3.326
31207SOL     OW95394   7.893   0.058   0.489
31207SOL    HW195395   7.954  14.873   0.449
31207SOL    HW295396   7.870   0.117   0.418
31208SOL     OW95397  13.231  11.485   0.627
31208SOL    HW195398  13.205  11.406   0.580
31208SOL    HW295399  13.149  11.530   0.645
31209SOL     OW95400   9.366   8.699   6.663
31209SOL    HW195401   9.451   8.711   6.706
31209SOL    HW295402   9.367   8.761   6.591
31210SOL     OW95403   9.313  12.286   6.980
31210SOL    HW195404   9.313  12.201   7.024
31210SOL    HW295405   9.222  12.298   6.953
31211SOL     OW95406   4.550   4.126   6.328
31211SOL    HW195407   4.569   4.220   6.331
31211SOL    HW295408   4.632   4.085   6.358
31212SOL     OW95409   1.333  11.777  10.996
31212SOL    HW195410   1.340  11.684  11.018
31212SOL    HW295411   1.239  11.795  11.002
31213SOL     OW95412   0.129   2.599  14.422
31213SOL    HW195413   0.168   2.513  14.408
31213SOL    HW295414   0.135   2.612  14.517
31214SOL     OW95415   7.795   7.777  11.049
31214SOL    HW195416   7.822   7.703  10.996
31214SOL    HW295417   7.844   7.767  11.131
31215SOL     OW95418  10.493   0.867   9.103
31215SOL    HW195419  10.523   0.793   9.050
31215SOL    HW295420  10.405   0.886   9.070
31216SOL     OW95421  10.072  10.246   6.075
31216SOL    HW195422  10.074  10.150   6.075
31216SOL    HW295423  10.057  10.269   5.983
31217SOL     OW95424  10.664   1.412  11.294
31217SOL    HW195425  10.594   1.349  11.276
31217SOL    HW295426  10.646   1.486  11.235
31218SOL     OW95427   6.350   7.119  12.352
31218SOL    HW195428   6.302   7.173  12.290
31218SOL    HW295429   6.356   7.172  12.431
31219SOL     OW95430   3.785   4.420   4.389
31219SOL    HW195431   3.785   4.333   4.348
31219SOL    HW295432   3.773   4.401   4.482
31220SOL     OW95433   0.751   4.799   0.450
31220SOL    HW195434   0.786   4.795   0.539
31220SOL    HW295435   0.798   4.872   0.409
31221SOL     OW95436   8.260   5.419   3.480
31221SOL    HW195437   8.351   5.424   3.452
31221SOL    HW295438   8.256   5.470   3.560
31222SOL     OW95439  11.530   7.693   2.630
31222SOL    HW195440  11.437   7.668   2.632
31222SOL    HW295441  11.577   7.612   2.647
31223SOL     OW95442   9.815   1.055   5.139
31223SOL    HW195443   9.878   1.118   5.105
31223SOL    HW295444   9.730   1.090   5.114
31224SOL     OW95445   5.313  11.464  10.964
31224SOL    HW195446   5.320  11.543  11.017
31224SOL    HW295447   5.231  11.423  10.991
31225SOL     OW95448   3.215  12.104   1.083
31225SOL    HW195449   3.195  12.164   1.011
31225SOL    HW295450   3.231  12.161   1.158
31226SOL     OW95451   4.339   5.497   4.715
31226SOL    HW195452   4.415   5.537   4.757
31226SOL    HW295453   4.366   5.408   4.696
31227SOL     OW95454   8.455   6.512  13.432
31227SOL    HW195455   8.518   6.445  13.456
31227SOL    HW295456   8.424   6.546  13.516
31228SOL     OW95457   5.701   5.820   7.725
31228SOL    HW195458   5.665   5.782   7.806
31228SOL    HW295459   5.793   5.838   7.746
31229SOL     OW95460   3.368   5.304  12.644
31229SOL    HW195461   3.423   5.365  12.595
31229SOL    HW295462   3.287   5.298  12.593
31230SOL     OW95463   0.106   9.995   8.370
31230SOL    HW195464   0.201   9.982   8.373
31230SOL    HW295465   0.076   9.972   8.458
31231SOL     OW95466   5.056  10.629   9.069
31231SOL    HW195467   5.138  10.627   9.118
31231SOL    HW295468   4.991  10.591   9.128
31232SOL     OW95469   7.628   8.655   8.193
31232SOL    HW195470   7.682   8.624   8.266
31232SOL    HW295471   7.609   8.577   8.142
31233SOL     OW95472  12.546   6.719  11.500
31233SOL    HW195473  12.582   6.808  11.490
31233SOL    HW295474  12.482   6.727  11.571
31234SOL     OW95475  10.030  14.161  11.395
31234SOL    HW195476  10.060  14.111  11.471
31234SOL    HW295477  10.107  14.166  11.338
31235SOL     OW95478   9.229  10.563   0.507
31235SOL    HW195479   9.312  10.521   0.483
31235SOL    HW295480   9.254  10.631   0.570
31236SOL     OW95481   5.291   3.762   5.735
31236SOL    HW195482   5.345   3.784   5.810
31236SOL    HW295483   5.202   3.758   5.770
31237SOL     OW95484  10.556   7.465   8.592
31237SOL    HW195485  10.597   7.386   8.629
31237SOL    HW295486  10.513   7.506   8.667
31238SOL     OW95487   8.045  11.106   7.417
31238SOL    HW195488   8.077  11.034   7.361
31238SOL    HW295489   8.002  11.062   7.490
31239SOL     OW95490   2.802   9.114   2.518
31239SOL    HW195491   2.852   9.194   2.504
31239SOL    HW295492   2.857   9.061   2.576
31240SOL     OW95493  11.781  11.133  11.527
31240SOL    HW195494  11.874  11.113  11.523
31240SOL    HW295495  11.778  11.222  11.562
31241SOL     OW95496  13.063  11.034   3.858
31241SOL    HW195497  13.141  10.983   3.879
31241SOL    HW295498  12.990  10.982   3.891
31242SOL     OW95499   8.856  11.798   8.182
31242SOL    HW195500   8.825  11.759   8.101
31242SOL    HW295501   8.870  11.724   8.241
31243SOL     OW95502   7.908  13.434  13.228
31243SOL    HW195503   7.935  13.353  13.184
31243SOL    HW295504   7.813  13.438  13.214
31244SOL     OW95505   3.136  11.850   2.184
31244SOL    HW195506   3.055  11.875   2.139
31244SOL    HW295507   3.197  11.921   2.164
31245SOL     OW95508  13.993  14.514   8.611
31245SOL    HW195509  13.970  14.436   8.561
31245SOL    HW295510  14.088  14.506   8.626
31246SOL     OW95511  10.182  10.967  10.813
31246SOL    HW195512  10.130  10.902  10.860
31246SOL    HW295513  10.214  10.922  10.735
31247SOL     OW95514   0.491   4.117   8.780
31247SOL    HW195515   0.504   4.126   8.686
31247SOL    HW295516   0.519   4.201   8.816
31248SOL     OW95517   1.025   1.508  13.117
31248SOL    HW195518   1.032   1.420  13.154
31248SOL    HW295519   0.982   1.496  13.033
31249SOL     OW95520   3.444   2.610   5.710
31249SOL    HW195521   3.491   2.641   5.787
31249SOL    HW295522   3.367   2.667   5.704
31250SOL     OW95523   8.325  14.604   2.759
31250SOL    HW195524   8.385  14.557   2.701
31250SOL    HW295525   8.262  14.646   2.700
31251SOL     OW95526   1.987   5.662   2.577
31251SOL    HW195527   2.038   5.652   2.657
31251SOL    HW295528   1.942   5.746   2.588
31252SOL     OW95529   4.809   7.723  10.875
31252SOL    HW195530   4.893   7.767  10.859
31252SOL    HW295531   4.830   7.652  10.935
31253SOL     OW95532   2.008   0.732  11.118
31253SOL    HW195533   2.086   0.715  11.064
31253SOL    HW295534   2.042   0.777  11.195
31254SOL     OW95535   9.263   6.921   6.951
31254SOL    HW195536   9.215   6.870   7.016
31254SOL    HW295537   9.267   7.010   6.987
31255SOL     OW95538  14.474   8.515   0.536
31255SOL    HW195539  14.415   8.469   0.477
31255SOL    HW295540  14.470   8.607   0.507
31256SOL     OW95541  14.060   2.998   1.685
31256SOL    HW195542  14.053   3.083   1.728
31256SOL    HW295543  13.988   2.946   1.722
31257SOL     OW95544   4.130  12.349   4.044
31257SOL    HW195545   4.165  12.429   4.005
31257SOL    HW295546   4.090  12.378   4.127
31258SOL     OW95547  14.200  11.733   2.133
31258SOL    HW195548  14.155  11.785   2.066
31258SOL    HW295549  14.134  11.668   2.159
31259SOL     OW95550   6.402  13.022   7.797
31259SOL    HW195551   6.432  13.032   7.706
31259SOL    HW295552   6.431  13.102   7.840
31260SOL     OW95553   8.159   1.158   3.701
31260SOL    HW195554   8.217   1.234   3.696
31260SOL    HW295555   8.200   1.101   3.766
31261SOL     OW95556   0.179   3.670  14.680
31261SOL    HW195557   0.252   3.723  14.646
31261SOL    HW295558   0.102   3.705  14.636
31262SOL     OW95559   8.791  12.179  11.502
31262SOL    HW195560   8.696  12.172  11.490
31262SOL    HW295561   8.809  12.127  11.580
31263SOL     OW95562   3.634   2.511   1.193
31263SOL    HW195563   3.574   2.511   1.118
31263SOL    HW295564   3.638   2.419   1.220
31264SOL     OW95565   9.726   3.562  14.133
31264SOL    HW195566   9.789   3.494  14.110
31264SOL    HW295567   9.651   3.545  14.077
31265SOL     OW95568  13.604  12.567   4.681
31265SOL    HW195569  13.675  12.626   4.705
31265SOL    HW295570  13.639  12.515   4.609
31266SOL     OW95571  13.852   5.983   3.493
31266SOL    HW195572  13.939   5.999   3.531
31266SOL    HW295573  13.804   5.936   3.561
31267SOL     OW95574   8.875   1.004   0.227
31267SOL    HW195575   8.809   1.036   0.165
31267SOL    HW295576   8.911   1.083   0.267
31268SOL     OW95577   4.587   8.937  13.482
31268SOL    HW195578   4.599   9.032  13.475
31268SOL    HW295579   4.651   8.911  13.549
31269SOL     OW95580   8.444   2.680  12.282
31269SOL    HW195581   8.451   2.655  12.190
31269SOL    HW295582   8.444   2.776  12.280
31270SOL     OW95583   8.820  13.376   9.939
31270SOL    HW195584   8.835  13.290   9.899
31270SOL    HW295585   8.907  13.409   9.959
31271SOL     OW95586  12.443   2.827   6.395
31271SOL    HW195587  12.396   2.837   6.313
31271SOL    HW295588  12.475   2.915   6.415
31272SOL     OW95589   5.766   8.839   7.976
31272SOL    HW195590   5.783   8.753   7.938
31272SOL    HW295591   5.713   8.820   8.054
31273SOL     OW95592   0.491   9.471   5.806
31273SOL    HW195593   0.492   9.382   5.841
31273SOL    HW295594   0.583   9.500   5.812
31274SOL     OW95595   5.603  12.197   7.008
31274SOL    HW195596   5.562  12.112   6.992
31274SOL    HW295597   5.691  12.189   6.972
31275SOL     OW95598   3.434  11.749   6.673
31275SOL    HW195599   3.512  11.803   6.673
31275SOL    HW295600   3.466  11.661   6.652
31276SOL     OW95601  10.450   2.443   9.611
31276SOL    HW195602  10.485   2.526   9.641
31276SOL    HW295603  10.378   2.424   9.671
31277SOL     OW95604  13.060   8.470  10.388
31277SOL    HW195605  13.000   8.516  10.329
31277SOL    HW295606  13.004   8.440  10.460
31278SOL     OW95607   8.017   2.866  13.341
31278SOL    HW195608   8.004   2.915  13.422
31278SOL    HW295609   8.000   2.930  13.271
31279SOL     OW95610   0.608   5.009   6.512
31279SOL    HW195611   0.587   4.989   6.420
31279SOL    HW295612   0.703   5.012   6.514
31280SOL     OW95613  12.789  14.660  14.669
31280SOL    HW195614  12.865  14.711  14.641
31280SOL    HW295615  12.804  14.642  14.762
31281SOL     OW95616  13.548  14.048   0.459
31281SOL    HW195617  13.627  14.053   0.513
31281SOL    HW295618  13.535  14.138   0.427
31282SOL     OW95619  13.676  12.918   1.941
31282SOL    HW195620  13.623  12.902   2.020
31282SOL    HW295621  13.760  12.948   1.975
31283SOL     OW95622  13.211  13.901   6.301
31283SOL    HW195623  13.289  13.872   6.255
31283SOL    HW295624  13.216  13.858   6.387
31284SOL     OW95625  10.304   3.830   5.608
31284SOL    HW195626  10.322   3.806   5.517
31284SOL    HW295627  10.252   3.758   5.642
31285SOL     OW95628   9.974   8.134   0.545
31285SOL    HW195629   9.973   8.099   0.456
31285SOL    HW295630  10.030   8.074   0.594
31286SOL     OW95631   4.316   6.903  14.493
31286SOL    HW195632   4.285   6.924  14.405
31286SOL    HW295633   4.362   6.982  14.522
31287SOL     OW95634   9.087   6.499  14.270
31287SOL    HW195635   9.016   6.530  14.326
31287SOL    HW295636   9.049   6.498  14.182
31288SOL     OW95637   9.345   9.888   1.364
31288SOL    HW195638   9.330   9.897   1.269
31288SOL    HW295639   9.261   9.858   1.398
31289SOL     OW95640  10.947   7.723   6.995
31289SOL    HW195641  10.891   7.787   6.951
31289SOL    HW295642  10.914   7.638   6.965
31290SOL     OW95643   1.175   0.710  13.012
31290SOL    HW195644   1.144   0.725  12.922
31290SOL    HW295645   1.270   0.710  13.005
31291SOL     OW95646  12.525   4.302   9.416
31291SOL    HW195647  12.566   4.216   9.425
31291SOL    HW295648  12.450   4.286   9.359
31292SOL     OW95649   5.110   0.737   4.654
31292SOL    HW195650   5.162   0.711   4.730
31292SOL    HW295651   5.156   0.700   4.579
31293SOL     OW95652   6.171   5.550   7.826
31293SOL    HW195653   6.222   5.617   7.870
31293SOL    HW295654   6.168   5.477   7.888
31294SOL     OW95655   5.488   9.868   1.057
31294SOL    HW195656   5.521   9.781   1.078
31294SOL    HW295657   5.516   9.923   1.130
31295SOL     OW95658   2.500  13.426   8.422
31295SOL    HW195659   2.506  13.459   8.332
31295SOL    HW295660   2.427  13.475   8.460
31296SOL     OW95661   1.723   8.494  10.352
31296SOL    HW195662   1.648   8.481  10.410
31296SOL    HW295663   1.769   8.410  10.354
31297SOL     OW95664   2.992   1.752  11.797
31297SOL    HW195665   3.042   1.832  11.778
31297SOL    HW295666   2.900   1.779  11.791
31298SOL     OW95667   0.065   0.260   0.676
31298SOL    HW195668   0.097   0.180   0.718
31298SOL    HW295669  14.848   0.258   0.690
31299SOL     OW95670  11.004   4.602   5.798
31299SOL    HW195671  10.980   4.518   5.759
31299SOL    HW295672  11.100   4.602   5.796
31300SOL     OW95673  13.230   2.798   5.058
31300SOL    HW195674  13.145   2.767   5.089
31300SOL    HW295675  13.287   2.720   5.061
31301SOL     OW95676   3.278   7.780  11.700
31301SOL    HW195677   3.281   7.842  11.773
31301SOL    HW295678   3.366   7.742  11.696
31302SOL     OW95679   5.887   3.202   6.059
31302SOL    HW195680   5.915   3.156   6.138
31302SOL    HW295681   5.801   3.165   6.040
31303SOL     OW95682   3.396  10.073   5.581
31303SOL    HW195683   3.314  10.120   5.571
31303SOL    HW295684   3.396  10.042   5.671
31304SOL     OW95685  10.730   2.217  13.369
31304SOL    HW195686  10.697   2.208  13.280
31304SOL    HW295687  10.661   2.264  13.416
31305SOL     OW95688  14.048   2.404   4.698
31305SOL    HW195689  14.043   2.498   4.684
31305SOL    HW295690  14.116   2.393   4.764
31306SOL     OW95691   0.245  12.851   0.836
31306SOL    HW195692   0.234  12.838   0.741
31306SOL    HW295693   0.333  12.818   0.854
31307SOL     OW95694   8.524  11.176   5.635
31307SOL    HW195695   8.552  11.223   5.713
31307SOL    HW295696   8.475  11.101   5.668
31308SOL     OW95697   3.476   5.018   6.111
31308SOL    HW195698   3.491   5.088   6.048
31308SOL    HW295699   3.383   4.995   6.100
31309SOL     OW95700   9.647  11.885   9.649
31309SOL    HW195701   9.560  11.902   9.613
31309SOL    HW295702   9.707  11.931   9.590
31310SOL     OW95703  14.033   9.043   9.844
31310SOL    HW195704  14.029   8.959   9.889
31310SOL    HW295705  14.126   9.063   9.838
31311SOL     OW95706   3.790   5.858  10.166
31311SOL    HW195707   3.749   5.772  10.178
31311SOL    HW295708   3.883   5.843  10.182
31312SOL     OW95709   5.475   1.107   1.941
31312SOL    HW195710   5.536   1.049   1.987
31312SOL    HW295711   5.478   1.190   1.989
31313SOL     OW95712  10.171   7.914   6.891
31313SOL    HW195713  10.230   7.971   6.940
31313SOL    HW295714  10.116   7.873   6.957
31314SOL     OW95715   5.931   7.571  10.109
31314SOL    HW195716   6.018   7.538  10.129
31314SOL    HW295717   5.945   7.643  10.047
31315SOL     OW95718   8.690  12.226   5.939
31315SOL    HW195719   8.624  12.169   5.978
31315SOL    HW295720   8.772  12.200   5.981
31316SOL     OW95721   6.663  11.243   7.479
31316SOL    HW195722   6.605  11.297   7.533
31316SOL    HW295723   6.668  11.160   7.527
31317SOL     OW95724   3.369   1.047  12.052
31317SOL    HW195725   3.420   1.127  12.040
31317SOL    HW295726   3.412   0.983  11.995
31318SOL     OW95727   4.047   5.103   6.254
31318SOL    HW195728   4.064   5.035   6.188
31318SOL    HW295729   4.069   5.062   6.337
31319SOL     OW95730   3.080   6.257  10.815
31319SOL    HW195731   3.047   6.334  10.769
31319SOL    HW295732   3.005   6.225  10.866
31320SOL     OW95733  14.493   4.216  13.708
31320SOL    HW195734  14.398   4.207  13.705
31320SOL    HW295735  14.520   4.158  13.780
31321SOL     OW95736  13.862   2.214   9.685
31321SOL    HW195737  13.934   2.243   9.740
31321SOL    HW295738  13.872   2.119   9.679
31322SOL     OW95739   4.006  11.098   5.207
31322SOL    HW195740   4.071  11.047   5.158
31322SOL    HW295741   3.946  11.032   5.241
31323SOL     OW95742   3.126   0.118   9.681
31323SOL    HW195743   3.086   0.124   9.767
31323SOL    HW295744   3.055   0.093   9.622
31324SOL     OW95745   0.119   6.864   0.177
31324SOL    HW195746   0.130   6.795   0.243
31324SOL    HW295747   0.119   6.817   0.093
31325SOL     OW95748  10.015   0.547  11.625
31325SOL    HW195749  10.081   0.609  11.596
31325SOL    HW295750  10.061   0.463  11.631
31326SOL     OW95751   3.754  14.247   8.700
31326SOL    HW195752   3.755  14.262   8.606
31326SOL    HW295753   3.775  14.332   8.739
31327SOL     OW95754   2.490   1.292   4.754
31327SOL    HW195755   2.421   1.231   4.778
31327SOL    HW295756   2.562   1.236   4.725
31328SOL     OW95757  14.467   9.970  13.648
31328SOL    HW195758  14.465  10.059  13.612
31328SOL    HW295759  14.539   9.927  13.602
31329SOL     OW95760   5.676  13.245   5.909
31329SOL    HW195761   5.690  13.303   5.835
31329SOL    HW295762   5.720  13.163   5.884
31330SOL     OW95763  12.445   2.619  11.649
31330SOL    HW195764  12.430   2.586  11.738
31330SOL    HW295765  12.391   2.563  11.593
31331SOL     OW95766   3.288  11.855  11.378
31331SOL    HW195767   3.299  11.821  11.289
31331SOL    HW295768   3.334  11.939  11.378
31332SOL     OW95769   0.141   4.354  13.076
31332SOL    HW195770   0.074   4.287  13.062
31332SOL    HW295771   0.123   4.420  13.009
31333SOL     OW95772   6.120   2.081   4.844
31333SOL    HW195773   6.106   2.175   4.832
31333SOL    HW295774   6.184   2.058   4.776
31334SOL     OW95775   8.132   2.979  12.792
31334SOL    HW195776   8.208   3.037  12.788
31334SOL    HW295777   8.135   2.931  12.710
31335SOL     OW95778   8.486  14.300  11.543
31335SOL    HW195779   8.461  14.296  11.635
31335SOL    HW295780   8.433  14.371  11.506
31336SOL     OW95781   2.663  12.587   9.848
31336SOL    HW195782   2.697  12.564   9.934
31336SOL    HW295783   2.672  12.507   9.795
31337SOL     OW95784   1.385   1.836   8.951
31337SOL    HW195785   1.359   1.799   9.035
31337SOL    HW295786   1.385   1.762   8.891
31338SOL     OW95787   5.024   4.634   4.060
31338SOL    HW195788   5.034   4.669   3.971
31338SOL    HW295789   4.940   4.669   4.090
31339SOL     OW95790  12.627   8.237   1.513
31339SOL    HW195791  12.549   8.188   1.485
31339SOL    HW295792  12.638   8.305   1.448
31340SOL     OW95793   6.745   0.301   5.361
31340SOL    HW195794   6.688   0.336   5.430
31340SOL    HW295795   6.702   0.220   5.332
31341SOL     OW95796  11.034   9.551  14.592
31341SOL    HW195797  10.997   9.564  14.679
31341SOL    HW295798  10.962   9.517  14.539
31342SOL     OW95799  10.165   4.813  13.816
31342SOL    HW195800  10.126   4.869  13.884
31342SOL    HW295801  10.259   4.828  13.824
31343SOL     OW95802   2.154   1.580   6.808
31343SOL    HW195803   2.176   1.538   6.725
31343SOL    HW295804   2.061   1.558   6.821
31344SOL     OW95805   6.148   7.011  12.493
31344SOL    HW195806   6.220   7.052  12.445
31344SOL    HW295807   6.181   6.923  12.515
31345SOL     OW95808  11.280   5.622  12.378
31345SOL    HW195809  11.292   5.696  12.319
31345SOL    HW295810  11.369   5.596  12.402
31346SOL     OW95811   2.061  12.920   2.626
31346SOL    HW195812   1.972  12.950   2.613
31346SOL    HW295813   2.069  12.842   2.571
31347SOL     OW95814   7.024   3.240  14.756
31347SOL    HW195815   6.978   3.234  14.672
31347SOL    HW295816   7.066   3.154  14.766
31348SOL     OW95817   6.785  14.611   9.617
31348SOL    HW195818   6.699  14.607   9.574
31348SOL    HW295819   6.767  14.593   9.709
31349SOL     OW95820  14.221   3.206   1.843
31349SOL    HW195821  14.256   3.249   1.922
31349SOL    HW295822  14.148   3.153   1.875
31350SOL     OW95823   7.202  14.270   4.824
31350SOL    HW195824   7.291  14.259   4.790
31350SOL    HW295825   7.168  14.346   4.777
31351SOL     OW95826   2.133   3.766   5.197
31351SOL    HW195827   2.191   3.830   5.235
31351SOL    HW295828   2.181   3.683   5.202
31352SOL     OW95829   0.767  13.520   1.598
31352SOL    HW195830   0.812  13.477   1.525
31352SOL    HW295831   0.689  13.467   1.613
31353SOL     OW95832  12.592   1.424   8.549
31353SOL    HW195833  12.581   1.329   8.549
31353SOL    HW295834  12.677   1.438   8.592
31354SOL     OW95835   8.439   3.511   3.820
31354SOL    HW195836   8.522   3.558   3.831
31354SOL    HW295837   8.375   3.580   3.803
31355SOL     OW95838  13.286   8.376  14.708
31355SOL    HW195839  13.262   8.465  14.734
31355SOL    HW295840  13.295   8.381  14.613
31356SOL     OW95841   9.854  12.995  11.748
31356SOL    HW195842   9.851  12.939  11.670
31356SOL    HW295843   9.899  13.075  11.718
31357SOL     OW95844   4.105   3.606  14.437
31357SOL    HW195845   4.016   3.627  14.407
31357SOL    HW295846   4.120   3.665  14.511
31358SOL     OW95847   2.662   2.297  11.023
31358SOL    HW195848   2.704   2.347  10.953
31358SOL    HW295849   2.676   2.349  11.102
31359SOL     OW95850   7.348   7.565   2.054
31359SOL    HW195851   7.320   7.653   2.077
31359SOL    HW295852   7.280   7.508   2.088
31360SOL     OW95853  11.648  13.592   2.089
31360SOL    HW195854  11.735  13.553   2.082
31360SOL    HW295855  11.651  13.644   2.169
31361SOL     OW95856   5.920   9.811  12.589
31361SOL    HW195857   5.909   9.851  12.503
31361SOL    HW295858   5.831   9.802  12.622
31362SOL     OW95859  12.454   7.794  12.831
31362SOL    HW195860  12.393   7.851  12.877
31362SOL    HW295861  12.497   7.851  12.767
31363SOL     OW95862   4.277   3.803   1.296
31363SOL    HW195863   4.209   3.792   1.363
31363SOL    HW295864   4.243   3.872   1.239
31364SOL     OW95865   0.135  12.376   6.348
31364SOL    HW195866   0.082  12.455   6.357
31364SOL    HW295867   0.086  12.308   6.393
31365SOL     OW95868  12.921   3.979   0.760
31365SOL    HW195869  12.909   3.897   0.807
31365SOL    HW295870  12.914   4.046   0.828
31366SOL     OW95871   2.975   2.094  12.286
31366SOL    HW195872   2.951   2.186  12.287
31366SOL    HW295873   3.068   2.093  12.262
31367SOL     OW95874   4.995  10.704   4.700
31367SOL    HW195875   5.083  10.735   4.717
31367SOL    HW295876   4.979  10.727   4.608
31368SOL     OW95877  11.126  13.260   1.814
31368SOL    HW195878  11.044  13.249   1.767
31368SOL    HW295879  11.188  13.202   1.769
31369SOL     OW95880  12.754  13.344   4.216
31369SOL    HW195881  12.819  13.360   4.147
31369SOL    HW295882  12.750  13.249   4.224
31370SOL     OW95883  10.553  13.860  10.323
31370SOL    HW195884  10.568  13.928  10.389
31370SOL    HW295885  10.497  13.902  10.258
31371SOL     OW95886  11.397   7.620   7.251
31371SOL    HW195887  11.322   7.613   7.192
31371SOL    HW295888  11.454   7.685   7.210
31372SOL     OW95889   1.892  13.002   9.000
31372SOL    HW195890   1.817  12.943   8.993
31372SOL    HW295891   1.947  12.981   8.925
31373SOL     OW95892  13.532   4.615   3.366
31373SOL    HW195893  13.552   4.650   3.453
31373SOL    HW295894  13.616   4.613   3.321
31374SOL     OW95895   2.372   4.179  10.890
31374SOL    HW195896   2.347   4.246  10.953
31374SOL    HW295897   2.405   4.227  10.814
31375SOL     OW95898   2.282  12.883  12.695
31375SOL    HW195899   2.249  12.965  12.731
31375SOL    HW295900   2.206  12.824  12.696
31376SOL     OW95901   5.658   6.335  12.682
31376SOL    HW195902   5.581   6.393  12.689
31376SOL    HW295903   5.632   6.256  12.729
31377SOL     OW95904  11.254   5.534   2.033
31377SOL    HW195905  11.342   5.523   2.070
31377SOL    HW295906  11.237   5.628   2.038
31378SOL     OW95907  13.429   2.865   9.567
31378SOL    HW195908  13.358   2.925   9.547
31378SOL    HW295909  13.392   2.778   9.551
31379SOL     OW95910   4.614   4.163   2.665
31379SOL    HW195911   4.690   4.211   2.698
31379SOL    HW295912   4.624   4.165   2.570
31380SOL     OW95913   3.321   9.326  14.541
31380SOL    HW195914   3.293   9.300  14.454
31380SOL    HW295915   3.311   9.248  14.595
31381SOL     OW95916  14.487   7.476   0.904
31381SOL    HW195917  14.452   7.405   0.957
31381SOL    HW295918  14.412   7.533   0.887
31382SOL     OW95919  14.393  13.228   9.171
31382SOL    HW195920  14.368  13.175   9.095
31382SOL    HW295921  14.364  13.177   9.247
31383SOL     OW95922   4.387  11.397  12.178
31383SOL    HW195923   4.333  11.318  12.184
31383SOL    HW295924   4.395  11.427  12.268
31384SOL     OW95925  13.737   4.583  14.212
31384SOL    HW195926  13.771   4.550  14.295
31384SOL    HW295927  13.705   4.671  14.232
31385SOL     OW95928  12.721  12.875   4.680
31385SOL    HW195929  12.763  12.961   4.671
31385SOL    HW295930  12.787  12.813   4.650
31386SOL     OW95931   8.180   1.936  11.990
31386SOL    HW195932   8.151   2.022  11.960
31386SOL    HW295933   8.196   1.947  12.084
31387SOL     OW95934   2.403  14.120   9.406
31387SOL    HW195935   2.432  14.198   9.453
31387SOL    HW295936   2.381  14.151   9.318
31388SOL     OW95937   8.089  11.816   4.014
31388SOL    HW195938   8.022  11.758   3.979
31388SOL    HW295939   8.054  11.847   4.097
31389SOL     OW95940   0.926   3.282   7.277
31389SOL    HW195941   0.976   3.334   7.214
31389SOL    HW295942   0.838   3.276   7.239
31390SOL     OW95943   9.798  10.301   9.788
31390SOL    HW195944   9.860  10.257   9.730
31390SOL    HW295945   9.791  10.243   9.864
31391SOL     OW95946   5.970   8.422  11.574
31391SOL    HW195947   5.951   8.469  11.493
31391SOL    HW295948   5.900   8.449  11.634
31392SOL     OW95949  14.847  11.769  11.454
31392SOL    HW195950  14.861  11.848  11.506
31392SOL    HW295951  14.805  11.801  11.373
31393SOL     OW95952   6.394   8.376  12.547
31393SOL    HW195953   6.396   8.302  12.608
31393SOL    HW295954   6.422   8.340  12.463
31394SOL     OW95955  10.579  14.000  11.248
31394SOL    HW195956  10.633  14.078  11.252
31394SOL    HW295957  10.634  13.934  11.205
31395SOL     OW95958  10.009   6.770  11.220
31395SOL    HW195959  10.044   6.786  11.133
31395SOL    HW295960   9.914   6.765  11.208
31396SOL     OW95961  12.454  14.798  10.676
31396SOL    HW195962  12.497  14.797  10.591
31396SOL    HW295963  12.442   0.013  10.696
31397SOL     OW95964   2.622   1.751   5.178
31397SOL    HW195965   2.673   1.778   5.255
31397SOL    HW295966   2.647   1.812   5.109
31398SOL     OW95967   6.424   7.392   8.080
31398SOL    HW195968   6.336   7.428   8.093
31398SOL    HW295969   6.414   7.298   8.099
31399SOL     OW95970   0.243  11.502   9.633
31399SOL    HW195971   0.259  11.430   9.573
31399SOL    HW295972   0.157  11.484   9.670
31400SOL     OW95973  11.776   3.897   3.202
31400SOL    HW195974  11.744   3.893   3.292
31400SOL    HW295975  11.870   3.880   3.209
31401SOL     OW95976   9.418   2.635  11.117
31401SOL    HW195977   9.345   2.597  11.165
31401SOL    HW295978   9.377   2.685  11.046
31402SOL     OW95979   3.766   9.113  12.375
31402SOL    HW195980   3.776   9.201  12.341
31402SOL    HW295981   3.822   9.110  12.453
31403SOL     OW95982  10.705   6.164   2.712
31403SOL    HW195983  10.783   6.111   2.696
31403SOL    HW295984  10.738   6.241   2.758
31404SOL     OW95985   5.076  12.697  11.165
31404SOL    HW195986   5.097  12.605  11.154
31404SOL    HW295987   5.146  12.731  11.221
31405SOL     OW95988   1.543  14.020  11.664
31405SOL    HW195989   1.552  13.929  11.692
31405SOL    HW295990   1.555  14.070  11.744
31406SOL     OW95991   8.384   1.633  10.853
31406SOL    HW195992   8.402   1.545  10.887
31406SOL    HW295993   8.470   1.674  10.844
31407SOL     OW95994   5.362  13.297  12.583
31407SOL    HW195995   5.295  13.240  12.619
31407SOL    HW295996   5.367  13.370  12.645
31408SOL     OW95997   7.924  13.408  11.653
31408SOL    HW195998   7.867  13.414  11.730
31408SOL    HW295999   7.866  13.377  11.583
31409SOL     OW96000  13.275   2.124  14.580
31409SOL    HW196001  13.315   2.204  14.614
31409SOL    HW296002  13.324   2.054  14.622
31410SOL     OW96003   3.044   6.139   5.474
31410SOL    HW196004   3.002   6.120   5.558
31410SOL    HW296005   3.045   6.056   5.427
31411SOL     OW96006  11.733   6.511   3.841
31411SOL    HW196007  11.797   6.577   3.812
31411SOL    HW296008  11.657   6.525   3.785
31412SOL     OW96009   0.013  12.158   9.715
31412SOL    HW196010  14.871  12.209   9.793
31412SOL    HW296011   0.059  12.081   9.746
31413SOL     OW96012   6.911   8.802   3.285
31413SOL    HW196013   6.915   8.788   3.380
31413SOL    HW296014   6.820   8.784   3.262
31414SOL     OW96015   5.262  14.694   9.271
31414SOL    HW196016   5.323  14.761   9.240
31414SOL    HW296017   5.189  14.699   9.211
31415SOL     OW96018   9.167   4.488   1.870
31415SOL    HW196019   9.136   4.544   1.798
31415SOL    HW296020   9.176   4.547   1.944
31416SOL     OW96021  14.592  10.671  14.369
31416SOL    HW196022  14.606  10.754  14.414
31416SOL    HW296023  14.526  10.690  14.303
31417SOL     OW96024  14.413   2.209   9.925
31417SOL    HW196025  14.385   2.245  10.009
31417SOL    HW296026  14.332   2.181   9.882
31418SOL     OW96027   0.199  10.497  13.128
31418SOL    HW196028   0.127  10.511  13.189
31418SOL    HW296029   0.161  10.447  13.056
31419SOL     OW96030  10.939   4.768   2.805
31419SOL    HW196031  10.851   4.755   2.840
31419SOL    HW296032  10.986   4.814   2.874
31420SOL     OW96033  11.755   0.701  14.785
31420SOL    HW196034  11.704   0.763  14.838
31420SOL    HW296035  11.784   0.752  14.710
31421SOL     OW96036   7.718   9.478   8.623
31421SOL    HW196037   7.668   9.402   8.594
31421SOL    HW296038   7.710   9.477   8.719
31422SOL     OW96039  14.732   0.989   1.480
31422SOL    HW196040  14.826   0.996   1.491
31422SOL    HW296041  14.707   1.070   1.435
31423SOL     OW96042   3.954  14.727   7.260
31423SOL    HW196043   3.899  14.648   7.259
31423SOL    HW296044   4.031  14.702   7.311
31424SOL     OW96045  12.160   4.657  11.054
31424SOL    HW196046  12.074   4.627  11.084
31424SOL    HW296047  12.189   4.589  10.993
31425SOL     OW96048   2.220   3.727  13.988
31425SOL    HW196049   2.162   3.789  13.942
31425SOL    HW296050   2.267   3.780  14.052
31426SOL     OW96051   4.654  12.015   3.917
31426SOL    HW196052   4.656  11.921   3.932
31426SOL    HW296053   4.655  12.025   3.822
31427SOL     OW96054   5.196   3.075  13.186
31427SOL    HW196055   5.220   3.128  13.110
31427SOL    HW296056   5.121   3.023  13.156
31428SOL     OW96057  14.525  11.195  10.153
31428SOL    HW196058  14.616  11.210  10.128
31428SOL    HW296059  14.476  11.260  10.104
31429SOL     OW96060  11.889   2.530  13.667
31429SOL    HW196061  11.951   2.593  13.629
31429SOL    HW296062  11.925   2.444  13.645
31430SOL     OW96063   6.170  13.109   4.317
31430SOL    HW196064   6.255  13.066   4.312
31430SOL    HW296065   6.173  13.160   4.398
31431SOL     OW96066  11.593  13.984   2.543
31431SOL    HW196067  11.653  13.935   2.599
31431SOL    HW296068  11.509  13.978   2.589
31432SOL     OW96069  13.636   3.996   5.880
31432SOL    HW196070  13.550   4.028   5.908
31432SOL    HW296071  13.699   4.054   5.924
31433SOL     OW96072  10.257   4.464   2.435
31433SOL    HW196073  10.337   4.417   2.456
31433SOL    HW296074  10.238   4.440   2.344
31434SOL     OW96075   5.968   2.089   8.192
31434SOL    HW196076   5.926   2.051   8.269
31434SOL    HW296077   5.985   2.180   8.217
31435SOL     OW96078  11.226   8.933   5.916
31435SOL    HW196079  11.180   8.922   6.000
31435SOL    HW296080  11.162   8.906   5.850
31436SOL     OW96081   4.249   3.847   0.106
31436SOL    HW196082   4.249   3.917   0.041
31436SOL    HW296083   4.341   3.830   0.123
31437SOL     OW96084   6.683  13.545   8.879
31437SOL    HW196085   6.634  13.471   8.915
31437SOL    HW296086   6.631  13.622   8.902
31438SOL     OW96087   5.600  10.060   0.603
31438SOL    HW196088   5.521  10.085   0.555
31438SOL    HW296089   5.637  10.143   0.634
31439SOL     OW96090  14.171  14.551   2.967
31439SOL    HW196091  14.140  14.480   3.023
31439SOL    HW296092  14.193  14.622   3.028
31440SOL     OW96093   6.207  12.237  12.109
31440SOL    HW196094   6.219  12.325  12.146
31440SOL    HW296095   6.296  12.203  12.101
31441SOL     OW96096   2.772   6.625   6.796
31441SOL    HW196097   2.724   6.552   6.757
31441SOL    HW296098   2.862   6.614   6.764
31442SOL     OW96099   2.070   3.503   4.584
31442SOL    HW196100   2.054   3.420   4.629
31442SOL    HW296101   2.084   3.566   4.655
31443SOL     OW96102   6.322   3.704   1.759
31443SOL    HW196103   6.376   3.629   1.734
31443SOL    HW296104   6.370   3.781   1.728
31444SOL     OW96105  10.863   5.129  11.274
31444SOL    HW196106  10.772   5.129  11.303
31444SOL    HW296107  10.861   5.091  11.186
31445SOL     OW96108   3.592   9.194  11.719
31445SOL    HW196109   3.572   9.232  11.634
31445SOL    HW296110   3.510   9.200  11.768
31446SOL     OW96111   3.703   7.144  14.137
31446SOL    HW196112   3.749   7.153  14.054
31446SOL    HW296113   3.612   7.127  14.112
31447SOL     OW96114   9.912   3.376   3.328
31447SOL    HW196115   9.831   3.364   3.280
31447SOL    HW296116   9.970   3.420   3.266
31448SOL     OW96117   3.094   3.808   3.030
31448SOL    HW196118   3.011   3.852   3.045
31448SOL    HW296119   3.087   3.771   2.942
31449SOL     OW96120   0.077  10.112   1.736
31449SOL    HW196121  14.865  10.086   1.757
31449SOL    HW296122   0.069  10.202   1.705
31450SOL     OW96123   8.680   9.483  10.126
31450SOL    HW196124   8.644   9.437  10.051
31450SOL    HW296125   8.669   9.423  10.200
31451SOL     OW96126  13.705  10.872   0.189
31451SOL    HW196127  13.746  10.925   0.120
31451SOL    HW296128  13.611  10.879   0.172
31452SOL     OW96129  11.808   7.372  12.245
31452SOL    HW196130  11.861   7.380  12.324
31452SOL    HW296131  11.835   7.446  12.190
31453SOL     OW96132   3.445   3.173   7.724
31453SOL    HW196133   3.516   3.237   7.722
31453SOL    HW296134   3.461   3.118   7.647
31454SOL     OW96135   8.921  14.291   1.539
31454SOL    HW196136   8.866  14.316   1.613
31454SOL    HW296137   9.010  14.291   1.575
31455SOL     OW96138   7.817   0.169   5.352
31455SOL    HW196139   7.866   0.099   5.395
31455SOL    HW296140   7.749   0.192   5.415
31456SOL     OW96141   2.200   0.806   9.895
31456SOL    HW196142   2.241   0.808   9.982
31456SOL    HW296143   2.214   0.894   9.861
31457SOL     OW96144  14.531  10.919  11.849
31457SOL    HW196145  14.520  10.930  11.944
31457SOL    HW296146  14.611  10.967  11.829
31458SOL     OW96147   1.927  11.670  13.158
31458SOL    HW196148   1.937  11.721  13.238
31458SOL    HW296149   2.014  11.671  13.118
31459SOL     OW96150   6.984   6.067  10.313
31459SOL    HW196151   6.982   5.998  10.379
31459SOL    HW296152   7.055   6.125  10.341
31460SOL     OW96153  10.734   7.548   3.541
31460SOL    HW196154  10.735   7.459   3.505
31460SOL    HW296155  10.728   7.605   3.464
31461SOL     OW96156  11.225   4.177  12.859
31461SOL    HW196157  11.187   4.186  12.947
31461SOL    HW296158  11.290   4.246  12.853
31462SOL     OW96159   9.401   3.555  13.709
31462SOL    HW196160   9.426   3.580  13.620
31462SOL    HW296161   9.470   3.592  13.764
31463SOL     OW96162   5.328  11.263   2.081
31463SOL    HW196163   5.386  11.197   2.043
31463SOL    HW296164   5.294  11.222   2.160
31464SOL     OW96165  14.786   8.017   0.355
31464SOL    HW196166   0.002   8.035   0.362
31464SOL    HW296167  14.766   7.969   0.435
31465SOL     OW96168   0.681  10.903   3.119
31465SOL    HW196169   0.764  10.946   3.097
31465SOL    HW296170   0.635  10.896   3.035
31466SOL     OW96171   6.467   8.807   5.590
31466SOL    HW196172   6.529   8.820   5.661
31466SOL    HW296173   6.405   8.879   5.598
31467SOL     OW96174   1.477   5.447   5.997
31467SOL    HW196175   1.402   5.427   5.941
31467SOL    HW296176   1.542   5.485   5.939
31468SOL     OW96177   9.592  12.460   4.146
31468SOL    HW196178   9.588  12.387   4.084
31468SOL    HW296179   9.531  12.525   4.111
31469SOL     OW96180   5.956   9.952  13.656
31469SOL    HW196181   5.977   9.901  13.734
31469SOL    HW296182   5.907  10.028  13.689
31470SOL     OW96183   7.389   2.734   3.079
31470SOL    HW196184   7.478   2.712   3.108
31470SOL    HW296185   7.388   2.709   2.987
31471SOL     OW96186   0.928  10.381  11.687
31471SOL    HW196187   0.853  10.422  11.731
31471SOL    HW296188   0.892  10.344  11.606
31472SOL     OW96189   4.640   2.043   3.052
31472SOL    HW196190   4.634   2.114   2.989
31472SOL    HW296191   4.647   1.964   2.999
31473SOL     OW96192   1.847   7.274  11.656
31473SOL    HW196193   1.924   7.276  11.598
31473SOL    HW296194   1.863   7.201  11.716
31474SOL     OW96195   4.613   4.050   6.854
31474SOL    HW196196   4.672   3.976   6.866
31474SOL    HW296197   4.667   4.118   6.814
31475SOL     OW96198   3.357   2.061   6.461
31475SOL    HW196199   3.331   2.079   6.551
31475SOL    HW296200   3.301   2.119   6.409
31476SOL     OW96201   3.153   0.491   2.521
31476SOL    HW196202   3.078   0.472   2.577
31476SOL    HW296203   3.193   0.405   2.504
31477SOL     OW96204   9.214  13.573   5.484
31477SOL    HW196205   9.162  13.652   5.497
31477SOL    HW296206   9.186  13.513   5.553
31478SOL     OW96207   8.169   5.771   5.246
31478SOL    HW196208   8.219   5.797   5.323
31478SOL    HW296209   8.205   5.824   5.175
31479SOL     OW96210  10.067   9.960   4.863
31479SOL    HW196211  10.039  10.040   4.820
31479SOL    HW296212  10.154   9.942   4.828
31480SOL     OW96213   6.094  10.663   8.735
31480SOL    HW196214   6.056  10.687   8.651
31480SOL    HW296215   6.175  10.713   8.741
31481SOL     OW96216   8.185  12.618   1.671
31481SOL    HW196217   8.203  12.590   1.582
31481SOL    HW296218   8.155  12.539   1.716
31482SOL     OW96219   9.211  14.442   6.365
31482SOL    HW196220   9.306  14.445   6.359
31482SOL    HW296221   9.183  14.414   6.277
31483SOL     OW96222   9.381  14.171  11.473
31483SOL    HW196223   9.289  14.181  11.449
31483SOL    HW296224   9.397  14.240  11.537
31484SOL     OW96225  10.444   8.477  13.546
31484SOL    HW196226  10.357   8.518  13.554
31484SOL    HW296227  10.458   8.470  13.452
31485SOL     OW96228   6.533   3.681  10.045
31485SOL    HW196229   6.573   3.664   9.960
31485SOL    HW296230   6.594   3.643  10.109
31486SOL     OW96231   0.353  11.569   2.946
31486SOL    HW196232   0.301  11.493   2.920
31486SOL    HW296233   0.333  11.635   2.880
31487SOL     OW96234  12.282  13.316  12.260
31487SOL    HW196235  12.217  13.377  12.225
31487SOL    HW296236  12.342  13.300  12.187
31488SOL     OW96237   7.241  12.558  12.688
31488SOL    HW196238   7.197  12.587  12.768
31488SOL    HW296239   7.324  12.607  12.687
31489SOL     OW96240   4.556   8.963   5.916
31489SOL    HW196241   4.470   8.926   5.936
31489SOL    HW296242   4.543   9.010   5.834
31490SOL     OW96243   4.067  11.542   9.693
31490SOL    HW196244   4.161  11.562   9.700
31490SOL    HW296245   4.064  11.456   9.652
31491SOL     OW96246   3.494   9.647   5.594
31491SOL    HW196247   3.522   9.617   5.507
31491SOL    HW296248   3.436   9.721   5.576
31492SOL     OW96249  12.376   9.860  13.337
31492SOL    HW196250  12.332   9.860  13.253
31492SOL    HW296251  12.457   9.811  13.322
31493SOL     OW96252   8.366  11.642   7.267
31493SOL    HW196253   8.332  11.648   7.357
31493SOL    HW296254   8.423  11.718   7.258
31494SOL     OW96255   8.108   9.257   4.331
31494SOL    HW196256   8.032   9.300   4.371
31494SOL    HW296257   8.074   9.220   4.249
31495SOL     OW96258   2.806   9.956   4.104
31495SOL    HW196259   2.872   9.942   4.036
31495SOL    HW296260   2.722   9.956   4.057
31496SOL     OW96261  11.535   1.616   9.258
31496SOL    HW196262  11.498   1.601   9.171
31496SOL    HW296263  11.610   1.556   9.263
31497SOL     OW96264  12.609  11.064   5.914
31497SOL    HW196265  12.674  11.051   5.845
31497SOL    HW296266  12.636  11.006   5.984
31498SOL     OW96267   6.620  12.406   8.577
31498SOL    HW196268   6.675  12.457   8.517
31498SOL    HW296269   6.631  12.315   8.548
31499SOL     OW96270   2.957   5.613   1.488
31499SOL    HW196271   2.862   5.606   1.490
31499SOL    HW296272   2.975   5.699   1.528
31500SOL     OW96273  12.918   0.737   8.570
31500SOL    HW196274  12.976   0.743   8.646
31500SOL    HW296275  12.963   0.677   8.510
31501SOL     OW96276  10.472   6.850   3.780
31501SOL    HW196277  10.541   6.816   3.836
31501SOL    HW296278  10.397   6.861   3.838
31502SOL     OW96279  13.876  11.460   7.083
31502SOL    HW196280  13.901  11.478   7.174
31502SOL    HW296281  13.958  11.466   7.034
31503SOL     OW96282  12.884   9.867   0.793
31503SOL    HW196283  12.830   9.894   0.868
31503SOL    HW296284  12.914   9.779   0.816
31504SOL     OW96285  14.118  10.511   4.904
31504SOL    HW196286  14.047  10.528   4.966
31504SOL    HW296287  14.158  10.430   4.936
31505SOL     OW96288   8.758  14.664   7.580
31505SOL    HW196289   8.714  14.739   7.621
31505SOL    HW296290   8.769  14.689   7.489
31506SOL     OW96291   6.407  14.303  12.798
31506SOL    HW196292   6.317  14.333  12.792
31506SOL    HW296293   6.458  14.383  12.814
31507SOL     OW96294   2.911  12.643   5.562
31507SOL    HW196295   2.857  12.710   5.521
31507SOL    HW296296   2.948  12.686   5.640
31508SOL     OW96297  12.059   7.394  11.818
31508SOL    HW196298  12.111   7.318  11.845
31508SOL    HW296299  11.968   7.365  11.830
31509SOL     OW96300  12.873   7.249   2.586
31509SOL    HW196301  12.789   7.204   2.573
31509SOL    HW296302  12.938   7.179   2.587
31510SOL     OW96303   7.026  13.558   4.302
31510SOL    HW196304   7.082  13.556   4.225
31510SOL    HW296305   7.077  13.604   4.369
31511SOL     OW96306  12.864  11.056  11.164
31511SOL    HW196307  12.771  11.034  11.166
31511SOL    HW296308  12.883  11.075  11.073
31512SOL     OW96309  10.881  14.382  10.784
31512SOL    HW196310  10.887  14.317  10.713
31512SOL    HW296311  10.951  14.444  10.766
31513SOL     OW96312  10.767   3.006   8.901
31513SOL    HW196313  10.701   2.988   8.834
31513SOL    HW296314  10.813   2.923   8.912
31514SOL     OW96315   4.579   7.471   5.948
31514SOL    HW196316   4.499   7.423   5.971
31514SOL    HW296317   4.559   7.512   5.864
31515SOL     OW96318  13.906   0.259   1.885
31515SOL    HW196319  13.989   0.306   1.896
31515SOL    HW296320  13.863   0.304   1.813
31516SOL     OW96321   6.493   5.974   6.537
31516SOL    HW196322   6.586   5.980   6.516
31516SOL    HW296323   6.454   5.929   6.463
31517SOL     OW96324  14.174   6.842   9.593
31517SOL    HW196325  14.187   6.757   9.635
31517SOL    HW296326  14.228   6.903   9.644
31518SOL     OW96327  14.044  10.030  13.276
31518SOL    HW196328  14.062   9.964  13.208
31518SOL    HW296329  14.100  10.004  13.350
31519SOL     OW96330   4.289   3.701   9.833
31519SOL    HW196331   4.326   3.781   9.797
31519SOL    HW296332   4.236   3.665   9.762
31520SOL     OW96333   7.060   9.613  11.811
31520SOL    HW196334   7.150   9.643  11.800
31520SOL    HW296335   7.057   9.581  11.901
31521SOL     OW96336   2.902   3.688   9.330
31521SOL    HW196337   2.876   3.623   9.395
31521SOL    HW296338   2.992   3.710   9.353
31522SOL     OW96339   0.913   2.025   1.478
31522SOL    HW196340   0.948   2.086   1.413
31522SOL    HW296341   0.962   2.046   1.558
31523SOL     OW96342  12.837  13.604   5.106
31523SOL    HW196343  12.896  13.623   5.033
31523SOL    HW296344  12.888  13.549   5.166
31524SOL     OW96345   4.251  13.425   9.709
31524SOL    HW196346   4.346  13.427   9.696
31524SOL    HW296347   4.226  13.334   9.692
31525SOL     OW96348  14.628   0.668   4.275
31525SOL    HW196349  14.694   0.671   4.206
31525SOL    HW296350  14.631   0.755   4.314
31526SOL     OW96351   0.296  11.756   1.316
31526SOL    HW196352   0.301  11.741   1.410
31526SOL    HW296353   0.358  11.827   1.300
31527SOL     OW96354   3.766  12.538   5.462
31527SOL    HW196355   3.814  12.456   5.453
31527SOL    HW296356   3.807  12.581   5.537
31528SOL     OW96357   4.815   6.623   3.841
31528SOL    HW196358   4.845   6.712   3.862
31528SOL    HW296359   4.895   6.570   3.843
31529SOL     OW96360   2.563   6.308   6.434
31529SOL    HW196361   2.470   6.312   6.455
31529SOL    HW296362   2.569   6.250   6.358
31530SOL     OW96363   9.841   6.368   3.918
31530SOL    HW196364   9.786   6.387   3.842
31530SOL    HW296365   9.792   6.404   3.993
31531SOL     OW96366   5.155   8.422  14.003
31531SOL    HW196367   5.086   8.357  14.015
31531SOL    HW296368   5.118   8.504  14.034
31532SOL     OW96369   1.170  10.856   3.342
31532SOL    HW196370   1.262  10.880   3.347
31532SOL    HW296371   1.169  10.771   3.298
31533SOL     OW96372   1.612   7.580   9.827
31533SOL    HW196373   1.581   7.642   9.761
31533SOL    HW296374   1.628   7.634   9.905
31534SOL     OW96375  11.800  13.543  11.163
31534SOL    HW196376  11.825  13.526  11.254
31534SOL    HW296377  11.710  13.512  11.157
31535SOL     OW96378  13.811   3.614   9.569
31535SOL    HW196379  13.756   3.667   9.628
31535SOL    HW296380  13.853   3.550   9.627
31536SOL     OW96381   9.135  12.932   6.399
31536SOL    HW196382   9.190  12.992   6.349
31536SOL    HW296383   9.045  12.961   6.382
31537SOL     OW96384  14.743  12.055   7.733
31537SOL    HW196385  14.663  12.004   7.726
31537SOL    HW296386  14.717  12.144   7.710
31538SOL     OW96387  11.023   2.525   5.248
31538SOL    HW196388  11.031   2.586   5.175
31538SOL    HW296389  11.036   2.439   5.209
31539SOL     OW96390   4.839   6.900  13.690
31539SOL    HW196391   4.842   6.804  13.683
31539SOL    HW296392   4.766   6.926  13.634
31540SOL     OW96393   4.163   0.517  12.671
31540SOL    HW196394   4.242   0.496  12.721
31540SOL    HW296395   4.175   0.473  12.587
31541SOL     OW96396  13.449  14.198  13.964
31541SOL    HW196397  13.398  14.275  13.986
31541SOL    HW296398  13.468  14.157  14.049
31542SOL     OW96399  10.669   1.580  10.746
31542SOL    HW196400  10.583   1.579  10.787
31542SOL    HW296401  10.706   1.665  10.771
31543SOL     OW96402   3.265  14.508   0.968
31543SOL    HW196403   3.186  14.561   0.963
31543SOL    HW296404   3.302  14.528   1.054
31544SOL     OW96405   4.916  12.094  13.192
31544SOL    HW196406   4.883  12.004  13.186
31544SOL    HW296407   4.861  12.144  13.133
31545SOL     OW96408   2.199   3.936  12.322
31545SOL    HW196409   2.238   3.922  12.235
31545SOL    HW296410   2.150   4.017  12.313
31546SOL     OW96411  13.749   3.382   1.510
31546SOL    HW196412  13.831   3.392   1.559
31546SOL    HW296413  13.774   3.391   1.418
31547SOL     OW96414   0.253  13.271   7.210
31547SOL    HW196415   0.323  13.228   7.161
31547SOL    HW296416   0.290  13.285   7.297
31548SOL     OW96417   5.778   3.554   3.611
31548SOL    HW196418   5.830   3.474   3.600
31548SOL    HW296419   5.723   3.557   3.533
31549SOL     OW96420  14.676   7.895  11.610
31549SOL    HW196421  14.654   7.864  11.522
31549SOL    HW296422  14.768   7.921  11.603
31550SOL     OW96423   2.798  10.101  12.381
31550SOL    HW196424   2.782  10.066  12.293
31550SOL    HW296425   2.710  10.119  12.415
31551SOL     OW96426   6.695   6.605   7.034
31551SOL    HW196427   6.663   6.662   7.105
31551SOL    HW296428   6.685   6.659   6.955
31552SOL     OW96429   7.212  10.982  10.040
31552SOL    HW196430   7.237  10.968   9.949
31552SOL    HW296431   7.295  10.992  10.086
31553SOL     OW96432  14.197   6.655  13.277
31553SOL    HW196433  14.250   6.614  13.209
31553SOL    HW296434  14.126   6.698  13.229
31554SOL     OW96435   3.901   7.110  13.055
31554SOL    HW196436   3.973   7.106  13.118
31554SOL    HW296437   3.823   7.130  13.109
31555SOL     OW96438   2.679   4.055   9.296
31555SOL    HW196439   2.764   4.099   9.303
31555SOL    HW296440   2.692   3.971   9.340
31556SOL     OW96441   7.807  10.423   9.227
31556SOL    HW196442   7.741  10.362   9.194
31556SOL    HW296443   7.877  10.367   9.261
31557SOL     OW96444   7.228   9.158  10.675
31557SOL    HW196445   7.293   9.171  10.745
31557SOL    HW296446   7.238   9.235  10.619
31558SOL     OW96447  10.645   4.939   6.312
31558SOL    HW196448  10.712   4.888   6.358
31558SOL    HW296449  10.669   4.930   6.219
31559SOL     OW96450   3.262  12.064   0.454
31559SOL    HW196451   3.290  12.078   0.545
31559SOL    HW296452   3.250  11.969   0.447
31560SOL     OW96453   4.072   3.535   9.414
31560SOL    HW196454   4.132   3.494   9.351
31560SOL    HW296455   4.002   3.572   9.360
31561SOL     OW96456   3.021   5.834   6.300
31561SOL    HW196457   3.068   5.905   6.255
31561SOL    HW296458   3.011   5.866   6.390
31562SOL     OW96459   2.535   4.400   7.541
31562SOL    HW196460   2.451   4.385   7.585
31562SOL    HW296461   2.572   4.313   7.528
31563SOL     OW96462   8.649   1.228   5.446
31563SOL    HW196463   8.560   1.208   5.416
31563SOL    HW296464   8.675   1.151   5.497
31564SOL     OW96465   3.763   9.393  12.616
31564SOL    HW196466   3.787   9.321  12.675
31564SOL    HW296467   3.684   9.431  12.656
31565SOL     OW96468   8.249   7.281   3.530
31565SOL    HW196469   8.198   7.239   3.599
31565SOL    HW296470   8.338   7.248   3.543
31566SOL     OW96471   4.921   5.838   6.145
31566SOL    HW196472   4.957   5.778   6.079
31566SOL    HW296473   4.877   5.905   6.094
31567SOL     OW96474   9.510   5.483  11.367
31567SOL    HW196475   9.554   5.409  11.408
31567SOL    HW296476   9.559   5.560  11.396
31568SOL     OW96477  13.365   1.145   2.362
31568SOL    HW196478  13.389   1.063   2.406
31568SOL    HW296479  13.417   1.145   2.282
31569SOL     OW96480   4.246   7.206   0.090
31569SOL    HW196481   4.222   7.115   0.110
31569SOL    HW296482   4.182   7.234   0.024
31570SOL     OW96483   8.781   1.783  14.668
31570SOL    HW196484   8.820   1.789  14.581
31570SOL    HW296485   8.686   1.777  14.652
31571SOL     OW96486   7.107   2.701   4.373
31571SOL    HW196487   7.088   2.707   4.280
31571SOL    HW296488   7.090   2.788   4.407
31572SOL     OW96489   5.339   3.199  14.496
31572SOL    HW196490   5.313   3.287  14.470
31572SOL    HW296491   5.313   3.143  14.423
31573SOL     OW96492   6.195   8.526   5.821
31573SOL    HW196493   6.232   8.448   5.781
31573SOL    HW296494   6.109   8.498   5.854
31574SOL     OW96495   0.662   0.311   0.261
31574SOL    HW196496   0.752   0.322   0.231
31574SOL    HW296497   0.618   0.392   0.236
31575SOL     OW96498   0.734   8.124  10.920
31575SOL    HW196499   0.656   8.179  10.923
31575SOL    HW296500   0.771   8.141  10.833
31576SOL     OW96501  12.909   0.123   7.505
31576SOL    HW196502  12.997   0.094   7.480
31576SOL    HW296503  12.853   0.094   7.433
31577SOL     OW96504   1.606   9.413  14.026
31577SOL    HW196505   1.626   9.320  14.033
31577SOL    HW296506   1.512   9.416  14.004
31578SOL     OW96507   9.952  10.455   1.978
31578SOL    HW196508   9.901  10.383   1.940
31578SOL    HW296509   9.936  10.448   2.072
31579SOL     OW96510   4.994   6.165   5.071
31579SOL    HW196511   5.049   6.108   5.017
31579SOL    HW296512   4.951   6.223   5.009
31580SOL     OW96513   7.661   2.249   6.950
31580SOL    HW196514   7.620   2.205   6.875
31580SOL    HW296515   7.700   2.178   7.001
31581SOL     OW96516   7.832   6.427   1.107
31581SOL    HW196517   7.751   6.431   1.056
31581SOL    HW296518   7.900   6.408   1.042
31582SOL     OW96519  10.790  13.896  13.993
31582SOL    HW196520  10.814  13.806  13.969
31582SOL    HW296521  10.714  13.886  14.050
31583SOL     OW96522  10.020   8.712   1.306
31583SOL    HW196523  10.037   8.784   1.368
31583SOL    HW296524  10.084   8.645   1.330
31584SOL     OW96525   4.320   4.631   2.160
31584SOL    HW196526   4.313   4.565   2.091
31584SOL    HW296527   4.363   4.705   2.117
31585SOL     OW96528   5.310  14.040  12.137
31585SOL    HW196529   5.225  14.066  12.100
31585SOL    HW296530   5.292  13.956  12.180
31586SOL     OW96531   8.176   5.295   0.904
31586SOL    HW196532   8.261   5.321   0.868
31586SOL    HW296533   8.197   5.222   0.964
31587SOL     OW96534   0.452  10.383  12.994
31587SOL    HW196535   0.476  10.332  13.071
31587SOL    HW296536   0.370  10.426  13.018
31588SOL     OW96537   1.603  13.339  13.972
31588SOL    HW196538   1.557  13.274  13.921
31588SOL    HW296539   1.603  13.418  13.917
31589SOL     OW96540   1.065   6.925   3.708
31589SOL    HW196541   1.022   6.945   3.791
31589SOL    HW296542   1.123   6.852   3.728
31590SOL     OW96543  10.278   5.503   5.566
31590SOL    HW196544  10.345   5.505   5.635
31590SOL    HW296545  10.307   5.434   5.506
31591SOL     OW96546  14.872   1.814   6.443
31591SOL    HW196547   0.067   1.774   6.490
31591SOL    HW296548  14.837   1.879   6.503
31592SOL     OW96549   9.259   0.836  12.588
31592SOL    HW196550   9.330   0.857  12.649
31592SOL    HW296551   9.276   0.745  12.562
31593SOL     OW96552   7.247   0.538   6.282
31593SOL    HW196553   7.303   0.581   6.347
31593SOL    HW296554   7.159   0.569   6.302
31594SOL     OW96555  14.540   2.952  11.865
31594SOL    HW196556  14.551   3.035  11.910
31594SOL    HW296557  14.549   2.886  11.934
31595SOL     OW96558   5.552   7.980   5.924
31595SOL    HW196559   5.550   8.048   5.856
31595SOL    HW296560   5.615   7.916   5.892
31596SOL     OW96561   4.918   1.173   0.504
31596SOL    HW196562   4.983   1.173   0.434
31596SOL    HW296563   4.834   1.169   0.459
31597SOL     OW96564  10.837   5.541  12.753
31597SOL    HW196565  10.827   5.478  12.682
31597SOL    HW296566  10.924   5.523  12.789
31598SOL     OW96567   1.852   6.837   5.937
31598SOL    HW196568   1.860   6.777   6.011
31598SOL    HW296569   1.934   6.886   5.937
31599SOL     OW96570  10.258   6.965   5.726
31599SOL    HW196571  10.239   7.034   5.662
31599SOL    HW296572  10.223   6.999   5.808
31600SOL     OW96573  13.016   6.055   3.573
31600SOL    HW196574  13.053   6.118   3.635
31600SOL    HW296575  13.017   5.971   3.621
31601SOL     OW96576   0.488   6.411   9.414
31601SOL    HW196577   0.574   6.375   9.392
31601SOL    HW296578   0.483   6.403   9.509
31602SOL     OW96579   2.777  10.627  12.353
31602SOL    HW196580   2.692  10.667  12.372
31602SOL    HW296581   2.771  10.599  12.262
31603SOL     OW96582   5.231  13.518   6.370
31603SOL    HW196583   5.191  13.465   6.301
31603SOL    HW296584   5.173  13.594   6.379
31604SOL     OW96585  12.843  11.553  14.707
31604SOL    HW196586  12.797  11.499  14.771
31604SOL    HW296587  12.882  11.623  14.757
31605SOL     OW96588  10.310  13.594   7.532
31605SOL    HW196589  10.229  13.633   7.501
31605SOL    HW296590  10.363  13.669   7.559
31606SOL     OW96591  13.855   3.904   9.831
31606SOL    HW196592  13.798   3.836   9.795
31606SOL    HW296593  13.805   3.942   9.903
31607SOL     OW96594  12.075   0.323  12.605
31607SOL    HW196595  12.004   0.294  12.548
31607SOL    HW296596  12.091   0.414  12.579
31608SOL     OW96597  14.708   9.217   2.795
31608SOL    HW196598  14.676   9.221   2.705
31608SOL    HW296599  14.651   9.277   2.843
31609SOL     OW96600   1.267  11.638   0.335
31609SOL    HW196601   1.183  11.615   0.296
31609SOL    HW296602   1.331  11.583   0.289
31610SOL     OW96603   7.726   3.237  14.734
31610SOL    HW196604   7.784   3.309  14.709
31610SOL    HW296605   7.637   3.272  14.719
31611SOL     OW96606  11.848   6.199  14.564
31611SOL    HW196607  11.759   6.213  14.596
31611SOL    HW296608  11.844   6.117  14.515
31612SOL     OW96609   5.264  13.037  13.018
31612SOL    HW196610   5.341  12.981  13.018
31612SOL    HW296611   5.194  12.983  13.055
31613SOL     OW96612   4.319   7.538   6.678
31613SOL    HW196613   4.330   7.556   6.585
31613SOL    HW296614   4.398   7.489   6.702
31614SOL     OW96615   3.184   8.292  12.830
31614SOL    HW196616   3.216   8.379  12.854
31614SOL    HW296617   3.096   8.309  12.794
31615SOL     OW96618   4.076  12.010   2.635
31615SOL    HW196619   4.172  12.005   2.635
31615SOL    HW296620   4.055  12.064   2.559
31616SOL     OW96621   6.310  14.414   9.026
31616SOL    HW196622   6.383  14.403   9.088
31616SOL    HW296623   6.337  14.486   8.970
31617SOL     OW96624   1.905   1.352  10.303
31617SOL    HW196625   1.989   1.309  10.285
31617SOL    HW296626   1.916   1.441  10.269
31618SOL     OW96627  10.122  12.800   9.839
31618SOL    HW196628  10.180  12.724   9.846
31618SOL    HW296629  10.122  12.837   9.927
31619SOL     OW96630   5.315   7.394   6.606
31619SOL    HW196631   5.283   7.480   6.578
31619SOL    HW296632   5.325   7.344   6.525
31620SOL     OW96633   2.829   5.881   9.513
31620SOL    HW196634   2.852   5.956   9.569
31620SOL    HW296635   2.874   5.899   9.430
31621SOL     OW96636  14.337   3.258   6.452
31621SOL    HW196637  14.410   3.317   6.468
31621SOL    HW296638  14.260   3.315   6.448
31622SOL     OW96639   1.315  11.905   7.541
31622SOL    HW196640   1.377  11.866   7.603
31622SOL    HW296641   1.229  11.882   7.577
31623SOL     OW96642   7.764   1.859   0.076
31623SOL    HW196643   7.785   1.830   0.165
31623SOL    HW296644   7.736   1.950   0.087
31624SOL     OW96645  10.140  12.303  12.369
31624SOL    HW196646  10.115  12.395  12.355
31624SOL    HW296647  10.146  12.295  12.465
31625SOL     OW96648   3.595   8.397   2.450
31625SOL    HW196649   3.653   8.342   2.501
31625SOL    HW296650   3.645   8.477   2.433
31626SOL     OW96651   5.138   1.340   9.784
31626SOL    HW196652   5.192   1.271   9.747
31626SOL    HW296653   5.084   1.370   9.710
31627SOL     OW96654   6.127   2.386  14.132
31627SOL    HW196655   6.217   2.358  14.113
31627SOL    HW296656   6.101   2.332  14.207
31628SOL     OW96657   0.050   2.416   0.947
31628SOL    HW196658   0.031   2.434   1.039
31628SOL    HW296659   0.145   2.420   0.941
31629SOL     OW96660   2.958  12.506  14.500
31629SOL    HW196661   3.041  12.461  14.484
31629SOL    HW296662   2.892  12.450  14.459
31630SOL     OW96663   2.846   6.580  10.465
31630SOL    HW196664   2.879   6.533  10.541
31630SOL    HW296665   2.924   6.596  10.411
31631SOL     OW96666   9.420  13.562  12.783
31631SOL    HW196667   9.462  13.628  12.728
31631SOL    HW296668   9.326  13.575  12.770
31632SOL     OW96669  12.280  13.958   6.900
31632SOL    HW196670  12.331  13.919   6.830
31632SOL    HW296671  12.245  13.883   6.949
31633SOL     OW96672   1.554   6.825  11.673
31633SOL    HW196673   1.623   6.761  11.692
31633SOL    HW296674   1.502   6.829  11.754
31634SOL     OW96675   5.764   4.750   1.956
31634SOL    HW196676   5.848   4.704   1.961
31634SOL    HW296677   5.711   4.710   2.025
31635SOL     OW96678   0.725   3.606   4.514
31635SOL    HW196679   0.733   3.513   4.535
31635SOL    HW296680   0.695   3.607   4.423
31636SOL     OW96681  10.132  11.395   3.147
31636SOL    HW196682  10.113  11.310   3.108
31636SOL    HW296683  10.194  11.376   3.217
31637SOL     OW96684   7.429   3.070   3.925
31637SOL    HW196685   7.436   3.165   3.934
31637SOL    HW296686   7.519   3.040   3.912
31638SOL     OW96687   0.294  13.151  12.801
31638SOL    HW196688   0.361  13.160  12.733
31638SOL    HW296689   0.274  13.241  12.827
31639SOL     OW96690  10.072   0.219   0.325
31639SOL    HW196691  10.025   0.279   0.267
31639SOL    HW296692  10.037   0.237   0.412
31640SOL     OW96693  13.475   8.655   5.724
31640SOL    HW196694  13.386   8.687   5.737
31640SOL    HW296695  13.528   8.735   5.714
31641SOL     OW96696  12.079   9.681   4.964
31641SOL    HW196697  12.035   9.680   5.049
31641SOL    HW296698  12.110   9.592   4.953
31642SOL     OW96699   5.274   6.820   5.503
31642SOL    HW196700   5.217   6.872   5.447
31642SOL    HW296701   5.325   6.884   5.552
31643SOL     OW96702  11.692   4.057   0.279
31643SOL    HW196703  11.603   4.046   0.246
31643SOL    HW296704  11.734   4.115   0.217
31644SOL     OW96705   3.969  10.707  13.681
31644SOL    HW196706   3.975  10.796  13.717
31644SOL    HW296707   3.988  10.650  13.756
31645SOL     OW96708   4.131  10.908   6.325
31645SOL    HW196709   4.120  10.854   6.404
31645SOL    HW296710   4.136  10.998   6.359
31646SOL     OW96711  12.322   8.464  11.316
31646SOL    HW196712  12.228   8.464  11.334
31646SOL    HW296713  12.349   8.373  11.330
31647SOL     OW96714  10.115  12.283   9.806
31647SOL    HW196715  10.171  12.348   9.764
31647SOL    HW296716  10.027  12.320   9.801
31648SOL     OW96717  13.319  13.609   5.020
31648SOL    HW196718  13.280  13.526   5.048
31648SOL    HW296719  13.413  13.590   5.014
31649SOL     OW96720   1.277   2.364   6.157
31649SOL    HW196721   1.321   2.445   6.182
31649SOL    HW296722   1.329   2.295   6.197
31650SOL     OW96723   3.268   4.959   8.029
31650SOL    HW196724   3.312   4.903   7.965
31650SOL    HW296725   3.244   4.899   8.100
31651SOL     OW96726   5.456  13.339   1.952
31651SOL    HW196727   5.491  13.365   1.867
31651SOL    HW296728   5.531  13.341   2.011
31652SOL     OW96729  14.802   9.311   8.534
31652SOL    HW196730  14.830   9.399   8.509
31652SOL    HW296731   0.002   9.256   8.520
31653SOL     OW96732   3.629   5.719   6.834
31653SOL    HW196733   3.596   5.803   6.865
31653SOL    HW296734   3.715   5.710   6.875
31654SOL     OW96735  13.812   1.071   7.464
31654SOL    HW196736  13.815   1.090   7.558
31654SOL    HW296737  13.818   0.976   7.458
31655SOL     OW96738   1.600   3.328   6.166
31655SOL    HW196739   1.594   3.419   6.196
31655SOL    HW296740   1.513   3.308   6.132
31656SOL     OW96741   3.031   9.529   9.865
31656SOL    HW196742   3.122   9.531   9.895
31656SOL    HW296743   2.987   9.595   9.917
31657SOL     OW96744   8.871   2.705   6.592
31657SOL    HW196745   8.963   2.706   6.565
31657SOL    HW296746   8.869   2.758   6.672
31658SOL     OW96747   5.172  11.617   8.344
31658SOL    HW196748   5.155  11.711   8.334
31658SOL    HW296749   5.215  11.610   8.429
31659SOL     OW96750   1.407   7.760  12.622
31659SOL    HW196751   1.394   7.768  12.716
31659SOL    HW296752   1.442   7.672  12.610
31660SOL     OW96753  10.888  12.965   7.326
31660SOL    HW196754  10.971  13.004   7.352
31660SOL    HW296755  10.822  13.033   7.343
31661SOL     OW96756   7.157   5.801  13.128
31661SOL    HW196757   7.089   5.867  13.113
31661SOL    HW296758   7.212   5.839  13.197
31662SOL     OW96759   4.328   9.276   4.957
31662SOL    HW196760   4.375   9.316   4.885
31662SOL    HW296761   4.383   9.291   5.034
31663SOL     OW96762  14.162   6.030  11.782
31663SOL    HW196763  14.161   6.101  11.846
31663SOL    HW296764  14.114   6.065  11.707
31664SOL     OW96765   2.128  12.785   3.036
31664SOL    HW196766   2.033  12.775   3.046
31664SOL    HW296767   2.161  12.696   3.032
31665SOL     OW96768   8.321   8.279  12.338
31665SOL    HW196769   8.361   8.365  12.324
31665SOL    HW296770   8.395   8.218  12.336
31666SOL     OW96771   9.573  13.384   8.538
31666SOL    HW196772   9.566  13.423   8.625
31666SOL    HW296773   9.634  13.441   8.491
31667SOL     OW96774  11.967   1.210   0.245
31667SOL    HW196775  11.991   1.174   0.331
31667SOL    HW296776  12.019   1.290   0.237
31668SOL     OW96777   2.252   5.760  11.825
31668SOL    HW196778   2.250   5.833  11.764
31668SOL    HW296779   2.281   5.799  11.908
31669SOL     OW96780   2.100   3.975  12.951
31669SOL    HW196781   2.195   3.984  12.955
31669SOL    HW296782   2.071   4.044  12.892
31670SOL     OW96783   8.957   3.186   3.139
31670SOL    HW196784   8.905   3.127   3.085
31670SOL    HW296785   9.031   3.133   3.169
31671SOL     OW96786   5.007  14.570   7.664
31671SOL    HW196787   4.964  14.532   7.740
31671SOL    HW296788   5.089  14.521   7.656
31672SOL     OW96789   8.110   6.724  13.324
31672SOL    HW196790   8.056   6.765  13.257
31672SOL    HW296791   8.199   6.754  13.305
31673SOL     OW96792   3.918   7.252   2.002
31673SOL    HW196793   3.967   7.196   1.941
31673SOL    HW296794   3.983   7.278   2.067
31674SOL     OW96795  13.670  14.718  14.086
31674SOL    HW196796  13.589  14.721  14.138
31674SOL    HW296797  13.643  14.679  14.003
31675SOL     OW96798  13.655  11.010   1.476
31675SOL    HW196799  13.690  11.073   1.539
31675SOL    HW296800  13.646  10.929   1.526
31676SOL     OW96801  12.540   1.517  11.650
31676SOL    HW196802  12.597   1.559  11.586
31676SOL    HW296803  12.528   1.582  11.718
31677SOL     OW96804   5.634  13.264  14.496
31677SOL    HW196805   5.558  13.242  14.442
31677SOL    HW296806   5.635  13.197  14.564
31678SOL     OW96807  13.707  14.804   8.115
31678SOL    HW196808  13.762  14.859   8.059
31678SOL    HW296809  13.756  14.796   8.197
31679SOL     OW96810   6.070   6.589   7.270
31679SOL    HW196811   6.026   6.516   7.225
31679SOL    HW296812   6.049   6.666   7.218
31680SOL     OW96813   0.845   0.963  13.664
31680SOL    HW196814   0.846   0.912  13.583
31680SOL    HW296815   0.895   1.042  13.643
31681SOL     OW96816   8.560   4.743   0.339
31681SOL    HW196817   8.597   4.759   0.426
31681SOL    HW296818   8.487   4.804   0.332
31682SOL     OW96819   4.890  10.433  13.396
31682SOL    HW196820   4.897  10.506  13.334
31682SOL    HW296821   4.844  10.365  13.346
31683SOL     OW96822   8.567   4.455   1.899
31683SOL    HW196823   8.604   4.413   1.976
31683SOL    HW296824   8.642   4.495   1.855
31684SOL     OW96825   2.765   2.623   6.565
31684SOL    HW196826   2.803   2.604   6.651
31684SOL    HW296827   2.752   2.717   6.565
31685SOL     OW96828   4.623  14.530   8.278
31685SOL    HW196829   4.564  14.483   8.218
31685SOL    HW296830   4.647  14.464   8.343
31686SOL     OW96831  14.389  10.813  10.624
31686SOL    HW196832  14.333  10.747  10.663
31686SOL    HW296833  14.466  10.817  10.681
31687SOL     OW96834   7.356  13.785   4.121
31687SOL    HW196835   7.344  13.722   4.050
31687SOL    HW296836   7.375  13.868   4.077
31688SOL     OW96837   4.726   1.089   8.229
31688SOL    HW196838   4.821   1.093   8.215
31688SOL    HW296839   4.709   0.997   8.248
31689SOL     OW96840  11.331  13.330  14.277
31689SOL    HW196841  11.264  13.275  14.238
31689SOL    HW296842  11.339  13.405  14.218
31690SOL     OW96843  10.109  14.397  11.601
31690SOL    HW196844  10.036  14.346  11.635
31690SOL    HW296845  10.095  14.397  11.506
31691SOL     OW96846   0.205   5.814   3.667
31691SOL    HW196847   0.270   5.751   3.635
31691SOL    HW296848   0.167   5.851   3.587
31692SOL     OW96849   5.211   3.786   7.881
31692SOL    HW196850   5.181   3.703   7.843
31692SOL    HW296851   5.231   3.765   7.972
31693SOL     OW96852   8.244  11.266   4.205
31693SOL    HW196853   8.317  11.240   4.149
31693SOL    HW296854   8.214  11.349   4.168
31694SOL     OW96855  10.240   9.456   5.609
31694SOL    HW196856  10.147   9.434   5.601
31694SOL    HW296857  10.254   9.524   5.543
31695SOL     OW96858   4.827  12.833   8.647
31695SOL    HW196859   4.754  12.862   8.593
31695SOL    HW296860   4.905  12.861   8.599
31696SOL     OW96861  13.101   1.136   6.554
31696SOL    HW196862  13.193   1.147   6.529
31696SOL    HW296863  13.103   1.072   6.625
31697SOL     OW96864   3.776   8.876  12.977
31697SOL    HW196865   3.804   8.900  12.889
31697SOL    HW296866   3.851   8.830  13.014
31698SOL     OW96867   4.462   4.378   1.526
31698SOL    HW196868   4.477   4.450   1.464
31698SOL    HW296869   4.394   4.410   1.584
31699SOL     OW96870  11.662  11.216  11.123
31699SOL    HW196871  11.731  11.221  11.057
31699SOL    HW296872  11.588  11.265  11.085
31700SOL     OW96873   1.183   1.844   7.928
31700SOL    HW196874   1.125   1.774   7.900
31700SOL    HW296875   1.124   1.914   7.957
31701SOL     OW96876   5.933  10.570   0.699
31701SOL    HW196877   5.857  10.625   0.719
31701SOL    HW296878   5.950  10.522   0.779
31702SOL     OW96879   9.582   6.432   1.048
31702SOL    HW196880   9.613   6.477   1.126
31702SOL    HW296881   9.569   6.341   1.076
31703SOL     OW96882  11.912   7.501   1.637
31703SOL    HW196883  11.978   7.495   1.568
31703SOL    HW296884  11.916   7.591   1.667
31704SOL     OW96885   3.690   4.326  10.039
31704SOL    HW196886   3.646   4.243  10.020
31704SOL    HW296887   3.719   4.317  10.130
31705SOL     OW96888   1.618   2.893  12.211
31705SOL    HW196889   1.604   2.979  12.251
31705SOL    HW296890   1.612   2.911  12.117
31706SOL     OW96891   7.089   7.914   3.509
31706SOL    HW196892   7.103   7.923   3.415
31706SOL    HW296893   7.117   7.824   3.528
31707SOL     OW96894  14.395  10.744   0.722
31707SOL    HW196895  14.331  10.764   0.791
31707SOL    HW296896  14.418  10.652   0.737
31708SOL     OW96897   1.957   9.294   2.937
31708SOL    HW196898   2.013   9.248   2.999
31708SOL    HW296899   2.004   9.291   2.854
31709SOL     OW96900   4.893   8.093   6.717
31709SOL    HW196901   4.923   8.060   6.632
31709SOL    HW296902   4.831   8.028   6.747
31710SOL     OW96903   7.655   6.560   6.714
31710SOL    HW196904   7.569   6.598   6.735
31710SOL    HW296905   7.702   6.559   6.797
31711SOL     OW96906   9.429   7.509   9.112
31711SOL    HW196907   9.424   7.583   9.051
31711SOL    HW296908   9.522   7.499   9.131
31712SOL     OW96909   9.336  14.613   5.261
31712SOL    HW196910   9.307  14.694   5.218
31712SOL    HW296911   9.292  14.543   5.212
31713SOL     OW96912  11.825   6.140   9.531
31713SOL    HW196913  11.821   6.163   9.624
31713SOL    HW296914  11.758   6.195   9.490
31714SOL     OW96915   9.182  14.161  12.424
31714SOL    HW196916   9.188  14.194  12.514
31714SOL    HW296917   9.202  14.237  12.370
31715SOL     OW96918   5.434  13.423   6.781
31715SOL    HW196919   5.525  13.425   6.750
31715SOL    HW296920   5.382  13.429   6.701
31716SOL     OW96921   8.573   1.845   8.596
31716SOL    HW196922   8.639   1.906   8.564
31716SOL    HW296923   8.494   1.867   8.546
31717SOL     OW96924   1.380   1.170   1.901
31717SOL    HW196925   1.428   1.193   1.981
31717SOL    HW296926   1.289   1.165   1.929
31718SOL     OW96927   3.467   3.535  11.302
31718SOL    HW196928   3.412   3.597  11.350
31718SOL    HW296929   3.538   3.514  11.363
31719SOL     OW96930   2.597  14.096   4.509
31719SOL    HW196931   2.536  14.155   4.553
31719SOL    HW296932   2.578  14.107   4.416
31720SOL     OW96933   9.106  11.019   7.434
31720SOL    HW196934   9.096  11.041   7.526
31720SOL    HW296935   9.021  10.986   7.407
31721SOL     OW96936   0.501   7.851   3.506
31721SOL    HW196937   0.485   7.945   3.505
31721SOL    HW296938   0.414   7.811   3.502
31722SOL     OW96939   1.540   4.562   1.514
31722SOL    HW196940   1.489   4.635   1.481
31722SOL    HW296941   1.549   4.503   1.440
31723SOL     OW96942   3.725   3.715  11.008
31723SOL    HW196943   3.775   3.694  11.087
31723SOL    HW296944   3.769   3.792  10.972
31724SOL     OW96945   4.022   0.281   5.793
31724SOL    HW196946   4.085   0.254   5.726
31724SOL    HW296947   3.993   0.199   5.833
31725SOL     OW96948   9.181   4.727   5.366
31725SOL    HW196949   9.104   4.768   5.326
31725SOL    HW296950   9.253   4.745   5.305
31726SOL     OW96951   9.705   5.534   4.146
31726SOL    HW196952   9.708   5.484   4.064
31726SOL    HW296953   9.615   5.564   4.152
31727SOL     OW96954  11.905   7.831   8.777
31727SOL    HW196955  11.827   7.832   8.722
31727SOL    HW296956  11.971   7.785   8.725
31728SOL     OW96957  13.434  13.990   5.765
31728SOL    HW196958  13.496  14.063   5.764
31728SOL    HW296959  13.438  13.954   5.677
31729SOL     OW96960  12.307   2.440   9.358
31729SOL    HW196961  12.290   2.499   9.431
31729SOL    HW296962  12.369   2.488   9.302
31730SOL     OW96963   3.450   4.804  14.355
31730SOL    HW196964   3.494   4.719  14.346
31730SOL    HW296965   3.514   4.868  14.325
31731SOL     OW96966  12.529  11.474  11.205
31731SOL    HW196967  12.614  11.473  11.161
31731SOL    HW296968  12.477  11.537  11.156
31732SOL     OW96969   3.358   4.707   5.422
31732SOL    HW196970   3.270   4.744   5.431
31732SOL    HW296971   3.346   4.630   5.366
31733SOL     OW96972   1.171  10.204  12.649
31733SOL    HW196973   1.150  10.206  12.742
31733SOL    HW296974   1.226  10.282  12.636
31734SOL     OW96975   4.262  10.346   0.166
31734SOL    HW196976   4.292  10.374   0.080
31734SOL    HW296977   4.289  10.255   0.173
31735SOL     OW96978   3.052   9.564   5.938
31735SOL    HW196979   3.043   9.468   5.942
31735SOL    HW296980   3.004   9.596   6.014
31736SOL     OW96981   8.365  10.163   5.716
31736SOL    HW196982   8.273  10.167   5.741
31736SOL    HW296983   8.369  10.092   5.652
31737SOL     OW96984  10.230  12.472  12.630
31737SOL    HW196985  10.246  12.436  12.717
31737SOL    HW296986  10.286  12.550  12.626
31738SOL     OW96987  12.123   4.129   8.950
31738SOL    HW196988  12.206   4.167   8.979
31738SOL    HW296989  12.065   4.140   9.025
31739SOL     OW96990   2.977   0.015   1.436
31739SOL    HW196991   2.885   0.014   1.408
31739SOL    HW296992   3.024  14.855   1.362
31740SOL     OW96993   1.294   0.715   5.834
31740SOL    HW196994   1.208   0.712   5.793
31740SOL    HW296995   1.282   0.770   5.911
31741SOL     OW96996  10.691   5.350   9.198
31741SOL    HW196997  10.742   5.273   9.223
31741SOL    HW296998  10.650   5.379   9.280
31742SOL     OW96999   3.272   8.881  14.320
31742SOL    HW197000   3.196   8.865  14.264
31742SOL    HW297001   3.262   8.817  14.391
31743SOL     OW97002   4.750   2.113   8.026
31743SOL    HW197003   4.692   2.140   8.098
31743SOL    HW297004   4.703   2.140   7.947
31744SOL     OW97005   2.651  13.024   0.351
31744SOL    HW197006   2.651  13.080   0.273
31744SOL    HW297007   2.575  12.967   0.341
31745SOL     OW97008  12.298   2.997   8.190
31745SOL    HW197009  12.383   2.954   8.187
31745SOL    HW297010  12.238   2.937   8.146
31746SOL     OW97011   3.265   1.458   9.773
31746SOL    HW197012   3.279   1.370   9.807
31746SOL    HW297013   3.330   1.468   9.703
31747SOL     OW97014   5.213   1.714   1.705
31747SOL    HW197015   5.182   1.771   1.776
31747SOL    HW297016   5.219   1.772   1.629
31748SOL     OW97017  12.292  13.064  13.026
31748SOL    HW197018  12.305  13.142  12.971
31748SOL    HW297019  12.253  13.000  12.967
31749SOL     OW97020  13.333   3.254   9.071
31749SOL    HW197021  13.327   3.195   9.147
31749SOL    HW297022  13.354   3.340   9.110
31750SOL     OW97023   7.912   5.769  13.749
31750SOL    HW197024   7.860   5.800  13.675
31750SOL    HW297025   7.990   5.732  13.710
31751SOL     OW97026   1.513   5.640  10.413
31751SOL    HW197027   1.556   5.598  10.487
31751SOL    HW297028   1.583   5.659  10.351
31752SOL     OW97029   4.322   7.372   9.673
31752SOL    HW197030   4.279   7.403   9.753
31752SOL    HW297031   4.352   7.452   9.631
31753SOL     OW97032  10.663   0.493   4.962
31753SOL    HW197033  10.651   0.492   5.057
31753SOL    HW297034  10.631   0.579   4.935
31754SOL     OW97035  11.000   7.751   4.041
31754SOL    HW197036  10.988   7.685   3.973
31754SOL    HW297037  11.081   7.796   4.016
31755SOL     OW97038   8.565  14.851  10.673
31755SOL    HW197039   8.620  14.856  10.751
31755SOL    HW297040   8.535  14.760  10.671
31756SOL     OW97041  14.569   3.419  13.287
31756SOL    HW197042  14.602   3.335  13.254
31756SOL    HW297043  14.563   3.407  13.381
31757SOL     OW97044   6.228   9.329  11.114
31757SOL    HW197045   6.173   9.376  11.176
31757SOL    HW297046   6.177   9.253  11.088
31758SOL     OW97047   5.372   4.752   5.794
31758SOL    HW197048   5.289   4.749   5.842
31758SOL    HW297049   5.378   4.842   5.763
31759SOL     OW97050   8.757   1.809   4.650
31759SOL    HW197051   8.722   1.786   4.736
31759SOL    HW297052   8.750   1.904   4.646
31760SOL     OW97053   6.077   4.163  10.454
31760SOL    HW197054   5.991   4.136  10.486
31760SOL    HW297055   6.114   4.217  10.524
31761SOL     OW97056   1.611   6.444   0.292
31761SOL    HW197057   1.572   6.480   0.372
31761SOL    HW297058   1.550   6.468   0.223
31762SOL     OW97059   6.145  14.316   0.948
31762SOL    HW197060   6.208  14.376   0.908
31762SOL    HW297061   6.060  14.346   0.916
31763SOL     OW97062   9.424   0.269   2.579
31763SOL    HW197063   9.449   0.252   2.488
31763SOL    HW297064   9.335   0.305   2.573
31764SOL     OW97065  13.461  10.076  11.159
31764SOL    HW197066  13.394  10.014  11.188
31764SOL    HW297067  13.438  10.158  11.203
31765SOL     OW97068  14.665  14.862   9.064
31765SOL    HW197069  14.680  14.831   8.975
31765SOL    HW297070  14.623  14.789   9.108
31766SOL     OW97071  12.732  11.854   7.676
31766SOL    HW197072  12.650  11.842   7.724
31766SOL    HW297073  12.796  11.802   7.726
31767SOL     OW97074  14.134  14.816   4.842
31767SOL    HW197075  14.087  14.734   4.855
31767SOL    HW297076  14.108  14.871   4.916
31768SOL     OW97077   3.857   3.537  14.760
31768SOL    HW197078   3.905   3.469  14.713
31768SOL    HW297079   3.925   3.588  14.805
31769SOL     OW97080  10.198  14.768  13.690
31769SOL    HW197081  10.286  14.802  13.700
31769SOL    HW297082  10.170  14.797  13.603
31770SOL     OW97083   4.543  10.433   8.998
31770SOL    HW197084   4.591  10.375   9.058
31770SOL    HW297085   4.542  10.386   8.915
31771SOL     OW97086   5.340   2.184   0.063
31771SOL    HW197087   5.346   2.201  14.847
31771SOL    HW297088   5.246   2.191   0.082
31772SOL     OW97089   2.592   3.575   9.051
31772SOL    HW197090   2.531   3.648   9.054
31772SOL    HW297091   2.536   3.497   9.046
31773SOL     OW97092  13.429   3.599   2.381
31773SOL    HW197093  13.364   3.668   2.393
31773SOL    HW297094  13.475   3.622   2.301
31774SOL     OW97095   7.265  12.578   8.078
31774SOL    HW197096   7.276  12.485   8.099
31774SOL    HW297097   7.173  12.585   8.050
31775SOL     OW97098   1.716  12.329   4.241
31775SOL    HW197099   1.777  12.398   4.266
31775SOL    HW297100   1.747  12.252   4.289
31776SOL     OW97101   2.061  11.844   3.973
31776SOL    HW197102   1.999  11.917   3.968
31776SOL    HW297103   2.132  11.868   3.913
31777SOL     OW97104   5.746   1.152   1.606
31777SOL    HW197105   5.765   1.180   1.517
31777SOL    HW297106   5.756   1.057   1.604
31778SOL     OW97107  10.755  13.662   7.967
31778SOL    HW197108  10.786  13.746   8.000
31778SOL    HW297109  10.805  13.597   8.016
31779SOL     OW97110   1.415   7.234  11.174
31779SOL    HW197111   1.473   7.280  11.113
31779SOL    HW297112   1.327   7.260  11.147
31780SOL     OW97113  11.623   6.704   7.506
31780SOL    HW197114  11.528   6.691   7.517
31780SOL    HW297115  11.637   6.795   7.534
31781SOL     OW97116   1.867  12.283   1.865
31781SOL    HW197117   1.896  12.344   1.798
31781SOL    HW297118   1.814  12.218   1.817
31782SOL     OW97119   1.252  13.839   9.080
31782SOL    HW197120   1.341  13.850   9.044
31782SOL    HW297121   1.215  13.927   9.079
31783SOL     OW97122   2.813   2.112  11.775
31783SOL    HW197123   2.809   2.152  11.861
31783SOL    HW297124   2.887   2.155  11.732
31784SOL     OW97125  14.052  14.545  13.295
31784SOL    HW197126  14.006  14.461  13.289
31784SOL    HW297127  14.130  14.534  13.241
31785SOL     OW97128  10.429   8.046   4.016
31785SOL    HW197129  10.473   7.976   4.064
31785SOL    HW297130  10.496   8.113   4.003
31786SOL     OW97131   4.047   1.889   4.355
31786SOL    HW197132   4.115   1.956   4.357
31786SOL    HW297133   4.049   1.856   4.265
31787SOL     OW97134  11.592  12.579  11.395
31787SOL    HW197135  11.567  12.652  11.339
31787SOL    HW297136  11.661  12.534  11.345
31788SOL     OW97137  10.160   9.830  11.954
31788SOL    HW197138  10.129   9.920  11.966
31788SOL    HW297139  10.157   9.817  11.859
31789SOL     OW97140  14.739   3.633  10.580
31789SOL    HW197141  14.748   3.545  10.617
31789SOL    HW297142  14.826   3.654  10.547
31790SOL     OW97143  13.057   8.836   5.541
31790SOL    HW197144  12.991   8.881   5.487
31790SOL    HW297145  13.011   8.760   5.576
31791SOL     OW97146   8.171  12.093  12.456
31791SOL    HW197147   8.244  12.141  12.417
31791SOL    HW297148   8.184  12.101  12.550
31792SOL     OW97149  14.115  10.586  11.651
31792SOL    HW197150  14.183  10.652  11.664
31792SOL    HW297151  14.133  10.519  11.716
31793SOL     OW97152  12.650  11.105   3.955
31793SOL    HW197153  12.674  11.016   3.927
31793SOL    HW297154  12.556  11.101   3.971
31794SOL     OW97155  11.543   4.135  11.597
31794SOL    HW197156  11.583   4.060  11.554
31794SOL    HW297157  11.490   4.098  11.668
31795SOL     OW97158   8.689   9.389  11.676
31795SOL    HW197159   8.775   9.391  11.717
31795SOL    HW297160   8.690   9.463  11.615
31796SOL     OW97161   9.807   5.065  10.776
31796SOL    HW197162   9.865   5.095  10.706
31796SOL    HW297163   9.773   4.981  10.744
31797SOL     OW97164   5.097   3.870   8.995
31797SOL    HW197165   5.184   3.861   8.956
31797SOL    HW297166   5.061   3.950   8.955
31798SOL     OW97167  11.501   7.171   4.588
31798SOL    HW197168  11.472   7.262   4.597
31798SOL    HW297169  11.596   7.176   4.598
31799SOL     OW97170   8.313  10.127  11.904
31799SOL    HW197171   8.372  10.191  11.944
31799SOL    HW297172   8.244  10.180  11.863
31800SOL     OW97173  10.925   5.393  11.182
31800SOL    HW197174  10.880   5.310  11.168
31800SOL    HW297175  11.018   5.372  11.176
31801SOL     OW97176  10.706   9.773   7.324
31801SOL    HW197177  10.716   9.849   7.381
31801SOL    HW297178  10.769   9.709   7.357
31802SOL     OW97179   7.021   2.626   8.429
31802SOL    HW197180   7.107   2.668   8.428
31802SOL    HW297181   7.023   2.571   8.507
31803SOL     OW97182  14.286  13.260   0.017
31803SOL    HW197183  14.258  13.351   0.017
31803SOL    HW297184  14.339  13.251   0.096
31804SOL     OW97185   0.952  11.833  13.192
31804SOL    HW197186   1.017  11.833  13.122
31804SOL    HW297187   0.879  11.882  13.156
31805SOL     OW97188   0.709  14.450   9.220
31805SOL    HW197189   0.645  14.513   9.253
31805SOL    HW297190   0.771  14.437   9.292
31806SOL     OW97191   0.115   2.704  10.681
31806SOL    HW197192   0.144   2.644  10.750
31806SOL    HW297193   0.171   2.683  10.606
31807SOL     OW97194   3.327  13.513   3.283
31807SOL    HW197195   3.354  13.600   3.257
31807SOL    HW297196   3.299  13.522   3.374
31808SOL     OW97197   5.173   6.175   3.126
31808SOL    HW197198   5.209   6.163   3.214
31808SOL    HW297199   5.080   6.153   3.135
31809SOL     OW97200   8.480  13.691   0.486
31809SOL    HW197201   8.516  13.639   0.557
31809SOL    HW297202   8.386  13.677   0.491
31810SOL     OW97203   6.646  13.656   0.899
31810SOL    HW197204   6.655  13.598   0.974
31810SOL    HW297205   6.634  13.597   0.825
31811SOL     OW97206   2.745  10.849   8.319
31811SOL    HW197207   2.833  10.813   8.312
31811SOL    HW297208   2.687  10.775   8.305
31812SOL     OW97209   9.106   0.960  14.613
31812SOL    HW197210   9.171   1.000  14.670
31812SOL    HW297211   9.029   0.947  14.669
31813SOL     OW97212   9.670   3.074  11.959
31813SOL    HW197213   9.623   3.127  12.024
31813SOL    HW297214   9.719   3.137  11.907
31814SOL     OW97215   7.970   4.945   3.693
31814SOL    HW197216   7.976   5.035   3.662
31814SOL    HW297217   7.885   4.914   3.662
31815SOL     OW97218   7.759   3.734  11.181
31815SOL    HW197219   7.811   3.804  11.143
31815SOL    HW297220   7.783   3.655  11.132
31816SOL     OW97221   0.621   0.880   0.416
31816SOL    HW197222   0.589   0.942   0.482
31816SOL    HW297223   0.716   0.890   0.419
31817SOL     OW97224   5.217   6.327  14.068
31817SOL    HW197225   5.275   6.273  14.015
31817SOL    HW297226   5.149   6.357  14.007
31818SOL     OW97227   6.972   9.397   0.217
31818SOL    HW197228   7.055   9.367   0.254
31818SOL    HW297229   6.997   9.466   0.155
31819SOL     OW97230   6.278   4.451   1.597
31819SOL    HW197231   6.305   4.542   1.605
31819SOL    HW297232   6.281   4.417   1.686
31820SOL     OW97233   4.259   2.208   1.957
31820SOL    HW197234   4.181   2.178   1.909
31820SOL    HW297235   4.229   2.284   2.007
31821SOL     OW97236   4.412   5.390   5.924
31821SOL    HW197237   4.494   5.342   5.915
31821SOL    HW297238   4.364   5.343   5.992
31822SOL     OW97239   6.221   5.552   8.360
31822SOL    HW197240   6.164   5.607   8.413
31822SOL    HW297241   6.184   5.557   8.272
31823SOL     OW97242   2.401   3.369   8.927
31823SOL    HW197243   2.340   3.347   8.856
31823SOL    HW297244   2.478   3.315   8.910
31824SOL     OW97245  10.470   8.481   6.829
31824SOL    HW197246  10.534   8.455   6.896
31824SOL    HW297247  10.522   8.527   6.763
31825SOL     OW97248   8.398   0.147   7.536
31825SOL    HW197249   8.388   0.149   7.632
31825SOL    HW297250   8.491   0.159   7.521
31826SOL     OW97251  14.693   3.039   1.482
31826SOL    HW197252  14.679   3.061   1.390
31826SOL    HW297253  14.689   2.943   1.485
31827SOL     OW97254  13.500   5.420   0.884
31827SOL    HW197255  13.493   5.499   0.830
31827SOL    HW297256  13.565   5.366   0.838
31828SOL     OW97257   7.774   5.682  14.004
31828SOL    HW197258   7.828   5.726  13.938
31828SOL    HW297259   7.794   5.728  14.086
31829SOL     OW97260   6.296  11.601  13.959
31829SOL    HW197261   6.321  11.690  13.934
31829SOL    HW297262   6.258  11.612  14.047
31830SOL     OW97263   6.863  14.261   7.941
31830SOL    HW197264   6.899  14.348   7.958
31830SOL    HW297265   6.792  14.276   7.879
31831SOL     OW97266   8.578   0.322   2.295
31831SOL    HW197267   8.657   0.315   2.348
31831SOL    HW297268   8.605   0.372   2.218
31832SOL     OW97269   5.240   3.392   9.686
31832SOL    HW197270   5.318   3.437   9.718
31832SOL    HW297271   5.264   3.299   9.685
31833SOL     OW97272  10.915   6.792   3.380
31833SOL    HW197273  10.876   6.732   3.317
31833SOL    HW297274  11.003   6.810   3.345
31834SOL     OW97275  12.420  13.713   2.058
31834SOL    HW197276  12.371  13.632   2.065
31834SOL    HW297277  12.375  13.762   1.988
31835SOL     OW97278   7.289   6.285   3.586
31835SOL    HW197279   7.279   6.372   3.623
31835SOL    HW297280   7.299   6.298   3.492
31836SOL     OW97281   2.915  14.134   8.735
31836SOL    HW197282   2.894  14.220   8.772
31836SOL    HW297283   2.890  14.141   8.643
31837SOL     OW97284  10.373  13.159  11.303
31837SOL    HW197285  10.433  13.097  11.262
31837SOL    HW297286  10.422  13.241  11.306
31838SOL     OW97287  12.706   0.675  13.401
31838SOL    HW197288  12.726   0.671  13.494
31838SOL    HW297289  12.618   0.639  13.393
31839SOL     OW97290   9.105   6.278   0.923
31839SOL    HW197291   9.037   6.259   0.988
31839SOL    HW297292   9.141   6.193   0.900
31840SOL     OW97293  11.397   8.013   4.184
31840SOL    HW197294  11.470   7.969   4.140
31840SOL    HW297295  11.407   7.990   4.277
31841SOL     OW97296   2.944  10.094   3.387
31841SOL    HW197297   3.039  10.096   3.390
31841SOL    HW297298   2.917  10.185   3.400
31842SOL     OW97299  11.510  12.979  13.472
31842SOL    HW197300  11.498  13.052  13.532
31842SOL    HW297301  11.472  13.009  13.389
31843SOL     OW97302  11.874   2.973  13.059
31843SOL    HW197303  11.846   3.036  12.992
31843SOL    HW297304  11.819   2.896  13.044
31844SOL     OW97305   5.726   2.123   1.362
31844SOL    HW197306   5.812   2.164   1.352
31844SOL    HW297307   5.710   2.124   1.457
31845SOL     OW97308   9.562   6.832   2.339
31845SOL    HW197309   9.484   6.777   2.346
31845SOL    HW297310   9.529   6.921   2.329
31846SOL     OW97311   5.650   3.928   0.946
31846SOL    HW197312   5.686   3.942   1.033
31846SOL    HW297313   5.725   3.903   0.892
31847SOL     OW97314   6.335   0.470   0.250
31847SOL    HW197315   6.312   0.534   0.317
31847SOL    HW297316   6.270   0.483   0.181
31848SOL     OW97317   7.736   1.635   5.058
31848SOL    HW197318   7.668   1.598   5.003
31848SOL    HW297319   7.753   1.568   5.125
31849SOL     OW97320  10.499   9.067   9.223
31849SOL    HW197321  10.451   9.026   9.295
31849SOL    HW297322  10.575   9.107   9.264
31850SOL     OW97323   1.467  11.647   2.991
31850SOL    HW197324   1.463  11.690   2.906
31850SOL    HW297325   1.375  11.635   3.016
31851SOL     OW97326  14.100  14.049   7.246
31851SOL    HW197327  14.039  13.976   7.232
31851SOL    HW297328  14.185  14.007   7.258
31852SOL     OW97329   3.047   6.490   1.962
31852SOL    HW197330   3.045   6.477   2.057
31852SOL    HW297331   2.982   6.429   1.928
31853SOL     OW97332   2.376  14.181   4.692
31853SOL    HW197333   2.398  14.219   4.777
31853SOL    HW297334   2.313  14.241   4.653
31854SOL     OW97335  13.038   4.243   7.630
31854SOL    HW197336  13.034   4.154   7.667
31854SOL    HW297337  13.084   4.232   7.547
31855SOL     OW97338   0.171   1.126   0.390
31855SOL    HW197339   0.118   1.046   0.391
31855SOL    HW297340   0.255   1.099   0.355
31856SOL     OW97341  10.860  12.569   1.092
31856SOL    HW197342  10.818  12.647   1.057
31856SOL    HW297343  10.792  12.501   1.088
31857SOL     OW97344   8.515   9.734   5.490
31857SOL    HW197345   8.506   9.639   5.498
31857SOL    HW297346   8.592   9.746   5.434
31858SOL     OW97347   1.627  12.716   1.198
31858SOL    HW197348   1.559  12.772   1.236
31858SOL    HW297349   1.580  12.659   1.137
31859SOL     OW97350   6.026   1.188   9.713
31859SOL    HW197351   6.042   1.100   9.746
31859SOL    HW297352   6.104   1.208   9.661
31860SOL     OW97353   5.105   1.110   7.928
31860SOL    HW197354   5.186   1.059   7.927
31860SOL    HW297355   5.058   1.080   8.006
31861SOL     OW97356  11.962  10.929   1.528
31861SOL    HW197357  11.947  10.982   1.606
31861SOL    HW297358  11.939  10.840   1.555
31862SOL     OW97359   4.951   8.047  14.290
31862SOL    HW197360   4.956   8.037  14.385
31862SOL    HW297361   5.038   8.022  14.259
31863SOL     OW97362   4.412  13.819   8.207
31863SOL    HW197363   4.484  13.800   8.147
31863SOL    HW297364   4.445  13.794   8.293
31864SOL     OW97365   2.474   0.208  10.268
31864SOL    HW197366   2.457   0.303  10.267
31864SOL    HW297367   2.561   0.198  10.231
31865SOL     OW97368   9.399  14.783   4.955
31865SOL    HW197369   9.488  14.812   4.976
31865SOL    HW297370   9.342  14.841   5.005
31866SOL     OW97371  13.283   2.430  12.211
31866SOL    HW197372  13.298   2.509  12.264
31866SOL    HW297373  13.254   2.364  12.275
31867SOL     OW97374  10.460   2.236   8.156
31867SOL    HW197375  10.474   2.151   8.115
31867SOL    HW297376  10.367   2.255   8.142
31868SOL     OW97377  10.585   3.002   8.424
31868SOL    HW197378  10.534   2.922   8.412
31868SOL    HW297379  10.665   2.988   8.373
31869SOL     OW97380  11.508   5.589   7.513
31869SOL    HW197381  11.437   5.639   7.473
31869SOL    HW297382  11.493   5.498   7.485
31870SOL     OW97383   5.699   4.357   7.657
31870SOL    HW197384   5.720   4.416   7.584
31870SOL    HW297385   5.640   4.292   7.619
31871SOL     OW97386  10.928  14.082  13.273
31871SOL    HW197387  10.936  14.111  13.363
31871SOL    HW297388  10.992  14.135  13.225
31872SOL     OW97389   2.262  11.237   0.050
31872SOL    HW197390   2.186  11.201   0.095
31872SOL    HW297391   2.263  11.329   0.075
31873SOL     OW97392   6.558  12.512   6.535
31873SOL    HW197393   6.554  12.604   6.560
31873SOL    HW297394   6.594  12.467   6.611
31874SOL     OW97395   6.700   5.398  12.872
31874SOL    HW197396   6.642   5.331  12.908
31874SOL    HW297397   6.693   5.387  12.777
31875SOL     OW97398   4.095   4.990   8.365
31875SOL    HW197399   4.110   4.972   8.272
31875SOL    HW297400   4.153   5.063   8.385
31876SOL     OW97401   6.517  13.443   8.189
31876SOL    HW197402   6.499  13.349   8.191
31876SOL    HW297403   6.590  13.453   8.127
31877SOL     OW97404  14.772   5.043   7.363
31877SOL    HW197405  14.761   5.050   7.458
31877SOL    HW297406  14.779   4.949   7.346
31878SOL     OW97407   6.238   7.021   3.351
31878SOL    HW197408   6.290   6.946   3.322
31878SOL    HW297409   6.147   6.992   3.342
31879SOL     OW97410   0.899   4.079   6.533
31879SOL    HW197411   0.972   4.128   6.571
31879SOL    HW297412   0.937   3.993   6.513
31880SOL     OW97413  10.339  10.750  10.073
31880SOL    HW197414  10.413  10.747  10.013
31880SOL    HW297415  10.275  10.689  10.035
31881SOL     OW97416   3.353   4.831  12.927
31881SOL    HW197417   3.390   4.764  12.870
31881SOL    HW297418   3.292   4.784  12.983
31882SOL     OW97419   7.072   8.550   1.711
31882SOL    HW197420   7.078   8.506   1.796
31882SOL    HW297421   7.049   8.480   1.649
31883SOL     OW97422  10.597   8.549  14.030
31883SOL    HW197423  10.515   8.584  14.064
31883SOL    HW297424  10.577   8.458  14.009
31884SOL     OW97425   7.297   9.476   4.886
31884SOL    HW197426   7.302   9.565   4.850
31884SOL    HW297427   7.357   9.424   4.831
31885SOL     OW97428   2.159   7.400  12.671
31885SOL    HW197429   2.151   7.437  12.583
31885SOL    HW297430   2.074   7.416  12.712
31886SOL     OW97431  12.406  10.572   1.439
31886SOL    HW197432  12.357  10.536   1.365
31886SOL    HW297433  12.353  10.646   1.469
31887SOL     OW97434   1.224   6.749   1.550
31887SOL    HW197435   1.226   6.653   1.543
31887SOL    HW297436   1.205   6.766   1.642
31888SOL     OW97437  13.318   0.760   5.501
31888SOL    HW197438  13.236   0.784   5.544
31888SOL    HW297439  13.384   0.814   5.545
31889SOL     OW97440   3.272   4.571   2.223
31889SOL    HW197441   3.232   4.484   2.214
31889SOL    HW297442   3.199   4.632   2.211
31890SOL     OW97443  14.483   2.913   6.657
31890SOL    HW197444  14.541   2.988   6.653
31890SOL    HW297445  14.395   2.950   6.663
31891SOL     OW97446   8.786   6.650   2.690
31891SOL    HW197447   8.770   6.604   2.607
31891SOL    HW297448   8.881   6.645   2.702
31892SOL     OW97449   8.952  13.858   5.224
31892SOL    HW197450   9.032  13.910   5.227
31892SOL    HW297451   8.909  13.885   5.142
31893SOL     OW97452  13.753  14.706   1.910
31893SOL    HW197453  13.826  14.651   1.884
31893SOL    HW297454  13.702  14.652   1.970
31894SOL     OW97455  10.556  12.173   8.244
31894SOL    HW197456  10.482  12.181   8.184
31894SOL    HW297457  10.585  12.082   8.235
31895SOL     OW97458   1.839  14.409   5.773
31895SOL    HW197459   1.811  14.494   5.805
31895SOL    HW297460   1.907  14.428   5.708
31896SOL     OW97461   2.979   8.997  13.862
31896SOL    HW197462   2.955   9.066  13.924
31896SOL    HW297463   2.923   9.014  13.786
31897SOL     OW97464  11.283   1.643  12.207
31897SOL    HW197465  11.249   1.573  12.150
31897SOL    HW297466  11.204   1.686  12.240
31898SOL     OW97467  12.732  14.201   2.392
31898SOL    HW197468  12.775  14.282   2.363
31898SOL    HW297469  12.804  14.148   2.427
31899SOL     OW97470   5.794  10.574   6.341
31899SOL    HW197471   5.853  10.640   6.378
31899SOL    HW297472   5.707  10.598   6.374
31900SOL     OW97473   1.390  12.144   6.335
31900SOL    HW197474   1.374  12.092   6.257
31900SOL    HW297475   1.337  12.223   6.322
31901SOL     OW97476   5.662  14.731   6.830
31901SOL    HW197477   5.627  14.653   6.873
31901SOL    HW297478   5.753  14.708   6.808
31902SOL     OW97479   5.434   0.131   2.554
31902SOL    HW197480   5.518   0.129   2.510
31902SOL    HW297481   5.371   0.103   2.487
31903SOL     OW97482   4.420   3.589   8.095
31903SOL    HW197483   4.346   3.649   8.083
31903SOL    HW297484   4.431   3.548   8.009
31904SOL     OW97485  12.233  12.821   4.976
31904SOL    HW197486  12.321  12.799   4.948
31904SOL    HW297487  12.184  12.834   4.895
31905SOL     OW97488   2.019   4.541   3.870
31905SOL    HW197489   2.003   4.451   3.842
31905SOL    HW297490   2.010   4.538   3.966
31906SOL     OW97491  13.959  10.903   9.704
31906SOL    HW197492  14.024  10.934   9.768
31906SOL    HW297493  13.977  10.953   9.625
31907SOL     OW97494   2.892   9.751   7.655
31907SOL    HW197495   2.931   9.836   7.635
31907SOL    HW297496   2.842   9.767   7.735
31908SOL     OW97497   4.390   5.443  11.488
31908SOL    HW197498   4.406   5.438  11.582
31908SOL    HW297499   4.305   5.488  11.481
31909SOL     OW97500  14.243   9.969   3.432
31909SOL    HW197501  14.178   9.900   3.417
31909SOL    HW297502  14.325   9.923   3.448
31910SOL     OW97503   3.489   4.419   8.041
31910SOL    HW197504   3.521   4.352   8.101
31910SOL    HW297505   3.395   4.401   8.034
31911SOL     OW97506  13.665  13.728   1.320
31911SOL    HW197507  13.616  13.779   1.255
31911SOL    HW297508  13.672  13.641   1.281
31912SOL     OW97509  11.062   6.726   2.724
31912SOL    HW197510  10.973   6.706   2.695
31912SOL    HW297511  11.050   6.778   2.803
31913SOL     OW97512  11.240  11.590   7.085
31913SOL    HW197513  11.158  11.636   7.068
31913SOL    HW297514  11.275  11.631   7.164
31914SOL     OW97515   5.356   4.793   2.954
31914SOL    HW197516   5.411   4.759   2.883
31914SOL    HW297517   5.267   4.782   2.922
31915SOL     OW97518   8.285  12.869  14.226
31915SOL    HW197519   8.290  12.960  14.257
31915SOL    HW297520   8.333  12.819  14.293
31916SOL     OW97521  11.427  10.473  12.976
31916SOL    HW197522  11.383  10.555  12.995
31916SOL    HW297523  11.518  10.489  13.000
31917SOL     OW97524   6.761  10.760   5.512
31917SOL    HW197525   6.665  10.758   5.517
31917SOL    HW297526   6.789  10.774   5.603
31918SOL     OW97527   2.392  13.123   9.250
31918SOL    HW197528   2.327  13.065   9.210
31918SOL    HW297529   2.403  13.195   9.188
31919SOL     OW97530   0.276   9.046   2.248
31919SOL    HW197531   0.319   8.975   2.200
31919SOL    HW297532   0.265   9.115   2.183
31920SOL     OW97533  13.947   5.691   6.710
31920SOL    HW197534  13.910   5.780   6.706
31920SOL    HW297535  13.924   5.659   6.797
31921SOL     OW97536   7.365   3.046  11.526
31921SOL    HW197537   7.377   3.053  11.432
31921SOL    HW297538   7.295   2.981  11.536
31922SOL     OW97539   4.644   5.914   8.595
31922SOL    HW197540   4.635   5.934   8.688
31922SOL    HW297541   4.555   5.899   8.565
31923SOL     OW97542  10.132   7.330  13.885
31923SOL    HW197543  10.065   7.348  13.819
31923SOL    HW297544  10.200   7.396  13.868
31924SOL     OW97545   4.502  13.057  11.024
31924SOL    HW197546   4.519  12.975  11.070
31924SOL    HW297547   4.407  13.068  11.029
31925SOL     OW97548  13.022   5.971   5.253
31925SOL    HW197549  12.941   6.015   5.277
31925SOL    HW297550  13.092   6.031   5.282
31926SOL     OW97551  10.402   4.811   3.058
31926SOL    HW197552  10.316   4.793   3.097
31926SOL    HW297553  10.434   4.725   3.031
31927SOL     OW97554   8.302   2.010   9.834
31927SOL    HW197555   8.236   2.075   9.859
31927SOL    HW297556   8.342   1.984   9.917
31928SOL     OW97557  10.531  12.062   4.002
31928SOL    HW197558  10.545  12.022   4.088
31928SOL    HW297559  10.580  12.006   3.942
31929SOL     OW97560  14.172  12.940   0.813
31929SOL    HW197561  14.094  12.994   0.824
31929SOL    HW297562  14.151  12.880   0.743
31930SOL     OW97563   1.240   8.236   6.445
31930SOL    HW197564   1.217   8.165   6.385
31930SOL    HW297565   1.312   8.200   6.497
31931SOL     OW97566   7.416   5.275   7.551
31931SOL    HW197567   7.339   5.230   7.517
31931SOL    HW297568   7.382   5.356   7.590
31932SOL     OW97569   6.215  12.647   1.445
31932SOL    HW197570   6.240  12.584   1.378
31932SOL    HW297571   6.162  12.712   1.399
31933SOL     OW97572   3.974  10.418   7.058
31933SOL    HW197573   3.986  10.361   7.134
31933SOL    HW297574   4.010  10.502   7.085
31934SOL     OW97575   6.049   7.431  11.826
31934SOL    HW197576   6.082   7.371  11.893
31934SOL    HW297577   6.026   7.374  11.752
31935SOL     OW97578  14.814  13.887   0.171
31935SOL    HW197579  14.772  13.834   0.103
31935SOL    HW297580   0.016  13.838   0.192
31936SOL     OW97581  11.886  14.850   4.144
31936SOL    HW197582  11.880  14.811   4.231
31936SOL    HW297583  11.816   0.037   4.142
31937SOL     OW97584   4.695   9.557  13.493
31937SOL    HW197585   4.664   9.632  13.442
31937SOL    HW297586   4.787   9.578  13.511
31938SOL     OW97587   4.664   8.200   9.122
31938SOL    HW197588   4.569   8.195   9.127
31938SOL    HW297589   4.685   8.174   9.032
31939SOL     OW97590  13.209   8.506   4.604
31939SOL    HW197591  13.264   8.535   4.676
31939SOL    HW297592  13.234   8.561   4.530
31940SOL     OW97593   8.892   6.247   5.633
31940SOL    HW197594   8.887   6.245   5.538
31940SOL    HW297595   8.878   6.339   5.656
31941SOL     OW97596   2.241   5.550   5.162
31941SOL    HW197597   2.218   5.642   5.180
31941SOL    HW297598   2.225   5.505   5.245
31942SOL     OW97599   6.027  12.509   8.632
31942SOL    HW197600   5.941  12.502   8.590
31942SOL    HW297601   6.088  12.518   8.559
31943SOL     OW97602  10.681   8.559   4.760
31943SOL    HW197603  10.618   8.486   4.761
31943SOL    HW297604  10.753   8.529   4.816
31944SOL     OW97605   9.927   3.866  13.428
31944SOL    HW197606   9.931   3.771  13.440
31944SOL    HW297607   9.847   3.880  13.378
31945SOL     OW97608  12.209   6.514   6.376
31945SOL    HW197609  12.235   6.422   6.365
31945SOL    HW297610  12.153   6.532   6.300
31946SOL     OW97611   8.783   8.021   3.388
31946SOL    HW197612   8.723   8.002   3.460
31946SOL    HW297613   8.812   7.935   3.358
31947SOL     OW97614  14.778   2.048   8.796
31947SOL    HW197615  14.736   2.078   8.715
31947SOL    HW297616  14.803   1.958   8.779
31948SOL     OW97617   8.229  14.739  11.003
31948SOL    HW197618   8.143  14.732  10.961
31948SOL    HW297619   8.228  14.826  11.044
31949SOL     OW97620   5.713   7.128  13.094
31949SOL    HW197621   5.682   7.210  13.055
31949SOL    HW297622   5.802   7.118  13.059
31950SOL     OW97623   2.940   0.999   1.087
31950SOL    HW197624   2.918   1.092   1.084
31950SOL    HW297625   3.023   0.996   1.136
31951SOL     OW97626   8.189   2.521   9.472
31951SOL    HW197627   8.149   2.577   9.538
31951SOL    HW297628   8.156   2.433   9.491
31952SOL     OW97629   2.000   0.356  10.971
31952SOL    HW197630   1.947   0.290  10.928
31952SOL    HW297631   1.944   0.433  10.975
31953SOL     OW97632   4.962  13.561  10.131
31953SOL    HW197633   4.911  13.499  10.079
31953SOL    HW297634   4.961  13.642  10.079
31954SOL     OW97635  13.437   3.731  10.409
31954SOL    HW197636  13.444   3.793  10.482
31954SOL    HW297637  13.491   3.770  10.340
31955SOL     OW97638   4.005   5.221  10.815
31955SOL    HW197639   4.059   5.235  10.893
31955SOL    HW297640   3.916   5.210  10.849
31956SOL     OW97641   8.590   3.349   5.442
31956SOL    HW197642   8.645   3.382   5.371
31956SOL    HW297643   8.558   3.428   5.487
31957SOL     OW97644  11.066  13.644   2.284
31957SOL    HW197645  11.085  13.559   2.325
31957SOL    HW297646  10.971  13.650   2.284
31958SOL     OW97647  12.386   2.553   0.939
31958SOL    HW197648  12.388   2.642   0.905
31958SOL    HW297649  12.469   2.514   0.909
31959SOL     OW97650   2.443   1.872  10.684
31959SOL    HW197651   2.457   1.781  10.709
31959SOL    HW297652   2.483   1.923  10.754
31960SOL     OW97653   4.515  10.187   3.674
31960SOL    HW197654   4.585  10.123   3.662
31960SOL    HW297655   4.514  10.237   3.593
31961SOL     OW97656   8.941  11.636   8.406
31961SOL    HW197657   9.003  11.615   8.336
31961SOL    HW297658   8.976  11.590   8.483
31962SOL     OW97659   6.264   7.495   6.263
31962SOL    HW197660   6.272   7.476   6.170
31962SOL    HW297661   6.268   7.591   6.268
31963SOL     OW97662   5.256  14.105  11.205
31963SOL    HW197663   5.235  14.030  11.149
31963SOL    HW297664   5.296  14.067  11.283
31964SOL     OW97665  10.408   9.090   5.524
31964SOL    HW197666  10.339   9.141   5.481
31964SOL    HW297667  10.446   9.151   5.588
31965SOL     OW97668   4.138  11.899   5.842
31965SOL    HW197669   4.102  11.839   5.777
31965SOL    HW297670   4.067  11.910   5.906
31966SOL     OW97671   4.579   4.901   2.120
31966SOL    HW197672   4.566   4.983   2.167
31966SOL    HW297673   4.665   4.909   2.080
31967SOL     OW97674   5.468   6.366  10.809
31967SOL    HW197675   5.475   6.312  10.730
31967SOL    HW297676   5.554   6.406  10.818
31968SOL     OW97677   8.654   6.778  11.301
31968SOL    HW197678   8.592   6.707  11.285
31968SOL    HW297679   8.599   6.850  11.333
31969SOL     OW97680   0.643   7.418  11.973
31969SOL    HW197681   0.551   7.393  11.967
31969SOL    HW297682   0.691   7.336  11.973
31970SOL     OW97683   5.890   0.765  12.794
31970SOL    HW197684   5.978   0.770  12.833
31970SOL    HW297685   5.903   0.713  12.714
31971SOL     OW97686   4.902  12.783  11.868
31971SOL    HW197687   4.853  12.858  11.902
31971SOL    HW297688   4.911  12.724  11.943
31972SOL     OW97689  11.619  13.715   6.116
31972SOL    HW197690  11.535  13.670   6.108
31972SOL    HW297691  11.597  13.806   6.134
31973SOL     OW97692  11.596   2.781   7.175
31973SOL    HW197693  11.601   2.688   7.195
31973SOL    HW297694  11.661   2.821   7.233
31974SOL     OW97695   3.967   7.870  13.778
31974SOL    HW197696   4.039   7.885  13.717
31974SOL    HW297697   4.010   7.850  13.861
31975SOL     OW97698   2.440   3.343   8.312
31975SOL    HW197699   2.512   3.315   8.370
31975SOL    HW297700   2.449   3.438   8.308
31976SOL     OW97701   6.708   9.186  10.493
31976SOL    HW197702   6.768   9.193  10.419
31976SOL    HW297703   6.658   9.107  10.476
31977SOL     OW97704   2.322   8.302   4.054
31977SOL    HW197705   2.247   8.289   4.111
31977SOL    HW297706   2.384   8.233   4.080
31978SOL     OW97707  12.706   7.948   3.468
31978SOL    HW197708  12.697   8.010   3.541
31978SOL    HW297709  12.770   7.884   3.499
31979SOL     OW97710   0.181   8.956   1.907
31979SOL    HW197711   0.176   8.974   1.813
31979SOL    HW297712   0.134   8.873   1.918
31980SOL     OW97713   6.081   9.373  11.365
31980SOL    HW197714   6.026   9.295  11.368
31980SOL    HW297715   6.160   9.349  11.412
31981SOL     OW97716   3.257  11.754  13.898
31981SOL    HW197717   3.239  11.665  13.929
31981SOL    HW297718   3.353  11.759  13.897
31982SOL     OW97719  12.973   5.225   8.982
31982SOL    HW197720  12.917   5.232   8.905
31982SOL    HW297721  12.949   5.301   9.036
31983SOL     OW97722   7.372   1.863  12.335
31983SOL    HW197723   7.416   1.813  12.266
31983SOL    HW297724   7.412   1.950  12.330
31984SOL     OW97725  10.958   3.070   4.377
31984SOL    HW197726  10.944   3.136   4.445
31984SOL    HW297727  10.996   3.119   4.304
31985SOL     OW97728  13.884   9.563   8.911
31985SOL    HW197729  13.974   9.587   8.933
31985SOL    HW297730  13.847   9.643   8.874
31986SOL     OW97731   3.924   2.719   7.757
31986SOL    HW197732   3.889   2.663   7.827
31986SOL    HW297733   3.848   2.764   7.721
31987SOL     OW97734   5.471   2.259   5.233
31987SOL    HW197735   5.389   2.248   5.186
31987SOL    HW297736   5.525   2.313   5.174
31988SOL     OW97737   9.540   2.923   2.474
31988SOL    HW197738   9.580   2.954   2.555
31988SOL    HW297739   9.615   2.903   2.417
31989SOL     OW97740   1.237  12.620   3.236
31989SOL    HW197741   1.211  12.530   3.258
31989SOL    HW297742   1.194  12.674   3.302
31990SOL     OW97743   3.624  11.892   8.437
31990SOL    HW197744   3.563  11.940   8.494
31990SOL    HW297745   3.645  11.813   8.487
31991SOL     OW97746   3.111   0.069   5.095
31991SOL    HW197747   3.041   0.078   5.160
31991SOL    HW297748   3.139  14.856   5.103
31992SOL     OW97749   1.131   1.391   1.503
31992SOL    HW197750   1.166   1.421   1.587
31992SOL    HW297751   1.084   1.466   1.468
31993SOL     OW97752   9.647  13.644   4.917
31993SOL    HW197753   9.702  13.631   4.994
31993SOL    HW297754   9.688  13.592   4.849
31994SOL     OW97755  11.461   4.580   2.914
31994SOL    HW197756  11.376   4.607   2.878
31994SOL    HW297757  11.450   4.588   3.009
31995SOL     OW97758   6.965   2.534  14.157
31995SOL    HW197759   6.886   2.559  14.204
31995SOL    HW297760   6.935   2.510  14.069
31996SOL     OW97761   9.221   6.516   9.468
31996SOL    HW197762   9.305   6.489   9.432
31996SOL    HW297763   9.228   6.499   9.562
31997SOL     OW97764   7.041   9.565  14.866
31997SOL    HW197765   7.057   9.657   0.006
31997SOL    HW297766   7.126   9.531  14.837
31998SOL     OW97767  11.401   5.995  14.544
31998SOL    HW197768  11.458   6.058  14.587
31998SOL    HW297769  11.450   5.913  14.548
31999SOL     OW97770   8.901  10.549   2.485
31999SOL    HW197771   8.862  10.468   2.454
31999SOL    HW297772   8.988  10.524   2.517
32000SOL     OW97773   8.899   3.288   0.379
32000SOL    HW197774   8.843   3.342   0.434
32000SOL    HW297775   8.894   3.328   0.292
32001SOL     OW97776   3.795   8.893  10.050
32001SOL    HW197777   3.756   8.965  10.100
32001SOL    HW297778   3.794   8.819  10.110
32002SOL     OW97779   4.598   9.200  13.590
32002SOL    HW197780   4.544   9.206  13.669
32002SOL    HW297781   4.678   9.248  13.612
32003SOL     OW97782   8.785  10.290   1.008
32003SOL    HW197783   8.747  10.376   1.025
32003SOL    HW297784   8.716  10.228   1.030
32004SOL     OW97785   6.810   7.301  10.121
32004SOL    HW197786   6.822   7.274  10.030
32004SOL    HW297787   6.899   7.316  10.153
32005SOL     OW97788  14.086   9.366  12.409
32005SOL    HW197789  14.127   9.279  12.410
32005SOL    HW297790  13.996   9.349  12.438
32006SOL     OW97791  11.251   7.414  11.584
32006SOL    HW197792  11.172   7.408  11.531
32006SOL    HW297793  11.273   7.322  11.604
32007SOL     OW97794   6.770   8.034   5.848
32007SOL    HW197795   6.776   8.018   5.942
32007SOL    HW297796   6.703   7.972   5.818
32008SOL     OW97797  13.824   3.426  14.123
32008SOL    HW197798  13.916   3.425  14.097
32008SOL    HW297799  13.777   3.457  14.046
32009SOL     OW97800   3.450   5.564   7.378
32009SOL    HW197801   3.406   5.645   7.352
32009SOL    HW297802   3.527   5.559   7.322
32010SOL     OW97803   3.916  12.199   8.597
32010SOL    HW197804   3.938  12.286   8.629
32010SOL    HW297805   3.820  12.201   8.587
32011SOL     OW97806  11.285  13.123   0.754
32011SOL    HW197807  11.230  13.199   0.769
32011SOL    HW297808  11.329  13.108   0.838
32012SOL     OW97809   0.546  14.187   1.350
32012SOL    HW197810   0.483  14.175   1.279
32012SOL    HW297811   0.618  14.236   1.310
32013SOL     OW97812   6.686   2.710   1.441
32013SOL    HW197813   6.649   2.781   1.494
32013SOL    HW297814   6.780   2.726   1.442
32014SOL     OW97815   5.408   0.183   6.142
32014SOL    HW197816   5.439   0.160   6.229
32014SOL    HW297817   5.321   0.144   6.137
32015SOL     OW97818   1.890   6.353   0.731
32015SOL    HW197819   1.863   6.291   0.663
32015SOL    HW297820   1.986   6.348   0.731
32016SOL     OW97821   1.844   9.810   0.414
32016SOL    HW197822   1.749   9.819   0.412
32016SOL    HW297823   1.864   9.754   0.339
32017SOL     OW97824  14.304   9.063   9.063
32017SOL    HW197825  14.223   9.110   9.081
32017SOL    HW297826  14.372   9.113   9.108
32018SOL     OW97827   1.900   6.048   0.569
32018SOL    HW197828   1.942   6.119   0.519
32018SOL    HW297829   1.956   5.972   0.553
32019SOL     OW97830  14.233   0.069   8.776
32019SOL    HW197831  14.235   0.004   8.846
32019SOL    HW297832  14.269   0.024   8.700
32020SOL     OW97833   0.486  13.564   6.252
32020SOL    HW197834   0.544  13.493   6.281
32020SOL    HW297835   0.528  13.644   6.284
32021SOL     OW97836   9.073   3.328   1.624
32021SOL    HW197837   9.022   3.271   1.682
32021SOL    HW297838   9.118   3.388   1.684
32022SOL     OW97839   8.738   4.287   2.839
32022SOL    HW197840   8.720   4.250   2.752
32022SOL    HW297841   8.671   4.250   2.895
32023SOL     OW97842   9.273   9.032   7.335
32023SOL    HW197843   9.217   8.958   7.313
32023SOL    HW297844   9.362   9.000   7.321
32024SOL     OW97845   5.064  12.199   5.225
32024SOL    HW197846   4.974  12.208   5.258
32024SOL    HW297847   5.081  12.105   5.227
32025SOL     OW97848   0.269   2.472  10.609
32025SOL    HW197849   0.349   2.494  10.656
32025SOL    HW297850   0.299   2.429  10.529
32026SOL     OW97851   2.199   0.538  13.454
32026SOL    HW197852   2.182   0.598  13.527
32026SOL    HW297853   2.178   0.590  13.376
32027SOL     OW97854   9.875  11.197  11.615
32027SOL    HW197855   9.816  11.266  11.586
32027SOL    HW297856   9.921  11.169  11.535
32028SOL     OW97857   4.067  11.622   5.517
32028SOL    HW197858   4.014  11.550   5.483
32028SOL    HW297859   4.070  11.607   5.611
32029SOL     OW97860   7.117   0.982   4.790
32029SOL    HW197861   7.027   0.974   4.760
32029SOL    HW297862   7.124   0.921   4.863
32030SOL     OW97863   6.938  13.879   7.428
32030SOL    HW197864   6.935  13.974   7.436
32030SOL    HW297865   7.012  13.853   7.482
32031SOL     OW97866   5.231  14.247  13.130
32031SOL    HW197867   5.281  14.215  13.204
32031SOL    HW297868   5.283  14.319  13.094
32032SOL     OW97869   7.448   9.667   7.213
32032SOL    HW197870   7.486   9.754   7.204
32032SOL    HW297871   7.512   9.619   7.266
32033SOL     OW97872   9.734   5.181  14.662
32033SOL    HW197873   9.785   5.205  14.585
32033SOL    HW297874   9.791   5.200  14.736
32034SOL     OW97875  12.771  13.209   3.873
32034SOL    HW197876  12.809  13.152   3.940
32034SOL    HW297877  12.741  13.149   3.805
32035SOL     OW97878   2.277  13.886   3.668
32035SOL    HW197879   2.329  13.958   3.632
32035SOL    HW297880   2.246  13.838   3.592
32036SOL     OW97881   8.543  14.275   3.333
32036SOL    HW197882   8.456  14.300   3.363
32036SOL    HW297883   8.530  14.196   3.281
32037SOL     OW97884  12.332   2.820   5.049
32037SOL    HW197885  12.289   2.760   4.989
32037SOL    HW297886  12.306   2.789   5.136
32038SOL     OW97887  13.943   6.967  10.483
32038SOL    HW197888  13.921   7.035  10.419
32038SOL    HW297889  13.865   6.911  10.486
32039SOL     OW97890  12.451  12.577   8.988
32039SOL    HW197891  12.438  12.536   9.073
32039SOL    HW297892  12.380  12.543   8.934
32040SOL     OW97893   0.594   6.179   7.350
32040SOL    HW197894   0.593   6.274   7.338
32040SOL    HW297895   0.652   6.146   7.281
32041SOL     OW97896  14.125   7.056  11.003
32041SOL    HW197897  14.074   7.094  11.074
32041SOL    HW297898  14.130   6.963  11.024
32042SOL     OW97899   5.314  13.139   0.441
32042SOL    HW197900   5.322  13.129   0.346
32042SOL    HW297901   5.332  13.051   0.476
32043SOL     OW97902  12.645   8.973   2.994
32043SOL    HW197903  12.699   8.998   3.069
32043SOL    HW297904  12.574   8.921   3.032
32044SOL     OW97905   6.920   3.799  10.850
32044SOL    HW197906   6.943   3.786  10.759
32044SOL    HW297907   6.903   3.893  10.857
32045SOL     OW97908   3.548  14.245  11.661
32045SOL    HW197909   3.615  14.313  11.662
32045SOL    HW297910   3.596  14.163  11.670
32046SOL     OW97911   2.507   9.523   3.071
32046SOL    HW197912   2.573   9.455   3.057
32046SOL    HW297913   2.437   9.501   3.010
32047SOL     OW97914  14.219   0.045   1.625
32047SOL    HW197915  14.300   0.095   1.616
32047SOL    HW297916  14.172   0.059   1.543
32048SOL     OW97917   4.164   1.750  13.754
32048SOL    HW197918   4.119   1.667  13.773
32048SOL    HW297919   4.141   1.769  13.663
32049SOL     OW97920   6.843  13.425   7.079
32049SOL    HW197921   6.828  13.488   7.150
32049SOL    HW297922   6.811  13.342   7.114
32050SOL     OW97923   5.421   7.723  13.561
32050SOL    HW197924   5.357   7.787  13.530
32050SOL    HW297925   5.503   7.772  13.569
32051SOL     OW97926   1.655  12.378  14.001
32051SOL    HW197927   1.614  12.383  14.088
32051SOL    HW297928   1.582  12.364  13.941
32052SOL     OW97929   9.135  12.973  11.037
32052SOL    HW197930   9.096  13.057  11.012
32052SOL    HW297931   9.224  12.976  11.002
32053SOL     OW97932   0.866  11.468   9.927
32053SOL    HW197933   0.810  11.492   9.853
32053SOL    HW297934   0.828  11.387   9.961
32054SOL     OW97935  10.312  10.721   4.426
32054SOL    HW197936  10.290  10.811   4.449
32054SOL    HW297937  10.377  10.729   4.356
32055SOL     OW97938  12.230   9.759   0.786
32055SOL    HW197939  12.249   9.689   0.724
32055SOL    HW297940  12.141   9.786   0.765
32056SOL     OW97941   1.575   2.145   1.350
32056SOL    HW197942   1.579   2.061   1.396
32056SOL    HW297943   1.568   2.210   1.420
32057SOL     OW97944  10.921   1.632   6.859
32057SOL    HW197945  10.983   1.572   6.901
32057SOL    HW297946  10.921   1.710   6.916
32058SOL     OW97947   6.365   2.645  14.254
32058SOL    HW197948   6.380   2.651  14.159
32058SOL    HW297949   6.281   2.600  14.262
32059SOL     OW97950   2.993   0.936   6.375
32059SOL    HW197951   2.999   0.897   6.288
32059SOL    HW297952   3.084   0.957   6.398
32060SOL     OW97953  11.086   8.034  11.846
32060SOL    HW197954  11.085   7.981  11.926
32060SOL    HW297955  11.027   8.107  11.865
32061SOL     OW97956  12.307   1.467   5.916
32061SOL    HW197957  12.370   1.524   5.961
32061SOL    HW297958  12.271   1.411   5.985
32062SOL     OW97959  13.458  12.916  10.237
32062SOL    HW197960  13.486  12.852  10.303
32062SOL    HW297961  13.529  12.915  10.173
32063SOL     OW97962   5.181   7.793   9.896
32063SOL    HW197963   5.220   7.877   9.872
32063SOL    HW297964   5.114   7.778   9.829
32064SOL     OW97965   0.434   9.191   0.337
32064SOL    HW197966   0.464   9.168   0.425
32064SOL    HW297967   0.368   9.124   0.317
32065SOL     OW97968  12.355   6.466  10.904
32065SOL    HW197969  12.330   6.500  10.818
32065SOL    HW297970  12.321   6.530  10.967
32066SOL     OW97971   3.013   5.294  10.800
32066SOL    HW197972   2.977   5.222  10.749
32066SOL    HW297973   3.011   5.369  10.740
32067SOL     OW97974   8.188   5.771  13.982
32067SOL    HW197975   8.197   5.677  13.965
32067SOL    HW297976   8.185   5.811  13.895
32068SOL     OW97977  14.427  11.145  14.303
32068SOL    HW197978  14.482  11.071  14.276
32068SOL    HW297979  14.458  11.219  14.251
32069SOL     OW97980   2.693  11.747   0.588
32069SOL    HW197981   2.761  11.797   0.634
32069SOL    HW297982   2.639  11.710   0.658
32070SOL     OW97983   5.734   0.620   5.564
32070SOL    HW197984   5.754   0.709   5.535
32070SOL    HW297985   5.742   0.567   5.484
32071SOL     OW97986   0.705  11.346   7.288
32071SOL    HW197987   0.740  11.428   7.253
32071SOL    HW297988   0.671  11.369   7.374
32072SOL     OW97989   3.994   4.734   5.736
32072SOL    HW197990   3.975   4.670   5.667
32072SOL    HW297991   3.923   4.798   5.729
32073SOL     OW97992   2.032   3.878   0.619
32073SOL    HW197993   2.111   3.898   0.669
32073SOL    HW297994   1.977   3.829   0.681
32074SOL     OW97995  12.347   5.278  13.807
32074SOL    HW197996  12.345   5.241  13.895
32074SOL    HW297997  12.379   5.368  13.820
32075SOL     OW97998  14.858   8.481  12.139
32075SOL    HW197999   0.012   8.543  12.204
32075SOL    HW298000   0.038   8.495  12.063
32076SOL     OW98001  11.335   5.208  11.227
32076SOL    HW198002  11.329   5.209  11.322
32076SOL    HW298003  11.429   5.208  11.209
32077SOL     OW98004  14.292   3.311   1.598
32077SOL    HW198005  14.371   3.365   1.594
32077SOL    HW298006  14.285   3.284   1.690
32078SOL     OW98007   0.479   7.517   1.924
32078SOL    HW198008   0.434   7.570   1.990
32078SOL    HW298009   0.500   7.578   1.854
32079SOL     OW98010   6.287   6.145   3.648
32079SOL    HW198011   6.302   6.075   3.711
32079SOL    HW298012   6.210   6.192   3.682
32080SOL     OW98013   9.470  14.820   6.237
32080SOL    HW198014   9.384  14.787   6.263
32080SOL    HW298015   9.455  14.865   6.154
32081SOL     OW98016  12.187  12.729   9.904
32081SOL    HW198017  12.225  12.647   9.874
32081SOL    HW298018  12.132  12.759   9.832
32082SOL     OW98019  10.220   7.075  10.138
32082SOL    HW198020  10.287   7.127  10.093
32082SOL    HW298021  10.261   7.052  10.221
32083SOL     OW98022  12.291   4.104   3.436
32083SOL    HW198023  12.376   4.131   3.470
32083SOL    HW298024  12.306   4.016   3.401
32084SOL     OW98025  11.985   0.955   2.833
32084SOL    HW198026  11.891   0.953   2.853
32084SOL    HW298027  11.989   0.970   2.739
32085SOL     OW98028  10.763  14.822  11.925
32085SOL    HW198029  10.738  14.750  11.868
32085SOL    HW298030  10.707  14.811  12.002
32086SOL     OW98031   9.799  12.015   9.069
32086SOL    HW198032   9.731  11.948   9.062
32086SOL    HW298033   9.751  12.098   9.064
32087SOL     OW98034   2.221   4.858   7.091
32087SOL    HW198035   2.186   4.827   7.175
32087SOL    HW298036   2.144   4.863   7.034
32088SOL     OW98037   1.293  13.818  14.609
32088SOL    HW198038   1.383  13.837  14.583
32088SOL    HW298039   1.269  13.890  14.667
32089SOL     OW98040   1.690  12.923   6.449
32089SOL    HW198041   1.618  12.870   6.414
32089SOL    HW298042   1.690  13.002   6.396
32090SOL     OW98043   9.375   6.478   4.240
32090SOL    HW198044   9.447   6.526   4.283
32090SOL    HW298045   9.402   6.472   4.148
32091SOL     OW98046  14.535   9.768   6.770
32091SOL    HW198047  14.549   9.758   6.864
32091SOL    HW298048  14.440   9.778   6.761
32092SOL     OW98049  13.457  10.751   2.525
32092SOL    HW198050  13.528  10.697   2.490
32092SOL    HW298051  13.426  10.703   2.602
32093SOL     OW98052   6.824   2.705   4.296
32093SOL    HW198053   6.867   2.746   4.221
32093SOL    HW298054   6.823   2.612   4.276
32094SOL     OW98055   3.195   5.347  11.672
32094SOL    HW198056   3.236   5.389  11.596
32094SOL    HW298057   3.269   5.313  11.723
32095SOL     OW98058   9.964   7.102  12.632
32095SOL    HW198059   9.963   7.190  12.596
32095SOL    HW298060  10.033   7.057  12.583
32096SOL     OW98061   3.662  12.071   9.144
32096SOL    HW198062   3.616  12.046   9.065
32096SOL    HW298063   3.747  12.104   9.114
32097SOL     OW98064  12.653   5.949  11.900
32097SOL    HW198065  12.691   5.948  11.812
32097SOL    HW298066  12.609   6.033  11.906
32098SOL     OW98067  12.927   6.510   0.669
32098SOL    HW198068  12.976   6.511   0.752
32098SOL    HW298069  12.974   6.572   0.613
32099SOL     OW98070  14.823  12.757   8.622
32099SOL    HW198071   0.019  12.724   8.673
32099SOL    HW298072  14.760  12.685   8.623
32100SOL     OW98073  11.619   9.235   3.511
32100SOL    HW198074  11.655   9.280   3.587
32100SOL    HW298075  11.530   9.270   3.503
32101SOL     OW98076   5.358   2.874   1.038
32101SOL    HW198077   5.318   2.889   1.124
32101SOL    HW298078   5.443   2.834   1.058
32102SOL     OW98079   6.494   0.807  10.693
32102SOL    HW198080   6.460   0.890  10.659
32102SOL    HW298081   6.553   0.832  10.764
32103SOL     OW98082   4.317   5.228   4.908
32103SOL    HW198083   4.236   5.253   4.951
32103SOL    HW298084   4.293   5.212   4.817
32104SOL     OW98085   1.740  14.722   7.551
32104SOL    HW198086   1.754  14.769   7.469
32104SOL    HW298087   1.655  14.753   7.583
32105SOL     OW98088   1.050  14.618   0.340
32105SOL    HW198089   1.106  14.649   0.268
32105SOL    HW298090   0.977  14.575   0.296
32106SOL     OW98091  12.882  13.583   3.394
32106SOL    HW198092  12.966  13.624   3.376
32106SOL    HW298093  12.818  13.640   3.352
32107SOL     OW98094   0.833  13.022  13.278
32107SOL    HW198095   0.906  12.961  13.291
32107SOL    HW298096   0.873  13.109  13.277
32108SOL     OW98097   3.591   4.705   7.361
32108SOL    HW198098   3.570   4.634   7.300
32108SOL    HW298099   3.553   4.678   7.444
32109SOL     OW98100  13.970  13.188   6.799
32109SOL    HW198101  13.955  13.157   6.709
32109SOL    HW298102  13.928  13.121   6.854
32110SOL     OW98103   1.008  10.664   8.056
32110SOL    HW198104   0.953  10.741   8.073
32110SOL    HW298105   1.090  10.683   8.101
32111SOL     OW98106   0.689  12.525   9.338
32111SOL    HW198107   0.670  12.432   9.328
32111SOL    HW298108   0.768  12.540   9.285
32112SOL     OW98109   5.101   2.461  12.625
32112SOL    HW198110   5.141   2.376  12.606
32112SOL    HW298111   5.014   2.457  12.585
32113SOL     OW98112   5.340  14.295  13.377
32113SOL    HW198113   5.253  14.258  13.389
32113SOL    HW298114   5.336  14.380  13.422
32114SOL     OW98115  10.618   9.223   1.464
32114SOL    HW198116  10.696   9.191   1.419
32114SOL    HW298117  10.551   9.227   1.395
32115SOL     OW98118   4.471  11.508   0.856
32115SOL    HW198119   4.472  11.537   0.947
32115SOL    HW298120   4.439  11.583   0.807
32116SOL     OW98121   6.399   1.492   2.243
32116SOL    HW198122   6.483   1.536   2.233
32116SOL    HW298123   6.339   1.540   2.185
32117SOL     OW98124   7.394   4.637   0.284
32117SOL    HW198125   7.475   4.597   0.252
32117SOL    HW298126   7.326   4.573   0.266
32118SOL     OW98127   1.629  13.769   4.876
32118SOL    HW198128   1.645  13.731   4.790
32118SOL    HW298129   1.540  13.806   4.870
32119SOL     OW98130   6.748  11.380  10.961
32119SOL    HW198131   6.752  11.313  10.893
32119SOL    HW298132   6.836  11.417  10.963
32120SOL     OW98133  12.600  10.009   1.662
32120SOL    HW198134  12.604  10.101   1.685
32120SOL    HW298135  12.508   9.986   1.669
32121SOL     OW98136  13.093   2.361   2.634
32121SOL    HW198137  13.107   2.309   2.714
32121SOL    HW298138  13.177   2.405   2.619
32122SOL     OW98139   5.001   3.929   7.762
32122SOL    HW198140   5.077   3.876   7.788
32122SOL    HW298141   4.972   3.889   7.680
32123SOL     OW98142  12.225   4.088   3.905
32123SOL    HW198143  12.140   4.069   3.944
32123SOL    HW298144  12.206   4.148   3.833
32124SOL     OW98145   7.786   9.149   2.411
32124SOL    HW198146   7.715   9.207   2.382
32124SOL    HW298147   7.866   9.198   2.393
32125SOL     OW98148   0.102  13.502  11.531
32125SOL    HW198149   0.143  13.580  11.495
32125SOL    HW298150   0.013  13.529  11.553
32126SOL     OW98151   7.461   8.360  14.634
32126SOL    HW198152   7.431   8.282  14.681
32126SOL    HW298153   7.381   8.396  14.595
32127SOL     OW98154   0.291   0.932  12.360
32127SOL    HW198155   0.257   0.903  12.444
32127SOL    HW298156   0.376   0.889  12.352
32128SOL     OW98157   5.612   8.076   0.079
32128SOL    HW198158   5.661   8.158   0.081
32128SOL    HW298159   5.668   8.016   0.029
32129SOL     OW98160  10.844   0.755   4.439
32129SOL    HW198161  10.892   0.838   4.437
32129SOL    HW298162  10.814   0.743   4.349
32130SOL     OW98163   2.795   8.428  10.815
32130SOL    HW198164   2.760   8.489  10.750
32130SOL    HW298165   2.724   8.366  10.832
32131SOL     OW98166   9.261   5.392   3.850
32131SOL    HW198167   9.240   5.298   3.846
32131SOL    HW298168   9.291   5.413   3.762
32132SOL     OW98169   6.414   3.198   6.944
32132SOL    HW198170   6.481   3.264   6.963
32132SOL    HW298171   6.366   3.190   7.026
32133SOL     OW98172  11.716   0.959   9.184
32133SOL    HW198173  11.725   1.042   9.138
32133SOL    HW298174  11.720   0.983   9.277
32134SOL     OW98175   0.410  10.933   4.380
32134SOL    HW198176   0.348  11.004   4.393
32134SOL    HW298177   0.483  10.953   4.438
32135SOL     OW98178   8.555  12.821  11.566
32135SOL    HW198179   8.466  12.830  11.600
32135SOL    HW298180   8.544  12.786  11.478
32136SOL     OW98181  10.232  13.573   7.982
32136SOL    HW198182  10.192  13.543   8.064
32136SOL    HW298183  10.195  13.661   7.969
32137SOL     OW98184   8.185   5.684   2.651
32137SOL    HW198185   8.164   5.658   2.562
32137SOL    HW298186   8.232   5.609   2.688
32138SOL     OW98187  14.330   5.406   6.962
32138SOL    HW198188  14.392   5.441   7.027
32138SOL    HW298189  14.358   5.315   6.949
32139SOL     OW98190   7.359   5.868   5.576
32139SOL    HW198191   7.281   5.887   5.522
32139SOL    HW298192   7.341   5.782   5.612
32140SOL     OW98193  14.205   4.410  11.221
32140SOL    HW198194  14.290   4.419  11.263
32140SOL    HW298195  14.181   4.500  11.195
32141SOL     OW98196  12.098  14.090   8.574
32141SOL    HW198197  12.128  14.080   8.484
32141SOL    HW298198  12.065  14.004   8.598
32142SOL     OW98199   4.497   5.311   3.364
32142SOL    HW198200   4.416   5.272   3.398
32142SOL    HW298201   4.469   5.393   3.324
32143SOL     OW98202   2.077   1.698  11.722
32143SOL    HW198203   2.039   1.653  11.647
32143SOL    HW298204   2.014   1.766  11.744
32144SOL     OW98205   0.342  14.651  14.453
32144SOL    HW198206   0.312  14.567  14.418
32144SOL    HW298207   0.427  14.632  14.491
32145SOL     OW98208   0.536  13.371  10.881
32145SOL    HW198209   0.590  13.293  10.895
32145SOL    HW298210   0.480  13.347  10.807
32146SOL     OW98211   6.903  12.163   1.028
32146SOL    HW198212   6.917  12.154   1.122
32146SOL    HW298213   6.863  12.080   1.002
32147SOL     OW98214  13.689   6.392  12.454
32147SOL    HW198215  13.708   6.333  12.526
32147SOL    HW298216  13.595   6.409  12.460
32148SOL     OW98217  13.324  11.875  12.203
32148SOL    HW198218  13.397  11.930  12.230
32148SOL    HW298219  13.262  11.880  12.276
32149SOL     OW98220  11.457   2.335  13.171
32149SOL    HW198221  11.523   2.403  13.154
32149SOL    HW298222  11.381   2.384  13.203
32150SOL     OW98223  10.847  10.066  10.828
32150SOL    HW198224  10.815  10.020  10.751
32150SOL    HW298225  10.908  10.131  10.795
32151SOL     OW98226   0.917   4.535   2.722
32151SOL    HW198227   0.931   4.441   2.711
32151SOL    HW298228   0.851   4.557   2.656
32152SOL     OW98229  12.430  13.184   7.213
32152SOL    HW198230  12.512  13.202   7.166
32152SOL    HW298231  12.443  13.220   7.300
32153SOL     OW98232  10.101  13.680  12.337
32153SOL    HW198233  10.115  13.759  12.390
32153SOL    HW298234  10.179  13.626  12.355
32154SOL     OW98235  10.193   7.946   6.447
32154SOL    HW198236  10.239   7.998   6.512
32154SOL    HW298237  10.227   7.978   6.363
32155SOL     OW98238   9.252  13.408   2.217
32155SOL    HW198239   9.181  13.468   2.239
32155SOL    HW298240   9.217  13.321   2.236
32156SOL     OW98241   6.935   7.082  12.129
32156SOL    HW198242   7.010   7.030  12.157
32156SOL    HW298243   6.883   7.094  12.209
32157SOL     OW98244   3.825   2.484  14.202
32157SOL    HW198245   3.782   2.553  14.253
32157SOL    HW298246   3.830   2.520  14.114
32158SOL     OW98247   1.381   7.654  12.005
32158SOL    HW198248   1.311   7.600  12.041
32158SOL    HW298249   1.404   7.613  11.922
32159SOL     OW98250  14.738   8.238   2.487
32159SOL    HW198251  14.746   8.238   2.392
32159SOL    HW298252  14.763   8.327   2.513
32160SOL     OW98253   3.578   1.333   5.667
32160SOL    HW198254   3.546   1.423   5.671
32160SOL    HW298255   3.567   1.307   5.575
32161SOL     OW98256   0.563  11.555   1.563
32161SOL    HW198257   0.476  11.523   1.538
32161SOL    HW298258   0.548  11.645   1.591
32162SOL     OW98259   4.293   2.934   4.490
32162SOL    HW198260   4.253   2.850   4.468
32162SOL    HW298261   4.363   2.945   4.426
32163SOL     OW98262   1.896   6.697  12.762
32163SOL    HW198263   1.806   6.677  12.737
32163SOL    HW298264   1.950   6.640  12.707
32164SOL     OW98265   0.132   5.732  12.664
32164SOL    HW198266   0.203   5.676  12.631
32164SOL    HW298267   0.127   5.712  12.757
32165SOL     OW98268  13.885   2.237  12.116
32165SOL    HW198269  13.965   2.239  12.169
32165SOL    HW298270  13.820   2.283  12.169
32166SOL     OW98271   4.609   9.607  12.079
32166SOL    HW198272   4.670   9.680  12.078
32166SOL    HW298273   4.663   9.530  12.062
32167SOL     OW98274   4.912   2.756   5.923
32167SOL    HW198275   4.820   2.768   5.946
32167SOL    HW298276   4.943   2.690   5.985
32168SOL     OW98277  10.126  12.223  14.221
32168SOL    HW198278  10.107  12.190  14.134
32168SOL    HW298279  10.053  12.281  14.242
32169SOL     OW98280   0.590   6.507   6.855
32169SOL    HW198281   0.652   6.436   6.840
32169SOL    HW298282   0.602   6.565   6.780
32170SOL     OW98283   1.787   6.448   1.189
32170SOL    HW198284   1.821   6.368   1.228
32170SOL    HW298285   1.864   6.505   1.181
32171SOL     OW98286   3.419   3.253   7.143
32171SOL    HW198287   3.385   3.343   7.141
32171SOL    HW298288   3.425   3.232   7.236
32172SOL     OW98289   5.053   3.529   1.442
32172SOL    HW198290   5.140   3.565   1.428
32172SOL    HW298291   5.068   3.438   1.468
32173SOL     OW98292   8.550  13.399  14.865
32173SOL    HW198293   8.521  13.489  14.848
32173SOL    HW298294   8.602  13.406   0.068
32174SOL     OW98295  13.521  11.823   0.422
32174SOL    HW198296  13.594  11.807   0.364
32174SOL    HW298297  13.451  11.855   0.365
32175SOL     OW98298   9.623   0.326  11.874
32175SOL    HW198299   9.567   0.351  11.800
32175SOL    HW298300   9.686   0.264  11.836
32176SOL     OW98301   4.053   5.817   8.198
32176SOL    HW198302   3.958   5.804   8.203
32176SOL    HW298303   4.069   5.843   8.107
32177SOL     OW98304   0.305   9.040   8.870
32177SOL    HW198305   0.308   9.017   8.963
32177SOL    HW298306   0.222   9.004   8.839
32178SOL     OW98307  13.879   3.739   0.629
32178SOL    HW198308  13.877   3.772   0.719
32178SOL    HW298309  13.849   3.812   0.576
32179SOL     OW98310  13.285  13.610   0.866
32179SOL    HW198311  13.355  13.590   0.927
32179SOL    HW298312  13.284  13.536   0.805
32180SOL     OW98313  14.789  10.626   5.452
32180SOL    HW198314  14.819  10.535   5.451
32180SOL    HW298315  14.713  10.628   5.394
32181SOL     OW98316   7.651   3.558   3.969
32181SOL    HW198317   7.592   3.572   3.894
32181SOL    HW298318   7.694   3.475   3.951
32182SOL     OW98319   0.769  11.271   4.035
32182SOL    HW198320   0.796  11.277   4.126
32182SOL    HW298321   0.734  11.183   4.026
32183SOL     OW98322  10.404   9.636   0.989
32183SOL    HW198323  10.390   9.728   1.009
32183SOL    HW298324  10.446   9.601   1.068
32184SOL     OW98325   7.623  13.172  13.105
32184SOL    HW198326   7.559  13.242  13.121
32184SOL    HW298327   7.638  13.133  13.190
32185SOL     OW98328   2.844   2.767   1.472
32185SOL    HW198329   2.913   2.792   1.533
32185SOL    HW298330   2.779   2.723   1.527
32186SOL     OW98331  13.983  10.355  10.045
32186SOL    HW198332  13.921  10.298  10.090
32186SOL    HW298333  14.012  10.417  10.112
32187SOL     OW98334  11.215   9.197  14.495
32187SOL    HW198335  11.298   9.180  14.541
32187SOL    HW298336  11.148   9.182  14.560
32188SOL     OW98337  12.874  13.304   9.138
32188SOL    HW198338  12.964  13.274   9.126
32188SOL    HW298339  12.845  13.329   9.050
32189SOL     OW98340   8.849   7.256  11.255
32189SOL    HW198341   8.849   7.164  11.284
32189SOL    HW298342   8.867   7.252  11.161
32190SOL     OW98343  12.506   4.619  12.654
32190SOL    HW198344  12.476   4.528  12.663
32190SOL    HW298345  12.426   4.668  12.636
32191SOL     OW98346   4.992   6.124   6.795
32191SOL    HW198347   5.011   6.181   6.869
32191SOL    HW298348   4.941   6.052   6.833
32192SOL     OW98349   5.437   0.934   2.255
32192SOL    HW198350   5.407   0.843   2.264
32192SOL    HW298351   5.497   0.932   2.180
32193SOL     OW98352   3.476   3.144   1.751
32193SOL    HW198353   3.391   3.137   1.794
32193SOL    HW298354   3.525   3.205   1.805
32194SOL     OW98355  11.372  10.463   7.494
32194SOL    HW198356  11.335  10.497   7.412
32194SOL    HW298357  11.451  10.417   7.466
32195SOL     OW98358   9.109   8.360   1.008
32195SOL    HW198359   9.191   8.406   0.991
32195SOL    HW298360   9.047   8.429   1.029
32196SOL     OW98361  14.058   5.719   0.032
32196SOL    HW198362  14.038   5.632  14.876
32196SOL    HW298363  14.145   5.710   0.072
32197SOL     OW98364   8.532   9.973   3.728
32197SOL    HW198365   8.439   9.995   3.734
32197SOL    HW298366   8.562  10.018   3.649
32198SOL     OW98367  13.580   2.799  14.394
32198SOL    HW198368  13.590   2.892  14.414
32198SOL    HW298369  13.551   2.797  14.303
32199SOL     OW98370   1.847   0.120   2.604
32199SOL    HW198371   1.915   0.184   2.585
32199SOL    HW298372   1.891   0.054   2.657
32200SOL     OW98373   1.188  13.901  11.385
32200SOL    HW198374   1.183  13.933  11.295
32200SOL    HW298375   1.245  13.963  11.430
32201SOL     OW98376   6.565  11.139   8.827
32201SOL    HW198377   6.521  11.089   8.895
32201SOL    HW298378   6.553  11.231   8.853
32202SOL     OW98379  11.158   7.544   0.695
32202SOL    HW198380  11.249   7.515   0.702
32202SOL    HW298381  11.123   7.494   0.621
32203SOL     OW98382   1.183   0.680   3.638
32203SOL    HW198383   1.142   0.619   3.699
32203SOL    HW298384   1.267   0.702   3.679
32204SOL     OW98385  10.517   3.461   2.491
32204SOL    HW198386  10.522   3.367   2.509
32204SOL    HW298387  10.583   3.500   2.548
32205SOL     OW98388   8.498  13.846  10.585
32205SOL    HW198389   8.580  13.804  10.611
32205SOL    HW298390   8.445  13.847  10.665
32206SOL     OW98391   3.374   7.696   8.217
32206SOL    HW198392   3.365   7.789   8.234
32206SOL    HW298393   3.464   7.676   8.243
32207SOL     OW98394   3.302   8.925   3.078
32207SOL    HW198395   3.238   8.948   3.010
32207SOL    HW298396   3.384   8.913   3.030
32208SOL     OW98397   7.107  11.085   5.858
32208SOL    HW198398   7.033  11.143   5.839
32208SOL    HW298399   7.067  11.008   5.899
32209SOL     OW98400  12.353   2.569  10.405
32209SOL    HW198401  12.293   2.603  10.339
32209SOL    HW298402  12.337   2.624  10.482
32210SOL     OW98403   8.127   5.224  13.794
32210SOL    HW198404   8.113   5.303  13.846
32210SOL    HW298405   8.102   5.248  13.705
32211SOL     OW98406  11.594  12.889   4.081
32211SOL    HW198407  11.523  12.861   4.138
32211SOL    HW298408  11.551  12.931   4.007
32212SOL     OW98409   6.813   7.993   6.147
32212SOL    HW198410   6.904   7.973   6.124
32212SOL    HW298411   6.814   8.085   6.173
32213SOL     OW98412  14.128  14.219   1.696
32213SOL    HW198413  14.180  14.228   1.617
32213SOL    HW298414  14.081  14.302   1.703
32214SOL     OW98415  12.904   8.535   2.581
32214SOL    HW198416  12.999   8.528   2.584
32214SOL    HW298417  12.884   8.611   2.636
32215SOL     OW98418  14.524   7.545  12.400
32215SOL    HW198419  14.432   7.518  12.405
32215SOL    HW298420  14.520   7.640  12.391
32216SOL     OW98421   6.657   3.913   6.876
32216SOL    HW198422   6.630   3.880   6.790
32216SOL    HW298423   6.748   3.941   6.864
32217SOL     OW98424  12.263   4.741  12.605
32217SOL    HW198425  12.187   4.684  12.612
32217SOL    HW298426  12.239   4.805  12.537
32218SOL     OW98427  12.386   7.109   8.482
32218SOL    HW198428  12.455   7.147   8.429
32218SOL    HW298429  12.363   7.177   8.545
32219SOL     OW98430  11.676  11.937  14.099
32219SOL    HW198431  11.668  11.915  14.192
32219SOL    HW298432  11.716  12.024  14.099
32220SOL     OW98433  12.630   7.794  14.023
32220SOL    HW198434  12.686   7.773  13.948
32220SOL    HW298435  12.646   7.725  14.086
32221SOL     OW98436   6.485  14.375   2.316
32221SOL    HW198437   6.393  14.397   2.304
32221SOL    HW298438   6.532  14.451   2.280
32222SOL     OW98439  13.429   8.114   8.419
32222SOL    HW198440  13.336   8.123   8.441
32222SOL    HW298441  13.471   8.191   8.460
32223SOL     OW98442  13.515   1.673   4.341
32223SOL    HW198443  13.608   1.667   4.319
32223SOL    HW298444  13.514   1.722   4.424
32224SOL     OW98445   2.382   3.330   1.417
32224SOL    HW198446   2.439   3.341   1.493
32224SOL    HW298447   2.434   3.278   1.355
32225SOL     OW98448   2.753  14.841   5.943
32225SOL    HW198449   2.692   0.021   5.987
32225SOL    HW298450   2.779  14.778   6.010
32226SOL     OW98451   9.523   8.925   0.597
32226SOL    HW198452   9.566   8.882   0.671
32226SOL    HW298453   9.538   8.867   0.523
32227SOL     OW98454   4.642  14.504  13.628
32227SOL    HW198455   4.617  14.553  13.706
32227SOL    HW298456   4.565  14.452  13.607
32228SOL     OW98457   0.315  12.478  13.623
32228SOL    HW198458   0.219  12.475  13.629
32228SOL    HW298459   0.341  12.386  13.614
32229SOL     OW98460   0.614  13.787  12.976
32229SOL    HW198461   0.698  13.758  13.012
32229SOL    HW298462   0.566  13.819  13.053
32230SOL     OW98463   4.288  11.387   0.007
32230SOL    HW198464   4.239  11.447   0.063
32230SOL    HW298465   4.315  11.440  14.810
32231SOL     OW98466  12.607   3.078   4.473
32231SOL    HW198467  12.630   3.136   4.400
32231SOL    HW298468  12.528   3.116   4.510
32232SOL     OW98469  12.667   8.100  13.593
32232SOL    HW198470  12.724   8.027  13.617
32232SOL    HW298471  12.670   8.103  13.497
32233SOL     OW98472   1.812   1.071   7.309
32233SOL    HW198473   1.861   1.110   7.381
32233SOL    HW298474   1.765   1.144   7.269
32234SOL     OW98475  11.187   4.409  14.831
32234SOL    HW198476  11.104   4.432  14.871
32234SOL    HW298477  11.227   4.348   0.015
32235SOL     OW98478   5.994   2.448   0.656
32235SOL    HW198479   5.912   2.409   0.685
32235SOL    HW298480   6.030   2.489   0.734
32236SOL     OW98481   7.662  13.915  11.232
32236SOL    HW198482   7.691  13.952  11.316
32236SOL    HW298483   7.715  13.959  11.166
32237SOL     OW98484   9.415   2.087   4.801
32237SOL    HW198485   9.374   2.040   4.873
32237SOL    HW298486   9.343   2.128   4.754
32238SOL     OW98487   8.307  10.907   7.581
32238SOL    HW198488   8.284  10.993   7.616
32238SOL    HW298489   8.315  10.921   7.487
32239SOL     OW98490  10.403   2.320  14.017
32239SOL    HW198491  10.496   2.340  14.013
32239SOL    HW298492  10.369   2.379  14.085
32240SOL     OW98493  13.629  12.545   9.222
32240SOL    HW198494  13.690  12.486   9.265
32240SOL    HW298495  13.681  12.622   9.200
32241SOL     OW98496   8.190   0.767   7.356
32241SOL    HW198497   8.168   0.756   7.449
32241SOL    HW298498   8.129   0.710   7.309
32242SOL     OW98499   4.166  11.250   5.924
32242SOL    HW198500   4.192  11.160   5.900
32242SOL    HW298501   4.119  11.282   5.846
32243SOL     OW98502   4.264   0.444   2.253
32243SOL    HW198503   4.299   0.369   2.205
32243SOL    HW298504   4.337   0.473   2.308
32244SOL     OW98505   3.970  13.360   9.000
32244SOL    HW198506   4.064  13.374   8.988
32244SOL    HW298507   3.928  13.418   8.937
32245SOL     OW98508   6.497   8.763  10.681
32245SOL    HW198509   6.569   8.819  10.712
32245SOL    HW298510   6.476   8.708  10.756
32246SOL     OW98511   7.518  13.605  10.116
32246SOL    HW198512   7.584  13.626  10.182
32246SOL    HW298513   7.435  13.634  10.154
32247SOL     OW98514   2.795   4.491  10.716
32247SOL    HW198515   2.879   4.447  10.707
32247SOL    HW298516   2.769   4.474  10.806
32248SOL     OW98517   4.836  10.950   3.212
32248SOL    HW198518   4.860  10.878   3.154
32248SOL    HW298519   4.774  10.911   3.274
32249SOL     OW98520   6.489  10.031   4.689
32249SOL    HW198521   6.395  10.043   4.677
32249SOL    HW298522   6.501  10.025   4.784
32250SOL     OW98523   0.341   6.308  10.975
32250SOL    HW198524   0.336   6.273  11.064
32250SOL    HW298525   0.380   6.237  10.924
32251SOL     OW98526   4.710   5.909   7.618
32251SOL    HW198527   4.751   5.822   7.618
32251SOL    HW298528   4.661   5.912   7.700
32252SOL     OW98529   4.577  13.435  10.111
32252SOL    HW198530   4.664  13.403  10.087
32252SOL    HW298531   4.520  13.407  10.039
32253SOL     OW98532  11.840   3.157  10.565
32253SOL    HW198533  11.812   3.162  10.656
32253SOL    HW298534  11.896   3.080  10.561
32254SOL     OW98535  12.989  12.123   4.025
32254SOL    HW198536  12.938  12.125   3.944
32254SOL    HW298537  13.063  12.066   4.004
32255SOL     OW98538  14.499   3.509  12.119
32255SOL    HW198539  14.522   3.443  12.184
32255SOL    HW298540  14.428   3.558  12.159
32256SOL     OW98541   4.760  13.367   7.564
32256SOL    HW198542   4.771  13.396   7.654
32256SOL    HW298543   4.833  13.406   7.517
32257SOL     OW98544  11.559   7.632   7.724
32257SOL    HW198545  11.545   7.671   7.810
32257SOL    HW298546  11.497   7.676   7.667
32258SOL     OW98547   6.733  10.821   5.935
32258SOL    HW198548   6.667  10.881   5.970
32258SOL    HW298549   6.719  10.740   5.983
32259SOL     OW98550  10.373  11.756   4.377
32259SOL    HW198551  10.415  11.705   4.308
32259SOL    HW298552  10.283  11.767   4.348
32260SOL     OW98553   2.141  13.094   9.697
32260SOL    HW198554   2.080  13.128   9.632
32260SOL    HW298555   2.228  13.119   9.665
32261SOL     OW98556   9.082  12.846   2.635
32261SOL    HW198557   9.114  12.909   2.700
32261SOL    HW298558   9.002  12.810   2.674
32262SOL     OW98559   5.960   0.138   3.118
32262SOL    HW198560   5.912   0.056   3.104
32262SOL    HW298561   5.990   0.133   3.208
32263SOL     OW98562   5.413   3.483  13.305
32263SOL    HW198563   5.355   3.425  13.354
32263SOL    HW298564   5.409   3.566  13.353
32264SOL     OW98565   9.509   0.038   2.710
32264SOL    HW198566   9.471   0.125   2.694
32264SOL    HW298567   9.445  14.855   2.674
32265SOL     OW98568   0.512  10.008   7.526
32265SOL    HW198569   0.563  10.072   7.576
32265SOL    HW298570   0.576   9.968   7.466
32266SOL     OW98571  14.348  12.342  14.861
32266SOL    HW198572  14.366  12.269   0.042
32266SOL    HW298573  14.333  12.416   0.041
32267SOL     OW98574   2.947   1.640  12.821
32267SOL    HW198575   2.900   1.569  12.777
32267SOL    HW298576   2.956   1.709  12.754
32268SOL     OW98577  10.629   2.169   6.937
32268SOL    HW198578  10.537   2.175   6.963
32268SOL    HW298579  10.652   2.259   6.911
32269SOL     OW98580   3.563  14.024   2.341
32269SOL    HW198581   3.590  14.095   2.399
32269SOL    HW298582   3.631  14.020   2.274
32270SOL     OW98583  14.872   1.277   3.734
32270SOL    HW198584   0.038   1.359   3.714
32270SOL    HW298585  14.858   1.235   3.649
32271SOL     OW98586   9.873   0.799   5.073
32271SOL    HW198587   9.779   0.784   5.082
32271SOL    HW298588   9.886   0.889   5.104
32272SOL     OW98589   7.888   6.274   1.491
32272SOL    HW198590   7.961   6.302   1.435
32272SOL    HW298591   7.828   6.349   1.491
32273SOL     OW98592  14.689   0.302   0.723
32273SOL    HW198593  14.617   0.266   0.671
32273SOL    HW298594  14.645   0.343   0.798
32274SOL     OW98595   8.297   4.142   7.214
32274SOL    HW198596   8.382   4.145   7.257
32274SOL    HW298597   8.277   4.234   7.194
32275SOL     OW98598   7.246  11.615   2.194
32275SOL    HW198599   7.281  11.654   2.274
32275SOL    HW298600   7.265  11.679   2.126
32276SOL     OW98601   1.387   5.804   4.173
32276SOL    HW198602   1.379   5.859   4.251
32276SOL    HW298603   1.427   5.861   4.107
32277SOL     OW98604  14.551  14.122   2.528
32277SOL    HW198605  14.476  14.137   2.470
32277SOL    HW298606  14.541  14.031   2.557
32278SOL     OW98607   9.237  13.403   5.273
32278SOL    HW198608   9.229  13.313   5.305
32278SOL    HW298609   9.244  13.456   5.353
32279SOL     OW98610   7.097  11.268   8.924
32279SOL    HW198611   7.116  11.297   8.835
32279SOL    HW298612   7.122  11.175   8.926
32280SOL     OW98613   3.460   0.403  10.265
32280SOL    HW198614   3.493   0.481  10.309
32280SOL    HW298615   3.371   0.426  10.238
32281SOL     OW98616   6.198   3.465   2.898
32281SOL    HW198617   6.186   3.519   2.977
32281SOL    HW298618   6.179   3.376   2.927
32282SOL     OW98619   9.975   9.890   3.274
32282SOL    HW198620   9.972   9.809   3.326
32282SOL    HW298621   9.905   9.880   3.210
32283SOL     OW98622   7.561   8.501   5.796
32283SOL    HW198623   7.647   8.543   5.804
32283SOL    HW298624   7.553   8.480   5.703
32284SOL     OW98625   7.414   7.376  11.712
32284SOL    HW198626   7.385   7.407  11.798
32284SOL    HW298627   7.333   7.366  11.661
32285SOL     OW98628   0.504  14.773   8.177
32285SOL    HW198629   0.548  14.690   8.160
32285SOL    HW298630   0.471  14.765   8.267
32286SOL     OW98631   0.620   0.365  13.579
32286SOL    HW198632   0.587   0.296  13.522
32286SOL    HW298633   0.715   0.356  13.575
32287SOL     OW98634   0.729   1.625   1.695
32287SOL    HW198635   0.671   1.557   1.662
32287SOL    HW298636   0.760   1.671   1.617
32288SOL     OW98637  10.249   4.917  10.184
32288SOL    HW198638  10.224   4.872  10.265
32288SOL    HW298639  10.240   4.851  10.116
32289SOL     OW98640   5.414   3.546   7.312
32289SOL    HW198641   5.330   3.581   7.339
32289SOL    HW298642   5.434   3.592   7.231
32290SOL     OW98643   9.544  10.980  10.918
32290SOL    HW198644   9.603  10.986  10.993
32290SOL    HW298645   9.477  10.917  10.946
32291SOL     OW98646  12.465  14.394  10.612
32291SOL    HW198647  12.413  14.314  10.614
32291SOL    HW298648  12.551  14.367  10.581
32292SOL     OW98649   8.630   9.372  12.359
32292SOL    HW198650   8.604   9.280  12.348
32292SOL    HW298651   8.698   9.369  12.426
32293SOL     OW98652   6.954   9.445   3.360
32293SOL    HW198653   6.932   9.360   3.398
32293SOL    HW298654   6.963   9.427   3.266
32294SOL     OW98655  14.780  14.663  13.973
32294SOL    HW198656  14.727  14.665  13.893
32294SOL    HW298657  14.717  14.645  14.042
32295SOL     OW98658   8.382   0.554   1.414
32295SOL    HW198659   8.398   0.641   1.450
32295SOL    HW298660   8.341   0.505   1.486
32296SOL     OW98661   0.715   3.032   8.344
32296SOL    HW198662   0.728   3.061   8.434
32296SOL    HW298663   0.656   2.957   8.351
32297SOL     OW98664   3.049   2.852   4.557
32297SOL    HW198665   3.124   2.792   4.556
32297SOL    HW298666   3.086   2.936   4.584
32298SOL     OW98667  10.242  12.735  10.396
32298SOL    HW198668  10.267  12.722  10.488
32298SOL    HW298669  10.324  12.760  10.353
32299SOL     OW98670   9.583  10.220   4.706
32299SOL    HW198671   9.596  10.304   4.662
32299SOL    HW298672   9.667  10.176   4.700
32300SOL     OW98673   9.047   7.355  13.888
32300SOL    HW198674   9.117   7.290  13.882
32300SOL    HW298675   8.987   7.331  13.818
32301SOL     OW98676  11.785  10.709   1.644
32301SOL    HW198677  11.696  10.691   1.614
32301SOL    HW298678  11.793  10.665   1.728
32302SOL     OW98679   6.173   1.887   2.527
32302SOL    HW198680   6.246   1.824   2.528
32302SOL    HW298681   6.145   1.891   2.619
32303SOL     OW98682   6.939   8.173   2.145
32303SOL    HW198683   7.031   8.197   2.134
32303SOL    HW298684   6.929   8.092   2.096
32304SOL     OW98685  13.550  11.483  14.379
32304SOL    HW198686  13.582  11.524  14.459
32304SOL    HW298687  13.612  11.510  14.311
32305SOL     OW98688  12.045   4.836   2.698
32305SOL    HW198689  12.011   4.766   2.754
32305SOL    HW298690  12.116   4.795   2.649
32306SOL     OW98691   7.303  14.802  10.055
32306SOL    HW198692   7.332  14.794   9.964
32306SOL    HW298693   7.208  14.789  10.050
32307SOL     OW98694   0.072   8.607  14.753
32307SOL    HW198695   0.002   8.670  14.739
32307SOL    HW298696   0.046   8.558  14.831
32308SOL     OW98697  14.797  14.109   5.938
32308SOL    HW198698  14.852  14.186   5.925
32308SOL    HW298699  14.768  14.085   5.849
32309SOL     OW98700   2.597  14.119   2.849
32309SOL    HW198701   2.666  14.056   2.827
32309SOL    HW298702   2.599  14.124   2.944
32310SOL     OW98703  12.357   2.893   1.137
32310SOL    HW198704  12.370   2.799   1.154
32310SOL    HW298705  12.335   2.897   1.044
32311SOL     OW98706   3.075  11.825  14.666
32311SOL    HW198707   3.013  11.896  14.649
32311SOL    HW298708   3.027  11.745  14.643
32312SOL     OW98709  12.763   1.182  14.344
32312SOL    HW198710  12.783   1.177  14.438
32312SOL    HW298711  12.817   1.114  14.304
32313SOL     OW98712  10.405  11.974   4.919
32313SOL    HW198713  10.371  11.946   5.004
32313SOL    HW298714  10.479  11.914   4.902
32314SOL     OW98715   3.922   2.912   2.147
32314SOL    HW198716   3.859   2.842   2.160
32314SOL    HW298717   3.874   2.981   2.101
32315SOL     OW98718   8.350   3.652  11.518
32315SOL    HW198719   8.382   3.740  11.540
32315SOL    HW298720   8.416   3.593  11.553
32316SOL     OW98721   6.042   6.851   8.696
32316SOL    HW198722   5.983   6.850   8.621
32316SOL    HW298723   5.997   6.798   8.762
32317SOL     OW98724  14.835   6.493   9.342
32317SOL    HW198725  14.746   6.524   9.331
32317SOL    HW298726  14.870   6.544   9.415
32318SOL     OW98727   1.547   2.093   8.105
32318SOL    HW198728   1.565   2.019   8.163
32318SOL    HW298729   1.619   2.154   8.121
32319SOL     OW98730  14.409  12.527   2.910
32319SOL    HW198731  14.472  12.515   2.981
32319SOL    HW298732  14.453  12.586   2.849
32320SOL     OW98733   7.358  11.769   7.248
32320SOL    HW198734   7.284  11.802   7.299
32320SOL    HW298735   7.378  11.839   7.185
32321SOL     OW98736   3.340  11.757  10.683
32321SOL    HW198737   3.304  11.747  10.595
32321SOL    HW298738   3.419  11.703  10.683
32322SOL     OW98739   4.996  14.606   2.042
32322SOL    HW198740   5.059  14.542   2.073
32322SOL    HW298741   5.037  14.691   2.059
32323SOL     OW98742   8.687   0.721  11.867
32323SOL    HW198743   8.768   0.769  11.851
32323SOL    HW298744   8.702   0.635  11.827
32324SOL     OW98745  14.671   4.675  12.733
32324SOL    HW198746  14.636   4.695  12.646
32324SOL    HW298747  14.718   4.593  12.721
32325SOL     OW98748   7.387   8.405  11.188
32325SOL    HW198749   7.356   8.355  11.264
32325SOL    HW298750   7.312   8.456  11.160
32326SOL     OW98751   0.078   6.143  13.048
32326SOL    HW198752   0.043   6.064  13.008
32326SOL    HW298753   0.110   6.115  13.134
32327SOL     OW98754   9.724   4.365   5.168
32327SOL    HW198755   9.725   4.395   5.259
32327SOL    HW298756   9.814   4.340   5.150
32328SOL     OW98757  13.777  13.873  10.037
32328SOL    HW198758  13.856  13.909  10.078
32328SOL    HW298759  13.769  13.921   9.955
32329SOL     OW98760   1.114  13.370   4.208
32329SOL    HW198761   1.111  13.298   4.146
32329SOL    HW298762   1.054  13.345   4.278
32330SOL     OW98763   5.632   2.291   3.061
32330SOL    HW198764   5.560   2.228   3.052
32330SOL    HW298765   5.689   2.272   2.986
32331SOL     OW98766   9.252   9.615  13.495
32331SOL    HW198767   9.222   9.524  13.493
32331SOL    HW298768   9.242   9.643  13.586
32332SOL     OW98769   6.930   2.557  11.484
32332SOL    HW198770   6.863   2.621  11.460
32332SOL    HW298771   6.926   2.492  11.414
32333SOL     OW98772   5.198   8.194  10.357
32333SOL    HW198773   5.161   8.214  10.443
32333SOL    HW298774   5.191   8.098  10.350
32334SOL     OW98775   4.440  14.046   2.191
32334SOL    HW198776   4.422  13.964   2.237
32334SOL    HW298777   4.383  14.110   2.235
32335SOL     OW98778   3.143   0.000  13.293
32335SOL    HW198779   3.230   0.015  13.331
32335SOL    HW298780   3.150  14.794  13.248
32336SOL     OW98781   1.525  11.006  11.550
32336SOL    HW198782   1.560  10.917  11.549
32336SOL    HW298783   1.507  11.024  11.643
32337SOL     OW98784   2.080  11.310   3.247
32337SOL    HW198785   2.105  11.369   3.176
32337SOL    HW298786   2.062  11.369   3.321
32338SOL     OW98787  14.043  14.721   7.306
32338SOL    HW198788  14.015  14.655   7.242
32338SOL    HW298789  14.138  14.711   7.311
32339SOL     OW98790   6.704   2.491   2.524
32339SOL    HW198791   6.650   2.426   2.479
32339SOL    HW298792   6.792   2.455   2.523
32340SOL     OW98793   9.151   1.304   2.462
32340SOL    HW198794   9.130   1.274   2.551
32340SOL    HW298795   9.246   1.302   2.458
32341SOL     OW98796   9.825   6.757  14.162
32341SOL    HW198797   9.788   6.845  14.165
32341SOL    HW298798   9.752   6.699  14.184
32342SOL     OW98799  12.248  12.229  14.538
32342SOL    HW198800  12.184  12.254  14.471
32342SOL    HW298801  12.250  12.303  14.599
32343SOL     OW98802  14.412   1.798   8.505
32343SOL    HW198803  14.447   1.717   8.543
32343SOL    HW298804  14.333   1.770   8.459
32344SOL     OW98805   3.322  14.520   5.069
32344SOL    HW198806   3.335  14.433   5.108
32344SOL    HW298807   3.402  14.568   5.090
32345SOL     OW98808   4.805   8.663  10.942
32345SOL    HW198809   4.733   8.616  10.983
32345SOL    HW298810   4.882   8.640  10.995
32346SOL     OW98811   4.431   7.047   1.273
32346SOL    HW198812   4.526   7.044   1.277
32346SOL    HW298813   4.407   6.971   1.219
32347SOL     OW98814  14.060  11.067   6.049
32347SOL    HW198815  14.043  10.987   6.099
32347SOL    HW298816  14.113  11.037   5.975
32348SOL     OW98817   0.844   7.300  12.892
32348SOL    HW198818   0.936   7.283  12.875
32348SOL    HW298819   0.807   7.320  12.806
32349SOL     OW98820  14.670   6.732   1.603
32349SOL    HW198821  14.592   6.678   1.612
32349SOL    HW298822  14.732   6.679   1.554
32350SOL     OW98823   0.400  11.037   9.673
32350SOL    HW198824   0.478  11.089   9.692
32350SOL    HW298825   0.331  11.078   9.725
32351SOL     OW98826   0.907  13.063   3.863
32351SOL    HW198827   0.818  13.046   3.894
32351SOL    HW298828   0.896  13.125   3.792
32352SOL     OW98829  10.241  14.642   2.138
32352SOL    HW198830  10.198  14.708   2.191
32352SOL    HW298831  10.210  14.558   2.173
32353SOL     OW98832  10.738   1.995  11.177
32353SOL    HW198833  10.728   2.088  11.197
32353SOL    HW298834  10.667   1.952  11.225
32354SOL     OW98835  13.787  14.417   0.191
32354SOL    HW198836  13.817  14.327   0.175
32354SOL    HW298837  13.733  14.411   0.270
32355SOL     OW98838  12.018   6.966   3.772
32355SOL    HW198839  11.941   6.941   3.824
32355SOL    HW298840  12.038   6.889   3.719
32356SOL     OW98841   6.429  14.430   6.012
32356SOL    HW198842   6.396  14.510   6.052
32356SOL    HW298843   6.426  14.447   5.918
32357SOL     OW98844   8.397   7.038  14.054
32357SOL    HW198845   8.342   6.963  14.033
32357SOL    HW298846   8.467   7.001  14.108
32358SOL     OW98847  12.550  13.820   0.275
32358SOL    HW198848  12.606  13.747   0.248
32358SOL    HW298849  12.568  13.831   0.368
32359SOL     OW98850  13.305  10.781  10.749
32359SOL    HW198851  13.354  10.796  10.668
32359SOL    HW298852  13.304  10.686  10.760
32360SOL     OW98853  10.509   4.097   5.209
32360SOL    HW198854  10.594   4.104   5.252
32360SOL    HW298855  10.530   4.083   5.116
32361SOL     OW98856   2.576   6.580   7.365
32361SOL    HW198857   2.642   6.561   7.432
32361SOL    HW298858   2.600   6.525   7.290
32362SOL     OW98859   1.858  11.779   7.082
32362SOL    HW198860   1.940  11.733   7.101
32362SOL    HW298861   1.841  11.831   7.160
32363SOL     OW98862   0.294  11.377  14.264
32363SOL    HW198863   0.214  11.429  14.263
32363SOL    HW298864   0.350  11.417  14.197
32364SOL     OW98865   1.341   9.280   1.071
32364SOL    HW198866   1.257   9.245   1.042
32364SOL    HW298867   1.335   9.374   1.054
32365SOL     OW98868   6.962   2.093  12.189
32365SOL    HW198869   6.931   2.144  12.264
32365SOL    HW298870   6.920   2.134  12.113
32366SOL     OW98871   5.461  13.517   2.692
32366SOL    HW198872   5.366  13.504   2.701
32366SOL    HW298873   5.470  13.607   2.661
32367SOL     OW98874  14.114  10.473  12.920
32367SOL    HW198875  14.036  10.432  12.959
32367SOL    HW298876  14.133  10.418  12.843
32368SOL     OW98877  11.655  10.738   9.204
32368SOL    HW198878  11.749  10.749   9.221
32368SOL    HW298879  11.651  10.705   9.115
32369SOL     OW98880   6.064   4.129   3.882
32369SOL    HW198881   6.137   4.167   3.931
32369SOL    HW298882   6.042   4.049   3.930
32370SOL     OW98883   8.585   6.862   4.742
32370SOL    HW198884   8.643   6.938   4.747
32370SOL    HW298885   8.542   6.871   4.656
32371SOL     OW98886   2.554  11.770   2.529
32371SOL    HW198887   2.641  11.746   2.560
32371SOL    HW298888   2.529  11.699   2.470
32372SOL     OW98889   5.669  10.414   4.087
32372SOL    HW198890   5.582  10.407   4.047
32372SOL    HW298891   5.652  10.407   4.181
32373SOL     OW98892   8.355   4.540   8.343
32373SOL    HW198893   8.431   4.485   8.363
32373SOL    HW298894   8.367   4.617   8.399
32374SOL     OW98895  13.157  14.594  11.682
32374SOL    HW198896  13.161  14.525  11.615
32374SOL    HW298897  13.162  14.676  11.633
32375SOL     OW98898   9.665  14.241   3.724
32375SOL    HW198899   9.750  14.261   3.685
32375SOL    HW298900   9.631  14.168   3.672
32376SOL     OW98901  12.409  11.294   1.095
32376SOL    HW198902  12.393  11.358   1.026
32376SOL    HW298903  12.475  11.234   1.058
32377SOL     OW98904   4.192   6.941  13.404
32377SOL    HW198905   4.201   6.925  13.310
32377SOL    HW298906   4.227   7.029  13.416
32378SOL     OW98907   5.518   4.316   4.663
32378SOL    HW198908   5.468   4.237   4.680
32378SOL    HW298909   5.596   4.286   4.615
32379SOL     OW98910   1.729   5.840  10.683
32379SOL    HW198911   1.695   5.751  10.671
32379SOL    HW298912   1.660   5.897  10.650
32380SOL     OW98913  10.610  12.361   0.483
32380SOL    HW198914  10.668  12.339   0.410
32380SOL    HW298915  10.535  12.404   0.442
32381SOL     OW98916   5.865  13.053   9.759
32381SOL    HW198917   5.845  12.962   9.738
32381SOL    HW298918   5.816  13.071   9.839
32382SOL     OW98919   7.467   7.157   8.802
32382SOL    HW198920   7.466   7.122   8.891
32382SOL    HW298921   7.503   7.245   8.811
32383SOL     OW98922   7.959   3.713   0.581
32383SOL    HW198923   7.894   3.727   0.511
32383SOL    HW298924   7.960   3.618   0.594
32384SOL     OW98925  10.780   9.704   4.054
32384SOL    HW198926  10.694   9.667   4.039
32384SOL    HW298927  10.836   9.663   3.987
32385SOL     OW98928   6.825   4.314   1.129
32385SOL    HW198929   6.768   4.305   1.053
32385SOL    HW298930   6.913   4.324   1.093
32386SOL     OW98931   9.329   0.340  10.838
32386SOL    HW198932   9.335   0.312  10.746
32386SOL    HW298933   9.236   0.330  10.860
32387SOL     OW98934   6.251  13.713  14.322
32387SOL    HW198935   6.243  13.807  14.303
32387SOL    HW298936   6.344  13.694  14.307
32388SOL     OW98937   2.185   1.307  12.371
32388SOL    HW198938   2.159   1.268  12.454
32388SOL    HW298939   2.158   1.242  12.305
32389SOL     OW98940   2.565   0.774  13.400
32389SOL    HW198941   2.541   0.826  13.477
32389SOL    HW298942   2.566   0.837  13.328
32390SOL     OW98943  10.833   5.445   4.564
32390SOL    HW198944  10.843   5.535   4.593
32390SOL    HW298945  10.922   5.410   4.564
32391SOL     OW98946   6.327   3.667  14.585
32391SOL    HW198947   6.297   3.668  14.676
32391SOL    HW298948   6.413   3.711  14.588
32392SOL     OW98949  14.405   1.445   8.774
32392SOL    HW198950  14.386   1.488   8.691
32392SOL    HW298951  14.320   1.440   8.818
32393SOL     OW98952  13.282   7.687  10.888
32393SOL    HW198953  13.264   7.657  10.799
32393SOL    HW298954  13.361   7.639  10.913
32394SOL     OW98955   8.601   2.235  12.858
32394SOL    HW198956   8.508   2.255  12.851
32394SOL    HW298957   8.641   2.279  12.782
32395SOL     OW98958   9.314  10.849  12.277
32395SOL    HW198959   9.352  10.925  12.321
32395SOL    HW298960   9.388  10.793  12.255
32396SOL     OW98961   0.321  11.408   0.174
32396SOL    HW198962   0.299  11.455   0.093
32396SOL    HW298963   0.290  11.319   0.159
32397SOL     OW98964  14.165   5.939  10.655
32397SOL    HW198965  14.189   5.866  10.598
32397SOL    HW298966  14.081   5.971  10.620
32398SOL     OW98967  10.484   0.726   1.702
32398SOL    HW198968  10.390   0.742   1.692
32398SOL    HW298969  10.491   0.672   1.781
32399SOL     OW98970   5.622   0.481   7.072
32399SOL    HW198971   5.665   0.567   7.072
32399SOL    HW298972   5.632   0.450   6.982
32400SOL     OW98973  14.092   4.188  12.699
32400SOL    HW198974  14.149   4.184  12.775
32400SOL    HW298975  14.003   4.186  12.735
32401SOL     OW98976   6.530  10.076  10.326
32401SOL    HW198977   6.528  10.061  10.232
32401SOL    HW298978   6.599  10.142  10.339
32402SOL     OW98979   3.396  13.941  14.586
32402SOL    HW198980   3.424  14.002  14.518
32402SOL    HW298981   3.313  13.907  14.554
32403SOL     OW98982   4.727   6.522   5.586
32403SOL    HW198983   4.707   6.531   5.679
32403SOL    HW298984   4.744   6.612   5.557
32404SOL     OW98985  14.123  10.837   1.831
32404SOL    HW198986  14.096  10.824   1.740
32404SOL    HW298987  14.085  10.763   1.878
32405SOL     OW98988   9.838   5.692   1.167
32405SOL    HW198989   9.851   5.603   1.200
32405SOL    HW298990   9.923   5.733   1.175
32406SOL     OW98991   9.035  10.283  14.451
32406SOL    HW198992   9.001  10.206  14.405
32406SOL    HW298993   9.063  10.250  14.536
32407SOL     OW98994   9.680   0.570   3.065
32407SOL    HW198995   9.622   0.644   3.050
32407SOL    HW298996   9.649   0.503   3.003
32408SOL     OW98997   2.222   1.312   5.600
32408SOL    HW198998   2.135   1.335   5.568
32408SOL    HW298999   2.281   1.338   5.530
32409SOL     OW99000   9.355   4.946   7.727
32409SOL    HW199001   9.426   5.006   7.749
32409SOL    HW299002   9.372   4.920   7.637
32410SOL     OW99003   5.713   1.345   9.374
32410SOL    HW199004   5.683   1.418   9.428
32410SOL    HW299005   5.663   1.354   9.293
32411SOL     OW99006   9.394   0.274   5.051
32411SOL    HW199007   9.373   0.331   5.125
32411SOL    HW299008   9.308   0.249   5.015
32412SOL     OW99009  12.312  13.280   1.483
32412SOL    HW199010  12.277  13.369   1.483
32412SOL    HW299011  12.262  13.235   1.552
32413SOL     OW99012   5.447   1.587   4.930
32413SOL    HW199013   5.362   1.607   4.971
32413SOL    HW299014   5.442   1.630   4.845
32414SOL     OW99015  10.788  13.977   3.137
32414SOL    HW199016  10.813  13.945   3.224
32414SOL    HW299017  10.851  14.046   3.118
32415SOL     OW99018   2.765   8.017   8.594
32415SOL    HW199019   2.773   8.057   8.681
32415SOL    HW299020   2.839   8.050   8.545
32416SOL     OW99021   4.062  12.019  10.180
32416SOL    HW199022   4.044  12.082  10.110
32416SOL    HW299023   4.010  11.942  10.156
32417SOL     OW99024   4.744   6.329   7.736
32417SOL    HW199025   4.698   6.248   7.758
32417SOL    HW299026   4.837   6.308   7.743
32418SOL     OW99027   6.922   7.576   9.997
32418SOL    HW199028   6.854   7.572  10.064
32418SOL    HW299029   6.996   7.619  10.040
32419SOL     OW99030   4.655   1.425   8.912
32419SOL    HW199031   4.739   1.430   8.867
32419SOL    HW299032   4.597   1.379   8.850
32420SOL     OW99033   5.300   5.722   5.462
32420SOL    HW199034   5.218   5.761   5.493
32420SOL    HW299035   5.337   5.787   5.403
32421SOL     OW99036  13.644  11.848   7.784
32421SOL    HW199037  13.563  11.796   7.793
32421SOL    HW299038  13.664  11.843   7.691
32422SOL     OW99039   9.809  14.661   6.629
32422SOL    HW199040   9.765  14.605   6.694
32422SOL    HW299041   9.762  14.744   6.634
32423SOL     OW99042   7.836   4.952   7.773
32423SOL    HW199043   7.918   4.985   7.810
32423SOL    HW299044   7.776   5.026   7.775
32424SOL     OW99045   1.662   0.454   4.150
32424SOL    HW199046   1.628   0.455   4.240
32424SOL    HW299047   1.752   0.425   4.158
32425SOL     OW99048   3.922   4.968  11.102
32425SOL    HW199049   3.884   4.883  11.083
32425SOL    HW299050   3.877   5.028  11.041
32426SOL     OW99051   7.155   3.746   6.055
32426SOL    HW199052   7.070   3.735   6.099
32426SOL    HW299053   7.134   3.740   5.962
32427SOL     OW99054   4.432  13.068   3.388
32427SOL    HW199055   4.434  13.121   3.308
32427SOL    HW299056   4.343  13.076   3.420
32428SOL     OW99057   8.757   4.899   6.270
32428SOL    HW199058   8.823   4.830   6.260
32428SOL    HW299059   8.684   4.856   6.314
32429SOL     OW99060   3.867   3.891   3.579
32429SOL    HW199061   3.854   3.984   3.600
32429SOL    HW299062   3.960   3.876   3.597
32430SOL     OW99063  13.346  14.085   4.317
32430SOL    HW199064  13.322  14.058   4.406
32430SOL    HW299065  13.293  14.030   4.260
32431SOL     OW99066  11.290   7.457   7.918
32431SOL    HW199067  11.328   7.407   7.990
32431SOL    HW299068  11.314   7.409   7.839
32432SOL     OW99069  13.046   4.159  11.788
32432SOL    HW199070  13.077   4.211  11.862
32432SOL    HW299071  12.961   4.197  11.766
32433SOL     OW99072   1.716   8.953   8.182
32433SOL    HW199073   1.665   9.007   8.122
32433SOL    HW299074   1.680   8.972   8.269
32434SOL     OW99075  14.109  13.865  12.170
32434SOL    HW199076  14.126  13.802  12.240
32434SOL    HW299077  14.076  13.942  12.216
32435SOL     OW99078   1.909   5.274   4.448
32435SOL    HW199079   1.879   5.215   4.517
32435SOL    HW299080   2.003   5.261   4.444
32436SOL     OW99081  13.266   1.659  13.293
32436SOL    HW199082  13.261   1.722  13.365
32436SOL    HW299083  13.283   1.713  13.215
32437SOL     OW99084   9.146   6.929   6.705
32437SOL    HW199085   9.094   7.008   6.715
32437SOL    HW299086   9.203   6.929   6.782
32438SOL     OW99087  13.481   5.447   3.888
32438SOL    HW199088  13.441   5.360   3.883
32438SOL    HW299089  13.449   5.493   3.811
32439SOL     OW99090  10.089  13.979   6.711
32439SOL    HW199091  10.081  14.033   6.789
32439SOL    HW299092  10.094  13.890   6.743
32440SOL     OW99093  10.452   0.091   4.735
32440SOL    HW199094  10.512   0.120   4.803
32440SOL    HW299095  10.507   0.083   4.656
32441SOL     OW99096  10.669   5.321  12.260
32441SOL    HW199097  10.737   5.387  12.276
32441SOL    HW299098  10.694   5.280  12.177
32442SOL     OW99099  11.237   6.306  13.368
32442SOL    HW199100  11.213   6.247  13.440
32442SOL    HW299101  11.238   6.393  13.408
32443SOL     OW99102  14.544   2.431  11.050
32443SOL    HW199103  14.577   2.456  10.963
32443SOL    HW299104  14.605   2.473  11.111
32444SOL     OW99105  11.920   4.266   2.699
32444SOL    HW199106  11.831   4.301   2.688
32444SOL    HW299107  11.911   4.197   2.765
32445SOL     OW99108  12.973   5.853   7.675
32445SOL    HW199109  12.947   5.885   7.761
32445SOL    HW299110  12.916   5.899   7.614
32446SOL     OW99111   8.114   9.909   5.231
32446SOL    HW199112   8.164   9.936   5.154
32446SOL    HW299113   8.171   9.845   5.275
32447SOL     OW99114   9.337   9.829  11.081
32447SOL    HW199115   9.310   9.744  11.045
32447SOL    HW299116   9.299   9.893  11.021
32448SOL     OW99117   5.833   6.033   1.862
32448SOL    HW199118   5.737   6.041   1.863
32448SOL    HW299119   5.854   5.987   1.943
32449SOL     OW99120  13.752   4.092   0.966
32449SOL    HW199121  13.799   4.022   0.921
32449SOL    HW299122  13.818   4.134   1.021
32450SOL     OW99123   3.086  13.559  12.358
32450SOL    HW199124   3.008  13.506  12.374
32450SOL    HW299125   3.159  13.503  12.385
32451SOL     OW99126   4.307   2.915   7.108
32451SOL    HW199127   4.336   2.828   7.081
32451SOL    HW299128   4.217   2.902   7.137
32452SOL     OW99129   0.425   4.539   0.392
32452SOL    HW199130   0.444   4.622   0.349
32452SOL    HW299131   0.358   4.498   0.337
32453SOL     OW99132  11.772   2.557   7.217
32453SOL    HW199133  11.860   2.562   7.178
32453SOL    HW299134  11.776   2.481   7.274
32454SOL     OW99135   9.891   9.022   1.546
32454SOL    HW199136   9.937   8.940   1.561
32454SOL    HW299137   9.945   9.069   1.482
32455SOL     OW99138   4.888  12.409  14.244
32455SOL    HW199139   4.872  12.438  14.333
32455SOL    HW299140   4.931  12.483  14.202
32456SOL     OW99141  12.852   3.699  13.767
32456SOL    HW199142  12.798   3.761  13.718
32456SOL    HW299143  12.939   3.740  13.769
32457SOL     OW99144   9.296   2.923   8.646
32457SOL    HW199145   9.208   2.895   8.670
32457SOL    HW299146   9.285   3.015   8.620
32458SOL     OW99147   8.317  12.002   1.637
32458SOL    HW199148   8.234  12.026   1.679
32458SOL    HW299149   8.382  12.009   1.707
32459SOL     OW99150   9.947   7.035  10.200
32459SOL    HW199151  10.042   7.022  10.189
32459SOL    HW299152   9.918   7.071  10.117
32460SOL     OW99153   2.726  12.532   7.702
32460SOL    HW199154   2.763  12.611   7.741
32460SOL    HW299155   2.786  12.462   7.728
32461SOL     OW99156   1.495   9.282   9.579
32461SOL    HW199157   1.445   9.334   9.516
32461SOL    HW299158   1.443   9.202   9.589
32462SOL     OW99159   2.142   3.606  13.407
32462SOL    HW199160   2.139   3.540  13.338
32462SOL    HW299161   2.064   3.590  13.460
32463SOL     OW99162   0.114   9.811  13.493
32463SOL    HW199163   0.198   9.855  13.487
32463SOL    HW299164   0.108   9.781  13.584
32464SOL     OW99165   6.173   0.596   4.721
32464SOL    HW199166   6.092   0.596   4.669
32464SOL    HW299167   6.238   0.638   4.664
32465SOL     OW99168   6.972  12.700   2.052
32465SOL    HW199169   7.027  12.777   2.035
32465SOL    HW299170   6.936  12.715   2.139
32466SOL     OW99171   5.660   9.277  11.285
32466SOL    HW199172   5.570   9.246  11.275
32466SOL    HW299173   5.662   9.316  11.372
32467SOL     OW99174   6.717   8.028  10.781
32467SOL    HW199175   6.705   8.026  10.876
32467SOL    HW299176   6.710   7.937  10.754
32468SOL     OW99177   5.361  10.077   7.251
32468SOL    HW199178   5.353  10.070   7.156
32468SOL    HW299179   5.454  10.092   7.266
32469SOL     OW99180  12.844   7.950  10.511
32469SOL    HW199181  12.777   7.982  10.572
32469SOL    HW299182  12.881   8.030  10.473
32470SOL     OW99183  13.153   2.109  11.108
32470SOL    HW199184  13.141   2.201  11.087
32470SOL    HW299185  13.201   2.073  11.034
32471SOL     OW99186   7.790   3.540  10.720
32471SOL    HW199187   7.763   3.575  10.636
32471SOL    HW299188   7.879   3.507  10.705
32472SOL     OW99189  10.505   9.953   8.964
32472SOL    HW199190  10.524  10.045   8.951
32472SOL    HW299191  10.470   9.924   8.879
32473SOL     OW99192   8.482  13.693   2.945
32473SOL    HW199193   8.439  13.731   3.021
32473SOL    HW299194   8.423  13.622   2.918
32474SOL     OW99195  10.333   8.555   0.037
32474SOL    HW199196  10.260   8.605   0.071
32474SOL    HW299197  10.347   8.590  14.827
32475SOL     OW99198   9.695  11.290   1.247
32475SOL    HW199199   9.644  11.294   1.165
32475SOL    HW299200   9.683  11.200   1.278
32476SOL     OW99201   8.981  13.934   2.486
32476SOL    HW199202   9.067  13.977   2.491
32476SOL    HW299203   8.992  13.855   2.539
32477SOL     OW99204   4.074   1.635  11.067
32477SOL    HW199205   4.061   1.625  10.973
32477SOL    HW299206   4.115   1.552  11.094
32478SOL     OW99207   9.128   6.116   9.574
32478SOL    HW199208   9.202   6.111   9.634
32478SOL    HW299209   9.165   6.095   9.488
32479SOL     OW99210   2.644   4.390   4.792
32479SOL    HW199211   2.608   4.402   4.705
32479SOL    HW299212   2.725   4.340   4.778
32480SOL     OW99213  14.860   7.382   2.219
32480SOL    HW199214   0.008   7.290   2.216
32480SOL    HW299215   0.025   7.422   2.143
32481SOL     OW99216   7.235   3.728   6.341
32481SOL    HW199217   7.170   3.793   6.316
32481SOL    HW299218   7.319   3.767   6.319
32482SOL     OW99219  11.465  12.400   7.098
32482SOL    HW199220  11.376  12.431   7.113
32482SOL    HW299221  11.490  12.437   7.013
32483SOL     OW99222   1.913  14.372   7.077
32483SOL    HW199223   1.881  14.401   7.163
32483SOL    HW299224   1.938  14.454   7.033
32484SOL     OW99225   9.976   9.624   2.702
32484SOL    HW199226   9.949   9.580   2.621
32484SOL    HW299227  10.067   9.649   2.686
32485SOL     OW99228  12.417  12.215  13.735
32485SOL    HW199229  12.453  12.126  13.729
32485SOL    HW299230  12.408  12.243  13.644
32486SOL     OW99231   9.067  12.180  14.372
32486SOL    HW199232   9.046  12.230  14.293
32486SOL    HW299233   9.119  12.106  14.342
32487SOL     OW99234   9.956  12.206  13.251
32487SOL    HW199235   9.876  12.180  13.297
32487SOL    HW299236   9.925  12.253  13.174
32488SOL     OW99237   2.480  12.291   2.852
32488SOL    HW199238   2.508  12.255   2.768
32488SOL    HW299239   2.496  12.221   2.915
32489SOL     OW99240   1.238  13.776  10.552
32489SOL    HW199241   1.163  13.832  10.572
32489SOL    HW299242   1.214  13.690  10.586
32490SOL     OW99243   2.162   6.336  10.510
32490SOL    HW199244   2.087   6.335  10.451
32490SOL    HW299245   2.152   6.417  10.560
32491SOL     OW99246   1.691  13.654   2.672
32491SOL    HW199247   1.664  13.745   2.680
32491SOL    HW299248   1.783  13.658   2.647
32492SOL     OW99249  12.015   1.963   2.435
32492SOL    HW199250  12.051   2.025   2.498
32492SOL    HW299251  11.941   1.922   2.480
32493SOL     OW99252  13.796   7.179   2.715
32493SOL    HW199253  13.730   7.200   2.780
32493SOL    HW299254  13.753   7.118   2.655
32494SOL     OW99255   8.355   5.454   7.112
32494SOL    HW199256   8.288   5.390   7.090
32494SOL    HW299257   8.428   5.401   7.145
32495SOL     OW99258  11.278   8.499   6.690
32495SOL    HW199259  11.321   8.485   6.605
32495SOL    HW299260  11.325   8.441   6.750
32496SOL     OW99261   8.548   1.146   6.573
32496SOL    HW199262   8.546   1.052   6.590
32496SOL    HW299263   8.622   1.178   6.626
32497SOL     OW99264   3.101   7.593  10.191
32497SOL    HW199265   3.099   7.501  10.167
32497SOL    HW299266   3.095   7.640  10.108
32498SOL     OW99267   4.833  12.439  10.000
32498SOL    HW199268   4.902  12.462  10.062
32498SOL    HW299269   4.770  12.511  10.005
32499SOL     OW99270  10.978   3.884  10.321
32499SOL    HW199271  10.918   3.878  10.246
32499SOL    HW299272  11.065   3.888  10.282
32500SOL     OW99273   2.072   9.080   1.561
32500SOL    HW199274   2.010   9.151   1.580
32500SOL    HW299275   2.138   9.120   1.505
32501SOL     OW99276  14.827   3.823   2.944
32501SOL    HW199277  14.871   3.739   2.931
32501SOL    HW299278  14.735   3.805   2.922
32502SOL     OW99279  11.587  14.780   5.128
32502SOL    HW199280  11.566  14.776   5.222
32502SOL    HW299281  11.683  14.780   5.125
32503SOL     OW99282   9.321   4.574   8.081
32503SOL    HW199283   9.231   4.584   8.112
32503SOL    HW299284   9.319   4.609   7.992
32504SOL     OW99285   2.901  12.696  11.441
32504SOL    HW199286   2.989  12.735  11.434
32504SOL    HW299287   2.914  12.604  11.416
32505SOL     OW99288   6.575   4.222   3.085
32505SOL    HW199289   6.658   4.179   3.102
32505SOL    HW299290   6.598   4.300   3.034
32506SOL     OW99291   3.904  13.268   2.731
32506SOL    HW199292   3.987  13.232   2.700
32506SOL    HW299293   3.902  13.357   2.697
32507SOL     OW99294  10.066   3.050  14.590
32507SOL    HW199295  10.074   3.140  14.559
32507SOL    HW299296   9.975   3.043  14.620
32508SOL     OW99297  12.299  14.513   6.272
32508SOL    HW199298  12.355  14.460   6.214
32508SOL    HW299299  12.259  14.578   6.215
32509SOL     OW99300   9.808   9.259   2.005
32509SOL    HW199301   9.736   9.322   2.010
32509SOL    HW299302   9.842   9.254   2.094
32510SOL     OW99303   2.137  10.713  10.970
32510SOL    HW199304   2.122  10.782  10.906
32510SOL    HW299305   2.227  10.724  10.998
32511SOL     OW99306   0.360   9.331  11.031
32511SOL    HW199307   0.299   9.300  10.965
32511SOL    HW299308   0.312   9.327  11.113
32512SOL     OW99309   5.986  10.437  12.761
32512SOL    HW199310   5.930  10.450  12.684
32512SOL    HW299311   5.994  10.342  12.770
32513SOL     OW99312   0.205   0.648  13.494
32513SOL    HW199313   0.152   0.722  13.524
32513SOL    HW299314   0.279   0.690  13.449
32514SOL     OW99315  10.059   0.837  11.963
32514SOL    HW199316   9.979   0.860  11.915
32514SOL    HW299317  10.042   0.867  12.053
32515SOL     OW99318   7.697   5.005  14.201
32515SOL    HW199319   7.632   5.003  14.131
32515SOL    HW299320   7.656   4.956  14.273
32516SOL     OW99321   1.383  11.879   0.719
32516SOL    HW199322   1.405  11.805   0.663
32516SOL    HW299323   1.305  11.850   0.767
32517SOL     OW99324  10.994   4.478   1.393
32517SOL    HW199325  10.985   4.396   1.344
32517SOL    HW299326  11.048   4.454   1.469
32518SOL     OW99327   6.838   7.286   7.147
32518SOL    HW199328   6.884   7.353   7.096
32518SOL    HW299329   6.904   7.255   7.209
32519SOL     OW99330   9.070   6.745   7.336
32519SOL    HW199331   9.004   6.726   7.269
32519SOL    HW299332   9.104   6.831   7.312
32520SOL     OW99333   2.810   1.258  12.850
32520SOL    HW199334   2.832   1.342  12.810
32520SOL    HW299335   2.823   1.194  12.780
32521SOL     OW99336   9.829   1.792   2.350
32521SOL    HW199337   9.789   1.736   2.417
32521SOL    HW299338   9.794   1.758   2.267
32522SOL     OW99339  12.089  12.861  14.857
32522SOL    HW199340  12.166  12.914  14.835
32522SOL    HW299341  12.052  12.837  14.772
32523SOL     OW99342  14.187  11.202   5.179
32523SOL    HW199343  14.096  11.177   5.195
32523SOL    HW299344  14.198  11.284   5.227
32524SOL     OW99345   8.813  11.228  11.728
32524SOL    HW199346   8.795  11.268  11.642
32524SOL    HW299347   8.729  11.189  11.753
32525SOL     OW99348  14.607   3.476  13.884
32525SOL    HW199349  14.582   3.520  13.965
32525SOL    HW299350  14.583   3.384  13.897
32526SOL     OW99351   9.301   9.305   9.094
32526SOL    HW199352   9.396   9.298   9.089
32526SOL    HW299353   9.268   9.220   9.066
32527SOL     OW99354   8.986   3.373   5.228
32527SOL    HW199355   9.053   3.310   5.199
32527SOL    HW299356   9.017   3.457   5.195
32528SOL     OW99357   4.493   2.402  13.711
32528SOL    HW199358   4.487   2.481  13.657
32528SOL    HW299359   4.478   2.330  13.651
32529SOL     OW99360  14.469   1.209   5.818
32529SOL    HW199361  14.517   1.291   5.831
32529SOL    HW299362  14.510   1.170   5.741
32530SOL     OW99363  13.961  14.662   4.479
32530SOL    HW199364  13.992  14.629   4.563
32530SOL    HW299365  13.872  14.693   4.497
32531SOL     OW99366   6.883   1.319  14.192
32531SOL    HW199367   6.939   1.397  14.195
32531SOL    HW299368   6.912   1.271  14.115
32532SOL     OW99369   6.222   6.969   4.710
32532SOL    HW199370   6.286   6.922   4.657
32532SOL    HW299371   6.145   6.977   4.653
32533SOL     OW99372   3.658  10.226   1.982
32533SOL    HW199373   3.570  10.196   1.960
32533SOL    HW299374   3.712  10.197   1.909
32534SOL     OW99375   0.455  13.908  13.153
32534SOL    HW199376   0.388  13.851  13.189
32534SOL    HW299377   0.493  13.953  13.229
32535SOL     OW99378   8.343   8.567   1.681
32535SOL    HW199379   8.435   8.585   1.699
32535SOL    HW299380   8.306   8.651   1.654
32536SOL     OW99381   3.737  10.228   5.911
32536SOL    HW199382   3.738  10.133   5.915
32536SOL    HW299383   3.811  10.256   5.966
32537SOL     OW99384   7.302  10.718   0.723
32537SOL    HW199385   7.257  10.772   0.788
32537SOL    HW299386   7.330  10.781   0.656
32538SOL     OW99387   0.075   0.817  10.357
32538SOL    HW199388   0.044   0.873  10.286
32538SOL    HW299389   0.052   0.728  10.328
32539SOL     OW99390   2.515  10.257  10.470
32539SOL    HW199391   2.535  10.325  10.406
32539SOL    HW299392   2.421  10.263  10.484
32540SOL     OW99393   4.299   6.102  10.847
32540SOL    HW199394   4.387   6.123  10.817
32540SOL    HW299395   4.241   6.142  10.782
32541SOL     OW99396   7.728  13.561   5.450
32541SOL    HW199397   7.776  13.636   5.487
32541SOL    HW299398   7.642  13.565   5.492
32542SOL     OW99399   5.479   8.504   8.223
32542SOL    HW199400   5.439   8.438   8.166
32542SOL    HW299401   5.559   8.463   8.256
32543SOL     OW99402   4.729   5.795  13.533
32543SOL    HW199403   4.698   5.723  13.587
32543SOL    HW299404   4.656   5.857  13.529
32544SOL     OW99405   8.950   7.697   1.218
32544SOL    HW199406   9.017   7.763   1.200
32544SOL    HW299407   8.902   7.689   1.136
32545SOL     OW99408   5.405   0.039  12.350
32545SOL    HW199409   5.436  14.828  12.369
32545SOL    HW299410   5.382   0.075  12.436
32546SOL     OW99411  14.767   8.324  12.775
32546SOL    HW199412  14.720   8.382  12.715
32546SOL    HW299413  14.783   8.378  12.852
32547SOL     OW99414  11.987  10.929   7.986
32547SOL    HW199415  12.044  11.006   7.987
32547SOL    HW299416  11.899  10.963   8.005
32548SOL     OW99417   7.571  14.475  13.734
32548SOL    HW199418   7.483  14.480  13.772
32548SOL    HW299419   7.557  14.489  13.640
32549SOL     OW99420  11.923   6.498   5.134
32549SOL    HW199421  11.838   6.458   5.115
32549SOL    HW299422  11.920   6.583   5.089
32550SOL     OW99423  14.855   7.572   4.759
32550SOL    HW199424  14.832   7.490   4.715
32550SOL    HW299425   0.056   7.551   4.809
32551SOL     OW99426   3.666   2.199   5.691
32551SOL    HW199427   3.727   2.268   5.716
32551SOL    HW299428   3.581   2.229   5.721
32552SOL     OW99429   5.891   2.167   3.728
32552SOL    HW199430   5.842   2.159   3.646
32552SOL    HW299431   5.896   2.078   3.762
32553SOL     OW99432   2.546  10.281   4.670
32553SOL    HW199433   2.618  10.311   4.726
32553SOL    HW299434   2.486  10.237   4.730
32554SOL     OW99435  10.884   3.253   9.878
32554SOL    HW199436  10.794   3.234   9.853
32554SOL    HW299437  10.936   3.235   9.799
32555SOL     OW99438   6.791  12.690   9.072
32555SOL    HW199439   6.798  12.781   9.043
32555SOL    HW299440   6.854  12.643   9.016
32556SOL     OW99441  13.899   4.316   0.453
32556SOL    HW199442  13.967   4.336   0.388
32556SOL    HW299443  13.835   4.387   0.442
32557SOL     OW99444   2.624  11.055   9.516
32557SOL    HW199445   2.675  11.008   9.582
32557SOL    HW299446   2.544  11.081   9.560
32558SOL     OW99447   1.687   3.375  13.594
32558SOL    HW199448   1.710   3.320  13.520
32558SOL    HW299449   1.745   3.347  13.665
32559SOL     OW99450   1.189   0.933  14.035
32559SOL    HW199451   1.226   0.873  13.970
32559SOL    HW299452   1.157   0.875  14.105
32560SOL     OW99453   7.041   7.059   4.111
32560SOL    HW199454   7.053   7.142   4.065
32560SOL    HW299455   7.091   7.069   4.192
32561SOL     OW99456   1.613   8.947  10.697
32561SOL    HW199457   1.664   8.895  10.635
32561SOL    HW299458   1.625   9.037  10.668
32562SOL     OW99459  11.934   4.132  14.736
32562SOL    HW199460  11.956   4.092  14.820
32562SOL    HW299461  11.905   4.220  14.758
32563SOL     OW99462   4.505   4.389   3.562
32563SOL    HW199463   4.593   4.395   3.524
32563SOL    HW299464   4.515   4.329   3.636
32564SOL     OW99465  10.069   4.576  10.207
32564SOL    HW199466   9.982   4.556  10.173
32564SOL    HW299467  10.129   4.538  10.142
32565SOL     OW99468   5.091   2.045   4.678
32565SOL    HW199469   5.004   2.039   4.638
32565SOL    HW299470   5.103   2.139   4.696
32566SOL     OW99471  14.699   2.868  14.600
32566SOL    HW199472  14.609   2.899  14.592
32566SOL    HW299473  14.726   2.895  14.688
32567SOL     OW99474   9.604  10.956   2.593
32567SOL    HW199475   9.601  11.043   2.634
32567SOL    HW299476   9.534  10.958   2.529
32568SOL     OW99477   6.548   1.355   1.470
32568SOL    HW199478   6.558   1.266   1.504
32568SOL    HW299479   6.463   1.385   1.503
32569SOL     OW99480   0.513   4.311   5.026
32569SOL    HW199481   0.523   4.377   5.094
32569SOL    HW299482   0.522   4.228   5.073
32570SOL     OW99483   3.623  10.705  13.985
32570SOL    HW199484   3.594  10.785  13.943
32570SOL    HW299485   3.582  10.635  13.934
32571SOL     OW99486   4.265   0.089  10.532
32571SOL    HW199487   4.217   0.089  10.615
32571SOL    HW299488   4.265   0.180  10.504
32572SOL     OW99489   9.867   2.324  14.091
32572SOL    HW199490   9.925   2.381  14.040
32572SOL    HW299491   9.886   2.345  14.182
32573SOL     OW99492   3.809   9.966  10.705
32573SOL    HW199493   3.880   9.993  10.647
32573SOL    HW299494   3.811  10.031  10.776
32574SOL     OW99495   8.649  14.443  12.099
32574SOL    HW199496   8.555  14.436  12.117
32574SOL    HW299497   8.669  14.536  12.110
32575SOL     OW99498   8.544  11.901   0.501
32575SOL    HW199499   8.453  11.879   0.518
32575SOL    HW299500   8.576  11.832   0.444
32576SOL     OW99501   7.141  12.127  14.114
32576SOL    HW199502   7.204  12.146  14.045
32576SOL    HW299503   7.105  12.212  14.138
32577SOL     OW99504  14.371   8.165  11.248
32577SOL    HW199505  14.458   8.169  11.209
32577SOL    HW299506  14.314   8.137  11.176
32578SOL     OW99507   1.613   5.303   9.497
32578SOL    HW199508   1.548   5.234   9.512
32578SOL    HW299509   1.563   5.374   9.458
32579SOL     OW99510  12.081  14.213   3.697
32579SOL    HW199511  12.004  14.270   3.698
32579SOL    HW299512  12.079  14.174   3.609
32580SOL     OW99513  13.312   6.354   2.399
32580SOL    HW199514  13.277   6.426   2.451
32580SOL    HW299515  13.354   6.395   2.324
32581SOL     OW99516   6.455   2.581  11.382
32581SOL    HW199517   6.374   2.530  11.376
32581SOL    HW299518   6.524   2.522  11.351
32582SOL     OW99519  12.940  10.783   3.994
32582SOL    HW199520  12.937  10.723   3.920
32582SOL    HW299521  13.006  10.747   4.053
32583SOL     OW99522  14.345  10.762   7.602
32583SOL    HW199523  14.418  10.704   7.621
32583SOL    HW299524  14.327  10.748   7.509
32584SOL     OW99525   4.621  11.396  13.643
32584SOL    HW199526   4.568  11.339  13.697
32584SOL    HW299527   4.566  11.473  13.628
32585SOL     OW99528   0.306   1.472   6.340
32585SOL    HW199529   0.324   1.469   6.246
32585SOL    HW299530   0.343   1.555   6.370
32586SOL     OW99531   1.440   8.729   9.009
32586SOL    HW199532   1.531   8.735   8.978
32586SOL    HW299533   1.387   8.759   8.935
32587SOL     OW99534   3.694   1.679   4.896
32587SOL    HW199535   3.610   1.644   4.925
32587SOL    HW299536   3.691   1.674   4.801
32588SOL     OW99537   1.501   1.682  14.696
32588SOL    HW199538   1.468   1.707  14.782
32588SOL    HW299539   1.448   1.606  14.671
32589SOL     OW99540   9.063   1.273   8.113
32589SOL    HW199541   9.022   1.313   8.190
32589SOL    HW299542   9.061   1.179   8.130
32590SOL     OW99543   2.452  14.713  13.264
32590SOL    HW199544   2.464  14.620  13.286
32590SOL    HW299545   2.408  14.750  13.341
32591SOL     OW99546  12.792   2.404   6.307
32591SOL    HW199547  12.833   2.471   6.361
32591SOL    HW299548  12.802   2.323   6.357
32592SOL     OW99549   9.840   4.509  10.017
32592SOL    HW199550   9.755   4.490  10.058
32592SOL    HW299551   9.828   4.595   9.976
32593SOL     OW99552   7.165   8.788   7.775
32593SOL    HW199553   7.192   8.700   7.801
32593SOL    HW299554   7.247   8.833   7.754
32594SOL     OW99555   2.989   2.619   2.691
32594SOL    HW199556   3.000   2.534   2.733
32594SOL    HW299557   2.952   2.599   2.605
32595SOL     OW99558  10.447  13.364   0.669
32595SOL    HW199559  10.388  13.294   0.645
32595SOL    HW299560  10.419  13.439   0.616
32596SOL     OW99561   2.690  10.349   5.428
32596SOL    HW199562   2.674  10.300   5.347
32596SOL    HW299563   2.617  10.412   5.432
32597SOL     OW99564   8.879   0.974   3.487
32597SOL    HW199565   8.798   1.024   3.501
32597SOL    HW299566   8.880   0.908   3.557
32598SOL     OW99567  11.245   1.831  12.754
32598SOL    HW199568  11.274   1.775  12.827
32598SOL    HW299569  11.290   1.795  12.678
32599SOL     OW99570  11.774  14.586   7.315
32599SOL    HW199571  11.813  14.671   7.335
32599SOL    HW299572  11.809  14.565   7.228
32600SOL     OW99573   1.983   1.736   9.701
32600SOL    HW199574   1.930   1.816   9.705
32600SOL    HW299575   1.959   1.687   9.779
32601SOL     OW99576   5.293   5.174   4.650
32601SOL    HW199577   5.228   5.127   4.702
32601SOL    HW299578   5.375   5.166   4.699
32602SOL     OW99579  10.354   0.303   5.121
32602SOL    HW199580  10.444   0.274   5.135
32602SOL    HW299581  10.307   0.278   5.201
32603SOL     OW99582   5.648  10.871   0.460
32603SOL    HW199583   5.581  10.816   0.418
32603SOL    HW299584   5.662  10.943   0.398
32604SOL     OW99585   2.467   6.729   4.459
32604SOL    HW199586   2.441   6.699   4.372
32604SOL    HW299587   2.388   6.769   4.496
32605SOL     OW99588   1.091   7.594   5.641
32605SOL    HW199589   1.110   7.581   5.734
32605SOL    HW299590   1.165   7.644   5.607
32606SOL     OW99591  10.717   2.242   7.603
32606SOL    HW199592  10.630   2.277   7.580
32606SOL    HW299593  10.727   2.165   7.547
32607SOL     OW99594   7.135  13.623   7.093
32607SOL    HW199595   7.230  13.613   7.085
32607SOL    HW299596   7.110  13.562   7.163
32608SOL     OW99597   5.480  12.583   7.629
32608SOL    HW199598   5.476  12.521   7.702
32608SOL    HW299599   5.416  12.650   7.651
32609SOL     OW99600   2.157   6.205   9.612
32609SOL    HW199601   2.150   6.227   9.705
32609SOL    HW299602   2.245   6.169   9.602
32610SOL     OW99603   9.826  11.375  12.627
32610SOL    HW199604   9.798  11.335  12.545
32610SOL    HW299605   9.834  11.469  12.607
32611SOL     OW99606   7.927   4.525   4.700
32611SOL    HW199607   7.986   4.465   4.746
32611SOL    HW299608   7.982   4.601   4.678
32612SOL     OW99609   2.572   9.307   1.357
32612SOL    HW199610   2.605   9.388   1.394
32612SOL    HW299611   2.646   9.270   1.309
32613SOL     OW99612  13.475   4.515   1.978
32613SOL    HW199613  13.402   4.539   1.922
32613SOL    HW299614  13.508   4.433   1.940
32614SOL     OW99615   9.923   9.964   7.581
32614SOL    HW199616   9.978   9.975   7.503
32614SOL    HW299617   9.927   9.870   7.600
32615SOL     OW99618   4.895   3.170   0.577
32615SOL    HW199619   4.812   3.213   0.555
32615SOL    HW299620   4.899   3.095   0.519
32616SOL     OW99621   9.616  10.921   8.890
32616SOL    HW199622   9.684  10.987   8.879
32616SOL    HW299623   9.621  10.897   8.983
32617SOL     OW99624  11.443   0.503   7.769
32617SOL    HW199625  11.379   0.502   7.698
32617SOL    HW299626  11.528   0.510   7.724
32618SOL     OW99627  10.078  13.361  13.119
32618SOL    HW199628  10.089  13.454  13.143
32618SOL    HW299629  10.025  13.325  13.190
32619SOL     OW99630   2.923   4.654   7.580
32619SOL    HW199631   2.884   4.618   7.660
32619SOL    HW299632   2.912   4.585   7.515
32620SOL     OW99633   7.033  13.276  13.891
32620SOL    HW199634   7.031  13.185  13.921
32620SOL    HW299635   6.963  13.281  13.825
32621SOL     OW99636   7.506  12.652   8.077
32621SOL    HW199637   7.420  12.614   8.093
32621SOL    HW299638   7.530  12.621   7.990
32622SOL     OW99639   6.362  14.827  10.356
32622SOL    HW199640   6.434  14.826  10.292
32622SOL    HW299641   6.291  14.873  10.311
32623SOL     OW99642   7.594   4.596   6.764
32623SOL    HW199643   7.499   4.589   6.761
32623SOL    HW299644   7.618   4.633   6.680
32624SOL     OW99645   8.346  13.579   5.019
32624SOL    HW199646   8.401  13.655   5.041
32624SOL    HW299647   8.285  13.573   5.092
32625SOL     OW99648  12.751   1.427   6.516
32625SOL    HW199649  12.799   1.352   6.551
32625SOL    HW299650  12.672   1.432   6.570
32626SOL     OW99651   5.972  14.686   1.717
32626SOL    HW199652   5.994  14.762   1.664
32626SOL    HW299653   5.880  14.700   1.743
32627SOL     OW99654  13.888  14.000   2.580
32627SOL    HW199655  13.850  13.925   2.533
32627SOL    HW299656  13.977  14.008   2.544
32628SOL     OW99657  10.886   9.708   6.118
32628SOL    HW199658  10.797   9.732   6.094
32628SOL    HW299659  10.942   9.771   6.073
32629SOL     OW99660   3.368   8.977   8.433
32629SOL    HW199661   3.424   8.900   8.428
32629SOL    HW299662   3.326   8.972   8.519
32630SOL     OW99663   0.320  13.020   5.517
32630SOL    HW199664   0.403  13.000   5.560
32630SOL    HW299665   0.290  12.935   5.485
32631SOL     OW99666  13.325   9.467   4.533
32631SOL    HW199667  13.306   9.381   4.495
32631SOL    HW299668  13.395   9.450   4.596
32632SOL     OW99669   4.723   1.877   5.591
32632SOL    HW199670   4.775   1.942   5.545
32632SOL    HW299671   4.732   1.900   5.683
32633SOL     OW99672  12.551   5.654  10.680
32633SOL    HW199673  12.637   5.669  10.641
32633SOL    HW299674  12.569   5.625  10.770
32634SOL     OW99675   9.905   0.287  11.018
32634SOL    HW199676   9.981   0.314  10.967
32634SOL    HW299677   9.908   0.191  11.018
32635SOL     OW99678   0.257   9.979  11.456
32635SOL    HW199679   0.229  10.070  11.448
32635SOL    HW299680   0.188   9.929  11.412
32636SOL     OW99681  13.606   7.712   1.379
32636SOL    HW199682  13.598   7.765   1.458
32636SOL    HW299683  13.659   7.765   1.319
32637SOL     OW99684   0.519   5.591   8.533
32637SOL    HW199685   0.588   5.535   8.498
32637SOL    HW299686   0.476   5.627   8.456
32638SOL     OW99687   6.632   6.749   6.814
32638SOL    HW199688   6.608   6.841   6.800
32638SOL    HW299689   6.577   6.701   6.752
32639SOL     OW99690   5.660   6.536   3.004
32639SOL    HW199691   5.674   6.473   2.933
32639SOL    HW299692   5.745   6.578   3.015
32640SOL     OW99693   3.116  12.817   7.858
32640SOL    HW199694   3.158  12.734   7.837
32640SOL    HW299695   3.143  12.876   7.788
32641SOL     OW99696   9.840   3.226  11.831
32641SOL    HW199697   9.791   3.271  11.762
32641SOL    HW299698   9.897   3.165  11.784
32642SOL     OW99699   6.604   9.813  11.298
32642SOL    HW199700   6.666   9.794  11.228
32642SOL    HW299701   6.518   9.796  11.260
32643SOL     OW99702   2.194  12.833   7.613
32643SOL    HW199703   2.232  12.779   7.543
32643SOL    HW299704   2.234  12.800   7.693
32644SOL     OW99705   5.192  11.896   8.338
32644SOL    HW199706   5.153  11.944   8.266
32644SOL    HW299707   5.286  11.908   8.328
32645SOL     OW99708  13.436  14.000   0.831
32645SOL    HW199709  13.450  13.926   0.771
32645SOL    HW299710  13.521  14.013   0.873
32646SOL     OW99711   8.898   4.369   4.878
32646SOL    HW199712   8.915   4.419   4.798
32646SOL    HW299713   8.858   4.288   4.848
32647SOL     OW99714   2.865   5.650   9.841
32647SOL    HW199715   2.863   5.621   9.932
32647SOL    HW299716   2.943   5.607   9.804
32648SOL     OW99717   7.281  11.374   6.708
32648SOL    HW199718   7.195  11.414   6.717
32648SOL    HW299719   7.302  11.384   6.615
32649SOL     OW99720  12.970  11.810   4.330
32649SOL    HW199721  12.961  11.897   4.368
32649SOL    HW299722  13.056  11.811   4.288
32650SOL     OW99723   1.099  12.741   8.709
32650SOL    HW199724   1.040  12.816   8.708
32650SOL    HW299725   1.178  12.773   8.753
32651SOL     OW99726   3.741  12.141  14.433
32651SOL    HW199727   3.743  12.048  14.409
32651SOL    HW299728   3.752  12.187  14.349
32652SOL     OW99729  10.530  12.929   4.663
32652SOL    HW199730  10.486  12.900   4.583
32652SOL    HW299731  10.513  13.023   4.666
32653SOL     OW99732   3.355  10.960   6.501
32653SOL    HW199733   3.272  10.989   6.465
32653SOL    HW299734   3.333  10.918   6.584
32654SOL     OW99735  11.351   3.648  12.477
32654SOL    HW199736  11.262   3.683  12.484
32654SOL    HW299737  11.407   3.719  12.506
32655SOL     OW99738  11.679   0.087   3.446
32655SOL    HW199739  11.746   0.039   3.494
32655SOL    HW299740  11.645   0.151   3.509
32656SOL     OW99741  11.503   8.149   3.513
32656SOL    HW199742  11.501   8.174   3.420
32656SOL    HW299743  11.579   8.194   3.548
32657SOL     OW99744  11.218   1.742  10.182
32657SOL    HW199745  11.265   1.824  10.166
32657SOL    HW299746  11.230   1.726  10.276
32658SOL     OW99747   6.708   2.576   1.789
32658SOL    HW199748   6.718   2.569   1.884
32658SOL    HW299749   6.785   2.531   1.754
32659SOL     OW99750  13.617   6.407  13.079
32659SOL    HW199751  13.601   6.466  13.153
32659SOL    HW299752  13.565   6.444  13.008
32660SOL     OW99753   5.908  14.438   9.100
32660SOL    HW199754   5.948  14.402   9.021
32660SOL    HW299755   5.980  14.483   9.144
32661SOL     OW99756   6.887   7.320   5.599
32661SOL    HW199757   6.980   7.344   5.604
32661SOL    HW299758   6.842   7.388   5.650
32662SOL     OW99759   8.168   7.026   1.528
32662SOL    HW199760   8.183   6.976   1.609
32662SOL    HW299761   8.090   6.986   1.490
32663SOL     OW99762   1.074  11.064  10.924
32663SOL    HW199763   1.087  11.094  11.014
32663SOL    HW299764   1.079  11.144  10.871
32664SOL     OW99765  13.464  14.519   1.823
32664SOL    HW199766  13.527  14.545   1.755
32664SOL    HW299767  13.379  14.527   1.781
32665SOL     OW99768  10.131   1.829  11.429
32665SOL    HW199769  10.064   1.881  11.473
32665SOL    HW299770  10.085   1.750  11.401
32666SOL     OW99771  12.900   0.937   0.952
32666SOL    HW199772  12.894   0.843   0.935
32666SOL    HW299773  12.991   0.950   0.981
32667SOL     OW99774   3.384   7.095   8.294
32667SOL    HW199775   3.304   7.139   8.323
32667SOL    HW299776   3.425   7.155   8.232
32668SOL     OW99777   8.146   1.847  13.577
32668SOL    HW199778   8.185   1.875  13.494
32668SOL    HW299779   8.169   1.755  13.584
32669SOL     OW99780  12.444   7.414   1.070
32669SOL    HW199781  12.357   7.447   1.092
32669SOL    HW299782  12.502   7.457   1.133
32670SOL     OW99783  11.816   9.695  13.264
32670SOL    HW199784  11.795   9.700  13.357
32670SOL    HW299785  11.880   9.764  13.249
32671SOL     OW99786  13.500  11.877   3.342
32671SOL    HW199787  13.548  11.938   3.398
32671SOL    HW299788  13.466  11.932   3.271
32672SOL     OW99789  12.254   6.190   9.532
32672SOL    HW199790  12.349   6.178   9.526
32672SOL    HW299791  12.234   6.175   9.625
32673SOL     OW99792  11.325   1.010   4.222
32673SOL    HW199793  11.311   0.969   4.137
32673SOL    HW299794  11.265   0.964   4.281
32674SOL     OW99795   3.931   1.109   4.320
32674SOL    HW199796   3.884   1.091   4.401
32674SOL    HW299797   3.866   1.154   4.265
32675SOL     OW99798   9.925   7.436  13.722
32675SOL    HW199799   9.832   7.455  13.709
32675SOL    HW299800   9.965   7.458  13.637
32676SOL     OW99801  10.636  11.948   9.878
32676SOL    HW199802  10.623  11.885   9.949
32676SOL    HW299803  10.694  11.903   9.817
32677SOL     OW99804  14.520   8.167  12.533
32677SOL    HW199805  14.510   8.232  12.463
32677SOL    HW299806  14.435   8.167  12.578
32678SOL     OW99807   1.912  11.732   1.924
32678SOL    HW199808   1.862  11.694   1.996
32678SOL    HW299809   1.846  11.764   1.863
32679SOL     OW99810   3.320   1.832   6.901
32679SOL    HW199811   3.342   1.752   6.949
32679SOL    HW299812   3.405   1.868   6.875
32680SOL     OW99813   9.885   1.144   0.570
32680SOL    HW199814   9.809   1.099   0.533
32680SOL    HW299815   9.937   1.074   0.610
32681SOL     OW99816  11.048   5.217   4.785
32681SOL    HW199817  11.126   5.177   4.825
32681SOL    HW299818  10.988   5.231   4.858
32682SOL     OW99819  10.174   4.329  13.470
32682SOL    HW199820  10.083   4.347  13.491
32682SOL    HW299821  10.183   4.234  13.479
32683SOL     OW99822   1.169   3.568   9.780
32683SOL    HW199823   1.155   3.510   9.854
32683SOL    HW299824   1.131   3.521   9.705
32684SOL     OW99825   6.272  14.523   8.595
32684SOL    HW199826   6.335  14.591   8.615
32684SOL    HW299827   6.296  14.492   8.508
32685SOL     OW99828   4.969  11.865   2.582
32685SOL    HW199829   4.898  11.891   2.523
32685SOL    HW299830   4.926  11.811   2.648
32686SOL     OW99831   0.319   5.124   5.708
32686SOL    HW199832   0.241   5.169   5.741
32686SOL    HW299833   0.295   5.031   5.709
32687SOL     OW99834   6.217   6.165   3.969
32687SOL    HW199835   6.297   6.136   4.012
32687SOL    HW299836   6.237   6.255   3.941
32688SOL     OW99837   7.494   7.854   2.964
32688SOL    HW199838   7.547   7.904   3.026
32688SOL    HW299839   7.556   7.792   2.925
32689SOL     OW99840   2.359   5.686   5.834
32689SOL    HW199841   2.377   5.597   5.805
32689SOL    HW299842   2.389   5.741   5.761
32690SOL     OW99843   4.765   3.230   2.266
32690SOL    HW199844   4.702   3.255   2.199
32690SOL    HW299845   4.830   3.176   2.221
32691SOL     OW99846   7.606   8.630   8.699
32691SOL    HW199847   7.700   8.613   8.690
32691SOL    HW299848   7.592   8.640   8.793
32692SOL     OW99849  13.590  11.067  10.465
32692SOL    HW199850  13.677  11.096  10.441
32692SOL    HW299851  13.586  10.975  10.436
32693SOL     OW99852   0.162  11.499   6.433
32693SOL    HW199853   0.201  11.527   6.350
32693SOL    HW299854   0.199  11.558   6.498
32694SOL     OW99855  14.505   4.420  12.518
32694SOL    HW199856  14.532   4.510  12.497
32694SOL    HW299857  14.506   4.375  12.433
32695SOL     OW99858   4.152   9.318   8.139
32695SOL    HW199859   4.180   9.238   8.183
32695SOL    HW299860   4.232   9.354   8.101
32696SOL     OW99861   2.243   6.669   8.441
32696SOL    HW199862   2.281   6.709   8.363
32696SOL    HW299863   2.216   6.743   8.495
32697SOL     OW99864   6.190   3.900   7.014
32697SOL    HW199865   6.230   3.843   7.080
32697SOL    HW299866   6.213   3.861   6.930
32698SOL     OW99867  10.366  14.863  12.982
32698SOL    HW199868  10.305   0.052  13.013
32698SOL    HW299869  10.388   0.013  12.893
32699SOL     OW99870   4.876  10.530  10.715
32699SOL    HW199871   4.810  10.588  10.753
32699SOL    HW299872   4.959  10.572  10.736
32700SOL     OW99873   6.647   8.445   5.723
32700SOL    HW199874   6.677   8.412   5.808
32700SOL    HW299875   6.724   8.490   5.687
32701SOL     OW99876  12.521  10.501   1.663
32701SOL    HW199877  12.452  10.539   1.716
32701SOL    HW299878  12.500  10.528   1.573
32702SOL     OW99879  12.744   8.678   5.763
32702SOL    HW199880  12.672   8.617   5.745
32702SOL    HW299881  12.812   8.653   5.700
32703SOL     OW99882  13.123   8.452   9.877
32703SOL    HW199883  13.098   8.360   9.873
32703SOL    HW299884  13.044   8.498   9.906
32704SOL     OW99885   6.638  11.497   8.018
32704SOL    HW199886   6.643  11.510   8.113
32704SOL    HW299887   6.588  11.416   8.008
32705SOL     OW99888   6.343   5.771   7.431
32705SOL    HW199889   6.273   5.719   7.392
32705SOL    HW299890   6.382   5.713   7.496
32706SOL     OW99891   6.511  14.637   1.624
32706SOL    HW199892   6.449  14.702   1.591
32706SOL    HW299893   6.538  14.671   1.709
32707SOL     OW99894   3.699  14.014   8.150
32707SOL    HW199895   3.746  13.936   8.180
32707SOL    HW299896   3.612  14.006   8.189
32708SOL     OW99897   0.562   2.841   6.628
32708SOL    HW199898   0.612   2.771   6.670
32708SOL    HW299899   0.609   2.921   6.651
32709SOL     OW99900  10.918  11.575   9.594
32709SOL    HW199901  10.942  11.482   9.603
32709SOL    HW299902  10.840  11.575   9.539
32710SOL     OW99903  11.432  11.757   5.360
32710SOL    HW199904  11.498  11.688   5.348
32710SOL    HW299905  11.476  11.823   5.415
32711SOL     OW99906   8.148   6.872   7.612
32711SOL    HW199907   8.087   6.824   7.556
32711SOL    HW299908   8.181   6.805   7.673
32712SOL     OW99909   1.204   6.274   3.945
32712SOL    HW199910   1.158   6.347   3.987
32712SOL    HW299911   1.280   6.314   3.902
32713SOL     OW99912  11.012   8.380   5.751
32713SOL    HW199913  10.929   8.428   5.750
32713SOL    HW299914  11.025   8.352   5.661
32714SOL     OW99915   8.456   7.071   2.526
32714SOL    HW199916   8.546   7.051   2.549
32714SOL    HW299917   8.440   7.023   2.445
32715SOL     OW99918   7.019  12.073   4.723
32715SOL    HW199919   7.038  12.036   4.809
32715SOL    HW299920   7.099  12.057   4.672
32716SOL     OW99921  13.760  14.348  11.957
32716SOL    HW199922  13.714  14.266  11.936
32716SOL    HW299923  13.850  14.331  11.931
32717SOL     OW99924   6.759   1.963   6.828
32717SOL    HW199925   6.816   1.932   6.898
32717SOL    HW299926   6.698   1.891   6.813
32718SOL     OW99927   6.713   1.220   4.739
32718SOL    HW199928   6.788   1.270   4.707
32718SOL    HW299929   6.645   1.234   4.673
32719SOL     OW99930   6.133   7.912  14.549
32719SOL    HW199931   6.130   7.822  14.581
32719SOL    HW299932   6.150   7.965  14.627
32720SOL     OW99933   8.475   6.696  14.734
32720SOL    HW199934   8.408   6.676  14.800
32720SOL    HW299935   8.479   6.618  14.679
32721SOL     OW99936   1.639  14.538   8.156
32721SOL    HW199937   1.692  14.592   8.097
32721SOL    HW299938   1.695  14.522   8.232
32722SOL     OW99939   7.857   9.497   6.850
32722SOL    HW199940   7.822   9.472   6.935
32722SOL    HW299941   7.921   9.429   6.829
32723SOL     OW99942   1.940   2.233   8.629
32723SOL    HW199943   1.884   2.309   8.612
32723SOL    HW299944   1.931   2.178   8.551
32724SOL     OW99945  13.555  10.439  12.365
32724SOL    HW199946  13.554  10.490  12.284
32724SOL    HW299947  13.540  10.349  12.337
32725SOL     OW99948   1.774  14.732  14.615
32725SOL    HW199949   1.805  14.659  14.668
32725SOL    HW299950   1.679  14.728  14.622
32726SOL     OW99951   6.674  10.726  10.503
32726SOL    HW199952   6.760  10.760  10.478
32726SOL    HW299953   6.688  10.633  10.519
32727SOL     OW99954   9.747   2.954  12.783
32727SOL    HW199955   9.691   2.877  12.770
32727SOL    HW299956   9.836   2.921  12.774
32728SOL     OW99957  11.294   4.312   1.775
32728SOL    HW199958  11.322   4.221   1.789
32728SOL    HW299959  11.262   4.340   1.860
32729SOL     OW99960   1.036   0.252  11.173
32729SOL    HW199961   0.948   0.270  11.206
32729SOL    HW299962   1.042   0.304  11.092
32730SOL     OW99963   3.457   2.132   2.478
32730SOL    HW199964   3.533   2.090   2.517
32730SOL    HW299965   3.442   2.210   2.531
32731SOL     OW99966   1.419  10.284   1.344
32731SOL    HW199967   1.357  10.230   1.392
32731SOL    HW299968   1.390  10.279   1.253
32732SOL     OW99969   7.318   9.318   8.029
32732SOL    HW199970   7.290   9.282   7.945
32732SOL    HW299971   7.405   9.353   8.013
32733SOL     OW99972  10.459   1.362  10.923
32733SOL    HW199973  10.451   1.449  10.883
32733SOL    HW299974  10.373   1.322  10.911
32734SOL     OW99975   1.467   2.398   5.391
32734SOL    HW199976   1.469   2.389   5.296
32734SOL    HW299977   1.516   2.322   5.423
32735SOL     OW99978   7.277   2.696   3.794
32735SOL    HW199979   7.182   2.703   3.799
32735SOL    HW299980   7.308   2.721   3.881
32736SOL     OW99981  10.490   8.755  13.606
32736SOL    HW199982  10.403   8.738  13.640
32736SOL    HW299983  10.544   8.768  13.684
32737SOL     OW99984  10.311   2.034   1.546
32737SOL    HW199985  10.236   1.994   1.591
32737SOL    HW299986  10.388   1.998   1.590
32738SOL     OW99987   1.485   7.338   2.573
32738SOL    HW199988   1.530   7.421   2.556
32738SOL    HW299989   1.555   7.277   2.596
32739SOL     OW99990   6.883  11.300   9.099
32739SOL    HW199991   6.892  11.214   9.140
32739SOL    HW299992   6.943  11.297   9.025
32740SOL     OW99993  10.986  13.855   7.794
32740SOL    HW199994  11.074  13.820   7.778
32740SOL    HW299995  10.943  13.790   7.849
32741SOL     OW99996   7.624   1.004  14.013
32741SOL    HW199997   7.588   1.077  14.064
32741SOL    HW299998   7.671   0.951  14.077
32742SOL     OW99999   3.496  11.166  13.051
32742SOL    HW1    0   3.460  11.254  13.050
32742SOL    HW2    1   3.494  11.139  13.143
32743SOL     OW    2  10.088   4.479   8.688
32743SOL    HW1    3   9.995   4.480   8.710
32743SOL    HW2    4  10.105   4.391   8.655
32744SOL     OW    5   8.844   6.561   0.902
32744SOL    HW1    6   8.797   6.515   0.972
32744SOL    HW2    7   8.831   6.506   0.824
32745SOL     OW    8   3.345  12.853   9.879
32745SOL    HW1    9   3.349  12.759   9.865
32745SOL    HW2   10   3.302  12.888   9.801
32746SOL     OW   11  11.124  10.805   2.071
32746SOL    HW1   12  11.202  10.811   2.127
32746SOL    HW2   13  11.080  10.889   2.083
32747SOL     OW   14   7.127   5.854   2.777
32747SOL    HW1   15   7.212   5.851   2.734
32747SOL    HW2   16   7.134   5.793   2.850
32748SOL     OW   17   6.009   6.643   7.678
32748SOL    HW1   18   5.960   6.712   7.721
32748SOL    HW2   19   6.096   6.647   7.718
32749SOL     OW   20   4.598   7.990  14.100
32749SOL    HW1   21   4.673   7.937  14.073
32749SOL    HW2   22   4.525   7.928  14.104
32750SOL     OW   23   7.339  12.615   0.242
32750SOL    HW1   24   7.316  12.531   0.282
32750SOL    HW2   25   7.263  12.639   0.189
32751SOL     OW   26   2.800   0.217   8.148
32751SOL    HW1   27   2.795   0.136   8.199
32751SOL    HW2   28   2.880   0.260   8.179
32752SOL     OW   29   6.710   4.604  13.889
32752SOL    HW1   30   6.696   4.580  13.797
32752SOL    HW2   31   6.658   4.541  13.938
32753SOL     OW   32   0.362  11.627   0.394
32753SOL    HW1   33   0.377  11.594   0.305
32753SOL    HW2   34   0.340  11.548   0.445
32754SOL     OW   35   0.917  12.293   6.451
32754SOL    HW1   36   0.840  12.348   6.452
32754SOL    HW2   37   0.947  12.295   6.360
32755SOL     OW   38   2.818   6.590   7.517
32755SOL    HW1   39   2.893   6.565   7.463
32755SOL    HW2   40   2.809   6.517   7.579
32756SOL     OW   41   8.794   0.319   2.471
32756SOL    HW1   42   8.783   0.381   2.543
32756SOL    HW2   43   8.870   0.352   2.423
32757SOL     OW   44   5.829   8.365   1.742
32757SOL    HW1   45   5.735   8.377   1.760
32757SOL    HW2   46   5.847   8.276   1.772
32758SOL     OW   47   2.551  12.320   2.357
32758SOL    HW1   48   2.545  12.276   2.441
32758SOL    HW2   49   2.552  12.414   2.378
32759SOL     OW   50  12.508   5.581  13.702
32759SOL    HW1   51  12.579   5.530  13.663
32759SOL    HW2   52  12.551   5.635  13.768
32760SOL     OW   53  13.752   0.791  11.133
32760SOL    HW1   54  13.673   0.779  11.186
32760SOL    HW2   55  13.793   0.870  11.168
32761SOL     OW   56   9.527  13.320   6.308
32761SOL    HW1   57   9.492  13.384   6.371
32761SOL    HW2   58   9.458  13.311   6.242
32762SOL     OW   59   7.846  13.847  14.528
32762SOL    HW1   60   7.929  13.821  14.566
32762SOL    HW2   61   7.849  13.943  14.525
32763SOL     OW   62   8.043   2.731   4.136
32763SOL    HW1   63   8.087   2.720   4.052
32763SOL    HW2   64   7.954   2.756   4.114
32764SOL     OW   65   4.505   2.098   7.876
32764SOL    HW1   66   4.507   2.002   7.882
32764SOL    HW2   67   4.449   2.126   7.949
32765SOL     OW   68   6.627  13.161   8.868
32765SOL    HW1   69   6.716  13.150   8.834
32765SOL    HW2   70   6.570  13.136   8.795
32766SOL     OW   71   8.282  10.864   4.227
32766SOL    HW1   72   8.354  10.806   4.251
32766SOL    HW2   73   8.269  10.850   4.134
32767SOL     OW   74   4.871   8.077   0.198
32767SOL    HW1   75   4.807   8.116   0.257
32767SOL    HW2   76   4.955   8.094   0.239
32768SOL     OW   77   3.881   8.970  14.221
32768SOL    HW1   78   3.872   9.001  14.131
32768SOL    HW2   79   3.940   8.896  14.216
32769SOL     OW   80   2.788   6.708   2.034
32769SOL    HW1   81   2.695   6.696   2.053
32769SOL    HW2   82   2.831   6.699   2.119
32770SOL     OW   83  11.935   8.792   7.939
32770SOL    HW1   84  11.930   8.744   8.022
32770SOL    HW2   85  11.929   8.724   7.872
32771SOL     OW   86   5.556   9.027  11.629
32771SOL    HW1   87   5.623   8.968  11.664
32771SOL    HW2   88   5.481   8.971  11.612
32772SOL     OW   89   4.592  10.165   4.969
32772SOL    HW1   90   4.519  10.204   5.017
32772SOL    HW2   91   4.609  10.082   5.013
32773SOL     OW   92   6.391   6.699   8.469
32773SOL    HW1   93   6.425   6.702   8.379
32773SOL    HW2   94   6.302   6.734   8.462
32774SOL     OW   95   6.590   8.248   1.903
32774SOL    HW1   96   6.651   8.264   1.831
32774SOL    HW2   97   6.607   8.157   1.929
32775SOL     OW   98   0.644   0.340   5.837
32775SOL    HW1   99   0.595   0.268   5.877
32775SOL    HW2  100   0.732   0.305   5.824
32776SOL     OW  101   5.862   8.504  11.319
32776SOL    HW1  102   5.856   8.568  11.249
32776SOL    HW2  103   5.826   8.423  11.281
32777SOL     OW  104   3.603   5.260   6.756
32777SOL    HW1  105   3.553   5.179   6.752
32777SOL    HW2  106   3.691   5.233   6.781
32778SOL     OW  107   6.944  11.868   6.247
32778SOL    HW1  108   7.024  11.905   6.284
32778SOL    HW2  109   6.943  11.898   6.156
32779SOL     OW  110   7.141  13.286  12.578
32779SOL    HW1  111   7.134  13.352  12.647
32779SOL    HW2  112   7.134  13.335  12.497
32780SOL     OW  113   8.793  12.151   4.854
32780SOL    HW1  114   8.843  12.227   4.825
32780SOL    HW2  115   8.828  12.078   4.802
32781SOL     OW  116  14.063  13.590  13.527
32781SOL    HW1  117  14.075  13.660  13.591
32781SOL    HW2  118  14.024  13.518  13.577
32782SOL     OW  119   0.691   7.642   1.781
32782SOL    HW1  120   0.634   7.716   1.758
32782SOL    HW2  121   0.672   7.576   1.714
32783SOL     OW  122   8.970  14.839   2.739
32783SOL    HW1  123   8.954   0.055   2.741
32783SOL    HW2  124   8.913  14.807   2.669
32784SOL     OW  125   2.989  10.302   3.642
32784SOL    HW1  126   2.942  10.249   3.705
32784SOL    HW2  127   3.068  10.252   3.622
32785SOL     OW  128  14.038  10.501  13.661
32785SOL    HW1  129  13.967  10.439  13.645
32785SOL    HW2  130  14.041  10.554  13.581
32786SOL     OW  131  14.463   1.405   0.303
32786SOL    HW1  132  14.377   1.368   0.286
32786SOL    HW2  133  14.523   1.330   0.301
32787SOL     OW  134   4.374  14.771   1.431
32787SOL    HW1  135   4.414  14.684   1.434
32787SOL    HW2  136   4.420  14.815   1.359
32788SOL     OW  137   8.711  10.019  13.112
32788SOL    HW1  138   8.717  10.114  13.115
32788SOL    HW2  139   8.625  10.000  13.151
32789SOL     OW  140   9.928   7.117  12.284
32789SOL    HW1  141   9.990   7.181  12.248
32789SOL    HW2  142   9.983   7.056  12.333
32790SOL     OW  143   7.117   4.171   5.110
32790SOL    HW1  144   7.203   4.212   5.109
32790SOL    HW2  145   7.067   4.218   5.044
32791SOL     OW  146   5.344   3.861   6.686
32791SOL    HW1  147   5.407   3.844   6.756
32791SOL    HW2  148   5.343   3.957   6.678
32792SOL     OW  149  11.478   1.946   3.417
32792SOL    HW1  150  11.539   1.956   3.490
32792SOL    HW2  151  11.411   2.013   3.431
32793SOL     OW  152   3.689   9.112  10.209
32793SOL    HW1  153   3.726   9.085  10.292
32793SOL    HW2  154   3.705   9.206  10.203
32794SOL     OW  155   5.184   3.521   5.566
32794SOL    HW1  156   5.175   3.501   5.660
32794SOL    HW2  157   5.235   3.447   5.531
32795SOL     OW  158   5.092   7.619   9.144
32795SOL    HW1  159   5.033   7.570   9.087
32795SOL    HW2  160   5.149   7.667   9.085
32796SOL     OW  161   3.495  13.114   1.595
32796SOL    HW1  162   3.441  13.141   1.670
32796SOL    HW2  163   3.550  13.191   1.577
32797SOL     OW  164   1.841   8.613  14.108
32797SOL    HW1  165   1.811   8.695  14.067
32797SOL    HW2  166   1.931   8.602  14.075
32798SOL     OW  167   3.150   9.114   4.455
32798SOL    HW1  168   3.056   9.124   4.466
32798SOL    HW2  169   3.184   9.203   4.447
32799SOL     OW  170   8.166  14.434  13.880
32799SOL    HW1  171   8.103  14.479  13.823
32799SOL    HW2  172   8.185  14.352  13.834
32800SOL     OW  173   7.171  10.103  11.028
32800SOL    HW1  174   7.145  10.099  10.936
32800SOL    HW2  175   7.186  10.196  11.045
32801SOL     OW  176   0.817   7.316   5.386
32801SOL    HW1  177   0.746   7.355   5.335
32801SOL    HW2  178   0.889   7.378   5.379
32802SOL     OW  179   6.108  10.927  10.058
32802SOL    HW1  180   6.061  10.900  10.136
32802SOL    HW2  181   6.114  10.847  10.005
32803SOL     OW  182  13.845   7.602   5.186
32803SOL    HW1  183  13.789   7.679   5.177
32803SOL    HW2  184  13.932   7.637   5.205
32804SOL     OW  185  14.589  11.003   7.351
32804SOL    HW1  186  14.501  11.039   7.367
32804SOL    HW2  187  14.591  10.922   7.402
32805SOL     OW  188   8.259  11.758   7.509
32805SOL    HW1  189   8.298  11.845   7.516
32805SOL    HW2  190   8.269  11.721   7.597
32806SOL     OW  191  11.937   6.341   0.425
32806SOL    HW1  192  11.862   6.299   0.467
32806SOL    HW2  193  11.991   6.268   0.395
32807SOL     OW  194  13.394   2.348   4.162
32807SOL    HW1  195  13.306   2.315   4.143
32807SOL    HW2  196  13.446   2.323   4.086
32808SOL     OW  197   9.194   9.576  11.517
32808SOL    HW1  198   9.243   9.647  11.476
32808SOL    HW2  199   9.250   9.499  11.508
32809SOL     OW  200  13.573   1.745   2.595
32809SOL    HW1  201  13.506   1.719   2.658
32809SOL    HW2  202  13.654   1.709   2.630
32810SOL     OW  203   7.286  11.028   4.712
32810SOL    HW1  204   7.305  11.114   4.675
32810SOL    HW2  205   7.346  10.969   4.667
32811SOL     OW  206   3.287   8.288   7.339
32811SOL    HW1  207   3.249   8.368   7.375
32811SOL    HW2  208   3.278   8.298   7.244
32812SOL     OW  209   3.670  11.286   3.649
32812SOL    HW1  210   3.638  11.376   3.641
32812SOL    HW2  211   3.739  11.279   3.584
32813SOL     OW  212   3.661  11.498   6.267
32813SOL    HW1  213   3.577  11.499   6.314
32813SOL    HW2  214   3.694  11.410   6.280
32814SOL     OW  215   9.349   5.902  13.889
32814SOL    HW1  216   9.352   5.825  13.832
32814SOL    HW2  217   9.393   5.970  13.838
32815SOL     OW  218   5.319  12.580  12.528
32815SOL    HW1  219   5.368  12.504  12.495
32815SOL    HW2  220   5.340  12.650  12.467
32816SOL     OW  221   6.969   1.366   1.820
32816SOL    HW1  222   6.968   1.432   1.889
32816SOL    HW2  223   7.058   1.371   1.784
32817SOL     OW  224   5.412   1.342   1.436
32817SOL    HW1  225   5.330   1.387   1.417
32817SOL    HW2  226   5.409   1.325   1.530
32818SOL     OW  227  14.834   1.215   4.257
32818SOL    HW1  228  14.796   1.240   4.341
32818SOL    HW2  229   0.025   1.279   4.242
32819SOL     OW  230   4.183  11.090  14.589
32819SOL    HW1  231   4.237  11.012  14.581
32819SOL    HW2  232   4.244  11.163  14.572
32820SOL     OW  233  10.820   6.578  12.326
32820SOL    HW1  234  10.861   6.617  12.249
32820SOL    HW2  235  10.726   6.583  12.307
32821SOL     OW  236   2.931   7.306  10.529
32821SOL    HW1  237   2.882   7.226  10.544
32821SOL    HW2  238   2.921   7.356  10.610
32822SOL     OW  239   3.631  10.337  14.040
32822SOL    HW1  240   3.699  10.301  13.983
32822SOL    HW2  241   3.571  10.381  13.980
32823SOL     OW  242  12.191  11.842   4.899
32823SOL    HW1  243  12.261  11.902   4.924
32823SOL    HW2  244  12.222  11.756   4.929
32824SOL     OW  245   4.161  12.892  13.050
32824SOL    HW1  246   4.180  12.958  12.984
32824SOL    HW2  247   4.201  12.926  13.130
32825SOL     OW  248  13.220   8.341   1.870
32825SOL    HW1  249  13.216   8.320   1.963
32825SOL    HW2  250  13.159   8.414   1.859
32826SOL     OW  251   7.338  14.000   6.850
32826SOL    HW1  252   7.301  13.970   6.933
32826SOL    HW2  253   7.308  14.091   6.842
32827SOL     OW  254  14.430   1.085   0.655
32827SOL    HW1  255  14.519   1.061   0.630
32827SOL    HW2  256  14.396   1.009   0.702
32828SOL     OW  257  11.616   6.352  12.344
32828SOL    HW1  258  11.668   6.281  12.382
32828SOL    HW2  259  11.525   6.328  12.363
32829SOL     OW  260   1.492   1.966   0.747
32829SOL    HW1  261   1.492   1.985   0.653
32829SOL    HW2  262   1.508   1.871   0.752
32830SOL     OW  263  10.163   4.015  13.441
32830SOL    HW1  264  10.162   4.071  13.363
32830SOL    HW2  265  10.091   3.953  13.427
32831SOL     OW  266  14.875   4.716   1.861
32831SOL    HW1  267  14.847   4.790   1.808
32831SOL    HW2  268   0.066   4.751   1.917
32832SOL     OW  269   4.344  11.067   5.228
32832SOL    HW1  270   4.288  11.145   5.225
32832SOL    HW2  271   4.373  11.063   5.320
32833SOL     OW  272   6.651   3.505   0.001
32833SOL    HW1  273   6.615   3.426  14.840
32833SOL    HW2  274   6.729   3.524  14.826
32834SOL     OW  275   2.077   4.481   2.959
32834SOL    HW1  276   2.003   4.478   3.020
32834SOL    HW2  277   2.059   4.556   2.903
32835SOL     OW  278   5.405  11.391   3.005
32835SOL    HW1  279   5.444  11.307   3.027
32835SOL    HW2  280   5.326  11.397   3.059
32836SOL     OW  281   8.421   0.065   3.905
32836SOL    HW1  282   8.446   0.079   3.996
32836SOL    HW2  283   8.504   0.065   3.857
32837SOL     OW  284   4.333   6.581   0.004
32837SOL    HW1  285   4.354   6.604  14.791
32837SOL    HW2  286   4.401   6.519   0.030
32838SOL     OW  287   1.809   2.211  11.053
32838SOL    HW1  288   1.839   2.130  11.013
32838SOL    HW2  289   1.890   2.254  11.083
32839SOL     OW  290   1.446   2.344  14.500
32839SOL    HW1  291   1.452   2.382  14.412
32839SOL    HW2  292   1.486   2.257  14.491
32840SOL     OW  293   3.091   9.440  10.298
32840SOL    HW1  294   3.187   9.438  10.298
32840SOL    HW2  295   3.069   9.507  10.234
32841SOL     OW  296  11.560   5.952   9.259
32841SOL    HW1  297  11.534   6.013   9.328
32841SOL    HW2  298  11.542   5.866   9.296
32842SOL     OW  299   6.878  11.187   2.144
32842SOL    HW1  300   6.935  11.170   2.069
32842SOL    HW2  301   6.863  11.282   2.141
32843SOL     OW  302   2.164   6.436   1.228
32843SOL    HW1  303   2.102   6.400   1.291
32843SOL    HW2  304   2.174   6.528   1.254
32844SOL     OW  305   8.350   3.952   6.543
32844SOL    HW1  306   8.373   4.045   6.539
32844SOL    HW2  307   8.265   3.949   6.586
32845SOL     OW  308   9.110   2.658  10.740
32845SOL    HW1  309   9.096   2.722  10.670
32845SOL    HW2  310   9.063   2.580  10.710
32846SOL     OW  311   6.342  10.490   7.509
32846SOL    HW1  312   6.342  10.442   7.592
32846SOL    HW2  313   6.303  10.575   7.530
32847SOL     OW  314   7.645  13.368   8.915
32847SOL    HW1  315   7.610  13.327   8.836
32847SOL    HW2  316   7.587  13.340   8.985
32848SOL     OW  317   8.563   2.550   3.518
32848SOL    HW1  318   8.483   2.597   3.495
32848SOL    HW2  319   8.585   2.580   3.606
32849SOL     OW  320   9.831   0.156  11.753
32849SOL    HW1  321   9.794   0.069  11.772
32849SOL    HW2  322   9.926   0.143  11.757
32850SOL     OW  323   9.179   8.635   5.490
32850SOL    HW1  324   9.107   8.573   5.482
32850SOL    HW2  325   9.212   8.622   5.579
32851SOL     OW  326   6.194   2.374   4.815
32851SOL    HW1  327   6.274   2.377   4.763
32851SOL    HW2  328   6.154   2.460   4.802
32852SOL     OW  329  12.211   0.141  12.860
32852SOL    HW1  330  12.167   0.214  12.818
32852SOL    HW2  331  12.248   0.089  12.788
32853SOL     OW  332   5.414   6.524  14.030
32853SOL    HW1  333   5.371   6.590  13.977
32853SOL    HW2  334   5.349   6.454  14.039
32854SOL     OW  335   8.003  12.610   3.414
32854SOL    HW1  336   8.034  12.578   3.498
32854SOL    HW2  337   7.908  12.616   3.424
32855SOL     OW  338  14.521  11.354   2.559
32855SOL    HW1  339  14.576  11.401   2.496
32855SOL    HW2  340  14.545  11.391   2.644
32856SOL     OW  341  14.849   1.021  14.579
32856SOL    HW1  342   0.026   1.084  14.625
32856SOL    HW2  343  14.829   0.955  14.645
32857SOL     OW  344  10.574  13.039  14.638
32857SOL    HW1  345  10.567  13.110  14.574
32857SOL    HW2  346  10.560  12.959  14.587
32858SOL     OW  347   0.287  10.468  14.738
32858SOL    HW1  348   0.222  10.537  14.750
32858SOL    HW2  349   0.365  10.501  14.781
32859SOL     OW  350  14.550  11.585  10.664
32859SOL    HW1  351  14.499  11.647  10.611
32859SOL    HW2  352  14.624  11.636  10.695
32860SOL     OW  353   9.372  12.990  14.480
32860SOL    HW1  354   9.367  13.006  14.386
32860SOL    HW2  355   9.281  12.973  14.506
32861SOL     OW  356  12.019   0.053  10.749
32861SOL    HW1  357  12.057   0.067  10.836
32861SOL    HW2  358  12.008  14.836  10.743
32862SOL     OW  359   2.362   6.491   7.890
32862SOL    HW1  360   2.405   6.538   7.961
32862SOL    HW2  361   2.386   6.399   7.904
32863SOL     OW  362  10.469   3.928   5.786
32863SOL    HW1  363  10.400   3.902   5.724
32863SOL    HW2  364  10.426   3.992   5.843
32864SOL     OW  365   0.475   1.300  11.923
32864SOL    HW1  366   0.487   1.315  12.016
32864SOL    HW2  367   0.564   1.287  11.889
32865SOL     OW  368   3.152  14.812   6.576
32865SOL    HW1  369   3.118  14.861   6.502
32865SOL    HW2  370   3.075  14.790   6.629
32866SOL     OW  371  12.986   6.269   7.188
32866SOL    HW1  372  12.979   6.175   7.204
32866SOL    HW2  373  12.969   6.279   7.095
32867SOL     OW  374  14.871   5.665   4.342
32867SOL    HW1  375  14.820   5.725   4.397
32867SOL    HW2  376  14.873   5.583   4.391
32868SOL     OW  377   9.830  13.588  11.319
32868SOL    HW1  378   9.856  13.496  11.330
32868SOL    HW2  379   9.902  13.627  11.268
32869SOL     OW  380   2.899   9.806  14.030
32869SOL    HW1  381   2.884   9.768  13.944
32869SOL    HW2  382   2.857   9.745  14.091
32870SOL     OW  383  13.666   1.708   1.435
32870SOL    HW1  384  13.725   1.718   1.361
32870SOL    HW2  385  13.603   1.642   1.407
32871SOL     OW  386   7.305   3.628   4.549
32871SOL    HW1  387   7.362   3.657   4.478
32871SOL    HW2  388   7.225   3.680   4.539
32872SOL     OW  389   3.640   6.672   0.437
32872SOL    HW1  390   3.724   6.674   0.391
32872SOL    HW2  391   3.611   6.581   0.429
32873SOL     OW  392   7.291   7.318   9.946
32873SOL    HW1  393   7.265   7.400   9.904
32873SOL    HW2  394   7.348   7.344  10.018
32874SOL     OW  395   0.068   8.411   7.295
32874SOL    HW1  396   0.035   8.328   7.330
32874SOL    HW2  397   0.056   8.474   7.366
32875SOL     OW  398   0.831   0.851   7.211
32875SOL    HW1  399   0.859   0.784   7.149
32875SOL    HW2  400   0.736   0.841   7.216
32876SOL     OW  401   3.840   8.640   7.053
32876SOL    HW1  402   3.786   8.599   6.985
32876SOL    HW2  403   3.866   8.724   7.015
32877SOL     OW  404  12.911   1.314   2.112
32877SOL    HW1  405  12.848   1.323   2.041
32877SOL    HW2  406  12.894   1.389   2.169
32878SOL     OW  407  14.521   1.427   3.021
32878SOL    HW1  408  14.519   1.365   3.094
32878SOL    HW2  409  14.588   1.491   3.045
32879SOL     OW  410  14.089  11.746   1.044
32879SOL    HW1  411  14.118  11.816   0.986
32879SOL    HW2  412  14.014  11.707   0.999
32880SOL     OW  413  11.815   1.881  11.857
32880SOL    HW1  414  11.841   1.950  11.918
32880SOL    HW2  415  11.766   1.927  11.789
32881SOL     OW  416   4.339   0.962  10.088
32881SOL    HW1  417   4.395   0.894  10.127
32881SOL    HW2  418   4.375   1.044  10.123
32882SOL     OW  419   4.251   9.801  14.400
32882SOL    HW1  420   4.295   9.807  14.485
32882SOL    HW2  421   4.170   9.754  14.419
32883SOL     OW  422  13.253   8.215   5.362
32883SOL    HW1  423  13.286   8.236   5.275
32883SOL    HW2  424  13.305   8.270   5.421
32884SOL     OW  425   3.529  12.265   7.572
32884SOL    HW1  426   3.623  12.268   7.591
32884SOL    HW2  427   3.496  12.195   7.628
32885SOL     OW  428   7.179   8.058   7.290
32885SOL    HW1  429   7.269   8.083   7.308
32885SOL    HW2  430   7.127   8.131   7.323
32886SOL     OW  431   9.569   9.294  10.640
32886SOL    HW1  432   9.619   9.224  10.599
32886SOL    HW2  433   9.622   9.320  10.717
32887SOL     OW  434   1.756   0.872   0.876
32887SOL    HW1  435   1.679   0.928   0.875
32887SOL    HW2  436   1.752   0.827   0.961
32888SOL     OW  437  13.741   8.055   6.692
32888SOL    HW1  438  13.733   7.960   6.700
32888SOL    HW2  439  13.675   8.090   6.752
32889SOL     OW  440   3.508   4.876   4.724
32889SOL    HW1  441   3.596   4.909   4.739
32889SOL    HW2  442   3.453   4.925   4.785
32890SOL     OW  443   0.344   5.406   8.982
32890SOL    HW1  444   0.345   5.498   9.006
32890SOL    HW2  445   0.258   5.392   8.942
32891SOL     OW  446  10.012   0.536   6.427
32891SOL    HW1  447  10.065   0.556   6.350
32891SOL    HW2  448   9.927   0.577   6.409
32892SOL     OW  449  12.054  10.161   3.093
32892SOL    HW1  450  12.061  10.228   3.161
32892SOL    HW2  451  12.000  10.201   3.025
32893SOL     OW  452   6.957   5.309  13.719
32893SOL    HW1  453   7.038   5.360  13.722
32893SOL    HW2  454   6.967   5.244  13.788
32894SOL     OW  455   6.247   4.019  14.068
32894SOL    HW1  456   6.242   3.951  14.136
32894SOL    HW2  457   6.212   3.977  13.990
32895SOL     OW  458  12.814  13.024  14.289
32895SOL    HW1  459  12.870  13.098  14.268
32895SOL    HW2  460  12.809  12.974  14.207
32896SOL     OW  461   0.844   1.863  14.328
32896SOL    HW1  462   0.769   1.860  14.268
32896SOL    HW2  463   0.887   1.779  14.316
32897SOL     OW  464   2.033  11.562  14.722
32897SOL    HW1  465   1.981  11.575  14.801
32897SOL    HW2  466   2.035  11.467  14.710
32898SOL     OW  467   1.700   0.469   8.947
32898SOL    HW1  468   1.668   0.394   8.997
32898SOL    HW2  469   1.654   0.544   8.985
32899SOL     OW  470  12.513   2.833  12.906
32899SOL    HW1  471  12.430   2.879  12.891
32899SOL    HW2  472  12.577   2.881  12.854
32900SOL     OW  473   6.592   8.960   9.015
32900SOL    HW1  474   6.676   8.941   9.057
32900SOL    HW2  475   6.606   8.937   8.923
32901SOL     OW  476  13.810   1.385   2.758
32901SOL    HW1  477  13.756   1.333   2.817
32901SOL    HW2  478  13.891   1.399   2.805
32902SOL     OW  479   2.338  11.524  10.002
32902SOL    HW1  480   2.382  11.440  10.022
32902SOL    HW2  481   2.274  11.534  10.072
32903SOL     OW  482   0.687  12.508   1.912
32903SOL    HW1  483   0.670  12.532   1.820
32903SOL    HW2  484   0.778  12.478   1.912
32904SOL     OW  485   9.390  12.033   4.805
32904SOL    HW1  486   9.317  12.025   4.745
32904SOL    HW2  487   9.406  11.944   4.837
32905SOL     OW  488   8.602  10.751   6.741
32905SOL    HW1  489   8.674  10.801   6.780
32905SOL    HW2  490   8.562  10.705   6.815
32906SOL     OW  491   0.284   2.867   1.666
32906SOL    HW1  492   0.316   2.862   1.756
32906SOL    HW2  493   0.203   2.815   1.666
32907SOL     OW  494   2.998   2.192  14.544
32907SOL    HW1  495   3.083   2.233  14.530
32907SOL    HW2  496   2.935   2.250  14.501
32908SOL     OW  497   7.103   1.630   3.168
32908SOL    HW1  498   7.134   1.558   3.112
32908SOL    HW2  499   7.171   1.640   3.234
32909SOL     OW  500  11.620   2.276   6.010
32909SOL    HW1  501  11.545   2.330   5.987
32909SOL    HW2  502  11.582   2.195   6.045
32910SOL     OW  503  13.684   7.757  14.624
32910SOL    HW1  504  13.621   7.742  14.694
32910SOL    HW2  505  13.632   7.753  14.544
32911SOL     OW  506   0.454  13.569   7.022
32911SOL    HW1  507   0.492  13.656   7.010
32911SOL    HW2  508   0.507  13.528   7.090
32912SOL     OW  509  11.863  14.063   4.348
32912SOL    HW1  510  11.910  14.000   4.293
32912SOL    HW2  511  11.771  14.045   4.332
32913SOL     OW  512  14.192   6.327   3.856
32913SOL    HW1  513  14.281   6.293   3.848
32913SOL    HW2  514  14.176   6.329   3.950
32914SOL     OW  515  10.555   6.676   0.283
32914SOL    HW1  516  10.629   6.675   0.221
32914SOL    HW2  517  10.509   6.758   0.263
32915SOL     OW  518   3.799  12.709   4.502
32915SOL    HW1  519   3.782  12.670   4.588
32915SOL    HW2  520   3.889  12.740   4.508
32916SOL     OW  521   2.372  10.094   1.914
32916SOL    HW1  522   2.337  10.139   1.837
32916SOL    HW2  523   2.294  10.062   1.960
32917SOL     OW  524   1.210  10.914   4.836
32917SOL    HW1  525   1.159  10.844   4.796
32917SOL    HW2  526   1.287  10.871   4.872
32918SOL     OW  527   3.174   3.998   6.790
32918SOL    HW1  528   3.238   4.059   6.826
32918SOL    HW2  529   3.224   3.944   6.729
32919SOL     OW  530   2.976   3.956  12.446
32919SOL    HW1  531   3.053   3.908  12.418
32919SOL    HW2  532   3.008   4.044  12.464
32920SOL     OW  533   5.710   3.162   6.707
32920SOL    HW1  534   5.729   3.091   6.768
32920SOL    HW2  535   5.615   3.173   6.711
32921SOL     OW  536   2.533  10.397   3.782
32921SOL    HW1  537   2.508  10.488   3.798
32921SOL    HW2  538   2.557  10.363   3.868
32922SOL     OW  539   3.879   8.778   9.832
32922SOL    HW1  540   3.840   8.831   9.901
32922SOL    HW2  541   3.940   8.838   9.788
32923SOL     OW  542   3.552   2.820   2.893
32923SOL    HW1  543   3.591   2.780   2.816
32923SOL    HW2  544   3.498   2.891   2.858
32924SOL     OW  545  14.827  13.553  14.847
32924SOL    HW1  546  14.755  13.568   0.030
32924SOL    HW2  547  14.815  13.462  14.818
32925SOL     OW  548   7.016   1.648  12.755
32925SOL    HW1  549   6.921   1.662  12.760
32925SOL    HW2  550   7.026   1.553  12.754
32926SOL     OW  551   5.035  11.786   1.745
32926SOL    HW1  552   5.118  11.824   1.773
32926SOL    HW2  553   5.054  11.745   1.661
32927SOL     OW  554  13.660   3.551   2.849
32927SOL    HW1  555  13.573   3.590   2.857
32927SOL    HW2  556  13.643   3.459   2.828
32928SOL     OW  557  12.132   8.983   6.283
32928SOL    HW1  558  12.131   9.077   6.270
32928SOL    HW2  559  12.155   8.946   6.197
32929SOL     OW  560  13.167   1.226  12.950
32929SOL    HW1  561  13.206   1.284  13.016
32929SOL    HW2  562  13.167   1.139  12.991
32930SOL     OW  563  13.209   2.029   7.304
32930SOL    HW1  564  13.162   2.089   7.246
32930SOL    HW2  565  13.219   1.949   7.253
32931SOL     OW  566   4.972   7.352   0.741
32931SOL    HW1  567   4.938   7.356   0.652
32931SOL    HW2  568   5.062   7.320   0.730
32932SOL     OW  569   8.867  11.493   8.120
32932SOL    HW1  570   8.934  11.426   8.132
32932SOL    HW2  571   8.879  11.523   8.030
32933SOL     OW  572   1.809   8.648   8.430
32933SOL    HW1  573   1.797   8.640   8.335
32933SOL    HW2  574   1.846   8.564   8.457
32934SOL     OW  575   2.279   2.378   3.359
32934SOL    HW1  576   2.296   2.373   3.453
32934SOL    HW2  577   2.264   2.288   3.331
32935SOL     OW  578   2.976  13.430   9.947
32935SOL    HW1  579   2.952  13.518   9.975
32935SOL    HW2  580   2.894  13.381   9.952
32936SOL     OW  581   8.375  11.263   5.161
32936SOL    HW1  582   8.450  11.292   5.109
32936SOL    HW2  583   8.394  11.294   5.250
32937SOL     OW  584   7.663   2.089  12.991
32937SOL    HW1  585   7.732   2.140  13.035
32937SOL    HW2  586   7.688   2.091  12.899
32938SOL     OW  587   1.708   4.962   2.643
32938SOL    HW1  588   1.696   4.954   2.737
32938SOL    HW2  589   1.645   5.029   2.616
32939SOL     OW  590  11.296  10.708   1.271
32939SOL    HW1  591  11.325  10.785   1.320
32939SOL    HW2  592  11.202  10.705   1.283
32940SOL     OW  593  14.704   1.546   0.694
32940SOL    HW1  594  14.652   1.482   0.646
32940SOL    HW2  595  14.647   1.574   0.766
32941SOL     OW  596  11.234   9.885  12.805
32941SOL    HW1  597  11.233   9.956  12.870
32941SOL    HW2  598  11.319   9.844  12.815
32942SOL     OW  599  13.360   1.758  11.987
32942SOL    HW1  600  13.270   1.731  12.005
32942SOL    HW2  601  13.377   1.725  11.898
32943SOL     OW  602  11.841  10.300  13.832
32943SOL    HW1  603  11.773  10.238  13.859
32943SOL    HW2  604  11.915  10.280  13.889
32944SOL     OW  605  12.166   4.447   1.473
32944SOL    HW1  606  12.129   4.525   1.514
32944SOL    HW2  607  12.238   4.479   1.420
32945SOL     OW  608  10.804  14.023   9.460
32945SOL    HW1  609  10.799  14.070   9.543
32945SOL    HW2  610  10.882  13.968   9.468
32946SOL     OW  611   6.267  14.548   0.453
32946SOL    HW1  612   6.181  14.553   0.411
32946SOL    HW2  613   6.310  14.630   0.429
32947SOL     OW  614  11.668   2.728  11.045
32947SOL    HW1  615  11.573   2.724  11.057
32947SOL    HW2  616  11.683   2.680  10.963
32948SOL     OW  617   0.481   6.813   8.289
32948SOL    HW1  618   0.528   6.730   8.284
32948SOL    HW2  619   0.507   6.860   8.209
32949SOL     OW  620   5.253   4.160   0.105
32949SOL    HW1  621   5.343   4.186   0.083
32949SOL    HW2  622   5.256   4.144   0.200
32950SOL     OW  623  13.473   4.603  11.320
32950SOL    HW1  624  13.564   4.572  11.323
32950SOL    HW2  625  13.480   4.697  11.302
32951SOL     OW  626   9.373   6.081   5.169
32951SOL    HW1  627   9.345   6.008   5.115
32951SOL    HW2  628   9.413   6.143   5.108
32952SOL     OW  629   1.727  10.025   1.900
32952SOL    HW1  630   1.675  10.102   1.924
32952SOL    HW2  631   1.761   9.993   1.983
32953SOL     OW  632  10.487  10.146   4.501
32953SOL    HW1  633  10.569  10.118   4.542
32953SOL    HW2  634  10.445  10.065   4.473
32954SOL     OW  635   1.018   8.393   3.968
32954SOL    HW1  636   1.114   8.395   3.971
32954SOL    HW2  637   0.993   8.485   3.965
32955SOL     OW  638   0.720  14.016   7.384
32955SOL    HW1  639   0.651  13.967   7.337
32955SOL    HW2  640   0.801  13.969   7.362
32956SOL     OW  641   2.601  13.826   6.309
32956SOL    HW1  642   2.527  13.766   6.311
32956SOL    HW2  643   2.631  13.825   6.218
32957SOL     OW  644   8.468   4.188  12.437
32957SOL    HW1  645   8.469   4.247  12.512
32957SOL    HW2  646   8.389   4.212  12.389
32958SOL     OW  647  13.204   9.966  10.668
32958SOL    HW1  648  13.123   9.916  10.674
32958SOL    HW2  649  13.272   9.901  10.650
32959SOL     OW  650  14.536  11.312   7.129
32959SOL    HW1  651  14.482  11.391   7.128
32959SOL    HW2  652  14.611  11.332   7.074
32960SOL     OW  653  11.803   3.633   4.345
32960SOL    HW1  654  11.769   3.705   4.398
32960SOL    HW2  655  11.787   3.660   4.254
32961SOL     OW  656   4.990   8.023   6.220
32961SOL    HW1  657   4.925   8.049   6.155
32961SOL    HW2  658   5.018   8.106   6.260
32962SOL     OW  659  10.286   2.473   4.429
32962SOL    HW1  660  10.266   2.566   4.438
32962SOL    HW2  661  10.209   2.435   4.388
32963SOL     OW  662   1.304   4.633   8.174
32963SOL    HW1  663   1.307   4.706   8.236
32963SOL    HW2  664   1.382   4.581   8.194
32964SOL     OW  665   8.843   5.796   1.535
32964SOL    HW1  666   8.845   5.702   1.551
32964SOL    HW2  667   8.773   5.829   1.590
32965SOL     OW  668   7.203   1.373  10.066
32965SOL    HW1  669   7.226   1.442  10.128
32965SOL    HW2  670   7.278   1.368  10.006
32966SOL     OW  671   4.496  14.033   2.583
32966SOL    HW1  672   4.548  13.978   2.524
32966SOL    HW2  673   4.561  14.075   2.639
32967SOL     OW  674   9.017   0.391  11.121
32967SOL    HW1  675   9.092   0.343  11.155
32967SOL    HW2  676   9.025   0.383  11.025
32968SOL     OW  677  14.483   7.677   3.580
32968SOL    HW1  678  14.401   7.628   3.579
32968SOL    HW2  679  14.545   7.619   3.625
32969SOL     OW  680   8.925  14.692   2.965
32969SOL    HW1  681   8.972  14.609   2.964
32969SOL    HW2  682   8.964  14.743   2.894
32970SOL     OW  683   4.684   5.658   2.801
32970SOL    HW1  684   4.678   5.753   2.810
32970SOL    HW2  685   4.699   5.626   2.890
32971SOL     OW  686   0.850   1.897   3.369
32971SOL    HW1  687   0.800   1.818   3.387
32971SOL    HW2  688   0.883   1.885   3.279
32972SOL     OW  689   2.328  10.225  13.563
32972SOL    HW1  690   2.394  10.171  13.606
32972SOL    HW2  691   2.358  10.231  13.472
32973SOL     OW  692   6.608  10.677   7.038
32973SOL    HW1  693   6.584  10.611   7.103
32973SOL    HW2  694   6.595  10.634   6.954
32974SOL     OW  695   1.868  12.777   2.958
32974SOL    HW1  696   1.848  12.700   3.011
32974SOL    HW2  697   1.878  12.742   2.869
32975SOL     OW  698   8.668  10.583   0.764
32975SOL    HW1  699   8.616  10.583   0.684
32975SOL    HW2  700   8.612  10.541   0.829
32976SOL     OW  701  13.023  14.369   0.498
32976SOL    HW1  702  12.996  14.278   0.486
32976SOL    HW2  703  13.002  14.411   0.415
32977SOL     OW  704  13.552  12.383   0.533
32977SOL    HW1  705  13.603  12.320   0.584
32977SOL    HW2  706  13.480  12.332   0.497
32978SOL     OW  707  10.136   4.621   9.658
32978SOL    HW1  708  10.201   4.552   9.665
32978SOL    HW2  709  10.078   4.592   9.587
32979SOL     OW  710   6.032   9.154   3.531
32979SOL    HW1  711   6.036   9.207   3.611
32979SOL    HW2  712   6.085   9.077   3.551
32980SOL     OW  713   3.785  12.796   8.819
32980SOL    HW1  714   3.779  12.703   8.841
32980SOL    HW2  715   3.736  12.804   8.737
32981SOL     OW  716   6.021   2.630   6.409
32981SOL    HW1  717   6.110   2.656   6.436
32981SOL    HW2  718   6.008   2.544   6.449
32982SOL     OW  719   6.095   3.634   5.234
32982SOL    HW1  720   6.116   3.562   5.174
32982SOL    HW2  721   6.180   3.660   5.270
32983SOL     OW  722   5.706   1.796   3.459
32983SOL    HW1  723   5.699   1.796   3.363
32983SOL    HW2  724   5.800   1.783   3.476
32984SOL     OW  725   6.006   8.985   5.568
32984SOL    HW1  726   6.053   9.040   5.631
32984SOL    HW2  727   6.061   8.908   5.557
32985SOL     OW  728  10.862   1.217   1.408
32985SOL    HW1  729  10.816   1.230   1.325
32985SOL    HW2  730  10.942   1.268   1.399
32986SOL     OW  731   9.200   2.556   4.633
32986SOL    HW1  732   9.110   2.553   4.666
32986SOL    HW2  733   9.191   2.545   4.539
32987SOL     OW  734   9.016   1.181   8.500
32987SOL    HW1  735   9.067   1.193   8.579
32987SOL    HW2  736   9.023   1.265   8.454
32988SOL     OW  737  11.628   2.669   7.655
32988SOL    HW1  738  11.561   2.601   7.661
32988SOL    HW2  739  11.579   2.750   7.642
32989SOL     OW  740   5.319   1.034  13.890
32989SOL    HW1  741   5.252   0.970  13.865
32989SOL    HW2  742   5.354   1.066  13.807
32990SOL     OW  743   6.500   7.720   4.927
32990SOL    HW1  744   6.567   7.715   4.995
32990SOL    HW2  745   6.428   7.665   4.960
32991SOL     OW  746  13.905   6.529  11.373
32991SOL    HW1  747  13.814   6.558  11.374
32991SOL    HW2  748  13.903   6.444  11.329
32992SOL     OW  749   3.891   2.773   1.470
32992SOL    HW1  750   3.876   2.814   1.555
32992SOL    HW2  751   3.805   2.745   1.440
32993SOL     OW  752   4.496   9.017   4.187
32993SOL    HW1  753   4.533   8.984   4.105
32993SOL    HW2  754   4.464   8.939   4.233
32994SOL     OW  755   4.065   6.686   0.550
32994SOL    HW1  756   3.991   6.668   0.608
32994SOL    HW2  757   4.024   6.707   0.466
32995SOL     OW  758   3.909   6.513   7.717
32995SOL    HW1  759   3.932   6.506   7.624
32995SOL    HW2  760   3.826   6.466   7.725
32996SOL     OW  761   6.543   6.334  10.201
32996SOL    HW1  762   6.612   6.282  10.243
32996SOL    HW2  763   6.579   6.356  10.115
32997SOL     OW  764  10.677  10.830  11.849
32997SOL    HW1  765  10.766  10.834  11.885
32997SOL    HW2  766  10.690  10.791  11.762
32998SOL     OW  767   3.938  10.588  10.778
32998SOL    HW1  768   4.018  10.621  10.819
32998SOL    HW2  769   3.962  10.502  10.745
32999SOL     OW  770  10.819  12.343   6.221
32999SOL    HW1  771  10.841  12.298   6.139
32999SOL    HW2  772  10.724  12.332   6.229
33000SOL     OW  773   5.924   2.205   4.294
33000SOL    HW1  774   5.840   2.240   4.263
33000SOL    HW2  775   5.900   2.143   4.363
33001SOL     OW  776   3.919  13.792  11.207
33001SOL    HW1  777   4.003  13.836  11.201
33001SOL    HW2  778   3.905  13.756  11.119
33002SOL     OW  779   7.400   8.409   3.069
33002SOL    HW1  780   7.409   8.493   3.024
33002SOL    HW2  781   7.392   8.432   3.162
33003SOL     OW  782   2.830   8.623   8.498
33003SOL    HW1  783   2.827   8.677   8.419
33003SOL    HW2  784   2.744   8.632   8.538
33004SOL     OW  785  11.650  11.456   8.081
33004SOL    HW1  786  11.713  11.384   8.085
33004SOL    HW2  787  11.583  11.427   8.019
33005SOL     OW  788   4.745   1.922  13.688
33005SOL    HW1  789   4.732   2.004  13.735
33005SOL    HW2  790   4.659   1.881  13.685
33006SOL     OW  791   0.757   3.584   2.610
33006SOL    HW1  792   0.753   3.591   2.515
33006SOL    HW2  793   0.686   3.639   2.642
33007SOL     OW  794  13.398  13.765  13.238
33007SOL    HW1  795  13.414  13.723  13.323
33007SOL    HW2  796  13.314  13.730  13.209
33008SOL     OW  797  12.583   1.626   9.426
33008SOL    HW1  798  12.610   1.589   9.342
33008SOL    HW2  799  12.569   1.719   9.407
33009SOL     OW  800   5.473  12.597   1.894
33009SOL    HW1  801   5.433  12.611   1.979
33009SOL    HW2  802   5.527  12.674   1.880
33010SOL     OW  803   8.475   2.159   5.953
33010SOL    HW1  804   8.546   2.095   5.962
33010SOL    HW2  805   8.431   2.158   6.038
33011SOL     OW  806   0.745  10.883   2.349
33011SOL    HW1  807   0.792  10.866   2.268
33011SOL    HW2  808   0.663  10.924   2.322
33012SOL     OW  809   0.061  12.915   0.306
33012SOL    HW1  810   0.107  12.871   0.378
33012SOL    HW2  811  14.855  12.941   0.344
33013SOL     OW  812  14.333  13.919   7.256
33013SOL    HW1  813  14.299  13.858   7.190
33013SOL    HW2  814  14.423  13.937   7.228
33014SOL     OW  815   2.574  10.686   3.860
33014SOL    HW1  816   2.516  10.759   3.880
33014SOL    HW2  817   2.584  10.640   3.944
33015SOL     OW  818   0.777   2.808  13.399
33015SOL    HW1  819   0.712   2.737  13.401
33015SOL    HW2  820   0.747   2.869  13.466
33016SOL     OW  821   2.017   9.058   3.608
33016SOL    HW1  822   1.981   9.114   3.538
33016SOL    HW2  823   1.970   8.976   3.599
33017SOL     OW  824   5.982   0.321   4.028
33017SOL    HW1  825   6.059   0.375   4.012
33017SOL    HW2  826   5.956   0.343   4.118
33018SOL     OW  827   3.805   5.076  11.559
33018SOL    HW1  828   3.737   5.025  11.516
33018SOL    HW2  829   3.885   5.024  11.548
33019SOL     OW  830   8.342   7.107   5.020
33019SOL    HW1  831   8.267   7.130   5.074
33019SOL    HW2  832   8.369   7.190   4.980
33020SOL     OW  833   8.981   3.179   3.458
33020SOL    HW1  834   9.010   3.249   3.399
33020SOL    HW2  835   9.042   3.107   3.441
33021SOL     OW  836   6.316   4.172  12.523
33021SOL    HW1  837   6.304   4.108  12.453
33021SOL    HW2  838   6.277   4.252  12.489
33022SOL     OW  839  10.977   5.016   1.185
33022SOL    HW1  840  10.914   4.944   1.183
33022SOL    HW2  841  11.046   4.985   1.244
33023SOL     OW  842  11.533  12.108   6.412
33023SOL    HW1  843  11.555  12.179   6.351
33023SOL    HW2  844  11.614  12.058   6.421
33024SOL     OW  845   7.549   1.978   4.929
33024SOL    HW1  846   7.530   2.035   4.854
33024SOL    HW2  847   7.491   1.902   4.916
33025SOL     OW  848  12.238   8.873   0.381
33025SOL    HW1  849  12.297   8.902   0.311
33025SOL    HW2  850  12.152   8.868   0.339
33026SOL     OW  851   0.177   5.245   0.300
33026SOL    HW1  852   0.121   5.253   0.378
33026SOL    HW2  853   0.244   5.182   0.325
33027SOL     OW  854   2.047   6.109   6.688
33027SOL    HW1  855   2.060   6.188   6.635
33027SOL    HW2  856   1.999   6.050   6.631
33028SOL     OW  857   6.330   2.513  10.446
33028SOL    HW1  858   6.285   2.560  10.376
33028SOL    HW2  859   6.308   2.562  10.525
33029SOL     OW  860   6.237  11.824   3.768
33029SOL    HW1  861   6.256  11.791   3.681
33029SOL    HW2  862   6.250  11.918   3.762
33030SOL     OW  863   9.469   6.938   2.944
33030SOL    HW1  864   9.414   6.925   2.867
33030SOL    HW2  865   9.556   6.909   2.917
33031SOL     OW  866  14.615  11.330   3.175
33031SOL    HW1  867  14.621  11.244   3.132
33031SOL    HW2  868  14.705  11.350   3.200
33032SOL     OW  869  13.887   0.745   0.949
33032SOL    HW1  870  13.919   0.834   0.932
33032SOL    HW2  871  13.941   0.689   0.894
33033SOL     OW  872  13.706   7.768   3.295
33033SOL    HW1  873  13.670   7.728   3.374
33033SOL    HW2  874  13.797   7.788   3.318
33034SOL     OW  875   5.127  11.080   7.859
33034SOL    HW1  876   5.085  11.132   7.791
33034SOL    HW2  877   5.128  11.137   7.936
33035SOL     OW  878  10.825  12.556  14.493
33035SOL    HW1  879  10.831  12.471  14.448
33035SOL    HW2  880  10.831  12.620  14.422
33036SOL     OW  881   8.769   8.079   0.420
33036SOL    HW1  882   8.814   8.093   0.503
33036SOL    HW2  883   8.839   8.077   0.355
33037SOL     OW  884   7.584   7.258   2.415
33037SOL    HW1  885   7.549   7.278   2.328
33037SOL    HW2  886   7.615   7.342   2.448
33038SOL     OW  887  12.162   1.754   8.383
33038SOL    HW1  888  12.232   1.692   8.404
33038SOL    HW2  889  12.084   1.716   8.424
33039SOL     OW  890   5.170   2.598   1.800
33039SOL    HW1  891   5.106   2.644   1.747
33039SOL    HW2  892   5.159   2.634   1.888
33040SOL     OW  893   0.631   5.825   1.945
33040SOL    HW1  894   0.546   5.850   1.909
33040SOL    HW2  895   0.675   5.780   1.873
33041SOL     OW  896   9.946  13.721   8.776
33041SOL    HW1  897   9.952  13.781   8.702
33041SOL    HW2  898  10.029  13.732   8.823
33042SOL     OW  899   1.610   4.339   4.528
33042SOL    HW1  900   1.569   4.336   4.442
33042SOL    HW2  901   1.652   4.425   4.531
33043SOL     OW  902   9.337   7.353   5.655
33043SOL    HW1  903   9.253   7.309   5.641
33043SOL    HW2  904   9.313   7.437   5.695
33044SOL     OW  905   4.114   7.911   0.767
33044SOL    HW1  906   4.209   7.904   0.762
33044SOL    HW2  907   4.081   7.845   0.706
33045SOL     OW  908   9.541  12.454   9.615
33045SOL    HW1  909   9.628  12.450   9.576
33045SOL    HW2  910   9.497  12.527   9.570
33046SOL     OW  911   9.437   5.936   9.743
33046SOL    HW1  912   9.427   5.881   9.820
33046SOL    HW2  913   9.401   5.883   9.671
33047SOL     OW  914  13.137   8.038   9.197
33047SOL    HW1  915  13.186   8.101   9.250
33047SOL    HW2  916  13.140   7.956   9.248
33048SOL     OW  917  10.794   7.029   4.367
33048SOL    HW1  918  10.730   7.058   4.431
33048SOL    HW2  919  10.829   6.948   4.404
33049SOL     OW  920   7.176   7.213   4.503
33049SOL    HW1  921   7.247   7.264   4.542
33049SOL    HW2  922   7.219   7.139   4.461
33050SOL     OW  923   0.136  13.937   2.807
33050SOL    HW1  924   0.112  13.844   2.804
33050SOL    HW2  925   0.223  13.940   2.767
33051SOL     OW  926  13.250   4.106   8.467
33051SOL    HW1  927  13.186   4.161   8.513
33051SOL    HW2  928  13.201   4.068   8.395
33052SOL     OW  929   4.575   3.189  13.999
33052SOL    HW1  930   4.541   3.170  14.086
33052SOL    HW2  931   4.596   3.283  14.001
33053SOL     OW  932   6.957  11.241   9.515
33053SOL    HW1  933   6.879  11.189   9.533
33053SOL    HW2  934   7.024  11.207   9.575
33054SOL     OW  935   6.966   6.480   0.368
33054SOL    HW1  936   6.889   6.533   0.349
33054SOL    HW2  937   7.030   6.542   0.404
33055SOL     OW  938  11.787   7.217  14.365
33055SOL    HW1  939  11.813   7.128  14.342
33055SOL    HW2  940  11.732   7.206  14.443
33056SOL     OW  941   6.339  14.638  11.806
33056SOL    HW1  942   6.323  14.730  11.786
33056SOL    HW2  943   6.301  14.626  11.893
33057SOL     OW  944   7.655  10.397  13.011
33057SOL    HW1  945   7.663  10.371  13.102
33057SOL    HW2  946   7.561  10.392  12.993
33058SOL     OW  947   2.623   1.689  10.322
33058SOL    HW1  948   2.560   1.641  10.269
33058SOL    HW2  949   2.661   1.753  10.262
33059SOL     OW  950   9.865  10.318   6.274
33059SOL    HW1  951   9.905  10.346   6.357
33059SOL    HW2  952   9.935  10.273   6.227
33060SOL     OW  953   4.571  12.801  13.739
33060SOL    HW1  954   4.525  12.800  13.823
33060SOL    HW2  955   4.577  12.709  13.714
33061SOL     OW  956   5.756   3.871  10.699
33061SOL    HW1  957   5.776   3.783  10.729
33061SOL    HW2  958   5.661   3.873  10.690
33062SOL     OW  959   6.083   3.411   7.381
33062SOL    HW1  960   6.087   3.456   7.296
33062SOL    HW2  961   6.065   3.481   7.444
33063SOL     OW  962   9.265   4.967   4.149
33063SOL    HW1  963   9.302   4.880   4.162
33063SOL    HW2  964   9.335   5.027   4.175
33064SOL     OW  965   9.142   7.969  12.120
33064SOL    HW1  966   9.105   8.037  12.176
33064SOL    HW2  967   9.135   7.889  12.171
33065SOL     OW  968  10.115  11.822   7.848
33065SOL    HW1  969  10.057  11.842   7.921
33065SOL    HW2  970  10.189  11.777   7.887
33066SOL     OW  971   8.717   4.725   0.080
33066SOL    HW1  972   8.799   4.682   0.105
33066SOL    HW2  973   8.683   4.761   0.162
33067SOL     OW  974  12.505   0.348  14.133
33067SOL    HW1  975  12.458   0.266  14.147
33067SOL    HW2  976  12.442   0.404  14.088
33068SOL     OW  977   1.264  13.941  12.497
33068SOL    HW1  978   1.272  13.988  12.580
33068SOL    HW2  979   1.173  13.954  12.472
33069SOL     OW  980  12.751   3.423   9.039
33069SOL    HW1  981  12.742   3.503   8.986
33069SOL    HW2  982  12.713   3.354   8.985
33070SOL     OW  983   8.672  14.235  13.018
33070SOL    HW1  984   8.679  14.305  12.953
33070SOL    HW2  985   8.602  14.263  13.077
33071SOL     OW  986   4.649  11.841   5.095
33071SOL    HW1  987   4.685  11.847   5.184
33071SOL    HW2  988   4.723  11.859   5.038
33072SOL     OW  989   0.059  11.311  11.802
33072SOL    HW1  990   0.109  11.350  11.873
33072SOL    HW2  991   0.111  11.236  11.773
33073SOL     OW  992  10.786   4.667   6.155
33073SOL    HW1  993  10.818   4.757   6.152
33073SOL    HW2  994  10.823   4.631   6.235
33074SOL     OW  995   0.153  11.469   4.950
33074SOL    HW1  996   0.088  11.438   4.888
33074SOL    HW2  997   0.106  11.530   5.007
33075SOL     OW  998  14.794   4.337   2.346
33075SOL    HW1  999  14.823   4.371   2.261
33075SOL    HW2 1000  14.715   4.287   2.326
33076SOL     OW 1001   8.945  11.024  10.882
33076SOL    HW1 1002   8.945  10.933  10.851
33076SOL    HW2 1003   8.882  11.025  10.954
33077SOL     OW 1004   9.556  13.140   2.882
33077SOL    HW1 1005   9.489  13.097   2.935
33077SOL    HW2 1006   9.639  13.113   2.922
33078SOL     OW 1007  10.827  13.041   2.626
33078SOL    HW1 1008  10.857  12.964   2.577
33078SOL    HW2 1009  10.861  13.026   2.715
33079SOL     OW 1010  11.346  14.643   3.853
33079SOL    HW1 1011  11.288  14.588   3.800
33079SOL    HW2 1012  11.289  14.677   3.923
33080SOL     OW 1013   8.522   3.883   6.828
33080SOL    HW1 1014   8.476   3.798   6.827
33080SOL    HW2 1015   8.469   3.938   6.885
33081SOL     OW 1016   1.735   9.468  12.713
33081SOL    HW1 1017   1.822   9.508  12.720
33081SOL    HW2 1018   1.739   9.418  12.631
33082SOL     OW 1019   7.685   3.248   3.624
33082SOL    HW1 1020   7.599   3.205   3.632
33082SOL    HW2 1021   7.740   3.202   3.688
33083SOL     OW 1022   6.380   7.898  13.095
33083SOL    HW1 1023   6.367   7.978  13.146
33083SOL    HW2 1024   6.305   7.842  13.117
33084SOL     OW 1025   1.803   7.367   5.368
33084SOL    HW1 1026   1.879   7.419   5.341
33084SOL    HW2 1027   1.818   7.349   5.461
33085SOL     OW 1028   3.242   7.702  14.386
33085SOL    HW1 1029   3.246   7.798  14.383
33085SOL    HW2 1030   3.219   7.677  14.296
33086SOL     OW 1031   5.934   6.110  13.699
33086SOL    HW1 1032   5.850   6.150  13.677
33086SOL    HW2 1033   5.946   6.042  13.632
33087SOL     OW 1034   2.948  11.667  14.377
33087SOL    HW1 1035   2.913  11.672  14.466
33087SOL    HW2 1036   2.896  11.598  14.335
33088SOL     OW 1037  14.119   8.372  14.667
33088SOL    HW1 1038  14.033   8.331  14.665
33088SOL    HW2 1039  14.145   8.377  14.575
33089SOL     OW 1040  13.531   1.875   2.909
33089SOL    HW1 1041  13.535   1.834   2.995
33089SOL    HW2 1042  13.613   1.923   2.902
33090SOL     OW 1043  14.405   0.056   7.339
33090SOL    HW1 1044  14.377  14.842   7.350
33090SOL    HW2 1045  14.324   0.106   7.348
33091SOL     OW 1046   2.904   5.572   9.459
33091SOL    HW1 1047   2.880   5.527   9.540
33091SOL    HW2 1048   2.869   5.661   9.470
33092SOL     OW 1049   0.845   9.367   1.962
33092SOL    HW1 1050   0.859   9.361   1.867
33092SOL    HW2 1051   0.838   9.461   1.979
33093SOL     OW 1052  10.053   9.431  11.489
33093SOL    HW1 1053  10.122   9.412  11.553
33093SOL    HW2 1054  10.099   9.455  11.409
33094SOL     OW 1055   1.949   3.244  12.354
33094SOL    HW1 1056   1.958   3.149  12.355
33094SOL    HW2 1057   1.904   3.263  12.272
33095SOL     OW 1058   9.889   4.508   3.183
33095SOL    HW1 1059   9.851   4.441   3.239
33095SOL    HW2 1060   9.980   4.479   3.171
33096SOL     OW 1061   9.759   2.697   1.924
33096SOL    HW1 1062   9.726   2.624   1.977
33096SOL    HW2 1063   9.686   2.760   1.923
33097SOL     OW 1064  12.369   4.343  13.264
33097SOL    HW1 1065  12.381   4.296  13.182
33097SOL    HW2 1066  12.408   4.429  13.249
33098SOL     OW 1067   3.506   4.084   5.228
33098SOL    HW1 1068   3.416   4.066   5.253
33098SOL    HW2 1069   3.557   4.013   5.268
33099SOL     OW 1070  11.640  11.383  14.537
33099SOL    HW1 1071  11.708  11.344  14.482
33099SOL    HW2 1072  11.597  11.309  14.579
33100SOL     OW 1073   3.492  14.532  13.308
33100SOL    HW1 1074   3.481  14.623  13.335
33100SOL    HW2 1075   3.407  14.507  13.274
33101SOL     OW 1076   3.657   3.058   4.096
33101SOL    HW1 1077   3.566   3.043   4.070
33101SOL    HW2 1078   3.690   3.121   4.033
33102SOL     OW 1079   0.348  10.909  12.245
33102SOL    HW1 1080   0.434  10.878  12.217
33102SOL    HW2 1081   0.308  10.943  12.165
33103SOL     OW 1082  14.411   8.035   1.398
33103SOL    HW1 1083  14.352   7.972   1.439
33103SOL    HW2 1084  14.461   7.983   1.335
33104SOL     OW 1085   1.643  11.301   7.512
33104SOL    HW1 1086   1.644  11.320   7.418
33104SOL    HW2 1087   1.553  11.318   7.539
33105SOL     OW 1088   8.005   9.801   0.012
33105SOL    HW1 1089   8.087   9.766   0.045
33105SOL    HW2 1090   8.010   9.895   0.031
33106SOL     OW 1091   4.679   6.244   2.096
33106SOL    HW1 1092   4.711   6.317   2.149
33106SOL    HW2 1093   4.714   6.166   2.140
33107SOL     OW 1094   6.811   1.535  14.653
33107SOL    HW1 1095   6.906   1.527  14.661
33107SOL    HW2 1096   6.794   1.529  14.559
33108SOL     OW 1097  13.642   7.224  11.888
33108SOL    HW1 1098  13.601   7.292  11.940
33108SOL    HW2 1099  13.736   7.235  11.904
33109SOL     OW 1100   7.763  10.326   0.403
33109SOL    HW1 1101   7.839  10.267   0.404
33109SOL    HW2 1102   7.775  10.379   0.482
33110SOL     OW 1103  13.744   5.798   0.342
33110SOL    HW1 1104  13.810   5.728   0.342
33110SOL    HW2 1105  13.720   5.808   0.434
33111SOL     OW 1106   2.399   1.456  11.482
33111SOL    HW1 1107   2.351   1.386  11.438
33111SOL    HW2 1108   2.431   1.511  11.410
33112SOL     OW 1109  14.389  10.782   9.704
33112SOL    HW1 1110  14.438  10.822   9.632
33112SOL    HW2 1111  14.455  10.756   9.768
33113SOL     OW 1112   9.516   6.911   5.060
33113SOL    HW1 1113   9.522   7.003   5.032
33113SOL    HW2 1114   9.444   6.910   5.124
33114SOL     OW 1115   7.435   5.538   5.870
33114SOL    HW1 1116   7.521   5.535   5.912
33114SOL    HW2 1117   7.388   5.462   5.905
33115SOL     OW 1118   9.812  14.230   2.096
33115SOL    HW1 1119   9.779  14.318   2.078
33115SOL    HW2 1120   9.822  14.190   2.010
33116SOL     OW 1121   0.791   3.153  14.591
33116SOL    HW1 1122   0.734   3.230  14.586
33116SOL    HW2 1123   0.860   3.178  14.652
33117SOL     OW 1124   7.787   5.295   3.029
33117SOL    HW1 1125   7.835   5.291   3.111
33117SOL    HW2 1126   7.721   5.226   3.037
33118SOL     OW 1127   0.472   8.919   0.676
33118SOL    HW1 1128   0.429   8.867   0.744
33118SOL    HW2 1129   0.401   8.958   0.626
33119SOL     OW 1130   0.762   0.129  12.610
33119SOL    HW1 1131   0.782   0.148  12.701
33119SOL    HW2 1132   0.687   0.185  12.589
33120SOL     OW 1133   9.148   7.367   3.470
33120SOL    HW1 1134   9.197   7.386   3.390
33120SOL    HW2 1135   9.103   7.448   3.491
33121SOL     OW 1136   4.798  11.717   2.757
33121SOL    HW1 1137   4.726  11.690   2.814
33121SOL    HW2 1138   4.809  11.644   2.696
33122SOL     OW 1139   3.633   5.028   5.228
33122SOL    HW1 1140   3.666   5.118   5.234
33122SOL    HW2 1141   3.541   5.035   5.254
33123SOL     OW 1142   5.318   5.268   0.887
33123SOL    HW1 1143   5.364   5.345   0.920
33123SOL    HW2 1144   5.315   5.208   0.961
33124SOL     OW 1145   6.328  11.692   0.101
33124SOL    HW1 1146   6.377  11.672   0.181
33124SOL    HW2 1147   6.240  11.714   0.132
33125SOL     OW 1148   2.190   8.672   3.551
33125SOL    HW1 1149   2.165   8.733   3.481
33125SOL    HW2 1150   2.270   8.710   3.588
33126SOL     OW 1151   6.456   3.269   4.019
33126SOL    HW1 1152   6.449   3.185   4.064
33126SOL    HW2 1153   6.387   3.323   4.057
33127SOL     OW 1154  12.207  11.602   1.570
33127SOL    HW1 1155  12.221  11.676   1.629
33127SOL    HW2 1156  12.153  11.541   1.621
33128SOL     OW 1157   9.402   1.215  12.628
33128SOL    HW1 1158   9.332   1.279  12.614
33128SOL    HW2 1159   9.377   1.171  12.709
33129SOL     OW 1160   8.271   0.930  11.282
33129SOL    HW1 1161   8.301   0.937  11.373
33129SOL    HW2 1162   8.297   0.842  11.255
33130SOL     OW 1163   0.859   0.522  10.287
33130SOL    HW1 1164   0.808   0.505  10.208
33130SOL    HW2 1165   0.842   0.613  10.308
33131SOL     OW 1166  13.720  10.209   3.142
33131SOL    HW1 1167  13.812  10.235   3.128
33131SOL    HW2 1168  13.690  10.269   3.211
33132SOL     OW 1169   9.342   2.380   9.916
33132SOL    HW1 1170   9.348   2.330   9.834
33132SOL    HW2 1171   9.346   2.472   9.888
33133SOL     OW 1172  12.800  14.856   7.852
33133SOL    HW1 1173  12.722  14.876   7.801
33133SOL    HW2 1174  12.822   0.059   7.897
33134SOL     OW 1175   9.071   7.485   7.718
33134SOL    HW1 1176   9.116   7.508   7.798
33134SOL    HW2 1177   9.140   7.472   7.653
33135SOL     OW 1178   2.797   8.258  11.777
33135SOL    HW1 1179   2.846   8.283  11.699
33135SOL    HW2 1180   2.754   8.176  11.753
33136SOL     OW 1181   4.353   8.924   0.428
33136SOL    HW1 1182   4.358   8.899   0.520
33136SOL    HW2 1183   4.281   8.987   0.425
33137SOL     OW 1184   3.749   0.329   6.873
33137SOL    HW1 1185   3.796   0.288   6.801
33137SOL    HW2 1186   3.676   0.269   6.890
33138SOL     OW 1187  10.279   8.930   9.357
33138SOL    HW1 1188  10.264   8.918   9.451
33138SOL    HW2 1189  10.225   8.863   9.315
33139SOL     OW 1190   9.221  12.858   2.397
33139SOL    HW1 1191   9.182  12.857   2.484
33139SOL    HW2 1192   9.316  12.860   2.414
33140SOL     OW 1193  12.295   7.068   1.143
33140SOL    HW1 1194  12.327   7.094   1.056
33140SOL    HW2 1195  12.207   7.104   1.148
33141SOL     OW 1196  12.806   8.541   3.255
33141SOL    HW1 1197  12.717   8.520   3.227
33141SOL    HW2 1198  12.839   8.461   3.295
33142SOL     OW 1199   8.343   7.927   3.220
33142SOL    HW1 1200   8.249   7.945   3.222
33142SOL    HW2 1201   8.384   8.014   3.211
33143SOL     OW 1202   4.008  11.661  10.843
33143SOL    HW1 1203   3.939  11.699  10.789
33143SOL    HW2 1204   3.964  11.589  10.889
33144SOL     OW 1205   0.605   9.651   3.538
33144SOL    HW1 1206   0.591   9.629   3.630
33144SOL    HW2 1207   0.688   9.699   3.538
33145SOL     OW 1208   3.554   3.613   1.465
33145SOL    HW1 1209   3.571   3.533   1.514
33145SOL    HW2 1210   3.494   3.587   1.395
33146SOL     OW 1211  13.067   3.686  12.783
33146SOL    HW1 1212  13.113   3.616  12.737
33146SOL    HW2 1213  13.136   3.742  12.818
33147SOL     OW 1214   1.215  11.003  14.131
33147SOL    HW1 1215   1.154  10.956  14.074
33147SOL    HW2 1216   1.263  11.062  14.073
33148SOL     OW 1217  14.028  14.071  11.061
33148SOL    HW1 1218  14.078  14.138  11.107
33148SOL    HW2 1219  13.958  14.118  11.017
33149SOL     OW 1220   4.145   0.868   8.392
33149SOL    HW1 1221   4.164   0.794   8.334
33149SOL    HW2 1222   4.055   0.893   8.371
33150SOL     OW 1223  14.165   7.728  12.556
33150SOL    HW1 1224  14.183   7.821  12.540
33150SOL    HW2 1225  14.078   7.728  12.598
33151SOL     OW 1226  13.773  14.513  12.150
33151SOL    HW1 1227  13.861  14.548  12.141
33151SOL    HW2 1228  13.767  14.445  12.082
33152SOL     OW 1229   2.238   7.412   6.684
33152SOL    HW1 1230   2.232   7.400   6.589
33152SOL    HW2 1231   2.262   7.326   6.718
33153SOL     OW 1232  13.020  13.759   1.876
33153SOL    HW1 1233  13.089  13.824   1.861
33153SOL    HW2 1234  12.944  13.811   1.904
33154SOL     OW 1235   5.861   5.698  10.179
33154SOL    HW1 1236   5.926   5.684  10.247
33154SOL    HW2 1237   5.791   5.747  10.222
33155SOL     OW 1238   9.049  11.446   0.403
33155SOL    HW1 1239   9.116  11.377   0.396
33155SOL    HW2 1240   8.966  11.398   0.403
33156SOL     OW 1241   7.166  14.731  14.177
33156SOL    HW1 1242   7.110  14.799  14.140
33156SOL    HW2 1243   7.180  14.758  14.268
33157SOL     OW 1244   4.588  10.258   8.789
33157SOL    HW1 1245   4.552  10.254   8.701
33157SOL    HW2 1246   4.671  10.211   8.783
33158SOL     OW 1247   2.475   0.657   1.301
33158SOL    HW1 1248   2.527   0.693   1.373
33158SOL    HW2 1249   2.457   0.567   1.328
33159SOL     OW 1250  11.122  13.955   5.360
33159SOL    HW1 1251  11.213  13.952   5.390
33159SOL    HW2 1252  11.114  14.039   5.316
33160SOL     OW 1253  11.158   7.675  13.508
33160SOL    HW1 1254  11.190   7.729  13.435
33160SOL    HW2 1255  11.079   7.633  13.473
33161SOL     OW 1256  12.670   0.595   3.751
33161SOL    HW1 1257  12.706   0.677   3.717
33161SOL    HW2 1258  12.739   0.531   3.736
33162SOL     OW 1259   0.065   5.613  14.015
33162SOL    HW1 1260   0.076   5.536  14.071
33162SOL    HW2 1261   0.119   5.594  13.938
33163SOL     OW 1262   6.643  13.256   6.759
33163SOL    HW1 1263   6.673  13.225   6.674
33163SOL    HW2 1264   6.561  13.209   6.774
33164SOL     OW 1265   8.622  11.324  14.060
33164SOL    HW1 1266   8.607  11.419  14.059
33164SOL    HW2 1267   8.633  11.301  13.967
33165SOL     OW 1268   2.240   5.546  13.105
33165SOL    HW1 1269   2.254   5.503  13.021
33165SOL    HW2 1270   2.204   5.478  13.161
33166SOL     OW 1271  10.185   2.538  12.935
33166SOL    HW1 1272  10.202   2.550  13.029
33166SOL    HW2 1273  10.125   2.609  12.912
33167SOL     OW 1274   7.864   4.609   9.763
33167SOL    HW1 1275   7.801   4.553   9.808
33167SOL    HW2 1276   7.852   4.695   9.803
33168SOL     OW 1277   7.253  11.750  13.642
33168SOL    HW1 1278   7.223  11.665  13.673
33168SOL    HW2 1279   7.174  11.804  13.638
33169SOL     OW 1280  13.624   7.156   6.238
33169SOL    HW1 1281  13.714   7.149   6.206
33169SOL    HW2 1282  13.634   7.179   6.330
33170SOL     OW 1283  12.933  10.104   7.358
33170SOL    HW1 1284  12.913  10.174   7.421
33170SOL    HW2 1285  12.988  10.146   7.293
33171SOL     OW 1286   4.727   0.370   7.901
33171SOL    HW1 1287   4.782   0.333   7.833
33171SOL    HW2 1288   4.674   0.437   7.856
33172SOL     OW 1289  10.031   9.618   7.300
33172SOL    HW1 1290   9.994   9.593   7.216
33172SOL    HW2 1291  10.071   9.703   7.285
33173SOL     OW 1292   5.387   6.907   0.344
33173SOL    HW1 1293   5.299   6.943   0.343
33173SOL    HW2 1294   5.384   6.831   0.286
33174SOL     OW 1295  13.834   0.784   7.437
33174SOL    HW1 1296  13.753   0.762   7.483
33174SOL    HW2 1297  13.886   0.703   7.440
33175SOL     OW 1298   8.391  10.546  11.707
33175SOL    HW1 1299   8.485  10.529  11.715
33175SOL    HW2 1300   8.353  10.509  11.787
33176SOL     OW 1301   7.700  12.866   8.014
33176SOL    HW1 1302   7.725  12.816   8.092
33176SOL    HW2 1303   7.625  12.818   7.979
33177SOL     OW 1304  11.240   8.016   3.075
33177SOL    HW1 1305  11.149   8.045   3.068
33177SOL    HW2 1306  11.250   7.950   3.006
33178SOL     OW 1307  10.870   4.964  12.383
33178SOL    HW1 1308  10.830   5.029  12.442
33178SOL    HW2 1309  10.812   4.888  12.387
33179SOL     OW 1310   4.139  11.297   4.985
33179SOL    HW1 1311   4.048  11.327   4.986
33179SOL    HW2 1312   4.133  11.202   4.973
33180SOL     OW 1313  10.920   6.397   0.362
33180SOL    HW1 1314  10.840   6.366   0.406
33180SOL    HW2 1315  10.988   6.388   0.428
33181SOL     OW 1316   0.640   5.788  10.135
33181SOL    HW1 1317   0.639   5.716  10.072
33181SOL    HW2 1318   0.593   5.859  10.091
33182SOL     OW 1319   1.019  14.002   7.056
33182SOL    HW1 1320   0.960  13.939   7.014
33182SOL    HW2 1321   1.070  13.950   7.118
33183SOL     OW 1322   5.359   2.149   7.729
33183SOL    HW1 1323   5.273   2.185   7.750
33183SOL    HW2 1324   5.357   2.060   7.763
33184SOL     OW 1325   4.768   3.940   9.374
33184SOL    HW1 1326   4.689   3.893   9.402
33184SOL    HW2 1327   4.817   3.876   9.322
33185SOL     OW 1328   9.899   4.743  13.769
33185SOL    HW1 1329   9.874   4.829  13.733
33185SOL    HW2 1330   9.994   4.748  13.780
33186SOL     OW 1331   9.308   1.902   4.964
33186SOL    HW1 1332   9.249   1.938   5.031
33186SOL    HW2 1333   9.274   1.814   4.948
33187SOL     OW 1334  10.596   4.670   0.743
33187SOL    HW1 1335  10.515   4.621   0.727
33187SOL    HW2 1336  10.598   4.681   0.838
33188SOL     OW 1337   5.436   0.366  14.687
33188SOL    HW1 1338   5.344   0.340  14.675
33188SOL    HW2 1339   5.483   0.318  14.620
33189SOL     OW 1340   6.718  14.429   6.950
33189SOL    HW1 1341   6.712  14.346   6.902
33189SOL    HW2 1342   6.804  14.425   6.993
33190SOL     OW 1343   9.570  10.685   1.168
33190SOL    HW1 1344   9.476  10.693   1.185
33190SOL    HW2 1345   9.611  10.698   1.253
33191SOL     OW 1346   0.824   9.290  13.973
33191SOL    HW1 1347   0.755   9.227  13.994
33191SOL    HW2 1348   0.831   9.345  14.050
33192SOL     OW 1349  13.079  11.489   1.904
33192SOL    HW1 1350  13.063  11.554   1.836
33192SOL    HW2 1351  13.132  11.422   1.860
33193SOL     OW 1352   6.886  13.178   2.565
33193SOL    HW1 1353   6.793  13.193   2.582
33193SOL    HW2 1354   6.906  13.097   2.613
33194SOL     OW 1355  13.954  13.191   9.576
33194SOL    HW1 1356  13.931  13.237   9.657
33194SOL    HW2 1357  14.044  13.160   9.591
33195SOL     OW 1358   7.478  11.281   4.315
33195SOL    HW1 1359   7.487  11.207   4.375
33195SOL    HW2 1360   7.403  11.259   4.260
33196SOL     OW 1361   7.487   9.785   0.439
33196SOL    HW1 1362   7.454   9.716   0.498
33196SOL    HW2 1363   7.515   9.855   0.498
33197SOL     OW 1364   4.028   8.729   9.394
33197SOL    HW1 1365   4.041   8.651   9.447
33197SOL    HW2 1366   4.086   8.795   9.433
33198SOL     OW 1367  11.898  13.747  13.344
33198SOL    HW1 1368  11.813  13.710  13.369
33198SOL    HW2 1369  11.961  13.703  13.401
33199SOL     OW 1370   3.363  11.684  11.601
33199SOL    HW1 1371   3.331  11.739  11.529
33199SOL    HW2 1372   3.370  11.744  11.676
33200SOL     OW 1373   6.181   0.990   8.123
33200SOL    HW1 1374   6.259   1.030   8.161
33200SOL    HW2 1375   6.178   0.902   8.162
33201SOL     OW 1376   7.970   5.781  10.268
33201SOL    HW1 1377   7.886   5.758  10.307
33201SOL    HW2 1378   8.035   5.745  10.328
33202SOL     OW 1379  13.267  12.319   1.436
33202SOL    HW1 1380  13.239  12.407   1.412
33202SOL    HW2 1381  13.224  12.301   1.520
33203SOL     OW 1382   7.976   4.398   9.083
33203SOL    HW1 1383   7.944   4.488   9.075
33203SOL    HW2 1384   8.047   4.404   9.146
33204SOL     OW 1385   7.012  11.883   2.595
33204SOL    HW1 1386   6.991  11.847   2.509
33204SOL    HW2 1387   6.982  11.816   2.657
33205SOL     OW 1388   2.313  12.054   1.541
33205SOL    HW1 1389   2.382  12.008   1.588
33205SOL    HW2 1390   2.257  11.984   1.507
33206SOL     OW 1391  14.452   7.159   5.065
33206SOL    HW1 1392  14.400   7.156   5.145
33206SOL    HW2 1393  14.444   7.250   5.035
33207SOL     OW 1394  13.117  11.140  13.860
33207SOL    HW1 1395  13.198  11.088  13.859
33207SOL    HW2 1396  13.146  11.228  13.839
33208SOL     OW 1397   7.019   0.700   5.283
33208SOL    HW1 1398   6.983   0.613   5.268
33208SOL    HW2 1399   7.008   0.715   5.377
33209SOL     OW 1400  14.553   9.705   3.776
33209SOL    HW1 1401  14.632   9.703   3.721
33209SOL    HW2 1402  14.499   9.634   3.741
33210SOL     OW 1403   8.804   3.032  11.532
33210SOL    HW1 1404   8.786   3.117  11.574
33210SOL    HW2 1405   8.879   3.049  11.475
33211SOL     OW 1406  14.415  10.015   6.913
33211SOL    HW1 1407  14.325   9.990   6.934
33211SOL    HW2 1408  14.467   9.939   6.938
33212SOL     OW 1409  13.521   6.573   6.019
33212SOL    HW1 1410  13.521   6.539   6.109
33212SOL    HW2 1411  13.585   6.644   6.020
33213SOL     OW 1412   3.717  10.157  10.332
33213SOL    HW1 1413   3.695  10.088  10.270
33213SOL    HW2 1414   3.648  10.222  10.321
33214SOL     OW 1415   8.131   8.107  12.289
33214SOL    HW1 1416   8.173   8.097  12.204
33214SOL    HW2 1417   8.173   8.183  12.329
33215SOL     OW 1418  13.675  10.230   1.349
33215SOL    HW1 1419  13.616  10.200   1.280
33215SOL    HW2 1420  13.736  10.158   1.363
33216SOL     OW 1421   4.284  11.124   9.496
33216SOL    HW1 1422   4.233  11.185   9.442
33216SOL    HW2 1423   4.235  11.042   9.492
33217SOL     OW 1424   4.156  10.887   9.474
33217SOL    HW1 1425   4.094  10.898   9.402
33217SOL    HW2 1426   4.105  10.847   9.544
33218SOL     OW 1427   4.943   3.657  11.982
33218SOL    HW1 1428   4.997   3.609  11.920
33218SOL    HW2 1429   4.854   3.652  11.946
33219SOL     OW 1430  13.048  10.665   1.907
33219SOL    HW1 1431  12.983  10.724   1.867
33219SOL    HW2 1432  13.009  10.641   1.991
33220SOL     OW 1433   8.797   1.277   2.720
33220SOL    HW1 1434   8.779   1.314   2.807
33220SOL    HW2 1435   8.711   1.262   2.682
33221SOL     OW 1436   8.035  12.545   2.729
33221SOL    HW1 1437   7.994  12.534   2.644
33221SOL    HW2 1438   8.045  12.456   2.763
33222SOL     OW 1439   6.710   4.542   2.017
33222SOL    HW1 1440   6.684   4.632   1.996
33222SOL    HW2 1441   6.770   4.550   2.091
33223SOL     OW 1442   1.803   8.651   5.341
33223SOL    HW1 1443   1.891   8.633   5.307
33223SOL    HW2 1444   1.765   8.564   5.357
33224SOL     OW 1445   6.610   4.746   6.742
33224SOL    HW1 1446   6.537   4.760   6.682
33224SOL    HW2 1447   6.648   4.834   6.754
33225SOL     OW 1448   5.485  13.419  12.359
33225SOL    HW1 1449   5.476  13.508  12.392
33225SOL    HW2 1450   5.435  13.365  12.421
33226SOL     OW 1451   5.952   4.362   9.739
33226SOL    HW1 1452   5.965   4.376   9.645
33226SOL    HW2 1453   5.962   4.268   9.750
33227SOL     OW 1454   6.095  11.150   5.847
33227SOL    HW1 1455   6.041  11.107   5.781
33227SOL    HW2 1456   6.182  11.110   5.837
33228SOL     OW 1457   1.325   4.322   8.503
33228SOL    HW1 1458   1.284   4.407   8.521
33228SOL    HW2 1459   1.286   4.293   8.421
33229SOL     OW 1460   2.482   7.054   5.285
33229SOL    HW1 1461   2.502   7.020   5.198
33229SOL    HW2 1462   2.399   7.100   5.274
33230SOL     OW 1463   9.187  12.999  13.376
33230SOL    HW1 1464   9.120  12.947  13.332
33230SOL    HW2 1465   9.165  13.090  13.355
33231SOL     OW 1466   8.529   9.205   5.236
33231SOL    HW1 1467   8.622   9.221   5.249
33231SOL    HW2 1468   8.503   9.150   5.310
33232SOL     OW 1469  11.048   1.756  13.307
33232SOL    HW1 1470  11.016   1.845  13.297
33232SOL    HW2 1471  11.014   1.728  13.392
33233SOL     OW 1472   6.701  12.069  14.869
33233SOL    HW1 1473   6.626  12.104   0.041
33233SOL    HW2 1474   6.673  11.982  14.842
33234SOL     OW 1475   6.963   1.310  11.220
33234SOL    HW1 1476   7.028   1.251  11.258
33234SOL    HW2 1477   6.895   1.253  11.185
33235SOL     OW 1478   8.116  10.533  13.746
33235SOL    HW1 1479   8.094  10.589  13.821
33235SOL    HW2 1480   8.210  10.520  13.753
33236SOL     OW 1481   1.941  11.054   6.767
33236SOL    HW1 1482   1.859  11.055   6.717
33236SOL    HW2 1483   1.915  11.026   6.855
33237SOL     OW 1484   3.579  14.843  13.962
33237SOL    HW1 1485   3.631   0.034  14.004
33237SOL    HW2 1486   3.489   0.000  13.962
33238SOL     OW 1487  13.218   7.959  10.881
33238SOL    HW1 1488  13.167   7.934  10.804
33238SOL    HW2 1489  13.237   7.877  10.926
33239SOL     OW 1490  10.266  12.468   6.575
33239SOL    HW1 1491  10.289  12.549   6.620
33239SOL    HW2 1492  10.296  12.398   6.633
33240SOL     OW 1493  13.837  14.249  10.967
33240SOL    HW1 1494  13.783  14.187  10.918
33240SOL    HW2 1495  13.780  14.282  11.036
33241SOL     OW 1496   4.437  11.578   5.275
33241SOL    HW1 1497   4.366  11.632   5.240
33241SOL    HW2 1498   4.419  11.573   5.369
33242SOL     OW 1499   8.838   4.754   9.775
33242SOL    HW1 1500   8.807   4.841   9.797
33242SOL    HW2 1501   8.921   4.768   9.729
33243SOL     OW 1502   9.017   2.249   1.826
33243SOL    HW1 1503   9.033   2.172   1.771
33243SOL    HW2 1504   9.068   2.232   1.905
33244SOL     OW 1505   3.970   7.160   0.939
33244SOL    HW1 1506   3.990   7.206   0.857
33244SOL    HW2 1507   4.001   7.070   0.924
33245SOL     OW 1508  10.892   0.758   8.354
33245SOL    HW1 1509  10.864   0.826   8.293
33245SOL    HW2 1510  10.877   0.796   8.441
33246SOL     OW 1511  14.864   5.667  10.536
33246SOL    HW1 1512   0.007   5.606  10.465
33246SOL    HW2 1513   0.067   5.715  10.551
33247SOL     OW 1514   8.726   4.884   5.939
33247SOL    HW1 1515   8.692   4.973   5.932
33247SOL    HW2 1516   8.732   4.868   6.033
33248SOL     OW 1517   0.300  11.215   5.575
33248SOL    HW1 1518   0.351  11.138   5.602
33248SOL    HW2 1519   0.218  11.207   5.623
33249SOL     OW 1520   9.200  14.421   7.771
33249SOL    HW1 1521   9.269  14.409   7.837
33249SOL    HW2 1522   9.193  14.337   7.727
33250SOL     OW 1523   0.664   8.221   3.896
33250SOL    HW1 1524   0.669   8.125   3.895
33250SOL    HW2 1525   0.578   8.240   3.933
33251SOL     OW 1526   7.290  12.182   8.391
33251SOL    HW1 1527   7.333  12.186   8.476
33251SOL    HW2 1528   7.314  12.097   8.356
33252SOL     OW 1529   0.678  10.796  11.064
33252SOL    HW1 1530   0.679  10.834  10.976
33252SOL    HW2 1531   0.684  10.870  11.123
33253SOL     OW 1532   4.847   7.959   3.588
33253SOL    HW1 1533   4.859   7.883   3.531
33253SOL    HW2 1534   4.918   7.951   3.653
33254SOL     OW 1535  14.816   3.790   4.189
33254SOL    HW1 1536   0.016   3.845   4.196
33254SOL    HW2 1537  14.842   3.706   4.226
33255SOL     OW 1538   0.208   1.369   4.741
33255SOL    HW1 1539   0.201   1.365   4.836
33255SOL    HW2 1540   0.270   1.439   4.724
33256SOL     OW 1541   8.211  11.311  11.910
33256SOL    HW1 1542   8.160  11.390  11.890
33256SOL    HW2 1543   8.271  11.339  11.979
33257SOL     OW 1544   9.928   4.161   4.071
33257SOL    HW1 1545   9.878   4.238   4.042
33257SOL    HW2 1546   9.917   4.097   4.000
33258SOL     OW 1547  13.354  13.416   8.350
33258SOL    HW1 1548  13.335  13.501   8.311
33258SOL    HW2 1549  13.270  13.386   8.385
33259SOL     OW 1550  10.494  11.501   8.822
33259SOL    HW1 1551  10.569  11.550   8.788
33259SOL    HW2 1552  10.525  11.462   8.904
33260SOL     OW 1553   7.874   3.227   2.069
33260SOL    HW1 1554   7.859   3.233   2.164
33260SOL    HW2 1555   7.809   3.163   2.039
33261SOL     OW 1556   9.287   1.843   7.985
33261SOL    HW1 1557   9.212   1.837   7.926
33261SOL    HW2 1558   9.300   1.937   7.997
33262SOL     OW 1559   1.500  13.398   5.887
33262SOL    HW1 1560   1.409  13.390   5.917
33262SOL    HW2 1561   1.552  13.376   5.963
33263SOL     OW 1562   5.108  12.640   5.690
33263SOL    HW1 1563   5.103  12.544   5.686
33263SOL    HW2 1564   5.198  12.660   5.665
33264SOL     OW 1565   2.425  12.801   2.219
33264SOL    HW1 1566   2.331  12.783   2.221
33264SOL    HW2 1567   2.433  12.894   2.237
33265SOL     OW 1568  12.901   9.029   4.544
33265SOL    HW1 1569  12.909   9.009   4.637
33265SOL    HW2 1570  12.814   9.068   4.536
33266SOL     OW 1571   3.815   3.480   3.859
33266SOL    HW1 1572   3.842   3.478   3.768
33266SOL    HW2 1573   3.871   3.546   3.900
33267SOL     OW 1574   8.654   7.204  14.283
33267SOL    HW1 1575   8.589   7.135  14.266
33267SOL    HW2 1576   8.672   7.242  14.197
33268SOL     OW 1577  10.724  10.980   1.588
33268SOL    HW1 1578  10.699  10.964   1.497
33268SOL    HW2 1579  10.819  10.967   1.589
33269SOL     OW 1580   1.641   7.890   4.792
33269SOL    HW1 1581   1.600   7.968   4.829
33269SOL    HW2 1582   1.598   7.878   4.707
33270SOL     OW 1583  11.188   5.556   4.002
33270SOL    HW1 1584  11.153   5.532   4.088
33270SOL    HW2 1585  11.133   5.510   3.939
33271SOL     OW 1586   0.574  13.633   0.106
33271SOL    HW1 1587   0.525  13.695   0.160
33271SOL    HW2 1588   0.625  13.582   0.169
33272SOL     OW 1589  13.921   7.570   6.411
33272SOL    HW1 1590  14.003   7.590   6.368
33272SOL    HW2 1591  13.880   7.655   6.428
33273SOL     OW 1592   8.930   9.305  11.850
33273SOL    HW1 1593   8.997   9.237  11.859
33273SOL    HW2 1594   8.853   9.270  11.896
33274SOL     OW 1595   5.102   2.318   2.025
33274SOL    HW1 1596   5.052   2.250   2.071
33274SOL    HW2 1597   5.193   2.291   2.035
33275SOL     OW 1598   6.931   1.589   6.257
33275SOL    HW1 1599   7.004   1.589   6.195
33275SOL    HW2 1600   6.941   1.507   6.306
33276SOL     OW 1601   6.775   9.296   5.940
33276SOL    HW1 1602   6.860   9.335   5.957
33276SOL    HW2 1603   6.779   9.210   5.983
33277SOL     OW 1604  12.905   0.401   1.922
33277SOL    HW1 1605  12.864   0.340   1.983
33277SOL    HW2 1606  12.841   0.413   1.853
33278SOL     OW 1607  14.637   9.133   0.883
33278SOL    HW1 1608  14.661   9.188   0.957
33278SOL    HW2 1609  14.541   9.130   0.887
33279SOL     OW 1610  13.923   7.946   8.802
33279SOL    HW1 1611  13.940   8.002   8.878
33279SOL    HW2 1612  13.828   7.950   8.791
33280SOL     OW 1613   4.281   6.520   3.068
33280SOL    HW1 1614   4.351   6.572   3.108
33280SOL    HW2 1615   4.326   6.443   3.033
33281SOL     OW 1616   6.270   3.280   1.699
33281SOL    HW1 1617   6.216   3.207   1.729
33281SOL    HW2 1618   6.208   3.349   1.675
33282SOL     OW 1619   3.035   4.729  14.401
33282SOL    HW1 1620   3.085   4.751  14.480
33282SOL    HW2 1621   2.985   4.651  14.424
33283SOL     OW 1622  12.504  10.409   0.148
33283SOL    HW1 1623  12.428  10.438   0.197
33283SOL    HW2 1624  12.570  10.390   0.215
33284SOL     OW 1625  12.116   6.006   7.953
33284SOL    HW1 1626  12.120   5.936   8.018
33284SOL    HW2 1627  12.035   6.053   7.973
33285SOL     OW 1628   7.505  13.120   2.184
33285SOL    HW1 1629   7.495  13.121   2.089
33285SOL    HW2 1630   7.587  13.073   2.200
33286SOL     OW 1631   4.209   7.929   0.220
33286SOL    HW1 1632   4.287   7.942   0.166
33286SOL    HW2 1633   4.241   7.933   0.310
33287SOL     OW 1634   0.874   9.108   1.233
33287SOL    HW1 1635   0.900   9.151   1.314
33287SOL    HW2 1636   0.948   9.051   1.212
33288SOL     OW 1637   6.763  12.218   3.210
33288SOL    HW1 1638   6.847  12.175   3.226
33288SOL    HW2 1639   6.718  12.161   3.149
33289SOL     OW 1640   5.182   8.638  10.515
33289SOL    HW1 1641   5.190   8.604  10.426
33289SOL    HW2 1642   5.157   8.730  10.503
33290SOL     OW 1643   5.324   6.404   8.056
33290SOL    HW1 1644   5.263   6.339   8.022
33290SOL    HW2 1645   5.270   6.462   8.110
33291SOL     OW 1646   2.626  11.734   5.546
33291SOL    HW1 1647   2.699  11.785   5.583
33291SOL    HW2 1648   2.622  11.762   5.455
33292SOL     OW 1649  13.734   5.943   1.864
33292SOL    HW1 1650  13.738   6.022   1.810
33292SOL    HW2 1651  13.643   5.917   1.861
33293SOL     OW 1652   9.159   7.210   4.131
33293SOL    HW1 1653   9.133   7.284   4.077
33293SOL    HW2 1654   9.244   7.183   4.096
33294SOL     OW 1655  11.677  14.309  12.531
33294SOL    HW1 1656  11.724  14.228  12.510
33294SOL    HW2 1657  11.600  14.280  12.579
33295SOL     OW 1658   9.045   5.590   7.078
33295SOL    HW1 1659   9.104   5.517   7.057
33295SOL    HW2 1660   9.053   5.600   7.173
33296SOL     OW 1661   1.349  12.921   5.502
33296SOL    HW1 1662   1.372  12.929   5.594
33296SOL    HW2 1663   1.353  13.010   5.468
33297SOL     OW 1664   9.664   9.962   4.514
33297SOL    HW1 1665   9.643   9.872   4.489
33297SOL    HW2 1666   9.586  10.013   4.493
33298SOL     OW 1667   6.436   8.352   1.131
33298SOL    HW1 1668   6.461   8.399   1.052
33298SOL    HW2 1669   6.479   8.267   1.123
33299SOL     OW 1670   6.668   8.687   5.998
33299SOL    HW1 1671   6.749   8.636   5.991
33299SOL    HW2 1672   6.609   8.646   5.934
33300SOL     OW 1673   7.954   7.029   3.720
33300SOL    HW1 1674   7.915   7.095   3.663
33300SOL    HW2 1675   8.041   7.062   3.741
33301SOL     OW 1676   0.379   3.238   3.335
33301SOL    HW1 1677   0.408   3.257   3.246
33301SOL    HW2 1678   0.459   3.216   3.382
33302SOL     OW 1679   5.480   0.087   6.405
33302SOL    HW1 1680   5.474  14.873   6.378
33302SOL    HW2 1681   5.467   0.086   6.500
33303SOL     OW 1682   9.167   4.851   9.395
33303SOL    HW1 1683   9.202   4.935   9.367
33303SOL    HW2 1684   9.131   4.812   9.316
33304SOL     OW 1685  11.747   7.856  11.646
33304SOL    HW1 1686  11.774   7.772  11.683
33304SOL    HW2 1687  11.652   7.860  11.661
33305SOL     OW 1688   5.019   6.428   4.063
33305SOL    HW1 1689   5.061   6.464   3.985
33305SOL    HW2 1690   5.090   6.383   4.109
33306SOL     OW 1691  13.139  14.291   8.792
33306SOL    HW1 1692  13.180  14.368   8.752
33306SOL    HW2 1693  13.188  14.217   8.756
33307SOL     OW 1694  12.307   9.454   8.707
33307SOL    HW1 1695  12.250   9.460   8.630
33307SOL    HW2 1696  12.302   9.541   8.748
33308SOL     OW 1697  10.282   2.544   8.643
33308SOL    HW1 1698  10.251   2.468   8.593
33308SOL    HW2 1699  10.207   2.603   8.647
33309SOL     OW 1700  13.721  10.767   8.682
33309SOL    HW1 1701  13.664  10.696   8.712
33309SOL    HW2 1702  13.805  10.724   8.665
33310SOL     OW 1703   6.344   5.160   2.775
33310SOL    HW1 1704   6.284   5.099   2.817
33310SOL    HW2 1705   6.412   5.177   2.841
33311SOL     OW 1706  11.597   4.815  14.651
33311SOL    HW1 1707  11.596   4.909  14.637
33311SOL    HW2 1708  11.575   4.804  14.744
33312SOL     OW 1709   9.492   5.979  11.532
33312SOL    HW1 1710   9.401   6.008  11.522
33312SOL    HW2 1711   9.485   5.887  11.555
33313SOL     OW 1712   7.796   6.418  11.089
33313SOL    HW1 1713   7.809   6.471  11.010
33313SOL    HW2 1714   7.736   6.349  11.061
33314SOL     OW 1715   3.006   2.013   3.942
33314SOL    HW1 1716   3.096   1.985   3.957
33314SOL    HW2 1717   2.972   2.032   4.030
33315SOL     OW 1718   4.343   1.265   8.319
33315SOL    HW1 1719   4.254   1.290   8.340
33315SOL    HW2 1720   4.389   1.347   8.303
33316SOL     OW 1721   6.074  11.004   0.709
33316SOL    HW1 1722   5.999  11.043   0.665
33316SOL    HW2 1723   6.078  10.914   0.677
33317SOL     OW 1724  14.334   7.512   7.932
33317SOL    HW1 1725  14.331   7.437   7.873
33317SOL    HW2 1726  14.423   7.513   7.967
33318SOL     OW 1727   3.584   0.517   7.563
33318SOL    HW1 1728   3.600   0.591   7.504
33318SOL    HW2 1729   3.672   0.485   7.586
33319SOL     OW 1730   3.978   4.186  13.891
33319SOL    HW1 1731   3.926   4.106  13.891
33319SOL    HW2 1732   4.068   4.155  13.882
33320SOL     OW 1733  11.886   5.493   7.232
33320SOL    HW1 1734  11.859   5.408   7.197
33320SOL    HW2 1735  11.838   5.557   7.179
33321SOL     OW 1736   8.484  14.454   4.668
33321SOL    HW1 1737   8.577  14.431   4.670
33321SOL    HW2 1738   8.476  14.516   4.596
33322SOL     OW 1739  11.709   3.786   4.828
33322SOL    HW1 1740  11.777   3.720   4.817
33322SOL    HW2 1741  11.716   3.813   4.919
33323SOL     OW 1742   8.028   3.378  10.051
33323SOL    HW1 1743   8.032   3.302   9.994
33323SOL    HW2 1744   7.961   3.357  10.116
33324SOL     OW 1745  10.431  14.736   9.242
33324SOL    HW1 1746  10.381  14.809   9.279
33324SOL    HW2 1747  10.464  14.770   9.159
33325SOL     OW 1748   9.436   0.823  13.501
33325SOL    HW1 1749   9.476   0.848  13.418
33325SOL    HW2 1750   9.357   0.774  13.475
33326SOL     OW 1751   6.023   4.059   1.865
33326SOL    HW1 1752   6.036   4.110   1.946
33326SOL    HW2 1753   6.090   4.092   1.806
33327SOL     OW 1754   6.925  11.634  13.611
33327SOL    HW1 1755   6.995  11.589  13.658
33327SOL    HW2 1756   6.958  11.643  13.522
33328SOL     OW 1757   0.097   4.699   0.400
33328SOL    HW1 1758   0.063   4.655   0.322
33328SOL    HW2 1759   0.094   4.792   0.379
33329SOL     OW 1760   7.504   2.664   1.544
33329SOL    HW1 1761   7.549   2.747   1.560
33329SOL    HW2 1762   7.461   2.676   1.460
33330SOL     OW 1763   6.458   0.591   8.339
33330SOL    HW1 1764   6.462   0.643   8.258
33330SOL    HW2 1765   6.549   0.569   8.358
33331SOL     OW 1766   6.028   5.073   6.368
33331SOL    HW1 1767   6.111   5.057   6.413
33331SOL    HW2 1768   6.002   5.160   6.398
33332SOL     OW 1769   9.971   0.103   2.062
33332SOL    HW1 1770   9.996   0.085   1.971
33332SOL    HW2 1771   9.928   0.188   2.059
33333SOL     OW 1772  13.007   0.552   0.454
33333SOL    HW1 1773  13.042   0.522   0.538
33333SOL    HW2 1774  12.963   0.634   0.474
33334SOL     OW 1775  10.787   0.135   1.023
33334SOL    HW1 1776  10.852   0.124   0.953
33334SOL    HW2 1777  10.827   0.198   1.083
33335SOL     OW 1778   5.247  14.124   3.339
33335SOL    HW1 1779   5.307  14.058   3.375
33335SOL    HW2 1780   5.258  14.200   3.396
33336SOL     OW 1781  10.689   5.649   9.106
33336SOL    HW1 1782  10.601   5.648   9.144
33336SOL    HW2 1783  10.709   5.557   9.089
33337SOL     OW 1784   6.780   0.869  12.109
33337SOL    HW1 1785   6.787   0.851  12.203
33337SOL    HW2 1786   6.806   0.787  12.067
33338SOL     OW 1787  14.192  13.741   2.136
33338SOL    HW1 1788  14.215  13.819   2.085
33338SOL    HW2 1789  14.237  13.669   2.091
33339SOL     OW 1790   6.230  12.104  13.834
33339SOL    HW1 1791   6.205  12.132  13.922
33339SOL    HW2 1792   6.252  12.011  13.843
33340SOL     OW 1793  12.013  13.285   3.969
33340SOL    HW1 1794  12.078  13.265   4.036
33340SOL    HW2 1795  11.929  13.276   4.013
33341SOL     OW 1796   3.192  12.968   8.955
33341SOL    HW1 1797   3.174  12.886   8.909
33341SOL    HW2 1798   3.280  12.957   8.991
33342SOL     OW 1799   6.227  13.829  11.159
33342SOL    HW1 1800   6.261  13.740  11.172
33342SOL    HW2 1801   6.204  13.832  11.066
33343SOL     OW 1802   8.638   1.450  12.831
33343SOL    HW1 1803   8.645   1.545  12.841
33343SOL    HW2 1804   8.618   1.436  12.739
33344SOL     OW 1805   8.140   4.317   5.417
33344SOL    HW1 1806   8.217   4.268   5.446
33344SOL    HW2 1807   8.128   4.386   5.483
33345SOL     OW 1808   9.458   7.673  11.455
33345SOL    HW1 1809   9.433   7.582  11.469
33345SOL    HW2 1810   9.411   7.699  11.376
33346SOL     OW 1811   2.526   5.582  14.835
33346SOL    HW1 1812   2.619   5.603  14.824
33346SOL    HW2 1813   2.515   5.574   0.052
33347SOL     OW 1814   3.679   6.652  14.101
33347SOL    HW1 1815   3.668   6.681  14.192
33347SOL    HW2 1816   3.730   6.722  14.061
33348SOL     OW 1817   9.522   6.614  14.183
33348SOL    HW1 1818   9.476   6.696  14.164
33348SOL    HW2 1819   9.500   6.556  14.110
33349SOL     OW 1820   7.316  14.777  13.919
33349SOL    HW1 1821   7.256  14.770  13.993
33349SOL    HW2 1822   7.358  14.863  13.930
33350SOL     OW 1823   4.099   4.620  10.578
33350SOL    HW1 1824   4.098   4.703  10.531
33350SOL    HW2 1825   4.151   4.638  10.657
33351SOL     OW 1826  12.128  13.304   3.275
33351SOL    HW1 1827  12.198  13.368   3.274
33351SOL    HW2 1828  12.146  13.247   3.200
33352SOL     OW 1829  13.482  12.651  10.911
33352SOL    HW1 1830  13.571  12.636  10.943
33352SOL    HW2 1831  13.432  12.577  10.946
33353SOL     OW 1832  10.440   7.055   6.190
33353SOL    HW1 1833  10.504   7.025   6.125
33353SOL    HW2 1834  10.387   6.977   6.209
33354SOL     OW 1835   4.282   2.898   3.005
33354SOL    HW1 1836   4.356   2.939   3.049
33354SOL    HW2 1837   4.286   2.806   3.033
33355SOL     OW 1838  13.454   5.960  13.472
33355SOL    HW1 1839  13.459   5.907  13.392
33355SOL    HW2 1840  13.496   5.905  13.539
33356SOL     OW 1841   2.496  14.763   5.127
33356SOL    HW1 1842   2.444  14.688   5.158
33356SOL    HW2 1843   2.514  14.813   5.206
33357SOL     OW 1844  14.479  11.368  14.146
33357SOL    HW1 1845  14.571  11.385  14.125
33357SOL    HW2 1846  14.432  11.442  14.108
33358SOL     OW 1847   4.190  14.276   4.465
33358SOL    HW1 1848   4.232  14.234   4.541
33358SOL    HW2 1849   4.194  14.369   4.484
33359SOL     OW 1850   7.302   4.655   3.856
33359SOL    HW1 1851   7.394   4.635   3.876
33359SOL    HW2 1852   7.292   4.747   3.879
33360SOL     OW 1853   6.990   4.126   2.501
33360SOL    HW1 1854   6.953   4.203   2.543
33360SOL    HW2 1855   6.918   4.064   2.495
33361SOL     OW 1856   0.421   3.124   5.793
33361SOL    HW1 1857   0.380   3.091   5.873
33361SOL    HW2 1858   0.351   3.121   5.727
33362SOL     OW 1859  10.464   9.882  13.671
33362SOL    HW1 1860  10.514   9.956  13.636
33362SOL    HW2 1861  10.530   9.824  13.710
33363SOL     OW 1862  11.634   8.690  14.682
33363SOL    HW1 1863  11.541   8.665  14.679
33363SOL    HW2 1864  11.673   8.630  14.745
33364SOL     OW 1865   0.334   9.447   9.255
33364SOL    HW1 1866   0.337   9.503   9.177
33364SOL    HW2 1867   0.419   9.459   9.297
33365SOL     OW 1868   5.906  14.403   2.934
33365SOL    HW1 1869   5.936  14.448   3.013
33365SOL    HW2 1870   5.859  14.326   2.966
33366SOL     OW 1871  14.420  11.233   7.472
33366SOL    HW1 1872  14.492  11.293   7.454
33366SOL    HW2 1873  14.442  11.194   7.557
33367SOL     OW 1874   9.552   0.873   8.220
33367SOL    HW1 1875   9.543   0.814   8.146
33367SOL    HW2 1876   9.464   0.879   8.257
33368SOL     OW 1877   2.052   5.894   9.424
33368SOL    HW1 1878   2.085   5.824   9.367
33368SOL    HW2 1879   2.130   5.927   9.469
33369SOL     OW 1880  13.727  11.070   7.292
33369SOL    HW1 1881  13.733  11.165   7.297
33369SOL    HW2 1882  13.638  11.050   7.323
33370SOL     OW 1883   3.849  12.433   3.807
33370SOL    HW1 1884   3.884  12.407   3.892
33370SOL    HW2 1885   3.842  12.352   3.757
33371SOL     OW 1886   6.361   3.743  14.194
33371SOL    HW1 1887   6.310   3.662  14.196
33371SOL    HW2 1888   6.400   3.745  14.107
33372SOL     OW 1889   6.028   3.406   4.816
33372SOL    HW1 1890   6.068   3.442   4.736
33372SOL    HW2 1891   6.024   3.312   4.800
33373SOL     OW 1892  10.648   6.679   6.895
33373SOL    HW1 1893  10.709   6.673   6.968
33373SOL    HW2 1894  10.601   6.596   6.895
33374SOL     OW 1895  12.793  11.429  13.575
33374SOL    HW1 1896  12.735  11.404  13.647
33374SOL    HW2 1897  12.861  11.482  13.616
33375SOL     OW 1898   1.662   2.748   6.268
33375SOL    HW1 1899   1.634   2.688   6.200
33375SOL    HW2 1900   1.656   2.835   6.228
33376SOL     OW 1901   9.518   8.942   1.665
33376SOL    HW1 1902   9.437   8.991   1.649
33376SOL    HW2 1903   9.546   8.971   1.752
33377SOL     OW 1904   8.262   5.715  12.940
33377SOL    HW1 1905   8.235   5.697  12.850
33377SOL    HW2 1906   8.188   5.761  12.979
33378SOL     OW 1907   3.156   4.275  10.148
33378SOL    HW1 1908   3.072   4.287  10.192
33378SOL    HW2 1909   3.139   4.211  10.079
33379SOL     OW 1910   7.495   9.641   7.867
33379SOL    HW1 1911   7.410   9.617   7.830
33379SOL    HW2 1912   7.556   9.578   7.828
33380SOL     OW 1913   2.986   1.226   1.963
33380SOL    HW1 1914   2.981   1.131   1.971
33380SOL    HW2 1915   3.050   1.241   1.893
33381SOL     OW 1916   6.581   9.955   5.193
33381SOL    HW1 1917   6.626   9.875   5.166
33381SOL    HW2 1918   6.500   9.925   5.233
33382SOL     OW 1919   5.633  13.721   9.503
33382SOL    HW1 1920   5.658  13.812   9.524
33382SOL    HW2 1921   5.588  13.690   9.582
33383SOL     OW 1922  11.538   4.400  14.713
33383SOL    HW1 1923  11.499   4.352  14.640
33383SOL    HW2 1924  11.506   4.355  14.791
33384SOL     OW 1925   2.895   8.989  10.614
33384SOL    HW1 1926   2.872   9.011  10.704
33384SOL    HW2 1927   2.913   9.073  10.573
33385SOL     OW 1928   2.519   0.024  10.719
33385SOL    HW1 1929   2.431   0.036  10.683
33385SOL    HW2 1930   2.534  14.807  10.715
33386SOL     OW 1931  14.390  13.621   7.222
33386SOL    HW1 1932  14.454  13.672   7.172
33386SOL    HW2 1933  14.306  13.642   7.182
33387SOL     OW 1934   6.145  10.008   2.201
33387SOL    HW1 1935   6.058  10.045   2.218
33387SOL    HW2 1936   6.168   9.961   2.281
33388SOL     OW 1937  11.251   6.484   3.537
33388SOL    HW1 1938  11.254   6.450   3.447
33388SOL    HW2 1939  11.158   6.502   3.552
33389SOL     OW 1940  12.007  13.264   4.402
33389SOL    HW1 1941  12.032  13.172   4.395
33389SOL    HW2 1942  12.030  13.288   4.492
33390SOL     OW 1943   6.882   4.921  13.352
33390SOL    HW1 1944   6.964   4.925  13.401
33390SOL    HW2 1945   6.814   4.936  13.418
33391SOL     OW 1946   2.602  14.354   6.209
33391SOL    HW1 1947   2.622  14.261   6.213
33391SOL    HW2 1948   2.614  14.385   6.299
33392SOL     OW 1949   2.969   2.382  10.486
33392SOL    HW1 1950   2.982   2.313  10.550
33392SOL    HW2 1951   2.945   2.337  10.406
33393SOL     OW 1952   9.803  14.499   5.580
33393SOL    HW1 1953   9.839  14.583   5.607
33393SOL    HW2 1954   9.759  14.518   5.497
33394SOL     OW 1955  13.699   7.866   5.409
33394SOL    HW1 1956  13.649   7.930   5.460
33394SOL    HW2 1957  13.646   7.786   5.412
33395SOL     OW 1958   4.543   7.585   6.276
33395SOL    HW1 1959   4.488   7.522   6.229
33395SOL    HW2 1960   4.581   7.534   6.348
33396SOL     OW 1961  14.534   4.276  12.788
33396SOL    HW1 1962  14.463   4.212  12.794
33396SOL    HW2 1963  14.535   4.302  12.696
33397SOL     OW 1964  12.529   9.283   5.814
33397SOL    HW1 1965  12.504   9.347   5.748
33397SOL    HW2 1966  12.507   9.324   5.898
33398SOL     OW 1967   7.096   1.797  12.351
33398SOL    HW1 1968   7.021   1.855  12.359
33398SOL    HW2 1969   7.172   1.856  12.346
33399SOL     OW 1970   9.162  12.521   2.043
33399SOL    HW1 1971   9.088  12.505   1.984
33399SOL    HW2 1972   9.127  12.505   2.130
33400SOL     OW 1973   5.289  13.018   9.339
33400SOL    HW1 1974   5.245  13.088   9.387
33400SOL    HW2 1975   5.226  12.946   9.339
33401SOL     OW 1976   1.558  10.554  13.417
33401SOL    HW1 1977   1.602  10.538  13.333
33401SOL    HW2 1978   1.571  10.473  13.466
33402SOL     OW 1979   8.730   9.580  10.512
33402SOL    HW1 1980   8.700   9.619  10.594
33402SOL    HW2 1981   8.656   9.528  10.481
33403SOL     OW 1982  14.435  11.739   2.537
33403SOL    HW1 1983  14.497  11.789   2.590
33403SOL    HW2 1984  14.402  11.672   2.596
33404SOL     OW 1985   7.737  14.726   2.583
33404SOL    HW1 1986   7.760  14.764   2.668
33404SOL    HW2 1987   7.642  14.716   2.586
33405SOL     OW 1988   3.890   1.825  11.508
33405SOL    HW1 1989   3.940   1.809  11.428
33405SOL    HW2 1990   3.941   1.889  11.556
33406SOL     OW 1991   5.063   6.502   2.526
33406SOL    HW1 1992   4.985   6.478   2.575
33406SOL    HW2 1993   5.050   6.465   2.439
33407SOL     OW 1994   1.972   9.098  14.023
33407SOL    HW1 1995   2.024   9.097  14.103
33407SOL    HW2 1996   1.989   9.012  13.983
33408SOL     OW 1997  13.763  12.538   6.813
33408SOL    HW1 1998  13.757  12.632   6.796
33408SOL    HW2 1999  13.724  12.526   6.899
33409SOL     OW 2000  13.426  11.423  12.789
33409SOL    HW1 2001  13.464  11.501  12.829
33409SOL    HW2 2002  13.453  11.426  12.698
33410SOL     OW 2003   3.862   9.443  11.909
33410SOL    HW1 2004   3.780   9.410  11.945
33410SOL    HW2 2005   3.907   9.365  11.877
33411SOL     OW 2006   9.870  13.234  11.927
33411SOL    HW1 2007   9.894  13.166  11.990
33411SOL    HW2 2008   9.776  13.222  11.913
33412SOL     OW 2009  11.429   5.086   2.743
33412SOL    HW1 2010  11.441   5.021   2.812
33412SOL    HW2 2011  11.429   5.035   2.662
33413SOL     OW 2012   9.468  13.871   6.822
33413SOL    HW1 2013   9.544  13.822   6.852
33413SOL    HW2 2014   9.411  13.876   6.898
33414SOL     OW 2015   3.668  11.743   1.914
33414SOL    HW1 2016   3.696  11.685   1.843
33414SOL    HW2 2017   3.724  11.820   1.905
33415SOL     OW 2018   2.014   5.849   1.688
33415SOL    HW1 2019   1.934   5.797   1.694
33415SOL    HW2 2020   2.069   5.815   1.758
33416SOL     OW 2021   3.616   6.403   1.001
33416SOL    HW1 2022   3.682   6.465   0.971
33416SOL    HW2 2023   3.665   6.324   1.022
33417SOL     OW 2024   2.145  14.077   8.024
33417SOL    HW1 2025   2.067  14.114   8.065
33417SOL    HW2 2026   2.167  14.001   8.078
33418SOL     OW 2027   9.959   1.053  14.055
33418SOL    HW1 2028  10.000   0.996  13.990
33418SOL    HW2 2029  10.031   1.104  14.091
33419SOL     OW 2030   5.039   8.642   1.721
33419SOL    HW1 2031   5.107   8.639   1.654
33419SOL    HW2 2032   4.962   8.602   1.679
33420SOL     OW 2033   1.717   6.492   0.950
33420SOL    HW1 2034   1.743   6.463   1.037
33420SOL    HW2 2035   1.769   6.439   0.890
33421SOL     OW 2036  13.431   8.342   0.054
33421SOL    HW1 2037  13.369   8.350  14.860
33421SOL    HW2 2038  13.382   8.371   0.131
33422SOL     OW 2039   1.850   9.372   9.926
33422SOL    HW1 2040   1.934   9.409   9.899
33422SOL    HW2 2041   1.797   9.448   9.948
33423SOL     OW 2042   8.776   7.061  11.570
33423SOL    HW1 2043   8.815   7.147  11.583
33423SOL    HW2 2044   8.691   7.080  11.530
33424SOL     OW 2045   0.810   9.415   3.416
33424SOL    HW1 2046   0.904   9.425   3.402
33424SOL    HW2 2047   0.777   9.504   3.423
33425SOL     OW 2048   2.676  12.206   7.208
33425SOL    HW1 2049   2.713  12.218   7.121
33425SOL    HW2 2050   2.605  12.269   7.213
33426SOL     OW 2051  11.319  10.372  10.862
33426SOL    HW1 2052  11.381  10.334  10.924
33426SOL    HW2 2053  11.372  10.428  10.806
33427SOL     OW 2054  10.996   0.274   4.913
33427SOL    HW1 2055  11.022   0.358   4.951
33427SOL    HW2 2056  10.982   0.217   4.989
33428SOL     OW 2057  14.193   2.104   8.768
33428SOL    HW1 2058  14.186   2.031   8.708
33428SOL    HW2 2059  14.284   2.133   8.761
33429SOL     OW 2060  12.810   5.915  11.130
33429SOL    HW1 2061  12.742   5.849  11.139
33429SOL    HW2 2062  12.890   5.865  11.111
33430SOL     OW 2063  13.819   7.715   6.988
33430SOL    HW1 2064  13.800   7.626   7.018
33430SOL    HW2 2065  13.869   7.754   7.059
33431SOL     OW 2066  10.645  13.870   6.895
33431SOL    HW1 2067  10.576  13.804   6.884
33431SOL    HW2 2068  10.598  13.949   6.920
33432SOL     OW 2069   7.718   6.342   2.927
33432SOL    HW1 2070   7.688   6.431   2.944
33432SOL    HW2 2071   7.799   6.334   2.978
33433SOL     OW 2072  11.224   3.070   2.485
33433SOL    HW1 2073  11.151   3.095   2.429
33433SOL    HW2 2074  11.275   3.008   2.432
33434SOL     OW 2075   7.078  14.839   5.933
33434SOL    HW1 2076   7.168  14.824   5.963
33434SOL    HW2 2077   7.058  14.765   5.877
33435SOL     OW 2078   6.907   6.050   3.769
33435SOL    HW1 2079   6.948   6.079   3.687
33435SOL    HW2 2080   6.893   6.130   3.819
33436SOL     OW 2081  10.513   1.243   3.552
33436SOL    HW1 2082  10.530   1.201   3.637
33436SOL    HW2 2083  10.478   1.173   3.497
33437SOL     OW 2084  13.676  11.688   8.106
33437SOL    HW1 2085  13.591  11.665   8.145
33437SOL    HW2 2086  13.733  11.614   8.126
33438SOL     OW 2087   1.973  13.724   7.718
33438SOL    HW1 2088   1.883  13.721   7.683
33438SOL    HW2 2089   1.975  13.804   7.771
33439SOL     OW 2090  10.129   0.119   5.279
33439SOL    HW1 2091  10.142   0.086   5.368
33439SOL    HW2 2092  10.087   0.204   5.291
33440SOL     OW 2093   8.195   6.756   8.953
33440SOL    HW1 2094   8.237   6.703   9.021
33440SOL    HW2 2095   8.102   6.755   8.976
33441SOL     OW 2096   7.581   2.676  13.706
33441SOL    HW1 2097   7.583   2.757  13.654
33441SOL    HW2 2098   7.488   2.662  13.726
33442SOL     OW 2099  10.720   7.035   7.706
33442SOL    HW1 2100  10.637   7.058   7.747
33442SOL    HW2 2101  10.701   7.035   7.612
33443SOL     OW 2102  10.138   8.065   7.413
33443SOL    HW1 2103  10.098   8.047   7.498
33443SOL    HW2 2104  10.184   8.149   7.425
33444SOL     OW 2105   0.369   1.546   0.588
33444SOL    HW1 2106   0.447   1.520   0.539
33444SOL    HW2 2107   0.307   1.574   0.521
33445SOL     OW 2108  12.952   7.983   6.940
33445SOL    HW1 2109  13.040   8.022   6.938
33445SOL    HW2 2110  12.896   8.052   6.974
33446SOL     OW 2111   3.122   4.257  14.849
33446SOL    HW1 2112   3.088   4.185  14.797
33446SOL    HW2 2113   3.140   4.218   0.057
33447SOL     OW 2114   0.272  12.136   4.270
33447SOL    HW1 2115   0.325  12.069   4.227
33447SOL    HW2 2116   0.323  12.160   4.348
33448SOL     OW 2117  11.994   5.686   6.657
33448SOL    HW1 2118  12.084   5.658   6.673
33448SOL    HW2 2119  11.981   5.760   6.716
33449SOL     OW 2120  14.239   9.978   8.139
33449SOL    HW1 2121  14.156   9.932   8.148
33449SOL    HW2 2122  14.256   9.979   8.044
33450SOL     OW 2123   4.593   7.310  13.410
33450SOL    HW1 2124   4.507   7.351  13.419
33450SOL    HW2 2125   4.637   7.363  13.344
33451SOL     OW 2126   5.366  11.521   6.133
33451SOL    HW1 2127   5.360  11.557   6.044
33451SOL    HW2 2128   5.281  11.479   6.147
33452SOL     OW 2129   4.613   4.788   5.553
33452SOL    HW1 2130   4.685   4.846   5.580
33452SOL    HW2 2131   4.534   4.837   5.575
33453SOL     OW 2132   7.180   2.776   5.218
33453SOL    HW1 2133   7.208   2.685   5.225
33453SOL    HW2 2134   7.262   2.825   5.213
33454SOL     OW 2135   0.943  14.503  10.726
33454SOL    HW1 2136   0.965  14.416  10.760
33454SOL    HW2 2137   0.978  14.504  10.637
33455SOL     OW 2138  11.254   5.701  13.728
33455SOL    HW1 2139  11.176   5.743  13.765
33455SOL    HW2 2140  11.270   5.626  13.785
33456SOL     OW 2141  14.328  12.832   3.887
33456SOL    HW1 2142  14.420  12.807   3.883
33456SOL    HW2 2143  14.289  12.797   3.807
33457SOL     OW 2144   9.162   6.218   4.623
33457SOL    HW1 2145   9.104   6.142   4.629
33457SOL    HW2 2146   9.242   6.190   4.667
33458SOL     OW 2147   4.446   4.528  12.388
33458SOL    HW1 2148   4.421   4.506  12.298
33458SOL    HW2 2149   4.540   4.510  12.392
33459SOL     OW 2150  13.824  14.394   6.334
33459SOL    HW1 2151  13.744  14.373   6.381
33459SOL    HW2 2152  13.873  14.312   6.332
33460SOL     OW 2153   9.572   5.559  12.840
33460SOL    HW1 2154   9.552   5.647  12.810
33460SOL    HW2 2155   9.661   5.564  12.874
33461SOL     OW 2156  10.003  10.130  13.617
33461SOL    HW1 2157  10.080  10.184  13.633
33461SOL    HW2 2158  10.020  10.049  13.665
33462SOL     OW 2159   0.224   9.817  12.519
33462SOL    HW1 2160   0.185   9.865  12.446
33462SOL    HW2 2161   0.284   9.755  12.477
33463SOL     OW 2162   5.073  14.369   7.289
33463SOL    HW1 2163   5.024  14.409   7.217
33463SOL    HW2 2164   5.113  14.442   7.335
33464SOL     OW 2165   8.044   9.237  12.706
33464SOL    HW1 2166   8.065   9.228  12.613
33464SOL    HW2 2167   7.963   9.287  12.707
33465SOL     OW 2168   6.085  12.932   5.439
33465SOL    HW1 2169   6.106  12.924   5.346
33465SOL    HW2 2170   6.011  12.874   5.453
33466SOL     OW 2171   4.300   5.483  10.481
33466SOL    HW1 2172   4.256   5.506  10.563
33466SOL    HW2 2173   4.385   5.449  10.509
33467SOL     OW 2174  14.254   7.472   9.391
33467SOL    HW1 2175  14.250   7.563   9.420
33467SOL    HW2 2176  14.228   7.421   9.468
33468SOL     OW 2177   3.684   7.781  13.160
33468SOL    HW1 2178   3.671   7.804  13.251
33468SOL    HW2 2179   3.758   7.834  13.132
33469SOL     OW 2180  10.658   7.691   3.310
33469SOL    HW1 2181  10.666   7.784   3.290
33469SOL    HW2 2182  10.567   7.670   3.288
33470SOL     OW 2183   0.446   5.344   6.031
33470SOL    HW1 2184   0.422   5.294   6.109
33470SOL    HW2 2185   0.526   5.391   6.057
33471SOL     OW 2186   9.584   9.041  10.998
33471SOL    HW1 2187   9.523   9.051  11.072
33471SOL    HW2 2188   9.584   9.127  10.956
33472SOL     OW 2189   6.920   6.761   5.016
33472SOL    HW1 2190   6.951   6.780   5.105
33472SOL    HW2 2191   6.986   6.800   4.959
33473SOL     OW 2192   6.732   7.863   4.412
33473SOL    HW1 2193   6.811   7.831   4.369
33473SOL    HW2 2194   6.760   7.886   4.500
33474SOL     OW 2195   7.591  12.596  11.337
33474SOL    HW1 2196   7.531  12.594  11.263
33474SOL    HW2 2197   7.564  12.523  11.392
33475SOL     OW 2198  10.760   3.775   4.498
33475SOL    HW1 2199  10.842   3.782   4.548
33475SOL    HW2 2200  10.749   3.682   4.484
33476SOL     OW 2201   1.161  10.496  11.548
33476SOL    HW1 2202   1.124  10.565  11.603
33476SOL    HW2 2203   1.102  10.422  11.560
33477SOL     OW 2204   9.363   3.931  13.915
33477SOL    HW1 2205   9.431   3.993  13.889
33477SOL    HW2 2206   9.334   3.891  13.833
33478SOL     OW 2207  11.547   6.378   1.045
33478SOL    HW1 2208  11.579   6.415   0.962
33478SOL    HW2 2209  11.608   6.411   1.111
33479SOL     OW 2210   2.644   7.828  13.657
33479SOL    HW1 2211   2.599   7.779  13.726
33479SOL    HW2 2212   2.723   7.862  13.699
33480SOL     OW 2213  12.027  14.164   2.946
33480SOL    HW1 2214  12.064  14.188   3.031
33480SOL    HW2 2215  12.016  14.247   2.900
33481SOL     OW 2216   8.836   9.204   8.711
33481SOL    HW1 2217   8.929   9.213   8.687
33481SOL    HW2 2218   8.838   9.159   8.795
33482SOL     OW 2219   9.542  14.736  12.515
33482SOL    HW1 2220   9.514  14.795  12.446
33482SOL    HW2 2221   9.607  14.680  12.474
33483SOL     OW 2222  10.724   3.829   8.957
33483SOL    HW1 2223  10.670   3.776   9.017
33483SOL    HW2 2224  10.746   3.907   9.008
33484SOL     OW 2225   5.773  11.045   7.793
33484SOL    HW1 2226   5.683  11.078   7.791
33484SOL    HW2 2227   5.767  10.958   7.832
33485SOL     OW 2228   2.334   1.094  11.219
33485SOL    HW1 2229   2.335   1.187  11.197
33485SOL    HW2 2230   2.241   1.070  11.219
33486SOL     OW 2231   3.356   3.779  10.509
33486SOL    HW1 2232   3.350   3.862  10.463
33486SOL    HW2 2233   3.431   3.790  10.568
33487SOL     OW 2234  10.374  10.124   2.143
33487SOL    HW1 2235  10.425  10.190   2.189
33487SOL    HW2 2236  10.298  10.171   2.108
33488SOL     OW 2237   8.739   4.385   6.669
33488SOL    HW1 2238   8.820   4.362   6.623
33488SOL    HW2 2239   8.751   4.350   6.757
33489SOL     OW 2240  14.422   0.440   1.506
33489SOL    HW1 2241  14.445   0.468   1.595
33489SOL    HW2 2242  14.488   0.376   1.483
33490SOL     OW 2243   2.668   5.798  11.806
33490SOL    HW1 2244   2.636   5.727  11.861
33490SOL    HW2 2245   2.591   5.830  11.760
33491SOL     OW 2246   2.269   7.298   6.455
33491SOL    HW1 2247   2.230   7.302   6.368
33491SOL    HW2 2248   2.363   7.298   6.440
33492SOL     OW 2249  10.448   7.174   9.757
33492SOL    HW1 2250  10.502   7.097   9.774
33492SOL    HW2 2251  10.430   7.210   9.843
33493SOL     OW 2252  14.673   8.399  14.079
33493SOL    HW1 2253  14.624   8.480  14.098
33493SOL    HW2 2254  14.605   8.334  14.061
33494SOL     OW 2255   0.440  10.634  11.192
33494SOL    HW1 2256   0.512  10.574  11.211
33494SOL    HW2 2257   0.481  10.706  11.145
33495SOL     OW 2258   9.920   4.388   5.905
33495SOL    HW1 2259   9.985   4.360   5.969
33495SOL    HW2 2260   9.863   4.312   5.892
33496SOL     OW 2261   3.386   8.472   1.420
33496SOL    HW1 2262   3.291   8.489   1.421
33496SOL    HW2 2263   3.394   8.380   1.443
33497SOL     OW 2264   1.012   8.097   7.742
33497SOL    HW1 2265   0.950   8.036   7.702
33497SOL    HW2 2266   1.024   8.064   7.831
33498SOL     OW 2267   7.602   8.276   3.294
33498SOL    HW1 2268   7.533   8.244   3.235
33498SOL    HW2 2269   7.683   8.268   3.243
33499SOL     OW 2270   1.578  13.876   8.349
33499SOL    HW1 2271   1.486  13.869   8.323
33499SOL    HW2 2272   1.576  13.884   8.444
33500SOL     OW 2273   9.371  13.167   6.535
33500SOL    HW1 2274   9.400  13.101   6.471
33500SOL    HW2 2275   9.310  13.119   6.592
33501SOL     OW 2276   0.147  13.478   3.735
33501SOL    HW1 2277   0.186  13.514   3.815
33501SOL    HW2 2278   0.142  13.384   3.751
33502SOL     OW 2279   4.889  14.871   3.794
33502SOL    HW1 2280   4.841  14.820   3.730
33502SOL    HW2 2281   4.909   0.076   3.749
33503SOL     OW 2282   6.279   0.165  13.766
33503SOL    HW1 2283   6.282   0.214  13.684
33503SOL    HW2 2284   6.371   0.160  13.794
33504SOL     OW 2285   2.398  12.299  13.820
33504SOL    HW1 2286   2.385  12.208  13.848
33504SOL    HW2 2287   2.429  12.343  13.899
33505SOL     OW 2288   8.452  12.586   4.136
33505SOL    HW1 2289   8.442  12.507   4.083
33505SOL    HW2 2290   8.433  12.658   4.076
33506SOL     OW 2291   3.872   6.793   1.391
33506SOL    HW1 2292   3.781   6.817   1.409
33506SOL    HW2 2293   3.877   6.700   1.411
33507SOL     OW 2294  12.138  10.418   1.758
33507SOL    HW1 2295  12.192  10.481   1.806
33507SOL    HW2 2296  12.163  10.430   1.666
33508SOL     OW 2297   5.619   2.785  11.338
33508SOL    HW1 2298   5.579   2.817  11.257
33508SOL    HW2 2299   5.687   2.725  11.309
33509SOL     OW 2300   5.096   3.570   0.487
33509SOL    HW1 2301   5.078   3.506   0.555
33509SOL    HW2 2302   5.177   3.540   0.447
33510SOL     OW 2303  13.269  10.010  13.368
33510SOL    HW1 2304  13.223  10.077  13.418
33510SOL    HW2 2305  13.284   9.939  13.430
33511SOL     OW 2306   8.960  13.885  12.061
33511SOL    HW1 2307   8.890  13.868  11.998
33511SOL    HW2 2308   9.021  13.812  12.050
33512SOL     OW 2309   0.414   7.067   7.301
33512SOL    HW1 2310   0.455   7.061   7.214
33512SOL    HW2 2311   0.477   7.114   7.354
33513SOL     OW 2312  11.307   7.717   1.402
33513SOL    HW1 2313  11.288   7.811   1.399
33513SOL    HW2 2314  11.270   7.682   1.321
33514SOL     OW 2315  14.292   5.353   2.511
33514SOL    HW1 2316  14.235   5.329   2.438
33514SOL    HW2 2317  14.378   5.320   2.486
33515SOL     OW 2318   0.021   2.673  11.489
33515SOL    HW1 2319   0.012   2.633  11.576
33515SOL    HW2 2320   0.084   2.617  11.444
33516SOL     OW 2321   7.324   9.333   0.641
33516SOL    HW1 2322   7.244   9.313   0.594
33516SOL    HW2 2323   7.334   9.261   0.704
33517SOL     OW 2324   6.479  10.585   8.186
33517SOL    HW1 2325   6.484  10.681   8.189
33517SOL    HW2 2326   6.521  10.557   8.267
33518SOL     OW 2327  12.244  13.214  11.345
33518SOL    HW1 2328  12.240  13.149  11.416
33518SOL    HW2 2329  12.331  13.202  11.307
33519SOL     OW 2330  11.300  13.206  10.974
33519SOL    HW1 2331  11.218  13.246  11.003
33519SOL    HW2 2332  11.287  13.186  10.882
33520SOL     OW 2333   4.730  12.567  12.217
33520SOL    HW1 2334   4.735  12.513  12.296
33520SOL    HW2 2335   4.659  12.528  12.166
33521SOL     OW 2336  11.605   2.527  12.323
33521SOL    HW1 2337  11.547   2.601  12.304
33521SOL    HW2 2338  11.691   2.566  12.336
33522SOL     OW 2339  14.622   0.099   7.666
33522SOL    HW1 2340  14.615   0.173   7.605
33522SOL    HW2 2341  14.713   0.100   7.694
33523SOL     OW 2342  11.398   6.970   4.781
33523SOL    HW1 2343  11.449   6.895   4.751
33523SOL    HW2 2344  11.432   7.044   4.731
33524SOL     OW 2345   5.509   9.076  10.827
33524SOL    HW1 2346   5.583   9.036  10.871
33524SOL    HW2 2347   5.542   9.162  10.798
33525SOL     OW 2348   8.183   8.441  14.337
33525SOL    HW1 2349   8.101   8.429  14.289
33525SOL    HW2 2350   8.180   8.373  14.406
33526SOL     OW 2351  11.018   2.526  13.397
33526SOL    HW1 2352  10.940   2.582  13.401
33526SOL    HW2 2353  11.039   2.507  13.488
33527SOL     OW 2354   5.075   0.851   9.296
33527SOL    HW1 2355   5.020   0.859   9.219
33527SOL    HW2 2356   5.099   0.758   9.299
33528SOL     OW 2357   4.239   8.526   7.414
33528SOL    HW1 2358   4.163   8.469   7.406
33528SOL    HW2 2359   4.311   8.468   7.438
33529SOL     OW 2360   7.568   1.539  10.682
33529SOL    HW1 2361   7.532   1.529  10.594
33529SOL    HW2 2362   7.652   1.583  10.669
33530SOL     OW 2363   5.992   4.436   5.877
33530SOL    HW1 2364   6.036   4.516   5.908
33530SOL    HW2 2365   5.951   4.462   5.795
33531SOL     OW 2366  14.649  11.356   7.380
33531SOL    HW1 2367  14.718  11.297   7.412
33531SOL    HW2 2368  14.626  11.322   7.294
33532SOL     OW 2369  10.302   1.383   9.577
33532SOL    HW1 2370  10.359   1.424   9.642
33532SOL    HW2 2371  10.297   1.291   9.604
33533SOL     OW 2372  10.648   3.685   0.716
33533SOL    HW1 2373  10.731   3.721   0.686
33533SOL    HW2 2374  10.667   3.594   0.736
33534SOL     OW 2375  13.011   2.610  12.293
33534SOL    HW1 2376  12.979   2.550  12.361
33534SOL    HW2 2377  13.104   2.619  12.312
33535SOL     OW 2378   4.766  14.848   0.841
33535SOL    HW1 2379   4.801   0.044   0.890
33535SOL    HW2 2380   4.813  14.771   0.875
33536SOL     OW 2381   7.466   7.860   1.859
33536SOL    HW1 2382   7.507   7.807   1.790
33536SOL    HW2 2383   7.540   7.903   1.902
33537SOL     OW 2384  14.610  10.963   5.197
33537SOL    HW1 2385  14.519  10.983   5.220
33537SOL    HW2 2386  14.651  11.049   5.187
33538SOL     OW 2387   7.362   7.287   7.692
33538SOL    HW1 2388   7.407   7.228   7.753
33538SOL    HW2 2389   7.430   7.349   7.664
33539SOL     OW 2390   2.708   2.887   6.113
33539SOL    HW1 2391   2.733   2.877   6.205
33539SOL    HW2 2392   2.618   2.854   6.109
33540SOL     OW 2393   2.548  11.489  12.358
33540SOL    HW1 2394   2.585  11.522  12.439
33540SOL    HW2 2395   2.595  11.535  12.288
33541SOL     OW 2396   9.688   0.566   9.036
33541SOL    HW1 2397   9.667   0.506   9.108
33541SOL    HW2 2398   9.711   0.648   9.079
33542SOL     OW 2399  14.110  14.364   5.720
33542SOL    HW1 2400  14.042  14.370   5.787
33542SOL    HW2 2401  14.109  14.449   5.676
33543SOL     OW 2402  11.005  12.557   6.104
33543SOL    HW1 2403  10.983  12.465   6.115
33543SOL    HW2 2404  10.993  12.574   6.011
33544SOL     OW 2405   7.287   7.402  10.944
33544SOL    HW1 2406   7.193   7.412  10.928
33544SOL    HW2 2407   7.329   7.453  10.874
33545SOL     OW 2408   5.577  13.278   0.802
33545SOL    HW1 2409   5.533  13.222   0.865
33545SOL    HW2 2410   5.616  13.218   0.739
33546SOL     OW 2411  10.176   4.200   8.537
33546SOL    HW1 2412  10.224   4.129   8.579
33546SOL    HW2 2413  10.112   4.156   8.481
33547SOL     OW 2414  12.941  13.786   2.950
33547SOL    HW1 2415  12.940  13.718   2.883
33547SOL    HW2 2416  12.861  13.836   2.935
33548SOL     OW 2417   4.479   4.465  13.415
33548SOL    HW1 2418   4.394   4.488  13.451
33548SOL    HW2 2419   4.461   4.398  13.350
33549SOL     OW 2420  12.516   7.872   0.566
33549SOL    HW1 2421  12.482   7.818   0.637
33549SOL    HW2 2422  12.611   7.868   0.576
33550SOL     OW 2423  12.026  11.160   9.281
33550SOL    HW1 2424  12.096  11.204   9.232
33550SOL    HW2 2425  12.059  11.154   9.370
33551SOL     OW 2426   1.845  10.625   3.229
33551SOL    HW1 2427   1.767  10.581   3.263
33551SOL    HW2 2428   1.870  10.573   3.153
33552SOL     OW 2429   2.973   8.337   3.174
33552SOL    HW1 2430   2.911   8.324   3.102
33552SOL    HW2 2431   3.023   8.256   3.177
33553SOL     OW 2432   4.706   0.796   8.177
33553SOL    HW1 2433   4.630   0.738   8.186
33553SOL    HW2 2434   4.772   0.759   8.235
33554SOL     OW 2435   3.550  10.287   5.006
33554SOL    HW1 2436   3.586  10.260   4.921
33554SOL    HW2 2437   3.459  10.258   5.004
33555SOL     OW 2438   5.833   7.057   5.134
33555SOL    HW1 2439   5.918   7.013   5.143
33555SOL    HW2 2440   5.820   7.064   5.040
33556SOL     OW 2441  10.640   9.516   9.390
33556SOL    HW1 2442  10.668   9.448   9.329
33556SOL    HW2 2443  10.576   9.473   9.446
33557SOL     OW 2444   1.113  14.211   6.398
33557SOL    HW1 2445   1.085  14.198   6.308
33557SOL    HW2 2446   1.034  14.239   6.444
33558SOL     OW 2447  14.295   9.069   5.932
33558SOL    HW1 2448  14.205   9.081   5.963
33558SOL    HW2 2449  14.309   8.974   5.935
33559SOL     OW 2450  13.485   2.740   7.083
33559SOL    HW1 2451  13.571   2.759   7.046
33559SOL    HW2 2452  13.484   2.645   7.094
33560SOL     OW 2453   6.964   2.541  14.837
33560SOL    HW1 2454   7.047   2.572  14.873
33560SOL    HW2 2455   6.904   2.541   0.033
33561SOL     OW 2456   2.797   5.376  13.941
33561SOL    HW1 2457   2.866   5.406  14.000
33561SOL    HW2 2458   2.783   5.449  13.882
33562SOL     OW 2459   0.074   2.272   7.918
33562SOL    HW1 2460   0.072   2.322   7.836
33562SOL    HW2 2461   0.092   2.182   7.891
33563SOL     OW 2462  11.350  10.602   8.451
33563SOL    HW1 2463  11.419  10.661   8.480
33563SOL    HW2 2464  11.297  10.653   8.390
33564SOL     OW 2465   9.049  10.391   0.706
33564SOL    HW1 2466   9.000  10.362   0.629
33564SOL    HW2 2467   9.140  10.391   0.677
33565SOL     OW 2468  12.984   6.708   5.503
33565SOL    HW1 2469  13.079   6.716   5.509
33565SOL    HW2 2470  12.962   6.735   5.414
33566SOL     OW 2471   1.071   5.161  14.749
33566SOL    HW1 2472   1.104   5.228  14.810
33566SOL    HW2 2473   0.997   5.203  14.705
33567SOL     OW 2474  13.535  12.842  12.930
33567SOL    HW1 2475  13.574  12.799  13.007
33567SOL    HW2 2476  13.547  12.779  12.859
33568SOL     OW 2477   9.408  12.809   5.578
33568SOL    HW1 2478   9.422  12.879   5.642
33568SOL    HW2 2479   9.472  12.827   5.509
33569SOL     OW 2480  13.173  11.464   4.418
33569SOL    HW1 2481  13.151  11.524   4.346
33569SOL    HW2 2482  13.250  11.502   4.459
33570SOL     OW 2483   3.471   8.054   5.112
33570SOL    HW1 2484   3.483   8.101   5.194
33570SOL    HW2 2485   3.376   8.053   5.098
33571SOL     OW 2486  10.055   4.887  13.398
33571SOL    HW1 2487   9.990   4.825  13.430
33571SOL    HW2 2488  10.033   4.901  13.306
33572SOL     OW 2489   3.370   1.842  10.681
33572SOL    HW1 2490   3.416   1.921  10.710
33572SOL    HW2 2491   3.395   1.832  10.589
33573SOL     OW 2492  14.218  13.605   4.197
33573SOL    HW1 2493  14.220  13.700   4.210
33573SOL    HW2 2494  14.138  13.590   4.146
33574SOL     OW 2495   2.417  11.407   9.400
33574SOL    HW1 2496   2.421  11.437   9.491
33574SOL    HW2 2497   2.328  11.427   9.372
33575SOL     OW 2498   9.715   6.838   1.164
33575SOL    HW1 2499   9.782   6.769   1.162
33575SOL    HW2 2500   9.735   6.888   1.244
33576SOL     OW 2501  10.270  11.946   3.993
33576SOL    HW1 2502  10.279  11.855   3.965
33576SOL    HW2 2503  10.357  11.984   3.978
33577SOL     OW 2504   4.122  14.003   9.141
33577SOL    HW1 2505   4.208  13.961   9.146
33577SOL    HW2 2506   4.115  14.054   9.222
33578SOL     OW 2507   8.886   4.130   6.565
33578SOL    HW1 2508   8.914   4.040   6.551
33578SOL    HW2 2509   8.897   4.145   6.659
33579SOL     OW 2510   0.657   7.381  14.263
33579SOL    HW1 2511   0.658   7.286  14.254
33579SOL    HW2 2512   0.695   7.398  14.349
33580SOL     OW 2513   0.907   9.953   2.347
33580SOL    HW1 2514   0.967   9.956   2.422
33580SOL    HW2 2515   0.963   9.931   2.273
33581SOL     OW 2516  14.603  12.631   6.238
33581SOL    HW1 2517  14.604  12.643   6.143
33581SOL    HW2 2518  14.520  12.587   6.255
33582SOL     OW 2519   7.414   3.342  12.744
33582SOL    HW1 2520   7.319   3.352  12.750
33582SOL    HW2 2521   7.449   3.429  12.761
33583SOL     OW 2522   6.070   4.005  11.824
33583SOL    HW1 2523   6.047   4.035  11.736
33583SOL    HW2 2524   6.078   3.910  11.816
33584SOL     OW 2525   4.809   0.377   7.119
33584SOL    HW1 2526   4.797   0.444   7.186
33584SOL    HW2 2527   4.902   0.354   7.125
33585SOL     OW 2528  10.083   3.667   9.219
33585SOL    HW1 2529  10.157   3.695   9.273
33585SOL    HW2 2530  10.057   3.746   9.171
33586SOL     OW 2531   1.527   3.363   4.724
33586SOL    HW1 2532   1.511   3.449   4.685
33586SOL    HW2 2533   1.499   3.301   4.657
33587SOL     OW 2534   5.814   5.007  11.102
33587SOL    HW1 2535   5.824   4.965  11.017
33587SOL    HW2 2536   5.881   5.075  11.105
33588SOL     OW 2537   1.384   1.365   5.476
33588SOL    HW1 2538   1.293   1.370   5.505
33588SOL    HW2 2539   1.413   1.456   5.469
33589SOL     OW 2540   0.251   0.863  14.484
33589SOL    HW1 2541   0.182   0.929  14.490
33589SOL    HW2 2542   0.332   0.913  14.478
33590SOL     OW 2543   0.483  12.542   2.303
33590SOL    HW1 2544   0.483  12.513   2.211
33590SOL    HW2 2545   0.480  12.638   2.298
33591SOL     OW 2546  10.204   1.518   3.492
33591SOL    HW1 2547  10.152   1.487   3.567
33591SOL    HW2 2548  10.290   1.537   3.529
33592SOL     OW 2549  13.523  14.539   9.705
33592SOL    HW1 2550  13.543  14.453   9.667
33592SOL    HW2 2551  13.522  14.524   9.799
33593SOL     OW 2552  12.101  12.834   0.279
33593SOL    HW1 2553  12.110  12.924   0.312
33593SOL    HW2 2554  12.136  12.837   0.190
33594SOL     OW 2555  14.493   9.559  13.602
33594SOL    HW1 2556  14.545   9.635  13.627
33594SOL    HW2 2557  14.499   9.556  13.506
33595SOL     OW 2558   6.041  10.491  14.624
33595SOL    HW1 2559   5.970  10.429  14.607
33595SOL    HW2 2560   6.007  10.549  14.692
33596SOL     OW 2561  13.573   0.750   9.061
33596SOL    HW1 2562  13.528   0.816   9.009
33596SOL    HW2 2563  13.646   0.797   9.102
33597SOL     OW 2564  13.844   9.723   9.212
33597SOL    HW1 2565  13.800   9.663   9.272
33597SOL    HW2 2566  13.821   9.810   9.242
33598SOL     OW 2567   4.172   0.902   9.402
33598SOL    HW1 2568   4.185   0.968   9.335
33598SOL    HW2 2569   4.223   0.933   9.477
33599SOL     OW 2570   8.004  12.712  13.225
33599SOL    HW1 2571   8.061  12.638  13.207
33599SOL    HW2 2572   8.064  12.785  13.243
33600SOL     OW 2573  13.972   1.857   4.674
33600SOL    HW1 2574  13.990   1.829   4.584
33600SOL    HW2 2575  14.027   1.800   4.728
33601SOL     OW 2576   4.330   0.671  11.427
33601SOL    HW1 2577   4.327   0.613  11.351
33601SOL    HW2 2578   4.239   0.673  11.459
33602SOL     OW 2579  11.979  13.912   8.174
33602SOL    HW1 2580  12.045  13.975   8.204
33602SOL    HW2 2581  12.028  13.830   8.162
33603SOL     OW 2582   0.463   6.992  12.161
33603SOL    HW1 2583   0.556   6.971  12.176
33603SOL    HW2 2584   0.446   6.961  12.073
33604SOL     OW 2585   4.057   0.138   5.379
33604SOL    HW1 2586   4.086   0.218   5.335
33604SOL    HW2 2587   3.969   0.158   5.410
33605SOL     OW 2588   8.885   3.452   1.097
33605SOL    HW1 2589   8.833   3.527   1.127
33605SOL    HW2 2590   8.923   3.416   1.177
33606SOL     OW 2591  14.705   9.316  12.360
33606SOL    HW1 2592  14.764   9.390  12.351
33606SOL    HW2 2593  14.692   9.306  12.454
33607SOL     OW 2594  11.227   5.170   7.901
33607SOL    HW1 2595  11.164   5.140   7.966
33607SOL    HW2 2596  11.259   5.254   7.935
33608SOL     OW 2597   2.092  11.967   0.356
33608SOL    HW1 2598   2.041  11.922   0.288
33608SOL    HW2 2599   2.138  12.037   0.309
33609SOL     OW 2600   6.205   0.438   7.487
33609SOL    HW1 2601   6.160   0.374   7.542
33609SOL    HW2 2602   6.215   0.515   7.544
33610SOL     OW 2603   2.085  13.473  11.709
33610SOL    HW1 2604   2.175  13.494  11.734
33610SOL    HW2 2605   2.080  13.497  11.616
33611SOL     OW 2606   5.154   9.592   6.066
33611SOL    HW1 2607   5.184   9.510   6.028
33611SOL    HW2 2608   5.125   9.644   5.990
33612SOL     OW 2609  11.472   3.476   6.063
33612SOL    HW1 2610  11.486   3.486   5.969
33612SOL    HW2 2611  11.377   3.466   6.072
33613SOL     OW 2612  13.965  11.088  11.058
33613SOL    HW1 2613  14.034  11.051  11.113
33613SOL    HW2 2614  13.990  11.180  11.047
33614SOL     OW 2615   5.267   3.008   0.132
33614SOL    HW1 2616   5.196   3.024   0.070
33614SOL    HW2 2617   5.343   3.051   0.092
33615SOL     OW 2618  13.240   2.042   6.734
33615SOL    HW1 2619  13.183   2.062   6.809
33615SOL    HW2 2620  13.203   1.963   6.696
33616SOL     OW 2621   1.622   5.122   5.173
33616SOL    HW1 2622   1.572   5.061   5.227
33616SOL    HW2 2623   1.638   5.197   5.230
33617SOL     OW 2624   7.446   5.812  11.565
33617SOL    HW1 2625   7.442   5.722  11.531
33617SOL    HW2 2626   7.466   5.866  11.488
33618SOL     OW 2627   7.453   0.328  14.588
33618SOL    HW1 2628   7.361   0.355  14.586
33618SOL    HW2 2629   7.454   0.252  14.646
33619SOL     OW 2630  12.985   6.123   6.193
33619SOL    HW1 2631  13.036   6.205   6.194
33619SOL    HW2 2632  13.043   6.059   6.152
33620SOL     OW 2633   8.570   1.900  10.830
33620SOL    HW1 2634   8.583   1.822  10.776
33620SOL    HW2 2635   8.647   1.954  10.813
33621SOL     OW 2636  10.493   9.929   5.235
33621SOL    HW1 2637  10.400   9.943   5.220
33621SOL    HW2 2638  10.523  10.010   5.276
33622SOL     OW 2639  13.703   5.167   2.150
33622SOL    HW1 2640  13.695   5.080   2.112
33622SOL    HW2 2641  13.615   5.189   2.181
33623SOL     OW 2642   0.007   0.150   7.957
33623SOL    HW1 2643  14.870   0.180   7.867
33623SOL    HW2 2644   0.024   0.230   8.007
33624SOL     OW 2645   6.469   4.886  10.704
33624SOL    HW1 2646   6.505   4.859  10.619
33624SOL    HW2 2647   6.379   4.855  10.703
33625SOL     OW 2648   6.123   7.566  14.266
33625SOL    HW1 2649   6.196   7.507  14.287
33625SOL    HW2 2650   6.164   7.636  14.215
33626SOL     OW 2651  12.183  10.563   6.105
33626SOL    HW1 2652  12.271  10.581   6.138
33626SOL    HW2 2653  12.184  10.469   6.086
33627SOL     OW 2654   5.970   2.419  12.390
33627SOL    HW1 2655   5.947   2.330  12.364
33627SOL    HW2 2656   5.887   2.459  12.415
33628SOL     OW 2657   6.928   7.080  12.878
33628SOL    HW1 2658   6.978   7.000  12.863
33628SOL    HW2 2659   6.992   7.151  12.868
33629SOL     OW 2660   1.972  14.637   4.080
33629SOL    HW1 2661   1.887  14.596   4.100
33629SOL    HW2 2662   2.010  14.580   4.013
33630SOL     OW 2663   1.440  13.135  13.839
33630SOL    HW1 2664   1.356  13.108  13.802
33630SOL    HW2 2665   1.503  13.071  13.805
33631SOL     OW 2666   5.341  11.720   5.140
33631SOL    HW1 2667   5.339  11.695   5.233
33631SOL    HW2 2668   5.433  11.722   5.117
33632SOL     OW 2669  13.286   7.297  12.356
33632SOL    HW1 2670  13.293   7.381  12.311
33632SOL    HW2 2671  13.373   7.259  12.351
33633SOL     OW 2672   1.141   0.148  12.028
33633SOL    HW1 2673   1.179   0.063  12.007
33633SOL    HW2 2674   1.215   0.209  12.023
33634SOL     OW 2675  11.295   1.512  14.461
33634SOL    HW1 2676  11.328   1.427  14.490
33634SOL    HW2 2677  11.217   1.527  14.515
33635SOL     OW 2678  11.159   5.425   5.949
33635SOL    HW1 2679  11.142   5.440   5.856
33635SOL    HW2 2680  11.251   5.450   5.961
33636SOL     OW 2681  10.176   7.631  11.658
33636SOL    HW1 2682  10.136   7.705  11.612
33636SOL    HW2 2683  10.152   7.645  11.750
33637SOL     OW 2684  10.130   5.609   1.322
33637SOL    HW1 2685  10.103   5.674   1.256
33637SOL    HW2 2686  10.188   5.657   1.380
33638SOL     OW 2687   9.661   3.175   8.399
33638SOL    HW1 2688   9.744   3.127   8.390
33638SOL    HW2 2689   9.639   3.167   8.491
33639SOL     OW 2690   7.714   1.300  10.858
33639SOL    HW1 2691   7.753   1.381  10.891
33639SOL    HW2 2692   7.779   1.233  10.878
33640SOL     OW 2693  11.658   6.142   0.299
33640SOL    HW1 2694  11.717   6.099   0.238
33640SOL    HW2 2695  11.703   6.138   0.383
33641SOL     OW 2696   8.327  10.260   2.436
33641SOL    HW1 2697   8.292  10.272   2.524
33641SOL    HW2 2698   8.302  10.172   2.411
33642SOL     OW 2699  10.658  10.416   2.155
33642SOL    HW1 2700  10.706  10.499   2.154
33642SOL    HW2 2701  10.705  10.360   2.094
33643SOL     OW 2702  12.302  14.443  13.178
33643SOL    HW1 2703  12.364  14.489  13.235
33643SOL    HW2 2704  12.216  14.476  13.204
33644SOL     OW 2705   0.414   4.291   2.224
33644SOL    HW1 2706   0.441   4.224   2.161
33644SOL    HW2 2707   0.356   4.245   2.285
33645SOL     OW 2708   0.010   9.089   2.058
33645SOL    HW1 2709   0.076   9.053   1.998
33645SOL    HW2 2710  14.855   9.014   2.107
33646SOL     OW 2711   2.901   0.745   1.215
33646SOL    HW1 2712   2.936   0.822   1.170
33646SOL    HW2 2713   2.839   0.780   1.279
33647SOL     OW 2714   1.375   5.206   6.283
33647SOL    HW1 2715   1.295   5.247   6.252
33647SOL    HW2 2716   1.432   5.278   6.310
33648SOL     OW 2717   5.441  14.793   8.102
33648SOL    HW1 2718   5.445  14.760   8.192
33648SOL    HW2 2719   5.491  14.875   8.104
33649SOL     OW 2720   6.545   7.169  13.265
33649SOL    HW1 2721   6.620   7.183  13.207
33649SOL    HW2 2722   6.493   7.248  13.256
33650SOL     OW 2723   0.981  11.384   2.604
33650SOL    HW1 2724   0.907  11.330   2.632
33650SOL    HW2 2725   1.053  11.357   2.662
33651SOL     OW 2726   5.007  12.697   3.546
33651SOL    HW1 2727   4.932  12.692   3.487
33651SOL    HW2 2728   5.015  12.609   3.581
33652SOL     OW 2729  12.665   3.452  11.021
33652SOL    HW1 2730  12.640   3.378  11.076
33652SOL    HW2 2731  12.583   3.487  10.988
33653SOL     OW 2732   7.811   5.614  11.036
33653SOL    HW1 2733   7.837   5.647  11.122
33653SOL    HW2 2734   7.736   5.558  11.053
33654SOL     OW 2735   8.957   0.391   6.009
33654SOL    HW1 2736   9.024   0.350   6.064
33654SOL    HW2 2737   8.927   0.321   5.952
33655SOL     OW 2738  12.523   1.124   4.968
33655SOL    HW1 2739  12.596   1.069   4.997
33655SOL    HW2 2740  12.464   1.064   4.923
33656SOL     OW 2741   9.449   6.540  10.331
33656SOL    HW1 2742   9.520   6.561  10.271
33656SOL    HW2 2743   9.486   6.473  10.389
33657SOL     OW 2744   7.091   2.073  11.812
33657SOL    HW1 2745   7.161   2.030  11.861
33657SOL    HW2 2746   7.019   2.081  11.875
33658SOL     OW 2747  10.316  12.389  12.912
33658SOL    HW1 2748  10.223  12.404  12.923
33658SOL    HW2 2749  10.347  12.359  12.998
33659SOL     OW 2750   6.397   8.624  12.113
33659SOL    HW1 2751   6.316   8.574  12.105
33659SOL    HW2 2752   6.396   8.657  12.202
33660SOL     OW 2753  14.098   3.589   8.181
33660SOL    HW1 2754  14.049   3.569   8.261
33660SOL    HW2 2755  14.169   3.525   8.180
33661SOL     OW 2756  10.855  14.815   9.388
33661SOL    HW1 2757  10.910  14.875   9.438
33661SOL    HW2 2758  10.789  14.785   9.451
33662SOL     OW 2759  10.901   3.830   9.244
33662SOL    HW1 2760  10.896   3.751   9.189
33662SOL    HW2 2761  10.839   3.814   9.314
33663SOL     OW 2762  10.895   2.749   3.651
33663SOL    HW1 2763  10.854   2.666   3.627
33663SOL    HW2 2764  10.961   2.764   3.584
33664SOL     OW 2765   3.197   3.866  12.297
33664SOL    HW1 2766   3.232   3.833  12.214
33664SOL    HW2 2767   3.271   3.865  12.357
33665SOL     OW 2768   2.383   4.221   0.670
33665SOL    HW1 2769   2.445   4.233   0.598
33665SOL    HW2 2770   2.313   4.284   0.652
33666SOL     OW 2771  11.136   2.632   6.009
33666SOL    HW1 2772  11.197   2.620   6.082
33666SOL    HW2 2773  11.118   2.544   5.978
33667SOL     OW 2774   7.209  11.009   2.760
33667SOL    HW1 2775   7.168  10.934   2.718
33667SOL    HW2 2776   7.302  10.985   2.768
33668SOL     OW 2777   1.313   0.891  13.644
33668SOL    HW1 2778   1.266   0.968  13.675
33668SOL    HW2 2779   1.367   0.924  13.572
33669SOL     OW 2780   7.087   0.423   0.066
33669SOL    HW1 2781   7.085   0.516   0.089
33669SOL    HW2 2782   7.009   0.386   0.108
33670SOL     OW 2783  11.030  10.307   0.241
33670SOL    HW1 2784  11.075  10.382   0.201
33670SOL    HW2 2785  11.094  10.236   0.237
33671SOL     OW 2786  10.338   4.696  14.483
33671SOL    HW1 2787  10.280   4.624  14.508
33671SOL    HW2 2788  10.365   4.735  14.566
33672SOL     OW 2789   8.086   7.070  12.296
33672SOL    HW1 2790   8.075   7.150  12.246
33672SOL    HW2 2791   8.072   7.000  12.233
33673SOL     OW 2792   6.752   7.247   1.305
33673SOL    HW1 2793   6.708   7.194   1.238
33673SOL    HW2 2794   6.705   7.229   1.386
33674SOL     OW 2795  12.582  14.570   6.632
33674SOL    HW1 2796  12.523  14.495   6.638
33674SOL    HW2 2797  12.562  14.608   6.546
33675SOL     OW 2798   3.317   4.369   8.373
33675SOL    HW1 2799   3.287   4.456   8.349
33675SOL    HW2 2800   3.356   4.379   8.459
33676SOL     OW 2801   8.845  10.464  14.106
33676SOL    HW1 2802   8.859  10.558  14.096
33676SOL    HW2 2803   8.824  10.452  14.199
33677SOL     OW 2804   2.176  14.067  13.639
33677SOL    HW1 2805   2.106  14.042  13.699
33677SOL    HW2 2806   2.206  13.984  13.602
33678SOL     OW 2807   1.765   4.595  10.088
33678SOL    HW1 2808   1.818   4.674  10.078
33678SOL    HW2 2809   1.822   4.524  10.058
33679SOL     OW 2810   8.692   1.485   5.105
33679SOL    HW1 2811   8.652   1.466   5.020
33679SOL    HW2 2812   8.626   1.536   5.151
33680SOL     OW 2813   2.100   1.118   3.864
33680SOL    HW1 2814   2.095   1.137   3.957
33680SOL    HW2 2815   2.038   1.046   3.850
33681SOL     OW 2816   0.193   8.585   8.420
33681SOL    HW1 2817   0.163   8.664   8.375
33681SOL    HW2 2818   0.241   8.617   8.496
33682SOL     OW 2819  13.265  13.144   9.382
33682SOL    HW1 2820  13.344  13.198   9.371
33682SOL    HW2 2821  13.298  13.058   9.406
33683SOL     OW 2822   8.725   0.433   0.566
33683SOL    HW1 2823   8.763   0.515   0.598
33683SOL    HW2 2824   8.776   0.365   0.610
33684SOL     OW 2825   8.888  14.058   6.053
33684SOL    HW1 2826   8.858  14.147   6.071
33684SOL    HW2 2827   8.812  14.015   6.014
33685SOL     OW 2828   5.512   3.111  10.235
33685SOL    HW1 2829   5.451   3.126  10.163
33685SOL    HW2 2830   5.535   3.018  10.229
33686SOL     OW 2831   0.826  14.559   4.674
33686SOL    HW1 2832   0.793  14.546   4.763
33686SOL    HW2 2833   0.775  14.498   4.621
33687SOL     OW 2834  12.918  14.625  10.278
33687SOL    HW1 2835  12.832  14.604  10.317
33687SOL    HW2 2836  12.942  14.546  10.230
33688SOL     OW 2837  13.797   7.904   4.122
33688SOL    HW1 2838  13.705   7.923   4.104
33688SOL    HW2 2839  13.833   7.988   4.152
33689SOL     OW 2840   3.518   7.473  10.628
33689SOL    HW1 2841   3.489   7.408  10.564
33689SOL    HW2 2842   3.552   7.421  10.701
33690SOL     OW 2843   5.899   0.318  14.443
33690SOL    HW1 2844   5.959   0.370  14.497
33690SOL    HW2 2845   5.936   0.323  14.355
33691SOL     OW 2846   6.417  12.960  11.364
33691SOL    HW1 2847   6.505  12.956  11.324
33691SOL    HW2 2848   6.427  12.915  11.448
33692SOL     OW 2849   5.741   3.338  12.244
33692SOL    HW1 2850   5.683   3.412  12.264
33692SOL    HW2 2851   5.826   3.379  12.226
33693SOL     OW 2852   9.550   0.691   8.014
33693SOL    HW1 2853   9.547   0.617   8.075
33693SOL    HW2 2854   9.462   0.697   7.978
33694SOL     OW 2855  11.544   1.331   5.776
33694SOL    HW1 2856  11.638   1.344   5.764
33694SOL    HW2 2857  11.536   1.239   5.800
33695SOL     OW 2858   8.000  14.433   6.123
33695SOL    HW1 2859   7.907  14.417   6.138
33695SOL    HW2 2860   8.043  14.395   6.200
33696SOL     OW 2861   7.720   8.990  10.293
33696SOL    HW1 2862   7.766   9.020  10.215
33696SOL    HW2 2863   7.634   9.031  10.288
33697SOL     OW 2864   0.289  14.664   8.850
33697SOL    HW1 2865   0.251  14.716   8.779
33697SOL    HW2 2866   0.214  14.618   8.889
33698SOL     OW 2867  10.456  11.930  10.758
33698SOL    HW1 2868  10.363  11.912  10.771
33698SOL    HW2 2869  10.460  11.968  10.670
33699SOL     OW 2870   4.416  14.695   5.979
33699SOL    HW1 2871   4.406  14.757   5.907
33699SOL    HW2 2872   4.338  14.707   6.033
33700SOL     OW 2873   2.539  12.649   3.065
33700SOL    HW1 2874   2.600  12.579   3.086
33700SOL    HW2 2875   2.486  12.659   3.145
33701SOL     OW 2876   1.134   3.874   1.019
33701SOL    HW1 2877   1.171   3.852   0.934
33701SOL    HW2 2878   1.088   3.957   1.005
33702SOL     OW 2879   7.013   8.916  11.003
33702SOL    HW1 2880   7.064   8.867  10.938
33702SOL    HW2 2881   7.076   8.934  11.073
33703SOL     OW 2882  12.585   7.846   1.004
33703SOL    HW1 2883  12.678   7.829   1.021
33703SOL    HW2 2884  12.556   7.898   1.079
33704SOL     OW 2885   8.367   6.659  14.331
33704SOL    HW1 2886   8.322   6.582  14.364
33704SOL    HW2 2887   8.317   6.733  14.365
33705SOL     OW 2888  14.109  13.585   0.870
33705SOL    HW1 2889  14.133  13.496   0.896
33705SOL    HW2 2890  14.086  13.629   0.951
33706SOL     OW 2891  11.435   6.652   8.187
33706SOL    HW1 2892  11.428   6.732   8.136
33706SOL    HW2 2893  11.407   6.678   8.275
33707SOL     OW 2894  12.753   6.834   8.896
33707SOL    HW1 2895  12.829   6.877   8.935
33707SOL    HW2 2896  12.744   6.752   8.945
33708SOL     OW 2897   6.673   4.996  12.400
33708SOL    HW1 2898   6.713   4.942  12.468
33708SOL    HW2 2899   6.598   4.945  12.370
33709SOL     OW 2900   0.437  13.501   9.766
33709SOL    HW1 2901   0.423  13.441   9.693
33709SOL    HW2 2902   0.349  13.518   9.801
33710SOL     OW 2903   6.167  12.226   8.975
33710SOL    HW1 2904   6.134  12.166   9.041
33710SOL    HW2 2905   6.230  12.174   8.925
33711SOL     OW 2906  12.974   5.864  14.598
33711SOL    HW1 2907  12.929   5.850  14.514
33711SOL    HW2 2908  13.062   5.829  14.585
33712SOL     OW 2909   0.316   8.599   7.503
33712SOL    HW1 2910   0.235   8.598   7.451
33712SOL    HW2 2911   0.374   8.659   7.456
33713SOL     OW 2912  14.468   3.310   9.567
33713SOL    HW1 2913  14.382   3.272   9.544
33713SOL    HW2 2914  14.518   3.235   9.599
33714SOL     OW 2915  10.958  13.645  12.645
33714SOL    HW1 2916  10.964  13.556  12.611
33714SOL    HW2 2917  10.940  13.634  12.739
33715SOL     OW 2918  14.139   9.679   3.374
33715SOL    HW1 2919  14.066   9.653   3.430
33715SOL    HW2 2920  14.192   9.600   3.365
33716SOL     OW 2921   3.494   5.256   1.666
33716SOL    HW1 2922   3.536   5.223   1.745
33716SOL    HW2 2923   3.566   5.276   1.606
33717SOL     OW 2924  12.692   4.372   2.005
33717SOL    HW1 2925  12.678   4.450   2.059
33717SOL    HW2 2926  12.786   4.356   2.009
33718SOL     OW 2927  10.707  13.139  14.346
33718SOL    HW1 2928  10.615  13.121  14.327
33718SOL    HW2 2929  10.715  13.234  14.340
33719SOL     OW 2930  11.752   7.141   0.655
33719SOL    HW1 2931  11.714   7.158   0.568
33719SOL    HW2 2932  11.733   7.049   0.671
33720SOL     OW 2933  14.417  12.254   6.300
33720SOL    HW1 2934  14.506  12.288   6.296
33720SOL    HW2 2935  14.427  12.165   6.336
33721SOL     OW 2936   5.807  10.133   7.436
33721SOL    HW1 2937   5.739  10.112   7.500
33721SOL    HW2 2938   5.853  10.207   7.475
33722SOL     OW 2939   7.205  12.483  13.107
33722SOL    HW1 2940   7.197  12.572  13.141
33722SOL    HW2 2941   7.296  12.476  13.081
33723SOL     OW 2942   4.042   9.679   9.051
33723SOL    HW1 2943   4.125   9.691   9.097
33723SOL    HW2 2944   4.066   9.629   8.973
33724SOL     OW 2945  14.707   5.522   0.657
33724SOL    HW1 2946  14.639   5.518   0.725
33724SOL    HW2 2947  14.785   5.552   0.703
33725SOL     OW 2948   1.416   9.410   2.888
33725SOL    HW1 2949   1.360   9.413   2.811
33725SOL    HW2 2950   1.378   9.341   2.943
33726SOL     OW 2951   2.670   8.195   0.982
33726SOL    HW1 2952   2.689   8.122   0.923
33726SOL    HW2 2953   2.615   8.254   0.930
33727SOL     OW 2954  12.099  11.759   6.684
33727SOL    HW1 2955  12.120  11.820   6.613
33727SOL    HW2 2956  12.031  11.702   6.647
33728SOL     OW 2957  11.809   2.668  13.933
33728SOL    HW1 2958  11.836   2.691  13.844
33728SOL    HW2 2959  11.890   2.642  13.977
33729SOL     OW 2960   8.454   1.494   1.130
33729SOL    HW1 2961   8.534   1.539   1.103
33729SOL    HW2 2962   8.422   1.453   1.050
33730SOL     OW 2963   9.886  10.858   5.469
33730SOL    HW1 2964   9.800  10.896   5.448
33730SOL    HW2 2965   9.886  10.851   5.564
33731SOL     OW 2966  13.785   6.094  10.193
33731SOL    HW1 2967  13.770   6.168  10.252
33731SOL    HW2 2968  13.709   6.037  10.206
33732SOL     OW 2969  13.854  14.225   3.749
33732SOL    HW1 2970  13.789  14.254   3.686
33732SOL    HW2 2971  13.827  14.264   3.832
33733SOL     OW 2972   8.062   1.809   4.905
33733SOL    HW1 2973   7.975   1.844   4.885
33733SOL    HW2 2974   8.059   1.792   4.999
33734SOL     OW 2975  14.172   7.399  11.942
33734SOL    HW1 2976  14.199   7.464  11.877
33734SOL    HW2 2977  14.249   7.343  11.953
33735SOL     OW 2978   5.794   0.602  13.004
33735SOL    HW1 2979   5.861   0.619  13.070
33735SOL    HW2 2980   5.809   0.669  12.937
33736SOL     OW 2981   2.040  12.527   3.245
33736SOL    HW1 2982   1.955  12.571   3.235
33736SOL    HW2 2983   2.032  12.448   3.192
33737SOL     OW 2984   4.084   3.024   1.840
33737SOL    HW1 2985   4.172   2.999   1.867
33737SOL    HW2 2986   4.092   3.046   1.747
33738SOL     OW 2987   9.437  11.090   1.386
33738SOL    HW1 2988   9.386  11.123   1.312
33738SOL    HW2 2989   9.503  11.033   1.347
33739SOL     OW 2990   8.525  12.798   3.736
33739SOL    HW1 2991   8.561  12.710   3.725
33739SOL    HW2 2992   8.598  12.849   3.770
33740SOL     OW 2993   4.984   4.448  14.654
33740SOL    HW1 2994   4.892   4.459  14.633
33740SOL    HW2 2995   5.014   4.537  14.677
33741SOL     OW 2996   4.067  14.001   4.825
33741SOL    HW1 2997   3.986  14.043   4.854
33741SOL    HW2 2998   4.133  14.070   4.828
33742SOL     OW 2999   9.293   9.530  11.161
33742SOL    HW1 3000   9.211   9.579  11.166
33742SOL    HW2 3001   9.286   9.464  11.231
33743SOL     OW 3002  13.912   6.438  10.000
33743SOL    HW1 3003  13.934   6.453  10.092
33743SOL    HW2 3004  13.985   6.476   9.951
33744SOL     OW 3005  11.672  13.869   1.752
33744SOL    HW1 3006  11.645  13.958   1.732
33744SOL    HW2 3007  11.601  13.814   1.719
33745SOL     OW 3008   3.259   7.418   8.383
33745SOL    HW1 3009   3.332   7.393   8.440
33745SOL    HW2 3010   3.210   7.482   8.435
33746SOL     OW 3011   5.645  10.574   5.425
33746SOL    HW1 3012   5.705  10.554   5.497
33746SOL    HW2 3013   5.601  10.655   5.452
33747SOL     OW 3014   3.931  11.509  11.851
33747SOL    HW1 3015   3.870  11.521  11.924
33747SOL    HW2 3016   4.017  11.505  11.892
33748SOL     OW 3017  12.394  14.628   7.199
33748SOL    HW1 3018  12.443  14.647   7.278
33748SOL    HW2 3019  12.347  14.547   7.218
33749SOL     OW 3020   6.016  13.563  14.802
33749SOL    HW1 3021   6.012  13.542   0.017
33749SOL    HW2 3022   6.110  13.565  14.782
33750SOL     OW 3023   0.104   9.205   9.414
33750SOL    HW1 3024   0.059   9.130   9.376
33750SOL    HW2 3025   0.187   9.211   9.366
33751SOL     OW 3026   3.593   4.098  11.047
33751SOL    HW1 3027   3.527   4.167  11.057
33751SOL    HW2 3028   3.608   4.065  11.135
33752SOL     OW 3029   1.827  12.239   2.228
33752SOL    HW1 3030   1.787  12.236   2.315
33752SOL    HW2 3031   1.789  12.316   2.186
33753SOL     OW 3032   1.841   2.651   5.386
33753SOL    HW1 3033   1.923   2.601   5.394
33753SOL    HW2 3034   1.869   2.740   5.365
33754SOL     OW 3035   4.296   5.063   0.964
33754SOL    HW1 3036   4.247   4.982   0.945
33754SOL    HW2 3037   4.361   5.069   0.894
33755SOL     OW 3038   1.677  12.506   7.869
33755SOL    HW1 3039   1.771  12.505   7.884
33755SOL    HW2 3040   1.667  12.539   7.780
33756SOL     OW 3041   6.041  14.863   1.497
33756SOL    HW1 3042   6.033  14.787   1.439
33756SOL    HW2 3043   6.065   0.058   1.439
33757SOL     OW 3044   5.679   3.874   8.519
33757SOL    HW1 3045   5.589   3.885   8.488
33757SOL    HW2 3046   5.733   3.876   8.440
33758SOL     OW 3047   9.562   3.641   1.452
33758SOL    HW1 3048   9.632   3.693   1.411
33758SOL    HW2 3049   9.525   3.699   1.519
33759SOL     OW 3050   0.157   6.900   0.990
33759SOL    HW1 3051   0.062   6.910   0.999
33759SOL    HW2 3052   0.176   6.928   0.901
33760SOL     OW 3053   4.155  11.200  10.922
33760SOL    HW1 3054   4.138  11.105  10.927
33760SOL    HW2 3055   4.069  11.240  10.938
33761SOL     OW 3056   2.793   3.408   1.874
33761SOL    HW1 3057   2.769   3.315   1.875
33761SOL    HW2 3058   2.865   3.415   1.937
33762SOL     OW 3059  10.746   7.600  14.135
33762SOL    HW1 3060  10.746   7.509  14.107
33762SOL    HW2 3061  10.827   7.637  14.100
33763SOL     OW 3062  12.102   8.649   4.798
33763SOL    HW1 3063  12.120   8.603   4.880
33763SOL    HW2 3064  12.160   8.608   4.735
33764SOL     OW 3065   5.741  12.419  12.426
33764SOL    HW1 3066   5.679  12.357  12.388
33764SOL    HW2 3067   5.824  12.372  12.429
33765SOL     OW 3068   9.653   3.210   1.659
33765SOL    HW1 3069   9.716   3.191   1.728
33765SOL    HW2 3070   9.615   3.125   1.636
33766SOL     OW 3071  11.167  13.184   7.071
33766SOL    HW1 3072  11.243  13.205   7.125
33766SOL    HW2 3073  11.122  13.114   7.119
33767SOL     OW 3074   8.594   6.107   3.108
33767SOL    HW1 3075   8.502   6.082   3.112
33767SOL    HW2 3076   8.594   6.192   3.064
33768SOL     OW 3077   7.894   3.690  12.552
33768SOL    HW1 3078   7.827   3.668  12.486
33768SOL    HW2 3079   7.876   3.782  12.574
33769SOL     OW 3080   0.612  12.709   6.661
33769SOL    HW1 3081   0.605  12.657   6.741
33769SOL    HW2 3082   0.674  12.661   6.606
33770SOL     OW 3083   6.220   3.386   5.826
33770SOL    HW1 3084   6.263   3.409   5.908
33770SOL    HW2 3085   6.289   3.393   5.760
33771SOL     OW 3086  14.136  12.141   6.760
33771SOL    HW1 3087  14.177  12.064   6.721
33771SOL    HW2 3088  14.161  12.136   6.852
33772SOL     OW 3089   7.829   5.017   5.267
33772SOL    HW1 3090   7.846   4.937   5.217
33772SOL    HW2 3091   7.847   4.992   5.357
33773SOL     OW 3092  10.190   4.772   3.231
33773SOL    HW1 3093  10.161   4.700   3.287
33773SOL    HW2 3094  10.109   4.813   3.201
33774SOL     OW 3095   7.152   5.051  14.830
33774SOL    HW1 3096   7.223   5.015  14.779
33774SOL    HW2 3097   7.176   5.034   0.043
33775SOL     OW 3098  12.885  12.815   3.681
33775SOL    HW1 3099  12.844  12.900   3.696
33775SOL    HW2 3100  12.819  12.752   3.708
33776SOL     OW 3101   4.403   1.305  13.864
33776SOL    HW1 3102   4.377   1.218  13.832
33776SOL    HW2 3103   4.472   1.333  13.805
33777SOL     OW 3104   6.682   9.838  12.003
33777SOL    HW1 3105   6.718   9.770  11.946
33777SOL    HW2 3106   6.654   9.790  12.081
33778SOL     OW 3107   0.595   6.620   3.276
33778SOL    HW1 3108   0.647   6.695   3.306
33778SOL    HW2 3109   0.509   6.657   3.255
33779SOL     OW 3110  13.655   5.042   6.410
33779SOL    HW1 3111  13.574   4.992   6.402
33779SOL    HW2 3112  13.701   5.027   6.328
33780SOL     OW 3113   9.927   2.040   8.799
33780SOL    HW1 3114   9.994   1.973   8.815
33780SOL    HW2 3115   9.882   2.009   8.720
33781SOL     OW 3116  10.110   8.135   0.076
33781SOL    HW1 3117  10.200   8.167   0.072
33781SOL    HW2 3118  10.092   8.103  14.865
33782SOL     OW 3119   2.019   4.270  14.024
33782SOL    HW1 3120   1.979   4.246  13.941
33782SOL    HW2 3121   1.945   4.276  14.085
33783SOL     OW 3122   3.948   1.269  11.505
33783SOL    HW1 3123   4.006   1.207  11.461
33783SOL    HW2 3124   3.902   1.313  11.434
33784SOL     OW 3125   8.507   3.105  11.257
33784SOL    HW1 3126   8.587   3.147  11.290
33784SOL    HW2 3127   8.443   3.176  11.253
33785SOL     OW 3128   0.752   1.423  13.168
33785SOL    HW1 3129   0.660   1.405  13.186
33785SOL    HW2 3130   0.774   1.365  13.096
33786SOL     OW 3131   3.603   4.845  12.726
33786SOL    HW1 3132   3.580   4.818  12.638
33786SOL    HW2 3133   3.591   4.940  12.726
33787SOL     OW 3134   2.160   3.122  13.511
33787SOL    HW1 3135   2.201   3.158  13.432
33787SOL    HW2 3136   2.229   3.072  13.554
33788SOL     OW 3137  11.943   0.545   3.191
33788SOL    HW1 3138  11.883   0.473   3.212
33788SOL    HW2 3139  11.935   0.554   3.096
33789SOL     OW 3140   7.214   2.958   4.533
33789SOL    HW1 3141   7.256   2.926   4.613
33789SOL    HW2 3142   7.121   2.966   4.556
33790SOL     OW 3143   9.925   0.439   3.012
33790SOL    HW1 3144   9.895   0.377   2.945
33790SOL    HW2 3145   9.846   0.487   3.038
33791SOL     OW 3146   7.583  14.738  14.200
33791SOL    HW1 3147   7.494  14.755  14.171
33791SOL    HW2 3148   7.586  14.643  14.215
33792SOL     OW 3149  12.425   6.581  14.310
33792SOL    HW1 3150  12.471   6.561  14.390
33792SOL    HW2 3151  12.492   6.577  14.241
33793SOL     OW 3152   6.201   8.546   8.312
33793SOL    HW1 3153   6.254   8.481   8.357
33793SOL    HW2 3154   6.264   8.597   8.261
33794SOL     OW 3155   2.662   0.823  14.540
33794SOL    HW1 3156   2.727   0.758  14.513
33794SOL    HW2 3157   2.664   0.821  14.636
33795SOL     OW 3158   5.797  12.720  14.435
33795SOL    HW1 3159   5.779  12.763  14.351
33795SOL    HW2 3160   5.893  12.716  14.440
33796SOL     OW 3161   3.607   0.684   3.190
33796SOL    HW1 3162   3.525   0.674   3.238
33796SOL    HW2 3163   3.675   0.652   3.250
33797SOL     OW 3164  13.907   8.644  12.793
33797SOL    HW1 3165  13.851   8.669  12.867
33797SOL    HW2 3166  13.915   8.549  12.799
33798SOL     OW 3167   4.155   9.499  14.227
33798SOL    HW1 3168   4.228   9.504  14.165
33798SOL    HW2 3169   4.126   9.590  14.236
33799SOL     OW 3170  13.326  11.422   9.980
33799SOL    HW1 3171  13.364  11.462  10.058
33799SOL    HW2 3172  13.390  11.356   9.953
33800SOL     OW 3173   9.172  11.632   0.584
33800SOL    HW1 3174   9.265  11.611   0.596
33800SOL    HW2 3175   9.139  11.561   0.529
33801SOL     OW 3176  10.123  12.371  10.347
33801SOL    HW1 3177  10.127  12.283  10.309
33801SOL    HW2 3178  10.182  12.424  10.294
33802SOL     OW 3179   3.159  14.718   9.749
33802SOL    HW1 3180   3.149  14.813   9.756
33802SOL    HW2 3181   3.242  14.706   9.702
33803SOL     OW 3182   7.476   7.973  10.281
33803SOL    HW1 3183   7.453   8.014  10.364
33803SOL    HW2 3184   7.392   7.953  10.239
33804SOL     OW 3185   7.296  14.572   2.344
33804SOL    HW1 3186   7.388  14.558   2.322
33804SOL    HW2 3187   7.257  14.485   2.348
33805SOL     OW 3188   2.244   2.382   4.290
33805SOL    HW1 3189   2.307   2.377   4.362
33805SOL    HW2 3190   2.296   2.411   4.215
33806SOL     OW 3191   4.549   9.134  10.185
33806SOL    HW1 3192   4.558   9.165  10.275
33806SOL    HW2 3193   4.602   9.054  10.183
33807SOL     OW 3194  13.212   3.154  13.826
33807SOL    HW1 3195  13.181   3.111  13.906
33807SOL    HW2 3196  13.297   3.114  13.809
33808SOL     OW 3197  12.776   3.898  13.325
33808SOL    HW1 3198  12.713   3.895  13.253
33808SOL    HW2 3199  12.726   3.932  13.399
33809SOL     OW 3200   0.825   7.023   7.382
33809SOL    HW1 3201   0.781   7.107   7.397
33809SOL    HW2 3202   0.909   7.032   7.426
33810SOL     OW 3203   7.277  14.767   9.420
33810SOL    HW1 3204   7.268  14.825   9.495
33810SOL    HW2 3205   7.188  14.755   9.387
33811SOL     OW 3206   7.742  12.560   5.493
33811SOL    HW1 3207   7.696  12.477   5.508
33811SOL    HW2 3208   7.683  12.627   5.527
33812SOL     OW 3209  12.252   5.808   6.405
33812SOL    HW1 3210  12.285   5.728   6.446
33812SOL    HW2 3211  12.326   5.842   6.355
33813SOL     OW 3212   6.386  10.976  12.849
33813SOL    HW1 3213   6.377  10.882  12.832
33813SOL    HW2 3214   6.322  11.017  12.791
33814SOL     OW 3215   9.924   9.235   9.542
33814SOL    HW1 3216   9.954   9.195   9.460
33814SOL    HW2 3217   9.920   9.162   9.604
33815SOL     OW 3218   9.489  14.300   0.814
33815SOL    HW1 3219   9.517  14.274   0.727
33815SOL    HW2 3220   9.491  14.395   0.813
33816SOL     OW 3221   1.145   9.666   9.563
33816SOL    HW1 3222   1.086   9.619   9.622
33816SOL    HW2 3223   1.088   9.698   9.493
33817SOL     OW 3224   4.169   1.924   8.035
33817SOL    HW1 3225   4.176   1.872   7.955
33817SOL    HW2 3226   4.077   1.949   8.039
33818SOL     OW 3227  13.760  13.501   1.710
33818SOL    HW1 3228  13.764  13.440   1.784
33818SOL    HW2 3229  13.824  13.569   1.733
33819SOL     OW 3230   6.951  13.908   0.483
33819SOL    HW1 3231   6.946  13.961   0.404
33819SOL    HW2 3232   6.877  13.937   0.537
33820SOL     OW 3233   8.992   5.282   4.268
33820SOL    HW1 3234   8.961   5.196   4.240
33820SOL    HW2 3235   9.024   5.268   4.357
33821SOL     OW 3236   0.547  13.946   0.496
33821SOL    HW1 3237   0.465  13.972   0.539
33821SOL    HW2 3238   0.577  13.870   0.545
33822SOL     OW 3239  10.707  10.407   8.397
33822SOL    HW1 3240  10.664  10.484   8.358
33822SOL    HW2 3241  10.655  10.333   8.366
33823SOL     OW 3242  11.987  11.387  11.605
33823SOL    HW1 3243  12.012  11.471  11.644
33823SOL    HW2 3244  12.053  11.371  11.537
33824SOL     OW 3245  12.666   8.967   2.727
33824SOL    HW1 3246  12.656   8.972   2.822
33824SOL    HW2 3247  12.615   8.891   2.700
33825SOL     OW 3248   6.522   9.998   3.646
33825SOL    HW1 3249   6.504  10.068   3.708
33825SOL    HW2 3250   6.443   9.944   3.647
33826SOL     OW 3251   5.147   6.441   8.665
33826SOL    HW1 3252   5.131   6.358   8.621
33826SOL    HW2 3253   5.151   6.419   8.758
33827SOL     OW 3254   3.892  14.419   7.268
33827SOL    HW1 3255   3.941  14.433   7.187
33827SOL    HW2 3256   3.952  14.370   7.324
33828SOL     OW 3257   2.083   7.834   2.343
33828SOL    HW1 3258   1.994   7.864   2.327
33828SOL    HW2 3259   2.083   7.742   2.318
33829SOL     OW 3260   7.377   1.690   5.484
33829SOL    HW1 3261   7.424   1.758   5.435
33829SOL    HW2 3262   7.293   1.681   5.438
33830SOL     OW 3263   2.717  13.331   3.207
33830SOL    HW1 3264   2.729  13.242   3.240
33830SOL    HW2 3265   2.622  13.340   3.200
33831SOL     OW 3266   8.306  13.046  10.157
33831SOL    HW1 3267   8.397  13.038  10.128
33831SOL    HW2 3268   8.272  13.121  10.109
33832SOL     OW 3269   1.379  12.260   8.106
33832SOL    HW1 3270   1.461  12.245   8.059
33832SOL    HW2 3271   1.400  12.327   8.171
33833SOL     OW 3272   4.156  11.711  11.577
33833SOL    HW1 3273   4.165  11.727  11.671
33833SOL    HW2 3274   4.063  11.690  11.566
33834SOL     OW 3275   5.366   9.065   2.139
33834SOL    HW1 3276   5.457   9.043   2.121
33834SOL    HW2 3277   5.340   9.006   2.209
33835SOL     OW 3278  13.115  11.276  10.969
33835SOL    HW1 3279  13.155  11.190  10.976
33835SOL    HW2 3280  13.177  11.336  11.012
33836SOL     OW 3281   9.007   0.328   9.188
33836SOL    HW1 3282   9.026   0.235   9.200
33836SOL    HW2 3283   8.915   0.330   9.161
33837SOL     OW 3284   1.858   2.164  12.285
33837SOL    HW1 3285   1.943   2.172  12.241
33837SOL    HW2 3286   1.874   2.104  12.358
33838SOL     OW 3287  12.567  11.614   4.442
33838SOL    HW1 3288  12.485  11.567   4.434
33838SOL    HW2 3289  12.575  11.632   4.536
33839SOL     OW 3290   3.047   8.117  11.872
33839SOL    HW1 3291   2.994   8.136  11.795
33839SOL    HW2 3292   3.137   8.113  11.839
33840SOL     OW 3293   8.151   7.389   4.624
33840SOL    HW1 3294   8.081   7.364   4.564
33840SOL    HW2 3295   8.192   7.465   4.582
33841SOL     OW 3296  10.804   3.171   9.576
33841SOL    HW1 3297  10.826   3.091   9.624
33841SOL    HW2 3298  10.777   3.140   9.490
33842SOL     OW 3299   2.775  13.541  10.754
33842SOL    HW1 3300   2.785  13.517  10.662
33842SOL    HW2 3301   2.827  13.476  10.801
33843SOL     OW 3302   0.628   3.710   2.822
33843SOL    HW1 3303   0.675   3.683   2.901
33843SOL    HW2 3304   0.629   3.806   2.824
33844SOL     OW 3305   6.399   9.012   7.127
33844SOL    HW1 3306   6.370   9.094   7.089
33844SOL    HW2 3307   6.332   8.948   7.102
33845SOL     OW 3308   3.527  12.982   3.539
33845SOL    HW1 3309   3.543  12.888   3.530
33845SOL    HW2 3310   3.520  13.013   3.448
33846SOL     OW 3311  11.391   1.119   2.151
33846SOL    HW1 3312  11.328   1.049   2.166
33846SOL    HW2 3313  11.475   1.074   2.145
33847SOL     OW 3314  10.196  10.334  13.530
33847SOL    HW1 3315  10.230  10.322  13.441
33847SOL    HW2 3316  10.270  10.315  13.587
33848SOL     OW 3317  12.052   7.605  14.815
33848SOL    HW1 3318  12.125   7.662  14.792
33848SOL    HW2 3319  12.075   7.519  14.779
33849SOL     OW 3320   4.494   4.417   4.721
33849SOL    HW1 3321   4.488   4.511   4.737
33849SOL    HW2 3322   4.403   4.389   4.711
33850SOL     OW 3323   9.170   0.532  12.929
33850SOL    HW1 3324   9.112   0.540  13.005
33850SOL    HW2 3325   9.230   0.461  12.953
33851SOL     OW 3326  13.735   4.388   1.285
33851SOL    HW1 3327  13.735   4.293   1.300
33851SOL    HW2 3328  13.719   4.397   1.191
33852SOL     OW 3329   7.742   8.092  14.069
33852SOL    HW1 3330   7.764   8.140  13.989
33852SOL    HW2 3331   7.739   8.159  14.137
33853SOL     OW 3332   0.816   4.586   4.609
33853SOL    HW1 3333   0.746   4.627   4.560
33853SOL    HW2 3334   0.777   4.507   4.646
33854SOL     OW 3335  14.662   9.652   3.461
33854SOL    HW1 3336  14.701   9.564   3.467
33854SOL    HW2 3337  14.737   9.709   3.443
33855SOL     OW 3338  14.068  13.694  12.997
33855SOL    HW1 3339  14.013  13.686  12.920
33855SOL    HW2 3340  14.108  13.781  12.990
33856SOL     OW 3341   5.876   4.939  13.433
33856SOL    HW1 3342   5.834   4.864  13.476
33856SOL    HW2 3343   5.965   4.908  13.413
33857SOL     OW 3344   6.656   2.747   3.720
33857SOL    HW1 3345   6.582   2.800   3.750
33857SOL    HW2 3346   6.666   2.770   3.628
33858SOL     OW 3347   6.634   3.351   8.208
33858SOL    HW1 3348   6.695   3.418   8.241
33858SOL    HW2 3349   6.597   3.390   8.128
33859SOL     OW 3350   5.179   0.502   9.553
33859SOL    HW1 3351   5.239   0.484   9.481
33859SOL    HW2 3352   5.092   0.506   9.512
33860SOL     OW 3353   2.614  14.808  12.474
33860SOL    HW1 3354   2.644  14.763  12.553
33860SOL    HW2 3355   2.695  14.831  12.428
33861SOL     OW 3356   1.017   0.507   5.982
33861SOL    HW1 3357   1.042   0.515   5.890
33861SOL    HW2 3358   0.975   0.422   5.989
33862SOL     OW 3359   2.989   9.441  11.238
33862SOL    HW1 3360   3.071   9.465  11.281
33862SOL    HW2 3361   2.955   9.523  11.203
33863SOL     OW 3362  13.942   2.064  14.342
33863SOL    HW1 3363  13.961   2.036  14.432
33863SOL    HW2 3364  13.963   1.987  14.289
33864SOL     OW 3365   3.523  13.790  13.750
33864SOL    HW1 3366   3.560  13.707  13.779
33864SOL    HW2 3367   3.594  13.853  13.759
33865SOL     OW 3368   4.823  10.669  12.867
33865SOL    HW1 3369   4.798  10.670  12.775
33865SOL    HW2 3370   4.912  10.703  12.868
33866SOL     OW 3371   3.912   7.406   9.648
33866SOL    HW1 3372   3.938   7.416   9.739
33866SOL    HW2 3373   3.963   7.472   9.601
33867SOL     OW 3374   8.098   0.746  11.592
33867SOL    HW1 3375   8.096   0.672  11.531
33867SOL    HW2 3376   8.062   0.710  11.674
33868SOL     OW 3377   3.394  13.179   1.090
33868SOL    HW1 3378   3.329  13.246   1.107
33868SOL    HW2 3379   3.380  13.154   0.998
33869SOL     OW 3380   0.166   5.234   5.280
33869SOL    HW1 3381   0.158   5.249   5.186
33869SOL    HW2 3382   0.176   5.139   5.288
33870SOL     OW 3383   6.579   1.548  11.413
33870SOL    HW1 3384   6.517   1.572  11.482
33870SOL    HW2 3385   6.555   1.458  11.389
33871SOL     OW 3386  12.419  14.337  14.709
33871SOL    HW1 3387  12.329  14.321  14.683
33871SOL    HW2 3388  12.470  14.269  14.664
33872SOL     OW 3389  11.546   4.332   2.876
33872SOL    HW1 3390  11.634   4.337   2.912
33872SOL    HW2 3391  11.511   4.421   2.883
33873SOL     OW 3392  10.095   3.082  12.730
33873SOL    HW1 3393  10.045   3.049  12.655
33873SOL    HW2 3394  10.186   3.074  12.703
33874SOL     OW 3395   5.689   3.886   9.306
33874SOL    HW1 3396   5.748   3.925   9.242
33874SOL    HW2 3397   5.693   3.792   9.290
33875SOL     OW 3398   9.315  12.422  11.870
33875SOL    HW1 3399   9.340  12.414  11.778
33875SOL    HW2 3400   9.378  12.367  11.916
33876SOL     OW 3401   4.818  13.314   9.119
33876SOL    HW1 3402   4.758  13.314   9.194
33876SOL    HW2 3403   4.899  13.352   9.153
33877SOL     OW 3404   8.125  12.770   7.307
33877SOL    HW1 3405   8.164  12.749   7.222
33877SOL    HW2 3406   8.175  12.718   7.370
33878SOL     OW 3407   7.153  10.142   1.507
33878SOL    HW1 3408   7.231  10.176   1.551
33878SOL    HW2 3409   7.112  10.085   1.571
33879SOL     OW 3410   1.430   1.402  14.670
33879SOL    HW1 3411   1.466   1.357  14.594
33879SOL    HW2 3412   1.365   1.342  14.705
33880SOL     OW 3413  12.529   4.016   6.294
33880SOL    HW1 3414  12.608   4.069   6.295
33880SOL    HW2 3415  12.517   3.993   6.202
33881SOL     OW 3416   9.254   5.566  10.076
33881SOL    HW1 3417   9.167   5.597  10.100
33881SOL    HW2 3418   9.239   5.490  10.021
33882SOL     OW 3419   6.130  14.063   2.367
33882SOL    HW1 3420   6.205  14.114   2.396
33882SOL    HW2 3421   6.159  14.020   2.287
33883SOL     OW 3422  13.079   1.336  14.703
33883SOL    HW1 3423  13.027   1.403  14.748
33883SOL    HW2 3424  13.169   1.355  14.729
33884SOL     OW 3425   4.441   9.303   9.584
33884SOL    HW1 3426   4.468   9.235   9.645
33884SOL    HW2 3427   4.464   9.268   9.498
33885SOL     OW 3428   6.075  10.011  10.568
33885SOL    HW1 3429   6.096  10.025  10.476
33885SOL    HW2 3430   6.010  10.079  10.587
33886SOL     OW 3431  11.135   4.197   9.673
33886SOL    HW1 3432  11.065   4.226   9.732
33886SOL    HW2 3433  11.089   4.166   9.595
33887SOL     OW 3434   6.752   6.978  13.817
33887SOL    HW1 3435   6.718   7.051  13.869
33887SOL    HW2 3436   6.757   6.905  13.878
33888SOL     OW 3437  10.705   8.466   6.993
33888SOL    HW1 3438  10.647   8.453   7.068
33888SOL    HW2 3439  10.718   8.561   6.989
33889SOL     OW 3440   6.681  12.420   2.988
33889SOL    HW1 3441   6.680  12.363   3.065
33889SOL    HW2 3442   6.743  12.377   2.928
33890SOL     OW 3443  10.680  11.480   5.997
33890SOL    HW1 3444  10.599  11.436   6.024
33890SOL    HW2 3445  10.695  11.546   6.065
33891SOL     OW 3446  11.576   1.052   3.801
33891SOL    HW1 3447  11.559   0.981   3.738
33891SOL    HW2 3448  11.598   1.006   3.882
33892SOL     OW 3449   9.587  11.406   6.382
33892SOL    HW1 3450   9.635  11.334   6.342
33892SOL    HW2 3451   9.652  11.476   6.391
33893SOL     OW 3452   7.560   0.020   8.761
33893SOL    HW1 3453   7.480   0.054   8.721
33893SOL    HW2 3454   7.547  14.803   8.766
33894SOL     OW 3455   2.246  11.252   4.825
33894SOL    HW1 3456   2.156  11.233   4.852
33894SOL    HW2 3457   2.262  11.191   4.752
33895SOL     OW 3458   8.663   0.417   1.120
33895SOL    HW1 3459   8.579   0.380   1.146
33895SOL    HW2 3460   8.649   0.511   1.117
33896SOL     OW 3461  13.248  13.362   7.944
33896SOL    HW1 3462  13.198  13.289   7.980
33896SOL    HW2 3463  13.190  13.399   7.877
33897SOL     OW 3464   2.539   5.846   9.463
33897SOL    HW1 3465   2.564   5.818   9.375
33897SOL    HW2 3466   2.618   5.888   9.498
33898SOL     OW 3467  10.948   6.396   8.033
33898SOL    HW1 3468  10.934   6.302   8.034
33898SOL    HW2 3469  10.948   6.420   7.940
33899SOL     OW 3470  10.724   9.197   6.649
33899SOL    HW1 3471  10.807   9.246   6.656
33899SOL    HW2 3472  10.704   9.200   6.555
33900SOL     OW 3473   1.594  13.438   4.738
33900SOL    HW1 3474   1.524  13.389   4.781
33900SOL    HW2 3475   1.552  13.478   4.661
33901SOL     OW 3476  14.436   4.299   2.480
33901SOL    HW1 3477  14.340   4.300   2.475
33901SOL    HW2 3478  14.461   4.390   2.465
33902SOL     OW 3479   4.070   8.407   0.081
33902SOL    HW1 3480   3.988   8.370   0.047
33902SOL    HW2 3481   4.124   8.331   0.101
33903SOL     OW 3482   6.952  11.033   0.996
33903SOL    HW1 3483   6.863  11.006   0.977
33903SOL    HW2 3484   6.974  11.095   0.926
33904SOL     OW 3485   8.938  10.582   4.635
33904SOL    HW1 3486   8.972  10.672   4.637
33904SOL    HW2 3487   9.011  10.530   4.601
33905SOL     OW 3488   7.846  13.742   1.072
33905SOL    HW1 3489   7.844  13.825   1.120
33905SOL    HW2 3490   7.786  13.685   1.120
33906SOL     OW 3491   6.697   5.490  14.842
33906SOL    HW1 3492   6.649   5.535  14.772
33906SOL    HW2 3493   6.774   5.544  14.857
33907SOL     OW 3494   9.468   1.586  13.440
33907SOL    HW1 3495   9.463   1.497  13.406
33907SOL    HW2 3496   9.529   1.580  13.514
33908SOL     OW 3497  10.358   3.301  14.691
33908SOL    HW1 3498  10.391   3.381  14.650
33908SOL    HW2 3499  10.398   3.230  14.641
33909SOL     OW 3500   4.807   1.742   5.126
33909SOL    HW1 3501   4.726   1.737   5.177
33909SOL    HW2 3502   4.875   1.714   5.187
33910SOL     OW 3503  10.831   2.270   2.701
33910SOL    HW1 3504  10.843   2.183   2.740
33910SOL    HW2 3505  10.875   2.330   2.761
33911SOL     OW 3506   6.126   2.729   0.698
33911SOL    HW1 3507   6.177   2.810   0.705
33911SOL    HW2 3508   6.171   2.678   0.632
33912SOL     OW 3509   6.117   3.765  12.569
33912SOL    HW1 3510   6.076   3.786  12.485
33912SOL    HW2 3511   6.196   3.820  12.572
33913SOL     OW 3512   2.817   7.869   9.161
33913SOL    HW1 3513   2.730   7.907   9.172
33913SOL    HW2 3514   2.807   7.777   9.188
33914SOL     OW 3515   9.567   6.842  10.348
33914SOL    HW1 3516   9.478   6.872  10.332
33914SOL    HW2 3517   9.621   6.920  10.337
33915SOL     OW 3518   0.759   8.704   7.075
33915SOL    HW1 3519   0.761   8.649   6.997
33915SOL    HW2 3520   0.787   8.790   7.044
33916SOL     OW 3521   9.824   3.517   6.527
33916SOL    HW1 3522   9.888   3.528   6.597
33916SOL    HW2 3523   9.859   3.567   6.453
33917SOL     OW 3524  14.351   5.784   1.354
33917SOL    HW1 3525  14.304   5.867   1.363
33917SOL    HW2 3526  14.360   5.751   1.443
33918SOL     OW 3527   1.767   2.550   6.980
33918SOL    HW1 3528   1.684   2.590   6.954
33918SOL    HW2 3529   1.820   2.623   7.012
33919SOL     OW 3530   3.972   8.903   8.255
33919SOL    HW1 3531   3.974   8.927   8.163
33919SOL    HW2 3532   4.033   8.965   8.297
33920SOL     OW 3533  10.036   2.660   0.098
33920SOL    HW1 3534  10.055   2.574   0.060
33920SOL    HW2 3535   9.977   2.642   0.171
33921SOL     OW 3536   9.941   3.712   2.433
33921SOL    HW1 3537   9.860   3.753   2.404
33921SOL    HW2 3538   9.944   3.730   2.527
33922SOL     OW 3539  13.273   4.021   1.844
33922SOL    HW1 3540  13.314   4.070   1.915
33922SOL    HW2 3541  13.183   4.056   1.840
33923SOL     OW 3542  14.522   0.200  12.076
33923SOL    HW1 3543  14.445   0.170  12.125
33923SOL    HW2 3544  14.515   0.295  12.075
33924SOL     OW 3545   7.020   3.340  11.338
33924SOL    HW1 3546   6.993   3.294  11.417
33924SOL    HW2 3547   7.111   3.365  11.354
33925SOL     OW 3548  12.097   7.803   8.372
33925SOL    HW1 3549  12.174   7.860   8.377
33925SOL    HW2 3550  12.107   7.754   8.291
33926SOL     OW 3551   9.530  11.097   0.400
33926SOL    HW1 3552   9.606  11.095   0.458
33926SOL    HW2 3553   9.513  11.191   0.387
33927SOL     OW 3554  14.480   7.804  11.766
33927SOL    HW1 3555  14.551   7.817  11.703
33927SOL    HW2 3556  14.506   7.853  11.844
33928SOL     OW 3557   5.905   7.495  11.317
33928SOL    HW1 3558   5.973   7.539  11.266
33928SOL    HW2 3559   5.884   7.557  11.387
33929SOL     OW 3560  13.585   1.026   1.810
33929SOL    HW1 3561  13.532   1.106   1.802
33929SOL    HW2 3562  13.559   0.972   1.736
33930SOL     OW 3563  14.530  12.683   2.735
33930SOL    HW1 3564  14.618  12.698   2.769
33930SOL    HW2 3565  14.539  12.691   2.640
33931SOL     OW 3566   7.367  12.729   9.099
33931SOL    HW1 3567   7.404  12.810   9.134
33931SOL    HW2 3568   7.395  12.661   9.161
33932SOL     OW 3569   5.856   7.522   9.570
33932SOL    HW1 3570   5.818   7.479   9.493
33932SOL    HW2 3571   5.859   7.454   9.637
33933SOL     OW 3572   2.980  12.270  12.603
33933SOL    HW1 3573   2.958  12.243  12.692
33933SOL    HW2 3574   2.897  12.267  12.556
33934SOL     OW 3575  10.787  12.438  13.294
33934SOL    HW1 3576  10.785  12.416  13.201
33934SOL    HW2 3577  10.823  12.527  13.297
33935SOL     OW 3578   7.640   8.345   5.220
33935SOL    HW1 3579   7.598   8.260   5.203
33935SOL    HW2 3580   7.669   8.375   5.134
33936SOL     OW 3581   5.820   4.127   8.765
33936SOL    HW1 3582   5.772   4.106   8.846
33936SOL    HW2 3583   5.764   4.094   8.695
33937SOL     OW 3584  11.427   2.322  11.265
33937SOL    HW1 3585  11.448   2.346  11.175
33937SOL    HW2 3586  11.487   2.375  11.318
33938SOL     OW 3587   9.758   8.827   2.035
33938SOL    HW1 3588   9.730   8.754   2.090
33938SOL    HW2 3589   9.833   8.793   1.985
33939SOL     OW 3590   5.991  13.128   1.455
33939SOL    HW1 3591   6.037  13.090   1.529
33939SOL    HW2 3592   6.061  13.160   1.397
33940SOL     OW 3593   6.937  13.620  12.003
33940SOL    HW1 3594   6.943  13.542  11.947
33940SOL    HW2 3595   7.024  13.627  12.043
33941SOL     OW 3596   8.469   8.537   9.145
33941SOL    HW1 3597   8.386   8.583   9.157
33941SOL    HW2 3598   8.530   8.584   9.201
33942SOL     OW 3599   5.090   0.612   3.552
33942SOL    HW1 3600   5.149   0.687   3.542
33942SOL    HW2 3601   5.143   0.536   3.525
33943SOL     OW 3602  11.260  13.512  12.415
33943SOL    HW1 3603  11.224  13.574  12.352
33943SOL    HW2 3604  11.196  13.440  12.417
33944SOL     OW 3605   6.609  10.842   7.436
33944SOL    HW1 3606   6.542  10.850   7.368
33944SOL    HW2 3607   6.627  10.748   7.440
33945SOL     OW 3608   3.285   9.283   9.446
33945SOL    HW1 3609   3.367   9.265   9.399
33945SOL    HW2 3610   3.216   9.262   9.383
33946SOL     OW 3611   7.051   8.855  12.561
33946SOL    HW1 3612   7.020   8.785  12.504
33946SOL    HW2 3613   6.973   8.883  12.609
33947SOL     OW 3614   2.780   4.981  13.141
33947SOL    HW1 3615   2.727   4.910  13.106
33947SOL    HW2 3616   2.848   4.938  13.192
33948SOL     OW 3617  10.071  13.508   8.583
33948SOL    HW1 3618  10.140  13.444   8.567
33948SOL    HW2 3619  10.093  13.546   8.669
33949SOL     OW 3620  10.552  10.604   8.152
33949SOL    HW1 3621  10.514  10.516   8.153
33949SOL    HW2 3622  10.489  10.657   8.104
33950SOL     OW 3623   0.299   3.582   6.500
33950SOL    HW1 3624   0.377   3.529   6.519
33950SOL    HW2 3625   0.331   3.652   6.444
33951SOL     OW 3626   4.662  14.707   1.720
33951SOL    HW1 3627   4.663  14.670   1.632
33951SOL    HW2 3628   4.738  14.668   1.764
33952SOL     OW 3629  10.773   7.101   1.585
33952SOL    HW1 3630  10.798   7.152   1.508
33952SOL    HW2 3631  10.854   7.092   1.636
33953SOL     OW 3632  14.817   9.436  10.199
33953SOL    HW1 3633  14.759   9.410  10.127
33953SOL    HW2 3634  14.758   9.452  10.273
33954SOL     OW 3635  13.766  14.718   9.742
33954SOL    HW1 3636  13.680  14.710   9.701
33954SOL    HW2 3637  13.797  14.628   9.750
33955SOL     OW 3638   2.124   8.789   7.335
33955SOL    HW1 3639   2.129   8.849   7.409
33955SOL    HW2 3640   2.206   8.740   7.338
33956SOL     OW 3641  13.282   2.925  14.761
33956SOL    HW1 3642  13.360   2.976  14.738
33956SOL    HW2 3643  13.277   2.858  14.692
33957SOL     OW 3644  11.387  13.405   4.568
33957SOL    HW1 3645  11.427  13.369   4.647
33957SOL    HW2 3646  11.417  13.496   4.565
33958SOL     OW 3647   9.700  11.386  11.532
33958SOL    HW1 3648   9.626  11.325  11.526
33958SOL    HW2 3649   9.659  11.471  11.550
33959SOL     OW 3650   2.749   9.248   6.133
33959SOL    HW1 3651   2.719   9.157   6.125
33959SOL    HW2 3652   2.733   9.287   6.047
33960SOL     OW 3653  11.523   7.320   1.311
33960SOL    HW1 3654  11.527   7.393   1.249
33960SOL    HW2 3655  11.592   7.338   1.375
33961SOL     OW 3656   7.025  12.499   2.869
33961SOL    HW1 3657   7.100  12.455   2.829
33961SOL    HW2 3658   6.953  12.437   2.860
33962SOL     OW 3659   9.050   7.478   5.805
33962SOL    HW1 3660   9.091   7.562   5.784
33962SOL    HW2 3661   9.048   7.476   5.901
33963SOL     OW 3662   3.429   1.252  14.515
33963SOL    HW1 3663   3.517   1.237  14.550
33963SOL    HW2 3664   3.425   1.347  14.503
33964SOL     OW 3665   9.836   5.409  14.107
33964SOL    HW1 3666   9.780   5.388  14.182
33964SOL    HW2 3667   9.920   5.366  14.126
33965SOL     OW 3668   5.407   4.934   9.878
33965SOL    HW1 3669   5.371   5.017   9.907
33965SOL    HW2 3670   5.330   4.882   9.852
33966SOL     OW 3671   7.236  12.887  14.795
33966SOL    HW1 3672   7.242  12.975  14.758
33966SOL    HW2 3673   7.143  12.873  14.811
33967SOL     OW 3674   2.475   1.031   7.930
33967SOL    HW1 3675   2.550   0.985   7.891
33967SOL    HW2 3676   2.416   0.961   7.957
33968SOL     OW 3677   7.157   2.055  14.458
33968SOL    HW1 3678   7.102   1.977  14.454
33968SOL    HW2 3679   7.096   2.128  14.450
33969SOL     OW 3680   2.486   5.842   5.130
33969SOL    HW1 3681   2.565   5.895   5.143
33969SOL    HW2 3682   2.425   5.873   5.197
33970SOL     OW 3683   9.801   7.471   8.164
33970SOL    HW1 3684   9.768   7.515   8.242
33970SOL    HW2 3685   9.751   7.510   8.092
33971SOL     OW 3686   9.453   5.816  11.051
33971SOL    HW1 3687   9.443   5.884  11.118
33971SOL    HW2 3688   9.523   5.849  10.995
33972SOL     OW 3689   5.144   4.134   0.871
33972SOL    HW1 3690   5.215   4.105   0.928
33972SOL    HW2 3691   5.169   4.222   0.843
33973SOL     OW 3692  14.844   9.418  13.640
33973SOL    HW1 3693   0.057   9.400  13.662
33973SOL    HW2 3694  14.799   9.424  13.725
33974SOL     OW 3695   8.656   9.012   3.332
33974SOL    HW1 3696   8.717   8.944   3.303
33974SOL    HW2 3697   8.574   8.966   3.350
33975SOL     OW 3698  11.938  13.294   3.719
33975SOL    HW1 3699  11.959  13.257   3.805
33975SOL    HW2 3700  11.913  13.219   3.666
33976SOL     OW 3701  13.752   1.991   4.758
33976SOL    HW1 3702  13.758   2.080   4.722
33976SOL    HW2 3703  13.827   1.945   4.720
33977SOL     OW 3704   2.648   1.107  11.731
33977SOL    HW1 3705   2.679   1.164  11.661
33977SOL    HW2 3706   2.554   1.097  11.713
33978SOL     OW 3707   6.481   7.110   9.021
33978SOL    HW1 3708   6.538   7.156   9.083
33978SOL    HW2 3709   6.400   7.094   9.070
33979SOL     OW 3710  13.389   7.206   4.904
33979SOL    HW1 3711  13.432   7.121   4.900
33979SOL    HW2 3712  13.403   7.236   4.993
33980SOL     OW 3713   3.532   6.475   7.450
33980SOL    HW1 3714   3.550   6.545   7.387
33980SOL    HW2 3715   3.457   6.506   7.500
33981SOL     OW 3716   6.741   7.321  12.551
33981SOL    HW1 3717   6.828   7.359  12.534
33981SOL    HW2 3718   6.683   7.397  12.553
33982SOL     OW 3719  10.639  14.552   2.744
33982SOL    HW1 3720  10.729  14.580   2.732
33982SOL    HW2 3721  10.629  14.544   2.839
33983SOL     OW 3722   7.647   5.995  11.709
33983SOL    HW1 3723   7.724   5.945  11.681
33983SOL    HW2 3724   7.586   5.987  11.635
33984SOL     OW 3725   1.403   8.090   6.624
33984SOL    HW1 3726   1.329   8.059   6.676
33984SOL    HW2 3727   1.480   8.066   6.675
33985SOL     OW 3728   5.388   8.036   7.322
33985SOL    HW1 3729   5.483   8.038   7.317
33985SOL    HW2 3730   5.361   8.128   7.313
33986SOL     OW 3731   7.721   6.605   2.708
33986SOL    HW1 3732   7.642   6.657   2.721
33986SOL    HW2 3733   7.695   6.516   2.732
33987SOL     OW 3734   3.740   3.749   2.083
33987SOL    HW1 3735   3.830   3.719   2.071
33987SOL    HW2 3736   3.703   3.689   2.148
33988SOL     OW 3737  11.825   1.626   2.181
33988SOL    HW1 3738  11.839   1.642   2.275
33988SOL    HW2 3739  11.739   1.584   2.176
33989SOL     OW 3740   1.300  12.572   2.693
33989SOL    HW1 3741   1.386  12.604   2.721
33989SOL    HW2 3742   1.257  12.543   2.773
33990SOL     OW 3743   7.531   2.063   2.848
33990SOL    HW1 3744   7.606   2.010   2.877
33990SOL    HW2 3745   7.567   2.119   2.779
33991SOL     OW 3746   1.476   2.825   1.872
33991SOL    HW1 3747   1.503   2.858   1.786
33991SOL    HW2 3748   1.558   2.801   1.915
33992SOL     OW 3749  13.279   6.983  10.181
33992SOL    HW1 3750  13.230   6.901  10.170
33992SOL    HW2 3751  13.312   6.978  10.271
33993SOL     OW 3752  10.199  11.340   7.104
33993SOL    HW1 3753  10.256  11.284   7.052
33993SOL    HW2 3754  10.144  11.385   7.040
33994SOL     OW 3755   3.692   3.550   7.648
33994SOL    HW1 3756   3.692   3.646   7.647
33994SOL    HW2 3757   3.719   3.525   7.560
33995SOL     OW 3758   4.456   8.145  14.483
33995SOL    HW1 3759   4.512   8.096  14.422
33995SOL    HW2 3760   4.368   8.138  14.445
33996SOL     OW 3761   3.057   4.388   4.089
33996SOL    HW1 3762   3.080   4.298   4.113
33996SOL    HW2 3763   3.117   4.408   4.016
33997SOL     OW 3764  14.389  14.778   6.885
33997SOL    HW1 3765  14.420  14.742   6.802
33997SOL    HW2 3766  14.408  14.872   6.879
33998SOL     OW 3767   9.277  12.780   7.066
33998SOL    HW1 3768   9.278  12.785   6.971
33998SOL    HW2 3769   9.292  12.687   7.085
33999SOL     OW 3770   1.928   4.567  14.323
33999SOL    HW1 3771   1.935   4.474  14.343
33999SOL    HW2 3772   1.893   4.569  14.234
34000SOL     OW 3773   5.033   8.420  14.325
34000SOL    HW1 3774   5.086   8.341  14.314
34000SOL    HW2 3775   5.083   8.474  14.387
34001SOL     OW 3776   3.262  10.192   0.462
34001SOL    HW1 3777   3.280  10.274   0.415
34001SOL    HW2 3778   3.347  10.166   0.498
34002SOL     OW 3779   7.973   3.812   3.003
34002SOL    HW1 3780   7.930   3.767   2.930
34002SOL    HW2 3781   8.062   3.828   2.973
34003SOL     OW 3782  10.987  12.300   0.925
34003SOL    HW1 3783  10.999  12.305   1.020
34003SOL    HW2 3784  10.922  12.232   0.912
34004SOL     OW 3785   2.735   9.984  12.669
34004SOL    HW1 3786   2.653   9.937  12.654
34004SOL    HW2 3787   2.774   9.992  12.582
34005SOL     OW 3788   9.902   4.667   8.452
34005SOL    HW1 3789   9.941   4.671   8.539
34005SOL    HW2 3790   9.950   4.597   8.407
34006SOL     OW 3791   3.466   6.586   6.855
34006SOL    HW1 3792   3.430   6.632   6.780
34006SOL    HW2 3793   3.437   6.496   6.844
34007SOL     OW 3794  11.991   4.297  13.564
34007SOL    HW1 3795  11.955   4.342  13.487
34007SOL    HW2 3796  12.077   4.267  13.536
34008SOL     OW 3797  11.429   4.668   9.489
34008SOL    HW1 3798  11.516   4.630   9.499
34008SOL    HW2 3799  11.374   4.596   9.458
34009SOL     OW 3800   8.587   9.096  10.484
34009SOL    HW1 3801   8.590   9.035  10.410
34009SOL    HW2 3802   8.529   9.054  10.547
34010SOL     OW 3803   9.412  10.007  13.669
34010SOL    HW1 3804   9.499  10.045  13.656
34010SOL    HW2 3805   9.379   9.991  13.580
34011SOL     OW 3806   1.680   6.756   8.966
34011SOL    HW1 3807   1.688   6.667   8.931
34011SOL    HW2 3808   1.767   6.776   9.001
34012SOL     OW 3809   7.049   8.658   4.366
34012SOL    HW1 3810   7.099   8.577   4.378
34012SOL    HW2 3811   6.985   8.657   4.437
34013SOL     OW 3812  13.058   9.434   8.254
34013SOL    HW1 3813  13.023   9.444   8.166
34013SOL    HW2 3814  13.134   9.377   8.243
34014SOL     OW 3815  10.409   9.878   8.041
34014SOL    HW1 3816  10.486   9.920   8.003
34014SOL    HW2 3817  10.340   9.889   7.975
34015SOL     OW 3818   5.326  12.043   9.504
34015SOL    HW1 3819   5.240  12.084   9.497
34015SOL    HW2 3820   5.380  12.090   9.441
34016SOL     OW 3821   8.916  12.267   7.501
34016SOL    HW1 3822   8.832  12.308   7.478
34016SOL    HW2 3823   8.975  12.341   7.515
34017SOL     OW 3824  14.849   1.077   7.840
34017SOL    HW1 3825  14.767   1.039   7.809
34017SOL    HW2 3826   0.031   1.069   7.767
34018SOL     OW 3827   8.258   9.103   4.487
34018SOL    HW1 3828   8.201   9.170   4.451
34018SOL    HW2 3829   8.257   9.033   4.422
34019SOL     OW 3830   4.142  10.976   5.841
34019SOL    HW1 3831   4.158  10.942   5.929
34019SOL    HW2 3832   4.079  10.914   5.803
34020SOL     OW 3833  13.352  12.304  13.523
34020SOL    HW1 3834  13.295  12.381  13.515
34020SOL    HW2 3835  13.440  12.341  13.529
34021SOL     OW 3836   6.102   6.373   6.864
34021SOL    HW1 3837   6.188   6.412   6.845
34021SOL    HW2 3838   6.096   6.298   6.805
34022SOL     OW 3839   9.637   8.521   6.391
34022SOL    HW1 3840   9.670   8.447   6.341
34022SOL    HW2 3841   9.667   8.598   6.343
34023SOL     OW 3842   6.796  14.694  13.419
34023SOL    HW1 3843   6.795  14.644  13.337
34023SOL    HW2 3844   6.834  14.634  13.483
34024SOL     OW 3845   2.363  12.645   3.296
34024SOL    HW1 3846   2.305  12.717   3.320
34024SOL    HW2 3847   2.404  12.618   3.378
34025SOL     OW 3848  13.797  13.091  12.980
34025SOL    HW1 3849  13.774  13.062  12.892
34025SOL    HW2 3850  13.874  13.146  12.968
34026SOL     OW 3851   6.894   1.681   2.282
34026SOL    HW1 3852   6.902   1.687   2.377
34026SOL    HW2 3853   6.935   1.761   2.250
34027SOL     OW 3854   6.565   0.274   6.541
34027SOL    HW1 3855   6.646   0.307   6.578
34027SOL    HW2 3856   6.505   0.349   6.543
34028SOL     OW 3857  13.782   6.302   7.198
34028SOL    HW1 3858  13.764   6.223   7.148
34028SOL    HW2 3859  13.775   6.276   7.289
34029SOL     OW 3860  13.004   9.037   9.836
34029SOL    HW1 3861  12.929   9.056   9.779
34029SOL    HW2 3862  13.079   9.076   9.791
34030SOL     OW 3863  14.528  10.103   9.830
34030SOL    HW1 3864  14.520  10.008   9.836
34030SOL    HW2 3865  14.610  10.117   9.781
34031SOL     OW 3866   1.067   0.402   3.364
34031SOL    HW1 3867   0.986   0.409   3.314
34031SOL    HW2 3868   1.047   0.441   3.449
34032SOL     OW 3869   7.681   9.560   2.248
34032SOL    HW1 3870   7.613   9.616   2.287
34032SOL    HW2 3871   7.729   9.619   2.189
34033SOL     OW 3872  12.950  12.178   3.329
34033SOL    HW1 3873  12.932  12.129   3.249
34033SOL    HW2 3874  12.863  12.202   3.362
34034SOL     OW 3875   3.128   5.170  12.490
34034SOL    HW1 3876   3.136   5.262  12.464
34034SOL    HW2 3877   3.083   5.128  12.416
34035SOL     OW 3878  12.435  10.100   0.830
34035SOL    HW1 3879  12.440  10.044   0.753
34035SOL    HW2 3880  12.498  10.169   0.814
34036SOL     OW 3881  13.974  12.302   2.995
34036SOL    HW1 3882  13.978  12.359   3.072
34036SOL    HW2 3883  14.011  12.356   2.924
34037SOL     OW 3884   6.653   1.455   2.545
34037SOL    HW1 3885   6.706   1.478   2.620
34037SOL    HW2 3886   6.571   1.424   2.582
34038SOL     OW 3887  11.781  10.453  10.988
34038SOL    HW1 3888  11.863  10.436  11.033
34038SOL    HW2 3889  11.802  10.524  10.926
34039SOL     OW 3890   5.651   8.582   0.500
34039SOL    HW1 3891   5.698   8.502   0.475
34039SOL    HW2 3892   5.626   8.622   0.416
34040SOL     OW 3893   5.072   6.072   3.990
34040SOL    HW1 3894   5.082   6.008   3.920
34040SOL    HW2 3895   5.082   6.157   3.947
34041SOL     OW 3896   7.639  12.364  13.606
34041SOL    HW1 3897   7.671  12.387  13.693
34041SOL    HW2 3898   7.552  12.403  13.601
34042SOL     OW 3899  12.884   3.522  10.501
34042SOL    HW1 3900  12.894   3.440  10.548
34042SOL    HW2 3901  12.810   3.565  10.543
34043SOL     OW 3902   8.668   6.669   3.573
34043SOL    HW1 3903   8.729   6.595   3.564
34043SOL    HW2 3904   8.707   6.724   3.641
34044SOL     OW 3905  10.458  14.314   1.792
34044SOL    HW1 3906  10.498  14.386   1.743
34044SOL    HW2 3907  10.467  14.340   1.884
34045SOL     OW 3908   2.094   9.864   7.167
34045SOL    HW1 3909   2.137   9.819   7.239
34045SOL    HW2 3910   2.163   9.877   7.102
34046SOL     OW 3911   0.870   3.028  12.200
34046SOL    HW1 3912   0.872   2.932  12.206
34046SOL    HW2 3913   0.954   3.051  12.161
34047SOL     OW 3914  12.403   3.307   1.949
34047SOL    HW1 3915  12.405   3.402   1.937
34047SOL    HW2 3916  12.382   3.295   2.042
34048SOL     OW 3917   0.543   5.077  11.149
34048SOL    HW1 3918   0.627   5.091  11.107
34048SOL    HW2 3919   0.494   5.022  11.087
34049SOL     OW 3920  10.156   0.082   0.958
34049SOL    HW1 3921  10.238   0.124   0.934
34049SOL    HW2 3922  10.089   0.145   0.931
34050SOL     OW 3923   3.790   0.023   1.959
34050SOL    HW1 3924   3.858  14.837   1.979
34050SOL    HW2 3925   3.714  14.848   1.933
34051SOL     OW 3926  11.402   1.807   3.679
34051SOL    HW1 3927  11.459   1.884   3.678
34051SOL    HW2 3928  11.419   1.764   3.595
34052SOL     OW 3929  13.389  12.143   8.310
34052SOL    HW1 3930  13.370  12.050   8.295
34052SOL    HW2 3931  13.468  12.143   8.363
34053SOL     OW 3932   2.355   2.308  12.241
34053SOL    HW1 3933   2.328   2.328  12.331
34053SOL    HW2 3934   2.450   2.321  12.242
34054SOL     OW 3935  11.036  10.543   4.239
34054SOL    HW1 3936  11.059  10.517   4.328
34054SOL    HW2 3937  10.941  10.535   4.235
34055SOL     OW 3938   6.046  13.668  10.653
34055SOL    HW1 3939   6.079  13.758  10.658
34055SOL    HW2 3940   6.096  13.621  10.719
34056SOL     OW 3941  11.396  11.205   2.407
34056SOL    HW1 3942  11.387  11.188   2.313
34056SOL    HW2 3943  11.353  11.132   2.450
34057SOL     OW 3944   7.200   5.748  13.560
34057SOL    HW1 3945   7.161   5.665  13.588
34057SOL    HW2 3946   7.191   5.806  13.635
34058SOL     OW 3947  11.078  11.068  10.754
34058SOL    HW1 3948  11.085  11.110  10.668
34058SOL    HW2 3949  11.110  11.135  10.815
34059SOL     OW 3950   1.810  10.731  14.592
34059SOL    HW1 3951   1.738  10.756  14.650
34059SOL    HW2 3952   1.867  10.808  14.589
34060SOL     OW 3953   2.190   4.712   5.269
34060SOL    HW1 3954   2.136   4.775   5.221
34060SOL    HW2 3955   2.143   4.629   5.261
34061SOL     OW 3956  11.098   2.529   9.427
34061SOL    HW1 3957  11.131   2.526   9.337
34061SOL    HW2 3958  11.163   2.482   9.479
34062SOL     OW 3959   9.513   1.155   8.834
34062SOL    HW1 3960   9.418   1.141   8.835
34062SOL    HW2 3961   9.545   1.107   8.910
34063SOL     OW 3962   5.536   2.274   4.412
34063SOL    HW1 3963   5.447   2.307   4.425
34063SOL    HW2 3964   5.524   2.188   4.373
34064SOL     OW 3965  14.013   9.943   9.497
34064SOL    HW1 3966  14.047   9.918   9.411
34064SOL    HW2 3967  14.064  10.020   9.522
34065SOL     OW 3968  13.808   5.092   6.646
34065SOL    HW1 3969  13.758   5.031   6.699
34065SOL    HW2 3970  13.764   5.091   6.560
34066SOL     OW 3971  12.316   7.042   4.268
34066SOL    HW1 3972  12.265   6.962   4.255
34066SOL    HW2 3973  12.251   7.112   4.262
34067SOL     OW 3974  13.013   1.336   4.573
34067SOL    HW1 3975  13.038   1.401   4.638
34067SOL    HW2 3976  13.016   1.383   4.490
34068SOL     OW 3977  12.899   9.991   3.667
34068SOL    HW1 3978  12.864   9.912   3.627
34068SOL    HW2 3979  12.957   9.959   3.736
34069SOL     OW 3980   1.282  11.911   8.786
34069SOL    HW1 3981   1.224  11.935   8.859
34069SOL    HW2 3982   1.241  11.951   8.709
34070SOL     OW 3983   1.814   1.936   6.517
34070SOL    HW1 3984   1.817   1.842   6.534
34070SOL    HW2 3985   1.865   1.947   6.437
34071SOL     OW 3986  13.151   9.863   8.184
34071SOL    HW1 3987  13.124   9.832   8.271
34071SOL    HW2 3988  13.089   9.823   8.124
34072SOL     OW 3989   0.775   0.848  11.736
34072SOL    HW1 3990   0.691   0.882  11.769
34072SOL    HW2 3991   0.753   0.808  11.652
34073SOL     OW 3992  12.997   8.198   1.359
34073SOL    HW1 3993  13.018   8.271   1.301
34073SOL    HW2 3994  12.985   8.238   1.445
34074SOL     OW 3995  13.130  13.410  14.464
34074SOL    HW1 3996  13.118  13.367  14.549
34074SOL    HW2 3997  13.120  13.503  14.483
34075SOL     OW 3998   5.650   7.348   1.889
34075SOL    HW1 3999   5.592   7.290   1.938
34075SOL    HW2 4000   5.599   7.376   1.813
34076SOL     OW 4001   5.923   2.557  10.307
34076SOL    HW1 4002   6.015   2.568  10.283
34076SOL    HW2 4003   5.923   2.559  10.403
34077SOL     OW 4004   3.863   5.655   1.199
34077SOL    HW1 4005   3.936   5.594   1.204
34077SOL    HW2 4006   3.786   5.599   1.187
34078SOL     OW 4007  14.428  10.803  13.658
34078SOL    HW1 4008  14.516  10.805  13.694
34078SOL    HW2 4009  14.371  10.826  13.731
34079SOL     OW 4010   9.540   3.362   6.238
34079SOL    HW1 4011   9.540   3.267   6.253
34079SOL    HW2 4012   9.455   3.392   6.272
34080SOL     OW 4013   7.615   7.246   0.337
34080SOL    HW1 4014   7.678   7.252   0.265
34080SOL    HW2 4015   7.631   7.324   0.390
34081SOL     OW 4016   4.375  13.048  10.466
34081SOL    HW1 4017   4.355  13.007  10.551
34081SOL    HW2 4018   4.464  13.019  10.446
34082SOL     OW 4019  10.725   7.663   4.116
34082SOL    HW1 4020  10.802   7.707   4.079
34082SOL    HW2 4021  10.654   7.686   4.056
34083SOL     OW 4022  10.043   0.784   9.500
34083SOL    HW1 4023  10.113   0.733   9.460
34083SOL    HW2 4024   9.965   0.728   9.494
34084SOL     OW 4025  14.824  11.604   2.158
34084SOL    HW1 4026  14.757  11.671   2.142
34084SOL    HW2 4027   0.029  11.649   2.142
34085SOL     OW 4028  11.060   0.997   1.437
34085SOL    HW1 4029  10.986   1.054   1.459
34085SOL    HW2 4030  11.115   1.051   1.380
34086SOL     OW 4031  10.838   0.405   6.730
34086SOL    HW1 4032  10.793   0.358   6.800
34086SOL    HW2 4033  10.930   0.379   6.738
34087SOL     OW 4034  10.539   8.015   6.671
34087SOL    HW1 4035  10.619   8.043   6.627
34087SOL    HW2 4036  10.483   7.982   6.601
34088SOL     OW 4037   4.617   4.153  14.072
34088SOL    HW1 4038   4.554   4.218  14.105
34088SOL    HW2 4039   4.562   4.083  14.036
34089SOL     OW 4040  14.716   7.631  11.995
34089SOL    HW1 4041  14.781   7.673  11.939
34089SOL    HW2 4042  14.660   7.582  11.935
34090SOL     OW 4043   7.830  10.135  10.597
34090SOL    HW1 4044   7.821  10.056  10.544
34090SOL    HW2 4045   7.873  10.106  10.677
34091SOL     OW 4046   1.595  12.596   6.653
34091SOL    HW1 4047   1.670  12.542   6.680
34091SOL    HW2 4048   1.539  12.535   6.604
34092SOL     OW 4049  11.445   1.904   8.422
34092SOL    HW1 4050  11.535   1.933   8.408
34092SOL    HW2 4051  11.450   1.844   8.496
34093SOL     OW 4052   1.939   9.343   5.497
34093SOL    HW1 4053   2.002   9.302   5.437
34093SOL    HW2 4054   1.853   9.316   5.465
34094SOL     OW 4055  12.494   5.783   4.019
34094SOL    HW1 4056  12.441   5.852   3.979
34094SOL    HW2 4057  12.473   5.704   3.969
34095SOL     OW 4058   6.870  14.157   1.758
34095SOL    HW1 4059   6.934  14.227   1.766
34095SOL    HW2 4060   6.921  14.082   1.726
34096SOL     OW 4061  10.218   2.443   1.485
34096SOL    HW1 4062  10.255   2.437   1.397
34096SOL    HW2 4063  10.140   2.387   1.483
34097SOL     OW 4064  14.026   3.719  12.787
34097SOL    HW1 4065  13.989   3.701  12.874
34097SOL    HW2 4066  13.985   3.654  12.730
34098SOL     OW 4067   4.693   2.284   0.550
34098SOL    HW1 4068   4.744   2.363   0.564
34098SOL    HW2 4069   4.634   2.280   0.625
34099SOL     OW 4070   1.386   4.317   3.348
34099SOL    HW1 4071   1.329   4.247   3.379
34099SOL    HW2 4072   1.328   4.377   3.300
34100SOL     OW 4073   6.644   3.224  10.344
34100SOL    HW1 4074   6.553   3.250  10.332
34100SOL    HW2 4075   6.643   3.168  10.422
34101SOL     OW 4076   4.645   5.277   5.903
34101SOL    HW1 4077   4.670   5.208   5.841
34101SOL    HW2 4078   4.682   5.248   5.987
34102SOL     OW 4079   8.447   4.956   1.208
34102SOL    HW1 4080   8.496   4.882   1.172
34102SOL    HW2 4081   8.505   4.992   1.275
34103SOL     OW 4082  11.125   7.329   1.435
34103SOL    HW1 4083  11.051   7.284   1.394
34103SOL    HW2 4084  11.093   7.418   1.452
34104SOL     OW 4085   9.418   4.763  14.442
34104SOL    HW1 4086   9.349   4.765  14.508
34104SOL    HW2 4087   9.495   4.800  14.486
34105SOL     OW 4088  11.448  13.590   5.314
34105SOL    HW1 4089  11.363  13.549   5.298
34105SOL    HW2 4090  11.463  13.645   5.237
34106SOL     OW 4091   5.977  11.852  12.333
34106SOL    HW1 4092   6.011  11.770  12.368
34106SOL    HW2 4093   5.920  11.886  12.401
34107SOL     OW 4094   8.858   1.290   0.726
34107SOL    HW1 4095   8.874   1.330   0.812
34107SOL    HW2 4096   8.866   1.196   0.743
34108SOL     OW 4097   5.367   6.545  14.686
34108SOL    HW1 4098   5.305   6.473  14.695
34108SOL    HW2 4099   5.329   6.617  14.736
34109SOL     OW 4100   4.009   6.967  11.216
34109SOL    HW1 4101   4.039   6.988  11.127
34109SOL    HW2 4102   3.917   6.941  11.205
34110SOL     OW 4103   8.148   6.488   2.527
34110SOL    HW1 4104   8.190   6.450   2.450
34110SOL    HW2 4105   8.181   6.578   2.531
34111SOL     OW 4106   2.496   9.331   6.545
34111SOL    HW1 4107   2.572   9.389   6.546
34111SOL    HW2 4108   2.526   9.252   6.500
34112SOL     OW 4109  14.548   1.218   8.130
34112SOL    HW1 4110  14.611   1.281   8.095
34112SOL    HW2 4111  14.506   1.264   8.202
34113SOL     OW 4112   9.137   0.563   4.321
34113SOL    HW1 4113   9.228   0.590   4.313
34113SOL    HW2 4114   9.129   0.489   4.260
34114SOL     OW 4115   9.619   1.964   4.094
34114SOL    HW1 4116   9.547   2.009   4.050
34114SOL    HW2 4117   9.626   2.006   4.179
34115SOL     OW 4118   4.575   0.013   9.124
34115SOL    HW1 4119   4.608   0.089   9.075
34115SOL    HW2 4120   4.546   0.049   9.207
34116SOL     OW 4121  12.412   7.762   2.732
34116SOL    HW1 4122  12.438   7.732   2.645
34116SOL    HW2 4123  12.468   7.713   2.792
34117SOL     OW 4124  13.555  12.727  14.468
34117SOL    HW1 4125  13.505  12.657  14.508
34117SOL    HW2 4126  13.526  12.806  14.514
34118SOL     OW 4127   5.941   6.726   3.796
34118SOL    HW1 4128   5.958   6.714   3.889
34118SOL    HW2 4129   5.892   6.648   3.770
34119SOL     OW 4130  13.095  12.484   4.488
34119SOL    HW1 4131  13.089  12.462   4.395
34119SOL    HW2 4132  13.182  12.456   4.514
34120SOL     OW 4133   3.914   1.579   1.638
34120SOL    HW1 4134   3.890   1.627   1.717
34120SOL    HW2 4135   3.833   1.571   1.588
34121SOL     OW 4136  13.786   2.460   3.955
34121SOL    HW1 4137  13.856   2.525   3.971
34121SOL    HW2 4138  13.744   2.490   3.875
34122SOL     OW 4139   9.568   9.173   5.247
34122SOL    HW1 4140   9.488   9.134   5.283
34122SOL    HW2 4141   9.638   9.112   5.272
34123SOL     OW 4142  13.793   6.983   5.404
34123SOL    HW1 4143  13.792   6.980   5.308
34123SOL    HW2 4144  13.826   7.070   5.425
34124SOL     OW 4145   3.372   7.157   6.368
34124SOL    HW1 4146   3.300   7.111   6.324
34124SOL    HW2 4147   3.354   7.145   6.461
34125SOL     OW 4148  13.924   1.257   4.183
34125SOL    HW1 4149  13.854   1.322   4.176
34125SOL    HW2 4150  13.880   1.177   4.212
34126SOL     OW 4151   2.182   8.243  11.438
34126SOL    HW1 4152   2.212   8.218  11.526
34126SOL    HW2 4153   2.250   8.301  11.405
34127SOL     OW 4154   0.955  14.437   2.558
34127SOL    HW1 4155   0.996  14.456   2.643
34127SOL    HW2 4156   0.864  14.417   2.580
34128SOL     OW 4157   4.633   3.445   4.879
34128SOL    HW1 4158   4.545   3.418   4.852
34128SOL    HW2 4159   4.687   3.432   4.801
34129SOL     OW 4160  14.573   3.579   0.392
34129SOL    HW1 4161  14.519   3.654   0.418
34129SOL    HW2 4162  14.648   3.618   0.347
34130SOL     OW 4163   4.547   0.257  12.474
34130SOL    HW1 4164   4.534   0.164  12.494
34130SOL    HW2 4165   4.466   0.299  12.504
34131SOL     OW 4166   6.071  12.684   3.152
34131SOL    HW1 4167   6.139  12.738   3.191
34131SOL    HW2 4168   6.013  12.662   3.225
34132SOL     OW 4169   3.409   8.006   1.874
34132SOL    HW1 4170   3.422   7.919   1.837
34132SOL    HW2 4171   3.315   8.015   1.884
34133SOL     OW 4172  12.784   2.129   3.495
34133SOL    HW1 4173  12.700   2.095   3.527
34133SOL    HW2 4174  12.777   2.123   3.400
34134SOL     OW 4175  10.654  10.060   8.533
34134SOL    HW1 4176  10.651  10.101   8.619
34134SOL    HW2 4177  10.568  10.077   8.495
34135SOL     OW 4178  10.277  12.240   3.440
34135SOL    HW1 4179  10.245  12.294   3.512
34135SOL    HW2 4180  10.226  12.269   3.364
34136SOL     OW 4181   6.435   6.030   8.775
34136SOL    HW1 4182   6.500   6.015   8.844
34136SOL    HW2 4183   6.401   6.118   8.793
34137SOL     OW 4184  11.492  13.302   4.793
34137SOL    HW1 4185  11.474  13.283   4.885
34137SOL    HW2 4186  11.585  13.321   4.790
34138SOL     OW 4187  11.206  10.294  12.287
34138SOL    HW1 4188  11.191  10.289  12.381
34138SOL    HW2 4189  11.130  10.342  12.253
34139SOL     OW 4190  13.697   2.350   9.246
34139SOL    HW1 4191  13.636   2.373   9.315
34139SOL    HW2 4192  13.642   2.319   9.174
34140SOL     OW 4193  13.668   3.289   1.974
34140SOL    HW1 4194  13.590   3.344   1.971
34140SOL    HW2 4195  13.636   3.206   2.010
34141SOL     OW 4196   9.844   6.373  12.746
34141SOL    HW1 4197   9.886   6.459  12.742
34141SOL    HW2 4198   9.812   6.366  12.836
34142SOL     OW 4199   1.358  14.733   6.396
34142SOL    HW1 4200   1.291  14.683   6.350
34142SOL    HW2 4201   1.310  14.774   6.469
34143SOL     OW 4202   0.020   1.356   0.302
34143SOL    HW1 4203   0.022   1.386   0.211
34143SOL    HW2 4204   0.088   1.288   0.306
34144SOL     OW 4205   3.385   8.055   4.252
34144SOL    HW1 4206   3.476   8.049   4.220
34144SOL    HW2 4207   3.332   8.046   4.173
34145SOL     OW 4208   0.372   2.360   7.404
34145SOL    HW1 4209   0.286   2.319   7.416
34145SOL    HW2 4210   0.435   2.289   7.420
34146SOL     OW 4211   0.350   2.615   6.470
34146SOL    HW1 4212   0.445   2.630   6.477
34146SOL    HW2 4213   0.330   2.632   6.378
34147SOL     OW 4214   0.098   5.996   0.933
34147SOL    HW1 4215   0.140   5.915   0.904
34147SOL    HW2 4216   0.005   5.974   0.937
34148SOL     OW 4217   8.989  13.812  14.316
34148SOL    HW1 4218   9.084  13.802  14.309
34148SOL    HW2 4219   8.973  13.823  14.410
34149SOL     OW 4220  12.065   2.829   6.155
34149SOL    HW1 4221  12.001   2.802   6.090
34149SOL    HW2 4222  12.146   2.784   6.129
34150SOL     OW 4223   6.373   2.455   3.829
34150SOL    HW1 4224   6.427   2.471   3.906
34150SOL    HW2 4225   6.424   2.490   3.756
34151SOL     OW 4226  10.777  13.282   9.110
34151SOL    HW1 4227  10.862  13.287   9.154
34151SOL    HW2 4228  10.720  13.239   9.174
34152SOL     OW 4229   8.274   6.945   9.241
34152SOL    HW1 4230   8.346   6.993   9.282
34152SOL    HW2 4231   8.314   6.864   9.210
34153SOL     OW 4232  14.853   1.499  12.343
34153SOL    HW1 4233   0.042   1.441  12.380
34153SOL    HW2 4234  14.877   1.586  12.375
34154SOL     OW 4235   7.788   9.577  12.467
34154SOL    HW1 4236   7.787   9.665  12.431
34154SOL    HW2 4237   7.797   9.589  12.561
34155SOL     OW 4238   7.898   7.312  12.145
34155SOL    HW1 4239   7.850   7.323  12.063
34155SOL    HW2 4240   7.883   7.394  12.192
34156SOL     OW 4241   2.771   4.048  12.296
34156SOL    HW1 4242   2.817   4.128  12.273
34156SOL    HW2 4243   2.818   4.015  12.373
34157SOL     OW 4244   5.962   0.457  10.806
34157SOL    HW1 4245   6.034   0.398  10.783
34157SOL    HW2 4246   5.888   0.427  10.754
34158SOL     OW 4247   1.389  11.412   6.474
34158SOL    HW1 4248   1.428  11.459   6.400
34158SOL    HW2 4249   1.463  11.366   6.514
34159SOL     OW 4250  14.676   0.493   8.936
34159SOL    HW1 4251  14.769   0.472   8.943
34159SOL    HW2 4252  14.632   0.409   8.945
34160SOL     OW 4253   9.437   3.120   3.950
34160SOL    HW1 4254   9.449   3.182   3.878
34160SOL    HW2 4255   9.342   3.109   3.956
34161SOL     OW 4256  12.509   7.774  10.125
34161SOL    HW1 4257  12.508   7.787  10.219
34161SOL    HW2 4258  12.464   7.851  10.089
34162SOL     OW 4259  14.857   7.969   9.216
34162SOL    HW1 4260  14.790   8.013   9.269
34162SOL    HW2 4261  14.870   7.885   9.259
34163SOL     OW 4262   9.318   6.686   3.733
34163SOL    HW1 4263   9.278   6.773   3.728
34163SOL    HW2 4264   9.370   6.680   3.653
34164SOL     OW 4265   2.378   2.473   1.204
34164SOL    HW1 4266   2.285   2.447   1.204
34164SOL    HW2 4267   2.419   2.412   1.266
34165SOL     OW 4268  14.539  10.926   4.318
34165SOL    HW1 4269  14.621  10.968   4.347
34165SOL    HW2 4270  14.484  10.925   4.397
34166SOL     OW 4271   2.404  13.849  14.725
34166SOL    HW1 4272   2.314  13.820  14.738
34166SOL    HW2 4273   2.445  13.838  14.810
34167SOL     OW 4274   2.601   5.861  13.141
34167SOL    HW1 4275   2.583   5.809  13.219
34167SOL    HW2 4276   2.692   5.840  13.119
34168SOL     OW 4277  13.773  14.343  12.875
34168SOL    HW1 4278  13.856  14.389  12.867
34168SOL    HW2 4279  13.750  14.349  12.967
34169SOL     OW 4280   1.029   2.263   4.979
34169SOL    HW1 4281   1.035   2.304   5.066
34169SOL    HW2 4282   1.116   2.277   4.941
34170SOL     OW 4283  12.914  10.316  12.945
34170SOL    HW1 4284  12.950  10.281  13.027
34170SOL    HW2 4285  12.898  10.408  12.963
34171SOL     OW 4286  12.746   9.762   6.007
34171SOL    HW1 4287  12.701   9.822   5.947
34171SOL    HW2 4288  12.830   9.745   5.966
34172SOL     OW 4289   1.583   2.261   1.617
34172SOL    HW1 4290   1.662   2.297   1.658
34172SOL    HW2 4291   1.587   2.167   1.636
34173SOL     OW 4292   3.723   4.366  12.624
34173SOL    HW1 4293   3.731   4.438  12.687
34173SOL    HW2 4294   3.735   4.406  12.539
34174SOL     OW 4295   2.644  12.664  12.026
34174SOL    HW1 4296   2.693  12.725  11.971
34174SOL    HW2 4297   2.613  12.717  12.099
34175SOL     OW 4298   6.472  14.571  14.426
34175SOL    HW1 4299   6.563  14.570  14.455
34175SOL    HW2 4300   6.475  14.613  14.340
34176SOL     OW 4301  12.692  13.283   0.703
34176SOL    HW1 4302  12.703  13.269   0.609
34176SOL    HW2 4303  12.763  13.343   0.726
34177SOL     OW 4304  12.521  10.988  13.700
34177SOL    HW1 4305  12.481  10.939  13.629
34177SOL    HW2 4306  12.615  10.972  13.691
34178SOL     OW 4307   7.841   4.228   1.155
34178SOL    HW1 4308   7.827   4.243   1.249
34178SOL    HW2 4309   7.891   4.304   1.126
34179SOL     OW 4310   4.576   3.759  14.858
34179SOL    HW1 4311   4.599   3.851  14.873
34179SOL    HW2 4312   4.533   3.759  14.773
34180SOL     OW 4313   2.394   7.366   7.683
34180SOL    HW1 4314   2.422   7.415   7.760
34180SOL    HW2 4315   2.372   7.434   7.618
34181SOL     OW 4316   1.745  14.856   2.346
34181SOL    HW1 4317   1.668  14.803   2.369
34181SOL    HW2 4318   1.754   0.039   2.420
34182SOL     OW 4319  12.263   1.999   9.797
34182SOL    HW1 4320  12.195   2.051   9.839
34182SOL    HW2 4321  12.217   1.922   9.764
34183SOL     OW 4322  13.029  13.794   3.863
34183SOL    HW1 4323  13.105  13.847   3.838
34183SOL    HW2 4324  12.972  13.796   3.785
34184SOL     OW 4325  14.265  13.237   6.259
34184SOL    HW1 4326  14.309  13.186   6.327
34184SOL    HW2 4327  14.181  13.192   6.245
34185SOL     OW 4328  14.361   3.351  12.628
34185SOL    HW1 4329  14.455   3.347  12.645
34185SOL    HW2 4330  14.338   3.442  12.647
34186SOL     OW 4331  10.947   8.809   7.824
34186SOL    HW1 4332  10.880   8.753   7.863
34186SOL    HW2 4333  10.904   8.894   7.814
34187SOL     OW 4334   0.105  14.732  13.054
34187SOL    HW1 4335   0.054  14.652  13.049
34187SOL    HW2 4336   0.068  14.780  13.128
34188SOL     OW 4337   9.072   0.722   3.358
34188SOL    HW1 4338   9.053   0.802   3.408
34188SOL    HW2 4339   9.027   0.653   3.406
34189SOL     OW 4340   7.680   9.412   7.483
34189SOL    HW1 4341   7.631   9.336   7.451
34189SOL    HW2 4342   7.692   9.467   7.407
34190SOL     OW 4343  10.944   8.199  12.585
34190SOL    HW1 4344  10.902   8.265  12.530
34190SOL    HW2 4345  10.905   8.211  12.672
34191SOL     OW 4346  11.985   2.260  11.027
34191SOL    HW1 4347  12.067   2.262  10.977
34191SOL    HW2 4348  11.917   2.276  10.963
34192SOL     OW 4349   7.631   4.966  10.246
34192SOL    HW1 4350   7.698   4.899  10.261
34192SOL    HW2 4351   7.579   4.932  10.174
34193SOL     OW 4352   4.684  14.281  12.021
34193SOL    HW1 4353   4.725  14.213  11.968
34193SOL    HW2 4354   4.636  14.233  12.088
34194SOL     OW 4355  12.631  11.757   0.527
34194SOL    HW1 4356  12.575  11.686   0.559
34194SOL    HW2 4357  12.622  11.754   0.432
34195SOL     OW 4358   5.692   7.223   1.530
34195SOL    HW1 4359   5.618   7.249   1.585
34195SOL    HW2 4360   5.750   7.174   1.588
34196SOL     OW 4361   4.277   9.401  10.176
34196SOL    HW1 4362   4.244   9.424  10.090
34196SOL    HW2 4363   4.205   9.357  10.219
34197SOL     OW 4364   3.598  10.866  14.215
34197SOL    HW1 4365   3.646  10.834  14.291
34197SOL    HW2 4366   3.597  10.793  14.154
34198SOL     OW 4367   1.781  10.346   7.304
34198SOL    HW1 4368   1.706  10.379   7.353
34198SOL    HW2 4369   1.752  10.261   7.270
34199SOL     OW 4370  11.523  11.655   8.863
34199SOL    HW1 4371  11.484  11.719   8.803
34199SOL    HW2 4372  11.556  11.707   8.936
34200SOL     OW 4373   3.522   1.284   1.895
34200SOL    HW1 4374   3.534   1.288   1.800
34200SOL    HW2 4375   3.449   1.224   1.908
34201SOL     OW 4376   1.872   1.809   6.140
34201SOL    HW1 4377   1.916   1.804   6.055
34201SOL    HW2 4378   1.837   1.721   6.154
34202SOL     OW 4379   2.534  13.693   7.502
34202SOL    HW1 4380   2.441  13.686   7.525
34202SOL    HW2 4381   2.580  13.687   7.586
34203SOL     OW 4382   6.679  14.039   3.509
34203SOL    HW1 4383   6.736  14.114   3.493
34203SOL    HW2 4384   6.685  14.024   3.604
34204SOL     OW 4385  11.766   6.988  13.868
34204SOL    HW1 4386  11.697   6.960  13.927
34204SOL    HW2 4387  11.758   6.931  13.792
34205SOL     OW 4388  10.757  12.854   3.282
34205SOL    HW1 4389  10.665  12.827   3.278
34205SOL    HW2 4390  10.758  12.943   3.247
34206SOL     OW 4391   9.564  10.595  10.183
34206SOL    HW1 4392   9.494  10.538  10.215
34206SOL    HW2 4393   9.526  10.640  10.107
34207SOL     OW 4394   4.894   1.075  10.145
34207SOL    HW1 4395   4.937   1.134  10.083
34207SOL    HW2 4396   4.834   1.132  10.194
34208SOL     OW 4397   4.166   7.309   3.958
34208SOL    HW1 4398   4.233   7.321   3.890
34208SOL    HW2 4399   4.138   7.397   3.981
34209SOL     OW 4400  14.541   6.838   2.538
34209SOL    HW1 4401  14.634   6.813   2.545
34209SOL    HW2 4402  14.526   6.895   2.614
34210SOL     OW 4403   2.630   0.982   1.992
34210SOL    HW1 4404   2.669   1.010   1.909
34210SOL    HW2 4405   2.539   0.963   1.971
34211SOL     OW 4406   6.953   2.971   0.041
34211SOL    HW1 4407   6.928   2.918   0.117
34211SOL    HW2 4408   6.905   3.053   0.053
34212SOL     OW 4409   9.097   5.823   9.452
34212SOL    HW1 4410   9.185   5.857   9.472
34212SOL    HW2 4411   9.098   5.733   9.485
34213SOL     OW 4412   2.625  11.091   6.082
34213SOL    HW1 4413   2.589  11.075   5.995
34213SOL    HW2 4414   2.630  11.004   6.122
34214SOL     OW 4415   9.652   9.503   2.067
34214SOL    HW1 4416   9.647   9.536   2.156
34214SOL    HW2 4417   9.675   9.579   2.014
34215SOL     OW 4418   4.840  13.684   5.475
34215SOL    HW1 4419   4.896  13.614   5.507
34215SOL    HW2 4420   4.820  13.660   5.385
34216SOL     OW 4421   0.908   3.111   5.045
34216SOL    HW1 4422   0.865   3.133   5.128
34216SOL    HW2 4423   0.988   3.066   5.072
34217SOL     OW 4424  14.629  10.222   8.177
34217SOL    HW1 4425  14.659  10.210   8.267
34217SOL    HW2 4426  14.608  10.134   8.147
34218SOL     OW 4427  10.659   4.594  10.676
34218SOL    HW1 4428  10.744   4.551  10.685
34218SOL    HW2 4429  10.662   4.668  10.737
34219SOL     OW 4430  13.185   3.891  12.943
34219SOL    HW1 4431  13.189   3.976  12.899
34219SOL    HW2 4432  13.146   3.911  13.029
34220SOL     OW 4433   1.449   7.815  14.625
34220SOL    HW1 4434   1.509   7.886  14.607
34220SOL    HW2 4435   1.439   7.769  14.541
34221SOL     OW 4436   2.425   5.177   8.685
34221SOL    HW1 4437   2.447   5.270   8.683
34221SOL    HW2 4438   2.463   5.145   8.767
34222SOL     OW 4439  12.391   2.190   9.608
34222SOL    HW1 4440  12.334   2.140   9.667
34222SOL    HW2 4441  12.409   2.271   9.655
34223SOL     OW 4442   6.067   7.038   1.413
34223SOL    HW1 4443   6.064   6.952   1.372
34223SOL    HW2 4444   6.033   7.023   1.501
34224SOL     OW 4445   2.139   3.318   5.437
34224SOL    HW1 4446   2.084   3.358   5.369
34224SOL    HW2 4447   2.091   3.333   5.518
34225SOL     OW 4448   2.466  14.364   3.632
34225SOL    HW1 4449   2.507  14.408   3.558
34225SOL    HW2 4450   2.494  14.414   3.708
34226SOL     OW 4451   1.707   0.556   6.352
34226SOL    HW1 4452   1.715   0.592   6.263
34226SOL    HW2 4453   1.637   0.491   6.345
34227SOL     OW 4454  14.044  14.804   0.661
34227SOL    HW1 4455  14.078  14.785   0.573
34227SOL    HW2 4456  14.097  14.877   0.693
34228SOL     OW 4457   1.292   6.792   4.133
34228SOL    HW1 4458   1.308   6.699   4.153
34228SOL    HW2 4459   1.198   6.803   4.145
34229SOL     OW 4460   2.107   8.582   5.531
34229SOL    HW1 4461   2.033   8.530   5.562
34229SOL    HW2 4462   2.183   8.541   5.574
34230SOL     OW 4463   5.604   0.581  10.789
34230SOL    HW1 4464   5.624   0.498  10.745
34230SOL    HW2 4465   5.510   0.593  10.777
34231SOL     OW 4466   2.815  14.501   2.924
34231SOL    HW1 4467   2.900  14.544   2.934
34231SOL    HW2 4468   2.781  14.533   2.840
34232SOL     OW 4469   5.186  14.699   3.781
34232SOL    HW1 4470   5.252  14.733   3.721
34232SOL    HW2 4471   5.131  14.775   3.802
34233SOL     OW 4472   0.383  14.670   0.005
34233SOL    HW1 4473   0.433  14.600  14.840
34233SOL    HW2 4474   0.417  14.751  14.844
34234SOL     OW 4475   7.977   5.064   2.617
34234SOL    HW1 4476   7.951   5.070   2.709
34234SOL    HW2 4477   8.045   4.997   2.616
34235SOL     OW 4478   7.518  10.564   0.749
34235SOL    HW1 4479   7.530  10.657   0.730
34235SOL    HW2 4480   7.426  10.557   0.777
34236SOL     OW 4481   8.796   3.539   6.388
34236SOL    HW1 4482   8.805   3.606   6.321
34236SOL    HW2 4483   8.740   3.472   6.348
34237SOL     OW 4484   3.927  13.184   4.620
34237SOL    HW1 4485   3.906  13.163   4.529
34237SOL    HW2 4486   4.021  13.199   4.620
34238SOL     OW 4487   1.028   7.243   3.744
34238SOL    HW1 4488   0.935   7.228   3.761
34238SOL    HW2 4489   1.062   7.157   3.722
34239SOL     OW 4490   4.722   4.669   4.110
34239SOL    HW1 4491   4.669   4.638   4.036
34239SOL    HW2 4492   4.687   4.622   4.186
34240SOL     OW 4493   0.318   1.869  11.671
34240SOL    HW1 4494   0.274   1.785  11.686
34240SOL    HW2 4495   0.403   1.844  11.635
34241SOL     OW 4496   6.862   2.279  14.766
34241SOL    HW1 4497   6.901   2.364  14.746
34241SOL    HW2 4498   6.772   2.285  14.735
34242SOL     OW 4499  13.072   7.238   8.387
34242SOL    HW1 4500  13.038   7.316   8.343
34242SOL    HW2 4501  13.166   7.238   8.367
34243SOL     OW 4502   4.814   0.070   6.038
34243SOL    HW1 4503   4.762  14.874   6.008
34243SOL    HW2 4504   4.890   0.071   5.979
34244SOL     OW 4505   7.628   8.810   2.457
34244SOL    HW1 4506   7.624   8.763   2.374
34244SOL    HW2 4507   7.559   8.770   2.511
34245SOL     OW 4508   8.653   2.680  14.623
34245SOL    HW1 4509   8.714   2.617  14.585
34245SOL    HW2 4510   8.676   2.684  14.715
34246SOL     OW 4511  12.885   6.186   8.817
34246SOL    HW1 4512  12.800   6.161   8.781
34246SOL    HW2 4513  12.925   6.240   8.749
34247SOL     OW 4514   4.424   1.223   3.184
34247SOL    HW1 4515   4.424   1.139   3.229
34247SOL    HW2 4516   4.459   1.203   3.097
34248SOL     OW 4517   1.541   5.780  14.875
34248SOL    HW1 4518   1.631   5.787   0.029
34248SOL    HW2 4519   1.548   5.794  14.780
34249SOL     OW 4520  13.721   6.821   0.762
34249SOL    HW1 4521  13.785   6.756   0.735
34249SOL    HW2 4522  13.702   6.870   0.682
34250SOL     OW 4523   4.356  13.005   1.475
34250SOL    HW1 4524   4.384  13.055   1.552
34250SOL    HW2 4525   4.426  12.941   1.462
34251SOL     OW 4526   7.184   9.539   4.211
34251SOL    HW1 4527   7.172   9.568   4.301
34251SOL    HW2 4528   7.275   9.509   4.207
34252SOL     OW 4529  14.401  14.743  12.428
34252SOL    HW1 4530  14.477  14.753  12.370
34252SOL    HW2 4531  14.415  14.659  12.471
34253SOL     OW 4532  10.616  13.812   8.426
34253SOL    HW1 4533  10.560  13.772   8.360
34253SOL    HW2 4534  10.579  13.900   8.439
34254SOL     OW 4535   5.077   0.454   6.126
34254SOL    HW1 4536   5.032   0.530   6.087
34254SOL    HW2 4537   5.096   0.397   6.052
34255SOL     OW 4538   7.881   5.629  13.434
34255SOL    HW1 4539   7.917   5.623  13.523
34255SOL    HW2 4540   7.936   5.571  13.382
34256SOL     OW 4541   5.887  14.599   1.141
34256SOL    HW1 4542   5.947  14.582   1.213
34256SOL    HW2 4543   5.943  14.628   1.069
34257SOL     OW 4544   3.104   1.581   1.332
34257SOL    HW1 4545   3.111   1.490   1.306
34257SOL    HW2 4546   3.011   1.602   1.324
34258SOL     OW 4547  12.202   0.174   3.011
34258SOL    HW1 4548  12.155   0.215   3.083
34258SOL    HW2 4549  12.289   0.156   3.047
34259SOL     OW 4550   3.033   6.288   2.310
34259SOL    HW1 4551   3.115   6.244   2.329
34259SOL    HW2 4552   2.996   6.307   2.396
34260SOL     OW 4553  13.530   0.133   2.423
34260SOL    HW1 4554  13.556   0.212   2.471
34260SOL    HW2 4555  13.558   0.149   2.333
34261SOL     OW 4556  14.418  12.349   7.424
34261SOL    HW1 4557  14.468  12.376   7.347
34261SOL    HW2 4558  14.459  12.268   7.452
34262SOL     OW 4559  14.451  12.048   0.367
34262SOL    HW1 4560  14.522  11.983   0.368
34262SOL    HW2 4561  14.422  12.052   0.458
34263SOL     OW 4562   9.827   5.004   3.596
34263SOL    HW1 4563   9.818   4.975   3.505
34263SOL    HW2 4564   9.921   5.003   3.611
34264SOL     OW 4565   2.177   4.018   6.391
34264SOL    HW1 4566   2.223   3.985   6.313
34264SOL    HW2 4567   2.208   3.962   6.462
34265SOL     OW 4568   2.454   7.667   7.710
34265SOL    HW1 4569   2.378   7.722   7.727
34265SOL    HW2 4570   2.515   7.723   7.663
34266SOL     OW 4571   6.119   7.254  12.293
34266SOL    HW1 4572   6.074   7.218  12.370
34266SOL    HW2 4573   6.052   7.300  12.245
34267SOL     OW 4574  13.549  13.306   5.453
34267SOL    HW1 4575  13.462  13.324   5.487
34267SOL    HW2 4576  13.569  13.218   5.483
34268SOL     OW 4577  13.956   8.930  12.376
34268SOL    HW1 4578  13.874   8.964  12.412
34268SOL    HW2 4579  13.928   8.858  12.318
34269SOL     OW 4580  12.053   2.467  13.351
34269SOL    HW1 4581  11.996   2.403  13.395
34269SOL    HW2 4582  12.071   2.533  13.418
34270SOL     OW 4583   3.116   7.685   6.671
34270SOL    HW1 4584   3.196   7.695   6.621
34270SOL    HW2 4585   3.059   7.755   6.640
34271SOL     OW 4586  13.561   8.661   2.093
34271SOL    HW1 4587  13.474   8.622   2.105
34271SOL    HW2 4588  13.592   8.678   2.182
34272SOL     OW 4589  13.210   4.355   9.886
34272SOL    HW1 4590  13.163   4.433   9.914
34272SOL    HW2 4591  13.271   4.386   9.819
34273SOL     OW 4592   5.062  12.394   2.532
34273SOL    HW1 4593   5.153  12.424   2.531
34273SOL    HW2 4594   5.053  12.341   2.452
34274SOL     OW 4595   3.403  12.058   6.610
34274SOL    HW1 4596   3.333  12.123   6.607
34274SOL    HW2 4597   3.365  11.984   6.658
34275SOL     OW 4598  12.789   7.597  13.161
34275SOL    HW1 4599  12.839   7.678  13.164
34275SOL    HW2 4600  12.852   7.529  13.185
34276SOL     OW 4601   5.161   2.306   8.614
34276SOL    HW1 4602   5.232   2.262   8.569
34276SOL    HW2 4603   5.094   2.320   8.547
34277SOL     OW 4604  12.508   1.118   3.646
34277SOL    HW1 4605  12.424   1.080   3.669
34277SOL    HW2 4606  12.556   1.123   3.729
34278SOL     OW 4607  14.779   9.284   5.901
34278SOL    HW1 4608  14.785   9.221   5.829
34278SOL    HW2 4609  14.710   9.249   5.957
34279SOL     OW 4610  11.092  10.315  12.573
34279SOL    HW1 4611  11.173  10.342  12.615
34279SOL    HW2 4612  11.027  10.319  12.643
34280SOL     OW 4613   8.097  12.796  12.055
34280SOL    HW1 4614   8.043  12.744  11.997
34280SOL    HW2 4615   8.113  12.739  12.131
34281SOL     OW 4616   1.230   9.613   7.265
34281SOL    HW1 4617   1.280   9.547   7.314
34281SOL    HW2 4618   1.272   9.615   7.179
34282SOL     OW 4619   8.925   6.024   2.864
34282SOL    HW1 4620   8.959   5.937   2.846
34282SOL    HW2 4621   8.962   6.048   2.949
34283SOL     OW 4622   1.267   5.031   7.938
34283SOL    HW1 4623   1.226   4.945   7.942
34283SOL    HW2 4624   1.330   5.024   7.866
34284SOL     OW 4625  11.097  11.429   0.221
34284SOL    HW1 4626  11.086  11.473   0.136
34284SOL    HW2 4627  11.027  11.466   0.275
34285SOL     OW 4628  10.282  10.014   5.917
34285SOL    HW1 4629  10.291   9.932   5.965
34285SOL    HW2 4630  10.194  10.010   5.879
34286SOL     OW 4631   1.673   2.858   2.868
34286SOL    HW1 4632   1.592   2.909   2.862
34286SOL    HW2 4633   1.661   2.803   2.945
34287SOL     OW 4634   0.132   7.580  14.356
34287SOL    HW1 4635   0.129   7.647  14.424
34287SOL    HW2 4636   0.040   7.562  14.336
34288SOL     OW 4637   4.946   9.038   8.840
34288SOL    HW1 4638   4.992   9.024   8.757
34288SOL    HW2 4639   5.000   8.993   8.905
34289SOL     OW 4640  11.924   3.861   6.167
34289SOL    HW1 4641  11.894   3.916   6.239
34289SOL    HW2 4642  12.009   3.828   6.197
34290SOL     OW 4643   0.093   4.541   4.535
34290SOL    HW1 4644   0.066   4.531   4.626
34290SOL    HW2 4645   0.184   4.571   4.540
34291SOL     OW 4646   6.979  12.537   5.219
34291SOL    HW1 4647   7.056  12.491   5.251
34291SOL    HW2 4648   6.958  12.495   5.136
34292SOL     OW 4649   2.778   5.518   6.338
34292SOL    HW1 4650   2.786   5.447   6.402
34292SOL    HW2 4651   2.727   5.585   6.382
34293SOL     OW 4652   8.053   5.305   7.972
34293SOL    HW1 4653   8.039   5.225   7.922
34293SOL    HW2 4654   7.966   5.343   7.982
34294SOL     OW 4655   2.395   8.664  11.490
34294SOL    HW1 4656   2.386   8.639  11.582
34294SOL    HW2 4657   2.313   8.709  11.469
34295SOL     OW 4658   0.549   2.928   6.940
34295SOL    HW1 4659   0.553   2.936   7.036
34295SOL    HW2 4660   0.494   2.851   6.925
34296SOL     OW 4661   1.379  13.041   2.946
34296SOL    HW1 4662   1.391  12.970   3.009
34296SOL    HW2 4663   1.435  13.017   2.872
34297SOL     OW 4664   4.308  11.899   8.253
34297SOL    HW1 4665   4.246  11.956   8.298
34297SOL    HW2 4666   4.270  11.811   8.260
34298SOL     OW 4667   1.923   6.540   7.850
34298SOL    HW1 4668   1.971   6.622   7.859
34298SOL    HW2 4669   1.836   6.559   7.884
34299SOL     OW 4670   2.055   1.507  14.004
34299SOL    HW1 4671   2.003   1.587  13.992
34299SOL    HW2 4672   2.145   1.533  13.987
34300SOL     OW 4673   0.747  13.536   8.518
34300SOL    HW1 4674   0.797  13.468   8.564
34300SOL    HW2 4675   0.690  13.488   8.459
34301SOL     OW 4676   6.413   8.464   7.372
34301SOL    HW1 4677   6.477   8.437   7.306
34301SOL    HW2 4678   6.431   8.407   7.447
34302SOL     OW 4679   8.121   1.906  14.831
34302SOL    HW1 4680   8.158   1.845  14.767
34302SOL    HW2 4681   8.108   1.852   0.031
34303SOL     OW 4682   9.430  13.532   8.059
34303SOL    HW1 4683   9.498  13.589   8.097
34303SOL    HW2 4684   9.476  13.449   8.042
34304SOL     OW 4685   9.991   9.545   9.066
34304SOL    HW1 4686   9.981   9.490   9.144
34304SOL    HW2 4687  10.013   9.484   8.996
34305SOL     OW 4688  11.382  10.841   2.236
34305SOL    HW1 4689  11.461  10.894   2.235
34305SOL    HW2 4690  11.328  10.878   2.306
34306SOL     OW 4691  11.340   0.115  10.969
34306SOL    HW1 4692  11.246   0.134  10.963
34306SOL    HW2 4693  11.347   0.055  11.044
34307SOL     OW 4694   9.854  11.463  13.316
34307SOL    HW1 4695   9.771  11.461  13.269
34307SOL    HW2 4696   9.921  11.457  13.248
34308SOL     OW 4697   4.314  12.647   8.126
34308SOL    HW1 4698   4.231  12.693   8.141
34308SOL    HW2 4699   4.289  12.555   8.119
34309SOL     OW 4700   8.803  10.497  12.223
34309SOL    HW1 4701   8.788  10.455  12.308
34309SOL    HW2 4702   8.849  10.578  12.244
34310SOL     OW 4703  14.699  14.581   3.348
34310SOL    HW1 4704  14.650  14.552   3.271
34310SOL    HW2 4705  14.733  14.500   3.386
34311SOL     OW 4706   5.684   5.573  12.912
34311SOL    HW1 4707   5.758   5.547  12.859
34311SOL    HW2 4708   5.613   5.513  12.887
34312SOL     OW 4709  13.945   3.894   8.628
34312SOL    HW1 4710  13.917   3.802   8.634
34312SOL    HW2 4711  13.919   3.932   8.712
34313SOL     OW 4712   5.434  12.485  13.832
34313SOL    HW1 4713   5.511  12.486  13.889
34313SOL    HW2 4714   5.447  12.559  13.773
34314SOL     OW 4715  13.040   9.996   7.584
34314SOL    HW1 4716  13.006  10.039   7.505
34314SOL    HW2 4717  13.132  10.019   7.586
34315SOL     OW 4718   9.400   2.817   5.600
34315SOL    HW1 4719   9.447   2.884   5.649
34315SOL    HW2 4720   9.410   2.842   5.509
34316SOL     OW 4721   0.037   0.461  10.880
34316SOL    HW1 4722   0.033   0.524  10.951
34316SOL    HW2 4723   0.124   0.423  10.886
34317SOL     OW 4724   4.842   1.257   1.920
34317SOL    HW1 4725   4.787   1.179   1.931
34317SOL    HW2 4726   4.903   1.234   1.851
34318SOL     OW 4727  12.942   5.730  11.847
34318SOL    HW1 4728  13.037   5.731  11.831
34318SOL    HW2 4729  12.929   5.790  11.920
34319SOL     OW 4730   3.675   9.936  10.173
34319SOL    HW1 4731   3.709   9.861  10.220
34319SOL    HW2 4732   3.737   9.950  10.101
34320SOL     OW 4733   8.085   3.883   2.280
34320SOL    HW1 4734   7.993   3.860   2.285
34320SOL    HW2 4735   8.127   3.807   2.240
34321SOL     OW 4736   9.003   6.302  13.401
34321SOL    HW1 4737   8.932   6.324  13.461
34321SOL    HW2 4738   8.967   6.233  13.345
34322SOL     OW 4739   0.507   3.458   4.038
34322SOL    HW1 4740   0.438   3.436   3.976
34322SOL    HW2 4741   0.560   3.523   3.993
34323SOL     OW 4742   4.634   9.936   6.513
34323SOL    HW1 4743   4.677   9.859   6.551
34323SOL    HW2 4744   4.570   9.900   6.452
34324SOL     OW 4745   2.238   1.754   5.738
34324SOL    HW1 4746   2.288   1.834   5.722
34324SOL    HW2 4747   2.304   1.686   5.745
34325SOL     OW 4748   5.002   7.092  10.288
34325SOL    HW1 4749   5.006   7.000  10.312
34325SOL    HW2 4750   5.092   7.116  10.266
34326SOL     OW 4751   9.809  14.206   9.254
34326SOL    HW1 4752   9.802  14.297   9.225
34326SOL    HW2 4753   9.803  14.211   9.349
34327SOL     OW 4754   1.701   6.745   5.718
34327SOL    HW1 4755   1.736   6.756   5.630
34327SOL    HW2 4756   1.770   6.776   5.776
34328SOL     OW 4757  14.295  11.287  11.540
34328SOL    HW1 4758  14.223  11.283  11.602
34328SOL    HW2 4759  14.254  11.278  11.454
34329SOL     OW 4760   8.337   3.828   2.130
34329SOL    HW1 4761   8.409   3.813   2.070
34329SOL    HW2 4762   8.293   3.906   2.097
34330SOL     OW 4763   0.794   0.992   9.446
34330SOL    HW1 4764   0.787   1.060   9.513
34330SOL    HW2 4765   0.779   0.910   9.493
34331SOL     OW 4766   4.264  11.578  13.198
34331SOL    HW1 4767   4.194  11.571  13.263
34331SOL    HW2 4768   4.339  11.537  13.239
34332SOL     OW 4769   0.830   6.479   7.775
34332SOL    HW1 4770   0.739   6.460   7.751
34332SOL    HW2 4771   0.865   6.395   7.806
34333SOL     OW 4772   9.443   3.591   9.387
34333SOL    HW1 4773   9.375   3.614   9.450
34333SOL    HW2 4774   9.407   3.515   9.340
34334SOL     OW 4775   7.425   5.048   6.555
34334SOL    HW1 4776   7.433   5.141   6.575
34334SOL    HW2 4777   7.411   5.045   6.461
34335SOL     OW 4778   9.567   6.188  14.838
34335SOL    HW1 4779   9.499   6.249  14.812
34335SOL    HW2 4780   9.576   6.201   0.055
34336SOL     OW 4781   9.103  10.179   3.851
34336SOL    HW1 4782   9.052  10.102   3.875
34336SOL    HW2 4783   9.149  10.203   3.932
34337SOL     OW 4784   1.391   6.297   2.617
34337SOL    HW1 4785   1.384   6.210   2.657
34337SOL    HW2 4786   1.475   6.294   2.570
34338SOL     OW 4787   1.775   5.021   6.122
34338SOL    HW1 4788   1.710   4.952   6.137
34338SOL    HW2 4789   1.842   4.979   6.067
34339SOL     OW 4790  12.001  12.687   9.151
34339SOL    HW1 4791  11.968  12.651   9.233
34339SOL    HW2 4792  12.034  12.774   9.174
34340SOL     OW 4793   0.131   5.727  13.437
34340SOL    HW1 4794   0.163   5.768  13.517
34340SOL    HW2 4795   0.210   5.715  13.384
34341SOL     OW 4796   0.578   1.781   6.730
34341SOL    HW1 4797   0.574   1.694   6.771
34341SOL    HW2 4798   0.526   1.771   6.650
34342SOL     OW 4799   3.354  10.203  13.941
34342SOL    HW1 4800   3.429  10.147  13.959
34342SOL    HW2 4801   3.383  10.261  13.870
34343SOL     OW 4802   1.822   0.797   4.008
34343SOL    HW1 4803   1.826   0.869   3.945
34343SOL    HW2 4804   1.798   0.721   3.956
34344SOL     OW 4805  11.893   1.495  13.150
34344SOL    HW1 4806  11.884   1.432  13.079
34344SOL    HW2 4807  11.881   1.442  13.229
34345SOL     OW 4808   0.528  10.965  11.765
34345SOL    HW1 4809   0.544  11.007  11.680
34345SOL    HW2 4810   0.485  11.032  11.818
34346SOL     OW 4811   0.953  10.861   4.102
34346SOL    HW1 4812   0.985  10.882   4.190
34346SOL    HW2 4813   0.942  10.766   4.103
34347SOL     OW 4814  12.981   1.282   1.475
34347SOL    HW1 4815  12.911   1.316   1.532
34347SOL    HW2 4816  12.948   1.297   1.386
34348SOL     OW 4817   1.559   7.634   7.835
34348SOL    HW1 4818   1.549   7.540   7.848
34348SOL    HW2 4819   1.634   7.643   7.776
34349SOL     OW 4820   5.254   7.116   3.828
34349SOL    HW1 4821   5.242   7.033   3.873
34349SOL    HW2 4822   5.347   7.118   3.806
34350SOL     OW 4823   0.259   0.152   4.638
34350SOL    HW1 4824   0.324   0.090   4.671
34350SOL    HW2 4825   0.311   0.217   4.589
34351SOL     OW 4826   2.987  11.235  12.888
34351SOL    HW1 4827   2.943  11.156  12.921
34351SOL    HW2 4828   2.966  11.303  12.952
34352SOL     OW 4829   9.576  10.053   9.866
34352SOL    HW1 4830   9.616  10.006   9.794
34352SOL    HW2 4831   9.563   9.987   9.934
34353SOL     OW 4832   3.203  11.499  13.983
34353SOL    HW1 4833   3.236  11.410  13.973
34353SOL    HW2 4834   3.191  11.510  14.077
34354SOL     OW 4835   2.432   9.982   2.465
34354SOL    HW1 4836   2.494   9.916   2.498
34354SOL    HW2 4837   2.421   9.960   2.372
34355SOL     OW 4838  13.295  11.749   3.084
34355SOL    HW1 4839  13.383  11.787   3.088
34355SOL    HW2 4840  13.245  11.799   3.148
34356SOL     OW 4841   7.273   8.867  14.098
34356SOL    HW1 4842   7.255   8.779  14.131
34356SOL    HW2 4843   7.190   8.896  14.061
34357SOL     OW 4844   4.612  11.480   0.093
34357SOL    HW1 4845   4.665  11.418   0.143
34357SOL    HW2 4846   4.648  11.476   0.004
34358SOL     OW 4847   9.765  12.092   1.878
34358SOL    HW1 4848   9.740  12.171   1.926
34358SOL    HW2 4849   9.787  12.028   1.946
34359SOL     OW 4850  14.746   3.683   5.142
34359SOL    HW1 4851  14.689   3.743   5.191
34359SOL    HW2 4852  14.751   3.605   5.197
34360SOL     OW 4853   1.121   0.452   8.420
34360SOL    HW1 4854   1.158   0.536   8.394
34360SOL    HW2 4855   1.085   0.416   8.339
34361SOL     OW 4856   9.322   3.337   9.874
34361SOL    HW1 4857   9.232   3.334   9.906
34361SOL    HW2 4858   9.343   3.246   9.852
34362SOL     OW 4859   6.586  11.874   7.827
34362SOL    HW1 4860   6.630  11.797   7.792
34362SOL    HW2 4861   6.537  11.842   7.903
34363SOL     OW 4862  10.427   5.817  12.876
34363SOL    HW1 4863  10.501   5.756  12.878
34363SOL    HW2 4864  10.409   5.836  12.968
34364SOL     OW 4865   8.140   5.217   8.614
34364SOL    HW1 4866   8.162   5.124   8.610
34364SOL    HW2 4867   8.188   5.250   8.690
34365SOL     OW 4868   1.751  12.491   5.497
34365SOL    HW1 4869   1.814  12.422   5.518
34365SOL    HW2 4870   1.720  12.469   5.409
34366SOL     OW 4871   3.904   3.803   1.600
34366SOL    HW1 4872   3.952   3.886   1.594
34366SOL    HW2 4873   3.815   3.825   1.571
34367SOL     OW 4874   8.954  14.679   8.735
34367SOL    HW1 4875   9.032  14.634   8.768
34367SOL    HW2 4876   8.984  14.726   8.658
34368SOL     OW 4877   9.270   0.780  10.818
34368SOL    HW1 4878   9.320   0.706  10.852
34368SOL    HW2 4879   9.316   0.804  10.737
34369SOL     OW 4880  13.442   7.695   5.188
34369SOL    HW1 4881  13.510   7.698   5.121
34369SOL    HW2 4882  13.486   7.662   5.266
34370SOL     OW 4883   5.272   5.057   3.927
34370SOL    HW1 4884   5.303   5.091   3.843
34370SOL    HW2 4885   5.196   5.111   3.949
34371SOL     OW 4886   5.867  14.054   2.305
34371SOL    HW1 4887   5.962  14.057   2.312
34371SOL    HW2 4888   5.843  14.138   2.265
34372SOL     OW 4889   6.698   0.049   9.573
34372SOL    HW1 4890   6.743   0.127   9.606
34372SOL    HW2 4891   6.742   0.030   9.490
34373SOL     OW 4892   0.584   7.853  13.102
34373SOL    HW1 4893   0.534   7.858  13.183
34373SOL    HW2 4894   0.602   7.944  13.079
34374SOL     OW 4895  10.002  11.843   8.549
34374SOL    HW1 4896  10.016  11.751   8.573
34374SOL    HW2 4897   9.907  11.850   8.537
34375SOL     OW 4898   0.289   9.649   0.184
34375SOL    HW1 4899   0.325   9.567   0.218
34375SOL    HW2 4900   0.220   9.621   0.124
34376SOL     OW 4901  12.615  11.558  13.970
34376SOL    HW1 4902  12.614  11.499  13.895
34376SOL    HW2 4903  12.643  11.642  13.935
34377SOL     OW 4904   7.884  10.708  11.280
34377SOL    HW1 4905   7.967  10.661  11.285
34377SOL    HW2 4906   7.822  10.654  11.328
34378SOL     OW 4907   4.479  14.816   5.386
34378SOL    HW1 4908   4.421  14.758   5.436
34378SOL    HW2 4909   4.563  14.809   5.431
34379SOL     OW 4910   2.323   7.996  14.787
34379SOL    HW1 4911   2.250   7.944  14.820
34379SOL    HW2 4912   2.381   8.006  14.863
34380SOL     OW 4913  11.305  14.637   6.116
34380SOL    HW1 4914  11.282  14.607   6.204
34380SOL    HW2 4915  11.362  14.569   6.082
34381SOL     OW 4916  13.075  12.385   1.626
34381SOL    HW1 4917  13.090  12.435   1.707
34381SOL    HW2 4918  13.063  12.295   1.655
34382SOL     OW 4919  10.266   4.422  10.337
34382SOL    HW1 4920  10.178   4.459  10.337
34382SOL    HW2 4921  10.263   4.352  10.402
34383SOL     OW 4922   3.950   0.765  13.449
34383SOL    HW1 4923   3.899   0.799  13.375
34383SOL    HW2 4924   4.040   0.790  13.429
34384SOL     OW 4925   8.768   1.531   9.128
34384SOL    HW1 4926   8.744   1.447   9.165
34384SOL    HW2 4927   8.723   1.596   9.183
34385SOL     OW 4928  10.007  14.598  14.488
34385SOL    HW1 4929  10.074  14.530  14.485
34385SOL    HW2 4930   9.967  14.596  14.401
34386SOL     OW 4931   2.409   9.995   5.302
34386SOL    HW1 4932   2.482  10.057   5.298
34386SOL    HW2 4933   2.392   9.971   5.211
34387SOL     OW 4934   5.858   5.168   9.223
34387SOL    HW1 4935   5.929   5.104   9.216
34387SOL    HW2 4936   5.903   5.250   9.248
34388SOL     OW 4937   9.382   5.864   5.562
34388SOL    HW1 4938   9.471   5.875   5.596
34388SOL    HW2 4939   9.369   5.940   5.505
34389SOL     OW 4940  11.900  12.012   6.697
34389SOL    HW1 4941  11.853  11.938   6.737
34389SOL    HW2 4942  11.909  12.075   6.769
34390SOL     OW 4943   8.320   7.664  10.174
34390SOL    HW1 4944   8.320   7.758  10.155
34390SOL    HW2 4945   8.406   7.647  10.212
34391SOL     OW 4946  12.060   6.688   2.967
34391SOL    HW1 4947  12.155   6.674   2.969
34391SOL    HW2 4948  12.023   6.602   2.985
34392SOL     OW 4949  10.924   9.464   2.935
34392SOL    HW1 4950  10.849   9.449   2.878
34392SOL    HW2 4951  10.993   9.497   2.877
34393SOL     OW 4952   2.081   9.157   0.580
34393SOL    HW1 4953   2.070   9.135   0.672
34393SOL    HW2 4954   2.052   9.079   0.533
34394SOL     OW 4955  10.839  14.619   7.324
34394SOL    HW1 4956  10.769  14.642   7.263
34394SOL    HW2 4957  10.820  14.670   7.403
34395SOL     OW 4958   8.022   3.721   5.933
34395SOL    HW1 4959   8.053   3.712   6.023
34395SOL    HW2 4960   7.964   3.645   5.921
34396SOL     OW 4961   3.101  13.031  10.123
34396SOL    HW1 4962   3.017  12.999  10.088
34396SOL    HW2 4963   3.147  13.066  10.047
34397SOL     OW 4964  10.985   7.765  12.414
34397SOL    HW1 4965  11.075   7.737  12.397
34397SOL    HW2 4966  10.935   7.683  12.419
34398SOL     OW 4967   4.880  12.191   3.460
34398SOL    HW1 4968   4.809  12.169   3.401
34398SOL    HW2 4969   4.958  12.196   3.404
34399SOL     OW 4970  12.348  11.096  10.517
34399SOL    HW1 4971  12.272  11.039  10.506
34399SOL    HW2 4972  12.408  11.069  10.447
34400SOL     OW 4973   8.642   7.237  13.558
34400SOL    HW1 4974   8.633   7.160  13.502
34400SOL    HW2 4975   8.576   7.299  13.526
34401SOL     OW 4976   3.316   7.405   5.967
34401SOL    HW1 4977   3.370   7.484   5.966
34401SOL    HW2 4978   3.370   7.340   6.013
34402SOL     OW 4979  12.783  13.352  14.467
34402SOL    HW1 4980  12.827  13.398  14.538
34402SOL    HW2 4981  12.782  13.260  14.494
34403SOL     OW 4982  11.613  12.402   8.711
34403SOL    HW1 4983  11.551  12.461   8.754
34403SOL    HW2 4984  11.651  12.351   8.783
34404SOL     OW 4985   4.951   0.229   3.623
34404SOL    HW1 4986   4.924   0.304   3.570
34404SOL    HW2 4987   5.038   0.253   3.655
34405SOL     OW 4988   5.666  13.843   6.324
34405SOL    HW1 4989   5.584  13.800   6.298
34405SOL    HW2 4990   5.714  13.776   6.373
34406SOL     OW 4991   1.321   4.054   4.445
34406SOL    HW1 4992   1.251   4.110   4.476
34406SOL    HW2 4993   1.278   3.971   4.422
34407SOL     OW 4994   7.370  13.712   7.418
34407SOL    HW1 4995   7.392  13.619   7.412
34407SOL    HW2 4996   7.398  13.749   7.333
34408SOL     OW 4997   9.090   2.015   3.295
34408SOL    HW1 4998   9.112   2.049   3.382
34408SOL    HW2 4999   9.038   1.937   3.312
34409SOL     OW 5000   3.868   2.760   5.774
34409SOL    HW1 5001   3.890   2.727   5.687
34409SOL    HW2 5002   3.865   2.855   5.763
34410SOL     OW 5003   6.758   4.615  10.633
34410SOL    HW1 5004   6.687   4.597  10.695
34410SOL    HW2 5005   6.790   4.702  10.659
34411SOL     OW 5006  13.892   5.296   6.808
34411SOL    HW1 5007  13.981   5.302   6.772
34411SOL    HW2 5008  13.851   5.225   6.758
34412SOL     OW 5009   0.276   0.504   7.702
34412SOL    HW1 5010   0.200   0.543   7.744
34412SOL    HW2 5011   0.282   0.416   7.740
34413SOL     OW 5012  14.133   2.210   8.439
34413SOL    HW1 5013  14.163   2.193   8.349
34413SOL    HW2 5014  14.122   2.123   8.477
34414SOL     OW 5015   6.152   8.424   6.750
34414SOL    HW1 5016   6.147   8.512   6.713
34414SOL    HW2 5017   6.230   8.386   6.709
34415SOL     OW 5018   0.054   7.278   1.062
34415SOL    HW1 5019   0.086   7.366   1.077
34415SOL    HW2 5020   0.132   7.226   1.042
34416SOL     OW 5021   5.533  10.955  14.019
34416SOL    HW1 5022   5.603  10.895  14.043
34416SOL    HW2 5023   5.577  11.040  14.008
34417SOL     OW 5024   7.373  13.138   7.348
34417SOL    HW1 5025   7.411  13.151   7.435
34417SOL    HW2 5026   7.439  13.086   7.301
34418SOL     OW 5027  14.212   7.267   8.191
34418SOL    HW1 5028  14.188   7.242   8.102
34418SOL    HW2 5029  14.304   7.240   8.200
34419SOL     OW 5030   4.268  12.548  12.607
34419SOL    HW1 5031   4.305  12.594  12.532
34419SOL    HW2 5032   4.341  12.497  12.642
34420SOL     OW 5033   7.733   2.423  10.748
34420SOL    HW1 5034   7.815   2.465  10.719
34420SOL    HW2 5035   7.721   2.455  10.837
34421SOL     OW 5036   2.431   2.820   5.623
34421SOL    HW1 5037   2.338   2.809   5.602
34421SOL    HW2 5038   2.431   2.846   5.715
34422SOL     OW 5039   4.276  10.096   5.574
34422SOL    HW1 5040   4.240  10.093   5.486
34422SOL    HW2 5041   4.292  10.004   5.597
34423SOL     OW 5042  13.517  14.847   0.209
34423SOL    HW1 5043  13.468  14.855   0.291
34423SOL    HW2 5044  13.606  14.875   0.231
34424SOL     OW 5045   2.406  11.427   4.523
34424SOL    HW1 5046   2.347  11.361   4.486
34424SOL    HW2 5047   2.380  11.509   4.480
34425SOL     OW 5048  10.326  11.464   7.974
34425SOL    HW1 5049  10.334  11.438   7.882
34425SOL    HW2 5050  10.413  11.447   8.011
34426SOL     OW 5051   4.785  10.408  14.724
34426SOL    HW1 5052   4.837  10.487  14.735
34426SOL    HW2 5053   4.849  10.338  14.711
34427SOL     OW 5054  12.651   8.661  11.680
34427SOL    HW1 5055  12.693   8.577  11.661
34427SOL    HW2 5056  12.663   8.712  11.600
34428SOL     OW 5057  10.751   3.610   5.654
34428SOL    HW1 5058  10.840   3.643   5.654
34428SOL    HW2 5059  10.709   3.651   5.578
34429SOL     OW 5060  12.647   6.566   2.835
34429SOL    HW1 5061  12.681   6.480   2.809
34429SOL    HW2 5062  12.596   6.596   2.759
34430SOL     OW 5063  11.983   5.913  11.933
34430SOL    HW1 5064  11.888   5.913  11.926
34430SOL    HW2 5065  12.000   5.921  12.027
34431SOL     OW 5066  12.608  11.037   6.937
34431SOL    HW1 5067  12.676  10.978   6.903
34431SOL    HW2 5068  12.621  11.036   7.032
34432SOL     OW 5069   0.682   6.436   7.289
34432SOL    HW1 5070   0.709   6.420   7.199
34432SOL    HW2 5071   0.752   6.489   7.326
34433SOL     OW 5072  14.862   0.578  10.191
34433SOL    HW1 5073  14.812   0.545  10.116
34433SOL    HW2 5074   0.061   0.619  10.152
34434SOL     OW 5075   0.332   7.560   6.875
34434SOL    HW1 5076   0.394   7.491   6.855
34434SOL    HW2 5077   0.361   7.635   6.824
34435SOL     OW 5078   5.619   3.845   3.120
34435SOL    HW1 5079   5.654   3.777   3.176
34435SOL    HW2 5080   5.689   3.910   3.113
34436SOL     OW 5081   1.298  13.417   8.771
34436SOL    HW1 5082   1.250  13.338   8.747
34436SOL    HW2 5083   1.355  13.434   8.696
34437SOL     OW 5084  13.651  14.112   7.058
34437SOL    HW1 5085  13.586  14.049   7.026
34437SOL    HW2 5086  13.725  14.104   6.997
34438SOL     OW 5087  13.513  14.439   0.055
34438SOL    HW1 5088  13.511  14.534   0.041
34438SOL    HW2 5089  13.600  14.421   0.091
34439SOL     OW 5090   7.775  12.069   6.322
34439SOL    HW1 5091   7.792  12.159   6.353
34439SOL    HW2 5092   7.822  12.064   6.238
34440SOL     OW 5093   1.859  13.628  12.081
34440SOL    HW1 5094   1.883  13.658  12.169
34440SOL    HW2 5095   1.879  13.534  12.082
34441SOL     OW 5096   7.034   8.102   3.024
34441SOL    HW1 5097   7.100   8.142   2.968
34441SOL    HW2 5098   6.993   8.176   3.069
34442SOL     OW 5099   4.189   3.240  13.575
34442SOL    HW1 5100   4.219   3.251  13.485
34442SOL    HW2 5101   4.166   3.329  13.603
34443SOL     OW 5102   4.734   3.454   4.548
34443SOL    HW1 5103   4.758   3.503   4.469
34443SOL    HW2 5104   4.640   3.442   4.541
34444SOL     OW 5105  14.021   8.547   6.877
34444SOL    HW1 5106  13.926   8.550   6.889
34444SOL    HW2 5107  14.044   8.455   6.885
34445SOL     OW 5108   6.101   8.068   6.654
34445SOL    HW1 5109   6.099   8.163   6.669
34445SOL    HW2 5110   6.130   8.031   6.737
34446SOL     OW 5111   0.189   9.306   1.580
34446SOL    HW1 5112   0.142   9.281   1.501
34446SOL    HW2 5113   0.226   9.224   1.614
34447SOL     OW 5114  10.408   9.233   1.288
34447SOL    HW1 5115  10.378   9.173   1.220
34447SOL    HW2 5116  10.468   9.292   1.242
34448SOL     OW 5117   0.864   9.798  14.486
34448SOL    HW1 5118   0.833   9.846  14.410
34448SOL    HW2 5119   0.940   9.749  14.454
34449SOL     OW 5120   0.321   9.943   3.905
34449SOL    HW1 5121   0.297   9.893   3.827
34449SOL    HW2 5122   0.406   9.908   3.930
34450SOL     OW 5123   9.580   6.640  13.219
34450SOL    HW1 5124   9.586   6.587  13.139
34450SOL    HW2 5125   9.531   6.585  13.280
34451SOL     OW 5126   6.067  12.204   1.789
34451SOL    HW1 5127   6.014  12.125   1.796
34451SOL    HW2 5128   6.056  12.249   1.873
34452SOL     OW 5129   1.256   9.966  14.375
34452SOL    HW1 5130   1.347   9.937  14.371
34452SOL    HW2 5131   1.207   9.888  14.401
34453SOL     OW 5132  10.156   0.671  10.270
34453SOL    HW1 5133  10.063   0.692  10.279
34453SOL    HW2 5134  10.202   0.751  10.296
34454SOL     OW 5135   1.064   2.566   5.603
34454SOL    HW1 5136   0.985   2.554   5.551
34454SOL    HW2 5137   1.065   2.659   5.625
34455SOL     OW 5138   6.580  12.029   3.465
34455SOL    HW1 5139   6.649  12.090   3.495
34455SOL    HW2 5140   6.628  11.954   3.431
34456SOL     OW 5141  10.938   7.017  13.722
34456SOL    HW1 5142  10.874   6.948  13.708
34456SOL    HW2 5143  11.016   6.987  13.675
34457SOL     OW 5144   8.550   3.707   8.149
34457SOL    HW1 5145   8.537   3.615   8.125
34457SOL    HW2 5146   8.569   3.751   8.066
34458SOL     OW 5147   4.692  11.150  11.944
34458SOL    HW1 5148   4.609  11.191  11.917
34458SOL    HW2 5149   4.758  11.192  11.890
34459SOL     OW 5150   6.755   6.710   8.614
34459SOL    HW1 5151   6.759   6.805   8.616
34459SOL    HW2 5152   6.830   6.684   8.560
34460SOL     OW 5153   7.483   5.019  12.639
34460SOL    HW1 5154   7.504   5.061  12.723
34460SOL    HW2 5155   7.432   5.085  12.592
34461SOL     OW 5156   0.768   9.136   5.091
34461SOL    HW1 5157   0.839   9.156   5.031
34461SOL    HW2 5158   0.801   9.064   5.145
34462SOL     OW 5159   4.992   0.033   4.804
34462SOL    HW1 5160   5.059  14.847   4.824
34462SOL    HW2 5161   4.916   0.006   4.855
34463SOL     OW 5162   0.327   9.608   5.278
34463SOL    HW1 5163   0.314   9.650   5.193
34463SOL    HW2 5164   0.264   9.652   5.336
34464SOL     OW 5165  12.141   1.509   5.682
34464SOL    HW1 5166  12.178   1.508   5.770
34464SOL    HW2 5167  12.159   1.422   5.647
34465SOL     OW 5168  11.235   7.712  12.336
34465SOL    HW1 5169  11.192   7.674  12.260
34465SOL    HW2 5170  11.317   7.748  12.301
34466SOL     OW 5171  12.011  14.749   5.878
34466SOL    HW1 5172  12.078  14.709   5.934
34466SOL    HW2 5173  11.928  14.719   5.915
34467SOL     OW 5174   8.476  13.365   7.076
34467SOL    HW1 5175   8.402  13.306   7.093
34467SOL    HW2 5176   8.554  13.311   7.094
34468SOL     OW 5177   0.056  14.850   2.755
34468SOL    HW1 5178   0.025  14.814   2.838
34468SOL    HW2 5179   0.069  14.773   2.699
34469SOL     OW 5180  13.343   5.909  11.285
34469SOL    HW1 5181  13.427   5.952  11.297
34469SOL    HW2 5182  13.306   5.904  11.374
34470SOL     OW 5183  10.008   1.808   4.941
34470SOL    HW1 5184   9.954   1.779   5.014
34470SOL    HW2 5185  10.063   1.732   4.921
34471SOL     OW 5186   8.777   0.452   0.285
34471SOL    HW1 5187   8.728   0.511   0.342
34471SOL    HW2 5188   8.770   0.491   0.198
34472SOL     OW 5189   1.806   5.220   7.528
34472SOL    HW1 5190   1.752   5.147   7.498
34472SOL    HW2 5191   1.865   5.182   7.593
34473SOL     OW 5192  12.762   0.536  10.286
34473SOL    HW1 5193  12.845   0.555  10.329
34473SOL    HW2 5194  12.771   0.445  10.257
34474SOL     OW 5195  11.272   4.423   2.632
34474SOL    HW1 5196  11.234   4.375   2.558
34474SOL    HW2 5197  11.335   4.482   2.591
34475SOL     OW 5198   7.888  11.887   7.694
34475SOL    HW1 5199   7.916  11.822   7.629
34475SOL    HW2 5200   7.836  11.837   7.757
34476SOL     OW 5201   4.948  12.210   7.516
34476SOL    HW1 5202   4.992  12.292   7.497
34476SOL    HW2 5203   4.923  12.175   7.430
34477SOL     OW 5204   9.281   6.741   1.030
34477SOL    HW1 5205   9.321   6.811   1.081
34477SOL    HW2 5206   9.188   6.765   1.025
34478SOL     OW 5207   0.232   8.766  12.180
34478SOL    HW1 5208   0.320   8.785  12.149
34478SOL    HW2 5209   0.188   8.851  12.183
34479SOL     OW 5210   7.768   4.195  13.446
34479SOL    HW1 5211   7.781   4.116  13.500
34479SOL    HW2 5212   7.856   4.231  13.437
34480SOL     OW 5213   5.075   2.485  13.311
34480SOL    HW1 5214   5.130   2.503  13.234
34480SOL    HW2 5215   4.986   2.495  13.280
34481SOL     OW 5216   0.853  12.569   9.972
34481SOL    HW1 5217   0.843  12.525  10.056
34481SOL    HW2 5218   0.860  12.498   9.908
34482SOL     OW 5219   0.606   8.847   5.067
34482SOL    HW1 5220   0.555   8.815   5.142
34482SOL    HW2 5221   0.687   8.880   5.106
34483SOL     OW 5222  10.890  11.508   0.382
34483SOL    HW1 5223  10.863  11.595   0.411
34483SOL    HW2 5224  10.835  11.448   0.432
34484SOL     OW 5225   2.596   6.777  13.282
34484SOL    HW1 5226   2.509   6.744  13.303
34484SOL    HW2 5227   2.584   6.872  13.272
34485SOL     OW 5228   1.075   4.076   2.209
34485SOL    HW1 5229   1.066   3.999   2.266
34485SOL    HW2 5230   0.989   4.117   2.211
34486SOL     OW 5231  13.136   4.026   2.660
34486SOL    HW1 5232  13.076   4.079   2.607
34486SOL    HW2 5233  13.177   4.089   2.719
34487SOL     OW 5234   9.490   8.262  14.666
34487SOL    HW1 5235   9.493   8.242  14.760
34487SOL    HW2 5236   9.491   8.176  14.624
34488SOL     OW 5237   1.095   3.215  13.311
34488SOL    HW1 5238   1.147   3.137  13.289
34488SOL    HW2 5239   1.112   3.276  13.239
34489SOL     OW 5240   9.609  13.315  10.409
34489SOL    HW1 5241   9.672  13.385  10.391
34489SOL    HW2 5242   9.572  13.337  10.494
34490SOL     OW 5243   7.372   0.224   4.155
34490SOL    HW1 5244   7.410   0.192   4.237
34490SOL    HW2 5245   7.414   0.308   4.140
34491SOL     OW 5246  10.873  11.456   9.194
34491SOL    HW1 5247  10.869  11.379   9.250
34491SOL    HW2 5248  10.966  11.475   9.185
34492SOL     OW 5249  13.627   0.577  12.619
34492SOL    HW1 5250  13.571   0.528  12.678
34492SOL    HW2 5251  13.624   0.667  12.651
34493SOL     OW 5252  11.180   7.201   2.990
34493SOL    HW1 5253  11.180   7.257   3.068
34493SOL    HW2 5254  11.088   7.201   2.961
34494SOL     OW 5255   9.747   6.264   3.388
34494SOL    HW1 5256   9.722   6.354   3.366
34494SOL    HW2 5257   9.832   6.252   3.345
34495SOL     OW 5258  10.216   8.944   3.590
34495SOL    HW1 5259  10.196   8.953   3.683
34495SOL    HW2 5260  10.236   9.033   3.561
34496SOL     OW 5261   8.671   3.326   9.261
34496SOL    HW1 5262   8.680   3.311   9.166
34496SOL    HW2 5263   8.757   3.305   9.297
34497SOL     OW 5264   3.385   5.322  14.146
34497SOL    HW1 5265   3.414   5.273  14.069
34497SOL    HW2 5266   3.452   5.305  14.212
34498SOL     OW 5267   1.356  10.119   3.948
34498SOL    HW1 5268   1.414  10.146   3.877
34498SOL    HW2 5269   1.310  10.042   3.914
34499SOL     OW 5270   2.921   4.016   3.166
34499SOL    HW1 5271   2.882   4.002   3.080
34499SOL    HW2 5272   2.889   3.942   3.218
34500SOL     OW 5273   6.132  11.649  10.223
34500SOL    HW1 5274   6.226  11.650  10.207
34500SOL    HW2 5275   6.108  11.556  10.220
34501SOL     OW 5276  12.130   4.312   6.250
34501SOL    HW1 5277  12.163   4.223   6.235
34501SOL    HW2 5278  12.055   4.300   6.308
34502SOL     OW 5279  12.997   6.134   9.895
34502SOL    HW1 5280  13.088   6.141   9.923
34502SOL    HW2 5281  12.991   6.192   9.820
34503SOL     OW 5282  13.536   7.825   7.219
34503SOL    HW1 5283  13.448   7.815   7.256
34503SOL    HW2 5284  13.576   7.739   7.227
34504SOL     OW 5285   4.206   6.186   6.322
34504SOL    HW1 5286   4.144   6.124   6.360
34504SOL    HW2 5287   4.269   6.131   6.274
34505SOL     OW 5288   3.100   4.654   4.918
34505SOL    HW1 5289   3.104   4.706   4.998
34505SOL    HW2 5290   3.007   4.641   4.902
34506SOL     OW 5291   0.096   0.548  13.277
34506SOL    HW1 5292   0.006   0.549  13.308
34506SOL    HW2 5293   0.147   0.583  13.351
34507SOL     OW 5294  12.453   6.355   7.713
34507SOL    HW1 5295  12.522   6.350   7.779
34507SOL    HW2 5296  12.375   6.319   7.756
34508SOL     OW 5297   2.368   0.159   6.330
34508SOL    HW1 5298   2.337   0.069   6.331
34508SOL    HW2 5299   2.290   0.211   6.310
34509SOL     OW 5300   0.169   0.937  12.732
34509SOL    HW1 5301   0.212   0.978  12.807
34509SOL    HW2 5302   0.216   0.854  12.721
34510SOL     OW 5303  13.404   4.075   6.017
34510SOL    HW1 5304  13.326   4.065   6.072
34510SOL    HW2 5305  13.456   4.142   6.062
34511SOL     OW 5306   6.769   9.800  11.639
34511SOL    HW1 5307   6.752   9.739  11.711
34511SOL    HW2 5308   6.855   9.836  11.658
34512SOL     OW 5309   0.030   8.742   1.385
34512SOL    HW1 5310   0.087   8.715   1.457
34512SOL    HW2 5311  14.820   8.739   1.421
34513SOL     OW 5312   6.857  11.994  14.085
34513SOL    HW1 5313   6.897  11.907  14.076
34513SOL    HW2 5314   6.931  12.054  14.083
34514SOL     OW 5315   1.298   4.464  14.596
34514SOL    HW1 5316   1.322   4.524  14.666
34514SOL    HW2 5317   1.202   4.470  14.591
34515SOL     OW 5318   1.963   6.563   2.643
34515SOL    HW1 5319   1.908   6.486   2.624
34515SOL    HW2 5320   2.003   6.544   2.727
34516SOL     OW 5321  14.504   5.057  11.035
34516SOL    HW1 5322  14.470   5.145  11.023
34516SOL    HW2 5323  14.510   5.046  11.130
34517SOL     OW 5324  10.841   6.792   5.495
34517SOL    HW1 5325  10.770   6.836   5.542
34517SOL    HW2 5326  10.856   6.711   5.543
34518SOL     OW 5327  13.726  13.300  10.299
34518SOL    HW1 5328  13.643  13.279  10.340
34518SOL    HW2 5329  13.728  13.248  10.219
34519SOL     OW 5330  14.095  11.010   6.682
34519SOL    HW1 5331  14.111  11.103   6.663
34519SOL    HW2 5332  14.000  11.000   6.677
34520SOL     OW 5333  13.621   9.523   2.833
34520SOL    HW1 5334  13.571   9.589   2.882
34520SOL    HW2 5335  13.606   9.442   2.881
34521SOL     OW 5336  10.889   3.960   4.104
34521SOL    HW1 5337  10.799   3.961   4.137
34521SOL    HW2 5338  10.915   3.868   4.108
34522SOL     OW 5339   4.419  10.247  12.527
34522SOL    HW1 5340   4.452  10.309  12.592
34522SOL    HW2 5341   4.475  10.259  12.451
34523SOL     OW 5342   9.029   0.687   5.338
34523SOL    HW1 5343   8.935   0.694   5.323
34523SOL    HW2 5344   9.060   0.631   5.267
34524SOL     OW 5345   3.715   7.276  12.087
34524SOL    HW1 5346   3.753   7.248  12.171
34524SOL    HW2 5347   3.784   7.330  12.047
34525SOL     OW 5348   2.538   4.413  14.807
34525SOL    HW1 5349   2.525   4.403   0.024
34525SOL    HW2 5350   2.502   4.332  14.770
34526SOL     OW 5351   2.736   2.139   0.053
34526SOL    HW1 5352   2.741   2.186   0.136
34526SOL    HW2 5353   2.659   2.083   0.061
34527SOL     OW 5354  10.426  10.886   0.735
34527SOL    HW1 5355  10.504  10.833   0.718
34527SOL    HW2 5356  10.460  10.972   0.760
34528SOL     OW 5357   1.727  12.849  13.584
34528SOL    HW1 5358   1.681  12.773  13.548
34528SOL    HW2 5359   1.820  12.826  13.578
34529SOL     OW 5360   5.320  10.265   5.701
34529SOL    HW1 5361   5.413  10.247   5.693
34529SOL    HW2 5362   5.306  10.343   5.647
34530SOL     OW 5363  12.584  10.792   2.612
34530SOL    HW1 5364  12.522  10.805   2.541
34530SOL    HW2 5365  12.666  10.830   2.580
34531SOL     OW 5366  11.992  11.119   8.614
34531SOL    HW1 5367  11.981  11.210   8.588
34531SOL    HW2 5368  11.914  11.074   8.580
34532SOL     OW 5369  12.992   7.847  12.233
34532SOL    HW1 5370  12.957   7.759  12.218
34532SOL    HW2 5371  12.915   7.900  12.250
34533SOL     OW 5372   5.285  11.900  12.578
34533SOL    HW1 5373   5.298  11.898  12.483
34533SOL    HW2 5374   5.228  11.975  12.593
34534SOL     OW 5375  13.775   1.718   0.578
34534SOL    HW1 5376  13.849   1.692   0.633
34534SOL    HW2 5377  13.813   1.776   0.512
34535SOL     OW 5378   4.610   8.793   5.106
34535SOL    HW1 5379   4.641   8.883   5.098
34535SOL    HW2 5380   4.539   8.798   5.171
34536SOL     OW 5381   9.009   8.027   4.261
34536SOL    HW1 5382   8.921   7.997   4.236
34536SOL    HW2 5383   9.002   8.122   4.260
34537SOL     OW 5384   1.640   1.179   1.006
34537SOL    HW1 5385   1.733   1.187   0.982
34537SOL    HW2 5386   1.595   1.161   0.923
34538SOL     OW 5387  14.711  13.998  11.255
34538SOL    HW1 5388  14.682  14.054  11.183
34538SOL    HW2 5389  14.709  14.055  11.332
34539SOL     OW 5390   9.556   1.000   5.590
34539SOL    HW1 5391   9.466   1.019   5.562
34539SOL    HW2 5392   9.605   1.080   5.569
34540SOL     OW 5393  11.843   8.321   0.141
34540SOL    HW1 5394  11.910   8.311   0.209
34540SOL    HW2 5395  11.866   8.255   0.076
34541SOL     OW 5396   6.733   7.624   9.607
34541SOL    HW1 5397   6.773   7.636   9.520
34541SOL    HW2 5398   6.804   7.588   9.661
34542SOL     OW 5399   8.734   0.077   9.451
34542SOL    HW1 5400   8.777  14.874   9.426
34542SOL    HW2 5401   8.756   0.089   9.544
34543SOL     OW 5402  11.388   0.562   2.936
34543SOL    HW1 5403  11.321   0.494   2.949
34543SOL    HW2 5404  11.454   0.543   3.002
34544SOL     OW 5405  14.091   0.247  12.585
34544SOL    HW1 5406  14.041   0.308  12.640
34544SOL    HW2 5407  14.134   0.303  12.520
34545SOL     OW 5408  11.446   1.468   9.710
34545SOL    HW1 5409  11.449   1.530   9.637
34545SOL    HW2 5410  11.534   1.469   9.746
34546SOL     OW 5411   2.947   6.451  12.373
34546SOL    HW1 5412   2.925   6.358  12.360
34546SOL    HW2 5413   2.992   6.476  12.292
34547SOL     OW 5414  11.785   4.219  12.503
34547SOL    HW1 5415  11.726   4.234  12.430
34547SOL    HW2 5416  11.869   4.255  12.474
34548SOL     OW 5417   0.873   1.431   0.020
34548SOL    HW1 5418   0.835   1.449  14.812
34548SOL    HW2 5419   0.839   1.500   0.076
34549SOL     OW 5420   7.358  11.338   0.778
34549SOL    HW1 5421   7.345  11.288   0.697
34549SOL    HW2 5422   7.284  11.314   0.834
34550SOL     OW 5423   3.346   4.104   1.639
34550SOL    HW1 5424   3.323   4.189   1.678
34550SOL    HW2 5425   3.303   4.103   1.554
34551SOL     OW 5426  14.287   5.662  13.146
34551SOL    HW1 5427  14.217   5.712  13.188
34551SOL    HW2 5428  14.338   5.728  13.099
34552SOL     OW 5429   6.609   6.644   4.339
34552SOL    HW1 5430   6.614   6.550   4.323
34552SOL    HW2 5431   6.637   6.654   4.430
34553SOL     OW 5432   1.996   5.051   7.651
34553SOL    HW1 5433   2.087   5.024   7.647
34553SOL    HW2 5434   1.947   4.972   7.675
34554SOL     OW 5435  11.813  10.723  11.589
34554SOL    HW1 5436  11.776  10.673  11.516
34554SOL    HW2 5437  11.849  10.656  11.647
34555SOL     OW 5438   5.543  10.714   3.016
34555SOL    HW1 5439   5.507  10.642   2.963
34555SOL    HW2 5440   5.559  10.784   2.953
34556SOL     OW 5441   8.138   7.190  13.684
34556SOL    HW1 5442   8.124   7.230  13.770
34556SOL    HW2 5443   8.201   7.247  13.641
34557SOL     OW 5444  12.677   3.603   8.841
34557SOL    HW1 5445  12.595   3.635   8.877
34557SOL    HW2 5446  12.652   3.566   8.756
34558SOL     OW 5447   4.480   0.349  14.824
34558SOL    HW1 5448   4.509   0.416   0.007
34558SOL    HW2 5449   4.455   0.397  14.745
34559SOL     OW 5450   5.186   3.712   3.954
34559SOL    HW1 5451   5.221   3.759   4.029
34559SOL    HW2 5452   5.100   3.681   3.983
34560SOL     OW 5453  10.335   8.320   3.715
34560SOL    HW1 5454  10.275   8.311   3.788
34560SOL    HW2 5455  10.360   8.231   3.693
34561SOL     OW 5456  14.044   8.859  10.085
34561SOL    HW1 5457  14.013   8.945  10.115
34561SOL    HW2 5458  14.047   8.807  10.165
34562SOL     OW 5459   3.179  12.996  10.840
34562SOL    HW1 5460   3.166  13.067  10.778
34562SOL    HW2 5461   3.274  12.984  10.843
34563SOL     OW 5462  14.469  11.447   4.513
34563SOL    HW1 5463  14.478  11.412   4.601
34563SOL    HW2 5464  14.477  11.370   4.456
34564SOL     OW 5465  14.791   4.396  13.394
34564SOL    HW1 5466  14.713   4.341  13.393
34564SOL    HW2 5467  14.788   4.441  13.479
34565SOL     OW 5468   8.359  11.766   8.749
34565SOL    HW1 5469   8.422  11.695   8.755
34565SOL    HW2 5470   8.286  11.729   8.698
34566SOL     OW 5471  10.525  13.329   3.284
34566SOL    HW1 5472  10.482  13.413   3.262
34566SOL    HW2 5473  10.475  13.264   3.234
34567SOL     OW 5474  13.784   1.676  11.738
34567SOL    HW1 5475  13.703   1.679  11.687
34567SOL    HW2 5476  13.797   1.583  11.759
34568SOL     OW 5477  13.473   2.017   7.437
34568SOL    HW1 5478  13.387   2.015   7.395
34568SOL    HW2 5479  13.528   2.070   7.379
34569SOL     OW 5480   9.916  11.011   7.153
34569SOL    HW1 5481   9.909  10.916   7.167
34569SOL    HW2 5482   9.919  11.047   7.242
34570SOL     OW 5483   7.740  12.028   6.775
34570SOL    HW1 5484   7.657  12.056   6.738
34570SOL    HW2 5485   7.728  11.935   6.795
34571SOL     OW 5486   1.663  12.237   3.423
34571SOL    HW1 5487   1.701  12.201   3.343
34571SOL    HW2 5488   1.712  12.195   3.494
34572SOL     OW 5489   0.332   0.158   0.275
34572SOL    HW1 5490   0.423   0.153   0.303
34572SOL    HW2 5491   0.294   0.074   0.301
34573SOL     OW 5492  14.237   2.344  14.876
34573SOL    HW1 5493  14.330   2.325  14.862
34573SOL    HW2 5494  14.215   2.295   0.078
34574SOL     OW 5495   5.387   8.653   9.179
34574SOL    HW1 5496   5.422   8.698   9.256
34574SOL    HW2 5497   5.450   8.672   9.110
34575SOL     OW 5498   4.303   4.100   9.022
34575SOL    HW1 5499   4.393   4.075   9.000
34575SOL    HW2 5500   4.289   4.063   9.109
34576SOL     OW 5501   9.939   1.489   2.632
34576SOL    HW1 5502   9.865   1.439   2.597
34576SOL    HW2 5503   9.912   1.580   2.625
34577SOL     OW 5504   7.471   1.901   1.947
34577SOL    HW1 5505   7.391   1.953   1.940
34577SOL    HW2 5506   7.440   1.811   1.962
34578SOL     OW 5507   1.000   8.522   8.219
34578SOL    HW1 5508   1.092   8.544   8.205
34578SOL    HW2 5509   0.957   8.550   8.137
34579SOL     OW 5510   0.185   1.472   9.837
34579SOL    HW1 5511   0.209   1.454   9.928
34579SOL    HW2 5512   0.246   1.419   9.786
34580SOL     OW 5513  11.732   9.585   5.192
34580SOL    HW1 5514  11.728   9.502   5.239
34580SOL    HW2 5515  11.733   9.561   5.099
34581SOL     OW 5516   9.608   2.259   1.301
34581SOL    HW1 5517   9.600   2.183   1.243
34581SOL    HW2 5518   9.625   2.223   1.387
34582SOL     OW 5519   0.934   9.680   1.350
34582SOL    HW1 5520   0.916   9.591   1.379
34582SOL    HW2 5521   0.871   9.696   1.280
34583SOL     OW 5522  12.016   6.726   8.761
34583SOL    HW1 5523  12.045   6.691   8.677
34583SOL    HW2 5524  11.982   6.813   8.741
34584SOL     OW 5525   8.722   0.026   8.784
34584SOL    HW1 5526   8.792   0.084   8.752
34584SOL    HW2 5527   8.768  14.831   8.826
34585SOL     OW 5528   4.110  13.958  10.308
34585SOL    HW1 5529   4.205  13.947  10.309
34585SOL    HW2 5530   4.092  14.000  10.224
34586SOL     OW 5531   0.946   4.911   5.280
34586SOL    HW1 5532   0.916   4.956   5.201
34586SOL    HW2 5533   1.032   4.875   5.257
34587SOL     OW 5534   9.225  11.071  11.547
34587SOL    HW1 5535   9.307  11.032  11.578
34587SOL    HW2 5536   9.187  11.111  11.625
34588SOL     OW 5537  13.498   5.191  14.147
34588SOL    HW1 5538  13.538   5.168  14.231
34588SOL    HW2 5539  13.422   5.134  14.139
34589SOL     OW 5540  12.986  12.775   1.106
34589SOL    HW1 5541  12.921  12.753   1.039
34589SOL    HW2 5542  12.955  12.732   1.185
34590SOL     OW 5543   4.274   4.748  14.853
34590SOL    HW1 5544   4.330   4.753  14.775
34590SOL    HW2 5545   4.278   4.837   0.012
34591SOL     OW 5546  10.168   2.786  14.586
34591SOL    HW1 5547  10.225   2.782  14.663
34591SOL    HW2 5548  10.117   2.865  14.599
34592SOL     OW 5549   7.495  10.578  10.661
34592SOL    HW1 5550   7.565  10.561  10.599
34592SOL    HW2 5551   7.539  10.596  10.744
34593SOL     OW 5552   3.706   6.341   9.315
34593SOL    HW1 5553   3.757   6.406   9.362
34593SOL    HW2 5554   3.615   6.361   9.338
34594SOL     OW 5555   6.871   5.204   9.404
34594SOL    HW1 5556   6.857   5.231   9.495
34594SOL    HW2 5557   6.960   5.231   9.384
34595SOL     OW 5558   2.412   4.651   3.538
34595SOL    HW1 5559   2.496   4.606   3.544
34595SOL    HW2 5560   2.366   4.607   3.466
34596SOL     OW 5561   0.902   2.769   2.127
34596SOL    HW1 5562   0.878   2.742   2.038
34596SOL    HW2 5563   0.923   2.862   2.119
34597SOL     OW 5564   9.257  11.747  11.419
34597SOL    HW1 5565   9.283  11.824  11.369
34597SOL    HW2 5566   9.201  11.782  11.488
34598SOL     OW 5567   1.861   7.077   3.869
34598SOL    HW1 5568   1.810   7.154   3.842
34598SOL    HW2 5569   1.841   7.067   3.962
34599SOL     OW 5570  14.275   6.096   0.318
34599SOL    HW1 5571  14.201   6.057   0.270
34599SOL    HW2 5572  14.243   6.182   0.346
34600SOL     OW 5573   2.260   7.297  12.001
34600SOL    HW1 5574   2.205   7.371  11.974
34600SOL    HW2 5575   2.332   7.297  11.938
34601SOL     OW 5576   5.305   3.016  11.807
34601SOL    HW1 5577   5.243   3.089  11.813
34601SOL    HW2 5578   5.334   3.017  11.716
34602SOL     OW 5579  14.441   4.514   7.748
34602SOL    HW1 5580  14.473   4.534   7.660
34602SOL    HW2 5581  14.470   4.588   7.802
34603SOL     OW 5582   0.263   8.625  12.566
34603SOL    HW1 5583   0.200   8.620  12.493
34603SOL    HW2 5584   0.230   8.562  12.630
34604SOL     OW 5585   3.902   2.750   9.864
34604SOL    HW1 5586   3.963   2.693   9.909
34604SOL    HW2 5587   3.838   2.776   9.931
34605SOL     OW 5588   5.206   7.497   2.340
34605SOL    HW1 5589   5.199   7.458   2.427
34605SOL    HW2 5590   5.298   7.521   2.331
34606SOL     OW 5591   8.125  13.141   5.251
34606SOL    HW1 5592   8.136  13.046   5.254
34606SOL    HW2 5593   8.182  13.174   5.320
34607SOL     OW 5594   8.711   0.644  13.525
34607SOL    HW1 5595   8.774   0.675  13.590
34607SOL    HW2 5596   8.669   0.569  13.568
34608SOL     OW 5597  14.208   5.929   0.599
34608SOL    HW1 5598  14.290   5.968   0.627
34608SOL    HW2 5599  14.145   6.001   0.599
34609SOL     OW 5600   4.831  14.097   2.653
34609SOL    HW1 5601   4.829  14.041   2.730
34609SOL    HW2 5602   4.780  14.174   2.678
34610SOL     OW 5603   5.989   3.817  10.132
34610SOL    HW1 5604   6.061   3.835  10.192
34610SOL    HW2 5605   6.023   3.749  10.073
34611SOL     OW 5606   4.273   6.085   2.069
34611SOL    HW1 5607   4.348   6.144   2.059
34611SOL    HW2 5608   4.273   6.033   1.989
34612SOL     OW 5609   7.331   2.119   4.587
34612SOL    HW1 5610   7.370   2.204   4.606
34612SOL    HW2 5611   7.242   2.140   4.559
34613SOL     OW 5612   6.107  13.406   9.979
34613SOL    HW1 5613   6.090  13.315   9.955
34613SOL    HW2 5614   6.041  13.427  10.044
34614SOL     OW 5615   9.008   4.876   1.542
34614SOL    HW1 5616   8.913   4.864   1.538
34614SOL    HW2 5617   9.034   4.897   1.452
34615SOL     OW 5618   0.026  12.513   4.992
34615SOL    HW1 5619  14.866  12.513   4.904
34615SOL    HW2 5620  14.848  12.455   5.042
34616SOL     OW 5621  13.044  12.110   1.708
34616SOL    HW1 5622  12.963  12.063   1.688
34616SOL    HW2 5623  13.113  12.059   1.666
34617SOL     OW 5624   1.313   0.707   9.981
34617SOL    HW1 5625   1.375   0.634   9.987
34617SOL    HW2 5626   1.296   0.716   9.888
34618SOL     OW 5627   6.594  14.496   1.095
34618SOL    HW1 5628   6.574  14.580   1.136
34618SOL    HW2 5629   6.577  14.510   1.002
34619SOL     OW 5630  13.273  11.539   4.667
34619SOL    HW1 5631  13.248  11.629   4.647
34619SOL    HW2 5632  13.198  11.486   4.638
34620SOL     OW 5633   8.295   7.022   6.197
34620SOL    HW1 5634   8.246   7.097   6.232
34620SOL    HW2 5635   8.326   6.976   6.274
34621SOL     OW 5636  12.377   0.944   1.955
34621SOL    HW1 5637  12.367   0.917   2.046
34621SOL    HW2 5638  12.308   1.009   1.941
34622SOL     OW 5639  13.480   3.703  14.838
34622SOL    HW1 5640  13.551   3.699  14.774
34622SOL    HW2 5641  13.525   3.710   0.044
34623SOL     OW 5642  10.055   9.057   0.128
34623SOL    HW1 5643  10.003   8.995   0.180
34623SOL    HW2 5644  10.072   9.129   0.188
34624SOL     OW 5645  14.608  10.758  10.804
34624SOL    HW1 5646  14.631  10.744  10.896
34624SOL    HW2 5647  14.598  10.670  10.768
34625SOL     OW 5648   8.314  10.931   9.085
34625SOL    HW1 5649   8.403  10.961   9.105
34625SOL    HW2 5650   8.265  10.946   9.165
34626SOL     OW 5651   6.919   4.301   3.052
34626SOL    HW1 5652   6.874   4.363   3.111
34626SOL    HW2 5653   6.997   4.348   3.024
34627SOL     OW 5654   2.245   5.408   3.099
34627SOL    HW1 5655   2.331   5.437   3.068
34627SOL    HW2 5656   2.257   5.393   3.193
34628SOL     OW 5657  11.819   1.201   7.143
34628SOL    HW1 5658  11.750   1.246   7.094
34628SOL    HW2 5659  11.838   1.123   7.091
34629SOL     OW 5660   1.462   8.465   6.919
34629SOL    HW1 5661   1.434   8.456   6.827
34629SOL    HW2 5662   1.513   8.386   6.936
34630SOL     OW 5663  12.384  13.720   0.538
34630SOL    HW1 5664  12.395  13.781   0.611
34630SOL    HW2 5665  12.326  13.652   0.573
34631SOL     OW 5666  12.236  13.435  14.839
34631SOL    HW1 5667  12.263  13.526  14.850
34631SOL    HW2 5668  12.270  13.410  14.753
34632SOL     OW 5669   2.211  12.588   4.032
34632SOL    HW1 5670   2.205  12.597   4.128
34632SOL    HW2 5671   2.298  12.621   4.010
34633SOL     OW 5672   4.594   1.292  12.446
34633SOL    HW1 5673   4.591   1.224  12.378
34633SOL    HW2 5674   4.503   1.319  12.457
34634SOL     OW 5675   1.640   7.296  14.402
34634SOL    HW1 5676   1.673   7.368  14.347
34634SOL    HW2 5677   1.566   7.260  14.352
34635SOL     OW 5678  12.714   1.386   7.411
34635SOL    HW1 5679  12.696   1.293   7.423
34635SOL    HW2 5680  12.691   1.426   7.495
34636SOL     OW 5681  10.447  11.684   9.056
34636SOL    HW1 5682  10.427  11.639   9.139
34636SOL    HW2 5683  10.446  11.614   8.991
34637SOL     OW 5684   7.087   5.541   1.441
34637SOL    HW1 5685   7.000   5.581   1.453
34637SOL    HW2 5686   7.145   5.594   1.496
34638SOL     OW 5687   5.016   3.808   5.842
34638SOL    HW1 5688   4.964   3.888   5.834
34638SOL    HW2 5689   4.954   3.738   5.822
34639SOL     OW 5690  11.756   3.213  10.819
34639SOL    HW1 5691  11.708   3.131  10.825
34639SOL    HW2 5692  11.690   3.279  10.797
34640SOL     OW 5693   1.422   7.368   8.327
34640SOL    HW1 5694   1.504   7.361   8.278
34640SOL    HW2 5695   1.433   7.445   8.381
34641SOL     OW 5696   3.608  12.744   9.995
34641SOL    HW1 5697   3.527  12.771   9.952
34641SOL    HW2 5698   3.597  12.770  10.086
34642SOL     OW 5699   0.507   8.682   0.490
34642SOL    HW1 5700   0.526   8.751   0.554
34642SOL    HW2 5701   0.429   8.712   0.444
34643SOL     OW 5702  11.666   6.912   2.884
34643SOL    HW1 5703  11.647   7.006   2.882
34643SOL    HW2 5704  11.729   6.902   2.955
34644SOL     OW 5705   0.156  14.632  10.480
34644SOL    HW1 5706   0.156  14.722  10.513
34644SOL    HW2 5707   0.099  14.635  10.403
34645SOL     OW 5708   8.843   9.507   1.137
34645SOL    HW1 5709   8.773   9.546   1.190
34645SOL    HW2 5710   8.909   9.576   1.131
34646SOL     OW 5711   6.027   5.003  10.566
34646SOL    HW1 5712   5.975   4.924  10.579
34646SOL    HW2 5713   5.971   5.074  10.597
34647SOL     OW 5714   7.768   0.028   9.161
34647SOL    HW1 5715   7.792  14.815   9.145
34647SOL    HW2 5716   7.759   0.034   9.256
34648SOL     OW 5717   2.868   7.518   8.222
34648SOL    HW1 5718   2.880   7.606   8.256
34648SOL    HW2 5719   2.956   7.487   8.202
34649SOL     OW 5720  11.545   4.674  12.019
34649SOL    HW1 5721  11.501   4.644  11.940
34649SOL    HW2 5722  11.609   4.738  11.989
34650SOL     OW 5723   4.702  14.838   9.778
34650SOL    HW1 5724   4.771   0.013   9.738
34650SOL    HW2 5725   4.669  14.783   9.707
34651SOL     OW 5726   1.891   4.077   6.574
34651SOL    HW1 5727   1.836   4.083   6.496
34651SOL    HW2 5728   1.862   3.996   6.617
34652SOL     OW 5729  10.658   6.376  14.079
34652SOL    HW1 5730  10.584   6.420  14.122
34652SOL    HW2 5731  10.617   6.310  14.023
34653SOL     OW 5732   8.983   1.272  14.768
34653SOL    HW1 5733   9.075   1.284  14.793
34653SOL    HW2 5734   8.959   1.355  14.726
34654SOL     OW 5735  11.230  10.238   3.749
34654SOL    HW1 5736  11.148  10.212   3.791
34654SOL    HW2 5737  11.211  10.323   3.710
34655SOL     OW 5738   0.863   3.642  11.260
34655SOL    HW1 5739   0.788   3.641  11.319
34655SOL    HW2 5740   0.864   3.731  11.224
34656SOL     OW 5741   4.698   5.123   8.138
34656SOL    HW1 5742   4.747   5.041   8.136
34656SOL    HW2 5743   4.645   5.121   8.058
34657SOL     OW 5744  10.343   5.108   3.676
34657SOL    HW1 5745  10.373   5.188   3.631
34657SOL    HW2 5746  10.278   5.070   3.617
34658SOL     OW 5747   4.461  14.498  11.926
34658SOL    HW1 5748   4.530  14.464  11.984
34658SOL    HW2 5749   4.464  14.593  11.938
34659SOL     OW 5750   5.251   9.595   1.062
34659SOL    HW1 5751   5.228   9.595   1.155
34659SOL    HW2 5752   5.181   9.545   1.020
34660SOL     OW 5753   5.426  10.657   0.631
34660SOL    HW1 5754   5.383  10.603   0.698
34660SOL    HW2 5755   5.356  10.680   0.571
34661SOL     OW 5756  11.767   3.250   8.862
34661SOL    HW1 5757  11.752   3.302   8.783
34661SOL    HW2 5758  11.752   3.310   8.934
34662SOL     OW 5759  13.198   8.090   6.884
34662SOL    HW1 5760  13.184   8.180   6.857
34662SOL    HW2 5761  13.245   8.097   6.967
34663SOL     OW 5762   1.099   2.694   0.450
34663SOL    HW1 5763   1.044   2.725   0.523
34663SOL    HW2 5764   1.044   2.630   0.404
34664SOL     OW 5765  13.642   7.559   0.139
34664SOL    HW1 5766  13.665   7.583   0.229
34664SOL    HW2 5767  13.708   7.603   0.085
34665SOL     OW 5768   4.624   2.531  11.336
34665SOL    HW1 5769   4.708   2.567  11.307
34665SOL    HW2 5770   4.571   2.607  11.356
34666SOL     OW 5771  12.006   8.339  11.625
34666SOL    HW1 5772  12.090   8.298  11.647
34666SOL    HW2 5773  11.997   8.411  11.686
34667SOL     OW 5774   7.161   2.354  11.795
34667SOL    HW1 5775   7.122   2.268  11.809
34667SOL    HW2 5776   7.112   2.412  11.853
34668SOL     OW 5777   5.449  10.391   1.447
34668SOL    HW1 5778   5.389  10.387   1.521
34668SOL    HW2 5779   5.468  10.484   1.436
34669SOL     OW 5780   7.435  11.638   1.375
34669SOL    HW1 5781   7.352  11.608   1.338
34669SOL    HW2 5782   7.501  11.581   1.335
34670SOL     OW 5783   6.989  12.748   2.973
34670SOL    HW1 5784   7.049  12.788   2.911
34670SOL    HW2 5785   7.003  12.654   2.962
34671SOL     OW 5786   2.078   0.792   0.476
34671SOL    HW1 5787   2.113   0.864   0.530
34671SOL    HW2 5788   2.043   0.836   0.399
34672SOL     OW 5789  11.963   9.595  13.723
34672SOL    HW1 5790  11.904   9.609  13.797
34672SOL    HW2 5791  12.034   9.657  13.737
34673SOL     OW 5792   1.983   8.437   0.859
34673SOL    HW1 5793   2.032   8.448   0.778
34673SOL    HW2 5794   2.031   8.368   0.906
34674SOL     OW 5795   7.439   1.263   2.885
34674SOL    HW1 5796   7.499   1.296   2.818
34674SOL    HW2 5797   7.360   1.239   2.837
34675SOL     OW 5798   8.974   9.455   2.330
34675SOL    HW1 5799   9.032   9.529   2.314
34675SOL    HW2 5800   8.918   9.452   2.252
34676SOL     OW 5801   2.357   0.042  10.973
34676SOL    HW1 5802   2.350   0.036  10.878
34676SOL    HW2 5803   2.344   0.135  10.992
34677SOL     OW 5804   0.694  10.048   4.423
34677SOL    HW1 5805   0.613  10.092   4.451
34677SOL    HW2 5806   0.720  10.095   4.344
34678SOL     OW 5807   6.451   2.421  12.086
34678SOL    HW1 5808   6.454   2.419  11.990
34678SOL    HW2 5809   6.454   2.515  12.108
34679SOL     OW 5810   9.037  11.146  13.959
34679SOL    HW1 5811   9.018  11.218  14.018
34679SOL    HW2 5812   9.073  11.077  14.016
34680SOL     OW 5813   2.569   8.367  11.655
34680SOL    HW1 5814   2.487   8.381  11.702
34680SOL    HW2 5815   2.614   8.298  11.705
34681SOL     OW 5816   3.382   4.155   2.058
34681SOL    HW1 5817   3.431   4.080   2.091
34681SOL    HW2 5818   3.444   4.201   2.002
34682SOL     OW 5819   3.330   4.322   4.642
34682SOL    HW1 5820   3.365   4.242   4.681
34682SOL    HW2 5821   3.348   4.390   4.707
34683SOL     OW 5822   0.749  11.913   3.950
34683SOL    HW1 5823   0.681  11.923   3.883
34683SOL    HW2 5824   0.790  11.999   3.956
34684SOL     OW 5825  12.549   4.715   3.814
34684SOL    HW1 5826  12.525   4.760   3.896
34684SOL    HW2 5827  12.643   4.697   3.824
34685SOL     OW 5828   7.251   4.766  13.417
34685SOL    HW1 5829   7.188   4.699  13.444
34685SOL    HW2 5830   7.202   4.848  13.420
34686SOL     OW 5831   6.367  10.007   2.575
34686SOL    HW1 5832   6.444   9.953   2.592
34686SOL    HW2 5833   6.330   9.972   2.495
34687SOL     OW 5834   4.512   1.680   1.432
34687SOL    HW1 5835   4.464   1.670   1.350
34687SOL    HW2 5836   4.604   1.670   1.407
34688SOL     OW 5837   0.936   0.652  14.109
34688SOL    HW1 5838   1.016   0.624  14.065
34688SOL    HW2 5839   0.876   0.675  14.038
34689SOL     OW 5840   8.123   0.434  10.785
34689SOL    HW1 5841   8.043   0.475  10.754
34689SOL    HW2 5842   8.186   0.505  10.791
34690SOL     OW 5843  12.667   3.083  14.442
34690SOL    HW1 5844  12.579   3.101  14.475
34690SOL    HW2 5845  12.717   3.161  14.465
34691SOL     OW 5846  14.290   8.160  13.566
34691SOL    HW1 5847  14.366   8.165  13.624
34691SOL    HW2 5848  14.216   8.146  13.625
34692SOL     OW 5849   0.422   9.951   4.265
34692SOL    HW1 5850   0.512   9.920   4.259
34692SOL    HW2 5851   0.423  10.015   4.336
34693SOL     OW 5852   8.383   2.715  11.714
34693SOL    HW1 5853   8.463   2.695  11.665
34693SOL    HW2 5854   8.367   2.637  11.767
34694SOL     OW 5855   4.686   6.441  13.009
34694SOL    HW1 5856   4.622   6.453  13.079
34694SOL    HW2 5857   4.751   6.382  13.046
34695SOL     OW 5858  10.858   1.911  11.830
34695SOL    HW1 5859  10.949   1.893  11.854
34695SOL    HW2 5860  10.820   1.951  11.908
34696SOL     OW 5861   6.549   2.194   1.539
34696SOL    HW1 5862   6.520   2.273   1.585
34696SOL    HW2 5863   6.472   2.164   1.491
34697SOL     OW 5864   2.601   4.997   0.521
34697SOL    HW1 5865   2.605   4.954   0.436
34697SOL    HW2 5866   2.523   5.052   0.516
34698SOL     OW 5867  14.198  12.802   1.081
34698SOL    HW1 5868  14.185  12.809   0.987
34698SOL    HW2 5869  14.112  12.817   1.119
34699SOL     OW 5870  10.840  14.727   6.720
34699SOL    HW1 5871  10.847  14.694   6.630
34699SOL    HW2 5872  10.889  14.809   6.719
34700SOL     OW 5873  10.176   1.892   9.926
34700SOL    HW1 5874  10.211   1.831   9.991
34700SOL    HW2 5875  10.101   1.932   9.970
34701SOL     OW 5876   5.470   4.772   7.367
34701SOL    HW1 5877   5.416   4.693   7.370
34701SOL    HW2 5878   5.473   4.796   7.274
34702SOL     OW 5879   9.556   4.287   4.950
34702SOL    HW1 5880   9.591   4.328   5.029
34702SOL    HW2 5881   9.554   4.194   4.971
34703SOL     OW 5882  11.922  12.869   2.754
34703SOL    HW1 5883  11.993  12.933   2.767
34703SOL    HW2 5884  11.847  12.909   2.797
34704SOL     OW 5885   5.440  13.919   5.840
34704SOL    HW1 5886   5.383  13.842   5.841
34704SOL    HW2 5887   5.528  13.884   5.845
34705SOL     OW 5888   3.621   9.912  11.882
34705SOL    HW1 5889   3.604   9.960  11.963
34705SOL    HW2 5890   3.697   9.858  11.902
34706SOL     OW 5891   6.172   7.807   4.109
34706SOL    HW1 5892   6.141   7.879   4.055
34706SOL    HW2 5893   6.092   7.756   4.128
34707SOL     OW 5894  13.674   6.246   1.490
34707SOL    HW1 5895  13.598   6.294   1.522
34707SOL    HW2 5896  13.637   6.169   1.446
34708SOL     OW 5897  13.213  12.290   0.168
34708SOL    HW1 5898  13.119  12.284   0.189
34708SOL    HW2 5899  13.240  12.375   0.202
34709SOL     OW 5900   4.785   6.366  13.650
34709SOL    HW1 5901   4.716   6.301  13.642
34709SOL    HW2 5902   4.866   6.317  13.631
34710SOL     OW 5903   7.073   6.668  14.713
34710SOL    HW1 5904   7.030   6.625  14.787
34710SOL    HW2 5905   7.136   6.729  14.753
34711SOL     OW 5906  11.238   1.153   9.142
34711SOL    HW1 5907  11.188   1.123   9.066
34711SOL    HW2 5908  11.306   1.086   9.153
34712SOL     OW 5909  11.378   7.218  14.863
34712SOL    HW1 5910  11.385   7.143   0.044
34712SOL    HW2 5911  11.338   7.183  14.784
34713SOL     OW 5912   4.894  11.890  11.366
34713SOL    HW1 5913   4.821  11.833  11.344
34713SOL    HW2 5914   4.897  11.954  11.294
34714SOL     OW 5915  12.997   1.293   7.155
34714SOL    HW1 5916  12.972   1.241   7.232
34714SOL    HW2 5917  12.990   1.383   7.185
34715SOL     OW 5918  14.661   6.105  10.255
34715SOL    HW1 5919  14.698   6.027  10.297
34715SOL    HW2 5920  14.653   6.169  10.326
34716SOL     OW 5921  10.722   9.527  10.353
34716SOL    HW1 5922  10.661   9.560  10.420
34716SOL    HW2 5923  10.807   9.564  10.377
34717SOL     OW 5924  10.492   1.729   1.136
34717SOL    HW1 5925  10.476   1.799   1.200
34717SOL    HW2 5926  10.413   1.675   1.141
34718SOL     OW 5927  11.814  11.625  10.938
34718SOL    HW1 5928  11.892  11.591  10.983
34718SOL    HW2 5929  11.759  11.660  11.009
34719SOL     OW 5930  10.952   2.338   0.985
34719SOL    HW1 5931  10.905   2.348   0.902
34719SOL    HW2 5932  10.957   2.244   0.999
34720SOL     OW 5933   6.419  12.362  13.153
34720SOL    HW1 5934   6.369  12.413  13.217
34720SOL    HW2 5935   6.467  12.298  13.205
34721SOL     OW 5936   9.679  10.233   7.044
34721SOL    HW1 5937   9.625  10.161   7.077
34721SOL    HW2 5938   9.616  10.298   7.013
34722SOL     OW 5939   0.980   1.233  11.753
34722SOL    HW1 5940   1.012   1.146  11.730
34722SOL    HW2 5941   1.057   1.277  11.791
34723SOL     OW 5942  11.046   3.228   9.374
34723SOL    HW1 5943  11.065   3.170   9.448
34723SOL    HW2 5944  11.120   3.290   9.372
34724SOL     OW 5945   2.285   5.492  14.791
34724SOL    HW1 5946   2.275   5.397  14.797
34724SOL    HW2 5947   2.378   5.507  14.804
34725SOL     OW 5948   7.754   0.264   7.873
34725SOL    HW1 5949   7.808   0.284   7.949
34725SOL    HW2 5950   7.722   0.349   7.843
34726SOL     OW 5951   9.372   4.686  13.862
34726SOL    HW1 5952   9.404   4.746  13.795
34726SOL    HW2 5953   9.397   4.727  13.945
34727SOL     OW 5954  13.082   3.122   9.306
34727SOL    HW1 5955  13.177   3.116   9.318
34727SOL    HW2 5956  13.050   3.034   9.323
34728SOL     OW 5957   4.526  12.536   2.252
34728SOL    HW1 5958   4.546  12.604   2.316
34728SOL    HW2 5959   4.448  12.568   2.206
34729SOL     OW 5960   0.681   0.872   9.910
34729SOL    HW1 5961   0.702   0.952   9.958
34729SOL    HW2 5962   0.739   0.806   9.948
34730SOL     OW 5963   0.284   7.087   6.847
34730SOL    HW1 5964   0.360   7.073   6.903
34730SOL    HW2 5965   0.245   7.000   6.837
34731SOL     OW 5966   6.349   3.783   2.584
34731SOL    HW1 5967   6.272   3.781   2.640
34731SOL    HW2 5968   6.325   3.730   2.508
34732SOL     OW 5969   4.934   0.409   3.402
34732SOL    HW1 5970   4.965   0.350   3.333
34732SOL    HW2 5971   4.962   0.496   3.373
34733SOL     OW 5972   0.874  13.218   6.917
34733SOL    HW1 5973   0.805  13.152   6.910
34733SOL    HW2 5974   0.893  13.243   6.827
34734SOL     OW 5975   5.739   5.216  14.245
34734SOL    HW1 5976   5.723   5.137  14.296
34734SOL    HW2 5977   5.690   5.202  14.164
34735SOL     OW 5978  13.871   4.969   1.041
34735SOL    HW1 5979  13.903   5.054   1.013
34735SOL    HW2 5980  13.921   4.906   0.989
34736SOL     OW 5981   6.346  10.622   2.697
34736SOL    HW1 5982   6.378  10.535   2.675
34736SOL    HW2 5983   6.408  10.682   2.655
34737SOL     OW 5984   9.698   2.899   0.204
34737SOL    HW1 5985   9.752   2.937   0.134
34737SOL    HW2 5986   9.664   2.974   0.252
34738SOL     OW 5987   6.745   9.849   8.851
34738SOL    HW1 5988   6.763   9.943   8.858
34738SOL    HW2 5989   6.831   9.810   8.837
34739SOL     OW 5990   5.081   0.228  10.343
34739SOL    HW1 5991   5.085   0.261  10.253
34739SOL    HW2 5992   5.021   0.288  10.388
34740SOL     OW 5993  11.524   7.603   1.533
34740SOL    HW1 5994  11.584   7.568   1.468
34740SOL    HW2 5995  11.452   7.640   1.482
34741SOL     OW 5996  12.152   6.213   4.391
34741SOL    HW1 5997  12.181   6.215   4.482
34741SOL    HW2 5998  12.091   6.287   4.384
34742SOL     OW 5999   5.472   2.086   2.409
34742SOL    HW1 6000   5.425   2.075   2.327
34742SOL    HW2 6001   5.564   2.078   2.386
34743SOL     OW 6002   0.318   9.279   4.149
34743SOL    HW1 6003   0.386   9.211   4.146
34743SOL    HW2 6004   0.367   9.361   4.151
34744SOL     OW 6005  10.531   5.231   6.989
34744SOL    HW1 6006  10.525   5.140   7.018
34744SOL    HW2 6007  10.444   5.267   7.005
34745SOL     OW 6008  11.894   7.478   7.199
34745SOL    HW1 6009  11.988   7.473   7.181
34745SOL    HW2 6010  11.874   7.572   7.195
34746SOL     OW 6011   5.827   9.796   9.702
34746SOL    HW1 6012   5.850   9.775   9.611
34746SOL    HW2 6013   5.902   9.847   9.734
34747SOL     OW 6014  10.261   0.124  13.387
34747SOL    HW1 6015  10.289   0.136  13.478
34747SOL    HW2 6016  10.225   0.210  13.363
34748SOL     OW 6017  10.504   5.841  10.915
34748SOL    HW1 6018  10.439   5.787  10.960
34748SOL    HW2 6019  10.456   5.920  10.888
34749SOL     OW 6020   0.041   7.371   3.785
34749SOL    HW1 6021   0.018   7.281   3.759
34749SOL    HW2 6022  14.838   7.421   3.772
34750SOL     OW 6023   3.495   0.494   8.206
34750SOL    HW1 6024   3.573   0.510   8.260
34750SOL    HW2 6025   3.425   0.540   8.252
34751SOL     OW 6026   1.239   9.979  10.316
34751SOL    HW1 6027   1.264  10.057  10.367
34751SOL    HW2 6028   1.267   9.999  10.227
34752SOL     OW 6029   5.201   0.851   0.886
34752SOL    HW1 6030   5.175   0.913   0.954
34752SOL    HW2 6031   5.206   0.903   0.806
34753SOL     OW 6032   7.323  11.511  13.385
34753SOL    HW1 6033   7.372  11.493  13.466
34753SOL    HW2 6034   7.343  11.602  13.365
34754SOL     OW 6035   9.967   9.667  12.070
34754SOL    HW1 6036  10.055   9.689  12.039
34754SOL    HW2 6037   9.961   9.573  12.058
34755SOL     OW 6038   4.302  11.887  10.235
34755SOL    HW1 6039   4.353  11.960  10.198
34755SOL    HW2 6040   4.211  11.918  10.233
34756SOL     OW 6041   1.190  14.750  12.728
34756SOL    HW1 6042   1.281  14.770  12.752
34756SOL    HW2 6043   1.142  14.831  12.747
34757SOL     OW 6044   3.024   2.337   0.699
34757SOL    HW1 6045   3.109   2.294   0.692
34757SOL    HW2 6046   3.001   2.360   0.609
34758SOL     OW 6047   6.258  14.553  10.991
34758SOL    HW1 6048   6.202  14.489  11.036
34758SOL    HW2 6049   6.249  14.531  10.898
34759SOL     OW 6050   4.446   7.759  10.256
34759SOL    HW1 6051   4.539   7.777  10.267
34759SOL    HW2 6052   4.427   7.690  10.319
34760SOL     OW 6053   7.390   5.609   5.622
34760SOL    HW1 6054   7.469   5.592   5.571
34760SOL    HW2 6055   7.411   5.577   5.710
34761SOL     OW 6056   0.720  14.022  12.379
34761SOL    HW1 6057   0.757  14.030  12.467
34761SOL    HW2 6058   0.639  14.073  12.382
34762SOL     OW 6059   9.133   2.072   0.871
34762SOL    HW1 6060   9.100   2.136   0.807
34762SOL    HW2 6061   9.054   2.035   0.910
34763SOL     OW 6062  10.693   7.479   0.030
34763SOL    HW1 6063  10.647   7.441  14.833
34763SOL    HW2 6064  10.783   7.450   0.020
34764SOL     OW 6065   3.255   7.579   4.119
34764SOL    HW1 6066   3.300   7.645   4.172
34764SOL    HW2 6067   3.325   7.539   4.068
34765SOL     OW 6068   5.070  14.065  12.038
34765SOL    HW1 6069   5.090  14.127  11.968
34765SOL    HW2 6070   5.046  13.984  11.994
34766SOL     OW 6071   4.381   0.840   2.779
34766SOL    HW1 6072   4.319   0.875   2.843
34766SOL    HW2 6073   4.327   0.820   2.703
34767SOL     OW 6074  13.362  10.602   8.538
34767SOL    HW1 6075  13.277  10.596   8.582
34767SOL    HW2 6076  13.370  10.694   8.514
34768SOL     OW 6077  13.162  12.538   1.805
34768SOL    HW1 6078  13.126  12.533   1.894
34768SOL    HW2 6079  13.243  12.589   1.815
34769SOL     OW 6080   2.328   5.044   9.521
34769SOL    HW1 6081   2.281   5.118   9.483
34769SOL    HW2 6082   2.420   5.069   9.518
34770SOL     OW 6083   6.352  12.890   5.237
34770SOL    HW1 6084   6.404  12.810   5.237
34770SOL    HW2 6085   6.272  12.867   5.190
34771SOL     OW 6086   9.246   0.878   4.632
34771SOL    HW1 6087   9.280   0.943   4.693
34771SOL    HW2 6088   9.226   0.802   4.687
34772SOL     OW 6089   1.601   4.416  11.132
34772SOL    HW1 6090   1.560   4.494  11.170
34772SOL    HW2 6091   1.546   4.344  11.160
34773SOL     OW 6092   7.481   0.216   7.990
34773SOL    HW1 6093   7.544   0.210   8.062
34773SOL    HW2 6094   7.533   0.206   7.911
34774SOL     OW 6095  14.160   5.571   4.380
34774SOL    HW1 6096  14.065   5.585   4.375
34774SOL    HW2 6097  14.188   5.620   4.457
34775SOL     OW 6098   6.926   6.299   0.142
34775SOL    HW1 6099   6.902   6.334   0.228
34775SOL    HW2 6100   6.917   6.204   0.151
34776SOL     OW 6101  10.325   5.608   0.169
34776SOL    HW1 6102  10.415   5.638   0.181
34776SOL    HW2 6103  10.329   5.549   0.094
34777SOL     OW 6104   3.056   4.756  13.002
34777SOL    HW1 6105   3.018   4.687  13.057
34777SOL    HW2 6106   3.007   4.751  12.920
34778SOL     OW 6107   8.534   0.485   8.790
34778SOL    HW1 6108   8.626   0.465   8.775
34778SOL    HW2 6109   8.529   0.581   8.790
34779SOL     OW 6110   7.958   9.716  10.912
34779SOL    HW1 6111   7.881   9.761  10.878
34779SOL    HW2 6112   7.933   9.691  11.001
34780SOL     OW 6113  11.187  11.587   0.498
34780SOL    HW1 6114  11.133  11.611   0.422
34780SOL    HW2 6115  11.233  11.668   0.521
34781SOL     OW 6116  13.641   4.743  10.019
34781SOL    HW1 6117  13.580   4.754   9.946
34781SOL    HW2 6118  13.694   4.667   9.995
34782SOL     OW 6119  10.522   3.342   7.015
34782SOL    HW1 6120  10.538   3.395   7.093
34782SOL    HW2 6121  10.567   3.259   7.033
34783SOL     OW 6122  10.199   1.824   2.968
34783SOL    HW1 6123  10.227   1.911   2.941
34783SOL    HW2 6124  10.267   1.795   3.029
34784SOL     OW 6125  11.460   4.346   5.625
34784SOL    HW1 6126  11.412   4.268   5.596
34784SOL    HW2 6127  11.419   4.418   5.578
34785SOL     OW 6128   7.030   6.391  13.878
34785SOL    HW1 6129   6.995   6.345  13.802
34785SOL    HW2 6130   7.123   6.368  13.881
34786SOL     OW 6131   6.921  13.282   3.523
34786SOL    HW1 6132   6.973  13.222   3.470
34786SOL    HW2 6133   6.968  13.365   3.517
34787SOL     OW 6134   2.072  12.776  13.917
34787SOL    HW1 6135   2.166  12.775  13.898
34787SOL    HW2 6136   2.063  12.723  13.996
34788SOL     OW 6137   6.192   6.147   3.303
34788SOL    HW1 6138   6.235   6.219   3.258
34788SOL    HW2 6139   6.145   6.189   3.375
34789SOL     OW 6140  12.750   5.961   8.300
34789SOL    HW1 6141  12.837   5.999   8.291
34789SOL    HW2 6142  12.766   5.869   8.321
34790SOL     OW 6143   7.714  14.144   0.008
34790SOL    HW1 6144   7.641  14.206   0.013
34790SOL    HW2 6145   7.729  14.132  14.792
34791SOL     OW 6146   9.348  12.537   7.392
34791SOL    HW1 6147   9.380  12.449   7.409
34791SOL    HW2 6148   9.338  12.541   7.297
34792SOL     OW 6149   1.008  12.865   7.624
34792SOL    HW1 6150   1.015  12.819   7.708
34792SOL    HW2 6151   1.016  12.796   7.558
34793SOL     OW 6152  11.683  10.743   8.928
34793SOL    HW1 6153  11.665  10.828   8.889
34793SOL    HW2 6154  11.726  10.693   8.858
34794SOL     OW 6155  10.209   3.618   3.911
34794SOL    HW1 6156  10.119   3.587   3.918
34794SOL    HW2 6157  10.205   3.691   3.849
34795SOL     OW 6158   9.763   5.877  11.071
34795SOL    HW1 6159   9.816   5.798  11.081
34795SOL    HW2 6160   9.726   5.891  11.158
34796SOL     OW 6161   8.576  12.602  10.286
34796SOL    HW1 6162   8.649  12.658  10.260
34796SOL    HW2 6163   8.609  12.513  10.278
34797SOL     OW 6164  11.930  13.656   3.554
34797SOL    HW1 6165  11.898  13.585   3.498
34797SOL    HW2 6166  11.938  13.617   3.641
34798SOL     OW 6167   9.028   0.943   4.484
34798SOL    HW1 6168   9.006   0.985   4.567
34798SOL    HW2 6169   9.122   0.924   4.491
34799SOL     OW 6170   3.461  11.625   8.797
34799SOL    HW1 6171   3.506  11.544   8.773
34799SOL    HW2 6172   3.432  11.662   8.713
34800SOL     OW 6173   6.823   8.758  11.204
34800SOL    HW1 6174   6.881   8.696  11.158
34800SOL    HW2 6175   6.770   8.797  11.134
34801SOL     OW 6176  12.344   3.419   7.167
34801SOL    HW1 6177  12.410   3.361   7.129
34801SOL    HW2 6178  12.276   3.424   7.100
34802SOL     OW 6179   8.961   2.157  12.835
34802SOL    HW1 6180   8.932   2.166  12.926
34802SOL    HW2 6181   9.007   2.239  12.817
34803SOL     OW 6182   1.184  14.554  14.213
34803SOL    HW1 6183   1.145  14.568  14.127
34803SOL    HW2 6184   1.128  14.603  14.274
34804SOL     OW 6185  14.446   3.476  14.753
34804SOL    HW1 6186  14.409   3.498  14.668
34804SOL    HW2 6187  14.372   3.441  14.804
34805SOL     OW 6188   0.481   5.849   5.614
34805SOL    HW1 6189   0.433   5.856   5.532
34805SOL    HW2 6190   0.444   5.917   5.670
34806SOL     OW 6191   8.184   8.118   6.999
34806SOL    HW1 6192   8.271   8.155   7.013
34806SOL    HW2 6193   8.191   8.070   6.916
34807SOL     OW 6194  12.064  10.521  13.105
34807SOL    HW1 6195  12.140  10.507  13.048
34807SOL    HW2 6196  12.039  10.434  13.134
34808SOL     OW 6197   7.527  14.751   2.870
34808SOL    HW1 6198   7.580  14.813   2.920
34808SOL    HW2 6199   7.519  14.790   2.783
34809SOL     OW 6200   9.562   6.203   4.486
34809SOL    HW1 6201   9.635   6.153   4.449
34809SOL    HW2 6202   9.494   6.199   4.419
34810SOL     OW 6203   3.897  12.060   0.252
34810SOL    HW1 6204   3.839  12.121   0.207
34810SOL    HW2 6205   3.870  11.973   0.221
34811SOL     OW 6206   6.381   1.209   0.058
34811SOL    HW1 6207   6.467   1.251   0.060
34811SOL    HW2 6208   6.370   1.172   0.145
34812SOL     OW 6209   6.669   0.495   8.632
34812SOL    HW1 6210   6.674   0.399   8.628
34812SOL    HW2 6211   6.707   0.524   8.549
34813SOL     OW 6212  11.381   2.352   1.788
34813SOL    HW1 6213  11.288   2.331   1.794
34813SOL    HW2 6214  11.384   2.438   1.744
34814SOL     OW 6215  10.634   5.854  13.534
34814SOL    HW1 6216  10.693   5.870  13.461
34814SOL    HW2 6217  10.612   5.942  13.566
34815SOL     OW 6218   9.567   8.932  11.338
34815SOL    HW1 6219   9.578   9.015  11.383
34815SOL    HW2 6220   9.486   8.895  11.374
34816SOL     OW 6221   3.040  12.696  12.588
34816SOL    HW1 6222   3.048  12.718  12.681
34816SOL    HW2 6223   3.125  12.718  12.550
34817SOL     OW 6224   7.590   3.405   4.325
34817SOL    HW1 6225   7.629   3.325   4.291
34817SOL    HW2 6226   7.526   3.375   4.390
34818SOL     OW 6227   5.928  14.500   3.622
34818SOL    HW1 6228   5.941  14.580   3.571
34818SOL    HW2 6229   5.927  14.430   3.556
34819SOL     OW 6230  14.593   2.209  11.953
34819SOL    HW1 6231  14.516   2.263  11.933
34819SOL    HW2 6232  14.557   2.137  12.004
34820SOL     OW 6233  11.513  14.528   6.688
34820SOL    HW1 6234  11.527  14.437   6.716
34820SOL    HW2 6235  11.418  14.540   6.692
34821SOL     OW 6236   3.739   6.097  11.643
34821SOL    HW1 6237   3.657   6.145  11.651
34821SOL    HW2 6238   3.745   6.045  11.723
34822SOL     OW 6239   2.792  14.601   7.568
34822SOL    HW1 6240   2.821  14.510   7.578
34822SOL    HW2 6241   2.862  14.643   7.518
34823SOL     OW 6242   3.845   5.221  13.657
34823SOL    HW1 6243   3.914   5.243  13.594
34823SOL    HW2 6244   3.763   5.233  13.609
34824SOL     OW 6245   6.431   1.302  13.537
34824SOL    HW1 6246   6.479   1.301  13.455
34824SOL    HW2 6247   6.466   1.376  13.586
34825SOL     OW 6248  14.440  12.954  11.942
34825SOL    HW1 6249  14.524  12.991  11.916
34825SOL    HW2 6250  14.375  13.011  11.902
34826SOL     OW 6251   9.151  10.881  10.221
34826SOL    HW1 6252   9.072  10.828  10.230
34826SOL    HW2 6253   9.213  10.824  10.176
34827SOL     OW 6254  13.138   9.634   2.815
34827SOL    HW1 6255  13.197   9.665   2.884
34827SOL    HW2 6256  13.187   9.564   2.771
34828SOL     OW 6257   3.742  12.093   0.686
34828SOL    HW1 6258   3.757  12.021   0.747
34828SOL    HW2 6259   3.818  12.092   0.629
34829SOL     OW 6260   7.013   2.544  11.940
34829SOL    HW1 6261   6.971   2.618  11.897
34829SOL    HW2 6262   7.059   2.582  12.014
34830SOL     OW 6263   6.459   0.333  11.344
34830SOL    HW1 6264   6.477   0.246  11.309
34830SOL    HW2 6265   6.532   0.387  11.312
34831SOL     OW 6266   0.562   5.441   6.534
34831SOL    HW1 6267   0.504   5.432   6.610
34831SOL    HW2 6268   0.572   5.536   6.523
34832SOL     OW 6269   0.145  11.203   0.380
34832SOL    HW1 6270   0.099  11.130   0.421
34832SOL    HW2 6271   0.178  11.168   0.298
34833SOL     OW 6272  11.637  14.707   9.335
34833SOL    HW1 6273  11.612  14.627   9.290
34833SOL    HW2 6274  11.618  14.689   9.428
34834SOL     OW 6275   3.622   9.957   1.808
34834SOL    HW1 6276   3.667   9.931   1.888
34834SOL    HW2 6277   3.546  10.007   1.839
34835SOL     OW 6278   6.756   8.389  10.175
34835SOL    HW1 6279   6.705   8.364  10.253
34835SOL    HW2 6280   6.734   8.482  10.162
34836SOL     OW 6281  11.393   5.861   4.576
34836SOL    HW1 6282  11.394   5.805   4.498
34836SOL    HW2 6283  11.461   5.825   4.633
34837SOL     OW 6284   2.968   5.808  10.608
34837SOL    HW1 6285   3.045   5.863  10.599
34837SOL    HW2 6286   2.990   5.727  10.561
34838SOL     OW 6287  10.430  13.760   5.759
34838SOL    HW1 6288  10.398  13.802   5.679
34838SOL    HW2 6289  10.389  13.810   5.830
34839SOL     OW 6290   4.074   8.063   3.499
34839SOL    HW1 6291   4.001   8.071   3.438
34839SOL    HW2 6292   4.138   8.128   3.470
34840SOL     OW 6293   3.833   4.900   9.489
34840SOL    HW1 6294   3.805   4.812   9.511
34840SOL    HW2 6295   3.866   4.892   9.399
34841SOL     OW 6296  13.186   0.877  13.934
34841SOL    HW1 6297  13.117   0.930  13.895
34841SOL    HW2 6298  13.167   0.878  14.028
34842SOL     OW 6299   3.333   5.638   5.099
34842SOL    HW1 6300   3.299   5.572   5.159
34842SOL    HW2 6301   3.376   5.702   5.157
34843SOL     OW 6302   7.525  12.160   4.614
34843SOL    HW1 6303   7.569  12.243   4.596
34843SOL    HW2 6304   7.593  12.104   4.651
34844SOL     OW 6305  10.720   0.502   4.061
34844SOL    HW1 6306  10.784   0.485   4.129
34844SOL    HW2 6307  10.769   0.546   3.992
34845SOL     OW 6308  10.478  13.230  11.572
34845SOL    HW1 6309  10.514  13.236  11.660
34845SOL    HW2 6310  10.445  13.140  11.566
34846SOL     OW 6311   6.339  10.265   8.230
34846SOL    HW1 6312   6.397  10.206   8.278
34846SOL    HW2 6313   6.337  10.229   8.141
34847SOL     OW 6314   2.978  10.335  14.092
34847SOL    HW1 6315   2.958  10.392  14.018
34847SOL    HW2 6316   3.072  10.347  14.107
34848SOL     OW 6317   4.302   2.171   1.313
34848SOL    HW1 6318   4.337   2.082   1.323
34848SOL    HW2 6319   4.306   2.208   1.401
34849SOL     OW 6320   7.069   5.959  12.874
34849SOL    HW1 6321   6.981   5.989  12.854
34849SOL    HW2 6322   7.088   5.998  12.960
34850SOL     OW 6323  14.252   3.920   7.161
34850SOL    HW1 6324  14.207   3.883   7.085
34850SOL    HW2 6325  14.300   3.995   7.126
34851SOL     OW 6326   6.908   1.066   7.819
34851SOL    HW1 6327   6.938   1.149   7.782
34851SOL    HW2 6328   6.982   1.033   7.870
34852SOL     OW 6329   2.281   7.013  13.690
34852SOL    HW1 6330   2.248   6.941  13.744
34852SOL    HW2 6331   2.247   7.092  13.732
34853SOL     OW 6332   7.821   1.607  11.648
34853SOL    HW1 6333   7.758   1.591  11.577
34853SOL    HW2 6334   7.869   1.525  11.655
34854SOL     OW 6335   7.596   1.972   8.153
34854SOL    HW1 6336   7.618   1.879   8.152
34854SOL    HW2 6337   7.663   2.012   8.097
34855SOL     OW 6338  11.691   1.146   6.500
34855SOL    HW1 6339  11.728   1.113   6.582
34855SOL    HW2 6340  11.652   1.230   6.523
34856SOL     OW 6341   4.144   9.873   6.451
34856SOL    HW1 6342   4.225   9.824   6.467
34856SOL    HW2 6343   4.086   9.811   6.407
34857SOL     OW 6344   0.526   7.467   8.811
34857SOL    HW1 6345   0.528   7.435   8.721
34857SOL    HW2 6346   0.433   7.470   8.834
34858SOL     OW 6347   2.039   1.368   4.588
34858SOL    HW1 6348   2.029   1.429   4.515
34858SOL    HW2 6349   2.133   1.362   4.603
34859SOL     OW 6350   7.230   5.074   8.030
34859SOL    HW1 6351   7.296   5.077   8.099
34859SOL    HW2 6352   7.279   5.090   7.949
34860SOL     OW 6353   4.074   5.401  11.923
34860SOL    HW1 6354   4.108   5.321  11.963
34860SOL    HW2 6355   3.990   5.375  11.884
34861SOL     OW 6356   0.319   3.883   8.264
34861SOL    HW1 6357   0.348   3.914   8.350
34861SOL    HW2 6358   0.398   3.884   8.210
34862SOL     OW 6359   8.990   4.539   7.160
34862SOL    HW1 6360   9.027   4.452   7.145
34862SOL    HW2 6361   8.948   4.533   7.246
34863SOL     OW 6362  10.314   5.743  10.236
34863SOL    HW1 6363  10.329   5.719  10.327
34863SOL    HW2 6364  10.337   5.665  10.186
34864SOL     OW 6365   8.713  12.310   2.586
34864SOL    HW1 6366   8.675  12.397   2.584
34864SOL    HW2 6367   8.670  12.262   2.515
34865SOL     OW 6368   9.603  12.703   9.050
34865SOL    HW1 6369   9.557  12.724   8.968
34865SOL    HW2 6370   9.546  12.737   9.119
34866SOL     OW 6371   2.616  13.542   0.146
34866SOL    HW1 6372   2.565  13.580   0.217
34866SOL    HW2 6373   2.598  13.448   0.152
34867SOL     OW 6374   6.478   4.124   6.944
34867SOL    HW1 6375   6.492   4.188   6.874
34867SOL    HW2 6376   6.514   4.043   6.910
34868SOL     OW 6377  11.545  12.131  13.193
34868SOL    HW1 6378  11.516  12.056  13.141
34868SOL    HW2 6379  11.601  12.094  13.261
34869SOL     OW 6380   1.760   4.410   2.025
34869SOL    HW1 6381   1.789   4.441   2.111
34869SOL    HW2 6382   1.840   4.404   1.973
34870SOL     OW 6383   8.503   8.098  12.273
34870SOL    HW1 6384   8.524   8.007  12.289
34870SOL    HW2 6385   8.587   8.145  12.285
34871SOL     OW 6386   5.470  10.178  12.381
34871SOL    HW1 6387   5.384  10.170  12.340
34871SOL    HW2 6388   5.495  10.087  12.402
34872SOL     OW 6389  14.585   6.816  14.350
34872SOL    HW1 6390  14.571   6.748  14.416
34872SOL    HW2 6391  14.578   6.898  14.398
34873SOL     OW 6392   4.764   4.869   9.987
34873SOL    HW1 6393   4.726   4.794   9.942
34873SOL    HW2 6394   4.754   4.942   9.925
34874SOL     OW 6395  14.844   9.982  10.266
34874SOL    HW1 6396   0.054   9.968  10.230
34874SOL    HW2 6397  14.785   9.965  10.193
34875SOL     OW 6398   2.726  14.686   6.200
34875SOL    HW1 6399   2.709  14.753   6.265
34875SOL    HW2 6400   2.713  14.603   6.245
34876SOL     OW 6401   5.432  11.810   9.612
34876SOL    HW1 6402   5.395  11.897   9.597
34876SOL    HW2 6403   5.362  11.750   9.587
34877SOL     OW 6404   5.805   5.823   3.127
34877SOL    HW1 6405   5.774   5.874   3.052
34877SOL    HW2 6406   5.729   5.771   3.153
34878SOL     OW 6407  14.560   0.304   4.865
34878SOL    HW1 6408  14.567   0.226   4.919
34878SOL    HW2 6409  14.543   0.271   4.777
34879SOL     OW 6410  10.058  14.689   2.724
34879SOL    HW1 6411  10.101  14.621   2.672
34879SOL    HW2 6412  10.106  14.769   2.703
34880SOL     OW 6413   1.875  12.742   3.455
34880SOL    HW1 6414   1.838  12.762   3.541
34880SOL    HW2 6415   1.864  12.647   3.446
34881SOL     OW 6416   1.575   4.555   8.252
34881SOL    HW1 6417   1.617   4.489   8.306
34881SOL    HW2 6418   1.645   4.616   8.229
34882SOL     OW 6419   2.439   7.147   1.169
34882SOL    HW1 6420   2.475   7.124   1.254
34882SOL    HW2 6421   2.400   7.066   1.136
34883SOL     OW 6422  10.977   9.658   9.765
34883SOL    HW1 6423  10.949   9.635   9.676
34883SOL    HW2 6424  10.942   9.588   9.820
34884SOL     OW 6425  11.506   2.284  12.228
34884SOL    HW1 6426  11.534   2.371  12.257
34884SOL    HW2 6427  11.570   2.224  12.266
34885SOL     OW 6428   0.983   1.845  11.091
34885SOL    HW1 6429   1.077   1.859  11.097
34885SOL    HW2 6430   0.947   1.929  11.064
34886SOL     OW 6431  10.110   9.238   3.156
34886SOL    HW1 6432  10.100   9.325   3.118
34886SOL    HW2 6433  10.126   9.181   3.081
34887SOL     OW 6434  14.706   7.935   4.605
34887SOL    HW1 6435  14.677   8.017   4.645
34887SOL    HW2 6436  14.644   7.921   4.533
34888SOL     OW 6437   5.956  14.849  14.016
34888SOL    HW1 6438   5.873  14.827  14.060
34888SOL    HW2 6439   6.005   0.021  14.081
34889SOL     OW 6440   7.524   5.017  11.295
34889SOL    HW1 6441   7.559   5.101  11.266
34889SOL    HW2 6442   7.454   4.997  11.233
34890SOL     OW 6443   3.492  12.103   2.373
34890SOL    HW1 6444   3.549  12.067   2.441
34890SOL    HW2 6445   3.552  12.146   2.312
34891SOL     OW 6446  14.807   4.061   2.703
34891SOL    HW1 6447  14.771   4.148   2.721
34891SOL    HW2 6448  14.786   4.009   2.780
34892SOL     OW 6449   1.894  13.079  11.964
34892SOL    HW1 6450   1.809  13.058  11.926
34892SOL    HW2 6451   1.938  13.130  11.896
34893SOL     OW 6452   2.740  12.170  12.494
34893SOL    HW1 6453   2.674  12.113  12.534
34893SOL    HW2 6454   2.689  12.242  12.457
34894SOL     OW 6455   0.752  11.097   8.792
34894SOL    HW1 6456   0.698  11.049   8.855
34894SOL    HW2 6457   0.813  11.147   8.846
34895SOL     OW 6458   6.399   9.378   9.745
34895SOL    HW1 6459   6.445   9.447   9.698
34895SOL    HW2 6460   6.332   9.348   9.684
34896SOL     OW 6461   9.784   4.520   1.490
34896SOL    HW1 6462   9.716   4.552   1.548
34896SOL    HW2 6463   9.818   4.441   1.532
34897SOL     OW 6464   7.605   6.116  12.584
34897SOL    HW1 6465   7.654   6.196  12.602
34897SOL    HW2 6466   7.640   6.085  12.501
34898SOL     OW 6467   7.399   5.718   3.911
34898SOL    HW1 6468   7.422   5.798   3.957
34898SOL    HW2 6469   7.436   5.728   3.824
34899SOL     OW 6470   2.359  10.565   1.432
34899SOL    HW1 6471   2.409  10.644   1.455
34899SOL    HW2 6472   2.393  10.539   1.346
34900SOL     OW 6473   4.728   5.664   4.494
34900SOL    HW1 6474   4.802   5.617   4.532
34900SOL    HW2 6475   4.766   5.745   4.458
34901SOL     OW 6476  14.867   4.534   2.749
34901SOL    HW1 6477  14.796   4.593   2.725
34901SOL    HW2 6478   0.061   4.592   2.774
34902SOL     OW 6479  12.606  11.067   5.422
34902SOL    HW1 6480  12.667  11.088   5.350
34902SOL    HW2 6481  12.536  11.017   5.380
34903SOL     OW 6482  14.444   5.879   0.942
34903SOL    HW1 6483  14.426   5.799   0.992
34903SOL    HW2 6484  14.400   5.948   0.992
34904SOL     OW 6485  13.191  14.300   1.109
34904SOL    HW1 6486  13.112  14.354   1.108
34904SOL    HW2 6487  13.187  14.250   1.028
34905SOL     OW 6488   7.131   2.501   3.994
34905SOL    HW1 6489   7.222   2.480   3.972
34905SOL    HW2 6490   7.081   2.474   3.918
34906SOL     OW 6491   5.943  14.601   4.810
34906SOL    HW1 6492   5.980  14.565   4.891
34906SOL    HW2 6493   5.936  14.526   4.751
34907SOL     OW 6494   0.856   7.657   0.237
34907SOL    HW1 6495   0.937   7.633   0.191
34907SOL    HW2 6496   0.798   7.688   0.168
34908SOL     OW 6497  12.818   1.861  13.479
34908SOL    HW1 6498  12.903   1.896  13.505
34908SOL    HW2 6499  12.800   1.791  13.542
34909SOL     OW 6500   5.236   9.618   5.585
34909SOL    HW1 6501   5.231   9.676   5.509
34909SOL    HW2 6502   5.268   9.535   5.549
34910SOL     OW 6503   9.012   2.284  13.291
34910SOL    HW1 6504   8.938   2.227  13.272
34910SOL    HW2 6505   8.974   2.371  13.300
34911SOL     OW 6506   3.224   4.524  10.000
34911SOL    HW1 6507   3.160   4.507   9.931
34911SOL    HW2 6508   3.225   4.444  10.052
34912SOL     OW 6509   4.743   7.314   1.188
34912SOL    HW1 6510   4.807   7.339   1.121
34912SOL    HW2 6511   4.699   7.395   1.211
34913SOL     OW 6512   4.215  12.917  10.168
34913SOL    HW1 6513   4.236  12.824  10.170
34913SOL    HW2 6514   4.299  12.960  10.151
34914SOL     OW 6515   8.683   2.500   7.386
34914SOL    HW1 6516   8.625   2.439   7.340
34914SOL    HW2 6517   8.624   2.558   7.434
34915SOL     OW 6518  11.832   1.816   0.201
34915SOL    HW1 6519  11.805   1.728   0.173
34915SOL    HW2 6520  11.762   1.873   0.170
34916SOL     OW 6521   9.295   3.116  11.324
34916SOL    HW1 6522   9.222   3.056  11.338
34916SOL    HW2 6523   9.367   3.061  11.294
34917SOL     OW 6524   5.073   9.160   2.069
34917SOL    HW1 6525   5.030   9.170   1.984
34917SOL    HW2 6526   5.160   9.126   2.049
34918SOL     OW 6527   6.280   5.494   9.511
34918SOL    HW1 6528   6.372   5.518   9.522
34918SOL    HW2 6529   6.253   5.460   9.596
34919SOL     OW 6530   2.360   2.067   1.547
34919SOL    HW1 6531   2.366   1.979   1.583
34919SOL    HW2 6532   2.306   2.115   1.611
34920SOL     OW 6533   7.883  13.063   0.508
34920SOL    HW1 6534   7.885  13.157   0.527
34920SOL    HW2 6535   7.966  13.031   0.541
34921SOL     OW 6536   3.731   7.601   4.979
34921SOL    HW1 6537   3.794   7.595   4.908
34921SOL    HW2 6538   3.685   7.683   4.963
34922SOL     OW 6539  10.951   2.446  13.114
34922SOL    HW1 6540  10.994   2.413  13.193
34922SOL    HW2 6541  11.009   2.420  13.042
34923SOL     OW 6542   9.268  12.888   7.772
34923SOL    HW1 6543   9.306  12.969   7.738
34923SOL    HW2 6544   9.205  12.861   7.705
34924SOL     OW 6545   2.942   9.009   1.905
34924SOL    HW1 6546   2.915   9.062   1.980
34924SOL    HW2 6547   2.878   8.938   1.901
34925SOL     OW 6548   0.947   9.048  12.195
34925SOL    HW1 6549   0.915   9.054  12.106
34925SOL    HW2 6550   1.031   9.003  12.187
34926SOL     OW 6551   9.047   5.185  14.832
34926SOL    HW1 6552   8.954   5.165  14.844
34926SOL    HW2 6553   9.057   5.193  14.737
34927SOL     OW 6554  14.284   0.274  12.953
34927SOL    HW1 6555  14.196   0.241  12.971
34927SOL    HW2 6556  14.342   0.212  12.997
34928SOL     OW 6557   4.951  11.882   9.166
34928SOL    HW1 6558   4.871  11.935   9.171
34928SOL    HW2 6559   4.928  11.800   9.211
34929SOL     OW 6560   9.237   8.903  13.164
34929SOL    HW1 6561   9.185   8.921  13.242
34929SOL    HW2 6562   9.174   8.896  13.093
34930SOL     OW 6563   8.343   2.550  10.470
34930SOL    HW1 6564   8.397   2.561  10.392
34930SOL    HW2 6565   8.269   2.610  10.456
34931SOL     OW 6566  12.285  14.149  10.343
34931SOL    HW1 6567  12.217  14.133  10.277
34931SOL    HW2 6568  12.309  14.240  10.331
34932SOL     OW 6569   4.736   2.025   1.934
34932SOL    HW1 6570   4.681   2.101   1.914
34932SOL    HW2 6571   4.674   1.956   1.957
34933SOL     OW 6572  12.849   6.487   3.791
34933SOL    HW1 6573  12.832   6.459   3.881
34933SOL    HW2 6574  12.843   6.583   3.794
34934SOL     OW 6575   1.879   2.157   4.684
34934SOL    HW1 6576   1.848   2.120   4.601
34934SOL    HW2 6577   1.873   2.084   4.746
34935SOL     OW 6578   0.556   1.969   9.873
34935SOL    HW1 6579   0.514   1.884   9.887
34935SOL    HW2 6580   0.608   1.957   9.793
34936SOL     OW 6581  11.962  10.836   5.553
34936SOL    HW1 6582  11.915  10.813   5.473
34936SOL    HW2 6583  11.965  10.755   5.603
34937SOL     OW 6584   7.687   1.877   4.457
34937SOL    HW1 6585   7.681   1.786   4.427
34937SOL    HW2 6586   7.599   1.912   4.445
34938SOL     OW 6587   3.647   1.512  12.655
34938SOL    HW1 6588   3.614   1.592  12.697
34938SOL    HW2 6589   3.674   1.456  12.728
34939SOL     OW 6590   6.549  12.612   1.020
34939SOL    HW1 6591   6.567  12.561   1.099
34939SOL    HW2 6592   6.572  12.554   0.948
34940SOL     OW 6593  14.618   6.373   5.642
34940SOL    HW1 6594  14.619   6.347   5.549
34940SOL    HW2 6595  14.585   6.296   5.688
34941SOL     OW 6596  10.339   8.039   8.841
34941SOL    HW1 6597  10.298   8.109   8.892
34941SOL    HW2 6598  10.317   8.060   8.750
34942SOL     OW 6599   3.660  12.612   6.350
34942SOL    HW1 6600   3.659  12.572   6.437
34942SOL    HW2 6601   3.712  12.692   6.361
34943SOL     OW 6602  13.363  11.038   8.919
34943SOL    HW1 6603  13.393  10.974   8.984
34943SOL    HW2 6604  13.343  10.985   8.841
34944SOL     OW 6605   6.520  14.709  14.163
34944SOL    HW1 6606   6.570  14.664  14.095
34944SOL    HW2 6607   6.429  14.685  14.145
34945SOL     OW 6608   1.157   8.603   2.384
34945SOL    HW1 6609   1.137   8.511   2.404
34945SOL    HW2 6610   1.078   8.637   2.344
34946SOL     OW 6611  12.481   0.686   2.431
34946SOL    HW1 6612  12.502   0.629   2.506
34946SOL    HW2 6613  12.567   0.708   2.394
34947SOL     OW 6614  12.387  10.156   9.354
34947SOL    HW1 6615  12.477  10.175   9.382
34947SOL    HW2 6616  12.378  10.200   9.270
34948SOL     OW 6617   9.692   3.572   7.090
34948SOL    HW1 6618   9.637   3.515   7.145
34948SOL    HW2 6619   9.780   3.535   7.099
34949SOL     OW 6620   7.121   7.969   1.148
34949SOL    HW1 6621   7.026   7.958   1.153
34949SOL    HW2 6622   7.156   7.880   1.145
34950SOL     OW 6623   9.764   1.323   9.328
34950SOL    HW1 6624   9.737   1.405   9.370
34950SOL    HW2 6625   9.682   1.283   9.298
34951SOL     OW 6626   3.345   6.473  13.229
34951SOL    HW1 6627   3.260   6.465  13.271
34951SOL    HW2 6628   3.361   6.567  13.222
34952SOL     OW 6629   0.158   3.340   6.885
34952SOL    HW1 6630   0.199   3.253   6.886
34952SOL    HW2 6631   0.163   3.370   6.976
34953SOL     OW 6632   8.737   9.053   2.920
34953SOL    HW1 6633   8.661   9.025   2.870
34953SOL    HW2 6634   8.750   9.144   2.895
34954SOL     OW 6635   9.225   2.108   8.963
34954SOL    HW1 6636   9.214   2.089   9.056
34954SOL    HW2 6637   9.147   2.156   8.938
34955SOL     OW 6638   8.492   0.434   3.262
34955SOL    HW1 6639   8.463   0.343   3.258
34955SOL    HW2 6640   8.577   0.430   3.306
34956SOL     OW 6641   2.143   6.383   0.706
34956SOL    HW1 6642   2.193   6.337   0.638
34956SOL    HW2 6643   2.205   6.396   0.778
34957SOL     OW 6644   8.267   6.135   2.729
34957SOL    HW1 6645   8.307   6.050   2.709
34957SOL    HW2 6646   8.174   6.115   2.741
34958SOL     OW 6647   3.227  13.607   6.123
34958SOL    HW1 6648   3.142  13.606   6.166
34958SOL    HW2 6649   3.207  13.603   6.030
34959SOL     OW 6650  12.812   1.567   8.780
34959SOL    HW1 6651  12.843   1.590   8.693
34959SOL    HW2 6652  12.885   1.517   8.818
34960SOL     OW 6653   7.841   1.664  10.649
34960SOL    HW1 6654   7.912   1.694  10.706
34960SOL    HW2 6655   7.791   1.743  10.629
34961SOL     OW 6656   9.280  12.059  11.697
34961SOL    HW1 6657   9.292  12.113  11.776
34961SOL    HW2 6658   9.344  11.989  11.706
34962SOL     OW 6659  10.917   8.935  11.768
34962SOL    HW1 6660  10.884   8.983  11.843
34962SOL    HW2 6661  10.885   8.845  11.781
34963SOL     OW 6662  11.175  11.435   9.127
34963SOL    HW1 6663  11.221  11.360   9.091
34963SOL    HW2 6664  11.111  11.459   9.059
34964SOL     OW 6665  11.001   2.289   8.509
34964SOL    HW1 6666  11.029   2.303   8.419
34964SOL    HW2 6667  11.066   2.335   8.562
34965SOL     OW 6668   8.864   8.826  13.660
34965SOL    HW1 6669   8.858   8.805  13.567
34965SOL    HW2 6670   8.848   8.742  13.704
34966SOL     OW 6671   5.886   7.179  13.618
34966SOL    HW1 6672   5.796   7.165  13.646
34966SOL    HW2 6673   5.940   7.149  13.691
34967SOL     OW 6674   6.953  12.145   1.289
34967SOL    HW1 6675   6.994  12.230   1.305
34967SOL    HW2 6676   7.015  12.081   1.323
34968SOL     OW 6677   5.635  10.376  12.008
34968SOL    HW1 6678   5.579  10.401  12.082
34968SOL    HW2 6679   5.661  10.286  12.028
34969SOL     OW 6680  12.936  10.700   0.978
34969SOL    HW1 6681  13.000  10.691   0.907
34969SOL    HW2 6682  12.989  10.710   1.057
34970SOL     OW 6683   0.805  11.664  10.487
34970SOL    HW1 6684   0.890  11.646  10.528
34970SOL    HW2 6685   0.743  11.614  10.540
34971SOL     OW 6686  12.194  10.014   2.897
34971SOL    HW1 6687  12.127  10.079   2.918
34971SOL    HW2 6688  12.158   9.931   2.929
34972SOL     OW 6689   7.460   2.149  12.404
34972SOL    HW1 6690   7.495   2.178  12.488
34972SOL    HW2 6691   7.371   2.185  12.401
34973SOL     OW 6692   1.959   1.457   5.053
34973SOL    HW1 6693   1.980   1.545   5.083
34973SOL    HW2 6694   2.038   1.426   5.009
34974SOL     OW 6695   8.309   6.018  10.180
34974SOL    HW1 6696   8.342   5.992  10.267
34974SOL    HW2 6697   8.215   6.028  10.193
34975SOL     OW 6698  11.737   5.426  11.732
34975SOL    HW1 6699  11.673   5.400  11.798
34975SOL    HW2 6700  11.742   5.352  11.672
34976SOL     OW 6701   7.524  13.881  12.797
34976SOL    HW1 6702   7.580  13.948  12.758
34976SOL    HW2 6703   7.464  13.855  12.728
34977SOL     OW 6704   1.060   0.242  13.921
34977SOL    HW1 6705   1.148   0.277  13.936
34977SOL    HW2 6706   1.006   0.320  13.908
34978SOL     OW 6707   9.445   7.878   7.064
34978SOL    HW1 6708   9.387   7.885   7.140
34978SOL    HW2 6709   9.416   7.948   7.005
34979SOL     OW 6710  10.606   4.205  13.464
34979SOL    HW1 6711  10.552   4.173  13.392
34979SOL    HW2 6712  10.567   4.166  13.543
34980SOL     OW 6713   2.723  10.981   3.238
34980SOL    HW1 6714   2.700  11.065   3.279
34980SOL    HW2 6715   2.724  10.918   3.310
34981SOL     OW 6716  12.995   4.524   1.741
34981SOL    HW1 6717  12.932   4.452   1.748
34981SOL    HW2 6718  12.941   4.603   1.741
34982SOL     OW 6719   9.210   4.571   8.998
34982SOL    HW1 6720   9.184   4.662   9.015
34982SOL    HW2 6721   9.285   4.557   9.057
34983SOL     OW 6722  13.969   1.239   2.056
34983SOL    HW1 6723  13.963   1.168   1.992
34983SOL    HW2 6724  13.903   1.218   2.122
34984SOL     OW 6725   2.250   6.105  11.747
34984SOL    HW1 6726   2.235   6.197  11.726
34984SOL    HW2 6727   2.309   6.107  11.822
34985SOL     OW 6728  13.479  13.635  13.497
34985SOL    HW1 6729  13.550  13.688  13.534
34985SOL    HW2 6730  13.516  13.547  13.489
34986SOL     OW 6731   1.330   6.776  10.367
34986SOL    HW1 6732   1.290   6.719  10.302
34986SOL    HW2 6733   1.258   6.804  10.423
34987SOL     OW 6734   7.023   9.999  13.970
34987SOL    HW1 6735   7.072  10.064  13.919
34987SOL    HW2 6736   6.975  10.052  14.034
34988SOL     OW 6737   5.260  11.566   2.059
34988SOL    HW1 6738   5.307  11.486   2.084
34988SOL    HW2 6739   5.168  11.546   2.076
34989SOL     OW 6740   1.971  11.410  10.814
34989SOL    HW1 6741   2.030  11.409  10.738
34989SOL    HW2 6742   2.023  11.372  10.885
34990SOL     OW 6743   7.700  13.234   4.672
34990SOL    HW1 6744   7.762  13.256   4.742
34990SOL    HW2 6745   7.692  13.139   4.677
34991SOL     OW 6746   1.765  12.127   3.709
34991SOL    HW1 6747   1.808  12.191   3.767
34991SOL    HW2 6748   1.836  12.091   3.656
34992SOL     OW 6749   8.741   0.297   3.647
34992SOL    HW1 6750   8.780   0.250   3.573
34992SOL    HW2 6751   8.727   0.230   3.713
34993SOL     OW 6752   1.634  13.157   8.888
34993SOL    HW1 6753   1.713  13.103   8.896
34993SOL    HW2 6754   1.603  13.168   8.978
34994SOL     OW 6755   3.951  13.351  10.110
34994SOL    HW1 6756   3.911  13.420  10.163
34994SOL    HW2 6757   3.883  13.284  10.103
34995SOL     OW 6758   6.247  10.758   4.686
34995SOL    HW1 6759   6.309  10.705   4.735
34995SOL    HW2 6760   6.177  10.698   4.663
34996SOL     OW 6761  13.971  13.962   3.993
34996SOL    HW1 6762  14.027  14.025   3.947
34996SOL    HW2 6763  13.949  13.897   3.927
34997SOL     OW 6764  14.391   9.386  13.993
34997SOL    HW1 6765  14.315   9.414  14.044
34997SOL    HW2 6766  14.366   9.302  13.956
34998SOL     OW 6767  12.221   4.694   1.705
34998SOL    HW1 6768  12.148   4.755   1.717
34998SOL    HW2 6769  12.286   4.745   1.657
34999SOL     OW 6770  12.904   6.762  13.485
34999SOL    HW1 6771  12.888   6.757  13.391
34999SOL    HW2 6772  12.957   6.686  13.506
35000SOL     OW 6773  13.550  13.336   9.417
35000SOL    HW1 6774  13.573  13.399   9.485
35000SOL    HW2 6775  13.530  13.389   9.340
35001SOL     OW 6776   1.986   0.688   0.836
35001SOL    HW1 6777   1.977   0.640   0.754
35001SOL    HW2 6778   1.918   0.755   0.832
35002SOL     OW 6779   3.063   1.058   7.177
35002SOL    HW1 6780   2.980   1.105   7.176
35002SOL    HW2 6781   3.074   1.027   7.087
35003SOL     OW 6782   0.385   6.756  10.156
35003SOL    HW1 6783   0.326   6.745  10.230
35003SOL    HW2 6784   0.442   6.680  10.159
35004SOL     OW 6785   1.381   7.327   5.025
35004SOL    HW1 6786   1.427   7.262   5.077
35004SOL    HW2 6787   1.303   7.282   4.992
35005SOL     OW 6788   1.929   2.794   1.881
35005SOL    HW1 6789   2.021   2.784   1.857
35005SOL    HW2 6790   1.892   2.847   1.810
35006SOL     OW 6791  14.590   9.101   6.021
35006SOL    HW1 6792  14.542   9.044   5.961
35006SOL    HW2 6793  14.531   9.175   6.037
35007SOL     OW 6794   3.121   2.566   6.554
35007SOL    HW1 6795   3.146   2.533   6.468
35007SOL    HW2 6796   3.065   2.642   6.535
35008SOL     OW 6797   6.128  10.274  14.321
35008SOL    HW1 6798   6.214  10.315  14.333
35008SOL    HW2 6799   6.128  10.201  14.384
35009SOL     OW 6800   0.757  10.312   0.417
35009SOL    HW1 6801   0.728  10.367   0.490
35009SOL    HW2 6802   0.680  10.303   0.361
35010SOL     OW 6803   6.400   6.419  11.213
35010SOL    HW1 6804   6.476   6.366  11.189
35010SOL    HW2 6805   6.402   6.493  11.152
35011SOL     OW 6806  14.816   6.486  12.490
35011SOL    HW1 6807  14.756   6.503  12.418
35011SOL    HW2 6808   0.022   6.522  12.460
35012SOL     OW 6809   9.819   7.129   9.235
35012SOL    HW1 6810   9.795   7.099   9.322
35012SOL    HW2 6811   9.804   7.053   9.178
35013SOL     OW 6812   7.437   5.386   2.130
35013SOL    HW1 6813   7.403   5.348   2.049
35013SOL    HW2 6814   7.502   5.450   2.100
35014SOL     OW 6815   7.331  14.864   6.025
35014SOL    HW1 6816   7.382   0.011   6.102
35014SOL    HW2 6817   7.396  14.856   5.955
35015SOL     OW 6818   8.555   6.474   7.676
35015SOL    HW1 6819   8.464   6.460   7.650
35015SOL    HW2 6820   8.561   6.439   7.765
35016SOL     OW 6821   4.520   9.120   5.616
35016SOL    HW1 6822   4.568   9.045   5.582
35016SOL    HW2 6823   4.587   9.187   5.632
35017SOL     OW 6824   7.722   8.628  10.547
35017SOL    HW1 6825   7.669   8.612  10.625
35017SOL    HW2 6826   7.738   8.541  10.510
35018SOL     OW 6827   7.226   0.510   6.966
35018SOL    HW1 6828   7.268   0.591   6.995
35018SOL    HW2 6829   7.299   0.451   6.945
35019SOL     OW 6830  10.101  10.083   4.259
35019SOL    HW1 6831  10.139   9.998   4.236
35019SOL    HW2 6832  10.169  10.146   4.238
35020SOL     OW 6833   0.154   3.546   4.289
35020SOL    HW1 6834   0.126   3.496   4.366
35020SOL    HW2 6835   0.245   3.569   4.307
35021SOL     OW 6836   7.402  10.054  14.478
35021SOL    HW1 6837   7.446  10.044  14.562
35021SOL    HW2 6838   7.413   9.970  14.434
35022SOL     OW 6839   4.117   2.910  13.927
35022SOL    HW1 6840   4.198   2.869  13.957
35022SOL    HW2 6841   4.125   2.911  13.832
35023SOL     OW 6842   5.587   2.412  12.721
35023SOL    HW1 6843   5.493   2.423  12.706
35023SOL    HW2 6844   5.599   2.431  12.814
35024SOL     OW 6845   0.388   5.957  10.909
35024SOL    HW1 6846   0.447   6.027  10.881
35024SOL    HW2 6847   0.389   5.894  10.837
35025SOL     OW 6848  12.537   2.895   6.024
35025SOL    HW1 6849  12.542   2.952   5.948
35025SOL    HW2 6850  12.568   2.949   6.097
35026SOL     OW 6851   5.901  13.871   2.739
35026SOL    HW1 6852   5.964  13.940   2.719
35026SOL    HW2 6853   5.914  13.853   2.832
35027SOL     OW 6854  10.989   1.400  10.276
35027SOL    HW1 6855  10.973   1.463  10.347
35027SOL    HW2 6856  10.906   1.356  10.264
35028SOL     OW 6857   7.066  11.167   3.531
35028SOL    HW1 6858   7.146  11.120   3.554
35028SOL    HW2 6859   7.021  11.180   3.614
35029SOL     OW 6860   1.470   6.939   7.915
35029SOL    HW1 6861   1.427   6.870   7.966
35029SOL    HW2 6862   1.507   6.998   7.981
35030SOL     OW 6863   6.621   8.857  11.063
35030SOL    HW1 6864   6.536   8.815  11.072
35030SOL    HW2 6865   6.609   8.944  11.103
35031SOL     OW 6866   4.681   3.046  12.030
35031SOL    HW1 6867   4.702   3.112  12.097
35031SOL    HW2 6868   4.707   3.087  11.948
35032SOL     OW 6869  13.618  10.988  13.949
35032SOL    HW1 6870  13.659  11.027  14.026
35032SOL    HW2 6871  13.638  11.048  13.877
35033SOL     OW 6872   8.706   7.941  12.614
35033SOL    HW1 6873   8.640   7.910  12.552
35033SOL    HW2 6874   8.709   7.872  12.681
35034SOL     OW 6875  14.669  11.861  13.066
35034SOL    HW1 6876  14.685  11.955  13.078
35034SOL    HW2 6877  14.577  11.855  13.041
35035SOL     OW 6878  14.066  12.792   8.325
35035SOL    HW1 6879  14.085  12.702   8.350
35035SOL    HW2 6880  14.133  12.814   8.261
35036SOL     OW 6881   1.739   8.625   6.167
35036SOL    HW1 6882   1.725   8.533   6.189
35036SOL    HW2 6883   1.695   8.637   6.083
35037SOL     OW 6884   7.256  11.889  10.725
35037SOL    HW1 6885   7.256  11.887  10.629
35037SOL    HW2 6886   7.166  11.907  10.749
35038SOL     OW 6887   6.066   1.598   7.830
35038SOL    HW1 6888   5.998   1.604   7.762
35038SOL    HW2 6889   6.031   1.536   7.893
35039SOL     OW 6890  12.762   9.673  11.529
35039SOL    HW1 6891  12.803   9.734  11.467
35039SOL    HW2 6892  12.686   9.639  11.481
35040SOL     OW 6893  10.838   8.320   2.577
35040SOL    HW1 6894  10.919   8.303   2.625
35040SOL    HW2 6895  10.769   8.291   2.636
35041SOL     OW 6896   7.359   6.386  13.837
35041SOL    HW1 6897   7.433   6.353  13.787
35041SOL    HW2 6898   7.360   6.336  13.919
35042SOL     OW 6899   1.064   2.215   1.307
35042SOL    HW1 6900   1.156   2.193   1.294
35042SOL    HW2 6901   1.047   2.285   1.244
35043SOL     OW 6902  11.770   1.387   0.821
35043SOL    HW1 6903  11.865   1.399   0.823
35043SOL    HW2 6904  11.740   1.421   0.905
35044SOL     OW 6905   8.366  13.028   6.627
35044SOL    HW1 6906   8.395  13.117   6.611
35044SOL    HW2 6907   8.404  12.977   6.556
35045SOL     OW 6908   8.966  10.218  13.619
35045SOL    HW1 6909   8.892  10.170  13.581
35045SOL    HW2 6910   8.926  10.294  13.660
35046SOL     OW 6911   5.758  12.306   9.614
35046SOL    HW1 6912   5.675  12.259   9.614
35046SOL    HW2 6913   5.796  12.288   9.528
35047SOL     OW 6914  11.421  10.343   7.225
35047SOL    HW1 6915  11.395  10.260   7.184
35047SOL    HW2 6916  11.345  10.401   7.212
35048SOL     OW 6917  11.271   3.881  13.231
35048SOL    HW1 6918  11.220   3.911  13.156
35048SOL    HW2 6919  11.360   3.870  13.196
35049SOL     OW 6920  10.815   3.002  13.793
35049SOL    HW1 6921  10.900   2.983  13.753
35049SOL    HW2 6922  10.824   3.091  13.828
35050SOL     OW 6923   5.601   2.138  13.816
35050SOL    HW1 6924   5.521   2.163  13.769
35050SOL    HW2 6925   5.586   2.048  13.844
35051SOL     OW 6926  12.520  13.797   4.806
35051SOL    HW1 6927  12.603  13.751   4.795
35051SOL    HW2 6928  12.454  13.729   4.798
35052SOL     OW 6929   2.089   7.390   5.336
35052SOL    HW1 6930   2.152   7.368   5.268
35052SOL    HW2 6931   2.115   7.338   5.412
35053SOL     OW 6932   3.446   4.152   9.864
35053SOL    HW1 6933   3.503   4.143   9.788
35053SOL    HW2 6934   3.493   4.107   9.935
35054SOL     OW 6935  13.719   9.007   3.279
35054SOL    HW1 6936  13.797   9.055   3.309
35054SOL    HW2 6937  13.650   9.031   3.341
35055SOL     OW 6938   3.855   7.332  10.612
35055SOL    HW1 6939   3.869   7.285  10.530
35055SOL    HW2 6940   3.797   7.404  10.589
35056SOL     OW 6941  11.335   9.245   4.193
35056SOL    HW1 6942  11.278   9.225   4.267
35056SOL    HW2 6943  11.284   9.306   4.139
35057SOL     OW 6944   7.275  13.544   1.262
35057SOL    HW1 6945   7.183  13.520   1.269
35057SOL    HW2 6946   7.312  13.481   1.200
35058SOL     OW 6947  14.237   2.856  12.223
35058SOL    HW1 6948  14.186   2.884  12.147
35058SOL    HW2 6949  14.266   2.768  12.201
35059SOL     OW 6950  12.247   5.899   3.280
35059SOL    HW1 6951  12.202   5.979   3.252
35059SOL    HW2 6952  12.279   5.919   3.368
35060SOL     OW 6953   3.748  10.829   6.533
35060SOL    HW1 6954   3.722  10.838   6.441
35060SOL    HW2 6955   3.751  10.735   6.548
35061SOL     OW 6956  14.050   5.371  10.978
35061SOL    HW1 6957  14.089   5.404  10.897
35061SOL    HW2 6958  14.082   5.281  10.985
35062SOL     OW 6959   7.672   4.363   9.616
35062SOL    HW1 6960   7.727   4.285   9.614
35062SOL    HW2 6961   7.662   4.382   9.710
35063SOL     OW 6962   5.163   4.707  13.055
35063SOL    HW1 6963   5.105   4.756  12.995
35063SOL    HW2 6964   5.183   4.770  13.125
35064SOL     OW 6965  11.576   3.698   1.598
35064SOL    HW1 6966  11.557   3.758   1.670
35064SOL    HW2 6967  11.659   3.730   1.561
35065SOL     OW 6968  13.573   9.712   6.818
35065SOL    HW1 6969  13.559   9.631   6.768
35065SOL    HW2 6970  13.485   9.742   6.839
35066SOL     OW 6971   1.194  12.013   4.348
35066SOL    HW1 6972   1.201  11.976   4.436
35066SOL    HW2 6973   1.223  12.104   4.357
35067SOL     OW 6974   7.528   7.792   2.413
35067SOL    HW1 6975   7.443   7.830   2.432
35067SOL    HW2 6976   7.580   7.806   2.492
35068SOL     OW 6977  13.172   6.658   6.065
35068SOL    HW1 6978  13.212   6.682   6.148
35068SOL    HW2 6979  13.155   6.742   6.021
35069SOL     OW 6980   4.707  10.405   6.776
35069SOL    HW1 6981   4.622  10.420   6.735
35069SOL    HW2 6982   4.748  10.492   6.778
35070SOL     OW 6983   5.233   9.902   1.117
35070SOL    HW1 6984   5.315   9.860   1.091
35070SOL    HW2 6985   5.212   9.862   1.202
35071SOL     OW 6986   4.208   6.203  11.597
35071SOL    HW1 6987   4.243   6.292  11.597
35071SOL    HW2 6988   4.251   6.161  11.522
35072SOL     OW 6989  10.057  12.228   1.827
35072SOL    HW1 6990   9.975  12.268   1.856
35072SOL    HW2 6991  10.031  12.174   1.752
35073SOL     OW 6992   7.602   4.426   4.527
35073SOL    HW1 6993   7.678   4.478   4.552
35073SOL    HW2 6994   7.560   4.477   4.458
35074SOL     OW 6995   5.847  12.769   4.186
35074SOL    HW1 6996   5.922  12.720   4.152
35074SOL    HW2 6997   5.872  12.860   4.175
35075SOL     OW 6998   4.051  11.589  12.886
35075SOL    HW1 6999   4.143  11.573  12.867
35075SOL    HW2 7000   4.004  11.522  12.836
35076SOL     OW 7001   6.738   7.226  14.165
35076SOL    HW1 7002   6.829   7.207  14.188
35076SOL    HW2 7003   6.742   7.263  14.077
35077SOL     OW 7004  11.466   1.061   4.850
35077SOL    HW1 7005  11.414   1.043   4.929
35077SOL    HW2 7006  11.407   1.044   4.777
35078SOL     OW 7007   1.310   2.842   6.461
35078SOL    HW1 7008   1.223   2.881   6.459
35078SOL    HW2 7009   1.357   2.886   6.390
35079SOL     OW 7010   1.674   8.021   0.830
35079SOL    HW1 7011   1.686   8.108   0.869
35079SOL    HW2 7012   1.617   8.037   0.755
35080SOL     OW 7013   1.963   8.380  10.981
35080SOL    HW1 7014   1.976   8.470  10.951
35080SOL    HW2 7015   1.904   8.387  11.056
35081SOL     OW 7016  11.432   5.578   1.675
35081SOL    HW1 7017  11.433   5.499   1.620
35081SOL    HW2 7018  11.395   5.646   1.619
35082SOL     OW 7019   5.544   0.977   8.576
35082SOL    HW1 7020   5.624   1.027   8.584
35082SOL    HW2 7021   5.476   1.042   8.556
35083SOL     OW 7022   0.829   1.249   0.644
35083SOL    HW1 7023   0.923   1.234   0.659
35083SOL    HW2 7024   0.788   1.168   0.673
35084SOL     OW 7025   7.489  13.954  13.057
35084SOL    HW1 7026   7.492  13.927  12.966
35084SOL    HW2 7027   7.469  14.048  13.054
35085SOL     OW 7028   7.604   2.306   7.568
35085SOL    HW1 7029   7.612   2.339   7.478
35085SOL    HW2 7030   7.590   2.212   7.557
35086SOL     OW 7031   8.513   4.438   9.741
35086SOL    HW1 7032   8.526   4.348   9.711
35086SOL    HW2 7033   8.599   4.479   9.733
35087SOL     OW 7034   4.384  13.940   4.509
35087SOL    HW1 7035   4.428  13.963   4.428
35087SOL    HW2 7036   4.381  13.844   4.509
35088SOL     OW 7037  10.208   2.136   0.759
35088SOL    HW1 7038  10.258   2.091   0.690
35088SOL    HW2 7039  10.129   2.084   0.769
35089SOL     OW 7040   3.223   0.059   8.601
35089SOL    HW1 7041   3.202  14.846   8.578
35089SOL    HW2 7042   3.153   0.084   8.662
35090SOL     OW 7043   8.037   5.855   3.946
35090SOL    HW1 7044   8.047   5.949   3.931
35090SOL    HW2 7045   8.120   5.827   3.984
35091SOL     OW 7046  10.731  10.704  12.742
35091SOL    HW1 7047  10.659  10.744  12.694
35091SOL    HW2 7048  10.740  10.617  12.704
35092SOL     OW 7049   8.652  11.226   2.702
35092SOL    HW1 7050   8.663  11.135   2.676
35092SOL    HW2 7051   8.619  11.222   2.792
35093SOL     OW 7052  12.629   5.228   9.793
35093SOL    HW1 7053  12.641   5.321   9.809
35093SOL    HW2 7054  12.707   5.201   9.745
35094SOL     OW 7055  11.366   9.905   0.911
35094SOL    HW1 7056  11.313   9.876   0.985
35094SOL    HW2 7057  11.357  10.000   0.912
35095SOL     OW 7058   5.872   3.804  10.413
35095SOL    HW1 7059   5.944   3.797  10.350
35095SOL    HW2 7060   5.911   3.780  10.497
35096SOL     OW 7061  11.165  11.074   8.369
35096SOL    HW1 7062  11.232  11.033   8.314
35096SOL    HW2 7063  11.115  11.001   8.405
35097SOL     OW 7064   1.067  10.866   7.664
35097SOL    HW1 7065   1.070  10.779   7.703
35097SOL    HW2 7066   1.018  10.919   7.727
35098SOL     OW 7067   1.733  13.315   9.861
35098SOL    HW1 7068   1.719  13.223   9.837
35098SOL    HW2 7069   1.662  13.335   9.921
35099SOL     OW 7070   5.428  13.656   0.823
35099SOL    HW1 7071   5.443  13.628   0.913
35099SOL    HW2 7072   5.333  13.670   0.819
35100SOL     OW 7073   8.331  11.998  13.890
35100SOL    HW1 7074   8.398  11.945  13.933
35100SOL    HW2 7075   8.307  11.948  13.812
35101SOL     OW 7076  13.627   0.201   6.165
35101SOL    HW1 7077  13.594   0.133   6.223
35101SOL    HW2 7078  13.700   0.161   6.118
35102SOL     OW 7079  11.212   9.585   9.119
35102SOL    HW1 7080  11.131   9.634   9.105
35102SOL    HW2 7081  11.258   9.635   9.187
35103SOL     OW 7082  12.558   6.293  14.180
35103SOL    HW1 7083  12.468   6.267  14.199
35103SOL    HW2 7084  12.552   6.342  14.098
35104SOL     OW 7085   1.714   6.365   9.219
35104SOL    HW1 7086   1.717   6.341   9.311
35104SOL    HW2 7087   1.740   6.457   9.217
35105SOL     OW 7088   4.649  11.489  10.210
35105SOL    HW1 7089   4.716  11.539  10.257
35105SOL    HW2 7090   4.581  11.553  10.190
35106SOL     OW 7091   7.875  11.842  12.178
35106SOL    HW1 7092   7.947  11.867  12.236
35106SOL    HW2 7093   7.824  11.922  12.167
35107SOL     OW 7094   2.902   2.972  12.043
35107SOL    HW1 7095   2.979   3.010  12.086
35107SOL    HW2 7096   2.864   3.045  11.993
35108SOL     OW 7097   3.424  11.918  10.881
35108SOL    HW1 7098   3.388  11.885  10.799
35108SOL    HW2 7099   3.378  12.001  10.895
35109SOL     OW 7100   6.958   0.636   5.565
35109SOL    HW1 7101   6.875   0.648   5.519
35109SOL    HW2 7102   6.943   0.562   5.624
35110SOL     OW 7103  11.647  10.162   5.953
35110SOL    HW1 7104  11.627  10.102   6.024
35110SOL    HW2 7105  11.736  10.140   5.927
35111SOL     OW 7106   9.611  11.773  14.814
35111SOL    HW1 7107   9.660  11.788   0.017
35111SOL    HW2 7108   9.631  11.849  14.759
35112SOL     OW 7109   0.999   5.541   1.766
35112SOL    HW1 7110   1.003   5.513   1.858
35112SOL    HW2 7111   1.085   5.519   1.731
35113SOL     OW 7112  10.002   0.221  13.868
35113SOL    HW1 7113   9.976   0.139  13.910
35113SOL    HW2 7114   9.920   0.259  13.836
35114SOL     OW 7115   3.824   6.887   1.019
35114SOL    HW1 7116   3.750   6.914   1.074
35114SOL    HW2 7117   3.901   6.898   1.075
35115SOL     OW 7118  14.633   0.296   5.168
35115SOL    HW1 7119  14.675   0.382   5.163
35115SOL    HW2 7120  14.690   0.245   5.225
35116SOL     OW 7121   4.036  12.814   9.605
35116SOL    HW1 7122   3.986  12.895   9.595
35116SOL    HW2 7123   4.082  12.825   9.688
35117SOL     OW 7124  14.460   0.292   2.489
35117SOL    HW1 7125  14.443   0.232   2.561
35117SOL    HW2 7126  14.489   0.373   2.530
35118SOL     OW 7127   2.938   6.661   4.440
35118SOL    HW1 7128   2.950   6.751   4.410
35118SOL    HW2 7129   2.940   6.608   4.360
35119SOL     OW 7130  13.715   3.246   4.694
35119SOL    HW1 7131  13.650   3.258   4.624
35119SOL    HW2 7132  13.759   3.331   4.700
35120SOL     OW 7133   4.620   9.612   0.979
35120SOL    HW1 7134   4.624   9.703   1.008
35120SOL    HW2 7135   4.534   9.604   0.937
35121SOL     OW 7136   5.409  10.037   7.655
35121SOL    HW1 7137   5.435  10.109   7.712
35121SOL    HW2 7138   5.491  10.000   7.623
35122SOL     OW 7139  14.531   8.372   8.300
35122SOL    HW1 7140  14.510   8.418   8.219
35122SOL    HW2 7141  14.528   8.440   8.368
35123SOL     OW 7142   7.282   1.367  14.839
35123SOL    HW1 7143   7.294   1.417  14.759
35123SOL    HW2 7144   7.358   1.309  14.844
35124SOL     OW 7145   0.509   1.116   9.579
35124SOL    HW1 7146   0.466   1.111   9.494
35124SOL    HW2 7147   0.494   1.030   9.619
35125SOL     OW 7148   8.869  11.366   8.721
35125SOL    HW1 7149   8.783  11.333   8.697
35125SOL    HW2 7150   8.911  11.294   8.767
35126SOL     OW 7151   5.318   2.037   9.652
35126SOL    HW1 7152   5.278   2.087   9.581
35126SOL    HW2 7153   5.377   2.099   9.694
35127SOL     OW 7154   6.255   4.989   7.843
35127SOL    HW1 7155   6.323   4.924   7.826
35127SOL    HW2 7156   6.174   4.945   7.818
35128SOL     OW 7157   8.078   1.505  14.517
35128SOL    HW1 7158   8.062   1.533  14.426
35128SOL    HW2 7159   8.115   1.417  14.509
35129SOL     OW 7160  11.963  11.572   1.152
35129SOL    HW1 7161  12.046  11.610   1.179
35129SOL    HW2 7162  11.963  11.483   1.188
35130SOL     OW 7163  14.344   1.139  10.833
35130SOL    HW1 7164  14.297   1.060  10.806
35130SOL    HW2 7165  14.357   1.189  10.753
35131SOL     OW 7166   6.798  12.394   9.605
35131SOL    HW1 7167   6.820  12.301   9.595
35131SOL    HW2 7168   6.840  12.436   9.531
35132SOL     OW 7169  13.631  14.832  12.440
35132SOL    HW1 7170  13.541  14.798  12.437
35132SOL    HW2 7171  13.665  14.801  12.524
35133SOL     OW 7172   4.264   8.659   7.831
35133SOL    HW1 7173   4.269   8.699   7.918
35133SOL    HW2 7174   4.224   8.573   7.846
35134SOL     OW 7175   6.268  10.920   8.138
35134SOL    HW1 7176   6.304  10.993   8.088
35134SOL    HW2 7177   6.209  10.961   8.201
35135SOL     OW 7178  11.809   1.534   8.026
35135SOL    HW1 7179  11.900   1.536   8.056
35135SOL    HW2 7180  11.774   1.452   8.062
35136SOL     OW 7181   0.428   0.909  12.978
35136SOL    HW1 7182   0.446   0.986  13.032
35136SOL    HW2 7183   0.350   0.871  13.018
35137SOL     OW 7184   5.098  11.962   8.080
35137SOL    HW1 7185   5.127  11.962   7.988
35137SOL    HW2 7186   5.046  11.882   8.089
35138SOL     OW 7187  10.613   5.592  11.430
35138SOL    HW1 7188  10.574   5.546  11.504
35138SOL    HW2 7189  10.548   5.657  11.405
35139SOL     OW 7190  13.752   2.082   0.588
35139SOL    HW1 7191  13.673   2.031   0.606
35139SOL    HW2 7192  13.720   2.158   0.539
35140SOL     OW 7193  12.573   6.265   2.301
35140SOL    HW1 7194  12.578   6.169   2.302
35140SOL    HW2 7195  12.659   6.293   2.271
35141SOL     OW 7196  10.263   6.948   8.779
35141SOL    HW1 7197  10.183   6.945   8.726
35141SOL    HW2 7198  10.315   7.016   8.738
35142SOL     OW 7199  11.089  10.219   8.865
35142SOL    HW1 7200  11.170  10.268   8.880
35142SOL    HW2 7201  11.022  10.268   8.913
35143SOL     OW 7202   3.620   3.173   3.086
35143SOL    HW1 7203   3.584   3.261   3.088
35143SOL    HW2 7204   3.688   3.176   3.019
35144SOL     OW 7205  12.515  12.778   3.978
35144SOL    HW1 7206  12.427  12.807   3.956
35144SOL    HW2 7207  12.504  12.686   4.003
35145SOL     OW 7208   2.781  10.018  14.722
35145SOL    HW1 7209   2.805   9.977  14.639
35145SOL    HW2 7210   2.730   9.952  14.768
35146SOL     OW 7211  10.918   8.952  10.054
35146SOL    HW1 7212  10.945   8.874  10.006
35146SOL    HW2 7213  10.842   8.923  10.105
35147SOL     OW 7214   2.717  14.542   1.809
35147SOL    HW1 7215   2.762  14.594   1.742
35147SOL    HW2 7216   2.758  14.569   1.892
35148SOL     OW 7217  11.970   4.713   4.766
35148SOL    HW1 7218  11.896   4.744   4.715
35148SOL    HW2 7219  11.934   4.698   4.854
35149SOL     OW 7220  12.427  12.588  10.958
35149SOL    HW1 7221  12.475  12.666  10.930
35149SOL    HW2 7222  12.492  12.537  11.007
35150SOL     OW 7223   6.136   2.193  10.645
35150SOL    HW1 7224   6.194   2.237  10.707
35150SOL    HW2 7225   6.085   2.133  10.698
35151SOL     OW 7226   0.919   4.746  13.855
35151SOL    HW1 7227   0.967   4.674  13.815
35151SOL    HW2 7228   0.829   4.735  13.824
35152SOL     OW 7229  14.114  13.744   7.575
35152SOL    HW1 7230  14.118  13.771   7.666
35152SOL    HW2 7231  14.021  13.736   7.555
35153SOL     OW 7232  13.774  11.751   6.950
35153SOL    HW1 7233  13.830  11.711   6.883
35153SOL    HW2 7234  13.828  11.820   6.989
35154SOL     OW 7235  11.639   9.277   8.317
35154SOL    HW1 7236  11.687   9.339   8.262
35154SOL    HW2 7237  11.692   9.198   8.316
35155SOL     OW 7238   2.025   6.086   1.535
35155SOL    HW1 7239   1.948   6.091   1.479
35155SOL    HW2 7240   2.032   5.994   1.560
35156SOL     OW 7241   3.658   8.806   1.737
35156SOL    HW1 7242   3.709   8.749   1.795
35156SOL    HW2 7243   3.661   8.892   1.779
35157SOL     OW 7244  11.883  13.113  12.223
35157SOL    HW1 7245  11.952  13.047  12.210
35157SOL    HW2 7246  11.926  13.184  12.271
35158SOL     OW 7247   4.903  13.322   0.915
35158SOL    HW1 7248   4.885  13.379   0.990
35158SOL    HW2 7249   4.990  13.286   0.932
35159SOL     OW 7250  12.646   6.971  10.026
35159SOL    HW1 7251  12.566   6.994  10.074
35159SOL    HW2 7252  12.716   7.005  10.081
35160SOL     OW 7253   3.359   8.523  13.964
35160SOL    HW1 7254   3.415   8.558  13.895
35160SOL    HW2 7255   3.375   8.581  14.039
35161SOL     OW 7256   8.025  10.354   4.202
35161SOL    HW1 7257   7.987  10.437   4.231
35161SOL    HW2 7258   7.958  10.289   4.222
35162SOL     OW 7259   2.679  14.038   1.994
35162SOL    HW1 7260   2.701  14.054   2.086
35162SOL    HW2 7261   2.663  14.126   1.958
35163SOL     OW 7262  13.699   5.269   3.615
35163SOL    HW1 7263  13.610   5.237   3.629
35163SOL    HW2 7264  13.687   5.353   3.571
35164SOL     OW 7265   0.472   0.524   8.289
35164SOL    HW1 7266   0.430   0.550   8.207
35164SOL    HW2 7267   0.496   0.607   8.331
35165SOL     OW 7268   6.373   0.993   0.626
35165SOL    HW1 7269   6.326   0.922   0.583
35165SOL    HW2 7270   6.341   0.992   0.717
35166SOL     OW 7271  14.430   9.514   5.869
35166SOL    HW1 7272  14.356   9.573   5.859
35166SOL    HW2 7273  14.424   9.454   5.794
35167SOL     OW 7274   6.443  10.842   3.914
35167SOL    HW1 7275   6.521  10.856   3.968
35167SOL    HW2 7276   6.472  10.858   3.825
35168SOL     OW 7277   2.352  10.742   4.087
35168SOL    HW1 7278   2.292  10.815   4.074
35168SOL    HW2 7279   2.306  10.666   4.052
35169SOL     OW 7280   0.979  14.112   6.712
35169SOL    HW1 7281   1.022  14.093   6.796
35169SOL    HW2 7282   1.015  14.197   6.686
35170SOL     OW 7283  11.836   9.933   5.569
35170SOL    HW1 7284  11.834   9.894   5.482
35170SOL    HW2 7285  11.745   9.934   5.597
35171SOL     OW 7286   6.205   6.753   4.415
35171SOL    HW1 7287   6.226   6.727   4.325
35171SOL    HW2 7288   6.110   6.749   4.420
35172SOL     OW 7289  14.271   9.747   6.645
35172SOL    HW1 7290  14.216   9.799   6.704
35172SOL    HW2 7291  14.296   9.809   6.575
35173SOL     OW 7292  12.217   8.459   6.539
35173SOL    HW1 7293  12.161   8.389   6.572
35173SOL    HW2 7294  12.157   8.531   6.521
35174SOL     OW 7295  10.966   4.737   1.326
35174SOL    HW1 7296  11.006   4.653   1.350
35174SOL    HW2 7297  10.936   4.724   1.235
35175SOL     OW 7298   3.033   4.748   9.914
35175SOL    HW1 7299   3.060   4.662   9.949
35175SOL    HW2 7300   3.115   4.796   9.903
35176SOL     OW 7301  13.668  14.501  13.188
35176SOL    HW1 7302  13.688  14.431  13.250
35176SOL    HW2 7303  13.573  14.499  13.179
35177SOL     OW 7304   4.021   4.515  12.461
35177SOL    HW1 7305   4.083   4.462  12.511
35177SOL    HW2 7306   4.015   4.598  12.509
35178SOL     OW 7307   7.217  10.671   0.306
35178SOL    HW1 7308   7.157  10.615   0.257
35178SOL    HW2 7309   7.304  10.645   0.277
35179SOL     OW 7310   6.621  13.185  10.042
35179SOL    HW1 7311   6.652  13.129   9.971
35179SOL    HW2 7312   6.697  13.195  10.100
35180SOL     OW 7313   9.056  12.288  11.877
35180SOL    HW1 7314   9.149  12.308  11.867
35180SOL    HW2 7315   9.049  12.196  11.850
35181SOL     OW 7316  12.712   9.238   4.608
35181SOL    HW1 7317  12.627   9.197   4.620
35181SOL    HW2 7318  12.744   9.255   4.697
35182SOL     OW 7319   0.255   9.132  10.611
35182SOL    HW1 7320   0.292   9.050  10.579
35182SOL    HW2 7321   0.197   9.161  10.540
35183SOL     OW 7322   3.326  11.681   6.115
35183SOL    HW1 7323   3.304  11.771   6.140
35183SOL    HW2 7324   3.291  11.671   6.027
35184SOL     OW 7325  14.771  11.418   3.511
35184SOL    HW1 7326  14.771  11.417   3.607
35184SOL    HW2 7327  14.791  11.328   3.486
35185SOL     OW 7328   7.701   4.991   6.072
35185SOL    HW1 7329   7.785   5.025   6.041
35185SOL    HW2 7330   7.636   5.036   6.019
35186SOL     OW 7331  13.795   7.941   7.522
35186SOL    HW1 7332  13.844   8.019   7.550
35186SOL    HW2 7333  13.791   7.887   7.601
35187SOL     OW 7334   7.260   8.986  11.214
35187SOL    HW1 7335   7.314   8.958  11.140
35187SOL    HW2 7336   7.247   9.080  11.200
35188SOL     OW 7337   5.796   9.117   2.548
35188SOL    HW1 7338   5.852   9.050   2.510
35188SOL    HW2 7339   5.854   9.191   2.566
35189SOL     OW 7340  14.111   0.457   8.130
35189SOL    HW1 7341  14.140   0.394   8.065
35189SOL    HW2 7342  14.147   0.541   8.100
35190SOL     OW 7343  13.489   1.113   3.969
35190SOL    HW1 7344  13.410   1.069   3.999
35190SOL    HW2 7345  13.518   1.062   3.894
35191SOL     OW 7346   2.681   4.673   0.131
35191SOL    HW1 7347   2.758   4.617   0.123
35191SOL    HW2 7348   2.636   4.664   0.047
35192SOL     OW 7349   3.804  10.075   0.560
35192SOL    HW1 7350   3.815  10.008   0.492
35192SOL    HW2 7351   3.831  10.032   0.641
35193SOL     OW 7352  11.965   2.051   2.148
35193SOL    HW1 7353  12.000   2.140   2.136
35193SOL    HW2 7354  11.964   2.038   2.243
35194SOL     OW 7355   4.410  12.110   3.332
35194SOL    HW1 7356   4.413  12.033   3.389
35194SOL    HW2 7357   4.338  12.163   3.366
35195SOL     OW 7358  10.691   1.529  10.393
35195SOL    HW1 7359  10.679   1.452  10.450
35195SOL    HW2 7360  10.760   1.580  10.436
35196SOL     OW 7361   9.449  10.929  10.461
35196SOL    HW1 7362   9.524  10.950  10.517
35196SOL    HW2 7363   9.453  10.994  10.391
35197SOL     OW 7364   2.171  10.158  12.803
35197SOL    HW1 7365   2.128  10.080  12.836
35197SOL    HW2 7366   2.138  10.169  12.714
35198SOL     OW 7367   5.678   9.760  11.056
35198SOL    HW1 7368   5.654   9.669  11.071
35198SOL    HW2 7369   5.767   9.767  11.090
35199SOL     OW 7370   7.429   1.226   0.626
35199SOL    HW1 7371   7.524   1.233   0.623
35199SOL    HW2 7372   7.403   1.199   0.538
35200SOL     OW 7373   1.177   1.035   1.725
35200SOL    HW1 7374   1.099   1.021   1.671
35200SOL    HW2 7375   1.180   1.130   1.738
35201SOL     OW 7376  10.395   0.661   8.451
35201SOL    HW1 7377  10.397   0.643   8.357
35201SOL    HW2 7378  10.348   0.744   8.458
35202SOL     OW 7379  12.951   5.665  12.604
35202SOL    HW1 7380  13.038   5.672  12.564
35202SOL    HW2 7381  12.962   5.704  12.692
35203SOL     OW 7382   5.143  10.804  12.238
35203SOL    HW1 7383   5.110  10.768  12.156
35203SOL    HW2 7384   5.235  10.779  12.240
35204SOL     OW 7385  11.978  13.345   1.455
35204SOL    HW1 7386  12.046  13.411   1.440
35204SOL    HW2 7387  11.990  13.282   1.385
35205SOL     OW 7388  13.678   4.567   2.404
35205SOL    HW1 7389  13.765   4.564   2.363
35205SOL    HW2 7390  13.690   4.521   2.487
35206SOL     OW 7391  13.720   9.020   6.320
35206SOL    HW1 7392  13.706   8.928   6.297
35206SOL    HW2 7393  13.814   9.033   6.304
35207SOL     OW 7394   4.384   8.854  14.713
35207SOL    HW1 7395   4.415   8.768  14.741
35207SOL    HW2 7396   4.439   8.916  14.761
35208SOL     OW 7397   7.333  11.930  10.158
35208SOL    HW1 7398   7.371  11.969  10.237
35208SOL    HW2 7399   7.241  11.913  10.181
35209SOL     OW 7400  10.585   6.577   3.130
35209SOL    HW1 7401  10.590   6.507   3.195
35209SOL    HW2 7402  10.534   6.646   3.172
35210SOL     OW 7403   3.578   1.117   0.709
35210SOL    HW1 7404   3.650   1.179   0.696
35210SOL    HW2 7405   3.529   1.119   0.627
35211SOL     OW 7406   1.308   8.245   2.174
35211SOL    HW1 7407   1.403   8.255   2.179
35211SOL    HW2 7408   1.293   8.188   2.098
35212SOL     OW 7409  14.378  12.552   8.077
35212SOL    HW1 7410  14.326  12.630   8.098
35212SOL    HW2 7411  14.336  12.516   7.998
35213SOL     OW 7412   6.838   8.847   2.533
35213SOL    HW1 7413   6.779   8.853   2.458
35213SOL    HW2 7414   6.912   8.903   2.510
35214SOL     OW 7415   7.649  11.200   4.624
35214SOL    HW1 7416   7.591  11.157   4.562
35214SOL    HW2 7417   7.618  11.171   4.710
35215SOL     OW 7418   4.186   3.668   8.660
35215SOL    HW1 7419   4.179   3.589   8.607
35215SOL    HW2 7420   4.222   3.638   8.744
35216SOL     OW 7421   0.192   7.775   0.087
35216SOL    HW1 7422   0.235   7.792   0.170
35216SOL    HW2 7423   0.262   7.776   0.022
35217SOL     OW 7424   7.420   2.923   1.469
35217SOL    HW1 7425   7.457   2.984   1.405
35217SOL    HW2 7426   7.380   2.854   1.416
35218SOL     OW 7427   8.903   8.456   0.719
35218SOL    HW1 7428   8.947   8.535   0.687
35218SOL    HW2 7429   8.860   8.484   0.800
35219SOL     OW 7430   9.590   3.666  12.083
35219SOL    HW1 7431   9.564   3.708  12.165
35219SOL    HW2 7432   9.596   3.738  12.020
35220SOL     OW 7433   0.170   7.727  10.289
35220SOL    HW1 7434   0.082   7.701  10.317
35220SOL    HW2 7435   0.222   7.722  10.369
35221SOL     OW 7436   5.897   3.640   7.238
35221SOL    HW1 7437   5.871   3.580   7.308
35221SOL    HW2 7438   5.863   3.726   7.265
35222SOL     OW 7439  10.857   5.513  10.272
35222SOL    HW1 7440  10.854   5.423  10.240
35222SOL    HW2 7441  10.819   5.509  10.359
35223SOL     OW 7442   0.595  12.516   8.258
35223SOL    HW1 7443   0.501  12.521   8.240
35223SOL    HW2 7444   0.605  12.554   8.345
35224SOL     OW 7445   7.721   0.006   0.841
35224SOL    HW1 7446   7.799   0.060   0.854
35224SOL    HW2 7447   7.694  14.859   0.930
35225SOL     OW 7448  14.360   7.275   6.260
35225SOL    HW1 7449  14.303   7.209   6.221
35225SOL    HW2 7450  14.306   7.317   6.327
35226SOL     OW 7451   6.170   7.382   5.388
35226SOL    HW1 7452   6.089   7.330   5.386
35226SOL    HW2 7453   6.162   7.442   5.314
35227SOL     OW 7454  13.400   5.832   2.573
35227SOL    HW1 7455  13.482   5.824   2.622
35227SOL    HW2 7456  13.421   5.800   2.485
35228SOL     OW 7457   5.916   6.060   7.463
35228SOL    HW1 7458   5.976   6.035   7.533
35228SOL    HW2 7459   5.972   6.095   7.394
35229SOL     OW 7460   2.965  11.016  11.862
35229SOL    HW1 7461   2.977  10.921  11.861
35229SOL    HW2 7462   3.051  11.051  11.841
35230SOL     OW 7463   1.562  11.402  14.713
35230SOL    HW1 7464   1.548  11.348  14.791
35230SOL    HW2 7465   1.652  11.383  14.687
35231SOL     OW 7466   7.501  14.163   5.004
35231SOL    HW1 7467   7.498  14.227   4.934
35231SOL    HW2 7468   7.503  14.078   4.960
35232SOL     OW 7469   8.568   3.805   2.706
35232SOL    HW1 7470   8.588   3.712   2.701
35232SOL    HW2 7471   8.473   3.809   2.713
35233SOL     OW 7472  11.001  11.225  13.415
35233SOL    HW1 7473  11.028  11.285  13.346
35233SOL    HW2 7474  10.916  11.192  13.387
35234SOL     OW 7475   7.117  10.844  10.825
35234SOL    HW1 7476   7.151  10.843  10.914
35234SOL    HW2 7477   7.149  10.762  10.786
35235SOL     OW 7478   5.531  13.033  14.722
35235SOL    HW1 7479   5.441  13.041  14.688
35235SOL    HW2 7480   5.572  12.970  14.662
35236SOL     OW 7481   6.231  10.896   6.642
35236SOL    HW1 7482   6.228  10.992   6.636
35236SOL    HW2 7483   6.183  10.876   6.722
35237SOL     OW 7484   0.409   1.238   3.016
35237SOL    HW1 7485   0.399   1.237   2.921
35237SOL    HW2 7486   0.498   1.272   3.030
35238SOL     OW 7487   3.370   8.753   8.985
35238SOL    HW1 7488   3.405   8.702   9.058
35238SOL    HW2 7489   3.440   8.752   8.920
35239SOL     OW 7490   8.342   6.564   1.442
35239SOL    HW1 7491   8.417   6.570   1.383
35239SOL    HW2 7492   8.265   6.569   1.384
35240SOL     OW 7493  11.841  12.587   2.689
35240SOL    HW1 7494  11.782  12.641   2.741
35240SOL    HW2 7495  11.897  12.649   2.642
35241SOL     OW 7496   0.025   9.672  11.657
35241SOL    HW1 7497   0.115   9.665  11.626
35241SOL    HW2 7498  14.850   9.644  11.582
35242SOL     OW 7499   6.377   1.680   6.313
35242SOL    HW1 7500   6.418   1.626   6.246
35242SOL    HW2 7501   6.386   1.770   6.282
35243SOL     OW 7502  11.474   0.859  12.656
35243SOL    HW1 7503  11.475   0.952  12.636
35243SOL    HW2 7504  11.542   0.821  12.599
35244SOL     OW 7505  11.068  11.080  14.480
35244SOL    HW1 7506  11.124  11.140  14.430
35244SOL    HW2 7507  11.123  11.050  14.552
35245SOL     OW 7508   5.286   4.532  13.490
35245SOL    HW1 7509   5.196   4.546  13.460
35245SOL    HW2 7510   5.339   4.591  13.437
35246SOL     OW 7511  11.001   5.337   9.071
35246SOL    HW1 7512  10.997   5.344   9.167
35246SOL    HW2 7513  11.008   5.243   9.055
35247SOL     OW 7514   3.263   5.265  13.806
35247SOL    HW1 7515   3.342   5.226  13.842
35247SOL    HW2 7516   3.289   5.353  13.779
35248SOL     OW 7517   6.463  12.024   2.312
35248SOL    HW1 7518   6.421  12.090   2.257
35248SOL    HW2 7519   6.533  11.988   2.257
35249SOL     OW 7520   9.116  14.215   0.603
35249SOL    HW1 7521   9.030  14.250   0.579
35249SOL    HW2 7522   9.117  14.216   0.699
35250SOL     OW 7523   2.335   8.541   0.947
35250SOL    HW1 7524   2.272   8.591   0.895
35250SOL    HW2 7525   2.303   8.550   1.037
35251SOL     OW 7526  13.864   2.067   6.728
35251SOL    HW1 7527  13.798   2.137   6.719
35251SOL    HW2 7528  13.923   2.081   6.654
35252SOL     OW 7529   2.846   9.721   2.011
35252SOL    HW1 7530   2.859   9.648   1.951
35252SOL    HW2 7531   2.905   9.703   2.084
35253SOL     OW 7532   0.458   0.133   2.901
35253SOL    HW1 7533   0.507   0.103   2.825
35253SOL    HW2 7534   0.387   0.070   2.910
35254SOL     OW 7535   4.452  11.527   7.439
35254SOL    HW1 7536   4.516  11.585   7.399
35254SOL    HW2 7537   4.442  11.559   7.529
35255SOL     OW 7538   2.981  10.923  12.872
35255SOL    HW1 7539   2.908  10.862  12.869
35255SOL    HW2 7540   3.030  10.906  12.791
35256SOL     OW 7541  10.624   6.103  14.341
35256SOL    HW1 7542  10.609   6.170  14.408
35256SOL    HW2 7543  10.578   6.025  14.374
35257SOL     OW 7544   6.288   3.958   4.935
35257SOL    HW1 7545   6.319   4.024   4.998
35257SOL    HW2 7546   6.296   3.875   4.982
35258SOL     OW 7547   0.156  12.476   5.998
35258SOL    HW1 7548   0.114  12.432   6.073
35258SOL    HW2 7549   0.126  12.427   5.922
35259SOL     OW 7550   5.895   0.615   6.872
35259SOL    HW1 7551   5.813   0.621   6.823
35259SOL    HW2 7552   5.869   0.591   6.960
35260SOL     OW 7553   2.339   0.985  10.585
35260SOL    HW1 7554   2.373   1.057  10.532
35260SOL    HW2 7555   2.247   1.006  10.598
35261SOL     OW 7556   7.666   0.676  11.200
35261SOL    HW1 7557   7.627   0.707  11.282
35261SOL    HW2 7558   7.632   0.736  11.133
35262SOL     OW 7559  14.295   7.732   6.578
35262SOL    HW1 7560  14.371   7.787   6.599
35262SOL    HW2 7561  14.323   7.643   6.598
35263SOL     OW 7562   1.961   8.195   2.048
35263SOL    HW1 7563   1.901   8.268   2.042
35263SOL    HW2 7564   1.954   8.150   1.963
35264SOL     OW 7565   4.310   3.889  10.232
35264SOL    HW1 7566   4.304   3.796  10.208
35264SOL    HW2 7567   4.391   3.896  10.282
35265SOL     OW 7568  12.168  11.667   8.929
35265SOL    HW1 7569  12.117  11.600   8.974
35265SOL    HW2 7570  12.114  11.691   8.853
35266SOL     OW 7571   1.676   0.345   0.624
35266SOL    HW1 7572   1.619   0.418   0.648
35266SOL    HW2 7573   1.708   0.367   0.536
35267SOL     OW 7574  11.019   5.084   2.771
35267SOL    HW1 7575  10.985   5.030   2.700
35267SOL    HW2 7576  11.047   5.021   2.838
35268SOL     OW 7577  11.027   3.553   2.745
35268SOL    HW1 7578  11.030   3.464   2.709
35268SOL    HW2 7579  10.956   3.552   2.809
35269SOL     OW 7580   1.862  13.820  10.304
35269SOL    HW1 7581   1.950  13.799  10.275
35269SOL    HW2 7582   1.810  13.821  10.224
35270SOL     OW 7583   2.159   2.667  11.520
35270SOL    HW1 7584   2.171   2.682  11.614
35270SOL    HW2 7585   2.248   2.661  11.485
35271SOL     OW 7586  11.313   3.224   7.665
35271SOL    HW1 7587  11.391   3.203   7.614
35271SOL    HW2 7588  11.333   3.309   7.705
35272SOL     OW 7589  10.846  10.993  14.165
35272SOL    HW1 7590  10.937  10.967  14.155
35272SOL    HW2 7591  10.819  11.020  14.077
35273SOL     OW 7592   5.630  11.535  12.435
35273SOL    HW1 7593   5.648  11.530  12.341
35273SOL    HW2 7594   5.539  11.506  12.443
35274SOL     OW 7595   7.105  13.619  10.087
35274SOL    HW1 7596   7.142  13.645  10.002
35274SOL    HW2 7597   7.077  13.528  10.074
35275SOL     OW 7598   5.557   3.155  14.672
35275SOL    HW1 7599   5.640   3.154  14.623
35275SOL    HW2 7600   5.489   3.148  14.605
35276SOL     OW 7601  10.544   2.887   4.403
35276SOL    HW1 7602  10.531   2.938   4.484
35276SOL    HW2 7603  10.623   2.836   4.419
35277SOL     OW 7604   2.557   8.708   4.534
35277SOL    HW1 7605   2.637   8.711   4.482
35277SOL    HW2 7606   2.502   8.644   4.489
35278SOL     OW 7607   5.654   1.646   0.620
35278SOL    HW1 7608   5.713   1.575   0.592
35278SOL    HW2 7609   5.653   1.639   0.715
35279SOL     OW 7610   8.320   6.726   9.979
35279SOL    HW1 7611   8.242   6.671   9.970
35279SOL    HW2 7612   8.314   6.763  10.067
35280SOL     OW 7613   6.588   8.238   4.190
35280SOL    HW1 7614   6.672   8.192   4.194
35280SOL    HW2 7615   6.601   8.317   4.243
35281SOL     OW 7616   8.762   7.614   3.837
35281SOL    HW1 7617   8.678   7.661   3.836
35281SOL    HW2 7618   8.797   7.631   3.925
35282SOL     OW 7619   7.747   6.986  11.066
35282SOL    HW1 7620   7.833   7.027  11.066
35282SOL    HW2 7621   7.696   7.037  11.129
35283SOL     OW 7622   1.454   6.503  13.986
35283SOL    HW1 7623   1.361   6.496  13.965
35283SOL    HW2 7624   1.496   6.525  13.902
35284SOL     OW 7625  11.857  10.888   8.768
35284SOL    HW1 7626  11.934  10.887   8.824
35284SOL    HW2 7627  11.827  10.979   8.768
35285SOL     OW 7628   9.317  10.528  13.281
35285SOL    HW1 7629   9.325  10.595  13.349
35285SOL    HW2 7630   9.297  10.447  13.329
35286SOL     OW 7631   5.588   2.228  13.024
35286SOL    HW1 7632   5.555   2.189  12.943
35286SOL    HW2 7633   5.574   2.322  13.014
35287SOL     OW 7634   3.547   4.206   1.495
35287SOL    HW1 7635   3.466   4.251   1.472
35287SOL    HW2 7636   3.520   4.118   1.519
35288SOL     OW 7637   9.693   8.413   1.651
35288SOL    HW1 7638   9.767   8.354   1.663
35288SOL    HW2 7639   9.665   8.435   1.740
35289SOL     OW 7640   8.726  13.358   0.860
35289SOL    HW1 7641   8.707  13.370   0.953
35289SOL    HW2 7642   8.707  13.266   0.844
35290SOL     OW 7643   8.464   0.483   3.907
35290SOL    HW1 7644   8.393   0.468   3.970
35290SOL    HW2 7645   8.446   0.421   3.836
35291SOL     OW 7646  11.916  14.562   6.600
35291SOL    HW1 7647  11.982  14.628   6.621
35291SOL    HW2 7648  11.960  14.504   6.537
35292SOL     OW 7649  14.694  12.069   9.164
35292SOL    HW1 7650  14.680  11.974   9.170
35292SOL    HW2 7651  14.788  12.080   9.177
35293SOL     OW 7652   4.042   8.983   5.582
35293SOL    HW1 7653   4.060   8.967   5.489
35293SOL    HW2 7654   4.111   8.935   5.628
35294SOL     OW 7655   6.903   3.304   6.169
35294SOL    HW1 7656   6.867   3.377   6.119
35294SOL    HW2 7657   6.996   3.322   6.175
35295SOL     OW 7658  12.668  14.358   9.156
35295SOL    HW1 7659  12.616  14.283   9.187
35295SOL    HW2 7660  12.736  14.368   9.222
35296SOL     OW 7661   5.889   6.671   8.308
35296SOL    HW1 7662   5.873   6.728   8.233
35296SOL    HW2 7663   5.921   6.589   8.270
35297SOL     OW 7664   1.771   9.294   8.490
35297SOL    HW1 7665   1.689   9.253   8.464
35297SOL    HW2 7666   1.745   9.378   8.528
35298SOL     OW 7667   4.374  14.246   3.984
35298SOL    HW1 7668   4.341  14.204   4.063
35298SOL    HW2 7669   4.302  14.239   3.921
35299SOL     OW 7670   1.512   9.115   9.844
35299SOL    HW1 7671   1.527   9.051   9.914
35299SOL    HW2 7672   1.494   9.062   9.766
35300SOL     OW 7673   4.467   8.349   0.199
35300SOL    HW1 7674   4.491   8.368   0.108
35300SOL    HW2 7675   4.375   8.322   0.195
35301SOL     OW 7676   7.704   0.277   8.619
35301SOL    HW1 7677   7.704   0.187   8.652
35301SOL    HW2 7678   7.723   0.267   8.525
35302SOL     OW 7679  10.520   0.698  10.429
35302SOL    HW1 7680  10.580   0.650  10.372
35302SOL    HW2 7681  10.433   0.671  10.400
35303SOL     OW 7682  10.744   1.343  14.221
35303SOL    HW1 7683  10.784   1.271  14.270
35303SOL    HW2 7684  10.740   1.311  14.131
35304SOL     OW 7685   9.181   8.918   3.647
35304SOL    HW1 7686   9.214   8.865   3.720
35304SOL    HW2 7687   9.247   8.908   3.578
35305SOL     OW 7688   5.370   3.728   1.853
35305SOL    HW1 7689   5.402   3.732   1.763
35305SOL    HW2 7690   5.449   3.714   1.906
35306SOL     OW 7691   7.981   8.534   4.525
35306SOL    HW1 7692   7.947   8.559   4.439
35306SOL    HW2 7693   8.054   8.475   4.506
35307SOL     OW 7694   9.299   1.055   2.657
35307SOL    HW1 7695   9.208   1.083   2.651
35307SOL    HW2 7696   9.339   1.083   2.575
35308SOL     OW 7697   0.962  11.640   5.548
35308SOL    HW1 7698   0.963  11.728   5.585
35308SOL    HW2 7699   0.885  11.638   5.491
35309SOL     OW 7700  10.666   2.909   6.352
35309SOL    HW1 7701  10.640   2.957   6.430
35309SOL    HW2 7702  10.731   2.965   6.309
35310SOL     OW 7703   5.115   9.297   7.261
35310SOL    HW1 7704   5.111   9.206   7.229
35310SOL    HW2 7705   5.086   9.291   7.352
35311SOL     OW 7706   6.055   5.918  13.873
35311SOL    HW1 7707   6.056   5.924  13.969
35311SOL    HW2 7708   5.962   5.908  13.850
35312SOL     OW 7709   0.338   2.618  14.815
35312SOL    HW1 7710   0.310   2.703  14.781
35312SOL    HW2 7711   0.423   2.634  14.854
35313SOL     OW 7712  13.462  11.391  10.615
35313SOL    HW1 7713  13.472  11.486  10.615
35313SOL    HW2 7714  13.385  11.375  10.669
35314SOL     OW 7715  10.757  10.875   8.854
35314SOL    HW1 7716  10.731  10.787   8.881
35314SOL    HW2 7717  10.849  10.866   8.829
35315SOL     OW 7718  14.338  11.181   3.137
35315SOL    HW1 7719  14.258  11.199   3.185
35315SOL    HW2 7720  14.409  11.205   3.197
35316SOL     OW 7721   5.772  10.748   3.881
35316SOL    HW1 7722   5.865  10.750   3.904
35316SOL    HW2 7723   5.760  10.824   3.824
35317SOL     OW 7724  12.737   1.925   8.450
35317SOL    HW1 7725  12.646   1.944   8.474
35317SOL    HW2 7726  12.734   1.895   8.360
35318SOL     OW 7727   9.626   5.143  13.768
35318SOL    HW1 7728   9.657   5.232  13.783
35318SOL    HW2 7729   9.539   5.153  13.731
35319SOL     OW 7730   8.560   7.845  12.401
35319SOL    HW1 7731   8.636   7.816  12.351
35319SOL    HW2 7732   8.492   7.781  12.382
35320SOL     OW 7733  11.308   5.735   7.414
35320SOL    HW1 7734  11.250   5.784   7.356
35320SOL    HW2 7735  11.261   5.731   7.498
35321SOL     OW 7736  12.699  11.449   4.952
35321SOL    HW1 7737  12.757  11.471   4.879
35321SOL    HW2 7738  12.676  11.358   4.937
35322SOL     OW 7739   1.267  13.579   3.947
35322SOL    HW1 7740   1.180  13.599   3.980
35322SOL    HW2 7741   1.252  13.530   3.866
35323SOL     OW 7742   4.999   7.431   6.992
35323SOL    HW1 7743   5.077   7.478   7.023
35323SOL    HW2 7744   5.005   7.344   7.032
35324SOL     OW 7745  13.085   9.875   1.252
35324SOL    HW1 7746  13.058   9.839   1.336
35324SOL    HW2 7747  13.113   9.964   1.272
35325SOL     OW 7748  13.421  12.331   2.676
35325SOL    HW1 7749  13.490  12.264   2.680
35325SOL    HW2 7750  13.342  12.282   2.653
35326SOL     OW 7751   3.887   3.020   5.797
35326SOL    HW1 7752   3.897   3.100   5.850
35326SOL    HW2 7753   3.822   3.044   5.731
35327SOL     OW 7754   2.921   6.721  11.259
35327SOL    HW1 7755   2.864   6.692  11.188
35327SOL    HW2 7756   2.899   6.666  11.333
35328SOL     OW 7757   9.624  10.626   2.008
35328SOL    HW1 7758   9.624  10.531   2.024
35328SOL    HW2 7759   9.563  10.661   2.074
35329SOL     OW 7760   6.192  13.643   7.386
35329SOL    HW1 7761   6.143  13.633   7.305
35329SOL    HW2 7762   6.161  13.572   7.442
35330SOL     OW 7763   4.192   1.117   9.213
35330SOL    HW1 7764   4.287   1.113   9.228
35330SOL    HW2 7765   4.163   1.194   9.260
35331SOL     OW 7766   9.001   3.547   0.079
35331SOL    HW1 7767   9.091   3.516   0.089
35331SOL    HW2 7768   8.985   3.600   0.158
35332SOL     OW 7769   2.655  13.748   3.241
35332SOL    HW1 7770   2.733  13.727   3.191
35332SOL    HW2 7771   2.671  13.836   3.275
35333SOL     OW 7772   1.057   6.971   5.794
35333SOL    HW1 7773   1.103   7.054   5.780
35333SOL    HW2 7774   0.966   6.990   5.771
35334SOL     OW 7775  13.181   7.138   6.727
35334SOL    HW1 7776  13.112   7.170   6.786
35334SOL    HW2 7777  13.155   7.168   6.641
35335SOL     OW 7778   3.212   8.501   8.719
35335SOL    HW1 7779   3.219   8.542   8.806
35335SOL    HW2 7780   3.124   8.463   8.717
35336SOL     OW 7781   8.542   1.203  11.581
35336SOL    HW1 7782   8.477   1.230  11.645
35336SOL    HW2 7783   8.530   1.108  11.572
35337SOL     OW 7784   7.803  14.501   5.638
35337SOL    HW1 7785   7.796  14.499   5.543
35337SOL    HW2 7786   7.874  14.440   5.659
35338SOL     OW 7787   1.874   1.863  11.739
35338SOL    HW1 7788   1.807   1.827  11.797
35338SOL    HW2 7789   1.880   1.955  11.765
35339SOL     OW 7790   6.790   6.310   8.175
35339SOL    HW1 7791   6.718   6.316   8.237
35339SOL    HW2 7792   6.747   6.294   8.090
35340SOL     OW 7793   0.837   0.920   0.185
35340SOL    HW1 7794   0.858   0.838   0.228
35340SOL    HW2 7795   0.893   0.985   0.228
35341SOL     OW 7796   6.716   6.503   2.271
35341SOL    HW1 7797   6.689   6.477   2.183
35341SOL    HW2 7798   6.693   6.595   2.276
35342SOL     OW 7799  13.477   0.558   8.870
35342SOL    HW1 7800  13.406   0.578   8.931
35342SOL    HW2 7801  13.557   0.574   8.921
35343SOL     OW 7802   8.376   6.899  10.256
35343SOL    HW1 7803   8.408   6.958  10.187
35343SOL    HW2 7804   8.447   6.897  10.321
35344SOL     OW 7805   0.248   2.595  12.831
35344SOL    HW1 7806   0.340   2.607  12.809
35344SOL    HW2 7807   0.208   2.559  12.752
35345SOL     OW 7808   2.636   6.892   9.208
35345SOL    HW1 7809   2.670   6.867   9.122
35345SOL    HW2 7810   2.706   6.945   9.246
35346SOL     OW 7811  14.459   8.847  11.260
35346SOL    HW1 7812  14.464   8.831  11.355
35346SOL    HW2 7813  14.377   8.807  11.233
35347SOL     OW 7814  14.819   6.291  12.677
35347SOL    HW1 7815  14.813   6.343  12.596
35347SOL    HW2 7816  14.761   6.335  12.738
35348SOL     OW 7817   2.333   2.840   9.837
35348SOL    HW1 7818   2.251   2.853   9.885
35348SOL    HW2 7819   2.339   2.916   9.780
35349SOL     OW 7820   1.381   3.744  13.594
35349SOL    HW1 7821   1.434   3.674  13.554
35349SOL    HW2 7822   1.433   3.774  13.668
35350SOL     OW 7823  11.325   1.627  11.402
35350SOL    HW1 7824  11.371   1.655  11.323
35350SOL    HW2 7825  11.240   1.596  11.371
35351SOL     OW 7826  13.869   7.670   9.419
35351SOL    HW1 7827  13.886   7.577   9.431
35351SOL    HW2 7828  13.810   7.694   9.491
35352SOL     OW 7829   2.850   4.525   5.130
35352SOL    HW1 7830   2.849   4.555   5.221
35352SOL    HW2 7831   2.940   4.498   5.115
35353SOL     OW 7832  13.076  12.451   0.881
35353SOL    HW1 7833  13.073  12.540   0.844
35353SOL    HW2 7834  13.039  12.461   0.969
35354SOL     OW 7835  12.270  11.029   2.557
35354SOL    HW1 7836  12.274  10.982   2.640
35354SOL    HW2 7837  12.273  10.960   2.490
35355SOL     OW 7838   9.683  11.833   6.945
35355SOL    HW1 7839   9.595  11.859   6.917
35355SOL    HW2 7840   9.716  11.909   6.993
35356SOL     OW 7841   5.760   7.531  12.598
35356SOL    HW1 7842   5.710   7.450  12.607
35356SOL    HW2 7843   5.732   7.585  12.673
35357SOL     OW 7844   0.822   0.141  14.210
35357SOL    HW1 7845   0.836   0.233  14.187
35357SOL    HW2 7846   0.729   0.125  14.194
35358SOL     OW 7847  10.275   3.201   9.765
35358SOL    HW1 7848  10.206   3.207   9.832
35358SOL    HW2 7849  10.262   3.278   9.710
35359SOL     OW 7850  12.915   0.521   3.014
35359SOL    HW1 7851  12.976   0.509   2.942
35359SOL    HW2 7852  12.971   0.533   3.091
35360SOL     OW 7853   8.333  11.915   0.814
35360SOL    HW1 7854   8.392  11.861   0.867
35360SOL    HW2 7855   8.245  11.887   0.839
35361SOL     OW 7856   4.549  10.545  13.183
35361SOL    HW1 7857   4.542  10.449  13.184
35361SOL    HW2 7858   4.536  10.571  13.275
35362SOL     OW 7859  11.265   4.870   4.921
35362SOL    HW1 7860  11.170   4.875   4.933
35362SOL    HW2 7861  11.292   4.961   4.906
35363SOL     OW 7862   8.330   9.151  13.548
35363SOL    HW1 7863   8.397   9.104  13.499
35363SOL    HW2 7864   8.338   9.117  13.637
35364SOL     OW 7865   0.102   1.554   3.144
35364SOL    HW1 7866   0.085   1.482   3.205
35364SOL    HW2 7867   0.139   1.511   3.067
35365SOL     OW 7868  12.164   1.428   7.892
35365SOL    HW1 7869  12.233   1.363   7.908
35365SOL    HW2 7870  12.108   1.387   7.826
35366SOL     OW 7871   8.207   1.951  12.258
35366SOL    HW1 7872   8.127   1.977  12.304
35366SOL    HW2 7873   8.233   1.869  12.300
35367SOL     OW 7874   2.254  13.398   7.698
35367SOL    HW1 7875   2.198  13.435   7.767
35367SOL    HW2 7876   2.325  13.356   7.746
35368SOL     OW 7877  10.510  11.363   4.377
35368SOL    HW1 7878  10.423  11.365   4.337
35368SOL    HW2 7879  10.546  11.278   4.353
35369SOL     OW 7880   9.532   9.817   6.056
35369SOL    HW1 7881   9.479   9.897   6.052
35369SOL    HW2 7882   9.499   9.763   5.983
35370SOL     OW 7883   4.019   0.249  10.623
35370SOL    HW1 7884   4.014   0.304  10.544
35370SOL    HW2 7885   4.074   0.299  10.683
35371SOL     OW 7886   7.632   3.786   7.084
35371SOL    HW1 7887   7.618   3.765   7.176
35371SOL    HW2 7888   7.722   3.817   7.080
35372SOL     OW 7889   0.706   8.883   7.748
35372SOL    HW1 7890   0.645   8.924   7.687
35372SOL    HW2 7891   0.651   8.838   7.812
35373SOL     OW 7892   6.938   2.636  10.652
35373SOL    HW1 7893   6.893   2.665  10.573
35373SOL    HW2 7894   6.967   2.717  10.695
35374SOL     OW 7895   9.649   9.329  10.289
35374SOL    HW1 7896   9.652   9.252  10.346
35374SOL    HW2 7897   9.740   9.341  10.262
35375SOL     OW 7898   6.231  12.821   4.446
35375SOL    HW1 7899   6.148  12.866   4.459
35375SOL    HW2 7900   6.210  12.728   4.460
35376SOL     OW 7901  11.216   9.911  10.612
35376SOL    HW1 7902  11.282   9.967  10.653
35376SOL    HW2 7903  11.159   9.972  10.565
35377SOL     OW 7904  14.432   7.071   6.567
35377SOL    HW1 7905  14.505   7.127   6.539
35377SOL    HW2 7906  14.354   7.118   6.537
35378SOL     OW 7907   4.703  12.804  12.376
35378SOL    HW1 7908   4.698  12.738  12.306
35378SOL    HW2 7909   4.726  12.885  12.330
35379SOL     OW 7910  13.451  11.642  12.192
35379SOL    HW1 7911  13.473  11.613  12.104
35379SOL    HW2 7912  13.395  11.719  12.179
35380SOL     OW 7913   4.211   9.540   8.384
35380SOL    HW1 7914   4.142   9.518   8.321
35380SOL    HW2 7915   4.246   9.624   8.353
35381SOL     OW 7916   4.209  11.734   7.348
35381SOL    HW1 7917   4.240  11.663   7.404
35381SOL    HW2 7918   4.154  11.691   7.283
35382SOL     OW 7919   4.579  10.884   5.926
35382SOL    HW1 7920   4.557  10.850   6.013
35382SOL    HW2 7921   4.635  10.816   5.888
35383SOL     OW 7922   8.437   7.571  11.080
35383SOL    HW1 7923   8.479   7.509  11.139
35383SOL    HW2 7924   8.503   7.639  11.067
35384SOL     OW 7925   1.310   4.338   6.153
35384SOL    HW1 7926   1.244   4.391   6.107
35384SOL    HW2 7927   1.387   4.344   6.097
35385SOL     OW 7928   2.301   8.460   9.747
35385SOL    HW1 7929   2.370   8.397   9.728
35385SOL    HW2 7930   2.318   8.489   9.836
35386SOL     OW 7931  11.835  13.608   0.709
35386SOL    HW1 7932  11.879  13.692   0.722
35386SOL    HW2 7933  11.765  13.607   0.775
35387SOL     OW 7934  14.587   7.846   5.415
35387SOL    HW1 7935  14.501   7.888   5.422
35387SOL    HW2 7936  14.623   7.878   5.332
35388SOL     OW 7937  14.271  12.521  10.342
35388SOL    HW1 7938  14.204  12.547  10.279
35388SOL    HW2 7939  14.263  12.584  10.414
35389SOL     OW 7940   9.044   0.993  12.535
35389SOL    HW1 7941   9.108   0.924  12.553
35389SOL    HW2 7942   9.049   1.050  12.612
35390SOL     OW 7943  12.461   9.097   8.751
35390SOL    HW1 7944  12.395   9.142   8.699
35390SOL    HW2 7945  12.521   9.059   8.687
35391SOL     OW 7946   8.151  11.547   3.007
35391SOL    HW1 7947   8.166  11.634   2.971
35391SOL    HW2 7948   8.056  11.533   2.999
35392SOL     OW 7949   4.915   9.537  10.170
35392SOL    HW1 7950   4.901   9.628  10.144
35392SOL    HW2 7951   4.918   9.541  10.266
35393SOL     OW 7952   4.350   7.404   9.103
35393SOL    HW1 7953   4.355   7.336   9.036
35393SOL    HW2 7954   4.389   7.481   9.063
35394SOL     OW 7955  10.175   5.675   5.195
35394SOL    HW1 7956  10.170   5.770   5.205
35394SOL    HW2 7957  10.268   5.654   5.210
35395SOL     OW 7958  14.724  13.098   6.379
35395SOL    HW1 7959  14.705  13.055   6.296
35395SOL    HW2 7960  14.773  13.034   6.430
35396SOL     OW 7961   2.700   8.427  13.886
35396SOL    HW1 7962   2.638   8.486  13.843
35396SOL    HW2 7963   2.748   8.483  13.946
35397SOL     OW 7964  14.867   0.402   0.433
35397SOL    HW1 7965  14.870   0.354   0.515
35397SOL    HW2 7966   0.081   0.412   0.407
35398SOL     OW 7967   3.158   2.590   9.886
35398SOL    HW1 7968   3.236   2.565   9.835
35398SOL    HW2 7969   3.175   2.555   9.974
35399SOL     OW 7970   4.389   7.886   7.858
35399SOL    HW1 7971   4.469   7.866   7.907
35399SOL    HW2 7972   4.414   7.875   7.766
35400SOL     OW 7973   3.731   5.331  12.477
35400SOL    HW1 7974   3.666   5.400  12.493
35400SOL    HW2 7975   3.760   5.304  12.564
35401SOL     OW 7976  12.814  11.115   6.305
35401SOL    HW1 7977  12.754  11.048   6.271
35401SOL    HW2 7978  12.851  11.155   6.226
35402SOL     OW 7979   1.502   2.953   0.465
35402SOL    HW1 7980   1.451   2.901   0.404
35402SOL    HW2 7981   1.547   3.018   0.410
35403SOL     OW 7982   8.025   1.596   9.101
35403SOL    HW1 7983   8.015   1.617   9.008
35403SOL    HW2 7984   8.119   1.591   9.115
35404SOL     OW 7985   3.859   3.755   5.678
35404SOL    HW1 7986   3.928   3.755   5.745
35404SOL    HW2 7987   3.814   3.839   5.690
35405SOL     OW 7988   7.276   5.645   7.957
35405SOL    HW1 7989   7.183   5.627   7.974
35405SOL    HW2 7990   7.322   5.575   8.003
35406SOL     OW 7991   1.571  12.028   3.193
35406SOL    HW1 7992   1.643  11.974   3.160
35406SOL    HW2 7993   1.492  11.980   3.167
35407SOL     OW 7994   4.085  11.220   1.890
35407SOL    HW1 7995   4.008  11.199   1.943
35407SOL    HW2 7996   4.149  11.253   1.953
35408SOL     OW 7997   1.467  13.459   7.119
35408SOL    HW1 7998   1.548  13.498   7.087
35408SOL    HW2 7999   1.491  13.369   7.141
35409SOL     OW 8000   0.433  11.542  13.612
35409SOL    HW1 8001   0.433  11.504  13.524
35409SOL    HW2 8002   0.341  11.557  13.632
35410SOL     OW 8003  10.043   1.463   0.478
35410SOL    HW1 8004  10.032   1.441   0.571
35410SOL    HW2 8005  10.042   1.558   0.476
35411SOL     OW 8006   9.764  12.118   6.956
35411SOL    HW1 8007   9.794  12.127   6.866
35411SOL    HW2 8008   9.702  12.190   6.968
35412SOL     OW 8009   9.373   6.629   6.124
35412SOL    HW1 8010   9.344   6.548   6.083
35412SOL    HW2 8011   9.368   6.613   6.218
35413SOL     OW 8012   5.526  10.075  12.673
35413SOL    HW1 8013   5.502  10.041  12.759
35413SOL    HW2 8014   5.480  10.019  12.611
35414SOL     OW 8015   5.181  10.054   6.920
35414SOL    HW1 8016   5.251   9.994   6.946
35414SOL    HW2 8017   5.187  10.058   6.825
35415SOL     OW 8018   9.549   5.457   2.613
35415SOL    HW1 8019   9.636   5.490   2.591
35415SOL    HW2 8020   9.489   5.515   2.567
35416SOL     OW 8021   6.961   8.690   2.264
35416SOL    HW1 8022   6.887   8.673   2.206
35416SOL    HW2 8023   6.923   8.694   2.351
35417SOL     OW 8024   2.234   9.486   2.994
35417SOL    HW1 8025   2.233   9.566   2.940
35417SOL    HW2 8026   2.278   9.421   2.939
35418SOL     OW 8027   3.224   8.925   6.086
35418SOL    HW1 8028   3.301   8.970   6.120
35418SOL    HW2 8029   3.204   8.859   6.152
35419SOL     OW 8030   5.861  12.069  13.633
35419SOL    HW1 8031   5.929  12.111  13.580
35419SOL    HW2 8032   5.799  12.035  13.568
35420SOL     OW 8033   4.830   7.660   5.107
35420SOL    HW1 8034   4.864   7.717   5.038
35420SOL    HW2 8035   4.756   7.615   5.067
35421SOL     OW 8036   7.596  13.205   2.798
35421SOL    HW1 8037   7.664  13.155   2.842
35421SOL    HW2 8038   7.561  13.264   2.864
35422SOL     OW 8039  10.985   0.540   5.003
35422SOL    HW1 8040  10.903   0.555   4.956
35422SOL    HW2 8041  10.990   0.613   5.064
35423SOL     OW 8042   2.279  10.685   2.111
35423SOL    HW1 8043   2.233  10.741   2.049
35423SOL    HW2 8044   2.274  10.598   2.073
35424SOL     OW 8045   2.385  10.752   4.841
35424SOL    HW1 8046   2.416  10.837   4.873
35424SOL    HW2 8047   2.430  10.688   4.895
35425SOL     OW 8048  14.370   9.855   2.308
35425SOL    HW1 8049  14.301   9.859   2.373
35425SOL    HW2 8050  14.336   9.904   2.233
35426SOL     OW 8051  11.013   4.424  12.972
35426SOL    HW1 8052  10.958   4.502  12.984
35426SOL    HW2 8053  11.085   4.454  12.917
35427SOL     OW 8054   6.876   9.365  14.241
35427SOL    HW1 8055   6.945   9.402  14.295
35427SOL    HW2 8056   6.917   9.351  14.155
35428SOL     OW 8057   0.688   8.598   7.582
35428SOL    HW1 8058   0.704   8.542   7.658
35428SOL    HW2 8059   0.771   8.599   7.534
35429SOL     OW 8060   8.467   8.794   1.924
35429SOL    HW1 8061   8.440   8.881   1.895
35429SOL    HW2 8062   8.456   8.796   2.019
35430SOL     OW 8063   0.930  10.016   8.867
35430SOL    HW1 8064   1.020  10.017   8.900
35430SOL    HW2 8065   0.924  10.093   8.811
35431SOL     OW 8066  11.815   7.283   9.807
35431SOL    HW1 8067  11.780   7.292   9.895
35431SOL    HW2 8068  11.894   7.337   9.807
35432SOL     OW 8069   2.974   2.949  13.986
35432SOL    HW1 8070   2.929   2.880  13.936
35432SOL    HW2 8071   3.066   2.939  13.963
35433SOL     OW 8072   6.747  13.066   9.810
35433SOL    HW1 8073   6.657  13.054   9.780
35433SOL    HW2 8074   6.787  13.121   9.743
35434SOL     OW 8075  13.523   2.912   9.965
35434SOL    HW1 8076  13.446   2.865   9.998
35434SOL    HW2 8077  13.489   2.966   9.894
35435SOL     OW 8078   6.674  13.822   1.770
35435SOL    HW1 8079   6.622  13.774   1.705
35435SOL    HW2 8080   6.763  13.821   1.734
35436SOL     OW 8081   2.312   0.187   4.470
35436SOL    HW1 8082   2.355   0.140   4.542
35436SOL    HW2 8083   2.349   0.275   4.473
35437SOL     OW 8084   3.459   1.577   9.337
35437SOL    HW1 8085   3.407   1.499   9.357
35437SOL    HW2 8086   3.543   1.543   9.309
35438SOL     OW 8087  13.112   9.211   8.471
35438SOL    HW1 8088  13.136   9.188   8.382
35438SOL    HW2 8089  13.089   9.304   8.466
35439SOL     OW 8090   8.393   1.864   7.752
35439SOL    HW1 8091   8.413   1.872   7.659
35439SOL    HW2 8092   8.334   1.789   7.758
35440SOL     OW 8093  12.023  12.086   1.881
35440SOL    HW1 8094  11.944  12.112   1.929
35440SOL    HW2 8095  12.095  12.111   1.939
35441SOL     OW 8096   7.408   1.139   3.590
35441SOL    HW1 8097   7.409   1.224   3.546
35441SOL    HW2 8098   7.341   1.148   3.657
35442SOL     OW 8099   1.149   9.068   2.548
35442SOL    HW1 8100   1.242   9.092   2.556
35442SOL    HW2 8101   1.150   8.984   2.502
35443SOL     OW 8102  12.156   0.552  13.387
35443SOL    HW1 8103  12.075   0.528  13.430
35443SOL    HW2 8104  12.135   0.632  13.339
35444SOL     OW 8105   2.371  12.081   6.382
35444SOL    HW1 8106   2.434  12.013   6.356
35444SOL    HW2 8107   2.386  12.152   6.321
35445SOL     OW 8108  12.839   7.256   5.273
35445SOL    HW1 8109  12.788   7.334   5.249
35445SOL    HW2 8110  12.886   7.281   5.353
35446SOL     OW 8111  12.015  10.603   3.197
35446SOL    HW1 8112  11.936  10.568   3.239
35446SOL    HW2 8113  12.027  10.549   3.119
35447SOL     OW 8114   3.640   3.002  12.342
35447SOL    HW1 8115   3.703   2.930  12.340
35447SOL    HW2 8116   3.688   3.074  12.385
35448SOL     OW 8117   7.137   6.352   0.926
35448SOL    HW1 8118   7.163   6.334   0.836
35448SOL    HW2 8119   7.137   6.448   0.932
35449SOL     OW 8120   1.465   0.232   7.091
35449SOL    HW1 8121   1.504   0.302   7.039
35449SOL    HW2 8122   1.464   0.266   7.180
35450SOL     OW 8123   0.068  11.152   7.767
35450SOL    HW1 8124   0.127  11.091   7.811
35450SOL    HW2 8125   0.003  11.175   7.834
35451SOL     OW 8126   1.807   0.587  14.232
35451SOL    HW1 8127   1.822   0.630  14.316
35451SOL    HW2 8128   1.777   0.499  14.256
35452SOL     OW 8129   5.820  14.640   4.102
35452SOL    HW1 8130   5.851  14.727   4.074
35452SOL    HW2 8131   5.787  14.600   4.022
35453SOL     OW 8132   5.364   8.213   7.601
35453SOL    HW1 8133   5.285   8.266   7.608
35453SOL    HW2 8134   5.332   8.122   7.602
35454SOL     OW 8135   4.387   5.746   4.971
35454SOL    HW1 8136   4.298   5.737   4.936
35454SOL    HW2 8137   4.410   5.837   4.955
35455SOL     OW 8138  11.227   9.208   5.093
35455SOL    HW1 8139  11.210   9.127   5.140
35455SOL    HW2 8140  11.280   9.181   5.018
35456SOL     OW 8141  11.551   9.355  12.022
35456SOL    HW1 8142  11.606   9.395  11.955
35456SOL    HW2 8143  11.570   9.262  12.016
35457SOL     OW 8144   3.025   4.290  10.968
35457SOL    HW1 8145   3.099   4.229  10.965
35457SOL    HW2 8146   3.023   4.330  10.881
35458SOL     OW 8147   3.172   1.881  14.213
35458SOL    HW1 8148   3.125   1.798  14.203
35458SOL    HW2 8149   3.103   1.948  14.214
35459SOL     OW 8150   3.568  14.047  13.532
35459SOL    HW1 8151   3.625  13.970  13.532
35459SOL    HW2 8152   3.480  14.012  13.519
35460SOL     OW 8153   5.193  13.724   1.367
35460SOL    HW1 8154   5.151  13.801   1.405
35460SOL    HW2 8155   5.272  13.712   1.420
35461SOL     OW 8156   9.478   5.753  14.313
35461SOL    HW1 8157   9.405   5.716  14.361
35461SOL    HW2 8158   9.518   5.816  14.373
35462SOL     OW 8159   1.243   5.902   1.702
35462SOL    HW1 8160   1.267   5.873   1.789
35462SOL    HW2 8161   1.269   5.994   1.700
35463SOL     OW 8162  11.965   5.240   2.052
35463SOL    HW1 8163  11.963   5.325   2.096
35463SOL    HW2 8164  12.050   5.238   2.008
35464SOL     OW 8165   3.623  13.201   0.134
35464SOL    HW1 8166   3.603  13.152   0.213
35464SOL    HW2 8167   3.680  13.272   0.163
35465SOL     OW 8168   6.642   5.307   7.424
35465SOL    HW1 8169   6.563   5.323   7.475
35465SOL    HW2 8170   6.658   5.389   7.378
35466SOL     OW 8171   2.362   5.938   8.354
35466SOL    HW1 8172   2.278   5.907   8.387
35466SOL    HW2 8173   2.340   5.984   8.273
35467SOL     OW 8174   2.281  11.424   3.592
35467SOL    HW1 8175   2.188  11.427   3.571
35467SOL    HW2 8176   2.284  11.385   3.679
35468SOL     OW 8177  14.311  11.637   5.549
35468SOL    HW1 8178  14.383  11.625   5.610
35468SOL    HW2 8179  14.299  11.732   5.544
35469SOL     OW 8180  10.335   5.159   5.759
35469SOL    HW1 8181  10.258   5.166   5.815
35469SOL    HW2 8182  10.307   5.104   5.686
35470SOL     OW 8183  11.713  14.269   4.855
35470SOL    HW1 8184  11.802  14.290   4.883
35470SOL    HW2 8185  11.723  14.230   4.768
35471SOL     OW 8186   9.374   5.616   4.618
35471SOL    HW1 8187   9.330   5.538   4.584
35471SOL    HW2 8188   9.305   5.663   4.666
35472SOL     OW 8189  12.723   3.894   9.016
35472SOL    HW1 8190  12.719   3.954   8.941
35472SOL    HW2 8191  12.791   3.831   8.992
35473SOL     OW 8192   7.519  10.021  12.930
35473SOL    HW1 8193   7.468  10.036  12.850
35473SOL    HW2 8194   7.460  10.048  13.001
35474SOL     OW 8195   4.312   9.791   3.929
35474SOL    HW1 8196   4.341   9.823   3.843
35474SOL    HW2 8197   4.367   9.839   3.992
35475SOL     OW 8198   7.926  13.212  10.281
35475SOL    HW1 8199   7.944  13.128  10.324
35475SOL    HW2 8200   7.966  13.277  10.339
35476SOL     OW 8201   5.624   6.412   0.067
35476SOL    HW1 8202   5.571   6.366   0.132
35476SOL    HW2 8203   5.607   6.366  14.863
35477SOL     OW 8204   4.813   8.344  14.472
35477SOL    HW1 8205   4.789   8.252  14.458
35477SOL    HW2 8206   4.886   8.360  14.412
35478SOL     OW 8207   3.875   1.044  10.359
35478SOL    HW1 8208   3.969   1.065  10.354
35478SOL    HW2 8209   3.870   0.953  10.327
35479SOL     OW 8210   3.563   2.162   8.295
35479SOL    HW1 8211   3.530   2.088   8.347
35479SOL    HW2 8212   3.657   2.164   8.314
35480SOL     OW 8213   5.189   9.254   6.478
35480SOL    HW1 8214   5.232   9.288   6.557
35480SOL    HW2 8215   5.153   9.332   6.435
35481SOL     OW 8216   6.723   8.815   8.493
35481SOL    HW1 8217   6.741   8.870   8.416
35481SOL    HW2 8218   6.810   8.796   8.528
35482SOL     OW 8219   4.482   4.606   1.383
35482SOL    HW1 8220   4.459   4.696   1.404
35482SOL    HW2 8221   4.530   4.612   1.300
35483SOL     OW 8222   3.952   3.638   1.243
35483SOL    HW1 8223   3.942   3.545   1.224
35483SOL    HW2 8224   4.017   3.641   1.313
35484SOL     OW 8225   5.524   3.285   4.622
35484SOL    HW1 8226   5.529   3.197   4.660
35484SOL    HW2 8227   5.541   3.344   4.695
35485SOL     OW 8228  14.813   0.097   4.861
35485SOL    HW1 8229   0.011   0.153   4.843
35485SOL    HW2 8230  14.755   0.111   4.786
35486SOL     OW 8231   3.062  14.374   3.866
35486SOL    HW1 8232   3.005  14.418   3.929
35486SOL    HW2 8233   3.006  14.310   3.822
35487SOL     OW 8234   2.832   0.741  13.834
35487SOL    HW1 8235   2.920   0.724  13.870
35487SOL    HW2 8236   2.827   0.686  13.756
35488SOL     OW 8237   8.105   3.484  10.383
35488SOL    HW1 8238   8.183   3.524  10.423
35488SOL    HW2 8239   8.060   3.558  10.342
35489SOL     OW 8240   2.252   1.141   3.642
35489SOL    HW1 8241   2.212   1.123   3.727
35489SOL    HW2 8242   2.236   1.063   3.590
35490SOL     OW 8243  11.166   9.390   1.625
35490SOL    HW1 8244  11.167   9.410   1.719
35490SOL    HW2 8245  11.190   9.473   1.583
35491SOL     OW 8246   8.684   4.203  11.426
35491SOL    HW1 8247   8.744   4.138  11.461
35491SOL    HW2 8248   8.614   4.209  11.491
35492SOL     OW 8249  12.276  11.345  10.596
35492SOL    HW1 8250  12.187  11.320  10.618
35492SOL    HW2 8251  12.323  11.262  10.588
35493SOL     OW 8252   0.797   0.237   3.908
35493SOL    HW1 8253   0.842   0.322   3.905
35493SOL    HW2 8254   0.720   0.249   3.853
35494SOL     OW 8255   0.184   2.076   3.819
35494SOL    HW1 8256   0.155   2.054   3.731
35494SOL    HW2 8257   0.156   2.167   3.831
35495SOL     OW 8258   4.718   7.340  11.280
35495SOL    HW1 8259   4.730   7.305  11.192
35495SOL    HW2 8260   4.757   7.427  11.277
35496SOL     OW 8261   7.807   1.578   2.212
35496SOL    HW1 8262   7.719   1.547   2.231
35496SOL    HW2 8263   7.802   1.612   2.123
35497SOL     OW 8264   4.914   0.163  12.673
35497SOL    HW1 8265   4.963   0.083  12.692
35497SOL    HW2 8266   4.859   0.176  12.750
35498SOL     OW 8267  10.325   5.074   3.950
35498SOL    HW1 8268  10.344   5.092   3.857
35498SOL    HW2 8269  10.236   5.039   3.950
35499SOL     OW 8270   9.465  11.105  12.760
35499SOL    HW1 8271   9.518  11.178  12.793
35499SOL    HW2 8272   9.489  11.031  12.816
35500SOL     OW 8273  11.519   6.568  11.161
35500SOL    HW1 8274  11.605   6.596  11.192
35500SOL    HW2 8275  11.458   6.598  11.228
35501SOL     OW 8276   2.862  11.767   9.033
35501SOL    HW1 8277   2.882  11.747   9.125
35501SOL    HW2 8278   2.947  11.770   8.990
35502SOL     OW 8279   0.609   1.154  10.633
35502SOL    HW1 8280   0.689   1.156  10.686
35502SOL    HW2 8281   0.611   1.070  10.587
35503SOL     OW 8282   2.899   3.519   9.560
35503SOL    HW1 8283   2.889   3.454   9.629
35503SOL    HW2 8284   2.979   3.566   9.582
35504SOL     OW 8285   8.380   0.040   2.307
35504SOL    HW1 8286   8.349   0.126   2.278
35504SOL    HW2 8287   8.354   0.036   2.400
35505SOL     OW 8288   5.983  11.897   4.385
35505SOL    HW1 8289   5.983  11.802   4.392
35505SOL    HW2 8290   6.024  11.927   4.466
35506SOL     OW 8291  13.511   1.742   4.981
35506SOL    HW1 8292  13.581   1.682   4.953
35506SOL    HW2 8293  13.433   1.686   4.987
35507SOL     OW 8294   1.677  14.673  12.454
35507SOL    HW1 8295   1.726  14.647  12.375
35507SOL    HW2 8296   1.623  14.596  12.474
35508SOL     OW 8297   0.014  10.673  11.706
35508SOL    HW1 8298   0.082  10.697  11.770
35508SOL    HW2 8299   0.056  10.609  11.649
35509SOL     OW 8300  14.536  11.958   3.544
35509SOL    HW1 8301  14.519  11.874   3.587
35509SOL    HW2 8302  14.551  12.020   3.616
35510SOL     OW 8303   5.651   6.951   5.301
35510SOL    HW1 8304   5.706   7.018   5.261
35510SOL    HW2 8305   5.686   6.868   5.268
35511SOL     OW 8306   0.933   3.886   5.230
35511SOL    HW1 8307   0.924   3.981   5.227
35511SOL    HW2 8308   0.950   3.860   5.139
35512SOL     OW 8309   4.676   5.839  14.718
35512SOL    HW1 8310   4.752   5.849  14.661
35512SOL    HW2 8311   4.711   5.852  14.807
35513SOL     OW 8312  11.382   5.034   6.963
35513SOL    HW1 8313  11.395   5.129   6.959
35513SOL    HW2 8314  11.456   5.003   7.015
35514SOL     OW 8315   0.244   4.170  13.917
35514SOL    HW1 8316   0.288   4.200  13.997
35514SOL    HW2 8317   0.315   4.143  13.859
35515SOL     OW 8318   8.106   9.800  11.932
35515SOL    HW1 8319   8.111   9.892  11.904
35515SOL    HW2 8320   8.100   9.751  11.850
35516SOL     OW 8321   5.474  14.155   6.365
35516SOL    HW1 8322   5.462  14.236   6.315
35516SOL    HW2 8323   5.472  14.085   6.300
35517SOL     OW 8324   6.422   5.898  12.410
35517SOL    HW1 8325   6.503   5.942  12.384
35517SOL    HW2 8326   6.435   5.807  12.386
35518SOL     OW 8327   6.611   6.696   5.013
35518SOL    HW1 8328   6.572   6.769   4.964
35518SOL    HW2 8329   6.701   6.724   5.030
35519SOL     OW 8330  13.828  11.561   4.501
35519SOL    HW1 8331  13.759  11.539   4.564
35519SOL    HW2 8332  13.781  11.588   4.422
35520SOL     OW 8333   0.631  11.110  10.840
35520SOL    HW1 8334   0.701  11.160  10.799
35520SOL    HW2 8335   0.551  11.144  10.800
35521SOL     OW 8336   3.360   5.453  11.402
35521SOL    HW1 8337   3.424   5.381  11.402
35521SOL    HW2 8338   3.293   5.425  11.340
35522SOL     OW 8339   3.517  12.007   5.774
35522SOL    HW1 8340   3.470  12.026   5.693
35522SOL    HW2 8341   3.601  11.973   5.745
35523SOL     OW 8342   9.848   4.337   2.208
35523SOL    HW1 8343   9.771   4.306   2.255
35523SOL    HW2 8344   9.892   4.257   2.178
35524SOL     OW 8345   3.531  10.756   1.087
35524SOL    HW1 8346   3.476  10.816   1.138
35524SOL    HW2 8347   3.477  10.679   1.072
35525SOL     OW 8348   7.530   8.075   2.635
35525SOL    HW1 8349   7.560   8.166   2.638
35525SOL    HW2 8350   7.600   8.026   2.678
35526SOL     OW 8351   5.816   2.540   1.469
35526SOL    HW1 8352   5.735   2.489   1.462
35526SOL    HW2 8353   5.787   2.631   1.465
35527SOL     OW 8354   0.922   3.302   3.709
35527SOL    HW1 8355   0.865   3.379   3.706
35527SOL    HW2 8356   0.992   3.321   3.647
35528SOL     OW 8357   9.654   5.275   4.563
35528SOL    HW1 8358   9.665   5.274   4.658
35528SOL    HW2 8359   9.672   5.185   4.536
35529SOL     OW 8360  14.271   3.068   7.388
35529SOL    HW1 8361  14.273   3.076   7.483
35529SOL    HW2 8362  14.178   3.060   7.367
35530SOL     OW 8363   0.956   2.528   3.419
35530SOL    HW1 8364   0.930   2.614   3.385
35530SOL    HW2 8365   1.024   2.498   3.359
35531SOL     OW 8366  10.414  14.371  12.368
35531SOL    HW1 8367  10.417  14.284  12.409
35531SOL    HW2 8368  10.499  14.380  12.325
35532SOL     OW 8369   2.405   8.299   2.772
35532SOL    HW1 8370   2.473   8.259   2.719
35532SOL    HW2 8371   2.452   8.339   2.846
35533SOL     OW 8372  14.709  11.937   8.307
35533SOL    HW1 8373  14.802  11.923   8.292
35533SOL    HW2 8374  14.674  11.961   8.221
35534SOL     OW 8375   6.403  14.007   1.019
35534SOL    HW1 8376   6.484  14.055   1.036
35534SOL    HW2 8377   6.399  13.943   1.090
35535SOL     OW 8378  12.132   2.907  14.018
35535SOL    HW1 8379  12.042   2.926  14.044
35535SOL    HW2 8380  12.163   2.843  14.082
35536SOL     OW 8381  13.088   4.730   7.847
35536SOL    HW1 8382  13.018   4.669   7.824
35536SOL    HW2 8383  13.169   4.681   7.830
35537SOL     OW 8384   6.984  14.277  14.345
35537SOL    HW1 8385   6.937  14.281  14.262
35537SOL    HW2 8386   7.068  14.319  14.327
35538SOL     OW 8387  10.483  14.040  11.530
35538SOL    HW1 8388  10.508  13.990  11.453
35538SOL    HW2 8389  10.538  14.004  11.600
35539SOL     OW 8390   5.397  13.489   4.250
35539SOL    HW1 8391   5.419  13.447   4.167
35539SOL    HW2 8392   5.349  13.423   4.299
35540SOL     OW 8393   0.871  10.393   0.892
35540SOL    HW1 8394   0.857  10.487   0.880
35540SOL    HW2 8395   0.842  10.377   0.982
35541SOL     OW 8396  10.826   0.792   4.995
35541SOL    HW1 8397  10.788   0.794   4.908
35541SOL    HW2 8398  10.864   0.879   5.006
35542SOL     OW 8399   5.314   0.477   1.276
35542SOL    HW1 8400   5.351   0.561   1.301
35542SOL    HW2 8401   5.256   0.496   1.203
35543SOL     OW 8402  10.719   3.074  10.316
35543SOL    HW1 8403  10.725   3.138  10.387
35543SOL    HW2 8404  10.705   3.127  10.238
35544SOL     OW 8405   0.415   4.817  11.325
35544SOL    HW1 8406   0.443   4.836  11.414
35544SOL    HW2 8407   0.427   4.899  11.278
35545SOL     OW 8408   4.955   5.261  13.417
35545SOL    HW1 8409   4.971   5.215  13.499
35545SOL    HW2 8410   5.028   5.322  13.408
35546SOL     OW 8411  12.563   2.141   7.285
35546SOL    HW1 8412  12.564   2.095   7.202
35546SOL    HW2 8413  12.503   2.214   7.271
35547SOL     OW 8414   4.998   1.054   8.204
35547SOL    HW1 8415   5.047   0.972   8.203
35547SOL    HW2 8416   5.017   1.092   8.290
35548SOL     OW 8417   0.988   1.981   0.493
35548SOL    HW1 8418   1.021   2.031   0.418
35548SOL    HW2 8419   1.066   1.958   0.543
35549SOL     OW 8420   3.868  14.123   7.022
35549SOL    HW1 8421   3.807  14.098   7.091
35549SOL    HW2 8422   3.815  14.171   6.958
35550SOL     OW 8423   9.030   0.971  12.093
35550SOL    HW1 8424   8.979   0.961  12.012
35550SOL    HW2 8425   9.119   0.990  12.062
35551SOL     OW 8426   8.515   6.305   5.972
35551SOL    HW1 8427   8.600   6.337   6.001
35551SOL    HW2 8428   8.532   6.214   5.947
35552SOL     OW 8429  13.619  11.531   5.528
35552SOL    HW1 8430  13.693  11.532   5.589
35552SOL    HW2 8431  13.658  11.504   5.444
35553SOL     OW 8432  12.226   5.209   1.952
35553SOL    HW1 8433  12.273   5.265   2.014
35553SOL    HW2 8434  12.296   5.169   1.899
35554SOL     OW 8435   2.457   6.492  12.334
35554SOL    HW1 8436   2.551   6.478  12.325
35554SOL    HW2 8437   2.439   6.570  12.282
35555SOL     OW 8438   3.154  10.464  11.870
35555SOL    HW1 8439   3.207  10.384  11.868
35555SOL    HW2 8440   3.200  10.522  11.931
35556SOL     OW 8441  13.152  11.424  13.216
35556SOL    HW1 8442  13.089  11.365  13.258
35556SOL    HW2 8443  13.105  11.457  13.139
35557SOL     OW 8444   9.658   7.357   0.657
35557SOL    HW1 8445   9.571   7.339   0.623
35557SOL    HW2 8446   9.644   7.373   0.751
35558SOL     OW 8447  11.433   7.797   1.727
35558SOL    HW1 8448  11.429   7.762   1.816
35558SOL    HW2 8449  11.445   7.721   1.671
35559SOL     OW 8450   3.335   1.401   8.156
35559SOL    HW1 8451   3.275   1.458   8.108
35559SOL    HW2 8452   3.299   1.313   8.145
35560SOL     OW 8453  13.678  11.110  11.688
35560SOL    HW1 8454  13.752  11.057  11.718
35560SOL    HW2 8455  13.604  11.050  11.687
35561SOL     OW 8456   9.869  10.436  11.926
35561SOL    HW1 8457   9.952  10.413  11.967
35561SOL    HW2 8458   9.803  10.416  11.992
35562SOL     OW 8459   3.706   8.660   2.743
35562SOL    HW1 8460   3.780   8.670   2.683
35562SOL    HW2 8461   3.741   8.612   2.818
35563SOL     OW 8462   4.282  12.022  13.379
35563SOL    HW1 8463   4.267  11.952  13.316
35563SOL    HW2 8464   4.310  11.977  13.459
35564SOL     OW 8465  12.415  12.143   6.670
35564SOL    HW1 8466  12.382  12.144   6.759
35564SOL    HW2 8467  12.451  12.231   6.657
35565SOL     OW 8468   1.301  11.847  12.352
35565SOL    HW1 8469   1.220  11.886  12.319
35565SOL    HW2 8470   1.338  11.913  12.410
35566SOL     OW 8471   0.112   4.635   9.442
35566SOL    HW1 8472   0.170   4.708   9.420
35566SOL    HW2 8473   0.074   4.608   9.359
35567SOL     OW 8474  14.092   9.098   0.895
35567SOL    HW1 8475  14.058   9.180   0.860
35567SOL    HW2 8476  14.024   9.034   0.876
35568SOL     OW 8477   4.080  11.303  14.741
35568SOL    HW1 8478   4.160  11.332  14.785
35568SOL    HW2 8479   4.105  11.220  14.700
35569SOL     OW 8480  14.481   6.178   5.836
35569SOL    HW1 8481  14.392   6.156   5.808
35569SOL    HW2 8482  14.470   6.223   5.920
35570SOL     OW 8483  14.597  12.087   2.504
35570SOL    HW1 8484  14.642  12.122   2.581
35570SOL    HW2 8485  14.638  12.131   2.430
35571SOL     OW 8486   2.391   6.101  13.913
35571SOL    HW1 8487   2.458   6.039  13.941
35571SOL    HW2 8488   2.358   6.064  13.831
35572SOL     OW 8489  13.195   4.133  12.531
35572SOL    HW1 8490  13.202   4.057  12.473
35572SOL    HW2 8491  13.124   4.110  12.591
35573SOL     OW 8492   7.344  11.268   4.602
35573SOL    HW1 8493   7.273  11.329   4.622
35573SOL    HW2 8494   7.419  11.323   4.581
35574SOL     OW 8495   3.785   7.001   6.437
35574SOL    HW1 8496   3.803   6.924   6.492
35574SOL    HW2 8497   3.842   7.070   6.472
35575SOL     OW 8498  14.495  13.450  13.242
35575SOL    HW1 8499  14.558  13.379  13.244
35575SOL    HW2 8500  14.411  13.407  13.230
35576SOL     OW 8501   3.529   3.860   5.923
35576SOL    HW1 8502   3.619   3.870   5.891
35576SOL    HW2 8503   3.481   3.824   5.848
35577SOL     OW 8504   5.899   0.136   0.345
35577SOL    HW1 8505   5.846   0.060   0.367
35577SOL    HW2 8506   5.940   0.114   0.262
35578SOL     OW 8507   3.745   3.299  10.904
35578SOL    HW1 8508   3.667   3.264  10.861
35578SOL    HW2 8509   3.816   3.242  10.874
35579SOL     OW 8510   2.665  13.840   5.144
35579SOL    HW1 8511   2.694  13.924   5.106
35579SOL    HW2 8512   2.610  13.865   5.218
35580SOL     OW 8513  12.966   8.662   8.590
35580SOL    HW1 8514  12.918   8.648   8.508
35580SOL    HW2 8515  12.897   8.672   8.656
35581SOL     OW 8516  11.728  10.453   6.073
35581SOL    HW1 8517  11.811  10.489   6.041
35581SOL    HW2 8518  11.730  10.361   6.048
35582SOL     OW 8519  11.138  13.169  13.598
35582SOL    HW1 8520  11.087  13.135  13.525
35582SOL    HW2 8521  11.218  13.204  13.558
35583SOL     OW 8522  13.809   4.620   3.300
35583SOL    HW1 8523  13.873   4.691   3.312
35583SOL    HW2 8524  13.836   4.553   3.363
35584SOL     OW 8525  10.015   0.987   8.467
35584SOL    HW1 8526   9.967   1.044   8.527
35584SOL    HW2 8527   9.948   0.930   8.429
35585SOL     OW 8528   6.017   3.951   4.420
35585SOL    HW1 8529   5.921   3.951   4.423
35585SOL    HW2 8530   6.043   3.880   4.479
35586SOL     OW 8531   5.920  14.602   6.790
35586SOL    HW1 8532   6.006  14.614   6.751
35586SOL    HW2 8533   5.901  14.509   6.780
35587SOL     OW 8534   9.138   3.327   0.576
35587SOL    HW1 8535   9.087   3.337   0.496
35587SOL    HW2 8536   9.107   3.396   0.634
35588SOL     OW 8537  14.877   4.764   9.651
35588SOL    HW1 8538   0.051   4.734   9.726
35588SOL    HW2 8539   0.041   4.724   9.575
35589SOL     OW 8540   2.951  13.090  11.338
35589SOL    HW1 8541   3.023  13.152  11.347
35589SOL    HW2 8542   2.919  13.078  11.428
35590SOL     OW 8543  12.394  13.370   7.467
35590SOL    HW1 8544  12.447  13.395   7.543
35590SOL    HW2 8545  12.355  13.286   7.492
35591SOL     OW 8546  11.764   9.700   4.691
35591SOL    HW1 8547  11.757   9.624   4.749
35591SOL    HW2 8548  11.845   9.743   4.718
35592SOL     OW 8549   0.636  12.325   6.285
35592SOL    HW1 8550   0.620  12.234   6.308
35592SOL    HW2 8551   0.549  12.362   6.272
35593SOL     OW 8552  10.829   4.282  14.542
35593SOL    HW1 8553  10.860   4.331  14.466
35593SOL    HW2 8554  10.745   4.245  14.514
35594SOL     OW 8555   8.969   8.624  14.203
35594SOL    HW1 8556   8.901   8.692  14.204
35594SOL    HW2 8557   8.998   8.617  14.294
35595SOL     OW 8558   9.822  12.368  13.069
35595SOL    HW1 8559   9.761  12.317  13.016
35595SOL    HW2 8560   9.766  12.425  13.122
35596SOL     OW 8561  11.992   6.194   6.171
35596SOL    HW1 8562  11.997   6.260   6.102
35596SOL    HW2 8563  12.082   6.188   6.205
35597SOL     OW 8564  10.281   8.701   0.416
35597SOL    HW1 8565  10.301   8.610   0.440
35597SOL    HW2 8566  10.353   8.726   0.358
35598SOL     OW 8567   8.873  13.174   8.856
35598SOL    HW1 8568   8.827  13.092   8.871
35598SOL    HW2 8569   8.874  13.184   8.760
35599SOL     OW 8570   4.802   4.677  12.754
35599SOL    HW1 8571   4.811   4.746  12.688
35599SOL    HW2 8572   4.721   4.699  12.801
35600SOL     OW 8573  11.262   4.511   8.278
35600SOL    HW1 8574  11.337   4.455   8.296
35600SOL    HW2 8575  11.240   4.494   8.187
35601SOL     OW 8576   3.863   5.701  14.275
35601SOL    HW1 8577   3.799   5.696  14.346
35601SOL    HW2 8578   3.812   5.686  14.195
35602SOL     OW 8579   7.099  11.406   4.626
35602SOL    HW1 8580   7.005  11.388   4.622
35602SOL    HW2 8581   7.117  11.418   4.719
35603SOL     OW 8582   2.276   8.222  12.864
35603SOL    HW1 8583   2.230   8.138  12.863
35603SOL    HW2 8584   2.271   8.252  12.773
35604SOL     OW 8585   9.114  13.837   0.870
35604SOL    HW1 8586   9.042  13.868   0.924
35604SOL    HW2 8587   9.095  13.744   0.856
35605SOL     OW 8588   6.249   0.636   5.001
35605SOL    HW1 8589   6.230   0.595   4.917
35605SOL    HW2 8590   6.317   0.580   5.039
35606SOL     OW 8591   3.243  10.753   3.538
35606SOL    HW1 8592   3.231  10.781   3.628
35606SOL    HW2 8593   3.327  10.708   3.537
35607SOL     OW 8594   1.908  10.797   1.042
35607SOL    HW1 8595   1.853  10.794   0.964
35607SOL    HW2 8596   1.926  10.706   1.062
35608SOL     OW 8597   1.433  11.463  12.872
35608SOL    HW1 8598   1.432  11.512  12.954
35608SOL    HW2 8599   1.524  11.461  12.845
35609SOL     OW 8600   9.736  12.339  14.561
35609SOL    HW1 8601   9.720  12.293  14.478
35609SOL    HW2 8602   9.818  12.302  14.593
35610SOL     OW 8603  10.652  13.485   8.773
35610SOL    HW1 8604  10.664  13.526   8.687
35610SOL    HW2 8605  10.666  13.556   8.835
35611SOL     OW 8606   6.388   9.859  10.587
35611SOL    HW1 8607   6.346   9.890  10.668
35611SOL    HW2 8608   6.476   9.834  10.615
35612SOL     OW 8609  14.380   3.920   8.374
35612SOL    HW1 8610  14.363   3.945   8.465
35612SOL    HW2 8611  14.294   3.897   8.339
35613SOL     OW 8612  11.515   4.174   0.501
35613SOL    HW1 8613  11.580   4.204   0.565
35613SOL    HW2 8614  11.567   4.150   0.424
35614SOL     OW 8615   7.749   9.054   1.178
35614SOL    HW1 8616   7.759   9.006   1.260
35614SOL    HW2 8617   7.801   9.133   1.190
35615SOL     OW 8618  13.865   4.214   5.534
35615SOL    HW1 8619  13.861   4.121   5.559
35615SOL    HW2 8620  13.825   4.260   5.608
35616SOL     OW 8621   7.101   9.487   3.674
35616SOL    HW1 8622   7.050   9.450   3.746
35616SOL    HW2 8623   7.132   9.411   3.625
35617SOL     OW 8624   7.511   8.580  12.930
35617SOL    HW1 8625   7.545   8.513  12.870
35617SOL    HW2 8626   7.422   8.597  12.899
35618SOL     OW 8627   1.329   8.640  11.359
35618SOL    HW1 8628   1.360   8.710  11.418
35618SOL    HW2 8629   1.333   8.678  11.272
35619SOL     OW 8630  14.325   6.308  12.903
35619SOL    HW1 8631  14.358   6.247  12.970
35619SOL    HW2 8632  14.366   6.279  12.822
35620SOL     OW 8633  10.911   5.011   8.050
35620SOL    HW1 8634  10.969   5.020   8.126
35620SOL    HW2 8635  10.858   4.934   8.068
35621SOL     OW 8636   2.412   4.816   5.386
35621SOL    HW1 8637   2.336   4.787   5.335
35621SOL    HW2 8638   2.484   4.819   5.322
35622SOL     OW 8639  13.352  14.334   2.011
35622SOL    HW1 8640  13.387  14.392   1.943
35622SOL    HW2 8641  13.287  14.281   1.965
35623SOL     OW 8642   9.375   8.730   0.760
35623SOL    HW1 8643   9.394   8.780   0.680
35623SOL    HW2 8644   9.407   8.786   0.831
35624SOL     OW 8645   7.880   5.770   2.420
35624SOL    HW1 8646   7.884   5.782   2.515
35624SOL    HW2 8647   7.787   5.777   2.398
35625SOL     OW 8648   6.811  12.280   8.338
35625SOL    HW1 8649   6.828  12.325   8.421
35625SOL    HW2 8650   6.744  12.333   8.296
35626SOL     OW 8651   7.803   6.391   9.044
35626SOL    HW1 8652   7.828   6.436   8.964
35626SOL    HW2 8653   7.800   6.298   9.020
35627SOL     OW 8654  14.239  11.113   1.094
35627SOL    HW1 8655  14.237  11.132   1.000
35627SOL    HW2 8656  14.228  11.018   1.099
35628SOL     OW 8657  10.600   8.852   5.718
35628SOL    HW1 8658  10.568   8.799   5.646
35628SOL    HW2 8659  10.663   8.912   5.678
35629SOL     OW 8660   5.551  11.054  13.466
35629SOL    HW1 8661   5.569  11.130  13.410
35629SOL    HW2 8662   5.459  11.065  13.491
35630SOL     OW 8663  13.862  10.371  13.057
35630SOL    HW1 8664  13.781  10.415  13.083
35630SOL    HW2 8665  13.907  10.354  13.139
35631SOL     OW 8666   1.818   6.421  14.870
35631SOL    HW1 8667   1.753   6.419  14.800
35631SOL    HW2 8668   1.777   6.472   0.061
35632SOL     OW 8669  12.407   2.261   3.150
35632SOL    HW1 8670  12.329   2.310   3.174
35632SOL    HW2 8671  12.389   2.228   3.062
35633SOL     OW 8672  10.321   6.198   7.940
35633SOL    HW1 8673  10.403   6.243   7.960
35633SOL    HW2 8674  10.275   6.258   7.882
35634SOL     OW 8675   0.368   1.926   1.791
35634SOL    HW1 8676   0.304   1.866   1.751
35634SOL    HW2 8677   0.356   2.008   1.744
35635SOL     OW 8678   7.434  12.436   3.435
35635SOL    HW1 8679   7.508  12.380   3.412
35635SOL    HW2 8680   7.474  12.521   3.455
35636SOL     OW 8681   4.730   9.152   1.508
35636SOL    HW1 8682   4.668   9.086   1.477
35636SOL    HW2 8683   4.702   9.233   1.466
35637SOL     OW 8684   1.849   3.355  10.718
35637SOL    HW1 8685   1.829   3.413  10.791
35637SOL    HW2 8686   1.868   3.413  10.644
35638SOL     OW 8687   0.309   5.122  10.184
35638SOL    HW1 8688   0.320   5.188  10.114
35638SOL    HW2 8689   0.388   5.069  10.179
35639SOL     OW 8690   8.941  10.027   8.340
35639SOL    HW1 8691   8.948   9.937   8.309
35639SOL    HW2 8692   8.992  10.029   8.421
35640SOL     OW 8693   7.027   2.895   8.279
35640SOL    HW1 8694   6.941   2.917   8.244
35640SOL    HW2 8695   7.012   2.818   8.333
35641SOL     OW 8696  11.768   5.876  13.696
35641SOL    HW1 8697  11.758   5.969  13.674
35641SOL    HW2 8698  11.858   5.855  13.673
35642SOL     OW 8699   0.130   0.028   0.820
35642SOL    HW1 8700   0.107   0.085   0.894
35642SOL    HW2 8701   0.085  14.824   0.837
35643SOL     OW 8702  12.289   5.525   3.141
35643SOL    HW1 8703  12.249   5.599   3.188
35643SOL    HW2 8704  12.329   5.472   3.209
35644SOL     OW 8705   4.933  12.843   0.478
35644SOL    HW1 8706   4.898  12.932   0.467
35644SOL    HW2 8707   4.872  12.800   0.537
35645SOL     OW 8708   9.500   2.847  14.764
35645SOL    HW1 8709   9.469   2.810  14.847
35645SOL    HW2 8710   9.425   2.840  14.705
35646SOL     OW 8711  10.960   2.554   9.083
35646SOL    HW1 8712  10.896   2.506   9.135
35646SOL    HW2 8713  10.980   2.495   9.010
35647SOL     OW 8714  12.911  10.944  10.467
35647SOL    HW1 8715  12.961  10.894  10.531
35647SOL    HW2 8716  12.883  10.879  10.402
35648SOL     OW 8717  14.720   2.308  11.567
35648SOL    HW1 8718  14.792   2.321  11.629
35648SOL    HW2 8719  14.744   2.229  11.519
35649SOL     OW 8720   5.705   4.455   4.431
35649SOL    HW1 8721   5.797   4.471   4.408
35649SOL    HW2 8722   5.655   4.499   4.362
35650SOL     OW 8723  12.961  14.734   8.445
35650SOL    HW1 8724  13.009  14.723   8.527
35650SOL    HW2 8725  12.872  14.707   8.466
35651SOL     OW 8726   5.053  12.339  11.373
35651SOL    HW1 8727   4.960  12.323  11.389
35651SOL    HW2 8728   5.055  12.383  11.288
35652SOL     OW 8729   6.718   6.589   8.069
35652SOL    HW1 8730   6.812   6.576   8.080
35652SOL    HW2 8731   6.705   6.594   7.975
35653SOL     OW 8732  10.257   9.862   0.850
35653SOL    HW1 8733  10.279   9.892   0.938
35653SOL    HW2 8734  10.166   9.834   0.856
35654SOL     OW 8735  13.863  12.542   8.933
35654SOL    HW1 8736  13.908  12.600   8.872
35654SOL    HW2 8737  13.790  12.595   8.967
35655SOL     OW 8738   4.383   9.141  14.497
35655SOL    HW1 8739   4.444   9.149  14.570
35655SOL    HW2 8740   4.297   9.159  14.536
35656SOL     OW 8741   0.884   0.376  12.760
35656SOL    HW1 8742   0.816   0.418  12.812
35656SOL    HW2 8743   0.966   0.406  12.800
35657SOL     OW 8744  10.501  10.765   7.591
35657SOL    HW1 8745  10.408  10.751   7.607
35657SOL    HW2 8746  10.524  10.840   7.647
35658SOL     OW 8747   1.539   1.839   4.687
35658SOL    HW1 8748   1.578   1.766   4.735
35658SOL    HW2 8749   1.588   1.843   4.605
35659SOL     OW 8750   0.402   0.284   8.084
35659SOL    HW1 8751   0.407   0.242   7.998
35659SOL    HW2 8752   0.401   0.378   8.064
35660SOL     OW 8753  12.278   0.939   4.291
35660SOL    HW1 8754  12.345   0.932   4.223
35660SOL    HW2 8755  12.308   1.011   4.346
35661SOL     OW 8756   2.775  13.354   7.286
35661SOL    HW1 8757   2.722  13.432   7.269
35661SOL    HW2 8758   2.727  13.283   7.243
35662SOL     OW 8759  14.624   2.088  10.255
35662SOL    HW1 8760  14.553   2.024  10.250
35662SOL    HW2 8761  14.601   2.144  10.329
35663SOL     OW 8762  10.219   8.965  14.578
35663SOL    HW1 8763  10.217   9.058  14.557
35663SOL    HW2 8764  10.220   8.921  14.492
35664SOL     OW 8765   6.769   6.385   7.561
35664SOL    HW1 8766   6.726   6.306   7.527
35664SOL    HW2 8767   6.795   6.433   7.482
35665SOL     OW 8768  11.907  11.144   1.719
35665SOL    HW1 8769  11.900  11.233   1.685
35665SOL    HW2 8770  11.862  11.146   1.803
35666SOL     OW 8771   5.378  10.370  14.871
35666SOL    HW1 8772   5.387  10.428  14.796
35666SOL    HW2 8773   5.464  10.372   0.035
35667SOL     OW 8774   4.867  10.524   3.867
35667SOL    HW1 8775   4.847  10.508   3.774
35667SOL    HW2 8776   4.805  10.468   3.914
35668SOL     OW 8777   0.321  13.291   0.979
35668SOL    HW1 8778   0.238  13.336   0.996
35668SOL    HW2 8779   0.367  13.291   1.063
35669SOL     OW 8780  14.133   1.806   2.469
35669SOL    HW1 8781  14.118   1.732   2.410
35669SOL    HW2 8782  14.050   1.817   2.516
35670SOL     OW 8783   6.794  10.043   8.636
35670SOL    HW1 8784   6.880  10.044   8.593
35670SOL    HW2 8785   6.762   9.953   8.624
35671SOL     OW 8786  14.041   8.802   3.406
35671SOL    HW1 8787  14.061   8.769   3.494
35671SOL    HW2 8788  13.947   8.790   3.397
35672SOL     OW 8789   5.934   0.628   4.571
35672SOL    HW1 8790   5.898   0.701   4.622
35672SOL    HW2 8791   5.873   0.556   4.587
35673SOL     OW 8792   8.506   9.944  10.642
35673SOL    HW1 8793   8.576  10.004  10.615
35673SOL    HW2 8794   8.436   9.959  10.580
35674SOL     OW 8795   7.032  10.002   5.831
35674SOL    HW1 8796   7.043   9.929   5.770
35674SOL    HW2 8797   7.069  10.078   5.786
35675SOL     OW 8798   3.692   2.687  14.342
35675SOL    HW1 8799   3.654   2.764  14.300
35675SOL    HW2 8800   3.624   2.655  14.401
35676SOL     OW 8801   0.012  10.606  13.295
35676SOL    HW1 8802   0.043  10.690  13.329
35676SOL    HW2 8803  14.817  10.629  13.237
35677SOL     OW 8804  11.421   9.141   2.441
35677SOL    HW1 8805  11.444   9.063   2.389
35677SOL    HW2 8806  11.340   9.117   2.485
35678SOL     OW 8807  14.619   6.106   2.808
35678SOL    HW1 8808  14.687   6.050   2.845
35678SOL    HW2 8809  14.578   6.147   2.884
35679SOL     OW 8810   0.250   3.467   5.001
35679SOL    HW1 8811   0.249   3.540   4.939
35679SOL    HW2 8812   0.233   3.390   4.947
35680SOL     OW 8813   5.888   1.706   1.714
35680SOL    HW1 8814   5.849   1.624   1.683
35680SOL    HW2 8815   5.940   1.680   1.790
35681SOL     OW 8816   2.911   1.739   0.544
35681SOL    HW1 8817   2.842   1.794   0.581
35681SOL    HW2 8818   2.954   1.795   0.480
35682SOL     OW 8819   6.900   9.709   3.044
35682SOL    HW1 8820   6.955   9.782   3.074
35682SOL    HW2 8821   6.925   9.636   3.099
35683SOL     OW 8822   0.246   8.365   6.266
35683SOL    HW1 8823   0.241   8.358   6.171
35683SOL    HW2 8824   0.220   8.455   6.285
35684SOL     OW 8825   7.522  13.349   0.424
35684SOL    HW1 8826   7.528  13.440   0.394
35684SOL    HW2 8827   7.430  13.338   0.450
35685SOL     OW 8828  14.670  12.703   5.307
35685SOL    HW1 8829  14.622  12.764   5.362
35685SOL    HW2 8830  14.634  12.617   5.329
35686SOL     OW 8831   8.888   5.376   9.389
35686SOL    HW1 8832   8.798   5.351   9.368
35686SOL    HW2 8833   8.940   5.300   9.365
35687SOL     OW 8834  12.802  10.511   1.454
35687SOL    HW1 8835  12.824  10.423   1.423
35687SOL    HW2 8836  12.771  10.556   1.376
35688SOL     OW 8837  10.517   3.047  11.675
35688SOL    HW1 8838  10.555   3.081  11.756
35688SOL    HW2 8839  10.523   2.952  11.684
35689SOL     OW 8840   4.179  13.693  14.780
35689SOL    HW1 8841   4.128  13.612  14.784
35689SOL    HW2 8842   4.165  13.734  14.865
35690SOL     OW 8843  12.944   4.805   2.762
35690SOL    HW1 8844  12.864   4.755   2.744
35690SOL    HW2 8845  12.913   4.889   2.796
35691SOL     OW 8846  13.361   2.350  11.574
35691SOL    HW1 8847  13.287   2.359  11.633
35691SOL    HW2 8848  13.327   2.377  11.489
35692SOL     OW 8849   7.063   0.109  11.112
35692SOL    HW1 8850   7.026   0.193  11.140
35692SOL    HW2 8851   7.125   0.086  11.182
35693SOL     OW 8852   2.589   2.210   8.596
35693SOL    HW1 8853   2.518   2.170   8.646
35693SOL    HW2 8854   2.548   2.232   8.512
35694SOL     OW 8855   7.306   9.255   6.464
35694SOL    HW1 8856   7.229   9.311   6.477
35694SOL    HW2 8857   7.308   9.199   6.541
35695SOL     OW 8858   8.183   8.288   8.249
35695SOL    HW1 8859   8.214   8.215   8.302
35695SOL    HW2 8860   8.258   8.346   8.242
35696SOL     OW 8861  10.519  12.990  11.098
35696SOL    HW1 8862  10.604  12.971  11.138
35696SOL    HW2 8863  10.497  12.911  11.049
35697SOL     OW 8864   8.112   8.113  14.259
35697SOL    HW1 8865   8.034   8.158  14.292
35697SOL    HW2 8866   8.081   8.066  14.182
35698SOL     OW 8867   4.966  14.279  12.260
35698SOL    HW1 8868   4.907  14.352  12.275
35698SOL    HW2 8869   4.948  14.252  12.170
35699SOL     OW 8870   4.972   5.891  11.088
35699SOL    HW1 8871   5.025   5.969  11.074
35699SOL    HW2 8872   5.036   5.821  11.104
35700SOL     OW 8873   6.231   1.404   2.658
35700SOL    HW1 8874   6.224   1.311   2.635
35700SOL    HW2 8875   6.140   1.433   2.666
35701SOL     OW 8876  13.941  10.597  12.668
35701SOL    HW1 8877  13.984  10.516  12.695
35701SOL    HW2 8878  13.885  10.571  12.594
35702SOL     OW 8879  14.801   3.833   8.854
35702SOL    HW1 8880  14.791   3.922   8.817
35702SOL    HW2 8881  14.720   3.789   8.829
35703SOL     OW 8882   1.546   3.784   5.770
35703SOL    HW1 8883   1.561   3.818   5.682
35703SOL    HW2 8884   1.596   3.702   5.773
35704SOL     OW 8885   7.975  10.198   0.357
35704SOL    HW1 8886   8.056  10.206   0.408
35704SOL    HW2 8887   8.004  10.166   0.271
35705SOL     OW 8888   1.415  14.630   5.673
35705SOL    HW1 8889   1.398  14.539   5.651
35705SOL    HW2 8890   1.435  14.672   5.590
35706SOL     OW 8891   7.464   6.430   4.151
35706SOL    HW1 8892   7.510   6.432   4.067
35706SOL    HW2 8893   7.512   6.492   4.206
35707SOL     OW 8894  12.044   6.886   5.276
35707SOL    HW1 8895  12.026   6.930   5.193
35707SOL    HW2 8896  12.029   6.953   5.343
35708SOL     OW 8897  11.701   6.870  13.638
35708SOL    HW1 8898  11.715   6.783  13.602
35708SOL    HW2 8899  11.677   6.924  13.563
35709SOL     OW 8900  10.716   7.566   6.824
35709SOL    HW1 8901  10.668   7.593   6.746
35709SOL    HW2 8902  10.734   7.473   6.810
35710SOL     OW 8903  10.249   8.615   0.960
35710SOL    HW1 8904  10.334   8.635   0.998
35710SOL    HW2 8905  10.239   8.521   0.970
35711SOL     OW 8906   9.451   1.960  10.448
35711SOL    HW1 8907   9.457   2.036  10.506
35711SOL    HW2 8908   9.513   1.897  10.485
35712SOL     OW 8909   8.145  13.194  13.403
35712SOL    HW1 8910   8.207  13.267  13.397
35712SOL    HW2 8911   8.165  13.153  13.488
35713SOL     OW 8912   9.430  14.349  14.159
35713SOL    HW1 8913   9.371  14.302  14.219
35713SOL    HW2 8914   9.443  14.434  14.200
35714SOL     OW 8915  12.002  13.243   5.607
35714SOL    HW1 8916  11.989  13.159   5.649
35714SOL    HW2 8917  12.096  13.250   5.594
35715SOL     OW 8918  13.146   9.029  13.262
35715SOL    HW1 8919  13.140   9.028  13.167
35715SOL    HW2 8920  13.144   9.122  13.285
35716SOL     OW 8921   2.561  11.613   0.795
35716SOL    HW1 8922   2.589  11.637   0.883
35716SOL    HW2 8923   2.466  11.622   0.797
35717SOL     OW 8924   6.366   6.554  10.083
35717SOL    HW1 8925   6.421   6.632  10.091
35717SOL    HW2 8926   6.422   6.482  10.109
35718SOL     OW 8927   2.209   1.069   5.746
35718SOL    HW1 8928   2.219   1.144   5.686
35718SOL    HW2 8929   2.177   1.108   5.827
35719SOL     OW 8930   1.381   7.214  14.595
35719SOL    HW1 8931   1.398   7.238  14.503
35719SOL    HW2 8932   1.449   7.259  14.644
35720SOL     OW 8933   9.676   6.586   5.451
35720SOL    HW1 8934   9.667   6.623   5.363
35720SOL    HW2 8935   9.592   6.602   5.493
35721SOL     OW 8936   4.834   2.013   4.498
35721SOL    HW1 8937   4.754   2.055   4.530
35721SOL    HW2 8938   4.874   2.078   4.441
35722SOL     OW 8939   0.602  11.933  13.217
35722SOL    HW1 8940   0.677  11.930  13.157
35722SOL    HW2 8941   0.536  11.985  13.171
35723SOL     OW 8942   2.534   3.670   5.445
35723SOL    HW1 8943   2.608   3.625   5.404
35723SOL    HW2 8944   2.554   3.763   5.436
35724SOL     OW 8945  14.497   8.657   5.663
35724SOL    HW1 8946  14.540   8.572   5.650
35724SOL    HW2 8947  14.404   8.640   5.645
35725SOL     OW 8948   1.226   8.007   9.683
35725SOL    HW1 8949   1.160   8.075   9.684
35725SOL    HW2 8950   1.302   8.047   9.725
35726SOL     OW 8951   8.557   2.577  10.231
35726SOL    HW1 8952   8.518   2.633  10.164
35726SOL    HW2 8953   8.552   2.489  10.194
35727SOL     OW 8954   5.652   9.382   1.389
35727SOL    HW1 8955   5.645   9.385   1.484
35727SOL    HW2 8956   5.567   9.412   1.357
35728SOL     OW 8957   2.317  11.319   7.941
35728SOL    HW1 8958   2.318  11.273   7.857
35728SOL    HW2 8959   2.409  11.331   7.963
35729SOL     OW 8960  11.948   6.634   7.706
35729SOL    HW1 8961  11.925   6.608   7.617
35729SOL    HW2 8962  12.028   6.686   7.696
35730SOL     OW 8963   3.996   4.607  11.064
35730SOL    HW1 8964   3.934   4.668  11.025
35730SOL    HW2 8965   4.003   4.535  11.001
35731SOL     OW 8966   1.092   8.443  10.135
35731SOL    HW1 8967   1.094   8.366  10.078
35731SOL    HW2 8968   1.043   8.414  10.213
35732SOL     OW 8969   7.312   5.426   5.060
35732SOL    HW1 8970   7.304   5.431   4.965
35732SOL    HW2 8971   7.336   5.514   5.088
35733SOL     OW 8972  11.876  14.806   9.482
35733SOL    HW1 8973  11.818  14.824   9.556
35733SOL    HW2 8974  11.817  14.774   9.413
35734SOL     OW 8975   9.972  12.685  12.923
35734SOL    HW1 8976  10.004  12.594  12.916
35734SOL    HW2 8977   9.929  12.688  13.009
35735SOL     OW 8978   4.184   9.045  13.991
35735SOL    HW1 8979   4.153   9.134  14.007
35735SOL    HW2 8980   4.257   9.056  13.930
35736SOL     OW 8981   5.881   5.048   5.811
35736SOL    HW1 8982   5.875   4.960   5.847
35736SOL    HW2 8983   5.949   5.042   5.743
35737SOL     OW 8984  13.658   1.960  14.442
35737SOL    HW1 8985  13.637   2.046  14.480
35737SOL    HW2 8986  13.753   1.952  14.451
35738SOL     OW 8987   8.070   9.075   0.551
35738SOL    HW1 8988   8.068   8.996   0.496
35738SOL    HW2 8989   7.988   9.072   0.600
35739SOL     OW 8990   7.810  10.731  12.062
35739SOL    HW1 8991   7.769  10.799  12.115
35739SOL    HW2 8992   7.767  10.736  11.977
35740SOL     OW 8993  12.919  12.074   9.030
35740SOL    HW1 8994  12.904  12.081   8.935
35740SOL    HW2 8995  13.002  12.119   9.044
35741SOL     OW 8996   7.714   4.529   6.257
35741SOL    HW1 8997   7.683   4.439   6.245
35741SOL    HW2 8998   7.661   4.580   6.196
35742SOL     OW 8999   0.023   6.755   2.081
35742SOL    HW1 9000   0.071   6.835   2.059
35742SOL    HW2 9001  14.811   6.785   2.098
35743SOL     OW 9002  11.222  11.242   4.551
35743SOL    HW1 9003  11.222  11.228   4.457
35743SOL    HW2 9004  11.286  11.179   4.585
35744SOL     OW 9005   1.481   7.899   9.436
35744SOL    HW1 9006   1.460   7.991   9.452
35744SOL    HW2 9007   1.574   7.892   9.459
35745SOL     OW 9008  10.434   7.971   0.747
35745SOL    HW1 9009  10.414   7.917   0.823
35745SOL    HW2 9010  10.480   7.913   0.687
35746SOL     OW 9011   0.079   8.958  13.304
35746SOL    HW1 9012   0.004   9.013  13.328
35746SOL    HW2 9013   0.057   8.926  13.217
35747SOL     OW 9014   9.467  13.034  13.119
35747SOL    HW1 9015   9.515  13.039  13.037
35747SOL    HW2 9016   9.414  13.113  13.121
35748SOL     OW 9017  13.957   5.344   0.838
35748SOL    HW1 9018  13.861   5.339   0.844
35748SOL    HW2 9019  13.979   5.292   0.761
35749SOL     OW 9020   6.326  10.263   7.346
35749SOL    HW1 9021   6.247  10.209   7.344
35749SOL    HW2 9022   6.296  10.347   7.382
35750SOL     OW 9023   4.880   1.171   7.454
35750SOL    HW1 9024   4.949   1.156   7.519
35750SOL    HW2 9025   4.814   1.105   7.473
35751SOL     OW 9026   7.938   7.981   1.779
35751SOL    HW1 9027   7.861   8.022   1.816
35751SOL    HW2 9028   7.922   7.887   1.789
35752SOL     OW 9029  11.270   5.963   2.813
35752SOL    HW1 9030  11.186   5.931   2.846
35752SOL    HW2 9031  11.279   6.050   2.850
35753SOL     OW 9032  12.055  11.153   8.208
35753SOL    HW1 9033  11.965  11.170   8.179
35753SOL    HW2 9034  12.088  11.239   8.234
35754SOL     OW 9035   9.798  10.937  13.034
35754SOL    HW1 9036   9.794  10.990  13.114
35754SOL    HW2 9037   9.808  10.847  13.065
35755SOL     OW 9038   5.050   1.570  12.847
35755SOL    HW1 9039   5.073   1.621  12.769
35755SOL    HW2 9040   5.077   1.481  12.826
35756SOL     OW 9041   7.872   1.870  12.054
35756SOL    HW1 9042   7.937   1.800  12.043
35756SOL    HW2 9043   7.894   1.910  12.138
35757SOL     OW 9044   9.841   8.627   0.031
35757SOL    HW1 9045   9.825   8.719   0.009
35757SOL    HW2 9046   9.798   8.578  14.839
35758SOL     OW 9047   7.032  11.769  13.393
35758SOL    HW1 9048   6.946  11.811  13.395
35758SOL    HW2 9049   7.089  11.833  13.350
35759SOL     OW 9050  12.265  14.851  12.662
35759SOL    HW1 9051  12.274  14.758  12.686
35759SOL    HW2 9052  12.244  14.849  12.569
35760SOL     OW 9053  12.747   3.376   3.353
35760SOL    HW1 9054  12.673   3.338   3.401
35760SOL    HW2 9055  12.784   3.303   3.304
35761SOL     OW 9056   6.395   3.079  10.530
35761SOL    HW1 9057   6.398   3.029  10.611
35761SOL    HW2 9058   6.411   3.169  10.557
35762SOL     OW 9059  14.857  10.451   3.527
35762SOL    HW1 9060   0.014  10.530   3.569
35762SOL    HW2 9061  14.789  10.484   3.468
35763SOL     OW 9062   1.864  12.389   9.652
35763SOL    HW1 9063   1.824  12.417   9.734
35763SOL    HW2 9064   1.862  12.293   9.656
35764SOL     OW 9065  10.599   0.228   5.250
35764SOL    HW1 9066  10.621   0.318   5.277
35764SOL    HW2 9067  10.648   0.173   5.311
35765SOL     OW 9068  14.855   6.859  11.872
35765SOL    HW1 9069   0.032   6.855  11.794
35765SOL    HW2 9070  14.819   6.948  11.872
35766SOL     OW 9071   0.294  10.973  11.529
35766SOL    HW1 9072   0.235  10.935  11.464
35766SOL    HW2 9073   0.381  10.967  11.490
35767SOL     OW 9074   3.158   8.809  13.557
35767SOL    HW1 9075   3.211   8.846  13.627
35767SOL    HW2 9076   3.215   8.742  13.517
35768SOL     OW 9077  12.093   4.389   2.958
35768SOL    HW1 9078  12.077   4.314   3.015
35768SOL    HW2 9079  12.155   4.357   2.893
35769SOL     OW 9080   3.181   6.609   0.416
35769SOL    HW1 9081   3.089   6.602   0.394
35769SOL    HW2 9082   3.219   6.662   0.346
35770SOL     OW 9083  14.666   3.010   1.216
35770SOL    HW1 9084  14.582   3.026   1.174
35770SOL    HW2 9085  14.730   3.008   1.144
35771SOL     OW 9086   9.772   9.682  12.276
35771SOL    HW1 9087   9.738   9.613  12.333
35771SOL    HW2 9088   9.836   9.638  12.220
35772SOL     OW 9089   3.628   2.737   0.898
35772SOL    HW1 9090   3.673   2.804   0.847
35772SOL    HW2 9091   3.543   2.726   0.855
35773SOL     OW 9092   8.394  10.794   8.710
35773SOL    HW1 9093   8.475  10.811   8.758
35773SOL    HW2 9094   8.366  10.708   8.740
35774SOL     OW 9095  11.980   3.672   8.653
35774SOL    HW1 9096  12.061   3.681   8.602
35774SOL    HW2 9097  11.964   3.759   8.689
35775SOL     OW 9098   1.943  11.187  13.597
35775SOL    HW1 9099   1.937  11.091  13.606
35775SOL    HW2 9100   2.037  11.204  13.597
35776SOL     OW 9101   8.104   7.780   5.713
35776SOL    HW1 9102   8.173   7.824   5.763
35776SOL    HW2 9103   8.116   7.811   5.624
35777SOL     OW 9104   6.277   2.164   7.081
35777SOL    HW1 9105   6.333   2.099   7.038
35777SOL    HW2 9106   6.298   2.246   7.035
35778SOL     OW 9107   5.692   4.290   6.434
35778SOL    HW1 9108   5.701   4.199   6.463
35778SOL    HW2 9109   5.602   4.296   6.401
35779SOL     OW 9110   6.496  13.826   4.307
35779SOL    HW1 9111   6.479  13.918   4.286
35779SOL    HW2 9112   6.520  13.827   4.399
35780SOL     OW 9113   9.667   5.053   4.404
35780SOL    HW1 9114   9.759   5.065   4.383
35780SOL    HW2 9115   9.664   4.971   4.454
35781SOL     OW 9116   0.180   2.323  11.028
35781SOL    HW1 9117   0.233   2.396  10.995
35781SOL    HW2 9118   0.215   2.305  11.115
35782SOL     OW 9119   3.313   3.716   6.911
35782SOL    HW1 9120   3.400   3.704   6.947
35782SOL    HW2 9121   3.263   3.755   6.983
35783SOL     OW 9122  12.206   3.737   8.993
35783SOL    HW1 9123  12.289   3.711   8.954
35783SOL    HW2 9124  12.178   3.813   8.941
35784SOL     OW 9125   6.948   5.842   2.134
35784SOL    HW1 9126   6.946   5.937   2.147
35784SOL    HW2 9127   7.021   5.813   2.189
35785SOL     OW 9128  12.539   7.569   9.350
35785SOL    HW1 9129  12.633   7.556   9.340
35785SOL    HW2 9130  12.513   7.619   9.273
35786SOL     OW 9131  12.527   4.132   2.697
35786SOL    HW1 9132  12.481   4.058   2.658
35786SOL    HW2 9133  12.613   4.132   2.656
35787SOL     OW 9134   9.265   8.553  10.259
35787SOL    HW1 9135   9.305   8.509  10.183
35787SOL    HW2 9136   9.241   8.639  10.227
35788SOL     OW 9137   1.297  11.623   1.612
35788SOL    HW1 9138   1.264  11.560   1.548
35788SOL    HW2 9139   1.218  11.663   1.648
35789SOL     OW 9140  14.515   2.253  14.866
35789SOL    HW1 9141  14.522   2.165   0.027
35789SOL    HW2 9142  14.568   2.309   0.045
35790SOL     OW 9143   4.151   6.171   8.635
35790SOL    HW1 9144   4.081   6.236   8.628
35790SOL    HW2 9145   4.185   6.182   8.724
35791SOL     OW 9146  11.150   1.194   1.247
35791SOL    HW1 9147  11.140   1.259   1.177
35791SOL    HW2 9148  11.224   1.227   1.299
35792SOL     OW 9149  11.692  10.953   2.787
35792SOL    HW1 9150  11.608  10.987   2.819
35792SOL    HW2 9151  11.718  11.014   2.718
35793SOL     OW 9152   0.546  12.737   3.736
35793SOL    HW1 9153   0.457  12.755   3.768
35793SOL    HW2 9154   0.594  12.711   3.814
35794SOL     OW 9155  13.369   3.346   7.322
35794SOL    HW1 9156  13.313   3.415   7.287
35794SOL    HW2 9157  13.309   3.278   7.350
35795SOL     OW 9158   0.381   1.419   0.843
35795SOL    HW1 9159   0.375   1.468   0.761
35795SOL    HW2 9160   0.337   1.473   0.908
35796SOL     OW 9161  10.685   7.575   5.399
35796SOL    HW1 9162  10.670   7.668   5.383
35796SOL    HW2 9163  10.780   7.565   5.389
35797SOL     OW 9164   9.564   7.826   2.390
35797SOL    HW1 9165   9.537   7.770   2.463
35797SOL    HW2 9166   9.502   7.899   2.393
35798SOL     OW 9167  14.150   0.475  10.968
35798SOL    HW1 9168  14.218   0.430  11.018
35798SOL    HW2 9169  14.076   0.479  11.029
35799SOL     OW 9170  13.283   3.793   0.285
35799SOL    HW1 9171  13.359   3.742   0.313
35799SOL    HW2 9172  13.304   3.821   0.196
35800SOL     OW 9173   8.156   2.830  12.555
35800SOL    HW1 9174   8.190   2.741  12.552
35800SOL    HW2 9175   8.095   2.835  12.482
35801SOL     OW 9176   4.592   1.416   5.198
35801SOL    HW1 9177   4.595   1.480   5.269
35801SOL    HW2 9178   4.547   1.461   5.127
35802SOL     OW 9179  12.702   4.302   5.997
35802SOL    HW1 9180  12.754   4.377   6.027
35802SOL    HW2 9181  12.622   4.306   6.049
35803SOL     OW 9182  13.351   4.699   3.771
35803SOL    HW1 9183  13.368   4.739   3.856
35803SOL    HW2 9184  13.258   4.717   3.754
35804SOL     OW 9185  10.025  13.177  13.730
35804SOL    HW1 9186  10.028  13.249  13.793
35804SOL    HW2 9187   9.981  13.214  13.653
35805SOL     OW 9188   2.488   3.812  14.499
35805SOL    HW1 9189   2.448   3.770  14.422
35805SOL    HW2 9190   2.422   3.875  14.528
35806SOL     OW 9191   7.664   2.910   0.856
35806SOL    HW1 9192   7.575   2.887   0.883
35806SOL    HW2 9193   7.677   2.999   0.890
35807SOL     OW 9194   2.965   1.753  12.543
35807SOL    HW1 9195   2.940   1.750  12.451
35807SOL    HW2 9196   3.054   1.718  12.545
35808SOL     OW 9197  11.331   0.243   2.731
35808SOL    HW1 9198  11.285   0.165   2.700
35808SOL    HW2 9199  11.330   0.235   2.826
35809SOL     OW 9200   4.474   0.173   6.618
35809SOL    HW1 9201   4.522   0.119   6.680
35809SOL    HW2 9202   4.434   0.111   6.557
35810SOL     OW 9203  11.785  12.972   2.474
35810SOL    HW1 9204  11.800  12.895   2.420
35810SOL    HW2 9205  11.827  12.952   2.558
35811SOL     OW 9206  14.838   1.305   2.432
35811SOL    HW1 9207  14.821   1.282   2.524
35811SOL    HW2 9208   0.049   1.341   2.433
35812SOL     OW 9209   2.466   5.674   4.565
35812SOL    HW1 9210   2.522   5.685   4.488
35812SOL    HW2 9211   2.521   5.700   4.638
35813SOL     OW 9212   1.112   4.099   0.350
35813SOL    HW1 9213   1.142   4.082   0.440
35813SOL    HW2 9214   1.192   4.119   0.301
35814SOL     OW 9215   4.201  10.609  10.848
35814SOL    HW1 9216   4.265  10.657  10.900
35814SOL    HW2 9217   4.240  10.524  10.833
35815SOL     OW 9218   6.726   5.970   9.504
35815SOL    HW1 9219   6.725   6.035   9.435
35815SOL    HW2 9220   6.634   5.953   9.523
35816SOL     OW 9221  10.907  14.297  10.497
35816SOL    HW1 9222  10.968  14.255  10.436
35816SOL    HW2 9223  10.869  14.224  10.546
35817SOL     OW 9224  13.536   6.926   5.637
35817SOL    HW1 9225  13.491   6.868   5.699
35817SOL    HW2 9226  13.567   6.999   5.691
35818SOL     OW 9227  11.918   5.076  14.010
35818SOL    HW1 9228  11.942   5.014  14.078
35818SOL    HW2 9229  11.822   5.080  14.015
35819SOL     OW 9230   4.820  12.649   1.914
35819SOL    HW1 9231   4.800  12.698   1.994
35819SOL    HW2 9232   4.866  12.571   1.945
35820SOL     OW 9233   8.652   2.987   1.200
35820SOL    HW1 9234   8.745   2.968   1.209
35820SOL    HW2 9235   8.639   3.069   1.247
35821SOL     OW 9236  11.457   3.561   3.378
35821SOL    HW1 9237  11.543   3.522   3.361
35821SOL    HW2 9238  11.418   3.573   3.291
35822SOL     OW 9239   3.710  11.031   9.376
35822SOL    HW1 9240   3.763  11.006   9.300
35822SOL    HW2 9241   3.715  10.955   9.434
35823SOL     OW 9242   6.377  12.574   3.448
35823SOL    HW1 9243   6.297  12.524   3.464
35823SOL    HW2 9244   6.441  12.509   3.417
35824SOL     OW 9245  13.549   7.631   8.429
35824SOL    HW1 9246  13.591   7.587   8.355
35824SOL    HW2 9247  13.469   7.669   8.391
35825SOL     OW 9248   9.696  11.322   3.083
35825SOL    HW1 9249   9.775  11.373   3.063
35825SOL    HW2 9250   9.706  11.242   3.030
35826SOL     OW 9251   3.887  12.139   8.989
35826SOL    HW1 9252   3.953  12.088   8.942
35826SOL    HW2 9253   3.842  12.189   8.921
35827SOL     OW 9254  12.256   6.452   0.404
35827SOL    HW1 9255  12.229   6.521   0.465
35827SOL    HW2 9256  12.191   6.455   0.334
35828SOL     OW 9257  10.568   8.640   6.607
35828SOL    HW1 9258  10.649   8.674   6.568
35828SOL    HW2 9259  10.499   8.693   6.569
35829SOL     OW 9260  12.361   9.885   1.717
35829SOL    HW1 9261  12.328   9.934   1.642
35829SOL    HW2 9262  12.296   9.816   1.731
35830SOL     OW 9263   6.538   2.686   1.162
35830SOL    HW1 9264   6.585   2.679   1.245
35830SOL    HW2 9265   6.505   2.776   1.161
35831SOL     OW 9266  11.689   7.929  13.505
35831SOL    HW1 9267  11.688   7.878  13.424
35831SOL    HW2 9268  11.633   7.880  13.565
35832SOL     OW 9269   8.574   2.418   6.168
35832SOL    HW1 9270   8.612   2.333   6.192
35832SOL    HW2 9271   8.486   2.417   6.203
35833SOL     OW 9272   4.449  13.628   2.609
35833SOL    HW1 9273   4.411  13.611   2.523
35833SOL    HW2 9274   4.544  13.620   2.596
35834SOL     OW 9275   4.008  13.011  14.035
35834SOL    HW1 9276   4.043  13.057  13.959
35834SOL    HW2 9277   4.018  13.073  14.107
35835SOL     OW 9278   8.474   4.339  12.687
35835SOL    HW1 9279   8.549   4.394  12.665
35835SOL    HW2 9280   8.465   4.347  12.782
35836SOL     OW 9281  10.087   2.412  11.875
35836SOL    HW1 9282  10.170   2.370  11.851
35836SOL    HW2 9283  10.108   2.506  11.877
35837SOL     OW 9284  10.924   3.734  11.306
35837SOL    HW1 9285  10.933   3.776  11.391
35837SOL    HW2 9286  10.832   3.746  11.283
35838SOL     OW 9287   6.634   4.629   7.798
35838SOL    HW1 9288   6.634   4.603   7.706
35838SOL    HW2 9289   6.726   4.629   7.823
35839SOL     OW 9290  11.432  12.394   4.872
35839SOL    HW1 9291  11.475  12.468   4.915
35839SOL    HW2 9292  11.349  12.429   4.839
35840SOL     OW 9293   4.989   1.565  12.032
35840SOL    HW1 9294   4.913   1.585  12.087
35840SOL    HW2 9295   5.040   1.646  12.031
35841SOL     OW 9296   0.689   8.232  11.266
35841SOL    HW1 9297   0.784   8.232  11.270
35841SOL    HW2 9298   0.663   8.181  11.343
35842SOL     OW 9299   6.951  14.525  11.207
35842SOL    HW1 9300   7.020  14.464  11.232
35842SOL    HW2 9301   6.952  14.592  11.275
35843SOL     OW 9302   4.869   8.597  10.552
35843SOL    HW1 9303   4.956   8.637  10.548
35843SOL    HW2 9304   4.837   8.599  10.461
35844SOL     OW 9305   0.547  10.562  10.796
35844SOL    HW1 9306   0.578  10.653  10.796
35844SOL    HW2 9307   0.456  10.568  10.827
35845SOL     OW 9308  14.711   7.306   7.052
35845SOL    HW1 9309  14.790   7.283   7.003
35845SOL    HW2 9310  14.657   7.227   7.049
35846SOL     OW 9311   2.609   2.278  12.566
35846SOL    HW1 9312   2.617   2.297  12.659
35846SOL    HW2 9313   2.697   2.293  12.531
35847SOL     OW 9314   2.334  12.317   0.652
35847SOL    HW1 9315   2.348  12.224   0.632
35847SOL    HW2 9316   2.385  12.364   0.587
35848SOL     OW 9317   0.277   5.394   5.679
35848SOL    HW1 9318   0.345   5.448   5.719
35848SOL    HW2 9319   0.317   5.358   5.600
35849SOL     OW 9320  12.167   5.688  12.286
35849SOL    HW1 9321  12.150   5.633  12.210
35849SOL    HW2 9322  12.135   5.775  12.260
35850SOL     OW 9323   8.675   1.920   7.083
35850SOL    HW1 9324   8.721   1.908   7.000
35850SOL    HW2 9325   8.744   1.914   7.149
35851SOL     OW 9326   7.131   1.043   3.020
35851SOL    HW1 9327   7.083   1.092   3.086
35851SOL    HW2 9328   7.186   1.108   2.976
35852SOL     OW 9329  11.122   6.258  11.771
35852SOL    HW1 9330  11.201   6.276  11.821
35852SOL    HW2 9331  11.051   6.292  11.826
35853SOL     OW 9332   0.919   6.203   4.012
35853SOL    HW1 9333   0.825   6.223   4.008
35853SOL    HW2 9334   0.960   6.287   4.031
35854SOL     OW 9335   6.653   8.315   8.520
35854SOL    HW1 9336   6.656   8.398   8.472
35854SOL    HW2 9337   6.732   8.269   8.492
35855SOL     OW 9338   0.751  13.408   7.554
35855SOL    HW1 9339   0.708  13.346   7.613
35855SOL    HW2 9340   0.708  13.492   7.570
35856SOL     OW 9341   5.702   8.436  10.957
35856SOL    HW1 9342   5.753   8.490  10.897
35856SOL    HW2 9343   5.718   8.346  10.928
35857SOL     OW 9344   3.206  12.760   3.640
35857SOL    HW1 9345   3.188  12.851   3.617
35857SOL    HW2 9346   3.295  12.745   3.608
35858SOL     OW 9347   9.972   9.895   6.418
35858SOL    HW1 9348   9.961   9.957   6.490
35858SOL    HW2 9349  10.066   9.891   6.404
35859SOL     OW 9350   4.084   2.079  10.032
35859SOL    HW1 9351   4.011   2.027   9.998
35859SOL    HW2 9352   4.125   2.022  10.097
35860SOL     OW 9353   6.389  11.032   8.646
35860SOL    HW1 9354   6.309  11.009   8.693
35860SOL    HW2 9355   6.452  11.055   8.715
35861SOL     OW 9356   0.848   0.169   5.735
35861SOL    HW1 9357   0.813   0.115   5.664
35861SOL    HW2 9358   0.831   0.118   5.814
35862SOL     OW 9359   3.728  10.372   3.870
35862SOL    HW1 9360   3.681  10.452   3.848
35862SOL    HW2 9361   3.775  10.393   3.951
35863SOL     OW 9362   7.709  14.045   3.864
35863SOL    HW1 9363   7.774  13.985   3.828
35863SOL    HW2 9364   7.756  14.126   3.879
35864SOL     OW 9365   4.987   5.323   6.730
35864SOL    HW1 9366   4.943   5.394   6.778
35864SOL    HW2 9367   4.976   5.346   6.638
35865SOL     OW 9368   6.523   1.239  13.269
35865SOL    HW1 9369   6.492   1.149  13.273
35865SOL    HW2 9370   6.505   1.268  13.180
35866SOL     OW 9371   8.143   5.490   0.606
35866SOL    HW1 9372   8.215   5.553   0.610
35866SOL    HW2 9373   8.125   5.480   0.513
35867SOL     OW 9374  11.646  13.253  10.357
35867SOL    HW1 9375  11.586  13.195  10.405
35867SOL    HW2 9376  11.733  13.223  10.382
35868SOL     OW 9377   3.815   7.336   6.724
35868SOL    HW1 9378   3.869   7.395   6.777
35868SOL    HW2 9379   3.861   7.329   6.641
35869SOL     OW 9380  11.347  10.473   8.139
35869SOL    HW1 9381  11.343  10.384   8.103
35869SOL    HW2 9382  11.417  10.469   8.205
35870SOL     OW 9383   5.740   5.280   5.298
35870SOL    HW1 9384   5.752   5.371   5.325
35870SOL    HW2 9385   5.689   5.285   5.217
35871SOL     OW 9386   9.813  11.631  10.377
35871SOL    HW1 9387   9.853  11.553  10.340
35871SOL    HW2 9388   9.803  11.690  10.302
35872SOL     OW 9389  12.275  14.263   0.534
35872SOL    HW1 9390  12.313  14.223   0.456
35872SOL    HW2 9391  12.337  14.332   0.559
35873SOL     OW 9392   7.653   3.928   7.915
35873SOL    HW1 9393   7.652   3.927   8.011
35873SOL    HW2 9394   7.743   3.903   7.892
35874SOL     OW 9395   8.366   6.033   3.651
35874SOL    HW1 9396   8.287   5.981   3.633
35874SOL    HW2 9397   8.401   5.995   3.732
35875SOL     OW 9398  11.589   6.692   1.226
35875SOL    HW1 9399  11.568   6.785   1.232
35875SOL    HW2 9400  11.672   6.689   1.178
35876SOL     OW 9401   1.694   9.759  13.027
35876SOL    HW1 9402   1.731   9.692  13.084
35876SOL    HW2 9403   1.635   9.711  12.969
35877SOL     OW 9404   6.177  14.234  14.154
35877SOL    HW1 9405   6.186  14.306  14.217
35877SOL    HW2 9406   6.205  14.271  14.070
35878SOL     OW 9407   8.770   8.699  14.479
35878SOL    HW1 9408   8.801   8.762  14.544
35878SOL    HW2 9409   8.721   8.751  14.415
35879SOL     OW 9410   0.177   2.683  10.026
35879SOL    HW1 9411   0.106   2.714   9.971
35879SOL    HW2 9412   0.142   2.608  10.073
35880SOL     OW 9413  14.276   2.134   1.310
35880SOL    HW1 9414  14.363   2.099   1.332
35880SOL    HW2 9415  14.275   2.221   1.349
35881SOL     OW 9416   8.874   5.929   0.198
35881SOL    HW1 9417   8.966   5.916   0.222
35881SOL    HW2 9418   8.832   5.846   0.219
35882SOL     OW 9419   5.410   3.457   2.175
35882SOL    HW1 9420   5.356   3.479   2.251
35882SOL    HW2 9421   5.430   3.364   2.186
35883SOL     OW 9422   8.272  12.167  12.793
35883SOL    HW1 9423   8.298  12.107  12.863
35883SOL    HW2 9424   8.321  12.248  12.812
35884SOL     OW 9425   0.431  14.240   4.813
35884SOL    HW1 9426   0.352  14.197   4.781
35884SOL    HW2 9427   0.404  14.285   4.892
35885SOL     OW 9428   9.390  12.176   0.112
35885SOL    HW1 9429   9.339  12.116   0.058
35885SOL    HW2 9430   9.326  12.219   0.169
35886SOL     OW 9431   3.094   8.653  13.116
35886SOL    HW1 9432   3.018   8.600  13.094
35886SOL    HW2 9433   3.058   8.738  13.142
35887SOL     OW 9434   6.283   5.996   2.276
35887SOL    HW1 9435   6.245   5.993   2.188
35887SOL    HW2 9436   6.228   5.938   2.329
35888SOL     OW 9437   6.009  12.146  11.942
35888SOL    HW1 9438   6.044  12.057  11.947
35888SOL    HW2 9439   6.073  12.199  11.991
35889SOL     OW 9440   5.066   0.456   1.944
35889SOL    HW1 9441   5.018   0.409   1.876
35889SOL    HW2 9442   5.034   0.418   2.026
35890SOL     OW 9443   4.904   2.912  13.941
35890SOL    HW1 9444   4.935   2.850  13.876
35890SOL    HW2 9445   4.887   2.993  13.892
35891SOL     OW 9446   9.648   9.556  10.998
35891SOL    HW1 9447   9.596   9.591  10.926
35891SOL    HW2 9448   9.643   9.623  11.066
35892SOL     OW 9449   7.869  12.446  11.646
35892SOL    HW1 9450   7.889  12.531  11.609
35892SOL    HW2 9451   7.842  12.392  11.572
35893SOL     OW 9452   1.635   6.001   8.653
35893SOL    HW1 9453   1.723   5.984   8.619
35893SOL    HW2 9454   1.647   6.006   8.748
35894SOL     OW 9455  12.086  11.693   8.388
35894SOL    HW1 9456  12.046  11.682   8.474
35894SOL    HW2 9457  12.023  11.653   8.327
35895SOL     OW 9458  12.607   6.888   9.264
35895SOL    HW1 9459  12.565   6.833   9.197
35895SOL    HW2 9460  12.535   6.937   9.302
35896SOL     OW 9461   7.103  14.416  13.241
35896SOL    HW1 9462   7.072  14.498  13.280
35896SOL    HW2 9463   7.077  14.349  13.303
35897SOL     OW 9464  13.662  12.154   7.795
35897SOL    HW1 9465  13.671  12.064   7.765
35897SOL    HW2 9466  13.701  12.207   7.725
35898SOL     OW 9467   7.328   4.729  10.733
35898SOL    HW1 9468   7.370   4.766  10.656
35898SOL    HW2 9469   7.355   4.786  10.805
35899SOL     OW 9470  12.527   4.234   3.551
35899SOL    HW1 9471  12.466   4.305   3.533
35899SOL    HW2 9472  12.547   4.197   3.465
35900SOL     OW 9473   4.617   6.511   1.316
35900SOL    HW1 9474   4.701   6.476   1.346
35900SOL    HW2 9475   4.641   6.576   1.250
35901SOL     OW 9476  14.608   1.010   6.360
35901SOL    HW1 9477  14.691   1.021   6.405
35901SOL    HW2 9478  14.542   1.018   6.430
35902SOL     OW 9479   8.671   7.119   5.956
35902SOL    HW1 9480   8.608   7.190   5.965
35902SOL    HW2 9481   8.751   7.153   5.996
35903SOL     OW 9482  13.885  14.167   4.801
35903SOL    HW1 9483  13.795  14.141   4.817
35903SOL    HW2 9484  13.879  14.231   4.729
35904SOL     OW 9485   5.174   1.024   9.663
35904SOL    HW1 9486   5.134   1.021   9.750
35904SOL    HW2 9487   5.178   0.933   9.635
35905SOL     OW 9488  11.817   1.165   5.847
35905SOL    HW1 9489  11.870   1.098   5.804
35905SOL    HW2 9490  11.871   1.196   5.920
35906SOL     OW 9491   2.962   4.629  13.403
35906SOL    HW1 9492   2.940   4.653  13.493
35906SOL    HW2 9493   2.948   4.709  13.353
35907SOL     OW 9494   5.210  12.810   0.270
35907SOL    HW1 9495   5.135  12.769   0.313
35907SOL    HW2 9496   5.271  12.829   0.341
35908SOL     OW 9497   9.577   2.628   9.432
35908SOL    HW1 9498   9.668   2.656   9.432
35908SOL    HW2 9499   9.576   2.553   9.373
35909SOL     OW 9500  14.013   4.662  14.064
35909SOL    HW1 9501  14.032   4.751  14.033
35909SOL    HW2 9502  13.919   4.652  14.050
35910SOL     OW 9503   2.525  10.837  12.841
35910SOL    HW1 9504   2.477  10.852  12.760
35910SOL    HW2 9505   2.609  10.801  12.813
35911SOL     OW 9506   8.891   1.621  11.158
35911SOL    HW1 9507   8.951   1.584  11.092
35911SOL    HW2 9508   8.840   1.686  11.110
35912SOL     OW 9509   2.041   6.673   8.162
35912SOL    HW1 9510   2.060   6.676   8.069
35912SOL    HW2 9511   1.995   6.755   8.180
35913SOL     OW 9512   8.743  11.150   1.498
35913SOL    HW1 9513   8.773  11.206   1.426
35913SOL    HW2 9514   8.814  11.152   1.562
35914SOL     OW 9515  11.810   4.101   5.502
35914SOL    HW1 9516  11.764   4.020   5.525
35914SOL    HW2 9517  11.783   4.164   5.570
35915SOL     OW 9518  10.927  12.868  12.908
35915SOL    HW1 9519  11.005  12.924  12.902
35915SOL    HW2 9520  10.896  12.859  12.818
35916SOL     OW 9521  11.785   8.474   0.799
35916SOL    HW1 9522  11.731   8.546   0.767
35916SOL    HW2 9523  11.800   8.419   0.722
35917SOL     OW 9524   5.029  10.277   4.687
35917SOL    HW1 9525   4.964  10.347   4.688
35917SOL    HW2 9526   5.032  10.248   4.596
35918SOL     OW 9527   1.443  13.632   1.893
35918SOL    HW1 9528   1.409  13.558   1.842
35918SOL    HW2 9529   1.373  13.653   1.955
35919SOL     OW 9530   0.223   3.762   7.550
35919SOL    HW1 9531   0.314   3.776   7.577
35919SOL    HW2 9532   0.226   3.679   7.502
35920SOL     OW 9533  13.513   6.055   6.059
35920SOL    HW1 9534  13.531   6.076   5.968
35920SOL    HW2 9535  13.599   6.031   6.095
35921SOL     OW 9536   8.299   6.087   6.519
35921SOL    HW1 9537   8.228   6.117   6.576
35921SOL    HW2 9538   8.356   6.036   6.576
35922SOL     OW 9539   1.372  13.229  10.724
35922SOL    HW1 9540   1.456  13.187  10.708
35922SOL    HW2 9541   1.385  13.279  10.804
35923SOL     OW 9542  14.010   9.345   7.023
35923SOL    HW1 9543  14.080   9.316   7.081
35923SOL    HW2 9544  13.967   9.264   6.996
35924SOL     OW 9545   1.166   9.748   2.307
35924SOL    HW1 9546   1.108   9.736   2.382
35924SOL    HW2 9547   1.254   9.748   2.345
35925SOL     OW 9548  10.287   3.241   9.470
35925SOL    HW1 9549  10.289   3.166   9.411
35925SOL    HW2 9550  10.378   3.270   9.474
35926SOL     OW 9551  14.326   2.355   0.468
35926SOL    HW1 9552  14.292   2.365   0.557
35926SOL    HW2 9553  14.272   2.413   0.415
35927SOL     OW 9554   9.450   9.250   4.687
35927SOL    HW1 9555   9.408   9.332   4.662
35927SOL    HW2 9556   9.385   9.206   4.741
35928SOL     OW 9557   8.864  12.080  10.700
35928SOL    HW1 9558   8.888  12.013  10.764
35928SOL    HW2 9559   8.914  12.157  10.726
35929SOL     OW 9560   7.044   6.717  13.517
35929SOL    HW1 9561   7.088   6.686  13.596
35929SOL    HW2 9562   6.951   6.711  13.538
35930SOL     OW 9563   2.466   3.317   4.601
35930SOL    HW1 9564   2.417   3.360   4.531
35930SOL    HW2 9565   2.421   3.344   4.681
35931SOL     OW 9566   4.167  11.534   8.784
35931SOL    HW1 9567   4.082  11.525   8.827
35931SOL    HW2 9568   4.197  11.444   8.773
35932SOL     OW 9569  10.730  12.036   1.171
35932SOL    HW1 9570  10.699  11.947   1.156
35932SOL    HW2 9571  10.750  12.069   1.083
35933SOL     OW 9572   5.031  11.383  13.203
35933SOL    HW1 9573   4.978  11.454  13.169
35933SOL    HW2 9574   4.974  11.306  13.201
35934SOL     OW 9575   9.428  11.638   8.228
35934SOL    HW1 9576   9.413  11.708   8.291
35934SOL    HW2 9577   9.342  11.597   8.217
35935SOL     OW 9578   6.976  11.149   7.515
35935SOL    HW1 9579   6.932  11.072   7.551
35935SOL    HW2 9580   7.021  11.188   7.590
35936SOL     OW 9581  10.676  13.674   8.960
35936SOL    HW1 9582  10.733  13.696   9.034
35936SOL    HW2 9583  10.620  13.751   8.948
35937SOL     OW 9584   0.888  10.995   9.646
35937SOL    HW1 9585   0.902  11.088   9.629
35937SOL    HW2 9586   0.909  10.983   9.738
35938SOL     OW 9587   4.208  10.947  12.220
35938SOL    HW1 9588   4.227  10.918  12.309
35938SOL    HW2 9589   4.252  10.882  12.164
35939SOL     OW 9590   3.077   5.747   7.310
35939SOL    HW1 9591   3.016   5.683   7.346
35939SOL    HW2 9592   3.075   5.820   7.372
35940SOL     OW 9593   3.500   5.977   6.489
35940SOL    HW1 9594   3.484   6.052   6.546
35940SOL    HW2 9595   3.466   5.902   6.537
35941SOL     OW 9596  14.715   9.807   3.012
35941SOL    HW1 9597  14.749   9.800   2.922
35941SOL    HW2 9598  14.791   9.835   3.063
35942SOL     OW 9599  10.062  13.405   5.187
35942SOL    HW1 9600  10.099  13.380   5.271
35942SOL    HW2 9601  10.133  13.451   5.142
35943SOL     OW 9602  13.232   0.149   6.064
35943SOL    HW1 9603  13.286   0.205   6.009
35943SOL    HW2 9604  13.254   0.060   6.037
35944SOL     OW 9605   8.803   1.160   3.742
35944SOL    HW1 9606   8.707   1.163   3.742
35944SOL    HW2 9607   8.826   1.125   3.828
35945SOL     OW 9608   7.675   4.215   9.313
35945SOL    HW1 9609   7.643   4.301   9.286
35945SOL    HW2 9610   7.743   4.234   9.378
35946SOL     OW 9611   2.667   2.265  12.030
35946SOL    HW1 9612   2.636   2.319  12.103
35946SOL    HW2 9613   2.678   2.178  12.069
35947SOL     OW 9614   7.844   9.944   8.054
35947SOL    HW1 9615   7.889   9.910   8.131
35947SOL    HW2 9616   7.861   9.879   7.986
35948SOL     OW 9617  12.370   2.433   4.934
35948SOL    HW1 9618  12.428   2.489   4.986
35948SOL    HW2 9619  12.427   2.362   4.904
35949SOL     OW 9620   0.780  12.591   2.614
35949SOL    HW1 9621   0.763  12.660   2.549
35949SOL    HW2 9622   0.733  12.620   2.692
35950SOL     OW 9623  12.685  12.593   9.179
35950SOL    HW1 9624  12.604  12.628   9.142
35950SOL    HW2 9625  12.678  12.611   9.273
35951SOL     OW 9626   7.813   9.554   8.199
35951SOL    HW1 9627   7.843   9.472   8.239
35951SOL    HW2 9628   7.720   9.538   8.180
35952SOL     OW 9629  10.822  13.336   4.086
35952SOL    HW1 9630  10.749  13.289   4.045
35952SOL    HW2 9631  10.876  13.266   4.123
35953SOL     OW 9632   9.055   0.560  13.410
35953SOL    HW1 9633   9.024   0.485  13.359
35953SOL    HW2 9634   9.037   0.535  13.501
35954SOL     OW 9635  10.826  13.622   5.193
35954SOL    HW1 9636  10.770  13.695   5.168
35954SOL    HW2 9637  10.839  13.572   5.113
35955SOL     OW 9638   4.499   8.382   7.541
35955SOL    HW1 9639   4.576   8.428   7.575
35955SOL    HW2 9640   4.535   8.309   7.491
35956SOL     OW 9641   6.410  11.321   6.147
35956SOL    HW1 9642   6.342  11.340   6.212
35956SOL    HW2 9643   6.364  11.322   6.063
35957SOL     OW 9644   0.759  12.743  14.524
35957SOL    HW1 9645   0.748  12.653  14.495
35957SOL    HW2 9646   0.669  12.774  14.539
35958SOL     OW 9647   8.417   0.968  11.574
35958SOL    HW1 9648   8.494   0.913  11.562
35958SOL    HW2 9649   8.405   0.972  11.669
35959SOL     OW 9650  12.090   8.455   8.012
35959SOL    HW1 9651  12.050   8.509   7.944
35959SOL    HW2 9652  12.130   8.383   7.964
35960SOL     OW 9653   0.212   6.687  14.812
35960SOL    HW1 9654   0.155   6.621  14.851
35960SOL    HW2 9655   0.186   6.689  14.720
35961SOL     OW 9656  13.429   5.574   2.851
35961SOL    HW1 9657  13.463   5.514   2.917
35961SOL    HW2 9658  13.394   5.648   2.902
35962SOL     OW 9659   5.441  13.163   1.709
35962SOL    HW1 9660   5.502  13.107   1.661
35962SOL    HW2 9661   5.357  13.118   1.705
35963SOL     OW 9662   5.912   8.453   5.843
35963SOL    HW1 9663   5.879   8.363   5.851
35963SOL    HW2 9664   5.857   8.504   5.902
35964SOL     OW 9665   3.143   0.302   5.635
35964SOL    HW1 9666   3.080   0.375   5.637
35964SOL    HW2 9667   3.220   0.338   5.591
35965SOL     OW 9668   1.131   7.715   6.911
35965SOL    HW1 9669   1.124   7.807   6.937
35965SOL    HW2 9670   1.046   7.677   6.932
35966SOL     OW 9671  10.344   4.766   4.305
35966SOL    HW1 9672  10.430   4.748   4.267
35966SOL    HW2 9673  10.359   4.771   4.399
35967SOL     OW 9674   2.486  12.378   7.257
35967SOL    HW1 9675   2.545  12.404   7.328
35967SOL    HW2 9676   2.482  12.455   7.200
35968SOL     OW 9677  14.107   8.877   8.589
35968SOL    HW1 9678  14.046   8.951   8.590
35968SOL    HW2 9679  14.139   8.872   8.679
35969SOL     OW 9680   0.304   9.932  14.790
35969SOL    HW1 9681   0.327   9.972  14.874
35969SOL    HW2 9682   0.388   9.916  14.747
35970SOL     OW 9683   7.463   5.999   7.434
35970SOL    HW1 9684   7.445   6.090   7.461
35970SOL    HW2 9685   7.515   5.963   7.506
35971SOL     OW 9686   9.236   0.972   7.698
35971SOL    HW1 9687   9.163   1.008   7.647
35971SOL    HW2 9688   9.269   1.047   7.748
35972SOL     OW 9689   3.859  11.853   3.352
35972SOL    HW1 9690   3.932  11.912   3.371
35972SOL    HW2 9691   3.834  11.819   3.438
35973SOL     OW 9692   6.361   8.976   5.037
35973SOL    HW1 9693   6.357   8.997   5.130
35973SOL    HW2 9694   6.304   9.039   4.995
35974SOL     OW 9695  13.592  14.424   8.225
35974SOL    HW1 9696  13.579  14.506   8.273
35974SOL    HW2 9697  13.560  14.356   8.284
35975SOL     OW 9698   7.358  10.606   3.432
35975SOL    HW1 9699   7.438  10.555   3.421
35975SOL    HW2 9700   7.300  10.575   3.362
35976SOL     OW 9701   7.263  11.716   2.445
35976SOL    HW1 9702   7.259  11.691   2.537
35976SOL    HW2 9703   7.175  11.747   2.424
35977SOL     OW 9704  11.992   1.595   8.802
35977SOL    HW1 9705  11.974   1.505   8.827
35977SOL    HW2 9706  11.923   1.646   8.844
35978SOL     OW 9707   4.031   8.599  10.073
35978SOL    HW1 9708   4.093   8.626  10.141
35978SOL    HW2 9709   3.949   8.584  10.120
35979SOL     OW 9710  14.270   7.146   3.131
35979SOL    HW1 9711  14.283   7.074   3.070
35979SOL    HW2 9712  14.212   7.207   3.085
35980SOL     OW 9713   6.621   9.642  12.189
35980SOL    HW1 9714   6.607   9.562  12.139
35980SOL    HW2 9715   6.713   9.638  12.215
35981SOL     OW 9716   8.645  11.389   2.486
35981SOL    HW1 9717   8.723  11.444   2.500
35981SOL    HW2 9718   8.657  11.316   2.547
35982SOL     OW 9719   9.261   4.152   4.273
35982SOL    HW1 9720   9.205   4.077   4.253
35982SOL    HW2 9721   9.350   4.120   4.264
35983SOL     OW 9722  11.293  13.264   6.083
35983SOL    HW1 9723  11.375  13.221   6.059
35983SOL    HW2 9724  11.242  13.265   6.001
35984SOL     OW 9725   6.348   4.340   9.561
35984SOL    HW1 9726   6.383   4.420   9.524
35984SOL    HW2 9727   6.352   4.353   9.655
35985SOL     OW 9728   0.494  10.477  12.463
35985SOL    HW1 9729   0.574  10.480  12.516
35985SOL    HW2 9730   0.450  10.560  12.480
35986SOL     OW 9731   0.727   1.710  10.383
35986SOL    HW1 9732   0.752   1.684  10.472
35986SOL    HW2 9733   0.767   1.644  10.326
35987SOL     OW 9734   2.484   5.079   6.783
35987SOL    HW1 9735   2.430   5.121   6.850
35987SOL    HW2 9736   2.444   4.993   6.771
35988SOL     OW 9737  14.416  10.789   2.248
35988SOL    HW1 9738  14.446  10.739   2.323
35988SOL    HW2 9739  14.379  10.724   2.189
35989SOL     OW 9740   7.095  12.403   4.063
35989SOL    HW1 9741   7.149  12.482   4.060
35989SOL    HW2 9742   7.122  12.352   3.987
35990SOL     OW 9743   6.367   7.756   1.893
35990SOL    HW1 9744   6.437   7.762   1.827
35990SOL    HW2 9745   6.383   7.830   1.952
35991SOL     OW 9746   9.098   1.580  10.986
35991SOL    HW1 9747   9.155   1.507  11.013
35991SOL    HW2 9748   9.147   1.624  10.917
35992SOL     OW 9749   3.881  13.454  13.431
35992SOL    HW1 9750   3.836  13.390  13.486
35992SOL    HW2 9751   3.944  13.496  13.490
35993SOL     OW 9752   9.625   2.106   5.634
35993SOL    HW1 9753   9.677   2.185   5.622
35993SOL    HW2 9754   9.584   2.116   5.719
35994SOL     OW 9755   5.919  12.998   2.513
35994SOL    HW1 9756   5.990  13.055   2.543
35994SOL    HW2 9757   5.927  12.920   2.567
35995SOL     OW 9758   5.634   1.211  14.643
35995SOL    HW1 9759   5.576   1.285  14.663
35995SOL    HW2 9760   5.575   1.138  14.627
35996SOL     OW 9761   6.224   7.284  13.701
35996SOL    HW1 9762   6.288   7.258  13.635
35996SOL    HW2 9763   6.163   7.210  13.706
35997SOL     OW 9764   7.536   0.235  13.331
35997SOL    HW1 9765   7.479   0.245  13.407
35997SOL    HW2 9766   7.593   0.312  13.334
35998SOL     OW 9767  12.209   9.220  13.880
35998SOL    HW1 9768  12.163   9.136  13.890
35998SOL    HW2 9769  12.166   9.278  13.942
35999SOL     OW 9770  11.778  11.042   2.555
35999SOL    HW1 9771  11.795  11.125   2.512
35999SOL    HW2 9772  11.864  11.000   2.561
36000SOL     OW 9773   1.182  10.583   5.704
36000SOL    HW1 9774   1.244  10.645   5.742
36000SOL    HW2 9775   1.227  10.549   5.627
36001SOL     OW 9776   5.976   0.458   0.625
36001SOL    HW1 9777   5.993   0.520   0.554
36001SOL    HW2 9778   6.062   0.443   0.664
36002SOL     OW 9779   4.999   4.060  13.763
36002SOL    HW1 9780   4.983   4.145  13.806
36002SOL    HW2 9781   4.940   4.060  13.688
36003SOL     OW 9782   5.432   3.567   9.771
36003SOL    HW1 9783   5.494   3.589   9.841
36003SOL    HW2 9784   5.459   3.622   9.697
36004SOL     OW 9785   2.497  11.778  10.535
36004SOL    HW1 9786   2.441  11.851  10.510
36004SOL    HW2 9787   2.445  11.727  10.597
36005SOL     OW 9788  11.812  11.657   8.217
36005SOL    HW1 9789  11.760  11.588   8.176
36005SOL    HW2 9790  11.772  11.738   8.188
36006SOL     OW 9791   6.903  10.380  12.352
36006SOL    HW1 9792   6.860  10.452  12.399
36006SOL    HW2 9793   6.842  10.307  12.360
36007SOL     OW 9794   3.489   6.585   4.265
36007SOL    HW1 9795   3.523   6.578   4.354
36007SOL    HW2 9796   3.394   6.578   4.275
36008SOL     OW 9797  14.506  10.286   0.566
36008SOL    HW1 9798  14.440  10.262   0.501
36008SOL    HW2 9799  14.540  10.203   0.598
36009SOL     OW 9800   1.314  11.180  12.559
36009SOL    HW1 9801   1.381  11.154  12.496
36009SOL    HW2 9802   1.294  11.271  12.537
36010SOL     OW 9803   5.140   2.154   4.165
36010SOL    HW1 9804   5.086   2.095   4.111
36010SOL    HW2 9805   5.210   2.183   4.106
36011SOL     OW 9806   7.726  11.574  11.005
36011SOL    HW1 9807   7.763  11.658  11.032
36011SOL    HW2 9808   7.797  11.530  10.959
36012SOL     OW 9809   8.197   9.908   7.502
36012SOL    HW1 9810   8.256   9.902   7.427
36012SOL    HW2 9811   8.184  10.002   7.514
36013SOL     OW 9812   4.773  10.446  11.747
36013SOL    HW1 9813   4.727  10.448  11.663
36013SOL    HW2 9814   4.703  10.457  11.812
36014SOL     OW 9815   0.259   0.270   8.769
36014SOL    HW1 9816   0.285   0.335   8.704
36014SOL    HW2 9817   0.287   0.308   8.853
36015SOL     OW 9818  11.057  11.886  11.834
36015SOL    HW1 9819  10.992  11.887  11.903
36015SOL    HW2 9820  11.110  11.809  11.852
36016SOL     OW 9821   5.185  12.890   3.621
36016SOL    HW1 9822   5.242  12.829   3.668
36016SOL    HW2 9823   5.110  12.837   3.594
36017SOL     OW 9824   9.663   0.925  13.025
36017SOL    HW1 9825   9.743   0.891  12.984
36017SOL    HW2 9826   9.596   0.861  13.001
36018SOL     OW 9827   8.915   6.647  12.229
36018SOL    HW1 9828   8.868   6.726  12.255
36018SOL    HW2 9829   8.971   6.675  12.157
36019SOL     OW 9830  13.501   3.432  13.945
36019SOL    HW1 9831  13.417   3.476  13.955
36019SOL    HW2 9832  13.560   3.500  13.912
36020SOL     OW 9833   7.141   5.063   5.434
36020SOL    HW1 9834   7.065   5.112   5.465
36020SOL    HW2 9835   7.166   5.107   5.353
36021SOL     OW 9836   7.770   7.167   3.018
36021SOL    HW1 9837   7.724   7.233   2.966
36021SOL    HW2 9838   7.847   7.145   2.965
36022SOL     OW 9839   7.202   0.198  10.343
36022SOL    HW1 9840   7.186   0.194  10.249
36022SOL    HW2 9841   7.295   0.178  10.353
36023SOL     OW 9842  11.233  10.525  14.157
36023SOL    HW1 9843  11.186  10.560  14.082
36023SOL    HW2 9844  11.247  10.601  14.214
36024SOL     OW 9845   4.776  11.172   5.715
36024SOL    HW1 9846   4.796  11.116   5.640
36024SOL    HW2 9847   4.687  11.202   5.699
36025SOL     OW 9848   4.042   6.855  14.648
36025SOL    HW1 9849   4.103   6.884  14.580
36025SOL    HW2 9850   3.972   6.920  14.647
36026SOL     OW 9851   4.324  12.949  14.048
36026SOL    HW1 9852   4.332  13.045  14.045
36026SOL    HW2 9853   4.237  12.932  14.013
36027SOL     OW 9854  10.630   2.037   3.431
36027SOL    HW1 9855  10.724   2.055   3.426
36027SOL    HW2 9856  10.621   1.973   3.502
36028SOL     OW 9857   4.184  10.787   2.467
36028SOL    HW1 9858   4.104  10.833   2.444
36028SOL    HW2 9859   4.243  10.855   2.500
36029SOL     OW 9860  13.816   0.990   0.096
36029SOL    HW1 9861  13.800   1.084   0.096
36029SOL    HW2 9862  13.751   0.955   0.034
36030SOL     OW 9863   4.070  11.735   2.414
36030SOL    HW1 9864   4.103  11.729   2.503
36030SOL    HW2 9865   4.149  11.728   2.359
36031SOL     OW 9866   0.432  11.827  13.835
36031SOL    HW1 9867   0.429  11.773  13.914
36031SOL    HW2 9868   0.351  11.806  13.788
36032SOL     OW 9869  10.126   0.299   7.184
36032SOL    HW1 9870  10.041   0.259   7.202
36032SOL    HW2 9871  10.153   0.261   7.100
36033SOL     OW 9872   6.579   8.061  11.396
36033SOL    HW1 9873   6.572   7.987  11.457
36033SOL    HW2 9874   6.670   8.090  11.404
36034SOL     OW 9875  14.455  13.475   1.410
36034SOL    HW1 9876  14.550  13.465   1.396
36034SOL    HW2 9877  14.440  13.570   1.406
36035SOL     OW 9878  14.436   0.729  14.838
36035SOL    HW1 9879  14.405   0.819  14.831
36035SOL    HW2 9880  14.491   0.716  14.760
36036SOL     OW 9881  13.718   6.917   7.525
36036SOL    HW1 9882  13.756   6.967   7.597
36036SOL    HW2 9883  13.712   6.828   7.559
36037SOL     OW 9884   7.910   9.158   4.653
36037SOL    HW1 9885   7.972   9.227   4.674
36037SOL    HW2 9886   7.963   9.078   4.654
36038SOL     OW 9887  10.777  13.849  12.636
36038SOL    HW1 9888  10.792  13.893  12.720
36038SOL    HW2 9889  10.855  13.797  12.621
36039SOL     OW 9890  10.694  12.096  10.268
36039SOL    HW1 9891  10.749  12.169  10.241
36039SOL    HW2 9892  10.751  12.043  10.324
36040SOL     OW 9893   9.716   1.532  12.556
36040SOL    HW1 9894   9.627   1.564  12.538
36040SOL    HW2 9895   9.728   1.459  12.496
36041SOL     OW 9896   2.064  12.708   2.474
36041SOL    HW1 9897   2.108  12.630   2.506
36041SOL    HW2 9898   1.989  12.675   2.424
36042SOL     OW 9899   3.593   9.104  12.778
36042SOL    HW1 9900   3.636   9.022  12.754
36042SOL    HW2 9901   3.554   9.135  12.697
36043SOL     OW 9902  13.846   6.610  14.585
36043SOL    HW1 9903  13.832   6.654  14.669
36043SOL    HW2 9904  13.872   6.680  14.525
36044SOL     OW 9905   9.020  10.070  12.596
36044SOL    HW1 9906   8.961  10.042  12.665
36044SOL    HW2 9907   9.108  10.056  12.632
36045SOL     OW 9908   6.622   6.018   3.823
36045SOL    HW1 9909   6.675   5.942   3.846
36045SOL    HW2 9910   6.633   6.028   3.729
36046SOL     OW 9911   7.747   3.620   5.563
36046SOL    HW1 9912   7.651   3.616   5.562
36046SOL    HW2 9913   7.773   3.553   5.627
36047SOL     OW 9914  13.514  14.234  12.723
36047SOL    HW1 9915  13.501  14.179  12.801
36047SOL    HW2 9916  13.573  14.304  12.753
36048SOL     OW 9917   8.663  11.914   4.965
36048SOL    HW1 9918   8.570  11.933   4.954
36048SOL    HW2 9919   8.706  11.998   4.951
36049SOL     OW 9920  10.054   3.029  10.707
36049SOL    HW1 9921  10.087   3.047  10.619
36049SOL    HW2 9922  10.129   3.044  10.764
36050SOL     OW 9923  12.825  14.876   8.245
36050SOL    HW1 9924  12.901   0.023   8.193
36050SOL    HW2 9925  12.861  14.853   8.331
36051SOL     OW 9926   0.708   3.501   3.690
36051SOL    HW1 9927   0.667   3.439   3.630
36051SOL    HW2 9928   0.654   3.580   3.682
36052SOL     OW 9929   8.097   3.668   6.201
36052SOL    HW1 9930   8.016   3.709   6.229
36052SOL    HW2 9931   8.164   3.734   6.215
36053SOL     OW 9932   7.630  10.415   6.282
36053SOL    HW1 9933   7.589  10.337   6.245
36053SOL    HW2 9934   7.663  10.463   6.207
36054SOL     OW 9935   1.653  14.155   0.347
36054SOL    HW1 9936   1.637  14.192   0.261
36054SOL    HW2 9937   1.566  14.136   0.382
36055SOL     OW 9938   1.436   5.237   8.012
36055SOL    HW1 9939   1.354   5.188   8.005
36055SOL    HW2 9940   1.426   5.310   7.951
36056SOL     OW 9941   4.680   7.870  12.479
36056SOL    HW1 9942   4.737   7.931  12.525
36056SOL    HW2 9943   4.741   7.809  12.437
36057SOL     OW 9944   1.727  13.844   3.671
36057SOL    HW1 9945   1.727  13.909   3.600
36057SOL    HW2 9946   1.776  13.770   3.634
36058SOL     OW 9947   1.548   7.346   7.957
36058SOL    HW1 9948   1.473   7.291   7.979
36058SOL    HW2 9949   1.624   7.290   7.971
36059SOL     OW 9950   8.280  13.527   2.200
36059SOL    HW1 9951   8.283  13.622   2.191
36059SOL    HW2 9952   8.285  13.495   2.110
36060SOL     OW 9953   0.834   8.413   9.693
36060SOL    HW1 9954   0.869   8.387   9.608
36060SOL    HW2 9955   0.903   8.392   9.755
36061SOL     OW 9956  14.174   6.877   3.537
36061SOL    HW1 9957  14.112   6.878   3.609
36061SOL    HW2 9958  14.164   6.963   3.496
36062SOL     OW 9959  13.861   6.638   1.204
36062SOL    HW1 9960  13.862   6.684   1.120
36062SOL    HW2 9961  13.785   6.580   1.199
36063SOL     OW 9962   8.740   4.430   5.888
36063SOL    HW1 9963   8.802   4.358   5.875
36063SOL    HW2 9964   8.790   4.495   5.937
36064SOL     OW 9965   1.577  10.149   2.891
36064SOL    HW1 9966   1.493  10.196   2.893
36064SOL    HW2 9967   1.615  10.163   2.978
36065SOL     OW 9968   0.826  14.460   9.677
36065SOL    HW1 9969   0.732  14.464   9.657
36065SOL    HW2 9970   0.844  14.541   9.724
36066SOL     OW 9971   0.806   6.180   3.307
36066SOL    HW1 9972   0.754   6.227   3.372
36066SOL    HW2 9973   0.878   6.142   3.357
36067SOL     OW 9974   4.001   5.290   7.557
36067SOL    HW1 9975   3.981   5.198   7.541
36067SOL    HW2 9976   3.930   5.338   7.515
36068SOL     OW 9977  14.621   1.507  10.026
36068SOL    HW1 9978  14.534   1.480   9.996
36068SOL    HW2 9979  14.658   1.555   9.951
36069SOL     OW 9980  10.363  14.565   2.671
36069SOL    HW1 9981  10.367  14.633   2.604
36069SOL    HW2 9982  10.453  14.557   2.703
36070SOL     OW 9983   5.181  13.954   4.081
36070SOL    HW1 9984   5.230  13.981   4.158
36070SOL    HW2 9985   5.125  14.029   4.060
36071SOL     OW 9986   7.986   0.560   1.187
36071SOL    HW1 9987   7.921   0.608   1.135
36071SOL    HW2 9988   7.975   0.595   1.276
36072SOL     OW 9989   1.880   8.509  10.605
36072SOL    HW1 9990   1.818   8.530  10.535
36072SOL    HW2 9991   1.964   8.500  10.561
36073SOL     OW 9992  12.559   9.815   3.396
36073SOL    HW1 9993  12.516   9.895   3.365
36073SOL    HW2 9994  12.579   9.766   3.316
36074SOL     OW 9995   1.561   2.634  13.953
36074SOL    HW1 9996   1.495   2.671  14.012
36074SOL    HW2 9997   1.597   2.560  14.002
36075SOL     OW 9998  10.894   0.631   6.918
36075SOL    HW1 9999  10.899   0.582   6.836
36075SOL    HW210000  10.965   0.594   6.971
36076SOL     OW10001   1.015  14.016  12.400
36076SOL    HW110002   0.954  14.084  12.372
36076SOL    HW210003   1.005  13.946  12.336
36077SOL     OW10004   2.314   6.888   9.542
36077SOL    HW110005   2.388   6.837   9.509
36077SOL    HW210006   2.239   6.857   9.492
36078SOL     OW10007   9.930   7.327   5.858
36078SOL    HW110008   9.871   7.332   5.933
36078SOL    HW210009  10.002   7.386   5.880
36079SOL     OW10010  14.705  12.086   6.427
36079SOL    HW110011  14.667  12.079   6.515
36079SOL    HW210012  14.793  12.049   6.436
36080SOL     OW10013   4.982   1.213  13.872
36080SOL    HW110014   4.936   1.216  13.787
36080SOL    HW210015   4.997   1.119  13.887
36081SOL     OW10016   9.389   6.871  14.133
36081SOL    HW110017   9.448   6.929  14.084
36081SOL    HW210018   9.401   6.897  14.224
36082SOL     OW10019   7.407   0.888   5.593
36082SOL    HW110020   7.388   0.964   5.648
36082SOL    HW210021   7.323   0.842   5.587
36083SOL     OW10022   9.021   9.026   0.197
36083SOL    HW110023   8.958   9.067   0.256
36083SOL    HW210024   9.072   9.099   0.162
36084SOL     OW10025   6.417  10.373   4.167
36084SOL    HW110026   6.473  10.441   4.129
36084SOL    HW210027   6.342  10.368   4.109
36085SOL     OW10028   5.990   4.579   8.241
36085SOL    HW110029   6.015   4.487   8.237
36085SOL    HW210030   6.073   4.627   8.240
36086SOL     OW10031   2.413   2.804   7.779
36086SOL    HW110032   2.439   2.870   7.843
36086SOL    HW210033   2.413   2.722   7.828
36087SOL     OW10034   9.429  11.195  10.835
36087SOL    HW110035   9.345  11.173  10.876
36087SOL    HW210036   9.488  11.126  10.865
36088SOL     OW10037   2.280   1.493   8.531
36088SOL    HW110038   2.263   1.407   8.493
36088SOL    HW210039   2.248   1.486   8.621
36089SOL     OW10040   5.257   8.713   2.216
36089SOL    HW110041   5.275   8.748   2.129
36089SOL    HW210042   5.163   8.725   2.229
36090SOL     OW10043  11.932   2.389  14.368
36090SOL    HW110044  11.996   2.323  14.339
36090SOL    HW210045  11.975   2.473  14.350
36091SOL     OW10046   3.747   8.980  14.474
36091SOL    HW110047   3.742   8.908  14.537
36091SOL    HW210048   3.798   8.944  14.401
36092SOL     OW10049   8.844   5.062   3.106
36092SOL    HW110050   8.823   5.154   3.089
36092SOL    HW210051   8.787   5.013   3.048
36093SOL     OW10052   7.564   9.121   6.350
36093SOL    HW110053   7.581   9.203   6.397
36093SOL    HW210054   7.595   9.137   6.261
36094SOL     OW10055  10.656   9.581   2.653
36094SOL    HW110056  10.665   9.587   2.748
36094SOL    HW210057  10.711   9.507   2.628
36095SOL     OW10058   7.546   0.032   7.163
36095SOL    HW110059   7.597   0.086   7.104
36095SOL    HW210060   7.464   0.015   7.116
36096SOL     OW10061  13.999   5.362   0.200
36096SOL    HW110062  13.927   5.326   0.252
36096SOL    HW210063  13.968   5.357   0.110
36097SOL     OW10064   4.676   8.496  13.330
36097SOL    HW110065   4.690   8.591  13.329
36097SOL    HW210066   4.754   8.460  13.371
36098SOL     OW10067   9.229  10.271   4.809
36098SOL    HW110068   9.244  10.262   4.903
36098SOL    HW210069   9.259  10.360   4.788
36099SOL     OW10070   9.337   2.843   5.906
36099SOL    HW110071   9.357   2.759   5.948
36099SOL    HW210072   9.340   2.907   5.977
36100SOL     OW10073   8.598   8.965  10.258
36100SOL    HW110074   8.623   8.890  10.205
36100SOL    HW210075   8.591   9.037  10.195
36101SOL     OW10076   6.305   4.317   2.990
36101SOL    HW110077   6.228   4.305   3.046
36101SOL    HW210078   6.352   4.233   2.995
36102SOL     OW10079   0.129   9.539   4.866
36102SOL    HW110080   0.077   9.478   4.919
36102SOL    HW210081   0.073   9.559   4.791
36103SOL     OW10082  11.995  12.793  14.623
36103SOL    HW110083  11.910  12.766  14.587
36103SOL    HW210084  12.021  12.868  14.569
36104SOL     OW10085  12.610   2.125  10.602
36104SOL    HW110086  12.536   2.180  10.579
36104SOL    HW210087  12.653   2.106  10.519
36105SOL     OW10088  10.962   3.277  12.879
36105SOL    HW110089  11.021   3.297  12.807
36105SOL    HW210090  11.009   3.304  12.958
36106SOL     OW10091  12.786   0.522  10.599
36106SOL    HW110092  12.732   0.501  10.523
36106SOL    HW210093  12.856   0.578  10.565
36107SOL     OW10094  10.654  13.612   6.396
36107SOL    HW110095  10.732  13.664   6.378
36107SOL    HW210096  10.618  13.592   6.310
36108SOL     OW10097   3.350   9.352   9.734
36108SOL    HW110098   3.254   9.353   9.740
36108SOL    HW210099   3.368   9.347   9.640
36109SOL     OW10100  11.807   1.462  11.591
36109SOL    HW110101  11.822   1.522  11.664
36109SOL    HW210102  11.892   1.423  11.574
36110SOL     OW10103   6.921   1.888  13.485
36110SOL    HW110104   6.956   1.851  13.566
36110SOL    HW210105   6.898   1.811  13.433
36111SOL     OW10106   7.064   6.517   9.946
36111SOL    HW110107   7.150   6.475   9.945
36111SOL    HW210108   7.002   6.447   9.967
36112SOL     OW10109   9.663  13.807   5.249
36112SOL    HW110110   9.577  13.765   5.261
36112SOL    HW210111   9.661  13.882   5.308
36113SOL     OW10112   6.130  13.695   8.119
36113SOL    HW110113   6.118  13.757   8.191
36113SOL    HW210114   6.216  13.717   8.083
36114SOL     OW10115  13.570  10.762   1.593
36114SOL    HW110116  13.524  10.802   1.666
36114SOL    HW210117  13.504  10.709   1.549
36115SOL     OW10118  13.346   6.122   0.289
36115SOL    HW110119  13.359   6.100   0.197
36115SOL    HW210120  13.257   6.158   0.293
36116SOL     OW10121  11.394   2.596  13.683
36116SOL    HW110122  11.441   2.606  13.766
36116SOL    HW210123  11.461   2.564  13.622
36117SOL     OW10124   1.314  12.394   7.237
36117SOL    HW110125   1.232  12.430   7.202
36117SOL    HW210126   1.287  12.314   7.282
36118SOL     OW10127   2.155  12.825   6.680
36118SOL    HW110128   2.197  12.742   6.702
36118SOL    HW210129   2.073  12.801   6.639
36119SOL     OW10130  10.952  13.587   2.850
36119SOL    HW110131  10.891  13.514   2.857
36119SOL    HW210132  10.896  13.665   2.855
36120SOL     OW10133  10.019  11.092  14.036
36120SOL    HW110134  10.053  11.010  14.000
36120SOL    HW210135   9.927  11.093  14.012
36121SOL     OW10136  14.087   0.907   7.449
36121SOL    HW110137  14.031   0.833   7.424
36121SOL    HW210138  14.052   0.936   7.534
36122SOL     OW10139  12.254  10.430   5.618
36122SOL    HW110140  12.289  10.457   5.703
36122SOL    HW210141  12.228  10.511   5.576
36123SOL     OW10142   5.720   4.064   5.897
36123SOL    HW110143   5.660   4.135   5.872
36123SOL    HW210144   5.712   4.000   5.826
36124SOL     OW10145  14.393   1.974   6.887
36124SOL    HW110146  14.380   2.025   6.807
36124SOL    HW210147  14.476   1.927   6.873
36125SOL     OW10148   9.486   7.607   0.805
36125SOL    HW110149   9.432   7.652   0.869
36125SOL    HW210150   9.430   7.600   0.727
36126SOL     OW10151   5.097   5.690   6.778
36126SOL    HW110152   5.169   5.697   6.716
36126SOL    HW210153   5.135   5.646   6.855
36127SOL     OW10154  11.336   9.064  13.561
36127SOL    HW110155  11.277   9.103  13.626
36127SOL    HW210156  11.357   8.978  13.596
36128SOL     OW10157  11.358  11.375  14.753
36128SOL    HW110158  11.366  11.451  14.696
36128SOL    HW210159  11.378  11.300  14.696
36129SOL     OW10160  12.266   5.078  12.083
36129SOL    HW110161  12.201   5.096  12.151
36129SOL    HW210162  12.217   5.031  12.015
36130SOL     OW10163   6.030   0.693  11.519
36130SOL    HW110164   5.936   0.696  11.507
36130SOL    HW210165   6.063   0.642  11.444
36131SOL     OW10166   2.302   1.413   9.765
36131SOL    HW110167   2.253   1.477   9.712
36131SOL    HW210168   2.347   1.359   9.700
36132SOL     OW10169   1.981   6.904  10.865
36132SOL    HW110170   2.055   6.953  10.830
36132SOL    HW210171   1.909   6.923  10.806
36133SOL     OW10172   1.316   7.112   6.551
36133SOL    HW110173   1.330   7.051   6.624
36133SOL    HW210174   1.264   7.063   6.488
36134SOL     OW10175  11.893   9.057   7.572
36134SOL    HW110176  11.827   9.109   7.526
36134SOL    HW210177  11.968   9.055   7.513
36135SOL     OW10178   7.109  14.613   5.769
36135SOL    HW110179   7.193  14.596   5.727
36135SOL    HW210180   7.046  14.559   5.722
36136SOL     OW10181  12.944   7.155   5.042
36136SOL    HW110182  12.948   7.059   5.051
36136SOL    HW210183  12.921   7.186   5.130
36137SOL     OW10184   7.876   8.267   1.108
36137SOL    HW110185   7.925   8.185   1.113
36137SOL    HW210186   7.787   8.241   1.086
36138SOL     OW10187   4.478   4.083   4.530
36138SOL    HW110188   4.488   3.988   4.520
36138SOL    HW210189   4.557   4.111   4.576
36139SOL     OW10190  14.278   4.439   8.605
36139SOL    HW110191  14.248   4.514   8.553
36139SOL    HW210192  14.361   4.414   8.565
36140SOL     OW10193   1.998  14.280  11.211
36140SOL    HW110194   1.976  14.219  11.282
36140SOL    HW210195   1.936  14.352  11.221
36141SOL     OW10196  14.459  12.978  13.491
36141SOL    HW110197  14.419  13.008  13.573
36141SOL    HW210198  14.545  13.020  13.489
36142SOL     OW10199   3.290  12.189  10.927
36142SOL    HW110200   3.260  12.279  10.926
36142SOL    HW210201   3.214  12.138  10.955
36143SOL     OW10202   4.719   9.918   3.937
36143SOL    HW110203   4.739   9.916   3.844
36143SOL    HW210204   4.753   9.834   3.970
36144SOL     OW10205   1.971   3.152   1.987
36144SOL    HW110206   1.929   3.205   1.920
36144SOL    HW210207   1.945   3.191   2.070
36145SOL     OW10208   3.555   5.018  11.922
36145SOL    HW110209   3.651   5.016  11.921
36145SOL    HW210210   3.529   4.995  11.833
36146SOL     OW10211   9.694  14.877   7.630
36146SOL    HW110212   9.680   0.076   7.685
36146SOL    HW210213   9.666   0.027   7.542
36147SOL     OW10214   7.394  10.153  13.154
36147SOL    HW110215   7.456  10.209  13.201
36147SOL    HW210216   7.357  10.209  13.086
36148SOL     OW10217   0.007  10.360  13.441
36148SOL    HW110218   0.000  10.445  13.396
36148SOL    HW210219  14.805  10.355  13.494
36149SOL     OW10220   9.012  12.625   3.647
36149SOL    HW110221   8.995  12.547   3.595
36149SOL    HW210222   8.936  12.681   3.631
36150SOL     OW10223   0.564   0.545  14.787
36150SOL    HW110224   0.495   0.570  14.726
36150SOL    HW210225   0.646   0.564  14.740
36151SOL     OW10226   0.040  11.392   9.780
36151SOL    HW110227  14.834  11.360   9.749
36151SOL    HW210228   0.019  11.445   9.857
36152SOL     OW10229  12.778   1.194   4.571
36152SOL    HW110230  12.810   1.139   4.642
36152SOL    HW210231  12.851   1.253   4.552
36153SOL     OW10232   6.710   4.215   5.626
36153SOL    HW110233   6.755   4.298   5.640
36153SOL    HW210234   6.759   4.173   5.555
36154SOL     OW10235   5.044  10.939   3.762
36154SOL    HW110236   5.032  11.018   3.815
36154SOL    HW210237   5.044  10.868   3.825
36155SOL     OW10238  11.461   5.014   1.560
36155SOL    HW110239  11.402   5.058   1.621
36155SOL    HW210240  11.421   5.028   1.474
36156SOL     OW10241  14.854   6.869  12.378
36156SOL    HW110242  14.804   6.898  12.302
36156SOL    HW210243  14.818   6.919  12.451
36157SOL     OW10244   9.151  13.336  11.920
36157SOL    HW110245   9.204  13.394  11.974
36157SOL    HW210246   9.212  13.270  11.889
36158SOL     OW10247  14.288   7.151   2.645
36158SOL    HW110248  14.197   7.142   2.675
36158SOL    HW210249  14.334   7.079   2.689
36159SOL     OW10250   1.513   8.570   4.530
36159SOL    HW110251   1.580   8.502   4.532
36159SOL    HW210252   1.464   8.554   4.449
36160SOL     OW10253  11.561   3.332  10.077
36160SOL    HW110254  11.571   3.292  10.163
36160SOL    HW210255  11.584   3.264  10.015
36161SOL     OW10256   0.342   8.453   3.039
36161SOL    HW110257   0.325   8.423   3.129
36161SOL    HW210258   0.261   8.498   3.014
36162SOL     OW10259   6.713   2.833   6.725
36162SOL    HW110260   6.669   2.898   6.780
36162SOL    HW210261   6.765   2.886   6.664
36163SOL     OW10262   1.529  11.235  10.620
36163SOL    HW110263   1.587  11.265  10.550
36163SOL    HW210264   1.571  11.264  10.701
36164SOL     OW10265   6.981  10.898  11.343
36164SOL    HW110266   6.959  10.923  11.433
36164SOL    HW210267   6.896  10.891  11.299
36165SOL     OW10268   4.677   2.855   2.899
36165SOL    HW110269   4.648   2.806   2.977
36165SOL    HW210270   4.650   2.945   2.917
36166SOL     OW10271  12.964   7.563   4.831
36166SOL    HW110272  12.981   7.516   4.750
36166SOL    HW210273  13.049   7.574   4.872
36167SOL     OW10274   5.933   0.251   3.776
36167SOL    HW110275   5.932   0.268   3.870
36167SOL    HW210276   6.025   0.248   3.753
36168SOL     OW10277   3.924  13.971   6.790
36168SOL    HW110278   3.926  14.007   6.879
36168SOL    HW210279   3.918  13.876   6.803
36169SOL     OW10280   9.480  13.876   1.555
36169SOL    HW110281   9.445  13.896   1.642
36169SOL    HW210282   9.404  13.877   1.497
36170SOL     OW10283   5.769   3.575   2.910
36170SOL    HW110284   5.677   3.568   2.936
36170SOL    HW210285   5.809   3.493   2.941
36171SOL     OW10286   0.051  11.381   8.475
36171SOL    HW110287  14.844  11.409   8.510
36171SOL    HW210288   0.111  11.452   8.496
36172SOL     OW10289   8.242   3.652   7.198
36172SOL    HW110290   8.217   3.699   7.119
36172SOL    HW210291   8.330   3.621   7.181
36173SOL     OW10292   2.511   2.672   7.006
36173SOL    HW110293   2.488   2.732   7.077
36173SOL    HW210294   2.561   2.602   7.049
36174SOL     OW10295   7.299  10.250   7.302
36174SOL    HW110296   7.234  10.263   7.371
36174SOL    HW210297   7.372  10.307   7.327
36175SOL     OW10298   9.121   0.843   3.119
36175SOL    HW110299   9.209   0.819   3.089
36175SOL    HW210300   9.115   0.804   3.207
36176SOL     OW10301   2.925   9.445   3.690
36176SOL    HW110302   2.992   9.453   3.758
36176SOL    HW210303   2.845   9.424   3.737
36177SOL     OW10304   0.079   9.808  14.763
36177SOL    HW110305   0.083   9.727  14.813
36177SOL    HW210306   0.167   9.846  14.770
36178SOL     OW10307   8.211  11.986   9.566
36178SOL    HW110308   8.172  11.899   9.577
36178SOL    HW210309   8.159  12.043   9.622
36179SOL     OW10310   1.982   1.915   2.066
36179SOL    HW110311   2.006   1.829   2.098
36179SOL    HW210312   1.892   1.905   2.034
36180SOL     OW10313   6.273   2.746   7.910
36180SOL    HW110314   6.321   2.825   7.938
36180SOL    HW210315   6.271   2.752   7.814
36181SOL     OW10316   0.118   0.337   1.755
36181SOL    HW110317   0.058   0.336   1.829
36181SOL    HW210318   0.194   0.386   1.786
36182SOL     OW10319  10.501   5.978   9.685
36182SOL    HW110320  10.437   6.015   9.624
36182SOL    HW210321  10.491   5.884   9.677
36183SOL     OW10322   9.214  14.585  11.943
36183SOL    HW110323   9.278  14.608  11.875
36183SOL    HW210324   9.229  14.492  11.960
36184SOL     OW10325   4.796   6.630   3.344
36184SOL    HW110326   4.826   6.721   3.346
36184SOL    HW210327   4.743   6.621   3.423
36185SOL     OW10328  11.962   6.468   4.307
36185SOL    HW110329  11.900   6.402   4.277
36185SOL    HW210330  11.940   6.546   4.257
36186SOL     OW10331   2.792  12.291   9.461
36186SOL    HW110332   2.886  12.305   9.468
36186SOL    HW210333   2.766  12.341   9.383
36187SOL     OW10334  10.154   9.795   0.482
36187SOL    HW110335  10.113   9.869   0.527
36187SOL    HW210336  10.082   9.734   0.466
36188SOL     OW10337   2.578   1.142  13.232
36188SOL    HW110338   2.671   1.159  13.247
36188SOL    HW210339   2.576   1.059  13.185
36189SOL     OW10340  10.695   7.703  13.137
36189SOL    HW110341  10.723   7.789  13.106
36189SOL    HW210342  10.775   7.652  13.144
36190SOL     OW10343   7.865  13.337   1.164
36190SOL    HW110344   7.802  13.290   1.110
36190SOL    HW210345   7.898  13.406   1.107
36191SOL     OW10346  12.059  11.160   7.770
36191SOL    HW110347  12.079  11.252   7.750
36191SOL    HW210348  12.128  11.133   7.832
36192SOL     OW10349  12.647   8.072   5.947
36192SOL    HW110350  12.639   8.164   5.973
36192SOL    HW210351  12.578   8.027   5.995
36193SOL     OW10352   1.118   9.353   9.027
36193SOL    HW110353   1.042   9.334   9.082
36193SOL    HW210354   1.163   9.426   9.071
36194SOL     OW10355   6.597   6.605   0.088
36194SOL    HW110356   6.546   6.666   0.035
36194SOL    HW210357   6.581   6.633   0.178
36195SOL     OW10358   9.650  11.334  12.828
36195SOL    HW110359   9.728  11.365  12.783
36195SOL    HW210360   9.589  11.407  12.824
36196SOL     OW10361   5.919  13.793  13.338
36196SOL    HW110362   5.884  13.868  13.386
36196SOL    HW210363   5.865  13.719  13.366
36197SOL     OW10364   1.464   1.069   7.032
36197SOL    HW110365   1.397   1.098   7.094
36197SOL    HW210366   1.418   1.066   6.948
36198SOL     OW10367   6.223   8.832  14.138
36198SOL    HW110368   6.303   8.870  14.102
36198SOL    HW210369   6.226   8.855  14.231
36199SOL     OW10370  14.315   0.668  10.807
36199SOL    HW110371  14.272   0.650  10.723
36199SOL    HW210372  14.280   0.601  10.867
36200SOL     OW10373   2.914   0.333  13.404
36200SOL    HW110374   2.930   0.428  13.408
36200SOL    HW210375   2.867   0.313  13.485
36201SOL     OW10376   5.383   9.721   3.392
36201SOL    HW110377   5.365   9.631   3.365
36201SOL    HW210378   5.363   9.723   3.486
36202SOL     OW10379   7.187   2.509   2.549
36202SOL    HW110380   7.207   2.489   2.640
36202SOL    HW210381   7.265   2.480   2.500
36203SOL     OW10382   3.256   3.333   8.457
36203SOL    HW110383   3.302   3.260   8.499
36203SOL    HW210384   3.240   3.304   8.368
36204SOL     OW10385   8.875   6.319   9.385
36204SOL    HW110386   8.957   6.302   9.338
36204SOL    HW210387   8.901   6.336   9.475
36205SOL     OW10388   9.944  13.961  12.041
36205SOL    HW110389   9.950  13.867  12.056
36205SOL    HW210390   9.857  13.985  12.073
36206SOL     OW10391  14.077   3.646   5.825
36206SOL    HW110392  14.154   3.610   5.868
36206SOL    HW210393  14.064   3.731   5.866
36207SOL     OW10394   5.929   5.865  10.946
36207SOL    HW110395   5.954   5.958  10.952
36207SOL    HW210396   5.949   5.841  10.856
36208SOL     OW10397   2.828   8.734   0.808
36208SOL    HW110398   2.795   8.649   0.778
36208SOL    HW210399   2.832   8.726   0.903
36209SOL     OW10400  10.929   7.183   2.922
36209SOL    HW110401  10.890   7.151   2.841
36209SOL    HW210402  10.868   7.156   2.990
36210SOL     OW10403   4.445  11.065   1.742
36210SOL    HW110404   4.508  11.134   1.761
36210SOL    HW210405   4.425  11.075   1.649
36211SOL     OW10406   4.077   9.203  12.564
36211SOL    HW110407   4.034   9.288  12.564
36211SOL    HW210408   4.160   9.218  12.519
36212SOL     OW10409   0.828   9.364   0.753
36212SOL    HW110410   0.780   9.368   0.836
36212SOL    HW210411   0.912   9.325   0.777
36213SOL     OW10412   6.961   4.018   5.959
36213SOL    HW110413   6.971   3.928   5.987
36213SOL    HW210414   6.877   4.020   5.913
36214SOL     OW10415   3.664  13.348   1.658
36214SOL    HW110416   3.632  13.425   1.705
36214SOL    HW210417   3.757  13.342   1.681
36215SOL     OW10418   2.218   5.045   7.922
36215SOL    HW110419   2.134   5.040   7.968
36215SOL    HW210420   2.268   5.109   7.973
36216SOL     OW10421   4.797  12.092   8.643
36216SOL    HW110422   4.871  12.116   8.587
36216SOL    HW210423   4.833  12.097   8.732
36217SOL     OW10424   4.880   0.499   1.244
36217SOL    HW110425   4.861   0.409   1.215
36217SOL    HW210426   4.941   0.488   1.317
36218SOL     OW10427   4.003  11.292   0.553
36218SOL    HW110428   4.014  11.236   0.630
36218SOL    HW210429   4.024  11.235   0.479
36219SOL     OW10430   2.370   4.398   1.219
36219SOL    HW110431   2.310   4.370   1.287
36219SOL    HW210432   2.315   4.443   1.154
36220SOL     OW10433   2.820   3.299   2.308
36220SOL    HW110434   2.859   3.376   2.349
36220SOL    HW210435   2.830   3.230   2.373
36221SOL     OW10436   2.651   8.132  12.932
36221SOL    HW110437   2.557   8.149  12.919
36221SOL    HW210438   2.663   8.137  13.027
36222SOL     OW10439   6.832   4.281  14.836
36222SOL    HW110440   6.759   4.323  14.790
36222SOL    HW210441   6.859   4.210  14.779
36223SOL     OW10442   1.766  10.953   3.893
36223SOL    HW110443   1.754  11.031   3.838
36223SOL    HW210444   1.828  10.898   3.844
36224SOL     OW10445   4.536   4.968  14.147
36224SOL    HW110446   4.543   5.052  14.191
36224SOL    HW210447   4.610   4.965  14.086
36225SOL     OW10448   6.844   2.622   0.202
36225SOL    HW110449   6.935   2.650   0.204
36225SOL    HW210450   6.821   2.610   0.295
36226SOL     OW10451   5.833   4.229  14.299
36226SOL    HW110452   5.785   4.178  14.233
36226SOL    HW210453   5.896   4.167  14.335
36227SOL     OW10454   2.729   5.683   3.742
36227SOL    HW110455   2.749   5.773   3.717
36227SOL    HW210456   2.719   5.637   3.659
36228SOL     OW10457   1.630   7.984   6.798
36228SOL    HW110458   1.717   7.951   6.822
36228SOL    HW210459   1.569   7.935   6.853
36229SOL     OW10460  14.839  11.678   6.511
36229SOL    HW110461  14.871  11.588   6.516
36229SOL    HW210462  14.794  11.683   6.427
36230SOL     OW10463   4.409   6.673  12.007
36230SOL    HW110464   4.478   6.731  12.040
36230SOL    HW210465   4.438   6.648  11.919
36231SOL     OW10466   8.961   3.790   3.138
36231SOL    HW110467   9.038   3.734   3.146
36231SOL    HW210468   8.906   3.745   3.073
36232SOL     OW10469   7.259   4.981   3.830
36232SOL    HW110470   7.166   4.971   3.812
36232SOL    HW210471   7.300   4.989   3.744
36233SOL     OW10472  11.012   7.345   4.409
36233SOL    HW110473  10.986   7.368   4.498
36233SOL    HW210474  10.930   7.342   4.360
36234SOL     OW10475   0.774  13.287   8.178
36234SOL    HW110476   0.680  13.270   8.186
36234SOL    HW210477   0.814  13.232   8.245
36235SOL     OW10478  14.572   9.880  14.133
36235SOL    HW110479  14.540   9.856  14.046
36235SOL    HW210480  14.494   9.912  14.179
36236SOL     OW10481  14.787   7.472   1.308
36236SOL    HW110482  14.776   7.475   1.403
36236SOL    HW210483  14.870   7.428   1.295
36237SOL     OW10484   1.047  13.135   7.412
36237SOL    HW110485   1.054  13.185   7.493
36237SOL    HW210486   1.066  13.198   7.343
36238SOL     OW10487   0.611   1.778  13.359
36238SOL    HW110488   0.635   1.771  13.266
36238SOL    HW210489   0.628   1.870  13.381
36239SOL     OW10490  13.606   1.983   3.861
36239SOL    HW110491  13.619   2.072   3.892
36239SOL    HW210492  13.551   1.942   3.928
36240SOL     OW10493   3.556   6.665   3.316
36240SOL    HW110494   3.567   6.760   3.308
36240SOL    HW210495   3.537   6.636   3.227
36241SOL     OW10496   2.026   2.050   6.908
36241SOL    HW110497   2.044   2.074   6.817
36241SOL    HW210498   1.991   2.129   6.948
36242SOL     OW10499   5.989   6.715  13.113
36242SOL    HW110500   6.020   6.794  13.068
36242SOL    HW210501   5.960   6.746  13.199
36243SOL     OW10502   6.164  12.218   4.754
36243SOL    HW110503   6.088  12.276   4.750
36243SOL    HW210504   6.146  12.150   4.690
36244SOL     OW10505  12.202  12.224  11.448
36244SOL    HW110506  12.121  12.175  11.459
36244SOL    HW210507  12.174  12.315  11.436
36245SOL     OW10508   0.822   2.813  14.282
36245SOL    HW110509   0.754   2.881  14.284
36245SOL    HW210510   0.902   2.860  14.258
36246SOL     OW10511   9.887   0.664  10.525
36246SOL    HW110512   9.970   0.619  10.541
36246SOL    HW210513   9.878   0.667  10.430
36247SOL     OW10514   2.704  12.921  13.838
36247SOL    HW110515   2.721  12.995  13.780
36247SOL    HW210516   2.639  12.868  13.792
36248SOL     OW10517   5.168   0.043   8.118
36248SOL    HW110518   5.149   0.001   8.202
36248SOL    HW210519   5.240  14.870   8.081
36249SOL     OW10520   6.096  12.146   9.484
36249SOL    HW110521   6.110  12.086   9.557
36249SOL    HW210522   6.135  12.229   9.513
36250SOL     OW10523  13.632   3.612   5.394
36250SOL    HW110524  13.637   3.693   5.344
36250SOL    HW210525  13.572   3.631   5.466
36251SOL     OW10526   8.372   1.087   6.122
36251SOL    HW110527   8.386   0.992   6.126
36251SOL    HW210528   8.460   1.124   6.126
36252SOL     OW10529   3.653  13.076  10.659
36252SOL    HW110530   3.739  13.070  10.616
36252SOL    HW210531   3.592  13.036  10.597
36253SOL     OW10532   5.618   9.266   5.018
36253SOL    HW110533   5.538   9.264   4.966
36253SOL    HW210534   5.639   9.359   5.028
36254SOL     OW10535   1.875  13.900   0.815
36254SOL    HW110536   1.871  13.826   0.875
36254SOL    HW210537   1.867  13.861   0.728
36255SOL     OW10538   1.141   0.703   3.223
36255SOL    HW110539   1.167   0.616   3.251
36255SOL    HW210540   1.062   0.689   3.170
36256SOL     OW10541   2.534   0.155  13.367
36256SOL    HW110542   2.461   0.102  13.398
36256SOL    HW210543   2.533   0.233  13.422
36257SOL     OW10544  14.720   6.511  11.670
36257SOL    HW110545  14.699   6.562  11.748
36257SOL    HW210546  14.724   6.575  11.599
36258SOL     OW10547   8.522   2.329   7.276
36258SOL    HW110548   8.438   2.375   7.281
36258SOL    HW210549   8.502   2.241   7.308
36259SOL     OW10550  12.681   3.931  11.927
36259SOL    HW110551  12.611   3.995  11.939
36259SOL    HW210552  12.636   3.847  11.919
36260SOL     OW10553  11.750   9.837   3.353
36260SOL    HW110554  11.710   9.763   3.307
36260SOL    HW210555  11.795   9.887   3.286
36261SOL     OW10556   8.144  12.626  12.849
36261SOL    HW110557   8.064  12.678  12.856
36261SOL    HW210558   8.182  12.628  12.937
36262SOL     OW10559   3.394  13.374  11.252
36262SOL    HW110560   3.362  13.400  11.165
36262SOL    HW210561   3.406  13.457  11.298
36263SOL     OW10562   5.408   6.138   1.284
36263SOL    HW110563   5.388   6.230   1.302
36263SOL    HW210564   5.384   6.092   1.364
36264SOL     OW10565   2.902   2.132   6.216
36264SOL    HW110566   2.852   2.052   6.231
36264SOL    HW210567   2.920   2.133   6.122
36265SOL     OW10568   6.528   9.601   3.710
36265SOL    HW110569   6.559   9.683   3.671
36265SOL    HW210570   6.547   9.534   3.643
36266SOL     OW10571  10.710   0.938  14.572
36266SOL    HW110572  10.689   1.031  14.577
36266SOL    HW210573  10.627   0.894  14.591
36267SOL     OW10574  10.638  11.216   1.190
36267SOL    HW110575  10.622  11.270   1.267
36267SOL    HW210576  10.571  11.147   1.195
36268SOL     OW10577   4.220  13.275  10.463
36268SOL    HW110578   4.264  13.288  10.379
36268SOL    HW210579   4.263  13.198  10.501
36269SOL     OW10580   5.383   7.324  13.875
36269SOL    HW110581   5.354   7.399  13.926
36269SOL    HW210582   5.307   7.301  13.821
36270SOL     OW10583  13.900  10.210   4.825
36270SOL    HW110584  13.975  10.180   4.773
36270SOL    HW210585  13.935  10.282   4.877
36271SOL     OW10586   9.344   8.124   1.742
36271SOL    HW110587   9.280   8.186   1.778
36271SOL    HW210588   9.348   8.144   1.649
36272SOL     OW10589   6.279   3.036   8.971
36272SOL    HW110590   6.191   3.040   8.933
36272SOL    HW210591   6.272   3.081   9.055
36273SOL     OW10592   9.512   3.215   6.699
36273SOL    HW110593   9.465   3.285   6.746
36273SOL    HW210594   9.589   3.259   6.663
36274SOL     OW10595   9.383  11.611   9.680
36274SOL    HW110596   9.328  11.563   9.618
36274SOL    HW210597   9.329  11.616   9.759
36275SOL     OW10598   1.779   8.146   0.320
36275SOL    HW110599   1.801   8.192   0.401
36275SOL    HW210600   1.686   8.166   0.306
36276SOL     OW10601   7.941  12.095   6.949
36276SOL    HW110602   7.860  12.058   6.913
36276SOL    HW210603   7.943  12.062   7.039
36277SOL     OW10604  12.540   1.296   8.175
36277SOL    HW110605  12.572   1.382   8.203
36277SOL    HW210606  12.466   1.316   8.117
36278SOL     OW10607   8.958   6.158  11.155
36278SOL    HW110608   8.942   6.111  11.073
36278SOL    HW210609   8.931   6.248  11.136
36279SOL     OW10610  10.328   4.166   3.896
36279SOL    HW110611  10.375   4.144   3.816
36279SOL    HW210612  10.251   4.214   3.866
36280SOL     OW10613   4.933   6.552   5.339
36280SOL    HW110614   4.970   6.542   5.427
36280SOL    HW210615   4.987   6.495   5.284
36281SOL     OW10616   4.349   2.137   5.539
36281SOL    HW110617   4.257   2.161   5.526
36281SOL    HW210618   4.352   2.043   5.520
36282SOL     OW10619  13.040   0.994  11.890
36282SOL    HW110620  13.103   0.948  11.834
36282SOL    HW210621  13.056   0.958  11.977
36283SOL     OW10622   5.307   6.830   3.585
36283SOL    HW110623   5.225   6.845   3.632
36283SOL    HW210624   5.284   6.770   3.514
36284SOL     OW10625  13.019   4.545   6.286
36284SOL    HW110626  13.110   4.526   6.266
36284SOL    HW210627  12.973   4.536   6.202
36285SOL     OW10628   8.612  12.016   6.096
36285SOL    HW110629   8.702  11.989   6.083
36285SOL    HW210630   8.564  11.934   6.108
36286SOL     OW10631  13.159   9.963   8.862
36286SOL    HW110632  13.225   9.899   8.888
36286SOL    HW210633  13.210  10.036   8.826
36287SOL     OW10634  12.688   7.747   4.336
36287SOL    HW110635  12.698   7.656   4.365
36287SOL    HW210636  12.755   7.757   4.268
36288SOL     OW10637   4.425   4.392   2.696
36288SOL    HW110638   4.400   4.307   2.658
36288SOL    HW210639   4.342   4.441   2.700
36289SOL     OW10640   8.236   7.916   9.261
36289SOL    HW110641   8.277   7.955   9.338
36289SOL    HW210642   8.153   7.962   9.252
36290SOL     OW10643   2.565   2.808  13.776
36290SOL    HW110644   2.601   2.784  13.691
36290SOL    HW210645   2.522   2.729  13.807
36291SOL     OW10646   8.038   3.182   1.049
36291SOL    HW110647   8.123   3.198   1.090
36291SOL    HW210648   7.998   3.269   1.043
36292SOL     OW10649  11.665  11.441   0.188
36292SOL    HW110650  11.624  11.506   0.131
36292SOL    HW210651  11.600  11.425   0.257
36293SOL     OW10652   9.258   2.200  12.286
36293SOL    HW110653   9.207   2.186  12.366
36293SOL    HW210654   9.199   2.173  12.215
36294SOL     OW10655   5.525   7.897  11.063
36294SOL    HW110656   5.467   7.921  10.991
36294SOL    HW210657   5.597   7.849  11.022
36295SOL     OW10658   7.782   6.314  12.443
36295SOL    HW110659   7.803   6.315  12.350
36295SOL    HW210660   7.865   6.335  12.487
36296SOL     OW10661   5.624   2.615  14.825
36296SOL    HW110662   5.576   2.644  14.748
36296SOL    HW210663   5.637   2.521  14.811
36297SOL     OW10664   7.346  11.839   8.025
36297SOL    HW110665   7.342  11.778   7.952
36297SOL    HW210666   7.428  11.887   8.011
36298SOL     OW10667  14.876   6.014   5.054
36298SOL    HW110668   0.080   5.984   5.093
36298SOL    HW210669  14.808   5.974   5.108
36299SOL     OW10670   5.147   2.160  12.996
36299SOL    HW110671   5.107   2.246  12.998
36299SOL    HW210672   5.074   2.099  12.988
36300SOL     OW10673   3.428   6.483   1.200
36300SOL    HW110674   3.346   6.484   1.152
36300SOL    HW210675   3.494   6.455   1.136
36301SOL     OW10676  14.249   0.096   8.302
36301SOL    HW110677  14.157   0.120   8.307
36301SOL    HW210678  14.250   0.016   8.249
36302SOL     OW10679   8.501   1.877   9.421
36302SOL    HW110680   8.437   1.825   9.470
36302SOL    HW210681   8.482   1.968   9.446
36303SOL     OW10682   7.521   6.952  12.194
36303SOL    HW110683   7.468   6.903  12.257
36303SOL    HW210684   7.568   7.016  12.247
36304SOL     OW10685   3.762   4.693   9.693
36304SOL    HW110686   3.763   4.599   9.707
36304SOL    HW210687   3.670   4.717   9.688
36305SOL     OW10688   9.806   0.176   8.776
36305SOL    HW110689   9.747   0.142   8.708
36305SOL    HW210690   9.783   0.268   8.785
36306SOL     OW10691   0.163  10.269  11.172
36306SOL    HW110692   0.108  10.328  11.224
36306SOL    HW210693   0.109  10.191  11.162
36307SOL     OW10694  13.220  14.020   7.707
36307SOL    HW110695  13.295  14.073   7.733
36307SOL    HW210696  13.144  14.076   7.725
36308SOL     OW10697   0.312   2.504   3.472
36308SOL    HW110698   0.287   2.567   3.405
36308SOL    HW210699   0.229   2.476   3.511
36309SOL     OW10700   9.520  12.871  12.883
36309SOL    HW110701   9.556  12.807  12.822
36309SOL    HW210702   9.459  12.821  12.938
36310SOL     OW10703   1.936   4.465   4.639
36310SOL    HW110704   1.953   4.411   4.562
36310SOL    HW210705   1.868   4.526   4.611
36311SOL     OW10706   1.160   3.995   1.915
36311SOL    HW110707   1.158   3.982   2.010
36311SOL    HW210708   1.193   4.084   1.904
36312SOL     OW10709   8.660   5.197   3.904
36312SOL    HW110710   8.628   5.116   3.944
36312SOL    HW210711   8.596   5.216   3.835
36313SOL     OW10712  11.665  13.009  14.790
36313SOL    HW110713  11.665  12.933  14.849
36313SOL    HW210714  11.754  13.044  14.796
36314SOL     OW10715   2.710  14.663   2.522
36314SOL    HW110716   2.643  14.716   2.479
36314SOL    HW210717   2.784  14.723   2.534
36315SOL     OW10718   8.346  10.113  12.503
36315SOL    HW110719   8.312  10.189  12.456
36315SOL    HW210720   8.402  10.068  12.440
36316SOL     OW10721   5.223   4.932   1.492
36316SOL    HW110722   5.304   4.883   1.478
36316SOL    HW210723   5.187   4.944   1.404
36317SOL     OW10724   5.953   8.975   6.054
36317SOL    HW110725   6.003   8.894   6.043
36317SOL    HW210726   6.019   9.041   6.075
36318SOL     OW10727  13.911   2.795   9.622
36318SOL    HW110728  13.855   2.791   9.699
36318SOL    HW210729  13.879   2.724   9.566
36319SOL     OW10730   3.071  11.805  12.018
36319SOL    HW110731   3.001  11.868  12.032
36319SOL    HW210732   3.069  11.786  11.925
36320SOL     OW10733   5.893  10.285  11.423
36320SOL    HW110734   5.982  10.252  11.432
36320SOL    HW210735   5.886  10.312  11.332
36321SOL     OW10736   3.969   0.268  12.512
36321SOL    HW110737   4.025   0.211  12.459
36321SOL    HW210738   3.931   0.329  12.449
36322SOL     OW10739  14.853   5.055   9.765
36322SOL    HW110740  14.856   4.972   9.717
36322SOL    HW210741  14.764   5.057   9.801
36323SOL     OW10742  12.744  12.473   6.433
36323SOL    HW110743  12.671  12.421   6.465
36323SOL    HW210744  12.794  12.413   6.378
36324SOL     OW10745  12.510   8.346   3.006
36324SOL    HW110746  12.546   8.296   2.932
36324SOL    HW210747  12.417   8.325   3.006
36325SOL     OW10748   0.851   4.258  12.428
36325SOL    HW110749   0.816   4.340  12.462
36325SOL    HW210750   0.909   4.283  12.357
36326SOL     OW10751  11.479   6.901   1.871
36326SOL    HW110752  11.573   6.912   1.883
36326SOL    HW210753  11.443   6.989   1.883
36327SOL     OW10754   1.187   8.856   7.193
36327SOL    HW110755   1.234   8.790   7.243
36327SOL    HW210756   1.229   8.856   7.107
36328SOL     OW10757   0.394   7.068  14.401
36328SOL    HW110758   0.426   6.995  14.454
36328SOL    HW210759   0.458   7.075  14.330
36329SOL     OW10760   2.109  13.537  10.884
36329SOL    HW110761   2.154  13.490  10.954
36329SOL    HW210762   2.026  13.564  10.922
36330SOL     OW10763   1.359   6.161   2.013
36330SOL    HW110764   1.425   6.187   2.076
36330SOL    HW210765   1.303   6.238   2.004
36331SOL     OW10766   9.407  14.066  13.854
36331SOL    HW110767   9.392  13.976  13.827
36331SOL    HW210768   9.344  14.117  13.804
36332SOL     OW10769   5.168  14.616   0.553
36332SOL    HW110770   5.151  14.705   0.584
36332SOL    HW210771   5.243  14.625   0.494
36333SOL     OW10772  13.288   0.069   2.906
36333SOL    HW110773  13.299   0.161   2.931
36333SOL    HW210774  13.374   0.030   2.921
36334SOL     OW10775   2.372   9.819   4.259
36334SOL    HW110776   2.359   9.753   4.191
36334SOL    HW210777   2.341   9.901   4.221
36335SOL     OW10778   5.329  10.609  12.510
36335SOL    HW110779   5.422  10.589  12.502
36335SOL    HW210780   5.299  10.556  12.584
36336SOL     OW10781   1.113   5.974   1.435
36336SOL    HW110782   1.155   5.936   1.513
36336SOL    HW210783   1.133   6.067   1.440
36337SOL     OW10784   9.969   3.583   6.029
36337SOL    HW110785   9.904   3.515   6.046
36337SOL    HW210786   9.917   3.661   6.011
36338SOL     OW10787   5.679   6.951   2.413
36338SOL    HW110788   5.639   6.866   2.435
36338SOL    HW210789   5.754   6.958   2.471
36339SOL     OW10790   6.577   8.136   1.070
36339SOL    HW110791   6.614   8.062   1.119
36339SOL    HW210792   6.623   8.134   0.986
36340SOL     OW10793   7.185  14.366   1.464
36340SOL    HW110794   7.144  14.453   1.464
36340SOL    HW210795   7.114  14.306   1.487
36341SOL     OW10796   6.333   1.934   4.100
36341SOL    HW110797   6.412   1.957   4.149
36341SOL    HW210798   6.264   1.989   4.139
36342SOL     OW10799  13.877  13.596   8.936
36342SOL    HW110800  13.932  13.564   8.864
36342SOL    HW210801  13.792  13.613   8.896
36343SOL     OW10802   7.398   8.402   8.681
36343SOL    HW110803   7.459   8.380   8.611
36343SOL    HW210804   7.424   8.490   8.709
36344SOL     OW10805   3.284  11.554   3.473
36344SOL    HW110806   3.324  11.488   3.417
36344SOL    HW210807   3.356  11.614   3.495
36345SOL     OW10808  14.448   2.303  14.580
36345SOL    HW110809  14.468   2.289  14.672
36345SOL    HW210810  14.454   2.398  14.568
36346SOL     OW10811   0.141   7.750   5.340
36346SOL    HW110812   0.084   7.819   5.374
36346SOL    HW210813   0.162   7.697   5.417
36347SOL     OW10814   6.913   1.830   8.513
36347SOL    HW110815   6.902   1.849   8.607
36347SOL    HW210816   6.910   1.916   8.471
36348SOL     OW10817   1.820   7.614   1.881
36348SOL    HW110818   1.764   7.560   1.826
36348SOL    HW210819   1.771   7.696   1.892
36349SOL     OW10820  14.195   7.406   4.690
36349SOL    HW110821  14.122   7.416   4.750
36349SOL    HW210822  14.154   7.384   4.606
36350SOL     OW10823   2.605   1.878   7.417
36350SOL    HW110824   2.561   1.897   7.334
36350SOL    HW210825   2.676   1.819   7.392
36351SOL     OW10826   5.541  14.400   3.496
36351SOL    HW110827   5.603  14.329   3.510
36351SOL    HW210828   5.454  14.359   3.503
36352SOL     OW10829   2.373  13.318   5.904
36352SOL    HW110830   2.427  13.275   5.838
36352SOL    HW210831   2.431  13.326   5.980
36353SOL     OW10832  12.633   0.319   2.683
36353SOL    HW110833  12.634   0.328   2.779
36353SOL    HW210834  12.557   0.370   2.656
36354SOL     OW10835  12.054   3.212   4.594
36354SOL    HW110836  12.108   3.287   4.570
36354SOL    HW210837  11.978   3.250   4.638
36355SOL     OW10838  13.584  14.397   7.506
36355SOL    HW110839  13.503  14.440   7.480
36355SOL    HW210840  13.632  14.463   7.556
36356SOL     OW10841   1.700  14.634   5.868
36356SOL    HW110842   1.702  14.692   5.943
36356SOL    HW210843   1.608  14.634   5.840
36357SOL     OW10844  14.032  12.482   8.646
36357SOL    HW110845  14.097  12.435   8.698
36357SOL    HW210846  14.057  12.574   8.654
36358SOL     OW10847   0.745  10.207   5.057
36358SOL    HW110848   0.770  10.114   5.059
36358SOL    HW210849   0.770  10.237   4.970
36359SOL     OW10850   4.962   6.738   5.008
36359SOL    HW110851   4.942   6.648   5.031
36359SOL    HW210852   4.898   6.760   4.940
36360SOL     OW10853   2.510   5.405   7.831
36360SOL    HW110854   2.437   5.465   7.849
36360SOL    HW210855   2.490   5.327   7.883
36361SOL     OW10856   8.180  12.290   3.862
36361SOL    HW110857   8.271  12.268   3.841
36361SOL    HW210858   8.135  12.292   3.778
36362SOL     OW10859  10.107   9.303   3.768
36362SOL    HW110860  10.045   9.334   3.702
36362SOL    HW210861  10.126   9.380   3.821
36363SOL     OW10862  10.287  10.087   0.413
36363SOL    HW110863  10.372  10.050   0.390
36363SOL    HW210864  10.275  10.064   0.505
36364SOL     OW10865  10.459   0.308   3.867
36364SOL    HW110866  10.392   0.333   3.930
36364SOL    HW210867  10.531   0.275   3.920
36365SOL     OW10868  12.093  13.935  12.385
36365SOL    HW110869  12.176  13.975  12.357
36365SOL    HW210870  12.090  13.950  12.479
36366SOL     OW10871   6.218   8.763  10.681
36366SOL    HW110872   6.302   8.808  10.685
36366SOL    HW210873   6.193   8.769  10.589
36367SOL     OW10874  11.512  12.029   5.554
36367SOL    HW110875  11.470  12.061   5.634
36367SOL    HW210876  11.460  12.069   5.484
36368SOL     OW10877   2.304   3.887   4.276
36368SOL    HW110878   2.266   3.819   4.332
36368SOL    HW210879   2.386   3.849   4.245
36369SOL     OW10880   8.416   3.122   3.959
36369SOL    HW110881   8.494   3.175   3.939
36369SOL    HW210882   8.452   3.041   3.995
36370SOL     OW10883  14.671   3.936   3.414
36370SOL    HW110884  14.639   3.877   3.347
36370SOL    HW210885  14.765   3.940   3.400
36371SOL     OW10886   4.228  10.611   6.079
36371SOL    HW110887   4.204  10.572   5.995
36371SOL    HW210888   4.323  10.601   6.083
36372SOL     OW10889   1.392  13.902   7.453
36372SOL    HW110890   1.456  13.973   7.459
36372SOL    HW210891   1.441  13.829   7.416
36373SOL     OW10892   2.817   7.158   6.639
36373SOL    HW110893   2.722   7.169   6.646
36373SOL    HW210894   2.835   7.075   6.683
36374SOL     OW10895   6.145   0.240   5.966
36374SOL    HW110896   6.110   0.256   6.054
36374SOL    HW210897   6.220   0.300   5.959
36375SOL     OW10898  10.498   6.068   3.093
36375SOL    HW110899  10.410   6.031   3.103
36375SOL    HW210900  10.495   6.112   3.008
36376SOL     OW10901   7.368  14.052  10.613
36376SOL    HW110902   7.448  14.100  10.630
36376SOL    HW210903   7.301  14.120  10.602
36377SOL     OW10904  14.265   6.870   3.004
36377SOL    HW110905  14.253   6.849   3.097
36377SOL    HW210906  14.214   6.803   2.958
36378SOL     OW10907   9.613   6.563   9.604
36378SOL    HW110908   9.531   6.609   9.622
36378SOL    HW210909   9.680   6.631   9.615
36379SOL     OW10910   2.964  12.532   9.728
36379SOL    HW110911   2.961  12.619   9.770
36379SOL    HW210912   2.886  12.487   9.760
36380SOL     OW10913   3.101   7.862   9.062
36380SOL    HW110914   3.170   7.826   9.118
36380SOL    HW210915   3.023   7.858   9.117
36381SOL     OW10916  10.150   5.472   9.684
36381SOL    HW110917  10.116   5.464   9.595
36381SOL    HW210918  10.126   5.388   9.725
36382SOL     OW10919   9.734  12.355   3.132
36382SOL    HW110920   9.761  12.354   3.040
36382SOL    HW210921   9.760  12.441   3.164
36383SOL     OW10922   9.726   5.506   7.374
36383SOL    HW110923   9.797   5.536   7.431
36383SOL    HW210924   9.670   5.453   7.432
36384SOL     OW10925   9.227   9.604  13.773
36384SOL    HW110926   9.252   9.684  13.817
36384SOL    HW210927   9.306   9.549  13.774
36385SOL     OW10928   9.358  11.654   2.875
36385SOL    HW110929   9.401  11.726   2.829
36385SOL    HW210930   9.265  11.673   2.868
36386SOL     OW10931   5.258   1.546   1.154
36386SOL    HW110932   5.255   1.545   1.250
36386SOL    HW210933   5.340   1.592   1.134
36387SOL     OW10934  14.777   5.083   3.777
36387SOL    HW110935  14.839   5.148   3.742
36387SOL    HW210936  14.752   5.031   3.701
36388SOL     OW10937   8.688  13.100   6.771
36388SOL    HW110938   8.598  13.083   6.800
36388SOL    HW210939   8.723  13.161   6.835
36389SOL     OW10940   8.123   9.652  12.733
36389SOL    HW110941   8.035   9.614  12.731
36389SOL    HW210942   8.122   9.719  12.665
36390SOL     OW10943  13.608   9.499   6.653
36390SOL    HW110944  13.621   9.444   6.731
36390SOL    HW210945  13.694   9.503   6.612
36391SOL     OW10946   2.613   4.194   4.244
36391SOL    HW110947   2.628   4.274   4.195
36391SOL    HW210948   2.687   4.138   4.222
36392SOL     OW10949   7.375   3.286   7.740
36392SOL    HW110950   7.427   3.317   7.666
36392SOL    HW210951   7.302   3.238   7.700
36393SOL     OW10952  13.963   7.659  10.879
36393SOL    HW110953  13.956   7.569  10.847
36393SOL    HW210954  13.873   7.693  10.872
36394SOL     OW10955  10.596   3.471   1.767
36394SOL    HW110956  10.616   3.514   1.849
36394SOL    HW210957  10.678   3.471   1.718
36395SOL     OW10958   4.829  10.429   3.263
36395SOL    HW110959   4.862  10.341   3.284
36395SOL    HW210960   4.876  10.487   3.324
36396SOL     OW10961   7.087   0.319  12.097
36396SOL    HW110962   7.166   0.270  12.119
36396SOL    HW210963   7.016   0.257  12.107
36397SOL     OW10964  10.434   3.545  14.538
36397SOL    HW110965  10.443   3.630  14.582
36397SOL    HW210966  10.506   3.544  14.474
36398SOL     OW10967   7.052   3.355   1.410
36398SOL    HW110968   7.036   3.337   1.503
36398SOL    HW210969   7.024   3.446   1.398
36399SOL     OW10970   9.205   8.305  12.010
36399SOL    HW110971   9.274   8.303  11.944
36399SOL    HW210972   9.131   8.348  11.967
36400SOL     OW10973   4.699  11.570   5.390
36400SOL    HW110974   4.689  11.475   5.382
36400SOL    HW210975   4.618  11.605   5.353
36401SOL     OW10976   9.780   5.569  13.419
36401SOL    HW110977   9.851   5.629  13.441
36401SOL    HW210978   9.701   5.613  13.449
36402SOL     OW10979   1.655   4.053   8.829
36402SOL    HW110980   1.699   4.115   8.887
36402SOL    HW210981   1.563   4.055   8.858
36403SOL     OW10982   8.033  12.517  13.891
36403SOL    HW110983   8.118  12.550  13.920
36403SOL    HW210984   7.969  12.563  13.945
36404SOL     OW10985   3.603   6.186   6.314
36404SOL    HW110986   3.593   6.162   6.221
36404SOL    HW210987   3.600   6.102   6.360
36405SOL     OW10988   5.475   4.424   3.472
36405SOL    HW110989   5.447   4.505   3.428
36405SOL    HW210990   5.456   4.440   3.564
36406SOL     OW10991   1.918   0.179  10.122
36406SOL    HW110992   1.912   0.084  10.132
36406SOL    HW210993   2.002   0.193  10.077
36407SOL     OW10994   7.090   5.982  13.741
36407SOL    HW110995   7.045   5.996  13.658
36407SOL    HW210996   7.183   5.989  13.720
36408SOL     OW10997   9.985   2.253  13.543
36408SOL    HW110998   9.901   2.248  13.497
36408SOL    HW210999   9.965   2.230  13.634
36409SOL     OW11000  12.593   0.221   2.943
36409SOL    HW111001  12.557   0.171   2.870
36409SOL    HW211002  12.518   0.241   2.999
36410SOL     OW11003   3.277  14.000   4.032
36410SOL    HW111004   3.323  14.071   3.987
36410SOL    HW211005   3.312  13.920   3.993
36411SOL     OW11006   2.015   9.637  11.566
36411SOL    HW111007   2.073   9.712  11.550
36411SOL    HW211008   1.937   9.674  11.605
36412SOL     OW11009   5.423   3.485  12.598
36412SOL    HW111010   5.409   3.463  12.506
36412SOL    HW211011   5.350   3.543  12.620
36413SOL     OW11012  10.797  11.741  10.071
36413SOL    HW111013  10.871  11.796  10.097
36413SOL    HW211014  10.816  11.655  10.108
36414SOL     OW11015  11.339  12.723  11.826
36414SOL    HW111016  11.287  12.709  11.747
36414SOL    HW211017  11.372  12.812  11.818
36415SOL     OW11018  10.110   0.493   3.755
36415SOL    HW111019  10.159   0.425   3.710
36415SOL    HW211020  10.058   0.535   3.686
36416SOL     OW11021   0.080   1.986  11.861
36416SOL    HW111022   0.066   1.895  11.836
36416SOL    HW211023   0.074   1.987  11.956
36417SOL     OW11024   5.578  13.367  12.929
36417SOL    HW111025   5.667  13.377  12.961
36417SOL    HW211026   5.548  13.456  12.913
36418SOL     OW11027   3.930   3.126  10.027
36418SOL    HW111028   3.956   3.079   9.948
36418SOL    HW211029   3.943   3.063  10.098
36419SOL     OW11030   7.165  11.564  13.809
36419SOL    HW111031   7.098  11.497  13.828
36419SOL    HW211032   7.248  11.518  13.819
36420SOL     OW11033   7.356   7.068   3.884
36420SOL    HW111034   7.263   7.062   3.864
36420SOL    HW211035   7.373   6.993   3.941
36421SOL     OW11036   2.020   6.054  11.645
36421SOL    HW111037   2.038   6.080  11.555
36421SOL    HW211038   2.096   6.085  11.695
36422SOL     OW11039   3.380   3.377  12.298
36422SOL    HW111040   3.329   3.438  12.352
36422SOL    HW211041   3.409   3.309  12.360
36423SOL     OW11042   8.859   3.978   5.046
36423SOL    HW111043   8.867   3.995   4.952
36423SOL    HW211044   8.769   3.948   5.057
36424SOL     OW11045   8.693   8.783  13.944
36424SOL    HW111046   8.764   8.782  14.009
36424SOL    HW211047   8.711   8.708  13.888
36425SOL     OW11048   8.716   1.180  11.192
36425SOL    HW111049   8.702   1.251  11.255
36425SOL    HW211050   8.715   1.224  11.107
36426SOL     OW11051   6.488   3.370   9.579
36426SOL    HW111052   6.461   3.324   9.499
36426SOL    HW211053   6.545   3.440   9.547
36427SOL     OW11054   4.520  13.109  11.953
36427SOL    HW111055   4.548  13.109  11.862
36427SOL    HW211056   4.427  13.087  11.950
36428SOL     OW11057   5.280   9.174   3.278
36428SOL    HW111058   5.251   9.088   3.247
36428SOL    HW211059   5.308   9.159   3.368
36429SOL     OW11060  11.868   4.310   6.368
36429SOL    HW111061  11.826   4.389   6.403
36429SOL    HW211062  11.814   4.238   6.399
36430SOL     OW11063  10.714  14.857   2.327
36430SOL    HW111064  10.646   0.016   2.384
36430SOL    HW211065  10.796   0.014   2.364
36431SOL     OW11066   9.571  12.365   9.880
36431SOL    HW111067   9.665  12.370   9.895
36431SOL    HW211068   9.559  12.401   9.792
36432SOL     OW11069   4.363   5.233   2.492
36432SOL    HW111070   4.423   5.178   2.543
36432SOL    HW211071   4.303   5.270   2.557
36433SOL     OW11072  13.806  11.242   9.632
36433SOL    HW111073  13.873  11.185   9.593
36433SOL    HW211074  13.828  11.245   9.725
36434SOL     OW11075  11.408   7.141   9.699
36434SOL    HW111076  11.452   7.088   9.765
36434SOL    HW211077  11.347   7.195   9.749
36435SOL     OW11078  11.571   6.600   5.550
36435SOL    HW111079  11.494   6.649   5.579
36435SOL    HW211080  11.624   6.588   5.629
36436SOL     OW11081   0.652   8.771   9.279
36436SOL    HW111082   0.658   8.676   9.281
36436SOL    HW211083   0.608   8.790   9.195
36437SOL     OW11084   4.771   5.637   1.806
36437SOL    HW111085   4.732   5.643   1.893
36437SOL    HW211086   4.713   5.690   1.751
36438SOL     OW11087   0.168   9.832   3.087
36438SOL    HW111088   0.233   9.847   3.156
36438SOL    HW211089   0.193   9.893   3.017
36439SOL     OW11090   2.163  13.678   7.182
36439SOL    HW111091   2.146  13.673   7.276
36439SOL    HW211092   2.186  13.769   7.166
36440SOL     OW11093   4.951  11.963   4.172
36440SOL    HW111094   4.998  12.028   4.225
36440SOL    HW211095   5.012  11.942   4.101
36441SOL     OW11096  13.208   8.539  14.196
36441SOL    HW111097  13.247   8.591  14.125
36441SOL    HW211098  13.205   8.450  14.161
36442SOL     OW11099   6.848  10.573   1.646
36442SOL    HW111100   6.931  10.605   1.680
36442SOL    HW211101   6.841  10.483   1.678
36443SOL     OW11102   2.060  10.526   6.360
36443SOL    HW111103   1.982  10.505   6.410
36443SOL    HW211104   2.127  10.467   6.394
36444SOL     OW11105  12.253  12.491  13.982
36444SOL    HW111106  12.301  12.447  14.052
36444SOL    HW211107  12.269  12.438  13.904
36445SOL     OW11108   1.264  12.338  10.992
36445SOL    HW111109   1.190  12.373  10.942
36445SOL    HW211110   1.323  12.413  11.002
36446SOL     OW11111   4.693   9.353   9.413
36446SOL    HW111112   4.722   9.409   9.485
36446SOL    HW211113   4.764   9.357   9.349
36447SOL     OW11114   3.939  13.485   2.981
36447SOL    HW111115   3.966  13.396   3.003
36447SOL    HW211116   3.843  13.484   2.987
36448SOL     OW11117   8.143   0.468   8.256
36448SOL    HW111118   8.179   0.515   8.181
36448SOL    HW211119   8.198   0.493   8.329
36449SOL     OW11120   9.396  11.477   1.168
36449SOL    HW111121   9.400  11.549   1.230
36449SOL    HW211122   9.306  11.444   1.176
36450SOL     OW11123   1.257   7.182   7.631
36450SOL    HW111124   1.351   7.188   7.642
36450SOL    HW211125   1.222   7.258   7.678
36451SOL     OW11126   1.757   4.618   9.760
36451SOL    HW111127   1.785   4.533   9.795
36451SOL    HW211128   1.665   4.606   9.739
36452SOL     OW11129   7.680  10.672  13.720
36452SOL    HW111130   7.722  10.653  13.804
36452SOL    HW211131   7.652  10.764  13.728
36453SOL     OW11132  12.926   8.621  11.268
36453SOL    HW111133  12.872   8.678  11.213
36453SOL    HW211134  12.982   8.682  11.318
36454SOL     OW11135  13.480   4.866   6.320
36454SOL    HW111136  13.392   4.846   6.351
36454SOL    HW211137  13.511   4.785   6.280
36455SOL     OW11138  13.992   5.469   6.247
36455SOL    HW111139  14.008   5.482   6.341
36455SOL    HW211140  14.078   5.445   6.211
36456SOL     OW11141  11.456  10.713   1.834
36456SOL    HW111142  11.455  10.703   1.739
36456SOL    HW211143  11.390  10.780   1.851
36457SOL     OW11144   9.466   3.399  13.126
36457SOL    HW111145   9.525   3.382  13.200
36457SOL    HW211146   9.523   3.396  13.049
36458SOL     OW11147   2.718   8.512   0.449
36458SOL    HW111148   2.778   8.473   0.386
36458SOL    HW211149   2.714   8.604   0.425
36459SOL     OW11150   0.267  10.495   0.479
36459SOL    HW111151   0.272  10.411   0.525
36459SOL    HW211152   0.174  10.510   0.465
36460SOL     OW11153  13.020   3.020   4.435
36460SOL    HW111154  13.036   2.996   4.344
36460SOL    HW211155  12.955   2.957   4.465
36461SOL     OW11156   4.937   2.665   5.160
36461SOL    HW111157   4.982   2.582   5.169
36461SOL    HW211158   5.003   2.731   5.181
36462SOL     OW11159  11.445  13.057   2.479
36462SOL    HW111160  11.503  13.096   2.413
36462SOL    HW211161  11.503  13.038   2.553
36463SOL     OW11162   6.175  14.865   9.037
36463SOL    HW111163   6.252  14.810   9.053
36463SOL    HW211164   6.135  14.875   9.123
36464SOL     OW11165   0.487   0.350   1.948
36464SOL    HW111166   0.548   0.363   2.020
36464SOL    HW211167   0.411   0.308   1.988
36465SOL     OW11168   9.050  14.021  10.796
36465SOL    HW111169   9.113  14.090  10.815
36465SOL    HW211170   9.100  13.940  10.804
36466SOL     OW11171   0.935   5.876   9.799
36466SOL    HW111172   0.968   5.954   9.755
36466SOL    HW211173   1.004   5.811   9.787
36467SOL     OW11174  11.144  14.444   3.760
36467SOL    HW111175  11.058  14.477   3.787
36467SOL    HW211176  11.152  14.472   3.669
36468SOL     OW11177  10.548  11.720   7.603
36468SOL    HW111178  10.463  11.705   7.561
36468SOL    HW211179  10.597  11.640   7.585
36469SOL     OW11180   7.948   8.041   0.073
36469SOL    HW111181   7.869   8.070   0.027
36469SOL    HW211182   7.916   7.978   0.138
36470SOL     OW11183  13.268   5.540   2.624
36470SOL    HW111184  13.318   5.542   2.705
36470SOL    HW211185  13.241   5.448   2.615
36471SOL     OW11186   5.082  14.540   2.767
36471SOL    HW111187   4.998  14.572   2.734
36471SOL    HW211188   5.089  14.451   2.733
36472SOL     OW11189  11.158   1.058  14.000
36472SOL    HW111190  11.162   1.100  14.085
36472SOL    HW211191  11.120   0.972  14.017
36473SOL     OW11192   8.908   3.814   9.504
36473SOL    HW111193   8.972   3.744   9.513
36473SOL    HW211194   8.955   3.893   9.531
36474SOL     OW11195  14.046   1.198  12.742
36474SOL    HW111196  13.991   1.137  12.791
36474SOL    HW211197  13.986   1.243  12.684
36475SOL     OW11198   9.859   6.332   9.588
36475SOL    HW111199   9.872   6.418   9.630
36475SOL    HW211200   9.829   6.275   9.659
36476SOL     OW11201   7.035   3.519   3.961
36476SOL    HW111202   6.943   3.494   3.954
36476SOL    HW211203   7.046   3.588   3.895
36477SOL     OW11204   0.495   3.906   1.711
36477SOL    HW111205   0.484   3.821   1.753
36477SOL    HW211206   0.587   3.929   1.727
36478SOL     OW11207  13.666   1.055  11.782
36478SOL    HW111208  13.695   1.146  11.794
36478SOL    HW211209  13.745   1.003  11.798
36479SOL     OW11210   5.842   1.317   3.199
36479SOL    HW111211   5.836   1.321   3.295
36479SOL    HW211212   5.754   1.292   3.171
36480SOL     OW11213   5.087   9.807   8.351
36480SOL    HW111214   5.080   9.762   8.267
36480SOL    HW211215   5.089   9.900   8.328
36481SOL     OW11216   9.383   3.214   3.168
36481SOL    HW111217   9.346   3.160   3.238
36481SOL    HW211218   9.359   3.168   3.088
36482SOL     OW11219   0.329   9.513   1.722
36482SOL    HW111220   0.273   9.588   1.742
36482SOL    HW211221   0.267   9.444   1.698
36483SOL     OW11222   3.915   5.697  11.746
36483SOL    HW111223   3.837   5.752  11.750
36483SOL    HW211224   3.882   5.608  11.744
36484SOL     OW11225  11.429   8.718   5.509
36484SOL    HW111226  11.491   8.664   5.559
36484SOL    HW211227  11.479   8.796   5.486
36485SOL     OW11228   8.077   0.315   4.566
36485SOL    HW111229   8.063   0.226   4.598
36485SOL    HW211230   7.990   0.356   4.568
36486SOL     OW11231   9.633   6.051   1.801
36486SOL    HW111232   9.647   6.027   1.709
36486SOL    HW211233   9.680   5.984   1.850
36487SOL     OW11234  12.686  13.247   4.539
36487SOL    HW111235  12.623  13.175   4.537
36487SOL    HW211236  12.653  13.306   4.607
36488SOL     OW11237   8.462   8.290  13.711
36488SOL    HW111238   8.441   8.227  13.781
36488SOL    HW211239   8.389   8.351  13.712
36489SOL     OW11240  14.472   8.096   0.066
36489SOL    HW111241  14.387   8.124   0.030
36489SOL    HW211242  14.510   8.042  14.875
36490SOL     OW11243   6.745   6.163   0.914
36490SOL    HW111244   6.835   6.137   0.934
36490SOL    HW211245   6.698   6.150   0.996
36491SOL     OW11246   5.433  10.389   8.460
36491SOL    HW111247   5.356  10.381   8.404
36491SOL    HW211248   5.408  10.454   8.526
36492SOL     OW11249   3.624   4.571  12.019
36492SOL    HW111250   3.614   4.505  11.951
36492SOL    HW211251   3.696   4.626  11.989
36493SOL     OW11252   0.740   2.217   4.599
36493SOL    HW111253   0.802   2.208   4.527
36493SOL    HW211254   0.654   2.220   4.557
36494SOL     OW11255   9.475  13.114   5.280
36494SOL    HW111256   9.388  13.128   5.318
36494SOL    HW211257   9.516  13.049   5.337
36495SOL     OW11258   6.790   3.405   4.024
36495SOL    HW111259   6.741   3.323   4.015
36495SOL    HW211260   6.733   3.471   3.984
36496SOL     OW11261   3.475   6.508  10.383
36496SOL    HW111262   3.477   6.417  10.355
36496SOL    HW211263   3.434   6.555  10.310
36497SOL     OW11264   4.342  14.268   1.174
36497SOL    HW111265   4.402  14.202   1.207
36497SOL    HW211266   4.257  14.244   1.210
36498SOL     OW11267  10.374  13.732   7.142
36498SOL    HW111268  10.466  13.751   7.161
36498SOL    HW211269  10.341  13.813   7.102
36499SOL     OW11270   6.062   2.228   7.327
36499SOL    HW111271   6.106   2.181   7.398
36499SOL    HW211272   6.125   2.227   7.255
36500SOL     OW11273  11.197   5.127   3.904
36500SOL    HW111274  11.145   5.056   3.943
36500SOL    HW211275  11.287   5.108   3.932
36501SOL     OW11276   8.636   1.582  13.209
36501SOL    HW111277   8.637   1.657  13.150
36501SOL    HW211278   8.615   1.508  13.153
36502SOL     OW11279   0.239   1.409   5.031
36502SOL    HW111280   0.150   1.376   5.041
36502SOL    HW211281   0.259   1.451   5.115
36503SOL     OW11282   2.922   0.407   8.526
36503SOL    HW111283   2.972   0.489   8.529
36503SOL    HW211284   2.957   0.361   8.450
36504SOL     OW11285  12.675  10.806  10.006
36504SOL    HW111286  12.734  10.795  10.081
36504SOL    HW211287  12.610  10.870  10.036
36505SOL     OW11288   2.255  14.201   6.157
36505SOL    HW111289   2.199  14.193   6.080
36505SOL    HW211290   2.329  14.143   6.139
36506SOL     OW11291   3.400   7.315  10.422
36506SOL    HW111292   3.323   7.293  10.370
36506SOL    HW211293   3.468   7.256  10.390
36507SOL     OW11294   4.043   3.956   6.320
36507SOL    HW111295   4.004   4.022   6.378
36507SOL    HW211296   4.127   3.993   6.295
36508SOL     OW11297   0.172  10.638  12.861
36508SOL    HW111298   0.245  10.657  12.920
36508SOL    HW211299   0.154  10.545  12.874
36509SOL     OW11300   3.781   7.963  12.660
36509SOL    HW111301   3.853   7.932  12.605
36509SOL    HW211302   3.709   7.977  12.599
36510SOL     OW11303   7.171   4.219  10.474
36510SOL    HW111304   7.121   4.139  10.459
36510SOL    HW211305   7.124   4.264  10.543
36511SOL     OW11306   8.494  11.708  13.015
36511SOL    HW111307   8.528  11.685  12.928
36511SOL    HW211308   8.399  11.706  13.005
36512SOL     OW11309  11.676   3.638   9.905
36512SOL    HW111310  11.691   3.684   9.822
36512SOL    HW211311  11.678   3.545   9.881
36513SOL     OW11312  14.684  14.405  13.630
36513SOL    HW111313  14.739  14.430  13.705
36513SOL    HW211314  14.686  14.483  13.573
36514SOL     OW11315  12.757   4.602   8.112
36514SOL    HW111316  12.749   4.632   8.021
36514SOL    HW211317  12.678   4.635   8.155
36515SOL     OW11318  10.820   5.112  14.670
36515SOL    HW111319  10.784   5.029  14.702
36515SOL    HW211320  10.914   5.106  14.691
36516SOL     OW11321   5.289   2.692   0.257
36516SOL    HW111322   5.251   2.779   0.273
36516SOL    HW211323   5.358   2.709   0.192
36517SOL     OW11324   7.128   2.635   6.517
36517SOL    HW111325   7.109   2.555   6.468
36517SOL    HW211326   7.042   2.677   6.527
36518SOL     OW11327   4.798   2.715   2.705
36518SOL    HW111328   4.886   2.706   2.740
36518SOL    HW211329   4.749   2.761   2.774
36519SOL     OW11330  12.976  12.231   4.276
36519SOL    HW111331  12.987  12.202   4.186
36519SOL    HW211332  12.941  12.319   4.269
36520SOL     OW11333   7.951   2.030  14.616
36520SOL    HW111334   7.885   1.961  14.613
36520SOL    HW211335   8.030   1.986  14.646
36521SOL     OW11336   0.319   4.162   2.471
36521SOL    HW111337   0.328   4.253   2.500
36521SOL    HW211338   0.226   4.143   2.479
36522SOL     OW11339  14.560   7.020   3.265
36522SOL    HW111340  14.471   6.984   3.266
36522SOL    HW211341  14.598   6.991   3.349
36523SOL     OW11342  10.623   0.717   1.248
36523SOL    HW111343  10.647   0.699   1.339
36523SOL    HW211344  10.576   0.638   1.220
36524SOL     OW11345  10.278   7.434   5.931
36524SOL    HW111346  10.252   7.507   5.875
36524SOL    HW211347  10.368   7.414   5.904
36525SOL     OW11348   1.352   2.289   8.219
36525SOL    HW111349   1.425   2.238   8.183
36525SOL    HW211350   1.366   2.289   8.313
36526SOL     OW11351   3.587  12.201  13.219
36526SOL    HW111352   3.648  12.129  13.207
36526SOL    HW211353   3.563  12.198  13.312
36527SOL     OW11354  12.351   5.080   8.486
36527SOL    HW111355  12.397   5.003   8.454
36527SOL    HW211356  12.413   5.152   8.474
36528SOL     OW11357  14.719   0.640   6.901
36528SOL    HW111358  14.628   0.612   6.909
36528SOL    HW211359  14.714   0.725   6.857
36529SOL     OW11360   5.767   7.680   7.640
36529SOL    HW111361   5.761   7.601   7.694
36529SOL    HW211362   5.837   7.732   7.681
36530SOL     OW11363   0.413   2.267   2.061
36530SOL    HW111364   0.335   2.317   2.037
36530SOL    HW211365   0.452   2.240   1.978
36531SOL     OW11366   9.385   7.511   9.486
36531SOL    HW111367   9.418   7.441   9.430
36531SOL    HW211368   9.414   7.592   9.443
36532SOL     OW11369   9.313  12.043   9.145
36532SOL    HW111370   9.395  12.088   9.128
36532SOL    HW211371   9.285  12.075   9.231
36533SOL     OW11372  10.981  10.790   5.487
36533SOL    HW111373  10.998  10.766   5.396
36533SOL    HW211374  10.993  10.709   5.536
36534SOL     OW11375   6.190   7.448  10.137
36534SOL    HW111376   6.205   7.402  10.219
36534SOL    HW211377   6.265   7.507  10.128
36535SOL     OW11378   3.909  14.195   8.267
36535SOL    HW111379   3.881  14.130   8.202
36535SOL    HW211380   3.992  14.227   8.234
36536SOL     OW11381  14.853   2.813  11.085
36536SOL    HW111382   0.038   2.868  11.132
36536SOL    HW211383  14.861   2.841  10.994
36537SOL     OW11384   0.818   1.819   4.947
36537SOL    HW111385   0.905   1.849   4.972
36537SOL    HW211386   0.761   1.850   5.016
36538SOL     OW11387   7.311  12.693  12.255
36538SOL    HW111388   7.330  12.735  12.171
36538SOL    HW211389   7.353  12.749  12.320
36539SOL     OW11390   0.109   8.857  13.023
36539SOL    HW111391   0.129   8.763  13.024
36539SOL    HW211392   0.170   8.894  12.960
36540SOL     OW11393   8.641   4.123   3.787
36540SOL    HW111394   8.718   4.179   3.781
36540SOL    HW211395   8.596   4.154   3.866
36541SOL     OW11396  13.273   7.608   1.613
36541SOL    HW111397  13.261   7.616   1.707
36541SOL    HW211398  13.195   7.563   1.581
36542SOL     OW11399   2.404  12.509  13.470
36542SOL    HW111400   2.439  12.572  13.406
36542SOL    HW211401   2.472  12.441  13.476
36543SOL     OW11402   5.659  14.814  10.175
36543SOL    HW111403   5.727  14.834  10.111
36543SOL    HW211404   5.577  14.823  10.128
36544SOL     OW11405  11.881   5.102   9.401
36544SOL    HW111406  11.841   5.027   9.446
36544SOL    HW211407  11.868   5.083   9.308
36545SOL     OW11408   4.573  13.351   6.866
36545SOL    HW111409   4.658  13.333   6.828
36545SOL    HW211410   4.529  13.266   6.870
36546SOL     OW11411  14.697   2.850  13.251
36546SOL    HW111412  14.638   2.776  13.262
36546SOL    HW211413  14.671   2.912  13.319
36547SOL     OW11414  11.406  12.604   3.529
36547SOL    HW111415  11.431  12.697   3.526
36547SOL    HW211416  11.320  12.605   3.572
36548SOL     OW11417  14.823   0.530  10.632
36548SOL    HW111418  14.730   0.535  10.613
36548SOL    HW211419  14.828   0.493  10.721
36549SOL     OW11420  13.164  10.246   7.872
36549SOL    HW111421  13.071  10.223   7.873
36549SOL    HW211422  13.169  10.330   7.917
36550SOL     OW11423   2.489   7.926   1.076
36550SOL    HW111424   2.535   7.947   0.995
36550SOL    HW211425   2.557   7.927   1.143
36551SOL     OW11426  12.842  11.306  12.795
36551SOL    HW111427  12.766  11.263  12.754
36551SOL    HW211428  12.910  11.238  12.795
36552SOL     OW11429   4.269  13.184  10.991
36552SOL    HW111430   4.186  13.208  11.033
36552SOL    HW211431   4.312  13.268  10.974
36553SOL     OW11432   8.548  11.242   2.927
36553SOL    HW111433   8.537  11.199   3.012
36553SOL    HW211434   8.459  11.262   2.898
36554SOL     OW11435   6.080   6.067   2.618
36554SOL    HW111436   6.015   6.115   2.669
36554SOL    HW211437   6.028   6.001   2.571
36555SOL     OW11438   2.735  13.147  12.197
36555SOL    HW111439   2.750  13.111  12.284
36555SOL    HW211440   2.704  13.236  12.212
36556SOL     OW11441   1.280   5.668   3.454
36556SOL    HW111442   1.333   5.668   3.533
36556SOL    HW211443   1.235   5.583   3.454
36557SOL     OW11444   2.308   9.147   6.719
36557SOL    HW111445   2.336   9.232   6.685
36557SOL    HW211446   2.296   9.093   6.641
36558SOL     OW11447  14.260   6.705   2.672
36558SOL    HW111448  14.311   6.629   2.645
36558SOL    HW211449  14.305   6.780   2.632
36559SOL     OW11450  11.097   7.130  13.169
36559SOL    HW111451  11.053   7.051  13.202
36559SOL    HW211452  11.064   7.201  13.224
36560SOL     OW11453  11.340  12.831   2.368
36560SOL    HW111454  11.385  12.768   2.423
36560SOL    HW211455  11.369  12.916   2.401
36561SOL     OW11456   5.938   1.567   7.037
36561SOL    HW111457   5.911   1.575   6.945
36561SOL    HW211458   5.880   1.500   7.073
36562SOL     OW11459   5.982   3.093   4.983
36562SOL    HW111460   5.971   3.013   5.035
36562SOL    HW211461   5.912   3.089   4.918
36563SOL     OW11462  10.104   7.134   9.388
36563SOL    HW111463  10.039   7.168   9.326
36563SOL    HW211464  10.105   7.198   9.460
36564SOL     OW11465   0.926  10.152   7.050
36564SOL    HW111466   0.987  10.212   7.094
36564SOL    HW211467   0.917  10.188   6.962
36565SOL     OW11468  13.280   0.051   4.808
36565SOL    HW111469  13.225   0.017   4.879
36565SOL    HW211470  13.321   0.129   4.844
36566SOL     OW11471   8.247   7.451  10.929
36566SOL    HW111472   8.334   7.485  10.948
36566SOL    HW211473   8.224   7.488  10.845
36567SOL     OW11474  10.047   5.772  10.925
36567SOL    HW111475  10.011   5.690  10.958
36567SOL    HW211476  10.087   5.813  11.002
36568SOL     OW11477   5.292   4.926   5.556
36568SOL    HW111478   5.296   4.994   5.489
36568SOL    HW211479   5.257   4.972   5.633
36569SOL     OW11480   0.200   7.218  14.813
36569SOL    HW111481   0.194   7.196  14.720
36569SOL    HW211482   0.109   7.235  14.839
36570SOL     OW11483  13.316   6.657   3.757
36570SOL    HW111484  13.286   6.581   3.707
36570SOL    HW211485  13.398   6.683   3.714
36571SOL     OW11486   1.142   8.223   8.853
36571SOL    HW111487   1.192   8.301   8.832
36571SOL    HW211488   1.076   8.218   8.784
36572SOL     OW11489   0.420   4.101   1.101
36572SOL    HW111490   0.418   4.094   1.006
36572SOL    HW211491   0.507   4.135   1.121
36573SOL     OW11492   9.563   6.064  13.224
36573SOL    HW111493   9.553   5.989  13.165
36573SOL    HW211494   9.513   6.134  13.182
36574SOL     OW11495   4.618   5.501   0.132
36574SOL    HW111496   4.559   5.530   0.201
36574SOL    HW211497   4.701   5.485   0.176
36575SOL     OW11498   1.148   7.174  11.658
36575SOL    HW111499   1.158   7.204  11.748
36575SOL    HW211500   1.112   7.085  11.666
36576SOL     OW11501  10.099  12.908  13.593
36576SOL    HW111502  10.187  12.926  13.627
36576SOL    HW211503  10.114  12.852  13.517
36577SOL     OW11504  10.483  10.190   3.845
36577SOL    HW111505  10.461  10.274   3.806
36577SOL    HW211506  10.462  10.126   3.777
36578SOL     OW11507  10.195  11.992  14.366
36578SOL    HW111508  10.284  12.025  14.376
36578SOL    HW211509  10.148  12.064  14.323
36579SOL     OW11510   3.092   2.390   6.755
36579SOL    HW111511   3.116   2.450   6.684
36579SOL    HW211512   3.008   2.423   6.787
36580SOL     OW11513   3.282   7.088   1.169
36580SOL    HW111514   3.367   7.109   1.209
36580SOL    HW211515   3.221   7.085   1.242
36581SOL     OW11516   2.878   6.939   6.800
36581SOL    HW111517   2.903   6.855   6.763
36581SOL    HW211518   2.826   6.917   6.878
36582SOL     OW11519   3.426   1.940  11.765
36582SOL    HW111520   3.461   1.961  11.851
36582SOL    HW211521   3.501   1.906  11.716
36583SOL     OW11522   6.271   7.914   4.621
36583SOL    HW111523   6.275   7.982   4.688
36583SOL    HW211524   6.335   7.849   4.649
36584SOL     OW11525   7.318   1.266   7.760
36584SOL    HW111526   7.282   1.186   7.722
36584SOL    HW211527   7.248   1.300   7.817
36585SOL     OW11528   2.360  11.795   7.441
36585SOL    HW111529   2.358  11.871   7.498
36585SOL    HW211530   2.409  11.824   7.364
36586SOL     OW11531   3.602  14.441   6.002
36586SOL    HW111532   3.638  14.352   5.998
36586SOL    HW211533   3.676  14.495   6.030
36587SOL     OW11534   2.568  11.600   1.102
36587SOL    HW111535   2.569  11.507   1.126
36587SOL    HW211536   2.520  11.642   1.173
36588SOL     OW11537  11.788   6.384   6.677
36588SOL    HW111538  11.832   6.373   6.592
36588SOL    HW211539  11.831   6.320   6.734
36589SOL     OW11540   9.298   8.640  14.646
36589SOL    HW111541   9.270   8.581  14.576
36589SOL    HW211542   9.361   8.589  14.696
36590SOL     OW11543   0.574   0.080  10.431
36590SOL    HW111544   0.613   0.158  10.471
36590SOL    HW211545   0.648   0.021  10.417
36591SOL     OW11546   9.711   4.090   3.681
36591SOL    HW111547   9.676   4.179   3.672
36591SOL    HW211548   9.645   4.034   3.639
36592SOL     OW11549   4.552   7.193   1.980
36592SOL    HW111550   4.575   7.108   1.944
36592SOL    HW211551   4.536   7.248   1.903
36593SOL     OW11552   7.977   4.430   8.782
36593SOL    HW111553   7.949   4.521   8.788
36593SOL    HW211554   7.975   4.397   8.872
36594SOL     OW11555   4.859  10.210   6.651
36594SOL    HW111556   4.819  10.280   6.702
36594SOL    HW211557   4.800  10.197   6.577
36595SOL     OW11558   1.766   2.011  14.697
36595SOL    HW111559   1.712   2.090  14.691
36595SOL    HW211560   1.831   2.021  14.628
36596SOL     OW11561   2.109   7.268   7.793
36596SOL    HW111562   2.135   7.356   7.820
36596SOL    HW211563   2.192   7.225   7.771
36597SOL     OW11564   6.840   8.441   8.121
36597SOL    HW111565   6.847   8.507   8.052
36597SOL    HW211566   6.883   8.480   8.197
36598SOL     OW11567  14.421   4.031  14.173
36598SOL    HW111568  14.344   3.974  14.176
36598SOL    HW211569  14.419   4.069  14.085
36599SOL     OW11570   9.729  11.903   3.603
36599SOL    HW111571   9.802  11.965   3.591
36599SOL    HW211572   9.704  11.877   3.515
36600SOL     OW11573  13.421   3.912  11.244
36600SOL    HW111574  13.345   3.970  11.244
36600SOL    HW211575  13.494   3.969  11.268
36601SOL     OW11576   6.836  14.173  12.975
36601SOL    HW111577   6.774  14.103  12.958
36601SOL    HW211578   6.879  14.189  12.891
36602SOL     OW11579  13.759   6.762   6.049
36602SOL    HW111580  13.789   6.820   6.119
36602SOL    HW211581  13.839   6.719   6.018
36603SOL     OW11582   1.815   5.388   1.122
36603SOL    HW111583   1.766   5.366   1.044
36603SOL    HW211584   1.752   5.380   1.194
36604SOL     OW11585   1.347   1.444   2.374
36604SOL    HW111586   1.331   1.486   2.458
36604SOL    HW211587   1.333   1.351   2.390
36605SOL     OW11588  11.950  14.344   8.215
36605SOL    HW111589  11.980  14.337   8.306
36605SOL    HW211590  12.026  14.320   8.162
36606SOL     OW11591   6.771  13.676   0.241
36606SOL    HW111592   6.756  13.726   0.161
36606SOL    HW211593   6.720  13.722   0.308
36607SOL     OW11594   4.953   7.029  14.293
36607SOL    HW111595   4.959   6.933  14.299
36607SOL    HW211596   4.866   7.049  14.329
36608SOL     OW11597   3.223   7.420   7.731
36608SOL    HW111598   3.280   7.443   7.658
36608SOL    HW211599   3.149   7.375   7.690
36609SOL     OW11600  14.482   1.893  11.765
36609SOL    HW111601  14.401   1.885  11.716
36609SOL    HW211602  14.457   1.939  11.846
36610SOL     OW11603   5.854   8.779   4.958
36610SOL    HW111604   5.831   8.788   5.050
36610SOL    HW211605   5.950   8.777   4.958
36611SOL     OW11606   0.002  12.882   5.977
36611SOL    HW111607   0.022  12.923   5.893
36611SOL    HW211608  14.831  12.949   6.025
36612SOL     OW11609  10.670   7.522   9.048
36612SOL    HW111610  10.721   7.579   9.107
36612SOL    HW211611  10.620   7.466   9.106
36613SOL     OW11612   4.062   5.039   9.336
36613SOL    HW111613   4.128   5.061   9.401
36613SOL    HW211614   4.099   4.966   9.287
36614SOL     OW11615   9.612  14.355   0.574
36614SOL    HW111616   9.537  14.413   0.588
36614SOL    HW211617   9.601  14.322   0.485
36615SOL     OW11618   8.361   9.554   9.199
36615SOL    HW111619   8.387   9.553   9.107
36615SOL    HW211620   8.381   9.643   9.228
36616SOL     OW11621   5.204   4.694   9.247
36616SOL    HW111622   5.253   4.614   9.269
36616SOL    HW211623   5.116   4.678   9.279
36617SOL     OW11624  13.312  12.043   9.861
36617SOL    HW111625  13.298  12.130   9.898
36617SOL    HW211626  13.255  12.040   9.784
36618SOL     OW11627   3.834  10.349  14.438
36618SOL    HW111628   3.744  10.348  14.406
36618SOL    HW211629   3.887  10.369  14.360
36619SOL     OW11630   4.895  11.865   3.008
36619SOL    HW111631   4.866  11.837   2.922
36619SOL    HW211632   4.891  11.786   3.062
36620SOL     OW11633  11.217   3.811   5.126
36620SOL    HW111634  11.246   3.876   5.062
36620SOL    HW211635  11.176   3.743   5.074
36621SOL     OW11636  12.273  12.806   5.915
36621SOL    HW111637  12.298  12.776   6.002
36621SOL    HW211638  12.244  12.897   5.928
36622SOL     OW11639  14.312   8.735  10.184
36622SOL    HW111640  14.254   8.752  10.259
36622SOL    HW211641  14.399   8.762  10.215
36623SOL     OW11642  10.535  10.288   4.944
36623SOL    HW111643  10.573  10.206   4.912
36623SOL    HW211644  10.460  10.261   4.996
36624SOL     OW11645  12.942   4.019   0.308
36624SOL    HW111646  12.917   4.030   0.217
36624SOL    HW211647  12.918   4.101   0.351
36625SOL     OW11648   6.938  13.128  12.394
36625SOL    HW111649   6.843  13.139  12.397
36625SOL    HW211650   6.962  13.111  12.485
36626SOL     OW11651  10.962   4.053   5.360
36626SOL    HW111652  10.945   4.081   5.450
36626SOL    HW211653  10.948   3.958   5.360
36627SOL     OW11654   8.143   5.476   8.295
36627SOL    HW111655   8.068   5.519   8.336
36627SOL    HW211656   8.158   5.526   8.214
36628SOL     OW11657   6.728   3.533  11.283
36628SOL    HW111658   6.665   3.545  11.213
36628SOL    HW211659   6.813   3.528  11.238
36629SOL     OW11660  14.616  12.464   3.082
36629SOL    HW111661  14.696  12.417   3.058
36629SOL    HW211662  14.633  12.497   3.170
36630SOL     OW11663   7.881   0.902   1.295
36630SOL    HW111664   7.964   0.862   1.269
36630SOL    HW211665   7.907   0.984   1.338
36631SOL     OW11666  14.804   3.285   4.683
36631SOL    HW111667  14.756   3.216   4.730
36631SOL    HW211668  14.793   3.362   4.738
36632SOL     OW11669  10.786  14.634  12.257
36632SOL    HW111670  10.825  14.603  12.175
36632SOL    HW211671  10.727  14.564  12.284
36633SOL     OW11672   4.484   4.770   6.597
36633SOL    HW111673   4.549   4.827   6.636
36633SOL    HW211674   4.504   4.771   6.503
36634SOL     OW11675   6.756   3.911   8.442
36634SOL    HW111676   6.802   3.843   8.490
36634SOL    HW211677   6.810   3.926   8.364
36635SOL     OW11678   7.306   6.746   5.230
36635SOL    HW111679   7.394   6.753   5.265
36635SOL    HW211680   7.313   6.686   5.156
36636SOL     OW11681   5.400  10.890   6.200
36636SOL    HW111682   5.403  10.978   6.164
36636SOL    HW211683   5.322  10.888   6.255
36637SOL     OW11684   8.525   4.338   9.252
36637SOL    HW111685   8.515   4.304   9.163
36637SOL    HW211686   8.579   4.417   9.240
36638SOL     OW11687   5.508  11.755   5.514
36638SOL    HW111688   5.512  11.707   5.596
36638SOL    HW211689   5.422  11.734   5.477
36639SOL     OW11690   2.272   7.903   4.879
36639SOL    HW111691   2.201   7.966   4.868
36639SOL    HW211692   2.245   7.826   4.829
36640SOL     OW11693   6.965   7.807   0.622
36640SOL    HW111694   6.899   7.739   0.609
36640SOL    HW211695   6.919   7.889   0.609
36641SOL     OW11696   3.496   1.806  13.872
36641SOL    HW111697   3.577   1.780  13.915
36641SOL    HW211698   3.523   1.835  13.785
36642SOL     OW11699   6.786   5.662   9.163
36642SOL    HW111700   6.752   5.650   9.074
36642SOL    HW211701   6.759   5.751   9.187
36643SOL     OW11702   6.332   2.930   1.309
36643SOL    HW111703   6.320   2.843   1.272
36643SOL    HW211704   6.259   2.981   1.272
36644SOL     OW11705   6.544   7.533  12.612
36644SOL    HW111706   6.563   7.521  12.705
36644SOL    HW211707   6.507   7.621  12.606
36645SOL     OW11708   4.340   5.428  10.945
36645SOL    HW111709   4.413   5.385  10.901
36645SOL    HW211710   4.369   5.519  10.955
36646SOL     OW11711  10.704   2.632   2.409
36646SOL    HW111712  10.651   2.695   2.361
36646SOL    HW211713  10.702   2.553   2.354
36647SOL     OW11714   4.610   0.867   6.746
36647SOL    HW111715   4.550   0.829   6.810
36647SOL    HW211716   4.559   0.937   6.704
36648SOL     OW11717   2.800   0.689  10.746
36648SOL    HW111718   2.823   0.730  10.662
36648SOL    HW211719   2.762   0.761  10.797
36649SOL     OW11720   5.595   1.931  12.759
36649SOL    HW111721   5.634   1.997  12.703
36649SOL    HW211722   5.656   1.923  12.833
36650SOL     OW11723  11.117   3.990   3.627
36650SOL    HW111724  11.108   4.007   3.534
36650SOL    HW211725  11.137   4.075   3.666
36651SOL     OW11726   5.241   5.131   3.009
36651SOL    HW111727   5.178   5.108   2.941
36651SOL    HW211728   5.326   5.127   2.965
36652SOL     OW11729  13.619   6.979  12.103
36652SOL    HW111730  13.636   7.054  12.160
36652SOL    HW211731  13.549   7.008  12.045
36653SOL     OW11732   8.807  14.282  13.559
36653SOL    HW111733   8.864  14.279  13.635
36653SOL    HW211734   8.756  14.200  13.563
36654SOL     OW11735   4.790  11.749  14.542
36654SOL    HW111736   4.736  11.724  14.617
36654SOL    HW211737   4.773  11.842  14.530
36655SOL     OW11738  13.807   5.402  13.902
36655SOL    HW111739  13.873   5.332  13.911
36655SOL    HW211740  13.804   5.419  13.808
36656SOL     OW11741   2.972  10.366   9.580
36656SOL    HW111742   2.980  10.334   9.490
36656SOL    HW211743   2.944  10.457   9.571
36657SOL     OW11744   6.202  12.280   7.129
36657SOL    HW111745   6.141  12.240   7.191
36657SOL    HW211746   6.285  12.235   7.144
36658SOL     OW11747   1.538   3.876  13.797
36658SOL    HW111748   1.558   3.822  13.874
36658SOL    HW211749   1.556   3.966  13.825
36659SOL     OW11750   1.570   7.956   7.226
36659SOL    HW111751   1.523   7.881   7.262
36659SOL    HW211752   1.556   8.026   7.289
36660SOL     OW11753   8.883   2.846   7.154
36660SOL    HW111754   8.873   2.937   7.125
36660SOL    HW211755   8.821   2.838   7.227
36661SOL     OW11756   6.343   2.021   6.743
36661SOL    HW111757   6.251   2.007   6.767
36661SOL    HW211758   6.391   2.003   6.824
36662SOL     OW11759   1.816   3.615   6.224
36662SOL    HW111760   1.726   3.641   6.243
36662SOL    HW211761   1.841   3.667   6.147
36663SOL     OW11762  13.152  10.699   1.182
36663SOL    HW111763  13.109  10.728   1.262
36663SOL    HW211764  13.185  10.611   1.203
36664SOL     OW11765  12.741  13.678  11.770
36664SOL    HW111766  12.735  13.633  11.855
36664SOL    HW211767  12.707  13.766  11.787
36665SOL     OW11768  11.846   1.284  13.327
36665SOL    HW111769  11.912   1.290  13.396
36665SOL    HW211770  11.821   1.191  13.325
36666SOL     OW11771  14.039  14.640  12.892
36666SOL    HW111772  14.103  14.666  12.957
36666SOL    HW211773  13.954  14.663  12.931
36667SOL     OW11774   3.496   9.078  10.904
36667SOL    HW111775   3.440   9.155  10.890
36667SOL    HW211776   3.435   9.006  10.918
36668SOL     OW11777  12.999   5.548  10.437
36668SOL    HW111778  13.003   5.454  10.454
36668SOL    HW211779  13.070   5.565  10.376
36669SOL     OW11780   4.223  13.470   4.059
36669SOL    HW111781   4.135  13.500   4.083
36669SOL    HW211782   4.282  13.532   4.102
36670SOL     OW11783   5.950   5.552  12.439
36670SOL    HW111784   5.990   5.634  12.409
36670SOL    HW211785   5.949   5.496  12.361
36671SOL     OW11786  11.092   1.781   3.489
36671SOL    HW111787  11.115   1.712   3.426
36671SOL    HW211788  11.145   1.856   3.462
36672SOL     OW11789  14.812   2.826   3.524
36672SOL    HW111790  14.854   2.755   3.475
36672SOL    HW211791  14.723   2.829   3.490
36673SOL     OW11792  11.269   1.131  12.817
36673SOL    HW111793  11.347   1.129  12.763
36673SOL    HW211794  11.197   1.143  12.755
36674SOL     OW11795  11.968   3.156   3.082
36674SOL    HW111796  11.881   3.124   3.058
36674SOL    HW211797  11.952   3.231   3.139
36675SOL     OW11798   5.051   2.069   0.100
36675SOL    HW111799   5.081   2.115   0.178
36675SOL    HW211800   5.108   1.992   0.095
36676SOL     OW11801   4.500   4.795  13.545
36676SOL    HW111802   4.411   4.804  13.512
36676SOL    HW211803   4.539   4.728  13.488
36677SOL     OW11804  10.476  13.023   6.198
36677SOL    HW111805  10.381  13.017   6.210
36677SOL    HW211806  10.489  13.012   6.104
36678SOL     OW11807  10.723  10.092   4.665
36678SOL    HW111808  10.808  10.134   4.676
36678SOL    HW211809  10.688  10.084   4.754
36679SOL     OW11810  14.016   8.577   0.459
36679SOL    HW111811  13.927   8.573   0.423
36679SOL    HW211812  14.048   8.664   0.433
36680SOL     OW11813  12.697   6.060   4.789
36680SOL    HW111814  12.685   5.967   4.811
36680SOL    HW211815  12.717   6.102   4.873
36681SOL     OW11816   1.474  11.071   7.335
36681SOL    HW111817   1.420  11.134   7.383
36681SOL    HW211818   1.469  11.100   7.244
36682SOL     OW11819   7.298   9.557  13.303
36682SOL    HW111820   7.322   9.510  13.383
36682SOL    HW211821   7.206   9.579  13.315
36683SOL     OW11822   3.005   5.976   4.745
36683SOL    HW111823   2.966   5.972   4.657
36683SOL    HW211824   2.991   6.066   4.773
36684SOL     OW11825   6.779   4.829  12.579
36684SOL    HW111826   6.732   4.782  12.647
36684SOL    HW211827   6.832   4.894  12.626
36685SOL     OW11828   9.246   3.164  12.655
36685SOL    HW111829   9.329   3.117  12.651
36685SOL    HW211830   9.180   3.100  12.626
36686SOL     OW11831   4.734  14.864   0.102
36686SOL    HW111832   4.653  14.848   0.053
36686SOL    HW211833   4.726   0.076   0.132
36687SOL     OW11834   8.917   4.148   4.052
36687SOL    HW111835   8.887   4.156   3.961
36687SOL    HW211836   8.971   4.069   4.052
36688SOL     OW11837   3.757   9.717  10.399
36688SOL    HW111838   3.766   9.670  10.482
36688SOL    HW211839   3.847   9.733  10.371
36689SOL     OW11840   9.083   4.191   5.978
36689SOL    HW111841   9.178   4.205   5.975
36689SOL    HW211842   9.052   4.251   6.046
36690SOL     OW11843   8.775   2.233   9.876
36690SOL    HW111844   8.730   2.209   9.795
36690SOL    HW211845   8.859   2.268   9.848
36691SOL     OW11846   8.115   6.623   9.573
36691SOL    HW111847   8.090   6.673   9.495
36691SOL    HW211848   8.204   6.653   9.592
36692SOL     OW11849   8.464  12.532   9.092
36692SOL    HW111850   8.437  12.472   9.024
36692SOL    HW211851   8.466  12.479   9.172
36693SOL     OW11852  12.297   5.337   1.600
36693SOL    HW111853  12.243   5.259   1.590
36693SOL    HW211854  12.244   5.396   1.653
36694SOL     OW11855   7.587   5.485  11.062
36694SOL    HW111856   7.504   5.472  11.017
36694SOL    HW211857   7.601   5.405  11.113
36695SOL     OW11858  10.128   5.821  10.680
36695SOL    HW111859  10.181   5.899  10.693
36695SOL    HW211860  10.102   5.794  10.768
36696SOL     OW11861   7.459  11.002  14.652
36696SOL    HW111862   7.504  10.931  14.606
36696SOL    HW211863   7.529  11.063  14.676
36697SOL     OW11864   4.995  13.798   4.453
36697SOL    HW111865   5.051  13.786   4.376
36697SOL    HW211866   5.017  13.725   4.511
36698SOL     OW11867  10.259   9.759  12.956
36698SOL    HW111868  10.203   9.828  12.991
36698SOL    HW211869  10.259   9.691  13.023
36699SOL     OW11870  12.248  10.206   7.704
36699SOL    HW111871  12.285  10.292   7.724
36699SOL    HW211872  12.258  10.197   7.609
36700SOL     OW11873   5.842  13.488   7.651
36700SOL    HW111874   5.751  13.460   7.639
36700SOL    HW211875   5.885  13.414   7.695
36701SOL     OW11876   4.907   5.495  10.418
36701SOL    HW111877   4.970   5.497  10.490
36701SOL    HW211878   4.958   5.470  10.342
36702SOL     OW11879   9.640   0.347  12.796
36702SOL    HW111880   9.691   0.266  12.801
36702SOL    HW211881   9.604   0.347  12.707
36703SOL     OW11882   3.241  14.555   7.965
36703SOL    HW111883   3.301  14.485   7.992
36703SOL    HW211884   3.160  14.510   7.943
36704SOL     OW11885  12.895   3.634   2.049
36704SOL    HW111886  12.991   3.638   2.047
36704SOL    HW211887  12.868   3.726   2.058
36705SOL     OW11888  11.718  12.514   1.874
36705SOL    HW111889  11.704  12.431   1.919
36705SOL    HW211890  11.731  12.578   1.945
36706SOL     OW11891  13.971  12.360   3.564
36706SOL    HW111892  14.007  12.417   3.632
36706SOL    HW211893  14.030  12.372   3.489
36707SOL     OW11894   7.879   7.455  13.680
36707SOL    HW111895   7.819   7.487  13.747
36707SOL    HW211896   7.823   7.408  13.619
36708SOL     OW11897   7.668   9.469   6.647
36708SOL    HW111898   7.701   9.388   6.607
36708SOL    HW211899   7.720   9.479   6.726
36709SOL     OW11900  12.829   5.253  11.430
36709SOL    HW111901  12.745   5.259  11.476
36709SOL    HW211902  12.867   5.340  11.439
36710SOL     OW11903   5.420  12.104   3.186
36710SOL    HW111904   5.485  12.085   3.118
36710SOL    HW211905   5.445  12.048   3.259
36711SOL     OW11906   4.747   6.162  11.793
36711SOL    HW111907   4.721   6.243  11.749
36711SOL    HW211908   4.667   6.131  11.836
36712SOL     OW11909   2.931   1.053   0.522
36712SOL    HW111910   2.916   1.144   0.496
36712SOL    HW211911   2.883   1.044   0.605
36713SOL     OW11912   8.215   7.180   7.469
36713SOL    HW111913   8.120   7.176   7.482
36713SOL    HW211914   8.233   7.111   7.405
36714SOL     OW11915  12.664   9.402  13.596
36714SOL    HW111916  12.700   9.314  13.593
36714SOL    HW211917  12.719   9.453  13.536
36715SOL     OW11918   2.757   7.329   4.840
36715SOL    HW111919   2.734   7.289   4.757
36715SOL    HW211920   2.715   7.274   4.906
36716SOL     OW11921   5.096  10.150   4.434
36716SOL    HW111922   5.030  10.080   4.424
36716SOL    HW211923   5.179  10.103   4.443
36717SOL     OW11924  14.260   0.632   6.579
36717SOL    HW111925  14.184   0.631   6.638
36717SOL    HW211926  14.269   0.542   6.550
36718SOL     OW11927  13.199   3.857   9.628
36718SOL    HW111928  13.141   3.906   9.570
36718SOL    HW211929  13.141   3.819   9.693
36719SOL     OW11930  13.333  14.386   4.766
36719SOL    HW111931  13.348  14.481   4.772
36719SOL    HW211932  13.397  14.356   4.702
36720SOL     OW11933  11.917  13.105   3.241
36720SOL    HW111934  11.979  13.177   3.229
36720SOL    HW211935  11.947  13.038   3.180
36721SOL     OW11936   6.543  13.053   7.554
36721SOL    HW111937   6.543  13.024   7.463
36721SOL    HW211938   6.614  13.117   7.558
36722SOL     OW11939  11.428   2.205   3.768
36722SOL    HW111940  11.339   2.170   3.765
36722SOL    HW211941  11.447   2.215   3.861
36723SOL     OW11942   7.808   0.054  13.255
36723SOL    HW111943   7.729   0.109  13.256
36723SOL    HW211944   7.880   0.116  13.252
36724SOL     OW11945   0.722  12.002  11.147
36724SOL    HW111946   0.709  11.994  11.241
36724SOL    HW211947   0.707  11.914  11.112
36725SOL     OW11948   1.596  12.693   7.378
36725SOL    HW111949   1.523  12.755   7.385
36725SOL    HW211950   1.660  12.737   7.322
36726SOL     OW11951   3.638   0.291   4.382
36726SOL    HW111952   3.727   0.304   4.415
36726SOL    HW211953   3.618   0.372   4.335
36727SOL     OW11954   7.877  12.726   7.084
36727SOL    HW111955   7.910  12.693   7.168
36727SOL    HW211956   7.918  12.812   7.075
36728SOL     OW11957  13.361   8.180  13.416
36728SOL    HW111958  13.433   8.169  13.354
36728SOL    HW211959  13.404   8.191  13.501
36729SOL     OW11960  14.429  11.371   4.019
36729SOL    HW111961  14.438  11.379   3.924
36729SOL    HW211962  14.379  11.290   4.032
36730SOL     OW11963  11.171   8.474   2.738
36730SOL    HW111964  11.109   8.476   2.811
36730SOL    HW211965  11.252   8.510   2.774
36731SOL     OW11966   1.703  10.001   3.905
36731SOL    HW111967   1.784  10.011   3.954
36731SOL    HW211968   1.634  10.011   3.970
36732SOL     OW11969   9.117  14.207   9.867
36732SOL    HW111970   9.189  14.160   9.827
36732SOL    HW211971   9.086  14.150   9.938
36733SOL     OW11972   8.055  12.967   5.700
36733SOL    HW111973   8.003  12.914   5.639
36733SOL    HW211974   8.001  12.973   5.779
36734SOL     OW11975   9.850  11.884   9.908
36734SOL    HW111976   9.907  11.901   9.832
36734SOL    HW211977   9.787  11.956   9.906
36735SOL     OW11978   6.940   4.390   2.657
36735SOL    HW111979   6.935   4.470   2.709
36735SOL    HW211980   6.870   4.399   2.593
36736SOL     OW11981   2.593   9.987  10.387
36736SOL    HW111982   2.625  10.077  10.396
36736SOL    HW211983   2.520   9.981  10.448
36737SOL     OW11984   2.351   0.051   4.960
36737SOL    HW111985   2.320   0.100   5.035
36737SOL    HW211986   2.428   0.004   4.992
36738SOL     OW11987  14.175  10.925   3.063
36738SOL    HW111988  14.182  10.885   3.149
36738SOL    HW211989  14.256  10.901   3.018
36739SOL     OW11990   3.559   4.697  13.209
36739SOL    HW111991   3.631   4.641  13.178
36739SOL    HW211992   3.552   4.765  13.142
36740SOL     OW11993  11.747   0.715   6.963
36740SOL    HW111994  11.700   0.655   6.905
36740SOL    HW211995  11.757   0.667   7.045
36741SOL     OW11996   5.566   9.461   9.368
36741SOL    HW111997   5.600   9.471   9.279
36741SOL    HW211998   5.612   9.386   9.403
36742SOL     OW11999   0.924   5.566  10.721
36742SOL    HW112000   0.976   5.584  10.799
36742SOL    HW212001   0.904   5.652  10.684
36743SOL     OW12002  11.277   2.915   6.060
36743SOL    HW112003  11.284   2.828   6.021
36743SOL    HW212004  11.298   2.975   5.989
36744SOL     OW12005  13.670   8.946  11.775
36744SOL    HW112006  13.693   8.854  11.789
36744SOL    HW212007  13.680   8.959  11.681
36745SOL     OW12008   6.484  14.638  12.805
36745SOL    HW112009   6.540  14.702  12.849
36745SOL    HW212010   6.395  14.673  12.816
36746SOL     OW12011   3.966   8.461   6.408
36746SOL    HW112012   3.909   8.537   6.417
36746SOL    HW212013   3.923   8.393   6.459
36747SOL     OW12014   8.904  14.334  12.072
36747SOL    HW112015   8.937  14.381  12.149
36747SOL    HW212016   8.813  14.361  12.064
36748SOL     OW12017  14.489   5.225   6.790
36748SOL    HW112018  14.430   5.221   6.715
36748SOL    HW212019  14.463   5.151   6.845
36749SOL     OW12020  12.182  11.725  12.402
36749SOL    HW112021  12.166  11.793  12.336
36749SOL    HW212022  12.278  11.720  12.408
36750SOL     OW12023   7.597   8.698   1.830
36750SOL    HW112024   7.640   8.746   1.759
36750SOL    HW212025   7.652   8.620   1.843
36751SOL     OW12026   1.011   5.979  11.432
36751SOL    HW112027   0.920   5.997  11.457
36751SOL    HW212028   1.063   6.028  11.496
36752SOL     OW12029  13.520   4.177  14.208
36752SOL    HW112030  13.468   4.216  14.279
36752SOL    HW212031  13.486   4.217  14.128
36753SOL     OW12032  12.906  10.612   8.226
36753SOL    HW112033  12.927  10.623   8.319
36753SOL    HW212034  12.822  10.656   8.215
36754SOL     OW12035   0.501  10.954   2.336
36754SOL    HW112036   0.424  10.948   2.280
36754SOL    HW212037   0.467  10.971   2.424
36755SOL     OW12038   9.430   5.791   3.671
36755SOL    HW112039   9.508   5.800   3.616
36755SOL    HW212040   9.370   5.859   3.638
36756SOL     OW12041   8.090   3.140  11.298
36756SOL    HW112042   8.019   3.205  11.300
36756SOL    HW212043   8.149   3.172  11.230
36757SOL     OW12044   5.983   6.378   7.098
36757SOL    HW112045   6.037   6.380   7.020
36757SOL    HW212046   5.893   6.378   7.066
36758SOL     OW12047   8.145   6.372   4.419
36758SOL    HW112048   8.073   6.347   4.477
36758SOL    HW212049   8.143   6.306   4.350
36759SOL     OW12050   9.025   3.695   4.041
36759SOL    HW112051   8.934   3.717   4.021
36759SOL    HW212052   9.048   3.627   3.977
36760SOL     OW12053  14.426  12.651  13.746
36760SOL    HW112054  14.509  12.657  13.792
36760SOL    HW212055  14.380  12.579  13.788
36761SOL     OW12056  12.076  11.017   9.591
36761SOL    HW112057  12.165  11.041   9.617
36761SOL    HW212058  12.024  11.032   9.669
36762SOL     OW12059   9.032  12.389   3.923
36762SOL    HW112060   8.991  12.456   3.979
36762SOL    HW212061   8.993  12.307   3.953
36763SOL     OW12062   5.719  12.092  12.888
36763SOL    HW112063   5.662  12.063  12.816
36763SOL    HW212064   5.678  12.057  12.967
36764SOL     OW12065  11.329   1.046   7.745
36764SOL    HW112066  11.376   1.128   7.760
36764SOL    HW212067  11.399   0.981   7.732
36765SOL     OW12068   6.976   4.374   5.882
36765SOL    HW112069   6.925   4.337   5.954
36765SOL    HW212070   7.044   4.426   5.925
36766SOL     OW12071   9.381   4.467   1.333
36766SOL    HW112072   9.318   4.408   1.374
36766SOL    HW212073   9.418   4.418   1.260
36767SOL     OW12074   2.871   8.825   4.499
36767SOL    HW112075   2.837   8.911   4.474
36767SOL    HW212076   2.934   8.842   4.568
36768SOL     OW12077  10.410   1.632   5.359
36768SOL    HW112078  10.445   1.713   5.323
36768SOL    HW212079  10.387   1.654   5.449
36769SOL     OW12080   6.008   8.300   9.479
36769SOL    HW112081   5.929   8.252   9.505
36769SOL    HW212082   6.061   8.236   9.433
36770SOL     OW12083  11.662  14.098   2.317
36770SOL    HW112084  11.629  14.188   2.317
36770SOL    HW212085  11.638  14.064   2.404
36771SOL     OW12086   8.890   2.011  13.301
36771SOL    HW112087   8.928   1.926  13.324
36771SOL    HW212088   8.838   1.995  13.222
36772SOL     OW12089   7.514   8.134  12.991
36772SOL    HW112090   7.462   8.092  12.922
36772SOL    HW212091   7.595   8.084  12.994
36773SOL     OW12092  12.755   4.167   2.572
36773SOL    HW112093  12.836   4.144   2.528
36773SOL    HW212094  12.775   4.247   2.620
36774SOL     OW12095  13.900   4.201  11.603
36774SOL    HW112096  13.832   4.213  11.537
36774SOL    HW212097  13.882   4.268  11.669
36775SOL     OW12098   0.719  13.560   9.589
36775SOL    HW112099   0.757  13.604   9.665
36775SOL    HW212100   0.636  13.525   9.620
36776SOL     OW12101   0.244   6.283  10.390
36776SOL    HW112102   0.204   6.325  10.314
36776SOL    HW212103   0.330   6.326  10.398
36777SOL     OW12104   1.674   1.619  10.480
36777SOL    HW112105   1.643   1.612  10.390
36777SOL    HW212106   1.600   1.657  10.528
36778SOL     OW12107   8.158  13.727   4.819
36778SOL    HW112108   8.075  13.699   4.780
36778SOL    HW212109   8.191  13.649   4.863
36779SOL     OW12110   9.049   6.796  12.026
36779SOL    HW112111   9.118   6.758  11.972
36779SOL    HW212112   8.973   6.801  11.967
36780SOL     OW12113  11.915  10.563   0.434
36780SOL    HW112114  11.916  10.515   0.351
36780SOL    HW212115  11.888  10.499   0.499
36781SOL     OW12116   7.513   8.195  14.412
36781SOL    HW112117   7.539   8.264  14.474
36781SOL    HW212118   7.436   8.155  14.452
36782SOL     OW12119   9.550   4.809   6.396
36782SOL    HW112120   9.629   4.862   6.389
36782SOL    HW212121   9.495   4.838   6.324
36783SOL     OW12122   9.128   5.272  12.199
36783SOL    HW112123   9.145   5.352  12.150
36783SOL    HW212124   9.123   5.203  12.133
36784SOL     OW12125   0.747   8.661  13.892
36784SOL    HW112126   0.738   8.570  13.864
36784SOL    HW212127   0.703   8.664  13.977
36785SOL     OW12128   0.858   9.060   8.693
36785SOL    HW112129   0.778   9.063   8.745
36785SOL    HW212130   0.898   9.146   8.704
36786SOL     OW12131  10.969  14.712   3.335
36786SOL    HW112132  10.959  14.782   3.400
36786SOL    HW212133  10.985  14.633   3.387
36787SOL     OW12134   6.719   3.318   7.418
36787SOL    HW112135   6.651   3.385   7.415
36787SOL    HW212136   6.776   3.339   7.344
36788SOL     OW12137  13.966   4.177   1.102
36788SOL    HW112138  14.020   4.174   1.023
36788SOL    HW212139  14.008   4.115   1.162
36789SOL     OW12140  11.762   0.598   1.157
36789SOL    HW112141  11.831   0.638   1.105
36789SOL    HW212142  11.752   0.510   1.119
36790SOL     OW12143   8.812   3.336  11.943
36790SOL    HW112144   8.786   3.397  12.012
36790SOL    HW212145   8.880   3.282  11.983
36791SOL     OW12146   5.317  13.791   3.083
36791SOL    HW112147   5.315  13.789   2.987
36791SOL    HW212148   5.354  13.706   3.107
36792SOL     OW12149   7.877   6.582  13.693
36792SOL    HW112150   7.839   6.540  13.770
36792SOL    HW212151   7.834   6.667  13.688
36793SOL     OW12152   1.538  10.182  13.315
36793SOL    HW112153   1.560  10.089  13.318
36793SOL    HW212154   1.442  10.184  13.316
36794SOL     OW12155  14.718  13.684  13.450
36794SOL    HW112156  14.711  13.761  13.507
36794SOL    HW212157  14.689  13.716  13.364
36795SOL     OW12158   2.585   7.861   2.055
36795SOL    HW112159   2.501   7.869   2.008
36795SOL    HW212160   2.605   7.768   2.052
36796SOL     OW12161   9.103   2.751  10.287
36796SOL    HW112162   9.013   2.745  10.254
36796SOL    HW212163   9.152   2.791  10.214
36797SOL     OW12164  10.671   3.888   9.877
36797SOL    HW112165  10.614   3.822   9.915
36797SOL    HW212166  10.742   3.898   9.940
36798SOL     OW12167   6.485   8.209   9.204
36798SOL    HW112168   6.449   8.132   9.247
36798SOL    HW212169   6.497   8.183   9.113
36799SOL     OW12170  14.872   7.717   9.367
36799SOL    HW112171   0.004   7.633   9.412
36799SOL    HW212172  14.777   7.726   9.355
36800SOL     OW12173   7.634  13.501   4.046
36800SOL    HW112174   7.687  13.482   4.123
36800SOL    HW212175   7.670  13.444   3.978
36801SOL     OW12176   2.299   7.625  12.898
36801SOL    HW112177   2.363   7.575  12.949
36801SOL    HW212178   2.221   7.628  12.954
36802SOL     OW12179   2.843  11.531   3.604
36802SOL    HW112180   2.851  11.465   3.536
36802SOL    HW212181   2.893  11.496   3.678
36803SOL     OW12182  11.817   9.723   2.441
36803SOL    HW112183  11.820   9.789   2.372
36803SOL    HW212184  11.806   9.640   2.394
36804SOL     OW12185   4.757   0.766   1.361
36804SOL    HW112186   4.688   0.832   1.367
36804SOL    HW212187   4.713   0.684   1.379
36805SOL     OW12188   1.705   7.836  13.033
36805SOL    HW112189   1.717   7.847  13.128
36805SOL    HW212190   1.658   7.915  13.006
36806SOL     OW12191  14.129   6.737   7.259
36806SOL    HW112192  14.084   6.683   7.324
36806SOL    HW212193  14.179   6.675   7.206
36807SOL     OW12194   6.764   7.272  13.639
36807SOL    HW112195   6.784   7.181  13.618
36807SOL    HW212196   6.843   7.320  13.615
36808SOL     OW12197   2.782   3.095   0.131
36808SOL    HW112198   2.853   3.154   0.108
36808SOL    HW212199   2.782   3.093   0.227
36809SOL     OW12200   1.119   1.142   6.682
36809SOL    HW112201   1.068   1.060   6.678
36809SOL    HW212202   1.084   1.195   6.611
36810SOL     OW12203   5.260   6.847   7.942
36810SOL    HW112204   5.178   6.800   7.959
36810SOL    HW212205   5.272   6.841   7.847
36811SOL     OW12206   3.285   6.243  12.426
36811SOL    HW112207   3.374   6.229  12.458
36811SOL    HW212208   3.293   6.318  12.367
36812SOL     OW12209   4.564   4.726  12.866
36812SOL    HW112210   4.519   4.793  12.814
36812SOL    HW212211   4.523   4.732  12.953
36813SOL     OW12212   0.553   9.192   0.580
36813SOL    HW112213   0.541   9.108   0.623
36813SOL    HW212214   0.558   9.255   0.652
36814SOL     OW12215  11.605  14.524   8.992
36814SOL    HW112216  11.620  14.568   8.908
36814SOL    HW212217  11.692  14.502   9.023
36815SOL     OW12218   3.845  10.692  14.763
36815SOL    HW112219   3.826  10.739  14.682
36815SOL    HW212220   3.866  10.603  14.735
36816SOL     OW12221  14.146   5.169   3.278
36816SOL    HW112222  14.119   5.111   3.348
36816SOL    HW212223  14.064   5.198   3.237
36817SOL     OW12224   3.726  14.478  11.710
36817SOL    HW112225   3.803  14.482  11.654
36817SOL    HW212226   3.760  14.486  11.799
36818SOL     OW12227   8.520   9.763  12.734
36818SOL    HW112228   8.568   9.723  12.662
36818SOL    HW212229   8.511   9.855  12.709
36819SOL     OW12230  14.034   7.683   8.965
36819SOL    HW112231  14.039   7.778   8.971
36819SOL    HW212232  14.012   7.666   8.873
36820SOL     OW12233  10.386  12.318  11.604
36820SOL    HW112234  10.343  12.343  11.522
36820SOL    HW212235  10.455  12.383  11.616
36821SOL     OW12236  13.583   0.126   5.506
36821SOL    HW112237  13.498   0.137   5.549
36821SOL    HW212238  13.563   0.130   5.412
36822SOL     OW12239   1.188   5.173   1.528
36822SOL    HW112240   1.173   5.116   1.603
36822SOL    HW212241   1.190   5.114   1.452
36823SOL     OW12242  14.026  12.135   6.159
36823SOL    HW112243  13.977  12.060   6.194
36823SOL    HW212244  13.972  12.166   6.086
36824SOL     OW12245   4.107   8.584  13.957
36824SOL    HW112246   4.101   8.657  13.896
36824SOL    HW212247   4.179   8.530  13.924
36825SOL     OW12248   4.569  13.838  10.960
36825SOL    HW112249   4.649  13.788  10.975
36825SOL    HW212250   4.547  13.822  10.868
36826SOL     OW12251   3.952   0.053   0.696
36826SOL    HW112252   3.966   0.114   0.769
36826SOL    HW212253   4.000   0.091   0.623
36827SOL     OW12254   3.904  10.171   2.522
36827SOL    HW112255   3.950  10.093   2.491
36827SOL    HW212256   3.812  10.152   2.507
36828SOL     OW12257   7.822   6.221   9.694
36828SOL    HW112258   7.892   6.284   9.675
36828SOL    HW212259   7.848   6.142   9.647
36829SOL     OW12260  12.872   9.126   0.832
36829SOL    HW112261  12.881   9.176   0.913
36829SOL    HW212262  12.913   9.182   0.766
36830SOL     OW12263   0.950   3.674  13.061
36830SOL    HW112264   1.021   3.724  13.102
36830SOL    HW212265   0.922   3.727  12.987
36831SOL     OW12266  12.344  11.256  11.790
36831SOL    HW112267  12.370  11.312  11.717
36831SOL    HW212268  12.279  11.307  11.838
36832SOL     OW12269  12.601   3.527   0.140
36832SOL    HW112270  12.655   3.606   0.149
36832SOL    HW212271  12.594   3.515   0.045
36833SOL     OW12272  13.912  14.823   8.318
36833SOL    HW112273  13.922   0.027   8.270
36833SOL    HW212274  13.978  14.828   8.388
36834SOL     OW12275   7.395   5.162   2.280
36834SOL    HW112276   7.390   5.241   2.226
36834SOL    HW212277   7.452   5.103   2.230
36835SOL     OW12278   8.018   4.850  10.022
36835SOL    HW112279   8.110   4.822  10.017
36835SOL    HW212280   7.978   4.817   9.942
36836SOL     OW12281   4.120   7.946   2.394
36836SOL    HW112282   4.029   7.933   2.421
36836SOL    HW212283   4.161   7.990   2.469
36837SOL     OW12284   6.168   1.348   6.016
36837SOL    HW112285   6.097   1.408   6.041
36837SOL    HW212286   6.247   1.388   6.052
36838SOL     OW12287  10.333   4.416   5.433
36838SOL    HW112288  10.390   4.350   5.472
36838SOL    HW212289  10.259   4.423   5.495
36839SOL     OW12290  12.575   0.477   2.017
36839SOL    HW112291  12.652   0.510   1.970
36839SOL    HW212292  12.604   0.467   2.108
36840SOL     OW12293   2.409   6.179   5.661
36840SOL    HW112294   2.333   6.150   5.712
36840SOL    HW212295   2.376   6.187   5.572
36841SOL     OW12296  13.511   3.824   3.792
36841SOL    HW112297  13.545   3.879   3.721
36841SOL    HW212298  13.463   3.884   3.849
36842SOL     OW12299   1.453   8.160   5.122
36842SOL    HW112300   1.453   8.097   5.193
36842SOL    HW212301   1.423   8.242   5.162
36843SOL     OW12302  10.962   2.603   0.669
36843SOL    HW112303  10.937   2.590   0.578
36843SOL    HW212304  10.962   2.515   0.707
36844SOL     OW12305  14.206  10.328  14.711
36844SOL    HW112306  14.221  10.276  14.632
36844SOL    HW212307  14.170  10.266  14.774
36845SOL     OW12308   2.983   2.128   6.838
36845SOL    HW112309   3.037   2.131   6.759
36845SOL    HW212310   3.010   2.205   6.887
36846SOL     OW12311   8.060   4.170  12.050
36846SOL    HW112312   8.064   4.210  11.963
36846SOL    HW212313   8.063   4.076  12.033
36847SOL     OW12314  10.006   8.442  11.167
36847SOL    HW112315   9.967   8.399  11.243
36847SOL    HW212316   9.934   8.489  11.126
36848SOL     OW12317   6.348  14.165  11.607
36848SOL    HW112318   6.320  14.193  11.520
36848SOL    HW212319   6.395  14.240  11.643
36849SOL     OW12320  12.681   6.390   9.589
36849SOL    HW112321  12.636   6.386   9.674
36849SOL    HW212322  12.613   6.369   9.525
36850SOL     OW12323  14.226   8.605  11.535
36850SOL    HW112324  14.248   8.697  11.543
36850SOL    HW212325  14.308   8.563  11.509
36851SOL     OW12326   6.405   3.663  11.984
36851SOL    HW112327   6.432   3.595  12.046
36851SOL    HW212328   6.486   3.709  11.961
36852SOL     OW12329   2.293   9.064   0.376
36852SOL    HW112330   2.245   8.994   0.421
36852SOL    HW212331   2.321   9.123   0.445
36853SOL     OW12332   4.181   7.875  11.951
36853SOL    HW112333   4.134   7.793  11.936
36853SOL    HW212334   4.196   7.877  12.046
36854SOL     OW12335   4.205   3.174   2.996
36854SOL    HW112336   4.206   3.233   3.071
36854SOL    HW212337   4.192   3.087   3.033
36855SOL     OW12338  10.534   4.286   6.513
36855SOL    HW112339  10.629   4.279   6.521
36855SOL    HW212340  10.506   4.322   6.597
36856SOL     OW12341   3.728   6.506   4.486
36856SOL    HW112342   3.717   6.421   4.442
36856SOL    HW212343   3.814   6.501   4.528
36857SOL     OW12344   6.496   8.341   7.587
36857SOL    HW112345   6.579   8.366   7.627
36857SOL    HW212346   6.471   8.260   7.633
36858SOL     OW12347   2.163   3.797  14.476
36858SOL    HW112348   2.238   3.772  14.424
36858SOL    HW212349   2.200   3.845  14.551
36859SOL     OW12350   6.317  13.147   3.945
36859SOL    HW112351   6.266  13.087   3.999
36859SOL    HW212352   6.320  13.106   3.858
36860SOL     OW12353   9.232   4.152   2.538
36860SOL    HW112354   9.161   4.162   2.601
36860SOL    HW212355   9.189   4.127   2.456
36861SOL     OW12356   6.772   7.186  13.101
36861SOL    HW112357   6.850   7.183  13.158
36861SOL    HW212358   6.803   7.155  13.016
36862SOL     OW12359   2.716   2.523   8.234
36862SOL    HW112360   2.708   2.596   8.173
36862SOL    HW212361   2.780   2.552   8.299
36863SOL     OW12362   0.010  11.187   1.813
36863SOL    HW112363  14.824  11.229   1.871
36863SOL    HW212364  14.859  11.096   1.808
36864SOL     OW12365   2.454  13.308   9.034
36864SOL    HW112366   2.501  13.341   8.958
36864SOL    HW212367   2.428  13.386   9.082
36865SOL     OW12368   4.316   0.086  13.754
36865SOL    HW112369   4.287  14.873  13.752
36865SOL    HW212370   4.310   0.116  13.663
36866SOL     OW12371  14.814   8.494   9.811
36866SOL    HW112372   0.017   8.504   9.862
36866SOL    HW212373  14.840   8.508   9.720
36867SOL     OW12374   7.945   3.642   3.496
36867SOL    HW112375   8.002   3.607   3.565
36867SOL    HW212376   7.859   3.604   3.514
36868SOL     OW12377   5.549   8.995   6.757
36868SOL    HW112378   5.460   9.030   6.755
36868SOL    HW212379   5.538   8.900   6.762
36869SOL     OW12380  10.907   3.202  14.409
36869SOL    HW112381  10.957   3.120  14.402
36869SOL    HW212382  10.937   3.255  14.335
36870SOL     OW12383   9.590   0.792  14.433
36870SOL    HW112384   9.670   0.844  14.426
36870SOL    HW212385   9.519   0.856  14.428
36871SOL     OW12386  11.237   6.116   7.246
36871SOL    HW112387  11.184   6.187   7.210
36871SOL    HW212388  11.253   6.141   7.337
36872SOL     OW12389   9.367  11.604   0.873
36872SOL    HW112390   9.449  11.627   0.916
36872SOL    HW212391   9.299  11.626   0.937
36873SOL     OW12392   3.812  14.392   4.259
36873SOL    HW112393   3.721  14.415   4.276
36873SOL    HW212394   3.828  14.315   4.313
36874SOL     OW12395   7.835   0.311  11.133
36874SOL    HW112396   7.898   0.252  11.093
36874SOL    HW212397   7.835   0.389  11.078
36875SOL     OW12398  14.439  13.083   2.301
36875SOL    HW112399  14.428  13.031   2.222
36875SOL    HW212400  14.366  13.057   2.358
36876SOL     OW12401  13.355   0.044   3.868
36876SOL    HW112402  13.410   0.022   3.793
36876SOL    HW212403  13.386  14.864   3.938
36877SOL     OW12404   7.355   9.579  10.740
36877SOL    HW112405   7.448   9.599  10.736
36877SOL    HW212406   7.342   9.513  10.671
36878SOL     OW12407   0.390  10.997   1.008
36878SOL    HW112408   0.307  11.035   1.035
36878SOL    HW212409   0.380  10.903   1.025
36879SOL     OW12410   9.315  11.078  14.694
36879SOL    HW112411   9.385  11.135  14.728
36879SOL    HW212412   9.347  11.052  14.607
36880SOL     OW12413   6.794   8.682   1.231
36880SOL    HW112414   6.830   8.763   1.266
36880SOL    HW212415   6.829   8.614   1.288
36881SOL     OW12416   0.614  11.455  13.817
36881SOL    HW112417   0.555  11.494  13.753
36881SOL    HW212418   0.638  11.370  13.780
36882SOL     OW12419  13.307   8.815   8.983
36882SOL    HW112420  13.256   8.864   8.919
36882SOL    HW212421  13.350   8.746   8.933
36883SOL     OW12422  13.911  13.073   5.295
36883SOL    HW112423  13.823  13.041   5.312
36883SOL    HW212424  13.942  13.019   5.223
36884SOL     OW12425   5.999   8.754  14.716
36884SOL    HW112426   5.957   8.797  14.791
36884SOL    HW212427   5.951   8.672  14.706
36885SOL     OW12428   4.112  10.938   8.371
36885SOL    HW112429   4.192  10.929   8.423
36885SOL    HW212430   4.109  11.030   8.347
36886SOL     OW12431  11.681   2.473   6.935
36886SOL    HW112432  11.599   2.430   6.910
36886SOL    HW212433  11.665   2.505   7.024
36887SOL     OW12434  12.196   2.093  14.828
36887SOL    HW112435  12.188   2.117  14.736
36887SOL    HW212436  12.220   2.000  14.827
36888SOL     OW12437   1.461  13.049   1.677
36888SOL    HW112438   1.525  13.006   1.620
36888SOL    HW212439   1.513  13.085   1.749
36889SOL     OW12440  13.537  13.221   6.577
36889SOL    HW112441  13.615  13.275   6.591
36889SOL    HW212442  13.478  13.245   6.649
36890SOL     OW12443   4.227   1.095  11.717
36890SOL    HW112444   4.195   1.178  11.753
36890SOL    HW212445   4.321   1.095  11.737
36891SOL     OW12446   9.314   4.307   9.129
36891SOL    HW112447   9.406   4.287   9.114
36891SOL    HW212448   9.313   4.358   9.210
36892SOL     OW12449   6.494   9.404  11.092
36892SOL    HW112450   6.408   9.368  11.113
36892SOL    HW212451   6.521   9.451  11.171
36893SOL     OW12452   8.660  12.356   7.365
36893SOL    HW112453   8.569  12.366   7.338
36893SOL    HW212454   8.706  12.333   7.284
36894SOL     OW12455  11.684   1.886   6.566
36894SOL    HW112456  11.778   1.874   6.580
36894SOL    HW212457  11.648   1.798   6.563
36895SOL     OW12458   0.437   4.418  13.395
36895SOL    HW112459   0.352   4.390  13.361
36895SOL    HW212460   0.500   4.390  13.328
36896SOL     OW12461  10.266   9.278   0.353
36896SOL    HW112462  10.254   9.309   0.443
36896SOL    HW212463  10.323   9.343   0.313
36897SOL     OW12464   7.566  11.639   7.234
36897SOL    HW112465   7.625  11.689   7.289
36897SOL    HW212466   7.485  11.689   7.234
36898SOL     OW12467  13.843   3.669   1.957
36898SOL    HW112468  13.832   3.597   1.896
36898SOL    HW212469  13.905   3.636   2.022
36899SOL     OW12470  13.613   6.451   0.021
36899SOL    HW112471  13.691   6.423  14.851
36899SOL    HW212472  13.640   6.454   0.113
36900SOL     OW12473   1.855  12.965  14.213
36900SOL    HW112474   1.790  12.897  14.191
36900SOL    HW212475   1.810  13.047  14.196
36901SOL     OW12476   9.084   2.995   0.914
36901SOL    HW112477   9.057   3.028   0.829
36901SOL    HW212478   9.140   2.920   0.894
36902SOL     OW12479  11.817   4.835   0.879
36902SOL    HW112480  11.835   4.894   0.951
36902SOL    HW212481  11.767   4.763   0.918
36903SOL     OW12482   8.599   7.981   1.853
36903SOL    HW112483   8.549   7.937   1.784
36903SOL    HW212484   8.690   7.977   1.823
36904SOL     OW12485  13.343   4.163  11.837
36904SOL    HW112486  13.407   4.167  11.766
36904SOL    HW212487  13.258   4.169  11.793
36905SOL     OW12488  10.451   3.839   0.618
36905SOL    HW112489  10.386   3.852   0.687
36905SOL    HW212490  10.523   3.793   0.661
36906SOL     OW12491  14.216   7.292  10.862
36906SOL    HW112492  14.157   7.244  10.921
36906SOL    HW212493  14.166   7.302  10.781
36907SOL     OW12494  14.280   1.335  10.212
36907SOL    HW112495  14.198   1.313  10.168
36907SOL    HW212496  14.333   1.256  10.206
36908SOL     OW12497  13.474   8.215   1.908
36908SOL    HW112498  13.485   8.160   1.985
36908SOL    HW212499  13.397   8.270   1.929
36909SOL     OW12500   3.182  13.335  13.770
36909SOL    HW112501   3.104  13.385  13.747
36909SOL    HW212502   3.220  13.383  13.844
36910SOL     OW12503   1.833   2.047   2.742
36910SOL    HW112504   1.793   2.133   2.755
36910SOL    HW212505   1.915   2.052   2.791
36911SOL     OW12506  11.774   4.366   4.496
36911SOL    HW112507  11.758   4.455   4.527
36911SOL    HW212508  11.772   4.312   4.575
36912SOL     OW12509   5.283  13.980   6.532
36912SOL    HW112510   5.316  14.059   6.489
36912SOL    HW212511   5.239  13.931   6.462
36913SOL     OW12512  10.322   5.868   3.133
36913SOL    HW112513  10.380   5.792   3.142
36913SOL    HW212514  10.285   5.860   3.045
36914SOL     OW12515  11.406   0.564  11.388
36914SOL    HW112516  11.436   0.535  11.475
36914SOL    HW212517  11.487   0.570  11.337
36915SOL     OW12518   5.033   0.010   5.875
36915SOL    HW112519   5.066  14.805   5.910
36915SOL    HW212520   4.985  14.863   5.796
36916SOL     OW12521   8.743   7.199   9.168
36916SOL    HW112522   8.707   7.136   9.230
36916SOL    HW212523   8.697   7.179   9.086
36917SOL     OW12524  10.671   5.944   4.263
36917SOL    HW112525  10.662   5.856   4.226
36917SOL    HW212526  10.617   6.000   4.207
36918SOL     OW12527  11.701   1.138   6.799
36918SOL    HW112528  11.651   1.066   6.838
36918SOL    HW212529  11.659   1.217   6.833
36919SOL     OW12530  13.167   2.674   5.546
36919SOL    HW112531  13.112   2.663   5.623
36919SOL    HW212532  13.120   2.627   5.477
36920SOL     OW12533   3.829   6.411   3.006
36920SOL    HW112534   3.888   6.486   3.013
36920SOL    HW212535   3.796   6.398   3.095
36921SOL     OW12536   7.297  10.800  10.397
36921SOL    HW112537   7.277  10.728  10.457
36921SOL    HW212538   7.356  10.857  10.447
36922SOL     OW12539   1.496   1.642   0.448
36922SOL    HW112540   1.503   1.635   0.543
36922SOL    HW212541   1.585   1.661   0.419
36923SOL     OW12542   8.819  11.053   3.657
36923SOL    HW112543   8.812  11.085   3.747
36923SOL    HW212544   8.888  10.987   3.660
36924SOL     OW12545  12.049   7.583   5.105
36924SOL    HW112546  12.097   7.500   5.107
36924SOL    HW212547  11.957   7.557   5.105
36925SOL     OW12548   0.322  11.901   6.384
36925SOL    HW112549   0.386  11.830   6.391
36925SOL    HW212550   0.318  11.921   6.291
36926SOL     OW12551   2.132  12.876   0.376
36926SOL    HW112552   2.130  12.892   0.470
36926SOL    HW212553   2.081  12.796   0.364
36927SOL     OW12554  14.307   5.212   5.386
36927SOL    HW112555  14.298   5.161   5.306
36927SOL    HW212556  14.394   5.250   5.381
36928SOL     OW12557  12.156   8.282  11.086
36928SOL    HW112558  12.141   8.322  11.172
36928SOL    HW212559  12.227   8.333  11.048
36929SOL     OW12560   0.467  12.616   2.030
36929SOL    HW112561   0.452  12.699   1.984
36929SOL    HW212562   0.554  12.588   2.001
36930SOL     OW12563  13.269  12.718   3.856
36930SOL    HW112564  13.328  12.727   3.931
36930SOL    HW212565  13.229  12.632   3.867
36931SOL     OW12566  11.200  13.224   4.516
36931SOL    HW112567  11.239  13.149   4.561
36931SOL    HW212568  11.272  13.287   4.509
36932SOL     OW12569  10.795  13.096  11.509
36932SOL    HW112570  10.790  13.162  11.579
36932SOL    HW212571  10.885  13.064  11.513
36933SOL     OW12572   5.621   9.944   4.381
36933SOL    HW112573   5.697  10.002   4.387
36933SOL    HW212574   5.653   9.866   4.336
36934SOL     OW12575   2.316  13.121  13.739
36934SOL    HW112576   2.223  13.102  13.726
36934SOL    HW212577   2.333  13.098  13.830
36935SOL     OW12578   7.860  11.352   3.425
36935SOL    HW112579   7.934  11.312   3.379
36935SOL    HW212580   7.821  11.280   3.474
36936SOL     OW12581   4.190   5.660  11.443
36936SOL    HW112582   4.261   5.705  11.398
36936SOL    HW212583   4.122   5.650  11.377
36937SOL     OW12584  13.419   3.428  10.944
36937SOL    HW112585  13.439   3.505  10.892
36937SOL    HW212586  13.503   3.399  10.978
36938SOL     OW12587   5.762   2.852   9.558
36938SOL    HW112588   5.837   2.900   9.594
36938SOL    HW212589   5.794   2.818   9.475
36939SOL     OW12590  11.544   3.492   9.335
36939SOL    HW112591  11.607   3.562   9.320
36939SOL    HW212592  11.525   3.497   9.429
36940SOL     OW12593   6.867   6.595   7.750
36940SOL    HW112594   6.852   6.510   7.708
36940SOL    HW212595   6.962   6.607   7.747
36941SOL     OW12596   5.404   9.181   7.218
36941SOL    HW112597   5.343   9.223   7.279
36941SOL    HW212598   5.356   9.177   7.135
36942SOL     OW12599   7.734   3.575  12.254
36942SOL    HW112600   7.815   3.536  12.223
36942SOL    HW212601   7.666   3.512  12.232
36943SOL     OW12602  10.578   3.002   6.615
36943SOL    HW112603  10.509   2.986   6.679
36943SOL    HW212604  10.642   3.056   6.662
36944SOL     OW12605  13.009   4.244  14.196
36944SOL    HW112606  13.089   4.239  14.144
36944SOL    HW212607  13.029   4.197  14.277
36945SOL     OW12608   5.340  10.468   1.147
36945SOL    HW112609   5.421  10.492   1.192
36945SOL    HW212610   5.309  10.391   1.195
36946SOL     OW12611  14.350   8.968  11.995
36946SOL    HW112612  14.280   8.980  11.930
36946SOL    HW212613  14.429   9.001  11.951
36947SOL     OW12614   1.470   8.930   2.280
36947SOL    HW112615   1.492   8.924   2.187
36947SOL    HW212616   1.446   9.021   2.293
36948SOL     OW12617  11.551   6.293   9.665
36948SOL    HW112618  11.471   6.345   9.673
36948SOL    HW212619  11.568   6.261   9.753
36949SOL     OW12620   3.555  10.738  10.315
36949SOL    HW112621   3.600  10.788  10.383
36949SOL    HW212622   3.507  10.670  10.363
36950SOL     OW12623   1.782   6.576   5.462
36950SOL    HW112624   1.821   6.511   5.404
36950SOL    HW212625   1.759   6.527   5.541
36951SOL     OW12626  13.009   2.632   0.736
36951SOL    HW112627  12.935   2.600   0.685
36951SOL    HW212628  13.008   2.578   0.816
36952SOL     OW12629  12.474   6.291   5.278
36952SOL    HW112630  12.414   6.226   5.315
36952SOL    HW212631  12.560   6.249   5.281
36953SOL     OW12632   4.776   0.480  10.941
36953SOL    HW112633   4.820   0.498  11.025
36953SOL    HW212634   4.846   0.479  10.877
36954SOL     OW12635   4.165   5.002  13.099
36954SOL    HW112636   4.195   5.081  13.054
36954SOL    HW212637   4.128   4.946  13.031
36955SOL     OW12638   6.313   3.322   1.314
36955SOL    HW112639   6.287   3.335   1.223
36955SOL    HW212640   6.260   3.248   1.345
36956SOL     OW12641  12.189  12.313   1.393
36956SOL    HW112642  12.275  12.278   1.369
36956SOL    HW212643  12.205  12.362   1.474
36957SOL     OW12644   6.092  13.105   0.315
36957SOL    HW112645   6.168  13.163   0.324
36957SOL    HW212646   6.087  13.059   0.399
36958SOL     OW12647   6.346  13.871  13.347
36958SOL    HW112648   6.285  13.814  13.300
36958SOL    HW212649   6.433  13.842  13.320
36959SOL     OW12650   6.270   9.406  13.124
36959SOL    HW112651   6.307   9.468  13.186
36959SOL    HW212652   6.340   9.344  13.106
36960SOL     OW12653   4.961   6.260  13.475
36960SOL    HW112654   5.045   6.240  13.516
36960SOL    HW212655   4.931   6.176  13.440
36961SOL     OW12656  11.309   9.769   3.226
36961SOL    HW112657  11.286   9.851   3.182
36961SOL    HW212658  11.261   9.702   3.178
36962SOL     OW12659  10.739   5.295   5.914
36962SOL    HW112660  10.713   5.384   5.938
36962SOL    HW212661  10.776   5.258   5.994
36963SOL     OW12662   6.224   3.570   3.569
36963SOL    HW112663   6.173   3.581   3.489
36963SOL    HW212664   6.312   3.599   3.545
36964SOL     OW12665   2.199  11.917  13.040
36964SOL    HW112666   2.243  11.971  12.975
36964SOL    HW212667   2.107  11.917  13.012
36965SOL     OW12668   2.409   9.424   6.151
36965SOL    HW112669   2.401   9.431   6.056
36965SOL    HW212670   2.334   9.471   6.186
36966SOL     OW12671  11.573   5.585   6.983
36966SOL    HW112672  11.509   5.618   7.047
36966SOL    HW212673  11.655   5.627   7.009
36967SOL     OW12674   8.695   3.897   3.196
36967SOL    HW112675   8.769   3.890   3.136
36967SOL    HW212676   8.736   3.900   3.283
36968SOL     OW12677   5.090   3.546   9.507
36968SOL    HW112678   5.014   3.541   9.565
36968SOL    HW212679   5.149   3.477   9.538
36969SOL     OW12680  11.482  13.915  12.110
36969SOL    HW112681  11.542  13.915  12.036
36969SOL    HW212682  11.477  13.823  12.136
36970SOL     OW12683   9.917   6.146   1.671
36970SOL    HW112684   9.994   6.187   1.632
36970SOL    HW212685   9.873   6.217   1.719
36971SOL     OW12686   1.872   5.277  10.358
36971SOL    HW112687   1.788   5.293  10.314
36971SOL    HW212688   1.847   5.259  10.449
36972SOL     OW12689   2.368   7.907   5.340
36972SOL    HW112690   2.338   7.841   5.277
36972SOL    HW212691   2.311   7.896   5.416
36973SOL     OW12692   4.714   3.184  12.870
36973SOL    HW112693   4.676   3.146  12.790
36973SOL    HW212694   4.639   3.192  12.929
36974SOL     OW12695  12.406   0.287   9.857
36974SOL    HW112696  12.481   0.345   9.844
36974SOL    HW212697  12.434   0.227   9.927
36975SOL     OW12698   3.986  12.048  12.118
36975SOL    HW112699   3.951  12.070  12.204
36975SOL    HW212700   3.945  12.111  12.058
36976SOL     OW12701  14.529   3.253  12.233
36976SOL    HW112702  14.538   3.158  12.222
36976SOL    HW212703  14.447   3.264  12.281
36977SOL     OW12704  10.214   5.550   2.450
36977SOL    HW112705  10.161   5.579   2.376
36977SOL    HW212706  10.188   5.606   2.523
36978SOL     OW12707   5.975   0.345  14.145
36978SOL    HW112708   6.056   0.320  14.100
36978SOL    HW212709   5.959   0.435  14.116
36979SOL     OW12710   8.061   1.860   8.930
36979SOL    HW112711   8.035   1.833   8.842
36979SOL    HW212712   8.157   1.862   8.927
36980SOL     OW12713   8.457   4.032  13.938
36980SOL    HW112714   8.458   4.065  14.027
36980SOL    HW212715   8.396   4.089  13.891
36981SOL     OW12716   0.463   2.291   4.182
36981SOL    HW112717   0.449   2.199   4.161
36981SOL    HW212718   0.418   2.339   4.113
36982SOL     OW12719   6.661   6.322   6.439
36982SOL    HW112720   6.661   6.325   6.343
36982SOL    HW212721   6.569   6.314   6.463
36983SOL     OW12722   6.008   2.893   6.100
36983SOL    HW112723   5.991   2.939   6.183
36983SOL    HW212724   6.058   2.955   6.048
36984SOL     OW12725   7.420   0.582  13.451
36984SOL    HW112726   7.342   0.551  13.498
36984SOL    HW212727   7.490   0.578  13.516
36985SOL     OW12728  11.269   6.832   5.960
36985SOL    HW112729  11.221   6.877   6.030
36985SOL    HW212730  11.301   6.752   6.000
36986SOL     OW12731   5.356   4.544   0.016
36986SOL    HW112732   5.353   4.527  14.800
36986SOL    HW212733   5.440   4.589   0.030
36987SOL     OW12734   7.548   5.824   0.364
36987SOL    HW112735   7.514   5.899   0.314
36987SOL    HW212736   7.627   5.858   0.407
36988SOL     OW12737   2.668   8.870   4.950
36988SOL    HW112738   2.665   8.814   4.872
36988SOL    HW212739   2.606   8.831   5.010
36989SOL     OW12740   6.495   3.511   1.707
36989SOL    HW112741   6.572   3.471   1.666
36989SOL    HW212742   6.421   3.467   1.665
36990SOL     OW12743  14.480   0.071   0.313
36990SOL    HW112744  14.454  14.870   0.361
36990SOL    HW212745  14.418   0.076   0.241
36991SOL     OW12746  11.275   8.285  11.877
36991SOL    HW112747  11.312   8.202  11.848
36991SOL    HW212748  11.218   8.261  11.950
36992SOL     OW12749  11.968   3.900  11.287
36992SOL    HW112750  11.997   3.979  11.241
36992SOL    HW212751  11.965   3.832  11.219
36993SOL     OW12752  10.694   8.479   4.368
36993SOL    HW112753  10.630   8.472   4.297
36993SOL    HW212754  10.779   8.486   4.324
36994SOL     OW12755  11.310  10.821   6.896
36994SOL    HW112756  11.231  10.767   6.889
36994SOL    HW212757  11.293  10.877   6.972
36995SOL     OW12758   2.893  14.493   8.554
36995SOL    HW112759   2.895  14.499   8.458
36995SOL    HW212760   2.948  14.565   8.583
36996SOL     OW12761  13.711   4.146   7.055
36996SOL    HW112762  13.701   4.057   7.020
36996SOL    HW212763  13.634   4.159   7.110
36997SOL     OW12764   1.025  10.886  10.545
36997SOL    HW112765   0.999  10.795  10.531
36997SOL    HW212766   1.084  10.906  10.472
36998SOL     OW12767   8.170   3.390   6.185
36998SOL    HW112768   8.105   3.351   6.127
36998SOL    HW212769   8.146   3.483   6.190
36999SOL     OW12770   5.917   4.154   7.731
36999SOL    HW112771   5.906   4.163   7.826
36999SOL    HW212772   5.857   4.218   7.694
37000SOL     OW12773   1.737   2.348  14.403
37000SOL    HW112774   1.649   2.385  14.399
37000SOL    HW212775   1.773   2.360  14.316
37001SOL     OW12776   4.566   9.364  11.361
37001SOL    HW112777   4.558   9.326  11.274
37001SOL    HW212778   4.475   9.377  11.390
37002SOL     OW12779   5.106   3.060   8.567
37002SOL    HW112780   5.160   3.097   8.496
37002SOL    HW212781   5.150   3.089   8.647
37003SOL     OW12782   5.886   2.798  12.696
37003SOL    HW112783   5.790   2.790  12.691
37003SOL    HW212784   5.903   2.837  12.781
37004SOL     OW12785  11.601   1.018  14.495
37004SOL    HW112786  11.633   0.933  14.465
37004SOL    HW212787  11.536   0.997  14.562
37005SOL     OW12788  14.235   9.571  11.198
37005SOL    HW112789  14.142   9.556  11.177
37005SOL    HW212790  14.257   9.501  11.260
37006SOL     OW12791   2.788  12.491   0.368
37006SOL    HW112792   2.860  12.546   0.399
37006SOL    HW212793   2.774  12.428   0.438
37007SOL     OW12794  13.831  14.839  11.352
37007SOL    HW112795  13.739  14.848  11.376
37007SOL    HW212796  13.839   0.009  11.270
37008SOL     OW12797   3.183   8.793  14.855
37008SOL    HW112798   3.140   8.862   0.028
37008SOL    HW212799   3.261   8.771   0.028
37009SOL     OW12800   5.187   8.446  12.324
37009SOL    HW112801   5.119   8.493  12.275
37009SOL    HW212802   5.234   8.396  12.257
37010SOL     OW12803   0.329   5.791  13.619
37010SOL    HW112804   0.299   5.739  13.693
37010SOL    HW212805   0.423   5.772  13.613
37011SOL     OW12806  12.131  14.408  11.229
37011SOL    HW112807  12.203  14.446  11.180
37011SOL    HW212808  12.167  14.390  11.316
37012SOL     OW12809   7.068   9.091   9.438
37012SOL    HW112810   7.097   9.056   9.354
37012SOL    HW212811   7.077   9.018   9.499
37013SOL     OW12812  14.192   6.015   7.434
37013SOL    HW112813  14.196   5.937   7.379
37013SOL    HW212814  14.201   5.982   7.523
37014SOL     OW12815   8.094   2.952   8.701
37014SOL    HW112816   8.182   2.989   8.704
37014SOL    HW212817   8.107   2.862   8.673
37015SOL     OW12818   2.207   8.642   2.730
37015SOL    HW112819   2.233   8.603   2.647
37015SOL    HW212820   2.285   8.688   2.761
37016SOL     OW12821  13.349   4.337  10.283
37016SOL    HW112822  13.368   4.429  10.261
37016SOL    HW212823  13.435   4.297  10.292
37017SOL     OW12824   5.513  11.547  11.923
37017SOL    HW112825   5.433  11.597  11.905
37017SOL    HW212826   5.522  11.550  12.018
37018SOL     OW12827   1.250  11.509   9.010
37018SOL    HW112828   1.314  11.518   8.940
37018SOL    HW212829   1.294  11.454   9.075
37019SOL     OW12830   1.387   3.008   4.899
37019SOL    HW112831   1.392   2.963   4.983
37019SOL    HW212832   1.304   2.979   4.861
37020SOL     OW12833   0.766   6.039   2.397
37020SOL    HW112834   0.684   6.002   2.364
37020SOL    HW212835   0.824   6.042   2.320
37021SOL     OW12836   8.732  14.103   8.859
37021SOL    HW112837   8.697  14.055   8.784
37021SOL    HW212838   8.736  14.039   8.929
37022SOL     OW12839   9.774   4.144  12.072
37022SOL    HW112840   9.768   4.111  11.982
37022SOL    HW212841   9.861   4.185  12.077
37023SOL     OW12842  12.963  13.726   9.756
37023SOL    HW112843  13.049  13.753   9.788
37023SOL    HW212844  12.976  13.638   9.722
37024SOL     OW12845  14.732   1.237   6.650
37024SOL    HW112846  14.690   1.315   6.613
37024SOL    HW212847  14.752   1.261   6.740
37025SOL     OW12848  12.408   5.757   2.242
37025SOL    HW112849  12.445   5.672   2.268
37025SOL    HW212850  12.326   5.763   2.290
37026SOL     OW12851   7.484  14.801   9.238
37026SOL    HW112852   7.572  14.832   9.261
37026SOL    HW212853   7.440  14.788   9.323
37027SOL     OW12854   2.605  13.736  11.627
37027SOL    HW112855   2.576  13.820  11.591
37027SOL    HW212856   2.681  13.712  11.574
37028SOL     OW12857   8.598  10.927   2.400
37028SOL    HW112858   8.660  10.888   2.461
37028SOL    HW212859   8.571  10.854   2.344
37029SOL     OW12860   4.931   9.383   7.744
37029SOL    HW112861   4.939   9.462   7.690
37029SOL    HW212862   4.859   9.402   7.804
37030SOL     OW12863   4.282   0.641   2.032
37030SOL    HW112864   4.287   0.609   2.123
37030SOL    HW212865   4.316   0.569   1.980
37031SOL     OW12866   5.506  12.598   6.132
37031SOL    HW112867   5.523  12.556   6.217
37031SOL    HW212868   5.503  12.692   6.152
37032SOL     OW12869   4.535  13.426  10.603
37032SOL    HW112870   4.455  13.459  10.562
37032SOL    HW212871   4.544  13.337  10.570
37033SOL     OW12872   5.627   8.372  10.248
37033SOL    HW112873   5.621   8.295  10.191
37033SOL    HW212874   5.606   8.338  10.335
37034SOL     OW12875   2.125   3.412   6.578
37034SOL    HW112876   2.187   3.482   6.600
37034SOL    HW212877   2.149   3.385   6.489
37035SOL     OW12878   4.640   7.445   8.460
37035SOL    HW112879   4.636   7.463   8.366
37035SOL    HW212880   4.720   7.394   8.472
37036SOL     OW12881   4.299   1.658  10.372
37036SOL    HW112882   4.285   1.676  10.465
37036SOL    HW212883   4.379   1.605  10.370
37037SOL     OW12884  13.654   4.953   6.805
37037SOL    HW112885  13.640   4.962   6.899
37037SOL    HW212886  13.567   4.962   6.767
37038SOL     OW12887  10.952   3.280  12.376
37038SOL    HW112888  11.004   3.281  12.296
37038SOL    HW212889  10.868   3.243  12.349
37039SOL     OW12890  13.725   5.860   8.511
37039SOL    HW112891  13.789   5.807   8.558
37039SOL    HW212892  13.703   5.931   8.572
37040SOL     OW12893  10.149   6.500   5.685
37040SOL    HW112894  10.170   6.587   5.653
37040SOL    HW212895  10.064   6.480   5.647
37041SOL     OW12896  12.336   5.744   4.305
37041SOL    HW112897  12.374   5.685   4.240
37041SOL    HW212898  12.359   5.831   4.274
37042SOL     OW12899  11.804   8.538   9.503
37042SOL    HW112900  11.860   8.511   9.431
37042SOL    HW212901  11.821   8.632   9.512
37043SOL     OW12902   2.442   8.609  14.185
37043SOL    HW112903   2.370   8.561  14.145
37043SOL    HW212904   2.407   8.639  14.269
37044SOL     OW12905  11.683   7.068   2.516
37044SOL    HW112906  11.665   6.992   2.572
37044SOL    HW212907  11.705   7.031   2.431
37045SOL     OW12908  14.594   0.427  11.170
37045SOL    HW112909  14.670   0.410  11.226
37045SOL    HW212910  14.630   0.469  11.092
37046SOL     OW12911   7.016  13.801   8.756
37046SOL    HW112912   6.980  13.726   8.804
37046SOL    HW212913   7.073  13.762   8.690
37047SOL     OW12914   6.099   5.111   3.636
37047SOL    HW112915   6.162   5.104   3.707
37047SOL    HW212916   6.152   5.126   3.557
37048SOL     OW12917  13.710   8.299   3.438
37048SOL    HW112918  13.655   8.221   3.437
37048SOL    HW212919  13.661   8.363   3.488
37049SOL     OW12920  11.646   5.508   9.205
37049SOL    HW112921  11.596   5.541   9.130
37049SOL    HW212922  11.701   5.438   9.169
37050SOL     OW12923   5.775   6.310   3.862
37050SOL    HW112924   5.721   6.272   3.931
37050SOL    HW212925   5.859   6.328   3.905
37051SOL     OW12926   4.761   8.159  10.688
37051SOL    HW112927   4.751   8.117  10.773
37051SOL    HW212928   4.673   8.159  10.650
37052SOL     OW12929   8.203  12.289   7.964
37052SOL    HW112930   8.250  12.314   8.044
37052SOL    HW212931   8.158  12.208   7.987
37053SOL     OW12932  11.795  14.680   1.467
37053SOL    HW112933  11.755  14.766   1.455
37053SOL    HW212934  11.889  14.697   1.473
37054SOL     OW12935  11.465   7.250   5.224
37054SOL    HW112936  11.437   7.214   5.309
37054SOL    HW212937  11.513   7.330   5.247
37055SOL     OW12938  12.337   6.714  13.883
37055SOL    HW112939  12.363   6.779  13.948
37055SOL    HW212940  12.242   6.722  13.877
37056SOL     OW12941   7.271   9.211   1.847
37056SOL    HW112942   7.213   9.222   1.771
37056SOL    HW212943   7.330   9.140   1.821
37057SOL     OW12944   7.244  14.642   8.126
37057SOL    HW112945   7.276  14.577   8.063
37057SOL    HW212946   7.247  14.725   8.077
37058SOL     OW12947  12.289   7.425   1.447
37058SOL    HW112948  12.339   7.437   1.367
37058SOL    HW212949  12.198   7.443   1.422
37059SOL     OW12950   8.527   2.135  11.205
37059SOL    HW112951   8.552   2.166  11.292
37059SOL    HW212952   8.437   2.105  11.215
37060SOL     OW12953   9.992   1.525   6.024
37060SOL    HW112954   9.960   1.614   6.013
37060SOL    HW212955   9.956   1.496   6.108
37061SOL     OW12956   2.769   9.277   1.700
37061SOL    HW112957   2.852   9.246   1.664
37061SOL    HW212958   2.722   9.313   1.625
37062SOL     OW12959   8.145   4.858   4.196
37062SOL    HW112960   8.103   4.938   4.228
37062SOL    HW212961   8.237   4.866   4.223
37063SOL     OW12962   5.296   6.924  11.342
37063SOL    HW112963   5.369   6.865  11.326
37063SOL    HW212964   5.297   6.939  11.437
37064SOL     OW12965   1.376   2.750  11.938
37064SOL    HW112966   1.330   2.757  12.022
37064SOL    HW212967   1.453   2.806  11.948
37065SOL     OW12968  13.309   9.010   2.067
37065SOL    HW112969  13.323   8.991   2.160
37065SOL    HW212970  13.364   8.947   2.021
37066SOL     OW12971  11.463   0.607  11.897
37066SOL    HW112972  11.533   0.553  11.935
37066SOL    HW212973  11.503   0.693  11.887
37067SOL     OW12974   6.831   0.155   5.038
37067SOL    HW112975   6.739   0.131   5.050
37067SOL    HW212976   6.879   0.099   5.098
37068SOL     OW12977  13.378   8.477   2.335
37068SOL    HW112978  13.327   8.500   2.257
37068SOL    HW212979  13.367   8.382   2.343
37069SOL     OW12980  12.738   4.156  10.798
37069SOL    HW112981  12.690   4.189  10.723
37069SOL    HW212982  12.702   4.069  10.814
37070SOL     OW12983  10.360  11.097   7.160
37070SOL    HW112984  10.344  11.007   7.131
37070SOL    HW212985  10.276  11.141   7.151
37071SOL     OW12986   0.022  13.780   5.321
37071SOL    HW112987   0.091  13.726   5.360
37071SOL    HW212988   0.067  13.832   5.254
37072SOL     OW12989   1.933   7.999  10.515
37072SOL    HW112990   1.881   7.948  10.453
37072SOL    HW212991   1.976   7.934  10.570
37073SOL     OW12992   4.136  10.681   3.897
37073SOL    HW112993   4.152  10.589   3.920
37073SOL    HW212994   4.204  10.729   3.945
37074SOL     OW12995   2.328   9.999  11.375
37074SOL    HW112996   2.326   9.991  11.279
37074SOL    HW212997   2.283  10.081  11.393
37075SOL     OW12998   5.935  11.739   2.970
37075SOL    HW112999   5.880  11.717   3.045
37075SOL    HW213000   5.979  11.657   2.948
37076SOL     OW13001   6.846   8.476  13.801
37076SOL    HW113002   6.890   8.554  13.835
37076SOL    HW213003   6.776   8.511  13.745
37077SOL     OW13004   4.439  10.667  14.215
37077SOL    HW113005   4.490  10.624  14.147
37077SOL    HW213006   4.499  10.675  14.289
37078SOL     OW13007   1.101   6.507   9.815
37078SOL    HW113008   1.176   6.516   9.874
37078SOL    HW213009   1.135   6.460   9.740
37079SOL     OW13010  14.101   2.009   9.325
37079SOL    HW113011  14.111   2.058   9.244
37079SOL    HW213012  14.020   2.041   9.363
37080SOL     OW13013  10.614   1.553  13.421
37080SOL    HW113014  10.614   1.619  13.352
37080SOL    HW213015  10.645   1.600  13.499
37081SOL     OW13016   5.360   5.274   8.012
37081SOL    HW113017   5.327   5.354   7.969
37081SOL    HW213018   5.349   5.206   7.946
37082SOL     OW13019   5.040   2.775   5.552
37082SOL    HW113020   4.947   2.763   5.571
37082SOL    HW213021   5.061   2.860   5.590
37083SOL     OW13022   2.673   0.501   8.482
37083SOL    HW113023   2.762   0.472   8.503
37083SOL    HW213024   2.618   0.425   8.503
37084SOL     OW13025   7.986   4.062   9.303
37084SOL    HW113026   7.982   4.156   9.319
37084SOL    HW213027   8.050   4.029   9.367
37085SOL     OW13028   6.386   3.207   8.357
37085SOL    HW113029   6.432   3.283   8.394
37085SOL    HW213030   6.426   3.132   8.401
37086SOL     OW13031   1.483   1.690   5.399
37086SOL    HW113032   1.537   1.761   5.365
37086SOL    HW213033   1.451   1.723   5.483
37087SOL     OW13034  14.251   8.361   9.874
37087SOL    HW113035  14.275   8.453   9.880
37087SOL    HW213036  14.331   8.314   9.897
37088SOL     OW13037   1.114   1.761  13.876
37088SOL    HW113038   1.186   1.777  13.815
37088SOL    HW213039   1.070   1.845  13.884
37089SOL     OW13040   0.517  10.645  10.143
37089SOL    HW113041   0.515  10.669  10.235
37089SOL    HW213042   0.532  10.550  10.143
37090SOL     OW13043   0.643  14.878   8.596
37090SOL    HW113044   0.585   0.028   8.667
37090SOL    HW213045   0.587  14.824   8.540
37091SOL     OW13046   3.741  10.864   6.276
37091SOL    HW113047   3.770  10.774   6.265
37091SOL    HW213048   3.801  10.915   6.222
37092SOL     OW13049   4.506   6.703  13.947
37092SOL    HW113050   4.460   6.715  14.029
37092SOL    HW213051   4.599   6.715  13.969
37093SOL     OW13052   6.231  10.585   1.356
37093SOL    HW113053   6.239  10.492   1.376
37093SOL    HW213054   6.137  10.601   1.350
37094SOL     OW13055   4.593   1.952   6.994
37094SOL    HW113056   4.576   1.859   6.981
37094SOL    HW213057   4.688   1.957   7.006
37095SOL     OW13058   7.889  14.381  13.461
37095SOL    HW113059   7.867  14.471  13.437
37095SOL    HW213060   7.967  14.361  13.410
37096SOL     OW13061   1.378   3.325  12.297
37096SOL    HW113062   1.346   3.376  12.222
37096SOL    HW213063   1.311   3.338  12.365
37097SOL     OW13064   6.761   9.861  14.599
37097SOL    HW113065   6.835   9.899  14.647
37097SOL    HW213066   6.720   9.936  14.556
37098SOL     OW13067   3.253   3.693   0.332
37098SOL    HW113068   3.253   3.704   0.427
37098SOL    HW213069   3.180   3.633   0.315
37099SOL     OW13070  11.686   5.305  14.643
37099SOL    HW113071  11.644   5.234  14.595
37099SOL    HW213072  11.734   5.354  14.576
37100SOL     OW13073   4.618   8.533  12.968
37100SOL    HW113074   4.702   8.496  12.996
37100SOL    HW213075   4.622   8.625  12.993
37101SOL     OW13076   0.808  10.497   2.790
37101SOL    HW113077   0.794  10.456   2.704
37101SOL    HW213078   0.720  10.513   2.823
37102SOL     OW13079  10.063   1.081   6.578
37102SOL    HW113080   9.983   1.091   6.527
37102SOL    HW213081  10.052   0.999   6.625
37103SOL     OW13082  12.423   5.050   9.361
37103SOL    HW113083  12.446   5.050   9.453
37103SOL    HW213084  12.490   5.104   9.319
37104SOL     OW13085   3.038  14.085   8.123
37104SOL    HW113086   3.115  14.028   8.122
37104SOL    HW213087   2.976  14.042   8.065
37105SOL     OW13088  10.222  13.285   1.519
37105SOL    HW113089  10.149  13.318   1.466
37105SOL    HW213090  10.181  13.254   1.600
37106SOL     OW13091   7.274   7.324   7.195
37106SOL    HW113092   7.298   7.233   7.214
37106SOL    HW213093   7.249   7.361   7.279
37107SOL     OW13094   3.417   5.909   9.189
37107SOL    HW113095   3.490   5.849   9.176
37107SOL    HW213096   3.449   5.994   9.158
37108SOL     OW13097  10.945   6.760   5.205
37108SOL    HW113098  10.950   6.741   5.299
37108SOL    HW213099  10.863   6.808   5.195
37109SOL     OW13100   1.534  12.554   0.990
37109SOL    HW113101   1.465  12.503   1.032
37109SOL    HW213102   1.488  12.628   0.950
37110SOL     OW13103   8.205   4.931  10.969
37110SOL    HW113104   8.234   4.973  10.888
37110SOL    HW213105   8.281   4.880  10.998
37111SOL     OW13106   9.079  10.838  13.991
37111SOL    HW113107   9.163  10.857  13.950
37111SOL    HW213108   9.099  10.822  14.083
37112SOL     OW13109   9.210  12.067  14.793
37112SOL    HW113110   9.132  12.012  14.790
37112SOL    HW213111   9.265  12.034  14.721
37113SOL     OW13112   0.640   2.374  11.046
37113SOL    HW113113   0.568   2.409  10.994
37113SOL    HW213114   0.612   2.285  11.069
37114SOL     OW13115   6.281   4.331  13.029
37114SOL    HW113116   6.337   4.409  13.031
37114SOL    HW213117   6.199   4.360  13.070
37115SOL     OW13118  10.353   3.025  10.705
37115SOL    HW113119  10.436   2.979  10.717
37115SOL    HW213120  10.326   3.049  10.794
37116SOL     OW13121   9.364  13.909  11.348
37116SOL    HW113122   9.385  13.951  11.432
37116SOL    HW213123   9.301  13.968  11.307
37117SOL     OW13124   4.822   0.428   0.349
37117SOL    HW113125   4.814   0.381   0.432
37117SOL    HW213126   4.802   0.363   0.282
37118SOL     OW13127   1.788   5.420   1.865
37118SOL    HW113128   1.719   5.370   1.821
37118SOL    HW213129   1.868   5.398   1.817
37119SOL     OW13130  13.422   8.017   7.933
37119SOL    HW113131  13.339   7.969   7.924
37119SOL    HW213132  13.461   8.014   7.846
37120SOL     OW13133   9.821  14.466   1.698
37120SOL    HW113134   9.827  14.557   1.669
37120SOL    HW213135   9.774  14.421   1.628
37121SOL     OW13136   9.596   9.602   2.346
37121SOL    HW113137   9.568   9.604   2.438
37121SOL    HW213138   9.562   9.519   2.313
37122SOL     OW13139   0.995  11.145   7.162
37122SOL    HW113140   0.912  11.117   7.201
37122SOL    HW213141   0.979  11.233   7.129
37123SOL     OW13142   1.242  11.968   1.749
37123SOL    HW113143   1.278  11.932   1.668
37123SOL    HW213144   1.271  11.908   1.817
37124SOL     OW13145   9.820   0.361  10.622
37124SOL    HW113146   9.873   0.307  10.680
37124SOL    HW213147   9.797   0.438  10.675
37125SOL     OW13148   5.582   6.828  11.051
37125SOL    HW113149   5.582   6.826  11.147
37125SOL    HW213150   5.532   6.750  11.025
37126SOL     OW13151   8.192  13.697   4.290
37126SOL    HW113152   8.248  13.716   4.365
37126SOL    HW213153   8.246  13.644   4.232
37127SOL     OW13154  13.641  14.540   6.117
37127SOL    HW113155  13.554  14.500   6.121
37127SOL    HW213156  13.701  14.470   6.143
37128SOL     OW13157   8.673   0.370   6.608
37128SOL    HW113158   8.584   0.337   6.594
37128SOL    HW213159   8.688   0.360   6.702
37129SOL     OW13160   7.725   7.077   4.504
37129SOL    HW113161   7.672   7.010   4.548
37129SOL    HW213162   7.764   7.032   4.429
37130SOL     OW13163  12.473   3.148   1.530
37130SOL    HW113164  12.501   3.213   1.465
37130SOL    HW213165  12.470   3.066   1.482
37131SOL     OW13166   1.923   6.736   9.444
37131SOL    HW113167   1.953   6.711   9.532
37131SOL    HW213168   1.955   6.825   9.433
37132SOL     OW13169   6.120  13.665  13.561
37132SOL    HW113170   6.134  13.760  13.570
37132SOL    HW213171   6.051  13.657  13.495
37133SOL     OW13172   6.554  12.806   6.544
37133SOL    HW113173   6.628  12.868   6.541
37133SOL    HW213174   6.495  12.843   6.610
37134SOL     OW13175  11.108   2.145  13.323
37134SOL    HW113176  11.094   2.118  13.414
37134SOL    HW213177  11.049   2.089  13.273
37135SOL     OW13178  12.342   9.357  14.585
37135SOL    HW113179  12.310   9.441  14.552
37135SOL    HW213180  12.303   9.292  14.526
37136SOL     OW13181  10.937   9.785  13.978
37136SOL    HW113182  10.905   9.854  13.920
37136SOL    HW213183  10.895   9.803  14.062
37137SOL     OW13184  10.331  14.489  10.795
37137SOL    HW113185  10.423  14.502  10.775
37137SOL    HW213186  10.286  14.501  10.711
37138SOL     OW13187  14.733   1.101  13.718
37138SOL    HW113188  14.743   1.192  13.747
37138SOL    HW213189  14.672   1.106  13.644
37139SOL     OW13190  13.196   6.386   0.111
37139SOL    HW113191  13.264   6.415   0.050
37139SOL    HW213192  13.134   6.338   0.056
37140SOL     OW13193   2.883  14.583   6.725
37140SOL    HW113194   2.873  14.590   6.820
37140SOL    HW213195   2.845  14.664   6.692
37141SOL     OW13196   8.854  13.276   6.468
37141SOL    HW113197   8.906  13.245   6.542
37141SOL    HW213198   8.847  13.371   6.482
37142SOL     OW13199   0.966   8.250  11.369
37142SOL    HW113200   0.923   8.331  11.393
37142SOL    HW213201   1.054   8.277  11.341
37143SOL     OW13202   1.464   1.930   0.405
37143SOL    HW113203   1.396   1.865   0.427
37143SOL    HW213204   1.537   1.878   0.372
37144SOL     OW13205   2.585   0.554   9.796
37144SOL    HW113206   2.628   0.515   9.872
37144SOL    HW213207   2.501   0.508   9.790
37145SOL     OW13208  10.578   3.537   7.729
37145SOL    HW113209  10.562   3.447   7.700
37145SOL    HW213210  10.555   3.537   7.822
37146SOL     OW13211  11.073   1.396   9.148
37146SOL    HW113212  11.085   1.418   9.241
37146SOL    HW213213  11.141   1.332   9.129
37147SOL     OW13214   3.599  10.450  11.218
37147SOL    HW113215   3.537  10.390  11.177
37147SOL    HW213216   3.590  10.433  11.312
37148SOL     OW13217   5.820   8.262   3.321
37148SOL    HW113218   5.727   8.269   3.344
37148SOL    HW213219   5.858   8.345   3.347
37149SOL     OW13220  10.055   6.539  11.896
37149SOL    HW113221  10.028   6.518  11.985
37149SOL    HW213222  10.000   6.613  11.871
37150SOL     OW13223   3.794  12.105   9.693
37150SOL    HW113224   3.858  12.128   9.625
37150SOL    HW213225   3.712  12.143   9.662
37151SOL     OW13226   5.285  12.597  11.736
37151SOL    HW113227   5.191  12.599  11.718
37151SOL    HW213228   5.308  12.688  11.755
37152SOL     OW13229   5.367   1.391   6.251
37152SOL    HW113230   5.325   1.435   6.177
37152SOL    HW213231   5.310   1.413   6.326
37153SOL     OW13232  14.304  11.944  13.740
37153SOL    HW113233  14.302  12.010  13.809
37153SOL    HW213234  14.219  11.900  13.746
37154SOL     OW13235  11.707  14.537  11.102
37154SOL    HW113236  11.660  14.614  11.069
37154SOL    HW213237  11.760  14.509  11.028
37155SOL     OW13238   2.702   8.692   4.751
37155SOL    HW113239   2.652   8.703   4.670
37155SOL    HW213240   2.669   8.611   4.789
37156SOL     OW13241  13.610   9.141  10.713
37156SOL    HW113242  13.652   9.226  10.700
37156SOL    HW213243  13.525   9.161  10.752
37157SOL     OW13244   7.754   9.702   9.859
37157SOL    HW113245   7.771   9.656   9.941
37157SOL    HW213246   7.766   9.795   9.881
37158SOL     OW13247  12.946  12.775  10.537
37158SOL    HW113248  13.025  12.811  10.577
37158SOL    HW213249  12.944  12.684  10.565
37159SOL     OW13250  13.740  13.798  10.993
37159SOL    HW113251  13.807  13.732  10.978
37159SOL    HW213252  13.658  13.756  10.967
37160SOL     OW13253   7.675  14.701   0.262
37160SOL    HW113254   7.586  14.736   0.259
37160SOL    HW213255   7.714  14.730   0.179
37161SOL     OW13256   9.625   7.604  10.772
37161SOL    HW113257   9.629   7.515  10.808
37161SOL    HW213258   9.535   7.631  10.787
37162SOL     OW13259  14.353   5.238   7.486
37162SOL    HW113260  14.447   5.255   7.486
37162SOL    HW213261  14.346   5.146   7.514
37163SOL     OW13262   5.859   7.982   2.551
37163SOL    HW113263   5.769   7.993   2.582
37163SOL    HW213264   5.860   7.896   2.511
37164SOL     OW13265   1.427   5.791  11.786
37164SOL    HW113266   1.365   5.799  11.714
37164SOL    HW213267   1.456   5.880  11.804
37165SOL     OW13268   3.639   6.654   3.812
37165SOL    HW113269   3.727   6.652   3.773
37165SOL    HW213270   3.652   6.696   3.897
37166SOL     OW13271  14.552   0.364   9.232
37166SOL    HW113272  14.634   0.410   9.248
37166SOL    HW213273  14.497   0.428   9.188
37167SOL     OW13274   1.853   5.411   2.521
37167SOL    HW113275   1.850   5.418   2.426
37167SOL    HW213276   1.880   5.499   2.551
37168SOL     OW13277  11.068   1.865   5.524
37168SOL    HW113278  11.065   1.851   5.429
37168SOL    HW213279  11.161   1.864   5.545
37169SOL     OW13280   7.788   7.748   1.882
37169SOL    HW113281   7.780   7.655   1.904
37169SOL    HW213282   7.737   7.758   1.802
37170SOL     OW13283   7.219   4.851   6.607
37170SOL    HW113284   7.289   4.916   6.611
37170SOL    HW213285   7.180   4.851   6.695
37171SOL     OW13286  14.490  11.961  10.043
37171SOL    HW113287  14.504  11.995   9.955
37171SOL    HW213288  14.538  12.021  10.101
37172SOL     OW13289  10.467   8.334   9.395
37172SOL    HW113290  10.459   8.264   9.330
37172SOL    HW213291  10.479   8.289   9.478
37173SOL     OW13292   1.048   8.396   0.824
37173SOL    HW113293   1.036   8.405   0.919
37173SOL    HW213294   0.971   8.349   0.794
37174SOL     OW13295   1.900   6.893   5.190
37174SOL    HW113296   1.978   6.865   5.143
37174SOL    HW213297   1.893   6.987   5.170
37175SOL     OW13298   2.457  11.293   7.677
37175SOL    HW113299   2.517  11.319   7.747
37175SOL    HW213300   2.502  11.220   7.633
37176SOL     OW13301   1.043  12.353   9.549
37176SOL    HW113302   1.113  12.405   9.509
37176SOL    HW213303   1.012  12.297   9.478
37177SOL     OW13304  13.116  10.000   8.518
37177SOL    HW113305  13.161   9.920   8.545
37177SOL    HW213306  13.028   9.992   8.553
37178SOL     OW13307  12.147   2.461   7.525
37178SOL    HW113308  12.202   2.520   7.577
37178SOL    HW213309  12.058   2.494   7.537
37179SOL     OW13310  10.706  12.027  10.577
37179SOL    HW113311  10.776  12.066  10.630
37179SOL    HW213312  10.739  11.941  10.554
37180SOL     OW13313   7.042  11.944   8.659
37180SOL    HW113314   6.992  12.003   8.716
37180SOL    HW213315   7.027  11.978   8.571
37181SOL     OW13316   8.298   6.508   0.522
37181SOL    HW113317   8.297   6.550   0.435
37181SOL    HW213318   8.317   6.416   0.503
37182SOL     OW13319   7.553   0.113   3.879
37182SOL    HW113320   7.605   0.193   3.887
37182SOL    HW213321   7.472   0.132   3.926
37183SOL     OW13322   9.515  14.638   0.535
37183SOL    HW113323   9.449  14.599   0.592
37183SOL    HW213324   9.481  14.627   0.447
37184SOL     OW13325  14.361   1.782  10.863
37184SOL    HW113326  14.370   1.733  10.945
37184SOL    HW213327  14.397   1.868  10.883
37185SOL     OW13328   1.590   0.884  12.632
37185SOL    HW113329   1.571   0.790  12.640
37185SOL    HW213330   1.505   0.926  12.631
37186SOL     OW13331   3.513   7.765   9.646
37186SOL    HW113332   3.492   7.776   9.738
37186SOL    HW213333   3.609   7.766   9.643
37187SOL     OW13334  13.226   0.358   7.593
37187SOL    HW113335  13.200   0.270   7.568
37187SOL    HW213336  13.153   0.391   7.645
37188SOL     OW13337  13.093  13.195   4.098
37188SOL    HW113338  13.048  13.273   4.064
37188SOL    HW213339  13.179  13.197   4.057
37189SOL     OW13340  12.932   6.618   5.913
37189SOL    HW113341  12.991   6.650   5.981
37189SOL    HW213342  12.920   6.693   5.855
37190SOL     OW13343  10.008   5.226   3.803
37190SOL    HW113344  10.083   5.254   3.856
37190SOL    HW213345   9.946   5.299   3.808
37191SOL     OW13346   6.525   2.857   0.714
37191SOL    HW113347   6.613   2.834   0.686
37191SOL    HW213348   6.505   2.938   0.666
37192SOL     OW13349   7.813   4.269  14.566
37192SOL    HW113350   7.757   4.205  14.611
37192SOL    HW213351   7.899   4.228  14.562
37193SOL     OW13352   9.195   9.841   4.644
37193SOL    HW113353   9.170   9.850   4.736
37193SOL    HW213354   9.287   9.814   4.646
37194SOL     OW13355   7.240  12.941  12.924
37194SOL    HW113356   7.322  12.902  12.956
37194SOL    HW213357   7.266  12.991  12.846
37195SOL     OW13358   2.528   1.207   8.634
37195SOL    HW113359   2.601   1.160   8.595
37195SOL    HW213360   2.456   1.194   8.572
37196SOL     OW13361   6.437   6.633   1.267
37196SOL    HW113362   6.452   6.727   1.263
37196SOL    HW213363   6.495   6.596   1.201
37197SOL     OW13364  11.718  14.822   3.217
37197SOL    HW113365  11.694  14.868   3.298
37197SOL    HW213366  11.806  14.855   3.197
37198SOL     OW13367   7.470   2.351  11.089
37198SOL    HW113368   7.478   2.341  11.184
37198SOL    HW213369   7.555   2.385  11.061
37199SOL     OW13370   7.882   7.945  10.673
37199SOL    HW113371   7.906   7.856  10.647
37199SOL    HW213372   7.950   7.971  10.735
37200SOL     OW13373  11.147  11.145  13.658
37200SOL    HW113374  11.180  11.232  13.637
37200SOL    HW213375  11.093  11.121  13.583
37201SOL     OW13376  13.012   0.184   1.648
37201SOL    HW113377  12.997   0.273   1.615
37201SOL    HW213378  12.970   0.128   1.583
37202SOL     OW13379   4.166   9.875   8.609
37202SOL    HW113380   4.106   9.899   8.679
37202SOL    HW213381   4.113   9.825   8.547
37203SOL     OW13382   0.460   3.516   6.946
37203SOL    HW113383   0.411   3.496   7.026
37203SOL    HW213384   0.445   3.440   6.889
37204SOL     OW13385  12.841   4.546   6.079
37204SOL    HW113386  12.862   4.575   5.990
37204SOL    HW213387  12.804   4.624   6.121
37205SOL     OW13388   4.729   1.582   8.505
37205SOL    HW113389   4.724   1.542   8.418
37205SOL    HW213390   4.746   1.675   8.487
37206SOL     OW13391   7.522   6.947   9.211
37206SOL    HW113392   7.481   6.991   9.137
37206SOL    HW213393   7.493   6.996   9.288
37207SOL     OW13394   6.851   4.556   9.451
37207SOL    HW113395   6.806   4.640   9.457
37207SOL    HW213396   6.859   4.527   9.541
37208SOL     OW13397   6.114   8.873   4.999
37208SOL    HW113398   6.119   8.942   4.932
37208SOL    HW213399   6.200   8.874   5.040
37209SOL     OW13400   9.846   5.311   0.147
37209SOL    HW113401   9.940   5.295   0.133
37209SOL    HW213402   9.822   5.250   0.216
37210SOL     OW13403  10.985   9.182   1.283
37210SOL    HW113404  10.898   9.150   1.257
37210SOL    HW213405  11.046   9.132   1.229
37211SOL     OW13406  10.833   1.285  12.528
37211SOL    HW113407  10.787   1.225  12.586
37211SOL    HW213408  10.909   1.314  12.578
37212SOL     OW13409  14.132   9.389   9.973
37212SOL    HW113410  14.051   9.348  10.004
37212SOL    HW213411  14.105   9.476   9.944
37213SOL     OW13412  11.377   4.626  14.736
37213SOL    HW113413  11.409   4.671  14.657
37213SOL    HW213414  11.415   4.539  14.731
37214SOL     OW13415  14.215  10.127   9.628
37214SOL    HW113416  14.302  10.092   9.609
37214SOL    HW213417  14.201  10.109   9.721
37215SOL     OW13418   6.903   9.736  13.573
37215SOL    HW113419   6.895   9.644  13.598
37215SOL    HW213420   6.814   9.760  13.547
37216SOL     OW13421   3.087   5.359   5.595
37216SOL    HW113422   3.087   5.446   5.556
37216SOL    HW213423   3.021   5.363   5.664
37217SOL     OW13424   2.565   6.362  11.450
37217SOL    HW113425   2.553   6.435  11.511
37217SOL    HW213426   2.488   6.365  11.393
37218SOL     OW13427   8.856   0.536   2.707
37218SOL    HW113428   8.844   0.526   2.801
37218SOL    HW213429   8.925   0.601   2.698
37219SOL     OW13430   0.713  10.268  14.499
37219SOL    HW113431   0.781  10.325  14.461
37219SOL    HW213432   0.654  10.249  14.426
37220SOL     OW13433   1.072   4.130   7.953
37220SOL    HW113434   1.042   4.040   7.939
37220SOL    HW213435   1.137   4.143   7.884
37221SOL     OW13436  12.642   8.920   9.790
37221SOL    HW113437  12.572   8.981   9.765
37221SOL    HW213438  12.721   8.955   9.748
37222SOL     OW13439  13.053  10.769   7.989
37222SOL    HW113440  13.126  10.722   8.030
37222SOL    HW213441  12.980  10.757   8.049
37223SOL     OW13442  12.296   4.882   8.200
37223SOL    HW113443  12.289   4.839   8.285
37223SOL    HW213444  12.252   4.966   8.212
37224SOL     OW13445  14.090   4.728  10.777
37224SOL    HW113446  14.099   4.823  10.784
37224SOL    HW213447  14.000   4.710  10.806
37225SOL     OW13448  13.520   2.630   4.997
37225SOL    HW113449  13.601   2.665   5.033
37225SOL    HW213450  13.507   2.547   5.044
37226SOL     OW13451  11.279   5.094  14.490
37226SOL    HW113452  11.254   5.185  14.504
37226SOL    HW213453  11.230   5.045  14.555
37227SOL     OW13454   4.570  10.336   3.452
37227SOL    HW113455   4.486  10.308   3.415
37227SOL    HW213456   4.622  10.364   3.377
37228SOL     OW13457  11.165  11.162   5.505
37228SOL    HW113458  11.140  11.213   5.429
37228SOL    HW213459  11.243  11.113   5.478
37229SOL     OW13460  14.591   4.798   0.476
37229SOL    HW113461  14.649   4.873   0.491
37229SOL    HW213462  14.602   4.743   0.554
37230SOL     OW13463   2.191   0.730  14.263
37230SOL    HW113464   2.275   0.711  14.221
37230SOL    HW213465   2.202   0.818  14.300
37231SOL     OW13466   4.431   0.701   8.115
37231SOL    HW113467   4.373   0.664   8.049
37231SOL    HW213468   4.423   0.796   8.104
37232SOL     OW13469  12.031   5.956   7.688
37232SOL    HW113470  11.994   6.042   7.666
37232SOL    HW213471  12.055   5.963   7.780
37233SOL     OW13472   8.850   1.668   9.678
37233SOL    HW113473   8.831   1.600   9.742
37233SOL    HW213474   8.945   1.674   9.677
37234SOL     OW13475  13.054   8.639  13.229
37234SOL    HW113476  12.961   8.634  13.205
37234SOL    HW213477  13.083   8.548  13.233
37235SOL     OW13478   1.570   3.613   8.808
37235SOL    HW113479   1.543   3.523   8.820
37235SOL    HW213480   1.518   3.663   8.871
37236SOL     OW13481  12.721   5.114  11.738
37236SOL    HW113482  12.675   5.113  11.822
37236SOL    HW213483  12.675   5.180  11.686
37237SOL     OW13484  12.145   3.821   3.091
37237SOL    HW113485  12.174   3.905   3.127
37237SOL    HW213486  12.144   3.762   3.166
37238SOL     OW13487  10.316  10.157   8.213
37238SOL    HW113488  10.404  10.170   8.247
37238SOL    HW213489  10.301  10.233   8.156
37239SOL     OW13490  10.012   9.614   5.366
37239SOL    HW113491  10.007   9.543   5.430
37239SOL    HW213492   9.967   9.580   5.288
37240SOL     OW13493   7.009  14.024   9.734
37240SOL    HW113494   7.082  14.081   9.710
37240SOL    HW213495   6.954  14.077   9.792
37241SOL     OW13496   5.313   0.115   7.616
37241SOL    HW113497   5.340   0.165   7.693
37241SOL    HW213498   5.242   0.059   7.647
37242SOL     OW13499   6.880  14.078   7.031
37242SOL    HW113500   6.946  14.145   7.049
37242SOL    HW213501   6.828  14.115   6.959
37243SOL     OW13502   0.829  11.023   3.665
37243SOL    HW113503   0.798  11.113   3.675
37243SOL    HW213504   0.786  10.974   3.734
37244SOL     OW13505   6.479  12.537  12.491
37244SOL    HW113506   6.570  12.541  12.521
37244SOL    HW213507   6.446  12.626  12.501
37245SOL     OW13508  14.863   0.353   8.520
37245SOL    HW113509  14.775   0.367   8.553
37245SOL    HW213510   0.017   0.440   8.499
37246SOL     OW13511   6.450   8.763  12.340
37246SOL    HW113512   6.515   8.742  12.408
37246SOL    HW213513   6.485   8.842  12.298
37247SOL     OW13514   9.720   6.205   2.993
37247SOL    HW113515   9.667   6.273   3.032
37247SOL    HW213516   9.702   6.210   2.899
37248SOL     OW13517  12.948   1.278   3.445
37248SOL    HW113518  12.999   1.357   3.426
37248SOL    HW213519  12.871   1.310   3.492
37249SOL     OW13520   6.695   7.803  13.431
37249SOL    HW113521   6.724   7.767  13.348
37249SOL    HW213522   6.776   7.834  13.473
37250SOL     OW13523   1.537   1.445   9.759
37250SOL    HW113524   1.521   1.533   9.725
37250SOL    HW213525   1.450   1.409   9.774
37251SOL     OW13526  12.169   7.177   7.303
37251SOL    HW113527  12.188   7.083   7.301
37251SOL    HW213528  12.250   7.219   7.272
37252SOL     OW13529   4.696   1.421  12.061
37252SOL    HW113530   4.731   1.468  12.137
37252SOL    HW213531   4.665   1.338  12.096
37253SOL     OW13532  11.512  13.899   7.022
37253SOL    HW113533  11.508  13.960   6.947
37253SOL    HW213534  11.420  13.880   7.041
37254SOL     OW13535   2.709   3.214   7.938
37254SOL    HW113536   2.773   3.279   7.967
37254SOL    HW213537   2.626   3.261   7.940
37255SOL     OW13538  11.081  12.304   0.259
37255SOL    HW113539  11.175  12.323   0.253
37255SOL    HW213540  11.060  12.260   0.176
37256SOL     OW13541   6.513   5.200   4.106
37256SOL    HW113542   6.560   5.217   4.187
37256SOL    HW213543   6.546   5.266   4.045
37257SOL     OW13544  11.514   5.098   3.077
37257SOL    HW113545  11.523   5.019   3.022
37257SOL    HW213546  11.584   5.155   3.048
37258SOL     OW13547   2.823   4.549   2.698
37258SOL    HW113548   2.842   4.602   2.621
37258SOL    HW213549   2.878   4.587   2.767
37259SOL     OW13550   2.679   2.423   6.416
37259SOL    HW113551   2.708   2.493   6.476
37259SOL    HW213552   2.584   2.420   6.427
37260SOL     OW13553  13.284   8.470  11.719
37260SOL    HW113554  13.202   8.515  11.739
37260SOL    HW213555  13.320   8.446  11.804
37261SOL     OW13556   3.084   0.906  12.801
37261SOL    HW113557   3.122   0.994  12.792
37261SOL    HW213558   3.076   0.874  12.711
37262SOL     OW13559   7.675   2.087   5.273
37262SOL    HW113560   7.731   2.081   5.351
37262SOL    HW213561   7.644   1.997   5.259
37263SOL     OW13562   7.414   1.655   3.826
37263SOL    HW113563   7.353   1.607   3.883
37263SOL    HW213564   7.490   1.672   3.881
37264SOL     OW13565  11.583   4.497   8.280
37264SOL    HW113566  11.550   4.554   8.210
37264SOL    HW213567  11.677   4.490   8.263
37265SOL     OW13568   3.980  11.295   3.930
37265SOL    HW113569   4.051  11.303   3.994
37265SOL    HW213570   3.903  11.272   3.982
37266SOL     OW13571   3.213  14.739   3.428
37266SOL    HW113572   3.245  14.669   3.371
37266SOL    HW213573   3.119  14.743   3.411
37267SOL     OW13574   5.666  13.507   8.302
37267SOL    HW113575   5.700  13.431   8.254
37267SOL    HW213576   5.678  13.581   8.242
37268SOL     OW13577   8.511   4.256  10.960
37268SOL    HW113578   8.424   4.230  10.991
37268SOL    HW213579   8.557   4.285  11.039
37269SOL     OW13580   7.592   6.864   7.028
37269SOL    HW113581   7.675   6.875   6.981
37269SOL    HW213582   7.611   6.798   7.094
37270SOL     OW13583   6.144   1.620   3.549
37270SOL    HW113584   6.153   1.590   3.459
37270SOL    HW213585   6.232   1.617   3.586
37271SOL     OW13586  10.678  10.044   2.884
37271SOL    HW113587  10.677  10.016   2.792
37271SOL    HW213588  10.605   9.998   2.924
37272SOL     OW13589   2.888   7.475  10.760
37272SOL    HW113590   2.797   7.502  10.776
37272SOL    HW213591   2.941   7.547  10.795
37273SOL     OW13592   9.238   2.787  13.947
37273SOL    HW113593   9.274   2.836  13.874
37273SOL    HW213594   9.184   2.719  13.907
37274SOL     OW13595  13.869   2.752   1.531
37274SOL    HW113596  13.829   2.698   1.598
37274SOL    HW213597  13.806   2.753   1.459
37275SOL     OW13598   1.741  12.985   0.463
37275SOL    HW113599   1.783  12.962   0.380
37275SOL    HW213600   1.756  12.910   0.520
37276SOL     OW13601  14.846   3.730   1.196
37276SOL    HW113602  14.865   3.817   1.161
37276SOL    HW213603  14.875   3.735   1.287
37277SOL     OW13604   1.664  12.413   2.794
37277SOL    HW113605   1.604  12.486   2.779
37277SOL    HW213606   1.751  12.451   2.786
37278SOL     OW13607  12.418   7.211  13.671
37278SOL    HW113608  12.461   7.127  13.656
37278SOL    HW213609  12.403   7.247  13.584
37279SOL     OW13610  10.024  12.498   5.291
37279SOL    HW113611  10.084  12.472   5.221
37279SOL    HW213612  10.029  12.593   5.293
37280SOL     OW13613  12.759   0.737   4.809
37280SOL    HW113614  12.779   0.680   4.883
37280SOL    HW213615  12.751   0.677   4.734
37281SOL     OW13616   4.481  11.471  11.115
37281SOL    HW113617   4.563  11.520  11.105
37281SOL    HW213618   4.478  11.412  11.040
37282SOL     OW13619   8.132   3.647  12.150
37282SOL    HW113620   8.180   3.730  12.144
37282SOL    HW213621   8.063   3.654  12.084
37283SOL     OW13622  12.880  12.192   2.535
37283SOL    HW113623  12.827  12.240   2.472
37283SOL    HW213624  12.918  12.120   2.484
37284SOL     OW13625   0.034  11.990  12.387
37284SOL    HW113626   0.036  12.015  12.479
37284SOL    HW213627   0.108  11.929  12.378
37285SOL     OW13628   3.654   0.578  11.695
37285SOL    HW113629   3.615   0.625  11.621
37285SOL    HW213630   3.727   0.633  11.723
37286SOL     OW13631   2.461   2.338  14.200
37286SOL    HW113632   2.553   2.361  14.210
37286SOL    HW213633   2.414   2.400  14.256
37287SOL     OW13634   0.991   5.456   3.582
37287SOL    HW113635   0.973   5.385   3.643
37287SOL    HW213636   0.918   5.516   3.592
37288SOL     OW13637  12.183   0.950   3.438
37288SOL    HW113638  12.094   0.948   3.474
37288SOL    HW213639  12.171   0.983   3.349
37289SOL     OW13640   9.778  13.306   6.198
37289SOL    HW113641   9.820  13.378   6.245
37289SOL    HW213642   9.687  13.308   6.228
37290SOL     OW13643  10.675   6.808   5.201
37290SOL    HW113644  10.669   6.771   5.290
37290SOL    HW213645  10.603   6.769   5.153
37291SOL     OW13646  14.515  11.089   0.907
37291SOL    HW113647  14.557  11.169   0.875
37291SOL    HW213648  14.422  11.102   0.892
37292SOL     OW13649   3.838   6.108  10.876
37292SOL    HW113650   3.769   6.052  10.912
37292SOL    HW213651   3.795   6.191  10.856
37293SOL     OW13652  10.257   8.936   9.945
37293SOL    HW113653  10.165   8.938   9.919
37293SOL    HW213654  10.257   8.976  10.033
37294SOL     OW13655  12.296  10.362   5.346
37294SOL    HW113656  12.223  10.301   5.341
37294SOL    HW213657  12.334  10.348   5.433
37295SOL     OW13658   0.421  12.917   4.840
37295SOL    HW113659   0.374  12.906   4.922
37295SOL    HW213660   0.368  12.871   4.775
37296SOL     OW13661   7.213   2.689  12.619
37296SOL    HW113662   7.174   2.605  12.597
37296SOL    HW213663   7.299   2.688  12.576
37297SOL     OW13664  10.939   2.461   1.722
37297SOL    HW113665  10.851   2.425   1.716
37297SOL    HW213666  10.952   2.508   1.640
37298SOL     OW13667  10.331   8.378   8.639
37298SOL    HW113668  10.417   8.389   8.679
37298SOL    HW213669  10.297   8.467   8.631
37299SOL     OW13670   2.313   2.949   7.083
37299SOL    HW113671   2.408   2.943   7.088
37299SOL    HW213672   2.294   3.042   7.083
37300SOL     OW13673   4.571  14.609   9.641
37300SOL    HW113674   4.574  14.515   9.662
37300SOL    HW213675   4.573  14.612   9.546
37301SOL     OW13676   2.492   0.571   7.177
37301SOL    HW113677   2.462   0.549   7.266
37301SOL    HW213678   2.461   0.498   7.123
37302SOL     OW13679  13.703  13.221   0.052
37302SOL    HW113680  13.767  13.253  14.867
37302SOL    HW213681  13.651  13.157   0.003
37303SOL     OW13682   3.925   2.335   3.060
37303SOL    HW113683   3.894   2.372   3.143
37303SOL    HW213684   4.018   2.319   3.075
37304SOL     OW13685  12.139   3.625   7.795
37304SOL    HW113686  12.142   3.712   7.835
37304SOL    HW213687  12.146   3.641   7.701
37305SOL     OW13688   6.606  14.801   9.220
37305SOL    HW113689   6.648  14.737   9.162
37305SOL    HW213690   6.679  14.851   9.257
37306SOL     OW13691  11.689   1.761   7.665
37306SOL    HW113692  11.601   1.745   7.698
37306SOL    HW213693  11.721   1.674   7.641
37307SOL     OW13694  14.661   6.098   3.361
37307SOL    HW113695  14.665   6.056   3.447
37307SOL    HW213696  14.619   6.182   3.377
37308SOL     OW13697   9.745   7.472  14.058
37308SOL    HW113698   9.664   7.454  14.107
37308SOL    HW213699   9.718   7.534  13.990
37309SOL     OW13700   6.157   5.558   4.240
37309SOL    HW113701   6.216   5.490   4.207
37309SOL    HW213702   6.084   5.558   4.178
37310SOL     OW13703  12.402   4.245   1.400
37310SOL    HW113704  12.401   4.317   1.337
37310SOL    HW213705  12.495   4.224   1.411
37311SOL     OW13706  10.266  13.847   7.730
37311SOL    HW113707  10.224  13.809   7.654
37311SOL    HW213708  10.220  13.808   7.805
37312SOL     OW13709  12.952  12.372   1.089
37312SOL    HW113710  12.873  12.333   1.051
37312SOL    HW213711  13.001  12.298   1.123
37313SOL     OW13712  13.643   1.033   4.514
37313SOL    HW113713  13.671   0.979   4.588
37313SOL    HW213714  13.709   1.017   4.447
37314SOL     OW13715   0.578  14.584   9.901
37314SOL    HW113716   0.572  14.543   9.815
37314SOL    HW213717   0.545  14.518   9.962
37315SOL     OW13718  11.050  11.070  11.919
37315SOL    HW113719  11.051  11.089  11.826
37315SOL    HW213720  10.996  10.991  11.927
37316SOL     OW13721  11.165   4.725   9.187
37316SOL    HW113722  11.195   4.637   9.211
37316SOL    HW213723  11.090   4.741   9.244
37317SOL     OW13724  10.019   4.020  10.206
37317SOL    HW113725  10.015   4.103  10.255
37317SOL    HW213726  10.085   3.968  10.252
37318SOL     OW13727  12.570  12.216   1.585
37318SOL    HW113728  12.594  12.307   1.604
37318SOL    HW213729  12.635  12.187   1.521
37319SOL     OW13730  11.397   3.314   0.675
37319SOL    HW113731  11.329   3.248   0.689
37319SOL    HW213732  11.421   3.343   0.763
37320SOL     OW13733   4.766   7.433  13.938
37320SOL    HW113734   4.750   7.460  13.848
37320SOL    HW213735   4.691   7.467  13.987
37321SOL     OW13736   8.381   5.496   7.528
37321SOL    HW113737   8.308   5.532   7.578
37321SOL    HW213738   8.339   5.445   7.458
37322SOL     OW13739  10.844   4.125   9.216
37322SOL    HW113740  10.769   4.154   9.268
37322SOL    HW213741  10.869   4.040   9.252
37323SOL     OW13742  10.509   0.349  11.421
37323SOL    HW113743  10.488   0.256  11.428
37323SOL    HW213744  10.583   0.360  11.481
37324SOL     OW13745   2.081   7.208   6.281
37324SOL    HW113746   1.992   7.241   6.282
37324SOL    HW213747   2.083   7.145   6.209
37325SOL     OW13748   9.831   3.446   8.248
37325SOL    HW113749   9.772   3.373   8.230
37325SOL    HW213750   9.777   3.524   8.238
37326SOL     OW13751   6.995  10.714  12.298
37326SOL    HW113752   7.047  10.681  12.371
37326SOL    HW213753   6.950  10.637  12.263
37327SOL     OW13754  11.033  10.921   9.792
37327SOL    HW113755  11.055  10.899   9.702
37327SOL    HW213756  11.045  11.016   9.798
37328SOL     OW13757   7.469   4.038  10.744
37328SOL    HW113758   7.400   3.999  10.692
37328SOL    HW213759   7.526   3.965  10.768
37329SOL     OW13760   3.674   6.127   2.601
37329SOL    HW113761   3.594   6.179   2.587
37329SOL    HW213762   3.690   6.086   2.516
37330SOL     OW13763   7.564  12.964   1.959
37330SOL    HW113764   7.565  12.873   1.988
37330SOL    HW213765   7.554  12.959   1.864
37331SOL     OW13766  11.996  14.481   1.010
37331SOL    HW113767  12.038  14.426   1.076
37331SOL    HW213768  12.037  14.457   0.927
37332SOL     OW13769   5.537   9.706   5.934
37332SOL    HW113770   5.523   9.735   5.844
37332SOL    HW213771   5.621   9.744   5.960
37333SOL     OW13772   4.519  12.703  10.383
37333SOL    HW113773   4.582  12.775  10.390
37333SOL    HW213774   4.573  12.624  10.387
37334SOL     OW13775   4.295  12.558   3.640
37334SOL    HW113776   4.377  12.571   3.686
37334SOL    HW213777   4.263  12.474   3.673
37335SOL     OW13778   8.314  14.178   1.081
37335SOL    HW113779   8.335  14.086   1.066
37335SOL    HW213780   8.218  14.180   1.081
37336SOL     OW13781   7.266  11.851   2.104
37336SOL    HW113782   7.248  11.890   2.018
37336SOL    HW213783   7.207  11.897   2.164
37337SOL     OW13784  14.536   6.760  14.073
37337SOL    HW113785  14.538   6.671  14.109
37337SOL    HW213786  14.535   6.816  14.150
37338SOL     OW13787   9.020   5.278   7.335
37338SOL    HW113788   9.097   5.307   7.287
37338SOL    HW213789   8.986   5.204   7.284
37339SOL     OW13790   6.806   7.013   7.584
37339SOL    HW113791   6.866   7.082   7.555
37339SOL    HW213792   6.788   6.963   7.505
37340SOL     OW13793  12.465   2.088   0.117
37340SOL    HW113794  12.452   1.996   0.142
37340SOL    HW213795  12.380   2.115   0.083
37341SOL     OW13796  13.325   8.929   3.134
37341SOL    HW113797  13.316   8.933   3.229
37341SOL    HW213798  13.420   8.930   3.118
37342SOL     OW13799  10.827  10.904   0.085
37342SOL    HW113800  10.747  10.954   0.098
37342SOL    HW213801  10.802  10.834   0.024
37343SOL     OW13802   3.443  10.501  14.752
37343SOL    HW113803   3.517  10.543  14.796
37343SOL    HW213804   3.476  10.414  14.729
37344SOL     OW13805  11.898   3.558  11.855
37344SOL    HW113806  11.818   3.507  11.870
37344SOL    HW213807  11.868   3.649  11.849
37345SOL     OW13808   4.572   1.963   4.061
37345SOL    HW113809   4.598   1.885   4.012
37345SOL    HW213810   4.478   1.970   4.047
37346SOL     OW13811  12.759   4.975   8.241
37346SOL    HW113812  12.758   5.054   8.295
37346SOL    HW213813  12.851   4.950   8.236
37347SOL     OW13814   4.844  12.273  14.874
37347SOL    HW113815   4.894  12.271   0.078
37347SOL    HW213816   4.895  12.328  14.815
37348SOL     OW13817   7.919  14.727   1.570
37348SOL    HW113818   7.888  14.637   1.582
37348SOL    HW213819   7.891  14.772   1.650
37349SOL     OW13820   4.118   8.872  10.072
37349SOL    HW113821   4.184   8.882  10.004
37349SOL    HW213822   4.060   8.803  10.040
37350SOL     OW13823   6.833   1.346   5.169
37350SOL    HW113824   6.797   1.270   5.215
37350SOL    HW213825   6.914   1.366   5.216
37351SOL     OW13826   4.098   2.079  11.246
37351SOL    HW113827   4.009   2.086  11.210
37351SOL    HW213828   4.117   2.166  11.280
37352SOL     OW13829   0.308   8.127   4.970
37352SOL    HW113830   0.254   8.048   4.971
37352SOL    HW213831   0.334   8.138   4.879
37353SOL     OW13832   0.313   0.937  10.552
37353SOL    HW113833   0.253   0.888  10.609
37353SOL    HW213834   0.329   0.878  10.478
37354SOL     OW13835   0.867   6.941  14.723
37354SOL    HW113836   0.901   7.000  14.789
37354SOL    HW213837   0.936   6.876  14.709
37355SOL     OW13838   8.019   2.251   5.726
37355SOL    HW113839   8.101   2.284   5.688
37355SOL    HW213840   8.033   2.254   5.820
37356SOL     OW13841   9.057   0.796  14.393
37356SOL    HW113842   9.122   0.725  14.390
37356SOL    HW213843   9.071   0.838  14.477
37357SOL     OW13844   8.838   5.348   7.496
37357SOL    HW113845   8.891   5.325   7.420
37357SOL    HW213846   8.870   5.289   7.565
37358SOL     OW13847   3.846   5.294   4.645
37358SOL    HW113848   3.894   5.347   4.708
37358SOL    HW213849   3.758   5.332   4.643
37359SOL     OW13850   8.231   3.300  14.744
37359SOL    HW113851   8.191   3.228  14.695
37359SOL    HW213852   8.221   3.274  14.836
37360SOL     OW13853  11.013   1.244   5.416
37360SOL    HW113854  10.956   1.167   5.411
37360SOL    HW213855  10.969   1.310   5.362
37361SOL     OW13856  13.487  14.584   3.219
37361SOL    HW113857  13.419  14.615   3.159
37361SOL    HW213858  13.559  14.558   3.162
37362SOL     OW13859   7.595  13.899   6.840
37362SOL    HW113860   7.619  13.940   6.923
37362SOL    HW213861   7.505  13.927   6.824
37363SOL     OW13862   9.129   1.564   0.542
37363SOL    HW113863   9.176   1.516   0.610
37363SOL    HW213864   9.140   1.511   0.463
37364SOL     OW13865   3.572   4.391  11.314
37364SOL    HW113866   3.562   4.341  11.395
37364SOL    HW213867   3.665   4.411  11.308
37365SOL     OW13868   7.849   6.847   8.076
37365SOL    HW113869   7.820   6.804   8.157
37365SOL    HW213870   7.917   6.908   8.104
37366SOL     OW13871  12.367  10.559  12.249
37366SOL    HW113872  12.307  10.631  12.268
37366SOL    HW213873  12.361  10.501  12.325
37367SOL     OW13874   2.010   4.392   8.551
37367SOL    HW113875   1.923   4.387   8.510
37367SOL    HW213876   1.999   4.452   8.625
37368SOL     OW13877   5.879   9.222  10.176
37368SOL    HW113878   5.813   9.209  10.108
37368SOL    HW213879   5.951   9.164  10.151
37369SOL     OW13880   3.320   0.964   5.008
37369SOL    HW113881   3.252   0.903   4.977
37369SOL    HW213882   3.293   0.985   5.097
37370SOL     OW13883   8.950  10.711  10.262
37370SOL    HW113884   8.979  10.653  10.333
37370SOL    HW213885   8.871  10.753  10.296
37371SOL     OW13886   8.422   6.752   9.126
37371SOL    HW113887   8.476   6.677   9.102
37371SOL    HW213888   8.393   6.789   9.043
37372SOL     OW13889  12.672   8.497   6.246
37372SOL    HW113890  12.652   8.427   6.308
37372SOL    HW213891  12.767   8.504   6.249
37373SOL     OW13892  10.967   9.101  13.989
37373SOL    HW113893  10.922   9.063  13.914
37373SOL    HW213894  11.031   9.161  13.951
37374SOL     OW13895  11.591   7.874  10.142
37374SOL    HW113896  11.582   7.950  10.200
37374SOL    HW213897  11.682   7.879  10.111
37375SOL     OW13898   3.552  11.149   2.551
37375SOL    HW113899   3.523  11.123   2.464
37375SOL    HW213900   3.503  11.091   2.610
37376SOL     OW13901   2.621   0.924   2.698
37376SOL    HW113902   2.627   0.873   2.779
37376SOL    HW213903   2.712   0.944   2.676
37377SOL     OW13904  14.454   8.749   9.648
37377SOL    HW113905  14.479   8.740   9.740
37377SOL    HW213906  14.368   8.708   9.643
37378SOL     OW13907   4.365   9.582  13.211
37378SOL    HW113908   4.357   9.612  13.121
37378SOL    HW213909   4.341   9.489  13.208
37379SOL     OW13910   0.259   9.364  14.446
37379SOL    HW113911   0.301   9.430  14.391
37379SOL    HW213912   0.165   9.374  14.428
37380SOL     OW13913  10.746   6.012   3.865
37380SOL    HW113914  10.780   5.993   3.778
37380SOL    HW213915  10.814   5.980   3.925
37381SOL     OW13916   6.229   9.868  10.904
37381SOL    HW113917   6.283   9.941  10.935
37381SOL    HW213918   6.269   9.791  10.944
37382SOL     OW13919   3.017  12.905   8.462
37382SOL    HW113920   3.110  12.903   8.483
37382SOL    HW213921   2.975  12.941   8.541
37383SOL     OW13922   7.788  14.188   6.812
37383SOL    HW113923   7.829  14.102   6.824
37383SOL    HW213924   7.862  14.249   6.808
37384SOL     OW13925  13.126   5.595   4.762
37384SOL    HW113926  13.092   5.657   4.697
37384SOL    HW213927  13.062   5.523   4.763
37385SOL     OW13928  14.048  12.690   9.313
37385SOL    HW113929  14.027  12.780   9.287
37385SOL    HW213930  13.965  12.644   9.314
37386SOL     OW13931   6.971   8.232   7.377
37386SOL    HW113932   6.908   8.162   7.361
37386SOL    HW213933   7.003   8.216   7.465
37387SOL     OW13934  11.303  13.054  11.325
37387SOL    HW113935  11.257  13.009  11.254
37387SOL    HW213936  11.263  13.141  11.328
37388SOL     OW13937   2.769   1.958   8.903
37388SOL    HW113938   2.743   2.051   8.904
37388SOL    HW213939   2.831   1.952   8.830
37389SOL     OW13940   0.125   4.935   3.511
37389SOL    HW113941   0.111   4.859   3.568
37389SOL    HW213942   0.098   4.906   3.424
37390SOL     OW13943   0.613   9.088  11.995
37390SOL    HW113944   0.604   9.180  11.970
37390SOL    HW213945   0.702   9.065  11.967
37391SOL     OW13946   7.429   2.773  13.206
37391SOL    HW113947   7.433   2.719  13.128
37391SOL    HW213948   7.509   2.826  13.203
37392SOL     OW13949   3.398   8.018  11.530
37392SOL    HW113950   3.415   7.951  11.463
37392SOL    HW213951   3.436   8.098  11.494
37393SOL     OW13952   4.724   9.152   4.518
37393SOL    HW113953   4.687   9.224   4.466
37393SOL    HW213954   4.787   9.195   4.576
37394SOL     OW13955   7.683  13.565  13.145
37394SOL    HW113956   7.691  13.601  13.057
37394SOL    HW213957   7.590  13.541  13.152
37395SOL     OW13958  13.455  11.285  10.349
37395SOL    HW113959  13.450  11.267  10.443
37395SOL    HW213960  13.397  11.219  10.309
37396SOL     OW13961   9.821   7.888   6.761
37396SOL    HW113962   9.795   7.803   6.796
37396SOL    HW213963   9.740   7.940   6.763
37397SOL     OW13964   5.789   0.017  14.848
37397SOL    HW113965   5.721  14.854   0.024
37397SOL    HW213966   5.750   0.020  14.760
37398SOL     OW13967  12.532   8.259  10.801
37398SOL    HW113968  12.530   8.316  10.878
37398SOL    HW213969  12.471   8.300  10.740
37399SOL     OW13970  14.199  10.398   5.694
37399SOL    HW113971  14.274  10.432   5.743
37399SOL    HW213972  14.238  10.341   5.627
37400SOL     OW13973  12.261   2.548  12.425
37400SOL    HW113974  12.175   2.508  12.427
37400SOL    HW213975  12.273   2.582  12.514
37401SOL     OW13976   2.824   9.402   0.997
37401SOL    HW113977   2.756   9.415   0.931
37401SOL    HW213978   2.884   9.475   0.984
37402SOL     OW13979  11.236   9.086   1.204
37402SOL    HW113980  11.308   9.040   1.246
37402SOL    HW213981  11.273   9.171   1.179
37403SOL     OW13982  12.324   3.334  12.013
37403SOL    HW113983  12.417   3.340  11.988
37403SOL    HW213984  12.286   3.275  11.948
37404SOL     OW13985   5.922   3.017  14.791
37404SOL    HW113986   5.903   3.059  14.707
37404SOL    HW213987   5.853   3.047  14.849
37405SOL     OW13988  12.781   3.624   7.030
37405SOL    HW113989  12.808   3.627   6.938
37405SOL    HW213990  12.861   3.604   7.078
37406SOL     OW13991   2.374   7.450   8.310
37406SOL    HW113992   2.417   7.365   8.311
37406SOL    HW213993   2.440   7.510   8.275
37407SOL     OW13994   4.548  14.583   0.611
37407SOL    HW113995   4.517  14.555   0.697
37407SOL    HW213996   4.629  14.631   0.630
37408SOL     OW13997   8.450   7.341  13.383
37408SOL    HW113998   8.457   7.436  13.374
37408SOL    HW213999   8.411   7.312  13.301
37409SOL     OW14000   7.699   9.613   3.512
37409SOL    HW114001   7.661   9.526   3.528
37409SOL    HW214002   7.791   9.596   3.494
37410SOL     OW14003  13.502   2.253   3.429
37410SOL    HW114004  13.560   2.194   3.478
37410SOL    HW214005  13.519   2.232   3.337
37411SOL     OW14006   5.467  13.228   3.273
37411SOL    HW114007   5.540  13.195   3.222
37411SOL    HW214008   5.507  13.278   3.344
37412SOL     OW14009   0.763  10.521   6.423
37412SOL    HW114010   0.685  10.492   6.470
37412SOL    HW214011   0.809  10.440   6.400
37413SOL     OW14012   9.951   9.962  10.175
37413SOL    HW114013   9.938  10.056  10.184
37413SOL    HW214014   9.863   9.925  10.179
37414SOL     OW14015  13.770   1.211  12.630
37414SOL    HW114016  13.768   1.186  12.723
37414SOL    HW214017  13.707   1.282  12.623
37415SOL     OW14018   1.807   3.960   1.719
37415SOL    HW114019   1.786   3.975   1.627
37415SOL    HW214020   1.851   4.041   1.747
37416SOL     OW14021   9.152   9.546   3.036
37416SOL    HW114022   9.110   9.630   3.013
37416SOL    HW214023   9.079   9.488   3.057
37417SOL     OW14024  13.566   4.440   8.994
37417SOL    HW114025  13.512   4.457   9.070
37417SOL    HW214026  13.585   4.527   8.958
37418SOL     OW14027   5.071   5.198   3.222
37418SOL    HW114028   5.125   5.170   3.149
37418SOL    HW214029   5.044   5.287   3.200
37419SOL     OW14030   0.466   5.309  14.744
37419SOL    HW114031   0.463   5.291  14.650
37419SOL    HW214032   0.557   5.333  14.760
37420SOL     OW14033  12.376   3.386   8.915
37420SOL    HW114034  12.341   3.323   8.978
37420SOL    HW214035  12.317   3.382   8.840
37421SOL     OW14036   6.018  11.878  11.356
37421SOL    HW114037   6.003  11.972  11.366
37421SOL    HW214038   6.039  11.867  11.263
37422SOL     OW14039   5.785   9.699   6.555
37422SOL    HW114040   5.824   9.776   6.595
37422SOL    HW214041   5.775   9.637   6.628
37423SOL     OW14042  13.997  11.488   2.864
37423SOL    HW114043  13.918  11.512   2.913
37423SOL    HW214044  14.040  11.571   2.844
37424SOL     OW14045   6.071  10.126   7.339
37424SOL    HW114046   5.983  10.130   7.376
37424SOL    HW214047   6.096  10.033   7.345
37425SOL     OW14048   3.444   5.328   3.565
37425SOL    HW114049   3.436   5.275   3.485
37425SOL    HW214050   3.419   5.268   3.635
37426SOL     OW14051   4.222   5.252  11.347
37426SOL    HW114052   4.187   5.221  11.431
37426SOL    HW214053   4.282   5.323  11.372
37427SOL     OW14054  10.493   6.533  10.572
37427SOL    HW114055  10.539   6.617  10.565
37427SOL    HW214056  10.403   6.554  10.547
37428SOL     OW14057  11.838   5.314  12.251
37428SOL    HW114058  11.796   5.243  12.300
37428SOL    HW214059  11.803   5.306  12.163
37429SOL     OW14060  13.076   8.148   9.893
37429SOL    HW114061  13.093   8.084   9.963
37429SOL    HW214062  13.078   8.096   9.813
37430SOL     OW14063  11.016  10.151   0.960
37430SOL    HW114064  11.112  10.148   0.966
37430SOL    HW214065  10.999  10.180   0.870
37431SOL     OW14066   8.188   3.337   7.902
37431SOL    HW114067   8.096   3.342   7.930
37431SOL    HW214068   8.188   3.268   7.835
37432SOL     OW14069  14.054   8.717   1.993
37432SOL    HW114070  14.109   8.789   2.024
37432SOL    HW214071  14.073   8.645   2.054
37433SOL     OW14072   4.860   9.400   9.187
37433SOL    HW114073   4.861   9.375   9.095
37433SOL    HW214074   4.901   9.486   9.189
37434SOL     OW14075   4.677  13.705  14.742
37434SOL    HW114076   4.736  13.742  14.677
37434SOL    HW214077   4.735  13.669  14.809
37435SOL     OW14078   7.536  11.073   5.245
37435SOL    HW114079   7.463  11.136   5.243
37435SOL    HW214080   7.614  11.127   5.234
37436SOL     OW14081  13.492  10.337   4.769
37436SOL    HW114082  13.548  10.339   4.692
37436SOL    HW214083  13.420  10.396   4.749
37437SOL     OW14084   5.255   6.414  12.882
37437SOL    HW114085   5.313   6.346  12.916
37437SOL    HW214086   5.270   6.490  12.938
37438SOL     OW14087   8.193   2.092  13.980
37438SOL    HW114088   8.283   2.063  13.994
37438SOL    HW214089   8.179   2.160  14.045
37439SOL     OW14090   5.509   2.692   3.151
37439SOL    HW114091   5.469   2.685   3.238
37439SOL    HW214092   5.454   2.756   3.105
37440SOL     OW14093  10.293   5.846   4.006
37440SOL    HW114094  10.388   5.835   4.012
37440SOL    HW214095  10.275   5.925   4.056
37441SOL     OW14096  12.148   3.175   2.863
37441SOL    HW114097  12.103   3.221   2.933
37441SOL    HW214098  12.102   3.200   2.783
37442SOL     OW14099   4.585   7.264   9.216
37442SOL    HW114100   4.617   7.305   9.296
37442SOL    HW214101   4.521   7.326   9.181
37443SOL     OW14102  11.983   0.502   2.906
37443SOL    HW114103  11.960   0.567   2.840
37443SOL    HW214104  11.929   0.426   2.885
37444SOL     OW14105   3.272   9.087  10.052
37444SOL    HW114106   3.205   9.054  10.112
37444SOL    HW214107   3.347   9.030  10.066
37445SOL     OW14108   7.108   3.414   9.536
37445SOL    HW114109   7.066   3.419   9.450
37445SOL    HW214110   7.118   3.320   9.552
37446SOL     OW14111   3.504   0.054   4.120
37446SOL    HW114112   3.519   0.128   4.179
37446SOL    HW214113   3.552  14.860   4.159
37447SOL     OW14114  14.369  12.959   1.242
37447SOL    HW114115  14.316  12.917   1.310
37447SOL    HW214116  14.334  12.923   1.160
37448SOL     OW14117   6.073  11.100   7.091
37448SOL    HW114118   6.068  11.052   7.174
37448SOL    HW214119   6.044  11.188   7.112
37449SOL     OW14120   1.113   1.926   6.484
37449SOL    HW114121   1.076   1.988   6.422
37449SOL    HW214122   1.094   1.840   6.447
37450SOL     OW14123  14.687   3.962  13.276
37450SOL    HW114124  14.779   3.983  13.260
37450SOL    HW214125  14.680   3.870  13.253
37451SOL     OW14126   2.715   1.948   3.256
37451SOL    HW114127   2.631   1.909   3.235
37451SOL    HW214128   2.725   1.936   3.350
37452SOL     OW14129  13.033   7.012   0.994
37452SOL    HW114130  12.966   7.079   1.000
37452SOL    HW214131  12.991   6.938   0.951
37453SOL     OW14132   8.842   4.778   2.203
37453SOL    HW114133   8.754   4.760   2.237
37453SOL    HW214134   8.840   4.871   2.180
37454SOL     OW14135   8.499  14.781   0.534
37454SOL    HW114136   8.543  14.845   0.591
37454SOL    HW214137   8.406  14.794   0.552
37455SOL     OW14138   5.123  10.849   3.407
37455SOL    HW114139   5.056  10.904   3.447
37455SOL    HW214140   5.150  10.898   3.329
37456SOL     OW14141   2.854   5.277   6.460
37456SOL    HW114142   2.889   5.191   6.481
37456SOL    HW214143   2.862   5.284   6.365
37457SOL     OW14144  11.597  14.877   5.884
37457SOL    HW114145  11.628  14.848   5.969
37457SOL    HW214146  11.651   0.076   5.863
37458SOL     OW14147   5.333   1.731   4.206
37458SOL    HW114148   5.261   1.748   4.146
37458SOL    HW214149   5.362   1.642   4.184
37459SOL     OW14150   2.497   0.705  11.254
37459SOL    HW114151   2.527   0.668  11.171
37459SOL    HW214152   2.491   0.629  11.313
37460SOL     OW14153  11.936  13.157   5.264
37460SOL    HW114154  11.869  13.224   5.264
37460SOL    HW214155  12.016  13.203   5.291
37461SOL     OW14156   4.686   4.600   2.027
37461SOL    HW114157   4.766   4.629   1.983
37461SOL    HW214158   4.615   4.647   1.983
37462SOL     OW14159   9.142   0.860   6.567
37462SOL    HW114160   9.069   0.874   6.506
37462SOL    HW214161   9.102   0.816   6.642
37463SOL     OW14162   6.055  13.721   1.177
37463SOL    HW114163   6.058  13.805   1.223
37463SOL    HW214164   6.139  13.716   1.131
37464SOL     OW14165   4.021   5.610  14.591
37464SOL    HW114166   4.040   5.704  14.589
37464SOL    HW214167   4.087   5.574  14.651
37465SOL     OW14168  12.215   3.922   0.102
37465SOL    HW114169  12.260   3.967   0.173
37465SOL    HW214170  12.250   3.833   0.104
37466SOL     OW14171   4.827  13.075   2.275
37466SOL    HW114172   4.809  13.096   2.183
37466SOL    HW214173   4.916  13.041   2.275
37467SOL     OW14174   8.195  12.407  13.223
37467SOL    HW114175   8.246  12.482  13.191
37467SOL    HW214176   8.109  12.418  13.183
37468SOL     OW14177   6.020   4.050  12.998
37468SOL    HW114178   5.983   4.124  13.047
37468SOL    HW214179   6.109   4.077  12.978
37469SOL     OW14180   9.198   0.595  11.548
37469SOL    HW114181   9.171   0.644  11.470
37469SOL    HW214182   9.280   0.636  11.575
37470SOL     OW14183   4.898   9.303   6.834
37470SOL    HW114184   4.961   9.357   6.882
37470SOL    HW214185   4.877   9.354   6.756
37471SOL     OW14186   5.528  11.485   2.063
37471SOL    HW114187   5.476  11.565   2.070
37471SOL    HW214188   5.481  11.421   2.117
37472SOL     OW14189   7.373   0.615  14.416
37472SOL    HW114190   7.367   0.601  14.511
37472SOL    HW214191   7.405   0.704  14.407
37473SOL     OW14192   0.425   9.459   0.341
37473SOL    HW114193   0.430   9.364   0.337
37473SOL    HW214194   0.516   9.488   0.331
37474SOL     OW14195  12.863   2.544   4.673
37474SOL    HW114196  12.796   2.612   4.671
37474SOL    HW214197  12.861   2.512   4.763
37475SOL     OW14198  12.487  13.110   5.406
37475SOL    HW114199  12.509  13.023   5.372
37475SOL    HW214200  12.572  13.155   5.414
37476SOL     OW14201   4.050   0.449   0.216
37476SOL    HW114202   3.980   0.419   0.274
37476SOL    HW214203   4.105   0.371   0.204
37477SOL     OW14204   7.560   1.473   5.546
37477SOL    HW114205   7.484   1.532   5.543
37477SOL    HW214206   7.573   1.446   5.456
37478SOL     OW14207  13.852   1.610  13.281
37478SOL    HW114208  13.922   1.657  13.327
37478SOL    HW214209  13.778   1.671  13.281
37479SOL     OW14210   7.185   2.268  12.209
37479SOL    HW114211   7.136   2.252  12.289
37479SOL    HW214212   7.129   2.233  12.140
37480SOL     OW14213  12.805   8.588   7.593
37480SOL    HW114214  12.729   8.582   7.534
37480SOL    HW214215  12.834   8.679   7.585
37481SOL     OW14216   4.221  11.292  13.575
37481SOL    HW114217   4.241  11.265  13.665
37481SOL    HW214218   4.279  11.239  13.521
37482SOL     OW14219  13.061   1.296  10.658
37482SOL    HW114220  13.088   1.356  10.728
37482SOL    HW214221  13.110   1.325  10.582
37483SOL     OW14222  10.588  11.041   5.840
37483SOL    HW114223  10.675  11.021   5.804
37483SOL    HW214224  10.536  10.962   5.822
37484SOL     OW14225   1.512   8.422   1.262
37484SOL    HW114226   1.469   8.389   1.183
37484SOL    HW214227   1.493   8.357   1.329
37485SOL     OW14228   5.973   6.813  12.317
37485SOL    HW114229   6.041   6.866  12.357
37485SOL    HW214230   5.952   6.746  12.383
37486SOL     OW14231   6.491  10.209   9.783
37486SOL    HW114232   6.564  10.268   9.765
37486SOL    HW214233   6.483  10.157   9.703
37487SOL     OW14234   9.589   3.939   9.090
37487SOL    HW114235   9.520   3.935   9.024
37487SOL    HW214236   9.611   3.847   9.107
37488SOL     OW14237  11.906  13.229  10.429
37488SOL    HW114238  11.971  13.162  10.448
37488SOL    HW214239  11.953  13.312  10.438
37489SOL     OW14240   7.264  10.107   8.867
37489SOL    HW114241   7.183  10.155   8.884
37489SOL    HW214242   7.315  10.115   8.948
37490SOL     OW14243  11.858   4.988   1.576
37490SOL    HW114244  11.839   5.048   1.649
37490SOL    HW214245  11.913   4.920   1.615
37491SOL     OW14246   4.235  12.883   0.702
37491SOL    HW114247   4.196  12.962   0.738
37491SOL    HW214248   4.163  12.819   0.700
37492SOL     OW14249   0.363   5.924   8.916
37492SOL    HW114250   0.290   5.898   8.972
37492SOL    HW214251   0.346   5.879   8.832
37493SOL     OW14252  12.730   2.087   2.499
37493SOL    HW114253  12.724   1.996   2.469
37493SOL    HW214254  12.824   2.102   2.511
37494SOL     OW14255   3.052   2.541  13.811
37494SOL    HW114256   3.005   2.462  13.838
37494SOL    HW214257   3.079   2.523  13.721
37495SOL     OW14258  14.272   4.771   5.737
37495SOL    HW114259  14.245   4.687   5.699
37495SOL    HW214260  14.368   4.766   5.740
37496SOL     OW14261   6.870  11.343   2.698
37496SOL    HW114262   6.872  11.364   2.605
37496SOL    HW214263   6.780  11.362   2.726
37497SOL     OW14264  12.574  12.852   5.284
37497SOL    HW114265  12.488  12.813   5.292
37497SOL    HW214266  12.634  12.787   5.320
37498SOL     OW14267  13.788   4.811   7.663
37498SOL    HW114268  13.834   4.873   7.606
37498SOL    HW214269  13.781   4.732   7.611
37499SOL     OW14270   6.895  14.821   5.699
37499SOL    HW114271   6.972  14.819   5.642
37499SOL    HW214272   6.911   0.017   5.759
37500SOL     OW14273   2.724   3.714   7.853
37500SOL    HW114274   2.655   3.765   7.894
37500SOL    HW214275   2.788   3.778   7.824
37501SOL     OW14276   6.374   3.100   0.215
37501SOL    HW114277   6.355   3.007   0.225
37501SOL    HW214278   6.298   3.135   0.168
37502SOL     OW14279   8.104  13.917  12.145
37502SOL    HW114280   8.191  13.912  12.106
37502SOL    HW214281   8.105  13.851  12.214
37503SOL     OW14282   3.446   4.158   6.129
37503SOL    HW114283   3.444   4.251   6.151
37503SOL    HW214284   3.460   4.114   6.213
37504SOL     OW14285   4.028   0.922   2.408
37504SOL    HW114286   3.961   0.869   2.364
37504SOL    HW214287   4.078   0.961   2.336
37505SOL     OW14288   7.297  14.520   7.083
37505SOL    HW114289   7.372  14.578   7.094
37505SOL    HW214290   7.335  14.434   7.068
37506SOL     OW14291   1.734   1.493   8.510
37506SOL    HW114292   1.820   1.475   8.549
37506SOL    HW214293   1.745   1.475   8.417
37507SOL     OW14294  12.551   0.936  11.818
37507SOL    HW114295  12.645   0.924  11.836
37507SOL    HW214296  12.536   0.889  11.736
37508SOL     OW14297   0.572   8.060   0.378
37508SOL    HW114298   0.522   8.050   0.459
37508SOL    HW214299   0.596   7.970   0.354
37509SOL     OW14300   6.377   1.673  11.888
37509SOL    HW114301   6.432   1.598  11.865
37509SOL    HW214302   6.408   1.700  11.974
37510SOL     OW14303  11.128   8.467  11.293
37510SOL    HW114304  11.172   8.505  11.369
37510SOL    HW214305  11.107   8.378  11.320
37511SOL     OW14306   4.681   2.810  13.694
37511SOL    HW114307   4.615   2.871  13.728
37511SOL    HW214308   4.690   2.744  13.763
37512SOL     OW14309   2.403   6.027   4.033
37512SOL    HW114310   2.348   5.978   4.095
37512SOL    HW214311   2.402   5.974   3.953
37513SOL     OW14312  12.182  13.716   5.724
37513SOL    HW114313  12.260  13.688   5.677
37513SOL    HW214314  12.158  13.800   5.683
37514SOL     OW14315  11.059  12.818   5.111
37514SOL    HW114316  11.020  12.731   5.118
37514SOL    HW214317  10.987  12.875   5.084
37515SOL     OW14318   5.795   4.490  12.945
37515SOL    HW114319   5.752   4.539  12.875
37515SOL    HW214320   5.725   4.471  13.008
37516SOL     OW14321  11.728  11.226  13.182
37516SOL    HW114322  11.715  11.148  13.236
37516SOL    HW214323  11.779  11.194  13.107
37517SOL     OW14324  14.536  11.644   3.527
37517SOL    HW114325  14.461  11.690   3.489
37517SOL    HW214326  14.546  11.566   3.472
37518SOL     OW14327   4.214  11.253  14.260
37518SOL    HW114328   4.185  11.317  14.326
37518SOL    HW214329   4.307  11.239  14.280
37519SOL     OW14330  13.028   8.240   1.069
37519SOL    HW114331  12.946   8.241   1.118
37519SOL    HW214332  13.002   8.231   0.977
37520SOL     OW14333   8.988   9.130   8.373
37520SOL    HW114334   9.034   9.191   8.315
37520SOL    HW214335   9.051   9.060   8.388
37521SOL     OW14336   4.128   8.514   6.641
37521SOL    HW114337   4.073   8.503   6.564
37521SOL    HW214338   4.193   8.580   6.616
37522SOL     OW14339   8.999  12.470   2.304
37522SOL    HW114340   9.086  12.497   2.335
37522SOL    HW214341   9.010  12.377   2.281
37523SOL     OW14342   0.821  12.346  11.358
37523SOL    HW114343   0.808  12.285  11.285
37523SOL    HW214344   0.904  12.319  11.397
37524SOL     OW14345  13.578  14.169   1.224
37524SOL    HW114346  13.598  14.092   1.172
37524SOL    HW214347  13.596  14.243   1.166
37525SOL     OW14348   1.600   7.807  10.616
37525SOL    HW114349   1.633   7.878  10.560
37525SOL    HW214350   1.651   7.814  10.696
37526SOL     OW14351   1.338   0.636  12.438
37526SOL    HW114352   1.282   0.596  12.504
37526SOL    HW214353   1.425   0.600  12.457
37527SOL     OW14354   8.574   2.242   3.198
37527SOL    HW114355   8.597   2.247   3.105
37527SOL    HW214356   8.624   2.167   3.231
37528SOL     OW14357   3.391   7.446  11.151
37528SOL    HW114358   3.430   7.471  11.068
37528SOL    HW214359   3.427   7.509  11.214
37529SOL     OW14360   7.540  13.564   3.130
37529SOL    HW114361   7.554  13.652   3.095
37529SOL    HW214362   7.616  13.514   3.099
37530SOL     OW14363   4.308   8.008   4.678
37530SOL    HW114364   4.398   8.042   4.679
37530SOL    HW214365   4.278   8.025   4.588
37531SOL     OW14366  11.347   6.038   9.775
37531SOL    HW114367  11.437   6.063   9.795
37531SOL    HW214368  11.340   5.947   9.804
37532SOL     OW14369   8.530  11.693  12.752
37532SOL    HW114370   8.451  11.734  12.716
37532SOL    HW214371   8.508  11.600  12.757
37533SOL     OW14372   6.685   3.362   9.806
37533SOL    HW114373   6.692   3.420   9.731
37533SOL    HW214374   6.665   3.276   9.769
37534SOL     OW14375  14.251   2.834   1.880
37534SOL    HW114376  14.176   2.870   1.832
37534SOL    HW214377  14.237   2.860   1.971
37535SOL     OW14378   9.791  12.851   9.335
37535SOL    HW114379   9.829  12.937   9.317
37535SOL    HW214380   9.780  12.810   9.249
37536SOL     OW14381   7.187   5.267   5.256
37536SOL    HW114382   7.208   5.293   5.166
37536SOL    HW214383   7.163   5.349   5.300
37537SOL     OW14384   9.646   4.007  11.266
37537SOL    HW114385   9.556   4.033  11.247
37537SOL    HW214386   9.670   4.056  11.345
37538SOL     OW14387   5.467  10.262  13.693
37538SOL    HW114388   5.420  10.190  13.651
37538SOL    HW214389   5.409  10.337  13.682
37539SOL     OW14390  14.235   4.411   4.420
37539SOL    HW114391  14.318   4.400   4.465
37539SOL    HW214392  14.170   4.413   4.490
37540SOL     OW14393   3.845   7.259  11.445
37540SOL    HW114394   3.751   7.241  11.434
37540SOL    HW214395   3.869   7.212  11.525
37541SOL     OW14396   0.749   8.382  13.879
37541SOL    HW114397   0.815   8.333  13.830
37541SOL    HW214398   0.763   8.357  13.970
37542SOL     OW14399  10.491   2.275   1.526
37542SOL    HW114400  10.407   2.228   1.526
37542SOL    HW214401  10.468   2.365   1.503
37543SOL     OW14402   0.115   8.189   2.004
37543SOL    HW114403   0.205   8.221   1.994
37543SOL    HW214404   0.065   8.235   1.937
37544SOL     OW14405  13.695   2.453  14.151
37544SOL    HW114406  13.637   2.475  14.224
37544SOL    HW214407  13.724   2.364  14.169
37545SOL     OW14408   7.139  14.851   3.155
37545SOL    HW114409   7.178  14.850   3.242
37545SOL    HW214410   7.060   0.026   3.164
37546SOL     OW14411   6.224   0.855  10.425
37546SOL    HW114412   6.225   0.781  10.486
37546SOL    HW214413   6.296   0.911  10.453
37547SOL     OW14414   9.395  10.338  11.300
37547SOL    HW114415   9.371  10.391  11.377
37547SOL    HW214416   9.478  10.297  11.324
37548SOL     OW14417   0.175   7.779  10.011
37548SOL    HW114418   0.196   7.775  10.104
37548SOL    HW214419   0.208   7.696   9.976
37549SOL     OW14420   1.077  11.177   0.163
37549SOL    HW114421   0.984  11.187   0.143
37549SOL    HW214422   1.108  11.109   0.103
37550SOL     OW14423   6.874   7.690   6.188
37550SOL    HW114424   6.887   7.659   6.098
37550SOL    HW214425   6.945   7.753   6.202
37551SOL     OW14426   1.150   4.180  12.637
37551SOL    HW114427   1.197   4.104  12.602
37551SOL    HW214428   1.161   4.248  12.571
37552SOL     OW14429  11.006   0.104  13.126
37552SOL    HW114430  10.942   0.034  13.140
37552SOL    HW214431  11.089   0.058  13.108
37553SOL     OW14432   9.136   0.263   2.044
37553SOL    HW114433   9.060   0.213   2.014
37553SOL    HW214434   9.204   0.242   1.979
37554SOL     OW14435   9.956   4.211   7.663
37554SOL    HW114436   9.862   4.193   7.672
37554SOL    HW214437   9.984   4.239   7.750
37555SOL     OW14438  14.541   5.393   9.756
37555SOL    HW114439  14.594   5.337   9.700
37555SOL    HW214440  14.562   5.482   9.727
37556SOL     OW14441   8.482  12.949  14.672
37556SOL    HW114442   8.507  12.867  14.716
37556SOL    HW214443   8.483  13.014  14.741
37557SOL     OW14444  11.139  12.914  11.155
37557SOL    HW114445  11.179  12.898  11.070
37557SOL    HW214446  11.046  12.927  11.136
37558SOL     OW14447   7.655   5.784  14.814
37558SOL    HW114448   7.710   5.843  14.865
37558SOL    HW214449   7.714   5.718  14.780
37559SOL     OW14450   8.063  12.788   1.181
37559SOL    HW114451   7.978  12.745   1.185
37559SOL    HW214452   8.106  12.748   1.106
37560SOL     OW14453   3.636   1.955   6.032
37560SOL    HW114454   3.644   1.948   6.127
37560SOL    HW214455   3.723   1.934   5.999
37561SOL     OW14456   7.234   4.454   0.910
37561SOL    HW114457   7.286   4.394   0.857
37561SOL    HW214458   7.298   4.512   0.951
37562SOL     OW14459  10.192   2.499  12.412
37562SOL    HW114460  10.287   2.498  12.406
37562SOL    HW214461  10.162   2.466  12.327
37563SOL     OW14462  13.253   9.620   7.806
37563SOL    HW114463  13.192   9.578   7.746
37563SOL    HW214464  13.287   9.549   7.860
37564SOL     OW14465   2.900   2.903   3.547
37564SOL    HW114466   2.994   2.902   3.567
37564SOL    HW214467   2.871   2.813   3.564
37565SOL     OW14468   0.633  10.678  13.091
37565SOL    HW114469   0.541  10.697  13.111
37565SOL    HW214470   0.661  10.619  13.160
37566SOL     OW14471   4.784   2.828   8.136
37566SOL    HW114472   4.728   2.758   8.101
37566SOL    HW214473   4.754   2.839   8.226
37567SOL     OW14474   8.126   6.774   2.536
37567SOL    HW114475   8.221   6.767   2.527
37567SOL    HW214476   8.110   6.868   2.545
37568SOL     OW14477  10.493  10.847  13.769
37568SOL    HW114478  10.467  10.867  13.679
37568SOL    HW214479  10.589  10.853  13.768
37569SOL     OW14480   1.265   1.445   7.536
37569SOL    HW114481   1.353   1.406   7.538
37569SOL    HW214482   1.237   1.445   7.627
37570SOL     OW14483   7.293   6.205   1.449
37570SOL    HW114484   7.289   6.134   1.513
37570SOL    HW214485   7.244   6.277   1.490
37571SOL     OW14486   5.158   9.551   8.449
37571SOL    HW114487   5.166   9.641   8.419
37571SOL    HW214488   5.079   9.518   8.407
37572SOL     OW14489   9.054  13.508   3.765
37572SOL    HW114490   9.091  13.516   3.677
37572SOL    HW214491   9.053  13.597   3.799
37573SOL     OW14492   8.585  10.731   3.005
37573SOL    HW114493   8.604  10.698   2.917
37573SOL    HW214494   8.670  10.761   3.038
37574SOL     OW14495  11.886   3.583   8.049
37574SOL    HW114496  11.802   3.558   8.088
37574SOL    HW214497  11.864   3.655   7.989
37575SOL     OW14498  10.167   3.566   8.801
37575SOL    HW114499  10.253   3.523   8.803
37575SOL    HW214500  10.166   3.622   8.878
37576SOL     OW14501  11.684   7.190   2.916
37576SOL    HW114502  11.595   7.216   2.892
37576SOL    HW214503  11.675   7.156   3.005
37577SOL     OW14504  13.651   1.397   4.113
37577SOL    HW114505  13.558   1.417   4.099
37577SOL    HW214506  13.651   1.312   4.157
37578SOL     OW14507   4.170   1.785   3.602
37578SOL    HW114508   4.225   1.767   3.526
37578SOL    HW214509   4.112   1.709   3.610
37579SOL     OW14510   3.912   6.129  13.279
37579SOL    HW114511   3.868   6.199  13.231
37579SOL    HW214512   3.913   6.055  13.218
37580SOL     OW14513   5.181   4.405   5.006
37580SOL    HW114514   5.163   4.318   5.042
37580SOL    HW214515   5.108   4.424   4.948
37581SOL     OW14516  10.607   2.746   9.628
37581SOL    HW114517  10.617   2.762   9.721
37581SOL    HW214518  10.653   2.819   9.586
37582SOL     OW14519   8.461  14.377   9.417
37582SOL    HW114520   8.374  14.370   9.457
37582SOL    HW214521   8.446  14.357   9.324
37583SOL     OW14522   7.962   4.711   6.244
37583SOL    HW114523   8.021   4.660   6.299
37583SOL    HW214524   7.877   4.669   6.255
37584SOL     OW14525   7.417   5.310  10.023
37584SOL    HW114526   7.450   5.244   9.961
37584SOL    HW214527   7.409   5.262  10.106
37585SOL     OW14528   3.681   1.271   7.612
37585SOL    HW114529   3.719   1.258   7.699
37585SOL    HW214530   3.724   1.206   7.557
37586SOL     OW14531   9.020  13.632   6.349
37586SOL    HW114532   9.001  13.709   6.403
37586SOL    HW214533   9.097  13.657   6.298
37587SOL     OW14534  10.502  12.989   1.254
37587SOL    HW114535  10.553  13.070   1.260
37587SOL    HW214536  10.456  12.984   1.337
37588SOL     OW14537   7.422   6.975   5.489
37588SOL    HW114538   7.501   6.999   5.537
37588SOL    HW214539   7.406   7.049   5.430
37589SOL     OW14540   2.741  14.612   1.440
37589SOL    HW114541   2.707  14.674   1.376
37589SOL    HW214542   2.664  14.574   1.481
37590SOL     OW14543   0.870   6.087  10.473
37590SOL    HW114544   0.936   6.129  10.528
37590SOL    HW214545   0.789   6.134  10.493
37591SOL     OW14546   3.118   4.415  11.785
37591SOL    HW114547   3.106   4.333  11.833
37591SOL    HW214548   3.037   4.425  11.734
37592SOL     OW14549   5.707   2.168   1.655
37592SOL    HW114550   5.692   2.189   1.748
37592SOL    HW214551   5.800   2.185   1.642
37593SOL     OW14552   7.627   1.031   1.329
37593SOL    HW114553   7.632   1.107   1.386
37593SOL    HW214554   7.715   0.993   1.331
37594SOL     OW14555   0.754  10.888   6.804
37594SOL    HW114556   0.784  10.811   6.852
37594SOL    HW214557   0.785  10.962   6.857
37595SOL     OW14558   5.125   6.475   7.187
37595SOL    HW114559   5.047   6.509   7.231
37595SOL    HW214560   5.183   6.448   7.258
37596SOL     OW14561   3.779   7.182   5.467
37596SOL    HW114562   3.859   7.206   5.420
37596SOL    HW214563   3.720   7.148   5.399
37597SOL     OW14564   9.568  10.551  14.553
37597SOL    HW114565   9.658  10.548  14.522
37597SOL    HW214566   9.528  10.623  14.505
37598SOL     OW14567  12.940   7.861   0.163
37598SOL    HW114568  12.849   7.847   0.135
37598SOL    HW214569  12.963   7.946   0.128
37599SOL     OW14570   9.190   0.055   3.413
37599SOL    HW114571   9.153  14.863   3.359
37599SOL    HW214572   9.233   0.010   3.485
37600SOL     OW14573  14.575  11.520   1.060
37600SOL    HW114574  14.533  11.585   1.117
37600SOL    HW214575  14.554  11.436   1.101
37601SOL     OW14576   5.658  12.294  10.731
37601SOL    HW114577   5.740  12.251  10.706
37601SOL    HW214578   5.673  12.322  10.822
37602SOL     OW14579  11.795  11.754  12.487
37602SOL    HW114580  11.713  11.748  12.536
37602SOL    HW214581  11.836  11.668  12.500
37603SOL     OW14582   3.259  12.178   5.039
37603SOL    HW114583   3.284  12.268   5.060
37603SOL    HW214584   3.276  12.128   5.119
37604SOL     OW14585   8.839   0.830   8.742
37604SOL    HW114586   8.893   0.775   8.799
37604SOL    HW214587   8.858   0.799   8.653
37605SOL     OW14588   3.171   8.145   5.996
37605SOL    HW114589   3.120   8.068   6.019
37605SOL    HW214590   3.259   8.111   5.979
37606SOL     OW14591   9.050   3.572  10.687
37606SOL    HW114592   9.114   3.643  10.682
37606SOL    HW214593   8.974   3.612  10.730
37607SOL     OW14594   0.395   7.621   5.002
37607SOL    HW114595   0.343   7.581   4.932
37607SOL    HW214596   0.486   7.604   4.977
37608SOL     OW14597  11.203   0.223   7.127
37608SOL    HW114598  11.221   0.152   7.065
37608SOL    HW214599  11.129   0.191   7.179
37609SOL     OW14600   9.042   6.250   4.397
37609SOL    HW114601   9.097   6.233   4.473
37609SOL    HW214602   9.105   6.265   4.326
37610SOL     OW14603   8.357   3.146   5.193
37610SOL    HW114604   8.305   3.066   5.190
37610SOL    HW214605   8.417   3.133   5.267
37611SOL     OW14606   2.126   4.969   5.101
37611SOL    HW114607   2.150   5.005   5.186
37611SOL    HW214608   2.043   5.013   5.079
37612SOL     OW14609  14.092  12.698   2.233
37612SOL    HW114610  14.039  12.760   2.284
37612SOL    HW214611  14.064  12.712   2.143
37613SOL     OW14612   1.936  14.777   0.885
37613SOL    HW114613   1.956  14.870   0.875
37613SOL    HW214614   1.840  14.775   0.894
37614SOL     OW14615   2.213   5.025  12.872
37614SOL    HW114616   2.207   4.984  12.959
37614SOL    HW214617   2.143   5.090  12.872
37615SOL     OW14618   5.570   9.714   2.770
37615SOL    HW114619   5.586   9.629   2.731
37615SOL    HW214620   5.645   9.768   2.745
37616SOL     OW14621  14.437   7.501  12.804
37616SOL    HW114622  14.450   7.546  12.887
37616SOL    HW214623  14.481   7.556  12.739
37617SOL     OW14624   5.890   9.062  13.777
37617SOL    HW114625   5.886   8.971  13.749
37617SOL    HW214626   5.947   9.061  13.854
37618SOL     OW14627  12.257   5.407   5.548
37618SOL    HW114628  12.319   5.479   5.535
37618SOL    HW214629  12.187   5.445   5.601
37619SOL     OW14630   0.931   7.379   5.651
37619SOL    HW114631   0.848   7.417   5.623
37619SOL    HW214632   0.996   7.445   5.630
37620SOL     OW14633   9.970  13.561  13.436
37620SOL    HW114634   9.986  13.649  13.402
37620SOL    HW214635  10.057  13.526  13.455
37621SOL     OW14636   9.624   3.349   2.870
37621SOL    HW114637   9.529   3.358   2.863
37621SOL    HW214638   9.639   3.255   2.880
37622SOL     OW14639  10.242   7.070   0.829
37622SOL    HW114640  10.162   7.093   0.782
37622SOL    HW214641  10.305   7.138   0.804
37623SOL     OW14642   9.409   8.165   4.853
37623SOL    HW114643   9.493   8.124   4.875
37623SOL    HW214644   9.344   8.108   4.892
37624SOL     OW14645   0.449   7.621   8.406
37624SOL    HW114646   0.402   7.538   8.400
37624SOL    HW214647   0.413   7.665   8.483
37625SOL     OW14648  13.197   0.639   0.813
37625SOL    HW114649  13.167   0.548   0.811
37625SOL    HW214650  13.174   0.669   0.901
37626SOL     OW14651   4.239  12.296   3.712
37626SOL    HW114652   4.321  12.246   3.711
37626SOL    HW214653   4.174  12.234   3.748
37627SOL     OW14654   8.663   7.337   2.113
37627SOL    HW114655   8.682   7.359   2.204
37627SOL    HW214656   8.587   7.390   2.091
37628SOL     OW14657   9.429  11.121   4.191
37628SOL    HW114658   9.379  11.148   4.267
37628SOL    HW214659   9.378  11.152   4.116
37629SOL     OW14660   7.336   4.408   2.110
37629SOL    HW114661   7.385   4.357   2.175
37629SOL    HW214662   7.244   4.395   2.134
37630SOL     OW14663  13.416  11.555   0.447
37630SOL    HW114664  13.353  11.552   0.519
37630SOL    HW214665  13.439  11.648   0.439
37631SOL     OW14666   4.317  13.433  12.627
37631SOL    HW114667   4.293  13.396  12.542
37631SOL    HW214668   4.410  13.457  12.617
37632SOL     OW14669  11.720  14.855   2.694
37632SOL    HW114670  11.784   0.006   2.759
37632SOL    HW214671  11.773  14.824   2.620
37633SOL     OW14672   3.124   3.763   7.744
37633SOL    HW114673   3.169   3.786   7.663
37633SOL    HW214674   3.101   3.847   7.783
37634SOL     OW14675  13.464  12.230   5.992
37634SOL    HW114676  13.541  12.286   6.004
37634SOL    HW214677  13.488  12.171   5.921
37635SOL     OW14678   4.507   1.081   6.609
37635SOL    HW114679   4.445   1.128   6.665
37635SOL    HW214680   4.572   1.147   6.585
37636SOL     OW14681  10.356   5.964   2.541
37636SOL    HW114682  10.413   6.040   2.550
37636SOL    HW214683  10.389   5.918   2.463
37637SOL     OW14684   0.287   0.312   6.418
37637SOL    HW114685   0.310   0.256   6.492
37637SOL    HW214686   0.353   0.291   6.351
37638SOL     OW14687  14.411   3.936  12.885
37638SOL    HW114688  14.380   3.868  12.945
37638SOL    HW214689  14.336   3.952  12.827
37639SOL     OW14690   4.849   9.122  10.927
37639SOL    HW114691   4.935   9.163  10.937
37639SOL    HW214692   4.868   9.033  10.896
37640SOL     OW14693   3.780  14.399   7.539
37640SOL    HW114694   3.727  14.478   7.551
37640SOL    HW214695   3.819  14.409   7.452
37641SOL     OW14696   4.442   0.680  10.564
37641SOL    HW114697   4.419   0.604  10.618
37641SOL    HW214698   4.535   0.694  10.581
37642SOL     OW14699   7.797   0.007   7.786
37642SOL    HW114700   7.803   0.101   7.801
37642SOL    HW214701   7.880  14.850   7.817
37643SOL     OW14702   1.498  11.470   5.825
37643SOL    HW114703   1.423  11.452   5.767
37643SOL    HW214704   1.479  11.421   5.905
37644SOL     OW14705   4.007   3.629  11.596
37644SOL    HW114706   3.973   3.719  11.589
37644SOL    HW214707   3.934   3.579  11.630
37645SOL     OW14708   5.251   3.986  10.141
37645SOL    HW114709   5.296   3.901  10.146
37645SOL    HW214710   5.259   4.022  10.230
37646SOL     OW14711   6.160   8.225   5.411
37646SOL    HW114712   6.214   8.264   5.480
37646SOL    HW214713   6.224   8.192   5.348
37647SOL     OW14714  13.894   6.695   8.530
37647SOL    HW114715  13.804   6.685   8.497
37647SOL    HW214716  13.884   6.736   8.615
37648SOL     OW14717   6.823   7.109   0.664
37648SOL    HW114718   6.879   7.174   0.706
37648SOL    HW214719   6.873   7.027   0.669
37649SOL     OW14720   6.677   1.393   4.086
37649SOL    HW114721   6.677   1.477   4.040
37649SOL    HW214722   6.744   1.402   4.154
37650SOL     OW14723   1.131  12.924   8.377
37650SOL    HW114724   1.223  12.912   8.355
37650SOL    HW214725   1.097  12.835   8.388
37651SOL     OW14726   2.677   7.426  13.210
37651SOL    HW114727   2.666   7.431  13.305
37651SOL    HW214728   2.757   7.374  13.198
37652SOL     OW14729  12.075  13.936   5.058
37652SOL    HW114730  12.088  13.851   5.098
37652SOL    HW214731  12.053  13.917   4.967
37653SOL     OW14732  10.805   4.683   5.636
37653SOL    HW114733  10.876   4.632   5.676
37653SOL    HW214734  10.725   4.642   5.667
37654SOL     OW14735   5.935   2.364  14.846
37654SOL    HW114736   5.947   2.357   0.063
37654SOL    HW214737   5.982   2.289  14.810
37655SOL     OW14738   7.882   9.867  12.654
37655SOL    HW114739   7.970   9.894  12.626
37655SOL    HW214740   7.847   9.943  12.700
37656SOL     OW14741  10.219  14.278   9.102
37656SOL    HW114742  10.288  14.212   9.110
37656SOL    HW214743  10.161  14.262   9.176
37657SOL     OW14744   8.949   4.725   4.854
37657SOL    HW114745   8.934   4.671   4.777
37657SOL    HW214746   9.037   4.703   4.883
37658SOL     OW14747   8.376  14.637   5.749
37658SOL    HW114748   8.414  14.627   5.661
37658SOL    HW214749   8.282  14.640   5.734
37659SOL     OW14750  14.114   0.130   4.218
37659SOL    HW114751  14.173   0.199   4.248
37659SOL    HW214752  14.163   0.049   4.231
37660SOL     OW14753  10.840   3.555  10.681
37660SOL    HW114754  10.781   3.612  10.632
37660SOL    HW214755  10.927   3.581  10.654
37661SOL     OW14756   2.307   2.768   6.819
37661SOL    HW114757   2.239   2.788   6.884
37661SOL    HW214758   2.379   2.732   6.870
37662SOL     OW14759  12.140  13.312   5.265
37662SOL    HW114760  12.113  13.404   5.262
37662SOL    HW214761  12.193  13.305   5.344
37663SOL     OW14762   8.424   4.318   5.214
37663SOL    HW114763   8.377   4.376   5.273
37663SOL    HW214764   8.416   4.231   5.254
37664SOL     OW14765  14.755   0.149   0.343
37664SOL    HW114766  14.755   0.243   0.361
37664SOL    HW214767  14.669   0.132   0.305
37665SOL     OW14768   6.763   5.084   8.656
37665SOL    HW114769   6.731   5.003   8.696
37665SOL    HW214770   6.737   5.078   8.564
37666SOL     OW14771   6.617   6.798   0.565
37666SOL    HW114772   6.568   6.873   0.532
37666SOL    HW214773   6.628   6.815   0.658
37667SOL     OW14774  11.463   8.114  14.595
37667SOL    HW114775  11.449   8.187  14.536
37667SOL    HW214776  11.457   8.153  14.683
37668SOL     OW14777   7.637   6.814  13.903
37668SOL    HW114778   7.682   6.863  13.834
37668SOL    HW214779   7.645   6.722  13.876
37669SOL     OW14780   5.624  13.329   3.490
37669SOL    HW114781   5.697  13.319   3.550
37669SOL    HW214782   5.553  13.365   3.543
37670SOL     OW14783  12.153   3.522  10.915
37670SOL    HW114784  12.201   3.486  10.840
37670SOL    HW214785  12.075   3.465  10.922
37671SOL     OW14786   7.606  10.287   8.532
37671SOL    HW114787   7.629  10.218   8.594
37671SOL    HW214788   7.690  10.324   8.505
37672SOL     OW14789  10.823  12.872   0.211
37672SOL    HW114790  10.804  12.799   0.270
37672SOL    HW214791  10.910  12.903   0.237
37673SOL     OW14792   2.240   5.773  10.229
37673SOL    HW114793   2.184   5.846  10.256
37673SOL    HW214794   2.223   5.763  10.136
37674SOL     OW14795   9.885   5.006   5.406
37674SOL    HW114796   9.902   5.032   5.497
37674SOL    HW214797   9.963   5.034   5.358
37675SOL     OW14798  10.186   6.344   9.078
37675SOL    HW114799  10.125   6.350   9.004
37675SOL    HW214800  10.165   6.419   9.133
37676SOL     OW14801   8.776  10.064  13.421
37676SOL    HW114802   8.719  10.133  13.455
37676SOL    HW214803   8.716   9.998  13.386
37677SOL     OW14804   7.935   4.791  11.178
37677SOL    HW114805   7.971   4.878  11.194
37677SOL    HW214806   7.922   4.754  11.266
37678SOL     OW14807  14.244  13.913   1.879
37678SOL    HW114808  14.318  13.973   1.865
37678SOL    HW214809  14.216  13.888   1.791
37679SOL     OW14810   6.953   3.070   4.452
37679SOL    HW114811   6.861   3.055   4.434
37679SOL    HW214812   6.991   3.092   4.367
37680SOL     OW14813   0.108   6.320  10.744
37680SOL    HW114814   0.039   6.356  10.799
37680SOL    HW214815   0.097   6.225  10.750
37681SOL     OW14816   6.585   4.712   0.407
37681SOL    HW114817   6.619   4.785   0.356
37681SOL    HW214818   6.504   4.744   0.445
37682SOL     OW14819  11.246   6.793  11.846
37682SOL    HW114820  11.188   6.758  11.914
37682SOL    HW214821  11.325   6.819  11.893
37683SOL     OW14822  11.460   9.672  14.584
37683SOL    HW114823  11.546   9.647  14.618
37683SOL    HW214824  11.480   9.728  14.508
37684SOL     OW14825  10.424   5.253  12.343
37684SOL    HW114826  10.405   5.305  12.421
37684SOL    HW214827  10.505   5.290  12.309
37685SOL     OW14828   0.706   1.672   9.907
37685SOL    HW114829   0.652   1.702   9.980
37685SOL    HW214830   0.792   1.712   9.923
37686SOL     OW14831   9.689  10.409  12.385
37686SOL    HW114832   9.699  10.324  12.428
37686SOL    HW214833   9.600  10.407  12.349
37687SOL     OW14834   2.813   7.990   3.172
37687SOL    HW114835   2.836   7.969   3.082
37687SOL    HW214836   2.777   7.909   3.208
37688SOL     OW14837  13.416  11.102  13.343
37688SOL    HW114838  13.373  11.018  13.328
37688SOL    HW214839  13.392  11.155  13.268
37689SOL     OW14840  14.595   8.703  10.604
37689SOL    HW114841  14.509   8.709  10.564
37689SOL    HW214842  14.584   8.641  10.677
37690SOL     OW14843   4.394   7.136  13.070
37690SOL    HW114844   4.329   7.086  13.119
37690SOL    HW214845   4.345   7.207  13.030
37691SOL     OW14846  12.990  10.307   7.538
37691SOL    HW114847  13.069  10.339   7.495
37691SOL    HW214848  12.961  10.379   7.593
37692SOL     OW14849  13.001  13.168   6.493
37692SOL    HW114850  12.999  13.229   6.419
37692SOL    HW214851  12.957  13.090   6.461
37693SOL     OW14852  12.601  10.295   4.515
37693SOL    HW114853  12.652  10.345   4.578
37693SOL    HW214854  12.616  10.338   4.431
37694SOL     OW14855  13.546  11.069  12.776
37694SOL    HW114856  13.502  11.032  12.700
37694SOL    HW214857  13.475  11.101  12.832
37695SOL     OW14858  12.087   3.766   5.598
37695SOL    HW114859  12.074   3.756   5.504
37695SOL    HW214860  12.119   3.855   5.609
37696SOL     OW14861   7.004   5.434   4.896
37696SOL    HW114862   7.043   5.347   4.891
37696SOL    HW214863   7.057   5.487   4.836
37697SOL     OW14864   2.703   1.459   7.184
37697SOL    HW114865   2.779   1.465   7.127
37697SOL    HW214866   2.673   1.550   7.194
37698SOL     OW14867   0.604   2.064   2.248
37698SOL    HW114868   0.677   2.125   2.247
37698SOL    HW214869   0.526   2.119   2.257
37699SOL     OW14870   2.471   1.827   6.073
37699SOL    HW114871   2.414   1.870   6.009
37699SOL    HW214872   2.560   1.852   6.047
37700SOL     OW14873  12.577  11.229   0.119
37700SOL    HW114874  12.536  11.153   0.078
37700SOL    HW214875  12.623  11.193   0.195
37701SOL     OW14876   6.953  11.787   2.333
37701SOL    HW114877   6.872  11.739   2.314
37701SOL    HW214878   6.965  11.844   2.258
37702SOL     OW14879   8.377   3.848   7.399
37702SOL    HW114880   8.374   3.753   7.385
37702SOL    HW214881   8.289   3.870   7.429
37703SOL     OW14882   6.204   8.162   1.577
37703SOL    HW114883   6.272   8.178   1.512
37703SOL    HW214884   6.141   8.234   1.565
37704SOL     OW14885   9.426  10.105   4.465
37704SOL    HW114886   9.345  10.099   4.516
37704SOL    HW214887   9.437  10.198   4.447
37705SOL     OW14888   3.607  12.858   1.632
37705SOL    HW114889   3.552  12.929   1.598
37705SOL    HW214890   3.681  12.853   1.571
37706SOL     OW14891  10.532   1.213  14.595
37706SOL    HW114892  10.497   1.221  14.507
37706SOL    HW214893  10.474   1.267  14.649
37707SOL     OW14894  13.314   3.313   5.491
37707SOL    HW114895  13.361   3.341   5.413
37707SOL    HW214896  13.222   3.331   5.471
37708SOL     OW14897   8.402  14.640   5.474
37708SOL    HW114898   8.495  14.659   5.458
37708SOL    HW214899   8.355  14.706   5.423
37709SOL     OW14900   9.835  11.079   7.805
37709SOL    HW114901   9.857  11.015   7.738
37709SOL    HW214902   9.912  11.082   7.862
37710SOL     OW14903   8.296   4.819  13.118
37710SOL    HW114904   8.333   4.747  13.170
37710SOL    HW214905   8.278   4.887  13.182
37711SOL     OW14906   1.512   8.698   1.150
37711SOL    HW114907   1.528   8.702   1.055
37711SOL    HW214908   1.516   8.604   1.170
37712SOL     OW14909   2.443  13.363   3.239
37712SOL    HW114910   2.432  13.305   3.314
37712SOL    HW214911   2.378  13.333   3.176
37713SOL     OW14912  10.796   3.162   6.692
37713SOL    HW114913  10.876   3.180   6.643
37713SOL    HW214914  10.739   3.237   6.674
37714SOL     OW14915   8.971  12.850   1.797
37714SOL    HW114916   8.892  12.901   1.775
37714SOL    HW214917   8.983  12.864   1.890
37715SOL     OW14918   8.127  10.506   2.621
37715SOL    HW114919   8.060  10.440   2.637
37715SOL    HW214920   8.113  10.571   2.690
37716SOL     OW14921   5.185  12.937   0.885
37716SOL    HW114922   5.217  12.857   0.844
37716SOL    HW214923   5.093  12.942   0.859
37717SOL     OW14924   1.305   7.029   3.598
37717SOL    HW114925   1.229   6.994   3.645
37717SOL    HW214926   1.307   7.122   3.620
37718SOL     OW14927   1.779   9.907   4.620
37718SOL    HW114928   1.870   9.884   4.602
37718SOL    HW214929   1.739   9.825   4.649
37719SOL     OW14930   5.568   0.063   0.630
37719SOL    HW114931   5.547   0.156   0.628
37719SOL    HW214932   5.597   0.042   0.541
37720SOL     OW14933   8.382  12.633   6.797
37720SOL    HW114934   8.337  12.717   6.803
37720SOL    HW214935   8.370  12.606   6.707
37721SOL     OW14936   9.008  11.945   1.791
37721SOL    HW114937   8.991  11.902   1.875
37721SOL    HW214938   9.101  11.926   1.773
37722SOL     OW14939   4.176   7.181   3.070
37722SOL    HW114940   4.164   7.276   3.063
37722SOL    HW214941   4.245   7.160   3.007
37723SOL     OW14942  14.404   1.502   8.500
37723SOL    HW114943  14.446   1.480   8.417
37723SOL    HW214944  14.354   1.424   8.523
37724SOL     OW14945   4.606   3.403   0.877
37724SOL    HW114946   4.533   3.455   0.844
37724SOL    HW214947   4.669   3.468   0.909
37725SOL     OW14948   7.001   9.446   5.970
37725SOL    HW114949   7.063   9.490   5.912
37725SOL    HW214950   6.984   9.509   6.039
37726SOL     OW14951   6.363   0.141  11.918
37726SOL    HW114952   6.350   0.075  11.850
37726SOL    HW214953   6.275   0.159  11.951
37727SOL     OW14954  10.380   4.010  12.658
37727SOL    HW114955  10.468   3.976  12.672
37727SOL    HW214956  10.344   3.956  12.588
37728SOL     OW14957   4.011  13.315   1.500
37728SOL    HW114958   4.032  13.223   1.483
37728SOL    HW214959   4.068  13.339   1.573
37729SOL     OW14960   1.645  14.344   2.447
37729SOL    HW114961   1.586  14.273   2.423
37729SOL    HW214962   1.600  14.390   2.519
37730SOL     OW14963   8.858  10.815  11.636
37730SOL    HW114964   8.889  10.885  11.579
37730SOL    HW214965   8.925  10.807  11.704
37731SOL     OW14966   6.124   6.733   8.429
37731SOL    HW114967   6.032   6.707   8.419
37731SOL    HW214968   6.122   6.829   8.422
37732SOL     OW14969   1.592   1.212   8.756
37732SOL    HW114970   1.588   1.267   8.834
37732SOL    HW214971   1.683   1.218   8.727
37733SOL     OW14972   5.990   3.229  12.998
37733SOL    HW114973   5.959   3.318  13.011
37733SOL    HW214974   5.921   3.174  13.034
37734SOL     OW14975   1.857  10.792   8.001
37734SOL    HW114976   1.864  10.854   7.929
37734SOL    HW214977   1.765  10.767   8.003
37735SOL     OW14978   5.097  13.020   2.319
37735SOL    HW114979   5.114  13.046   2.410
37735SOL    HW214980   5.112  13.100   2.268
37736SOL     OW14981  11.895   6.275   3.934
37736SOL    HW114982  11.851   6.292   4.018
37736SOL    HW214983  11.840   6.319   3.869
37737SOL     OW14984   3.583   9.018   9.907
37737SOL    HW114985   3.674   8.990   9.903
37737SOL    HW214986   3.587   9.111   9.931
37738SOL     OW14987  14.611  14.407   9.391
37738SOL    HW114988  14.646  14.348   9.323
37738SOL    HW214989  14.671  14.481   9.391
37739SOL     OW14990  12.041   5.038   8.719
37739SOL    HW114991  12.095   5.021   8.796
37739SOL    HW214992  12.058   4.963   8.662
37740SOL     OW14993   2.775   3.377   4.412
37740SOL    HW114994   2.783   3.424   4.329
37740SOL    HW214995   2.709   3.310   4.396
37741SOL     OW14996   0.896  12.511   7.291
37741SOL    HW114997   0.975  12.549   7.251
37741SOL    HW214998   0.830  12.580   7.283
37742SOL     OW14999   3.516   8.617  10.068
37742SOL    HW115000   3.529   8.685  10.135
37742SOL    HW215001   3.440   8.567  10.099
37743SOL     OW15002   8.043   8.740  12.597
37743SOL    HW115003   8.044   8.836  12.594
37743SOL    HW215004   8.111   8.717  12.660
37744SOL     OW15005  14.559   0.451   0.920
37744SOL    HW115006  14.600   0.492   0.996
37744SOL    HW215007  14.467   0.442   0.945
37745SOL     OW15008  14.264   3.712   3.201
37745SOL    HW115009  14.225   3.761   3.129
37745SOL    HW215010  14.220   3.627   3.198
37746SOL     OW15011   4.221   8.920   4.340
37746SOL    HW115012   4.210   8.907   4.246
37746SOL    HW215013   4.136   8.950   4.371
37747SOL     OW15014   6.555   8.377  14.184
37747SOL    HW115015   6.578   8.397  14.275
37747SOL    HW215016   6.479   8.432  14.166
37748SOL     OW15017  12.865   1.880  14.566
37748SOL    HW115018  12.808   1.927  14.626
37748SOL    HW215019  12.805   1.842  14.501
37749SOL     OW15020  14.386   4.126  11.682
37749SOL    HW115021  14.430   4.042  11.694
37749SOL    HW215022  14.298   4.103  11.652
37750SOL     OW15023   4.486   0.302   2.717
37750SOL    HW115024   4.421   0.357   2.672
37750SOL    HW215025   4.569   0.348   2.706
37751SOL     OW15026  12.192   4.374   9.541
37751SOL    HW115027  12.213   4.435   9.470
37751SOL    HW215028  12.103   4.398   9.568
37752SOL     OW15029   1.530   7.524  12.580
37752SOL    HW115030   1.476   7.453  12.544
37752SOL    HW215031   1.619   7.491  12.578
37753SOL     OW15032   2.987   4.966   8.049
37753SOL    HW115033   3.082   4.953   8.050
37753SOL    HW215034   2.968   5.003   7.963
37754SOL     OW15035   9.571   9.525  14.227
37754SOL    HW115036   9.599   9.613  14.202
37754SOL    HW215037   9.556   9.530  14.321
37755SOL     OW15038   8.071   5.476  10.118
37755SOL    HW115039   7.977   5.462  10.108
37755SOL    HW215040   8.082   5.571  10.117
37756SOL     OW15041   5.841   4.099  10.606
37756SOL    HW115042   5.767   4.157  10.590
37756SOL    HW215043   5.802   4.015  10.629
37757SOL     OW15044   1.166   6.338   0.940
37757SOL    HW115045   1.158   6.337   0.845
37757SOL    HW215046   1.260   6.343   0.956
37758SOL     OW15047  11.561   6.992   8.981
37758SOL    HW115048  11.595   7.042   9.055
37758SOL    HW215049  11.480   6.952   9.015
37759SOL     OW15050   5.702   2.280   9.662
37759SOL    HW115051   5.724   2.207   9.603
37759SOL    HW215052   5.608   2.294   9.648
37760SOL     OW15053   3.855  14.075  12.426
37760SOL    HW115054   3.847  14.092  12.332
37760SOL    HW215055   3.847  13.980  12.434
37761SOL     OW15056  10.075  14.523  11.322
37761SOL    HW115057  10.083  14.437  11.282
37761SOL    HW215058  10.149  14.573  11.288
37762SOL     OW15059   6.981   1.727  10.985
37762SOL    HW115060   7.076   1.724  10.976
37762SOL    HW215061   6.962   1.678  11.065
37763SOL     OW15062  11.305   9.180   2.080
37763SOL    HW115063  11.370   9.110   2.091
37763SOL    HW215064  11.325   9.217   1.994
37764SOL     OW15065   3.985   4.499   2.034
37764SOL    HW115066   3.890   4.501   2.029
37764SOL    HW215067   4.004   4.463   2.120
37765SOL     OW15068   3.154   2.531   4.705
37765SOL    HW115069   3.207   2.454   4.685
37765SOL    HW215070   3.087   2.532   4.637
37766SOL     OW15071   5.347  12.520   2.493
37766SOL    HW115072   5.370  12.533   2.401
37766SOL    HW215073   5.367  12.428   2.510
37767SOL     OW15074  13.463  13.821   6.233
37767SOL    HW115075  13.513  13.784   6.160
37767SOL    HW215076  13.514  13.798   6.311
37768SOL     OW15077   4.936   5.284   9.491
37768SOL    HW115078   5.012   5.226   9.489
37768SOL    HW215079   4.955   5.346   9.560
37769SOL     OW15080   4.129  10.626   9.101
37769SOL    HW115081   4.053  10.637   9.158
37769SOL    HW215082   4.145  10.531   9.100
37770SOL     OW15083   8.738   4.574  12.136
37770SOL    HW115084   8.678   4.645  12.158
37770SOL    HW215085   8.694   4.495  12.169
37771SOL     OW15086   6.408   0.009  11.068
37771SOL    HW115087   6.319  14.852  11.073
37771SOL    HW215088   6.429   0.006  10.974
37772SOL     OW15089  12.271  10.924   6.092
37772SOL    HW115090  12.260  10.829   6.086
37772SOL    HW215091  12.304  10.950   6.006
37773SOL     OW15092   4.176  12.401  13.597
37773SOL    HW115093   4.190  12.483  13.645
37773SOL    HW215094   4.081  12.399  13.582
37774SOL     OW15095   6.278  13.492   2.495
37774SOL    HW115096   6.234  13.526   2.573
37774SOL    HW215097   6.345  13.434   2.530
37775SOL     OW15098  12.296   9.362   1.094
37775SOL    HW115099  12.249   9.285   1.060
37775SOL    HW215100  12.264   9.371   1.184
37776SOL     OW15101   1.621  11.981  12.203
37776SOL    HW115102   1.641  12.001  12.112
37776SOL    HW215103   1.639  12.062  12.250
37777SOL     OW15104   8.476   5.134   7.617
37777SOL    HW115105   8.517   5.214   7.652
37777SOL    HW215106   8.473   5.149   7.522
37778SOL     OW15107  13.242   8.245  10.824
37778SOL    HW115108  13.300   8.249  10.748
37778SOL    HW215109  13.204   8.157  10.821
37779SOL     OW15110  14.028   9.848  10.331
37779SOL    HW115111  14.011   9.940  10.348
37779SOL    HW215112  14.073   9.848  10.246
37780SOL     OW15113   4.091  11.969  11.175
37780SOL    HW115114   4.127  11.993  11.090
37780SOL    HW215115   4.030  12.039  11.196
37781SOL     OW15116  11.455  13.588   1.620
37781SOL    HW115117  11.453  13.493   1.608
37781SOL    HW215118  11.415  13.623   1.541
37782SOL     OW15119  10.704   9.050   7.655
37782SOL    HW115120  10.669   9.021   7.571
37782SOL    HW215121  10.754   9.129   7.635
37783SOL     OW15122   3.280  14.654  10.356
37783SOL    HW115123   3.315  14.725  10.302
37783SOL    HW215124   3.232  14.698  10.426
37784SOL     OW15125   4.991   2.101   8.404
37784SOL    HW115126   5.058   2.064   8.345
37784SOL    HW215127   5.004   2.196   8.398
37785SOL     OW15128  13.566  14.570   3.479
37785SOL    HW115129  13.488  14.574   3.533
37785SOL    HW215130  13.534  14.574   3.389
37786SOL     OW15131  10.856   6.804   3.649
37786SOL    HW115132  10.879   6.814   3.556
37786SOL    HW215133  10.761   6.802   3.650
37787SOL     OW15134   8.127   3.275   9.521
37787SOL    HW115135   8.166   3.189   9.536
37787SOL    HW215136   8.038   3.255   9.491
37788SOL     OW15137   5.978   9.475   3.166
37788SOL    HW115138   6.021   9.393   3.141
37788SOL    HW215139   5.993   9.533   3.092
37789SOL     OW15140   5.671   3.286  10.040
37789SOL    HW115141   5.747   3.229  10.054
37789SOL    HW215142   5.600   3.226  10.015
37790SOL     OW15143   2.152   2.831   1.503
37790SOL    HW115144   2.211   2.838   1.428
37790SOL    HW215145   2.154   2.917   1.544
37791SOL     OW15146   3.692  14.307   6.870
37791SOL    HW115147   3.601  14.296   6.844
37791SOL    HW215148   3.700  14.400   6.891
37792SOL     OW15149   4.848  10.042   6.378
37792SOL    HW115150   4.790  10.007   6.446
37792SOL    HW215151   4.877   9.965   6.329
37793SOL     OW15152   3.637   4.613  14.277
37793SOL    HW115153   3.718   4.584  14.320
37793SOL    HW215154   3.666   4.679  14.213
37794SOL     OW15155   4.385   3.547   3.238
37794SOL    HW115156   4.398   3.610   3.167
37794SOL    HW215157   4.468   3.501   3.245
37795SOL     OW15158   5.385   4.616  13.730
37795SOL    HW115159   5.340   4.565  13.662
37795SOL    HW215160   5.347   4.585  13.812
37796SOL     OW15161   5.967   8.770   4.138
37796SOL    HW115162   6.021   8.790   4.061
37796SOL    HW215163   5.882   8.744   4.101
37797SOL     OW15164   1.601   8.625   4.797
37797SOL    HW115165   1.589   8.536   4.831
37797SOL    HW215166   1.595   8.615   4.702
37798SOL     OW15167   0.051   4.395   3.542
37798SOL    HW115168   0.012   4.316   3.579
37798SOL    HW215169   0.143   4.372   3.528
37799SOL     OW15170   8.623  13.733   5.113
37799SOL    HW115171   8.639  13.672   5.185
37799SOL    HW215172   8.711  13.751   5.078
37800SOL     OW15173  12.569   9.969   5.863
37800SOL    HW115174  12.627   9.976   5.788
37800SOL    HW215175  12.570  10.057   5.903
37801SOL     OW15176   5.715  13.950   2.520
37801SOL    HW115177   5.792  13.916   2.565
37801SOL    HW215178   5.750  14.011   2.456
37802SOL     OW15179   4.163  10.861   2.813
37802SOL    HW115180   4.089  10.809   2.844
37802SOL    HW215181   4.154  10.946   2.856
37803SOL     OW15182  10.029  12.815   6.438
37803SOL    HW115183   9.987  12.739   6.478
37803SOL    HW215184  10.114  12.821   6.482
37804SOL     OW15185   8.446   9.996   9.742
37804SOL    HW115186   8.512   9.959   9.801
37804SOL    HW215187   8.482   9.983   9.654
37805SOL     OW15188   3.986   3.865  10.534
37805SOL    HW115189   3.980   3.861  10.439
37805SOL    HW215190   4.066   3.818  10.556
37806SOL     OW15191   5.417   7.112   9.659
37806SOL    HW115192   5.346   7.175   9.673
37806SOL    HW215193   5.494   7.155   9.696
37807SOL     OW15194   4.092   6.001  13.572
37807SOL    HW115195   4.158   5.961  13.515
37807SOL    HW215196   4.114   5.968  13.660
37808SOL     OW15197   5.995   0.734   5.279
37808SOL    HW115198   5.982   0.728   5.184
37808SOL    HW215199   5.935   0.670   5.316
37809SOL     OW15200   1.859  12.901   3.235
37809SOL    HW115201   1.810  12.846   3.172
37809SOL    HW215202   1.857  12.851   3.316
37810SOL     OW15203   4.256  14.091   3.785
37810SOL    HW115204   4.329  14.148   3.760
37810SOL    HW215205   4.224  14.056   3.701
37811SOL     OW15206   9.894   0.133   9.315
37811SOL    HW115207   9.910   0.219   9.353
37811SOL    HW215208   9.921   0.141   9.223
37812SOL     OW15209   2.321  14.393   1.383
37812SOL    HW115210   2.336  14.323   1.446
37812SOL    HW215211   2.244  14.439   1.416
37813SOL     OW15212   4.265   3.788   7.227
37813SOL    HW115213   4.274   3.809   7.320
37813SOL    HW215214   4.256   3.873   7.184
37814SOL     OW15215  14.361   4.215  12.267
37814SOL    HW115216  14.348   4.258  12.183
37814SOL    HW215217  14.298   4.257  12.326
37815SOL     OW15218  11.339  10.370   6.348
37815SOL    HW115219  11.287  10.289   6.356
37815SOL    HW215220  11.390  10.357   6.268
37816SOL     OW15221  11.317  13.233   5.687
37816SOL    HW115222  11.242  13.216   5.629
37816SOL    HW215223  11.366  13.303   5.643
37817SOL     OW15224   0.089  13.199   3.339
37817SOL    HW115225   0.072  13.111   3.304
37817SOL    HW215226   0.002  13.232   3.363
37818SOL     OW15227   3.856   8.644   4.888
37818SOL    HW115228   3.917   8.715   4.905
37818SOL    HW215229   3.901   8.587   4.825
37819SOL     OW15230   1.992  14.504   5.485
37819SOL    HW115231   2.024  14.451   5.412
37819SOL    HW215232   2.066  14.507   5.546
37820SOL     OW15233  13.328   1.984  10.180
37820SOL    HW115234  13.287   2.058  10.224
37820SOL    HW215235  13.390   2.024  10.119
37821SOL     OW15236  10.986   8.860   2.602
37821SOL    HW115237  11.061   8.835   2.548
37821SOL    HW215238  11.018   8.853   2.692
37822SOL     OW15239   2.835  13.224   4.015
37822SOL    HW115240   2.897  13.173   4.068
37822SOL    HW215241   2.751  13.178   4.026
37823SOL     OW15242   4.544   5.217   6.574
37823SOL    HW115243   4.456   5.240   6.546
37823SOL    HW215244   4.593   5.299   6.568
37824SOL     OW15245  12.060  13.349   1.770
37824SOL    HW115246  11.970  13.374   1.751
37824SOL    HW215247  12.054  13.256   1.795
37825SOL     OW15248   0.631   2.507   7.082
37825SOL    HW115249   0.661   2.552   7.003
37825SOL    HW215250   0.712   2.480   7.127
37826SOL     OW15251  13.758   6.587   2.184
37826SOL    HW115252  13.800   6.563   2.267
37826SOL    HW215253  13.826   6.635   2.136
37827SOL     OW15254   9.151  11.528   9.837
37827SOL    HW115255   9.106  11.473   9.773
37827SOL    HW215256   9.171  11.469   9.909
37828SOL     OW15257   6.335  13.278  10.578
37828SOL    HW115258   6.428  13.259  10.561
37828SOL    HW215259   6.293  13.192  10.577
37829SOL     OW15260   6.997   2.183   6.758
37829SOL    HW115261   7.054   2.119   6.714
37829SOL    HW215262   6.917   2.134   6.777
37830SOL     OW15263   1.220   7.041   6.913
37830SOL    HW115264   1.199   7.090   6.992
37830SOL    HW215265   1.140   7.043   6.861
37831SOL     OW15266  11.968  13.141  11.289
37831SOL    HW115267  12.006  13.075  11.232
37831SOL    HW215268  12.043  13.193  11.319
37832SOL     OW15269   5.692  10.189   8.768
37832SOL    HW115270   5.658  10.269   8.808
37832SOL    HW215271   5.642  10.179   8.687
37833SOL     OW15272   4.839   6.046   4.166
37833SOL    HW115273   4.837   6.105   4.241
37833SOL    HW215274   4.930   6.047   4.137
37834SOL     OW15275   4.588  10.705   8.947
37834SOL    HW115276   4.522  10.706   8.878
37834SOL    HW215277   4.578  10.619   8.989
37835SOL     OW15278  13.773   4.361  10.952
37835SOL    HW115279  13.711   4.353  10.880
37835SOL    HW215280  13.721   4.344  11.031
37836SOL     OW15281   0.896   9.036   9.592
37836SOL    HW115282   0.897   9.033   9.688
37836SOL    HW215283   0.971   8.983   9.566
37837SOL     OW15284   4.362   5.856  11.245
37837SOL    HW115285   4.422   5.916  11.290
37837SOL    HW215286   4.324   5.909  11.175
37838SOL     OW15287  13.226   2.965   6.573
37838SOL    HW115288  13.289   2.896   6.590
37838SOL    HW215289  13.263   3.015   6.500
37839SOL     OW15290   2.843  14.681   9.579
37839SOL    HW115291   2.848  14.663   9.673
37839SOL    HW215292   2.807  14.601   9.541
37840SOL     OW15293   9.368   2.729   4.772
37840SOL    HW115294   9.297   2.766   4.825
37840SOL    HW215295   9.333   2.647   4.739
37841SOL     OW15296   0.651   4.115  14.074
37841SOL    HW115297   0.650   4.185  14.008
37841SOL    HW215298   0.730   4.132  14.125
37842SOL     OW15299   7.306   1.053   2.416
37842SOL    HW115300   7.339   0.986   2.475
37842SOL    HW215301   7.213   1.030   2.404
37843SOL     OW15302   7.203  13.271   3.050
37843SOL    HW115303   7.152  13.282   3.131
37843SOL    HW215304   7.138  13.247   2.984
37844SOL     OW15305   4.811   1.631  12.990
37844SOL    HW115306   4.822   1.569  13.063
37844SOL    HW215307   4.892   1.624  12.940
37845SOL     OW15308  12.837   8.669   0.638
37845SOL    HW115309  12.930   8.648   0.652
37845SOL    HW215310  12.791   8.591   0.669
37846SOL     OW15311  13.272   8.978  12.565
37846SOL    HW115312  13.330   8.945  12.497
37846SOL    HW215313  13.191   8.929  12.553
37847SOL     OW15314   7.636   8.432   5.512
37847SOL    HW115315   7.617   8.410   5.421
37847SOL    HW215316   7.730   8.453   5.512
37848SOL     OW15317   5.561  11.213   5.828
37848SOL    HW115318   5.590  11.189   5.916
37848SOL    HW215319   5.494  11.280   5.842
37849SOL     OW15320   5.676  14.788  14.003
37849SOL    HW115321   5.732  14.805  13.927
37849SOL    HW215322   5.679  14.693  14.015
37850SOL     OW15323   0.328   1.511   5.274
37850SOL    HW115324   0.346   1.450   5.345
37850SOL    HW215325   0.403   1.571   5.273
37851SOL     OW15326  14.475   2.148  11.575
37851SOL    HW115327  14.564   2.169  11.546
37851SOL    HW215328  14.486   2.090  11.650
37852SOL     OW15329   5.190   8.700   0.021
37852SOL    HW115330   5.215   8.735   0.106
37852SOL    HW215331   5.124   8.634   0.040
37853SOL     OW15332   0.200  14.337  12.259
37853SOL    HW115333   0.251  14.418  12.252
37853SOL    HW215334   0.198  14.302  12.170
37854SOL     OW15335  12.103   9.473  14.470
37854SOL    HW115336  12.050   9.466  14.549
37854SOL    HW215337  12.121   9.382  14.445
37855SOL     OW15338  14.656   4.173  11.866
37855SOL    HW115339  14.686   4.168  11.957
37855SOL    HW215340  14.707   4.107  11.821
37856SOL     OW15341   3.241   6.915   5.330
37856SOL    HW115342   3.279   6.997   5.299
37856SOL    HW215343   3.149   6.935   5.344
37857SOL     OW15344   2.147   5.702   6.834
37857SOL    HW115345   2.218   5.715   6.897
37857SOL    HW215346   2.188   5.717   6.749
37858SOL     OW15347  12.653  10.842   3.863
37858SOL    HW115348  12.628  10.780   3.931
37858SOL    HW215349  12.729  10.802   3.821
37859SOL     OW15350   7.499  13.203   4.031
37859SOL    HW115351   7.567  13.218   4.097
37859SOL    HW215352   7.538  13.139   3.971
37860SOL     OW15353   9.057   8.595   5.032
37860SOL    HW115354   9.076   8.584   4.939
37860SOL    HW215355   8.972   8.553   5.045
37861SOL     OW15356   7.000  14.723   4.438
37861SOL    HW115357   7.087  14.682   4.437
37861SOL    HW215358   7.018  14.817   4.443
37862SOL     OW15359  11.769   6.060  13.015
37862SOL    HW115360  11.848   6.096  13.054
37862SOL    HW215361  11.715   6.035  13.090
37863SOL     OW15362   8.300   7.536   2.954
37863SOL    HW115363   8.350   7.455   2.963
37863SOL    HW215364   8.351   7.601   3.003
37864SOL     OW15365  12.353  12.918   7.987
37864SOL    HW115366  12.385  13.008   7.993
37864SOL    HW215367  12.270  12.919   8.036
37865SOL     OW15368   4.703   7.400   3.517
37865SOL    HW115369   4.650   7.453   3.577
37865SOL    HW215370   4.680   7.434   3.430
37866SOL     OW15371   5.016   6.788   1.528
37866SOL    HW115372   4.938   6.781   1.582
37866SOL    HW215373   4.983   6.809   1.441
37867SOL     OW15374   5.444   7.285   8.845
37867SOL    HW115375   5.524   7.243   8.877
37867SOL    HW215376   5.476   7.360   8.795
37868SOL     OW15377  11.026   5.246   2.986
37868SOL    HW115378  11.020   5.212   2.897
37868SOL    HW215379  11.120   5.250   3.004
37869SOL     OW15380   9.581  13.469   8.790
37869SOL    HW115381   9.664  13.478   8.837
37869SOL    HW215382   9.538  13.554   8.801
37870SOL     OW15383   3.635   3.286   3.895
37870SOL    HW115384   3.702   3.354   3.893
37870SOL    HW215385   3.582   3.306   3.972
37871SOL     OW15386   6.869  11.496   5.899
37871SOL    HW115387   6.844  11.586   5.921
37871SOL    HW215388   6.805  11.468   5.833
37872SOL     OW15389   7.736   1.163   3.204
37872SOL    HW115390   7.788   1.100   3.254
37872SOL    HW215391   7.762   1.149   3.113
37873SOL     OW15392  10.593  10.759  12.201
37873SOL    HW115393  10.668  10.720  12.245
37873SOL    HW215394  10.524  10.762  12.267
37874SOL     OW15395  14.625   3.682  11.406
37874SOL    HW115396  14.656   3.708  11.319
37874SOL    HW215397  14.704   3.680  11.460
37875SOL     OW15398   4.240   4.800  13.519
37875SOL    HW115399   4.223   4.869  13.584
37875SOL    HW215400   4.182   4.821  13.446
37876SOL     OW15401   6.993   7.818   5.192
37876SOL    HW115402   7.079   7.847   5.160
37876SOL    HW215403   7.007   7.727   5.220
37877SOL     OW15404   4.656   0.216   8.980
37877SOL    HW115405   4.752   0.215   8.978
37877SOL    HW215406   4.632   0.287   8.920
37878SOL     OW15407   4.486   2.942   3.172
37878SOL    HW115408   4.484   2.869   3.234
37878SOL    HW215409   4.534   3.011   3.218
37879SOL     OW15410   6.967  12.839   5.725
37879SOL    HW115411   6.998  12.817   5.637
37879SOL    HW215412   6.911  12.765   5.750
37880SOL     OW15413  12.316  10.537  14.714
37880SOL    HW115414  12.272  10.455  14.735
37880SOL    HW215415  12.407  10.512  14.701
37881SOL     OW15416   2.512  10.261   8.314
37881SOL    HW115417   2.583  10.316   8.280
37881SOL    HW215418   2.440  10.322   8.331
37882SOL     OW15419   0.036   3.042  12.216
37882SOL    HW115420  14.872   3.078  12.138
37882SOL    HW215421  14.845   3.043  12.282
37883SOL     OW15422  14.335   7.501   5.191
37883SOL    HW115423  14.386   7.576   5.160
37883SOL    HW215424  14.336   7.439   5.117
37884SOL     OW15425  12.786   2.434  10.210
37884SOL    HW115426  12.692   2.428  10.226
37884SOL    HW215427  12.826   2.395  10.288
37885SOL     OW15428   5.346   2.131  12.815
37885SOL    HW115429   5.267   2.149  12.866
37885SOL    HW215430   5.346   2.036  12.802
37886SOL     OW15431   2.457   2.293   5.302
37886SOL    HW115432   2.481   2.365   5.361
37886SOL    HW215433   2.508   2.309   5.223
37887SOL     OW15434  11.228  13.370   9.949
37887SOL    HW115435  11.284  13.303   9.910
37887SOL    HW215436  11.230  13.443   9.887
37888SOL     OW15437   9.735  12.228   0.590
37888SOL    HW115438   9.696  12.156   0.541
37888SOL    HW215439   9.661  12.268   0.636
37889SOL     OW15440   0.410   3.301  10.336
37889SOL    HW115441   0.371   3.289  10.249
37889SOL    HW215442   0.373   3.230  10.388
37890SOL     OW15443   3.001   4.313   7.460
37890SOL    HW115444   2.983   4.324   7.366
37890SOL    HW215445   2.914   4.305   7.500
37891SOL     OW15446   5.259   3.518   3.517
37891SOL    HW115447   5.306   3.466   3.582
37891SOL    HW215448   5.168   3.491   3.526
37892SOL     OW15449   8.801  12.969   7.142
37892SOL    HW115450   8.728  12.962   7.204
37892SOL    HW215451   8.879  12.962   7.197
37893SOL     OW15452   3.175   1.776   4.935
37893SOL    HW115453   3.098   1.777   4.878
37893SOL    HW215454   3.148   1.727   5.012
37894SOL     OW15455   0.956   3.284  14.371
37894SOL    HW115456   0.904   3.218  14.325
37894SOL    HW215457   0.977   3.349  14.303
37895SOL     OW15458   6.264   5.148  12.400
37895SOL    HW115459   6.215   5.165  12.480
37895SOL    HW215460   6.312   5.230  12.384
37896SOL     OW15461   4.981   8.417  12.714
37896SOL    HW115462   5.068   8.400  12.677
37896SOL    HW215463   4.983   8.509  12.738
37897SOL     OW15464   1.044   3.119  13.943
37897SOL    HW115465   1.082   3.065  13.875
37897SOL    HW215466   1.030   3.204  13.902
37898SOL     OW15467   7.162   0.900   4.543
37898SOL    HW115468   7.139   0.948   4.622
37898SOL    HW215469   7.247   0.861   4.562
37899SOL     OW15470   2.189   2.092  12.447
37899SOL    HW115471   2.168   2.166  12.503
37899SOL    HW215472   2.247   2.128  12.380
37900SOL     OW15473   2.726   1.152   4.680
37900SOL    HW115474   2.752   1.123   4.768
37900SOL    HW215475   2.805   1.141   4.627
37901SOL     OW15476   7.900  13.845   3.639
37901SOL    HW115477   7.937  13.925   3.602
37901SOL    HW215478   7.965  13.815   3.703
37902SOL     OW15479   0.970   5.763   7.043
37902SOL    HW115480   0.902   5.697   7.038
37902SOL    HW215481   0.948   5.826   6.974
37903SOL     OW15482   0.631   7.653   4.518
37903SOL    HW115483   0.543   7.616   4.524
37903SOL    HW215484   0.685   7.579   4.489
37904SOL     OW15485   7.439   3.251   8.913
37904SOL    HW115486   7.514   3.306   8.892
37904SOL    HW215487   7.446   3.234   9.007
37905SOL     OW15488   0.138  12.166   3.286
37905SOL    HW115489   0.050  12.198   3.309
37905SOL    HW215490   0.192  12.193   3.360
37906SOL     OW15491   3.768   7.005   5.679
37906SOL    HW115492   3.682   7.041   5.700
37906SOL    HW215493   3.796   7.053   5.601
37907SOL     OW15494   9.773   6.021   4.333
37907SOL    HW115495   9.789   5.934   4.296
37907SOL    HW215496   9.722   6.066   4.267
37908SOL     OW15497   2.044  11.461   3.467
37908SOL    HW115498   2.046  11.556   3.452
37908SOL    HW215499   1.997  11.451   3.550
37909SOL     OW15500  13.051   2.615  13.026
37909SOL    HW115501  13.126   2.666  12.995
37909SOL    HW215502  12.979   2.677  13.028
37910SOL     OW15503  11.294   3.348   5.856
37910SOL    HW115504  11.364   3.309   5.908
37910SOL    HW215505  11.231   3.277   5.844
37911SOL     OW15506  12.224  14.153   6.674
37911SOL    HW115507  12.151  14.209   6.702
37911SOL    HW215508  12.228  14.084   6.740
37912SOL     OW15509   3.021  13.542   0.130
37912SOL    HW115510   2.932  13.567   0.104
37912SOL    HW215511   3.073  13.621   0.113
37913SOL     OW15512   7.899  14.833   2.793
37913SOL    HW115513   7.875   0.027   2.851
37913SOL    HW215514   7.920  14.761   2.851
37914SOL     OW15515  13.152   0.634   1.074
37914SOL    HW115516  13.139   0.592   1.159
37914SOL    HW215517  13.247   0.649   1.069
37915SOL     OW15518   3.675   2.248   9.588
37915SOL    HW115519   3.749   2.308   9.602
37915SOL    HW215520   3.657   2.254   9.495
37916SOL     OW15521  12.287  13.549  10.609
37916SOL    HW115522  12.268  13.642  10.622
37916SOL    HW215523  12.382  13.545  10.606
37917SOL     OW15524   3.667   3.965  11.304
37917SOL    HW115525   3.661   3.875  11.336
37917SOL    HW215526   3.616   4.016  11.367
37918SOL     OW15527  13.636   7.470   4.207
37918SOL    HW115528  13.593   7.388   4.232
37918SOL    HW215529  13.728   7.456   4.230
37919SOL     OW15530   3.214  12.481   4.287
37919SOL    HW115531   3.245  12.572   4.297
37919SOL    HW215532   3.278  12.441   4.227
37920SOL     OW15533   1.422   9.919   1.674
37920SOL    HW115534   1.331   9.924   1.703
37920SOL    HW215535   1.444  10.007   1.645
37921SOL     OW15536   8.170   5.497  10.824
37921SOL    HW115537   8.090   5.465  10.866
37921SOL    HW215538   8.206   5.560  10.886
37922SOL     OW15539  12.252  11.115  14.112
37922SOL    HW115540  12.322  11.092  14.052
37922SOL    HW215541  12.274  11.070  14.194
37923SOL     OW15542  11.354   7.960   0.072
37923SOL    HW115543  11.346   7.974   0.166
37923SOL    HW215544  11.263   7.954   0.041
37924SOL     OW15545   1.493   3.141  12.070
37924SOL    HW115546   1.439   3.150  11.991
37924SOL    HW215547   1.444   3.189  12.137
37925SOL     OW15548   8.620   1.227   7.666
37925SOL    HW115549   8.596   1.191   7.752
37925SOL    HW215550   8.605   1.321   7.674
37926SOL     OW15551  11.317  12.113  13.551
37926SOL    HW115552  11.275  12.143  13.632
37926SOL    HW215553  11.381  12.048  13.581
37927SOL     OW15554   7.124   1.279   4.459
37927SOL    HW115555   7.132   1.326   4.376
37927SOL    HW215556   7.032   1.252   4.462
37928SOL     OW15557   7.677   1.943  14.272
37928SOL    HW115558   7.772   1.940  14.274
37928SOL    HW215559   7.654   2.028  14.309
37929SOL     OW15560  12.024   6.351   3.592
37929SOL    HW115561  12.109   6.385   3.619
37929SOL    HW215562  12.023   6.359   3.497
37930SOL     OW15563  12.630   5.115   8.690
37930SOL    HW115564  12.537   5.102   8.709
37930SOL    HW215565  12.634   5.128   8.595
37931SOL     OW15566  14.124  14.806  11.648
37931SOL    HW115567  14.177  14.749  11.703
37931SOL    HW215568  14.036  14.802  11.687
37932SOL     OW15569   9.290  13.148   0.523
37932SOL    HW115570   9.346  13.143   0.445
37932SOL    HW215571   9.227  13.217   0.503
37933SOL     OW15572   3.247   7.977   7.125
37933SOL    HW115573   3.262   7.950   7.034
37933SOL    HW215574   3.318   8.040   7.142
37934SOL     OW15575  10.381   7.710   4.481
37934SOL    HW115576  10.473   7.730   4.501
37934SOL    HW215577  10.343   7.794   4.456
37935SOL     OW15578   7.971   2.583   3.244
37935SOL    HW115579   8.020   2.532   3.308
37935SOL    HW215580   7.912   2.637   3.296
37936SOL     OW15581   2.581  13.189  14.778
37936SOL    HW115582   2.663  13.185  14.729
37936SOL    HW215583   2.567  13.100  14.809
37937SOL     OW15584   1.232  11.560   7.733
37937SOL    HW115585   1.159  11.515   7.692
37937SOL    HW215586   1.214  11.653   7.719
37938SOL     OW15587   1.600   1.558   0.967
37938SOL    HW115588   1.680   1.531   1.013
37938SOL    HW215589   1.531   1.548   1.032
37939SOL     OW15590   7.486   3.791   2.504
37939SOL    HW115591   7.396   3.781   2.474
37939SOL    HW215592   7.526   3.706   2.489
37940SOL     OW15593   2.737   7.381  12.449
37940SOL    HW115594   2.831   7.367  12.450
37940SOL    HW215595   2.721   7.443  12.520
37941SOL     OW15596  10.232   9.445   9.316
37941SOL    HW115597  10.269   9.419   9.232
37941SOL    HW215598  10.148   9.399   9.321
37942SOL     OW15599   5.041  14.668   8.559
37942SOL    HW115600   4.946  14.653   8.557
37942SOL    HW215601   5.073  14.612   8.629
37943SOL     OW15602   3.326  10.309   5.333
37943SOL    HW115603   3.292  10.288   5.420
37943SOL    HW215604   3.413  10.347   5.349
37944SOL     OW15605   9.812   9.582   3.772
37944SOL    HW115606   9.734   9.563   3.721
37944SOL    HW215607   9.793   9.549   3.860
37945SOL     OW15608   7.522  13.747   7.699
37945SOL    HW115609   7.615  13.729   7.701
37945SOL    HW215610   7.511  13.810   7.628
37946SOL     OW15611   1.097   9.378   6.428
37946SOL    HW115612   1.096   9.283   6.417
37946SOL    HW215613   1.045   9.393   6.507
37947SOL     OW15614   6.835  13.357   1.068
37947SOL    HW115615   6.895  13.300   1.020
37947SOL    HW215616   6.815  13.309   1.148
37948SOL     OW15617   8.130   6.547   9.990
37948SOL    HW115618   8.058   6.543   9.927
37948SOL    HW215619   8.176   6.464   9.978
37949SOL     OW15620  13.644   2.685   6.851
37949SOL    HW115621  13.724   2.639   6.876
37949SOL    HW215622  13.586   2.616   6.818
37950SOL     OW15623  10.264   1.816  11.962
37950SOL    HW115624  10.268   1.897  11.910
37950SOL    HW215625  10.172   1.790  11.960
37951SOL     OW15626  11.221  11.722   4.525
37951SOL    HW115627  11.254  11.778   4.594
37951SOL    HW215628  11.289  11.722   4.458
37952SOL     OW15629   9.212   0.232   3.653
37952SOL    HW115630   9.306   0.225   3.640
37952SOL    HW215631   9.186   0.308   3.601
37953SOL     OW15632  10.705   1.942   3.729
37953SOL    HW115633  10.623   1.991   3.735
37953SOL    HW215634  10.717   1.906   3.817
37954SOL     OW15635   8.985   5.659   6.503
37954SOL    HW115636   9.019   5.572   6.523
37954SOL    HW215637   9.046   5.719   6.548
37955SOL     OW15638  13.863  10.810   7.361
37955SOL    HW115639  13.943  10.775   7.322
37955SOL    HW215640  13.892  10.888   7.409
37956SOL     OW15641   0.975   3.838   0.081
37956SOL    HW115642   0.958   3.883   0.164
37956SOL    HW215643   1.057   3.790   0.096
37957SOL     OW15644  13.991  13.583   4.065
37957SOL    HW115645  13.899  13.608   4.071
37957SOL    HW215646  14.007  13.571   3.972
37958SOL     OW15647   1.729  14.303   7.497
37958SOL    HW115648   1.670  14.356   7.550
37958SOL    HW215649   1.769  14.242   7.559
37959SOL     OW15650  13.452   5.243   8.821
37959SOL    HW115651  13.371   5.270   8.777
37959SOL    HW215652  13.487   5.174   8.765
37960SOL     OW15653   8.392   5.982  13.227
37960SOL    HW115654   8.463   5.917  13.223
37960SOL    HW215655   8.340   5.956  13.303
37961SOL     OW15656   6.278   8.749   1.657
37961SOL    HW115657   6.204   8.792   1.615
37961SOL    HW215658   6.278   8.782   1.747
37962SOL     OW15659  10.523   8.501   6.301
37962SOL    HW115660  10.441   8.520   6.256
37962SOL    HW215661  10.497   8.448   6.377
37963SOL     OW15662  14.606   9.566   4.819
37963SOL    HW115663  14.635   9.548   4.729
37963SOL    HW215664  14.526   9.514   4.829
37964SOL     OW15665   7.979   9.566   7.174
37964SOL    HW115666   8.067   9.591   7.145
37964SOL    HW215667   7.975   9.596   7.265
37965SOL     OW15668   2.924  12.206   5.796
37965SOL    HW115669   2.933  12.284   5.742
37965SOL    HW215670   2.837  12.172   5.775
37966SOL     OW15671  10.412   4.195   5.567
37966SOL    HW115672  10.415   4.168   5.659
37966SOL    HW215673  10.473   4.135   5.523
37967SOL     OW15674  13.513   8.083   6.053
37967SOL    HW115675  13.473   8.112   5.971
37967SOL    HW215676  13.456   8.121   6.121
37968SOL     OW15677  13.272   7.756   9.664
37968SOL    HW115678  13.325   7.710   9.598
37968SOL    HW215679  13.187   7.712   9.661
37969SOL     OW15680   6.969  13.549   5.638
37969SOL    HW115681   7.025  13.507   5.573
37969SOL    HW215682   6.921  13.476   5.678
37970SOL     OW15683   4.634  13.869  14.362
37970SOL    HW115684   4.594  13.785  14.341
37970SOL    HW215685   4.561  13.930  14.368
37971SOL     OW15686   0.742   6.295   6.736
37971SOL    HW115687   0.750   6.259   6.648
37971SOL    HW215688   0.720   6.220   6.791
37972SOL     OW15689   2.601  11.624   5.791
37972SOL    HW115690   2.611  11.674   5.710
37972SOL    HW215691   2.561  11.685   5.853
37973SOL     OW15692   0.876   4.019  12.836
37973SOL    HW115693   0.811   3.970  12.886
37973SOL    HW215694   0.853   4.003  12.744
37974SOL     OW15695   7.973  13.005   8.229
37974SOL    HW115696   7.936  12.930   8.183
37974SOL    HW215697   8.023  12.966   8.301
37975SOL     OW15698  10.867   0.686   6.140
37975SOL    HW115699  10.778   0.664   6.169
37975SOL    HW215700  10.923   0.658   6.213
37976SOL     OW15701  11.572   6.422  12.089
37976SOL    HW115702  11.595   6.414  12.182
37976SOL    HW215703  11.577   6.516  12.072
37977SOL     OW15704   2.710   8.223   2.820
37977SOL    HW115705   2.665   8.290   2.871
37977SOL    HW215706   2.721   8.262   2.733
37978SOL     OW15707   1.757   4.730  12.304
37978SOL    HW115708   1.680   4.754  12.252
37978SOL    HW215709   1.827   4.718  12.239
37979SOL     OW15710   5.761   3.339   2.103
37979SOL    HW115711   5.679   3.325   2.055
37979SOL    HW215712   5.757   3.430   2.132
37980SOL     OW15713  14.713   3.957   0.286
37980SOL    HW115714  14.760   4.023   0.337
37980SOL    HW215715  14.651   4.007   0.233
37981SOL     OW15716   2.935  11.029   4.731
37981SOL    HW115717   2.844  11.036   4.761
37981SOL    HW215718   2.933  11.056   4.639
37982SOL     OW15719   0.850   7.316   6.169
37982SOL    HW115720   0.801   7.285   6.245
37982SOL    HW215721   0.835   7.250   6.102
37983SOL     OW15722   3.006   3.294  12.289
37983SOL    HW115723   2.960   3.353  12.229
37983SOL    HW215724   2.996   3.335  12.375
37984SOL     OW15725   3.265  11.900  12.614
37984SOL    HW115726   3.353  11.884  12.580
37984SOL    HW215727   3.279  11.942  12.699
37985SOL     OW15728   8.426  10.577   2.587
37985SOL    HW115729   8.372  10.542   2.658
37985SOL    HW215730   8.371  10.570   2.509
37986SOL     OW15731  11.285   9.815   1.162
37986SOL    HW115732  11.333   9.743   1.120
37986SOL    HW215733  11.349   9.858   1.218
37987SOL     OW15734   7.209  11.484   3.394
37987SOL    HW115735   7.287  11.486   3.338
37987SOL    HW215736   7.163  11.404   3.368
37988SOL     OW15737   9.983  14.814   9.599
37988SOL    HW115738  10.039  14.777   9.531
37988SOL    HW215739   9.924  14.873   9.552
37989SOL     OW15740  12.299   9.593   2.895
37989SOL    HW115741  12.254   9.537   2.832
37989SOL    HW215742  12.347   9.532   2.951
37990SOL     OW15743   1.321   2.354   2.959
37990SOL    HW115744   1.395   2.414   2.965
37990SOL    HW215745   1.244   2.412   2.952
37991SOL     OW15746   8.107   5.279   6.624
37991SOL    HW115747   8.128   5.207   6.684
37991SOL    HW215748   8.058   5.341   6.678
37992SOL     OW15749   4.362   9.468   2.459
37992SOL    HW115750   4.443   9.486   2.506
37992SOL    HW215751   4.293   9.478   2.525
37993SOL     OW15752   2.970  10.559  10.423
37993SOL    HW115753   2.977  10.630  10.359
37993SOL    HW215754   2.879  10.563  10.452
37994SOL     OW15755   3.976   4.440   3.323
37994SOL    HW115756   4.005   4.480   3.405
37994SOL    HW215757   3.917   4.370   3.349
37995SOL     OW15758   4.370  13.472   1.476
37995SOL    HW115759   4.283  13.495   1.444
37995SOL    HW215760   4.430  13.511   1.412
37996SOL     OW15761  10.838   0.387  13.606
37996SOL    HW115762  10.800   0.475  13.606
37996SOL    HW215763  10.881   0.380  13.521
37997SOL     OW15764   0.120   9.778  12.802
37997SOL    HW115765   0.148   9.783  12.711
37997SOL    HW215766   0.077   9.693  12.809
37998SOL     OW15767  14.155   8.070   1.354
37998SOL    HW115768  14.246   8.098   1.364
37998SOL    HW215769  14.157   8.004   1.285
37999SOL     OW15770   7.154   7.459   1.437
37999SOL    HW115771   7.150   7.385   1.497
37999SOL    HW215772   7.129   7.423   1.352
38000SOL     OW15773   4.565   1.805  12.087
38000SOL    HW115774   4.505   1.877  12.101
38000SOL    HW215775   4.646   1.832  12.130
38001SOL     OW15776   2.438  10.804   6.469
38001SOL    HW115777   2.368  10.758   6.515
38001SOL    HW215778   2.514  10.797   6.527
38002SOL     OW15779   4.153   3.968   9.306
38002SOL    HW115780   4.107   3.913   9.370
38002SOL    HW215781   4.245   3.943   9.315
38003SOL     OW15782   3.647   9.047  13.132
38003SOL    HW115783   3.564   9.004  13.153
38003SOL    HW215784   3.681   8.999  13.057
38004SOL     OW15785  14.191   2.018  11.027
38004SOL    HW115786  14.249   2.037  10.953
38004SOL    HW215787  14.234   2.060  11.102
38005SOL     OW15788  10.274   7.062   1.333
38005SOL    HW115789  10.204   7.048   1.397
38005SOL    HW215790  10.228   7.091   1.253
38006SOL     OW15791  13.680   4.021  11.180
38006SOL    HW115792  13.689   4.006  11.086
38006SOL    HW215793  13.695   4.115  11.190
38007SOL     OW15794   8.797  11.705   7.917
38007SOL    HW115795   8.842  11.762   7.854
38007SOL    HW215796   8.733  11.657   7.864
38008SOL     OW15797  11.618   6.118  12.504
38008SOL    HW115798  11.706   6.143  12.531
38008SOL    HW215799  11.586   6.061  12.575
38009SOL     OW15800   1.476   0.365  12.250
38009SOL    HW115801   1.540   0.309  12.294
38009SOL    HW215802   1.392   0.344  12.291
38010SOL     OW15803  10.361   4.359   0.386
38010SOL    HW115804  10.368   4.267   0.412
38010SOL    HW215805  10.442   4.377   0.338
38011SOL     OW15806   4.385   7.901   0.758
38011SOL    HW115807   4.433   7.980   0.783
38011SOL    HW215808   4.426   7.831   0.809
38012SOL     OW15809  12.810   9.073   0.365
38012SOL    HW115810  12.725   9.047   0.402
38012SOL    HW215811  12.792   9.157   0.322
38013SOL     OW15812  10.805   5.232   0.543
38013SOL    HW115813  10.742   5.293   0.505
38013SOL    HW215814  10.848   5.192   0.467
38014SOL     OW15815  10.886   9.770  10.250
38014SOL    HW115816  10.906   9.776  10.156
38014SOL    HW215817  10.929   9.690  10.278
38015SOL     OW15818   5.925   6.079   4.474
38015SOL    HW115819   5.950   6.020   4.403
38015SOL    HW215820   5.957   6.165   4.446
38016SOL     OW15821  12.266   9.771   9.380
38016SOL    HW115822  12.341   9.764   9.439
38016SOL    HW215823  12.292   9.838   9.317
38017SOL     OW15824  14.395   6.815   7.612
38017SOL    HW115825  14.446   6.779   7.539
38017SOL    HW215826  14.374   6.904   7.584
38018SOL     OW15827  11.619   5.968   1.092
38018SOL    HW115828  11.682   5.929   1.153
38018SOL    HW215829  11.540   5.915   1.102
38019SOL     OW15830  10.313  12.733  14.596
38019SOL    HW115831  10.231  12.767  14.559
38019SOL    HW215832  10.289  12.701  14.683
38020SOL     OW15833   3.690   1.016   8.502
38020SOL    HW115834   3.688   0.936   8.450
38020SOL    HW215835   3.599   1.046   8.502
38021SOL     OW15836  10.191   5.127  13.304
38021SOL    HW115837  10.105   5.171  13.304
38021SOL    HW215838  10.173   5.040  13.340
38022SOL     OW15839  12.521  13.166  12.690
38022SOL    HW115840  12.603  13.200  12.724
38022SOL    HW215841  12.457  13.235  12.706
38023SOL     OW15842   9.214   4.991  14.504
38023SOL    HW115843   9.169   4.924  14.452
38023SOL    HW215844   9.224   4.951  14.591
38024SOL     OW15845   5.173   8.914   3.187
38024SOL    HW115846   5.239   8.848   3.208
38024SOL    HW215847   5.119   8.921   3.266
38025SOL     OW15848  14.384   1.536   6.739
38025SOL    HW115849  14.322   1.606   6.760
38025SOL    HW215850  14.346   1.492   6.663
38026SOL     OW15851   1.884  12.131  13.356
38026SOL    HW115852   1.874  12.037  13.339
38026SOL    HW215853   1.848  12.144  13.444
38027SOL     OW15854  14.439  10.133  12.447
38027SOL    HW115855  14.487  10.117  12.528
38027SOL    HW215856  14.474  10.216  12.413
38028SOL     OW15857   8.423   2.807   6.177
38028SOL    HW115858   8.386   2.885   6.219
38028SOL    HW215859   8.350   2.766   6.131
38029SOL     OW15860   1.483   7.808   8.450
38029SOL    HW115861   1.550   7.809   8.382
38029SOL    HW215862   1.456   7.899   8.459
38030SOL     OW15863   8.506   1.349  14.118
38030SOL    HW115864   8.595   1.381  14.104
38030SOL    HW215865   8.483   1.379  14.206
38031SOL     OW15866  12.613   1.186  11.918
38031SOL    HW115867  12.605   1.192  12.014
38031SOL    HW215868  12.567   1.106  11.895
38032SOL     OW15869   0.251   6.024   6.303
38032SOL    HW115870   0.205   5.942   6.282
38032SOL    HW215871   0.229   6.040   6.395
38033SOL     OW15872   8.175   6.332   8.926
38033SOL    HW115873   8.270   6.327   8.922
38033SOL    HW215874   8.153   6.315   9.018
38034SOL     OW15875  14.008  13.588   2.300
38034SOL    HW115876  14.023  13.590   2.395
38034SOL    HW215877  14.083  13.634   2.263
38035SOL     OW15878   3.972   4.065  11.084
38035SOL    HW115879   4.033   4.138  11.074
38035SOL    HW215880   3.975   4.044  11.177
38036SOL     OW15881   1.152  10.238  13.869
38036SOL    HW115882   1.197  10.259  13.787
38036SOL    HW215883   1.150  10.320  13.917
38037SOL     OW15884  13.270  12.362  13.212
38037SOL    HW115885  13.327  12.429  13.248
38037SOL    HW215886  13.281  12.287  13.270
38038SOL     OW15887  11.192  10.773  11.328
38038SOL    HW115888  11.153  10.847  11.281
38038SOL    HW215889  11.286  10.785  11.317
38039SOL     OW15890  10.456   6.696   8.297
38039SOL    HW115891  10.501   6.673   8.379
38039SOL    HW215892  10.402   6.772   8.320
38040SOL     OW15893   0.789   3.509   6.372
38040SOL    HW115894   0.846   3.551   6.307
38040SOL    HW215895   0.797   3.416   6.353
38041SOL     OW15896   2.938  10.659   8.314
38041SOL    HW115897   2.889  10.579   8.334
38041SOL    HW215898   3.012  10.656   8.375
38042SOL     OW15899  12.369  13.873   0.751
38042SOL    HW115900  12.439  13.933   0.775
38042SOL    HW215901  12.288  13.921   0.770
38043SOL     OW15902   5.684   0.772   3.707
38043SOL    HW115903   5.652   0.771   3.798
38043SOL    HW215904   5.643   0.850   3.669
38044SOL     OW15905   0.685   8.808   4.349
38044SOL    HW115906   0.652   8.873   4.411
38044SOL    HW215907   0.695   8.728   4.401
38045SOL     OW15908   7.931  11.873  13.234
38045SOL    HW115909   7.940  11.784  13.268
38045SOL    HW215910   7.893  11.862  13.147
38046SOL     OW15911   8.652   1.155   4.678
38046SOL    HW115912   8.679   1.137   4.588
38046SOL    HW215913   8.558   1.138   4.678
38047SOL     OW15914   8.500   2.306  14.740
38047SOL    HW115915   8.454   2.389  14.741
38047SOL    HW215916   8.469   2.260  14.818
38048SOL     OW15917   5.075  11.554   9.932
38048SOL    HW115918   4.988  11.591   9.947
38048SOL    HW215919   5.060  11.460   9.923
38049SOL     OW15920  13.378   9.767   8.007
38049SOL    HW115921  13.332   9.733   7.930
38049SOL    HW215922  13.311   9.815   8.056
38050SOL     OW15923   9.144   1.823   1.226
38050SOL    HW115924   9.176   1.827   1.316
38050SOL    HW215925   9.220   1.795   1.175
38051SOL     OW15926   1.600   6.241  12.003
38051SOL    HW115927   1.688   6.225  12.039
38051SOL    HW215928   1.549   6.273  12.078
38052SOL     OW15929   5.890   2.089   6.519
38052SOL    HW115930   5.962   2.087   6.457
38052SOL    HW215931   5.921   2.035   6.593
38053SOL     OW15932   7.696   5.121   9.869
38053SOL    HW115933   7.773   5.083   9.826
38053SOL    HW215934   7.730   5.197   9.916
38054SOL     OW15935  14.354   8.408  13.682
38054SOL    HW115936  14.425   8.471  13.691
38054SOL    HW215937  14.356   8.382  13.590
38055SOL     OW15938  14.559  14.221   6.385
38055SOL    HW115939  14.480  14.273   6.394
38055SOL    HW215940  14.590  14.239   6.296
38056SOL     OW15941   2.267  14.470   6.193
38056SOL    HW115942   2.256  14.375   6.184
38056SOL    HW215943   2.177  14.503   6.203
38057SOL     OW15944   7.257   3.552   3.557
38057SOL    HW115945   7.213   3.621   3.606
38057SOL    HW215946   7.199   3.534   3.483
38058SOL     OW15947  14.734   1.559   3.415
38058SOL    HW115948  14.678   1.621   3.368
38058SOL    HW215949  14.677   1.486   3.437
38059SOL     OW15950   4.129   1.013  10.276
38059SOL    HW115951   4.162   0.992  10.189
38059SOL    HW215952   4.140   0.933  10.326
38060SOL     OW15953   7.658   0.375   5.152
38060SOL    HW115954   7.622   0.415   5.231
38060SOL    HW215955   7.582   0.363   5.095
38061SOL     OW15956   0.666   1.151  12.717
38061SOL    HW115957   0.598   1.084  12.711
38061SOL    HW215958   0.732   1.123  12.653
38062SOL     OW15959   6.776   5.543   0.532
38062SOL    HW115960   6.681   5.552   0.525
38062SOL    HW215961   6.792   5.535   0.626
38063SOL     OW15962   3.555   4.647  13.698
38063SOL    HW115963   3.644   4.681  13.687
38063SOL    HW215964   3.513   4.711  13.756
38064SOL     OW15965   9.463   1.974  11.765
38064SOL    HW115966   9.519   1.985  11.688
38064SOL    HW215967   9.395   2.041  11.755
38065SOL     OW15968  13.787   3.374  14.834
38065SOL    HW115969  13.718   3.415   0.009
38065SOL    HW215970  13.826   3.309   0.015
38066SOL     OW15971   6.164   3.620  14.849
38066SOL    HW115972   6.196   3.546   0.022
38066SOL    HW215973   6.174   3.695   0.029
38067SOL     OW15974   1.936  11.322  10.217
38067SOL    HW115975   1.992  11.360  10.149
38067SOL    HW215976   1.998  11.286  10.281
38068SOL     OW15977  11.418   9.747  13.770
38068SOL    HW115978  11.412   9.766  13.677
38068SOL    HW215979  11.408   9.652  13.776
38069SOL     OW15980   0.820   5.151  10.995
38069SOL    HW115981   0.867   5.100  10.929
38069SOL    HW215982   0.887   5.177  11.058
38070SOL     OW15983   3.881   6.507   1.473
38070SOL    HW115984   3.872   6.503   1.378
38070SOL    HW215985   3.880   6.415   1.501
38071SOL     OW15986   5.549   1.452  13.848
38071SOL    HW115987   5.621   1.461  13.910
38071SOL    HW215988   5.587   1.470  13.762
38072SOL     OW15989  11.638   0.473  13.117
38072SOL    HW115990  11.646   0.379  13.103
38072SOL    HW215991  11.611   0.508  13.032
38073SOL     OW15992  10.590   8.942   7.068
38073SOL    HW115993  10.583   9.025   7.021
38073SOL    HW215994  10.639   8.885   7.008
38074SOL     OW15995   1.458   4.721  11.653
38074SOL    HW115996   1.537   4.740  11.602
38074SOL    HW215997   1.423   4.640  11.615
38075SOL     OW15998  12.601   1.040   1.824
38075SOL    HW115999  12.597   0.968   1.760
38075SOL    HW216000  12.559   1.005   1.902
38076SOL     OW16001  10.036   4.868  13.133
38076SOL    HW116002  10.081   4.896  13.054
38076SOL    HW216003  10.056   4.775  13.141
38077SOL     OW16004  11.788   6.807   6.357
38077SOL    HW116005  11.847   6.768   6.421
38077SOL    HW216006  11.704   6.765   6.373
38078SOL     OW16007  14.003   0.986  10.281
38078SOL    HW116008  14.089   0.966  10.317
38078SOL    HW216009  14.016   1.066  10.230
38079SOL     OW16010   0.074   8.329   8.082
38079SOL    HW116011   0.064   8.235   8.066
38079SOL    HW216012   0.143   8.356   8.021
38080SOL     OW16013  14.428   8.570  14.107
38080SOL    HW116014  14.384   8.605  14.185
38080SOL    HW216015  14.371   8.593  14.034
38081SOL     OW16016  12.456   5.487   7.000
38081SOL    HW116017  12.367   5.510   7.028
38081SOL    HW216018  12.503   5.570   6.997
38082SOL     OW16019  10.585  13.826   3.246
38082SOL    HW116020  10.674  13.833   3.283
38082SOL    HW216021  10.535  13.780   3.313
38083SOL     OW16022  11.460   0.477  11.672
38083SOL    HW116023  11.407   0.399  11.684
38083SOL    HW216024  11.448   0.527  11.753
38084SOL     OW16025  12.718   7.529   3.442
38084SOL    HW116026  12.751   7.558   3.527
38084SOL    HW216027  12.731   7.434   3.442
38085SOL     OW16028   4.782   4.271  12.184
38085SOL    HW116029   4.857   4.284  12.242
38085SOL    HW216030   4.750   4.360  12.166
38086SOL     OW16031   4.218   4.959  13.956
38086SOL    HW116032   4.281   4.956  13.884
38086SOL    HW216033   4.229   4.875  14.000
38087SOL     OW16034   4.134   7.157   6.005
38087SOL    HW116035   4.084   7.081   5.977
38087SOL    HW216036   4.108   7.227   5.945
38088SOL     OW16037   8.170  10.599   8.225
38088SOL    HW116038   8.099  10.662   8.218
38088SOL    HW216039   8.153  10.552   8.306
38089SOL     OW16040   3.824   7.161   2.539
38089SOL    HW116041   3.890   7.171   2.607
38089SOL    HW216042   3.790   7.072   2.550
38090SOL     OW16043   0.761  11.435   6.019
38090SOL    HW116044   0.779  11.503   6.084
38090SOL    HW216045   0.832  11.372   6.030
38091SOL     OW16046   6.407   1.330   5.426
38091SOL    HW116047   6.461   1.268   5.476
38091SOL    HW216048   6.417   1.301   5.335
38092SOL     OW16049   2.791   5.179   7.468
38092SOL    HW116050   2.876   5.217   7.448
38092SOL    HW216051   2.800   5.086   7.448
38093SOL     OW16052   3.382   1.867   3.982
38093SOL    HW116053   3.474   1.845   3.966
38093SOL    HW216054   3.335   1.833   3.906
38094SOL     OW16055   3.482   2.301   2.984
38094SOL    HW116056   3.437   2.246   2.919
38094SOL    HW216057   3.571   2.264   2.989
38095SOL     OW16058  12.995  12.147  13.721
38095SOL    HW116059  13.027  12.093  13.649
38095SOL    HW216060  12.900  12.154  13.706
38096SOL     OW16061  12.264  12.677  14.248
38096SOL    HW116062  12.335  12.726  14.289
38096SOL    HW216063  12.272  12.589  14.285
38097SOL     OW16064   8.932   3.225   4.367
38097SOL    HW116065   8.987   3.150   4.344
38097SOL    HW216066   8.979   3.268   4.439
38098SOL     OW16067   9.102  12.631  11.945
38098SOL    HW116068   9.053  12.601  12.022
38098SOL    HW216069   9.172  12.567  11.936
38099SOL     OW16070  13.307   5.603   7.026
38099SOL    HW116071  13.309   5.579   6.934
38099SOL    HW216072  13.396   5.586   7.058
38100SOL     OW16073   6.266   4.062   9.689
38100SOL    HW116074   6.313   3.984   9.719
38100SOL    HW216075   6.311   4.086   9.608
38101SOL     OW16076   6.535  12.258   5.223
38101SOL    HW116077   6.448  12.236   5.190
38101SOL    HW216078   6.576  12.307   5.152
38102SOL     OW16079  11.204   4.871   1.816
38102SOL    HW116080  11.265   4.943   1.829
38102SOL    HW216081  11.235   4.827   1.737
38103SOL     OW16082   2.097   6.107   4.111
38103SOL    HW116083   2.053   6.192   4.117
38103SOL    HW216084   2.157   6.106   4.186
38104SOL     OW16085   7.916  14.713  13.013
38104SOL    HW116086   7.893  14.704  12.920
38104SOL    HW216087   7.859  14.783  13.045
38105SOL     OW16088   2.685  14.441  14.452
38105SOL    HW116089   2.714  14.447  14.543
38105SOL    HW216090   2.651  14.528  14.431
38106SOL     OW16091   7.087  10.848  10.239
38106SOL    HW116092   7.118  10.878  10.154
38106SOL    HW216093   7.166  10.832  10.290
38107SOL     OW16094   5.532   7.227  10.939
38107SOL    HW116095   5.447   7.220  10.896
38107SOL    HW216096   5.510   7.232  11.033
38108SOL     OW16097   3.080   4.263   0.961
38108SOL    HW116098   3.016   4.289   0.894
38108SOL    HW216099   3.034   4.274   1.044
38109SOL     OW16100   7.277  10.501   7.498
38109SOL    HW116101   7.216  10.438   7.534
38109SOL    HW216102   7.226  10.550   7.434
38110SOL     OW16103   6.842  13.641   7.256
38110SOL    HW116104   6.784  13.716   7.251
38110SOL    HW216105   6.914  13.670   7.312
38111SOL     OW16106   4.020   7.896   1.022
38111SOL    HW116107   4.067   7.968   1.064
38111SOL    HW216108   4.063   7.886   0.937
38112SOL     OW16109  11.940  10.469  11.694
38112SOL    HW116110  11.948  10.427  11.779
38112SOL    HW216111  11.850  10.449  11.666
38113SOL     OW16112  11.564   2.697  11.336
38113SOL    HW116113  11.644   2.678  11.286
38113SOL    HW216114  11.551   2.619  11.391
38114SOL     OW16115   3.242  11.439   6.284
38114SOL    HW116116   3.281  11.507   6.229
38114SOL    HW216117   3.153  11.470   6.300
38115SOL     OW16118   9.848   0.012  11.136
38115SOL    HW116119   9.825  14.860  11.224
38115SOL    HW216120   9.766   0.008  11.088
38116SOL     OW16121   6.877   9.321   4.898
38116SOL    HW116122   6.856   9.346   4.988
38116SOL    HW216123   6.968   9.290   4.902
38117SOL     OW16124   3.051  12.408  10.114
38117SOL    HW116125   3.126  12.389  10.057
38117SOL    HW216126   3.024  12.497  10.088
38118SOL     OW16127   5.876   5.200   4.396
38118SOL    HW116128   5.944   5.193   4.463
38118SOL    HW216129   5.795   5.210   4.445
38119SOL     OW16130   6.498   6.602   3.818
38119SOL    HW116131   6.522   6.692   3.799
38119SOL    HW216132   6.579   6.560   3.846
38120SOL     OW16133   4.002   9.724   2.788
38120SOL    HW116134   3.982   9.773   2.868
38120SOL    HW216135   4.088   9.685   2.804
38121SOL     OW16136   1.099  10.087  10.026
38121SOL    HW116137   1.068  10.163  10.076
38121SOL    HW216138   1.189  10.074  10.055
38122SOL     OW16139  12.014   6.882   0.063
38122SOL    HW116140  12.107   6.906   0.062
38122SOL    HW216141  11.987   6.895   0.154
38123SOL     OW16142   0.227  13.951   2.374
38123SOL    HW116143   0.239  13.971   2.281
38123SOL    HW216144   0.136  13.975   2.392
38124SOL     OW16145   5.327   6.378   1.343
38124SOL    HW116146   5.305   6.385   1.436
38124SOL    HW216147   5.398   6.441   1.331
38125SOL     OW16148   8.079  11.495   8.642
38125SOL    HW116149   8.034  11.461   8.719
38125SOL    HW216150   8.010  11.536   8.590
38126SOL     OW16151   8.150   1.413   4.287
38126SOL    HW116152   8.176   1.370   4.206
38126SOL    HW216153   8.199   1.495   4.288
38127SOL     OW16154   0.228   4.101   1.307
38127SOL    HW116155   0.289   4.109   1.380
38127SOL    HW216156   0.278   4.128   1.230
38128SOL     OW16157   3.208  13.834  10.027
38128SOL    HW116158   3.249  13.907   9.982
38128SOL    HW216159   3.172  13.872  10.107
38129SOL     OW16160   4.097  10.501   3.322
38129SOL    HW116161   4.133  10.419   3.356
38129SOL    HW216162   4.029  10.525   3.385
38130SOL     OW16163   4.430   0.572   9.364
38130SOL    HW116164   4.514   0.610   9.389
38130SOL    HW216165   4.384   0.558   9.446
38131SOL     OW16166   2.378   2.764  12.169
38131SOL    HW116167   2.418   2.850  12.181
38131SOL    HW216168   2.366   2.756  12.074
38132SOL     OW16169   2.327   9.999   6.723
38132SOL    HW116170   2.296   9.984   6.812
38132SOL    HW216171   2.299  10.088   6.702
38133SOL     OW16172  14.156  11.279   3.752
38133SOL    HW116173  14.216  11.205   3.740
38133SOL    HW216174  14.086  11.263   3.688
38134SOL     OW16175  12.028   6.277  11.582
38134SOL    HW116176  12.082   6.329  11.641
38134SOL    HW216177  12.043   6.186  11.610
38135SOL     OW16178   3.152  12.953  10.404
38135SOL    HW116179   3.159  13.033  10.456
38135SOL    HW216180   3.122  12.982  10.318
38136SOL     OW16181  11.895   9.519   6.687
38136SOL    HW116182  11.845   9.596   6.660
38136SOL    HW216183  11.875   9.453   6.621
38137SOL     OW16184  14.691  11.791  14.256
38137SOL    HW116185  14.650  11.876  14.243
38137SOL    HW216186  14.706  11.758  14.167
38138SOL     OW16187  12.324  11.466   4.387
38138SOL    HW116188  12.270  11.438   4.461
38138SOL    HW216189  12.267  11.521   4.334
38139SOL     OW16190  14.330   4.543   1.402
38139SOL    HW116191  14.238   4.564   1.389
38139SOL    HW216192  14.342   4.458   1.361
38140SOL     OW16193  10.104   2.233   3.837
38140SOL    HW116194  10.067   2.184   3.763
38140SOL    HW216195  10.056   2.315   3.837
38141SOL     OW16196   5.892  12.614  13.953
38141SOL    HW116197   5.943  12.605  13.872
38141SOL    HW216198   5.956  12.638  14.020
38142SOL     OW16199   5.490   7.582   9.166
38142SOL    HW116200   5.562   7.542   9.118
38142SOL    HW216201   5.437   7.508   9.197
38143SOL     OW16202   3.647  14.259   2.508
38143SOL    HW116203   3.579  14.300   2.562
38143SOL    HW216204   3.708  14.220   2.571
38144SOL     OW16205   3.061   3.761  10.944
38144SOL    HW116206   3.073   3.712  11.025
38144SOL    HW216207   2.986   3.719  10.902
38145SOL     OW16208   9.209   5.079  10.680
38145SOL    HW116209   9.205   4.985  10.701
38145SOL    HW216210   9.118   5.108  10.685
38146SOL     OW16211   6.650   6.376   3.361
38146SOL    HW116212   6.666   6.387   3.268
38146SOL    HW216213   6.612   6.459   3.390
38147SOL     OW16214  10.085   8.815  10.955
38147SOL    HW116215  10.131   8.863  11.025
38147SOL    HW216216   9.992   8.830  10.972
38148SOL     OW16217   6.892  12.349  12.163
38148SOL    HW116218   6.897  12.433  12.118
38148SOL    HW216219   6.970  12.346  12.218
38149SOL     OW16220   8.655  10.009   6.357
38149SOL    HW116221   8.691  10.094   6.331
38149SOL    HW216222   8.680  10.000   6.449
38150SOL     OW16223   8.548   7.763  14.259
38150SOL    HW116224   8.628   7.812  14.281
38150SOL    HW216225   8.478   7.828  14.265
38151SOL     OW16226   1.073  14.167  12.643
38151SOL    HW116227   1.030  14.155  12.559
38151SOL    HW216228   1.050  14.090  12.694
38152SOL     OW16229  13.010   9.164   2.143
38152SOL    HW116230  12.920   9.149   2.173
38152SOL    HW216231  13.025   9.258   2.158
38153SOL     OW16232   0.348   9.165   6.212
38153SOL    HW116233   0.255   9.187   6.221
38153SOL    HW216234   0.394   9.238   6.253
38154SOL     OW16235   4.078  10.851   7.596
38154SOL    HW116236   4.028  10.838   7.515
38154SOL    HW216237   4.147  10.785   7.592
38155SOL     OW16238   2.659  10.326   9.608
38155SOL    HW116239   2.736  10.366   9.650
38155SOL    HW216240   2.613  10.282   9.679
38156SOL     OW16241  14.829   6.298   3.689
38156SOL    HW116242  14.854   6.287   3.781
38156SOL    HW216243  14.750   6.245   3.679
38157SOL     OW16244  13.896   5.158  11.244
38157SOL    HW116245  13.952   5.198  11.311
38157SOL    HW216246  13.812   5.201  11.255
38158SOL     OW16247  12.933  14.841   4.871
38158SOL    HW116248  13.001  14.822   4.935
38158SOL    HW216249  12.945   0.055   4.849
38159SOL     OW16250  14.537   4.310  11.562
38159SOL    HW116251  14.474   4.239  11.575
38159SOL    HW216252  14.539   4.356  11.646
38160SOL     OW16253  11.588  13.021   7.860
38160SOL    HW116254  11.639  12.968   7.921
38160SOL    HW216255  11.520  12.962   7.828
38161SOL     OW16256   9.685   0.708   2.255
38161SOL    HW116257   9.643   0.731   2.172
38161SOL    HW216258   9.680   0.788   2.307
38162SOL     OW16259   0.528   1.477   1.562
38162SOL    HW116260   0.506   1.383   1.566
38162SOL    HW216261   0.480   1.510   1.486
38163SOL     OW16262   7.580  12.329   9.346
38163SOL    HW116263   7.616  12.361   9.429
38163SOL    HW216264   7.513  12.265   9.372
38164SOL     OW16265  12.980  13.985   1.591
38164SOL    HW116266  13.051  13.948   1.644
38164SOL    HW216267  12.927  13.909   1.566
38165SOL     OW16268  12.397   6.598   3.620
38165SOL    HW116269  12.422   6.657   3.549
38165SOL    HW216270  12.390   6.655   3.696
38166SOL     OW16271   5.817   3.657   6.951
38166SOL    HW116272   5.739   3.606   6.928
38166SOL    HW216273   5.823   3.651   7.046
38167SOL     OW16274  10.269  10.774  14.141
38167SOL    HW116275  10.291  10.824  14.062
38167SOL    HW216276  10.327  10.698  14.138
38168SOL     OW16277   3.283   0.042   6.834
38168SOL    HW116278   3.188   0.044   6.849
38168SOL    HW216279   3.292   0.021   6.741
38169SOL     OW16280   5.929  10.560   8.243
38169SOL    HW116281   5.953  10.478   8.285
38169SOL    HW216282   5.887  10.534   8.161
38170SOL     OW16283  14.383  11.036   6.171
38170SOL    HW116284  14.321  11.071   6.235
38170SOL    HW216285  14.334  11.038   6.088
38171SOL     OW16286   9.172   0.696   9.454
38171SOL    HW116287   9.100   0.665   9.398
38171SOL    HW216288   9.166   0.642   9.532
38172SOL     OW16289   4.451   1.040  14.147
38172SOL    HW116290   4.447   1.044  14.243
38172SOL    HW216291   4.366   1.072  14.117
38173SOL     OW16292  10.851   0.695  13.236
38173SOL    HW116293  10.880   0.715  13.147
38173SOL    HW216294  10.784   0.761  13.254
38174SOL     OW16295   6.597  12.656  13.126
38174SOL    HW116296   6.604  12.570  13.084
38174SOL    HW216297   6.652  12.713  13.073
38175SOL     OW16298   6.873   6.870  10.559
38175SOL    HW116299   6.938   6.902  10.620
38175SOL    HW216300   6.865   6.776  10.579
38176SOL     OW16301  14.830  10.781   8.334
38176SOL    HW116302  14.834  10.842   8.408
38176SOL    HW216303  14.745  10.738   8.342
38177SOL     OW16304  10.876   3.873  12.017
38177SOL    HW116305  10.965   3.905  12.007
38177SOL    HW216306  10.861   3.870  12.111
38178SOL     OW16307   6.123   1.981  10.916
38178SOL    HW116308   6.202   2.032  10.900
38178SOL    HW216309   6.134   1.947  11.005
38179SOL     OW16310   9.275   3.511   4.723
38179SOL    HW116311   9.281   3.549   4.635
38179SOL    HW216312   9.194   3.547   4.759
38180SOL     OW16313   0.111   0.541  11.422
38180SOL    HW116314   0.065   0.607  11.474
38180SOL    HW216315   0.052   0.520  11.350
38181SOL     OW16316   7.969   0.556   0.549
38181SOL    HW116317   7.904   0.486   0.551
38181SOL    HW216318   7.968   0.587   0.459
38182SOL     OW16319   7.814   6.261   3.681
38182SOL    HW116320   7.727   6.220   3.677
38182SOL    HW216321   7.814   6.325   3.609
38183SOL     OW16322   4.893  13.507   6.542
38183SOL    HW116323   4.814  13.538   6.587
38183SOL    HW216324   4.867  13.502   6.450
38184SOL     OW16325  13.089   0.969   6.331
38184SOL    HW116326  13.100   1.037   6.264
38184SOL    HW216327  13.059   1.017   6.409
38185SOL     OW16328   7.639  14.671   8.404
38185SOL    HW116329   7.690  14.601   8.364
38185SOL    HW216330   7.549  14.640   8.402
38186SOL     OW16331   7.026   8.676   9.101
38186SOL    HW116332   7.039   8.592   9.145
38186SOL    HW216333   6.986   8.732   9.167
38187SOL     OW16334   0.497   3.873  13.255
38187SOL    HW116335   0.413   3.843  13.221
38187SOL    HW216336   0.540   3.794  13.287
38188SOL     OW16337  13.628   7.459   8.720
38188SOL    HW116338  13.702   7.400   8.736
38188SOL    HW216339  13.636   7.481   8.627
38189SOL     OW16340   4.067   4.861  13.315
38189SOL    HW116341   3.983   4.902  13.336
38189SOL    HW216342   4.094   4.903  13.234
38190SOL     OW16343  11.845  11.244   8.061
38190SOL    HW116344  11.797  11.174   8.017
38190SOL    HW216345  11.886  11.293   7.990
38191SOL     OW16346  10.242   9.350  10.236
38191SOL    HW116347  10.255   9.445  10.233
38191SOL    HW216348  10.211   9.327  10.148
38192SOL     OW16349   8.961  10.615  11.194
38192SOL    HW116350   9.055  10.596  11.200
38192SOL    HW216351   8.924  10.542  11.145
38193SOL     OW16352  14.660  12.445  11.366
38193SOL    HW116353  14.741  12.395  11.355
38193SOL    HW216354  14.615  12.436  11.281
38194SOL     OW16355  12.611  13.374   6.677
38194SOL    HW116356  12.676  13.418   6.623
38194SOL    HW216357  12.551  13.333   6.614
38195SOL     OW16358  13.548   8.834   8.197
38195SOL    HW116359  13.599   8.827   8.116
38195SOL    HW216360  13.503   8.750   8.204
38196SOL     OW16361   5.224   5.554   6.978
38196SOL    HW116362   5.261   5.539   7.065
38196SOL    HW216363   5.252   5.477   6.927
38197SOL     OW16364  13.248   1.674   0.573
38197SOL    HW116365  13.177   1.649   0.633
38197SOL    HW216366  13.324   1.685   0.629
38198SOL     OW16367  11.880   9.633   4.302
38198SOL    HW116368  11.826   9.691   4.355
38198SOL    HW216369  11.970   9.662   4.319
38199SOL     OW16370   4.433   6.797  13.700
38199SOL    HW116371   4.467   6.754  13.778
38199SOL    HW216372   4.347   6.756  13.686
38200SOL     OW16373  14.286   0.544  14.723
38200SOL    HW116374  14.342   0.617  14.751
38200SOL    HW216375  14.305   0.533  14.630
38201SOL     OW16376  10.074   6.223   7.746
38201SOL    HW116377  10.102   6.182   7.828
38201SOL    HW216378   9.980   6.238   7.758
38202SOL     OW16379   9.250   3.652  11.882
38202SOL    HW116380   9.318   3.694  11.830
38202SOL    HW216381   9.175   3.645  11.822
38203SOL     OW16382   2.500   9.973   7.308
38203SOL    HW116383   2.545   9.992   7.225
38203SOL    HW216384   2.419  10.023   7.303
38204SOL     OW16385  13.813   4.564   7.552
38204SOL    HW116386  13.748   4.497   7.573
38204SOL    HW216387  13.831   4.552   7.459
38205SOL     OW16388   8.967   1.488  13.194
38205SOL    HW116389   9.038   1.433  13.227
38205SOL    HW216390   8.887   1.440  13.217
38206SOL     OW16391  13.672   9.197   6.511
38206SOL    HW116392  13.663   9.118   6.458
38206SOL    HW216393  13.719   9.259   6.454
38207SOL     OW16394   3.830  14.670  13.290
38207SOL    HW116395   3.795  14.581  13.283
38207SOL    HW216396   3.837  14.686  13.384
38208SOL     OW16397   0.592   8.432   2.872
38208SOL    HW116398   0.655   8.475   2.930
38208SOL    HW216399   0.511   8.428   2.923
38209SOL     OW16400  12.038   4.692  12.906
38209SOL    HW116401  12.129   4.672  12.930
38209SOL    HW216402  12.036   4.788  12.897
38210SOL     OW16403   3.007  13.909   7.614
38210SOL    HW116404   3.018  13.872   7.701
38210SOL    HW216405   3.004  13.833   7.555
38211SOL     OW16406  11.801  10.296  11.320
38211SOL    HW116407  11.724  10.253  11.283
38211SOL    HW216408  11.843  10.228  11.373
38212SOL     OW16409  11.521   2.809   1.572
38212SOL    HW116410  11.527   2.804   1.477
38212SOL    HW216411  11.612   2.812   1.601
38213SOL     OW16412   5.381   9.083   3.528
38213SOL    HW116413   5.311   9.078   3.593
38213SOL    HW216414   5.442   9.148   3.562
38214SOL     OW16415   4.576   1.336   9.144
38214SOL    HW116416   4.502   1.284   9.114
38214SOL    HW216417   4.618   1.367   9.064
38215SOL     OW16418   4.977   1.170  10.723
38215SOL    HW116419   5.058   1.140  10.764
38215SOL    HW216420   4.962   1.257  10.759
38216SOL     OW16421   9.518   4.827  13.052
38216SOL    HW116422   9.537   4.911  13.094
38216SOL    HW216423   9.487   4.850  12.964
38217SOL     OW16424  12.847   2.041   4.552
38217SOL    HW116425  12.935   2.075   4.536
38217SOL    HW216426  12.790   2.116   4.538
38218SOL     OW16427   4.754  10.045  12.867
38218SOL    HW116428   4.710  10.013  12.946
38218SOL    HW216429   4.838   9.998  12.866
38219SOL     OW16430   2.067   1.867  10.052
38219SOL    HW116431   2.040   1.906  10.135
38219SOL    HW216432   2.163   1.861  10.058
38220SOL     OW16433  14.868   2.555  11.746
38220SOL    HW116434   0.071   2.504  11.748
38220SOL    HW216435  14.812   2.512  11.811
38221SOL     OW16436   6.963   8.420   9.230
38221SOL    HW116437   6.883   8.389   9.188
38221SOL    HW216438   6.946   8.412   9.323
38222SOL     OW16439   7.265   4.665  11.210
38222SOL    HW116440   7.331   4.680  11.142
38222SOL    HW216441   7.193   4.723  11.187
38223SOL     OW16442  13.312   5.246  14.483
38223SOL    HW116443  13.324   5.271  14.574
38223SOL    HW216444  13.254   5.170  14.486
38224SOL     OW16445   5.818   2.178  10.706
38224SOL    HW116446   5.812   2.137  10.792
38224SOL    HW216447   5.731   2.167  10.668
38225SOL     OW16448   4.461   1.705   0.590
38225SOL    HW116449   4.419   1.790   0.582
38225SOL    HW216450   4.459   1.686   0.684
38226SOL     OW16451   2.786   8.247   8.986
38226SOL    HW116452   2.870   8.279   8.952
38226SOL    HW216453   2.724   8.261   8.915
38227SOL     OW16454   1.032   4.410   6.979
38227SOL    HW116455   1.020   4.426   7.072
38227SOL    HW216456   0.994   4.323   6.965
38228SOL     OW16457  14.716   5.888   9.455
38228SOL    HW116458  14.780   5.950   9.490
38228SOL    HW216459  14.632   5.934   9.461
38229SOL     OW16460   8.860  14.326   0.615
38229SOL    HW116461   8.810  14.249   0.642
38229SOL    HW216462   8.809  14.364   0.544
38230SOL     OW16463   0.280  10.030  14.484
38230SOL    HW116464   0.313   9.986  14.563
38230SOL    HW216465   0.263  10.120  14.512
38231SOL     OW16466   6.209   5.406   7.198
38231SOL    HW116467   6.144   5.347   7.238
38231SOL    HW216468   6.156   5.470   7.150
38232SOL     OW16469   5.298   0.485   7.676
38232SOL    HW116470   5.370   0.530   7.631
38232SOL    HW216471   5.247   0.444   7.605
38233SOL     OW16472  13.599   8.018   0.804
38233SOL    HW116473  13.566   7.999   0.892
38233SOL    HW216474  13.667   7.952   0.789
38234SOL     OW16475   9.161   1.252  13.279
38234SOL    HW116476   9.136   1.209  13.197
38234SOL    HW216477   9.256   1.259  13.274
38235SOL     OW16478   6.648   4.062  10.283
38235SOL    HW116479   6.700   3.987  10.311
38235SOL    HW216480   6.711   4.120  10.240
38236SOL     OW16481  14.440  14.078  12.059
38236SOL    HW116482  14.421  14.123  11.977
38236SOL    HW216483  14.483  13.996  12.031
38237SOL     OW16484   6.595   2.081  12.398
38237SOL    HW116485   6.615   2.116  12.485
38237SOL    HW216486   6.544   2.151  12.356
38238SOL     OW16487  14.518   0.502   7.287
38238SOL    HW116488  14.550   0.592   7.287
38238SOL    HW216489  14.595   0.448   7.271
38239SOL     OW16490  13.010   3.488   4.221
38239SOL    HW116491  12.984   3.419   4.283
38239SOL    HW216492  12.933   3.544   4.214
38240SOL     OW16493   1.066   3.855   6.379
38240SOL    HW116494   1.155   3.870   6.347
38240SOL    HW216495   1.077   3.824   6.469
38241SOL     OW16496   7.891  10.919   6.095
38241SOL    HW116497   7.817  10.926   6.035
38241SOL    HW216498   7.891  11.002   6.143
38242SOL     OW16499   5.014   6.395  12.697
38242SOL    HW116500   5.066   6.429  12.769
38242SOL    HW216501   4.932   6.445  12.700
38243SOL     OW16502   8.692  13.643   4.370
38243SOL    HW116503   8.733  13.581   4.430
38243SOL    HW216504   8.643  13.703   4.427
38244SOL     OW16505   8.022   1.131   3.179
38244SOL    HW116506   7.979   1.069   3.238
38244SOL    HW216507   8.092   1.079   3.138
38245SOL     OW16508  11.782   8.959   1.655
38245SOL    HW116509  11.737   9.010   1.588
38245SOL    HW216510  11.719   8.956   1.728
38246SOL     OW16511   4.469   5.002   9.555
38246SOL    HW116512   4.414   5.067   9.598
38246SOL    HW216513   4.544   5.051   9.522
38247SOL     OW16514   2.426  11.550  14.752
38247SOL    HW116515   2.335  11.578  14.768
38247SOL    HW216516   2.476  11.631  14.750
38248SOL     OW16517  12.301   6.684  10.473
38248SOL    HW116518  12.337   6.618  10.414
38248SOL    HW216519  12.283   6.759  10.416
38249SOL     OW16520   7.916   4.216  10.898
38249SOL    HW116521   7.946   4.155  10.831
38249SOL    HW216522   7.864   4.281  10.851
38250SOL     OW16523   9.334   8.134   7.221
38250SOL    HW116524   9.257   8.175   7.184
38250SOL    HW216525   9.302   8.054   7.262
38251SOL     OW16526   5.340  13.800   2.780
38251SOL    HW116527   5.274  13.868   2.767
38251SOL    HW216528   5.295  13.719   2.756
38252SOL     OW16529  14.103   9.976   8.631
38252SOL    HW116530  14.145  10.008   8.551
38252SOL    HW216531  14.039   9.912   8.600
38253SOL     OW16532   2.864  12.395   0.786
38253SOL    HW116533   2.910  12.356   0.711
38253SOL    HW216534   2.793  12.446   0.747
38254SOL     OW16535   3.582   7.697  13.841
38254SOL    HW116536   3.505   7.646  13.816
38254SOL    HW216537   3.557   7.741  13.922
38255SOL     OW16538   1.104  12.582  13.006
38255SOL    HW116539   1.092  12.492  12.974
38255SOL    HW216540   1.017  12.622  12.996
38256SOL     OW16541  14.182   1.427   1.062
38256SOL    HW116542  14.198   1.446   1.155
38256SOL    HW216543  14.238   1.353   1.043
38257SOL     OW16544  10.793   7.445  13.575
38257SOL    HW116545  10.858   7.503  13.535
38257SOL    HW216546  10.745   7.408  13.501
38258SOL     OW16547  12.543  14.180  11.749
38258SOL    HW116548  12.477  14.249  11.754
38258SOL    HW216549  12.511  14.112  11.809
38259SOL     OW16550  14.442   6.267   4.608
38259SOL    HW116551  14.516   6.278   4.548
38259SOL    HW216552  14.375   6.326   4.574
38260SOL     OW16553  14.169  10.214   0.090
38260SOL    HW116554  14.078  10.246   0.090
38260SOL    HW216555  14.216  10.279   0.142
38261SOL     OW16556   1.134   3.660   9.414
38261SOL    HW116557   1.172   3.604   9.482
38261SOL    HW216558   1.086   3.728   9.463
38262SOL     OW16559   8.071  10.352  10.936
38262SOL    HW116560   8.132  10.344  10.862
38262SOL    HW216561   8.128  10.353  11.013
38263SOL     OW16562   9.664  10.158  12.521
38263SOL    HW116563   9.648  10.087  12.583
38263SOL    HW216564   9.648  10.120  12.435
38264SOL     OW16565  10.908   3.937   1.486
38264SOL    HW116566  10.884   3.911   1.574
38264SOL    HW216567  10.829   3.976   1.449
38265SOL     OW16568  14.582   0.786  13.914
38265SOL    HW116569  14.556   0.724  13.982
38265SOL    HW216570  14.651   0.740  13.865
38266SOL     OW16571  10.074   7.613  13.996
38266SOL    HW116572  10.030   7.615  14.081
38266SOL    HW216573  10.003   7.607  13.932
38267SOL     OW16574  11.145  14.835   4.585
38267SOL    HW116575  11.232  14.826   4.624
38267SOL    HW216576  11.087  14.854   4.659
38268SOL     OW16577   4.431   4.741   1.050
38268SOL    HW116578   4.432   4.671   0.985
38268SOL    HW216579   4.518   4.741   1.088
38269SOL     OW16580   7.358   4.754   7.565
38269SOL    HW116581   7.307   4.684   7.523
38269SOL    HW216582   7.442   4.753   7.519
38270SOL     OW16583   8.899   9.619  14.531
38270SOL    HW116584   8.855   9.583  14.454
38270SOL    HW216585   8.892   9.550  14.596
38271SOL     OW16586   6.979   5.974   6.879
38271SOL    HW116587   7.006   5.905   6.818
38271SOL    HW216588   6.901   6.011   6.840
38272SOL     OW16589   4.683   0.638   4.443
38272SOL    HW116590   4.613   0.636   4.508
38272SOL    HW216591   4.763   0.624   4.494
38273SOL     OW16592  13.856  10.394  12.220
38273SOL    HW116593  13.856  10.298  12.223
38273SOL    HW216594  13.782  10.417  12.163
38274SOL     OW16595  12.728   6.935   4.866
38274SOL    HW116596  12.813   6.891   4.874
38274SOL    HW216597  12.751   7.027   4.849
38275SOL     OW16598   3.877   0.968   8.768
38275SOL    HW116599   3.835   0.979   8.683
38275SOL    HW216600   3.813   1.002   8.831
38276SOL     OW16601   5.125  14.649   9.957
38276SOL    HW116602   5.090  14.620   9.873
38276SOL    HW216603   5.050  14.688  10.003
38277SOL     OW16604  14.222  11.166   5.586
38277SOL    HW116605  14.285  11.180   5.515
38277SOL    HW216606  14.137  11.186   5.546
38278SOL     OW16607   5.471   8.782   2.939
38278SOL    HW116608   5.419   8.768   3.018
38278SOL    HW216609   5.519   8.700   2.927
38279SOL     OW16610  11.452   5.704   9.330
38279SOL    HW116611  11.506   5.644   9.279
38279SOL    HW216612  11.362   5.677   9.312
38280SOL     OW16613   8.994  10.102   7.792
38280SOL    HW116614   8.956  10.024   7.753
38280SOL    HW216615   8.926  10.135   7.851
38281SOL     OW16616   1.934   7.129   3.439
38281SOL    HW116617   1.929   7.075   3.519
38281SOL    HW216618   1.920   7.067   3.368
38282SOL     OW16619   6.625   5.784   1.467
38282SOL    HW116620   6.551   5.807   1.523
38282SOL    HW216621   6.644   5.864   1.419
38283SOL     OW16622   9.982  12.759   8.255
38283SOL    HW116623   9.886  12.767   8.253
38283SOL    HW216624  10.013  12.830   8.199
38284SOL     OW16625  11.138  13.084   9.000
38284SOL    HW116626  11.119  12.991   9.013
38284SOL    HW216627  11.055  13.121   8.970
38285SOL     OW16628  10.117   9.282   7.398
38285SOL    HW116629  10.091   9.301   7.308
38285SOL    HW216630  10.096   9.190   7.411
38286SOL     OW16631   1.048   4.419   3.196
38286SOL    HW116632   0.972   4.366   3.217
38286SOL    HW216633   1.056   4.481   3.268
38287SOL     OW16634  12.046   6.666   7.067
38287SOL    HW116635  11.958   6.694   7.093
38287SOL    HW216636  12.087   6.637   7.148
38288SOL     OW16637  14.344   9.568   0.144
38288SOL    HW116638  14.324   9.507   0.073
38288SOL    HW216639  14.271   9.558   0.205
38289SOL     OW16640  14.293   2.012   5.172
38289SOL    HW116641  14.202   2.038   5.183
38289SOL    HW216642  14.288   1.924   5.134
38290SOL     OW16643   0.254  10.406   4.105
38290SOL    HW116644   0.337  10.449   4.125
38290SOL    HW216645   0.278  10.315   4.087
38291SOL     OW16646   8.690  10.616  13.045
38291SOL    HW116647   8.750  10.689  13.059
38291SOL    HW216648   8.611  10.640  13.094
38292SOL     OW16649   8.632  10.983   0.236
38292SOL    HW116650   8.665  11.042   0.303
38292SOL    HW216651   8.707  10.928   0.212
38293SOL     OW16652  12.498   2.861   2.198
38293SOL    HW116653  12.534   2.911   2.124
38293SOL    HW216654  12.522   2.912   2.275
38294SOL     OW16655   1.170  11.138  14.714
38294SOL    HW116656   1.212  11.143  14.629
38294SOL    HW216657   1.147  11.046  14.724
38295SOL     OW16658   0.324   6.606   6.629
38295SOL    HW116659   0.228   6.604   6.630
38295SOL    HW216660   0.349   6.519   6.600
38296SOL     OW16661  10.841   4.442   7.718
38296SOL    HW116662  10.888   4.517   7.757
38296SOL    HW216663  10.909   4.375   7.709
38297SOL     OW16664   6.406   8.072   4.061
38297SOL    HW116665   6.486   8.116   4.090
38297SOL    HW216666   6.433   8.022   3.984
38298SOL     OW16667   8.218  13.918   7.246
38298SOL    HW116668   8.216  13.827   7.274
38298SOL    HW216669   8.200  13.968   7.325
38299SOL     OW16670  12.145   4.644   8.624
38299SOL    HW116671  12.137   4.681   8.712
38299SOL    HW216672  12.057   4.649   8.588
38300SOL     OW16673   3.955  13.847   2.017
38300SOL    HW116674   3.884  13.834   1.954
38300SOL    HW216675   4.031  13.808   1.975
38301SOL     OW16676   0.625   7.190   6.350
38301SOL    HW116677   0.579   7.264   6.311
38301SOL    HW216678   0.557   7.123   6.361
38302SOL     OW16679  14.203   3.146  12.915
38302SOL    HW116680  14.145   3.070  12.924
38302SOL    HW216681  14.291   3.110  12.914
38303SOL     OW16682  14.189  12.192  12.128
38303SOL    HW116683  14.187  12.116  12.187
38303SOL    HW216684  14.272  12.235  12.148
38304SOL     OW16685  13.066   3.311  14.190
38304SOL    HW116686  13.148   3.265  14.170
38304SOL    HW216687  13.046   3.284  14.280
38305SOL     OW16688   8.752  13.145   2.676
38305SOL    HW116689   8.813  13.113   2.610
38305SOL    HW216690   8.670  13.099   2.658
38306SOL     OW16691   8.522   9.760   4.108
38306SOL    HW116692   8.563   9.710   4.037
38306SOL    HW216693   8.553   9.718   4.188
38307SOL     OW16694  10.446   8.441   7.840
38307SOL    HW116695  10.421   8.516   7.895
38307SOL    HW216696  10.363   8.409   7.803
38308SOL     OW16697   8.130   9.127   2.460
38308SOL    HW116698   8.091   9.214   2.459
38308SOL    HW216699   8.129   9.099   2.368
38309SOL     OW16700  13.153  12.362   3.290
38309SOL    HW116701  13.114  12.302   3.353
38309SOL    HW216702  13.122  12.332   3.204
38310SOL     OW16703  11.185  10.819   4.972
38310SOL    HW116704  11.096  10.855   4.963
38310SOL    HW216705  11.237  10.869   4.909
38311SOL     OW16706   0.018  14.746   9.755
38311SOL    HW116707   0.001  14.747   9.850
38311SOL    HW216708  14.817  14.707   9.717
38312SOL     OW16709   2.110   0.874  12.586
38312SOL    HW116710   2.024   0.916  12.575
38312SOL    HW216711   2.102   0.823  12.667
38313SOL     OW16712   0.473  10.033   5.358
38313SOL    HW116713   0.506   9.943   5.359
38313SOL    HW216714   0.536  10.082   5.410
38314SOL     OW16715   0.041   5.484  10.769
38314SOL    HW116716  14.849   5.428  10.802
38314SOL    HW216717  14.874   5.552  10.719
38315SOL     OW16718   7.567   0.882   7.219
38315SOL    HW116719   7.621   0.960   7.204
38315SOL    HW216720   7.616   0.810   7.180
38316SOL     OW16721   5.040   9.366   1.604
38316SOL    HW116722   5.031   9.413   1.687
38316SOL    HW216723   5.122   9.397   1.568
38317SOL     OW16724   3.367   1.866   1.891
38317SOL    HW116725   3.348   1.868   1.797
38317SOL    HW216726   3.284   1.845   1.932
38318SOL     OW16727  10.387  11.267   2.397
38318SOL    HW116728  10.438  11.296   2.321
38318SOL    HW216729  10.436  11.301   2.473
38319SOL     OW16730   0.482   4.059  14.331
38319SOL    HW116731   0.413   3.996  14.354
38319SOL    HW216732   0.486   4.117  14.407
38320SOL     OW16733   1.340  11.412  10.736
38320SOL    HW116734   1.361  11.502  10.709
38320SOL    HW216735   1.396  11.357  10.682
38321SOL     OW16736   2.819   0.443  13.890
38321SOL    HW116737   2.769   0.362  13.884
38321SOL    HW216738   2.892   0.432  13.829
38322SOL     OW16739   5.905   1.367   1.901
38322SOL    HW116740   5.893   1.431   1.831
38322SOL    HW216741   5.990   1.388   1.939
38323SOL     OW16742   7.076  13.362  11.203
38323SOL    HW116743   7.169  13.346  11.222
38323SOL    HW216744   7.041  13.397  11.284
38324SOL     OW16745   4.889   1.770  11.874
38324SOL    HW116746   4.807   1.722  11.886
38324SOL    HW216747   4.943   1.712  11.820
38325SOL     OW16748  13.731   2.512   5.376
38325SOL    HW116749  13.742   2.425   5.337
38325SOL    HW216750  13.793   2.567   5.329
38326SOL     OW16751   9.818  12.605   2.255
38326SOL    HW116752   9.725  12.622   2.242
38326SOL    HW216753   9.827  12.510   2.247
38327SOL     OW16754   4.152   4.107  10.216
38327SOL    HW116755   4.204   4.028  10.233
38327SOL    HW216756   4.199   4.150  10.144
38328SOL     OW16757   8.499  10.668   4.541
38328SOL    HW116758   8.436  10.626   4.483
38328SOL    HW216759   8.471  10.641   4.629
38329SOL     OW16760   4.773   8.562   5.092
38329SOL    HW116761   4.781   8.564   5.187
38329SOL    HW216762   4.725   8.642   5.070
38330SOL     OW16763   5.652  11.498   7.179
38330SOL    HW116764   5.655  11.570   7.242
38330SOL    HW216765   5.738  11.456   7.186
38331SOL     OW16766   6.187   9.712  11.953
38331SOL    HW116767   6.272   9.716  11.910
38331SOL    HW216768   6.129   9.670  11.889
38332SOL     OW16769   9.899   8.164   2.012
38332SOL    HW116770   9.843   8.100   2.055
38332SOL    HW216771   9.861   8.249   2.036
38333SOL     OW16772   2.320  14.705  12.487
38333SOL    HW116773   2.410  14.726  12.509
38333SOL    HW216774   2.269  14.741  12.560
38334SOL     OW16775   2.765   9.044   3.472
38334SOL    HW116776   2.745   9.043   3.565
38334SOL    HW216777   2.859   9.027   3.467
38335SOL     OW16778   6.490   2.294   1.967
38335SOL    HW116779   6.566   2.276   1.913
38335SOL    HW216780   6.425   2.329   1.907
38336SOL     OW16781  12.839   3.549   3.567
38336SOL    HW116782  12.816   3.474   3.512
38336SOL    HW216783  12.918   3.522   3.613
38337SOL     OW16784   3.265  10.106   0.127
38337SOL    HW116785   3.208  10.050   0.074
38337SOL    HW216786   3.273  10.187   0.076
38338SOL     OW16787   4.791  10.889   8.355
38338SOL    HW116788   4.876  10.911   8.393
38338SOL    HW216789   4.790  10.935   8.271
38339SOL     OW16790  12.605  13.863  12.565
38339SOL    HW116791  12.631  13.945  12.523
38339SOL    HW216792  12.541  13.889  12.631
38340SOL     OW16793   1.261   2.667   8.387
38340SOL    HW116794   1.277   2.671   8.482
38340SOL    HW216795   1.185   2.609   8.379
38341SOL     OW16796  11.765  12.350  12.639
38341SOL    HW116797  11.821  12.290  12.589
38341SOL    HW216798  11.775  12.321  12.729
38342SOL     OW16799  14.311   2.905   2.514
38342SOL    HW116800  14.342   2.834   2.570
38342SOL    HW216801  14.242   2.865   2.461
38343SOL     OW16802   6.815   1.603   3.191
38343SOL    HW116803   6.777   1.689   3.176
38343SOL    HW216804   6.904   1.609   3.158
38344SOL     OW16805   4.281   5.982   7.855
38344SOL    HW116806   4.359   5.929   7.872
38344SOL    HW216807   4.315   6.070   7.836
38345SOL     OW16808   7.499  12.905   0.020
38345SOL    HW116809   7.405  12.886   0.020
38345SOL    HW216810   7.539  12.829   0.062
38346SOL     OW16811   3.951  11.674   2.025
38346SOL    HW116812   4.042  11.681   2.054
38346SOL    HW216813   3.933  11.758   1.983
38347SOL     OW16814   0.975   3.371   4.960
38347SOL    HW116815   1.043   3.395   4.898
38347SOL    HW216816   0.969   3.275   4.952
38348SOL     OW16817   1.146  13.452   8.471
38348SOL    HW116818   1.184  13.387   8.412
38348SOL    HW216819   1.051  13.441   8.460
38349SOL     OW16820  12.446   7.560  14.225
38349SOL    HW116821  12.527   7.509  14.217
38349SOL    HW216822  12.382   7.497  14.260
38350SOL     OW16823   1.932   2.516  11.388
38350SOL    HW116824   1.992   2.442  11.402
38350SOL    HW216825   1.978   2.591  11.426
38351SOL     OW16826   3.533   9.733  13.525
38351SOL    HW116827   3.609   9.694  13.568
38351SOL    HW216828   3.516   9.813  13.574
38352SOL     OW16829  10.228   3.895   6.973
38352SOL    HW116830  10.302   3.930   6.923
38352SOL    HW216831  10.152   3.939   6.935
38353SOL     OW16832   6.882   0.041   8.768
38353SOL    HW116833   6.976   0.024   8.755
38353SOL    HW216834   6.848   0.057   8.680
38354SOL     OW16835   4.073   8.729  14.595
38354SOL    HW116836   4.113   8.723  14.682
38354SOL    HW216837   4.124   8.797  14.550
38355SOL     OW16838  14.251  12.418   2.119
38355SOL    HW116839  14.162  12.441   2.145
38355SOL    HW216840  14.243  12.335   2.073
38356SOL     OW16841  10.657  10.979   6.671
38356SOL    HW116842  10.740  10.944   6.703
38356SOL    HW216843  10.602  10.901   6.658
38357SOL     OW16844   9.905   9.726   4.910
38357SOL    HW116845   9.831   9.726   4.849
38357SOL    HW216846   9.954   9.805   4.888
38358SOL     OW16847  10.658   0.680   9.740
38358SOL    HW116848  10.709   0.666   9.819
38358SOL    HW216849  10.718   0.662   9.668
38359SOL     OW16850  13.173   8.530   5.707
38359SOL    HW116851  13.177   8.625   5.714
38359SOL    HW216852  13.189   8.498   5.796
38360SOL     OW16853   2.585   6.434   2.219
38360SOL    HW116854   2.490   6.445   2.210
38360SOL    HW216855   2.607   6.368   2.153
38361SOL     OW16856  12.105   2.092   1.019
38361SOL    HW116857  12.140   2.008   1.047
38361SOL    HW216858  12.047   2.071   0.946
38362SOL     OW16859   6.831   6.255  11.814
38362SOL    HW116860   6.751   6.307  11.803
38362SOL    HW216861   6.801   6.164  11.811
38363SOL     OW16862  10.281   0.226  12.436
38363SOL    HW116863  10.376   0.229  12.448
38363SOL    HW216864  10.268   0.153  12.376
38364SOL     OW16865  13.177   7.088  12.889
38364SOL    HW116866  13.129   7.083  12.806
38364SOL    HW216867  13.153   7.173  12.925
38365SOL     OW16868  11.874   2.298  13.488
38365SOL    HW116869  11.934   2.266  13.555
38365SOL    HW216870  11.852   2.221  13.436
38366SOL     OW16871   9.721  12.295  11.598
38366SOL    HW116872   9.685  12.260  11.516
38366SOL    HW216873   9.772  12.224  11.635
38367SOL     OW16874   2.206   8.008   8.938
38367SOL    HW116875   2.159   8.029   9.019
38367SOL    HW216876   2.175   8.071   8.874
38368SOL     OW16877  13.462   2.980   6.166
38368SOL    HW116878  13.553   2.954   6.154
38368SOL    HW216879  13.462   3.036   6.243
38369SOL     OW16880   4.404  11.251   0.262
38369SOL    HW116881   4.435  11.310   0.193
38369SOL    HW216882   4.353  11.308   0.321
38370SOL     OW16883   4.130   0.088   2.387
38370SOL    HW116884   4.224   0.097   2.368
38370SOL    HW216885   4.108  14.877   2.359
38371SOL     OW16886   3.104   3.706  10.595
38371SOL    HW116887   3.073   3.793  10.569
38371SOL    HW216888   3.199   3.712  10.588
38372SOL     OW16889   4.104  11.463  14.500
38372SOL    HW116890   4.194  11.485  14.522
38372SOL    HW216891   4.060  11.451  14.584
38373SOL     OW16892   2.864   3.582   3.466
38373SOL    HW116893   2.863   3.584   3.562
38373SOL    HW216894   2.917   3.506   3.443
38374SOL     OW16895   2.633  10.322  13.728
38374SOL    HW116896   2.683  10.246  13.699
38374SOL    HW216897   2.549  10.287  13.757
38375SOL     OW16898   1.065   3.380   9.945
38375SOL    HW116899   1.008   3.340   9.879
38375SOL    HW216900   1.014   3.379  10.025
38376SOL     OW16901  13.331   8.434   0.326
38376SOL    HW116902  13.321   8.528   0.344
38376SOL    HW216903  13.350   8.395   0.411
38377SOL     OW16904   7.402   4.277   3.123
38377SOL    HW116905   7.493   4.291   3.149
38377SOL    HW216906   7.403   4.195   3.074
38378SOL     OW16907  12.789  13.507  12.288
38378SOL    HW116908  12.727  13.446  12.328
38378SOL    HW216909  12.736  13.562  12.231
38379SOL     OW16910   8.777  10.031  11.778
38379SOL    HW116911   8.716   9.985  11.720
38379SOL    HW216912   8.827   9.961  11.820
38380SOL     OW16913   4.131   6.994   9.645
38380SOL    HW116914   4.040   6.987   9.673
38380SOL    HW216915   4.126   7.005   9.550
38381SOL     OW16916  14.572   2.006  13.566
38381SOL    HW116917  14.478   2.014  13.550
38381SOL    HW216918  14.579   1.983  13.659
38382SOL     OW16919   5.653   5.218   1.383
38382SOL    HW116920   5.742   5.252   1.389
38382SOL    HW216921   5.648   5.152   1.453
38383SOL     OW16922   8.471   5.487  14.265
38383SOL    HW116923   8.386   5.461  14.228
38383SOL    HW216924   8.504   5.553  14.205
38384SOL     OW16925   4.679   8.828  13.019
38384SOL    HW116926   4.717   8.911  12.990
38384SOL    HW216927   4.584   8.844  13.019
38385SOL     OW16928   5.621   5.309  10.859
38385SOL    HW116929   5.606   5.273  10.946
38385SOL    HW216930   5.618   5.233  10.800
38386SOL     OW16931  12.658   9.985   9.255
38386SOL    HW116932  12.678   9.948   9.169
38386SOL    HW216933  12.719  10.059   9.265
38387SOL     OW16934  12.722  11.817   6.751
38387SOL    HW116935  12.816  11.834   6.749
38387SOL    HW216936  12.685  11.875   6.685
38388SOL     OW16937  13.913  12.042   9.762
38388SOL    HW116938  13.823  12.074   9.768
38388SOL    HW216939  13.963  12.103   9.816
38389SOL     OW16940   4.772   3.654  13.799
38389SOL    HW116941   4.761   3.715  13.726
38389SOL    HW216942   4.777   3.710  13.876
38390SOL     OW16943   8.302  12.331   4.905
38390SOL    HW116944   8.209  12.310   4.891
38390SOL    HW216945   8.339  12.332   4.816
38391SOL     OW16946   9.724   6.525   0.063
38391SOL    HW116947   9.655   6.556   0.122
38391SOL    HW216948   9.681   6.516  14.856
38392SOL     OW16949   5.979  13.484   8.165
38392SOL    HW116950   5.982  13.484   8.261
38392SOL    HW216951   6.039  13.555   8.140
38393SOL     OW16952   0.112  12.550   8.699
38393SOL    HW116953   0.204  12.540   8.724
38393SOL    HW216954   0.065  12.485   8.751
38394SOL     OW16955  12.005   9.256   4.665
38394SOL    HW116956  11.953   9.184   4.700
38394SOL    HW216957  11.942   9.312   4.620
38395SOL     OW16958   9.176   0.807   6.008
38395SOL    HW116959   9.247   0.762   5.963
38395SOL    HW216960   9.129   0.738   6.055
38396SOL     OW16961  13.806   7.196   1.272
38396SOL    HW116962  13.772   7.201   1.362
38396SOL    HW216963  13.728   7.194   1.217
38397SOL     OW16964   9.800  11.620   1.562
38397SOL    HW116965   9.752  11.618   1.479
38397SOL    HW216966   9.737  11.588   1.627
38398SOL     OW16967   2.098   7.814  11.351
38398SOL    HW116968   2.036   7.773  11.291
38398SOL    HW216969   2.068   7.789  11.438
38399SOL     OW16970   5.423  12.308  10.024
38399SOL    HW116971   5.420  12.397   9.989
38399SOL    HW216972   5.512  12.278  10.004
38400SOL     OW16973   4.933  13.174  12.955
38400SOL    HW116974   4.937  13.181  13.050
38400SOL    HW216975   4.886  13.092  12.939
38401SOL     OW16976   1.380  11.788   1.066
38401SOL    HW116977   1.406  11.824   0.982
38401SOL    HW216978   1.426  11.704   1.072
38402SOL     OW16979   9.823   1.730  11.632
38402SOL    HW116980   9.826   1.674  11.710
38402SOL    HW216981   9.907   1.775  11.632
38403SOL     OW16982   4.852  12.720   8.919
38403SOL    HW116983   4.801  12.652   8.874
38403SOL    HW216984   4.911  12.753   8.852
38404SOL     OW16985   7.225   3.460   6.822
38404SOL    HW116986   7.189   3.427   6.740
38404SOL    HW216987   7.318   3.437   6.819
38405SOL     OW16988   0.741   8.348  13.575
38405SOL    HW116989   0.675   8.417  13.585
38405SOL    HW216990   0.785   8.368  13.492
38406SOL     OW16991   9.981  10.353   5.846
38406SOL    HW116992   9.892  10.381   5.864
38406SOL    HW216993  10.004  10.394   5.763
38407SOL     OW16994   4.562   2.609   5.951
38407SOL    HW116995   4.468   2.625   5.944
38407SOL    HW216996   4.599   2.693   5.979
38408SOL     OW16997   7.951   5.757   5.432
38408SOL    HW116998   7.859   5.752   5.405
38408SOL    HW216999   8.001   5.744   5.351
38409SOL     OW17000  14.820  14.536  11.243
38409SOL    HW117001  14.868  14.602  11.192
38409SOL    HW217002  14.750  14.585  11.286
38410SOL     OW17003   6.505   6.522   8.205
38410SOL    HW117004   6.587   6.547   8.163
38410SOL    HW217005   6.520   6.434   8.238
38411SOL     OW17006   1.033   7.565   1.180
38411SOL    HW117007   0.979   7.494   1.215
38411SOL    HW217008   1.103   7.577   1.245
38412SOL     OW17009  14.243  10.646   2.095
38412SOL    HW117010  14.214  10.737   2.086
38412SOL    HW217011  14.164  10.599   2.123
38413SOL     OW17012   3.145  10.031  12.940
38413SOL    HW117013   3.093  10.104  12.973
38413SOL    HW217014   3.170   9.981  13.018
38414SOL     OW17015  12.750   7.629  10.111
38414SOL    HW117016  12.668   7.678  10.121
38414SOL    HW217017  12.724   7.546  10.072
38415SOL     OW17018  10.881  10.512  11.854
38415SOL    HW117019  10.811  10.553  11.803
38415SOL    HW217020  10.932  10.585  11.888
38416SOL     OW17021   7.953  14.053   6.311
38416SOL    HW117022   7.948  13.961   6.283
38416SOL    HW217023   7.863  14.077   6.329
38417SOL     OW17024  13.651   7.203  12.259
38417SOL    HW117025  13.726   7.256  12.233
38417SOL    HW217026  13.609   7.253  12.328
38418SOL     OW17027  12.227   2.707  11.876
38418SOL    HW117028  12.311   2.662  11.869
38418SOL    HW217029  12.205   2.730  11.785
38419SOL     OW17030  10.515   6.214   2.531
38419SOL    HW117031  10.582   6.179   2.589
38419SOL    HW217032  10.464   6.274   2.586
38420SOL     OW17033   2.001  10.828   6.222
38420SOL    HW117034   2.004  10.733   6.211
38420SOL    HW217035   2.065  10.846   6.290
38421SOL     OW17036   6.618   9.555  13.431
38421SOL    HW117037   6.655   9.642  13.447
38421SOL    HW217038   6.695   9.498  13.425
38422SOL     OW17039   1.394  14.471   6.857
38422SOL    HW117040   1.484  14.439   6.853
38422SOL    HW217041   1.342  14.398   6.823
38423SOL     OW17042   0.251  13.728  13.639
38423SOL    HW117043   0.345  13.743  13.624
38423SOL    HW217044   0.221  13.807  13.682
38424SOL     OW17045  11.291  11.216   1.519
38424SOL    HW117046  11.205  11.239   1.555
38424SOL    HW217047  11.354  11.258   1.577
38425SOL     OW17048   7.364   2.933  11.945
38425SOL    HW117049   7.371   2.860  11.884
38425SOL    HW217050   7.427   2.912  12.014
38426SOL     OW17051  10.305  13.570   0.451
38426SOL    HW117052  10.264  13.485   0.433
38426SOL    HW217053  10.259  13.631   0.394
38427SOL     OW17054  14.005   3.066   6.866
38427SOL    HW117055  13.984   3.030   6.952
38427SOL    HW217056  13.922   3.102   6.835
38428SOL     OW17057   3.293  11.786   8.292
38428SOL    HW117058   3.240  11.717   8.253
38428SOL    HW217059   3.311  11.755   8.380
38429SOL     OW17060   3.338  11.203   2.359
38429SOL    HW117061   3.282  11.255   2.301
38429SOL    HW217062   3.308  11.113   2.347
38430SOL     OW17063   5.214  14.593   1.045
38430SOL    HW117064   5.298  14.639   1.044
38430SOL    HW217065   5.210  14.548   0.961
38431SOL     OW17066   7.680   3.958   5.104
38431SOL    HW117067   7.637   3.873   5.113
38431SOL    HW217068   7.687   3.971   5.009
38432SOL     OW17069  14.583  10.061  12.031
38432SOL    HW117070  14.541   9.976  12.015
38432SOL    HW217071  14.601  10.096  11.943
38433SOL     OW17072   5.346   8.247   9.650
38433SOL    HW117073   5.319   8.211   9.735
38433SOL    HW217074   5.364   8.339   9.668
38434SOL     OW17075   6.554   4.895  10.432
38434SOL    HW117076   6.606   4.824  10.395
38434SOL    HW217077   6.508   4.933  10.357
38435SOL     OW17078  11.143   7.988   2.203
38435SOL    HW117079  11.173   7.902   2.232
38435SOL    HW217080  11.052   7.974   2.176
38436SOL     OW17081   2.096   1.483   9.538
38436SOL    HW117082   2.083   1.425   9.463
38436SOL    HW217083   2.018   1.470   9.593
38437SOL     OW17084   1.685  10.248  13.819
38437SOL    HW117085   1.660  10.249  13.912
38437SOL    HW217086   1.680  10.339  13.791
38438SOL     OW17087  14.463  13.338   4.508
38438SOL    HW117088  14.441  13.253   4.548
38438SOL    HW217089  14.533  13.372   4.563
38439SOL     OW17090   4.951  10.765   4.455
38439SOL    HW117091   5.032  10.751   4.405
38439SOL    HW217092   4.884  10.717   4.407
38440SOL     OW17093  12.565   0.892   9.472
38440SOL    HW117094  12.564   0.940   9.389
38440SOL    HW217095  12.475   0.860   9.483
38441SOL     OW17096   7.588   5.654   7.117
38441SOL    HW117097   7.648   5.647   7.191
38441SOL    HW217098   7.562   5.746   7.115
38442SOL     OW17099   0.902   4.088  10.036
38442SOL    HW117100   0.932   4.016  10.092
38442SOL    HW217101   0.951   4.164  10.066
38443SOL     OW17102   9.066   1.231   3.654
38443SOL    HW117103   8.974   1.214   3.676
38443SOL    HW217104   9.100   1.146   3.628
38444SOL     OW17105   5.705  13.655  14.844
38444SOL    HW117106   5.657  13.586  14.798
38444SOL    HW217107   5.795  13.624  14.847
38445SOL     OW17108   0.357  10.931   3.511
38445SOL    HW117109   0.268  10.904   3.489
38445SOL    HW217110   0.402  10.850   3.532
38446SOL     OW17111   7.660   4.962  13.304
38446SOL    HW117112   7.629   4.908  13.377
38446SOL    HW217113   7.709   5.033  13.346
38447SOL     OW17114   3.722   4.980   8.456
38447SOL    HW117115   3.694   4.892   8.432
38447SOL    HW217116   3.783   5.006   8.387
38448SOL     OW17117   2.079   6.719   7.321
38448SOL    HW117118   2.156   6.735   7.266
38448SOL    HW217119   2.013   6.684   7.261
38449SOL     OW17120   7.854   9.264  13.028
38449SOL    HW117121   7.841   9.309  12.944
38449SOL    HW217122   7.822   9.175  13.011
38450SOL     OW17123  12.265   7.380  12.585
38450SOL    HW117124  12.220   7.349  12.664
38450SOL    HW217125  12.324   7.449  12.616
38451SOL     OW17126   4.767  10.834  10.203
38451SOL    HW117127   4.818  10.873  10.132
38451SOL    HW217128   4.830  10.779  10.249
38452SOL     OW17129   5.163   2.225   5.397
38452SOL    HW117130   5.228   2.158   5.417
38452SOL    HW217131   5.213   2.306   5.392
38453SOL     OW17132  12.716  13.153   1.834
38453SOL    HW117133  12.631  13.111   1.848
38453SOL    HW217134  12.780  13.086   1.859
38454SOL     OW17135   8.096  12.080   7.799
38454SOL    HW117136   8.024  12.016   7.802
38454SOL    HW217137   8.155  12.045   7.732
38455SOL     OW17138  10.544  13.017   9.640
38455SOL    HW117139  10.492  12.943   9.670
38455SOL    HW217140  10.486  13.066   9.581
38456SOL     OW17141  12.408   8.016   2.816
38456SOL    HW117142  12.496   8.051   2.824
38456SOL    HW217143  12.420   7.924   2.793
38457SOL     OW17144   1.861   4.830   7.736
38457SOL    HW117145   1.799   4.811   7.666
38457SOL    HW217146   1.812   4.811   7.817
38458SOL     OW17147  13.377   2.070  10.924
38458SOL    HW117148  13.455   2.029  10.887
38458SOL    HW217149  13.410   2.125  10.995
38459SOL     OW17150   8.169  12.499   1.079
38459SOL    HW117151   8.234  12.431   1.058
38459SOL    HW217152   8.108  12.497   1.005
38460SOL     OW17153  14.089   7.559  13.969
38460SOL    HW117154  14.005   7.593  13.938
38460SOL    HW217155  14.105   7.480  13.916
38461SOL     OW17156   7.287  14.147   2.502
38461SOL    HW117157   7.231  14.106   2.567
38461SOL    HW217158   7.351  14.080   2.480
38462SOL     OW17159  14.685  13.788   4.642
38462SOL    HW117160  14.663  13.696   4.630
38462SOL    HW217161  14.746  13.789   4.716
38463SOL     OW17162   7.963   3.476  12.954
38463SOL    HW117163   7.907   3.503  13.027
38463SOL    HW217164   7.950   3.382  12.946
38464SOL     OW17165  11.349   0.094   0.628
38464SOL    HW117166  11.444   0.105   0.626
38464SOL    HW217167  11.331   0.031   0.557
38465SOL     OW17168   4.665   6.592   3.624
38465SOL    HW117169   4.717   6.621   3.699
38465SOL    HW217170   4.591   6.546   3.662
38466SOL     OW17171   5.117   3.513   7.820
38466SOL    HW117172   5.099   3.441   7.881
38466SOL    HW217173   5.186   3.480   7.764
38467SOL     OW17174  14.314  13.844  11.350
38467SOL    HW117175  14.360  13.883  11.276
38467SOL    HW217176  14.382  13.797  11.400
38468SOL     OW17177   9.279   9.629   9.121
38468SOL    HW117178   9.365   9.603   9.154
38468SOL    HW217179   9.242   9.549   9.085
38469SOL     OW17180   2.775  14.272   5.398
38469SOL    HW117181   2.776  14.364   5.424
38469SOL    HW217182   2.842  14.231   5.452
38470SOL     OW17183   8.138  12.380   7.221
38470SOL    HW117184   8.202  12.447   7.198
38470SOL    HW217185   8.158  12.307   7.162
38471SOL     OW17186  14.737   5.567  12.569
38471SOL    HW117187  14.703   5.622  12.640
38471SOL    HW217188  14.803   5.511  12.610
38472SOL     OW17189  11.390  14.726   2.372
38472SOL    HW117190  11.435  14.752   2.453
38472SOL    HW217191  11.314  14.784   2.367
38473SOL     OW17192   5.904  12.695   2.903
38473SOL    HW117193   5.936  12.686   2.992
38473SOL    HW217194   5.869  12.784   2.899
38474SOL     OW17195  10.792  14.565   2.149
38474SOL    HW117196  10.834  14.554   2.063
38474SOL    HW217197  10.716  14.620   2.131
38475SOL     OW17198   0.994  12.348   9.261
38475SOL    HW117199   0.985  12.442   9.243
38475SOL    HW217200   1.052  12.316   9.192
38476SOL     OW17201  13.441  14.840   7.334
38476SOL    HW117202  13.521   0.010   7.355
38476SOL    HW217203  13.469  14.772   7.272
38477SOL     OW17204  14.438   7.503   6.603
38477SOL    HW117205  14.450   7.439   6.672
38477SOL    HW217206  14.526   7.518   6.568
38478SOL     OW17207   1.216   1.149   8.982
38478SOL    HW117208   1.274   1.089   8.934
38478SOL    HW217209   1.197   1.218   8.919
38479SOL     OW17210   6.154   6.043   9.552
38479SOL    HW117211   6.132   5.963   9.504
38479SOL    HW217212   6.069   6.078   9.579
38480SOL     OW17213  14.388   8.374   6.258
38480SOL    HW117214  14.470   8.407   6.295
38480SOL    HW217215  14.365   8.299   6.313
38481SOL     OW17216   7.947  13.605   4.696
38481SOL    HW117217   7.986  13.605   4.609
38481SOL    HW217218   7.944  13.513   4.721
38482SOL     OW17219   6.329   5.358   7.448
38482SOL    HW117220   6.310   5.387   7.359
38482SOL    HW217221   6.248   5.316   7.477
38483SOL     OW17222  10.277   4.622   4.734
38483SOL    HW117223  10.297   4.594   4.645
38483SOL    HW217224  10.327   4.703   4.746
38484SOL     OW17225   0.741  11.670   2.152
38484SOL    HW117226   0.656  11.673   2.195
38484SOL    HW217227   0.752  11.757   2.113
38485SOL     OW17228   1.343  12.769   6.967
38485SOL    HW117229   1.249  12.785   6.962
38485SOL    HW217230   1.383  12.851   6.937
38486SOL     OW17231   8.918  10.254   5.754
38486SOL    HW117232   8.883  10.205   5.680
38486SOL    HW217233   8.933  10.188   5.821
38487SOL     OW17234  14.706  12.368  13.764
38487SOL    HW117235  14.616  12.368  13.799
38487SOL    HW217236  14.703  12.306  13.691
38488SOL     OW17237  14.593   3.306   0.075
38488SOL    HW117238  14.675   3.263   0.049
38488SOL    HW217239  14.559   3.343  14.871
38489SOL     OW17240   3.347   9.142   0.832
38489SOL    HW117241   3.426   9.166   0.881
38489SOL    HW217242   3.377   9.073   0.773
38490SOL     OW17243   1.864   5.058   6.522
38490SOL    HW117244   1.796   5.039   6.458
38490SOL    HW217245   1.836   5.139   6.564
38491SOL     OW17246   9.211   2.500  10.387
38491SOL    HW117247   9.295   2.546  10.386
38491SOL    HW217248   9.146   2.569  10.375
38492SOL     OW17249   6.702   0.646  10.564
38492SOL    HW117250   6.741   0.711  10.506
38492SOL    HW217251   6.615   0.681  10.583
38493SOL     OW17252   1.431   0.856   8.997
38493SOL    HW117253   1.367   0.855   9.068
38493SOL    HW217254   1.391   0.912   8.930
38494SOL     OW17255   0.696   1.943   9.624
38494SOL    HW117256   0.783   1.980   9.610
38494SOL    HW217257   0.635   2.010   9.593
38495SOL     OW17258   0.897   9.955  13.665
38495SOL    HW117259   0.834   9.893  13.701
38495SOL    HW217260   0.868   9.969  13.575
38496SOL     OW17261  13.818   0.988   1.953
38496SOL    HW117262  13.739   0.997   1.899
38496SOL    HW217263  13.804   0.907   2.003
38497SOL     OW17264  14.255   7.453   1.905
38497SOL    HW117265  14.283   7.361   1.900
38497SOL    HW217266  14.256   7.482   1.813
38498SOL     OW17267  12.612   3.657   2.056
38498SOL    HW117268  12.680   3.592   2.035
38498SOL    HW217269  12.661   3.738   2.071
38499SOL     OW17270   0.376   5.768   8.338
38499SOL    HW117271   0.404   5.780   8.247
38499SOL    HW217272   0.403   5.849   8.382
38500SOL     OW17273   2.036   1.896   4.941
38500SOL    HW117274   2.061   1.815   4.986
38500SOL    HW217275   2.004   1.954   5.010
38501SOL     OW17276   4.620   3.293  11.296
38501SOL    HW117277   4.541   3.344  11.314
38501SOL    HW217278   4.602   3.249  11.213
38502SOL     OW17279   6.901  10.166  10.631
38502SOL    HW117280   6.836  10.209  10.686
38502SOL    HW217281   6.850  10.105  10.577
38503SOL     OW17282   4.090   3.597  12.400
38503SOL    HW117283   4.124   3.512  12.427
38503SOL    HW217284   4.018   3.615  12.460
38504SOL     OW17285   5.607   2.119   7.851
38504SOL    HW117286   5.554   2.151   7.778
38504SOL    HW217287   5.621   2.026   7.832
38505SOL     OW17288   6.287   9.792   3.649
38505SOL    HW117289   6.297   9.767   3.741
38505SOL    HW217290   6.196   9.819   3.641
38506SOL     OW17291   2.191   0.421   1.225
38506SOL    HW117292   2.120   0.468   1.182
38506SOL    HW217293   2.169   0.422   1.318
38507SOL     OW17294   4.746   4.849  10.635
38507SOL    HW117295   4.769   4.924  10.689
38507SOL    HW217296   4.725   4.887  10.549
38508SOL     OW17297   9.435   2.809  13.671
38508SOL    HW117298   9.364   2.759  13.631
38508SOL    HW217299   9.428   2.897  13.632
38509SOL     OW17300  13.783   4.700   6.799
38509SOL    HW117301  13.851   4.647   6.841
38509SOL    HW217302  13.730   4.734   6.871
38510SOL     OW17303  13.979   0.464  12.748
38510SOL    HW117304  14.043   0.481  12.817
38510SOL    HW217305  13.912   0.410  12.789
38511SOL     OW17306   9.849  10.037   9.526
38511SOL    HW117307   9.765  10.000   9.554
38511SOL    HW217308   9.873   9.984   9.450
38512SOL     OW17309   5.100  11.034   2.025
38512SOL    HW117310   5.088  11.125   2.000
38512SOL    HW217311   5.131  11.037   2.115
38513SOL     OW17312  14.227   1.665   9.234
38513SOL    HW117313  14.264   1.595   9.288
38513SOL    HW217314  14.299   1.726   9.221
38514SOL     OW17315  13.705   0.436   3.254
38514SOL    HW117316  13.700   0.407   3.345
38514SOL    HW217317  13.789   0.482   3.248
38515SOL     OW17318  11.910  10.706  12.753
38515SOL    HW117319  11.897  10.613  12.773
38515SOL    HW217320  11.961  10.740  12.826
38516SOL     OW17321   8.043   7.743   2.248
38516SOL    HW117322   8.008   7.697   2.325
38516SOL    HW217323   8.008   7.831   2.256
38517SOL     OW17324   3.876   8.175   9.282
38517SOL    HW117325   3.941   8.141   9.220
38517SOL    HW217326   3.793   8.170   9.235
38518SOL     OW17327  10.469  11.648  14.077
38518SOL    HW117328  10.416  11.569  14.090
38518SOL    HW217329  10.515  11.632  13.994
38519SOL     OW17330   9.428  14.723  10.008
38519SOL    HW117331   9.346  14.767  10.032
38519SOL    HW217332   9.401  14.641   9.967
38520SOL     OW17333   6.366   7.270   6.767
38520SOL    HW117334   6.350   7.176   6.769
38520SOL    HW217335   6.371   7.291   6.674
38521SOL     OW17336   9.029  11.300   5.135
38521SOL    HW117337   8.945  11.347   5.133
38521SOL    HW217338   9.010  11.221   5.186
38522SOL     OW17339   6.686   8.898   9.415
38522SOL    HW117340   6.768   8.848   9.416
38522SOL    HW217341   6.628   8.847   9.359
38523SOL     OW17342  11.700   9.898   8.153
38523SOL    HW117343  11.716   9.880   8.246
38523SOL    HW217344  11.619   9.850   8.133
38524SOL     OW17345   8.379  10.351   0.184
38524SOL    HW117346   8.456  10.389   0.141
38524SOL    HW217347   8.415  10.302   0.258
38525SOL     OW17348   0.118   6.626  12.336
38525SOL    HW117349   0.077   6.713  12.327
38525SOL    HW217350   0.149   6.604  12.248
38526SOL     OW17351   2.485  14.072   5.345
38526SOL    HW117352   2.505  13.991   5.392
38526SOL    HW217353   2.420  14.047   5.279
38527SOL     OW17354  14.003  10.795  13.187
38527SOL    HW117355  14.088  10.838  13.191
38527SOL    HW217356  14.003  10.750  13.102
38528SOL     OW17357   2.869  12.601  12.378
38528SOL    HW117358   2.915  12.633  12.456
38528SOL    HW217359   2.934  12.546  12.334
38529SOL     OW17360   8.659   7.113  14.534
38529SOL    HW117361   8.627   7.023  14.525
38529SOL    HW217362   8.650   7.151  14.447
38530SOL     OW17363   9.108   7.997   3.231
38530SOL    HW117364   9.180   7.938   3.208
38530SOL    HW217365   9.035   7.968   3.177
38531SOL     OW17366   2.428  10.506   2.641
38531SOL    HW117367   2.435  10.577   2.705
38531SOL    HW217368   2.502  10.448   2.661
38532SOL     OW17369  13.809   0.911   0.369
38532SOL    HW117370  13.850   0.961   0.298
38532SOL    HW217371  13.741   0.859   0.325
38533SOL     OW17372   0.073  10.667  14.554
38533SOL    HW117373   0.093  10.708  14.638
38533SOL    HW217374   0.153  10.677  14.502
38534SOL     OW17375  11.555  14.034   4.368
38534SOL    HW117376  11.504  14.112   4.387
38534SOL    HW217377  11.530  14.010   4.279
38535SOL     OW17378   1.772   7.527   7.689
38535SOL    HW117379   1.812   7.600   7.641
38535SOL    HW217380   1.788   7.451   7.633
38536SOL     OW17381  12.407  14.408  12.908
38536SOL    HW117382  12.484  14.464  12.911
38536SOL    HW217383  12.373  14.407  12.997
38537SOL     OW17384   3.909   0.710   5.249
38537SOL    HW117385   3.961   0.651   5.303
38537SOL    HW217386   3.973   0.756   5.196
38538SOL     OW17387   8.943   7.125  13.448
38538SOL    HW117388   8.911   7.058  13.389
38538SOL    HW217389   9.024   7.089  13.485
38539SOL     OW17390  10.787   6.010   2.288
38539SOL    HW117391  10.857   5.945   2.294
38539SOL    HW217392  10.707   5.959   2.278
38540SOL     OW17393   0.883   8.492   2.549
38540SOL    HW117394   0.914   8.402   2.556
38540SOL    HW217395   0.953   8.544   2.590
38541SOL     OW17396   7.753  13.344  14.449
38541SOL    HW117397   7.685  13.349  14.516
38541SOL    HW217398   7.711  13.300  14.375
38542SOL     OW17399   3.736  14.394   0.050
38542SOL    HW117400   3.738  14.333  14.855
38542SOL    HW217401   3.787  14.352   0.119
38543SOL     OW17402   1.242   8.707   3.704
38543SOL    HW117403   1.317   8.647   3.701
38543SOL    HW217404   1.281   8.794   3.715
38544SOL     OW17405  10.217   5.645  13.596
38544SOL    HW117406  10.224   5.714  13.662
38544SOL    HW217407  10.296   5.593  13.607
38545SOL     OW17408  13.481  10.468   5.836
38545SOL    HW117409  13.562  10.492   5.882
38545SOL    HW217410  13.436  10.551   5.823
38546SOL     OW17411  12.426  14.203   1.958
38546SOL    HW117412  12.475  14.190   2.040
38546SOL    HW217413  12.464  14.282   1.921
38547SOL     OW17414   7.681  11.773   6.862
38547SOL    HW117415   7.637  11.716   6.800
38547SOL    HW217416   7.729  11.714   6.920
38548SOL     OW17417   0.619   9.314  10.966
38548SOL    HW117418   0.656   9.387  11.016
38548SOL    HW217419   0.525   9.319  10.983
38549SOL     OW17420   3.653   0.284   1.259
38549SOL    HW117421   3.730   0.238   1.223
38549SOL    HW217422   3.628   0.346   1.190
38550SOL     OW17423   3.724   6.988   7.538
38550SOL    HW117424   3.799   7.047   7.548
38550SOL    HW217425   3.751   6.907   7.583
38551SOL     OW17426  10.609  11.588   3.040
38551SOL    HW117427  10.570  11.633   3.115
38551SOL    HW217428  10.545  11.597   2.970
38552SOL     OW17429   2.423   4.660   8.350
38552SOL    HW117430   2.397   4.647   8.259
38552SOL    HW217431   2.418   4.573   8.390
38553SOL     OW17432   9.294   8.838   0.175
38553SOL    HW117433   9.312   8.758   0.225
38553SOL    HW217434   9.249   8.895   0.237
38554SOL     OW17435   3.761   5.617   3.593
38554SOL    HW117436   3.783   5.568   3.514
38554SOL    HW217437   3.837   5.605   3.650
38555SOL     OW17438   7.291   5.701   1.590
38555SOL    HW117439   7.278   5.787   1.551
38555SOL    HW217440   7.378   5.674   1.559
38556SOL     OW17441   7.636   0.592   4.560
38556SOL    HW117442   7.699   0.520   4.562
38556SOL    HW217443   7.655   0.643   4.639
38557SOL     OW17444  13.921   8.335   0.268
38557SOL    HW117445  13.828   8.344   0.248
38557SOL    HW217446  13.940   8.242   0.254
38558SOL     OW17447   5.605   1.749   6.169
38558SOL    HW117448   5.647   1.807   6.105
38558SOL    HW217449   5.663   1.673   6.175
38559SOL     OW17450  14.333   0.087  11.310
38559SOL    HW117451  14.391   0.162  11.317
38559SOL    HW217452  14.248   0.119  11.340
38560SOL     OW17453   4.962  14.788   0.237
38560SOL    HW117454   4.891  14.808   0.175
38560SOL    HW217455   4.961  14.861   0.299
38561SOL     OW17456   8.001  11.670  12.507
38561SOL    HW117457   7.984  11.586  12.466
38561SOL    HW217458   8.026  11.727  12.434
38562SOL     OW17459  11.090   1.372   5.678
38562SOL    HW117460  11.059   1.358   5.588
38562SOL    HW217461  11.181   1.341   5.676
38563SOL     OW17462   0.406   9.245   5.600
38563SOL    HW117463   0.471   9.310   5.627
38563SOL    HW217464   0.418   9.237   5.506
38564SOL     OW17465  14.759   7.450  14.659
38564SOL    HW117466  14.675   7.416  14.690
38564SOL    HW217467  14.769   7.534  14.704
38565SOL     OW17468  11.341   2.385  14.638
38565SOL    HW117469  11.362   2.464  14.688
38565SOL    HW217470  11.415   2.375  14.578
38566SOL     OW17471   3.840   9.248  10.903
38566SOL    HW117472   3.782   9.198  10.845
38566SOL    HW217473   3.860   9.187  10.974
38567SOL     OW17474   5.165  14.680  11.940
38567SOL    HW117475   5.142  14.706  12.029
38567SOL    HW217476   5.179  14.585  11.945
38568SOL     OW17477  12.499   3.054  12.593
38568SOL    HW117478  12.405   3.060  12.578
38568SOL    HW217479  12.509   2.981  12.655
38569SOL     OW17480  11.859  13.244   7.150
38569SOL    HW117481  11.777  13.258   7.102
38569SOL    HW217482  11.864  13.318   7.210
38570SOL     OW17483   0.486  11.316   7.121
38570SOL    HW117484   0.452  11.404   7.132
38570SOL    HW217485   0.558  11.310   7.184
38571SOL     OW17486   5.945   8.023   8.132
38571SOL    HW117487   6.013   7.965   8.167
38571SOL    HW217488   5.888   8.041   8.207
38572SOL     OW17489  11.781  14.069   1.183
38572SOL    HW117490  11.712  14.094   1.244
38572SOL    HW217491  11.778  14.136   1.115
38573SOL     OW17492   0.539  11.281  12.918
38573SOL    HW117493   0.588  11.243  12.845
38573SOL    HW217494   0.480  11.211  12.946
38574SOL     OW17495  11.996   6.870   1.638
38574SOL    HW117496  11.971   6.962   1.643
38574SOL    HW217497  11.917   6.826   1.605
38575SOL     OW17498  12.101   1.757  14.543
38575SOL    HW117499  12.145   1.832  14.504
38575SOL    HW217500  12.025   1.794  14.588
38576SOL     OW17501   7.619   8.320   2.650
38576SOL    HW117502   7.585   8.314   2.739
38576SOL    HW217503   7.695   8.378   2.657
38577SOL     OW17504   5.372   9.351   1.817
38577SOL    HW117505   5.322   9.318   1.891
38577SOL    HW217506   5.463   9.325   1.836
38578SOL     OW17507   3.548  13.746   7.160
38578SOL    HW117508   3.602  13.670   7.183
38578SOL    HW217509   3.472  13.739   7.218
38579SOL     OW17510   7.081   8.545   2.017
38579SOL    HW117511   7.097   8.456   2.048
38579SOL    HW217512   7.064   8.596   2.096
38580SOL     OW17513   5.215  11.906   2.615
38580SOL    HW117514   5.122  11.893   2.600
38580SOL    HW217515   5.230  11.875   2.704
38581SOL     OW17516  13.624  12.121   1.848
38581SOL    HW117517  13.609  12.029   1.827
38581SOL    HW217518  13.569  12.137   1.925
38582SOL     OW17519  13.219   3.278   7.061
38582SOL    HW117520  13.199   3.297   6.969
38582SOL    HW217521  13.295   3.333   7.081
38583SOL     OW17522   5.147  10.246   6.664
38583SOL    HW117523   5.052  10.243   6.677
38583SOL    HW217524   5.163  10.326   6.615
38584SOL     OW17525  14.089   6.765   8.852
38584SOL    HW117526  14.131   6.847   8.877
38584SOL    HW217527  14.151   6.723   8.792
38585SOL     OW17528   5.121   9.381  14.670
38585SOL    HW117529   5.182   9.453  14.656
38585SOL    HW217530   5.148   9.313  14.608
38586SOL     OW17531  13.351  14.434   6.509
38586SOL    HW117532  13.338  14.481   6.591
38586SOL    HW217533  13.303  14.352   6.520
38587SOL     OW17534   2.364  11.079  11.222
38587SOL    HW117535   2.294  11.145  11.222
38587SOL    HW217536   2.363  11.044  11.311
38588SOL     OW17537   6.407  10.726  10.505
38588SOL    HW117538   6.502  10.732  10.497
38588SOL    HW217539   6.381  10.808  10.546
38589SOL     OW17540   0.020   0.290   2.834
38589SOL    HW117541   0.006   0.379   2.868
38589SOL    HW217542  14.855   0.291   2.748
38590SOL     OW17543  11.419   6.263   3.004
38590SOL    HW117544  11.382   6.183   3.041
38590SOL    HW217545  11.492   6.285   3.062
38591SOL     OW17546  13.980  10.227   3.121
38591SOL    HW117547  14.021  10.207   3.205
38591SOL    HW217548  14.028  10.174   3.058
38592SOL     OW17549   9.022   0.346  13.237
38592SOL    HW117550   9.019   0.402  13.160
38592SOL    HW217551   8.960   0.275  13.218
38593SOL     OW17552   6.869   3.757  10.541
38593SOL    HW117553   6.867   3.661  10.548
38593SOL    HW217554   6.777   3.781  10.528
38594SOL     OW17555  13.449  13.224  10.303
38594SOL    HW117556  13.444  13.192  10.213
38594SOL    HW217557  13.399  13.306  10.302
38595SOL     OW17558   1.456   4.987  11.888
38595SOL    HW117559   1.453   5.031  11.803
38595SOL    HW217560   1.529   4.926  11.881
38596SOL     OW17561   9.588   0.881   0.094
38596SOL    HW117562   9.551   0.800   0.130
38596SOL    HW217563   9.608   0.860   0.003
38597SOL     OW17564  11.552  14.099  10.346
38597SOL    HW117565  11.584  14.139  10.427
38597SOL    HW217566  11.490  14.033  10.374
38598SOL     OW17567  10.902  14.494   3.859
38598SOL    HW117568  10.899  14.478   3.953
38598SOL    HW217569  10.887  14.588   3.850
38599SOL     OW17570  13.884   5.037   7.851
38599SOL    HW117571  13.850   5.036   7.761
38599SOL    HW217572  13.833   4.970   7.896
38600SOL     OW17573   4.542  10.186  11.609
38600SOL    HW117574   4.517  10.119  11.545
38600SOL    HW217575   4.553  10.266  11.558
38601SOL     OW17576   2.166   7.609   2.191
38601SOL    HW117577   2.122   7.526   2.172
38601SOL    HW217578   2.259   7.587   2.195
38602SOL     OW17579   9.962   2.096   2.592
38602SOL    HW117580  10.039   2.150   2.609
38602SOL    HW217581   9.963   2.081   2.498
38603SOL     OW17582  13.401   1.824   1.636
38603SOL    HW117583  13.321   1.858   1.676
38603SOL    HW217584  13.380   1.817   1.543
38604SOL     OW17585  13.445   4.644   6.951
38604SOL    HW117586  13.497   4.713   6.991
38604SOL    HW217587  13.498   4.565   6.961
38605SOL     OW17588   4.174   0.455  10.660
38605SOL    HW117589   4.158   0.549  10.669
38605SOL    HW217590   4.266   0.444  10.681
38606SOL     OW17591   2.601   9.479   9.350
38606SOL    HW117592   2.655   9.433   9.415
38606SOL    HW217593   2.536   9.526   9.403
38607SOL     OW17594   1.105   6.165   4.871
38607SOL    HW117595   1.101   6.101   4.800
38607SOL    HW217596   1.146   6.243   4.831
38608SOL     OW17597   6.265   7.339   9.137
38608SOL    HW117598   6.202   7.278   9.174
38608SOL    HW217599   6.264   7.414   9.197
38609SOL     OW17600  13.580   6.747   3.673
38609SOL    HW117601  13.622   6.736   3.588
38609SOL    HW217602  13.628   6.687   3.731
38610SOL     OW17603   2.373   5.655   2.121
38610SOL    HW117604   2.279   5.670   2.111
38610SOL    HW217605   2.380   5.572   2.168
38611SOL     OW17606   3.388   5.330   0.611
38611SOL    HW117607   3.361   5.238   0.605
38611SOL    HW217608   3.480   5.326   0.637
38612SOL     OW17609  14.778   2.474   4.890
38612SOL    HW117610  14.765   2.566   4.867
38612SOL    HW217611  14.870   2.468   4.915
38613SOL     OW17612   5.207   1.416   2.432
38613SOL    HW117613   5.272   1.397   2.364
38613SOL    HW217614   5.137   1.461   2.386
38614SOL     OW17615   5.365   3.987   1.506
38614SOL    HW117616   5.386   3.929   1.433
38614SOL    HW217617   5.269   3.992   1.507
38615SOL     OW17618  14.534  13.207  10.628
38615SOL    HW117619  14.628  13.217  10.619
38615SOL    HW217620  14.506  13.289  10.670
38616SOL     OW17621   7.430   9.184   5.666
38616SOL    HW117622   7.467   9.264   5.629
38616SOL    HW217623   7.400   9.209   5.753
38617SOL     OW17624   4.340   5.311  13.352
38617SOL    HW117625   4.261   5.258  13.340
38617SOL    HW217626   4.397   5.257  13.407
38618SOL     OW17627   5.647  11.578   4.239
38618SOL    HW117628   5.577  11.542   4.294
38618SOL    HW217629   5.706  11.504   4.225
38619SOL     OW17630  11.170   6.857  14.595
38619SOL    HW117631  11.093   6.803  14.611
38619SOL    HW217632  11.244   6.803  14.623
38620SOL     OW17633   4.115   7.404   2.890
38620SOL    HW117634   4.149   7.330   2.841
38620SOL    HW217635   4.024   7.412   2.863
38621SOL     OW17636   6.930  11.236  12.431
38621SOL    HW117637   6.883  11.188  12.499
38621SOL    HW217638   6.955  11.168  12.368
38622SOL     OW17639   6.617   8.347   2.355
38622SOL    HW117640   6.690   8.401   2.324
38622SOL    HW217641   6.544   8.408   2.366
38623SOL     OW17642   6.111  10.838   6.877
38623SOL    HW117643   6.121  10.762   6.934
38623SOL    HW217644   6.094  10.911   6.937
38624SOL     OW17645   5.327   0.352   4.773
38624SOL    HW117646   5.311   0.283   4.838
38624SOL    HW217647   5.423   0.354   4.764
38625SOL     OW17648   4.597  10.862   1.814
38625SOL    HW117649   4.635  10.910   1.887
38625SOL    HW217650   4.541  10.925   1.769
38626SOL     OW17651   5.777   6.374   2.812
38626SOL    HW117652   5.799   6.285   2.786
38626SOL    HW217653   5.860   6.410   2.845
38627SOL     OW17654   7.768  13.625  11.270
38627SOL    HW117655   7.816  13.586  11.344
38627SOL    HW217656   7.699  13.676  11.311
38628SOL     OW17657   6.122  12.179   2.444
38628SOL    HW117658   6.050  12.138   2.397
38628SOL    HW217659   6.186  12.201   2.376
38629SOL     OW17660  10.823  11.769  10.566
38629SOL    HW117661  10.812  11.695  10.627
38629SOL    HW217662  10.866  11.730  10.490
38630SOL     OW17663   5.333  11.218   3.559
38630SOL    HW117664   5.334  11.124   3.577
38630SOL    HW217665   5.355  11.225   3.466
38631SOL     OW17666  14.841   6.167   8.740
38631SOL    HW117667  14.823   6.250   8.784
38631SOL    HW217668  14.786   6.169   8.662
38632SOL     OW17669   1.669   9.297   0.588
38632SOL    HW117670   1.575   9.294   0.604
38632SOL    HW217671   1.700   9.209   0.612
38633SOL     OW17672   2.654   4.356  12.325
38633SOL    HW117673   2.569   4.335  12.287
38633SOL    HW217674   2.707   4.386  12.251
38634SOL     OW17675  11.479   7.162   9.966
38634SOL    HW117676  11.438   7.239   9.925
38634SOL    HW217677  11.560   7.196  10.005
38635SOL     OW17678  11.423   0.466   2.053
38635SOL    HW117679  11.410   0.407   1.978
38635SOL    HW217680  11.477   0.537   2.019
38636SOL     OW17681   2.943   8.713   5.876
38636SOL    HW117682   2.909   8.691   5.789
38636SOL    HW217683   3.037   8.693   5.870
38637SOL     OW17684   6.138   9.717   3.203
38637SOL    HW117685   6.215   9.680   3.160
38637SOL    HW217686   6.096   9.643   3.247
38638SOL     OW17687   0.980  11.840  13.474
38638SOL    HW117688   0.894  11.881  13.483
38638SOL    HW217689   0.995  11.837  13.379
38639SOL     OW17690  14.143  11.809   0.241
38639SOL    HW117691  14.179  11.853   0.318
38639SOL    HW217692  14.188  11.724   0.240
38640SOL     OW17693   4.989   7.784   4.416
38640SOL    HW117694   4.952   7.860   4.370
38640SOL    HW217695   4.933   7.774   4.493
38641SOL     OW17696  12.289  10.522   2.248
38641SOL    HW117697  12.384  10.513   2.236
38641SOL    HW217698  12.259  10.562   2.166
38642SOL     OW17699  12.307   8.769   3.320
38642SOL    HW117700  12.372   8.737   3.383
38642SOL    HW217701  12.301   8.863   3.337
38643SOL     OW17702   9.955  11.557   5.643
38643SOL    HW117703  10.016  11.505   5.695
38643SOL    HW217704   9.897  11.494   5.602
38644SOL     OW17705  13.016   0.257  10.490
38644SOL    HW117706  13.058   0.329  10.537
38644SOL    HW217707  12.953   0.222  10.553
38645SOL     OW17708   1.646   2.251   1.119
38645SOL    HW117709   1.620   2.202   1.197
38645SOL    HW217710   1.737   2.275   1.136
38646SOL     OW17711   1.272   6.347  13.079
38646SOL    HW117712   1.177   6.356  13.072
38646SOL    HW217713   1.286   6.314  13.168
38647SOL     OW17714   4.931  11.049   2.583
38647SOL    HW117715   4.871  10.987   2.624
38647SOL    HW217716   4.995  10.995   2.538
38648SOL     OW17717   5.656   0.553  12.731
38648SOL    HW117718   5.641   0.466  12.693
38648SOL    HW217719   5.736   0.543  12.782
38649SOL     OW17720   6.600   3.352  14.441
38649SOL    HW117721   6.636   3.334  14.528
38649SOL    HW217722   6.527   3.291  14.431
38650SOL     OW17723  12.880   0.959   7.163
38650SOL    HW117724  12.894   1.012   7.241
38650SOL    HW217725  12.785   0.952   7.156
38651SOL     OW17726  10.104  14.250   6.525
38651SOL    HW117727  10.137  14.211   6.606
38651SOL    HW217728  10.009  14.243   6.532
38652SOL     OW17729  11.133   2.725   9.208
38652SOL    HW117730  11.063   2.674   9.168
38652SOL    HW217731  11.190   2.750   9.136
38653SOL     OW17732   3.442   2.146  14.234
38653SOL    HW117733   3.504   2.077  14.254
38653SOL    HW217734   3.487   2.201  14.170
38654SOL     OW17735  12.631  14.098   3.289
38654SOL    HW117736  12.551  14.051   3.262
38654SOL    HW217737  12.599  14.181   3.325
38655SOL     OW17738   5.494  12.847   3.811
38655SOL    HW117739   5.527  12.806   3.731
38655SOL    HW217740   5.564  12.834   3.875
38656SOL     OW17741   4.355   0.561   5.559
38656SOL    HW117742   4.271   0.605   5.542
38656SOL    HW217743   4.392   0.545   5.472
38657SOL     OW17744  14.302   3.362   2.071
38657SOL    HW117745  14.230   3.340   2.130
38657SOL    HW217746  14.379   3.321   2.110
38658SOL     OW17747  13.918  13.209  11.445
38658SOL    HW117748  13.891  13.173  11.529
38658SOL    HW217749  13.969  13.287  11.466
38659SOL     OW17750  14.116   1.502  11.554
38659SOL    HW117751  14.151   1.446  11.484
38659SOL    HW217752  14.135   1.454  11.634
38660SOL     OW17753   7.710   2.503  10.443
38660SOL    HW117754   7.665   2.586  10.426
38660SOL    HW217755   7.787   2.526  10.495
38661SOL     OW17756   6.110   5.621  14.057
38661SOL    HW117757   6.045   5.664  14.113
38661SOL    HW217758   6.077   5.533  14.045
38662SOL     OW17759  10.290  14.700  11.325
38662SOL    HW117760  10.375  14.740  11.310
38662SOL    HW217761  10.301  14.650  11.406
38663SOL     OW17762  13.663   8.474   2.292
38663SOL    HW117763  13.569   8.493   2.296
38663SOL    HW217764  13.680   8.422   2.371
38664SOL     OW17765  10.708   3.564   2.642
38664SOL    HW117766  10.754   3.646   2.662
38664SOL    HW217767  10.776   3.506   2.607
38665SOL     OW17768  14.306  10.955  13.852
38665SOL    HW117769  14.304  10.965  13.947
38665SOL    HW217770  14.218  10.977  13.823
38666SOL     OW17771  12.523   4.895  14.569
38666SOL    HW117772  12.491   4.805  14.564
38666SOL    HW217773  12.457   4.946  14.522
38667SOL     OW17774   7.937  14.127   4.167
38667SOL    HW117775   7.920  14.171   4.084
38667SOL    HW217776   7.856  14.081   4.187
38668SOL     OW17777   0.522   2.105   9.519
38668SOL    HW117778   0.456   2.150   9.572
38668SOL    HW217779   0.509   2.140   9.431
38669SOL     OW17780  14.467   4.114   3.966
38669SOL    HW117781  14.486   4.049   4.034
38669SOL    HW217782  14.422   4.064   3.897
38670SOL     OW17783   5.090   0.695   5.042
38670SOL    HW117784   5.158   0.655   4.988
38670SOL    HW217785   5.104   0.789   5.031
38671SOL     OW17786   6.311  10.612   6.645
38671SOL    HW117787   6.284  10.703   6.656
38671SOL    HW217788   6.406  10.615   6.639
38672SOL     OW17789  14.607  11.768   2.093
38672SOL    HW117790  14.572  11.809   2.014
38672SOL    HW217791  14.537  11.779   2.158
38673SOL     OW17792   7.913  14.155   5.259
38673SOL    HW117793   7.823  14.186   5.256
38673SOL    HW217794   7.922  14.115   5.346
38674SOL     OW17795   6.070  10.020  14.219
38674SOL    HW117796   6.101  10.110  14.207
38674SOL    HW217797   6.149   9.969  14.234
38675SOL     OW17798   6.989   0.760  10.698
38675SOL    HW117799   7.049   0.788  10.629
38675SOL    HW217800   6.970   0.668  10.677
38676SOL     OW17801  11.820   3.581   7.159
38676SOL    HW117802  11.744   3.524   7.143
38676SOL    HW217803  11.875   3.570   7.082
38677SOL     OW17804  10.880  11.560  11.605
38677SOL    HW117805  10.948  11.493  11.603
38677SOL    HW217806  10.820  11.532  11.674
38678SOL     OW17807   2.192  11.367   9.740
38678SOL    HW117808   2.197  11.462   9.757
38678SOL    HW217809   2.257  11.329   9.799
38679SOL     OW17810   0.723   6.306   9.330
38679SOL    HW117811   0.717   6.313   9.235
38679SOL    HW217812   0.814   6.328   9.351
38680SOL     OW17813  11.088   8.021  12.337
38680SOL    HW117814  11.143   8.039  12.414
38680SOL    HW217815  11.036   7.945  12.363
38681SOL     OW17816  10.961   3.896   8.562
38681SOL    HW117817  11.043   3.939   8.538
38681SOL    HW217818  10.894   3.940   8.509
38682SOL     OW17819   9.303   3.195  12.044
38682SOL    HW117820   9.319   3.145  12.124
38682SOL    HW217821   9.345   3.279  12.059
38683SOL     OW17822   1.333   2.516   3.425
38683SOL    HW117823   1.373   2.438   3.462
38683SOL    HW217824   1.303   2.489   3.338
38684SOL     OW17825   4.696   2.523   9.525
38684SOL    HW117826   4.647   2.462   9.470
38684SOL    HW217827   4.735   2.467   9.593
38685SOL     OW17828   3.623   5.946   1.721
38685SOL    HW117829   3.717   5.935   1.736
38685SOL    HW217830   3.609   5.916   1.631
38686SOL     OW17831   2.035   2.910   8.530
38686SOL    HW117832   2.034   2.938   8.439
38686SOL    HW217833   2.108   2.848   8.535
38687SOL     OW17834  11.132   3.640  11.919
38687SOL    HW117835  11.040   3.641  11.947
38687SOL    HW217836  11.180   3.670  11.996
38688SOL     OW17837   0.990   9.410   7.685
38688SOL    HW117838   1.007   9.362   7.604
38688SOL    HW217839   0.915   9.364   7.725
38689SOL     OW17840   7.474   7.616  12.782
38689SOL    HW117841   7.551   7.576  12.742
38689SOL    HW217842   7.510   7.675  12.849
38690SOL     OW17843   0.101   0.581   9.089
38690SOL    HW117844   0.180   0.547   9.131
38690SOL    HW217845   0.067   0.507   9.038
38691SOL     OW17846   2.945   5.872   1.609
38691SOL    HW117847   2.966   5.811   1.680
38691SOL    HW217848   2.967   5.958   1.644
38692SOL     OW17849   8.729   0.319   9.092
38692SOL    HW117850   8.649   0.288   9.050
38692SOL    HW217851   8.699   0.374   9.164
38693SOL     OW17852  13.021   6.794  11.934
38693SOL    HW117853  12.936   6.802  11.889
38693SOL    HW217854  13.079   6.755  11.869
38694SOL     OW17855   2.060   9.518   1.392
38694SOL    HW117856   2.072   9.429   1.359
38694SOL    HW217857   2.118   9.523   1.468
38695SOL     OW17858   6.341   3.798   4.384
38695SOL    HW117859   6.428   3.770   4.412
38695SOL    HW217860   6.292   3.717   4.373
38696SOL     OW17861   4.889   7.477   4.604
38696SOL    HW117862   4.877   7.443   4.693
38696SOL    HW217863   4.952   7.549   4.614
38697SOL     OW17864   5.287   4.367   6.815
38697SOL    HW117865   5.360   4.423   6.786
38697SOL    HW217866   5.315   4.334   6.901
38698SOL     OW17867   5.713   6.738   0.674
38698SOL    HW117868   5.789   6.794   0.657
38698SOL    HW217869   5.712   6.727   0.769
38699SOL     OW17870   6.931   6.683   6.258
38699SOL    HW117871   6.921   6.632   6.178
38699SOL    HW217872   7.024   6.707   6.260
38700SOL     OW17873   1.957   3.856  10.883
38700SOL    HW117874   2.044   3.894  10.869
38700SOL    HW217875   1.956   3.832  10.975
38701SOL     OW17876  12.674   1.069   9.900
38701SOL    HW117877  12.594   1.021   9.922
38701SOL    HW217878  12.684   1.057   9.805
38702SOL     OW17879  13.777   6.977   2.057
38702SOL    HW117880  13.850   7.031   2.026
38702SOL    HW217881  13.724   6.961   1.978
38703SOL     OW17882   3.053  14.544   6.305
38703SOL    HW117883   3.096  14.619   6.263
38703SOL    HW217884   3.000  14.505   6.235
38704SOL     OW17885   4.986   3.480   6.151
38704SOL    HW117886   5.062   3.460   6.206
38704SOL    HW217887   4.982   3.407   6.089
38705SOL     OW17888   8.283   9.040   4.870
38705SOL    HW117889   8.351   9.092   4.912
38705SOL    HW217890   8.218   9.025   4.939
38706SOL     OW17891   1.426   1.800  10.827
38706SOL    HW117892   1.494   1.732  10.834
38706SOL    HW217893   1.451   1.851  10.749
38707SOL     OW17894   6.657   4.678   1.316
38707SOL    HW117895   6.730   4.637   1.271
38707SOL    HW217896   6.660   4.770   1.290
38708SOL     OW17897  14.197   7.768   9.343
38708SOL    HW117898  14.149   7.769   9.426
38708SOL    HW217899  14.138   7.810   9.280
38709SOL     OW17900  10.363  12.206   1.549
38709SOL    HW117901  10.284  12.260   1.549
38709SOL    HW217902  10.378  12.186   1.457
38710SOL     OW17903   0.747  13.795   4.498
38710SOL    HW117904   0.688  13.784   4.573
38710SOL    HW217905   0.723  13.879   4.461
38711SOL     OW17906   5.513  14.237   0.055
38711SOL    HW117907   5.537  14.183   0.131
38711SOL    HW217908   5.466  14.177  14.875
38712SOL     OW17909  13.590  12.926   7.412
38712SOL    HW117910  13.509  12.909   7.460
38712SOL    HW217911  13.653  12.866   7.449
38713SOL     OW17912  13.173   4.681   9.658
38713SOL    HW117913  13.085   4.678   9.622
38713SOL    HW217914  13.164   4.734   9.738
38714SOL     OW17915   5.693  12.735  12.087
38714SOL    HW117916   5.669  12.700  12.173
38714SOL    HW217917   5.668  12.666  12.026
38715SOL     OW17918   7.819   9.202  14.736
38715SOL    HW117919   7.805   9.295  14.719
38715SOL    HW217920   7.788   9.190  14.826
38716SOL     OW17921  11.267   3.953   9.622
38716SOL    HW117922  11.222   4.018   9.676
38716SOL    HW217923  11.339   4.000   9.581
38717SOL     OW17924  11.842   0.992   2.332
38717SOL    HW117925  11.909   1.023   2.393
38717SOL    HW217926  11.847   0.896   2.338
38718SOL     OW17927  13.846   5.768   5.484
38718SOL    HW117928  13.918   5.718   5.522
38718SOL    HW217929  13.769   5.713   5.496
38719SOL     OW17930   3.508   1.061  14.294
38719SOL    HW117931   3.484   1.130  14.356
38719SOL    HW217932   3.453   0.987  14.319
38720SOL     OW17933  10.984   3.046   5.265
38720SOL    HW117934  10.898   3.085   5.277
38720SOL    HW217935  10.976   2.992   5.186
38721SOL     OW17936   7.858   2.627  12.186
38721SOL    HW117937   7.944   2.584  12.184
38721SOL    HW217938   7.795   2.554  12.186
38722SOL     OW17939   3.643   6.647  13.756
38722SOL    HW117940   3.687   6.589  13.694
38722SOL    HW217941   3.581   6.591  13.802
38723SOL     OW17942   4.769  12.352  13.668
38723SOL    HW117943   4.838  12.384  13.610
38723SOL    HW217944   4.766  12.257  13.652
38724SOL     OW17945  12.029   0.347  11.320
38724SOL    HW117946  11.994   0.258  11.327
38724SOL    HW217947  12.039   0.362  11.226
38725SOL     OW17948   7.550  12.944  11.801
38725SOL    HW117949   7.604  13.017  11.833
38725SOL    HW217950   7.464  12.983  11.786
38726SOL     OW17951   1.175  10.222   5.053
38726SOL    HW117952   1.161  10.313   5.023
38726SOL    HW217953   1.146  10.222   5.144
38727SOL     OW17954   0.323  10.434   1.180
38727SOL    HW117955   0.360  10.468   1.262
38727SOL    HW217956   0.236  10.474   1.175
38728SOL     OW17957  12.728  13.213  12.365
38728SOL    HW117958  12.691  13.125  12.374
38728SOL    HW217959  12.651  13.271  12.361
38729SOL     OW17960  12.422  13.923  13.880
38729SOL    HW117961  12.450  13.844  13.834
38729SOL    HW217962  12.350  13.894  13.936
38730SOL     OW17963   2.790   8.591  11.700
38730SOL    HW117964   2.846   8.540  11.641
38730SOL    HW217965   2.718   8.532  11.721
38731SOL     OW17966   1.732   6.310  14.439
38731SOL    HW117967   1.776   6.255  14.374
38731SOL    HW217968   1.748   6.266  14.523
38732SOL     OW17969  10.350  12.883   0.351
38732SOL    HW117970  10.385  12.818   0.412
38732SOL    HW217971  10.427  12.919   0.307
38733SOL     OW17972   5.384   3.611   3.269
38733SOL    HW117973   5.338   3.634   3.188
38733SOL    HW217974   5.321   3.630   3.339
38734SOL     OW17975   4.956   1.498   0.118
38734SOL    HW117976   4.861   1.486   0.120
38734SOL    HW217977   4.968   1.593   0.111
38735SOL     OW17978   8.762   5.072   4.707
38735SOL    HW117979   8.816   5.010   4.658
38735SOL    HW217980   8.768   5.153   4.657
38736SOL     OW17981   9.196  14.795  10.119
38736SOL    HW117982   9.195  14.713  10.169
38736SOL    HW217983   9.115  14.839  10.144
38737SOL     OW17984  13.487   3.016   2.678
38737SOL    HW117985  13.476   2.997   2.585
38737SOL    HW217986  13.439   2.946   2.723
38738SOL     OW17987   7.060  11.706   4.881
38738SOL    HW117988   7.111  11.778   4.920
38738SOL    HW217989   6.972  11.717   4.918
38739SOL     OW17990   7.166   9.096  13.329
38739SOL    HW117991   7.206   9.050  13.402
38739SOL    HW217992   7.226   9.082  13.256
38740SOL     OW17993  10.089  13.768  12.610
38740SOL    HW117994  10.095  13.673  12.599
38740SOL    HW217995   9.996  13.787  12.607
38741SOL     OW17996   3.384   3.579   7.394
38741SOL    HW117997   3.394   3.674   7.392
38741SOL    HW217998   3.469   3.545   7.369
38742SOL     OW17999  10.174  10.764  13.449
38742SOL    HW118000  10.268  10.783  13.445
38742SOL    HW218001  10.169  10.676  13.486
38743SOL     OW18002   8.993  10.725   5.062
38743SOL    HW118003   8.999  10.635   5.028
38743SOL    HW218004   8.922  10.721   5.126
38744SOL     OW18005   4.197   6.946  14.248
38744SOL    HW118006   4.116   6.991  14.271
38744SOL    HW218007   4.183   6.915  14.159
38745SOL     OW18008   1.808   0.661   3.137
38745SOL    HW118009   1.749   0.707   3.077
38745SOL    HW218010   1.767   0.670   3.223
38746SOL     OW18011   4.256   2.699   8.622
38746SOL    HW118012   4.295   2.706   8.709
38746SOL    HW218013   4.190   2.768   8.619
38747SOL     OW18014  14.095  13.915   5.793
38747SOL    HW118015  14.068  13.992   5.742
38747SOL    HW218016  14.075  13.938   5.883
38748SOL     OW18017   3.307   6.706   6.372
38748SOL    HW118018   3.313   6.732   6.280
38748SOL    HW218019   3.219   6.730   6.398
38749SOL     OW18020  11.187   6.423   2.993
38749SOL    HW118021  11.261   6.363   3.002
38749SOL    HW218022  11.224   6.501   2.951
38750SOL     OW18023  12.744  12.221   7.282
38750SOL    HW118024  12.728  12.306   7.240
38750SOL    HW218025  12.686  12.222   7.358
38751SOL     OW18026   3.429   0.020  10.287
38751SOL    HW118027   3.354   0.078  10.272
38751SOL    HW218028   3.501   0.063  10.241
38752SOL     OW18029   6.774  11.559  10.602
38752SOL    HW118030   6.826  11.480  10.620
38752SOL    HW218031   6.838  11.630  10.601
38753SOL     OW18032   1.777  14.805   4.238
38753SOL    HW118033   1.870  14.786   4.248
38753SOL    HW218034   1.736  14.719   4.226
38754SOL     OW18035   8.781   8.257  13.784
38754SOL    HW118036   8.835   8.276  13.707
38754SOL    HW218037   8.697   8.300  13.764
38755SOL     OW18038   4.417  11.909   1.566
38755SOL    HW118039   4.366  11.964   1.506
38755SOL    HW218040   4.478  11.970   1.608
38756SOL     OW18041   0.959   8.577   9.379
38756SOL    HW118042   1.006   8.547   9.300
38756SOL    HW218043   0.887   8.515   9.388
38757SOL     OW18044   0.246   9.434   7.228
38757SOL    HW118045   0.321   9.488   7.251
38757SOL    HW218046   0.206   9.412   7.312
38758SOL     OW18047   3.214   8.077  11.304
38758SOL    HW118048   3.238   8.056  11.214
38758SOL    HW218049   3.200   7.991  11.346
38759SOL     OW18050   1.913   9.703   6.597
38759SOL    HW118051   1.941   9.793   6.611
38759SOL    HW218052   1.995   9.653   6.592
38760SOL     OW18053  10.888   6.773  14.047
38760SOL    HW118054  10.973   6.810  14.071
38760SOL    HW218055  10.908   6.709  13.980
38761SOL     OW18056   6.505  11.439  13.975
38761SOL    HW118057   6.449  11.364  13.957
38761SOL    HW218058   6.445  11.513  13.984
38762SOL     OW18059   2.500   2.787   9.119
38762SOL    HW118060   2.428   2.847   9.097
38762SOL    HW218061   2.457   2.712   9.159
38763SOL     OW18062   8.648  11.664   2.419
38763SOL    HW118063   8.564  11.617   2.416
38763SOL    HW218064   8.672  11.676   2.327
38764SOL     OW18065   1.239   4.394  11.259
38764SOL    HW118066   1.166   4.335  11.240
38764SOL    HW218067   1.242   4.453  11.184
38765SOL     OW18068   1.296  14.248   2.164
38765SOL    HW118069   1.232  14.188   2.203
38765SOL    HW218070   1.379  14.223   2.204
38766SOL     OW18071   6.734   5.325   2.596
38766SOL    HW118072   6.704   5.282   2.676
38766SOL    HW218073   6.792   5.395   2.627
38767SOL     OW18074   1.373   7.711   9.266
38767SOL    HW118075   1.416   7.788   9.302
38767SOL    HW218076   1.306   7.745   9.208
38768SOL     OW18077   4.504   4.597  13.920
38768SOL    HW118078   4.588   4.643  13.924
38768SOL    HW218079   4.475   4.594  14.011
38769SOL     OW18080   1.499   2.154   0.249
38769SOL    HW118081   1.413   2.195   0.247
38769SOL    HW218082   1.486   2.074   0.301
38770SOL     OW18083   2.802   0.498  11.129
38770SOL    HW118084   2.831   0.428  11.070
38770SOL    HW218085   2.837   0.578  11.090
38771SOL     OW18086  10.490  11.678   2.729
38771SOL    HW118087  10.569  11.625   2.738
38771SOL    HW218088  10.461  11.663   2.639
38772SOL     OW18089   9.429   7.707   1.798
38772SOL    HW118090   9.506   7.654   1.777
38772SOL    HW218091   9.431   7.714   1.894
38773SOL     OW18092   9.276   6.696   8.927
38773SOL    HW118093   9.326   6.721   8.849
38773SOL    HW218094   9.220   6.772   8.944
38774SOL     OW18095   9.712   4.094   6.356
38774SOL    HW118096   9.794   4.141   6.372
38774SOL    HW218097   9.721   4.012   6.405
38775SOL     OW18098   6.299  11.181  12.520
38775SOL    HW118099   6.266  11.101  12.560
38775SOL    HW218100   6.221  11.222  12.481
38776SOL     OW18101   0.157   4.382  10.358
38776SOL    HW118102   0.229   4.403  10.299
38776SOL    HW218103   0.084   4.437  10.328
38777SOL     OW18104  13.130   9.409   8.906
38777SOL    HW118105  13.128   9.322   8.945
38777SOL    HW218106  13.048   9.415   8.857
38778SOL     OW18107   1.636  14.282  10.400
38778SOL    HW118108   1.596  14.246  10.479
38778SOL    HW218109   1.575  14.259  10.330
38779SOL     OW18110  11.936  10.210  14.309
38779SOL    HW118111  12.013  10.154  14.302
38779SOL    HW218112  11.955  10.267  14.384
38780SOL     OW18113   1.133  10.944   5.131
38780SOL    HW118114   1.139  10.929   5.037
38780SOL    HW218115   1.208  10.895   5.167
38781SOL     OW18116   0.555   2.958   2.467
38781SOL    HW118117   0.557   3.049   2.437
38781SOL    HW218118   0.546   2.907   2.386
38782SOL     OW18119  10.725   8.309   6.221
38782SOL    HW118120  10.693   8.389   6.264
38782SOL    HW218121  10.813   8.297   6.255
38783SOL     OW18122   5.808   7.093   1.730
38783SOL    HW118123   5.782   7.090   1.822
38783SOL    HW218124   5.741   7.042   1.685
38784SOL     OW18125   6.384   0.636  12.106
38784SOL    HW118126   6.374   0.541  12.105
38784SOL    HW218127   6.340   0.667  12.027
38785SOL     OW18128  10.640   1.226   8.604
38785SOL    HW118129  10.545   1.235   8.605
38785SOL    HW218130  10.657   1.162   8.535
38786SOL     OW18131   0.240  12.950   8.020
38786SOL    HW118132   0.311  12.991   7.970
38786SOL    HW218133   0.212  12.876   7.966
38787SOL     OW18134   7.087  13.398   1.942
38787SOL    HW118135   7.089  13.378   2.035
38787SOL    HW218136   7.051  13.486   1.937
38788SOL     OW18137   4.943   8.224  14.023
38788SOL    HW118138   4.951   8.173  14.104
38788SOL    HW218139   4.858   8.200  13.988
38789SOL     OW18140   2.213   9.600   1.872
38789SOL    HW118141   2.196   9.680   1.822
38789SOL    HW218142   2.177   9.618   1.959
38790SOL     OW18143  14.238  10.207  11.252
38790SOL    HW118144  14.279  10.237  11.171
38790SOL    HW218145  14.150  10.181  11.226
38791SOL     OW18146   6.387  14.361   0.267
38791SOL    HW118147   6.369  14.438   0.321
38791SOL    HW218148   6.360  14.388   0.179
38792SOL     OW18149   1.846   1.857  13.329
38792SOL    HW118150   1.858   1.805  13.250
38792SOL    HW218151   1.890   1.807  13.398
38793SOL     OW18152   1.780   1.377   8.245
38793SOL    HW118153   1.802   1.363   8.153
38793SOL    HW218154   1.739   1.295   8.273
38794SOL     OW18155  12.104   4.130   7.961
38794SOL    HW118156  12.084   4.190   7.889
38794SOL    HW218157  12.085   4.180   8.040
38795SOL     OW18158  13.616   1.184   8.633
38795SOL    HW118159  13.666   1.116   8.588
38795SOL    HW218160  13.534   1.189   8.584
38796SOL     OW18161   1.299   2.079   1.248
38796SOL    HW118162   1.381   2.128   1.257
38796SOL    HW218163   1.324   1.996   1.208
38797SOL     OW18164  12.147  12.895  10.623
38797SOL    HW118165  12.142  12.970  10.564
38797SOL    HW218166  12.125  12.820  10.569
38798SOL     OW18167   9.619  11.336  13.481
38798SOL    HW118168   9.664  11.392  13.417
38798SOL    HW218169   9.633  11.380  13.565
38799SOL     OW18170   1.939  11.026   1.761
38799SOL    HW118171   1.955  10.997   1.851
38799SOL    HW218172   1.951  10.947   1.709
38800SOL     OW18173  14.682  13.445   0.573
38800SOL    HW118174  14.707  13.386   0.502
38800SOL    HW218175  14.707  13.399   0.653
38801SOL     OW18176   0.549   5.874   2.658
38801SOL    HW118177   0.510   5.835   2.580
38801SOL    HW218178   0.493   5.949   2.678
38802SOL     OW18179   1.758   6.279  10.170
38802SOL    HW118180   1.671   6.297  10.135
38802SOL    HW218181   1.818   6.298  10.098
38803SOL     OW18182   5.771   8.750   2.694
38803SOL    HW118183   5.755   8.739   2.601
38803SOL    HW218184   5.819   8.672   2.720
38804SOL     OW18185   2.476   6.745  10.338
38804SOL    HW118186   2.522   6.661  10.341
38804SOL    HW218187   2.483   6.773  10.247
38805SOL     OW18188   4.426  13.689   4.497
38805SOL    HW118189   4.384  13.651   4.574
38805SOL    HW218190   4.519  13.671   4.510
38806SOL     OW18191  13.782   7.388   3.965
38806SOL    HW118192  13.750   7.304   3.932
38806SOL    HW218193  13.703   7.440   3.978
38807SOL     OW18194   4.754  14.368  14.079
38807SOL    HW118195   4.724  14.452  14.113
38807SOL    HW218196   4.832  14.347  14.130
38808SOL     OW18197  11.901   8.903  12.157
38808SOL    HW118198  11.903   8.808  12.170
38808SOL    HW218199  11.814   8.929  12.188
38809SOL     OW18200   5.774   8.138   9.884
38809SOL    HW118201   5.858   8.177   9.863
38809SOL    HW218202   5.719   8.212   9.911
38810SOL     OW18203  14.390   5.700   3.966
38810SOL    HW118204  14.406   5.703   3.872
38810SOL    HW218205  14.337   5.621   3.979
38811SOL     OW18206  13.004   0.470   3.964
38811SOL    HW118207  12.917   0.429   3.964
38811SOL    HW218208  13.063   0.401   3.993
38812SOL     OW18209   5.129   0.761  13.753
38812SOL    HW118210   5.094   0.700  13.688
38812SOL    HW218211   5.203   0.714  13.792
38813SOL     OW18212  13.715  13.130  10.069
38813SOL    HW118213  13.771  13.145   9.993
38813SOL    HW218214  13.658  13.057  10.044
38814SOL     OW18215   5.403   8.295   0.947
38814SOL    HW118216   5.333   8.306   0.882
38814SOL    HW218217   5.430   8.385   0.968
38815SOL     OW18218  10.444   1.763   5.955
38815SOL    HW118219  10.355   1.729   5.950
38815SOL    HW218220  10.498   1.692   5.920
38816SOL     OW18221  12.488   8.456   0.487
38816SOL    HW118222  12.542   8.410   0.552
38816SOL    HW218223  12.514   8.417   0.403
38817SOL     OW18224   8.852  13.632  13.263
38817SOL    HW118225   8.812  13.592  13.340
38817SOL    HW218226   8.885  13.558  13.212
38818SOL     OW18227   2.487  13.206   8.147
38818SOL    HW118228   2.523  13.118   8.160
38818SOL    HW218229   2.528  13.258   8.216
38819SOL     OW18230  14.263   4.472   5.269
38819SOL    HW118231  14.205   4.548   5.262
38819SOL    HW218232  14.209   4.405   5.310
38820SOL     OW18233  13.946   1.037   7.988
38820SOL    HW118234  13.932   1.127   8.018
38820SOL    HW218235  13.857   1.004   7.970
38821SOL     OW18236   8.733   5.915   6.687
38821SOL    HW118237   8.824   5.896   6.708
38821SOL    HW218238   8.684   5.886   6.765
38822SOL     OW18239   6.598   1.328   3.727
38822SOL    HW118240   6.651   1.257   3.690
38822SOL    HW218241   6.647   1.408   3.708
38823SOL     OW18242   8.244   1.317   0.509
38823SOL    HW118243   8.241   1.350   0.419
38823SOL    HW218244   8.204   1.231   0.504
38824SOL     OW18245   3.297   7.371  12.877
38824SOL    HW118246   3.349   7.292  12.895
38824SOL    HW218247   3.353   7.424  12.821
38825SOL     OW18248  10.312  10.785   2.270
38825SOL    HW118249  10.267  10.869   2.260
38825SOL    HW218250  10.401  10.809   2.296
38826SOL     OW18251   6.568  14.085  10.655
38826SOL    HW118252   6.597  13.995  10.638
38826SOL    HW218253   6.509  14.106  10.583
38827SOL     OW18254   6.785  12.689   3.822
38827SOL    HW118255   6.857  12.730   3.870
38827SOL    HW218256   6.735  12.763   3.787
38828SOL     OW18257   2.743   3.380  13.996
38828SOL    HW118258   2.757   3.430  13.915
38828SOL    HW218259   2.745   3.289  13.967
38829SOL     OW18260   7.447   4.858  12.106
38829SOL    HW118261   7.416   4.919  12.039
38829SOL    HW218262   7.371   4.804  12.126
38830SOL     OW18263  11.914  11.190   3.475
38830SOL    HW118264  12.009  11.178   3.484
38830SOL    HW218265  11.876  11.143   3.549
38831SOL     OW18266  10.997  14.291   6.020
38831SOL    HW118267  10.904  14.282   5.999
38831SOL    HW218268  11.024  14.203   6.047
38832SOL     OW18269   6.204   4.869   9.578
38832SOL    HW118270   6.132   4.872   9.640
38832SOL    HW218271   6.250   4.952   9.590
38833SOL     OW18272   2.618  14.044  11.257
38833SOL    HW118273   2.699  14.095  11.250
38833SOL    HW218274   2.548  14.106  11.238
38834SOL     OW18275   1.782  10.271   8.433
38834SOL    HW118276   1.837  10.292   8.509
38834SOL    HW218277   1.694  10.298   8.458
38835SOL     OW18278   4.171   0.537   9.055
38835SOL    HW118279   4.205   0.626   9.044
38835SOL    HW218280   4.210   0.507   9.137
38836SOL     OW18281  10.151   6.558   9.215
38836SOL    HW118282  10.216   6.553   9.286
38836SOL    HW218283  10.172   6.640   9.170
38837SOL     OW18284   6.108   8.757   5.998
38837SOL    HW118285   6.157   8.760   5.916
38837SOL    HW218286   6.165   8.709   6.059
38838SOL     OW18287   9.747   2.734   5.526
38838SOL    HW118288   9.833   2.692   5.519
38838SOL    HW218289   9.739   2.758   5.618
38839SOL     OW18290   0.767   2.269   4.893
38839SOL    HW118291   0.772   2.234   4.804
38839SOL    HW218292   0.855   2.299   4.912
38840SOL     OW18293  12.344   8.161   2.470
38840SOL    HW118294  12.357   8.157   2.375
38840SOL    HW218295  12.332   8.070   2.497
38841SOL     OW18296  12.737   1.477   5.998
38841SOL    HW118297  12.723   1.545   6.064
38841SOL    HW218298  12.757   1.399   6.049
38842SOL     OW18299   0.340  13.240   3.577
38842SOL    HW118300   0.386  13.298   3.638
38842SOL    HW218301   0.319  13.296   3.502
38843SOL     OW18302   3.867   4.900   4.308
38843SOL    HW118303   3.915   4.925   4.229
38843SOL    HW218304   3.887   4.969   4.371
38844SOL     OW18305   8.408   0.073   6.004
38844SOL    HW118306   8.469   0.086   5.932
38844SOL    HW218307   8.377  14.861   5.995
38845SOL     OW18308  12.287   2.064   7.754
38845SOL    HW118309  12.318   2.124   7.687
38845SOL    HW218310  12.207   2.027   7.719
38846SOL     OW18311   0.806  10.218  12.638
38846SOL    HW118312   0.801  10.125  12.617
38846SOL    HW218313   0.758  10.227  12.720
38847SOL     OW18314  11.243   6.367  10.981
38847SOL    HW118315  11.177   6.305  11.012
38847SOL    HW218316  11.212   6.452  11.014
38848SOL     OW18317   1.011   6.524  10.126
38848SOL    HW118318   0.941   6.515  10.061
38848SOL    HW218319   0.979   6.590  10.187
38849SOL     OW18320   9.861   5.592   6.371
38849SOL    HW118321   9.782   5.587   6.425
38849SOL    HW218322   9.908   5.668   6.405
38850SOL     OW18323  14.110   6.937   9.921
38850SOL    HW118324  14.129   6.972  10.009
38850SOL    HW218325  14.055   6.861   9.937
38851SOL     OW18326  14.730  13.252   3.712
38851SOL    HW118327  14.699  13.201   3.787
38851SOL    HW218328  14.767  13.186   3.652
38852SOL     OW18329   4.042  13.441   8.608
38852SOL    HW118330   4.004  13.460   8.694
38852SOL    HW218331   4.049  13.526   8.565
38853SOL     OW18332  13.869  11.792  10.085
38853SOL    HW118333  13.776  11.807  10.098
38853SOL    HW218334  13.908  11.809  10.171
38854SOL     OW18335   0.450   2.278   3.188
38854SOL    HW118336   0.482   2.189   3.206
38854SOL    HW218337   0.503   2.308   3.114
38855SOL     OW18338   8.643   1.511   4.423
38855SOL    HW118339   8.606   1.514   4.511
38855SOL    HW218340   8.684   1.596   4.410
38856SOL     OW18341   9.855   8.743   8.638
38856SOL    HW118342   9.941   8.743   8.681
38856SOL    HW218343   9.793   8.728   8.709
38857SOL     OW18344  14.730  13.608  11.564
38857SOL    HW118345  14.663  13.584  11.628
38857SOL    HW218346  14.692  13.682  11.516
38858SOL     OW18347   5.401  13.100   9.953
38858SOL    HW118348   5.346  13.142   9.888
38858SOL    HW218349   5.378  13.143  10.036
38859SOL     OW18350   0.222   2.001  11.231
38859SOL    HW118351   0.220   2.082  11.281
38859SOL    HW218352   0.305   1.959  11.255
38860SOL     OW18353   3.601  13.985  10.221
38860SOL    HW118354   3.676  13.980  10.281
38860SOL    HW218355   3.525  13.977  10.278
38861SOL     OW18356   5.193   1.128   1.379
38861SOL    HW118357   5.288   1.136   1.381
38861SOL    HW218358   5.165   1.152   1.467
38862SOL     OW18359   1.059   4.655  14.311
38862SOL    HW118360   1.022   4.707  14.240
38862SOL    HW218361   1.127   4.601  14.269
38863SOL     OW18362  14.389   6.383   9.784
38863SOL    HW118363  14.417   6.454   9.842
38863SOL    HW218364  14.418   6.410   9.697
38864SOL     OW18365   1.060   0.666   9.500
38864SOL    HW118366   1.098   0.751   9.521
38864SOL    HW218367   1.065   0.617   9.582
38865SOL     OW18368   2.907  13.803   8.345
38865SOL    HW118369   2.919  13.800   8.440
38865SOL    HW218370   2.958  13.728   8.312
38866SOL     OW18371   0.656  12.708   2.881
38866SOL    HW118372   0.639  12.630   2.933
38866SOL    HW218373   0.660  12.779   2.946
38867SOL     OW18374  10.291   5.770   2.246
38867SOL    HW118375  10.267   5.846   2.193
38867SOL    HW218376  10.213   5.751   2.298
38868SOL     OW18377   5.160  12.919   4.541
38868SOL    HW118378   5.119  12.963   4.615
38868SOL    HW218379   5.092  12.917   4.474
38869SOL     OW18380   6.885   2.512   3.787
38869SOL    HW118381   6.860   2.430   3.829
38869SOL    HW218382   6.909   2.486   3.698
38870SOL     OW18383   2.964   1.483   2.063
38870SOL    HW118384   3.058   1.493   2.074
38870SOL    HW218385   2.952   1.395   2.029
38871SOL     OW18386  11.669  10.864   5.668
38871SOL    HW118387  11.612  10.939   5.653
38871SOL    HW218388  11.757  10.894   5.644
38872SOL     OW18389   8.576   1.117   2.617
38872SOL    HW118390   8.523   1.062   2.675
38872SOL    HW218391   8.644   1.059   2.583
38873SOL     OW18392  13.188  12.170   9.012
38873SOL    HW118393  13.271  12.164   8.964
38873SOL    HW218394  13.210  12.144   9.101
38874SOL     OW18395   7.408  14.236  13.654
38874SOL    HW118396   7.473  14.304  13.674
38874SOL    HW218397   7.422  14.169  13.721
38875SOL     OW18398  13.148   9.462   8.536
38875SOL    HW118399  13.244   9.461   8.530
38875SOL    HW218400  13.121   9.526   8.470
38876SOL     OW18401  12.420   5.837   8.126
38876SOL    HW118402  12.325   5.825   8.126
38876SOL    HW218403  12.445   5.823   8.218
38877SOL     OW18404  11.254   6.353   6.641
38877SOL    HW118405  11.349   6.347   6.634
38877SOL    HW218406  11.222   6.266   6.619
38878SOL     OW18407   0.529   1.357  10.984
38878SOL    HW118408   0.553   1.265  10.999
38878SOL    HW218409   0.560   1.403  11.061
38879SOL     OW18410   3.671   9.024   0.794
38879SOL    HW118411   3.745   8.967   0.814
38879SOL    HW218412   3.594   8.973   0.816
38880SOL     OW18413  13.741   5.031  11.064
38880SOL    HW118414  13.654   5.071  11.059
38880SOL    HW218415  13.802   5.104  11.059
38881SOL     OW18416   1.781   8.255   5.842
38881SOL    HW118417   1.834   8.256   5.922
38881SOL    HW218418   1.831   8.201   5.781
38882SOL     OW18419   9.405   9.803  11.825
38882SOL    HW118420   9.491   9.840  11.804
38882SOL    HW218421   9.400   9.810  11.921
38883SOL     OW18422   4.972   3.291   7.967
38883SOL    HW118423   4.986   3.232   8.042
38883SOL    HW218424   4.881   3.277   7.943
38884SOL     OW18425   9.060   1.425  14.076
38884SOL    HW118426   9.001   1.454  14.007
38884SOL    HW218427   9.140   1.399  14.030
38885SOL     OW18428   8.390  11.346   9.945
38885SOL    HW118429   8.463  11.308   9.897
38885SOL    HW218430   8.417  11.344  10.037
38886SOL     OW18431   4.999   7.133   8.190
38886SOL    HW118432   5.055   7.103   8.262
38886SOL    HW218433   4.916   7.157   8.232
38887SOL     OW18434   7.252   5.937   3.427
38887SOL    HW118435   7.206   6.019   3.411
38887SOL    HW218436   7.202   5.872   3.378
38888SOL     OW18437   9.959   6.744   6.506
38888SOL    HW118438   9.891   6.679   6.489
38888SOL    HW218439   9.928   6.792   6.582
38889SOL     OW18440   2.552  12.483  14.751
38889SOL    HW118441   2.560  12.515  14.661
38889SOL    HW218442   2.639  12.493  14.788
38890SOL     OW18443   5.926   3.993  14.677
38890SOL    HW118444   5.983   4.021  14.748
38890SOL    HW218445   5.977   3.928  14.629
38891SOL     OW18446   4.926   4.395   6.183
38891SOL    HW118447   4.889   4.306   6.184
38891SOL    HW218448   5.015   4.384   6.219
38892SOL     OW18449  10.017  14.284   0.500
38892SOL    HW118450  10.074  14.322   0.566
38892SOL    HW218451   9.960  14.224   0.549
38893SOL     OW18452   4.059   0.236  14.625
38893SOL    HW118453   3.996   0.164  14.624
38893SOL    HW218454   4.101   0.233  14.540
38894SOL     OW18455   3.082   4.864  11.690
38894SOL    HW118456   3.138   4.786  11.692
38894SOL    HW218457   3.006   4.838  11.637
38895SOL     OW18458   1.673   2.099   5.173
38895SOL    HW118459   1.671   2.010   5.138
38895SOL    HW218460   1.642   2.090   5.263
38896SOL     OW18461  13.222   1.001   3.981
38896SOL    HW118462  13.156   1.062   3.947
38896SOL    HW218463  13.173   0.945   4.041
38897SOL     OW18464   4.364   8.854  13.311
38897SOL    HW118465   4.442   8.867  13.365
38897SOL    HW218466   4.343   8.761  13.321
38898SOL     OW18467  14.853  10.097  10.515
38898SOL    HW118468  14.864  10.052  10.431
38898SOL    HW218469   0.042  10.060  10.572
38899SOL     OW18470   0.310   0.379  14.345
38899SOL    HW118471   0.340   0.308  14.402
38899SOL    HW218472   0.219   0.357  14.325
38900SOL     OW18473   4.876   3.957  14.701
38900SOL    HW118474   4.901   4.025  14.638
38900SOL    HW218475   4.909   3.876  14.664
38901SOL     OW18476   0.755   4.508   3.354
38901SOL    HW118477   0.693   4.565   3.308
38901SOL    HW218478   0.776   4.556   3.435
38902SOL     OW18479   6.995  11.082  12.991
38902SOL    HW118480   6.928  11.015  12.973
38902SOL    HW218481   6.984  11.146  12.921
38903SOL     OW18482   0.621   3.985  13.753
38903SOL    HW118483   0.635   4.017  13.842
38903SOL    HW218484   0.526   3.987  13.741
38904SOL     OW18485  14.330   2.295  10.860
38904SOL    HW118486  14.297   2.352  10.929
38904SOL    HW218487  14.404   2.343  10.824
38905SOL     OW18488  10.299   7.278   7.474
38905SOL    HW118489  10.337   7.335   7.540
38905SOL    HW218490  10.284   7.334   7.398
38906SOL     OW18491  14.220   3.254   5.024
38906SOL    HW118492  14.178   3.302   4.952
38906SOL    HW218493  14.302   3.302   5.040
38907SOL     OW18494  12.088  14.394  14.258
38907SOL    HW118495  12.099  14.331  14.187
38907SOL    HW218496  12.070  14.477  14.214
38908SOL     OW18497   2.049   8.947   9.261
38908SOL    HW118498   1.970   8.998   9.242
38908SOL    HW218499   2.121   9.003   9.230
38909SOL     OW18500  10.484  10.968  10.667
38909SOL    HW118501  10.476  11.063  10.659
38909SOL    HW218502  10.394  10.936  10.660
38910SOL     OW18503  10.530  11.122  11.551
38910SOL    HW118504  10.492  11.182  11.616
38910SOL    HW218505  10.592  11.176  11.503
38911SOL     OW18506  11.285   2.634   0.350
38911SOL    HW118507  11.193   2.661   0.361
38911SOL    HW218508  11.335   2.714   0.365
38912SOL     OW18509   9.555   4.924   3.377
38912SOL    HW118510   9.510   4.850   3.337
38912SOL    HW218511   9.535   4.998   3.319
38913SOL     OW18512  10.283   8.889  11.206
38913SOL    HW118513  10.288   8.794  11.201
38913SOL    HW218514  10.317   8.911  11.292
38914SOL     OW18515   2.127   3.037   2.264
38914SOL    HW118516   2.051   3.089   2.288
38914SOL    HW218517   2.199   3.076   2.314
38915SOL     OW18518  10.966   3.434  14.230
38915SOL    HW118519  11.015   3.421  14.149
38915SOL    HW218520  10.892   3.490  14.206
38916SOL     OW18521  14.123  13.270   2.959
38916SOL    HW118522  14.068  13.197   2.986
38916SOL    HW218523  14.061  13.338   2.931
38917SOL     OW18524   3.417   5.962  10.217
38917SOL    HW118525   3.334   5.990  10.180
38917SOL    HW218526   3.423   5.869  10.194
38918SOL     OW18527   2.107  14.703  13.689
38918SOL    HW118528   2.023  14.659  13.683
38918SOL    HW218529   2.136  14.688  13.779
38919SOL     OW18530   9.251   5.284   7.086
38919SOL    HW118531   9.171   5.232   7.083
38919SOL    HW218532   9.298   5.261   7.006
38920SOL     OW18533   0.352   8.651   7.098
38920SOL    HW118534   0.417   8.610   7.156
38920SOL    HW218535   0.392   8.734   7.073
38921SOL     OW18536  13.005  12.084   3.051
38921SOL    HW118537  12.936  12.081   2.985
38921SOL    HW218538  12.998  12.001   3.098
38922SOL     OW18539  13.855  13.672  13.262
38922SOL    HW118540  13.885  13.604  13.202
38922SOL    HW218541  13.825  13.624  13.339
38923SOL     OW18542  12.168   2.733   5.279
38923SOL    HW118543  12.164   2.727   5.375
38923SOL    HW218544  12.080   2.707   5.250
38924SOL     OW18545   2.621  12.777   5.742
38924SOL    HW118546   2.675  12.763   5.821
38924SOL    HW218547   2.621  12.692   5.698
38925SOL     OW18548   6.869   0.652   6.673
38925SOL    HW118549   6.895   0.605   6.753
38925SOL    HW218550   6.775   0.665   6.682
38926SOL     OW18551  12.772   0.944  10.677
38926SOL    HW118552  12.789   0.903  10.593
38926SOL    HW218553  12.785   1.037  10.661
38927SOL     OW18554   6.793   0.206   8.109
38927SOL    HW118555   6.828   0.292   8.130
38927SOL    HW218556   6.866   0.158   8.071
38928SOL     OW18557  13.932   9.493  11.704
38928SOL    HW118558  13.848   9.538  11.715
38928SOL    HW218559  13.995   9.548  11.751
38929SOL     OW18560  12.929   1.358  14.017
38929SOL    HW118561  12.993   1.319  13.957
38929SOL    HW218562  12.844   1.328  13.985
38930SOL     OW18563   3.922  10.585   3.523
38930SOL    HW118564   3.866  10.520   3.565
38930SOL    HW218565   3.933  10.654   3.589
38931SOL     OW18566   5.458   5.535   7.908
38931SOL    HW118567   5.497   5.450   7.928
38931SOL    HW218568   5.364   5.517   7.905
38932SOL     OW18569   0.567  11.959   5.660
38932SOL    HW118570   0.647  11.916   5.688
38932SOL    HW218571   0.592  12.011   5.584
38933SOL     OW18572   3.268  10.985   3.403
38933SOL    HW118573   3.260  10.895   3.435
38933SOL    HW218574   3.349  11.017   3.442
38934SOL     OW18575  12.156   7.997   4.842
38934SOL    HW118576  12.246   7.966   4.834
38934SOL    HW218577  12.155   8.078   4.791
38935SOL     OW18578   1.526   5.760   2.859
38935SOL    HW118579   1.469   5.788   2.930
38935SOL    HW218580   1.593   5.706   2.901
38936SOL     OW18581   2.198   5.157  11.947
38936SOL    HW118582   2.280   5.194  11.914
38936SOL    HW218583   2.176   5.211  12.022
38937SOL     OW18584   5.633  14.133  10.382
38937SOL    HW118585   5.608  14.124  10.474
38937SOL    HW218586   5.676  14.051  10.359
38938SOL     OW18587   1.910   9.804   9.270
38938SOL    HW118588   1.849   9.807   9.196
38938SOL    HW218589   1.854   9.786   9.346
38939SOL     OW18590   6.882   3.608   3.665
38939SOL    HW118591   6.859   3.639   3.753
38939SOL    HW218592   6.941   3.675   3.631
38940SOL     OW18593   1.264   2.394   3.811
38940SOL    HW118594   1.293   2.330   3.876
38940SOL    HW218595   1.173   2.413   3.835
38941SOL     OW18596   0.300   2.931   8.419
38941SOL    HW118597   0.276   2.931   8.326
38941SOL    HW218598   0.392   2.904   8.419
38942SOL     OW18599   6.725   9.095   5.099
38942SOL    HW118600   6.657   9.144   5.146
38942SOL    HW218601   6.807   9.137   5.124
38943SOL     OW18602   6.620   1.410  11.917
38943SOL    HW118603   6.674   1.395  11.840
38943SOL    HW218604   6.671   1.373  11.989
38944SOL     OW18605   2.215  13.681   0.275
38944SOL    HW118606   2.229  13.655   0.366
38944SOL    HW218607   2.165  13.763   0.281
38945SOL     OW18608   7.077  14.864   0.586
38945SOL    HW118609   7.062  14.796   0.520
38945SOL    HW218610   7.134  14.822   0.650
38946SOL     OW18611  13.707  14.716  10.641
38946SOL    HW118612  13.660  14.636  10.620
38946SOL    HW218613  13.740  14.703  10.729
38947SOL     OW18614   4.985   9.797   6.251
38947SOL    HW118615   5.006   9.705   6.264
38947SOL    HW218616   4.957   9.803   6.160
38948SOL     OW18617  10.692  13.542   8.477
38948SOL    HW118618  10.665  13.502   8.394
38948SOL    HW218619  10.691  13.636   8.459
38949SOL     OW18620   1.532   9.908  13.431
38949SOL    HW118621   1.607   9.873  13.383
38949SOL    HW218622   1.571   9.955  13.506
38950SOL     OW18623  12.991  11.363   4.913
38950SOL    HW118624  12.953  11.373   4.826
38950SOL    HW218625  12.960  11.278   4.943
38951SOL     OW18626   4.383  10.691   2.275
38951SOL    HW118627   4.315  10.729   2.331
38951SOL    HW218628   4.347  10.696   2.187
38952SOL     OW18629   1.952  13.290   3.495
38952SOL    HW118630   1.895  13.326   3.427
38952SOL    HW218631   1.996  13.365   3.534
38953SOL     OW18632  11.259   7.440   9.532
38953SOL    HW118633  11.298   7.380   9.468
38953SOL    HW218634  11.227   7.514   9.479
38954SOL     OW18635   7.769   4.184   4.434
38954SOL    HW118636   7.723   4.104   4.461
38954SOL    HW218637   7.713   4.255   4.462
38955SOL     OW18638  11.125  13.775  12.312
38955SOL    HW118639  11.143  13.814  12.398
38955SOL    HW218640  11.137  13.848  12.251
38956SOL     OW18641   4.462   3.701   7.456
38956SOL    HW118642   4.449   3.782   7.505
38956SOL    HW218643   4.454   3.632   7.521
38957SOL     OW18644  13.423   1.806  10.707
38957SOL    HW118645  13.433   1.807  10.802
38957SOL    HW218646  13.388   1.893  10.686
38958SOL     OW18647   6.362   6.212  12.862
38958SOL    HW118648   6.334   6.279  12.799
38958SOL    HW218649   6.457   6.223  12.868
38959SOL     OW18650  11.708  12.435   7.242
38959SOL    HW118651  11.630  12.411   7.192
38959SOL    HW218652  11.757  12.493   7.185
38960SOL     OW18653   7.094   1.912   3.253
38960SOL    HW118654   7.111   1.826   3.215
38960SOL    HW218655   7.079   1.895   3.346
38961SOL     OW18656   1.432   2.303   2.207
38961SOL    HW118657   1.389   2.378   2.246
38961SOL    HW218658   1.525   2.325   2.209
38962SOL     OW18659   3.006  14.127   9.352
38962SOL    HW118660   2.951  14.095   9.425
38962SOL    HW218661   3.082  14.069   9.354
38963SOL     OW18662   0.686   8.041  10.582
38963SOL    HW118663   0.609   8.091  10.609
38963SOL    HW218664   0.759   8.103  10.591
38964SOL     OW18665   8.628   6.892   8.192
38964SOL    HW118666   8.706   6.947   8.184
38964SOL    HW218667   8.626   6.841   8.111
38965SOL     OW18668   1.536   5.163   4.454
38965SOL    HW118669   1.594   5.168   4.378
38965SOL    HW218670   1.584   5.205   4.525
38966SOL     OW18671  13.379   1.387   4.002
38966SOL    HW118672  13.426   1.303   3.999
38966SOL    HW218673  13.305   1.374   3.943
38967SOL     OW18674  11.789  10.569   0.800
38967SOL    HW118675  11.775  10.623   0.722
38967SOL    HW218676  11.820  10.485   0.765
38968SOL     OW18677  12.051   8.296  10.836
38968SOL    HW118678  12.095   8.304  10.921
38968SOL    HW218679  12.117   8.259  10.778
38969SOL     OW18680   5.357   8.135   3.472
38969SOL    HW118681   5.331   8.097   3.556
38969SOL    HW218682   5.277   8.175   3.439
38970SOL     OW18683   9.259   8.759  13.727
38970SOL    HW118684   9.234   8.682  13.777
38970SOL    HW218685   9.212   8.831  13.768
38971SOL     OW18686  12.806   0.876  11.755
38971SOL    HW118687  12.884   0.920  11.788
38971SOL    HW218688  12.813   0.880  11.660
38972SOL     OW18689   6.676   5.100   1.997
38972SOL    HW118690   6.716   5.182   2.026
38972SOL    HW218691   6.750   5.041   1.984
38973SOL     OW18692   5.569   5.231   8.852
38973SOL    HW118693   5.519   5.237   8.771
38973SOL    HW218694   5.504   5.235   8.922
38974SOL     OW18695   3.239   6.092   8.533
38974SOL    HW118696   3.208   6.002   8.545
38974SOL    HW218697   3.247   6.127   8.622
38975SOL     OW18698   7.144  10.778   2.638
38975SOL    HW118699   7.070  10.754   2.582
38975SOL    HW218700   7.218  10.727   2.603
38976SOL     OW18701   6.870  13.128   7.942
38976SOL    HW118702   6.934  13.061   7.967
38976SOL    HW218703   6.792  13.078   7.919
38977SOL     OW18704   8.535   3.872   5.604
38977SOL    HW118705   8.503   3.962   5.597
38977SOL    HW218706   8.605   3.877   5.669
38978SOL     OW18707   5.473   5.572  13.163
38978SOL    HW118708   5.559   5.587  13.202
38978SOL    HW218709   5.471   5.630  13.087
38979SOL     OW18710  12.508   6.242  12.400
38979SOL    HW118711  12.560   6.163  12.416
38979SOL    HW218712  12.421   6.219  12.432
38980SOL     OW18713  13.676   0.826   9.702
38980SOL    HW118714  13.667   0.732   9.686
38980SOL    HW218715  13.590   0.853   9.735
38981SOL     OW18716   0.002   1.613  11.147
38981SOL    HW118717   0.047   1.659  11.218
38981SOL    HW218718  14.824   1.549  11.191
38982SOL     OW18719  10.327  12.649   6.354
38982SOL    HW118720  10.331  12.725   6.413
38982SOL    HW218721  10.338  12.573   6.412
38983SOL     OW18722  13.115  13.300   2.909
38983SOL    HW118723  13.198  13.272   2.946
38983SOL    HW218724  13.053  13.232   2.935
38984SOL     OW18725   0.021   7.795   8.741
38984SOL    HW118726   0.077   7.851   8.794
38984SOL    HW218727  14.818   7.845   8.731
38985SOL     OW18728   3.161   8.890   7.679
38985SOL    HW118729   3.198   8.948   7.746
38985SOL    HW218730   3.164   8.803   7.719
38986SOL     OW18731   9.997  13.569   9.171
38986SOL    HW118732  10.043  13.489   9.145
38986SOL    HW218733  10.028  13.586   9.260
38987SOL     OW18734   2.978   3.851   6.412
38987SOL    HW118735   3.052   3.790   6.417
38987SOL    HW218736   2.968   3.868   6.318
38988SOL     OW18737   2.031   1.591   3.766
38988SOL    HW118738   1.950   1.593   3.715
38988SOL    HW218739   2.033   1.503   3.804
38989SOL     OW18740   2.653  13.141  10.178
38989SOL    HW118741   2.576  13.084  10.185
38989SOL    HW218742   2.668  13.171  10.268
38990SOL     OW18743   8.580   5.573  11.859
38990SOL    HW118744   8.608   5.500  11.804
38990SOL    HW218745   8.484   5.566  11.859
38991SOL     OW18746  14.483  14.812   2.317
38991SOL    HW118747  14.504  14.760   2.395
38991SOL    HW218748  14.389  14.801   2.305
38992SOL     OW18749  14.224   6.772  13.747
38992SOL    HW118750  14.169   6.849  13.730
38992SOL    HW218751  14.224   6.724  13.664
38993SOL     OW18752   1.161  13.967  14.196
38993SOL    HW118753   1.255  13.953  14.190
38993SOL    HW218754   1.152  14.038  14.260
38994SOL     OW18755   1.900  11.917   8.942
38994SOL    HW118756   1.855  11.996   8.975
38994SOL    HW218757   1.859  11.900   8.858
38995SOL     OW18758  11.765   2.484   0.773
38995SOL    HW118759  11.854   2.503   0.744
38995SOL    HW218760  11.761   2.517   0.863
38996SOL     OW18761   2.132   8.522   2.468
38996SOL    HW118762   2.119   8.515   2.374
38996SOL    HW218763   2.118   8.432   2.500
38997SOL     OW18764  12.295   2.431   2.017
38997SOL    HW118765  12.353   2.486   1.966
38997SOL    HW218766  12.341   2.347   2.025
38998SOL     OW18767   0.876   6.683  13.103
38998SOL    HW118768   0.782   6.699  13.090
38998SOL    HW218769   0.880   6.624  13.178
38999SOL     OW18770  10.716  12.458  11.293
38999SOL    HW118771  10.687  12.435  11.205
38999SOL    HW218772  10.686  12.384  11.348
39000SOL     OW18773   0.116  13.858   5.797
39000SOL    HW118774   0.082  13.869   5.709
39000SOL    HW218775   0.077  13.930   5.847
39001SOL     OW18776   3.119   9.882  14.344
39001SOL    HW118777   3.128   9.951  14.279
39001SOL    HW218778   3.112   9.802  14.293
39002SOL     OW18779  13.036   9.641   6.545
39002SOL    HW118780  12.995   9.583   6.609
39002SOL    HW218781  13.130   9.628   6.557
39003SOL     OW18782  11.838   3.579   2.444
39003SOL    HW118783  11.857   3.596   2.536
39003SOL    HW218784  11.800   3.492   2.443
39004SOL     OW18785  12.335  12.937   4.203
39004SOL    HW118786  12.315  12.960   4.113
39004SOL    HW218787  12.408  12.875   4.197
39005SOL     OW18788  14.523   1.967   0.018
39005SOL    HW118789  14.465   1.942  14.824
39005SOL    HW218790  14.469   1.960   0.097
39006SOL     OW18791  13.701  12.934   2.452
39006SOL    HW118792  13.698  13.024   2.485
39006SOL    HW218793  13.641  12.885   2.509
39007SOL     OW18794   2.764  11.926   0.009
39007SOL    HW118795   2.808  11.988  14.828
39007SOL    HW218796   2.696  11.886  14.834
39008SOL     OW18797   0.582   5.714   7.739
39008SOL    HW118798   0.532   5.725   7.658
39008SOL    HW218799   0.540   5.640   7.784
39009SOL     OW18800   9.704  10.714  12.721
39009SOL    HW118801   9.655  10.634  12.736
39009SOL    HW218802   9.654  10.783  12.764
39010SOL     OW18803  10.100   8.898   0.506
39010SOL    HW118804  10.152   8.842   0.447
39010SOL    HW218805  10.095   8.848   0.587
39011SOL     OW18806   5.614   4.504   9.094
39011SOL    HW118807   5.641   4.592   9.121
39011SOL    HW218808   5.563   4.471   9.167
39012SOL     OW18809   7.624   5.076  10.620
39012SOL    HW118810   7.652   5.137  10.551
39012SOL    HW218811   7.696   5.075  10.682
39013SOL     OW18812   4.343   0.482   7.359
39013SOL    HW118813   4.346   0.449   7.448
39013SOL    HW218814   4.289   0.418   7.312
39014SOL     OW18815   2.485  14.562   1.509
39014SOL    HW118816   2.440  14.579   1.592
39014SOL    HW218817   2.437  14.487   1.472
39015SOL     OW18818  14.708   2.826   2.825
39015SOL    HW118819  14.775   2.765   2.855
39015SOL    HW218820  14.719   2.904   2.880
39016SOL     OW18821   1.652  13.657  13.693
39016SOL    HW118822   1.566  13.697  13.701
39016SOL    HW218823   1.692  13.669  13.779
39017SOL     OW18824   4.919   8.689  11.989
39017SOL    HW118825   4.934   8.742  12.067
39017SOL    HW218826   4.827   8.664  11.993
39018SOL     OW18827  11.443  10.570   2.886
39018SOL    HW118828  11.441  10.618   2.969
39018SOL    HW218829  11.451  10.638   2.819
39019SOL     OW18830   8.600   1.654   7.545
39019SOL    HW118831   8.622   1.638   7.454
39019SOL    HW218832   8.553   1.738   7.544
39020SOL     OW18833   6.710   5.791  10.848
39020SOL    HW118834   6.618   5.814  10.863
39020SOL    HW218835   6.706   5.715  10.790
39021SOL     OW18836   9.950   1.719   9.328
39021SOL    HW118837  10.026   1.679   9.285
39021SOL    HW218838   9.931   1.661   9.402
39022SOL     OW18839  13.038  12.236  10.721
39022SOL    HW118840  13.069  12.170  10.659
39022SOL    HW218841  12.957  12.199  10.756
39023SOL     OW18842   6.957   8.322  13.435
39023SOL    HW118843   6.994   8.254  13.492
39023SOL    HW218844   6.872   8.342  13.474
39024SOL     OW18845   4.534  11.969  13.026
39024SOL    HW118846   4.521  12.050  13.075
39024SOL    HW218847   4.504  11.989  12.938
39025SOL     OW18848   6.609   4.429  10.999
39025SOL    HW118849   6.565   4.447  10.916
39025SOL    HW218850   6.598   4.335  11.012
39026SOL     OW18851   8.417   6.975   2.191
39026SOL    HW118852   8.399   7.062   2.156
39026SOL    HW218853   8.490   6.943   2.139
39027SOL     OW18854   9.138   8.818   8.183
39027SOL    HW118855   9.056   8.793   8.225
39027SOL    HW218856   9.177   8.882   8.243
39028SOL     OW18857   6.927   4.498   7.128
39028SOL    HW118858   6.888   4.438   7.192
39028SOL    HW218859   6.987   4.444   7.078
39029SOL     OW18860   5.733   0.296   9.470
39029SOL    HW118861   5.827   0.276   9.464
39029SOL    HW218862   5.690   0.213   9.450
39030SOL     OW18863  10.171   2.093  12.089
39030SOL    HW118864  10.238   2.069  12.154
39030SOL    HW218865  10.218   2.092  12.005
39031SOL     OW18866   3.817  14.846  11.742
39031SOL    HW118867   3.862  14.798  11.812
39031SOL    HW218868   3.785   0.048  11.784
39032SOL     OW18869  10.791  14.809  13.212
39032SOL    HW118870  10.700  14.793  13.238
39032SOL    HW218871  10.821  14.724  13.180
39033SOL     OW18872  12.853   2.872   8.546
39033SOL    HW118873  12.856   2.777   8.559
39033SOL    HW218874  12.764   2.889   8.515
39034SOL     OW18875   7.472  12.003   7.140
39034SOL    HW118876   7.468  12.005   7.236
39034SOL    HW218877   7.401  12.059   7.112
39035SOL     OW18878   6.707   2.317   0.869
39035SOL    HW118879   6.687   2.299   0.960
39035SOL    HW218880   6.730   2.410   0.868
39036SOL     OW18881  13.727   6.371  11.107
39036SOL    HW118882  13.679   6.419  11.174
39036SOL    HW218883  13.744   6.435  11.038
39037SOL     OW18884  13.893   5.398  14.804
39037SOL    HW118885  13.940   5.318  14.779
39037SOL    HW218886  13.807   5.388  14.763
39038SOL     OW18887  13.819   9.787  13.494
39038SOL    HW118888  13.830   9.869  13.445
39038SOL    HW218889  13.770   9.730  13.435
39039SOL     OW18890  10.620   0.401   2.626
39039SOL    HW118891  10.661   0.329   2.674
39039SOL    HW218892  10.545   0.426   2.680
39040SOL     OW18893   2.807   7.573   6.489
39040SOL    HW118894   2.746   7.526   6.433
39040SOL    HW218895   2.861   7.504   6.529
39041SOL     OW18896  10.994  14.673  10.059
39041SOL    HW118897  11.068  14.680   9.998
39041SOL    HW218898  10.971  14.581  10.059
39042SOL     OW18899  13.921   1.012  14.542
39042SOL    HW118900  13.948   0.982  14.629
39042SOL    HW218901  13.833   0.977  14.531
39043SOL     OW18902  10.597  11.094   2.961
39043SOL    HW118903  10.508  11.130   2.963
39043SOL    HW218904  10.586  11.001   2.979
39044SOL     OW18905   7.904   0.209   0.864
39044SOL    HW118906   7.932   0.158   0.940
39044SOL    HW218907   7.972   0.275   0.853
39045SOL     OW18908   6.243   1.112  13.413
39045SOL    HW118909   6.312   1.090  13.476
39045SOL    HW218910   6.239   1.208  13.414
39046SOL     OW18911   7.563   8.108   7.055
39046SOL    HW118912   7.487   8.157   7.024
39046SOL    HW218913   7.635   8.171   7.057
39047SOL     OW18914   2.797   0.964   3.811
39047SOL    HW118915   2.822   0.942   3.721
39047SOL    HW218916   2.701   0.956   3.812
39048SOL     OW18917  11.629  13.982  14.080
39048SOL    HW118918  11.539  13.963  14.105
39048SOL    HW218919  11.624  14.060  14.025
39049SOL     OW18920   0.587   8.092  13.288
39049SOL    HW118921   0.544   8.175  13.309
39049SOL    HW218922   0.678   8.105  13.315
39050SOL     OW18923   2.315   4.363   3.089
39050SOL    HW118924   2.363   4.422   3.147
39050SOL    HW218925   2.227   4.399   3.086
39051SOL     OW18926  12.185   8.386   8.608
39051SOL    HW118927  12.118   8.382   8.540
39051SOL    HW218928  12.227   8.471   8.596
39052SOL     OW18929   9.335   9.346  11.349
39052SOL    HW118930   9.418   9.337  11.302
39052SOL    HW218931   9.333   9.273  11.410
39053SOL     OW18932   4.499   6.677   6.504
39053SOL    HW118933   4.529   6.602   6.453
39053SOL    HW218934   4.420   6.647   6.548
39054SOL     OW18935   3.828  12.650   6.867
39054SOL    HW118936   3.866  12.677   6.951
39054SOL    HW218937   3.844  12.556   6.863
39055SOL     OW18938   4.384   1.433   4.020
39055SOL    HW118939   4.421   1.480   4.095
39055SOL    HW218940   4.357   1.503   3.960
39056SOL     OW18941   7.035   5.453   1.845
39056SOL    HW118942   7.052   5.547   1.853
39056SOL    HW218943   6.954   5.439   1.894
39057SOL     OW18944   8.100   0.097   0.075
39057SOL    HW118945   8.164   0.068   0.011
39057SOL    HW218946   8.113   0.192   0.081
39058SOL     OW18947   3.082  13.469   2.313
39058SOL    HW118948   3.046  13.402   2.255
39058SOL    HW218949   3.024  13.468   2.390
39059SOL     OW18950  11.207   3.512   6.112
39059SOL    HW118951  11.199   3.554   6.027
39059SOL    HW218952  11.117   3.489   6.136
39060SOL     OW18953  11.952   0.749   1.011
39060SOL    HW118954  12.027   0.774   1.064
39060SOL    HW218955  11.914   0.832   0.982
39061SOL     OW18956   5.744   9.914   5.267
39061SOL    HW118957   5.783   9.880   5.187
39061SOL    HW218958   5.757   9.845   5.331
39062SOL     OW18959   4.756   5.590  14.591
39062SOL    HW118960   4.712   5.522  14.641
39062SOL    HW218961   4.732   5.672  14.634
39063SOL     OW18962   8.372   6.380   2.822
39063SOL    HW118963   8.440   6.353   2.883
39063SOL    HW218964   8.334   6.299   2.789
39064SOL     OW18965   4.085   6.356  14.278
39064SOL    HW118966   4.102   6.450  14.270
39064SOL    HW218967   4.102   6.336  14.370
39065SOL     OW18968   0.295  10.292   2.866
39065SOL    HW118969   0.201  10.310   2.868
39065SOL    HW218970   0.301  10.197   2.869
39066SOL     OW18971   0.484   8.836  14.310
39066SOL    HW118972   0.423   8.764  14.293
39066SOL    HW218973   0.460   8.867  14.398
39067SOL     OW18974   0.387   7.998   4.098
39067SOL    HW118975   0.396   8.012   4.004
39067SOL    HW218976   0.417   7.909   4.112
39068SOL     OW18977   7.116   6.609  14.407
39068SOL    HW118978   7.133   6.661  14.486
39068SOL    HW218979   7.104   6.675  14.338
39069SOL     OW18980  12.358   3.477   6.732
39069SOL    HW118981  12.424   3.499   6.798
39069SOL    HW218982  12.305   3.409   6.772
39070SOL     OW18983   1.803   7.138   5.187
39070SOL    HW118984   1.776   7.214   5.239
39070SOL    HW218985   1.728   7.120   5.131
39071SOL     OW18986   2.472   6.646  13.640
39071SOL    HW118987   2.517   6.583  13.696
39071SOL    HW218988   2.381   6.617  13.639
39072SOL     OW18989   8.006  10.209  12.529
39072SOL    HW118990   7.950  10.183  12.456
39072SOL    HW218991   8.085  10.244  12.487
39073SOL     OW18992   7.625   1.202  14.233
39073SOL    HW118993   7.574   1.283  14.225
39073SOL    HW218994   7.706   1.229  14.277
39074SOL     OW18995   9.992   8.302  10.804
39074SOL    HW118996   9.907   8.294  10.760
39074SOL    HW218997   9.992   8.391  10.840
39075SOL     OW18998  14.682  14.623   0.257
39075SOL    HW118999  14.766  14.656   0.287
39075SOL    HW219000  14.640  14.699   0.216
39076SOL     OW19001   8.678   7.979   2.387
39076SOL    HW119002   8.687   7.938   2.473
39076SOL    HW219003   8.766   7.977   2.349
39077SOL     OW19004  10.154   4.583   4.469
39077SOL    HW119005  10.126   4.675   4.467
39077SOL    HW219006  10.086   4.536   4.421
39078SOL     OW19007  14.526   2.989   7.712
39078SOL    HW119008  14.583   3.047   7.762
39078SOL    HW219009  14.439   3.003   7.750
39079SOL     OW19010   0.422   2.280   9.306
39079SOL    HW119011   0.367   2.357   9.322
39079SOL    HW219012   0.366   2.221   9.254
39080SOL     OW19013   9.114   8.734   1.946
39080SOL    HW119014   9.134   8.669   2.013
39080SOL    HW219015   9.164   8.811   1.972
39081SOL     OW19016   8.270   1.366   4.526
39081SOL    HW119017   8.220   1.385   4.447
39081SOL    HW219018   8.282   1.271   4.526
39082SOL     OW19019   0.525   7.271   4.069
39082SOL    HW119020   0.430   7.272   4.073
39082SOL    HW219021   0.549   7.348   4.017
39083SOL     OW19022   7.759  10.731   5.351
39083SOL    HW119023   7.841  10.687   5.372
39083SOL    HW219024   7.748  10.719   5.257
39084SOL     OW19025   5.820   7.493   4.125
39084SOL    HW119026   5.751   7.491   4.059
39084SOL    HW219027   5.857   7.581   4.118
39085SOL     OW19028   0.885   0.909  14.792
39085SOL    HW119029   0.869   0.892   0.007
39085SOL    HW219030   0.862   1.001  14.781
39086SOL     OW19031   6.526   3.201   7.785
39086SOL    HW119032   6.519   3.210   7.880
39086SOL    HW219033   6.444   3.238   7.751
39087SOL     OW19034   6.875   4.693   6.790
39087SOL    HW119035   6.784   4.667   6.779
39087SOL    HW219036   6.900   4.727   6.704
39088SOL     OW19037   0.063   6.313   1.507
39088SOL    HW119038   0.074   6.286   1.598
39088SOL    HW219039   0.039   6.233   1.460
39089SOL     OW19040  11.240  13.721   7.756
39089SOL    HW119041  11.311  13.785   7.758
39089SOL    HW219042  11.270  13.652   7.815
39090SOL     OW19043   5.224  13.346   9.115
39090SOL    HW119044   5.262  13.334   9.202
39090SOL    HW219045   5.263  13.276   9.062
39091SOL     OW19046   4.765   5.885  12.984
39091SOL    HW119047   4.734   5.972  12.959
39091SOL    HW219048   4.804   5.897  13.071
39092SOL     OW19049  12.148   3.116  10.877
39092SOL    HW119050  12.115   3.035  10.917
39092SOL    HW219051  12.077   3.179  10.889
39093SOL     OW19052   0.130   1.105  13.032
39093SOL    HW119053   0.093   1.187  13.001
39093SOL    HW219054   0.055   1.045  13.037
39094SOL     OW19055   1.803   5.453   9.059
39094SOL    HW119056   1.710   5.434   9.069
39094SOL    HW219057   1.805   5.526   8.997
39095SOL     OW19058  12.288  12.201  14.137
39095SOL    HW119059  12.226  12.156  14.194
39095SOL    HW219060  12.360  12.138  14.126
39096SOL     OW19061   6.156   3.752   7.260
39096SOL    HW119062   6.143   3.737   7.354
39096SOL    HW219063   6.072   3.729   7.220
39097SOL     OW19064   3.988  11.685   6.933
39097SOL    HW119065   3.991  11.603   6.884
39097SOL    HW219066   3.896  11.711   6.932
39098SOL     OW19067  14.839  14.717   4.320
39098SOL    HW119068  14.876  14.699   4.233
39098SOL    HW219069  14.788  14.797   4.308
39099SOL     OW19070   5.328  10.795   9.492
39099SOL    HW119071   5.297  10.764   9.578
39099SOL    HW219072   5.287  10.736   9.429
39100SOL     OW19073   7.846  12.610   2.037
39100SOL    HW119074   7.873  12.639   1.950
39100SOL    HW219075   7.842  12.515   2.031
39101SOL     OW19076  13.011   2.107   3.918
39101SOL    HW119077  12.990   2.034   3.861
39101SOL    HW219078  13.105   2.099   3.934
39102SOL     OW19079   7.156  10.719   2.921
39102SOL    HW119080   7.148  10.722   2.825
39102SOL    HW219081   7.190  10.805   2.945
39103SOL     OW19082   3.624   9.965   3.549
39103SOL    HW119083   3.546   9.923   3.586
39103SOL    HW219084   3.649  10.030   3.615
39104SOL     OW19085  14.110   7.320   2.193
39104SOL    HW119086  14.183   7.277   2.147
39104SOL    HW219087  14.143   7.333   2.282
39105SOL     OW19088   8.591   6.875   8.449
39105SOL    HW119089   8.645   6.945   8.486
39105SOL    HW219090   8.588   6.894   8.355
39106SOL     OW19091   1.714   9.729   5.040
39106SOL    HW119092   1.679   9.657   4.988
39106SOL    HW219093   1.747   9.687   5.120
39107SOL     OW19094   8.360  10.169  13.012
39107SOL    HW119095   8.388  10.117  13.087
39107SOL    HW219096   8.314  10.107  12.956
39108SOL     OW19097   5.239   8.420  13.689
39108SOL    HW119098   5.323   8.375  13.686
39108SOL    HW219099   5.216   8.422  13.782
39109SOL     OW19100  11.552  14.053   8.295
39109SOL    HW119101  11.574  14.064   8.388
39109SOL    HW219102  11.621  13.996   8.261
39110SOL     OW19103   1.052   3.461  11.088
39110SOL    HW119104   1.117   3.514  11.042
39110SOL    HW219105   0.993   3.524  11.128
39111SOL     OW19106   8.859   9.974  12.212
39111SOL    HW119107   8.806  10.025  12.150
39111SOL    HW219108   8.842  10.016  12.297
39112SOL     OW19109  10.142   8.149  10.976
39112SOL    HW119110  10.082   8.192  10.915
39112SOL    HW219111  10.228   8.162  10.937
39113SOL     OW19112   6.626   3.477  13.587
39113SOL    HW119113   6.673   3.428  13.654
39113SOL    HW219114   6.577   3.543  13.636
39114SOL     OW19115   1.299   1.510   3.537
39114SOL    HW119116   1.336   1.462   3.463
39114SOL    HW219117   1.219   1.549   3.503
39115SOL     OW19118  12.414   2.166   4.617
39115SOL    HW119119  12.384   2.221   4.545
39115SOL    HW219120  12.478   2.107   4.578
39116SOL     OW19121   3.379  13.927   0.547
39116SOL    HW119122   3.334  13.986   0.607
39116SOL    HW219123   3.380  13.843   0.592
39117SOL     OW19124   1.800   6.177   1.370
39117SOL    HW119125   1.835   6.094   1.336
39117SOL    HW219126   1.707   6.159   1.384
39118SOL     OW19127   8.302   5.156   2.055
39118SOL    HW119128   8.277   5.245   2.028
39118SOL    HW219129   8.397   5.161   2.071
39119SOL     OW19130  14.212   1.936   3.177
39119SOL    HW119131  14.295   1.959   3.135
39119SOL    HW219132  14.231   1.939   3.271
39120SOL     OW19133   0.369   9.210  12.771
39120SOL    HW119134   0.370   9.295  12.726
39120SOL    HW219135   0.289   9.168  12.740
39121SOL     OW19136   0.163   9.711   7.427
39121SOL    HW119137   0.256   9.715   7.405
39121SOL    HW219138   0.124   9.784   7.379
39122SOL     OW19139   3.911   4.659   4.447
39122SOL    HW119140   3.915   4.725   4.377
39122SOL    HW219141   3.865   4.585   4.407
39123SOL     OW19142   5.543   9.124   5.236
39123SOL    HW119143   5.470   9.067   5.211
39123SOL    HW219144   5.560   9.177   5.158
39124SOL     OW19145  11.328  13.675   4.598
39124SOL    HW119146  11.350  13.733   4.671
39124SOL    HW219147  11.240  13.642   4.620
39125SOL     OW19148  13.138   0.804   2.658
39125SOL    HW119149  13.175   0.887   2.688
39125SOL    HW219150  13.114   0.820   2.567
39126SOL     OW19151  11.572   1.438  11.044
39126SOL    HW119152  11.665   1.419  11.038
39126SOL    HW219153  11.542   1.441  10.953
39127SOL     OW19154   8.694   8.372   0.532
39127SOL    HW119155   8.776   8.393   0.577
39127SOL    HW219156   8.639   8.334   0.601
39128SOL     OW19157   4.128  13.037   2.993
39128SOL    HW119158   4.081  12.960   3.024
39128SOL    HW219159   4.202  13.003   2.944
39129SOL     OW19160   5.538   4.853   6.405
39129SOL    HW119161   5.503   4.918   6.344
39129SOL    HW219162   5.626   4.885   6.426
39130SOL     OW19163  11.840  10.762   2.260
39130SOL    HW119164  11.906  10.801   2.202
39130SOL    HW219165  11.883  10.684   2.295
39131SOL     OW19166   3.354   3.527   6.689
39131SOL    HW119167   3.430   3.469   6.702
39131SOL    HW219168   3.375   3.605   6.739
39132SOL     OW19169   7.728   9.085   3.715
39132SOL    HW119170   7.797   9.150   3.702
39132SOL    HW219171   7.677   9.120   3.788
39133SOL     OW19172   3.732   3.466  13.744
39133SOL    HW119173   3.719   3.406  13.671
39133SOL    HW219174   3.734   3.409  13.821
39134SOL     OW19175   3.276   5.719   5.423
39134SOL    HW119176   3.268   5.624   5.412
39134SOL    HW219177   3.298   5.731   5.515
39135SOL     OW19178   4.018   2.678   0.878
39135SOL    HW119179   3.950   2.614   0.859
39135SOL    HW219180   3.998   2.753   0.821
39136SOL     OW19181   4.486  14.336  11.029
39136SOL    HW119182   4.481  14.300  11.118
39136SOL    HW219183   4.545  14.411  11.038
39137SOL     OW19184   8.563   6.879   0.378
39137SOL    HW119185   8.630   6.890   0.446
39137SOL    HW219186   8.603   6.820   0.315
39138SOL     OW19187   5.763   5.861  13.892
39138SOL    HW119188   5.719   5.781  13.920
39138SOL    HW219189   5.704   5.931  13.917
39139SOL     OW19190   5.633   7.709   9.421
39139SOL    HW119191   5.698   7.645   9.392
39139SOL    HW219192   5.579   7.724   9.344
39140SOL     OW19193   5.731   9.543   1.025
39140SOL    HW119194   5.755   9.615   1.084
39140SOL    HW219195   5.772   9.466   1.062
39141SOL     OW19196   4.302  10.732  10.363
39141SOL    HW119197   4.277  10.639  10.370
39141SOL    HW219198   4.288  10.767  10.451
39142SOL     OW19199   7.657  10.867   1.099
39142SOL    HW119200   7.695  10.855   1.186
39142SOL    HW219201   7.603  10.789   1.086
39143SOL     OW19202  14.282   2.823  14.114
39143SOL    HW119203  14.336   2.784  14.045
39143SOL    HW219204  14.323   2.907  14.133
39144SOL     OW19205   1.430   4.114  10.142
39144SOL    HW119206   1.510   4.165  10.156
39144SOL    HW219207   1.436   4.085  10.051
39145SOL     OW19208   9.288   0.287   3.961
39145SOL    HW119209   9.382   0.266   3.962
39145SOL    HW219210   9.250   0.222   3.901
39146SOL     OW19211   4.218   2.407   3.191
39146SOL    HW119212   4.149   2.402   3.258
39146SOL    HW219213   4.298   2.426   3.241
39147SOL     OW19214   5.987  10.954  11.832
39147SOL    HW119215   6.017  10.874  11.789
39147SOL    HW219216   5.973  11.015  11.760
39148SOL     OW19217   2.652  10.758   3.391
39148SOL    HW119218   2.688  10.677   3.354
39148SOL    HW219219   2.693  10.765   3.477
39149SOL     OW19220   0.920  14.316  10.120
39149SOL    HW119221   0.915  14.286  10.030
39149SOL    HW219222   1.009  14.352  10.129
39150SOL     OW19223   7.787  11.686   0.443
39150SOL    HW119224   7.762  11.759   0.498
39150SOL    HW219225   7.881  11.699   0.426
39151SOL     OW19226   2.060   9.165   5.319
39151SOL    HW119227   2.092   9.119   5.397
39151SOL    HW219228   2.107   9.124   5.246
39152SOL     OW19229   6.845  10.719   0.942
39152SOL    HW119230   6.782  10.709   1.014
39152SOL    HW219231   6.929  10.735   0.986
39153SOL     OW19232  10.996   1.457   2.380
39153SOL    HW119233  11.018   1.541   2.421
39153SOL    HW219234  10.949   1.482   2.300
39154SOL     OW19235  11.356  14.645  14.679
39154SOL    HW119236  11.424  14.689  14.628
39154SOL    HW219237  11.282  14.636  14.618
39155SOL     OW19238   2.971   3.188  14.180
39155SOL    HW119239   2.953   3.129  14.106
39155SOL    HW219240   3.026   3.137  14.239
39156SOL     OW19241  11.320   1.300   4.048
39156SOL    HW119242  11.365   1.324   4.129
39156SOL    HW219243  11.321   1.380   3.995
39157SOL     OW19244  13.463   5.942   5.287
39157SOL    HW119245  13.501   5.856   5.271
39157SOL    HW219246  13.534   5.993   5.325
39158SOL     OW19247  11.099   2.960   7.474
39158SOL    HW119248  11.143   2.993   7.396
39158SOL    HW219249  11.031   2.903   7.441
39159SOL     OW19250   1.952   4.215   2.673
39159SOL    HW119251   1.993   4.301   2.665
39159SOL    HW219252   2.025   4.153   2.679
39160SOL     OW19253   2.354  10.960  12.342
39160SOL    HW119254   2.331  11.047  12.376
39160SOL    HW219255   2.324  10.961  12.251
39161SOL     OW19256   4.658   8.951   5.391
39161SOL    HW119257   4.602   8.874   5.398
39161SOL    HW219258   4.736   8.920   5.344
39162SOL     OW19259  11.066   8.221  12.143
39162SOL    HW119260  11.084   8.137  12.185
39162SOL    HW219261  11.058   8.283  12.215
39163SOL     OW19262   0.563  14.063   9.729
39163SOL    HW119263   0.474  14.036   9.707
39163SOL    HW219264   0.585  14.129   9.663
39164SOL     OW19265   2.174   1.160  13.179
39164SOL    HW119266   2.243   1.211  13.221
39164SOL    HW219267   2.099   1.167  13.238
39165SOL     OW19268  10.599   1.708   3.333
39165SOL    HW119269  10.606   1.622   3.374
39165SOL    HW219270  10.672   1.759   3.369
39166SOL     OW19271   9.699  12.771   8.276
39166SOL    HW119272   9.633  12.811   8.219
39166SOL    HW219273   9.698  12.678   8.252
39167SOL     OW19274   6.207   3.506  13.408
39167SOL    HW119275   6.143   3.453  13.455
39167SOL    HW219276   6.274   3.444  13.379
39168SOL     OW19277  10.415  13.144   1.647
39168SOL    HW119278  10.357  13.142   1.723
39168SOL    HW219279  10.361  13.180   1.576
39169SOL     OW19280   7.555  10.367   9.431
39169SOL    HW119281   7.470  10.400   9.404
39169SOL    HW219282   7.591  10.326   9.352
39170SOL     OW19283  14.602   8.201   0.731
39170SOL    HW119284  14.674   8.138   0.730
39170SOL    HW219285  14.614   8.253   0.652
39171SOL     OW19286  14.096   6.021   8.024
39171SOL    HW119287  14.022   5.962   8.031
39171SOL    HW219288  14.069   6.100   8.071
39172SOL     OW19289   4.180  11.891   5.218
39172SOL    HW119290   4.189  11.800   5.188
39172SOL    HW219291   4.231  11.942   5.156
39173SOL     OW19292   1.545   6.785   1.613
39173SOL    HW119293   1.619   6.801   1.554
39173SOL    HW219294   1.470   6.774   1.555
39174SOL     OW19295   5.449  11.312  12.726
39174SOL    HW119296   5.425  11.382  12.664
39174SOL    HW219297   5.402  11.235  12.694
39175SOL     OW19298   2.519   5.196   0.323
39175SOL    HW119299   2.533   5.279   0.369
39175SOL    HW219300   2.562   5.209   0.238
39176SOL     OW19301   5.648  14.167   3.576
39176SOL    HW119302   5.696  14.086   3.558
39176SOL    HW219303   5.678  14.192   3.664
39177SOL     OW19304   2.766   4.063   7.031
39177SOL    HW119305   2.794   3.980   7.070
39177SOL    HW219306   2.835   4.087   6.970
39178SOL     OW19307  10.112   7.210   0.066
39178SOL    HW119308  10.190   7.266   0.070
39178SOL    HW219309  10.079   7.221  14.855
39179SOL     OW19310   9.723   1.975   6.854
39179SOL    HW119311   9.695   1.971   6.763
39179SOL    HW219312   9.753   1.886   6.874
39180SOL     OW19313  14.634   2.262   4.768
39180SOL    HW119314  14.669   2.345   4.801
39180SOL    HW219315  14.581   2.228   4.840
39181SOL     OW19316   8.665   9.462   8.855
39181SOL    HW119317   8.746   9.501   8.889
39181SOL    HW219318   8.626   9.532   8.801
39182SOL     OW19319  13.768   1.855   6.557
39182SOL    HW119320  13.674   1.869   6.549
39182SOL    HW219321  13.794   1.910   6.631
39183SOL     OW19322   9.137   5.359   1.259
39183SOL    HW119323   9.069   5.416   1.223
39183SOL    HW219324   9.201   5.349   1.189
39184SOL     OW19325   7.105   4.762   9.481
39184SOL    HW119326   7.201   4.765   9.480
39184SOL    HW219327   7.084   4.669   9.468
39185SOL     OW19328   5.151   0.290   7.176
39185SOL    HW119329   5.121   0.249   7.256
39185SOL    HW219330   5.156   0.219   7.112
39186SOL     OW19331   2.372   4.893   4.703
39186SOL    HW119332   2.397   4.815   4.753
39186SOL    HW219333   2.343   4.956   4.769
39187SOL     OW19334  13.823  10.453   9.852
39187SOL    HW119335  13.896  10.502   9.814
39187SOL    HW219336  13.863  10.396   9.917
39188SOL     OW19337  13.076   2.203   7.110
39188SOL    HW119338  13.003   2.251   7.149
39188SOL    HW219339  13.102   2.254   7.034
39189SOL     OW19340   8.417   1.703  14.400
39189SOL    HW119341   8.430   1.796  14.379
39189SOL    HW219342   8.485   1.685  14.466
39190SOL     OW19343   0.880   2.399   6.781
39190SOL    HW119344   0.950   2.463   6.797
39190SOL    HW219345   0.904   2.323   6.835
39191SOL     OW19346   0.141   2.199   4.335
39191SOL    HW119347   0.069   2.172   4.392
39191SOL    HW219348   0.105   2.196   4.247
39192SOL     OW19349   9.520   9.411   1.513
39192SOL    HW119350   9.582   9.345   1.482
39192SOL    HW219351   9.438   9.362   1.526
39193SOL     OW19352  11.666   5.201  12.712
39193SOL    HW119353  11.612   5.184  12.789
39193SOL    HW219354  11.713   5.119  12.698
39194SOL     OW19355  10.147   7.037   2.225
39194SOL    HW119356  10.127   6.956   2.271
39194SOL    HW219357  10.181   7.096   2.293
39195SOL     OW19358   6.587   7.715   1.729
39195SOL    HW119359   6.552   7.713   1.640
39195SOL    HW219360   6.676   7.681   1.720
39196SOL     OW19361   7.144  11.323   7.679
39196SOL    HW119362   7.237  11.307   7.663
39196SOL    HW219363   7.136  11.327   7.774
39197SOL     OW19364   5.969  10.781   8.441
39197SOL    HW119365   5.907  10.809   8.509
39197SOL    HW219366   5.930  10.702   8.403
39198SOL     OW19367   0.828   7.245  10.162
39198SOL    HW119368   0.830   7.339  10.146
39198SOL    HW219369   0.740   7.218  10.135
39199SOL     OW19370  14.262  14.411   8.619
39199SOL    HW119371  14.348  14.426   8.659
39199SOL    HW219372  14.276  14.429   8.526
39200SOL     OW19373   8.816  12.632  13.937
39200SOL    HW119374   8.842  12.567  14.003
39200SOL    HW219375   8.846  12.715  13.973
39201SOL     OW19376   2.954   7.003  12.933
39201SOL    HW119377   2.920   6.947  12.863
39201SOL    HW219378   2.876   7.032  12.981
39202SOL     OW19379   1.059  12.587  11.423
39202SOL    HW119380   1.047  12.524  11.494
39202SOL    HW219381   1.090  12.667  11.466
39203SOL     OW19382   6.624   7.512   6.183
39203SOL    HW119383   6.702   7.567   6.178
39203SOL    HW219384   6.553   7.574   6.204
39204SOL     OW19385   7.910  13.437   8.234
39204SOL    HW119386   7.930  13.505   8.169
39204SOL    HW219387   7.995  13.416   8.272
39205SOL     OW19388  10.020   9.843  12.264
39205SOL    HW119389   9.962   9.771  12.289
39205SOL    HW219390  10.035   9.830  12.170
39206SOL     OW19391  12.074   8.679  13.653
39206SOL    HW119392  12.084   8.774  13.660
39206SOL    HW219393  11.992   8.660  13.699
39207SOL     OW19394  14.504  11.481   2.083
39207SOL    HW119395  14.461  11.536   2.149
39207SOL    HW219396  14.582  11.531   2.058
39208SOL     OW19397  11.046   2.969   0.195
39208SOL    HW119398  11.073   3.041   0.253
39208SOL    HW219399  11.092   2.985   0.113
39209SOL     OW19400   1.197   2.264   9.746
39209SOL    HW119401   1.147   2.190   9.780
39209SOL    HW219402   1.245   2.228   9.671
39210SOL     OW19403   1.347  13.535  14.858
39210SOL    HW119404   1.327  13.607   0.039
39210SOL    HW219405   1.262  13.509  14.822
39211SOL     OW19406   4.790   9.238  11.752
39211SOL    HW119407   4.810   9.159  11.802
39211SOL    HW219408   4.825   9.310  11.805
39212SOL     OW19409  13.508  13.261   7.032
39212SOL    HW119410  13.527  13.199   7.102
39212SOL    HW219411  13.586  13.316   7.026
39213SOL     OW19412   2.880  12.273   8.505
39213SOL    HW119413   2.956  12.215   8.498
39213SOL    HW219414   2.818  12.241   8.439
39214SOL     OW19415   9.768   6.065   4.943
39214SOL    HW119416   9.694   6.122   4.961
39214SOL    HW219417   9.745   6.020   4.862
39215SOL     OW19418  12.952   9.230   1.063
39215SOL    HW119419  12.960   9.325   1.070
39215SOL    HW219420  13.042   9.198   1.073
39216SOL     OW19421   1.920  13.565  14.398
39216SOL    HW119422   1.876  13.526  14.323
39216SOL    HW219423   1.951  13.490  14.449
39217SOL     OW19424   1.023   9.335   4.952
39217SOL    HW119425   1.045   9.343   5.045
39217SOL    HW219426   1.000   9.243   4.941
39218SOL     OW19427   1.804   7.324   0.004
39218SOL    HW119428   1.854   7.245  14.861
39218SOL    HW219429   1.871   7.389   0.026
39219SOL     OW19430   9.323   4.918  12.163
39219SOL    HW119431   9.253   4.981  12.145
39219SOL    HW219432   9.287   4.860  12.230
39220SOL     OW19433   9.701   0.223  13.135
39220SOL    HW119434   9.791   0.189  13.140
39220SOL    HW219435   9.667   0.186  13.053
39221SOL     OW19436   1.627   6.789  14.847
39221SOL    HW119437   1.698   6.766  14.788
39221SOL    HW219438   1.634   6.884  14.859
39222SOL     OW19439   6.813   5.109  12.681
39222SOL    HW119440   6.804   5.142  12.771
39222SOL    HW219441   6.739   5.146  12.634
39223SOL     OW19442   7.803  12.664  13.983
39223SOL    HW119443   7.828  12.748  14.020
39223SOL    HW219444   7.724  12.639  14.032
39224SOL     OW19445   3.436   0.501   5.079
39224SOL    HW119446   3.486   0.576   5.109
39224SOL    HW219447   3.461   0.490   4.988
39225SOL     OW19448   7.444   2.487   5.661
39225SOL    HW119449   7.423   2.518   5.573
39225SOL    HW219450   7.390   2.409   5.673
39226SOL     OW19451   4.578  10.577   7.677
39226SOL    HW119452   4.563  10.486   7.704
39226SOL    HW219453   4.648  10.571   7.612
39227SOL     OW19454   4.135   0.234   3.352
39227SOL    HW119455   4.077   0.272   3.418
39227SOL    HW219456   4.093   0.255   3.269
39228SOL     OW19457   2.062   1.622   4.482
39228SOL    HW119458   2.156   1.616   4.470
39228SOL    HW219459   2.045   1.715   4.496
39229SOL     OW19460  13.298   9.330   9.286
39229SOL    HW119461  13.330   9.325   9.376
39229SOL    HW219462  13.376   9.345   9.233
39230SOL     OW19463   8.729   8.976   8.576
39230SOL    HW119464   8.745   9.068   8.595
39230SOL    HW219465   8.734   8.932   8.662
39231SOL     OW19466  10.873  11.410   8.733
39231SOL    HW119467  10.911  11.343   8.675
39231SOL    HW219468  10.789  11.372   8.761
39232SOL     OW19469   2.398   5.706   9.818
39232SOL    HW119470   2.442   5.694   9.733
39232SOL    HW219471   2.418   5.626   9.867
39233SOL     OW19472   1.995  10.745   4.509
39233SOL    HW119473   2.077  10.708   4.542
39233SOL    HW219474   1.927  10.709   4.566
39234SOL     OW19475   3.207   9.795  13.890
39234SOL    HW119476   3.220   9.761  13.801
39234SOL    HW219477   3.254   9.735  13.946
39235SOL     OW19478   6.934   8.991  14.453
39235SOL    HW119479   6.998   9.036  14.398
39235SOL    HW219480   6.884   9.062  14.494
39236SOL     OW19481   9.789  13.597  12.910
39236SOL    HW119482   9.790  13.503  12.928
39236SOL    HW219483   9.843  13.635  12.979
39237SOL     OW19484  14.871   1.706   2.013
39237SOL    HW119485  14.810   1.699   1.940
39237SOL    HW219486  14.875   1.618   2.050
39238SOL     OW19487   6.535   4.331   3.967
39238SOL    HW119488   6.516   4.288   4.050
39238SOL    HW219489   6.588   4.268   3.918
39239SOL     OW19490   2.900   3.484   6.459
39239SOL    HW119491   2.832   3.534   6.506
39239SOL    HW219492   2.970   3.472   6.524
39240SOL     OW19493   3.988   5.813  13.394
39240SOL    HW119494   4.019   5.904  13.393
39240SOL    HW219495   3.927   5.808  13.321
39241SOL     OW19496   4.675   0.917   7.553
39241SOL    HW119497   4.703   0.833   7.588
39241SOL    HW219498   4.586   0.902   7.522
39242SOL     OW19499   9.017  12.903  11.651
39242SOL    HW119500   8.954  12.871  11.716
39242SOL    HW219501   8.964  12.955  11.591
39243SOL     OW19502   6.187   2.438  13.573
39243SOL    HW119503   6.123   2.419  13.504
39243SOL    HW219504   6.272   2.438  13.527
39244SOL     OW19505   1.421   2.451  10.958
39244SOL    HW119506   1.455   2.479  10.873
39244SOL    HW219507   1.433   2.527  11.015
39245SOL     OW19508   9.962   2.929   6.605
39245SOL    HW119509   9.952   2.931   6.700
39245SOL    HW219510  10.020   2.854   6.589
39246SOL     OW19511  13.358   7.706   1.239
39246SOL    HW119512  13.432   7.738   1.290
39246SOL    HW219513  13.281   7.743   1.284
39247SOL     OW19514  11.467   7.174   6.928
39247SOL    HW119515  11.479   7.192   6.834
39247SOL    HW219516  11.375   7.197   6.944
39248SOL     OW19517  11.291   9.904   7.490
39248SOL    HW119518  11.298  10.000   7.482
39248SOL    HW219519  11.369   9.879   7.540
39249SOL     OW19520   9.365   6.193   0.645
39249SOL    HW119521   9.406   6.259   0.589
39249SOL    HW219522   9.415   6.194   0.726
39250SOL     OW19523   5.116  14.568   1.680
39250SOL    HW119524   5.141  14.477   1.690
39250SOL    HW219525   5.121  14.585   1.586
39251SOL     OW19526   0.483  10.697   3.264
39251SOL    HW119527   0.533  10.754   3.206
39251SOL    HW219528   0.529  10.704   3.348
39252SOL     OW19529   4.499   0.104   9.370
39252SOL    HW119530   4.524   0.023   9.416
39252SOL    HW219531   4.502   0.172   9.437
39253SOL     OW19532   6.497  12.677   9.692
39253SOL    HW119533   6.422  12.734   9.674
39253SOL    HW219534   6.573  12.735   9.688
39254SOL     OW19535   8.447  12.846   7.109
39254SOL    HW119536   8.459  12.932   7.069
39254SOL    HW219537   8.494  12.850   7.192
39255SOL     OW19538   0.825   2.400  10.704
39255SOL    HW119539   0.767   2.344  10.651
39255SOL    HW219540   0.829   2.356  10.789
39256SOL     OW19541   4.060   8.336  12.621
39256SOL    HW119542   4.139   8.302  12.580
39256SOL    HW219543   4.038   8.272  12.689
39257SOL     OW19544   7.262   8.998   7.975
39257SOL    HW119545   7.173   8.963   7.974
39257SOL    HW219546   7.256   9.080   7.926
39258SOL     OW19547   1.017  10.469   9.164
39258SOL    HW119548   0.962  10.399   9.128
39258SOL    HW219549   0.999  10.544   9.107
39259SOL     OW19550  10.784   7.213  12.526
39259SOL    HW119551  10.767   7.125  12.561
39259SOL    HW219552  10.820   7.262  12.600
39260SOL     OW19553  12.929   3.948   3.810
39260SOL    HW119554  12.996   3.884   3.836
39260SOL    HW219555  12.901   3.919   3.723
39261SOL     OW19556   1.524  11.457   0.798
39261SOL    HW119557   1.521  11.363   0.783
39261SOL    HW219558   1.436  11.487   0.776
39262SOL     OW19559  10.967   6.129  13.434
39262SOL    HW119560  10.907   6.159  13.502
39262SOL    HW219561  11.028   6.071  13.480
39263SOL     OW19562   6.560  11.771   3.652
39263SOL    HW119563   6.654  11.782   3.663
39263SOL    HW219564   6.529  11.856   3.622
39264SOL     OW19565   6.068   6.795   1.335
39264SOL    HW119566   6.154   6.760   1.312
39264SOL    HW219567   6.018   6.720   1.365
39265SOL     OW19568   5.806  12.019   3.473
39265SOL    HW119569   5.718  12.026   3.511
39265SOL    HW219570   5.860  11.985   3.544
39266SOL     OW19571   2.447   1.172   2.748
39266SOL    HW119572   2.509   1.132   2.809
39266SOL    HW219573   2.481   1.260   2.732
39267SOL     OW19574  12.132  10.874  14.435
39267SOL    HW119575  12.168  10.875  14.524
39267SOL    HW219576  12.196  10.826  14.383
39268SOL     OW19577   9.007   6.807  12.674
39268SOL    HW119578   8.916   6.781  12.664
39268SOL    HW219579   9.039   6.820  12.585
39269SOL     OW19580   1.565   0.479   2.368
39269SOL    HW119581   1.652   0.472   2.327
39269SOL    HW219582   1.506   0.441   2.303
39270SOL     OW19583   4.291   5.261  14.370
39270SOL    HW119584   4.218   5.202  14.392
39270SOL    HW219585   4.292   5.325  14.441
39271SOL     OW19586   6.946   8.488   5.003
39271SOL    HW119587   7.027   8.536   4.985
39271SOL    HW219588   6.880   8.530   4.949
39272SOL     OW19589   1.418   9.821  11.965
39272SOL    HW119590   1.333   9.861  11.983
39272SOL    HW219591   1.441   9.851  11.877
39273SOL     OW19592   8.699   3.690   1.134
39273SOL    HW119593   8.635   3.623   1.111
39273SOL    HW219594   8.655   3.773   1.113
39274SOL     OW19595   8.073  13.859   1.640
39274SOL    HW119596   8.151  13.883   1.690
39274SOL    HW219597   8.041  13.780   1.683
39275SOL     OW19598  11.473   0.303   3.911
39275SOL    HW119599  11.528   0.225   3.903
39275SOL    HW219600  11.449   0.305   4.004
39276SOL     OW19601   6.080  14.143  12.674
39276SOL    HW119602   6.070  14.102  12.588
39276SOL    HW219603   6.110  14.232  12.655
39277SOL     OW19604   0.446  14.706  13.690
39277SOL    HW119605   0.363  14.667  13.664
39277SOL    HW219606   0.488  14.640  13.745
39278SOL     OW19607   2.496   4.101   2.806
39278SOL    HW119608   2.532   4.013   2.796
39278SOL    HW219609   2.448   4.097   2.889
39279SOL     OW19610  14.126   6.562   4.760
39279SOL    HW119611  14.193   6.583   4.826
39279SOL    HW219612  14.052   6.529   4.812
39280SOL     OW19613   7.451   6.291  10.708
39280SOL    HW119614   7.437   6.372  10.659
39280SOL    HW219615   7.464   6.320  10.799
39281SOL     OW19616   4.123   2.583   7.086
39281SOL    HW119617   4.111   2.668   7.127
39281SOL    HW219618   4.107   2.599   6.993
39282SOL     OW19619   7.969   1.862   6.235
39282SOL    HW119620   8.015   1.791   6.281
39282SOL    HW219621   8.036   1.901   6.179
39283SOL     OW19622   6.502   2.322   6.741
39283SOL    HW119623   6.594   2.304   6.721
39283SOL    HW219624   6.504   2.407   6.786
39284SOL     OW19625   3.610   6.603   2.149
39284SOL    HW119626   3.653   6.592   2.065
39284SOL    HW219627   3.621   6.696   2.170
39285SOL     OW19628  12.376  10.147   0.399
39285SOL    HW119629  12.394  10.084   0.468
39285SOL    HW219630  12.461  10.186   0.379
39286SOL     OW19631  11.077   5.779   1.506
39286SOL    HW119632  11.172   5.764   1.501
39286SOL    HW219633  11.040   5.712   1.449
39287SOL     OW19634  11.005  13.316   2.086
39287SOL    HW119635  11.090  13.278   2.068
39287SOL    HW219636  11.002  13.396   2.032
39288SOL     OW19637  13.233   1.040   2.782
39288SOL    HW119638  13.322   1.012   2.804
39288SOL    HW219639  13.182   1.023   2.862
39289SOL     OW19640   6.290   9.450  14.517
39289SOL    HW119641   6.249   9.530  14.549
39289SOL    HW219642   6.353   9.426  14.585
39290SOL     OW19643   0.405   0.626  13.116
39290SOL    HW119644   0.468   0.675  13.063
39290SOL    HW219645   0.320   0.651  13.081
39291SOL     OW19646   4.197  10.767  10.606
39291SOL    HW119647   4.225  10.679  10.633
39291SOL    HW219648   4.132  10.792  10.672
39292SOL     OW19649   7.314  12.805   5.579
39292SOL    HW119650   7.256  12.771   5.648
39292SOL    HW219651   7.282  12.763   5.499
39293SOL     OW19652  14.093   4.392   6.729
39293SOL    HW119653  14.185   4.366   6.722
39293SOL    HW219654  14.052   4.358   6.649
39294SOL     OW19655   1.901   8.936   0.945
39294SOL    HW119656   1.938   8.853   0.976
39294SOL    HW219657   1.927   9.000   1.012
39295SOL     OW19658   7.909  14.030   2.369
39295SOL    HW119659   7.986  14.086   2.363
39295SOL    HW219660   7.879  14.040   2.459
39296SOL     OW19661  12.702   3.378   8.266
39296SOL    HW119662  12.746   3.398   8.349
39296SOL    HW219663  12.738   3.440   8.204
39297SOL     OW19664   0.455   3.898  12.808
39297SOL    HW119665   0.426   3.821  12.857
39297SOL    HW219666   0.428   3.973  12.862
39298SOL     OW19667   5.630   7.219   1.251
39298SOL    HW119668   5.686   7.296   1.251
39298SOL    HW219669   5.634   7.185   1.341
39299SOL     OW19670   5.939   7.721   5.299
39299SOL    HW119671   6.025   7.683   5.280
39299SOL    HW219672   5.879   7.676   5.239
39300SOL     OW19673   2.828   6.665   9.510
39300SOL    HW119674   2.860   6.673   9.600
39300SOL    HW219675   2.906   6.683   9.456
39301SOL     OW19676   7.919   1.841  13.710
39301SOL    HW119677   8.005   1.842  13.668
39301SOL    HW219678   7.937   1.861  13.802
39302SOL     OW19679   4.394   6.897   5.919
39302SOL    HW119680   4.388   6.972   5.861
39302SOL    HW219681   4.303   6.874   5.937
39303SOL     OW19682  12.797  14.500   5.097
39303SOL    HW119683  12.789  14.517   5.003
39303SOL    HW219684  12.891  14.485   5.110
39304SOL     OW19685  10.102  10.701   2.569
39304SOL    HW119686  10.035  10.678   2.504
39304SOL    HW219687  10.131  10.789   2.544
39305SOL     OW19688   3.212   7.176  10.272
39305SOL    HW119689   3.174   7.234  10.206
39305SOL    HW219690   3.138   7.127  10.307
39306SOL     OW19691   6.017   8.165  10.762
39306SOL    HW119692   6.021   8.190  10.670
39306SOL    HW219693   5.924   8.174  10.785
39307SOL     OW19694   7.490   8.953   8.276
39307SOL    HW119695   7.521   8.945   8.186
39307SOL    HW219696   7.409   9.003   8.269
39308SOL     OW19697   1.309   4.106   7.713
39308SOL    HW119698   1.358   4.076   7.788
39308SOL    HW219699   1.358   4.075   7.637
39309SOL     OW19700  12.964   5.627   0.907
39309SOL    HW119701  12.889   5.581   0.869
39309SOL    HW219702  13.018   5.557   0.944
39310SOL     OW19703   0.331  10.980   7.257
39310SOL    HW119704   0.405  10.939   7.302
39310SOL    HW219705   0.367  11.007   7.173
39311SOL     OW19706   3.007   3.521   0.209
39311SOL    HW119707   2.935   3.573   0.173
39311SOL    HW219708   3.035   3.464   0.137
39312SOL     OW19709  13.985   3.819   7.887
39312SOL    HW119710  13.943   3.827   7.801
39312SOL    HW219711  14.077   3.801   7.867
39313SOL     OW19712   9.614   4.031   7.144
39313SOL    HW119713   9.673   3.962   7.112
39313SOL    HW219714   9.527   4.003   7.115
39314SOL     OW19715   9.744  10.721  11.654
39314SOL    HW119716   9.828  10.689  11.688
39314SOL    HW219717   9.756  10.723  11.559
39315SOL     OW19718   6.571   7.055   1.443
39315SOL    HW119719   6.621   7.020   1.517
39315SOL    HW219720   6.508   7.114   1.483
39316SOL     OW19721  13.378   6.190   3.487
39316SOL    HW119722  13.398   6.134   3.561
39316SOL    HW219723  13.304   6.244   3.517
39317SOL     OW19724  11.429   1.365   0.531
39317SOL    HW119725  11.476   1.431   0.582
39317SOL    HW219726  11.378   1.316   0.596
39318SOL     OW19727   1.161  12.348   5.495
39318SOL    HW119728   1.207  12.370   5.576
39318SOL    HW219729   1.223  12.372   5.426
39319SOL     OW19730   2.803   9.189  14.008
39319SOL    HW119731   2.708   9.177  14.003
39319SOL    HW219732   2.819   9.272  13.963
39320SOL     OW19733   2.644  13.999  14.308
39320SOL    HW119734   2.576  13.937  14.336
39320SOL    HW219735   2.629  14.077  14.361
39321SOL     OW19736   6.868   3.431   8.644
39321SOL    HW119737   6.875   3.340   8.615
39321SOL    HW219738   6.958   3.456   8.668
39322SOL     OW19739  12.963   1.042   9.934
39322SOL    HW119740  12.888   1.008   9.886
39322SOL    HW219741  13.034   0.980   9.917
39323SOL     OW19742   1.775  14.193   3.971
39323SOL    HW119743   1.692  14.231   4.000
39323SOL    HW219744   1.771  14.196   3.876
39324SOL     OW19745  14.450   2.022  11.174
39324SOL    HW119746  14.447   2.115  11.198
39324SOL    HW219747  14.462   2.023  11.079
39325SOL     OW19748  13.235   4.721   5.485
39325SOL    HW119749  13.141   4.726   5.498
39325SOL    HW219750  13.272   4.752   5.567
39326SOL     OW19751   7.282   0.787  12.806
39326SOL    HW119752   7.352   0.722  12.793
39326SOL    HW219753   7.304   0.858  12.746
39327SOL     OW19754   6.339  10.938   9.303
39327SOL    HW119755   6.261  10.986   9.272
39327SOL    HW219756   6.346  10.864   9.243
39328SOL     OW19757   0.610  10.327  10.916
39328SOL    HW119758   0.525  10.303  10.952
39328SOL    HW219759   0.617  10.421  10.932
39329SOL     OW19760   4.992  14.669   9.526
39329SOL    HW119761   4.947  14.699   9.448
39329SOL    HW219762   4.942  14.593   9.556
39330SOL     OW19763  11.555   4.869   9.254
39330SOL    HW119764  11.553   4.878   9.159
39330SOL    HW219765  11.529   4.779   9.271
39331SOL     OW19766  13.348   1.331   2.789
39331SOL    HW119767  13.304   1.252   2.757
39331SOL    HW219768  13.437   1.325   2.753
39332SOL     OW19769   8.909  10.816   1.552
39332SOL    HW119770   8.905  10.721   1.556
39332SOL    HW219771   8.880  10.837   1.463
39333SOL     OW19772   0.171   9.664   1.422
39333SOL    HW119773   0.172   9.744   1.475
39333SOL    HW219774   0.084   9.627   1.438
39334SOL     OW19775  12.593   5.547   5.779
39334SOL    HW119776  12.662   5.500   5.827
39334SOL    HW219777  12.515   5.535   5.832
39335SOL     OW19778   0.128   4.644   7.858
39335SOL    HW119779   0.035   4.624   7.874
39335SOL    HW219780   0.133   4.662   7.764
39336SOL     OW19781   4.299   6.015  11.826
39336SOL    HW119782   4.373   6.040  11.771
39336SOL    HW219783   4.244   5.960  11.769
39337SOL     OW19784   2.328  12.633  10.796
39337SOL    HW119785   2.250  12.627  10.851
39337SOL    HW219786   2.399  12.600  10.851
39338SOL     OW19787  14.759  11.018  10.028
39338SOL    HW119788  14.779  11.103  10.067
39338SOL    HW219789  14.776  10.955  10.097
39339SOL     OW19790   2.571  11.983  11.393
39339SOL    HW119791   2.507  11.936  11.447
39339SOL    HW219792   2.524  12.060  11.362
39340SOL     OW19793   4.961  12.032   1.189
39340SOL    HW119794   4.886  12.008   1.244
39340SOL    HW219795   5.037  12.004   1.240
39341SOL     OW19796  13.037   5.284   0.331
39341SOL    HW119797  12.950   5.306   0.297
39341SOL    HW219798  13.024   5.276   0.426
39342SOL     OW19799  10.743   7.963   3.272
39342SOL    HW119800  10.802   7.952   3.346
39342SOL    HW219801  10.670   8.014   3.307
39343SOL     OW19802   4.032  10.652   4.676
39343SOL    HW119803   4.083  10.629   4.754
39343SOL    HW219804   3.967  10.715   4.709
39344SOL     OW19805   7.328   5.333   3.497
39344SOL    HW119806   7.330   5.256   3.555
39344SOL    HW219807   7.408   5.380   3.518
39345SOL     OW19808  12.241   5.452  14.154
39345SOL    HW119809  12.186   5.392  14.104
39345SOL    HW219810  12.221   5.431  14.245
39346SOL     OW19811  13.293   0.841   1.457
39346SOL    HW119812  13.248   0.920   1.487
39346SOL    HW219813  13.321   0.862   1.368
39347SOL     OW19814   7.060   5.257   6.820
39347SOL    HW119815   7.148   5.291   6.837
39347SOL    HW219816   7.006   5.296   6.889
39348SOL     OW19817   3.632  10.649   0.024
39348SOL    HW119818   3.616  10.717   0.089
39348SOL    HW219819   3.713  10.676  14.858
39349SOL     OW19820   1.321   1.699   9.640
39349SOL    HW119821   1.256   1.757   9.678
39349SOL    HW219822   1.333   1.731   9.550
39350SOL     OW19823   5.700   5.525   4.896
39350SOL    HW119824   5.658   5.460   4.839
39350SOL    HW219825   5.687   5.492   4.985
39351SOL     OW19826   0.613   7.514   2.382
39351SOL    HW119827   0.601   7.605   2.410
39351SOL    HW219828   0.580   7.462   2.455
39352SOL     OW19829  10.426   3.596   6.736
39352SOL    HW119830  10.508   3.642   6.754
39352SOL    HW219831  10.371   3.660   6.691
39353SOL     OW19832   3.026  13.408  14.730
39353SOL    HW119833   3.027  13.480  14.667
39353SOL    HW219834   3.045  13.450  14.814
39354SOL     OW19835  14.764  10.234   0.307
39354SOL    HW119836  14.703  10.307   0.319
39354SOL    HW219837  14.777  10.199   0.395
39355SOL     OW19838   5.430  10.087   3.868
39355SOL    HW119839   5.339  10.068   3.892
39355SOL    HW219840   5.434  10.068   3.774
39356SOL     OW19841   5.138  10.980   6.275
39356SOL    HW119842   5.099  10.946   6.195
39356SOL    HW219843   5.116  11.074   6.273
39357SOL     OW19844   3.455  13.420   6.031
39357SOL    HW119845   3.360  13.424   6.044
39357SOL    HW219846   3.492  13.454   6.112
39358SOL     OW19847   6.196   1.542   2.918
39358SOL    HW119848   6.125   1.542   2.983
39358SOL    HW219849   6.151   1.536   2.834
39359SOL     OW19850   7.385  12.564   7.128
39359SOL    HW119851   7.471  12.539   7.094
39359SOL    HW219852   7.352  12.484   7.169
39360SOL     OW19853   8.294   5.932  14.186
39360SOL    HW119854   8.375   5.961  14.143
39360SOL    HW219855   8.260   5.864  14.128
39361SOL     OW19856  10.174   6.250   1.561
39361SOL    HW119857  10.219   6.281   1.483
39361SOL    HW219858  10.244   6.217   1.617
39362SOL     OW19859  13.751  11.458  10.126
39362SOL    HW119860  13.715  11.500  10.048
39362SOL    HW219861  13.713  11.370  10.126
39363SOL     OW19862   0.537   6.200  14.403
39363SOL    HW119863   0.442   6.197  14.391
39363SOL    HW219864   0.549   6.222  14.495
39364SOL     OW19865   3.396   2.296  11.068
39364SOL    HW119866   3.301   2.294  11.068
39364SOL    HW219867   3.418   2.387  11.087
39365SOL     OW19868   1.867   4.916   6.769
39365SOL    HW119869   1.784   4.871   6.787
39365SOL    HW219870   1.855   4.955   6.683
39366SOL     OW19871   5.183   7.535  11.544
39366SOL    HW119872   5.224   7.580  11.470
39366SOL    HW219873   5.223   7.576  11.621
39367SOL     OW19874   6.008   9.150   2.796
39367SOL    HW119875   6.071   9.164   2.725
39367SOL    HW219876   5.961   9.232   2.804
39368SOL     OW19877   8.996  13.441  14.442
39368SOL    HW119878   8.935  13.369  14.456
39368SOL    HW219879   8.954  13.516  14.484
39369SOL     OW19880   1.703  12.752  14.583
39369SOL    HW119881   1.708  12.847  14.571
39369SOL    HW219882   1.794  12.723  14.583
39370SOL     OW19883   7.879  11.810  11.061
39370SOL    HW119884   7.938  11.803  10.986
39370SOL    HW219885   7.887  11.901  11.090
39371SOL     OW19886  14.129   5.413   5.410
39371SOL    HW119887  14.065   5.374   5.469
39371SOL    HW219888  14.191   5.343   5.391
39372SOL     OW19889  11.598  11.790   0.228
39372SOL    HW119890  11.560  11.866   0.272
39372SOL    HW219891  11.524  11.748   0.185
39373SOL     OW19892   4.373   5.940   4.701
39373SOL    HW119893   4.390   5.976   4.788
39373SOL    HW219894   4.430   5.863   4.695
39374SOL     OW19895   3.736   7.139   4.549
39374SOL    HW119896   3.793   7.085   4.494
39374SOL    HW219897   3.649   7.098   4.541
39375SOL     OW19898   6.375   2.351   0.826
39375SOL    HW119899   6.395   2.405   0.902
39375SOL    HW219900   6.460   2.320   0.796
39376SOL     OW19901   6.507  14.335  13.703
39376SOL    HW119902   6.414  14.339  13.678
39376SOL    HW219903   6.554  14.359  13.623
39377SOL     OW19904   7.532   0.827  10.989
39377SOL    HW119905   7.511   0.755  10.929
39377SOL    HW219906   7.535   0.904  10.933
39378SOL     OW19907   9.985   8.194   1.055
39378SOL    HW119908  10.080   8.203   1.052
39378SOL    HW219909   9.952   8.283   1.043
39379SOL     OW19910   2.595   8.469   2.260
39379SOL    HW119911   2.548   8.527   2.320
39379SOL    HW219912   2.584   8.382   2.297
39380SOL     OW19913   3.052   2.244  13.411
39380SOL    HW119914   2.981   2.221  13.471
39380SOL    HW219915   3.081   2.159  13.376
39381SOL     OW19916   5.737   4.975  14.360
39381SOL    HW119917   5.690   4.901  14.321
39381SOL    HW219918   5.783   4.937  14.434
39382SOL     OW19919   8.625   6.573   9.020
39382SOL    HW119920   8.676   6.555   9.098
39382SOL    HW219921   8.684   6.553   8.947
39383SOL     OW19922   5.285  12.791   3.285
39383SOL    HW119923   5.191  12.805   3.271
39383SOL    HW219924   5.308  12.722   3.223
39384SOL     OW19925   6.932   4.030   3.492
39384SOL    HW119926   7.004   4.089   3.516
39384SOL    HW219927   6.860   4.089   3.468
39385SOL     OW19928   6.785   9.094   9.206
39385SOL    HW119929   6.777   9.084   9.300
39385SOL    HW219930   6.738   9.176   9.186
39386SOL     OW19931   5.141   9.668   2.509
39386SOL    HW119932   5.177   9.750   2.542
39386SOL    HW219933   5.105   9.691   2.423
39387SOL     OW19934   1.981  14.283  11.939
39387SOL    HW119935   1.987  14.375  11.967
39387SOL    HW219936   1.978  14.233  12.021
39388SOL     OW19937  14.184   2.555   3.218
39388SOL    HW119938  14.236   2.614   3.164
39388SOL    HW219939  14.196   2.586   3.307
39389SOL     OW19940   8.204   4.479   4.785
39389SOL    HW119941   8.183   4.530   4.863
39389SOL    HW219942   8.229   4.393   4.818
39390SOL     OW19943   3.016   1.139  10.183
39390SOL    HW119944   3.035   1.182  10.266
39390SOL    HW219945   2.975   1.207  10.129
39391SOL     OW19946   0.476   9.675  12.423
39391SOL    HW119947   0.533   9.623  12.480
39391SOL    HW219948   0.471   9.625  12.341
39392SOL     OW19949  10.911   1.119  13.537
39392SOL    HW119950  10.902   1.092  13.445
39392SOL    HW219951  10.939   1.210  13.532
39393SOL     OW19952   3.344   4.966   6.486
39393SOL    HW119953   3.262   4.941   6.442
39393SOL    HW219954   3.391   5.016   6.420
39394SOL     OW19955   3.128   2.620  12.740
39394SOL    HW119956   3.076   2.549  12.779
39394SOL    HW219957   3.150   2.589  12.653
39395SOL     OW19958   2.089   9.744  14.684
39395SOL    HW119959   2.048   9.794  14.613
39395SOL    HW219960   2.097   9.655  14.650
39396SOL     OW19961   3.198   6.193   9.324
39396SOL    HW119962   3.148   6.202   9.243
39396SOL    HW219963   3.141   6.142   9.382
39397SOL     OW19964   4.180  10.024   2.257
39397SOL    HW119965   4.089   9.995   2.253
39397SOL    HW219966   4.174  10.119   2.264
39398SOL     OW19967  10.067  11.866   1.633
39398SOL    HW119968  10.042  11.784   1.677
39398SOL    HW219969  10.133  11.905   1.691
39399SOL     OW19970   0.924   4.851   4.429
39399SOL    HW119971   0.856   4.791   4.459
39399SOL    HW219972   0.968   4.805   4.358
39400SOL     OW19973   6.532   5.664  14.596
39400SOL    HW119974   6.600   5.722  14.560
39400SOL    HW219975   6.476   5.722  14.647
39401SOL     OW19976   5.542   5.550   5.131
39401SOL    HW119977   5.545   5.593   5.216
39401SOL    HW219978   5.462   5.583   5.090
39402SOL     OW19979   2.416   5.960   9.932
39402SOL    HW119980   2.404   5.879   9.883
39402SOL    HW219981   2.465   5.934  10.010
39403SOL     OW19982   1.959   1.241   0.268
39403SOL    HW119983   2.007   1.323   0.275
39403SOL    HW219984   1.914   1.246   0.184
39404SOL     OW19985   4.098  12.818   8.155
39404SOL    HW119986   4.072  12.898   8.201
39404SOL    HW219987   4.050  12.820   8.073
39405SOL     OW19988   6.355  11.925  11.411
39405SOL    HW119989   6.260  11.920  11.425
39405SOL    HW219990   6.369  12.011  11.372
39406SOL     OW19991   0.612   7.043   7.810
39406SOL    HW119992   0.698   7.016   7.776
39406SOL    HW219993   0.592   7.124   7.763
39407SOL     OW19994  14.577   9.431   2.886
39407SOL    HW119995  14.549   9.506   2.940
39407SOL    HW219996  14.648   9.466   2.833
39408SOL     OW19997  14.211   9.277  14.592
39408SOL    HW119998  14.130   9.235  14.563
39408SOL    HW219999  14.241   9.327  14.516
39409SOL     OW20000  12.744   3.955   2.881
39409SOL    HW120001  12.750   3.945   2.786
39409SOL    HW220002  12.654   3.930   2.902
39410SOL     OW20003   2.908   0.695  11.622
39410SOL    HW120004   2.892   0.686  11.528
39410SOL    HW220005   2.895   0.788  11.640
39411SOL     OW20006  13.193  12.138   8.025
39411SOL    HW120007  13.244  12.118   7.947
39411SOL    HW220008  13.257  12.142   8.096
39412SOL     OW20009   0.233  13.407   8.723
39412SOL    HW120010   0.294  13.458   8.670
39412SOL    HW220011   0.193  13.346   8.662
39413SOL     OW20012  14.412   0.141  13.631
39413SOL    HW120013  14.342   0.169  13.572
39413SOL    HW220014  14.366   0.095  13.702
39414SOL     OW20015  14.654   3.513   7.497
39414SOL    HW120016  14.564   3.490   7.520
39414SOL    HW220017  14.707   3.475   7.566
39415SOL     OW20018   8.262   5.531  11.245
39415SOL    HW120019   8.222   5.574  11.320
39415SOL    HW220020   8.243   5.589  11.171
39416SOL     OW20021   6.027   9.188  13.592
39416SOL    HW120022   5.951   9.143  13.627
39416SOL    HW220023   6.102   9.141  13.630
39417SOL     OW20024   3.694  13.503   3.199
39417SOL    HW120025   3.698  13.481   3.292
39417SOL    HW220026   3.628  13.571   3.194
39418SOL     OW20027   9.209  11.293   7.421
39418SOL    HW120028   9.145  11.324   7.357
39418SOL    HW220029   9.208  11.198   7.412
39419SOL     OW20030   6.145   7.317  10.633
39419SOL    HW120031   6.190   7.265  10.700
39419SOL    HW220032   6.079   7.258  10.597
39420SOL     OW20033   8.336   2.635   9.975
39420SOL    HW120034   8.258   2.583   9.998
39420SOL    HW220035   8.301   2.719   9.945
39421SOL     OW20036   9.396  11.494   7.454
39421SOL    HW120037   9.481  11.489   7.409
39421SOL    HW220038   9.352  11.412   7.432
39422SOL     OW20039   2.155   0.197  13.152
39422SOL    HW120040   2.179   0.286  13.178
39422SOL    HW220041   2.230   0.144  13.176
39423SOL     OW20042  12.134   3.695   4.509
39423SOL    HW120043  12.074   3.769   4.500
39423SOL    HW220044  12.220   3.732   4.489
39424SOL     OW20045   5.352  14.287   7.255
39424SOL    HW120046   5.404  14.297   7.175
39424SOL    HW220047   5.275  14.238   7.227
39425SOL     OW20048   8.543  14.564   2.004
39425SOL    HW120049   8.619  14.553   2.061
39425SOL    HW220050   8.512  14.653   2.021
39426SOL     OW20051  13.156   1.808   6.250
39426SOL    HW120052  13.244   1.833   6.279
39426SOL    HW220053  13.098   1.850   6.313
39427SOL     OW20054  12.089   1.602   6.975
39427SOL    HW120055  12.145   1.638   6.906
39427SOL    HW220056  12.027   1.672   6.995
39428SOL     OW20057   7.442  13.802   5.184
39428SOL    HW120058   7.536  13.813   5.200
39428SOL    HW220059   7.400  13.862   5.245
39429SOL     OW20060   5.321   4.523   7.438
39429SOL    HW120061   5.308   4.484   7.525
39429SOL    HW220062   5.311   4.450   7.377
39430SOL     OW20063   4.536  12.587   1.204
39430SOL    HW120064   4.577  12.503   1.225
39430SOL    HW220065   4.443  12.568   1.201
39431SOL     OW20066   4.269  13.286   0.695
39431SOL    HW120067   4.325  13.229   0.642
39431SOL    HW220068   4.262  13.367   0.644
39432SOL     OW20069   3.447  13.530  11.781
39432SOL    HW120070   3.408  13.467  11.720
39432SOL    HW220071   3.520  13.567  11.732
39433SOL     OW20072   0.574   9.810   8.131
39433SOL    HW120073   0.568   9.734   8.073
39433SOL    HW220074   0.618   9.877   8.078
39434SOL     OW20075  13.617   0.690   7.249
39434SOL    HW120076  13.679   0.617   7.253
39434SOL    HW220077  13.642   0.738   7.169
39435SOL     OW20078   3.242   0.054   4.612
39435SOL    HW120079   3.233  14.837   4.601
39435SOL    HW220080   3.256   0.087   4.524
39436SOL     OW20081  11.986  10.675   4.844
39436SOL    HW120082  12.042  10.597   4.847
39436SOL    HW220083  11.968  10.694   4.936
39437SOL     OW20084   1.126  11.347   2.854
39437SOL    HW120085   1.195  11.290   2.886
39437SOL    HW220086   1.082  11.379   2.933
39438SOL     OW20087  13.692  11.008   8.914
39438SOL    HW120088  13.742  10.990   8.993
39438SOL    HW220089  13.661  10.922   8.885
39439SOL     OW20090   9.707   6.193   3.670
39439SOL    HW120091   9.717   6.225   3.580
39439SOL    HW220092   9.772   6.124   3.679
39440SOL     OW20093  11.080  10.185  10.523
39440SOL    HW120094  11.000  10.231  10.497
39440SOL    HW220095  11.088  10.201  10.617
39441SOL     OW20096   4.891   7.126   6.995
39441SOL    HW120097   4.968   7.099   6.945
39441SOL    HW220098   4.925   7.148   7.082
39442SOL     OW20099   6.164   5.351   6.439
39442SOL    HW120100   6.221   5.428   6.444
39442SOL    HW220101   6.206   5.287   6.496
39443SOL     OW20102  14.665   6.738   0.407
39443SOL    HW120103  14.622   6.664   0.364
39443SOL    HW220104  14.663   6.808   0.342
39444SOL     OW20105   1.664   3.068   9.988
39444SOL    HW120106   1.724   3.049  10.061
39444SOL    HW220107   1.594   3.003   9.998
39445SOL     OW20108   6.359  13.622  12.802
39445SOL    HW120109   6.441  13.574  12.812
39445SOL    HW220110   6.291  13.560  12.828
39446SOL     OW20111   3.029   2.269   9.049
39446SOL    HW120112   3.094   2.337   9.063
39446SOL    HW220113   3.080   2.193   9.020
39447SOL     OW20114   8.372   9.283   9.005
39447SOL    HW120115   8.313   9.250   8.937
39447SOL    HW220116   8.459   9.260   8.974
39448SOL     OW20117  10.149  12.496  14.710
39448SOL    HW120118  10.061  12.462  14.722
39448SOL    HW220119  10.162  12.500  14.615
39449SOL     OW20120  10.111   8.512   3.161
39449SOL    HW120121  10.091   8.553   3.245
39449SOL    HW220122  10.060   8.562   3.098
39450SOL     OW20123   2.140   5.834   0.996
39450SOL    HW120124   2.196   5.766   1.032
39450SOL    HW220125   2.052   5.812   1.027
39451SOL     OW20126   0.646  14.165   3.469
39451SOL    HW120127   0.717  14.186   3.530
39451SOL    HW220128   0.591  14.103   3.518
39452SOL     OW20129   5.818   3.535   0.124
39452SOL    HW120130   5.843   3.619   0.087
39452SOL    HW220131   5.844   3.471   0.058
39453SOL     OW20132  10.245   3.881   7.293
39453SOL    HW120133  10.159   3.852   7.263
39453SOL    HW220134  10.298   3.885   7.214
39454SOL     OW20135   8.027  12.112   2.391
39454SOL    HW120136   8.085  12.083   2.461
39454SOL    HW220137   8.061  12.070   2.313
39455SOL     OW20138   3.903   2.760   4.485
39455SOL    HW120139   3.892   2.850   4.514
39455SOL    HW220140   3.887   2.763   4.391
39456SOL     OW20141  11.614  14.233  12.909
39456SOL    HW120142  11.560  14.169  12.864
39456SOL    HW220143  11.616  14.204  13.000
39457SOL     OW20144   2.137   7.667   8.473
39457SOL    HW120145   2.147   7.680   8.567
39457SOL    HW220146   2.208   7.718   8.434
39458SOL     OW20147   1.652   7.442   0.636
39458SOL    HW120148   1.727   7.443   0.576
39458SOL    HW220149   1.683   7.489   0.714
39459SOL     OW20150  12.901  11.822   5.966
39459SOL    HW120151  12.954  11.746   5.990
39459SOL    HW220152  12.830  11.785   5.913
39460SOL     OW20153   0.460   1.933   7.586
39460SOL    HW120154   0.526   1.930   7.655
39460SOL    HW220155   0.381   1.899   7.626
39461SOL     OW20156   9.191  11.065   5.013
39461SOL    HW120157   9.134  11.140   5.026
39461SOL    HW220158   9.171  11.035   4.924
39462SOL     OW20159  10.620   9.264   5.713
39462SOL    HW120160  10.683   9.331   5.737
39462SOL    HW220161  10.536   9.296   5.749
39463SOL     OW20162   3.635  13.586   9.556
39463SOL    HW120163   3.582  13.527   9.610
39463SOL    HW220164   3.713  13.534   9.534
39464SOL     OW20165   3.871   0.061   0.064
39464SOL    HW120166   3.962   0.041   0.087
39464SOL    HW220167   3.825  14.856   0.075
39465SOL     OW20168  10.514   6.360  11.959
39465SOL    HW120169  10.550   6.324  11.878
39465SOL    HW220170  10.472   6.442  11.933
39466SOL     OW20171   1.123   7.595  10.146
39466SOL    HW120172   1.032   7.569  10.164
39466SOL    HW220173   1.132   7.680  10.189
39467SOL     OW20174   5.866  10.485   1.541
39467SOL    HW120175   5.816  10.516   1.616
39467SOL    HW220176   5.835  10.396   1.526
39468SOL     OW20177  12.365   2.164   6.166
39468SOL    HW120178  12.386   2.071   6.175
39468SOL    HW220179  12.399   2.204   6.247
39469SOL     OW20180  11.684   7.421   0.792
39469SOL    HW120181  11.610   7.379   0.749
39469SOL    HW220182  11.697   7.503   0.744
39470SOL     OW20183   5.827   7.893   7.123
39470SOL    HW120184   5.747   7.849   7.094
39470SOL    HW220185   5.840   7.963   7.059
39471SOL     OW20186  10.725   0.942  14.233
39471SOL    HW120187  10.801   0.989  14.268
39471SOL    HW220188  10.653   1.005  14.239
39472SOL     OW20189   4.353  12.412   5.979
39472SOL    HW120190   4.402  12.360   5.915
39472SOL    HW220191   4.320  12.349   6.042
39473SOL     OW20192  13.099  11.837   8.497
39473SOL    HW120193  13.178  11.836   8.443
39473SOL    HW220194  13.123  11.891   8.573
39474SOL     OW20195  11.002   9.355  11.230
39474SOL    HW120196  10.967   9.344  11.319
39474SOL    HW220197  10.961   9.285  11.180
39475SOL     OW20198  13.126  12.780  14.531
39475SOL    HW120199  13.034  12.759  14.520
39475SOL    HW220200  13.136  12.868  14.495
39476SOL     OW20201   5.121   6.503   5.556
39476SOL    HW120202   5.141   6.531   5.646
39476SOL    HW220203   5.199   6.456   5.528
39477SOL     OW20204  13.892  10.736  14.576
39477SOL    HW120205  13.962  10.691  14.624
39477SOL    HW220206  13.936  10.780  14.504
39478SOL     OW20207   0.578   7.671  14.353
39478SOL    HW120208   0.573   7.600  14.417
39478SOL    HW220209   0.670   7.672  14.325
39479SOL     OW20210   5.803  11.733   0.887
39479SOL    HW120211   5.808  11.665   0.820
39479SOL    HW220212   5.754  11.804   0.846
39480SOL     OW20213   7.412   8.975   1.790
39480SOL    HW120214   7.477   8.971   1.861
39480SOL    HW220215   7.365   8.892   1.797
39481SOL     OW20216  11.747  10.693  10.829
39481SOL    HW120217  11.715  10.643  10.753
39481SOL    HW220218  11.673  10.746  10.855
39482SOL     OW20219   8.423   4.264   1.182
39482SOL    HW120220   8.400   4.171   1.185
39482SOL    HW220221   8.507   4.269   1.227
39483SOL     OW20222   7.051   9.252   4.201
39483SOL    HW120223   7.128   9.241   4.257
39483SOL    HW220224   6.976   9.238   4.260
39484SOL     OW20225  10.598  14.769   4.428
39484SOL    HW120226  10.621  14.855   4.462
39484SOL    HW220227  10.517  14.783   4.379
39485SOL     OW20228   8.404   3.822  12.804
39485SOL    HW120229   8.485   3.814  12.854
39485SOL    HW220230   8.431   3.864  12.722
39486SOL     OW20231   3.519   3.828  14.373
39486SOL    HW120232   3.436   3.832  14.325
39486SOL    HW220233   3.540   3.920  14.391
39487SOL     OW20234   2.314   9.677   8.497
39487SOL    HW120235   2.383   9.637   8.443
39487SOL    HW220236   2.360   9.742   8.550
39488SOL     OW20237  10.702  12.236   9.897
39488SOL    HW120238  10.795  12.229   9.916
39488SOL    HW220239  10.670  12.146   9.903
39489SOL     OW20240  13.548   8.095  11.218
39489SOL    HW120241  13.474   8.155  11.207
39489SOL    HW220242  13.567   8.064  11.129
39490SOL     OW20243   7.364  10.328   4.232
39490SOL    HW120244   7.418  10.396   4.272
39490SOL    HW220245   7.401  10.245   4.264
39491SOL     OW20246   4.705   3.411   6.696
39491SOL    HW120247   4.634   3.348   6.703
39491SOL    HW220248   4.670   3.481   6.640
39492SOL     OW20249  11.059  11.719   1.493
39492SOL    HW120250  11.042  11.785   1.425
39492SOL    HW220251  11.100  11.768   1.564
39493SOL     OW20252   4.765   8.126  11.153
39493SOL    HW120253   4.795   8.216  11.140
39493SOL    HW220254   4.751   8.092  11.065
39494SOL     OW20255  11.888   7.624   3.149
39494SOL    HW120256  11.954   7.572   3.195
39494SOL    HW220257  11.927   7.711   3.142
39495SOL     OW20258   2.926  14.608  13.476
39495SOL    HW120259   2.894  14.520  13.495
39495SOL    HW220260   2.851  14.654  13.440
39496SOL     OW20261  10.479   9.457  11.223
39496SOL    HW120262  10.547   9.524  11.233
39496SOL    HW220263  10.460   9.458  11.129
39497SOL     OW20264   6.182   3.611   9.683
39497SOL    HW120265   6.248   3.680   9.690
39497SOL    HW220266   6.107   3.654   9.640
39498SOL     OW20267   4.721  11.423  14.640
39498SOL    HW120268   4.762  11.337  14.634
39498SOL    HW220269   4.676  11.434  14.557
39499SOL     OW20270   2.076  11.564   8.902
39499SOL    HW120271   2.013  11.565   8.974
39499SOL    HW220272   2.024  11.544   8.824
39500SOL     OW20273   6.935  13.329  12.955
39500SOL    HW120274   6.884  13.250  12.938
39500SOL    HW220275   6.898  13.365  13.036
39501SOL     OW20276   5.344   8.894   9.400
39501SOL    HW120277   5.387   8.921   9.320
39501SOL    HW220278   5.250   8.900   9.381
39502SOL     OW20279   6.550   9.800   9.143
39502SOL    HW120280   6.570   9.871   9.203
39502SOL    HW220281   6.630   9.747   9.142
39503SOL     OW20282   2.843   5.522   1.249
39503SOL    HW120283   2.872   5.553   1.163
39503SOL    HW220284   2.892   5.577   1.311
39504SOL     OW20285   8.337   4.294   0.027
39504SOL    HW120286   8.339   4.269   0.120
39504SOL    HW220287   8.376   4.381   0.025
39505SOL     OW20288  11.657  13.046   4.403
39505SOL    HW120289  11.689  13.121   4.454
39505SOL    HW220290  11.594  13.083   4.342
39506SOL     OW20291  12.841   6.807   9.417
39506SOL    HW120292  12.805   6.775   9.500
39506SOL    HW220293  12.765   6.839   9.369
39507SOL     OW20294  13.594   4.656   8.834
39507SOL    HW120295  13.682   4.627   8.811
39507SOL    HW220296  13.601   4.752   8.840
39508SOL     OW20297   2.550  12.952   3.669
39508SOL    HW120298   2.640  12.923   3.654
39508SOL    HW220299   2.497  12.901   3.608
39509SOL     OW20300   0.692  10.965   5.772
39509SOL    HW120301   0.689  10.923   5.858
39509SOL    HW220302   0.728  10.897   5.714
39510SOL     OW20303  10.471  10.118   6.103
39510SOL    HW120304  10.456  10.103   6.196
39510SOL    HW220305  10.408  10.061   6.059
39511SOL     OW20306   7.511  14.131   8.652
39511SOL    HW120307   7.491  14.113   8.560
39511SOL    HW220308   7.544  14.221   8.652
39512SOL     OW20309   5.769  14.713   8.877
39512SOL    HW120310   5.818  14.782   8.830
39512SOL    HW220311   5.768  14.743   8.968
39513SOL     OW20312  10.815   6.864   2.129
39513SOL    HW120313  10.775   6.945   2.162
39513SOL    HW220314  10.898   6.857   2.176
39514SOL     OW20315  14.772   4.352  10.001
39514SOL    HW120316  14.689   4.307  10.016
39514SOL    HW220317  14.818   4.298   9.937
39515SOL     OW20318   9.840  13.745   2.138
39515SOL    HW120319   9.770  13.715   2.081
39515SOL    HW220320   9.856  13.671   2.198
39516SOL     OW20321   6.395   3.760   3.814
39516SOL    HW120322   6.388   3.795   3.903
39516SOL    HW220323   6.311   3.716   3.799
39517SOL     OW20324   1.041   5.599   3.088
39517SOL    HW120325   1.085   5.540   3.028
39517SOL    HW220326   1.082   5.582   3.173
39518SOL     OW20327  13.909  11.858   2.606
39518SOL    HW120328  13.993  11.845   2.562
39518SOL    HW220329  13.898  11.953   2.609
39519SOL     OW20330   5.189   1.465   0.564
39519SOL    HW120331   5.113   1.453   0.620
39519SOL    HW220332   5.158   1.441   0.476
39520SOL     OW20333   8.712  11.349   1.008
39520SOL    HW120334   8.627  11.386   1.028
39520SOL    HW220335   8.723  11.277   1.070
39521SOL     OW20336   1.430   5.476   7.857
39521SOL    HW120337   1.506   5.528   7.884
39521SOL    HW220338   1.442   5.465   7.762
39522SOL     OW20339  11.716   7.819   0.433
39522SOL    HW120340  11.739   7.910   0.416
39522SOL    HW220341  11.625   7.822   0.461
39523SOL     OW20342   6.218   1.408  14.852
39523SOL    HW120343   6.266   1.329   0.001
39523SOL    HW220344   6.127   1.387  14.870
39524SOL     OW20345   5.354   0.022   4.662
39524SOL    HW120346   5.436   0.070   4.649
39524SOL    HW220347   5.320   0.057   4.744
39525SOL     OW20348  11.302   7.726   5.369
39525SOL    HW120349  11.376   7.753   5.314
39525SOL    HW220350  11.267   7.648   5.325
39526SOL     OW20351   0.491  13.655  13.361
39526SOL    HW120352   0.516  13.708  13.437
39526SOL    HW220353   0.568  13.602  13.342
39527SOL     OW20354   2.067   1.959   5.612
39527SOL    HW120355   2.085   1.872   5.646
39527SOL    HW220356   2.124   2.017   5.662
39528SOL     OW20357  14.398   2.088   0.990
39528SOL    HW120358  14.313   2.079   1.034
39528SOL    HW220359  14.403   2.180   0.966
39529SOL     OW20360  13.889   4.020   4.584
39529SOL    HW120361  13.819   3.984   4.530
39529SOL    HW220362  13.845   4.047   4.665
39530SOL     OW20363  11.517   4.337  13.818
39530SOL    HW120364  11.431   4.297  13.827
39530SOL    HW220365  11.556   4.329  13.905
39531SOL     OW20366   0.133  12.723   6.139
39531SOL    HW120367   0.090  12.772   6.069
39531SOL    HW220368   0.167  12.645   6.096
39532SOL     OW20369   0.482   5.043   4.035
39532SOL    HW120370   0.545   5.096   4.083
39532SOL    HW220371   0.398   5.085   4.051
39533SOL     OW20372   0.536   3.217   9.163
39533SOL    HW120373   0.495   3.166   9.233
39533SOL    HW220374   0.603   3.159   9.126
39534SOL     OW20375   6.743  11.363   9.832
39534SOL    HW120376   6.715  11.329   9.747
39534SOL    HW220377   6.749  11.286   9.888
39535SOL     OW20378   1.619   9.477   2.511
39535SOL    HW120379   1.621   9.476   2.606
39535SOL    HW220380   1.681   9.545   2.487
39536SOL     OW20381   9.921   0.744   0.116
39536SOL    HW120382   9.911   0.767   0.024
39536SOL    HW220383   9.955   0.654   0.115
39537SOL     OW20384  12.591   9.017  11.521
39537SOL    HW120385  12.625   8.929  11.509
39537SOL    HW220386  12.624   9.044  11.607
39538SOL     OW20387   2.496   4.693   6.659
39538SOL    HW120388   2.461   4.733   6.739
39538SOL    HW220389   2.533   4.610   6.688
39539SOL     OW20390   8.047   8.260   0.238
39539SOL    HW120391   7.995   8.230   0.313
39539SOL    HW220392   8.036   8.190   0.173
39540SOL     OW20393   1.164   3.809  11.872
39540SOL    HW120394   1.222   3.884  11.889
39540SOL    HW220395   1.150   3.809  11.778
39541SOL     OW20396   7.636  14.405  11.354
39541SOL    HW120397   7.555  14.455  11.360
39541SOL    HW220398   7.674  14.410  11.442
39542SOL     OW20399  14.233  14.878  10.146
39542SOL    HW120400  14.167  14.821  10.185
39542SOL    HW220401  14.253  14.837  10.061
39543SOL     OW20402   6.092   5.881   0.943
39543SOL    HW120403   6.067   5.886   0.851
39543SOL    HW220404   6.053   5.958   0.983
39544SOL     OW20405   7.743   6.247   8.086
39544SOL    HW120406   7.805   6.253   8.158
39544SOL    HW220407   7.659   6.227   8.128
39545SOL     OW20408   2.229   2.826   9.542
39545SOL    HW120409   2.237   2.785   9.629
39545SOL    HW220410   2.162   2.893   9.554
39546SOL     OW20411   4.105   1.214  11.968
39546SOL    HW120412   4.074   1.195  12.057
39546SOL    HW220413   4.034   1.185  11.911
39547SOL     OW20414   1.204   0.053   1.865
39547SOL    HW120415   1.236  14.843   1.846
39547SOL    HW220416   1.266   0.087   1.930
39548SOL     OW20417   6.197   0.861  12.553
39548SOL    HW120418   6.183   0.954  12.571
39548SOL    HW220419   6.206   0.857  12.458
39549SOL     OW20420  10.044   4.736   6.332
39549SOL    HW120421   9.973   4.781   6.288
39549SOL    HW220422  10.086   4.684   6.264
39550SOL     OW20423   5.099   0.353  13.481
39550SOL    HW120424   5.021   0.315  13.440
39550SOL    HW220425   5.173   0.314  13.435
39551SOL     OW20426   9.678  13.477  10.851
39551SOL    HW120427   9.648  13.547  10.910
39551SOL    HW220428   9.732  13.522  10.786
39552SOL     OW20429  14.368   1.666  14.094
39552SOL    HW120430  14.361   1.674  13.998
39552SOL    HW220431  14.392   1.753  14.124
39553SOL     OW20432  14.217  12.063   9.299
39553SOL    HW120433  14.175  12.047   9.214
39553SOL    HW220434  14.305  12.092   9.277
39554SOL     OW20435  12.870   7.261   8.993
39554SOL    HW120436  12.961   7.233   8.982
39554SOL    HW220437  12.824   7.182   9.021
39555SOL     OW20438   8.410  10.332  10.040
39555SOL    HW120439   8.348  10.290   9.981
39555SOL    HW220440   8.469  10.380   9.982
39556SOL     OW20441   6.488   3.620   3.522
39556SOL    HW120442   6.544   3.594   3.449
39556SOL    HW220443   6.530   3.698   3.558
39557SOL     OW20444   7.763   3.135   4.268
39557SOL    HW120445   7.785   3.165   4.179
39557SOL    HW220446   7.842   3.153   4.319
39558SOL     OW20447  10.060   5.794   7.359
39558SOL    HW120448  10.042   5.836   7.443
39558SOL    HW220449  10.091   5.707   7.381
39559SOL     OW20450   2.910   3.317   9.755
39559SOL    HW120451   2.849   3.324   9.829
39559SOL    HW220452   2.931   3.223   9.751
39560SOL     OW20453  11.252  13.198   2.086
39560SOL    HW120454  11.268  13.222   1.995
39560SOL    HW220455  11.339  13.190   2.125
39561SOL     OW20456  12.954   4.334   2.075
39561SOL    HW120457  13.012   4.270   2.116
39561SOL    HW220458  12.997   4.418   2.090
39562SOL     OW20459  14.013   7.534  14.226
39562SOL    HW120460  14.023   7.618  14.271
39562SOL    HW220461  14.041   7.552  14.136
39563SOL     OW20462   2.099   3.394  12.726
39563SOL    HW120463   2.107   3.390  12.822
39563SOL    HW220464   2.072   3.305  12.701
39564SOL     OW20465  12.036  10.906   4.104
39564SOL    HW120466  12.092  10.947   4.170
39564SOL    HW220467  12.092  10.839   4.063
39565SOL     OW20468  14.518   6.237  12.715
39565SOL    HW120469  14.474   6.226  12.631
39565SOL    HW220470  14.583   6.167  12.717
39566SOL     OW20471   5.469  13.739   0.270
39566SOL    HW120472   5.440  13.649   0.259
39566SOL    HW220473   5.556  13.741   0.231
39567SOL     OW20474  12.250   1.271  10.225
39567SOL    HW120475  12.256   1.298  10.133
39567SOL    HW220476  12.301   1.191  10.230
39568SOL     OW20477   5.993   6.245   1.039
39568SOL    HW120478   6.025   6.167   1.085
39568SOL    HW220479   5.898   6.231   1.034
39569SOL     OW20480   0.167  13.264  12.483
39569SOL    HW120481   0.259  13.258  12.508
39569SOL    HW220482   0.128  13.321  12.550
39570SOL     OW20483   1.294   7.374   7.141
39570SOL    HW120484   1.380   7.386   7.100
39570SOL    HW220485   1.311   7.315   7.215
39571SOL     OW20486  13.692  12.388   6.313
39571SOL    HW120487  13.718  12.427   6.396
39571SOL    HW220488  13.612  12.340   6.332
39572SOL     OW20489   9.223   0.542  10.137
39572SOL    HW120490   9.200   0.558  10.229
39572SOL    HW220491   9.318   0.537  10.137
39573SOL     OW20492  13.763   3.312  13.451
39573SOL    HW120493  13.718   3.231  13.471
39573SOL    HW220494  13.800   3.299  13.363
39574SOL     OW20495  11.370   2.324   4.824
39574SOL    HW120496  11.427   2.251   4.800
39574SOL    HW220497  11.311   2.288   4.890
39575SOL     OW20498  13.407  13.760   8.753
39575SOL    HW120499  13.356  13.681   8.738
39575SOL    HW220500  13.409  13.804   8.668
39576SOL     OW20501   5.404   5.903  14.550
39576SOL    HW120502   5.333   5.857  14.595
39576SOL    HW220503   5.390   5.995  14.571
39577SOL     OW20504   3.572   4.191   7.401
39577SOL    HW120505   3.561   4.126   7.333
39577SOL    HW220506   3.486   4.233   7.410
39578SOL     OW20507  13.758  13.055  10.906
39578SOL    HW120508  13.772  13.132  10.960
39578SOL    HW220509  13.713  12.993  10.963
39579SOL     OW20510   3.938  10.158   4.667
39579SOL    HW120511   3.907  10.082   4.618
39579SOL    HW220512   3.952  10.225   4.601
39580SOL     OW20513  14.456   2.037  10.886
39580SOL    HW120514  14.533   2.033  10.829
39580SOL    HW220515  14.409   2.115  10.856
39581SOL     OW20516   7.844   2.026   4.299
39581SOL    HW120517   7.916   1.964   4.306
39581SOL    HW220518   7.776   1.991   4.358
39582SOL     OW20519  14.031  12.067   2.117
39582SOL    HW120520  14.056  12.017   2.039
39582SOL    HW220521  14.024  12.157   2.086
39583SOL     OW20522   6.097   5.851   7.520
39583SOL    HW120523   6.170   5.865   7.460
39583SOL    HW220524   6.065   5.763   7.499
39584SOL     OW20525   2.007   9.944   0.637
39584SOL    HW120526   2.013  10.036   0.664
39584SOL    HW220527   1.975   9.947   0.547
39585SOL     OW20528   3.600  14.165   5.848
39585SOL    HW120529   3.608  14.222   5.771
39585SOL    HW220530   3.585  14.078   5.811
39586SOL     OW20531  13.306   2.438  13.188
39586SOL    HW120532  13.243   2.475  13.126
39586SOL    HW220533  13.333   2.356  13.148
39587SOL     OW20534   4.795   3.403  12.726
39587SOL    HW120535   4.726   3.414  12.661
39587SOL    HW220536   4.760   3.339  12.788
39588SOL     OW20537   2.446   1.088   0.916
39588SOL    HW120538   2.372   1.148   0.913
39588SOL    HW220539   2.470   1.074   0.824
39589SOL     OW20540  14.228   5.626   2.662
39589SOL    HW120541  14.244   5.537   2.628
39589SOL    HW220542  14.315   5.664   2.670
39590SOL     OW20543  11.168  10.483   4.481
39590SOL    HW120544  11.219  10.402   4.486
39590SOL    HW220545  11.159  10.510   4.573
39591SOL     OW20546   2.609   6.161   5.392
39591SOL    HW120547   2.622   6.104   5.316
39591SOL    HW220548   2.515   6.160   5.407
39592SOL     OW20549   4.631   2.200   2.244
39592SOL    HW120550   4.545   2.221   2.280
39592SOL    HW220551   4.619   2.207   2.149
39593SOL     OW20552  14.254   5.444   7.628
39593SOL    HW120553  14.335   5.494   7.638
39593SOL    HW220554  14.281   5.360   7.591
39594SOL     OW20555   8.656   3.118   4.358
39594SOL    HW120556   8.616   3.184   4.302
39594SOL    HW220557   8.747   3.146   4.367
39595SOL     OW20558   2.109   0.385   1.485
39595SOL    HW120559   2.053   0.385   1.562
39595SOL    HW220560   2.134   0.293   1.473
39596SOL     OW20561   5.825   9.183   1.007
39596SOL    HW120562   5.854   9.237   1.081
39596SOL    HW220563   5.905   9.164   0.959
39597SOL     OW20564   6.190  11.807   8.133
39597SOL    HW120565   6.156  11.895   8.115
39597SOL    HW220566   6.258  11.794   8.068
39598SOL     OW20567   7.708   7.435   8.160
39598SOL    HW120568   7.799   7.454   8.136
39598SOL    HW220569   7.658   7.507   8.122
39599SOL     OW20570   4.174   4.929   6.862
39599SOL    HW120571   4.242   4.992   6.887
39599SOL    HW220572   4.189   4.913   6.769
39600SOL     OW20573  13.458   2.373   1.068
39600SOL    HW120574  13.544   2.415   1.059
39600SOL    HW220575  13.416   2.422   1.139
39601SOL     OW20576   0.446   0.141  10.168
39601SOL    HW120577   0.465   0.123  10.260
39601SOL    HW220578   0.353   0.121  10.158
39602SOL     OW20579   2.454   6.573   8.142
39602SOL    HW120580   2.393   6.508   8.176
39602SOL    HW220581   2.411   6.658   8.158
39603SOL     OW20582  10.838   2.175   5.875
39603SOL    HW120583  10.846   2.163   5.781
39603SOL    HW220584  10.805   2.090   5.907
39604SOL     OW20585  13.689  11.896   8.849
39604SOL    HW120586  13.619  11.894   8.914
39604SOL    HW220587  13.657  11.957   8.782
39605SOL     OW20588  14.575   6.303  11.906
39605SOL    HW120589  14.491   6.346  11.894
39605SOL    HW220590  14.632   6.371  11.943
39606SOL     OW20591   5.409   3.279  12.227
39606SOL    HW120592   5.318   3.250  12.215
39606SOL    HW220593   5.422   3.279  12.322
39607SOL     OW20594   2.436   2.099  13.178
39607SOL    HW120595   2.446   2.191  13.151
39607SOL    HW220596   2.500   2.088  13.248
39608SOL     OW20597  11.942   0.369   2.586
39608SOL    HW120598  12.008   0.300   2.579
39608SOL    HW220599  11.924   0.394   2.496
39609SOL     OW20600   6.132   7.918  11.313
39609SOL    HW120601   6.109   8.009  11.332
39609SOL    HW220602   6.109   7.907  11.220
39610SOL     OW20603   2.839   0.083   3.004
39610SOL    HW120604   2.899   0.143   2.959
39610SOL    HW220605   2.822   0.014   2.940
39611SOL     OW20606   1.506  12.404  11.766
39611SOL    HW120607   1.483  12.363  11.850
39611SOL    HW220608   1.588  12.363  11.740
39612SOL     OW20609   7.509   7.791   5.252
39612SOL    HW120610   7.481   7.786   5.343
39612SOL    HW220611   7.603   7.772   5.254
39613SOL     OW20612   9.376  14.749  12.096
39613SOL    HW120613   9.357  14.832  12.051
39613SOL    HW220614   9.315  14.686  12.057
39614SOL     OW20615  12.528   8.675   6.910
39614SOL    HW120616  12.495   8.630   6.832
39614SOL    HW220617  12.456   8.730   6.940
39615SOL     OW20618   3.419   5.477   9.705
39615SOL    HW120619   3.438   5.557   9.657
39615SOL    HW220620   3.506   5.443   9.730
39616SOL     OW20621   9.652   4.234  12.286
39616SOL    HW120622   9.708   4.196  12.219
39616SOL    HW220623   9.601   4.301  12.240
39617SOL     OW20624   9.497   8.237   0.426
39617SOL    HW120625   9.577   8.253   0.476
39617SOL    HW220626   9.476   8.145   0.441
39618SOL     OW20627  12.073   9.251  13.443
39618SOL    HW120628  12.002   9.187  13.446
39618SOL    HW220629  12.153   9.198  13.450
39619SOL     OW20630  11.152   6.841  14.083
39619SOL    HW120631  11.181   6.856  14.173
39619SOL    HW220632  11.207   6.899  14.030
39620SOL     OW20633   0.472   2.829  14.506
39620SOL    HW120634   0.489   2.865  14.419
39620SOL    HW220635   0.551   2.778  14.526
39621SOL     OW20636   6.430   1.986  10.391
39621SOL    HW120637   6.423   1.945  10.304
39621SOL    HW220638   6.374   2.063  10.385
39622SOL     OW20639   6.248   8.477  11.463
39622SOL    HW120640   6.288   8.469  11.376
39622SOL    HW220641   6.245   8.388  11.497
39623SOL     OW20642   0.301   6.076   8.434
39623SOL    HW120643   0.346   6.065   8.351
39623SOL    HW220644   0.348   6.148   8.477
39624SOL     OW20645   4.648   5.013  12.534
39624SOL    HW120646   4.693   5.025  12.618
39624SOL    HW220647   4.652   5.099  12.492
39625SOL     OW20648   3.727   7.027  11.141
39625SOL    HW120649   3.698   7.106  11.187
39625SOL    HW220650   3.646   6.986  11.110
39626SOL     OW20651   2.836   7.505  11.516
39626SOL    HW120652   2.821   7.412  11.501
39626SOL    HW220653   2.906   7.508  11.581
39627SOL     OW20654   3.389  13.544   6.461
39627SOL    HW120655   3.405  13.511   6.550
39627SOL    HW220656   3.322  13.486   6.426
39628SOL     OW20657   3.882  11.914   1.861
39628SOL    HW120658   3.924  11.904   1.776
39628SOL    HW220659   3.936  11.978   1.907
39629SOL     OW20660  11.290   3.539   1.211
39629SOL    HW120661  11.222   3.526   1.277
39629SOL    HW220662  11.347   3.463   1.220
39630SOL     OW20663   8.895  13.024   6.314
39630SOL    HW120664   8.831  12.961   6.347
39630SOL    HW220665   8.877  13.104   6.363
39631SOL     OW20666  11.182   4.491  14.097
39631SOL    HW120667  11.132   4.566  14.064
39631SOL    HW220668  11.138   4.415  14.059
39632SOL     OW20669   3.080  13.846   9.278
39632SOL    HW120670   3.022  13.886   9.212
39632SOL    HW220671   3.053  13.755   9.282
39633SOL     OW20672  11.489  11.365   8.809
39633SOL    HW120673  11.468  11.299   8.875
39633SOL    HW220674  11.470  11.449   8.853
39634SOL     OW20675  11.113  12.173  13.767
39634SOL    HW120676  11.073  12.153  13.851
39634SOL    HW220677  11.190  12.226  13.788
39635SOL     OW20678   1.077   5.580   5.476
39635SOL    HW120679   1.092   5.615   5.563
39635SOL    HW220680   1.065   5.486   5.489
39636SOL     OW20681  11.834   4.632   4.386
39636SOL    HW120682  11.881   4.694   4.331
39636SOL    HW220683  11.802   4.684   4.459
39637SOL     OW20684   3.019   3.146   5.573
39637SOL    HW120685   2.953   3.114   5.634
39637SOL    HW220686   3.076   3.071   5.557
39638SOL     OW20687  13.905  12.113   2.795
39638SOL    HW120688  13.920  12.027   2.835
39638SOL    HW220689  13.929  12.176   2.863
39639SOL     OW20690   0.081  11.189  13.749
39639SOL    HW120691   0.040  11.102  13.752
39639SOL    HW220692   0.165  11.174  13.706
39640SOL     OW20693  12.882   4.015   4.787
39640SOL    HW120694  12.901   3.921   4.789
39640SOL    HW220695  12.800   4.024   4.835
39641SOL     OW20696  11.979  12.224   5.977
39641SOL    HW120697  12.059  12.188   5.939
39641SOL    HW220698  11.909  12.168   5.943
39642SOL     OW20699  13.951   7.258   8.368
39642SOL    HW120700  14.011   7.332   8.363
39642SOL    HW220701  13.864   7.298   8.372
39643SOL     OW20702  14.156  13.000  14.074
39643SOL    HW120703  14.243  13.039  14.063
39643SOL    HW220704  14.169  12.929  14.136
39644SOL     OW20705  11.218  13.733   2.701
39644SOL    HW120706  11.173  13.649   2.696
39644SOL    HW220707  11.311  13.710   2.692
39645SOL     OW20708   3.171   1.467   3.876
39645SOL    HW120709   3.236   1.530   3.844
39645SOL    HW220710   3.208   1.436   3.959
39646SOL     OW20711   4.342   7.898  14.146
39646SOL    HW120712   4.266   7.953  14.129
39646SOL    HW220713   4.324   7.816  14.100
39647SOL     OW20714   8.846  11.257  12.948
39647SOL    HW120715   8.920  11.310  12.920
39647SOL    HW220716   8.771  11.317  12.946
39648SOL     OW20717  11.547  10.558  13.965
39648SOL    HW120718  11.498  10.479  13.988
39648SOL    HW220719  11.522  10.576  13.874
39649SOL     OW20720  14.244   5.399   6.107
39649SOL    HW120721  14.279   5.454   6.037
39649SOL    HW220722  14.320   5.352   6.141
39650SOL     OW20723  11.574  14.425   8.388
39650SOL    HW120724  11.545  14.484   8.319
39650SOL    HW220725  11.590  14.342   8.344
39651SOL     OW20726   7.968   8.956   1.024
39651SOL    HW120727   7.875   8.941   1.042
39651SOL    HW220728   7.998   9.006   1.100
39652SOL     OW20729  10.600  13.019   2.442
39652SOL    HW120730  10.659  13.001   2.515
39652SOL    HW220731  10.657  13.020   2.365
39653SOL     OW20732   0.872  13.161  13.654
39653SOL    HW120733   0.778  13.179  13.644
39653SOL    HW220734   0.876  13.086  13.713
39654SOL     OW20735   7.389   8.154  12.590
39654SOL    HW120736   7.475   8.195  12.582
39654SOL    HW220737   7.336   8.196  12.522
39655SOL     OW20738  13.313   0.413  11.921
39655SOL    HW120739  13.293   0.460  11.840
39655SOL    HW220740  13.409   0.414  11.927
39656SOL     OW20741   4.816   7.199  11.750
39656SOL    HW120742   4.886   7.264  11.760
39656SOL    HW220743   4.771   7.198  11.835
39657SOL     OW20744   4.439   0.020   1.970
39657SOL    HW120745   4.496  14.858   2.037
39657SOL    HW220746   4.426  14.828   1.906
39658SOL     OW20747  10.672   8.722  13.101
39658SOL    HW120748  10.762   8.691  13.095
39658SOL    HW220749  10.652   8.720  13.194
39659SOL     OW20750   6.154   3.979   3.252
39659SOL    HW120751   6.182   3.905   3.198
39659SOL    HW220752   6.235   4.020   3.280
39660SOL     OW20753   2.612   2.034   0.944
39660SOL    HW120754   2.691   2.034   0.997
39660SOL    HW220755   2.629   2.097   0.874
39661SOL     OW20756   6.062  14.400  11.115
39661SOL    HW120757   6.100  14.313  11.104
39661SOL    HW220758   6.028  14.401  11.204
39662SOL     OW20759  12.763   4.042  11.157
39662SOL    HW120760  12.774   4.116  11.097
39662SOL    HW220761  12.713   4.078  11.230
39663SOL     OW20762   2.379   2.441  12.469
39663SOL    HW120763   2.438   2.393  12.527
39663SOL    HW220764   2.421   2.526  12.455
39664SOL     OW20765   5.008   5.917  14.242
39664SOL    HW120766   4.917   5.893  14.225
39664SOL    HW220767   5.051   5.834  14.264
39665SOL     OW20768   7.234  13.761   8.088
39665SOL    HW120769   7.156  13.716   8.120
39665SOL    HW220770   7.297  13.692   8.073
39666SOL     OW20771   0.718   1.461   5.749
39666SOL    HW120772   0.782   1.408   5.701
39666SOL    HW220773   0.690   1.527   5.685
39667SOL     OW20774  12.495   3.754   0.334
39667SOL    HW120775  12.478   3.835   0.286
39667SOL    HW220776  12.507   3.688   0.266
39668SOL     OW20777   5.317   2.041  13.173
39668SOL    HW120778   5.265   2.105  13.125
39668SOL    HW220779   5.392   2.024  13.117
39669SOL     OW20780   2.346   5.990  13.271
39669SOL    HW120781   2.329   5.947  13.355
39669SOL    HW220782   2.322   5.924  13.206
39670SOL     OW20783  10.094   5.577  14.192
39670SOL    HW120784  10.034   5.652  14.197
39670SOL    HW220785  10.050   5.515  14.134
39671SOL     OW20786   7.151  10.889   5.657
39671SOL    HW120787   7.062  10.883   5.690
39671SOL    HW220788   7.186  10.970   5.693
39672SOL     OW20789   1.228   7.578   8.651
39672SOL    HW120790   1.323   7.574   8.652
39672SOL    HW220791   1.200   7.493   8.686
39673SOL     OW20792   6.622   8.200   7.924
39673SOL    HW120793   6.662   8.141   7.861
39673SOL    HW220794   6.666   8.180   8.007
39674SOL     OW20795   6.634   1.386   7.811
39674SOL    HW120796   6.707   1.386   7.750
39674SOL    HW220797   6.557   1.363   7.759
39675SOL     OW20798  14.708   9.521   8.025
39675SOL    HW120799  14.727   9.430   8.049
39675SOL    HW220800  14.733   9.572   8.103
39676SOL     OW20801   3.644   7.194   3.890
39676SOL    HW120802   3.656   7.100   3.898
39676SOL    HW220803   3.692   7.218   3.810
39677SOL     OW20804   1.641   0.840  13.843
39677SOL    HW120805   1.715   0.821  13.786
39677SOL    HW220806   1.680   0.856  13.929
39678SOL     OW20807  13.141  10.738  12.901
39678SOL    HW120808  13.113  10.768  12.815
39678SOL    HW220809  13.200  10.664  12.882
39679SOL     OW20810   4.045  13.205   8.486
39679SOL    HW120811   3.957  13.175   8.465
39679SOL    HW220812   4.033  13.294   8.519
39680SOL     OW20813   3.108  10.674   0.537
39680SOL    HW120814   3.056  10.604   0.575
39680SOL    HW220815   3.158  10.632   0.467
39681SOL     OW20816  13.795   3.151   8.812
39681SOL    HW120817  13.831   3.088   8.750
39681SOL    HW220818  13.711   3.112   8.839
39682SOL     OW20819  10.347   9.770   0.264
39682SOL    HW120820  10.292   9.788   0.341
39682SOL    HW220821  10.424   9.825   0.276
39683SOL     OW20822   5.301   3.352  10.695
39683SOL    HW120823   5.372   3.364  10.633
39683SOL    HW220824   5.338   3.375  10.780
39684SOL     OW20825   5.312   6.430   9.435
39684SOL    HW120826   5.336   6.371   9.363
39684SOL    HW220827   5.266   6.375   9.498
39685SOL     OW20828   8.651   6.815   5.318
39685SOL    HW120829   8.690   6.733   5.291
39685SOL    HW220830   8.676   6.877   5.250
39686SOL     OW20831   3.071   4.605  14.009
39686SOL    HW120832   2.983   4.602  14.048
39686SOL    HW220833   3.123   4.654  14.072
39687SOL     OW20834   2.175  10.692   0.013
39687SOL    HW120835   2.165  10.709   0.107
39687SOL    HW220836   2.262  10.723  14.870
39688SOL     OW20837  14.142   9.768   3.695
39688SOL    HW120838  14.186   9.683   3.688
39688SOL    HW220839  14.211   9.829   3.721
39689SOL     OW20840  10.808  11.843  14.785
39689SOL    HW120841  10.750  11.785  14.735
39689SOL    HW220842  10.764  11.928  14.783
39690SOL     OW20843   0.011   0.980   4.535
39690SOL    HW120844   0.049   0.968   4.622
39690SOL    HW220845   0.037   1.068   4.510
39691SOL     OW20846   4.623   8.891   3.945
39691SOL    HW120847   4.638   8.913   3.853
39691SOL    HW220848   4.681   8.816   3.961
39692SOL     OW20849   7.779  10.678  13.321
39692SOL    HW120850   7.826  10.617  13.378
39692SOL    HW220851   7.829  10.759  13.327
39693SOL     OW20852   1.511   0.277   6.086
39693SOL    HW120853   1.453   0.345   6.051
39693SOL    HW220854   1.586   0.276   6.026
39694SOL     OW20855   2.490   7.156   1.859
39694SOL    HW120856   2.569   7.210   1.868
39694SOL    HW220857   2.499   7.088   1.926
39695SOL     OW20858   0.959   1.973   7.177
39695SOL    HW120859   1.051   1.949   7.180
39695SOL    HW220860   0.936   1.994   7.268
39696SOL     OW20861   7.817   3.755   0.347
39696SOL    HW120862   7.762   3.678   0.330
39696SOL    HW220863   7.906   3.724   0.330
39697SOL     OW20864   5.213   0.745   0.457
39697SOL    HW120865   5.183   0.694   0.381
39697SOL    HW220866   5.143   0.738   0.521
39698SOL     OW20867  11.753  14.414   1.578
39698SOL    HW120868  11.773  14.496   1.532
39698SOL    HW220869  11.779  14.346   1.516
39699SOL     OW20870   3.343  13.241   9.360
39699SOL    HW120871   3.290  13.176   9.313
39699SOL    HW220872   3.394  13.189   9.422
39700SOL     OW20873   0.303   5.308   3.133
39700SOL    HW120874   0.368   5.373   3.105
39700SOL    HW220875   0.343   5.266   3.209
39701SOL     OW20876   9.893   0.970   4.406
39701SOL    HW120877   9.987   0.981   4.395
39701SOL    HW220878   9.870   1.030   4.477
39702SOL     OW20879   1.025   9.456  10.232
39702SOL    HW120880   1.001   9.393  10.164
39702SOL    HW220881   1.096   9.507  10.194
39703SOL     OW20882  12.084   1.237  11.661
39703SOL    HW120883  12.132   1.294  11.721
39703SOL    HW220884  12.081   1.285  11.579
39704SOL     OW20885   1.852   1.445   5.762
39704SOL    HW120886   1.806   1.361   5.775
39704SOL    HW220887   1.908   1.454   5.839
39705SOL     OW20888   5.136   6.731   9.181
39705SOL    HW120889   5.057   6.751   9.231
39705SOL    HW220890   5.205   6.727   9.247
39706SOL     OW20891   5.830   0.251   6.146
39706SOL    HW120892   5.909   0.303   6.156
39706SOL    HW220893   5.850   0.168   6.190
39707SOL     OW20894   0.476  12.338   1.692
39707SOL    HW120895   0.481  12.424   1.651
39707SOL    HW220896   0.566  12.308   1.699
39708SOL     OW20897  14.032   1.262   0.534
39708SOL    HW120898  14.017   1.342   0.483
39708SOL    HW220899  13.945   1.239   0.568
39709SOL     OW20900   6.614   2.182  10.717
39709SOL    HW120901   6.688   2.215  10.768
39709SOL    HW220902   6.649   2.171  10.629
39710SOL     OW20903   4.125   5.131   3.660
39710SOL    HW120904   4.050   5.174   3.621
39710SOL    HW220905   4.088   5.056   3.707
39711SOL     OW20906   2.595   1.118   0.655
39711SOL    HW120907   2.540   1.071   0.592
39711SOL    HW220908   2.582   1.210   0.634
39712SOL     OW20909   9.859   3.972   3.882
39712SOL    HW120910   9.800   3.898   3.896
39712SOL    HW220911   9.815   4.027   3.818
39713SOL     OW20912  14.572  13.540  14.707
39713SOL    HW120913  14.640  13.597  14.670
39713SOL    HW220914  14.576  13.554  14.801
39714SOL     OW20915  10.456   1.518   9.756
39714SOL    HW120916  10.422   1.607   9.750
39714SOL    HW220917  10.429   1.488   9.843
39715SOL     OW20918   6.787   3.993  13.330
39715SOL    HW120919   6.711   4.051  13.332
39715SOL    HW220920   6.792   3.958  13.420
39716SOL     OW20921  13.674   6.844   7.114
39716SOL    HW120922  13.670   6.750   7.133
39716SOL    HW220923  13.757   6.872   7.152
39717SOL     OW20924   4.872   9.993   4.854
39717SOL    HW120925   4.863  10.004   4.759
39717SOL    HW220926   4.940  10.054   4.879
39718SOL     OW20927   7.162  11.291   2.687
39718SOL    HW120928   7.172  11.204   2.726
39718SOL    HW220929   7.071  11.315   2.705
39719SOL     OW20930   5.126   1.897   1.956
39719SOL    HW120931   5.207   1.850   1.974
39719SOL    HW220932   5.075   1.888   2.037
39720SOL     OW20933  12.957  11.535   8.158
39720SOL    HW120934  13.004  11.607   8.117
39720SOL    HW220935  12.934  11.567   8.245
39721SOL     OW20936   0.224  11.607   6.158
39721SOL    HW120937   0.159  11.677   6.154
39721SOL    HW220938   0.304  11.646   6.123
39722SOL     OW20939  11.917  10.721   6.124
39722SOL    HW120940  11.875  10.775   6.057
39722SOL    HW220941  11.990  10.679   6.079
39723SOL     OW20942   6.274  13.418   8.085
39723SOL    HW120943   6.363  13.425   8.119
39723SOL    HW220944   6.221  13.470   8.145
39724SOL     OW20945   5.058   5.499   3.208
39724SOL    HW120946   5.040   5.495   3.302
39724SOL    HW220947   5.029   5.586   3.182
39725SOL     OW20948   9.387  12.104  13.353
39725SOL    HW120949   9.382  12.044  13.427
39725SOL    HW220950   9.442  12.059  13.289
39726SOL     OW20951   4.985   9.903   7.930
39726SOL    HW120952   4.934   9.980   7.907
39726SOL    HW220953   5.074   9.934   7.938
39727SOL     OW20954   1.387   4.782  13.099
39727SOL    HW120955   1.304   4.737  13.088
39727SOL    HW220956   1.365   4.865  13.142
39728SOL     OW20957  13.908   8.257   8.054
39728SOL    HW120958  13.913   8.179   7.999
39728SOL    HW220959  13.815   8.280   8.054
39729SOL     OW20960   4.708  14.367  12.634
39729SOL    HW120961   4.784  14.425  12.634
39729SOL    HW220962   4.640  14.417  12.588
39730SOL     OW20963   9.080  13.399   9.330
39730SOL    HW120964   8.988  13.412   9.352
39730SOL    HW220965   9.111  13.332   9.391
39731SOL     OW20966   6.243   0.134   3.690
39731SOL    HW120967   6.240   0.047   3.652
39731SOL    HW220968   6.215   0.193   3.620
39732SOL     OW20969   4.870   1.460   4.621
39732SOL    HW120970   4.847   1.548   4.591
39732SOL    HW220971   4.943   1.434   4.564
39733SOL     OW20972  13.656  12.040  10.822
39733SOL    HW120973  13.683  11.979  10.890
39733SOL    HW220974  13.661  12.126  10.864
39734SOL     OW20975   1.733  13.995   2.356
39734SOL    HW120976   1.768  13.906   2.363
39734SOL    HW220977   1.649  13.984   2.310
39735SOL     OW20978   9.585   3.015   6.060
39735SOL    HW120979   9.554   3.041   6.147
39735SOL    HW220980   9.583   3.095   6.008
39736SOL     OW20981   2.844   8.996   7.735
39736SOL    HW120982   2.860   9.083   7.700
39736SOL    HW220983   2.920   8.945   7.709
39737SOL     OW20984   1.807   4.712   5.793
39737SOL    HW120985   1.727   4.678   5.754
39737SOL    HW220986   1.871   4.709   5.722
39738SOL     OW20987   2.695  10.203  10.259
39738SOL    HW120988   2.697  10.170  10.170
39738SOL    HW220989   2.656  10.290  10.251
39739SOL     OW20990   2.123   1.494   7.455
39739SOL    HW120991   2.205   1.446   7.442
39739SOL    HW220992   2.151   1.582   7.482
39740SOL     OW20993  11.168   5.613   9.635
39740SOL    HW120994  11.177   5.522   9.661
39740SOL    HW220995  11.103   5.612   9.565
39741SOL     OW20996   9.473  10.432   0.435
39741SOL    HW120997   9.558  10.474   0.425
39741SOL    HW220998   9.479  10.385   0.518
39742SOL     OW20999   2.836   6.736  12.833
39742SOL    HW121000   2.755   6.771  12.870
39742SOL    HW221001   2.818   6.644  12.815
39743SOL     OW21002   9.549   0.942  13.954
39743SOL    HW121003   9.495   0.864  13.965
39743SOL    HW221004   9.534   0.969  13.863
39744SOL     OW21005   5.451   9.949   6.988
39744SOL    HW121006   5.528   9.998   6.958
39744SOL    HW221007   5.474   9.857   6.974
39745SOL     OW21008   0.699  10.017   7.981
39745SOL    HW121009   0.688   9.976   7.895
39745SOL    HW221010   0.618  10.065   7.996
39746SOL     OW21011   0.925   5.925  13.036
39746SOL    HW121012   0.884   5.882  12.961
39746SOL    HW221013   0.922   5.859  13.106
39747SOL     OW21014   7.247  14.545  14.379
39747SOL    HW121015   7.198  14.579  14.304
39747SOL    HW221016   7.271  14.623  14.430
39748SOL     OW21017   8.217   3.801   5.734
39748SOL    HW121018   8.145   3.818   5.794
39748SOL    HW221019   8.285   3.762   5.788
39749SOL     OW21020  14.056   1.591   0.155
39749SOL    HW121021  14.149   1.593   0.134
39749SOL    HW221022  14.022   1.675   0.125
39750SOL     OW21023   3.636  14.813  14.434
39750SOL    HW121024   3.547  14.820  14.401
39750SOL    HW221025   3.644   0.004  14.500
39751SOL     OW21026   8.310  11.659  11.140
39751SOL    HW121027   8.393  11.650  11.094
39751SOL    HW221028   8.271  11.738  11.103
39752SOL     OW21029   7.035   6.529  13.201
39752SOL    HW121030   7.032   6.567  13.289
39752SOL    HW221031   6.963   6.571  13.155
39753SOL     OW21032   9.005  13.785   4.640
39753SOL    HW121033   9.030  13.692   4.638
39753SOL    HW221034   9.026  13.814   4.728
39754SOL     OW21035   7.849  13.696   6.807
39754SOL    HW121036   7.760  13.676   6.835
39754SOL    HW221037   7.898  13.704   6.888
39755SOL     OW21038   8.013   6.207   3.070
39755SOL    HW121039   8.071   6.277   3.103
39755SOL    HW221040   7.978   6.166   3.148
39756SOL     OW21041   8.149   0.316   0.849
39756SOL    HW121042   8.214   0.249   0.828
39756SOL    HW221043   8.172   0.390   0.793
39757SOL     OW21044   6.076  12.601   1.684
39757SOL    HW121045   6.109  12.605   1.595
39757SOL    HW221046   6.113  12.678   1.727
39758SOL     OW21047  10.899   2.428  13.941
39758SOL    HW121048  10.889   2.522  13.958
39758SOL    HW221049  10.813   2.391  13.962
39759SOL     OW21050  11.721  11.442  11.595
39759SOL    HW121051  11.685  11.475  11.677
39759SOL    HW221052  11.808  11.409  11.619
39760SOL     OW21053   5.043   4.406  10.336
39760SOL    HW121054   5.023   4.398  10.430
39760SOL    HW221055   4.960   4.389  10.292
39761SOL     OW21056  12.438   7.158  11.685
39761SOL    HW121057  12.475   7.241  11.656
39761SOL    HW221058  12.427   7.107  11.605
39762SOL     OW21059   5.664   7.892  10.572
39762SOL    HW121060   5.748   7.931  10.545
39762SOL    HW221061   5.684   7.800  10.586
39763SOL     OW21062   3.395   3.799   9.895
39763SOL    HW121063   3.312   3.837   9.865
39763SOL    HW221064   3.459   3.828   9.830
39764SOL     OW21065   1.132  13.068  13.835
39764SOL    HW121066   1.085  12.999  13.787
39764SOL    HW221067   1.134  13.036  13.925
39765SOL     OW21068   0.273   9.213  13.269
39765SOL    HW121069   0.294   9.185  13.180
39765SOL    HW221070   0.250   9.132  13.315
39766SOL     OW21071  11.925  13.937  11.617
39766SOL    HW121072  11.999  13.978  11.572
39766SOL    HW221073  11.884  14.008  11.666
39767SOL     OW21074   6.735   8.354   9.845
39767SOL    HW121075   6.768   8.399   9.923
39767SOL    HW221076   6.776   8.400   9.772
39768SOL     OW21077   4.699  12.495   5.119
39768SOL    HW121078   4.689  12.405   5.088
39768SOL    HW221079   4.749  12.488   5.201
39769SOL     OW21080  11.345   0.876  10.627
39769SOL    HW121081  11.280   0.935  10.587
39769SOL    HW221082  11.312   0.861  10.716
39770SOL     OW21083  11.207   7.420   1.178
39770SOL    HW121084  11.236   7.340   1.136
39770SOL    HW221085  11.203   7.399   1.272
39771SOL     OW21086   8.344  12.005   4.419
39771SOL    HW121087   8.263  12.032   4.376
39771SOL    HW221088   8.321  11.923   4.464
39772SOL     OW21089   5.016  10.374   7.678
39772SOL    HW121090   5.065  10.455   7.669
39772SOL    HW221091   5.060  10.327   7.748
39773SOL     OW21092   2.855   3.131   2.547
39773SOL    HW121093   2.842   3.054   2.602
39773SOL    HW221094   2.775   3.183   2.561
39774SOL     OW21095  13.308  12.265  11.803
39774SOL    HW121096  13.381  12.212  11.773
39774SOL    HW221097  13.244  12.201  11.835
39775SOL     OW21098   7.267  14.061   8.222
39775SOL    HW121099   7.203  14.058   8.151
39775SOL    HW221100   7.320  13.982   8.209
39776SOL     OW21101   2.741   3.371  14.287
39776SOL    HW121102   2.714   3.396  14.199
39776SOL    HW221103   2.814   3.311  14.274
39777SOL     OW21104  10.708   5.654   8.621
39777SOL    HW121105  10.675   5.690   8.539
39777SOL    HW221106  10.797   5.625   8.600
39778SOL     OW21107   2.793  10.207   8.041
39778SOL    HW121108   2.882  10.235   8.020
39778SOL    HW221109   2.737  10.278   8.009
39779SOL     OW21110   3.342  13.036   0.196
39779SOL    HW121111   3.366  13.120   0.157
39779SOL    HW221112   3.419  13.011   0.248
39780SOL     OW21113   9.278  13.794   6.371
39780SOL    HW121114   9.260  13.778   6.464
39780SOL    HW221115   9.236  13.878   6.352
39781SOL     OW21116   8.096  14.721   4.813
39781SOL    HW121117   8.093  14.640   4.865
39781SOL    HW221118   8.184  14.755   4.826
39782SOL     OW21119   6.480  13.780   2.989
39782SOL    HW121120   6.425  13.855   3.011
39782SOL    HW221121   6.501  13.791   2.897
39783SOL     OW21122   9.129   3.490   0.991
39783SOL    HW121123   9.045   3.469   1.031
39783SOL    HW221124   9.185   3.516   1.064
39784SOL     OW21125  14.467   0.690   5.786
39784SOL    HW121126  14.535   0.655   5.843
39784SOL    HW221127  14.431   0.765   5.835
39785SOL     OW21128   3.757  14.108   7.524
39785SOL    HW121129   3.760  14.122   7.619
39785SOL    HW221130   3.786  14.192   7.487
39786SOL     OW21131   5.768   7.955   3.371
39786SOL    HW121132   5.797   8.046   3.376
39786SOL    HW221133   5.707   7.954   3.297
39787SOL     OW21134   4.866   7.796   0.326
39787SOL    HW121135   4.893   7.836   0.244
39787SOL    HW221136   4.770   7.799   0.325
39788SOL     OW21137   5.254   6.038   2.876
39788SOL    HW121138   5.241   6.058   2.968
39788SOL    HW221139   5.170   6.000   2.848
39789SOL     OW21140   1.847  11.775   4.800
39789SOL    HW121141   1.830  11.725   4.720
39789SOL    HW221142   1.857  11.708   4.868
39790SOL     OW21143  10.388  10.039  11.025
39790SOL    HW121144  10.296  10.019  11.007
39790SOL    HW221145  10.394  10.038  11.120
39791SOL     OW21146  11.753  14.625  13.766
39791SOL    HW121147  11.717  14.589  13.685
39791SOL    HW221148  11.842  14.590  13.770
39792SOL     OW21149   0.377   9.434  13.369
39792SOL    HW121150   0.329   9.358  13.336
39792SOL    HW221151   0.340   9.508  13.321
39793SOL     OW21152   8.952   3.308   6.807
39793SOL    HW121153   8.957   3.398   6.840
39793SOL    HW221154   8.902   3.315   6.726
39794SOL     OW21155  13.655   4.715   5.552
39794SOL    HW121156  13.668   4.753   5.465
39794SOL    HW221157  13.596   4.776   5.596
39795SOL     OW21158  14.065   2.562   1.812
39795SOL    HW121159  13.979   2.562   1.854
39795SOL    HW221160  14.127   2.554   1.884
39796SOL     OW21161   5.215  13.713   9.142
39796SOL    HW121162   5.258  13.655   9.204
39796SOL    HW221163   5.273  13.789   9.137
39797SOL     OW21164   5.293  10.781  13.717
39797SOL    HW121165   5.199  10.797  13.712
39797SOL    HW221166   5.316  10.743  13.632
39798SOL     OW21167   4.095   7.182   9.910
39798SOL    HW121168   4.113   7.156   9.819
39798SOL    HW221169   4.127   7.272   9.916
39799SOL     OW21170  12.097   1.499  12.697
39799SOL    HW121171  12.043   1.545  12.761
39799SOL    HW221172  12.187   1.521  12.720
39800SOL     OW21173   2.988   1.486  10.887
39800SOL    HW121174   3.015   1.504  10.977
39800SOL    HW221175   2.995   1.571  10.843
39801SOL     OW21176   3.799   8.793   4.435
39801SOL    HW121177   3.729   8.743   4.476
39801SOL    HW221178   3.838   8.844   4.507
39802SOL     OW21179  10.702  12.400  12.443
39802SOL    HW121180  10.615  12.428  12.413
39802SOL    HW221181  10.686  12.356  12.526
39803SOL     OW21182   3.122   5.840  12.380
39803SOL    HW121183   3.057   5.802  12.439
39803SOL    HW221184   3.183   5.768  12.362
39804SOL     OW21185   6.091   0.539   6.671
39804SOL    HW121186   6.106   0.627   6.637
39804SOL    HW221187   6.032   0.552   6.745
39805SOL     OW21188   8.100   2.066   1.900
39805SOL    HW121189   8.154   2.130   1.853
39805SOL    HW221190   8.070   2.112   1.978
39806SOL     OW21191   9.870  12.148   1.597
39806SOL    HW121192   9.829  12.176   1.679
39806SOL    HW221193   9.853  12.054   1.593
39807SOL     OW21194   9.906   3.979   9.499
39807SOL    HW121195   9.870   4.040   9.434
39807SOL    HW221196   9.988   4.020   9.527
39808SOL     OW21197   0.609   9.966  14.349
39808SOL    HW121198   0.640  10.051  14.318
39808SOL    HW221199   0.552   9.986  14.423
39809SOL     OW21200   0.285  12.832  13.434
39809SOL    HW121201   0.223  12.772  13.393
39809SOL    HW221202   0.308  12.894  13.364
39810SOL     OW21203   0.811  14.534  11.024
39810SOL    HW121204   0.860  14.550  10.943
39810SOL    HW221205   0.868  14.478  11.076
39811SOL     OW21206   0.690   4.965   3.569
39811SOL    HW121207   0.653   5.047   3.538
39811SOL    HW221208   0.617   4.903   3.565
39812SOL     OW21209   9.034  10.909   5.896
39812SOL    HW121210   9.060  10.936   5.984
39812SOL    HW221211   9.111  10.866   5.860
39813SOL     OW21212   6.982   4.717   9.875
39813SOL    HW121213   7.074   4.692   9.872
39813SOL    HW221214   6.976   4.791   9.815
39814SOL     OW21215  12.456   3.009   6.757
39814SOL    HW121216  12.533   2.952   6.760
39814SOL    HW221217  12.441   3.034   6.848
39815SOL     OW21218   5.239   3.292  10.390
39815SOL    HW121219   5.297   3.298  10.466
39815SOL    HW221220   5.210   3.382  10.375
39816SOL     OW21221   2.440   7.680   2.905
39816SOL    HW121222   2.424   7.592   2.871
39816SOL    HW221223   2.427   7.673   2.999
39817SOL     OW21224  13.598   5.823  12.286
39817SOL    HW121225  13.594   5.750  12.347
39817SOL    HW221226  13.561   5.897  12.334
39818SOL     OW21227   5.692   4.766  14.066
39818SOL    HW121228   5.646   4.821  14.003
39818SOL    HW221229   5.622   4.718  14.111
39819SOL     OW21230   2.813   8.781   1.792
39819SOL    HW121231   2.880   8.777   1.723
39819SOL    HW221232   2.748   8.843   1.759
39820SOL     OW21233   9.890   5.468  13.750
39820SOL    HW121234   9.922   5.556  13.773
39820SOL    HW221235   9.842   5.439  13.828
39821SOL     OW21236  12.343   4.497  11.462
39821SOL    HW121237  12.314   4.549  11.387
39821SOL    HW221238  12.407   4.553  11.506
39822SOL     OW21239   6.998   0.686   0.151
39822SOL    HW121240   6.967   0.727   0.070
39822SOL    HW221241   6.929   0.704   0.215
39823SOL     OW21242   3.562  11.698   7.469
39823SOL    HW121243   3.476  11.735   7.451
39823SOL    HW221244   3.567  11.697   7.565
39824SOL     OW21245   1.603   0.500  14.494
39824SOL    HW121246   1.662   0.461  14.430
39824SOL    HW221247   1.614   0.446  14.573
39825SOL     OW21248   8.602  12.994   6.093
39825SOL    HW121249   8.679  12.938   6.085
39825SOL    HW221250   8.625  13.055   6.163
39826SOL     OW21251  13.760   8.989   3.739
39826SOL    HW121252  13.731   8.899   3.721
39826SOL    HW221253  13.694   9.023   3.798
39827SOL     OW21254  11.833   4.034  13.297
39827SOL    HW121255  11.875   4.118  13.313
39827SOL    HW221256  11.765   4.028  13.364
39828SOL     OW21257   9.542   6.248   8.685
39828SOL    HW121258   9.484   6.323   8.670
39828SOL    HW221259   9.519   6.185   8.617
39829SOL     OW21260   3.931   4.957   2.539
39829SOL    HW121261   3.974   4.996   2.615
39829SOL    HW221262   3.932   4.863   2.555
39830SOL     OW21263   7.540   0.480   0.784
39830SOL    HW121264   7.607   0.545   0.763
39830SOL    HW221265   7.475   0.527   0.835
39831SOL     OW21266   8.588   0.736  12.116
39831SOL    HW121267   8.618   0.820  12.150
39831SOL    HW221268   8.624   0.732  12.027
39832SOL     OW21269   3.524   7.240   0.999
39832SOL    HW121270   3.442   7.285   1.017
39832SOL    HW221271   3.575   7.251   1.080
39833SOL     OW21272   9.380   9.280  10.006
39833SOL    HW121273   9.376   9.329  10.088
39833SOL    HW221274   9.342   9.195  10.026
39834SOL     OW21275   5.115  14.369   0.202
39834SOL    HW121276   5.053  14.368   0.274
39834SOL    HW221277   5.133  14.277   0.183
39835SOL     OW21278  12.517  12.327   4.345
39835SOL    HW121279  12.429  12.331   4.383
39835SOL    HW221280  12.575  12.316   4.420
39836SOL     OW21281   7.778  13.580   2.307
39836SOL    HW121282   7.723  13.592   2.384
39836SOL    HW221283   7.759  13.491   2.277
39837SOL     OW21284   5.979   4.653  14.242
39837SOL    HW121285   6.017   4.741  14.241
39837SOL    HW221286   6.047   4.598  14.282
39838SOL     OW21287  12.142   2.202  14.557
39838SOL    HW121288  12.078   2.270  14.576
39838SOL    HW221289  12.147   2.200  14.461
39839SOL     OW21290  10.994   1.857   8.301
39839SOL    HW121291  10.964   1.860   8.392
39839SOL    HW221292  10.935   1.915   8.254
39840SOL     OW21293   6.721   7.788  11.284
39840SOL    HW121294   6.740   7.821  11.196
39840SOL    HW221295   6.805   7.758  11.317
39841SOL     OW21296   5.817   4.550   4.966
39841SOL    HW121297   5.852   4.510   4.887
39841SOL    HW221298   5.894   4.565   5.021
39842SOL     OW21299   9.955   0.993   8.115
39842SOL    HW121300   9.937   0.977   8.208
39842SOL    HW221301   9.882   0.953   8.069
39843SOL     OW21302  12.996   7.481  10.137
39843SOL    HW121303  13.001   7.405  10.079
39843SOL    HW221304  12.913   7.523  10.114
39844SOL     OW21305   7.716  14.254   7.545
39844SOL    HW121306   7.758  14.225   7.464
39844SOL    HW221307   7.788  14.290   7.598
39845SOL     OW21308   4.175  10.978   7.306
39845SOL    HW121309   4.186  10.900   7.360
39845SOL    HW221310   4.244  11.037   7.336
39846SOL     OW21311  11.063  13.538   5.822
39846SOL    HW121312  10.991  13.565   5.765
39846SOL    HW221313  11.037  13.567   5.909
39847SOL     OW21314  14.179  14.095  14.175
39847SOL    HW121315  14.257  14.055  14.211
39847SOL    HW221316  14.172  14.059  14.086
39848SOL     OW21317  13.391  12.650   4.853
39848SOL    HW121318  13.327  12.579   4.857
39848SOL    HW221319  13.455  12.621   4.788
39849SOL     OW21320   7.314   1.457   2.468
39849SOL    HW121321   7.308   1.539   2.418
39849SOL    HW221322   7.332   1.485   2.558
39850SOL     OW21323   1.478  10.593  13.019
39850SOL    HW121324   1.549  10.567  13.078
39850SOL    HW221325   1.519  10.650  12.954
39851SOL     OW21326   9.455  13.060   4.038
39851SOL    HW121327   9.541  13.037   4.002
39851SOL    HW221328   9.400  13.075   3.961
39852SOL     OW21329   4.769   6.099   6.045
39852SOL    HW121330   4.832   6.115   5.975
39852SOL    HW221331   4.742   6.186   6.074
39853SOL     OW21332  14.078   4.264   9.445
39853SOL    HW121333  14.014   4.213   9.495
39853SOL    HW221334  14.154   4.207   9.437
39854SOL     OW21335   4.289   9.129   0.929
39854SOL    HW121336   4.377   9.108   0.962
39854SOL    HW221337   4.290   9.099   0.838
39855SOL     OW21338   1.393   9.098  11.257
39855SOL    HW121339   1.378   9.015  11.212
39855SOL    HW221340   1.485   9.117  11.242
39856SOL     OW21341   2.758  10.678   6.368
39856SOL    HW121342   2.731  10.595   6.331
39856SOL    HW221343   2.811  10.655   6.444
39857SOL     OW21344   6.217  12.691   8.821
39857SOL    HW121345   6.149  12.625   8.820
39857SOL    HW221346   6.270  12.670   8.898
39858SOL     OW21347   6.565   3.903   1.247
39858SOL    HW121348   6.613   3.946   1.176
39858SOL    HW221349   6.473   3.924   1.230
39859SOL     OW21350   4.262   0.537   0.455
39859SOL    HW121351   4.283   0.461   0.509
39859SOL    HW221352   4.217   0.501   0.379
39860SOL     OW21353   7.019   2.793   4.073
39860SOL    HW121354   7.023   2.878   4.029
39860SOL    HW221355   7.110   2.773   4.095
39861SOL     OW21356  10.570   7.965   8.329
39861SOL    HW121357  10.614   7.943   8.411
39861SOL    HW221358  10.481   7.933   8.341
39862SOL     OW21359   3.382  10.513  14.489
39862SOL    HW121360   3.466  10.479  14.459
39862SOL    HW221361   3.391  10.519  14.584
39863SOL     OW21362   8.862   3.179   8.596
39863SOL    HW121363   8.895   3.269   8.584
39863SOL    HW221364   8.864   3.142   8.508
39864SOL     OW21365   3.497   8.162   2.864
39864SOL    HW121366   3.434   8.192   2.930
39864SOL    HW221367   3.444   8.139   2.789
39865SOL     OW21368   7.394  12.821   2.406
39865SOL    HW121369   7.454  12.768   2.353
39865SOL    HW221370   7.446  12.898   2.431
39866SOL     OW21371   6.605  14.464   0.764
39866SOL    HW121372   6.553  14.413   0.700
39866SOL    HW221373   6.687  14.416   0.772
39867SOL     OW21374  10.141   5.137   3.462
39867SOL    HW121375  10.106   5.155   3.375
39867SOL    HW221376  10.125   5.218   3.511
39868SOL     OW21377   6.583  13.446   2.916
39868SOL    HW121378   6.518  13.452   2.985
39868SOL    HW221379   6.612  13.355   2.917
39869SOL     OW21380   2.491   6.909   0.995
39869SOL    HW121381   2.577   6.944   1.017
39869SOL    HW221382   2.484   6.828   1.046
39870SOL     OW21383   0.483   7.837  12.840
39870SOL    HW121384   0.451   7.927  12.835
39870SOL    HW221385   0.511   7.825  12.931
39871SOL     OW21386   2.052   1.161  12.171
39871SOL    HW121387   1.979   1.223  12.163
39871SOL    HW221388   2.050   1.110  12.090
39872SOL     OW21389   5.069  10.505  10.050
39872SOL    HW121390   5.022  10.532   9.971
39872SOL    HW221391   5.116  10.584  10.078
39873SOL     OW21392  13.484   8.863  10.412
39873SOL    HW121393  13.465   8.931  10.348
39873SOL    HW221394  13.554   8.811  10.373
39874SOL     OW21395  12.123   1.105  10.994
39874SOL    HW121396  12.033   1.103  11.025
39874SOL    HW221397  12.156   1.191  11.021
39875SOL     OW21398   4.865  13.999   8.132
39875SOL    HW121399   4.913  14.081   8.125
39875SOL    HW221400   4.809  14.011   8.209
39876SOL     OW21401   4.237   3.161   5.796
39876SOL    HW121402   4.249   3.108   5.717
39876SOL    HW221403   4.153   3.205   5.783
39877SOL     OW21404   6.158   6.587  11.034
39877SOL    HW121405   6.232   6.603  10.975
39877SOL    HW221406   6.153   6.491  11.040
39878SOL     OW21407   2.605   9.070   6.488
39878SOL    HW121408   2.565   9.002   6.433
39878SOL    HW221409   2.682   9.028   6.526
39879SOL     OW21410   9.705  10.530   8.937
39879SOL    HW121411   9.747  10.612   8.910
39879SOL    HW221412   9.734  10.517   9.027
39880SOL     OW21413  12.103  10.417  10.378
39880SOL    HW121414  12.055  10.362  10.316
39880SOL    HW221415  12.169  10.461  10.325
39881SOL     OW21416   4.381   2.519   6.281
39881SOL    HW121417   4.305   2.486   6.328
39881SOL    HW221418   4.372   2.614   6.283
39882SOL     OW21419   2.348   7.595   3.876
39882SOL    HW121420   2.331   7.535   3.948
39882SOL    HW221421   2.300   7.675   3.898
39883SOL     OW21422   8.845  12.773   2.768
39883SOL    HW121423   8.811  12.698   2.817
39883SOL    HW221424   8.811  12.761   2.679
39884SOL     OW21425  13.009   4.624  10.659
39884SOL    HW121426  13.018   4.531  10.679
39884SOL    HW221427  12.929   4.630  10.607
39885SOL     OW21428   8.080  10.808  14.270
39885SOL    HW121429   8.114  10.845  14.189
39885SOL    HW221430   8.028  10.879  14.308
39886SOL     OW21431   4.023   3.676   8.289
39886SOL    HW121432   4.084   3.693   8.218
39886SOL    HW221433   3.986   3.590   8.269
39887SOL     OW21434  10.365  11.363   1.834
39887SOL    HW121435  10.348  11.360   1.928
39887SOL    HW221436  10.330  11.280   1.801
39888SOL     OW21437   1.122   5.843   5.957
39888SOL    HW121438   1.118   5.937   5.970
39888SOL    HW221439   1.031   5.816   5.945
39889SOL     OW21440  12.233   5.469  13.629
39889SOL    HW121441  12.296   5.537  13.605
39889SOL    HW221442  12.285   5.389  13.633
39890SOL     OW21443  14.838   8.433   7.018
39890SOL    HW121444   0.000   8.518   7.003
39890SOL    HW221445  14.827   8.427   7.112
39891SOL     OW21446  14.170   9.478   6.449
39891SOL    HW121447  14.089   9.525   6.430
39891SOL    HW221448  14.191   9.501   6.540
39892SOL     OW21449   1.503   6.968   2.528
39892SOL    HW121450   1.557   7.046   2.543
39892SOL    HW221451   1.557   6.895   2.558
39893SOL     OW21452   4.602  11.037   9.317
39893SOL    HW121453   4.548  11.110   9.287
39893SOL    HW221454   4.632  11.065   9.404
39894SOL     OW21455   8.980   4.342  12.070
39894SOL    HW121456   8.906   4.353  12.131
39894SOL    HW221457   8.938   4.325  11.985
39895SOL     OW21458  11.217   4.820   6.187
39895SOL    HW121459  11.168   4.894   6.223
39895SOL    HW221460  11.297   4.817   6.240
39896SOL     OW21461  11.794  14.583   5.445
39896SOL    HW121462  11.702  14.604   5.461
39896SOL    HW221463  11.811  14.505   5.499
39897SOL     OW21464   4.962  11.155  12.717
39897SOL    HW121465   4.929  11.090  12.656
39897SOL    HW221466   4.916  11.236  12.695
39898SOL     OW21467  12.732   4.574   9.119
39898SOL    HW121468  12.716   4.663   9.087
39898SOL    HW221469  12.728   4.582   9.214
39899SOL     OW21470   2.547  10.122   9.784
39899SOL    HW121471   2.543  10.029   9.763
39899SOL    HW221472   2.460  10.155   9.763
39900SOL     OW21473   7.108  10.344   4.996
39900SOL    HW121474   7.030  10.399   4.998
39900SOL    HW221475   7.108  10.304   4.909
39901SOL     OW21476   4.279   0.758  10.355
39901SOL    HW121477   4.198   0.721  10.392
39901SOL    HW221478   4.346   0.740  10.421
39902SOL     OW21479  10.649  10.936  11.305
39902SOL    HW121480  10.572  10.879  11.304
39902SOL    HW221481  10.618  11.018  11.343
39903SOL     OW21482   3.589   6.279   8.333
39903SOL    HW121483   3.665   6.224   8.354
39903SOL    HW221484   3.518   6.217   8.317
39904SOL     OW21485  13.965   3.993   3.474
39904SOL    HW121486  13.994   3.903   3.456
39904SOL    HW221487  14.045   4.045   3.472
39905SOL     OW21488   7.034   7.150  14.565
39905SOL    HW121489   7.007   7.061  14.590
39905SOL    HW221490   7.130   7.148  14.572
39906SOL     OW21491  10.279   2.147   9.283
39906SOL    HW121492  10.274   2.224   9.226
39906SOL    HW221493  10.235   2.174   9.364
39907SOL     OW21494   9.758   9.647   4.663
39907SOL    HW121495   9.674   9.692   4.673
39907SOL    HW221496   9.735   9.554   4.662
39908SOL     OW21497   3.275   5.661   6.435
39908SOL    HW121498   3.231   5.745   6.426
39908SOL    HW221499   3.304   5.657   6.526
39909SOL     OW21500  14.106  10.824   0.508
39909SOL    HW121501  14.107  10.729   0.496
39909SOL    HW221502  14.076  10.858   0.423
39910SOL     OW21503  11.918   2.349  13.964
39910SOL    HW121504  11.991   2.411  13.973
39910SOL    HW221505  11.841   2.399  13.991
39911SOL     OW21506   2.076   0.597  12.100
39911SOL    HW121507   2.090   0.648  12.180
39911SOL    HW221508   2.015   0.650  12.049
39912SOL     OW21509   5.588  10.606  12.403
39912SOL    HW121510   5.648  10.667  12.361
39912SOL    HW221511   5.509  10.608  12.350
39913SOL     OW21512  12.362   8.977   0.160
39913SOL    HW121513  12.424   9.029   0.212
39913SOL    HW221514  12.332   9.038   0.092
39914SOL     OW21515   0.006   4.109  12.004
39914SOL    HW121516   0.067   4.148  12.066
39914SOL    HW221517  14.877   4.175  11.934
39915SOL     OW21518  13.293   6.952   2.378
39915SOL    HW121519  13.253   7.037   2.398
39915SOL    HW221520  13.222   6.889   2.387
39916SOL     OW21521   0.879   1.572   4.767
39916SOL    HW121522   0.837   1.592   4.851
39916SOL    HW221523   0.967   1.609   4.774
39917SOL     OW21524  10.247   1.875  13.045
39917SOL    HW121525  10.294   1.948  13.004
39917SOL    HW221526  10.180   1.851  12.980
39918SOL     OW21527   1.818   2.980  10.898
39918SOL    HW121528   1.854   2.894  10.876
39918SOL    HW221529   1.864   3.040  10.839
39919SOL     OW21530  10.184   5.382   7.716
39919SOL    HW121531  10.141   5.397   7.801
39919SOL    HW221532  10.204   5.288   7.716
39920SOL     OW21533  14.823   2.882   0.285
39920SOL    HW121534  14.865   2.968   0.298
39920SOL    HW221535  14.852   2.855   0.198
39921SOL     OW21536  10.235   9.098  11.762
39921SOL    HW121537  10.310   9.060  11.807
39921SOL    HW221538  10.159   9.056  11.801
39922SOL     OW21539  13.329   7.493   6.672
39922SOL    HW121540  13.347   7.403   6.698
39922SOL    HW221541  13.345   7.544   6.752
39923SOL     OW21542   7.223   8.609  11.147
39923SOL    HW121543   7.128   8.620  11.143
39923SOL    HW221544   7.257   8.669  11.081
39924SOL     OW21545  14.025   0.334   7.202
39924SOL    HW121546  14.015   0.240   7.187
39924SOL    HW221547  14.119   0.350   7.191
39925SOL     OW21548  10.490   1.603  14.799
39925SOL    HW121549  10.424   1.640  14.740
39925SOL    HW221550  10.481   1.508  14.789
39926SOL     OW21551  13.971  10.105  10.513
39926SOL    HW121552  14.030  10.152  10.454
39926SOL    HW221553  13.941  10.172  10.575
39927SOL     OW21554   5.129  10.122   4.907
39927SOL    HW121555   5.119  10.183   4.833
39927SOL    HW221556   5.194  10.059   4.876
39928SOL     OW21557   0.468  14.580  11.838
39928SOL    HW121558   0.436  14.581  11.747
39928SOL    HW221559   0.537  14.514  11.838
39929SOL     OW21560   3.568  10.463  12.092
39929SOL    HW121561   3.573  10.371  12.068
39929SOL    HW221562   3.564  10.510  12.008
39930SOL     OW21563   0.081  13.078   0.072
39930SOL    HW121564   0.072  13.023   0.150
39930SOL    HW221565   0.142  13.031   0.015
39931SOL     OW21566   3.535   0.610   9.813
39931SOL    HW121567   3.492   0.677   9.865
39931SOL    HW221568   3.487   0.610   9.730
39932SOL     OW21569  12.922   3.389  12.588
39932SOL    HW121570  12.910   3.376  12.682
39932SOL    HW221571  12.858   3.329  12.549
39933SOL     OW21572   5.541   7.447  11.405
39933SOL    HW121573   5.619   7.463  11.352
39933SOL    HW221574   5.543   7.353  11.424
39934SOL     OW21575   5.329   2.280   1.421
39934SOL    HW121576   5.235   2.275   1.404
39934SOL    HW221577   5.336   2.284   1.516
39935SOL     OW21578   1.694   8.416   3.982
39935SOL    HW121579   1.696   8.502   4.025
39935SOL    HW221580   1.784   8.383   3.990
39936SOL     OW21581   0.795   6.701   2.382
39936SOL    HW121582   0.729   6.757   2.422
39936SOL    HW221583   0.872   6.710   2.438
39937SOL     OW21584   7.058   1.708   0.372
39937SOL    HW121585   7.150   1.703   0.399
39937SOL    HW221586   7.056   1.671   0.284
39938SOL     OW21587   2.654   7.587   1.977
39938SOL    HW121588   2.682   7.633   1.897
39938SOL    HW221589   2.645   7.496   1.950
39939SOL     OW21590   2.003  14.048  14.133
39939SOL    HW121591   2.045  14.085  14.211
39939SOL    HW221592   1.984  14.123  14.078
39940SOL     OW21593  14.763   6.621   1.872
39940SOL    HW121594  14.841   6.649   1.921
39940SOL    HW221595  14.769   6.668   1.789
39941SOL     OW21596  10.953   0.727   9.033
39941SOL    HW121597  10.957   0.765   8.945
39941SOL    HW221598  10.982   0.636   9.021
39942SOL     OW21599   7.819  14.451  13.854
39942SOL    HW121600   7.858  14.496  13.779
39942SOL    HW221601   7.725  14.451  13.836
39943SOL     OW21602   1.130   4.460   5.533
39943SOL    HW121603   1.097   4.371   5.526
39943SOL    HW221604   1.194   4.467   5.462
39944SOL     OW21605   4.477   4.589   5.099
39944SOL    HW121606   4.410   4.568   5.164
39944SOL    HW221607   4.541   4.642   5.147
39945SOL     OW21608  13.400  13.708  11.708
39945SOL    HW121609  13.349  13.664  11.776
39945SOL    HW221610  13.484  13.662  11.708
39946SOL     OW21611   8.959   4.610   0.358
39946SOL    HW121612   8.969   4.705   0.363
39946SOL    HW221613   8.953   4.582   0.450
39947SOL     OW21614   1.922  11.664   0.531
39947SOL    HW121615   1.839  11.640   0.574
39947SOL    HW221616   1.909  11.755   0.502
39948SOL     OW21617  11.242   8.805  10.520
39948SOL    HW121618  11.286   8.889  10.508
39948SOL    HW221619  11.170   8.806  10.457
39949SOL     OW21620   2.286   2.386   8.418
39949SOL    HW121621   2.363   2.353   8.371
39949SOL    HW221622   2.299   2.481   8.420
39950SOL     OW21623  12.381  14.699   1.494
39950SOL    HW121624  12.339  14.642   1.558
39950SOL    HW221625  12.412  14.774   1.546
39951SOL     OW21626  12.502   2.522   6.431
39951SOL    HW121627  12.463   2.605   6.461
39951SOL    HW221628  12.495   2.525   6.336
39952SOL     OW21629  11.477   0.747  12.928
39952SOL    HW121630  11.528   0.779  12.853
39952SOL    HW221631  11.482   0.652  12.921
39953SOL     OW21632   6.770   9.754  10.041
39953SOL    HW121633   6.687   9.708  10.038
39953SOL    HW221634   6.833   9.694  10.002
39954SOL     OW21635   9.867   1.207  10.185
39954SOL    HW121636   9.901   1.220  10.097
39954SOL    HW221637   9.921   1.264  10.241
39955SOL     OW21638  14.445   0.114   5.072
39955SOL    HW121639  14.530   0.154   5.092
39955SOL    HW221640  14.381   0.174   5.110
39956SOL     OW21641   2.109   0.005  11.114
39956SOL    HW121642   2.124   0.069  11.044
39956SOL    HW221643   2.072   0.056  11.186
39957SOL     OW21644   7.754  11.931   3.934
39957SOL    HW121645   7.784  11.851   3.978
39957SOL    HW221646   7.706  11.979   4.001
39958SOL     OW21647   9.502   2.123   7.704
39958SOL    HW121648   9.451   2.093   7.629
39958SOL    HW221649   9.450   2.195   7.741
39959SOL     OW21650   0.145   7.603  14.077
39959SOL    HW121651   0.228   7.607  14.028
39959SOL    HW221652   0.170   7.571  14.164
39960SOL     OW21653  10.870   7.791  10.375
39960SOL    HW121654  10.797   7.745  10.333
39960SOL    HW221655  10.903   7.850  10.308
39961SOL     OW21656   1.319  14.211   9.725
39961SOL    HW121657   1.346  14.300   9.702
39961SOL    HW221658   1.257  14.186   9.657
39962SOL     OW21659   3.826   8.537   5.141
39962SOL    HW121660   3.886   8.478   5.096
39962SOL    HW221661   3.764   8.565   5.073
39963SOL     OW21662   2.543   5.821  10.795
39963SOL    HW121663   2.564   5.794  10.706
39963SOL    HW221664   2.456   5.861  10.789
39964SOL     OW21665   4.655   3.107   4.127
39964SOL    HW121666   4.694   3.195   4.121
39964SOL    HW221667   4.729   3.050   4.147
39965SOL     OW21668   9.403   5.221   9.934
39965SOL    HW121669   9.367   5.288   9.876
39965SOL    HW221670   9.403   5.141   9.882
39966SOL     OW21671   8.091   9.136  12.037
39966SOL    HW121672   8.079   9.207  12.099
39966SOL    HW221673   8.014   9.080  12.048
39967SOL     OW21674  12.413   1.566  12.155
39967SOL    HW121675  12.380   1.482  12.123
39967SOL    HW221676  12.361   1.585  12.233
39968SOL     OW21677   2.630   9.925   6.884
39968SOL    HW121678   2.625   9.920   6.789
39968SOL    HW221679   2.664   9.840   6.911
39969SOL     OW21680   4.022   5.308   0.497
39969SOL    HW121681   4.031   5.384   0.555
39969SOL    HW221682   4.075   5.240   0.539
39970SOL     OW21683   4.242  14.502   9.921
39970SOL    HW121684   4.319  14.499   9.978
39970SOL    HW221685   4.263  14.570   9.857
39971SOL     OW21686   8.468   3.906   3.415
39971SOL    HW121687   8.514   3.822   3.408
39971SOL    HW221688   8.429   3.919   3.328
39972SOL     OW21689   6.451  12.237   8.896
39972SOL    HW121690   6.507  12.249   8.972
39972SOL    HW221691   6.443  12.142   8.886
39973SOL     OW21692  14.179   1.599  13.114
39973SOL    HW121693  14.185   1.572  13.022
39973SOL    HW221694  14.189   1.694  13.111
39974SOL     OW21695   0.347   3.016  10.879
39974SOL    HW121696   0.367   2.937  10.830
39974SOL    HW221697   0.425   3.033  10.931
39975SOL     OW21698   6.213   6.958   8.885
39975SOL    HW121699   6.136   6.943   8.830
39975SOL    HW221700   6.260   7.029   8.841
39976SOL     OW21701  12.771   9.204   9.993
39976SOL    HW121702  12.839   9.150   9.953
39976SOL    HW221703  12.741   9.261   9.922
39977SOL     OW21704   4.902   0.512  11.182
39977SOL    HW121705   4.975   0.453  11.163
39977SOL    HW221706   4.891   0.506  11.277
39978SOL     OW21707   6.275   3.597   9.290
39978SOL    HW121708   6.214   3.523   9.277
39978SOL    HW221709   6.235   3.669   9.242
39979SOL     OW21710   0.413   4.492  11.002
39979SOL    HW121711   0.398   4.445  10.920
39979SOL    HW221712   0.501   4.528  10.994
39980SOL     OW21713  12.773  13.341   2.707
39980SOL    HW121714  12.708  13.399   2.666
39980SOL    HW221715  12.799  13.281   2.637
39981SOL     OW21716   1.832   5.080   2.061
39981SOL    HW121717   1.894   5.040   2.000
39981SOL    HW221718   1.767   5.121   2.005
39982SOL     OW21719   7.329   1.901  11.193
39982SOL    HW121720   7.391   1.954  11.142
39982SOL    HW221721   7.300   1.833  11.133
39983SOL     OW21722   0.061   6.289  10.138
39983SOL    HW121723   0.008   6.249  10.068
39983SOL    HW221724   0.000   6.347  10.184
39984SOL     OW21725   9.799  14.222   9.532
39984SOL    HW121726   9.746  14.144   9.520
39984SOL    HW221727   9.794  14.240   9.626
39985SOL     OW21728   0.338  12.954   7.369
39985SOL    HW121729   0.355  12.962   7.275
39985SOL    HW221730   0.243  12.953   7.376
39986SOL     OW21731   4.894   7.696   5.547
39986SOL    HW121732   4.875   7.782   5.507
39986SOL    HW221733   4.809   7.652   5.548
39987SOL     OW21734   6.030   4.299   5.425
39987SOL    HW121735   6.032   4.261   5.512
39987SOL    HW221736   5.938   4.291   5.398
39988SOL     OW21737   1.085   8.013  13.751
39988SOL    HW121738   1.042   8.085  13.704
39988SOL    HW221739   1.071   8.033  13.844
39989SOL     OW21740   7.952  13.646   9.378
39989SOL    HW121741   8.011  13.629   9.452
39989SOL    HW221742   7.902  13.565   9.368
39990SOL     OW21743  14.745  12.915   6.695
39990SOL    HW121744  14.690  12.860   6.639
39990SOL    HW221745  14.705  12.908   6.782
39991SOL     OW21746   8.916   2.549   5.945
39991SOL    HW121747   8.907   2.638   5.910
39991SOL    HW221748   8.905   2.492   5.869
39992SOL     OW21749   2.876  12.832   3.106
39992SOL    HW121750   2.951  12.784   3.139
39992SOL    HW221751   2.873  12.912   3.160
39993SOL     OW21752  13.165  13.108   5.950
39993SOL    HW121753  13.216  13.068   6.021
39993SOL    HW221754  13.082  13.131   5.991
39994SOL     OW21755  10.123   2.070  13.847
39994SOL    HW121756  10.040   2.103  13.881
39994SOL    HW221757  10.100   2.029  13.764
39995SOL     OW21758   8.922  14.587   6.010
39995SOL    HW121759   8.893  14.675   6.034
39995SOL    HW221760   8.992  14.601   5.947
39996SOL     OW21761  11.342  12.044   1.439
39996SOL    HW121762  11.293  12.014   1.363
39996SOL    HW221763  11.276  12.078   1.499
39997SOL     OW21764   2.214  12.478  13.892
39997SOL    HW121765   2.149  12.440  13.834
39997SOL    HW221766   2.297  12.438  13.866
39998SOL     OW21767  10.773   6.201   7.433
39998SOL    HW121768  10.853   6.253   7.445
39998SOL    HW221769  10.802   6.110   7.444
39999SOL     OW21770   6.707   0.504   3.328
39999SOL    HW121771   6.735   0.418   3.297
39999SOL    HW221772   6.783   0.539   3.374
40000SOL     OW21773   4.912   1.904   2.132
40000SOL    HW121774   4.898   1.811   2.151
40000SOL    HW221775   4.839   1.928   2.075
40001SOL     OW21776   0.395  14.313   9.438
40001SOL    HW121777   0.480  14.282   9.408
40001SOL    HW221778   0.352  14.235   9.472
40002SOL     OW21779   9.409  10.930  13.279
40002SOL    HW121780   9.328  10.905  13.323
40002SOL    HW221781   9.407  11.026  13.280
40003SOL     OW21782   6.853   9.548   5.431
40003SOL    HW121783   6.875   9.456   5.448
40003SOL    HW221784   6.865   9.591   5.516
40004SOL     OW21785   7.510  13.300  14.591
40004SOL    HW121786   7.420  13.305  14.624
40004SOL    HW221787   7.521  13.208  14.566
40005SOL     OW21788  11.997  10.780  10.907
40005SOL    HW121789  11.902  10.783  10.892
40005SOL    HW221790  12.007  10.805  10.999
40006SOL     OW21791   8.343  11.029   5.829
40006SOL    HW121792   8.289  11.108   5.834
40006SOL    HW221793   8.394  11.030   5.910
40007SOL     OW21794  13.629  12.910   0.642
40007SOL    HW121795  13.598  12.841   0.584
40007SOL    HW221796  13.612  12.991   0.594
40008SOL     OW21797   1.630   6.487  11.484
40008SOL    HW121798   1.629   6.536  11.401
40008SOL    HW221799   1.559   6.423  11.475
40009SOL     OW21800  11.628   1.666   8.664
40009SOL    HW121801  11.618   1.593   8.725
40009SOL    HW221802  11.646   1.625   8.579
40010SOL     OW21803   5.616   5.062   2.230
40010SOL    HW121804   5.703   5.027   2.250
40010SOL    HW221805   5.615   5.074   2.135
40011SOL     OW21806   1.847  14.737   9.186
40011SOL    HW121807   1.784  14.747   9.258
40011SOL    HW221808   1.798  14.764   9.108
40012SOL     OW21809  10.950  10.094  14.267
40012SOL    HW121810  10.967  10.181  14.231
40012SOL    HW221811  10.960  10.105  14.362
40013SOL     OW21812   8.218   7.324  11.177
40013SOL    HW121813   8.291   7.263  11.182
40013SOL    HW221814   8.233   7.372  11.095
40014SOL     OW21815   4.037   2.082   3.283
40014SOL    HW121816   4.124   2.070   3.323
40014SOL    HW221817   4.008   2.168   3.315
40015SOL     OW21818  10.007  11.862  12.705
40015SOL    HW121819   9.926  11.810  12.701
40015SOL    HW221820  10.049  11.834  12.786
40016SOL     OW21821  13.848   9.322   0.167
40016SOL    HW121822  13.792   9.338   0.242
40016SOL    HW221823  13.787   9.300   0.096
40017SOL     OW21824   8.880   1.388   0.488
40017SOL    HW121825   8.926   1.472   0.480
40017SOL    HW221826   8.877   1.371   0.582
40018SOL     OW21827  12.102  12.341   7.745
40018SOL    HW121828  12.159  12.279   7.698
40018SOL    HW221829  12.094  12.416   7.686
40019SOL     OW21830   7.832  10.682   0.330
40019SOL    HW121831   7.914  10.643   0.358
40019SOL    HW221832   7.773  10.671   0.405
40020SOL     OW21833  11.899   6.835  12.723
40020SOL    HW121834  11.893   6.927  12.750
40020SOL    HW221835  11.979   6.803  12.765
40021SOL     OW21836  12.817   1.959  11.997
40021SOL    HW121837  12.765   1.965  11.917
40021SOL    HW221838  12.886   2.024  11.985
40022SOL     OW21839  14.636   7.900  11.985
40022SOL    HW121840  14.589   7.940  12.058
40022SOL    HW221841  14.692   7.834  12.025
40023SOL     OW21842   1.428   9.585  14.293
40023SOL    HW121843   1.428   9.601  14.387
40023SOL    HW221844   1.404   9.492  14.285
40024SOL     OW21845   5.087   7.198  14.496
40024SOL    HW121846   5.124   7.118  14.532
40024SOL    HW221847   4.993   7.182  14.493
40025SOL     OW21848   5.008   2.100   8.025
40025SOL    HW121849   4.913   2.096   8.035
40025SOL    HW221850   5.041   2.040   8.092
40026SOL     OW21851   4.196  13.878   7.126
40026SOL    HW121852   4.210  13.927   7.207
40026SOL    HW221853   4.284  13.854   7.097
40027SOL     OW21854   4.248   8.972   4.728
40027SOL    HW121855   4.195   8.935   4.798
40027SOL    HW221856   4.268   8.898   4.671
40028SOL     OW21857   1.783   0.676  10.668
40028SOL    HW121858   1.840   0.745  10.635
40028SOL    HW221859   1.823   0.595  10.639
40029SOL     OW21860   7.927   7.530   8.837
40029SOL    HW121861   7.988   7.475   8.788
40029SOL    HW221862   7.853   7.543   8.778
40030SOL     OW21863   6.200   4.476   5.539
40030SOL    HW121864   6.175   4.413   5.471
40030SOL    HW221865   6.118   4.513   5.569
40031SOL     OW21866   3.782  13.680   0.016
40031SOL    HW121867   3.837  13.607  14.866
40031SOL    HW221868   3.748  13.718  14.813
40032SOL     OW21869   2.636   4.390   7.137
40032SOL    HW121870   2.650   4.295   7.131
40032SOL    HW221871   2.721   4.428   7.115
40033SOL     OW21872  14.623   3.326  14.512
40033SOL    HW121873  14.587   3.306  14.598
40033SOL    HW221874  14.688   3.257  14.496
40034SOL     OW21875   6.127   1.688  12.796
40034SOL    HW121876   6.095   1.758  12.740
40034SOL    HW221877   6.065   1.616  12.783
40035SOL     OW21878   3.047  14.132  13.963
40035SOL    HW121879   3.115  14.090  14.015
40035SOL    HW221880   3.095  14.178  13.894
40036SOL     OW21881   6.806   3.365   3.534
40036SOL    HW121882   6.821   3.386   3.441
40036SOL    HW221883   6.838   3.441   3.581
40037SOL     OW21884   3.059   7.345   6.267
40037SOL    HW121885   3.046   7.438   6.284
40037SOL    HW221886   3.083   7.308   6.352
40038SOL     OW21887   1.545   8.361  11.737
40038SOL    HW121888   1.491   8.438  11.723
40038SOL    HW221889   1.490   8.302  11.788
40039SOL     OW21890   1.438   6.259   5.560
40039SOL    HW121891   1.470   6.349   5.567
40039SOL    HW221892   1.356   6.259   5.608
40040SOL     OW21893  13.643   0.855   8.635
40040SOL    HW121894  13.689   0.773   8.652
40040SOL    HW221895  13.705   0.906   8.581
40041SOL     OW21896  14.048  13.555   3.395
40041SOL    HW121897  14.091  13.634   3.430
40041SOL    HW221898  14.010  13.584   3.312
40042SOL     OW21899   8.950   6.061  12.866
40042SOL    HW121900   8.932   6.149  12.898
40042SOL    HW221901   9.045   6.060  12.852
40043SOL     OW21902  12.279   9.362   7.361
40043SOL    HW121903  12.292   9.451   7.393
40043SOL    HW221904  12.348   9.310   7.403
40044SOL     OW21905   1.273   3.959   3.694
40044SOL    HW121906   1.241   3.900   3.763
40044SOL    HW221907   1.338   4.013   3.737
40045SOL     OW21908  11.782   2.533   1.059
40045SOL    HW121909  11.715   2.549   1.126
40045SOL    HW221910  11.820   2.449   1.083
40046SOL     OW21911   1.851   1.728   5.284
40046SOL    HW121912   1.935   1.765   5.256
40046SOL    HW221913   1.830   1.774   5.365
40047SOL     OW21914   0.660   2.419   2.006
40047SOL    HW121915   0.627   2.398   2.094
40047SOL    HW221916   0.620   2.354   1.949
40048SOL     OW21917  13.031   0.343   7.019
40048SOL    HW121918  13.099   0.404   7.046
40048SOL    HW221919  12.955   0.398   7.001
40049SOL     OW21920   0.682  13.448  11.905
40049SOL    HW121921   0.773  13.420  11.915
40049SOL    HW221922   0.632  13.367  11.896
40050SOL     OW21923  11.115   7.840  12.694
40050SOL    HW121924  11.127   7.880  12.781
40050SOL    HW221925  11.131   7.747  12.708
40051SOL     OW21926   1.581   7.779  13.983
40051SOL    HW121927   1.673   7.803  13.986
40051SOL    HW221928   1.568   7.742  13.896
40052SOL     OW21929  10.039   8.412   7.237
40052SOL    HW121930  10.075   8.373   7.157
40052SOL    HW221931   9.988   8.342   7.277
40053SOL     OW21932   1.023   0.953  12.535
40053SOL    HW121933   1.091   0.938  12.469
40053SOL    HW221934   0.947   0.983  12.485
40054SOL     OW21935   0.409   4.074   1.495
40054SOL    HW121936   0.470   4.003   1.513
40054SOL    HW221937   0.464   4.145   1.461
40055SOL     OW21938  14.693  13.744   5.716
40055SOL    HW121939  14.746  13.803   5.662
40055SOL    HW221940  14.756  13.706   5.778
40056SOL     OW21941  11.834   2.481   3.920
40056SOL    HW121942  11.783   2.405   3.893
40056SOL    HW221943  11.921   2.465   3.884
40057SOL     OW21944   6.438  13.204   6.962
40057SOL    HW121945   6.376  13.172   7.027
40057SOL    HW221946   6.519  13.220   7.011
40058SOL     OW21947  12.913   7.428   6.861
40058SOL    HW121948  12.876   7.420   6.773
40058SOL    HW221949  12.925   7.522   6.874
40059SOL     OW21950   5.636  10.702   9.051
40059SOL    HW121951   5.665  10.614   9.076
40059SOL    HW221952   5.612  10.744   9.134
40060SOL     OW21953  12.665  13.697  13.554
40060SOL    HW121954  12.589  13.697  13.496
40060SOL    HW221955  12.657  13.616  13.605
40061SOL     OW21956  13.470  10.735  12.244
40061SOL    HW121957  13.539  10.801  12.254
40061SOL    HW221958  13.389  10.780  12.268
40062SOL     OW21959   1.193  10.557   3.452
40062SOL    HW121960   1.210  10.590   3.540
40062SOL    HW221961   1.277  10.569   3.406
40063SOL     OW21962   0.985   2.275  13.365
40063SOL    HW121963   1.044   2.342  13.401
40063SOL    HW221964   0.904   2.322  13.348
40064SOL     OW21965  12.658   2.799  11.747
40064SOL    HW121966  12.606   2.876  11.769
40064SOL    HW221967  12.598   2.740  11.703
40065SOL     OW21968   9.095   2.226  12.519
40065SOL    HW121969   9.106   2.310  12.565
40065SOL    HW221970   9.001   2.207  12.527
40066SOL     OW21971   0.551   2.855   2.228
40066SOL    HW121972   0.612   2.886   2.160
40066SOL    HW221973   0.520   2.771   2.195
40067SOL     OW21974  11.147  11.892  12.326
40067SOL    HW121975  11.113  11.954  12.262
40067SOL    HW221976  11.075  11.877  12.387
40068SOL     OW21977   4.149   2.300  10.158
40068SOL    HW121978   4.158   2.270  10.249
40068SOL    HW221979   4.120   2.223  10.110
40069SOL     OW21980   9.781   2.669   8.384
40069SOL    HW121981   9.844   2.598   8.393
40069SOL    HW221982   9.772   2.705   8.472
40070SOL     OW21983  14.767   3.657   3.744
40070SOL    HW121984  14.706   3.696   3.681
40070SOL    HW221985  14.799   3.731   3.795
40071SOL     OW21986   3.163   2.563  12.463
40071SOL    HW121987   3.109   2.604  12.396
40071SOL    HW221988   3.246   2.611  12.460
40072SOL     OW21989  13.898  11.709   1.513
40072SOL    HW121990  13.858  11.624   1.496
40072SOL    HW221991  13.904  11.750   1.426
40073SOL     OW21992  14.762  13.483   8.320
40073SOL    HW121993  14.831  13.546   8.301
40073SOL    HW221994  14.742  13.495   8.413
40074SOL     OW21995   2.464   4.521   5.548
40074SOL    HW121996   2.412   4.572   5.486
40074SOL    HW221997   2.526   4.473   5.494
40075SOL     OW21998   4.579  10.663   3.006
40075SOL    HW121999   4.514  10.705   3.062
40075SOL    HW222000   4.547  10.677   2.917
40076SOL     OW22001   0.616   0.745   1.774
40076SOL    HW122002   0.537   0.776   1.820
40076SOL    HW222003   0.609   0.783   1.687
40077SOL     OW22004  10.486   0.516  10.689
40077SOL    HW122005  10.474   0.550  10.600
40077SOL    HW222006  10.490   0.594  10.744
40078SOL     OW22007   0.458   7.356  12.700
40078SOL    HW122008   0.487   7.349  12.790
40078SOL    HW222009   0.515   7.423  12.661
40079SOL     OW22010   3.161  14.477  11.238
40079SOL    HW122011   3.182  14.491  11.330
40079SOL    HW222012   3.150  14.383  11.230
40080SOL     OW22013   5.244   6.203   8.364
40080SOL    HW122014   5.302   6.267   8.322
40080SOL    HW222015   5.260   6.121   8.318
40081SOL     OW22016  13.399  13.312   1.695
40081SOL    HW122017  13.342  13.387   1.715
40081SOL    HW222018  13.452  13.300   1.774
40082SOL     OW22019   4.606   2.060   1.642
40082SOL    HW122020   4.634   2.149   1.663
40082SOL    HW222021   4.681   2.021   1.598
40083SOL     OW22022   0.858   8.275   0.661
40083SOL    HW122023   0.773   8.317   0.644
40083SOL    HW222024   0.915   8.307   0.592
40084SOL     OW22025   1.154   2.764  11.043
40084SOL    HW122026   1.214   2.751  10.969
40084SOL    HW222027   1.198   2.724  11.117
40085SOL     OW22028   3.678   2.166  13.469
40085SOL    HW122029   3.623   2.101  13.424
40085SOL    HW222030   3.624   2.196  13.542
40086SOL     OW22031  13.481   0.219   6.592
40086SOL    HW122032  13.560   0.258   6.629
40086SOL    HW222033  13.511   0.139   6.549
40087SOL     OW22034   8.997  13.540   5.121
40087SOL    HW122035   9.074  13.501   5.163
40087SOL    HW222036   8.938  13.562   5.194
40088SOL     OW22037  14.318  14.333   4.380
40088SOL    HW122038  14.397  14.279   4.378
40088SOL    HW222039  14.260  14.288   4.442
40089SOL     OW22040   4.846   2.213  14.271
40089SOL    HW122041   4.862   2.284  14.209
40089SOL    HW222042   4.927   2.205  14.320
40090SOL     OW22043   4.310   2.226   7.245
40090SOL    HW122044   4.339   2.189   7.161
40090SOL    HW222045   4.229   2.273   7.224
40091SOL     OW22046   3.914   1.174  13.162
40091SOL    HW122047   3.824   1.166  13.131
40091SOL    HW222048   3.907   1.171  13.257
40092SOL     OW22049   5.484   1.436  14.688
40092SOL    HW122050   5.543   1.505  14.719
40092SOL    HW222051   5.406   1.483  14.658
40093SOL     OW22052   9.388   8.145   3.971
40093SOL    HW122053   9.457   8.196   3.928
40093SOL    HW222054   9.432   8.066   4.002
40094SOL     OW22055   7.151  12.956   0.817
40094SOL    HW122056   7.175  12.902   0.741
40094SOL    HW222057   7.225  13.015   0.829
40095SOL     OW22058   9.222   4.967  13.879
40095SOL    HW122059   9.210   5.056  13.913
40095SOL    HW222060   9.238   4.914  13.957
40096SOL     OW22061  13.805  10.035   3.379
40096SOL    HW122062  13.890  10.079   3.380
40096SOL    HW222063  13.822   9.951   3.336
40097SOL     OW22064   5.374  12.579   3.103
40097SOL    HW122065   5.408  12.610   3.019
40097SOL    HW222066   5.407  12.489   3.111
40098SOL     OW22067   7.504   3.171   1.327
40098SOL    HW122068   7.487   3.183   1.421
40098SOL    HW222069   7.599   3.181   1.318
40099SOL     OW22070  13.017  12.464   2.739
40099SOL    HW122071  12.931  12.421   2.739
40099SOL    HW222072  13.047  12.458   2.649
40100SOL     OW22073   1.375   8.874   5.415
40100SOL    HW122074   1.282   8.882   5.438
40100SOL    HW222075   1.417   8.845   5.496
40101SOL     OW22076   0.267   1.450   8.543
40101SOL    HW122077   0.233   1.490   8.623
40101SOL    HW222078   0.348   1.407   8.570
40102SOL     OW22079  11.490  10.155  11.703
40102SOL    HW122080  11.550  10.226  11.679
40102SOL    HW222081  11.414  10.167  11.646
40103SOL     OW22082   9.588   0.114   4.956
40103SOL    HW122083   9.545   0.119   4.871
40103SOL    HW222084   9.544   0.180   5.009
40104SOL     OW22085  10.010  10.654   8.286
40104SOL    HW122086   9.967  10.570   8.301
40104SOL    HW222087  10.081  10.656   8.351
40105SOL     OW22088  13.323   0.651  12.394
40105SOL    HW122089  13.255   0.590  12.424
40105SOL    HW222090  13.401   0.596  12.382
40106SOL     OW22091   7.388  14.690  10.897
40106SOL    HW122092   7.319  14.639  10.939
40106SOL    HW222093   7.466  14.673  10.950
40107SOL     OW22094   2.146   7.726   2.737
40107SOL    HW122095   2.176   7.790   2.673
40107SOL    HW222096   2.217   7.662   2.743
40108SOL     OW22097   2.740  12.322   6.284
40108SOL    HW122098   2.704  12.233   6.284
40108SOL    HW222099   2.826  12.314   6.244
40109SOL     OW22100   0.776  12.321   4.478
40109SOL    HW122101   0.852  12.263   4.485
40109SOL    HW222102   0.720  12.297   4.552
40110SOL     OW22103  11.222  14.703  11.982
40110SOL    HW122104  11.202  14.780  11.928
40110SOL    HW222105  11.174  14.631  11.940
40111SOL     OW22106   7.195  11.069   8.436
40111SOL    HW122107   7.193  10.974   8.429
40111SOL    HW222108   7.251  11.087   8.512
40112SOL     OW22109   6.569   6.367  14.013
40112SOL    HW122110   6.654   6.323  14.017
40112SOL    HW222111   6.508   6.305  14.053
40113SOL     OW22112  14.456   6.194   2.077
40113SOL    HW122113  14.523   6.140   2.035
40113SOL    HW222114  14.392   6.212   2.007
40114SOL     OW22115   2.452  13.264  14.242
40114SOL    HW122116   2.494  13.207  14.307
40114SOL    HW222117   2.523  13.287  14.182
40115SOL     OW22118   3.628  12.138   9.436
40115SOL    HW122119   3.665  12.054   9.411
40115SOL    HW222120   3.640  12.195   9.360
40116SOL     OW22121   4.677  13.585   1.987
40116SOL    HW122122   4.595  13.625   2.017
40116SOL    HW222123   4.714  13.650   1.927
40117SOL     OW22124  12.805   4.634   3.821
40117SOL    HW122125  12.796   4.557   3.764
40117SOL    HW222126  12.896   4.661   3.810
40118SOL     OW22127   1.793   8.832  12.541
40118SOL    HW122128   1.866   8.774  12.518
40118SOL    HW222129   1.716   8.789  12.505
40119SOL     OW22130  11.308   7.992   7.117
40119SOL    HW122131  11.260   7.934   7.058
40119SOL    HW222132  11.240   8.044   7.160
40120SOL     OW22133  11.643   4.809  12.361
40120SOL    HW122134  11.703   4.853  12.302
40120SOL    HW222135  11.696   4.787  12.438
40121SOL     OW22136  13.922   3.935   2.179
40121SOL    HW122137  13.919   3.854   2.230
40121SOL    HW222138  13.854   3.923   2.112
40122SOL     OW22139  11.516   4.048   8.334
40122SOL    HW122140  11.459   3.994   8.390
40122SOL    HW222141  11.470   4.050   8.250
40123SOL     OW22142   3.616   8.537   6.889
40123SOL    HW122143   3.575   8.612   6.847
40123SOL    HW222144   3.560   8.463   6.865
40124SOL     OW22145   7.306   3.809   5.587
40124SOL    HW122146   7.260   3.807   5.504
40124SOL    HW222147   7.384   3.863   5.571
40125SOL     OW22148  13.423  12.320   6.919
40125SOL    HW122149  13.410  12.376   6.842
40125SOL    HW222150  13.349  12.340   6.975
40126SOL     OW22151  13.415   1.967   4.523
40126SOL    HW122152  13.489   1.912   4.547
40126SOL    HW222153  13.454   2.045   4.485
40127SOL     OW22154  10.921   3.826  12.677
40127SOL    HW122155  10.953   3.736  12.685
40127SOL    HW222156  10.981   3.877  12.732
40128SOL     OW22157  11.424   5.713  14.104
40128SOL    HW122158  11.386   5.788  14.151
40128SOL    HW222159  11.498   5.748  14.057
40129SOL     OW22160   6.342   2.648   9.794
40129SOL    HW122161   6.316   2.702   9.869
40129SOL    HW222162   6.261   2.631   9.747
40130SOL     OW22163  12.456   1.144   6.559
40130SOL    HW122164  12.451   1.121   6.651
40130SOL    HW222165  12.517   1.082   6.521
40131SOL     OW22166   8.904  11.418   7.576
40131SOL    HW122167   8.870  11.421   7.666
40131SOL    HW222168   8.979  11.359   7.581
40132SOL     OW22169   8.560   6.741   7.543
40132SOL    HW122170   8.469   6.723   7.519
40132SOL    HW222171   8.583   6.671   7.604
40133SOL     OW22172   5.957   1.439   9.281
40133SOL    HW122173   5.880   1.388   9.308
40133SOL    HW222174   5.920   1.517   9.239
40134SOL     OW22175  11.479   6.725  10.044
40134SOL    HW122176  11.542   6.764  10.104
40134SOL    HW222177  11.413   6.685  10.101
40135SOL     OW22178   9.505   3.070  12.730
40135SOL    HW122179   9.450   3.012  12.783
40135SOL    HW222180   9.593   3.059  12.765
40136SOL     OW22181   4.558  11.010   7.511
40136SOL    HW122182   4.632  11.051   7.468
40136SOL    HW222183   4.481  11.054   7.475
40137SOL     OW22184  12.382   1.130  11.437
40137SOL    HW122185  12.417   1.185  11.507
40137SOL    HW222186  12.410   1.041  11.460
40138SOL     OW22187   3.809   7.982   8.456
40138SOL    HW122188   3.819   7.958   8.364
40138SOL    HW222189   3.715   7.997   8.467
40139SOL     OW22190   0.025   5.222   9.020
40139SOL    HW122191   0.021   5.287   9.091
40139SOL    HW222192  14.866   5.142   9.058
40140SOL     OW22193  12.847   4.330  11.733
40140SOL    HW122194  12.872   4.421  11.750
40140SOL    HW222195  12.752   4.333  11.725
40141SOL     OW22196   7.708   8.789  11.088
40141SOL    HW122197   7.744   8.867  11.131
40141SOL    HW222198   7.782   8.749  11.043
40142SOL     OW22199  14.107   3.888  10.780
40142SOL    HW122200  14.073   3.844  10.858
40142SOL    HW222201  14.162   3.958  10.814
40143SOL     OW22202   0.022  11.981  14.845
40143SOL    HW122203   0.025  11.942   0.055
40143SOL    HW222204   0.110  11.968  14.810
40144SOL     OW22205   9.827   2.481   9.176
40144SOL    HW122206   9.739   2.461   9.207
40144SOL    HW222207   9.868   2.395   9.164
40145SOL     OW22208  13.056   2.734   6.620
40145SOL    HW122209  13.016   2.716   6.705
40145SOL    HW222210  13.103   2.816   6.633
40146SOL     OW22211   5.380   4.956   7.526
40146SOL    HW122212   5.376   4.905   7.607
40146SOL    HW222213   5.404   4.893   7.459
40147SOL     OW22214   3.327   2.539   2.945
40147SOL    HW122215   3.340   2.449   2.975
40147SOL    HW222216   3.340   2.535   2.851
40148SOL     OW22217  10.304   3.249   5.013
40148SOL    HW122218  10.386   3.281   5.051
40148SOL    HW222219  10.236   3.280   5.072
40149SOL     OW22220   0.972  12.238   7.395
40149SOL    HW122221   0.939  12.242   7.484
40149SOL    HW222222   0.940  12.318   7.353
40150SOL     OW22223   5.894  14.857  12.947
40150SOL    HW122224   5.984  14.875  12.923
40150SOL    HW222225   5.900  14.817  13.034
40151SOL     OW22226   5.641   8.040   1.827
40151SOL    HW122227   5.699   8.101   1.871
40151SOL    HW222228   5.698   7.973   1.790
40152SOL     OW22229   3.965   1.246   9.809
40152SOL    HW122230   3.932   1.212   9.726
40152SOL    HW222231   4.029   1.313   9.784
40153SOL     OW22232  10.936   9.799   4.967
40153SOL    HW122233  11.003   9.836   4.908
40153SOL    HW222234  10.856   9.801   4.915
40154SOL     OW22235   4.807   6.229   9.848
40154SOL    HW122236   4.879   6.264   9.900
40154SOL    HW222237   4.796   6.292   9.776
40155SOL     OW22238   4.862   4.524   9.630
40155SOL    HW122239   4.790   4.576   9.594
40155SOL    HW222240   4.932   4.534   9.566
40156SOL     OW22241   8.338   3.511   8.915
40156SOL    HW122242   8.356   3.418   8.930
40156SOL    HW222243   8.260   3.530   8.966
40157SOL     OW22244  10.182  14.680   8.227
40157SOL    HW122245  10.277  14.667   8.238
40157SOL    HW222246  10.170  14.775   8.236
40158SOL     OW22247  12.572   7.342  10.640
40158SOL    HW122248  12.655   7.349  10.592
40158SOL    HW222249  12.596   7.307  10.725
40159SOL     OW22250  13.835  12.128   3.576
40159SOL    HW122251  13.876  12.215   3.571
40159SOL    HW222252  13.863  12.094   3.661
40160SOL     OW22253   8.211  11.590   1.120
40160SOL    HW122254   8.263  11.650   1.067
40160SOL    HW222255   8.218  11.624   1.209
40161SOL     OW22256   8.771   3.136  13.925
40161SOL    HW122257   8.791   3.093  14.008
40161SOL    HW222258   8.675   3.132  13.918
40162SOL     OW22259   7.354  13.043  11.569
40162SOL    HW122260   7.310  13.055  11.485
40162SOL    HW222261   7.288  13.004  11.626
40163SOL     OW22262   1.428   6.224   7.755
40163SOL    HW122263   1.381   6.142   7.768
40163SOL    HW222264   1.493   6.205   7.687
40164SOL     OW22265   1.352   6.999   4.702
40164SOL    HW122266   1.265   6.967   4.728
40164SOL    HW222267   1.337   7.087   4.669
40165SOL     OW22268  11.141  10.397   2.710
40165SOL    HW122269  11.087  10.328   2.672
40165SOL    HW222270  11.185  10.436   2.635
40166SOL     OW22271   5.061  10.409  10.492
40166SOL    HW122272   5.059  10.423  10.587
40166SOL    HW222273   4.970  10.413  10.465
40167SOL     OW22274   6.982  14.424   1.958
40167SOL    HW122275   7.053  14.367   1.927
40167SOL    HW222276   6.913  14.363   1.984
40168SOL     OW22277  13.268   2.642  12.369
40168SOL    HW122278  13.235   2.631  12.458
40168SOL    HW222279  13.333   2.712  12.376
40169SOL     OW22280   8.988   0.282   6.785
40169SOL    HW122281   9.020   0.202   6.742
40169SOL    HW222282   8.921   0.250   6.846
40170SOL     OW22283   0.767   3.954   2.857
40170SOL    HW122284   0.803   4.005   2.929
40170SOL    HW222285   0.806   3.992   2.778
40171SOL     OW22286   2.853   5.082   1.879
40171SOL    HW122287   2.861   5.162   1.827
40171SOL    HW222288   2.801   5.023   1.824
40172SOL     OW22289  14.449  13.608   4.860
40172SOL    HW122290  14.466  13.681   4.919
40172SOL    HW222291  14.514  13.542   4.884
40173SOL     OW22292   6.139   2.239  11.976
40173SOL    HW122293   6.162   2.218  11.886
40173SOL    HW222294   6.139   2.155  12.021
40174SOL     OW22295  13.376  13.065   1.893
40174SOL    HW122296  13.428  13.105   1.963
40174SOL    HW222297  13.442  13.040   1.827
40175SOL     OW22298   4.593   4.731   8.665
40175SOL    HW122299   4.527   4.726   8.596
40175SOL    HW222300   4.564   4.669   8.732
40176SOL     OW22301  14.621  14.684   9.759
40176SOL    HW122302  14.623  14.652   9.849
40176SOL    HW222303  14.562  14.623   9.714
40177SOL     OW22304   0.943   9.812   9.085
40177SOL    HW122305   0.921   9.899   9.051
40177SOL    HW222306   1.027   9.791   9.044
40178SOL     OW22307   6.365   9.041  12.684
40178SOL    HW122308   6.342   8.981  12.612
40178SOL    HW222309   6.311   9.012  12.757
40179SOL     OW22310   6.275   2.699   6.506
40179SOL    HW122311   6.262   2.779   6.557
40179SOL    HW222312   6.370   2.693   6.494
40180SOL     OW22313   2.649   4.222   9.714
40180SOL    HW122314   2.559   4.193   9.703
40180SOL    HW222315   2.698   4.174   9.648
40181SOL     OW22316   1.712   9.931   4.334
40181SOL    HW122317   1.753   9.846   4.345
40181SOL    HW222318   1.688   9.958   4.423
40182SOL     OW22319   5.285  14.823  12.949
40182SOL    HW122320   5.311  14.742  12.993
40182SOL    HW222321   5.246  14.876  13.018
40183SOL     OW22322  10.279   9.381   2.943
40183SOL    HW122323  10.263   9.467   2.904
40183SOL    HW222324  10.354   9.395   3.002
40184SOL     OW22325   3.220   6.616   3.701
40184SOL    HW122326   3.240   6.609   3.607
40184SOL    HW222327   3.187   6.530   3.725
40185SOL     OW22328  13.393   7.335   4.661
40185SOL    HW122329  13.416   7.321   4.753
40185SOL    HW222330  13.405   7.250   4.620
40186SOL     OW22331   4.331  14.790  13.473
40186SOL    HW122332   4.346  14.752  13.386
40186SOL    HW222333   4.363  14.724  13.534
40187SOL     OW22334   9.806  14.155   0.640
40187SOL    HW122335   9.745  14.217   0.600
40187SOL    HW222336   9.778  14.069   0.607
40188SOL     OW22337   8.690   9.100  11.669
40188SOL    HW122338   8.761   9.119  11.609
40188SOL    HW222339   8.675   9.182  11.716
40189SOL     OW22340   7.578   7.444   7.658
40189SOL    HW122341   7.662   7.427   7.617
40189SOL    HW222342   7.570   7.539   7.658
40190SOL     OW22343   4.728   2.362   5.829
40190SOL    HW122344   4.677   2.409   5.895
40190SOL    HW222345   4.685   2.277   5.822
40191SOL     OW22346   8.181   2.643   1.158
40191SOL    HW122347   8.213   2.553   1.169
40191SOL    HW222348   8.118   2.637   1.087
40192SOL     OW22349  10.923  12.124   9.198
40192SOL    HW122350  10.976  12.069   9.256
40192SOL    HW222351  10.901  12.068   9.124
40193SOL     OW22352   6.108   8.220   5.105
40193SOL    HW122353   6.103   8.125   5.106
40193SOL    HW222354   6.194   8.239   5.143
40194SOL     OW22355  12.377   2.494  14.636
40194SOL    HW122356  12.459   2.497  14.587
40194SOL    HW222357  12.366   2.583  14.670
40195SOL     OW22358  12.055  10.666   6.355
40195SOL    HW122359  12.054  10.756   6.387
40195SOL    HW222360  12.023  10.673   6.265
40196SOL     OW22361   2.648  11.102   1.465
40196SOL    HW122362   2.716  11.155   1.423
40196SOL    HW222363   2.583  11.165   1.494
40197SOL     OW22364   4.497   4.779   7.440
40197SOL    HW122365   4.453   4.720   7.502
40197SOL    HW222366   4.519   4.724   7.366
40198SOL     OW22367   9.699   5.296   2.916
40198SOL    HW122368   9.751   5.274   2.839
40198SOL    HW222369   9.608   5.289   2.887
40199SOL     OW22370   2.594   3.476  10.762
40199SOL    HW122371   2.602   3.486  10.667
40199SOL    HW222372   2.516   3.527  10.785
40200SOL     OW22373  12.904   9.439   7.001
40200SOL    HW122374  12.819   9.424   7.042
40200SOL    HW222375  12.960   9.369   7.035
40201SOL     OW22376  10.653   3.352   6.391
40201SOL    HW122377  10.590   3.315   6.328
40201SOL    HW222378  10.645   3.447   6.379
40202SOL     OW22379   7.121   0.132  14.558
40202SOL    HW122380   7.103   0.191  14.484
40202SOL    HW222381   7.067   0.055  14.541
40203SOL     OW22382  11.255  12.623   1.828
40203SOL    HW122383  11.315  12.564   1.782
40203SOL    HW222384  11.177  12.569   1.846
40204SOL     OW22385   7.649   4.508   9.275
40204SOL    HW122386   7.663   4.568   9.201
40204SOL    HW222387   7.687   4.553   9.350
40205SOL     OW22388  14.727  13.267   3.396
40205SOL    HW122389  14.695  13.218   3.472
40205SOL    HW222390  14.665  13.340   3.387
40206SOL     OW22391  13.821   9.455  12.046
40206SOL    HW122392  13.880   9.380  12.055
40206SOL    HW222393  13.862   9.524  12.097
40207SOL     OW22394   0.940   1.948   8.560
40207SOL    HW122395   0.887   1.869   8.551
40207SOL    HW222396   1.028   1.915   8.579
40208SOL     OW22397   5.254   9.978   3.337
40208SOL    HW122398   5.315   9.911   3.305
40208SOL    HW222399   5.179   9.973   3.277
40209SOL     OW22400   1.849   3.542  11.913
40209SOL    HW122401   1.787   3.539  11.840
40209SOL    HW222402   1.814   3.608  11.972
40210SOL     OW22403   5.382  10.121   9.485
40210SOL    HW122404   5.458  10.132   9.542
40210SOL    HW222405   5.347  10.210   9.475
40211SOL     OW22406   4.134   6.124   5.420
40211SOL    HW122407   4.113   6.210   5.454
40211SOL    HW222408   4.089   6.063   5.478
40212SOL     OW22409  13.262   9.463   1.384
40212SOL    HW122410  13.253   9.538   1.442
40212SOL    HW222411  13.219   9.391   1.431
40213SOL     OW22412   0.191  13.376  12.957
40213SOL    HW122413   0.118  13.421  12.915
40213SOL    HW222414   0.219  13.435  13.027
40214SOL     OW22415   8.577   0.478  10.427
40214SOL    HW122416   8.532   0.561  10.447
40214SOL    HW222417   8.668   0.493  10.451
40215SOL     OW22418  12.383   4.236   0.270
40215SOL    HW122419  12.369   4.142   0.279
40215SOL    HW222420  12.329   4.261   0.195
40216SOL     OW22421   7.062   9.051  14.750
40216SOL    HW122422   7.015   9.025  14.671
40216SOL    HW222423   7.075   8.969  14.798
40217SOL     OW22424  12.314   1.478  11.469
40217SOL    HW122425  12.359   1.533  11.405
40217SOL    HW222426  12.383   1.426  11.510
40218SOL     OW22427   8.060   8.732   1.623
40218SOL    HW122428   8.128   8.797   1.608
40218SOL    HW222429   7.987   8.761   1.567
40219SOL     OW22430   2.269   6.614   9.949
40219SOL    HW122431   2.282   6.532   9.997
40219SOL    HW222432   2.345   6.667   9.973
40220SOL     OW22433   9.802   5.881  10.458
40220SOL    HW122434   9.854   5.857  10.535
40220SOL    HW222435   9.853   5.849  10.384
40221SOL     OW22436   2.021   3.428   7.998
40221SOL    HW122437   2.002   3.494   7.931
40221SOL    HW222438   1.977   3.349   7.965
40222SOL     OW22439   0.918   7.994   0.252
40222SOL    HW122440   0.950   7.958   0.335
40222SOL    HW222441   0.858   7.928   0.218
40223SOL     OW22442   2.091  12.472   0.581
40223SOL    HW122443   2.012  12.465   0.634
40223SOL    HW222444   2.153  12.412   0.622
40224SOL     OW22445   6.110   2.248  13.055
40224SOL    HW122446   6.156   2.168  13.080
40224SOL    HW222447   6.180   2.313  13.046
40225SOL     OW22448   1.610   2.512   0.921
40225SOL    HW122449   1.583   2.423   0.899
40225SOL    HW222450   1.685   2.529   0.864
40226SOL     OW22451  14.831   0.408   9.630
40226SOL    HW122452   0.047   0.401   9.648
40226SOL    HW222453  14.827   0.451   9.544
40227SOL     OW22454  13.994  12.460  14.725
40227SOL    HW122455  13.982  12.548  14.688
40227SOL    HW222456  13.947  12.461  14.808
40228SOL     OW22457  12.977  13.884  12.545
40228SOL    HW122458  13.008  13.796  12.523
40228SOL    HW222459  12.920  13.908  12.472
40229SOL     OW22460   1.644   7.045   3.410
40229SOL    HW122461   1.657   7.114   3.345
40229SOL    HW222462   1.727   7.041   3.457
40230SOL     OW22463   1.114   6.798   9.642
40230SOL    HW122464   1.130   6.713   9.602
40230SOL    HW222465   1.195   6.819   9.689
40231SOL     OW22466   3.243   9.600  14.621
40231SOL    HW122467   3.194   9.569  14.697
40231SOL    HW222468   3.272   9.521  14.577
40232SOL     OW22469   7.799  12.724   9.791
40232SOL    HW122470   7.880  12.710   9.741
40232SOL    HW222471   7.765  12.807   9.759
40233SOL     OW22472   3.661   4.556   0.553
40233SOL    HW122473   3.591   4.493   0.571
40233SOL    HW222474   3.725   4.541   0.623
40234SOL     OW22475   0.623   3.507   0.575
40234SOL    HW122476   0.596   3.432   0.522
40234SOL    HW222477   0.542   3.555   0.591
40235SOL     OW22478   0.085   1.970   5.297
40235SOL    HW122479   0.132   1.886   5.292
40235SOL    HW222480   0.154   2.035   5.311
40236SOL     OW22481   1.155  12.365   4.933
40236SOL    HW122482   1.181  12.274   4.919
40236SOL    HW222483   1.142  12.372   5.028
40237SOL     OW22484   9.943   5.658   5.393
40237SOL    HW122485   9.978   5.647   5.304
40237SOL    HW222486   9.984   5.587   5.443
40238SOL     OW22487  12.589   3.160   4.817
40238SOL    HW122488  12.605   3.196   4.905
40238SOL    HW222489  12.557   3.235   4.766
40239SOL     OW22490   4.778   3.753   6.874
40239SOL    HW122491   4.754   3.758   6.782
40239SOL    HW222492   4.723   3.684   6.910
40240SOL     OW22493  11.476   6.099  11.258
40240SOL    HW122494  11.507   6.012  11.283
40240SOL    HW222495  11.549   6.139  11.212
40241SOL     OW22496   6.282   0.758   5.898
40241SOL    HW122497   6.375   0.780   5.899
40241SOL    HW222498   6.241   0.827   5.846
40242SOL     OW22499   7.674   3.795   3.698
40242SOL    HW122500   7.603   3.765   3.642
40242SOL    HW222501   7.754   3.767   3.653
40243SOL     OW22502   9.132  11.325  12.527
40243SOL    HW122503   9.091  11.403  12.489
40243SOL    HW222504   9.061  11.261  12.533
40244SOL     OW22505   0.914  12.096  11.702
40244SOL    HW122506   0.925  12.086  11.608
40244SOL    HW222507   0.859  12.022  11.727
40245SOL     OW22508   5.033  12.238   8.492
40245SOL    HW122509   5.084  12.238   8.411
40245SOL    HW222510   5.098  12.228   8.562
40246SOL     OW22511  14.758   9.275   8.107
40246SOL    HW122512  14.819   9.211   8.144
40246SOL    HW222513  14.673   9.232   8.109
40247SOL     OW22514  14.086   4.894  13.195
40247SOL    HW122515  14.013   4.954  13.207
40247SOL    HW222516  14.066   4.847  13.114
40248SOL     OW22517   6.344   3.970   7.345
40248SOL    HW122518   6.379   3.892   7.390
40248SOL    HW222519   6.284   3.934   7.280
40249SOL     OW22520  14.581   3.952   5.730
40249SOL    HW122521  14.525   3.919   5.660
40249SOL    HW222522  14.670   3.929   5.703
40250SOL     OW22523  14.518   8.851   5.883
40250SOL    HW122524  14.438   8.822   5.926
40250SOL    HW222525  14.529   8.791   5.809
40251SOL     OW22526   4.063   2.346   7.190
40251SOL    HW122527   4.085   2.437   7.168
40251SOL    HW222528   3.997   2.321   7.125
40252SOL     OW22529   0.318  14.342   7.309
40252SOL    HW122530   0.257  14.369   7.378
40252SOL    HW222531   0.336  14.422   7.261
40253SOL     OW22532  13.772   9.306   0.734
40253SOL    HW122533  13.733   9.219   0.728
40253SOL    HW222534  13.700   9.367   0.717
40254SOL     OW22535   1.490  13.461   1.593
40254SOL    HW122536   1.433  13.437   1.667
40254SOL    HW222537   1.533  13.378   1.569
40255SOL     OW22538   5.038   3.015  14.816
40255SOL    HW122539   5.108   3.050  14.761
40255SOL    HW222540   5.037   2.922  14.797
40256SOL     OW22541  11.239   3.355   3.507
40256SOL    HW122542  11.160   3.332   3.459
40256SOL    HW222543  11.244   3.451   3.501
40257SOL     OW22544   8.535   6.811  10.849
40257SOL    HW122545   8.630   6.809  10.839
40257SOL    HW222546   8.507   6.720  10.836
40258SOL     OW22547  11.804   3.955   8.024
40258SOL    HW122548  11.761   3.893   7.965
40258SOL    HW222549  11.765   4.040   8.003
40259SOL     OW22550   7.725   8.017  11.195
40259SOL    HW122551   7.793   8.078  11.167
40259SOL    HW222552   7.737   7.941  11.139
40260SOL     OW22553   6.307  11.072  11.047
40260SOL    HW122554   6.271  10.990  11.080
40260SOL    HW222555   6.232  11.129  11.037
40261SOL     OW22556   8.714   0.871  11.542
40261SOL    HW122557   8.754   0.786  11.561
40261SOL    HW222558   8.739   0.889  11.451
40262SOL     OW22559   0.182   1.121  11.004
40262SOL    HW122560   0.115   1.109  10.936
40262SOL    HW222561   0.265   1.101  10.960
40263SOL     OW22562  13.310  12.133  14.855
40263SOL    HW122563  13.266  12.186   0.044
40263SOL    HW222564  13.331  12.196  14.785
40264SOL     OW22565   1.468  14.557  13.164
40264SOL    HW122566   1.492  14.597  13.080
40264SOL    HW222567   1.387  14.510  13.146
40265SOL     OW22568   4.140  10.573   4.908
40265SOL    HW122569   4.205  10.636   4.937
40265SOL    HW222570   4.181  10.487   4.921
40266SOL     OW22571  14.092   7.500   5.314
40266SOL    HW122572  14.172   7.495   5.263
40266SOL    HW222573  14.085   7.415   5.358
40267SOL     OW22574   9.144   6.735  12.917
40267SOL    HW122575   9.208   6.666  12.900
40267SOL    HW222576   9.105   6.752  12.832
40268SOL     OW22577  12.495   1.155  10.710
40268SOL    HW122578  12.541   1.168  10.794
40268SOL    HW222579  12.563   1.166  10.644
40269SOL     OW22580  13.182   7.515   5.828
40269SOL    HW122581  13.213   7.424   5.829
40269SOL    HW222582  13.247   7.562   5.881
40270SOL     OW22583   4.102  11.190   9.773
40270SOL    HW122584   4.039  11.177   9.703
40270SOL    HW222585   4.095  11.111   9.827
40271SOL     OW22586  13.725   6.546   1.629
40271SOL    HW122587  13.807   6.591   1.651
40271SOL    HW222588  13.713   6.482   1.698
40272SOL     OW22589   0.384   1.222   1.545
40272SOL    HW122590   0.421   1.191   1.462
40272SOL    HW222591   0.290   1.225   1.529
40273SOL     OW22592  10.963  13.213   6.482
40273SOL    HW122593  10.942  13.147   6.415
40273SOL    HW222594  10.929  13.176   6.563
40274SOL     OW22595   3.790   3.537  10.788
40274SOL    HW122596   3.787   3.450  10.828
40274SOL    HW222597   3.772   3.597  10.861
40275SOL     OW22598  14.615   2.489  10.801
40275SOL    HW122599  14.631   2.572  10.757
40275SOL    HW222600  14.693   2.436  10.781
40276SOL     OW22601  13.574  14.553   5.341
40276SOL    HW122602  13.613  14.476   5.382
40276SOL    HW222603  13.541  14.522   5.257
40277SOL     OW22604   7.254   6.663   8.187
40277SOL    HW122605   7.190   6.719   8.142
40277SOL    HW222606   7.273   6.594   8.124
40278SOL     OW22607  11.432   6.038  12.022
40278SOL    HW122608  11.428   6.079  12.108
40278SOL    HW222609  11.346   5.996  12.011
40279SOL     OW22610   8.920  13.309   7.571
40279SOL    HW122611   8.830  13.307   7.605
40279SOL    HW222612   8.973  13.274   7.643
40280SOL     OW22613   6.321   6.486   7.570
40280SOL    HW122614   6.408   6.486   7.609
40280SOL    HW222615   6.337   6.487   7.475
40281SOL     OW22616   9.869   8.189   7.326
40281SOL    HW122617   9.836   8.109   7.286
40281SOL    HW222618   9.908   8.161   7.408
40282SOL     OW22619  12.667  11.652   7.035
40282SOL    HW122620  12.740  11.662   6.974
40282SOL    HW222621  12.596  11.705   6.997
40283SOL     OW22622  14.411  14.383   1.490
40283SOL    HW122623  14.378  14.466   1.526
40283SOL    HW222624  14.332  14.335   1.464
40284SOL     OW22625  12.413   0.448   5.993
40284SOL    HW122626  12.408   0.544   5.989
40284SOL    HW222627  12.323   0.419   5.979
40285SOL     OW22628   7.559   6.912   4.226
40285SOL    HW122629   7.650   6.936   4.240
40285SOL    HW222630   7.545   6.837   4.282
40286SOL     OW22631   9.069  14.484   2.824
40286SOL    HW122632   9.110  14.553   2.773
40286SOL    HW222633   9.094  14.403   2.781
40287SOL     OW22634   1.202   0.435  14.704
40287SOL    HW122635   1.256   0.416  14.627
40287SOL    HW222636   1.159   0.352  14.724
40288SOL     OW22637   5.595   4.012   9.520
40288SOL    HW122638   5.636   3.967   9.445
40288SOL    HW222639   5.652   4.088   9.536
40289SOL     OW22640   2.583   7.405  10.249
40289SOL    HW122641   2.502   7.407  10.299
40289SOL    HW222642   2.567   7.465  10.176
40290SOL     OW22643  12.366   0.867   6.333
40290SOL    HW122644  12.274   0.844   6.323
40290SOL    HW222645  12.383   0.929   6.262
40291SOL     OW22646   4.554  13.382   2.415
40291SOL    HW122647   4.635  13.399   2.368
40291SOL    HW222648   4.580  13.378   2.507
40292SOL     OW22649  11.584   1.387  13.276
40292SOL    HW122650  11.654   1.332  13.311
40292SOL    HW222651  11.622   1.425  13.196
40293SOL     OW22652  12.515  14.332   1.257
40293SOL    HW122653  12.530  14.295   1.170
40293SOL    HW222654  12.567  14.413   1.257
40294SOL     OW22655   6.171  13.040  10.557
40294SOL    HW122656   6.206  12.968  10.504
40294SOL    HW222657   6.083  13.053  10.523
40295SOL     OW22658   3.004  10.570   3.927
40295SOL    HW122659   2.991  10.593   3.835
40295SOL    HW222660   3.096  10.544   3.933
40296SOL     OW22661   8.696   5.804   4.176
40296SOL    HW122662   8.625   5.832   4.233
40296SOL    HW222663   8.767   5.865   4.194
40297SOL     OW22664   0.054   7.816   6.659
40297SOL    HW122665   0.016   7.896   6.695
40297SOL    HW222666   0.069   7.760   6.736
40298SOL     OW22667  12.824   1.734  13.975
40298SOL    HW122668  12.893   1.800  13.977
40298SOL    HW222669  12.829   1.690  14.060
40299SOL     OW22670   5.678   8.345  13.132
40299SOL    HW122671   5.668   8.440  13.124
40299SOL    HW222672   5.710   8.317  13.046
40300SOL     OW22673  10.288   6.853   6.765
40300SOL    HW122674  10.243   6.881   6.686
40300SOL    HW222675  10.377   6.888   6.756
40301SOL     OW22676  12.666   9.417  12.077
40301SOL    HW122677  12.609   9.341  12.090
40301SOL    HW222678  12.723   9.417  12.153
40302SOL     OW22679   3.856   9.203  13.220
40302SOL    HW122680   3.785   9.152  13.181
40302SOL    HW222681   3.858   9.175  13.312
40303SOL     OW22682   2.701   7.071   4.240
40303SOL    HW122683   2.686   7.154   4.285
40303SOL    HW222684   2.758   7.094   4.166
40304SOL     OW22685   6.290   4.358  12.739
40304SOL    HW122686   6.296   4.334  12.832
40304SOL    HW222687   6.332   4.286  12.693
40305SOL     OW22688  14.439  10.709   0.302
40305SOL    HW122689  14.437  10.771   0.375
40305SOL    HW222690  14.379  10.745   0.238
40306SOL     OW22691  12.380   2.785  11.144
40306SOL    HW122692  12.366   2.699  11.185
40306SOL    HW222693  12.359   2.848  11.213
40307SOL     OW22694   0.878  12.087   4.325
40307SOL    HW122695   0.969  12.062   4.312
40307SOL    HW222696   0.828  12.007   4.306
40308SOL     OW22697   6.799   7.209   2.464
40308SOL    HW122698   6.749   7.291   2.454
40308SOL    HW222699   6.854   7.224   2.541
40309SOL     OW22700   5.365   1.784   2.028
40309SOL    HW122701   5.449   1.740   2.013
40309SOL    HW222702   5.333   1.746   2.110
40310SOL     OW22703  10.083   2.511  13.635
40310SOL    HW122704  10.167   2.532  13.594
40310SOL    HW222705  10.058   2.427  13.596
40311SOL     OW22706   8.706  10.165  10.818
40311SOL    HW122707   8.794  10.136  10.796
40311SOL    HW222708   8.662  10.175  10.733
40312SOL     OW22709   2.857   4.673  12.379
40312SOL    HW122710   2.813   4.588  12.382
40312SOL    HW222711   2.791   4.736  12.408
40313SOL     OW22712  11.712   0.516   0.479
40313SOL    HW122713  11.786   0.486   0.532
40313SOL    HW222714  11.635   0.482   0.523
40314SOL     OW22715   7.205   7.983  14.067
40314SOL    HW122716   7.228   8.063  14.113
40314SOL    HW222717   7.184   7.920  14.136
40315SOL     OW22718  10.247  14.376  11.018
40315SOL    HW122719  10.253  14.441  10.948
40315SOL    HW222720  10.162  14.335  11.005
40316SOL     OW22721  14.075   3.270   9.749
40316SOL    HW122722  14.027   3.199   9.706
40316SOL    HW222723  14.102   3.328   9.677
40317SOL     OW22724  10.876   4.463  14.298
40317SOL    HW122725  10.799   4.518  14.310
40317SOL    HW222726  10.846   4.392  14.241
40318SOL     OW22727   4.649  14.833  13.608
40318SOL    HW122728   4.621  14.783  13.685
40318SOL    HW222729   4.744  14.826  13.608
40319SOL     OW22730  10.261  10.344   7.760
40319SOL    HW122731  10.258  10.251   7.737
40319SOL    HW222732  10.314  10.384   7.690
40320SOL     OW22733  13.017   7.132  12.238
40320SOL    HW122734  12.932   7.103  12.203
40320SOL    HW222735  12.995   7.175  12.321
40321SOL     OW22736   5.146   0.260  11.995
40321SOL    HW122737   5.157   0.213  12.078
40321SOL    HW222738   5.231   0.251  11.952
40322SOL     OW22739  10.180   4.169   9.960
40322SOL    HW122740  10.272   4.154   9.984
40322SOL    HW222741  10.130   4.137  10.035
40323SOL     OW22742   5.014  12.105   0.912
40323SOL    HW122743   4.951  12.169   0.877
40323SOL    HW222744   5.000  12.109   1.007
40324SOL     OW22745   9.438   1.046   4.843
40324SOL    HW122746   9.394   1.091   4.916
40324SOL    HW222747   9.443   0.955   4.872
40325SOL     OW22748   6.777   4.888   7.477
40325SOL    HW122749   6.739   4.891   7.390
40325SOL    HW222750   6.728   4.953   7.527
40326SOL     OW22751   1.468   2.063  13.798
40326SOL    HW122752   1.522   2.143  13.801
40326SOL    HW222753   1.435   2.053  13.887
40327SOL     OW22754   5.420   4.280   9.741
40327SOL    HW122755   5.359   4.216   9.706
40327SOL    HW222756   5.387   4.364   9.711
40328SOL     OW22757  13.906   9.338  14.592
40328SOL    HW122758  13.970   9.409  14.580
40328SOL    HW222759  13.842   9.374  14.653
40329SOL     OW22760  12.814   4.194   7.159
40329SOL    HW122761  12.742   4.257   7.166
40329SOL    HW222762  12.786   4.120   7.213
40330SOL     OW22763   7.443   7.153  14.311
40330SOL    HW122764   7.519   7.118  14.357
40330SOL    HW222765   7.470   7.240  14.283
40331SOL     OW22766  11.238  10.464   2.090
40331SOL    HW122767  11.174  10.534   2.086
40331SOL    HW222768  11.321  10.508   2.108
40332SOL     OW22769   4.355  10.415   6.946
40332SOL    HW122770   4.306  10.497   6.934
40332SOL    HW222771   4.358  10.403   7.041
40333SOL     OW22772  11.640   7.067  11.030
40333SOL    HW122773  11.611   7.044  11.118
40333SOL    HW222774  11.735   7.069  11.035
40334SOL     OW22775   6.074  11.359   1.996
40334SOL    HW122776   5.985  11.359   2.029
40334SOL    HW222777   6.080  11.279   1.944
40335SOL     OW22778   2.116  12.333   4.012
40335SOL    HW122779   2.126  12.298   3.924
40335SOL    HW222780   2.170  12.412   4.013
40336SOL     OW22781  12.186  14.793   5.670
40336SOL    HW122782  12.119  14.790   5.738
40336SOL    HW222783  12.156  14.862   5.610
40337SOL     OW22784  10.011   7.741   7.387
40337SOL    HW122785   9.940   7.678   7.400
40337SOL    HW222786  10.012   7.758   7.293
40338SOL     OW22787   9.400  14.521   1.080
40338SOL    HW122788   9.390  14.548   1.171
40338SOL    HW222789   9.372  14.429   1.079
40339SOL     OW22790   0.648   8.739   1.542
40339SOL    HW122791   0.742   8.757   1.545
40339SOL    HW222792   0.639   8.653   1.581
40340SOL     OW22793   8.518   3.816  11.701
40340SOL    HW122794   8.600   3.768  11.714
40340SOL    HW222795   8.536   3.873  11.626
40341SOL     OW22796   0.256  10.947   4.013
40341SOL    HW122797   0.260  10.877   3.948
40341SOL    HW222798   0.209  11.018   3.968
40342SOL     OW22799   2.732  10.222   6.537
40342SOL    HW122800   2.701  10.310   6.560
40342SOL    HW222801   2.785  10.195   6.611
40343SOL     OW22802   9.646  14.002   9.507
40343SOL    HW122803   9.585  13.937   9.472
40343SOL    HW222804   9.615  14.018   9.596
40344SOL     OW22805   8.505   0.881  12.650
40344SOL    HW122806   8.546   0.892  12.565
40344SOL    HW222807   8.577   0.878  12.712
40345SOL     OW22808   7.020   4.122   9.467
40345SOL    HW122809   7.039   4.212   9.492
40345SOL    HW222810   7.060   4.068   9.536
40346SOL     OW22811   4.736   7.187   6.219
40346SOL    HW122812   4.697   7.177   6.305
40346SOL    HW222813   4.768   7.100   6.196
40347SOL     OW22814   5.059   1.288  14.119
40347SOL    HW122815   4.972   1.276  14.159
40347SOL    HW222816   5.042   1.281  14.025
40348SOL     OW22817  12.400   7.094   2.575
40348SOL    HW122818  12.378   7.110   2.667
40348SOL    HW222819  12.319   7.114   2.527
40349SOL     OW22820   7.536   5.924   7.169
40349SOL    HW122821   7.524   5.954   7.259
40349SOL    HW222822   7.612   5.972   7.137
40350SOL     OW22823   9.325  10.823   5.086
40350SOL    HW122824   9.281  10.794   5.007
40350SOL    HW222825   9.292  10.912   5.101
40351SOL     OW22826  12.046   7.203   1.111
40351SOL    HW122827  12.017   7.282   1.156
40351SOL    HW222828  12.008   7.210   1.023
40352SOL     OW22829   5.488   8.282   5.267
40352SOL    HW122830   5.447   8.358   5.226
40352SOL    HW222831   5.547   8.247   5.200
40353SOL     OW22832   0.366   2.984  14.163
40353SOL    HW122833   0.285   3.032  14.182
40353SOL    HW222834   0.350   2.896  14.195
40354SOL     OW22835  14.149   7.284   4.424
40354SOL    HW122836  14.091   7.207   4.423
40354SOL    HW222837  14.209   7.270   4.351
40355SOL     OW22838   6.689   9.346   3.076
40355SOL    HW122839   6.639   9.419   3.112
40355SOL    HW222840   6.776   9.382   3.058
40356SOL     OW22841   8.510   5.268   7.899
40356SOL    HW122842   8.496   5.223   7.982
40356SOL    HW222843   8.426   5.310   7.880
40357SOL     OW22844   9.103   0.072   6.680
40357SOL    HW122845   9.071   0.053   6.592
40357SOL    HW222846   9.196   0.048   6.679
40358SOL     OW22847   9.093  14.337   0.093
40358SOL    HW122848   9.114  14.309   0.004
40358SOL    HW222849   9.096  14.432   0.090
40359SOL     OW22850   3.410   5.802   8.881
40359SOL    HW122851   3.345   5.849   8.829
40359SOL    HW222852   3.487   5.859   8.881
40360SOL     OW22853  14.774   7.064   8.317
40360SOL    HW122854  14.739   7.104   8.396
40360SOL    HW222855  14.727   6.981   8.309
40361SOL     OW22856   0.334   5.431  13.462
40361SOL    HW122857   0.343   5.519  13.427
40361SOL    HW222858   0.246   5.428  13.500
40362SOL     OW22859   0.457  10.957   1.939
40362SOL    HW122860   0.496  10.918   2.017
40362SOL    HW222861   0.475  11.051   1.947
40363SOL     OW22862  13.993   5.533   7.633
40363SOL    HW122863  13.972   5.601   7.697
40363SOL    HW222864  14.083   5.509   7.652
40364SOL     OW22865   2.340  12.917   8.429
40364SOL    HW122866   2.417  12.897   8.482
40364SOL    HW222867   2.328  13.011   8.437
40365SOL     OW22868   6.929   0.471   8.153
40365SOL    HW122869   6.959   0.539   8.093
40365SOL    HW222870   7.010   0.429   8.183
40366SOL     OW22871   6.499   1.204   5.183
40366SOL    HW122872   6.467   1.115   5.191
40366SOL    HW222873   6.565   1.201   5.114
40367SOL     OW22874   4.266   9.322   2.775
40367SOL    HW122875   4.278   9.314   2.870
40367SOL    HW222876   4.349   9.357   2.743
40368SOL     OW22877  12.571   6.476   4.005
40368SOL    HW122878  12.587   6.534   4.079
40368SOL    HW222879  12.582   6.388   4.040
40369SOL     OW22880   7.632   5.853   7.623
40369SOL    HW122881   7.605   5.766   7.651
40369SOL    HW222882   7.723   5.841   7.593
40370SOL     OW22883   5.160  13.961   7.570
40370SOL    HW122884   5.189  14.020   7.639
40370SOL    HW222885   5.123  14.018   7.503
40371SOL     OW22886   3.152   9.177   8.952
40371SOL    HW122887   3.098   9.112   8.908
40371SOL    HW222888   3.230   9.130   8.980
40372SOL     OW22889   8.792   9.574   4.762
40372SOL    HW122890   8.796   9.630   4.685
40372SOL    HW222891   8.700   9.548   4.768
40373SOL     OW22892  10.559   0.363  10.209
40373SOL    HW122893  10.543   0.330  10.298
40373SOL    HW222894  10.652   0.383  10.206
40374SOL     OW22895   5.653  11.490   7.835
40374SOL    HW122896   5.651  11.397   7.810
40374SOL    HW222897   5.595  11.496   7.910
40375SOL     OW22898   6.086   6.170  14.867
40375SOL    HW122899   6.033   6.234   0.037
40375SOL    HW222900   6.176   6.201  14.877
40376SOL     OW22901  10.396  14.486   9.363
40376SOL    HW122902  10.410  14.569   9.317
40376SOL    HW222903  10.362  14.511   9.449
40377SOL     OW22904   0.460  14.412   7.563
40377SOL    HW122905   0.550  14.445   7.563
40377SOL    HW222906   0.447  14.379   7.474
40378SOL     OW22907  14.288   7.002   0.938
40378SOL    HW122908  14.193   6.996   0.924
40378SOL    HW222909  14.326   6.944   0.871
40379SOL     OW22910   1.898   4.298   4.390
40379SOL    HW122911   1.983   4.266   4.361
40379SOL    HW222912   1.854   4.221   4.425
40380SOL     OW22913   5.680   4.129  12.357
40380SOL    HW122914   5.762   4.165  12.392
40380SOL    HW222915   5.682   4.037  12.382
40381SOL     OW22916   8.761   6.137   0.028
40381SOL    HW122917   8.844   6.120  14.861
40381SOL    HW222918   8.758   6.071   0.098
40382SOL     OW22919   8.180  13.294   1.906
40382SOL    HW122920   8.135  13.212   1.924
40382SOL    HW222921   8.193  13.295   1.812
40383SOL     OW22922  11.789   6.627   6.793
40383SOL    HW122923  11.777   6.540   6.754
40383SOL    HW222924  11.864   6.664   6.746
40384SOL     OW22925   4.051   0.779   9.677
40384SOL    HW122926   4.135   0.791   9.722
40384SOL    HW222927   4.062   0.822   9.593
40385SOL     OW22928   6.992   4.554   0.886
40385SOL    HW122929   7.084   4.528   0.898
40385SOL    HW222930   6.996   4.622   0.819
40386SOL     OW22931  12.051   0.188  10.503
40386SOL    HW122932  12.019   0.147  10.584
40386SOL    HW222933  12.111   0.123  10.466
40387SOL     OW22934  10.481  12.791  14.224
40387SOL    HW122935  10.555  12.836  14.183
40387SOL    HW222936  10.453  12.726  14.159
40388SOL     OW22937   1.572   3.280   9.207
40388SOL    HW122938   1.654   3.323   9.184
40388SOL    HW222939   1.575   3.196   9.160
40389SOL     OW22940   5.621  10.861   1.078
40389SOL    HW122941   5.611  10.768   1.102
40389SOL    HW222942   5.533  10.890   1.056
40390SOL     OW22943   8.726  10.013   3.943
40390SOL    HW122944   8.653  10.001   3.883
40390SOL    HW222945   8.802   9.978   3.896
40391SOL     OW22946   9.345   8.260  12.246
40391SOL    HW122947   9.426   8.274  12.197
40391SOL    HW222948   9.282   8.231  12.180
40392SOL     OW22949   7.360   4.666   6.399
40392SOL    HW122950   7.358   4.756   6.368
40392SOL    HW222951   7.439   4.661   6.454
40393SOL     OW22952  12.596   0.586   7.059
40393SOL    HW122953  12.543   0.507   7.069
40393SOL    HW222954  12.678   0.555   7.020
40394SOL     OW22955   2.797   3.059   8.371
40394SOL    HW122956   2.865   3.037   8.307
40394SOL    HW222957   2.840   3.116   8.434
40395SOL     OW22958   5.831   6.995  14.523
40395SOL    HW122959   5.773   6.961  14.456
40395SOL    HW222960   5.776   7.006  14.600
40396SOL     OW22961   3.474   6.017   4.750
40396SOL    HW122962   3.410   6.073   4.705
40396SOL    HW222963   3.422   5.970   4.815
40397SOL     OW22964  11.611   8.878   8.147
40397SOL    HW122965  11.687   8.822   8.133
40397SOL    HW222966  11.553   8.825   8.203
40398SOL     OW22967   9.806   2.209  11.341
40398SOL    HW122968   9.730   2.200  11.399
40398SOL    HW222969   9.856   2.282  11.378
40399SOL     OW22970  10.521   9.751   9.998
40399SOL    HW122971  10.513   9.721  10.089
40399SOL    HW222972  10.535   9.671   9.947
40400SOL     OW22973   0.793  14.570   5.408
40400SOL    HW122974   0.829  14.619   5.483
40400SOL    HW222975   0.838  14.485   5.413
40401SOL     OW22976  14.223   6.954   2.280
40401SOL    HW122977  14.152   6.959   2.344
40401SOL    HW222978  14.275   6.879   2.309
40402SOL     OW22979  10.306   3.113   4.040
40402SOL    HW122980  10.357   3.137   3.963
40402SOL    HW222981  10.296   3.195   4.089
40403SOL     OW22982   5.072   9.059   7.109
40403SOL    HW122983   5.040   9.016   7.030
40403SOL    HW222984   5.098   8.987   7.167
40404SOL     OW22985   1.227   3.376   4.822
40404SOL    HW122986   1.257   3.458   4.860
40404SOL    HW222987   1.305   3.338   4.782
40405SOL     OW22988   0.714   3.083   5.289
40405SOL    HW122989   0.622   3.096   5.267
40405SOL    HW222990   0.737   3.159   5.342
40406SOL     OW22991   2.485   9.885  12.629
40406SOL    HW122992   2.410   9.890  12.688
40406SOL    HW222993   2.448   9.904  12.543
40407SOL     OW22994   2.726  13.191   9.519
40407SOL    HW122995   2.763  13.251   9.456
40407SOL    HW222996   2.634  13.180   9.492
40408SOL     OW22997   8.835   6.384   3.574
40408SOL    HW122998   8.886   6.393   3.654
40408SOL    HW222999   8.769   6.317   3.596
40409SOL     OW23000   8.857   5.677   2.140
40409SOL    HW123001   8.791   5.731   2.097
40409SOL    HW223002   8.869   5.719   2.226
40410SOL     OW23003   5.128  10.813  11.007
40410SOL    HW123004   5.217  10.817  11.041
40410SOL    HW223005   5.073  10.803  11.085
40411SOL     OW23006   3.747   8.324   7.028
40411SOL    HW123007   3.714   8.407   6.994
40411SOL    HW223008   3.824   8.348   7.079
40412SOL     OW23009  10.658   4.070   8.685
40412SOL    HW123010  10.674   4.130   8.758
40412SOL    HW223011  10.681   3.984   8.718
40413SOL     OW23012   5.862  13.458   0.554
40413SOL    HW123013   5.825  13.373   0.530
40413SOL    HW223014   5.802  13.491   0.622
40414SOL     OW23015   3.019   7.712   6.928
40414SOL    HW123016   3.081   7.661   6.981
40414SOL    HW223017   3.049   7.700   6.838
40415SOL     OW23018   0.803   3.662   4.779
40415SOL    HW123019   0.784   3.643   4.687
40415SOL    HW223020   0.792   3.578   4.824
40416SOL     OW23021  10.576   4.472   5.702
40416SOL    HW123022  10.482   4.490   5.706
40416SOL    HW223023  10.614   4.522   5.774
40417SOL     OW23024   9.415   8.212   4.259
40417SOL    HW123025   9.394   8.202   4.166
40417SOL    HW223026   9.483   8.146   4.275
40418SOL     OW23027   9.159   3.917   7.733
40418SOL    HW123028   9.180   4.009   7.749
40418SOL    HW223029   9.118   3.917   7.646
40419SOL     OW23030   4.493  13.153  13.670
40419SOL    HW123031   4.538  13.094  13.609
40419SOL    HW223032   4.414  13.106  13.695
40420SOL     OW23033  10.202  14.289   3.433
40420SOL    HW123034  10.221  14.261   3.343
40420SOL    HW223035  10.246  14.225   3.488
40421SOL     OW23036   8.427  13.862   0.032
40421SOL    HW123037   8.459  13.800   0.097
40421SOL    HW223038   8.406  13.941   0.083
40422SOL     OW23039   8.738   9.747   4.568
40422SOL    HW123040   8.699   9.727   4.483
40422SOL    HW223041   8.829   9.769   4.548
40423SOL     OW23042  14.020   1.500   8.352
40423SOL    HW123043  14.080   1.502   8.277
40423SOL    HW223044  13.941   1.458   8.318
40424SOL     OW23045  13.202  10.687   2.352
40424SOL    HW123046  13.275  10.700   2.292
40424SOL    HW223047  13.237  10.709   2.438
40425SOL     OW23048  11.140   7.822  14.621
40425SOL    HW123049  11.080   7.752  14.593
40425SOL    HW223050  11.211   7.820  14.558
40426SOL     OW23051   3.808   3.076   9.621
40426SOL    HW123052   3.857   3.020   9.681
40426SOL    HW223053   3.732   3.024   9.595
40427SOL     OW23054   3.992   6.783   0.042
40427SOL    HW123055   4.024   6.819  14.837
40427SOL    HW223056   3.922   6.842   0.069
40428SOL     OW23057  11.435   5.122   3.695
40428SOL    HW123058  11.468   5.051   3.750
40428SOL    HW223059  11.503   5.189   3.697
40429SOL     OW23060  10.579   9.454   7.960
40429SOL    HW123061  10.659   9.403   7.972
40429SOL    HW223062  10.588   9.493   7.873
40430SOL     OW23063   2.054   8.745  14.496
40430SOL    HW123064   2.113   8.812  14.531
40430SOL    HW223065   1.993   8.728  14.567
40431SOL     OW23066  13.800  13.473   9.212
40431SOL    HW123067  13.878  13.491   9.160
40431SOL    HW223068  13.738  13.434   9.151
40432SOL     OW23069   0.843  13.714  12.373
40432SOL    HW123070   0.842  13.803  12.338
40432SOL    HW223071   0.874  13.660  12.300
40433SOL     OW23072  13.255   2.748   0.195
40433SOL    HW123073  13.314   2.695   0.142
40433SOL    HW223074  13.192   2.685   0.231
40434SOL     OW23075   2.770   2.952  10.340
40434SOL    HW123076   2.787   2.915  10.254
40434SOL    HW223077   2.839   3.017  10.353
40435SOL     OW23078   4.874  12.169   2.978
40435SOL    HW123079   4.943  12.215   3.027
40435SOL    HW223080   4.902  12.078   2.977
40436SOL     OW23081   6.534   2.210   2.400
40436SOL    HW123082   6.498   2.184   2.485
40436SOL    HW223083   6.597   2.141   2.379
40437SOL     OW23084   3.790  13.816   3.128
40437SOL    HW123085   3.713  13.839   3.180
40437SOL    HW223086   3.765  13.839   3.038
40438SOL     OW23087   3.751  12.784   8.120
40438SOL    HW123088   3.798  12.720   8.174
40438SOL    HW223089   3.809  12.798   8.045
40439SOL     OW23090   5.784   4.814   9.873
40439SOL    HW123091   5.763   4.838   9.963
40439SOL    HW223092   5.772   4.719   9.870
40440SOL     OW23093   2.847   6.919  14.355
40440SOL    HW123094   2.752   6.930  14.344
40440SOL    HW223095   2.866   6.834  14.315
40441SOL     OW23096  11.045  14.025   2.476
40441SOL    HW123097  11.126  13.981   2.448
40441SOL    HW223098  11.019  13.978   2.556
40442SOL     OW23099  11.707   7.475   2.920
40442SOL    HW123100  11.665   7.515   2.996
40442SOL    HW223101  11.717   7.383   2.944
40443SOL     OW23102   0.457   4.201   0.855
40443SOL    HW123103   0.535   4.253   0.837
40443SOL    HW223104   0.384   4.261   0.837
40444SOL     OW23105   0.945   1.364   9.881
40444SOL    HW123106   0.920   1.455   9.867
40444SOL    HW223107   0.882   1.313   9.831
40445SOL     OW23108   9.494  10.154   9.491
40445SOL    HW123109   9.519  10.064   9.511
40445SOL    HW223110   9.492  10.198   9.577
40446SOL     OW23111   0.351   8.154  13.751
40446SOL    HW123112   0.423   8.213  13.775
40446SOL    HW223113   0.289   8.161  13.824
40447SOL     OW23114   7.280  12.640   5.851
40447SOL    HW123115   7.257  12.552   5.881
40447SOL    HW223116   7.202  12.670   5.805
40448SOL     OW23117  12.366   4.102   7.936
40448SOL    HW123118  12.276   4.076   7.916
40448SOL    HW223119  12.368   4.196   7.919
40449SOL     OW23120   2.941   2.866  12.761
40449SOL    HW123121   2.933   2.771  12.772
40449SOL    HW223122   3.027   2.878  12.720
40450SOL     OW23123   6.163  12.157  11.326
40450SOL    HW123124   6.172  12.252  11.323
40450SOL    HW223125   6.143  12.138  11.418
40451SOL     OW23126  10.454   3.690   2.337
40451SOL    HW123127  10.406   3.657   2.261
40451SOL    HW223128  10.457   3.615   2.397
40452SOL     OW23129  11.272   4.533   7.037
40452SOL    HW123130  11.205   4.595   7.066
40452SOL    HW223131  11.232   4.487   6.964
40453SOL     OW23132  12.565   8.021   4.063
40453SOL    HW123133  12.507   7.945   4.063
40453SOL    HW223134  12.567   8.051   4.154
40454SOL     OW23135  10.439   2.551   7.007
40454SOL    HW123136  10.509   2.591   7.058
40454SOL    HW223137  10.483   2.508   6.934
40455SOL     OW23138   0.267   0.275   2.065
40455SOL    HW123139   0.281   0.245   2.155
40455SOL    HW223140   0.178   0.247   2.044
40456SOL     OW23141   1.199   4.374  12.449
40456SOL    HW123142   1.292   4.355  12.463
40456SOL    HW223143   1.188   4.376  12.354
40457SOL     OW23144   6.282   0.454   3.345
40457SOL    HW123145   6.332   0.372   3.341
40457SOL    HW223146   6.348   0.523   3.337
40458SOL     OW23147  13.498   6.712   0.909
40458SOL    HW123148  13.546   6.636   0.875
40458SOL    HW223149  13.540   6.788   0.869
40459SOL     OW23150   8.256   7.191   5.429
40459SOL    HW123151   8.325   7.188   5.495
40459SOL    HW223152   8.236   7.284   5.419
40460SOL     OW23153  13.698   5.875   0.799
40460SOL    HW123154  13.645   5.796   0.788
40460SOL    HW223155  13.776   5.859   0.747
40461SOL     OW23156  14.425   3.836  13.663
40461SOL    HW123157  14.451   3.766  13.604
40461SOL    HW223158  14.505   3.858  13.710
40462SOL     OW23159   4.514   7.429   1.850
40462SOL    HW123160   4.431   7.413   1.805
40462SOL    HW223161   4.497   7.507   1.903
40463SOL     OW23162  14.540  14.070   9.736
40463SOL    HW123163  14.450  14.038   9.744
40463SOL    HW223164  14.535  14.162   9.763
40464SOL     OW23165   7.241   1.145   1.028
40464SOL    HW123166   7.200   1.163   1.112
40464SOL    HW223167   7.316   1.090   1.049
40465SOL     OW23168   3.393   9.007  14.116
40465SOL    HW123169   3.344   8.963  14.186
40465SOL    HW223170   3.340   8.995  14.038
40466SOL     OW23171   0.273  13.200  14.679
40466SOL    HW123172   0.331  13.143  14.730
40466SOL    HW223173   0.236  13.260  14.743
40467SOL     OW23174   3.802  10.801   6.963
40467SOL    HW123175   3.853  10.873   7.001
40467SOL    HW223176   3.714  10.811   7.002
40468SOL     OW23177   3.730  10.275   6.887
40468SOL    HW123178   3.747  10.365   6.856
40468SOL    HW223179   3.817  10.239   6.903
40469SOL     OW23180  13.350   7.835   7.575
40469SOL    HW123181  13.421   7.887   7.614
40469SOL    HW223182  13.270   7.877   7.606
40470SOL     OW23183   3.143   6.425   4.929
40470SOL    HW123184   3.162   6.378   5.010
40470SOL    HW223185   3.197   6.381   4.862
40471SOL     OW23186   6.680   9.256  13.785
40471SOL    HW123187   6.696   9.191  13.853
40471SOL    HW223188   6.699   9.340  13.827
40472SOL     OW23189   2.942   5.894   0.409
40472SOL    HW123190   2.908   5.982   0.397
40472SOL    HW223191   2.891   5.858   0.482
40473SOL     OW23192  11.471   8.226   8.570
40473SOL    HW123193  11.517   8.301   8.609
40473SOL    HW223194  11.540   8.178   8.524
40474SOL     OW23195  14.003  13.185  13.433
40474SOL    HW123196  13.970  13.096  13.447
40474SOL    HW223197  14.064  13.199  13.505
40475SOL     OW23198  10.558   8.320   4.814
40475SOL    HW123199  10.465   8.323   4.834
40475SOL    HW223200  10.596   8.265   4.882
40476SOL     OW23201   3.083   3.368   8.675
40476SOL    HW123202   3.123   3.288   8.708
40476SOL    HW223203   3.142   3.399   8.607
40477SOL     OW23204   1.697   5.665  12.435
40477SOL    HW123205   1.752   5.587  12.424
40477SOL    HW223206   1.637   5.662  12.360
40478SOL     OW23207   5.864  10.819   8.100
40478SOL    HW123208   5.901  10.807   8.188
40478SOL    HW223209   5.775  10.783   8.106
40479SOL     OW23210   2.630   2.098   2.637
40479SOL    HW123211   2.582   2.057   2.565
40479SOL    HW223212   2.566   2.109   2.707
40480SOL     OW23213  11.173   8.596  10.285
40480SOL    HW123214  11.125   8.566  10.207
40480SOL    HW223215  11.145   8.537  10.354
40481SOL     OW23216   0.159   1.174   8.714
40481SOL    HW123217   0.195   1.206   8.797
40481SOL    HW223218   0.104   1.100   8.739
40482SOL     OW23219  12.754  11.417   9.901
40482SOL    HW123220  12.678  11.361   9.884
40482SOL    HW223221  12.827  11.373   9.857
40483SOL     OW23222   7.061   9.977   2.300
40483SOL    HW123223   7.095   9.891   2.277
40483SOL    HW223224   7.094   9.992   2.389
40484SOL     OW23225  11.822   5.558  13.977
40484SOL    HW123226  11.875   5.561  13.897
40484SOL    HW223227  11.766   5.481  13.965
40485SOL     OW23228   6.133   2.680   8.123
40485SOL    HW123229   6.050   2.726   8.108
40485SOL    HW223230   6.182   2.692   8.042
40486SOL     OW23231   9.742   7.837   9.794
40486SOL    HW123232   9.677   7.884   9.742
40486SOL    HW223233   9.727   7.868   9.884
40487SOL     OW23234   1.116  11.778   9.371
40487SOL    HW123235   1.201  11.753   9.406
40487SOL    HW223236   1.054  11.758   9.441
40488SOL     OW23237   2.085  10.533  11.188
40488SOL    HW123238   2.086  10.597  11.117
40488SOL    HW223239   2.075  10.449  11.144
40489SOL     OW23240   1.851  10.277   9.846
40489SOL    HW123241   1.943  10.256   9.830
40489SOL    HW223242   1.834  10.248   9.936
40490SOL     OW23243   3.630  12.280   8.695
40490SOL    HW123244   3.615  12.367   8.657
40490SOL    HW223245   3.564  12.274   8.765
40491SOL     OW23246  12.832   0.102   2.753
40491SOL    HW123247  12.895   0.151   2.806
40491SOL    HW223248  12.755   0.159   2.748
40492SOL     OW23249   5.478   7.047  10.357
40492SOL    HW123250   5.524   7.021  10.277
40492SOL    HW223251   5.548   7.064  10.420
40493SOL     OW23252  12.882  14.008   5.594
40493SOL    HW123253  12.857  13.952   5.520
40493SOL    HW223254  12.799  14.027   5.639
40494SOL     OW23255   1.099  11.843   2.589
40494SOL    HW123256   1.194  11.859   2.593
40494SOL    HW223257   1.084  11.771   2.650
40495SOL     OW23258  10.321  11.837   6.577
40495SOL    HW123259  10.314  11.794   6.662
40495SOL    HW223260  10.409  11.814   6.546
40496SOL     OW23261   7.313  12.263   7.828
40496SOL    HW123262   7.266  12.330   7.778
40496SOL    HW223263   7.253  12.242   7.900
40497SOL     OW23264   6.704  10.502   2.135
40497SOL    HW123265   6.659  10.429   2.093
40497SOL    HW223266   6.791  10.467   2.156
40498SOL     OW23267   5.303  10.573   2.124
40498SOL    HW123268   5.337  10.598   2.209
40498SOL    HW223269   5.216  10.537   2.142
40499SOL     OW23270   4.597  13.372  11.850
40499SOL    HW123271   4.588  13.288  11.805
40499SOL    HW223272   4.543  13.363  11.928
40500SOL     OW23273   0.962  13.817   6.139
40500SOL    HW123274   0.963  13.868   6.058
40500SOL    HW223275   0.901  13.863   6.196
40501SOL     OW23276   6.681   3.712   7.398
40501SOL    HW123277   6.656   3.709   7.306
40501SOL    HW223278   6.759   3.768   7.399
40502SOL     OW23279   2.143  13.944  11.645
40502SOL    HW123280   2.082  13.956  11.718
40502SOL    HW223281   2.145  13.850  11.631
40503SOL     OW23282   9.191  10.939  10.746
40503SOL    HW123283   9.097  10.957  10.751
40503SOL    HW223284   9.209  10.936  10.652
40504SOL     OW23285   7.410   7.120  10.251
40504SOL    HW123286   7.361   7.192  10.211
40504SOL    HW223287   7.469   7.089  10.182
40505SOL     OW23288   5.494   3.557   4.475
40505SOL    HW123289   5.524   3.634   4.523
40505SOL    HW223290   5.501   3.484   4.537
40506SOL     OW23291  13.110   6.834   3.831
40506SOL    HW123292  13.196   6.797   3.853
40506SOL    HW223293  13.059   6.759   3.802
40507SOL     OW23294   5.601   9.170   8.489
40507SOL    HW123295   5.651   9.097   8.453
40507SOL    HW223296   5.510   9.143   8.481
40508SOL     OW23297   1.154   5.242   5.258
40508SOL    HW123298   1.238   5.195   5.251
40508SOL    HW223299   1.163   5.316   5.199
40509SOL     OW23300   1.100   6.040   8.192
40509SOL    HW123301   1.179   6.009   8.235
40509SOL    HW223302   1.132   6.091   8.118
40510SOL     OW23303   2.596  13.919   7.067
40510SOL    HW123304   2.607  13.903   6.973
40510SOL    HW223305   2.507  13.953   7.075
40511SOL     OW23306  10.462  13.199   5.942
40511SOL    HW123307  10.543  13.213   5.893
40511SOL    HW223308  10.393  13.223   5.881
40512SOL     OW23309   5.152   9.197   7.712
40512SOL    HW123310   5.092   9.265   7.743
40512SOL    HW223311   5.189   9.159   7.791
40513SOL     OW23312   4.369   0.370   7.597
40513SOL    HW123313   4.313   0.317   7.653
40513SOL    HW223314   4.455   0.327   7.601
40514SOL     OW23315  11.509  13.435  11.721
40514SOL    HW123316  11.516  13.396  11.634
40514SOL    HW223317  11.565  13.380  11.776
40515SOL     OW23318   6.062   6.769  14.490
40515SOL    HW123319   6.026   6.680  14.497
40515SOL    HW223320   6.010   6.810  14.421
40516SOL     OW23321   7.152  13.678   6.349
40516SOL    HW123322   7.076  13.643   6.302
40516SOL    HW223323   7.133  13.772   6.356
40517SOL     OW23324   4.276   8.420   1.112
40517SOL    HW123325   4.227   8.424   1.030
40517SOL    HW223326   4.211   8.442   1.179
40518SOL     OW23327  12.321   3.045   7.734
40518SOL    HW123328  12.245   3.000   7.770
40518SOL    HW223329  12.331   3.009   7.646
40519SOL     OW23330   0.152   6.738  14.119
40519SOL    HW123331   0.061   6.723  14.093
40519SOL    HW223332   0.170   6.670  14.183
40520SOL     OW23333   6.072  10.582  11.408
40520SOL    HW123334   6.023  10.514  11.454
40520SOL    HW223335   6.161  10.574  11.443
40521SOL     OW23336   5.128   3.523  11.811
40521SOL    HW123337   5.092   3.505  11.725
40521SOL    HW223338   5.174   3.606  11.801
40522SOL     OW23339  10.775  14.372   0.660
40522SOL    HW123340  10.855  14.348   0.705
40522SOL    HW223341  10.714  14.397   0.729
40523SOL     OW23342   3.272   6.054   1.774
40523SOL    HW123343   3.275   6.050   1.678
40523SOL    HW223344   3.220   6.132   1.793
40524SOL     OW23345   1.434  12.051   6.988
40524SOL    HW123346   1.426  12.085   7.077
40524SOL    HW223347   1.521  12.079   6.959
40525SOL     OW23348  10.422   4.445  13.600
40525SOL    HW123349  10.444   4.516  13.540
40525SOL    HW223350  10.421   4.366  13.545
40526SOL     OW23351   4.959   2.953   7.506
40526SOL    HW123352   4.908   2.892   7.453
40526SOL    HW223353   5.010   2.896   7.565
40527SOL     OW23354   5.435  12.179   4.096
40527SOL    HW123355   5.364  12.228   4.137
40527SOL    HW223356   5.412  12.087   4.111
40528SOL     OW23357   1.895   8.563  13.295
40528SOL    HW123358   1.913   8.657  13.309
40528SOL    HW223359   1.865   8.558  13.205
40529SOL     OW23360  11.933   8.681  14.143
40529SOL    HW123361  11.884   8.622  14.086
40529SOL    HW223362  11.974   8.743  14.083
40530SOL     OW23363   0.140   7.126   8.761
40530SOL    HW123364   0.120   7.036   8.786
40530SOL    HW223365   0.056   7.162   8.733
40531SOL     OW23366   5.709  10.003   6.522
40531SOL    HW123367   5.623  10.031   6.556
40531SOL    HW223368   5.690   9.929   6.465
40532SOL     OW23369   3.256  10.276  10.386
40532SOL    HW123370   3.189  10.320  10.439
40532SOL    HW223371   3.245  10.183  10.406
40533SOL     OW23372   8.778   0.137   2.918
40533SOL    HW123373   8.749   0.115   3.007
40533SOL    HW223374   8.727   0.079   2.861
40534SOL     OW23375   9.176   6.028   7.996
40534SOL    HW123376   9.202   5.950   8.045
40534SOL    HW223377   9.167   6.096   8.063
40535SOL     OW23378  12.956   1.612  12.507
40535SOL    HW123379  12.963   1.519  12.528
40535SOL    HW223380  13.045   1.638  12.483
40536SOL     OW23381   5.480  14.361  13.068
40536SOL    HW123382   5.488  14.286  13.129
40536SOL    HW223383   5.569  14.374  13.036
40537SOL     OW23384   2.761   3.947  11.627
40537SOL    HW123385   2.714   4.021  11.589
40537SOL    HW223386   2.848   3.982  11.646
40538SOL     OW23387  14.068   7.300   0.861
40538SOL    HW123388  13.997   7.358   0.834
40538SOL    HW223389  14.111   7.275   0.779
40539SOL     OW23390  12.966  14.216  11.903
40539SOL    HW123391  12.992  14.199  11.813
40539SOL    HW223392  13.034  14.273  11.938
40540SOL     OW23393   3.583  11.832   3.795
40540SOL    HW123394   3.605  11.791   3.879
40540SOL    HW223395   3.532  11.909   3.818
40541SOL     OW23396   3.746   1.933   0.027
40541SOL    HW123397   3.695   1.998   0.075
40541SOL    HW223398   3.765   1.865   0.091
40542SOL     OW23399   7.340   3.311   8.232
40542SOL    HW123400   7.377   3.231   8.269
40542SOL    HW223401   7.371   3.312   8.141
40543SOL     OW23402  14.655   4.781   8.148
40543SOL    HW123403  14.724   4.747   8.205
40543SOL    HW223404  14.696   4.854   8.102
40544SOL     OW23405  12.258   2.430   6.266
40544SOL    HW123406  12.197   2.373   6.220
40544SOL    HW223407  12.328   2.448   6.203
40545SOL     OW23408  10.920  10.858  12.298
40545SOL    HW123409  10.991  10.893  12.244
40545SOL    HW223410  10.919  10.914  12.376
40546SOL     OW23411   5.244   9.890  13.224
40546SOL    HW123412   5.317   9.829  13.235
40546SOL    HW223413   5.284   9.970  13.189
40547SOL     OW23414  14.782   1.928   0.054
40547SOL    HW123415  14.807   2.016   0.082
40547SOL    HW223416  14.687   1.932   0.045
40548SOL     OW23417   8.495   5.183  11.203
40548SOL    HW123418   8.451   5.191  11.119
40548SOL    HW223419   8.424   5.183  11.267
40549SOL     OW23420  11.317   3.907   3.347
40549SOL    HW123421  11.359   3.909   3.433
40549SOL    HW223422  11.375   3.852   3.294
40550SOL     OW23423   8.282   1.977   2.681
40550SOL    HW123424   8.255   1.978   2.589
40550SOL    HW223425   8.320   1.891   2.694
40551SOL     OW23426   3.006   5.203   8.598
40551SOL    HW123427   2.969   5.124   8.559
40551SOL    HW223428   2.940   5.271   8.582
40552SOL     OW23429   4.770   5.122   3.940
40552SOL    HW123430   4.718   5.053   3.982
40552SOL    HW223431   4.782   5.189   4.008
40553SOL     OW23432   9.937   3.186   6.023
40553SOL    HW123433   9.948   3.124   5.951
40553SOL    HW223434  10.026   3.216   6.042
40554SOL     OW23435  10.532   5.251   2.942
40554SOL    HW123436  10.524   5.305   2.864
40554SOL    HW223437  10.594   5.299   2.998
40555SOL     OW23438   8.263  13.821  14.077
40555SOL    HW123439   8.326  13.761  14.119
40555SOL    HW223440   8.318  13.891  14.041
40556SOL     OW23441   1.858   4.597  13.381
40556SOL    HW123442   1.846   4.541  13.305
40556SOL    HW223443   1.846   4.539  13.456
40557SOL     OW23444  11.727  10.197   3.215
40557SOL    HW123445  11.791  10.267   3.201
40557SOL    HW223446  11.774  10.117   3.194
40558SOL     OW23447   3.918   1.447   8.663
40558SOL    HW123448   3.941   1.383   8.596
40558SOL    HW223449   3.826   1.427   8.685
40559SOL     OW23450  14.250   4.410   0.556
40559SOL    HW123451  14.291   4.354   0.490
40559SOL    HW223452  14.270   4.367   0.639
40560SOL     OW23453   1.588  13.924   3.916
40560SOL    HW123454   1.669  13.972   3.935
40560SOL    HW223455   1.607  13.876   3.835
40561SOL     OW23456   7.754   4.028  12.883
40561SOL    HW123457   7.739   4.081  12.961
40561SOL    HW223458   7.803   4.085  12.824
40562SOL     OW23459   8.635   6.059  13.492
40562SOL    HW123460   8.706   6.051  13.428
40562SOL    HW223461   8.608   5.969  13.511
40563SOL     OW23462   4.168  13.299   9.227
40563SOL    HW123463   4.183  13.209   9.199
40563SOL    HW223464   4.077  13.300   9.257
40564SOL     OW23465   7.616  13.420   6.696
40564SOL    HW123466   7.672  13.383   6.764
40564SOL    HW223467   7.570  13.492   6.739
40565SOL     OW23468   6.626  10.704  13.311
40565SOL    HW123469   6.604  10.761  13.237
40565SOL    HW223470   6.694  10.646  13.277
40566SOL     OW23471  11.531   1.036   1.809
40566SOL    HW123472  11.461   1.028   1.744
40566SOL    HW223473  11.531   0.951   1.853
40567SOL     OW23474   1.579   2.816  10.396
40567SOL    HW123475   1.550   2.905  10.419
40567SOL    HW223476   1.592   2.773  10.481
40568SOL     OW23477   9.542  12.824   4.786
40568SOL    HW123478   9.571  12.906   4.744
40568SOL    HW223479   9.454  12.843   4.818
40569SOL     OW23480   0.276   9.223   7.048
40569SOL    HW123481   0.269   9.297   7.109
40569SOL    HW223482   0.325   9.259   6.973
40570SOL     OW23483   5.870   0.717   8.725
40570SOL    HW123484   5.893   0.790   8.782
40570SOL    HW223485   5.801   0.670   8.772
40571SOL     OW23486   1.843   6.514  10.378
40571SOL    HW123487   1.752   6.544  10.375
40571SOL    HW223488   1.839   6.421  10.357
40572SOL     OW23489   6.565   7.034   0.764
40572SOL    HW123490   6.508   7.107   0.744
40572SOL    HW223491   6.648   7.055   0.722
40573SOL     OW23492   7.783   0.312  14.732
40573SOL    HW123493   7.703   0.324  14.681
40573SOL    HW223494   7.839   0.258  14.677
40574SOL     OW23495   1.876  10.437   5.410
40574SOL    HW123496   1.940  10.433   5.481
40574SOL    HW223497   1.867  10.346   5.381
40575SOL     OW23498  10.876   2.357  11.848
40575SOL    HW123499  10.796   2.357  11.901
40575SOL    HW223500  10.940   2.310  11.902
40576SOL     OW23501   3.979   1.370  12.402
40576SOL    HW123502   3.987   1.318  12.322
40576SOL    HW223503   4.064   1.362  12.445
40577SOL     OW23504   1.459  12.312   2.578
40577SOL    HW123505   1.451  12.290   2.671
40577SOL    HW223506   1.440  12.406   2.574
40578SOL     OW23507   3.507   0.373  14.134
40578SOL    HW123508   3.416   0.396  14.112
40578SOL    HW223509   3.556   0.390  14.054
40579SOL     OW23510   2.822   8.326   5.988
40579SOL    HW123511   2.803   8.240   6.026
40579SOL    HW223512   2.895   8.311   5.929
40580SOL     OW23513  12.290   0.174  10.710
40580SOL    HW123514  12.203   0.154  10.674
40580SOL    HW223515  12.272   0.201  10.800
40581SOL     OW23516  14.047  12.417   0.807
40581SOL    HW123517  14.050  12.339   0.862
40581SOL    HW223518  14.132  12.420   0.763
40582SOL     OW23519   6.961   6.708   4.223
40582SOL    HW123520   6.931   6.768   4.155
40582SOL    HW223521   6.923   6.624   4.199
40583SOL     OW23522   4.559   1.013  10.597
40583SOL    HW123523   4.472   1.003  10.635
40583SOL    HW223524   4.619   1.009  10.672
40584SOL     OW23525   2.097   3.763   6.044
40584SOL    HW123526   2.026   3.762   5.979
40584SOL    HW223527   2.155   3.833   6.015
40585SOL     OW23528   7.802   7.236   5.274
40585SOL    HW123529   7.755   7.172   5.219
40585SOL    HW223530   7.858   7.183   5.330
40586SOL     OW23531  10.589   7.313  11.601
40586SOL    HW123532  10.589   7.224  11.638
40586SOL    HW223533  10.497   7.328  11.578
40587SOL     OW23534   2.253   1.068   9.820
40587SOL    HW123535   2.175   1.120   9.840
40587SOL    HW223536   2.285   1.102   9.737
40588SOL     OW23537   3.551  14.832  13.042
40588SOL    HW123538   3.521   0.041  13.015
40588SOL    HW223539   3.495  14.810  13.117
40589SOL     OW23540   6.954   5.699   0.978
40589SOL    HW123541   6.889   5.762   1.008
40589SOL    HW223542   7.017   5.694   1.050
40590SOL     OW23543  14.307   0.710  12.934
40590SOL    HW123544  14.216   0.697  12.906
40590SOL    HW223545  14.328   0.632  12.985
40591SOL     OW23546   8.029  10.775   6.370
40591SOL    HW123547   8.057  10.854   6.323
40591SOL    HW223548   8.042  10.704   6.307
40592SOL     OW23549   2.209  14.235   1.176
40592SOL    HW123550   2.272  14.265   1.242
40592SOL    HW223551   2.173  14.154   1.214
40593SOL     OW23552   2.901   0.150   5.222
40593SOL    HW123553   2.878   0.196   5.302
40593SOL    HW223554   2.863   0.204   5.152
40594SOL     OW23555   3.680   9.235   4.795
40594SOL    HW123556   3.627   9.199   4.724
40594SOL    HW223557   3.617   9.277   4.853
40595SOL     OW23558   5.856  11.981  12.539
40595SOL    HW123559   5.865  11.964  12.633
40595SOL    HW223560   5.832  12.073  12.534
40596SOL     OW23561   9.516  10.347  14.765
40596SOL    HW123562   9.539  10.277  14.705
40596SOL    HW223563   9.528  10.427  14.715
40597SOL     OW23564   0.024   9.850   5.129
40597SOL    HW123565  14.858   9.796   5.063
40597SOL    HW223566   0.108   9.807   5.142
40598SOL     OW23567   3.974  13.485  12.180
40598SOL    HW123568   3.917  13.462  12.254
40598SOL    HW223569   3.981  13.580  12.184
40599SOL     OW23570  12.542   7.963  13.119
40599SOL    HW123571  12.601   7.973  13.193
40599SOL    HW223572  12.561   8.038  13.063
40600SOL     OW23573   0.788  14.241   1.832
40600SOL    HW123574   0.766  14.178   1.900
40600SOL    HW223575   0.882  14.229   1.817
40601SOL     OW23576   6.749   1.623   9.638
40601SOL    HW123577   6.839   1.655   9.632
40601SOL    HW223578   6.709   1.678   9.706
40602SOL     OW23579   1.185  14.615   5.385
40602SOL    HW123580   1.217  14.690   5.435
40602SOL    HW223581   1.214  14.632   5.295
40603SOL     OW23582   9.457   1.269   0.424
40603SOL    HW123583   9.515   1.310   0.360
40603SOL    HW223584   9.424   1.191   0.381
40604SOL     OW23585   6.132   1.251  12.316
40604SOL    HW123586   6.090   1.337  12.324
40604SOL    HW223587   6.221   1.272  12.288
40605SOL     OW23588   3.100   0.780   3.440
40605SOL    HW123589   3.134   0.862   3.475
40605SOL    HW223590   3.160   0.713   3.473
40606SOL     OW23591   1.453  10.547   1.320
40606SOL    HW123592   1.542  10.568   1.349
40606SOL    HW223593   1.452  10.452   1.314
40607SOL     OW23594  11.020   7.210  10.321
40607SOL    HW123595  10.962   7.270  10.368
40607SOL    HW223596  11.108   7.243  10.340
40608SOL     OW23597   7.573   2.493  14.768
40608SOL    HW123598   7.666   2.473  14.759
40608SOL    HW223599   7.531   2.409  14.783
40609SOL     OW23600   9.853   4.382   9.330
40609SOL    HW123601   9.808   4.332   9.262
40609SOL    HW223602   9.936   4.337   9.342
40610SOL     OW23603   8.627  10.874   1.559
40610SOL    HW123604   8.573  10.798   1.581
40610SOL    HW223605   8.712  10.856   1.600
40611SOL     OW23606   4.050   2.368  11.258
40611SOL    HW123607   4.018   2.430  11.192
40611SOL    HW223608   4.109   2.420  11.312
40612SOL     OW23609  14.853  13.551   2.470
40612SOL    HW123610  14.765  13.589   2.467
40612SOL    HW223611  14.855  13.499   2.550
40613SOL     OW23612   4.919   9.307   4.652
40613SOL    HW123613   4.966   9.272   4.728
40613SOL    HW223614   4.915   9.401   4.668
40614SOL     OW23615   4.544  11.011  14.482
40614SOL    HW123616   4.464  10.961  14.495
40614SOL    HW223617   4.589  11.006  14.566
40615SOL     OW23618   7.562   9.322  13.193
40615SOL    HW123619   7.637   9.363  13.235
40615SOL    HW223620   7.547   9.374  13.113
40616SOL     OW23621   2.776  13.908   4.774
40616SOL    HW123622   2.792  13.972   4.844
40616SOL    HW223623   2.682  13.916   4.756
40617SOL     OW23624   9.949   3.123   6.414
40617SOL    HW123625   9.905   3.080   6.340
40617SOL    HW223626   9.986   3.051   6.465
40618SOL     OW23627   4.301  12.650  10.209
40618SOL    HW123628   4.363  12.666  10.280
40618SOL    HW223629   4.276  12.558  10.220
40619SOL     OW23630  13.069  13.224  10.124
40619SOL    HW123631  13.141  13.177  10.082
40619SOL    HW223632  13.027  13.159  10.181
40620SOL     OW23633  12.334   9.612   9.169
40620SOL    HW123634  12.428   9.598   9.156
40620SOL    HW223635  12.329   9.690   9.224
40621SOL     OW23636   4.992   1.774   6.002
40621SOL    HW123637   4.952   1.846   5.953
40621SOL    HW223638   5.069   1.749   5.951
40622SOL     OW23639   6.116  14.372   8.253
40622SOL    HW123640   6.203  14.395   8.286
40622SOL    HW223641   6.123  14.280   8.228
40623SOL     OW23642  13.877   8.046   7.873
40623SOL    HW123643  13.826   7.981   7.921
40623SOL    HW223644  13.966   8.010   7.870
40624SOL     OW23645  13.927   0.715  12.160
40624SOL    HW123646  13.956   0.656  12.229
40624SOL    HW223647  14.005   0.763  12.135
40625SOL     OW23648   6.106   8.324  11.190
40625SOL    HW123649   6.135   8.242  11.151
40625SOL    HW223650   6.016   8.308  11.216
40626SOL     OW23651   9.937   6.424  10.397
40626SOL    HW123652   9.842   6.426  10.408
40626SOL    HW223653   9.951   6.452  10.307
40627SOL     OW23654   0.308   7.236  11.241
40627SOL    HW123655   0.383   7.269  11.290
40627SOL    HW223656   0.241   7.222  11.308
40628SOL     OW23657   8.329  12.704  10.328
40628SOL    HW123658   8.418  12.670  10.318
40628SOL    HW223659   8.283  12.636  10.376
40629SOL     OW23660  12.173   6.641   6.829
40629SOL    HW123661  12.118   6.601   6.762
40629SOL    HW223662  12.118   6.643   6.907
40630SOL     OW23663   0.921   0.962   6.656
40630SOL    HW123664   0.895   1.030   6.594
40630SOL    HW223665   0.863   0.889   6.638
40631SOL     OW23666   1.652  13.365   2.678
40631SOL    HW123667   1.627  13.457   2.689
40631SOL    HW223668   1.748  13.367   2.671
40632SOL     OW23669   9.025   5.559   4.214
40632SOL    HW123670   9.056   5.475   4.248
40632SOL    HW223671   9.045   5.554   4.120
40633SOL     OW23672  10.090  12.687   9.345
40633SOL    HW123673  10.087  12.609   9.401
40633SOL    HW223674  10.078  12.760   9.405
40634SOL     OW23675  10.721  11.523  10.695
40634SOL    HW123676  10.658  11.580  10.739
40634SOL    HW223677  10.709  11.438  10.736
40635SOL     OW23678  11.608  10.941   4.946
40635SOL    HW123679  11.678  10.899   4.895
40635SOL    HW223680  11.550  10.869   4.971
40636SOL     OW23681   9.489  10.701   2.221
40636SOL    HW123682   9.493  10.793   2.248
40636SOL    HW223683   9.493  10.652   2.303
40637SOL     OW23684   8.589  12.765   9.273
40637SOL    HW123685   8.604  12.671   9.281
40637SOL    HW223686   8.662  12.796   9.219
40638SOL     OW23687   5.275   7.199   0.171
40638SOL    HW123688   5.202   7.138   0.183
40638SOL    HW223689   5.289   7.200   0.076
40639SOL     OW23690   7.594  13.999   9.770
40639SOL    HW123691   7.606  14.009   9.675
40639SOL    HW223692   7.665  13.941   9.797
40640SOL     OW23693   2.221  10.670   0.299
40640SOL    HW123694   2.159  10.716   0.357
40640SOL    HW223695   2.280  10.624   0.359
40641SOL     OW23696   3.303  13.420   8.080
40641SOL    HW123697   3.373  13.362   8.050
40641SOL    HW223698   3.348  13.495   8.119
40642SOL     OW23699   4.142   9.638  10.871
40642SOL    HW123700   4.172   9.724  10.842
40642SOL    HW223701   4.145   9.643  10.967
40643SOL     OW23702   8.420   6.123   7.848
40643SOL    HW123703   8.500   6.069   7.846
40643SOL    HW223704   8.371   6.090   7.923
40644SOL     OW23705   0.734  14.542   4.935
40644SOL    HW123706   0.685  14.519   5.013
40644SOL    HW223707   0.814  14.583   4.968
40645SOL     OW23708   3.408   9.344  12.606
40645SOL    HW123709   3.433   9.425  12.561
40645SOL    HW223710   3.455   9.275  12.560
40646SOL     OW23711  11.990   3.372  10.309
40646SOL    HW123712  12.051   3.398  10.240
40646SOL    HW223713  12.018   3.422  10.386
40647SOL     OW23714   6.965   3.767   5.551
40647SOL    HW123715   6.974   3.860   5.569
40647SOL    HW223716   6.999   3.756   5.462
40648SOL     OW23717   6.605   5.914   5.735
40648SOL    HW123718   6.582   5.877   5.649
40648SOL    HW223719   6.532   5.971   5.757
40649SOL     OW23720  13.825  13.794   8.326
40649SOL    HW123721  13.777  13.836   8.397
40649SOL    HW223722  13.809  13.700   8.338
40650SOL     OW23723   4.994  12.060  10.678
40650SOL    HW123724   5.017  12.057  10.585
40650SOL    HW223725   5.048  11.991  10.718
40651SOL     OW23726   8.530  10.778   7.663
40651SOL    HW123727   8.512  10.785   7.757
40651SOL    HW223728   8.456  10.822   7.621
40652SOL     OW23729   0.173  13.003  12.122
40652SOL    HW123730   0.162  12.949  12.201
40652SOL    HW223731   0.092  13.053  12.116
40653SOL     OW23732  10.511   8.253   3.188
40653SOL    HW123733  10.451   8.178   3.191
40653SOL    HW223734  10.582   8.225   3.131
40654SOL     OW23735   4.624  13.216   4.999
40654SOL    HW123736   4.578  13.142   4.959
40654SOL    HW223737   4.617  13.286   4.934
40655SOL     OW23738   1.057   6.545   4.330
40655SOL    HW123739   1.033   6.462   4.370
40655SOL    HW223740   1.027   6.611   4.392
40656SOL     OW23741  13.948   6.799   0.273
40656SOL    HW123742  14.043   6.787   0.276
40656SOL    HW223743  13.932   6.844   0.189
40657SOL     OW23744  12.122   3.965  11.513
40657SOL    HW123745  12.136   4.055  11.486
40657SOL    HW223746  12.059   3.930  11.450
40658SOL     OW23747  12.254   7.112   4.888
40658SOL    HW123748  12.305   7.188   4.860
40658SOL    HW223749  12.268   7.047   4.820
40659SOL     OW23750  13.680   2.607   8.485
40659SOL    HW123751  13.636   2.691   8.502
40659SOL    HW223752  13.638   2.546   8.546
40660SOL     OW23753  12.909  12.520  14.348
40660SOL    HW123754  12.930  12.428  14.362
40660SOL    HW223755  12.873  12.523  14.259
40661SOL     OW23756  10.012   2.567   6.387
40661SOL    HW123757  10.075   2.628   6.424
40661SOL    HW223758   9.976   2.520   6.462
40662SOL     OW23759   8.729   2.062   4.217
40662SOL    HW123760   8.688   2.035   4.299
40662SOL    HW223761   8.815   2.095   4.242
40663SOL     OW23762   1.238   8.724   4.096
40663SOL    HW123763   1.147   8.697   4.107
40663SOL    HW223764   1.257   8.706   4.004
40664SOL     OW23765   1.523  12.714  10.255
40664SOL    HW123766   1.459  12.664  10.305
40664SOL    HW223767   1.475  12.792  10.226
40665SOL     OW23768  10.232   3.138  13.613
40665SOL    HW123769  10.238   3.115  13.520
40665SOL    HW223770  10.310   3.190  13.630
40666SOL     OW23771   4.201   0.945  11.466
40666SOL    HW123772   4.270   0.883  11.443
40666SOL    HW223773   4.236   0.993  11.541
40667SOL     OW23774   9.805  13.085  13.580
40667SOL    HW123775   9.787  13.176  13.604
40667SOL    HW223776   9.844  13.090  13.493
40668SOL     OW23777   4.580  11.501   8.071
40668SOL    HW123778   4.620  11.429   8.021
40668SOL    HW223779   4.602  11.481   8.162
40669SOL     OW23780   4.132   2.471   3.915
40669SOL    HW123781   4.072   2.416   3.966
40669SOL    HW223782   4.089   2.482   3.831
40670SOL     OW23783   1.614   2.688   9.851
40670SOL    HW123784   1.541   2.643   9.808
40670SOL    HW223785   1.675   2.708   9.780
40671SOL     OW23786   6.354   9.219  14.026
40671SOL    HW123787   6.330   9.202  14.117
40671SOL    HW223788   6.448   9.234  14.028
40672SOL     OW23789   9.592   4.797  12.763
40672SOL    HW123790   9.625   4.717  12.723
40672SOL    HW223791   9.531   4.833  12.698
40673SOL     OW23792  12.671   9.936   7.331
40673SOL    HW123793  12.635   9.967   7.414
40673SOL    HW223794  12.736  10.001   7.307
40674SOL     OW23795  12.642  13.417   2.961
40674SOL    HW123796  12.596  13.338   2.932
40674SOL    HW223797  12.714  13.428   2.898
40675SOL     OW23798   1.747   1.783   5.835
40675SOL    HW123799   1.728   1.857   5.891
40675SOL    HW223800   1.841   1.771   5.841
40676SOL     OW23801   1.871  12.318   8.564
40676SOL    HW123802   1.822  12.346   8.642
40676SOL    HW223803   1.871  12.395   8.507
40677SOL     OW23804   1.576   1.488  12.172
40677SOL    HW123805   1.520   1.439  12.232
40677SOL    HW223806   1.515   1.543  12.122
40678SOL     OW23807   1.086   8.569  12.143
40678SOL    HW123808   1.048   8.487  12.173
40678SOL    HW223809   1.179   8.549  12.129
40679SOL     OW23810   1.674   3.928   8.288
40679SOL    HW123811   1.626   3.956   8.367
40679SOL    HW223812   1.650   3.836   8.278
40680SOL     OW23813   5.568  13.441   1.272
40680SOL    HW123814   5.513  13.377   1.318
40680SOL    HW223815   5.635  13.464   1.337
40681SOL     OW23816  11.593   0.643   3.212
40681SOL    HW123817  11.611   0.729   3.174
40681SOL    HW223818  11.629   0.580   3.150
40682SOL     OW23819  11.465  11.966   0.424
40682SOL    HW123820  11.470  12.050   0.471
40682SOL    HW223821  11.441  11.902   0.491
40683SOL     OW23822  12.450   3.200  13.863
40683SOL    HW123823  12.541   3.197  13.892
40683SOL    HW223824  12.432   3.111  13.831
40684SOL     OW23825   9.334   5.167  12.528
40684SOL    HW123826   9.383   5.235  12.575
40684SOL    HW223827   9.252   5.209  12.503
40685SOL     OW23828   1.912  10.545  13.371
40685SOL    HW123829   1.940  10.628  13.410
40685SOL    HW223830   1.979  10.482  13.397
40686SOL     OW23831   1.063   2.499   2.927
40686SOL    HW123832   1.066   2.548   2.845
40686SOL    HW223833   0.993   2.434   2.914
40687SOL     OW23834  12.440   5.347   1.296
40687SOL    HW123835  12.463   5.391   1.214
40687SOL    HW223836  12.371   5.402   1.333
40688SOL     OW23837   3.278  11.117   5.365
40688SOL    HW123838   3.240  11.071   5.440
40688SOL    HW223839   3.307  11.047   5.306
40689SOL     OW23840   0.186   6.905   8.068
40689SOL    HW123841   0.101   6.945   8.048
40689SOL    HW223842   0.167   6.840   8.135
40690SOL     OW23843   8.137   0.992   8.756
40690SOL    HW123844   8.146   0.906   8.798
40690SOL    HW223845   8.043   1.004   8.746
40691SOL     OW23846   1.942   8.275   3.905
40691SOL    HW123847   2.024   8.237   3.874
40691SOL    HW223848   1.892   8.201   3.938
40692SOL     OW23849   0.567   0.921   7.006
40692SOL    HW123850   0.651   0.878   6.992
40692SOL    HW223851   0.582   1.012   6.981
40693SOL     OW23852   8.069  10.716   2.819
40693SOL    HW123853   8.087  10.810   2.812
40693SOL    HW223854   7.974  10.712   2.833
40694SOL     OW23855  14.489   8.226  11.646
40694SOL    HW123856  14.528   8.291  11.589
40694SOL    HW223857  14.395   8.244  11.643
40695SOL     OW23858   8.893  11.543   2.536
40695SOL    HW123859   8.883  11.588   2.620
40695SOL    HW223860   8.877  11.611   2.470
40696SOL     OW23861   2.450   3.974   8.650
40696SOL    HW123862   2.457   4.039   8.720
40696SOL    HW223863   2.530   3.921   8.660
40697SOL     OW23864  10.513   5.187  10.033
40697SOL    HW123865  10.450   5.204   9.963
40697SOL    HW223866  10.571   5.263  10.031
40698SOL     OW23867   2.210  10.293  11.047
40698SOL    HW123868   2.291  10.308  11.095
40698SOL    HW223869   2.236  10.291  10.955
40699SOL     OW23870  10.655   9.549   4.952
40699SOL    HW123871  10.663   9.501   4.870
40699SOL    HW223872  10.644   9.481   5.019
40700SOL     OW23873   0.195   1.649   6.550
40700SOL    HW123874   0.137   1.580   6.582
40700SOL    HW223875   0.280   1.628   6.588
40701SOL     OW23876   7.777  12.093   2.538
40701SOL    HW123877   7.810  12.066   2.624
40701SOL    HW223878   7.856  12.107   2.486
40702SOL     OW23879   1.804  12.095   4.365
40702SOL    HW123880   1.884  12.091   4.312
40702SOL    HW223881   1.770  12.006   4.364
40703SOL     OW23882   7.642   5.418   4.453
40703SOL    HW123883   7.717   5.477   4.445
40703SOL    HW223884   7.600   5.420   4.367
40704SOL     OW23885   4.400   1.082   1.764
40704SOL    HW123886   4.394   1.178   1.769
40704SOL    HW223887   4.494   1.064   1.766
40705SOL     OW23888   6.002   5.802   4.782
40705SOL    HW123889   6.016   5.791   4.688
40705SOL    HW223890   6.073   5.860   4.810
40706SOL     OW23891   5.138  14.500   8.169
40706SOL    HW123892   5.169  14.543   8.089
40706SOL    HW223893   5.136  14.569   8.235
40707SOL     OW23894   0.058   9.134   0.503
40707SOL    HW123895   0.006   9.133   0.423
40707SOL    HW223896   0.078   9.227   0.518
40708SOL     OW23897  11.281  13.475  14.044
40708SOL    HW123898  11.259  13.550  14.099
40708SOL    HW223899  11.372  13.491  14.017
40709SOL     OW23900   6.315   9.395   0.397
40709SOL    HW123901   6.399   9.433   0.420
40709SOL    HW223902   6.298   9.331   0.465
40710SOL     OW23903   9.710  11.156   6.344
40710SOL    HW123904   9.689  11.134   6.253
40710SOL    HW223905   9.763  11.083   6.375
40711SOL     OW23906   9.238  10.704   3.497
40711SOL    HW123907   9.268  10.662   3.417
40711SOL    HW223908   9.144  10.718   3.484
40712SOL     OW23909   0.893  12.229   0.416
40712SOL    HW123910   0.952  12.154   0.401
40712SOL    HW223911   0.876  12.263   0.328
40713SOL     OW23912   9.345   6.426   9.941
40713SOL    HW123913   9.338   6.379  10.024
40713SOL    HW223914   9.317   6.362   9.875
40714SOL     OW23915   4.931   5.589  10.073
40714SOL    HW123916   4.973   5.536  10.006
40714SOL    HW223917   5.003   5.625  10.124
40715SOL     OW23918  12.693   2.316  12.134
40715SOL    HW123919  12.642   2.394  12.153
40715SOL    HW223920  12.628   2.249  12.114
40716SOL     OW23921   8.389   1.203   5.362
40716SOL    HW123922   8.330   1.158   5.301
40716SOL    HW223923   8.399   1.290   5.326
40717SOL     OW23924   0.774   8.996  12.389
40717SOL    HW123925   0.762   9.081  12.430
40717SOL    HW223926   0.838   9.011  12.319
40718SOL     OW23927   6.371   4.796   8.815
40718SOL    HW123928   6.443   4.749   8.858
40718SOL    HW223929   6.318   4.727   8.776
40719SOL     OW23930  14.442  10.478  11.745
40719SOL    HW123931  14.382  10.405  11.752
40719SOL    HW223932  14.436  10.523  11.829
40720SOL     OW23933   5.794   8.557   7.958
40720SOL    HW123934   5.841   8.528   8.036
40720SOL    HW223935   5.806   8.486   7.895
40721SOL     OW23936   2.626   0.490   3.018
40721SOL    HW123937   2.642   0.415   3.076
40721SOL    HW223938   2.638   0.567   3.074
40722SOL     OW23939   0.802   7.170  12.039
40722SOL    HW123940   0.723   7.116  12.035
40722SOL    HW223941   0.826   7.170  12.131
40723SOL     OW23942   4.748   2.798  11.407
40723SOL    HW123943   4.798   2.830  11.332
40723SOL    HW223944   4.657   2.809  11.382
40724SOL     OW23945   5.938   1.248   7.170
40724SOL    HW123946   5.859   1.297   7.146
40724SOL    HW223947   5.936   1.246   7.266
40725SOL     OW23948   2.894   4.715  13.686
40725SOL    HW123949   2.798   4.710  13.684
40725SOL    HW223950   2.914   4.771  13.761
40726SOL     OW23951  10.314   6.042  14.069
40726SOL    HW123952  10.242   6.051  14.132
40726SOL    HW223953  10.348   5.954  14.084
40727SOL     OW23954   3.862   5.565   0.527
40727SOL    HW123955   3.917   5.573   0.605
40727SOL    HW223956   3.853   5.655   0.495
40728SOL     OW23957   2.114  10.216   4.649
40728SOL    HW123958   2.093  10.123   4.653
40728SOL    HW223959   2.030  10.261   4.655
40729SOL     OW23960   0.652   9.586   0.128
40729SOL    HW123961   0.737   9.561   0.165
40729SOL    HW223962   0.612   9.503   0.101
40730SOL     OW23963   0.423  11.592   8.269
40730SOL    HW123964   0.480  11.540   8.326
40730SOL    HW223965   0.483  11.654   8.227
40731SOL     OW23966  13.684   3.119  12.007
40731SOL    HW123967  13.758   3.174  12.033
40731SOL    HW223968  13.724   3.034  11.986
40732SOL     OW23969  11.638   1.851   2.800
40732SOL    HW123970  11.734   1.848   2.796
40732SOL    HW223971  11.612   1.869   2.710
40733SOL     OW23972  14.719   4.597   2.214
40733SOL    HW123973  14.729   4.692   2.210
40733SOL    HW223974  14.639   4.579   2.164
40734SOL     OW23975  14.753   4.679  14.078
40734SOL    HW123976  14.742   4.600  14.024
40734SOL    HW223977  14.671   4.687  14.127
40735SOL     OW23978   9.458   1.032  14.382
40735SOL    HW123979   9.511   1.050  14.304
40735SOL    HW223980   9.368   1.053  14.355
40736SOL     OW23981   7.786   0.021   7.476
40736SOL    HW123982   7.814  14.854   7.555
40736SOL    HW223983   7.806   0.113   7.492
40737SOL     OW23984   3.199  14.536   9.472
40737SOL    HW123985   3.253  14.575   9.541
40737SOL    HW223986   3.117  14.512   9.516
40738SOL     OW23987   6.844   1.635  12.127
40738SOL    HW123988   6.877   1.681  12.050
40738SOL    HW223989   6.832   1.704  12.192
40739SOL     OW23990  13.880   1.612   1.639
40739SOL    HW123991  13.794   1.603   1.681
40739SOL    HW223992  13.941   1.624   1.711
40740SOL     OW23993   1.250   5.623  13.495
40740SOL    HW123994   1.169   5.662  13.463
40740SOL    HW223995   1.221   5.565  13.566
40741SOL     OW23996   3.274  10.724  13.629
40741SOL    HW123997   3.364  10.756  13.636
40741SOL    HW223998   3.277  10.658  13.560
40742SOL     OW23999   2.709   4.490   9.633
40742SOL    HW124000   2.622   4.528   9.632
40742SOL    HW224001   2.698   4.405   9.676
40743SOL     OW24002   6.975  11.744   9.396
40743SOL    HW124003   6.924  11.700   9.328
40743SOL    HW224004   7.031  11.675   9.432
40744SOL     OW24005   2.811   5.264   4.673
40744SOL    HW124006   2.867   5.320   4.728
40744SOL    HW224007   2.872   5.211   4.623
40745SOL     OW24008   5.001   3.714  12.896
40745SOL    HW124009   5.002   3.701  12.990
40745SOL    HW224010   5.088   3.748  12.875
40746SOL     OW24011   5.742  11.016   2.035
40746SOL    HW124012   5.721  10.923   2.044
40746SOL    HW224013   5.834  11.018   2.010
40747SOL     OW24014   5.221   3.175   7.837
40747SOL    HW124015   5.220   3.167   7.742
40747SOL    HW224016   5.128   3.182   7.861
40748SOL     OW24017  13.667   4.354  12.669
40748SOL    HW124018  13.579   4.385  12.691
40748SOL    HW224019  13.674   4.369  12.574
40749SOL     OW24020   5.541   8.614  11.234
40749SOL    HW124021   5.452   8.620  11.200
40749SOL    HW224022   5.576   8.534  11.196
40750SOL     OW24023   5.077   8.631   6.191
40750SOL    HW124024   4.997   8.632   6.138
40750SOL    HW224025   5.147   8.611   6.129
40751SOL     OW24026   8.951  13.856   6.494
40751SOL    HW124027   8.864  13.818   6.504
40751SOL    HW224028   8.971  13.893   6.580
40752SOL     OW24029   9.865  11.070   3.869
40752SOL    HW124030   9.876  11.041   3.960
40752SOL    HW224031   9.940  11.031   3.823
40753SOL     OW24032   9.205   4.425  14.510
40753SOL    HW124033   9.216   4.357  14.576
40753SOL    HW224034   9.276   4.410  14.448
40754SOL     OW24035   7.853   1.201   0.449
40754SOL    HW124036   7.907   1.258   0.394
40754SOL    HW224037   7.905   1.121   0.459
40755SOL     OW24038   6.105   9.952   4.033
40755SOL    HW124039   6.102  10.045   4.053
40755SOL    HW224040   6.193   9.938   3.996
40756SOL     OW24041   2.290   8.903  12.990
40756SOL    HW124042   2.351   8.921  13.061
40756SOL    HW224043   2.310   8.969  12.923
40757SOL     OW24044  12.509   9.219  11.879
40757SOL    HW124045  12.498   9.203  11.973
40757SOL    HW224046  12.587   9.170  11.855
40758SOL     OW24047  10.515  14.106   6.907
40758SOL    HW124048  10.460  14.149   6.842
40758SOL    HW224049  10.565  14.178   6.947
40759SOL     OW24050   0.109  12.334   1.323
40759SOL    HW124051   0.194  12.372   1.348
40759SOL    HW224052   0.111  12.247   1.362
40760SOL     OW24053  13.814   8.486   8.261
40760SOL    HW124054  13.830   8.546   8.334
40760SOL    HW224055  13.886   8.424   8.264
40761SOL     OW24056  14.219   3.666   0.498
40761SOL    HW124057  14.186   3.579   0.522
40761SOL    HW224058  14.303   3.648   0.454
40762SOL     OW24059   7.292   8.491   9.964
40762SOL    HW124060   7.324   8.439  10.037
40762SOL    HW224061   7.352   8.471   9.892
40763SOL     OW24062  10.255   7.883   9.515
40763SOL    HW124063  10.241   7.878   9.421
40763SOL    HW224064  10.173   7.919   9.550
40764SOL     OW24065   6.133   1.376  12.657
40764SOL    HW124066   6.108   1.411  12.742
40764SOL    HW224067   6.075   1.421  12.595
40765SOL     OW24068   7.310   2.685   8.165
40765SOL    HW124069   7.362   2.745   8.110
40765SOL    HW224070   7.298   2.732   8.247
40766SOL     OW24071   1.677  12.099  14.255
40766SOL    HW124072   1.618  12.126  14.185
40766SOL    HW224073   1.653  12.154  14.330
40767SOL     OW24074   8.663   5.565   7.509
40767SOL    HW124075   8.572   5.537   7.507
40767SOL    HW224076   8.713   5.484   7.499
40768SOL     OW24077  12.244   7.577  14.586
40768SOL    HW124078  12.167   7.589  14.531
40768SOL    HW224079  12.220   7.506  14.646
40769SOL     OW24080   3.228  12.818   1.005
40769SOL    HW124081   3.136  12.804   0.985
40769SOL    HW224082   3.252  12.896   0.956
40770SOL     OW24083  14.486  10.581   6.364
40770SOL    HW124084  14.437  10.518   6.311
40770SOL    HW224085  14.549  10.528   6.412
40771SOL     OW24086   6.168  13.168   8.046
40771SOL    HW124087   6.222  13.244   8.067
40771SOL    HW224088   6.083  13.187   8.087
40772SOL     OW24089   2.469   8.808  14.800
40772SOL    HW124090   2.482   8.876  14.733
40772SOL    HW224091   2.533   8.740  14.777
40773SOL     OW24092  12.520  13.560   2.331
40773SOL    HW124093  12.437  13.518   2.352
40773SOL    HW224094  12.494  13.646   2.297
40774SOL     OW24095  13.317  12.356   1.103
40774SOL    HW124096  13.312  12.266   1.134
40774SOL    HW224097  13.394  12.358   1.046
40775SOL     OW24098   4.447   5.952  13.662
40775SOL    HW124099   4.410   5.907  13.586
40775SOL    HW224100   4.384   6.021  13.682
40776SOL     OW24101  10.669  13.584   2.212
40776SOL    HW124102  10.698  13.497   2.240
40776SOL    HW224103  10.720  13.602   2.133
40777SOL     OW24104   8.590   6.056   1.955
40777SOL    HW124105   8.533   6.036   1.881
40777SOL    HW224106   8.550   6.132   1.996
40778SOL     OW24107   3.190   0.337   3.218
40778SOL    HW124108   3.097   0.349   3.196
40778SOL    HW224109   3.196   0.364   3.309
40779SOL     OW24110   3.828   8.024  14.395
40779SOL    HW124111   3.859   7.935  14.413
40779SOL    HW224112   3.833   8.033  14.300
40780SOL     OW24113   3.624  14.530  14.482
40780SOL    HW124114   3.624  14.625  14.471
40780SOL    HW224115   3.647  14.517  14.574
40781SOL     OW24116  14.032   4.877   2.071
40781SOL    HW124117  14.038   4.850   1.979
40781SOL    HW224118  13.973   4.812   2.111
40782SOL     OW24119   1.415   7.022   9.226
40782SOL    HW124120   1.354   7.080   9.272
40782SOL    HW224121   1.417   6.942   9.279
40783SOL     OW24122  14.547   0.888   3.424
40783SOL    HW124123  14.505   0.891   3.510
40783SOL    HW224124  14.473   0.890   3.362
40784SOL     OW24125   5.771  11.816  11.831
40784SOL    HW124126   5.690  11.867  11.838
40784SOL    HW224127   5.802  11.808  11.921
40785SOL     OW24128   1.781  14.295   6.598
40785SOL    HW124129   1.868  14.257   6.590
40785SOL    HW224130   1.722  14.220   6.598
40786SOL     OW24131   1.770   6.612   2.958
40786SOL    HW124132   1.710   6.685   2.945
40786SOL    HW224133   1.847   6.635   2.907
40787SOL     OW24134   1.561   5.861  11.190
40787SOL    HW124135   1.611   5.792  11.233
40787SOL    HW224136   1.561   5.933  11.253
40788SOL     OW24137  14.729   3.837  13.611
40788SOL    HW124138  14.811   3.886  13.604
40788SOL    HW224139  14.742   3.761  13.554
40789SOL     OW24140   1.009  14.363   8.666
40789SOL    HW124141   1.013  14.410   8.749
40789SOL    HW224142   1.051  14.421   8.603
40790SOL     OW24143  11.063   2.050   5.248
40790SOL    HW124144  11.048   2.141   5.222
40790SOL    HW224145  11.127   2.017   5.185
40791SOL     OW24146   7.657  14.075   6.248
40791SOL    HW124147   7.605  14.001   6.216
40791SOL    HW224148   7.626  14.150   6.198
40792SOL     OW24149   9.593   7.786   5.579
40792SOL    HW124150   9.560   7.700   5.554
40792SOL    HW224151   9.572   7.843   5.505
40793SOL     OW24152   3.731   8.290   2.825
40793SOL    HW124153   3.749   8.264   2.734
40793SOL    HW224154   3.654   8.239   2.850
40794SOL     OW24155   3.688   5.094   2.426
40794SOL    HW124156   3.765   5.048   2.459
40794SOL    HW224157   3.626   5.024   2.405
40795SOL     OW24158   8.677   8.582  10.364
40795SOL    HW124159   8.658   8.526  10.289
40795SOL    HW224160   8.762   8.550  10.396
40796SOL     OW24161   6.016   4.388  12.107
40796SOL    HW124162   6.016   4.459  12.043
40796SOL    HW224163   6.104   4.390  12.145
40797SOL     OW24164  13.726  14.743   5.953
40797SOL    HW124165  13.701  14.679   6.019
40797SOL    HW224166  13.699  14.703   5.870
40798SOL     OW24167   7.354  11.240  13.384
40798SOL    HW124168   7.341  11.332  13.359
40798SOL    HW224169   7.295  11.191  13.327
40799SOL     OW24170   8.147   2.748  10.395
40799SOL    HW124171   8.125   2.838  10.419
40799SOL    HW224172   8.082   2.725  10.328
40800SOL     OW24173  10.860  13.653  13.883
40800SOL    HW124174  10.914  13.592  13.835
40800SOL    HW224175  10.770  13.621  13.872
40801SOL     OW24176   1.574   8.398  14.351
40801SOL    HW124177   1.612   8.482  14.374
40801SOL    HW224178   1.638   8.333  14.382
40802SOL     OW24179   8.856   9.832   5.604
40802SOL    HW124180   8.912   9.774   5.657
40802SOL    HW224181   8.782   9.777   5.579
40803SOL     OW24182   2.970   4.152   3.686
40803SOL    HW124183   2.994   4.061   3.702
40803SOL    HW224184   2.995   4.168   3.595
40804SOL     OW24185   1.119   8.289  13.876
40804SOL    HW124186   1.208   8.266  13.849
40804SOL    HW224187   1.130   8.329  13.963
40805SOL     OW24188   7.600   8.615  12.028
40805SOL    HW124189   7.693   8.620  12.047
40805SOL    HW224190   7.583   8.522  12.014
40806SOL     OW24191   3.520   0.367   8.532
40806SOL    HW124192   3.431   0.394   8.510
40806SOL    HW224193   3.527   0.278   8.497
40807SOL     OW24194   1.405   2.503  11.776
40807SOL    HW124195   1.420   2.588  11.816
40807SOL    HW224196   1.489   2.457  11.784
40808SOL     OW24197  14.800  11.426  13.160
40808SOL    HW124198  14.711  11.443  13.191
40808SOL    HW224199  14.789  11.359  13.092
40809SOL     OW24200   5.553  10.719  14.396
40809SOL    HW124201   5.536  10.668  14.317
40809SOL    HW224202   5.646  10.742  14.391
40810SOL     OW24203   2.873   8.500   0.188
40810SOL    HW124204   2.939   8.568   0.207
40810SOL    HW224205   2.922   8.418   0.190
40811SOL     OW24206   3.608   2.748  12.577
40811SOL    HW124207   3.638   2.781  12.493
40811SOL    HW224208   3.589   2.826  12.628
40812SOL     OW24209   9.465   8.426  11.532
40812SOL    HW124210   9.425   8.365  11.472
40812SOL    HW224211   9.482   8.504  11.480
40813SOL     OW24212   9.753   3.393  13.000
40813SOL    HW124213   9.763   3.393  12.905
40813SOL    HW224214   9.798   3.473  13.029
40814SOL     OW24215   0.997   9.703   0.811
40814SOL    HW124216   1.044   9.620   0.819
40814SOL    HW224217   0.905   9.678   0.816
40815SOL     OW24218   7.340  10.760  12.144
40815SOL    HW124219   7.265  10.799  12.189
40815SOL    HW224220   7.313  10.670  12.126
40816SOL     OW24221  13.075   4.669   1.466
40816SOL    HW124222  13.051   4.746   1.516
40816SOL    HW224223  13.149   4.632   1.515
40817SOL     OW24224   6.135  14.649   2.278
40817SOL    HW124225   6.168  14.732   2.243
40817SOL    HW224226   6.041  14.653   2.264
40818SOL     OW24227   7.822   5.705   0.951
40818SOL    HW124228   7.899   5.648   0.944
40818SOL    HW224229   7.802   5.728   0.860
40819SOL     OW24230  12.789   4.880  14.507
40819SOL    HW124231  12.801   4.805  14.566
40819SOL    HW224232  12.696   4.899  14.511
40820SOL     OW24233  13.703   1.720  12.977
40820SOL    HW124234  13.776   1.680  12.928
40820SOL    HW224235  13.746   1.778  13.039
40821SOL     OW24236  13.506   0.271   5.911
40821SOL    HW124237  13.511   0.185   5.952
40821SOL    HW224238  13.592   0.284   5.872
40822SOL     OW24239   7.257  12.924  14.461
40822SOL    HW124240   7.276  12.936  14.368
40822SOL    HW224241   7.183  12.982  14.477
40823SOL     OW24242   6.433   8.493  11.688
40823SOL    HW124243   6.403   8.541  11.611
40823SOL    HW224244   6.360   8.434  11.709
40824SOL     OW24245   5.022   3.507  11.565
40824SOL    HW124246   5.012   3.432  11.506
40824SOL    HW224247   4.946   3.563  11.545
40825SOL     OW24248   3.787   6.515   0.133
40825SOL    HW124249   3.820   6.427   0.152
40825SOL    HW224250   3.694   6.501   0.113
40826SOL     OW24251   0.057  14.621   1.156
40826SOL    HW124252  14.868  14.569   1.199
40826SOL    HW224253   0.123  14.637   1.224
40827SOL     OW24254   1.407  10.898   6.729
40827SOL    HW124255   1.400  10.964   6.661
40827SOL    HW224256   1.320  10.893   6.768
40828SOL     OW24257  10.989  10.433   8.478
40828SOL    HW124258  11.028  10.512   8.514
40828SOL    HW224259  10.908  10.462   8.438
40829SOL     OW24260  13.701  13.686   7.330
40829SOL    HW124261  13.631  13.677   7.265
40829SOL    HW224262  13.704  13.601   7.374
40830SOL     OW24263   6.229  13.554   4.428
40830SOL    HW124264   6.266  13.490   4.489
40830SOL    HW224265   6.292  13.557   4.356
40831SOL     OW24266  14.370  11.302  14.530
40831SOL    HW124267  14.453  11.350  14.526
40831SOL    HW224268  14.389  11.219  14.485
40832SOL     OW24269   5.434  13.098   7.629
40832SOL    HW124270   5.493  13.170   7.651
40832SOL    HW224271   5.359  13.139   7.587
40833SOL     OW24272   3.879   5.376  10.523
40833SOL    HW124273   3.945   5.331  10.576
40833SOL    HW224274   3.925   5.452  10.488
40834SOL     OW24275   8.449  13.703  13.097
40834SOL    HW124276   8.544  13.698  13.091
40834SOL    HW224277   8.425  13.642  13.167
40835SOL     OW24278   9.765  11.936   1.472
40835SOL    HW124279   9.779  11.954   1.379
40835SOL    HW224280   9.799  11.847   1.484
40836SOL     OW24281  11.076   9.262   7.901
40836SOL    HW124282  11.107   9.175   7.925
40836SOL    HW224283  11.099   9.271   7.808
40837SOL     OW24284   5.093   4.657   2.880
40837SOL    HW124285   5.047   4.608   2.812
40837SOL    HW224286   5.027   4.671   2.949
40838SOL     OW24287   9.846   2.458  12.284
40838SOL    HW124288   9.924   2.430  12.236
40838SOL    HW224289   9.781   2.475  12.216
40839SOL     OW24290   3.642   3.549   6.610
40839SOL    HW124291   3.638   3.638   6.646
40839SOL    HW224292   3.678   3.496   6.681
40840SOL     OW24293   4.297   6.617   6.150
40840SOL    HW124294   4.265   6.531   6.120
40840SOL    HW224295   4.391   6.615   6.133
40841SOL     OW24296  11.832   0.488   3.544
40841SOL    HW124297  11.757   0.547   3.551
40841SOL    HW224298  11.800   0.404   3.579
40842SOL     OW24299   7.775  10.697   7.884
40842SOL    HW124300   7.745  10.785   7.906
40842SOL    HW224301   7.821  10.707   7.800
40843SOL     OW24302  14.165  13.238   4.823
40843SOL    HW124303  14.110  13.316   4.822
40843SOL    HW224304  14.180  13.218   4.731
40844SOL     OW24305   7.796  14.125  13.373
40844SOL    HW124306   7.780  14.129  13.279
40844SOL    HW224307   7.822  14.214  13.397
40845SOL     OW24308   0.016   9.441  14.207
40845SOL    HW124309  14.865   9.419  14.295
40845SOL    HW224310  14.813   9.450  14.157
40846SOL     OW24311  14.324   4.115   4.552
40846SOL    HW124312  14.242   4.163   4.559
40846SOL    HW224313  14.343   4.086   4.641
40847SOL     OW24314   5.376  11.250  14.808
40847SOL    HW124315   5.425  11.297  14.741
40847SOL    HW224316   5.348  11.319  14.869
40848SOL     OW24317   6.162   7.754   3.049
40848SOL    HW124318   6.141   7.661   3.035
40848SOL    HW224319   6.079   7.799   3.042
40849SOL     OW24320   4.179  10.233   0.780
40849SOL    HW124321   4.216  10.176   0.847
40849SOL    HW224322   4.201  10.190   0.697
40850SOL     OW24323   3.265   8.708   7.154
40850SOL    HW124324   3.282   8.764   7.078
40850SOL    HW224325   3.341   8.722   7.211
40851SOL     OW24326   4.303  14.611  10.870
40851SOL    HW124327   4.327  14.560  10.792
40851SOL    HW224328   4.385  14.652  10.898
40852SOL     OW24329  13.839   5.813  13.882
40852SOL    HW124330  13.836   5.904  13.852
40852SOL    HW224331  13.747   5.790  13.898
40853SOL     OW24332   4.145  12.612   7.777
40853SOL    HW124333   4.109  12.566   7.853
40853SOL    HW224334   4.131  12.552   7.704
40854SOL     OW24335  10.687   0.810   2.274
40854SOL    HW124336  10.681   0.782   2.366
40854SOL    HW224337  10.626   0.753   2.228
40855SOL     OW24338  12.083   7.708   8.618
40855SOL    HW124339  12.081   7.727   8.524
40855SOL    HW224340  12.169   7.741   8.647
40856SOL     OW24341   0.265   9.656  13.263
40856SOL    HW124342   0.317   9.735  13.256
40856SOL    HW224343   0.204   9.660  13.190
40857SOL     OW24344   7.614   4.547   0.815
40857SOL    HW124345   7.631   4.469   0.869
40857SOL    HW224346   7.695   4.597   0.820
40858SOL     OW24347   7.806   8.281  13.273
40858SOL    HW124348   7.886   8.254  13.230
40858SOL    HW224349   7.787   8.367  13.237
40859SOL     OW24350   6.214  13.991   1.624
40859SOL    HW124351   6.217  14.085   1.644
40859SOL    HW224352   6.123  13.966   1.639
40860SOL     OW24353  11.686   8.815  10.795
40860SOL    HW124354  11.603   8.797  10.839
40860SOL    HW224355  11.752   8.792  10.860
40861SOL     OW24356   0.573   2.395   9.778
40861SOL    HW124357   0.634   2.346   9.833
40861SOL    HW224358   0.534   2.328   9.721
40862SOL     OW24359  12.279   1.057   4.805
40862SOL    HW124360  12.244   1.146   4.814
40862SOL    HW224361  12.211   1.001   4.843
40863SOL     OW24362   4.795  11.611   9.996
40863SOL    HW124363   4.763  11.596  10.085
40863SOL    HW224364   4.742  11.684   9.964
40864SOL     OW24365  10.584  14.363   2.585
40864SOL    HW124366  10.601  14.422   2.659
40864SOL    HW224367  10.591  14.419   2.508
40865SOL     OW24368   7.016   0.732   1.932
40865SOL    HW124369   7.076   0.719   2.006
40865SOL    HW224370   6.990   0.644   1.906
40866SOL     OW24371   0.555   8.242   9.005
40866SOL    HW124372   0.572   8.155   9.041
40866SOL    HW224373   0.462   8.241   8.983
40867SOL     OW24374   8.302   0.444  13.807
40867SOL    HW124375   8.244   0.389  13.859
40867SOL    HW224376   8.295   0.531  13.846
40868SOL     OW24377   8.297   2.281  13.421
40868SOL    HW124378   8.337   2.332  13.491
40868SOL    HW224379   8.204   2.298  13.428
40869SOL     OW24380   3.598   1.404   3.899
40869SOL    HW124381   3.562   1.475   3.847
40869SOL    HW224382   3.617   1.444   3.984
40870SOL     OW24383   8.933   9.606  10.293
40870SOL    HW124384   8.869   9.606  10.364
40870SOL    HW224385   8.884   9.580  10.216
40871SOL     OW24386   4.407   1.969   0.647
40871SOL    HW124387   4.468   1.952   0.720
40871SOL    HW224388   4.341   2.026   0.685
40872SOL     OW24389   7.126   4.806   9.053
40872SOL    HW124390   7.182   4.837   9.124
40872SOL    HW224391   7.128   4.710   9.061
40873SOL     OW24392  13.979   4.363   8.852
40873SOL    HW124393  14.052   4.303   8.864
40873SOL    HW224394  13.901   4.310   8.868
40874SOL     OW24395   7.966   7.766   4.471
40874SOL    HW124396   8.021   7.690   4.453
40874SOL    HW224397   7.911   7.738   4.545
40875SOL     OW24398   1.082   6.876   2.082
40875SOL    HW124399   1.113   6.883   1.991
40875SOL    HW224400   1.080   6.967   2.113
40876SOL     OW24401   9.858   9.209   4.066
40876SOL    HW124402   9.803   9.288   4.060
40876SOL    HW224403   9.855   9.186   4.159
40877SOL     OW24404   7.002   4.422   1.496
40877SOL    HW124405   7.022   4.485   1.427
40877SOL    HW224406   7.083   4.416   1.547
40878SOL     OW24407   4.784   6.241   6.630
40878SOL    HW124408   4.760   6.304   6.698
40878SOL    HW224409   4.846   6.182   6.672
40879SOL     OW24410  12.344   5.300  11.489
40879SOL    HW124411  12.319   5.390  11.511
40879SOL    HW224412  12.311   5.247  11.561
40880SOL     OW24413   7.696   9.604   7.291
40880SOL    HW124414   7.714   9.672   7.356
40880SOL    HW224415   7.769   9.609   7.230
40881SOL     OW24416   7.156   3.683  13.153
40881SOL    HW124417   7.245   3.702  13.123
40881SOL    HW224418   7.116   3.770  13.163
40882SOL     OW24419   9.544   2.947  11.713
40882SOL    HW124420   9.596   2.992  11.779
40882SOL    HW224421   9.582   2.975  11.629
40883SOL     OW24422   9.136   9.770   1.942
40883SOL    HW124423   9.096   9.683   1.945
40883SOL    HW224424   9.062   9.829   1.931
40884SOL     OW24425  12.732   2.392  14.078
40884SOL    HW124426  12.658   2.331  14.075
40884SOL    HW224427  12.748   2.417  13.987
40885SOL     OW24428   9.192  10.476   1.160
40885SOL    HW124429   9.152  10.421   1.092
40885SOL    HW224430   9.270  10.427   1.187
40886SOL     OW24431   5.130   1.168   3.023
40886SOL    HW124432   5.190   1.183   3.096
40886SOL    HW224433   5.043   1.188   3.059
40887SOL     OW24434   4.884   7.260  12.854
40887SOL    HW124435   4.820   7.236  12.921
40887SOL    HW224436   4.898   7.180  12.804
40888SOL     OW24437   7.379   4.491  13.559
40888SOL    HW124438   7.284   4.494  13.573
40888SOL    HW224439   7.388   4.454  13.471
40889SOL     OW24440   2.187   8.201   6.435
40889SOL    HW124441   2.271   8.246   6.448
40889SOL    HW224442   2.138   8.259   6.377
40890SOL     OW24443   9.420   0.371   0.782
40890SOL    HW124444   9.436   0.288   0.828
40890SOL    HW224445   9.505   0.394   0.745
40891SOL     OW24446   3.979   9.178   8.503
40891SOL    HW124447   3.980   9.265   8.544
40891SOL    HW224448   4.003   9.118   8.573
40892SOL     OW24449   9.622   6.782   8.338
40892SOL    HW124450   9.655   6.750   8.254
40892SOL    HW224451   9.667   6.866   8.351
40893SOL     OW24452  10.814   8.277   5.411
40893SOL    HW124453  10.828   8.192   5.369
40893SOL    HW224454  10.737   8.264   5.466
40894SOL     OW24455   0.438   3.655  12.603
40894SOL    HW124456   0.364   3.675  12.660
40894SOL    HW224457   0.513   3.652  12.662
40895SOL     OW24458  14.054  11.036   2.601
40895SOL    HW124459  14.051  11.129   2.620
40895SOL    HW224460  14.062  10.994   2.687
40896SOL     OW24461  14.119  13.290   7.332
40896SOL    HW124462  14.138  13.350   7.404
40896SOL    HW224463  14.193  13.229   7.331
40897SOL     OW24464   9.646   3.252   5.920
40897SOL    HW124465   9.710   3.322   5.909
40897SOL    HW224466   9.570   3.295   5.959
40898SOL     OW24467   9.356   8.900   4.935
40898SOL    HW124468   9.318   8.969   4.882
40898SOL    HW224469   9.338   8.926   5.026
40899SOL     OW24470   3.481   6.784  12.020
40899SOL    HW124471   3.455   6.799  11.929
40899SOL    HW224472   3.539   6.858  12.040
40900SOL     OW24473   6.972  13.192   3.249
40900SOL    HW124474   7.038  13.261   3.249
40900SOL    HW224475   7.020  13.112   3.227
40901SOL     OW24476  13.430   7.083   2.603
40901SOL    HW124477  13.511   7.074   2.551
40901SOL    HW224478  13.368   7.025   2.559
40902SOL     OW24479  12.790   6.383  13.943
40902SOL    HW124480  12.784   6.473  13.912
40902SOL    HW224481  12.719   6.337  13.898
40903SOL     OW24482   6.484   4.615   9.769
40903SOL    HW124483   6.475   4.611   9.674
40903SOL    HW224484   6.407   4.664   9.799
40904SOL     OW24485  11.007   7.042   0.437
40904SOL    HW124486  11.047   7.080   0.359
40904SOL    HW224487  10.937   6.985   0.403
40905SOL     OW24488   0.346   8.018   7.162
40905SOL    HW124489   0.325   8.104   7.196
40905SOL    HW224490   0.353   7.962   7.239
40906SOL     OW24491  11.987   4.386  14.871
40906SOL    HW124492  12.005   4.355   0.082
40906SOL    HW224493  11.900   4.426  14.876
40907SOL     OW24494   9.452   9.343   5.459
40907SOL    HW124495   9.377   9.389   5.421
40907SOL    HW224496   9.467   9.269   5.400
40908SOL     OW24497   4.379   3.262   5.480
40908SOL    HW124498   4.325   3.186   5.504
40908SOL    HW224499   4.318   3.324   5.441
40909SOL     OW24500   1.750  14.811   3.894
40909SOL    HW124501   1.733  14.825   3.987
40909SOL    HW224502   1.803   0.009   3.867
40910SOL     OW24503   2.233   7.692  12.146
40910SOL    HW124504   2.257   7.686  12.239
40910SOL    HW224505   2.138   7.693  12.145
40911SOL     OW24506   7.518  12.805   0.856
40911SOL    HW124507   7.552  12.759   0.779
40911SOL    HW224508   7.493  12.891   0.824
40912SOL     OW24509   5.965   5.838   7.781
40912SOL    HW124510   6.011   5.879   7.708
40912SOL    HW224511   6.020   5.763   7.805
40913SOL     OW24512   8.824  12.046  12.417
40913SOL    HW124513   8.800  11.962  12.379
40913SOL    HW224514   8.764  12.109  12.377
40914SOL     OW24515  13.994  11.092   7.839
40914SOL    HW124516  14.054  11.021   7.819
40914SOL    HW224517  14.002  11.153   7.766
40915SOL     OW24518   7.705   1.938  10.954
40915SOL    HW124519   7.792   1.947  10.993
40915SOL    HW224520   7.722   1.927  10.860
40916SOL     OW24521   4.943   3.830  14.257
40916SOL    HW124522   5.008   3.761  14.241
40916SOL    HW224523   4.924   3.822  14.351
40917SOL     OW24524   4.608   1.259  13.510
40917SOL    HW124525   4.513   1.252  13.525
40917SOL    HW224526   4.642   1.173  13.534
40918SOL     OW24527   3.531  14.695  12.462
40918SOL    HW124528   3.518  14.663  12.372
40918SOL    HW224529   3.589  14.631  12.502
40919SOL     OW24530  13.798   6.780   2.553
40919SOL    HW124531  13.751   6.734   2.623
40919SOL    HW224532  13.733   6.791   2.484
40920SOL     OW24533  12.836   7.946  14.449
40920SOL    HW124534  12.853   7.932  14.356
40920SOL    HW224535  12.870   8.034  14.466
40921SOL     OW24536   0.790   2.183  12.143
40921SOL    HW124537   0.857   2.251  12.144
40921SOL    HW224538   0.758   2.182  12.053
40922SOL     OW24539   4.775  13.885   7.877
40922SOL    HW124540   4.845  13.885   7.811
40922SOL    HW224541   4.810  13.939   7.948
40923SOL     OW24542   4.755   1.622   1.333
40923SOL    HW124543   4.831   1.612   1.389
40923SOL    HW224544   4.775   1.571   1.255
40924SOL     OW24545   1.792   8.047  14.018
40924SOL    HW124546   1.778   8.141  14.009
40924SOL    HW224547   1.782   8.030  14.112
40925SOL     OW24548  12.208   1.417  13.116
40925SOL    HW124549  12.177   1.452  13.200
40925SOL    HW224550  12.147   1.346  13.095
40926SOL     OW24551  14.373   1.091   5.159
40926SOL    HW124552  14.287   1.050   5.151
40926SOL    HW224553  14.360   1.160   5.224
40927SOL     OW24554   1.726   4.815  14.225
40927SOL    HW124555   1.713   4.900  14.267
40927SOL    HW224556   1.750   4.756  14.296
40928SOL     OW24557  14.112   2.341  14.636
40928SOL    HW124558  14.172   2.351  14.710
40928SOL    HW224559  14.101   2.430  14.602
40929SOL     OW24560   3.751   7.519   1.063
40929SOL    HW124561   3.829   7.534   1.009
40929SOL    HW224562   3.725   7.607   1.092
40930SOL     OW24563   6.197   8.534   3.101
40930SOL    HW124564   6.242   8.608   3.141
40930SOL    HW224565   6.125   8.574   3.052
40931SOL     OW24566  11.639   7.996   8.149
40931SOL    HW124567  11.635   7.907   8.186
40931SOL    HW224568  11.558   8.038   8.178
40932SOL     OW24569   7.817   6.256  12.947
40932SOL    HW124570   7.745   6.284  12.890
40932SOL    HW224571   7.774   6.215  13.021
40933SOL     OW24572   6.334   1.671  12.961
40933SOL    HW124573   6.328   1.682  13.056
40933SOL    HW224574   6.244   1.668  12.931
40934SOL     OW24575   4.547   2.558  14.539
40934SOL    HW124576   4.619   2.495  14.540
40934SOL    HW224577   4.482   2.520  14.479
40935SOL     OW24578   7.827   9.196   7.608
40935SOL    HW124579   7.903   9.163   7.560
40935SOL    HW224580   7.801   9.275   7.560
40936SOL     OW24581   5.431   8.469   7.079
40936SOL    HW124582   5.355   8.527   7.090
40936SOL    HW224583   5.502   8.514   7.124
40937SOL     OW24584   1.367   5.904   0.679
40937SOL    HW124585   1.460   5.923   0.662
40937SOL    HW224586   1.354   5.929   0.770
40938SOL     OW24587   5.336   0.306  13.331
40938SOL    HW124588   5.396   0.259  13.389
40938SOL    HW224589   5.365   0.284  13.243
40939SOL     OW24590  10.657   8.217   1.748
40939SOL    HW124591  10.607   8.230   1.828
40939SOL    HW224592  10.706   8.137   1.762
40940SOL     OW24593   7.050   8.014   8.586
40940SOL    HW124594   7.052   7.927   8.545
40940SOL    HW224595   7.126   8.059   8.550
40941SOL     OW24596   2.052  13.903  11.274
40941SOL    HW124597   2.025  13.990  11.303
40941SOL    HW224598   2.040  13.905  11.179
40942SOL     OW24599   7.167   8.019  13.123
40942SOL    HW124600   7.199   7.952  13.183
40942SOL    HW224601   7.239   8.082  13.118
40943SOL     OW24602   3.535   6.311  13.107
40943SOL    HW124603   3.458   6.264  13.075
40943SOL    HW224604   3.500   6.387  13.154
40944SOL     OW24605   3.109   5.030  13.480
40944SOL    HW124606   3.053   5.077  13.418
40944SOL    HW224607   3.070   5.050  13.566
40945SOL     OW24608  14.769   3.431   9.210
40945SOL    HW124609  14.811   3.497   9.153
40945SOL    HW224610  14.741   3.362   9.149
40946SOL     OW24611   5.213   2.639  11.702
40946SOL    HW124612   5.137   2.681  11.742
40946SOL    HW224613   5.260   2.599  11.775
40947SOL     OW24614   1.928   6.676   8.431
40947SOL    HW124615   1.838   6.651   8.410
40947SOL    HW224616   1.944   6.753   8.376
40948SOL     OW24617   5.715   7.393  10.563
40948SOL    HW124618   5.785   7.437  10.515
40948SOL    HW224619   5.648   7.460  10.576
40949SOL     OW24620   5.753   7.864   0.577
40949SOL    HW124621   5.824   7.928   0.574
40949SOL    HW224622   5.707   7.884   0.658
40950SOL     OW24623   2.829   9.060   2.826
40950SOL    HW124624   2.871   9.039   2.909
40950SOL    HW224625   2.874   9.006   2.761
40951SOL     OW24626  13.459  13.180   8.948
40951SOL    HW124627  13.447  13.176   8.853
40951SOL    HW224628  13.403  13.109   8.981
40952SOL     OW24629   0.155  10.251   5.317
40952SOL    HW124630   0.176  10.158   5.314
40952SOL    HW224631   0.151  10.278   5.226
40953SOL     OW24632   1.648   4.889   0.149
40953SOL    HW124633   1.553   4.900   0.138
40953SOL    HW224634   1.656   4.812   0.206
40954SOL     OW24635   3.239   8.274  12.484
40954SOL    HW124636   3.175   8.249  12.551
40954SOL    HW224637   3.252   8.195  12.433
40955SOL     OW24638   2.155   9.082  13.516
40955SOL    HW124639   2.134   9.134  13.438
40955SOL    HW224640   2.114   8.997  13.498
40956SOL     OW24641   7.983  10.854   7.304
40956SOL    HW124642   7.969  10.884   7.214
40956SOL    HW224643   7.988  10.758   7.297
40957SOL     OW24644  13.559   4.948   8.887
40957SOL    HW124645  13.631   5.009   8.868
40957SOL    HW224646  13.485   5.006   8.907
40958SOL     OW24647   8.115  10.167   8.096
40958SOL    HW124648   8.078  10.080   8.084
40958SOL    HW224649   8.144  10.169   8.187
40959SOL     OW24650  13.001  10.616   2.203
40959SOL    HW124651  13.072  10.660   2.252
40959SOL    HW224652  12.926  10.619   2.263
40960SOL     OW24653   8.257   9.774  13.823
40960SOL    HW124654   8.283   9.704  13.762
40960SOL    HW224655   8.240   9.849  13.766
40961SOL     OW24656  13.151   8.149  11.133
40961SOL    HW124657  13.151   8.091  11.057
40961SOL    HW224658  13.083   8.114  11.190
40962SOL     OW24659   9.885   6.568   1.113
40962SOL    HW124660   9.944   6.610   1.176
40962SOL    HW224661   9.934   6.492   1.082
40963SOL     OW24662   3.591   4.899   6.869
40963SOL    HW124663   3.513   4.948   6.841
40963SOL    HW224664   3.568   4.866   6.956
40964SOL     OW24665   1.956   2.970  12.270
40964SOL    HW124666   2.026   2.947  12.209
40964SOL    HW224667   1.877   2.975  12.216
40965SOL     OW24668  12.713   9.443   9.512
40965SOL    HW124669  12.750   9.390   9.442
40965SOL    HW224670  12.620   9.451   9.490
40966SOL     OW24671   3.889   0.592  11.982
40966SOL    HW124672   3.919   0.646  11.908
40966SOL    HW224673   3.957   0.525  11.991
40967SOL     OW24674   1.637  13.151  10.690
40967SOL    HW124675   1.701  13.221  10.681
40967SOL    HW224676   1.686  13.077  10.725
40968SOL     OW24677   4.857  11.586   9.005
40968SOL    HW124678   4.926  11.602   9.070
40968SOL    HW224679   4.859  11.491   8.992
40969SOL     OW24680   6.573   9.321   8.349
40969SOL    HW124681   6.613   9.305   8.434
40969SOL    HW224682   6.506   9.253   8.341
40970SOL     OW24683  10.413  13.721  10.986
40970SOL    HW124684  10.442  13.670  11.061
40970SOL    HW224685  10.466  13.801  10.989
40971SOL     OW24686   5.472  14.236  12.084
40971SOL    HW124687   5.398  14.283  12.043
40971SOL    HW224688   5.435  14.151  12.110
40972SOL     OW24689   6.778  13.925   6.101
40972SOL    HW124690   6.707  13.864   6.123
40972SOL    HW224691   6.813  13.892   6.018
40973SOL     OW24692   0.860   1.697   3.169
40973SOL    HW124693   0.910   1.615   3.171
40973SOL    HW224694   0.828   1.703   3.079
40974SOL     OW24695   7.044   0.394   0.398
40974SOL    HW124696   7.014   0.387   0.489
40974SOL    HW224697   6.963   0.395   0.347
40975SOL     OW24698   7.649  12.315   2.294
40975SOL    HW124699   7.691  12.265   2.364
40975SOL    HW224700   7.630  12.400   2.333
40976SOL     OW24701   8.738   5.480   8.307
40976SOL    HW124702   8.737   5.544   8.236
40976SOL    HW224703   8.808   5.419   8.284
40977SOL     OW24704   5.985  10.231  11.842
40977SOL    HW124705   5.995  10.146  11.799
40977SOL    HW224706   6.018  10.295  11.779
40978SOL     OW24707  11.277   7.619   9.015
40978SOL    HW124708  11.204   7.609   9.076
40978SOL    HW224709  11.315   7.704   9.037
40979SOL     OW24710   8.423   1.925   7.248
40979SOL    HW124711   8.499   1.946   7.195
40979SOL    HW224712   8.406   1.832   7.231
40980SOL     OW24713  13.788   1.029   9.855
40980SOL    HW124714  13.799   1.092   9.785
40980SOL    HW224715  13.738   0.957   9.816
40981SOL     OW24716   2.590   6.859   9.680
40981SOL    HW124717   2.572   6.797   9.751
40981SOL    HW224718   2.573   6.811   9.600
40982SOL     OW24719  12.608  10.272   5.697
40982SOL    HW124720  12.604  10.254   5.791
40982SOL    HW224721  12.563  10.198   5.657
40983SOL     OW24722   0.885   4.414  12.738
40983SOL    HW124723   0.923   4.502  12.737
40983SOL    HW224724   0.947   4.363  12.791
40984SOL     OW24725   8.423  14.591  12.529
40984SOL    HW124726   8.340  14.612  12.485
40984SOL    HW224727   8.436  14.498  12.513
40985SOL     OW24728  12.012  11.465   9.029
40985SOL    HW124729  12.031  11.482   9.121
40985SOL    HW224730  11.917  11.449   9.027
40986SOL     OW24731   3.546  11.533   5.223
40986SOL    HW124732   3.605  11.554   5.296
40986SOL    HW224733   3.509  11.618   5.198
40987SOL     OW24734  10.515   4.527  10.414
40987SOL    HW124735  10.421   4.508  10.414
40987SOL    HW224736  10.531   4.561  10.502
40988SOL     OW24737   6.994   2.597  12.873
40988SOL    HW124738   7.076   2.552  12.892
40988SOL    HW224739   6.963   2.628  12.958
40989SOL     OW24740   5.833   2.538   1.990
40989SOL    HW124741   5.821   2.486   2.069
40989SOL    HW224742   5.820   2.629   2.019
40990SOL     OW24743   7.940   2.139   3.813
40990SOL    HW124744   7.927   2.110   3.903
40990SOL    HW224745   7.852   2.153   3.779
40991SOL     OW24746   8.382  11.474   9.392
40991SOL    HW124747   8.415  11.499   9.478
40991SOL    HW224748   8.425  11.390   9.373
40992SOL     OW24749   1.081  13.951   8.357
40992SOL    HW124750   1.146  13.882   8.372
40992SOL    HW224751   1.122  14.009   8.294
40993SOL     OW24752  10.253   1.114   3.657
40993SOL    HW124753  10.180   1.115   3.595
40993SOL    HW224754  10.330   1.093   3.604
40994SOL     OW24755   6.621  11.138  12.355
40994SOL    HW124756   6.557  11.072  12.328
40994SOL    HW224757   6.699  11.088  12.376
40995SOL     OW24758   7.431  14.637   0.900
40995SOL    HW124759   7.408  14.585   0.977
40995SOL    HW224760   7.521  14.664   0.915
40996SOL     OW24761   5.737   8.068   1.306
40996SOL    HW124762   5.806   8.128   1.279
40996SOL    HW224763   5.657   8.121   1.305
40997SOL     OW24764   5.276  13.831   9.937
40997SOL    HW124765   5.202  13.870   9.891
40997SOL    HW224766   5.281  13.877  10.020
40998SOL     OW24767   4.644   8.804  11.321
40998SOL    HW124768   4.570   8.805  11.381
40998SOL    HW224769   4.676   8.713  11.324
40999SOL     OW24770   5.547   9.347   2.743
40999SOL    HW124771   5.513   9.378   2.659
40999SOL    HW224772   5.555   9.252   2.731
41000SOL     OW24773   7.861   3.150  12.797
41000SOL    HW124774   7.830   3.059  12.803
41000SOL    HW224775   7.821   3.194  12.872
41001SOL     OW24776   1.561   8.812   9.654
41001SOL    HW124777   1.635   8.871   9.638
41001SOL    HW224778   1.545   8.771   9.569
41002SOL     OW24779  12.130   0.147  10.987
41002SOL    HW124780  12.095   0.231  11.015
41002SOL    HW224781  12.187   0.119  11.058
41003SOL     OW24782   3.601   5.126   4.016
41003SOL    HW124783   3.544   5.051   4.036
41003SOL    HW224784   3.662   5.129   4.090
41004SOL     OW24785   2.045  11.867   7.412
41004SOL    HW124786   2.099  11.832   7.341
41004SOL    HW224787   1.961  11.888   7.370
41005SOL     OW24788  13.102   1.708  11.963
41005SOL    HW124789  13.062   1.724  12.048
41005SOL    HW224790  13.041   1.649  11.918
41006SOL     OW24791  11.254   0.238  12.601
41006SOL    HW124792  11.187   0.250  12.669
41006SOL    HW224793  11.225   0.162  12.551
41007SOL     OW24794   0.488   3.533   5.897
41007SOL    HW124795   0.558   3.593   5.921
41007SOL    HW224796   0.468   3.554   5.806
41008SOL     OW24797   4.354   3.127   3.938
41008SOL    HW124798   4.368   3.190   4.009
41008SOL    HW224799   4.259   3.120   3.929
41009SOL     OW24800  12.081   9.028   2.065
41009SOL    HW124801  12.151   9.092   2.080
41009SOL    HW224802  12.011   9.056   2.123
41010SOL     OW24803   7.570   2.894  12.226
41010SOL    HW124804   7.628   2.878  12.300
41010SOL    HW224805   7.536   2.807  12.204
41011SOL     OW24806  13.924  10.502   6.654
41011SOL    HW124807  13.875  10.510   6.736
41011SOL    HW224808  13.871  10.444   6.600
41012SOL     OW24809   7.347   4.084   2.936
41012SOL    HW124810   7.303   4.073   2.852
41012SOL    HW224811   7.440   4.077   2.915
41013SOL     OW24812   4.938  10.559   6.774
41013SOL    HW124813   4.988  10.582   6.696
41013SOL    HW224814   5.000  10.514   6.831
41014SOL     OW24815   8.336   2.053   5.431
41014SOL    HW124816   8.275   1.980   5.440
41014SOL    HW224817   8.377   2.061   5.517
41015SOL     OW24818   3.450   5.601   9.089
41015SOL    HW124819   3.427   5.645   9.007
41015SOL    HW224820   3.518   5.656   9.128
41016SOL     OW24821   5.810   6.529   3.680
41016SOL    HW124822   5.773   6.485   3.603
41016SOL    HW224823   5.792   6.469   3.753
41017SOL     OW24824   8.768  14.607   4.740
41017SOL    HW124825   8.841  14.550   4.765
41017SOL    HW224826   8.707  14.603   4.813
41018SOL     OW24827   2.949   6.941   1.933
41018SOL    HW124828   3.025   6.890   1.908
41018SOL    HW224829   2.881   6.876   1.953
41019SOL     OW24830   3.456   1.792   0.629
41019SOL    HW124831   3.439   1.698   0.639
41019SOL    HW224832   3.380   1.825   0.581
41020SOL     OW24833   0.330  11.624  10.271
41020SOL    HW124834   0.280  11.653  10.347
41020SOL    HW224835   0.419  11.654  10.288
41021SOL     OW24836   9.391  13.853   2.841
41021SOL    HW124837   9.426  13.852   2.752
41021SOL    HW224838   9.392  13.761   2.868
41022SOL     OW24839  11.480   0.959   6.537
41022SOL    HW124840  11.568   0.981   6.506
41022SOL    HW224841  11.486   0.868   6.566
41023SOL     OW24842   6.026   2.725  11.480
41023SOL    HW124843   6.085   2.746  11.553
41023SOL    HW224844   5.942   2.762  11.505
41024SOL     OW24845   3.704   7.786  12.086
41024SOL    HW124846   3.717   7.794  11.992
41024SOL    HW224847   3.734   7.697  12.106
41025SOL     OW24848   8.854  12.860   6.712
41025SOL    HW124849   8.793  12.801   6.756
41025SOL    HW224850   8.799  12.932   6.681
41026SOL     OW24851  12.934   9.739   1.443
41026SOL    HW124852  12.879   9.665   1.470
41026SOL    HW224853  13.020   9.720   1.481
41027SOL     OW24854  13.820   7.577   2.857
41027SOL    HW124855  13.874   7.498   2.857
41027SOL    HW224856  13.872   7.642   2.811
41028SOL     OW24857   8.180   1.426   2.837
41028SOL    HW124858   8.258   1.401   2.886
41028SOL    HW224859   8.175   1.362   2.765
41029SOL     OW24860   5.903  12.013   5.052
41029SOL    HW124861   5.860  12.053   5.128
41029SOL    HW224862   5.858  12.052   4.977
41030SOL     OW24863  10.235  13.607   3.758
41030SOL    HW124864  10.167  13.563   3.809
41030SOL    HW224865  10.192  13.684   3.722
41031SOL     OW24866   0.512   4.029   7.354
41031SOL    HW124867   0.486   4.119   7.373
41031SOL    HW224868   0.463   3.976   7.417
41032SOL     OW24869  14.859   9.797   3.357
41032SOL    HW124870   0.002   9.745   3.279
41032SOL    HW224871   0.048   9.865   3.360
41033SOL     OW24872  10.219   4.190   0.214
41033SOL    HW124873  10.165   4.223   0.143
41033SOL    HW224874  10.233   4.266   0.271
41034SOL     OW24875   3.719  10.783   2.102
41034SOL    HW124876   3.681  10.816   2.021
41034SOL    HW224877   3.694  10.690   2.104
41035SOL     OW24878  14.725   0.558   4.539
41035SOL    HW124879  14.711   0.576   4.446
41035SOL    HW224880  14.694   0.638   4.583
41036SOL     OW24881   5.535   4.291   5.813
41036SOL    HW124882   5.457   4.346   5.802
41036SOL    HW224883   5.575   4.321   5.895
41037SOL     OW24884  13.687   4.840  12.373
41037SOL    HW124885  13.681   4.862  12.280
41037SOL    HW224886  13.623   4.770  12.385
41038SOL     OW24887  11.754   3.125  11.494
41038SOL    HW124888  11.763   3.125  11.399
41038SOL    HW224889  11.837   3.159  11.526
41039SOL     OW24890  10.384  14.004   3.303
41039SOL    HW124891  10.364  14.047   3.220
41039SOL    HW224892  10.432  13.925   3.278
41040SOL     OW24893  13.632  11.562   4.950
41040SOL    HW124894  13.547  11.562   4.995
41040SOL    HW224895  13.658  11.654   4.948
41041SOL     OW24896  14.607   3.419   1.799
41041SOL    HW124897  14.573   3.330   1.799
41041SOL    HW224898  14.576   3.457   1.881
41042SOL     OW24899  13.040   0.104   9.364
41042SOL    HW124900  12.999   0.191   9.366
41042SOL    HW224901  13.130   0.120   9.336
41043SOL     OW24902   0.714   4.805  11.276
41043SOL    HW124903   0.740   4.746  11.347
41043SOL    HW224904   0.769   4.780  11.202
41044SOL     OW24905   8.264   2.442   9.014
41044SOL    HW124906   8.194   2.434   8.950
41044SOL    HW224907   8.225   2.491   9.087
41045SOL     OW24908  12.209   4.073   4.969
41045SOL    HW124909  12.166   3.999   5.011
41045SOL    HW224910  12.301   4.066   4.995
41046SOL     OW24911   2.974  13.052   3.724
41046SOL    HW124912   2.918  12.989   3.679
41046SOL    HW224913   2.913  13.116   3.761
41047SOL     OW24914  14.702   0.109  14.261
41047SOL    HW124915  14.643   0.035  14.248
41047SOL    HW224916  14.647   0.186  14.250
41048SOL     OW24917   7.092   1.104   0.275
41048SOL    HW124918   7.001   1.135   0.273
41048SOL    HW224919   7.095   1.033   0.211
41049SOL     OW24920   8.555  11.079  13.206
41049SOL    HW124921   8.472  11.064  13.161
41049SOL    HW224922   8.574  11.172  13.190
41050SOL     OW24923  14.289  10.636  14.460
41050SOL    HW124924  14.259  10.723  14.484
41050SOL    HW224925  14.384  10.640  14.472
41051SOL     OW24926   2.611   9.283  11.561
41051SOL    HW124927   2.613   9.219  11.632
41051SOL    HW224928   2.602   9.367  11.605
41052SOL     OW24929   3.307   0.514  10.761
41052SOL    HW124930   3.339   0.439  10.712
41052SOL    HW224931   3.387   0.560  10.789
41053SOL     OW24932   2.603   0.484  10.201
41053SOL    HW124933   2.614   0.543  10.127
41053SOL    HW224934   2.690   0.450  10.218
41054SOL     OW24935   0.350   6.815   6.962
41054SOL    HW124936   0.355   6.803   7.057
41054SOL    HW224937   0.416   6.755   6.927
41055SOL     OW24938  13.408   3.131   1.801
41055SOL    HW124939  13.418   3.225   1.817
41055SOL    HW224940  13.350   3.126   1.725
41056SOL     OW24941  12.915  14.427   8.720
41056SOL    HW124942  12.946  14.517   8.706
41056SOL    HW224943  12.994  14.373   8.709
41057SOL     OW24944  13.913   1.098   6.133
41057SOL    HW124945  13.865   1.052   6.064
41057SOL    HW224946  13.998   1.118   6.095
41058SOL     OW24947  14.205   2.378   4.943
41058SOL    HW124948  14.126   2.341   4.981
41058SOL    HW224949  14.219   2.459   4.992
41059SOL     OW24950  14.316   0.380  12.421
41059SOL    HW124951  14.340   0.372  12.514
41059SOL    HW224952  14.301   0.474  12.409
41060SOL     OW24953  14.765   1.212   8.965
41060SOL    HW124954  14.710   1.266   8.909
41060SOL    HW224955  14.809   1.151   8.906
41061SOL     OW24956  10.572   2.715   5.418
41061SOL    HW124957  10.660   2.742   5.391
41061SOL    HW224958  10.581   2.623   5.441
41062SOL     OW24959  12.040  10.836   3.744
41062SOL    HW124960  12.030  10.751   3.701
41062SOL    HW224961  12.104  10.820   3.814
41063SOL     OW24962   9.353   9.623   3.928
41063SOL    HW124963   9.271   9.587   3.962
41063SOL    HW224964   9.411   9.548   3.922
41064SOL     OW24965  12.736   0.664  12.435
41064SOL    HW124966  12.763   0.721  12.507
41064SOL    HW224967  12.727   0.578  12.475
41065SOL     OW24968  12.865   7.304  14.146
41065SOL    HW124969  12.795   7.256  14.189
41065SOL    HW224970  12.883   7.254  14.066
41066SOL     OW24971   7.208  11.721   6.486
41066SOL    HW124972   7.280  11.719   6.424
41066SOL    HW224973   7.163  11.804   6.470
41067SOL     OW24974  14.474   3.244  11.293
41067SOL    HW124975  14.519   3.174  11.245
41067SOL    HW224976  14.434   3.297  11.224
41068SOL     OW24977   0.754  14.285  12.551
41068SOL    HW124978   0.760  14.294  12.646
41068SOL    HW224979   0.662  14.261  12.535
41069SOL     OW24980  14.151   4.817   3.954
41069SOL    HW124981  14.216   4.768   3.904
41069SOL    HW224982  14.091   4.851   3.888
41070SOL     OW24983   6.738   9.918   5.576
41070SOL    HW124984   6.728   9.978   5.650
41070SOL    HW224985   6.664   9.859   5.583
41071SOL     OW24986   9.468   1.575   5.243
41071SOL    HW124987   9.376   1.554   5.258
41071SOL    HW224988   9.468   1.668   5.217
41072SOL     OW24989   0.072   8.380   2.773
41072SOL    HW124990   0.090   8.471   2.798
41072SOL    HW224991   0.040   8.386   2.683
41073SOL     OW24992  13.708   2.343   8.663
41073SOL    HW124993  13.743   2.301   8.585
41073SOL    HW224994  13.780   2.397   8.696
41074SOL     OW24995   8.532   4.144   7.578
41074SOL    HW124996   8.611   4.163   7.630
41074SOL    HW224997   8.566   4.110   7.495
41075SOL     OW24998   3.908   4.094   7.411
41075SOL    HW124999   3.844   4.147   7.363
41075SOL    HW225000   3.917   4.139   7.495
41076SOL     OW25001  14.040   7.870  11.433
41076SOL    HW125002  13.983   7.815  11.379
41076SOL    HW225003  13.995   7.876  11.517
41077SOL     OW25004   1.561   5.815   1.410
41077SOL    HW125005   1.560   5.798   1.316
41077SOL    HW225006   1.538   5.908   1.417
41078SOL     OW25007  10.503   7.595   5.616
41078SOL    HW125008  10.430   7.638   5.572
41078SOL    HW225009  10.575   7.599   5.553
41079SOL     OW25010   0.848  13.502   3.216
41079SOL    HW125011   0.821  13.456   3.136
41079SOL    HW225012   0.780  13.568   3.230
41080SOL     OW25013   9.491  12.049   1.224
41080SOL    HW125014   9.456  12.135   1.202
41080SOL    HW225015   9.438  12.019   1.298
41081SOL     OW25016  11.494  14.291   4.399
41081SOL    HW125017  11.482  14.386   4.409
41081SOL    HW225018  11.434  14.266   4.329
41082SOL     OW25019  11.794  11.797   6.809
41082SOL    HW125020  11.704  11.779   6.781
41082SOL    HW225021  11.834  11.710   6.817
41083SOL     OW25022   8.307   2.937   5.522
41083SOL    HW125023   8.235   2.996   5.545
41083SOL    HW225024   8.376   2.996   5.492
41084SOL     OW25025  11.975  11.394   6.100
41084SOL    HW125026  11.887  11.382   6.136
41084SOL    HW225027  12.030  11.410   6.177
41085SOL     OW25028   7.578   2.727  10.423
41085SOL    HW125029   7.483   2.731  10.417
41085SOL    HW225030   7.609   2.809  10.384
41086SOL     OW25031  10.139   8.200  11.249
41086SOL    HW125032  10.159   8.173  11.159
41086SOL    HW225033  10.079   8.274  11.238
41087SOL     OW25034   9.852   3.837   1.083
41087SOL    HW125035   9.934   3.831   1.035
41087SOL    HW225036   9.786   3.802   1.023
41088SOL     OW25037   2.408   5.639   8.531
41088SOL    HW125038   2.357   5.717   8.551
41088SOL    HW225039   2.488   5.672   8.489
41089SOL     OW25040   1.380   3.323  13.408
41089SOL    HW125041   1.369   3.377  13.486
41089SOL    HW225042   1.350   3.379  13.336
41090SOL     OW25043   6.566   9.236   0.654
41090SOL    HW125044   6.597   9.254   0.743
41090SOL    HW225045   6.621   9.289   0.597
41091SOL     OW25046  14.463   3.258   3.345
41091SOL    HW125047  14.545   3.240   3.391
41091SOL    HW225048  14.405   3.187   3.372
41092SOL     OW25049   2.680   1.530  13.140
41092SOL    HW125050   2.696   1.553  13.231
41092SOL    HW225051   2.763   1.551  13.096
41093SOL     OW25052  12.704  12.041   0.557
41093SOL    HW125053  12.626  12.092   0.576
41093SOL    HW225054  12.674  11.950   0.559
41094SOL     OW25055   0.426   8.848   0.273
41094SOL    HW125056   0.514   8.837   0.237
41094SOL    HW225057   0.368   8.806   0.209
41095SOL     OW25058  13.049   4.470  12.578
41095SOL    HW125059  13.028   4.426  12.660
41095SOL    HW225060  12.964   4.498  12.543
41096SOL     OW25061   5.894   6.070   9.888
41096SOL    HW125062   5.887   6.107   9.976
41096SOL    HW225063   5.988   6.055   9.875
41097SOL     OW25064  11.040   9.011   2.029
41097SOL    HW125065  11.057   9.073   2.099
41097SOL    HW225066  10.947   8.990   2.037
41098SOL     OW25067   7.444  11.083   8.589
41098SOL    HW125068   7.492  11.133   8.523
41098SOL    HW225069   7.478  10.994   8.581
41099SOL     OW25070  11.578  13.339  11.486
41099SOL    HW125071  11.646  13.404  11.469
41099SOL    HW225072  11.618  13.256  11.463
41100SOL     OW25073   1.773  10.456   6.443
41100SOL    HW125074   1.701  10.429   6.387
41100SOL    HW225075   1.781  10.550   6.428
41101SOL     OW25076   7.147   5.277   9.385
41101SOL    HW125077   7.102   5.355   9.353
41101SOL    HW225078   7.240   5.295   9.373
41102SOL     OW25079  10.936   1.794   4.989
41102SOL    HW125080  10.917   1.837   4.905
41102SOL    HW225081  11.029   1.772   4.984
41103SOL     OW25082   0.654   9.361   6.153
41103SOL    HW125083   0.641   9.456   6.163
41103SOL    HW225084   0.700   9.335   6.233
41104SOL     OW25085   6.977   7.000  12.526
41104SOL    HW125086   6.909   6.974  12.587
41104SOL    HW225087   7.057   7.004  12.579
41105SOL     OW25088  13.911   9.881   7.199
41105SOL    HW125089  13.865   9.863   7.280
41105SOL    HW225090  13.872   9.821   7.135
41106SOL     OW25091   9.428  14.236   5.610
41106SOL    HW125092   9.433  14.240   5.514
41106SOL    HW225093   9.519  14.227   5.639
41107SOL     OW25094   5.555   7.971  11.944
41107SOL    HW125095   5.500   7.945  11.870
41107SOL    HW225096   5.499   7.960  12.021
41108SOL     OW25097   4.760   2.700   6.880
41108SOL    HW125098   4.675   2.671   6.846
41108SOL    HW225099   4.741   2.781   6.926
41109SOL     OW25100   2.369   0.548   3.558
41109SOL    HW125101   2.274   0.562   3.560
41109SOL    HW225102   2.389   0.513   3.645
41110SOL     OW25103  12.146   3.826   6.306
41110SOL    HW125104  12.168   3.756   6.368
41110SOL    HW225105  12.186   3.904   6.344
41111SOL     OW25106   1.527   4.941  13.852
41111SOL    HW125107   1.585   4.947  13.776
41111SOL    HW225108   1.447   4.899  13.819
41112SOL     OW25109   0.694  11.642  14.544
41112SOL    HW125110   0.675  11.620  14.453
41112SOL    HW225111   0.788  11.660  14.546
41113SOL     OW25112  10.269   1.844  12.646
41113SOL    HW125113  10.206   1.915  12.631
41113SOL    HW225114  10.349   1.875  12.605
41114SOL     OW25115   7.243   2.687  14.477
41114SOL    HW125116   7.155   2.682  14.515
41114SOL    HW225117   7.244   2.770  14.429
41115SOL     OW25118   2.091   5.803   4.779
41115SOL    HW125119   2.098   5.722   4.729
41115SOL    HW225120   2.153   5.792   4.851
41116SOL     OW25121   8.979  13.213  12.336
41116SOL    HW125122   8.959  13.240  12.246
41116SOL    HW225123   8.947  13.285  12.390
41117SOL     OW25124   4.674   6.730  10.028
41117SOL    HW125125   4.709   6.751  10.115
41117SOL    HW225126   4.579   6.738  10.038
41118SOL     OW25127   9.038  12.818   5.687
41118SOL    HW125128   9.118  12.767   5.675
41118SOL    HW225129   9.003  12.830   5.599
41119SOL     OW25130   3.424   9.544   8.271
41119SOL    HW125131   3.439   9.450   8.264
41119SOL    HW225132   3.438   9.577   8.182
41120SOL     OW25133   9.553  12.264   4.690
41120SOL    HW125134   9.592  12.309   4.765
41120SOL    HW225135   9.506  12.190   4.729
41121SOL     OW25136  10.361   2.647   8.223
41121SOL    HW125137  10.440   2.614   8.266
41121SOL    HW225138  10.301   2.572   8.223
41122SOL     OW25139   2.252   0.504   4.125
41122SOL    HW125140   2.213   0.573   4.071
41122SOL    HW225141   2.343   0.530   4.135
41123SOL     OW25142   3.663  13.409   4.430
41123SOL    HW125143   3.625  13.322   4.434
41123SOL    HW225144   3.693  13.419   4.339
41124SOL     OW25145  12.456   1.158  14.408
41124SOL    HW125146  12.547   1.137  14.388
41124SOL    HW225147  12.406   1.122  14.335
41125SOL     OW25148   7.157  10.529  12.119
41125SOL    HW125149   7.067  10.556  12.099
41125SOL    HW225150   7.183  10.474  12.045
41126SOL     OW25151   6.542   5.323   3.617
41126SOL    HW125152   6.577   5.327   3.706
41126SOL    HW225153   6.501   5.237   3.610
41127SOL     OW25154  13.820  13.813   7.561
41127SOL    HW125155  13.753  13.810   7.493
41127SOL    HW225156  13.803  13.894   7.609
41128SOL     OW25157  12.247  12.559  11.965
41128SOL    HW125158  12.203  12.524  12.043
41128SOL    HW225159  12.230  12.494  11.897
41129SOL     OW25160   1.254  10.426   4.294
41129SOL    HW125161   1.305  10.440   4.373
41129SOL    HW225162   1.290  10.346   4.256
41130SOL     OW25163  14.538   1.539  11.704
41130SOL    HW125164  14.518   1.593  11.628
41130SOL    HW225165  14.633   1.525  11.700
41131SOL     OW25166   4.513  11.706   8.741
41131SOL    HW125167   4.605  11.728   8.758
41131SOL    HW225168   4.467  11.730   8.822
41132SOL     OW25169   8.438   9.024   7.540
41132SOL    HW125170   8.430   9.013   7.445
41132SOL    HW225171   8.363   8.976   7.576
41133SOL     OW25172  11.345   6.273   2.735
41133SOL    HW125173  11.349   6.299   2.827
41133SOL    HW225174  11.433   6.291   2.701
41134SOL     OW25175   2.887  13.695   5.241
41134SOL    HW125176   2.818  13.735   5.189
41134SOL    HW225177   2.968  13.721   5.198
41135SOL     OW25178  13.398   9.022   8.290
41135SOL    HW125179  13.335   8.957   8.321
41135SOL    HW225180  13.462   8.971   8.240
41136SOL     OW25181   3.507  13.033   9.405
41136SOL    HW125182   3.532  13.038   9.497
41136SOL    HW225183   3.565  13.095   9.361
41137SOL     OW25184  10.468   4.039   4.532
41137SOL    HW125185  10.421   3.958   4.509
41137SOL    HW225186  10.399   4.099   4.561
41138SOL     OW25187   3.547  12.786  13.717
41138SOL    HW125188   3.475  12.828  13.671
41138SOL    HW225189   3.604  12.858  13.744
41139SOL     OW25190   1.033  11.781  11.987
41139SOL    HW125191   0.959  11.794  11.928
41139SOL    HW225192   1.097  11.732  11.935
41140SOL     OW25193   2.964  11.808   5.105
41140SOL    HW125194   2.895  11.791   5.041
41140SOL    HW225195   2.925  11.784   5.190
41141SOL     OW25196   1.830   6.097   9.188
41141SOL    HW125197   1.886   6.109   9.265
41141SOL    HW225198   1.774   6.174   9.186
41142SOL     OW25199   1.822  14.325   1.849
41142SOL    HW125200   1.836  14.370   1.766
41142SOL    HW225201   1.857  14.386   1.915
41143SOL     OW25202   1.536   2.999   1.139
41143SOL    HW125203   1.605   2.995   1.073
41143SOL    HW225204   1.471   3.059   1.102
41144SOL     OW25205  12.041   1.723  13.285
41144SOL    HW125206  11.966   1.678  13.246
41144SOL    HW225207  12.092   1.653  13.327
41145SOL     OW25208  10.208  12.903   8.578
41145SOL    HW125209  10.166  12.988   8.568
41145SOL    HW225210  10.138  12.839   8.566
41146SOL     OW25211   5.847  11.783  12.101
41146SOL    HW125212   5.917  11.728  12.068
41146SOL    HW225213   5.885  11.829  12.176
41147SOL     OW25214   3.532   4.065  14.492
41147SOL    HW125215   3.568   4.143  14.535
41147SOL    HW225216   3.462   4.036  14.549
41148SOL     OW25217   6.218   6.007   6.634
41148SOL    HW125218   6.257   6.055   6.707
41148SOL    HW225219   6.280   5.937   6.614
41149SOL     OW25220  12.750  10.125  10.840
41149SOL    HW125221  12.811  10.057  10.869
41149SOL    HW225222  12.664  10.084  10.847
41150SOL     OW25223   4.285   6.952   5.175
41150SOL    HW125224   4.199   6.992   5.191
41150SOL    HW225225   4.265   6.870   5.130
41151SOL     OW25226   4.512   6.644   3.228
41151SOL    HW125227   4.532   6.570   3.171
41151SOL    HW225228   4.588   6.702   3.220
41152SOL     OW25229   3.228  11.021   3.126
41152SOL    HW125230   3.284  10.945   3.137
41152SOL    HW225231   3.216  11.055   3.215
41153SOL     OW25232  13.485   8.478  10.964
41153SOL    HW125233  13.459   8.408  11.023
41153SOL    HW225234  13.407   8.496  10.911
41154SOL     OW25235  13.092  14.668  10.489
41154SOL    HW125236  13.046  14.630  10.414
41154SOL    HW225237  13.158  14.725  10.451
41155SOL     OW25238   0.306   1.601  12.514
41155SOL    HW125239   0.402   1.609  12.514
41155SOL    HW225240   0.277   1.653  12.440
41156SOL     OW25241   8.414   8.775  13.879
41156SOL    HW125242   8.399   8.685  13.908
41156SOL    HW225243   8.503   8.795  13.907
41157SOL     OW25244  11.132   9.888  12.295
41157SOL    HW125245  11.192   9.866  12.366
41157SOL    HW225246  11.102   9.803  12.262
41158SOL     OW25247   2.235  12.526   6.616
41158SOL    HW125248   2.269  12.587   6.550
41158SOL    HW225249   2.251  12.440   6.578
41159SOL     OW25250   3.157   6.456   9.084
41159SOL    HW125251   3.208   6.527   9.124
41159SOL    HW225252   3.222   6.388   9.065
41160SOL     OW25253   5.893  10.693   1.928
41160SOL    HW125254   5.951  10.766   1.904
41160SOL    HW225255   5.888  10.696   2.023
41161SOL     OW25256  11.302   9.463   6.978
41161SOL    HW125257  11.363   9.455   6.905
41161SOL    HW225258  11.283   9.557   6.984
41162SOL     OW25259  10.617  13.045   8.877
41162SOL    HW125260  10.704  13.087   8.879
41162SOL    HW225261  10.630  12.966   8.825
41163SOL     OW25262   4.208  13.244   5.279
41163SOL    HW125263   4.221  13.257   5.373
41163SOL    HW225264   4.296  13.221   5.247
41164SOL     OW25265   2.341   9.273   2.861
41164SOL    HW125266   2.266   9.220   2.886
41164SOL    HW225267   2.412   9.210   2.846
41165SOL     OW25268   5.762   9.114   3.473
41165SOL    HW125269   5.848   9.150   3.453
41165SOL    HW225270   5.732   9.074   3.391
41166SOL     OW25271   3.639   9.272  11.979
41166SOL    HW125272   3.619   9.246  11.889
41166SOL    HW225273   3.641   9.190  12.029
41167SOL     OW25274   5.327   7.659   0.078
41167SOL    HW125275   5.379   7.586   0.044
41167SOL    HW225276   5.349   7.733   0.022
41168SOL     OW25277   9.428   4.263  13.486
41168SOL    HW125278   9.441   4.285  13.394
41168SOL    HW225279   9.514   4.231  13.515
41169SOL     OW25280   3.230   2.620  11.278
41169SOL    HW125281   3.159   2.664  11.324
41169SOL    HW225282   3.194   2.600  11.191
41170SOL     OW25283  11.085   1.086   3.100
41170SOL    HW125284  11.000   1.118   3.129
41170SOL    HW225285  11.136   1.077   3.181
41171SOL     OW25286   0.510   8.579   3.268
41171SOL    HW125287   0.487   8.565   3.176
41171SOL    HW225288   0.432   8.617   3.307
41172SOL     OW25289   7.763  13.508  10.802
41172SOL    HW125290   7.777  13.586  10.856
41172SOL    HW225291   7.839  13.505  10.745
41173SOL     OW25292   9.139   3.545   0.734
41173SOL    HW125293   9.150   3.531   0.828
41173SOL    HW225294   9.229   3.553   0.701
41174SOL     OW25295  12.691  14.852   5.579
41174SOL    HW125296  12.741  14.851   5.661
41174SOL    HW225297  12.745   0.026   5.519
41175SOL     OW25298   2.285   8.743   5.375
41175SOL    HW125299   2.234   8.721   5.453
41175SOL    HW225300   2.322   8.660   5.346
41176SOL     OW25301   8.721   3.965   2.501
41176SOL    HW125302   8.742   3.909   2.427
41176SOL    HW225303   8.750   3.916   2.578
41177SOL     OW25304   1.691   2.407   2.256
41177SOL    HW125305   1.709   2.341   2.324
41177SOL    HW225306   1.777   2.436   2.227
41178SOL     OW25307   2.409  10.139   3.749
41178SOL    HW125308   2.487  10.128   3.694
41178SOL    HW225309   2.409  10.232   3.772
41179SOL     OW25310  13.738  10.952  10.055
41179SOL    HW125311  13.822  10.906  10.044
41179SOL    HW225312  13.759  11.043  10.034
41180SOL     OW25313   7.298   3.486   0.805
41180SOL    HW125314   7.347   3.422   0.855
41180SOL    HW225315   7.214   3.493   0.851
41181SOL     OW25316   7.713   2.465  11.047
41181SOL    HW125317   7.795   2.471  11.097
41181SOL    HW225318   7.667   2.546  11.068
41182SOL     OW25319   3.635   3.723   2.335
41182SOL    HW125320   3.699   3.673   2.386
41182SOL    HW225321   3.552   3.710   2.381
41183SOL     OW25322   4.125   2.913  11.099
41183SOL    HW125323   4.184   2.873  11.034
41183SOL    HW225324   4.131   2.855  11.175
41184SOL     OW25325  12.869  14.445  10.839
41184SOL    HW125326  12.873  14.510  10.770
41184SOL    HW225327  12.796  14.388  10.815
41185SOL     OW25328   5.894  11.595  13.356
41185SOL    HW125329   5.902  11.666  13.419
41185SOL    HW225330   5.808  11.608  13.315
41186SOL     OW25331   4.913  10.795   7.916
41186SOL    HW125332   4.997  10.753   7.901
41186SOL    HW225333   4.909  10.867   7.853
41187SOL     OW25334   8.551  14.359   6.084
41187SOL    HW125335   8.544  14.355   6.179
41187SOL    HW225336   8.481  14.303   6.052
41188SOL     OW25337   9.513   5.092   4.191
41188SOL    HW125338   9.537   5.176   4.152
41188SOL    HW225339   9.563   5.088   4.273
41189SOL     OW25340   8.539   5.727   9.882
41189SOL    HW125341   8.453   5.755   9.912
41189SOL    HW225342   8.524   5.641   9.842
41190SOL     OW25343   8.279   4.953  11.282
41190SOL    HW125344   8.321   5.007  11.349
41190SOL    HW225345   8.229   5.016  11.229
41191SOL     OW25346   5.614   6.405   5.149
41191SOL    HW125347   5.645   6.488   5.187
41191SOL    HW225348   5.685   6.375   5.093
41192SOL     OW25349   1.131   3.781   5.934
41192SOL    HW125350   1.077   3.861   5.929
41192SOL    HW225351   1.080   3.715   5.887
41193SOL     OW25352   3.405   2.824   2.175
41193SOL    HW125353   3.383   2.780   2.092
41193SOL    HW225354   3.436   2.910   2.148
41194SOL     OW25355  12.003   2.424   5.882
41194SOL    HW125356  11.912   2.414   5.851
41194SOL    HW225357  12.007   2.513   5.916
41195SOL     OW25358   6.647  14.102   7.320
41195SOL    HW125359   6.586  14.116   7.393
41195SOL    HW225360   6.635  14.178   7.263
41196SOL     OW25361  10.001   5.663   9.176
41196SOL    HW125362  10.025   5.622   9.093
41196SOL    HW225363  10.065   5.733   9.189
41197SOL     OW25364   8.353  12.286   1.006
41197SOL    HW125365   8.448  12.292   1.008
41197SOL    HW225366   8.332  12.257   0.917
41198SOL     OW25367  14.794  11.807   1.221
41198SOL    HW125368  14.720  11.862   1.246
41198SOL    HW225369  14.804  11.745   1.293
41199SOL     OW25370   8.906  14.872  11.256
41199SOL    HW125371   8.866   0.033  11.178
41199SOL    HW225372   8.861  14.788  11.267
41200SOL     OW25373  13.020   8.672   6.381
41200SOL    HW125374  13.071   8.619   6.441
41200SOL    HW225375  12.956   8.717   6.437
41201SOL     OW25376  12.719   3.688  10.733
41201SOL    HW125377  12.713   3.732  10.818
41201SOL    HW225378  12.652   3.620  10.737
41202SOL     OW25379   7.845   2.100   5.507
41202SOL    HW125380   7.899   2.113   5.585
41202SOL    HW225381   7.784   2.174   5.508
41203SOL     OW25382   5.717   3.138  13.779
41203SOL    HW125383   5.688   3.047  13.781
41203SOL    HW225384   5.812   3.132  13.772
41204SOL     OW25385  12.319   5.074   3.792
41204SOL    HW125386  12.398   5.103   3.747
41204SOL    HW225387  12.304   4.985   3.760
41205SOL     OW25388   8.954   5.367  13.999
41205SOL    HW125389   8.882   5.305  13.984
41205SOL    HW225390   9.029   5.328  13.953
41206SOL     OW25391   5.222   3.421   8.958
41206SOL    HW125392   5.178   3.470   9.028
41206SOL    HW225393   5.208   3.329   8.981
41207SOL     OW25394   8.458  11.590   9.609
41207SOL    HW125395   8.526  11.565   9.671
41207SOL    HW225396   8.460  11.686   9.609
41208SOL     OW25397   1.066   4.248  14.351
41208SOL    HW125398   1.027   4.312  14.412
41208SOL    HW225399   1.147   4.221  14.393
41209SOL     OW25400   9.774   0.201   6.186
41209SOL    HW125401   9.837   0.209   6.115
41209SOL    HW225402   9.736   0.113   6.176
41210SOL     OW25403   9.302  10.001   6.918
41210SOL    HW125404   9.276  10.091   6.904
41210SOL    HW225405   9.291   9.987   7.013
41211SOL     OW25406   2.853   5.867  13.798
41211SOL    HW125407   2.945   5.889  13.788
41211SOL    HW225408   2.838   5.797  13.735
41212SOL     OW25409   0.703  14.491   7.171
41212SOL    HW125410   0.675  14.572   7.213
41212SOL    HW225411   0.681  14.423   7.235
41213SOL     OW25412   5.515   5.380   5.709
41213SOL    HW125413   5.540   5.290   5.732
41213SOL    HW225414   5.584   5.434   5.748
41214SOL     OW25415  13.946   5.513  11.800
41214SOL    HW125416  14.028   5.490  11.844
41214SOL    HW225417  13.974   5.552  11.717
41215SOL     OW25418  13.853   0.493   4.868
41215SOL    HW125419  13.845   0.503   4.962
41215SOL    HW225420  13.882   0.579   4.836
41216SOL     OW25421  10.580   9.223   6.407
41216SOL    HW125422  10.576   9.311   6.444
41216SOL    HW225423  10.561   9.236   6.314
41217SOL     OW25424   2.253   4.986  12.597
41217SOL    HW125425   2.278   5.075  12.574
41217SOL    HW225426   2.247   4.986  12.692
41218SOL     OW25427   7.137   4.869  10.189
41218SOL    HW125428   7.082   4.934  10.232
41218SOL    HW225429   7.197   4.920  10.134
41219SOL     OW25430   7.680   4.289   3.212
41219SOL    HW125431   7.754   4.294   3.152
41219SOL    HW225432   7.692   4.206   3.258
41220SOL     OW25433   1.368   1.886  12.121
41220SOL    HW125434   1.425   1.963  12.129
41220SOL    HW225435   1.352   1.859  12.212
41221SOL     OW25436   1.147   7.030   4.429
41221SOL    HW125437   1.163   7.076   4.512
41221SOL    HW225438   1.212   7.066   4.369
41222SOL     OW25439   7.946  12.576  13.634
41222SOL    HW125440   7.970  12.563  13.725
41222SOL    HW225441   8.014  12.634  13.599
41223SOL     OW25442  12.267   8.638   2.938
41223SOL    HW125443  12.219   8.602   2.864
41223SOL    HW225444  12.247   8.579   3.011
41224SOL     OW25445  12.327   3.701   0.538
41224SOL    HW125446  12.250   3.666   0.494
41224SOL    HW225447  12.390   3.715   0.467
41225SOL     OW25448  11.347  12.649   8.465
41225SOL    HW125449  11.403  12.707   8.517
41225SOL    HW225450  11.275  12.626   8.523
41226SOL     OW25451   3.088   3.167   3.141
41226SOL    HW125452   3.109   3.181   3.048
41226SOL    HW225453   3.173   3.153   3.183
41227SOL     OW25454  10.000   6.747   7.946
41227SOL    HW125455  10.091   6.756   7.976
41227SOL    HW225456   9.990   6.816   7.880
41228SOL     OW25457   7.848   8.825   7.483
41228SOL    HW125458   7.889   8.877   7.552
41228SOL    HW225459   7.879   8.736   7.498
41229SOL     OW25460   5.021  12.386   7.138
41229SOL    HW125461   4.954  12.421   7.079
41229SOL    HW225462   5.078  12.333   7.083
41230SOL     OW25463   4.446   4.138   8.493
41230SOL    HW125464   4.466   4.049   8.521
41230SOL    HW225465   4.374   4.165   8.549
41231SOL     OW25466  10.320   6.910  13.520
41231SOL    HW125467  10.317   6.881  13.611
41231SOL    HW225468  10.230   6.938  13.501
41232SOL     OW25469   8.913  11.990   4.647
41232SOL    HW125470   8.956  11.906   4.663
41232SOL    HW225471   8.830  11.967   4.604
41233SOL     OW25472   0.975   2.562   2.286
41233SOL    HW125473   0.926   2.625   2.233
41233SOL    HW225474   1.066   2.576   2.261
41234SOL     OW25475  10.187  11.788  14.174
41234SOL    HW125476  10.164  11.815  14.263
41234SOL    HW225477  10.282  11.774  14.177
41235SOL     OW25478  13.409   5.350   1.523
41235SOL    HW125479  13.421   5.352   1.618
41235SOL    HW225480  13.464   5.421   1.490
41236SOL     OW25481  14.865   3.943   7.116
41236SOL    HW125482   0.017   4.006   7.181
41236SOL    HW225483   0.067   3.914   7.072
41237SOL     OW25484   5.938   7.816   1.192
41237SOL    HW125485   5.900   7.837   1.106
41237SOL    HW225486   5.989   7.736   1.177
41238SOL     OW25487   5.117  11.844   0.574
41238SOL    HW125488   5.053  11.788   0.530
41238SOL    HW225489   5.074  11.930   0.579
41239SOL     OW25490  10.676  10.136  12.719
41239SOL    HW125491  10.680  10.041  12.728
41239SOL    HW225492  10.633  10.166  12.799
41240SOL     OW25493  12.981   2.976   7.513
41240SOL    HW125494  12.909   2.929   7.470
41240SOL    HW225495  13.025   2.909   7.566
41241SOL     OW25496  12.254  11.039   1.621
41241SOL    HW125497  12.200  11.079   1.553
41241SOL    HW225498  12.282  11.112   1.676
41242SOL     OW25499  11.699   3.072  11.211
41242SOL    HW125500  11.722   2.998  11.154
41242SOL    HW225501  11.623   3.112  11.168
41243SOL     OW25502   4.824  10.541   9.229
41243SOL    HW125503   4.791  10.630   9.229
41243SOL    HW225504   4.843  10.523   9.321
41244SOL     OW25505   2.074   9.516   4.984
41244SOL    HW125506   2.068   9.591   5.043
41244SOL    HW225507   2.125   9.451   5.032
41245SOL     OW25508   5.381  14.780   8.405
41245SOL    HW125509   5.405  14.703   8.457
41245SOL    HW225510   5.399  14.854   8.463
41246SOL     OW25511   8.971   2.115  10.962
41246SOL    HW125512   8.888   2.148  10.997
41246SOL    HW225513   8.947   2.072  10.880
41247SOL     OW25514   2.366   8.181   3.643
41247SOL    HW125515   2.456   8.167   3.673
41247SOL    HW225516   2.329   8.244   3.705
41248SOL     OW25517  10.644  10.367  10.871
41248SOL    HW125518  10.652  10.344  10.963
41248SOL    HW225519  10.623  10.284  10.828
41249SOL     OW25520   4.263  13.434   3.182
41249SOL    HW125521   4.179  13.456   3.224
41249SOL    HW225522   4.277  13.504   3.118
41250SOL     OW25523  12.165  13.938   2.889
41250SOL    HW125524  12.130  14.025   2.909
41250SOL    HW225525  12.259  13.946   2.902
41251SOL     OW25526  14.644   0.051  10.694
41251SOL    HW125527  14.657   0.120  10.759
41251SOL    HW225528  14.551   0.056  10.671
41252SOL     OW25529   7.559  14.077   2.317
41252SOL    HW125530   7.566  14.121   2.402
41252SOL    HW225531   7.540  13.986   2.338
41253SOL     OW25532   2.864   6.090   0.806
41253SOL    HW125533   2.882   6.011   0.754
41253SOL    HW225534   2.774   6.113   0.783
41254SOL     OW25535   4.910   6.822   7.488
41254SOL    HW125536   4.848   6.855   7.423
41254SOL    HW225537   4.906   6.886   7.559
41255SOL     OW25538   1.161   2.120  14.824
41255SOL    HW125539   1.075   2.141  14.789
41255SOL    HW225540   1.209   2.203  14.823
41256SOL     OW25541   0.554   1.649   8.963
41256SOL    HW125542   0.635   1.662   8.914
41256SOL    HW225543   0.574   1.677   9.052
41257SOL     OW25544   5.889  10.736   1.449
41257SOL    HW125545   5.880  10.727   1.354
41257SOL    HW225546   5.892  10.646   1.481
41258SOL     OW25547   8.562   3.394   9.857
41258SOL    HW125548   8.496   3.361   9.917
41258SOL    HW225549   8.601   3.316   9.818
41259SOL     OW25550  11.857  11.429  11.907
41259SOL    HW125551  11.886  11.461  11.993
41259SOL    HW225552  11.780  11.482  11.887
41260SOL     OW25553  11.681   2.111  12.062
41260SOL    HW125554  11.648   2.199  12.082
41260SOL    HW225555  11.618   2.076  11.999
41261SOL     OW25556  14.375   9.351  13.114
41261SOL    HW125557  14.340   9.270  13.154
41261SOL    HW225558  14.470   9.338  13.112
41262SOL     OW25559   5.441  13.793   9.713
41262SOL    HW125560   5.525  13.804   9.758
41262SOL    HW225561   5.376  13.789   9.783
41263SOL     OW25562  11.964  12.823  11.065
41263SOL    HW125563  11.963  12.842  10.971
41263SOL    HW225564  12.035  12.877  11.099
41264SOL     OW25565  14.269   7.141  13.449
41264SOL    HW125566  14.300   7.229  13.467
41264SOL    HW225567  14.277   7.132  13.354
41265SOL     OW25568   5.812  13.604   9.911
41265SOL    HW125569   5.852  13.526   9.873
41265SOL    HW225570   5.728  13.573   9.946
41266SOL     OW25571   1.335   8.551  11.693
41266SOL    HW125572   1.256   8.591  11.657
41266SOL    HW225573   1.304   8.492  11.760
41267SOL     OW25574   4.767   3.561   4.312
41267SOL    HW125575   4.832   3.614   4.265
41267SOL    HW225576   4.773   3.475   4.271
41268SOL     OW25577   5.265   5.466   2.346
41268SOL    HW125578   5.350   5.421   2.348
41268SOL    HW225579   5.245   5.475   2.253
41269SOL     OW25580   1.106  14.817   9.056
41269SOL    HW125581   1.046  14.817   8.981
41269SOL    HW225582   1.091  14.732   9.099
41270SOL     OW25583   3.690  13.931  13.913
41270SOL    HW125584   3.678  14.017  13.952
41270SOL    HW225585   3.752  13.946  13.841
41271SOL     OW25586  10.798  12.280   2.416
41271SOL    HW125587  10.855  12.285   2.493
41271SOL    HW225588  10.732  12.215   2.440
41272SOL     OW25589  10.079  14.793   0.274
41272SOL    HW125590  10.024  14.869   0.259
41272SOL    HW225591  10.088  14.753   0.187
41273SOL     OW25592   2.086   6.509   5.337
41273SOL    HW125593   2.157   6.571   5.319
41273SOL    HW225594   2.064   6.474   5.251
41274SOL     OW25595   4.873   7.972   2.289
41274SOL    HW125596   4.857   8.064   2.266
41274SOL    HW225597   4.941   7.976   2.356
41275SOL     OW25598   5.196   5.652   9.826
41275SOL    HW125599   5.272   5.638   9.770
41275SOL    HW225600   5.216   5.732   9.875
41276SOL     OW25601   9.643   0.989   8.620
41276SOL    HW125602   9.714   1.050   8.603
41276SOL    HW225603   9.581   1.037   8.674
41277SOL     OW25604   5.698  10.361  13.485
41277SOL    HW125605   5.657  10.306  13.418
41277SOL    HW225606   5.657  10.446  13.475
41278SOL     OW25607  13.225   0.683   5.960
41278SOL    HW125608  13.300   0.705   5.905
41278SOL    HW225609  13.263   0.658   6.044
41279SOL     OW25610  12.118   5.989   0.577
41279SOL    HW125611  12.028   6.002   0.547
41279SOL    HW225612  12.161   6.073   0.562
41280SOL     OW25613   2.396   8.541   0.607
41280SOL    HW125614   2.386   8.549   0.512
41280SOL    HW225615   2.437   8.622   0.635
41281SOL     OW25616   2.512   7.459   3.388
41281SOL    HW125617   2.502   7.543   3.431
41281SOL    HW225618   2.605   7.437   3.400
41282SOL     OW25619   3.181   6.182  13.359
41282SOL    HW125620   3.187   6.108  13.299
41282SOL    HW225621   3.138   6.251  13.309
41283SOL     OW25622  12.209   1.928  12.220
41283SOL    HW125623  12.192   1.864  12.290
41283SOL    HW225624  12.195   1.879  12.139
41284SOL     OW25625   1.842   4.182  10.180
41284SOL    HW125626   1.768   4.208  10.235
41284SOL    HW225627   1.898   4.259  10.176
41285SOL     OW25628   9.816  12.209   6.245
41285SOL    HW125629   9.745  12.179   6.301
41285SOL    HW225630   9.773  12.257   6.174
41286SOL     OW25631   2.184   4.862   5.608
41286SOL    HW125632   2.202   4.822   5.693
41286SOL    HW225633   2.246   4.819   5.548
41287SOL     OW25634   7.624   4.127  14.217
41287SOL    HW125635   7.613   4.171  14.133
41287SOL    HW225636   7.710   4.086  14.213
41288SOL     OW25637  11.598  14.544   3.774
41288SOL    HW125638  11.540  14.584   3.839
41288SOL    HW225639  11.644  14.476   3.823
41289SOL     OW25640   4.658   5.559   0.447
41289SOL    HW125641   4.586   5.503   0.477
41289SOL    HW225642   4.737   5.514   0.476
41290SOL     OW25643   4.429   4.735   8.459
41290SOL    HW125644   4.443   4.716   8.367
41290SOL    HW225645   4.361   4.674   8.486
41291SOL     OW25646  11.049   9.526  12.205
41291SOL    HW125647  11.055   9.563  12.293
41291SOL    HW225648  11.046   9.603  12.147
41292SOL     OW25649   3.002  10.752  12.452
41292SOL    HW125650   3.008  10.745  12.547
41292SOL    HW225651   2.926  10.698  12.429
41293SOL     OW25652   4.659   2.801   5.692
41293SOL    HW125653   4.714   2.724   5.706
41293SOL    HW225654   4.594   2.797   5.762
41294SOL     OW25655   5.991  12.638   4.872
41294SOL    HW125656   6.062  12.613   4.931
41294SOL    HW225657   6.028  12.708   4.818
41295SOL     OW25658   5.704   0.132  11.218
41295SOL    HW125659   5.611   0.121  11.235
41295SOL    HW225660   5.708   0.178  11.134
41296SOL     OW25661   0.825   6.044   9.997
41296SOL    HW125662   0.874   6.022  10.076
41296SOL    HW225663   0.847   5.973   9.936
41297SOL     OW25664  12.606   8.755   0.068
41297SOL    HW125665  12.535   8.785   0.013
41297SOL    HW225666  12.641   8.678   0.022
41298SOL     OW25667   8.810   4.467  11.519
41298SOL    HW125668   8.750   4.396  11.495
41298SOL    HW225669   8.752   4.536  11.554
41299SOL     OW25670   7.560   7.612   6.098
41299SOL    HW125671   7.600   7.679   6.042
41299SOL    HW225672   7.517   7.552   6.036
41300SOL     OW25673   0.669  14.251   7.840
41300SOL    HW125674   0.694  14.318   7.903
41300SOL    HW225675   0.751  14.223   7.800
41301SOL     OW25676  11.793  10.689   3.544
41301SOL    HW125677  11.824  10.612   3.591
41301SOL    HW225678  11.873  10.735   3.517
41302SOL     OW25679   8.560   6.364   9.358
41302SOL    HW125680   8.645   6.335   9.391
41302SOL    HW225681   8.566   6.459   9.356
41303SOL     OW25682  14.673   0.728   7.963
41303SOL    HW125683  14.609   0.799   7.969
41303SOL    HW225684  14.687   0.701   8.054
41304SOL     OW25685   4.430   1.645   5.721
41304SOL    HW125686   4.468   1.682   5.802
41304SOL    HW225687   4.391   1.562   5.749
41305SOL     OW25688  12.809  10.440   3.909
41305SOL    HW125689  12.828  10.456   4.001
41305SOL    HW225690  12.752  10.363   3.909
41306SOL     OW25691  11.256   0.484  14.375
41306SOL    HW125692  11.234   0.555  14.314
41306SOL    HW225693  11.302   0.528  14.446
41307SOL     OW25694   3.939   6.220   2.005
41307SOL    HW125695   3.989   6.153   2.052
41307SOL    HW225696   4.006   6.280   1.971
41308SOL     OW25697   1.548   6.832  13.147
41308SOL    HW125698   1.460   6.823  13.182
41308SOL    HW225699   1.601   6.772  13.200
41309SOL     OW25700  10.774  12.598   5.709
41309SOL    HW125701  10.752  12.557   5.625
41309SOL    HW225702  10.703  12.574   5.767
41310SOL     OW25703   1.381   0.875  14.266
41310SOL    HW125704   1.447   0.813  14.235
41310SOL    HW225705   1.306   0.821  14.288
41311SOL     OW25706   0.172   9.644   2.280
41311SOL    HW125707   0.125   9.717   2.323
41311SOL    HW225708   0.116   9.568   2.295
41312SOL     OW25709   1.204   1.494   4.231
41312SOL    HW125710   1.136   1.509   4.165
41312SOL    HW225711   1.285   1.526   4.191
41313SOL     OW25712  12.571   9.501  11.399
41313SOL    HW125713  12.504   9.432  11.401
41313SOL    HW225714  12.610   9.493  11.312
41314SOL     OW25715   5.257   6.116  12.276
41314SOL    HW125716   5.244   6.025  12.249
41314SOL    HW225717   5.351   6.124  12.291
41315SOL     OW25718   7.123   8.432   2.758
41315SOL    HW125719   7.070   8.360   2.724
41315SOL    HW225720   7.152   8.480   2.680
41316SOL     OW25721   2.063  10.212   6.006
41316SOL    HW125722   2.029  10.195   6.094
41316SOL    HW225723   2.021  10.145   5.951
41317SOL     OW25724  13.062  12.353   2.986
41317SOL    HW125725  13.050  12.258   2.981
41317SOL    HW225726  13.050  12.383   2.896
41318SOL     OW25727   5.595   7.934  12.846
41318SOL    HW125728   5.585   8.008  12.786
41318SOL    HW225729   5.582   7.972  12.933
41319SOL     OW25730  12.769   4.615   1.325
41319SOL    HW125731  12.819   4.670   1.387
41319SOL    HW225732  12.678   4.636   1.343
41320SOL     OW25733  14.481   8.868  14.111
41320SOL    HW125734  14.398   8.862  14.063
41320SOL    HW225735  14.486   8.787  14.161
41321SOL     OW25736  14.610   0.391   3.517
41321SOL    HW125737  14.563   0.410   3.435
41321SOL    HW225738  14.596   0.297   3.530
41322SOL     OW25739  12.872   7.048   9.630
41322SOL    HW125740  12.797   7.107   9.636
41322SOL    HW225741  12.869   7.015   9.540
41323SOL     OW25742  12.017  11.340   9.618
41323SOL    HW125743  11.939  11.366   9.570
41323SOL    HW225744  11.986  11.327   9.708
41324SOL     OW25745   5.815   6.983   9.015
41324SOL    HW125746   5.762   6.928   8.959
41324SOL    HW225747   5.819   6.935   9.098
41325SOL     OW25748  13.574   7.392   9.582
41325SOL    HW125749  13.615   7.400   9.496
41325SOL    HW225750  13.492   7.346   9.566
41326SOL     OW25751   6.639   2.249  14.593
41326SOL    HW125752   6.638   2.157  14.565
41326SOL    HW225753   6.653   2.298  14.512
41327SOL     OW25754   0.071  13.889  12.566
41327SOL    HW125755   0.082  13.909  12.473
41327SOL    HW225756  14.854  13.895  12.580
41328SOL     OW25757   5.326  11.241   8.009
41328SOL    HW125758   5.321  11.296   7.931
41328SOL    HW225759   5.270  11.286   8.073
41329SOL     OW25760   2.856   4.049   5.667
41329SOL    HW125761   2.862   3.974   5.606
41329SOL    HW225762   2.910   4.117   5.626
41330SOL     OW25763   8.612  14.636   6.107
41330SOL    HW125764   8.604  14.623   6.202
41330SOL    HW225765   8.607  14.547   6.071
41331SOL     OW25766   1.229   6.553   2.255
41331SOL    HW125767   1.261   6.643   2.251
41331SOL    HW225768   1.210   6.538   2.348
41332SOL     OW25769  10.778   3.498  10.120
41332SOL    HW125770  10.815   3.480  10.034
41332SOL    HW225771  10.846   3.469  10.182
41333SOL     OW25772   2.976   5.164   6.811
41333SOL    HW125773   2.931   5.116   6.881
41333SOL    HW225774   2.998   5.249   6.849
41334SOL     OW25775   8.117  10.398  12.094
41334SOL    HW125776   8.093  10.484  12.129
41334SOL    HW225777   8.058  10.385  12.020
41335SOL     OW25778  14.288   7.469  12.549
41335SOL    HW125779  14.233   7.546  12.540
41335SOL    HW225780  14.364   7.499  12.599
41336SOL     OW25781   4.895   4.216   1.455
41336SOL    HW125782   4.893   4.311   1.457
41336SOL    HW225783   4.909   4.190   1.546
41337SOL     OW25784   3.530   3.877  12.752
41337SOL    HW125785   3.471   3.916  12.688
41337SOL    HW225786   3.558   3.795  12.712
41338SOL     OW25787   5.088   8.236  12.907
41338SOL    HW125788   5.050   8.262  12.823
41338SOL    HW225789   5.075   8.312  12.964
41339SOL     OW25790  10.062   4.488  13.897
41339SOL    HW125791  10.063   4.518  13.806
41339SOL    HW225792  10.084   4.395  13.892
41340SOL     OW25793   4.118  12.883  14.722
41340SOL    HW125794   4.131  12.928  14.805
41340SOL    HW225795   4.024  12.865  14.719
41341SOL     OW25796   3.537   2.885   2.521
41341SOL    HW125797   3.592   2.809   2.540
41341SOL    HW225798   3.588   2.935   2.457
41342SOL     OW25799   3.406   2.099  13.846
41342SOL    HW125800   3.461   2.122  13.921
41342SOL    HW225801   3.329   2.057  13.884
41343SOL     OW25802  10.769  10.812   1.023
41343SOL    HW125803  10.802  10.722   1.020
41343SOL    HW225804  10.674  10.802   1.021
41344SOL     OW25805   2.946  11.428  13.961
41344SOL    HW125806   2.951  11.387  14.047
41344SOL    HW225807   3.028  11.476  13.952
41345SOL     OW25808   1.343   0.195   4.520
41345SOL    HW125809   1.251   0.221   4.526
41345SOL    HW225810   1.360   0.147   4.601
41346SOL     OW25811   8.502   1.205  12.642
41346SOL    HW125812   8.507   1.300  12.644
41346SOL    HW225813   8.434   1.183  12.706
41347SOL     OW25814  11.713   3.795   9.673
41347SOL    HW125815  11.631   3.793   9.624
41347SOL    HW225816  11.773   3.844   9.617
41348SOL     OW25817  14.199   1.754   6.758
41348SOL    HW125818  14.164   1.752   6.847
41348SOL    HW225819  14.204   1.847   6.737
41349SOL     OW25820   5.244   8.505   5.085
41349SOL    HW125821   5.159   8.462   5.084
41349SOL    HW225822   5.252   8.541   5.174
41350SOL     OW25823  10.184   6.959   5.239
41350SOL    HW125824  10.107   6.910   5.266
41350SOL    HW225825  10.251   6.937   5.304
41351SOL     OW25826   3.633   6.047   7.157
41351SOL    HW125827   3.590   6.095   7.227
41351SOL    HW225828   3.684   6.113   7.109
41352SOL     OW25829   8.003   1.794  13.140
41352SOL    HW125830   7.907   1.792  13.149
41352SOL    HW225831   8.028   1.880  13.175
41353SOL     OW25832   5.068   9.478   0.891
41353SOL    HW125833   5.072   9.482   0.795
41353SOL    HW225834   5.017   9.555   0.915
41354SOL     OW25835  11.515  10.600   6.739
41354SOL    HW125836  11.529  10.571   6.829
41354SOL    HW225837  11.440  10.659   6.745
41355SOL     OW25838   9.058   2.126   7.610
41355SOL    HW125839   9.018   2.204   7.572
41355SOL    HW225840   9.147   2.125   7.575
41356SOL     OW25841   1.833  10.870   9.023
41356SOL    HW125842   1.804  10.807   9.089
41356SOL    HW225843   1.927  10.879   9.038
41357SOL     OW25844  14.772  13.977   2.191
41357SOL    HW125845  14.690  13.928   2.177
41357SOL    HW225846  14.796  13.958   2.281
41358SOL     OW25847  11.983   8.390   5.963
41358SOL    HW125848  11.953   8.359   6.049
41358SOL    HW225849  11.991   8.485   5.974
41359SOL     OW25850  14.643   9.555   5.416
41359SOL    HW125851  14.631   9.546   5.321
41359SOL    HW225852  14.679   9.471   5.443
41360SOL     OW25853   3.855   9.617  13.439
41360SOL    HW125854   3.877   9.524  13.441
41360SOL    HW225855   3.819   9.635  13.526
41361SOL     OW25856   1.606  11.413   4.863
41361SOL    HW125857   1.568  11.391   4.778
41361SOL    HW225858   1.589  11.336   4.917
41362SOL     OW25859   2.511   3.028  11.327
41362SOL    HW125860   2.436   2.985  11.367
41362SOL    HW225861   2.492   3.122  11.334
41363SOL     OW25862   8.790  11.475   9.578
41363SOL    HW125863   8.724  11.489   9.646
41363SOL    HW225864   8.763  11.394   9.534
41364SOL     OW25865  14.382   6.257   8.174
41364SOL    HW125866  14.356   6.304   8.095
41364SOL    HW225867  14.352   6.167   8.159
41365SOL     OW25868   8.726   1.640  11.997
41365SOL    HW125869   8.711   1.639  12.091
41365SOL    HW225870   8.804   1.587  11.984
41366SOL     OW25871   4.697  12.334   2.011
41366SOL    HW125872   4.775  12.354   1.960
41366SOL    HW225873   4.703  12.391   2.088
41367SOL     OW25874  10.969  11.703   7.026
41367SOL    HW125875  10.894  11.671   6.975
41367SOL    HW225876  10.938  11.785   7.064
41368SOL     OW25877   0.207  13.577   0.371
41368SOL    HW125878   0.172  13.488   0.369
41368SOL    HW225879   0.291  13.569   0.415
41369SOL     OW25880   9.508   6.793   1.742
41369SOL    HW125881   9.418   6.826   1.735
41369SOL    HW225882   9.547   6.845   1.812
41370SOL     OW25883   6.636   9.818  10.333
41370SOL    HW125884   6.654   9.820  10.239
41370SOL    HW225885   6.575   9.890  10.348
41371SOL     OW25886   2.343   8.777  11.116
41371SOL    HW125887   2.410   8.822  11.167
41371SOL    HW225888   2.266   8.834  11.122
41372SOL     OW25889   3.594   9.957   0.964
41372SOL    HW125890   3.544   9.882   0.996
41372SOL    HW225891   3.528  10.019   0.932
41373SOL     OW25892  13.502   1.553   1.256
41373SOL    HW125893  13.532   1.579   1.169
41373SOL    HW225894  13.558   1.480   1.281
41374SOL     OW25895  13.187   9.609  14.572
41374SOL    HW125896  13.135   9.538  14.608
41374SOL    HW225897  13.217   9.659  14.648
41375SOL     OW25898   7.731  11.721  11.633
41375SOL    HW125899   7.780  11.651  11.677
41375SOL    HW225900   7.641  11.690  11.630
41376SOL     OW25901   7.964   7.140   6.852
41376SOL    HW125902   8.025   7.071   6.877
41376SOL    HW225903   7.893   7.133   6.917
41377SOL     OW25904  13.837   3.344   9.127
41377SOL    HW125905  13.826   3.413   9.192
41377SOL    HW225906  13.814   3.263   9.174
41378SOL     OW25907   7.498  13.778   4.344
41378SOL    HW125908   7.434  13.807   4.279
41378SOL    HW225909   7.580  13.772   4.295
41379SOL     OW25910   8.976  11.371  14.132
41379SOL    HW125911   8.901  11.424  14.105
41379SOL    HW225912   8.960  11.353  14.225
41380SOL     OW25913  12.004  10.562   2.647
41380SOL    HW125914  12.057  10.517   2.713
41380SOL    HW225915  11.925  10.589   2.694
41381SOL     OW25916   4.803  14.685   5.738
41381SOL    HW125917   4.793  14.758   5.677
41381SOL    HW225918   4.741  14.704   5.809
41382SOL     OW25919  11.232   4.829   6.860
41382SOL    HW125920  11.139   4.853   6.867
41382SOL    HW225921  11.278   4.901   6.903
41383SOL     OW25922   3.468   2.414  10.810
41383SOL    HW125923   3.400   2.363  10.765
41383SOL    HW225924   3.488   2.361  10.888
41384SOL     OW25925  14.412   1.875   8.036
41384SOL    HW125926  14.321   1.850   8.024
41384SOL    HW225927  14.422   1.955   7.985
41385SOL     OW25928   3.889   5.005   7.492
41385SOL    HW125929   3.865   4.929   7.440
41385SOL    HW225930   3.807   5.052   7.506
41386SOL     OW25931   4.312  13.809   5.263
41386SOL    HW125932   4.233  13.755   5.267
41386SOL    HW225933   4.280  13.899   5.275
41387SOL     OW25934   3.373   5.811   7.334
41387SOL    HW125935   3.280   5.800   7.317
41387SOL    HW225936   3.379   5.895   7.380
41388SOL     OW25937   0.155  12.243  13.346
41388SOL    HW125938   0.095  12.226  13.418
41388SOL    HW225939   0.109  12.210  13.268
41389SOL     OW25940   3.196  12.024  13.722
41389SOL    HW125941   3.159  12.035  13.635
41389SOL    HW225942   3.188  11.931  13.741
41390SOL     OW25943  11.049   6.315   7.188
41390SOL    HW125944  11.002   6.358   7.116
41390SOL    HW225945  11.068   6.386   7.249
41391SOL     OW25946   8.090  11.533  10.223
41391SOL    HW125947   8.050  11.620  10.216
41391SOL    HW225948   8.183  11.549  10.212
41392SOL     OW25949   7.801   9.623  12.771
41392SOL    HW125950   7.719   9.633  12.819
41392SOL    HW225951   7.824   9.712  12.743
41393SOL     OW25952   1.262   7.465  13.962
41393SOL    HW125953   1.329   7.454  13.894
41393SOL    HW225954   1.187   7.503  13.916
41394SOL     OW25955  14.456   9.383  10.536
41394SOL    HW125956  14.433   9.376  10.629
41394SOL    HW225957  14.377   9.357  10.490
41395SOL     OW25958   6.067   3.435   9.236
41395SOL    HW125959   6.089   3.389   9.154
41395SOL    HW225960   6.009   3.375   9.282
41396SOL     OW25961  14.493   1.464  11.124
41396SOL    HW125962  14.558   1.461  11.194
41396SOL    HW225963  14.529   1.407  11.056
41397SOL     OW25964   1.088  10.739  12.678
41397SOL    HW125965   1.048  10.774  12.599
41397SOL    HW225966   1.124  10.654  12.652
41398SOL     OW25967  13.885   4.287   5.007
41398SOL    HW125968  13.909   4.232   5.082
41398SOL    HW225969  13.810   4.337   5.038
41399SOL     OW25970  14.381   5.897  10.864
41399SOL    HW125971  14.352   5.988  10.866
41399SOL    HW225972  14.471   5.901  10.832
41400SOL     OW25973  11.295   8.534  12.018
41400SOL    HW125974  11.302   8.471  11.946
41400SOL    HW225975  11.370   8.515  12.073
41401SOL     OW25976   6.540  10.317  14.541
41401SOL    HW125977   6.449  10.326  14.570
41401SOL    HW225978   6.558  10.399  14.494
41402SOL     OW25979   0.322   6.760   4.808
41402SOL    HW125980   0.414   6.779   4.790
41402SOL    HW225981   0.274   6.802   4.737
41403SOL     OW25982   3.846   8.618  10.910
41403SOL    HW125983   3.876   8.707  10.932
41403SOL    HW225984   3.758   8.630  10.875
41404SOL     OW25985   8.473  11.495   6.467
41404SOL    HW125986   8.466  11.464   6.376
41404SOL    HW225987   8.486  11.415   6.518
41405SOL     OW25988  14.144   8.840   5.753
41405SOL    HW125989  14.189   8.801   5.828
41405SOL    HW225990  14.096   8.914   5.790
41406SOL     OW25991   2.745  13.583  11.418
41406SOL    HW125992   2.677  13.524  11.385
41406SOL    HW225993   2.804  13.594  11.344
41407SOL     OW25994  13.948   7.201   1.903
41407SOL    HW125995  13.973   7.292   1.892
41407SOL    HW225996  13.854   7.199   1.883
41408SOL     OW25997  14.170   5.214   7.268
41408SOL    HW125998  14.171   5.131   7.220
41408SOL    HW225999  14.247   5.210   7.325
41409SOL     OW26000   1.772   5.010   0.530
41409SOL    HW126001   1.815   4.927   0.507
41409SOL    HW226002   1.842   5.066   0.562
41410SOL     OW26003  10.284   3.401   5.463
41410SOL    HW126004  10.234   3.325   5.491
41410SOL    HW226005  10.334   3.428   5.541
41411SOL     OW26006   4.536   8.556   3.398
41411SOL    HW126007   4.600   8.612   3.353
41411SOL    HW226008   4.455   8.571   3.349
41412SOL     OW26009   3.158  13.306   0.803
41412SOL    HW126010   3.074  13.261   0.792
41412SOL    HW226011   3.223  13.241   0.776
41413SOL     OW26012   7.390  13.743   5.707
41413SOL    HW126013   7.389  13.656   5.666
41413SOL    HW226014   7.357  13.728   5.796
41414SOL     OW26015  11.610  11.814  12.267
41414SOL    HW126016  11.667  11.752  12.313
41414SOL    HW226017  11.554  11.850  12.336
41415SOL     OW26018   4.436   5.745   9.980
41415SOL    HW126019   4.473   5.786  10.057
41415SOL    HW226020   4.436   5.814   9.913
41416SOL     OW26021   0.206  14.696   6.721
41416SOL    HW126022   0.278  14.637   6.743
41416SOL    HW226023   0.149  14.644   6.663
41417SOL     OW26024   0.165   8.127  13.573
41417SOL    HW126025   0.237   8.125  13.636
41417SOL    HW226026   0.181   8.205  13.521
41418SOL     OW26027   3.134  11.502   5.099
41418SOL    HW126028   3.180  11.482   5.181
41418SOL    HW226029   3.045  11.467   5.113
41419SOL     OW26030   7.944  12.417   0.929
41419SOL    HW126031   7.861  12.403   0.884
41419SOL    HW226032   7.923  12.411   1.022
41420SOL     OW26033   6.076   3.770   4.992
41420SOL    HW126034   6.045   3.697   5.045
41420SOL    HW226035   6.080   3.844   5.053
41421SOL     OW26036   5.356   0.858   7.377
41421SOL    HW126037   5.447   0.829   7.372
41421SOL    HW226038   5.339   0.900   7.293
41422SOL     OW26039   3.159   1.064   5.230
41422SOL    HW126040   3.170   1.138   5.170
41422SOL    HW226041   3.069   1.034   5.216
41423SOL     OW26042   7.661   4.492   4.124
41423SOL    HW126043   7.597   4.501   4.194
41423SOL    HW226044   7.726   4.560   4.142
41424SOL     OW26045   7.413   7.803  14.791
41424SOL    HW126046   7.447   7.746  14.722
41424SOL    HW226047   7.489   7.852  14.821
41425SOL     OW26048   0.797   0.588   9.398
41425SOL    HW126049   0.810   0.647   9.472
41425SOL    HW226050   0.885   0.572   9.365
41426SOL     OW26051   1.396  12.809   1.333
41426SOL    HW126052   1.332  12.760   1.281
41426SOL    HW226053   1.350  12.830   1.414
41427SOL     OW26054   7.204   9.887   6.484
41427SOL    HW126055   7.251   9.846   6.557
41427SOL    HW226056   7.272   9.902   6.418
41428SOL     OW26057   5.549   3.655   6.360
41428SOL    HW126058   5.492   3.632   6.287
41428SOL    HW226059   5.637   3.657   6.322
41429SOL     OW26060   2.844  10.438   7.056
41429SOL    HW126061   2.844  10.349   7.019
41429SOL    HW226062   2.930  10.473   7.033
41430SOL     OW26063   2.220   2.415   6.716
41430SOL    HW126064   2.220   2.395   6.810
41430SOL    HW226065   2.131   2.396   6.687
41431SOL     OW26066  13.402  12.237  10.663
41431SOL    HW126067  13.386  12.233  10.758
41431SOL    HW226068  13.425  12.329  10.647
41432SOL     OW26069   3.198   9.489   3.810
41432SOL    HW126070   3.290   9.479   3.783
41432SOL    HW226071   3.190   9.433   3.888
41433SOL     OW26072  10.151   4.751   1.173
41433SOL    HW126073  10.096   4.712   1.240
41433SOL    HW226074  10.236   4.764   1.216
41434SOL     OW26075  11.783   9.231   6.742
41434SOL    HW126076  11.836   9.199   6.670
41434SOL    HW226077  11.823   9.194   6.820
41435SOL     OW26078  12.377   6.944   9.372
41435SOL    HW126079  12.303   6.898   9.334
41435SOL    HW226080  12.338   7.010   9.430
41436SOL     OW26081   4.356   0.136  11.686
41436SOL    HW126082   4.327   0.223  11.660
41436SOL    HW226083   4.450   0.136  11.668
41437SOL     OW26084  12.894   6.218  10.125
41437SOL    HW126085  12.942   6.181  10.051
41437SOL    HW226086  12.893   6.312  10.109
41438SOL     OW26087  10.966  14.776  11.017
41438SOL    HW126088  11.041  14.754  10.963
41438SOL    HW226089  10.998  14.842  11.078
41439SOL     OW26090   5.554  13.149  12.779
41439SOL    HW126091   5.492  13.169  12.709
41439SOL    HW226092   5.563  13.231  12.827
41440SOL     OW26093  10.829   4.594  12.251
41440SOL    HW126094  10.780   4.521  12.288
41440SOL    HW226095  10.915   4.588  12.292
41441SOL     OW26096   8.705   0.446   2.943
41441SOL    HW126097   8.737   0.356   2.934
41441SOL    HW226098   8.722   0.469   3.034
41442SOL     OW26099   3.511   1.424   2.243
41442SOL    HW126100   3.513   1.471   2.160
41442SOL    HW226101   3.517   1.491   2.310
41443SOL     OW26102   5.330   9.149   9.050
41443SOL    HW126103   5.342   9.159   8.956
41443SOL    HW226104   5.262   9.213   9.073
41444SOL     OW26105  10.296   2.134   9.655
41444SOL    HW126106  10.273   2.111   9.745
41444SOL    HW226107  10.391   2.121   9.650
41445SOL     OW26108   4.747   8.764   1.719
41445SOL    HW126109   4.789   8.709   1.785
41445SOL    HW226110   4.744   8.851   1.759
41446SOL     OW26111   9.352   8.827  11.470
41446SOL    HW126112   9.282   8.813  11.533
41446SOL    HW226113   9.376   8.739  11.440
41447SOL     OW26114  14.439   6.407   0.501
41447SOL    HW126115  14.350   6.373   0.490
41447SOL    HW226116  14.428   6.502   0.506
41448SOL     OW26117   7.665   8.567   2.280
41448SOL    HW126118   7.669   8.478   2.316
41448SOL    HW226119   7.754   8.587   2.252
41449SOL     OW26120  14.199   3.520  14.286
41449SOL    HW126121  14.146   3.600  14.289
41449SOL    HW226122  14.183   3.485  14.198
41450SOL     OW26123  10.693   0.180   4.110
41450SOL    HW126124  10.700   0.262   4.158
41450SOL    HW226125  10.784   0.155   4.091
41451SOL     OW26126   1.121   1.271   1.875
41451SOL    HW126127   1.053   1.332   1.848
41451SOL    HW226128   1.075   1.204   1.925
41452SOL     OW26129   9.820  14.212   1.808
41452SOL    HW126130   9.892  14.166   1.765
41452SOL    HW226131   9.843  14.305   1.800
41453SOL     OW26132  12.319  12.505  10.722
41453SOL    HW126133  12.238  12.504  10.774
41453SOL    HW226134  12.387  12.474  10.782
41454SOL     OW26135  14.314   3.098   7.098
41454SOL    HW126136  14.319   3.091   7.193
41454SOL    HW226137  14.287   3.011   7.069
41455SOL     OW26138   9.895   2.694   3.931
41455SOL    HW126139   9.875   2.778   3.891
41455SOL    HW226140   9.980   2.670   3.895
41456SOL     OW26141   4.661   9.878   1.243
41456SOL    HW126142   4.593   9.938   1.276
41456SOL    HW226143   4.681   9.910   1.155
41457SOL     OW26144   2.339   7.125  13.170
41457SOL    HW126145   2.307   7.162  13.088
41457SOL    HW226146   2.326   7.031  13.160
41458SOL     OW26147  10.249   9.761   7.668
41458SOL    HW126148  10.199   9.743   7.747
41458SOL    HW226149  10.340   9.761   7.696
41459SOL     OW26150   1.139  14.601  11.471
41459SOL    HW126151   1.095  14.685  11.458
41459SOL    HW226152   1.190  14.612  11.551
41460SOL     OW26153   7.642  13.864   5.584
41460SOL    HW126154   7.709  13.882   5.650
41460SOL    HW226155   7.573  13.818   5.632
41461SOL     OW26156   4.692  12.684  10.057
41461SOL    HW126157   4.599  12.694  10.035
41461SOL    HW226158   4.702  12.729  10.141
41462SOL     OW26159   7.713   7.863  10.026
41462SOL    HW126160   7.704   7.958  10.033
41462SOL    HW226161   7.749   7.848   9.938
41463SOL     OW26162  11.783   8.148   4.176
41463SOL    HW126163  11.868   8.128   4.216
41463SOL    HW226164  11.762   8.236   4.206
41464SOL     OW26165   4.159   4.295   6.276
41464SOL    HW126166   4.070   4.293   6.240
41464SOL    HW226167   4.151   4.347   6.356
41465SOL     OW26168   2.882   5.492  12.405
41465SOL    HW126169   2.895   5.425  12.338
41465SOL    HW226170   2.843   5.445  12.479
41466SOL     OW26171  13.897   4.560   8.019
41466SOL    HW126172  13.897   4.497   8.092
41466SOL    HW226173  13.989   4.585   8.010
41467SOL     OW26174   3.128  12.955   2.534
41467SOL    HW126175   3.098  12.890   2.470
41467SOL    HW226176   3.200  12.999   2.491
41468SOL     OW26177   5.292   9.805   2.799
41468SOL    HW126178   5.382   9.827   2.822
41468SOL    HW226179   5.278   9.718   2.836
41469SOL     OW26180   0.686   6.309   0.999
41469SOL    HW126181   0.658   6.284   0.911
41469SOL    HW226182   0.612   6.358   1.035
41470SOL     OW26183   7.916   5.249   0.106
41470SOL    HW126184   7.934   5.327   0.158
41470SOL    HW226185   7.821   5.237   0.111
41471SOL     OW26186   0.715  13.942   4.139
41471SOL    HW126187   0.645  13.989   4.184
41471SOL    HW226188   0.789  14.003   4.140
41472SOL     OW26189  11.427   6.265   0.837
41472SOL    HW126190  11.482   6.187   0.831
41472SOL    HW226191  11.468   6.317   0.907
41473SOL     OW26192   7.568   9.415   9.590
41473SOL    HW126193   7.603   9.399   9.503
41473SOL    HW226194   7.491   9.470   9.575
41474SOL     OW26195   2.193   3.153   1.519
41474SOL    HW126196   2.122   3.209   1.551
41474SOL    HW226197   2.261   3.215   1.490
41475SOL     OW26198   8.818   2.765  11.881
41475SOL    HW126199   8.774   2.850  11.877
41475SOL    HW226200   8.911   2.786  11.888
41476SOL     OW26201   0.529  12.964   0.702
41476SOL    HW126202   0.587  13.004   0.766
41476SOL    HW226203   0.506  12.879   0.739
41477SOL     OW26204   5.989  11.165   3.550
41477SOL    HW126205   5.930  11.145   3.477
41477SOL    HW226206   6.003  11.259   3.545
41478SOL     OW26207   7.674   2.961   3.896
41478SOL    HW126208   7.743   2.995   3.840
41478SOL    HW226209   7.719   2.930   3.975
41479SOL     OW26210  13.521   6.676  14.627
41479SOL    HW126211  13.596   6.657  14.571
41479SOL    HW226212  13.504   6.769  14.613
41480SOL     OW26213   5.691   9.208   6.642
41480SOL    HW126214   5.643   9.139   6.687
41480SOL    HW226215   5.679   9.188   6.549
41481SOL     OW26216  10.534  11.397  13.370
41481SOL    HW126217  10.441  11.395  13.393
41481SOL    HW226218  10.559  11.489  13.378
41482SOL     OW26219   1.663   1.829   5.073
41482SOL    HW126220   1.622   1.763   5.017
41482SOL    HW226221   1.705   1.779   5.142
41483SOL     OW26222   4.766   3.847  11.340
41483SOL    HW126223   4.679   3.835  11.377
41483SOL    HW226224   4.769   3.787  11.265
41484SOL     OW26225   3.742   3.317   7.807
41484SOL    HW126226   3.728   3.329   7.901
41484SOL    HW226227   3.727   3.404   7.769
41485SOL     OW26228   7.619  10.310  10.787
41485SOL    HW126229   7.688  10.327  10.851
41485SOL    HW226230   7.652  10.237  10.735
41486SOL     OW26231   9.843   9.976   3.540
41486SOL    HW126232   9.758   9.935   3.527
41486SOL    HW226233   9.903   9.925   3.486
41487SOL     OW26234   7.154  10.261  12.248
41487SOL    HW126235   7.072  10.228  12.210
41487SOL    HW226236   7.151  10.355  12.232
41488SOL     OW26237   7.849   2.120   2.830
41488SOL    HW126238   7.827   2.033   2.863
41488SOL    HW226239   7.944   2.126   2.841
41489SOL     OW26240  12.084  10.147   4.269
41489SOL    HW126241  12.071  10.092   4.192
41489SOL    HW226242  12.045  10.096   4.341
41490SOL     OW26243  11.244  13.054   2.643
41490SOL    HW126244  11.313  13.077   2.580
41490SOL    HW226245  11.173  13.114   2.623
41491SOL     OW26246   6.675   2.249   8.053
41491SOL    HW126247   6.628   2.244   8.136
41491SOL    HW226248   6.729   2.170   8.051
41492SOL     OW26249  10.521   2.760   6.139
41492SOL    HW126250  10.588   2.784   6.202
41492SOL    HW226251  10.549   2.802   6.057
41493SOL     OW26252  13.440   9.649  13.244
41493SOL    HW126253  13.398   9.625  13.161
41493SOL    HW226254  13.443   9.744  13.243
41494SOL     OW26255   7.656   7.932   0.781
41494SOL    HW126256   7.726   7.879   0.820
41494SOL    HW226257   7.702   7.992   0.722
41495SOL     OW26258   2.476   0.992   8.429
41495SOL    HW126259   2.449   0.912   8.474
41495SOL    HW226260   2.551   0.965   8.375
41496SOL     OW26261   3.803   6.584   0.933
41496SOL    HW126262   3.882   6.537   0.907
41496SOL    HW226263   3.835   6.661   0.981
41497SOL     OW26264   9.112   5.093   6.125
41497SOL    HW126265   9.064   5.104   6.208
41497SOL    HW226266   9.171   5.168   6.121
41498SOL     OW26267  10.679   1.810   8.861
41498SOL    HW126268  10.693   1.764   8.944
41498SOL    HW226269  10.660   1.900   8.887
41499SOL     OW26270   6.945   4.914   7.693
41499SOL    HW126271   6.888   4.933   7.618
41499SOL    HW226272   6.993   4.996   7.707
41500SOL     OW26273   5.515  11.801   6.632
41500SOL    HW126274   5.476  11.775   6.548
41500SOL    HW226275   5.604  11.767   6.628
41501SOL     OW26276   5.854   3.484  12.551
41501SOL    HW126277   5.914   3.514  12.619
41501SOL    HW226278   5.896   3.406  12.515
41502SOL     OW26279  10.619   3.159  13.489
41502SOL    HW126280  10.589   3.103  13.560
41502SOL    HW226281  10.690   3.211  13.527
41503SOL     OW26282  10.171  12.749   3.938
41503SOL    HW126283  10.148  12.811   4.007
41503SOL    HW226284  10.105  12.680   3.944
41504SOL     OW26285   6.615   5.671   4.047
41504SOL    HW126286   6.687   5.734   4.057
41504SOL    HW226287   6.595   5.644   4.136
41505SOL     OW26288   7.006   0.891   2.701
41505SOL    HW126289   6.933   0.839   2.735
41505SOL    HW226290   6.969   0.977   2.684
41506SOL     OW26291  14.694   7.539   6.475
41506SOL    HW126292  14.759   7.488   6.425
41506SOL    HW226293  14.726   7.629   6.471
41507SOL     OW26294   6.470   8.312   6.942
41507SOL    HW126295   6.522   8.379   6.899
41507SOL    HW226296   6.533   8.246   6.969
41508SOL     OW26297  10.016  10.867  14.238
41508SOL    HW126298  10.010  10.941  14.177
41508SOL    HW226299  10.095  10.820  14.212
41509SOL     OW26300  10.328  10.030   6.602
41509SOL    HW126301  10.236  10.050   6.584
41509SOL    HW226302  10.346  10.071   6.686
41510SOL     OW26303  14.764  12.726   2.071
41510SOL    HW126304  14.681  12.680   2.058
41510SOL    HW226305  14.831  12.660   2.056
41511SOL     OW26306   7.712   5.066   0.390
41511SOL    HW126307   7.801   5.075   0.424
41511SOL    HW226308   7.676   4.990   0.435
41512SOL     OW26309   8.282  10.990   8.416
41512SOL    HW126310   8.226  10.913   8.428
41512SOL    HW226311   8.275  11.011   8.323
41513SOL     OW26312   8.570   7.072  11.906
41513SOL    HW126313   8.569   7.128  11.983
41513SOL    HW226314   8.480   7.072  11.874
41514SOL     OW26315   9.656  12.899  14.100
41514SOL    HW126316   9.607  12.964  14.150
41514SOL    HW226317   9.645  12.817  14.148
41515SOL     OW26318   4.691   8.525   7.672
41515SOL    HW126319   4.670   8.618   7.658
41515SOL    HW226320   4.771   8.527   7.724
41516SOL     OW26321  10.858  13.931   6.114
41516SOL    HW126322  10.949  13.961   6.106
41516SOL    HW226323  10.824  13.978   6.190
41517SOL     OW26324   1.450   4.996   3.347
41517SOL    HW126325   1.540   5.028   3.360
41517SOL    HW226326   1.419   5.042   3.269
41518SOL     OW26327   2.385  11.073   3.139
41518SOL    HW126328   2.434  11.010   3.086
41518SOL    HW226329   2.399  11.157   3.095
41519SOL     OW26330   7.338   9.634   0.584
41519SOL    HW126331   7.367   9.562   0.641
41519SOL    HW226332   7.291   9.693   0.642
41520SOL     OW26333  10.812   2.909   4.717
41520SOL    HW126334  10.772   2.995   4.730
41520SOL    HW226335  10.904   2.929   4.699
41521SOL     OW26336  11.800  10.661   1.927
41521SOL    HW126337  11.726  10.630   1.979
41521SOL    HW226338  11.829  10.741   1.971
41522SOL     OW26339   7.763  14.312   4.718
41522SOL    HW126340   7.788  14.288   4.807
41522SOL    HW226341   7.752  14.228   4.673
41523SOL     OW26342   6.975   5.473   9.285
41523SOL    HW126343   6.901   5.413   9.290
41523SOL    HW226344   6.936   5.558   9.264
41524SOL     OW26345   1.837  10.846  12.349
41524SOL    HW126346   1.840  10.771  12.408
41524SOL    HW226347   1.834  10.807  12.261
41525SOL     OW26348   0.230   9.957  10.114
41525SOL    HW126349   0.209   9.866  10.094
41525SOL    HW226350   0.305   9.977  10.058
41526SOL     OW26351  12.422  12.699   9.354
41526SOL    HW126352  12.491  12.706   9.419
41526SOL    HW226353  12.370  12.624   9.383
41527SOL     OW26354   5.311   3.903  13.536
41527SOL    HW126355   5.333   3.947  13.618
41527SOL    HW226356   5.226   3.863  13.552
41528SOL     OW26357  12.057   7.930   3.954
41528SOL    HW126358  12.079   7.851   3.904
41528SOL    HW226359  12.122   7.932   4.024
41529SOL     OW26360  14.447   2.960  14.514
41529SOL    HW126361  14.438   3.024  14.585
41529SOL    HW226362  14.434   3.011  14.434
41530SOL     OW26363   6.651  10.121   9.194
41530SOL    HW126364   6.625  10.158   9.109
41530SOL    HW226365   6.745  10.107   9.186
41531SOL     OW26366   5.364  11.806   0.461
41531SOL    HW126367   5.316  11.799   0.378
41531SOL    HW226368   5.296  11.814   0.528
41532SOL     OW26369   9.835   1.937   0.628
41532SOL    HW126370   9.795   2.022   0.609
41532SOL    HW226371   9.793   1.908   0.709
41533SOL     OW26372   1.867   5.892   2.216
41533SOL    HW126373   1.893   5.945   2.292
41533SOL    HW226374   1.864   5.803   2.249
41534SOL     OW26375  12.381  13.902  13.026
41534SOL    HW126376  12.367  13.977  13.085
41534SOL    HW226377  12.466  13.919  12.986
41535SOL     OW26378   3.580   5.590   4.922
41535SOL    HW126379   3.594   5.676   4.880
41535SOL    HW226380   3.485   5.583   4.930
41536SOL     OW26381  10.280  10.956   3.172
41536SOL    HW126382  10.373  10.948   3.148
41536SOL    HW226383  10.240  10.876   3.139
41537SOL     OW26384   2.503   2.360  13.165
41537SOL    HW126385   2.594   2.380  13.145
41537SOL    HW226386   2.453   2.428  13.120
41538SOL     OW26387  12.402   9.897   9.167
41538SOL    HW126388  12.468   9.962   9.192
41538SOL    HW226389  12.424   9.873   9.078
41539SOL     OW26390  10.847   5.122   9.313
41539SOL    HW126391  10.918   5.125   9.377
41539SOL    HW226392  10.767   5.129   9.366
41540SOL     OW26393   7.842   7.555   6.352
41540SOL    HW126394   7.869   7.605   6.275
41540SOL    HW226395   7.912   7.569   6.415
41541SOL     OW26396   9.158  10.064   5.462
41541SOL    HW126397   9.077  10.096   5.423
41541SOL    HW226398   9.187   9.994   5.403
41542SOL     OW26399   6.495   5.512   2.801
41542SOL    HW126400   6.460   5.579   2.859
41542SOL    HW226401   6.423   5.450   2.790
41543SOL     OW26402   6.027   0.327  12.920
41543SOL    HW126403   5.953   0.327  12.982
41543SOL    HW226404   5.989   0.294  12.838
41544SOL     OW26405   0.661   6.867   4.487
41544SOL    HW126406   0.721   6.916   4.430
41544SOL    HW226407   0.698   6.779   4.490
41545SOL     OW26408   1.668  10.678   1.457
41545SOL    HW126409   1.675  10.773   1.450
41545SOL    HW226410   1.758  10.647   1.458
41546SOL     OW26411   3.082   4.120  13.223
41546SOL    HW126412   3.158   4.176  13.238
41546SOL    HW226413   3.106   4.066  13.147
41547SOL     OW26414   2.725   5.621   2.406
41547SOL    HW126415   2.722   5.668   2.489
41547SOL    HW226416   2.710   5.688   2.340
41548SOL     OW26417  10.544   7.943   8.040
41548SOL    HW126418  10.499   8.028   8.042
41548SOL    HW226419  10.571   7.928   8.130
41549SOL     OW26420  10.776   9.186   2.027
41549SOL    HW126421  10.748   9.108   2.075
41549SOL    HW226422  10.774   9.160   1.935
41550SOL     OW26423  13.591  10.110  13.291
41550SOL    HW126424  13.528  10.130  13.222
41550SOL    HW226425  13.568  10.169  13.363
41551SOL     OW26426   4.027   6.675  14.014
41551SOL    HW126427   3.987   6.615  13.951
41551SOL    HW226428   3.957   6.736  14.036
41552SOL     OW26429   2.280   4.740   0.270
41552SOL    HW126430   2.189   4.754   0.243
41552SOL    HW226431   2.331   4.798   0.212
41553SOL     OW26432  10.033   5.641   2.285
41553SOL    HW126433   9.941   5.654   2.311
41553SOL    HW226434  10.032   5.649   2.190
41554SOL     OW26435   0.076  13.297   8.235
41554SOL    HW126436   0.164  13.335   8.231
41554SOL    HW226437   0.022  13.364   8.276
41555SOL     OW26438   3.518  10.081   0.534
41555SOL    HW126439   3.489  10.049   0.619
41555SOL    HW226440   3.612  10.063   0.532
41556SOL     OW26441   8.150  11.505  14.712
41556SOL    HW126442   8.241  11.475  14.711
41556SOL    HW226443   8.151  11.587  14.663
41557SOL     OW26444   6.602   9.244   0.970
41557SOL    HW126445   6.599   9.205   1.057
41557SOL    HW226446   6.646   9.328   0.982
41558SOL     OW26447   1.261   2.725   8.650
41558SOL    HW126448   1.248   2.805   8.599
41558SOL    HW226449   1.351   2.732   8.684
41559SOL     OW26450   8.568   5.790  14.525
41559SOL    HW126451   8.538   5.706  14.561
41559SOL    HW226452   8.614   5.832  14.597
41560SOL     OW26453   1.260   2.435   4.714
41560SOL    HW126454   1.222   2.351   4.687
41560SOL    HW226455   1.340   2.443   4.662
41561SOL     OW26456   6.249  10.840  11.168
41561SOL    HW126457   6.300  10.801  11.097
41561SOL    HW226458   6.292  10.809  11.248
41562SOL     OW26459  10.913   9.891   3.624
41562SOL    HW126460  10.962   9.835   3.684
41562SOL    HW226461  10.980   9.933   3.570
41563SOL     OW26462  10.978   8.458  11.592
41563SOL    HW126463  10.933   8.380  11.559
41563SOL    HW226464  11.070   8.432  11.597
41564SOL     OW26465  14.647   5.473   0.374
41564SOL    HW126466  14.580   5.405   0.385
41564SOL    HW226467  14.678   5.491   0.463
41565SOL     OW26468   1.208   7.049   1.460
41565SOL    HW126469   1.252   7.057   1.376
41565SOL    HW226470   1.219   6.957   1.484
41566SOL     OW26471   0.611   7.147   3.488
41566SOL    HW126472   0.683   7.124   3.428
41566SOL    HW226473   0.539   7.090   3.462
41567SOL     OW26474  11.388   8.786  11.991
41567SOL    HW126475  11.334   8.709  12.010
41567SOL    HW226476  11.325   8.859  11.991
41568SOL     OW26477  14.637   4.851  12.278
41568SOL    HW126478  14.641   4.946  12.269
41568SOL    HW226479  14.627   4.819  12.188
41569SOL     OW26480   1.648   6.012   3.767
41569SOL    HW126481   1.685   6.097   3.789
41569SOL    HW226482   1.695   5.986   3.688
41570SOL     OW26483   3.235   8.392   3.829
41570SOL    HW126484   3.180   8.433   3.763
41570SOL    HW226485   3.324   8.423   3.809
41571SOL     OW26486   2.870  13.520  10.508
41571SOL    HW126487   2.827  13.561  10.432
41571SOL    HW226488   2.896  13.434  10.477
41572SOL     OW26489  13.985   2.518  13.340
41572SOL    HW126490  14.068   2.500  13.295
41572SOL    HW226491  13.978   2.449  13.406
41573SOL     OW26492   0.726  13.893   3.094
41573SOL    HW126493   0.708  13.839   3.017
41573SOL    HW226494   0.667  13.859   3.161
41574SOL     OW26495   9.220   2.517  12.391
41574SOL    HW126496   9.167   2.522  12.312
41574SOL    HW226497   9.242   2.424  12.400
41575SOL     OW26498   9.393   9.699   2.936
41575SOL    HW126499   9.411   9.610   2.967
41575SOL    HW226500   9.298   9.708   2.943
41576SOL     OW26501   1.357  11.020   8.769
41576SOL    HW126502   1.299  11.068   8.827
41576SOL    HW226503   1.352  10.929   8.800
41577SOL     OW26504   5.782   3.813   9.811
41577SOL    HW126505   5.776   3.888   9.871
41577SOL    HW226506   5.728   3.746   9.851
41578SOL     OW26507   2.934   4.180   9.316
41578SOL    HW126508   2.997   4.164   9.247
41578SOL    HW226509   2.921   4.275   9.317
41579SOL     OW26510   6.939   6.321   3.242
41579SOL    HW126511   6.846   6.309   3.223
41579SOL    HW226512   6.974   6.232   3.247
41580SOL     OW26513  13.871   3.568  10.542
41580SOL    HW126514  13.885   3.549  10.449
41580SOL    HW226515  13.776   3.576  10.551
41581SOL     OW26516   2.369   3.146   1.800
41581SOL    HW126517   2.300   3.091   1.764
41581SOL    HW226518   2.334   3.179   1.883
41582SOL     OW26519  13.523   8.869  12.110
41582SOL    HW126520  13.559   8.782  12.128
41582SOL    HW226521  13.531   8.879  12.016
41583SOL     OW26522   6.062  13.202  13.787
41583SOL    HW126523   6.058  13.223  13.693
41583SOL    HW226524   6.118  13.125  13.791
41584SOL     OW26525   6.299   3.992   7.807
41584SOL    HW126526   6.204   3.997   7.809
41584SOL    HW226527   6.326   4.060   7.746
41585SOL     OW26528   3.397   5.387   2.458
41585SOL    HW126529   3.376   5.306   2.504
41585SOL    HW226530   3.376   5.456   2.521
41586SOL     OW26531   5.504   5.965   0.670
41586SOL    HW126532   5.515   5.975   0.576
41586SOL    HW226533   5.520   6.053   0.705
41587SOL     OW26534  14.361   0.328   3.888
41587SOL    HW126535  14.353   0.390   3.961
41587SOL    HW226536  14.415   0.257   3.921
41588SOL     OW26537   9.110   3.899   5.642
41588SOL    HW126538   9.084   3.888   5.551
41588SOL    HW226539   9.039   3.858   5.692
41589SOL     OW26540  14.554   0.771   0.643
41589SOL    HW126541  14.538   0.704   0.577
41589SOL    HW226542  14.489   0.753   0.711
41590SOL     OW26543   4.234   8.470   1.883
41590SOL    HW126544   4.161   8.424   1.842
41590SOL    HW226545   4.305   8.407   1.884
41591SOL     OW26546   9.452   8.702   8.931
41591SOL    HW126547   9.408   8.712   9.016
41591SOL    HW226548   9.415   8.622   8.894
41592SOL     OW26549   8.740  10.752   5.183
41592SOL    HW126550   8.689  10.782   5.107
41592SOL    HW226551   8.759  10.831   5.232
41593SOL     OW26552   7.726   0.793   4.755
41593SOL    HW126553   7.804   0.737   4.754
41593SOL    HW226554   7.692   0.784   4.844
41594SOL     OW26555   3.982   2.612   5.984
41594SOL    HW126556   4.006   2.544   5.921
41594SOL    HW226557   3.972   2.691   5.931
41595SOL     OW26558   5.819   4.467   6.609
41595SOL    HW126559   5.797   4.414   6.532
41595SOL    HW226560   5.775   4.422   6.682
41596SOL     OW26561   5.262   0.201   3.177
41596SOL    HW126562   5.264   0.107   3.160
41596SOL    HW226563   5.326   0.238   3.116
41597SOL     OW26564   1.366   3.598   5.987
41597SOL    HW126565   1.292   3.658   5.978
41597SOL    HW226566   1.380   3.564   5.899
41598SOL     OW26567   1.137  10.738   1.142
41598SOL    HW126568   1.204  10.777   1.198
41598SOL    HW226569   1.058  10.789   1.160
41599SOL     OW26570   2.344   7.590   3.603
41599SOL    HW126571   2.322   7.683   3.592
41599SOL    HW226572   2.336   7.575   3.698
41600SOL     OW26573   6.835  10.971  12.425
41600SOL    HW126574   6.901  10.961  12.494
41600SOL    HW226575   6.847  10.895  12.369
41601SOL     OW26576   5.139   9.356   4.207
41601SOL    HW126577   5.213   9.403   4.245
41601SOL    HW226578   5.104   9.304   4.279
41602SOL     OW26579  14.333  14.222  12.265
41602SOL    HW126580  14.337  14.197  12.357
41602SOL    HW226581  14.351  14.140  12.218
41603SOL     OW26582  12.525  10.182   7.098
41603SOL    HW126583  12.482  10.256   7.057
41603SOL    HW226584  12.619  10.204   7.096
41604SOL     OW26585   9.350   9.790   3.667
41604SOL    HW126586   9.293   9.867   3.668
41604SOL    HW226587   9.304   9.726   3.721
41605SOL     OW26588   4.750   6.124  11.297
41605SOL    HW126589   4.777   6.145  11.207
41605SOL    HW226590   4.818   6.162  11.352
41606SOL     OW26591   9.326   3.083   9.349
41606SOL    HW126592   9.403   3.030   9.367
41606SOL    HW226593   9.255   3.038   9.396
41607SOL     OW26594   8.031   6.176  12.828
41607SOL    HW126595   7.949   6.214  12.861
41607SOL    HW226596   8.095   6.194  12.897
41608SOL     OW26597   5.862   3.225   5.791
41608SOL    HW126598   5.913   3.288   5.740
41608SOL    HW226599   5.868   3.257   5.881
41609SOL     OW26600  13.463  10.805   1.081
41609SOL    HW126601  13.399  10.734   1.092
41609SOL    HW226602  13.461  10.825   0.988
41610SOL     OW26603  11.379   1.643  12.963
41610SOL    HW126604  11.354   1.615  13.051
41610SOL    HW226605  11.357   1.569  12.907
41611SOL     OW26606   8.608   0.791  14.083
41611SOL    HW126607   8.698   0.761  14.083
41611SOL    HW226608   8.607   0.864  14.145
41612SOL     OW26609   0.914   2.493   6.203
41612SOL    HW126610   0.830   2.492   6.158
41612SOL    HW226611   0.895   2.461   6.291
41613SOL     OW26612  10.402   0.211   9.080
41613SOL    HW126613  10.424   0.122   9.054
41613SOL    HW226614  10.448   0.267   9.017
41614SOL     OW26615   7.598   3.252  11.272
41614SOL    HW126616   7.552   3.170  11.250
41614SOL    HW226617   7.535   3.321  11.249
41615SOL     OW26618  13.239   3.229  10.939
41615SOL    HW126619  13.288   3.311  10.934
41615SOL    HW226620  13.217   3.220  11.031
41616SOL     OW26621   8.975   0.224   2.703
41616SOL    HW126622   9.041   0.241   2.771
41616SOL    HW226623   8.916   0.299   2.708
41617SOL     OW26624   6.103  11.037   2.563
41617SOL    HW126625   6.178  11.028   2.505
41617SOL    HW226626   6.130  10.993   2.644
41618SOL     OW26627  10.114   3.641   0.626
41618SOL    HW126628  10.190   3.583   0.627
41618SOL    HW226629  10.135   3.707   0.560
41619SOL     OW26630  14.476  13.031  12.217
41619SOL    HW126631  14.468  12.946  12.261
41619SOL    HW226632  14.476  13.010  12.124
41620SOL     OW26633   0.691   6.935   1.283
41620SOL    HW126634   0.623   6.886   1.327
41620SOL    HW226635   0.773   6.895   1.312
41621SOL     OW26636   6.734   9.387   0.514
41621SOL    HW126637   6.826   9.412   0.504
41621SOL    HW226638   6.720   9.321   0.446
41622SOL     OW26639   4.367  10.288   3.270
41622SOL    HW126640   4.425  10.313   3.199
41622SOL    HW226641   4.304  10.228   3.230
41623SOL     OW26642   8.651   2.934  11.096
41623SOL    HW126643   8.652   2.946  11.001
41623SOL    HW226644   8.592   3.002  11.128
41624SOL     OW26645   5.389   2.194  10.094
41624SOL    HW126646   5.461   2.178  10.033
41624SOL    HW226647   5.319   2.135  10.064
41625SOL     OW26648  11.132  12.071  12.618
41625SOL    HW126649  11.090  11.990  12.590
41625SOL    HW226650  11.083  12.098  12.696
41626SOL     OW26651   1.623   0.776   6.563
41626SOL    HW126652   1.689   0.781   6.632
41626SOL    HW226653   1.661   0.715   6.499
41627SOL     OW26654   0.580  12.167  12.652
41627SOL    HW126655   0.582  12.218  12.733
41627SOL    HW226656   0.497  12.121  12.655
41628SOL     OW26657   7.614   5.078   3.045
41628SOL    HW126658   7.578   5.098   3.131
41628SOL    HW226659   7.549   5.112   2.983
41629SOL     OW26660   3.330  10.617   5.698
41629SOL    HW126661   3.292  10.545   5.748
41629SOL    HW226662   3.266  10.636   5.630
41630SOL     OW26663   6.550  12.023   8.123
41630SOL    HW126664   6.543  12.095   8.060
41630SOL    HW226665   6.460  12.009   8.154
41631SOL     OW26666   2.243   4.080   1.415
41631SOL    HW126667   2.239   4.104   1.507
41631SOL    HW226668   2.220   4.160   1.368
41632SOL     OW26669  12.228   5.468  13.222
41632SOL    HW126670  12.220   5.505  13.134
41632SOL    HW226671  12.138   5.467  13.256
41633SOL     OW26672   9.544   3.506   6.625
41633SOL    HW126673   9.493   3.556   6.561
41633SOL    HW226674   9.634   3.509   6.592
41634SOL     OW26675   5.676   8.415   4.804
41634SOL    HW126676   5.657   8.504   4.835
41634SOL    HW226677   5.675   8.422   4.709
41635SOL     OW26678   2.011   1.361   6.212
41635SOL    HW126679   1.950   1.287   6.223
41635SOL    HW226680   2.016   1.400   6.299
41636SOL     OW26681   6.685   7.190   7.386
41636SOL    HW126682   6.652   7.105   7.415
41636SOL    HW226683   6.690   7.183   7.290
41637SOL     OW26684  13.058   8.900   6.081
41637SOL    HW126685  13.088   8.966   6.018
41637SOL    HW226686  13.118   8.909   6.155
41638SOL     OW26687   0.216   7.612   0.768
41638SOL    HW126688   0.236   7.570   0.684
41638SOL    HW226689   0.276   7.571   0.830
41639SOL     OW26690   2.305  14.375   9.963
41639SOL    HW126691   2.306  14.297   9.907
41639SOL    HW226692   2.324  14.447   9.904
41640SOL     OW26693   9.490   1.537   3.491
41640SOL    HW126694   9.460   1.608   3.549
41640SOL    HW226695   9.410   1.491   3.467
41641SOL     OW26696   3.958  12.023  13.595
41641SOL    HW126697   3.993  11.934  13.592
41641SOL    HW226698   3.970  12.057  13.506
41642SOL     OW26699   6.931  11.257  13.370
41642SOL    HW126700   6.946  11.344  13.333
41642SOL    HW226701   6.895  11.274  13.457
41643SOL     OW26702   4.062  12.798   3.701
41643SOL    HW126703   4.097  12.777   3.614
41643SOL    HW226704   4.140  12.815   3.754
41644SOL     OW26705   3.484   4.723   9.747
41644SOL    HW126706   3.458   4.815   9.747
41644SOL    HW226707   3.437   4.685   9.820
41645SOL     OW26708   6.405   5.282  10.403
41645SOL    HW126709   6.311   5.291  10.392
41645SOL    HW226710   6.438   5.256  10.317
41646SOL     OW26711  12.335   7.753   5.953
41646SOL    HW126712  12.297   7.667   5.934
41646SOL    HW226713  12.357   7.789   5.868
41647SOL     OW26714   9.802  14.870  11.416
41647SOL    HW126715   9.866  14.805  11.444
41647SOL    HW226716   9.774   0.035  11.497
41648SOL     OW26717  14.314  14.373   5.936
41648SOL    HW126718  14.229  14.351   5.897
41648SOL    HW226719  14.368  14.400   5.862
41649SOL     OW26720   8.879   9.553   8.992
41649SOL    HW126721   8.917   9.466   9.002
41649SOL    HW226722   8.936   9.597   8.929
41650SOL     OW26723  10.999  13.498  11.818
41650SOL    HW126724  10.921  13.443  11.822
41650SOL    HW226725  11.070  13.438  11.800
41651SOL     OW26726   3.330  13.746  11.946
41651SOL    HW126727   3.418  13.774  11.972
41651SOL    HW226728   3.343  13.664  11.898
41652SOL     OW26729  14.205   1.427   6.172
41652SOL    HW126730  14.166   1.472   6.096
41652SOL    HW226731  14.241   1.346   6.136
41653SOL     OW26732   9.814  11.541   6.480
41653SOL    HW126733   9.795  11.462   6.531
41653SOL    HW226734   9.842  11.606   6.545
41654SOL     OW26735  11.346   2.655  12.851
41654SOL    HW126736  11.349   2.639  12.757
41654SOL    HW226737  11.255   2.677  12.869
41655SOL     OW26738   2.457  10.193   7.592
41655SOL    HW126739   2.440  10.181   7.685
41655SOL    HW226740   2.536  10.143   7.575
41656SOL     OW26741   9.461   2.134   6.146
41656SOL    HW126742   9.381   2.178   6.117
41656SOL    HW226743   9.433   2.076   6.217
41657SOL     OW26744   9.700   8.664   2.254
41657SOL    HW126745   9.770   8.625   2.306
41657SOL    HW226746   9.629   8.680   2.316
41658SOL     OW26747   3.130   7.532   5.778
41658SOL    HW126748   3.051   7.490   5.745
41658SOL    HW226749   3.170   7.466   5.836
41659SOL     OW26750  14.357   2.009   5.506
41659SOL    HW126751  14.325   1.990   5.417
41659SOL    HW226752  14.333   2.101   5.521
41660SOL     OW26753  14.028  12.749  14.576
41660SOL    HW126754  14.114  12.744  14.534
41660SOL    HW226755  14.013  12.843  14.588
41661SOL     OW26756  10.197   6.800   4.851
41661SOL    HW126757  10.262   6.836   4.912
41661SOL    HW226758  10.231   6.714   4.827
41662SOL     OW26759   1.851  10.437   3.611
41662SOL    HW126760   1.779  10.498   3.629
41662SOL    HW226761   1.849  10.376   3.685
41663SOL     OW26762   8.067  12.391   2.360
41663SOL    HW126763   8.006  12.446   2.409
41663SOL    HW226764   8.064  12.306   2.404
41664SOL     OW26765   8.785   5.263   9.082
41664SOL    HW126766   8.726   5.217   9.141
41664SOL    HW226767   8.727   5.314   9.025
41665SOL     OW26768  12.099   9.266   8.553
41665SOL    HW126769  12.192   9.288   8.546
41665SOL    HW226770  12.058   9.307   8.477
41666SOL     OW26771  14.368   0.846   4.024
41666SOL    HW126772  14.315   0.848   4.103
41666SOL    HW226773  14.305   0.847   3.952
41667SOL     OW26774   4.547   6.652  12.905
41667SOL    HW126775   4.599   6.581  12.943
41667SOL    HW226776   4.529   6.623  12.816
41668SOL     OW26777   2.421  10.797  14.821
41668SOL    HW126778   2.413  10.892  14.816
41668SOL    HW226779   2.509  10.778  14.789
41669SOL     OW26780   3.575   4.092   3.504
41669SOL    HW126781   3.519   4.038   3.561
41669SOL    HW226782   3.514   4.132   3.442
41670SOL     OW26783  14.319   5.067  12.862
41670SOL    HW126784  14.409   5.034  12.861
41670SOL    HW226785  14.328   5.162  12.863
41671SOL     OW26786   0.452   2.367  14.865
41671SOL    HW126787   0.394   2.314  14.810
41671SOL    HW226788   0.409   2.452  14.869
41672SOL     OW26789   3.452   7.164  10.980
41672SOL    HW126790   3.474   7.075  11.007
41672SOL    HW226791   3.358   7.159  10.958
41673SOL     OW26792   7.992   2.478  13.905
41673SOL    HW126793   7.926   2.475  13.836
41673SOL    HW226794   7.943   2.467  13.986
41674SOL     OW26795  12.971  13.125   5.206
41674SOL    HW126796  12.920  13.156   5.131
41674SOL    HW226797  13.060  13.117   5.173
41675SOL     OW26798   6.481  11.081  14.579
41675SOL    HW126799   6.549  11.094  14.512
41675SOL    HW226800   6.482  10.986  14.594
41676SOL     OW26801   8.077   8.374  13.058
41676SOL    HW126802   8.141   8.420  13.003
41676SOL    HW226803   8.005   8.436  13.068
41677SOL     OW26804   5.510   0.887   6.931
41677SOL    HW126805   5.538   0.905   6.841
41677SOL    HW226806   5.468   0.801   6.926
41678SOL     OW26807   7.906   1.085   3.600
41678SOL    HW126808   7.992   1.115   3.632
41678SOL    HW226809   7.844   1.149   3.634
41679SOL     OW26810   1.882  12.217   7.809
41679SOL    HW126811   1.969  12.240   7.842
41679SOL    HW226812   1.889  12.231   7.714
41680SOL     OW26813  13.371  10.477  10.815
41680SOL    HW126814  13.380  10.462  10.909
41680SOL    HW226815  13.378  10.390  10.775
41681SOL     OW26816   4.757  10.651  13.852
41681SOL    HW126817   4.845  10.689  13.848
41681SOL    HW226818   4.759  10.580  13.788
41682SOL     OW26819   4.609   4.968   8.744
41682SOL    HW126820   4.626   4.876   8.729
41682SOL    HW226821   4.537   4.990   8.684
41683SOL     OW26822   6.704   9.062  12.406
41683SOL    HW126823   6.616   9.054  12.371
41683SOL    HW226824   6.760   9.026  12.338
41684SOL     OW26825  13.778  11.305   7.632
41684SOL    HW126826  13.729  11.252   7.695
41684SOL    HW226827  13.711  11.354   7.584
41685SOL     OW26828   9.132   0.704   7.599
41685SOL    HW126829   9.193   0.775   7.576
41685SOL    HW226830   9.046   0.739   7.577
41686SOL     OW26831   8.905   1.750  10.435
41686SOL    HW126832   8.857   1.773  10.356
41686SOL    HW226833   8.992   1.789  10.423
41687SOL     OW26834   1.156  13.942   0.645
41687SOL    HW126835   1.250  13.931   0.661
41687SOL    HW226836   1.129  14.011   0.705
41688SOL     OW26837   8.499   2.637   2.731
41688SOL    HW126838   8.559   2.698   2.688
41688SOL    HW226839   8.553   2.591   2.795
41689SOL     OW26840  10.004   6.292  11.700
41689SOL    HW126841  10.073   6.343  11.657
41689SOL    HW226842   9.926   6.346  11.691
41690SOL     OW26843   0.544   7.875  10.402
41690SOL    HW126844   0.476   7.818  10.437
41690SOL    HW226845   0.596   7.901  10.478
41691SOL     OW26846   7.267   1.728   3.405
41691SOL    HW126847   7.353   1.770   3.399
41691SOL    HW226848   7.270   1.679   3.487
41692SOL     OW26849   0.444   5.998  10.581
41692SOL    HW126850   0.500   5.970  10.509
41692SOL    HW226851   0.355   5.996  10.545
41693SOL     OW26852   9.737  13.868  11.510
41693SOL    HW126853   9.803  13.894  11.446
41693SOL    HW226854   9.716  13.778  11.487
41694SOL     OW26855   3.441  14.255  13.776
41694SOL    HW126856   3.476  14.263  13.865
41694SOL    HW226857   3.401  14.169  13.773
41695SOL     OW26858   9.965   8.508   8.471
41695SOL    HW126859   9.909   8.443   8.514
41695SOL    HW226860   9.909   8.547   8.404
41696SOL     OW26861   3.266   7.969   2.743
41696SOL    HW126862   3.341   7.988   2.688
41696SOL    HW226863   3.193   7.958   2.682
41697SOL     OW26864   1.993  14.520   2.802
41697SOL    HW126865   2.005  14.609   2.836
41697SOL    HW226866   2.061  14.510   2.735
41698SOL     OW26867   3.074  11.047   9.715
41698SOL    HW126868   3.100  10.988   9.786
41698SOL    HW226869   3.150  11.052   9.658
41699SOL     OW26870   1.320   1.159   3.720
41699SOL    HW126871   1.262   1.197   3.654
41699SOL    HW226872   1.398   1.132   3.671
41700SOL     OW26873  13.259  14.201   0.879
41700SOL    HW126874  13.265  14.243   0.793
41700SOL    HW226875  13.316  14.124   0.872
41701SOL     OW26876   8.969   1.768   2.438
41701SOL    HW126877   8.890   1.714   2.432
41701SOL    HW226878   8.936   1.856   2.455
41702SOL     OW26879  13.939   5.734   7.820
41702SOL    HW126880  13.913   5.800   7.756
41702SOL    HW226881  13.906   5.767   7.903
41703SOL     OW26882  13.764   1.486   6.859
41703SOL    HW126883  13.738   1.543   6.786
41703SOL    HW226884  13.816   1.417   6.818
41704SOL     OW26885   8.035   1.838  10.788
41704SOL    HW126886   8.126   1.829  10.815
41704SOL    HW226887   7.994   1.888  10.858
41705SOL     OW26888  11.860   7.485  10.356
41705SOL    HW126889  11.918   7.518  10.287
41705SOL    HW226890  11.772   7.488  10.318
41706SOL     OW26891  11.089  12.835   0.962
41706SOL    HW126892  11.134  12.777   1.024
41706SOL    HW226893  11.120  12.923   0.984
41707SOL     OW26894   6.364   6.473   8.976
41707SOL    HW126895   6.366   6.568   8.975
41707SOL    HW226896   6.454   6.447   8.955
41708SOL     OW26897  12.622   3.132   7.375
41708SOL    HW126898  12.659   3.218   7.354
41708SOL    HW226899  12.617   3.130   7.470
41709SOL     OW26900   7.192  11.656   6.184
41709SOL    HW126901   7.148  11.574   6.208
41709SOL    HW226902   7.122  11.714   6.156
41710SOL     OW26903  11.255   0.650   5.087
41710SOL    HW126904  11.210   0.720   5.133
41710SOL    HW226905  11.334   0.634   5.138
41711SOL     OW26906   0.583   4.467   0.925
41711SOL    HW126907   0.505   4.511   0.958
41711SOL    HW226908   0.653   4.492   0.985
41712SOL     OW26909   1.298   0.208   6.454
41712SOL    HW126910   1.255   0.122   6.463
41712SOL    HW226911   1.225   0.270   6.446
41713SOL     OW26912   9.890  11.030   6.718
41713SOL    HW126913   9.890  11.120   6.686
41713SOL    HW226914   9.815  10.990   6.675
41714SOL     OW26915   0.709   3.052   8.613
41714SOL    HW126916   0.731   3.122   8.675
41714SOL    HW226917   0.638   3.004   8.656
41715SOL     OW26918   4.078   6.051   2.957
41715SOL    HW126919   4.037   6.130   2.922
41715SOL    HW226920   4.082   6.067   3.051
41716SOL     OW26921   0.355  10.799   6.007
41716SOL    HW126922   0.414  10.753   5.948
41716SOL    HW226923   0.398  10.882   6.026
41717SOL     OW26924   0.756   5.497  14.875
41717SOL    HW126925   0.767   5.560  14.804
41717SOL    HW226926   0.791   5.541   0.074
41718SOL     OW26927   7.473   3.882   1.194
41718SOL    HW126928   7.416   3.805   1.192
41718SOL    HW226929   7.418   3.953   1.227
41719SOL     OW26930  12.494   6.048  11.332
41719SOL    HW126931  12.499   6.062  11.427
41719SOL    HW226932  12.541   5.966  11.318
41720SOL     OW26933   0.072   4.637   6.627
41720SOL    HW126934   0.023   4.701   6.679
41720SOL    HW226935   0.151   4.683   6.599
41721SOL     OW26936  10.651   0.339  13.231
41721SOL    HW126937  10.593   0.346  13.306
41721SOL    HW226938  10.730   0.298  13.266
41722SOL     OW26939   0.618  11.106   4.454
41722SOL    HW126940   0.693  11.118   4.397
41722SOL    HW226941   0.643  11.147   4.537
41723SOL     OW26942   9.141  10.645  10.721
41723SOL    HW126943   9.201  10.716  10.699
41723SOL    HW226944   9.169  10.615  10.807
41724SOL     OW26945   7.214   6.314  11.305
41724SOL    HW126946   7.224   6.318  11.400
41724SOL    HW226947   7.126   6.349  11.288
41725SOL     OW26948   0.123   6.285   9.019
41725SOL    HW126949   0.093   6.195   9.029
41725SOL    HW226950   0.052   6.338   9.055
41726SOL     OW26951   9.069  12.709   3.183
41726SOL    HW126952   9.095  12.729   3.093
41726SOL    HW226953   9.070  12.614   3.187
41727SOL     OW26954   4.616   6.544   7.515
41727SOL    HW126955   4.547   6.602   7.481
41727SOL    HW226956   4.646   6.495   7.439
41728SOL     OW26957  11.277   1.349  14.239
41728SOL    HW126958  11.240   1.404  14.169
41728SOL    HW226959  11.281   1.407  14.315
41729SOL     OW26960  10.341   2.098  12.868
41729SOL    HW126961  10.378   2.161  12.930
41729SOL    HW226962  10.247   2.107  12.877
41730SOL     OW26963   2.565   4.321   0.886
41730SOL    HW126964   2.604   4.364   0.810
41730SOL    HW226965   2.484   4.283   0.852
41731SOL     OW26966  12.658   0.916   8.988
41731SOL    HW126967  12.663   0.979   9.060
41731SOL    HW226968  12.635   0.834   9.030
41732SOL     OW26969  10.036   4.452   6.786
41732SOL    HW126970  10.048   4.484   6.696
41732SOL    HW226971  10.055   4.527   6.841
41733SOL     OW26972  12.304   6.932   4.672
41733SOL    HW126973  12.272   6.848   4.703
41733SOL    HW226974  12.399   6.922   4.669
41734SOL     OW26975   6.811   5.712  13.652
41734SOL    HW126976   6.814   5.685  13.560
41734SOL    HW226977   6.778   5.802  13.649
41735SOL     OW26978  12.690  14.063   5.188
41735SOL    HW126979  12.704  14.016   5.105
41735SOL    HW226980  12.737  14.011   5.253
41736SOL     OW26981   4.390   6.593   0.774
41736SOL    HW126982   4.338   6.544   0.711
41736SOL    HW226983   4.413   6.674   0.729
41737SOL     OW26984   4.020   8.422   7.097
41737SOL    HW126985   4.067   8.377   7.027
41737SOL    HW226986   4.001   8.509   7.061
41738SOL     OW26987   4.909   0.643  13.941
41738SOL    HW126988   4.847   0.675  14.007
41738SOL    HW226989   4.992   0.685  13.965
41739SOL     OW26990   2.265   5.662   1.371
41739SOL    HW126991   2.323   5.738   1.374
41739SOL    HW226992   2.184   5.691   1.414
41740SOL     OW26993   2.892   3.806  11.432
41740SOL    HW126994   2.950   3.877  11.406
41740SOL    HW226995   2.845   3.840  11.508
41741SOL     OW26996   4.597   2.252   0.793
41741SOL    HW126997   4.555   2.331   0.826
41741SOL    HW226998   4.575   2.184   0.858
41742SOL     OW26999   5.210   3.322   4.547
41742SOL    HW127000   5.189   3.349   4.458
41742SOL    HW227001   5.304   3.306   4.545
41743SOL     OW27002   8.235   3.373  13.383
41743SOL    HW127003   8.313   3.388  13.438
41743SOL    HW227004   8.170   3.337  13.443
41744SOL     OW27005  14.487   3.725  10.611
41744SOL    HW127006  14.583   3.719  10.609
41744SOL    HW227007  14.458   3.639  10.639
41745SOL     OW27008  10.115  13.327   9.175
41745SOL    HW127009  10.137  13.255   9.116
41745SOL    HW227010  10.196  13.378   9.182
41746SOL     OW27011  13.716   4.132   1.317
41746SOL    HW127012  13.627   4.104   1.298
41746SOL    HW227013  13.764   4.050   1.331
41747SOL     OW27014  13.725   7.684   8.901
41747SOL    HW127015  13.690   7.599   8.873
41747SOL    HW227016  13.812   7.689   8.862
41748SOL     OW27017   3.312   3.559   8.198
41748SOL    HW127018   3.303   3.554   8.103
41748SOL    HW227019   3.344   3.648   8.214
41749SOL     OW27020   1.049   1.455   7.016
41749SOL    HW127021   1.131   1.426   7.056
41749SOL    HW227022   1.069   1.461   6.922
41750SOL     OW27023   3.193   5.094   9.276
41750SOL    HW127024   3.250   5.084   9.199
41750SOL    HW227025   3.184   5.188   9.287
41751SOL     OW27026   2.932   6.637   8.873
41751SOL    HW127027   2.913   6.552   8.911
41751SOL    HW227028   3.018   6.627   8.831
41752SOL     OW27029   4.650  14.257   3.466
41752SOL    HW127030   4.622  14.269   3.376
41752SOL    HW227031   4.641  14.344   3.506
41753SOL     OW27032  12.839   4.942   9.360
41753SOL    HW127033  12.805   5.018   9.314
41753SOL    HW227034  12.933   4.960   9.369
41754SOL     OW27035   1.727  14.780   3.240
41754SOL    HW127036   1.755  14.788   3.331
41754SOL    HW227037   1.735  14.686   3.220
41755SOL     OW27038   0.221   3.253  12.702
41755SOL    HW127039   0.206   3.207  12.619
41755SOL    HW227040   0.263   3.335  12.676
41756SOL     OW27041   2.097   6.442  14.814
41756SOL    HW127042   2.012   6.469  14.850
41756SOL    HW227043   2.076   6.377  14.747
41757SOL     OW27044  12.440   6.694   2.699
41757SOL    HW127045  12.457   6.759   2.631
41757SOL    HW227046  12.457   6.740   2.781
41758SOL     OW27047   8.078   1.538   0.595
41758SOL    HW127048   8.146   1.544   0.662
41758SOL    HW227049   8.097   1.457   0.548
41759SOL     OW27050  10.628  14.456   0.890
41759SOL    HW127051  10.632  14.421   0.979
41759SOL    HW227052  10.671  14.541   0.895
41760SOL     OW27053   1.949  12.064  12.134
41760SOL    HW127054   1.944  12.008  12.211
41760SOL    HW227055   2.042  12.080  12.122
41761SOL     OW27056   0.798  10.748   5.646
41761SOL    HW127057   0.816  10.786   5.559
41761SOL    HW227058   0.793  10.654   5.630
41762SOL     OW27059   1.443   2.861   9.483
41762SOL    HW127060   1.441   2.957   9.486
41762SOL    HW227061   1.351   2.835   9.494
41763SOL     OW27062  10.097  10.067   3.100
41763SOL    HW127063  10.185  10.048   3.133
41763SOL    HW227064  10.040  10.006   3.148
41764SOL     OW27065  14.247  13.178   2.068
41764SOL    HW127066  14.239  13.111   2.001
41764SOL    HW227067  14.177  13.159   2.130
41765SOL     OW27068   6.758  13.129   4.749
41765SOL    HW127069   6.772  13.062   4.816
41765SOL    HW227070   6.843  13.138   4.706
41766SOL     OW27071   3.979   3.580   2.448
41766SOL    HW127072   3.905   3.522   2.465
41766SOL    HW227073   4.016   3.599   2.534
41767SOL     OW27074  10.062  11.942   7.032
41767SOL    HW127075  10.075  12.006   6.962
41767SOL    HW227076   9.991  11.979   7.084
41768SOL     OW27077   8.352   9.517   8.740
41768SOL    HW127078   8.333   9.434   8.698
41768SOL    HW227079   8.356   9.496   8.833
41769SOL     OW27080   1.511   9.622   3.525
41769SOL    HW127081   1.496   9.704   3.478
41769SOL    HW227082   1.590   9.585   3.486
41770SOL     OW27083   3.895   3.096   9.268
41770SOL    HW127084   3.960   3.135   9.327
41770SOL    HW227085   3.945   3.041   9.209
41771SOL     OW27086  10.694  12.254   7.993
41771SOL    HW127087  10.753  12.179   7.996
41771SOL    HW227088  10.637  12.243   8.069
41772SOL     OW27089   0.092  13.232  14.474
41772SOL    HW127090   0.140  13.285  14.411
41772SOL    HW227091   0.149  13.228  14.551
41773SOL     OW27092  10.246   3.121   5.542
41773SOL    HW127093  10.233   3.026   5.549
41773SOL    HW227094  10.341   3.132   5.553
41774SOL     OW27095  10.591  14.238   9.728
41774SOL    HW127096  10.675  14.239   9.775
41774SOL    HW227097  10.610  14.277   9.643
41775SOL     OW27098   0.839  12.190   7.668
41775SOL    HW127099   0.811  12.280   7.683
41775SOL    HW227100   0.804  12.142   7.743
41776SOL     OW27101   3.505  12.724   2.927
41776SOL    HW127102   3.418  12.760   2.911
41776SOL    HW227103   3.524  12.670   2.850
41777SOL     OW27104  13.117  13.721   8.057
41777SOL    HW127105  13.063  13.800   8.056
41777SOL    HW227106  13.057  13.650   8.080
41778SOL     OW27107  13.810  12.265   4.157
41778SOL    HW127108  13.858  12.300   4.232
41778SOL    HW227109  13.803  12.338   4.096
41779SOL     OW27110  10.372  13.577   2.014
41779SOL    HW127111  10.285  13.604   2.043
41779SOL    HW227112  10.422  13.658   2.009
41780SOL     OW27113   8.224  13.758   5.321
41780SOL    HW127114   8.259  13.822   5.384
41780SOL    HW227115   8.291  13.690   5.316
41781SOL     OW27116  11.145   2.241   7.450
41781SOL    HW127117  11.220   2.195   7.486
41781SOL    HW227118  11.092   2.266   7.526
41782SOL     OW27119  13.201  10.643   2.663
41782SOL    HW127120  13.248  10.651   2.746
41782SOL    HW227121  13.168  10.553   2.663
41783SOL     OW27122  11.443  14.817   8.597
41783SOL    HW127123  11.381  14.875   8.552
41783SOL    HW227124  11.484  14.872   8.663
41784SOL     OW27125   3.364   9.779  10.330
41784SOL    HW127126   3.411   9.856  10.298
41784SOL    HW227127   3.274   9.793  10.302
41785SOL     OW27128   0.216   9.977   9.182
41785SOL    HW127129   0.190  10.042   9.117
41785SOL    HW227130   0.176  10.007   9.263
41786SOL     OW27131   8.701   9.299   8.225
41786SOL    HW127132   8.742   9.307   8.311
41786SOL    HW227133   8.676   9.388   8.202
41787SOL     OW27134  14.724   0.023   5.773
41787SOL    HW127135  14.751  14.843   5.844
41787SOL    HW227136  14.676  14.844   5.712
41788SOL     OW27137   4.366   3.374   4.065
41788SOL    HW127138   4.296   3.358   4.128
41788SOL    HW227139   4.380   3.469   4.069
41789SOL     OW27140  12.522   0.767  13.083
41789SOL    HW127141  12.558   0.836  13.027
41789SOL    HW227142  12.436   0.749  13.046
41790SOL     OW27143   4.903   7.456   9.329
41790SOL    HW127144   4.944   7.525   9.276
41790SOL    HW227145   4.891   7.383   9.268
41791SOL     OW27146   3.205   7.078   5.654
41791SOL    HW127147   3.120   7.099   5.692
41791SOL    HW227148   3.213   6.983   5.664
41792SOL     OW27149   1.379  11.319   6.048
41792SOL    HW127150   1.286  11.339   6.049
41792SOL    HW227151   1.411  11.347   6.134
41793SOL     OW27152  13.716   7.481   7.102
41793SOL    HW127153  13.650   7.426   7.061
41793SOL    HW227154  13.726   7.445   7.190
41794SOL     OW27155   3.987   2.487   5.152
41794SOL    HW127156   4.059   2.504   5.212
41794SOL    HW227157   3.925   2.558   5.168
41795SOL     OW27158   6.775   9.973   8.034
41795SOL    HW127159   6.839   9.970   7.963
41795SOL    HW227160   6.768   9.883   8.065
41796SOL     OW27161   1.384   5.416  13.806
41796SOL    HW127162   1.361   5.367  13.886
41796SOL    HW227163   1.478   5.427  13.812
41797SOL     OW27164   2.194  11.638   3.268
41797SOL    HW127165   2.273  11.642   3.322
41797SOL    HW227166   2.223  11.597   3.186
41798SOL     OW27167   1.196  10.118   3.023
41798SOL    HW127168   1.167  10.034   3.059
41798SOL    HW227169   1.141  10.131   2.945
41799SOL     OW27170  11.860   9.254   1.441
41799SOL    HW127171  11.882   9.163   1.462
41799SOL    HW227172  11.824   9.249   1.352
41800SOL     OW27173   5.907   6.302  11.371
41800SOL    HW127174   5.847   6.228  11.364
41800SOL    HW227175   5.992   6.263  11.390
41801SOL     OW27176   2.496  11.747  13.712
41801SOL    HW127177   2.495  11.714  13.802
41801SOL    HW227178   2.546  11.682  13.663
41802SOL     OW27179   4.679  13.883  10.136
41802SOL    HW127180   4.650  13.840  10.055
41802SOL    HW227181   4.627  13.843  10.205
41803SOL     OW27182  14.580  14.674  11.329
41803SOL    HW127183  14.568  14.732  11.254
41803SOL    HW227184  14.555  14.726  11.405
41804SOL     OW27185  10.488   5.628   2.111
41804SOL    HW127186  10.437   5.554   2.079
41804SOL    HW227187  10.423   5.697   2.127
41805SOL     OW27188   5.972   5.843   4.272
41805SOL    HW127189   6.012   5.824   4.187
41805SOL    HW227190   5.897   5.784   4.276
41806SOL     OW27191   6.685   4.728   3.490
41806SOL    HW127192   6.618   4.661   3.502
41806SOL    HW227193   6.765   4.688   3.524
41807SOL     OW27194   8.803   3.973  10.652
41807SOL    HW127195   8.765   4.027  10.583
41807SOL    HW227196   8.794   4.027  10.731
41808SOL     OW27197  13.680  11.554   6.262
41808SOL    HW127198  13.682  11.471   6.214
41808SOL    HW227199  13.623  11.610   6.209
41809SOL     OW27200   1.920   2.088  10.671
41809SOL    HW127201   1.936   2.163  10.614
41809SOL    HW227202   1.993   2.091  10.734
41810SOL     OW27203  11.655  12.043   9.291
41810SOL    HW127204  11.677  12.112   9.354
41810SOL    HW227205  11.560  12.046   9.285
41811SOL     OW27206  14.184   8.485   8.138
41811SOL    HW127207  14.131   8.551   8.095
41811SOL    HW227208  14.266   8.530   8.160
41812SOL     OW27209   5.651  12.693   5.619
41812SOL    HW127210   5.655  12.784   5.649
41812SOL    HW227211   5.588  12.651   5.677
41813SOL     OW27212   7.256  14.257   6.752
41813SOL    HW127213   7.341  14.275   6.792
41813SOL    HW227214   7.217  14.343   6.738
41814SOL     OW27215  14.768   6.148  14.174
41814SOL    HW127216  14.774   6.128  14.081
41814SOL    HW227217  14.694   6.096  14.205
41815SOL     OW27218   4.455  12.368  11.562
41815SOL    HW127219   4.360  12.370  11.558
41815SOL    HW227220   4.475  12.283  11.603
41816SOL     OW27221   0.368  10.708  13.144
41816SOL    HW127222   0.297  10.769  13.123
41816SOL    HW227223   0.324  10.624  13.154
41817SOL     OW27224   6.896   0.888  14.126
41817SOL    HW127225   6.922   0.843  14.206
41817SOL    HW227226   6.873   0.818  14.065
41818SOL     OW27227   9.511   1.819  13.811
41818SOL    HW127228   9.451   1.744  13.811
41818SOL    HW227229   9.590   1.786  13.767
41819SOL     OW27230  10.755   5.070   0.750
41819SOL    HW127231  10.848   5.057   0.769
41819SOL    HW227232  10.752   5.147   0.694
41820SOL     OW27233   3.697  10.683   5.888
41820SOL    HW127234   3.759  10.620   5.926
41820SOL    HW227235   3.622  10.681   5.948
41821SOL     OW27236  10.188   0.033  12.232
41821SOL    HW127237  10.166   0.010  12.141
41821SOL    HW227238  10.114  14.877  12.283
41822SOL     OW27239  10.294  11.802   5.857
41822SOL    HW127240  10.272  11.883   5.812
41822SOL    HW227241  10.323  11.743   5.788
41823SOL     OW27242   9.897  10.245   5.053
41823SOL    HW127243   9.935  10.215   5.136
41823SOL    HW227244   9.869  10.335   5.071
41824SOL     OW27245   0.551  13.016   4.310
41824SOL    HW127246   0.569  13.101   4.269
41824SOL    HW227247   0.559  12.953   4.239
41825SOL     OW27248   3.600  12.461   3.497
41825SOL    HW127249   3.584  12.423   3.584
41825SOL    HW227250   3.689  12.435   3.475
41826SOL     OW27251  12.175  12.636  13.131
41826SOL    HW127252  12.084  12.665  13.128
41826SOL    HW227253  12.226  12.717  13.141
41827SOL     OW27254  11.091   3.195   0.302
41827SOL    HW127255  11.180   3.187   0.337
41827SOL    HW227256  11.036   3.205   0.380
41828SOL     OW27257  10.596  13.516   3.029
41828SOL    HW127258  10.653  13.449   3.067
41828SOL    HW227259  10.634  13.532   2.942
41829SOL     OW27260   5.849   2.261   2.613
41829SOL    HW127261   5.780   2.327   2.624
41829SOL    HW227262   5.807   2.179   2.640
41830SOL     OW27263   8.325   5.810   1.825
41830SOL    HW127264   8.419   5.799   1.834
41830SOL    HW227265   8.297   5.736   1.772
41831SOL     OW27266   1.355   1.702  14.143
41831SOL    HW127267   1.355   1.667  14.232
41831SOL    HW227268   1.445   1.692  14.113
41832SOL     OW27269   2.297   6.160   5.972
41832SOL    HW127270   2.275   6.119   6.056
41832SOL    HW227271   2.221   6.140   5.916
41833SOL     OW27272   5.388  11.616  13.482
41833SOL    HW127273   5.471  11.636  13.526
41833SOL    HW227274   5.413  11.572  13.401
41834SOL     OW27275   0.606  12.665  12.029
41834SOL    HW127276   0.516  12.643  12.053
41834SOL    HW227277   0.660  12.602  12.076
41835SOL     OW27278   3.838   5.093   0.613
41835SOL    HW127279   3.928   5.105   0.645
41835SOL    HW227280   3.848   5.037   0.536
41836SOL     OW27281   0.917   9.602   4.407
41836SOL    HW127282   0.857   9.528   4.398
41836SOL    HW227283   1.001   9.569   4.378
41837SOL     OW27284   1.284  10.604   8.071
41837SOL    HW127285   1.229  10.670   8.030
41837SOL    HW227286   1.354  10.653   8.114
41838SOL     OW27287   3.672   3.345   6.806
41838SOL    HW127288   3.724   3.295   6.744
41838SOL    HW227289   3.675   3.293   6.887
41839SOL     OW27290  13.401   9.661  13.518
41839SOL    HW127291  13.388   9.654  13.423
41839SOL    HW227292  13.373   9.750  13.540
41840SOL     OW27293  12.956  10.995   6.584
41840SOL    HW127294  13.026  11.058   6.564
41840SOL    HW227295  12.885  11.019   6.524
41841SOL     OW27296   9.778  10.442   9.457
41841SOL    HW127297   9.705  10.399   9.412
41841SOL    HW227298   9.827  10.369   9.495
41842SOL     OW27299  14.521  14.091  10.450
41842SOL    HW127300  14.449  14.029  10.442
41842SOL    HW227301  14.478  14.174  10.473
41843SOL     OW27302   3.119   7.059   8.086
41843SOL    HW127303   3.129   7.018   8.171
41843SOL    HW227304   3.038   7.110   8.093
41844SOL     OW27305   2.515   9.759   9.483
41844SOL    HW127306   2.435   9.748   9.431
41844SOL    HW227307   2.555   9.839   9.449
41845SOL     OW27308   5.826  13.151   1.870
41845SOL    HW127309   5.904  13.104   1.900
41845SOL    HW227310   5.763  13.142   1.942
41846SOL     OW27311  13.592   0.672   5.209
41846SOL    HW127312  13.497   0.669   5.207
41846SOL    HW227313  13.616   0.728   5.136
41847SOL     OW27314  13.789   4.207   6.786
41847SOL    HW127315  13.852   4.272   6.819
41847SOL    HW227316  13.738   4.182   6.863
41848SOL     OW27317  14.181  12.386   5.392
41848SOL    HW127318  14.129  12.326   5.338
41848SOL    HW227319  14.199  12.460   5.335
41849SOL     OW27320   9.275   0.131   7.061
41849SOL    HW127321   9.287   0.088   7.145
41849SOL    HW227322   9.285   0.224   7.080
41850SOL     OW27323   0.023   8.615   7.448
41850SOL    HW127324   0.048   8.676   7.517
41850SOL    HW227325  14.825   8.655   7.406
41851SOL     OW27326  10.751   8.517   1.362
41851SOL    HW127327  10.735   8.520   1.267
41851SOL    HW227328  10.771   8.607   1.386
41852SOL     OW27329   7.410   5.609   0.229
41852SOL    HW127330   7.451   5.673   0.287
41852SOL    HW227331   7.483   5.573   0.179
41853SOL     OW27332   9.047  14.239  10.161
41853SOL    HW127333   9.030  14.310  10.224
41853SOL    HW227334   9.134  14.208  10.185
41854SOL     OW27335  11.156   9.305  13.445
41854SOL    HW127336  11.076   9.284  13.494
41854SOL    HW227337  11.227   9.284  13.504
41855SOL     OW27338  10.104   4.161  13.217
41855SOL    HW127339  10.019   4.143  13.257
41855SOL    HW227340  10.087   4.230  13.152
41856SOL     OW27341   7.699  12.947   9.406
41856SOL    HW127342   7.759  13.004   9.357
41856SOL    HW227343   7.747  12.865   9.415
41857SOL     OW27344  11.072  13.476   4.052
41857SOL    HW127345  10.985  13.466   4.014
41857SOL    HW227346  11.131  13.471   3.977
41858SOL     OW27347  11.890   8.342  12.843
41858SOL    HW127348  11.870   8.260  12.799
41858SOL    HW227349  11.826   8.347  12.914
41859SOL     OW27350   3.348   1.559  12.110
41859SOL    HW127351   3.333   1.592  12.199
41859SOL    HW227352   3.288   1.610  12.056
41860SOL     OW27353   3.281  11.897   1.471
41860SOL    HW127354   3.191  11.867   1.460
41860SOL    HW227355   3.320  11.888   1.385
41861SOL     OW27356  10.677   3.550   1.219
41861SOL    HW127357  10.754   3.567   1.273
41861SOL    HW227358  10.661   3.633   1.174
41862SOL     OW27359   7.813  14.413  11.860
41862SOL    HW127360   7.739  14.381  11.912
41862SOL    HW227361   7.890  14.378  11.905
41863SOL     OW27362   4.895   1.724   4.497
41863SOL    HW127363   4.810   1.711   4.454
41863SOL    HW227364   4.904   1.819   4.504
41864SOL     OW27365   1.635   8.132   3.554
41864SOL    HW127366   1.602   8.043   3.571
41864SOL    HW227367   1.642   8.170   3.641
41865SOL     OW27368   5.978   6.070   6.923
41865SOL    HW127369   6.034   6.036   6.993
41865SOL    HW227370   5.899   6.101   6.968
41866SOL     OW27371  11.806   4.540   9.921
41866SOL    HW127372  11.722   4.517   9.961
41866SOL    HW227373  11.869   4.478   9.958
41867SOL     OW27374   7.991  14.280   2.674
41867SOL    HW127375   8.084  14.288   2.653
41867SOL    HW227376   7.955  14.368   2.656
41868SOL     OW27377  10.242   2.786   6.162
41868SOL    HW127378  10.328   2.748   6.143
41868SOL    HW227379  10.258   2.847   6.234
41869SOL     OW27380   6.440  12.389  11.867
41869SOL    HW127381   6.405  12.372  11.779
41869SOL    HW227382   6.397  12.323  11.922
41870SOL     OW27383   8.729   1.820   3.111
41870SOL    HW127384   8.764   1.907   3.129
41870SOL    HW227385   8.685   1.829   3.026
41871SOL     OW27386  10.398  10.938  12.071
41871SOL    HW127387  10.364  10.887  11.997
41871SOL    HW227388  10.470  10.885  12.105
41872SOL     OW27389  14.405  14.381   0.636
41872SOL    HW127390  14.497  14.357   0.647
41872SOL    HW227391  14.386  14.362   0.545
41873SOL     OW27392   9.195   3.421   5.879
41873SOL    HW127393   9.282   3.450   5.853
41873SOL    HW227394   9.137   3.454   5.810
41874SOL     OW27395   5.236  13.701   1.092
41874SOL    HW127396   5.224  13.704   1.186
41874SOL    HW227397   5.330  13.687   1.080
41875SOL     OW27398   6.865   3.643   6.947
41875SOL    HW127399   6.901   3.556   6.966
41875SOL    HW227400   6.882   3.655   6.853
41876SOL     OW27401   4.002   1.963   0.537
41876SOL    HW127402   3.912   1.980   0.563
41876SOL    HW227403   4.047   2.046   0.552
41877SOL     OW27404   4.757   3.221  13.368
41877SOL    HW127405   4.702   3.292  13.401
41877SOL    HW227406   4.819   3.204  13.439
41878SOL     OW27407   5.024  10.298   4.087
41878SOL    HW127408   5.104  10.277   4.135
41878SOL    HW227409   4.973  10.352   4.147
41879SOL     OW27410   6.596  12.584  11.729
41879SOL    HW127411   6.645  12.526  11.670
41879SOL    HW227412   6.550  12.524  11.788
41880SOL     OW27413   9.674   1.686  13.105
41880SOL    HW127414   9.661   1.641  13.021
41880SOL    HW227415   9.587   1.689  13.144
41881SOL     OW27416  14.361  13.050   6.475
41881SOL    HW127417  14.422  13.033   6.403
41881SOL    HW227418  14.325  12.965   6.498
41882SOL     OW27419   7.869   3.285  11.288
41882SOL    HW127420   7.844   3.369  11.250
41882SOL    HW227421   7.787   3.245  11.317
41883SOL     OW27422   6.700   2.811   3.399
41883SOL    HW127423   6.704   2.731   3.347
41883SOL    HW227424   6.784   2.855   3.383
41884SOL     OW27425  11.691   1.010   5.031
41884SOL    HW127426  11.631   1.000   4.957
41884SOL    HW227427  11.770   1.050   4.993
41885SOL     OW27428  10.573   1.701   0.699
41885SOL    HW127429  10.497   1.650   0.727
41885SOL    HW227430  10.582   1.681   0.605
41886SOL     OW27431   1.150   5.773  10.639
41886SOL    HW127432   1.073   5.805  10.686
41886SOL    HW227433   1.220   5.833  10.666
41887SOL     OW27434   5.820   7.571   8.708
41887SOL    HW127435   5.870   7.650   8.732
41887SOL    HW227436   5.797   7.585   8.616
41888SOL     OW27437   2.235   4.784  14.383
41888SOL    HW127438   2.165   4.759  14.443
41888SOL    HW227439   2.307   4.812  14.441
41889SOL     OW27440  14.786   4.300   3.143
41889SOL    HW127441  14.848   4.228   3.156
41889SOL    HW227442  14.770   4.301   3.048
41890SOL     OW27443   1.614   5.876   5.446
41890SOL    HW127444   1.521   5.857   5.449
41890SOL    HW227445   1.647   5.848   5.532
41891SOL     OW27446   3.771  11.777   7.966
41891SOL    HW127447   3.714  11.851   7.944
41891SOL    HW227448   3.794  11.738   7.882
41892SOL     OW27449  10.435  11.193   4.090
41892SOL    HW127450  10.492  11.263   4.057
41892SOL    HW227451  10.349  11.214   4.055
41893SOL     OW27452   5.489  11.089  13.095
41893SOL    HW127453   5.465  11.180  13.076
41893SOL    HW227454   5.573  11.096  13.140
41894SOL     OW27455   5.392  10.305   6.454
41894SOL    HW127456   5.415  10.212   6.461
41894SOL    HW227457   5.383  10.320   6.360
41895SOL     OW27458   6.317   5.584  10.564
41895SOL    HW127459   6.368   5.507  10.541
41895SOL    HW227460   6.363   5.657  10.523
41896SOL     OW27461   9.967  12.088   4.821
41896SOL    HW127462  10.062  12.091   4.825
41896SOL    HW227463   9.939  12.083   4.913
41897SOL     OW27464  12.416  11.401   2.545
41897SOL    HW127465  12.410  11.477   2.603
41897SOL    HW227466  12.471  11.339   2.592
41898SOL     OW27467   7.155  13.354   7.793
41898SOL    HW127468   7.235  13.406   7.794
41898SOL    HW227469   7.170  13.284   7.857
41899SOL     OW27470   7.328   8.397   0.192
41899SOL    HW127471   7.255   8.403   0.130
41899SOL    HW227472   7.286   8.386   0.278
41900SOL     OW27473   4.716   6.780   5.536
41900SOL    HW127474   4.804   6.805   5.509
41900SOL    HW227475   4.658   6.818   5.469
41901SOL     OW27476  13.516   7.054   8.569
41901SOL    HW127477  13.438   7.037   8.516
41901SOL    HW227478  13.512   6.988   8.639
41902SOL     OW27479  13.311   8.174   8.165
41902SOL    HW127480  13.361   8.133   8.236
41902SOL    HW227481  13.361   8.152   8.086
41903SOL     OW27482  14.280   4.820   4.849
41903SOL    HW127483  14.262   4.736   4.807
41903SOL    HW227484  14.245   4.810   4.937
41904SOL     OW27485   3.999  14.764   2.853
41904SOL    HW127486   3.979  14.848   2.894
41904SOL    HW227487   3.966  14.699   2.914
41905SOL     OW27488   9.778   8.814  11.237
41905SOL    HW127489   9.695   8.853  11.263
41905SOL    HW227490   9.832   8.817  11.316
41906SOL     OW27491   9.145   4.211   2.919
41906SOL    HW127492   9.128   4.283   2.980
41906SOL    HW227493   9.097   4.235   2.840
41907SOL     OW27494   3.829   2.819  12.370
41907SOL    HW127495   3.907   2.779  12.409
41907SOL    HW227496   3.807   2.761  12.297
41908SOL     OW27497   4.763   7.859   6.750
41908SOL    HW127498   4.755   7.765   6.734
41908SOL    HW227499   4.705   7.899   6.685
41909SOL     OW27500   8.828   9.885   4.166
41909SOL    HW127501   8.781   9.952   4.216
41909SOL    HW227502   8.798   9.898   4.076
41910SOL     OW27503   0.384  10.325   2.594
41910SOL    HW127504   0.446  10.378   2.544
41910SOL    HW227505   0.320  10.388   2.629
41911SOL     OW27506   4.082   9.324  11.062
41911SOL    HW127507   4.082   9.229  11.070
41911SOL    HW227508   4.172   9.346  11.038
41912SOL     OW27509   1.334  13.753  11.565
41912SOL    HW127510   1.292  13.802  11.495
41912SOL    HW227511   1.384  13.684  11.521
41913SOL     OW27512   3.075   8.699   0.690
41913SOL    HW127513   2.995   8.725   0.735
41913SOL    HW227514   3.121   8.643   0.753
41914SOL     OW27515  12.017   3.282   8.483
41914SOL    HW127516  12.021   3.377   8.468
41914SOL    HW227517  12.090   3.247   8.432
41915SOL     OW27518   5.291  11.027   4.951
41915SOL    HW127519   5.357  11.042   4.883
41915SOL    HW227520   5.341  10.999   5.028
41916SOL     OW27521   4.387  12.783   4.609
41916SOL    HW127522   4.334  12.745   4.540
41916SOL    HW227523   4.325  12.807   4.677
41917SOL     OW27524  14.215   8.453   6.657
41917SOL    HW127525  14.197   8.486   6.745
41917SOL    HW227526  14.209   8.358   6.665
41918SOL     OW27527  11.161   8.458   0.530
41918SOL    HW127528  11.181   8.551   0.527
41918SOL    HW227529  11.202   8.422   0.451
41919SOL     OW27530   2.739   3.535  11.824
41919SOL    HW127531   2.817   3.587  11.839
41919SOL    HW227532   2.758   3.483  11.746
41920SOL     OW27533  10.062   7.684  12.503
41920SOL    HW127534   9.994   7.625  12.533
41920SOL    HW227535  10.127   7.685  12.574
41921SOL     OW27536   6.716   4.899   0.735
41921SOL    HW127537   6.695   4.807   0.723
41921SOL    HW227538   6.722   4.910   0.830
41922SOL     OW27539   4.767   7.510   8.751
41922SOL    HW127540   4.800   7.497   8.661
41922SOL    HW227541   4.846   7.527   8.802
41923SOL     OW27542   7.006   1.953   9.141
41923SOL    HW127543   7.071   1.966   9.211
41923SOL    HW227544   7.000   1.858   9.131
41924SOL     OW27545  11.575  12.640  12.432
41924SOL    HW127546  11.588  12.632  12.526
41924SOL    HW227547  11.496  12.589  12.414
41925SOL     OW27548   7.778  10.965  14.068
41925SOL    HW127549   7.844  11.000  14.127
41925SOL    HW227550   7.763  11.035  14.004
41926SOL     OW27551  14.302   3.413  10.888
41926SOL    HW127552  14.223   3.467  10.891
41926SOL    HW227553  14.354   3.451  10.817
41927SOL     OW27554   0.756   5.992  11.537
41927SOL    HW127555   0.727   5.993  11.628
41927SOL    HW227556   0.690   6.042  11.489
41928SOL     OW27557   7.276   5.353   4.307
41928SOL    HW127558   7.321   5.277   4.269
41928SOL    HW227559   7.239   5.320   4.389
41929SOL     OW27560  10.740   6.885  11.690
41929SOL    HW127561  10.765   6.961  11.637
41929SOL    HW227562  10.805   6.882  11.759
41930SOL     OW27563  12.192   4.339   1.733
41930SOL    HW127564  12.198   4.409   1.668
41930SOL    HW227565  12.251   4.366   1.803
41931SOL     OW27566   4.198   1.905   0.941
41931SOL    HW127567   4.233   1.860   0.864
41931SOL    HW227568   4.251   1.872   1.014
41932SOL     OW27569   4.765   1.800  14.140
41932SOL    HW127570   4.680   1.787  14.098
41932SOL    HW227571   4.806   1.714  14.138
41933SOL     OW27572   6.860  14.521   2.846
41933SOL    HW127573   6.846  14.592   2.909
41933SOL    HW227574   6.773  14.505   2.808
41934SOL     OW27575   8.825  14.827   6.108
41934SOL    HW127576   8.815   0.013   6.179
41934SOL    HW227577   8.747  14.773   6.113
41935SOL     OW27578   0.362   1.023   3.926
41935SOL    HW127579   0.439   1.075   3.901
41935SOL    HW227580   0.333   1.062   4.008
41936SOL     OW27581  13.505   1.010   3.724
41936SOL    HW127582  13.506   0.927   3.677
41936SOL    HW227583  13.463   1.071   3.663
41937SOL     OW27584  14.283   5.705   7.866
41937SOL    HW127585  14.326   5.676   7.946
41937SOL    HW227586  14.202   5.747   7.896
41938SOL     OW27587   9.938   4.901  12.744
41938SOL    HW127588   9.870   4.967  12.736
41938SOL    HW227589   9.891   4.818  12.742
41939SOL     OW27590   3.327   4.030  14.051
41939SOL    HW127591   3.397   4.071  14.101
41939SOL    HW227592   3.318   4.084  13.973
41940SOL     OW27593  13.549   9.393  10.627
41940SOL    HW127594  13.534   9.467  10.568
41940SOL    HW227595  13.526   9.426  10.713
41941SOL     OW27596   0.480   0.541   2.506
41941SOL    HW127597   0.430   0.488   2.567
41941SOL    HW227598   0.553   0.575   2.557
41942SOL     OW27599   7.668   4.060  14.646
41942SOL    HW127600   7.610   4.037  14.719
41942SOL    HW227601   7.729   3.987  14.641
41943SOL     OW27602   9.967  10.603  12.704
41943SOL    HW127603   9.900  10.671  12.708
41943SOL    HW227604   9.918  10.521  12.700
41944SOL     OW27605   4.606   4.359   2.171
41944SOL    HW127606   4.641   4.444   2.144
41944SOL    HW227607   4.575   4.319   2.090
41945SOL     OW27608  11.975   7.147   1.684
41945SOL    HW127609  11.935   7.217   1.736
41945SOL    HW227610  12.037   7.192   1.626
41946SOL     OW27611  12.399   1.165   2.860
41946SOL    HW127612  12.492   1.142   2.854
41946SOL    HW227613  12.385   1.230   2.791
41947SOL     OW27614   6.119   2.674  10.791
41947SOL    HW127615   6.205   2.652  10.757
41947SOL    HW227616   6.135   2.742  10.856
41948SOL     OW27617   3.138   8.294   1.310
41948SOL    HW127618   3.186   8.287   1.227
41948SOL    HW227619   3.119   8.204   1.335
41949SOL     OW27620   5.799  12.540   8.494
41949SOL    HW127621   5.717  12.516   8.537
41949SOL    HW227622   5.798  12.492   8.411
41950SOL     OW27623  11.032   3.353   1.963
41950SOL    HW127624  11.010   3.261   1.948
41950SOL    HW227625  10.950   3.393   1.991
41951SOL     OW27626   8.735   9.247  10.766
41951SOL    HW127627   8.754   9.194  10.689
41951SOL    HW227628   8.646   9.279  10.752
41952SOL     OW27629   7.876  10.263   6.108
41952SOL    HW127630   7.790  10.227   6.130
41952SOL    HW227631   7.937  10.212   6.161
41953SOL     OW27632   6.497   2.773   9.330
41953SOL    HW127633   6.502   2.824   9.249
41953SOL    HW227634   6.541   2.690   9.309
41954SOL     OW27635   3.133  11.789   8.015
41954SOL    HW127636   3.137  11.873   8.061
41954SOL    HW227637   3.093  11.729   8.079
41955SOL     OW27638   4.033   6.923  11.818
41955SOL    HW127639   3.959   6.899  11.762
41955SOL    HW227640   4.065   6.839  11.851
41956SOL     OW27641   0.902   8.672   2.299
41956SOL    HW127642   0.897   8.744   2.363
41956SOL    HW227643   0.859   8.599   2.343
41957SOL     OW27644   0.195  14.101  14.701
41957SOL    HW127645   0.258  14.077  14.633
41957SOL    HW227646   0.198  14.196  14.705
41958SOL     OW27647  14.671   5.150   6.425
41958SOL    HW127648  14.715   5.078   6.378
41958SOL    HW227649  14.701   5.141   6.515
41959SOL     OW27650   7.545   5.292   7.891
41959SOL    HW127651   7.622   5.274   7.946
41959SOL    HW227652   7.578   5.287   7.801
41960SOL     OW27653   2.136   0.501   6.575
41960SOL    HW127654   2.046   0.469   6.576
41960SOL    HW227655   2.155   0.522   6.667
41961SOL     OW27656   1.906  10.542   7.189
41961SOL    HW127657   1.998  10.521   7.207
41961SOL    HW227658   1.857  10.466   7.218
41962SOL     OW27659   2.224  12.690  13.077
41962SOL    HW127660   2.309  12.673  13.118
41962SOL    HW227661   2.231  12.781  13.046
41963SOL     OW27662   8.571   8.285   8.240
41963SOL    HW127663   8.601   8.293   8.331
41963SOL    HW227664   8.621   8.211   8.205
41964SOL     OW27665  12.878   3.173   7.688
41964SOL    HW127666  12.889   3.088   7.645
41964SOL    HW227667  12.927   3.234   7.634
41965SOL     OW27668  12.012   2.898   9.903
41965SOL    HW127669  11.979   2.922   9.816
41965SOL    HW227670  12.105   2.921   9.900
41966SOL     OW27671   7.964   5.753   0.471
41966SOL    HW127672   7.947   5.659   0.458
41966SOL    HW227673   8.031   5.775   0.407
41967SOL     OW27674   0.564   2.417   2.945
41967SOL    HW127675   0.632   2.477   2.976
41967SOL    HW227676   0.567   2.424   2.850
41968SOL     OW27677  11.002  11.790   9.151
41968SOL    HW127678  10.927  11.748   9.109
41968SOL    HW227679  11.040  11.722   9.206
41969SOL     OW27680   8.796   2.623  12.263
41969SOL    HW127681   8.789   2.717  12.245
41969SOL    HW227682   8.722   2.585  12.215
41970SOL     OW27683   3.246   6.653   9.278
41970SOL    HW127684   3.281   6.569   9.308
41970SOL    HW227685   3.323   6.702   9.250
41971SOL     OW27686  11.712   0.965   2.793
41971SOL    HW127687  11.727   0.880   2.752
41971SOL    HW227688  11.657   1.012   2.730
41972SOL     OW27689  13.792   6.314   0.597
41972SOL    HW127690  13.708   6.288   0.559
41972SOL    HW227691  13.789   6.410   0.599
41973SOL     OW27692  13.171  12.477   3.920
41973SOL    HW127693  13.206  12.413   3.857
41973SOL    HW227694  13.077  12.455   3.926
41974SOL     OW27695   4.638  10.930   1.422
41974SOL    HW127696   4.657  10.884   1.341
41974SOL    HW227697   4.716  10.982   1.439
41975SOL     OW27698   9.957   0.599   4.412
41975SOL    HW127699   9.939   0.540   4.339
41975SOL    HW227700   9.997   0.544   4.479
41976SOL     OW27701   4.643   7.440   6.495
41976SOL    HW127702   4.613   7.349   6.501
41976SOL    HW227703   4.717   7.437   6.435
41977SOL     OW27704  13.743   9.716  10.386
41977SOL    HW127705  13.788   9.643  10.344
41977SOL    HW227706  13.811   9.760  10.438
41978SOL     OW27707   3.167  12.390   2.699
41978SOL    HW127708   3.120  12.450   2.756
41978SOL    HW227709   3.167  12.433   2.614
41979SOL     OW27710   2.521   0.834   5.972
41979SOL    HW127711   2.459   0.899   6.006
41979SOL    HW227712   2.580   0.816   6.046
41980SOL     OW27713   9.022   6.384   2.315
41980SOL    HW127714   8.942   6.333   2.323
41980SOL    HW227715   9.091   6.319   2.301
41981SOL     OW27716   4.341   5.868   0.673
41981SOL    HW127717   4.392   5.893   0.597
41981SOL    HW227718   4.270   5.932   0.677
41982SOL     OW27719  11.857   2.774   6.428
41982SOL    HW127720  11.909   2.695   6.412
41982SOL    HW227721  11.914   2.846   6.401
41983SOL     OW27722   1.986   6.522   9.876
41983SOL    HW127723   1.962   6.435   9.909
41983SOL    HW227724   2.063   6.547   9.927
41984SOL     OW27725   9.668  11.675   7.485
41984SOL    HW127726   9.676  11.604   7.421
41984SOL    HW227727   9.709  11.641   7.564
41985SOL     OW27728   0.258  11.272   9.477
41985SOL    HW127729   0.291  11.205   9.536
41985SOL    HW227730   0.197  11.225   9.419
41986SOL     OW27731  12.996   0.045   9.751
41986SOL    HW127732  13.011  14.859   9.682
41986SOL    HW227733  13.079   0.049   9.799
41987SOL     OW27734   4.404   5.278   0.051
41987SOL    HW127735   4.460   5.342   0.007
41987SOL    HW227736   4.316   5.299   0.021
41988SOL     OW27737   6.120   6.444   8.655
41988SOL    HW127738   6.157   6.456   8.567
41988SOL    HW227739   6.027   6.430   8.640
41989SOL     OW27740  13.372   0.587   3.443
41989SOL    HW127741  13.368   0.515   3.380
41989SOL    HW227742  13.297   0.572   3.501
41990SOL     OW27743  12.108   3.517   0.411
41990SOL    HW127744  12.061   3.591   0.371
41990SOL    HW227745  12.058   3.497   0.490
41991SOL     OW27746   6.443  12.178   3.984
41991SOL    HW127747   6.352  12.202   3.998
41991SOL    HW227748   6.469  12.224   3.905
41992SOL     OW27749   3.037  13.183   5.352
41992SOL    HW127750   3.029  13.242   5.277
41992SOL    HW227751   2.957  13.198   5.402
41993SOL     OW27752  10.935   2.098   3.355
41993SOL    HW127753  11.025   2.092   3.388
41993SOL    HW227754  10.940   2.166   3.288
41994SOL     OW27755   9.270   6.485   4.908
41994SOL    HW127756   9.260   6.407   4.962
41994SOL    HW227757   9.322   6.456   4.833
41995SOL     OW27758   0.654  10.750  13.432
41995SOL    HW127759   0.714  10.724  13.363
41995SOL    HW227760   0.710  10.767  13.508
41996SOL     OW27761   7.627   9.306   0.832
41996SOL    HW127762   7.649   9.293   0.924
41996SOL    HW227763   7.579   9.227   0.807
41997SOL     OW27764  10.758   3.804   1.698
41997SOL    HW127765  10.812   3.835   1.770
41997SOL    HW227766  10.703   3.736   1.737
41998SOL     OW27767   3.096  10.103   2.749
41998SOL    HW127768   3.097  10.009   2.730
41998SOL    HW227769   3.034  10.140   2.686
41999SOL     OW27770  12.848   8.644  13.541
41999SOL    HW127771  12.937   8.652  13.575
41999SOL    HW227772  12.824   8.553  13.557
42000SOL     OW27773   2.381  13.431   4.921
42000SOL    HW127774   2.429  13.514   4.922
42000SOL    HW227775   2.449  13.365   4.910
42001SOL     OW27776   0.724   7.938   4.022
42001SOL    HW127777   0.675   7.878   3.967
42001SOL    HW227778   0.786   7.882   4.070
42002SOL     OW27779  14.833   7.992  14.743
42002SOL    HW127780   0.043   8.028  14.759
42002SOL    HW227781  14.785   8.065  14.703
42003SOL     OW27782   1.629   0.395   5.170
42003SOL    HW127783   1.655   0.451   5.097
42003SOL    HW227784   1.686   0.422   5.243
42004SOL     OW27785   4.915  14.784   9.289
42004SOL    HW127786   4.963  14.775   9.206
42004SOL    HW227787   4.932  14.875   9.316
42005SOL     OW27788   6.911   4.766   7.054
42005SOL    HW127789   6.911   4.744   6.961
42005SOL    HW227790   6.899   4.682   7.098
42006SOL     OW27791   1.551  13.752  12.573
42006SOL    HW127792   1.567  13.789  12.487
42006SOL    HW227793   1.466  13.788  12.599
42007SOL     OW27794   8.748   0.804   4.818
42007SOL    HW127795   8.744   0.709   4.820
42007SOL    HW227796   8.656   0.832   4.809
42008SOL     OW27797  11.908   2.635   2.333
42008SOL    HW127798  11.924   2.595   2.247
42008SOL    HW227799  11.930   2.727   2.321
42009SOL     OW27800   1.525   5.145   1.569
42009SOL    HW127801   1.443   5.186   1.542
42009SOL    HW227802   1.575   5.215   1.610
42010SOL     OW27803  12.887   9.678   6.338
42010SOL    HW127804  12.931   9.688   6.422
42010SOL    HW227805  12.951   9.707   6.274
42011SOL     OW27806  13.725   1.019  11.275
42011SOL    HW127807  13.634   1.015  11.304
42011SOL    HW227808  13.773   1.055  11.350
42012SOL     OW27809   2.377  12.116   3.125
42012SOL    HW127810   2.456  12.164   3.152
42012SOL    HW227811   2.369  12.046   3.189
42013SOL     OW27812   4.958  13.034   4.744
42013SOL    HW127813   4.994  13.121   4.760
42013SOL    HW227814   4.941  12.998   4.831
42014SOL     OW27815   2.820   4.620   4.862
42014SOL    HW127816   2.808   4.581   4.949
42014SOL    HW227817   2.770   4.564   4.803
42015SOL     OW27818  12.983   1.483   4.341
42015SOL    HW127819  12.943   1.445   4.263
42015SOL    HW227820  13.062   1.526   4.309
42016SOL     OW27821   7.677  14.210  14.209
42016SOL    HW127822   7.709  14.239  14.124
42016SOL    HW227823   7.735  14.252  14.272
42017SOL     OW27824   9.982  12.195   5.632
42017SOL    HW127825   9.982  12.246   5.713
42017SOL    HW227826   9.906  12.138   5.640
42018SOL     OW27827   3.672   2.961  14.649
42018SOL    HW127828   3.706   3.038  14.604
42018SOL    HW227829   3.625   2.996  14.725
42019SOL     OW27830   6.894   7.999   7.013
42019SOL    HW127831   6.971   8.045   6.981
42019SOL    HW227832   6.891   7.918   6.962
42020SOL     OW27833   2.203   0.428  13.904
42020SOL    HW127834   2.126   0.420  13.848
42020SOL    HW227835   2.172   0.470  13.984
42021SOL     OW27836  12.155  10.090  12.660
42021SOL    HW127837  12.219  10.133  12.717
42021SOL    HW227838  12.080  10.150  12.658
42022SOL     OW27839  14.379  12.103  11.593
42022SOL    HW127840  14.436  12.168  11.553
42022SOL    HW227841  14.438  12.042  11.638
42023SOL     OW27842   3.188  11.829   0.075
42023SOL    HW127843   3.124  11.765   0.107
42023SOL    HW227844   3.171  11.835  14.859
42024SOL     OW27845  12.343   2.862   4.096
42024SOL    HW127846  12.356   2.776   4.056
42024SOL    HW227847  12.425   2.879   4.142
42025SOL     OW27848   8.954   4.995   1.795
42025SOL    HW127849   8.976   4.997   1.702
42025SOL    HW227850   8.994   4.915   1.828
42026SOL     OW27851   8.405   1.654  13.571
42026SOL    HW127852   8.455   1.590  13.521
42026SOL    HW227853   8.315   1.625  13.566
42027SOL     OW27854  13.713  12.926   3.965
42027SOL    HW127855  13.680  12.981   3.895
42027SOL    HW227856  13.769  12.983   4.017
42028SOL     OW27857  13.476   8.073   7.671
42028SOL    HW127858  13.415   8.142   7.644
42028SOL    HW227859  13.561   8.117   7.675
42029SOL     OW27860  10.601  10.041   9.501
42029SOL    HW127861  10.629   9.992   9.424
42029SOL    HW227862  10.672  10.102   9.519
42030SOL     OW27863  13.041   4.896   8.338
42030SOL    HW127864  13.062   4.988   8.351
42030SOL    HW227865  13.091   4.850   8.405
42031SOL     OW27866   8.018  10.066  11.794
42031SOL    HW127867   8.050  10.156  11.785
42031SOL    HW227868   7.929  10.076  11.828
42032SOL     OW27869   7.714   0.151   0.078
42032SOL    HW127870   7.642   0.200   0.118
42032SOL    HW227871   7.709   0.173  14.863
42033SOL     OW27872   9.637   1.254   4.185
42033SOL    HW127873   9.717   1.227   4.231
42033SOL    HW227874   9.567   1.236   4.248
42034SOL     OW27875  13.459   9.465   7.291
42034SOL    HW127876  13.367   9.463   7.266
42034SOL    HW227877  13.478   9.557   7.306
42035SOL     OW27878  12.294  13.019   2.679
42035SOL    HW127879  12.247  12.989   2.601
42035SOL    HW227880  12.386  13.001   2.660
42036SOL     OW27881  12.789   5.184   7.237
42036SOL    HW127882  12.798   5.262   7.293
42036SOL    HW227883  12.878   5.159   7.216
42037SOL     OW27884   9.977  14.712  11.752
42037SOL    HW127885   9.980  14.656  11.675
42037SOL    HW227886   9.884  14.719  11.774
42038SOL     OW27887   1.050  13.106   5.610
42038SOL    HW127888   1.074  13.027   5.659
42038SOL    HW227889   1.005  13.161   5.674
42039SOL     OW27890   8.711   9.678  14.811
42039SOL    HW127891   8.653   9.753  14.825
42039SOL    HW227892   8.790   9.716  14.772
42040SOL     OW27893   7.304   1.932   2.936
42040SOL    HW127894   7.382   1.975   2.901
42040SOL    HW227895   7.309   1.842   2.903
42041SOL     OW27896   2.039  10.304  12.246
42041SOL    HW127897   2.034  10.395  12.274
42041SOL    HW227898   2.046  10.309  12.151
42042SOL     OW27899  10.301   3.354   2.795
42042SOL    HW127900  10.360   3.428   2.807
42042SOL    HW227901  10.357   3.281   2.769
42043SOL     OW27902  12.989  14.269  13.911
42043SOL    HW127903  13.034  14.348  13.883
42043SOL    HW227904  12.924  14.300  13.975
42044SOL     OW27905  10.453   5.199  14.372
42044SOL    HW127906  10.374   5.165  14.330
42044SOL    HW227907  10.521   5.136  14.351
42045SOL     OW27908   7.564   0.469   6.668
42045SOL    HW127909   7.612   0.540   6.712
42045SOL    HW227910   7.556   0.499   6.578
42046SOL     OW27911   4.169  12.547   5.805
42046SOL    HW127912   4.203  12.500   5.881
42046SOL    HW227913   4.218  12.512   5.731
42047SOL     OW27914   1.757   8.389   1.791
42047SOL    HW127915   1.793   8.304   1.764
42047SOL    HW227916   1.707   8.419   1.715
42048SOL     OW27917   8.477  10.430   7.582
42048SOL    HW127918   8.422  10.453   7.657
42048SOL    HW227919   8.473  10.334   7.578
42049SOL     OW27920  14.360   4.960  10.691
42049SOL    HW127921  14.411   4.899  10.637
42049SOL    HW227922  14.270   4.948  10.662
42050SOL     OW27923  11.698   7.254   6.482
42050SOL    HW127924  11.706   7.192   6.409
42050SOL    HW227925  11.732   7.206   6.558
42051SOL     OW27926  12.188  10.145  14.131
42051SOL    HW127927  12.260  10.103  14.178
42051SOL    HW227928  12.218  10.152  14.040
42052SOL     OW27929   6.164   3.332   6.625
42052SOL    HW127930   6.084   3.282   6.607
42052SOL    HW227931   6.145   3.379   6.705
42053SOL     OW27932   4.313   0.215   2.984
42053SOL    HW127933   4.376   0.143   2.990
42053SOL    HW227934   4.364   0.294   3.002
42054SOL     OW27935   3.364   5.853  13.497
42054SOL    HW127936   3.351   5.898  13.580
42054SOL    HW227937   3.421   5.779  13.518
42055SOL     OW27938   5.755  12.443   2.958
42055SOL    HW127939   5.807  12.517   2.927
42055SOL    HW227940   5.678  12.483   3.000
42056SOL     OW27941   7.279   3.912  12.927
42056SOL    HW127942   7.269   3.956  12.842
42056SOL    HW227943   7.276   3.984  12.991
42057SOL     OW27944  10.876   1.456   5.309
42057SOL    HW127945  10.786   1.474   5.338
42057SOL    HW227946  10.899   1.532   5.256
42058SOL     OW27947   8.116  14.196   2.352
42058SOL    HW127948   8.089  14.252   2.280
42058SOL    HW227949   8.129  14.257   2.425
42059SOL     OW27950   5.074   3.349   0.695
42059SOL    HW127951   5.022   3.281   0.652
42059SOL    HW227952   5.049   3.344   0.787
42060SOL     OW27953  14.614  11.387   0.410
42060SOL    HW127954  14.563  11.467   0.420
42060SOL    HW227955  14.608  11.344   0.495
42061SOL     OW27956   7.271   0.231   2.616
42061SOL    HW127957   7.223   0.195   2.691
42061SOL    HW227958   7.243   0.179   2.542
42062SOL     OW27959   5.242   6.611   8.963
42062SOL    HW127960   5.209   6.652   9.043
42062SOL    HW227961   5.225   6.674   8.894
42063SOL     OW27962   2.543  14.055   3.156
42063SOL    HW127963   2.493  13.984   3.197
42063SOL    HW227964   2.512  14.134   3.199
42064SOL     OW27965   5.621   4.617   8.668
42064SOL    HW127966   5.527   4.601   8.659
42064SOL    HW227967   5.642   4.677   8.597
42065SOL     OW27968  11.337   4.126   2.200
42065SOL    HW127969  11.408   4.189   2.185
42065SOL    HW227970  11.368   4.071   2.272
42066SOL     OW27971   8.602   6.650  14.254
42066SOL    HW127972   8.600   6.680  14.163
42066SOL    HW227973   8.510   6.637  14.277
42067SOL     OW27974   1.360   8.729  12.763
42067SOL    HW127975   1.272   8.714  12.728
42067SOL    HW227976   1.350   8.805  12.821
42068SOL     OW27977  10.953  10.267   7.882
42068SOL    HW127978  10.876  10.300   7.835
42068SOL    HW227979  11.007  10.345   7.898
42069SOL     OW27980   6.997  13.201  13.506
42069SOL    HW127981   6.980  13.286  13.547
42069SOL    HW227982   7.068  13.164  13.559
42070SOL     OW27983   4.718  12.602  11.778
42070SOL    HW127984   4.787  12.663  11.806
42070SOL    HW227985   4.758  12.515  11.787
42071SOL     OW27986  11.958  10.395   4.295
42071SOL    HW127987  11.872  10.375   4.256
42071SOL    HW227988  11.998  10.309   4.309
42072SOL     OW27989   4.465   2.099  10.343
42072SOL    HW127990   4.402   2.163  10.375
42072SOL    HW227991   4.455   2.023  10.400
42073SOL     OW27992   0.047  13.145  11.811
42073SOL    HW127993   0.082  13.093  11.739
42073SOL    HW227994   0.105  13.220  11.817
42074SOL     OW27995  10.865  10.000  13.852
42074SOL    HW127996  10.908  10.035  13.774
42074SOL    HW227997  10.780  10.044  13.854
42075SOL     OW27998  10.751   9.113   9.850
42075SOL    HW127999  10.835   9.141   9.886
42075SOL    HW228000  10.735   9.027   9.889
42076SOL     OW28001   3.366   7.642   1.867
42076SOL    HW128002   3.383   7.562   1.819
42076SOL    HW228003   3.430   7.705   1.834
42077SOL     OW28004  11.562  11.210   6.037
42077SOL    HW128005  11.526  11.251   5.958
42077SOL    HW228006  11.550  11.116   6.023
42078SOL     OW28007   9.626   6.438   3.096
42078SOL    HW128008   9.531   6.445   3.097
42078SOL    HW228009   9.655   6.505   3.158
42079SOL     OW28010   2.727   2.924   1.277
42079SOL    HW128011   2.786   2.881   1.339
42079SOL    HW228012   2.639   2.900   1.306
42080SOL     OW28013   8.967  10.685   9.453
42080SOL    HW128014   8.904  10.640   9.398
42080SOL    HW228015   9.035  10.621   9.471
42081SOL     OW28016  13.259   0.953   1.768
42081SOL    HW128017  13.353   0.940   1.752
42081SOL    HW228018  13.233   1.017   1.702
42082SOL     OW28019   9.883  12.640   6.634
42082SOL    HW128020   9.877  12.713   6.696
42082SOL    HW228021   9.870  12.562   6.688
42083SOL     OW28022   4.922  13.242  10.956
42083SOL    HW128023   4.923  13.259  11.050
42083SOL    HW228024   4.851  13.297  10.922
42084SOL     OW28025   0.012   9.071   0.775
42084SOL    HW128026   0.001   9.048   0.683
42084SOL    HW228027  14.805   9.105   0.802
42085SOL     OW28028  11.593   7.044   3.163
42085SOL    HW128029  11.502   7.071   3.158
42085SOL    HW228030  11.597   6.985   3.238
42086SOL     OW28031   3.884   5.617   5.872
42086SOL    HW128032   3.903   5.528   5.903
42086SOL    HW228033   3.949   5.634   5.804
42087SOL     OW28034  14.765   0.220   6.282
42087SOL    HW128035  14.709   0.220   6.205
42087SOL    HW228036  14.830   0.288   6.265
42088SOL     OW28037  14.370  10.636  13.471
42088SOL    HW128038  14.365  10.710  13.531
42088SOL    HW228039  14.348  10.560  13.524
42089SOL     OW28040  14.407   5.536  11.964
42089SOL    HW128041  14.340   5.473  11.938
42089SOL    HW228042  14.361   5.597  12.022
42090SOL     OW28043   5.912  13.691   7.892
42090SOL    HW128044   5.992  13.667   7.938
42090SOL    HW228045   5.939  13.699   7.800
42091SOL     OW28046   7.876  13.510   0.400
42091SOL    HW128047   7.954  13.456   0.384
42091SOL    HW228048   7.835  13.518   0.315
42092SOL     OW28049   4.914   5.364   6.034
42092SOL    HW128050   4.915   5.304   6.108
42092SOL    HW228051   4.825   5.400   6.034
42093SOL     OW28052   1.576   3.694  13.998
42093SOL    HW128053   1.547   3.697  14.089
42093SOL    HW228054   1.584   3.601  13.979
42094SOL     OW28055   8.103   3.347   3.155
42094SOL    HW128056   8.034   3.355   3.089
42094SOL    HW228057   8.097   3.428   3.205
42095SOL     OW28058  14.816   6.989  10.958
42095SOL    HW128059  14.829   7.050  11.032
42095SOL    HW228060   0.018   6.936  10.958
42096SOL     OW28061  10.481   4.588  13.345
42096SOL    HW128062  10.434   4.509  13.318
42096SOL    HW228063  10.437   4.659  13.300
42097SOL     OW28064  14.828  10.411  14.108
42097SOL    HW128065  14.862  10.447  14.191
42097SOL    HW228066  14.758  10.351  14.135
42098SOL     OW28067   6.223  10.737   0.119
42098SOL    HW128068   6.254  10.765   0.205
42098SOL    HW228069   6.283  10.667   0.093
42099SOL     OW28070   1.993   9.179   4.027
42099SOL    HW128071   1.916   9.160   4.082
42099SOL    HW228072   2.024   9.093   4.000
42100SOL     OW28073  12.358   4.036  11.006
42100SOL    HW128074  12.278   4.084  10.987
42100SOL    HW228075  12.337   3.945  10.985
42101SOL     OW28076  13.714  13.006  13.225
42101SOL    HW128077  13.689  12.916  13.207
42101SOL    HW228078  13.720  13.047  13.138
42102SOL     OW28079   8.253  10.686   7.273
42102SOL    HW128080   8.240  10.779   7.291
42102SOL    HW228081   8.262  10.681   7.178
42103SOL     OW28082   2.855   0.270   9.515
42103SOL    HW128083   2.906   0.192   9.536
42103SOL    HW228084   2.773   0.235   9.479
42104SOL     OW28085   6.536  14.716   3.454
42104SOL    HW128086   6.557  14.777   3.383
42104SOL    HW228087   6.544  14.769   3.534
42105SOL     OW28088   0.244   4.427   1.612
42105SOL    HW128089   0.204   4.348   1.650
42105SOL    HW228090   0.175   4.494   1.618
42106SOL     OW28091  10.808  11.426  10.028
42106SOL    HW128092  10.752  11.392   9.959
42106SOL    HW228093  10.875  11.476   9.982
42107SOL     OW28094  11.439  12.323  11.076
42107SOL    HW128095  11.417  12.406  11.034
42107SOL    HW228096  11.401  12.330  11.164
42108SOL     OW28097  11.049  13.030   8.201
42108SOL    HW128098  10.986  12.983   8.147
42108SOL    HW228099  11.016  13.021   8.290
42109SOL     OW28100  11.100   6.614  10.022
42109SOL    HW128101  11.100   6.689   9.962
42109SOL    HW228102  11.134   6.541   9.970
42110SOL     OW28103   5.439   0.508   9.703
42110SOL    HW128104   5.517   0.521   9.649
42110SOL    HW228105   5.366   0.514   9.642
42111SOL     OW28106   5.276   9.721   5.342
42111SOL    HW128107   5.210   9.737   5.274
42111SOL    HW228108   5.329   9.801   5.342
42112SOL     OW28109   0.020   4.450   4.084
42112SOL    HW128110   0.082   4.416   4.019
42112SOL    HW228111  14.822   4.478   4.033
42113SOL     OW28112   8.814  14.310   6.088
42113SOL    HW128113   8.735  14.362   6.100
42113SOL    HW228114   8.884  14.374   6.077
42114SOL     OW28115  14.535   6.943  10.824
42114SOL    HW128116  14.551   6.865  10.771
42114SOL    HW228117  14.591   6.931  10.901
42115SOL     OW28118   0.092   7.338  10.140
42115SOL    HW128119   0.129   7.410  10.090
42115SOL    HW228120   0.096   7.367  10.231
42116SOL     OW28121   2.396  13.962  12.168
42116SOL    HW128122   2.324  13.916  12.210
42116SOL    HW228123   2.387  14.053  12.197
42117SOL     OW28124   3.750   1.817  10.487
42117SOL    HW128125   3.780   1.742  10.538
42117SOL    HW228126   3.705   1.779  10.412
42118SOL     OW28127  12.893  10.814   3.490
42118SOL    HW128128  12.826  10.755   3.456
42118SOL    HW228129  12.919  10.775   3.574
42119SOL     OW28130   3.140   5.010   8.741
42119SOL    HW128131   3.107   4.941   8.684
42119SOL    HW228132   3.098   5.090   8.709
42120SOL     OW28133   1.250  14.198  11.693
42120SOL    HW128134   1.298  14.272  11.729
42120SOL    HW228135   1.158  14.225  11.696
42121SOL     OW28136  12.791   0.812  12.698
42121SOL    HW128137  12.788   0.726  12.741
42121SOL    HW228138  12.829   0.870  12.764
42122SOL     OW28139   3.226   7.752   7.308
42122SOL    HW128140   3.198   7.673   7.261
42122SOL    HW228141   3.220   7.821   7.243
42123SOL     OW28142  13.972   9.440   0.399
42123SOL    HW128143  13.885   9.401   0.401
42123SOL    HW228144  14.019   9.389   0.332
42124SOL     OW28145   8.518  13.197   0.276
42124SOL    HW128146   8.479  13.153   0.352
42124SOL    HW228147   8.607  13.162   0.273
42125SOL     OW28148   7.414  14.856  13.326
42125SOL    HW128149   7.320  14.867  13.340
42125SOL    HW228150   7.453   0.057  13.362
42126SOL     OW28151   0.854   4.560   7.504
42126SOL    HW128152   0.945   4.549   7.531
42126SOL    HW228153   0.815   4.616   7.572
42127SOL     OW28154  10.125   0.634   9.970
42127SOL    HW128155  10.130   0.635  10.065
42127SOL    HW228156  10.216   0.621   9.941
42128SOL     OW28157  12.646   1.875  10.161
42128SOL    HW128158  12.683   1.958  10.191
42128SOL    HW228159  12.622   1.890  10.070
42129SOL     OW28160   7.309  14.789  12.109
42129SOL    HW128161   7.315   0.007  12.118
42129SOL    HW228162   7.311  14.757  12.199
42130SOL     OW28163   9.748   0.776  12.533
42130SOL    HW128164   9.727   0.849  12.590
42130SOL    HW228165   9.829   0.740  12.569
42131SOL     OW28166   6.599   1.297   7.144
42131SOL    HW128167   6.547   1.349   7.205
42131SOL    HW228168   6.663   1.359   7.109
42132SOL     OW28169   5.142   1.326   2.807
42132SOL    HW128170   5.143   1.265   2.881
42132SOL    HW228171   5.063   1.378   2.820
42133SOL     OW28172   6.073  13.811  13.928
42133SOL    HW128173   6.010  13.880  13.905
42133SOL    HW228174   6.155  13.838  13.885
42134SOL     OW28175  11.638   3.575   2.251
42134SOL    HW128176  11.621   3.662   2.214
42134SOL    HW228177  11.723   3.584   2.295
42135SOL     OW28178   2.875   7.405  13.427
42135SOL    HW128179   2.931   7.330  13.447
42135SOL    HW228180   2.832   7.425  13.510
42136SOL     OW28181   4.823  13.505   7.800
42136SOL    HW128182   4.746  13.507   7.857
42136SOL    HW228183   4.897  13.513   7.860
42137SOL     OW28184  10.914   6.324   6.017
42137SOL    HW128185  10.864   6.363   5.946
42137SOL    HW228186  10.924   6.232   5.991
42138SOL     OW28187   1.110   5.576  10.938
42138SOL    HW128188   1.108   5.610  11.027
42138SOL    HW228189   1.161   5.640  10.889
42139SOL     OW28190  11.149   3.810   6.084
42139SOL    HW128191  11.163   3.793   5.991
42139SOL    HW228192  11.055   3.828   6.091
42140SOL     OW28193  14.468  12.173   9.277
42140SOL    HW128194  14.486  12.238   9.346
42140SOL    HW228195  14.553  12.134   9.258
42141SOL     OW28196   0.076  10.279   6.087
42141SOL    HW128197   0.139  10.232   6.032
42141SOL    HW228198   0.106  10.369   6.086
42142SOL     OW28199   9.746  10.079  14.356
42142SOL    HW128200   9.675  10.088  14.292
42142SOL    HW228201   9.823  10.115  14.312
42143SOL     OW28202   7.966   1.285   1.974
42143SOL    HW128203   7.924   1.199   1.977
42143SOL    HW228204   7.910   1.337   1.916
42144SOL     OW28205   1.296   3.244  11.071
42144SOL    HW128206   1.202   3.263  11.073
42144SOL    HW228207   1.315   3.226  10.979
42145SOL     OW28208   3.107   5.272  14.027
42145SOL    HW128209   3.148   5.208  14.086
42145SOL    HW228210   3.148   5.256  13.942
42146SOL     OW28211   1.872   0.882   9.995
42146SOL    HW128212   1.889   0.974   9.975
42146SOL    HW228213   1.893   0.873  10.088
42147SOL     OW28214   9.935   1.180  13.334
42147SOL    HW128215  10.016   1.206  13.377
42147SOL    HW228216   9.919   1.090  13.365
42148SOL     OW28217   7.817  12.050   5.216
42148SOL    HW128218   7.908  12.036   5.242
42148SOL    HW228219   7.767  12.039   5.297
42149SOL     OW28220   1.412   7.891   6.937
42149SOL    HW128221   1.433   7.813   6.988
42149SOL    HW228222   1.426   7.963   6.998
42150SOL     OW28223   3.270  10.273  12.308
42150SOL    HW128224   3.279  10.281  12.213
42150SOL    HW228225   3.176  10.283  12.324
42151SOL     OW28226   7.566   3.273  14.320
42151SOL    HW128227   7.654   3.263  14.356
42151SOL    HW228228   7.550   3.191  14.274
42152SOL     OW28229   7.232   6.586   8.515
42152SOL    HW128230   7.274   6.670   8.536
42152SOL    HW228231   7.290   6.547   8.449
42153SOL     OW28232   6.941   9.539  11.043
42153SOL    HW128233   6.962   9.497  10.959
42153SOL    HW228234   7.024   9.577  11.072
42154SOL     OW28235  12.494  13.908   5.933
42154SOL    HW128236  12.415  13.954   5.904
42154SOL    HW228237  12.478  13.817   5.911
42155SOL     OW28238  12.318  10.717   7.612
42155SOL    HW128239  12.234  10.751   7.582
42155SOL    HW228240  12.336  10.764   7.693
42156SOL     OW28241   1.327  10.043   0.926
42156SOL    HW128242   1.363   9.973   0.871
42156SOL    HW228243   1.345  10.015   1.016
42157SOL     OW28244  11.865  13.751  12.144
42157SOL    HW128245  11.805  13.800  12.088
42157SOL    HW228246  11.854  13.660  12.117
42158SOL     OW28247   5.619   4.050   2.308
42158SOL    HW128248   5.531   4.025   2.335
42158SOL    HW228249   5.611   4.073   2.216
42159SOL     OW28250   8.562   5.435   8.950
42159SOL    HW128251   8.472   5.403   8.945
42159SOL    HW228252   8.580   5.470   8.863
42160SOL     OW28253   2.838   7.359  13.904
42160SOL    HW128254   2.799   7.437  13.864
42160SOL    HW228255   2.914   7.340  13.850
42161SOL     OW28256   4.985   4.079  13.071
42161SOL    HW128257   5.075   4.056  13.050
42161SOL    HW228258   4.977   4.171  13.046
42162SOL     OW28259  11.498   6.822  11.912
42162SOL    HW128260  11.535   6.751  11.861
42162SOL    HW228261  11.522   6.802  12.003
42163SOL     OW28262   1.021   3.467   5.213
42163SOL    HW128263   0.997   3.453   5.121
42163SOL    HW228264   1.063   3.386   5.239
42164SOL     OW28265   1.452   2.999   6.666
42164SOL    HW128266   1.537   3.016   6.625
42164SOL    HW228267   1.398   2.961   6.596
42165SOL     OW28268  12.599   4.787   5.125
42165SOL    HW128269  12.509   4.760   5.104
42165SOL    HW228270  12.594   4.882   5.133
42166SOL     OW28271   7.245  11.640   9.895
42166SOL    HW128272   7.186  11.617   9.966
42166SOL    HW228273   7.195  11.622   9.815
42167SOL     OW28274   0.577   6.162  10.262
42167SOL    HW128275   0.622   6.214  10.196
42167SOL    HW228276   0.521   6.224  10.309
42168SOL     OW28277   6.276   3.967   8.803
42168SOL    HW128278   6.203   3.969   8.865
42168SOL    HW228279   6.333   3.897   8.836
42169SOL     OW28280   5.242   6.225   8.882
42169SOL    HW128281   5.171   6.168   8.912
42169SOL    HW228282   5.255   6.202   8.790
42170SOL     OW28283  10.434   0.727   6.012
42170SOL    HW128284  10.480   0.684   5.940
42170SOL    HW228285  10.503   0.757   6.071
42171SOL     OW28286  14.361   4.935   3.302
42171SOL    HW128287  14.306   4.956   3.378
42171SOL    HW228288  14.384   4.843   3.314
42172SOL     OW28289   0.440   0.940   5.797
42172SOL    HW128290   0.452   1.032   5.821
42172SOL    HW228291   0.497   0.927   5.722
42173SOL     OW28292  11.317   2.847   2.277
42173SOL    HW128293  11.410   2.867   2.267
42173SOL    HW228294  11.278   2.869   2.192
42174SOL     OW28295   0.791   5.334  10.663
42174SOL    HW128296   0.829   5.318  10.577
42174SOL    HW228297   0.845   5.403  10.701
42175SOL     OW28298   8.276   6.887   6.437
42175SOL    HW128299   8.186   6.920   6.438
42175SOL    HW228300   8.311   6.912   6.522
42176SOL     OW28301   8.264   3.886  10.815
42176SOL    HW128302   8.199   3.952  10.839
42176SOL    HW228303   8.294   3.914  10.728
42177SOL     OW28304   1.555   9.613   3.040
42177SOL    HW128305   1.648   9.593   3.030
42177SOL    HW228306   1.512   9.565   2.970
42178SOL     OW28307   6.869  10.835  14.299
42178SOL    HW128308   6.911  10.781  14.366
42178SOL    HW228309   6.934  10.840  14.229
42179SOL     OW28310   8.580  14.181   7.992
42179SOL    HW128311   8.594  14.119   8.063
42179SOL    HW228312   8.653  14.243   8.000
42180SOL     OW28313  10.649  14.500   7.642
42180SOL    HW128314  10.723  14.443   7.620
42180SOL    HW228315  10.688  14.588   7.648
42181SOL     OW28316  12.395   3.086   3.148
42181SOL    HW128317  12.325   3.046   3.200
42181SOL    HW228318  12.468   3.025   3.156
42182SOL     OW28319   3.561   1.123   3.486
42182SOL    HW128320   3.634   1.154   3.539
42182SOL    HW228321   3.493   1.190   3.497
42183SOL     OW28322   7.103   5.381   1.012
42183SOL    HW128323   7.044   5.382   1.087
42183SOL    HW228324   7.149   5.465   1.016
42184SOL     OW28325   6.268   3.260  11.516
42184SOL    HW128326   6.294   3.262  11.608
42184SOL    HW228327   6.235   3.172  11.502
42185SOL     OW28328   9.341   1.209  10.759
42185SOL    HW128329   9.286   1.213  10.837
42185SOL    HW228330   9.391   1.291  10.760
42186SOL     OW28331   2.184   5.334   5.670
42186SOL    HW128332   2.154   5.244   5.660
42186SOL    HW228333   2.272   5.334   5.633
42187SOL     OW28334  13.595   1.805  14.197
42187SOL    HW128335  13.627   1.861  14.268
42187SOL    HW228336  13.508   1.777  14.226
42188SOL     OW28337  12.397   7.747  14.428
42188SOL    HW128338  12.367   7.690  14.499
42188SOL    HW228339  12.418   7.687  14.356
42189SOL     OW28340   7.765   0.980  13.713
42189SOL    HW128341   7.856   0.966  13.740
42189SOL    HW228342   7.719   0.999  13.794
42190SOL     OW28343   4.430   2.132  13.199
42190SOL    HW128344   4.484   2.205  13.168
42190SOL    HW228345   4.493   2.060  13.213
42191SOL     OW28346   7.151   9.282  14.586
42191SOL    HW128347   7.175   9.194  14.617
42191SOL    HW228348   7.056   9.281  14.584
42192SOL     OW28349   2.203  10.284   7.743
42192SOL    HW128350   2.240  10.318   7.662
42192SOL    HW228351   2.157  10.358   7.782
42193SOL     OW28352   7.219   3.476   2.283
42193SOL    HW128353   7.250   3.458   2.194
42193SOL    HW228354   7.127   3.450   2.282
42194SOL     OW28355   7.568  12.459   7.892
42194SOL    HW128356   7.494  12.399   7.904
42194SOL    HW228357   7.639  12.421   7.944
42195SOL     OW28358   3.824   7.334   6.233
42195SOL    HW128359   3.790   7.264   6.177
42195SOL    HW228360   3.757   7.346   6.300
42196SOL     OW28361   0.482   7.458   9.629
42196SOL    HW128362   0.415   7.390   9.636
42196SOL    HW228363   0.510   7.455   9.537
42197SOL     OW28364   4.717  14.229   6.572
42197SOL    HW128365   4.758  14.264   6.651
42197SOL    HW228366   4.626  14.257   6.578
42198SOL     OW28367   4.532   6.153   1.136
42198SOL    HW128368   4.460   6.215   1.149
42198SOL    HW228369   4.504   6.099   1.063
42199SOL     OW28370  12.791  14.315   4.020
42199SOL    HW128371  12.776  14.221   4.011
42199SOL    HW228372  12.737  14.355   3.952
42200SOL     OW28373   6.692   5.393   3.397
42200SOL    HW128374   6.646   5.378   3.480
42200SOL    HW228375   6.747   5.469   3.413
42201SOL     OW28376   4.733   4.264  14.352
42201SOL    HW128377   4.797   4.205  14.312
42201SOL    HW228378   4.649   4.235  14.318
42202SOL     OW28379   0.116  11.882   4.886
42202SOL    HW128380   0.045  11.846   4.939
42202SOL    HW228381   0.077  11.897   4.800
42203SOL     OW28382   6.141   8.209   3.500
42203SOL    HW128383   6.102   8.273   3.560
42203SOL    HW228384   6.189   8.149   3.557
42204SOL     OW28385   5.567   6.881  12.855
42204SOL    HW128386   5.646   6.827  12.856
42204SOL    HW228387   5.537   6.881  12.946
42205SOL     OW28388  12.865   7.853  13.057
42205SOL    HW128389  12.929   7.812  12.998
42205SOL    HW228390  12.822   7.920  13.003
42206SOL     OW28391   6.950   6.988  14.095
42206SOL    HW128392   6.887   6.956  14.160
42206SOL    HW228393   6.987   7.067  14.134
42207SOL     OW28394   0.120  14.308  10.228
42207SOL    HW128395   0.123  14.367  10.152
42207SOL    HW228396   0.213  14.290  10.246
42208SOL     OW28397   2.069   5.893   8.137
42208SOL    HW128398   2.086   5.855   8.223
42208SOL    HW228399   2.090   5.824   8.075
42209SOL     OW28400  10.146   9.468   6.035
42209SOL    HW128401  10.080   9.430   6.094
42209SOL    HW228402  10.154   9.404   5.964
42210SOL     OW28403   6.396   7.423  13.237
42210SOL    HW128404   6.391   7.488  13.168
42210SOL    HW228405   6.406   7.474  13.318
42211SOL     OW28406   2.431   8.802   1.280
42211SOL    HW128407   2.492   8.733   1.254
42211SOL    HW228408   2.345   8.769   1.254
42212SOL     OW28409  14.858  14.136  11.445
42212SOL    HW128410  14.824  14.095  11.525
42212SOL    HW228411   0.022  14.216  11.476
42213SOL     OW28412   2.610   7.743   7.959
42213SOL    HW128413   2.565   7.717   7.879
42213SOL    HW228414   2.669   7.813   7.933
42214SOL     OW28415   5.899  12.895   2.209
42214SOL    HW128416   5.956  12.915   2.135
42214SOL    HW228417   5.876  12.981   2.245
42215SOL     OW28418  11.769  10.820   4.769
42215SOL    HW128419  11.721  10.819   4.686
42215SOL    HW228420  11.834  10.750   4.761
42216SOL     OW28421   0.318  11.404  13.382
42216SOL    HW128422   0.243  11.348  13.399
42216SOL    HW228423   0.281  11.492  13.372
42217SOL     OW28424  11.063   1.376  12.912
42217SOL    HW128425  11.137   1.362  12.853
42217SOL    HW228426  11.005   1.436  12.864
42218SOL     OW28427   2.926   3.575   7.687
42218SOL    HW128428   3.002   3.629   7.711
42218SOL    HW228429   2.879   3.563   7.770
42219SOL     OW28430   0.901  12.118   4.647
42219SOL    HW128431   0.836  12.078   4.705
42219SOL    HW228432   0.926  12.048   4.587
42220SOL     OW28433  13.526   7.860  12.313
42220SOL    HW128434  13.558   7.948  12.290
42220SOL    HW228435  13.435   7.860  12.283
42221SOL     OW28436   0.642  14.027   5.345
42221SOL    HW128437   0.569  14.049   5.288
42221SOL    HW228438   0.645  13.931   5.345
42222SOL     OW28439   0.808   2.520   3.867
42222SOL    HW128440   0.802   2.432   3.904
42222SOL    HW228441   0.809   2.507   3.772
42223SOL     OW28442  14.174   8.225   7.466
42223SOL    HW128443  14.190   8.212   7.373
42223SOL    HW228444  14.215   8.309   7.486
42224SOL     OW28445   8.395   6.254   0.394
42224SOL    HW128446   8.402   6.273   0.300
42224SOL    HW228447   8.484   6.229   0.419
42225SOL     OW28448   2.563   3.907  12.710
42225SOL    HW128449   2.525   3.850  12.777
42225SOL    HW228450   2.506   3.896  12.634
42226SOL     OW28451   7.205  10.553   6.817
42226SOL    HW128452   7.182  10.645   6.803
42226SOL    HW228453   7.158  10.530   6.898
42227SOL     OW28454  11.774   9.942  12.403
42227SOL    HW128455  11.770   9.915  12.495
42227SOL    HW228456  11.735   9.869  12.355
42228SOL     OW28457  10.464   3.004  10.141
42228SOL    HW128458  10.425   2.978  10.057
42228SOL    HW228459  10.557   3.018  10.121
42229SOL     OW28460   0.170   0.335  11.168
42229SOL    HW128461   0.203   0.261  11.118
42229SOL    HW228462   0.240   0.400  11.164
42230SOL     OW28463  13.754   7.467  14.317
42230SOL    HW128464  13.827   7.519  14.285
42230SOL    HW228465  13.680   7.527  14.321
42231SOL     OW28466   6.187   9.790   8.602
42231SOL    HW128467   6.277   9.772   8.630
42231SOL    HW228468   6.135   9.720   8.640
42232SOL     OW28469   5.987   1.755   7.254
42232SOL    HW128470   6.081   1.772   7.256
42232SOL    HW228471   5.975   1.696   7.180
42233SOL     OW28472   4.000   4.155   0.892
42233SOL    HW128473   4.086   4.156   0.935
42233SOL    HW228474   3.957   4.235   0.923
42234SOL     OW28475   2.662  11.790   5.281
42234SOL    HW128476   2.651  11.820   5.191
42234SOL    HW228477   2.727  11.719   5.275
42235SOL     OW28478   2.939  12.290   2.436
42235SOL    HW128479   2.872  12.356   2.418
42235SOL    HW228480   2.894  12.223   2.488
42236SOL     OW28481   5.973   1.549  14.368
42236SOL    HW128482   5.929   1.489  14.427
42236SOL    HW228483   5.955   1.515  14.281
42237SOL     OW28484   8.446  11.996   1.363
42237SOL    HW128485   8.419  12.082   1.328
42237SOL    HW228486   8.382  11.977   1.432
42238SOL     OW28487   1.619  13.049  14.833
42238SOL    HW128488   1.539  13.101  14.833
42238SOL    HW228489   1.687  13.109  14.863
42239SOL     OW28490  10.917   5.811   5.210
42239SOL    HW128491  10.908   5.899   5.247
42239SOL    HW228492  10.828   5.779   5.201
42240SOL     OW28493   9.625   9.551   6.994
42240SOL    HW128494   9.662   9.631   6.958
42240SOL    HW228495   9.700   9.501   7.025
42241SOL     OW28496   6.251  11.711   3.515
42241SOL    HW128497   6.184  11.709   3.446
42241SOL    HW228498   6.329  11.675   3.474
42242SOL     OW28499  13.595  14.502   3.878
42242SOL    HW128500  13.525  14.525   3.938
42242SOL    HW228501  13.564  14.423   3.834
42243SOL     OW28502   3.644   0.700   3.941
42243SOL    HW128503   3.687   0.712   3.857
42243SOL    HW228504   3.715   0.711   4.005
42244SOL     OW28505   1.634   6.629   9.726
42244SOL    HW128506   1.684   6.662   9.802
42244SOL    HW228507   1.549   6.604   9.762
42245SOL     OW28508   5.705   7.295  10.271
42245SOL    HW128509   5.707   7.312  10.366
42245SOL    HW228510   5.791   7.257  10.252
42246SOL     OW28511   0.419  12.209  13.197
42246SOL    HW128512   0.404  12.155  13.120
42246SOL    HW228513   0.334  12.212  13.241
42247SOL     OW28514   6.663   7.277   8.242
42247SOL    HW128515   6.601   7.220   8.195
42247SOL    HW228516   6.611   7.315   8.313
42248SOL     OW28517   0.050  13.333  12.223
42248SOL    HW128518  14.853  13.276  12.206
42248SOL    HW228519   0.090  13.297  12.302
42249SOL     OW28520  10.257   0.042   0.648
42249SOL    HW128521  10.199  14.848   0.674
42249SOL    HW228522  10.248   0.047   0.553
42250SOL     OW28523   3.190   1.690   4.550
42250SOL    HW128524   3.188   1.595   4.536
42250SOL    HW228525   3.124   1.706   4.617
42251SOL     OW28526   6.475  10.182  14.207
42251SOL    HW128527   6.400  10.123  14.211
42251SOL    HW228528   6.436  10.270  14.209
42252SOL     OW28529   4.841   4.564  13.567
42252SOL    HW128530   4.765   4.511  13.590
42252SOL    HW228531   4.916   4.514  13.601
42253SOL     OW28532  10.771  12.822   9.851
42253SOL    HW128533  10.821  12.746   9.881
42253SOL    HW228534  10.734  12.795   9.767
42254SOL     OW28535   9.314   7.874   4.738
42254SOL    HW128536   9.282   7.955   4.779
42254SOL    HW228537   9.242   7.812   4.747
42255SOL     OW28538   4.548   1.800  12.707
42255SOL    HW128539   4.464   1.759  12.726
42255SOL    HW228540   4.611   1.750  12.759
42256SOL     OW28541   9.802   1.785  10.884
42256SOL    HW128542   9.831   1.694  10.892
42256SOL    HW228543   9.882   1.836  10.893
42257SOL     OW28544   6.564   5.638  12.393
42257SOL    HW128545   6.525   5.621  12.478
42257SOL    HW228546   6.657   5.650  12.411
42258SOL     OW28547   5.595   0.234  12.574
42258SOL    HW128548   5.595   0.144  12.540
42258SOL    HW228549   5.532   0.280  12.519
42259SOL     OW28550  10.669   6.044  14.093
42259SOL    HW128551  10.656   5.949  14.087
42259SOL    HW228552  10.663   6.063  14.186
42260SOL     OW28553   1.713   7.689   5.316
42260SOL    HW128554   1.703   7.779   5.286
42260SOL    HW228555   1.803   7.666   5.295
42261SOL     OW28556   6.632  11.753   0.220
42261SOL    HW128557   6.644  11.738   0.126
42261SOL    HW228558   6.720  11.745   0.257
42262SOL     OW28559   4.034  14.766   4.886
42262SOL    HW128560   4.085  14.701   4.934
42262SOL    HW228561   3.947  14.761   4.924
42263SOL     OW28562   8.631   9.727   3.799
42263SOL    HW128563   8.582   9.809   3.794
42263SOL    HW228564   8.583   9.667   3.742
42264SOL     OW28565   4.054  14.169   2.103
42264SOL    HW128566   4.065  14.136   2.192
42264SOL    HW228567   4.119  14.121   2.051
42265SOL     OW28568   9.273   3.064   1.260
42265SOL    HW128569   9.296   2.978   1.224
42265SOL    HW228570   9.178   3.071   1.248
42266SOL     OW28571  13.984  12.351  12.288
42266SOL    HW128572  14.055  12.306  12.244
42266SOL    HW228573  13.987  12.440  12.254
42267SOL     OW28574   4.710  13.380  13.553
42267SOL    HW128575   4.733  13.463  13.512
42267SOL    HW228576   4.621  13.363  13.522
42268SOL     OW28577   4.367  10.365   5.466
42268SOL    HW128578   4.401  10.416   5.540
42268SOL    HW228579   4.374  10.274   5.494
42269SOL     OW28580  13.903  12.663  13.904
42269SOL    HW128581  13.865  12.653  13.991
42269SOL    HW228582  13.948  12.747  13.906
42270SOL     OW28583   7.216   5.690   7.131
42270SOL    HW128584   7.276   5.765   7.122
42270SOL    HW228585   7.179   5.678   7.044
42271SOL     OW28586   7.152  13.025  12.254
42271SOL    HW128587   7.069  13.059  12.288
42271SOL    HW228588   7.216  13.045  12.323
42272SOL     OW28589   1.638   5.285  11.023
42272SOL    HW128590   1.682   5.353  11.074
42272SOL    HW228591   1.558   5.326  10.991
42273SOL     OW28592   6.095  13.098  13.057
42273SOL    HW128593   6.162  13.039  13.092
42273SOL    HW228594   6.099  13.087  12.963
42274SOL     OW28595   6.617   5.320  11.509
42274SOL    HW128596   6.528   5.329  11.474
42274SOL    HW228597   6.605   5.327  11.604
42275SOL     OW28598   8.548   1.988   2.528
42275SOL    HW128599   8.584   2.064   2.482
42275SOL    HW228600   8.488   2.026   2.591
42276SOL     OW28601  14.877  12.771  14.116
42276SOL    HW128602   0.032  12.773  14.026
42276SOL    HW228603   0.002  12.863  14.144
42277SOL     OW28604   9.846   7.796  13.362
42277SOL    HW128605   9.936   7.790  13.332
42277SOL    HW228606   9.793   7.784  13.284
42278SOL     OW28607   4.712  14.124  11.070
42278SOL    HW128608   4.768  14.047  11.067
42278SOL    HW228609   4.640  14.099  11.129
42279SOL     OW28610   1.041   1.660   6.363
42279SOL    HW128611   1.011   1.618   6.444
42279SOL    HW228612   1.067   1.587   6.306
42280SOL     OW28613  13.500   9.166   0.259
42280SOL    HW128614  13.441   9.091   0.248
42280SOL    HW228615  13.524   9.191   0.170
42281SOL     OW28616  11.317   0.880   8.266
42281SOL    HW128617  11.317   0.862   8.360
42281SOL    HW228618  11.271   0.963   8.257
42282SOL     OW28619   2.581  14.053  14.056
42282SOL    HW128620   2.498  14.009  14.037
42282SOL    HW228621   2.605  14.021  14.143
42283SOL     OW28622   9.289   4.066   3.343
42283SOL    HW128623   9.343   4.144   3.354
42283SOL    HW228624   9.210   4.097   3.299
42284SOL     OW28625   3.853   0.300   0.336
42284SOL    HW128626   3.917   0.269   0.400
42284SOL    HW228627   3.832   0.223   0.284
42285SOL     OW28628   8.618  11.448  11.824
42285SOL    HW128629   8.619  11.353  11.839
42285SOL    HW228630   8.558  11.460  11.750
42286SOL     OW28631   1.525   3.483   9.668
42286SOL    HW128632   1.565   3.570   9.665
42286SOL    HW228633   1.588   3.429   9.716
42287SOL     OW28634  12.659   3.265   9.882
42287SOL    HW128635  12.581   3.257   9.828
42287SOL    HW228636  12.720   3.200   9.845
42288SOL     OW28637   1.391   0.723  10.346
42288SOL    HW128638   1.483   0.702  10.335
42288SOL    HW228639   1.349   0.640  10.368
42289SOL     OW28640   8.726   9.477   7.176
42289SOL    HW128641   8.649   9.493   7.231
42289SOL    HW228642   8.712   9.389   7.142
42290SOL     OW28643   2.391   4.606   8.101
42290SOL    HW128644   2.366   4.653   8.021
42290SOL    HW228645   2.335   4.528   8.101
42291SOL     OW28646   4.101  14.130   9.407
42291SOL    HW128647   4.049  14.181   9.469
42291SOL    HW228648   4.083  14.039   9.430
42292SOL     OW28649   9.486   8.504  12.868
42292SOL    HW128650   9.442   8.427  12.832
42292SOL    HW228651   9.423   8.576  12.854
42293SOL     OW28652   5.846  14.495   5.695
42293SOL    HW128653   5.755  14.525   5.701
42293SOL    HW228654   5.894  14.553   5.754
42294SOL     OW28655  10.613   4.276   3.946
42294SOL    HW128656  10.529   4.243   3.979
42294SOL    HW228657  10.650   4.326   4.019
42295SOL     OW28658   4.445   3.216   8.576
42295SOL    HW128659   4.414   3.144   8.521
42295SOL    HW228660   4.424   3.295   8.527
42296SOL     OW28661   7.727   9.377   8.870
42296SOL    HW128662   7.795   9.319   8.836
42296SOL    HW228663   7.733   9.368   8.965
42297SOL     OW28664  10.402   7.653   3.288
42297SOL    HW128665  10.342   7.727   3.288
42297SOL    HW228666  10.395   7.616   3.199
42298SOL     OW28667  12.859  10.093   2.282
42298SOL    HW128668  12.864  10.013   2.230
42298SOL    HW228669  12.853  10.063   2.373
42299SOL     OW28670   2.561   3.829  12.087
42299SOL    HW128671   2.470   3.812  12.111
42299SOL    HW228672   2.556   3.858  11.995
42300SOL     OW28673   9.531   0.067   2.321
42300SOL    HW128674   9.478  14.865   2.319
42300SOL    HW228675   9.472   0.136   2.291
42301SOL     OW28676   8.476   5.511  12.850
42301SOL    HW128677   8.442   5.504  12.761
42301SOL    HW228678   8.399   5.522  12.905
42302SOL     OW28679  12.263   8.973   2.734
42302SOL    HW128680  12.188   8.931   2.776
42302SOL    HW228681  12.225   9.025   2.663
42303SOL     OW28682   4.859   4.895   3.477
42303SOL    HW128683   4.942   4.906   3.431
42303SOL    HW228684   4.875   4.933   3.563
42304SOL     OW28685   9.982   0.589   6.686
42304SOL    HW128686  10.007   0.570   6.596
42304SOL    HW228687   9.889   0.567   6.690
42305SOL     OW28688   4.194   5.949  12.058
42305SOL    HW128689   4.230   5.979  11.974
42305SOL    HW228690   4.252   5.878  12.084
42306SOL     OW28691   6.947  13.178   5.448
42306SOL    HW128692   6.855  13.156   5.465
42306SOL    HW228693   6.997  13.111   5.493
42307SOL     OW28694  12.906   4.173   0.993
42307SOL    HW128695  12.832   4.133   1.037
42307SOL    HW228696  12.967   4.195   1.064
42308SOL     OW28697  11.697  14.329   6.004
42308SOL    HW128698  11.745  14.276   5.940
42308SOL    HW228699  11.734  14.417   5.994
42309SOL     OW28700   4.561   0.214  13.772
42309SOL    HW128701   4.612   0.163  13.709
42309SOL    HW228702   4.477   0.167  13.779
42310SOL     OW28703  12.450   3.545   4.385
42310SOL    HW128704  12.541   3.516   4.389
42310SOL    HW228705  12.452   3.634   4.418
42311SOL     OW28706   2.172   1.307   1.684
42311SOL    HW128707   2.174   1.231   1.625
42311SOL    HW228708   2.117   1.278   1.757
42312SOL     OW28709  11.526   3.009   4.682
42312SOL    HW128710  11.615   3.014   4.716
42312SOL    HW228711  11.478   3.076   4.731
42313SOL     OW28712   5.093   4.936   9.203
42313SOL    HW128713   5.077   4.941   9.109
42313SOL    HW228714   5.130   4.849   9.217
42314SOL     OW28715   4.702   7.970  10.906
42314SOL    HW128716   4.734   7.884  10.879
42314SOL    HW228717   4.606   7.962  10.901
42315SOL     OW28718   2.073  10.743   5.520
42315SOL    HW128719   1.995  10.762   5.572
42315SOL    HW228720   2.040  10.737   5.430
42316SOL     OW28721   4.484   9.953   9.119
42316SOL    HW128722   4.475  10.005   9.198
42316SOL    HW228723   4.565   9.983   9.079
42317SOL     OW28724   5.680   0.720   9.301
42317SOL    HW128725   5.737   0.783   9.256
42317SOL    HW228726   5.690   0.639   9.251
42318SOL     OW28727   1.586  13.460  12.580
42318SOL    HW128728   1.604  13.552  12.562
42318SOL    HW228729   1.575  13.421  12.493
42319SOL     OW28730   5.606   9.050   0.184
42319SOL    HW128731   5.689   9.035   0.229
42319SOL    HW228732   5.549   8.979   0.213
42320SOL     OW28733   7.490   5.530   4.194
42320SOL    HW128734   7.514   5.497   4.107
42320SOL    HW228735   7.419   5.472   4.222
42321SOL     OW28736  11.206   8.836  14.182
42321SOL    HW128737  11.222   8.834  14.088
42321SOL    HW228738  11.264   8.769  14.218
42322SOL     OW28739  11.542   4.394   5.207
42322SOL    HW128740  11.464   4.340   5.219
42322SOL    HW228741  11.601   4.367   5.277
42323SOL     OW28742  10.601   9.189  11.105
42323SOL    HW128743  10.572   9.264  11.156
42323SOL    HW228744  10.528   9.171  11.045
42324SOL     OW28745  10.901   8.334   6.858
42324SOL    HW128746  10.831   8.390   6.891
42324SOL    HW228747  10.875   8.246   6.886
42325SOL     OW28748   9.352   3.209   5.449
42325SOL    HW128749   9.445   3.191   5.468
42325SOL    HW228750   9.353   3.244   5.360
42326SOL     OW28751   4.772  11.934   5.400
42326SOL    HW128752   4.807  12.020   5.380
42326SOL    HW228753   4.691  11.951   5.448
42327SOL     OW28754   6.546   3.344  12.677
42327SOL    HW128755   6.499   3.425  12.695
42327SOL    HW228756   6.497   3.303  12.606
42328SOL     OW28757   3.404   0.895   8.832
42328SOL    HW128758   3.358   0.890   8.916
42328SOL    HW228759   3.459   0.974   8.839
42329SOL     OW28760   6.538  11.676   9.179
42329SOL    HW128761   6.550  11.612   9.249
42329SOL    HW228762   6.460  11.645   9.132
42330SOL     OW28763   5.855  11.075   8.692
42330SOL    HW128764   5.846  11.142   8.625
42330SOL    HW228765   5.812  10.998   8.656
42331SOL     OW28766  13.063  14.673  11.216
42331SOL    HW128767  13.115  14.660  11.137
42331SOL    HW228768  12.973  14.655  11.189
42332SOL     OW28769  11.921   3.903  13.889
42332SOL    HW128770  11.834   3.932  13.916
42332SOL    HW228771  11.973   3.984  13.885
42333SOL     OW28772  10.533   6.625  12.097
42333SOL    HW128773  10.597   6.674  12.045
42333SOL    HW228774  10.457   6.616  12.040
42334SOL     OW28775   3.391   0.135   1.302
42334SOL    HW128776   3.339   0.185   1.239
42334SOL    HW228777   3.481   0.167   1.290
42335SOL     OW28778   2.200   7.219   3.885
42335SOL    HW128779   2.197   7.274   3.806
42335SOL    HW228780   2.166   7.275   3.954
42336SOL     OW28781  13.969   0.022   2.832
42336SOL    HW128782  13.972  14.821   2.777
42336SOL    HW228783  14.049   0.017   2.885
42337SOL     OW28784  10.823   3.945  10.830
42337SOL    HW128785  10.839   4.019  10.889
42337SOL    HW228786  10.730   3.949  10.810
42338SOL     OW28787   2.711   9.563   2.744
42338SOL    HW128788   2.754   9.478   2.736
42338SOL    HW228789   2.667   9.560   2.829
42339SOL     OW28790   2.032  13.122   8.301
42339SOL    HW128791   2.071  13.057   8.243
42339SOL    HW228792   2.017  13.075   8.383
42340SOL     OW28793  12.058   8.190   3.642
42340SOL    HW128794  12.060   8.100   3.609
42340SOL    HW228795  11.965   8.212   3.646
42341SOL     OW28796   9.567   4.346  12.967
42341SOL    HW128797   9.593   4.257  12.944
42341SOL    HW228798   9.645   4.399  12.947
42342SOL     OW28799   2.163   2.658  10.870
42342SOL    HW128800   2.245   2.706  10.880
42342SOL    HW228801   2.123   2.659  10.957
42343SOL     OW28802   6.523   6.271   7.440
42343SOL    HW128803   6.503   6.300   7.351
42343SOL    HW228804   6.437   6.255   7.479
42344SOL     OW28805   6.326  13.752   6.147
42344SOL    HW128806   6.270  13.790   6.079
42344SOL    HW228807   6.361  13.672   6.108
42345SOL     OW28808   4.964   4.220   3.470
42345SOL    HW128809   5.035   4.233   3.407
42345SOL    HW228810   4.951   4.125   3.472
42346SOL     OW28811   5.603  11.316   1.876
42346SOL    HW128812   5.622  11.356   1.791
42346SOL    HW228813   5.585  11.391   1.933
42347SOL     OW28814   1.926  10.993   5.620
42347SOL    HW128815   1.838  10.960   5.608
42347SOL    HW228816   1.959  11.008   5.532
42348SOL     OW28817  14.523   9.467   7.517
42348SOL    HW128818  14.564   9.491   7.600
42348SOL    HW228819  14.576   9.510   7.450
42349SOL     OW28820   3.958   4.519   1.113
42349SOL    HW128821   3.983   4.487   1.200
42349SOL    HW228822   3.923   4.442   1.069
42350SOL     OW28823   4.883   9.161   0.240
42350SOL    HW128824   4.933   9.239   0.264
42350SOL    HW228825   4.867   9.117   0.324
42351SOL     OW28826  10.510   9.357   3.939
42351SOL    HW128827  10.481   9.267   3.949
42351SOL    HW228828  10.601   9.350   3.910
42352SOL     OW28829   3.334   9.981  11.936
42352SOL    HW128830   3.254   9.954  11.980
42352SOL    HW228831   3.334   9.932  11.854
42353SOL     OW28832  12.121   1.462   4.379
42353SOL    HW128833  12.093   1.483   4.468
42353SOL    HW228834  12.069   1.386   4.354
42354SOL     OW28835   3.472   0.936   7.237
42354SOL    HW128836   3.464   0.888   7.154
42354SOL    HW228837   3.406   1.006   7.230
42355SOL     OW28838   5.231   1.164  10.823
42355SOL    HW128839   5.247   1.256  10.802
42355SOL    HW228840   5.262   1.154  10.913
42356SOL     OW28841  14.385   4.440   8.866
42356SOL    HW128842  14.465   4.490   8.878
42356SOL    HW228843  14.364   4.448   8.773
42357SOL     OW28844  13.116   5.653   1.403
42357SOL    HW128845  13.078   5.738   1.384
42357SOL    HW228846  13.183   5.641   1.335
42358SOL     OW28847   0.115   1.307   8.214
42358SOL    HW128848   0.198   1.354   8.216
42358SOL    HW228849   0.051   1.370   8.250
42359SOL     OW28850   7.110  11.447  12.091
42359SOL    HW128851   7.021  11.469  12.065
42359SOL    HW228852   7.122  11.492  12.175
42360SOL     OW28853   3.667   5.820   1.486
42360SOL    HW128854   3.592   5.783   1.440
42360SOL    HW228855   3.727   5.746   1.499
42361SOL     OW28856   4.638   0.753  13.565
42361SOL    HW128857   4.692   0.740  13.487
42361SOL    HW228858   4.675   0.691  13.629
42362SOL     OW28859   0.820  13.701   2.366
42362SOL    HW128860   0.849  13.622   2.320
42362SOL    HW228861   0.868  13.698   2.449
42363SOL     OW28862   4.867   5.173   7.830
42363SOL    HW128863   4.944   5.169   7.886
42363SOL    HW228864   4.796   5.198   7.889
42364SOL     OW28865   7.612   1.587   0.577
42364SOL    HW128866   7.694   1.619   0.615
42364SOL    HW228867   7.621   1.492   0.578
42365SOL     OW28868   5.607   4.948   3.834
42365SOL    HW128869   5.518   4.978   3.813
42365SOL    HW228870   5.608   4.943   3.929
42366SOL     OW28871   8.630   3.478   9.575
42366SOL    HW128872   8.722   3.450   9.571
42366SOL    HW228873   8.613   3.488   9.669
42367SOL     OW28874  12.738   2.185   2.938
42367SOL    HW128875  12.703   2.273   2.924
42367SOL    HW228876  12.832   2.198   2.949
42368SOL     OW28877   5.023   8.549   0.699
42368SOL    HW128878   5.062   8.636   0.692
42368SOL    HW228879   4.971   8.539   0.619
42369SOL     OW28880  12.017  13.723   9.239
42369SOL    HW128881  12.044  13.798   9.187
42369SOL    HW228882  12.086  13.714   9.305
42370SOL     OW28883   0.383   8.537   4.888
42370SOL    HW128884   0.328   8.615   4.881
42370SOL    HW228885   0.372   8.508   4.979
42371SOL     OW28886   8.333  14.766   7.437
42371SOL    HW128887   8.365  14.842   7.486
42371SOL    HW228888   8.315  14.700   7.503
42372SOL     OW28889   0.879  10.489   5.297
42372SOL    HW128890   0.934  10.506   5.221
42372SOL    HW228891   0.940  10.463   5.366
42373SOL     OW28892  11.965   5.490   9.924
42373SOL    HW128893  11.964   5.576   9.967
42373SOL    HW228894  12.058   5.469   9.914
42374SOL     OW28895   4.271  11.656  12.117
42374SOL    HW128896   4.258  11.561  12.116
42374SOL    HW228897   4.353  11.669  12.165
42375SOL     OW28898  13.505  11.077   5.833
42375SOL    HW128899  13.591  11.041   5.852
42375SOL    HW228900  13.445  11.002   5.839
42376SOL     OW28901   6.740  11.026   3.530
42376SOL    HW128902   6.669  11.026   3.466
42376SOL    HW228903   6.777  11.114   3.524
42377SOL     OW28904   9.790   4.487  12.897
42377SOL    HW128905   9.784   4.497  12.802
42377SOL    HW228906   9.784   4.576  12.932
42378SOL     OW28907   8.681   7.290   0.021
42378SOL    HW128908   8.670   7.200   0.050
42378SOL    HW228909   8.613   7.304  14.834
42379SOL     OW28910   1.236  10.285   1.825
42379SOL    HW128911   1.245  10.196   1.859
42379SOL    HW228912   1.179  10.275   1.749
42380SOL     OW28913   6.682   9.039   0.018
42380SOL    HW128914   6.624   9.027  14.821
42380SOL    HW228915   6.744   9.106  14.868
42381SOL     OW28916   3.407  13.955   0.839
42381SOL    HW128917   3.375  14.041   0.812
42381SOL    HW228918   3.501  13.969   0.854
42382SOL     OW28919  11.768   5.094   5.973
42382SOL    HW128920  11.803   5.166   5.921
42382SOL    HW228921  11.741   5.028   5.908
42383SOL     OW28922   9.233   3.217  11.614
42383SOL    HW128923   9.289   3.286  11.650
42383SOL    HW228924   9.273   3.197  11.529
42384SOL     OW28925   2.943  14.038   0.144
42384SOL    HW128926   2.899  14.117   0.114
42384SOL    HW228927   2.871  13.978   0.166
42385SOL     OW28928  13.064   9.308  13.745
42385SOL    HW128929  12.976   9.325  13.710
42385SOL    HW228930  13.123   9.332  13.673
42386SOL     OW28931   9.931  13.906   8.579
42386SOL    HW128932  10.013  13.915   8.531
42386SOL    HW228933   9.866  13.951   8.524
42387SOL     OW28934   8.700   4.902  14.764
42387SOL    HW128935   8.640   4.946  14.824
42387SOL    HW228936   8.717   4.817  14.805
42388SOL     OW28937   6.328   3.991   1.177
42388SOL    HW128938   6.348   4.052   1.106
42388SOL    HW228939   6.257   4.033   1.225
42389SOL     OW28940   2.769  10.019  13.091
42389SOL    HW128941   2.742   9.927  13.085
42389SOL    HW228942   2.856  10.016  13.131
42390SOL     OW28943   7.160   7.577   0.901
42390SOL    HW128944   7.173   7.573   0.807
42390SOL    HW228945   7.248   7.584   0.938
42391SOL     OW28946  11.039   5.696   9.855
42391SOL    HW128947  11.071   5.647   9.780
42391SOL    HW228948  11.010   5.629   9.917
42392SOL     OW28949  14.563   3.634   7.867
42392SOL    HW128950  14.607   3.631   7.952
42392SOL    HW228951  14.617   3.693   7.814
42393SOL     OW28952   8.039   1.296   3.407
42393SOL    HW128953   8.068   1.221   3.458
42393SOL    HW228954   8.012   1.259   3.323
42394SOL     OW28955   4.679  11.921   7.686
42394SOL    HW128956   4.770  11.896   7.669
42394SOL    HW228957   4.644  11.944   7.600
42395SOL     OW28958   1.853   7.757   4.585
42395SOL    HW128959   1.795   7.806   4.527
42395SOL    HW228960   1.814   7.767   4.672
42396SOL     OW28961  12.806   7.650  14.231
42396SOL    HW128962  12.836   7.675  14.318
42396SOL    HW228963  12.883   7.609  14.191
42397SOL     OW28964   5.979   6.303   5.441
42397SOL    HW128965   6.059   6.353   5.458
42397SOL    HW228966   5.988   6.225   5.497
42398SOL     OW28967   7.291  10.599   4.104
42398SOL    HW128968   7.231  10.626   4.174
42398SOL    HW228969   7.317  10.681   4.062
42399SOL     OW28970   7.551   0.022   8.203
42399SOL    HW128971   7.536  14.843   8.127
42399SOL    HW228972   7.571  14.840   8.275
42400SOL     OW28973   9.764   0.899   7.957
42400SOL    HW128974   9.693   0.851   7.999
42400SOL    HW228975   9.789   0.845   7.883
42401SOL     OW28976  10.558   6.860   1.783
42401SOL    HW128977  10.471   6.839   1.749
42401SOL    HW228978  10.566   6.955   1.772
42402SOL     OW28979   3.533   5.208  13.936
42402SOL    HW128980   3.612   5.154  13.945
42402SOL    HW228981   3.556   5.273  13.869
42403SOL     OW28982  10.774   9.007   2.458
42403SOL    HW128983  10.708   8.942   2.436
42403SOL    HW228984  10.848   8.957   2.492
42404SOL     OW28985  10.796   8.751   8.151
42404SOL    HW128986  10.881   8.795   8.154
42404SOL    HW228987  10.790   8.715   8.063
42405SOL     OW28988   6.580   6.603   5.676
42405SOL    HW128989   6.521   6.669   5.712
42405SOL    HW228990   6.538   6.520   5.697
42406SOL     OW28991   8.541   9.708   3.332
42406SOL    HW128992   8.546   9.625   3.286
42406SOL    HW228993   8.450   9.713   3.362
42407SOL     OW28994   5.910   1.025   2.252
42407SOL    HW128995   5.848   1.002   2.321
42407SOL    HW228996   5.864   1.005   2.171
42408SOL     OW28997   7.325   0.466  11.747
42408SOL    HW128998   7.360   0.522  11.677
42408SOL    HW228999   7.384   0.391  11.749
42409SOL     OW29000   9.144   5.846   7.026
42409SOL    HW129001   9.169   5.875   7.114
42409SOL    HW229002   9.100   5.762   7.041
42410SOL     OW29003  10.307  12.242   6.706
42410SOL    HW129004  10.274  12.174   6.648
42410SOL    HW229005  10.387  12.206   6.744
42411SOL     OW29006  11.658   8.908  13.185
42411SOL    HW129007  11.703   8.993  13.180
42411SOL    HW229008  11.585   8.916  13.123
42412SOL     OW29009   4.638  11.526   5.083
42412SOL    HW129010   4.679  11.612   5.082
42412SOL    HW229011   4.567  11.534   5.146
42413SOL     OW29012   2.884   9.000   1.165
42413SOL    HW129013   2.879   8.905   1.177
42413SOL    HW229014   2.797   9.031   1.191
42414SOL     OW29015   8.020  14.596  14.215
42414SOL    HW129016   7.960  14.638  14.276
42414SOL    HW229017   8.007  14.643  14.132
42415SOL     OW29018   3.109   7.698  10.796
42415SOL    HW129019   3.159   7.655  10.726
42415SOL    HW229020   3.175   7.729  10.857
42416SOL     OW29021   3.126   9.839   3.574
42416SOL    HW129022   3.184   9.763   3.572
42416SOL    HW229023   3.043   9.805   3.608
42417SOL     OW29024   1.854   1.566  14.625
42417SOL    HW129025   1.777   1.609  14.587
42417SOL    HW229026   1.848   1.476  14.594
42418SOL     OW29027  11.850  10.135   3.486
42418SOL    HW129028  11.931  10.117   3.440
42418SOL    HW229029  11.781  10.097   3.431
42419SOL     OW29030   5.237   3.679   7.122
42419SOL    HW129031   5.249   3.644   7.034
42419SOL    HW229032   5.152   3.646   7.150
42420SOL     OW29033  12.269   0.929  10.847
42420SOL    HW129034  12.244   1.002  10.904
42420SOL    HW229035  12.364   0.937  10.839
42421SOL     OW29036   3.236  13.407   9.774
42421SOL    HW129037   3.188  13.327   9.798
42421SOL    HW229038   3.239  13.458   9.855
42422SOL     OW29039  11.255   8.333   3.197
42422SOL    HW129040  11.209   8.410   3.230
42422SOL    HW229041  11.317   8.368   3.133
42423SOL     OW29042   5.367   3.743   8.100
42423SOL    HW129043   5.322   3.815   8.143
42423SOL    HW229044   5.454   3.776   8.081
42424SOL     OW29045   4.603   0.259   4.464
42424SOL    HW129046   4.584   0.331   4.404
42424SOL    HW229047   4.583   0.295   4.551
42425SOL     OW29048   8.014  13.269   2.305
42425SOL    HW129049   7.922  13.295   2.309
42425SOL    HW229050   8.060  13.337   2.355
42426SOL     OW29051  13.495  10.368   8.368
42426SOL    HW129052  13.442  10.434   8.411
42426SOL    HW229053  13.547  10.417   8.303
42427SOL     OW29054  12.506   0.811  10.139
42427SOL    HW129055  12.505   0.716  10.150
42427SOL    HW229056  12.598   0.831  10.121
42428SOL     OW29057   8.543   4.476   2.510
42428SOL    HW129058   8.496   4.453   2.591
42428SOL    HW229059   8.495   4.430   2.441
42429SOL     OW29060  13.997   8.646   5.626
42429SOL    HW129061  14.048   8.725   5.644
42429SOL    HW229062  14.026   8.584   5.693
42430SOL     OW29063   6.399  13.521   2.048
42430SOL    HW129064   6.424  13.430   2.031
42430SOL    HW229065   6.482  13.569   2.052
42431SOL     OW29066   5.444  13.373   4.011
42431SOL    HW129067   5.476  13.285   3.990
42431SOL    HW229068   5.349  13.365   4.010
42432SOL     OW29069  11.921  13.709   6.296
42432SOL    HW129070  11.899  13.628   6.249
42432SOL    HW229071  11.981  13.682   6.365
42433SOL     OW29072  11.294  12.453   2.380
42433SOL    HW129073  11.255  12.463   2.467
42433SOL    HW229074  11.233  12.497   2.321
42434SOL     OW29075   9.776   5.284  12.159
42434SOL    HW129076   9.762   5.189  12.154
42434SOL    HW229077   9.806   5.299  12.248
42435SOL     OW29078   7.453  13.570   2.321
42435SOL    HW129079   7.509  13.573   2.399
42435SOL    HW229080   7.422  13.479   2.317
42436SOL     OW29081  13.692  12.576  13.432
42436SOL    HW129082  13.761  12.546  13.373
42436SOL    HW229083  13.739  12.608  13.509
42437SOL     OW29084   7.684   7.735   9.084
42437SOL    HW129085   7.757   7.786   9.049
42437SOL    HW229086   7.607   7.769   9.039
42438SOL     OW29087   5.701   3.245   4.158
42438SOL    HW129088   5.719   3.300   4.082
42438SOL    HW229089   5.614   3.271   4.188
42439SOL     OW29090   3.436  12.990  10.505
42439SOL    HW129091   3.395  12.904  10.496
42439SOL    HW229092   3.370  13.045  10.546
42440SOL     OW29093   3.165  12.289  13.077
42440SOL    HW129094   3.161  12.383  13.060
42440SOL    HW229095   3.097  12.274  13.143
42441SOL     OW29096   3.992   7.015   5.232
42441SOL    HW129097   3.956   6.960   5.162
42441SOL    HW229098   4.001   6.956   5.307
42442SOL     OW29099   1.421  13.264   4.860
42442SOL    HW129100   1.447  13.248   4.950
42442SOL    HW229101   1.441  13.182   4.814
42443SOL     OW29102   2.628   1.320   5.571
42443SOL    HW129103   2.644   1.226   5.573
42443SOL    HW229104   2.572   1.334   5.495
42444SOL     OW29105   7.718   1.037   4.593
42444SOL    HW129106   7.789   1.001   4.540
42444SOL    HW229107   7.695   0.967   4.654
42445SOL     OW29108   2.475   5.871  11.593
42445SOL    HW129109   2.547   5.875  11.531
42445SOL    HW229110   2.400   5.907  11.545
42446SOL     OW29111   6.473   4.151   5.002
42446SOL    HW129112   6.483   4.165   5.096
42446SOL    HW229113   6.546   4.093   4.979
42447SOL     OW29114   0.748  14.036   2.007
42447SOL    HW129115   0.672  13.986   1.978
42447SOL    HW229116   0.821  13.975   1.996
42448SOL     OW29117  13.773  13.667  13.933
42448SOL    HW129118  13.860  13.645  13.901
42448SOL    HW229119  13.720  13.589  13.915
42449SOL     OW29120   0.484   4.298   3.800
42449SOL    HW129121   0.506   4.334   3.714
42449SOL    HW229122   0.407   4.243   3.783
42450SOL     OW29123   6.859  13.852   4.102
42450SOL    HW129124   6.945  13.852   4.143
42450SOL    HW229125   6.805  13.796   4.158
42451SOL     OW29126   5.816  14.360   7.745
42451SOL    HW129127   5.911  14.364   7.729
42451SOL    HW229128   5.803  14.413   7.824
42452SOL     OW29129  13.702   8.334   9.915
42452SOL    HW129130  13.789   8.323   9.953
42452SOL    HW229131  13.716   8.382   9.834
42453SOL     OW29132   1.047   6.976   9.869
42453SOL    HW129133   1.031   7.066   9.839
42453SOL    HW229134   1.034   6.922   9.790
42454SOL     OW29135   8.987  10.259   1.288
42454SOL    HW129136   8.894  10.274   1.303
42454SOL    HW229137   9.006  10.302   1.204
42455SOL     OW29138  12.356  12.789  13.477
42455SOL    HW129139  12.332  12.837  13.398
42455SOL    HW229140  12.333  12.698  13.458
42456SOL     OW29141   9.002  14.613   0.529
42456SOL    HW129142   8.978  14.532   0.485
42456SOL    HW229143   9.031  14.586   0.616
42457SOL     OW29144   1.728   5.544   2.948
42457SOL    HW129145   1.806   5.595   2.969
42457SOL    HW229146   1.761   5.456   2.931
42458SOL     OW29147   9.987   0.042   3.945
42458SOL    HW129148   9.963  14.840   3.991
42458SOL    HW229149   9.989   0.109   4.014
42459SOL     OW29150   9.198   0.806  12.890
42459SOL    HW129151   9.190   0.711  12.887
42459SOL    HW229152   9.218   0.832  12.800
42460SOL     OW29153  14.332   0.840  11.009
42460SOL    HW129154  14.324   0.787  10.930
42460SOL    HW229155  14.249   0.828  11.055
42461SOL     OW29156   5.687  14.304   3.188
42461SOL    HW129157   5.602  14.262   3.201
42461SOL    HW229158   5.668  14.398   3.193
42462SOL     OW29159   8.012   8.882   7.689
42462SOL    HW129160   8.011   8.926   7.774
42462SOL    HW229161   8.057   8.799   7.705
42463SOL     OW29162   2.188   0.970   8.902
42463SOL    HW129163   2.260   1.028   8.880
42463SOL    HW229164   2.190   0.963   8.997
42464SOL     OW29165   2.074   5.954   3.705
42464SOL    HW129166   2.105   5.931   3.793
42464SOL    HW229167   2.134   5.908   3.646
42465SOL     OW29168   4.535  10.860  13.812
42465SOL    HW129169   4.536  10.881  13.718
42465SOL    HW229170   4.606  10.797  13.824
42466SOL     OW29171   1.679  12.869   8.905
42466SOL    HW129172   1.643  12.786   8.936
42466SOL    HW229173   1.717  12.848   8.820
42467SOL     OW29174   7.079   9.378  13.413
42467SOL    HW129175   6.992   9.350  13.383
42467SOL    HW229176   7.140   9.319  13.368
42468SOL     OW29177   9.137   7.142  11.650
42468SOL    HW129178   9.121   7.225  11.604
42468SOL    HW229179   9.100   7.156  11.737
42469SOL     OW29180  14.376  13.774  14.371
42469SOL    HW129181  14.468  13.797  14.386
42469SOL    HW229182  14.328  13.825  14.436
42470SOL     OW29183   1.061   3.753  12.516
42470SOL    HW129184   1.017   3.799  12.587
42470SOL    HW229185   1.154   3.771  12.529
42471SOL     OW29186  11.244  11.599  10.775
42471SOL    HW129187  11.316  11.536  10.764
42471SOL    HW229188  11.166  11.545  10.788
42472SOL     OW29189  11.498   5.769   7.215
42472SOL    HW129190  11.453   5.749   7.297
42472SOL    HW229191  11.590   5.780   7.240
42473SOL     OW29192   2.375   3.772  13.224
42473SOL    HW129193   2.395   3.840  13.288
42473SOL    HW229194   2.442   3.782  13.156
42474SOL     OW29195   9.065  10.953   9.465
42474SOL    HW129196   9.080  10.867   9.424
42474SOL    HW229197   9.012  10.934   9.542
42475SOL     OW29198   8.832   4.889   7.020
42475SOL    HW129199   8.765   4.829   7.054
42475SOL    HW229200   8.915   4.847   7.041
42476SOL     OW29201  11.405   6.526   4.635
42476SOL    HW129202  11.328   6.535   4.691
42476SOL    HW229203  11.377   6.467   4.565
42477SOL     OW29204  11.887  12.195   6.920
42477SOL    HW129205  11.824  12.153   6.980
42477SOL    HW229206  11.899  12.283   6.955
42478SOL     OW29207  13.172   1.952   7.971
42478SOL    HW129208  13.108   2.015   8.005
42478SOL    HW229209  13.169   1.962   7.876
42479SOL     OW29210   3.422  14.015   8.291
42479SOL    HW129211   3.432  14.109   8.306
42479SOL    HW229212   3.408  13.979   8.379
42480SOL     OW29213   3.640   2.743   7.081
42480SOL    HW129214   3.606   2.744   6.992
42480SOL    HW229215   3.651   2.650   7.102
42481SOL     OW29216  12.639   3.654  11.848
42481SOL    HW129217  12.639   3.602  11.928
42481SOL    HW229218  12.703   3.611  11.791
42482SOL     OW29219  14.238  13.418   2.436
42482SOL    HW129220  14.259  13.337   2.484
42482SOL    HW229221  14.158  13.450   2.478
42483SOL     OW29222   3.686   4.523   7.091
42483SOL    HW129223   3.602   4.524   7.046
42483SOL    HW229224   3.748   4.487   7.027
42484SOL     OW29225   4.101   1.847   1.751
42484SOL    HW129226   4.015   1.859   1.792
42484SOL    HW229227   4.098   1.901   1.672
42485SOL     OW29228   8.965  12.542  12.150
42485SOL    HW129229   8.948  12.594  12.228
42485SOL    HW229230   8.880  12.506  12.126
42486SOL     OW29231   3.672   0.529   2.919
42486SOL    HW129232   3.636   0.573   2.841
42486SOL    HW229233   3.647   0.586   2.992
42487SOL     OW29234  11.418  14.243  11.139
42487SOL    HW129235  11.333  14.265  11.178
42487SOL    HW229236  11.482  14.274  11.202
42488SOL     OW29237   1.303   2.893  10.638
42488SOL    HW129238   1.334   2.905  10.548
42488SOL    HW229239   1.209   2.879  10.630
42489SOL     OW29240   4.386   3.636  14.098
42489SOL    HW129241   4.424   3.609  14.014
42489SOL    HW229242   4.292   3.629  14.085
42490SOL     OW29243   0.606   9.793  12.079
42490SOL    HW129244   0.601   9.727  12.149
42490SOL    HW229245   0.657   9.751  12.010
42491SOL     OW29246   0.217  11.183   9.825
42491SOL    HW129247   0.154  11.247   9.792
42491SOL    HW229248   0.298  11.233   9.836
42492SOL     OW29249  12.588   4.411  10.358
42492SOL    HW129250  12.493   4.413  10.362
42492SOL    HW229251  12.615   4.363  10.436
42493SOL     OW29252  13.361   4.973   5.929
42493SOL    HW129253  13.427   5.031   5.965
42493SOL    HW229254  13.286   5.030   5.910
42494SOL     OW29255  11.347   0.282   0.371
42494SOL    HW129256  11.253   0.275   0.383
42494SOL    HW229257  11.377   0.191   0.364
42495SOL     OW29258   6.664   6.147   5.977
42495SOL    HW129259   6.617   6.148   5.894
42495SOL    HW229260   6.659   6.056   6.006
42496SOL     OW29261  14.410   3.847   7.574
42496SOL    HW129262  14.417   3.911   7.503
42496SOL    HW229263  14.501   3.828   7.597
42497SOL     OW29264  13.222   9.145   1.845
42497SOL    HW129265  13.251   9.094   1.921
42497SOL    HW229266  13.127   9.149   1.854
42498SOL     OW29267  14.055  11.937  10.676
42498SOL    HW129268  14.118  11.882  10.629
42498SOL    HW229269  14.029  11.885  10.752
42499SOL     OW29270   5.290   6.180   1.824
42499SOL    HW129271   5.257   6.111   1.766
42499SOL    HW229272   5.240   6.258   1.798
42500SOL     OW29273  14.015   2.110  11.509
42500SOL    HW129274  13.993   2.136  11.598
42500SOL    HW229275  14.104   2.144  11.496
42501SOL     OW29276   5.140   8.232   3.784
42501SOL    HW129277   5.170   8.303   3.840
42501SOL    HW229278   5.121   8.274   3.700
42502SOL     OW29279   0.775  13.397  14.340
42502SOL    HW129280   0.866  13.426  14.350
42502SOL    HW229281   0.753  13.421  14.250
42503SOL     OW29282   3.775   0.436  12.358
42503SOL    HW129283   3.786   0.358  12.304
42503SOL    HW229284   3.795   0.509  12.300
42504SOL     OW29285  12.132  12.315   7.027
42504SOL    HW129286  12.134  12.220   7.040
42504SOL    HW229287  12.154  12.327   6.935
42505SOL     OW29288   4.741   6.782  13.254
42505SOL    HW129289   4.680   6.742  13.192
42505SOL    HW229290   4.707   6.870  13.269
42506SOL     OW29291  11.869  10.555  12.527
42506SOL    HW129292  11.848  10.583  12.438
42506SOL    HW229293  11.898  10.634  12.571
42507SOL     OW29294   7.855  11.960   0.257
42507SOL    HW129295   7.830  11.947   0.348
42507SOL    HW229296   7.902  12.043   0.256
42508SOL     OW29297   9.746   2.870   2.755
42508SOL    HW129298   9.786   2.947   2.715
42508SOL    HW229299   9.784   2.867   2.843
42509SOL     OW29300   1.361   7.148   5.797
42509SOL    HW129301   1.344   7.214   5.730
42509SOL    HW229302   1.435   7.183   5.847
42510SOL     OW29303   3.758   3.350  10.083
42510SOL    HW129304   3.673   3.315  10.110
42510SOL    HW229305   3.804   3.275  10.044
42511SOL     OW29306   1.421   1.311  12.879
42511SOL    HW129307   1.364   1.237  12.901
42511SOL    HW229308   1.370   1.389  12.901
42512SOL     OW29309   7.561  14.177   3.545
42512SOL    HW129310   7.623  14.126   3.493
42512SOL    HW229311   7.495  14.112   3.573
42513SOL     OW29312   3.930   9.775   8.028
42513SOL    HW129313   3.925   9.870   8.012
42513SOL    HW229314   3.873   9.760   8.103
42514SOL     OW29315   9.022   4.769   1.030
42514SOL    HW129316   8.939   4.812   1.008
42514SOL    HW229317   9.000   4.676   1.034
42515SOL     OW29318   6.453  11.098  11.345
42515SOL    HW129319   6.455  11.076  11.252
42515SOL    HW229320   6.361  11.118  11.363
42516SOL     OW29321   7.814  12.305   5.969
42516SOL    HW129322   7.745  12.303   5.903
42516SOL    HW229323   7.849  12.394   5.964
42517SOL     OW29324  14.723   2.031  11.493
42517SOL    HW129325  14.737   2.009  11.401
42517SOL    HW229326  14.733   1.948  11.539
42518SOL     OW29327   3.179   8.307   2.791
42518SOL    HW129328   3.170   8.319   2.696
42518SOL    HW229329   3.127   8.229   2.810
42519SOL     OW29330   2.073  12.233   8.173
42519SOL    HW129331   2.086  12.235   8.078
42519SOL    HW229332   2.154  12.271   8.209
42520SOL     OW29333   2.319  12.940   3.061
42520SOL    HW129334   2.240  12.890   3.040
42520SOL    HW229335   2.391  12.887   3.027
42521SOL     OW29336   4.785   7.577   4.110
42521SOL    HW129337   4.781   7.577   4.206
42521SOL    HW229338   4.872   7.542   4.090
42522SOL     OW29339   9.186   4.695   3.034
42522SOL    HW129340   9.154   4.782   3.009
42522SOL    HW229341   9.280   4.698   3.013
42523SOL     OW29342   9.586  11.915   9.339
42523SOL    HW129343   9.592  11.870   9.255
42523SOL    HW229344   9.497  11.898   9.369
42524SOL     OW29345   9.593  12.683   2.747
42524SOL    HW129346   9.631  12.767   2.773
42524SOL    HW229347   9.563  12.643   2.829
42525SOL     OW29348   5.696  10.407  14.015
42525SOL    HW129349   5.715  10.443  14.101
42525SOL    HW229350   5.662  10.319  14.033
42526SOL     OW29351   5.539   9.128   0.762
42526SOL    HW129352   5.475   9.187   0.723
42526SOL    HW229353   5.507   9.115   0.851
42527SOL     OW29354   5.649   2.336   8.422
42527SOL    HW129355   5.743   2.321   8.434
42527SOL    HW229356   5.637   2.340   8.328
42528SOL     OW29357   2.007   6.677   4.783
42528SOL    HW129358   2.052   6.749   4.740
42528SOL    HW229359   2.076   6.630   4.830
42529SOL     OW29360   0.072  14.314   4.801
42529SOL    HW129361   0.065  14.371   4.724
42529SOL    HW229362   0.022  14.359   4.869
42530SOL     OW29363   9.048   4.592   8.083
42530SOL    HW129364   9.029   4.636   8.166
42530SOL    HW229365   9.040   4.660   8.017
42531SOL     OW29366   2.209  11.084   3.837
42531SOL    HW129367   2.167  11.045   3.914
42531SOL    HW229368   2.224  11.175   3.862
42532SOL     OW29369  14.161  10.783   3.341
42532SOL    HW129370  14.123  10.711   3.290
42532SOL    HW229371  14.135  10.763   3.431
42533SOL     OW29372   0.062   4.684   5.112
42533SOL    HW129373   0.003   4.608   5.122
42533SOL    HW229374   0.036   4.743   5.183
42534SOL     OW29375   6.333   0.168   3.333
42534SOL    HW129376   6.402   0.169   3.399
42534SOL    HW229377   6.378   0.145   3.252
42535SOL     OW29378  13.962  12.636   4.579
42535SOL    HW129379  13.918  12.689   4.644
42535SOL    HW229380  13.975  12.694   4.504
42536SOL     OW29381  14.818  13.559   9.698
42536SOL    HW129382  14.794  13.511   9.619
42536SOL    HW229383  14.760  13.525   9.766
42537SOL     OW29384   8.518   7.761   7.283
42537SOL    HW129385   8.545   7.827   7.347
42537SOL    HW229386   8.586   7.764   7.216
42538SOL     OW29387   5.545   8.851   0.736
42538SOL    HW129388   5.462   8.827   0.696
42538SOL    HW229389   5.555   8.944   0.718
42539SOL     OW29390  11.978   1.881  11.048
42539SOL    HW129391  11.909   1.837  11.000
42539SOL    HW229392  11.951   1.973  11.050
42540SOL     OW29393   8.534   0.058   1.222
42540SOL    HW129394   8.462   0.036   1.163
42540SOL    HW229395   8.514   0.147   1.251
42541SOL     OW29396  11.490   8.803  12.964
42541SOL    HW129397  11.487   8.840  12.875
42541SOL    HW229398  11.483   8.709  12.951
42542SOL     OW29399   4.641   4.061   0.007
42542SOL    HW129400   4.733   4.079   0.022
42542SOL    HW229401   4.598   4.146   0.018
42543SOL     OW29402   2.225   2.901   0.047
42543SOL    HW129403   2.295   2.963   0.067
42543SOL    HW229404   2.265   2.815   0.061
42544SOL     OW29405  10.370  14.054   2.666
42544SOL    HW129406  10.361  14.122   2.599
42544SOL    HW229407  10.389  14.102   2.747
42545SOL     OW29408   7.506   6.289   5.556
42545SOL    HW129409   7.602   6.283   5.557
42545SOL    HW229410   7.482   6.297   5.648
42546SOL     OW29411   9.031   0.660   9.974
42546SOL    HW129412   9.007   0.741  10.020
42546SOL    HW229413   9.088   0.614  10.035
42547SOL     OW29414   9.206   4.625   7.464
42547SOL    HW129415   9.214   4.550   7.523
42547SOL    HW229416   9.112   4.641   7.458
42548SOL     OW29417  13.765  11.482   0.347
42548SOL    HW129418  13.803  11.520   0.426
42548SOL    HW229419  13.761  11.389   0.365
42549SOL     OW29420   7.461   9.953  13.946
42549SOL    HW129421   7.392   9.984  14.005
42549SOL    HW229422   7.473   9.861  13.969
42550SOL     OW29423  11.161  13.688   6.876
42550SOL    HW129424  11.146  13.644   6.792
42550SOL    HW229425  11.090  13.655   6.933
42551SOL     OW29426  11.478   1.425  11.499
42551SOL    HW129427  11.453   1.501  11.447
42551SOL    HW229428  11.553   1.387  11.453
42552SOL     OW29429  12.741   0.804  13.998
42552SOL    HW129430  12.776   0.857  13.926
42552SOL    HW229431  12.805   0.735  14.010
42553SOL     OW29432   4.416  13.064  12.632
42553SOL    HW129433   4.482  13.109  12.579
42553SOL    HW229434   4.335  13.073  12.581
42554SOL     OW29435   2.050   2.325   0.662
42554SOL    HW129436   2.055   2.419   0.644
42554SOL    HW229437   1.959   2.302   0.644
42555SOL     OW29438  11.972   0.540   4.097
42555SOL    HW129439  12.049   0.494   4.131
42555SOL    HW229440  11.997   0.632   4.099
42556SOL     OW29441   1.305   1.092  11.390
42556SOL    HW129442   1.370   1.139  11.337
42556SOL    HW229443   1.254   1.162  11.432
42557SOL     OW29444  10.901   9.403  11.878
42557SOL    HW129445  10.966   9.447  11.824
42557SOL    HW229446  10.817   9.432  11.843
42558SOL     OW29447   9.771   0.646  11.484
42558SOL    HW129448   9.737   0.605  11.405
42558SOL    HW229449   9.844   0.590  11.511
42559SOL     OW29450   3.663   3.551   0.221
42559SOL    HW129451   3.591   3.565   0.160
42559SOL    HW229452   3.643   3.608   0.296
42560SOL     OW29453  14.208   8.432   9.104
42560SOL    HW129454  14.185   8.339   9.105
42560SOL    HW229455  14.245   8.449   9.191
42561SOL     OW29456   0.938   4.215   1.820
42561SOL    HW129457   1.000   4.204   1.891
42561SOL    HW229458   0.864   4.261   1.860
42562SOL     OW29459   6.864   0.250  14.006
42562SOL    HW129460   6.778   0.242  14.049
42562SOL    HW229461   6.843   0.279  13.917
42563SOL     OW29462  10.384  10.023  12.538
42563SOL    HW129463  10.337  10.045  12.458
42563SOL    HW229464  10.476  10.017  12.511
42564SOL     OW29465   0.674  12.439  13.815
42564SOL    HW129466   0.667  12.431  13.910
42564SOL    HW229467   0.601  12.388  13.781
42565SOL     OW29468   6.720   2.604   8.431
42565SOL    HW129469   6.699   2.651   8.351
42565SOL    HW229470   6.812   2.626   8.449
42566SOL     OW29471  12.672  14.449   8.851
42566SOL    HW129472  12.685  14.420   8.941
42566SOL    HW229473  12.761  14.452   8.814
42567SOL     OW29474  11.943   5.012   8.315
42567SOL    HW129475  11.877   5.057   8.262
42567SOL    HW229476  12.027   5.048   8.283
42568SOL     OW29477   8.487   2.948   6.583
42568SOL    HW129478   8.537   2.868   6.565
42568SOL    HW229479   8.493   2.998   6.501
42569SOL     OW29480   5.959  10.016  10.134
42569SOL    HW129481   6.036  10.019  10.191
42569SOL    HW229482   5.907   9.943  10.170
42570SOL     OW29483   2.530   2.293   8.319
42570SOL    HW129484   2.571   2.212   8.288
42570SOL    HW229485   2.595   2.361   8.302
42571SOL     OW29486   3.425   3.173   9.957
42571SOL    HW129487   3.343   3.209   9.987
42571SOL    HW229488   3.427   3.192   9.863
42572SOL     OW29489  13.500  13.675  10.933
42572SOL    HW129490  13.481  13.654  11.025
42572SOL    HW229491  13.431  13.737  10.908
42573SOL     OW29492  11.827  12.100   2.061
42573SOL    HW129493  11.890  12.084   2.132
42573SOL    HW229494  11.756  12.038   2.078
42574SOL     OW29495   5.863   6.682   5.260
42574SOL    HW129496   5.780   6.660   5.302
42574SOL    HW229497   5.906   6.598   5.244
42575SOL     OW29498  14.642   2.820  11.427
42575SOL    HW129499  14.720   2.773  11.459
42575SOL    HW229500  14.612   2.870  11.503
42576SOL     OW29501   0.042  14.212   8.698
42576SOL    HW129502   0.093  14.283   8.737
42576SOL    HW229503   0.085  14.195   8.614
42577SOL     OW29504   9.807  14.254   3.230
42577SOL    HW129505   9.869  14.205   3.176
42577SOL    HW229506   9.860  14.319   3.275
42578SOL     OW29507   4.774   8.598   4.308
42578SOL    HW129508   4.781   8.523   4.368
42578SOL    HW229509   4.823   8.571   4.230
42579SOL     OW29510   5.249  13.543   2.023
42579SOL    HW129511   5.316  13.476   2.013
42579SOL    HW229512   5.217  13.558   1.934
42580SOL     OW29513  14.524   2.477   4.189
42580SOL    HW129514  14.437   2.451   4.158
42580SOL    HW229515  14.541   2.560   4.145
42581SOL     OW29516  12.401  13.874   9.649
42581SOL    HW129517  12.416  13.841   9.737
42581SOL    HW229518  12.313  13.845   9.627
42582SOL     OW29519   0.087  11.953   7.819
42582SOL    HW129520   0.059  11.872   7.862
42582SOL    HW229521   0.008  11.986   7.776
42583SOL     OW29522   2.181   8.407   5.853
42583SOL    HW129523   2.222   8.352   5.919
42583SOL    HW229524   2.254   8.451   5.809
42584SOL     OW29525  11.459   8.354   7.978
42584SOL    HW129526  11.554   8.361   7.986
42584SOL    HW229527  11.426   8.441   8.001
42585SOL     OW29528   4.771   7.354   7.903
42585SOL    HW129529   4.786   7.299   7.826
42585SOL    HW229530   4.683   7.391   7.889
42586SOL     OW29531   2.816   2.369   2.745
42586SOL    HW129532   2.760   2.422   2.688
42586SOL    HW229533   2.799   2.279   2.719
42587SOL     OW29534   8.691   6.618  13.992
42587SOL    HW129535   8.642   6.536  13.993
42587SOL    HW229536   8.783   6.591  13.993
42588SOL     OW29537   7.773   4.135   7.308
42588SOL    HW129538   7.680   4.159   7.310
42588SOL    HW229539   7.806   4.161   7.394
42589SOL     OW29540   3.688   6.192   4.739
42589SOL    HW129541   3.761   6.158   4.687
42589SOL    HW229542   3.636   6.115   4.762
42590SOL     OW29543   4.403   0.494   6.014
42590SOL    HW129544   4.480   0.486   6.071
42590SOL    HW229545   4.387   0.588   6.009
42591SOL     OW29546   6.144   9.567   4.714
42591SOL    HW129547   6.137   9.636   4.647
42591SOL    HW229548   6.095   9.494   4.677
42592SOL     OW29549   4.349   3.882   5.879
42592SOL    HW129550   4.398   3.959   5.907
42592SOL    HW229551   4.396   3.851   5.802
42593SOL     OW29552   1.064   1.818   5.028
42593SOL    HW129553   1.134   1.824   5.094
42593SOL    HW229554   1.101   1.765   4.958
42594SOL     OW29555  11.245   9.631   7.410
42594SOL    HW129556  11.154   9.601   7.420
42594SOL    HW229557  11.241   9.726   7.422
42595SOL     OW29558   2.288   7.738   5.115
42595SOL    HW129559   2.301   7.790   5.036
42595SOL    HW229560   2.193   7.731   5.124
42596SOL     OW29561  14.204  12.314   2.824
42596SOL    HW129562  14.292  12.352   2.826
42596SOL    HW229563  14.208  12.250   2.753
42597SOL     OW29564  14.678  11.432   2.841
42597SOL    HW129565  14.620  11.391   2.905
42597SOL    HW229566  14.667  11.526   2.855
42598SOL     OW29567  13.843  11.939   0.839
42598SOL    HW129568  13.853  11.861   0.893
42598SOL    HW229569  13.852  11.908   0.750
42599SOL     OW29570   9.661   9.396   8.112
42599SOL    HW129571   9.570   9.379   8.089
42599SOL    HW229572   9.691   9.314   8.153
42600SOL     OW29573  10.519  14.458  13.129
42600SOL    HW129574  10.480  14.412  13.203
42600SOL    HW229575  10.464  14.434  13.055
42601SOL     OW29576   0.235   9.992   2.883
42601SOL    HW129577   0.304  10.004   2.818
42601SOL    HW229578   0.154   9.996   2.832
42602SOL     OW29579   2.387   3.330  11.297
42602SOL    HW129580   2.477   3.356  11.317
42602SOL    HW229581   2.387   3.315  11.202
42603SOL     OW29582   2.332   4.389  13.670
42603SOL    HW129583   2.258   4.331  13.691
42603SOL    HW229584   2.335   4.390  13.575
42604SOL     OW29585   7.107   6.874  13.913
42604SOL    HW129586   7.033   6.907  13.963
42604SOL    HW229587   7.072   6.798  13.866
42605SOL     OW29588   6.287  13.091   5.806
42605SOL    HW129589   6.277  13.131   5.892
42605SOL    HW229590   6.320  13.161   5.750
42606SOL     OW29591   8.944   1.560  10.107
42606SOL    HW129592   8.960   1.650  10.076
42606SOL    HW229593   9.028   1.534  10.146
42607SOL     OW29594   3.818  12.064  12.356
42607SOL    HW129595   3.856  12.097  12.437
42607SOL    HW229596   3.727  12.093  12.359
42608SOL     OW29597   7.838   2.044   5.917
42608SOL    HW129598   7.840   2.031   5.822
42608SOL    HW229599   7.822   1.957   5.953
42609SOL     OW29600   4.212   3.112  10.306
42609SOL    HW129601   4.195   3.021  10.330
42609SOL    HW229602   4.304   3.113  10.280
42610SOL     OW29603   8.166   3.384   9.778
42610SOL    HW129604   8.139   3.409   9.690
42610SOL    HW229605   8.102   3.318   9.805
42611SOL     OW29606  12.942   4.002   7.797
42611SOL    HW129607  12.981   3.918   7.823
42611SOL    HW229608  12.848   3.986   7.794
42612SOL     OW29609   4.067  11.605   5.778
42612SOL    HW129610   4.147  11.553   5.776
42612SOL    HW229611   4.002  11.547   5.817
42613SOL     OW29612   6.352  10.478   5.586
42613SOL    HW129613   6.355  10.397   5.636
42613SOL    HW229614   6.426  10.472   5.526
42614SOL     OW29615  13.159   4.056  14.753
42614SOL    HW129616  13.142   3.985  14.692
42614SOL    HW229617  13.241   4.095  14.721
42615SOL     OW29618   4.698   8.082   1.253
42615SOL    HW129619   4.737   7.996   1.238
42615SOL    HW229620   4.621   8.084   1.196
42616SOL     OW29621   1.819   1.260   1.254
42616SOL    HW129622   1.840   1.197   1.186
42616SOL    HW229623   1.780   1.334   1.207
42617SOL     OW29624   6.748   9.038   6.045
42617SOL    HW129625   6.697   9.027   6.126
42617SOL    HW229626   6.824   8.982   6.057
42618SOL     OW29627   6.240   4.261   1.437
42618SOL    HW129628   6.325   4.224   1.415
42618SOL    HW229629   6.259   4.332   1.498
42619SOL     OW29630   0.817   7.573   2.759
42619SOL    HW129631   0.873   7.623   2.818
42619SOL    HW229632   0.831   7.482   2.785
42620SOL     OW29633  12.199   2.563  11.530
42620SOL    HW129634  12.179   2.654  11.553
42620SOL    HW229635  12.169   2.554  11.439
42621SOL     OW29636   5.767   0.314   9.774
42621SOL    HW129637   5.831   0.384   9.763
42621SOL    HW229638   5.739   0.292   9.686
42622SOL     OW29639  14.086  10.093   9.153
42622SOL    HW129640  14.056  10.079   9.064
42622SOL    HW229641  14.109  10.006   9.185
42623SOL     OW29642   9.321   3.588   5.472
42623SOL    HW129643   9.393   3.614   5.529
42623SOL    HW229644   9.363   3.550   5.395
42624SOL     OW29645   0.655   1.035   5.266
42624SOL    HW129646   0.635   1.048   5.173
42624SOL    HW229647   0.604   0.958   5.291
42625SOL     OW29648   4.671   2.007   6.261
42625SOL    HW129649   4.630   1.925   6.288
42625SOL    HW229650   4.763   1.996   6.282
42626SOL     OW29651  10.546   1.117   8.283
42626SOL    HW129652  10.529   1.197   8.233
42626SOL    HW229653  10.556   1.048   8.217
42627SOL     OW29654   8.057   4.652   2.469
42627SOL    HW129655   8.086   4.720   2.530
42627SOL    HW229656   8.022   4.700   2.395
42628SOL     OW29657  11.246   3.168   6.464
42628SOL    HW129658  11.212   3.101   6.404
42628SOL    HW229659  11.300   3.118   6.526
42629SOL     OW29660  10.197   9.873   1.619
42629SOL    HW129661  10.149   9.909   1.545
42629SOL    HW229662  10.223   9.785   1.590
42630SOL     OW29663   3.991  14.343   3.126
42630SOL    HW129664   4.054  14.412   3.145
42630SOL    HW229665   3.922  14.386   3.076
42631SOL     OW29666   4.579   8.666   8.713
42631SOL    HW129667   4.535   8.588   8.747
42631SOL    HW229668   4.672   8.648   8.727
42632SOL     OW29669   8.493   9.946  10.259
42632SOL    HW129670   8.532  10.030  10.234
42632SOL    HW229671   8.545   9.916  10.332
42633SOL     OW29672   2.681  11.609   6.544
42633SOL    HW129673   2.705  11.525   6.582
42633SOL    HW229674   2.730  11.674   6.596
42634SOL     OW29675   2.546  12.661   3.814
42634SOL    HW129676   2.566  12.636   3.904
42634SOL    HW229677   2.616  12.620   3.762
42635SOL     OW29678  11.346   9.678   3.645
42635SOL    HW129679  11.267   9.688   3.697
42635SOL    HW229680  11.405   9.626   3.701
42636SOL     OW29681   0.539  10.693  11.831
42636SOL    HW129682   0.535  10.788  11.831
42636SOL    HW229683   0.458  10.665  11.874
42637SOL     OW29684  12.846   0.866   3.884
42637SOL    HW129685  12.872   0.910   3.803
42637SOL    HW229686  12.752   0.881   3.890
42638SOL     OW29687   1.313  10.015  12.271
42638SOL    HW129688   1.261  10.085  12.233
42638SOL    HW229689   1.260   9.936  12.261
42639SOL     OW29690  10.559   7.409   9.295
42639SOL    HW129691  10.493   7.462   9.340
42639SOL    HW229692  10.580   7.340   9.357
42640SOL     OW29693   2.168  10.580  11.514
42640SOL    HW129694   2.262  10.591  11.527
42640SOL    HW229695   2.155  10.592  11.420
42641SOL     OW29696   6.980   6.463  12.762
42641SOL    HW129697   7.051   6.512  12.804
42641SOL    HW229698   6.904   6.521  12.769
42642SOL     OW29699  13.300   3.080   2.042
42642SOL    HW129700  13.343   3.082   1.957
42642SOL    HW229701  13.219   3.130   2.029
42643SOL     OW29702   6.486  11.201   5.386
42643SOL    HW129703   6.487  11.294   5.365
42643SOL    HW229704   6.500  11.157   5.302
42644SOL     OW29705   8.317  11.615   1.664
42644SOL    HW129706   8.400  11.617   1.711
42644SOL    HW229707   8.263  11.554   1.715
42645SOL     OW29708   8.345   9.018  11.046
42645SOL    HW129709   8.404   9.000  11.120
42645SOL    HW229710   8.261   8.983  11.074
42646SOL     OW29711  10.265   2.689   3.461
42646SOL    HW129712  10.252   2.749   3.534
42646SOL    HW229713  10.267   2.602   3.501
42647SOL     OW29714   5.527   1.390  12.194
42647SOL    HW129715   5.456   1.326  12.185
42647SOL    HW229716   5.555   1.381  12.285
42648SOL     OW29717   4.056  10.122  10.747
42648SOL    HW129718   4.113  10.195  10.723
42648SOL    HW229719   4.114  10.045  10.747
42649SOL     OW29720   4.269   5.124   3.419
42649SOL    HW129721   4.237   5.134   3.509
42649SOL    HW229722   4.250   5.032   3.397
42650SOL     OW29723   5.995   7.546  13.248
42650SOL    HW129724   5.910   7.551  13.205
42650SOL    HW229725   5.992   7.465  13.299
42651SOL     OW29726  12.183   4.930   7.740
42651SOL    HW129727  12.221   4.858   7.689
42651SOL    HW229728  12.258   4.984   7.765
42652SOL     OW29729  13.967   4.184   3.964
42652SOL    HW129730  14.025   4.118   4.003
42652SOL    HW229731  14.005   4.268   3.989
42653SOL     OW29732  10.408   0.993   3.475
42653SOL    HW129733  10.327   0.943   3.471
42653SOL    HW229734  10.462   0.959   3.403
42654SOL     OW29735   7.945   6.045   4.392
42654SOL    HW129736   7.941   6.007   4.304
42654SOL    HW229737   7.986   5.977   4.446
42655SOL     OW29738   3.657   0.711   3.651
42655SOL    HW129739   3.684   0.634   3.601
42655SOL    HW229740   3.674   0.785   3.593
42656SOL     OW29741   8.450  12.880   3.500
42656SOL    HW129742   8.470  12.866   3.593
42656SOL    HW229743   8.513  12.825   3.454
42657SOL     OW29744   4.772  11.710   4.457
42657SOL    HW129745   4.713  11.763   4.510
42657SOL    HW229746   4.730  11.706   4.371
42658SOL     OW29747   5.372   4.702   9.537
42658SOL    HW129748   5.392   4.785   9.493
42658SOL    HW229749   5.456   4.670   9.568
42659SOL     OW29750   8.964   0.158  11.535
42659SOL    HW129751   8.960   0.066  11.507
42659SOL    HW229752   8.880   0.194  11.509
42660SOL     OW29753   7.873   3.523  11.023
42660SOL    HW129754   7.958   3.565  11.037
42660SOL    HW229755   7.855   3.536  10.930
42661SOL     OW29756  11.864   1.002   6.332
42661SOL    HW129757  11.814   1.002   6.250
42661SOL    HW229758  11.805   1.043   6.396
42662SOL     OW29759  11.645   4.070   9.057
42662SOL    HW129760  11.697   4.137   9.013
42662SOL    HW229761  11.685   4.060   9.143
42663SOL     OW29762   8.184   7.267   0.512
42663SOL    HW129763   8.127   7.318   0.454
42663SOL    HW229764   8.123   7.222   0.571
42664SOL     OW29765  14.048   7.271  14.266
42664SOL    HW129766  14.137   7.240  14.249
42664SOL    HW229767  14.047   7.360  14.230
42665SOL     OW29768   5.564  11.364   5.380
42665SOL    HW129769   5.470  11.369   5.398
42665SOL    HW229770   5.595  11.455   5.386
42666SOL     OW29771  12.787   1.244   8.909
42666SOL    HW129772  12.760   1.323   8.863
42666SOL    HW229773  12.708   1.214   8.954
42667SOL     OW29774  11.337   8.895   2.603
42667SOL    HW129775  11.342   8.926   2.694
42667SOL    HW229776  11.423   8.912   2.567
42668SOL     OW29777   3.248   9.972   9.183
42668SOL    HW129778   3.224   9.935   9.098
42668SOL    HW229779   3.334   9.935   9.202
42669SOL     OW29780   3.628   2.502   0.303
42669SOL    HW129781   3.557   2.485   0.366
42669SOL    HW229782   3.591   2.568   0.243
42670SOL     OW29783   3.253   4.779   1.280
42670SOL    HW129784   3.229   4.759   1.370
42670SOL    HW229785   3.305   4.859   1.286
42671SOL     OW29786  11.376   6.400   7.333
42671SOL    HW129787  11.314   6.472   7.329
42671SOL    HW229788  11.371   6.358   7.247
42672SOL     OW29789  10.044   4.409   7.493
42672SOL    HW129790  10.025   4.329   7.542
42672SOL    HW229791   9.963   4.460   7.500
42673SOL     OW29792   8.690   6.398   1.065
42673SOL    HW129793   8.651   6.311   1.064
42673SOL    HW229794   8.762   6.391   1.127
42674SOL     OW29795   4.567   2.544   1.034
42674SOL    HW129796   4.514   2.525   0.957
42674SOL    HW229797   4.539   2.631   1.062
42675SOL     OW29798   9.083  11.803   7.204
42675SOL    HW129799   9.125  11.817   7.289
42675SOL    HW229800   8.993  11.778   7.225
42676SOL     OW29801   7.424  11.014  10.631
42676SOL    HW129802   7.370  11.089  10.610
42676SOL    HW229803   7.514  11.044  10.616
42677SOL     OW29804   1.644   4.988   7.526
42677SOL    HW129805   1.655   4.894   7.541
42677SOL    HW229806   1.695   5.006   7.447
42678SOL     OW29807   5.939   7.126   8.076
42678SOL    HW129808   5.993   7.136   7.997
42678SOL    HW229809   5.962   7.040   8.110
42679SOL     OW29810  10.161  10.208   8.653
42679SOL    HW129811  10.074  10.174   8.634
42679SOL    HW229812  10.175  10.188   8.746
42680SOL     OW29813   0.422  14.397   5.033
42680SOL    HW129814   0.344  14.433   5.076
42680SOL    HW229815   0.483  14.380   5.105
42681SOL     OW29816   0.746   1.246   5.443
42681SOL    HW129817   0.736   1.324   5.388
42681SOL    HW229818   0.699   1.177   5.396
42682SOL     OW29819   6.055  11.622   4.878
42682SOL    HW129820   6.051  11.546   4.821
42682SOL    HW229821   6.040  11.697   4.820
42683SOL     OW29822   5.543   5.590   0.585
42683SOL    HW129823   5.570   5.507   0.623
42683SOL    HW229824   5.555   5.579   0.491
42684SOL     OW29825   6.599  14.599   7.771
42684SOL    HW129826   6.582  14.683   7.730
42684SOL    HW229827   6.608  14.619   7.864
42685SOL     OW29828  12.509  10.350  10.710
42685SOL    HW129829  12.414  10.355  10.705
42685SOL    HW229830  12.528  10.359  10.804
42686SOL     OW29831  11.375   7.741   5.845
42686SOL    HW129832  11.313   7.742   5.918
42686SOL    HW229833  11.327   7.777   5.771
42687SOL     OW29834   0.422   8.952  12.498
42687SOL    HW129835   0.431   9.026  12.439
42687SOL    HW229836   0.340   8.968  12.544
42688SOL     OW29837  11.296  10.051   5.698
42688SOL    HW129838  11.363  10.115   5.675
42688SOL    HW229839  11.295  10.051   5.794
42689SOL     OW29840   6.068   7.049  13.749
42689SOL    HW129841   6.088   6.979  13.687
42689SOL    HW229842   6.111   7.022  13.831
42690SOL     OW29843   3.313   8.608  13.438
42690SOL    HW129844   3.289   8.517  13.458
42690SOL    HW229845   3.406   8.604  13.417
42691SOL     OW29846   6.637   8.665  11.374
42691SOL    HW129847   6.566   8.729  11.382
42691SOL    HW229848   6.698   8.705  11.312
42692SOL     OW29849   2.343   4.555   2.861
42692SOL    HW129850   2.397   4.509   2.797
42692SOL    HW229851   2.278   4.491   2.889
42693SOL     OW29852   9.332   6.170   6.528
42693SOL    HW129853   9.259   6.232   6.524
42693SOL    HW229854   9.381   6.196   6.606
42694SOL     OW29855   0.219   4.889  13.863
42694SOL    HW129856   0.198   4.933  13.945
42694SOL    HW229857   0.142   4.903  13.808
42695SOL     OW29858   7.514   4.016   7.699
42695SOL    HW129859   7.547   3.984   7.783
42695SOL    HW229860   7.584   3.998   7.637
42696SOL     OW29861  11.995   9.169   8.231
42696SOL    HW129862  11.911   9.148   8.272
42696SOL    HW229863  12.004   9.105   8.161
42697SOL     OW29864  12.035   5.549  13.790
42697SOL    HW129865  12.115   5.514  13.751
42697SOL    HW229866  12.033   5.640  13.761
42698SOL     OW29867   3.255   2.326  10.365
42698SOL    HW129868   3.338   2.285  10.389
42698SOL    HW229869   3.239   2.390  10.434
42699SOL     OW29870  12.206   8.290   9.674
42699SOL    HW129871  12.119   8.321   9.699
42699SOL    HW229872  12.189   8.219   9.612
42700SOL     OW29873   7.086   0.029  13.793
42700SOL    HW129874   7.092   0.046  13.699
42700SOL    HW229875   7.171  14.868  13.815
42701SOL     OW29876   3.691   0.659   1.494
42701SOL    HW129877   3.655   0.624   1.413
42701SOL    HW229878   3.690   0.585   1.555
42702SOL     OW29879   0.914  12.151   3.926
42702SOL    HW129880   0.918  12.247   3.925
42702SOL    HW229881   1.005  12.123   3.918
42703SOL     OW29882   3.873  10.139   3.061
42703SOL    HW129883   3.788  10.119   3.102
42703SOL    HW229884   3.869  10.232   3.041
42704SOL     OW29885   1.358   1.956   3.418
42704SOL    HW129886   1.369   1.970   3.324
42704SOL    HW229887   1.263   1.951   3.431
42705SOL     OW29888  14.771   7.833  10.101
42705SOL    HW129889  14.780   7.909  10.158
42705SOL    HW229890  14.861   7.811  10.076
42706SOL     OW29891   3.835   7.420   7.316
42706SOL    HW129892   3.872   7.498   7.358
42706SOL    HW229893   3.910   7.361   7.304
42707SOL     OW29894  11.462  12.973  12.124
42707SOL    HW129895  11.523  12.992  12.196
42707SOL    HW229896  11.395  12.917  12.163
42708SOL     OW29897   6.066   9.242  12.828
42708SOL    HW129898   6.049   9.164  12.881
42708SOL    HW229899   6.033   9.314  12.881
42709SOL     OW29900   7.278  11.453   0.451
42709SOL    HW129901   7.320  11.477   0.534
42709SOL    HW229902   7.200  11.509   0.446
42710SOL     OW29903  13.271   4.324   6.374
42710SOL    HW129904  13.308   4.303   6.288
42710SOL    HW229905  13.325   4.276   6.436
42711SOL     OW29906   4.037   0.240   0.538
42711SOL    HW129907   4.002   0.322   0.572
42711SOL    HW229908   4.132   0.251   0.542
42712SOL     OW29909   9.110   8.946  13.876
42712SOL    HW129910   9.158   9.017  13.919
42712SOL    HW229911   9.019   8.973  13.878
42713SOL     OW29912  11.765   4.062   1.158
42713SOL    HW129913  11.738   4.109   1.236
42713SOL    HW229914  11.697   4.081   1.094
42714SOL     OW29915   9.456   8.781   5.683
42714SOL    HW129916   9.368   8.748   5.697
42714SOL    HW229917   9.513   8.704   5.689
42715SOL     OW29918   7.503  13.129   3.697
42715SOL    HW129919   7.409  13.148   3.687
42715SOL    HW229920   7.509  13.034   3.688
42716SOL     OW29921   4.539  12.172  13.937
42716SOL    HW129922   4.475  12.196  13.869
42716SOL    HW229923   4.619  12.217  13.912
42717SOL     OW29924   4.115   7.374  10.754
42717SOL    HW129925   4.107   7.464  10.786
42717SOL    HW229926   4.041   7.328  10.794
42718SOL     OW29927   3.762  14.235   7.760
42718SOL    HW129928   3.758  14.256   7.853
42718SOL    HW229929   3.761  14.319   7.716
42719SOL     OW29930   8.447   4.054   5.339
42719SOL    HW129931   8.519   3.994   5.321
42719SOL    HW229932   8.470   4.094   5.423
42720SOL     OW29933   1.419   2.981   2.911
42720SOL    HW129934   1.380   2.895   2.901
42720SOL    HW229935   1.383   3.015   2.993
42721SOL     OW29936  13.545   5.839  13.917
42721SOL    HW129937  13.484   5.771  13.945
42721SOL    HW229938  13.489   5.909  13.883
42722SOL     OW29939   3.883  13.685   7.564
42722SOL    HW129940   3.814  13.747   7.543
42722SOL    HW229941   3.851  13.638   7.641
42723SOL     OW29942   1.487   3.240  10.175
42723SOL    HW129943   1.457   3.195  10.254
42723SOL    HW229944   1.557   3.185  10.141
42724SOL     OW29945   5.473   9.297   7.837
42724SOL    HW129946   5.444   9.233   7.902
42724SOL    HW229947   5.567   9.306   7.852
42725SOL     OW29948   0.898  11.415   4.379
42725SOL    HW129949   0.947  11.424   4.461
42725SOL    HW229950   0.846  11.495   4.373
42726SOL     OW29951   6.681   2.879   5.465
42726SOL    HW129952   6.698   2.830   5.546
42726SOL    HW229953   6.768   2.895   5.429
42727SOL     OW29954  13.303  12.043   3.215
42727SOL    HW129955  13.305  12.115   3.277
42727SOL    HW229956  13.261  12.079   3.137
42728SOL     OW29957   0.369   4.879   2.198
42728SOL    HW129958   0.441   4.867   2.135
42728SOL    HW229959   0.358   4.793   2.238
42729SOL     OW29960   5.369  14.670   0.387
42729SOL    HW129961   5.373  14.610   0.313
42729SOL    HW229962   5.322  14.746   0.353
42730SOL     OW29963  11.216   4.060  14.413
42730SOL    HW129964  11.213   4.041  14.319
42730SOL    HW229965  11.131   4.033  14.446
42731SOL     OW29966  13.402   4.677   1.407
42731SOL    HW129967  13.358   4.758   1.382
42731SOL    HW229968  13.495   4.694   1.391
42732SOL     OW29969   1.490  13.912   9.654
42732SOL    HW129970   1.408  13.874   9.685
42732SOL    HW229971   1.465  13.965   9.578
42733SOL     OW29972   7.847   1.540   0.733
42733SOL    HW129973   7.893   1.508   0.811
42733SOL    HW229974   7.916   1.556   0.670
42734SOL     OW29975   3.003   5.948   3.725
42734SOL    HW129976   3.014   5.913   3.636
42734SOL    HW229977   2.985   6.041   3.712
42735SOL     OW29978   8.260  13.288   9.158
42735SOL    HW129979   8.178  13.293   9.205
42735SOL    HW229980   8.307  13.214   9.197
42736SOL     OW29981   6.122   9.440   8.688
42736SOL    HW129982   6.169   9.461   8.769
42736SOL    HW229983   6.030   9.459   8.708
42737SOL     OW29984   2.809   3.725  12.221
42737SOL    HW129985   2.740   3.786  12.197
42737SOL    HW229986   2.850   3.765  12.298
42738SOL     OW29987   8.643  13.974   8.626
42738SOL    HW129988   8.651  13.880   8.644
42738SOL    HW229989   8.551  13.986   8.601
42739SOL     OW29990   9.171  11.640   1.839
42739SOL    HW129991   9.254  11.670   1.877
42739SOL    HW229992   9.167  11.682   1.754
42740SOL     OW29993  12.452  12.351   7.260
42740SOL    HW129994  12.389  12.416   7.231
42740SOL    HW229995  12.399  12.273   7.279
42741SOL     OW29996   7.129   3.656   7.330
42741SOL    HW129997   7.189   3.632   7.260
42741SOL    HW229998   7.109   3.574   7.374
42742SOL     OW29999  14.689   9.518   5.845
42742SOL    HW130000  14.712   9.438   5.893
42742SOL    HW230001  14.594   9.517   5.841
42743SOL     OW30002  11.406  10.487  12.636
42743SOL    HW130003  11.448  10.411  12.596
42743SOL    HW230004  11.343  10.451  12.698
42744SOL     OW30005  12.452  10.809   7.068
42744SOL    HW130006  12.436  10.881   7.006
42744SOL    HW230007  12.433  10.846   7.154
42745SOL     OW30008   0.914   7.761   9.026
42745SOL    HW130009   0.935   7.729   8.938
42745SOL    HW230010   0.876   7.848   9.012
42746SOL     OW30011   7.130   1.419   5.272
42746SOL    HW130012   7.221   1.413   5.300
42746SOL    HW230013   7.086   1.465   5.344
42747SOL     OW30014   1.625  11.130   6.326
42747SOL    HW130015   1.636  11.042   6.290
42747SOL    HW230016   1.710  11.171   6.315
42748SOL     OW30017   1.867   2.733   9.449
42748SOL    HW130018   1.892   2.645   9.475
42748SOL    HW230019   1.948   2.783   9.451
42749SOL     OW30020  13.194   1.397  12.244
42749SOL    HW130021  13.101   1.393  12.265
42749SOL    HW230022  13.200   1.361  12.156
42750SOL     OW30023   7.242  11.606   2.739
42750SOL    HW130024   7.333  11.607   2.768
42750SOL    HW230025   7.228  11.518   2.704
42751SOL     OW30026  12.905   4.330  13.901
42751SOL    HW130027  12.813   4.335  13.925
42751SOL    HW230028  12.933   4.422  13.892
42752SOL     OW30029   6.000   5.937  11.984
42752SOL    HW130030   6.090   5.949  11.953
42752SOL    HW230031   5.970   6.026  12.004
42753SOL     OW30032   9.154   9.683   9.973
42753SOL    HW130033   9.210   9.717  10.043
42753SOL    HW230034   9.149   9.589   9.989
42754SOL     OW30035  10.033  14.723  10.549
42754SOL    HW130036  10.015  14.631  10.529
42754SOL    HW230037  10.077  14.721  10.634
42755SOL     OW30038   2.587   7.901   4.319
42755SOL    HW130039   2.664   7.956   4.331
42755SOL    HW230040   2.515   7.954   4.353
42756SOL     OW30041   6.821   5.205   6.113
42756SOL    HW130042   6.817   5.297   6.088
42756SOL    HW230043   6.777   5.158   6.042
42757SOL     OW30044   4.146   8.412   7.910
42757SOL    HW130045   4.054   8.431   7.894
42757SOL    HW230046   4.146   8.357   7.988
42758SOL     OW30047   6.609   7.672  10.050
42758SOL    HW130048   6.648   7.652  10.135
42758SOL    HW230049   6.648   7.756  10.025
42759SOL     OW30050   0.195   3.035   8.176
42759SOL    HW130051   0.206   2.968   8.108
42759SOL    HW230052   0.239   3.112   8.140
42760SOL     OW30053  14.686  13.169  10.043
42760SOL    HW130054  14.674  13.074  10.049
42760SOL    HW230055  14.657  13.201  10.128
42761SOL     OW30056  10.886  11.357   4.566
42761SOL    HW130057  10.960  11.393   4.617
42761SOL    HW230058  10.821  11.427   4.566
42762SOL     OW30059   4.857   2.102   1.172
42762SOL    HW130060   4.839   2.179   1.119
42762SOL    HW230061   4.842   2.027   1.114
42763SOL     OW30062   7.060   1.839   4.773
42763SOL    HW130063   7.056   1.912   4.834
42763SOL    HW230064   7.078   1.763   4.829
42764SOL     OW30065   6.145   3.479   7.975
42764SOL    HW130066   6.092   3.400   7.967
42764SOL    HW230067   6.088   3.549   7.942
42765SOL     OW30068  12.892   7.873  11.516
42765SOL    HW130069  12.910   7.779  11.518
42765SOL    HW230070  12.913   7.899  11.426
42766SOL     OW30071  11.116   1.186  12.579
42766SOL    HW130072  11.069   1.109  12.547
42766SOL    HW230073  11.150   1.229  12.500
42767SOL     OW30074   4.834  10.082   0.882
42767SOL    HW130075   4.882  10.061   0.962
42767SOL    HW230076   4.759  10.135   0.912
42768SOL     OW30077   9.202   5.353  12.856
42768SOL    HW130078   9.190   5.402  12.774
42768SOL    HW230079   9.281   5.302  12.841
42769SOL     OW30080  14.656   7.162  14.209
42769SOL    HW130081  14.751   7.154  14.202
42769SOL    HW230082  14.633   7.108  14.285
42770SOL     OW30083   5.137  13.093   8.474
42770SOL    HW130084   5.082  13.086   8.552
42770SOL    HW230085   5.076  13.079   8.401
42771SOL     OW30086   0.109  10.725  14.794
42771SOL    HW130087   0.103  10.661  14.864
42771SOL    HW230088   0.188  10.775  14.813
42772SOL     OW30089   6.367   7.171   6.158
42772SOL    HW130090   6.363   7.251   6.105
42772SOL    HW230091   6.441   7.186   6.217
42773SOL     OW30092   3.448  11.206  14.446
42773SOL    HW130093   3.470  11.209  14.353
42773SOL    HW230094   3.352  11.206  14.448
42774SOL     OW30095   2.369   9.601  12.733
42774SOL    HW130096   2.348   9.694  12.743
42774SOL    HW230097   2.431   9.598  12.660
42775SOL     OW30098   9.133   6.662  11.253
42775SOL    HW130099   9.148   6.692  11.343
42775SOL    HW230100   9.056   6.605  11.259
42776SOL     OW30101   0.253   3.339   2.580
42776SOL    HW130102   0.254   3.362   2.673
42776SOL    HW230103   0.335   3.291   2.566
42777SOL     OW30104   4.411   4.229   6.815
42777SOL    HW130105   4.368   4.217   6.731
42777SOL    HW230106   4.464   4.150   6.827
42778SOL     OW30107  11.786   7.838   4.702
42778SOL    HW130108  11.813   7.913   4.650
42778SOL    HW230109  11.742   7.780   4.640
42779SOL     OW30110   1.286  11.440   2.428
42779SOL    HW130111   1.306  11.359   2.476
42779SOL    HW230112   1.203  11.421   2.383
42780SOL     OW30113   2.171  11.552   9.329
42780SOL    HW130114   2.180  11.646   9.313
42780SOL    HW230115   2.137  11.517   9.246
42781SOL     OW30116  11.950  12.738  13.287
42781SOL    HW130117  11.990  12.713  13.371
42781SOL    HW230118  11.873  12.682  13.280
42782SOL     OW30119   9.782   1.417   6.995
42782SOL    HW130120   9.872   1.436   6.972
42782SOL    HW230121   9.773   1.322   6.985
42783SOL     OW30122   0.694  10.413   7.067
42783SOL    HW130123   0.612  10.424   7.018
42783SOL    HW230124   0.670  10.356   7.140
42784SOL     OW30125   3.266   2.879   8.946
42784SOL    HW130126   3.245   2.963   8.986
42784SOL    HW230127   3.312   2.831   9.015
42785SOL     OW30128   6.945   4.813   6.560
42785SOL    HW130129   6.942   4.907   6.580
42785SOL    HW230130   7.038   4.793   6.552
42786SOL     OW30131  14.325   1.019   2.057
42786SOL    HW130132  14.319   0.943   2.000
42786SOL    HW230133  14.250   1.011   2.116
42787SOL     OW30134   5.183  14.264   1.515
42787SOL    HW130135   5.118  14.195   1.499
42787SOL    HW230136   5.167  14.328   1.445
42788SOL     OW30137   9.618   7.152   6.167
42788SOL    HW130138   9.633   7.180   6.257
42788SOL    HW230139   9.530   7.184   6.146
42789SOL     OW30140   7.446   0.023  11.830
42789SOL    HW130141   7.387  14.849  11.777
42789SOL    HW230142   7.475  14.842  11.900
42790SOL     OW30143   2.624  12.583   7.975
42790SOL    HW130144   2.680  12.657   7.950
42790SOL    HW230145   2.605  12.539   7.892
42791SOL     OW30146   3.223   5.125  10.508
42791SOL    HW130147   3.145   5.107  10.560
42791SOL    HW230148   3.292   5.144  10.572
42792SOL     OW30149   1.132   5.721   7.644
42792SOL    HW130150   1.153   5.641   7.595
42792SOL    HW230151   1.037   5.729   7.638
42793SOL     OW30152   5.869   6.488  11.044
42793SOL    HW130153   5.957   6.473  11.078
42793SOL    HW230154   5.822   6.530  11.116
42794SOL     OW30155   3.102  12.866   9.315
42794SOL    HW130156   3.043  12.820   9.255
42794SOL    HW230157   3.044  12.906   9.379
42795SOL     OW30158   1.183  12.042  13.536
42795SOL    HW130159   1.146  11.954  13.525
42795SOL    HW230160   1.154  12.089  13.458
42796SOL     OW30161   5.906   4.394  10.946
42796SOL    HW130162   5.947   4.307  10.952
42796SOL    HW230163   5.814   4.378  10.966
42797SOL     OW30164   6.774  14.501  13.221
42797SOL    HW130165   6.736  14.483  13.135
42797SOL    HW230166   6.777  14.416  13.265
42798SOL     OW30167   2.036   6.363  13.690
42798SOL    HW130168   1.964   6.371  13.753
42798SOL    HW230169   1.994   6.345  13.606
42799SOL     OW30170   0.929  14.695   5.625
42799SOL    HW130171   1.019  14.724   5.615
42799SOL    HW230172   0.935  14.611   5.669
42800SOL     OW30173   6.710   0.475   1.991
42800SOL    HW130174   6.713   0.457   2.085
42800SOL    HW230175   6.686   0.568   1.985
42801SOL     OW30176  14.313   3.623   1.619
42801SOL    HW130177  14.313   3.714   1.649
42801SOL    HW230178  14.265   3.576   1.688
42802SOL     OW30179  14.655   8.484   5.914
42802SOL    HW130180  14.571   8.513   5.950
42802SOL    HW230181  14.635   8.401   5.871
42803SOL     OW30182  14.751   9.447   3.246
42803SOL    HW130183  14.846   9.442   3.235
42803SOL    HW230184  14.728   9.536   3.217
42804SOL     OW30185   5.735  14.414   0.012
42804SOL    HW130186   5.694  14.501   0.015
42804SOL    HW230187   5.664  14.355  14.866
42805SOL     OW30188  14.526   5.190   6.175
42805SOL    HW130189  14.560   5.220   6.259
42805SOL    HW230190  14.556   5.255   6.112
42806SOL     OW30191   9.153   2.360   3.859
42806SOL    HW130192   9.094   2.285   3.860
42806SOL    HW230193   9.096   2.436   3.871
42807SOL     OW30194   1.057   7.971   6.997
42807SOL    HW130195   0.968   7.996   7.020
42807SOL    HW230196   1.112   8.012   7.063
42808SOL     OW30197   5.491   7.091   2.791
42808SOL    HW130198   5.433   7.023   2.757
42808SOL    HW230199   5.548   7.113   2.716
42809SOL     OW30200  14.344  13.138   7.380
42809SOL    HW130201  14.404  13.065   7.400
42809SOL    HW230202  14.393  13.216   7.405
42810SOL     OW30203  13.454   5.006  13.272
42810SOL    HW130204  13.538   4.986  13.314
42810SOL    HW230205  13.392   5.011  13.345
42811SOL     OW30206   7.825   2.713   1.317
42811SOL    HW130207   7.853   2.753   1.399
42811SOL    HW230208   7.830   2.784   1.253
42812SOL     OW30209   1.042   2.051   0.205
42812SOL    HW130210   0.952   2.074   0.182
42812SOL    HW230211   1.093   2.077   0.128
42813SOL     OW30212  13.719  11.190  11.139
42813SOL    HW130213  13.674  11.130  11.200
42813SOL    HW230214  13.768  11.133  11.081
42814SOL     OW30215   5.648   1.159   4.647
42814SOL    HW130216   5.653   1.090   4.581
42814SOL    HW230217   5.728   1.148   4.699
42815SOL     OW30218   1.192  13.134  14.492
42815SOL    HW130219   1.146  13.183  14.559
42815SOL    HW230220   1.126  13.116  14.425
42816SOL     OW30221   4.309  10.736   9.751
42816SOL    HW130222   4.235  10.702   9.801
42816SOL    HW230223   4.325  10.671   9.683
42817SOL     OW30224   4.528   9.660  11.736
42817SOL    HW130225   4.606   9.703  11.772
42817SOL    HW230226   4.504   9.596  11.803
42818SOL     OW30227   8.580  12.176   6.936
42818SOL    HW130228   8.518  12.247   6.917
42818SOL    HW230229   8.640  12.176   6.860
42819SOL     OW30230  13.249   6.163  10.010
42819SOL    HW130231  13.277   6.072  10.000
42819SOL    HW230232  13.300   6.196  10.083
42820SOL     OW30233   0.106  12.730  13.223
42820SOL    HW130234   0.179  12.683  13.183
42820SOL    HW230235   0.028  12.684  13.192
42821SOL     OW30236   8.285  10.390   4.212
42821SOL    HW130237   8.191  10.380   4.197
42821SOL    HW230238   8.322  10.304   4.194
42822SOL     OW30239   6.577   3.575   3.924
42822SOL    HW130240   6.518   3.645   3.895
42822SOL    HW230241   6.553   3.499   3.870
42823SOL     OW30242   7.098   6.878  14.337
42823SOL    HW130243   7.037   6.912  14.271
42823SOL    HW230244   7.084   6.934  14.414
42824SOL     OW30245   2.087   5.028   2.688
42824SOL    HW130246   2.057   5.021   2.778
42824SOL    HW230247   2.035   4.964   2.640
42825SOL     OW30248   8.348  13.778   1.242
42825SOL    HW130249   8.380  13.769   1.153
42825SOL    HW230250   8.256  13.751   1.237
42826SOL     OW30251  10.818   5.567   5.774
42826SOL    HW130252  10.776   5.636   5.825
42826SOL    HW230253  10.887   5.611   5.724
42827SOL     OW30254   2.282   1.786  10.426
42827SOL    HW130255   2.239   1.871  10.425
42827SOL    HW230256   2.362   1.800  10.476
42828SOL     OW30257   9.645  11.275   4.863
42828SOL    HW130258   9.731  11.238   4.884
42828SOL    HW230259   9.582  11.211   4.898
42829SOL     OW30260   9.926   2.739  11.210
42829SOL    HW130261   9.975   2.726  11.128
42829SOL    HW230262   9.854   2.676  11.205
42830SOL     OW30263   8.444  14.124   9.083
42830SOL    HW130264   8.517  14.095   9.137
42830SOL    HW230265   8.394  14.045   9.064
42831SOL     OW30266  11.219   8.711   0.723
42831SOL    HW130267  11.245   8.692   0.812
42831SOL    HW230268  11.136   8.758   0.731
42832SOL     OW30269   3.137   7.897   2.091
42832SOL    HW130270   3.085   7.819   2.072
42832SOL    HW230271   3.143   7.943   2.008
42833SOL     OW30272   4.782   6.167   5.345
42833SOL    HW130273   4.758   6.244   5.294
42833SOL    HW230274   4.826   6.202   5.422
42834SOL     OW30275  11.598   1.811   5.735
42834SOL    HW130276  11.532   1.803   5.804
42834SOL    HW230277  11.584   1.734   5.679
42835SOL     OW30278   1.147   2.045  13.638
42835SOL    HW130279   1.203   2.117  13.608
42835SOL    HW230280   1.132   2.063  13.730
42836SOL     OW30281   6.000   9.692   5.966
42836SOL    HW130282   5.923   9.749   5.963
42836SOL    HW230283   6.070   9.748   6.002
42837SOL     OW30284   1.866  11.107  14.318
42837SOL    HW130285   1.819  11.188  14.340
42837SOL    HW230286   1.882  11.114  14.224
42838SOL     OW30287  10.260   1.285   3.264
42838SOL    HW130288  10.223   1.351   3.322
42838SOL    HW230289  10.184   1.251   3.216
42839SOL     OW30290   2.097   3.282  10.514
42839SOL    HW130291   2.047   3.364  10.519
42839SOL    HW230292   2.108   3.266  10.420
42840SOL     OW30293  13.601   0.531   5.880
42840SOL    HW130294  13.629   0.478   5.805
42840SOL    HW230295  13.659   0.504   5.951
42841SOL     OW30296  10.953  11.761   3.661
42841SOL    HW130297  11.046  11.780   3.677
42841SOL    HW230298  10.946  11.756   3.565
42842SOL     OW30299   4.575   1.770  10.764
42842SOL    HW130300   4.628   1.691  10.772
42842SOL    HW230301   4.597   1.822  10.842
42843SOL     OW30302   5.093   0.317   5.893
42843SOL    HW130303   5.169   0.362   5.856
42843SOL    HW230304   5.079   0.242   5.835
42844SOL     OW30305   0.236  14.778   3.464
42844SOL    HW130306   0.187  14.787   3.546
42844SOL    HW230307   0.325  14.806   3.486
42845SOL     OW30308   5.240   3.698  11.465
42845SOL    HW130309   5.170   3.640  11.494
42845SOL    HW230310   5.197   3.781  11.445
42846SOL     OW30311   8.981   3.876   2.575
42846SOL    HW130312   9.017   3.913   2.494
42846SOL    HW230313   9.019   3.930   2.645
42847SOL     OW30314   9.132  13.846   8.425
42847SOL    HW130315   9.214  13.850   8.376
42847SOL    HW230316   9.134  13.923   8.483
42848SOL     OW30317  11.594  12.083   4.102
42848SOL    HW130318  11.507  12.044   4.115
42848SOL    HW230319  11.651  12.033   4.160
42849SOL     OW30320  11.085   9.401  13.915
42849SOL    HW130321  11.053   9.418  14.004
42849SOL    HW230322  11.041   9.467  13.861
42850SOL     OW30323   2.721   2.415   1.495
42850SOL    HW130324   2.728   2.323   1.518
42850SOL    HW230325   2.646   2.447   1.545
42851SOL     OW30326   2.538   4.166   1.621
42851SOL    HW130327   2.616   4.220   1.618
42851SOL    HW230328   2.571   4.076   1.625
42852SOL     OW30329   4.817  12.511   2.324
42852SOL    HW130330   4.858  12.539   2.406
42852SOL    HW230331   4.733  12.557   2.323
42853SOL     OW30332  10.108   9.050  10.693
42853SOL    HW130333  10.095   9.091  10.778
42853SOL    HW230334  10.062   8.966  10.700
42854SOL     OW30335  13.830   3.784   4.058
42854SOL    HW130336  13.775   3.835   3.999
42854SOL    HW230337  13.777   3.706   4.078
42855SOL     OW30338  14.131  14.625   5.610
42855SOL    HW130339  14.218  14.664   5.605
42855SOL    HW230340  14.072  14.700   5.621
42856SOL     OW30341   4.918  14.625  14.244
42856SOL    HW130342   4.873  14.698  14.286
42856SOL    HW230343   4.899  14.635  14.150
42857SOL     OW30344   2.722   3.550   0.632
42857SOL    HW130345   2.719   3.575   0.724
42857SOL    HW230346   2.811   3.574   0.604
42858SOL     OW30347  14.132  14.266   6.588
42858SOL    HW130348  14.202  14.236   6.646
42858SOL    HW230349  14.178  14.307   6.514
42859SOL     OW30350   5.815   8.176   3.962
42859SOL    HW130351   5.735   8.170   4.015
42859SOL    HW230352   5.881   8.211   4.021
42860SOL     OW30353   1.968   9.946  14.286
42860SOL    HW130354   1.918   9.993  14.352
42860SOL    HW230355   1.932   9.977  14.203
42861SOL     OW30356   3.435   7.785  12.355
42861SOL    HW130357   3.441   7.859  12.296
42861SOL    HW230358   3.507   7.797  12.417
42862SOL     OW30359  11.121   0.594   9.567
42862SOL    HW130360  11.156   0.671   9.612
42862SOL    HW230361  11.140   0.521   9.625
42863SOL     OW30362   3.299   9.574   9.908
42863SOL    HW130363   3.347   9.504   9.864
42863SOL    HW230364   3.324   9.653   9.860
42864SOL     OW30365   1.535  10.931   9.353
42864SOL    HW130366   1.605  10.957   9.293
42864SOL    HW230367   1.473  11.004   9.350
42865SOL     OW30368   7.521  12.716   8.337
42865SOL    HW130369   7.489  12.806   8.325
42865SOL    HW230370   7.534  12.683   8.248
42866SOL     OW30371   5.171   9.969   3.927
42866SOL    HW130372   5.097  10.016   3.890
42866SOL    HW230373   5.155   9.877   3.905
42867SOL     OW30374   0.309   6.948  11.856
42867SOL    HW130375   0.237   6.980  11.911
42867SOL    HW230376   0.266   6.897  11.787
42868SOL     OW30377  14.406   6.549   2.910
42868SOL    HW130378  14.490   6.586   2.881
42868SOL    HW230379  14.367   6.514   2.830
42869SOL     OW30380   9.593   0.956   6.123
42869SOL    HW130381   9.652   0.911   6.063
42869SOL    HW230382   9.540   0.887   6.162
42870SOL     OW30383   9.483  10.434   4.470
42870SOL    HW130384   9.517  10.516   4.505
42870SOL    HW230385   9.414  10.461   4.409
42871SOL     OW30386   5.862  11.729   8.893
42871SOL    HW130387   5.812  11.797   8.848
42871SOL    HW230388   5.813  11.713   8.974
42872SOL     OW30389   3.785   1.920   9.130
42872SOL    HW130390   3.743   1.909   9.215
42872SOL    HW230391   3.853   1.852   9.129
42873SOL     OW30392  12.926   7.530   7.574
42873SOL    HW130393  12.851   7.539   7.515
42873SOL    HW230394  13.001   7.522   7.515
42874SOL     OW30395  14.577   1.794   5.260
42874SOL    HW130396  14.626   1.815   5.340
42874SOL    HW230397  14.494   1.757   5.293
42875SOL     OW30398   7.357  11.288  14.120
42875SOL    HW130399   7.316  11.323  14.199
42875SOL    HW230400   7.435  11.342  14.108
42876SOL     OW30401   6.580  10.104  13.855
42876SOL    HW130402   6.501  10.153  13.832
42876SOL    HW230403   6.648  10.171  13.861
42877SOL     OW30404  12.669  14.092  12.327
42877SOL    HW130405  12.590  14.076  12.276
42877SOL    HW230406  12.740  14.093  12.262
42878SOL     OW30407   1.312   8.487  13.354
42878SOL    HW130408   1.392   8.460  13.307
42878SOL    HW230409   1.344   8.544  13.424
42879SOL     OW30410   3.339   5.009   0.732
42879SOL    HW130411   3.412   5.009   0.670
42879SOL    HW230412   3.375   5.048   0.812
42880SOL     OW30413   2.179  12.034  11.789
42880SOL    HW130414   2.150  11.979  11.862
42880SOL    HW230415   2.132  11.999  11.713
42881SOL     OW30416   1.486  14.865  11.909
42881SOL    HW130417   1.456   0.078  11.920
42881SOL    HW230418   1.534  14.846  11.990
42882SOL     OW30419   5.019   1.384   7.898
42882SOL    HW130420   4.928   1.358   7.911
42882SOL    HW230421   5.070   1.306   7.920
42883SOL     OW30422   6.841   0.523   8.862
42883SOL    HW130423   6.788   0.508   8.784
42883SOL    HW230424   6.931   0.523   8.829
42884SOL     OW30425  12.385   1.429  13.481
42884SOL    HW130426  12.405   1.338  13.456
42884SOL    HW230427  12.458   1.455  13.537
42885SOL     OW30428  13.016   2.404  13.208
42885SOL    HW130429  13.030   2.491  13.171
42885SOL    HW230430  12.925   2.405  13.236
42886SOL     OW30431   7.084   9.886   4.532
42886SOL    HW130432   7.067   9.818   4.467
42886SOL    HW230433   7.066   9.968   4.486
42887SOL     OW30434  11.810   3.823  13.653
42887SOL    HW130435  11.856   3.854  13.731
42887SOL    HW230436  11.876   3.826  13.584
42888SOL     OW30437   3.277   2.454   6.338
42888SOL    HW130438   3.267   2.500   6.255
42888SOL    HW230439   3.241   2.367   6.322
42889SOL     OW30440   7.304  14.521  10.675
42889SOL    HW130441   7.345  14.579  10.738
42889SOL    HW230442   7.240  14.471  10.726
42890SOL     OW30443  10.047   9.502   4.780
42890SOL    HW130444  10.001   9.420   4.797
42890SOL    HW230445   9.996   9.568   4.827
42891SOL     OW30446  12.199   7.683   9.702
42891SOL    HW130447  12.269   7.704   9.640
42891SOL    HW230448  12.237   7.700   9.788
42892SOL     OW30449   1.492   9.858   0.725
42892SOL    HW130450   1.529   9.769   0.730
42892SOL    HW230451   1.398   9.844   0.725
42893SOL     OW30452   0.435   4.795  14.469
42893SOL    HW130453   0.374   4.721  14.462
42893SOL    HW230454   0.453   4.819  14.378
42894SOL     OW30455  13.203   2.813   2.710
42894SOL    HW130456  13.158   2.896   2.695
42894SOL    HW230457  13.140   2.746   2.683
42895SOL     OW30458   9.486  14.245   5.348
42895SOL    HW130459   9.541  14.311   5.305
42895SOL    HW230460   9.537  14.164   5.344
42896SOL     OW30461   2.344  13.848  12.836
42896SOL    HW130462   2.351  13.852  12.932
42896SOL    HW230463   2.417  13.791  12.810
42897SOL     OW30464  10.052  11.918   2.711
42897SOL    HW130465   9.973  11.865   2.698
42897SOL    HW230466  10.111  11.861   2.759
42898SOL     OW30467  12.491   2.713   1.762
42898SOL    HW130468  12.476   2.807   1.750
42898SOL    HW230469  12.482   2.699   1.856
42899SOL     OW30470   3.322  10.692  12.005
42899SOL    HW130471   3.399  10.723  12.051
42899SOL    HW230472   3.249  10.715  12.062
42900SOL     OW30473  13.074  14.857   8.078
42900SOL    HW130474  13.122  14.775   8.088
42900SOL    HW230475  13.086   0.003   7.986
42901SOL     OW30476  11.974   4.907  10.439
42901SOL    HW130477  11.884   4.933  10.417
42901SOL    HW230478  12.012   4.878  10.356
42902SOL     OW30479   4.312   4.282   0.045
42902SOL    HW130480   4.220   4.306   0.057
42902SOL    HW230481   4.361   4.362   0.065
42903SOL     OW30482  11.540   5.956   2.887
42903SOL    HW130483  11.554   5.953   2.982
42903SOL    HW230484  11.447   5.975   2.878
42904SOL     OW30485   2.640   4.020  10.103
42904SOL    HW130486   2.629   4.073  10.182
42904SOL    HW230487   2.565   3.962  10.103
42905SOL     OW30488   6.064   1.560   7.477
42905SOL    HW130489   5.974   1.588   7.461
42905SOL    HW230490   6.063   1.466   7.464
42906SOL     OW30491   3.568   8.658  10.460
42906SOL    HW130492   3.598   8.583  10.511
42906SOL    HW230493   3.474   8.661  10.474
42907SOL     OW30494   2.851   6.317   1.921
42907SOL    HW130495   2.871   6.225   1.941
42907SOL    HW230496   2.756   6.320   1.916
42908SOL     OW30497  14.032   0.114   6.473
42908SOL    HW130498  14.102   0.164   6.516
42908SOL    HW230499  14.076   0.035   6.440
42909SOL     OW30500  10.018   7.755  14.343
42909SOL    HW130501   9.968   7.819  14.293
42909SOL    HW230502   9.960   7.679  14.350
42910SOL     OW30503   7.752   3.018   5.329
42910SOL    HW130504   7.824   3.075   5.302
42910SOL    HW230505   7.689   3.077   5.370
42911SOL     OW30506   7.019  11.507  14.500
42911SOL    HW130507   7.069  11.589  14.497
42911SOL    HW230508   6.999  11.488  14.408
42912SOL     OW30509   6.041  10.121   6.867
42912SOL    HW130510   6.131  10.149   6.849
42912SOL    HW230511   5.988  10.199   6.854
42913SOL     OW30512   6.192   9.136   3.307
42913SOL    HW130513   6.206   9.042   3.296
42913SOL    HW230514   6.136   9.143   3.385
42914SOL     OW30515  10.263   8.882  14.287
42914SOL    HW130516  10.346   8.931  14.287
42914SOL    HW230517  10.290   8.790  14.287
42915SOL     OW30518   0.591   9.737   2.273
42915SOL    HW130519   0.531   9.770   2.341
42915SOL    HW230520   0.596   9.643   2.289
42916SOL     OW30521   6.592  11.505   3.647
42916SOL    HW130522   6.565  11.596   3.639
42916SOL    HW230523   6.510  11.456   3.656
42917SOL     OW30524   9.886   4.131   9.812
42917SOL    HW130525   9.823   4.071   9.852
42917SOL    HW230526   9.946   4.155   9.883
42918SOL     OW30527   1.536  13.859   7.967
42918SOL    HW130528   1.621  13.862   8.010
42918SOL    HW230529   1.497  13.777   7.996
42919SOL     OW30530   2.923   0.798  13.199
42919SOL    HW130531   2.874   0.847  13.133
42919SOL    HW230532   2.961   0.725  13.151
42920SOL     OW30533   9.788  13.032   8.235
42920SOL    HW130534   9.780  12.939   8.254
42920SOL    HW230535   9.698  13.062   8.222
42921SOL     OW30536   9.107  14.552   0.785
42921SOL    HW130537   9.048  14.591   0.849
42921SOL    HW230538   9.123  14.463   0.819
42922SOL     OW30539   6.228   1.601  10.911
42922SOL    HW130540   6.266   1.555  10.837
42922SOL    HW230541   6.184   1.533  10.962
42923SOL     OW30542   4.763  11.862   1.321
42923SOL    HW130543   4.670  11.846   1.339
42923SOL    HW230544   4.801  11.879   1.407
42924SOL     OW30545   6.376  13.967   9.260
42924SOL    HW130546   6.331  14.004   9.337
42924SOL    HW230547   6.395  13.877   9.285
42925SOL     OW30548   9.409  12.977   8.513
42925SOL    HW130549   9.389  12.892   8.551
42925SOL    HW230550   9.327  13.004   8.470
42926SOL     OW30551  10.169   9.117   0.653
42926SOL    HW130552  10.169   9.067   0.571
42926SOL    HW230553  10.104   9.073   0.707
42927SOL     OW30554   1.830  14.666  12.713
42927SOL    HW130555   1.754  14.686  12.767
42927SOL    HW230556   1.802  14.686  12.623
42928SOL     OW30557  10.008  14.701  13.223
42928SOL    HW130558   9.916  14.725  13.224
42928SOL    HW230559  10.029  14.690  13.130
42929SOL     OW30560   6.505   0.766  14.362
42929SOL    HW130561   6.422   0.808  14.385
42929SOL    HW230562   6.560   0.836  14.327
42930SOL     OW30563   5.831  12.291  14.802
42930SOL    HW130564   5.753  12.309  14.750
42930SOL    HW230565   5.852  12.375  14.844
42931SOL     OW30566  10.931   0.252  11.264
42931SOL    HW130567  10.982   0.332  11.254
42931SOL    HW230568  10.844   0.273  11.230
42932SOL     OW30569  11.464  10.838  11.591
42932SOL    HW130570  11.426  10.831  11.679
42932SOL    HW230571  11.466  10.932  11.572
42933SOL     OW30572   3.403   8.679   4.968
42933SOL    HW130573   3.460   8.602   4.960
42933SOL    HW230574   3.330   8.650   5.021
42934SOL     OW30575   1.491  10.263   7.691
42934SOL    HW130576   1.505  10.316   7.769
42934SOL    HW230577   1.443  10.186   7.723
42935SOL     OW30578  14.443  12.788   0.544
42935SOL    HW130579  14.359  12.782   0.590
42935SOL    HW230580  14.503  12.737   0.597
42936SOL     OW30581  14.521   3.797  14.502
42936SOL    HW130582  14.506   3.836  14.588
42936SOL    HW230583  14.482   3.710  14.507
42937SOL     OW30584   9.852   2.528   4.153
42937SOL    HW130585   9.846   2.576   4.071
42937SOL    HW230586   9.793   2.453   4.142
42938SOL     OW30587   7.002   9.745   8.805
42938SOL    HW130588   7.052   9.740   8.724
42938SOL    HW230589   6.980   9.655   8.826
42939SOL     OW30590   5.332   3.034  10.820
42939SOL    HW130591   5.252   3.079  10.847
42939SOL    HW230592   5.330   2.951  10.866
42940SOL     OW30593   2.087   7.981  13.720
42940SOL    HW130594   2.181   7.970  13.733
42940SOL    HW230595   2.074   7.971  13.626
42941SOL     OW30596   5.034  11.103  13.621
42941SOL    HW130597   4.989  11.092  13.705
42941SOL    HW230598   4.965  11.091  13.556
42942SOL     OW30599  13.426   3.827  13.221
42942SOL    HW130600  13.496   3.791  13.167
42942SOL    HW230601  13.353   3.766  13.207
42943SOL     OW30602   4.410   7.432   8.616
42943SOL    HW130603   4.426   7.450   8.709
42943SOL    HW230604   4.487   7.467   8.571
42944SOL     OW30605   3.103  11.683  12.533
42944SOL    HW130606   3.098  11.691  12.438
42944SOL    HW230607   3.141  11.766  12.562
42945SOL     OW30608   7.436   7.493  13.636
42945SOL    HW130609   7.509   7.555  13.636
42945SOL    HW230610   7.362   7.543  13.671
42946SOL     OW30611  10.921   1.712   5.903
42946SOL    HW130612  11.000   1.683   5.856
42946SOL    HW230613  10.874   1.765   5.838
42947SOL     OW30614   4.058   6.892  11.465
42947SOL    HW130615   3.975   6.891  11.513
42947SOL    HW230616   4.039   6.941  11.385
42948SOL     OW30617  12.539   1.184  12.675
42948SOL    HW130618  12.585   1.253  12.627
42948SOL    HW230619  12.448   1.191  12.645
42949SOL     OW30620   4.791  12.661   4.780
42949SOL    HW130621   4.831  12.731   4.728
42949SOL    HW230622   4.859  12.595   4.789
42950SOL     OW30623  13.578   7.197  10.160
42950SOL    HW130624  13.665   7.158  10.151
42950SOL    HW230625  13.595   7.281  10.203
42951SOL     OW30626  11.136   5.423   7.560
42951SOL    HW130627  11.089   5.339   7.565
42951SOL    HW230628  11.142   5.441   7.466
42952SOL     OW30629  11.064  13.609  12.944
42952SOL    HW130630  11.152  13.573  12.948
42952SOL    HW230631  11.072  13.697  12.979
42953SOL     OW30632   1.746   0.331  14.344
42953SOL    HW130633   1.681   0.261  14.338
42953SOL    HW230634   1.831   0.287  14.342
42954SOL     OW30635   8.123   5.045   6.802
42954SOL    HW130636   8.197   5.025   6.860
42954SOL    HW230637   8.103   4.961   6.760
42955SOL     OW30638  12.727  13.575   7.014
42955SOL    HW130639  12.694  13.654   6.970
42955SOL    HW230640  12.690  13.502   6.963
42956SOL     OW30641   6.119   7.673   1.895
42956SOL    HW130642   6.207   7.706   1.878
42956SOL    HW230643   6.061   7.735   1.851
42957SOL     OW30644   4.403  10.579   0.765
42957SOL    HW130645   4.449  10.621   0.692
42957SOL    HW230646   4.313  10.570   0.736
42958SOL     OW30647  13.056   2.416  10.070
42958SOL    HW130648  13.002   2.363  10.130
42958SOL    HW230649  13.096   2.482  10.127
42959SOL     OW30650   7.524  14.481  14.305
42959SOL    HW130651   7.450  14.494  14.364
42959SOL    HW230652   7.554  14.392  14.322
42960SOL     OW30653   0.210   9.033   3.210
42960SOL    HW130654   0.290   8.984   3.195
42960SOL    HW230655   0.151   8.971   3.253
42961SOL     OW30656  10.350  11.479  10.693
42961SOL    HW130657  10.382  11.540  10.626
42961SOL    HW230658  10.260  11.506  10.709
42962SOL     OW30659   5.673  14.777  12.584
42962SOL    HW130660   5.649  14.765  12.676
42962SOL    HW230661   5.760  14.738  12.576
42963SOL     OW30662   7.705  11.794  10.101
42963SOL    HW130663   7.615  11.776  10.073
42963SOL    HW230664   7.759  11.770  10.026
42964SOL     OW30665   9.993   8.358   6.757
42964SOL    HW130666   9.958   8.353   6.668
42964SOL    HW230667   9.993   8.268   6.789
42965SOL     OW30668   1.890   9.375  14.236
42965SOL    HW130669   1.862   9.466  14.223
42965SOL    HW230670   1.940   9.354  14.157
42966SOL     OW30671   0.585  12.714   9.973
42966SOL    HW130672   0.572  12.741  10.064
42966SOL    HW230673   0.662  12.658   9.976
42967SOL     OW30674   5.129   7.741   7.381
42967SOL    HW130675   5.128   7.720   7.474
42967SOL    HW230676   5.220   7.732   7.354
42968SOL     OW30677   9.298   4.866  14.722
42968SOL    HW130678   9.270   4.826  14.804
42968SOL    HW230679   9.387   4.898  14.740
42969SOL     OW30680  12.525   3.488   2.310
42969SOL    HW130681  12.487   3.562   2.262
42969SOL    HW230682  12.608   3.521   2.343
42970SOL     OW30683   7.865  11.413  14.586
42970SOL    HW130684   7.779  11.450  14.609
42970SOL    HW230685   7.888  11.359  14.661
42971SOL     OW30686   7.979   5.061   0.482
42971SOL    HW130687   7.978   5.141   0.534
42971SOL    HW230688   8.000   4.992   0.544
42972SOL     OW30689   6.061   4.044   6.328
42972SOL    HW130690   6.142   4.075   6.287
42972SOL    HW230691   5.992   4.096   6.288
42973SOL     OW30692   9.260  14.744   5.555
42973SOL    HW130693   9.283  14.731   5.463
42973SOL    HW230694   9.328  14.804   5.588
42974SOL     OW30695   6.627   6.651  13.307
42974SOL    HW130696   6.666   6.738  13.316
42974SOL    HW230697   6.539   6.661  13.343
42975SOL     OW30698  14.374   0.156   9.757
42975SOL    HW130699  14.454   0.112   9.726
42975SOL    HW230700  14.364   0.231   9.699
42976SOL     OW30701   6.734   8.536  11.630
42976SOL    HW130702   6.715   8.542  11.537
42976SOL    HW230703   6.649   8.518  11.671
42977SOL     OW30704  13.257   3.487   7.944
42977SOL    HW130705  13.302   3.571   7.949
42977SOL    HW230706  13.241   3.463   8.035
42978SOL     OW30707  11.059  10.046  13.349
42978SOL    HW130708  11.115  10.013  13.279
42978SOL    HW230709  11.068   9.980  13.419
42979SOL     OW30710  13.173  10.404   7.305
42979SOL    HW130711  13.165  10.495   7.275
42979SOL    HW230712  13.252  10.403   7.358
42980SOL     OW30713   0.875   0.473   6.416
42980SOL    HW130714   0.837   0.555   6.449
42980SOL    HW230715   0.860   0.410   6.486
42981SOL     OW30716   0.074   6.984   2.429
42981SOL    HW130717   0.138   6.927   2.386
42981SOL    HW230718   0.050   7.048   2.361
42982SOL     OW30719   8.436  14.534   2.382
42982SOL    HW130720   8.483  14.615   2.362
42982SOL    HW230721   8.458  14.476   2.309
42983SOL     OW30722  13.096   1.503   2.725
42983SOL    HW130723  13.173   1.494   2.670
42983SOL    HW230724  13.116   1.453   2.804
42984SOL     OW30725  10.843  11.936   4.313
42984SOL    HW130726  10.841  11.945   4.409
42984SOL    HW230727  10.884  11.851   4.298
42985SOL     OW30728   6.346   7.443   4.931
42985SOL    HW130729   6.358   7.366   4.874
42985SOL    HW230730   6.265   7.483   4.901
42986SOL     OW30731  14.047   4.910   6.904
42986SOL    HW130732  14.131   4.910   6.857
42986SOL    HW230733  13.982   4.893   6.836
42987SOL     OW30734   9.948   3.402   7.959
42987SOL    HW130735   9.988   3.487   7.942
42987SOL    HW230736   9.904   3.412   8.043
42988SOL     OW30737   5.232  10.569   6.213
42988SOL    HW130738   5.181  10.625   6.271
42988SOL    HW230739   5.239  10.620   6.132
42989SOL     OW30740  13.024   2.854   9.338
42989SOL    HW130741  13.003   2.791   9.407
42989SOL    HW230742  13.007   2.807   9.257
42990SOL     OW30743   0.583   4.214   5.558
42990SOL    HW130744   0.496   4.174   5.564
42990SOL    HW230745   0.605   4.211   5.465
42991SOL     OW30746   2.126   4.499   1.480
42991SOL    HW130747   2.104   4.592   1.485
42991SOL    HW230748   2.178   4.482   1.559
42992SOL     OW30749  12.750  11.664   4.257
42992SOL    HW130750  12.820  11.722   4.286
42992SOL    HW230751  12.685  11.668   4.327
42993SOL     OW30752   2.218   2.820  12.381
42993SOL    HW130753   2.257   2.810  12.294
42993SOL    HW230754   2.130   2.784  12.372
42994SOL     OW30755  12.142  11.675   3.764
42994SOL    HW130756  12.168  11.705   3.677
42994SOL    HW230757  12.071  11.613   3.748
42995SOL     OW30758  12.942  10.158  12.703
42995SOL    HW130759  12.971  10.224  12.766
42995SOL    HW230760  12.906  10.087  12.757
42996SOL     OW30761   5.760   0.028   2.300
42996SOL    HW130762   5.670   0.059   2.290
42996SOL    HW230763   5.799   0.085   2.366
42997SOL     OW30764  14.236  10.938  13.211
42997SOL    HW130765  14.236  10.952  13.305
42997SOL    HW230766  14.309  10.878  13.195
42998SOL     OW30767   3.602   7.147  14.680
42998SOL    HW130768   3.544   7.071  14.678
42998SOL    HW230769   3.587   7.192  14.597
42999SOL     OW30770   3.388  10.944  10.206
42999SOL    HW130771   3.447  10.894  10.263
42999SOL    HW230772   3.401  11.035  10.233
43000SOL     OW30773   0.801  10.315  14.032
43000SOL    HW130774   0.876  10.266  14.065
43000SOL    HW230775   0.808  10.401  14.073
43001SOL     OW30776   9.612  13.746   2.365
43001SOL    HW130777   9.686  13.748   2.305
43001SOL    HW230778   9.542  13.794   2.320
43002SOL     OW30779   0.261  12.135   8.121
43002SOL    HW130780   0.258  12.043   8.093
43002SOL    HW230781   0.302  12.181   8.048
43003SOL     OW30782   5.326   4.454  12.463
43003SOL    HW130783   5.315   4.548  12.475
43003SOL    HW230784   5.371   4.445  12.379
43004SOL     OW30785   2.442   2.405   0.798
43004SOL    HW130786   2.516   2.431   0.852
43004SOL    HW230787   2.390   2.485   0.790
43005SOL     OW30788   0.282   1.728  14.456
43005SOL    HW130789   0.265   1.728  14.362
43005SOL    HW230790   0.202   1.693  14.495
43006SOL     OW30791   8.301  13.519  11.873
43006SOL    HW130792   8.350  13.585  11.824
43006SOL    HW230793   8.312  13.544  11.965
43007SOL     OW30794   7.755   8.324  14.858
43007SOL    HW130795   7.819   8.392   0.002
43007SOL    HW230796   7.714   8.302   0.064
43008SOL     OW30797  13.739   6.219   4.728
43008SOL    HW130798  13.815   6.215   4.670
43008SOL    HW230799  13.776   6.219   4.816
43009SOL     OW30800   3.258   6.462  12.646
43009SOL    HW130801   3.228   6.538  12.595
43009SOL    HW230802   3.195   6.393  12.625
43010SOL     OW30803  14.626   1.770   0.566
43010SOL    HW130804  14.652   1.683   0.598
43010SOL    HW230805  14.570   1.752   0.491
43011SOL     OW30806   4.640   4.649  14.478
43011SOL    HW130807   4.711   4.663  14.416
43011SOL    HW230808   4.567   4.702  14.445
43012SOL     OW30809   0.359   8.313   1.947
43012SOL    HW130810   0.405   8.319   1.864
43012SOL    HW230811   0.421   8.348   2.011
43013SOL     OW30812   0.914  11.029   2.509
43013SOL    HW130813   0.862  10.979   2.446
43013SOL    HW230814   0.878  11.118   2.503
43014SOL     OW30815   3.121  13.049   2.075
43014SOL    HW130816   3.210  13.070   2.104
43014SOL    HW230817   3.125  12.956   2.051
43015SOL     OW30818   8.645   9.099  13.437
43015SOL    HW130819   8.711   9.168  13.448
43015SOL    HW230820   8.657   9.070  13.346
43016SOL     OW30821   9.523  12.181  11.454
43016SOL    HW130822   9.439  12.226  11.451
43016SOL    HW230823   9.510  12.103  11.399
43017SOL     OW30824   4.365  12.789   4.927
43017SOL    HW130825   4.300  12.764   4.993
43017SOL    HW230826   4.426  12.714   4.924
43018SOL     OW30827   6.671   0.060   1.798
43018SOL    HW130828   6.582   0.092   1.815
43018SOL    HW230829   6.672  14.850   1.835
43019SOL     OW30830  12.719  12.571  10.613
43019SOL    HW130831  12.690  12.662  10.608
43019SOL    HW230832  12.697  12.534  10.527
43020SOL     OW30833   3.188   9.640  11.540
43020SOL    HW130834   3.149   9.702  11.479
43020SOL    HW230835   3.171   9.677  11.627
43021SOL     OW30836   7.120   3.206   1.948
43021SOL    HW130837   7.038   3.191   1.995
43021SOL    HW230838   7.178   3.247   2.012
43022SOL     OW30839   2.415  11.659   3.399
43022SOL    HW130840   2.456  11.597   3.338
43022SOL    HW230841   2.486  11.716   3.427
43023SOL     OW30842   6.767   7.324  10.974
43023SOL    HW130843   6.756   7.229  10.975
43023SOL    HW230844   6.740   7.352  11.062
43024SOL     OW30845   8.293   5.072   0.586
43024SOL    HW130846   8.347   5.038   0.657
43024SOL    HW230847   8.208   5.028   0.597
43025SOL     OW30848  14.077   8.953   2.397
43025SOL    HW130849  14.112   8.981   2.481
43025SOL    HW230850  14.047   8.863   2.413
43026SOL     OW30851  10.643   2.840  10.998
43026SOL    HW130852  10.658   2.752  11.033
43026SOL    HW230853  10.595   2.826  10.916
43027SOL     OW30854   1.048   7.937   7.949
43027SOL    HW130855   0.995   7.858   7.960
43027SOL    HW230856   1.062   7.969   8.038
43028SOL     OW30857   9.166   1.220  10.543
43028SOL    HW130858   9.237   1.198  10.604
43028SOL    HW230859   9.187   1.308  10.513
43029SOL     OW30860   5.593   3.287   5.801
43029SOL    HW130861   5.552   3.312   5.718
43029SOL    HW230862   5.683   3.264   5.777
43030SOL     OW30863   8.612  10.960  13.744
43030SOL    HW130864   8.551  10.970  13.671
43030SOL    HW230865   8.652  11.046  13.755
43031SOL     OW30866   2.869   8.821  11.836
43031SOL    HW130867   2.864   8.737  11.790
43031SOL    HW230868   2.823   8.882  11.779
43032SOL     OW30869   4.566  14.693  12.896
43032SOL    HW130870   4.656  14.691  12.929
43032SOL    HW230871   4.531  14.777  12.927
43033SOL     OW30872   1.514   9.889  14.372
43033SOL    HW130873   1.600   9.928  14.388
43033SOL    HW230874   1.506   9.821  14.439
43034SOL     OW30875   2.220   0.194  11.609
43034SOL    HW130876   2.304   0.223  11.574
43034SOL    HW230877   2.220   0.099  11.599
43035SOL     OW30878  10.636   0.381   1.406
43035SOL    HW130879  10.582   0.314   1.364
43035SOL    HW230880  10.726   0.358   1.381
43036SOL     OW30881   8.216   8.212  14.522
43036SOL    HW130882   8.173   8.130  14.499
43036SOL    HW230883   8.154   8.256  14.580
43037SOL     OW30884   1.805  11.237  11.055
43037SOL    HW130885   1.820  11.180  11.131
43037SOL    HW230886   1.854  11.317  11.074
43038SOL     OW30887   4.345   8.649   6.267
43038SOL    HW130888   4.375   8.721   6.322
43038SOL    HW230889   4.415   8.584   6.271
43039SOL     OW30890  11.478   3.887   7.613
43039SOL    HW130891  11.466   3.928   7.698
43039SOL    HW230892  11.572   3.869   7.607
43040SOL     OW30893   1.595   1.733  12.380
43040SOL    HW130894   1.614   1.825  12.360
43040SOL    HW230895   1.672   1.685  12.350
43041SOL     OW30896   2.277   6.001  11.219
43041SOL    HW130897   2.188   6.023  11.190
43041SOL    HW230898   2.269   5.991  11.314
43042SOL     OW30899   8.742  11.808   9.520
43042SOL    HW130900   8.707  11.888   9.558
43042SOL    HW230901   8.775  11.758   9.594
43043SOL     OW30902   5.825   8.155  11.635
43043SOL    HW130903   5.820   8.182  11.727
43043SOL    HW230904   5.886   8.217  11.596
43044SOL     OW30905  13.551   5.218  14.822
43044SOL    HW130906  13.623   5.231  14.759
43044SOL    HW230907  13.482   5.276  14.792
43045SOL     OW30908  12.545   6.420  12.975
43045SOL    HW130909  12.545   6.515  12.985
43045SOL    HW230910  12.453   6.398  12.957
43046SOL     OW30911  14.128   2.663   1.564
43046SOL    HW130912  14.045   2.706   1.544
43046SOL    HW230913  14.120   2.640   1.657
43047SOL     OW30914  10.371   4.820   3.752
43047SOL    HW130915  10.401   4.910   3.751
43047SOL    HW230916  10.428   4.776   3.815
43048SOL     OW30917   0.370   4.057   0.405
43048SOL    HW130918   0.359   4.020   0.492
43048SOL    HW230919   0.309   4.007   0.350
43049SOL     OW30920   2.238  10.379   6.469
43049SOL    HW130921   2.193  10.295   6.461
43049SOL    HW230922   2.330  10.358   6.458
43050SOL     OW30923  10.448   6.697   8.860
43050SOL    HW130924  10.539   6.723   8.847
43050SOL    HW230925  10.399   6.779   8.856
43051SOL     OW30926   1.164  14.316  13.837
43051SOL    HW130927   1.124  14.402  13.821
43051SOL    HW230928   1.091  14.261  13.865
43052SOL     OW30929   2.139  14.567  14.666
43052SOL    HW130930   2.176  14.492  14.714
43052SOL    HW230931   2.213  14.627  14.656
43053SOL     OW30932   9.956   0.990  12.840
43053SOL    HW130933   9.963   0.895  12.846
43053SOL    HW230934  10.028   1.023  12.893
43054SOL     OW30935   8.570  13.415  12.377
43054SOL    HW130936   8.649  13.451  12.419
43054SOL    HW230937   8.498  13.454  12.425
43055SOL     OW30938   8.572   4.660   4.061
43055SOL    HW130939   8.605   4.570   4.067
43055SOL    HW230940   8.477   4.651   4.055
43056SOL     OW30941  12.552   5.668   6.732
43056SOL    HW130942  12.618   5.624   6.785
43056SOL    HW230943  12.516   5.736   6.789
43057SOL     OW30944   9.491  10.337   2.437
43057SOL    HW130945   9.458  10.251   2.413
43057SOL    HW230946   9.555  10.358   2.369
43058SOL     OW30947   9.373   3.520   0.610
43058SOL    HW130948   9.332   3.553   0.529
43058SOL    HW230949   9.404   3.433   0.586
43059SOL     OW30950   3.514   8.769   2.209
43059SOL    HW130951   3.419   8.775   2.201
43059SOL    HW230952   3.541   8.714   2.135
43060SOL     OW30953  11.970   4.633   2.392
43060SOL    HW130954  11.877   4.609   2.399
43060SOL    HW230955  12.010   4.595   2.470
43061SOL     OW30956   4.854   9.501   5.226
43061SOL    HW130957   4.890   9.587   5.249
43061SOL    HW230958   4.775   9.494   5.279
43062SOL     OW30959   0.362   8.994  11.063
43062SOL    HW130960   0.457   9.001  11.048
43062SOL    HW230961   0.352   9.015  11.156
43063SOL     OW30962  14.252  10.749   5.645
43063SOL    HW130963  14.198  10.757   5.566
43063SOL    HW230964  14.273  10.656   5.651
43064SOL     OW30965  14.570   5.265  13.207
43064SOL    HW130966  14.539   5.326  13.141
43064SOL    HW230967  14.521   5.184  13.190
43065SOL     OW30968   0.832   1.461  14.105
43065SOL    HW130969   0.927   1.446  14.111
43065SOL    HW230970   0.824   1.543  14.056
43066SOL     OW30971  11.412  12.134   7.013
43066SOL    HW130972  11.432  12.226   7.034
43066SOL    HW230973  11.353  12.139   6.938
43067SOL     OW30974  12.633   1.439  12.991
43067SOL    HW130975  12.609   1.513  12.934
43067SOL    HW230976  12.724   1.457  13.015
43068SOL     OW30977  11.492   9.095   7.979
43068SOL    HW130978  11.519   9.104   8.070
43068SOL    HW230979  11.553   9.150   7.930
43069SOL     OW30980   6.390  10.736  10.975
43069SOL    HW130981   6.359  10.661  10.924
43069SOL    HW230982   6.475  10.707  11.009
43070SOL     OW30983  12.827  13.218   0.120
43070SOL    HW130984  12.846  13.287   0.056
43070SOL    HW230985  12.786  13.148   0.068
43071SOL     OW30986   3.474   1.645   0.225
43071SOL    HW130987   3.532   1.655   0.301
43071SOL    HW230988   3.387   1.663   0.258
43072SOL     OW30989   6.135   7.394   9.866
43072SOL    HW130990   6.139   7.403   9.961
43072SOL    HW230991   6.202   7.454   9.833
43073SOL     OW30992   7.620   6.962   9.751
43073SOL    HW130993   7.641   7.053   9.728
43073SOL    HW230994   7.525   6.962   9.763
43074SOL     OW30995   6.950  11.644  11.541
43074SOL    HW130996   7.012  11.613  11.606
43074SOL    HW230997   6.974  11.598  11.460
43075SOL     OW30998  12.283  10.670   9.527
43075SOL    HW130999  12.225  10.725   9.475
43075SOL    HW231000  12.369  10.711   9.519
43076SOL     OW31001  11.357   8.654   2.452
43076SOL    HW131002  11.270   8.615   2.460
43076SOL    HW231003  11.382   8.676   2.542
43077SOL     OW31004   4.053  11.173   6.738
43077SOL    HW131005   4.101  11.093   6.717
43077SOL    HW231006   4.111  11.244   6.711
43078SOL     OW31007   0.029   3.033   2.925
43078SOL    HW131008   0.057   3.041   2.833
43078SOL    HW231009   0.101   3.071   2.975
43079SOL     OW31010  11.221   0.551   1.452
43079SOL    HW131011  11.224   0.582   1.542
43079SOL    HW231012  11.178   0.622   1.404
43080SOL     OW31013   8.601  11.925   8.179
43080SOL    HW131014   8.555  11.878   8.249
43080SOL    HW231015   8.689  11.887   8.179
43081SOL     OW31016   1.248   1.980   7.186
43081SOL    HW131017   1.290   2.038   7.249
43081SOL    HW231018   1.319   1.953   7.127
43082SOL     OW31019   0.851   6.528   3.616
43082SOL    HW131020   0.828   6.452   3.563
43082SOL    HW231021   0.940   6.512   3.645
43083SOL     OW31022  12.546  10.909  11.447
43083SOL    HW131023  12.575  10.974  11.511
43083SOL    HW231024  12.489  10.850  11.496
43084SOL     OW31025  14.591  14.040  14.228
43084SOL    HW131026  14.517  14.063  14.284
43084SOL    HW231027  14.584  14.098  14.153
43085SOL     OW31028   2.899  10.632  10.748
43085SOL    HW131029   2.958  10.566  10.784
43085SOL    HW231030   2.895  10.700  10.815
43086SOL     OW31031   2.782   4.903   6.785
43086SOL    HW131032   2.746   4.923   6.871
43086SOL    HW231033   2.713   4.929   6.723
43087SOL     OW31034   8.297   3.364   1.716
43087SOL    HW131035   8.251   3.319   1.787
43087SOL    HW231036   8.389   3.341   1.729
43088SOL     OW31037   5.734   6.464  10.783
43088SOL    HW131038   5.717   6.540  10.728
43088SOL    HW231039   5.805   6.492  10.841
43089SOL     OW31040   2.288  13.129   1.882
43089SOL    HW131041   2.251  13.041   1.879
43089SOL    HW231042   2.377  13.119   1.848
43090SOL     OW31043   6.118  14.856   5.057
43090SOL    HW131044   6.028   0.010   5.062
43090SOL    HW231045   6.158   0.005   5.139
43091SOL     OW31046  12.691   6.580   3.312
43091SOL    HW131047  12.606   6.543   3.288
43091SOL    HW231048  12.737   6.590   3.228
43092SOL     OW31049   4.954   8.051   8.949
43092SOL    HW131050   5.031   8.034   8.896
43092SOL    HW231051   4.938   8.145   8.939
43093SOL     OW31052  13.185  12.862   0.457
43093SOL    HW131053  13.130  12.813   0.517
43093SOL    HW231054  13.135  12.866   0.375
43094SOL     OW31055   0.065   5.291  12.404
43094SOL    HW131056  14.872   5.343  12.366
43094SOL    HW231057   0.036   5.274  12.494
43095SOL     OW31058   6.798  11.031   2.529
43095SOL    HW131059   6.843  11.007   2.610
43095SOL    HW231060   6.868  11.045   2.465
43096SOL     OW31061  11.105  10.946   7.516
43096SOL    HW131062  11.192  10.940   7.556
43096SOL    HW231063  11.105  10.880   7.448
43097SOL     OW31064   8.984  12.720   7.229
43097SOL    HW131065   8.920  12.701   7.297
43097SOL    HW231066   9.055  12.657   7.244
43098SOL     OW31067   2.253   9.746   6.334
43098SOL    HW131068   2.221   9.656   6.333
43098SOL    HW231069   2.223   9.782   6.418
43099SOL     OW31070  12.990   6.488  11.101
43099SOL    HW131071  12.937   6.498  11.022
43099SOL    HW231072  13.014   6.396  11.103
43100SOL     OW31073   1.032   6.985  10.343
43100SOL    HW131074   0.963   7.051  10.349
43100SOL    HW231075   1.091   7.017  10.275
43101SOL     OW31076   7.742   3.498  13.128
43101SOL    HW131077   7.775   3.452  13.205
43101SOL    HW231078   7.716   3.584  13.161
43102SOL     OW31079   5.072   5.460   3.810
43102SOL    HW131080   4.987   5.418   3.799
43102SOL    HW231081   5.089   5.457   3.904
43103SOL     OW31082   1.723   4.658  14.697
43103SOL    HW131083   1.640   4.630  14.736
43103SOL    HW231084   1.697   4.715  14.624
43104SOL     OW31085  13.464   6.193   0.701
43104SOL    HW131086  13.463   6.134   0.777
43104SOL    HW231087  13.417   6.271   0.731
43105SOL     OW31088  11.395  12.028  14.245
43105SOL    HW131089  11.376  12.011  14.153
43105SOL    HW231090  11.346  11.961  14.293
43106SOL     OW31091  12.814  14.039   4.179
43106SOL    HW131092  12.773  13.960   4.213
43106SOL    HW231093  12.806  14.103   4.251
43107SOL     OW31094  10.553  12.144   3.433
43107SOL    HW131095  10.476  12.197   3.452
43107SOL    HW231096  10.621  12.177   3.492
43108SOL     OW31097   7.485   6.245   8.641
43108SOL    HW131098   7.580   6.239   8.657
43108SOL    HW231099   7.477   6.295   8.560
43109SOL     OW31100   4.019   6.744  10.999
43109SOL    HW131101   4.035   6.838  11.000
43109SOL    HW231102   4.103   6.705  10.977
43110SOL     OW31103  11.196  10.762   1.672
43110SOL    HW131104  11.117  10.771   1.619
43110SOL    HW231105  11.191  10.673   1.707
43111SOL     OW31106  10.536   7.098  10.649
43111SOL    HW131107  10.456   7.124  10.695
43111SOL    HW231108  10.545   7.004  10.665
43112SOL     OW31109   4.757   3.153  10.364
43112SOL    HW131110   4.762   3.065  10.327
43112SOL    HW231111   4.840   3.164  10.411
43113SOL     OW31112   3.509   6.365   3.042
43113SOL    HW131113   3.579   6.360   2.976
43113SOL    HW231114   3.555   6.362   3.126
43114SOL     OW31115   9.633   5.955   6.554
43114SOL    HW131116   9.550   5.923   6.587
43114SOL    HW231117   9.641   5.914   6.467
43115SOL     OW31118   5.173   1.392  13.584
43115SOL    HW131119   5.084   1.373  13.554
43115SOL    HW231120   5.172   1.485  13.605
43116SOL     OW31121  11.228  10.578   8.731
43116SOL    HW131122  11.303  10.545   8.682
43116SOL    HW231123  11.181  10.634   8.670
43117SOL     OW31124   6.677   6.202   0.551
43117SOL    HW131125   6.659   6.234   0.462
43117SOL    HW231126   6.749   6.257   0.582
43118SOL     OW31127   4.126   0.946   8.858
43118SOL    HW131128   4.168   0.878   8.804
43118SOL    HW231129   4.038   0.954   8.821
43119SOL     OW31130   4.458  10.120   9.339
43119SOL    HW131131   4.452  10.215   9.325
43119SOL    HW231132   4.508  10.111   9.420
43120SOL     OW31133  14.430   8.101  12.885
43120SOL    HW131134  14.388   8.147  12.812
43120SOL    HW231135  14.391   8.013  12.884
43121SOL     OW31136   0.875   6.571   4.714
43121SOL    HW131137   0.916   6.584   4.800
43121SOL    HW231138   0.933   6.507   4.670
43122SOL     OW31139   3.412   7.508   5.638
43122SOL    HW131140   3.483   7.549   5.686
43122SOL    HW231141   3.335   7.521   5.693
43123SOL     OW31142  13.910   4.633   9.948
43123SOL    HW131143  13.926   4.637  10.042
43123SOL    HW231144  13.945   4.548   9.920
43124SOL     OW31145   5.935   0.549  10.331
43124SOL    HW131146   5.846   0.525  10.359
43124SOL    HW231147   5.991   0.527  10.405
43125SOL     OW31148   6.329   1.604   9.446
43125SOL    HW131149   6.240   1.623   9.416
43125SOL    HW231150   6.329   1.634   9.538
43126SOL     OW31151   3.287   6.809  10.035
43126SOL    HW131152   3.202   6.851  10.044
43126SOL    HW231153   3.350   6.875  10.064
43127SOL     OW31154   0.634  14.264   3.218
43127SOL    HW131155   0.596  14.184   3.182
43127SOL    HW231156   0.653  14.243   3.309
43128SOL     OW31157  12.828   5.299  13.723
43128SOL    HW131158  12.900   5.268  13.668
43128SOL    HW231159  12.749   5.264  13.680
43129SOL     OW31160   0.018   7.175  12.821
43129SOL    HW131161   0.084   7.189  12.889
43129SOL    HW231162  14.843   7.255  12.823
43130SOL     OW31163  11.081   9.754   3.793
43130SOL    HW131164  11.080   9.807   3.873
43130SOL    HW231165  11.055   9.667   3.822
43131SOL     OW31166   1.486   0.896  11.039
43131SOL    HW131167   1.579   0.890  11.060
43131SOL    HW231168   1.442   0.848  11.109
43132SOL     OW31169  11.812  12.040   6.416
43132SOL    HW131170  11.857  12.121   6.392
43132SOL    HW231171  11.843  12.021   6.505
43133SOL     OW31172   9.891  14.638   2.260
43133SOL    HW131173   9.892  14.680   2.345
43133SOL    HW231174   9.963  14.574   2.264
43134SOL     OW31175   4.290   6.677  10.947
43134SOL    HW131176   4.363   6.668  10.886
43134SOL    HW231177   4.299   6.765  10.983
43135SOL     OW31178  14.380  14.514  12.062
43135SOL    HW131179  14.287  14.497  12.078
43135SOL    HW231180  14.382  14.599  12.018
43136SOL     OW31181   8.836   1.040  13.370
43136SOL    HW131182   8.898   1.047  13.442
43136SOL    HW231183   8.750   1.036  13.413
43137SOL     OW31184   8.204   6.300   7.442
43137SOL    HW131185   8.227   6.294   7.349
43137SOL    HW231186   8.283   6.272   7.488
43138SOL     OW31187  12.631  12.861   7.009
43138SOL    HW131188  12.669  12.946   7.030
43138SOL    HW231189  12.556  12.852   7.068
43139SOL     OW31190   2.183  12.728   0.641
43139SOL    HW131191   2.170  12.637   0.615
43139SOL    HW231192   2.276  12.744   0.627
43140SOL     OW31193   1.019  10.240   3.342
43140SOL    HW131194   1.011  10.320   3.393
43140SOL    HW231195   1.107  10.243   3.306
43141SOL     OW31196   7.398   7.992  12.809
43141SOL    HW131197   7.400   8.032  12.722
43141SOL    HW231198   7.317   7.941  12.810
43142SOL     OW31199  10.559   5.990   4.580
43142SOL    HW131200  10.506   5.928   4.532
43142SOL    HW231201  10.528   5.985   4.670
43143SOL     OW31202  13.864  14.299   2.978
43143SOL    HW131203  13.880  14.381   2.931
43143SOL    HW231204  13.894  14.317   3.068
43144SOL     OW31205   4.726   0.980   9.066
43144SOL    HW131206   4.702   0.923   8.992
43144SOL    HW231207   4.813   0.949   9.092
43145SOL     OW31208   4.324   5.633   4.056
43145SOL    HW131209   4.346   5.655   3.966
43145SOL    HW231210   4.271   5.707   4.086
43146SOL     OW31211   6.741   2.022   6.365
43146SOL    HW131212   6.667   2.056   6.316
43146SOL    HW231213   6.810   2.009   6.300
43147SOL     OW31214  13.062  10.044   9.136
43147SOL    HW131215  13.067   9.964   9.189
43147SOL    HW231216  13.064  10.013   9.045
43148SOL     OW31217   7.944   0.194   2.610
43148SOL    HW131218   7.941   0.211   2.705
43148SOL    HW231219   7.865   0.235   2.576
43149SOL     OW31220   8.049   5.937   5.679
43149SOL    HW131221   8.020   5.847   5.668
43149SOL    HW231222   8.051   5.972   5.590
43150SOL     OW31223  13.273   0.360   2.885
43150SOL    HW131224  13.217   0.438   2.877
43150SOL    HW231225  13.280   0.328   2.795
43151SOL     OW31226   2.353   0.202  12.743
43151SOL    HW131227   2.425   0.234  12.689
43151SOL    HW231228   2.355   0.258  12.821
43152SOL     OW31229  12.452   4.808  10.070
43152SOL    HW131230  12.544   4.793  10.091
43152SOL    HW231231  12.407   4.731  10.104
43153SOL     OW31232   9.365  11.124   6.269
43153SOL    HW131233   9.345  11.217   6.270
43153SOL    HW231234   9.452  11.118   6.228
43154SOL     OW31235  12.588   3.993   6.845
43154SOL    HW131236  12.668   4.007   6.794
43154SOL    HW231237  12.533   3.941   6.787
43155SOL     OW31238   1.941   4.625   4.130
43155SOL    HW131239   1.863   4.602   4.180
43155SOL    HW231240   2.011   4.571   4.167
43156SOL     OW31241   7.206  12.076   2.288
43156SOL    HW131242   7.216  12.057   2.382
43156SOL    HW231243   7.291  12.052   2.251
43157SOL     OW31244   3.861   1.121  13.437
43157SOL    HW131245   3.882   1.209  13.469
43157SOL    HW231246   3.928   1.065  13.477
43158SOL     OW31247   7.777   4.443  12.676
43158SOL    HW131248   7.829   4.375  12.719
43158SOL    HW231249   7.842   4.504  12.642
43159SOL     OW31250   9.870   8.862   4.966
43159SOL    HW131251   9.843   8.851   5.057
43159SOL    HW231252   9.794   8.837   4.915
43160SOL     OW31253   2.921   5.268   3.178
43160SOL    HW131254   2.984   5.320   3.226
43160SOL    HW231255   2.920   5.184   3.223
43161SOL     OW31256  12.590   8.541   7.176
43161SOL    HW131257  12.580   8.450   7.147
43161SOL    HW231258  12.569   8.593   7.098
43162SOL     OW31259   3.603   0.764   9.398
43162SOL    HW131260   3.672   0.729   9.455
43162SOL    HW231261   3.629   0.855   9.382
43163SOL     OW31262  14.250   3.706   4.894
43163SOL    HW131263  14.228   3.616   4.870
43163SOL    HW231264  14.188   3.760   4.845
43164SOL     OW31265   9.769  10.071   1.812
43164SOL    HW131266   9.823  10.091   1.735
43164SOL    HW231267   9.683  10.106   1.790
43165SOL     OW31268   9.865  13.554  12.467
43165SOL    HW131269   9.920  13.621  12.427
43165SOL    HW231270   9.776  13.576  12.439
43166SOL     OW31271  13.493   2.471  11.758
43166SOL    HW131272  13.443   2.432  11.687
43166SOL    HW231273  13.458   2.432  11.838
43167SOL     OW31274   4.357   5.851  10.792
43167SOL    HW131275   4.358   5.859  10.696
43167SOL    HW231276   4.349   5.941  10.823
43168SOL     OW31277   6.363  11.029   2.474
43168SOL    HW131278   6.403  11.083   2.407
43168SOL    HW231279   6.426  10.959   2.490
43169SOL     OW31280   3.996  12.779   1.432
43169SOL    HW131281   4.017  12.869   1.409
43169SOL    HW231282   3.909  12.765   1.396
43170SOL     OW31283   9.722   6.723   8.866
43170SOL    HW131284   9.763   6.689   8.786
43170SOL    HW231285   9.736   6.654   8.931
43171SOL     OW31286   2.175   6.296   2.386
43171SOL    HW131287   2.184   6.381   2.428
43171SOL    HW231288   2.092   6.261   2.419
43172SOL     OW31289   5.115   6.978   5.362
43172SOL    HW131290   5.038   6.925   5.340
43172SOL    HW231291   5.080   7.053   5.410
43173SOL     OW31292   6.710   1.422   3.418
43173SOL    HW131293   6.687   1.469   3.498
43173SOL    HW231294   6.748   1.489   3.361
43174SOL     OW31295  13.872  10.542   5.548
43174SOL    HW131296  13.887  10.504   5.635
43174SOL    HW231297  13.924  10.622   5.548
43175SOL     OW31298  12.795   1.626   3.455
43175SOL    HW131299  12.709   1.602   3.421
43175SOL    HW231300  12.824   1.697   3.397
43176SOL     OW31301   4.521  10.399   9.394
43176SOL    HW131302   4.457  10.447   9.342
43176SOL    HW231303   4.586  10.466   9.418
43177SOL     OW31304   6.033   3.712  10.606
43177SOL    HW131305   6.121   3.738  10.634
43177SOL    HW231306   6.002   3.655  10.677
43178SOL     OW31307  11.758   8.488   9.925
43178SOL    HW131308  11.840   8.537   9.924
43178SOL    HW231309  11.691   8.554   9.910
43179SOL     OW31310   3.327  10.482   1.522
43179SOL    HW131311   3.280  10.436   1.453
43179SOL    HW231312   3.266  10.549   1.553
43180SOL     OW31313   4.479   4.934   4.318
43180SOL    HW131314   4.470   4.926   4.413
43180SOL    HW231315   4.428   4.861   4.283
43181SOL     OW31316  12.633   4.370  14.059
43181SOL    HW131317  12.647   4.457  14.095
43181SOL    HW231318  12.616   4.315  14.136
43182SOL     OW31319   9.915   0.442  13.435
43182SOL    HW131320   9.847   0.486  13.384
43182SOL    HW231321   9.931   0.500  13.510
43183SOL     OW31322   1.244  12.303   0.803
43183SOL    HW131323   1.224  12.358   0.728
43183SOL    HW231324   1.235  12.214   0.771
43184SOL     OW31325  12.234   2.107  13.041
43184SOL    HW131326  12.223   2.042  13.110
43184SOL    HW231327  12.153   2.103  12.991
43185SOL     OW31328  14.439   7.144   5.524
43185SOL    HW131329  14.416   7.119   5.613
43185SOL    HW231330  14.449   7.061   5.477
43186SOL     OW31331  14.241   1.643  14.548
43186SOL    HW131332  14.278   1.596  14.473
43186SOL    HW231333  14.147   1.628  14.541
43187SOL     OW31334  11.302   0.919   7.361
43187SOL    HW131335  11.236   0.886   7.300
43187SOL    HW231336  11.347   0.840   7.393
43188SOL     OW31337  14.613   7.133   0.605
43188SOL    HW131338  14.684   7.071   0.619
43188SOL    HW231339  14.565   7.134   0.687
43189SOL     OW31340   8.434  11.710  13.506
43189SOL    HW131341   8.439  11.626  13.551
43189SOL    HW231342   8.494  11.701  13.432
43190SOL     OW31343   1.563  11.901   3.496
43190SOL    HW131344   1.509  11.945   3.431
43190SOL    HW231345   1.638  11.868   3.446
43191SOL     OW31346   9.426  13.649   3.766
43191SOL    HW131347   9.470  13.596   3.833
43191SOL    HW231348   9.337  13.662   3.800
43192SOL     OW31349   4.567  10.083   7.584
43192SOL    HW131350   4.494  10.024   7.565
43192SOL    HW231351   4.590  10.120   7.499
43193SOL     OW31352   6.426  11.372   3.070
43193SOL    HW131353   6.495  11.321   3.027
43193SOL    HW231354   6.438  11.356   3.163
43194SOL     OW31355  12.228   6.333   4.655
43194SOL    HW131356  12.225   6.375   4.741
43194SOL    HW231357  12.311   6.362   4.618
43195SOL     OW31358   2.663  12.224  11.886
43195SOL    HW131359   2.680  12.213  11.979
43195SOL    HW231360   2.605  12.300  11.880
43196SOL     OW31361  14.185   2.341   0.689
43196SOL    HW131362  14.183   2.248   0.670
43196SOL    HW231363  14.097   2.362   0.720
43197SOL     OW31364   5.900   8.212   2.687
43197SOL    HW131365   5.903   8.146   2.618
43197SOL    HW231366   5.985   8.254   2.685
43198SOL     OW31367  10.953   2.767  10.546
43198SOL    HW131368  11.025   2.787  10.486
43198SOL    HW231369  10.995   2.728  10.622
43199SOL     OW31370  11.115   0.596   3.325
43199SOL    HW131371  11.156   0.652   3.259
43199SOL    HW231372  11.034   0.641   3.348
43200SOL     OW31373  11.817   0.689   7.290
43200SOL    HW131374  11.814   0.785   7.289
43200SOL    HW231375  11.734   0.663   7.331
43201SOL     OW31376  12.905  11.646   8.444
43201SOL    HW131377  12.973  11.710   8.466
43201SOL    HW231378  12.824  11.696   8.442
43202SOL     OW31379  11.955  14.034  11.151
43202SOL    HW131380  12.014  14.032  11.227
43202SOL    HW231381  11.917  13.946  11.148
43203SOL     OW31382   4.119   0.251  12.913
43203SOL    HW131383   4.040   0.228  12.962
43203SOL    HW231384   4.143   0.337  12.946
43204SOL     OW31385  10.212  12.057  13.175
43204SOL    HW131386  10.129  12.099  13.199
43204SOL    HW231387  10.275  12.129  13.171
43205SOL     OW31388   7.522   1.489   7.477
43205SOL    HW131389   7.601   1.436   7.486
43205SOL    HW231390   7.555   1.577   7.459
43206SOL     OW31391   9.746  13.912   7.470
43206SOL    HW131392   9.778  13.846   7.531
43206SOL    HW231393   9.698  13.863   7.403
43207SOL     OW31394  14.591  12.763   9.275
43207SOL    HW131395  14.520  12.704   9.249
43207SOL    HW231396  14.625  12.797   9.192
43208SOL     OW31397  11.892   6.975   1.926
43208SOL    HW131398  11.972   6.995   1.877
43208SOL    HW231399  11.908   7.012   2.013
43209SOL     OW31400   4.679   7.082   1.272
43209SOL    HW131401   4.722   7.162   1.241
43209SOL    HW231402   4.695   7.080   1.366
43210SOL     OW31403   4.175   3.907  12.383
43210SOL    HW131404   4.085   3.876  12.370
43210SOL    HW231405   4.174   3.997  12.351
43211SOL     OW31406   8.175  14.683  12.113
43211SOL    HW131407   8.208  14.609  12.164
43211SOL    HW231408   8.246  14.707  12.055
43212SOL     OW31409  10.655   0.969   1.156
43212SOL    HW131410  10.624   1.023   1.229
43212SOL    HW231411  10.652   0.879   1.191
43213SOL     OW31412  12.569   8.651   4.883
43213SOL    HW131413  12.509   8.579   4.901
43213SOL    HW231414  12.642   8.637   4.943
43214SOL     OW31415  11.840   2.803   9.080
43214SOL    HW131416  11.869   2.873   9.022
43214SOL    HW231417  11.896   2.811   9.157
43215SOL     OW31418   1.138   3.128   2.342
43215SOL    HW131419   1.233   3.133   2.349
43215SOL    HW231420   1.110   3.078   2.418
43216SOL     OW31421   7.289   8.986   6.333
43216SOL    HW131422   7.313   9.068   6.377
43216SOL    HW231423   7.326   8.994   6.246
43217SOL     OW31424   8.258   6.600   6.330
43217SOL    HW131425   8.259   6.691   6.359
43217SOL    HW231426   8.203   6.555   6.394
43218SOL     OW31427  14.573   3.944  12.181
43218SOL    HW131428  14.548   4.005  12.251
43218SOL    HW231429  14.524   3.974  12.105
43219SOL     OW31430   9.218  11.345   7.026
43219SOL    HW131431   9.186  11.295   6.951
43219SOL    HW231432   9.140  11.364   7.078
43220SOL     OW31433   5.537  14.341  11.300
43220SOL    HW131434   5.619  14.360  11.255
43220SOL    HW231435   5.526  14.413  11.362
43221SOL     OW31436   0.649   3.105   3.290
43221SOL    HW131437   0.723   3.137   3.238
43221SOL    HW231438   0.586   3.073   3.224
43222SOL     OW31439  11.636   3.236   5.788
43222SOL    HW131440  11.625   3.326   5.758
43222SOL    HW231441  11.642   3.184   5.707
43223SOL     OW31442   3.219   5.917   2.013
43223SOL    HW131443   3.248   5.956   1.930
43223SOL    HW231444   3.201   5.991   2.070
43224SOL     OW31445   2.802   1.719  10.555
43224SOL    HW131446   2.728   1.713  10.494
43224SOL    HW231447   2.856   1.642  10.535
43225SOL     OW31448  13.055   5.640   5.321
43225SOL    HW131449  12.963   5.657   5.300
43225SOL    HW231450  13.075   5.700   5.393
43226SOL     OW31451  14.696   2.806   4.725
43226SOL    HW131452  14.628   2.759   4.675
43226SOL    HW231453  14.768   2.743   4.732
43227SOL     OW31454  14.343  12.445  11.092
43227SOL    HW131455  14.356  12.520  11.035
43227SOL    HW231456  14.315  12.483  11.176
43228SOL     OW31457   7.639   3.121   1.942
43228SOL    HW131458   7.614   3.034   1.972
43228SOL    HW231459   7.601   3.181   2.007
43229SOL     OW31460   2.693  12.882   7.236
43229SOL    HW131461   2.746  12.866   7.314
43229SOL    HW231462   2.649  12.965   7.253
43230SOL     OW31463   3.281  10.113   8.584
43230SOL    HW131464   3.274  10.152   8.671
43230SOL    HW231465   3.358  10.055   8.589
43231SOL     OW31466  10.125   1.300   2.519
43231SOL    HW131467  10.206   1.350   2.526
43231SOL    HW231468  10.062   1.349   2.572
43232SOL     OW31469  12.637   7.269  13.854
43232SOL    HW131470  12.554   7.277  13.806
43232SOL    HW231471  12.689   7.209  13.800
43233SOL     OW31472   0.071  13.901   0.521
43233SOL    HW131473   0.110  13.930   0.438
43233SOL    HW231474   0.035  13.815   0.502
43234SOL     OW31475   6.157   4.671   2.777
43234SOL    HW131476   6.160   4.659   2.682
43234SOL    HW231477   6.174   4.764   2.790
43235SOL     OW31478  12.591   3.027   9.058
43235SOL    HW131479  12.648   3.081   9.004
43235SOL    HW231480  12.504   3.066   9.047
43236SOL     OW31481   6.165   8.511   7.350
43236SOL    HW131482   6.174   8.602   7.323
43236SOL    HW231483   6.255   8.479   7.356
43237SOL     OW31484   6.964   8.867   7.605
43237SOL    HW131485   6.888   8.829   7.648
43237SOL    HW231486   7.031   8.872   7.673
43238SOL     OW31487   7.005   6.138   9.666
43238SOL    HW131488   7.046   6.102   9.587
43238SOL    HW231489   7.071   6.125   9.735
43239SOL     OW31490   9.765  14.797   3.053
43239SOL    HW131491   9.753  14.703   3.057
43239SOL    HW231492   9.677  14.833   3.067
43240SOL     OW31493  13.854  14.383  14.687
43240SOL    HW131494  13.904  14.382  14.606
43240SOL    HW231495  13.808  14.298  14.687
43241SOL     OW31496   7.858   5.237   4.868
43241SOL    HW131497   7.932   5.177   4.882
43241SOL    HW231498   7.796   5.215   4.937
43242SOL     OW31499   9.152  13.501  14.712
43242SOL    HW131500   9.066  13.540  14.700
43242SOL    HW231501   9.195  13.511  14.627
43243SOL     OW31502  11.955   1.335   6.423
43243SOL    HW131503  11.883   1.272   6.431
43243SOL    HW231504  11.994   1.338   6.510
43244SOL     OW31505   8.271   4.638   9.688
43244SOL    HW131506   8.270   4.558   9.741
43244SOL    HW231507   8.337   4.620   9.620
43245SOL     OW31508  12.600  10.387  13.124
43245SOL    HW131509  12.682  10.422  13.156
43245SOL    HW231510  12.589  10.428  13.038
43246SOL     OW31511   6.627  13.457  10.818
43246SOL    HW131512   6.668  13.489  10.737
43246SOL    HW231513   6.623  13.362  10.808
43247SOL     OW31514  12.030   5.046  14.638
43247SOL    HW131515  12.062   5.100  14.566
43247SOL    HW231516  12.042   4.956  14.607
43248SOL     OW31517   0.372   0.374   7.240
43248SOL    HW131518   0.391   0.380   7.146
43248SOL    HW231519   0.367   0.280   7.257
43249SOL     OW31520  10.670   5.058   1.904
43249SOL    HW131521  10.613   5.099   1.969
43249SOL    HW231522  10.622   4.980   1.876
43250SOL     OW31523   8.738  12.600  11.197
43250SOL    HW131524   8.734  12.548  11.117
43250SOL    HW231525   8.706  12.541  11.265
43251SOL     OW31526   9.585  12.237  12.910
43251SOL    HW131527   9.572  12.256  13.003
43251SOL    HW231528   9.532  12.159  12.894
43252SOL     OW31529   4.287   7.139   2.581
43252SOL    HW131530   4.315   7.048   2.570
43252SOL    HW231531   4.350   7.189   2.529
43253SOL     OW31532  12.494   5.579  12.395
43253SOL    HW131533  12.440   5.654  12.420
43253SOL    HW231534  12.584   5.607  12.415
43254SOL     OW31535  11.867  10.212  12.367
43254SOL    HW131536  11.823  10.129  12.384
43254SOL    HW231537  11.819  10.250  12.294
43255SOL     OW31538  14.556  14.588   0.931
43255SOL    HW131539  14.641  14.544   0.926
43255SOL    HW231540  14.494  14.518   0.949
43256SOL     OW31541   6.620   7.062  10.548
43256SOL    HW131542   6.534   7.027  10.524
43256SOL    HW231543   6.665   7.075  10.465
43257SOL     OW31544   0.556   0.800   5.389
43257SOL    HW131545   0.493   0.782   5.459
43257SOL    HW231546   0.566   0.716   5.343
43258SOL     OW31547   0.854  13.053   3.261
43258SOL    HW131548   0.906  13.129   3.235
43258SOL    HW231549   0.892  13.024   3.344
43259SOL     OW31550  11.923  11.549   0.222
43259SOL    HW131551  11.944  11.637   0.191
43259SOL    HW231552  11.827  11.545   0.218
43260SOL     OW31553   5.999  11.278   1.444
43260SOL    HW131554   5.917  11.327   1.445
43260SOL    HW231555   5.972  11.187   1.436
43261SOL     OW31556  14.819   5.514   1.432
43261SOL    HW131557  14.786   5.596   1.468
43261SOL    HW231558  14.768   5.446   1.476
43262SOL     OW31559   2.787  14.263   0.129
43262SOL    HW131560   2.725  14.284   0.059
43262SOL    HW231561   2.758  14.315   0.203
43263SOL     OW31562   0.256   8.125   6.411
43263SOL    HW131563   0.194   8.140   6.482
43263SOL    HW231564   0.255   8.207   6.361
43264SOL     OW31565  12.169   4.274   7.380
43264SOL    HW131566  12.210   4.196   7.342
43264SOL    HW231567  12.165   4.255   7.474
43265SOL     OW31568  10.785   3.768   2.121
43265SOL    HW131569  10.700   3.805   2.148
43265SOL    HW231570  10.829   3.749   2.204
43266SOL     OW31571  10.092   0.205   1.242
43266SOL    HW131572  10.138   0.240   1.166
43266SOL    HW231573   9.999   0.218   1.222
43267SOL     OW31574   3.520   9.738   2.019
43267SOL    HW131575   3.479   9.651   2.010
43267SOL    HW231576   3.606   9.728   1.978
43268SOL     OW31577  12.777   1.586   1.106
43268SOL    HW131578  12.788   1.552   1.017
43268SOL    HW231579  12.815   1.674   1.103
43269SOL     OW31580   4.373   5.744   7.099
43269SOL    HW131581   4.429   5.691   7.155
43269SOL    HW231582   4.284   5.719   7.123
43270SOL     OW31583   3.100  13.954  12.683
43270SOL    HW131584   3.067  13.912  12.603
43270SOL    HW231585   3.036  14.023  12.702
43271SOL     OW31586   8.939   2.103   6.271
43271SOL    HW131587   9.009   2.168   6.281
43271SOL    HW231588   8.860   2.156   6.257
43272SOL     OW31589   2.919   7.968   8.153
43272SOL    HW131590   2.960   7.951   8.069
43272SOL    HW231591   2.942   8.059   8.173
43273SOL     OW31592   7.981  10.997   4.605
43273SOL    HW131593   8.033  11.063   4.650
43273SOL    HW231594   8.018  10.913   4.634
43274SOL     OW31595   0.044   1.709  11.845
43274SOL    HW131596  14.866   1.668  11.910
43274SOL    HW231597   0.113   1.645  11.828
43275SOL     OW31598   6.372   6.897  12.626
43275SOL    HW131599   6.426   6.970  12.596
43275SOL    HW231600   6.415   6.819  12.591
43276SOL     OW31601   5.165  12.359   4.998
43276SOL    HW131602   5.256  12.386   5.007
43276SOL    HW231603   5.150  12.299   5.072
43277SOL     OW31604   9.061   2.558   3.033
43277SOL    HW131605   9.132   2.494   3.022
43277SOL    HW231606   9.039   2.585   2.944
43278SOL     OW31607   8.083   2.002   0.370
43278SOL    HW131608   8.148   2.049   0.422
43278SOL    HW231609   8.079   2.050   0.287
43279SOL     OW31610   5.684   1.490   1.262
43279SOL    HW131611   5.661   1.427   1.330
43279SOL    HW231612   5.663   1.446   1.180
43280SOL     OW31613  10.900   0.914   9.709
43280SOL    HW131614  10.995   0.904   9.719
43280SOL    HW231615  10.874   0.840   9.654
43281SOL     OW31616  14.189  10.139  13.988
43281SOL    HW131617  14.237  10.121  14.069
43281SOL    HW231618  14.100  10.158  14.017
43282SOL     OW31619   2.223  11.036   6.681
43282SOL    HW131620   2.142  10.987   6.670
43282SOL    HW231621   2.195  11.124   6.707
43283SOL     OW31622   3.434   8.664   1.755
43283SOL    HW131623   3.472   8.612   1.685
43283SOL    HW231624   3.498   8.733   1.771
43284SOL     OW31625   8.330   3.899  10.336
43284SOL    HW131626   8.300   3.815  10.300
43284SOL    HW231627   8.254   3.957  10.327
43285SOL     OW31628   0.961   8.176   1.275
43285SOL    HW131629   0.867   8.195   1.278
43285SOL    HW231630   0.966   8.081   1.282
43286SOL     OW31631  11.791  13.399   9.945
43286SOL    HW131632  11.845  13.466   9.904
43286SOL    HW231633  11.850  13.353  10.004
43287SOL     OW31634   1.254  14.103   5.807
43287SOL    HW131635   1.257  14.139   5.718
43287SOL    HW231636   1.334  14.050   5.814
43288SOL     OW31637   0.607   0.465  11.028
43288SOL    HW131638   0.679   0.510  10.986
43288SOL    HW231639   0.634   0.458  11.120
43289SOL     OW31640   4.857  13.603   7.078
43289SOL    HW131641   4.911  13.588   7.156
43289SOL    HW231642   4.834  13.516   7.047
43290SOL     OW31643  12.067   7.627   4.202
43290SOL    HW131644  12.047   7.533   4.194
43290SOL    HW231645  12.015   7.656   4.277
43291SOL     OW31646  13.942   1.874  14.546
43291SOL    HW131647  13.956   1.779  14.543
43291SOL    HW231648  14.008   1.906  14.606
43292SOL     OW31649   9.891  12.355   7.462
43292SOL    HW131650   9.952  12.290   7.498
43292SOL    HW231651   9.947  12.420   7.421
43293SOL     OW31652   7.885  12.626   1.745
43293SOL    HW131653   7.799  12.637   1.704
43293SOL    HW231654   7.943  12.682   1.694
43294SOL     OW31655   5.207  11.630   4.897
43294SOL    HW131656   5.258  11.672   4.966
43294SOL    HW231657   5.142  11.695   4.872
43295SOL     OW31658  10.061  11.303  13.640
43295SOL    HW131659  10.088  11.366  13.706
43295SOL    HW231660   9.973  11.276  13.667
43296SOL     OW31661   8.254  12.747  11.263
43296SOL    HW131662   8.169  12.744  11.305
43296SOL    HW231663   8.287  12.657  11.267
43297SOL     OW31664  14.026   7.414   1.253
43297SOL    HW131665  13.989   7.476   1.316
43297SOL    HW231666  13.962   7.344   1.248
43298SOL     OW31667   3.043  11.424  13.624
43298SOL    HW131668   3.097  11.359  13.669
43298SOL    HW231669   3.015  11.484  13.693
43299SOL     OW31670   6.539   9.066  11.687
43299SOL    HW131671   6.559   8.987  11.738
43299SOL    HW231672   6.599   9.063  11.614
43300SOL     OW31673   4.612   3.965  13.723
43300SOL    HW131674   4.553   4.030  13.685
43300SOL    HW231675   4.697   3.983  13.683
43301SOL     OW31676   5.793   8.184   0.907
43301SOL    HW131677   5.828   8.263   0.867
43301SOL    HW231678   5.810   8.194   1.001
43302SOL     OW31679   5.937   6.386  10.350
43302SOL    HW131680   5.904   6.458  10.404
43302SOL    HW231681   6.032   6.399  10.351
43303SOL     OW31682   8.691   3.834  12.878
43303SOL    HW131683   8.685   3.746  12.840
43303SOL    HW231684   8.747   3.824  12.954
43304SOL     OW31685   6.721  13.334   0.520
43304SOL    HW131686   6.755  13.244   0.511
43304SOL    HW231687   6.788  13.388   0.479
43305SOL     OW31688   9.321   0.059   8.207
43305SOL    HW131689   9.383   0.043   8.136
43305SOL    HW231690   9.341  14.870   8.272
43306SOL     OW31691   5.748   1.601   4.851
43306SOL    HW131692   5.657   1.608   4.882
43306SOL    HW231693   5.744   1.538   4.779
43307SOL     OW31694  11.877  13.675   7.477
43307SOL    HW131695  11.862  13.748   7.537
43307SOL    HW231696  11.863  13.597   7.531
43308SOL     OW31697  12.575   8.909   4.516
43308SOL    HW131698  12.522   8.976   4.559
43308SOL    HW231699  12.615   8.954   4.442
43309SOL     OW31700   1.778   2.412   4.702
43309SOL    HW131701   1.689   2.395   4.671
43309SOL    HW231702   1.823   2.328   4.692
43310SOL     OW31703   0.829  14.828   3.910
43310SOL    HW131704   0.746  14.809   3.954
43310SOL    HW231705   0.838   0.045   3.914
43311SOL     OW31706   6.980   0.342  12.399
43311SOL    HW131707   6.965   0.248  12.397
43311SOL    HW231708   6.907   0.379  12.349
43312SOL     OW31709   6.622   7.456   9.819
43312SOL    HW131710   6.674   7.522   9.771
43312SOL    HW231711   6.604   7.497   9.904
43313SOL     OW31712   2.411  13.512   6.835
43313SOL    HW131713   2.340  13.513   6.900
43313SOL    HW231714   2.373  13.466   6.760
43314SOL     OW31715  12.679   8.823   3.638
43314SOL    HW131716  12.683   8.896   3.699
43314SOL    HW231717  12.684   8.863   3.552
43315SOL     OW31718   8.576   5.637   9.529
43315SOL    HW131719   8.524   5.566   9.489
43315SOL    HW231720   8.572   5.708   9.465
43316SOL     OW31721   0.104   5.497  12.902
43316SOL    HW131722   0.184   5.444  12.903
43316SOL    HW231723   0.061   5.477  12.985
43317SOL     OW31724   3.265   7.817   6.269
43317SOL    HW131725   3.245   7.748   6.333
43317SOL    HW231726   3.322   7.774   6.205
43318SOL     OW31727   4.598   8.315   7.112
43318SOL    HW131728   4.530   8.325   7.179
43318SOL    HW231729   4.605   8.220   7.100
43319SOL     OW31730   3.907   8.549   5.886
43319SOL    HW131731   3.919   8.481   5.952
43319SOL    HW231732   3.829   8.521   5.837
43320SOL     OW31733   2.651  10.898  11.531
43320SOL    HW131734   2.708  10.891  11.454
43320SOL    HW231735   2.691  10.968  11.583
43321SOL     OW31736   2.072   5.608   3.947
43321SOL    HW131737   2.093   5.701   3.938
43321SOL    HW231738   2.037   5.584   3.861
43322SOL     OW31739   0.204   5.770  14.471
43322SOL    HW131740   0.185   5.823  14.550
43322SOL    HW231741   0.118   5.738  14.443
43323SOL     OW31742   2.389   9.585  11.438
43323SOL    HW131743   2.394   9.565  11.344
43323SOL    HW231744   2.479   9.604  11.463
43324SOL     OW31745   4.200   5.668  13.911
43324SOL    HW131746   4.138   5.600  13.883
43324SOL    HW231747   4.191   5.669  14.007
43325SOL     OW31748   1.174   9.956  11.975
43325SOL    HW131749   1.127   9.970  12.057
43325SOL    HW231750   1.142  10.025  11.917
43326SOL     OW31751  12.052   8.620   5.070
43326SOL    HW131752  12.013   8.539   5.103
43326SOL    HW231753  12.067   8.673   5.148
43327SOL     OW31754   8.118   0.667   8.065
43327SOL    HW131755   8.141   0.644   7.975
43327SOL    HW231756   8.194   0.714   8.099
43328SOL     OW31757  10.809  14.403   6.312
43328SOL    HW131758  10.862  14.445   6.244
43328SOL    HW231759  10.756  14.339   6.265
43329SOL     OW31760   3.160   7.090   6.177
43329SOL    HW131761   3.189   7.082   6.086
43329SOL    HW231762   3.137   7.182   6.187
43330SOL     OW31763   5.918   5.302   0.244
43330SOL    HW131764   5.926   5.235   0.177
43330SOL    HW231765   5.968   5.376   0.210
43331SOL     OW31766  13.438  14.100   8.042
43331SOL    HW131767  13.432  14.005   8.027
43331SOL    HW231768  13.532  14.119   8.034
43332SOL     OW31769  12.294  14.149   5.942
43332SOL    HW131770  12.280  14.186   5.855
43332SOL    HW231771  12.352  14.212   5.985
43333SOL     OW31772   2.611   1.483   3.539
43333SOL    HW131773   2.582   1.462   3.627
43333SOL    HW231774   2.586   1.407   3.486
43334SOL     OW31775   4.087  13.885   0.364
43334SOL    HW131776   4.140  13.832   0.304
43334SOL    HW231777   4.013  13.914   0.312
43335SOL     OW31778   0.246   3.827   5.559
43335SOL    HW131779   0.341   3.821   5.566
43335SOL    HW231780   0.213   3.783   5.638
43336SOL     OW31781  14.649  10.735  11.106
43336SOL    HW131782  14.613  10.760  11.191
43336SOL    HW231783  14.614  10.647  11.092
43337SOL     OW31784   7.785   4.104   6.392
43337SOL    HW131785   7.749   4.048   6.462
43337SOL    HW231786   7.751   4.065   6.311
43338SOL     OW31787  12.765   2.444   1.648
43338SOL    HW131788  12.751   2.497   1.726
43338SOL    HW231789  12.806   2.503   1.585
43339SOL     OW31790  12.978   6.685  14.378
43339SOL    HW131791  13.054   6.636  14.407
43339SOL    HW231792  12.925   6.622  14.330
43340SOL     OW31793   6.987  14.720  10.712
43340SOL    HW131794   7.010  14.801  10.757
43340SOL    HW231795   6.984  14.654  10.782
43341SOL     OW31796  10.920   5.709   8.069
43341SOL    HW131797  10.874   5.659   8.136
43341SOL    HW231798  10.852   5.731   8.005
43342SOL     OW31799   4.893   1.490   2.864
43342SOL    HW131800   4.928   1.558   2.806
43342SOL    HW231801   4.821   1.532   2.910
43343SOL     OW31802   3.894   8.406  13.992
43343SOL    HW131803   3.921   8.366  13.910
43343SOL    HW231804   3.944   8.487  13.996
43344SOL     OW31805   4.338   8.310  10.541
43344SOL    HW131806   4.309   8.314  10.632
43344SOL    HW231807   4.402   8.239  10.540
43345SOL     OW31808  13.079   6.580   4.839
43345SOL    HW131809  13.098   6.556   4.930
43345SOL    HW231810  13.000   6.530   4.818
43346SOL     OW31811  10.784   4.956   9.106
43346SOL    HW131812  10.787   4.993   9.194
43346SOL    HW231813  10.813   4.865   9.118
43347SOL     OW31814   8.961  12.321   5.971
43347SOL    HW131815   9.003  12.354   6.051
43347SOL    HW231816   8.990  12.381   5.902
43348SOL     OW31817   3.038  11.686   3.407
43348SOL    HW131818   3.117  11.635   3.423
43348SOL    HW231819   2.982  11.667   3.482
43349SOL     OW31820   1.432  14.873   2.526
43349SOL    HW131821   1.487   0.070   2.548
43349SOL    HW231822   1.427  14.874   2.430
43350SOL     OW31823  12.690   7.153   1.288
43350SOL    HW131824  12.598   7.176   1.302
43350SOL    HW231825  12.738   7.211   1.347
43351SOL     OW31826  13.168   9.954   1.784
43351SOL    HW131827  13.250   9.919   1.750
43351SOL    HW231828  13.111   9.878   1.794
43352SOL     OW31829  13.265   2.134   3.438
43352SOL    HW131830  13.340   2.190   3.455
43352SOL    HW231831  13.221   2.125   3.523
43353SOL     OW31832  12.292  13.959   0.427
43353SOL    HW131833  12.232  13.959   0.352
43353SOL    HW231834  12.306  13.867   0.446
43354SOL     OW31835  11.295  12.018  10.908
43354SOL    HW131836  11.375  12.060  10.877
43354SOL    HW231837  11.252  12.085  10.962
43355SOL     OW31838   1.270  11.352  13.549
43355SOL    HW131839   1.323  11.411  13.603
43355SOL    HW231840   1.257  11.399  13.467
43356SOL     OW31841  13.691   6.693   6.409
43356SOL    HW131842  13.632   6.651   6.347
43356SOL    HW231843  13.652   6.676   6.495
43357SOL     OW31844   5.487   2.421  13.268
43357SOL    HW131845   5.507   2.328  13.279
43357SOL    HW231846   5.414   2.423  13.207
43358SOL     OW31847   8.233   9.213   7.769
43358SOL    HW131848   8.325   9.225   7.744
43358SOL    HW231849   8.238   9.171   7.855
43359SOL     OW31850   4.882  14.160  12.564
43359SOL    HW131851   4.795  14.184  12.595
43359SOL    HW231852   4.912  14.237  12.515
43360SOL     OW31853  13.756  13.218   1.578
43360SOL    HW131854  13.813  13.227   1.654
43360SOL    HW231855  13.690  13.153   1.605
43361SOL     OW31856  13.995   2.972   7.135
43361SOL    HW131857  14.025   2.894   7.181
43361SOL    HW231858  13.933   3.013   7.196
43362SOL     OW31859   4.736   6.067  10.512
43362SOL    HW131860   4.822   6.088  10.475
43362SOL    HW231861   4.712   6.144  10.563
43363SOL     OW31862   8.476  14.228   9.809
43363SOL    HW131863   8.443  14.295   9.749
43363SOL    HW231864   8.569  14.249   9.821
43364SOL     OW31865   3.307  12.999   6.133
43364SOL    HW131866   3.312  12.926   6.071
43364SOL    HW231867   3.398  13.018   6.155
43365SOL     OW31868   6.340  11.454  12.258
43365SOL    HW131869   6.388  11.409  12.327
43365SOL    HW231870   6.301  11.384  12.206
43366SOL     OW31871   4.794   8.906  10.331
43366SOL    HW131872   4.764   8.818  10.309
43366SOL    HW231873   4.850   8.893  10.407
43367SOL     OW31874   5.515   6.380   1.588
43367SOL    HW131875   5.462   6.371   1.667
43367SOL    HW231876   5.595   6.424   1.617
43368SOL     OW31877  11.607   6.528   4.105
43368SOL    HW131878  11.521   6.487   4.094
43368SOL    HW231879  11.645   6.528   4.017
43369SOL     OW31880  11.059   2.516  13.731
43369SOL    HW131881  10.996   2.460  13.776
43369SOL    HW231882  11.138   2.509  13.784
43370SOL     OW31883   3.817  10.729   8.170
43370SOL    HW131884   3.864  10.784   8.108
43370SOL    HW231885   3.844  10.760   8.256
43371SOL     OW31886   0.313  13.973   0.620
43371SOL    HW131887   0.243  13.928   0.573
43371SOL    HW231888   0.269  14.039   0.673
43372SOL     OW31889   7.112  11.209   0.857
43372SOL    HW131890   7.094  11.292   0.902
43372SOL    HW231891   7.046  11.205   0.788
43373SOL     OW31892   4.764  13.951   0.167
43373SOL    HW131893   4.782  14.031   0.217
43373SOL    HW231894   4.727  13.982   0.085
43374SOL     OW31895   4.278  13.844   4.072
43374SOL    HW131896   4.260  13.880   4.159
43374SOL    HW231897   4.194  13.848   4.026
43375SOL     OW31898   0.715   0.519   7.118
43375SOL    HW131899   0.752   0.521   7.207
43375SOL    HW231900   0.623   0.541   7.130
43376SOL     OW31901   3.538   7.887  11.831
43376SOL    HW131902   3.493   7.965  11.798
43376SOL    HW231903   3.625   7.890  11.791
43377SOL     OW31904   6.362   5.391  12.421
43377SOL    HW131905   6.323   5.443  12.492
43377SOL    HW231906   6.414   5.454  12.371
43378SOL     OW31907   8.652  10.000   7.131
43378SOL    HW131908   8.670  10.013   7.224
43378SOL    HW231909   8.673   9.908   7.116
43379SOL     OW31910   4.425   8.849   4.533
43379SOL    HW131911   4.368   8.865   4.457
43379SOL    HW231912   4.506   8.815   4.495
43380SOL     OW31913   8.575   7.545   2.574
43380SOL    HW131914   8.505   7.540   2.508
43380SOL    HW231915   8.597   7.638   2.579
43381SOL     OW31916  11.164   6.434   6.018
43381SOL    HW131917  11.079   6.394   6.003
43381SOL    HW231918  11.145   6.523   6.046
43382SOL     OW31919   8.474   3.899   3.719
43382SOL    HW131920   8.510   3.972   3.770
43382SOL    HW231921   8.462   3.936   3.631
43383SOL     OW31922   2.948   2.753   8.941
43383SOL    HW131923   2.978   2.680   8.887
43383SOL    HW231924   3.001   2.827   8.911
43384SOL     OW31925   1.052   7.122   5.515
43384SOL    HW131926   0.975   7.081   5.476
43384SOL    HW231927   1.016   7.196   5.564
43385SOL     OW31928  11.713   3.369  14.419
43385SOL    HW131929  11.804   3.388  14.396
43385SOL    HW231930  11.689   3.295  14.363
43386SOL     OW31931  12.043   0.547   8.665
43386SOL    HW131932  12.111   0.490   8.628
43386SOL    HW231933  12.084   0.634   8.668
43387SOL     OW31934   7.086   6.959   5.846
43387SOL    HW131935   7.150   6.888   5.853
43387SOL    HW231936   7.096   6.991   5.756
43388SOL     OW31937  10.122   3.457   3.167
43388SOL    HW131938  10.128   3.500   3.082
43388SOL    HW231939  10.197   3.398   3.169
43389SOL     OW31940   8.949  13.097   5.474
43389SOL    HW131941   8.875  13.135   5.521
43389SOL    HW231942   8.935  13.002   5.480
43390SOL     OW31943  10.843   4.689   0.565
43390SOL    HW131944  10.911   4.725   0.622
43390SOL    HW231945  10.762   4.733   0.592
43391SOL     OW31946   0.698  14.233   8.961
43391SOL    HW131947   0.694  14.327   8.945
43391SOL    HW231948   0.678  14.194   8.876
43392SOL     OW31949   9.066  10.471   3.882
43392SOL    HW131950   9.048  10.377   3.880
43392SOL    HW231951   9.104  10.490   3.796
43393SOL     OW31952  12.271   3.561   5.664
43393SOL    HW131953  12.223   3.641   5.643
43393SOL    HW231954  12.204   3.497   5.683
43394SOL     OW31955  13.894   3.393   7.721
43394SOL    HW131956  13.803   3.389   7.750
43394SOL    HW231957  13.939   3.443   7.789
43395SOL     OW31958   5.642   0.781   2.613
43395SOL    HW131959   5.673   0.723   2.683
43395SOL    HW231960   5.546   0.776   2.619
43396SOL     OW31961  12.649  10.709   0.227
43396SOL    HW131962  12.691  10.780   0.276
43396SOL    HW231963  12.696  10.630   0.253
43397SOL     OW31964   6.808   2.805  11.326
43397SOL    HW131965   6.843   2.820  11.238
43397SOL    HW231966   6.713   2.815  11.315
43398SOL     OW31967   1.737   4.595   4.545
43398SOL    HW131968   1.775   4.666   4.493
43398SOL    HW231969   1.681   4.639   4.609
43399SOL     OW31970   1.351   7.283  12.489
43399SOL    HW131971   1.310   7.345  12.429
43399SOL    HW231972   1.335   7.197  12.450
43400SOL     OW31973   6.146   8.402   9.845
43400SOL    HW131974   6.163   8.308   9.846
43400SOL    HW231975   6.060   8.411   9.885
43401SOL     OW31976   5.858   5.499   1.171
43401SOL    HW131977   5.774   5.479   1.215
43401SOL    HW231978   5.842   5.582   1.127
43402SOL     OW31979  12.169  10.851  14.092
43402SOL    HW131980  12.164  10.945  14.107
43402SOL    HW231981  12.079  10.823  14.077
43403SOL     OW31982   2.927  13.958  13.657
43403SOL    HW131983   2.980  14.033  13.628
43403SOL    HW231984   2.886  13.988  13.738
43404SOL     OW31985  12.611   7.239   0.575
43404SOL    HW131986  12.605   7.275   0.664
43404SOL    HW231987  12.702   7.255   0.549
43405SOL     OW31988   7.539  13.299  13.960
43405SOL    HW131989   7.509  13.237  14.027
43405SOL    HW231990   7.631  13.314  13.981
43406SOL     OW31991   7.734  12.119   8.718
43406SOL    HW131992   7.640  12.115   8.704
43406SOL    HW231993   7.771  12.116   8.629
43407SOL     OW31994   7.645   3.851  12.672
43407SOL    HW131995   7.588   3.911  12.623
43407SOL    HW231996   7.663   3.898  12.754
43408SOL     OW31997   6.496  11.880  10.242
43408SOL    HW131998   6.492  11.879  10.146
43408SOL    HW231999   6.548  11.957  10.263
43409SOL     OW32000   8.632  13.555   4.110
43409SOL    HW132001   8.653  13.569   4.202
43409SOL    HW232002   8.709  13.511   4.074
43410SOL     OW32003   9.267  11.551   3.306
43410SOL    HW132004   9.281  11.472   3.254
43410SOL    HW232005   9.215  11.608   3.249
43411SOL     OW32006  14.802   2.641  12.063
43411SOL    HW132007  14.853   2.622  12.141
43411SOL    HW232008  14.859   2.695  12.009
43412SOL     OW32009  11.401   6.078  13.117
43412SOL    HW132010  11.461   6.055  13.047
43412SOL    HW232011  11.316   6.084  13.075
43413SOL     OW32012   4.438   4.118   9.688
43413SOL    HW132013   4.418   4.205   9.722
43413SOL    HW232014   4.489   4.134   9.608
43414SOL     OW32015   3.080   7.824   0.346
43414SOL    HW132016   3.029   7.822   0.426
43414SOL    HW232017   3.016   7.810   0.276
43415SOL     OW32018   9.052   0.610   7.130
43415SOL    HW132019   9.092   0.617   7.217
43415SOL    HW232020   9.037   0.516   7.118
43416SOL     OW32021   4.107  13.157   9.997
43416SOL    HW132022   4.121  13.097  10.070
43416SOL    HW232023   4.048  13.224  10.032
43417SOL     OW32024  13.984   7.581   8.731
43417SOL    HW132025  13.925   7.623   8.668
43417SOL    HW232026  13.955   7.490   8.734
43418SOL     OW32027   9.134  14.338   1.952
43418SOL    HW132028   9.143  14.379   2.038
43418SOL    HW232029   9.051  14.291   1.956
43419SOL     OW32030   9.908  11.769   9.347
43419SOL    HW132031   9.845  11.713   9.392
43419SOL    HW232032   9.866  11.854   9.343
43420SOL     OW32033   2.891   2.139  13.644
43420SOL    HW132034   2.876   2.045  13.632
43420SOL    HW232035   2.944   2.145  13.723
43421SOL     OW32036  12.667   1.795   8.777
43421SOL    HW132037  12.702   1.707   8.791
43421SOL    HW232038  12.598   1.803   8.843
43422SOL     OW32039   9.904   2.838   9.692
43422SOL    HW132040   9.941   2.751   9.704
43422SOL    HW232041   9.960   2.878   9.625
43423SOL     OW32042  10.624  14.695   3.325
43423SOL    HW132043  10.609  14.736   3.240
43423SOL    HW232044  10.681  14.620   3.306
43424SOL     OW32045   4.568   8.348  12.307
43424SOL    HW132046   4.541   8.296  12.232
43424SOL    HW232047   4.504   8.419  12.312
43425SOL     OW32048   9.452   1.017   1.060
43425SOL    HW132049   9.399   0.955   1.010
43425SOL    HW232050   9.421   1.103   1.032
43426SOL     OW32051  11.356  14.291   9.064
43426SOL    HW132052  11.347  14.221   9.129
43426SOL    HW232053  11.420  14.257   9.001
43427SOL     OW32054   1.165   0.299   0.145
43427SOL    HW132055   1.235   0.350   0.105
43427SOL    HW232056   1.209   0.223   0.184
43428SOL     OW32057  14.200   4.176   8.890
43428SOL    HW132058  14.253   4.255   8.874
43428SOL    HW232059  14.218   4.154   8.982
43429SOL     OW32060   8.780  11.263   3.084
43429SOL    HW132061   8.774  11.261   2.989
43429SOL    HW232062   8.696  11.227   3.114
43430SOL     OW32063  12.600   3.080   5.288
43430SOL    HW132064  12.628   3.165   5.322
43430SOL    HW232065  12.593   3.094   5.193
43431SOL     OW32066   9.093  12.699  11.258
43431SOL    HW132067   9.042  12.644  11.317
43431SOL    HW232068   9.136  12.638  11.199
43432SOL     OW32069   6.153   3.432   5.056
43432SOL    HW132070   6.116   3.439   4.968
43432SOL    HW232071   6.098   3.368   5.100
43433SOL     OW32072   1.200   9.279   7.198
43433SOL    HW132073   1.273   9.320   7.152
43433SOL    HW232074   1.209   9.308   7.288
43434SOL     OW32075   9.708   4.326  11.301
43434SOL    HW132076   9.714   4.243  11.348
43434SOL    HW232077   9.778   4.380  11.339
43435SOL     OW32078   8.421   6.884  10.600
43435SOL    HW132079   8.463   6.963  10.566
43435SOL    HW232080   8.468   6.864  10.681
43436SOL     OW32081   8.515   5.188   7.340
43436SOL    HW132082   8.446   5.132   7.305
43436SOL    HW232083   8.552   5.231   7.262
43437SOL     OW32084  12.696   7.910   1.490
43437SOL    HW132085  12.622   7.849   1.495
43437SOL    HW232086  12.690   7.961   1.570
43438SOL     OW32087   7.539   0.169  13.057
43438SOL    HW132088   7.501   0.243  13.009
43438SOL    HW232089   7.480   0.156  13.131
43439SOL     OW32090   8.220  11.223  11.642
43439SOL    HW132091   8.137  11.179  11.627
43439SOL    HW232092   8.224  11.237  11.736
43440SOL     OW32093  10.090   9.335   0.036
43440SOL    HW132094  10.127   9.421   0.056
43440SOL    HW232095  10.026   9.319   0.106
43441SOL     OW32096  13.523  11.721   5.731
43441SOL    HW132097  13.539  11.633   5.697
43441SOL    HW232098  13.571  11.779   5.671
43442SOL     OW32099   6.002   1.211   0.326
43442SOL    HW132100   5.943   1.283   0.350
43442SOL    HW232101   6.054   1.196   0.406
43443SOL     OW32102   9.123   9.628   5.533
43443SOL    HW132103   9.169   9.711   5.528
43443SOL    HW232104   9.066   9.636   5.610
43444SOL     OW32105   9.888  11.506   5.262
43444SOL    HW132106   9.974  11.472   5.285
43444SOL    HW232107   9.889  11.598   5.290
43445SOL     OW32108   4.237   7.078   2.139
43445SOL    HW132109   4.169   7.014   2.117
43445SOL    HW232110   4.249   7.129   2.058
43446SOL     OW32111  12.525   4.286   7.482
43446SOL    HW132112  12.562   4.270   7.395
43446SOL    HW232113  12.539   4.380   7.496
43447SOL     OW32114  10.444  10.911  14.644
43447SOL    HW132115  10.449  10.825  14.685
43447SOL    HW232116  10.353  10.920  14.616
43448SOL     OW32117  12.356  13.895  10.430
43448SOL    HW132118  12.413  13.879  10.505
43448SOL    HW232119  12.360  13.989  10.417
43449SOL     OW32120   5.840  12.259   2.564
43449SOL    HW132121   5.860  12.241   2.655
43449SOL    HW232122   5.865  12.351   2.552
43450SOL     OW32123   1.898   8.810  13.469
43450SOL    HW132124   1.961   8.805  13.541
43450SOL    HW232125   1.941   8.863  13.402
43451SOL     OW32126  12.479   2.009   3.373
43451SOL    HW132127  12.503   2.083   3.318
43451SOL    HW232128  12.510   1.932   3.324
43452SOL     OW32129   3.856  14.794  11.328
43452SOL    HW132130   3.867   0.011  11.321
43452SOL    HW232131   3.915  14.768  11.398
43453SOL     OW32132  12.666   6.838   6.643
43453SOL    HW132133  12.620   6.803   6.567
43453SOL    HW232134  12.605   6.826   6.716
43454SOL     OW32135   5.744   9.514   1.969
43454SOL    HW132136   5.701   9.429   1.966
43454SOL    HW232137   5.818   9.501   2.028
43455SOL     OW32138  11.738  10.540  11.409
43455SOL    HW132139  11.714  10.584  11.327
43455SOL    HW232140  11.770  10.454  11.382
43456SOL     OW32141  11.269   7.300   1.662
43456SOL    HW132142  11.235   7.386   1.685
43456SOL    HW232143  11.246   7.289   1.570
43457SOL     OW32144   3.428   2.429   9.763
43457SOL    HW132145   3.374   2.379   9.824
43457SOL    HW232146   3.409   2.392   9.677
43458SOL     OW32147   0.450   0.002   7.470
43458SOL    HW132148   0.414   0.070   7.527
43458SOL    HW232149   0.413  14.799   7.503
43459SOL     OW32150   3.122   6.076  12.250
43459SOL    HW132151   3.197   6.121  12.289
43459SOL    HW232152   3.130   5.985  12.280
43460SOL     OW32153  10.225   6.587  10.533
43460SOL    HW132154  10.243   6.618  10.445
43460SOL    HW232155  10.132   6.604  10.547
43461SOL     OW32156   7.541  11.824   2.296
43461SOL    HW132157   7.488  11.772   2.356
43461SOL    HW232158   7.625  11.835   2.341
43462SOL     OW32159   9.976   4.472  14.870
43462SOL    HW132160   9.913   4.485  14.799
43462SOL    HW232161   9.968   4.379   0.015
43463SOL     OW32162   2.445   9.841  13.854
43463SOL    HW132163   2.360   9.797  13.854
43463SOL    HW232164   2.479   9.827  13.943
43464SOL     OW32165  10.347  12.724   9.353
43464SOL    HW132166  10.268  12.704   9.301
43464SOL    HW232167  10.400  12.644   9.347
43465SOL     OW32168   7.059  11.084   1.409
43465SOL    HW132169   6.974  11.122   1.433
43465SOL    HW232170   7.055  10.993   1.440
43466SOL     OW32171   5.254   5.098   6.962
43466SOL    HW132172   5.244   5.176   6.907
43466SOL    HW232173   5.333   5.055   6.928
43467SOL     OW32174   3.290  13.502   9.482
43467SOL    HW132175   3.305  13.408   9.471
43467SOL    HW232176   3.264  13.513   9.573
43468SOL     OW32177   5.838   2.547  13.587
43468SOL    HW132178   5.749   2.512  13.586
43468SOL    HW232179   5.867   2.536  13.678
43469SOL     OW32180   9.802   8.206   3.459
43469SOL    HW132181   9.876   8.145   3.449
43469SOL    HW232182   9.739   8.158   3.512
43470SOL     OW32183   7.570  10.932   5.459
43470SOL    HW132184   7.535  10.980   5.384
43470SOL    HW232185   7.662  10.919   5.438
43471SOL     OW32186  14.085   9.663   7.291
43471SOL    HW132187  14.111   9.741   7.341
43471SOL    HW232188  14.165   9.610   7.287
43472SOL     OW32189   2.807  11.490   8.177
43472SOL    HW132190   2.807  11.493   8.081
43472SOL    HW232191   2.714  11.481   8.200
43473SOL     OW32192   4.994  13.758   1.688
43473SOL    HW132193   5.018  13.672   1.654
43473SOL    HW232194   5.060  13.818   1.652
43474SOL     OW32195   4.413   5.010   5.024
43474SOL    HW132196   4.373   4.938   4.974
43474SOL    HW232197   4.356   5.085   5.006
43475SOL     OW32198   3.811  13.383   9.519
43475SOL    HW132199   3.904  13.373   9.504
43475SOL    HW232200   3.798  13.355   9.610
43476SOL     OW32201  12.591  14.045   3.749
43476SOL    HW132202  12.680  14.061   3.780
43476SOL    HW232203  12.548  14.003   3.824
43477SOL     OW32204   8.927   6.855   6.098
43477SOL    HW132205   9.016   6.889   6.095
43477SOL    HW232206   8.873   6.932   6.113
43478SOL     OW32207  14.517   8.057  12.164
43478SOL    HW132208  14.577   8.124  12.199
43478SOL    HW232209  14.452   8.107  12.115
43479SOL     OW32210   9.837  14.077   9.007
43479SOL    HW132211   9.820  14.143   9.074
43479SOL    HW232212   9.847  13.995   9.055
43480SOL     OW32213  11.046  12.256   5.233
43480SOL    HW132214  10.962  12.294   5.207
43480SOL    HW232215  11.062  12.290   5.321
43481SOL     OW32216   4.052   5.566   2.260
43481SOL    HW132217   4.127   5.541   2.206
43481SOL    HW232218   3.990   5.494   2.252
43482SOL     OW32219   5.190   2.148   9.442
43482SOL    HW132220   5.170   2.143   9.348
43482SOL    HW232221   5.164   2.237   9.467
43483SOL     OW32222   3.478   2.500   1.845
43483SOL    HW132223   3.564   2.539   1.834
43483SOL    HW232224   3.467   2.442   1.770
43484SOL     OW32225   3.486   4.352  11.067
43484SOL    HW132226   3.517   4.430  11.021
43484SOL    HW232227   3.516   4.363  11.157
43485SOL     OW32228   9.902   8.601  10.793
43485SOL    HW132229   9.889   8.685  10.750
43485SOL    HW232230   9.888   8.620  10.886
43486SOL     OW32231   5.143   4.508   4.249
43486SOL    HW132232   5.107   4.554   4.325
43486SOL    HW232233   5.100   4.550   4.174
43487SOL     OW32234   6.776   7.059  10.294
43487SOL    HW132235   6.870   7.043  10.300
43487SOL    HW232236   6.767   7.124  10.224
43488SOL     OW32237   6.928   1.519   8.020
43488SOL    HW132238   6.917   1.579   8.094
43488SOL    HW232239   6.925   1.575   7.943
43489SOL     OW32240   5.170   0.762   8.917
43489SOL    HW132241   5.237   0.744   8.983
43489SOL    HW232242   5.183   0.855   8.895
43490SOL     OW32243   2.347   1.346   9.166
43490SOL    HW132244   2.341   1.421   9.107
43490SOL    HW232245   2.372   1.384   9.250
43491SOL     OW32246   9.775   8.190   6.405
43491SOL    HW132247   9.711   8.206   6.475
43491SOL    HW232248   9.854   8.235   6.435
43492SOL     OW32249   6.581   7.069   2.998
43492SOL    HW132250   6.644   6.998   2.996
43492SOL    HW232251   6.609   7.124   3.072
43493SOL     OW32252   4.781  10.297   4.464
43493SOL    HW132253   4.847  10.324   4.401
43493SOL    HW232254   4.769  10.375   4.520
43494SOL     OW32255  12.408  14.329   3.253
43494SOL    HW132256  12.435  14.383   3.179
43494SOL    HW232257  12.413  14.387   3.329
43495SOL     OW32258   8.749  10.412   8.196
43495SOL    HW132259   8.700  10.474   8.142
43495SOL    HW232260   8.689  10.390   8.268
43496SOL     OW32261   2.638   6.102  13.238
43496SOL    HW132262   2.604   6.118  13.326
43496SOL    HW232263   2.617   6.011  13.220
43497SOL     OW32264   1.313   2.871   2.094
43497SOL    HW132265   1.345   2.821   2.018
43497SOL    HW232266   1.316   2.808   2.166
43498SOL     OW32267   0.167   3.490  13.384
43498SOL    HW132268   0.249   3.518  13.423
43498SOL    HW232269   0.191   3.418  13.326
43499SOL     OW32270   4.075  13.782  10.721
43499SOL    HW132271   4.120  13.765  10.639
43499SOL    HW232272   4.127  13.850  10.764
43500SOL     OW32273  12.795   8.154  11.402
43500SOL    HW132274  12.788   8.137  11.308
43500SOL    HW232275  12.812   8.068  11.441
43501SOL     OW32276   1.733   6.214  11.006
43501SOL    HW132277   1.726   6.309  11.015
43501SOL    HW232278   1.800   6.189  11.070
43502SOL     OW32279  10.175   3.133  11.942
43502SOL    HW132280  10.156   3.169  11.855
43502SOL    HW232281  10.251   3.183  11.972
43503SOL     OW32282  10.771   4.740  11.202
43503SOL    HW132283  10.841   4.778  11.256
43503SOL    HW232284  10.816   4.703  11.127
43504SOL     OW32285  11.033   1.078  14.573
43504SOL    HW132286  10.961   1.137  14.593
43504SOL    HW232287  11.071   1.056  14.658
43505SOL     OW32288  12.754  13.897  14.287
43505SOL    HW132289  12.673  13.854  14.314
43505SOL    HW232290  12.772  13.863  14.199
43506SOL     OW32291   5.521  10.246  11.812
43506SOL    HW132292   5.561  10.295  11.883
43506SOL    HW232293   5.586  10.249  11.741
43507SOL     OW32294   2.709  14.488   4.884
43507SOL    HW132295   2.712  14.464   4.977
43507SOL    HW232296   2.702  14.583   4.883
43508SOL     OW32297   7.866  10.493   8.699
43508SOL    HW132298   7.907  10.544   8.769
43508SOL    HW232299   7.901  10.405   8.709
43509SOL     OW32300  12.506   4.585   0.927
43509SOL    HW132301  12.417   4.591   0.962
43509SOL    HW232302  12.524   4.491   0.924
43510SOL     OW32303   6.920   1.686   7.804
43510SOL    HW132304   6.896   1.778   7.792
43510SOL    HW232305   6.875   1.641   7.733
43511SOL     OW32306   6.051   0.121  10.524
43511SOL    HW132307   5.956   0.136  10.527
43511SOL    HW232308   6.059   0.026  10.516
43512SOL     OW32309  10.373   6.184  12.408
43512SOL    HW132310  10.420   6.125  12.467
43512SOL    HW232311  10.400   6.158  12.320
43513SOL     OW32312   9.371  11.221   8.693
43513SOL    HW132313   9.315  11.267   8.631
43513SOL    HW232314   9.314  11.153   8.730
43514SOL     OW32315   5.342   0.147   4.948
43514SOL    HW132316   5.407   0.096   4.997
43514SOL    HW232317   5.273   0.164   5.011
43515SOL     OW32318   3.276   6.304   7.294
43515SOL    HW132319   3.320   6.385   7.269
43515SOL    HW232320   3.220   6.328   7.367
43516SOL     OW32321   9.503  13.317   3.261
43516SOL    HW132322   9.476  13.396   3.215
43516SOL    HW232323   9.438  13.305   3.330
43517SOL     OW32324   8.603   8.643  11.791
43517SOL    HW132325   8.549   8.587  11.735
43517SOL    HW232326   8.615   8.723  11.739
43518SOL     OW32327   0.070  10.179   0.862
43518SOL    HW132328   0.036  10.268   0.873
43518SOL    HW232329   0.142  10.173   0.924
43519SOL     OW32330   3.457  12.970   9.019
43519SOL    HW132331   3.529  12.917   9.053
43519SOL    HW232332   3.501  13.047   8.981
43520SOL     OW32333   3.159  14.071   6.752
43520SOL    HW132334   3.195  14.003   6.696
43520SOL    HW232335   3.183  14.044   6.841
43521SOL     OW32336  13.031   6.489   4.054
43521SOL    HW132337  13.002   6.529   4.136
43521SOL    HW232338  12.964   6.424   4.034
43522SOL     OW32339  12.199  10.024   5.625
43522SOL    HW132340  12.279  10.007   5.573
43522SOL    HW232341  12.232  10.053   5.710
43523SOL     OW32342   8.864   7.199   2.303
43523SOL    HW132343   8.816   7.281   2.294
43523SOL    HW232344   8.849   7.172   2.394
43524SOL     OW32345   3.436   9.043   5.038
43524SOL    HW132346   3.469   9.128   5.009
43524SOL    HW232347   3.414   8.997   4.956
43525SOL     OW32348   0.820   7.835  14.606
43525SOL    HW132349   0.845   7.848  14.515
43525SOL    HW232350   0.759   7.907  14.625
43526SOL     OW32351   9.488  12.528  12.080
43526SOL    HW132352   9.548  12.498  12.011
43526SOL    HW232353   9.403  12.491  12.055
43527SOL     OW32354   9.991   6.802   8.713
43527SOL    HW132355   9.970   6.753   8.634
43527SOL    HW232356   9.921   6.867   8.720
43528SOL     OW32357   3.807   0.958   9.356
43528SOL    HW132358   3.842   0.999   9.277
43528SOL    HW232359   3.853   0.874   9.361
43529SOL     OW32360   2.808   9.836  11.634
43529SOL    HW132361   2.782   9.745  11.650
43529SOL    HW232362   2.736   9.873  11.583
43530SOL     OW32363   4.740   0.413   5.653
43530SOL    HW132364   4.683   0.368   5.591
43530SOL    HW232365   4.691   0.413   5.736
43531SOL     OW32366   0.350   3.608   9.243
43531SOL    HW132367   0.440   3.607   9.209
43531SOL    HW232368   0.356   3.659   9.324
43532SOL     OW32369   0.377   9.566   6.048
43532SOL    HW132370   0.293   9.543   6.088
43532SOL    HW232371   0.379   9.515   5.966
43533SOL     OW32372   7.932   1.273  14.297
43533SOL    HW132373   8.028   1.284  14.293
43533SOL    HW232374   7.914   1.259  14.389
43534SOL     OW32375   9.476   6.790   8.728
43534SOL    HW132376   9.468   6.875   8.685
43534SOL    HW232377   9.556   6.797   8.779
43535SOL     OW32378  12.198  12.172   8.618
43535SOL    HW132379  12.293  12.172   8.610
43535SOL    HW232380  12.182  12.144   8.708
43536SOL     OW32381   1.173   3.464  10.238
43536SOL    HW132382   1.090   3.461  10.191
43536SOL    HW232383   1.239   3.446  10.171
43537SOL     OW32384  10.924   8.912   3.431
43537SOL    HW132385  10.908   8.864   3.512
43537SOL    HW232386  10.920   8.846   3.362
43538SOL     OW32387   4.176   7.769   5.489
43538SOL    HW132388   4.092   7.813   5.499
43538SOL    HW232389   4.218   7.781   5.574
43539SOL     OW32390  14.604   6.532   0.023
43539SOL    HW132391  14.554   6.515   0.103
43539SOL    HW232392  14.547   6.587  14.848
43540SOL     OW32393   9.256  13.279   6.163
43540SOL    HW132394   9.181  13.293   6.221
43540SOL    HW232395   9.280  13.367   6.134
43541SOL     OW32396   9.350   1.721   8.673
43541SOL    HW132397   9.290   1.765   8.733
43541SOL    HW232398   9.375   1.640   8.718
43542SOL     OW32399   3.519   0.250   6.170
43542SOL    HW132400   3.512   0.243   6.265
43542SOL    HW232401   3.548   0.164   6.141
43543SOL     OW32402   6.742   1.086  14.452
43543SOL    HW132403   6.673   1.109  14.390
43543SOL    HW232404   6.731   1.148  14.524
43544SOL     OW32405   3.768   5.439   2.019
43544SOL    HW132406   3.687   5.442   2.070
43544SOL    HW232407   3.837   5.431   2.085
43545SOL     OW32408  10.907   2.050  10.754
43545SOL    HW132409  10.955   2.055  10.837
43545SOL    HW232410  10.922   2.135  10.712
43546SOL     OW32411   0.768   7.960   3.632
43546SOL    HW132412   0.813   8.042   3.651
43546SOL    HW232413   0.763   7.956   3.537
43547SOL     OW32414   9.491  11.479   7.885
43547SOL    HW132415   9.491  11.384   7.895
43547SOL    HW232416   9.581  11.506   7.904
43548SOL     OW32417  12.201  13.465   0.459
43548SOL    HW132418  12.260  13.438   0.530
43548SOL    HW232419  12.115  13.470   0.500
43549SOL     OW32420   6.956  13.189   0.875
43549SOL    HW132421   6.877  13.154   0.833
43549SOL    HW232422   6.995  13.114   0.919
43550SOL     OW32423   9.532  13.604   0.316
43550SOL    HW132424   9.561  13.550   0.390
43550SOL    HW232425   9.511  13.688   0.354
43551SOL     OW32426   0.393   5.929   4.903
43551SOL    HW132427   0.434   5.848   4.873
43551SOL    HW232428   0.309   5.902   4.939
43552SOL     OW32429   0.249   4.981   7.096
43552SOL    HW132430   0.248   5.028   7.180
43552SOL    HW232431   0.304   5.036   7.040
43553SOL     OW32432  14.430   4.074   3.601
43553SOL    HW132433  14.375   4.151   3.616
43553SOL    HW232434  14.431   4.064   3.506
43554SOL     OW32435   2.172   9.495  13.360
43554SOL    HW132436   2.231   9.509  13.434
43554SOL    HW232437   2.223   9.519  13.283
43555SOL     OW32438   4.141   3.477   5.960
43555SOL    HW132439   4.186   3.477   6.045
43555SOL    HW232440   4.067   3.537   5.971
43556SOL     OW32441  11.840   4.782  10.039
43556SOL    HW132442  11.876   4.701  10.003
43556SOL    HW232443  11.904   4.812  10.102
43557SOL     OW32444   1.598  11.489   5.375
43557SOL    HW132445   1.533  11.555   5.399
43557SOL    HW232446   1.549  11.426   5.322
43558SOL     OW32447   5.012   2.173  10.071
43558SOL    HW132448   5.044   2.169  10.161
43558SOL    HW232449   5.075   2.122  10.021
43559SOL     OW32450  14.857  14.370  11.589
43559SOL    HW132451  14.819  14.365  11.676
43559SOL    HW232452   0.006  14.462  11.579
43560SOL     OW32453   1.321  12.566  10.036
43560SOL    HW132454   1.382  12.624   9.990
43560SOL    HW232455   1.234  12.601  10.015
43561SOL     OW32456   0.981   4.916  12.630
43561SOL    HW132457   0.940   4.938  12.713
43561SOL    HW232458   0.967   4.821  12.620
43562SOL     OW32459   8.420   7.302  11.549
43562SOL    HW132460   8.503   7.312  11.597
43562SOL    HW232461   8.361   7.365  11.590
43563SOL     OW32462  10.440   3.334   3.546
43563SOL    HW132463  10.454   3.391   3.621
43563SOL    HW232464  10.375   3.380   3.493
43564SOL     OW32465  10.733   1.648   6.529
43564SOL    HW132466  10.781   1.579   6.483
43564SOL    HW232467  10.802   1.703   6.567
43565SOL     OW32468   8.844   5.376   0.556
43565SOL    HW132469   8.908   5.306   0.543
43565SOL    HW232470   8.846   5.426   0.474
43566SOL     OW32471   2.272  14.475   9.687
43566SOL    HW132472   2.243  14.401   9.633
43566SOL    HW232473   2.343  14.515   9.636
43567SOL     OW32474   8.148   6.818  11.909
43567SOL    HW132475   8.151   6.805  11.814
43567SOL    HW232476   8.229   6.864  11.929
43568SOL     OW32477   4.911   0.985   2.690
43568SOL    HW132478   4.929   0.899   2.652
43568SOL    HW232479   4.968   1.045   2.641
43569SOL     OW32480   4.293  11.725   8.926
43569SOL    HW132481   4.331  11.654   8.978
43569SOL    HW232482   4.247  11.681   8.854
43570SOL     OW32483  10.488   3.012   5.881
43570SOL    HW132484  10.548   3.069   5.931
43570SOL    HW232485  10.537   2.931   5.868
43571SOL     OW32486   1.639  10.165  10.732
43571SOL    HW132487   1.672  10.249  10.700
43571SOL    HW232488   1.698  10.142  10.804
43572SOL     OW32489   5.643   4.414   2.044
43572SOL    HW132490   5.650   4.319   2.033
43572SOL    HW232491   5.731   4.442   2.070
43573SOL     OW32492   5.036   0.053  11.239
43573SOL    HW132493   5.066   0.102  11.163
43573SOL    HW232494   5.115   0.039  11.291
43574SOL     OW32495   6.549   8.605  11.904
43574SOL    HW132496   6.474   8.608  11.963
43574SOL    HW232497   6.518   8.554  11.829
43575SOL     OW32498   8.837  12.845  11.212
43575SOL    HW132499   8.932  12.842  11.225
43575SOL    HW232500   8.810  12.753  11.209
43576SOL     OW32501   7.840   9.222   8.223
43576SOL    HW132502   7.807   9.203   8.135
43576SOL    HW232503   7.766   9.205   8.281
43577SOL     OW32504   4.236   8.572   4.246
43577SOL    HW132505   4.289   8.644   4.211
43577SOL    HW232506   4.193   8.534   4.169
43578SOL     OW32507   0.236  14.774   5.432
43578SOL    HW132508   0.215  14.867   5.422
43578SOL    HW232509   0.299  14.756   5.363
43579SOL     OW32510   6.137  12.726  12.884
43579SOL    HW132511   6.099  12.670  12.952
43579SOL    HW232512   6.188  12.666  12.829
43580SOL     OW32513  13.070   3.363   1.885
43580SOL    HW132514  13.005   3.300   1.851
43580SOL    HW232515  13.120   3.391   1.808
43581SOL     OW32516  10.805   3.386   8.311
43581SOL    HW132517  10.731   3.333   8.341
43581SOL    HW232518  10.794   3.470   8.356
43582SOL     OW32519  13.064   1.540   5.889
43582SOL    HW132520  13.046   1.489   5.810
43582SOL    HW232521  13.007   1.617   5.882
43583SOL     OW32522   3.616  12.215  13.935
43583SOL    HW132523   3.694  12.246  13.981
43583SOL    HW232524   3.560  12.293  13.929
43584SOL     OW32525   8.531   3.592   5.161
43584SOL    HW132526   8.595   3.572   5.230
43584SOL    HW232527   8.525   3.512   5.109
43585SOL     OW32528  12.842   0.227   2.465
43585SOL    HW132529  12.762   0.244   2.515
43585SOL    HW232530  12.893   0.168   2.520
43586SOL     OW32531   5.743   5.078   8.604
43586SOL    HW132532   5.684   5.123   8.544
43586SOL    HW232533   5.818   5.052   8.551
43587SOL     OW32534   2.108   8.808   4.988
43587SOL    HW132535   2.028   8.818   5.039
43587SOL    HW232536   2.084   8.836   4.899
43588SOL     OW32537   1.208   7.368   9.962
43588SOL    HW132538   1.161   7.284   9.961
43588SOL    HW232539   1.158   7.422  10.023
43589SOL     OW32540  14.137   7.462   3.314
43589SOL    HW132541  14.089   7.410   3.249
43589SOL    HW232542  14.071   7.487   3.379
43590SOL     OW32543   0.357  11.053   5.090
43590SOL    HW132544   0.339  10.976   5.144
43590SOL    HW232545   0.351  11.127   5.151
43591SOL     OW32546   3.079   4.866   5.764
43591SOL    HW132547   3.075   4.792   5.823
43591SOL    HW232548   3.058   4.942   5.819
43592SOL     OW32549   5.136  10.158   8.590
43592SOL    HW132550   5.214  10.179   8.641
43592SOL    HW232551   5.164  10.090   8.529
43593SOL     OW32552   0.190   5.640  10.940
43593SOL    HW132553   0.155   5.569  10.887
43593SOL    HW232554   0.262   5.676  10.887
43594SOL     OW32555   8.912   4.765   8.848
43594SOL    HW132556   8.907   4.690   8.789
43594SOL    HW232557   8.995   4.808   8.825
43595SOL     OW32558  10.594  13.943   4.006
43595SOL    HW132559  10.686  13.920   3.991
43595SOL    HW232560  10.545  13.873   3.962
43596SOL     OW32561   4.513  13.882   7.841
43596SOL    HW132562   4.597  13.844   7.867
43596SOL    HW232563   4.533  13.933   7.763
43597SOL     OW32564   3.245  10.455  13.751
43597SOL    HW132565   3.197  10.383  13.709
43597SOL    HW232566   3.180  10.524  13.762
43598SOL     OW32567   5.298  13.306  13.050
43598SOL    HW132568   5.381  13.272  13.018
43598SOL    HW232569   5.237  13.232  13.041
43599SOL     OW32570  10.249   2.427   2.627
43599SOL    HW132571  10.244   2.336   2.656
43599SOL    HW232572  10.219   2.424   2.536
43600SOL     OW32573   1.614   2.304   0.458
43600SOL    HW132574   1.548   2.370   0.475
43600SOL    HW232575   1.570   2.240   0.402
43601SOL     OW32576   5.349   3.068   6.122
43601SOL    HW132577   5.408   3.016   6.177
43601SOL    HW232578   5.270   3.079   6.175
43602SOL     OW32579   5.496   8.609   1.586
43602SOL    HW132580   5.573   8.666   1.587
43602SOL    HW232581   5.422   8.669   1.570
43603SOL     OW32582   1.904   9.697   3.862
43603SOL    HW132583   1.965   9.726   3.795
43603SOL    HW232584   1.874   9.778   3.905
43604SOL     OW32585   0.121   2.070  14.299
43604SOL    HW132586   0.060   2.058  14.227
43604SOL    HW232587   0.188   2.003  14.286
43605SOL     OW32588   5.708   4.630  12.736
43605SOL    HW132589   5.628   4.682  12.737
43605SOL    HW232590   5.695   4.567  12.665
43606SOL     OW32591  14.753   4.992   9.375
43606SOL    HW132592  14.827   4.948   9.332
43606SOL    HW232593  14.772   5.085   9.364
43607SOL     OW32594   9.705  14.137   0.077
43607SOL    HW132595   9.788  14.094   0.056
43607SOL    HW232596   9.693  14.124   0.171
43608SOL     OW32597  12.720  13.645   7.292
43608SOL    HW132598  12.691  13.734   7.311
43608SOL    HW232599  12.703  13.634   7.199
43609SOL     OW32600  12.377   1.827  10.380
43609SOL    HW132601  12.436   1.894  10.345
43609SOL    HW232602  12.337   1.788  10.303
43610SOL     OW32603  12.970   5.057  12.738
43610SOL    HW132604  12.979   4.984  12.677
43610SOL    HW232605  12.900   5.030  12.798
43611SOL     OW32606   4.637  13.179  10.267
43611SOL    HW132607   4.685  13.262  10.258
43611SOL    HW232608   4.553  13.204  10.305
43612SOL     OW32609   5.218   6.786  14.105
43612SOL    HW132610   5.244   6.869  14.145
43612SOL    HW232611   5.187   6.733  14.179
43613SOL     OW32612   2.099   8.628   0.389
43613SOL    HW132613   2.192   8.622   0.367
43613SOL    HW232614   2.056   8.650   0.306
43614SOL     OW32615  12.660   4.896  13.433
43614SOL    HW132616  12.592   4.828  13.429
43614SOL    HW232617  12.670   4.914  13.526
43615SOL     OW32618   8.199   3.892  14.086
43615SOL    HW132619   8.291   3.866  14.076
43615SOL    HW232620   8.200   3.960  14.154
43616SOL     OW32621   9.365  14.604  14.285
43616SOL    HW132622   9.323  14.656  14.217
43616SOL    HW232623   9.293  14.556  14.326
43617SOL     OW32624   2.945   7.479   9.331
43617SOL    HW132625   3.024   7.427   9.322
43617SOL    HW232626   2.970   7.550   9.390
43618SOL     OW32627   7.663   1.279   0.281
43618SOL    HW132628   7.699   1.236   0.359
43618SOL    HW232629   7.718   1.356   0.268
43619SOL     OW32630   8.157   8.141   0.847
43619SOL    HW132631   8.159   8.191   0.928
43619SOL    HW232632   8.223   8.072   0.859
43620SOL     OW32633   3.951   2.372   1.332
43620SOL    HW132634   4.041   2.381   1.365
43620SOL    HW232635   3.955   2.297   1.272
43621SOL     OW32636   2.424   1.670   7.727
43621SOL    HW132637   2.481   1.603   7.688
43621SOL    HW232638   2.429   1.653   7.821
43622SOL     OW32639  12.831   1.451   5.000
43622SOL    HW132640  12.853   1.377   5.057
43622SOL    HW232641  12.913   1.499   4.991
43623SOL     OW32642   5.839  13.693   6.870
43623SOL    HW132643   5.844  13.678   6.965
43623SOL    HW232644   5.930  13.700   6.842
43624SOL     OW32645  11.422  13.345  13.547
43624SOL    HW132646  11.371  13.320  13.469
43624SOL    HW232647  11.375  13.421  13.582
43625SOL     OW32648  10.120   1.340   8.691
43625SOL    HW132649  10.209   1.373   8.699
43625SOL    HW232650  10.091   1.323   8.780
43626SOL     OW32651  13.349   6.333   5.269
43626SOL    HW132652  13.336   6.244   5.302
43626SOL    HW232653  13.342   6.388   5.347
43627SOL     OW32654   3.106   2.020  13.818
43627SOL    HW132655   3.142   1.945  13.771
43627SOL    HW232656   3.057   1.982  13.891
43628SOL     OW32657   4.484  14.217   9.962
43628SOL    HW132658   4.541  14.223  10.039
43628SOL    HW232659   4.534  14.258   9.892
43629SOL     OW32660   0.697  11.666   8.470
43629SOL    HW132661   0.660  11.753   8.457
43629SOL    HW232662   0.702  11.655   8.565
43630SOL     OW32663  10.980  12.661   6.357
43630SOL    HW132664  11.004  12.577   6.397
43630SOL    HW232665  10.964  12.640   6.265
43631SOL     OW32666  10.030  10.100   2.307
43631SOL    HW132667  10.048  10.045   2.230
43631SOL    HW232668  10.112  10.144   2.325
43632SOL     OW32669   5.804  13.539  10.556
43632SOL    HW132670   5.754  13.571  10.631
43632SOL    HW232671   5.891  13.576  10.569
43633SOL     OW32672   2.577   7.024  12.550
43633SOL    HW132673   2.539   6.937  12.537
43633SOL    HW232674   2.657   7.024  12.498
43634SOL     OW32675  12.435   9.316   4.030
43634SOL    HW132676  12.449   9.397   3.980
43634SOL    HW232677  12.349   9.286   4.003
43635SOL     OW32678  10.034  12.348   9.501
43635SOL    HW132679  10.104  12.289   9.528
43635SOL    HW232680  10.068  12.389   9.421
43636SOL     OW32681   2.215   7.101   5.277
43636SOL    HW132682   2.226   7.156   5.200
43636SOL    HW232683   2.122   7.080   5.278
43637SOL     OW32684   4.619  12.613   4.546
43637SOL    HW132685   4.552  12.668   4.587
43637SOL    HW232686   4.693  12.673   4.532
43638SOL     OW32687   1.275   7.579  10.466
43638SOL    HW132688   1.306   7.638  10.534
43638SOL    HW232689   1.249   7.500  10.512
43639SOL     OW32690   5.400   2.774   9.524
43639SOL    HW132691   5.447   2.704   9.479
43639SOL    HW232692   5.319   2.784   9.475
43640SOL     OW32693  10.172  10.738   3.073
43640SOL    HW132694  10.137  10.690   3.148
43640SOL    HW232695  10.120  10.706   2.998
43641SOL     OW32696   4.487   2.621   3.024
43641SOL    HW132697   4.461   2.641   3.114
43641SOL    HW232698   4.423   2.557   2.994
43642SOL     OW32699   7.948   0.559   1.490
43642SOL    HW132700   7.973   0.610   1.567
43642SOL    HW232701   7.926   0.473   1.524
43643SOL     OW32702   7.871  14.068  12.082
43643SOL    HW132703   7.867  14.052  11.988
43643SOL    HW232704   7.944  14.013  12.112
43644SOL     OW32705  14.025   3.519   7.920
43644SOL    HW132706  14.051   3.538   8.010
43644SOL    HW232707  14.100   3.546   7.867
43645SOL     OW32708   4.249   4.599   2.658
43645SOL    HW132709   4.291   4.673   2.615
43645SOL    HW232710   4.172   4.636   2.701
43646SOL     OW32711   6.364   9.757   9.456
43646SOL    HW132712   6.332   9.677   9.497
43646SOL    HW232713   6.304   9.773   9.383
43647SOL     OW32714  12.566  10.512   2.359
43647SOL    HW132715  12.639  10.452   2.345
43647SOL    HW232716  12.606  10.590   2.396
43648SOL     OW32717   7.684   1.584   3.938
43648SOL    HW132718   7.676   1.560   3.846
43648SOL    HW232719   7.776   1.569   3.959
43649SOL     OW32720  14.868  12.452   2.703
43649SOL    HW132721   0.020  12.372   2.659
43649SOL    HW232722   0.071  12.492   2.736
43650SOL     OW32723  13.202   2.926   5.405
43650SOL    HW132724  13.191   2.834   5.429
43650SOL    HW232725  13.280   2.928   5.351
43651SOL     OW32726  14.865  10.581  10.956
43651SOL    HW132727  14.837  10.641  11.025
43651SOL    HW232728  14.797  10.514  10.953
43652SOL     OW32729   2.215  13.832   6.701
43652SOL    HW132730   2.132  13.850   6.745
43652SOL    HW232731   2.191  13.780   6.624
43653SOL     OW32732   8.232   6.122   9.304
43653SOL    HW132733   8.324   6.105   9.285
43653SOL    HW232734   8.231   6.206   9.350
43654SOL     OW32735  11.849   1.231  10.829
43654SOL    HW132736  11.820   1.141  10.817
43654SOL    HW232737  11.921   1.242  10.766
43655SOL     OW32738  12.910   3.574   6.790
43655SOL    HW132739  12.898   3.502   6.728
43655SOL    HW232740  12.855   3.644   6.756
43656SOL     OW32741   5.033   9.862   1.506
43656SOL    HW132742   4.957   9.819   1.544
43656SOL    HW232743   4.997   9.939   1.461
43657SOL     OW32744   9.026  10.202   5.239
43657SOL    HW132745   8.977  10.268   5.288
43657SOL    HW232746   8.961  10.161   5.182
43658SOL     OW32747  13.538   5.658   0.747
43658SOL    HW132748  13.495   5.717   0.684
43658SOL    HW232749  13.613   5.624   0.700
43659SOL     OW32750   6.310   6.041  11.296
43659SOL    HW132751   6.254   5.978  11.251
43659SOL    HW232752   6.378   5.988  11.336
43660SOL     OW32753  11.703   1.965   7.497
43660SOL    HW132754  11.693   1.892   7.559
43660SOL    HW232755  11.640   1.945   7.427
43661SOL     OW32756   3.970  12.316  14.017
43661SOL    HW132757   3.989  12.409  14.005
43661SOL    HW232758   3.979  12.278  13.929
43662SOL     OW32759   1.359   3.918   5.912
43662SOL    HW132760   1.303   3.842   5.930
43662SOL    HW232761   1.421   3.887   5.845
43663SOL     OW32762   7.700  12.180   8.979
43663SOL    HW132763   7.707  12.165   8.885
43663SOL    HW232764   7.727  12.098   9.019
43664SOL     OW32765   0.988   8.913   0.779
43664SOL    HW132766   0.925   8.984   0.794
43664SOL    HW232767   0.970   8.851   0.850
43665SOL     OW32768   1.496   5.781   1.134
43665SOL    HW132769   1.486   5.689   1.111
43665SOL    HW232770   1.564   5.814   1.075
43666SOL     OW32771  11.161   1.068  14.818
43666SOL    HW132772  11.251   1.100  14.822
43666SOL    HW232773  11.112   1.127  14.876
43667SOL     OW32774   5.564   7.986   2.656
43667SOL    HW132775   5.482   7.939   2.645
43667SOL    HW232776   5.540   8.079   2.648
43668SOL     OW32777  11.785   2.836   1.703
43668SOL    HW132778  11.824   2.921   1.721
43668SOL    HW232779  11.718   2.826   1.770
43669SOL     OW32780   0.260   0.493   5.815
43669SOL    HW132781   0.329   0.548   5.778
43669SOL    HW232782   0.180   0.521   5.770
43670SOL     OW32783  11.020   7.613  13.977
43670SOL    HW132784  11.089   7.658  13.928
43670SOL    HW232785  11.038   7.520  13.963
43671SOL     OW32786   7.878  11.533   5.925
43671SOL    HW132787   7.783  11.539   5.910
43671SOL    HW232788   7.914  11.514   5.839
43672SOL     OW32789   0.363   4.967   7.804
43672SOL    HW132790   0.443   4.998   7.762
43672SOL    HW232791   0.349   5.029   7.876
43673SOL     OW32792   4.039   6.732   4.792
43673SOL    HW132793   3.982   6.673   4.842
43673SOL    HW232794   4.043   6.694   4.704
43674SOL     OW32795   4.131   3.673  12.786
43674SOL    HW132796   4.141   3.702  12.877
43674SOL    HW232797   4.164   3.746  12.734
43675SOL     OW32798   3.271  12.674  13.765
43675SOL    HW132799   3.320  12.624  13.699
43675SOL    HW232800   3.191  12.701  13.720
43676SOL     OW32801   2.100   4.548   3.558
43676SOL    HW132802   2.122   4.570   3.649
43676SOL    HW232803   2.141   4.462   3.545
43677SOL     OW32804   3.446  10.493   8.033
43677SOL    HW132805   3.354  10.513   8.046
43677SOL    HW232806   3.473  10.450   8.115
43678SOL     OW32807   8.955   2.780   0.667
43678SOL    HW132808   8.943   2.873   0.648
43678SOL    HW232809   9.050   2.766   0.661
43679SOL     OW32810  13.596  11.781   3.078
43679SOL    HW132811  13.574  11.779   3.172
43679SOL    HW232812  13.633  11.869   3.065
43680SOL     OW32813   8.749   2.902  14.491
43680SOL    HW132814   8.705   2.843  14.552
43680SOL    HW232815   8.685   2.970  14.473
43681SOL     OW32816   2.622  11.389  14.678
43681SOL    HW132817   2.675  11.387  14.757
43681SOL    HW232818   2.539  11.429  14.706
43682SOL     OW32819   3.491   6.244  10.298
43682SOL    HW132820   3.558   6.260  10.231
43682SOL    HW232821   3.464   6.153  10.282
43683SOL     OW32822  12.944   6.455   4.308
43683SOL    HW132823  12.869   6.397   4.297
43683SOL    HW232824  13.000   6.410   4.371
43684SOL     OW32825  11.721   4.479   2.613
43684SOL    HW132826  11.656   4.409   2.621
43684SOL    HW232827  11.712   4.510   2.523
43685SOL     OW32828   5.109  13.923  13.759
43685SOL    HW132829   5.174  13.905  13.691
43685SOL    HW232830   5.025  13.897  13.721
43686SOL     OW32831   5.451   2.976   9.269
43686SOL    HW132832   5.475   3.063   9.235
43686SOL    HW232833   5.378   2.993   9.328
43687SOL     OW32834   6.777  14.426  12.410
43687SOL    HW132835   6.747  14.490  12.346
43687SOL    HW232836   6.863  14.398  12.378
43688SOL     OW32837   9.350   4.443   4.926
43688SOL    HW132838   9.315   4.419   4.840
43688SOL    HW232839   9.428   4.390   4.936
43689SOL     OW32840   1.170   2.649  13.885
43689SOL    HW132841   1.088   2.690  13.913
43689SOL    HW232842   1.152   2.614  13.798
43690SOL     OW32843   9.217   2.493  11.238
43690SOL    HW132844   9.245   2.432  11.306
43690SOL    HW232845   9.219   2.441  11.157
43691SOL     OW32846   8.611  12.076  14.770
43691SOL    HW132847   8.549  12.097  14.840
43691SOL    HW232848   8.575  12.119  14.693
43692SOL     OW32849  12.071   8.654   6.053
43692SOL    HW132850  12.005   8.698   6.107
43692SOL    HW232851  12.152   8.703   6.069
43693SOL     OW32852   5.851   2.601  13.919
43693SOL    HW132853   5.761   2.612  13.890
43693SOL    HW232854   5.846   2.603  14.015
43694SOL     OW32855   1.066   8.312   6.128
43694SOL    HW132856   1.080   8.220   6.153
43694SOL    HW232857   1.079   8.360   6.210
43695SOL     OW32858  14.009  10.551   2.214
43695SOL    HW132859  14.022  10.456   2.217
43695SOL    HW232860  14.010  10.578   2.305
43696SOL     OW32861  13.262  13.534  13.146
43696SOL    HW132862  13.194  13.556  13.083
43696SOL    HW232863  13.228  13.457  13.192
43697SOL     OW32864   9.176  11.557  14.777
43697SOL    HW132865   9.161  11.641  14.820
43697SOL    HW232866   9.174  11.493  14.849
43698SOL     OW32867   1.871   5.612  13.769
43698SOL    HW132868   1.795   5.630  13.824
43698SOL    HW232869   1.943   5.602  13.830
43699SOL     OW32870   5.068  14.650  12.430
43699SOL    HW132871   5.133  14.607  12.373
43699SOL    HW232872   5.025  14.714  12.373
43700SOL     OW32873   5.779   9.450   8.464
43700SOL    HW132874   5.870   9.459   8.434
43700SOL    HW232875   5.740   9.388   8.402
43701SOL     OW32876   9.093   8.682   0.758
43701SOL    HW132877   9.078   8.707   0.850
43701SOL    HW232878   9.185   8.703   0.742
43702SOL     OW32879   9.827  10.607  14.525
43702SOL    HW132880   9.913  10.591  14.485
43702SOL    HW232881   9.843  10.674  14.591
43703SOL     OW32882   5.386   8.858   3.720
43703SOL    HW132883   5.477   8.829   3.712
43703SOL    HW232884   5.393   8.948   3.751
43704SOL     OW32885   2.552   9.306   8.251
43704SOL    HW132886   2.497   9.355   8.189
43704SOL    HW232887   2.639   9.306   8.211
43705SOL     OW32888   1.450   1.530   5.739
43705SOL    HW132889   1.512   1.480   5.685
43705SOL    HW232890   1.376   1.546   5.682
43706SOL     OW32891  12.764  11.084   5.167
43706SOL    HW132892  12.793  10.998   5.196
43706SOL    HW232893  12.844  11.127   5.135
43707SOL     OW32894  11.360   3.678   3.119
43707SOL    HW132895  11.433   3.634   3.075
43707SOL    HW232896  11.293   3.685   3.052
43708SOL     OW32897  11.321   3.392  14.659
43708SOL    HW132898  11.285   3.311  14.694
43708SOL    HW232899  11.394   3.413  14.718
43709SOL     OW32900   0.172  13.661   2.731
43709SOL    HW132901   0.166  13.642   2.638
43709SOL    HW232902   0.249  13.613   2.761
43710SOL     OW32903  14.854  12.353   2.966
43710SOL    HW132904  14.849  12.407   2.887
43710SOL    HW232905   0.055  12.383   3.011
43711SOL     OW32906   3.560  14.228   9.338
43711SOL    HW132907   3.520  14.208   9.423
43711SOL    HW232908   3.513  14.305   9.307
43712SOL     OW32909  10.769   3.910   8.210
43712SOL    HW132910  10.721   3.841   8.256
43712SOL    HW232911  10.733   3.992   8.244
43713SOL     OW32912   1.651  12.163   2.867
43713SOL    HW132913   1.654  12.253   2.835
43713SOL    HW232914   1.567  12.129   2.837
43714SOL     OW32915   0.249  10.855  14.094
43714SOL    HW132916   0.339  10.860  14.060
43714SOL    HW232917   0.243  10.926  14.157
43715SOL     OW32918   5.701   4.722   1.410
43715SOL    HW132919   5.739   4.732   1.323
43715SOL    HW232920   5.775   4.697   1.466
43716SOL     OW32921   3.600  11.997   3.054
43716SOL    HW132922   3.592  11.929   3.122
43716SOL    HW232923   3.523  11.985   2.999
43717SOL     OW32924  14.169   5.112  11.925
43717SOL    HW132925  14.238   5.061  11.967
43717SOL    HW232926  14.116   5.047  11.879
43718SOL     OW32927   3.439   8.322   6.855
43718SOL    HW132928   3.471   8.236   6.884
43718SOL    HW232929   3.448   8.320   6.760
43719SOL     OW32930   9.549   9.275   2.883
43719SOL    HW132931   9.459   9.286   2.851
43719SOL    HW232932   9.542   9.206   2.949
43720SOL     OW32933  14.123   2.084   1.070
43720SOL    HW132934  14.044   2.134   1.051
43720SOL    HW232935  14.156   2.121   1.151
43721SOL     OW32936   7.383   8.770   0.733
43721SOL    HW132937   7.341   8.730   0.809
43721SOL    HW232938   7.372   8.706   0.663
43722SOL     OW32939   0.454  12.151   3.865
43722SOL    HW132940   0.359  12.153   3.879
43722SOL    HW232941   0.475  12.058   3.858
43723SOL     OW32942   5.692   7.115   7.429
43723SOL    HW132943   5.600   7.113   7.456
43723SOL    HW232944   5.702   7.035   7.376
43724SOL     OW32945   2.702   7.980  11.766
43724SOL    HW132946   2.739   7.961  11.679
43724SOL    HW232947   2.686   7.893  11.804
43725SOL     OW32948   8.243   0.396   1.638
43725SOL    HW132949   8.322   0.345   1.655
43725SOL    HW232950   8.233   0.452   1.716
43726SOL     OW32951   0.013   1.743  12.451
43726SOL    HW132952   0.028   1.767  12.543
43726SOL    HW232953  14.857   1.823  12.411
43727SOL     OW32954  13.201  13.871   2.940
43727SOL    HW132955  13.230  13.908   2.856
43727SOL    HW232956  13.105  13.866   2.932
43728SOL     OW32957  14.081   0.015  14.074
43728SOL    HW132958  14.007   0.002  14.014
43728SOL    HW232959  14.049  14.860  14.158
43729SOL     OW32960   3.465   1.453  14.811
43729SOL    HW132961   3.544   1.432  14.761
43729SOL    HW232962   3.484   1.539  14.849
43730SOL     OW32963  12.339   2.386   4.432
43730SOL    HW132964  12.271   2.384   4.364
43730SOL    HW232965  12.358   2.479   4.443
43731SOL     OW32966  10.379   7.144   3.406
43731SOL    HW132967  10.292   7.107   3.423
43731SOL    HW232968  10.369   7.237   3.425
43732SOL     OW32969   4.764   3.862   1.187
43732SOL    HW132970   4.857   3.877   1.173
43732SOL    HW232971   4.747   3.893   1.276
43733SOL     OW32972   9.040   3.275  10.031
43733SOL    HW132973   8.998   3.320   9.957
43733SOL    HW232974   8.997   3.313  10.108
43734SOL     OW32975  11.496   4.918   5.439
43734SOL    HW132976  11.467   4.969   5.515
43734SOL    HW232977  11.416   4.879   5.404
43735SOL     OW32978   3.275   9.581   7.541
43735SOL    HW132979   3.273   9.670   7.575
43735SOL    HW232980   3.276   9.591   7.446
43736SOL     OW32981   3.877   1.243  14.119
43736SOL    HW132982   3.879   1.195  14.036
43736SOL    HW232983   3.821   1.319  14.101
43737SOL     OW32984   1.897   9.589  13.160
43737SOL    HW132985   1.875   9.615  13.250
43737SOL    HW232986   1.876   9.496  13.156
43738SOL     OW32987   7.948   3.027   0.270
43738SOL    HW132988   7.964   2.997   0.359
43738SOL    HW232989   7.855   3.051   0.269
43739SOL     OW32990  11.715   7.352   3.311
43739SOL    HW132991  11.754   7.276   3.269
43739SOL    HW232992  11.789   7.402   3.344
43740SOL     OW32993   3.197  10.762   7.554
43740SOL    HW132994   3.136  10.709   7.605
43740SOL    HW232995   3.155  10.773   7.469
43741SOL     OW32996   7.999  12.255  10.021
43741SOL    HW132997   7.909  12.224  10.024
43741SOL    HW232998   7.993  12.350  10.030
43742SOL     OW32999   5.847   1.398  12.181
43742SOL    HW133000   5.824   1.408  12.273
43742SOL    HW233001   5.839   1.304  12.164
43743SOL     OW33002  13.722   3.593  13.884
43743SOL    HW133003  13.816   3.609  13.890
43743SOL    HW233004  13.681   3.678  13.898
43744SOL     OW33005  11.162   7.782   4.947
43744SOL    HW133006  11.081   7.790   4.897
43744SOL    HW233007  11.171   7.688   4.963
43745SOL     OW33008  14.830   9.556  12.903
43745SOL    HW133009  14.872   9.470  12.902
43745SOL    HW233010  14.757   9.547  12.841
43746SOL     OW33011   2.788   0.411   2.761
43746SOL    HW133012   2.815   0.502   2.769
43746SOL    HW233013   2.698   0.415   2.728
43747SOL     OW33014   6.428   7.963   7.534
43747SOL    HW133015   6.463   8.032   7.478
43747SOL    HW233016   6.335   7.958   7.510
43748SOL     OW33017  14.211  11.707  12.529
43748SOL    HW133018  14.129  11.690  12.575
43748SOL    HW233019  14.262  11.761  12.590
43749SOL     OW33020   4.407  13.328   9.951
43749SOL    HW133021   4.323  13.370   9.966
43749SOL    HW233022   4.425  13.343   9.858
43750SOL     OW33023   2.850  11.563   3.216
43750SOL    HW133024   2.838  11.485   3.270
43750SOL    HW233025   2.921  11.611   3.258
43751SOL     OW33026  14.588  11.914   5.784
43751SOL    HW133027  14.617  11.940   5.871
43751SOL    HW233028  14.583  11.818   5.788
43752SOL     OW33029   1.194   6.983  14.127
43752SOL    HW133030   1.105   6.949  14.118
43752SOL    HW233031   1.200   7.052  14.061
43753SOL     OW33032  13.037  11.037   1.539
43753SOL    HW133033  12.955  10.992   1.558
43753SOL    HW233034  13.036  11.048   1.444
43754SOL     OW33035   7.976  12.363   8.205
43754SOL    HW133036   8.008  12.443   8.247
43754SOL    HW233037   8.037  12.295   8.233
43755SOL     OW33038   7.567   0.462   9.895
43755SOL    HW133039   7.646   0.426   9.853
43755SOL    HW233040   7.581   0.557   9.895
43756SOL     OW33041   1.382   9.005  13.957
43756SOL    HW133042   1.463   9.051  13.933
43756SOL    HW233043   1.413   8.931  14.011
43757SOL     OW33044   8.352  11.637   9.182
43757SOL    HW133045   8.261  11.633   9.152
43757SOL    HW233046   8.358  11.572   9.252
43758SOL     OW33047  12.929   5.313  12.916
43758SOL    HW133048  12.859   5.327  12.852
43758SOL    HW233049  12.984   5.391  12.907
43759SOL     OW33050  13.412   1.090   0.175
43759SOL    HW133051  13.432   1.004   0.137
43759SOL    HW233052  13.343   1.072   0.240
43760SOL     OW33053   2.802   4.589   0.948
43760SOL    HW133054   2.714   4.562   0.976
43760SOL    HW233055   2.854   4.589   1.029
43761SOL     OW33056   1.963   6.717   1.858
43761SOL    HW133057   1.979   6.806   1.825
43761SOL    HW233058   1.903   6.729   1.931
43762SOL     OW33059  13.789  10.247  10.203
43762SOL    HW133060  13.792  10.329  10.252
43762SOL    HW233061  13.739  10.188  10.260
43763SOL     OW33062   0.835  10.697   6.982
43763SOL    HW133063   0.818  10.616   7.028
43763SOL    HW233064   0.905  10.739   7.032
43764SOL     OW33065  12.861   8.308   3.380
43764SOL    HW133066  12.830   8.225   3.417
43764SOL    HW233067  12.954   8.294   3.364
43765SOL     OW33068  14.542   3.049   0.502
43765SOL    HW133069  14.513   2.970   0.455
43765SOL    HW233070  14.623   3.074   0.457
43766SOL     OW33071   1.448  11.946  11.444
43766SOL    HW133072   1.524  11.889  11.432
43766SOL    HW233073   1.390  11.896  11.503
43767SOL     OW33074   3.049   9.657   8.290
43767SOL    HW133075   3.037   9.705   8.372
43767SOL    HW233076   3.130   9.693   8.253
43768SOL     OW33077   4.031  13.656   7.185
43768SOL    HW133078   4.055  13.745   7.159
43768SOL    HW233079   4.095  13.633   7.252
43769SOL     OW33080   3.032   7.548   7.896
43769SOL    HW133081   3.064   7.527   7.984
43769SOL    HW233082   3.100   7.515   7.837
43770SOL     OW33083  13.206   4.040   9.321
43770SOL    HW133084  13.276   4.098   9.290
43770SOL    HW233085  13.234   3.952   9.296
43771SOL     OW33086  13.426   1.703   3.797
43771SOL    HW133087  13.337   1.740   3.801
43771SOL    HW233088  13.464   1.725   3.882
43772SOL     OW33089   4.779   2.786   7.365
43772SOL    HW133090   4.687   2.800   7.339
43772SOL    HW233091   4.789   2.691   7.363
43773SOL     OW33092  12.745  11.393   4.452
43773SOL    HW133093  12.717  11.324   4.391
43773SOL    HW233094  12.697  11.470   4.424
43774SOL     OW33095  14.243   9.746   0.901
43774SOL    HW133096  14.261   9.839   0.888
43774SOL    HW233097  14.316   9.701   0.858
43775SOL     OW33098  11.039   1.952   0.079
43775SOL    HW133099  11.007   2.039   0.057
43775SOL    HW233100  11.070   1.916  14.873
43776SOL     OW33101   0.347   4.884   3.194
43776SOL    HW133102   0.360   4.940   3.270
43776SOL    HW233103   0.342   4.945   3.120
43777SOL     OW33104   4.061   8.995   7.375
43777SOL    HW133105   4.065   8.981   7.281
43777SOL    HW233106   4.135   8.946   7.410
43778SOL     OW33107   3.165   5.855   8.790
43778SOL    HW133108   3.097   5.860   8.723
43778SOL    HW233109   3.133   5.788   8.850
43779SOL     OW33110   0.482  11.252  11.705
43779SOL    HW133111   0.451  11.242  11.796
43779SOL    HW233112   0.402  11.267  11.655
43780SOL     OW33113   8.679  11.767   5.376
43780SOL    HW133114   8.714  11.715   5.304
43780SOL    HW233115   8.599  11.723   5.402
43781SOL     OW33116  11.449  12.148   7.695
43781SOL    HW133117  11.357  12.173   7.687
43781SOL    HW233118  11.447  12.052   7.703
43782SOL     OW33119   1.427  11.677   5.410
43782SOL    HW133120   1.346  11.672   5.359
43782SOL    HW233121   1.398  11.693   5.500
43783SOL     OW33122   6.378  14.022   5.117
43783SOL    HW133123   6.387  14.011   5.022
43783SOL    HW233124   6.292  14.063   5.128
43784SOL     OW33125   7.449   4.341   0.297
43784SOL    HW133126   7.380   4.288   0.336
43784SOL    HW233127   7.454   4.311   0.207
43785SOL     OW33128  13.116  13.135  10.439
43785SOL    HW133129  13.211  13.145  10.436
43785SOL    HW233130  13.101  13.055  10.490
43786SOL     OW33131  13.345  13.228   3.582
43786SOL    HW133132  13.394  13.179   3.517
43786SOL    HW233133  13.254  13.212   3.562
43787SOL     OW33134  13.805   7.688   6.017
43787SOL    HW133135  13.748   7.636   6.073
43787SOL    HW233136  13.745   7.749   5.973
43788SOL     OW33137   2.314   9.365  10.241
43788SOL    HW133138   2.244   9.303  10.223
43788SOL    HW233139   2.322   9.364  10.337
43789SOL     OW33140  14.243   9.328   2.443
43789SOL    HW133141  14.162   9.344   2.492
43789SOL    HW233142  14.280   9.250   2.483
43790SOL     OW33143  12.628   8.234   2.438
43790SOL    HW133144  12.659   8.321   2.412
43790SOL    HW233145  12.540   8.249   2.471
43791SOL     OW33146  13.109   8.134   3.114
43791SOL    HW133147  13.074   8.051   3.079
43791SOL    HW233148  13.054   8.201   3.074
43792SOL     OW33149  11.928   4.223   9.982
43792SOL    HW133150  11.894   4.136  10.001
43792SOL    HW233151  11.966   4.215   9.894
43793SOL     OW33152   6.267  12.009  13.137
43793SOL    HW133153   6.339  12.038  13.193
43793SOL    HW233154   6.217  11.949  13.191
43794SOL     OW33155  10.782   5.843  12.848
43794SOL    HW133156  10.797   5.903  12.775
43794SOL    HW233157  10.719   5.779  12.814
43795SOL     OW33158  12.876  14.315   1.373
43795SOL    HW133159  12.907  14.390   1.424
43795SOL    HW233160  12.855  14.352   1.287
43796SOL     OW33161   5.275  14.435  12.252
43796SOL    HW133162   5.361  14.454  12.289
43796SOL    HW233163   5.234  14.378  12.317
43797SOL     OW33164   7.847  12.360   6.230
43797SOL    HW133165   7.878  12.310   6.155
43797SOL    HW233166   7.768  12.405   6.198
43798SOL     OW33167  12.175   0.401   1.801
43798SOL    HW133168  12.261   0.362   1.815
43798SOL    HW233169  12.180   0.441   1.714
43799SOL     OW33170   4.168   3.173  11.782
43799SOL    HW133171   4.200   3.259  11.754
43799SOL    HW233172   4.242   3.135  11.830
43800SOL     OW33173   7.523   2.677  12.060
43800SOL    HW133174   7.506   2.692  11.967
43800SOL    HW233175   7.593   2.612  12.062
43801SOL     OW33176   0.809   6.759   6.597
43801SOL    HW133177   0.896   6.800   6.588
43801SOL    HW233178   0.782   6.741   6.507
43802SOL     OW33179   4.197   9.736  11.115
43802SOL    HW133180   4.204   9.831  11.126
43802SOL    HW233181   4.288   9.706  11.112
43803SOL     OW33182   5.032   7.437  12.022
43803SOL    HW133183   4.956   7.396  12.063
43803SOL    HW233184   5.090   7.364  12.001
43804SOL     OW33185   3.014   9.755   8.532
43804SOL    HW133186   3.094   9.776   8.579
43804SOL    HW233187   2.948   9.813   8.570
43805SOL     OW33188  14.569  13.165   3.966
43805SOL    HW133189  14.501  13.185   3.901
43805SOL    HW233190  14.524  13.113   4.033
43806SOL     OW33191   2.800   1.986  10.893
43806SOL    HW133192   2.748   2.062  10.867
43806SOL    HW233193   2.890   2.020  10.899
43807SOL     OW33194   7.625   7.126  14.527
43807SOL    HW133195   7.651   7.074  14.603
43807SOL    HW233196   7.585   7.205  14.563
43808SOL     OW33197  13.839   3.837   0.899
43808SOL    HW133198  13.906   3.775   0.926
43808SOL    HW233199  13.762   3.814   0.951
43809SOL     OW33200   5.449   2.160   6.266
43809SOL    HW133201   5.460   2.073   6.305
43809SOL    HW233202   5.536   2.183   6.233
43810SOL     OW33203   7.675   4.600   0.249
43810SOL    HW133204   7.748   4.657   0.223
43810SOL    HW233205   7.686   4.522   0.195
43811SOL     OW33206   8.090  10.228  10.206
43811SOL    HW133207   8.011  10.219  10.259
43811SOL    HW233208   8.074  10.173  10.130
43812SOL     OW33209   1.847   9.158  11.989
43812SOL    HW133210   1.807   9.166  12.076
43812SOL    HW233211   1.838   9.244  11.950
43813SOL     OW33212   7.490  11.580   2.836
43813SOL    HW133213   7.570  11.600   2.788
43813SOL    HW233214   7.502  11.490   2.867
43814SOL     OW33215   9.292   8.540   0.927
43814SOL    HW133216   9.345   8.599   0.874
43814SOL    HW233217   9.310   8.566   1.017
43815SOL     OW33218   7.659  12.891  14.335
43815SOL    HW133219   7.593  12.928  14.394
43815SOL    HW233220   7.638  12.929  14.249
43816SOL     OW33221   1.862   6.084  13.665
43816SOL    HW133222   1.895   6.149  13.603
43816SOL    HW233223   1.870   6.001  13.619
43817SOL     OW33224   4.609  11.995   4.834
43817SOL    HW133225   4.581  11.919   4.784
43817SOL    HW233226   4.619  12.064   4.769
43818SOL     OW33227   5.163  11.399   3.154
43818SOL    HW133228   5.139  11.405   3.247
43818SOL    HW233229   5.107  11.464   3.111
43819SOL     OW33230   8.776   5.331   5.250
43819SOL    HW133231   8.793   5.237   5.251
43819SOL    HW233232   8.836   5.366   5.184
43820SOL     OW33233  13.852   2.344   5.028
43820SOL    HW133234  13.760   2.326   5.051
43820SOL    HW233235  13.895   2.259   5.034
43821SOL     OW33236   6.044   6.329   2.851
43821SOL    HW133237   6.037   6.253   2.909
43821SOL    HW233238   6.120   6.310   2.796
43822SOL     OW33239   0.343   1.623  11.239
43822SOL    HW133240   0.317   1.544  11.191
43822SOL    HW233241   0.425   1.650  11.198
43823SOL     OW33242   6.057   8.220   8.480
43823SOL    HW133243   6.119   8.251   8.546
43823SOL    HW233244   6.109   8.212   8.400
43824SOL     OW33245  12.232   7.786   3.047
43824SOL    HW133246  12.144   7.824   3.052
43824SOL    HW233247  12.233   7.718   3.114
43825SOL     OW33248  12.644  13.366  11.872
43825SOL    HW133249  12.638  13.327  11.959
43825SOL    HW233250  12.559  13.348  11.831
43826SOL     OW33251  12.137   1.343   5.421
43826SOL    HW133252  12.049   1.369   5.393
43826SOL    HW233253  12.191   1.421   5.405
43827SOL     OW33254   6.651  10.914   3.110
43827SOL    HW133255   6.604  10.832   3.095
43827SOL    HW233256   6.612  10.976   3.047
43828SOL     OW33257  14.060   3.300   2.175
43828SOL    HW133258  14.044   3.274   2.084
43828SOL    HW233259  13.973   3.322   2.209
43829SOL     OW33260  10.870   8.154  13.253
43829SOL    HW133261  10.851   8.225  13.192
43829SOL    HW233262  10.891   8.079  13.198
43830SOL     OW33263  14.130   9.409   5.753
43830SOL    HW133264  14.173   9.491   5.778
43830SOL    HW233265  14.110   9.366   5.836
43831SOL     OW33266   0.168   4.154   8.993
43831SOL    HW133267   0.207   4.230   9.035
43831SOL    HW233268   0.224   4.080   9.020
43832SOL     OW33269   8.504   4.387  13.817
43832SOL    HW133270   8.496   4.391  13.912
43832SOL    HW233271   8.422   4.347  13.788
43833SOL     OW33272  12.033   6.402  10.497
43833SOL    HW133273  12.053   6.433  10.409
43833SOL    HW233274  12.007   6.311  10.486
43834SOL     OW33275  12.929  12.394   7.443
43834SOL    HW133276  12.882  12.346   7.375
43834SOL    HW233277  12.862  12.449   7.484
43835SOL     OW33278  12.929   8.688   1.283
43835SOL    HW133279  12.950   8.625   1.214
43835SOL    HW233280  12.833   8.691   1.284
43836SOL     OW33281   9.604   7.822   3.744
43836SOL    HW133282   9.515   7.806   3.713
43836SOL    HW233283   9.612   7.769   3.823
43837SOL     OW33284   7.684  10.648  10.946
43837SOL    HW133285   7.749  10.692  10.892
43837SOL    HW233286   7.709  10.556  10.945
43838SOL     OW33287  11.508  12.262   1.819
43838SOL    HW133288  11.422  12.226   1.840
43838SOL    HW233289  11.560  12.246   1.897
43839SOL     OW33290   4.128   5.654   7.773
43839SOL    HW133291   4.075   5.723   7.811
43839SOL    HW233292   4.144   5.682   7.683
43840SOL     OW33293   4.065  10.414   1.487
43840SOL    HW133294   4.098  10.486   1.433
43840SOL    HW233295   4.023  10.355   1.425
43841SOL     OW33296   3.932   1.630   8.088
43841SOL    HW133297   3.884   1.705   8.052
43841SOL    HW233298   3.877   1.554   8.070
43842SOL     OW33299   9.741   7.419   4.386
43842SOL    HW133300   9.657   7.374   4.375
43842SOL    HW233301   9.754   7.465   4.303
43843SOL     OW33302   3.895   5.866  12.287
43843SOL    HW133303   3.807   5.903  12.286
43843SOL    HW233304   3.938   5.908  12.361
43844SOL     OW33305  10.145  11.282   2.579
43844SOL    HW133306  10.218  11.266   2.519
43844SOL    HW233307  10.087  11.340   2.530
43845SOL     OW33308  13.771  11.120  12.934
43845SOL    HW133309  13.714  11.072  12.875
43845SOL    HW233310  13.745  11.212  12.924
43846SOL     OW33311   0.488   7.104   5.793
43846SOL    HW133312   0.406   7.057   5.806
43846SOL    HW233313   0.530   7.060   5.719
43847SOL     OW33314   2.500   8.904  14.548
43847SOL    HW133315   2.495   8.954  14.466
43847SOL    HW233316   2.589   8.869  14.549
43848SOL     OW33317   9.442  14.551  11.310
43848SOL    HW133318   9.513  14.516  11.365
43848SOL    HW233319   9.365  14.548  11.367
43849SOL     OW33320   5.080   8.278  10.609
43849SOL    HW133321   5.007   8.312  10.558
43849SOL    HW233322   5.044   8.261  10.696
43850SOL     OW33323   9.889   8.271   1.767
43850SOL    HW133324   9.825   8.204   1.743
43850SOL    HW233325   9.922   8.243   1.853
43851SOL     OW33326   5.613   5.046  13.571
43851SOL    HW133327   5.616   5.142  13.577
43851SOL    HW233328   5.674   5.026  13.499
43852SOL     OW33329   9.906  10.358   0.476
43852SOL    HW133330   9.932  10.370   0.568
43852SOL    HW233331   9.971  10.407   0.426
43853SOL     OW33332   0.839   6.478   7.040
43853SOL    HW133333   0.901   6.479   7.113
43853SOL    HW233334   0.874   6.411   6.980
43854SOL     OW33335   7.777   5.633   3.299
43854SOL    HW133336   7.741   5.551   3.267
43854SOL    HW233337   7.730   5.649   3.381
43855SOL     OW33338   0.985   0.273  12.489
43855SOL    HW133339   0.940   0.210  12.544
43855SOL    HW233340   0.916   0.331  12.457
43856SOL     OW33341  10.789   9.929   3.920
43856SOL    HW133342  10.873   9.966   3.892
43856SOL    HW233343  10.811   9.874   3.995
43857SOL     OW33344  10.946   3.507   0.003
43857SOL    HW133345  10.916   3.493  14.791
43857SOL    HW233346  11.009   3.436   0.019
43858SOL     OW33347  13.079  14.831   3.814
43858SOL    HW133348  13.064  14.785   3.896
43858SOL    HW233349  13.174  14.837   3.807
43859SOL     OW33350  13.181   5.687   7.889
43859SOL    HW133351  13.123   5.686   7.965
43859SOL    HW233352  13.153   5.612   7.836
43860SOL     OW33353   7.840  11.636   6.478
43860SOL    HW133354   7.935  11.626   6.474
43860SOL    HW233355   7.808  11.600   6.395
43861SOL     OW33356   1.148   0.710  11.277
43861SOL    HW133357   1.240   0.736  11.287
43861SOL    HW233358   1.112   0.717  11.365
43862SOL     OW33359   3.689   1.595  11.535
43862SOL    HW133360   3.772   1.630  11.565
43862SOL    HW233361   3.712   1.534  11.464
43863SOL     OW33362  12.269   0.301   4.959
43863SOL    HW133363  12.236   0.271   5.044
43863SOL    HW233364  12.221   0.250   4.895
43864SOL     OW33365  14.674  11.081   3.019
43864SOL    HW133366  14.614  11.007   3.009
43864SOL    HW233367  14.689  11.112   2.930
43865SOL     OW33368  13.618   7.753   4.987
43865SOL    HW133369  13.565   7.750   4.907
43865SOL    HW233370  13.704   7.783   4.958
43866SOL     OW33371   2.252   2.189  13.503
43866SOL    HW133372   2.232   2.153  13.417
43866SOL    HW233373   2.347   2.201  13.502
43867SOL     OW33374   3.902   0.513  14.129
43867SOL    HW133375   3.860   0.459  14.196
43867SOL    HW233376   3.957   0.452  14.079
43868SOL     OW33377  10.692   6.366   0.544
43868SOL    HW133378  10.626   6.333   0.605
43868SOL    HW233379  10.664   6.456   0.524
43869SOL     OW33380   2.649  12.382   2.644
43869SOL    HW133381   2.678  12.448   2.706
43869SOL    HW233382   2.712  12.310   2.654
43870SOL     OW33383   7.634   7.377  10.808
43870SOL    HW133384   7.679   7.391  10.725
43870SOL    HW233385   7.559   7.322  10.785
43871SOL     OW33386  11.899  12.465   6.385
43871SOL    HW133387  11.907  12.400   6.454
43871SOL    HW233388  11.900  12.549   6.430
43872SOL     OW33389   2.561  14.073  10.048
43872SOL    HW133390   2.608  13.994  10.022
43872SOL    HW233391   2.627  14.127  10.091
43873SOL     OW33392   6.245   5.779   7.958
43873SOL    HW133393   6.308   5.851   7.965
43873SOL    HW233394   6.223   5.757   8.049
43874SOL     OW33395  10.918   5.493  13.847
43874SOL    HW133396  10.931   5.535  13.932
43874SOL    HW233397  10.892   5.565  13.789
43875SOL     OW33398   7.773   6.174   6.544
43875SOL    HW133399   7.689   6.173   6.591
43875SOL    HW233400   7.774   6.093   6.495
43876SOL     OW33401   9.866   7.979  14.038
43876SOL    HW133402   9.892   8.069  14.016
43876SOL    HW233403   9.868   7.977  14.134
43877SOL     OW33404   8.285  11.295   7.855
43877SOL    HW133405   8.284  11.253   7.770
43877SOL    HW233406   8.372  11.336   7.862
43878SOL     OW33407   5.684   8.621   6.375
43878SOL    HW133408   5.618   8.581   6.320
43878SOL    HW233409   5.704   8.704   6.332
43879SOL     OW33410   5.085  10.525   0.011
43879SOL    HW133411   5.110  10.466  14.818
43879SOL    HW233412   5.123  10.485   0.089
43880SOL     OW33413   8.309   0.456  13.507
43880SOL    HW133414   8.316   0.432  13.599
43880SOL    HW233415   8.268   0.543  13.508
43881SOL     OW33416   8.390  13.289   4.811
43881SOL    HW133417   8.311  13.293   4.866
43881SOL    HW233418   8.460  13.323   4.867
43882SOL     OW33419   1.481  11.088   5.844
43882SOL    HW133420   1.554  11.097   5.782
43882SOL    HW233421   1.441  11.175   5.847
43883SOL     OW33422  10.711  14.037   9.070
43883SOL    HW133423  10.669  13.986   9.000
43883SOL    HW233424  10.789  13.987   9.093
43884SOL     OW33425   8.869   5.362   5.781
43884SOL    HW133426   8.790   5.318   5.750
43884SOL    HW233427   8.940   5.319   5.733
43885SOL     OW33428   0.558   0.811   3.925
43885SOL    HW133429   0.533   0.787   3.836
43885SOL    HW233430   0.479   0.852   3.962
43886SOL     OW33431  12.929   4.851   5.277
43886SOL    HW133432  12.904   4.786   5.211
43886SOL    HW233433  12.936   4.800   5.358
43887SOL     OW33434   9.786  11.557  11.347
43887SOL    HW133435   9.705  11.578  11.300
43887SOL    HW233436   9.758  11.512  11.426
43888SOL     OW33437   2.978   3.148   5.304
43888SOL    HW133438   2.968   3.139   5.399
43888SOL    HW233439   3.043   3.082   5.280
43889SOL     OW33440   6.696   6.910   8.973
43889SOL    HW133441   6.690   6.855   8.894
43889SOL    HW233442   6.605   6.930   8.996
43890SOL     OW33443  12.282   3.815   4.773
43890SOL    HW133444  12.271   3.905   4.742
43890SOL    HW233445  12.281   3.822   4.868
43891SOL     OW33446   8.506   5.257   3.685
43891SOL    HW133447   8.520   5.310   3.606
43891SOL    HW233448   8.413   5.267   3.704
43892SOL     OW33449  14.470   4.747  10.525
43892SOL    HW133450  14.526   4.786  10.457
43892SOL    HW233451  14.529   4.689  10.573
43893SOL     OW33452   8.225  11.947  11.110
43893SOL    HW133453   8.309  11.982  11.081
43893SOL    HW233454   8.160  12.008  11.076
43894SOL     OW33455  11.736   5.372   3.987
43894SOL    HW133456  11.712   5.341   4.075
43894SOL    HW233457  11.807   5.434   4.002
43895SOL     OW33458  13.284   6.285   8.195
43895SOL    HW133459  13.369   6.243   8.208
43895SOL    HW233460  13.286   6.314   8.104
43896SOL     OW33461   1.640   4.049   5.922
43896SOL    HW133462   1.610   3.962   5.896
43896SOL    HW233463   1.640   4.099   5.840
43897SOL     OW33464   0.675   9.938  10.549
43897SOL    HW133465   0.758   9.984  10.564
43897SOL    HW233466   0.675   9.867  10.614
43898SOL     OW33467   4.659  11.369   8.306
43898SOL    HW133468   4.751  11.364   8.278
43898SOL    HW233469   4.663  11.378   8.401
43899SOL     OW33470   0.513   2.368  11.863
43899SOL    HW133471   0.464   2.341  11.785
43899SOL    HW233472   0.544   2.286  11.902
43900SOL     OW33473  12.425  14.514   3.975
43900SOL    HW133474  12.397  14.572   4.046
43900SOL    HW233475  12.343  14.480   3.939
43901SOL     OW33476  12.378   1.776   5.055
43901SOL    HW133477  12.390   1.820   5.139
43901SOL    HW233478  12.463   1.736   5.036
43902SOL     OW33479  10.415  13.456   6.449
43902SOL    HW133480  10.418  13.422   6.360
43902SOL    HW233481  10.500  13.497   6.462
43903SOL     OW33482  13.526   4.928   7.723
43903SOL    HW133483  13.615   4.895   7.714
43903SOL    HW233484  13.538   5.018   7.753
43904SOL     OW33485  13.703  12.360   6.061
43904SOL    HW133486  13.780  12.304   6.046
43904SOL    HW233487  13.716  12.394   6.150
43905SOL     OW33488   1.079   5.997   4.293
43905SOL    HW133489   1.123   6.034   4.216
43905SOL    HW233490   1.150   5.972   4.352
43906SOL     OW33491   7.285   1.788  11.702
43906SOL    HW133492   7.368   1.817  11.664
43906SOL    HW233493   7.229   1.771  11.626
43907SOL     OW33494   5.232   8.720   9.784
43907SOL    HW133495   5.150   8.733   9.736
43907SOL    HW233496   5.269   8.808   9.795
43908SOL     OW33497   2.929  11.994  14.164
43908SOL    HW133498   2.956  12.086  14.167
43908SOL    HW233499   2.999  11.950  14.117
43909SOL     OW33500   7.043   9.205   0.460
43909SOL    HW133501   7.027   9.299   0.460
43909SOL    HW233502   6.997   9.173   0.538
43910SOL     OW33503   0.687   7.060  11.580
43910SOL    HW133504   0.756   7.126  11.584
43910SOL    HW233505   0.734   6.978  11.565
43911SOL     OW33506   9.079   1.287   4.240
43911SOL    HW133507   9.133   1.353   4.198
43911SOL    HW233508   9.138   1.243   4.301
43912SOL     OW33509   4.361  14.283   3.501
43912SOL    HW133510   4.269  14.293   3.524
43912SOL    HW233511   4.388  14.368   3.468
43913SOL     OW33512   5.406  14.483   9.469
43913SOL    HW133513   5.344  14.420   9.505
43913SOL    HW233514   5.368  14.510   9.386
43914SOL     OW33515   7.614   7.012  10.085
43914SOL    HW133516   7.608   7.003   9.990
43914SOL    HW233517   7.639   6.924  10.115
43915SOL     OW33518   8.447   0.451   0.530
43915SOL    HW133519   8.438   0.422   0.440
43915SOL    HW233520   8.528   0.410   0.561
43916SOL     OW33521   9.831   7.573   0.539
43916SOL    HW133522   9.778   7.504   0.579
43916SOL    HW233523   9.772   7.615   0.476
43917SOL     OW33524  14.238   2.347   3.885
43917SOL    HW133525  14.173   2.304   3.829
43917SOL    HW233526  14.309   2.284   3.891
43918SOL     OW33527   9.971   7.496  10.350
43918SOL    HW133528  10.065   7.480  10.355
43918SOL    HW233529   9.961   7.590  10.362
43919SOL     OW33530   6.264   2.551   1.618
43919SOL    HW133531   6.277   2.645   1.624
43919SOL    HW233532   6.181   2.536   1.664
43920SOL     OW33533   2.702   0.691   0.875
43920SOL    HW133534   2.693   0.655   0.787
43920SOL    HW233535   2.630   0.651   0.924
43921SOL     OW33536  10.650   1.266   2.977
43921SOL    HW133537  10.616   1.212   2.905
43921SOL    HW233538  10.592   1.248   3.050
43922SOL     OW33539   8.760   0.420  10.692
43922SOL    HW133540   8.778   0.513  10.708
43922SOL    HW233541   8.829   0.392  10.632
43923SOL     OW33542   0.156  10.074   6.574
43923SOL    HW133543   0.089  10.041   6.633
43923SOL    HW233544   0.111  10.087   6.491
43924SOL     OW33545  14.751   5.801   3.537
43924SOL    HW133546  14.774   5.773   3.626
43924SOL    HW233547  14.682   5.865   3.549
43925SOL     OW33548  13.670   5.375   7.344
43925SOL    HW133549  13.711   5.342   7.264
43925SOL    HW233550  13.647   5.296   7.393
43926SOL     OW33551   8.028   5.715  14.281
43926SOL    HW133552   7.997   5.785  14.224
43926SOL    HW233553   8.094   5.756  14.337
43927SOL     OW33554  10.106  13.947   6.404
43927SOL    HW133555  10.044  13.888   6.445
43927SOL    HW233556  10.115  14.020   6.465
43928SOL     OW33557  11.639  12.238   8.218
43928SOL    HW133558  11.586  12.273   8.290
43928SOL    HW233559  11.578  12.229   8.145
43929SOL     OW33560  13.498   9.378  13.239
43929SOL    HW133561  13.455   9.461  13.223
43929SOL    HW233562  13.528   9.349  13.153
43930SOL     OW33563   3.297  11.438  12.553
43930SOL    HW133564   3.259  11.360  12.594
43930SOL    HW233565   3.226  11.503  12.556
43931SOL     OW33566  12.350  11.112   3.961
43931SOL    HW133567  12.320  11.106   4.052
43931SOL    HW233568  12.280  11.072   3.909
43932SOL     OW33569   9.909  13.025  12.712
43932SOL    HW133570   9.910  13.120  12.723
43932SOL    HW233571   9.999  12.998  12.727
43933SOL     OW33572   3.988   6.197   2.494
43933SOL    HW133573   4.040   6.118   2.478
43933SOL    HW233574   3.898   6.171   2.477
43934SOL     OW33575  11.824  14.555  11.660
43934SOL    HW133576  11.853  14.538  11.750
43934SOL    HW233577  11.808  14.468  11.624
43935SOL     OW33578   5.510   6.097   6.391
43935SOL    HW133579   5.539   6.063   6.475
43935SOL    HW233580   5.414   6.093   6.395
43936SOL     OW33581   2.375   6.874   5.483
43936SOL    HW133582   2.355   6.950   5.428
43936SOL    HW233583   2.290   6.846   5.516
43937SOL     OW33584   4.704   1.278   0.925
43937SOL    HW133585   4.638   1.345   0.906
43937SOL    HW233586   4.655   1.198   0.938
43938SOL     OW33587   4.784  13.672  11.048
43938SOL    HW133588   4.742  13.612  11.110
43938SOL    HW233589   4.818  13.615  10.979
43939SOL     OW33590   4.033   7.719   5.848
43939SOL    HW133591   3.956   7.666   5.871
43939SOL    HW233592   4.002   7.776   5.778
43940SOL     OW33593  12.426   1.447   1.063
43940SOL    HW133594  12.366   1.457   1.137
43940SOL    HW233595  12.422   1.531   1.017
43941SOL     OW33596  10.989  13.399   0.977
43941SOL    HW133597  10.958  13.371   0.891
43941SOL    HW233598  10.910  13.415   1.027
43942SOL     OW33599  10.369   0.529   6.419
43942SOL    HW133600  10.419   0.449   6.434
43942SOL    HW233601  10.344   0.559   6.507
43943SOL     OW33602  11.201   2.145   5.551
43943SOL    HW133603  11.268   2.116   5.489
43943SOL    HW233604  11.123   2.095   5.527
43944SOL     OW33605   6.051   1.704  11.540
43944SOL    HW133606   6.070   1.699  11.633
43944SOL    HW233607   5.959   1.676  11.533
43945SOL     OW33608   1.502  12.098   9.848
43945SOL    HW133609   1.442  12.167   9.818
43945SOL    HW233610   1.445  12.024   9.868
43946SOL     OW33611   2.215  13.630  13.373
43946SOL    HW133612   2.160  13.629  13.295
43946SOL    HW233613   2.170  13.572  13.435
43947SOL     OW33614  10.471  13.874  12.887
43947SOL    HW133615  10.469  13.825  12.805
43947SOL    HW233616  10.524  13.819  12.946
43948SOL     OW33617  12.655  13.385   4.959
43948SOL    HW133618  12.660  13.295   4.990
43948SOL    HW233619  12.706  13.435   5.022
43949SOL     OW33620   6.722  10.542   6.820
43949SOL    HW133621   6.813  10.573   6.823
43949SOL    HW233622   6.723  10.460   6.870
43950SOL     OW33623   2.279   4.242   7.234
43950SOL    HW133624   2.337   4.254   7.309
43950SOL    HW233625   2.319   4.170   7.185
43951SOL     OW33626   7.828   1.440   1.811
43951SOL    HW133627   7.795   1.511   1.866
43951SOL    HW233628   7.890   1.482   1.751
43952SOL     OW33629  12.313  14.322  14.404
43952SOL    HW133630  12.342  14.413  14.414
43952SOL    HW233631  12.220  14.328  14.383
43953SOL     OW33632   3.695   2.573   2.410
43953SOL    HW133633   3.717   2.496   2.462
43953SOL    HW233634   3.600   2.577   2.412
43954SOL     OW33635  11.570   0.410   5.690
43954SOL    HW133636  11.519   0.487   5.665
43954SOL    HW233637  11.505   0.346   5.716
43955SOL     OW33638   3.922  11.587  11.471
43955SOL    HW133639   3.835  11.612  11.503
43955SOL    HW233640   3.952  11.520  11.532
43956SOL     OW33641  12.156   9.483   6.786
43956SOL    HW133642  12.175   9.531   6.867
43956SOL    HW233643  12.063   9.499   6.771
43957SOL     OW33644   8.752  11.756   1.869
43957SOL    HW133645   8.820  11.779   1.932
43957SOL    HW233646   8.777  11.670   1.837
43958SOL     OW33647  11.139   0.068   2.597
43958SOL    HW133648  11.161  14.853   2.608
43958SOL    HW233649  11.061   0.067   2.542
43959SOL     OW33650   6.589   9.538   4.252
43959SOL    HW133651   6.657   9.501   4.307
43959SOL    HW233652   6.573   9.625   4.288
43960SOL     OW33653   3.654   4.418   3.732
43960SOL    HW133654   3.561   4.420   3.753
43960SOL    HW233655   3.660   4.450   3.642
43961SOL     OW33656   7.058   0.611   2.549
43961SOL    HW133657   7.010   0.531   2.573
43961SOL    HW233658   7.032   0.675   2.615
43962SOL     OW33659   3.528   0.177   5.524
43962SOL    HW133660   3.499   0.184   5.433
43962SOL    HW233661   3.460   0.222   5.574
43963SOL     OW33662   7.170   7.397   5.623
43963SOL    HW133663   7.186   7.469   5.683
43963SOL    HW233664   7.200   7.429   5.538
43964SOL     OW33665  11.102   2.903  11.637
43964SOL    HW133666  11.135   2.909  11.548
43964SOL    HW233667  11.031   2.967  11.641
43965SOL     OW33668  11.389   1.820   7.707
43965SOL    HW133669  11.440   1.780   7.778
43965SOL    HW233670  11.317   1.759   7.692
43966SOL     OW33671   7.476   4.285  10.875
43966SOL    HW133672   7.457   4.203  10.828
43966SOL    HW233673   7.492   4.349  10.805
43967SOL     OW33674   8.717  14.389   9.791
43967SOL    HW133675   8.792  14.412   9.846
43967SOL    HW233676   8.757  14.352   9.712
43968SOL     OW33677   6.323  14.805   1.804
43968SOL    HW133678   6.248  14.786   1.861
43968SOL    HW233679   6.363   0.005   1.842
43969SOL     OW33680  13.664  12.181  13.326
43969SOL    HW133681  13.673  12.215  13.237
43969SOL    HW233682  13.629  12.093  13.314
43970SOL     OW33683  11.511  12.117  13.873
43970SOL    HW133684  11.450  12.052  13.908
43970SOL    HW233685  11.597  12.089  13.905
43971SOL     OW33686  13.551   0.868  12.575
43971SOL    HW133687  13.596   0.938  12.529
43971SOL    HW233688  13.460   0.897  12.581
43972SOL     OW33689  13.072   0.379  14.215
43972SOL    HW133690  13.154   0.338  14.239
43972SOL    HW233691  13.089   0.418  14.129
43973SOL     OW33692   1.827  11.579   5.276
43973SOL    HW133693   1.739  11.552   5.304
43973SOL    HW233694   1.835  11.670   5.302
43974SOL     OW33695   3.650  13.195   0.765
43974SOL    HW133696   3.712  13.124   0.786
43974SOL    HW233697   3.695  13.247   0.698
43975SOL     OW33698  11.238   4.328   6.029
43975SOL    HW133699  11.216   4.403   6.083
43975SOL    HW233700  11.322   4.351   5.988
43976SOL     OW33701   3.899   8.585   1.656
43976SOL    HW133702   3.967   8.628   1.604
43976SOL    HW233703   3.940   8.506   1.689
43977SOL     OW33704   5.979  12.571  12.673
43977SOL    HW133705   6.005  12.484  12.705
43977SOL    HW233706   5.889  12.559  12.643
43978SOL     OW33707   8.221  10.270   0.475
43978SOL    HW133708   8.284  10.205   0.444
43978SOL    HW233709   8.250  10.290   0.564
43979SOL     OW33710  14.661  10.610  12.222
43979SOL    HW133711  14.750  10.632  12.249
43979SOL    HW233712  14.645  10.666  12.146
43980SOL     OW33713   0.898  11.429   0.385
43980SOL    HW133714   0.849  11.368   0.330
43980SOL    HW233715   0.981  11.385   0.401
43981SOL     OW33716   9.367   5.410   3.539
43981SOL    HW133717   9.344   5.392   3.448
43981SOL    HW233718   9.384   5.324   3.577
43982SOL     OW33719  12.184   9.116   7.752
43982SOL    HW133720  12.114   9.146   7.694
43982SOL    HW233721  12.253   9.182   7.742
43983SOL     OW33722   2.371   9.702   7.111
43983SOL    HW133723   2.405   9.653   7.035
43983SOL    HW233724   2.323   9.636   7.162
43984SOL     OW33725   2.265   6.992   2.971
43984SOL    HW133726   2.276   7.013   3.064
43984SOL    HW233727   2.181   7.032   2.948
43985SOL     OW33728   6.802   9.254   7.535
43985SOL    HW133729   6.771   9.210   7.456
43985SOL    HW233730   6.894   9.273   7.518
43986SOL     OW33731   7.484   5.823   3.513
43986SOL    HW133732   7.398   5.864   3.499
43986SOL    HW233733   7.505   5.842   3.604
43987SOL     OW33734   5.659   1.435   4.567
43987SOL    HW133735   5.640   1.434   4.473
43987SOL    HW233736   5.653   1.344   4.594
43988SOL     OW33737  13.489  10.195   9.137
43988SOL    HW133738  13.416  10.204   9.197
43988SOL    HW233739  13.448  10.180   9.051
43989SOL     OW33740   1.061  10.488   1.929
43989SOL    HW133741   1.118  10.421   1.892
43989SOL    HW233742   1.006  10.441   1.991
43990SOL     OW33743   9.524  10.396   6.859
43990SOL    HW133744   9.433  10.422   6.846
43990SOL    HW233745   9.537  10.321   6.800
43991SOL     OW33746   9.689   1.065  14.195
43991SOL    HW133747   9.659   1.010  14.122
43991SOL    HW233748   9.785   1.069  14.184
43992SOL     OW33749  13.618   5.674   4.255
43992SOL    HW133750  13.546   5.695   4.314
43992SOL    HW233751  13.690   5.730   4.285
43993SOL     OW33752   6.481   7.469  11.419
43993SOL    HW133753   6.396   7.449  11.457
43993SOL    HW233754   6.466   7.549  11.369
43994SOL     OW33755  13.545   1.252  13.112
43994SOL    HW133756  13.542   1.239  13.017
43994SOL    HW233757  13.547   1.347  13.123
43995SOL     OW33758   2.278  12.167   7.354
43995SOL    HW133759   2.306  12.125   7.435
43995SOL    HW233760   2.334  12.244   7.345
43996SOL     OW33761  13.325  14.847   2.289
43996SOL    HW133762  13.387  14.823   2.220
43996SOL    HW233763  13.380  14.870   2.364
43997SOL     OW33764   7.593  12.661   8.890
43997SOL    HW133765   7.497  12.669   8.886
43997SOL    HW233766   7.612  12.662   8.984
43998SOL     OW33767   7.025   5.682   4.423
43998SOL    HW133768   7.022   5.622   4.349
43998SOL    HW233769   7.109   5.727   4.415
43999SOL     OW33770  13.752  14.066   5.562
43999SOL    HW133771  13.841  14.029   5.561
43999SOL    HW233772  13.695  13.991   5.541
44000SOL     OW33773   5.735   8.332   6.196
44000SOL    HW133774   5.657   8.321   6.142
44000SOL    HW233775   5.774   8.245   6.200
44001SOL     OW33776   7.788  10.841   2.831
44001SOL    HW133777   7.732  10.780   2.785
44001SOL    HW233778   7.748  10.927   2.817
44002SOL     OW33779   0.792   2.814  14.652
44002SOL    HW133780   0.871   2.761  14.660
44002SOL    HW233781   0.817   2.889  14.599
44003SOL     OW33782   5.959   3.260  12.439
44003SOL    HW133783   5.959   3.307  12.356
44003SOL    HW233784   6.049   3.228  12.449
44004SOL     OW33785  10.111   5.101   2.726
44004SOL    HW133786  10.187   5.045   2.713
44004SOL    HW233787  10.108   5.116   2.821
44005SOL     OW33788   6.955   1.598  11.277
44005SOL    HW133789   6.957   1.591  11.373
44005SOL    HW233790   6.923   1.513  11.247
44006SOL     OW33791   4.541  11.230  14.755
44006SOL    HW133792   4.536  11.325  14.762
44006SOL    HW233793   4.549  11.199  14.845
44007SOL     OW33794   7.126   0.381  13.456
44007SOL    HW133795   7.213   0.363  13.490
44007SOL    HW233796   7.082   0.429  13.526
44008SOL     OW33797   5.509  12.026   7.926
44008SOL    HW133798   5.473  11.941   7.900
44008SOL    HW233799   5.594  12.004   7.964
44009SOL     OW33800  11.098  14.722   7.568
44009SOL    HW133801  11.078  14.785   7.499
44009SOL    HW233802  11.193  14.712   7.564
44010SOL     OW33803  13.350   4.420  13.524
44010SOL    HW133804  13.296   4.420  13.604
44010SOL    HW233805  13.386   4.508  13.520
44011SOL     OW33806   4.725   1.781  14.525
44011SOL    HW133807   4.816   1.784  14.555
44011SOL    HW233808   4.723   1.838  14.448
44012SOL     OW33809   9.462   6.502  10.658
44012SOL    HW133810   9.381   6.553  10.650
44012SOL    HW233811   9.433   6.411  10.661
44013SOL     OW33812  12.779   6.386   5.169
44013SOL    HW133813  12.747   6.474   5.148
44013SOL    HW233814  12.821   6.396   5.255
44014SOL     OW33815  12.080   5.029   3.244
44014SOL    HW133816  12.099   5.032   3.150
44014SOL    HW233817  12.101   4.940   3.271
44015SOL     OW33818   4.672  12.953   8.477
44015SOL    HW133819   4.576  12.948   8.474
44015SOL    HW233820   4.699  12.949   8.385
44016SOL     OW33821  12.916   6.180   5.648
44016SOL    HW133822  12.970   6.136   5.713
44016SOL    HW233823  12.947   6.271   5.649
44017SOL     OW33824  14.415  13.099  14.056
44017SOL    HW133825  14.477  13.121  14.126
44017SOL    HW233826  14.401  13.182  14.010
44018SOL     OW33827   1.521  11.171   4.271
44018SOL    HW133828   1.616  11.177   4.275
44018SOL    HW233829   1.499  11.187   4.180
44019SOL     OW33830   9.614   1.012   0.535
44019SOL    HW133831   9.613   0.916   0.530
44019SOL    HW233832   9.545   1.040   0.475
44020SOL     OW33833  13.651   8.777   9.218
44020SOL    HW133834  13.555   8.777   9.212
44020SOL    HW233835  13.680   8.822   9.139
44021SOL     OW33836   6.728   6.415  11.356
44021SOL    HW133837   6.742   6.408  11.451
44021SOL    HW233838   6.649   6.468  11.348
44022SOL     OW33839   2.855  14.575  10.572
44022SOL    HW133840   2.836  14.513  10.501
44022SOL    HW233841   2.900  14.648  10.529
44023SOL     OW33842  12.576   8.662  13.037
44023SOL    HW133843  12.606   8.615  13.116
44023SOL    HW233844  12.482   8.647  13.034
44024SOL     OW33845   2.271   2.667   8.392
44024SOL    HW133846   2.222   2.737   8.349
44024SOL    HW233847   2.330   2.712   8.452
44025SOL     OW33848   2.383  12.602   5.140
44025SOL    HW133849   2.439  12.655   5.083
44025SOL    HW233850   2.395  12.512   5.107
44026SOL     OW33851   0.333  12.592  10.471
44026SOL    HW133852   0.405  12.551  10.519
44026SOL    HW233853   0.338  12.684  10.496
44027SOL     OW33854   5.242   2.388   5.956
44027SOL    HW133855   5.213   2.349   6.039
44027SOL    HW233856   5.269   2.477   5.979
44028SOL     OW33857   7.924  10.819  10.845
44028SOL    HW133858   7.990  10.829  10.914
44028SOL    HW233859   7.942  10.733  10.807
44029SOL     OW33860   0.005   1.339  14.451
44029SOL    HW133861   0.082   1.293  14.484
44029SOL    HW233862  14.867   1.300  14.365
44030SOL     OW33863   1.774  14.082  11.147
44030SOL    HW133864   1.843  14.122  11.093
44030SOL    HW233865   1.754  14.000  11.102
44031SOL     OW33866   2.262   8.358   1.323
44031SOL    HW133867   2.186   8.306   1.298
44031SOL    HW233868   2.335   8.322   1.273
44032SOL     OW33869   5.671   9.298   8.743
44032SOL    HW133870   5.629   9.296   8.657
44032SOL    HW233871   5.601   9.321   8.804
44033SOL     OW33872   1.986   5.017   9.171
44033SOL    HW133873   1.964   5.110   9.174
44033SOL    HW233874   2.015   5.003   9.081
44034SOL     OW33875   9.158  11.131  11.024
44034SOL    HW133876   9.190  11.075  11.094
44034SOL    HW233877   9.091  11.080  10.979
44035SOL     OW33878   9.338   6.572  12.811
44035SOL    HW133879   9.319   6.483  12.780
44035SOL    HW233880   9.428   6.566  12.843
44036SOL     OW33881   7.698  10.153   7.945
44036SOL    HW133882   7.740  10.160   7.860
44036SOL    HW233883   7.762  10.107   8.000
44037SOL     OW33884   8.867   2.292   7.528
44037SOL    HW133885   8.818   2.373   7.540
44037SOL    HW233886   8.835   2.256   7.445
44038SOL     OW33887  13.692   9.363   0.389
44038SOL    HW133888  13.650   9.449   0.387
44038SOL    HW233889  13.620   9.301   0.387
44039SOL     OW33890  14.563   3.109  10.909
44039SOL    HW133891  14.584   3.101  11.002
44039SOL    HW233892  14.472   3.081  10.901
44040SOL     OW33893  10.485   6.782   7.744
44040SOL    HW133894  10.484   6.841   7.819
44040SOL    HW233895  10.414   6.812   7.688
44041SOL     OW33896   1.314   2.125   9.169
44041SOL    HW133897   1.240   2.135   9.109
44041SOL    HW233898   1.382   2.183   9.136
44042SOL     OW33899  10.656   5.129   5.674
44042SOL    HW133900  10.564   5.123   5.698
44042SOL    HW233901  10.671   5.222   5.657
44043SOL     OW33902   5.924   6.882  12.051
44043SOL    HW133903   5.964   6.848  12.131
44043SOL    HW233904   5.832   6.893  12.073
44044SOL     OW33905   9.287   7.554  11.958
44044SOL    HW133906   9.275   7.526  12.049
44044SOL    HW233907   9.291   7.649  11.962
44045SOL     OW33908   6.270  10.214   5.838
44045SOL    HW133909   6.227  10.180   5.915
44045SOL    HW233910   6.354  10.249   5.870
44046SOL     OW33911  13.786   3.792   7.657
44046SOL    HW133912  13.739   3.717   7.694
44046SOL    HW233913  13.727   3.867   7.672
44047SOL     OW33914   7.421  11.693   9.364
44047SOL    HW133915   7.464  11.717   9.447
44047SOL    HW233916   7.380  11.609   9.382
44048SOL     OW33917   1.046  13.705   4.402
44048SOL    HW133918   1.010  13.784   4.443
44048SOL    HW233919   1.052  13.728   4.309
44049SOL     OW33920  14.381   7.802   9.805
44049SOL    HW133921  14.427   7.850   9.873
44049SOL    HW233922  14.447   7.746   9.765
44050SOL     OW33923   0.410   5.167   4.600
44050SOL    HW133924   0.395   5.242   4.542
44050SOL    HW233925   0.385   5.091   4.547
44051SOL     OW33926  12.545   2.021   9.928
44051SOL    HW133927  12.602   2.017   9.851
44051SOL    HW233928  12.458   2.002   9.894
44052SOL     OW33929   2.938   0.274   0.370
44052SOL    HW133930   2.882   0.314   0.304
44052SOL    HW233931   3.024   0.312   0.354
44053SOL     OW33932   5.119   1.082  11.202
44053SOL    HW133933   5.170   1.138  11.143
44053SOL    HW233934   5.028   1.103  11.183
44054SOL     OW33935  10.294  14.273   3.912
44054SOL    HW133936  10.223  14.210   3.914
44054SOL    HW233937  10.273  14.337   3.980
44055SOL     OW33938   8.331   6.139   1.075
44055SOL    HW133939   8.240   6.126   1.101
44055SOL    HW233940   8.334   6.229   1.042
44056SOL     OW33941  12.163   5.611   3.530
44056SOL    HW133942  12.169   5.696   3.573
44056SOL    HW233943  12.170   5.548   3.602
44057SOL     OW33944   0.619   9.165  10.561
44057SOL    HW133945   0.674   9.222  10.506
44057SOL    HW233946   0.529   9.191  10.539
44058SOL     OW33947  14.840   2.467  12.332
44058SOL    HW133948  14.749   2.446  12.311
44058SOL    HW233949   0.013   2.406  12.278
44059SOL     OW33950   9.471   2.678   2.169
44059SOL    HW133951   9.493   2.734   2.094
44059SOL    HW233952   9.408   2.615   2.134
44060SOL     OW33953  13.982   3.476  12.459
44060SOL    HW133954  13.899   3.510  12.493
44060SOL    HW233955  14.011   3.414  12.525
44061SOL     OW33956  10.201   3.931   2.174
44061SOL    HW133957  10.265   3.961   2.238
44061SOL    HW233958  10.228   3.842   2.153
44062SOL     OW33959   6.684   3.091  11.238
44062SOL    HW133960   6.731   3.017  11.277
44062SOL    HW233961   6.753   3.143  11.196
44063SOL     OW33962   7.782   8.691   7.824
44063SOL    HW133963   7.805   8.598   7.818
44063SOL    HW233964   7.847   8.735   7.769
44064SOL     OW33965   2.144   5.608   8.103
44064SOL    HW133966   2.144   5.517   8.133
44064SOL    HW233967   2.237   5.631   8.097
44065SOL     OW33968   9.869  11.878   2.047
44065SOL    HW133969   9.930  11.807   2.070
44065SOL    HW233970   9.848  11.919   2.131
44066SOL     OW33971   7.677   0.842   3.904
44066SOL    HW133972   7.594   0.891   3.905
44066SOL    HW233973   7.694   0.826   3.811
44067SOL     OW33974  12.723  12.562   7.504
44067SOL    HW133975  12.727  12.653   7.475
44067SOL    HW233976  12.629  12.544   7.514
44068SOL     OW33977   4.164   4.780  10.831
44068SOL    HW133978   4.253   4.815  10.830
44068SOL    HW233979   4.156   4.738  10.917
44069SOL     OW33980  13.480  11.753   6.613
44069SOL    HW133981  13.498  11.772   6.706
44069SOL    HW233982  13.562  11.719   6.579
44070SOL     OW33983   6.462  12.772   5.637
44070SOL    HW133984   6.461  12.849   5.581
44070SOL    HW233985   6.401  12.711   5.596
44071SOL     OW33986   0.566   5.516   1.242
44071SOL    HW133987   0.556   5.538   1.334
44071SOL    HW233988   0.476   5.509   1.209
44072SOL     OW33989   2.105   4.946   4.638
44072SOL    HW133990   2.085   4.914   4.726
44072SOL    HW233991   2.198   4.926   4.626
44073SOL     OW33992   2.874  12.532   5.290
44073SOL    HW133993   2.908  12.612   5.331
44073SOL    HW233994   2.864  12.556   5.197
44074SOL     OW33995  10.556   5.590  14.010
44074SOL    HW133996  10.580   5.538  14.087
44074SOL    HW233997  10.507   5.530  13.955
44075SOL     OW33998   1.160   3.676   7.109
44075SOL    HW133999   1.139   3.583   7.102
44075SOL    HW234000   1.219   3.681   7.185
44076SOL     OW34001  13.042  10.475   6.506
44076SOL    HW134002  13.003  10.560   6.526
44076SOL    HW234003  12.968  10.421   6.478
44077SOL     OW34004   1.654  11.394   8.723
44077SOL    HW134005   1.735  11.371   8.677
44077SOL    HW234006   1.604  11.444   8.658
44078SOL     OW34007   4.627   2.423  13.396
44078SOL    HW134008   4.698   2.389  13.451
44078SOL    HW234009   4.571   2.347  13.380
44079SOL     OW34010   2.052   8.394   2.234
44079SOL    HW134011   2.068   8.317   2.180
44079SOL    HW234012   1.967   8.427   2.204
44080SOL     OW34013   3.217  14.295  12.758
44080SOL    HW134014   3.212  14.246  12.840
44080SOL    HW234015   3.126  14.320  12.740
44081SOL     OW34016   5.511   7.171   6.016
44081SOL    HW134017   5.566   7.247   6.037
44081SOL    HW234018   5.547   7.137   5.934
44082SOL     OW34019   2.538  14.029   9.108
44082SOL    HW134020   2.576  14.042   9.021
44082SOL    HW234021   2.516  14.117   9.138
44083SOL     OW34022  13.076   2.366  11.652
44083SOL    HW134023  13.006   2.407  11.602
44083SOL    HW234024  13.039   2.283  11.682
44084SOL     OW34025   7.465   1.031  14.668
44084SOL    HW134026   7.464   1.076  14.753
44084SOL    HW234027   7.391   0.970  14.671
44085SOL     OW34028   7.559  14.644   7.172
44085SOL    HW134029   7.560  14.737   7.190
44085SOL    HW234030   7.578  14.602   7.256
44086SOL     OW34031   8.376   8.056   9.465
44086SOL    HW134032   8.325   8.054   9.546
44086SOL    HW234033   8.435   7.981   9.471
44087SOL     OW34034   9.226  11.019   6.880
44087SOL    HW134035   9.211  10.925   6.892
44087SOL    HW234036   9.183  11.040   6.797
44088SOL     OW34037   3.322   4.361   1.797
44088SOL    HW134038   3.347   4.409   1.719
44088SOL    HW234039   3.404   4.328   1.833
44089SOL     OW34040   8.422   3.272  10.503
44089SOL    HW134041   8.474   3.342  10.543
44089SOL    HW234042   8.435   3.197  10.560
44090SOL     OW34043   3.875  11.102   4.521
44090SOL    HW134044   3.804  11.166   4.510
44090SOL    HW234045   3.893  11.071   4.432
44091SOL     OW34046  10.625   1.990  12.875
44091SOL    HW134047  10.531   2.006  12.864
44091SOL    HW234048  10.666   2.075  12.858
44092SOL     OW34049  14.233   2.653  14.847
44092SOL    HW134050  14.308   2.597  14.824
44092SOL    HW234051  14.273   2.732   0.005
44093SOL     OW34052   9.054  11.379  13.466
44093SOL    HW134053   9.115  11.344  13.531
44093SOL    HW234054   9.011  11.302  13.428
44094SOL     OW34055  13.914   8.062   0.783
44094SOL    HW134056  13.967   8.059   0.863
44094SOL    HW234057  13.894   8.155   0.772
44095SOL     OW34058   9.834   7.794   6.139
44095SOL    HW134059   9.856   7.713   6.184
44095SOL    HW234060   9.919   7.833   6.116
44096SOL     OW34061  11.114   1.046  10.522
44096SOL    HW134062  11.086   1.102  10.595
44096SOL    HW234063  11.045   0.980  10.514
44097SOL     OW34064   3.458   7.435   7.956
44097SOL    HW134065   3.499   7.487   7.887
44097SOL    HW234066   3.364   7.436   7.934
44098SOL     OW34067   7.761   5.507   0.552
44098SOL    HW134068   7.782   5.589   0.596
44098SOL    HW234069   7.676   5.481   0.588
44099SOL     OW34070   8.614   2.537  13.110
44099SOL    HW134071   8.599   2.460  13.165
44099SOL    HW234072   8.667   2.596  13.164
44100SOL     OW34073  13.944   9.160   0.544
44100SOL    HW134074  13.924   9.066   0.547
44100SOL    HW234075  13.869   9.201   0.586
44101SOL     OW34076   5.532  11.963   2.385
44101SOL    HW134077   5.516  11.895   2.451
44101SOL    HW234078   5.449  12.011   2.381
44102SOL     OW34079   5.968   9.848   5.114
44102SOL    HW134080   5.962   9.785   5.186
44102SOL    HW234081   6.059   9.842   5.085
44103SOL     OW34082   5.532   0.532   1.921
44103SOL    HW134083   5.582   0.613   1.907
44103SOL    HW234084   5.537   0.486   1.837
44104SOL     OW34085   6.464   6.560   5.195
44104SOL    HW134086   6.445   6.468   5.180
44104SOL    HW234087   6.513   6.588   5.118
44105SOL     OW34088   0.156   9.705  12.198
44105SOL    HW134089   0.220   9.777  12.204
44105SOL    HW234090   0.082   9.743  12.152
44106SOL     OW34091   7.938   1.150   8.964
44106SOL    HW134092   7.956   1.232   8.918
44106SOL    HW234093   7.908   1.091   8.896
44107SOL     OW34094   5.099   0.476  14.206
44107SOL    HW134095   5.081   0.570  14.209
44107SOL    HW234096   5.195   0.470  14.209
44108SOL     OW34097   7.327  11.576   8.681
44108SOL    HW134098   7.345  11.643   8.615
44108SOL    HW234099   7.395  11.588   8.747
44109SOL     OW34100   1.266   5.639   3.751
44109SOL    HW134101   1.338   5.628   3.812
44109SOL    HW234102   1.190   5.601   3.795
44110SOL     OW34103  10.125   5.803   4.679
44110SOL    HW134104  10.082   5.755   4.749
44110SOL    HW234105  10.112   5.749   4.601
44111SOL     OW34106   1.934  10.056   5.814
44111SOL    HW134107   1.916   9.965   5.792
44111SOL    HW234108   1.848  10.097   5.822
44112SOL     OW34109  10.157  10.327   0.719
44112SOL    HW134110  10.189  10.380   0.647
44112SOL    HW234111  10.195  10.240   0.703
44113SOL     OW34112  14.665   4.375   3.407
44113SOL    HW134113  14.746   4.376   3.458
44113SOL    HW234114  14.681   4.311   3.338
44114SOL     OW34115  11.571   0.367  11.997
44114SOL    HW134116  11.540   0.306  12.063
44114SOL    HW234117  11.522   0.345  11.918
44115SOL     OW34118  10.435  12.750   7.869
44115SOL    HW134119  10.430  12.654   7.862
44115SOL    HW234120  10.345  12.778   7.883
44116SOL     OW34121   8.961   2.578   7.889
44116SOL    HW134122   8.959   2.670   7.914
44116SOL    HW234123   8.977   2.530   7.970
44117SOL     OW34124   7.989   5.016   5.798
44117SOL    HW134125   8.028   4.962   5.867
44117SOL    HW234126   8.034   4.989   5.718
44118SOL     OW34127   3.359   7.771   3.191
44118SOL    HW134128   3.293   7.704   3.211
44118SOL    HW234129   3.337   7.800   3.103
44119SOL     OW34130   7.021  12.709   7.796
44119SOL    HW134131   6.926  12.710   7.809
44119SOL    HW234132   7.032  12.684   7.705
44120SOL     OW34133  14.500   7.056   1.281
44120SOL    HW134134  14.474   7.115   1.211
44120SOL    HW234135  14.424   7.000   1.295
44121SOL     OW34136  12.658  10.258  12.234
44121SOL    HW134137  12.616  10.317  12.297
44121SOL    HW234138  12.602  10.181  12.232
44122SOL     OW34139  11.006  11.665   0.027
44122SOL    HW134140  10.933  11.701  14.855
44122SOL    HW234141  11.064  11.740   0.042
44123SOL     OW34142  10.378  13.194  13.252
44123SOL    HW134143  10.309  13.144  13.208
44123SOL    HW234144  10.335  13.276  13.277
44124SOL     OW34145   2.053   7.253   2.706
44124SOL    HW134146   2.143   7.248   2.738
44124SOL    HW234147   2.061   7.296   2.620
44125SOL     OW34148   2.647  14.594   9.301
44125SOL    HW134149   2.600  14.568   9.222
44125SOL    HW234150   2.689  14.677   9.277
44126SOL     OW34151   5.362   2.313   8.403
44126SOL    HW134152   5.455   2.324   8.381
44126SOL    HW234153   5.321   2.394   8.374
44127SOL     OW34154  11.970   5.400   6.859
44127SOL    HW134155  12.017   5.448   6.791
44127SOL    HW234156  12.026   5.325   6.879
44128SOL     OW34157  13.867  13.022  11.656
44128SOL    HW134158  13.901  12.961  11.721
44128SOL    HW234159  13.806  12.970  11.603
44129SOL     OW34160   4.018  13.447  12.628
44129SOL    HW134161   3.981  13.367  12.666
44129SOL    HW234162   4.112  13.430  12.621
44130SOL     OW34163   7.436  13.221   7.596
44130SOL    HW134164   7.502  13.248   7.661
44130SOL    HW234165   7.385  13.300   7.579
44131SOL     OW34166   4.637  11.150   0.384
44131SOL    HW134167   4.550  11.176   0.355
44131SOL    HW234168   4.694  11.165   0.309
44132SOL     OW34169   9.541   5.157   7.379
44132SOL    HW134170   9.462   5.136   7.430
44132SOL    HW234171   9.609   5.101   7.416
44133SOL     OW34172   7.251   1.465   6.947
44133SOL    HW134173   7.180   1.526   6.926
44133SOL    HW234174   7.275   1.425   6.864
44134SOL     OW34175  10.974   0.772   7.661
44134SOL    HW134176  10.903   0.758   7.723
44134SOL    HW234177  10.960   0.861   7.628
44135SOL     OW34178  11.166  10.541   4.751
44135SOL    HW134179  11.175  10.632   4.720
44135SOL    HW234180  11.231  10.533   4.821
44136SOL     OW34181  12.848   0.068  14.432
44136SOL    HW134182  12.846   0.138  14.367
44136SOL    HW234183  12.758   0.062  14.464
44137SOL     OW34184  10.725   4.425   5.052
44137SOL    HW134185  10.746   4.350   5.108
44137SOL    HW234186  10.650   4.466   5.095
44138SOL     OW34187   8.336  10.759   4.758
44138SOL    HW134188   8.276  10.767   4.684
44138SOL    HW234189   8.337  10.846   4.797
44139SOL     OW34190   0.765   7.127   6.762
44139SOL    HW134191   0.710   7.051   6.745
44139SOL    HW234192   0.757   7.141   6.856
44140SOL     OW34193   8.261   3.835   4.590
44140SOL    HW134194   8.271   3.814   4.683
44140SOL    HW234195   8.181   3.888   4.586
44141SOL     OW34196  14.671   4.713   0.749
44141SOL    HW134197  14.711   4.633   0.782
44141SOL    HW234198  14.701   4.781   0.809
44142SOL     OW34199   3.867   0.754   2.263
44142SOL    HW134200   3.914   0.671   2.266
44142SOL    HW234201   3.860   0.774   2.170
44143SOL     OW34202  13.501   5.833   8.189
44143SOL    HW134203  13.417   5.878   8.197
44143SOL    HW234204  13.477   5.741   8.180
44144SOL     OW34205  11.569   9.656   7.860
44144SOL    HW134206  11.643   9.645   7.800
44144SOL    HW234207  11.512   9.581   7.841
44145SOL     OW34208  10.888   9.576   8.023
44145SOL    HW134209  10.815   9.638   8.029
44145SOL    HW234210  10.935   9.587   8.105
44146SOL     OW34211  10.365   4.821   9.418
44146SOL    HW134212  10.294   4.872   9.457
44146SOL    HW234213  10.403   4.879   9.353
44147SOL     OW34214   1.325   8.190   2.429
44147SOL    HW134215   1.367   8.108   2.454
44147SOL    HW234216   1.307   8.180   2.335
44148SOL     OW34217   3.947   9.074   5.992
44148SOL    HW134218   3.861   9.117   5.994
44148SOL    HW234219   3.927   8.982   5.974
44149SOL     OW34220   1.642  11.368   7.224
44149SOL    HW134221   1.681  11.443   7.178
44149SOL    HW234222   1.549  11.374   7.205
44150SOL     OW34223  10.588   1.142  14.877
44150SOL    HW134224  10.644   1.066   0.012
44150SOL    HW234225  10.647   1.217   0.004
44151SOL     OW34226   4.130   6.312   1.676
44151SOL    HW134227   4.044   6.273   1.661
44151SOL    HW234228   4.132   6.331   1.770
44152SOL     OW34229   7.458  12.034  10.888
44152SOL    HW134230   7.453  11.965  10.953
44152SOL    HW234231   7.392  12.010  10.823
44153SOL     OW34232  10.194   4.584   0.081
44153SOL    HW134233  10.186   4.670   0.041
44153SOL    HW234234  10.108   4.544   0.071
44154SOL     OW34235   7.137  12.543  11.101
44154SOL    HW134236   7.065  12.587  11.147
44154SOL    HW234237   7.096  12.508  11.022
44155SOL     OW34238   9.607  11.256   3.356
44155SOL    HW134239   9.530  11.205   3.331
44155SOL    HW234240   9.644  11.286   3.274
44156SOL     OW34241   7.496   3.175   4.545
44156SOL    HW134242   7.454   3.124   4.614
44156SOL    HW234243   7.590   3.156   4.555
44157SOL     OW34244   4.663   6.951   1.886
44157SOL    HW134245   4.734   6.887   1.883
44157SOL    HW234246   4.589   6.907   1.845
44158SOL     OW34247  10.673   7.496   6.352
44158SOL    HW134248  10.669   7.557   6.278
44158SOL    HW234249  10.606   7.431   6.332
44159SOL     OW34250   2.925   1.940   5.153
44159SOL    HW134251   3.010   1.979   5.130
44159SOL    HW234252   2.946   1.881   5.226
44160SOL     OW34253  10.079  11.270   9.531
44160SOL    HW134254  10.067  11.189   9.482
44160SOL    HW234255  10.003  11.323   9.509
44161SOL     OW34256  10.846   0.400  12.455
44161SOL    HW134257  10.902   0.338  12.408
44161SOL    HW234258  10.814   0.459  12.388
44162SOL     OW34259   6.827   2.745   7.105
44162SOL    HW134260   6.751   2.689   7.122
44162SOL    HW234261   6.798   2.832   7.131
44163SOL     OW34262  14.422   3.608  11.114
44163SOL    HW134263  14.465   3.527  11.084
44163SOL    HW234264  14.473   3.678  11.074
44164SOL     OW34265   3.613  12.358   9.284
44164SOL    HW134266   3.567  12.440   9.300
44164SOL    HW234267   3.706  12.380   9.294
44165SOL     OW34268  12.108   3.562  13.627
44165SOL    HW134269  12.042   3.594  13.689
44165SOL    HW234270  12.056   3.532  13.552
44166SOL     OW34271   4.267  11.353   5.223
44166SOL    HW134272   4.248  11.346   5.129
44166SOL    HW234273   4.327  11.427   5.230
44167SOL     OW34274   2.602   7.203   9.404
44167SOL    HW134275   2.526   7.193   9.462
44167SOL    HW234276   2.566   7.196   9.316
44168SOL     OW34277   8.706  14.353  10.279
44168SOL    HW134278   8.642  14.337  10.210
44168SOL    HW234279   8.677  14.297  10.351
44169SOL     OW34280   8.324   4.162  10.205
44169SOL    HW134281   8.363   4.076  10.220
44169SOL    HW234282   8.233   4.153  10.234
44170SOL     OW34283   9.804   3.326  13.896
44170SOL    HW134284   9.821   3.402  13.840
44170SOL    HW234285   9.803   3.251  13.837
44171SOL     OW34286   1.718   0.040  10.386
44171SOL    HW134287   1.767  14.861  10.326
44171SOL    HW234288   1.642   0.068  10.335
44172SOL     OW34289   2.988   1.547   5.039
44172SOL    HW134290   2.930   1.521   5.110
44172SOL    HW234291   2.938   1.530   4.959
44173SOL     OW34292  13.989   0.630  14.301
44173SOL    HW134293  14.019   0.716  14.273
44173SOL    HW234294  13.997   0.575  14.223
44174SOL     OW34295  13.669  13.450   1.266
44174SOL    HW134296  13.742  13.455   1.328
44174SOL    HW234297  13.599  13.407   1.314
44175SOL     OW34298   5.525  10.408   4.772
44175SOL    HW134299   5.487  10.344   4.712
44175SOL    HW234300   5.612  10.373   4.792
44176SOL     OW34301  13.057  10.688   8.609
44176SOL    HW134302  13.091  10.771   8.576
44176SOL    HW234303  13.049  10.632   8.531
44177SOL     OW34304   2.324   2.023   2.664
44177SOL    HW134305   2.364   2.038   2.750
44177SOL    HW234306   2.265   2.098   2.652
44178SOL     OW34307  14.288  13.835   5.613
44178SOL    HW134308  14.223  13.833   5.683
44178SOL    HW234309  14.265  13.913   5.561
44179SOL     OW34310  14.330   0.770  14.320
44179SOL    HW134311  14.357   0.860  14.300
44179SOL    HW234312  14.388   0.715  14.267
44180SOL     OW34313   6.825   6.602  10.453
44180SOL    HW134314   6.824   6.581  10.359
44180SOL    HW234315   6.794   6.522  10.496
44181SOL     OW34316   5.725   2.784  13.038
44181SOL    HW134317   5.816   2.810  13.027
44181SOL    HW234318   5.711   2.784  13.132
44182SOL     OW34319   9.129   8.487   3.254
44182SOL    HW134320   9.154   8.395   3.253
44182SOL    HW234321   9.135   8.513   3.347
44183SOL     OW34322   7.296   9.777   5.958
44183SOL    HW134323   7.289   9.707   6.024
44183SOL    HW234324   7.235   9.750   5.889
44184SOL     OW34325   8.080   7.730   0.122
44184SOL    HW134326   8.132   7.791   0.175
44184SOL    HW234327   8.146   7.676   0.078
44185SOL     OW34328  11.445   6.361  10.041
44185SOL    HW134329  11.404   6.307  10.108
44185SOL    HW234330  11.373   6.408  10.000
44186SOL     OW34331  11.219  13.688  11.991
44186SOL    HW134332  11.169  13.652  12.064
44186SOL    HW234333  11.306  13.703  12.027
44187SOL     OW34334   9.652   8.036   3.599
44187SOL    HW134335   9.648   7.963   3.660
44187SOL    HW234336   9.570   8.083   3.612
44188SOL     OW34337  10.621  10.263  13.328
44188SOL    HW134338  10.653  10.246  13.239
44188SOL    HW234339  10.581  10.181  13.356
44189SOL     OW34340   1.056   0.143   9.882
44189SOL    HW134341   1.030   0.086   9.954
44189SOL    HW234342   1.113   0.208   9.922
44190SOL     OW34343   5.986   2.256   4.580
44190SOL    HW134344   6.071   2.264   4.538
44190SOL    HW234345   5.968   2.162   4.579
44191SOL     OW34346  11.865   6.980  13.345
44191SOL    HW134347  11.955   6.946  13.347
44191SOL    HW234348  11.858   7.035  13.422
44192SOL     OW34349   9.445  13.101  10.767
44192SOL    HW134350   9.356  13.101  10.731
44192SOL    HW234351   9.437  13.142  10.853
44193SOL     OW34352  10.664   3.977   3.247
44193SOL    HW134353  10.702   3.983   3.159
44193SOL    HW234354  10.655   3.883   3.263
44194SOL     OW34355   4.207  11.519  10.290
44194SOL    HW134356   4.252  11.580  10.231
44194SOL    HW234357   4.248  11.435  10.273
44195SOL     OW34358   2.732   3.470   4.139
44195SOL    HW134359   2.805   3.418   4.105
44195SOL    HW234360   2.744   3.556   4.100
44196SOL     OW34361   9.292   4.151  11.976
44196SOL    HW134362   9.207   4.119  12.006
44196SOL    HW234363   9.321   4.211  12.045
44197SOL     OW34364   5.610   0.617   7.359
44197SOL    HW134365   5.566   0.541   7.321
44197SOL    HW234366   5.663   0.653   7.288
44198SOL     OW34367   8.007  10.271   9.312
44198SOL    HW134368   8.029  10.196   9.367
44198SOL    HW234369   8.090  10.300   9.275
44199SOL     OW34370  12.911   9.012   8.545
44199SOL    HW134371  13.004   9.036   8.541
44199SOL    HW234372  12.866   9.085   8.502
44200SOL     OW34373   8.298   0.139  11.068
44200SOL    HW134374   8.393   0.132  11.057
44200SOL    HW234375   8.268   0.179  10.986
44201SOL     OW34376   1.735   3.080   3.970
44201SOL    HW134377   1.722   3.006   4.029
44201SOL    HW234378   1.646   3.110   3.949
44202SOL     OW34379   3.412  13.825   1.115
44202SOL    HW134380   3.482  13.767   1.085
44202SOL    HW234381   3.366  13.849   1.034
44203SOL     OW34382   6.154   6.208   4.752
44203SOL    HW134383   6.200   6.127   4.772
44203SOL    HW234384   6.062   6.189   4.771
44204SOL     OW34385   1.915  12.692  12.730
44204SOL    HW134386   1.908  12.732  12.643
44204SOL    HW234387   1.890  12.601  12.716
44205SOL     OW34388   0.025   1.622   6.237
44205SOL    HW134389   0.084   1.563   6.283
44205SOL    HW234390   0.010   1.694   6.299
44206SOL     OW34391  13.956   7.956  13.383
44206SOL    HW134392  14.045   7.987  13.368
44206SOL    HW234393  13.929   7.921  13.298
44207SOL     OW34394  11.526   3.980  14.829
44207SOL    HW134395  11.503   3.906   0.008
44207SOL    HW234396  11.512   3.948  14.740
44208SOL     OW34397   4.353  10.057  14.397
44208SOL    HW134398   4.275  10.010  14.366
44208SOL    HW234399   4.353  10.043  14.492
44209SOL     OW34400  11.807  11.607  13.633
44209SOL    HW134401  11.892  11.567  13.651
44209SOL    HW234402  11.818  11.699  13.657
44210SOL     OW34403  12.852   3.244  11.192
44210SOL    HW134404  12.868   3.159  11.152
44210SOL    HW234405  12.868   3.307  11.122
44211SOL     OW34406  11.940   6.248  13.123
44211SOL    HW134407  12.035   6.256  13.121
44211SOL    HW234408  11.908   6.334  13.096
44212SOL     OW34409   2.347   6.005  14.255
44212SOL    HW134410   2.373   6.093  14.280
44212SOL    HW234411   2.287   6.017  14.181
44213SOL     OW34412   5.258   2.594   8.320
44213SOL    HW134413   5.324   2.653   8.283
44213SOL    HW234414   5.190   2.590   8.253
44214SOL     OW34415   7.562  11.519   0.556
44214SOL    HW134416   7.560  11.601   0.506
44214SOL    HW234417   7.653  11.509   0.584
44215SOL     OW34418  10.558   6.318  13.269
44215SOL    HW134419  10.599   6.240  13.231
44215SOL    HW234420  10.469   6.317  13.234
44216SOL     OW34421  12.148   2.463   4.633
44216SOL    HW134422  12.231   2.440   4.591
44216SOL    HW234423  12.114   2.379   4.664
44217SOL     OW34424   8.222   7.358   2.285
44217SOL    HW134425   8.159   7.412   2.239
44217SOL    HW234426   8.186   7.347   2.373
44218SOL     OW34427   9.262   4.558   3.271
44218SOL    HW134428   9.310   4.510   3.203
44218SOL    HW234429   9.214   4.626   3.223
44219SOL     OW34430   5.214   3.491   1.913
44219SOL    HW134431   5.269   3.456   1.843
44219SOL    HW234432   5.252   3.577   1.933
44220SOL     OW34433   5.018  13.279  13.565
44220SOL    HW134434   5.100  13.230  13.570
44220SOL    HW234435   5.039  13.357  13.515
44221SOL     OW34436  12.379   6.664  12.721
44221SOL    HW134437  12.413   6.682  12.809
44221SOL    HW234438  12.414   6.734  12.667
44222SOL     OW34439   6.149   4.755   4.462
44222SOL    HW134440   6.167   4.823   4.397
44222SOL    HW234441   6.116   4.803   4.538
44223SOL     OW34442  12.894   1.061   1.269
44223SOL    HW134443  12.885   1.155   1.255
44223SOL    HW234444  12.969   1.035   1.215
44224SOL     OW34445  14.305  12.316   1.283
44224SOL    HW134446  14.318  12.394   1.230
44224SOL    HW234447  14.376  12.257   1.257
44225SOL     OW34448  12.263  11.355  12.089
44225SOL    HW134449  12.182  11.382  12.046
44225SOL    HW234450  12.304  11.437  12.115
44226SOL     OW34451   4.554  12.255   0.083
44226SOL    HW134452   4.633  12.214   0.048
44226SOL    HW234453   4.490  12.249   0.012
44227SOL     OW34454   5.131  13.022  11.616
44227SOL    HW134455   5.124  13.078  11.538
44227SOL    HW234456   5.049  13.037  11.664
44228SOL     OW34457   8.269   6.053   2.426
44228SOL    HW134458   8.238   6.041   2.516
44228SOL    HW234459   8.194   6.028   2.372
44229SOL     OW34460   6.171   5.594   2.191
44229SOL    HW134461   6.230   5.555   2.256
44229SOL    HW234462   6.208   5.567   2.107
44230SOL     OW34463   8.708  13.078   5.666
44230SOL    HW134464   8.635  13.120   5.712
44230SOL    HW234465   8.729  13.002   5.720
44231SOL     OW34466  10.637   6.741   4.191
44231SOL    HW134467  10.696   6.665   4.192
44231SOL    HW234468  10.653   6.782   4.106
44232SOL     OW34469  11.210   1.970  12.064
44232SOL    HW134470  11.180   1.897  12.009
44232SOL    HW234471  11.175   1.950  12.151
44233SOL     OW34472  11.652   2.720   6.102
44233SOL    HW134473  11.573   2.674   6.130
44233SOL    HW234474  11.624   2.772   6.026
44234SOL     OW34475   5.922   2.680   3.609
44234SOL    HW134476   5.912   2.606   3.549
44234SOL    HW234477   5.903   2.644   3.696
44235SOL     OW34478   7.927   1.089  10.970
44235SOL    HW134479   8.002   1.107  10.913
44235SOL    HW234480   7.951   1.129  11.054
44236SOL     OW34481   3.361  13.584  11.445
44236SOL    HW134482   3.409  13.652  11.492
44236SOL    HW234483   3.277  13.624  11.424
44237SOL     OW34484   2.567   0.152  14.330
44237SOL    HW134485   2.564   0.147  14.235
44237SOL    HW234486   2.659   0.166  14.351
44238SOL     OW34487   5.094   3.974   6.088
44238SOL    HW134488   5.027   3.906   6.091
44238SOL    HW234489   5.173   3.932   6.122
44239SOL     OW34490   0.667  11.130   1.320
44239SOL    HW134491   0.746  11.129   1.373
44239SOL    HW234492   0.597  11.155   1.381
44240SOL     OW34493   8.350  13.860   4.684
44240SOL    HW134494   8.410  13.896   4.749
44240SOL    HW234495   8.284  13.813   4.735
44241SOL     OW34496  10.304  12.037  14.868
44241SOL    HW134497  10.386  11.992  14.847
44241SOL    HW234498  10.239  11.968  14.872
44242SOL     OW34499  11.816   3.198   6.334
44242SOL    HW134500  11.911   3.185   6.342
44242SOL    HW234501  11.799   3.281   6.378
44243SOL     OW34502  10.850   0.567   3.086
44243SOL    HW134503  10.931   0.610   3.060
44243SOL    HW234504  10.781   0.620   3.045
44244SOL     OW34505  11.314   3.397  10.029
44244SOL    HW134506  11.405   3.369  10.040
44244SOL    HW234507  11.319   3.492  10.024
44245SOL     OW34508   1.180   4.282   4.488
44245SOL    HW134509   1.090   4.312   4.472
44245SOL    HW234510   1.234   4.336   4.431
44246SOL     OW34511   0.276   5.210   4.847
44246SOL    HW134512   0.290   5.202   4.752
44246SOL    HW234513   0.201   5.153   4.865
44247SOL     OW34514   4.459   1.393   8.707
44247SOL    HW134515   4.432   1.482   8.685
44247SOL    HW234516   4.381   1.340   8.696
44248SOL     OW34517   8.299   2.813  14.142
44248SOL    HW134518   8.344   2.730  14.159
44248SOL    HW234519   8.369   2.878  14.139
44249SOL     OW34520   2.257  11.510  13.918
44249SOL    HW134521   2.246  11.453  13.994
44249SOL    HW234522   2.342  11.552  13.932
44250SOL     OW34523   3.729   1.996  10.669
44250SOL    HW134524   3.781   1.943  10.729
44250SOL    HW234525   3.721   1.943  10.590
44251SOL     OW34526   6.528   3.377   2.350
44251SOL    HW134527   6.590   3.376   2.277
44251SOL    HW234528   6.583   3.379   2.428
44252SOL     OW34529  10.585   1.818   2.919
44252SOL    HW134530  10.612   1.901   2.957
44252SOL    HW234531  10.589   1.755   2.991
44253SOL     OW34532   2.566  13.798   8.265
44253SOL    HW134533   2.624  13.855   8.215
44253SOL    HW234534   2.562  13.837   8.352
44254SOL     OW34535   1.632   2.247  11.402
44254SOL    HW134536   1.595   2.231  11.315
44254SOL    HW234537   1.724   2.265  11.385
44255SOL     OW34538   6.887  10.904  10.409
44255SOL    HW134539   6.950  10.870  10.346
44255SOL    HW234540   6.941  10.947  10.476
44256SOL     OW34541  11.322   7.410   2.670
44256SOL    HW134542  11.237   7.434   2.635
44256SOL    HW234543  11.353   7.340   2.614
44257SOL     OW34544   9.480  10.048   1.908
44257SOL    HW134545   9.497   9.967   1.860
44257SOL    HW234546   9.501  10.026   1.999
44258SOL     OW34547   1.645  11.271   8.246
44258SOL    HW134548   1.705  11.344   8.229
44258SOL    HW234549   1.689  11.195   8.208
44259SOL     OW34550  13.162   8.098   8.541
44259SOL    HW134551  13.077   8.057   8.521
44259SOL    HW234552  13.139   8.187   8.569
44260SOL     OW34553   1.406   6.156  12.656
44260SOL    HW134554   1.353   6.236  12.650
44260SOL    HW234555   1.439   6.156  12.746
44261SOL     OW34556   4.348   2.960   8.400
44261SOL    HW134557   4.385   2.874   8.422
44261SOL    HW234558   4.421   3.010   8.366
44262SOL     OW34559  11.574   5.340   3.755
44262SOL    HW134560  11.628   5.409   3.717
44262SOL    HW234561  11.624   5.309   3.830
44263SOL     OW34562   5.339   1.262  13.327
44263SOL    HW134563   5.385   1.330  13.376
44263SOL    HW234564   5.398   1.187  13.329
44264SOL     OW34565   3.252  13.254   0.441
44264SOL    HW134566   3.234  13.178   0.386
44264SOL    HW234567   3.203  13.325   0.401
44265SOL     OW34568  14.418   4.113   7.014
44265SOL    HW134569  14.509   4.094   6.990
44265SOL    HW234570  14.375   4.136   6.932
44266SOL     OW34571   1.170  14.642  10.729
44266SOL    HW134572   1.188  14.722  10.780
44266SOL    HW234573   1.083  14.615  10.757
44267SOL     OW34574   6.140   5.473   1.417
44267SOL    HW134575   6.182   5.502   1.336
44267SOL    HW234576   6.051   5.450   1.392
44268SOL     OW34577   6.207   9.421   1.103
44268SOL    HW134578   6.220   9.333   1.138
44268SOL    HW234579   6.157   9.467   1.170
44269SOL     OW34580   4.466  11.431  10.585
44269SOL    HW134581   4.531  11.371  10.548
44269SOL    HW234582   4.518  11.493  10.637
44270SOL     OW34583   0.892   8.798   6.669
44270SOL    HW134584   0.960   8.735   6.645
44270SOL    HW234585   0.940   8.876   6.695
44271SOL     OW34586   4.531   0.266  13.194
44271SOL    HW134587   4.573   0.184  13.219
44271SOL    HW234588   4.559   0.329  13.261
44272SOL     OW34589   3.053   4.442   3.415
44272SOL    HW134590   2.973   4.418   3.369
44272SOL    HW234591   3.100   4.498   3.353
44273SOL     OW34592   8.368  11.018   5.339
44273SOL    HW134593   8.461  11.039   5.342
44273SOL    HW234594   8.324  11.100   5.362
44274SOL     OW34595   2.402  11.477   8.983
44274SOL    HW134596   2.309  11.475   9.005
44274SOL    HW234597   2.444  11.516   9.060
44275SOL     OW34598   8.328  14.222   7.137
44275SOL    HW134599   8.280  14.260   7.063
44275SOL    HW234600   8.309  14.129   7.134
44276SOL     OW34601   0.771   0.886   4.147
44276SOL    HW134602   0.738   0.955   4.204
44276SOL    HW234603   0.710   0.885   4.073
44277SOL     OW34604   1.954   0.450  13.563
44277SOL    HW134605   2.043   0.446  13.530
44277SOL    HW234606   1.962   0.441  13.657
44278SOL     OW34607  14.250   8.225   7.214
44278SOL    HW134608  14.217   8.280   7.143
44278SOL    HW234609  14.329   8.184   7.178
44279SOL     OW34610   1.937   0.853   8.940
44279SOL    HW134611   2.026   0.872   8.911
44279SOL    HW234612   1.901   0.938   8.963
44280SOL     OW34613  10.831  12.143   7.688
44280SOL    HW134614  10.852  12.221   7.741
44280SOL    HW234615  10.740  12.124   7.709
44281SOL     OW34616   8.422  13.753   0.981
44281SOL    HW134617   8.405  13.687   0.913
44281SOL    HW234618   8.398  13.836   0.940
44282SOL     OW34619   4.405   8.803   0.681
44282SOL    HW134620   4.476   8.761   0.632
44282SOL    HW234621   4.400   8.754   0.763
44283SOL     OW34622  11.781   2.118   6.254
44283SOL    HW134623  11.794   2.154   6.342
44283SOL    HW234624  11.842   2.166   6.199
44284SOL     OW34625   5.039  11.134   3.958
44284SOL    HW134626   5.084  11.218   3.954
44284SOL    HW234627   5.078  11.090   4.034
44285SOL     OW34628   1.386  13.239   2.012
44285SOL    HW134629   1.474  13.277   2.016
44285SOL    HW234630   1.345  13.264   2.095
44286SOL     OW34631   2.126   2.881   0.397
44286SOL    HW134632   2.162   2.794   0.413
44286SOL    HW234633   2.031   2.867   0.392
44287SOL     OW34634   9.870   0.031   8.142
44287SOL    HW134635   9.846  14.816   8.135
44287SOL    HW234636   9.965   0.030   8.157
44288SOL     OW34637   9.301  10.840  12.639
44288SOL    HW134638   9.356  10.891  12.580
44288SOL    HW234639   9.340  10.752  12.638
44289SOL     OW34640   5.024  14.523   2.452
44289SOL    HW134641   5.003  14.609   2.489
44289SOL    HW234642   5.102  14.538   2.399
44290SOL     OW34643   6.558   8.895   7.820
44290SOL    HW134644   6.612   8.819   7.799
44290SOL    HW234645   6.611   8.946   7.881
44291SOL     OW34646   8.141   0.309  10.161
44291SOL    HW134647   8.210   0.328  10.225
44291SOL    HW234648   8.122   0.394  10.120
44292SOL     OW34649   3.298  13.522   2.621
44292SOL    HW134650   3.333  13.597   2.573
44292SOL    HW234651   3.372  13.491   2.674
44293SOL     OW34652  12.893   6.690   6.271
44293SOL    HW134653  12.921   6.709   6.361
44293SOL    HW234654  12.948   6.617   6.244
44294SOL     OW34655  11.142  13.912   4.316
44294SOL    HW134656  11.110  13.934   4.404
44294SOL    HW234657  11.228  13.874   4.330
44295SOL     OW34658   5.867   2.734  10.061
44295SOL    HW134659   5.868   2.688  10.145
44295SOL    HW234660   5.927   2.684  10.005
44296SOL     OW34661   9.091  11.929  11.553
44296SOL    HW134662   9.139  11.990  11.610
44296SOL    HW234663   9.000  11.937  11.582
44297SOL     OW34664   4.341  11.536  11.320
44297SOL    HW134665   4.382  11.538  11.233
44297SOL    HW234666   4.262  11.589  11.310
44298SOL     OW34667  14.540  12.555   2.070
44298SOL    HW134668  14.538  12.462   2.091
44298SOL    HW234669  14.489  12.597   2.139
44299SOL     OW34670   1.979   3.026   2.971
44299SOL    HW134671   1.934   3.058   2.892
44299SOL    HW234672   1.980   3.101   3.030
44300SOL     OW34673  12.156  13.819   2.628
44300SOL    HW134674  12.086  13.873   2.594
44300SOL    HW234675  12.166  13.847   2.719
44301SOL     OW34676   0.601  13.349   2.198
44301SOL    HW134677   0.565  13.414   2.258
44301SOL    HW234678   0.552  13.269   2.216
44302SOL     OW34679  10.675  12.239   5.369
44302SOL    HW134680  10.713  12.153   5.349
44302SOL    HW234681  10.581  12.222   5.377
44303SOL     OW34682   4.579   6.889   3.791
44303SOL    HW134683   4.650   6.830   3.816
44303SOL    HW234684   4.537   6.913   3.873
44304SOL     OW34685   8.849   2.803   6.876
44304SOL    HW134686   8.851   2.711   6.903
44304SOL    HW234687   8.893   2.849   6.947
44305SOL     OW34688  11.623   3.498   7.801
44305SOL    HW134689  11.527   3.494   7.800
44305SOL    HW234690  11.649   3.495   7.709
44306SOL     OW34691  13.738   2.562  10.506
44306SOL    HW134692  13.752   2.651  10.537
44306SOL    HW234693  13.779   2.507  10.573
44307SOL     OW34694   5.436  14.827   0.956
44307SOL    HW134695   5.515  14.776   0.973
44307SOL    HW234696   5.425  14.824   0.861
44308SOL     OW34697   9.679   5.916   5.448
44308SOL    HW134698   9.666   5.854   5.377
44308SOL    HW234699   9.699   5.999   5.405
44309SOL     OW34700  14.501  13.400   3.403
44309SOL    HW134701  14.503  13.445   3.319
44309SOL    HW234702  14.412  13.367   3.411
44310SOL     OW34703   1.177   9.458   3.977
44310SOL    HW134704   1.260   9.411   3.984
44310SOL    HW234705   1.203   9.550   3.967
44311SOL     OW34706  13.527   1.120  12.264
44311SOL    HW134707  13.557   1.079  12.183
44311SOL    HW234708  13.528   1.214  12.245
44312SOL     OW34709   0.564   7.030   7.053
44312SOL    HW134710   0.644   7.083   7.049
44312SOL    HW234711   0.596   6.940   7.065
44313SOL     OW34712   2.379   6.221   3.657
44313SOL    HW134713   2.301   6.270   3.679
44313SOL    HW234714   2.383   6.150   3.721
44314SOL     OW34715   7.063   7.178   3.551
44314SOL    HW134716   7.050   7.272   3.537
44314SOL    HW234717   7.028   7.137   3.472
44315SOL     OW34718   6.088  12.588   7.325
44315SOL    HW134719   6.090  12.680   7.298
44315SOL    HW234720   6.168  12.550   7.288
44316SOL     OW34721   0.093   8.080   2.653
44316SOL    HW134722   0.106   8.152   2.716
44316SOL    HW234723   0.041   8.119   2.583
44317SOL     OW34724   8.312   6.336  10.006
44317SOL    HW134725   8.310   6.307   9.915
44317SOL    HW234726   8.397   6.377  10.017
44318SOL     OW34727  14.534   0.115  11.768
44318SOL    HW134728  14.476   0.189  11.752
44318SOL    HW234729  14.577   0.135  11.851
44319SOL     OW34730  14.484   2.547   3.838
44319SOL    HW134731  14.405   2.500   3.866
44319SOL    HW234732  14.503   2.510   3.751
44320SOL     OW34733   0.079   6.410   5.499
44320SOL    HW134734   0.012   6.373   5.442
44320SOL    HW234735   0.158   6.360   5.480
44321SOL     OW34736   2.780   6.617  11.475
44321SOL    HW134737   2.806   6.699  11.518
44321SOL    HW234738   2.709   6.583  11.529
44322SOL     OW34739   9.017  12.270   8.380
44322SOL    HW134740   8.976  12.312   8.456
44322SOL    HW234741   9.059  12.191   8.416
44323SOL     OW34742   9.457   2.437   0.990
44323SOL    HW134743   9.379   2.482   0.960
44323SOL    HW234744   9.432   2.345   0.995
44324SOL     OW34745  11.338   8.433   7.686
44324SOL    HW134746  11.412   8.482   7.723
44324SOL    HW234747  11.349   8.344   7.720
44325SOL     OW34748   2.978  10.520  10.002
44325SOL    HW134749   3.025  10.449  10.044
44325SOL    HW234750   3.013  10.524   9.913
44326SOL     OW34751   7.550   7.303   4.547
44326SOL    HW134752   7.617   7.238   4.526
44326SOL    HW234753   7.531   7.345   4.464
44327SOL     OW34754   9.133  11.492   2.108
44327SOL    HW134755   9.218  11.515   2.144
44327SOL    HW234756   9.117  11.558   2.041
44328SOL     OW34757   9.640  12.568   5.801
44328SOL    HW134758   9.700  12.495   5.816
44328SOL    HW234759   9.596  12.546   5.719
44329SOL     OW34760   0.150  13.196   3.775
44329SOL    HW134761   0.189  13.174   3.690
44329SOL    HW234762   0.088  13.126   3.793
44330SOL     OW34763   9.760  14.733   4.877
44330SOL    HW134764   9.810  14.709   4.955
44330SOL    HW234765   9.687  14.672   4.875
44331SOL     OW34766  11.988   1.515   9.687
44331SOL    HW134767  11.972   1.431   9.730
44331SOL    HW234768  12.041   1.493   9.610
44332SOL     OW34769  12.807   3.049   6.422
44332SOL    HW134770  12.871   3.118   6.403
44332SOL    HW234771  12.755   3.085   6.494
44333SOL     OW34772   3.056  10.050   0.300
44333SOL    HW134773   3.140  10.091   0.319
44333SOL    HW234774   3.035  10.000   0.379
44334SOL     OW34775   7.183   7.652  13.622
44334SOL    HW134776   7.252   7.713  13.595
44334SOL    HW234777   7.156   7.609  13.541
44335SOL     OW34778   9.053   9.014   1.579
44335SOL    HW134779   8.976   9.048   1.533
44335SOL    HW234780   9.019   8.983   1.663
44336SOL     OW34781  12.595   9.194   6.167
44336SOL    HW134782  12.557   9.108   6.188
44336SOL    HW234783  12.689   9.177   6.158
44337SOL     OW34784   6.822   3.731  13.985
44337SOL    HW134785   6.907   3.699  13.956
44337SOL    HW234786   6.835   3.754  14.077
44338SOL     OW34787   9.678  10.165  11.115
44338SOL    HW134788   9.693  10.071  11.104
44338SOL    HW234789   9.730  10.189  11.192
44339SOL     OW34790   6.954   8.194  13.024
44339SOL    HW134791   7.044   8.161  13.020
44339SOL    HW234792   6.915   8.148  13.098
44340SOL     OW34793   9.843   8.682   7.799
44340SOL    HW134794   9.822   8.667   7.891
44340SOL    HW234795   9.768   8.646   7.751
44341SOL     OW34796   9.525  10.001   8.081
44341SOL    HW134797   9.564   9.931   8.134
44341SOL    HW234798   9.436  10.010   8.113
44342SOL     OW34799  10.187   0.469   3.021
44342SOL    HW134800  10.228   0.394   3.064
44342SOL    HW234801  10.093   0.454   3.033
44343SOL     OW34802   2.535  10.393  14.614
44343SOL    HW134803   2.606  10.391  14.678
44343SOL    HW234804   2.578  10.404  14.529
44344SOL     OW34805   8.412  13.615  14.763
44344SOL    HW134806   8.384  13.704  14.784
44344SOL    HW234807   8.390  13.604  14.671
44345SOL     OW34808  10.401   4.673  11.221
44345SOL    HW134809  10.340   4.628  11.163
44345SOL    HW234810  10.424   4.607  11.287
44346SOL     OW34811  11.612   4.671   5.174
44346SOL    HW134812  11.589   4.578   5.176
44346SOL    HW234813  11.668   4.684   5.251
44347SOL     OW34814   6.898  11.795   1.435
44347SOL    HW134815   6.806  11.776   1.414
44347SOL    HW234816   6.918  11.739   1.510
44348SOL     OW34817   8.080  13.158   3.648
44348SOL    HW134818   8.155  13.200   3.691
44348SOL    HW234819   8.117  13.078   3.610
44349SOL     OW34820  10.977   0.764   8.762
44349SOL    HW134821  11.005   0.682   8.720
44349SOL    HW234822  11.059   0.808   8.784
44350SOL     OW34823  11.178  10.250   9.921
44350SOL    HW134824  11.266  10.284   9.904
44350SOL    HW234825  11.157  10.196   9.845
44351SOL     OW34826   0.188   3.036   9.618
44351SOL    HW134827   0.118   2.971   9.608
44351SOL    HW234828   0.186   3.087   9.537
44352SOL     OW34829   0.385  13.534   2.859
44352SOL    HW134830   0.357  13.541   2.950
44352SOL    HW234831   0.401  13.441   2.846
44353SOL     OW34832  12.798   3.893   9.815
44353SOL    HW134833  12.833   3.804   9.816
44353SOL    HW234834  12.861   3.944   9.866
44354SOL     OW34835   6.755  14.204   8.436
44354SOL    HW134836   6.736  14.114   8.462
44354SOL    HW234837   6.687  14.257   8.478
44355SOL     OW34838   0.004   7.847   7.790
44355SOL    HW134839  14.824   7.905   7.840
44355SOL    HW234840   0.093   7.875   7.814
44356SOL     OW34841   6.371   9.402  10.329
44356SOL    HW134842   6.413   9.365  10.407
44356SOL    HW234843   6.443   9.412  10.266
44357SOL     OW34844   3.198  12.300   3.591
44357SOL    HW134845   3.208  12.363   3.520
44357SOL    HW234846   3.260  12.329   3.658
44358SOL     OW34847  11.967  11.122   4.484
44358SOL    HW134848  11.888  11.172   4.506
44358SOL    HW234849  11.959  11.104   4.391
44359SOL     OW34850   6.612   0.178  11.167
44359SOL    HW134851   6.553   0.108  11.139
44359SOL    HW234852   6.696   0.134  11.182
44360SOL     OW34853  11.723   5.065   1.368
44360SOL    HW134854  11.774   5.021   1.436
44360SOL    HW234855  11.632   5.047   1.392
44361SOL     OW34856  14.760  10.418  12.673
44361SOL    HW134857  14.695  10.440  12.740
44361SOL    HW234858  14.808  10.500  12.658
44362SOL     OW34859   8.162   3.895   0.442
44362SOL    HW134860   8.138   3.988   0.449
44362SOL    HW234861   8.109   3.852   0.510
44363SOL     OW34862  11.644   6.127   3.504
44363SOL    HW134863  11.562   6.154   3.547
44363SOL    HW234864  11.649   6.032   3.520
44364SOL     OW34865   2.896  12.217   0.116
44364SOL    HW134866   2.988  12.241   0.111
44364SOL    HW234867   2.897  12.124   0.135
44365SOL     OW34868  14.598   3.944   2.500
44365SOL    HW134869  14.591   3.851   2.478
44365SOL    HW234870  14.606   3.988   2.415
44366SOL     OW34871   6.703  14.651   7.221
44366SOL    HW134872   6.616  14.690   7.222
44366SOL    HW234873   6.730  14.652   7.313
44367SOL     OW34874   0.779   7.775  13.910
44367SOL    HW134875   0.725   7.853  13.919
44367SOL    HW234876   0.867   7.804  13.931
44368SOL     OW34877  12.639  14.391   5.411
44368SOL    HW134878  12.637  14.466   5.352
44368SOL    HW234879  12.597  14.320   5.361
44369SOL     OW34880   5.165  11.035   5.261
44369SOL    HW134881   5.079  10.996   5.248
44369SOL    HW234882   5.147  11.126   5.285
44370SOL     OW34883   0.400  11.630   7.723
44370SOL    HW134884   0.376  11.674   7.641
44370SOL    HW234885   0.329  11.567   7.738
44371SOL     OW34886   1.630   4.832   9.336
44371SOL    HW134887   1.671   4.825   9.422
44371SOL    HW234888   1.581   4.750   9.326
44372SOL     OW34889  13.901  10.322  10.656
44372SOL    HW134890  13.854  10.393  10.612
44372SOL    HW234891  13.898  10.345  10.749
44373SOL     OW34892   0.067   2.462   3.575
44373SOL    HW134893   0.025   2.410   3.507
44373SOL    HW234894  14.872   2.494   3.629
44374SOL     OW34895  13.564   2.295   6.430
44374SOL    HW134896  13.579   2.244   6.350
44374SOL    HW234897  13.533   2.380   6.398
44375SOL     OW34898  12.457   3.643   5.484
44375SOL    HW134899  12.389   3.593   5.529
44375SOL    HW234900  12.495   3.582   5.421
44376SOL     OW34901   5.737   1.916   0.704
44376SOL    HW134902   5.829   1.927   0.681
44376SOL    HW234903   5.699   1.869   0.630
44377SOL     OW34904   6.590   7.041   2.722
44377SOL    HW134905   6.644   7.053   2.800
44377SOL    HW234906   6.653   7.019   2.652
44378SOL     OW34907  13.980  13.442   4.892
44378SOL    HW134908  13.888  13.458   4.911
44378SOL    HW234909  14.014  13.403   4.973
44379SOL     OW34910   0.347  14.237   2.197
44379SOL    HW134911   0.393  14.153   2.189
44379SOL    HW234912   0.312  14.236   2.287
44380SOL     OW34913   3.427  11.382   0.108
44380SOL    HW134914   3.470  11.296   0.112
44380SOL    HW234915   3.467  11.425   0.032
44381SOL     OW34916  11.972   9.810   3.585
44381SOL    HW134917  11.956   9.827   3.493
44381SOL    HW234918  11.932   9.884   3.631
44382SOL     OW34919   7.882   5.041   6.482
44382SOL    HW134920   7.872   5.131   6.515
44382SOL    HW234921   7.793   5.006   6.483
44383SOL     OW34922  13.931   1.345   0.145
44383SOL    HW134923  13.853   1.329   0.198
44383SOL    HW234924  13.960   1.433   0.170
44384SOL     OW34925  14.042  14.582  12.098
44384SOL    HW134926  14.054  14.638  12.022
44384SOL    HW234927  14.082  14.498  12.074
44385SOL     OW34928  12.975   7.409   1.170
44385SOL    HW134929  12.955   7.494   1.210
44385SOL    HW234930  13.070   7.407   1.164
44386SOL     OW34931   8.388   4.140   2.697
44386SOL    HW134932   8.379   4.236   2.696
44386SOL    HW234933   8.482   4.125   2.683
44387SOL     OW34934   6.423   6.747   6.289
44387SOL    HW134935   6.447   6.750   6.381
44387SOL    HW234936   6.504   6.766   6.242
44388SOL     OW34937  13.962   3.605  14.533
44388SOL    HW134938  14.034   3.651  14.492
44388SOL    HW234939  13.899   3.590  14.463
44389SOL     OW34940   9.938   0.902   2.672
44389SOL    HW134941   9.964   0.831   2.731
44389SOL    HW234942   9.857   0.935   2.710
44390SOL     OW34943   2.977   8.680   7.801
44390SOL    HW134944   2.984   8.743   7.872
44390SOL    HW234945   2.920   8.611   7.836
44391SOL     OW34946   2.956   8.595  12.299
44391SOL    HW134947   3.004   8.670  12.265
44391SOL    HW234948   2.938   8.617  12.390
44392SOL     OW34949   3.361   0.139  13.944
44392SOL    HW134950   3.353   0.211  13.881
44392SOL    HW234951   3.287   0.152  14.004
44393SOL     OW34952   5.326   0.742  11.995
44393SOL    HW134953   5.314   0.744  11.900
44393SOL    HW234954   5.334   0.649  12.017
44394SOL     OW34955  11.589   6.620   1.978
44394SOL    HW134956  11.641   6.639   2.056
44394SOL    HW234957  11.618   6.685   1.914
44395SOL     OW34958   0.326   6.142   0.931
44395SOL    HW134959   0.376   6.066   0.960
44395SOL    HW234960   0.235   6.119   0.949
44396SOL     OW34961  10.099  12.842   9.575
44396SOL    HW134962  10.075  12.858   9.667
44396SOL    HW234963  10.137  12.924   9.545
44397SOL     OW34964   5.748   3.931  13.216
44397SOL    HW134965   5.687   3.969  13.279
44397SOL    HW234966   5.710   3.846  13.194
44398SOL     OW34967   2.992   1.998   5.649
44398SOL    HW134968   3.007   2.049   5.569
44398SOL    HW234969   3.077   1.958   5.668
44399SOL     OW34970  12.099   9.683   0.523
44399SOL    HW134971  12.127   9.744   0.455
44399SOL    HW234972  12.176   9.629   0.540
44400SOL     OW34973  14.065   2.802   7.976
44400SOL    HW134974  13.999   2.842   8.033
44400SOL    HW234975  14.105   2.733   8.030
44401SOL     OW34976   3.316   5.299  10.805
44401SOL    HW134977   3.228   5.320  10.835
44401SOL    HW234978   3.372   5.365  10.846
44402SOL     OW34979  14.404   5.859   9.003
44402SOL    HW134980  14.359   5.928   9.053
44402SOL    HW234981  14.432   5.796   9.069
44403SOL     OW34982   7.683   4.359  11.066
44403SOL    HW134983   7.614   4.334  11.004
44403SOL    HW234984   7.725   4.435  11.026
44404SOL     OW34985   7.511  11.939   9.799
44404SOL    HW134986   7.599  11.964   9.827
44404SOL    HW234987   7.452  11.995   9.850
44405SOL     OW34988   2.993  13.653  11.004
44405SOL    HW134989   2.950  13.703  11.073
44405SOL    HW234990   2.963  13.693  10.923
44406SOL     OW34991   8.622  10.572   7.067
44406SOL    HW134992   8.605  10.557   7.160
44406SOL    HW234993   8.664  10.658   7.063
44407SOL     OW34994   9.970   1.714  14.144
44407SOL    HW134995   9.989   1.640  14.202
44407SOL    HW234996   9.944   1.784  14.204
44408SOL     OW34997   1.740   4.774  13.709
44408SOL    HW134998   1.809   4.816  13.657
44408SOL    HW234999   1.737   4.826  13.789
44409SOL     OW35000   7.022   7.004  11.700
44409SOL    HW135001   6.944   7.011  11.753
44409SOL    HW235002   7.091   6.979  11.761
44410SOL     OW35003  14.478   0.569  11.765
44410SOL    HW135004  14.534   0.542  11.838
44410SOL    HW235005  14.440   0.488  11.732
44411SOL     OW35006  10.426   1.769  11.666
44411SOL    HW135007  10.424   1.674  11.670
44411SOL    HW235008  10.378   1.798  11.744
44412SOL     OW35009  13.328   9.153  11.662
44412SOL    HW135010  13.399   9.158  11.727
44412SOL    HW235011  13.372   9.155  11.577
44413SOL     OW35012  13.072  14.350   3.970
44413SOL    HW135013  13.112  14.404   4.038
44413SOL    HW235014  12.979  14.373   3.972
44414SOL     OW35015   5.534   3.810   7.308
44414SOL    HW135016   5.451   3.850   7.283
44414SOL    HW235017   5.510   3.735   7.363
44415SOL     OW35018   7.767   8.352  10.464
44415SOL    HW135019   7.850   8.320  10.498
44415SOL    HW235020   7.761   8.313  10.376
44416SOL     OW35021   0.724  10.628   7.695
44416SOL    HW135022   0.680  10.547   7.720
44416SOL    HW235023   0.733  10.622   7.600
44417SOL     OW35024   8.052   3.428   4.613
44417SOL    HW135025   7.998   3.373   4.556
44417SOL    HW235026   8.140   3.423   4.574
44418SOL     OW35027   5.388   6.403  13.257
44418SOL    HW135028   5.410   6.325  13.206
44418SOL    HW235029   5.332   6.454  13.200
44419SOL     OW35030   4.256  14.263   5.782
44419SOL    HW135031   4.227  14.336   5.835
44419SOL    HW235032   4.230  14.286   5.692
44420SOL     OW35033   3.408  14.364   5.516
44420SOL    HW135034   3.398  14.397   5.606
44420SOL    HW235035   3.329  14.391   5.471
44421SOL     OW35036   4.558  10.152   2.629
44421SOL    HW135037   4.468  10.130   2.654
44421SOL    HW235038   4.554  10.166   2.534
44422SOL     OW35039   4.353   8.190   8.749
44422SOL    HW135040   4.364   8.110   8.800
44422SOL    HW235041   4.308   8.163   8.669
44423SOL     OW35042   5.032   3.035  14.536
44423SOL    HW135043   5.031   3.123  14.498
44423SOL    HW235044   4.973   3.040  14.610
44424SOL     OW35045   8.801   2.503   9.977
44424SOL    HW135046   8.764   2.425   9.936
44424SOL    HW235047   8.734   2.571   9.965
44425SOL     OW35048  14.578   2.157   6.717
44425SOL    HW135049  14.572   2.083   6.658
44425SOL    HW235050  14.671   2.165   6.737
44426SOL     OW35051  14.820   4.499   7.241
44426SOL    HW135052  14.859   4.488   7.154
44426SOL    HW235053  14.806   4.410   7.273
44427SOL     OW35054   3.397   5.078   8.832
44427SOL    HW135055   3.306   5.064   8.805
44427SOL    HW235056   3.449   5.030   8.767
44428SOL     OW35057   4.876  10.573  13.155
44428SOL    HW135058   4.946  10.531  13.105
44428SOL    HW235059   4.801  10.574  13.095
44429SOL     OW35060   8.586  13.316  10.258
44429SOL    HW135061   8.506  13.369  10.245
44429SOL    HW235062   8.581  13.249  10.190
44430SOL     OW35063   8.318   0.637   1.163
44430SOL    HW135064   8.225   0.657   1.153
44430SOL    HW235065   8.324   0.592   1.247
44431SOL     OW35066   3.951   5.362  11.498
44431SOL    HW135067   4.023   5.320  11.546
44431SOL    HW235068   3.880   5.299  11.503
44432SOL     OW35069   1.893  12.920  11.153
44432SOL    HW135070   1.939  12.879  11.079
44432SOL    HW235071   1.801  12.909  11.132
44433SOL     OW35072  13.450  14.551   0.743
44433SOL    HW135073  13.447  14.539   0.838
44433SOL    HW235074  13.387  14.486   0.709
44434SOL     OW35075   9.296   3.352   2.277
44434SOL    HW135076   9.295   3.443   2.247
44434SOL    HW235077   9.254   3.303   2.206
44435SOL     OW35078   9.438   8.151   3.128
44435SOL    HW135079   9.502   8.217   3.154
44435SOL    HW235080   9.362   8.167   3.184
44436SOL     OW35081   9.385  14.316   4.139
44436SOL    HW135082   9.478  14.296   4.128
44436SOL    HW235083   9.349  14.315   4.050
44437SOL     OW35084   6.257   4.764  12.898
44437SOL    HW135085   6.325   4.823  12.931
44437SOL    HW235086   6.175   4.811  12.912
44438SOL     OW35087   1.211   3.616   8.694
44438SOL    HW135088   1.161   3.672   8.753
44438SOL    HW235089   1.234   3.539   8.747
44439SOL     OW35090  13.311  10.606  10.293
44439SOL    HW135091  13.299  10.654  10.211
44439SOL    HW235092  13.305  10.672  10.361
44440SOL     OW35093  13.882   6.957  12.768
44440SOL    HW135094  13.953   6.904  12.733
44440SOL    HW235095  13.809   6.944  12.707
44441SOL     OW35096  11.365  13.608  10.096
44441SOL    HW135097  11.324  13.528  10.064
44441SOL    HW235098  11.445  13.579  10.138
44442SOL     OW35099   8.802   2.256  11.639
44442SOL    HW135100   8.812   2.327  11.702
44442SOL    HW235101   8.869   2.272  11.573
44443SOL     OW35102   7.052   3.579   2.650
44443SOL    HW135103   7.114   3.533   2.707
44443SOL    HW235104   7.027   3.656   2.701
44444SOL     OW35105  13.523   7.134   7.405
44444SOL    HW135106  13.457   7.139   7.474
44444SOL    HW235107  13.600   7.095   7.448
44445SOL     OW35108   4.367   0.590  10.950
44445SOL    HW135109   4.364   0.680  10.983
44445SOL    HW235110   4.283   0.552  10.975
44446SOL     OW35111  13.517   9.927   3.223
44446SOL    HW135112  13.436   9.978   3.230
44446SOL    HW235113  13.578   9.973   3.281
44447SOL     OW35114   3.005  12.549  14.071
44447SOL    HW135115   3.078  12.582  14.123
44447SOL    HW235116   3.005  12.604  13.992
44448SOL     OW35117  11.304   1.804   9.169
44448SOL    HW135118  11.308   1.712   9.145
44448SOL    HW235119  11.332   1.850   9.089
44449SOL     OW35120  12.173   3.362   4.151
44449SOL    HW135121  12.134   3.294   4.206
44449SOL    HW235122  12.116   3.438   4.165
44450SOL     OW35123   8.425   0.726   7.632
44450SOL    HW135124   8.434   0.639   7.593
44450SOL    HW235125   8.485   0.725   7.707
44451SOL     OW35126  11.793   4.304   2.233
44451SOL    HW135127  11.828   4.221   2.263
44451SOL    HW235128  11.711   4.282   2.189
44452SOL     OW35129   0.910   3.057   6.609
44452SOL    HW135130   0.833   3.082   6.660
44452SOL    HW235131   0.984   3.079   6.665
44453SOL     OW35132   0.557   3.117  10.668
44453SOL    HW135133   0.507   3.191  10.701
44453SOL    HW235134   0.514   3.040  10.705
44454SOL     OW35135   2.526   9.441   8.478
44454SOL    HW135136   2.561   9.525   8.448
44454SOL    HW235137   2.542   9.380   8.406
44455SOL     OW35138  11.456   9.984   4.118
44455SOL    HW135139  11.551   9.968   4.114
44455SOL    HW235140  11.421   9.908   4.164
44456SOL     OW35141   9.688   6.463  13.462
44456SOL    HW135142   9.742   6.531  13.502
44456SOL    HW235143   9.726   6.450  13.375
44457SOL     OW35144   9.247   6.721  11.822
44457SOL    HW135145   9.221   6.689  11.736
44457SOL    HW235146   9.279   6.644  11.868
44458SOL     OW35147  12.498  14.549   2.730
44458SOL    HW135148  12.572  14.571   2.787
44458SOL    HW235149  12.458  14.633   2.708
44459SOL     OW35150  13.920  11.198   5.178
44459SOL    HW135151  13.899  11.109   5.152
44459SOL    HW235152  13.840  11.248   5.160
44460SOL     OW35153   2.275   0.252   2.867
44460SOL    HW135154   2.347   0.315   2.867
44460SOL    HW235155   2.279   0.212   2.954
44461SOL     OW35156   7.200   3.847  14.289
44461SOL    HW135157   7.233   3.924  14.243
44461SOL    HW235158   7.245   3.849  14.374
44462SOL     OW35159  10.494   7.230   3.666
44462SOL    HW135160  10.486   7.312   3.618
44462SOL    HW235161  10.472   7.162   3.603
44463SOL     OW35162   1.859   0.740  14.475
44463SOL    HW135163   1.770   0.773  14.491
44463SOL    HW235164   1.900   0.739  14.561
44464SOL     OW35165  13.199   4.373   2.365
44464SOL    HW135166  13.170   4.417   2.285
44464SOL    HW235167  13.294   4.386   2.367
44465SOL     OW35168   9.595   7.606   5.232
44465SOL    HW135169   9.604   7.549   5.308
44465SOL    HW235170   9.553   7.552   5.165
44466SOL     OW35171  14.439   5.703   0.638
44466SOL    HW135172  14.523   5.724   0.598
44466SOL    HW235173  14.386   5.782   0.626
44467SOL     OW35174  14.655   8.976   8.462
44467SOL    HW135175  14.737   9.003   8.504
44467SOL    HW235176  14.660   8.880   8.461
44468SOL     OW35177   7.670  11.578  12.568
44468SOL    HW135178   7.630  11.610  12.488
44468SOL    HW235179   7.735  11.645  12.592
44469SOL     OW35180  10.827  13.014  10.749
44469SOL    HW135181  10.769  12.940  10.766
44469SOL    HW235182  10.820  13.029  10.655
44470SOL     OW35183  12.793  14.087   7.007
44470SOL    HW135184  12.860  14.052   7.065
44470SOL    HW235185  12.715  14.095   7.062
44471SOL     OW35186  14.556   4.720  12.502
44471SOL    HW135187  14.472   4.765  12.493
44471SOL    HW235188  14.603   4.740  12.421
44472SOL     OW35189   8.759  14.524   0.821
44472SOL    HW135190   8.668  14.547   0.801
44472SOL    HW235191   8.782  14.458   0.755
44473SOL     OW35192   8.050   8.741  14.316
44473SOL    HW135193   8.084   8.821  14.276
44473SOL    HW235194   8.010   8.693  14.243
44474SOL     OW35195  12.507  10.214  13.629
44474SOL    HW135196  12.449  10.196  13.555
44474SOL    HW235197  12.523  10.309  13.624
44475SOL     OW35198   8.639  11.812   9.981
44475SOL    HW135199   8.560  11.842  10.026
44475SOL    HW235200   8.666  11.734  10.030
44476SOL     OW35201   5.550   8.128  13.058
44476SOL    HW135202   5.584   8.195  13.117
44476SOL    HW235203   5.468   8.100  13.099
44477SOL     OW35204  14.017   3.191  13.559
44477SOL    HW135205  14.038   3.156  13.473
44477SOL    HW235206  13.989   3.281  13.542
44478SOL     OW35207  10.226   4.184  12.809
44478SOL    HW135208  10.284   4.142  12.746
44478SOL    HW235209  10.270   4.266  12.832
44479SOL     OW35210   4.784   9.404   1.090
44479SOL    HW135211   4.732   9.480   1.064
44479SOL    HW235212   4.868   9.440   1.117
44480SOL     OW35213  11.449   6.675   5.023
44480SOL    HW135214  11.480   6.755   5.064
44480SOL    HW235215  11.355   6.690   5.008
44481SOL     OW35216  10.884  13.991   3.893
44481SOL    HW135217  10.875  14.036   3.809
44481SOL    HW235218  10.853  13.902   3.876
44482SOL     OW35219   7.887   6.516   3.128
44482SOL    HW135220   7.976   6.490   3.106
44482SOL    HW235221   7.882   6.609   3.104
44483SOL     OW35222   9.628   8.121   7.053
44483SOL    HW135223   9.539   8.095   7.078
44483SOL    HW235224   9.625   8.123   6.957
44484SOL     OW35225   0.161   4.138  11.378
44484SOL    HW135226   0.186   4.180  11.296
44484SOL    HW235227   0.096   4.197  11.416
44485SOL     OW35228   2.366   2.896  14.388
44485SOL    HW135229   2.312   2.948  14.447
44485SOL    HW235230   2.431   2.958  14.354
44486SOL     OW35231   7.591  11.864  12.431
44486SOL    HW135232   7.598  11.879  12.525
44486SOL    HW235233   7.505  11.900  12.407
44487SOL     OW35234   9.289   7.119   8.942
44487SOL    HW135235   9.257   7.197   8.988
44487SOL    HW235236   9.340   7.071   9.007
44488SOL     OW35237   4.173  12.904   9.831
44488SOL    HW135238   4.150  12.976   9.890
44488SOL    HW235239   4.157  12.825   9.882
44489SOL     OW35240   2.793   6.979   5.765
44489SOL    HW135241   2.743   6.920   5.821
44489SOL    HW235242   2.847   6.921   5.711
44490SOL     OW35243   3.965   2.213  14.408
44490SOL    HW135244   4.058   2.234  14.399
44490SOL    HW235245   3.961   2.118  14.404
44491SOL     OW35246  14.688  11.576   9.668
44491SOL    HW135247  14.640  11.493   9.670
44491SOL    HW235248  14.743  11.570   9.590
44492SOL     OW35249   4.221   0.234   7.271
44492SOL    HW135250   4.247   0.181   7.346
44492SOL    HW235251   4.295   0.230   7.211
44493SOL     OW35252   0.960   9.845  11.734
44493SOL    HW135253   0.967   9.918  11.672
44493SOL    HW235254   0.895   9.874  11.797
44494SOL     OW35255   3.063   3.881   1.830
44494SOL    HW135256   3.153   3.912   1.825
44494SOL    HW235257   3.017   3.930   1.761
44495SOL     OW35258   5.423   0.328   5.471
44495SOL    HW135259   5.440   0.396   5.405
44495SOL    HW235260   5.354   0.364   5.526
44496SOL     OW35261   3.105  10.264   7.720
44496SOL    HW135262   3.013  10.288   7.735
44496SOL    HW235263   3.150  10.347   7.708
44497SOL     OW35264   3.233  12.132   8.041
44497SOL    HW135265   3.143  12.113   8.014
44497SOL    HW235266   3.273  12.173   7.965
44498SOL     OW35267   4.517   9.387   5.947
44498SOL    HW135268   4.548   9.305   5.985
44498SOL    HW235269   4.440   9.362   5.896
44499SOL     OW35270  11.391   7.178  12.133
44499SOL    HW135271  11.423   7.182  12.043
44499SOL    HW235272  11.460   7.132  12.181
44500SOL     OW35273   9.227   7.009   8.686
44500SOL    HW135274   9.308   7.012   8.636
44500SOL    HW235275   9.250   7.047   8.771
44501SOL     OW35276   7.712   6.465   1.501
44501SOL    HW135277   7.654   6.507   1.437
44501SOL    HW235278   7.681   6.496   1.586
44502SOL     OW35279   7.222  10.685   7.276
44502SOL    HW135280   7.180  10.648   7.199
44502SOL    HW235281   7.149  10.707   7.335
44503SOL     OW35282   4.948   9.181   8.258
44503SOL    HW135283   5.033   9.160   8.299
44503SOL    HW235284   4.896   9.101   8.269
44504SOL     OW35285   8.352   5.159  11.496
44504SOL    HW135286   8.412   5.183  11.567
44504SOL    HW235287   8.265   5.164  11.536
44505SOL     OW35288  10.654   9.481  13.230
44505SOL    HW135289  10.684   9.416  13.166
44505SOL    HW235290  10.731   9.502  13.282
44506SOL     OW35291   8.681  12.364   8.367
44506SOL    HW135292   8.681  12.307   8.290
44506SOL    HW235293   8.635  12.314   8.434
44507SOL     OW35294   9.656  11.392  14.319
44507SOL    HW135295   9.679  11.443  14.397
44507SOL    HW235296   9.562  11.378  14.327
44508SOL     OW35297  11.175   7.614   4.221
44508SOL    HW135298  11.142   7.563   4.147
44508SOL    HW235299  11.200   7.548   4.286
44509SOL     OW35300  11.020  14.864  11.844
44509SOL    HW135301  11.043  14.781  11.802
44509SOL    HW235302  10.929  14.852  11.873
44510SOL     OW35303   3.196   6.021  10.806
44510SOL    HW135304   3.287   6.027  10.834
44510SOL    HW235305   3.162   6.110  10.814
44511SOL     OW35306   8.600   9.878  14.318
44511SOL    HW135307   8.582   9.784  14.317
44511SOL    HW235308   8.651   9.892  14.398
44512SOL     OW35309   0.216   4.950   9.456
44512SOL    HW135310   0.158   4.957   9.381
44512SOL    HW235311   0.210   5.035   9.500
44513SOL     OW35312  12.546   3.016  14.738
44513SOL    HW135313  12.639   3.015  14.759
44513SOL    HW235314  12.534   3.098  14.690
44514SOL     OW35315   3.222   0.242  14.472
44514SOL    HW135316   3.242   0.257  14.565
44514SOL    HW235317   3.182   0.324  14.443
44515SOL     OW35318   1.601   4.933   6.650
44515SOL    HW135319   1.604   4.944   6.555
44515SOL    HW235320   1.536   4.997   6.679
44516SOL     OW35321   5.610   0.887  14.049
44516SOL    HW135322   5.679   0.846  13.996
44516SOL    HW235323   5.611   0.979  14.023
44517SOL     OW35324  10.864  10.335  10.458
44517SOL    HW135325  10.814  10.391  10.516
44517SOL    HW235326  10.801  10.307  10.391
44518SOL     OW35327   1.937   8.843   1.455
44518SOL    HW135328   2.006   8.887   1.504
44518SOL    HW235329   1.890   8.914   1.410
44519SOL     OW35330   3.769  12.813   3.309
44519SOL    HW135331   3.685  12.771   3.323
44519SOL    HW235332   3.767  12.842   3.218
44520SOL     OW35333  10.310   8.271   6.836
44520SOL    HW135334  10.256   8.274   6.915
44520SOL    HW235335  10.353   8.356   6.832
44521SOL     OW35336   2.986   2.332  14.284
44521SOL    HW135337   3.070   2.348  14.327
44521SOL    HW235338   2.984   2.237  14.269
44522SOL     OW35339  12.668   4.226  12.649
44522SOL    HW135340  12.586   4.214  12.696
44522SOL    HW235341  12.642   4.264  12.565
44523SOL     OW35342   4.324   3.492   5.753
44523SOL    HW135343   4.397   3.439   5.784
44523SOL    HW235344   4.254   3.474   5.816
44524SOL     OW35345  11.215  11.837  14.663
44524SOL    HW135346  11.223  11.849  14.758
44524SOL    HW235347  11.157  11.907  14.635
44525SOL     OW35348   4.005  13.239   3.424
44525SOL    HW135349   4.032  13.325   3.391
44525SOL    HW235350   3.932  13.214   3.367
44526SOL     OW35351   6.848   1.243  11.838
44526SOL    HW135352   6.898   1.231  11.919
44526SOL    HW235353   6.846   1.157  11.797
44527SOL     OW35354  11.242  11.414   1.226
44527SOL    HW135355  11.293  11.339   1.258
44527SOL    HW235356  11.226  11.394   1.134
44528SOL     OW35357   2.711   5.759   2.649
44528SOL    HW135358   2.734   5.689   2.711
44528SOL    HW235359   2.664   5.823   2.703
44529SOL     OW35360  14.756  10.198   2.218
44529SOL    HW135361  14.778  10.202   2.311
44529SOL    HW235362  14.746  10.104   2.200
44530SOL     OW35363   5.171   1.220   1.641
44530SOL    HW135364   5.172   1.309   1.675
44530SOL    HW235365   5.081   1.190   1.655
44531SOL     OW35366  11.340   1.709  12.532
44531SOL    HW135367  11.252   1.673  12.532
44531SOL    HW235368  11.395   1.640  12.495
44532SOL     OW35369   4.693   0.456   7.400
44532SOL    HW135370   4.719   0.381   7.454
44532SOL    HW235371   4.763   0.520   7.414
44533SOL     OW35372   5.752   2.817   3.411
44533SOL    HW135373   5.673   2.766   3.426
44533SOL    HW235374   5.814   2.785   3.477
44534SOL     OW35375   2.434  11.941   2.905
44534SOL    HW135376   2.413  12.001   2.977
44534SOL    HW235377   2.519  11.903   2.929
44535SOL     OW35378   4.830  11.329   5.122
44535SOL    HW135379   4.848  11.291   5.035
44535SOL    HW235380   4.753  11.383   5.109
44536SOL     OW35381   2.482   0.015  11.343
44536SOL    HW135382   2.555  14.841  11.311
44536SOL    HW235383   2.405  14.854  11.302
44537SOL     OW35384  10.300   8.655   7.993
44537SOL    HW135385  10.208   8.629   7.984
44537SOL    HW235386  10.303   8.704   8.075
44538SOL     OW35387   8.449   9.980  13.216
44538SOL    HW135388   8.382   9.918  13.187
44538SOL    HW235389   8.476   9.948  13.302
44539SOL     OW35390   7.727   4.665   9.051
44539SOL    HW135391   7.656   4.656   8.988
44539SOL    HW235392   7.806   4.668   8.997
44540SOL     OW35393  13.927  14.618   7.548
44540SOL    HW135394  13.855  14.679   7.535
44540SOL    HW235395  13.971  14.614   7.463
44541SOL     OW35396   3.970   9.984  14.834
44541SOL    HW135397   3.888  10.032  14.847
44541SOL    HW235398   4.027  10.046  14.787
44542SOL     OW35399   5.520   6.917   8.916
44542SOL    HW135400   5.495   6.940   9.006
44542SOL    HW235401   5.457   6.963   8.861
44543SOL     OW35402   8.408   4.795  12.157
44543SOL    HW135403   8.362   4.877  12.175
44543SOL    HW235404   8.488   4.800  12.209
44544SOL     OW35405   1.796   3.029   1.421
44544SOL    HW135406   1.752   2.987   1.347
44544SOL    HW235407   1.889   3.015   1.405
44545SOL     OW35408  11.070  10.311   1.470
44545SOL    HW135409  11.088  10.335   1.380
44545SOL    HW235410  11.075  10.215   1.471
44546SOL     OW35411  11.389   9.429   3.805
44546SOL    HW135412  11.399   9.343   3.763
44546SOL    HW235413  11.470   9.439   3.856
44547SOL     OW35414  12.933   4.638   7.353
44547SOL    HW135415  12.987   4.614   7.429
44547SOL    HW235416  12.966   4.583   7.282
44548SOL     OW35417   3.869  10.576   7.787
44548SOL    HW135418   3.844  10.548   7.876
44548SOL    HW235419   3.792  10.558   7.734
44549SOL     OW35420  14.442  14.628  14.419
44549SOL    HW135421  14.499  14.558  14.389
44549SOL    HW235422  14.454  14.699  14.355
44550SOL     OW35423   8.314   4.938   0.298
44550SOL    HW135424   8.233   4.975   0.261
44550SOL    HW235425   8.320   4.978   0.385
44551SOL     OW35426   7.729  10.144   5.580
44551SOL    HW135427   7.655  10.092   5.547
44551SOL    HW235428   7.804  10.086   5.573
44552SOL     OW35429  12.873   0.766   6.524
44552SOL    HW135430  12.969   0.770   6.519
44552SOL    HW235431  12.851   0.681   6.485
44553SOL     OW35432   6.617   7.525  10.788
44553SOL    HW135433   6.560   7.552  10.861
44553SOL    HW235434   6.697   7.494  10.830
44554SOL     OW35435   0.064  12.332   8.201
44554SOL    HW135436   0.117  12.339   8.280
44554SOL    HW235437   0.114  12.275   8.143
44555SOL     OW35438   8.066  10.663  14.864
44555SOL    HW135439   8.119  10.627   0.056
44555SOL    HW235440   8.012  10.730   0.028
44556SOL     OW35441  13.481   5.546  12.574
44556SOL    HW135442  13.540   5.516  12.505
44556SOL    HW235443  13.520   5.628  12.605
44557SOL     OW35444   8.456   4.792  10.520
44557SOL    HW135445   8.365   4.815  10.501
44557SOL    HW235446   8.507   4.838  10.452
44558SOL     OW35447   2.358   8.842  12.449
44558SOL    HW135448   2.305   8.887  12.515
44558SOL    HW235449   2.419   8.909  12.418
44559SOL     OW35450   6.242  10.126   1.597
44559SOL    HW135451   6.258  10.207   1.646
44559SOL    HW235452   6.148  10.129   1.578
44560SOL     OW35453   1.136  14.347  11.358
44560SOL    HW135454   1.119  14.286  11.429
44560SOL    HW235455   1.147  14.432  11.401
44561SOL     OW35456  10.394  11.391   3.332
44561SOL    HW135457  10.423  11.438   3.410
44561SOL    HW235458  10.458  11.320   3.322
44562SOL     OW35459   0.643  13.390  12.912
44562SOL    HW135460   0.669  13.404  12.822
44562SOL    HW235461   0.553  13.425  12.917
44563SOL     OW35462  10.778  14.703   8.481
44563SOL    HW135463  10.715  14.705   8.553
44563SOL    HW235464  10.863  14.720   8.523
44564SOL     OW35465   7.735   8.029   3.113
44564SOL    HW135466   7.761   8.121   3.104
44564SOL    HW235467   7.687   8.026   3.195
44565SOL     OW35468   1.400  14.822   0.079
44565SOL    HW135469   1.421   0.014   0.142
44565SOL    HW235470   1.417  14.861  14.871
44566SOL     OW35471   8.034  10.830   4.329
44566SOL    HW135472   7.975  10.879   4.272
44566SOL    HW235473   8.120  10.868   4.313
44567SOL     OW35474   6.929   7.771   2.223
44567SOL    HW135475   6.928   7.806   2.312
44567SOL    HW235476   6.860   7.705   2.223
44568SOL     OW35477   7.051   2.527  13.305
44568SOL    HW135478   7.124   2.466  13.297
44568SOL    HW235479   7.051   2.553  13.397
44569SOL     OW35480  11.978  11.179  11.816
44569SOL    HW135481  11.990  11.147  11.727
44569SOL    HW235482  12.017  11.267  11.814
44570SOL     OW35483   8.808   3.774   2.900
44570SOL    HW135484   8.721   3.789   2.862
44570SOL    HW235485   8.847   3.862   2.905
44571SOL     OW35486   7.362   6.045  10.641
44571SOL    HW135487   7.318   6.063  10.558
44571SOL    HW235488   7.384   6.132  10.675
44572SOL     OW35489  12.744  14.623   9.088
44572SOL    HW135490  12.711  14.541   9.125
44572SOL    HW235491  12.838  14.620   9.103
44573SOL     OW35492   6.181  13.483   0.601
44573SOL    HW135493   6.096  13.525   0.611
44573SOL    HW235494   6.245  13.554   0.607
44574SOL     OW35495   4.555   5.096   6.812
44574SOL    HW135496   4.469   5.107   6.851
44574SOL    HW235497   4.549   5.141   6.727
44575SOL     OW35498  14.706  14.126   4.265
44575SOL    HW135499  14.767  14.058   4.293
44575SOL    HW235500  14.747  14.208   4.293
44576SOL     OW35501   2.639   1.514   7.585
44576SOL    HW135502   2.684   1.479   7.662
44576SOL    HW235503   2.700   1.580   7.551
44577SOL     OW35504   2.393   3.487  11.570
44577SOL    HW135505   2.307   3.477  11.529
44577SOL    HW235506   2.407   3.404  11.617
44578SOL     OW35507  13.906   7.589  13.353
44578SOL    HW135508  13.855   7.583  13.272
44578SOL    HW235509  13.843   7.622  13.418
44579SOL     OW35510   2.982   2.991   8.208
44579SOL    HW135511   3.058   2.947   8.246
44579SOL    HW235512   3.011   3.018   8.120
44580SOL     OW35513  14.353  12.557   9.679
44580SOL    HW135514  14.302  12.568   9.599
44580SOL    HW235515  14.395  12.641   9.693
44581SOL     OW35516  11.519   3.702   1.125
44581SOL    HW135517  11.446   3.650   1.158
44581SOL    HW235518  11.493   3.793   1.139
44582SOL     OW35519  13.879   5.709   3.800
44582SOL    HW135520  13.833   5.671   3.875
44582SOL    HW235521  13.949   5.646   3.781
44583SOL     OW35522   8.217  13.870   6.633
44583SOL    HW135523   8.242  13.780   6.653
44583SOL    HW235524   8.121  13.868   6.631
44584SOL     OW35525  13.497   9.210   2.402
44584SOL    HW135526  13.481   9.272   2.474
44584SOL    HW235527  13.493   9.124   2.443
44585SOL     OW35528   8.638   3.877  10.349
44585SOL    HW135529   8.566   3.814  10.356
44585SOL    HW235530   8.622   3.924  10.268
44586SOL     OW35531   0.480  12.747   0.874
44586SOL    HW135532   0.447  12.662   0.845
44586SOL    HW235533   0.574  12.734   0.884
44587SOL     OW35534  11.548  12.633   4.950
44587SOL    HW135535  11.634  12.633   4.908
44587SOL    HW235536  11.566  12.640   5.044
44588SOL     OW35537   0.716   1.095   7.984
44588SOL    HW135538   0.635   1.141   8.005
44588SOL    HW235539   0.737   1.123   7.895
44589SOL     OW35540  10.086   2.411   5.263
44589SOL    HW135541  10.098   2.501   5.232
44589SOL    HW235542  10.054   2.363   5.187
44590SOL     OW35543   1.651   3.956   2.695
44590SOL    HW135544   1.725   3.896   2.699
44590SOL    HW235545   1.630   3.963   2.602
44591SOL     OW35546   9.105  13.773  10.137
44591SOL    HW135547   9.037  13.776  10.069
44591SOL    HW235548   9.061  13.735  10.213
44592SOL     OW35549  12.002   8.714   7.003
44592SOL    HW135550  11.922   8.746   6.960
44592SOL    HW235551  12.061   8.789   7.003
44593SOL     OW35552   6.475   9.734   2.373
44593SOL    HW135553   6.428   9.661   2.332
44593SOL    HW235554   6.513   9.782   2.300
44594SOL     OW35555  12.455   0.862   8.559
44594SOL    HW135556  12.505   0.839   8.481
44594SOL    HW235557  12.466   0.788   8.618
44595SOL     OW35558   1.036  13.403   9.136
44595SOL    HW135559   1.026  13.419   9.230
44595SOL    HW235560   1.104  13.466   9.110
44596SOL     OW35561  11.387  10.555   0.144
44596SOL    HW135562  11.443  10.546   0.066
44596SOL    HW235563  11.315  10.611   0.115
44597SOL     OW35564   5.216  13.437   6.990
44597SOL    HW135565   5.281  13.453   6.923
44597SOL    HW235566   5.247  13.359   7.037
44598SOL     OW35567  10.215   7.121   4.820
44598SOL    HW135568  10.127   7.147   4.849
44598SOL    HW235569  10.263   7.108   4.901
44599SOL     OW35570   8.014  14.594  11.267
44599SOL    HW135571   8.019  14.687  11.290
44599SOL    HW235572   8.066  14.550  11.334
44600SOL     OW35573   2.041  12.248   0.223
44600SOL    HW135574   1.947  12.266   0.222
44600SOL    HW235575   2.077  12.310   0.287
44601SOL     OW35576  13.350   5.737   0.495
44601SOL    HW135577  13.394   5.777   0.420
44601SOL    HW235578  13.280   5.797   0.517
44602SOL     OW35579   3.439   4.176   8.217
44602SOL    HW135580   3.397   4.256   8.251
44602SOL    HW235581   3.397   4.105   8.265
44603SOL     OW35582  10.777  10.036   6.865
44603SOL    HW135583  10.829   9.968   6.909
44603SOL    HW235584  10.687  10.010   6.880
44604SOL     OW35585  10.944  12.123   7.417
44604SOL    HW135586  10.930  12.143   7.509
44604SOL    HW235587  11.036  12.145   7.401
44605SOL     OW35588   6.190  12.146   6.127
44605SOL    HW135589   6.163  12.192   6.048
44605SOL    HW235590   6.232  12.213   6.181
44606SOL     OW35591   7.074  14.170  12.032
44606SOL    HW135592   7.035  14.145  11.948
44606SOL    HW235593   7.079  14.088  12.082
44607SOL     OW35594  14.177   0.476   3.622
44607SOL    HW135595  14.173   0.537   3.696
44607SOL    HW235596  14.204   0.530   3.548
44608SOL     OW35597  14.735   3.540  10.307
44608SOL    HW135598  14.722   3.580  10.393
44608SOL    HW235599  14.783   3.459  10.326
44609SOL     OW35600   3.024  12.196   4.558
44609SOL    HW135601   2.970  12.236   4.626
44609SOL    HW235602   3.023  12.102   4.578
44610SOL     OW35603   8.367   4.549  11.885
44610SOL    HW135604   8.435   4.483  11.898
44610SOL    HW235605   8.333   4.566  11.973
44611SOL     OW35606  11.614   9.859  10.171
44611SOL    HW135607  11.709   9.866  10.158
44611SOL    HW235608  11.589   9.779  10.126
44612SOL     OW35609   1.545   8.836   2.005
44612SOL    HW135610   1.521   8.830   1.912
44612SOL    HW235611   1.638   8.858   2.005
44613SOL     OW35612  14.094   3.095  13.312
44613SOL    HW135613  14.103   3.158  13.241
44613SOL    HW235614  14.030   3.031  13.280
44614SOL     OW35615   1.334   3.207   6.086
44614SOL    HW135616   1.305   3.174   6.001
44614SOL    HW235617   1.342   3.128   6.140
44615SOL     OW35618   3.927   3.927  14.323
44615SOL    HW135619   3.904   4.010  14.280
44615SOL    HW235620   3.889   3.934  14.410
44616SOL     OW35621   5.219  10.836   4.750
44616SOL    HW135622   5.245  10.916   4.704
44616SOL    HW235623   5.222  10.859   4.843
44617SOL     OW35624  12.004  12.162   9.183
44617SOL    HW135625  11.969  12.156   9.094
44617SOL    HW235626  11.945  12.224   9.228
44618SOL     OW35627   3.704   0.787   6.099
44618SOL    HW135628   3.792   0.751   6.112
44618SOL    HW235629   3.718   0.862   6.040
44619SOL     OW35630  14.537   0.183   6.014
44619SOL    HW135631  14.546   0.088   6.015
44619SOL    HW235632  14.455   0.199   5.968
44620SOL     OW35633   1.676   8.590   6.597
44620SOL    HW135634   1.710   8.675   6.569
44620SOL    HW235635   1.722   8.572   6.680
44621SOL     OW35636   6.955   3.794   7.824
44621SOL    HW135637   6.928   3.878   7.788
44621SOL    HW235638   6.884   3.734   7.803
44622SOL     OW35639  14.563   0.688  11.357
44622SOL    HW135640  14.580   0.643  11.274
44622SOL    HW235641  14.561   0.619  11.423
44623SOL     OW35642  10.724  13.977  12.069
44623SOL    HW135643  10.763  13.919  12.135
44623SOL    HW235644  10.631  13.955  12.070
44624SOL     OW35645   6.323   8.801  11.023
44624SOL    HW135646   6.294   8.723  11.070
44624SOL    HW235647   6.242   8.843  10.995
44625SOL     OW35648   9.079  10.584  13.153
44625SOL    HW135649   9.114  10.609  13.067
44625SOL    HW235650   9.156  10.562  13.205
44626SOL     OW35651  12.061  12.552  12.180
44626SOL    HW135652  11.994  12.483  12.181
44626SOL    HW235653  12.019  12.627  12.222
44627SOL     OW35654   9.103  11.195  11.746
44627SOL    HW135655   9.118  11.288  11.728
44627SOL    HW235656   9.008  11.186  11.745
44628SOL     OW35657   9.873   7.819  13.778
44628SOL    HW135658   9.920   7.867  13.710
44628SOL    HW235659   9.862   7.882  13.848
44629SOL     OW35660   0.535   1.170  11.261
44629SOL    HW135661   0.530   1.131  11.348
44629SOL    HW235662   0.616   1.135  11.224
44630SOL     OW35663   1.827   7.546  13.412
44630SOL    HW135664   1.879   7.484  13.360
44630SOL    HW235665   1.740   7.543  13.371
44631SOL     OW35666   0.189  12.407   0.442
44631SOL    HW135667   0.117  12.347   0.457
44631SOL    HW235668   0.157  12.468   0.377
44632SOL     OW35669   9.869   7.544   3.292
44632SOL    HW135670   9.935   7.594   3.341
44632SOL    HW235671   9.818   7.611   3.246
44633SOL     OW35672  10.045   1.096   3.467
44633SOL    HW135673   9.954   1.125   3.475
44633SOL    HW235674  10.054   1.070   3.376
44634SOL     OW35675  13.329   5.374  14.754
44634SOL    HW135676  13.295   5.450  14.707
44634SOL    HW235677  13.267   5.360  14.826
44635SOL     OW35678   8.098  11.213   2.374
44635SOL    HW135679   8.143  11.208   2.459
44635SOL    HW235680   8.011  11.178   2.391
44636SOL     OW35681   5.155   4.940  11.355
44636SOL    HW135682   5.149   5.036  11.346
44636SOL    HW235683   5.187   4.911  11.270
44637SOL     OW35684   8.255   9.629   7.459
44637SOL    HW135685   8.242   9.722   7.475
44637SOL    HW235686   8.169   9.589   7.475
44638SOL     OW35687   8.732   2.092  14.534
44638SOL    HW135688   8.770   2.032  14.469
44638SOL    HW235689   8.656   2.045  14.568
44639SOL     OW35690   7.148  11.168   6.156
44639SOL    HW135691   7.191  11.090   6.190
44639SOL    HW235692   7.090  11.136   6.087
44640SOL     OW35693  11.331  13.996   0.207
44640SOL    HW135694  11.327  14.036   0.294
44640SOL    HW235695  11.302  14.066   0.148
44641SOL     OW35696   6.862   8.296   3.749
44641SOL    HW135697   6.840   8.389   3.753
44641SOL    HW235698   6.832   8.269   3.662
44642SOL     OW35699   3.635   9.185   0.283
44642SOL    HW135700   3.648   9.219   0.372
44642SOL    HW235701   3.715   9.207   0.237
44643SOL     OW35702   9.511   7.236   0.048
44643SOL    HW135703   9.544   7.168   0.106
44643SOL    HW235704   9.587   7.291   0.029
44644SOL     OW35705   1.301   1.941   4.376
44644SOL    HW135706   1.258   1.873   4.325
44644SOL    HW235707   1.393   1.916   4.376
44645SOL     OW35708  13.330  14.867  11.827
44645SOL    HW135709  13.269  14.849  11.899
44645SOL    HW235710  13.282   0.047  11.768
44646SOL     OW35711   3.896   2.096   4.088
44646SOL    HW135712   3.915   2.032   4.019
44646SOL    HW235713   3.857   2.044   4.158
44647SOL     OW35714   5.890  12.156  10.682
44647SOL    HW135715   5.932  12.166  10.597
44647SOL    HW235716   5.836  12.077  10.674
44648SOL     OW35717  13.691   5.825   3.654
44648SOL    HW135718  13.622   5.759   3.662
44648SOL    HW235719  13.764   5.790   3.705
44649SOL     OW35720   3.007   0.229  12.367
44649SOL    HW135721   3.087   0.264  12.328
44649SOL    HW235722   2.937   0.256  12.307
44650SOL     OW35723  13.254  11.420   2.917
44650SOL    HW135724  13.304  11.466   2.850
44650SOL    HW235725  13.305  11.341   2.934
44651SOL     OW35726   2.312  14.659   5.814
44651SOL    HW135727   2.225  14.635   5.843
44651SOL    HW235728   2.299  14.736   5.758
44652SOL     OW35729   7.573   6.498   0.199
44652SOL    HW135730   7.624   6.487   0.280
44652SOL    HW235731   7.563   6.593   0.190
44653SOL     OW35732  14.626   4.202  10.711
44653SOL    HW135733  14.566   4.134  10.743
44653SOL    HW235734  14.583   4.236  10.632
44654SOL     OW35735   9.076   3.422  10.915
44654SOL    HW135736   9.113   3.340  10.883
44654SOL    HW235737   9.080   3.481  10.840
44655SOL     OW35738  13.219   5.329  11.854
44655SOL    HW135739  13.199   5.399  11.792
44655SOL    HW235740  13.191   5.363  11.939
44656SOL     OW35741   8.892  11.904   0.390
44656SOL    HW135742   8.828  11.858   0.336
44656SOL    HW235743   8.897  11.852   0.471
44657SOL     OW35744   5.612   4.238   2.990
44657SOL    HW135745   5.551   4.287   2.934
44657SOL    HW235746   5.690   4.292   2.992
44658SOL     OW35747   2.791   2.261   4.323
44658SOL    HW135748   2.736   2.205   4.269
44658SOL    HW235749   2.751   2.347   4.318
44659SOL     OW35750   3.371  14.669   6.460
44659SOL    HW135751   3.396  14.678   6.552
44659SOL    HW235752   3.276  14.676   6.460
44660SOL     OW35753   7.476  11.827   3.695
44660SOL    HW135754   7.425  11.747   3.712
44660SOL    HW235755   7.438  11.863   3.615
44661SOL     OW35756   6.450   3.563   2.793
44661SOL    HW135757   6.428   3.615   2.716
44661SOL    HW235758   6.379   3.500   2.801
44662SOL     OW35759   6.825   0.487   0.902
44662SOL    HW135760   6.812   0.512   0.993
44662SOL    HW235761   6.800   0.565   0.852
44663SOL     OW35762  13.155  11.853   4.936
44663SOL    HW135763  13.078  11.896   4.901
44663SOL    HW235764  13.139  11.760   4.924
44664SOL     OW35765   2.253   1.187   8.513
44664SOL    HW135766   2.239   1.099   8.549
44664SOL    HW235767   2.263   1.174   8.419
44665SOL     OW35768   3.781   4.335   6.523
44665SOL    HW135769   3.834   4.405   6.561
44665SOL    HW235770   3.740   4.375   6.447
44666SOL     OW35771   1.799   1.165  11.778
44666SOL    HW135772   1.866   1.102  11.803
44666SOL    HW235773   1.811   1.177  11.684
44667SOL     OW35774   9.369  14.168   4.804
44667SOL    HW135775   9.454  14.182   4.846
44667SOL    HW235776   9.334  14.090   4.848
44668SOL     OW35777   0.196   2.940   2.519
44668SOL    HW135778   0.253   2.887   2.574
44668SOL    HW235779   0.131   2.879   2.485
44669SOL     OW35780   6.714   6.357  10.544
44669SOL    HW135781   6.638   6.414  10.531
44669SOL    HW235782   6.697   6.280  10.490
44670SOL     OW35783   4.285   9.683   4.471
44670SOL    HW135784   4.268   9.593   4.441
44670SOL    HW235785   4.292   9.734   4.391
44671SOL     OW35786   3.088   1.289   6.953
44671SOL    HW135787   3.035   1.266   6.877
44671SOL    HW235788   3.178   1.267   6.928
44672SOL     OW35789  10.340  11.330   9.550
44672SOL    HW135790  10.350  11.419   9.516
44672SOL    HW235791  10.255  11.301   9.518
44673SOL     OW35792  12.900   5.352   1.205
44673SOL    HW135793  12.908   5.272   1.257
44673SOL    HW235794  12.856   5.414   1.264
44674SOL     OW35795  12.184   8.793   6.707
44674SOL    HW135796  12.161   8.729   6.639
44674SOL    HW235797  12.105   8.846   6.717
44675SOL     OW35798   4.379  14.688   1.760
44675SOL    HW135799   4.345  14.611   1.714
44675SOL    HW235800   4.474  14.680   1.753
44676SOL     OW35801  12.668   8.759  11.419
44676SOL    HW135802  12.588   8.707  11.406
44676SOL    HW235803  12.700   8.776  11.330
44677SOL     OW35804   3.520   1.056   4.825
44677SOL    HW135805   3.456   1.021   4.887
44677SOL    HW235806   3.551   1.137   4.864
44678SOL     OW35807   3.445  10.949  14.595
44678SOL    HW135808   3.469  11.040  14.612
44678SOL    HW235809   3.389  10.925  14.670
44679SOL     OW35810   9.376   0.564   7.434
44679SOL    HW135811   9.320   0.562   7.512
44679SOL    HW235812   9.465   0.559   7.469
44680SOL     OW35813   7.395   9.832  12.611
44680SOL    HW135814   7.317   9.886  12.626
44680SOL    HW235815   7.360   9.744  12.594
44681SOL     OW35816   3.503   2.155  14.649
44681SOL    HW135817   3.472   2.070  14.682
44681SOL    HW235818   3.584   2.134  14.602
44682SOL     OW35819  13.921   2.391  11.876
44682SOL    HW135820  13.912   2.342  11.958
44682SOL    HW235821  14.002   2.441  11.888
44683SOL     OW35822   1.298   8.838   8.234
44683SOL    HW135823   1.223   8.855   8.291
44683SOL    HW235824   1.365   8.802   8.292
44684SOL     OW35825  13.653   8.390   0.224
44684SOL    HW135826  13.670   8.434   0.141
44684SOL    HW235827  13.558   8.375   0.224
44685SOL     OW35828   0.090   3.429   7.128
44685SOL    HW135829   0.036   3.494   7.174
44685SOL    HW235830   0.035   3.351   7.123
44686SOL     OW35831  13.453   8.844  11.574
44686SOL    HW135832  13.541   8.839  11.609
44686SOL    HW235833  13.398   8.801  11.639
44687SOL     OW35834   6.865   4.405   4.685
44687SOL    HW135835   6.924   4.333   4.661
44687SOL    HW235836   6.791   4.361   4.727
44688SOL     OW35837   4.779   6.521   1.029
44688SOL    HW135838   4.810   6.569   1.105
44688SOL    HW235839   4.767   6.588   0.961
44689SOL     OW35840  13.895   4.996  10.361
44689SOL    HW135841  13.894   5.091  10.367
44689SOL    HW235842  13.814   4.974  10.314
44690SOL     OW35843   4.414   1.377   7.252
44690SOL    HW135844   4.422   1.303   7.312
44690SOL    HW235845   4.323   1.405   7.261
44691SOL     OW35846   9.206  14.507  11.465
44691SOL    HW135847   9.147  14.548  11.401
44691SOL    HW235848   9.149  14.451  11.517
44692SOL     OW35849   7.341   2.093  14.256
44692SOL    HW135850   7.275   2.091  14.325
44692SOL    HW235851   7.422   2.116  14.301
44693SOL     OW35852   2.603   2.533   0.061
44693SOL    HW135853   2.676   2.593   0.043
44693SOL    HW235854   2.526   2.590   0.066
44694SOL     OW35855   2.477   9.397   2.567
44694SOL    HW135856   2.559   9.444   2.581
44694SOL    HW235857   2.415   9.463   2.537
44695SOL     OW35858   9.919   2.255   5.057
44695SOL    HW135859   9.876   2.172   5.078
44695SOL    HW235860   9.945   2.246   4.966
44696SOL     OW35861   6.263   0.912  14.360
44696SOL    HW135862   6.248   0.822  14.330
44696SOL    HW235863   6.176   0.946  14.378
44697SOL     OW35864   6.492   4.956   6.010
44697SOL    HW135865   6.422   4.953   6.075
44697SOL    HW235866   6.481   5.040   5.966
44698SOL     OW35867  12.871  14.301   5.522
44698SOL    HW135868  12.790  14.327   5.480
44698SOL    HW235869  12.868  14.205   5.523
44699SOL     OW35870   5.074  10.808  12.861
44699SOL    HW135871   5.136  10.770  12.923
44699SOL    HW235872   5.122  10.814  12.779
44700SOL     OW35873  10.986   4.669   2.262
44700SOL    HW135874  10.951   4.691   2.348
44700SOL    HW235875  10.929   4.716   2.200
44701SOL     OW35876   3.861   8.784  12.488
44701SOL    HW135877   3.937   8.837  12.463
44701SOL    HW235878   3.897   8.716  12.545
44702SOL     OW35879  12.443   0.054  14.169
44702SOL    HW135880  12.498   0.006  14.108
44702SOL    HW235881  12.482   0.040  14.255
44703SOL     OW35882   8.063  11.238   6.078
44703SOL    HW135883   8.020  11.313   6.119
44703SOL    HW235884   8.072  11.173   6.147
44704SOL     OW35885   9.977   6.176  10.467
44704SOL    HW135886   9.979   6.128  10.384
44704SOL    HW235887   9.969   6.268  10.442
44705SOL     OW35888   6.482   6.867   4.234
44705SOL    HW135889   6.541   6.915   4.176
44705SOL    HW235890   6.538   6.803   4.278
44706SOL     OW35891  10.262  11.488  14.191
44706SOL    HW135892  10.174  11.518  14.214
44706SOL    HW235893  10.265  11.397  14.221
44707SOL     OW35894   4.046   5.065  12.762
44707SOL    HW135895   4.038   5.160  12.751
44707SOL    HW235896   3.980   5.028  12.703
44708SOL     OW35897  13.716   4.292  11.435
44708SOL    HW135898  13.648   4.274  11.371
44708SOL    HW235899  13.735   4.385  11.425
44709SOL     OW35900   6.516   3.765  12.854
44709SOL    HW135901   6.554   3.851  12.870
44709SOL    HW235902   6.522   3.720  12.938
44710SOL     OW35903   1.391   0.267  11.961
44710SOL    HW135904   1.341   0.347  11.946
44710SOL    HW235905   1.468   0.296  12.010
44711SOL     OW35906   7.070   4.528   1.259
44711SOL    HW135907   6.988   4.514   1.211
44711SOL    HW235908   7.105   4.610   1.224
44712SOL     OW35909   9.220   6.024   4.927
44712SOL    HW135910   9.219   6.111   4.966
44712SOL    HW235911   9.239   6.039   4.834
44713SOL     OW35912  14.620   5.339  11.785
44713SOL    HW135913  14.552   5.293  11.736
44713SOL    HW235914  14.608   5.309  11.876
44714SOL     OW35915  14.435   2.801  10.777
44714SOL    HW135916  14.441   2.801  10.872
44714SOL    HW235917  14.524   2.785  10.746
44715SOL     OW35918   8.589  14.834   5.801
44715SOL    HW135919   8.683  14.820   5.793
44715SOL    HW235920   8.550  14.750   5.776
44716SOL     OW35921   8.807   1.223  11.522
44716SOL    HW135922   8.714   1.207  11.540
44716SOL    HW235923   8.808   1.292  11.456
44717SOL     OW35924  14.040   7.548   7.541
44717SOL    HW135925  14.127   7.511   7.524
44717SOL    HW235926  14.053   7.643   7.536
44718SOL     OW35927   8.758  11.033  11.057
44718SOL    HW135928   8.729  10.945  11.035
44718SOL    HW235929   8.696  11.090  11.012
44719SOL     OW35930   9.055   5.719   2.897
44719SOL    HW135931   9.009   5.759   2.971
44719SOL    HW235932   9.122   5.783   2.872
44720SOL     OW35933   1.917  10.595   2.090
44720SOL    HW135934   1.967  10.515   2.104
44720SOL    HW235935   1.879  10.585   2.003
44721SOL     OW35936   0.207  14.206  13.247
44721SOL    HW135937   0.295  14.189  13.282
44721SOL    HW235938   0.207  14.162  13.162
44722SOL     OW35939   7.922   4.763  10.672
44722SOL    HW135940   7.981   4.689  10.685
44722SOL    HW235941   7.927   4.813  10.753
44723SOL     OW35942  13.185   1.898  11.740
44723SOL    HW135943  13.150   1.825  11.790
44723SOL    HW235944  13.143   1.891  11.654
44724SOL     OW35945   3.384   8.333  11.147
44724SOL    HW135946   3.437   8.254  11.140
44724SOL    HW235947   3.446   8.405  11.142
44725SOL     OW35948  13.897  10.013  14.013
44725SOL    HW135949  13.843   9.934  14.006
44725SOL    HW235950  13.976   9.993  13.962
44726SOL     OW35951  12.752   5.446   0.866
44726SOL    HW135952  12.710   5.423   0.783
44726SOL    HW235953  12.794   5.366   0.895
44727SOL     OW35954   2.945   9.442   7.251
44727SOL    HW135955   2.929   9.531   7.282
44727SOL    HW235956   3.027   9.416   7.293
44728SOL     OW35957   5.378  12.902  14.317
44728SOL    HW135958   5.283  12.912  14.326
44728SOL    HW235959   5.390  12.865  14.230
44729SOL     OW35960   6.046   8.947   1.140
44729SOL    HW135961   6.052   8.888   1.064
44729SOL    HW235962   5.956   8.979   1.139
44730SOL     OW35963   3.208   8.607   6.861
44730SOL    HW135964   3.194   8.698   6.837
44730SOL    HW235965   3.285   8.609   6.918
44731SOL     OW35966  13.100  14.235   4.769
44731SOL    HW135967  13.174  14.291   4.745
44731SOL    HW235968  13.112  14.218   4.863
44732SOL     OW35969  12.383   2.850  10.890
44732SOL    HW135970  12.382   2.762  10.852
44732SOL    HW235971  12.402   2.835  10.982
44733SOL     OW35972  12.266   4.976   0.474
44733SOL    HW135973  12.262   5.055   0.527
44733SOL    HW235974  12.180   4.936   0.482
44734SOL     OW35975   1.363  10.174   4.240
44734SOL    HW135976   1.337  10.139   4.325
44734SOL    HW235977   1.322  10.115   4.177
44735SOL     OW35978  14.416  11.719   6.108
44735SOL    HW135979  14.490  11.686   6.056
44735SOL    HW235980  14.374  11.783   6.051
44736SOL     OW35981   0.504   0.088  13.516
44736SOL    HW135982   0.477  14.877  13.540
44736SOL    HW235983   0.421   0.135  13.504
44737SOL     OW35984   6.180   6.998  14.248
44737SOL    HW135985   6.231   7.078  14.236
44737SOL    HW235986   6.098   7.015  14.202
44738SOL     OW35987   3.905   3.141  13.758
44738SOL    HW135988   3.890   3.055  13.718
44738SOL    HW235989   3.863   3.203  13.697
44739SOL     OW35990  12.919   8.543   7.266
44739SOL    HW135991  12.974   8.467   7.251
44739SOL    HW235992  12.830   8.512   7.247
44740SOL     OW35993   0.707   3.691   6.000
44740SOL    HW135994   0.777   3.697   6.064
44740SOL    HW235995   0.748   3.717   5.917
44741SOL     OW35996   4.947   3.182  10.578
44741SOL    HW135997   4.910   3.270  10.587
44741SOL    HW235998   5.030   3.186  10.626
44742SOL     OW35999   5.026   0.517   9.317
44742SOL    HW136000   4.935   0.492   9.330
44742SOL    HW236001   5.042   0.503   9.224
44743SOL     OW36002   5.966   0.597   9.415
44743SOL    HW136003   5.963   0.690   9.438
44743SOL    HW236004   6.005   0.595   9.328
44744SOL     OW36005  10.280   1.941   1.891
44744SOL    HW136006  10.260   1.902   1.976
44744SOL    HW236007  10.369   1.975   1.900
44745SOL     OW36008  12.734  10.433   2.762
44745SOL    HW136009  12.713  10.362   2.701
44745SOL    HW236010  12.683  10.414   2.840
44746SOL     OW36011   2.094  14.614   8.909
44746SOL    HW136012   2.063  14.640   8.822
44746SOL    HW236013   2.020  14.565   8.946
44747SOL     OW36014   8.376  11.884   7.823
44747SOL    HW136015   8.456  11.908   7.777
44747SOL    HW236016   8.355  11.796   7.790
44748SOL     OW36017  10.136   1.053  11.627
44748SOL    HW136018  10.193   1.057  11.550
44748SOL    HW236019  10.062   1.000  11.598
44749SOL     OW36020   3.256   4.532   0.378
44749SOL    HW136021   3.263   4.627   0.369
44749SOL    HW236022   3.299   4.513   0.462
44750SOL     OW36023  12.769   0.597   2.563
44750SOL    HW136024  12.765   0.649   2.643
44750SOL    HW236025  12.743   0.657   2.494
44751SOL     OW36026  14.086   1.497   6.409
44751SOL    HW136027  14.105   1.428   6.472
44751SOL    HW236028  14.144   1.478   6.335
44752SOL     OW36029   1.661   5.716  13.320
44752SOL    HW136030   1.622   5.732  13.234
44752SOL    HW236031   1.684   5.804  13.352
44753SOL     OW36032  11.749   0.066  10.859
44753SOL    HW136033  11.842   0.062  10.837
44753SOL    HW236034  11.720   0.151  10.827
44754SOL     OW36035   4.629   1.245   1.519
44754SOL    HW136036   4.706   1.233   1.464
44754SOL    HW236037   4.651   1.317   1.577
44755SOL     OW36038   9.753   7.212  12.960
44755SOL    HW136039   9.811   7.143  12.929
44755SOL    HW236040   9.687   7.167  13.013
44756SOL     OW36041   0.219   9.269  12.312
44756SOL    HW136042   0.195   9.329  12.383
44756SOL    HW236043   0.312   9.254  12.325
44757SOL     OW36044   9.647   5.548   9.916
44757SOL    HW136045   9.669   5.556  10.008
44757SOL    HW236046   9.727   5.515   9.875
44758SOL     OW36047   9.180   0.465   9.003
44758SOL    HW136048   9.186   0.393   9.066
44758SOL    HW236049   9.101   0.513   9.029
44759SOL     OW36050   3.767   1.009   1.237
44759SOL    HW136051   3.845   1.026   1.185
44759SOL    HW236052   3.800   0.969   1.318
44760SOL     OW36053   4.066   5.084   4.792
44760SOL    HW136054   4.092   4.993   4.807
44760SOL    HW236055   4.022   5.110   4.874
44761SOL     OW36056  11.458   1.531  10.297
44761SOL    HW136057  11.497   1.478  10.366
44761SOL    HW236058  11.483   1.488  10.216
44762SOL     OW36059  13.555  14.687  14.853
44762SOL    HW136060  13.542  14.743   0.051
44762SOL    HW236061  13.628  14.727  14.806
44763SOL     OW36062   6.590   0.905   5.323
44763SOL    HW136063   6.513   0.850   5.307
44763SOL    HW236064   6.570   0.948   5.407
44764SOL     OW36065   8.050   9.808   4.175
44764SOL    HW136066   7.979   9.862   4.139
44764SOL    HW236067   8.015   9.773   4.256
44765SOL     OW36068  10.897   7.859  13.698
44765SOL    HW136069  10.966   7.821  13.752
44765SOL    HW236070  10.825   7.874  13.758
44766SOL     OW36071   5.820   1.403  14.576
44766SOL    HW136072   5.780   1.477  14.621
44766SOL    HW236073   5.770   1.327  14.606
44767SOL     OW36074  10.009  11.549  14.360
44767SOL    HW136075   9.935  11.550  14.421
44767SOL    HW236076  10.010  11.460  14.324
44768SOL     OW36077   1.427   8.381   5.264
44768SOL    HW136078   1.519   8.377   5.289
44768SOL    HW236079   1.408   8.475   5.256
44769SOL     OW36080  14.113   2.481   4.086
44769SOL    HW136081  14.149   2.461   4.173
44769SOL    HW236082  14.172   2.438   4.025
44770SOL     OW36083   6.329  11.231  10.581
44770SOL    HW136084   6.384  11.260  10.654
44770SOL    HW236085   6.328  11.136  10.588
44771SOL     OW36086  11.365   9.427   7.514
44771SOL    HW136087  11.356   9.516   7.481
44771SOL    HW236088  11.321   9.373   7.448
44772SOL     OW36089   0.412   1.159   7.880
44772SOL    HW136090   0.427   1.065   7.890
44772SOL    HW236091   0.319   1.170   7.898
44773SOL     OW36092  14.710   0.303  12.371
44773SOL    HW136093  14.779   0.366  12.357
44773SOL    HW236094  14.655   0.309  12.293
44774SOL     OW36095   1.911   0.852   6.706
44774SOL    HW136096   1.972   0.825   6.775
44774SOL    HW236097   1.966   0.865   6.629
44775SOL     OW36098   1.136   9.711   1.062
44775SOL    HW136099   1.069   9.756   1.012
44775SOL    HW236100   1.153   9.769   1.137
44776SOL     OW36101   7.660   2.801   8.194
44776SOL    HW136102   7.599   2.853   8.142
44776SOL    HW236103   7.721   2.764   8.130
44777SOL     OW36104  11.317   9.607   4.589
44777SOL    HW136105  11.327   9.603   4.684
44777SOL    HW236106  11.227   9.637   4.576
44778SOL     OW36107   7.676  11.279   9.167
44778SOL    HW136108   7.596  11.231   9.148
44778SOL    HW236109   7.649  11.351   9.224
44779SOL     OW36110   3.868   6.305  13.075
44779SOL    HW136111   3.832   6.391  13.099
44779SOL    HW236112   3.842   6.294  12.983
44780SOL     OW36113   0.035  12.947   2.060
44780SOL    HW136114   0.002  12.859   2.079
44780SOL    HW236115  14.852  13.006   2.105
44781SOL     OW36116  14.302   9.653   1.513
44781SOL    HW136117  14.321   9.594   1.440
44781SOL    HW236118  14.249   9.600   1.573
44782SOL     OW36119  11.380   8.361   8.364
44782SOL    HW136120  11.296   8.391   8.398
44782SOL    HW236121  11.414   8.303   8.432
44783SOL     OW36122   4.561  10.395  11.006
44783SOL    HW136123   4.585  10.480  10.967
44783SOL    HW236124   4.642  10.344  11.004
44784SOL     OW36125   2.735  14.133   2.561
44784SOL    HW136126   2.698  14.136   2.649
44784SOL    HW236127   2.751  14.225   2.539
44785SOL     OW36128   9.295   7.001   3.924
44785SOL    HW136129   9.209   6.961   3.910
44785SOL    HW236130   9.280   7.095   3.915
44786SOL     OW36131   7.513   6.913   7.512
44786SOL    HW136132   7.522   6.937   7.419
44786SOL    HW236133   7.557   6.983   7.559
44787SOL     OW36134   3.056   7.366   3.683
44787SOL    HW136135   3.144   7.365   3.645
44787SOL    HW236136   3.069   7.333   3.772
44788SOL     OW36137   3.618   6.767  12.994
44788SOL    HW136138   3.549   6.759  12.928
44788SOL    HW236139   3.577   6.815  13.066
44789SOL     OW36140   3.009   5.291   9.885
44789SOL    HW136141   2.915   5.277   9.892
44789SOL    HW236142   3.019   5.385   9.875
44790SOL     OW36143   2.191  14.421   3.714
44790SOL    HW136144   2.198  14.515   3.726
44790SOL    HW236145   2.280  14.393   3.692
44791SOL     OW36146   0.577   6.492   1.672
44791SOL    HW136147   0.499   6.437   1.669
44791SOL    HW236148   0.625   6.462   1.750
44792SOL     OW36149   9.964  11.900   8.067
44792SOL    HW136150   9.918  11.983   8.083
44792SOL    HW236151   9.895  11.833   8.074
44793SOL     OW36152  14.730   7.331   5.598
44793SOL    HW136153  14.749   7.424   5.616
44793SOL    HW236154  14.635   7.328   5.590
44794SOL     OW36155   2.817  10.175   7.001
44794SOL    HW136156   2.861  10.098   7.036
44794SOL    HW236157   2.806  10.155   6.907
44795SOL     OW36158  12.119   3.865   7.982
44795SOL    HW136159  12.029   3.842   8.008
44795SOL    HW236160  12.118   3.960   7.973
44796SOL     OW36161  11.153   3.929   0.955
44796SOL    HW136162  11.196   3.882   1.026
44796SOL    HW236163  11.185   4.019   0.962
44797SOL     OW36164   4.669   6.502  11.064
44797SOL    HW136165   4.597   6.453  11.104
44797SOL    HW236166   4.652   6.593  11.087
44798SOL     OW36167  13.904   8.708  12.208
44798SOL    HW136168  13.937   8.632  12.256
44798SOL    HW236169  13.827   8.675  12.162
44799SOL     OW36170   1.353  10.544   5.173
44799SOL    HW136171   1.433  10.507   5.136
44799SOL    HW236172   1.286  10.525   5.107
44800SOL     OW36173   8.495   4.836   3.367
44800SOL    HW136174   8.426   4.828   3.301
44800SOL    HW236175   8.448   4.833   3.451
44801SOL     OW36176   5.343  10.263   9.222
44801SOL    HW136177   5.329  10.211   9.143
44801SOL    HW236178   5.255  10.284   9.253
44802SOL     OW36179   3.141   2.336   2.667
44802SOL    HW136180   3.192   2.258   2.644
44802SOL    HW236181   3.207   2.404   2.682
44803SOL     OW36182   7.279   9.921   0.336
44803SOL    HW136183   7.308   9.970   0.258
44803SOL    HW236184   7.352   9.862   0.355
44804SOL     OW36185  10.471   4.553   2.872
44804SOL    HW136186  10.385   4.596   2.866
44804SOL    HW236187  10.467   4.484   2.805
44805SOL     OW36188   4.391   6.737   4.633
44805SOL    HW136189   4.424   6.802   4.572
44805SOL    HW236190   4.305   6.713   4.598
44806SOL     OW36191   2.674  12.057   4.127
44806SOL    HW136192   2.724  12.002   4.066
44806SOL    HW236193   2.693  12.147   4.099
44807SOL     OW36194   6.700   3.189   5.141
44807SOL    HW136195   6.637   3.179   5.069
44807SOL    HW236196   6.645   3.191   5.220
44808SOL     OW36197   0.382   9.451  12.648
44808SOL    HW136198   0.466   9.460  12.605
44808SOL    HW236199   0.375   9.529  12.704
44809SOL     OW36200   4.076   6.160   0.991
44809SOL    HW136201   4.052   6.247   0.959
44809SOL    HW236202   4.161   6.142   0.950
44810SOL     OW36203   7.258   6.922  10.599
44810SOL    HW136204   7.346   6.928  10.560
44810SOL    HW236205   7.214   6.854  10.547
44811SOL     OW36206  14.307  14.474   7.780
44811SOL    HW136207  14.359  14.394   7.772
44811SOL    HW236208  14.338  14.531   7.709
44812SOL     OW36209   9.557   4.427  12.086
44812SOL    HW136210   9.535   4.400  11.997
44812SOL    HW236211   9.631   4.487  12.075
44813SOL     OW36212  14.133   9.031   7.062
44813SOL    HW136213  14.072   9.036   7.135
44813SOL    HW236214  14.095   8.966   7.003
44814SOL     OW36215   4.822   9.950   0.212
44814SOL    HW136216   4.782   9.923   0.129
44814SOL    HW236217   4.915   9.958   0.191
44815SOL     OW36218  13.995   1.537  12.612
44815SOL    HW136219  14.089   1.527  12.627
44815SOL    HW236220  13.961   1.568  12.696
44816SOL     OW36221   7.110  13.650  11.747
44816SOL    HW136222   7.119  13.699  11.666
44816SOL    HW236223   7.159  13.701  11.812
44817SOL     OW36224   2.345   9.515  13.155
44817SOL    HW136225   2.321   9.603  13.126
44817SOL    HW236226   2.425   9.528  13.205
44818SOL     OW36227   8.998   0.875   6.331
44818SOL    HW136228   9.034   0.892   6.244
44818SOL    HW236229   8.943   0.797   6.319
44819SOL     OW36230   1.175   2.758   9.829
44819SOL    HW136231   1.240   2.821   9.800
44819SOL    HW236232   1.221   2.674   9.832
44820SOL     OW36233   0.748  10.837  14.145
44820SOL    HW136234   0.751  10.887  14.227
44820SOL    HW236235   0.839  10.822  14.123
44821SOL     OW36236  12.909   0.757   1.588
44821SOL    HW136237  12.967   0.799   1.652
44821SOL    HW236238  12.846   0.826   1.564
44822SOL     OW36239   6.767   7.033  11.911
44822SOL    HW136240   6.713   6.955  11.921
44822SOL    HW236241   6.843   7.018  11.968
44823SOL     OW36242  12.393  12.972   6.500
44823SOL    HW136243  12.488  12.961   6.504
44823SOL    HW236244  12.380  13.066   6.506
44824SOL     OW36245   8.920  12.715  12.389
44824SOL    HW136246   8.847  12.686  12.444
44824SOL    HW236247   8.925  12.809  12.403
44825SOL     OW36248   4.308   7.449   3.749
44825SOL    HW136249   4.243   7.514   3.776
44825SOL    HW236250   4.392   7.493   3.759
44826SOL     OW36251   7.153   1.546   6.068
44826SOL    HW136252   7.231   1.577   6.114
44826SOL    HW236253   7.114   1.626   6.032
44827SOL     OW36254  10.508   7.895   3.065
44827SOL    HW136255  10.598   7.926   3.066
44827SOL    HW236256  10.481   7.900   2.973
44828SOL     OW36257  11.639   7.830   3.735
44828SOL    HW136258  11.600   7.857   3.652
44828SOL    HW236259  11.716   7.887   3.744
44829SOL     OW36260   1.011  10.725  10.178
44829SOL    HW136261   0.921  10.710  10.206
44829SOL    HW236262   1.026  10.662  10.108
44830SOL     OW36263   1.750   4.103  10.509
44830SOL    HW136264   1.838   4.139  10.501
44830SOL    HW236265   1.745   4.070  10.599
44831SOL     OW36266   0.472  12.690   7.737
44831SOL    HW136267   0.451  12.619   7.797
44831SOL    HW236268   0.414  12.677   7.662
44832SOL     OW36269  12.655   8.058   3.227
44832SOL    HW136270  12.571   8.017   3.204
44832SOL    HW236271  12.672   8.029   3.317
44833SOL     OW36272  11.508  14.107  11.858
44833SOL    HW136273  11.511  14.015  11.832
44833SOL    HW236274  11.516  14.155  11.776
44834SOL     OW36275   0.974   5.241   3.055
44834SOL    HW136276   1.025   5.175   3.009
44834SOL    HW236277   0.885   5.233   3.019
44835SOL     OW36278  14.280   4.624  14.127
44835SOL    HW136279  14.186   4.641  14.122
44835SOL    HW236280  14.291   4.571  14.206
44836SOL     OW36281  12.229  14.100  13.770
44836SOL    HW136282  12.269  14.033  13.824
44836SOL    HW236283  12.264  14.183  13.803
44837SOL     OW36284  11.370   8.947  14.522
44837SOL    HW136285  11.457   8.916  14.498
44837SOL    HW236286  11.340   8.995  14.446
44838SOL     OW36287  14.119   4.899   7.610
44838SOL    HW136288  14.105   4.810   7.642
44838SOL    HW236289  14.031   4.934   7.598
44839SOL     OW36290  12.540  12.667  12.495
44839SOL    HW136291  12.465  12.655  12.436
44839SOL    HW236292  12.544  12.761  12.510
44840SOL     OW36293   5.177   5.068   5.776
44840SOL    HW136294   5.133   5.152   5.779
44840SOL    HW236295   5.135   5.016   5.845
44841SOL     OW36296   6.332  11.071   7.704
44841SOL    HW136297   6.425  11.049   7.703
44841SOL    HW236298   6.287  10.987   7.710
44842SOL     OW36299  13.912  12.667   1.856
44842SOL    HW136300  13.974  12.596   1.844
44842SOL    HW236301  13.830  12.635   1.817
44843SOL     OW36302  11.052   8.290   1.664
44843SOL    HW136303  11.017   8.339   1.739
44843SOL    HW236304  10.986   8.300   1.596
44844SOL     OW36305  10.043   1.880   0.778
44844SOL    HW136306   9.974   1.895   0.714
44844SOL    HW236307  10.018   1.799   0.822
44845SOL     OW36308  10.554   7.826  13.396
44845SOL    HW136309  10.599   7.805  13.314
44845SOL    HW236310  10.461   7.821  13.374
44846SOL     OW36311   4.909   6.873   1.279
44846SOL    HW136312   4.928   6.846   1.189
44846SOL    HW236313   4.943   6.962   1.285
44847SOL     OW36314  10.136   7.080   1.074
44847SOL    HW136315  10.174   7.093   0.987
44847SOL    HW236316  10.047   7.050   1.056
44848SOL     OW36317   5.735  10.841   8.568
44848SOL    HW136318   5.668  10.847   8.499
44848SOL    HW236319   5.700  10.776   8.629
44849SOL     OW36320  11.105   3.956   2.981
44849SOL    HW136321  11.096   3.992   2.894
44849SOL    HW236322  11.147   4.025   3.032
44850SOL     OW36323   3.398   9.567   1.568
44850SOL    HW136324   3.479   9.555   1.517
44850SOL    HW236325   3.409   9.651   1.612
44851SOL     OW36326  10.338   6.655  14.336
44851SOL    HW136327  10.357   6.645  14.429
44851SOL    HW236328  10.250   6.691  14.333
44852SOL     OW36329   4.327   8.296   4.276
44852SOL    HW136330   4.241   8.269   4.309
44852SOL    HW236331   4.321   8.391   4.268
44853SOL     OW36332   6.788  13.222  13.215
44853SOL    HW136333   6.762  13.132  13.232
44853SOL    HW236334   6.875  13.230  13.255
44854SOL     OW36335   9.592   8.887  14.560
44854SOL    HW136336   9.585   8.909  14.653
44854SOL    HW236337   9.663   8.823  14.555
44855SOL     OW36338   4.692   1.960  14.866
44855SOL    HW136339   4.689   2.042   0.038
44855SOL    HW236340   4.783   1.931  14.872
44856SOL     OW36341   9.476  10.071   0.559
44856SOL    HW136342   9.436  10.040   0.477
44856SOL    HW236343   9.568  10.046   0.551
44857SOL     OW36344   4.042   7.110   0.283
44857SOL    HW136345   4.111   7.046   0.266
44857SOL    HW236346   4.023   7.100   0.377
44858SOL     OW36347   1.053   9.130   5.247
44858SOL    HW136348   1.106   9.203   5.216
44858SOL    HW236349   1.072   9.058   5.186
44859SOL     OW36350  13.366   1.333  13.960
44859SOL    HW136351  13.425   1.289  13.898
44859SOL    HW236352  13.388   1.296  14.045
44860SOL     OW36353   7.055  13.415   1.301
44860SOL    HW136354   7.064  13.328   1.262
44860SOL    HW236355   6.961  13.426   1.314
44861SOL     OW36356  13.830   2.551   8.246
44861SOL    HW136357  13.761   2.506   8.198
44861SOL    HW236358  13.793   2.566   8.333
44862SOL     OW36359   4.228   1.265   2.020
44862SOL    HW136360   4.236   1.176   1.986
44862SOL    HW236361   4.257   1.322   1.949
44863SOL     OW36362   4.064  13.760   1.770
44863SOL    HW136363   4.086  13.739   1.679
44863SOL    HW236364   3.976  13.799   1.765
44864SOL     OW36365   7.881   1.737  11.094
44864SOL    HW136366   7.892   1.698  11.181
44864SOL    HW236367   7.942   1.810  11.092
44865SOL     OW36368  11.582   6.795   2.472
44865SOL    HW136369  11.521   6.764   2.539
44865SOL    HW236370  11.654   6.731   2.474
44866SOL     OW36371  11.481   2.987   0.474
44866SOL    HW136372  11.466   2.931   0.397
44866SOL    HW236373  11.573   2.972   0.496
44867SOL     OW36374   0.369   6.030  14.106
44867SOL    HW136375   0.301   5.963  14.103
44867SOL    HW236376   0.351   6.079  14.186
44868SOL     OW36377  10.188  10.139  11.470
44868SOL    HW136378  10.191  10.203  11.399
44868SOL    HW236379  10.214  10.056  11.429
44869SOL     OW36380   5.820  10.638   0.448
44869SOL    HW136381   5.884  10.601   0.510
44869SOL    HW236382   5.797  10.722   0.486
44870SOL     OW36383   5.008   3.482   6.715
44870SOL    HW136384   5.008   3.565   6.666
44870SOL    HW236385   4.926   3.483   6.764
44871SOL     OW36386   8.429  13.568   0.792
44871SOL    HW136387   8.514  13.589   0.752
44871SOL    HW236388   8.423  13.473   0.788
44872SOL     OW36389  11.942   0.104  11.815
44872SOL    HW136390  11.912   0.030  11.867
44872SOL    HW236391  12.014   0.141  11.866
44873SOL     OW36392   9.891   8.333  14.511
44873SOL    HW136393   9.984   8.355  14.506
44873SOL    HW236394   9.860   8.339  14.420
44874SOL     OW36395   9.706   1.173   1.816
44874SOL    HW136396   9.750   1.250   1.852
44874SOL    HW236397   9.761   1.099   1.841
44875SOL     OW36398   8.607  11.779   4.734
44875SOL    HW136399   8.627  11.828   4.814
44875SOL    HW236400   8.575  11.695   4.765
44876SOL     OW36401   3.082   6.712   1.420
44876SOL    HW136402   3.044   6.626   1.435
44876SOL    HW236403   3.164   6.712   1.469
44877SOL     OW36404   9.756   1.479   3.047
44877SOL    HW136405   9.832   1.451   2.995
44877SOL    HW236406   9.732   1.401   3.097
44878SOL     OW36407  12.851   1.563  11.834
44878SOL    HW136408  12.812   1.641  11.795
44878SOL    HW236409  12.820   1.563  11.924
44879SOL     OW36410  14.071  11.927  14.372
44879SOL    HW136411  14.019  11.979  14.433
44879SOL    HW236412  14.150  11.906  14.420
44880SOL     OW36413   1.678   8.284   0.673
44880SOL    HW136414   1.622   8.213   0.641
44880SOL    HW236415   1.658   8.357   0.614
44881SOL     OW36416   6.777   0.312  13.764
44881SOL    HW136417   6.777   0.217  13.770
44881SOL    HW236418   6.693   0.334  13.725
44882SOL     OW36419  13.518   5.388   3.030
44882SOL    HW136420  13.611   5.365   3.033
44882SOL    HW236421  13.478   5.319   2.977
44883SOL     OW36422   7.858  14.715   5.838
44883SOL    HW136423   7.832  14.650   5.773
44883SOL    HW236424   7.931  14.675   5.885
44884SOL     OW36425   8.061  12.968  12.547
44884SOL    HW136426   8.132  12.910  12.573
44884SOL    HW236427   7.991  12.949  12.609
44885SOL     OW36428  10.979   9.771  11.287
44885SOL    HW136429  11.024   9.748  11.368
44885SOL    HW236430  10.905   9.825  11.314
44886SOL     OW36431   0.762  10.730  12.708
44886SOL    HW136432   0.780  10.800  12.771
44886SOL    HW236433   0.690  10.681  12.747
44887SOL     OW36434   3.189   8.869   9.291
44887SOL    HW136435   3.175   8.917   9.373
44887SOL    HW236436   3.128   8.795   9.295
44888SOL     OW36437   7.487  10.056   4.258
44888SOL    HW136438   7.532  10.024   4.180
44888SOL    HW236439   7.487   9.982   4.319
44889SOL     OW36440   1.011   4.475   1.388
44889SOL    HW136441   1.077   4.499   1.324
44889SOL    HW236442   1.053   4.408   1.443
44890SOL     OW36443   9.146   9.515   0.804
44890SOL    HW136444   9.057   9.492   0.777
44890SOL    HW236445   9.158   9.605   0.774
44891SOL     OW36446   0.525   1.626  14.541
44891SOL    HW136447   0.463   1.688  14.502
44891SOL    HW236448   0.611   1.660  14.515
44892SOL     OW36449   8.296   5.295   2.564
44892SOL    HW136450   8.271   5.240   2.639
44892SOL    HW236451   8.217   5.346   2.544
44893SOL     OW36452   4.566  12.402   2.715
44893SOL    HW136453   4.654  12.421   2.684
44893SOL    HW236454   4.579  12.352   2.795
44894SOL     OW36455   8.072  13.770  14.653
44894SOL    HW136456   8.085  13.686  14.697
44894SOL    HW236457   8.090  13.835  14.720
44895SOL     OW36458   8.341   7.353   9.997
44895SOL    HW136459   8.374   7.440   9.976
44895SOL    HW236460   8.246   7.364  10.002
44896SOL     OW36461  13.532   7.199   0.334
44896SOL    HW136462  13.540   7.147   0.254
44896SOL    HW236463  13.462   7.156   0.383
44897SOL     OW36464   6.516   7.422   8.457
44897SOL    HW136465   6.432   7.468   8.452
44897SOL    HW236466   6.529   7.405   8.550
44898SOL     OW36467   2.749   2.029  12.137
44898SOL    HW136468   2.842   2.036  12.159
44898SOL    HW236469   2.719   1.951  12.185
44899SOL     OW36470  14.361   1.648   3.833
44899SOL    HW136471  14.429   1.716   3.826
44899SOL    HW236472  14.295   1.687   3.891
44900SOL     OW36473   5.255   0.951  11.666
44900SOL    HW136474   5.251   1.000  11.748
44900SOL    HW236475   5.232   1.015  11.599
44901SOL     OW36476   0.587  13.317   1.925
44901SOL    HW136477   0.542  13.398   1.900
44901SOL    HW236478   0.602  13.326   2.019
44902SOL     OW36479   4.601   7.796   0.348
44902SOL    HW136480   4.561   7.848   0.418
44902SOL    HW236481   4.576   7.841   0.267
44903SOL     OW36482   2.073   4.196   6.237
44903SOL    HW136483   2.113   4.132   6.297
44903SOL    HW236484   1.980   4.173   6.236
44904SOL     OW36485  11.147  12.794   2.642
44904SOL    HW136486  11.095  12.776   2.720
44904SOL    HW236487  11.158  12.889   2.641
44905SOL     OW36488  10.288   3.941  14.503
44905SOL    HW136489  10.318   4.025  14.467
44905SOL    HW236490  10.213   3.917  14.448
44906SOL     OW36491   1.793  11.026   6.993
44906SOL    HW136492   1.815  11.083   7.068
44906SOL    HW236493   1.698  11.020   6.995
44907SOL     OW36494   9.676   1.119   8.293
44907SOL    HW136495   9.616   1.131   8.366
44907SOL    HW236496   9.640   1.046   8.242
44908SOL     OW36497  10.770  14.352   5.321
44908SOL    HW136498  10.822  14.275   5.296
44908SOL    HW236499  10.724  14.377   5.242
44909SOL     OW36500   6.891   5.124   4.227
44909SOL    HW136501   6.880   5.145   4.134
44909SOL    HW236502   6.838   5.045   4.240
44910SOL     OW36503   2.517   1.018   6.532
44910SOL    HW136504   2.432   1.055   6.555
44910SOL    HW236505   2.564   1.012   6.616
44911SOL     OW36506   0.066   8.043   6.036
44911SOL    HW136507   0.009   8.044   5.959
44911SOL    HW236508   0.127   8.116   6.022
44912SOL     OW36509  10.250   7.565   4.690
44912SOL    HW136510  10.261   7.651   4.651
44912SOL    HW236511  10.179   7.575   4.752
44913SOL     OW36512  10.375   1.188  13.207
44913SOL    HW136513  10.467   1.212  13.201
44913SOL    HW236514  10.328   1.270  13.193
44914SOL     OW36515  11.311   0.781   6.185
44914SOL    HW136516  11.245   0.718   6.214
44914SOL    HW236517  11.310   0.774   6.089
44915SOL     OW36518   9.433   9.398   5.070
44915SOL    HW136519   9.445   9.342   5.147
44915SOL    HW236520   9.362   9.356   5.021
44916SOL     OW36521   6.870  11.486  11.314
44916SOL    HW136522   6.801  11.424  11.340
44916SOL    HW236523   6.861  11.493  11.219
44917SOL     OW36524   6.598   8.960   8.738
44917SOL    HW136525   6.623   8.894   8.674
44917SOL    HW236526   6.507   8.940   8.758
44918SOL     OW36527  13.870   0.448  14.810
44918SOL    HW136528  13.935   0.517  14.793
44918SOL    HW236529  13.923   0.370  14.830
44919SOL     OW36530   1.852   3.997  11.593
44919SOL    HW136531   1.823   3.949  11.515
44919SOL    HW236532   1.948   3.995  11.587
44920SOL     OW36533   1.280  10.767   1.822
44920SOL    HW136534   1.289  10.682   1.780
44920SOL    HW236535   1.296  10.749   1.915
44921SOL     OW36536  14.403  12.586  13.206
44921SOL    HW136537  14.448  12.634  13.136
44921SOL    HW236538  14.418  12.639  13.284
44922SOL     OW36539   8.805   9.115   0.378
44922SOL    HW136540   8.762   9.054   0.438
44922SOL    HW236541   8.822   9.193   0.430
44923SOL     OW36542   6.313  11.645  11.321
44923SOL    HW136543   6.315  11.606  11.234
44923SOL    HW236544   6.327  11.738  11.305
44924SOL     OW36545   4.739  13.737   7.434
44924SOL    HW136546   4.666  13.676   7.451
44924SOL    HW236547   4.786  13.697   7.361
44925SOL     OW36548   0.480   6.658  11.108
44925SOL    HW136549   0.529   6.601  11.168
44925SOL    HW236550   0.477   6.742  11.153
44926SOL     OW36551  14.370   4.959  14.317
44926SOL    HW136552  14.336   4.995  14.235
44926SOL    HW236553  14.451   5.008  14.334
44927SOL     OW36554   9.100   1.613   4.409
44927SOL    HW136555   9.126   1.705   4.415
44927SOL    HW236556   9.069   1.591   4.497
44928SOL     OW36557   6.381   1.727   0.660
44928SOL    HW136558   6.317   1.726   0.590
44928SOL    HW236559   6.406   1.636   0.671
44929SOL     OW36560   1.230  11.137   1.467
44929SOL    HW136561   1.214  11.047   1.495
44929SOL    HW236562   1.297  11.169   1.527
44930SOL     OW36563   1.230   5.489   0.420
44930SOL    HW136564   1.249   5.431   0.346
44930SOL    HW236565   1.302   5.472   0.482
44931SOL     OW36566  11.185   6.902   3.333
44931SOL    HW136567  11.254   6.960   3.301
44931SOL    HW236568  11.203   6.891   3.426
44932SOL     OW36569   1.009   1.406   3.857
44932SOL    HW136570   0.979   1.436   3.771
44932SOL    HW236571   0.996   1.311   3.855
44933SOL     OW36572   3.252  12.604  13.340
44933SOL    HW136573   3.330  12.549  13.331
44933SOL    HW236574   3.196  12.556  13.401
44934SOL     OW36575  12.417   4.254   4.400
44934SOL    HW136576  12.437   4.227   4.311
44934SOL    HW236577  12.326   4.225   4.414
44935SOL     OW36578   0.990   3.902  13.578
44935SOL    HW136579   1.074   3.901  13.532
44935SOL    HW236580   0.932   3.848  13.524
44936SOL     OW36581  13.787   9.435   5.356
44936SOL    HW136582  13.788   9.481   5.272
44936SOL    HW236583  13.878   9.437   5.386
44937SOL     OW36584   4.987   2.746  11.793
44937SOL    HW136585   4.991   2.808  11.866
44937SOL    HW236586   4.898   2.712  11.796
44938SOL     OW36587   0.402   6.867   8.531
44938SOL    HW136588   0.450   6.839   8.453
44938SOL    HW236589   0.391   6.787   8.583
44939SOL     OW36590   7.906   5.845   6.154
44939SOL    HW136591   7.925   5.767   6.101
44939SOL    HW236592   7.931   5.918   6.097
44940SOL     OW36593   2.784  12.928   5.056
44940SOL    HW136594   2.848  12.902   5.123
44940SOL    HW236595   2.755  13.014   5.083
44941SOL     OW36596   9.922   6.960   4.340
44941SOL    HW136597   9.939   7.054   4.329
44941SOL    HW236598   9.827   6.955   4.352
44942SOL     OW36599   0.583   0.432   9.712
44942SOL    HW136600   0.512   0.378   9.746
44942SOL    HW236601   0.544   0.518   9.699
44943SOL     OW36602   0.964   1.477   8.596
44943SOL    HW136603   1.053   1.502   8.620
44943SOL    HW236604   0.975   1.401   8.538
44944SOL     OW36605  12.836   0.991  12.921
44944SOL    HW136606  12.775   1.019  12.990
44944SOL    HW236607  12.839   1.065  12.860
44945SOL     OW36608  12.716   6.971   3.806
44945SOL    HW136609  12.788   6.911   3.787
44945SOL    HW236610  12.670   6.980   3.723
44946SOL     OW36611   7.790   4.682   8.187
44946SOL    HW136612   7.846   4.646   8.256
44946SOL    HW236613   7.731   4.611   8.163
44947SOL     OW36614   2.348   2.656   3.375
44947SOL    HW136615   2.360   2.562   3.362
44947SOL    HW236616   2.259   2.673   3.345
44948SOL     OW36617   0.338   7.991   2.419
44948SOL    HW136618   0.332   7.960   2.510
44948SOL    HW236619   0.267   7.947   2.373
44949SOL     OW36620   8.214   1.671   7.831
44949SOL    HW136621   8.226   1.666   7.926
44949SOL    HW236622   8.147   1.606   7.812
44950SOL     OW36623  13.948   1.760   5.105
44950SOL    HW136624  13.885   1.797   5.166
44950SOL    HW236625  13.949   1.666   5.124
44951SOL     OW36626   9.357   0.838   8.570
44951SOL    HW136627   9.357   0.928   8.537
44951SOL    HW236628   9.450   0.813   8.570
44952SOL     OW36629  10.893   8.892  13.521
44952SOL    HW136630  10.871   8.923  13.433
44952SOL    HW236631  10.988   8.880  13.519
44953SOL     OW36632  12.304   8.934   7.256
44953SOL    HW136633  12.304   8.944   7.160
44953SOL    HW236634  12.297   8.839   7.269
44954SOL     OW36635  14.648   5.199   8.568
44954SOL    HW136636  14.581   5.147   8.611
44954SOL    HW236637  14.679   5.259   8.636
44955SOL     OW36638   0.333  12.445   0.113
44955SOL    HW136639   0.403  12.436   0.177
44955SOL    HW236640   0.372  12.494   0.040
44956SOL     OW36641  10.250   9.422   7.578
44956SOL    HW136642  10.206   9.361   7.518
44956SOL    HW236643  10.342   9.398   7.572
44957SOL     OW36644   7.921   3.303   6.092
44957SOL    HW136645   7.893   3.371   6.030
44957SOL    HW236646   7.842   3.281   6.141
44958SOL     OW36647   3.082  12.328  11.604
44958SOL    HW136648   3.030  12.355  11.680
44958SOL    HW236649   3.113  12.410  11.566
44959SOL     OW36650   7.653   6.284   2.487
44959SOL    HW136651   7.735   6.329   2.506
44959SOL    HW236652   7.601   6.349   2.440
44960SOL     OW36653   4.537   5.797  11.607
44960SOL    HW136654   4.505   5.717  11.649
44960SOL    HW236655   4.597   5.766  11.539
44961SOL     OW36656  13.005  12.321   9.341
44961SOL    HW136657  12.993  12.354   9.252
44961SOL    HW236658  13.038  12.232   9.330
44962SOL     OW36659  10.052   5.289   0.533
44962SOL    HW136660   9.979   5.339   0.498
44962SOL    HW236661  10.089   5.344   0.602
44963SOL     OW36662   5.164   2.528   7.499
44963SOL    HW136663   5.142   2.574   7.580
44963SOL    HW236664   5.205   2.594   7.444
44964SOL     OW36665   7.175   7.510   6.938
44964SOL    HW136666   7.166   7.429   6.888
44964SOL    HW236667   7.215   7.484   7.021
44965SOL     OW36668   8.173  11.142   0.070
44965SOL    HW136669   8.134  11.098   0.146
44965SOL    HW236670   8.266  11.147   0.091
44966SOL     OW36671   4.150  14.097   1.276
44966SOL    HW136672   4.239  14.061   1.269
44966SOL    HW236673   4.133  14.102   1.370
44967SOL     OW36674   6.865   4.052   4.934
44967SOL    HW136675   6.874   4.056   5.029
44967SOL    HW236676   6.788   3.998   4.919
44968SOL     OW36677   4.409  14.483  10.650
44968SOL    HW136678   4.497  14.458  10.678
44968SOL    HW236679   4.424  14.550  10.583
44969SOL     OW36680   3.841   3.200  14.068
44969SOL    HW136681   3.902   3.228  14.136
44969SOL    HW236682   3.896   3.158  14.002
44970SOL     OW36683   7.040   0.436   4.147
44970SOL    HW136684   7.046   0.399   4.235
44970SOL    HW236685   6.947   0.459   4.138
44971SOL     OW36686   5.657   5.080  12.605
44971SOL    HW136687   5.673   5.135  12.528
44971SOL    HW236688   5.569   5.103  12.633
44972SOL     OW36689   0.209  10.431   5.820
44972SOL    HW136690   0.117  10.418   5.797
44972SOL    HW236691   0.258  10.412   5.740
44973SOL     OW36692   8.058   0.583   5.583
44973SOL    HW136693   8.105   0.540   5.512
44973SOL    HW236694   7.970   0.546   5.580
44974SOL     OW36695  14.014   5.277   7.511
44974SOL    HW136696  14.092   5.256   7.458
44974SOL    HW236697  14.019   5.371   7.525
44975SOL     OW36698  13.074  10.648   4.167
44975SOL    HW136699  13.166  10.623   4.174
44975SOL    HW236700  13.026  10.565   4.172
44976SOL     OW36701  12.218  11.155   4.806
44976SOL    HW136702  12.191  11.064   4.798
44976SOL    HW236703  12.202  11.177   4.898
44977SOL     OW36704   4.884   1.949  11.632
44977SOL    HW136705   4.862   1.879  11.693
44977SOL    HW236706   4.865   2.029  11.681
44978SOL     OW36707  12.561   8.620  10.738
44978SOL    HW136708  12.523   8.668  10.664
44978SOL    HW236709  12.588   8.536  10.700
44979SOL     OW36710   4.175   2.629   1.109
44979SOL    HW136711   4.087   2.608   1.140
44979SOL    HW236712   4.161   2.682   1.030
44980SOL     OW36713  10.323   9.349   5.316
44980SOL    HW136714  10.255   9.304   5.267
44980SOL    HW236715  10.282   9.431   5.344
44981SOL     OW36716  14.132   0.056   7.439
44981SOL    HW136717  14.084  14.878   7.378
44981SOL    HW236718  14.116   0.018   7.525
44982SOL     OW36719   5.229   3.198   7.288
44982SOL    HW136720   5.203   3.260   7.220
44982SOL    HW236721   5.236   3.114   7.243
44983SOL     OW36722  12.599  11.810   5.475
44983SOL    HW136723  12.527  11.872   5.481
44983SOL    HW236724  12.573  11.738   5.533
44984SOL     OW36725  13.756  11.926   4.427
44984SOL    HW136726  13.710  11.972   4.357
44984SOL    HW236727  13.843  11.907   4.390
44985SOL     OW36728   7.332   1.124   0.393
44985SOL    HW136729   7.240   1.098   0.389
44985SOL    HW236730   7.340   1.194   0.328
44986SOL     OW36731   8.276  13.458  14.179
44986SOL    HW136732   8.268  13.380  14.233
44986SOL    HW236733   8.348  13.439  14.119
44987SOL     OW36734   3.211   7.073  12.768
44987SOL    HW136735   3.282   7.010  12.775
44987SOL    HW236736   3.136   7.031  12.812
44988SOL     OW36737  12.018  13.947  13.750
44988SOL    HW136738  12.049  13.857  13.761
44988SOL    HW236739  12.098  13.999  13.738
44989SOL     OW36740   7.759   2.962   1.459
44989SOL    HW136741   7.730   3.024   1.527
44989SOL    HW236742   7.821   2.905   1.504
44990SOL     OW36743   3.064   8.998   0.175
44990SOL    HW136744   3.125   9.027   0.243
44990SOL    HW236745   2.985   8.974   0.223
44991SOL     OW36746  13.178   0.305  12.995
44991SOL    HW136747  13.243   0.348  12.940
44991SOL    HW236748  13.111   0.372  13.010
44992SOL     OW36749  10.759   6.238   9.337
44992SOL    HW136750  10.667   6.261   9.328
44992SOL    HW236751  10.764   6.188   9.418
44993SOL     OW36752  13.207  13.900   6.773
44993SOL    HW136753  13.273  13.913   6.704
44993SOL    HW236754  13.203  13.984   6.818
44994SOL     OW36755  10.325  10.843   4.018
44994SOL    HW136756  10.360  10.816   3.933
44994SOL    HW236757  10.400  10.839   4.077
44995SOL     OW36758  14.296   0.790   1.468
44995SOL    HW136759  14.282   0.699   1.492
44995SOL    HW236760  14.390   0.804   1.477
44996SOL     OW36761   3.117   6.446  11.583
44996SOL    HW136762   3.130   6.371  11.641
44996SOL    HW236763   3.043   6.421  11.527
44997SOL     OW36764  11.409   3.122   9.625
44997SOL    HW136765  11.424   3.027   9.629
44997SOL    HW236766  11.374   3.144   9.711
44998SOL     OW36767  13.910  14.660  11.133
44998SOL    HW136768  14.003  14.669  11.153
44998SOL    HW236769  13.870  14.739  11.169
44999SOL     OW36770  11.300  11.519   6.635
44999SOL    HW136771  11.267  11.584   6.698
44999SOL    HW236772  11.301  11.437   6.685
45000SOL     OW36773   6.752   9.327   4.003
45000SOL    HW136774   6.704   9.406   3.980
45000SOL    HW236775   6.826   9.325   3.943
45001SOL     OW36776   0.595  14.378   0.199
45001SOL    HW136777   0.639  14.345   0.121
45001SOL    HW236778   0.502  14.363   0.183
45002SOL     OW36779   3.033   1.341   5.424
45002SOL    HW136780   3.105   1.380   5.472
45002SOL    HW236781   3.050   1.247   5.426
45003SOL     OW36782   7.008   4.629  10.220
45003SOL    HW136783   7.063   4.577  10.278
45003SOL    HW236784   7.068   4.694  10.181
45004SOL     OW36785   2.962   2.673   2.112
45004SOL    HW136786   2.961   2.757   2.066
45004SOL    HW236787   2.879   2.672   2.160
45005SOL     OW36788  12.672   4.082   7.659
45005SOL    HW136789  12.693   4.148   7.726
45005SOL    HW236790  12.603   4.123   7.606
45006SOL     OW36791  11.933  13.860   0.651
45006SOL    HW136792  11.972  13.939   0.613
45006SOL    HW236793  11.868  13.833   0.586
45007SOL     OW36794   0.051  10.397   2.893
45007SOL    HW136795   0.064  10.432   2.981
45007SOL    HW236796  14.834  10.389   2.884
45008SOL     OW36797   6.953   3.116   5.150
45008SOL    HW136798   6.981   3.105   5.059
45008SOL    HW236799   6.858   3.114   5.147
45009SOL     OW36800  12.192   2.917   9.634
45009SOL    HW136801  12.286   2.898   9.639
45009SOL    HW236802  12.187   3.011   9.621
45010SOL     OW36803  14.710   5.189   0.698
45010SOL    HW136804  14.619   5.196   0.669
45010SOL    HW236805  14.715   5.245   0.775
45011SOL     OW36806   4.291  12.385   2.476
45011SOL    HW136807   4.362  12.449   2.471
45011SOL    HW236808   4.295  12.353   2.566
45012SOL     OW36809  11.987  12.994   9.251
45012SOL    HW136810  12.010  13.087   9.250
45012SOL    HW236811  11.924  12.986   9.323
45013SOL     OW36812   4.178   7.439   9.893
45013SOL    HW136813   4.083   7.450   9.896
45013SOL    HW236814   4.212   7.513   9.944
45014SOL     OW36815  11.633   2.057  11.246
45014SOL    HW136816  11.592   2.079  11.330
45014SOL    HW236817  11.724   2.088  11.256
45015SOL     OW36818   4.302   9.087   7.138
45015SOL    HW136819   4.289   9.178   7.165
45015SOL    HW236820   4.363   9.052   7.202
45016SOL     OW36821   2.718  12.553   7.050
45016SOL    HW136822   2.757  12.482   7.102
45016SOL    HW236823   2.794  12.605   7.021
45017SOL     OW36824   8.594  11.248   9.053
45017SOL    HW136825   8.675  11.280   9.092
45017SOL    HW236826   8.549  11.328   9.025
45018SOL     OW36827  13.794   7.686   2.554
45018SOL    HW136828  13.786   7.591   2.550
45018SOL    HW236829  13.867   7.707   2.495
45019SOL     OW36830  13.915   0.082   5.357
45019SOL    HW136831  13.871   0.158   5.320
45019SOL    HW236832  13.845   0.019   5.375
45020SOL     OW36833  12.295   5.723  14.753
45020SOL    HW136834  12.330   5.799  14.798
45020SOL    HW236835  12.207   5.750  14.726
45021SOL     OW36836   1.395   6.129   7.121
45021SOL    HW136837   1.348   6.138   7.037
45021SOL    HW236838   1.393   6.035   7.139
45022SOL     OW36839   1.711   1.307   9.943
45022SOL    HW136840   1.650   1.363   9.894
45022SOL    HW236841   1.675   1.304  10.032
45023SOL     OW36842   6.485  11.342   6.421
45023SOL    HW136843   6.519  11.362   6.334
45023SOL    HW236844   6.510  11.417   6.475
45024SOL     OW36845  13.077   8.732   9.160
45024SOL    HW136846  13.135   8.766   9.092
45024SOL    HW236847  13.043   8.810   9.204
45025SOL     OW36848   1.360  12.400   8.356
45025SOL    HW136849   1.361  12.436   8.445
45025SOL    HW236850   1.278  12.350   8.352
45026SOL     OW36851   8.867   7.041   0.184
45026SOL    HW136852   8.923   7.009   0.112
45026SOL    HW236853   8.824   6.963   0.218
45027SOL     OW36854  13.327  12.953   2.219
45027SOL    HW136855  13.319  12.895   2.295
45027SOL    HW236856  13.418  12.944   2.192
45028SOL     OW36857  12.625   1.982  12.374
45028SOL    HW136858  12.581   1.949  12.295
45028SOL    HW236859  12.715   1.952  12.365
45029SOL     OW36860   1.202   0.863   4.762
45029SOL    HW136861   1.157   0.927   4.818
45029SOL    HW236862   1.173   0.778   4.794
45030SOL     OW36863   0.740   1.954   7.679
45030SOL    HW136864   0.788   2.016   7.734
45030SOL    HW236865   0.765   1.976   7.590
45031SOL     OW36866  14.778   7.189   5.366
45031SOL    HW136867  14.782   7.094   5.378
45031SOL    HW236868  14.767   7.223   5.455
45032SOL     OW36869   4.582  12.558  13.610
45032SOL    HW136870   4.653  12.496  13.619
45032SOL    HW236871   4.547  12.542  13.522
45033SOL     OW36872   8.536   2.679   4.309
45033SOL    HW136873   8.531   2.584   4.301
45033SOL    HW236874   8.552   2.695   4.402
45034SOL     OW36875   8.466  14.868   8.910
45034SOL    HW136876   8.550  14.855   8.866
45034SOL    HW236877   8.456   0.085   8.916
45035SOL     OW36878  13.431  12.064   1.152
45035SOL    HW136879  13.478  12.120   1.213
45035SOL    HW236880  13.499  12.026   1.096
45036SOL     OW36881   5.440  14.008  11.609
45036SOL    HW136882   5.467  14.035  11.521
45036SOL    HW236883   5.345  14.012  11.607
45037SOL     OW36884   8.717   9.673   9.503
45037SOL    HW136885   8.774   9.641   9.573
45037SOL    HW236886   8.757   9.640   9.422
45038SOL     OW36887   0.230  11.413  12.790
45038SOL    HW136888   0.288  11.440  12.719
45038SOL    HW236889   0.284  11.419  12.869
45039SOL     OW36890   6.380   9.090   2.788
45039SOL    HW136891   6.340   9.163   2.740
45039SOL    HW236892   6.465   9.124   2.816
45040SOL     OW36893   3.809  14.485  13.753
45040SOL    HW136894   3.792  14.427  13.679
45040SOL    HW236895   3.723  14.498  13.793
45041SOL     OW36896   2.455   9.312   4.272
45041SOL    HW136897   2.458   9.382   4.337
45041SOL    HW236898   2.362   9.305   4.248
45042SOL     OW36899   8.536  11.117   1.741
45042SOL    HW136900   8.622  11.127   1.782
45042SOL    HW236901   8.482  11.074   1.807
45043SOL     OW36902   3.648  12.325   4.807
45043SOL    HW136903   3.559  12.331   4.772
45043SOL    HW236904   3.688  12.252   4.759
45044SOL     OW36905   8.883  11.323   4.425
45044SOL    HW136906   8.791  11.300   4.437
45044SOL    HW236907   8.929  11.239   4.425
45045SOL     OW36908  13.391  10.817  12.653
45045SOL    HW136909  13.350  10.752  12.595
45045SOL    HW236910  13.403  10.770  12.736
45046SOL     OW36911  14.333   0.576   1.756
45046SOL    HW136912  14.343   0.615   1.843
45046SOL    HW236913  14.239   0.561   1.746
45047SOL     OW36914  10.883   7.995   3.504
45047SOL    HW136915  10.946   8.066   3.486
45047SOL    HW236916  10.931   7.936   3.562
45048SOL     OW36917   3.509  13.525   7.788
45048SOL    HW136918   3.523  13.499   7.880
45048SOL    HW236919   3.596  13.546   7.756
45049SOL     OW36920  10.175   5.677  13.308
45049SOL    HW136921  10.271   5.679  13.308
45049SOL    HW236922  10.151   5.647  13.395
45050SOL     OW36923   7.579   7.033  11.283
45050SOL    HW136924   7.587   7.109  11.341
45050SOL    HW236925   7.621   6.961  11.332
45051SOL     OW36926   0.060   4.582   3.072
45051SOL    HW136927   0.073   4.654   3.011
45051SOL    HW236928  14.869   4.529   3.032
45052SOL     OW36929  14.659   7.741   9.645
45052SOL    HW136930  14.717   7.677   9.687
45052SOL    HW236931  14.707   7.823   9.648
45053SOL     OW36932   5.415   3.067  13.928
45053SOL    HW136933   5.343   3.129  13.940
45053SOL    HW236934   5.432   3.068  13.834
45054SOL     OW36935   6.822   4.613   1.111
45054SOL    HW136936   6.739   4.631   1.066
45054SOL    HW236937   6.882   4.585   1.041
45055SOL     OW36938  12.356   3.262   7.904
45055SOL    HW136939  12.279   3.252   7.961
45055SOL    HW236940  12.350   3.190   7.842
45056SOL     OW36941   1.368  12.552   9.126
45056SOL    HW136942   1.334  12.626   9.176
45056SOL    HW236943   1.337  12.475   9.174
45057SOL     OW36944   1.723  14.340  12.738
45057SOL    HW136945   1.634  14.375  12.736
45057SOL    HW236946   1.770  14.396  12.799
45058SOL     OW36947  13.185  10.993  11.066
45058SOL    HW136948  13.226  10.935  11.002
45058SOL    HW236949  13.110  10.944  11.099
45059SOL     OW36950   9.067   5.948   9.910
45059SOL    HW136951   9.063   5.923   9.817
45059SOL    HW236952   9.047   5.868   9.957
45060SOL     OW36953  12.881   6.651   1.338
45060SOL    HW136954  12.899   6.627   1.247
45060SOL    HW236955  12.858   6.743   1.334
45061SOL     OW36956   2.349   9.182  11.073
45061SOL    HW136957   2.432   9.212  11.038
45061SOL    HW236958   2.363   9.175  11.167
45062SOL     OW36959  10.103  10.088   3.431
45062SOL    HW136960  10.086  10.003   3.392
45062SOL    HW236961  10.025  10.140   3.410
45063SOL     OW36962  11.497   8.511   5.795
45063SOL    HW136963  11.407   8.480   5.780
45063SOL    HW236964  11.549   8.431   5.802
45064SOL     OW36965  12.397   0.298  12.529
45064SOL    HW136966  12.403   0.254  12.444
45064SOL    HW236967  12.304   0.299  12.550
45065SOL     OW36968  10.550  14.228   0.324
45065SOL    HW136969  10.470  14.196   0.366
45065SOL    HW236970  10.525  14.241   0.232
45066SOL     OW36971  11.697   1.852   9.309
45066SOL    HW136972  11.626   1.788   9.307
45066SOL    HW236973  11.674   1.915   9.241
45067SOL     OW36974   3.648   9.716   4.331
45067SOL    HW136975   3.568   9.705   4.280
45067SOL    HW236976   3.718   9.691   4.271
45068SOL     OW36977  12.539  14.843   4.661
45068SOL    HW136978  12.561  14.822   4.570
45068SOL    HW236979  12.623  14.865   4.702
45069SOL     OW36980  11.264  14.437   0.111
45069SOL    HW136981  11.324  14.440   0.186
45069SOL    HW236982  11.306  14.491   0.045
45070SOL     OW36983  13.827   4.759   8.289
45070SOL    HW136984  13.778   4.821   8.343
45070SOL    HW236985  13.837   4.681   8.344
45071SOL     OW36986   5.897   6.948  13.281
45071SOL    HW136987   5.896   6.959  13.376
45071SOL    HW236988   5.913   7.036  13.247
45072SOL     OW36989  10.159   4.719   0.507
45072SOL    HW136990  10.164   4.810   0.538
45072SOL    HW236991  10.248   4.700   0.478
45073SOL     OW36992   9.587   4.452   9.227
45073SOL    HW136993   9.666   4.499   9.198
45073SOL    HW236994   9.617   4.362   9.240
45074SOL     OW36995  12.229   4.713   2.292
45074SOL    HW136996  12.140   4.717   2.326
45074SOL    HW236997  12.236   4.627   2.251
45075SOL     OW36998  12.139  12.178  13.156
45075SOL    HW136999  12.095  12.095  13.176
45075SOL    HW237000  12.181  12.162  13.071
45076SOL     OW37001   4.785   9.040   4.900
45076SOL    HW137002   4.850   8.976   4.870
45076SOL    HW237003   4.703   9.009   4.862
45077SOL     OW37004  10.947   8.004   7.471
45077SOL    HW137005  10.965   7.972   7.560
45077SOL    HW237006  10.909   7.929   7.426
45078SOL     OW37007  14.220   8.518   1.379
45078SOL    HW137008  14.259   8.585   1.323
45078SOL    HW237009  14.174   8.460   1.319
45079SOL     OW37010  14.725   4.797   7.026
45079SOL    HW137011  14.658   4.821   6.962
45079SOL    HW237012  14.808   4.821   6.985
45080SOL     OW37013  12.246  10.574   3.478
45080SOL    HW137014  12.260  10.669   3.470
45080SOL    HW237015  12.209  10.563   3.565
45081SOL     OW37016   6.616   1.783   5.392
45081SOL    HW137017   6.544   1.723   5.412
45081SOL    HW237018   6.580   1.840   5.324
45082SOL     OW37019   0.284   6.210   9.994
45082SOL    HW137020   0.262   6.193   9.902
45082SOL    HW237021   0.199   6.225  10.036
45083SOL     OW37022   4.624  13.725  10.674
45083SOL    HW137023   4.684  13.716  10.600
45083SOL    HW237024   4.555  13.661  10.657
45084SOL     OW37025   3.400  13.397   6.700
45084SOL    HW137026   3.364  13.321   6.745
45084SOL    HW237027   3.477  13.364   6.654
45085SOL     OW37028   9.043   6.628   4.161
45085SOL    HW137029   9.005   6.542   4.177
45085SOL    HW237030   8.977   6.690   4.192
45086SOL     OW37031   8.326   3.428   2.041
45086SOL    HW137032   8.311   3.487   2.115
45086SOL    HW237033   8.338   3.342   2.082
45087SOL     OW37034   8.974   6.872   1.673
45087SOL    HW137035   8.972   6.835   1.585
45087SOL    HW237036   8.904   6.938   1.672
45088SOL     OW37037   6.462  13.918   1.590
45088SOL    HW137038   6.482  13.963   1.672
45088SOL    HW237039   6.368  13.931   1.578
45089SOL     OW37040   0.456  13.848   0.242
45089SOL    HW137041   0.447  13.920   0.179
45089SOL    HW237042   0.505  13.887   0.315
45090SOL     OW37043   3.287  12.373   9.967
45090SOL    HW137044   3.232  12.350   9.892
45090SOL    HW237045   3.351  12.303   9.972
45091SOL     OW37046  13.365   2.267   6.675
45091SOL    HW137047  13.324   2.181   6.671
45091SOL    HW237048  13.381   2.289   6.583
45092SOL     OW37049   0.577   7.282   0.646
45092SOL    HW137050   0.513   7.336   0.599
45092SOL    HW237051   0.623   7.344   0.702
45093SOL     OW37052  10.343  11.174   2.876
45093SOL    HW137053  10.264  11.227   2.871
45093SOL    HW237054  10.312  11.083   2.878
45094SOL     OW37055  12.541   6.265   0.573
45094SOL    HW137056  12.551   6.352   0.613
45094SOL    HW237057  12.597   6.268   0.495
45095SOL     OW37058  12.762   7.845   0.637
45095SOL    HW137059  12.809   7.793   0.571
45095SOL    HW237060  12.770   7.794   0.717
45096SOL     OW37061   2.112  10.436  12.879
45096SOL    HW137062   2.137  10.344  12.872
45096SOL    HW237063   2.052  10.439  12.954
45097SOL     OW37064   9.262   5.460   5.181
45097SOL    HW137065   9.295   5.514   5.252
45097SOL    HW237066   9.340   5.434   5.132
45098SOL     OW37067   6.104   0.991   3.879
45098SOL    HW137068   6.081   1.058   3.815
45098SOL    HW237069   6.177   1.029   3.928
45099SOL     OW37070  10.662  13.908  10.941
45099SOL    HW137071  10.674  14.003  10.943
45099SOL    HW237072  10.696  13.878  11.025
45100SOL     OW37073   8.249   5.027  14.479
45100SOL    HW137074   8.264   4.945  14.432
45100SOL    HW237075   8.322   5.083  14.454
45101SOL     OW37076   2.385   5.988   8.783
45101SOL    HW137077   2.391   5.927   8.857
45101SOL    HW237078   2.394   6.075   8.822
45102SOL     OW37079  12.796   4.164  13.132
45102SOL    HW137080  12.709   4.126  13.146
45102SOL    HW237081  12.815   4.212  13.213
45103SOL     OW37082   0.059   1.775  14.749
45103SOL    HW137083   0.003   1.715  14.701
45103SOL    HW237084  14.878   1.823  14.807
45104SOL     OW37085   2.620  11.641   4.032
45104SOL    HW137086   2.669  11.593   3.965
45104SOL    HW237087   2.650  11.604   4.115
45105SOL     OW37088   6.060   9.563   5.628
45105SOL    HW137089   5.992   9.555   5.562
45105SOL    HW237090   6.027   9.628   5.690
45106SOL     OW37091   4.173   4.789   9.192
45106SOL    HW137092   4.209   4.775   9.280
45106SOL    HW237093   4.238   4.752   9.133
45107SOL     OW37094   1.885   6.003   8.537
45107SOL    HW137095   1.911   5.968   8.452
45107SOL    HW237096   1.963   5.992   8.592
45108SOL     OW37097  10.796   2.602  11.745
45108SOL    HW137098  10.871   2.648  11.783
45108SOL    HW237099  10.811   2.510  11.769
45109SOL     OW37100  12.990  11.344   0.048
45109SOL    HW137101  13.052  11.328  14.855
45109SOL    HW237102  12.909  11.372   0.005
45110SOL     OW37103  13.668   3.569   0.759
45110SOL    HW137104  13.723   3.516   0.816
45110SOL    HW237105  13.730   3.621   0.707
45111SOL     OW37106   4.895   9.816   8.882
45111SOL    HW137107   4.924   9.800   8.792
45111SOL    HW237108   4.807   9.780   8.886
45112SOL     OW37109   9.292   6.887   2.020
45112SOL    HW137110   9.262   6.903   2.110
45112SOL    HW237111   9.318   6.795   2.020
45113SOL     OW37112  10.131   4.916   7.087
45113SOL    HW137113  10.074   4.922   7.163
45113SOL    HW237114  10.219   4.906   7.122
45114SOL     OW37115   5.597   1.527  10.606
45114SOL    HW137116   5.551   1.611  10.609
45114SOL    HW237117   5.632   1.515  10.694
45115SOL     OW37118  13.148  11.644   2.133
45115SOL    HW137119  13.238  11.632   2.103
45115SOL    HW237120  13.094  11.617   2.059
45116SOL     OW37121   0.790   7.307   6.566
45116SOL    HW137122   0.784   7.245   6.638
45116SOL    HW237123   0.758   7.259   6.490
45117SOL     OW37124   4.968   0.752   2.532
45117SOL    HW137125   4.938   0.701   2.457
45117SOL    HW237126   5.052   0.712   2.557
45118SOL     OW37127   2.524   3.627   1.039
45118SOL    HW137128   2.617   3.635   1.059
45118SOL    HW237129   2.484   3.599   1.121
45119SOL     OW37130  12.189   6.396   3.126
45119SOL    HW137131  12.262   6.408   3.065
45119SOL    HW237132  12.112   6.430   3.080
45120SOL     OW37133   4.186  10.292  11.025
45120SOL    HW137134   4.149  10.204  11.010
45120SOL    HW237135   4.252  10.279  11.093
45121SOL     OW37136  14.316   9.520   8.994
45121SOL    HW137137  14.299   9.510   8.900
45121SOL    HW237138  14.231   9.547   9.030
45122SOL     OW37139   3.478   6.302   5.965
45122SOL    HW137140   3.545   6.242   5.997
45122SOL    HW237141   3.523   6.386   5.958
45123SOL     OW37142   6.008   1.948   0.088
45123SOL    HW137143   6.064   1.870   0.081
45123SOL    HW237144   6.017   1.975   0.179
45124SOL     OW37145   1.600  10.449   5.434
45124SOL    HW137146   1.560  10.395   5.501
45124SOL    HW237147   1.687  10.470   5.468
45125SOL     OW37148   3.354   4.017  12.578
45125SOL    HW137149   3.270   4.063  12.573
45125SOL    HW237150   3.415   4.083  12.611
45126SOL     OW37151  12.089   8.999   8.025
45126SOL    HW137152  12.125   9.018   7.938
45126SOL    HW237153  12.035   8.921   8.012
45127SOL     OW37154   4.767   1.066   7.786
45127SOL    HW137155   4.728   1.005   7.723
45127SOL    HW237156   4.777   1.015   7.866
45128SOL     OW37157   6.722   5.967  12.036
45128SOL    HW137158   6.750   6.036  12.095
45128SOL    HW237159   6.801   5.914  12.021
45129SOL     OW37160   6.853  13.245   8.523
45129SOL    HW137161   6.914  13.257   8.596
45129SOL    HW237162   6.909  13.246   8.445
45130SOL     OW37163  10.668   1.290  13.366
45130SOL    HW137164  10.761   1.312  13.356
45130SOL    HW237165  10.628   1.370  13.399
45131SOL     OW37166   4.514   2.027  12.919
45131SOL    HW137167   4.560   1.977  12.986
45131SOL    HW237168   4.514   1.969  12.843
45132SOL     OW37169   7.798  10.744   6.894
45132SOL    HW137170   7.781  10.658   6.856
45132SOL    HW237171   7.713  10.773   6.927
45133SOL     OW37172  12.480  14.070   2.706
45133SOL    HW137173  12.478  13.995   2.765
45133SOL    HW237174  12.572  14.079   2.682
45134SOL     OW37175  12.669  11.797   8.429
45134SOL    HW137176  12.582  11.759   8.422
45134SOL    HW237177  12.661  11.863   8.498
45135SOL     OW37178  13.556   6.109  11.269
45135SOL    HW137179  13.509   6.127  11.350
45135SOL    HW237180  13.529   6.179  11.209
45136SOL     OW37181   7.114  11.360   1.636
45136SOL    HW137182   7.190  11.316   1.673
45136SOL    HW237183   7.039  11.309   1.667
45137SOL     OW37184   0.931  12.512   1.543
45137SOL    HW137185   0.897  12.559   1.467
45137SOL    HW237186   0.983  12.577   1.591
45138SOL     OW37187   2.477   9.579   1.919
45138SOL    HW137188   2.393   9.582   1.873
45138SOL    HW237189   2.509   9.490   1.903
45139SOL     OW37190  10.235   1.730   1.711
45139SOL    HW137191  10.239   1.804   1.771
45139SOL    HW237192  10.235   1.653   1.768
45140SOL     OW37193  11.075   3.177   4.145
45140SOL    HW137194  11.096   3.148   4.056
45140SOL    HW237195  11.077   3.272   4.140
45141SOL     OW37196   2.139   3.719   8.005
45141SOL    HW137197   2.194   3.743   8.080
45141SOL    HW237198   2.170   3.632   7.980
45142SOL     OW37199  13.691   1.616   0.250
45142SOL    HW137200  13.731   1.563   0.320
45142SOL    HW237201  13.753   1.687   0.236
45143SOL     OW37202  11.591   9.919   5.278
45143SOL    HW137203  11.523   9.889   5.217
45143SOL    HW237204  11.650   9.844   5.286
45144SOL     OW37205   0.034   4.193   1.999
45144SOL    HW137206   0.106   4.172   2.059
45144SOL    HW237207   0.021   4.287   2.010
45145SOL     OW37208   9.148   1.396  14.346
45145SOL    HW137209   9.096   1.417  14.268
45145SOL    HW237210   9.185   1.310  14.327
45146SOL     OW37211   6.220   6.700   0.037
45146SOL    HW137212   6.162   6.653  14.855
45146SOL    HW237213   6.300   6.713  14.865
45147SOL     OW37214   3.756   2.372   8.365
45147SOL    HW137215   3.687   2.437   8.357
45147SOL    HW237216   3.795   2.367   8.278
45148SOL     OW37217  12.619   4.242   9.118
45148SOL    HW137218  12.625   4.325   9.164
45148SOL    HW237219  12.677   4.184   9.166
45149SOL     OW37220   9.657   3.192  11.212
45149SOL    HW137221   9.732   3.158  11.162
45149SOL    HW237222   9.609   3.245  11.149
45150SOL     OW37223   9.096   6.882   9.020
45150SOL    HW137224   9.068   6.974   9.019
45150SOL    HW237225   9.020   6.834   9.051
45151SOL     OW37226   6.426  12.257   0.643
45151SOL    HW137227   6.357  12.319   0.668
45151SOL    HW237228   6.479  12.305   0.579
45152SOL     OW37229   9.945  13.567   6.287
45152SOL    HW137230   9.946  13.649   6.338
45152SOL    HW237231   9.966  13.595   6.197
45153SOL     OW37232   0.284  14.594   1.351
45153SOL    HW137233   0.213  14.531   1.336
45153SOL    HW237234   0.354  14.566   1.292
45154SOL     OW37235   4.347  12.037   2.366
45154SOL    HW137236   4.369  12.124   2.331
45154SOL    HW237237   4.374  12.042   2.458
45155SOL     OW37238   9.930   5.455   8.332
45155SOL    HW137239   9.923   5.551   8.336
45155SOL    HW237240   9.989   5.432   8.404
45156SOL     OW37241  13.961   0.051   9.736
45156SOL    HW137242  14.048   0.025   9.706
45156SOL    HW237243  13.908  14.850   9.727
45157SOL     OW37244  11.752  14.417  13.302
45157SOL    HW137245  11.709  14.460  13.376
45157SOL    HW237246  11.681  14.393  13.244
45158SOL     OW37247   1.251   7.892   5.811
45158SOL    HW137248   1.271   7.916   5.902
45158SOL    HW237249   1.159   7.913   5.801
45159SOL     OW37250  13.837  12.032   4.013
45159SOL    HW137251  13.795  12.015   3.928
45159SOL    HW237252  13.823  12.126   4.028
45160SOL     OW37253   4.933   3.957   3.391
45160SOL    HW137254   4.886   3.969   3.309
45160SOL    HW237255   5.025   3.949   3.365
45161SOL     OW37256  10.831  10.598   2.457
45161SOL    HW137257  10.799  10.598   2.548
45161SOL    HW237258  10.784  10.671   2.416
45162SOL     OW37259   8.298  14.409   8.871
45162SOL    HW137260   8.214  14.387   8.911
45162SOL    HW237261   8.313  14.500   8.897
45163SOL     OW37262   0.864   9.091   4.550
45163SOL    HW137263   0.932   9.028   4.571
45163SOL    HW237264   0.899   9.175   4.580
45164SOL     OW37265  11.069   3.597   0.303
45164SOL    HW137266  11.138   3.530   0.300
45164SOL    HW237267  11.083   3.649   0.224
45165SOL     OW37268   4.997  11.521   8.172
45165SOL    HW137269   5.033  11.434   8.151
45165SOL    HW237270   5.057  11.557   8.237
45166SOL     OW37271   7.355   8.289   6.852
45166SOL    HW137272   7.271   8.244   6.847
45166SOL    HW237273   7.346   8.349   6.926
45167SOL     OW37274  10.065   7.026   0.249
45167SOL    HW137275  10.093   7.074   0.171
45167SOL    HW237276   9.970   7.026   0.244
45168SOL     OW37277   3.334  11.243   0.413
45168SOL    HW137278   3.366  11.296   0.340
45168SOL    HW237279   3.413  11.219   0.462
45169SOL     OW37280  14.847   0.655  14.559
45169SOL    HW137281   0.009   0.701  14.485
45169SOL    HW237282   0.013   0.691  14.636
45170SOL     OW37283   4.559  13.385   1.036
45170SOL    HW137284   4.639  13.342   1.007
45170SOL    HW237285   4.536  13.340   1.117
45171SOL     OW37286   6.057   4.664   1.955
45171SOL    HW137287   6.085   4.581   1.918
45171SOL    HW237288   6.120   4.682   2.025
45172SOL     OW37289   9.863  10.787   9.154
45172SOL    HW137290   9.886  10.700   9.186
45172SOL    HW237291   9.771  10.798   9.179
45173SOL     OW37292  13.774  14.816   0.304
45173SOL    HW137293  13.844  14.754   0.325
45173SOL    HW237294  13.803   0.020   0.345
45174SOL     OW37295   0.291   8.969  13.833
45174SOL    HW137296   0.345   8.892  13.819
45174SOL    HW237297   0.202   8.934  13.844
45175SOL     OW37298   1.266   9.124  13.262
45175SOL    HW137299   1.185   9.153  13.220
45175SOL    HW237300   1.256   9.029  13.270
45176SOL     OW37301   0.581  10.413   0.625
45176SOL    HW137302   0.562  10.419   0.719
45176SOL    HW237303   0.499  10.380   0.587
45177SOL     OW37304  13.337  10.008  10.429
45177SOL    HW137305  13.291   9.939  10.380
45177SOL    HW237306  13.294  10.008  10.514
45178SOL     OW37307   1.762  13.380   6.685
45178SOL    HW137308   1.739  13.473   6.688
45178SOL    HW237309   1.757  13.357   6.592
45179SOL     OW37310   9.818   7.311   6.847
45179SOL    HW137311   9.873   7.368   6.794
45179SOL    HW237312   9.853   7.319   6.935
45180SOL     OW37313  13.780  13.988   4.206
45180SOL    HW137314  13.824  13.996   4.121
45180SOL    HW237315  13.835  14.038   4.266
45181SOL     OW37316  10.483  12.365   2.907
45181SOL    HW137317  10.519  12.437   2.958
45181SOL    HW237318  10.416  12.407   2.852
45182SOL     OW37319   9.812   3.790   4.928
45182SOL    HW137320   9.757   3.786   5.006
45182SOL    HW237321   9.890   3.739   4.950
45183SOL     OW37322   1.263  10.994   9.117
45183SOL    HW137323   1.252  11.089   9.121
45183SOL    HW237324   1.178  10.961   9.088
45184SOL     OW37325   8.653   3.436   6.747
45184SOL    HW137326   8.650   3.371   6.677
45184SOL    HW237327   8.688   3.515   6.705
45185SOL     OW37328  12.499   3.587   4.094
45185SOL    HW137329  12.447   3.574   4.173
45185SOL    HW237330  12.479   3.677   4.067
45186SOL     OW37331  10.060  10.341   4.159
45186SOL    HW137332  10.066  10.296   4.075
45186SOL    HW237333   9.992  10.408   4.146
45187SOL     OW37334   4.132  10.704   8.835
45187SOL    HW137335   4.063  10.770   8.838
45187SOL    HW237336   4.116  10.649   8.912
45188SOL     OW37337   3.636   8.019  12.220
45188SOL    HW137338   3.653   7.938  12.173
45188SOL    HW237339   3.632   8.086  12.151
45189SOL     OW37340   6.136   8.786  11.932
45189SOL    HW137341   6.214   8.739  11.964
45189SOL    HW237342   6.095   8.822  12.011
45190SOL     OW37343   1.470  14.550  14.529
45190SOL    HW137344   1.439  14.623  14.474
45190SOL    HW237345   1.481  14.477  14.468
45191SOL     OW37346   4.452   4.644  14.176
45191SOL    HW137347   4.513   4.708  14.214
45191SOL    HW237348   4.373   4.694  14.157
45192SOL     OW37349   5.152  10.247  14.161
45192SOL    HW137350   5.149  10.324  14.217
45192SOL    HW237351   5.220  10.268  14.096
45193SOL     OW37352  12.179   5.578   5.755
45193SOL    HW137353  12.110   5.606   5.815
45193SOL    HW237354  12.221   5.660   5.727
45194SOL     OW37355   1.177  14.785   8.524
45194SOL    HW137356   1.230  14.778   8.444
45194SOL    HW237357   1.140  14.698   8.535
45195SOL     OW37358  12.617   5.830   9.345
45195SOL    HW137359  12.550   5.888   9.307
45195SOL    HW237360  12.574   5.745   9.353
45196SOL     OW37361   1.131   4.520   7.628
45196SOL    HW137362   1.150   4.438   7.584
45196SOL    HW237363   1.156   4.504   7.719
45197SOL     OW37364   6.933   8.256  10.794
45197SOL    HW137365   6.881   8.177  10.810
45197SOL    HW237366   6.923   8.308  10.873
45198SOL     OW37367   8.119  10.619  10.218
45198SOL    HW137368   8.189  10.561  10.247
45198SOL    HW237369   8.152  10.657  10.136
45199SOL     OW37370   9.020   7.880   2.045
45199SOL    HW137371   9.031   7.818   1.972
45199SOL    HW237372   9.022   7.966   2.003
45200SOL     OW37373   4.108   7.564   8.754
45200SOL    HW137374   4.170   7.520   8.696
45200SOL    HW237375   4.058   7.621   8.696
45201SOL     OW37376   2.669   3.826   0.021
45201SOL    HW137377   2.691   3.913  14.864
45201SOL    HW237378   2.688   3.766  14.827
45202SOL     OW37379  14.068   4.806   5.313
45202SOL    HW137380  14.021   4.857   5.379
45202SOL    HW237381  14.014   4.728   5.300
45203SOL     OW37382   3.267   1.831  12.898
45203SOL    HW137383   3.286   1.768  12.968
45203SOL    HW237384   3.188   1.876  12.928
45204SOL     OW37385  11.259   4.449  13.621
45204SOL    HW137386  11.349   4.478  13.609
45204SOL    HW237387  11.208   4.530  13.624
45205SOL     OW37388  12.667   4.186   1.347
45205SOL    HW137389  12.756   4.223   1.340
45205SOL    HW237390  12.653   4.143   1.263
45206SOL     OW37391  10.576  13.333   0.903
45206SOL    HW137392  10.517  13.348   0.830
45206SOL    HW237393  10.652  13.389   0.885
45207SOL     OW37394   5.760   6.873  11.507
45207SOL    HW137395   5.803   6.920  11.579
45207SOL    HW237396   5.830   6.822  11.466
45208SOL     OW37397   1.846   6.180  11.273
45208SOL    HW137398   1.934   6.179  11.234
45208SOL    HW237399   1.852   6.242  11.345
45209SOL     OW37400   1.640   2.300   9.532
45209SOL    HW137401   1.675   2.326   9.447
45209SOL    HW237402   1.607   2.381   9.570
45210SOL     OW37403  14.207  13.109  11.026
45210SOL    HW137404  14.302  13.117  11.026
45210SOL    HW237405  14.175  13.198  11.042
45211SOL     OW37406   9.876   9.879   7.141
45211SOL    HW137407   9.858   9.793   7.105
45211SOL    HW237408   9.791   9.909   7.174
45212SOL     OW37409   3.152   6.251   2.926
45212SOL    HW137410   3.185   6.341   2.920
45212SOL    HW237411   3.228   6.200   2.952
45213SOL     OW37412   4.365  13.931  10.330
45213SOL    HW137413   4.400  13.845  10.307
45213SOL    HW237414   4.428  13.967  10.392
45214SOL     OW37415   2.703   0.886   8.294
45214SOL    HW137416   2.758   0.911   8.219
45214SOL    HW237417   2.676   0.797   8.274
45215SOL     OW37418   0.994  12.513   5.944
45215SOL    HW137419   1.017  12.434   5.896
45215SOL    HW237420   0.899  12.507   5.956
45216SOL     OW37421  11.375   2.295   4.517
45216SOL    HW137422  11.397   2.380   4.479
45216SOL    HW237423  11.363   2.312   4.610
45217SOL     OW37424   9.244   0.499  13.819
45217SOL    HW137425   9.262   0.430  13.882
45217SOL    HW237426   9.301   0.571  13.845
45218SOL     OW37427   4.924   6.425  11.320
45218SOL    HW137428   4.852   6.457  11.375
45218SOL    HW237429   4.959   6.504  11.279
45219SOL     OW37430  14.477   0.319   7.991
45219SOL    HW137431  14.392   0.350   7.958
45219SOL    HW237432  14.478   0.225   7.971
45220SOL     OW37433   6.395   8.605   2.882
45220SOL    HW137434   6.391   8.531   2.942
45220SOL    HW237435   6.441   8.673   2.931
45221SOL     OW37436   8.162   8.311   2.467
45221SOL    HW137437   8.247   8.346   2.492
45221SOL    HW237438   8.137   8.253   2.539
45222SOL     OW37439   3.360  11.927  12.927
45222SOL    HW137440   3.266  11.943  12.938
45222SOL    HW237441   3.401  12.011  12.944
45223SOL     OW37442   9.867   7.155   9.945
45223SOL    HW137443   9.840   7.246   9.931
45223SOL    HW237444   9.790   7.103   9.924
45224SOL     OW37445   0.781  13.994   6.249
45224SOL    HW137446   0.761  14.030   6.335
45224SOL    HW237447   0.831  14.063   6.205
45225SOL     OW37448   4.015  10.030   1.391
45225SOL    HW137449   4.068  10.062   1.463
45225SOL    HW237450   3.990  10.109   1.343
45226SOL     OW37451   3.716   9.695  11.040
45226SOL    HW137452   3.777   9.762  11.070
45226SOL    HW237453   3.746   9.615  11.083
45227SOL     OW37454   8.674   5.901   2.385
45227SOL    HW137455   8.762   5.864   2.392
45227SOL    HW237456   8.658   5.941   2.471
45228SOL     OW37457   4.056   3.542   2.723
45228SOL    HW137458   4.078   3.605   2.792
45228SOL    HW237459   3.981   3.493   2.758
45229SOL     OW37460   3.635  12.637  14.329
45229SOL    HW137461   3.649  12.728  14.352
45229SOL    HW237462   3.701  12.588  14.379
45230SOL     OW37463   8.677  12.359   7.668
45230SOL    HW137464   8.597  12.306   7.673
45230SOL    HW237465   8.732  12.325   7.740
45231SOL     OW37466   6.773  12.951   9.472
45231SOL    HW137467   6.841  12.929   9.407
45231SOL    HW237468   6.805  13.030   9.514
45232SOL     OW37469   2.368   5.033   0.796
45232SOL    HW137470   2.458   5.022   0.826
45232SOL    HW237471   2.375   5.070   0.709
45233SOL     OW37472  13.300  12.705   7.683
45233SOL    HW137473  13.240  12.654   7.628
45233SOL    HW237474  13.243  12.766   7.730
45234SOL     OW37475  13.538   5.983   0.541
45234SOL    HW137476  13.579   5.980   0.627
45234SOL    HW237477  13.505   6.072   0.533
45235SOL     OW37478  11.371   3.186  10.388
45235SOL    HW137479  11.429   3.175  10.464
45235SOL    HW237480  11.365   3.281  10.376
45236SOL     OW37481   0.130  11.785  13.905
45236SOL    HW137482   0.046  11.749  13.932
45236SOL    HW237483   0.123  11.879  13.925
45237SOL     OW37484  11.505   0.392   3.286
45237SOL    HW137485  11.567   0.464   3.294
45237SOL    HW237486  11.556   0.321   3.246
45238SOL     OW37487   5.281   7.778   4.334
45238SOL    HW137488   5.188   7.766   4.354
45238SOL    HW237489   5.291   7.745   4.245
45239SOL     OW37490   8.591   5.103   5.919
45239SOL    HW137491   8.556   5.177   5.970
45239SOL    HW237492   8.519   5.042   5.913
45240SOL     OW37493   5.426  10.939   5.176
45240SOL    HW137494   5.353  10.971   5.229
45240SOL    HW237495   5.496  11.004   5.189
45241SOL     OW37496   6.587   7.210  11.208
45241SOL    HW137497   6.629   7.227  11.292
45241SOL    HW237498   6.655   7.168  11.156
45242SOL     OW37499  10.016   5.214  13.796
45242SOL    HW137500  10.109   5.192  13.808
45242SOL    HW237501  10.016   5.308  13.776
45243SOL     OW37502   1.824  13.727   2.248
45243SOL    HW137503   1.887  13.729   2.177
45243SOL    HW237504   1.863  13.670   2.314
45244SOL     OW37505   7.846   5.952  10.971
45244SOL    HW137506   7.801   5.962  11.055
45244SOL    HW237507   7.824   6.031  10.922
45245SOL     OW37508   3.036   7.633  13.642
45245SOL    HW137509   3.120   7.676  13.627
45245SOL    HW237510   3.004   7.669  13.725
45246SOL     OW37511   4.863   6.300  14.628
45246SOL    HW137512   4.927   6.276  14.562
45246SOL    HW237513   4.885   6.244  14.703
45247SOL     OW37514   3.765   3.609   9.964
45247SOL    HW137515   3.703   3.652  10.022
45247SOL    HW237516   3.754   3.515   9.980
45248SOL     OW37517   1.886   7.401   8.098
45248SOL    HW137518   1.922   7.457   8.030
45248SOL    HW237519   1.941   7.417   8.174
45249SOL     OW37520   2.037   4.865   0.157
45249SOL    HW137521   1.981   4.860   0.080
45249SOL    HW237522   2.072   4.954   0.156
45250SOL     OW37523   4.989  11.472  11.848
45250SOL    HW137524   5.019  11.556  11.812
45250SOL    HW237525   5.070  11.429  11.877
45251SOL     OW37526   2.907   9.880   9.255
45251SOL    HW137527   2.926   9.880   9.349
45251SOL    HW237528   2.979   9.831   9.216
45252SOL     OW37529  10.299   1.473   7.854
45252SOL    HW137530  10.261   1.386   7.840
45252SOL    HW237531  10.223   1.531   7.857
45253SOL     OW37532   1.067  13.841   2.870
45253SOL    HW137533   1.031  13.768   2.921
45253SOL    HW237534   1.162  13.833   2.881
45254SOL     OW37535   0.851   3.120   1.785
45254SOL    HW137536   0.897   3.146   1.705
45254SOL    HW237537   0.899   3.162   1.855
45255SOL     OW37538  10.670   0.967   6.551
45255SOL    HW137539  10.740   1.028   6.573
45255SOL    HW237540  10.715   0.882   6.541
45256SOL     OW37541   3.766   9.550   2.212
45256SOL    HW137542   3.780   9.478   2.273
45256SOL    HW237543   3.724   9.510   2.136
45257SOL     OW37544   0.594   8.312   0.738
45257SOL    HW137545   0.530   8.377   0.711
45257SOL    HW237546   0.542   8.241   0.775
45258SOL     OW37547  10.520   9.985   5.784
45258SOL    HW137548  10.483   9.986   5.696
45258SOL    HW237549  10.445   9.994   5.843
45259SOL     OW37550   9.518  10.995  14.230
45259SOL    HW137551   9.496  10.907  14.201
45259SOL    HW237552   9.475  11.004  14.315
45260SOL     OW37553  11.802   0.789  14.138
45260SOL    HW137554  11.878   0.848  14.131
45260SOL    HW237555  11.783   0.765  14.047
45261SOL     OW37556   3.774   1.118  14.363
45261SOL    HW137557   3.837   1.175  14.319
45261SOL    HW237558   3.694   1.126  14.312
45262SOL     OW37559  11.912  13.581   2.352
45262SOL    HW137560  11.931  13.599   2.260
45262SOL    HW237561  11.833  13.631   2.371
45263SOL     OW37562  11.260   6.342   8.136
45263SOL    HW137563  11.348   6.346   8.173
45263SOL    HW237564  11.215   6.274   8.187
45264SOL     OW37565  10.738   9.843   2.316
45264SOL    HW137566  10.680   9.839   2.392
45264SOL    HW237567  10.759   9.935   2.305
45265SOL     OW37568   9.533   2.464   3.084
45265SOL    HW137569   9.583   2.405   3.027
45265SOL    HW237570   9.599   2.508   3.137
45266SOL     OW37571   8.527  11.384   7.899
45266SOL    HW137572   8.512  11.464   7.949
45266SOL    HW237573   8.618  11.389   7.871
45267SOL     OW37574   3.863   9.334  13.540
45267SOL    HW137575   3.924   9.265  13.513
45267SOL    HW237576   3.778   9.304  13.509
45268SOL     OW37577   9.158  13.014   8.443
45268SOL    HW137578   9.178  13.010   8.349
45268SOL    HW237579   9.125  13.103   8.457
45269SOL     OW37580   5.463  11.907  12.780
45269SOL    HW137581   5.390  11.906  12.717
45269SOL    HW237582   5.421  11.924  12.864
45270SOL     OW37583  13.383   6.453   4.282
45270SOL    HW137584  13.389   6.480   4.191
45270SOL    HW237585  13.342   6.366   4.278
45271SOL     OW37586   0.727   7.299   0.392
45271SOL    HW137587   0.812   7.329   0.426
45271SOL    HW237588   0.680   7.268   0.470
45272SOL     OW37589   7.706  13.928   1.570
45272SOL    HW137590   7.747  14.009   1.539
45272SOL    HW237591   7.635  13.912   1.509
45273SOL     OW37592   3.454   4.995   2.078
45273SOL    HW137593   3.525   4.932   2.087
45273SOL    HW237594   3.493   5.070   2.033
45274SOL     OW37595   1.186   0.875   3.451
45274SOL    HW137596   1.195   0.803   3.514
45274SOL    HW237597   1.151   0.834   3.373
45275SOL     OW37598   7.294  11.389   7.212
45275SOL    HW137599   7.363  11.388   7.146
45275SOL    HW237600   7.302  11.474   7.255
45276SOL     OW37601  10.334   3.183  12.371
45276SOL    HW137602  10.364   3.264  12.413
45276SOL    HW237603  10.394   3.116  12.404
45277SOL     OW37604   2.149   2.929  11.415
45277SOL    HW137605   2.153   2.841  11.453
45277SOL    HW237606   2.122   2.915  11.324
45278SOL     OW37607   5.107   1.908   8.216
45278SOL    HW137608   5.202   1.895   8.208
45278SOL    HW237609   5.076   1.831   8.263
45279SOL     OW37610   9.636  11.424   7.319
45279SOL    HW137611   9.723  11.409   7.284
45279SOL    HW237612   9.577  11.381   7.256
45280SOL     OW37613  13.154   4.733   2.628
45280SOL    HW137614  13.141   4.638   2.624
45280SOL    HW237615  13.083   4.764   2.684
45281SOL     OW37616   6.925   3.983   4.214
45281SOL    HW137617   6.831   3.967   4.219
45281SOL    HW237618   6.964   3.898   4.194
45282SOL     OW37619  13.884  14.652   5.233
45282SOL    HW137620  13.836  14.705   5.297
45282SOL    HW237621  13.922  14.580   5.284
45283SOL     OW37622  14.663  14.655   5.616
45283SOL    HW137623  14.595  14.720   5.601
45283SOL    HW237624  14.654  14.592   5.545
45284SOL     OW37625  14.380   5.213   5.707
45284SOL    HW137626  14.357   5.125   5.677
45284SOL    HW237627  14.475   5.212   5.712
45285SOL     OW37628  14.062   6.876   4.389
45285SOL    HW137629  13.994   6.943   4.386
45285SOL    HW237630  14.055   6.831   4.304
45286SOL     OW37631   7.082   8.154  10.567
45286SOL    HW137632   7.178   8.159  10.560
45286SOL    HW237633   7.062   8.207  10.644
45287SOL     OW37634   9.545   2.102   9.670
45287SOL    HW137635   9.527   2.058   9.753
45287SOL    HW237636   9.598   2.039   9.620
45288SOL     OW37637  12.422   7.335   4.814
45288SOL    HW137638  12.380   7.421   4.807
45288SOL    HW237639  12.490   7.348   4.881
45289SOL     OW37640   7.015  14.324   8.452
45289SOL    HW137641   7.024  14.308   8.359
45289SOL    HW237642   6.921  14.322   8.469
45290SOL     OW37643  14.251  11.566   8.495
45290SOL    HW137644  14.329  11.552   8.548
45290SOL    HW237645  14.212  11.646   8.531
45291SOL     OW37646   9.182  13.124  10.680
45291SOL    HW137647   9.106  13.177  10.656
45291SOL    HW237648   9.151  13.034  10.677
45292SOL     OW37649   5.213   2.809   5.834
45292SOL    HW137650   5.123   2.798   5.863
45292SOL    HW237651   5.266   2.787   5.911
45293SOL     OW37652   4.903   9.938   5.422
45293SOL    HW137653   4.863  10.025   5.430
45293SOL    HW237654   4.986   9.946   5.470
45294SOL     OW37655  12.847  14.489   9.320
45294SOL    HW137656  12.883  14.571   9.287
45294SOL    HW237657  12.923  14.435   9.339
45295SOL     OW37658   6.297   1.012   1.097
45295SOL    HW137659   6.228   1.076   1.111
45295SOL    HW237660   6.332   0.994   1.184
45296SOL     OW37661   3.809  11.773   2.380
45296SOL    HW137662   3.903  11.765   2.393
45296SOL    HW237663   3.783  11.690   2.339
45297SOL     OW37664   9.467   1.276  11.276
45297SOL    HW137665   9.523   1.266  11.200
45297SOL    HW237666   9.433   1.188  11.292
45298SOL     OW37667  13.202  10.679   1.663
45298SOL    HW137668  13.154  10.710   1.739
45298SOL    HW237669  13.262  10.613   1.697
45299SOL     OW37670   2.467   6.464   5.313
45299SOL    HW137671   2.514   6.529   5.365
45299SOL    HW237672   2.529   6.437   5.246
45300SOL     OW37673   3.747   6.669   2.435
45300SOL    HW137674   3.668   6.619   2.415
45300SOL    HW237675   3.797   6.612   2.494
45301SOL     OW37676   7.296   7.050   3.281
45301SOL    HW137677   7.380   7.057   3.236
45301SOL    HW237678   7.266   7.141   3.290
45302SOL     OW37679  14.519   1.631   7.456
45302SOL    HW137680  14.573   1.709   7.466
45302SOL    HW237681  14.446   1.645   7.516
45303SOL     OW37682   0.848  11.422  11.685
45303SOL    HW137683   0.794  11.442  11.761
45303SOL    HW237684   0.791  11.373  11.627
45304SOL     OW37685  12.183   2.278   0.145
45304SOL    HW137686  12.178   2.198   0.092
45304SOL    HW237687  12.153   2.347   0.087
45305SOL     OW37688   0.305   5.880   8.650
45305SOL    HW137689   0.236   5.815   8.662
45305SOL    HW237690   0.274   5.935   8.578
45306SOL     OW37691   1.542   8.631   5.976
45306SOL    HW137692   1.546   8.543   5.939
45306SOL    HW237693   1.569   8.688   5.903
45307SOL     OW37694   9.030   5.815  10.697
45307SOL    HW137695   8.997   5.890  10.647
45307SOL    HW237696   9.121   5.837  10.715
45308SOL     OW37697   4.729   3.388  11.623
45308SOL    HW137698   4.767   3.359  11.540
45308SOL    HW237699   4.739   3.483  11.622
45309SOL     OW37700  12.363   8.125   1.424
45309SOL    HW137701  12.339   8.033   1.416
45309SOL    HW237702  12.279   8.172   1.423
45310SOL     OW37703   1.528   2.057   5.382
45310SOL    HW137704   1.560   2.055   5.472
45310SOL    HW237705   1.434   2.040   5.390
45311SOL     OW37706  10.405   3.588   8.487
45311SOL    HW137707  10.454   3.531   8.546
45311SOL    HW237708  10.361   3.527   8.427
45312SOL     OW37709   2.894   1.090  13.249
45312SOL    HW137710   2.901   0.998  13.226
45312SOL    HW237711   2.935   1.137  13.176
45313SOL     OW37712   0.076   2.208  11.436
45313SOL    HW137713   0.127   2.157  11.498
45313SOL    HW237714   0.001   2.152  11.413
45314SOL     OW37715   6.070   0.127   3.372
45314SOL    HW137716   6.162   0.152   3.357
45314SOL    HW237717   6.037   0.194   3.432
45315SOL     OW37718   7.377   0.131  14.000
45315SOL    HW137719   7.313   0.200  13.982
45315SOL    HW237720   7.406   0.148  14.089
45316SOL     OW37721   8.651   1.946   0.014
45316SOL    HW137722   8.581   1.910  14.838
45316SOL    HW237723   8.724   1.957  14.831
45317SOL     OW37724   1.666  14.658   0.192
45317SOL    HW137725   1.629  14.614   0.268
45317SOL    HW237726   1.591  14.696   0.147
45318SOL     OW37727   2.718   7.876  13.042
45318SOL    HW137728   2.803   7.836  13.060
45318SOL    HW237729   2.739   7.967  13.020
45319SOL     OW37730  11.920   5.451   5.676
45319SOL    HW137731  11.848   5.479   5.620
45319SOL    HW237732  11.965   5.532   5.700
45320SOL     OW37733   2.658  13.208  14.080
45320SOL    HW137734   2.643  13.217  13.986
45320SOL    HW237735   2.729  13.271  14.098
45321SOL     OW37736   3.612  11.704   4.046
45321SOL    HW137737   3.581  11.729   4.133
45321SOL    HW237738   3.635  11.612   4.054
45322SOL     OW37739  12.932   6.902   0.737
45322SOL    HW137740  12.869   6.973   0.722
45322SOL    HW237741  12.881   6.822   0.725
45323SOL     OW37742   6.482   9.740   4.623
45323SOL    HW137743   6.548   9.786   4.675
45323SOL    HW237744   6.518   9.653   4.608
45324SOL     OW37745   7.607   8.366  11.955
45324SOL    HW137746   7.602   8.306  12.029
45324SOL    HW237747   7.700   8.380  11.941
45325SOL     OW37748   2.353   3.038   2.588
45325SOL    HW137749   2.420   3.010   2.651
45325SOL    HW237750   2.270   3.015   2.629
45326SOL     OW37751  10.446   4.691   0.204
45326SOL    HW137752  10.521   4.658   0.155
45326SOL    HW237753  10.373   4.635   0.177
45327SOL     OW37754  11.447  11.628  14.016
45327SOL    HW137755  11.498  11.583  13.949
45327SOL    HW237756  11.450  11.569  14.091
45328SOL     OW37757  10.811   9.506   4.572
45328SOL    HW137758  10.724   9.467   4.565
45328SOL    HW237759  10.814   9.571   4.501
45329SOL     OW37760  11.739  12.276   4.000
45329SOL    HW137761  11.695  12.200   4.037
45329SOL    HW237762  11.781  12.318   4.074
45330SOL     OW37763   4.073   9.526   7.061
45330SOL    HW137764   4.009   9.589   7.028
45330SOL    HW237765   4.110   9.485   6.982
45331SOL     OW37766  13.478   9.144   7.602
45331SOL    HW137767  13.531   9.215   7.565
45331SOL    HW237768  13.468   9.082   7.530
45332SOL     OW37769   8.136   4.384   8.076
45332SOL    HW137770   8.201   4.342   8.019
45332SOL    HW237771   8.184   4.455   8.119
45333SOL     OW37772  14.689   8.018   7.303
45333SOL    HW137773  14.709   7.944   7.245
45333SOL    HW237774  14.765   8.076   7.294
45334SOL     OW37775  14.723   3.217  10.121
45334SOL    HW137776  14.631   3.215  10.095
45334SOL    HW237777  14.771   3.225  10.038
45335SOL     OW37778  13.272   6.824   2.648
45335SOL    HW137779  13.363   6.792   2.649
45335SOL    HW237780  13.227   6.764   2.589
45336SOL     OW37781  13.979   3.278   8.459
45336SOL    HW137782  14.002   3.333   8.385
45336SOL    HW237783  13.896   3.315   8.491
45337SOL     OW37784   5.696   5.811   6.875
45337SOL    HW137785   5.666   5.759   6.801
45337SOL    HW237786   5.634   5.791   6.945
45338SOL     OW37787   1.585   2.296   3.536
45338SOL    HW137788   1.574   2.377   3.586
45338SOL    HW237789   1.500   2.252   3.543
45339SOL     OW37790  10.845   3.359  11.110
45339SOL    HW137791  10.845   3.310  11.028
45339SOL    HW237792  10.796   3.439  11.091
45340SOL     OW37793   7.444   7.125   0.021
45340SOL    HW137794   7.490   7.199   0.061
45340SOL    HW237795   7.414   7.159  14.814
45341SOL     OW37796   8.944  10.657   6.879
45341SOL    HW137797   9.022  10.619   6.921
45341SOL    HW237798   8.888  10.582   6.862
45342SOL     OW37799   3.941   0.950  14.793
45342SOL    HW137800   3.975   0.861  14.806
45342SOL    HW237801   3.941   0.961  14.698
45343SOL     OW37802  10.817   5.554   6.479
45343SOL    HW137803  10.729   5.586   6.459
45343SOL    HW237804  10.810   5.516   6.566
45344SOL     OW37805  10.240   9.603  14.811
45344SOL    HW137806  10.222   9.603   0.027
45344SOL    HW237807  10.244   9.696  14.788
45345SOL     OW37808  13.436   6.072   0.980
45345SOL    HW137809  13.453   5.983   0.951
45345SOL    HW237810  13.504   6.090   1.045
45346SOL     OW37811  14.013   8.868  13.331
45346SOL    HW137812  14.062   8.882  13.250
45346SOL    HW237813  13.927   8.905  13.314
45347SOL     OW37814   0.530   2.228   1.802
45347SOL    HW137815   0.454   2.198   1.752
45347SOL    HW237816   0.576   2.288   1.742
45348SOL     OW37817  12.352   6.789  11.702
45348SOL    HW137818  12.305   6.718  11.745
45348SOL    HW237819  12.399   6.833  11.774
45349SOL     OW37820   5.730   1.713   9.604
45349SOL    HW137821   5.705   1.624   9.631
45349SOL    HW237822   5.697   1.769   9.674
45350SOL     OW37823   1.959  10.315   2.019
45350SOL    HW137824   2.007  10.255   1.962
45350SOL    HW237825   1.901  10.259   2.071
45351SOL     OW37826   9.360   5.701   6.404
45351SOL    HW137827   9.381   5.723   6.313
45351SOL    HW237828   9.281   5.751   6.423
45352SOL     OW37829   9.119   7.521   9.511
45352SOL    HW137830   9.210   7.535   9.484
45352SOL    HW237831   9.071   7.595   9.473
45353SOL     OW37832   2.588  12.645   4.526
45353SOL    HW137833   2.574  12.694   4.608
45353SOL    HW237834   2.664  12.590   4.543
45354SOL     OW37835   6.016   3.830  12.234
45354SOL    HW137836   5.926   3.797  12.232
45354SOL    HW237837   6.070   3.753  12.217
45355SOL     OW37838   2.749   1.052   8.558
45355SOL    HW137839   2.792   1.039   8.474
45355SOL    HW237840   2.720   0.965   8.584
45356SOL     OW37841  11.248   7.458   5.577
45356SOL    HW137842  11.174   7.509   5.608
45356SOL    HW237843  11.219   7.425   5.491
45357SOL     OW37844  13.370  14.541   8.961
45357SOL    HW137845  13.416  14.457   8.967
45357SOL    HW237846  13.310  14.541   9.036
45358SOL     OW37847   8.914   9.050   3.132
45358SOL    HW137848   8.936   8.961   3.158
45358SOL    HW237849   8.836   9.041   3.077
45359SOL     OW37850   0.364   1.292   3.300
45359SOL    HW137851   0.426   1.323   3.366
45359SOL    HW237852   0.374   1.197   3.301
45360SOL     OW37853   3.659  13.414   2.204
45360SOL    HW137854   3.638  13.365   2.125
45360SOL    HW237855   3.589  13.478   2.214
45361SOL     OW37856  14.256   9.478   6.730
45361SOL    HW137857  14.270   9.573   6.723
45361SOL    HW237858  14.218   9.466   6.816
45362SOL     OW37859   2.517   0.765   0.152
45362SOL    HW137860   2.537   0.846   0.104
45362SOL    HW237861   2.430   0.739   0.121
45363SOL     OW37862   3.689   2.803   7.995
45363SOL    HW137863   3.698   2.722   7.945
45363SOL    HW237864   3.634   2.859   7.940
45364SOL     OW37865   2.718  13.412  12.182
45364SOL    HW137866   2.752  13.456  12.104
45364SOL    HW237867   2.764  13.454  12.255
45365SOL     OW37868   2.608   6.471  10.422
45365SOL    HW137869   2.591   6.409  10.493
45365SOL    HW237870   2.694   6.508  10.443
45366SOL     OW37871   5.083   9.020   5.558
45366SOL    HW137872   5.164   9.042   5.603
45366SOL    HW237873   5.018   9.080   5.595
45367SOL     OW37874   7.639  12.276   0.411
45367SOL    HW137875   7.590  12.294   0.330
45367SOL    HW237876   7.709  12.342   0.410
45368SOL     OW37877   3.410  12.835   5.936
45368SOL    HW137878   3.491  12.801   5.974
45368SOL    HW237879   3.433  12.860   5.847
45369SOL     OW37880   8.145   8.375   6.608
45369SOL    HW137881   8.193   8.327   6.541
45369SOL    HW237882   8.211   8.404   6.671
45370SOL     OW37883  10.952   0.091   2.890
45370SOL    HW137884  11.002   0.024   2.937
45370SOL    HW237885  10.948   0.165   2.950
45371SOL     OW37886   5.784   2.978   8.950
45371SOL    HW137887   5.712   2.984   8.887
45371SOL    HW237888   5.863   2.996   8.898
45372SOL     OW37889  12.526   2.564  13.876
45372SOL    HW137890  12.610   2.526  13.850
45372SOL    HW237891  12.543   2.657  13.887
45373SOL     OW37892   8.533   5.562   1.025
45373SOL    HW137893   8.536   5.501   1.098
45373SOL    HW237894   8.451   5.610   1.037
45374SOL     OW37895  14.675   6.439   2.945
45374SOL    HW137896  14.607   6.374   2.966
45374SOL    HW237897  14.750   6.413   2.998
45375SOL     OW37898   0.387   8.757   9.488
45375SOL    HW137899   0.293   8.778   9.485
45375SOL    HW237900   0.430   8.837   9.458
45376SOL     OW37901   8.742   9.383   8.499
45376SOL    HW137902   8.754   9.344   8.586
45376SOL    HW237903   8.690   9.462   8.516
45377SOL     OW37904  12.813   0.486   6.897
45377SOL    HW137905  12.840   0.537   6.820
45377SOL    HW237906  12.784   0.403   6.861
45378SOL     OW37907   9.027  12.666   0.550
45378SOL    HW137908   9.041  12.760   0.539
45378SOL    HW237909   9.062  12.646   0.637
45379SOL     OW37910   4.788   5.690   7.073
45379SOL    HW137911   4.845   5.702   7.150
45379SOL    HW237912   4.714   5.639   7.106
45380SOL     OW37913   2.255   2.535   9.686
45380SOL    HW137914   2.341   2.494   9.694
45380SOL    HW237915   2.241   2.545   9.591
45381SOL     OW37916  14.781   1.446   1.548
45381SOL    HW137917  14.819   1.370   1.504
45381SOL    HW237918  14.688   1.440   1.529
45382SOL     OW37919   8.776   5.947  13.990
45382SOL    HW137920   8.771   5.851  13.994
45382SOL    HW237921   8.742   5.975  14.075
45383SOL     OW37922   9.584   6.899   0.388
45383SOL    HW137923   9.514   6.923   0.448
45383SOL    HW237924   9.661   6.888   0.443
45384SOL     OW37925  12.834   8.118   4.206
45384SOL    HW137926  12.758   8.088   4.257
45384SOL    HW237927  12.906   8.117   4.268
45385SOL     OW37928   6.166   8.722   0.670
45385SOL    HW137929   6.172   8.709   0.764
45385SOL    HW237930   6.224   8.656   0.632
45386SOL     OW37931   0.035   3.168  11.564
45386SOL    HW137932   0.097   3.119  11.619
45386SOL    HW237933  14.833   3.116  11.566
45387SOL     OW37934  10.715   9.677   1.459
45387SOL    HW137935  10.765   9.705   1.383
45387SOL    HW237936  10.657   9.750   1.478
45388SOL     OW37937   9.741  13.199   0.019
45388SOL    HW137938   9.659  13.151   0.021
45388SOL    HW237939   9.807  13.136   0.049
45389SOL     OW37940   2.833   4.981  10.040
45389SOL    HW137941   2.925   4.990  10.015
45389SOL    HW237942   2.822   4.887  10.057
45390SOL     OW37943   3.091   5.024  14.592
45390SOL    HW137944   3.185   5.011  14.580
45390SOL    HW237945   3.080   5.119  14.596
45391SOL     OW37946   8.369  12.969  13.924
45391SOL    HW137947   8.419  12.891  13.901
45391SOL    HW237948   8.281  12.937  13.942
45392SOL     OW37949   4.530   9.904   9.564
45392SOL    HW137950   4.539   9.999   9.565
45392SOL    HW237951   4.538   9.878   9.656
45393SOL     OW37952   1.466   9.208   6.983
45393SOL    HW137953   1.553   9.174   6.961
45393SOL    HW237954   1.411   9.180   6.910
45394SOL     OW37955   4.468   6.126   3.899
45394SOL    HW137956   4.441   6.090   3.984
45394SOL    HW237957   4.554   6.087   3.883
45395SOL     OW37958   7.314  10.675   5.595
45395SOL    HW137959   7.249  10.732   5.637
45395SOL    HW237960   7.282  10.587   5.611
45396SOL     OW37961   5.786   2.627   1.126
45396SOL    HW137962   5.740   2.546   1.106
45396SOL    HW237963   5.841   2.643   1.049
45397SOL     OW37964  14.811   1.561   4.850
45397SOL    HW137965  14.846   1.474   4.870
45397SOL    HW237966  14.825   1.612   4.930
45398SOL     OW37967   3.583   8.125  13.115
45398SOL    HW137968   3.576   8.039  13.156
45398SOL    HW237969   3.529   8.118  13.036
45399SOL     OW37970   8.927   1.162   5.778
45399SOL    HW137971   8.959   1.075   5.755
45399SOL    HW237972   8.910   1.156   5.872
45400SOL     OW37973   0.280   6.770  10.425
45400SOL    HW137974   0.255   6.781  10.517
45400SOL    HW237975   0.365   6.812  10.417
45401SOL     OW37976   9.568  13.647   7.664
45401SOL    HW137977   9.520  13.565   7.650
45401SOL    HW237978   9.632  13.650   7.592
45402SOL     OW37979  11.897   4.534   1.712
45402SOL    HW137980  11.913   4.626   1.730
45402SOL    HW237981  11.901   4.491   1.798
45403SOL     OW37982   4.561   9.108   9.350
45403SOL    HW137983   4.600   9.192   9.374
45403SOL    HW237984   4.627   9.065   9.296
45404SOL     OW37985   2.958   1.527  10.303
45404SOL    HW137986   2.890   1.589  10.275
45404SOL    HW237987   2.918   1.441  10.292
45405SOL     OW37988   6.366  12.500  10.101
45405SOL    HW137989   6.448  12.521  10.145
45405SOL    HW237990   6.320  12.583  10.094
45406SOL     OW37991   8.484   6.737   4.270
45406SOL    HW137992   8.492   6.766   4.360
45406SOL    HW237993   8.418   6.667   4.272
45407SOL     OW37994   9.987  10.397   1.129
45407SOL    HW137995  10.050  10.463   1.157
45407SOL    HW237996   9.908  10.447   1.108
45408SOL     OW37997   5.382  12.967   8.248
45408SOL    HW137998   5.463  12.936   8.289
45408SOL    HW237999   5.410  13.004   8.164
45409SOL     OW38000   1.700   9.845   9.104
45409SOL    HW138001   1.669   9.879   9.020
45409SOL    HW238002   1.670   9.754   9.106
45410SOL     OW38003   3.853  11.100  11.784
45410SOL    HW138004   3.831  11.136  11.870
45410SOL    HW238005   3.812  11.161  11.721
45411SOL     OW38006   4.667   3.844  11.722
45411SOL    HW138007   4.603   3.794  11.773
45411SOL    HW238008   4.679   3.925  11.771
45412SOL     OW38009   7.179  14.550   0.063
45412SOL    HW138010   7.168  14.559   0.158
45412SOL    HW238011   7.129  14.623   0.026
45413SOL     OW38012   3.939   5.469   8.834
45413SOL    HW138013   3.890   5.505   8.908
45413SOL    HW238014   3.893   5.502   8.757
45414SOL     OW38015   4.232  13.178   4.532
45414SOL    HW138016   4.320  13.187   4.570
45414SOL    HW238017   4.248  13.156   4.440
45415SOL     OW38018   7.012  14.553   0.962
45415SOL    HW138019   7.001  14.586   1.051
45415SOL    HW238020   7.089  14.498   0.967
45416SOL     OW38021   5.377  11.185   4.140
45416SOL    HW138022   5.458  11.136   4.148
45416SOL    HW238023   5.383  11.227   4.054
45417SOL     OW38024   9.008   0.855  13.236
45417SOL    HW138025   8.956   0.774  13.240
45417SOL    HW238026   8.954   0.920  13.281
45418SOL     OW38027   3.983   5.332   1.420
45418SOL    HW138028   3.893   5.321   1.449
45418SOL    HW238029   3.976   5.349   1.326
45419SOL     OW38030   0.146   0.692  12.057
45419SOL    HW138031   0.185   0.771  12.021
45419SOL    HW238032   0.078   0.723  12.117
45420SOL     OW38033   2.882   0.565  12.471
45420SOL    HW138034   2.802   0.612  12.496
45420SOL    HW238035   2.872   0.551  12.377
45421SOL     OW38036   0.319   2.559   4.727
45421SOL    HW138037   0.361   2.597   4.650
45421SOL    HW238038   0.339   2.465   4.721
45422SOL     OW38039   8.263   4.271   9.957
45422SOL    HW138040   8.180   4.252   9.916
45422SOL    HW238041   8.263   4.220  10.038
45423SOL     OW38042   9.503  11.253  14.673
45423SOL    HW138043   9.596  11.233  14.686
45423SOL    HW238044   9.492  11.342  14.704
45424SOL     OW38045   2.509  10.448  11.788
45424SOL    HW138046   2.555  10.476  11.867
45424SOL    HW238047   2.526  10.354  11.782
45425SOL     OW38048  14.147  14.005   5.148
45425SOL    HW138049  14.138  14.051   5.064
45425SOL    HW238050  14.064  13.957   5.158
45426SOL     OW38051   5.137  13.791   6.393
45426SOL    HW138052   5.088  13.792   6.310
45426SOL    HW238053   5.070  13.785   6.460
45427SOL     OW38054   3.139  12.471   6.229
45427SOL    HW138055   3.231  12.460   6.250
45427SOL    HW238056   3.095  12.470   6.314
45428SOL     OW38057   3.908  10.952   7.160
45428SOL    HW138058   3.960  10.922   7.234
45428SOL    HW238059   3.941  11.040   7.141
45429SOL     OW38060   0.313  10.451   7.633
45429SOL    HW138061   0.293  10.490   7.548
45429SOL    HW238062   0.229  10.415   7.663
45430SOL     OW38063  13.802   1.666   4.376
45430SOL    HW138064  13.775   1.638   4.463
45430SOL    HW238065  13.897   1.667   4.379
45431SOL     OW38066   3.200  13.905   5.350
45431SOL    HW138067   3.278  13.851   5.342
45431SOL    HW238068   3.153  13.869   5.425
45432SOL     OW38069  13.769   9.109   3.040
45432SOL    HW138070  13.722   9.050   2.981
45432SOL    HW238071  13.748   9.077   3.128
45433SOL     OW38072   4.612   4.720   5.287
45433SOL    HW138073   4.611   4.731   5.382
45433SOL    HW238074   4.654   4.800   5.254
45434SOL     OW38075   5.280   8.443  10.666
45434SOL    HW138076   5.225   8.371  10.638
45434SOL    HW238077   5.232   8.522  10.640
45435SOL     OW38078   0.756   2.500   1.128
45435SOL    HW138079   0.691   2.547   1.179
45435SOL    HW238080   0.840   2.520   1.171
45436SOL     OW38081  12.793  10.546   0.465
45436SOL    HW138082  12.796  10.453   0.487
45436SOL    HW238083  12.753  10.587   0.543
45437SOL     OW38084  10.519   9.233  12.568
45437SOL    HW138085  10.606   9.225  12.607
45437SOL    HW238086  10.490   9.322  12.589
45438SOL     OW38087   6.237  10.978   4.033
45438SOL    HW138088   6.292  11.014   4.102
45438SOL    HW238089   6.298  10.936   3.972
45439SOL     OW38090   0.608   3.909   6.155
45439SOL    HW138091   0.633   3.844   6.089
45439SOL    HW238092   0.691   3.936   6.195
45440SOL     OW38093  10.190  10.259   5.018
45440SOL    HW138094  10.164  10.342   5.058
45440SOL    HW238095  10.109  10.224   4.981
45441SOL     OW38096  12.164  14.285   8.033
45441SOL    HW138097  12.128  14.247   7.953
45441SOL    HW238098  12.231  14.222   8.060
45442SOL     OW38099  12.499   0.618   2.956
45442SOL    HW138100  12.426   0.580   2.907
45442SOL    HW238101  12.467   0.622   3.046
45443SOL     OW38102   4.965   9.909  13.008
45443SOL    HW138103   5.023   9.976  13.046
45443SOL    HW238104   5.000   9.826  13.040
45444SOL     OW38105   6.643  11.944   5.132
45444SOL    HW138106   6.601  11.975   5.212
45444SOL    HW238107   6.588  11.978   5.062
45445SOL     OW38108   7.976  12.877   2.717
45445SOL    HW138109   7.980  12.950   2.656
45445SOL    HW238110   7.924  12.810   2.671
45446SOL     OW38111  10.052   6.508   6.815
45446SOL    HW138112  10.043   6.517   6.910
45446SOL    HW238113   9.979   6.559   6.779
45447SOL     OW38114   8.772   0.668   0.694
45447SOL    HW138115   8.717   0.682   0.771
45447SOL    HW238116   8.744   0.735   0.631
45448SOL     OW38117   5.278   8.854   5.804
45448SOL    HW138118   5.367   8.828   5.782
45448SOL    HW238119   5.273   8.946   5.779
45449SOL     OW38120  11.156   7.258   5.392
45449SOL    HW138121  11.212   7.196   5.440
45449SOL    HW238122  11.080   7.269   5.449
45450SOL     OW38123   8.759   8.562  12.994
45450SOL    HW138124   8.672   8.595  13.015
45450SOL    HW238125   8.764   8.477  13.040
45451SOL     OW38126   3.515  11.609  10.223
45451SOL    HW138127   3.575  11.670  10.266
45451SOL    HW238128   3.573  11.549  10.174
45452SOL     OW38129   4.077  13.283   9.504
45452SOL    HW138130   4.146  13.348   9.519
45452SOL    HW238131   4.086  13.221   9.576
45453SOL     OW38132   4.877   9.018  12.378
45453SOL    HW138133   4.822   9.035  12.455
45453SOL    HW238134   4.854   8.929  12.352
45454SOL     OW38135   6.844   6.325  13.364
45454SOL    HW138136   6.908   6.266  13.324
45454SOL    HW238137   6.780   6.340  13.295
45455SOL     OW38138   8.846   2.290   6.495
45455SOL    HW138139   8.833   2.198   6.519
45455SOL    HW238140   8.789   2.338   6.556
45456SOL     OW38141   0.474   8.019   9.149
45456SOL    HW138142   0.382   8.040   9.138
45456SOL    HW238143   0.502   8.071   9.224
45457SOL     OW38144  12.964   9.866   6.709
45457SOL    HW138145  13.000   9.797   6.653
45457SOL    HW238146  12.991   9.841   6.797
45458SOL     OW38147  11.490   0.076  12.236
45458SOL    HW138148  11.468  14.874  12.188
45458SOL    HW238149  11.427   0.141  12.205
45459SOL     OW38150  12.471   1.991   4.352
45459SOL    HW138151  12.415   2.026   4.283
45459SOL    HW238152  12.466   1.896   4.341
45460SOL     OW38153  14.035   0.711   9.052
45460SOL    HW138154  14.012   0.651   8.981
45460SOL    HW238155  14.079   0.655   9.116
45461SOL     OW38156   5.572   9.951  10.009
45461SOL    HW138157   5.571   9.931   9.915
45461SOL    HW238158   5.619   9.877  10.048
45462SOL     OW38159  13.630   0.728   0.275
45462SOL    HW138160  13.566   0.758   0.212
45462SOL    HW238161  13.578   0.696   0.349
45463SOL     OW38162  12.925  14.233   2.064
45463SOL    HW138163  12.837  14.215   2.096
45463SOL    HW238164  12.965  14.288   2.132
45464SOL     OW38165  10.629  13.219   2.740
45464SOL    HW138166  10.564  13.255   2.680
45464SOL    HW238167  10.680  13.158   2.687
45465SOL     OW38168   0.126  11.323   3.047
45465SOL    HW138169   0.090  11.373   2.973
45465SOL    HW238170   0.091  11.367   3.124
45466SOL     OW38171   1.022  10.284  10.193
45466SOL    HW138172   0.956  10.351  10.172
45466SOL    HW238173   1.022  10.280  10.289
45467SOL     OW38174   6.342  13.081  10.905
45467SOL    HW138175   6.334  13.122  10.991
45467SOL    HW238176   6.260  13.102  10.861
45468SOL     OW38177   8.624   2.840   7.285
45468SOL    HW138178   8.581   2.889   7.215
45468SOL    HW238179   8.554   2.791   7.327
45469SOL     OW38180   7.930   2.572   5.915
45469SOL    HW138181   7.929   2.477   5.931
45469SOL    HW238182   7.909   2.611   5.999
45470SOL     OW38183   1.056   1.515   5.816
45470SOL    HW138184   1.109   1.571   5.872
45470SOL    HW238185   1.091   1.531   5.728
45471SOL     OW38186  14.455   2.784  13.390
45471SOL    HW138187  14.394   2.787  13.464
45471SOL    HW238188  14.488   2.694  13.389
45472SOL     OW38189   1.569   2.342   5.138
45472SOL    HW138190   1.612   2.257   5.144
45472SOL    HW238191   1.641   2.404   5.125
45473SOL     OW38192  12.010   8.784  14.374
45473SOL    HW138193  12.093   8.759  14.416
45473SOL    HW238194  12.008   8.733  14.293
45474SOL     OW38195  11.749  11.987   0.422
45474SOL    HW138196  11.795  11.987   0.339
45474SOL    HW238197  11.664  11.946   0.403
45475SOL     OW38198  14.388  14.394   1.075
45475SOL    HW138199  14.304  14.350   1.063
45475SOL    HW238200  14.439  14.333   1.128
45476SOL     OW38201  12.848   1.230  10.315
45476SOL    HW138202  12.910   1.299  10.293
45476SOL    HW238203  12.766   1.257  10.273
45477SOL     OW38204   8.253   3.400   4.009
45477SOL    HW138205   8.288   3.342   3.940
45477SOL    HW238206   8.327   3.457   4.031
45478SOL     OW38207   9.461   0.699   5.994
45478SOL    HW138208   9.549   0.662   5.984
45478SOL    HW238209   9.459   0.731   6.085
45479SOL     OW38210  13.298  10.106   1.310
45479SOL    HW138211  13.327  10.016   1.322
45479SOL    HW238212  13.212  10.110   1.352
45480SOL     OW38213  10.945   2.062   0.999
45480SOL    HW138214  10.908   2.064   0.910
45480SOL    HW238215  10.990   1.977   1.004
45481SOL     OW38216  10.812   3.674   8.523
45481SOL    HW138217  10.881   3.741   8.532
45481SOL    HW238218  10.755   3.689   8.598
45482SOL     OW38219   7.415   9.905  11.564
45482SOL    HW138220   7.414   9.991  11.522
45482SOL    HW238221   7.352   9.853  11.513
45483SOL     OW38222   4.586   9.913   5.458
45483SOL    HW138223   4.634   9.980   5.506
45483SOL    HW238224   4.498   9.914   5.496
45484SOL     OW38225   2.812  13.699   4.588
45484SOL    HW138226   2.752  13.631   4.620
45484SOL    HW238227   2.841  13.744   4.667
45485SOL     OW38228  10.493  11.743  14.544
45485SOL    HW138229  10.422  11.678  14.547
45485SOL    HW238230  10.559  11.703  14.487
45486SOL     OW38231   7.818  14.085   2.626
45486SOL    HW138232   7.734  14.118   2.594
45486SOL    HW238233   7.869  14.164   2.643
45487SOL     OW38234  11.015   7.074  10.616
45487SOL    HW138235  10.989   7.105  10.529
45487SOL    HW238236  11.049   6.986  10.601
45488SOL     OW38237   7.592  14.150   4.543
45488SOL    HW138238   7.621  14.059   4.534
45488SOL    HW238239   7.649  14.199   4.485
45489SOL     OW38240  12.738   9.460  14.155
45489SOL    HW138241  12.699   9.539  14.190
45489SOL    HW238242  12.817   9.446  14.207
45490SOL     OW38243   5.555  13.040   9.246
45490SOL    HW138244   5.465  13.019   9.271
45490SOL    HW238245   5.547  13.122   9.196
45491SOL     OW38246   1.865   4.512   2.256
45491SOL    HW138247   1.835   4.508   2.347
45491SOL    HW238248   1.859   4.605   2.233
45492SOL     OW38249   4.934   5.066   0.633
45492SOL    HW138250   5.021   5.038   0.661
45492SOL    HW238251   4.883   5.069   0.714
45493SOL     OW38252   1.686  13.300   9.233
45493SOL    HW138253   1.601  13.296   9.278
45493SOL    HW238254   1.725  13.382   9.264
45494SOL     OW38255  14.015   5.083   8.112
45494SOL    HW138256  13.998   5.120   8.025
45494SOL    HW238257  13.936   5.033   8.132
45495SOL     OW38258  12.322  11.342  13.878
45495SOL    HW138259  12.364  11.310  13.798
45495SOL    HW238260  12.314  11.264  13.933
45496SOL     OW38261   2.684  13.842   9.233
45496SOL    HW138262   2.627  13.914   9.206
45496SOL    HW238263   2.764  13.854   9.182
45497SOL     OW38264  12.485   0.870  11.570
45497SOL    HW138265  12.559   0.846  11.514
45497SOL    HW238266  12.413   0.816  11.537
45498SOL     OW38267  10.921   1.410   4.438
45498SOL    HW138268  10.997   1.439   4.388
45498SOL    HW238269  10.911   1.476   4.507
45499SOL     OW38270  12.806   1.157  11.367
45499SOL    HW138271  12.771   1.192  11.449
45499SOL    HW238272  12.879   1.215  11.345
45500SOL     OW38273  11.166  12.833   7.592
45500SOL    HW138274  11.092  12.883   7.627
45500SOL    HW238275  11.237  12.897   7.584
45501SOL     OW38276  11.014   5.552  10.738
45501SOL    HW138277  10.996   5.604  10.816
45501SOL    HW238278  10.945   5.578  10.676
45502SOL     OW38279   7.109   4.521   3.451
45502SOL    HW138280   7.191   4.570   3.449
45502SOL    HW238281   7.052   4.566   3.389
45503SOL     OW38282   1.583   6.402   7.897
45503SOL    HW138283   1.531   6.477   7.927
45503SOL    HW238284   1.518   6.336   7.874
45504SOL     OW38285   9.106   9.022  13.406
45504SOL    HW138286   9.069   9.047  13.490
45504SOL    HW238287   9.035   9.035  13.343
45505SOL     OW38288   9.301   2.530   4.043
45505SOL    HW138289   9.277   2.506   3.954
45505SOL    HW238290   9.364   2.463   4.070
45506SOL     OW38291  11.805   5.458  11.331
45506SOL    HW138292  11.809   5.427  11.240
45506SOL    HW238293  11.798   5.553  11.324
45507SOL     OW38294  11.955   5.549   2.057
45507SOL    HW138295  12.050   5.543   2.051
45507SOL    HW238296  11.938   5.642   2.073
45508SOL     OW38297  11.874   4.986  12.303
45508SOL    HW138298  11.964   4.967  12.330
45508SOL    HW238299  11.883   5.033  12.220
45509SOL     OW38300   1.324   4.163   0.182
45509SOL    HW138301   1.296   4.100   0.116
45509SOL    HW238302   1.412   4.189   0.156
45510SOL     OW38303  14.716   9.697   5.637
45510SOL    HW138304  14.676   9.649   5.566
45510SOL    HW238305  14.728   9.632   5.707
45511SOL     OW38306  10.184  14.183  13.257
45511SOL    HW138307  10.172  14.125  13.181
45511SOL    HW238308  10.162  14.270  13.224
45512SOL     OW38309   5.783   7.248   2.316
45512SOL    HW138310   5.863   7.235   2.264
45512SOL    HW238311   5.808   7.221   2.405
45513SOL     OW38312   8.158  11.620   1.987
45513SOL    HW138313   8.245  11.590   2.013
45513SOL    HW238314   8.106  11.539   1.980
45514SOL     OW38315   2.565   9.896  10.015
45514SOL    HW138316   2.555   9.871   9.923
45514SOL    HW238317   2.479   9.881  10.054
45515SOL     OW38318   7.211   0.346   8.929
45515SOL    HW138319   7.249   0.274   8.980
45515SOL    HW238320   7.117   0.337   8.943
45516SOL     OW38321  12.634  12.328  13.858
45516SOL    HW138322  12.642  12.381  13.778
45516SOL    HW238323  12.546  12.291  13.854
45517SOL     OW38324   9.248   2.752   2.676
45517SOL    HW138325   9.299   2.673   2.663
45517SOL    HW238326   9.230   2.784   2.588
45518SOL     OW38327   3.576   0.923   5.632
45518SOL    HW138328   3.557   1.012   5.661
45518SOL    HW238329   3.514   0.869   5.681
45519SOL     OW38330  13.279   3.591   5.158
45519SOL    HW138331  13.352   3.558   5.210
45519SOL    HW238332  13.260   3.520   5.096
45520SOL     OW38333   5.711   6.706  13.286
45520SOL    HW138334   5.766   6.785  13.292
45520SOL    HW238335   5.754   6.643  13.344
45521SOL     OW38336   6.227   1.547   3.307
45521SOL    HW138337   6.192   1.598   3.234
45521SOL    HW238338   6.275   1.475   3.265
45522SOL     OW38339   0.462   6.110   8.221
45522SOL    HW138340   0.537   6.071   8.177
45522SOL    HW238341   0.407   6.143   8.150
45523SOL     OW38342   7.354   1.853  10.746
45523SOL    HW138343   7.291   1.920  10.720
45523SOL    HW238344   7.389   1.819  10.663
45524SOL     OW38345   2.365   8.320   8.138
45524SOL    HW138346   2.409   8.352   8.217
45524SOL    HW238347   2.272   8.318   8.162
45525SOL     OW38348  11.908  12.823   3.367
45525SOL    HW138349  11.905  12.789   3.278
45525SOL    HW238350  11.916  12.918   3.357
45526SOL     OW38351   9.865   1.398  14.049
45526SOL    HW138352   9.903   1.449  14.121
45526SOL    HW238353   9.861   1.308  14.084
45527SOL     OW38354   6.205  10.772   6.387
45527SOL    HW138355   6.288  10.725   6.387
45527SOL    HW238356   6.204  10.818   6.471
45528SOL     OW38357  11.952   0.431   6.699
45528SOL    HW138358  12.001   0.464   6.775
45528SOL    HW238359  12.000   0.465   6.623
45529SOL     OW38360  14.464  10.142   0.324
45529SOL    HW138361  14.550  10.100   0.321
45529SOL    HW238362  14.452  10.179   0.236
45530SOL     OW38363   1.222  13.512   4.413
45530SOL    HW138364   1.180  13.467   4.339
45530SOL    HW238365   1.163  13.584   4.434
45531SOL     OW38366   4.315  12.280   2.227
45531SOL    HW138367   4.249  12.326   2.176
45531SOL    HW238368   4.309  12.320   2.314
45532SOL     OW38369   9.021   7.284   5.364
45532SOL    HW138370   9.008   7.378   5.377
45532SOL    HW238371   8.965   7.243   5.430
45533SOL     OW38372   2.033  11.295   1.986
45533SOL    HW138373   2.087  11.374   1.977
45533SOL    HW238374   2.096  11.223   1.986
45534SOL     OW38375  10.466   4.737   7.283
45534SOL    HW138376  10.411   4.683   7.340
45534SOL    HW238377  10.545   4.686   7.269
45535SOL     OW38378   7.653  13.736  12.129
45535SOL    HW138379   7.654  13.760  12.222
45535SOL    HW238380   7.628  13.816  12.084
45536SOL     OW38381   1.245   6.215   8.021
45536SOL    HW138382   1.281   6.200   7.934
45536SOL    HW238383   1.322   6.224   8.077
45537SOL     OW38384  10.191   5.080   2.247
45537SOL    HW138385  10.160   5.143   2.313
45537SOL    HW238386  10.115   5.066   2.191
45538SOL     OW38387   7.400   5.959   9.079
45538SOL    HW138388   7.475   6.019   9.077
45538SOL    HW238389   7.324   6.017   9.092
45539SOL     OW38390   4.002   7.154   1.673
45539SOL    HW138391   4.046   7.226   1.628
45539SOL    HW238392   4.060   7.079   1.662
45540SOL     OW38393   8.534   7.872   2.113
45540SOL    HW138394   8.570   7.913   2.035
45540SOL    HW238395   8.523   7.943   2.175
45541SOL     OW38396   5.081   2.882   3.810
45541SOL    HW138397   5.100   2.870   3.716
45541SOL    HW238398   5.166   2.873   3.852
45542SOL     OW38399   4.198   1.738   4.883
45542SOL    HW138400   4.277   1.768   4.929
45542SOL    HW238401   4.181   1.651   4.919
45543SOL     OW38402  14.168  11.832   0.769
45543SOL    HW138403  14.206  11.904   0.720
45543SOL    HW238404  14.098  11.799   0.713
45544SOL     OW38405  13.402   0.408   8.286
45544SOL    HW138406  13.443   0.487   8.323
45544SOL    HW238407  13.318   0.439   8.251
45545SOL     OW38408   5.647   8.534   3.013
45545SOL    HW138409   5.708   8.461   3.014
45545SOL    HW238410   5.652   8.571   3.102
45546SOL     OW38411   8.834   4.975  13.284
45546SOL    HW138412   8.817   4.882  13.302
45546SOL    HW238413   8.817   4.985  13.191
45547SOL     OW38414   5.921  14.866   6.180
45547SOL    HW138415   5.869  14.865   6.100
45547SOL    HW238416   5.969  14.783   6.178
45548SOL     OW38417   4.303   9.656  10.587
45548SOL    HW138418   4.352   9.647  10.669
45548SOL    HW238419   4.250   9.735  10.600
45549SOL     OW38420   5.369  10.011   2.343
45549SOL    HW138421   5.304  10.077   2.317
45549SOL    HW238422   5.332   9.971   2.421
45550SOL     OW38423   5.612   4.069   6.577
45550SOL    HW138424   5.552   4.013   6.528
45550SOL    HW238425   5.672   4.009   6.621
45551SOL     OW38426   8.082   4.592   7.791
45551SOL    HW138427   8.058   4.629   7.876
45551SOL    HW238428   8.008   4.612   7.734
45552SOL     OW38429  10.191  14.614   3.166
45552SOL    HW138430  10.137  14.668   3.224
45552SOL    HW238431  10.215  14.672   3.094
45553SOL     OW38432   7.793  13.162  12.267
45553SOL    HW138433   7.848  13.236  12.243
45553SOL    HW238434   7.825  13.090  12.212
45554SOL     OW38435   6.559   2.198   0.175
45554SOL    HW138436   6.610   2.132   0.222
45554SOL    HW238437   6.622   2.267   0.155
45555SOL     OW38438   7.193   1.710  12.067
45555SOL    HW138439   7.165   1.699  12.158
45555SOL    HW238440   7.112   1.727  12.019
45556SOL     OW38441   6.854  11.749  14.384
45556SOL    HW138442   6.841  11.738  14.289
45556SOL    HW238443   6.942  11.785  14.392
45557SOL     OW38444  12.266   9.518   3.702
45557SOL    HW138445  12.283   9.596   3.649
45557SOL    HW238446  12.201   9.468   3.652
45558SOL     OW38447   4.934  11.654   7.448
45558SOL    HW138448   4.949  11.704   7.368
45558SOL    HW238449   5.022  11.635   7.481
45559SOL     OW38450   1.263  12.449  10.673
45559SOL    HW138451   1.279  12.387  10.603
45559SOL    HW238452   1.236  12.395  10.748
45560SOL     OW38453  13.654   7.396  11.613
45560SOL    HW138454  13.664   7.462  11.682
45560SOL    HW238455  13.571   7.420  11.570
45561SOL     OW38456   8.236   0.137  12.274
45561SOL    HW138457   8.296   0.081  12.322
45561SOL    HW238458   8.289   0.175  12.204
45562SOL     OW38459   2.530  11.116   0.176
45562SOL    HW138460   2.516  11.187   0.239
45562SOL    HW238461   2.453  11.119   0.120
45563SOL     OW38462   1.035   6.853   0.344
45563SOL    HW138463   1.097   6.811   0.284
45563SOL    HW238464   0.969   6.892   0.287
45564SOL     OW38465  14.243  14.769   0.919
45564SOL    HW138466  14.253  14.832   0.847
45564SOL    HW238467  14.235  14.684   0.875
45565SOL     OW38468   3.068  14.168   5.837
45565SOL    HW138469   3.144  14.211   5.877
45565SOL    HW238470   3.004  14.238   5.828
45566SOL     OW38471   3.920   1.536  10.357
45566SOL    HW138472   3.936   1.453  10.311
45566SOL    HW238473   3.830   1.529  10.387
45567SOL     OW38474  12.850  11.234   9.057
45567SOL    HW138475  12.774  11.277   9.019
45567SOL    HW238476  12.925  11.286   9.028
45568SOL     OW38477  10.627   1.515   9.238
45568SOL    HW138478  10.623   1.497   9.332
45568SOL    HW238479  10.650   1.431   9.199
45569SOL     OW38480  13.949  10.779  10.025
45569SOL    HW138481  14.038  10.758   9.998
45569SOL    HW238482  13.904  10.694  10.029
45570SOL     OW38483  14.439  11.145  13.339
45570SOL    HW138484  14.422  11.096  13.259
45570SOL    HW238485  14.375  11.112  13.402
45571SOL     OW38486   4.080  12.577  14.004
45571SOL    HW138487   4.111  12.645  14.064
45571SOL    HW238488   4.074  12.620  13.919
45572SOL     OW38489   2.450   5.759   0.851
45572SOL    HW138490   2.508   5.824   0.890
45572SOL    HW238491   2.403   5.806   0.783
45573SOL     OW38492   9.703   0.664   0.999
45573SOL    HW138493   9.712   0.571   1.018
45573SOL    HW238494   9.655   0.700   1.073
45574SOL     OW38495   9.771   1.689  11.150
45574SOL    HW138496   9.715   1.750  11.103
45574SOL    HW238497   9.807   1.633  11.081
45575SOL     OW38498   7.813   8.285   7.113
45575SOL    HW138499   7.821   8.339   7.192
45575SOL    HW238500   7.875   8.322   7.051
45576SOL     OW38501   6.748   5.991  13.698
45576SOL    HW138502   6.788   6.054  13.759
45576SOL    HW238503   6.654   6.005  13.708
45577SOL     OW38504   8.148   0.178   4.901
45577SOL    HW138505   8.104   0.245   4.849
45577SOL    HW238506   8.089   0.160   4.974
45578SOL     OW38507  13.654   3.672   6.274
45578SOL    HW138508  13.709   3.680   6.196
45578SOL    HW238509  13.712   3.693   6.347
45579SOL     OW38510   2.996   2.781   7.957
45579SOL    HW138511   2.959   2.868   7.944
45579SOL    HW238512   2.926   2.721   7.933
45580SOL     OW38513   7.847  11.323  14.325
45580SOL    HW138514   7.883  11.340  14.412
45580SOL    HW238515   7.757  11.353  14.329
45581SOL     OW38516   0.667  12.763  10.890
45581SOL    HW138517   0.695  12.762  10.798
45581SOL    HW238518   0.737  12.718  10.936
45582SOL     OW38519  10.115  13.642   2.134
45582SOL    HW138520  10.141  13.730   2.159
45582SOL    HW238521  10.020  13.648   2.119
45583SOL     OW38522  11.931   0.750   7.633
45583SOL    HW138523  11.999   0.757   7.566
45583SOL    HW238524  11.900   0.840   7.644
45584SOL     OW38525   0.871   0.702   4.810
45584SOL    HW138526   0.829   0.636   4.864
45584SOL    HW238527   0.944   0.657   4.769
45585SOL     OW38528  13.124   3.892   9.931
45585SOL    HW138529  13.154   3.917  10.018
45585SOL    HW238530  13.109   3.798   9.936
45586SOL     OW38531   0.951   2.081   6.309
45586SOL    HW138532   0.922   2.144   6.374
45586SOL    HW238533   0.934   2.123   6.224
45587SOL     OW38534  11.166  13.207   4.129
45587SOL    HW138535  11.103  13.162   4.184
45587SOL    HW238536  11.144  13.299   4.137
45588SOL     OW38537  10.933   0.320   4.413
45588SOL    HW138538  10.936   0.224   4.411
45588SOL    HW238539  10.996   0.344   4.481
45589SOL     OW38540  10.011   4.245  10.390
45589SOL    HW138541   9.949   4.291  10.447
45589SOL    HW238542  10.067   4.195  10.450
45590SOL     OW38543   5.530   9.901   9.754
45590SOL    HW138544   5.615   9.906   9.708
45590SOL    HW238545   5.518   9.808   9.771
45591SOL     OW38546  13.142   8.480  11.213
45591SOL    HW138547  13.054   8.518  11.223
45591SOL    HW238548  13.182   8.489  11.300
45592SOL     OW38549  11.261  14.358   3.070
45592SOL    HW138550  11.348  14.361   3.029
45592SOL    HW238551  11.276  14.316   3.154
45593SOL     OW38552   7.633   7.948   4.611
45593SOL    HW138553   7.571   8.021   4.613
45593SOL    HW238554   7.705   7.979   4.556
45594SOL     OW38555   4.828  14.389   0.633
45594SOL    HW138556   4.838  14.453   0.563
45594SOL    HW238557   4.746  14.344   0.614
45595SOL     OW38558  13.717   7.607   7.482
45595SOL    HW138559  13.672   7.527   7.452
45595SOL    HW238560  13.800   7.575   7.517
45596SOL     OW38561   8.710   0.464  14.331
45596SOL    HW138562   8.754   0.534  14.379
45596SOL    HW238563   8.665   0.508  14.260
45597SOL     OW38564  13.707   6.452   8.303
45597SOL    HW138565  13.657   6.380   8.263
45597SOL    HW238566  13.763   6.484   8.232
45598SOL     OW38567   7.161   4.072  11.981
45598SOL    HW138568   7.117   4.155  11.962
45598SOL    HW238569   7.105   4.031  12.047
45599SOL     OW38570   0.053  11.261   4.394
45599SOL    HW138571  14.845  11.305   4.397
45599SOL    HW238572   0.114  11.331   4.371
45600SOL     OW38573   7.352   3.639   1.229
45600SOL    HW138574   7.444   3.622   1.252
45600SOL    HW238575   7.314   3.552   1.215
45601SOL     OW38576  12.752   5.679   3.198
45601SOL    HW138577  12.776   5.770   3.210
45601SOL    HW238578  12.657   5.680   3.183
45602SOL     OW38579   4.345   4.010   8.208
45602SOL    HW138580   4.405   4.080   8.235
45602SOL    HW238581   4.329   3.960   8.288
45603SOL     OW38582   5.728  11.392  11.511
45603SOL    HW138583   5.638  11.370  11.488
45603SOL    HW238584   5.720  11.454  11.584
45604SOL     OW38585   3.804  11.396   8.540
45604SOL    HW138586   3.865  11.321   8.541
45604SOL    HW238587   3.849  11.462   8.488
45605SOL     OW38588  14.112   6.318  13.629
45605SOL    HW138589  14.200   6.319  13.593
45605SOL    HW238590  14.065   6.251  13.579
45606SOL     OW38591   5.268  12.105  10.622
45606SOL    HW138592   5.206  12.048  10.666
45606SOL    HW238593   5.320  12.144  10.692
45607SOL     OW38594   7.417   6.952   0.644
45607SOL    HW138595   7.359   7.016   0.602
45607SOL    HW238596   7.503   6.968   0.606
45608SOL     OW38597   5.506  12.460  14.413
45608SOL    HW138598   5.443  12.387  14.421
45608SOL    HW238599   5.451  12.538  14.406
45609SOL     OW38600   3.543   1.358   0.276
45609SOL    HW138601   3.469   1.297   0.274
45609SOL    HW238602   3.515   1.432   0.223
45610SOL     OW38603   8.359   4.798  11.742
45610SOL    HW138604   8.332   4.794  11.650
45610SOL    HW238605   8.315   4.723  11.783
45611SOL     OW38606   0.120   4.156   1.743
45611SOL    HW138607   0.152   4.066   1.731
45611SOL    HW238608   0.093   4.159   1.834
45612SOL     OW38609   3.200   2.265  11.870
45612SOL    HW138610   3.262   2.335  11.890
45612SOL    HW238611   3.220   2.196  11.934
45613SOL     OW38612   4.368   3.655  10.113
45613SOL    HW138613   4.338   3.682  10.027
45613SOL    HW238614   4.463   3.645  10.104
45614SOL     OW38615  13.434   8.832   4.741
45614SOL    HW138616  13.431   8.804   4.649
45614SOL    HW238617  13.406   8.923   4.740
45615SOL     OW38618  13.618  13.690   2.987
45615SOL    HW138619  13.545  13.631   3.006
45615SOL    HW238620  13.639  13.731   3.071
45616SOL     OW38621   9.528   9.453   8.462
45616SOL    HW138622   9.619   9.441   8.434
45616SOL    HW238623   9.476   9.413   8.393
45617SOL     OW38624   1.386   4.626   5.046
45617SOL    HW138625   1.474   4.590   5.046
45617SOL    HW238626   1.389   4.698   4.983
45618SOL     OW38627  13.011   7.686  13.573
45618SOL    HW138628  13.075   7.696  13.643
45618SOL    HW238629  12.958   7.611  13.600
45619SOL     OW38630   7.312   4.948   7.774
45619SOL    HW138631   7.321   4.912   7.686
45619SOL    HW238632   7.317   4.872   7.832
45620SOL     OW38633  13.373   2.441   6.248
45620SOL    HW138634  13.371   2.348   6.226
45620SOL    HW238635  13.320   2.483   6.180
45621SOL     OW38636  12.067   5.433  14.872
45621SOL    HW138637  11.994   5.418   0.054
45621SOL    HW238638  12.144   5.437   0.051
45622SOL     OW38639   0.319   6.970   0.763
45622SOL    HW138640   0.385   7.008   0.704
45622SOL    HW238641   0.280   6.899   0.711
45623SOL     OW38642   3.448   7.513  12.266
45623SOL    HW138643   3.429   7.606  12.258
45623SOL    HW238644   3.497   7.491  12.186
45624SOL     OW38645  13.370   3.014   3.583
45624SOL    HW138646  13.375   3.036   3.490
45624SOL    HW238647  13.410   2.927   3.590
45625SOL     OW38648   1.032   4.013   8.556
45625SOL    HW138649   1.087   4.065   8.615
45625SOL    HW238650   0.994   3.945   8.612
45626SOL     OW38651  10.603   0.592  13.037
45626SOL    HW138652  10.595   0.523  13.103
45626SOL    HW238653  10.591   0.673  13.085
45627SOL     OW38654  12.745   5.819   3.920
45627SOL    HW138655  12.669   5.787   3.968
45627SOL    HW238656  12.722   5.909   3.895
45628SOL     OW38657   7.782   9.353  12.767
45628SOL    HW138658   7.695   9.346  12.726
45628SOL    HW238659   7.797   9.447  12.774
45629SOL     OW38660   2.062   2.523   1.880
45629SOL    HW138661   2.108   2.470   1.945
45629SOL    HW238662   2.132   2.571   1.835
45630SOL     OW38663   2.192   2.013   4.639
45630SOL    HW138664   2.178   2.091   4.693
45630SOL    HW238665   2.116   1.958   4.657
45631SOL     OW38666  14.644  13.953   6.764
45631SOL    HW138667  14.557  13.941   6.726
45631SOL    HW238668  14.704  13.927   6.694
45632SOL     OW38669   0.369   0.108   3.180
45632SOL    HW138670   0.281   0.085   3.149
45632SOL    HW238671   0.423   0.109   3.101
45633SOL     OW38672   7.182   6.273   0.648
45633SOL    HW138673   7.205   6.181   0.643
45633SOL    HW238674   7.224   6.313   0.571
45634SOL     OW38675   2.253   9.854   6.061
45634SOL    HW138676   2.287   9.934   6.101
45634SOL    HW238677   2.225   9.800   6.135
45635SOL     OW38678   7.011   1.846  14.430
45635SOL    HW138679   7.027   1.762  14.473
45635SOL    HW238680   6.931   1.833  14.379
45636SOL     OW38681  11.164   5.861  14.596
45636SOL    HW138682  11.241   5.916  14.577
45636SOL    HW238683  11.147   5.875  14.689
45637SOL     OW38684   8.804   9.571   3.179
45637SOL    HW138685   8.854   9.501   3.222
45637SOL    HW238686   8.717   9.533   3.165
45638SOL     OW38687   6.553  14.733   0.474
45638SOL    HW138688   6.647  14.748   0.483
45638SOL    HW238689   6.544  14.687   0.390
45639SOL     OW38690   7.444  13.880  10.007
45639SOL    HW138691   7.500  13.938   9.955
45639SOL    HW238692   7.490  13.796  10.008
45640SOL     OW38693   1.418   5.148  11.659
45640SOL    HW138694   1.407   5.236  11.625
45640SOL    HW238695   1.466   5.101  11.591
45641SOL     OW38696   6.714  13.403   0.193
45641SOL    HW138697   6.790  13.359   0.154
45641SOL    HW238698   6.744  13.492   0.209
45642SOL     OW38699  14.535  13.578  14.094
45642SOL    HW138700  14.512  13.541  14.179
45642SOL    HW238701  14.459  13.631  14.069
45643SOL     OW38702   8.034   5.396  11.356
45643SOL    HW138703   8.039   5.336  11.430
45643SOL    HW238704   8.033   5.483  11.396
45644SOL     OW38705   6.044  11.414   0.693
45644SOL    HW138706   6.026  11.491   0.639
45644SOL    HW238707   5.959  11.386   0.725
45645SOL     OW38708   8.549  13.395   8.040
45645SOL    HW138709   8.593  13.313   8.060
45645SOL    HW238710   8.607  13.463   8.076
45646SOL     OW38711  13.081  13.023   4.314
45646SOL    HW138712  13.082  13.077   4.235
45646SOL    HW238713  12.990  13.026   4.344
45647SOL     OW38714   7.762   3.267   9.604
45647SOL    HW138715   7.678   3.230   9.579
45647SOL    HW238716   7.825   3.225   9.545
45648SOL     OW38717  11.259   1.218  14.544
45648SOL    HW138718  11.177   1.174  14.569
45648SOL    HW238719  11.305   1.154  14.490
45649SOL     OW38720   0.498   4.847   4.327
45649SOL    HW138721   0.431   4.841   4.395
45649SOL    HW238722   0.508   4.941   4.313
45650SOL     OW38723  10.109   4.427   5.584
45650SOL    HW138724  10.140   4.427   5.674
45650SOL    HW238725  10.073   4.339   5.571
45651SOL     OW38726   9.539   0.805   2.058
45651SOL    HW138727   9.522   0.897   2.038
45651SOL    HW238728   9.539   0.761   1.972
45652SOL     OW38729   5.627  10.253   7.038
45652SOL    HW138730   5.607  10.207   7.120
45652SOL    HW238731   5.677  10.189   6.987
45653SOL     OW38732   8.271   0.820   5.958
45653SOL    HW138733   8.210   0.782   5.894
45653SOL    HW238734   8.325   0.747   5.987
45654SOL     OW38735   8.974  13.056   2.496
45654SOL    HW138736   8.999  12.972   2.535
45654SOL    HW238737   9.054  13.109   2.500
45655SOL     OW38738   8.458   2.548   8.855
45655SOL    HW138739   8.397   2.504   8.913
45655SOL    HW238740   8.478   2.631   8.899
45656SOL     OW38741   9.577  13.052  11.680
45656SOL    HW138742   9.537  12.967  11.661
45656SOL    HW238743   9.645  13.062  11.614
45657SOL     OW38744  10.198   4.343  11.649
45657SOL    HW138745  10.203   4.250  11.628
45657SOL    HW238746  10.168   4.385  11.568
45658SOL     OW38747   6.489  10.510  10.347
45658SOL    HW138748   6.517  10.464  10.426
45658SOL    HW238749   6.438  10.585  10.379
45659SOL     OW38750   5.478   1.394   5.106
45659SOL    HW138751   5.473   1.467   5.045
45659SOL    HW238752   5.554   1.413   5.161
45660SOL     OW38753   8.198  12.053  13.229
45660SOL    HW138754   8.211  11.967  13.271
45660SOL    HW238755   8.127  12.092  13.279
45661SOL     OW38756  11.900  12.451  11.565
45661SOL    HW138757  11.840  12.398  11.513
45661SOL    HW238758  11.846  12.522  11.599
45662SOL     OW38759   2.186   0.034   9.312
45662SOL    HW138760   2.263   0.039   9.369
45662SOL    HW238761   2.154  14.822   9.325
45663SOL     OW38762  14.399   7.563   9.984
45663SOL    HW138763  14.378   7.537   9.895
45663SOL    HW238764  14.414   7.481  10.031
45664SOL     OW38765   6.613  13.627  12.612
45664SOL    HW138766   6.626  13.601  12.703
45664SOL    HW238767   6.545  13.569  12.579
45665SOL     OW38768  10.303  11.075   9.354
45665SOL    HW138769  10.395  11.050   9.363
45665SOL    HW238770  10.258  11.022   9.420
45666SOL     OW38771   7.847   9.218  11.542
45666SOL    HW138772   7.780   9.158  11.574
45666SOL    HW238773   7.916   9.215  11.608
45667SOL     OW38774   9.683   8.826   1.209
45667SOL    HW138775   9.737   8.850   1.284
45667SOL    HW238776   9.601   8.874   1.221
45668SOL     OW38777  13.932   3.306   8.099
45668SOL    HW138778  13.977   3.380   8.059
45668SOL    HW238779  14.002   3.250   8.132
45669SOL     OW38780   3.775   3.632   4.302
45669SOL    HW138781   3.741   3.680   4.378
45669SOL    HW238782   3.820   3.699   4.250
45670SOL     OW38783   9.831   6.152   0.320
45670SOL    HW138784   9.878   6.198   0.250
45670SOL    HW238785   9.829   6.216   0.392
45671SOL     OW38786   8.540   7.178   0.957
45671SOL    HW138787   8.496   7.187   1.041
45671SOL    HW238788   8.626   7.219   0.970
45672SOL     OW38789   0.570   5.243   3.518
45672SOL    HW138790   0.615   5.280   3.594
45672SOL    HW238791   0.594   5.301   3.445
45673SOL     OW38792   9.812   5.163   3.119
45673SOL    HW138793   9.784   5.228   3.054
45673SOL    HW238794   9.891   5.200   3.158
45674SOL     OW38795   9.630   4.490  14.077
45674SOL    HW138796   9.717   4.530  14.077
45674SOL    HW238797   9.608   4.480  13.984
45675SOL     OW38798   3.227  10.601   6.709
45675SOL    HW138799   3.315  10.639   6.704
45675SOL    HW238800   3.173  10.670   6.746
45676SOL     OW38801   8.594  10.231  13.504
45676SOL    HW138802   8.651  10.253  13.578
45676SOL    HW238803   8.610  10.300  13.440
45677SOL     OW38804   8.656   3.821  10.914
45677SOL    HW138805   8.667   3.916  10.919
45677SOL    HW238806   8.585   3.802  10.975
45678SOL     OW38807   4.062   1.287   3.661
45678SOL    HW138808   4.154   1.263   3.654
45678SOL    HW238809   4.030   1.243   3.740
45679SOL     OW38810  13.718   7.781   9.623
45679SOL    HW138811  13.723   7.848   9.690
45679SOL    HW238812  13.626   7.778   9.598
45680SOL     OW38813  12.542   6.732  10.607
45680SOL    HW138814  12.452   6.730  10.575
45680SOL    HW238815  12.557   6.824  10.630
45681SOL     OW38816   1.071   8.622   2.678
45681SOL    HW138817   1.088   8.664   2.762
45681SOL    HW238818   1.128   8.670   2.616
45682SOL     OW38819   7.378  11.728  12.201
45682SOL    HW138820   7.362  11.798  12.264
45682SOL    HW238821   7.349  11.763  12.117
45683SOL     OW38822   4.803   0.530   0.737
45683SOL    HW138823   4.846   0.616   0.734
45683SOL    HW238824   4.754   0.525   0.654
45684SOL     OW38825   6.628   8.143   3.045
45684SOL    HW138826   6.587   8.226   3.020
45684SOL    HW238827   6.596   8.080   2.980
45685SOL     OW38828  11.550   6.012   2.184
45685SOL    HW138829  11.603   5.936   2.210
45685SOL    HW238830  11.545   6.007   2.089
45686SOL     OW38831  13.222   9.505  12.432
45686SOL    HW138832  13.159   9.474  12.366
45686SOL    HW238833  13.307   9.486  12.394
45687SOL     OW38834   3.751   8.576   8.071
45687SOL    HW138835   3.804   8.542   8.000
45687SOL    HW238836   3.742   8.670   8.051
45688SOL     OW38837   3.264   5.958  14.787
45688SOL    HW138838   3.237   5.993  14.872
45688SOL    HW238839   3.357   5.939  14.796
45689SOL     OW38840   0.568   8.073   5.381
45689SOL    HW138841   0.568   8.155   5.431
45689SOL    HW238842   0.640   8.022   5.419
45690SOL     OW38843   2.673  13.806  14.692
45690SOL    HW138844   2.701  13.718  14.717
45690SOL    HW238845   2.577  13.802  14.692
45691SOL     OW38846  12.199  14.704   7.015
45691SOL    HW138847  12.168  14.794   7.024
45691SOL    HW238848  12.282  14.702   7.062
45692SOL     OW38849   3.099   9.229   6.962
45692SOL    HW138850   3.128   9.162   7.025
45692SOL    HW238851   3.052   9.179   6.896
45693SOL     OW38852   6.244   6.101  13.476
45693SOL    HW138853   6.312   6.041  13.445
45693SOL    HW238854   6.256   6.105  13.571
45694SOL     OW38855  11.984   6.386   0.732
45694SOL    HW138856  11.934   6.348   0.804
45694SOL    HW238857  11.996   6.313   0.671
45695SOL     OW38858   9.293  14.518   3.822
45695SOL    HW138859   9.198  14.508   3.831
45695SOL    HW238860   9.328  14.431   3.843
45696SOL     OW38861   5.883   1.181  12.456
45696SOL    HW138862   5.886   1.111  12.521
45696SOL    HW238863   5.974   1.208  12.445
45697SOL     OW38864   0.103   0.976  14.157
45697SOL    HW138865   0.063   0.892  14.181
45697SOL    HW238866   0.194   0.967  14.184
45698SOL     OW38867   1.594   6.463   2.773
45698SOL    HW138868   1.648   6.521   2.827
45698SOL    HW238869   1.505   6.495   2.784
45699SOL     OW38870  10.086   4.354   6.124
45699SOL    HW138871  10.173   4.319   6.145
45699SOL    HW238872  10.094   4.449   6.135
45700SOL     OW38873   1.397  10.225  14.202
45700SOL    HW138874   1.376  10.135  14.228
45700SOL    HW238875   1.313  10.270  14.203
45701SOL     OW38876  14.246  11.665  14.751
45701SOL    HW138877  14.282  11.706  14.672
45701SOL    HW238878  14.285  11.715  14.823
45702SOL     OW38879   4.427  14.223   8.840
45702SOL    HW138880   4.439  14.228   8.745
45702SOL    HW238881   4.385  14.138   8.854
45703SOL     OW38882  13.608  11.643  10.674
45703SOL    HW138883  13.666  11.646  10.750
45703SOL    HW238884  13.584  11.735  10.659
45704SOL     OW38885  12.376   9.987   3.791
45704SOL    HW138886  12.446   9.928   3.763
45704SOL    HW238887  12.296   9.934   3.786
45705SOL     OW38888  11.671   2.175   2.611
45705SOL    HW138889  11.608   2.157   2.680
45705SOL    HW238890  11.717   2.254   2.639
45706SOL     OW38891   5.038  10.243  14.752
45706SOL    HW138892   5.003  10.248  14.841
45706SOL    HW238893   5.091  10.163  14.752
45707SOL     OW38894   9.996  10.423   2.245
45707SOL    HW138895  10.084  10.385   2.255
45707SOL    HW238896   9.990  10.487   2.316
45708SOL     OW38897  14.355   3.201   8.711
45708SOL    HW138898  14.261   3.219   8.706
45708SOL    HW238899  14.376   3.209   8.804
45709SOL     OW38900   3.640   3.489   7.287
45709SOL    HW138901   3.724   3.504   7.331
45709SOL    HW238902   3.630   3.394   7.285
45710SOL     OW38903   3.888   2.450   2.802
45710SOL    HW138904   3.830   2.384   2.764
45710SOL    HW238905   3.859   2.458   2.893
45711SOL     OW38906   8.288   9.263  12.849
45711SOL    HW138907   8.210   9.265  12.794
45711SOL    HW238908   8.338   9.340  12.823
45712SOL     OW38909  14.330   4.713   2.626
45712SOL    HW138910  14.340   4.793   2.576
45712SOL    HW238911  14.402   4.714   2.688
45713SOL     OW38912   6.923   4.473  13.733
45713SOL    HW138913   6.902   4.505  13.821
45713SOL    HW238914   6.875   4.390  13.726
45714SOL     OW38915  10.498  10.300   2.345
45714SOL    HW138916  10.528  10.356   2.272
45714SOL    HW238917  10.571  10.302   2.407
45715SOL     OW38918   6.631   6.424   4.994
45715SOL    HW138919   6.613   6.517   4.982
45715SOL    HW238920   6.598   6.383   4.914
45716SOL     OW38921   8.034   6.803   7.857
45716SOL    HW138922   7.971   6.870   7.829
45716SOL    HW238923   8.068   6.836   7.940
45717SOL     OW38924  14.787   4.574   5.963
45717SOL    HW138925  14.770   4.508   5.896
45717SOL    HW238926  14.872   4.549   6.001
45718SOL     OW38927   0.533   4.376   3.515
45718SOL    HW138928   0.584   4.450   3.482
45718SOL    HW238929   0.598   4.306   3.529
45719SOL     OW38930   4.668  11.525  11.701
45719SOL    HW138931   4.742  11.567  11.659
45719SOL    HW238932   4.612  11.496  11.629
45720SOL     OW38933   6.323   2.533   5.651
45720SOL    HW138934   6.269   2.603   5.689
45720SOL    HW238935   6.390   2.516   5.717
45721SOL     OW38936   0.892   3.792   5.478
45721SOL    HW138937   0.894   3.813   5.384
45721SOL    HW238938   0.979   3.814   5.510
45722SOL     OW38939   3.007  12.266   1.898
45722SOL    HW138940   3.002  12.267   1.994
45722SOL    HW238941   3.100  12.261   1.879
45723SOL     OW38942   8.141  14.439  10.070
45723SOL    HW138943   8.085  14.392  10.009
45723SOL    HW238944   8.220  14.386  10.077
45724SOL     OW38945   2.169  11.802   6.474
45724SOL    HW138946   2.153  11.879   6.421
45724SOL    HW238947   2.085  11.784   6.517
45725SOL     OW38948   6.851   4.441   4.358
45725SOL    HW138949   6.890   4.453   4.444
45725SOL    HW238950   6.893   4.362   4.323
45726SOL     OW38951   7.976   4.100  14.176
45726SOL    HW138952   7.953   4.192  14.169
45726SOL    HW238953   7.982   4.069  14.086
45727SOL     OW38954   8.888   3.510  12.987
45727SOL    HW138955   8.883   3.592  13.036
45727SOL    HW238956   8.974   3.512  12.946
45728SOL     OW38957  14.510  11.968   8.870
45728SOL    HW138958  14.523  12.021   8.792
45728SOL    HW238959  14.428  11.920   8.854
45729SOL     OW38960   8.310   6.176  10.959
45729SOL    HW138961   8.310   6.271  10.948
45729SOL    HW238962   8.218   6.152  10.965
45730SOL     OW38963   3.857   9.609  13.950
45730SOL    HW138964   3.854   9.671  14.024
45730SOL    HW238965   3.951   9.598  13.933
45731SOL     OW38966   1.410   9.603  13.425
45731SOL    HW138967   1.500   9.603  13.458
45731SOL    HW238968   1.415   9.650  13.342
45732SOL     OW38969   0.813  13.151   9.194
45732SOL    HW138970   0.756  13.227   9.180
45732SOL    HW238971   0.853  13.167   9.280
45733SOL     OW38972  13.773  13.321   7.140
45733SOL    HW138973  13.738  13.368   7.215
45733SOL    HW238974  13.866  13.345   7.137
45734SOL     OW38975  10.884   7.195   8.034
45734SOL    HW138976  10.885   7.234   7.947
45734SOL    HW238977  10.792   7.179   8.053
45735SOL     OW38978  10.504   1.792   8.506
45735SOL    HW138979  10.456   1.759   8.430
45735SOL    HW238980  10.473   1.882   8.516
45736SOL     OW38981  13.218   1.342  12.648
45736SOL    HW138982  13.261   1.290  12.717
45736SOL    HW238983  13.279   1.338  12.574
45737SOL     OW38984   1.733  11.017   3.439
45737SOL    HW138985   1.809  11.040   3.386
45737SOL    HW238986   1.709  11.099   3.483
45738SOL     OW38987   0.870   7.049   4.409
45738SOL    HW138988   0.839   7.102   4.336
45738SOL    HW238989   0.965   7.065   4.411
45739SOL     OW38990   8.864   3.797   3.586
45739SOL    HW138991   8.907   3.741   3.521
45739SOL    HW238992   8.803   3.851   3.535
45740SOL     OW38993  12.200   0.799   0.201
45740SOL    HW138994  12.122   0.768   0.248
45740SOL    HW238995  12.249   0.718   0.182
45741SOL     OW38996  12.280   6.197  12.557
45741SOL    HW138997  12.316   6.139  12.624
45741SOL    HW238998  12.275   6.282  12.599
45742SOL     OW38999   5.384   5.907   2.028
45742SOL    HW139000   5.346   5.983   2.073
45742SOL    HW239001   5.332   5.897   1.949
45743SOL     OW39002   4.737   0.792   3.882
45743SOL    HW139003   4.820   0.754   3.856
45743SOL    HW239004   4.743   0.884   3.853
45744SOL     OW39005  10.426   8.276   8.961
45744SOL    HW139006  10.330   8.281   8.955
45744SOL    HW239007  10.457   8.352   8.911
45745SOL     OW39008   7.446  11.871   5.984
45745SOL    HW139009   7.483  11.783   5.988
45745SOL    HW239010   7.446  11.902   6.074
45746SOL     OW39011  11.105   6.926   8.941
45746SOL    HW139012  11.136   6.949   8.854
45746SOL    HW239013  11.040   6.993   8.962
45747SOL     OW39014  10.146   7.952   4.013
45747SOL    HW139015  10.238   7.970   4.036
45747SOL    HW239016  10.097   8.023   4.054
45748SOL     OW39017   5.196   9.309  12.631
45748SOL    HW139018   5.161   9.369  12.697
45748SOL    HW239019   5.131   9.311  12.560
45749SOL     OW39020  10.913  12.091   8.001
45749SOL    HW139021  10.980  12.074   8.067
45749SOL    HW239022  10.873  12.005   7.986
45750SOL     OW39023   9.589   7.512  13.385
45750SOL    HW139024   9.599   7.426  13.426
45750SOL    HW239025   9.544   7.565  13.450
45751SOL     OW39026   5.933   2.584   0.399
45751SOL    HW139027   5.945   2.546   0.486
45751SOL    HW239028   5.846   2.624   0.402
45752SOL     OW39029   7.445   2.011  13.132
45752SOL    HW139030   7.470   2.015  13.224
45752SOL    HW239031   7.527   2.029  13.085
45753SOL     OW39032   4.188   6.714   8.942
45753SOL    HW139033   4.140   6.651   8.995
45753SOL    HW239034   4.253   6.661   8.896
45754SOL     OW39035   9.005   2.122   3.907
45754SOL    HW139036   9.029   2.073   3.828
45754SOL    HW239037   9.021   2.060   3.979
45755SOL     OW39038   5.390   5.783  13.308
45755SOL    HW139039   5.392   5.831  13.225
45755SOL    HW239040   5.412   5.693  13.284
45756SOL     OW39041   2.858   6.069   9.735
45756SOL    HW139042   2.795   6.004   9.767
45756SOL    HW239043   2.928   6.069   9.800
45757SOL     OW39044   2.031  14.464  12.780
45757SOL    HW139045   1.954  14.503  12.824
45757SOL    HW239046   2.057  14.530  12.716
45758SOL     OW39047  11.290   2.616   7.426
45758SOL    HW139048  11.326   2.704   7.421
45758SOL    HW239049  11.212   2.618   7.370
45759SOL     OW39050  12.013  12.633   3.011
45759SOL    HW139051  11.922  12.651   3.035
45759SOL    HW239052  12.043  12.573   3.079
45760SOL     OW39053   7.244   0.375   8.526
45760SOL    HW139054   7.267   0.317   8.453
45760SOL    HW239055   7.308   0.354   8.594
45761SOL     OW39056   5.024   0.282   0.126
45761SOL    HW139057   4.939   0.299   0.086
45761SOL    HW239058   5.034   0.187   0.124
45762SOL     OW39059   4.381  14.154   5.988
45762SOL    HW139060   4.306  14.102   6.016
45762SOL    HW239061   4.353  14.197   5.907
45763SOL     OW39062   6.058   7.037   6.691
45763SOL    HW139063   6.018   6.959   6.653
45763SOL    HW239064   6.099   7.007   6.772
45764SOL     OW39065   6.696  13.238   3.649
45764SOL    HW139066   6.664  13.326   3.665
45764SOL    HW239067   6.786  13.250   3.617
45765SOL     OW39068   1.653   0.178   4.060
45765SOL    HW139069   1.587   0.202   4.126
45765SOL    HW239070   1.736   0.179   4.108
45766SOL     OW39071   1.506  14.010  14.862
45766SOL    HW139072   1.507  13.929   0.035
45766SOL    HW239073   1.421  14.049   0.003
45767SOL     OW39074   5.627   8.044  11.499
45767SOL    HW139075   5.700   8.083  11.547
45767SOL    HW239076   5.568   8.117  11.483
45768SOL     OW39077   0.268   7.640  13.205
45768SOL    HW139078   0.235   7.594  13.283
45768SOL    HW239079   0.242   7.731  13.218
45769SOL     OW39080   0.474  14.112   3.023
45769SOL    HW139081   0.516  14.070   2.947
45769SOL    HW239082   0.387  14.073   3.027
45770SOL     OW39083   6.148  13.735   4.669
45770SOL    HW139084   6.083  13.799   4.698
45770SOL    HW239085   6.103  13.651   4.672
45771SOL     OW39086  11.181  13.228  10.217
45771SOL    HW139087  11.200  13.271  10.134
45771SOL    HW239088  11.174  13.299  10.280
45772SOL     OW39089   9.636   7.856   6.370
45772SOL    HW139090   9.627   7.941   6.326
45772SOL    HW239091   9.729   7.848   6.389
45773SOL     OW39092  14.793   6.607   8.453
45773SOL    HW139093  14.734   6.572   8.519
45773SOL    HW239094  14.809   6.534   8.393
45774SOL     OW39095  14.541   3.932  14.744
45774SOL    HW139096  14.505   4.003  14.691
45774SOL    HW239097  14.585   3.976  14.816
45775SOL     OW39098   2.313   5.141   1.050
45775SOL    HW139099   2.366   5.218   1.031
45775SOL    HW239100   2.320   5.087   0.972
45776SOL     OW39101  11.871   9.398   4.154
45776SOL    HW139102  11.893   9.328   4.215
45776SOL    HW239103  11.869   9.477   4.209
45777SOL     OW39104   7.567   1.836   5.665
45777SOL    HW139105   7.607   1.814   5.581
45777SOL    HW239106   7.535   1.925   5.654
45778SOL     OW39107   2.237  13.162  10.776
45778SOL    HW139108   2.285  13.079  10.770
45778SOL    HW239109   2.301  13.228  10.751
45779SOL     OW39110   9.753   9.989   2.632
45779SOL    HW139111   9.657   9.992   2.634
45779SOL    HW239112   9.778  10.070   2.588
45780SOL     OW39113   2.578   9.073  12.015
45780SOL    HW139114   2.524   9.125  12.076
45780SOL    HW239115   2.667   9.104  12.031
45781SOL     OW39116  12.039   2.666   4.038
45781SOL    HW139117  12.042   2.593   3.977
45781SOL    HW239118  12.040   2.744   3.983
45782SOL     OW39119   5.036   0.455  12.860
45782SOL    HW139120   5.075   0.367  12.857
45782SOL    HW239121   5.090   0.503  12.924
45783SOL     OW39122   2.486   4.896   8.601
45783SOL    HW139123   2.475   4.990   8.614
45783SOL    HW239124   2.430   4.875   8.526
45784SOL     OW39125   9.634   7.423  12.216
45784SOL    HW139126   9.561   7.482  12.235
45784SOL    HW239127   9.632   7.413  12.121
45785SOL     OW39128   7.038   0.386  11.542
45785SOL    HW139129   7.073   0.471  11.515
45785SOL    HW239130   7.047   0.385  11.637
45786SOL     OW39131   8.501  14.354   8.387
45786SOL    HW139132   8.435  14.387   8.448
45786SOL    HW239133   8.585  14.372   8.429
45787SOL     OW39134  10.510   3.177   5.647
45787SOL    HW139135  10.591   3.227   5.641
45787SOL    HW239136  10.528   3.109   5.713
45788SOL     OW39137  10.967   0.411   0.052
45788SOL    HW139138  10.960   0.318   0.029
45788SOL    HW239139  11.035   0.445  14.873
45789SOL     OW39140   1.040   5.349   1.085
45789SOL    HW139141   0.987   5.364   1.007
45789SOL    HW239142   1.114   5.408   1.076
45790SOL     OW39143   6.584  14.103   3.903
45790SOL    HW139144   6.584  14.184   3.853
45790SOL    HW239145   6.493  14.093   3.933
45791SOL     OW39146   4.135   7.260  10.519
45791SOL    HW139147   4.132   7.282  10.612
45791SOL    HW239148   4.229   7.260  10.497
45792SOL     OW39149  10.019   0.641   0.862
45792SOL    HW139150   9.983   0.569   0.810
45792SOL    HW239151  10.096   0.602   0.904
45793SOL     OW39152  13.536  10.725  13.865
45793SOL    HW139153  13.562  10.802  13.916
45793SOL    HW239154  13.481  10.674  13.924
45794SOL     OW39155  11.978   3.160   7.783
45794SOL    HW139156  11.942   3.145   7.696
45794SOL    HW239157  11.987   3.255   7.789
45795SOL     OW39158   7.185  13.395  14.676
45795SOL    HW139159   7.225  13.447  14.607
45795SOL    HW239160   7.165  13.458  14.745
45796SOL     OW39161  14.027   7.282   1.576
45796SOL    HW139162  13.974   7.300   1.498
45796SOL    HW239163  14.002   7.351   1.638
45797SOL     OW39164  10.340   9.227   3.656
45797SOL    HW139165  10.381   9.218   3.742
45797SOL    HW239166  10.247   9.241   3.676
45798SOL     OW39167  12.719  13.606   0.207
45798SOL    HW139168  12.702  13.536   0.270
45798SOL    HW239169  12.813  13.622   0.213
45799SOL     OW39170   9.685  13.212   6.527
45799SOL    HW139171   9.640  13.237   6.608
45799SOL    HW239172   9.641  13.262   6.458
45800SOL     OW39173   0.548  11.857   4.491
45800SOL    HW139174   0.514  11.932   4.443
45800SOL    HW239175   0.477  11.793   4.490
45801SOL     OW39176   1.259  14.041  11.128
45801SOL    HW139177   1.277  13.980  11.057
45801SOL    HW239178   1.324  14.110  11.118
45802SOL     OW39179  14.438   6.728  11.656
45802SOL    HW139180  14.501   6.726  11.584
45802SOL    HW239181  14.482   6.681  11.727
45803SOL     OW39182   9.568  12.260  10.578
45803SOL    HW139183   9.506  12.195  10.545
45803SOL    HW239184   9.654  12.222  10.561
45804SOL     OW39185   7.704  11.509   3.797
45804SOL    HW139186   7.642  11.574   3.830
45804SOL    HW239187   7.649  11.443   3.754
45805SOL     OW39188   2.880   8.191   4.198
45805SOL    HW139189   2.940   8.210   4.126
45805SOL    HW239190   2.851   8.278   4.227
45806SOL     OW39191   0.886  12.996   0.588
45806SOL    HW139192   0.901  13.055   0.514
45806SOL    HW239193   0.966  12.943   0.593
45807SOL     OW39194   7.520  11.441  10.201
45807SOL    HW139195   7.497  11.495  10.126
45807SOL    HW239196   7.595  11.389  10.171
45808SOL     OW39197   4.677   5.443  10.575
45808SOL    HW139198   4.734   5.448  10.498
45808SOL    HW239199   4.670   5.533  10.606
45809SOL     OW39200  10.819   1.055   5.389
45809SOL    HW139201  10.805   1.077   5.481
45809SOL    HW239202  10.825   0.959   5.387
45810SOL     OW39203  12.333   5.203   0.694
45810SOL    HW139204  12.273   5.276   0.705
45810SOL    HW239205  12.402   5.237   0.636
45811SOL     OW39206   9.394   2.971   4.676
45811SOL    HW139207   9.373   2.886   4.716
45811SOL    HW239208   9.490   2.974   4.677
45812SOL     OW39209   0.214   4.408   9.107
45812SOL    HW139210   0.278   4.421   9.177
45812SOL    HW239211   0.132   4.443   9.142
45813SOL     OW39212  10.552   7.674  12.523
45813SOL    HW139213  10.612   7.622  12.578
45813SOL    HW239214  10.489   7.610  12.490
45814SOL     OW39215  11.773  14.521  12.386
45814SOL    HW139216  11.715  14.505  12.312
45814SOL    HW239217  11.760  14.446  12.444
45815SOL     OW39218   4.788   4.861   0.453
45815SOL    HW139219   4.877   4.861   0.417
45815SOL    HW239220   4.743   4.931   0.405
45816SOL     OW39221  10.585   6.529   2.343
45816SOL    HW139222  10.633   6.446   2.330
45816SOL    HW239223  10.653   6.592   2.366
45817SOL     OW39224   6.940   1.573   1.172
45817SOL    HW139225   6.883   1.497   1.183
45817SOL    HW239226   6.907   1.638   1.234
45818SOL     OW39227   3.440   9.926  14.211
45818SOL    HW139228   3.505   9.907  14.279
45818SOL    HW239229   3.387   9.846  14.206
45819SOL     OW39230   9.291  14.818   2.229
45819SOL    HW139231   9.319  14.827   2.137
45819SOL    HW239232   9.213  14.762   2.224
45820SOL     OW39233   2.435   0.292   1.228
45820SOL    HW139234   2.349   0.332   1.234
45820SOL    HW239235   2.428   0.230   1.155
45821SOL     OW39236   7.671  12.042  12.189
45821SOL    HW139237   7.713  12.116  12.233
45821SOL    HW239238   7.637  11.988  12.261
45822SOL     OW39239   4.853   1.116   5.559
45822SOL    HW139240   4.781   1.098   5.498
45822SOL    HW239241   4.897   1.031   5.569
45823SOL     OW39242  13.633  11.235   4.311
45823SOL    HW139243  13.595  11.323   4.315
45823SOL    HW239244  13.620  11.208   4.220
45824SOL     OW39245  14.577   7.624   4.570
45824SOL    HW139246  14.578   7.528   4.561
45824SOL    HW239247  14.664   7.651   4.540
45825SOL     OW39248  14.691  12.318  12.963
45825SOL    HW139249  14.622  12.309  12.898
45825SOL    HW239250  14.763  12.360  12.917
45826SOL     OW39251   7.932  10.993   7.643
45826SOL    HW139252   7.854  11.007   7.590
45826SOL    HW239253   7.921  10.907   7.682
45827SOL     OW39254  14.005  12.430   3.287
45827SOL    HW139255  13.912  12.449   3.294
45827SOL    HW239256  14.048  12.515   3.297
45828SOL     OW39257   7.782   4.523  11.482
45828SOL    HW139258   7.719   4.474  11.535
45828SOL    HW239259   7.730   4.559  11.410
45829SOL     OW39260   4.391  14.475   2.052
45829SOL    HW139261   4.324  14.532   2.090
45829SOL    HW239262   4.344  14.425   1.985
45830SOL     OW39263   8.179   5.292  12.760
45830SOL    HW139264   8.116   5.352  12.720
45830SOL    HW239265   8.133   5.207  12.763
45831SOL     OW39266   2.561   1.599   0.976
45831SOL    HW139267   2.507   1.544   0.919
45831SOL    HW239268   2.520   1.685   0.972
45832SOL     OW39269  10.007  11.996   3.451
45832SOL    HW139270   9.959  12.062   3.400
45832SOL    HW239271   9.999  12.026   3.541
45833SOL     OW39272   5.235   4.592  11.880
45833SOL    HW139273   5.226   4.655  11.952
45833SOL    HW239274   5.153   4.598  11.832
45834SOL     OW39275  12.744   4.564  13.271
45834SOL    HW139276  12.681   4.592  13.337
45834SOL    HW239277  12.691   4.538  13.196
45835SOL     OW39278   9.032  13.160   0.728
45835SOL    HW139279   9.056  13.175   0.820
45835SOL    HW239280   9.106  13.194   0.678
45836SOL     OW39281   5.826   7.732  13.426
45836SOL    HW139282   5.867   7.785  13.358
45836SOL    HW239283   5.862   7.644  13.413
45837SOL     OW39284  10.215  12.406  11.393
45837SOL    HW139285  10.187  12.486  11.349
45837SOL    HW239286  10.141  12.382  11.448
45838SOL     OW39287   3.928  13.787   9.115
45838SOL    HW139288   4.003  13.846   9.118
45838SOL    HW239289   3.903  13.776   9.206
45839SOL     OW39290  12.157   2.691   5.543
45839SOL    HW139291  12.173   2.597   5.550
45839SOL    HW239292  12.127   2.717   5.630
45840SOL     OW39293   4.528   2.678   1.724
45840SOL    HW139294   4.553   2.771   1.719
45840SOL    HW239295   4.436   2.677   1.695
45841SOL     OW39296   2.447   3.037   0.155
45841SOL    HW139297   2.529   2.999   0.185
45841SOL    HW239298   2.438   3.118   0.204
45842SOL     OW39299  10.255   0.122   4.278
45842SOL    HW139300  10.351   0.126   4.279
45842SOL    HW239301  10.231   0.098   4.367
45843SOL     OW39302   6.407  12.710   1.910
45843SOL    HW139303   6.365  12.625   1.900
45843SOL    HW239304   6.492  12.700   1.867
45844SOL     OW39305   3.103   7.338  10.069
45844SOL    HW139306   3.155   7.341   9.989
45844SOL    HW239307   3.019   7.301  10.042
45845SOL     OW39308   8.199   4.609  10.185
45845SOL    HW139309   8.132   4.545  10.160
45845SOL    HW239310   8.276   4.556  10.205
45846SOL     OW39311  13.689  14.793   5.362
45846SOL    HW139312  13.627  14.720   5.356
45846SOL    HW239313  13.641  14.861   5.410
45847SOL     OW39314  11.896   0.945   0.571
45847SOL    HW139315  11.963   1.011   0.553
45847SOL    HW239316  11.859   0.924   0.485
45848SOL     OW39317   7.202   2.648   0.049
45848SOL    HW139318   7.287   2.676   0.015
45848SOL    HW239319   7.169   2.725   0.096
45849SOL     OW39320   7.277  11.450   6.424
45849SOL    HW139321   7.264  11.535   6.466
45849SOL    HW239322   7.206  11.444   6.360
45850SOL     OW39323   1.341  12.512   8.605
45850SOL    HW139324   1.421  12.553   8.636
45850SOL    HW239325   1.271  12.573   8.630
45851SOL     OW39326   3.691  11.774   5.391
45851SOL    HW139327   3.754  11.702   5.398
45851SOL    HW239328   3.635  11.750   5.318
45852SOL     OW39329   6.986  11.770   9.938
45852SOL    HW139330   6.958  11.825   9.865
45852SOL    HW239331   6.936  11.689   9.928
45853SOL     OW39332   1.705   2.835   2.046
45853SOL    HW139333   1.734   2.871   2.129
45853SOL    HW239334   1.783   2.794   2.009
45854SOL     OW39335   1.045  13.726   5.185
45854SOL    HW139336   1.065  13.766   5.101
45854SOL    HW239337   1.051  13.798   5.248
45855SOL     OW39338   2.086  10.234  14.408
45855SOL    HW139339   2.047  10.258  14.492
45855SOL    HW239340   2.129  10.150  14.424
45856SOL     OW39341   4.777   9.462   1.623
45856SOL    HW139342   4.786   9.439   1.716
45856SOL    HW239343   4.861   9.437   1.584
45857SOL     OW39344   8.775   6.526   8.775
45857SOL    HW139345   8.845   6.578   8.736
45857SOL    HW239346   8.699   6.543   8.720
45858SOL     OW39347   7.269   7.008   0.852
45858SOL    HW139348   7.337   6.978   0.793
45858SOL    HW239349   7.292   6.972   0.937
45859SOL     OW39350   2.714   2.066   6.816
45859SOL    HW139351   2.803   2.099   6.827
45859SOL    HW239352   2.657   2.141   6.835
45860SOL     OW39353   2.834   4.041   4.178
45860SOL    HW139354   2.928   4.062   4.170
45860SOL    HW239355   2.809   4.009   4.092
45861SOL     OW39356   9.569   4.832   1.203
45861SOL    HW139357   9.566   4.866   1.292
45861SOL    HW239358   9.661   4.807   1.190
45862SOL     OW39359   3.902   4.038   5.242
45862SOL    HW139360   3.844   3.985   5.187
45862SOL    HW239361   3.973   4.065   5.182
45863SOL     OW39362   4.375   5.540   1.169
45863SOL    HW139363   4.329   5.509   1.247
45863SOL    HW239364   4.399   5.630   1.190
45864SOL     OW39365   7.519   6.582   2.490
45864SOL    HW139366   7.514   6.674   2.516
45864SOL    HW239367   7.497   6.533   2.569
45865SOL     OW39368  10.553   3.725   9.135
45865SOL    HW139369  10.501   3.696   9.210
45865SOL    HW239370  10.493   3.779   9.083
45866SOL     OW39371   9.645  14.220   4.136
45866SOL    HW139372   9.738  14.202   4.122
45866SOL    HW239373   9.635  14.220   4.231
45867SOL     OW39374  10.344   8.210  12.798
45867SOL    HW139375  10.300   8.290  12.771
45867SOL    HW239376  10.331   8.149  12.725
45868SOL     OW39377  13.167   8.787  13.039
45868SOL    HW139378  13.134   8.733  13.111
45868SOL    HW239379  13.262   8.785  13.050
45869SOL     OW39380   3.557   9.588   3.989
45869SOL    HW139381   3.555   9.545   4.074
45869SOL    HW239382   3.645   9.625   3.982
45870SOL     OW39383  12.118  11.223  13.560
45870SOL    HW139384  12.211  11.240  13.576
45870SOL    HW239385  12.074  11.255  13.639
45871SOL     OW39386  13.486   6.042   5.030
45871SOL    HW139387  13.444   6.001   5.105
45871SOL    HW239388  13.415   6.060   4.969
45872SOL     OW39389   6.321  12.513   7.934
45872SOL    HW139390   6.286  12.489   8.020
45872SOL    HW239391   6.330  12.608   7.938
45873SOL     OW39392  10.018  12.629   3.492
45873SOL    HW139393   9.996  12.548   3.447
45873SOL    HW239394  10.079  12.673   3.432
45874SOL     OW39395   2.173   5.336   0.768
45874SOL    HW139396   2.114   5.334   0.843
45874SOL    HW239397   2.232   5.262   0.782
45875SOL     OW39398   1.963   8.351  12.893
45875SOL    HW139399   1.916   8.293  12.833
45875SOL    HW239400   2.039   8.381  12.843
45876SOL     OW39401   2.177   3.521   4.227
45876SOL    HW139402   2.159   3.445   4.282
45876SOL    HW239403   2.093   3.568   4.222
45877SOL     OW39404  14.295   8.532  12.261
45877SOL    HW139405  14.273   8.625  12.268
45877SOL    HW239406  14.333   8.523  12.174
45878SOL     OW39407   1.587   4.670   2.942
45878SOL    HW139408   1.503   4.661   2.988
45878SOL    HW239409   1.592   4.762   2.918
45879SOL     OW39410   6.120  11.384   5.197
45879SOL    HW139411   6.091  11.476   5.196
45879SOL    HW239412   6.118  11.357   5.106
45880SOL     OW39413   6.058   6.022   0.502
45880SOL    HW139414   6.015   6.024   0.416
45880SOL    HW239415   6.134   6.078   0.492
45881SOL     OW39416   7.289   1.579  13.649
45881SOL    HW139417   7.328   1.548  13.567
45881SOL    HW239418   7.303   1.507  13.710
45882SOL     OW39419   8.269   6.262  11.307
45882SOL    HW139420   8.190   6.288  11.259
45882SOL    HW239421   8.249   6.284  11.398
45883SOL     OW39422   3.338   8.859   6.950
45883SOL    HW139423   3.409   8.841   6.889
45883SOL    HW239424   3.377   8.914   7.018
45884SOL     OW39425   5.030   9.143  10.441
45884SOL    HW139426   5.075   9.207  10.496
45884SOL    HW239427   5.019   9.188  10.357
45885SOL     OW39428  10.416   9.863   8.722
45885SOL    HW139429  10.348   9.852   8.789
45885SOL    HW239430  10.415   9.780   8.674
45886SOL     OW39431   5.900   2.413   9.492
45886SOL    HW139432   5.873   2.435   9.581
45886SOL    HW239433   5.965   2.344   9.503
45887SOL     OW39434  13.834  10.594   6.109
45887SOL    HW139435  13.811  10.623   6.197
45887SOL    HW239436  13.912  10.644   6.086
45888SOL     OW39437  11.247   2.083   8.408
45888SOL    HW139438  11.302   2.006   8.419
45888SOL    HW239439  11.228   2.112   8.497
45889SOL     OW39440   6.946  12.257  11.633
45889SOL    HW139441   7.033  12.249  11.593
45889SOL    HW239442   6.932  12.173  11.675
45890SOL     OW39443   2.765   1.182   7.472
45890SOL    HW139444   2.808   1.201   7.389
45890SOL    HW239445   2.685   1.234   7.470
45891SOL     OW39446   1.229   3.065   3.647
45891SOL    HW139447   1.323   3.060   3.628
45891SOL    HW239448   1.211   2.986   3.699
45892SOL     OW39449   2.572   0.313   8.808
45892SOL    HW139450   2.485   0.293   8.774
45892SOL    HW239451   2.583   0.407   8.793
45893SOL     OW39452  13.781   8.397   4.867
45893SOL    HW139453  13.718   8.333   4.833
45893SOL    HW239454  13.818   8.356   4.945
45894SOL     OW39455   5.994   2.060  11.624
45894SOL    HW139456   5.907   2.029  11.599
45894SOL    HW239457   5.998   2.150  11.592
45895SOL     OW39458   9.084  10.025   6.716
45895SOL    HW139459   9.092  10.058   6.627
45895SOL    HW239460   9.027  10.089   6.760
45896SOL     OW39461   4.657   5.246  12.433
45896SOL    HW139462   4.599   5.319  12.414
45896SOL    HW239463   4.734   5.286  12.472
45897SOL     OW39464   5.567   0.653   3.958
45897SOL    HW139465   5.620   0.593   3.906
45897SOL    HW239466   5.479   0.617   3.956
45898SOL     OW39467  10.896   2.336   6.297
45898SOL    HW139468  10.824   2.277   6.319
45898SOL    HW239469  10.859   2.396   6.232
45899SOL     OW39470   0.486   0.837   2.420
45899SOL    HW139471   0.460   0.745   2.424
45899SOL    HW239472   0.461   0.873   2.505
45900SOL     OW39473   4.962   6.006   8.040
45900SOL    HW139474   4.876   6.045   8.052
45900SOL    HW239475   4.976   5.953   8.118
45901SOL     OW39476  12.816  14.623   4.385
45901SOL    HW139477  12.847  14.536   4.357
45901SOL    HW239478  12.840  14.629   4.477
45902SOL     OW39479   5.728   3.708  10.152
45902SOL    HW139480   5.818   3.723  10.123
45902SOL    HW239481   5.727   3.736  10.244
45903SOL     OW39482   1.996  14.470   0.624
45903SOL    HW139483   2.011  14.399   0.686
45903SOL    HW239484   2.064  14.534   0.644
45904SOL     OW39485   4.168   4.205  14.493
45904SOL    HW139486   4.080   4.179  14.523
45904SOL    HW239487   4.207   4.125  14.460
45905SOL     OW39488   7.032  12.506  14.679
45905SOL    HW139489   7.008  12.496  14.771
45905SOL    HW239490   7.123  12.475  14.674
45906SOL     OW39491   3.937   1.905  10.303
45906SOL    HW139492   4.020   1.912  10.350
45906SOL    HW239493   3.877   1.867  10.367
45907SOL     OW39494   3.920   8.957  11.321
45907SOL    HW139495   3.876   8.986  11.241
45907SOL    HW239496   3.888   9.016  11.389
45908SOL     OW39497   9.329  13.581   7.296
45908SOL    HW139498   9.350  13.510   7.236
45908SOL    HW239499   9.284  13.539   7.369
45909SOL     OW39500   4.295   3.777  13.683
45909SOL    HW139501   4.228   3.809  13.744
45909SOL    HW239502   4.344   3.712  13.734
45910SOL     OW39503  14.870  12.369   8.879
45910SOL    HW139504   0.061  12.310   8.908
45910SOL    HW239505  14.796  12.351   8.937
45911SOL     OW39506  13.970   0.786   4.401
45911SOL    HW139507  13.887   0.755   4.364
45911SOL    HW239508  13.985   0.729   4.477
45912SOL     OW39509   0.090  12.941  10.446
45912SOL    HW139510   0.074  12.996  10.523
45912SOL    HW239511   0.062  12.996  10.372
45913SOL     OW39512   1.610   8.939   4.018
45913SOL    HW139513   1.692   8.889   4.022
45913SOL    HW239514   1.632   9.017   3.967
45914SOL     OW39515  12.834   9.030   8.816
45914SOL    HW139516  12.740   9.013   8.815
45914SOL    HW239517  12.862   9.017   8.726
45915SOL     OW39518  10.737   1.487   1.559
45915SOL    HW139519  10.724   1.420   1.626
45915SOL    HW239520  10.832   1.487   1.544
45916SOL     OW39521   2.600   3.211   3.288
45916SOL    HW139522   2.608   3.290   3.341
45916SOL    HW239523   2.637   3.142   3.343
45917SOL     OW39524   9.107   4.875   5.992
45917SOL    HW139525   9.064   4.907   5.913
45917SOL    HW239526   9.127   4.955   6.042
45918SOL     OW39527   4.193   1.352   7.944
45918SOL    HW139528   4.151   1.376   8.027
45918SOL    HW239529   4.201   1.435   7.897
45919SOL     OW39530   4.315   8.682   5.528
45919SOL    HW139531   4.379   8.677   5.599
45919SOL    HW239532   4.230   8.688   5.571
45920SOL     OW39533  11.835   1.170   7.916
45920SOL    HW139534  11.791   1.224   7.982
45920SOL    HW239535  11.803   1.203   7.832
45921SOL     OW39536   9.340   4.792   0.420
45921SOL    HW139537   9.261   4.815   0.469
45921SOL    HW239538   9.350   4.698   0.435
45922SOL     OW39539   8.083   1.214   1.162
45922SOL    HW139540   8.115   1.143   1.107
45922SOL    HW239541   8.048   1.170   1.240
45923SOL     OW39542   3.493   3.474  13.416
45923SOL    HW139543   3.454   3.457  13.502
45923SOL    HW239544   3.421   3.509  13.363
45924SOL     OW39545   0.057   0.615   2.699
45924SOL    HW139546   0.137   0.566   2.717
45924SOL    HW239547   0.065   0.641   2.607
45925SOL     OW39548   0.502   3.541   5.382
45925SOL    HW139549   0.409   3.546   5.361
45925SOL    HW239550   0.529   3.454   5.350
45926SOL     OW39551   1.292  14.337  12.636
45926SOL    HW139552   1.261  14.416  12.591
45926SOL    HW239553   1.241  14.266  12.597
45927SOL     OW39554   5.181  14.301  10.400
45927SOL    HW139555   5.171  14.386  10.444
45927SOL    HW239556   5.097  14.257  10.416
45928SOL     OW39557   5.720  12.774  14.171
45928SOL    HW139558   5.655  12.776  14.101
45928SOL    HW239559   5.795  12.729  14.133
45929SOL     OW39560  12.167   8.909  13.151
45929SOL    HW139561  12.139   9.000  13.138
45929SOL    HW239562  12.236   8.914  13.217
45930SOL     OW39563   3.728   6.619   9.103
45930SOL    HW139564   3.768   6.659   9.025
45930SOL    HW239565   3.635   6.641   9.095
45931SOL     OW39566   6.081   9.479   1.336
45931SOL    HW139567   6.094   9.438   1.421
45931SOL    HW239568   6.029   9.557   1.354
45932SOL     OW39569  12.378   6.329  12.186
45932SOL    HW139570  12.420   6.311  12.270
45932SOL    HW239571  12.434   6.286  12.122
45933SOL     OW39572   7.686  10.314   1.191
45933SOL    HW139573   7.701  10.228   1.231
45933SOL    HW239574   7.620  10.297   1.123
45934SOL     OW39575  11.734  10.864   3.095
45934SOL    HW139576  11.788  10.785   3.106
45934SOL    HW239577  11.773  10.928   3.155
45935SOL     OW39578  12.017   9.091   0.962
45935SOL    HW139579  12.034   9.116   0.871
45935SOL    HW239580  11.928   9.058   0.961
45936SOL     OW39581  10.194   8.651   2.311
45936SOL    HW139582  10.140   8.599   2.252
45936SOL    HW239583  10.277   8.604   2.316
45937SOL     OW39584   5.928   3.667  11.869
45937SOL    HW139585   5.834   3.650  11.881
45937SOL    HW239586   5.952   3.721  11.944
45938SOL     OW39587   7.923  13.854   6.601
45938SOL    HW139588   7.848  13.864   6.542
45938SOL    HW239589   7.891  13.797   6.671
45939SOL     OW39590  11.181   6.562   0.043
45939SOL    HW139591  11.107   6.512   0.010
45939SOL    HW239592  11.202   6.624  14.851
45940SOL     OW39593   6.365   6.297  12.126
45940SOL    HW139594   6.275   6.269  12.109
45940SOL    HW239595   6.368   6.313  12.220
45941SOL     OW39596  10.220  13.042   7.708
45941SOL    HW139597  10.169  12.989   7.647
45941SOL    HW239598  10.203  13.133   7.681
45942SOL     OW39599   1.511   1.613  10.266
45942SOL    HW139600   1.458   1.603  10.345
45942SOL    HW239601   1.463   1.676  10.212
45943SOL     OW39602   7.894   7.035   3.218
45943SOL    HW139603   7.845   7.082   3.150
45943SOL    HW239604   7.959   7.098   3.248
45944SOL     OW39605   7.454  13.340  12.749
45944SOL    HW139606   7.423  13.334  12.659
45944SOL    HW239607   7.397  13.405  12.790
45945SOL     OW39608  14.589   1.345   4.109
45945SOL    HW139609  14.545   1.365   4.026
45945SOL    HW239610  14.651   1.275   4.086
45946SOL     OW39611   2.578   4.809  10.684
45946SOL    HW139612   2.517   4.773  10.621
45946SOL    HW239613   2.523   4.849  10.752
45947SOL     OW39614  12.852   7.905   7.380
45947SOL    HW139615  12.895   7.899   7.465
45947SOL    HW239616  12.919   7.939   7.321
45948SOL     OW39617  12.222  13.196   4.107
45948SOL    HW139618  12.311  13.217   4.077
45948SOL    HW239619  12.236  13.142   4.186
45949SOL     OW39620   5.794   8.067   2.237
45949SOL    HW139621   5.880   8.107   2.247
45949SOL    HW239622   5.802   7.981   2.277
45950SOL     OW39623  13.000  12.829  10.274
45950SOL    HW139624  12.977  12.832  10.367
45950SOL    HW239625  12.974  12.742  10.246
45951SOL     OW39626   0.095  10.890   2.416
45951SOL    HW139627   0.185  10.916   2.435
45951SOL    HW239628   0.054  10.969   2.381
45952SOL     OW39629   4.331  13.206   8.482
45952SOL    HW139630   4.242  13.239   8.493
45952SOL    HW239631   4.384  13.260   8.541
45953SOL     OW39632   7.008   4.915  13.036
45953SOL    HW139633   7.011   4.995  12.982
45953SOL    HW239634   7.099   4.887  13.040
45954SOL     OW39635  12.559   6.988  10.716
45954SOL    HW139636  12.481   7.030  10.753
45954SOL    HW239637  12.622   6.987  10.788
45955SOL     OW39638  10.229   9.531   6.652
45955SOL    HW139639  10.169   9.508   6.581
45955SOL    HW239640  10.278   9.606   6.618
45956SOL     OW39641   1.687   4.169   5.080
45956SOL    HW139642   1.641   4.117   5.013
45956SOL    HW239643   1.750   4.108   5.119
45957SOL     OW39644  14.184  14.113  12.478
45957SOL    HW139645  14.138  14.035  12.446
45957SOL    HW239646  14.114  14.169  12.512
45958SOL     OW39647  13.241   1.766   5.616
45958SOL    HW139648  13.276   1.743   5.702
45958SOL    HW239649  13.216   1.858   5.624
45959SOL     OW39650   6.762  11.165  12.660
45959SOL    HW139651   6.668  11.182  12.671
45959SOL    HW239652   6.803  11.209  12.734
45960SOL     OW39653  14.790   0.842   6.630
45960SOL    HW139654  14.727   0.864   6.699
45960SOL    HW239655  14.795   0.922   6.576
45961SOL     OW39656   5.466   8.657   7.505
45961SOL    HW139657   5.459   8.752   7.496
45961SOL    HW239658   5.549   8.643   7.549
45962SOL     OW39659   7.922  12.366  12.796
45962SOL    HW139660   7.887  12.301  12.856
45962SOL    HW239661   7.955  12.436  12.853
45963SOL     OW39662   8.171   0.933   4.925
45963SOL    HW139663   8.106   0.898   4.987
45963SOL    HW239664   8.253   0.933   4.975
45964SOL     OW39665   2.547  10.299  12.767
45964SOL    HW139666   2.566  10.212  12.801
45964SOL    HW239667   2.520  10.350  12.843
45965SOL     OW39668   7.508   7.940   8.112
45965SOL    HW139669   7.488   7.847   8.107
45965SOL    HW239670   7.603   7.945   8.105
45966SOL     OW39671  12.744   0.694   2.283
45966SOL    HW139672  12.777   0.613   2.245
45966SOL    HW239673  12.765   0.761   2.218
45967SOL     OW39674  11.452  13.637  12.632
45967SOL    HW139675  11.518  13.571  12.614
45967SOL    HW239676  11.389  13.630  12.560
45968SOL     OW39677   9.322  10.989   0.880
45968SOL    HW139678   9.235  11.025   0.899
45968SOL    HW239679   9.309  10.931   0.805
45969SOL     OW39680   8.979   5.382  10.049
45969SOL    HW139681   9.027   5.303  10.074
45969SOL    HW239682   8.990   5.387   9.954
45970SOL     OW39683   0.596   7.466   3.069
45970SOL    HW139684   0.597   7.407   2.993
45970SOL    HW239685   0.640   7.418   3.138
45971SOL     OW39686   4.944   2.666   9.883
45971SOL    HW139687   5.003   2.591   9.876
45971SOL    HW239688   4.962   2.703   9.969
45972SOL     OW39689  14.562  13.108  13.083
45972SOL    HW139690  14.584  13.167  13.155
45972SOL    HW239691  14.633  13.044  13.082
45973SOL     OW39692  11.639   6.793   3.885
45973SOL    HW139693  11.597   6.817   3.967
45973SOL    HW239694  11.589   6.718   3.853
45974SOL     OW39695   9.067   7.759   5.755
45974SOL    HW139696   9.086   7.811   5.677
45974SOL    HW239697   9.065   7.822   5.827
45975SOL     OW39698  10.561  14.288  10.294
45975SOL    HW139699  10.633  14.273  10.232
45975SOL    HW239700  10.491  14.327  10.242
45976SOL     OW39701   7.868  12.093  12.527
45976SOL    HW139702   7.837  12.179  12.497
45976SOL    HW239703   7.963  12.104  12.535
45977SOL     OW39704   2.828   2.553   4.037
45977SOL    HW139705   2.809   2.522   3.948
45977SOL    HW239706   2.843   2.647   4.027
45978SOL     OW39707   8.634   4.058  10.131
45978SOL    HW139708   8.715   4.083  10.088
45978SOL    HW239709   8.570   4.052  10.060
45979SOL     OW39710   8.973  14.770  10.287
45979SOL    HW139711   8.968  14.792  10.380
45979SOL    HW239712   8.909  14.827  10.245
45980SOL     OW39713   4.692   3.637   8.073
45980SOL    HW139714   4.607   3.633   8.116
45980SOL    HW239715   4.687   3.571   8.003
45981SOL     OW39716   9.941   3.017  12.047
45981SOL    HW139717   9.997   3.089  12.018
45981SOL    HW239718   9.853   3.043  12.020
45982SOL     OW39719   2.482  14.431   6.581
45982SOL    HW139720   2.386  14.427   6.584
45982SOL    HW239721   2.508  14.440   6.673
45983SOL     OW39722  12.293   3.465   8.462
45983SOL    HW139723  12.253   3.540   8.419
45983SOL    HW239724  12.353   3.429   8.397
45984SOL     OW39725  13.080   2.462   3.982
45984SOL    HW139726  13.146   2.508   4.034
45984SOL    HW239727  13.014   2.435   4.045
45985SOL     OW39728  11.124   8.721  11.800
45985SOL    HW139729  11.097   8.797  11.749
45985SOL    HW239730  11.219   8.717  11.789
45986SOL     OW39731   9.537   3.332  14.594
45986SOL    HW139732   9.581   3.249  14.582
45986SOL    HW239733   9.448   3.317  14.562
45987SOL     OW39734   5.182   0.204  12.904
45987SOL    HW139735   5.268   0.232  12.875
45987SOL    HW239736   5.171   0.117  12.865
45988SOL     OW39737   1.383   1.586  10.524
45988SOL    HW139738   1.318   1.654  10.541
45988SOL    HW239739   1.350   1.509  10.570
45989SOL     OW39740  10.140   8.307   3.896
45989SOL    HW139741  10.065   8.359   3.924
45989SOL    HW239742  10.102   8.231   3.853
45990SOL     OW39743   2.091   7.478   8.258
45990SOL    HW139744   2.174   7.431   8.259
45990SOL    HW239745   2.083   7.514   8.347
45991SOL     OW39746   8.374   3.201   9.379
45991SOL    HW139747   8.385   3.146   9.301
45991SOL    HW239748   8.320   3.274   9.350
45992SOL     OW39749  11.151  11.780  13.305
45992SOL    HW139750  11.110  11.814  13.385
45992SOL    HW239751  11.245  11.787  13.321
45993SOL     OW39752   7.163  12.248  10.739
45993SOL    HW139753   7.124  12.297  10.666
45993SOL    HW239754   7.257  12.264  10.731
45994SOL     OW39755  11.383  10.962   2.785
45994SOL    HW139756  11.424  10.910   2.853
45994SOL    HW239757  11.291  10.966   2.811
45995SOL     OW39758   5.231   7.409   2.084
45995SOL    HW139759   5.275   7.325   2.093
45995SOL    HW239760   5.221   7.441   2.174
45996SOL     OW39761   5.358  12.669   5.581
45996SOL    HW139762   5.390  12.581   5.559
45996SOL    HW239763   5.369  12.719   5.500
45997SOL     OW39764   2.859   4.223  14.025
45997SOL    HW139765   2.938   4.209  14.077
45997SOL    HW239766   2.832   4.135  13.999
45998SOL     OW39767   1.482   4.942   1.113
45998SOL    HW139768   1.439   4.859   1.093
45998SOL    HW239769   1.554   4.919   1.172
45999SOL     OW39770   3.399   8.057   6.264
45999SOL    HW139771   3.326   8.003   6.295
45999SOL    HW239772   3.457   8.065   6.340
46000SOL     OW39773   0.724   0.151   1.997
46000SOL    HW139774   0.797   0.121   2.051
46000SOL    HW239775   0.654   0.169   2.060
46001SOL     OW39776   8.617   0.565   5.149
46001SOL    HW139777   8.614   0.497   5.081
46001SOL    HW239778   8.540   0.548   5.204
46002SOL     OW39779   9.854   9.842   2.843
46002SOL    HW139780   9.828   9.912   2.784
46002SOL    HW239781   9.895   9.777   2.787
46003SOL     OW39782   0.930  14.628   6.530
46003SOL    HW139783   0.907  14.704   6.478
46003SOL    HW239784   0.992  14.661   6.595
46004SOL     OW39785  10.205  10.785   1.913
46004SOL    HW139786  10.117  10.752   1.934
46004SOL    HW239787  10.246  10.798   1.999
46005SOL     OW39788  11.823   8.733   8.838
46005SOL    HW139789  11.885   8.762   8.905
46005SOL    HW239790  11.791   8.648   8.869
46006SOL     OW39791   2.180   5.064   6.739
46006SOL    HW139792   2.111   5.120   6.773
46006SOL    HW239793   2.207   5.105   6.657
46007SOL     OW39794   0.701   3.066   7.938
46007SOL    HW139795   0.621   3.077   7.887
46007SOL    HW239796   0.772   3.086   7.876
46008SOL     OW39797   1.380   8.214  10.738
46008SOL    HW139798   1.430   8.288  10.773
46008SOL    HW239799   1.403   8.140  10.794
46009SOL     OW39800   3.313  12.965   3.146
46009SOL    HW139801   3.311  13.009   3.061
46009SOL    HW239802   3.223  12.971   3.179
46010SOL     OW39803   6.871   2.534   3.195
46010SOL    HW139804   6.872   2.452   3.147
46010SOL    HW239805   6.964   2.550   3.216
46011SOL     OW39806   3.304   4.393  10.364
46011SOL    HW139807   3.246   4.361  10.295
46011SOL    HW239808   3.249   4.451  10.417
46012SOL     OW39809   9.438   3.942   5.458
46012SOL    HW139810   9.376   3.945   5.386
46012SOL    HW239811   9.521   3.968   5.418
46013SOL     OW39812   8.226  14.216   6.890
46013SOL    HW139813   8.271  14.272   6.827
46013SOL    HW239814   8.175  14.155   6.836
46014SOL     OW39815   2.087   5.788   5.278
46014SOL    HW139816   2.009   5.762   5.228
46014SOL    HW239817   2.090   5.728   5.352
46015SOL     OW39818   6.052  12.324  12.776
46015SOL    HW139819   6.073  12.238  12.740
46015SOL    HW239820   6.128  12.346  12.830
46016SOL     OW39821   7.328  11.024  12.905
46016SOL    HW139822   7.374  11.014  12.988
46016SOL    HW239823   7.286  11.110  12.910
46017SOL     OW39824  10.149   5.985   4.402
46017SOL    HW139825  10.128   6.072   4.434
46017SOL    HW239826  10.129   5.988   4.308
46018SOL     OW39827   6.634  11.313   2.392
46018SOL    HW139828   6.724  11.299   2.420
46018SOL    HW239829   6.632  11.286   2.300
46019SOL     OW39830   8.498   4.911   5.464
46019SOL    HW139831   8.588   4.938   5.479
46019SOL    HW239832   8.463   4.976   5.402
46020SOL     OW39833   7.915   0.576  10.657
46020SOL    HW139834   7.903   0.638  10.729
46020SOL    HW239835   7.892   0.626  10.579
46021SOL     OW39836  14.472   7.964   6.319
46021SOL    HW139837  14.567   7.959   6.328
46021SOL    HW239838  14.453   7.916   6.238
46022SOL     OW39839  11.977  14.658  14.463
46022SOL    HW139840  11.911  14.727  14.462
46022SOL    HW239841  11.987  14.633  14.371
46023SOL     OW39842   0.678  13.019   5.237
46023SOL    HW139843   0.703  12.964   5.163
46023SOL    HW239844   0.761  13.052   5.271
46024SOL     OW39845  11.518   5.477  12.151
46024SOL    HW139846  11.588   5.444  12.095
46024SOL    HW239847  11.462   5.402  12.167
46025SOL     OW39848  12.944   8.806   2.429
46025SOL    HW139849  12.986   8.729   2.467
46025SOL    HW239850  12.874   8.828   2.490
46026SOL     OW39851   0.255   6.318   6.736
46026SOL    HW139852   0.306   6.277   6.806
46026SOL    HW239853   0.234   6.246   6.676
46027SOL     OW39854   9.997   5.946   8.585
46027SOL    HW139855   9.989   5.979   8.674
46027SOL    HW239856   9.956   6.014   8.531
46028SOL     OW39857   3.339  10.789   4.422
46028SOL    HW139858   3.422  10.824   4.455
46028SOL    HW239859   3.275  10.857   4.442
46029SOL     OW39860   2.165   6.829  12.174
46029SOL    HW139861   2.138   6.778  12.097
46029SOL    HW239862   2.162   6.920  12.144
46030SOL     OW39863   6.390  13.291  11.413
46030SOL    HW139864   6.355  13.320  11.498
46030SOL    HW239865   6.469  13.345  11.400
46031SOL     OW39866  12.643   3.326   5.426
46031SOL    HW139867  12.604   3.388   5.365
46031SOL    HW239868  12.691   3.381   5.489
46032SOL     OW39869  14.290   0.741   2.801
46032SOL    HW139870  14.195   0.735   2.789
46032SOL    HW239871  14.307   0.694   2.883
46033SOL     OW39872  14.428   7.335   7.722
46033SOL    HW139873  14.434   7.326   7.627
46033SOL    HW239874  14.519   7.336   7.752
46034SOL     OW39875   0.399   0.209   8.384
46034SOL    HW139876   0.385   0.210   8.289
46034SOL    HW239877   0.477   0.263   8.397
46035SOL     OW39878  11.601  14.098   2.058
46035SOL    HW139879  11.543  14.022   2.056
46035SOL    HW239880  11.609  14.120   2.151
46036SOL     OW39881  10.551   1.093  10.046
46036SOL    HW139882  10.562   1.008  10.088
46036SOL    HW239883  10.640   1.122  10.027
46037SOL     OW39884   0.730   4.530   2.510
46037SOL    HW139885   0.693   4.443   2.491
46037SOL    HW239886   0.757   4.563   2.424
46038SOL     OW39887  14.516  14.258  12.651
46038SOL    HW139888  14.513  14.194  12.580
46038SOL    HW239889  14.501  14.207  12.730
46039SOL     OW39890   4.335  13.864   9.445
46039SOL    HW139891   4.368  13.819   9.367
46039SOL    HW239892   4.240  13.865   9.433
46040SOL     OW39893   5.534  10.858  12.786
46040SOL    HW139894   5.566  10.871  12.876
46040SOL    HW239895   5.524  10.763  12.779
46041SOL     OW39896   0.627   3.682   3.932
46041SOL    HW139897   0.721   3.677   3.945
46041SOL    HW239898   0.615   3.686   3.837
46042SOL     OW39899  11.092   7.025  12.722
46042SOL    HW139900  11.041   7.043  12.801
46042SOL    HW239901  11.033   7.047  12.650
46043SOL     OW39902   6.736  11.620   9.941
46043SOL    HW139903   6.650  11.644   9.976
46043SOL    HW239904   6.738  11.524   9.948
46044SOL     OW39905   9.323  13.084  11.479
46044SOL    HW139906   9.257  13.030  11.436
46044SOL    HW239907   9.343  13.153  11.417
46045SOL     OW39908   0.054  11.582   0.084
46045SOL    HW139909  14.846  11.624   0.091
46045SOL    HW239910   0.046  11.503   0.137
46046SOL     OW39911   9.568   6.954   5.680
46046SOL    HW139912   9.592   7.022   5.617
46046SOL    HW239913   9.499   6.994   5.733
46047SOL     OW39914   2.060  12.866   9.450
46047SOL    HW139915   1.987  12.817   9.412
46047SOL    HW239916   2.024  12.953   9.468
46048SOL     OW39917   2.410   9.492   8.896
46048SOL    HW139918   2.400   9.404   8.932
46048SOL    HW239919   2.424   9.478   8.803
46049SOL     OW39920   4.783   3.426   9.548
46049SOL    HW139921   4.808   3.385   9.465
46049SOL    HW239922   4.717   3.491   9.524
46050SOL     OW39923   8.152   6.502  13.587
46050SOL    HW139924   8.157   6.556  13.508
46050SOL    HW239925   8.078   6.537  13.636
46051SOL     OW39926   2.201   1.980   8.427
46051SOL    HW139927   2.156   2.056   8.393
46051SOL    HW239928   2.136   1.910   8.427
46052SOL     OW39929  11.463   1.845  12.162
46052SOL    HW139930  11.407   1.771  12.184
46052SOL    HW239931  11.413   1.896  12.098
46053SOL     OW39932  11.063  10.798   9.526
46053SOL    HW139933  11.124  10.725   9.526
46053SOL    HW239934  10.989  10.769   9.472
46054SOL     OW39935  12.518  11.109   7.856
46054SOL    HW139936  12.539  11.060   7.776
46054SOL    HW239937  12.560  11.061   7.926
46055SOL     OW39938   8.467   0.774   3.419
46055SOL    HW139939   8.462   0.686   3.457
46055SOL    HW239940   8.549   0.774   3.369
46056SOL     OW39941   2.893   4.675   5.354
46056SOL    HW139942   2.943   4.754   5.336
46056SOL    HW239943   2.907   4.658   5.448
46057SOL     OW39944   5.511  13.038   1.432
46057SOL    HW139945   5.522  12.972   1.364
46057SOL    HW239946   5.599  13.054   1.465
46058SOL     OW39947   7.483  13.054   0.739
46058SOL    HW139948   7.417  13.017   0.680
46058SOL    HW239949   7.504  13.139   0.700
46059SOL     OW39950   1.628   7.699   6.334
46059SOL    HW139951   1.557   7.705   6.398
46059SOL    HW239952   1.706   7.684   6.387
46060SOL     OW39953   6.430   3.108   0.592
46060SOL    HW139954   6.396   3.127   0.504
46060SOL    HW239955   6.491   3.180   0.610
46061SOL     OW39956   3.736  10.235  10.942
46061SOL    HW139957   3.744  10.236  10.847
46061SOL    HW239958   3.800  10.299  10.973
46062SOL     OW39959   8.668   7.211  10.170
46062SOL    HW139960   8.756   7.173  10.173
46062SOL    HW239961   8.681   7.298  10.131
46063SOL     OW39962   6.235   9.226   2.372
46063SOL    HW139963   6.297   9.154   2.358
46063SOL    HW239964   6.270   9.298   2.320
46064SOL     OW39965   4.243   4.636   9.521
46064SOL    HW139966   4.214   4.599   9.605
46064SOL    HW239967   4.205   4.579   9.455
46065SOL     OW39968   2.541   6.922  13.603
46065SOL    HW139969   2.446   6.930  13.612
46065SOL    HW239970   2.558   6.828  13.614
46066SOL     OW39971   1.540   0.803   5.341
46066SOL    HW139972   1.625   0.814   5.297
46066SOL    HW239973   1.499   0.889   5.334
46067SOL     OW39974   3.781   8.376  11.026
46067SOL    HW139975   3.819   8.460  11.001
46067SOL    HW239976   3.726   8.351  10.952
46068SOL     OW39977   7.836   6.143  13.694
46068SOL    HW139978   7.885   6.206  13.641
46068SOL    HW239979   7.821   6.069  13.636
46069SOL     OW39980   6.213   7.766   7.814
46069SOL    HW139981   6.178   7.681   7.840
46069SOL    HW239982   6.135   7.819   7.793
46070SOL     OW39983  11.333   1.388   7.512
46070SOL    HW139984  11.280   1.308   7.508
46070SOL    HW239985  11.375   1.385   7.598
46071SOL     OW39986   8.066   4.943   1.413
46071SOL    HW139987   8.036   4.897   1.491
46071SOL    HW239988   8.120   4.879   1.367
46072SOL     OW39989   0.132  14.006   7.407
46072SOL    HW139990   0.217  14.050   7.413
46072SOL    HW239991   0.123  13.961   7.491
46073SOL     OW39992   0.336   4.971   7.353
46073SOL    HW139993   0.357   4.878   7.345
46073SOL    HW239994   0.283   4.977   7.432
46074SOL     OW39995   7.569   9.424   0.515
46074SOL    HW139996   7.497   9.370   0.548
46074SOL    HW239997   7.602   9.470   0.593
46075SOL     OW39998   5.559   6.267   3.248
46075SOL    HW139999   5.508   6.303   3.175
46075SOL    HW240000   5.613   6.340   3.279
46076SOL     OW40001   3.490   9.856  13.773
46076SOL    HW140002   3.521   9.765  13.782
46076SOL    HW240003   3.520   9.899  13.853
46077SOL     OW40004  12.221  14.638   0.056
46077SOL    HW140005  12.314  14.654   0.042
46077SOL    HW240006  12.186  14.619  14.847
46078SOL     OW40007   4.058  14.589   8.965
46078SOL    HW140008   4.019  14.602   8.878
46078SOL    HW240009   4.123  14.519   8.951
46079SOL     OW40010   1.482   5.619   9.636
46079SOL    HW140011   1.475   5.692   9.575
46079SOL    HW240012   1.432   5.548   9.595
46080SOL     OW40013   0.663   1.261  12.172
46080SOL    HW140014   0.645   1.194  12.106
46080SOL    HW240015   0.708   1.330  12.123
46081SOL     OW40016   7.353  12.194  12.252
46081SOL    HW140017   7.415  12.266  12.260
46081SOL    HW240018   7.346  12.179  12.157
46082SOL     OW40019   4.729   5.127   6.132
46082SOL    HW140020   4.702   5.116   6.223
46082SOL    HW240021   4.818   5.093   6.128
46083SOL     OW40022   0.712  11.539  12.720
46083SOL    HW140023   0.781  11.478  12.695
46083SOL    HW240024   0.708  11.534  12.815
46084SOL     OW40025   1.055  14.324  14.109
46084SOL    HW140026   1.066  14.347  14.201
46084SOL    HW240027   1.032  14.406  14.065
46085SOL     OW40028   0.638   4.298   2.388
46085SOL    HW140029   0.560   4.302   2.332
46085SOL    HW240030   0.671   4.209   2.377
46086SOL     OW40031   4.523   4.984   3.098
46086SOL    HW140032   4.593   4.997   3.034
46086SOL    HW240033   4.567   4.947   3.174
46087SOL     OW40034   1.610   1.787   4.110
46087SOL    HW140035   1.643   1.697   4.107
46087SOL    HW240036   1.605   1.808   4.203
46088SOL     OW40037   7.894  10.767   0.709
46088SOL    HW140038   7.807  10.805   0.697
46088SOL    HW240039   7.941  10.830   0.762
46089SOL     OW40040   6.906   4.667   4.729
46089SOL    HW140041   6.940   4.707   4.649
46089SOL    HW240042   6.907   4.573   4.711
46090SOL     OW40043   5.150   8.896  10.910
46090SOL    HW140044   5.194   8.812  10.925
46090SOL    HW240045   5.104   8.885  10.827
46091SOL     OW40046   9.622  14.191  10.330
46091SOL    HW140047   9.716  14.187  10.345
46091SOL    HW240048   9.593  14.267  10.382
46092SOL     OW40049   1.806  14.335   9.250
46092SOL    HW140050   1.818  14.245   9.281
46092SOL    HW240051   1.760  14.379   9.321
46093SOL     OW40052   5.003   3.714   4.251
46093SOL    HW140053   5.012   3.755   4.165
46093SOL    HW240054   4.996   3.788   4.312
46094SOL     OW40055   6.230   9.776   5.008
46094SOL    HW140056   6.261   9.785   5.098
46094SOL    HW240057   6.302   9.731   4.963
46095SOL     OW40058   4.413   7.949   8.878
46095SOL    HW140059   4.409   7.921   8.970
46095SOL    HW240060   4.505   7.938   8.854
46096SOL     OW40061   9.781   4.608   4.673
46096SOL    HW140062   9.824   4.598   4.758
46096SOL    HW240063   9.711   4.542   4.673
46097SOL     OW40064  12.637   1.057   9.228
46097SOL    HW140065  12.694   1.133   9.238
46097SOL    HW240066  12.549   1.091   9.246
46098SOL     OW40067  10.370   4.367   9.390
46098SOL    HW140068  10.391   4.404   9.476
46098SOL    HW240069  10.354   4.442   9.334
46099SOL     OW40070   7.702   3.455   5.331
46099SOL    HW140071   7.737   3.491   5.413
46099SOL    HW240072   7.757   3.492   5.263
46100SOL     OW40073  10.694  11.952  12.006
46100SOL    HW140074  10.637  12.026  12.027
46100SOL    HW240075  10.783  11.988  12.014
46101SOL     OW40076  14.644   4.205   4.399
46101SOL    HW140077  14.708   4.237   4.462
46101SOL    HW240078  14.641   4.271   4.330
46102SOL     OW40079   9.393  11.697   6.459
46102SOL    HW140080   9.330  11.734   6.521
46102SOL    HW240081   9.440  11.631   6.509
46103SOL     OW40082   6.299   0.574   3.746
46103SOL    HW140083   6.317   0.631   3.821
46103SOL    HW240084   6.374   0.515   3.743
46104SOL     OW40085   6.576  10.872   4.608
46104SOL    HW140086   6.619  10.954   4.635
46104SOL    HW240087   6.491  10.876   4.651
46105SOL     OW40088  14.636  10.553   1.471
46105SOL    HW140089  14.655  10.501   1.393
46105SOL    HW240090  14.551  10.519   1.502
46106SOL     OW40091   7.160   7.605   2.454
46106SOL    HW140092   7.229   7.539   2.454
46106SOL    HW240093   7.147   7.627   2.361
46107SOL     OW40094  10.666   3.869  12.623
46107SOL    HW140095  10.762   3.879  12.626
46107SOL    HW240096  10.646   3.808  12.694
46108SOL     OW40097   2.155   7.208  13.356
46108SOL    HW140098   2.226   7.182  13.297
46108SOL    HW240099   2.199   7.257  13.425
46109SOL     OW40100   0.407   2.606   4.462
46109SOL    HW140101   0.406   2.686   4.409
46109SOL    HW240102   0.499   2.591   4.482
46110SOL     OW40103   7.259   6.557   2.108
46110SOL    HW140104   7.167   6.550   2.082
46110SOL    HW240105   7.296   6.472   2.086
46111SOL     OW40106   6.100   0.874   2.751
46111SOL    HW140107   6.095   0.836   2.664
46111SOL    HW240108   6.142   0.959   2.738
46112SOL     OW40109  10.452   3.995   1.850
46112SOL    HW140110  10.545   3.994   1.827
46112SOL    HW240111  10.417   3.915   1.810
46113SOL     OW40112   0.083   7.898   2.004
46113SOL    HW140113   0.104   7.992   2.013
46113SOL    HW240114   0.055   7.888   1.913
46114SOL     OW40115  12.361   4.928  13.179
46114SOL    HW140116  12.411   4.983  13.119
46114SOL    HW240117  12.299   4.987  13.221
46115SOL     OW40118  10.589   4.752   8.751
46115SOL    HW140119  10.677   4.753   8.788
46115SOL    HW240120  10.555   4.665   8.771
46116SOL     OW40121   2.570   2.316   7.625
46116SOL    HW140122   2.600   2.227   7.643
46116SOL    HW240123   2.649   2.370   7.635
46117SOL     OW40124   6.933   3.639  11.108
46117SOL    HW140125   6.952   3.691  11.030
46117SOL    HW240126   6.908   3.553  11.073
46118SOL     OW40127   2.567   6.684   5.423
46118SOL    HW140128   2.653   6.699   5.462
46118SOL    HW240129   2.518   6.764   5.443
46119SOL     OW40130  11.789  10.275  10.400
46119SOL    HW140131  11.738  10.219  10.341
46119SOL    HW240132  11.876  10.278  10.360
46120SOL     OW40133   4.840   2.504   0.608
46120SOL    HW140134   4.841   2.486   0.702
46120SOL    HW240135   4.857   2.598   0.601
46121SOL     OW40136   4.156   6.701  11.894
46121SOL    HW140137   4.099   6.624  11.898
46121SOL    HW240138   4.245   6.667  11.902
46122SOL     OW40139  12.847   0.865  10.413
46122SOL    HW140140  12.799   0.897  10.338
46122SOL    HW240141  12.937   0.894  10.399
46123SOL     OW40142  14.471  13.193  10.998
46123SOL    HW140143  14.500  13.267  10.944
46123SOL    HW240144  14.537  13.126  10.984
46124SOL     OW40145   1.216   9.642  14.110
46124SOL    HW140146   1.305   9.666  14.137
46124SOL    HW240147   1.198   9.560  14.154
46125SOL     OW40148   7.016   9.678  10.580
46125SOL    HW140149   6.937   9.635  10.613
46125SOL    HW240150   7.042   9.625  10.504
46126SOL     OW40151   0.051  10.541   8.219
46126SOL    HW140152   0.130  10.519   8.169
46126SOL    HW240153   0.048  10.637   8.219
46127SOL     OW40154  12.982  11.345   5.279
46127SOL    HW140155  12.936  11.336   5.196
46127SOL    HW240156  12.917  11.323   5.345
46128SOL     OW40157   9.728   4.371   6.796
46128SOL    HW140158   9.812   4.413   6.817
46128SOL    HW240159   9.751   4.281   6.775
46129SOL     OW40160  11.864   3.420  12.522
46129SOL    HW140161  11.775   3.439  12.551
46129SOL    HW240162  11.866   3.443  12.429
46130SOL     OW40163  10.790   3.531  13.942
46130SOL    HW140164  10.703   3.491  13.934
46130SOL    HW240165  10.787   3.578  14.025
46131SOL     OW40166   3.180   7.237   1.937
46131SOL    HW140167   3.222   7.225   2.022
46131SOL    HW240168   3.086   7.237   1.956
46132SOL     OW40169  12.879   0.352  12.017
46132SOL    HW140170  12.860   0.291  11.946
46132SOL    HW240171  12.971   0.337  12.039
46133SOL     OW40172  12.723   0.394   1.717
46133SOL    HW140173  12.649   0.365   1.664
46133SOL    HW240174  12.799   0.381   1.660
46134SOL     OW40175   1.104   3.101   8.846
46134SOL    HW140176   1.166   3.094   8.919
46134SOL    HW240177   1.143   3.166   8.788
46135SOL     OW40178  12.045  12.369   1.154
46135SOL    HW140179  12.093  12.329   1.227
46135SOL    HW240180  12.018  12.455   1.187
46136SOL     OW40181   6.243   1.341   7.850
46136SOL    HW140182   6.148   1.346   7.860
46136SOL    HW240183   6.277   1.352   7.939
46137SOL     OW40184  11.382   2.121  14.717
46137SOL    HW140185  11.450   2.126  14.784
46137SOL    HW240186  11.372   2.211  14.687
46138SOL     OW40187   2.430  10.850  11.357
46138SOL    HW140188   2.459  10.863  11.447
46138SOL    HW240189   2.453  10.759  11.338
46139SOL     OW40190   0.224   0.564   2.122
46139SOL    HW140191   0.230   0.473   2.094
46139SOL    HW240192   0.314   0.591   2.136
46140SOL     OW40193   2.765   3.100   6.898
46140SOL    HW140194   2.837   3.118   6.958
46140SOL    HW240195   2.798   3.124   6.812
46141SOL     OW40196  11.703   1.946   8.355
46141SOL    HW140197  11.747   2.025   8.325
46141SOL    HW240198  11.739   1.876   8.300
46142SOL     OW40199   7.376   4.885   6.259
46142SOL    HW140200   7.356   4.827   6.185
46142SOL    HW240201   7.310   4.954   6.254
46143SOL     OW40202   5.773   1.138   8.628
46143SOL    HW140203   5.830   1.092   8.567
46143SOL    HW240204   5.831   1.196   8.676
46144SOL     OW40205  11.845  10.992  10.193
46144SOL    HW140206  11.908  11.006  10.263
46144SOL    HW240207  11.898  10.979  10.114
46145SOL     OW40208  11.283  14.007   6.395
46145SOL    HW140209  11.331  13.931   6.363
46145SOL    HW240210  11.301  14.076   6.331
46146SOL     OW40211   7.856   7.554  10.404
46146SOL    HW140212   7.793   7.602  10.351
46146SOL    HW240213   7.840   7.462  10.382
46147SOL     OW40214   0.620   6.456   6.411
46147SOL    HW140215   0.595   6.542   6.376
46147SOL    HW240216   0.542   6.402   6.400
46148SOL     OW40217  14.858   4.860  13.740
46148SOL    HW140218  14.813   4.861  13.655
46148SOL    HW240219  14.859   4.767  13.765
46149SOL     OW40220  10.565   3.664  13.673
46149SOL    HW140221  10.605   3.728  13.732
46149SOL    HW240222  10.506   3.717  13.619
46150SOL     OW40223  12.591   1.985  14.297
46150SOL    HW140224  12.574   2.045  14.370
46150SOL    HW240225  12.634   1.909  14.338
46151SOL     OW40226   8.050   0.182   6.016
46151SOL    HW140227   7.975   0.237   5.994
46151SOL    HW240228   8.126   0.238   6.001
46152SOL     OW40229   3.909   3.078   2.889
46152SOL    HW140230   4.004   3.078   2.880
46152SOL    HW240231   3.877   3.129   2.814
46153SOL     OW40232  11.067  13.057  11.491
46153SOL    HW140233  11.127  12.986  11.470
46153SOL    HW240234  11.103  13.095  11.572
46154SOL     OW40235   8.420   9.176  14.001
46154SOL    HW140236   8.406   9.262  13.960
46154SOL    HW240237   8.405   9.113  13.931
46155SOL     OW40238   5.989   6.716   4.058
46155SOL    HW140239   5.942   6.758   4.130
46155SOL    HW240240   6.081   6.718   4.085
46156SOL     OW40241  10.035   6.724   5.321
46156SOL    HW140242   9.940   6.707   5.326
46156SOL    HW240243  10.069   6.650   5.271
46157SOL     OW40244   2.922  14.161  12.673
46157SOL    HW140245   2.955  14.148  12.584
46157SOL    HW240246   2.923  14.256  12.685
46158SOL     OW40247  13.430   6.210   7.371
46158SOL    HW140248  13.445   6.269   7.297
46158SOL    HW240249  13.512   6.213   7.421
46159SOL     OW40250   9.155   7.614  14.608
46159SOL    HW140251   9.140   7.638  14.517
46159SOL    HW240252   9.116   7.685  14.659
46160SOL     OW40253  12.483   5.053   9.630
46160SOL    HW140254  12.511   5.138   9.663
46160SOL    HW240255  12.427   5.017   9.699
46161SOL     OW40256  13.866   3.829   5.341
46161SOL    HW140257  13.778   3.866   5.329
46161SOL    HW240258  13.872   3.814   5.436
46162SOL     OW40259   1.137   8.444   5.675
46162SOL    HW140260   1.098   8.357   5.682
46162SOL    HW240261   1.090   8.486   5.603
46163SOL     OW40262   8.397   2.231   0.774
46163SOL    HW140263   8.454   2.277   0.712
46163SOL    HW240264   8.455   2.207   0.846
46164SOL     OW40265   5.309  14.822   3.068
46164SOL    HW140266   5.301  14.770   3.148
46164SOL    HW240267   5.393  14.795   3.031
46165SOL     OW40268  10.446   5.921   6.771
46165SOL    HW140269  10.468   5.838   6.730
46165SOL    HW240270  10.373   5.901   6.830
46166SOL     OW40271   6.332   9.061   0.263
46166SOL    HW140272   6.289   8.976   0.249
46166SOL    HW240273   6.381   9.050   0.344
46167SOL     OW40274  14.019   6.126   6.852
46167SOL    HW140275  14.107   6.148   6.821
46167SOL    HW240276  13.997   6.195   6.914
46168SOL     OW40277   1.855  13.374  12.671
46168SOL    HW140278   1.772  13.416  12.646
46168SOL    HW240279   1.922  13.421  12.623
46169SOL     OW40280  13.235  11.049  14.503
46169SOL    HW140281  13.192  11.068  14.587
46169SOL    HW240282  13.296  11.122  14.490
46170SOL     OW40283   5.464   7.249   7.087
46170SOL    HW140284   5.425   7.305   7.153
46170SOL    HW240285   5.409   7.260   7.010
46171SOL     OW40286   8.531  12.980   2.674
46171SOL    HW140287   8.535  12.910   2.609
46171SOL    HW240288   8.444  12.972   2.712
46172SOL     OW40289   4.750   9.405  13.204
46172SOL    HW140290   4.751   9.470  13.275
46172SOL    HW240291   4.697   9.333  13.238
46173SOL     OW40292   8.679  14.660   5.561
46173SOL    HW140293   8.697  14.597   5.630
46173SOL    HW240294   8.762  14.705   5.546
46174SOL     OW40295   1.190  13.964  13.292
46174SOL    HW140296   1.173  13.870  13.305
46174SOL    HW240297   1.192  14.000  13.381
46175SOL     OW40298   6.343  14.369  12.136
46175SOL    HW140299   6.309  14.285  12.165
46175SOL    HW240300   6.398  14.399  12.207
46176SOL     OW40301   9.821  11.783  11.037
46176SOL    HW140302   9.734  11.750  11.013
46176SOL    HW240303   9.803  11.849  11.104
46177SOL     OW40304  11.181   6.507  13.822
46177SOL    HW140305  11.157   6.414  13.826
46177SOL    HW240306  11.114   6.551  13.875
46178SOL     OW40307  13.509   0.767   4.156
46178SOL    HW140308  13.492   0.718   4.075
46178SOL    HW240309  13.423   0.772   4.198
46179SOL     OW40310  13.805   8.286   1.752
46179SOL    HW140311  13.739   8.317   1.814
46179SOL    HW240312  13.765   8.298   1.666
46180SOL     OW40313   4.524  10.994   3.599
46180SOL    HW140314   4.550  10.946   3.521
46180SOL    HW240315   4.430  10.979   3.607
46181SOL     OW40316  12.747  13.842   8.526
46181SOL    HW140317  12.703  13.825   8.609
46181SOL    HW240318  12.699  13.790   8.462
46182SOL     OW40319  14.820   0.520  14.148
46182SOL    HW140320  14.861   0.578  14.211
46182SOL    HW240321  14.848   0.432  14.174
46183SOL     OW40322  12.392  11.843   1.613
46183SOL    HW140323  12.425  11.765   1.657
46183SOL    HW240324  12.401  11.824   1.520
46184SOL     OW40325   6.124  13.482   6.822
46184SOL    HW140326   6.132  13.492   6.727
46184SOL    HW240327   6.141  13.390   6.838
46185SOL     OW40328  13.118   5.382   4.446
46185SOL    HW140329  13.102   5.437   4.369
46185SOL    HW240330  13.066   5.422   4.516
46186SOL     OW40331   3.731  14.823   1.064
46186SOL    HW140332   3.788  14.851   1.135
46186SOL    HW240333   3.724   0.022   1.008
46187SOL     OW40334   3.707  13.293   0.425
46187SOL    HW140335   3.668  13.355   0.487
46187SOL    HW240336   3.783  13.339   0.390
46188SOL     OW40337   2.712  10.268  12.985
46188SOL    HW140338   2.694  10.183  13.025
46188SOL    HW240339   2.684  10.332  13.050
46189SOL     OW40340   2.772   7.287   2.538
46189SOL    HW140341   2.753   7.200   2.574
46189SOL    HW240342   2.747   7.348   2.607
46190SOL     OW40343   9.496  12.634   3.925
46190SOL    HW140344   9.411  12.610   3.889
46190SOL    HW240345   9.476  12.700   3.992
46191SOL     OW40346   4.623   3.537   6.430
46191SOL    HW140347   4.690   3.489   6.381
46191SOL    HW240348   4.560   3.565   6.364
46192SOL     OW40349   4.679  10.225   0.061
46192SOL    HW140350   4.726  10.197   0.140
46192SOL    HW240351   4.705  10.317   0.050
46193SOL     OW40352  10.031   6.120  14.626
46193SOL    HW140353   9.943   6.155  14.645
46193SOL    HW240354  10.083   6.197  14.603
46194SOL     OW40355   0.142   1.269   7.920
46194SOL    HW140356   0.134   1.264   8.016
46194SOL    HW240357   0.091   1.195   7.888
46195SOL     OW40358   9.214   9.106  12.941
46195SOL    HW140359   9.211   9.051  12.862
46195SOL    HW240360   9.281   9.172  12.922
46196SOL     OW40361  13.764   9.722   8.235
46196SOL    HW140362  13.701   9.739   8.305
46196SOL    HW240363  13.765   9.627   8.225
46197SOL     OW40364   4.534  11.184  11.603
46197SOL    HW140365   4.618  11.193  11.648
46197SOL    HW240366   4.519  11.271  11.564
46198SOL     OW40367   5.778  13.071  11.032
46198SOL    HW140368   5.782  13.101  11.123
46198SOL    HW240369   5.729  12.989  11.036
46199SOL     OW40370   1.285   8.317  12.732
46199SOL    HW140371   1.361   8.363  12.767
46199SOL    HW240372   1.304   8.307  12.638
46200SOL     OW40373  10.685   3.703   6.800
46200SOL    HW140374  10.739   3.631   6.832
46200SOL    HW240375  10.738   3.781   6.814
46201SOL     OW40376  13.321   9.993  10.046
46201SOL    HW140377  13.367  10.077  10.039
46201SOL    HW240378  13.283   9.979   9.960
46202SOL     OW40379  12.908   5.923  10.631
46202SOL    HW140380  12.847   5.976  10.579
46202SOL    HW240381  12.914   5.969  10.714
46203SOL     OW40382   5.666  11.350   1.224
46203SOL    HW140383   5.707  11.266   1.208
46203SOL    HW240384   5.652  11.386   1.136
46204SOL     OW40385   4.702  10.740   6.525
46204SOL    HW140386   4.628  10.718   6.581
46204SOL    HW240387   4.740  10.656   6.501
46205SOL     OW40388  11.423   9.350   6.073
46205SOL    HW140389  11.499   9.403   6.099
46205SOL    HW240390  11.372   9.408   6.016
46206SOL     OW40391   7.048   7.488  14.733
46206SOL    HW140392   7.114   7.448  14.790
46206SOL    HW240393   6.985   7.418  14.717
46207SOL     OW40394   3.211   1.126   0.940
46207SOL    HW140395   3.238   1.054   0.882
46207SOL    HW240396   3.131   1.160   0.899
46208SOL     OW40397   2.496   2.119  10.853
46208SOL    HW140398   2.549   2.174  10.911
46208SOL    HW240399   2.486   2.172  10.774
46209SOL     OW40400  13.530   9.466   5.474
46209SOL    HW140401  13.475   9.435   5.402
46209SOL    HW240402  13.620   9.458   5.441
46210SOL     OW40403   0.226  10.813   1.859
46210SOL    HW140404   0.311  10.854   1.874
46210SOL    HW240405   0.185  10.812   1.945
46211SOL     OW40406   7.657   4.845   1.418
46211SOL    HW140407   7.672   4.939   1.424
46211SOL    HW240408   7.603   4.825   1.494
46212SOL     OW40409  11.190   9.007  11.187
46212SOL    HW140410  11.249   9.048  11.124
46212SOL    HW240411  11.141   8.943  11.137
46213SOL     OW40412  12.270   7.445   9.944
46213SOL    HW140413  12.279   7.446  10.039
46213SOL    HW240414  12.332   7.513   9.913
46214SOL     OW40415   6.425   1.483   7.273
46214SOL    HW140416   6.407   1.489   7.179
46214SOL    HW240417   6.416   1.573   7.305
46215SOL     OW40418  11.503   1.090   2.651
46215SOL    HW140419  11.479   1.119   2.563
46215SOL    HW240420  11.421   1.064   2.691
46216SOL     OW40421   2.940  12.924   9.523
46216SOL    HW140422   2.868  12.976   9.488
46216SOL    HW240423   2.905  12.836   9.533
46217SOL     OW40424   4.404  10.782   3.173
46217SOL    HW140425   4.326  10.729   3.163
46217SOL    HW240426   4.396  10.850   3.106
46218SOL     OW40427  13.129   0.745   9.320
46218SOL    HW140428  13.142   0.806   9.393
46218SOL    HW240429  13.133   0.801   9.242
46219SOL     OW40430  12.766   3.086   1.212
46219SOL    HW140431  12.830   3.131   1.268
46219SOL    HW240432  12.765   3.137   1.131
46220SOL     OW40433   8.961   2.890   3.946
46220SOL    HW140434   8.938   2.868   4.036
46220SOL    HW240435   8.967   2.985   3.945
46221SOL     OW40436   9.868   2.280   2.812
46221SOL    HW140437   9.923   2.207   2.785
46221SOL    HW240438   9.870   2.340   2.737
46222SOL     OW40439   5.641   6.278   3.629
46222SOL    HW140440   5.665   6.275   3.722
46222SOL    HW240441   5.710   6.229   3.584
46223SOL     OW40442  14.308   3.950   9.942
46223SOL    HW140443  14.335   3.983   9.856
46223SOL    HW240444  14.389   3.948   9.993
46224SOL     OW40445   3.978   2.613  12.474
46224SOL    HW140446   4.067   2.582  12.457
46224SOL    HW240447   3.923   2.537  12.453
46225SOL     OW40448   2.305   9.897   0.610
46225SOL    HW140449   2.212   9.899   0.635
46225SOL    HW240450   2.350   9.875   0.692
46226SOL     OW40451   3.651   3.663   8.065
46226SOL    HW140452   3.727   3.697   8.113
46226SOL    HW240453   3.582   3.728   8.081
46227SOL     OW40454   4.001   6.105   4.965
46227SOL    HW140455   4.030   6.037   5.026
46227SOL    HW240456   4.018   6.068   4.878
46228SOL     OW40457  14.320   6.053   7.118
46228SOL    HW140458  14.246   5.993   7.117
46228SOL    HW240459  14.286   6.134   7.156
46229SOL     OW40460   4.122   5.220  12.351
46229SOL    HW140461   4.031   5.190  12.350
46229SOL    HW240462   4.115   5.314  12.371
46230SOL     OW40463   6.378   1.412   8.111
46230SOL    HW140464   6.419   1.381   8.191
46230SOL    HW240465   6.392   1.507   8.112
46231SOL     OW40466   5.564   1.892  13.891
46231SOL    HW140467   5.484   1.844  13.869
46231SOL    HW240468   5.633   1.825  13.891
46232SOL     OW40469  14.267   1.690   7.543
46232SOL    HW140470  14.282   1.745   7.620
46232SOL    HW240471  14.285   1.748   7.469
46233SOL     OW40472   9.341   9.139   1.666
46233SOL    HW140473   9.277   9.079   1.627
46233SOL    HW240474   9.300   9.170   1.747
46234SOL     OW40475  13.323   9.519   6.116
46234SOL    HW140476  13.307   9.480   6.202
46234SOL    HW240477  13.364   9.449   6.066
46235SOL     OW40478  10.664   7.316   6.691
46235SOL    HW140479  10.591   7.299   6.750
46235SOL    HW240480  10.713   7.233   6.690
46236SOL     OW40481   1.633  13.214  12.190
46236SOL    HW140482   1.679  13.131  12.175
46236SOL    HW240483   1.565  13.216  12.122
46237SOL     OW40484   9.502   3.569   8.553
46237SOL    HW140485   9.580   3.607   8.513
46237SOL    HW240486   9.535   3.521   8.629
46238SOL     OW40487   5.653   4.787   9.157
46238SOL    HW140488   5.677   4.875   9.126
46238SOL    HW240489   5.572   4.767   9.109
46239SOL     OW40490   6.704   7.883   6.376
46239SOL    HW140491   6.735   7.803   6.418
46239SOL    HW240492   6.750   7.886   6.292
46240SOL     OW40493   2.340  10.838   3.775
46240SOL    HW140494   2.279  10.790   3.831
46240SOL    HW240495   2.306  10.927   3.773
46241SOL     OW40496   6.941  12.930   8.201
46241SOL    HW140497   6.977  12.852   8.242
46241SOL    HW240498   6.904  12.899   8.118
46242SOL     OW40499   3.621   6.739  14.369
46242SOL    HW140500   3.563   6.815  14.374
46242SOL    HW240501   3.603   6.690  14.449
46243SOL     OW40502   0.033   1.944   6.891
46243SOL    HW140503   0.049   2.002   6.965
46243SOL    HW240504   0.106   1.882   6.892
46244SOL     OW40505   6.123  10.597   4.298
46244SOL    HW140506   6.076  10.574   4.217
46244SOL    HW240507   6.091  10.685   4.319
46245SOL     OW40508   9.313   4.128   1.194
46245SOL    HW140509   9.402   4.146   1.165
46245SOL    HW240510   9.300   4.035   1.179
46246SOL     OW40511  11.405   5.265   5.501
46246SOL    HW140512  11.328   5.312   5.532
46246SOL    HW240513  11.401   5.181   5.547
46247SOL     OW40514  13.349  11.543   6.474
46247SOL    HW140515  13.347  11.486   6.551
46247SOL    HW240516  13.397  11.620   6.503
46248SOL     OW40517  14.569   6.290  10.740
46248SOL    HW140518  14.552   6.381  10.765
46248SOL    HW240519  14.485   6.246  10.752
46249SOL     OW40520  11.094   4.080  11.350
46249SOL    HW140521  11.100   4.175  11.340
46249SOL    HW240522  11.176   4.047  11.312
46250SOL     OW40523   5.595   1.556  12.628
46250SOL    HW140524   5.594   1.569  12.723
46250SOL    HW240525   5.504   1.540  12.605
46251SOL     OW40526  10.831   4.770   4.380
46251SOL    HW140527  10.889   4.776   4.456
46251SOL    HW240528  10.751   4.814   4.408
46252SOL     OW40529   4.012  13.106   4.082
46252SOL    HW140530   3.931  13.150   4.055
46252SOL    HW240531   4.064  13.100   4.002
46253SOL     OW40532   0.717  14.679   3.681
46253SOL    HW140533   0.670  14.597   3.696
46253SOL    HW240534   0.689  14.736   3.752
46254SOL     OW40535   3.834  11.704   7.726
46254SOL    HW140536   3.819  11.622   7.678
46254SOL    HW240537   3.846  11.770   7.658
46255SOL     OW40538   6.164   2.042   8.949
46255SOL    HW140539   6.161   2.108   8.880
46255SOL    HW240540   6.073   2.011   8.956
46256SOL     OW40541   8.773   3.755   6.218
46256SOL    HW140542   8.825   3.821   6.172
46256SOL    HW240543   8.701   3.805   6.257
46257SOL     OW40544  13.854   5.300   2.530
46257SOL    HW140545  13.879   5.338   2.615
46257SOL    HW240546  13.856   5.374   2.469
46258SOL     OW40547  14.240  13.767   7.038
46258SOL    HW140548  14.311  13.731   6.984
46258SOL    HW240549  14.217  13.850   6.995
46259SOL     OW40550   0.824   6.677   5.730
46259SOL    HW140551   0.730   6.668   5.742
46259SOL    HW240552   0.862   6.641   5.810
46260SOL     OW40553   3.179   8.435  14.562
46260SOL    HW140554   3.185   8.462  14.654
46260SOL    HW240555   3.209   8.510  14.512
46261SOL     OW40556   1.091  13.370   0.353
46261SOL    HW140557   1.179  13.401   0.373
46261SOL    HW240558   1.036  13.409   0.421
46262SOL     OW40559   9.025   1.965   4.831
46262SOL    HW140560   9.033   2.031   4.899
46262SOL    HW240561   9.062   1.886   4.869
46263SOL     OW40562  11.227  10.521  13.747
46263SOL    HW140563  11.297  10.586  13.740
46263SOL    HW240564  11.268  10.444  13.785
46264SOL     OW40565  10.770   8.035   6.521
46264SOL    HW140566  10.811   7.948   6.525
46264SOL    HW240567  10.839   8.092   6.488
46265SOL     OW40568   9.298  13.899  12.968
46265SOL    HW140569   9.336  13.901  12.881
46265SOL    HW240570   9.211  13.937  12.958
46266SOL     OW40571   0.309   5.277  13.918
46266SOL    HW140572   0.306   5.297  14.011
46266SOL    HW240573   0.368   5.202  13.912
46267SOL     OW40574   9.948  10.917   4.072
46267SOL    HW140575   9.881  10.932   4.139
46267SOL    HW240576  10.028  10.952   4.110
46268SOL     OW40577  13.430   9.778  10.678
46268SOL    HW140578  13.518   9.770  10.717
46268SOL    HW240579  13.439   9.736  10.592
46269SOL     OW40580   0.301   5.723   4.056
46269SOL    HW140581   0.281   5.633   4.029
46269SOL    HW240582   0.219   5.770   4.045
46270SOL     OW40583  10.575  10.186   8.277
46270SOL    HW140584  10.634  10.112   8.289
46270SOL    HW240585  10.596  10.220   8.190
46271SOL     OW40586   4.659   7.747   7.399
46271SOL    HW140587   4.649   7.754   7.304
46271SOL    HW240588   4.703   7.828   7.425
46272SOL     OW40589   3.990   9.309   3.465
46272SOL    HW140590   3.932   9.253   3.414
46272SOL    HW240591   4.060   9.251   3.495
46273SOL     OW40592   8.221   0.106   1.949
46273SOL    HW140593   8.213   0.129   2.042
46273SOL    HW240594   8.132   0.111   1.915
46274SOL     OW40595  11.951  12.899   1.186
46274SOL    HW140596  11.862  12.910   1.152
46274SOL    HW240597  11.940  12.876   1.278
46275SOL     OW40598   0.129   2.069   0.396
46275SOL    HW140599   0.160   2.127   0.326
46275SOL    HW240600   0.139   1.981   0.360
46276SOL     OW40601   0.866  13.111  14.803
46276SOL    HW140602   0.954  13.080  14.826
46276SOL    HW240603   0.812  13.089   0.000
46277SOL     OW40604  10.601  13.172   9.288
46277SOL    HW140605  10.550  13.208   9.360
46277SOL    HW240606  10.536  13.142   9.225
46278SOL     OW40607  12.370  13.779   7.509
46278SOL    HW140608  12.363  13.735   7.425
46278SOL    HW240609  12.464  13.785   7.526
46279SOL     OW40610   8.436  11.184   0.803
46279SOL    HW140611   8.436  11.276   0.831
46279SOL    HW240612   8.449  11.187   0.709
46280SOL     OW40613  14.408   5.018   1.395
46280SOL    HW140614  14.345   4.986   1.329
46280SOL    HW240615  14.480   4.955   1.391
46281SOL     OW40616  13.369  14.758  10.742
46281SOL    HW140617  13.351  14.852  10.735
46281SOL    HW240618  13.374  14.728  10.651
46282SOL     OW40619   9.759   0.461   5.227
46282SOL    HW140620   9.679   0.487   5.274
46282SOL    HW240621   9.740   0.478   5.135
46283SOL     OW40622   2.789   5.453  10.579
46283SOL    HW140623   2.833   5.468  10.496
46283SOL    HW240624   2.729   5.381  10.561
46284SOL     OW40625   1.671   3.596   0.617
46284SOL    HW140626   1.751   3.634   0.655
46284SOL    HW240627   1.702   3.541   0.546
46285SOL     OW40628  13.527   7.305   6.976
46285SOL    HW140629  13.591   7.239   7.003
46285SOL    HW240630  13.442   7.263   6.991
46286SOL     OW40631   4.018   1.100   7.301
46286SOL    HW140632   3.961   1.023   7.298
46286SOL    HW240633   4.094   1.075   7.249
46287SOL     OW40634  13.182   9.941  14.653
46287SOL    HW140635  13.256   9.999  14.635
46287SOL    HW240636  13.213   9.882  14.722
46288SOL     OW40637   9.192   6.312   4.181
46288SOL    HW140638   9.227   6.231   4.143
46288SOL    HW240639   9.270   6.362   4.206
46289SOL     OW40640   0.120   4.244  12.588
46289SOL    HW140641   0.085   4.159  12.559
46289SOL    HW240642   0.091   4.305  12.520
46290SOL     OW40643   1.709  10.594  13.183
46290SOL    HW140644   1.749  10.612  13.098
46290SOL    HW240645   1.782  10.562  13.238
46291SOL     OW40646   4.719   3.325   0.417
46291SOL    HW140647   4.656   3.317   0.346
46291SOL    HW240648   4.680   3.390   0.476
46292SOL     OW40649   8.644   8.389   7.844
46292SOL    HW140650   8.568   8.348   7.886
46292SOL    HW240651   8.700   8.316   7.817
46293SOL     OW40652  12.907   9.733  14.036
46293SOL    HW140653  12.992   9.691  14.051
46293SOL    HW240654  12.883   9.707  13.947
46294SOL     OW40655  14.335   2.651   2.307
46294SOL    HW140656  14.348   2.699   2.225
46294SOL    HW240657  14.271   2.703   2.355
46295SOL     OW40658   8.721   3.161  14.205
46295SOL    HW140659   8.776   3.148  14.282
46295SOL    HW240660   8.717   3.256  14.194
46296SOL     OW40661  10.900   7.108   3.712
46296SOL    HW140662  10.886   7.062   3.629
46296SOL    HW240663  10.813   7.117   3.750
46297SOL     OW40664   6.931   2.880   8.745
46297SOL    HW140665   6.866   2.919   8.687
46297SOL    HW240666   6.879   2.827   8.806
46298SOL     OW40667   1.122  11.937   5.664
46298SOL    HW140668   1.187  11.928   5.733
46298SOL    HW240669   1.168  11.977   5.591
46299SOL     OW40670  10.303   3.604   9.031
46299SOL    HW140671  10.264   3.565   9.109
46299SOL    HW240672  10.300   3.698   9.046
46300SOL     OW40673  13.762   2.206  14.167
46300SOL    HW140674  13.793   2.138  14.227
46300SOL    HW240675  13.821   2.199  14.092
46301SOL     OW40676   4.417   7.077   9.311
46301SOL    HW140677   4.408   7.088   9.405
46301SOL    HW240678   4.488   7.136   9.286
46302SOL     OW40679  12.211   1.852   3.118
46302SOL    HW140680  12.146   1.865   3.049
46302SOL    HW240681  12.200   1.928   3.176
46303SOL     OW40682   8.746   3.725  11.871
46303SOL    HW140683   8.711   3.655  11.927
46303SOL    HW240684   8.840   3.724  11.887
46304SOL     OW40685   0.070   9.164   3.453
46304SOL    HW140686   0.142   9.140   3.395
46304SOL    HW240687   0.104   9.150   3.541
46305SOL     OW40688   0.858  12.858   5.768
46305SOL    HW140689   0.945  12.819   5.779
46305SOL    HW240690   0.837  12.845   5.675
46306SOL     OW40691   8.091   7.650   3.249
46306SOL    HW140692   8.017   7.698   3.213
46306SOL    HW240693   8.083   7.562   3.215
46307SOL     OW40694   5.244  10.172  10.110
46307SOL    HW140695   5.328  10.136  10.139
46307SOL    HW240696   5.247  10.264  10.136
46308SOL     OW40697  11.682   4.971  10.436
46308SOL    HW140698  11.715   4.988  10.348
46308SOL    HW240699  11.586   4.975  10.427
46309SOL     OW40700   2.460   2.076   3.543
46309SOL    HW140701   2.449   1.981   3.543
46309SOL    HW240702   2.554   2.089   3.558
46310SOL     OW40703   2.148   6.098   5.744
46310SOL    HW140704   2.115   6.008   5.750
46310SOL    HW240705   2.087   6.141   5.684
46311SOL     OW40706   8.342   2.119  14.577
46311SOL    HW140707   8.264   2.167  14.606
46311SOL    HW240708   8.415   2.175  14.604
46312SOL     OW40709   7.638   8.869  11.594
46312SOL    HW140710   7.641   8.960  11.624
46312SOL    HW240711   7.548   8.857  11.564
46313SOL     OW40712  11.128  14.636  12.514
46313SOL    HW140713  11.168  14.562  12.468
46313SOL    HW240714  11.034  14.617  12.513
46314SOL     OW40715   1.421  12.378   1.919
46314SOL    HW140716   1.480  12.321   1.968
46314SOL    HW240717   1.344  12.385   1.974
46315SOL     OW40718  14.510   3.815  10.946
46315SOL    HW140719  14.439   3.866  10.907
46315SOL    HW240720  14.576   3.880  10.970
46316SOL     OW40721   5.099  14.623   1.430
46316SOL    HW140722   5.167  14.575   1.382
46316SOL    HW240723   5.113  14.715   1.406
46317SOL     OW40724  13.661   3.391   3.254
46317SOL    HW140725  13.747   3.425   3.226
46317SOL    HW240726  13.618   3.467   3.293
46318SOL     OW40727   6.968   8.169   8.790
46318SOL    HW140728   7.000   8.122   8.713
46318SOL    HW240729   7.021   8.249   8.792
46319SOL     OW40730   3.234   4.152   0.454
46319SOL    HW140731   3.238   4.198   0.538
46319SOL    HW240732   3.162   4.089   0.465
46320SOL     OW40733  12.596   9.980   4.512
46320SOL    HW140734  12.582   9.918   4.584
46320SOL    HW240735  12.589  10.066   4.553
46321SOL     OW40736   3.699   4.098   3.070
46321SOL    HW140737   3.692   4.155   3.147
46321SOL    HW240738   3.792   4.081   3.060
46322SOL     OW40739   9.637   6.127   9.764
46322SOL    HW140740   9.696   6.083   9.825
46322SOL    HW240741   9.564   6.065   9.753
46323SOL     OW40742  13.174   1.669  12.303
46323SOL    HW140743  13.102   1.722  12.268
46323SOL    HW240744  13.156   1.581  12.271
46324SOL     OW40745  10.566   6.309   0.773
46324SOL    HW140746  10.485   6.261   0.757
46324SOL    HW240747  10.555   6.348   0.860
46325SOL     OW40748   0.731  12.403  10.819
46325SOL    HW140749   0.735  12.329  10.759
46325SOL    HW240750   0.685  12.368  10.896
46326SOL     OW40751   7.371  14.717   1.982
46326SOL    HW140752   7.404  14.776   1.914
46326SOL    HW240753   7.355  14.774   2.057
46327SOL     OW40754   5.562  11.990   0.435
46327SOL    HW140755   5.538  12.046   0.509
46327SOL    HW240756   5.486  11.934   0.422
46328SOL     OW40757   0.002   8.491   9.544
46328SOL    HW140758   0.091   8.478   9.510
46328SOL    HW240759  14.824   8.439   9.487
46329SOL     OW40760   8.237  14.049   2.034
46329SOL    HW140761   8.180  14.115   2.073
46329SOL    HW240762   8.184  13.969   2.035
46330SOL     OW40763   7.910  11.985  11.706
46330SOL    HW140764   7.911  12.011  11.613
46330SOL    HW240765   7.895  11.891  11.704
46331SOL     OW40766  13.460   9.288   0.931
46331SOL    HW140767  13.468   9.311   1.023
46331SOL    HW240768  13.478   9.369   0.884
46332SOL     OW40769   1.230   2.977   7.462
46332SOL    HW140770   1.277   3.050   7.501
46332SOL    HW240771   1.143   3.012   7.443
46333SOL     OW40772   8.084  13.850   9.957
46333SOL    HW140773   8.103  13.767   9.912
46333SOL    HW240774   8.016  13.891   9.904
46334SOL     OW40775  11.911   9.265  12.657
46334SOL    HW140776  11.952   9.215  12.728
46334SOL    HW240777  11.817   9.253  12.670
46335SOL     OW40778   3.893   0.046   6.184
46335SOL    HW140779   3.918   0.123   6.236
46335SOL    HW240780   3.888  14.853   6.248
46336SOL     OW40781  13.974   8.433   8.644
46336SOL    HW140782  13.929   8.513   8.619
46336SOL    HW240783  14.018   8.405   8.564
46337SOL     OW40784   8.297   9.031  12.984
46337SOL    HW140785   8.212   8.994  12.958
46337SOL    HW240786   8.302   9.115  12.938
46338SOL     OW40787  11.446  14.126   4.933
46338SOL    HW140788  11.532  14.156   4.905
46338SOL    HW240789  11.389  14.146   4.858
46339SOL     OW40790   8.933   8.488  12.241
46339SOL    HW140791   8.896   8.561  12.292
46339SOL    HW240792   9.010   8.525  12.199
46340SOL     OW40793   7.134   6.135  12.075
46340SOL    HW140794   7.171   6.061  12.027
46340SOL    HW240795   7.210   6.180  12.112
46341SOL     OW40796   0.959   0.410  10.931
46341SOL    HW140797   0.958   0.383  10.840
46341SOL    HW240798   0.896   0.482  10.936
46342SOL     OW40799   1.696  10.121   9.622
46342SOL    HW140800   1.654  10.206   9.630
46342SOL    HW240801   1.681  10.079   9.707
46343SOL     OW40802   0.941  13.020   7.186
46343SOL    HW140803   0.955  13.049   7.276
46343SOL    HW240804   0.866  13.071   7.156
46344SOL     OW40805  11.388  10.716  10.023
46344SOL    HW140806  11.481  10.737  10.034
46344SOL    HW240807  11.376  10.634  10.070
46345SOL     OW40808   9.804   8.380  11.900
46345SOL    HW140809   9.732   8.436  11.871
46345SOL    HW240810   9.827   8.329  11.822
46346SOL     OW40811   6.050   8.547   7.090
46346SOL    HW140812   6.143   8.564   7.074
46346SOL    HW240813   6.010   8.552   7.003
46347SOL     OW40814  10.546   1.842   5.224
46347SOL    HW140815  10.639   1.822   5.237
46347SOL    HW240816  10.546   1.926   5.178
46348SOL     OW40817   2.452   0.006   9.451
46348SOL    HW140818   2.541   0.032   9.429
46348SOL    HW240819   2.461  14.796   9.487
46349SOL     OW40820  14.184   4.430  12.894
46349SOL    HW140821  14.240   4.464  12.825
46349SOL    HW240822  14.098   4.422  12.854
46350SOL     OW40823   6.161   5.658  12.989
46350SOL    HW140824   6.127   5.572  12.965
46350SOL    HW240825   6.104   5.688  13.060
46351SOL     OW40826   5.837   6.504   4.162
46351SOL    HW140827   5.810   6.592   4.137
46351SOL    HW240828   5.922   6.517   4.206
46352SOL     OW40829   7.032   2.716   1.369
46352SOL    HW140830   7.077   2.747   1.291
46352SOL    HW240831   7.002   2.795   1.413
46353SOL     OW40832   9.856   6.452   9.326
46353SOL    HW140833   9.944   6.449   9.287
46353SOL    HW240834   9.865   6.401   9.406
46354SOL     OW40835   9.088   5.108   5.571
46354SOL    HW140836   9.182   5.089   5.579
46354SOL    HW240837   9.078   5.139   5.481
46355SOL     OW40838  11.356   1.140   6.736
46355SOL    HW140839  11.394   1.100   6.814
46355SOL    HW240840  11.403   1.099   6.663
46356SOL     OW40841  14.516   6.545   9.566
46356SOL    HW140842  14.460   6.599   9.621
46356SOL    HW240843  14.553   6.605   9.502
46357SOL     OW40844  13.427   8.364   1.516
46357SOL    HW140845  13.339   8.347   1.482
46357SOL    HW240846  13.416   8.437   1.576
46358SOL     OW40847  14.611   1.398   9.135
46358SOL    HW140848  14.538   1.343   9.106
46358SOL    HW240849  14.689   1.349   9.110
46359SOL     OW40850   6.141   2.658  14.047
46359SOL    HW140851   6.050   2.687  14.055
46359SOL    HW240852   6.148   2.584  14.109
46360SOL     OW40853   2.774   1.562   0.381
46360SOL    HW140854   2.697   1.616   0.399
46360SOL    HW240855   2.843   1.599   0.436
46361SOL     OW40856   3.105   5.111  11.159
46361SOL    HW140857   3.173   5.046  11.143
46361SOL    HW240858   3.053   5.075  11.231
46362SOL     OW40859   4.471   6.665  10.331
46362SOL    HW140860   4.485   6.647  10.238
46362SOL    HW240861   4.525   6.601  10.376
46363SOL     OW40862   0.495   5.091   9.784
46363SOL    HW140863   0.566   5.030   9.764
46363SOL    HW240864   0.416   5.038   9.783
46364SOL     OW40865   9.552   8.513   1.912
46364SOL    HW140866   9.470   8.471   1.939
46364SOL    HW240867   9.525   8.592   1.865
46365SOL     OW40868  10.600   7.725   0.047
46365SOL    HW140869  10.616   7.632   0.029
46365SOL    HW240870  10.592   7.764  14.838
46366SOL     OW40871   5.699  13.298   5.263
46366SOL    HW140872   5.654  13.369   5.309
46366SOL    HW240873   5.663  13.300   5.175
46367SOL     OW40874   3.435   7.318  13.438
46367SOL    HW140875   3.435   7.225  13.463
46367SOL    HW240876   3.344   7.336  13.413
46368SOL     OW40877  10.966   4.196   6.368
46368SOL    HW140878  10.926   4.185   6.282
46368SOL    HW240879  11.060   4.190   6.352
46369SOL     OW40880   5.277  12.214  14.104
46369SOL    HW140881   5.323  12.156  14.043
46369SOL    HW240882   5.316  12.300  14.091
46370SOL     OW40883   3.518  10.068   4.615
46370SOL    HW140884   3.564   9.993   4.577
46370SOL    HW240885   3.462  10.100   4.544
46371SOL     OW40886  13.335   5.070  11.747
46371SOL    HW140887  13.328   5.024  11.663
46371SOL    HW240888  13.265   5.135  11.744
46372SOL     OW40889  12.815   9.143   2.588
46372SOL    HW140890  12.787   9.089   2.662
46372SOL    HW240891  12.904   9.113   2.568
46373SOL     OW40892  10.254   8.333   0.968
46373SOL    HW140893  10.270   8.308   0.877
46373SOL    HW240894  10.312   8.278   1.019
46374SOL     OW40895  13.469   9.841   3.829
46374SOL    HW140896  13.403   9.910   3.832
46374SOL    HW240897  13.513   9.846   3.914
46375SOL     OW40898   8.266  13.212   2.193
46375SOL    HW140899   8.274  13.240   2.102
46375SOL    HW240900   8.191  13.260   2.227
46376SOL     OW40901   1.654  13.966   2.605
46376SOL    HW140902   1.564  13.940   2.586
46376SOL    HW240903   1.690  13.991   2.520
46377SOL     OW40904  11.573  10.514  14.764
46377SOL    HW140905  11.622  10.539  14.686
46377SOL    HW240906  11.521  10.438  14.737
46378SOL     OW40907   0.728  10.266  13.452
46378SOL    HW140908   0.634  10.279  13.466
46378SOL    HW240909   0.733  10.203  13.380
46379SOL     OW40910   5.841   8.107   1.633
46379SOL    HW140911   5.904   8.156   1.580
46379SOL    HW240912   5.764   8.163   1.637
46380SOL     OW40913   8.439   3.290  13.900
46380SOL    HW140914   8.473   3.332  13.821
46380SOL    HW240915   8.461   3.198  13.889
46381SOL     OW40916  11.039   5.394   9.325
46381SOL    HW140917  11.099   5.322   9.345
46381SOL    HW240918  10.971   5.387   9.391
46382SOL     OW40919   4.974   3.453   5.373
46382SOL    HW140920   5.055   3.472   5.420
46382SOL    HW240921   4.944   3.538   5.341
46383SOL     OW40922   3.402  14.685  12.194
46383SOL    HW140923   3.471  14.673  12.128
46383SOL    HW240924   3.322  14.659  12.149
46384SOL     OW40925   8.521   2.409  11.912
46384SOL    HW140926   8.518   2.445  11.823
46384SOL    HW240927   8.565   2.325  11.902
46385SOL     OW40928   6.257   3.808   0.638
46385SOL    HW140929   6.239   3.869   0.710
46385SOL    HW240930   6.282   3.864   0.565
46386SOL     OW40931  13.623  13.862   9.085
46386SOL    HW140932  13.532  13.831   9.081
46386SOL    HW240933  13.665  13.804   9.149
46387SOL     OW40934   1.447   9.836   4.640
46387SOL    HW140935   1.405   9.880   4.714
46387SOL    HW240936   1.489   9.759   4.679
46388SOL     OW40937  10.274   9.123   2.449
46388SOL    HW140938  10.208   9.064   2.413
46388SOL    HW240939  10.312   9.075   2.522
46389SOL     OW40940   4.305   7.714   1.715
46389SOL    HW140941   4.232   7.661   1.685
46389SOL    HW240942   4.302   7.793   1.660
46390SOL     OW40943  10.442  13.066   0.993
46390SOL    HW140944  10.447  13.158   1.020
46390SOL    HW240945  10.446  13.017   1.075
46391SOL     OW40946   0.812   9.085   6.239
46391SOL    HW140947   0.900   9.109   6.210
46391SOL    HW240948   0.780   9.163   6.285
46392SOL     OW40949  11.754  12.963   4.704
46392SOL    HW140950  11.704  12.970   4.785
46392SOL    HW240951  11.763  13.054   4.673
46393SOL     OW40952   2.382   8.302  12.622
46393SOL    HW140953   2.474   8.310  12.595
46393SOL    HW240954   2.333   8.317  12.541
46394SOL     OW40955   2.741   8.822  13.822
46394SOL    HW140956   2.779   8.900  13.862
46394SOL    HW240957   2.814   8.780  13.777
46395SOL     OW40958   9.545   9.096   6.158
46395SOL    HW140959   9.505   9.075   6.242
46395SOL    HW240960   9.552   9.191   6.157
46396SOL     OW40961  11.322  13.172  13.993
46396SOL    HW140962  11.227  13.183  13.988
46396SOL    HW240963  11.354  13.255  14.028
46397SOL     OW40964   5.282   4.611   7.884
46397SOL    HW140965   5.221   4.565   7.826
46397SOL    HW240966   5.367   4.570   7.866
46398SOL     OW40967  12.962   7.914  11.261
46398SOL    HW140968  12.883   7.890  11.212
46398SOL    HW240969  13.028   7.852  11.230
46399SOL     OW40970   5.913   9.913   6.686
46399SOL    HW140971   5.863   9.977   6.636
46399SOL    HW240972   5.929   9.956   6.770
46400SOL     OW40973   1.882   4.963   3.210
46400SOL    HW140974   1.823   5.023   3.164
46400SOL    HW240975   1.871   4.880   3.164
46401SOL     OW40976   9.043  13.022   3.155
46401SOL    HW140977   9.088  12.937   3.159
46401SOL    HW240978   8.983  13.013   3.080
46402SOL     OW40979   0.326   9.829   9.403
46402SOL    HW140980   0.317   9.851   9.310
46402SOL    HW240981   0.286   9.742   9.411
46403SOL     OW40982   6.334   8.893   7.650
46403SOL    HW140983   6.413   8.898   7.703
46403SOL    HW240984   6.324   8.799   7.632
46404SOL     OW40985   9.438   2.796   0.194
46404SOL    HW140986   9.524   2.837   0.177
46404SOL    HW240987   9.411   2.833   0.278
46405SOL     OW40988   7.322   9.585   7.483
46405SOL    HW140989   7.322   9.521   7.412
46405SOL    HW240990   7.340   9.533   7.561
46406SOL     OW40991   2.241  12.481  12.110
46406SOL    HW140992   2.231  12.394  12.149
46406SOL    HW240993   2.173  12.484  12.042
46407SOL     OW40994   6.833  11.678   9.170
46407SOL    HW140995   6.753  11.729   9.157
46407SOL    HW240996   6.860  11.653   9.082
46408SOL     OW40997  14.542   6.891   8.981
46408SOL    HW140998  14.534   6.967   9.039
46408SOL    HW240999  14.581   6.926   8.901
46409SOL     OW41000  14.698   1.629   3.057
46409SOL    HW141001  14.708   1.676   2.974
46409SOL    HW241002  14.787   1.621   3.090
46410SOL     OW41003  11.660   9.846  13.859
46410SOL    HW141004  11.572   9.811  13.869
46410SOL    HW241005  11.715   9.786  13.909
46411SOL     OW41006   1.350   3.780   3.386
46411SOL    HW141007   1.427   3.723   3.379
46411SOL    HW241008   1.308   3.754   3.467
46412SOL     OW41009   9.024  12.339  11.436
46412SOL    HW141010   8.948  12.288  11.465
46412SOL    HW241011   9.007  12.355  11.343
46413SOL     OW41012  14.650   5.569   5.660
46413SOL    HW141013  14.742   5.541   5.665
46413SOL    HW241014  14.643   5.640   5.723
46414SOL     OW41015   6.052   4.304   0.085
46414SOL    HW141016   5.957   4.307   0.095
46414SOL    HW241017   6.066   4.270  14.875
46415SOL     OW41018  12.800  11.869  12.279
46415SOL    HW141019  12.709  11.872  12.309
46415SOL    HW241020  12.831  11.782  12.306
46416SOL     OW41021   9.338   7.570   0.595
46416SOL    HW141022   9.282   7.503   0.635
46416SOL    HW241023   9.283   7.648   0.590
46417SOL     OW41024  10.019   8.899   4.121
46417SOL    HW141025  10.040   8.961   4.051
46417SOL    HW241026   9.923   8.897   4.124
46418SOL     OW41027   1.488  12.594  10.603
46418SOL    HW141028   1.522  12.519  10.554
46418SOL    HW241029   1.394  12.579  10.608
46419SOL     OW41030   4.961   2.138   5.189
46419SOL    HW141031   4.944   2.225   5.224
46419SOL    HW241032   5.054   2.139   5.166
46420SOL     OW41033   2.224   6.315   9.262
46420SOL    HW141034   2.281   6.392   9.267
46420SOL    HW241035   2.151   6.343   9.208
46421SOL     OW41036   8.508   1.484   4.661
46421SOL    HW141037   8.424   1.469   4.620
46421SOL    HW241038   8.504   1.437   4.744
46422SOL     OW41039  12.648  10.550   8.952
46422SOL    HW141040  12.627  10.484   9.018
46422SOL    HW241041  12.622  10.510   8.869
46423SOL     OW41042   0.594  10.830   0.077
46423SOL    HW141043   0.623  10.781   0.154
46423SOL    HW241044   0.673  10.871   0.043
46424SOL     OW41045   3.272   5.239  13.091
46424SOL    HW141046   3.339   5.308  13.088
46424SOL    HW241047   3.314   5.168  13.140
46425SOL     OW41048  12.609   5.596  14.162
46425SOL    HW141049  12.614   5.616  14.068
46425SOL    HW241050  12.526   5.634  14.190
46426SOL     OW41051  11.721   0.800  12.126
46426SOL    HW141052  11.746   0.767  12.039
46426SOL    HW241053  11.656   0.868  12.108
46427SOL     OW41054   3.866   2.080  11.093
46427SOL    HW141055   3.887   2.062  11.002
46427SOL    HW241056   3.805   2.154  11.090
46428SOL     OW41057  14.523   6.441  13.676
46428SOL    HW141058  14.594   6.408  13.732
46428SOL    HW241059  14.488   6.516  13.724
46429SOL     OW41060  10.629   7.796   2.557
46429SOL    HW141061  10.721   7.777   2.580
46429SOL    HW241062  10.609   7.733   2.488
46430SOL     OW41063   1.806   6.962   3.626
46430SOL    HW141064   1.847   6.984   3.709
46430SOL    HW241065   1.750   6.886   3.646
46431SOL     OW41066  14.748   8.998   1.225
46431SOL    HW141067  14.835   8.981   1.188
46431SOL    HW241068  14.722   8.915   1.263
46432SOL     OW41069  11.079  14.792   5.695
46432SOL    HW141070  11.110  14.715   5.646
46432SOL    HW241071  10.990  14.770   5.720
46433SOL     OW41072  11.033   6.153   3.945
46433SOL    HW141073  10.966   6.221   3.932
46433SOL    HW241074  11.103   6.198   3.992
46434SOL     OW41075   6.794   0.816  13.766
46434SOL    HW141076   6.784   0.795  13.673
46434SOL    HW241077   6.837   0.902  13.767
46435SOL     OW41078   8.889   6.726  13.746
46435SOL    HW141079   8.814   6.773  13.710
46435SOL    HW241080   8.854   6.640  13.771
46436SOL     OW41081  11.550   3.565   5.780
46436SOL    HW141082  11.629   3.601   5.740
46436SOL    HW241083  11.483   3.574   5.712
46437SOL     OW41084   7.218  12.314  11.223
46437SOL    HW141085   7.186  12.404  11.220
46437SOL    HW241086   7.196  12.277  11.137
46438SOL     OW41087   9.228   0.790  11.339
46438SOL    HW141088   9.211   0.882  11.319
46438SOL    HW241089   9.170   0.742  11.281
46439SOL     OW41090  14.731   5.674   3.001
46439SOL    HW141091  14.758   5.585   3.025
46439SOL    HW241092  14.668   5.699   3.069
46440SOL     OW41093   9.331   3.469   3.176
46440SOL    HW141094   9.321   3.375   3.160
46440SOL    HW241095   9.425   3.480   3.189
46441SOL     OW41096  10.923  14.455  12.693
46441SOL    HW141097  10.860  14.385  12.708
46441SOL    HW241098  10.877  14.517  12.637
46442SOL     OW41099  14.435  13.802   0.014
46442SOL    HW141100  14.390  13.885   0.002
46442SOL    HW241101  14.526  13.820  14.867
46443SOL     OW41102   7.761  12.710   3.809
46443SOL    HW141103   7.801  12.645   3.866
46443SOL    HW241104   7.796  12.794   3.839
46444SOL     OW41105   9.294   0.311   6.366
46444SOL    HW141106   9.264   0.263   6.444
46444SOL    HW241107   9.305   0.401   6.396
46445SOL     OW41108  13.225  11.286  12.101
46445SOL    HW141109  13.238  11.318  12.190
46445SOL    HW241110  13.235  11.364  12.046
46446SOL     OW41111   2.401  10.922   8.761
46446SOL    HW141112   2.483  10.942   8.806
46446SOL    HW241113   2.413  10.958   8.674
46447SOL     OW41114   2.966   8.374  11.575
46447SOL    HW141115   2.950   8.349  11.484
46447SOL    HW241116   3.061   8.386  11.580
46448SOL     OW41117   3.135   4.106   7.261
46448SOL    HW141118   3.197   4.169   7.298
46448SOL    HW241119   3.062   4.160   7.229
46449SOL     OW41120   2.843   5.303   1.704
46449SOL    HW141121   2.883   5.356   1.774
46449SOL    HW241122   2.906   5.305   1.633
46450SOL     OW41123   5.271   7.727   3.102
46450SOL    HW141124   5.312   7.809   3.132
46450SOL    HW241125   5.340   7.683   3.052
46451SOL     OW41126   5.021   4.320  10.604
46451SOL    HW141127   4.934   4.296  10.636
46451SOL    HW241128   5.076   4.244  10.624
46452SOL     OW41129   7.131  13.455   6.032
46452SOL    HW141130   7.094  13.507   6.103
46452SOL    HW241131   7.060  13.397   6.005
46453SOL     OW41132   1.027  14.397  12.797
46453SOL    HW141133   1.097  14.351  12.751
46453SOL    HW241134   1.037  14.489  12.772
46454SOL     OW41135  14.708  10.253   9.638
46454SOL    HW141136  14.800  10.255   9.614
46454SOL    HW241137  14.680  10.344   9.634
46455SOL     OW41138   4.219   2.299  12.369
46455SOL    HW141139   4.166   2.221  12.351
46455SOL    HW241140   4.272   2.275  12.445
46456SOL     OW41141   2.008   2.215   9.433
46456SOL    HW141142   2.076   2.148   9.425
46456SOL    HW241143   2.001   2.231   9.527
46457SOL     OW41144   7.595  13.292   0.681
46457SOL    HW141145   7.572  13.370   0.732
46457SOL    HW241146   7.575  13.316   0.590
46458SOL     OW41147  10.651   4.225   8.925
46458SOL    HW141148  10.715   4.255   8.990
46458SOL    HW241149  10.566   4.237   8.967
46459SOL     OW41150   2.414  10.316  10.838
46459SOL    HW141151   2.476  10.388  10.824
46459SOL    HW241152   2.463  10.251  10.888
46460SOL     OW41153   9.936  12.505  10.086
46460SOL    HW141154   9.954  12.559  10.009
46460SOL    HW241155  10.018  12.505  10.135
46461SOL     OW41156   2.320  12.336  10.009
46461SOL    HW141157   2.234  12.374  10.025
46461SOL    HW241158   2.377  12.377  10.075
46462SOL     OW41159   6.739  12.458   4.358
46462SOL    HW141160   6.815  12.515   4.345
46462SOL    HW241161   6.672  12.494   4.299
46463SOL     OW41162   8.873   1.836   9.357
46463SOL    HW141163   8.802   1.771   9.356
46463SOL    HW241164   8.919   1.818   9.439
46464SOL     OW41165   8.384  11.411   7.102
46464SOL    HW141166   8.290  11.402   7.114
46464SOL    HW241167   8.409  11.486   7.156
46465SOL     OW41168   0.259   3.749   1.397
46465SOL    HW141169   0.289   3.818   1.338
46465SOL    HW241170   0.338   3.698   1.415
46466SOL     OW41171   2.816   9.942   0.990
46466SOL    HW141172   2.833   9.962   0.898
46466SOL    HW241173   2.786  10.025   1.027
46467SOL     OW41174   0.330   6.405   7.189
46467SOL    HW141175   0.378   6.469   7.242
46467SOL    HW241176   0.264   6.457   7.143
46468SOL     OW41177  12.771  12.793   6.082
46468SOL    HW141178  12.864  12.788   6.062
46468SOL    HW241179  12.760  12.743   6.163
46469SOL     OW41180   4.008  14.116   1.764
46469SOL    HW141181   3.966  14.201   1.772
46469SOL    HW241182   4.066  14.110   1.840
46470SOL     OW41183  10.792  13.826   2.594
46470SOL    HW141184  10.748  13.909   2.609
46470SOL    HW241185  10.840  13.808   2.675
46471SOL     OW41186   5.593   2.789   5.427
46471SOL    HW141187   5.632   2.726   5.487
46471SOL    HW241188   5.665   2.817   5.370
46472SOL     OW41189  14.239  14.491   8.363
46472SOL    HW141190  14.252  14.405   8.323
46472SOL    HW241191  14.152  14.518   8.334
46473SOL     OW41192   8.227  13.243   9.985
46473SOL    HW141193   8.232  13.200   9.899
46473SOL    HW241194   8.308  13.293   9.991
46474SOL     OW41195   7.614   3.718   9.271
46474SOL    HW141196   7.585   3.803   9.306
46474SOL    HW241197   7.703   3.733   9.241
46475SOL     OW41198  10.275   6.370   0.443
46475SOL    HW141199  10.315   6.392   0.359
46475SOL    HW241200  10.325   6.295   0.475
46476SOL     OW41201  11.037   6.060   6.134
46476SOL    HW141202  11.078   6.005   6.201
46476SOL    HW241203  11.045   6.149   6.167
46477SOL     OW41204   6.528  11.039   3.308
46477SOL    HW141205   6.455  10.982   3.332
46477SOL    HW241206   6.582  10.986   3.249
46478SOL     OW41207   8.325   2.363  12.087
46478SOL    HW141208   8.394   2.398  12.032
46478SOL    HW241209   8.369   2.304  12.148
46479SOL     OW41210   9.740   1.798  12.165
46479SOL    HW141211   9.697   1.846  12.236
46479SOL    HW241212   9.735   1.857  12.089
46480SOL     OW41213   7.744  12.892   3.313
46480SOL    HW141214   7.718  12.953   3.383
46480SOL    HW241215   7.662  12.853   3.284
46481SOL     OW41216  10.517  12.568  11.660
46481SOL    HW141217  10.493  12.594  11.749
46481SOL    HW241218  10.612  12.579  11.657
46482SOL     OW41219  14.450   5.063   7.293
46482SOL    HW141220  14.532   5.083   7.338
46482SOL    HW241221  14.468   4.982   7.245
46483SOL     OW41222   1.671  12.756   1.730
46483SOL    HW141223   1.674  12.755   1.634
46483SOL    HW241224   1.706  12.842   1.753
46484SOL     OW41225   9.897  13.942   9.415
46484SOL    HW141226   9.812  13.963   9.454
46484SOL    HW241227   9.876  13.903   9.330
46485SOL     OW41228  12.247  12.840   6.681
46485SOL    HW141229  12.257  12.865   6.773
46485SOL    HW241230  12.303  12.901   6.634
46486SOL     OW41231  12.760   1.780   8.219
46486SOL    HW141232  12.751   1.811   8.129
46486SOL    HW241233  12.745   1.686   8.214
46487SOL     OW41234  12.804   9.817   1.680
46487SOL    HW141235  12.846   9.826   1.594
46487SOL    HW241236  12.733   9.881   1.678
46488SOL     OW41237  13.404   8.344   6.494
46488SOL    HW141238  13.378   8.254   6.512
46488SOL    HW241239  13.498   8.338   6.473
46489SOL     OW41240  11.736   1.254  14.535
46489SOL    HW141241  11.685   1.313  14.590
46489SOL    HW241242  11.691   1.170  14.541
46490SOL     OW41243   6.067   8.916   1.614
46490SOL    HW141244   6.014   8.926   1.693
46490SOL    HW241245   6.042   8.991   1.560
46491SOL     OW41246   5.607   5.479   2.609
46491SOL    HW141247   5.568   5.538   2.545
46491SOL    HW241248   5.548   5.483   2.684
46492SOL     OW41249   7.857  14.744  11.511
46492SOL    HW141250   7.849  14.668  11.454
46492SOL    HW241251   7.782  14.738  11.570
46493SOL     OW41252  11.879  12.335   6.614
46493SOL    HW141253  11.834  12.263   6.658
46493SOL    HW241254  11.843  12.414   6.654
46494SOL     OW41255   7.800   2.999  11.396
46494SOL    HW141256   7.839   2.914  11.414
46494SOL    HW241257   7.854   3.037  11.328
46495SOL     OW41258  12.059   9.812  11.631
46495SOL    HW141259  12.112   9.812  11.711
46495SOL    HW241260  12.064   9.721  11.599
46496SOL     OW41261   3.215   2.062   9.006
46496SOL    HW141262   3.276   2.073   8.933
46496SOL    HW241263   3.159   1.989   8.980
46497SOL     OW41264  12.716  10.619  12.678
46497SOL    HW141265  12.758  10.705  12.685
46497SOL    HW241266  12.676  10.618  12.591
46498SOL     OW41267   1.276   2.248   5.801
46498SOL    HW141268   1.257   2.262   5.708
46498SOL    HW241269   1.198   2.277   5.847
46499SOL     OW41270   7.432   4.284  11.917
46499SOL    HW141271   7.515   4.249  11.951
46499SOL    HW241272   7.389   4.208  11.876
46500SOL     OW41273   0.539   2.648   1.230
46500SOL    HW141274   0.483   2.699   1.289
46500SOL    HW241275   0.477   2.601   1.174
46501SOL     OW41276   5.597  14.451  12.264
46501SOL    HW141277   5.636  14.398  12.333
46501SOL    HW241278   5.591  14.392  12.188
46502SOL     OW41279  10.494  12.004   7.449
46502SOL    HW141280  10.409  12.012   7.405
46502SOL    HW241281  10.551  11.962   7.385
46503SOL     OW41282   4.840   1.655  10.711
46503SOL    HW141283   4.903   1.727  10.720
46503SOL    HW241284   4.804   1.666  10.622
46504SOL     OW41285   1.352  10.624   6.354
46504SOL    HW141286   1.318  10.568   6.425
46504SOL    HW241287   1.286  10.693   6.345
46505SOL     OW41288   1.217   8.425   4.288
46505SOL    HW141289   1.126   8.450   4.272
46505SOL    HW241290   1.213   8.363   4.360
46506SOL     OW41291   4.120  14.384   0.567
46506SOL    HW141292   4.212  14.408   0.557
46506SOL    HW241293   4.112  14.299   0.525
46507SOL     OW41294   0.780  13.502   4.316
46507SOL    HW141295   0.818  13.587   4.291
46507SOL    HW241296   0.785  13.501   4.412
46508SOL     OW41297  12.502   0.983   3.207
46508SOL    HW141298  12.549   0.988   3.124
46508SOL    HW241299  12.441   0.911   3.196
46509SOL     OW41300   0.851   5.699   3.593
46509SOL    HW141301   0.782   5.698   3.660
46509SOL    HW241302   0.871   5.792   3.581
46510SOL     OW41303   5.234   7.666   2.777
46510SOL    HW141304   5.288   7.587   2.777
46510SOL    HW241305   5.175   7.655   2.703
46511SOL     OW41306   7.038  12.397  14.250
46511SOL    HW141307   7.097  12.426  14.320
46511SOL    HW241308   7.065  12.446  14.173
46512SOL     OW41309  13.162   7.896   4.736
46512SOL    HW141310  13.077   7.934   4.756
46512SOL    HW241311  13.166   7.892   4.640
46513SOL     OW41312  12.593   3.465  13.527
46513SOL    HW141313  12.620   3.374  13.514
46513SOL    HW241314  12.604   3.480  13.621
46514SOL     OW41315  14.734  13.291   0.348
46514SOL    HW141316  14.821  13.254   0.360
46514SOL    HW241317  14.725  13.302   0.254
46515SOL     OW41318   3.091   9.594   0.418
46515SOL    HW141319   3.121   9.600   0.328
46515SOL    HW241320   3.160   9.545   0.463
46516SOL     OW41321  12.565   0.301   9.104
46516SOL    HW141322  12.527   0.229   9.154
46516SOL    HW241323  12.493   0.334   9.050
46517SOL     OW41324   4.110   8.950   0.566
46517SOL    HW141325   4.152   9.021   0.517
46517SOL    HW241326   4.094   8.882   0.500
46518SOL     OW41327   0.558   4.482   2.100
46518SOL    HW141328   0.517   4.417   2.157
46518SOL    HW241329   0.492   4.501   2.034
46519SOL     OW41330   1.000   1.386   2.488
46519SOL    HW141331   1.068   1.319   2.496
46519SOL    HW241332   1.046   1.463   2.455
46520SOL     OW41333   3.547   2.113   4.113
46520SOL    HW141334   3.506   2.035   4.152
46520SOL    HW241335   3.641   2.100   4.128
46521SOL     OW41336   8.612  14.300   7.437
46521SOL    HW141337   8.642  14.351   7.361
46521SOL    HW241338   8.553  14.234   7.400
46522SOL     OW41339   7.307   1.772   7.291
46522SOL    HW141340   7.389   1.724   7.289
46522SOL    HW241341   7.296   1.798   7.382
46523SOL     OW41342   1.698   2.537  10.537
46523SOL    HW141343   1.682   2.511  10.447
46523SOL    HW241344   1.793   2.552  10.541
46524SOL     OW41345   3.303   6.965   1.997
46524SOL    HW141346   3.391   6.981   2.033
46524SOL    HW241347   3.247   6.962   2.074
46525SOL     OW41348   9.906   8.155   2.815
46525SOL    HW141349   9.921   8.209   2.737
46525SOL    HW241350   9.819   8.119   2.803
46526SOL     OW41351   9.678  14.056   5.398
46526SOL    HW141352   9.764  14.093   5.380
46526SOL    HW241353   9.676  14.045   5.493
46527SOL     OW41354   9.318   9.057   0.404
46527SOL    HW141355   9.241   9.102   0.439
46527SOL    HW241356   9.340   8.992   0.471
46528SOL     OW41357   1.024   6.591   7.634
46528SOL    HW141358   1.107   6.565   7.675
46528SOL    HW241359   0.958   6.542   7.681
46529SOL     OW41360   2.195   0.178   0.103
46529SOL    HW141361   2.114   0.135   0.075
46529SOL    HW241362   2.256   0.106   0.120
46530SOL     OW41363   7.699  14.291   1.432
46530SOL    HW141364   7.611  14.328   1.423
46530SOL    HW241365   7.700  14.217   1.372
46531SOL     OW41366   0.464   6.366   3.291
46531SOL    HW141367   0.517   6.444   3.280
46531SOL    HW241368   0.419   6.378   3.375
46532SOL     OW41369   7.500   3.710  14.356
46532SOL    HW141370   7.496   3.721  14.261
46532SOL    HW241371   7.481   3.617  14.370
46533SOL     OW41372   1.001   2.835   9.237
46533SOL    HW141373   0.967   2.816   9.149
46533SOL    HW241374   0.935   2.801   9.297
46534SOL     OW41375  12.773   3.882   4.081
46534SOL    HW141376  12.855   3.894   4.130
46534SOL    HW241377  12.795   3.909   3.992
46535SOL     OW41378  13.997  10.751   6.835
46535SOL    HW141379  14.002  10.680   6.772
46535SOL    HW241380  13.904  10.758   6.857
46536SOL     OW41381   5.500  14.017  14.470
46536SOL    HW141382   5.494  13.939  14.525
46536SOL    HW241383   5.448  14.083  14.515
46537SOL     OW41384   3.114  13.164  10.618
46537SOL    HW141385   3.141  13.254  10.634
46537SOL    HW241386   3.022  13.162  10.642
46538SOL     OW41387   5.053   4.849   1.709
46538SOL    HW141388   4.992   4.883   1.643
46538SOL    HW241389   5.140   4.868   1.673
46539SOL     OW41390  11.999  13.872  10.853
46539SOL    HW141391  11.997  13.793  10.907
46539SOL    HW241392  12.072  13.923  10.889
46540SOL     OW41393  13.317   8.834   7.466
46540SOL    HW141394  13.348   8.808   7.553
46540SOL    HW241395  13.227   8.803   7.461
46541SOL     OW41396  10.220   3.463  10.278
46541SOL    HW141397  10.253   3.375  10.260
46541SOL    HW241398  10.253   3.516  10.205
46542SOL     OW41399  10.107   5.261   1.164
46542SOL    HW141400  10.153   5.180   1.141
46542SOL    HW241401  10.131   5.277   1.255
46543SOL     OW41402   3.936   7.134  14.585
46543SOL    HW141403   3.857   7.188  14.579
46543SOL    HW241404   3.951   7.104  14.495
46544SOL     OW41405   3.390  11.597  14.408
46544SOL    HW141406   3.380  11.681  14.453
46544SOL    HW241407   3.431  11.540  14.472
46545SOL     OW41408   5.747   1.660   9.339
46545SOL    HW141409   5.715   1.671   9.429
46545SOL    HW241410   5.668   1.659   9.285
46546SOL     OW41411   1.026   6.474   4.014
46546SOL    HW141412   0.960   6.534   3.979
46546SOL    HW241413   1.044   6.506   4.103
46547SOL     OW41414  14.590  11.356  12.439
46547SOL    HW141415  14.551  11.441  12.419
46547SOL    HW241416  14.657  11.374  12.505
46548SOL     OW41417   5.009  11.188  11.088
46548SOL    HW141418   5.006  11.155  10.999
46548SOL    HW241419   5.003  11.283  11.079
46549SOL     OW41420   5.351   0.782  12.517
46549SOL    HW141421   5.430   0.732  12.536
46549SOL    HW241422   5.281   0.717  12.518
46550SOL     OW41423  11.105   6.950   1.506
46550SOL    HW141424  11.177   6.905   1.463
46550SOL    HW241425  11.031   6.937   1.447
46551SOL     OW41426  13.212   2.543  14.799
46551SOL    HW141427  13.130   2.556  14.751
46551SOL    HW241428  13.187   2.490  14.875
46552SOL     OW41429   9.124  13.458  10.943
46552SOL    HW141430   9.142  13.449  11.037
46552SOL    HW241431   9.028  13.460  10.937
46553SOL     OW41432   5.139   7.419   3.560
46553SOL    HW141433   5.210   7.400   3.499
46553SOL    HW241434   5.090   7.337   3.566
46554SOL     OW41435   6.129  12.887   5.723
46554SOL    HW141436   6.185  12.957   5.756
46554SOL    HW241437   6.119  12.905   5.630
46555SOL     OW41438  11.398   0.739   0.650
46555SOL    HW141439  11.439   0.653   0.659
46555SOL    HW241440  11.305   0.721   0.659
46556SOL     OW41441  13.587   2.962   5.103
46556SOL    HW141442  13.662   2.935   5.156
46556SOL    HW241443  13.602   2.921   5.018
46557SOL     OW41444  12.113   4.319  10.605
46557SOL    HW141445  12.028   4.286  10.637
46557SOL    HW241446  12.177   4.261  10.646
46558SOL     OW41447   3.239   6.959  11.111
46558SOL    HW141448   3.198   7.004  11.037
46558SOL    HW241449   3.166   6.940  11.171
46559SOL     OW41450  11.851   1.856   5.863
46559SOL    HW141451  11.845   1.859   5.959
46559SOL    HW241452  11.764   1.828   5.835
46560SOL     OW41453  11.186   1.161   7.538
46560SOL    HW141454  11.233   1.133   7.617
46560SOL    HW241455  11.151   1.080   7.501
46561SOL     OW41456  10.111  10.507   4.921
46561SOL    HW141457  10.089  10.466   4.837
46561SOL    HW241458  10.109  10.601   4.903
46562SOL     OW41459   8.158   7.562   9.362
46562SOL    HW141460   8.154   7.589   9.270
46562SOL    HW241461   8.078   7.596   9.401
46563SOL     OW41462   0.799   8.912   3.197
46563SOL    HW141463   0.788   8.915   3.102
46563SOL    HW241464   0.709   8.911   3.232
46564SOL     OW41465   9.300   0.302   1.555
46564SOL    HW141466   9.230   0.359   1.588
46564SOL    HW241467   9.259   0.253   1.484
46565SOL     OW41468  10.134  13.482  11.522
46565SOL    HW141469  10.077  13.548  11.562
46565SOL    HW241470  10.199  13.532  11.473
46566SOL     OW41471   4.407   4.286   8.264
46566SOL    HW141472   4.326   4.330   8.292
46566SOL    HW241473   4.443   4.250   8.344
46567SOL     OW41474   7.441   2.105   8.741
46567SOL    HW141475   7.484   2.180   8.700
46567SOL    HW241476   7.381   2.143   8.805
46568SOL     OW41477  10.029   0.281   0.601
46568SOL    HW141478   9.982   0.363   0.618
46568SOL    HW241479   9.971   0.213   0.633
46569SOL     OW41480   8.995   4.480   1.211
46569SOL    HW141481   9.002   4.434   1.294
46569SOL    HW241482   9.057   4.434   1.153
46570SOL     OW41483   3.035   0.509  11.785
46570SOL    HW141484   3.041   0.432  11.727
46570SOL    HW241485   3.020   0.582  11.725
46571SOL     OW41486  12.028   4.178  12.345
46571SOL    HW141487  12.066   4.263  12.371
46571SOL    HW241488  12.048   4.120  12.419
46572SOL     OW41489   6.506   2.369  11.761
46572SOL    HW141490   6.544   2.328  11.683
46572SOL    HW241491   6.546   2.323  11.835
46573SOL     OW41492  13.341   3.271   9.400
46573SOL    HW141493  13.352   3.342   9.463
46573SOL    HW241494  13.420   3.218   9.410
46574SOL     OW41495  11.430   7.956   9.381
46574SOL    HW141496  11.493   8.023   9.407
46574SOL    HW241497  11.347   8.002   9.374
46575SOL     OW41498   5.921  10.508   0.995
46575SOL    HW141499   5.856  10.446   1.029
46575SOL    HW241500   5.995  10.452   0.968
46576SOL     OW41501  10.189   0.455   1.477
46576SOL    HW141502  10.262   0.517   1.472
46576SOL    HW241503  10.174   0.428   1.387
46577SOL     OW41504   6.326   2.839   0.912
46577SOL    HW141505   6.348   2.932   0.917
46577SOL    HW241506   6.394   2.802   0.856
46578SOL     OW41507  11.276   4.713   1.225
46578SOL    HW141508  11.202   4.765   1.255
46578SOL    HW241509  11.312   4.674   1.305
46579SOL     OW41510  11.503   1.539   0.256
46579SOL    HW141511  11.442   1.476   0.295
46579SOL    HW241512  11.586   1.523   0.301
46580SOL     OW41513  13.731   9.278   5.639
46580SOL    HW141514  13.698   9.294   5.551
46580SOL    HW241515  13.792   9.350   5.656
46581SOL     OW41516   5.406   4.346   3.840
46581SOL    HW141517   5.482   4.291   3.820
46581SOL    HW241518   5.332   4.286   3.834
46582SOL     OW41519  13.989   7.174  11.200
46582SOL    HW141520  13.929   7.231  11.248
46582SOL    HW241521  13.971   7.086  11.234
46583SOL     OW41522   5.760   2.226   8.049
46583SOL    HW141523   5.708   2.208   7.971
46583SOL    HW241524   5.819   2.151   8.057
46584SOL     OW41525   9.089  11.979   8.409
46584SOL    HW141526   9.085  11.962   8.315
46584SOL    HW241527   9.107  11.894   8.449
46585SOL     OW41528   2.138   3.437   2.464
46585SOL    HW141529   2.048   3.411   2.482
46585SOL    HW241530   2.164   3.489   2.540
46586SOL     OW41531  14.556   6.528   3.645
46586SOL    HW141532  14.470   6.567   3.656
46586SOL    HW241533  14.540   6.434   3.641
46587SOL     OW41534  13.724   1.963  13.722
46587SOL    HW141535  13.646   1.908  13.714
46587SOL    HW241536  13.708   2.017  13.799
46588SOL     OW41537   5.801   0.754  13.916
46588SOL    HW141538   5.883   0.802  13.929
46588SOL    HW241539   5.789   0.752  13.821
46589SOL     OW41540   0.548  10.429   8.083
46589SOL    HW141541   0.595  10.504   8.118
46589SOL    HW241542   0.616  10.378   8.038
46590SOL     OW41543   4.906   4.792   6.035
46590SOL    HW141544   4.903   4.773   6.128
46590SOL    HW241545   4.825   4.755   6.000
46591SOL     OW41546   9.661   4.792  13.964
46591SOL    HW141547   9.632   4.834  13.883
46591SOL    HW241548   9.745   4.752  13.941
46592SOL     OW41549   0.435  14.458   6.695
46592SOL    HW141550   0.399  14.480   6.781
46592SOL    HW241551   0.522  14.497   6.695
46593SOL     OW41552   3.574   6.405   8.602
46593SOL    HW141553   3.530   6.491   8.598
46593SOL    HW241554   3.590   6.382   8.510
46594SOL     OW41555  10.715   8.964  14.130
46594SOL    HW141556  10.660   9.012  14.068
46594SOL    HW241557  10.805   8.985  14.105
46595SOL     OW41558   2.292  10.474   6.932
46595SOL    HW141559   2.287  10.553   6.986
46595SOL    HW241560   2.325  10.407   6.992
46596SOL     OW41561   0.777  11.083   0.302
46596SOL    HW141562   0.862  11.038   0.292
46596SOL    HW241563   0.741  11.047   0.383
46597SOL     OW41564  11.627   8.277   5.769
46597SOL    HW141565  11.573   8.232   5.703
46597SOL    HW241566  11.705   8.221   5.778
46598SOL     OW41567  11.558   8.545   8.269
46598SOL    HW141568  11.513   8.467   8.302
46598SOL    HW241569  11.491   8.591   8.217
46599SOL     OW41570   8.553   4.301   3.037
46599SOL    HW141571   8.480   4.359   3.060
46599SOL    HW241572   8.606   4.296   3.116
46600SOL     OW41573  14.289  10.015   1.154
46600SOL    HW141574  14.201   9.983   1.134
46600SOL    HW241575  14.346   9.940   1.140
46601SOL     OW41576   2.535   2.697   3.622
46601SOL    HW141577   2.492   2.720   3.540
46601SOL    HW241578   2.621   2.665   3.597
46602SOL     OW41579  11.487  12.394   2.684
46602SOL    HW141580  11.408  12.359   2.725
46602SOL    HW241581  11.558  12.370   2.744
46603SOL     OW41582   1.244   3.656   8.433
46603SOL    HW141583   1.225   3.637   8.525
46603SOL    HW241584   1.186   3.598   8.384
46604SOL     OW41585   6.567   1.042   2.001
46604SOL    HW141586   6.650   1.051   2.049
46604SOL    HW241587   6.522   1.126   2.015
46605SOL     OW41588  14.097  12.486   1.799
46605SOL    HW141589  14.068  12.479   1.708
46605SOL    HW241590  14.180  12.439   1.802
46606SOL     OW41591   7.957  11.610   4.854
46606SOL    HW141592   7.900  11.643   4.924
46606SOL    HW241593   7.946  11.515   4.857
46607SOL     OW41594   3.593   8.334  13.806
46607SOL    HW141595   3.598   8.239  13.805
46607SOL    HW241596   3.588   8.357  13.899
46608SOL     OW41597   2.322  13.615   2.673
46608SOL    HW141598   2.252  13.668   2.635
46608SOL    HW241599   2.392  13.678   2.694
46609SOL     OW41600  13.973   3.720  12.114
46609SOL    HW141601  13.899   3.723  12.175
46609SOL    HW241602  14.048   3.745  12.168
46610SOL     OW41603  14.031  13.817   9.823
46610SOL    HW141604  14.007  13.786   9.735
46610SOL    HW241605  14.074  13.742   9.864
46611SOL     OW41606   4.687   7.416  10.531
46611SOL    HW141607   4.749   7.380  10.468
46611SOL    HW241608   4.603   7.418  10.484
46612SOL     OW41609   2.018  12.959   0.738
46612SOL    HW141610   1.977  12.910   0.667
46612SOL    HW241611   1.947  12.981   0.797
46613SOL     OW41612   9.338  14.250   1.030
46613SOL    HW141613   9.383  14.253   0.946
46613SOL    HW241614   9.394  14.195   1.085
46614SOL     OW41615   3.909   8.765  10.550
46614SOL    HW141616   3.961   8.755  10.470
46614SOL    HW241617   3.942   8.696  10.609
46615SOL     OW41618   3.640  13.919   5.192
46615SOL    HW141619   3.724  13.873   5.188
46615SOL    HW241620   3.655  14.000   5.143
46616SOL     OW41621   5.603   8.202   2.839
46616SOL    HW141622   5.605   8.216   2.745
46616SOL    HW241623   5.687   8.236   2.871
46617SOL     OW41624   7.068   4.336   9.615
46617SOL    HW141625   6.985   4.365   9.653
46617SOL    HW241626   7.111   4.287   9.685
46618SOL     OW41627   5.795  12.058   1.563
46618SOL    HW141628   5.712  12.022   1.531
46618SOL    HW241629   5.791  12.045   1.658
46619SOL     OW41630  14.543   9.573   9.499
46619SOL    HW141631  14.610   9.614   9.444
46619SOL    HW241632  14.562   9.479   9.495
46620SOL     OW41633   8.285   7.169   2.799
46620SOL    HW141634   8.329   7.231   2.857
46620SOL    HW241635   8.191   7.187   2.810
46621SOL     OW41636   6.449   8.046   6.790
46621SOL    HW141637   6.420   8.067   6.879
46621SOL    HW241638   6.499   7.965   6.800
46622SOL     OW41639   5.222   5.162   1.875
46622SOL    HW141640   5.287   5.230   1.894
46622SOL    HW241641   5.242   5.135   1.785
46623SOL     OW41642  13.430  14.190   7.627
46623SOL    HW141643  13.483  14.238   7.691
46623SOL    HW241644  13.439  14.240   7.546
46624SOL     OW41645  11.946  12.895  10.817
46624SOL    HW141646  11.881  12.835  10.780
46624SOL    HW241647  12.017  12.896  10.752
46625SOL     OW41648  11.294   2.700  10.597
46625SOL    HW141649  11.299   2.678  10.504
46625SOL    HW241650  11.303   2.617  10.642
46626SOL     OW41651   0.943  13.803   8.755
46626SOL    HW141652   0.978  13.716   8.734
46626SOL    HW241653   0.924  13.799   8.849
46627SOL     OW41654   9.637  10.051   7.845
46627SOL    HW141655   9.722  10.092   7.864
46627SOL    HW241656   9.593  10.048   7.930
46628SOL     OW41657   9.688  11.623   9.734
46628SOL    HW141658   9.598  11.592   9.747
46628SOL    HW241659   9.683  11.718   9.748
46629SOL     OW41660  12.280  14.793   2.606
46629SOL    HW141661  12.246  14.768   2.521
46629SOL    HW241662  12.202  14.821   2.655
46630SOL     OW41663   9.534  14.736   5.760
46630SOL    HW141664   9.557  14.650   5.795
46630SOL    HW241665   9.593  14.748   5.686
46631SOL     OW41666  14.440  12.563   1.813
46631SOL    HW141667  14.480  12.570   1.900
46631SOL    HW241668  14.404  12.475   1.811
46632SOL     OW41669   2.847   0.387   0.097
46632SOL    HW141670   2.799   0.428   0.026
46632SOL    HW241671   2.805   0.302   0.109
46633SOL     OW41672   7.063   6.107  10.683
46633SOL    HW141673   7.017   6.024  10.698
46633SOL    HW241674   7.082   6.141  10.770
46634SOL     OW41675   1.245   6.467   7.733
46634SOL    HW141676   1.261   6.505   7.819
46634SOL    HW241677   1.298   6.388   7.731
46635SOL     OW41678   4.871   5.419   0.565
46635SOL    HW141679   4.929   5.405   0.490
46635SOL    HW241680   4.929   5.424   0.641
46636SOL     OW41681  13.819   7.676   8.550
46636SOL    HW141682  13.864   7.756   8.524
46636SOL    HW241683  13.732   7.685   8.512
46637SOL     OW41684   7.842   8.527   6.881
46637SOL    HW141685   7.883   8.600   6.835
46637SOL    HW241686   7.911   8.461   6.888
46638SOL     OW41687  10.336   8.726   7.560
46638SOL    HW141688  10.307   8.766   7.478
46638SOL    HW241689  10.415   8.676   7.536
46639SOL     OW41690   5.166   4.591   0.567
46639SOL    HW141691   5.072   4.589   0.582
46639SOL    HW241692   5.183   4.517   0.509
46640SOL     OW41693   2.898  14.760   1.703
46640SOL    HW141694   2.812  14.776   1.740
46640SOL    HW241695   2.883  14.753   1.609
46641SOL     OW41696  11.035  10.677   1.300
46641SOL    HW141697  10.962  10.632   1.343
46641SOL    HW241698  11.021  10.662   1.207
46642SOL     OW41699   5.637   2.937  14.023
46642SOL    HW141700   5.583   3.007  13.988
46642SOL    HW241701   5.611   2.931  14.115
46643SOL     OW41702   0.149   9.425  11.860
46643SOL    HW141703   0.133   9.351  11.919
46643SOL    HW241704   0.063   9.466  11.850
46644SOL     OW41705   7.889   6.278   9.987
46644SOL    HW141706   7.823   6.225   9.942
46644SOL    HW241707   7.926   6.334   9.919
46645SOL     OW41708   4.091  10.528   6.298
46645SOL    HW141709   3.998  10.513   6.280
46645SOL    HW241710   4.123  10.577   6.222
46646SOL     OW41711  14.649   7.659   8.878
46646SOL    HW141712  14.619   7.716   8.949
46646SOL    HW241713  14.717   7.709   8.834
46647SOL     OW41714   5.719  11.731   1.807
46647SOL    HW141715   5.632  11.766   1.790
46647SOL    HW241716   5.723  11.650   1.756
46648SOL     OW41717   7.175   4.206   8.972
46648SOL    HW141718   7.148   4.138   8.910
46648SOL    HW241719   7.112   4.199   9.044
46649SOL     OW41720   3.973   1.028  11.038
46649SOL    HW141721   4.007   1.033  10.949
46649SOL    HW241722   3.942   1.116  11.057
46650SOL     OW41723  13.249   2.634   9.477
46650SOL    HW141724  13.254   2.554   9.530
46650SOL    HW241725  13.171   2.680   9.510
46651SOL     OW41726  12.651  12.448   8.805
46651SOL    HW141727  12.585  12.494   8.856
46651SOL    HW241728  12.657  12.498   8.723
46652SOL     OW41729   4.314   4.941  12.824
46652SOL    HW141730   4.328   5.036  12.820
46652SOL    HW241731   4.220   4.930  12.808
46653SOL     OW41732  12.820  14.628  12.373
46653SOL    HW141733  12.848  14.537  12.364
46653SOL    HW241734  12.741  14.624  12.426
46654SOL     OW41735   8.180   5.307  14.670
46654SOL    HW141736   8.085   5.298  14.666
46654SOL    HW241737   8.212   5.268  14.589
46655SOL     OW41738  11.179   0.521  12.293
46655SOL    HW141739  11.190   0.566  12.376
46655SOL    HW241740  11.127   0.443  12.314
46656SOL     OW41741  13.283   9.582   2.159
46656SOL    HW141742  13.339   9.654   2.130
46656SOL    HW241743  13.343   9.515   2.192
46657SOL     OW41744  14.061   7.378  13.227
46657SOL    HW141745  14.120   7.378  13.302
46657SOL    HW241746  13.997   7.445  13.248
46658SOL     OW41747   8.045   7.072   8.412
46658SOL    HW141748   8.070   7.004   8.349
46658SOL    HW241749   8.077   7.040   8.496
46659SOL     OW41750   2.334   4.922   3.540
46659SOL    HW141751   2.271   4.893   3.473
46659SOL    HW241752   2.363   4.841   3.582
46660SOL     OW41753   6.953   2.920  12.260
46660SOL    HW141754   7.047   2.916  12.274
46660SOL    HW241755   6.921   2.979  12.329
46661SOL     OW41756   8.698   4.842   5.049
46661SOL    HW141757   8.676   4.749   5.058
46661SOL    HW241758   8.727   4.850   4.958
46662SOL     OW41759  10.164   3.962   5.836
46662SOL    HW141760  10.205   4.033   5.787
46662SOL    HW241761  10.184   3.883   5.786
46663SOL     OW41762   1.963   2.624   4.646
46663SOL    HW141763   1.963   2.540   4.601
46663SOL    HW241764   1.892   2.617   4.710
46664SOL     OW41765   5.407   6.987   5.148
46664SOL    HW141766   5.320   6.978   5.186
46664SOL    HW241767   5.466   6.955   5.216
46665SOL     OW41768  10.639   6.818  12.444
46665SOL    HW141769  10.692   6.871  12.504
46665SOL    HW241770  10.633   6.733  12.486
46666SOL     OW41771   2.675  11.784   4.991
46666SOL    HW141772   2.605  11.827   4.943
46666SOL    HW241773   2.656  11.690   4.982
46667SOL     OW41774  10.401   4.147  11.633
46667SOL    HW141775  10.425   4.205  11.706
46667SOL    HW241776  10.318   4.108  11.659
46668SOL     OW41777  13.683  13.423   7.391
46668SOL    HW141778  13.735  13.372   7.454
46668SOL    HW241779  13.595  13.387   7.398
46669SOL     OW41780  11.759  13.801   6.497
46669SOL    HW141781  11.784  13.800   6.405
46669SOL    HW241782  11.842  13.790   6.544
46670SOL     OW41783   8.290   1.665   6.300
46670SOL    HW141784   8.273   1.575   6.274
46670SOL    HW241785   8.237   1.678   6.379
46671SOL     OW41786  11.377   3.744   0.021
46671SOL    HW141787  11.428   3.684  14.844
46671SOL    HW241788  11.295   3.755  14.851
46672SOL     OW41789   3.586   8.496   4.880
46672SOL    HW141790   3.618   8.409   4.904
46672SOL    HW241791   3.647   8.527   4.813
46673SOL     OW41792   5.216   9.535  13.390
46673SOL    HW141793   5.212   9.468  13.322
46673SOL    HW241794   5.292   9.589  13.367
46674SOL     OW41795   5.610   9.097   1.208
46674SOL    HW141796   5.616   9.184   1.168
46674SOL    HW241797   5.582   9.039   1.137
46675SOL     OW41798  13.384  12.717   1.856
46675SOL    HW141799  13.401  12.759   1.772
46675SOL    HW241800  13.449  12.754   1.915
46676SOL     OW41801   0.942   8.558   5.078
46676SOL    HW141802   0.859   8.544   5.124
46676SOL    HW241803   0.917   8.587   4.990
46677SOL     OW41804  11.854   9.919   7.662
46677SOL    HW141805  11.786   9.940   7.727
46677SOL    HW241806  11.805   9.895   7.584
46678SOL     OW41807   2.753  10.075  13.698
46678SOL    HW141808   2.815  10.032  13.639
46678SOL    HW241809   2.791  10.064  13.785
46679SOL     OW41810  12.717  12.346   3.665
46679SOL    HW141811  12.648  12.391   3.616
46679SOL    HW241812  12.795  12.399   3.651
46680SOL     OW41813  14.556  11.549  11.848
46680SOL    HW141814  14.613  11.625  11.859
46680SOL    HW241815  14.519  11.560  11.760
46681SOL     OW41816   1.087  11.853   4.582
46681SOL    HW141817   1.146  11.791   4.539
46681SOL    HW241818   1.019  11.798   4.620
46682SOL     OW41819   8.818  10.094   5.547
46682SOL    HW141820   8.835  10.009   5.587
46682SOL    HW241821   8.752  10.076   5.480
46683SOL     OW41822  13.577   9.383   3.222
46683SOL    HW141823  13.609   9.330   3.295
46683SOL    HW241824  13.630   9.462   3.224
46684SOL     OW41825   1.541  14.637   0.437
46684SOL    HW141826   1.607  14.614   0.502
46684SOL    HW241827   1.481  14.696   0.483
46685SOL     OW41828   6.679   2.725   7.872
46685SOL    HW141829   6.760   2.755   7.916
46685SOL    HW241830   6.661   2.793   7.807
46686SOL     OW41831   9.538  12.581   2.261
46686SOL    HW141832   9.505  12.624   2.183
46686SOL    HW241833   9.495  12.495   2.261
46687SOL     OW41834  14.488   0.559   3.691
46687SOL    HW141835  14.402   0.527   3.718
46687SOL    HW241836  14.529   0.484   3.648
46688SOL     OW41837   9.191  11.317   3.723
46688SOL    HW141838   9.191  11.409   3.695
46688SOL    HW241839   9.164  11.268   3.645
46689SOL     OW41840   7.670   5.513   6.009
46689SOL    HW141841   7.755   5.551   5.988
46689SOL    HW241842   7.671   5.503   6.104
46690SOL     OW41843   6.751   7.371   1.733
46690SOL    HW141844   6.761   7.397   1.641
46690SOL    HW241845   6.838   7.341   1.759
46691SOL     OW41846  13.222   9.821  12.410
46691SOL    HW141847  13.201   9.864  12.327
46691SOL    HW241848  13.235   9.729  12.387
46692SOL     OW41849   5.607  12.648   0.137
46692SOL    HW141850   5.516  12.644   0.108
46692SOL    HW241851   5.603  12.632   0.231
46693SOL     OW41852  14.398   6.698  12.207
46693SOL    HW141853  14.364   6.762  12.269
46693SOL    HW241854  14.328   6.633  12.199
46694SOL     OW41855  11.668  10.368  14.507
46694SOL    HW141856  11.623  10.327  14.433
46694SOL    HW241857  11.705  10.449  14.470
46695SOL     OW41858   5.125   1.001  14.691
46695SOL    HW141859   5.162   1.002  14.779
46695SOL    HW241860   5.176   1.065  14.642
46696SOL     OW41861   5.986   9.497  13.701
46696SOL    HW141862   6.002   9.436  13.772
46696SOL    HW241863   6.068   9.546  13.693
46697SOL     OW41864   9.348   4.198   5.957
46697SOL    HW141865   9.414   4.143   5.999
46697SOL    HW241866   9.378   4.287   5.972
46698SOL     OW41867   0.038   2.812   3.804
46698SOL    HW141868  14.826   2.785   3.819
46698SOL    HW241869   0.049   2.807   3.709
46699SOL     OW41870   8.285   0.209   3.158
46699SOL    HW141871   8.200   0.173   3.131
46699SOL    HW241872   8.319   0.144   3.219
46700SOL     OW41873   2.945  13.664   3.783
46700SOL    HW141874   3.024  13.714   3.761
46700SOL    HW241875   2.973  13.572   3.778
46701SOL     OW41876  14.715  10.212  14.777
46701SOL    HW141877  14.680  10.277  14.716
46701SOL    HW241878  14.759  10.264  14.844
46702SOL     OW41879   2.982  12.483   1.120
46702SOL    HW141880   3.008  12.458   1.031
46702SOL    HW241881   2.949  12.402   1.159
46703SOL     OW41882  13.962   2.560   7.877
46703SOL    HW141883  14.044   2.510   7.880
46703SOL    HW241884  13.987   2.648   7.905
46704SOL     OW41885   2.523   1.004   7.376
46704SOL    HW141886   2.549   0.931   7.320
46704SOL    HW241887   2.538   1.082   7.323
46705SOL     OW41888   4.087   5.865   1.064
46705SOL    HW141889   4.135   5.795   1.019
46705SOL    HW241890   4.100   5.942   1.008
46706SOL     OW41891  12.708  11.816   8.840
46706SOL    HW141892  12.615  11.809   8.864
46706SOL    HW241893  12.713  11.896   8.788
46707SOL     OW41894  11.362   7.386  13.717
46707SOL    HW141895  11.455   7.369  13.726
46707SOL    HW241896  11.323   7.352  13.798
46708SOL     OW41897   1.866  10.700   9.868
46708SOL    HW141898   1.807  10.630   9.840
46708SOL    HW241899   1.810  10.763   9.913
46709SOL     OW41900   6.364   1.688   6.764
46709SOL    HW141901   6.294   1.699   6.828
46709SOL    HW241902   6.338   1.741   6.689
46710SOL     OW41903  10.951   1.256   2.768
46710SOL    HW141904  10.919   1.176   2.728
46710SOL    HW241905  10.912   1.256   2.856
46711SOL     OW41906   6.149   7.572  12.506
46711SOL    HW141907   6.090   7.507  12.468
46711SOL    HW241908   6.114   7.587  12.594
46712SOL     OW41909  12.880  11.153   2.700
46712SOL    HW141910  12.940  11.225   2.720
46712SOL    HW241911  12.937  11.078   2.683
46713SOL     OW41912   8.231   6.215  13.404
46713SOL    HW141913   8.192   6.296  13.439
46713SOL    HW241914   8.286   6.182  13.475
46714SOL     OW41915  13.861  12.465   0.073
46714SOL    HW141916  13.794  12.521   0.113
46714SOL    HW241917  13.817  12.380   0.061
46715SOL     OW41918   3.121   5.229   9.645
46715SOL    HW141919   3.071   5.243   9.725
46715SOL    HW241920   3.190   5.295   9.648
46716SOL     OW41921   2.883  13.763  11.246
46716SOL    HW141922   2.809  13.779  11.188
46716SOL    HW241923   2.903  13.848  11.284
46717SOL     OW41924  14.203  13.976   6.863
46717SOL    HW141925  14.196  14.048   6.925
46717SOL    HW241926  14.263  14.008   6.795
46718SOL     OW41927   2.661   7.662   9.562
46718SOL    HW141928   2.605   7.613   9.502
46718SOL    HW241929   2.712   7.594   9.607
46719SOL     OW41930   2.363   9.783  14.854
46719SOL    HW141931   2.333   9.865   0.017
46719SOL    HW241932   2.369   9.804  14.761
46720SOL     OW41933   8.653  12.275   8.954
46720SOL    HW141934   8.692  12.212   8.893
46720SOL    HW241935   8.598  12.330   8.898
46721SOL     OW41936  12.612   1.601  10.176
46721SOL    HW141937  12.623   1.564  10.088
46721SOL    HW241938  12.598   1.695  10.161
46722SOL     OW41939   2.225  13.034   1.105
46722SOL    HW141940   2.279  12.975   1.053
46722SOL    HW241941   2.204  13.106   1.046
46723SOL     OW41942   5.036  11.616  10.840
46723SOL    HW141943   5.090  11.613  10.760
46723SOL    HW241944   5.053  11.702  10.877
46724SOL     OW41945  13.584  13.302  11.617
46724SOL    HW141946  13.595  13.245  11.540
46724SOL    HW241947  13.490  13.319  11.620
46725SOL     OW41948   1.060   5.993   6.301
46725SOL    HW141949   1.018   5.934   6.239
46725SOL    HW241950   1.143   5.952   6.323
46726SOL     OW41951   1.994   9.522  12.235
46726SOL    HW141952   2.034   9.505  12.150
46726SOL    HW241953   2.035   9.459  12.294
46727SOL     OW41954   2.953  13.618   6.205
46727SOL    HW141955   2.937  13.525   6.222
46727SOL    HW241956   2.941  13.660   6.291
46728SOL     OW41957   9.050   1.266  11.368
46728SOL    HW141958   8.961   1.242  11.394
46728SOL    HW241959   9.081   1.323  11.438
46729SOL     OW41960   8.950   0.593   4.540
46729SOL    HW141961   8.890   0.665   4.523
46729SOL    HW241962   9.008   0.590   4.464
46730SOL     OW41963   6.592  11.169   2.156
46730SOL    HW141964   6.593  11.104   2.226
46730SOL    HW241965   6.655  11.136   2.092
46731SOL     OW41966   6.215   0.712  10.692
46731SOL    HW141967   6.242   0.626  10.722
46731SOL    HW241968   6.295   0.765  10.696
46732SOL     OW41969   4.747   0.724   9.442
46732SOL    HW141970   4.720   0.815   9.455
46732SOL    HW241971   4.787   0.698   9.525
46733SOL     OW41972   8.825  11.336   9.153
46733SOL    HW141973   8.804  11.423   9.119
46733SOL    HW241974   8.919  11.339   9.169
46734SOL     OW41975   7.353   4.431   3.718
46734SOL    HW141976   7.376   4.490   3.790
46734SOL    HW241977   7.300   4.485   3.659
46735SOL     OW41978   7.676   4.836  11.434
46735SOL    HW141979   7.648   4.896  11.364
46735SOL    HW241980   7.758   4.874  11.466
46736SOL     OW41981   8.411   9.501  12.072
46736SOL    HW141982   8.331   9.505  12.020
46736SOL    HW241983   8.407   9.416  12.116
46737SOL     OW41984   4.955   7.133   0.083
46737SOL    HW141985   4.911   7.209   0.045
46737SOL    HW241986   4.925   7.059   0.030
46738SOL     OW41987   3.599  14.823   7.777
46738SOL    HW141988   3.559   0.030   7.759
46738SOL    HW241989   3.525  14.767   7.804
46739SOL     OW41990   8.629   7.639  11.893
46739SOL    HW141991   8.719   7.658  11.868
46739SOL    HW241992   8.580   7.716  11.863
46740SOL     OW41993  14.038   1.704   7.076
46740SOL    HW141994  13.987   1.760   7.018
46740SOL    HW241995  14.063   1.629   7.021
46741SOL     OW41996   0.721   3.977  10.350
46741SOL    HW141997   0.659   3.913  10.314
46741SOL    HW241998   0.799   3.968  10.296
46742SOL     OW41999   2.840   0.400  13.121
46742SOL    HW142000   2.900   0.361  13.184
46742SOL    HW242001   2.896   0.454  13.065
46743SOL     OW42002   7.024  13.974  12.203
46743SOL    HW142003   7.019  13.887  12.242
46743SOL    HW242004   6.958  14.025  12.250
46744SOL     OW42005   5.236   3.221   2.488
46744SOL    HW142006   5.267   3.183   2.571
46744SOL    HW242007   5.312   3.216   2.430
46745SOL     OW42008   5.078   0.350  10.097
46745SOL    HW142009   5.015   0.397  10.043
46745SOL    HW242010   5.147   0.414  10.115
46746SOL     OW42011   2.979   2.480  12.007
46746SOL    HW142012   2.992   2.573  12.022
46746SOL    HW242013   3.054   2.438  12.051
46747SOL     OW42014  14.318  11.522   7.145
46747SOL    HW142015  14.283  11.500   7.231
46747SOL    HW242016  14.338  11.616   7.150
46748SOL     OW42017   9.175  12.112   7.415
46748SOL    HW142018   9.080  12.115   7.419
46748SOL    HW242019   9.196  12.019   7.408
46749SOL     OW42020   6.950   5.770  12.030
46749SOL    HW142021   6.933   5.684  11.993
46749SOL    HW242022   6.958   5.827  11.954
46750SOL     OW42023   7.430   2.012  10.956
46750SOL    HW142024   7.520   2.042  10.947
46750SOL    HW242025   7.421   1.943  10.890
46751SOL     OW42026   0.544   5.325   4.902
46751SOL    HW142027   0.588   5.252   4.857
46751SOL    HW242028   0.451   5.306   4.893
46752SOL     OW42029   5.350   4.710  11.330
46752SOL    HW142030   5.353   4.644  11.400
46752SOL    HW242031   5.355   4.659  11.250
46753SOL     OW42032   7.824   1.380   2.476
46753SOL    HW142033   7.891   1.415   2.418
46753SOL    HW242034   7.814   1.289   2.450
46754SOL     OW42035   7.490   9.571  11.569
46754SOL    HW142036   7.428   9.631  11.527
46754SOL    HW242037   7.576   9.603  11.541
46755SOL     OW42038   3.128  13.123  12.627
46755SOL    HW142039   3.124  13.196  12.689
46755SOL    HW242040   3.148  13.047  12.682
46756SOL     OW42041   4.108   5.998   1.557
46756SOL    HW142042   4.198   6.025   1.571
46756SOL    HW242043   4.102   5.978   1.464
46757SOL     OW42044   9.827  12.373   9.773
46757SOL    HW142045   9.884  12.446   9.752
46757SOL    HW242046   9.792  12.344   9.689
46758SOL     OW42047   2.254  10.748   9.451
46758SOL    HW142048   2.296  10.688   9.389
46758SOL    HW242049   2.181  10.698   9.487
46759SOL     OW42050   6.889   2.498   2.840
46759SOL    HW142051   6.945   2.463   2.909
46759SOL    HW242052   6.875   2.425   2.781
46760SOL     OW42053   9.025   2.492   6.428
46760SOL    HW142054   9.037   2.507   6.522
46760SOL    HW242055   8.947   2.437   6.422
46761SOL     OW42056   2.279   5.688   6.592
46761SOL    HW142057   2.256   5.697   6.500
46761SOL    HW242058   2.268   5.595   6.611
46762SOL     OW42059   2.977   5.558   5.459
46762SOL    HW142060   2.917   5.506   5.406
46762SOL    HW242061   2.922   5.600   5.524
46763SOL     OW42062   7.422   7.980   0.913
46763SOL    HW142063   7.464   7.947   0.834
46763SOL    HW242064   7.429   7.909   0.976
46764SOL     OW42065  10.182  10.962   2.781
46764SOL    HW142066  10.135  10.971   2.698
46764SOL    HW242067  10.118  10.928   2.842
46765SOL     OW42068  13.846   3.482   7.449
46765SOL    HW142069  13.840   3.451   7.540
46765SOL    HW242070  13.915   3.428   7.410
46766SOL     OW42071   9.962  14.574   2.993
46766SOL    HW142072   9.932  14.616   3.074
46766SOL    HW242073  10.005  14.645   2.944
46767SOL     OW42074  12.006  14.085   0.519
46767SOL    HW142075  12.020  14.020   0.451
46767SOL    HW242076  12.041  14.166   0.482
46768SOL     OW42077  10.075  10.496   7.412
46768SOL    HW142078   9.981  10.477   7.409
46768SOL    HW242079  10.117  10.410   7.403
46769SOL     OW42080  13.966   0.416   2.901
46769SOL    HW142081  14.036   0.368   2.857
46769SOL    HW242082  13.961   0.376   2.988
46770SOL     OW42083  13.762   0.026  13.232
46770SOL    HW142084  13.814  14.829  13.204
46770SOL    HW242085  13.672  14.872  13.233
46771SOL     OW42086   5.032  11.857  14.636
46771SOL    HW142087   5.085  11.877  14.560
46771SOL    HW242088   4.967  11.794  14.604
46772SOL     OW42089   2.830   2.843  14.543
46772SOL    HW142090   2.762   2.867  14.480
46772SOL    HW242091   2.816   2.749  14.557
46773SOL     OW42092  10.537  12.841   2.949
46773SOL    HW142093  10.541  12.935   2.968
46773SOL    HW242094  10.564  12.834   2.857
46774SOL     OW42095   5.502   8.901   1.842
46774SOL    HW142096   5.511   8.946   1.758
46774SOL    HW242097   5.553   8.954   1.904
46775SOL     OW42098   6.709  10.405   8.329
46775SOL    HW142099   6.787  10.397   8.383
46775SOL    HW242100   6.722  10.340   8.259
46776SOL     OW42101   1.020   7.054   6.759
46776SOL    HW142102   1.027   6.973   6.710
46776SOL    HW242103   0.926   7.075   6.758
46777SOL     OW42104  10.891   7.892   2.122
46777SOL    HW142105  10.818   7.933   2.169
46777SOL    HW242106  10.918   7.958   2.058
46778SOL     OW42107  11.221  12.808   6.278
46778SOL    HW142108  11.242  12.781   6.367
46778SOL    HW242109  11.127  12.790   6.269
46779SOL     OW42110  13.365   3.197   2.826
46779SOL    HW142111  13.423   3.128   2.796
46779SOL    HW242112  13.405   3.229   2.907
46780SOL     OW42113   3.934  13.458   0.394
46780SOL    HW142114   3.893  13.542   0.417
46780SOL    HW242115   4.026  13.479   0.381
46781SOL     OW42116   5.963   1.865   6.665
46781SOL    HW142117   6.051   1.831   6.650
46781SOL    HW242118   5.909   1.823   6.598
46782SOL     OW42119   6.696  11.373   4.407
46782SOL    HW142120   6.726  11.397   4.495
46782SOL    HW242121   6.734  11.287   4.392
46783SOL     OW42122   9.308  11.491   4.259
46783SOL    HW142123   9.374  11.521   4.322
46783SOL    HW242124   9.347  11.511   4.173
46784SOL     OW42125   0.705   5.859   8.404
46784SOL    HW142126   0.770   5.916   8.363
46784SOL    HW242127   0.683   5.904   8.486
46785SOL     OW42128  11.721   8.786   1.020
46785SOL    HW142129  11.726   8.876   0.988
46785SOL    HW242130  11.629   8.774   1.042
46786SOL     OW42131  12.171   6.477   9.698
46786SOL    HW142132  12.186   6.387   9.668
46786SOL    HW242133  12.085   6.500   9.661
46787SOL     OW42134  13.684   2.615   3.132
46787SOL    HW142135  13.655   2.525   3.113
46787SOL    HW242136  13.619   2.649   3.192
46788SOL     OW42137   2.756   4.620   1.561
46788SOL    HW142138   2.785   4.632   1.652
46788SOL    HW242139   2.682   4.680   1.552
46789SOL     OW42140   6.674  11.934  11.186
46789SOL    HW142141   6.718  11.910  11.267
46789SOL    HW242142   6.700  11.866  11.123
46790SOL     OW42143  12.560  13.585  10.713
46790SOL    HW142144  12.549  13.624  10.799
46790SOL    HW242145  12.602  13.653  10.660
46791SOL     OW42146   1.913   4.798   1.379
46791SOL    HW142147   1.964   4.777   1.458
46791SOL    HW242148   1.975   4.785   1.307
46792SOL     OW42149   7.760   6.886   3.839
46792SOL    HW142150   7.820   6.937   3.786
46792SOL    HW242151   7.811   6.811   3.869
46793SOL     OW42152   1.138  14.621   3.722
46793SOL    HW142153   1.226  14.614   3.685
46793SOL    HW242154   1.144  14.692   3.786
46794SOL     OW42155  13.219   9.062   7.680
46794SOL    HW142156  13.170   9.075   7.599
46794SOL    HW242157  13.306   9.098   7.661
46795SOL     OW42158  11.163   9.954   8.795
46795SOL    HW142159  11.108  10.030   8.815
46795SOL    HW242160  11.229   9.986   8.734
46796SOL     OW42161   0.604  10.453  11.347
46796SOL    HW142162   0.694  10.420  11.354
46796SOL    HW242163   0.588  10.499  11.429
46797SOL     OW42164  10.409   6.080  10.440
46797SOL    HW142165  10.389   6.161  10.487
46797SOL    HW242166  10.324   6.038  10.427
46798SOL     OW42167   8.126   3.043  14.675
46798SOL    HW142168   8.149   2.957  14.641
46798SOL    HW242169   8.031   3.049  14.664
46799SOL     OW42170  11.063   3.467   3.180
46799SOL    HW142171  11.052   3.521   3.258
46799SOL    HW242172  11.129   3.513   3.128
46800SOL     OW42173   0.690   4.891   3.250
46800SOL    HW142174   0.639   4.810   3.248
46800SOL    HW242175   0.777   4.865   3.222
46801SOL     OW42176   9.052   2.526  12.190
46801SOL    HW142177   8.957   2.525  12.194
46801SOL    HW242178   9.074   2.479  12.109
46802SOL     OW42179  13.529   0.188   8.614
46802SOL    HW142180  13.435   0.177   8.597
46802SOL    HW242181  13.570   0.113   8.571
46803SOL     OW42182   3.591   2.699   0.116
46803SOL    HW142183   3.606   2.785   0.156
46803SOL    HW242184   3.562   2.719   0.027
46804SOL     OW42185   6.100   1.061  10.862
46804SOL    HW142186   6.132   1.050  10.951
46804SOL    HW242187   6.023   1.003  10.857
46805SOL     OW42188  10.661   6.914   8.238
46805SOL    HW142189  10.690   6.878   8.154
46805SOL    HW242190  10.565   6.904   8.236
46806SOL     OW42191  11.500   2.207   0.412
46806SOL    HW142192  11.445   2.233   0.338
46806SOL    HW242193  11.468   2.120   0.437
46807SOL     OW42194   2.846   1.422  12.637
46807SOL    HW142195   2.766   1.443  12.589
46807SOL    HW242196   2.913   1.414  12.569
46808SOL     OW42197   8.268   7.763   5.244
46808SOL    HW142198   8.349   7.717   5.265
46808SOL    HW242199   8.293   7.855   5.236
46809SOL     OW42200   0.778  14.147   2.437
46809SOL    HW142201   0.871  14.168   2.430
46809SOL    HW242202   0.746  14.204   2.506
46810SOL     OW42203   0.691  14.281  14.844
46810SOL    HW142204   0.684  14.200  14.793
46810SOL    HW242205   0.785  14.292  14.860
46811SOL     OW42206   7.856  11.749   9.850
46811SOL    HW142207   7.842  11.694   9.774
46811SOL    HW242208   7.952  11.756   9.857
46812SOL     OW42209   2.832   2.229   6.540
46812SOL    HW142210   2.802   2.175   6.467
46812SOL    HW242211   2.775   2.306   6.539
46813SOL     OW42212   3.918  11.925   7.254
46813SOL    HW142213   4.009  11.902   7.239
46813SOL    HW242214   3.873  11.905   7.172
46814SOL     OW42215   4.221   4.770  14.147
46814SOL    HW142216   4.222   4.755  14.241
46814SOL    HW242217   4.140   4.727  14.117
46815SOL     OW42218   4.576  13.350   5.661
46815SOL    HW142219   4.604  13.419   5.601
46815SOL    HW242220   4.657  13.321   5.703
46816SOL     OW42221   2.505   9.801   7.903
46816SOL    HW142222   2.491   9.895   7.898
46816SOL    HW242223   2.451   9.773   7.977
46817SOL     OW42224   0.616  12.708   8.773
46817SOL    HW142225   0.687  12.720   8.837
46817SOL    HW242226   0.586  12.797   8.755
46818SOL     OW42227  12.951  11.813   0.447
46818SOL    HW142228  12.994  11.866   0.380
46818SOL    HW242229  12.872  11.862   0.469
46819SOL     OW42230   3.489  10.679  10.598
46819SOL    HW142231   3.534  10.762  10.583
46819SOL    HW242232   3.560  10.615  10.604
46820SOL     OW42233   1.556  11.793   6.324
46820SOL    HW142234   1.585  11.843   6.248
46820SOL    HW242235   1.595  11.838   6.399
46821SOL     OW42236  14.702   2.207   3.606
46821SOL    HW142237  14.716   2.268   3.534
46821SOL    HW242238  14.779   2.150   3.605
46822SOL     OW42239   5.263   1.600   7.218
46822SOL    HW142240   5.229   1.586   7.306
46822SOL    HW242241   5.198   1.559   7.161
46823SOL     OW42242   6.718   8.101   3.910
46823SOL    HW142243   6.782   8.108   3.840
46823SOL    HW242244   6.770   8.095   3.990
46824SOL     OW42245  14.656   5.100  14.292
46824SOL    HW142246  14.623   5.103  14.382
46824SOL    HW242247  14.748   5.077  14.301
46825SOL     OW42248   5.084  10.153   2.646
46825SOL    HW142249   4.990  10.166   2.635
46825SOL    HW242250   5.121  10.241   2.650
46826SOL     OW42251   9.220   9.265   1.225
46826SOL    HW142252   9.179   9.335   1.275
46826SOL    HW242253   9.248   9.307   1.143
46827SOL     OW42254   4.159  10.876   8.106
46827SOL    HW142255   4.147  10.870   8.201
46827SOL    HW242256   4.253  10.865   8.093
46828SOL     OW42257  10.537   9.469  10.169
46828SOL    HW142258  10.617   9.462  10.220
46828SOL    HW242259  10.509   9.379  10.153
46829SOL     OW42260  11.040  10.048   1.988
46829SOL    HW142261  11.024   9.971   1.934
46829SOL    HW242262  11.112  10.094   1.943
46830SOL     OW42263   5.544  10.099   0.193
46830SOL    HW142264   5.487  10.125   0.266
46830SOL    HW242265   5.629  10.138   0.216
46831SOL     OW42266   8.766   0.766   5.276
46831SOL    HW142267   8.727   0.696   5.224
46831SOL    HW242268   8.737   0.847   5.233
46832SOL     OW42269   0.859   9.643   6.928
46832SOL    HW142270   0.937   9.695   6.907
46832SOL    HW242271   0.804   9.702   6.980
46833SOL     OW42272   5.995   3.883   6.539
46833SOL    HW142273   6.001   3.948   6.469
46833SOL    HW242274   6.077   3.891   6.587
46834SOL     OW42275   4.217   3.569   8.918
46834SOL    HW142276   4.197   3.631   8.988
46834SOL    HW242277   4.141   3.511   8.915
46835SOL     OW42278   4.042   4.021   1.436
46835SOL    HW142279   4.108   4.089   1.422
46835SOL    HW242280   4.011   4.000   1.348
46836SOL     OW42281   7.831   8.906   7.239
46836SOL    HW142282   7.828   8.873   7.329
46836SOL    HW242283   7.923   8.924   7.223
46837SOL     OW42284   6.902  14.161   0.911
46837SOL    HW142285   6.956  14.132   0.985
46837SOL    HW242286   6.843  14.087   0.894
46838SOL     OW42287  10.166  11.060  12.129
46838SOL    HW142288  10.114  11.009  12.191
46838SOL    HW242289  10.246  11.008  12.116
46839SOL     OW42290  12.370   7.976  10.047
46839SOL    HW142291  12.355   7.999   9.956
46839SOL    HW242292  12.375   8.061  10.092
46840SOL     OW42293   6.976  11.577  12.986
46840SOL    HW142294   7.067  11.592  13.009
46840SOL    HW242295   6.926  11.627  13.050
46841SOL     OW42296   4.529  12.562  13.932
46841SOL    HW142297   4.587  12.490  13.954
46841SOL    HW242298   4.477  12.576  14.010
46842SOL     OW42299  14.816   7.909   1.778
46842SOL    HW142300  14.797   7.851   1.704
46842SOL    HW242301  14.751   7.888   1.844
46843SOL     OW42302  11.188   0.563  11.809
46843SOL    HW142303  11.270   0.565  11.857
46843SOL    HW242304  11.127   0.615  11.862
46844SOL     OW42305   2.397   2.500   5.621
46844SOL    HW142306   2.463   2.524   5.686
46844SOL    HW242307   2.415   2.556   5.546
46845SOL     OW42308   8.912   2.833   5.936
46845SOL    HW142309   8.959   2.884   5.871
46845SOL    HW242310   8.828   2.812   5.894
46846SOL     OW42311   3.864  13.504   8.267
46846SOL    HW142312   3.888  13.529   8.178
46846SOL    HW242313   3.785  13.451   8.257
46847SOL     OW42314   9.103  11.098   0.019
46847SOL    HW142315   9.159  11.091  14.820
46847SOL    HW242316   9.109  11.012   0.061
46848SOL     OW42317  14.465  12.946  10.786
46848SOL    HW142318  14.483  13.024  10.733
46848SOL    HW242319  14.386  12.909  10.748
46849SOL     OW42320   7.484   7.629   3.279
46849SOL    HW142321   7.511   7.642   3.370
46849SOL    HW242322   7.532   7.551   3.251
46850SOL     OW42323   4.333   5.574   6.160
46850SOL    HW142324   4.256   5.607   6.113
46850SOL    HW242325   4.407   5.603   6.108
46851SOL     OW42326   9.979   0.495   8.016
46851SOL    HW142327  10.022   0.566   7.969
46851SOL    HW242328   9.941   0.439   7.948
46852SOL     OW42329  12.293  10.944   4.546
46852SOL    HW142330  12.216  10.946   4.603
46852SOL    HW242331  12.366  10.965   4.604
46853SOL     OW42332   2.203  12.190   6.849
46853SOL    HW142333   2.199  12.098   6.874
46853SOL    HW242334   2.220  12.189   6.754
46854SOL     OW42335   6.556   5.426   3.146
46854SOL    HW142336   6.617   5.425   3.220
46854SOL    HW242337   6.549   5.519   3.122
46855SOL     OW42338  10.805  13.333   2.256
46855SOL    HW142339  10.872  13.328   2.188
46855SOL    HW242340  10.844  13.287   2.331
46856SOL     OW42341   0.199  13.751  13.001
46856SOL    HW142342   0.105  13.750  13.019
46856SOL    HW242343   0.211  13.819  12.935
46857SOL     OW42344   3.751   5.099   2.834
46857SOL    HW142345   3.709   5.172   2.788
46857SOL    HW242346   3.683   5.032   2.841
46858SOL     OW42347   3.043   7.355  13.728
46858SOL    HW142348   3.058   7.444  13.696
46858SOL    HW242349   3.084   7.299  13.663
46859SOL     OW42350  12.853  14.589   1.642
46859SOL    HW142351  12.918  14.574   1.710
46859SOL    HW242352  12.780  14.531   1.666
46860SOL     OW42353  14.002   2.644   8.475
46860SOL    HW142354  13.971   2.709   8.412
46860SOL    HW242355  14.088   2.618   8.443
46861SOL     OW42356  10.801   7.078   6.624
46861SOL    HW142357  10.821   6.999   6.675
46861SOL    HW242358  10.870   7.083   6.559
46862SOL     OW42359   3.050   0.421  10.526
46862SOL    HW142360   2.999   0.430  10.606
46862SOL    HW242361   3.093   0.336  10.534
46863SOL     OW42362   7.379   5.580  13.808
46863SOL    HW142363   7.431   5.646  13.854
46863SOL    HW242364   7.321   5.543  13.874
46864SOL     OW42365  10.680   3.039   1.382
46864SOL    HW142366  10.603   3.094   1.397
46864SOL    HW242367  10.679   2.975   1.454
46865SOL     OW42368   6.682   8.882   1.713
46865SOL    HW142369   6.760   8.903   1.661
46865SOL    HW242370   6.716   8.861   1.800
46866SOL     OW42371  13.631  12.318  13.547
46866SOL    HW142372  13.631  12.257  13.473
46866SOL    HW242373  13.662  12.401  13.510
46867SOL     OW42374  10.055  10.076  12.710
46867SOL    HW142375  10.150  10.064  12.717
46867SOL    HW242376  10.019  10.023  12.780
46868SOL     OW42377   4.170  13.553   0.869
46868SOL    HW142378   4.180  13.639   0.828
46868SOL    HW242379   4.122  13.501   0.803
46869SOL     OW42380   5.250   2.340   6.275
46869SOL    HW142381   5.319   2.278   6.251
46869SOL    HW242382   5.183   2.287   6.318
46870SOL     OW42383   5.822   5.567   1.457
46870SOL    HW142384   5.889   5.611   1.405
46870SOL    HW242385   5.869   5.499   1.505
46871SOL     OW42386   4.441  10.371   5.931
46871SOL    HW142387   4.438  10.439   5.864
46871SOL    HW242388   4.480  10.413   6.008
46872SOL     OW42389   2.373   4.233   4.821
46872SOL    HW142390   2.437   4.265   4.885
46872SOL    HW242391   2.421   4.166   4.771
46873SOL     OW42392   8.627  11.753   1.440
46873SOL    HW142393   8.568  11.809   1.391
46873SOL    HW242394   8.637  11.797   1.525
46874SOL     OW42395   5.512   6.324  13.495
46874SOL    HW142396   5.478   6.394  13.550
46874SOL    HW242397   5.440   6.304  13.434
46875SOL     OW42398  12.427   4.803   7.876
46875SOL    HW142399  12.425   4.893   7.910
46875SOL    HW242400  12.488   4.807   7.802
46876SOL     OW42401  10.917   5.772   3.174
46876SOL    HW142402  10.874   5.845   3.129
46876SOL    HW242403  10.848   5.705   3.182
46877SOL     OW42404   3.664   0.660  12.998
46877SOL    HW142405   3.742   0.676  12.945
46877SOL    HW242406   3.633   0.574  12.971
46878SOL     OW42407   2.300   5.567   7.790
46878SOL    HW142408   2.238   5.503   7.753
46878SOL    HW242409   2.272   5.651   7.755
46879SOL     OW42410  14.066   2.607   3.733
46879SOL    HW142411  14.061   2.557   3.652
46879SOL    HW242412  14.140   2.569   3.780
46880SOL     OW42413   1.818   4.024   6.123
46880SOL    HW142414   1.750   4.033   6.055
46880SOL    HW242415   1.900   4.033   6.076
46881SOL     OW42416   2.632   3.417   8.515
46881SOL    HW142417   2.627   3.389   8.606
46881SOL    HW242418   2.711   3.374   8.481
46882SOL     OW42419  13.744   2.038   0.908
46882SOL    HW142420  13.683   2.095   0.860
46882SOL    HW242421  13.742   2.072   0.998
46883SOL     OW42422   5.003  11.588  11.267
46883SOL    HW142423   5.075  11.537  11.304
46883SOL    HW242424   4.925  11.550  11.308
46884SOL     OW42425  10.018   2.376  12.634
46884SOL    HW142426  10.096   2.377  12.579
46884SOL    HW242427   9.965   2.449  12.603
46885SOL     OW42428   4.821   5.713   7.990
46885SOL    HW142429   4.852   5.670   7.911
46885SOL    HW242430   4.900   5.754   8.026
46886SOL     OW42431  13.747   8.206   5.355
46886SOL    HW142432  13.770   8.296   5.375
46886SOL    HW242433  13.769   8.157   5.434
46887SOL     OW42434   4.688   9.259   5.382
46887SOL    HW142435   4.721   9.170   5.389
46887SOL    HW242436   4.686   9.291   5.472
46888SOL     OW42437  11.982   7.363  14.499
46888SOL    HW142438  11.919   7.301  14.462
46888SOL    HW242439  11.981   7.345  14.593
46889SOL     OW42440  14.554   4.530   2.433
46889SOL    HW142441  14.624   4.525   2.368
46889SOL    HW242442  14.585   4.595   2.497
46890SOL     OW42443   6.476  13.303   0.221
46890SOL    HW142444   6.566  13.331   0.206
46890SOL    HW242445   6.422  13.377   0.191
46891SOL     OW42446   8.836  11.589  12.220
46891SOL    HW142447   8.780  11.515  12.199
46891SOL    HW242448   8.893  11.557  12.290
46892SOL     OW42449   5.392  13.551   9.246
46892SOL    HW142450   5.364  13.504   9.325
46892SOL    HW242451   5.459  13.494   9.207
46893SOL     OW42452   7.238   7.325   8.487
46893SOL    HW142453   7.218   7.282   8.404
46893SOL    HW242454   7.252   7.252   8.548
46894SOL     OW42455   8.310   2.962   2.019
46894SOL    HW142456   8.239   2.914   2.060
46894SOL    HW242457   8.387   2.908   2.033
46895SOL     OW42458   2.337   2.219   6.370
46895SOL    HW142459   2.420   2.265   6.384
46895SOL    HW242460   2.328   2.161   6.445
46896SOL     OW42461   5.418   8.121   9.226
46896SOL    HW142462   5.479   8.163   9.287
46896SOL    HW242463   5.332   8.151   9.254
46897SOL     OW42464   1.115   0.779   7.469
46897SOL    HW142465   1.204   0.797   7.440
46897SOL    HW242466   1.126   0.734   7.553
46898SOL     OW42467   8.322   5.445   4.196
46898SOL    HW142468   8.285   5.527   4.230
46898SOL    HW242469   8.400   5.430   4.251
46899SOL     OW42470   9.337   0.434   5.997
46899SOL    HW142471   9.406   0.492   6.030
46899SOL    HW242472   9.300   0.481   5.922
46900SOL     OW42473   5.559  12.217   3.847
46900SOL    HW142474   5.521  12.160   3.914
46900SOL    HW242475   5.530  12.305   3.870
46901SOL     OW42476  12.558   7.346   0.816
46901SOL    HW142477  12.511   7.351   0.899
46901SOL    HW242478  12.518   7.415   0.762
46902SOL     OW42479   3.536   6.099   7.605
46902SOL    HW142480   3.501   6.074   7.519
46902SOL    HW242481   3.461   6.099   7.663
46903SOL     OW42482   2.752   2.100   8.289
46903SOL    HW142483   2.788   2.027   8.338
46903SOL    HW242484   2.823   2.130   8.233
46904SOL     OW42485  12.484   5.757   3.206
46904SOL    HW142486  12.393   5.781   3.220
46904SOL    HW242487  12.521   5.749   3.294
46905SOL     OW42488   1.313  11.163  13.252
46905SOL    HW142489   1.270  11.237  13.208
46905SOL    HW242490   1.266  11.086  13.220
46906SOL     OW42491  11.598   3.066  11.711
46906SOL    HW142492  11.637   3.083  11.626
46906SOL    HW242493  11.506   3.092  11.701
46907SOL     OW42494  11.833   7.154  13.548
46907SOL    HW142495  11.766   7.180  13.611
46907SOL    HW242496  11.914   7.193  13.581
46908SOL     OW42497  12.605   1.969   0.989
46908SOL    HW142498  12.593   1.992   1.081
46908SOL    HW242499  12.558   2.037   0.941
46909SOL     OW42500   9.468   2.979  13.243
46909SOL    HW142501   9.424   2.917  13.185
46909SOL    HW242502   9.428   3.063  13.222
46910SOL     OW42503   6.866   6.092   8.434
46910SOL    HW142504   6.841   6.077   8.343
46910SOL    HW242505   6.791   6.139   8.471
46911SOL     OW42506  12.863  12.872   0.387
46911SOL    HW142507  12.844  12.780   0.369
46911SOL    HW242508  12.869  12.877   0.482
46912SOL     OW42509  11.936   2.826  13.547
46912SOL    HW142510  12.019   2.872  13.557
46912SOL    HW242511  11.918   2.829  13.454
46913SOL     OW42512   2.195   1.268   0.872
46913SOL    HW142513   2.171   1.302   0.959
46913SOL    HW242514   2.112   1.237   0.835
46914SOL     OW42515   0.572   4.032  12.223
46914SOL    HW142516   0.635   4.082  12.274
46914SOL    HW242517   0.488   4.075  12.240
46915SOL     OW42518   8.469   6.105  11.180
46915SOL    HW142519   8.428   6.157  11.248
46915SOL    HW242520   8.429   6.135  11.099
46916SOL     OW42521  11.739   6.807   3.580
46916SOL    HW142522  11.814   6.747   3.587
46916SOL    HW242523  11.675   6.773   3.643
46917SOL     OW42524   6.544  12.916   3.166
46917SOL    HW142525   6.604  12.979   3.205
46917SOL    HW242526   6.593  12.833   3.163
46918SOL     OW42527  14.142  14.383  11.063
46918SOL    HW142528  14.102  14.456  11.016
46918SOL    HW242529  14.077  14.359  11.130
46919SOL     OW42530   0.667   3.097   6.071
46919SOL    HW142531   0.619   3.136   6.144
46919SOL    HW242532   0.638   3.006   6.069
46920SOL     OW42533  11.977   6.443   2.999
46920SOL    HW142534  12.017   6.368   2.955
46920SOL    HW242535  11.883   6.426   2.994
46921SOL     OW42536   2.176   2.374  11.760
46921SOL    HW142537   2.183   2.427  11.839
46921SOL    HW242538   2.234   2.299  11.775
46922SOL     OW42539   4.088  14.245  12.500
46922SOL    HW142540   4.119  14.207  12.581
46922SOL    HW242541   4.011  14.193  12.476
46923SOL     OW42542   7.255   1.731  10.985
46923SOL    HW142543   7.332   1.674  10.983
46923SOL    HW242544   7.256   1.776  10.901
46924SOL     OW42545  10.342  10.186   6.858
46924SOL    HW142546  10.409  10.130   6.899
46924SOL    HW242547  10.277  10.200   6.928
46925SOL     OW42548  11.896  11.713  11.535
46925SOL    HW142549  11.858  11.625  11.540
46925SOL    HW242550  11.955  11.718  11.610
46926SOL     OW42551  12.028   0.982  10.435
46926SOL    HW142552  12.041   1.073  10.461
46926SOL    HW242553  11.956   0.985  10.372
46927SOL     OW42554   8.392   9.643  13.620
46927SOL    HW142555   8.469   9.654  13.564
46927SOL    HW242556   8.356   9.558  13.596
46928SOL     OW42557  11.494   9.232   2.970
46928SOL    HW142558  11.588   9.244   2.961
46928SOL    HW242559  11.455   9.292   2.907
46929SOL     OW42560  13.345  12.160   5.220
46929SOL    HW142561  13.305  12.094   5.276
46929SOL    HW242562  13.387  12.221   5.281
46930SOL     OW42563   8.311  13.078  13.179
46930SOL    HW142564   8.257  13.077  13.257
46930SOL    HW242565   8.401  13.077  13.212
46931SOL     OW42566   1.927   8.152  14.850
46931SOL    HW142567   1.925   8.182   0.063
46931SOL    HW242568   1.965   8.225  14.801
46932SOL     OW42569  13.096  10.249   6.919
46932SOL    HW142570  13.166  10.194   6.887
46932SOL    HW242571  13.097  10.326   6.861
46933SOL     OW42572   4.820   9.046  12.967
46933SOL    HW142573   4.734   9.086  12.965
46933SOL    HW242574   4.867   9.094  13.036
46934SOL     OW42575   8.301   8.083  10.619
46934SOL    HW142576   8.307   7.988  10.614
46934SOL    HW242577   8.292   8.111  10.528
46935SOL     OW42578   5.851  10.546   8.840
46935SOL    HW142579   5.941  10.578   8.829
46935SOL    HW242580   5.854  10.494   8.920
46936SOL     OW42581   8.852  11.628   3.313
46936SOL    HW142582   8.916  11.676   3.259
46936SOL    HW242583   8.831  11.689   3.384
46937SOL     OW42584   2.798   0.685   9.310
46937SOL    HW142585   2.703   0.680   9.319
46937SOL    HW242586   2.830   0.681   9.400
46938SOL     OW42587  12.135   6.140   0.285
46938SOL    HW142588  12.213   6.165   0.236
46938SOL    HW242589  12.141   6.045   0.293
46939SOL     OW42590   8.244  14.129   5.754
46939SOL    HW142591   8.338  14.147   5.765
46939SOL    HW242592   8.218  14.086   5.835
46940SOL     OW42593  13.416  12.723   4.454
46940SOL    HW142594  13.415  12.673   4.372
46940SOL    HW242595  13.509  12.735   4.474
46941SOL     OW42596   1.043   0.186   9.150
46941SOL    HW142597   1.098   0.259   9.121
46941SOL    HW242598   1.083   0.109   9.110
46942SOL     OW42599  11.597  11.935  11.656
46942SOL    HW142600  11.552  12.004  11.705
46942SOL    HW242601  11.626  11.979  11.576
46943SOL     OW42602   0.229  14.351  10.632
46943SOL    HW142603   0.136  14.331  10.621
46943SOL    HW242604   0.262  14.281  10.689
46944SOL     OW42605   2.044   6.856  11.120
46944SOL    HW142606   2.097   6.936  11.111
46944SOL    HW242607   2.028   6.827  11.030
46945SOL     OW42608  10.031  10.438  13.230
46945SOL    HW142609  10.008  10.531  13.231
46945SOL    HW242610  10.001  10.407  13.144
46946SOL     OW42611   5.404  11.027  10.595
46946SOL    HW142612   5.384  11.076  10.515
46946SOL    HW242613   5.399  10.935  10.570
46947SOL     OW42614  11.457  12.859   5.137
46947SOL    HW142615  11.531  12.835   5.193
46947SOL    HW242616  11.394  12.899   5.197
46948SOL     OW42617   6.203  11.396   4.721
46948SOL    HW142618   6.149  11.320   4.742
46948SOL    HW242619   6.275  11.393   4.784
46949SOL     OW42620   7.196   4.932  14.353
46949SOL    HW142621   7.125   4.989  14.384
46949SOL    HW242622   7.239   4.903  14.433
46950SOL     OW42623   7.149   0.826   5.915
46950SOL    HW142624   7.189   0.901   5.959
46950SOL    HW242625   7.202   0.751   5.942
46951SOL     OW42626   4.794  12.170   1.433
46951SOL    HW142627   4.778  12.198   1.523
46951SOL    HW242628   4.888  12.155   1.429
46952SOL     OW42629   0.756   0.372  13.897
46952SOL    HW142630   0.706   0.427  13.957
46952SOL    HW242631   0.763   0.423  13.817
46953SOL     OW42632   7.866   3.442  11.560
46953SOL    HW142633   7.863   3.436  11.465
46953SOL    HW242634   7.925   3.516  11.578
46954SOL     OW42635   9.049  12.638   1.641
46954SOL    HW142636   9.052  12.566   1.704
46954SOL    HW242637   9.010  12.711   1.689
46955SOL     OW42638  10.417  12.924   4.133
46955SOL    HW142639  10.444  12.841   4.172
46955SOL    HW242640  10.322  12.926   4.144
46956SOL     OW42641   8.618  11.438   8.235
46956SOL    HW142642   8.707  11.439   8.202
46956SOL    HW242643   8.619  11.499   8.309
46957SOL     OW42644   1.255  14.308   2.737
46957SOL    HW142645   1.291  14.383   2.688
46957SOL    HW242646   1.174  14.341   2.775
46958SOL     OW42647   6.564   3.021  10.981
46958SOL    HW142648   6.559   3.106  11.025
46958SOL    HW242649   6.556   2.957  11.052
46959SOL     OW42650   7.423   2.318   9.695
46959SOL    HW142651   7.441   2.372   9.617
46959SOL    HW242652   7.332   2.337   9.716
46960SOL     OW42653   3.314  10.330   4.646
46960SOL    HW142654   3.347  10.241   4.660
46960SOL    HW242655   3.386  10.375   4.603
46961SOL     OW42656   4.694   9.034   1.765
46961SOL    HW142657   4.604   9.053   1.789
46961SOL    HW242658   4.708   9.082   1.684
46962SOL     OW42659  10.232   9.607   8.365
46962SOL    HW142660  10.289   9.564   8.301
46962SOL    HW242661  10.255   9.700   8.358
46963SOL     OW42662   5.024  10.972   6.629
46963SOL    HW142663   5.035  11.065   6.649
46963SOL    HW242664   4.940  10.948   6.669
46964SOL     OW42665   4.533  12.110   4.297
46964SOL    HW142666   4.615  12.160   4.293
46964SOL    HW242667   4.552  12.030   4.248
46965SOL     OW42668  10.833  11.947  13.125
46965SOL    HW142669  10.889  12.005  13.176
46965SOL    HW242670  10.787  12.004  13.064
46966SOL     OW42671   4.594   7.727   7.099
46966SOL    HW142672   4.662   7.727   7.033
46966SOL    HW242673   4.524   7.674   7.061
46967SOL     OW42674   6.751   4.027   6.524
46967SOL    HW142675   6.755   4.064   6.436
46967SOL    HW242676   6.723   4.100   6.580
46968SOL     OW42677   1.461   0.988  14.761
46968SOL    HW142678   1.373   0.954  14.773
46968SOL    HW242679   1.511   0.952  14.834
46969SOL     OW42680   4.462  10.233   8.532
46969SOL    HW142681   4.515  10.272   8.462
46969SOL    HW242682   4.410  10.167   8.488
46970SOL     OW42683   6.613  11.500  11.601
46970SOL    HW142684   6.657  11.419  11.627
46970SOL    HW242685   6.672  11.570  11.631
46971SOL     OW42686   1.382   4.532   9.645
46971SOL    HW142687   1.439   4.507   9.717
46971SOL    HW242688   1.318   4.591   9.685
46972SOL     OW42689   9.133   5.698  11.102
46972SOL    HW142690   9.061   5.716  11.042
46972SOL    HW242691   9.202   5.663  11.046
46973SOL     OW42692   0.131  10.751   4.832
46973SOL    HW142693   0.118  10.810   4.906
46973SOL    HW242694   0.058  10.689   4.838
46974SOL     OW42695   6.225   6.958   0.180
46974SOL    HW142696   6.182   6.907   0.112
46974SOL    HW242697   6.214   7.049   0.152
46975SOL     OW42698   6.864   1.476   4.279
46975SOL    HW142699   6.948   1.500   4.320
46975SOL    HW242700   6.801   1.480   4.350
46976SOL     OW42701   3.904  10.494   4.464
46976SOL    HW142702   3.962  10.526   4.533
46976SOL    HW242703   3.943  10.411   4.437
46977SOL     OW42704   0.710   2.082   8.052
46977SOL    HW142705   0.635   2.045   8.099
46977SOL    HW242706   0.786   2.036   8.088
46978SOL     OW42707   5.384   8.028   1.959
46978SOL    HW142708   5.475   8.058   1.961
46978SOL    HW242709   5.382   7.965   1.887
46979SOL     OW42710  13.787   0.237  12.342
46979SOL    HW142711  13.769   0.327  12.314
46979SOL    HW242712  13.704   0.191  12.329
46980SOL     OW42713   7.315   7.755   6.434
46980SOL    HW142714   7.291   7.781   6.345
46980SOL    HW242715   7.410   7.756   6.434
46981SOL     OW42716  10.047  13.440  11.932
46981SOL    HW142717  10.119  13.416  11.874
46981SOL    HW242718   9.979  13.376  11.915
46982SOL     OW42719  13.980  13.129   8.635
46982SOL    HW142720  13.922  13.168   8.569
46982SOL    HW242721  14.049  13.087   8.584
46983SOL     OW42722   4.447   1.568   1.665
46983SOL    HW142723   4.450   1.646   1.721
46983SOL    HW242724   4.466   1.600   1.577
46984SOL     OW42725   6.608  11.976  12.306
46984SOL    HW142726   6.679  11.988  12.369
46984SOL    HW242727   6.645  12.005  12.222
46985SOL     OW42728  14.321   6.091   3.690
46985SOL    HW142729  14.326   6.170   3.636
46985SOL    HW242730  14.381   6.108   3.762
46986SOL     OW42731  11.601  11.722   9.452
46986SOL    HW142732  11.580  11.800   9.400
46986SOL    HW242733  11.626  11.656   9.388
46987SOL     OW42734  10.756  14.712  11.202
46987SOL    HW142735  10.814  14.717  11.126
46987SOL    HW242736  10.814  14.731  11.276
46988SOL     OW42737   3.092   9.977   6.842
46988SOL    HW142738   3.104   9.883   6.856
46988SOL    HW242739   3.166  10.018   6.888
46989SOL     OW42740   5.406   8.851   0.302
46989SOL    HW142741   5.311   8.844   0.290
46989SOL    HW242742   5.438   8.762   0.287
46990SOL     OW42743   2.536  11.128   5.808
46990SOL    HW142744   2.610  11.083   5.768
46990SOL    HW242745   2.529  11.211   5.761
46991SOL     OW42746   8.003  14.339   8.230
46991SOL    HW142747   7.957  14.346   8.146
46991SOL    HW242748   8.094  14.320   8.206
46992SOL     OW42749   8.970   4.024   8.289
46992SOL    HW142750   9.010   3.979   8.363
46992SOL    HW242751   9.031   4.094   8.268
46993SOL     OW42752   8.656  13.976   2.537
46993SOL    HW142753   8.650  13.884   2.560
46993SOL    HW242754   8.711  14.014   2.606
46994SOL     OW42755   5.629   4.629   9.622
46994SOL    HW142756   5.617   4.538   9.594
46994SOL    HW242757   5.667   4.622   9.710
46995SOL     OW42758   7.087  14.837   5.480
46995SOL    HW142759   7.169  14.819   5.527
46995SOL    HW242760   7.105   0.040   5.431
46996SOL     OW42761  10.099   7.246   9.823
46996SOL    HW142762  10.038   7.205   9.885
46996SOL    HW242763  10.139   7.317   9.873
46997SOL     OW42764   9.004   8.624   2.186
46997SOL    HW142765   8.944   8.603   2.258
46997SOL    HW242766   9.086   8.648   2.230
46998SOL     OW42767   4.052   2.830   7.193
46998SOL    HW142768   4.028   2.782   7.273
46998SOL    HW242769   3.976   2.885   7.175
46999SOL     OW42770  13.063   2.368   0.113
46999SOL    HW142771  13.033   2.289   0.068
46999SOL    HW242772  13.096   2.337   0.198
47000SOL     OW42773  14.818   8.082  11.431
47000SOL    HW142774  14.781   8.013  11.376
47000SOL    HW242775  14.807   8.162  11.380
47001SOL     OW42776  13.207   4.230   3.826
47001SOL    HW142777  13.292   4.206   3.790
47001SOL    HW242778  13.150   4.157   3.804
47002SOL     OW42779  13.173   9.868  10.231
47002SOL    HW142780  13.232   9.916  10.173
47002SOL    HW242781  13.093   9.921  10.233
47003SOL     OW42782   2.034   8.866  11.730
47003SOL    HW142783   2.092   8.907  11.794
47003SOL    HW242784   1.950   8.858  11.775
47004SOL     OW42785   7.470  13.521  10.717
47004SOL    HW142786   7.564  13.506  10.716
47004SOL    HW242787   7.459  13.606  10.674
47005SOL     OW42788   3.427  10.140   1.862
47005SOL    HW142789   3.361  10.197   1.902
47005SOL    HW242790   3.439  10.177   1.774
47006SOL     OW42791   7.867   3.876  14.706
47006SOL    HW142792   7.890   3.857  14.797
47006SOL    HW242793   7.911   3.808  14.655
47007SOL     OW42794   9.687   5.840   2.128
47007SOL    HW142795   9.751   5.893   2.177
47007SOL    HW242796   9.726   5.831   2.041
47008SOL     OW42797  13.857   2.823   5.071
47008SOL    HW142798  13.922   2.840   5.003
47008SOL    HW242799  13.896   2.754   5.125
47009SOL     OW42800   8.842  10.700  10.009
47009SOL    HW142801   8.893  10.729   9.933
47009SOL    HW242802   8.893  10.729  10.085
47010SOL     OW42803  13.811   6.310  13.914
47010SOL    HW142804  13.835   6.279  14.001
47010SOL    HW242805  13.850   6.398  13.909
47011SOL     OW42806   2.371  12.642   7.422
47011SOL    HW142807   2.367  12.640   7.327
47011SOL    HW242808   2.457  12.607   7.444
47012SOL     OW42809   0.570   8.504   9.172
47012SOL    HW142810   0.562   8.427   9.116
47012SOL    HW242811   0.488   8.551   9.159
47013SOL     OW42812  13.758  10.481   9.595
47013SOL    HW142813  13.769  10.447   9.684
47013SOL    HW242814  13.815  10.558   9.591
47014SOL     OW42815   5.092   4.498   8.142
47014SOL    HW142816   5.042   4.454   8.073
47014SOL    HW242817   5.170   4.530   8.097
47015SOL     OW42818   2.654   3.407   6.800
47015SOL    HW142819   2.632   3.441   6.713
47015SOL    HW242820   2.621   3.317   6.800
47016SOL     OW42821   3.108   9.398   3.477
47016SOL    HW142822   3.101   9.474   3.420
47016SOL    HW242823   3.026   9.398   3.527
47017SOL     OW42824   6.476   1.988   6.994
47017SOL    HW142825   6.471   1.898   7.027
47017SOL    HW242826   6.570   2.008   6.994
47018SOL     OW42827  11.415   5.003  10.467
47018SOL    HW142828  11.386   4.946  10.538
47018SOL    HW242829  11.336   5.022  10.417
47019SOL     OW42830  11.703  10.464  12.769
47019SOL    HW142831  11.643  10.455  12.695
47019SOL    HW242832  11.769  10.396  12.754
47020SOL     OW42833  12.100   9.735   1.993
47020SOL    HW142834  12.051   9.655   2.010
47020SOL    HW242835  12.137   9.723   1.905
47021SOL     OW42836   0.682   8.884  13.661
47021SOL    HW142837   0.740   8.954  13.633
47021SOL    HW242838   0.715   8.857  13.747
47022SOL     OW42839  10.793   4.453  12.696
47022SOL    HW142840  10.832   4.366  12.689
47022SOL    HW242841  10.858   4.512  12.657
47023SOL     OW42842   1.707   5.108   5.791
47023SOL    HW142843   1.732   5.171   5.859
47023SOL    HW242844   1.655   5.042   5.838
47024SOL     OW42845   7.383   7.008   6.612
47024SOL    HW142846   7.459   7.059   6.586
47024SOL    HW242847   7.312   7.039   6.556
47025SOL     OW42848   6.840  13.814  10.629
47025SOL    HW142849   6.877  13.726  10.616
47025SOL    HW242850   6.754  13.810  10.588
47026SOL     OW42851  14.781   6.449   8.792
47026SOL    HW142852  14.740   6.505   8.858
47026SOL    HW242853  14.866   6.489   8.776
47027SOL     OW42854   6.524   0.690   8.732
47027SOL    HW142855   6.562   0.611   8.694
47027SOL    HW242856   6.438   0.697   8.691
47028SOL     OW42857  13.725   8.216  12.658
47028SOL    HW142858  13.818   8.196  12.660
47028SOL    HW242859  13.712   8.263  12.575
47029SOL     OW42860   0.161   7.659  13.479
47029SOL    HW142861   0.179   7.573  13.517
47029SOL    HW242862   0.223   7.718  13.522
47030SOL     OW42863   3.650  10.035   5.524
47030SOL    HW142864   3.626   9.964   5.465
47030SOL    HW242865   3.567  10.063   5.563
47031SOL     OW42866  11.232  12.900   1.880
47031SOL    HW142867  11.215  12.806   1.877
47031SOL    HW242868  11.240  12.920   1.974
47032SOL     OW42869   0.797   3.515  14.468
47032SOL    HW142870   0.729   3.558  14.417
47032SOL    HW242871   0.871   3.576  14.466
47033SOL     OW42872  13.469   0.174   4.086
47033SOL    HW142873  13.454   0.192   3.994
47033SOL    HW242874  13.409   0.102   4.107
47034SOL     OW42875   4.256  13.704   1.357
47034SOL    HW142876   4.231  13.694   1.265
47034SOL    HW242877   4.352  13.693   1.356
47035SOL     OW42878   1.429   8.443   2.930
47035SOL    HW142879   1.388   8.523   2.963
47035SOL    HW242880   1.372   8.415   2.858
47036SOL     OW42881   6.518   0.871   7.667
47036SOL    HW142882   6.477   0.957   7.670
47036SOL    HW242883   6.563   0.862   7.752
47037SOL     OW42884   1.674  13.646   6.679
47037SOL    HW142885   1.711  13.682   6.598
47037SOL    HW242886   1.587  13.614   6.653
47038SOL     OW42887  12.421  11.199  11.144
47038SOL    HW142888  12.372  11.206  11.062
47038SOL    HW242889  12.471  11.281  11.149
47039SOL     OW42890  13.740   0.645   2.221
47039SOL    HW142891  13.834   0.632   2.230
47039SOL    HW242892  13.707   0.647   2.311
47040SOL     OW42893   0.843  10.682   0.894
47040SOL    HW142894   0.825  10.746   0.826
47040SOL    HW242895   0.763  10.681   0.948
47041SOL     OW42896   7.898  14.505  11.047
47041SOL    HW142897   7.803  14.506  11.059
47041SOL    HW242898   7.933  14.537  11.129
47042SOL     OW42899   8.054  11.174   3.021
47042SOL    HW142900   8.000  11.243   2.984
47042SOL    HW242901   8.050  11.103   2.957
47043SOL     OW42902   5.976  10.397   7.279
47043SOL    HW142903   6.047  10.422   7.220
47043SOL    HW242904   5.987  10.303   7.292
47044SOL     OW42905   3.513  11.616  13.815
47044SOL    HW142906   3.578  11.600  13.884
47044SOL    HW242907   3.563  11.656  13.744
47045SOL     OW42908   3.170   5.538   0.434
47045SOL    HW142909   3.211   5.480   0.499
47045SOL    HW242910   3.077   5.519   0.441
47046SOL     OW42911  10.336  11.438   8.413
47046SOL    HW142912  10.410  11.496   8.433
47046SOL    HW242913  10.282  11.489   8.353
47047SOL     OW42914   9.021   0.062   9.265
47047SOL    HW142915   8.997   0.098   9.351
47047SOL    HW242916   9.061  14.856   9.285
47048SOL     OW42917   5.739   2.350   3.845
47048SOL    HW142918   5.809   2.292   3.812
47048SOL    HW242919   5.695   2.298   3.912
47049SOL     OW42920  10.564  10.979   9.397
47049SOL    HW142921  10.594  10.908   9.453
47049SOL    HW242922  10.555  10.940   9.310
47050SOL     OW42923   8.198  12.580   1.400
47050SOL    HW142924   8.243  12.544   1.324
47050SOL    HW242925   8.114  12.610   1.366
47051SOL     OW42926  10.101   0.172  11.765
47051SOL    HW142927  10.186   0.214  11.777
47051SOL    HW242928  10.121   0.087  11.727
47052SOL     OW42929   4.717  12.920  10.303
47052SOL    HW142930   4.699  13.013  10.295
47052SOL    HW242931   4.809  12.915  10.329
47053SOL     OW42932   3.253   7.344   3.170
47053SOL    HW142933   3.205   7.262   3.175
47053SOL    HW242934   3.329   7.325   3.114
47054SOL     OW42935   8.880   3.813   5.968
47054SOL    HW142936   8.887   3.776   5.880
47054SOL    HW242937   8.970   3.839   5.990
47055SOL     OW42938   7.982   0.607   7.275
47055SOL    HW142939   7.902   0.615   7.326
47055SOL    HW242940   8.029   0.534   7.315
47056SOL     OW42941  12.062  12.142   3.212
47056SOL    HW142942  12.071  12.096   3.296
47056SOL    HW242943  11.968  12.144   3.196
47057SOL     OW42944  13.948   6.190   5.810
47057SOL    HW142945  13.907   6.103   5.809
47057SOL    HW242946  13.875   6.251   5.821
47058SOL     OW42947  12.644   8.103   2.139
47058SOL    HW142948  12.670   8.049   2.065
47058SOL    HW242949  12.716   8.096   2.201
47059SOL     OW42950   7.282   8.340   4.819
47059SOL    HW142951   7.286   8.349   4.914
47059SOL    HW242952   7.262   8.248   4.804
47060SOL     OW42953  14.552   6.616   7.917
47060SOL    HW142954  14.489   6.555   7.878
47060SOL    HW242955  14.609   6.560   7.970
47061SOL     OW42956  11.092   2.743   2.420
47061SOL    HW142957  11.025   2.763   2.355
47061SOL    HW242958  11.173   2.777   2.382
47062SOL     OW42959   3.738  10.294   8.250
47062SOL    HW142960   3.745  10.355   8.176
47062SOL    HW242961   3.829  10.267   8.266
47063SOL     OW42962   8.564  10.358   6.722
47063SOL    HW142963   8.511  10.286   6.686
47063SOL    HW242964   8.582  10.414   6.647
47064SOL     OW42965   3.024   6.286   0.881
47064SOL    HW142966   3.000   6.279   0.974
47064SOL    HW242967   2.967   6.224   0.836
47065SOL     OW42968  12.030   8.248   2.395
47065SOL    HW142969  12.089   8.319   2.422
47065SOL    HW242970  11.995   8.277   2.311
47066SOL     OW42971   2.940   8.820   9.902
47066SOL    HW142972   2.982   8.753   9.956
47066SOL    HW242973   2.886   8.869   9.964
47067SOL     OW42974   1.750   6.478   3.178
47067SOL    HW142975   1.773   6.521   3.096
47067SOL    HW242976   1.733   6.549   3.240
47068SOL     OW42977   5.383  10.001  13.626
47068SOL    HW142978   5.340   9.938  13.568
47068SOL    HW242979   5.476   9.978  13.621
47069SOL     OW42980  12.587   4.793  11.964
47069SOL    HW142981  12.544   4.876  11.945
47069SOL    HW242982  12.680   4.816  11.972
47070SOL     OW42983   4.057   7.792   3.056
47070SOL    HW142984   4.000   7.753   2.991
47070SOL    HW242985   4.053   7.886   3.038
47071SOL     OW42986   1.507  10.950   2.079
47071SOL    HW142987   1.556  10.884   2.030
47071SOL    HW242988   1.574  11.001   2.124
47072SOL     OW42989   8.433   3.706  12.101
47072SOL    HW142990   8.424   3.741  12.012
47072SOL    HW242991   8.433   3.611  12.089
47073SOL     OW42992  12.834   4.137  12.073
47073SOL    HW142993  12.900   4.080  12.111
47073SOL    HW242994  12.798   4.086  12.000
47074SOL     OW42995   9.047   2.141  10.190
47074SOL    HW142996   9.112   2.074  10.213
47074SOL    HW242997   9.099   2.216  10.162
47075SOL     OW42998  11.217   0.077  14.102
47075SOL    HW142999  11.195  14.862  14.114
47075SOL    HW243000  11.206   0.093  14.008
47076SOL     OW43001   0.355  12.022  12.664
47076SOL    HW143002   0.263  12.032  12.638
47076SOL    HW243003   0.369  11.928  12.667
47077SOL     OW43004  14.623  12.927   3.358
47077SOL    HW143005  14.538  12.951   3.394
47077SOL    HW243006  14.686  12.982   3.406
47078SOL     OW43007  14.220  10.973   9.616
47078SOL    HW143008  14.203  10.917   9.541
47078SOL    HW243009  14.296  10.933   9.659
47079SOL     OW43010   5.832   1.026  12.688
47079SOL    HW143011   5.891   1.008  12.762
47079SOL    HW243012   5.755   0.971  12.705
47080SOL     OW43013   1.754  11.191   3.744
47080SOL    HW143014   1.678  11.213   3.691
47080SOL    HW243015   1.814  11.147   3.684
47081SOL     OW43016  13.741   5.541   3.939
47081SOL    HW143017  13.677   5.517   3.872
47081SOL    HW243018  13.753   5.461   3.990
47082SOL     OW43019   9.751   0.249   0.318
47082SOL    HW143020   9.669   0.208   0.346
47082SOL    HW243021   9.786   0.190   0.252
47083SOL     OW43022  12.234   7.881   1.386
47083SOL    HW143023  12.160   7.841   1.430
47083SOL    HW243024  12.222   7.860   1.293
47084SOL     OW43025  14.259  11.218  11.025
47084SOL    HW143026  14.197  11.282  10.990
47084SOL    HW243027  14.309  11.189  10.949
47085SOL     OW43028   9.995  11.842  11.840
47085SOL    HW143029  10.053  11.766  11.829
47085SOL    HW243030  10.054  11.917  11.831
47086SOL     OW43031   0.327   1.651   2.787
47086SOL    HW143032   0.251   1.600   2.816
47086SOL    HW243033   0.293   1.703   2.714
47087SOL     OW43034   3.345   7.911  12.037
47087SOL    HW143035   3.311   8.001  12.032
47087SOL    HW243036   3.434   7.917  12.000
47088SOL     OW43037   5.392  11.139   6.111
47088SOL    HW143038   5.312  11.189   6.096
47088SOL    HW243039   5.421  11.165   6.199
47089SOL     OW43040   8.455   6.492   2.583
47089SOL    HW143041   8.429   6.427   2.518
47089SOL    HW243042   8.433   6.453   2.667
47090SOL     OW43043  11.427   1.873  11.701
47090SOL    HW143044  11.428   1.926  11.781
47090SOL    HW243045  11.473   1.793  11.725
47091SOL     OW43046   7.628   1.800   5.270
47091SOL    HW143047   7.661   1.752   5.195
47091SOL    HW243048   7.678   1.766   5.345
47092SOL     OW43049  10.233   7.101   9.143
47092SOL    HW143050  10.287   7.136   9.072
47092SOL    HW243051  10.151   7.150   9.138
47093SOL     OW43052   2.627   7.259   2.205
47093SOL    HW143053   2.706   7.219   2.242
47093SOL    HW243054   2.640   7.353   2.216
47094SOL     OW43055   2.389   2.531   4.973
47094SOL    HW143056   2.424   2.569   5.054
47094SOL    HW243057   2.379   2.605   4.913
47095SOL     OW43058  12.588   5.555   7.359
47095SOL    HW143059  12.498   5.526   7.344
47095SOL    HW243060  12.586   5.594   7.446
47096SOL     OW43061   2.118  12.364   2.487
47096SOL    HW143062   2.114  12.378   2.393
47096SOL    HW243063   2.173  12.435   2.520
47097SOL     OW43064   8.730   5.551  14.370
47097SOL    HW143065   8.651   5.576  14.321
47097SOL    HW243066   8.778   5.633  14.380
47098SOL     OW43067   6.467   2.918  11.930
47098SOL    HW143068   6.486   2.951  11.842
47098SOL    HW243069   6.549   2.929  11.978
47099SOL     OW43070   8.236   3.218   2.563
47099SOL    HW143071   8.285   3.150   2.516
47099SOL    HW243072   8.218   3.180   2.648
47100SOL     OW43073   1.383   0.168   2.023
47100SOL    HW143074   1.452   0.232   2.003
47100SOL    HW243075   1.311   0.221   2.059
47101SOL     OW43076   6.222   7.622  12.041
47101SOL    HW143077   6.139   7.658  12.011
47101SOL    HW243078   6.231   7.654  12.131
47102SOL     OW43079   6.570   8.456   0.508
47102SOL    HW143080   6.592   8.447   0.601
47102SOL    HW243081   6.644   8.418   0.462
47103SOL     OW43082   2.519   8.998   6.099
47103SOL    HW143083   2.601   8.950   6.102
47103SOL    HW243084   2.476   8.966   6.019
47104SOL     OW43085   3.715  13.171   3.547
47104SOL    HW143086   3.674  13.086   3.569
47104SOL    HW243087   3.731  13.165   3.453
47105SOL     OW43088  10.845   7.505   8.578
47105SOL    HW143089  10.862   7.441   8.647
47105SOL    HW243090  10.751   7.497   8.560
47106SOL     OW43091   1.651  10.666   8.539
47106SOL    HW143092   1.606  10.742   8.502
47106SOL    HW243093   1.668  10.690   8.630
47107SOL     OW43094  12.127  13.552   0.198
47107SOL    HW143095  12.034  13.534   0.214
47107SOL    HW243096  12.172  13.518   0.275
47108SOL     OW43097   3.558   2.714   9.846
47108SOL    HW143098   3.489   2.695   9.783
47108SOL    HW243099   3.594   2.628   9.869
47109SOL     OW43100  12.737   8.438   4.562
47109SOL    HW143101  12.714   8.522   4.599
47109SOL    HW243102  12.779   8.459   4.478
47110SOL     OW43103   0.729  13.990   1.543
47110SOL    HW143104   0.642  14.027   1.555
47110SOL    HW243105   0.737  13.924   1.611
47111SOL     OW43106  11.550  10.437  10.422
47111SOL    HW143107  11.632  10.402  10.388
47111SOL    HW243108  11.493  10.444  10.345
47112SOL     OW43109   6.671  13.048   8.277
47112SOL    HW143110   6.767  13.038   8.282
47112SOL    HW243111   6.637  12.985   8.340
47113SOL     OW43112  14.653   1.901   6.824
47113SOL    HW143113  14.637   1.842   6.751
47113SOL    HW243114  14.748   1.897   6.838
47114SOL     OW43115   8.242   7.662   9.874
47114SOL    HW143116   8.253   7.642   9.781
47114SOL    HW243117   8.329   7.649   9.912
47115SOL     OW43118   5.691   4.331   2.633
47115SOL    HW143119   5.681   4.351   2.540
47115SOL    HW243120   5.606   4.293   2.658
47116SOL     OW43121  12.151  10.138   5.315
47116SOL    HW143122  12.170  10.048   5.342
47116SOL    HW243123  12.088  10.170   5.379
47117SOL     OW43124  14.065   2.138  12.920
47117SOL    HW143125  14.141   2.193  12.899
47117SOL    HW243126  14.058   2.078  12.846
47118SOL     OW43127   8.609  12.349  12.700
47118SOL    HW143128   8.680  12.364  12.762
47118SOL    HW243129   8.539  12.409  12.727
47119SOL     OW43130   9.490  13.276   7.941
47119SOL    HW143131   9.575  13.287   7.899
47119SOL    HW243132   9.440  13.220   7.881
47120SOL     OW43133   9.016   9.683   5.777
47120SOL    HW143134   9.009   9.619   5.848
47120SOL    HW243135   9.096   9.731   5.796
47121SOL     OW43136   3.667   3.379  14.015
47121SOL    HW143137   3.588   3.326  14.021
47121SOL    HW243138   3.738   3.320  14.039
47122SOL     OW43139   7.523  11.007   4.462
47122SOL    HW143140   7.483  10.930   4.502
47122SOL    HW243141   7.578  10.973   4.392
47123SOL     OW43142  10.854   3.433   8.782
47123SOL    HW143143  10.907   3.513   8.787
47123SOL    HW243144  10.902   3.377   8.720
47124SOL     OW43145   2.164   1.821   2.559
47124SOL    HW143146   2.228   1.882   2.594
47124SOL    HW243147   2.216   1.762   2.504
47125SOL     OW43148   5.727  10.624   6.032
47125SOL    HW143149   5.724  10.613   6.127
47125SOL    HW243150   5.818  10.644   6.013
47126SOL     OW43151  11.058   3.009  11.933
47126SOL    HW143152  11.144   3.021  11.972
47126SOL    HW243153  11.076   2.994  11.840
47127SOL     OW43154   7.730  10.154  14.570
47127SOL    HW143155   7.673  10.107  14.631
47127SOL    HW243156   7.683  10.235  14.550
47128SOL     OW43157   0.133  11.779   9.118
47128SOL    HW143158   0.090  11.847   9.170
47128SOL    HW243159   0.158  11.712   9.182
47129SOL     OW43160   2.934   1.339  13.926
47129SOL    HW143161   2.867   1.272  13.913
47129SOL    HW243162   3.017   1.292  13.921
47130SOL     OW43163   0.030   1.842   3.411
47130SOL    HW143164   0.031   1.753   3.446
47130SOL    HW243165   0.068   1.834   3.323
47131SOL     OW43166   0.548   7.021   0.580
47131SOL    HW143167   0.552   7.029   0.485
47131SOL    HW243168   0.562   7.111   0.612
47132SOL     OW43169   0.153   8.601  11.633
47132SOL    HW143170   0.190   8.637  11.553
47132SOL    HW243171   0.212   8.528  11.656
47133SOL     OW43172  12.022   9.065   3.502
47133SOL    HW143173  12.051   8.974   3.496
47133SOL    HW243174  11.954   9.064   3.570
47134SOL     OW43175  10.069  11.664  10.437
47134SOL    HW143176   9.984  11.656  10.395
47134SOL    HW243177  10.111  11.579  10.425
47135SOL     OW43178   2.240   0.380   7.777
47135SOL    HW143179   2.263   0.463   7.735
47135SOL    HW243180   2.284   0.313   7.724
47136SOL     OW43181  14.390  10.510   5.510
47136SOL    HW143182  14.436  10.581   5.465
47136SOL    HW243183  14.367  10.449   5.441
47137SOL     OW43184   4.280   3.145   1.061
47137SOL    HW143185   4.256   3.156   0.970
47137SOL    HW243186   4.372   3.170   1.065
47138SOL     OW43187   5.056   9.596   3.427
47138SOL    HW143188   5.140   9.558   3.452
47138SOL    HW243189   5.029   9.647   3.503
47139SOL     OW43190   8.922  10.772  10.797
47139SOL    HW143191   9.001  10.723  10.775
47139SOL    HW243192   8.878  10.786  10.713
47140SOL     OW43193   9.057   4.572  12.253
47140SOL    HW143194   9.040   4.498  12.195
47140SOL    HW243195   8.972   4.590  12.294
47141SOL     OW43196   1.111   5.273  10.821
47141SOL    HW143197   1.123   5.326  10.899
47141SOL    HW243198   1.159   5.320  10.752
47142SOL     OW43199   5.494   4.244   4.976
47142SOL    HW143200   5.434   4.297   4.924
47142SOL    HW243201   5.447   4.162   4.992
47143SOL     OW43202   7.865  10.494  14.818
47143SOL    HW143203   7.947  10.543  14.814
47143SOL    HW243204   7.834  10.506   0.030
47144SOL     OW43205   0.840   1.913   2.201
47144SOL    HW143206   0.765   1.883   2.151
47144SOL    HW243207   0.859   2.000   2.166
47145SOL     OW43208  14.280  13.012   2.917
47145SOL    HW143209  14.341  13.072   2.874
47145SOL    HW243210  14.287  13.032   3.010
47146SOL     OW43211   7.441   6.738   6.487
47146SOL    HW143212   7.419   6.671   6.422
47146SOL    HW243213   7.429   6.821   6.442
47147SOL     OW43214   6.341  10.807   3.312
47147SOL    HW143215   6.416  10.751   3.295
47147SOL    HW243216   6.276  10.748   3.351
47148SOL     OW43217   2.640   4.195  11.343
47148SOL    HW143218   2.584   4.163  11.273
47148SOL    HW243219   2.728   4.165  11.319
47149SOL     OW43220  14.671   4.062   2.014
47149SOL    HW143221  14.759   4.099   2.011
47149SOL    HW243222  14.616   4.134   2.043
47150SOL     OW43223  10.526  13.374   9.016
47150SOL    HW143224  10.566  13.442   8.963
47150SOL    HW243225  10.597  13.312   9.033
47151SOL     OW43226  11.806   8.102  12.683
47151SOL    HW143227  11.765   8.090  12.597
47151SOL    HW243228  11.779   8.025  12.734
47152SOL     OW43229   6.243   2.419   6.488
47152SOL    HW143230   6.309   2.412   6.419
47152SOL    HW243231   6.255   2.507   6.524
47153SOL     OW43232  14.281  13.231   6.983
47153SOL    HW143233  14.318  13.261   6.900
47153SOL    HW243234  14.350  13.247   7.047
47154SOL     OW43235   5.297  11.587   8.585
47154SOL    HW143236   5.367  11.520   8.586
47154SOL    HW243237   5.238  11.561   8.655
47155SOL     OW43238  10.968   6.074   3.655
47155SOL    HW143239  11.047   6.048   3.608
47155SOL    HW243240  10.998   6.092   3.744
47156SOL     OW43241   6.821  14.739  14.078
47156SOL    HW143242   6.893  14.677  14.069
47156SOL    HW243243   6.823  14.765  14.171
47157SOL     OW43244   4.772   2.429   2.311
47157SOL    HW143245   4.687   2.473   2.325
47157SOL    HW243246   4.748   2.340   2.285
47158SOL     OW43247   7.331   7.983   4.023
47158SOL    HW143248   7.395   7.924   4.065
47158SOL    HW243249   7.249   7.934   4.025
47159SOL     OW43250   5.797   2.922  12.018
47159SOL    HW143251   5.882   2.965  12.028
47159SOL    HW243252   5.803   2.845  12.075
47160SOL     OW43253   5.362  14.397  12.602
47160SOL    HW143254   5.347  14.469  12.663
47160SOL    HW243255   5.282  14.395  12.548
47161SOL     OW43256   1.021   4.138   5.718
47161SOL    HW143257   1.005   4.179   5.633
47161SOL    HW243258   0.939   4.095   5.740
47162SOL     OW43259   8.892   9.477   0.744
47162SOL    HW143260   8.876   9.476   0.838
47162SOL    HW243261   8.823   9.533   0.708
47163SOL     OW43262   0.240   3.087   7.762
47163SOL    HW143263   0.199   3.170   7.787
47163SOL    HW243264   0.189   3.020   7.807
47164SOL     OW43265   9.634  14.358  14.574
47164SOL    HW143266   9.696  14.290  14.547
47164SOL    HW243267   9.634  14.420  14.501
47165SOL     OW43268   7.363  10.758   3.673
47165SOL    HW143269   7.356  10.686   3.609
47165SOL    HW243270   7.451  10.749   3.709
47166SOL     OW43271   9.996  11.277   1.712
47166SOL    HW143272   9.908  11.244   1.697
47166SOL    HW243273  10.015  11.332   1.636
47167SOL     OW43274   3.747   0.809  13.218
47167SOL    HW143275   3.708   0.743  13.161
47167SOL    HW243276   3.673   0.864  13.245
47168SOL     OW43277  13.695  10.734   8.053
47168SOL    HW143278  13.719  10.649   8.091
47168SOL    HW243279  13.739  10.736   7.968
47169SOL     OW43280   0.124   4.808  10.457
47169SOL    HW143281   0.173   4.825  10.376
47169SOL    HW243282   0.104   4.894  10.491
47170SOL     OW43283   0.655   6.715  14.634
47170SOL    HW143284   0.719   6.712  14.705
47170SOL    HW243285   0.695   6.663  14.563
47171SOL     OW43286   7.453   6.018  13.027
47171SOL    HW143287   7.522   6.027  12.962
47171SOL    HW243288   7.385   5.966  12.984
47172SOL     OW43289  12.120   2.241  10.295
47172SOL    HW143290  12.075   2.259  10.377
47172SOL    HW243291  12.135   2.146  10.297
47173SOL     OW43292  10.896   8.969   5.369
47173SOL    HW143293  10.805   8.997   5.381
47173SOL    HW243294  10.892   8.873   5.373
47174SOL     OW43295   8.640  11.977   3.578
47174SOL    HW143296   8.641  11.977   3.673
47174SOL    HW243297   8.588  11.901   3.553
47175SOL     OW43298  13.549   2.280   7.049
47175SOL    HW143299  13.628   2.317   7.009
47175SOL    HW243300  13.516   2.218   6.985
47176SOL     OW43301   2.503   8.171   7.216
47176SOL    HW143302   2.463   8.087   7.197
47176SOL    HW243303   2.565   8.153   7.287
47177SOL     OW43304   7.339   0.170   9.114
47177SOL    HW143305   7.415   0.175   9.058
47177SOL    HW243306   7.356   0.094   9.170
47178SOL     OW43307   2.374   4.677   7.504
47178SOL    HW143308   2.458   4.710   7.470
47178SOL    HW243309   2.397   4.637   7.587
47179SOL     OW43310   7.290   0.026   8.058
47179SOL    HW143311   7.213   0.083   8.062
47179SOL    HW243312   7.364   0.087   8.064
47180SOL     OW43313   2.521   2.196   7.356
47180SOL    HW143314   2.442   2.160   7.394
47180SOL    HW243315   2.535   2.278   7.404
47181SOL     OW43316  10.572   7.918  10.748
47181SOL    HW143317  10.522   7.848  10.788
47181SOL    HW243318  10.620   7.875  10.676
47182SOL     OW43319   7.928   7.449   4.787
47182SOL    HW143320   7.946   7.474   4.878
47182SOL    HW243321   8.009   7.408   4.757
47183SOL     OW43322  10.930   5.166   1.882
47183SOL    HW143323  10.836   5.153   1.892
47183SOL    HW243324  10.955   5.219   1.958
47184SOL     OW43325   6.477   1.767   5.965
47184SOL    HW143326   6.549   1.708   5.988
47184SOL    HW243327   6.502   1.803   5.880
47185SOL     OW43328   9.710   1.820   1.199
47185SOL    HW143329   9.685   1.913   1.205
47185SOL    HW243330   9.790   1.820   1.148
47186SOL     OW43331   1.668  10.488   7.955
47186SOL    HW143332   1.751  10.483   8.002
47186SOL    HW243333   1.690  10.463   7.865
47187SOL     OW43334  12.881  10.345   5.157
47187SOL    HW143335  12.817  10.331   5.227
47187SOL    HW243336  12.929  10.263   5.151
47188SOL     OW43337   7.312  14.127   1.312
47188SOL    HW143338   7.300  14.218   1.339
47188SOL    HW243339   7.267  14.076   1.380
47189SOL     OW43340   1.143  13.657   9.758
47189SOL    HW143341   1.088  13.581   9.739
47189SOL    HW243342   1.231  13.629   9.732
47190SOL     OW43343   5.645   7.771   4.826
47190SOL    HW143344   5.723   7.753   4.879
47190SOL    HW243345   5.681   7.803   4.742
47191SOL     OW43346   3.986   0.504  13.444
47191SOL    HW143347   3.978   0.598  13.461
47191SOL    HW243348   3.905   0.481  13.399
47192SOL     OW43349  14.132  11.220   1.561
47192SOL    HW143350  14.176  11.218   1.476
47192SOL    HW243351  14.056  11.277   1.548
47193SOL     OW43352   5.190  13.541   8.922
47193SOL    HW143353   5.188  13.620   8.977
47193SOL    HW243354   5.201  13.469   8.984
47194SOL     OW43355  12.368   5.598   3.837
47194SOL    HW143356  12.347   5.669   3.777
47194SOL    HW243357  12.282   5.564   3.864
47195SOL     OW43358   4.387   7.760   6.109
47195SOL    HW143359   4.464   7.705   6.097
47195SOL    HW243360   4.418   7.849   6.092
47196SOL     OW43361   4.215   4.381   4.733
47196SOL    HW143362   4.224   4.285   4.733
47196SOL    HW243363   4.147   4.398   4.798
47197SOL     OW43364  11.497   5.385  12.907
47197SOL    HW143365  11.589   5.413  12.907
47197SOL    HW243366  11.450   5.457  12.950
47198SOL     OW43367  14.420   9.367   1.584
47198SOL    HW143368  14.473   9.288   1.596
47198SOL    HW243369  14.375   9.353   1.500
47199SOL     OW43370   4.209   5.481   5.485
47199SOL    HW143371   4.275   5.432   5.534
47199SOL    HW243372   4.259   5.544   5.434
47200SOL     OW43373   1.840   6.240  10.440
47200SOL    HW143374   1.881   6.154  10.454
47200SOL    HW243375   1.800   6.233  10.353
47201SOL     OW43376  13.053   3.338   9.641
47201SOL    HW143377  13.036   3.255   9.687
47201SOL    HW243378  13.020   3.323   9.552
47202SOL     OW43379   9.945   8.721  10.213
47202SOL    HW143380   9.961   8.815  10.206
47202SOL    HW243381   9.901   8.709  10.297
47203SOL     OW43382  12.578  12.175  11.815
47203SOL    HW143383  12.577  12.203  11.723
47203SOL    HW243384  12.531  12.092  11.815
47204SOL     OW43385  13.771  10.358   4.388
47204SOL    HW143386  13.775  10.385   4.480
47204SOL    HW243387  13.678  10.363   4.366
47205SOL     OW43388  10.627   8.283   1.054
47205SOL    HW143389  10.554   8.238   1.095
47205SOL    HW243390  10.614   8.269   0.960
47206SOL     OW43391  12.809   2.882  10.845
47206SOL    HW143392  12.772   2.927  10.769
47206SOL    HW243393  12.869   2.945  10.884
47207SOL     OW43394   4.957   6.004   1.223
47207SOL    HW143395   4.948   6.096   1.195
47207SOL    HW243396   5.022   5.968   1.163
47208SOL     OW43397   6.031  10.807   2.320
47208SOL    HW143398   6.113  10.817   2.368
47208SOL    HW243399   6.018  10.712   2.314
47209SOL     OW43400   6.186  13.140   1.258
47209SOL    HW143401   6.205  13.233   1.256
47209SOL    HW243402   6.240  13.103   1.188
47210SOL     OW43403  12.101   5.957   0.904
47210SOL    HW143404  12.089   5.943   0.998
47210SOL    HW243405  12.095   5.870   0.866
47211SOL     OW43406   9.206   9.952   2.281
47211SOL    HW143407   9.153   9.938   2.360
47211SOL    HW243408   9.148   9.998   2.221
47212SOL     OW43409   6.943   5.115   3.088
47212SOL    HW143410   6.885   5.140   3.159
47212SOL    HW243411   6.885   5.100   3.013
47213SOL     OW43412  13.609   9.592  11.124
47213SOL    HW143413  13.600   9.556  11.212
47213SOL    HW243414  13.702   9.615  11.117
47214SOL     OW43415   0.441   2.904   1.425
47214SOL    HW143416   0.397   2.889   1.509
47214SOL    HW243417   0.371   2.933   1.367
47215SOL     OW43418   1.035   4.768   9.242
47215SOL    HW143419   1.100   4.831   9.212
47215SOL    HW243420   1.081   4.683   9.240
47216SOL     OW43421   5.721   3.994  14.479
47216SOL    HW143422   5.793   4.000  14.417
47216SOL    HW243423   5.762   3.969  14.562
47217SOL     OW43424   9.245   5.399   9.818
47217SOL    HW143425   9.167   5.436   9.777
47217SOL    HW243426   9.317   5.422   9.759
47218SOL     OW43427  14.753   5.114   8.022
47218SOL    HW143428  14.795   5.071   7.947
47218SOL    HW243429  14.825   5.154   8.070
47219SOL     OW43430   0.569   6.104   5.204
47219SOL    HW143431   0.657   6.142   5.203
47219SOL    HW243432   0.584   6.010   5.215
47220SOL     OW43433   9.409   7.283  14.460
47220SOL    HW143434   9.391   7.326  14.544
47220SOL    HW243435   9.323   7.277  14.417
47221SOL     OW43436   1.945   8.180   2.677
47221SOL    HW143437   2.031   8.171   2.636
47221SOL    HW243438   1.961   8.236   2.753
47222SOL     OW43439  13.658   6.381   9.134
47222SOL    HW143440  13.578   6.411   9.092
47222SOL    HW243441  13.647   6.401   9.227
47223SOL     OW43442   3.098   0.138   7.629
47223SOL    HW143443   3.116   0.160   7.721
47223SOL    HW243444   3.136   0.211   7.579
47224SOL     OW43445   3.183   3.327   9.514
47224SOL    HW143446   3.255   3.344   9.576
47224SOL    HW243447   3.183   3.404   9.457
47225SOL     OW43448   6.184   5.368   1.697
47225SOL    HW143449   6.188   5.274   1.715
47225SOL    HW243450   6.193   5.374   1.602
47226SOL     OW43451   8.559   6.411  10.068
47226SOL    HW143452   8.632   6.368  10.022
47226SOL    HW243453   8.601   6.457  10.140
47227SOL     OW43454   6.472   3.809   0.913
47227SOL    HW143455   6.386   3.791   0.876
47227SOL    HW243456   6.497   3.893   0.874
47228SOL     OW43457  13.200   2.845  13.247
47228SOL    HW143458  13.106   2.857  13.236
47228SOL    HW243459  13.231   2.930  13.278
47229SOL     OW43460   1.563  13.748   5.620
47229SOL    HW143461   1.636  13.742   5.682
47229SOL    HW243462   1.602  13.732   5.534
47230SOL     OW43463  13.540   6.522   0.657
47230SOL    HW143464  13.459   6.479   0.684
47230SOL    HW243465  13.599   6.513   0.732
47231SOL     OW43466   6.518   4.882  14.458
47231SOL    HW143467   6.424   4.894  14.442
47231SOL    HW243468   6.557   4.965  14.430
47232SOL     OW43469  13.448   2.789  13.796
47232SOL    HW143470  13.526   2.735  13.807
47232SOL    HW243471  13.382   2.747  13.851
47233SOL     OW43472   4.491   3.377   4.555
47233SOL    HW143473   4.398   3.380   4.575
47233SOL    HW243474   4.517   3.286   4.573
47234SOL     OW43475   5.018   1.188   8.746
47234SOL    HW143476   4.974   1.122   8.692
47234SOL    HW243477   4.974   1.270   8.724
47235SOL     OW43478  11.970   2.631   8.081
47235SOL    HW143479  11.929   2.597   8.161
47235SOL    HW243480  11.896   2.657   8.026
47236SOL     OW43481  10.903  14.165   0.527
47236SOL    HW143482  10.837  14.219   0.570
47236SOL    HW243483  10.950  14.122   0.598
47237SOL     OW43484   6.759   8.961   0.811
47237SOL    HW143485   6.687   8.927   0.757
47237SOL    HW243486   6.787   8.885   0.862
47238SOL     OW43487  12.548   7.824   6.352
47238SOL    HW143488  12.548   7.856   6.262
47238SOL    HW243489  12.640   7.800   6.369
47239SOL     OW43490  12.976   2.611  14.640
47239SOL    HW143491  12.891   2.577  14.612
47239SOL    HW243492  13.007   2.663  14.566
47240SOL     OW43493   5.699   1.467   9.747
47240SOL    HW143494   5.609   1.449   9.774
47240SOL    HW243495   5.752   1.406   9.799
47241SOL     OW43496   2.223  13.807   4.132
47241SOL    HW143497   2.132  13.824   4.105
47241SOL    HW243498   2.223  13.716   4.159
47242SOL     OW43499   1.348   6.332   8.811
47242SOL    HW143500   1.270   6.385   8.828
47242SOL    HW243501   1.405   6.349   8.885
47243SOL     OW43502   2.913   3.670  12.858
47243SOL    HW143503   2.828   3.630  12.879
47243SOL    HW243504   2.894   3.732  12.788
47244SOL     OW43505  13.300   6.483   4.012
47244SOL    HW143506  13.300   6.441   3.926
47244SOL    HW243507  13.207   6.491   4.035
47245SOL     OW43508  14.702   4.356   9.362
47245SOL    HW143509  14.724   4.424   9.298
47245SOL    HW243510  14.764   4.285   9.344
47246SOL     OW43511   3.326   3.966   1.152
47246SOL    HW143512   3.408   3.918   1.142
47246SOL    HW243513   3.316   3.976   1.247
47247SOL     OW43514   1.810  12.957  10.803
47247SOL    HW143515   1.870  12.882  10.795
47247SOL    HW243516   1.868  13.032  10.818
47248SOL     OW43517   4.695   5.238   1.629
47248SOL    HW143518   4.713   5.238   1.535
47248SOL    HW243519   4.689   5.331   1.652
47249SOL     OW43520  13.872   5.951   3.901
47249SOL    HW143521  13.785   5.950   3.940
47249SOL    HW243522  13.878   5.869   3.852
47250SOL     OW43523   4.353   0.706  12.103
47250SOL    HW143524   4.356   0.615  12.073
47250SOL    HW243525   4.265   0.718  12.138
47251SOL     OW43526   1.327  12.414   1.075
47251SOL    HW143527   1.280  12.351   1.129
47251SOL    HW243528   1.327  12.376   0.987
47252SOL     OW43529   2.654  10.805  12.084
47252SOL    HW143530   2.668  10.835  12.174
47252SOL    HW243531   2.732  10.752  12.065
47253SOL     OW43532   3.204   0.717  11.202
47253SOL    HW143533   3.261   0.751  11.271
47253SOL    HW243534   3.208   0.784  11.134
47254SOL     OW43535   5.529   6.232   0.737
47254SOL    HW143536   5.575   6.301   0.690
47254SOL    HW243537   5.488   6.276   0.811
47255SOL     OW43538   7.261   7.692   8.239
47255SOL    HW143539   7.281   7.687   8.146
47255SOL    HW243540   7.331   7.643   8.282
47256SOL     OW43541   3.593   4.767   4.060
47256SOL    HW143542   3.578   4.673   4.071
47256SOL    HW243543   3.515   4.799   4.015
47257SOL     OW43544   4.077  11.374   2.830
47257SOL    HW143545   4.015  11.398   2.762
47257SOL    HW243546   4.161  11.410   2.801
47258SOL     OW43547   2.595   4.517  13.815
47258SOL    HW143548   2.524   4.578  13.836
47258SOL    HW243549   2.621   4.541  13.726
47259SOL     OW43550   1.890  11.353  12.699
47259SOL    HW143551   1.967  11.410  12.704
47259SOL    HW243552   1.910  11.282  12.759
47260SOL     OW43553   2.790   7.640   9.989
47260SOL    HW143554   2.723   7.691   9.943
47260SOL    HW243555   2.831   7.587   9.920
47261SOL     OW43556   9.118  11.891  12.633
47261SOL    HW143557   9.142  11.918  12.544
47261SOL    HW243558   9.042  11.946  12.655
47262SOL     OW43559  11.498   7.167   7.567
47262SOL    HW143560  11.489   7.253   7.526
47262SOL    HW243561  11.443   7.172   7.646
47263SOL     OW43562   7.490   1.305   9.872
47263SOL    HW143563   7.567   1.310   9.929
47263SOL    HW243564   7.461   1.214   9.878
47264SOL     OW43565   9.342  10.903   8.103
47264SOL    HW143566   9.380  10.941   8.182
47264SOL    HW243567   9.247  10.904   8.119
47265SOL     OW43568   1.943   2.608  14.763
47265SOL    HW143569   1.928   2.616  14.858
47265SOL    HW243570   1.940   2.514  14.746
47266SOL     OW43571   3.658  12.101   1.855
47266SOL    HW143572   3.713  12.157   1.800
47266SOL    HW243573   3.707  12.019   1.862
47267SOL     OW43574   6.561   1.120   3.996
47267SOL    HW143575   6.490   1.101   4.058
47267SOL    HW243576   6.598   1.203   4.025
47268SOL     OW43577   3.542   5.358   9.070
47268SOL    HW143578   3.589   5.332   9.149
47268SOL    HW243579   3.508   5.445   9.089
47269SOL     OW43580   5.441   0.139   8.547
47269SOL    HW143581   5.455   0.225   8.507
47269SOL    HW243582   5.519   0.124   8.600
47270SOL     OW43583   2.055   8.440   2.896
47270SOL    HW143584   2.115   8.478   2.831
47270SOL    HW243585   1.983   8.503   2.902
47271SOL     OW43586  12.490   2.200  13.135
47271SOL    HW143587  12.400   2.174  13.119
47271SOL    HW243588  12.503   2.277  13.079
47272SOL     OW43589   9.363   5.337  14.450
47272SOL    HW143590   9.320   5.291  14.523
47272SOL    HW243591   9.340   5.429  14.462
47273SOL     OW43592   1.241  12.029   9.056
47273SOL    HW143593   1.320  11.979   9.075
47273SOL    HW243594   1.171  11.964   9.056
47274SOL     OW43595  13.561  11.440   4.111
47274SOL    HW143596  13.622  11.404   4.047
47274SOL    HW243597  13.475  11.407   4.082
47275SOL     OW43598  10.236   3.380   2.237
47275SOL    HW143599  10.247   3.327   2.316
47275SOL    HW243600  10.145   3.363   2.210
47276SOL     OW43601   5.742  13.795   3.174
47276SOL    HW143602   5.662  13.780   3.225
47276SOL    HW243603   5.794  13.853   3.230
47277SOL     OW43604   3.434   7.297   2.368
47277SOL    HW143605   3.488   7.223   2.393
47277SOL    HW243606   3.401   7.332   2.451
47278SOL     OW43607  13.019  10.513  13.550
47278SOL    HW143608  13.111  10.487  13.548
47278SOL    HW243609  12.974  10.437  13.588
47279SOL     OW43610   3.068   8.428   4.375
47279SOL    HW143611   3.085   8.412   4.282
47279SOL    HW243612   3.140   8.385   4.420
47280SOL     OW43613   9.100   7.649   3.499
47280SOL    HW143614   9.045   7.724   3.478
47280SOL    HW243615   9.095   7.640   3.594
47281SOL     OW43616  14.648  14.212   6.135
47281SOL    HW143617  14.684  14.300   6.122
47281SOL    HW243618  14.683  14.161   6.063
47282SOL     OW43619   4.952   1.735  11.315
47282SOL    HW143620   4.929   1.644  11.334
47282SOL    HW243621   5.047   1.737  11.315
47283SOL     OW43622   2.849   6.068   2.466
47283SOL    HW143623   2.782   6.099   2.405
47283SOL    HW243624   2.865   6.142   2.524
47284SOL     OW43625   5.149  11.381   9.566
47284SOL    HW143626   5.098  11.336   9.633
47284SOL    HW243627   5.126  11.473   9.576
47285SOL     OW43628   5.104   4.427   1.848
47285SOL    HW143629   5.069   4.360   1.906
47285SOL    HW243630   5.183   4.388   1.810
47286SOL     OW43631  12.888   9.319   4.382
47286SOL    HW143632  12.937   9.368   4.448
47286SOL    HW243633  12.832   9.260   4.433
47287SOL     OW43634   5.135   2.777   7.674
47287SOL    HW143635   5.145   2.765   7.769
47287SOL    HW243636   5.219   2.815   7.647
47288SOL     OW43637   9.919  11.487   2.996
47288SOL    HW143638   9.979  11.445   2.935
47288SOL    HW243639   9.970  11.498   3.076
47289SOL     OW43640   1.477  12.849   6.655
47289SOL    HW143641   1.525  12.767   6.658
47289SOL    HW243642   1.536  12.910   6.611
47290SOL     OW43643  14.393   2.838   1.204
47290SOL    HW143644  14.314   2.834   1.149
47290SOL    HW243645  14.360   2.862   1.291
47291SOL     OW43646   2.841   8.467   8.266
47291SOL    HW143647   2.747   8.471   8.250
47291SOL    HW243648   2.854   8.517   8.347
47292SOL     OW43649   2.512  12.027   5.957
47292SOL    HW143650   2.573  12.022   6.031
47292SOL    HW243651   2.480  11.938   5.947
47293SOL     OW43652   4.207  13.669   3.480
47293SOL    HW143653   4.276  13.727   3.515
47293SOL    HW243654   4.132  13.683   3.538
47294SOL     OW43655   3.286   5.599   7.062
47294SOL    HW143656   3.227   5.549   7.119
47294SOL    HW243657   3.367   5.548   7.060
47295SOL     OW43658   9.445   6.257  13.003
47295SOL    HW143659   9.529   6.298  13.024
47295SOL    HW243660   9.464   6.205  12.924
47296SOL     OW43661  10.757   1.603  14.188
47296SOL    HW143662  10.847   1.621  14.216
47296SOL    HW243663  10.745   1.510  14.206
47297SOL     OW43664  10.195  13.696  10.815
47297SOL    HW143665  10.253  13.659  10.749
47297SOL    HW243666  10.252  13.719  10.888
47298SOL     OW43667  10.716   8.739  12.826
47298SOL    HW143668  10.645   8.771  12.771
47298SOL    HW243669  10.676   8.726  12.913
47299SOL     OW43670  11.727   3.346   2.524
47299SOL    HW143671  11.633   3.332   2.531
47299SOL    HW243672  11.761   3.264   2.488
47300SOL     OW43673  12.406   9.843   7.266
47300SOL    HW143674  12.485   9.898   7.264
47300SOL    HW243675  12.336   9.901   7.237
47301SOL     OW43676   1.767   1.448   1.812
47301SOL    HW143677   1.768   1.448   1.908
47301SOL    HW243678   1.851   1.486   1.787
47302SOL     OW43679  11.425  11.082  10.256
47302SOL    HW143680  11.493  11.017  10.270
47302SOL    HW243681  11.343  11.033  10.265
47303SOL     OW43682  12.221   2.219   1.221
47303SOL    HW143683  12.251   2.144   1.273
47303SOL    HW243684  12.155   2.182   1.162
47304SOL     OW43685   7.051  10.122   6.577
47304SOL    HW143686   7.104  10.200   6.586
47304SOL    HW243687   7.107  10.060   6.529
47305SOL     OW43688  13.469   9.747  10.130
47305SOL    HW143689  13.424   9.831  10.124
47305SOL    HW243690  13.560   9.771  10.150
47306SOL     OW43691   0.520  14.118   4.222
47306SOL    HW143692   0.484  14.134   4.309
47306SOL    HW243693   0.581  14.190   4.208
47307SOL     OW43694  14.870  11.345  14.400
47307SOL    HW143695   0.019  11.357  14.491
47307SOL    HW243696   0.037  11.414  14.352
47308SOL     OW43697   3.698   5.683   2.415
47308SOL    HW143698   3.737   5.740   2.348
47308SOL    HW243699   3.605   5.681   2.394
47309SOL     OW43700  13.155   8.511   3.933
47309SOL    HW143701  13.246   8.531   3.954
47309SOL    HW243702  13.146   8.535   3.841
47310SOL     OW43703   8.302   8.717  12.690
47310SOL    HW143704   8.371   8.650  12.688
47310SOL    HW243705   8.321   8.773  12.615
47311SOL     OW43706   6.066   9.867   6.980
47311SOL    HW143707   6.162   9.864   6.982
47311SOL    HW243708   6.045   9.960   6.981
47312SOL     OW43709   8.885   7.755  11.319
47312SOL    HW143710   8.927   7.726  11.400
47312SOL    HW243711   8.804   7.797  11.347
47313SOL     OW43712  12.062  13.168   4.992
47313SOL    HW143713  12.082  13.235   5.057
47313SOL    HW243714  11.967  13.156   4.998
47314SOL     OW43715   1.743   0.324   0.125
47314SOL    HW143716   1.712   0.283   0.206
47314SOL    HW243717   1.838   0.328   0.135
47315SOL     OW43718  13.910  11.136   8.778
47315SOL    HW143719  13.914  11.170   8.689
47315SOL    HW243720  13.818  11.146   8.804
47316SOL     OW43721   1.329   1.487   1.949
47316SOL    HW143722   1.292   1.412   1.904
47316SOL    HW243723   1.405   1.452   1.996
47317SOL     OW43724   1.481   5.483   7.194
47317SOL    HW143725   1.399   5.513   7.154
47317SOL    HW243726   1.453   5.422   7.262
47318SOL     OW43727   0.897  11.466   0.004
47318SOL    HW143728   0.936  11.454  14.795
47318SOL    HW243729   0.865  11.379   0.028
47319SOL     OW43730   1.418   2.390   6.518
47319SOL    HW143731   1.510   2.367   6.532
47319SOL    HW243732   1.420   2.453   6.445
47320SOL     OW43733   9.066  14.600   0.045
47320SOL    HW143734   9.134  14.667   0.052
47320SOL    HW243735   9.023  14.601   0.131
47321SOL     OW43736  12.961   7.942   5.692
47321SOL    HW143737  12.995   7.858   5.721
47321SOL    HW243738  12.966   7.939   5.596
47322SOL     OW43739   5.082   9.946   9.118
47322SOL    HW143740   5.008   9.961   9.059
47322SOL    HW243741   5.042   9.933   9.204
47323SOL     OW43742  14.508  14.231   4.704
47323SOL    HW143743  14.536  14.149   4.746
47323SOL    HW243744  14.493  14.207   4.613
47324SOL     OW43745   3.904   9.515  10.148
47324SOL    HW143746   3.822   9.481  10.185
47324SOL    HW243747   3.918   9.463  10.069
47325SOL     OW43748  14.025   1.916  14.100
47325SOL    HW143749  13.946   1.900  14.048
47325SOL    HW243750  14.068   1.831  14.104
47326SOL     OW43751   2.553  14.448   8.059
47326SOL    HW143752   2.509  14.363   8.059
47326SOL    HW243753   2.630  14.435   8.004
47327SOL     OW43754   8.677   2.972   4.079
47327SOL    HW143755   8.643   2.883   4.078
47327SOL    HW243756   8.747   2.971   4.145
47328SOL     OW43757   9.808   5.241   5.569
47328SOL    HW143758   9.741   5.287   5.618
47328SOL    HW243759   9.868   5.309   5.540
47329SOL     OW43760   0.673  10.122  11.336
47329SOL    HW143761   0.591  10.133  11.288
47329SOL    HW243762   0.689  10.028  11.336
47330SOL     OW43763   2.891  11.905   2.126
47330SOL    HW143764   2.814  11.874   2.080
47330SOL    HW243765   2.859  11.974   2.184
47331SOL     OW43766   3.457  10.338  10.963
47331SOL    HW143767   3.453  10.423  10.918
47331SOL    HW243768   3.550  10.315  10.963
47332SOL     OW43769   7.933   8.714   8.833
47332SOL    HW143770   7.888   8.634   8.807
47332SOL    HW243771   8.026   8.693   8.825
47333SOL     OW43772  11.564   0.344   8.346
47333SOL    HW143773  11.596   0.350   8.255
47333SOL    HW243774  11.643   0.356   8.399
47334SOL     OW43775  11.402  10.688   3.767
47334SOL    HW143776  11.411  10.624   3.837
47334SOL    HW243777  11.343  10.754   3.802
47335SOL     OW43778   3.550  12.889   7.159
47335SOL    HW143779   3.579  12.811   7.111
47335SOL    HW243780   3.628  12.944   7.165
47336SOL     OW43781  12.684   6.421   8.888
47336SOL    HW143782  12.745   6.352   8.860
47336SOL    HW243783  12.629   6.378   8.954
47337SOL     OW43784   0.827   3.881   8.354
47337SOL    HW143785   0.865   3.795   8.372
47337SOL    HW243786   0.888   3.943   8.392
47338SOL     OW43787  13.870   2.963  13.222
47338SOL    HW143788  13.910   2.889  13.176
47338SOL    HW243789  13.785   2.931  13.251
47339SOL     OW43790   9.817   1.494  10.129
47339SOL    HW143791   9.770   1.536  10.201
47339SOL    HW243792   9.749   1.473  10.065
47340SOL     OW43793   3.126   3.040  10.131
47340SOL    HW143794   3.162   2.995  10.208
47340SOL    HW243795   3.035   3.012  10.127
47341SOL     OW43796   5.976   6.694  10.751
47341SOL    HW143797   5.960   6.712  10.843
47341SOL    HW243798   6.070   6.709  10.739
47342SOL     OW43799   1.156   0.340  11.696
47342SOL    HW143800   1.228   0.385  11.651
47342SOL    HW243801   1.150   0.383  11.781
47343SOL     OW43802  10.767   0.045   5.362
47343SOL    HW143803  10.826  14.863   5.406
47343SOL    HW243804  10.680   0.007   5.374
47344SOL     OW43805   1.330   6.132   3.711
47344SOL    HW143806   1.376   6.120   3.794
47344SOL    HW243807   1.274   6.055   3.702
47345SOL     OW43808   3.867  11.354  13.084
47345SOL    HW143809   3.809  11.319  13.017
47345SOL    HW243810   3.821  11.431  13.118
47346SOL     OW43811   4.005  12.403   4.288
47346SOL    HW143812   3.916  12.438   4.288
47346SOL    HW243813   4.029  12.397   4.381
47347SOL     OW43814   8.318  13.217   7.736
47347SOL    HW143815   8.378  13.200   7.663
47347SOL    HW243816   8.368  13.192   7.814
47348SOL     OW43817   4.645   1.830   9.424
47348SOL    HW143818   4.613   1.741   9.407
47348SOL    HW243819   4.579   1.886   9.383
47349SOL     OW43820   3.531   6.778   4.828
47349SOL    HW143821   3.441   6.759   4.803
47349SOL    HW243822   3.581   6.703   4.798
47350SOL     OW43823   4.345   4.791  12.328
47350SOL    HW143824   4.388   4.817  12.410
47350SOL    HW243825   4.345   4.695  12.332
47351SOL     OW43826   2.637   1.352  11.137
47351SOL    HW143827   2.655   1.377  11.046
47351SOL    HW243828   2.648   1.433  11.187
47352SOL     OW43829   6.928   9.359   0.869
47352SOL    HW143830   6.862   9.392   0.930
47352SOL    HW243831   6.951   9.435   0.815
47353SOL     OW43832   5.674   4.707   6.695
47353SOL    HW143833   5.745   4.661   6.652
47353SOL    HW243834   5.713   4.789   6.726
47354SOL     OW43835   1.153  10.840   6.844
47354SOL    HW143836   1.107  10.904   6.788
47354SOL    HW243837   1.093  10.825   6.917
47355SOL     OW43838  12.675  12.177   9.963
47355SOL    HW143839  12.712  12.096   9.928
47355SOL    HW243840  12.717  12.246   9.912
47356SOL     OW43841  12.773  10.507   4.943
47356SOL    HW143842  12.810  10.448   5.009
47356SOL    HW243843  12.788  10.463   4.860
47357SOL     OW43844   5.348  12.614   4.315
47357SOL    HW143845   5.373  12.647   4.401
47357SOL    HW243846   5.323  12.692   4.265
47358SOL     OW43847  12.957   6.753  10.465
47358SOL    HW143848  12.862   6.762  10.466
47358SOL    HW243849  12.982   6.774  10.375
47359SOL     OW43850   5.068   3.150   2.258
47359SOL    HW143851   5.131   3.184   2.195
47359SOL    HW243852   5.099   3.182   2.343
47360SOL     OW43853   4.880   6.793   2.757
47360SOL    HW143854   4.926   6.832   2.832
47360SOL    HW243855   4.856   6.868   2.702
47361SOL     OW43856  14.569   8.779  10.242
47361SOL    HW143857  14.599   8.757  10.154
47361SOL    HW243858  14.627   8.730  10.300
47362SOL     OW43859  13.399   4.950   3.032
47362SOL    HW143860  13.440   4.875   2.990
47362SOL    HW243861  13.465   4.984   3.092
47363SOL     OW43862   8.328   7.958   1.571
47363SOL    HW143863   8.337   7.990   1.481
47363SOL    HW243864   8.406   7.904   1.585
47364SOL     OW43865   7.031   2.187   0.800
47364SOL    HW143866   7.073   2.274   0.801
47364SOL    HW243867   7.103   2.126   0.788
47365SOL     OW43868   2.184   2.356   2.076
47365SOL    HW143869   2.132   2.308   2.140
47365SOL    HW243870   2.254   2.295   2.051
47366SOL     OW43871   7.636   0.736   5.559
47366SOL    HW143872   7.662   0.707   5.647
47366SOL    HW243873   7.561   0.795   5.575
47367SOL     OW43874   1.063   0.156   4.535
47367SOL    HW143875   1.006   0.200   4.472
47367SOL    HW243876   1.055   0.064   4.514
47368SOL     OW43877   2.962  10.669   7.728
47368SOL    HW143878   2.871  10.640   7.718
47368SOL    HW243879   2.986  10.641   7.817
47369SOL     OW43880   6.994   1.338  14.772
47369SOL    HW143881   7.087   1.319  14.782
47369SOL    HW243882   6.968   1.292  14.692
47370SOL     OW43883   7.424   4.181   0.082
47370SOL    HW143884   7.339   4.144   0.102
47370SOL    HW243885   7.461   4.124   0.015
47371SOL     OW43886   8.844  10.962  12.192
47371SOL    HW143887   8.904  11.036  12.182
47371SOL    HW243888   8.893  10.887  12.158
47372SOL     OW43889  13.805  13.558   4.463
47372SOL    HW143890  13.740  13.539   4.532
47372SOL    HW243891  13.879  13.502   4.485
47373SOL     OW43892   8.161   8.896  10.030
47373SOL    HW143893   8.220   8.961  10.069
47373SOL    HW243894   8.206   8.868   9.951
47374SOL     OW43895  13.873  14.651   3.375
47374SOL    HW143896  13.787  14.611   3.389
47374SOL    HW243897  13.891  14.698   3.456
47375SOL     OW43898   4.771   4.244   6.714
47375SOL    HW143899   4.755   4.327   6.759
47375SOL    HW243900   4.777   4.267   6.621
47376SOL     OW43901   6.562  13.693   6.633
47376SOL    HW143902   6.591  13.618   6.581
47376SOL    HW243903   6.532  13.655   6.716
47377SOL     OW43904   4.630   9.561   6.663
47377SOL    HW143905   4.661   9.511   6.588
47377SOL    HW243906   4.699   9.624   6.681
47378SOL     OW43907  12.160   0.875   8.286
47378SOL    HW143908  12.223   0.895   8.217
47378SOL    HW243909  12.130   0.961   8.316
47379SOL     OW43910   5.718   9.021   1.449
47379SOL    HW143911   5.804   9.060   1.432
47379SOL    HW243912   5.669   9.035   1.368
47380SOL     OW43913   2.208   6.588  13.687
47380SOL    HW143914   2.122   6.561  13.656
47380SOL    HW243915   2.236   6.519  13.746
47381SOL     OW43916   9.181   6.601  13.724
47381SOL    HW143917   9.172   6.617  13.630
47381SOL    HW243918   9.201   6.687  13.761
47382SOL     OW43919   1.548   1.938   3.624
47382SOL    HW143920   1.581   1.982   3.546
47382SOL    HW243921   1.462   1.905   3.598
47383SOL     OW43922  12.937   0.431   1.561
47383SOL    HW143923  12.956   0.438   1.467
47383SOL    HW243924  12.917   0.520   1.588
47384SOL     OW43925   5.294   4.056   9.638
47384SOL    HW143926   5.226   4.049   9.570
47384SOL    HW243927   5.374   4.024   9.595
47385SOL     OW43928  11.854  10.893   7.223
47385SOL    HW143929  11.801  10.963   7.262
47385SOL    HW243930  11.909  10.938   7.158
47386SOL     OW43931  14.634  14.020  10.186
47386SOL    HW143932  14.571  13.950  10.171
47386SOL    HW243933  14.592  14.077  10.250
47387SOL     OW43934   2.622  12.796   3.357
47387SOL    HW143935   2.559  12.782   3.427
47387SOL    HW243936   2.654  12.709   3.334
47388SOL     OW43937   9.621   2.197  11.523
47388SOL    HW143938   9.632   2.229  11.612
47388SOL    HW243939   9.629   2.102  11.530
47389SOL     OW43940   6.840   2.351  12.910
47389SOL    HW143941   6.862   2.416  12.843
47389SOL    HW243942   6.798   2.402  12.980
47390SOL     OW43943  13.663   3.081  14.469
47390SOL    HW143944  13.704   3.116  14.548
47390SOL    HW243945  13.664   3.155  14.407
47391SOL     OW43946  13.152   4.786   4.890
47391SOL    HW143947  13.084   4.831   4.840
47391SOL    HW243948  13.105   4.719   4.940
47392SOL     OW43949   9.386   3.180  12.311
47392SOL    HW143950   9.347   3.118  12.372
47392SOL    HW243951   9.378   3.265  12.353
47393SOL     OW43952   2.436   9.158  13.159
47393SOL    HW143953   2.517   9.201  13.133
47393SOL    HW243954   2.368   9.204  13.110
47394SOL     OW43955   5.668  10.208   5.217
47394SOL    HW143956   5.580  10.173   5.201
47394SOL    HW243957   5.722  10.131   5.234
47395SOL     OW43958  10.833   3.552  11.546
47395SOL    HW143959  10.912   3.499  11.558
47395SOL    HW243960  10.816   3.549  11.452
47396SOL     OW43961   0.888   9.603  13.441
47396SOL    HW143962   0.856   9.538  13.379
47396SOL    HW243963   0.869   9.566  13.527
47397SOL     OW43964   3.313   4.470  13.802
47397SOL    HW143965   3.226   4.499  13.773
47397SOL    HW243966   3.340   4.537  13.864
47398SOL     OW43967  11.486   5.524   6.498
47398SOL    HW143968  11.448   5.584   6.433
47398SOL    HW243969  11.436   5.443   6.487
47399SOL     OW43970  12.412   7.019  11.445
47399SOL    HW143971  12.483   7.007  11.381
47399SOL    HW243972  12.359   6.940  11.436
47400SOL     OW43973   4.982   4.701  11.982
47400SOL    HW143974   5.060   4.756  11.975
47400SOL    HW243975   4.963   4.674  11.892
47401SOL     OW43976  13.999   2.792   5.640
47401SOL    HW143977  13.926   2.730   5.649
47401SOL    HW243978  13.973   2.850   5.569
47402SOL     OW43979   0.977   3.374  13.814
47402SOL    HW143980   1.060   3.420  13.827
47402SOL    HW243981   0.962   3.377  13.719
47403SOL     OW43982  13.600  11.599   1.326
47403SOL    HW143983  13.665  11.530   1.326
47403SOL    HW243984  13.550  11.586   1.245
47404SOL     OW43985   3.805   4.011  10.647
47404SOL    HW143986   3.806   3.969  10.733
47404SOL    HW243987   3.857   3.953  10.592
47405SOL     OW43988  10.431   2.887  12.167
47405SOL    HW143989  10.358   2.828  12.149
47405SOL    HW243990  10.442   2.883  12.262
47406SOL     OW43991  10.400   0.412   8.549
47406SOL    HW143992  10.389   0.501   8.517
47406SOL    HW243993  10.310   0.377   8.552
47407SOL     OW43994   8.152   2.205  11.907
47407SOL    HW143995   8.205   2.246  11.976
47407SOL    HW243996   8.110   2.278  11.862
47408SOL     OW43997   3.834  13.340   7.346
47408SOL    HW143998   3.921  13.380   7.346
47408SOL    HW243999   3.818  13.315   7.437
47409SOL     OW44000  14.281   5.766   6.369
47409SOL    HW144001  14.240   5.685   6.338
47409SOL    HW244002  14.210   5.831   6.366
47410SOL     OW44003   9.385   2.822  12.809
47410SOL    HW144004   9.453   2.775  12.761
47410SOL    HW244005   9.306   2.769  12.795
47411SOL     OW44006   6.849   9.401   9.160
47411SOL    HW144007   6.912   9.391   9.088
47411SOL    HW244008   6.796   9.477   9.136
47412SOL     OW44009   9.174  14.655   8.013
47412SOL    HW144010   9.230  14.673   7.938
47412SOL    HW244011   9.143  14.740   8.042
47413SOL     OW44012   7.158   3.909   4.645
47413SOL    HW144013   7.204   3.968   4.585
47413SOL    HW244014   7.118   3.843   4.588
47414SOL     OW44015   7.235   8.241  12.805
47414SOL    HW144016   7.287   8.194  12.740
47414SOL    HW244017   7.178   8.299  12.755
47415SOL     OW44018   4.174   9.095   2.132
47415SOL    HW144019   4.187   9.189   2.117
47415SOL    HW244020   4.121   9.065   2.059
47416SOL     OW44021  10.395   7.806   8.960
47416SOL    HW144022  10.370   7.880   8.905
47416SOL    HW244023  10.429   7.845   9.040
47417SOL     OW44024  10.560  11.762   5.412
47417SOL    HW144025  10.547  11.685   5.356
47417SOL    HW244026  10.594  11.726   5.494
47418SOL     OW44027   5.194   8.930   3.959
47418SOL    HW144028   5.101   8.951   3.970
47418SOL    HW244029   5.240   9.012   3.979
47419SOL     OW44030   5.149   5.188  13.853
47419SOL    HW144031   5.078   5.177  13.916
47419SOL    HW244032   5.170   5.282  13.857
47420SOL     OW44033  10.858   4.562   7.223
47420SOL    HW144034  10.867   4.501   7.149
47420SOL    HW244035  10.808   4.512   7.288
47421SOL     OW44036   4.923  13.530   2.430
47421SOL    HW144037   4.881  13.445   2.441
47421SOL    HW244038   5.004  13.511   2.382
47422SOL     OW44039   4.881  11.202   2.135
47422SOL    HW144040   4.924  11.270   2.083
47422SOL    HW244041   4.936  11.193   2.213
47423SOL     OW44042   2.632   5.406   2.538
47423SOL    HW144043   2.693   5.418   2.611
47423SOL    HW244044   2.659   5.471   2.473
47424SOL     OW44045   6.959   3.521   2.365
47424SOL    HW144046   6.971   3.540   2.458
47424SOL    HW244047   6.911   3.597   2.331
47425SOL     OW44048  11.893   7.436  13.858
47425SOL    HW144049  11.856   7.381  13.927
47425SOL    HW244050  11.879   7.526  13.887
47426SOL     OW44051   7.359  12.453   4.370
47426SOL    HW144052   7.331  12.526   4.316
47426SOL    HW244053   7.435  12.417   4.324
47427SOL     OW44054  11.649  10.289   2.159
47427SOL    HW144055  11.740  10.302   2.183
47427SOL    HW244056  11.609  10.250   2.237
47428SOL     OW44057   2.458   9.114   5.084
47428SOL    HW144058   2.510   9.111   5.003
47428SOL    HW244059   2.492   9.041   5.136
47429SOL     OW44060   2.281   7.110  10.833
47429SOL    HW144061   2.222   7.161  10.777
47429SOL    HW244062   2.353   7.170  10.854
47430SOL     OW44063  11.399   9.030   9.559
47430SOL    HW144064  11.380   8.936   9.570
47430SOL    HW244065  11.338   9.058   9.490
47431SOL     OW44066   2.377  10.940   6.913
47431SOL    HW144067   2.343  10.851   6.924
47431SOL    HW244068   2.334  10.973   6.834
47432SOL     OW44069   1.045   8.307  10.947
47432SOL    HW144070   1.047   8.397  10.981
47432SOL    HW244071   1.105   8.258  11.003
47433SOL     OW44072   2.815   3.223   1.436
47433SOL    HW144073   2.736   3.205   1.486
47433SOL    HW244074   2.815   3.318   1.424
47434SOL     OW44075   1.359   7.500   4.224
47434SOL    HW144076   1.426   7.433   4.212
47434SOL    HW244077   1.282   7.467   4.178
47435SOL     OW44078  12.052  11.810   9.148
47435SOL    HW144079  12.117  11.776   9.087
47435SOL    HW244080  12.033  11.737   9.207
47436SOL     OW44081   2.424   2.477   4.129
47436SOL    HW144082   2.499   2.475   4.189
47436SOL    HW244083   2.440   2.552   4.072
47437SOL     OW44084   9.114   2.854  10.543
47437SOL    HW144085   9.123   2.840  10.448
47437SOL    HW244086   9.079   2.943  10.550
47438SOL     OW44087   4.134   8.629  13.222
47438SOL    HW144088   4.073   8.559  13.247
47438SOL    HW244089   4.206   8.584  13.177
47439SOL     OW44090   9.116   1.642   3.046
47439SOL    HW144091   9.149   1.724   3.009
47439SOL    HW244092   9.025   1.638   3.017
47440SOL     OW44093   4.195   8.098   8.527
47440SOL    HW144094   4.236   8.093   8.440
47440SOL    HW244095   4.214   8.012   8.566
47441SOL     OW44096  13.687   0.979  14.417
47441SOL    HW144097  13.696   1.050  14.354
47441SOL    HW244098  13.592   0.969  14.429
47442SOL     OW44099   9.937   9.715   3.483
47442SOL    HW144100   9.881   9.637   3.478
47442SOL    HW244101   9.965   9.718   3.574
47443SOL     OW44102   1.216   2.741  11.707
47443SOL    HW144103   1.262   2.762  11.789
47443SOL    HW244104   1.125   2.726  11.734
47444SOL     OW44105   1.090  11.103   4.184
47444SOL    HW144106   1.137  11.186   4.196
47444SOL    HW244107   1.109  11.078   4.094
47445SOL     OW44108  10.350   0.421  12.202
47445SOL    HW144109  10.326   0.351  12.262
47445SOL    HW244110  10.270   0.474  12.193
47446SOL     OW44111   6.934   1.130   4.076
47446SOL    HW144112   6.892   1.054   4.116
47446SOL    HW244113   6.864   1.177   4.031
47447SOL     OW44114  10.546   3.737   7.132
47447SOL    HW144115  10.530   3.685   7.211
47447SOL    HW244116  10.560   3.672   7.063
47448SOL     OW44117   7.406   9.588  11.820
47448SOL    HW144118   7.420   9.683  11.821
47448SOL    HW244119   7.413   9.565  11.727
47449SOL     OW44120   5.633   7.345   2.587
47449SOL    HW144121   5.607   7.301   2.507
47449SOL    HW244122   5.720   7.380   2.569
47450SOL     OW44123   1.635   9.980   8.073
47450SOL    HW144124   1.602  10.069   8.065
47450SOL    HW244125   1.715   9.988   8.126
47451SOL     OW44126   0.570  13.597   3.157
47451SOL    HW144127   0.491  13.649   3.139
47451SOL    HW244128   0.539  13.508   3.168
47452SOL     OW44129   8.813   5.921  12.441
47452SOL    HW144130   8.899   5.944  12.408
47452SOL    HW244131   8.763   5.894  12.364
47453SOL     OW44132   1.305   7.924  13.615
47453SOL    HW144133   1.307   7.999  13.555
47453SOL    HW244134   1.241   7.948  13.682
47454SOL     OW44135   9.456  11.178  12.037
47454SOL    HW144136   9.468  11.227  11.955
47454SOL    HW244137   9.406  11.100  12.011
47455SOL     OW44138   5.630   3.077   3.322
47455SOL    HW144139   5.721   3.104   3.307
47455SOL    HW244140   5.637   3.009   3.389
47456SOL     OW44141   8.610   6.377   3.004
47456SOL    HW144142   8.586   6.465   2.975
47456SOL    HW244143   8.640   6.390   3.094
47457SOL     OW44144   9.229   4.383  11.059
47457SOL    HW144145   9.288   4.327  11.110
47457SOL    HW244146   9.172   4.422  11.125
47458SOL     OW44147   3.306  12.029   4.799
47458SOL    HW144148   3.288  11.935   4.794
47458SOL    HW244149   3.259  12.059   4.876
47459SOL     OW44150   9.467  13.471  13.620
47459SOL    HW144151   9.469  13.551  13.568
47459SOL    HW244152   9.505  13.404  13.562
47460SOL     OW44153  11.192   3.439  10.734
47460SOL    HW144154  11.144   3.493  10.671
47460SOL    HW244155  11.152   3.460  10.818
47461SOL     OW44156   3.525   0.938   4.411
47461SOL    HW144157   3.595   0.892   4.364
47461SOL    HW244158   3.475   0.981   4.342
47462SOL     OW44159   5.190   5.862   7.934
47462SOL    HW144160   5.141   5.939   7.905
47462SOL    HW244161   5.261   5.854   7.871
47463SOL     OW44162   5.243  12.416  10.496
47463SOL    HW144163   5.279  12.334  10.461
47463SOL    HW244164   5.174  12.387  10.556
47464SOL     OW44165  13.949  13.060   4.864
47464SOL    HW144166  13.894  13.089   4.790
47464SOL    HW244167  14.026  13.117   4.859
47465SOL     OW44168   6.656   9.495   9.368
47465SOL    HW144169   6.720   9.439   9.324
47465SOL    HW244170   6.577   9.442   9.372
47466SOL     OW44171   7.421  10.513   0.148
47466SOL    HW144172   7.476  10.485   0.075
47466SOL    HW244173   7.377  10.433   0.177
47467SOL     OW44174   5.554   7.524  11.691
47467SOL    HW144175   5.561   7.514  11.596
47467SOL    HW244176   5.494   7.598  11.702
47468SOL     OW44177   1.111  14.805   3.909
47468SOL    HW144178   1.142  14.873   3.969
47468SOL    HW244179   1.016  14.806   3.918
47469SOL     OW44180   2.891   4.612  11.901
47469SOL    HW144181   2.973   4.637  11.943
47469SOL    HW244182   2.918   4.574  11.817
47470SOL     OW44183   0.455   0.926   8.620
47470SOL    HW144184   0.412   0.859   8.568
47470SOL    HW244185   0.420   1.009   8.586
47471SOL     OW44186   0.690   8.511   7.858
47471SOL    HW144187   0.600   8.479   7.851
47471SOL    HW244188   0.744   8.432   7.853
47472SOL     OW44189  11.744  13.641  12.611
47472SOL    HW144190  11.812  13.598  12.559
47472SOL    HW244191  11.792  13.704  12.665
47473SOL     OW44192   0.558   1.760  11.571
47473SOL    HW144193   0.549   1.696  11.641
47473SOL    HW244194   0.652   1.760  11.550
47474SOL     OW44195   7.426   1.878   3.673
47474SOL    HW144196   7.370   1.943   3.715
47474SOL    HW244197   7.422   1.802   3.731
47475SOL     OW44198  14.404  11.022  14.776
47475SOL    HW144199  14.431  10.972  14.853
47475SOL    HW244200  14.474  11.087  14.765
47476SOL     OW44201  10.148  10.491  14.742
47476SOL    HW144202  10.164  10.403  14.774
47476SOL    HW244203  10.052  10.501  14.744
47477SOL     OW44204   6.588  14.243   5.148
47477SOL    HW144205   6.561  14.243   5.240
47477SOL    HW244206   6.630  14.158   5.135
47478SOL     OW44207   1.985  10.946  10.167
47478SOL    HW144208   1.923  10.873  10.157
47478SOL    HW244209   1.983  10.964  10.261
47479SOL     OW44210  13.439  11.779   9.843
47479SOL    HW144211  13.447  11.785   9.748
47479SOL    HW244212  13.389  11.857   9.868
47480SOL     OW44213   7.527   0.267   1.820
47480SOL    HW144214   7.608   0.317   1.804
47480SOL    HW244215   7.478   0.320   1.882
47481SOL     OW44216   3.352   3.291   8.189
47481SOL    HW144217   3.340   3.386   8.188
47481SOL    HW244218   3.447   3.280   8.189
47482SOL     OW44219  14.003  11.790   9.835
47482SOL    HW144220  13.976  11.877   9.806
47482SOL    HW244221  13.947  11.771   9.910
47483SOL     OW44222   9.357  10.406   2.775
47483SOL    HW144223   9.381  10.498   2.785
47483SOL    HW244224   9.303  10.387   2.852
47484SOL     OW44225   3.086   0.601   2.845
47484SOL    HW144226   3.143   0.546   2.898
47484SOL    HW244227   3.090   0.687   2.887
47485SOL     OW44228   5.721   5.476  14.194
47485SOL    HW144229   5.722   5.534  14.271
47485SOL    HW244230   5.737   5.389  14.230
47486SOL     OW44231   7.902   3.173   9.405
47486SOL    HW144232   7.942   3.114   9.341
47486SOL    HW244233   7.843   3.228   9.353
47487SOL     OW44234  10.638   0.678   8.879
47487SOL    HW144235  10.619   0.761   8.835
47487SOL    HW244236  10.721   0.648   8.840
47488SOL     OW44237   0.679  10.554  14.448
47488SOL    HW144238   0.665  10.476  14.501
47488SOL    HW244239   0.627  10.622  14.490
47489SOL     OW44240  12.405   3.895   7.428
47489SOL    HW144241  12.486   3.847   7.412
47489SOL    HW244242  12.359   3.842   7.494
47490SOL     OW44243  13.337  10.671   5.969
47490SOL    HW144244  13.255  10.629   5.996
47490SOL    HW244245  13.402  10.638   6.031
47491SOL     OW44246   9.664   1.241  14.430
47491SOL    HW144247   9.640   1.333  14.432
47491SOL    HW244248   9.588   1.195  14.466
47492SOL     OW44249  10.912   3.814   3.704
47492SOL    HW144250  10.990   3.867   3.692
47492SOL    HW244251  10.844   3.878   3.728
47493SOL     OW44252   2.921   3.312   0.035
47493SOL    HW144253   2.982   3.330  14.841
47493SOL    HW244254   2.834   3.316  14.872
47494SOL     OW44255   7.307   1.105  13.580
47494SOL    HW144256   7.362   1.114  13.659
47494SOL    HW244257   7.358   1.049  13.522
47495SOL     OW44258   0.385   2.579   7.228
47495SOL    HW144259   0.401   2.513   7.295
47495SOL    HW244260   0.461   2.575   7.171
47496SOL     OW44261  13.879   4.203   0.708
47496SOL    HW144262  13.787   4.183   0.694
47496SOL    HW244263  13.903   4.260   0.636
47497SOL     OW44264   1.306   2.277  13.634
47497SOL    HW144265   1.357   2.233  13.703
47497SOL    HW244266   1.370   2.330  13.587
47498SOL     OW44267  13.571   0.184  12.861
47498SOL    HW144268  13.542   0.113  12.919
47498SOL    HW244269  13.616   0.139  12.789
47499SOL     OW44270   6.918   3.857   7.336
47499SOL    HW144271   6.980   3.788   7.310
47499SOL    HW244272   6.872   3.879   7.255
47500SOL     OW44273   1.711   9.377  11.140
47500SOL    HW144274   1.726   9.399  11.231
47500SOL    HW244275   1.777   9.428  11.092
47501SOL     OW44276   7.794   8.126   1.424
47501SOL    HW144277   7.806   8.220   1.427
47501SOL    HW244278   7.745   8.104   1.503
47502SOL     OW44279   0.123  12.333   2.250
47502SOL    HW144280   0.176  12.311   2.327
47502SOL    HW244281   0.186  12.354   2.182
47503SOL     OW44282   0.899   8.967  12.795
47503SOL    HW144283   0.842   9.043  12.807
47503SOL    HW244284   0.859   8.917  12.724
47504SOL     OW44285   9.810   3.401  11.328
47504SOL    HW144286   9.764   3.317  11.322
47504SOL    HW244287   9.887   3.390  11.272
47505SOL     OW44288   0.961   4.818   2.139
47505SOL    HW144289   1.022   4.887   2.111
47505SOL    HW244290   0.927   4.782   2.057
47506SOL     OW44291   4.807  13.583   4.045
47506SOL    HW144292   4.807  13.502   3.994
47506SOL    HW244293   4.847  13.648   3.986
47507SOL     OW44294  12.507   5.375  14.300
47507SOL    HW144295  12.555   5.425  14.233
47507SOL    HW244296  12.552   5.291  14.304
47508SOL     OW44297  11.344  14.491  13.478
47508SOL    HW144298  11.353  14.420  13.415
47508SOL    HW244299  11.278  14.549  13.440
47509SOL     OW44300   2.834   1.676   3.754
47509SOL    HW144301   2.824   1.584   3.780
47509SOL    HW244302   2.780   1.724   3.817
47510SOL     OW44303   4.535   0.543   8.299
47510SOL    HW144304   4.488   0.593   8.233
47510SOL    HW244305   4.476   0.471   8.321
47511SOL     OW44306   2.736   5.027  14.755
47511SOL    HW144307   2.785   4.994  14.680
47511SOL    HW244308   2.777   4.985  14.831
47512SOL     OW44309   1.385  13.584   9.695
47512SOL    HW144310   1.474  13.620   9.700
47512SOL    HW244311   1.396  13.498   9.654
47513SOL     OW44312   4.712  11.136   8.985
47513SOL    HW144313   4.766  11.080   9.040
47513SOL    HW244314   4.687  11.080   8.911
47514SOL     OW44315   9.666  14.264   7.354
47514SOL    HW144316   9.596  14.199   7.356
47514SOL    HW244317   9.621  14.348   7.366
47515SOL     OW44318  13.547  11.241   9.898
47515SOL    HW144319  13.542  11.207   9.809
47515SOL    HW244320  13.619  11.304   9.895
47516SOL     OW44321   4.462   9.473   1.802
47516SOL    HW144322   4.472   9.563   1.833
47516SOL    HW244323   4.548   9.433   1.819
47517SOL     OW44324  12.121   5.135   2.952
47517SOL    HW144325  12.158   5.127   2.864
47517SOL    HW244326  12.041   5.185   2.940
47518SOL     OW44327   9.295  11.456  13.260
47518SOL    HW144328   9.233  11.453  13.332
47518SOL    HW244329   9.246  11.422  13.184
47519SOL     OW44330   3.513   0.461   4.817
47519SOL    HW144331   3.436   0.441   4.764
47519SOL    HW244332   3.578   0.397   4.789
47520SOL     OW44333  10.409   7.714  12.154
47520SOL    HW144334  10.431   7.661  12.077
47520SOL    HW244335  10.488   7.763  12.173
47521SOL     OW44336   1.532  12.991   5.806
47521SOL    HW144337   1.548  13.066   5.864
47521SOL    HW244338   1.440  12.970   5.818
47522SOL     OW44339  11.409  14.622   4.310
47522SOL    HW144340  11.413  14.570   4.229
47522SOL    HW244341  11.498  14.655   4.322
47523SOL     OW44342  12.579  10.322   0.403
47523SOL    HW144343  12.655  10.315   0.460
47523SOL    HW244344  12.522  10.386   0.446
47524SOL     OW44345  13.289   5.123  13.864
47524SOL    HW144346  13.363   5.114  13.804
47524SOL    HW244347  13.215   5.084  13.816
47525SOL     OW44348   0.393  13.328  10.658
47525SOL    HW144349   0.306  13.366  10.648
47525SOL    HW244350   0.399  13.263  10.588
47526SOL     OW44351   2.054   8.183  12.608
47526SOL    HW144352   2.082   8.270  12.583
47526SOL    HW244353   2.087   8.126  12.539
47527SOL     OW44354   5.381   8.529   4.670
47527SOL    HW144355   5.462   8.541   4.720
47527SOL    HW244356   5.369   8.612   4.624
47528SOL     OW44357  11.540  10.563   9.513
47528SOL    HW144358  11.502  10.636   9.561
47528SOL    HW244359  11.531  10.488   9.572
47529SOL     OW44360  14.053  13.239  12.032
47529SOL    HW144361  14.087  13.320  12.069
47529SOL    HW244362  14.124  13.205  11.978
47530SOL     OW44363   3.444   4.790   8.972
47530SOL    HW144364   3.462   4.883   8.955
47530SOL    HW244365   3.505   4.767   9.042
47531SOL     OW44366   3.257  10.641  12.390
47531SOL    HW144367   3.298  10.557  12.373
47531SOL    HW244368   3.171  10.619  12.427
47532SOL     OW44369   3.213   5.968  14.488
47532SOL    HW144370   3.274   5.896  14.469
47532SOL    HW244371   3.234   5.994  14.577
47533SOL     OW44372  12.470   0.967  11.200
47533SOL    HW144373  12.503   0.926  11.120
47533SOL    HW244374  12.495   1.059  11.191
47534SOL     OW44375   8.761   4.181   9.194
47534SOL    HW144376   8.741   4.112   9.131
47534SOL    HW244377   8.684   4.238   9.190
47535SOL     OW44378  11.026   7.642   6.268
47535SOL    HW144379  10.976   7.571   6.230
47535SOL    HW244380  11.105   7.601   6.303
47536SOL     OW44381   0.983   8.452  13.688
47536SOL    HW144382   0.932   8.415  13.615
47536SOL    HW244383   1.016   8.376  13.735
47537SOL     OW44384   7.220   9.753   2.364
47537SOL    HW144385   7.232   9.659   2.361
47537SOL    HW244386   7.183   9.770   2.451
47538SOL     OW44387   2.027   5.802  11.476
47538SOL    HW144388   2.111   5.848  11.472
47538SOL    HW244389   2.019   5.761  11.390
47539SOL     OW44390  14.109  10.731   7.240
47539SOL    HW144391  14.085  10.652   7.191
47539SOL    HW244392  14.135  10.794   7.173
47540SOL     OW44393  12.798   7.060  12.104
47540SOL    HW144394  12.825   7.090  12.017
47540SOL    HW244395  12.776   6.968  12.091
47541SOL     OW44396  12.614   9.899   1.411
47541SOL    HW144397  12.519   9.904   1.396
47541SOL    HW244398  12.629   9.957   1.486
47542SOL     OW44399  14.320   6.720   4.957
47542SOL    HW144400  14.246   6.726   5.017
47542SOL    HW244401  14.306   6.792   4.895
47543SOL     OW44402   4.722  12.986  12.697
47543SOL    HW144403   4.803  13.035  12.685
47543SOL    HW244404   4.662  13.022  12.632
47544SOL     OW44405   1.422   7.126  11.810
47544SOL    HW144406   1.471   7.166  11.738
47544SOL    HW244407   1.375   7.198  11.851
47545SOL     OW44408  12.857   0.805  14.444
47545SOL    HW144409  12.892   0.772  14.528
47545SOL    HW244410  12.838   0.726  14.394
47546SOL     OW44411   5.880   0.083   1.098
47546SOL    HW144412   5.949   0.017   1.090
47546SOL    HW244413   5.833   0.079   1.015
47547SOL     OW44414   1.123  14.377   1.591
47547SOL    HW144415   1.074  14.298   1.568
47547SOL    HW244416   1.213  14.358   1.564
47548SOL     OW44417   9.013   4.160  10.075
47548SOL    HW144418   8.941   4.194  10.022
47548SOL    HW244419   9.087   4.219  10.056
47549SOL     OW44420   5.191  14.509   0.786
47549SOL    HW144421   5.283  14.481   0.781
47549SOL    HW244422   5.169  14.535   0.697
47550SOL     OW44423   5.653   4.307  13.370
47550SOL    HW144424   5.689   4.377  13.424
47550SOL    HW244425   5.563   4.298  13.400
47551SOL     OW44426   4.516   2.376   6.071
47551SOL    HW144427   4.540   2.464   6.043
47551SOL    HW244428   4.445   2.389   6.134
47552SOL     OW44429   5.409   6.610  13.416
47552SOL    HW144430   5.339   6.593  13.479
47552SOL    HW244431   5.407   6.534  13.357
47553SOL     OW44432   6.443   7.357   5.981
47553SOL    HW144433   6.461   7.449   5.962
47553SOL    HW244434   6.522   7.311   5.954
47554SOL     OW44435   9.724  13.667  14.018
47554SOL    HW144436   9.723  13.598  14.084
47554SOL    HW244437   9.642  13.656  13.970
47555SOL     OW44438   3.508   9.686   0.116
47555SOL    HW144439   3.486   9.762   0.170
47555SOL    HW244440   3.602   9.696   0.097
47556SOL     OW44441   9.590   2.398   1.721
47556SOL    HW144442   9.640   2.337   1.775
47556SOL    HW244443   9.640   2.479   1.722
47557SOL     OW44444   7.709   5.936  14.600
47557SOL    HW144445   7.670   5.859  14.641
47557SOL    HW244446   7.772   5.900  14.538
47558SOL     OW44447   0.736   8.105  13.028
47558SOL    HW144448   0.793   8.062  12.965
47558SOL    HW244449   0.795   8.133  13.098
47559SOL     OW44450  14.102  13.359   1.034
47559SOL    HW144451  14.190  13.324   1.051
47559SOL    HW244452  14.064  13.372   1.121
47560SOL     OW44453   0.864  11.949  14.495
47560SOL    HW144454   0.862  12.022  14.557
47560SOL    HW244455   0.879  11.872  14.550
47561SOL     OW44456  13.441   5.866   9.244
47561SOL    HW144457  13.378   5.918   9.194
47561SOL    HW244458  13.519   5.862   9.189
47562SOL     OW44459   3.652   4.402   9.496
47562SOL    HW144460   3.648   4.409   9.401
47562SOL    HW244461   3.743   4.421   9.518
47563SOL     OW44462  14.573   5.570   2.248
47563SOL    HW144463  14.530   5.652   2.270
47563SOL    HW244464  14.505   5.518   2.206
47564SOL     OW44465   8.666  10.565   1.244
47564SOL    HW144466   8.757  10.581   1.220
47564SOL    HW244467   8.665  10.475   1.276
47565SOL     OW44468   2.142  12.615   4.634
47565SOL    HW144469   2.159  12.526   4.666
47565SOL    HW244470   2.053  12.635   4.662
47566SOL     OW44471   3.627  12.927   8.328
47566SOL    HW144472   3.667  12.880   8.254
47566SOL    HW244473   3.543  12.959   8.293
47567SOL     OW44474   7.475   6.475  13.019
47567SOL    HW144475   7.398   6.420  13.035
47567SOL    HW244476   7.544   6.435  13.072
47568SOL     OW44477   1.727   8.049   5.366
47568SOL    HW144478   1.663   8.101   5.415
47568SOL    HW244479   1.812   8.079   5.398
47569SOL     OW44480   7.206   4.474   4.801
47569SOL    HW144481   7.131   4.454   4.858
47569SOL    HW244482   7.244   4.553   4.839
47570SOL     OW44483   7.718   4.024   8.735
47570SOL    HW144484   7.768   4.003   8.657
47570SOL    HW244485   7.783   4.050   8.800
47571SOL     OW44486   8.392   7.608   4.934
47571SOL    HW144487   8.349   7.693   4.945
47571SOL    HW244488   8.481   7.630   4.908
47572SOL     OW44489  12.016   0.919   9.021
47572SOL    HW144490  11.998   0.854   8.953
47572SOL    HW244491  11.945   0.906   9.085
47573SOL     OW44492  12.372   1.147   9.787
47573SOL    HW144493  12.405   1.062   9.818
47573SOL    HW244494  12.359   1.197   9.867
47574SOL     OW44495  13.216  14.671   2.707
47574SOL    HW144496  13.191  14.764   2.707
47574SOL    HW244497  13.150  14.628   2.761
47575SOL     OW44498   3.342   4.879   2.634
47575SOL    HW144499   3.295   4.844   2.558
47575SOL    HW244500   3.424   4.831   2.637
47576SOL     OW44501   6.423   9.116   7.519
47576SOL    HW144502   6.402   9.050   7.586
47576SOL    HW244503   6.474   9.068   7.453
47577SOL     OW44504   8.180   5.903  12.457
47577SOL    HW144505   8.138   5.972  12.508
47577SOL    HW244506   8.273   5.921  12.464
47578SOL     OW44507  10.181   8.230   7.069
47578SOL    HW144508  10.135   8.149   7.090
47578SOL    HW244509  10.249   8.236   7.136
47579SOL     OW44510  13.859  13.534   7.618
47579SOL    HW144511  13.823  13.620   7.599
47579SOL    HW244512  13.830  13.515   7.707
47580SOL     OW44513   8.269  14.040   0.238
47580SOL    HW144514   8.274  14.123   0.191
47580SOL    HW244515   8.175  14.025   0.251
47581SOL     OW44516   7.028  10.924  12.624
47581SOL    HW144517   7.103  10.983  12.616
47581SOL    HW244518   7.044  10.874  12.704
47582SOL     OW44519  14.566   4.219  10.103
47582SOL    HW144520  14.582   4.151  10.169
47582SOL    HW244521  14.561   4.172  10.020
47583SOL     OW44522  12.505  14.684  12.296
47583SOL    HW144523  12.520  14.757  12.357
47583SOL    HW244524  12.547  14.712  12.215
47584SOL     OW44525   2.739   3.629  13.078
47584SOL    HW144526   2.814   3.575  13.052
47584SOL    HW244527   2.753   3.645  13.171
47585SOL     OW44528   8.063  14.618   0.159
47585SOL    HW144529   8.098  14.596   0.072
47585SOL    HW244530   8.002  14.690   0.142
47586SOL     OW44531  14.627   3.851   6.908
47586SOL    HW144532  14.570   3.843   6.985
47586SOL    HW244533  14.678   3.930   6.925
47587SOL     OW44534  13.418   9.861   7.101
47587SOL    HW144535  13.352   9.919   7.141
47587SOL    HW244536  13.448   9.807   7.173
47588SOL     OW44537  11.603  13.927  13.390
47588SOL    HW144538  11.653  13.848  13.366
47588SOL    HW244539  11.530  13.894  13.443
47589SOL     OW44540  10.148   1.674   3.855
47589SOL    HW144541  10.157   1.704   3.765
47589SOL    HW244542  10.154   1.578   3.849
47590SOL     OW44543   4.529  11.858   6.113
47590SOL    HW144544   4.617  11.853   6.151
47590SOL    HW244545   4.512  11.952   6.106
47591SOL     OW44546  11.027   0.944   6.517
47591SOL    HW144547  11.050   0.993   6.439
47591SOL    HW244548  10.978   1.006   6.571
47592SOL     OW44549   8.121   8.306  12.636
47592SOL    HW144550   8.033   8.319  12.671
47592SOL    HW244551   8.129   8.373  12.568
47593SOL     OW44552   9.845   8.068  14.567
47593SOL    HW144553   9.853   8.163  14.571
47593SOL    HW244554   9.830   8.042  14.658
47594SOL     OW44555  12.340   5.600   2.860
47594SOL    HW144556  12.356   5.516   2.905
47594SOL    HW244557  12.369   5.666   2.922
47595SOL     OW44558   1.395  13.915   4.852
47595SOL    HW144559   1.339  13.862   4.908
47595SOL    HW244560   1.375  13.886   4.763
47596SOL     OW44561  14.503   5.765   1.881
47596SOL    HW144562  14.485   5.853   1.846
47596SOL    HW244563  14.597   5.753   1.866
47597SOL     OW44564   3.910   7.207  10.832
47597SOL    HW144565   3.888   7.249  10.749
47597SOL    HW244566   3.844   7.138  10.842
47598SOL     OW44567   3.872   6.438  10.801
47598SOL    HW144568   3.960   6.474  10.797
47598SOL    HW244569   3.832   6.480  10.877
47599SOL     OW44570  10.545   4.653   3.908
47599SOL    HW144571  10.606   4.621   3.974
47599SOL    HW244572  10.586   4.630   3.824
47600SOL     OW44573   3.884   7.641  14.277
47600SOL    HW144574   3.929   7.667  14.357
47600SOL    HW244575   3.814   7.583  14.307
47601SOL     OW44576  12.482   6.056   6.362
47601SOL    HW144577  12.477   6.147   6.331
47601SOL    HW244578  12.492   6.004   6.282
47602SOL     OW44579   6.462  12.035   7.600
47602SOL    HW144580   6.535  11.995   7.648
47602SOL    HW244581   6.501  12.110   7.555
47603SOL     OW44582   8.701   4.589   6.325
47603SOL    HW144583   8.647   4.619   6.253
47603SOL    HW244584   8.788   4.625   6.307
47604SOL     OW44585   0.196  14.256  12.515
47604SOL    HW144586   0.176  14.298  12.431
47604SOL    HW244587   0.241  14.175  12.491
47605SOL     OW44588   8.758  12.063  10.436
47605SOL    HW144589   8.665  12.086  10.441
47605SOL    HW244590   8.791  12.078  10.525
47606SOL     OW44591   5.487   7.800   7.169
47606SOL    HW144592   5.499   7.826   7.077
47606SOL    HW244593   5.434   7.870   7.207
47607SOL     OW44594   3.298   9.410   5.388
47607SOL    HW144595   3.262   9.473   5.451
47607SOL    HW244596   3.364   9.362   5.438
47608SOL     OW44597  13.273  14.622   5.470
47608SOL    HW144598  13.360  14.658   5.486
47608SOL    HW244599  13.290  14.533   5.438
47609SOL     OW44600   6.232   0.274  10.790
47609SOL    HW144601   6.285   0.252  10.867
47609SOL    HW244602   6.292   0.324  10.734
47610SOL     OW44603   8.229   5.220   3.704
47610SOL    HW144604   8.216   5.290   3.768
47610SOL    HW244605   8.156   5.228   3.643
47611SOL     OW44606   6.180   1.966   6.165
47611SOL    HW144607   6.171   1.948   6.072
47611SOL    HW244608   6.275   1.970   6.180
47612SOL     OW44609   4.272   6.434   5.431
47612SOL    HW144610   4.340   6.496   5.459
47612SOL    HW244611   4.211   6.432   5.504
47613SOL     OW44612   0.848  10.122  14.713
47613SOL    HW144613   0.916  10.069  14.671
47613SOL    HW244614   0.833  10.195  14.652
47614SOL     OW44615  11.655   1.299   4.453
47614SOL    HW144616  11.643   1.371   4.514
47614SOL    HW244617  11.576   1.299   4.399
47615SOL     OW44618  11.682   0.028   1.736
47615SOL    HW144619  11.621  14.838   1.765
47615SOL    HW244620  11.769  14.865   1.745
47616SOL     OW44621  10.798  11.130   0.979
47616SOL    HW144622  10.747  11.136   0.899
47616SOL    HW244623  10.742  11.170   1.046
47617SOL     OW44624   0.388   0.254   9.812
47617SOL    HW144625   0.451   0.190   9.845
47617SOL    HW244626   0.314   0.202   9.782
47618SOL     OW44627   1.793  14.019  12.165
47618SOL    HW144628   1.889  14.011  12.160
47618SOL    HW244629   1.779  14.087  12.231
47619SOL     OW44630   4.958   8.962   1.245
47619SOL    HW144631   4.949   8.869   1.263
47619SOL    HW244632   4.992   8.999   1.327
47620SOL     OW44633   7.717  10.670   3.109
47620SOL    HW144634   7.744  10.602   3.048
47620SOL    HW244635   7.644  10.714   3.065
47621SOL     OW44636  12.961   8.747   1.925
47621SOL    HW144637  13.013   8.697   1.862
47621SOL    HW244638  13.021   8.761   1.999
47622SOL     OW44639   1.851  12.093   3.263
47622SOL    HW144640   1.885  12.007   3.236
47622SOL    HW244641   1.868  12.097   3.357
47623SOL     OW44642  12.293   3.314  10.754
47623SOL    HW144643  12.281   3.254  10.827
47623SOL    HW244644  12.369   3.281  10.707
47624SOL     OW44645   0.529   0.113   6.206
47624SOL    HW144646   0.500   0.032   6.247
47624SOL    HW244647   0.561   0.166   6.279
47625SOL     OW44648  12.591   1.140   1.229
47625SOL    HW144649  12.634   1.058   1.207
47625SOL    HW244650  12.500   1.128   1.203
47626SOL     OW44651   4.348  13.958  14.373
47626SOL    HW144652   4.369  14.052  14.367
47626SOL    HW244653   4.262  13.950  14.331
47627SOL     OW44654  14.375  10.082  14.234
47627SOL    HW144655  14.309  10.089  14.302
47627SOL    HW244656  14.444  10.143  14.260
47628SOL     OW44657   4.522   2.153   1.071
47628SOL    HW144658   4.608   2.118   1.093
47628SOL    HW244659   4.518   2.238   1.115
47629SOL     OW44660   7.448   1.043   5.813
47629SOL    HW144661   7.489   1.039   5.900
47629SOL    HW244662   7.375   1.104   5.825
47630SOL     OW44663   7.980  11.475  13.173
47630SOL    HW144664   8.069  11.507  13.184
47630SOL    HW244665   7.966  11.417  13.248
47631SOL     OW44666   3.995   8.725  12.999
47631SOL    HW144667   4.033   8.706  13.085
47631SOL    HW244668   4.059   8.691  12.937
47632SOL     OW44669   4.718   6.357   6.869
47632SOL    HW144670   4.729   6.264   6.890
47632SOL    HW244671   4.743   6.403   6.949
47633SOL     OW44672   0.639   9.532  11.685
47633SOL    HW144673   0.672   9.525  11.596
47633SOL    HW244674   0.590   9.614  11.687
47634SOL     OW44675   8.377   1.045  10.382
47634SOL    HW144676   8.377   1.040  10.287
47634SOL    HW244677   8.462   1.085  10.404
47635SOL     OW44678   8.890   1.038   4.768
47635SOL    HW144679   8.825   1.108   4.770
47635SOL    HW244680   8.838   0.957   4.774
47636SOL     OW44681  10.098   2.836   3.663
47636SOL    HW144682  10.168   2.901   3.673
47636SOL    HW244683  10.020   2.880   3.697
47637SOL     OW44684   9.395  14.555   2.905
47637SOL    HW144685   9.327  14.592   2.850
47637SOL    HW244686   9.378  14.591   2.992
47638SOL     OW44687   5.180  11.973  11.187
47638SOL    HW144688   5.208  11.900  11.243
47638SOL    HW244689   5.217  12.050  11.229
47639SOL     OW44690  11.224   0.749  14.613
47639SOL    HW144691  11.249   0.805  14.686
47639SOL    HW244692  11.308   0.714  14.581
47640SOL     OW44693   4.081  13.703   3.728
47640SOL    HW144694   4.031  13.659   3.796
47640SOL    HW244695   4.109  13.785   3.768
47641SOL     OW44696   1.509   3.368   7.484
47641SOL    HW144697   1.444   3.317   7.531
47641SOL    HW244698   1.470   3.384   7.398
47642SOL     OW44699   3.452  11.174  10.345
47642SOL    HW144700   3.457  11.218  10.260
47642SOL    HW244701   3.429  11.244  10.407
47643SOL     OW44702   5.568   8.698   5.187
47643SOL    HW144703   5.513   8.695   5.109
47643SOL    HW244704   5.555   8.786   5.222
47644SOL     OW44705   9.074   5.661   8.547
47644SOL    HW144706   9.067   5.579   8.498
47644SOL    HW244707   9.015   5.648   8.622
47645SOL     OW44708   4.216  10.845  10.090
47645SOL    HW144709   4.309  10.847  10.113
47645SOL    HW244710   4.177  10.917  10.139
47646SOL     OW44711   8.668   0.254   4.574
47646SOL    HW144712   8.753   0.256   4.531
47646SOL    HW244713   8.604   0.248   4.502
47647SOL     OW44714   6.363  14.711   4.374
47647SOL    HW144715   6.303  14.643   4.403
47647SOL    HW244716   6.439  14.663   4.341
47648SOL     OW44717  12.731  11.782  10.700
47648SOL    HW144718  12.700  11.693  10.683
47648SOL    HW244719  12.657  11.838  10.676
47649SOL     OW44720  11.872   7.487   1.142
47649SOL    HW144721  11.846   7.542   1.069
47649SOL    HW244722  11.811   7.509   1.212
47650SOL     OW44723   6.674   6.779   3.062
47650SOL    HW144724   6.588   6.742   3.045
47650SOL    HW244725   6.699   6.743   3.147
47651SOL     OW44726   4.894   2.517   0.872
47651SOL    HW144727   4.895   2.607   0.903
47651SOL    HW244728   4.969   2.476   0.915
47652SOL     OW44729   3.858   9.938   1.682
47652SOL    HW144730   3.774   9.945   1.727
47652SOL    HW244731   3.843   9.975   1.595
47653SOL     OW44732   9.392   4.774   5.218
47653SOL    HW144733   9.441   4.693   5.209
47653SOL    HW244734   9.456   4.843   5.202
47654SOL     OW44735  13.802   3.525   0.463
47654SOL    HW144736  13.844   3.452   0.417
47654SOL    HW244737  13.874   3.569   0.509
47655SOL     OW44738  11.990   6.242   2.811
47655SOL    HW144739  11.941   6.167   2.845
47655SOL    HW244740  11.924   6.304   2.783
47656SOL     OW44741   2.204   9.097   3.791
47656SOL    HW144742   2.160   9.057   3.866
47656SOL    HW244743   2.145   9.081   3.717
47657SOL     OW44744   9.921  10.408  10.937
47657SOL    HW144745   9.832  10.374  10.926
47657SOL    HW244746   9.935  10.464  10.861
47658SOL     OW44747   0.969   1.380   4.595
47658SOL    HW144748   0.914   1.306   4.619
47658SOL    HW244749   0.921   1.457   4.625
47659SOL     OW44750   5.936   7.145   0.638
47659SOL    HW144751   5.955   7.051   0.647
47659SOL    HW244752   5.841   7.150   0.628
47660SOL     OW44753   4.271   7.495   3.418
47660SOL    HW144754   4.206   7.507   3.348
47660SOL    HW244755   4.220   7.458   3.490
47661SOL     OW44756   8.269   8.757   8.414
47661SOL    HW144757   8.233   8.825   8.471
47661SOL    HW244758   8.324   8.805   8.352
47662SOL     OW44759   8.152  11.179   1.055
47662SOL    HW144760   8.085  11.247   1.056
47662SOL    HW244761   8.135  11.130   0.974
47663SOL     OW44762   9.139   9.882  12.310
47663SOL    HW144763   9.066   9.847  12.259
47663SOL    HW244764   9.112   9.872  12.401
47664SOL     OW44765   6.488   7.625  12.245
47664SOL    HW144766   6.506   7.632  12.151
47664SOL    HW244767   6.574   7.609  12.285
47665SOL     OW44768   7.443   0.997   7.454
47665SOL    HW144769   7.439   1.074   7.399
47665SOL    HW244770   7.487   0.931   7.401
47666SOL     OW44771   1.477   1.974  10.634
47666SOL    HW144772   1.459   2.039  10.702
47666SOL    HW244773   1.428   2.004  10.558
47667SOL     OW44774   2.088   8.680   8.667
47667SOL    HW144775   2.124   8.732   8.738
47667SOL    HW244776   2.010   8.729   8.639
47668SOL     OW44777   0.449   9.752   1.520
47668SOL    HW144778   0.387   9.679   1.523
47668SOL    HW244779   0.494   9.748   1.604
47669SOL     OW44780   8.258  11.307  13.983
47669SOL    HW144781   8.348  11.328  14.010
47669SOL    HW244782   8.225  11.251  14.054
47670SOL     OW44783   1.907  12.877  13.192
47670SOL    HW144784   1.915  12.864  13.097
47670SOL    HW244785   1.941  12.796  13.230
47671SOL     OW44786  12.109   8.658  11.138
47671SOL    HW144787  12.092   8.716  11.212
47671SOL    HW244788  12.083   8.571  11.168
47672SOL     OW44789  10.147   4.458   3.120
47672SOL    HW144790  10.170   4.522   3.053
47672SOL    HW244791  10.229   4.414   3.142
47673SOL     OW44792   2.208  10.712  11.838
47673SOL    HW144793   2.228  10.624  11.807
47673SOL    HW244794   2.187  10.701  11.931
47674SOL     OW44795   0.342   2.138   1.612
47674SOL    HW144796   0.342   2.217   1.558
47674SOL    HW244797   0.279   2.080   1.569
47675SOL     OW44798  10.548   2.209  11.471
47675SOL    HW144799  10.480   2.240  11.531
47675SOL    HW244800  10.614   2.170  11.529
47676SOL     OW44801   1.082  13.890   6.565
47676SOL    HW144802   1.030  13.965   6.594
47676SOL    HW244803   1.166  13.899   6.610
47677SOL     OW44804  13.955   3.670   1.576
47677SOL    HW144805  13.978   3.753   1.535
47677SOL    HW244806  13.863   3.657   1.552
47678SOL     OW44807  12.673   4.548   2.914
47678SOL    HW144808  12.717   4.463   2.906
47678SOL    HW244809  12.682   4.571   3.007
47679SOL     OW44810   1.612   8.444  13.816
47679SOL    HW144811   1.582   8.532  13.836
47679SOL    HW244812   1.531   8.393  13.803
47680SOL     OW44813  10.032  12.364   1.168
47680SOL    HW144814  10.114  12.333   1.127
47680SOL    HW244815  10.015  12.301   1.238
47681SOL     OW44816   9.530   5.170   0.467
47681SOL    HW144817   9.440   5.190   0.439
47681SOL    HW244818   9.539   5.215   0.552
47682SOL     OW44819  10.496   9.435   6.839
47682SOL    HW144820  10.484   9.348   6.801
47682SOL    HW244821  10.520   9.490   6.765
47683SOL     OW44822  14.718   8.143   3.112
47683SOL    HW144823  14.625   8.147   3.093
47683SOL    HW244824  14.733   8.210   3.178
47684SOL     OW44825   0.658   4.592   5.448
47684SOL    HW144826   0.749   4.569   5.466
47684SOL    HW244827   0.647   4.577   5.354
47685SOL     OW44828  14.334  12.285   1.807
47685SOL    HW144829  14.281  12.218   1.763
47685SOL    HW244830  14.423  12.249   1.806
47686SOL     OW44831   7.737   5.318   6.529
47686SOL    HW144832   7.734   5.302   6.435
47686SOL    HW244833   7.786   5.400   6.538
47687SOL     OW44834   8.700  10.023  11.050
47687SOL    HW144835   8.640   9.959  11.013
47687SOL    HW244836   8.702  10.094  10.987
47688SOL     OW44837   9.268   2.387   3.006
47688SOL    HW144838   9.345   2.438   3.030
47688SOL    HW244839   9.269   2.312   3.065
47689SOL     OW44840   2.943   4.982   5.298
47689SOL    HW144841   2.906   4.996   5.386
47689SOL    HW244842   2.952   5.070   5.262
47690SOL     OW44843  10.315  13.732  10.204
47690SOL    HW144844  10.326  13.826  10.219
47690SOL    HW244845  10.355  13.691  10.281
47691SOL     OW44846  11.160   8.052   4.937
47691SOL    HW144847  11.156   7.958   4.953
47691SOL    HW244848  11.198   8.061   4.850
47692SOL     OW44849   4.371   2.418  12.190
47692SOL    HW144850   4.299   2.397  12.250
47692SOL    HW244851   4.368   2.513  12.181
47693SOL     OW44852   9.971   2.523   7.877
47693SOL    HW144853  10.059   2.487   7.869
47693SOL    HW244854   9.986   2.616   7.895
47694SOL     OW44855   9.926  13.773   6.538
47694SOL    HW144856   9.945  13.681   6.553
47694SOL    HW244857   9.968  13.819   6.611
47695SOL     OW44858   5.817  14.415   6.255
47695SOL    HW144859   5.878  14.348   6.224
47695SOL    HW244860   5.733  14.390   6.216
47696SOL     OW44861   9.817   1.613   6.628
47696SOL    HW144862   9.773   1.659   6.557
47696SOL    HW244863   9.871   1.548   6.584
47697SOL     OW44864   6.333  13.409   5.069
47697SOL    HW144865   6.421  13.431   5.038
47697SOL    HW244866   6.342  13.319   5.102
47698SOL     OW44867   9.434   8.439   6.577
47698SOL    HW144868   9.505   8.468   6.520
47698SOL    HW244869   9.397   8.519   6.613
47699SOL     OW44870   1.702  13.138  13.097
47699SOL    HW144871   1.678  13.047  13.082
47699SOL    HW244872   1.722  13.172  13.009
47700SOL     OW44873  14.597  11.307   0.794
47700SOL    HW144874  14.538  11.383   0.792
47700SOL    HW244875  14.685  11.346   0.801
47701SOL     OW44876   2.138  14.109   0.106
47701SOL    HW144877   2.099  14.038   0.158
47701SOL    HW244878   2.231  14.104   0.126
47702SOL     OW44879   5.242   0.319  10.822
47702SOL    HW144880   5.305   0.324  10.750
47702SOL    HW244881   5.295   0.299  10.899
47703SOL     OW44882   7.488   7.151  13.767
47703SOL    HW144883   7.456   7.239  13.790
47703SOL    HW244884   7.482   7.102  13.849
47704SOL     OW44885   3.088   0.519   0.037
47704SOL    HW144886   3.060   0.427   0.042
47704SOL    HW244887   3.174   0.515  14.872
47705SOL     OW44888   3.252  13.941   6.972
47705SOL    HW144889   3.254  13.848   6.950
47705SOL    HW244890   3.260  13.943   7.067
47706SOL     OW44891  10.218  11.249   6.139
47706SOL    HW144892  10.182  11.248   6.228
47706SOL    HW244893  10.182  11.170   6.098
47707SOL     OW44894  14.692  14.414  10.291
47707SOL    HW144895  14.599  14.399  10.274
47707SOL    HW244896  14.737  14.364  10.223
47708SOL     OW44897  12.169   6.418   4.931
47708SOL    HW144898  12.220   6.491   4.965
47708SOL    HW244899  12.085   6.457   4.907
47709SOL     OW44900   2.084   3.438   7.259
47709SOL    HW144901   2.102   3.431   7.165
47709SOL    HW244902   2.149   3.380   7.300
47710SOL     OW44903  10.029   6.084   6.276
47710SOL    HW144904  10.002   6.147   6.343
47710SOL    HW244905  10.008   6.127   6.193
47711SOL     OW44906   3.457   8.654  12.306
47711SOL    HW144907   3.379   8.613  12.343
47711SOL    HW244908   3.530   8.611  12.350
47712SOL     OW44909   2.007   6.224   0.411
47712SOL    HW144910   2.069   6.216   0.339
47712SOL    HW244911   1.964   6.308   0.397
47713SOL     OW44912   9.834   9.798  14.416
47713SOL    HW144913   9.858   9.889  14.434
47713SOL    HW244914   9.789   9.801  14.332
47714SOL     OW44915   9.329   2.931  10.683
47714SOL    HW144916   9.367   3.011  10.647
47714SOL    HW244917   9.254   2.912  10.627
47715SOL     OW44918   9.214  14.106   6.912
47715SOL    HW144919   9.279  14.074   6.975
47715SOL    HW244920   9.189  14.192   6.945
47716SOL     OW44921   9.863   3.182   1.793
47716SOL    HW144922   9.938   3.239   1.781
47716SOL    HW244923   9.894   3.095   1.770
47717SOL     OW44924  12.693   5.050   5.287
47717SOL    HW144925  12.722   5.092   5.368
47717SOL    HW244926  12.767   4.995   5.260
47718SOL     OW44927   1.746   9.810   1.048
47718SOL    HW144928   1.717   9.723   1.077
47718SOL    HW244929   1.817   9.832   1.108
47719SOL     OW44930   8.937   4.052   7.317
47719SOL    HW144931   8.949   4.055   7.222
47719SOL    HW244932   8.877   3.978   7.331
47720SOL     OW44933  11.222   3.747  12.182
47720SOL    HW144934  11.213   3.837  12.214
47720SOL    HW244935  11.155   3.698  12.229
47721SOL     OW44936   7.701   3.997   6.154
47721SOL    HW144937   7.729   3.978   6.065
47721SOL    HW244938   7.704   3.913   6.199
47722SOL     OW44939   8.722   3.826  14.688
47722SOL    HW144940   8.753   3.773  14.615
47722SOL    HW244941   8.638   3.862  14.658
47723SOL     OW44942  12.817  11.920   2.009
47723SOL    HW144943  12.785  11.921   2.099
47723SOL    HW244944  12.869  12.001   2.001
47724SOL     OW44945   5.645  14.291   4.593
47724SOL    HW144946   5.573  14.230   4.610
47724SOL    HW244947   5.604  14.368   4.555
47725SOL     OW44948   7.341  14.396  14.114
47725SOL    HW144949   7.417  14.438  14.154
47725SOL    HW244950   7.332  14.314  14.162
47726SOL     OW44951  13.269   0.252  13.643
47726SOL    HW144952  13.271   0.344  13.668
47726SOL    HW244953  13.316   0.249  13.560
47727SOL     OW44954   1.632  12.458  14.793
47727SOL    HW144955   1.620  12.458  14.698
47727SOL    HW244956   1.549  12.491  14.828
47728SOL     OW44957   6.742   5.477   5.676
47728SOL    HW144958   6.651   5.447   5.674
47728SOL    HW244959   6.742   5.558   5.624
47729SOL     OW44960   7.091  11.540   3.903
47729SOL    HW144961   7.154  11.567   3.970
47729SOL    HW244962   7.040  11.619   3.884
47730SOL     OW44963   3.559   5.826  13.290
47730SOL    HW144964   3.582   5.903  13.236
47730SOL    HW244965   3.481   5.854  13.338
47731SOL     OW44966   3.602  10.601   3.863
47731SOL    HW144967   3.651  10.681   3.847
47731SOL    HW244968   3.511  10.628   3.865
47732SOL     OW44969   4.897   7.405   2.140
47732SOL    HW144970   4.931   7.317   2.129
47732SOL    HW244971   4.932   7.434   2.225
47733SOL     OW44972   6.429   3.986   9.439
47733SOL    HW144973   6.426   3.890   9.437
47733SOL    HW244974   6.494   4.009   9.373
47734SOL     OW44975   5.225  14.296   2.257
47734SOL    HW144976   5.231  14.201   2.249
47734SOL    HW244977   5.151  14.320   2.202
47735SOL     OW44978  13.934   2.345  13.576
47735SOL    HW144979  13.840   2.353  13.560
47735SOL    HW244980  13.949   2.250  13.575
47736SOL     OW44981   0.812   9.664   2.076
47736SOL    HW144982   0.776   9.727   2.138
47736SOL    HW244983   0.900   9.645   2.108
47737SOL     OW44984   5.822  14.766   3.077
47737SOL    HW144985   5.778  14.764   2.992
47737SOL    HW244986   5.848  14.675   3.092
47738SOL     OW44987  13.129   2.260  13.412
47738SOL    HW144988  13.084   2.313  13.346
47738SOL    HW244989  13.188   2.322  13.455
47739SOL     OW44990   5.988  13.178  12.405
47739SOL    HW144991   5.908  13.161  12.456
47739SOL    HW244992   5.957  13.187  12.315
47740SOL     OW44993  11.361   5.065   1.274
47740SOL    HW144994  11.311   5.116   1.210
47740SOL    HW244995  11.294   5.020   1.326
47741SOL     OW44996   0.696   2.465   6.030
47741SOL    HW144997   0.704   2.536   5.967
47741SOL    HW244998   0.619   2.415   6.002
47742SOL     OW44999   8.896   5.694   2.648
47742SOL    HW145000   8.823   5.662   2.701
47742SOL    HW245001   8.971   5.691   2.707
47743SOL     OW45002   1.132   9.266  14.832
47743SOL    HW145003   1.172   9.180  14.843
47743SOL    HW245004   1.052   9.250  14.782
47744SOL     OW45005   5.372   8.154   3.007
47744SOL    HW145006   5.434   8.192   2.945
47744SOL    HW245007   5.353   8.067   2.972
47745SOL     OW45008   2.425   9.945   2.209
47745SOL    HW145009   2.352   9.968   2.152
47745SOL    HW245010   2.485   9.895   2.153
47746SOL     OW45011   3.702  11.085   7.375
47746SOL    HW145012   3.632  11.083   7.310
47746SOL    HW245013   3.780  11.053   7.329
47747SOL     OW45014   6.652   5.700   8.927
47747SOL    HW145015   6.578   5.708   8.867
47747SOL    HW245016   6.729   5.700   8.871
47748SOL     OW45017   6.402   1.828  10.600
47748SOL    HW145018   6.429   1.869  10.518
47748SOL    HW245019   6.484   1.813  10.648
47749SOL     OW45020  10.130  10.803  12.992
47749SOL    HW145021  10.133  10.899  12.987
47749SOL    HW245022  10.058  10.779  12.933
47750SOL     OW45023   6.889   1.890   5.167
47750SOL    HW145024   6.891   1.804   5.210
47750SOL    HW245025   6.811   1.887   5.111
47751SOL     OW45026   0.973  11.171   3.449
47751SOL    HW145027   0.928  11.117   3.515
47751SOL    HW245028   0.947  11.134   3.365
47752SOL     OW45029  11.674   3.000   8.083
47752SOL    HW145030  11.759   3.031   8.051
47752SOL    HW245031  11.696   2.925   8.139
47753SOL     OW45032  12.761  14.197  14.132
47753SOL    HW145033  12.847  14.197  14.173
47753SOL    HW245034  12.732  14.106  14.135
47754SOL     OW45035   3.471  10.927   2.774
47754SOL    HW145036   3.407  10.857   2.785
47754SOL    HW245037   3.421  11.007   2.789
47755SOL     OW45038   6.208  13.091   9.366
47755SOL    HW145039   6.207  13.000   9.336
47755SOL    HW245040   6.255  13.138   9.297
47756SOL     OW45041   7.802   1.358   9.967
47756SOL    HW145042   7.822   1.267   9.989
47756SOL    HW245043   7.878   1.407   9.998
47757SOL     OW45044   4.646  11.174   2.414
47757SOL    HW145045   4.687  11.221   2.487
47757SOL    HW245046   4.718  11.161   2.352
47758SOL     OW45047   8.232   9.468   0.869
47758SOL    HW145048   8.137   9.475   0.879
47758SOL    HW245049   8.256   9.541   0.812
47759SOL     OW45050   5.004   0.442   9.013
47759SOL    HW145051   5.000   0.496   8.934
47759SOL    HW245052   4.983   0.354   8.983
47760SOL     OW45053  14.664   7.981   2.532
47760SOL    HW145054  14.682   8.068   2.498
47760SOL    HW245055  14.691   7.986   2.624
47761SOL     OW45056   7.532  14.711   7.987
47761SOL    HW145057   7.540  14.790   7.933
47761SOL    HW245058   7.460  14.662   7.946
47762SOL     OW45059   4.839  12.326   7.983
47762SOL    HW145060   4.855  12.234   8.005
47762SOL    HW245061   4.829  12.369   8.067
47763SOL     OW45062   8.955   1.547   3.370
47763SOL    HW145063   8.962   1.462   3.414
47763SOL    HW245064   8.868   1.546   3.330
47764SOL     OW45065   6.158  14.417  11.633
47764SOL    HW145066   6.208  14.361  11.573
47764SOL    HW245067   6.218  14.431  11.706
47765SOL     OW45068   4.388  11.752   1.793
47765SOL    HW145069   4.374  11.670   1.746
47765SOL    HW245070   4.445  11.803   1.735
47766SOL     OW45071  12.060  13.937   5.911
47766SOL    HW145072  12.079  13.928   6.004
47766SOL    HW245073  12.100  13.860   5.871
47767SOL     OW45074   8.905   3.352  10.248
47767SOL    HW145075   8.908   3.373  10.341
47767SOL    HW245076   8.819   3.384  10.219
47768SOL     OW45077  11.106   7.168   7.607
47768SOL    HW145078  11.145   7.208   7.529
47768SOL    HW245079  11.041   7.232   7.636
47769SOL     OW45080   8.090   6.873  10.340
47769SOL    HW145081   8.099   6.795  10.394
47769SOL    HW245082   8.180   6.897  10.317
47770SOL     OW45083   9.814  10.619   1.039
47770SOL    HW145084   9.739  10.647   1.092
47770SOL    HW245085   9.774  10.588   0.957
47771SOL     OW45086   7.720   6.606   8.687
47771SOL    HW145087   7.708   6.557   8.605
47771SOL    HW245088   7.766   6.545   8.744
47772SOL     OW45089   6.200   9.532   3.811
47772SOL    HW145090   6.262   9.557   3.741
47772SOL    HW245091   6.254   9.487   3.875
47773SOL     OW45092   9.179  13.865   9.169
47773SOL    HW145093   9.228  13.919   9.231
47773SOL    HW245094   9.154  13.788   9.219
47774SOL     OW45095   3.666   3.623   4.985
47774SOL    HW145096   3.596   3.657   5.040
47774SOL    HW245097   3.729   3.586   5.046
47775SOL     OW45098  14.005   8.810   9.439
47775SOL    HW145099  13.963   8.893   9.463
47775SOL    HW245100  13.932   8.751   9.420
47776SOL     OW45101  14.797  14.457   4.990
47776SOL    HW145102  14.718  14.467   5.043
47776SOL    HW245103  14.821  14.546   4.966
47777SOL     OW45104   3.462   8.597   0.024
47777SOL    HW145105   3.514   8.674   0.045
47777SOL    HW245106   3.514   8.523   0.056
47778SOL     OW45107   6.459  10.000  10.088
47778SOL    HW145108   6.480   9.928  10.029
47778SOL    HW245109   6.397  10.054  10.039
47779SOL     OW45110   5.601   5.291   5.075
47779SOL    HW145111   5.538   5.226   5.107
47779SOL    HW245112   5.555   5.375   5.086
47780SOL     OW45113  10.857  12.779  11.608
47780SOL    HW145114  10.846  12.687  11.585
47780SOL    HW245115  10.871  12.824  11.525
47781SOL     OW45116   0.987   9.924   7.929
47781SOL    HW145117   1.055   9.973   7.883
47781SOL    HW245118   0.905   9.967   7.902
47782SOL     OW45119   2.443   2.413  10.439
47782SOL    HW145120   2.369   2.468  10.465
47782SOL    HW245121   2.466   2.442  10.351
47783SOL     OW45122   1.400  10.080   7.906
47783SOL    HW145123   1.433  10.142   7.971
47783SOL    HW245124   1.430   9.994   7.936
47784SOL     OW45125   1.230   6.390   4.774
47784SOL    HW145126   1.270   6.409   4.689
47784SOL    HW245127   1.238   6.472   4.823
47785SOL     OW45128   1.262   7.903  12.460
47785SOL    HW145129   1.336   7.898  12.401
47785SOL    HW245130   1.289   7.854  12.538
47786SOL     OW45131   9.292   9.048   5.356
47786SOL    HW145132   9.225   9.096   5.308
47786SOL    HW245133   9.243   8.996   5.420
47787SOL     OW45134  13.782  13.123   4.657
47787SOL    HW145135  13.741  13.053   4.606
47787SOL    HW245136  13.712  13.184   4.677
47788SOL     OW45137  13.144   0.589   2.392
47788SOL    HW145138  13.123   0.530   2.465
47788SOL    HW245139  13.094   0.555   2.318
47789SOL     OW45140  10.933   4.141  14.763
47789SOL    HW145141  10.931   4.175  14.673
47789SOL    HW245142  10.869   4.195  14.810
47790SOL     OW45143   8.999   7.170   2.988
47790SOL    HW145144   8.952   7.253   3.003
47790SOL    HW245145   8.932   7.112   2.951
47791SOL     OW45146  11.199   9.315  12.462
47791SOL    HW145147  11.256   9.378  12.418
47791SOL    HW245148  11.247   9.232  12.456
47792SOL     OW45149  10.201   9.871   5.360
47792SOL    HW145150  10.236   9.831   5.280
47792SOL    HW245151  10.115   9.904   5.335
47793SOL     OW45152   5.813   6.966   2.974
47793SOL    HW145153   5.783   6.923   2.894
47793SOL    HW245154   5.903   6.936   2.985
47794SOL     OW45155   1.788  12.065   9.770
47794SOL    HW145156   1.694  12.079   9.784
47794SOL    HW245157   1.795  11.971   9.752
47795SOL     OW45158   6.248   1.648   2.029
47795SOL    HW145159   6.211   1.727   2.068
47795SOL    HW245160   6.313   1.681   1.967
47796SOL     OW45161   1.067   1.119   8.014
47796SOL    HW145162   1.081   1.060   8.088
47796SOL    HW245163   0.974   1.141   8.017
47797SOL     OW45164  14.291  10.020   8.401
47797SOL    HW145165  14.259  10.005   8.312
47797SOL    HW245166  14.386  10.013   8.393
47798SOL     OW45167   5.911   5.780   3.734
47798SOL    HW145168   5.864   5.697   3.745
47798SOL    HW245169   5.956   5.771   3.650
47799SOL     OW45170   0.080   0.152   5.094
47799SOL    HW145171   0.035   0.134   5.011
47799SOL    HW245172   0.170   0.172   5.068
47800SOL     OW45173   2.446   1.242   8.289
47800SOL    HW145174   2.441   1.161   8.340
47800SOL    HW245175   2.533   1.240   8.249
47801SOL     OW45176  10.179  14.677   8.840
47801SOL    HW145177  10.262  14.689   8.794
47801SOL    HW245178  10.113  14.699   8.774
47802SOL     OW45179   7.867   7.324  12.882
47802SOL    HW145180   7.914   7.242  12.867
47802SOL    HW245181   7.853   7.327  12.977
47803SOL     OW45182   1.318   3.373   1.173
47803SOL    HW145183   1.352   3.461   1.162
47803SOL    HW245184   1.234   3.385   1.218
47804SOL     OW45185   9.257   2.351   5.812
47804SOL    HW145186   9.306   2.308   5.742
47804SOL    HW245187   9.240   2.439   5.779
47805SOL     OW45188   0.635   4.649   8.884
47805SOL    HW145189   0.688   4.720   8.919
47805SOL    HW245190   0.554   4.691   8.855
47806SOL     OW45191   5.172  14.537  10.218
47806SOL    HW145192   5.186  14.448  10.250
47806SOL    HW245193   5.196  14.532  10.125
47807SOL     OW45194   7.372   1.172   9.125
47807SOL    HW145195   7.391   1.173   9.031
47807SOL    HW245196   7.279   1.151   9.129
47808SOL     OW45197   9.436  12.877  13.401
47808SOL    HW145198   9.432  12.799  13.456
47808SOL    HW245199   9.345  12.908  13.398
47809SOL     OW45200   1.660   1.720   3.280
47809SOL    HW145201   1.580   1.763   3.251
47809SOL    HW245202   1.710   1.788   3.324
47810SOL     OW45203   7.657   1.234   3.868
47810SOL    HW145204   7.603   1.158   3.886
47810SOL    HW245205   7.597   1.299   3.832
47811SOL     OW45206   3.836   9.847  14.494
47811SOL    HW145207   3.752   9.881  14.525
47811SOL    HW245208   3.871   9.798  14.568
47812SOL     OW45209   2.887   4.372   7.848
47812SOL    HW145210   2.859   4.299   7.792
47812SOL    HW245211   2.826   4.443   7.826
47813SOL     OW45212   0.153  14.737   8.342
47813SOL    HW145213   0.148  14.778   8.255
47813SOL    HW245214   0.062  14.735   8.373
47814SOL     OW45215   2.787   0.971   6.940
47814SOL    HW145216   2.718   1.028   6.974
47814SOL    HW245217   2.825   1.022   6.868
47815SOL     OW45218   9.324   9.367  12.351
47815SOL    HW145219   9.322   9.406  12.439
47815SOL    HW245220   9.386   9.295  12.359
47816SOL     OW45221   7.624  13.153   6.633
47816SOL    HW145222   7.633  13.248   6.641
47816SOL    HW245223   7.642  13.135   6.541
47817SOL     OW45224   0.118   9.461   8.181
47817SOL    HW145225   0.160   9.505   8.107
47817SOL    HW245226   0.057   9.399   8.140
47818SOL     OW45227  12.374   5.560   4.629
47818SOL    HW145228  12.315   5.534   4.557
47818SOL    HW245229  12.448   5.500   4.621
47819SOL     OW45230  13.365  13.028   4.317
47819SOL    HW145231  13.384  13.002   4.407
47819SOL    HW245232  13.270  13.022   4.310
47820SOL     OW45233   6.725  11.488   1.450
47820SOL    HW145234   6.790  11.504   1.382
47820SOL    HW245235   6.642  11.517   1.412
47821SOL     OW45236  13.154  14.247   5.588
47821SOL    HW145237  13.063  14.274   5.588
47821SOL    HW245238  13.170  14.214   5.676
47822SOL     OW45239   8.033  13.480  10.145
47822SOL    HW145240   8.032  13.424  10.223
47822SOL    HW245241   8.098  13.438  10.088
47823SOL     OW45242   2.785   5.829   3.070
47823SOL    HW145243   2.826   5.912   3.094
47823SOL    HW245244   2.692   5.849   3.062
47824SOL     OW45245  11.467  14.825   3.670
47824SOL    HW145246  11.441  14.782   3.752
47824SOL    HW245247  11.561  14.812   3.665
47825SOL     OW45248   5.690   1.856   5.920
47825SOL    HW145249   5.608   1.850   5.871
47825SOL    HW245250   5.713   1.949   5.917
47826SOL     OW45251   1.693  13.564   9.765
47826SOL    HW145252   1.693  13.599   9.853
47826SOL    HW245253   1.717  13.472   9.775
47827SOL     OW45254   9.717   9.289   4.738
47827SOL    HW145255   9.727   9.343   4.816
47827SOL    HW245256   9.623   9.271   4.733
47828SOL     OW45257   8.642  13.558   5.766
47828SOL    HW145258   8.678  13.469   5.759
47828SOL    HW245259   8.670  13.589   5.852
47829SOL     OW45260   4.525   8.301   1.837
47829SOL    HW145261   4.514   8.299   1.742
47829SOL    HW245262   4.559   8.214   1.859
47830SOL     OW45263   8.362  12.208   2.127
47830SOL    HW145264   8.423  12.220   2.055
47830SOL    HW245265   8.295  12.275   2.113
47831SOL     OW45266  10.602   4.242   1.216
47831SOL    HW145267  10.622   4.234   1.309
47831SOL    HW245268  10.512   4.211   1.208
47832SOL     OW45269   0.976   0.943  14.322
47832SOL    HW145270   0.917   0.882  14.365
47832SOL    HW245271   1.008   0.896  14.245
47833SOL     OW45272   2.029   2.617   4.259
47833SOL    HW145273   2.106   2.665   4.229
47833SOL    HW245274   2.028   2.537   4.207
47834SOL     OW45275  11.493   1.625   8.994
47834SOL    HW145276  11.415   1.570   8.984
47834SOL    HW245277  11.486   1.689   8.923
47835SOL     OW45278   5.209  12.689  12.098
47835SOL    HW145279   5.117  12.663  12.094
47835SOL    HW245280   5.221  12.747  12.023
47836SOL     OW45281  11.533   6.838   0.928
47836SOL    HW145282  11.495   6.766   0.979
47836SOL    HW245283  11.549   6.907   0.993
47837SOL     OW45284   6.670   4.014   6.209
47837SOL    HW145285   6.691   4.094   6.258
47837SOL    HW245286   6.578   3.998   6.230
47838SOL     OW45287   2.744   4.783  11.120
47838SOL    HW145288   2.675   4.847  11.137
47838SOL    HW245289   2.797   4.825  11.052
47839SOL     OW45290   4.233   3.749   6.094
47839SOL    HW145291   4.248   3.814   6.163
47839SOL    HW245292   4.278   3.784   6.018
47840SOL     OW45293   7.238   6.445  12.074
47840SOL    HW145294   7.330   6.464  12.053
47840SOL    HW245295   7.202   6.410  11.992
47841SOL     OW45296   9.361   0.486   8.629
47841SOL    HW145297   9.452   0.494   8.600
47841SOL    HW245298   9.332   0.402   8.593
47842SOL     OW45299   6.326   2.000  12.601
47842SOL    HW145300   6.368   2.000  12.515
47842SOL    HW245301   6.233   2.016  12.582
47843SOL     OW45302  12.694  14.844   9.478
47843SOL    HW145303  12.719  14.815   9.566
47843SOL    HW245304  12.670   0.059   9.489
47844SOL     OW45305   8.986   5.505  12.036
47844SOL    HW145306   9.004   5.571  11.969
47844SOL    HW245307   8.985   5.422  11.988
47845SOL     OW45308  14.808   9.336  14.841
47845SOL    HW145309  14.790   9.330   0.057
47845SOL    HW245310  14.721   9.346  14.801
47846SOL     OW45311   4.916  12.933  11.325
47846SOL    HW145312   4.875  12.868  11.383
47846SOL    HW245313   4.990  12.887  11.286
47847SOL     OW45314  12.895  12.879  13.411
47847SOL    HW145315  12.861  12.926  13.488
47847SOL    HW245316  12.844  12.914  13.338
47848SOL     OW45317   2.475  13.730  11.932
47848SOL    HW145318   2.506  13.770  12.013
47848SOL    HW245319   2.534  13.763  11.865
47849SOL     OW45320   8.489   4.869  10.982
47849SOL    HW145321   8.537   4.936  11.031
47849SOL    HW245322   8.525   4.874  10.893
47850SOL     OW45323   8.865  14.877   4.327
47850SOL    HW145324   8.871   0.059   4.401
47850SOL    HW245325   8.801   0.039   4.268
47851SOL     OW45326  13.105   3.030  14.032
47851SOL    HW145327  13.107   2.946  13.985
47851SOL    HW245328  13.079   3.007  14.121
47852SOL     OW45329   6.435  10.992   4.259
47852SOL    HW145330   6.388  11.019   4.338
47852SOL    HW245331   6.520  10.963   4.291
47853SOL     OW45332   7.251  10.497   1.057
47853SOL    HW145333   7.244  10.463   0.968
47853SOL    HW245334   7.245  10.419   1.113
47854SOL     OW45335  10.455   8.265   5.311
47854SOL    HW145336  10.520   8.236   5.247
47854SOL    HW245337  10.504   8.270   5.393
47855SOL     OW45338  10.082   4.168   5.345
47855SOL    HW145339  10.000   4.161   5.393
47855SOL    HW245340  10.083   4.259   5.312
47856SOL     OW45341  10.292   0.421  11.833
47856SOL    HW145342  10.307   0.481  11.760
47856SOL    HW245343  10.246   0.473  11.898
47857SOL     OW45344   2.025   4.787  11.843
47857SOL    HW145345   1.967   4.711  11.847
47857SOL    HW245346   2.050   4.793  11.751
47858SOL     OW45347   2.333   8.948  10.625
47858SOL    HW145348   2.382   8.978  10.548
47858SOL    HW245349   2.243   8.978  10.610
47859SOL     OW45350   6.195   4.653   4.856
47859SOL    HW145351   6.203   4.668   4.950
47859SOL    HW245352   6.233   4.566   4.843
47860SOL     OW45353  10.293  12.101  13.529
47860SOL    HW145354  10.209  12.057  13.546
47860SOL    HW245355  10.341  12.092  13.612
47861SOL     OW45356  11.121  13.714  14.571
47861SOL    HW145357  11.093  13.805  14.578
47861SOL    HW245358  11.062  13.666  14.629
47862SOL     OW45359   6.640   3.105   8.716
47862SOL    HW145360   6.567   3.060   8.673
47862SOL    HW245361   6.597   3.166   8.777
47863SOL     OW45362  10.922   9.498   5.371
47863SOL    HW145363  10.978   9.439   5.321
47863SOL    HW245364  10.933   9.583   5.328
47864SOL     OW45365   5.892   3.780  13.463
47864SOL    HW145366   5.919   3.852  13.520
47864SOL    HW245367   5.865   3.822  13.382
47865SOL     OW45368   9.656  10.692   9.376
47865SOL    HW145369   9.708  10.624   9.418
47865SOL    HW245370   9.682  10.773   9.420
47866SOL     OW45371   4.033  13.377  12.988
47866SOL    HW145372   3.940  13.383  13.010
47866SOL    HW245373   4.077  13.386  13.073
47867SOL     OW45374   8.154  10.074   6.172
47867SOL    HW145375   8.190  10.129   6.102
47867SOL    HW245376   8.219  10.005   6.186
47868SOL     OW45377  14.667   2.039  10.740
47868SOL    HW145378  14.742   2.060  10.795
47868SOL    HW245379  14.692   1.960  10.693
47869SOL     OW45380  11.091   2.465   6.784
47869SOL    HW145381  11.137   2.536   6.738
47869SOL    HW245382  11.063   2.406   6.715
47870SOL     OW45383   3.204  11.466   8.440
47870SOL    HW145384   3.108  11.465   8.447
47870SOL    HW245385   3.221  11.420   8.357
47871SOL     OW45386   1.273   5.265   1.865
47871SOL    HW145387   1.297   5.174   1.849
47871SOL    HW245388   1.336   5.296   1.930
47872SOL     OW45389   8.460  11.378  13.643
47872SOL    HW145390   8.396  11.393  13.712
47872SOL    HW245391   8.434  11.293  13.605
47873SOL     OW45392  11.770  10.156  11.541
47873SOL    HW145393  11.807  10.097  11.607
47873SOL    HW245394  11.739  10.231  11.592
47874SOL     OW45395   7.043  13.516   0.014
47874SOL    HW145396   6.995  13.486  14.815
47874SOL    HW245397   7.041  13.611   0.008
47875SOL     OW45398   9.470   6.927   9.078
47875SOL    HW145399   9.448   6.838   9.053
47875SOL    HW245400   9.559   6.941   9.045
47876SOL     OW45401   0.567  13.904  10.752
47876SOL    HW145402   0.620  13.920  10.830
47876SOL    HW245403   0.534  13.815  10.763
47877SOL     OW45404  14.839  12.627   0.946
47877SOL    HW145405  14.774  12.607   1.013
47877SOL    HW245406  14.852  12.722   0.953
47878SOL     OW45407  11.069  10.388   6.687
47878SOL    HW145408  11.025  10.335   6.753
47878SOL    HW245409  11.149  10.339   6.667
47879SOL     OW45410  14.067   2.019   7.821
47879SOL    HW145411  14.088   2.098   7.870
47879SOL    HW245412  14.010   2.049   7.750
47880SOL     OW45413  11.882   6.177  12.547
47880SOL    HW145414  11.853   6.206  12.634
47880SOL    HW245415  11.930   6.097  12.563
47881SOL     OW45416  14.736  12.616  14.337
47881SOL    HW145417  14.790  12.649  14.266
47881SOL    HW245418  14.664  12.570  14.294
47882SOL     OW45419  13.991   0.720   5.698
47882SOL    HW145420  14.071   0.761   5.731
47882SOL    HW245421  13.937   0.708   5.776
47883SOL     OW45422   0.291  13.725  13.984
47883SOL    HW145423   0.232  13.733  14.060
47883SOL    HW245424   0.233  13.734  13.908
47884SOL     OW45425  11.872   4.952   3.461
47884SOL    HW145426  11.783   4.977   3.435
47884SOL    HW245427  11.911   4.917   3.382
47885SOL     OW45428   9.687   4.785   0.886
47885SOL    HW145429   9.733   4.713   0.929
47885SOL    HW245430   9.657   4.748   0.803
47886SOL     OW45431   4.734   2.195   0.141
47886SOL    HW145432   4.686   2.256   0.196
47886SOL    HW245433   4.825   2.223   0.148
47887SOL     OW45434   9.580   5.446   0.990
47887SOL    HW145435   9.608   5.385   1.058
47887SOL    HW245436   9.651   5.447   0.926
47888SOL     OW45437   9.985  14.451  13.965
47888SOL    HW145438  10.021  14.370  13.930
47888SOL    HW245439  10.056  14.514  13.960
47889SOL     OW45440   8.521  10.947   3.757
47889SOL    HW145441   8.550  10.862   3.725
47889SOL    HW245442   8.569  10.958   3.840
47890SOL     OW45443  14.151  12.219  14.699
47890SOL    HW145444  14.098  12.298  14.703
47890SOL    HW245445  14.209  12.224  14.775
47891SOL     OW45446   6.615   6.016   7.837
47891SOL    HW145447   6.585   5.926   7.823
47891SOL    HW245448   6.542   6.070   7.808
47892SOL     OW45449   2.179  10.195  11.440
47892SOL    HW145450   2.088  10.222  11.438
47892SOL    HW245451   2.195  10.172  11.532
47893SOL     OW45452   0.023  11.426   4.718
47893SOL    HW145453   0.006  11.518   4.696
47893SOL    HW245454   0.107  11.407   4.676
47894SOL     OW45455   7.103   5.581  13.266
47894SOL    HW145456   7.016   5.553  13.236
47894SOL    HW245457   7.110   5.672  13.237
47895SOL     OW45458   1.117   3.468  14.181
47895SOL    HW145459   1.149   3.554  14.210
47895SOL    HW245460   1.129   3.468  14.086
47896SOL     OW45461  10.886   3.186  12.061
47896SOL    HW145462  10.897   3.275  12.027
47896SOL    HW245463  10.934   3.131  12.000
47897SOL     OW45464   3.657  13.090   2.542
47897SOL    HW145465   3.629  13.178   2.517
47897SOL    HW245466   3.654  13.090   2.637
47898SOL     OW45467   8.723   1.820  13.829
47898SOL    HW145468   8.758   1.764  13.760
47898SOL    HW245469   8.630   1.828  13.808
47899SOL     OW45470   5.257  12.978   1.745
47899SOL    HW145471   5.170  12.961   1.781
47899SOL    HW245472   5.312  12.997   1.821
47900SOL     OW45473  12.947  13.599  12.477
47900SOL    HW145474  12.898  13.584  12.397
47900SOL    HW245475  12.889  13.571  12.547
47901SOL     OW45476   2.639  12.045  13.094
47901SOL    HW145477   2.602  12.112  13.151
47901SOL    HW245478   2.597  11.964  13.122
47902SOL     OW45479   4.863   6.372   3.290
47902SOL    HW145480   4.840   6.465   3.293
47902SOL    HW245481   4.896   6.353   3.378
47903SOL     OW45482   5.741   4.821  11.276
47903SOL    HW145483   5.833   4.814  11.301
47903SOL    HW245484   5.736   4.900  11.223
47904SOL     OW45485  12.778  11.464   2.819
47904SOL    HW145486  12.859  11.416   2.802
47904SOL    HW245487  12.790  11.548   2.774
47905SOL     OW45488  12.542   8.940   5.194
47905SOL    HW145489  12.536   8.934   5.289
47905SOL    HW245490  12.451   8.940   5.164
47906SOL     OW45491  13.151  12.594   7.181
47906SOL    HW145492  13.199  12.515   7.154
47906SOL    HW245493  13.215  12.665   7.172
47907SOL     OW45494  14.689   1.407   7.986
47907SOL    HW145495  14.662   1.498   7.977
47907SOL    HW245496  14.778   1.411   8.021
47908SOL     OW45497  11.110  11.326  12.005
47908SOL    HW145498  11.077  11.394  11.946
47908SOL    HW245499  11.097  11.244  11.957
47909SOL     OW45500   8.365  13.791  10.321
47909SOL    HW145501   8.377  13.881  10.291
47909SOL    HW245502   8.417  13.786  10.401
47910SOL     OW45503   3.223  10.423  12.665
47910SOL    HW145504   3.304  10.423  12.715
47910SOL    HW245505   3.195  10.332  12.665
47911SOL     OW45506  12.571   0.036   3.399
47911SOL    HW145507  12.666   0.035   3.406
47911SOL    HW245508  12.540   0.065   3.484
47912SOL     OW45509   2.932   7.465   5.247
47912SOL    HW145510   2.906   7.476   5.155
47912SOL    HW245511   3.027   7.475   5.246
47913SOL     OW45512   4.209   4.234   9.397
47913SOL    HW145513   4.184   4.148   9.361
47913SOL    HW245514   4.199   4.225   9.491
47914SOL     OW45515   1.423   5.879  14.448
47914SOL    HW145516   1.473   5.915  14.376
47914SOL    HW245517   1.487   5.865  14.518
47915SOL     OW45518   4.333   0.777   7.257
47915SOL    HW145519   4.343   0.682   7.262
47915SOL    HW245520   4.395   0.811   7.322
47916SOL     OW45521   6.763   6.138   7.091
47916SOL    HW145522   6.802   6.193   7.023
47916SOL    HW245523   6.823   6.064   7.099
47917SOL     OW45524   0.409  10.564   0.271
47917SOL    HW145525   0.376  10.535   0.356
47917SOL    HW245526   0.399  10.659   0.272
47918SOL     OW45527   0.070  12.609   8.123
47918SOL    HW145528   0.026  12.658   8.192
47918SOL    HW245529   0.043  12.518   8.136
47919SOL     OW45530   1.507   3.576  12.926
47919SOL    HW145531   1.524   3.670  12.935
47919SOL    HW245532   1.587   3.541  12.887
47920SOL     OW45533   5.380  11.804   1.358
47920SOL    HW145534   5.462  11.797   1.407
47920SOL    HW245535   5.383  11.732   1.295
47921SOL     OW45536  13.187   3.826   3.573
47921SOL    HW145537  13.183   3.794   3.483
47921SOL    HW245538  13.124   3.899   3.575
47922SOL     OW45539   6.164   0.298   6.795
47922SOL    HW145540   6.141   0.367   6.734
47922SOL    HW245541   6.094   0.299   6.861
47923SOL     OW45542  14.541   4.450   8.501
47923SOL    HW145543  14.518   4.359   8.481
47923SOL    HW245544  14.517   4.499   8.422
47924SOL     OW45545   5.130   7.937   8.664
47924SOL    HW145546   5.173   7.912   8.746
47924SOL    HW245547   5.170   8.021   8.641
47925SOL     OW45548   2.632   3.423  12.081
47925SOL    HW145549   2.628   3.450  11.989
47925SOL    HW245550   2.722   3.440  12.107
47926SOL     OW45551   6.317  11.874   9.429
47926SOL    HW145552   6.298  11.836   9.343
47926SOL    HW245553   6.345  11.963   9.411
47927SOL     OW45554  12.033   6.696   4.960
47927SOL    HW145555  11.988   6.762   5.012
47927SOL    HW245556  12.115   6.680   5.009
47928SOL     OW45557  11.462   1.793   2.013
47928SOL    HW145558  11.558   1.790   2.005
47928SOL    HW245559  11.440   1.884   1.994
47929SOL     OW45560   7.907   2.329   6.022
47929SOL    HW145561   7.923   2.242   5.986
47929SOL    HW245562   7.966   2.336   6.097
47930SOL     OW45563  12.613  14.114   2.147
47930SOL    HW145564  12.630  14.021   2.159
47930SOL    HW245565  12.643  14.155   2.228
47931SOL     OW45566   3.030   4.674  11.333
47931SOL    HW145567   3.022   4.578  11.331
47931SOL    HW245568   2.967   4.702  11.399
47932SOL     OW45569  12.662   0.155  11.474
47932SOL    HW145570  12.698   0.128  11.559
47932SOL    HW245571  12.736   0.197  11.429
47933SOL     OW45572  11.767  13.405   1.195
47933SOL    HW145573  11.824  13.445   1.129
47933SOL    HW245574  11.699  13.361   1.145
47934SOL     OW45575   6.517   6.859   8.272
47934SOL    HW145576   6.589   6.827   8.218
47934SOL    HW245577   6.553   6.933   8.319
47935SOL     OW45578   6.137   1.963   9.984
47935SOL    HW145579   6.107   2.041  10.030
47935SOL    HW245580   6.082   1.892  10.017
47936SOL     OW45581   7.717   1.220   2.201
47936SOL    HW145582   7.693   1.139   2.246
47936SOL    HW245583   7.801   1.244   2.239
47937SOL     OW45584   3.153   4.624  11.985
47937SOL    HW145585   3.157   4.573  11.904
47937SOL    HW245586   3.244   4.638  12.010
47938SOL     OW45587   3.012  12.694   0.722
47938SOL    HW145588   2.961  12.762   0.677
47938SOL    HW245589   2.952  12.620   0.728
47939SOL     OW45590  14.684  12.428  11.082
47939SOL    HW145591  14.617  12.453  11.018
47939SOL    HW245592  14.686  12.332  11.078
47940SOL     OW45593   8.482   8.249  14.667
47940SOL    HW145594   8.395   8.225  14.634
47940SOL    HW245595   8.475   8.341  14.691
47941SOL     OW45596  14.221   8.072   1.726
47941SOL    HW145597  14.217   8.090   1.820
47941SOL    HW245598  14.312   8.045   1.711
47942SOL     OW45599  13.954   0.801   3.039
47942SOL    HW145600  13.932   0.883   3.082
47942SOL    HW245601  14.047   0.809   3.018
47943SOL     OW45602   2.215   4.669   4.301
47943SOL    HW145603   2.183   4.580   4.286
47943SOL    HW245604   2.291   4.677   4.245
47944SOL     OW45605   1.067  12.099   7.786
47944SOL    HW145606   0.987  12.132   7.745
47944SOL    HW245607   1.084  12.159   7.859
47945SOL     OW45608   4.103   8.641  13.514
47945SOL    HW145609   4.113   8.692  13.434
47945SOL    HW245610   4.067   8.557  13.485
47946SOL     OW45611   9.652   1.588  10.328
47946SOL    HW145612   9.721   1.602  10.393
47946SOL    HW245613   9.613   1.675  10.315
47947SOL     OW45614   2.269   5.137   7.549
47947SOL    HW145615   2.348   5.192   7.555
47947SOL    HW245616   2.298   5.050   7.576
47948SOL     OW45617   4.799   0.196   2.744
47948SOL    HW145618   4.840   0.282   2.758
47948SOL    HW245619   4.866   0.133   2.771
47949SOL     OW45620   0.957   3.377  14.687
47949SOL    HW145621   0.891   3.439  14.717
47949SOL    HW245622   0.941   3.370  14.592
47950SOL     OW45623   3.385   5.016   1.345
47950SOL    HW145624   3.478   5.004   1.364
47950SOL    HW245625   3.353   5.072   1.416
47951SOL     OW45626  13.078   4.337  11.987
47951SOL    HW145627  13.013   4.408  11.982
47951SOL    HW245628  13.091   4.323  12.081
47952SOL     OW45629   3.469   9.567   7.083
47952SOL    HW145630   3.485   9.550   6.990
47952SOL    HW245631   3.528   9.508   7.129
47953SOL     OW45632  10.678   4.354   0.956
47953SOL    HW145633  10.677   4.434   1.009
47953SOL    HW245634  10.695   4.284   1.020
47954SOL     OW45635   0.477  14.575   5.657
47954SOL    HW145636   0.510  14.550   5.743
47954SOL    HW245637   0.422  14.652   5.674
47955SOL     OW45638   2.330   0.406   8.199
47955SOL    HW145639   2.402   0.383   8.258
47955SOL    HW245640   2.372   0.452   8.127
47956SOL     OW45641   2.122   3.209   9.779
47956SOL    HW145642   2.045   3.255   9.813
47956SOL    HW245643   2.169   3.180   9.857
47957SOL     OW45644   2.206   0.097   2.459
47957SOL    HW145645   2.136   0.071   2.399
47957SOL    HW245646   2.255   0.016   2.474
47958SOL     OW45647   7.156   7.954   6.585
47958SOL    HW145648   7.167   8.004   6.504
47958SOL    HW245649   7.219   7.882   6.577
47959SOL     OW45650   4.371   0.487   5.124
47959SOL    HW145651   4.387   0.531   5.207
47959SOL    HW245652   4.442   0.422   5.117
47960SOL     OW45653  14.670  14.863   7.280
47960SOL    HW145654  14.641   0.017   7.195
47960SOL    HW245655  14.591  14.862   7.334
47961SOL     OW45656   6.683   6.968   2.425
47961SOL    HW145657   6.730   7.051   2.434
47961SOL    HW245658   6.752   6.904   2.404
47962SOL     OW45659   8.562   9.238  14.434
47962SOL    HW145660   8.599   9.215  14.348
47962SOL    HW245661   8.624   9.202  14.497
47963SOL     OW45662  14.322   9.200   8.411
47963SOL    HW145663  14.361   9.134   8.468
47963SOL    HW245664  14.228   9.191   8.424
47964SOL     OW45665  12.124   9.609   5.237
47964SOL    HW145666  12.163   9.589   5.322
47964SOL    HW245667  12.095   9.523   5.204
47965SOL     OW45668   6.586   5.157   6.610
47965SOL    HW145669   6.618   5.125   6.525
47965SOL    HW245670   6.633   5.104   6.674
47966SOL     OW45671   5.403   6.251  14.286
47966SOL    HW145672   5.358   6.248  14.201
47966SOL    HW245673   5.401   6.343  14.311
47967SOL     OW45674   6.976  11.652   5.557
47967SOL    HW145675   7.042  11.639   5.625
47967SOL    HW245676   6.995  11.738   5.521
47968SOL     OW45677   6.930   8.317   2.583
47968SOL    HW145678   6.888   8.238   2.615
47968SOL    HW245679   6.921   8.314   2.488
47969SOL     OW45680   4.021   3.596  12.136
47969SOL    HW145681   3.995   3.688  12.133
47969SOL    HW245682   4.041   3.579  12.228
47970SOL     OW45683   2.954  11.930  12.550
47970SOL    HW145684   2.898  12.004  12.572
47970SOL    HW245685   3.037  11.948  12.593
47971SOL     OW45686   0.919   2.034   5.106
47971SOL    HW145687   0.984   1.973   5.071
47971SOL    HW245688   0.940   2.118   5.065
47972SOL     OW45689  13.142   3.438  13.417
47972SOL    HW145690  13.074   3.383  13.456
47972SOL    HW245691  13.223   3.408  13.458
47973SOL     OW45692  10.702  11.620   8.673
47973SOL    HW145693  10.768  11.553   8.654
47973SOL    HW245694  10.752  11.700   8.686
47974SOL     OW45695   1.833   0.857   5.820
47974SOL    HW145696   1.899   0.921   5.846
47974SOL    HW245697   1.766   0.861   5.888
47975SOL     OW45698  12.958   8.913   4.775
47975SOL    HW145699  12.931   8.879   4.860
47975SOL    HW245700  12.969   8.836   4.720
47976SOL     OW45701   8.756  13.861  11.873
47976SOL    HW145702   8.758  13.956  11.874
47976SOL    HW245703   8.746  13.838  11.781
47977SOL     OW45704  11.146   0.791  10.286
47977SOL    HW145705  11.164   0.697  10.289
47977SOL    HW245706  11.228   0.831  10.259
47978SOL     OW45707  10.173  10.402   5.473
47978SOL    HW145708  10.128  10.468   5.525
47978SOL    HW245709  10.242  10.369   5.531
47979SOL     OW45710   5.766   9.783  13.896
47979SOL    HW145711   5.840   9.842  13.913
47979SOL    HW245712   5.690   9.840  13.894
47980SOL     OW45713  11.996   2.671   4.533
47980SOL    HW145714  12.051   2.596   4.557
47980SOL    HW245715  11.920   2.664   4.591
47981SOL     OW45716   6.112   6.407  13.648
47981SOL    HW145717   6.203   6.390  13.627
47981SOL    HW245718   6.063   6.343  13.597
47982SOL     OW45719   2.583   6.439  13.808
47982SOL    HW145720   2.625   6.391  13.736
47982SOL    HW245721   2.536   6.371  13.857
47983SOL     OW45722  14.257  14.055   5.433
47983SOL    HW145723  14.221  14.054   5.344
47983SOL    HW245724  14.343  14.096   5.423
47984SOL     OW45725  12.634   7.271  10.891
47984SOL    HW145726  12.694   7.213  10.938
47984SOL    HW245727  12.584   7.315  10.960
47985SOL     OW45728   1.418  11.778   9.995
47985SOL    HW145729   1.368  11.743  10.068
47985SOL    HW245730   1.451  11.862  10.026
47986SOL     OW45731   9.863   9.767   9.190
47986SOL    HW145732   9.954   9.794   9.172
47986SOL    HW245733   9.859   9.676   9.161
47987SOL     OW45734   1.343  13.695   9.445
47987SOL    HW145735   1.377  13.659   9.527
47987SOL    HW245736   1.412  13.676   9.380
47988SOL     OW45737   7.297   3.342   1.228
47988SOL    HW145738   7.228   3.327   1.293
47988SOL    HW245739   7.371   3.290   1.259
47989SOL     OW45740   3.289   8.463  13.188
47989SOL    HW145741   3.200   8.483  13.218
47989SOL    HW245742   3.287   8.482  13.094
47990SOL     OW45743   7.407   7.625  13.126
47990SOL    HW145744   7.383   7.565  13.196
47990SOL    HW245745   7.501   7.612  13.114
47991SOL     OW45746  14.135   5.659   3.554
47991SOL    HW145747  14.149   5.753   3.561
47991SOL    HW245748  14.132   5.628   3.644
47992SOL     OW45749  11.858   1.703   0.808
47992SOL    HW145750  11.872   1.645   0.884
47992SOL    HW245751  11.825   1.784   0.846
47993SOL     OW45752  11.744   8.341  11.552
47993SOL    HW145753  11.838   8.352  11.567
47993SOL    HW245754  11.738   8.260  11.501
47994SOL     OW45755  11.470   1.348  12.365
47994SOL    HW145756  11.471   1.344  12.270
47994SOL    HW245757  11.507   1.433  12.386
47995SOL     OW45758   3.179  10.197  12.044
47995SOL    HW145759   3.250  10.201  11.981
47995SOL    HW245760   3.148  10.106  12.041
47996SOL     OW45761   0.029   6.989   6.608
47996SOL    HW145762   0.084   6.949   6.675
47996SOL    HW245763  14.818   6.984   6.645
47997SOL     OW45764   1.178   7.136  12.349
47997SOL    HW145765   1.225   7.151  12.267
47997SOL    HW245766   1.113   7.205  12.352
47998SOL     OW45767   4.742   7.996   7.513
47998SOL    HW145768   4.765   8.059   7.445
47998SOL    HW245769   4.817   7.998   7.573
47999SOL     OW45770  13.107   2.813  13.871
47999SOL    HW145771  13.118   2.733  13.820
47999SOL    HW245772  13.103   2.883  13.807
48000SOL     OW45773  13.392  12.963   6.787
48000SOL    HW145774  13.457  13.020   6.828
48000SOL    HW245775  13.326  13.023   6.753
48001SOL     OW45776  13.081  14.527   7.291
48001SOL    HW145777  12.987  14.525   7.273
48001SOL    HW245778  13.118  14.579   7.219
48002SOL     OW45779   4.834  11.954   1.917
48002SOL    HW145780   4.747  11.917   1.931
48002SOL    HW245781   4.890  11.878   1.902
48003SOL     OW45782   8.337   4.686   3.625
48003SOL    HW145783   8.389   4.635   3.562
48003SOL    HW245784   8.345   4.638   3.707
48004SOL     OW45785   2.626   1.679  14.817
48004SOL    HW145786   2.543   1.632  14.827
48004SOL    HW245787   2.648   1.669  14.725
48005SOL     OW45788  11.266   5.883  11.076
48005SOL    HW145789  11.250   5.955  11.136
48005SOL    HW245790  11.234   5.805  11.121
48006SOL     OW45791   6.224   1.953   2.109
48006SOL    HW145792   6.287   2.017   2.142
48006SOL    HW245793   6.231   1.960   2.014
48007SOL     OW45794   8.598   1.996   4.470
48007SOL    HW145795   8.541   1.920   4.469
48007SOL    HW245796   8.540   2.070   4.484
48008SOL     OW45797   1.008  13.837   1.561
48008SOL    HW145798   1.072  13.767   1.579
48008SOL    HW245799   0.933  13.815   1.615
48009SOL     OW45800  14.011   1.886   3.889
48009SOL    HW145801  14.025   1.892   3.794
48009SOL    HW245802  14.089   1.925   3.927
48010SOL     OW45803  12.918  10.346  10.826
48010SOL    HW145804  12.863  10.423  10.846
48010SOL    HW245805  12.857  10.273  10.825
48011SOL     OW45806   9.562   0.136  13.469
48011SOL    HW145807   9.576   0.214  13.522
48011SOL    HW245808   9.626   0.072  13.501
48012SOL     OW45809   5.519  12.739  11.403
48012SOL    HW145810   5.566  12.735  11.487
48012SOL    HW245811   5.530  12.651  11.366
48013SOL     OW45812   4.801   7.770   1.302
48013SOL    HW145813   4.889   7.788   1.270
48013SOL    HW245814   4.768   7.702   1.245
48014SOL     OW45815   0.886  11.783  12.443
48014SOL    HW145816   0.833  11.745  12.513
48014SOL    HW245817   0.894  11.876  12.468
48015SOL     OW45818  11.455  10.791  11.266
48015SOL    HW145819  11.483  10.765  11.354
48015SOL    HW245820  11.537  10.798  11.217
48016SOL     OW45821  12.996   9.090   7.483
48016SOL    HW145822  13.041   9.154   7.429
48016SOL    HW245823  12.915   9.133   7.510
48017SOL     OW45824   1.010  12.497   2.331
48017SOL    HW145825   1.042  12.522   2.418
48017SOL    HW245826   1.089  12.486   2.278
48018SOL     OW45827   9.864  12.690   0.974
48018SOL    HW145828   9.868  12.770   1.026
48018SOL    HW245829   9.806  12.632   1.022
48019SOL     OW45830  13.334  14.571   2.985
48019SOL    HW145831  13.345  14.504   2.917
48019SOL    HW245832  13.264  14.537   3.041
48020SOL     OW45833   8.428   5.181   4.131
48020SOL    HW145834   8.356   5.126   4.102
48020SOL    HW245835   8.391   5.269   4.136
48021SOL     OW45836  11.368  14.738   1.495
48021SOL    HW145837  11.393  14.723   1.404
48021SOL    HW245838  11.287  14.789   1.490
48022SOL     OW45839   6.601  13.506   4.061
48022SOL    HW145840   6.511  13.534   4.074
48022SOL    HW245841   6.597  13.443   3.989
48023SOL     OW45842   0.397   5.342  14.423
48023SOL    HW145843   0.409   5.432  14.395
48023SOL    HW245844   0.303   5.335  14.442
48024SOL     OW45845   5.771   1.828   5.586
48024SOL    HW145846   5.704   1.766   5.618
48024SOL    HW245847   5.738   1.914   5.612
48025SOL     OW45848  13.907   4.617   5.654
48025SOL    HW145849  13.817   4.646   5.642
48025SOL    HW245850  13.939   4.670   5.727
48026SOL     OW45851   4.708   0.653   1.091
48026SOL    HW145852   4.782   0.686   1.040
48026SOL    HW245853   4.747   0.592   1.154
48027SOL     OW45854   4.959   1.175   6.723
48027SOL    HW145855   4.965   1.140   6.812
48027SOL    HW245856   4.887   1.126   6.682
48028SOL     OW45857   0.255   6.252  12.661
48028SOL    HW145858   0.276   6.201  12.739
48028SOL    HW245859   0.163   6.278  12.673
48029SOL     OW45860  11.681   9.771   9.784
48029SOL    HW145861  11.675   9.835   9.713
48029SOL    HW245862  11.604   9.789   9.838
48030SOL     OW45863   2.866  14.405   8.806
48030SOL    HW145864   2.876  14.442   8.719
48030SOL    HW245865   2.799  14.460   8.848
48031SOL     OW45866   5.459   6.484  13.708
48031SOL    HW145867   5.549   6.484  13.738
48031SOL    HW245868   5.411   6.534  13.774
48032SOL     OW45869  13.504   2.775   3.648
48032SOL    HW145870  13.487   2.720   3.725
48032SOL    HW245871  13.594   2.754   3.623
48033SOL     OW45872   8.670   3.306   2.148
48033SOL    HW145873   8.714   3.385   2.180
48033SOL    HW245874   8.579   3.316   2.176
48034SOL     OW45875   4.949  12.829   4.344
48034SOL    HW145876   4.932  12.786   4.427
48034SOL    HW245877   4.928  12.762   4.278
48035SOL     OW45878   9.637  14.102   2.256
48035SOL    HW145879   9.692  14.168   2.214
48035SOL    HW245880   9.619  14.038   2.187
48036SOL     OW45881   1.877  11.195   5.202
48036SOL    HW145882   1.828  11.172   5.281
48036SOL    HW245883   1.817  11.178   5.130
48037SOL     OW45884  13.807  12.956   0.311
48037SOL    HW145885  13.719  12.971   0.276
48037SOL    HW245886  13.827  13.035   0.360
48038SOL     OW45887   0.257   2.409   5.322
48038SOL    HW145888   0.167   2.438   5.337
48038SOL    HW245889   0.286   2.459   5.246
48039SOL     OW45890   1.190   4.561   1.195
48039SOL    HW145891   1.242   4.481   1.194
48039SOL    HW245892   1.154   4.568   1.107
48040SOL     OW45893   4.045   9.426  13.730
48040SOL    HW145894   3.973   9.409  13.668
48040SOL    HW245895   4.101   9.349  13.723
48041SOL     OW45896   5.288  11.858   7.017
48041SOL    HW145897   5.309  11.786   6.958
48041SOL    HW245898   5.230  11.915   6.967
48042SOL     OW45899   0.524   0.925  11.866
48042SOL    HW145900   0.507   0.869  11.790
48042SOL    HW245901   0.466   1.001  11.853
48043SOL     OW45902   0.931   7.223   9.855
48043SOL    HW145903   0.921   7.206   9.761
48043SOL    HW245904   0.931   7.319   9.861
48044SOL     OW45905   3.431  11.817   9.013
48044SOL    HW145906   3.407  11.769   9.092
48044SOL    HW245907   3.426  11.752   8.943
48045SOL     OW45908   7.680   5.179   5.101
48045SOL    HW145909   7.716   5.107   5.151
48045SOL    HW245910   7.699   5.257   5.154
48046SOL     OW45911   1.184   2.325  10.900
48046SOL    HW145912   1.153   2.288  10.983
48046SOL    HW245913   1.263   2.373  10.923
48047SOL     OW45914  10.524   7.875   4.202
48047SOL    HW145915  10.600   7.904   4.252
48047SOL    HW245916  10.521   7.781   4.216
48048SOL     OW45917  13.982  14.215   9.710
48048SOL    HW145918  14.051  14.273   9.742
48048SOL    HW245919  14.008  14.195   9.620
48049SOL     OW45920  12.946   2.748  11.439
48049SOL    HW145921  12.865   2.785  11.404
48049SOL    HW245922  13.011   2.819  11.430
48050SOL     OW45923   0.387   6.176   3.133
48050SOL    HW145924   0.377   6.106   3.198
48050SOL    HW245925   0.429   6.248   3.181
48051SOL     OW45926  14.670   8.502  11.775
48051SOL    HW145927  14.765   8.515  11.786
48051SOL    HW245928  14.651   8.541  11.689
48052SOL     OW45929   3.126  12.462   5.091
48052SOL    HW145930   3.133  12.465   4.996
48052SOL    HW245931   3.047  12.512   5.112
48053SOL     OW45932   3.017  12.297  14.229
48053SOL    HW145933   3.013  12.383  14.189
48053SOL    HW245934   3.044  12.313  14.320
48054SOL     OW45935  10.117   7.364  14.154
48054SOL    HW145936  10.090   7.364  14.062
48054SOL    HW245937  10.062   7.299  14.195
48055SOL     OW45938   0.039   0.379   8.941
48055SOL    HW145939   0.087   0.354   8.862
48055SOL    HW245940   0.029   0.297   8.990
48056SOL     OW45941  13.562  11.615   7.474
48056SOL    HW145942  13.529  11.556   7.542
48056SOL    HW245943  13.484  11.641   7.425
48057SOL     OW45944   0.562   9.730  13.077
48057SOL    HW145945   0.566   9.702  13.169
48057SOL    HW245946   0.645   9.702  13.040
48058SOL     OW45947  14.840   7.260   7.499
48058SOL    HW145948   0.012   7.336   7.530
48058SOL    HW245949   0.011   7.229   7.423
48059SOL     OW45950  10.135   8.174   8.623
48059SOL    HW145951  10.184   8.256   8.628
48059SOL    HW245952  10.096   8.164   8.710
48060SOL     OW45953   6.156  10.607  14.140
48060SOL    HW145954   6.173  10.696  14.108
48060SOL    HW245955   6.078  10.579  14.092
48061SOL     OW45956   8.602   9.138  10.038
48061SOL    HW145957   8.541   9.190   9.985
48061SOL    HW245958   8.681   9.132   9.984
48062SOL     OW45959   8.185  11.200   1.550
48062SOL    HW145960   8.245  11.261   1.508
48062SOL    HW245961   8.220  11.113   1.532
48063SOL     OW45962   5.534   1.621  14.367
48063SOL    HW145963   5.473   1.683  14.328
48063SOL    HW245964   5.492   1.536  14.354
48064SOL     OW45965  12.067   0.957   5.768
48064SOL    HW145966  12.099   1.017   5.700
48064SOL    HW245967  12.136   0.954   5.833
48065SOL     OW45968   9.878   5.171  10.468
48065SOL    HW145969   9.908   5.081  10.453
48065SOL    HW245970   9.955   5.224  10.446
48066SOL     OW45971   7.473   3.385   9.768
48066SOL    HW145972   7.554   3.342   9.796
48066SOL    HW245973   7.404   3.342   9.820
48067SOL     OW45974   3.332  12.291   3.837
48067SOL    HW145975   3.305  12.295   3.928
48067SOL    HW245976   3.405  12.354   3.830
48068SOL     OW45977   3.584  14.737   2.931
48068SOL    HW145978   3.561  14.662   2.986
48068SOL    HW245979   3.660  14.707   2.881
48069SOL     OW45980   0.164   5.012  13.149
48069SOL    HW145981   0.243   5.006  13.204
48069SOL    HW245982   0.133   4.922  13.142
48070SOL     OW45983   8.266   6.349  11.569
48070SOL    HW145984   8.187   6.342  11.623
48070SOL    HW245985   8.336   6.372  11.631
48071SOL     OW45986   7.139   1.931   2.548
48071SOL    HW145987   7.110   2.011   2.504
48071SOL    HW245988   7.205   1.962   2.610
48072SOL     OW45989   1.182   3.544  13.815
48072SOL    HW145990   1.211   3.630  13.847
48072SOL    HW245991   1.239   3.525  13.741
48073SOL     OW45992  11.672  10.364   5.578
48073SOL    HW145993  11.670  10.306   5.502
48073SOL    HW245994  11.670  10.452   5.541
48074SOL     OW45995  10.574   9.711  13.987
48074SOL    HW145996  10.479   9.713  13.975
48074SOL    HW245997  10.587   9.646  14.056
48075SOL     OW45998  13.501  13.843   9.472
48075SOL    HW145999  13.585  13.815   9.437
48075SOL    HW246000  13.449  13.763   9.477
48076SOL     OW46001   3.833   0.687  12.241
48076SOL    HW146002   3.866   0.664  12.155
48076SOL    HW246003   3.761   0.748  12.224
48077SOL     OW46004  10.067   7.776   5.431
48077SOL    HW146005  10.068   7.799   5.338
48077SOL    HW246006   9.989   7.722   5.442
48078SOL     OW46007   1.435   4.519   7.678
48078SOL    HW146008   1.388   4.484   7.602
48078SOL    HW246009   1.479   4.597   7.645
48079SOL     OW46010  12.354   1.640   9.917
48079SOL    HW146011  12.290   1.665   9.850
48079SOL    HW246012  12.431   1.614   9.868
48080SOL     OW46013   9.153   3.155   8.522
48080SOL    HW146014   9.105   3.155   8.604
48080SOL    HW246015   9.178   3.246   8.509
48081SOL     OW46016  14.008   9.739  10.826
48081SOL    HW146017  14.102   9.745  10.844
48081SOL    HW246018  13.994   9.797  10.752
48082SOL     OW46019   7.973   2.024  14.236
48082SOL    HW146020   7.937   2.074  14.309
48082SOL    HW246021   8.065   2.051  14.231
48083SOL     OW46022   9.300  14.106   6.384
48083SOL    HW146023   9.274  14.155   6.462
48083SOL    HW246024   9.218  14.086   6.339
48084SOL     OW46025   2.728   8.352  14.629
48084SOL    HW146026   2.690   8.414  14.567
48084SOL    HW246027   2.659   8.288  14.645
48085SOL     OW46028   9.819  10.913   0.874
48085SOL    HW146029   9.878  10.962   0.930
48085SOL    HW246030   9.731  10.934   0.905
48086SOL     OW46031   2.724   6.714   6.475
48086SOL    HW146032   2.668   6.749   6.544
48086SOL    HW246033   2.696   6.759   6.396
48087SOL     OW46034   6.697   5.284   2.890
48087SOL    HW146035   6.625   5.346   2.903
48087SOL    HW246036   6.774   5.328   2.926
48088SOL     OW46037   9.747   5.810   6.799
48088SOL    HW146038   9.722   5.900   6.820
48088SOL    HW246039   9.693   5.787   6.723
48089SOL     OW46040  14.710   8.090  13.013
48089SOL    HW146041  14.653   8.126  12.944
48089SOL    HW246042  14.704   7.995  13.002
48090SOL     OW46043   5.888  14.097  10.558
48090SOL    HW146044   5.925  14.065  10.476
48090SOL    HW246045   5.849  14.181  10.535
48091SOL     OW46046  14.257   2.747  11.449
48091SOL    HW146047  14.172   2.706  11.435
48091SOL    HW246048  14.315   2.705  11.385
48092SOL     OW46049   0.983  11.119  13.028
48092SOL    HW146050   0.974  11.079  12.941
48092SOL    HW246051   0.986  11.213  13.011
48093SOL     OW46052  11.379  11.287  13.440
48093SOL    HW146053  11.373  11.231  13.517
48093SOL    HW246054  11.300  11.341  13.444
48094SOL     OW46055   6.706   3.180   8.436
48094SOL    HW146056   6.640   3.227   8.386
48094SOL    HW246057   6.676   3.186   8.527
48095SOL     OW46058   5.071   7.837  10.942
48095SOL    HW146059   5.098   7.893  10.869
48095SOL    HW246060   5.133   7.765  10.942
48096SOL     OW46061   5.940   1.715  10.888
48096SOL    HW146062   5.988   1.658  10.948
48096SOL    HW246063   6.006   1.745  10.825
48097SOL     OW46064   6.405   1.317  12.217
48097SOL    HW146065   6.479   1.258  12.203
48097SOL    HW246066   6.431   1.371  12.291
48098SOL     OW46067   1.529  12.027   2.436
48098SOL    HW146068   1.504  12.108   2.481
48098SOL    HW246069   1.467  12.021   2.363
48099SOL     OW46070   6.908  10.403   2.447
48099SOL    HW146071   7.002  10.421   2.448
48099SOL    HW246072   6.886  10.399   2.354
48100SOL     OW46073  14.329   8.971   6.348
48100SOL    HW146074  14.332   9.064   6.325
48100SOL    HW246075  14.303   8.970   6.440
48101SOL     OW46076   0.251   2.843  11.489
48101SOL    HW146077   0.197   2.774  11.450
48101SOL    HW246078   0.212   2.859  11.574
48102SOL     OW46079   1.069  14.670   3.383
48102SOL    HW146080   1.034  14.758   3.390
48102SOL    HW246081   0.993  14.613   3.401
48103SOL     OW46082  10.612   3.362   6.669
48103SOL    HW146083  10.610   3.375   6.574
48103SOL    HW246084  10.551   3.428   6.704
48104SOL     OW46085   1.358  11.139   2.928
48104SOL    HW146086   1.435  11.083   2.929
48104SOL    HW246087   1.284  11.078   2.928
48105SOL     OW46088  14.763   4.598   8.590
48105SOL    HW146089  14.687   4.547   8.561
48105SOL    HW246090  14.830   4.532   8.609
48106SOL     OW46091  14.432  14.486  12.527
48106SOL    HW146092  14.446  14.447  12.440
48106SOL    HW246093  14.457  14.418  12.588
48107SOL     OW46094   3.914   3.690  12.592
48107SOL    HW146095   4.004   3.701  12.623
48107SOL    HW246096   3.860   3.717  12.666
48108SOL     OW46097  10.809  12.164  13.322
48108SOL    HW146098  10.720  12.173  13.356
48108SOL    HW246099  10.840  12.253  13.310
48109SOL     OW46100   9.300  12.524   7.106
48109SOL    HW146101   9.221  12.480   7.136
48109SOL    HW246102   9.342  12.460   7.048
48110SOL     OW46103   0.673  12.409   5.674
48110SOL    HW146104   0.754  12.384   5.627
48110SOL    HW246105   0.653  12.332   5.728
48111SOL     OW46106  14.216   4.994   5.590
48111SOL    HW146107  14.279   4.955   5.529
48111SOL    HW246108  14.193   4.923   5.650
48112SOL     OW46109   1.612   2.132   3.029
48112SOL    HW146110   1.661   2.203   2.987
48112SOL    HW246111   1.670   2.100   3.098
48113SOL     OW46112   8.617   8.446   2.115
48113SOL    HW146113   8.620   8.362   2.161
48113SOL    HW246114   8.525   8.457   2.091
48114SOL     OW46115   4.692   6.550  10.468
48114SOL    HW146116   4.704   6.617  10.536
48114SOL    HW246117   4.777   6.509  10.459
48115SOL     OW46118   7.100   6.092  13.106
48115SOL    HW146119   7.122   6.121  13.194
48115SOL    HW246120   7.013   6.130  13.089
48116SOL     OW46121   3.879   9.884   2.992
48116SOL    HW146122   3.863   9.860   3.084
48116SOL    HW246123   3.897   9.978   2.994
48117SOL     OW46124   1.620   7.013   4.637
48117SOL    HW146125   1.533   7.008   4.679
48117SOL    HW246126   1.652   6.923   4.638
48118SOL     OW46127  10.103   2.830  12.430
48118SOL    HW146128  10.040   2.888  12.473
48118SOL    HW246129  10.058   2.798  12.353
48119SOL     OW46130   4.479   3.774   4.534
48119SOL    HW146131   4.463   3.733   4.620
48119SOL    HW246132   4.452   3.707   4.471
48120SOL     OW46133   2.632  14.229   5.164
48120SOL    HW146134   2.701  14.236   5.230
48120SOL    HW246135   2.563  14.179   5.208
48121SOL     OW46136  14.329   3.766   9.345
48121SOL    HW146137  14.314   3.713   9.423
48121SOL    HW246138  14.384   3.711   9.289
48122SOL     OW46139  11.136   9.685  11.501
48122SOL    HW146140  11.207   9.626  11.474
48122SOL    HW246141  11.177   9.742  11.566
48123SOL     OW46142   0.814  14.255   5.379
48123SOL    HW146143   0.850  14.245   5.467
48123SOL    HW246144   0.753  14.182   5.369
48124SOL     OW46145   3.979   4.686  11.735
48124SOL    HW146146   3.972   4.614  11.671
48124SOL    HW246147   4.072   4.706  11.738
48125SOL     OW46148   2.201   2.075  11.710
48125SOL    HW146149   2.183   2.060  11.617
48125SOL    HW246150   2.280   2.023  11.727
48126SOL     OW46151  11.361  11.982  12.985
48126SOL    HW146152  11.290  12.005  13.045
48126SOL    HW246153  11.327  11.906  12.937
48127SOL     OW46154  13.786   1.821  12.666
48127SOL    HW146155  13.776   1.913  12.691
48127SOL    HW246156  13.864   1.792  12.713
48128SOL     OW46157   6.028  10.057   4.603
48128SOL    HW146158   6.068  10.144   4.607
48128SOL    HW246159   6.102   9.996   4.610
48129SOL     OW46160   2.653   6.171   3.854
48129SOL    HW146161   2.617   6.167   3.943
48129SOL    HW246162   2.609   6.247   3.814
48130SOL     OW46163   9.749   8.907  14.810
48130SOL    HW146164   9.816   8.974  14.800
48130SOL    HW246165   9.684   8.947  14.869
48131SOL     OW46166   3.722   6.428  14.426
48131SOL    HW146167   3.771   6.498  14.382
48131SOL    HW246168   3.776   6.404  14.501
48132SOL     OW46169  12.299   4.857   9.806
48132SOL    HW146170  12.309   4.767   9.775
48132SOL    HW246171  12.341   4.858   9.892
48133SOL     OW46172   8.966   4.617   0.645
48133SOL    HW146173   8.950   4.569   0.727
48133SOL    HW246174   8.926   4.703   0.660
48134SOL     OW46175   3.923  12.560  13.291
48134SOL    HW146176   3.914  12.634  13.231
48134SOL    HW246177   3.851  12.572  13.354
48135SOL     OW46178   4.260  14.832   5.758
48135SOL    HW146179   4.312   0.012   5.702
48135SOL    HW246180   4.229   0.011   5.829
48136SOL     OW46181  12.148   6.895   2.639
48136SOL    HW146182  12.216   6.865   2.700
48136SOL    HW246183  12.117   6.977   2.677
48137SOL     OW46184   7.541   3.125   8.606
48137SOL    HW146185   7.502   3.211   8.594
48137SOL    HW246186   7.622   3.128   8.555
48138SOL     OW46187   0.084   6.322   6.377
48138SOL    HW146188  14.873   6.295   6.353
48138SOL    HW246189   0.104   6.394   6.317
48139SOL     OW46190  11.481   1.938   0.470
48139SOL    HW146191  11.403   1.920   0.417
48139SOL    HW246192  11.539   1.864   0.453
48140SOL     OW46193   2.880   0.964   5.258
48140SOL    HW146194   2.811   0.897   5.261
48140SOL    HW246195   2.837   1.040   5.219
48141SOL     OW46196  13.986   5.528   9.768
48141SOL    HW146197  13.968   5.484   9.851
48141SOL    HW246198  14.080   5.546   9.770
48142SOL     OW46199   4.033   2.989   9.806
48142SOL    HW146200   3.992   2.905   9.825
48142SOL    HW246201   4.122   2.966   9.777
48143SOL     OW46202   9.902   5.873   7.668
48143SOL    HW146203   9.863   5.910   7.747
48143SOL    HW246204   9.993   5.854   7.693
48144SOL     OW46205  13.087  11.834  10.954
48144SOL    HW146206  13.162  11.787  10.917
48144SOL    HW246207  13.043  11.872  10.878
48145SOL     OW46208   3.222   7.031   7.670
48145SOL    HW146209   3.187   6.988   7.748
48145SOL    HW246210   3.316   7.040   7.687
48146SOL     OW46211   4.514   7.936   5.429
48146SOL    HW146212   4.440   7.979   5.387
48146SOL    HW246213   4.576   7.919   5.357
48147SOL     OW46214   6.506   9.217   5.331
48147SOL    HW146215   6.512   9.298   5.382
48147SOL    HW246216   6.554   9.152   5.382
48148SOL     OW46217   4.480   3.147   2.928
48148SOL    HW146218   4.392   3.134   2.963
48148SOL    HW246219   4.466   3.177   2.838
48149SOL     OW46220  14.705   3.747   9.571
48149SOL    HW146221  14.724   3.768   9.479
48149SOL    HW246222  14.758   3.809   9.621
48150SOL     OW46223   5.055   6.693   8.063
48150SOL    HW146224   5.061   6.623   7.999
48150SOL    HW246225   5.126   6.675   8.125
48151SOL     OW46226   4.355   1.588  14.494
48151SOL    HW146227   4.344   1.512  14.551
48151SOL    HW246228   4.396   1.655  14.550
48152SOL     OW46229  14.427   0.682   4.553
48152SOL    HW146230  14.514   0.682   4.592
48152SOL    HW246231  14.442   0.701   4.460
48153SOL     OW46232   4.978  11.392  13.716
48153SOL    HW146233   5.048  11.456  13.704
48153SOL    HW246234   5.022  11.307  13.704
48154SOL     OW46235   8.942  10.124   1.600
48154SOL    HW146236   8.852  10.147   1.575
48154SOL    HW246237   8.992  10.204   1.584
48155SOL     OW46238   6.688  12.295  13.727
48155SOL    HW146239   6.634  12.359  13.773
48155SOL    HW246240   6.629  12.221  13.711
48156SOL     OW46241   0.085   6.533   6.837
48156SOL    HW146242   0.143   6.457   6.831
48156SOL    HW246243   0.013   6.513   6.778
48157SOL     OW46244  13.651   2.135   3.240
48157SOL    HW146245  13.726   2.173   3.195
48157SOL    HW246246  13.675   2.044   3.254
48158SOL     OW46247   7.768   5.457  12.877
48158SOL    HW146248   7.703   5.475  12.946
48158SOL    HW246249   7.719   5.466  12.796
48159SOL     OW46250  11.113   3.092   9.626
48159SOL    HW146251  11.186   3.142   9.663
48159SOL    HW246252  11.150   3.006   9.608
48160SOL     OW46253   4.754  12.406  12.502
48160SOL    HW146254   4.843  12.406  12.538
48160SOL    HW246255   4.759  12.345  12.428
48161SOL     OW46256   1.804  11.004   8.361
48161SOL    HW146257   1.867  11.026   8.293
48161SOL    HW246258   1.857  10.972   8.434
48162SOL     OW46259  10.171   9.687   7.919
48162SOL    HW146260  10.222   9.616   7.957
48162SOL    HW246261  10.086   9.682   7.963
48163SOL     OW46262   4.459   3.598  13.801
48163SOL    HW146263   4.424   3.510  13.814
48163SOL    HW246264   4.553   3.586  13.794
48164SOL     OW46265   1.755  11.547   6.091
48164SOL    HW146266   1.808  11.602   6.034
48164SOL    HW246267   1.789  11.458   6.078
48165SOL     OW46268   5.766   2.993   6.897
48165SOL    HW146269   5.774   2.993   6.992
48165SOL    HW246270   5.811   2.914   6.869
48166SOL     OW46271   8.143   9.294  11.404
48166SOL    HW146272   8.237   9.309  11.404
48166SOL    HW246273   8.106   9.369  11.449
48167SOL     OW46274  13.832  14.422  10.668
48167SOL    HW146275  13.750  14.431  10.619
48167SOL    HW246276  13.809  14.450  10.757
48168SOL     OW46277  10.004   9.113   8.402
48168SOL    HW146278  10.065   9.181   8.372
48168SOL    HW246279  10.057   9.034   8.408
48169SOL     OW46280   2.074  14.155   9.663
48169SOL    HW146281   2.048  14.064   9.676
48169SOL    HW246282   1.996  14.205   9.686
48170SOL     OW46283   8.104   5.909   7.787
48170SOL    HW146284   8.146   5.982   7.741
48170SOL    HW246285   8.039   5.951   7.843
48171SOL     OW46286   2.778   7.822  10.751
48171SOL    HW146287   2.822   7.887  10.805
48171SOL    HW246288   2.842   7.802  10.682
48172SOL     OW46289  14.193  13.567  14.327
48172SOL    HW146290  14.262  13.631  14.345
48172SOL    HW246291  14.196  13.507  14.401
48173SOL     OW46292   9.906   0.527   0.620
48173SOL    HW146293   9.826   0.578   0.627
48173SOL    HW246294   9.969   0.586   0.578
48174SOL     OW46295  13.505   2.644   9.231
48174SOL    HW146296  13.431   2.619   9.287
48174SOL    HW246297  13.554   2.707   9.283
48175SOL     OW46298   1.811  12.921  11.431
48175SOL    HW146299   1.890  12.915  11.378
48175SOL    HW246300   1.745  12.872  11.382
48176SOL     OW46301   2.843   5.663  14.267
48176SOL    HW146302   2.832   5.573  14.236
48176SOL    HW246303   2.859   5.714  14.188
48177SOL     OW46304   0.338   4.000  10.268
48177SOL    HW146305   0.334   4.068  10.200
48177SOL    HW246306   0.254   4.006  10.312
48178SOL     OW46307   7.361  10.164   5.796
48178SOL    HW146308   7.431  10.217   5.757
48178SOL    HW246309   7.382  10.160   5.889
48179SOL     OW46310   5.151   2.624  14.299
48179SOL    HW146311   5.084   2.561  14.324
48179SOL    HW246312   5.107   2.709  14.303
48180SOL     OW46313   8.038   6.294  11.153
48180SOL    HW146314   7.997   6.250  11.227
48180SOL    HW246315   7.965   6.330  11.102
48181SOL     OW46316   6.499   6.903   1.227
48181SOL    HW146317   6.427   6.955   1.193
48181SOL    HW246318   6.541   6.959   1.292
48182SOL     OW46319   9.077   4.422   3.083
48182SOL    HW146320   9.046   4.448   3.169
48182SOL    HW246321   9.104   4.504   3.041
48183SOL     OW46322   0.687  12.445   0.939
48183SOL    HW146323   0.735  12.426   0.858
48183SOL    HW246324   0.722  12.530   0.968
48184SOL     OW46325  11.271  13.687   2.015
48184SOL    HW146326  11.298  13.644   2.095
48184SOL    HW246327  11.186  13.648   1.994
48185SOL     OW46328   4.082   1.664  14.483
48185SOL    HW146329   4.078   1.678  14.578
48185SOL    HW246330   4.174   1.676  14.461
48186SOL     OW46331   6.708   7.288   5.935
48186SOL    HW146332   6.747   7.372   5.962
48186SOL    HW246333   6.761   7.222   5.979
48187SOL     OW46334   3.378  12.683  10.951
48187SOL    HW146335   3.362  12.775  10.929
48187SOL    HW246336   3.473  12.673  10.946
48188SOL     OW46337  10.161  12.836   7.889
48188SOL    HW146338  10.186  12.900   7.823
48188SOL    HW246339  10.122  12.888   7.960
48189SOL     OW46340  13.047   4.492   2.567
48189SOL    HW146341  12.961   4.495   2.525
48189SOL    HW246342  13.102   4.444   2.505
48190SOL     OW46343   8.583   6.012  10.099
48190SOL    HW146344   8.491   6.010  10.124
48190SOL    HW246345   8.622   5.937  10.144
48191SOL     OW46346   7.928   0.357   0.138
48191SOL    HW146347   7.870   0.283   0.118
48191SOL    HW246348   7.952   0.344   0.229
48192SOL     OW46349  12.909   7.752   9.942
48192SOL    HW146350  12.972   7.706   9.998
48192SOL    HW246351  12.824   7.718   9.970
48193SOL     OW46352   4.585   6.676   6.072
48193SOL    HW146353   4.606   6.726   6.152
48193SOL    HW246354   4.652   6.703   6.010
48194SOL     OW46355  12.198  13.308   6.054
48194SOL    HW146356  12.104  13.312   6.037
48194SOL    HW246357  12.228  13.399   6.044
48195SOL     OW46358   0.735   2.315   4.100
48195SOL    HW146359   0.790   2.269   4.164
48195SOL    HW246360   0.645   2.294   4.125
48196SOL     OW46361   3.748  13.735  11.709
48196SOL    HW146362   3.768  13.734  11.615
48196SOL    HW246363   3.834  13.729  11.751
48197SOL     OW46364   2.535   4.270   7.929
48197SOL    HW146365   2.487   4.332   7.874
48197SOL    HW246366   2.472   4.201   7.949
48198SOL     OW46367   4.632   9.633  14.461
48198SOL    HW146368   4.598   9.679  14.384
48198SOL    HW246369   4.696   9.694  14.499
48199SOL     OW46370   6.452  14.243   4.917
48199SOL    HW146371   6.529  14.282   4.874
48199SOL    HW246372   6.474  14.245   5.010
48200SOL     OW46373   7.643   2.114   0.131
48200SOL    HW146374   7.554   2.099   0.164
48200SOL    HW246375   7.649   2.209   0.120
48201SOL     OW46376   5.161   0.872  12.966
48201SOL    HW146377   5.198   0.897  12.881
48201SOL    HW246378   5.178   0.778  12.972
48202SOL     OW46379  11.215  11.845   3.692
48202SOL    HW146380  11.296  11.840   3.742
48202SOL    HW246381  11.242  11.874   3.604
48203SOL     OW46382   7.681  10.604  12.454
48203SOL    HW146383   7.618  10.538  12.483
48203SOL    HW246384   7.763  10.557  12.445
48204SOL     OW46385  10.068   2.192  12.851
48204SOL    HW146386  10.085   2.268  12.795
48204SOL    HW246387   9.995   2.147  12.808
48205SOL     OW46388   2.902   6.314   6.862
48205SOL    HW146389   2.814   6.309   6.824
48205SOL    HW246390   2.958   6.342   6.789
48206SOL     OW46391   5.370  13.654  13.718
48206SOL    HW146392   5.288  13.621  13.755
48206SOL    HW246393   5.436  13.591  13.746
48207SOL     OW46394  13.941  10.445   3.751
48207SOL    HW146395  13.937  10.368   3.808
48207SOL    HW246396  13.977  10.514   3.807
48208SOL     OW46397   3.712   3.183   4.414
48208SOL    HW146398   3.704   3.263   4.362
48208SOL    HW246399   3.805   3.180   4.438
48209SOL     OW46400   8.908  13.228   8.169
48209SOL    HW146401   8.960  13.226   8.249
48209SOL    HW246402   8.822  13.196   8.195
48210SOL     OW46403  11.961   3.479  14.277
48210SOL    HW146404  12.050   3.442  14.275
48210SOL    HW246405  11.974   3.573  14.267
48211SOL     OW46406   8.820   7.918  11.678
48211SOL    HW146407   8.832   8.000  11.726
48211SOL    HW246408   8.870   7.853  11.729
48212SOL     OW46409   3.947   7.216  10.326
48212SOL    HW146410   3.961   7.122  10.320
48212SOL    HW246411   4.023   7.249  10.375
48213SOL     OW46412   1.594  10.267   6.104
48213SOL    HW146413   1.580  10.308   6.190
48213SOL    HW246414   1.529  10.196   6.101
48214SOL     OW46415   2.720   3.790   7.447
48214SOL    HW146416   2.681   3.723   7.504
48214SOL    HW246417   2.687   3.770   7.360
48215SOL     OW46418   2.373  11.296  10.760
48215SOL    HW146419   2.396  11.253  10.843
48215SOL    HW246420   2.394  11.231  10.693
48216SOL     OW46421   9.051  13.636   7.790
48216SOL    HW146422   9.146  13.635   7.786
48216SOL    HW246423   9.030  13.589   7.871
48217SOL     OW46424   4.939   1.937   6.237
48217SOL    HW146425   4.946   1.888   6.155
48217SOL    HW246426   5.020   1.988   6.241
48218SOL     OW46427   9.329   2.771   5.125
48218SOL    HW146428   9.245   2.725   5.118
48218SOL    HW246429   9.380   2.719   5.188
48219SOL     OW46430   1.965  13.740  13.630
48219SOL    HW146431   1.921  13.693  13.560
48219SOL    HW246432   1.915  13.822  13.640
48220SOL     OW46433   9.904   4.710   3.847
48220SOL    HW146434   9.835   4.776   3.845
48220SOL    HW246435   9.868   4.640   3.901
48221SOL     OW46436   8.273  10.111   1.828
48221SOL    HW146437   8.290  10.018   1.811
48221SOL    HW246438   8.177  10.118   1.830
48222SOL     OW46439   0.417   3.097  13.615
48222SOL    HW146440   0.330   3.088  13.576
48222SOL    HW246441   0.447   3.183  13.585
48223SOL     OW46442   3.574   0.014   4.521
48223SOL    HW146443   3.625   0.093   4.540
48223SOL    HW246444   3.501   0.046   4.468
48224SOL     OW46445   7.639   0.195   6.959
48224SOL    HW146446   7.640   0.103   6.931
48224SOL    HW246447   7.552   0.226   6.936
48225SOL     OW46448  14.305   7.815  10.585
48225SOL    HW146449  14.330   7.824  10.677
48225SOL    HW246450  14.386   7.830  10.536
48226SOL     OW46451  13.130   4.957  12.354
48226SOL    HW146452  13.164   4.896  12.419
48226SOL    HW246453  13.136   5.043  12.396
48227SOL     OW46454   4.909  14.385   9.630
48227SOL    HW146455   4.986  14.329   9.620
48227SOL    HW246456   4.839  14.337   9.585
48228SOL     OW46457  13.611   8.906   1.140
48228SOL    HW146458  13.604   8.983   1.196
48228SOL    HW246459  13.522   8.890   1.110
48229SOL     OW46460   4.298   2.107  14.005
48229SOL    HW146461   4.233   2.124  13.937
48229SOL    HW246462   4.299   2.012  14.015
48230SOL     OW46463   8.136  12.152  14.638
48230SOL    HW146464   8.189  12.221  14.677
48230SOL    HW246465   8.077  12.197  14.578
48231SOL     OW46466   9.186   2.548   4.358
48231SOL    HW146467   9.182   2.524   4.265
48231SOL    HW246468   9.273   2.585   4.369
48232SOL     OW46469   4.196  14.811  10.221
48232SOL    HW146470   4.247  14.853  10.290
48232SOL    HW246471   4.259  14.792  10.152
48233SOL     OW46472  10.520  12.074  11.605
48233SOL    HW146473  10.462  12.147  11.625
48233SOL    HW246474  10.526  12.025  11.687
48234SOL     OW46475  11.160  13.005   8.562
48234SOL    HW146476  11.255  13.011   8.550
48234SOL    HW246477  11.149  12.975   8.652
48235SOL     OW46478  12.499   0.061   2.258
48235SOL    HW146479  12.533   0.014   2.333
48235SOL    HW246480  12.499   0.153   2.284
48236SOL     OW46481   1.458  12.841   3.153
48236SOL    HW146482   1.495  12.753   3.155
48236SOL    HW246483   1.389  12.840   3.220
48237SOL     OW46484   5.374   9.613   7.060
48237SOL    HW146485   5.419   9.579   7.138
48237SOL    HW246486   5.283   9.624   7.089
48238SOL     OW46487  14.372   0.478  13.133
48238SOL    HW146488  14.354   0.440  13.047
48238SOL    HW246489  14.448   0.430  13.165
48239SOL     OW46490   8.623  13.590  10.439
48239SOL    HW146491   8.588  13.501  10.428
48239SOL    HW246492   8.555  13.637  10.487
48240SOL     OW46493   4.654   4.459   5.385
48240SOL    HW146494   4.703   4.538   5.365
48240SOL    HW246495   4.715   4.387   5.369
48241SOL     OW46496  10.541   6.884   6.689
48241SOL    HW146497  10.555   6.809   6.746
48241SOL    HW246498  10.606   6.948   6.717
48242SOL     OW46499   8.560   8.833   8.043
48242SOL    HW146500   8.571   8.852   8.136
48242SOL    HW246501   8.601   8.907   7.999
48243SOL     OW46502   2.996   1.852   9.658
48243SOL    HW146503   3.002   1.919   9.590
48243SOL    HW246504   2.989   1.902   9.739
48244SOL     OW46505  14.307   8.207   8.302
48244SOL    HW146506  14.375   8.270   8.327
48244SOL    HW246507  14.318   8.196   8.208
48245SOL     OW46508   7.381  13.471  12.510
48245SOL    HW146509   7.356  13.548  12.458
48245SOL    HW246510   7.434  13.418  12.451
48246SOL     OW46511   7.617  10.308   8.936
48246SOL    HW146512   7.669  10.259   8.872
48246SOL    HW246513   7.554  10.357   8.883
48247SOL     OW46514  13.148   4.888   1.785
48247SOL    HW146515  13.063   4.904   1.742
48247SOL    HW246516  13.209   4.946   1.740
48248SOL     OW46517   0.763   7.168   2.451
48248SOL    HW146518   0.842   7.138   2.496
48248SOL    HW246519   0.708   7.090   2.445
48249SOL     OW46520   9.815   8.385   6.960
48249SOL    HW146521   9.787   8.295   6.979
48249SOL    HW246522   9.885   8.376   6.895
48250SOL     OW46523   0.162   2.966   5.713
48250SOL    HW146524   0.070   2.975   5.740
48250SOL    HW246525   0.211   2.964   5.795
48251SOL     OW46526  13.169  10.291   4.318
48251SOL    HW146527  13.200  10.249   4.398
48251SOL    HW246528  13.074  10.280   4.321
48252SOL     OW46529  10.124   5.956   5.145
48252SOL    HW146530  10.216   5.953   5.117
48252SOL    HW246531  10.088   6.032   5.100
48253SOL     OW46532   0.078   8.602   1.660
48253SOL    HW146533   0.067   8.519   1.613
48253SOL    HW246534   0.173   8.610   1.673
48254SOL     OW46535   2.062   9.920   4.630
48254SOL    HW146536   2.097   9.932   4.542
48254SOL    HW246537   2.133   9.878   4.679
48255SOL     OW46538  13.345  11.838  11.831
48255SOL    HW146539  13.419  11.786  11.862
48255SOL    HW246540  13.268  11.789  11.859
48256SOL     OW46541   1.299  11.250   2.641
48256SOL    HW146542   1.262  11.290   2.720
48256SOL    HW246543   1.252  11.168   2.631
48257SOL     OW46544  12.805   3.181  12.447
48257SOL    HW146545  12.718   3.168  12.408
48257SOL    HW246546  12.836   3.092  12.465
48258SOL     OW46547  12.179  10.638   6.750
48258SOL    HW146548  12.185  10.571   6.681
48258SOL    HW246549  12.268  10.673   6.757
48259SOL     OW46550  12.713   3.797   5.713
48259SOL    HW146551  12.652   3.744   5.765
48259SOL    HW246552  12.766   3.732   5.666
48260SOL     OW46553  11.629  14.221  10.566
48260SOL    HW146554  11.692  14.188  10.630
48260SOL    HW246555  11.674  14.295  10.524
48261SOL     OW46556   5.700  14.356  10.244
48261SOL    HW146557   5.660  14.273  10.270
48261SOL    HW246558   5.659  14.377  10.160
48262SOL     OW46559   2.538   3.398  13.680
48262SOL    HW146560   2.630   3.422  13.664
48262SOL    HW246561   2.496   3.406  13.594
48263SOL     OW46562   5.689   8.768   7.613
48263SOL    HW146563   5.685   8.859   7.643
48263SOL    HW246564   5.763   8.766   7.552
48264SOL     OW46565   5.857   8.955  10.544
48264SOL    HW146566   5.883   8.863  10.557
48264SOL    HW246567   5.894   9.000  10.620
48265SOL     OW46568   4.463   5.063   0.748
48265SOL    HW146569   4.451   4.968   0.743
48265SOL    HW246570   4.544   5.079   0.701
48266SOL     OW46571  14.267   9.153  13.895
48266SOL    HW146572  14.281   9.179  13.804
48266SOL    HW246573  14.280   9.058  13.895
48267SOL     OW46574   8.094   4.921  12.232
48267SOL    HW146575   8.143   5.003  12.238
48267SOL    HW246576   8.137   4.864  12.296
48268SOL     OW46577   7.262  13.228   8.340
48268SOL    HW146578   7.336  13.289   8.341
48268SOL    HW246579   7.213  13.249   8.420
48269SOL     OW46580  11.292   2.620   5.440
48269SOL    HW146581  11.250   2.556   5.497
48269SOL    HW246582  11.288   2.581   5.353
48270SOL     OW46583   8.220  14.374  11.030
48270SOL    HW146584   8.138  14.423  11.034
48270SOL    HW246585   8.245  14.377  10.937
48271SOL     OW46586   2.083  10.271   8.163
48271SOL    HW146587   2.133  10.191   8.178
48271SOL    HW246588   2.024  10.248   8.091
48272SOL     OW46589  10.496   1.930   7.183
48272SOL    HW146590  10.451   1.981   7.250
48272SOL    HW246591  10.589   1.939   7.204
48273SOL     OW46592  10.792  11.405   0.103
48273SOL    HW146593  10.779  11.494   0.136
48273SOL    HW246594  10.730  11.352   0.153
48274SOL     OW46595  13.569   5.191   4.641
48274SOL    HW146596  13.604   5.136   4.571
48274SOL    HW246597  13.501   5.138   4.682
48275SOL     OW46598  12.373  12.134   0.930
48275SOL    HW146599  12.442  12.155   0.867
48275SOL    HW246600  12.328  12.217   0.946
48276SOL     OW46601  14.177   7.245   4.030
48276SOL    HW146602  14.228   7.302   3.973
48276SOL    HW246603  14.228   7.238   4.111
48277SOL     OW46604   2.671   6.729   7.830
48277SOL    HW146605   2.763   6.746   7.811
48277SOL    HW246606   2.672   6.651   7.885
48278SOL     OW46607  14.691   9.772  14.423
48278SOL    HW146608  14.782   9.746  14.434
48278SOL    HW246609  14.694   9.847  14.364
48279SOL     OW46610   0.061   4.078  13.206
48279SOL    HW146611   0.133   4.054  13.264
48279SOL    HW246612   0.011   4.144  13.255
48280SOL     OW46613  11.802  12.928   5.289
48280SOL    HW146614  11.857  13.001   5.263
48280SOL    HW246615  11.765  12.954   5.373
48281SOL     OW46616   7.375   7.836   5.860
48281SOL    HW146617   7.468   7.835   5.886
48281SOL    HW246618   7.371   7.901   5.790
48282SOL     OW46619   9.787  13.427  13.856
48282SOL    HW146620   9.763  13.513  13.891
48282SOL    HW246621   9.737  13.365  13.910
48283SOL     OW46622   2.534   5.320   6.454
48283SOL    HW146623   2.625   5.303   6.478
48283SOL    HW246624   2.534   5.326   6.359
48284SOL     OW46625  14.727   1.019   5.827
48284SOL    HW146626  14.821   1.009   5.844
48284SOL    HW246627  14.695   1.070   5.901
48285SOL     OW46628  11.452   7.819   1.136
48285SOL    HW146629  11.474   7.781   1.051
48285SOL    HW246630  11.382   7.881   1.118
48286SOL     OW46631  12.775  11.484   1.595
48286SOL    HW146632  12.848  11.425   1.614
48286SOL    HW246633  12.697  11.430   1.606
48287SOL     OW46634   4.135   7.661  12.338
48287SOL    HW146635   4.112   7.611  12.259
48287SOL    HW246636   4.143   7.595  12.407
48288SOL     OW46637   7.129   5.496  12.903
48288SOL    HW146638   7.202   5.510  12.843
48288SOL    HW246639   7.150   5.412  12.945
48289SOL     OW46640   4.146  10.826  13.941
48289SOL    HW146641   4.068  10.839  13.994
48289SOL    HW246642   4.189  10.750  13.980
48290SOL     OW46643   4.487  12.645  11.919
48290SOL    HW146644   4.556  12.632  11.853
48290SOL    HW246645   4.491  12.566  11.973
48291SOL     OW46646   6.875   5.528   0.797
48291SOL    HW146647   6.829   5.458   0.845
48291SOL    HW246648   6.908   5.586   0.866
48292SOL     OW46649  11.494   2.760  13.052
48292SOL    HW146650  11.451   2.751  13.137
48292SOL    HW246651  11.433   2.721  12.990
48293SOL     OW46652   4.172  13.672  13.994
48293SOL    HW146653   4.123  13.593  14.013
48293SOL    HW246654   4.106  13.738  13.973
48294SOL     OW46655  10.735  11.280  11.837
48294SOL    HW146656  10.670  11.213  11.860
48294SOL    HW246657  10.811  11.230  11.808
48295SOL     OW46658   8.416   3.030   9.168
48295SOL    HW146659   8.496   2.991   9.202
48295SOL    HW246660   8.385   2.968   9.102
48296SOL     OW46661   1.159   3.784  13.207
48296SOL    HW146662   1.185   3.853  13.268
48296SOL    HW246663   1.230   3.720  13.211
48297SOL     OW46664  13.259  10.901   8.685
48297SOL    HW146665  13.192  10.942   8.631
48297SOL    HW246666  13.329  10.877   8.623
48298SOL     OW46667   7.465   6.942  10.428
48298SOL    HW146668   7.468   7.015  10.365
48298SOL    HW246669   7.533   6.963  10.492
48299SOL     OW46670   8.070   2.969   7.357
48299SOL    HW146671   8.104   3.058   7.357
48299SOL    HW246672   7.993   2.973   7.415
48300SOL     OW46673  10.392  12.153  12.745
48300SOL    HW146674  10.397  12.238  12.789
48300SOL    HW246675  10.300  12.127  12.755
48301SOL     OW46676   5.401   6.826   9.687
48301SOL    HW146677   5.422   6.920   9.687
48301SOL    HW246678   5.336   6.816   9.757
48302SOL     OW46679   8.586   3.135  14.487
48302SOL    HW146680   8.491   3.137  14.477
48302SOL    HW246681   8.613   3.227  14.479
48303SOL     OW46682   2.138  10.463  13.502
48303SOL    HW146683   2.124  10.539  13.558
48303SOL    HW246684   2.168  10.395  13.562
48304SOL     OW46685   2.285  14.730  11.249
48304SOL    HW146686   2.233  14.687  11.317
48304SOL    HW246687   2.222  14.784  11.201
48305SOL     OW46688   3.088  10.031   1.954
48305SOL    HW146689   3.141  10.110   1.946
48305SOL    HW246690   3.147   9.965   1.991
48306SOL     OW46691   1.740   6.355   1.645
48306SOL    HW146692   1.778   6.389   1.726
48306SOL    HW246693   1.742   6.260   1.655
48307SOL     OW46694   8.213   5.103   1.120
48307SOL    HW146695   8.298   5.059   1.127
48307SOL    HW246696   8.197   5.137   1.208
48308SOL     OW46697   9.823   5.300   9.642
48308SOL    HW146698   9.832   5.268   9.552
48308SOL    HW246699   9.728   5.310   9.654
48309SOL     OW46700   4.154   4.233   9.684
48309SOL    HW146701   4.079   4.175   9.703
48309SOL    HW246702   4.157   4.293   9.758
48310SOL     OW46703   9.454  11.776   7.162
48310SOL    HW146704   9.378  11.718   7.170
48310SOL    HW246705   9.471  11.781   7.068
48311SOL     OW46706   3.700   7.913  14.129
48311SOL    HW146707   3.707   7.865  14.211
48311SOL    HW246708   3.754   7.863  14.068
48312SOL     OW46709  13.679   1.512  10.297
48312SOL    HW146710  13.696   1.596  10.339
48312SOL    HW246711  13.584   1.505  10.293
48313SOL     OW46712   3.359   6.938   2.723
48313SOL    HW146713   3.282   6.967   2.674
48313SOL    HW246714   3.400   7.020   2.752
48314SOL     OW46715   6.160   7.272   3.167
48314SOL    HW146716   6.148   7.225   3.250
48314SOL    HW246717   6.255   7.278   3.156
48315SOL     OW46718   1.100  11.924  14.704
48315SOL    HW146719   1.089  11.835  14.671
48315SOL    HW246720   1.076  11.918  14.797
48316SOL     OW46721   6.879  14.458   1.547
48316SOL    HW146722   6.852  14.487   1.634
48316SOL    HW246723   6.917  14.536   1.507
48317SOL     OW46724   9.484  12.637   6.026
48317SOL    HW146725   9.533  12.611   5.948
48317SOL    HW246726   9.399  12.594   6.016
48318SOL     OW46727   3.672  10.047  11.153
48318SOL    HW146728   3.679  10.081  11.064
48318SOL    HW246729   3.578  10.046  11.171
48319SOL     OW46730   3.388   1.508  13.761
48319SOL    HW146731   3.361   1.545  13.677
48319SOL    HW246732   3.341   1.561  13.826
48320SOL     OW46733   5.981   6.023   8.929
48320SOL    HW146734   5.976   6.084   9.003
48320SOL    HW246735   5.905   6.044   8.875
48321SOL     OW46736  14.119  10.086  10.227
48321SOL    HW146737  14.087  10.117  10.143
48321SOL    HW246738  14.129  10.165  10.281
48322SOL     OW46739   9.892  14.195   4.075
48322SOL    HW146740   9.938  14.116   4.104
48322SOL    HW246741   9.870  14.177   3.983
48323SOL     OW46742   9.295   5.197   1.408
48323SOL    HW146743   9.214   5.248   1.416
48323SOL    HW246744   9.354   5.254   1.358
48324SOL     OW46745  13.622  11.898  10.197
48324SOL    HW146746  13.600  11.824  10.254
48324SOL    HW246747  13.578  11.973  10.237
48325SOL     OW46748   7.430   8.160  11.623
48325SOL    HW146749   7.463   8.080  11.581
48325SOL    HW246750   7.374   8.129  11.693
48326SOL     OW46751   9.242  12.990   4.673
48326SOL    HW146752   9.260  12.954   4.760
48326SOL    HW246753   9.149  12.973   4.659
48327SOL     OW46754  10.793   1.340  11.594
48327SOL    HW146755  10.888   1.337  11.604
48327SOL    HW246756  10.771   1.258  11.549
48328SOL     OW46757  10.780   9.267   3.925
48328SOL    HW146758  10.843   9.223   3.981
48328SOL    HW246759  10.764   9.205   3.853
48329SOL     OW46760  14.264   0.987  14.752
48329SOL    HW146761  14.245   1.019  14.664
48329SOL    HW246762  14.315   1.057  14.793
48330SOL     OW46763   3.444   8.831  13.027
48330SOL    HW146764   3.410   8.805  12.941
48330SOL    HW246765   3.526   8.784  13.036
48331SOL     OW46766  11.171   5.292   2.720
48331SOL    HW146767  11.107   5.222   2.719
48331SOL    HW246768  11.253   5.250   2.695
48332SOL     OW46769   2.267   9.564   3.503
48332SOL    HW146770   2.338   9.531   3.447
48332SOL    HW246771   2.187   9.529   3.464
48333SOL     OW46772   6.511  10.451   7.157
48333SOL    HW146773   6.561  10.408   7.226
48333SOL    HW246774   6.481  10.380   7.101
48334SOL     OW46775   3.379   2.602   6.649
48334SOL    HW146776   3.432   2.545   6.593
48334SOL    HW246777   3.289   2.586   6.620
48335SOL     OW46778  14.463   4.989   9.612
48335SOL    HW146779  14.546   5.033   9.597
48335SOL    HW246780  14.487   4.903   9.647
48336SOL     OW46781  14.565   9.280  14.529
48336SOL    HW146782  14.551   9.360  14.478
48336SOL    HW246783  14.528   9.300  14.615
48337SOL     OW46784  11.106  14.329   7.858
48337SOL    HW146785  11.178  14.310   7.917
48337SOL    HW246786  11.128  14.283   7.777
48338SOL     OW46787   4.270   8.411  13.803
48338SOL    HW146788   4.286   8.384  13.713
48338SOL    HW246789   4.344   8.375  13.852
48339SOL     OW46790   1.508   5.151  12.373
48339SOL    HW146791   1.513   5.245  12.393
48339SOL    HW246792   1.456   5.146  12.293
48340SOL     OW46793   9.768  10.142   5.384
48340SOL    HW146794   9.797  10.231   5.401
48340SOL    HW246795   9.689  10.152   5.330
48341SOL     OW46796   5.251   4.270  10.014
48341SOL    HW146797   5.271   4.176  10.019
48341SOL    HW246798   5.185   4.277   9.945
48342SOL     OW46799  13.759   6.830  11.046
48342SOL    HW146800  13.738   6.737  11.042
48342SOL    HW246801  13.819   6.839  11.120
48343SOL     OW46802  13.577   5.953  11.767
48343SOL    HW146803  13.576   6.047  11.784
48343SOL    HW246804  13.646   5.920  11.826
48344SOL     OW46805   2.363   1.308   1.281
48344SOL    HW146806   2.297   1.239   1.290
48344SOL    HW246807   2.316   1.380   1.239
48345SOL     OW46808   5.042   9.087   8.571
48345SOL    HW146809   5.003   9.066   8.486
48345SOL    HW246810   4.977   9.141   8.615
48346SOL     OW46811   5.714   7.534  13.205
48346SOL    HW146812   5.678   7.491  13.282
48346SOL    HW246813   5.638   7.549  13.148
48347SOL     OW46814   8.304   3.845   9.195
48347SOL    HW146815   8.398   3.859   9.205
48347SOL    HW246816   8.285   3.875   9.106
48348SOL     OW46817   7.917   9.382   1.290
48348SOL    HW146818   7.837   9.422   1.324
48348SOL    HW246819   7.987   9.415   1.346
48349SOL     OW46820   3.868  12.396   6.139
48349SOL    HW146821   3.819  12.352   6.070
48349SOL    HW246822   3.820  12.375   6.220
48350SOL     OW46823  14.145   0.302  11.554
48350SOL    HW146824  14.063   0.344  11.579
48350SOL    HW246825  14.123   0.250  11.477
48351SOL     OW46826   7.199   3.001  10.449
48351SOL    HW146827   7.227   3.092  10.457
48351SOL    HW246828   7.106   3.007  10.427
48352SOL     OW46829   1.336   0.503   3.379
48352SOL    HW146830   1.307   0.579   3.430
48352SOL    HW246831   1.355   0.436   3.445
48353SOL     OW46832   8.874  12.287  12.799
48353SOL    HW146833   8.968  12.304  12.803
48353SOL    HW246834   8.866  12.204  12.752
48354SOL     OW46835  12.378   8.444  13.358
48354SOL    HW146836  12.374   8.496  13.438
48354SOL    HW246837  12.335   8.362  13.381
48355SOL     OW46838   2.527   7.829   9.732
48355SOL    HW146839   2.594   7.781   9.684
48355SOL    HW246840   2.456   7.841   9.668
48356SOL     OW46841   2.343   4.592  12.298
48356SOL    HW146842   2.267   4.625  12.250
48356SOL    HW246843   2.415   4.598  12.235
48357SOL     OW46844  13.015   2.054   2.264
48357SOL    HW146845  13.033   2.142   2.299
48357SOL    HW246846  13.099   2.023   2.232
48358SOL     OW46847  10.784   5.331   3.029
48358SOL    HW146848  10.775   5.385   2.950
48358SOL    HW246849  10.876   5.305   3.029
48359SOL     OW46850  13.166  11.473  12.850
48359SOL    HW146851  13.149  11.491  12.758
48359SOL    HW246852  13.259  11.491  12.861
48360SOL     OW46853   1.958   8.638   1.253
48360SOL    HW146854   1.945   8.715   1.309
48360SOL    HW246855   1.905   8.570   1.294
48361SOL     OW46856   2.041  11.051   0.835
48361SOL    HW146857   2.091  11.088   0.907
48361SOL    HW246858   1.951  11.049   0.867
48362SOL     OW46859   1.423   6.130  11.590
48362SOL    HW146860   1.476   6.117  11.669
48362SOL    HW246861   1.481   6.108  11.518
48363SOL     OW46862  10.307  10.936   5.023
48363SOL    HW146863  10.372  10.966   4.959
48363SOL    HW246864  10.344  10.962   5.107
48364SOL     OW46865   0.563   6.007   0.486
48364SOL    HW146866   0.622   6.051   0.547
48364SOL    HW246867   0.525   5.935   0.538
48365SOL     OW46868   4.041   8.729   2.337
48365SOL    HW146869   4.127   8.727   2.294
48365SOL    HW246870   4.036   8.817   2.375
48366SOL     OW46871   2.791  11.635   2.555
48366SOL    HW146872   2.859  11.635   2.623
48366SOL    HW246873   2.839  11.641   2.473
48367SOL     OW46874   0.868  11.690   6.828
48367SOL    HW146875   0.843  11.701   6.920
48367SOL    HW246876   0.884  11.779   6.797
48368SOL     OW46877   7.626  14.004   7.122
48368SOL    HW146878   7.590  14.041   7.203
48368SOL    HW246879   7.720  14.017   7.129
48369SOL     OW46880   7.997   8.716   1.209
48369SOL    HW146881   7.953   8.741   1.290
48369SOL    HW246882   7.939   8.748   1.139
48370SOL     OW46883   8.924   8.030  13.923
48370SOL    HW146884   8.839   7.992  13.942
48370SOL    HW246885   8.910   8.125  13.929
48371SOL     OW46886   5.412  11.418  11.305
48371SOL    HW146887   5.471  11.350  11.273
48371SOL    HW246888   5.460  11.500  11.289
48372SOL     OW46889  10.179   4.067   2.827
48372SOL    HW146890  10.102   4.039   2.778
48372SOL    HW246891  10.144   4.130   2.891
48373SOL     OW46892   3.606  14.562  11.305
48373SOL    HW146893   3.686  14.607  11.333
48373SOL    HW246894   3.579  14.608  11.226
48374SOL     OW46895  11.244   1.506   8.966
48374SOL    HW146896  11.197   1.506   8.883
48374SOL    HW246897  11.192   1.451   9.024
48375SOL     OW46898   2.712   8.531   7.513
48375SOL    HW146899   2.782   8.593   7.534
48375SOL    HW246900   2.648   8.543   7.583
48376SOL     OW46901  13.048   1.297  11.913
48376SOL    HW146902  13.026   1.333  11.827
48376SOL    HW246903  13.030   1.204  11.905
48377SOL     OW46904   8.779   2.015  11.449
48377SOL    HW146905   8.691   2.035  11.416
48377SOL    HW246906   8.794   2.080  11.518
48378SOL     OW46907  14.861   9.466   0.978
48378SOL    HW146908  14.793   9.421   1.027
48378SOL    HW246909  14.835   9.458   0.887
48379SOL     OW46910   3.105  13.453  11.953
48379SOL    HW146911   3.049  13.399  12.010
48379SOL    HW246912   3.085  13.422  11.865
48380SOL     OW46913   7.902  10.008   7.434
48380SOL    HW146914   7.959  10.012   7.511
48380SOL    HW246915   7.961   9.984   7.362
48381SOL     OW46916   9.725  11.550   8.539
48381SOL    HW146917   9.819  11.536   8.546
48381SOL    HW246918   9.701  11.510   8.455
48382SOL     OW46919   9.452   5.739  11.610
48382SOL    HW146920   9.370   5.710  11.648
48382SOL    HW246921   9.520   5.704  11.668
48383SOL     OW46922   9.780  13.329   0.257
48383SOL    HW146923   9.853  13.280   0.295
48383SOL    HW246924   9.758  13.281   0.177
48384SOL     OW46925   5.752   7.816   4.560
48384SOL    HW146926   5.678   7.800   4.501
48384SOL    HW246927   5.817   7.860   4.504
48385SOL     OW46928   1.209   1.637   8.376
48385SOL    HW146929   1.163   1.573   8.321
48385SOL    HW246930   1.163   1.720   8.360
48386SOL     OW46931  10.556  12.406  10.626
48386SOL    HW146932  10.611  12.420  10.548
48386SOL    HW246933  10.525  12.316  10.617
48387SOL     OW46934  14.594   1.912   2.564
48387SOL    HW146935  14.670   1.858   2.546
48387SOL    HW246936  14.532   1.854   2.608
48388SOL     OW46937   7.942   8.465   0.903
48388SOL    HW146938   7.884   8.534   0.935
48388SOL    HW246939   7.953   8.406   0.977
48389SOL     OW46940  12.279  11.916   2.815
48389SOL    HW146941  12.217  11.856   2.857
48389SOL    HW246942  12.312  11.970   2.887
48390SOL     OW46943  12.372  11.719  12.959
48390SOL    HW146944  12.297  11.684  12.911
48390SOL    HW246945  12.334  11.755  13.039
48391SOL     OW46946   2.207   8.360  12.426
48391SOL    HW146947   2.127   8.377  12.375
48391SOL    HW246948   2.227   8.268  12.408
48392SOL     OW46949  13.134   1.335   0.177
48392SOL    HW146950  13.088   1.399   0.124
48392SOL    HW246951  13.168   1.271   0.114
48393SOL     OW46952   7.415   4.193   4.209
48393SOL    HW146953   7.346   4.157   4.154
48393SOL    HW246954   7.376   4.272   4.248
48394SOL     OW46955   1.546  10.873   1.636
48394SOL    HW146956   1.574  10.846   1.723
48394SOL    HW246957   1.548  10.792   1.585
48395SOL     OW46958  14.156   1.771  11.435
48395SOL    HW146959  14.155   1.680  11.466
48395SOL    HW246960  14.172   1.764  11.341
48396SOL     OW46961  10.071  10.202   8.294
48396SOL    HW146962  10.048  10.149   8.371
48396SOL    HW246963  10.156  10.167   8.267
48397SOL     OW46964   8.303  11.083   9.562
48397SOL    HW146965   8.213  11.113   9.551
48397SOL    HW246966   8.355  11.148   9.514
48398SOL     OW46967  10.716   5.073   8.484
48398SOL    HW146968  10.666   4.992   8.476
48398SOL    HW246969  10.801   5.044   8.517
48399SOL     OW46970  10.751   7.624   7.772
48399SOL    HW146971  10.827   7.625   7.830
48399SOL    HW246972  10.687   7.569   7.817
48400SOL     OW46973   5.967   4.015  12.431
48400SOL    HW146974   5.994   3.945  12.372
48400SOL    HW246975   5.938   4.086  12.374
48401SOL     OW46976   7.482   0.840   2.786
48401SOL    HW146977   7.467   0.909   2.850
48401SOL    HW246978   7.405   0.842   2.730
48402SOL     OW46979  13.457  14.145  14.851
48402SOL    HW146980  13.460  14.236   0.003
48402SOL    HW246981  13.464  14.151  14.756
48403SOL     OW46982  12.182   3.889  12.126
48403SOL    HW146983  12.179   3.798  12.154
48403SOL    HW246984  12.124   3.892  12.049
48404SOL     OW46985   8.061  13.734   3.250
48404SOL    HW146986   8.038  13.642   3.246
48404SOL    HW246987   7.977  13.780   3.245
48405SOL     OW46988  12.890  13.974   1.986
48405SOL    HW146989  12.921  13.947   2.072
48405SOL    HW246990  12.915  14.066   1.978
48406SOL     OW46991  13.213   7.115   2.767
48406SOL    HW146992  13.292   7.082   2.725
48406SOL    HW246993  13.203   7.059   2.844
48407SOL     OW46994   6.366  14.546   4.994
48407SOL    HW146995   6.379  14.540   4.899
48407SOL    HW246996   6.385  14.457   5.025
48408SOL     OW46997   1.988   2.392   7.265
48408SOL    HW146998   2.071   2.388   7.218
48408SOL    HW246999   1.988   2.477   7.307
48409SOL     OW47000  12.979   7.531   1.591
48409SOL    HW147001  12.921   7.552   1.664
48409SOL    HW247002  12.933   7.563   1.513
48410SOL     OW47003   1.187   7.807   9.469
48410SOL    HW147004   1.277   7.777   9.458
48410SOL    HW247005   1.190   7.865   9.545
48411SOL     OW47006   4.976   8.751   2.268
48411SOL    HW147007   4.945   8.826   2.218
48411SOL    HW247008   4.903   8.727   2.325
48412SOL     OW47009   9.184  13.921   0.608
48412SOL    HW147010   9.177  13.888   0.698
48412SOL    HW247011   9.189  14.016   0.617
48413SOL     OW47012   1.505  10.419  11.589
48413SOL    HW147013   1.573  10.487  11.590
48413SOL    HW247014   1.424  10.466  11.571
48414SOL     OW47015   5.377   0.043   1.569
48414SOL    HW147016   5.385   0.033   1.664
48414SOL    HW247017   5.464   0.069   1.540
48415SOL     OW47018   6.651  10.771   0.242
48415SOL    HW147019   6.624  10.778   0.334
48415SOL    HW247020   6.727  10.714   0.243
48416SOL     OW47021  11.498   6.111   9.468
48416SOL    HW147022  11.405   6.104   9.489
48416SOL    HW247023  11.533   6.170   9.536
48417SOL     OW47024   5.833  13.140   2.297
48417SOL    HW147025   5.867  13.228   2.315
48417SOL    HW247026   5.856  13.089   2.375
48418SOL     OW47027   0.402   7.531  12.397
48418SOL    HW147028   0.369   7.445  12.423
48418SOL    HW247029   0.348   7.593  12.445
48419SOL     OW47030  11.801   7.233   5.722
48419SOL    HW147031  11.772   7.168   5.785
48419SOL    HW247032  11.896   7.222   5.719
48420SOL     OW47033  11.986  11.910   6.020
48420SOL    HW147034  12.044  11.880   6.090
48420SOL    HW247035  11.911  11.947   6.066
48421SOL     OW47036  10.623   2.330   8.966
48421SOL    HW147037  10.629   2.426   8.962
48421SOL    HW247038  10.533   2.311   8.940
48422SOL     OW47039   1.993   2.306  10.080
48422SOL    HW147040   2.023   2.260  10.002
48422SOL    HW247041   2.073   2.329  10.127
48423SOL     OW47042   3.253   4.453   0.885
48423SOL    HW147043   3.216   4.375   0.926
48423SOL    HW247044   3.244   4.522   0.951
48424SOL     OW47045  10.886   9.609   7.418
48424SOL    HW147046  10.944   9.665   7.469
48424SOL    HW247047  10.909   9.520   7.445
48425SOL     OW47048   7.135   2.897  11.509
48425SOL    HW147049   7.105   2.912  11.419
48425SOL    HW247050   7.055   2.873  11.557
48426SOL     OW47051  12.079   5.590   9.575
48426SOL    HW147052  12.048   5.579   9.485
48426SOL    HW247053  12.175   5.588   9.567
48427SOL     OW47054  12.602  13.172   7.777
48427SOL    HW147055  12.642  13.146   7.859
48427SOL    HW247056  12.599  13.092   7.725
48428SOL     OW47057  10.775   8.057   1.294
48428SOL    HW147058  10.698   8.113   1.307
48428SOL    HW247059  10.799   8.030   1.383
48429SOL     OW47060  14.139   1.046   7.781
48429SOL    HW147061  14.102   1.122   7.736
48429SOL    HW247062  14.077   1.028   7.851
48430SOL     OW47063  10.063   7.117   6.714
48430SOL    HW147064   9.970   7.139   6.700
48430SOL    HW247065  10.093   7.184   6.776
48431SOL     OW47066   7.546   1.214   1.537
48431SOL    HW147067   7.532   1.309   1.530
48431SOL    HW247068   7.588   1.202   1.622
48432SOL     OW47069   3.464   0.622   0.045
48432SOL    HW147070   3.436   0.698  14.871
48432SOL    HW247071   3.492   0.558  14.858
48433SOL     OW47072  13.289  10.234  10.648
48433SOL    HW147073  13.307  10.181  10.725
48433SOL    HW247074  13.320  10.181  10.574
48434SOL     OW47075  10.156   2.851   5.511
48434SOL    HW147076  10.078   2.798   5.492
48434SOL    HW247077  10.216   2.834   5.438
48435SOL     OW47078  12.544  10.775  14.863
48435SOL    HW147079  12.589  10.771   0.070
48435SOL    HW247080  12.552  10.687  14.827
48436SOL     OW47081  10.315  14.872  14.767
48436SOL    HW147082  10.350   0.081  14.749
48436SOL    HW247083  10.369  14.813  14.715
48437SOL     OW47084   9.293  12.306   5.157
48437SOL    HW147085   9.387  12.291   5.163
48437SOL    HW247086   9.259  12.231   5.108
48438SOL     OW47087  10.621   1.491  13.045
48438SOL    HW147088  10.694   1.510  13.104
48438SOL    HW247089  10.558   1.561  13.062
48439SOL     OW47090  14.322  12.833  13.056
48439SOL    HW147091  14.283  12.871  12.977
48439SOL    HW247092  14.272  12.872  13.128
48440SOL     OW47093  13.581   2.386   9.975
48440SOL    HW147094  13.640   2.373  10.050
48440SOL    HW247095  13.616   2.463   9.930
48441SOL     OW47096   6.089  14.024  13.151
48441SOL    HW147097   6.023  13.958  13.130
48441SOL    HW247098   6.075  14.045  13.243
48442SOL     OW47099  10.150  14.868   5.522
48442SOL    HW147100  10.181   0.007   5.611
48442SOL    HW247101  10.206  14.796   5.492
48443SOL     OW47102  10.166   3.739   1.715
48443SOL    HW147103  10.144   3.824   1.753
48443SOL    HW247104  10.102   3.678   1.752
48444SOL     OW47105   0.856   7.908  14.301
48444SOL    HW147106   0.769   7.948  14.298
48444SOL    HW247107   0.915   7.983  14.308
48445SOL     OW47108  10.186   2.848  11.873
48445SOL    HW147109  10.090   2.846  11.863
48445SOL    HW247110  10.205   2.938  11.901
48446SOL     OW47111   6.190  11.318   0.330
48446SOL    HW147112   6.242  11.398   0.328
48446SOL    HW247113   6.211  11.277   0.414
48447SOL     OW47114   0.235   1.018   3.684
48447SOL    HW147115   0.297   1.006   3.756
48447SOL    HW247116   0.167   0.953   3.700
48448SOL     OW47117   7.076  10.806   8.127
48448SOL    HW147118   7.040  10.825   8.041
48448SOL    HW247119   7.002  10.773   8.178
48449SOL     OW47120   3.791   2.281  11.647
48449SOL    HW147121   3.697   2.294  11.656
48449SOL    HW247122   3.809   2.303  11.555
48450SOL     OW47123   0.552   1.503   8.223
48450SOL    HW147124   0.574   1.563   8.152
48450SOL    HW247125   0.456   1.495   8.219
48451SOL     OW47126   5.876   0.803   9.095
48451SOL    HW147127   5.944   0.742   9.124
48451SOL    HW247128   5.914   0.848   9.020
48452SOL     OW47129   8.774   5.287  12.805
48452SOL    HW147130   8.814   5.216  12.755
48452SOL    HW247131   8.680   5.281  12.786
48453SOL     OW47132  13.317  13.519   4.254
48453SOL    HW147133  13.255  13.466   4.303
48453SOL    HW247134  13.329  13.597   4.307
48454SOL     OW47135  13.733   5.449  11.500
48454SOL    HW147136  13.723   5.368  11.550
48454SOL    HW247137  13.722   5.518  11.565
48455SOL     OW47138   7.192  11.816  13.934
48455SOL    HW147139   7.274  11.844  13.976
48455SOL    HW247140   7.211  11.728  13.901
48456SOL     OW47141   4.847   1.025   3.787
48456SOL    HW147142   4.938   1.018   3.759
48456SOL    HW247143   4.841   1.113   3.825
48457SOL     OW47144   0.736   5.524   4.612
48457SOL    HW147145   0.804   5.457   4.606
48457SOL    HW247146   0.778   5.604   4.583
48458SOL     OW47147  13.958  12.892  11.909
48458SOL    HW147148  14.036  12.904  11.964
48458SOL    HW247149  13.889  12.938  11.957
48459SOL     OW47150   6.483   7.991   2.825
48459SOL    HW147151   6.495   7.900   2.853
48459SOL    HW247152   6.511   7.992   2.733
48460SOL     OW47153   6.237  14.397   2.247
48460SOL    HW147154   6.150  14.374   2.281
48460SOL    HW247155   6.224  14.481   2.202
48461SOL     OW47156   9.238   6.655  10.646
48461SOL    HW147157   9.228   6.666  10.551
48461SOL    HW247158   9.233   6.743  10.681
48462SOL     OW47159  11.257   4.603  10.950
48462SOL    HW147160  11.245   4.673  11.013
48462SOL    HW247161  11.337   4.626  10.903
48463SOL     OW47162   5.502   2.606   8.828
48463SOL    HW147163   5.412   2.627   8.804
48463SOL    HW247164   5.522   2.527   8.777
48464SOL     OW47165   5.091  10.008   0.154
48464SOL    HW147166   5.102   9.987   0.061
48464SOL    HW247167   5.178   9.997   0.192
48465SOL     OW47168  10.373   4.645   2.083
48465SOL    HW147169  10.468   4.657   2.078
48465SOL    HW247170  10.343   4.716   2.139
48466SOL     OW47171   0.003   6.109  13.937
48466SOL    HW147172   0.042   6.148  13.860
48466SOL    HW247173   0.066   6.044  13.967
48467SOL     OW47174   7.020   1.074   2.041
48467SOL    HW147175   7.027   1.060   1.947
48467SOL    HW247176   7.042   0.990   2.080
48468SOL     OW47177  12.110   2.818   5.788
48468SOL    HW147178  12.124   2.912   5.774
48468SOL    HW247179  12.187   2.790   5.837
48469SOL     OW47180  13.768   3.455   1.804
48469SOL    HW147181  13.726   3.372   1.829
48469SOL    HW247182  13.834   3.430   1.739
48470SOL     OW47183  14.367   0.512   4.942
48470SOL    HW147184  14.439   0.461   4.905
48470SOL    HW247185  14.321   0.451   5.000
48471SOL     OW47186   9.996   8.927   5.531
48471SOL    HW147187  10.012   8.934   5.437
48471SOL    HW247188   9.911   8.883   5.538
48472SOL     OW47189   9.489   3.566   7.974
48472SOL    HW147190   9.522   3.535   7.890
48472SOL    HW247191   9.410   3.616   7.952
48473SOL     OW47192  13.676   6.107  12.056
48473SOL    HW147193  13.647   6.100  12.147
48473SOL    HW247194  13.766   6.138  12.063
48474SOL     OW47195   1.953   7.973   3.627
48474SOL    HW147196   1.912   8.058   3.609
48474SOL    HW247197   1.946   7.926   3.544
48475SOL     OW47198  11.834   7.156  10.758
48475SOL    HW147199  11.881   7.226  10.713
48475SOL    HW247200  11.744   7.164  10.727
48476SOL     OW47201   3.807   5.762   0.917
48476SOL    HW147202   3.842   5.767   1.006
48476SOL    HW247203   3.823   5.671   0.890
48477SOL     OW47204   0.646   6.648  11.568
48477SOL    HW147205   0.567   6.658  11.621
48477SOL    HW247206   0.684   6.565  11.598
48478SOL     OW47207  11.922   2.885   7.171
48478SOL    HW147208  11.952   2.976   7.165
48478SOL    HW247209  11.897   2.875   7.263
48479SOL     OW47210  12.488   9.174  12.146
48479SOL    HW147211  12.449   9.087  12.155
48479SOL    HW247212  12.516   9.197  12.234
48480SOL     OW47213   4.284   1.047   7.240
48480SOL    HW147214   4.301   0.956   7.217
48480SOL    HW247215   4.317   1.055   7.330
48481SOL     OW47216   2.946  10.410   1.134
48481SOL    HW147217   2.895  10.487   1.161
48481SOL    HW247218   2.884  10.358   1.083
48482SOL     OW47219   3.579   9.940   2.219
48482SOL    HW147220   3.580   9.871   2.154
48482SOL    HW247221   3.499   9.923   2.270
48483SOL     OW47222   1.170   7.953  10.572
48483SOL    HW147223   1.083   7.942  10.533
48483SOL    HW247224   1.216   8.009  10.510
48484SOL     OW47225   0.193  10.607   2.460
48484SOL    HW147226   0.199  10.702   2.472
48484SOL    HW247227   0.198  10.594   2.365
48485SOL     OW47228   3.173   1.636   7.690
48485SOL    HW147229   3.089   1.681   7.696
48485SOL    HW247230   3.169   1.590   7.606
48486SOL     OW47231   5.780   2.633   2.379
48486SOL    HW147232   5.714   2.634   2.448
48486SOL    HW247233   5.736   2.670   2.303
48487SOL     OW47234  13.297   4.562   7.844
48487SOL    HW147235  13.346   4.544   7.924
48487SOL    HW247236  13.303   4.481   7.793
48488SOL     OW47237  13.517   1.786  13.511
48488SOL    HW147238  13.434   1.832  13.522
48488SOL    HW247239  13.502   1.699  13.547
48489SOL     OW47240  14.292  12.467   7.007
48489SOL    HW147241  14.364  12.510   7.054
48489SOL    HW247242  14.263  12.532   6.943
48490SOL     OW47243   6.840  11.667   6.401
48490SOL    HW147244   6.922  11.622   6.421
48490SOL    HW247245   6.865  11.739   6.344
48491SOL     OW47246   4.996   6.450   8.972
48491SOL    HW147247   5.084   6.474   9.001
48491SOL    HW247248   4.968   6.524   8.918
48492SOL     OW47249   9.736   2.716  13.420
48492SOL    HW147250   9.822   2.730  13.460
48492SOL    HW247251   9.736   2.772  13.342
48493SOL     OW47252   2.147   8.649   1.761
48493SOL    HW147253   2.058   8.681   1.743
48493SOL    HW247254   2.183   8.628   1.675
48494SOL     OW47255  10.810   3.482   1.605
48494SOL    HW147256  10.887   3.538   1.619
48494SOL    HW247257  10.847   3.395   1.589
48495SOL     OW47258   4.811   0.636  10.340
48495SOL    HW147259   4.778   0.643  10.429
48495SOL    HW247260   4.882   0.700  10.335
48496SOL     OW47261   0.652   8.862   2.155
48496SOL    HW147262   0.689   8.922   2.220
48496SOL    HW247263   0.728   8.828   2.108
48497SOL     OW47264   3.601   8.046   2.254
48497SOL    HW147265   3.532   7.980   2.257
48497SOL    HW247266   3.614   8.063   2.161
48498SOL     OW47267   4.156   8.320  12.025
48498SOL    HW147268   4.252   8.324  12.017
48498SOL    HW247269   4.136   8.379  12.098
48499SOL     OW47270   6.743   2.882   8.483
48499SOL    HW147271   6.681   2.820   8.444
48499SOL    HW247272   6.705   2.968   8.465
48500SOL     OW47273   0.093   2.461   9.610
48500SOL    HW147274   0.110   2.422   9.524
48500SOL    HW247275   0.173   2.445   9.660
48501SOL     OW47276  13.778   5.277   4.948
48501SOL    HW147277  13.723   5.238   4.881
48501SOL    HW247278  13.742   5.364   4.962
48502SOL     OW47279  11.213   3.025   5.436
48502SOL    HW147280  11.281   2.976   5.392
48502SOL    HW247281  11.139   3.025   5.375
48503SOL     OW47282   2.725  14.469   6.431
48503SOL    HW147283   2.798  14.422   6.472
48503SOL    HW247284   2.661  14.478   6.501
48504SOL     OW47285  13.822   2.402   2.241
48504SOL    HW147286  13.846   2.323   2.291
48504SOL    HW247287  13.887   2.405   2.170
48505SOL     OW47288   0.831  12.636   2.196
48505SOL    HW147289   0.823  12.587   2.114
48505SOL    HW247290   0.885  12.581   2.252
48506SOL     OW47291   2.958  12.631   2.505
48506SOL    HW147292   3.020  12.690   2.462
48506SOL    HW247293   2.922  12.578   2.435
48507SOL     OW47294   2.333   1.311   0.071
48507SOL    HW147295   2.285   1.228   0.068
48507SOL    HW247296   2.386   1.304   0.151
48508SOL     OW47297   1.080   9.935   2.139
48508SOL    HW147298   1.120   9.869   2.196
48508SOL    HW247299   1.148  10.001   2.129
48509SOL     OW47300  10.338   0.893   9.913
48509SOL    HW147301  10.299   0.837   9.846
48509SOL    HW247302  10.420   0.924   9.873
48510SOL     OW47303   9.040  10.982   8.458
48510SOL    HW147304   9.070  11.032   8.533
48510SOL    HW247305   9.112  10.923   8.437
48511SOL     OW47306  13.654  14.376   1.075
48511SOL    HW147307  13.722  14.443   1.072
48511SOL    HW247308  13.579  14.415   1.032
48512SOL     OW47309   5.736   3.064  12.795
48512SOL    HW147310   5.735   3.159  12.803
48512SOL    HW247311   5.679   3.033  12.865
48513SOL     OW47312   4.552  13.530   7.386
48513SOL    HW147313   4.539  13.467   7.458
48513SOL    HW247314   4.559  13.475   7.308
48514SOL     OW47315   3.075  10.012   7.592
48514SOL    HW147316   3.068  10.101   7.627
48514SOL    HW247317   3.056  10.022   7.498
48515SOL     OW47318   2.572   6.508   0.083
48515SOL    HW147319   2.482   6.536   0.099
48515SOL    HW247320   2.626   6.577   0.121
48516SOL     OW47321   9.529  11.863   4.137
48516SOL    HW147322   9.460  11.909   4.089
48516SOL    HW247323   9.580  11.932   4.179
48517SOL     OW47324   9.229  10.143   1.786
48517SOL    HW147325   9.217  10.071   1.723
48517SOL    HW247326   9.280  10.103   1.857
48518SOL     OW47327  10.280  14.740   2.928
48518SOL    HW147328  10.257  14.793   2.852
48518SOL    HW247329  10.284  14.650   2.895
48519SOL     OW47330   5.056  14.871   7.682
48519SOL    HW147331   5.006  14.789   7.682
48519SOL    HW247332   5.020   0.043   7.755
48520SOL     OW47333   5.102  12.207   4.046
48520SOL    HW147334   5.108  12.123   4.001
48520SOL    HW247335   5.132  12.188   4.135
48521SOL     OW47336   5.599   0.412   8.239
48521SOL    HW147337   5.662   0.377   8.303
48521SOL    HW247338   5.523   0.436   8.292
48522SOL     OW47339   2.258  14.041   5.218
48522SOL    HW147340   2.258  14.093   5.138
48522SOL    HW247341   2.293  13.956   5.191
48523SOL     OW47342   6.242  13.454   7.826
48523SOL    HW147343   6.336  13.460   7.806
48523SOL    HW247344   6.238  13.455   7.922
48524SOL     OW47345  14.448  13.657   7.993
48524SOL    HW147346  14.514  13.639   7.926
48524SOL    HW247347  14.411  13.742   7.968
48525SOL     OW47348   4.935   9.517  12.319
48525SOL    HW147349   5.009   9.575  12.334
48525SOL    HW247350   4.911   9.531  12.227
48526SOL     OW47351   6.497   2.414   1.725
48526SOL    HW147352   6.433   2.474   1.686
48526SOL    HW247353   6.564   2.472   1.762
48527SOL     OW47354  11.553   0.735   9.718
48527SOL    HW147355  11.562   0.824   9.752
48527SOL    HW247356  11.571   0.678   9.793
48528SOL     OW47357   3.391   5.328   5.031
48528SOL    HW147358   3.381   5.402   4.971
48528SOL    HW247359   3.316   5.272   5.012
48529SOL     OW47360   7.074  11.620   0.359
48529SOL    HW147361   7.107  11.562   0.291
48529SOL    HW247362   7.008  11.674   0.315
48530SOL     OW47363   2.901  11.969   0.307
48530SOL    HW147364   2.940  11.900   0.360
48530SOL    HW247365   2.824  11.996   0.356
48531SOL     OW47366  10.510   0.290   2.176
48531SOL    HW147367  10.497   0.356   2.108
48531SOL    HW247368  10.560   0.336   2.244
48532SOL     OW47369   7.667   7.496  14.439
48532SOL    HW147370   7.735   7.435  14.412
48532SOL    HW247371   7.713   7.560  14.494
48533SOL     OW47372  14.493   9.796   9.140
48533SOL    HW147373  14.540   9.814   9.059
48533SOL    HW247374  14.401   9.792   9.114
48534SOL     OW47375   0.930   7.934  13.459
48534SOL    HW147376   0.916   7.963  13.549
48534SOL    HW247377   0.959   7.843  13.468
48535SOL     OW47378   9.958   1.678  12.248
48535SOL    HW147379  10.027   1.666  12.183
48535SOL    HW247380   9.888   1.722  12.200
48536SOL     OW47381  10.622   4.189   4.337
48536SOL    HW147382  10.560   4.258   4.316
48536SOL    HW247383  10.578   4.137   4.404
48537SOL     OW47384  10.182   4.775   7.385
48537SOL    HW147385  10.159   4.726   7.464
48537SOL    HW247386  10.118   4.846   7.382
48538SOL     OW47387  14.813   2.173   4.125
48538SOL    HW147388  14.840   2.083   4.108
48538SOL    HW247389  14.772   2.201   4.043
48539SOL     OW47390  10.174   3.099   3.448
48539SOL    HW147391  10.239   3.163   3.477
48539SOL    HW247392  10.224   3.018   3.433
48540SOL     OW47393   4.937   3.973   5.539
48540SOL    HW147394   4.979   4.057   5.521
48540SOL    HW247395   4.895   3.985   5.624
48541SOL     OW47396  12.084   4.584   3.220
48541SOL    HW147397  12.031   4.653   3.180
48541SOL    HW247398  12.074   4.598   3.314
48542SOL     OW47399   9.454  10.671   6.006
48542SOL    HW147400   9.391  10.689   5.936
48542SOL    HW247401   9.401  10.650   6.082
48543SOL     OW47402   0.118   5.124  13.743
48543SOL    HW147403   0.027   5.098  13.759
48543SOL    HW247404   0.155   5.134  13.831
48544SOL     OW47405   0.564   1.186   5.985
48544SOL    HW147406   0.646   1.232   5.965
48544SOL    HW247407   0.579   1.147   6.071
48545SOL     OW47408  13.950   0.883   0.676
48545SOL    HW147409  14.002   0.915   0.602
48545SOL    HW247410  13.935   0.790   0.656
48546SOL     OW47411   3.236   7.724   8.835
48546SOL    HW147412   3.172   7.748   8.903
48546SOL    HW247413   3.244   7.803   8.781
48547SOL     OW47414  10.647  12.762   9.395
48547SOL    HW147415  10.557  12.780   9.366
48547SOL    HW247416  10.667  12.676   9.359
48548SOL     OW47417  14.864  13.727   3.689
48548SOL    HW147418  14.859  13.643   3.735
48548SOL    HW247419  14.776  13.765   3.700
48549SOL     OW47420   1.328   7.545   3.085
48549SOL    HW147421   1.407   7.529   3.034
48549SOL    HW247422   1.322   7.470   3.144
48550SOL     OW47423   9.691   8.074   1.727
48550SOL    HW147424   9.702   7.981   1.746
48550SOL    HW247425   9.596   8.087   1.727
48551SOL     OW47426   3.061   2.179   4.896
48551SOL    HW147427   2.972   2.156   4.870
48551SOL    HW247428   3.115   2.106   4.867
48552SOL     OW47429   5.183  14.287   7.690
48552SOL    HW147430   5.246  14.270   7.619
48552SOL    HW247431   5.234  14.281   7.770
48553SOL     OW47432   8.688   1.716   0.394
48553SOL    HW147433   8.780   1.698   0.375
48553SOL    HW247434   8.642   1.638   0.363
48554SOL     OW47435  11.403  10.179  13.566
48554SOL    HW147436  11.401  10.262  13.614
48554SOL    HW247437  11.331  10.187  13.503
48555SOL     OW47438   2.936  13.711   1.768
48555SOL    HW147439   2.859  13.765   1.784
48555SOL    HW247440   2.900  13.625   1.745
48556SOL     OW47441  12.102  11.823   3.040
48556SOL    HW147442  12.011  11.852   3.029
48556SOL    HW247443  12.110  11.804   3.133
48557SOL     OW47444  10.081  10.936   9.190
48557SOL    HW147445  10.046  10.998   9.253
48557SOL    HW247446  10.004  10.891   9.155
48558SOL     OW47447   9.110   4.360  13.816
48558SOL    HW147448   9.016   4.379  13.809
48558SOL    HW247449   9.136   4.399  13.899
48559SOL     OW47450   2.415  11.711  11.044
48559SOL    HW147451   2.320  11.703  11.033
48559SOL    HW247452   2.451  11.636  10.997
48560SOL     OW47453   0.060   8.580   3.764
48560SOL    HW147454  14.849   8.543   3.764
48560SOL    HW247455   0.047   8.671   3.737
48561SOL     OW47456   1.394   7.348   6.791
48561SOL    HW147457   1.381   7.404   6.715
48561SOL    HW247458   1.306   7.321   6.817
48562SOL     OW47459   4.804   9.436  14.191
48562SOL    HW147460   4.746   9.397  14.126
48562SOL    HW247461   4.812   9.528  14.164
48563SOL     OW47462   4.817   1.047   9.783
48563SOL    HW147463   4.824   1.014   9.693
48563SOL    HW247464   4.894   1.012   9.827
48564SOL     OW47465   5.669   2.780   1.475
48564SOL    HW147466   5.642   2.842   1.408
48564SOL    HW247467   5.619   2.804   1.552
48565SOL     OW47468   2.927   3.343   0.706
48565SOL    HW147469   2.942   3.435   0.728
48565SOL    HW247470   2.866   3.346   0.631
48566SOL     OW47471   8.424  14.566   6.616
48566SOL    HW147472   8.411  14.654   6.651
48566SOL    HW247473   8.427  14.509   6.693
48567SOL     OW47474   5.539   1.096   9.958
48567SOL    HW147475   5.629   1.067   9.940
48567SOL    HW247476   5.485   1.019   9.942
48568SOL     OW47477  11.638   4.701  13.377
48568SOL    HW147478  11.578   4.628  13.391
48568SOL    HW247479  11.671   4.690  13.288
48569SOL     OW47480   6.216   4.001  12.282
48569SOL    HW147481   6.137   3.952  12.263
48569SOL    HW247482   6.233   4.051  12.202
48570SOL     OW47483   8.434  13.390   1.948
48570SOL    HW147484   8.477  13.305   1.961
48570SOL    HW247485   8.344  13.368   1.924
48571SOL     OW47486   3.283  13.708   7.625
48571SOL    HW147487   3.331  13.787   7.650
48571SOL    HW247488   3.342  13.661   7.567
48572SOL     OW47489   9.514   5.667   0.176
48572SOL    HW147490   9.493   5.574   0.173
48572SOL    HW247491   9.608   5.671   0.157
48573SOL     OW47492   7.790   6.138   0.209
48573SOL    HW147493   7.746   6.222   0.223
48573SOL    HW247494   7.869   6.161   0.160
48574SOL     OW47495   1.596  11.688  14.808
48574SOL    HW147496   1.670  11.717  14.755
48574SOL    HW247497   1.578  11.599  14.779
48575SOL     OW47498   2.937  14.698  11.240
48575SOL    HW147499   2.980  14.781  11.222
48575SOL    HW247500   3.006  14.632  11.225
48576SOL     OW47501   5.360   1.262  12.612
48576SOL    HW147502   5.357   1.305  12.527
48576SOL    HW247503   5.296   1.310  12.665
48577SOL     OW47504   6.743   8.991  12.026
48577SOL    HW147505   6.715   8.935  11.954
48577SOL    HW247506   6.783   8.931  12.089
48578SOL     OW47507   9.286  13.768   7.068
48578SOL    HW147508   9.283  13.711   7.146
48578SOL    HW247509   9.283  13.708   6.994
48579SOL     OW47510   0.383   9.508  12.047
48579SOL    HW147511   0.329   9.556  12.109
48579SOL    HW247512   0.322   9.478  11.980
48580SOL     OW47513   6.091   6.972   9.755
48580SOL    HW147514   6.137   6.893   9.783
48580SOL    HW247515   6.073   6.959   9.662
48581SOL     OW47516   8.115  13.761   7.435
48581SOL    HW147517   8.035  13.810   7.450
48581SOL    HW247518   8.160  13.761   7.519
48582SOL     OW47519   0.077  12.894   6.344
48582SOL    HW147520   0.080  12.840   6.265
48582SOL    HW247521   0.165  12.884   6.382
48583SOL     OW47522   3.142   3.581  14.265
48583SOL    HW147523   3.175   3.505  14.312
48583SOL    HW247524   3.051   3.590  14.296
48584SOL     OW47525   0.717   1.683  13.968
48584SOL    HW147526   0.675   1.725  13.893
48584SOL    HW247527   0.718   1.751  14.036
48585SOL     OW47528   7.839  11.155   2.204
48585SOL    HW147529   7.880  11.080   2.160
48585SOL    HW247530   7.860  11.230   2.148
48586SOL     OW47531   4.257   9.518   3.556
48586SOL    HW147532   4.181   9.463   3.573
48586SOL    HW247533   4.331   9.470   3.593
48587SOL     OW47534  11.011  12.868   7.928
48587SOL    HW147535  10.952  12.883   8.002
48587SOL    HW247536  11.053  12.785   7.947
48588SOL     OW47537   1.781   0.567   6.825
48588SOL    HW147538   1.789   0.498   6.760
48588SOL    HW247539   1.870   0.603   6.833
48589SOL     OW47540   1.622  10.797   4.029
48589SOL    HW147541   1.536  10.838   4.039
48589SOL    HW247542   1.674  10.861   3.980
48590SOL     OW47543   8.482  11.563  14.140
48590SOL    HW147544   8.488  11.657  14.123
48590SOL    HW247545   8.527  11.550  14.224
48591SOL     OW47546   6.307   6.471   5.672
48591SOL    HW147547   6.260   6.542   5.714
48591SOL    HW247548   6.343   6.419   5.744
48592SOL     OW47549   2.647   9.394   9.736
48592SOL    HW147550   2.732   9.352   9.747
48592SOL    HW247551   2.604   9.382   9.821
48593SOL     OW47552  14.632  10.094   7.496
48593SOL    HW147553  14.608  10.072   7.586
48593SOL    HW247554  14.725  10.117   7.501
48594SOL     OW47555   7.451   9.425   8.271
48594SOL    HW147556   7.412   9.371   8.201
48594SOL    HW247557   7.480   9.504   8.227
48595SOL     OW47558  10.155  14.657  13.920
48595SOL    HW147559  10.163  14.693  13.832
48595SOL    HW247560  10.244  14.656  13.955
48596SOL     OW47561   9.881   6.662   5.034
48596SOL    HW147562   9.925   6.744   5.010
48596SOL    HW247563   9.944   6.594   5.012
48597SOL     OW47564   6.245  12.331   4.338
48597SOL    HW147565   6.278  12.356   4.252
48597SOL    HW247566   6.151  12.318   4.325
48598SOL     OW47567   8.211   3.878  12.240
48598SOL    HW147568   8.191   3.856  12.331
48598SOL    HW247569   8.265   3.957  12.246
48599SOL     OW47570   0.144  14.258   8.434
48599SOL    HW147571   0.171  14.308   8.357
48599SOL    HW247572   0.216  14.196   8.450
48600SOL     OW47573   2.321   2.945   1.301
48600SOL    HW147574   2.280   3.031   1.308
48600SOL    HW247575   2.409   2.958   1.336
48601SOL     OW47576   7.138  13.095   0.486
48601SOL    HW147577   7.185  13.110   0.404
48601SOL    HW247578   7.107  13.182   0.513
48602SOL     OW47579   2.095  11.681  11.726
48602SOL    HW147580   2.023  11.643  11.675
48602SOL    HW247581   2.114  11.764  11.683
48603SOL     OW47582   5.669   3.623   6.602
48603SOL    HW147583   5.698   3.532   6.594
48603SOL    HW247584   5.638   3.646   6.515
48604SOL     OW47585   8.253   1.176   8.930
48604SOL    HW147586   8.195   1.247   8.900
48604SOL    HW247587   8.217   1.097   8.891
48605SOL     OW47588   3.987   9.459   1.547
48605SOL    HW147589   4.032   9.465   1.462
48605SOL    HW247590   3.974   9.550   1.574
48606SOL     OW47591   8.682   4.997  11.126
48606SOL    HW147592   8.634   4.929  11.173
48606SOL    HW247593   8.640   5.079  11.153
48607SOL     OW47594   8.742   1.758   5.624
48607SOL    HW147595   8.762   1.789   5.536
48607SOL    HW247596   8.787   1.674   5.631
48608SOL     OW47597  11.479   0.837   5.572
48608SOL    HW147598  11.457   0.863   5.662
48608SOL    HW247599  11.400   0.793   5.540
48609SOL     OW47600   4.344  13.503   5.057
48609SOL    HW147601   4.398  13.545   4.990
48609SOL    HW247602   4.266  13.474   5.009
48610SOL     OW47603   7.698  12.283  14.103
48610SOL    HW147604   7.689  12.245  14.190
48610SOL    HW247605   7.793  12.288  14.089
48611SOL     OW47606   8.222   3.257   6.411
48611SOL    HW147607   8.163   3.278   6.482
48611SOL    HW247608   8.194   3.311   6.338
48612SOL     OW47609  13.969   9.294   4.562
48612SOL    HW147610  13.921   9.231   4.616
48612SOL    HW247611  14.020   9.345   4.625
48613SOL     OW47612   3.462  13.055   5.489
48613SOL    HW147613   3.521  13.004   5.434
48613SOL    HW247614   3.506  13.058   5.575
48614SOL     OW47615  10.479   0.705  11.152
48614SOL    HW147616  10.443   0.634  11.205
48614SOL    HW247617  10.537   0.752  11.212
48615SOL     OW47618  12.453   8.198   6.720
48615SOL    HW147619  12.388   8.166   6.782
48615SOL    HW247620  12.432   8.154   6.638
48616SOL     OW47621  14.178   5.394  11.928
48616SOL    HW147622  14.122   5.429  11.997
48616SOL    HW247623  14.148   5.304  11.917
48617SOL     OW47624  12.015   4.709   0.742
48617SOL    HW147625  11.939   4.760   0.770
48617SOL    HW247626  11.997   4.688   0.650
48618SOL     OW47627   2.737   5.336   3.880
48618SOL    HW147628   2.677   5.272   3.917
48618SOL    HW247629   2.818   5.286   3.864
48619SOL     OW47630   7.944   7.546   6.849
48619SOL    HW147631   7.924   7.512   6.761
48619SOL    HW247632   8.038   7.528   6.860
48620SOL     OW47633  11.554   3.927   0.681
48620SOL    HW147634  11.516   3.839   0.681
48620SOL    HW247635  11.480   3.985   0.665
48621SOL     OW47636  13.820   0.084  10.255
48621SOL    HW147637  13.880   0.104  10.183
48621SOL    HW247638  13.834   0.154  10.318
48622SOL     OW47639   4.657   8.838   9.105
48622SOL    HW147640   4.685   8.873   9.020
48622SOL    HW247641   4.624   8.750   9.085
48623SOL     OW47642  10.120   3.400   5.126
48623SOL    HW147643  10.112   3.467   5.194
48623SOL    HW247644  10.086   3.442   5.046
48624SOL     OW47645   4.945  14.487  12.587
48624SOL    HW147646   4.983  14.556  12.533
48624SOL    HW247647   4.949  14.521  12.677
48625SOL     OW47648   5.295   4.720  10.559
48625SOL    HW147649   5.327   4.656  10.495
48625SOL    HW247650   5.205   4.739  10.531
48626SOL     OW47651   4.599  13.884   3.731
48626SOL    HW147652   4.569  13.926   3.811
48626SOL    HW247653   4.581  13.791   3.744
48627SOL     OW47654  11.089   5.341   6.591
48627SOL    HW147655  11.166   5.296   6.625
48627SOL    HW247656  11.054   5.390   6.666
48628SOL     OW47657  12.035  11.327  12.301
48628SOL    HW147658  12.108  11.267  12.288
48628SOL    HW247659  11.971  11.276  12.351
48629SOL     OW47660  12.346  11.280   2.123
48629SOL    HW147661  12.326  11.202   2.174
48629SOL    HW247662  12.427  11.314   2.161
48630SOL     OW47663  11.267  12.439   8.280
48630SOL    HW147664  11.296  12.421   8.191
48630SOL    HW247665  11.333  12.499   8.315
48631SOL     OW47666   3.039   6.709   4.114
48631SOL    HW147667   2.971   6.755   4.065
48631SOL    HW247668   3.046   6.624   4.071
48632SOL     OW47669   2.500   6.944   2.081
48632SOL    HW147670   2.455   6.859   2.080
48632SOL    HW247671   2.457   6.993   2.152
48633SOL     OW47672   5.554   0.890  11.667
48633SOL    HW147673   5.469   0.871  11.705
48633SOL    HW247674   5.535   0.949  11.594
48634SOL     OW47675   6.383   5.604   7.653
48634SOL    HW147676   6.301   5.605   7.702
48634SOL    HW247677   6.382   5.520   7.607
48635SOL     OW47678   7.522   6.263  10.094
48635SOL    HW147679   7.603   6.296  10.133
48635SOL    HW247680   7.546   6.238  10.005
48636SOL     OW47681   0.490  14.718  13.346
48636SOL    HW147682   0.414  14.675  13.307
48636SOL    HW247683   0.458  14.804  13.374
48637SOL     OW47684   7.902   0.523  13.560
48637SOL    HW147685   7.872   0.520  13.470
48637SOL    HW247686   7.994   0.550  13.554
48638SOL     OW47687  12.772  12.269   0.387
48638SOL    HW147688  12.860  12.297   0.409
48638SOL    HW247689  12.751  12.202   0.452
48639SOL     OW47690   4.129   4.578  14.603
48639SOL    HW147691   4.137   4.672  14.621
48639SOL    HW247692   4.184   4.536  14.669
48640SOL     OW47693  10.301  10.710   6.362
48640SOL    HW147694  10.346  10.747   6.286
48640SOL    HW247695  10.299  10.780   6.426
48641SOL     OW47696   3.238   8.599   1.936
48641SOL    HW147697   3.288   8.636   1.863
48641SOL    HW247698   3.275   8.512   1.949
48642SOL     OW47699  10.406   1.347   4.306
48642SOL    HW147700  10.435   1.381   4.391
48642SOL    HW247701  10.418   1.420   4.245
48643SOL     OW47702  10.223   8.740  10.305
48643SOL    HW147703  10.187   8.801  10.369
48643SOL    HW247704  10.147   8.707  10.257
48644SOL     OW47705  14.659   0.626  10.984
48644SOL    HW147706  14.709   0.693  10.936
48644SOL    HW247707  14.607   0.582  10.917
48645SOL     OW47708   7.509   6.017   3.096
48645SOL    HW147709   7.575   6.042   3.031
48645SOL    HW247710   7.556   6.019   3.179
48646SOL     OW47711   2.069   0.780   6.477
48646SOL    HW147712   2.145   0.790   6.420
48646SOL    HW247713   2.077   0.692   6.513
48647SOL     OW47714   0.024   0.759   2.115
48647SOL    HW147715   0.095   0.698   2.134
48647SOL    HW247716   0.067   0.844   2.105
48648SOL     OW47717  11.677   1.395   1.069
48648SOL    HW147718  11.684   1.412   1.162
48648SOL    HW247719  11.651   1.303   1.063
48649SOL     OW47720   2.559  11.209  10.107
48649SOL    HW147721   2.626  11.183  10.170
48649SOL    HW247722   2.604  11.266  10.046
48650SOL     OW47723   5.085   6.820  13.179
48650SOL    HW147724   5.037   6.815  13.262
48650SOL    HW247725   5.176   6.834  13.205
48651SOL     OW47726   9.669   7.446   1.542
48651SOL    HW147727   9.708   7.399   1.468
48651SOL    HW247728   9.579   7.414   1.547
48652SOL     OW47729   3.895  12.532  14.493
48652SOL    HW147730   3.944  12.613  14.478
48652SOL    HW247731   3.948  12.483  14.556
48653SOL     OW47732  11.306   8.321  13.658
48653SOL    HW147733  11.258   8.243  13.630
48653SOL    HW247734  11.329   8.364  13.576
48654SOL     OW47735   1.763   4.470   5.538
48654SOL    HW147736   1.775   4.537   5.471
48654SOL    HW247737   1.717   4.399   5.493
48655SOL     OW47738   8.012   0.266   6.799
48655SOL    HW147739   8.030   0.185   6.751
48655SOL    HW247740   8.034   0.245   6.890
48656SOL     OW47741  13.923   1.520   0.711
48656SOL    HW147742  14.015   1.540   0.724
48656SOL    HW247743  13.895   1.481   0.794
48657SOL     OW47744   4.747  10.689   5.866
48657SOL    HW147745   4.797  10.608   5.875
48657SOL    HW247746   4.802  10.746   5.812
48658SOL     OW47747   3.351   2.266   7.482
48658SOL    HW147748   3.309   2.185   7.512
48658SOL    HW247749   3.422   2.281   7.543
48659SOL     OW47750   2.272  12.847   4.770
48659SOL    HW147751   2.284  12.914   4.837
48659SOL    HW247752   2.200  12.793   4.804
48660SOL     OW47753  10.377   9.740   0.630
48660SOL    HW147754  10.342   9.779   0.710
48660SOL    HW247755  10.306   9.748   0.566
48661SOL     OW47756   2.716   6.485  13.037
48661SOL    HW147757   2.711   6.576  13.068
48661SOL    HW247758   2.639   6.475  12.980
48662SOL     OW47759   0.396   7.154   9.625
48662SOL    HW147760   0.449   7.148   9.546
48662SOL    HW247761   0.431   7.087   9.684
48663SOL     OW47762   1.783   7.250  13.533
48663SOL    HW147763   1.738   7.185  13.587
48663SOL    HW247764   1.863   7.205  13.504
48664SOL     OW47765  13.765  10.570   0.601
48664SOL    HW147766  13.742  10.573   0.508
48664SOL    HW247767  13.782  10.661   0.624
48665SOL     OW47768   5.501  12.779   7.287
48665SOL    HW147769   5.551  12.722   7.345
48665SOL    HW247770   5.491  12.729   7.206
48666SOL     OW47771  11.040   2.202  12.749
48666SOL    HW147772  11.071   2.266  12.814
48666SOL    HW247773  11.055   2.117  12.790
48667SOL     OW47774  13.100   5.014  13.716
48667SOL    HW147775  13.032   5.038  13.654
48667SOL    HW247776  13.147   4.942  13.674
48668SOL     OW47777   5.331  11.661   6.811
48668SOL    HW147778   5.306  11.600   6.741
48668SOL    HW247779   5.419  11.689   6.788
48669SOL     OW47780   1.121   2.731   7.378
48669SOL    HW147781   1.136   2.813   7.424
48669SOL    HW247782   1.070   2.756   7.300
48670SOL     OW47783   9.539   5.655   3.907
48670SOL    HW147784   9.475   5.600   3.952
48670SOL    HW247785   9.488   5.702   3.841
48671SOL     OW47786   4.226   4.908  14.600
48671SOL    HW147787   4.140   4.922  14.641
48671SOL    HW247788   4.284   4.969  14.644
48672SOL     OW47789  10.138   2.342   9.536
48672SOL    HW147790  10.050   2.305   9.536
48672SOL    HW247791  10.192   2.274   9.577
48673SOL     OW47792   3.497   1.908  12.104
48673SOL    HW147793   3.406   1.877  12.099
48673SOL    HW247794   3.545   1.835  12.142
48674SOL     OW47795  10.337  11.257   1.483
48674SOL    HW147796  10.426  11.239   1.513
48674SOL    HW247797  10.282  11.231   1.557
48675SOL     OW47798  11.640   2.201   8.712
48675SOL    HW147799  11.651   2.219   8.806
48675SOL    HW247800  11.711   2.249   8.670
48676SOL     OW47801   5.672   6.582   2.253
48676SOL    HW147802   5.614   6.652   2.284
48676SOL    HW247803   5.755   6.626   2.234
48677SOL     OW47804   0.918  11.998   3.120
48677SOL    HW147805   0.826  12.015   3.139
48677SOL    HW247806   0.919  11.910   3.084
48678SOL     OW47807  10.616   8.150   9.622
48678SOL    HW147808  10.545   8.086   9.627
48678SOL    HW247809  10.693   8.103   9.654
48679SOL     OW47810   4.773  11.087   3.960
48679SOL    HW147811   4.780  11.060   4.051
48679SOL    HW247812   4.856  11.130   3.941
48680SOL     OW47813   9.587  12.745   6.261
48680SOL    HW147814   9.556  12.725   6.172
48680SOL    HW247815   9.663  12.801   6.247
48681SOL     OW47816   6.091  12.533  12.427
48681SOL    HW147817   6.068  12.545  12.519
48681SOL    HW247818   6.101  12.622  12.393
48682SOL     OW47819   0.511   5.984  12.611
48682SOL    HW147820   0.508   6.010  12.519
48682SOL    HW247821   0.463   6.054  12.657
48683SOL     OW47822   2.106  13.235   0.448
48683SOL    HW147823   2.031  13.195   0.404
48683SOL    HW247824   2.066  13.293   0.513
48684SOL     OW47825  14.078   6.720   5.079
48684SOL    HW147826  14.075   6.766   5.163
48684SOL    HW247827  13.987   6.722   5.048
48685SOL     OW47828   2.392   9.227  12.217
48685SOL    HW147829   2.315   9.254  12.266
48685SOL    HW247830   2.358   9.201  12.131
48686SOL     OW47831   5.573   3.459   0.235
48686SOL    HW147832   5.538   3.380   0.193
48686SOL    HW247833   5.645   3.486   0.178
48687SOL     OW47834   3.150   6.361   3.667
48687SOL    HW147835   3.073   6.307   3.686
48687SOL    HW247836   3.206   6.305   3.613
48688SOL     OW47837  12.967   8.063  12.867
48688SOL    HW147838  13.051   8.029  12.836
48688SOL    HW247839  12.974   8.063  12.962
48689SOL     OW47840   5.889  14.769   8.154
48689SOL    HW147841   5.885  14.858   8.118
48689SOL    HW247842   5.978  14.739   8.135
48690SOL     OW47843   1.891   5.355   9.627
48690SOL    HW147844   1.939   5.302   9.563
48690SOL    HW247845   1.800   5.352   9.597
48691SOL     OW47846   6.260  10.930   5.781
48691SOL    HW147847   6.196  10.900   5.716
48691SOL    HW247848   6.343  10.934   5.734
48692SOL     OW47849  12.486  10.471   3.505
48692SOL    HW147850  12.477  10.401   3.569
48692SOL    HW247851  12.404  10.520   3.511
48693SOL     OW47852  11.456  14.477   5.309
48693SOL    HW147853  11.498  14.413   5.367
48693SOL    HW247854  11.491  14.458   5.222
48694SOL     OW47855  12.698   6.825   6.122
48694SOL    HW147856  12.784   6.792   6.147
48694SOL    HW247857  12.642   6.747   6.121
48695SOL     OW47858   2.748  12.004   8.579
48695SOL    HW147859   2.743  12.033   8.487
48695SOL    HW247860   2.769  12.084   8.628
48696SOL     OW47861   0.991   6.339   9.423
48696SOL    HW147862   0.988   6.435   9.422
48696SOL    HW247863   1.073   6.317   9.378
48697SOL     OW47864  13.231   4.531  11.195
48697SOL    HW147865  13.305   4.532  11.255
48697SOL    HW247866  13.224   4.621  11.162
48698SOL     OW47867   0.932  10.940   1.483
48698SOL    HW147868   0.877  10.923   1.560
48698SOL    HW247869   1.021  10.923   1.512
48699SOL     OW47870   1.217   5.606   4.178
48699SOL    HW147871   1.287   5.671   4.171
48699SOL    HW247872   1.231   5.548   4.104
48700SOL     OW47873   6.139  11.913  14.769
48700SOL    HW147874   6.100  11.963  14.698
48700SOL    HW247875   6.065  11.870  14.811
48701SOL     OW47876   9.531   2.781   9.988
48701SOL    HW147877   9.519   2.702  10.041
48701SOL    HW247878   9.582   2.840  10.043
48702SOL     OW47879  12.406   2.745  10.598
48702SOL    HW147880  12.352   2.823  10.588
48702SOL    HW247881  12.494   2.773  10.572
48703SOL     OW47882  11.683   7.988   7.687
48703SOL    HW147883  11.744   8.036   7.744
48703SOL    HW247884  11.634   7.931   7.747
48704SOL     OW47885  13.519   6.952   3.826
48704SOL    HW147886  13.546   6.900   3.750
48704SOL    HW247887  13.489   6.887   3.889
48705SOL     OW47888   3.998   7.356   0.013
48705SOL    HW147889   3.952   7.310  14.821
48705SOL    HW247890   4.065   7.407  14.846
48706SOL     OW47891  13.755   2.802   0.797
48706SOL    HW147892  13.702   2.750   0.736
48706SOL    HW247893  13.815   2.738   0.836
48707SOL     OW47894  10.501  14.624   5.143
48707SOL    HW147895  10.432  14.690   5.139
48707SOL    HW247896  10.582  14.676   5.147
48708SOL     OW47897   5.093  12.010   8.957
48708SOL    HW147898   5.031  11.975   9.021
48708SOL    HW247899   5.147  12.072   9.006
48709SOL     OW47900   1.638   9.012   3.624
48709SOL    HW147901   1.641   9.096   3.577
48709SOL    HW247902   1.721   8.970   3.603
48710SOL     OW47903   9.113   9.395   6.999
48710SOL    HW147904   9.049   9.324   6.994
48710SOL    HW247905   9.135   9.414   6.907
48711SOL     OW47906  13.923   1.288   4.523
48711SOL    HW147907  13.975   1.286   4.443
48711SOL    HW247908  13.836   1.317   4.495
48712SOL     OW47909   3.159   6.068   3.205
48712SOL    HW147910   3.212   6.130   3.154
48712SOL    HW247911   3.211   5.988   3.207
48713SOL     OW47912   3.164   8.901   9.752
48713SOL    HW147913   3.184   8.809   9.735
48713SOL    HW247914   3.088   8.899   9.810
48714SOL     OW47915  12.004  12.529  12.512
48714SOL    HW147916  11.919  12.486  12.525
48714SOL    HW247917  12.060  12.489  12.578
48715SOL     OW47918   4.467   6.379  11.425
48715SOL    HW147919   4.487   6.461  11.471
48715SOL    HW247920   4.548   6.329  11.428
48716SOL     OW47921   9.253   6.661   7.570
48716SOL    HW147922   9.174   6.714   7.586
48716SOL    HW247923   9.303   6.712   7.506
48717SOL     OW47924  14.427   1.685   0.907
48717SOL    HW147925  14.355   1.747   0.892
48717SOL    HW247926  14.497   1.739   0.944
48718SOL     OW47927   5.035   9.899   5.954
48718SOL    HW147928   5.079   9.833   5.900
48718SOL    HW247929   5.064   9.983   5.918
48719SOL     OW47930  13.368   5.510   1.914
48719SOL    HW147931  13.357   5.605   1.910
48719SOL    HW247932  13.432   5.490   1.846
48720SOL     OW47933   3.483   5.293  12.218
48720SOL    HW147934   3.451   5.215  12.263
48720SOL    HW247935   3.408   5.322  12.165
48721SOL     OW47936   8.774   4.271  14.054
48721SOL    HW147937   8.807   4.254  14.142
48721SOL    HW247938   8.679   4.272  14.064
48722SOL     OW47939   3.146  10.970  12.637
48722SOL    HW147940   3.162  10.878  12.656
48722SOL    HW247941   3.187  10.984  12.552
48723SOL     OW47942  13.485   8.680   7.296
48723SOL    HW147943  13.561   8.691   7.352
48723SOL    HW247944  13.419   8.739   7.333
48724SOL     OW47945   3.910  14.518  13.998
48724SOL    HW147946   3.891  14.496  13.907
48724SOL    HW247947   3.873  14.446  14.048
48725SOL     OW47948   2.857   5.680   8.213
48725SOL    HW147949   2.885   5.605   8.265
48725SOL    HW247950   2.776   5.709   8.256
48726SOL     OW47951   4.114   7.137  13.987
48726SOL    HW147952   4.167   7.076  13.936
48726SOL    HW247953   4.166   7.155  14.065
48727SOL     OW47954  13.719   8.888  11.517
48727SOL    HW147955  13.803   8.909  11.477
48727SOL    HW247956  13.705   8.796  11.496
48728SOL     OW47957   4.719   3.753   1.946
48728SOL    HW147958   4.746   3.767   1.855
48728SOL    HW247959   4.715   3.657   1.955
48729SOL     OW47960   0.449   4.975  14.672
48729SOL    HW147961   0.478   5.059  14.635
48729SOL    HW247962   0.446   4.915  14.597
48730SOL     OW47963  14.276   4.533  12.644
48730SOL    HW147964  14.353   4.483  12.618
48730SOL    HW247965  14.208   4.508  12.581
48731SOL     OW47966   6.363  10.559   1.772
48731SOL    HW147967   6.369  10.577   1.866
48731SOL    HW247968   6.269  10.565   1.752
48732SOL     OW47969   3.855  11.661   6.439
48732SOL    HW147970   3.783  11.619   6.392
48732SOL    HW247971   3.899  11.714   6.372
48733SOL     OW47972   6.976   1.718  11.889
48733SOL    HW147973   6.933   1.770  11.821
48733SOL    HW247974   7.004   1.638  11.844
48734SOL     OW47975   8.502   7.533  12.741
48734SOL    HW147976   8.559   7.496  12.808
48734SOL    HW247977   8.522   7.626  12.740
48735SOL     OW47978   4.736   1.822   8.397
48735SOL    HW147979   4.643   1.808   8.416
48735SOL    HW247980   4.737   1.870   8.314
48736SOL     OW47981   6.328   2.362   7.375
48736SOL    HW147982   6.251   2.404   7.336
48736SOL    HW247983   6.353   2.295   7.312
48737SOL     OW47984  11.386   7.744  10.055
48737SOL    HW147985  11.324   7.789   9.998
48737SOL    HW247986  11.448   7.812  10.081
48738SOL     OW47987  14.104   8.917   1.584
48738SOL    HW147988  14.112   8.853   1.513
48738SOL    HW247989  14.062   8.869   1.655
48739SOL     OW47990   6.303  11.396   9.411
48739SOL    HW147991   6.218  11.387   9.454
48739SOL    HW247992   6.347  11.467   9.458
48740SOL     OW47993   6.457   8.320   6.166
48740SOL    HW147994   6.418   8.299   6.250
48740SOL    HW247995   6.541   8.361   6.187
48741SOL     OW47996   2.060   2.159   2.887
48741SOL    HW147997   2.122   2.171   2.959
48741SOL    HW247998   2.097   2.209   2.815
48742SOL     OW47999   2.612  14.771   3.508
48742SOL    HW148000   2.705  14.789   3.519
48742SOL    HW248001   2.574  14.787   3.595
48743SOL     OW48002   5.668   9.824   6.805
48743SOL    HW148003   5.687   9.918   6.796
48743SOL    HW248004   5.744   9.788   6.850
48744SOL     OW48005  14.506  12.101   6.613
48744SOL    HW148006  14.443  12.053   6.559
48744SOL    HW248007  14.455  12.129   6.690
48745SOL     OW48008   5.569   7.007  12.606
48745SOL    HW148009   5.602   6.963  12.685
48745SOL    HW248010   5.600   6.953  12.534
48746SOL     OW48011   5.963   4.409   1.470
48746SOL    HW148012   5.925   4.424   1.384
48746SOL    HW248013   6.057   4.419   1.457
48747SOL     OW48014   8.059   0.802   7.628
48747SOL    HW148015   8.141   0.852   7.627
48747SOL    HW248016   7.994   0.861   7.589
48748SOL     OW48017  14.332   5.296  12.180
48748SOL    HW148018  14.285   5.371  12.215
48748SOL    HW248019  14.275   5.261  12.112
48749SOL     OW48020  12.962  10.761  11.629
48749SOL    HW148021  12.936  10.777  11.719
48749SOL    HW248022  12.908  10.821  11.577
48750SOL     OW48023  14.224   1.156   3.129
48750SOL    HW148024  14.204   1.243   3.165
48750SOL    HW248025  14.179   1.155   3.044
48751SOL     OW48026  10.368  10.828   5.525
48751SOL    HW148027  10.382  10.745   5.570
48751SOL    HW248028  10.440  10.834   5.463
48752SOL     OW48029   7.549  13.334  10.386
48752SOL    HW148030   7.599  13.414  10.371
48752SOL    HW248031   7.458  13.363  10.393
48753SOL     OW48032  13.053   4.869   2.404
48753SOL    HW148033  13.080   4.806   2.471
48753SOL    HW248034  13.048   4.953   2.451
48754SOL     OW48035  12.626  11.183   4.945
48754SOL    HW148036  12.572  11.118   4.899
48754SOL    HW248037  12.672  11.132   5.012
48755SOL     OW48038   3.595   2.439  12.312
48755SOL    HW148039   3.586   2.518  12.366
48755SOL    HW248040   3.654   2.383  12.363
48756SOL     OW48041   0.871  12.073   5.763
48756SOL    HW148042   0.833  11.998   5.808
48756SOL    HW248043   0.947  12.038   5.716
48757SOL     OW48044   6.470   6.879  12.256
48757SOL    HW148045   6.419   6.831  12.321
48757SOL    HW248046   6.456   6.971  12.278
48758SOL     OW48047   5.653  14.455  11.949
48758SOL    HW148048   5.651  14.399  11.871
48758SOL    HW248049   5.727  14.423  11.999
48759SOL     OW48050   9.023   9.759   6.972
48759SOL    HW148051   8.980   9.694   6.916
48759SOL    HW248052   9.068   9.708   7.039
48760SOL     OW48053  12.865  12.857  11.419
48760SOL    HW148054  12.897  12.807  11.495
48760SOL    HW248055  12.771  12.865  11.434
48761SOL     OW48056   4.712  13.145  13.365
48761SOL    HW148057   4.650  13.218  13.374
48761SOL    HW248058   4.673  13.074  13.415
48762SOL     OW48059   0.801  10.219   4.216
48762SOL    HW148060   0.867  10.159   4.180
48762SOL    HW248061   0.851  10.296   4.243
48763SOL     OW48062  13.845  12.825   8.176
48763SOL    HW148063  13.828  12.915   8.203
48763SOL    HW248064  13.930  12.803   8.215
48764SOL     OW48065   7.946   1.392   3.033
48764SOL    HW148066   8.003   1.432   2.967
48764SOL    HW248067   7.964   1.298   3.027
48765SOL     OW48068   9.914  14.765   5.634
48765SOL    HW148069   9.990  14.809   5.597
48765SOL    HW248070   9.941  14.740   5.722
48766SOL     OW48071   0.209   4.987   5.166
48766SOL    HW148072   0.245   4.910   5.123
48766SOL    HW248073   0.173   5.040   5.095
48767SOL     OW48074  14.057   9.263   7.500
48767SOL    HW148075  14.005   9.312   7.437
48767SOL    HW248076  14.005   9.264   7.581
48768SOL     OW48077   8.631  10.198   5.770
48768SOL    HW148078   8.542  10.196   5.734
48768SOL    HW248079   8.687  10.209   5.693
48769SOL     OW48080   5.751   5.870  12.117
48769SOL    HW148081   5.701   5.850  12.038
48769SOL    HW248082   5.834   5.905  12.085
48770SOL     OW48083  13.490   0.491  13.104
48770SOL    HW148084  13.437   0.498  13.184
48770SOL    HW248085  13.571   0.449  13.133
48771SOL     OW48086   5.512   3.251   2.505
48771SOL    HW148087   5.597   3.285   2.477
48771SOL    HW248088   5.534   3.178   2.563
48772SOL     OW48089   4.090  12.554   6.131
48772SOL    HW148090   4.020  12.492   6.110
48772SOL    HW248091   4.083  12.567   6.226
48773SOL     OW48092   1.798   4.564   0.217
48773SOL    HW148093   1.833   4.529   0.135
48773SOL    HW248094   1.874   4.575   0.273
48774SOL     OW48095   5.970  13.850   8.937
48774SOL    HW148096   6.047  13.819   8.890
48774SOL    HW248097   5.898  13.795   8.905
48775SOL     OW48098   4.473   4.810  10.765
48775SOL    HW148099   4.482   4.719  10.794
48775SOL    HW248100   4.538   4.819  10.695
48776SOL     OW48101   9.959  12.881  14.235
48776SOL    HW148102   9.905  12.811  14.197
48776SOL    HW248103  10.027  12.834  14.284
48777SOL     OW48104  13.937  12.185   2.540
48777SOL    HW148105  14.032  12.178   2.545
48777SOL    HW248106  13.907  12.166   2.629
48778SOL     OW48107   7.046   2.276   1.907
48778SOL    HW148108   7.087   2.322   1.834
48778SOL    HW248109   7.065   2.330   1.983
48779SOL     OW48110   9.158   1.428   0.849
48779SOL    HW148111   9.093   1.377   0.897
48779SOL    HW248112   9.192   1.367   0.784
48780SOL     OW48113  10.385   3.837   3.171
48780SOL    HW148114  10.363   3.788   3.250
48780SOL    HW248115  10.324   3.911   3.171
48781SOL     OW48116   6.754   0.073   2.901
48781SOL    HW148117   6.660   0.057   2.910
48781SOL    HW248118   6.773   0.054   2.809
48782SOL     OW48119   5.154   5.301   8.577
48782SOL    HW148120   5.097   5.371   8.608
48782SOL    HW248121   5.111   5.220   8.603
48783SOL     OW48122  12.873  12.715   2.226
48783SOL    HW148123  12.832  12.705   2.312
48783SOL    HW248124  12.812  12.767   2.175
48784SOL     OW48125  10.484   0.037  10.295
48784SOL    HW148126  10.413  14.858  10.323
48784SOL    HW248127  10.457   0.125  10.323
48785SOL     OW48128  12.831   8.552   8.384
48785SOL    HW148129  12.866   8.577   8.298
48785SOL    HW248130  12.748   8.600   8.391
48786SOL     OW48131   0.739  11.346   3.572
48786SOL    HW148132   0.643  11.354   3.567
48786SOL    HW248133   0.765  11.322   3.484
48787SOL     OW48134   8.900   9.170   2.516
48787SOL    HW148135   8.934   9.253   2.482
48787SOL    HW248136   8.979   9.119   2.537
48788SOL     OW48137  12.592   3.516  10.535
48788SOL    HW148138  12.548   3.436  10.563
48788SOL    HW248139  12.534   3.587  10.563
48789SOL     OW48140  13.678   2.533   6.085
48789SOL    HW148141  13.771   2.548   6.099
48789SOL    HW248142  13.659   2.451   6.131
48790SOL     OW48143   1.768   1.460   2.083
48790SOL    HW148144   1.673   1.458   2.093
48790SOL    HW248145   1.802   1.477   2.171
48791SOL     OW48146  13.526   8.674  12.500
48791SOL    HW148147  13.519   8.660  12.594
48791SOL    HW248148  13.614   8.709  12.487
48792SOL     OW48149   3.108   4.689   2.509
48792SOL    HW148150   3.059   4.760   2.551
48792SOL    HW248151   3.079   4.690   2.418
48793SOL     OW48152   3.071   0.051  11.251
48793SOL    HW148153   3.025   0.091  11.177
48793SOL    HW248154   3.161   0.083  11.243
48794SOL     OW48155  10.467   6.482   4.789
48794SOL    HW148156  10.541   6.525   4.747
48794SOL    HW248157  10.390   6.520   4.746
48795SOL     OW48158   1.917   2.510   6.675
48795SOL    HW148159   1.926   2.601   6.703
48795SOL    HW248160   1.871   2.515   6.591
48796SOL     OW48161   3.681   3.963  11.881
48796SOL    HW148162   3.691   4.026  11.809
48796SOL    HW248163   3.717   4.008  11.958
48797SOL     OW48164   3.187   7.982   9.566
48797SOL    HW148165   3.145   7.992   9.481
48797SOL    HW248166   3.235   8.064   9.578
48798SOL     OW48167   5.997   5.885  10.642
48798SOL    HW148168   6.029   5.972  10.662
48798SOL    HW248169   6.012   5.875  10.548
48799SOL     OW48170   2.123  12.498   7.463
48799SOL    HW148171   2.089  12.478   7.375
48799SOL    HW248172   2.210  12.534   7.447
48800SOL     OW48173   6.291   5.519   0.371
48800SOL    HW148174   6.252   5.601   0.401
48800SOL    HW248175   6.354   5.545   0.305
48801SOL     OW48176  11.809  13.250  13.886
48801SOL    HW148177  11.838  13.316  13.949
48801SOL    HW248178  11.850  13.275  13.804
48802SOL     OW48179  10.795   9.438  12.140
48802SOL    HW148180  10.842   9.423  12.059
48802SOL    HW248181  10.863   9.463  12.203
48803SOL     OW48182  10.106   0.550   7.063
48803SOL    HW148183  10.041   0.550   6.993
48803SOL    HW248184  10.078   0.480   7.122
48804SOL     OW48185   5.666   1.285   0.633
48804SOL    HW148186   5.577   1.312   0.653
48804SOL    HW248187   5.658   1.194   0.606
48805SOL     OW48188   0.801  10.460   9.861
48805SOL    HW148189   0.838  10.400   9.797
48805SOL    HW248190   0.706  10.452   9.849
48806SOL     OW48191   3.376   4.065   4.806
48806SOL    HW148192   3.298   4.069   4.860
48806SOL    HW248193   3.447   4.092   4.864
48807SOL     OW48194  13.874   9.823  12.930
48807SOL    HW148195  13.885   9.918  12.924
48807SOL    HW248196  13.866   9.794  12.839
48808SOL     OW48197   1.307   1.509  11.817
48808SOL    HW148198   1.377   1.537  11.876
48808SOL    HW248199   1.347   1.515  11.729
48809SOL     OW48200   8.522   1.083  14.248
48809SOL    HW148201   8.428   1.064  14.258
48809SOL    HW248202   8.526   1.178  14.239
48810SOL     OW48203   6.568  14.839   7.663
48810SOL    HW148204   6.495  14.803   7.613
48810SOL    HW248205   6.575   0.052   7.633
48811SOL     OW48206   5.677   1.829   5.288
48811SOL    HW148207   5.694   1.892   5.218
48811SOL    HW248208   5.722   1.865   5.365
48812SOL     OW48209   5.078  11.003  14.593
48812SOL    HW148210   5.168  10.988  14.621
48812SOL    HW248211   5.083  11.074  14.530
48813SOL     OW48212   7.309   3.141   6.709
48813SOL    HW148213   7.214   3.151   6.716
48813SOL    HW248214   7.334   3.203   6.640
48814SOL     OW48215   2.804  11.287  12.691
48814SOL    HW148216   2.845  11.356  12.638
48814SOL    HW248217   2.877  11.245  12.736
48815SOL     OW48218   9.720   8.998  11.752
48815SOL    HW148219   9.652   9.063  11.770
48815SOL    HW248220   9.750   8.971  11.839
48816SOL     OW48221  14.847  13.464  13.709
48816SOL    HW148222   0.043  13.405  13.697
48816SOL    HW248223  14.804  13.465  13.624
48817SOL     OW48224   1.514  10.802  14.047
48817SOL    HW148225   1.604  10.770  14.053
48817SOL    HW248226   1.503  10.860  14.122
48818SOL     OW48227   3.667   9.358   9.730
48818SOL    HW148228   3.575   9.333   9.726
48818SOL    HW248229   3.699   9.344   9.641
48819SOL     OW48230   1.954   0.360   9.007
48819SOL    HW148231   1.879   0.409   8.972
48819SOL    HW248232   1.941   0.360   9.102
48820SOL     OW48233   5.849   3.023   3.948
48820SOL    HW148234   5.936   2.982   3.949
48820SOL    HW248235   5.790   2.953   3.919
48821SOL     OW48236   6.958  11.953   2.087
48821SOL    HW148237   6.961  11.901   2.007
48821SOL    HW248238   7.003  12.034   2.065
48822SOL     OW48239   5.033  14.265  11.805
48822SOL    HW148240   5.071  14.321  11.873
48822SOL    HW248241   5.014  14.326  11.733
48823SOL     OW48242   7.725  12.797   8.498
48823SOL    HW148243   7.677  12.874   8.528
48823SOL    HW248244   7.665  12.754   8.436
48824SOL     OW48245  10.901   7.824   9.218
48824SOL    HW148246  10.867   7.856   9.134
48824SOL    HW248247  10.995   7.816   9.204
48825SOL     OW48248  11.462  14.694  14.248
48825SOL    HW148249  11.468  14.762  14.181
48825SOL    HW248250  11.502  14.617  14.207
48826SOL     OW48251  12.698  10.925   9.352
48826SOL    HW148252  12.747  10.900   9.274
48826SOL    HW248253  12.668  11.014   9.334
48827SOL     OW48254   8.616   9.903   9.077
48827SOL    HW148255   8.645   9.978   9.025
48827SOL    HW248256   8.566   9.849   9.015
48828SOL     OW48257  14.016  10.768   9.325
48828SOL    HW148258  14.071  10.718   9.385
48828SOL    HW248259  13.953  10.704   9.292
48829SOL     OW48260   4.134   9.885  12.917
48829SOL    HW148261   4.145   9.873  13.012
48829SOL    HW248262   4.222   9.901  12.885
48830SOL     OW48263   0.602   6.004   1.671
48830SOL    HW148264   0.680   5.952   1.653
48830SOL    HW248265   0.600   6.070   1.602
48831SOL     OW48266  10.874   5.184  10.500
48831SOL    HW148267  10.960   5.220  10.518
48831SOL    HW248268  10.861   5.197  10.406
48832SOL     OW48269   2.344  14.180   7.027
48832SOL    HW148270   2.403  14.216   6.961
48832SOL    HW248271   2.392  14.189   7.109
48833SOL     OW48272   5.810   1.127  10.464
48833SOL    HW148273   5.812   1.222  10.455
48833SOL    HW248274   5.901   1.102  10.478
48834SOL     OW48275   1.602   9.080  14.297
48834SOL    HW148276   1.688   9.038  14.301
48834SOL    HW248277   1.557   9.050  14.376
48835SOL     OW48278  13.896   8.352   0.701
48835SOL    HW148279  13.890   8.430   0.756
48835SOL    HW248280  13.823   8.360   0.639
48836SOL     OW48281   3.244  12.623  12.828
48836SOL    HW148282   3.322  12.652  12.875
48836SOL    HW248283   3.183  12.595  12.897
48837SOL     OW48284   9.893   7.471  12.313
48837SOL    HW148285   9.905   7.565  12.298
48837SOL    HW248286   9.799   7.457  12.300
48838SOL     OW48287   1.640   0.173   3.206
48838SOL    HW148288   1.689   0.091   3.202
48838SOL    HW248289   1.576   0.166   3.135
48839SOL     OW48290   8.446   5.035  14.132
48839SOL    HW148291   8.528   5.044  14.180
48839SOL    HW248292   8.393   4.975  14.185
48840SOL     OW48293   2.655   9.412  12.053
48840SOL    HW148294   2.568   9.388  12.020
48840SOL    HW248295   2.707   9.331  12.045
48841SOL     OW48296   2.859   4.951   3.594
48841SOL    HW148297   2.768   4.924   3.584
48841SOL    HW248298   2.858   5.012   3.668
48842SOL     OW48299   8.264   8.342   0.365
48842SOL    HW148300   8.329   8.274   0.348
48842SOL    HW248301   8.202   8.334   0.293
48843SOL     OW48302   8.966   4.053   0.380
48843SOL    HW148303   8.993   4.123   0.439
48843SOL    HW248304   8.887   4.016   0.420
48844SOL     OW48305   0.065   4.124   3.343
48844SOL    HW148306   0.088   4.076   3.422
48844SOL    HW248307   0.129   4.196   3.339
48845SOL     OW48308   7.344  14.727   8.651
48845SOL    HW148309   7.344  14.726   8.555
48845SOL    HW248310   7.414  14.666   8.676
48846SOL     OW48311  14.508   0.283   7.503
48846SOL    HW148312  14.530   0.222   7.433
48846SOL    HW248313  14.473   0.360   7.458
48847SOL     OW48314   2.163   8.755   0.807
48847SOL    HW148315   2.082   8.738   0.855
48847SOL    HW248316   2.212   8.816   0.863
48848SOL     OW48317  12.398  12.004   4.990
48848SOL    HW148318  12.455  11.947   4.939
48848SOL    HW248319  12.437  12.006   5.077
48849SOL     OW48320  13.426   0.762  12.998
48849SOL    HW148321  13.430   0.690  13.060
48849SOL    HW248322  13.352   0.741  12.940
48850SOL     OW48323   8.590  14.388   7.145
48850SOL    HW148324   8.504  14.349   7.160
48850SOL    HW248325   8.646  14.315   7.117
48851SOL     OW48326   3.669   1.030   8.948
48851SOL    HW148327   3.606   1.101   8.961
48851SOL    HW248328   3.642   0.963   9.011
48852SOL     OW48329  12.630   3.824   3.732
48852SOL    HW148330  12.713   3.811   3.686
48852SOL    HW248331  12.578   3.747   3.709
48853SOL     OW48332   4.890   1.435  10.506
48853SOL    HW148333   4.827   1.507  10.514
48853SOL    HW248334   4.901   1.402  10.595
48854SOL     OW48335  11.935   8.109  14.852
48854SOL    HW148336  11.931   8.015  14.864
48854SOL    HW248337  12.023   8.125  14.818
48855SOL     OW48338   6.252   5.070  14.268
48855SOL    HW148339   6.189   5.127  14.310
48855SOL    HW248340   6.331   5.076  14.322
48856SOL     OW48341   9.335  10.900   7.803
48856SOL    HW148342   9.414  10.906   7.749
48856SOL    HW248343   9.368  10.903   7.893
48857SOL     OW48344   9.559   5.158   6.621
48857SOL    HW148345   9.611   5.079   6.630
48857SOL    HW248346   9.620   5.224   6.589
48858SOL     OW48347  11.207   3.338   4.519
48858SOL    HW148348  11.285   3.385   4.489
48858SOL    HW248349  11.235   3.247   4.524
48859SOL     OW48350   4.004   0.008   3.116
48859SOL    HW148351   3.955  14.869   3.197
48859SOL    HW248352   3.983   0.098   3.093
48860SOL     OW48353   9.084  12.523  12.475
48860SOL    HW148354   9.038  12.445  12.444
48860SOL    HW248355   9.018  12.592  12.474
48861SOL     OW48356   4.403   9.806   0.528
48861SOL    HW148357   4.493   9.797   0.560
48861SOL    HW248358   4.360   9.862   0.592
48862SOL     OW48359   4.692  13.248   9.391
48862SOL    HW148360   4.625  13.219   9.329
48862SOL    HW248361   4.655  13.327   9.431
48863SOL     OW48362   9.942   7.146   3.825
48863SOL    HW148363  10.009   7.168   3.890
48863SOL    HW248364   9.860   7.153   3.874
48864SOL     OW48365   8.822  12.933   9.487
48864SOL    HW148366   8.854  12.975   9.566
48864SOL    HW248367   8.728  12.952   9.486
48865SOL     OW48368  11.004  10.984   1.553
48865SOL    HW148369  11.092  10.989   1.593
48865SOL    HW248370  11.001  11.060   1.494
48866SOL     OW48371  10.623   5.004   8.873
48866SOL    HW148372  10.680   4.997   8.950
48866SOL    HW248373  10.638   4.924   8.824
48867SOL     OW48374  14.295   7.310   0.274
48867SOL    HW148375  14.221   7.256   0.302
48867SOL    HW248376  14.256   7.380   0.222
48868SOL     OW48377   9.481   0.904  10.167
48868SOL    HW148378   9.437   0.978  10.210
48868SOL    HW248379   9.568   0.938  10.145
48869SOL     OW48380   0.845  13.466   2.224
48869SOL    HW148381   0.905  13.395   2.201
48869SOL    HW248382   0.758  13.428   2.217
48870SOL     OW48383   2.869   7.207   3.307
48870SOL    HW148384   2.955   7.175   3.279
48870SOL    HW248385   2.808   7.167   3.245
48871SOL     OW48386   4.015   0.990   5.416
48871SOL    HW148387   3.926   0.998   5.382
48871SOL    HW248388   4.070   0.982   5.337
48872SOL     OW48389   0.046  11.598   5.256
48872SOL    HW148390   0.019  11.534   5.322
48872SOL    HW248391   0.138  11.615   5.276
48873SOL     OW48392   0.318  10.464  10.027
48873SOL    HW148393   0.283  10.375  10.019
48873SOL    HW248394   0.390  10.467   9.964
48874SOL     OW48395   2.172  11.649  13.016
48874SOL    HW148396   2.182  11.741  13.038
48874SOL    HW248397   2.262  11.618  13.001
48875SOL     OW48398   7.283   4.020  12.347
48875SOL    HW148399   7.275   3.948  12.410
48875SOL    HW248400   7.280   3.977  12.261
48876SOL     OW48401   5.097   1.087   0.291
48876SOL    HW148402   5.163   1.068   0.225
48876SOL    HW248403   5.032   1.018   0.280
48877SOL     OW48404  13.331  11.281   9.297
48877SOL    HW148405  13.289  11.199   9.324
48877SOL    HW248406  13.420  11.256   9.274
48878SOL     OW48407   9.000  12.377  11.161
48878SOL    HW148408   8.944  12.386  11.084
48878SOL    HW248409   9.083  12.417  11.135
48879SOL     OW48410   5.555  14.370   1.777
48879SOL    HW148411   5.480  14.322   1.742
48879SOL    HW248412   5.551  14.356   1.872
48880SOL     OW48413  11.308   1.312   6.139
48880SOL    HW148414  11.214   1.301   6.150
48880SOL    HW248415  11.341   1.224   6.119
48881SOL     OW48416   4.852   2.091   3.258
48881SOL    HW148417   4.854   2.058   3.168
48881SOL    HW248418   4.804   2.024   3.307
48882SOL     OW48419   7.617  14.690  13.125
48882SOL    HW148420   7.582  14.729  13.205
48882SOL    HW248421   7.575  14.738  13.054
48883SOL     OW48422  13.867  14.685  11.737
48883SOL    HW148423  13.789  14.649  11.697
48883SOL    HW248424  13.837  14.721  11.821
48884SOL     OW48425   0.000   8.514   1.233
48884SOL    HW148426   0.001   8.590   1.293
48884SOL    HW248427  14.807   8.459   1.265
48885SOL     OW48428   4.060   8.910  13.257
48885SOL    HW148429   4.149   8.876  13.255
48885SOL    HW248430   4.033   8.913  13.165
48886SOL     OW48431  14.247   3.670   2.338
48886SOL    HW148432  14.319   3.632   2.388
48886SOL    HW248433  14.276   3.759   2.319
48887SOL     OW48434   4.319   1.035   9.635
48887SOL    HW148435   4.305   0.975   9.708
48887SOL    HW248436   4.314   1.122   9.674
48888SOL     OW48437   9.956   1.469   9.756
48888SOL    HW148438  10.000   1.484   9.672
48888SOL    HW248439   9.864   1.456   9.733
48889SOL     OW48440  11.786   4.632  14.566
48889SOL    HW148441  11.830   4.635  14.652
48889SOL    HW248442  11.709   4.688  14.577
48890SOL     OW48443   6.658   5.734   6.960
48890SOL    HW148444   6.739   5.691   6.986
48890SOL    HW248445   6.640   5.702   6.872
48891SOL     OW48446   4.542  11.503   6.680
48891SOL    HW148447   4.508  11.592   6.671
48891SOL    HW248448   4.633  11.516   6.708
48892SOL     OW48449  13.302   9.146  14.201
48892SOL    HW148450  13.349   9.225  14.173
48892SOL    HW248451  13.255   9.172  14.280
48893SOL     OW48452  12.188   8.361   1.002
48893SOL    HW148453  12.151   8.383   1.087
48893SOL    HW248454  12.138   8.414   0.940
48894SOL     OW48455  10.349  14.207  14.592
48894SOL    HW148456  10.387  14.254  14.667
48894SOL    HW248457  10.287  14.269  14.553
48895SOL     OW48458   8.793   7.577  12.359
48895SOL    HW148459   8.742   7.540  12.287
48895SOL    HW248460   8.818   7.664  12.327
48896SOL     OW48461   4.582  11.025   8.475
48896SOL    HW148462   4.653  10.969   8.443
48896SOL    HW248463   4.560  11.081   8.401
48897SOL     OW48464   5.587   6.427  10.413
48897SOL    HW148465   5.562   6.492  10.347
48897SOL    HW248466   5.652   6.472  10.466
48898SOL     OW48467  10.093   4.749  10.947
48898SOL    HW148468   9.999   4.735  10.935
48898SOL    HW248469  10.118   4.806  10.875
48899SOL     OW48470   3.690   2.661   2.722
48899SOL    HW148471   3.734   2.716   2.657
48899SOL    HW248472   3.756   2.595   2.746
48900SOL     OW48473   0.977  13.750   2.585
48900SOL    HW148474   0.954  13.707   2.667
48900SOL    HW248475   1.038  13.819   2.610
48901SOL     OW48476  12.289  10.879   9.195
48901SOL    HW148477  12.342  10.813   9.150
48901SOL    HW248478  12.281  10.951   9.133
48902SOL     OW48479   5.082  14.146   5.500
48902SOL    HW148480   5.080  14.090   5.577
48902SOL    HW248481   5.086  14.085   5.426
48903SOL     OW48482   1.732   5.828   1.036
48903SOL    HW148483   1.785   5.889   0.984
48903SOL    HW248484   1.769   5.742   1.017
48904SOL     OW48485   0.961  12.839   2.365
48904SOL    HW148486   0.875  12.812   2.396
48904SOL    HW248487   0.966  12.807   2.275
48905SOL     OW48488   1.725   2.182  13.094
48905SOL    HW148489   1.707   2.103  13.043
48905SOL    HW248490   1.688   2.253  13.042
48906SOL     OW48491   6.701   5.792   0.733
48906SOL    HW148492   6.783   5.839   0.716
48906SOL    HW248493   6.728   5.714   0.782
48907SOL     OW48494  10.825   1.411   7.841
48907SOL    HW148495  10.742   1.458   7.850
48907SOL    HW248496  10.889   1.479   7.820
48908SOL     OW48497   8.768   1.338   7.383
48908SOL    HW148498   8.825   1.384   7.321
48908SOL    HW248499   8.688   1.390   7.386
48909SOL     OW48500   5.376  13.456   3.549
48909SOL    HW148501   5.292  13.462   3.504
48909SOL    HW248502   5.354  13.469   3.642
48910SOL     OW48503  10.915  14.029  14.417
48910SOL    HW148504  10.899  14.044  14.511
48910SOL    HW248505  10.846  13.968  14.391
48911SOL     OW48506   1.363   4.977   3.991
48911SOL    HW148507   1.337   4.927   3.914
48911SOL    HW248508   1.438   5.028   3.963
48912SOL     OW48509  10.467  14.408   7.974
48912SOL    HW148510  10.385  14.456   7.984
48912SOL    HW248511  10.481  14.404   7.879
48913SOL     OW48512   4.256   4.862   8.128
48913SOL    HW148513   4.342   4.833   8.097
48913SOL    HW248514   4.264   4.957   8.137
48914SOL     OW48515  13.784   3.084   7.975
48914SOL    HW148516  13.788   3.175   8.005
48914SOL    HW248517  13.755   3.034   8.052
48915SOL     OW48518   2.366   4.955   4.142
48915SOL    HW148519   2.329   5.003   4.216
48915SOL    HW248520   2.297   4.895   4.114
48916SOL     OW48521   9.339   9.469   0.054
48916SOL    HW148522   9.364   9.399   0.114
48916SOL    HW248523   9.250   9.448   0.029
48917SOL     OW48524   6.481   4.960   9.370
48917SOL    HW148525   6.441   4.936   9.286
48917SOL    HW248526   6.428   5.032   9.403
48918SOL     OW48527   1.453  11.880   9.173
48918SOL    HW148528   1.412  11.835   9.247
48918SOL    HW248529   1.518  11.819   9.140
48919SOL     OW48530  14.741  12.443  12.370
48919SOL    HW148531  14.646  12.448  12.362
48919SOL    HW248532  14.767  12.529  12.402
48920SOL     OW48533   7.234  13.310  11.843
48920SOL    HW148534   7.140  13.292  11.833
48920SOL    HW248535   7.253  13.284  11.934
48921SOL     OW48536  12.875  12.510   3.980
48921SOL    HW148537  12.876  12.476   3.891
48921SOL    HW248538  12.858  12.604   3.970
48922SOL     OW48539   1.928   3.540  13.563
48922SOL    HW148540   1.852   3.482  13.557
48922SOL    HW248541   1.994   3.488  13.609
48923SOL     OW48542   4.292  12.183   6.436
48923SOL    HW148543   4.288  12.213   6.527
48923SOL    HW248544   4.306  12.263   6.386
48924SOL     OW48545  10.512   7.916   2.786
48924SOL    HW148546  10.484   8.002   2.754
48924SOL    HW248547  10.518   7.861   2.707
48925SOL     OW48548   3.599  13.276   1.967
48925SOL    HW148549   3.528  13.218   1.994
48925SOL    HW248550   3.595  13.276   1.872
48926SOL     OW48551   6.058   1.932   1.335
48926SOL    HW148552   5.984   1.897   1.384
48926SOL    HW248553   6.120   1.959   1.403
48927SOL     OW48554   6.187  11.654  12.344
48927SOL    HW148555   6.254  11.714  12.376
48927SOL    HW248556   6.236  11.584  12.301
48928SOL     OW48557   9.599  11.139   9.798
48928SOL    HW148558   9.546  11.209   9.760
48928SOL    HW248559   9.681  11.182   9.822
48929SOL     OW48560   6.785   0.863  10.841
48929SOL    HW148561   6.763   0.817  10.923
48929SOL    HW248562   6.868   0.824  10.814
48930SOL     OW48563  11.657  14.640   8.740
48930SOL    HW148564  11.612  14.700   8.681
48930SOL    HW248565  11.750  14.650   8.718
48931SOL     OW48566   8.797   5.716  13.618
48931SOL    HW148567   8.829   5.786  13.675
48931SOL    HW248568   8.863   5.647  13.626
48932SOL     OW48569  14.351  13.876   7.526
48932SOL    HW148570  14.375  13.897   7.436
48932SOL    HW248571  14.274  13.820   7.519
48933SOL     OW48572   5.666  12.774   9.309
48933SOL    HW148573   5.625  12.860   9.318
48933SOL    HW248574   5.706  12.758   9.394
48934SOL     OW48575  13.329   1.626   4.627
48934SOL    HW148576  13.395   1.672   4.678
48934SOL    HW248577  13.279   1.696   4.584
48935SOL     OW48578   7.902   6.210  14.041
48935SOL    HW148579   7.990   6.215  14.003
48935SOL    HW248580   7.844   6.197  13.965
48936SOL     OW48581  11.737   6.659  14.307
48936SOL    HW148582  11.776   6.671  14.394
48936SOL    HW248583  11.667   6.724  14.303
48937SOL     OW48584  14.157  10.812  11.897
48937SOL    HW148585  14.202  10.832  11.815
48937SOL    HW248586  14.172  10.889  11.952
48938SOL     OW48587   4.963   0.283   1.701
48938SOL    HW148588   4.914   0.280   1.619
48938SOL    HW248589   5.023   0.208   1.697
48939SOL     OW48590   5.777  10.313  10.414
48939SOL    HW148591   5.810  10.279  10.331
48939SOL    HW248592   5.712  10.378  10.389
48940SOL     OW48593   7.584  10.227   5.236
48940SOL    HW148594   7.584  10.275   5.153
48940SOL    HW248595   7.674  10.196   5.247
48941SOL     OW48596  14.409  14.023   1.540
48941SOL    HW148597  14.386  13.930   1.553
48941SOL    HW248598  14.414  14.033   1.445
48942SOL     OW48599  11.908   9.835   7.002
48942SOL    HW148600  11.885   9.743   7.019
48942SOL    HW248601  11.998   9.844   7.033
48943SOL     OW48602  10.445  14.237   2.339
48943SOL    HW148603  10.402  14.276   2.416
48943SOL    HW248604  10.483  14.311   2.292
48944SOL     OW48605   9.185   6.264   5.059
48944SOL    HW148606   9.099   6.224   5.074
48944SOL    HW248607   9.225   6.267   5.145
48945SOL     OW48608  10.266   5.646   8.715
48945SOL    HW148609  10.359   5.645   8.739
48945SOL    HW248610  10.220   5.635   8.798
48946SOL     OW48611   8.988   5.449   7.863
48946SOL    HW148612   9.037   5.372   7.836
48946SOL    HW248613   9.041   5.524   7.835
48947SOL     OW48614   9.801  10.044   4.254
48947SOL    HW148615   9.785   9.975   4.319
48947SOL    HW248616   9.891  10.071   4.270
48948SOL     OW48617   2.019   7.800   1.448
48948SOL    HW148618   1.999   7.717   1.491
48948SOL    HW248619   1.972   7.796   1.365
48949SOL     OW48620  14.810   9.913  11.806
48949SOL    HW148621  14.805   9.826  11.767
48949SOL    HW248622  14.798   9.974  11.733
48950SOL     OW48623   7.218   9.796  14.007
48950SOL    HW148624   7.230   9.757  13.921
48950SOL    HW248625   7.138   9.848  13.999
48951SOL     OW48626  12.844  14.778  13.238
48951SOL    HW148627  12.933  14.743  13.239
48951SOL    HW248628  12.827  14.797  13.146
48952SOL     OW48629   9.572   4.925   1.466
48952SOL    HW148630   9.526   4.843   1.485
48952SOL    HW248631   9.517   4.993   1.503
48953SOL     OW48632   9.489   0.265  10.098
48953SOL    HW148633   9.412   0.254  10.041
48953SOL    HW248634   9.476   0.350  10.139
48954SOL     OW48635   2.707   7.925   2.894
48954SOL    HW148636   2.688   8.016   2.874
48954SOL    HW248637   2.624   7.888   2.924
48955SOL     OW48638  10.414   7.645   9.465
48955SOL    HW148639  10.376   7.731   9.481
48955SOL    HW248640  10.490   7.662   9.408
48956SOL     OW48641   2.852   0.908  14.813
48956SOL    HW148642   2.908   0.940   0.006
48956SOL    HW248643   2.796   0.983  14.792
48957SOL     OW48644   9.666   5.969  11.330
48957SOL    HW148645   9.618   5.975  11.412
48957SOL    HW248646   9.627   6.035  11.274
48958SOL     OW48647   5.283  13.104   5.926
48958SOL    HW148648   5.338  13.137   5.997
48958SOL    HW248649   5.345  13.062   5.865
48959SOL     OW48650  11.998  12.022   9.434
48959SOL    HW148651  12.092  12.015   9.453
48959SOL    HW248652  11.994  12.038   9.340
48960SOL     OW48653   8.967   9.207  10.958
48960SOL    HW148654   8.932   9.204  10.869
48960SOL    HW248655   8.891   9.226  11.013
48961SOL     OW48656   1.522   5.633   9.338
48961SOL    HW148657   1.510   5.540   9.317
48961SOL    HW248658   1.617   5.644   9.342
48962SOL     OW48659   5.514   1.116   0.352
48962SOL    HW148660   5.602   1.084   0.371
48962SOL    HW248661   5.527   1.204   0.318
48963SOL     OW48662   7.024   7.846  12.352
48963SOL    HW148663   7.100   7.905  12.359
48963SOL    HW248664   7.063   7.760  12.331
48964SOL     OW48665  13.967   3.509   6.388
48964SOL    HW148666  14.019   3.432   6.412
48964SOL    HW248667  13.974   3.514   6.293
48965SOL     OW48668   6.793   0.719  11.083
48965SOL    HW148669   6.884   0.742  11.104
48965SOL    HW248670   6.796   0.626  11.063
48966SOL     OW48671   8.531  12.174  11.444
48966SOL    HW148672   8.514  12.121  11.366
48966SOL    HW248673   8.447  12.179  11.489
48967SOL     OW48674  14.476   9.304   9.300
48967SOL    HW148675  14.531   9.257   9.363
48967SOL    HW248676  14.535   9.323   9.227
48968SOL     OW48677   3.995   1.223   8.494
48968SOL    HW148678   3.948   1.220   8.411
48968SOL    HW248679   4.020   1.132   8.511
48969SOL     OW48680   0.428   0.604  12.110
48969SOL    HW148681   0.336   0.605  12.082
48969SOL    HW248682   0.437   0.520  12.156
48970SOL     OW48683   4.452  13.103   8.972
48970SOL    HW148684   4.483  13.055   9.048
48970SOL    HW248685   4.516  13.082   8.903
48971SOL     OW48686   1.062   1.996   4.739
48971SOL    HW148687   1.134   1.942   4.707
48971SOL    HW248688   1.056   2.068   4.676
48972SOL     OW48689   4.221   1.712   1.962
48972SOL    HW148690   4.193   1.761   1.885
48972SOL    HW248691   4.206   1.621   1.939
48973SOL     OW48692   6.011   1.199   8.132
48973SOL    HW148693   6.002   1.249   8.052
48973SOL    HW248694   6.067   1.125   8.108
48974SOL     OW48695   4.359   1.420   2.204
48974SOL    HW148696   4.307   1.374   2.139
48974SOL    HW248697   4.356   1.364   2.282
48975SOL     OW48698   7.835  14.857   3.131
48975SOL    HW148699   7.749   0.019   3.117
48975SOL    HW248700   7.820  14.763   3.121
48976SOL     OW48701  14.351  10.947  11.188
48976SOL    HW148702  14.352  10.908  11.101
48976SOL    HW248703  14.371  11.040  11.174
48977SOL     OW48704  12.895   3.098  10.442
48977SOL    HW148705  12.907   3.119  10.349
48977SOL    HW248706  12.895   3.182  10.486
48978SOL     OW48707  10.579   9.492   8.449
48978SOL    HW148708  10.651   9.431   8.464
48978SOL    HW248709  10.502   9.449   8.483
48979SOL     OW48710   0.085   0.537   3.517
48979SOL    HW148711  14.872   0.564   3.512
48979SOL    HW248712   0.084   0.445   3.491
48980SOL     OW48713  13.978  12.093   5.084
48980SOL    HW148714  13.896  12.044   5.079
48980SOL    HW248715  14.033  12.042   5.142
48981SOL     OW48716  13.280   1.869  13.589
48981SOL    HW148717  13.187   1.890  13.577
48981SOL    HW248718  13.300   1.898  13.677
48982SOL     OW48719   6.201   6.466   4.952
48982SOL    HW148720   6.204   6.556   4.919
48982SOL    HW248721   6.175   6.414   4.876
48983SOL     OW48722  11.273   5.013  13.134
48983SOL    HW148723  11.179   5.032  13.127
48983SOL    HW248724  11.279   4.918  13.125
48984SOL     OW48725  12.860   9.112   6.205
48984SOL    HW148726  12.858   9.016   6.195
48984SOL    HW248727  12.903   9.144   6.126
48985SOL     OW48728   9.887   3.267  14.142
48985SOL    HW148729   9.814   3.243  14.199
48985SOL    HW248730   9.846   3.287  14.058
48986SOL     OW48731   5.401   1.343   0.701
48986SOL    HW148732   5.326   1.391   0.666
48986SOL    HW248733   5.382   1.334   0.794
48987SOL     OW48734   9.167  14.826  11.257
48987SOL    HW148735   9.071  14.835  11.263
48987SOL    HW248736   9.181  14.788  11.170
48988SOL     OW48737   7.650   8.016   0.022
48988SOL    HW148738   7.691   8.033  14.816
48988SOL    HW248739   7.581   8.083   0.030
48989SOL     OW48740   5.276  14.376   3.444
48989SOL    HW148741   5.250  14.428   3.369
48989SOL    HW248742   5.243  14.424   3.520
48990SOL     OW48743  13.009  13.021   6.178
48990SOL    HW148744  13.029  12.955   6.112
48990SOL    HW248745  12.950  12.977   6.239
48991SOL     OW48746  10.485   1.372  12.826
48991SOL    HW148747  10.409   1.430  12.815
48991SOL    HW248748  10.532   1.407  12.901
48992SOL     OW48749   5.142   0.481   0.294
48992SOL    HW148750   5.056   0.441   0.286
48992SOL    HW248751   5.178   0.444   0.375
48993SOL     OW48752   1.699  12.275  12.140
48993SOL    HW148753   1.727  12.264  12.231
48993SOL    HW248754   1.767  12.328  12.100
48994SOL     OW48755   4.367   9.351  11.574
48994SOL    HW148756   4.291   9.343  11.631
48994SOL    HW248757   4.371   9.444  11.551
48995SOL     OW48758  14.537   6.960   8.079
48995SOL    HW148759  14.525   6.875   8.120
48995SOL    HW248760  14.569   6.939   7.991
48996SOL     OW48761  14.125   6.354   2.479
48996SOL    HW148762  14.081   6.438   2.490
48996SOL    HW248763  14.148   6.327   2.568
48997SOL     OW48764   9.344   9.782  12.787
48997SOL    HW148765   9.250   9.796  12.779
48997SOL    HW248766   9.373   9.762  12.699
48998SOL     OW48767   1.492   7.358  10.359
48998SOL    HW148768   1.426   7.412  10.401
48998SOL    HW248769   1.447   7.276  10.339
48999SOL     OW48770   8.572  13.307   3.302
48999SOL    HW148771   8.655  13.280   3.339
48999SOL    HW248772   8.513  13.233   3.318
49000SOL     OW48773   2.193   6.934   1.547
49000SOL    HW148774   2.137   6.913   1.622
49000SOL    HW248775   2.133   6.933   1.472
49001SOL     OW48776   2.293  12.180   2.617
49001SOL    HW148777   2.242  12.240   2.562
49001SOL    HW248778   2.251  12.095   2.605
49002SOL     OW48779   8.689   3.888   7.619
49002SOL    HW148780   8.695   3.965   7.676
49002SOL    HW248781   8.696   3.813   7.678
49003SOL     OW48782   6.104  12.868   5.077
49003SOL    HW148783   6.113  12.781   5.037
49003SOL    HW248784   6.032  12.909   5.029
49004SOL     OW48785   8.629   2.150  11.857
49004SOL    HW148786   8.689   2.146  11.782
49004SOL    HW248787   8.599   2.059  11.868
49005SOL     OW48788  12.508  14.182  13.907
49005SOL    HW148789  12.485  14.210  13.996
49005SOL    HW248790  12.469  14.095  13.900
49006SOL     OW48791  12.896  13.425  10.168
49006SOL    HW148792  12.956  13.483  10.213
49006SOL    HW248793  12.950  13.350  10.141
49007SOL     OW48794  12.912   8.297   5.011
49007SOL    HW148795  12.832   8.333   5.048
49007SOL    HW248796  12.974   8.370   5.012
49008SOL     OW48797   3.411   2.043   7.165
49008SOL    HW148798   3.325   2.071   7.197
49008SOL    HW248799   3.394   1.999   7.082
49009SOL     OW48800   4.883  13.481   0.527
49009SOL    HW148801   4.830  13.486   0.607
49009SOL    HW248802   4.840  13.414   0.474
49010SOL     OW48803   7.493   8.688   6.464
49010SOL    HW148804   7.415   8.662   6.513
49010SOL    HW248805   7.566   8.646   6.510
49011SOL     OW48806   6.383  14.234   4.004
49011SOL    HW148807   6.337  14.186   4.073
49011SOL    HW248808   6.323  14.232   3.929
49012SOL     OW48809   7.245   8.741   8.938
49012SOL    HW148810   7.291   8.753   9.022
49012SOL    HW248811   7.153   8.730   8.963
49013SOL     OW48812   3.795   9.602   0.339
49013SOL    HW148813   3.797   9.617   0.245
49013SOL    HW248814   3.883   9.570   0.360
49014SOL     OW48815   1.471  14.332  14.300
49014SOL    HW148816   1.560  14.349  14.270
49014SOL    HW248817   1.418  14.336  14.221
49015SOL     OW48818   3.206  13.684   6.854
49015SOL    HW148819   3.114  13.710   6.862
49015SOL    HW248820   3.202  13.591   6.829
49016SOL     OW48821   4.113   8.598  12.797
49016SOL    HW148822   4.186   8.545  12.763
49016SOL    HW248823   4.035   8.555  12.763
49017SOL     OW48824  11.884   4.484   2.030
49017SOL    HW148825  11.848   4.425   2.096
49017SOL    HW248826  11.807   4.525   1.990
49018SOL     OW48827  11.025  13.231   1.294
49018SOL    HW148828  11.118  13.212   1.307
49018SOL    HW248829  11.008  13.211   1.202
49019SOL     OW48830  13.836   7.751   3.903
49019SOL    HW148831  13.775   7.689   3.862
49019SOL    HW248832  13.792   7.779   3.983
49020SOL     OW48833   6.035   4.885   7.755
49020SOL    HW148834   6.055   4.801   7.796
49020SOL    HW248835   5.943   4.900   7.774
49021SOL     OW48836   5.163  11.270   2.755
49021SOL    HW148837   5.155  11.192   2.809
49021SOL    HW248838   5.256  11.278   2.736
49022SOL     OW48839  10.757   0.732   7.824
49022SOL    HW148840  10.770   0.825   7.845
49022SOL    HW248841  10.717   0.695   7.902
49023SOL     OW48842   5.238  14.402   9.129
49023SOL    HW148843   5.284  14.477   9.091
49023SOL    HW248844   5.162  14.440   9.172
49024SOL     OW48845   8.066   0.498   6.250
49024SOL    HW148846   8.086   0.555   6.324
49024SOL    HW248847   8.055   0.412   6.288
49025SOL     OW48848   6.024   5.801  13.178
49025SOL    HW148849   5.932   5.823  13.161
49025SOL    HW248850   6.070   5.885  13.172
49026SOL     OW48851  10.500   5.813   3.801
49026SOL    HW148852  10.482   5.731   3.756
49026SOL    HW248853  10.596   5.819   3.801
49027SOL     OW48854   4.678   0.452   3.516
49027SOL    HW148855   4.746   0.418   3.458
49027SOL    HW248856   4.656   0.379   3.573
49028SOL     OW48857  11.574  12.745   6.530
49028SOL    HW148858  11.623  12.827   6.520
49028SOL    HW248859  11.483  12.772   6.543
49029SOL     OW48860  11.068   8.491  12.301
49029SOL    HW148861  11.055   8.569  12.246
49029SOL    HW248862  11.161   8.473  12.294
49030SOL     OW48863   6.352   0.108   5.561
49030SOL    HW148864   6.370   0.018   5.587
49030SOL    HW248865   6.283   0.137   5.622
49031SOL     OW48866   0.290   3.071   3.644
49031SOL    HW148867   0.217   3.057   3.584
49031SOL    HW248868   0.365   3.032   3.600
49032SOL     OW48869   0.402   0.203   0.681
49032SOL    HW148870   0.317   0.210   0.639
49032SOL    HW248871   0.450   0.139   0.628
49033SOL     OW48872   6.606   4.453  12.596
49033SOL    HW148873   6.593   4.363  12.567
49033SOL    HW248874   6.696   4.474  12.573
49034SOL     OW48875   2.355   3.711   6.267
49034SOL    HW148876   2.297   3.769   6.217
49034SOL    HW248877   2.326   3.622   6.244
49035SOL     OW48878   1.859  14.190   6.275
49035SOL    HW148879   1.764  14.192   6.277
49035SOL    HW248880   1.881  14.126   6.207
49036SOL     OW48881   1.594  14.196   9.426
49036SOL    HW148882   1.676  14.150   9.410
49036SOL    HW248883   1.529  14.150   9.372
49037SOL     OW48884  13.168   9.728  11.992
49037SOL    HW148885  13.221   9.710  12.070
49037SOL    HW248886  13.078   9.711  12.021
49038SOL     OW48887   5.783   6.408   1.243
49038SOL    HW148888   5.809   6.362   1.163
49038SOL    HW248889   5.804   6.346   1.314
49039SOL     OW48890   9.803   1.276   4.796
49039SOL    HW148891   9.789   1.196   4.745
49039SOL    HW248892   9.897   1.279   4.811
49040SOL     OW48893   0.833   5.128   9.430
49040SOL    HW148894   0.870   5.182   9.500
49040SOL    HW248895   0.759   5.082   9.470
49041SOL     OW48896   3.547   7.098   9.790
49041SOL    HW148897   3.590   7.142   9.863
49041SOL    HW248898   3.619   7.072   9.732
49042SOL     OW48899   0.961   0.040   3.337
49042SOL    HW148900   0.930   0.029   3.427
49042SOL    HW248901   0.893   0.093   3.295
49043SOL     OW48902  13.254   6.425   5.938
49043SOL    HW148903  13.344   6.447   5.918
49043SOL    HW248904  13.219   6.504   5.981
49044SOL     OW48905  13.174  13.135  11.688
49044SOL    HW148906  13.237  13.071  11.654
49044SOL    HW248907  13.228  13.207  11.720
49045SOL     OW48908   1.218   5.208  10.271
49045SOL    HW148909   1.269   5.147  10.218
49045SOL    HW248910   1.268   5.290  10.269
49046SOL     OW48911   6.546   7.198  12.732
49046SOL    HW148912   6.604   7.221  12.660
49046SOL    HW248913   6.534   7.279  12.781
49047SOL     OW48914  13.601   1.382   0.462
49047SOL    HW148915  13.604   1.475   0.486
49047SOL    HW248916  13.509   1.364   0.446
49048SOL     OW48917   9.089   1.638  12.532
49048SOL    HW148918   9.010   1.630  12.585
49048SOL    HW248919   9.059   1.674  12.448
49049SOL     OW48920   6.393  14.721   9.086
49049SOL    HW148921   6.473  14.746   9.133
49049SOL    HW248922   6.424  14.691   9.000
49050SOL     OW48923   4.096   0.816  12.230
49050SOL    HW148924   4.048   0.882  12.180
49050SOL    HW248925   4.029   0.753  12.256
49051SOL     OW48926  13.619   7.588  13.395
49051SOL    HW148927  13.649   7.509  13.441
49051SOL    HW248928  13.607   7.559  13.305
49052SOL     OW48929   1.960   2.069  13.520
49052SOL    HW148930   2.049   2.060  13.554
49052SOL    HW248931   1.952   1.999  13.455
49053SOL     OW48932  13.601   3.524   4.402
49053SOL    HW148933  13.684   3.486   4.431
49053SOL    HW248934  13.554   3.545   4.482
49054SOL     OW48935   4.022   9.762  10.145
49054SOL    HW148936   3.978   9.677  10.149
49054SOL    HW248937   4.107   9.747  10.186
49055SOL     OW48938  12.561   5.064   7.160
49055SOL    HW148939  12.527   5.118   7.089
49055SOL    HW248940  12.633   5.114   7.196
49056SOL     OW48941  13.486  10.184   8.869
49056SOL    HW148942  13.521  10.238   8.797
49056SOL    HW248943  13.394  10.207   8.874
49057SOL     OW48944   9.374   9.120  11.511
49057SOL    HW148945   9.352   9.038  11.466
49057SOL    HW248946   9.400   9.093  11.599
49058SOL     OW48947   4.763  13.009   7.038
49058SOL    HW148948   4.720  12.928   7.012
49058SOL    HW248949   4.780  12.998   7.132
49059SOL     OW48950   6.765  12.080  14.357
49059SOL    HW148951   6.685  12.035  14.384
49059SOL    HW248952   6.785  12.045  14.271
49060SOL     OW48953   4.095   1.619   3.378
49060SOL    HW148954   4.134   1.547   3.328
49060SOL    HW248955   4.067   1.682   3.312
49061SOL     OW48956  13.780   2.567   9.849
49061SOL    HW148957  13.798   2.662   9.850
49061SOL    HW248958  13.854   2.529   9.896
49062SOL     OW48959   7.165   6.073  13.993
49062SOL    HW148960   7.135   6.054  13.904
49062SOL    HW248961   7.096   6.038  14.050
49063SOL     OW48962  10.029   6.711  14.860
49063SOL    HW148963  10.045   6.806  14.867
49063SOL    HW248964  10.055   6.689  14.771
49064SOL     OW48965   1.706   0.081   2.063
49064SOL    HW148966   1.716  14.873   2.022
49064SOL    HW248967   1.703   0.063   2.157
49065SOL     OW48968   7.510   7.390  14.248
49065SOL    HW148969   7.459   7.462  14.211
49065SOL    HW248970   7.556   7.428  14.323
49066SOL     OW48971   7.254   9.453   5.141
49066SOL    HW148972   7.340   9.493   5.151
49066SOL    HW248973   7.238   9.454   5.046
49067SOL     OW48974   9.508   1.863   5.336
49067SOL    HW148975   9.521   1.914   5.255
49067SOL    HW248976   9.587   1.878   5.387
49068SOL     OW48977  13.659   4.643  12.017
49068SOL    HW148978  13.578   4.640  11.967
49068SOL    HW248979  13.655   4.567  12.075
49069SOL     OW48980  14.812   8.939   4.163
49069SOL    HW148981   0.011   8.925   4.217
49069SOL    HW248982  14.738   8.916   4.220
49070SOL     OW48983   6.083  14.607   2.698
49070SOL    HW148984   6.169  14.609   2.739
49070SOL    HW248985   6.078  14.689   2.649
49071SOL     OW48986   3.024  11.682   8.246
49071SOL    HW148987   2.993  11.738   8.318
49071SOL    HW248988   2.960  11.611   8.242
49072SOL     OW48989   9.557   1.508   7.882
49072SOL    HW148990   9.522   1.462   7.958
49072SOL    HW248991   9.587   1.439   7.823
49073SOL     OW48992  10.452   3.700   1.698
49073SOL    HW148993  10.361   3.680   1.718
49073SOL    HW248994  10.497   3.615   1.703
49074SOL     OW48995  14.378   9.541   5.478
49074SOL    HW148996  14.398   9.457   5.518
49074SOL    HW248997  14.463   9.577   5.453
49075SOL     OW48998   2.247  11.464   0.931
49075SOL    HW148999   2.263  11.518   0.853
49075SOL    HW249000   2.152  11.463   0.940
49076SOL     OW49001  14.217   4.638  10.495
49076SOL    HW149002  14.266   4.590  10.429
49076SOL    HW249003  14.283   4.661  10.561
49077SOL     OW49004  12.923   7.321  12.406
49077SOL    HW149005  12.928   7.325  12.502
49077SOL    HW249006  12.831   7.300  12.388
49078SOL     OW49007  14.864   5.261  14.073
49078SOL    HW149008   0.012   5.176  14.107
49078SOL    HW249009   0.055   5.321  14.102
49079SOL     OW49010   1.685   6.034   0.162
49079SOL    HW149011   1.726   5.951   0.140
49079SOL    HW249012   1.659   6.025   0.254
49080SOL     OW49013  14.782  11.727  10.775
49080SOL    HW149014  14.812  11.689  10.857
49080SOL    HW249015  14.853  11.785  10.747
49081SOL     OW49016   4.108   8.450   2.775
49081SOL    HW149017   4.054   8.510   2.724
49081SOL    HW249018   4.198   8.474   2.752
49082SOL     OW49019   8.978   0.322   5.487
49082SOL    HW149020   8.934   0.403   5.462
49082SOL    HW249021   8.926   0.289   5.561
49083SOL     OW49022   5.594   4.796  10.197
49083SOL    HW149023   5.550   4.845  10.128
49083SOL    HW249024   5.644   4.728  10.151
49084SOL     OW49025   7.314  13.365   0.126
49084SOL    HW149026   7.242  13.379   0.187
49084SOL    HW249027   7.297  13.424   0.053
49085SOL     OW49028   3.211   6.524   2.634
49085SOL    HW149029   3.278   6.568   2.685
49085SOL    HW249030   3.234   6.542   2.543
49086SOL     OW49031  12.160   6.468  14.018
49086SOL    HW149032  12.252   6.443  14.012
49086SOL    HW249033  12.161   6.550  14.067
49087SOL     OW49034  12.973   2.446  12.520
49087SOL    HW149035  12.940   2.495  12.595
49087SOL    HW249036  12.919   2.368  12.516
49088SOL     OW49037  14.823   3.862   5.692
49088SOL    HW149038   0.005   3.911   5.747
49088SOL    HW249039  14.876   3.837   5.616
49089SOL     OW49040   4.571   4.714  13.276
49089SOL    HW149041   4.561   4.619  13.273
49089SOL    HW249042   4.484   4.747  13.254
49090SOL     OW49043   2.862  14.078   6.892
49090SOL    HW149044   2.770  14.096   6.911
49090SOL    HW249045   2.878  14.118   6.807
49091SOL     OW49046   5.209   2.455   2.924
49091SOL    HW149047   5.240   2.540   2.955
49091SOL    HW249048   5.123   2.473   2.886
49092SOL     OW49049  13.865   9.793  11.650
49092SOL    HW149050  13.786   9.739  11.656
49092SOL    HW249051  13.866   9.824  11.559
49093SOL     OW49052   8.698  13.786   1.341
49093SOL    HW149053   8.701  13.716   1.276
49093SOL    HW249054   8.618  13.835   1.321
49094SOL     OW49055  11.259   9.161   6.159
49094SOL    HW149056  11.323   9.223   6.122
49094SOL    HW249057  11.175   9.206   6.152
49095SOL     OW49058   0.593   6.640   9.286
49095SOL    HW149059   0.561   6.728   9.304
49095SOL    HW249060   0.532   6.582   9.330
49096SOL     OW49061   8.348   5.023   3.204
49096SOL    HW149062   8.271   4.989   3.250
49096SOL    HW249063   8.389   5.082   3.266
49097SOL     OW49064  10.736   3.826   5.847
49097SOL    HW149065  10.656   3.874   5.824
49097SOL    HW249066  10.742   3.757   5.781
49098SOL     OW49067   7.133   2.418  12.576
49098SOL    HW149068   7.149   2.370  12.657
49098SOL    HW249069   7.052   2.381  12.540
49099SOL     OW49070   3.955   4.638   1.512
49099SOL    HW149071   4.048   4.641   1.493
49099SOL    HW249072   3.947   4.584   1.590
49100SOL     OW49073   8.446   1.783  14.812
49100SOL    HW149074   8.395   1.787   0.015
49100SOL    HW249075   8.469   1.691  14.803
49101SOL     OW49076  11.241  11.252   6.154
49101SOL    HW149077  11.212  11.296   6.075
49101SOL    HW249078  11.206  11.163   6.146
49102SOL     OW49079  14.854   1.143  10.573
49102SOL    HW149080  14.859   1.101  10.487
49102SOL    HW249081   0.067   1.163  10.595
49103SOL     OW49082   3.944   3.529   0.610
49103SOL    HW149083   4.018   3.528   0.671
49103SOL    HW249084   3.977   3.486   0.531
49104SOL     OW49085  14.205  12.803  10.757
49104SOL    HW149086  14.151  12.863  10.808
49104SOL    HW249087  14.157  12.790  10.675
49105SOL     OW49088   6.621  13.337   2.296
49105SOL    HW149089   6.608  13.305   2.207
49105SOL    HW249090   6.679  13.412   2.286
49106SOL     OW49091   9.165   2.381   2.465
49106SOL    HW149092   9.191   2.369   2.557
49106SOL    HW249093   9.237   2.430   2.426
49107SOL     OW49094   8.455   4.627   9.473
49107SOL    HW149095   8.540   4.585   9.465
49107SOL    HW249096   8.443   4.674   9.390
49108SOL     OW49097  13.271   8.177   1.654
49108SOL    HW149098  13.230   8.225   1.726
49108SOL    HW249099  13.347   8.230   1.630
49109SOL     OW49100   5.695  13.824   2.252
49109SOL    HW149101   5.741  13.906   2.269
49109SOL    HW249102   5.697  13.778   2.336
49110SOL     OW49103  11.839   4.626   3.395
49110SOL    HW149104  11.771   4.569   3.432
49110SOL    HW249105  11.837   4.607   3.302
49111SOL     OW49106   8.850   4.640  14.560
49111SOL    HW149107   8.827   4.600  14.644
49111SOL    HW249108   8.772   4.691  14.537
49112SOL     OW49109   0.371  12.671   4.392
49112SOL    HW149110   0.456  12.632   4.372
49112SOL    HW249111   0.387  12.724   4.470
49113SOL     OW49112  12.652   4.650   3.212
49113SOL    HW149113  12.637   4.701   3.292
49113SOL    HW249114  12.747   4.640   3.208
49114SOL     OW49115   3.390   2.774   1.904
49114SOL    HW149116   3.322   2.810   1.848
49114SOL    HW249117   3.398   2.682   1.877
49115SOL     OW49118  11.197   7.515   3.879
49115SOL    HW149119  11.276   7.567   3.863
49115SOL    HW249120  11.155   7.509   3.793
49116SOL     OW49121  14.068   0.403  10.716
49116SOL    HW149122  13.975   0.387  10.732
49116SOL    HW249123  14.103   0.431  10.800
49117SOL     OW49124   0.579  13.807  13.576
49117SOL    HW149125   0.673  13.827  13.568
49117SOL    HW249126   0.549  13.864  13.647
49118SOL     OW49127  11.333  12.293   0.191
49118SOL    HW149128  11.332  12.307   0.096
49118SOL    HW249129  11.401  12.352   0.223
49119SOL     OW49130   4.382   9.775   2.819
49119SOL    HW149131   4.327   9.751   2.894
49119SOL    HW249132   4.471   9.775   2.854
49120SOL     OW49133  12.134  11.479   5.676
49120SOL    HW149134  12.045  11.479   5.712
49120SOL    HW249135  12.189  11.508   5.748
49121SOL     OW49136   9.786  11.311   9.860
49121SOL    HW149137   9.767  11.402   9.840
49121SOL    HW249138   9.881  11.309   9.877
49122SOL     OW49139   7.790   2.470  11.824
49122SOL    HW149140   7.713   2.524  11.807
49122SOL    HW249141   7.765   2.382  11.796
49123SOL     OW49142   4.084   6.895  10.537
49123SOL    HW149143   4.104   6.803  10.518
49123SOL    HW249144   4.166   6.941  10.517
49124SOL     OW49145   3.970   1.542   6.251
49124SOL    HW149146   4.022   1.537   6.170
49124SOL    HW249147   4.035   1.542   6.321
49125SOL     OW49148   3.501   8.262  14.758
49125SOL    HW149149   3.518   8.200  14.688
49125SOL    HW249150   3.552   8.339  14.735
49126SOL     OW49151   0.809  12.635   4.125
49126SOL    HW149152   0.826  12.559   4.069
49126SOL    HW249153   0.847  12.708   4.076
49127SOL     OW49154   5.284   7.125   7.280
49127SOL    HW149155   5.290   7.030   7.287
49127SOL    HW249156   5.327   7.147   7.198
49128SOL     OW49157   8.364  14.742  11.951
49128SOL    HW149158   8.349  14.825  11.905
49128SOL    HW249159   8.459  14.735  11.958
49129SOL     OW49160  11.563   8.827   5.982
49129SOL    HW149161  11.647   8.788   5.958
49129SOL    HW249162  11.520   8.844   5.898
49130SOL     OW49163   4.135  11.450   4.197
49130SOL    HW149164   4.195  11.389   4.154
49130SOL    HW249165   4.123  11.521   4.134
49131SOL     OW49166  11.926   4.048  12.131
49131SOL    HW149167  12.009   4.050  12.083
49131SOL    HW249168  11.944   4.095  12.212
49132SOL     OW49169   4.849  14.495  12.020
49132SOL    HW149170   4.829  14.506  11.927
49132SOL    HW249171   4.790  14.425  12.049
49133SOL     OW49172   0.209  14.671   7.851
49133SOL    HW149173   0.132  14.661   7.907
49133SOL    HW249174   0.247  14.583   7.846
49134SOL     OW49175  12.294   2.136  13.693
49134SOL    HW149176  12.259   2.063  13.742
49134SOL    HW249177  12.366   2.170  13.747
49135SOL     OW49178  13.586  10.839   5.119
49135SOL    HW149179  13.628  10.904   5.177
49135SOL    HW249180  13.503  10.879   5.094
49136SOL     OW49181  10.187   5.178   5.006
49136SOL    HW149182  10.229   5.176   4.919
49136SOL    HW249183  10.189   5.270   5.031
49137SOL     OW49184   0.097   6.059   4.252
49137SOL    HW149185   0.113   6.080   4.161
49137SOL    HW249186   0.029   5.992   4.250
49138SOL     OW49187  14.828   1.570  13.946
49138SOL    HW149188  14.749   1.572  13.892
49138SOL    HW249189  14.859   1.480  13.940
49139SOL     OW49190   8.352   9.233   9.268
49139SOL    HW149191   8.341   9.224   9.174
49139SOL    HW249192   8.410   9.308   9.279
49140SOL     OW49193   9.316   9.945   6.319
49140SOL    HW149194   9.273   9.881   6.262
49140SOL    HW249195   9.391   9.976   6.268
49141SOL     OW49196  13.454   9.647  12.869
49141SOL    HW149197  13.446   9.609  12.781
49141SOL    HW249198  13.365   9.675  12.891
49142SOL     OW49199   9.965   5.845  14.650
49142SOL    HW149200   9.872   5.844  14.629
49142SOL    HW249201   9.985   5.938  14.667
49143SOL     OW49202  13.735   1.110   7.725
49143SOL    HW149203  13.717   1.194   7.768
49143SOL    HW249204  13.731   1.046   7.795
49144SOL     OW49205   8.697  12.119   1.950
49144SOL    HW149206   8.720  12.191   1.891
49144SOL    HW249207   8.745  12.139   2.031
49145SOL     OW49208  10.832   8.723   8.634
49145SOL    HW149209  10.745   8.699   8.601
49145SOL    HW249210  10.862   8.793   8.576
49146SOL     OW49211   5.039   3.097  14.108
49146SOL    HW149212   5.010   3.036  14.041
49146SOL    HW249213   4.964   3.105  14.168
49147SOL     OW49214   3.606   6.811   1.600
49147SOL    HW149215   3.567   6.746   1.542
49147SOL    HW249216   3.533   6.868   1.626
49148SOL     OW49217  12.145   6.967  12.067
49148SOL    HW149218  12.107   6.910  12.134
49148SOL    HW249219  12.070   7.017  12.034
49149SOL     OW49220   7.463  11.992   4.376
49149SOL    HW149221   7.374  11.967   4.402
49149SOL    HW249222   7.484  12.067   4.431
49150SOL     OW49223   1.481   6.243   8.185
49150SOL    HW149224   1.480   6.317   8.246
49150SOL    HW249225   1.506   6.168   8.238
49151SOL     OW49226   0.641  13.097   0.901
49151SOL    HW149227   0.640  13.120   0.994
49151SOL    HW249228   0.608  13.174   0.856
49152SOL     OW49229   8.096   6.076   1.263
49152SOL    HW149230   8.096   6.169   1.284
49152SOL    HW249231   8.029   6.066   1.196
49153SOL     OW49232  10.304   6.708  11.659
49153SOL    HW149233  10.296   6.735  11.567
49153SOL    HW249234  10.369   6.768  11.695
49154SOL     OW49235   2.276   2.448   7.663
49154SOL    HW149236   2.354   2.396   7.686
49154SOL    HW249237   2.253   2.493   7.744
49155SOL     OW49238   8.586  12.201  11.884
49155SOL    HW149239   8.646  12.130  11.865
49155SOL    HW249240   8.610  12.271  11.823
49156SOL     OW49241   8.574   0.509  14.072
49156SOL    HW149242   8.482   0.490  14.089
49156SOL    HW249243   8.583   0.602  14.090
49157SOL     OW49244   0.990  10.289   2.109
49157SOL    HW149245   1.071  10.241   2.126
49157SOL    HW249246   0.955  10.309   2.195
49158SOL     OW49247   6.868   8.597   5.618
49158SOL    HW149248   6.941   8.546   5.583
49158SOL    HW249249   6.863   8.674   5.561
49159SOL     OW49250   2.506   7.768   1.605
49159SOL    HW149251   2.438   7.821   1.564
49159SOL    HW249252   2.458   7.702   1.655
49160SOL     OW49253   6.763   5.110   5.837
49160SOL    HW149254   6.830   5.174   5.811
49160SOL    HW249255   6.756   5.051   5.762
49161SOL     OW49256   7.944  10.332   2.732
49161SOL    HW149257   7.989  10.283   2.801
49161SOL    HW249258   7.920  10.266   2.668
49162SOL     OW49259   2.068  11.811   7.663
49162SOL    HW149260   2.063  11.812   7.568
49162SOL    HW249261   1.977  11.814   7.692
49163SOL     OW49262   9.660   2.447   7.998
49163SOL    HW149263   9.753   2.457   7.979
49163SOL    HW249264   9.650   2.356   8.025
49164SOL     OW49265   7.871   8.999  12.122
49164SOL    HW149266   7.803   9.059  12.153
49164SOL    HW249267   7.832   8.955  12.047
49165SOL     OW49268  10.391   5.774  11.393
49165SOL    HW149269  10.328   5.702  11.398
49165SOL    HW249270  10.356   5.840  11.453
49166SOL     OW49271   2.516   1.656  12.651
49166SOL    HW149272   2.534   1.562  12.640
49166SOL    HW249273   2.430   1.668  12.611
49167SOL     OW49274  14.489   9.799   8.847
49167SOL    HW149275  14.479   9.875   8.790
49167SOL    HW249276  14.400   9.773   8.869
49168SOL     OW49277  14.305   3.452   4.063
49168SOL    HW149278  14.216   3.465   4.030
49168SOL    HW249279  14.349   3.535   4.048
49169SOL     OW49280   3.614  13.574  13.022
49169SOL    HW149281   3.568  13.632  13.082
49169SOL    HW249282   3.674  13.524  13.077
49170SOL     OW49283   1.699   0.089  13.300
49170SOL    HW149284   1.731   0.032  13.370
49170SOL    HW249285   1.677   0.171  13.343
49171SOL     OW49286   5.118   2.350   8.030
49171SOL    HW149287   5.095   2.257   8.034
49171SOL    HW249288   5.041   2.393   7.992
49172SOL     OW49289   0.880   9.672   8.303
49172SOL    HW149290   0.799   9.651   8.350
49172SOL    HW249291   0.934   9.717   8.369
49173SOL     OW49292   3.842   6.613   4.988
49173SOL    HW149293   3.851   6.538   5.047
49173SOL    HW249294   3.780   6.583   4.921
49174SOL     OW49295  14.344   7.757   1.481
49174SOL    HW149296  14.300   7.750   1.566
49174SOL    HW249297  14.311   7.683   1.431
49175SOL     OW49298   0.874  10.148   9.357
49175SOL    HW149299   0.838  10.219   9.410
49175SOL    HW249300   0.947  10.188   9.310
49176SOL     OW49301   2.179  11.422   8.590
49176SOL    HW149302   2.103  11.468   8.625
49176SOL    HW249303   2.149  11.331   8.579
49177SOL     OW49304  11.146   1.483   0.368
49177SOL    HW149305  11.199   1.443   0.437
49177SOL    HW249306  11.150   1.577   0.386
49178SOL     OW49307  12.161   7.456   3.673
49178SOL    HW149308  12.088   7.395   3.681
49178SOL    HW249309  12.219   7.415   3.609
49179SOL     OW49310   0.862   9.631  10.098
49179SOL    HW149311   0.927   9.584  10.150
49179SOL    HW249312   0.803   9.669  10.162
49180SOL     OW49313   3.575   0.070  11.057
49180SOL    HW149314   3.521  14.870  11.042
49180SOL    HW249315   3.633   0.074  10.981
49181SOL     OW49316   2.872  12.734   9.193
49181SOL    HW149317   2.933  12.701   9.127
49181SOL    HW249318   2.803  12.778   9.143
49182SOL     OW49319  13.771   2.481   4.505
49182SOL    HW149320  13.682   2.516   4.504
49182SOL    HW249321  13.789   2.458   4.414
49183SOL     OW49322   9.667   2.136   8.640
49183SOL    HW149323   9.700   2.139   8.730
49183SOL    HW249324   9.665   2.227   8.612
49184SOL     OW49325   5.657   1.273   2.088
49184SOL    HW149326   5.709   1.207   2.042
49184SOL    HW249327   5.714   1.304   2.159
49185SOL     OW49328  14.567  10.464  12.869
49185SOL    HW149329  14.550  10.448  12.961
49185SOL    HW249330  14.603  10.553  12.866
49186SOL     OW49331   9.675  11.595   2.345
49186SOL    HW149332   9.657  11.657   2.274
49186SOL    HW249333   9.669  11.509   2.304
49187SOL     OW49334  12.318  10.147   5.841
49187SOL    HW149335  12.396  10.180   5.885
49187SOL    HW249336  12.263  10.224   5.828
49188SOL     OW49337  11.896   1.967   1.621
49188SOL    HW149338  11.820   1.955   1.564
49188SOL    HW249339  11.872   2.043   1.676
49189SOL     OW49340   3.346   4.218   5.854
49189SOL    HW149341   3.382   4.178   5.933
49189SOL    HW249342   3.418   4.271   5.819
49190SOL     OW49343  13.210   9.290  13.387
49190SOL    HW149344  13.288   9.312  13.334
49190SOL    HW249345  13.224   9.336  13.470
49191SOL     OW49346   3.387   5.063  12.329
49191SOL    HW149347   3.352   5.045  12.416
49191SOL    HW249348   3.353   4.991  12.275
49192SOL     OW49349   6.791   1.854   6.055
49192SOL    HW149350   6.857   1.921   6.072
49192SOL    HW249351   6.709   1.892   6.087
49193SOL     OW49352   2.108   6.051   0.079
49193SOL    HW149353   2.023   6.074   0.042
49193SOL    HW249354   2.106   5.955   0.087
49194SOL     OW49355   4.435   9.802   7.211
49194SOL    HW149356   4.374   9.729   7.204
49194SOL    HW249357   4.482   9.788   7.293
49195SOL     OW49358   9.570   5.409   8.182
49195SOL    HW149359   9.530   5.339   8.131
49195SOL    HW249360   9.664   5.402   8.164
49196SOL     OW49361  11.749   1.262   2.354
49196SOL    HW149362  11.766   1.242   2.446
49196SOL    HW249363  11.761   1.179   2.308
49197SOL     OW49364   0.146  10.545   1.560
49197SOL    HW149365   0.058  10.525   1.591
49197SOL    HW249366   0.193  10.462   1.566
49198SOL     OW49367   2.124  12.565  13.527
49198SOL    HW149368   2.117  12.546  13.620
49198SOL    HW249369   2.216  12.548  13.506
49199SOL     OW49370   0.721  10.841   4.406
49199SOL    HW149371   0.665  10.840   4.484
49199SOL    HW249372   0.710  10.930   4.371
49200SOL     OW49373   1.642  13.495   8.981
49200SOL    HW149374   1.653  13.445   8.900
49200SOL    HW249375   1.725  13.484   9.027
49201SOL     OW49376   9.768  11.346   9.195
49201SOL    HW149377   9.861  11.342   9.175
49201SOL    HW249378   9.763  11.390   9.280
49202SOL     OW49379   7.425   2.908  14.846
49202SOL    HW149380   7.377   2.932   0.047
49202SOL    HW249381   7.365   2.926  14.774
49203SOL     OW49382   8.128   3.041   0.783
49203SOL    HW149383   8.112   3.101   0.857
49203SOL    HW249384   8.151   3.098   0.710
49204SOL     OW49385  11.643  10.126  10.262
49204SOL    HW149386  11.572  10.090  10.315
49204SOL    HW249387  11.665  10.055  10.202
49205SOL     OW49388   9.179   8.757   7.303
49205SOL    HW149389   9.171   8.684   7.243
49205SOL    HW249390   9.265   8.747   7.343
49206SOL     OW49391   4.479   9.108   1.344
49206SOL    HW149392   4.542   9.044   1.310
49206SOL    HW249393   4.520   9.193   1.325
49207SOL     OW49394   6.073   6.538   3.017
49207SOL    HW149395   6.065   6.462   2.959
49207SOL    HW249396   6.136   6.595   2.974
49208SOL     OW49397  13.002   0.792  11.358
49208SOL    HW149398  12.930   0.742  11.320
49208SOL    HW249399  13.044   0.731  11.419
49209SOL     OW49400   7.535   0.412   9.053
49209SOL    HW149401   7.537   0.320   9.028
49209SOL    HW249402   7.590   0.456   8.988
49210SOL     OW49403   6.754   6.334   5.219
49210SOL    HW149404   6.814   6.401   5.250
49210SOL    HW249405   6.726   6.365   5.133
49211SOL     OW49406   6.828   3.713  12.063
49211SOL    HW149407   6.850   3.753  12.147
49211SOL    HW249408   6.886   3.637  12.057
49212SOL     OW49409  14.546  11.536   6.522
49212SOL    HW149410  14.598  11.455   6.519
49212SOL    HW249411  14.585  11.592   6.455
49213SOL     OW49412   8.902  10.873   2.970
49213SOL    HW149413   8.962  10.799   2.965
49213SOL    HW249414   8.860  10.865   3.056
49214SOL     OW49415   3.341  12.311   2.909
49214SOL    HW149416   3.434  12.302   2.888
49214SOL    HW249417   3.301  12.335   2.825
49215SOL     OW49418   1.038   6.850   4.221
49215SOL    HW149419   0.974   6.801   4.273
49215SOL    HW249420   1.073   6.915   4.282
49216SOL     OW49421   5.238   7.469   5.876
49216SOL    HW149422   5.209   7.548   5.923
49216SOL    HW249423   5.329   7.488   5.853
49217SOL     OW49424   5.885   4.269   4.135
49217SOL    HW149425   5.937   4.299   4.210
49217SOL    HW249426   5.873   4.175   4.151
49218SOL     OW49427  12.698  13.159   9.324
49218SOL    HW149428  12.743  13.212   9.258
49218SOL    HW249429  12.612  13.200   9.334
49219SOL     OW49430   6.351  10.251  10.963
49219SOL    HW149431   6.345  10.273  11.055
49219SOL    HW249432   6.414  10.179  10.959
49220SOL     OW49433   7.573  10.382   7.232
49220SOL    HW149434   7.539  10.345   7.150
49220SOL    HW249435   7.645  10.323   7.256
49221SOL     OW49436  14.101   4.914   4.554
49221SOL    HW149437  14.065   4.927   4.466
49221SOL    HW249438  14.075   4.825   4.578
49222SOL     OW49439   5.155   6.383   6.735
49222SOL    HW149440   5.096   6.321   6.779
49222SOL    HW249441   5.233   6.331   6.714
49223SOL     OW49442   9.071   9.775  12.747
49223SOL    HW149443   9.054   9.725  12.826
49223SOL    HW249444   9.023   9.729  12.678
49224SOL     OW49445   4.901  11.058   4.609
49224SOL    HW149446   4.816  11.034   4.644
49224SOL    HW249447   4.944  10.974   4.592
49225SOL     OW49448  11.826   9.045   4.770
49225SOL    HW149449  11.871   8.980   4.824
49225SOL    HW249450  11.812   9.000   4.687
49226SOL     OW49451   4.768  10.832  13.152
49226SOL    HW149452   4.796  10.762  13.094
49226SOL    HW249453   4.809  10.911  13.116
49227SOL     OW49454  13.947   6.699   1.666
49227SOL    HW149455  13.960   6.718   1.759
49227SOL    HW249456  13.923   6.783   1.628
49228SOL     OW49457   9.718   2.385  14.366
49228SOL    HW149458   9.642   2.365  14.312
49228SOL    HW249459   9.710   2.325  14.441
49229SOL     OW49460  10.672   9.846   1.178
49229SOL    HW149461  10.591   9.834   1.226
49229SOL    HW249462  10.711   9.925   1.215
49230SOL     OW49463   7.726  13.445   2.972
49230SOL    HW149464   7.775  13.373   2.933
49230SOL    HW249465   7.761  13.524   2.930
49231SOL     OW49466  10.453  13.795   1.011
49231SOL    HW149467  10.486  13.726   1.068
49231SOL    HW249468  10.379  13.755   0.965
49232SOL     OW49469   9.106   3.958   4.687
49232SOL    HW149470   9.056   3.881   4.659
49232SOL    HW249471   9.087   4.024   4.620
49233SOL     OW49472   1.522   4.350   1.291
49233SOL    HW149473   1.484   4.324   1.375
49233SOL    HW249474   1.525   4.270   1.240
49234SOL     OW49475  13.951   2.100   3.433
49234SOL    HW149476  13.879   2.117   3.493
49234SOL    HW249477  13.972   2.007   3.447
49235SOL     OW49478   8.808   8.637   2.757
49235SOL    HW149479   8.736   8.684   2.801
49235SOL    HW249480   8.863   8.707   2.721
49236SOL     OW49481   4.519   8.678   4.171
49236SOL    HW149482   4.602   8.663   4.216
49236SOL    HW249483   4.517   8.612   4.102
49237SOL     OW49484  11.641  14.209   6.255
49237SOL    HW149485  11.674  14.246   6.174
49237SOL    HW249486  11.715  14.158   6.289
49238SOL     OW49487  10.670   1.104   6.920
49238SOL    HW149488  10.677   1.186   6.969
49238SOL    HW249489  10.576   1.090   6.910
49239SOL     OW49490   3.272   3.895  11.172
49239SOL    HW149491   3.325   3.849  11.107
49239SOL    HW249492   3.320   3.976  11.189
49240SOL     OW49493   6.357   8.785   3.127
49240SOL    HW149494   6.289   8.810   3.190
49240SOL    HW249495   6.336   8.835   3.048
49241SOL     OW49496  14.772  12.027  11.946
49241SOL    HW149497  14.758  11.939  11.911
49241SOL    HW249498  14.688  12.071  11.932
49242SOL     OW49499   0.002  14.333   3.891
49242SOL    HW149500  14.874  14.424   3.918
49242SOL    HW249501   0.027  14.337   3.798
49243SOL     OW49502  11.683   9.287   0.506
49243SOL    HW149503  11.675   9.380   0.487
49243SOL    HW249504  11.593   9.255   0.509
49244SOL     OW49505   3.831   9.149   3.313
49244SOL    HW149506   3.844   9.054   3.311
49244SOL    HW249507   3.789   9.169   3.229
49245SOL     OW49508  13.299  11.726   0.063
49245SOL    HW149509  13.226  11.777   0.026
49245SOL    HW249510  13.265  11.693   0.147
49246SOL     OW49511   0.908   6.022   7.546
49246SOL    HW149512   0.918   5.950   7.484
49246SOL    HW249513   0.970   6.003   7.616
49247SOL     OW49514   6.338  10.335   1.390
49247SOL    HW149515   6.395  10.376   1.455
49247SOL    HW249516   6.394  10.320   1.314
49248SOL     OW49517   3.699   6.331   1.954
49248SOL    HW149518   3.663   6.286   1.877
49248SOL    HW249519   3.785   6.291   1.967
49249SOL     OW49520   0.602   6.388   2.151
49249SOL    HW149521   0.673   6.384   2.216
49249SOL    HW249522   0.573   6.297   2.141
49250SOL     OW49523   2.077   7.355   5.607
49250SOL    HW149524   2.156   7.304   5.628
49250SOL    HW249525   2.005   7.306   5.647
49251SOL     OW49526   9.115   1.461   6.239
49251SOL    HW149527   9.062   1.385   6.262
49251SOL    HW249528   9.158   1.436   6.157
49252SOL     OW49529  10.166  12.055   0.940
49252SOL    HW149530  10.077  12.088   0.957
49252SOL    HW249531  10.224  12.120   0.979
49253SOL     OW49532   2.575   8.296   8.304
49253SOL    HW149533   2.535   8.291   8.391
49253SOL    HW249534   2.632   8.219   8.299
49254SOL     OW49535   4.547  14.757  10.800
49254SOL    HW149536   4.641  14.769  10.814
49254SOL    HW249537   4.532  14.783  10.709
49255SOL     OW49538   3.792   0.833  11.091
49255SOL    HW149539   3.846   0.911  11.103
49255SOL    HW249540   3.706   0.866  11.064
49256SOL     OW49541  11.829   9.396   5.706
49256SOL    HW149542  11.909   9.439   5.736
49256SOL    HW249543  11.859   9.329   5.644
49257SOL     OW49544   7.044   3.140  13.974
49257SOL    HW149545   7.068   3.131  13.882
49257SOL    HW249546   7.032   3.235  13.986
49258SOL     OW49547  14.211   0.847   3.077
49258SOL    HW149548  14.305   0.836   3.065
49258SOL    HW249549  14.203   0.914   3.145
49259SOL     OW49550   3.282   0.678   2.024
49259SOL    HW149551   3.191   0.689   2.052
49259SOL    HW249552   3.334   0.720   2.093
49260SOL     OW49553   6.696  12.586  13.590
49260SOL    HW149554   6.616  12.541  13.562
49260SOL    HW249555   6.668  12.643  13.661
49261SOL     OW49556  12.151   3.252   3.417
49261SOL    HW149557  12.119   3.185   3.357
49261SOL    HW249558  12.236   3.277   3.382
49262SOL     OW49559   0.284  12.308   1.079
49262SOL    HW149560   0.299  12.306   1.174
49262SOL    HW249561   0.190  12.289   1.070
49263SOL     OW49562   9.702   1.916   4.734
49263SOL    HW149563   9.639   1.975   4.693
49263SOL    HW249564   9.648   1.854   4.784
49264SOL     OW49565  12.894   9.890   8.797
49264SOL    HW149566  12.977   9.933   8.818
49264SOL    HW249567  12.920   9.806   8.758
49265SOL     OW49568   4.489   4.510  11.431
49265SOL    HW149569   4.489   4.606  11.434
49265SOL    HW249570   4.427   4.488  11.361
49266SOL     OW49571   4.424   2.553  13.973
49266SOL    HW149572   4.473   2.482  14.014
49266SOL    HW249573   4.406   2.522  13.884
49267SOL     OW49574   0.932   8.741   0.979
49267SOL    HW149575   0.911   8.760   1.070
49267SOL    HW249576   0.872   8.671   0.954
49268SOL     OW49577   9.035   2.809   7.557
49268SOL    HW149578   9.006   2.723   7.526
49268SOL    HW249579   8.956   2.862   7.557
49269SOL     OW49580   5.675   5.923   6.227
49269SOL    HW149581   5.698   6.016   6.225
49269SOL    HW249582   5.581   5.922   6.243
49270SOL     OW49583  10.060  13.127   9.921
49270SOL    HW149584  10.084  13.041   9.955
49270SOL    HW249585  10.043  13.180   9.999
49271SOL     OW49586   2.694   7.488  13.615
49271SOL    HW149587   2.636   7.519  13.545
49271SOL    HW249588   2.649   7.411  13.651
49272SOL     OW49589   5.443   2.431  12.123
49272SOL    HW149590   5.446   2.420  12.218
49272SOL    HW249591   5.533   2.415  12.094
49273SOL     OW49592  11.738   4.109   9.323
49273SOL    HW149593  11.758   4.201   9.305
49273SOL    HW249594  11.721   4.106   9.417
49274SOL     OW49595  14.094   4.530   7.300
49274SOL    HW149596  14.164   4.497   7.356
49274SOL    HW249597  14.090   4.468   7.228
49275SOL     OW49598   3.398   4.451   9.057
49275SOL    HW149599   3.364   4.480   9.142
49275SOL    HW249600   3.396   4.356   9.061
49276SOL     OW49601  14.148  14.720   4.260
49276SOL    HW149602  14.234  14.681   4.242
49276SOL    HW249603  14.116  14.671   4.336
49277SOL     OW49604   3.579   6.915   5.063
49277SOL    HW149605   3.533   6.986   5.019
49277SOL    HW249606   3.558   6.837   5.010
49278SOL     OW49607   6.766   5.984   8.202
49278SOL    HW149608   6.705   5.918   8.238
49278SOL    HW249609   6.808   5.940   8.129
49279SOL     OW49610   5.068   7.700   8.042
49279SOL    HW149611   5.129   7.696   8.116
49279SOL    HW249612   5.057   7.609   8.016
49280SOL     OW49613  12.053   1.410  11.475
49280SOL    HW149614  12.146   1.425  11.458
49280SOL    HW249615  12.009   1.451  11.400
49281SOL     OW49616   4.650   6.140  12.919
49281SOL    HW149617   4.584   6.133  12.988
49281SOL    HW249618   4.723   6.186  12.961
49282SOL     OW49619  11.454  12.556  10.929
49282SOL    HW149620  11.448  12.551  10.833
49282SOL    HW249621  11.369  12.590  10.956
49283SOL     OW49622   3.555   8.797  13.935
49283SOL    HW149623   3.544   8.871  13.995
49283SOL    HW249624   3.649   8.794  13.919
49284SOL     OW49625   1.405  11.163   2.340
49284SOL    HW149626   1.477  11.202   2.389
49284SOL    HW249627   1.439  11.150   2.252
49285SOL     OW49628   3.163   8.538   0.890
49285SOL    HW149629   3.233   8.487   0.932
49285SOL    HW249630   3.083   8.489   0.908
49286SOL     OW49631   3.510  12.696  12.628
49286SOL    HW149632   3.416  12.700  12.645
49286SOL    HW249633   3.523  12.751  12.551
49287SOL     OW49634  13.522   6.649   7.765
49287SOL    HW149635  13.438   6.694   7.766
49287SOL    HW249636  13.500   6.556   7.762
49288SOL     OW49637   7.759   7.913   0.267
49288SOL    HW149638   7.705   7.979   0.224
49288SOL    HW249639   7.697   7.858   0.315
49289SOL     OW49640  10.265   4.660  14.044
49289SOL    HW149641  10.223   4.592  13.992
49289SOL    HW249642  10.294   4.726  13.980
49290SOL     OW49643   5.586   6.462   9.578
49290SOL    HW149644   5.490   6.457   9.571
49290SOL    HW249645   5.617   6.381   9.539
49291SOL     OW49646   7.082   1.690   9.160
49291SOL    HW149647   7.177   1.689   9.152
49291SOL    HW249648   7.064   1.651   9.245
49292SOL     OW49649   2.152  14.450  13.367
49292SOL    HW149650   2.218  14.472  13.301
49292SOL    HW249651   2.202  14.447  13.449
49293SOL     OW49652   8.801  14.251   2.718
49293SOL    HW149653   8.790  14.315   2.647
49293SOL    HW249654   8.896  14.241   2.728
49294SOL     OW49655   3.383   7.813   2.258
49294SOL    HW149656   3.336   7.850   2.183
49294SOL    HW249657   3.458   7.768   2.219
49295SOL     OW49658   2.161   8.140   2.868
49295SOL    HW149659   2.158   8.178   2.781
49295SOL    HW249660   2.206   8.205   2.921
49296SOL     OW49661   3.315   9.999  13.615
49296SOL    HW149662   3.236   9.998  13.669
49296SOL    HW249663   3.384   9.967  13.673
49297SOL     OW49664  14.232  12.016   9.967
49297SOL    HW149665  14.195  11.940   9.922
49297SOL    HW249666  14.319  11.989   9.993
49298SOL     OW49667  12.488  13.232   9.764
49298SOL    HW149668  12.530  13.243   9.850
49298SOL    HW249669  12.536  13.292   9.706
49299SOL     OW49670  14.443  10.283  12.099
49299SOL    HW149671  14.489  10.332  12.167
49299SOL    HW249672  14.505  10.214  12.074
49300SOL     OW49673   7.351  11.070   9.620
49300SOL    HW149674   7.290  10.998   9.638
49300SOL    HW249675   7.399  11.081   9.702
49301SOL     OW49676   9.677   2.217   4.526
49301SOL    HW149677   9.741   2.234   4.595
49301SOL    HW249678   9.613   2.287   4.535
49302SOL     OW49679   2.734   8.761   8.871
49302SOL    HW149680   2.763   8.672   8.892
49302SOL    HW249681   2.775   8.781   8.788
49303SOL     OW49682  14.098  10.866   1.545
49303SOL    HW149683  14.038  10.828   1.480
49303SOL    HW249684  14.181  10.875   1.500
49304SOL     OW49685   4.146   3.952   2.429
49304SOL    HW149686   4.101   3.914   2.504
49304SOL    HW249687   4.209   4.013   2.467
49305SOL     OW49688   1.228  13.711  13.411
49305SOL    HW149689   1.204  13.700  13.503
49305SOL    HW249690   1.317  13.675  13.406
49306SOL     OW49691   5.024   5.225  12.695
49306SOL    HW149692   5.076   5.264  12.764
49306SOL    HW249693   5.060   5.136  12.685
49307SOL     OW49694   1.691  14.878  13.867
49307SOL    HW149695   1.692  14.866  13.962
49307SOL    HW249696   1.608   0.045  13.850
49308SOL     OW49697  10.934  10.133   3.129
49308SOL    HW149698  10.873  10.139   3.055
49308SOL    HW249699  11.013  10.177   3.099
49309SOL     OW49700   5.965   7.302   1.012
49309SOL    HW149701   6.004   7.316   1.098
49309SOL    HW249702   6.039   7.284   0.954
49310SOL     OW49703   9.854  14.502   8.765
49310SOL    HW149704   9.788  14.567   8.784
49310SOL    HW249705   9.910  14.500   8.843
49311SOL     OW49706   1.717   7.767  11.752
49311SOL    HW149707   1.708   7.712  11.675
49311SOL    HW249708   1.683   7.852  11.724
49312SOL     OW49709   6.215   6.999   7.576
49312SOL    HW149710   6.198   6.914   7.537
49312SOL    HW249711   6.247   7.053   7.504
49313SOL     OW49712   7.056   2.517   0.540
49313SOL    HW149713   7.087   2.456   0.474
49313SOL    HW249714   6.980   2.559   0.500
49314SOL     OW49715   9.141  13.663   9.364
49314SOL    HW149716   9.193  13.667   9.443
49314SOL    HW249717   9.151  13.573   9.333
49315SOL     OW49718   6.099   9.205   5.745
49315SOL    HW149719   6.076   9.281   5.691
49315SOL    HW249720   6.090   9.237   5.835
49316SOL     OW49721  13.977   9.263   2.955
49316SOL    HW149722  13.999   9.326   3.024
49316SOL    HW249723  13.905   9.212   2.991
49317SOL     OW49724  10.263   1.673  14.641
49317SOL    HW149725  10.213   1.735  14.588
49317SOL    HW249726  10.201   1.604  14.662
49318SOL     OW49727  11.941   0.397  10.276
49318SOL    HW149728  11.898   0.327  10.326
49318SOL    HW249729  11.920   0.477  10.324
49319SOL     OW49730  11.211   4.649  11.372
49319SOL    HW149731  11.247   4.644  11.460
49319SOL    HW249732  11.192   4.559  11.348
49320SOL     OW49733   1.838   7.952   2.272
49320SOL    HW149734   1.834   8.009   2.195
49320SOL    HW249735   1.788   7.999   2.339
49321SOL     OW49736   5.971  11.782  13.540
49321SOL    HW149737   5.968  11.875  13.563
49321SOL    HW249738   5.945  11.737  13.620
49322SOL     OW49739   4.734  11.252  13.204
49322SOL    HW149740   4.702  11.208  13.126
49322SOL    HW249741   4.733  11.345  13.181
49323SOL     OW49742   3.790   6.751   7.688
49323SOL    HW149743   3.695   6.757   7.694
49323SOL    HW249744   3.808   6.657   7.684
49324SOL     OW49745  13.081  12.893   3.926
49324SOL    HW149746  13.170  12.865   3.908
49324SOL    HW249747  13.048  12.927   3.842
49325SOL     OW49748   8.924   3.292   5.549
49325SOL    HW149749   8.943   3.209   5.505
49325SOL    HW249750   8.846   3.325   5.505
49326SOL     OW49751   2.132  11.815   8.997
49326SOL    HW149752   2.124  11.731   8.951
49326SOL    HW249753   2.055  11.865   8.969
49327SOL     OW49754  13.284   7.324   9.859
49327SOL    HW149755  13.222   7.286   9.920
49327SOL    HW249756  13.366   7.276   9.874
49328SOL     OW49757   9.896   9.887   1.991
49328SOL    HW149758   9.873   9.966   1.942
49328SOL    HW249759   9.812   9.846   2.012
49329SOL     OW49760   3.861   6.586   8.641
49329SOL    HW149761   3.772   6.566   8.613
49329SOL    HW249762   3.850   6.627   8.727
49330SOL     OW49763   9.457   3.686   9.677
49330SOL    HW149764   9.531   3.743   9.661
49330SOL    HW249765   9.381   3.736   9.649
49331SOL     OW49766   7.209  10.156   8.364
49331SOL    HW149767   7.121  10.155   8.326
49331SOL    HW249768   7.251  10.233   8.324
49332SOL     OW49769   5.687   6.869  14.334
49332SOL    HW149770   5.619   6.803  14.316
49332SOL    HW249771   5.693   6.919  14.253
49333SOL     OW49772   9.578   1.809  14.844
49333SOL    HW149773   9.606   1.727   0.007
49333SOL    HW249774   9.648   1.871  14.865
49334SOL     OW49775   1.891  11.342   5.467
49334SOL    HW149776   1.900  11.384   5.382
49334SOL    HW249777   1.801  11.360   5.493
49335SOL     OW49778  10.856   6.625   7.787
49335SOL    HW149779  10.788   6.623   7.719
49335SOL    HW249780  10.854   6.715   7.821
49336SOL     OW49781   4.168   2.928   2.744
49336SOL    HW149782   4.228   2.922   2.818
49336SOL    HW249783   4.131   2.840   2.736
49337SOL     OW49784   7.270   7.013  11.878
49337SOL    HW149785   7.296   7.076  11.946
49337SOL    HW249786   7.349   6.962  11.861
49338SOL     OW49787   3.573  13.052   7.789
49338SOL    HW149788   3.515  13.100   7.730
49338SOL    HW249789   3.661  13.082   7.765
49339SOL     OW49790  14.327   3.729   4.013
49339SOL    HW149791  14.380   3.785   4.070
49339SOL    HW249792  14.296   3.787   3.944
49340SOL     OW49793  11.293   6.241  13.906
49340SOL    HW149794  11.258   6.181  13.972
49340SOL    HW249795  11.284   6.328  13.945
49341SOL     OW49796   4.243   5.232   6.077
49341SOL    HW149797   4.264   5.159   6.019
49341SOL    HW249798   4.181   5.195   6.139
49342SOL     OW49799  12.905   2.495   1.991
49342SOL    HW149800  12.821   2.469   2.028
49342SOL    HW249801  12.960   2.417   1.996
49343SOL     OW49802   6.563   6.549  14.206
49343SOL    HW149803   6.485   6.602  14.194
49343SOL    HW249804   6.566   6.491  14.130
49344SOL     OW49805   8.238   4.504   1.445
49344SOL    HW149806   8.265   4.590   1.413
49344SOL    HW249807   8.280   4.441   1.387
49345SOL     OW49808   6.063  11.096  14.635
49345SOL    HW149809   6.110  11.034  14.691
49345SOL    HW249810   5.979  11.053  14.618
49346SOL     OW49811  10.228   3.406   6.791
49346SOL    HW149812  10.291   3.462   6.746
49346SOL    HW249813  10.224   3.326   6.738
49347SOL     OW49814  13.699   9.510   6.097
49347SOL    HW149815  13.652   9.594   6.093
49347SOL    HW249816  13.633   9.446   6.070
49348SOL     OW49817   1.657   1.825   8.213
49348SOL    HW149818   1.609   1.757   8.261
49348SOL    HW249819   1.623   1.821   8.124
49349SOL     OW49820   5.827   1.427  10.452
49349SOL    HW149821   5.745   1.475  10.462
49349SOL    HW249822   5.889   1.474  10.507
49350SOL     OW49823   6.905  10.935   3.199
49350SOL    HW149824   6.935  10.853   3.239
49350SOL    HW249825   6.819  10.913   3.162
49351SOL     OW49826   0.036   5.016  14.354
49351SOL    HW149827   0.121   5.027  14.312
49351SOL    HW249828   0.056   4.975  14.439
49352SOL     OW49829   8.239  13.571   8.026
49352SOL    HW149830   8.203  13.520   7.953
49352SOL    HW249831   8.302  13.513   8.067
49353SOL     OW49832   5.705   5.300  13.368
49353SOL    HW149833   5.779   5.242  13.350
49353SOL    HW249834   5.716   5.372  13.306
49354SOL     OW49835   5.016   7.614  13.693
49354SOL    HW149836   5.038   7.688  13.636
49354SOL    HW249837   4.942   7.571  13.650
49355SOL     OW49838   6.947  12.599   7.193
49355SOL    HW149839   7.019  12.614   7.255
49355SOL    HW249840   6.876  12.654   7.225
49356SOL     OW49841   9.689  14.441   2.350
49356SOL    HW149842   9.741  14.394   2.415
49356SOL    HW249843   9.738  14.521   2.334
49357SOL     OW49844  12.435   6.048  11.592
49357SOL    HW149845  12.346   6.048  11.627
49357SOL    HW249846  12.469   5.961  11.614
49358SOL     OW49847  13.927  14.054   2.876
49358SOL    HW149848  13.900  14.064   2.784
49358SOL    HW249849  13.927  14.143   2.910
49359SOL     OW49850   2.336   5.750   4.922
49359SOL    HW149851   2.342   5.655   4.919
49359SOL    HW249852   2.357   5.773   5.012
49360SOL     OW49853   8.530   6.650  11.785
49360SOL    HW149854   8.480   6.691  11.714
49360SOL    HW249855   8.492   6.685  11.865
49361SOL     OW49856   8.832   3.604   0.681
49361SOL    HW149857   8.784   3.663   0.739
49361SOL    HW249858   8.916   3.591   0.724
49362SOL     OW49859   7.747  14.033   3.380
49362SOL    HW149860   7.659  14.031   3.342
49362SOL    HW249861   7.773  13.942   3.388
49363SOL     OW49862  11.514  14.332   2.288
49363SOL    HW149863  11.424  14.307   2.305
49363SOL    HW249864  11.533  14.400   2.353
49364SOL     OW49865  13.142   5.434   0.098
49364SOL    HW149866  13.168   5.402   0.185
49364SOL    HW249867  13.068   5.493   0.116
49365SOL     OW49868   0.509   4.085   8.153
49365SOL    HW149869   0.425   4.121   8.126
49365SOL    HW249870   0.561   4.161   8.179
49366SOL     OW49871  13.579  11.203   2.770
49366SOL    HW149872  13.550  11.288   2.737
49366SOL    HW249873  13.672  11.214   2.788
49367SOL     OW49874   5.574  11.472   4.879
49367SOL    HW149875   5.598  11.525   4.955
49367SOL    HW249876   5.626  11.508   4.807
49368SOL     OW49877   2.900   2.540   1.331
49368SOL    HW149878   2.845   2.486   1.388
49368SOL    HW249879   2.870   2.630   1.348
49369SOL     OW49880   1.548   3.139   1.536
49369SOL    HW149881   1.590   3.100   1.459
49369SOL    HW249882   1.458   3.108   1.533
49370SOL     OW49883   3.639   9.123   2.013
49370SOL    HW149884   3.570   9.080   1.963
49370SOL    HW249885   3.677   9.053   2.067
49371SOL     OW49886   1.105   4.098   3.204
49371SOL    HW149887   1.166   4.085   3.276
49371SOL    HW249888   1.092   4.193   3.200
49372SOL     OW49889   3.457   2.192   8.055
49372SOL    HW149890   3.415   2.274   8.079
49372SOL    HW249891   3.491   2.157   8.138
49373SOL     OW49892   3.479   3.639   4.183
49373SOL    HW149893   3.572   3.618   4.188
49373SOL    HW249894   3.476   3.734   4.172
49374SOL     OW49895   9.967   7.413   2.507
49374SOL    HW149896  10.002   7.452   2.587
49374SOL    HW249897   9.930   7.329   2.535
49375SOL     OW49898  14.196  12.609   5.242
49375SOL    HW149899  14.222  12.699   5.223
49375SOL    HW249900  14.153  12.580   5.161
49376SOL     OW49901   5.023  10.525  11.356
49376SOL    HW149902   4.987  10.593  11.299
49376SOL    HW249903   5.117  10.543  11.358
49377SOL     OW49904   5.619  11.025   7.479
49377SOL    HW149905   5.585  11.096   7.424
49377SOL    HW249906   5.662  11.069   7.552
49378SOL     OW49907  10.197   3.508   0.988
49378SOL    HW149908  10.271   3.486   0.932
49378SOL    HW249909  10.121   3.472   0.942
49379SOL     OW49910   0.208   5.305   0.820
49379SOL    HW149911   0.142   5.241   0.848
49379SOL    HW249912   0.283   5.251   0.793
49380SOL     OW49913  10.547  12.662   3.727
49380SOL    HW149914  10.473  12.609   3.756
49380SOL    HW249915  10.556  12.642   3.634
49381SOL     OW49916   0.622  11.596   3.003
49381SOL    HW149917   0.531  11.585   3.029
49381SOL    HW249918   0.671  11.589   3.085
49382SOL     OW49919  11.089  13.240  12.410
49382SOL    HW149920  11.169  13.190  12.429
49382SOL    HW249921  11.023  13.173  12.394
49383SOL     OW49922   3.402  12.183  13.003
49383SOL    HW149923   3.456  12.213  13.075
49383SOL    HW249924   3.317  12.227  13.016
49384SOL     OW49925   0.146   8.876   4.316
49384SOL    HW149926   0.160   8.964   4.352
49384SOL    HW249927   0.214   8.866   4.250
49385SOL     OW49928   9.518  13.084   9.151
49385SOL    HW149929   9.464  13.095   9.073
49385SOL    HW249930   9.605  13.114   9.125
49386SOL     OW49931   3.802   6.876  13.682
49386SOL    HW149932   3.753   6.795  13.694
49386SOL    HW249933   3.890   6.847  13.655
49387SOL     OW49934   6.004   0.270   9.449
49387SOL    HW149935   6.025   0.349   9.400
49387SOL    HW249936   6.068   0.268   9.520
49388SOL     OW49937   8.513   3.517  11.319
49388SOL    HW149938   8.432   3.475  11.290
49388SOL    HW249939   8.489   3.564  11.399
49389SOL     OW49940  12.988   5.770   6.692
49389SOL    HW149941  12.995   5.760   6.597
49389SOL    HW249942  12.971   5.681   6.724
49390SOL     OW49943   4.528  14.569  10.050
49390SOL    HW149944   4.557  14.616  10.128
49390SOL    HW249945   4.584  14.601   9.979
49391SOL     OW49946   0.116   4.029  12.807
49391SOL    HW149947   0.042   4.072  12.764
49391SOL    HW249948   0.193   4.068  12.766
49392SOL     OW49949   9.470   9.567  11.654
49392SOL    HW149950   9.434   9.654  11.671
49392SOL    HW249951   9.561   9.583  11.629
49393SOL     OW49952  12.370  10.646  13.318
49393SOL    HW149953  12.379  10.551  13.312
49393SOL    HW249954  12.458  10.679  13.302
49394SOL     OW49955   6.677  13.168   9.139
49394SOL    HW149956   6.614  13.110   9.182
49394SOL    HW249957   6.649  13.169   9.047
49395SOL     OW49958  11.145  14.481  13.962
49395SOL    HW149959  11.125  14.526  13.880
49395SOL    HW249960  11.198  14.405  13.936
49396SOL     OW49961   9.586  13.637   2.891
49396SOL    HW149962   9.671  13.595   2.905
49396SOL    HW249963   9.540  13.578   2.831
49397SOL     OW49964   8.269   1.184  12.840
49397SOL    HW149965   8.276   1.150  12.929
49397SOL    HW249966   8.190   1.143  12.805
49398SOL     OW49967   3.369   7.091   3.309
49398SOL    HW149968   3.435   7.025   3.327
49398SOL    HW249969   3.289   7.057   3.350
49399SOL     OW49970   5.281  13.902   7.916
49399SOL    HW149971   5.356  13.853   7.950
49399SOL    HW249972   5.300  13.913   7.823
49400SOL     OW49973   4.107  12.060  10.878
49400SOL    HW149974   4.122  11.998  10.807
49400SOL    HW249975   4.018  12.042  10.908
49401SOL     OW49976   4.564   2.069   0.435
49401SOL    HW149977   4.596   2.145   0.482
49401SOL    HW249978   4.500   2.029   0.494
49402SOL     OW49979  10.648  13.831   4.529
49402SOL    HW149980  10.722  13.771   4.541
49402SOL    HW249981  10.657  13.895   4.600
49403SOL     OW49982   1.262   4.277   1.143
49403SOL    HW149983   1.172   4.262   1.114
49403SOL    HW249984   1.313   4.275   1.062
49404SOL     OW49985   4.283  14.040  13.957
49404SOL    HW149986   4.345  14.082  14.016
49404SOL    HW249987   4.312  13.949  13.952
49405SOL     OW49988  12.985   6.474  13.225
49405SOL    HW149989  12.950   6.385  13.227
49405SOL    HW249990  13.021   6.487  13.313
49406SOL     OW49991  10.457  10.550  13.393
49406SOL    HW149992  10.431  10.640  13.410
49406SOL    HW249993  10.443  10.537  13.300
49407SOL     OW49994  11.357  14.081  13.385
49407SOL    HW149995  11.322  14.025  13.315
49407SOL    HW249996  11.341  14.170  13.354
49408SOL     OW49997   0.382   9.978   2.332
49408SOL    HW149998   0.376   9.999   2.239
49408SOL    HW249999   0.475   9.989   2.353
49409SOL     OW50000   0.912   4.357  14.549
49409SOL    HW150001   0.857   4.432  14.525
49409SOL    HW250002   0.852   4.282  14.546
49410SOL     OW50003   9.431  11.519  12.748
49410SOL    HW150004   9.434  11.609  12.779
49410SOL    HW250005   9.341  11.506  12.720
49411SOL     OW50006   2.084   2.766   3.308
49411SOL    HW150007   2.039   2.758   3.392
49411SOL    HW250008   2.098   2.860   3.298
49412SOL     OW50009   1.901   0.805   7.477
49412SOL    HW150010   1.942   0.805   7.390
49412SOL    HW250011   1.875   0.897   7.491
49413SOL     OW50012   6.480  14.619  13.367
49413SOL    HW150013   6.503  14.528  13.382
49413SOL    HW250014   6.552  14.669  13.407
49414SOL     OW50015   8.917   3.901  11.089
49414SOL    HW150016   8.828   3.933  11.108
49414SOL    HW250017   8.966   3.980  11.067
49415SOL     OW50018  10.868  12.232  12.170
49415SOL    HW150019  10.810  12.206  12.241
49415SOL    HW250020  10.833  12.316  12.139
49416SOL     OW50021   3.509   1.133  12.675
49416SOL    HW150022   3.571   1.195  12.636
49416SOL    HW250023   3.540   1.047  12.647
49417SOL     OW50024   1.101   8.345   2.367
49417SOL    HW150025   1.180   8.300   2.398
49417SOL    HW250026   1.029   8.289   2.396
49418SOL     OW50027  13.769   0.856  10.365
49418SOL    HW150028  13.854   0.888  10.337
49418SOL    HW250029  13.750   0.905  10.446
49419SOL     OW50030  11.462   8.899   1.142
49419SOL    HW150031  11.531   8.938   1.195
49419SOL    HW250032  11.412   8.845   1.203
49420SOL     OW50033  10.761   9.396   0.219
49420SOL    HW150034  10.834   9.457   0.211
49420SOL    HW250035  10.764   9.367   0.310
49421SOL     OW50036   9.333   2.899  14.402
49421SOL    HW150037   9.303   2.961  14.469
49421SOL    HW250038   9.318   2.944  14.319
49422SOL     OW50039   6.366   0.260   4.251
49422SOL    HW150040   6.423   0.206   4.306
49422SOL    HW250041   6.334   0.201   4.183
49423SOL     OW50042   8.124   1.676   3.340
49423SOL    HW150043   8.146   1.736   3.268
49423SOL    HW250044   8.040   1.637   3.314
49424SOL     OW50045   1.961   4.646   8.306
49424SOL    HW150046   2.030   4.705   8.337
49424SOL    HW250047   1.995   4.558   8.321
49425SOL     OW50048  11.894   6.734  14.071
49425SOL    HW150049  11.839   6.713  14.147
49425SOL    HW250050  11.982   6.706  14.096
49426SOL     OW50051   7.044  13.398   9.369
49426SOL    HW150052   7.072  13.313   9.403
49426SOL    HW250053   7.021  13.448   9.447
49427SOL     OW50054   0.124   3.253  14.585
49427SOL    HW150055   0.200   3.254  14.526
49427SOL    HW250056   0.055   3.211  14.534
49428SOL     OW50057  13.755   1.464  12.248
49428SOL    HW150058  13.781   1.532  12.310
49428SOL    HW250059  13.707   1.511  12.180
49429SOL     OW50060   3.366   1.515   8.690
49429SOL    HW150061   3.343   1.465   8.612
49429SOL    HW250062   3.436   1.464   8.732
49430SOL     OW50063   7.779   7.692   5.310
49430SOL    HW150064   7.805   7.750   5.382
49430SOL    HW250065   7.824   7.727   5.233
49431SOL     OW50066   8.109   7.280   5.945
49431SOL    HW150067   8.130   7.374   5.949
49431SOL    HW250068   8.021   7.274   5.981
49432SOL     OW50069  10.925   7.283  12.749
49432SOL    HW150070  10.893   7.234  12.825
49432SOL    HW250071  11.013   7.311  12.774
49433SOL     OW50072   2.287  13.917   2.023
49433SOL    HW150073   2.344  13.844   2.045
49433SOL    HW250074   2.231  13.884   1.953
49434SOL     OW50075   9.255   4.957   2.301
49434SOL    HW150076   9.214   5.032   2.258
49434SOL    HW250077   9.326   4.931   2.242
49435SOL     OW50078   2.733  13.949   7.656
49435SOL    HW150079   2.729  13.854   7.663
49435SOL    HW250080   2.820  13.967   7.620
49436SOL     OW50081   8.047   5.601   7.864
49436SOL    HW150082   8.041   5.572   7.955
49436SOL    HW250083   8.114   5.669   7.865
49437SOL     OW50084  12.272   2.909  12.058
49437SOL    HW150085  12.236   2.841  12.002
49437SOL    HW250086  12.347   2.867  12.102
49438SOL     OW50087  13.812   5.416   8.569
49438SOL    HW150088  13.844   5.506   8.559
49438SOL    HW250089  13.850   5.387   8.652
49439SOL     OW50090   5.079   4.442  13.801
49439SOL    HW150091   5.015   4.419  13.869
49439SOL    HW250092   5.143   4.371  13.804
49440SOL     OW50093   4.373   4.033   0.839
49440SOL    HW150094   4.468   4.030   0.830
49440SOL    HW250095   4.359   4.042   0.933
49441SOL     OW50096  10.173   3.423   4.729
49441SOL    HW150097  10.224   3.370   4.790
49441SOL    HW250098  10.236   3.449   4.662
49442SOL     OW50099   4.482  11.316   2.235
49442SOL    HW150100   4.397  11.330   2.277
49442SOL    HW250101   4.534  11.269   2.300
49443SOL     OW50102   7.915   2.439   7.893
49443SOL    HW150103   7.859   2.467   7.965
49443SOL    HW250104   7.985   2.388   7.935
49444SOL     OW50105  11.746   3.434  14.111
49444SOL    HW150106  11.792   3.385  14.043
49444SOL    HW250107  11.814   3.464  14.170
49445SOL     OW50108  10.304  10.483   0.541
49445SOL    HW150109  10.381  10.446   0.497
49445SOL    HW250110  10.311  10.577   0.524
49446SOL     OW50111   4.915   1.450   0.680
49446SOL    HW150112   4.842   1.498   0.719
49446SOL    HW250113   4.919   1.368   0.730
49447SOL     OW50114   9.049   5.740  13.861
49447SOL    HW150115   9.141   5.748  13.837
49447SOL    HW250116   9.010   5.824  13.838
49448SOL     OW50117   5.012   8.960  12.126
49448SOL    HW150118   4.960   8.991  12.052
49448SOL    HW250119   4.976   9.006  12.202
49449SOL     OW50120   1.756  11.845  14.408
49449SOL    HW150121   1.735  11.908  14.339
49449SOL    HW250122   1.673  11.805  14.431
49450SOL     OW50123   5.378   5.058   1.077
49450SOL    HW150124   5.460   5.107   1.084
49450SOL    HW250125   5.389   5.002   1.000
49451SOL     OW50126   2.860  12.768   7.926
49451SOL    HW150127   2.948  12.797   7.901
49451SOL    HW250128   2.875  12.708   7.999
49452SOL     OW50129   3.854  14.413   9.124
49452SOL    HW150130   3.914  14.338   9.128
49452SOL    HW250131   3.904  14.483   9.083
49453SOL     OW50132   6.665   1.713   5.036
49453SOL    HW150133   6.592   1.670   5.082
49453SOL    HW250134   6.710   1.642   4.991
49454SOL     OW50135   9.435   3.628   2.931
49454SOL    HW150136   9.397   3.551   2.890
49454SOL    HW250137   9.457   3.599   3.020
49455SOL     OW50138   2.252   8.786   1.976
49455SOL    HW150139   2.206   8.728   1.916
49455SOL    HW250140   2.332   8.740   1.998
49456SOL     OW50141   2.144   6.241  11.422
49456SOL    HW150142   2.219   6.291  11.392
49456SOL    HW250143   2.087   6.306  11.464
49457SOL     OW50144   5.456  12.534   2.837
49457SOL    HW150145   5.499  12.577   2.762
49457SOL    HW250146   5.449  12.442   2.811
49458SOL     OW50147  14.308   0.975  10.263
49458SOL    HW150148  14.321   0.890  10.305
49458SOL    HW250149  14.371   1.033  10.307
49459SOL     OW50150  11.575   5.109   8.070
49459SOL    HW150151  11.540   5.053   8.140
49459SOL    HW250152  11.514   5.182   8.065
49460SOL     OW50153   3.648   0.020   6.057
49460SOL    HW150154   3.733   0.050   6.090
49460SOL    HW250155   3.628  14.820   6.108
49461SOL     OW50156   2.364  12.416   5.846
49461SOL    HW150157   2.437  12.444   5.901
49461SOL    HW250158   2.292  12.473   5.871
49462SOL     OW50159   2.881  14.233   7.173
49462SOL    HW150160   2.893  14.179   7.095
49462SOL    HW250161   2.942  14.197   7.237
49463SOL     OW50162   9.740  14.567   3.421
49463SOL    HW150163   9.679  14.545   3.492
49463SOL    HW250164   9.810  14.616   3.464
49464SOL     OW50165   1.311   9.382   7.443
49464SOL    HW150166   1.311   9.435   7.523
49464SOL    HW250167   1.322   9.292   7.474
49465SOL     OW50168   6.728  14.538   9.869
49465SOL    HW150169   6.739  14.629   9.900
49465SOL    HW250170   6.745  14.485   9.947
49466SOL     OW50171   6.088   7.306   7.247
49466SOL    HW150172   6.028   7.354   7.305
49466SOL    HW250173   6.082   7.352   7.163
49467SOL     OW50174   3.555  12.600  14.656
49467SOL    HW150175   3.628  12.538  14.651
49467SOL    HW250176   3.487  12.561  14.600
49468SOL     OW50177  11.480   3.805  13.755
49468SOL    HW150178  11.567   3.770  13.737
49468SOL    HW250179  11.489   3.848  13.840
49469SOL     OW50180  11.135  14.424   9.796
49469SOL    HW150181  11.074  14.441   9.723
49469SOL    HW250182  11.148  14.509   9.837
49470SOL     OW50183   1.504   6.509  12.494
49470SOL    HW150184   1.428   6.455  12.515
49470SOL    HW250185   1.469   6.594  12.470
49471SOL     OW50186   3.351   4.560   4.818
49471SOL    HW150187   3.411   4.591   4.886
49471SOL    HW250188   3.264   4.567   4.858
49472SOL     OW50189   1.957  12.376   3.485
49472SOL    HW150190   1.873  12.421   3.494
49472SOL    HW250191   1.998  12.417   3.409
49473SOL     OW50192   5.809   1.172   1.325
49473SOL    HW150193   5.895   1.213   1.333
49473SOL    HW250194   5.783   1.188   1.235
49474SOL     OW50195   5.853  13.895  13.076
49474SOL    HW150196   5.831  13.835  13.146
49474SOL    HW250197   5.769  13.911  13.031
49475SOL     OW50198  12.593   8.304   6.434
49475SOL    HW150199  12.540   8.225   6.437
49475SOL    HW250200  12.638   8.307   6.518
49476SOL     OW50201   6.788   1.957   1.499
49476SOL    HW150202   6.803   2.051   1.486
49476SOL    HW250203   6.816   1.941   1.589
49477SOL     OW50204  13.133   7.100  11.766
49477SOL    HW150205  13.074   7.027  11.784
49477SOL    HW250206  13.169   7.123  11.852
49478SOL     OW50207   4.508   4.397   7.401
49478SOL    HW150208   4.438   4.426   7.459
49478SOL    HW250209   4.477   4.315   7.364
49479SOL     OW50210   6.816  13.891   0.831
49479SOL    HW150211   6.767  13.814   0.861
49479SOL    HW250212   6.804  13.890   0.736
49480SOL     OW50213   1.031   6.488   6.323
49480SOL    HW150214   1.008   6.578   6.299
49480SOL    HW250215   1.068   6.495   6.411
49481SOL     OW50216   6.418  10.281   2.975
49481SOL    HW150217   6.340  10.229   2.994
49481SOL    HW250218   6.487  10.216   2.962
49482SOL     OW50219   0.185  13.482   0.691
49482SOL    HW150220   0.203  13.531   0.771
49482SOL    HW250221   0.232  13.530   0.623
49483SOL     OW50222  13.775  12.324   8.022
49483SOL    HW150223  13.765  12.305   7.929
49483SOL    HW250224  13.859  12.371   8.028
49484SOL     OW50225  10.687   8.363   3.372
49484SOL    HW150226  10.775   8.332   3.347
49484SOL    HW250227  10.627   8.311   3.318
49485SOL     OW50228   0.953   1.887  13.348
49485SOL    HW150229   0.916   1.971  13.375
49485SOL    HW250230   0.998   1.855  13.426
49486SOL     OW50231  12.077  11.783   6.243
49486SOL    HW150232  12.001  11.794   6.300
49486SOL    HW250233  12.142  11.739   6.297
49487SOL     OW50234   1.577  10.208  12.890
49487SOL    HW150235   1.497  10.257  12.870
49487SOL    HW250236   1.644  10.275  12.902
49488SOL     OW50237   3.990   1.167   3.107
49488SOL    HW150238   3.940   1.247   3.097
49488SOL    HW250239   4.020   1.168   3.198
49489SOL     OW50240   4.640  14.165  10.195
49489SOL    HW150241   4.635  14.152  10.290
49489SOL    HW250242   4.662  14.078  10.161
49490SOL     OW50243   6.319   0.093   8.559
49490SOL    HW150244   6.311   0.188   8.568
49490SOL    HW250245   6.299   0.059   8.646
49491SOL     OW50246   8.446   2.933   4.311
49491SOL    HW150247   8.457   2.839   4.301
49491SOL    HW250248   8.532   2.966   4.337
49492SOL     OW50249   4.117   3.915   5.691
49492SOL    HW150250   4.136   3.966   5.613
49492SOL    HW250251   4.194   3.859   5.702
49493SOL     OW50252  12.124  13.559  14.422
49493SOL    HW150253  12.185  13.607  14.367
49493SOL    HW250254  12.039  13.570  14.379
49494SOL     OW50255   9.442  12.811   4.136
49494SOL    HW150256   9.426  12.902   4.113
49494SOL    HW250257   9.359  12.782   4.175
49495SOL     OW50258  12.101  10.830   9.397
49495SOL    HW150259  12.061  10.894   9.456
49495SOL    HW250260  12.149  10.883   9.333
49496SOL     OW50261  11.791  13.851   7.659
49496SOL    HW150262  11.830  13.832   7.744
49496SOL    HW250263  11.823  13.938   7.636
49497SOL     OW50264   4.114  12.212  10.393
49497SOL    HW150265   4.051  12.172  10.334
49497SOL    HW250266   4.105  12.163  10.475
49498SOL     OW50267   3.148   1.123  12.193
49498SOL    HW150268   3.215   1.161  12.251
49498SOL    HW250269   3.198   1.074  12.129
49499SOL     OW50270  12.533  13.601  11.365
49499SOL    HW150271  12.615  13.611  11.414
49499SOL    HW250272  12.486  13.532  11.412
49500SOL     OW50273   0.454   4.049  10.842
49500SOL    HW150274   0.400   4.034  10.920
49500SOL    HW250275   0.446   3.968  10.792
49501SOL     OW50276   9.616   8.096   2.731
49501SOL    HW150277   9.591   8.186   2.713
49501SOL    HW250278   9.553   8.065   2.796
49502SOL     OW50279  12.364   0.207  11.559
49502SOL    HW150280  12.452   0.201  11.521
49502SOL    HW250281  12.376   0.256  11.640
49503SOL     OW50282   4.703   9.381  14.439
49503SOL    HW150283   4.669   9.470  14.438
49503SOL    HW250284   4.729   9.364  14.348
49504SOL     OW50285   9.860   6.775  12.139
49504SOL    HW150286   9.815   6.757  12.057
49504SOL    HW250287   9.898   6.690  12.163
49505SOL     OW50288   3.130  13.853   0.991
49505SOL    HW150289   3.104  13.945   0.992
49505SOL    HW250290   3.110  13.823   0.902
49506SOL     OW50291  14.201   1.068   7.250
49506SOL    HW150292  14.295   1.055   7.263
49506SOL    HW250293  14.160   1.030   7.328
49507SOL     OW50294   3.935   0.028   5.908
49507SOL    HW150295   3.855   0.077   5.889
49507SOL    HW250296   3.943   0.030   6.003
49508SOL     OW50297  10.615   4.593   1.108
49508SOL    HW150298  10.551   4.553   1.165
49508SOL    HW250299  10.580   4.680   1.089
49509SOL     OW50300   9.770   6.366  12.475
49509SOL    HW150301   9.719   6.445  12.454
49509SOL    HW250302   9.790   6.375  12.568
49510SOL     OW50303   4.064   2.973   4.989
49510SOL    HW150304   4.141   2.927   5.022
49510SOL    HW250305   4.091   3.065   4.981
49511SOL     OW50306   1.888   7.374  12.185
49511SOL    HW150307   1.911   7.416  12.268
49511SOL    HW250308   1.899   7.280  12.202
49512SOL     OW50309   3.577   4.656  11.467
49512SOL    HW150310   3.605   4.572  11.429
49512SOL    HW250311   3.602   4.650  11.559
49513SOL     OW50312   7.138   9.884  13.568
49513SOL    HW150313   7.147   9.854  13.658
49513SOL    HW250314   7.050   9.859  13.542
49514SOL     OW50315  11.119  12.576   9.377
49514SOL    HW150316  11.073  12.525   9.310
49514SOL    HW250317  11.139  12.659   9.334
49515SOL     OW50318   1.600   4.357   7.095
49515SOL    HW150319   1.680   4.335   7.048
49515SOL    HW250320   1.531   4.305   7.053
49516SOL     OW50321   9.022   0.643  11.191
49516SOL    HW150322   9.036   0.554  11.159
49516SOL    HW250323   8.971   0.686  11.122
49517SOL     OW50324  14.500   5.553  13.500
49517SOL    HW150325  14.416   5.588  13.528
49517SOL    HW250326  14.561   5.627  13.508
49518SOL     OW50327   8.723  13.559   8.921
49518SOL    HW150328   8.805  13.515   8.943
49518SOL    HW250329   8.704  13.615   8.996
49519SOL     OW50330  14.104   1.477  13.765
49519SOL    HW150331  14.130   1.477  13.857
49519SOL    HW250332  14.119   1.387  13.735
49520SOL     OW50333   3.218  14.686   8.995
49520SOL    HW150334   3.297  14.732   9.024
49520SOL    HW250335   3.188  14.637   9.071
49521SOL     OW50336   6.127   5.782  12.688
49521SOL    HW150337   6.181   5.854  12.653
49521SOL    HW250338   6.092   5.816  12.770
49522SOL     OW50339   5.433  12.057  10.401
49522SOL    HW150340   5.508  12.033  10.456
49522SOL    HW250341   5.357  12.051  10.460
49523SOL     OW50342   0.779  14.042   5.733
49523SOL    HW150343   0.795  13.949   5.720
49523SOL    HW250344   0.706  14.045   5.796
49524SOL     OW50345   3.114  11.641   7.184
49524SOL    HW150346   3.069  11.580   7.243
49524SOL    HW250347   3.197  11.659   7.228
49525SOL     OW50348  12.322   1.365   0.707
49525SOL    HW150349  12.393   1.310   0.738
49525SOL    HW250350  12.352   1.398   0.622
49526SOL     OW50351   0.758   0.519  12.985
49526SOL    HW150352   0.741   0.504  13.078
49526SOL    HW250353   0.842   0.476  12.969
49527SOL     OW50354   0.610  14.398   5.208
49527SOL    HW150355   0.564  14.418   5.289
49527SOL    HW250356   0.693  14.360   5.236
49528SOL     OW50357   0.079   5.637   8.855
49528SOL    HW150358   0.045   5.699   8.791
49528SOL    HW250359   0.106   5.691   8.929
49529SOL     OW50360   2.170   5.969   6.169
49529SOL    HW150361   2.197   5.902   6.233
49529SOL    HW250362   2.098   5.929   6.121
49530SOL     OW50363   2.166  13.160   2.137
49530SOL    HW150364   2.169  13.071   2.173
49530SOL    HW250365   2.239  13.163   2.074
49531SOL     OW50366   8.829  10.295   2.388
49531SOL    HW150367   8.900  10.247   2.430
49531SOL    HW250368   8.764  10.307   2.457
49532SOL     OW50369   1.974  12.787  12.257
49532SOL    HW150370   1.973  12.824  12.169
49532SOL    HW250371   1.957  12.862  12.314
49533SOL     OW50372  11.394   8.157   7.775
49533SOL    HW150373  11.468   8.124   7.724
49533SOL    HW250374  11.434   8.198   7.852
49534SOL     OW50375  11.074   7.655   3.494
49534SOL    HW150376  11.084   7.688   3.584
49534SOL    HW250377  11.162   7.662   3.457
49535SOL     OW50378  14.351  11.362   8.894
49535SOL    HW150379  14.371  11.425   8.824
49535SOL    HW250380  14.429  11.307   8.900
49536SOL     OW50381  11.260   9.572   5.460
49536SOL    HW150382  11.253   9.645   5.522
49536SOL    HW250383  11.201   9.505   5.494
49537SOL     OW50384  11.254   9.682   9.704
49537SOL    HW150385  11.160   9.680   9.722
49537SOL    HW250386  11.275   9.593   9.675
49538SOL     OW50387   1.571  10.351   3.914
49538SOL    HW150388   1.514  10.353   3.837
49538SOL    HW250389   1.660  10.347   3.878
49539SOL     OW50390   2.854   3.677   9.058
49539SOL    HW150391   2.859   3.693   9.153
49539SOL    HW250392   2.768   3.637   9.045
49540SOL     OW50393   2.739   1.751   6.551
49540SOL    HW150394   2.791   1.737   6.630
49540SOL    HW250395   2.650   1.768   6.584
49541SOL     OW50396   0.796   7.428   7.192
49541SOL    HW150397   0.866   7.419   7.128
49541SOL    HW250398   0.833   7.480   7.263
49542SOL     OW50399  13.486   5.721  13.304
49542SOL    HW150400  13.440   5.661  13.245
49542SOL    HW250401  13.553   5.667  13.345
49543SOL     OW50402   7.486   0.882   0.281
49543SOL    HW150403   7.442   0.963   0.256
49543SOL    HW250404   7.517   0.845   0.198
49544SOL     OW50405  14.268   0.695   8.057
49544SOL    HW150406  14.189   0.749   8.052
49544SOL    HW250407  14.322   0.726   7.985
49545SOL     OW50408   5.387   3.436  10.223
49545SOL    HW150409   5.348   3.364  10.273
49545SOL    HW250410   5.481   3.428  10.240
49546SOL     OW50411   6.477  13.525   8.455
49546SOL    HW150412   6.560  13.511   8.500
49546SOL    HW250413   6.498  13.521   8.362
49547SOL     OW50414  13.542   0.609   3.108
49547SOL    HW150415  13.617   0.588   3.164
49547SOL    HW250416  13.470   0.557   3.145
49548SOL     OW50417  11.809   0.451  11.844
49548SOL    HW150418  11.823   0.540  11.876
49548SOL    HW250419  11.734   0.418  11.894
49549SOL     OW50420  10.161   2.394   9.111
49549SOL    HW150421  10.138   2.396   9.018
49549SOL    HW250422  10.176   2.485   9.134
49550SOL     OW50423  10.669   4.787  13.813
49550SOL    HW150424  10.750   4.835  13.832
49550SOL    HW250425  10.691   4.734  13.736
49551SOL     OW50426  13.375   3.963   3.992
49551SOL    HW150427  13.398   3.911   4.069
49551SOL    HW250428  13.383   4.054   4.022
49552SOL     OW50429   2.972  14.115   5.478
49552SOL    HW150430   2.923  14.046   5.524
49552SOL    HW250431   3.055  14.074   5.455
49553SOL     OW50432   8.408  11.014   6.099
49553SOL    HW150433   8.405  10.928   6.142
49553SOL    HW250434   8.401  11.077   6.171
49554SOL     OW50435  12.669  13.717   3.264
49554SOL    HW150436  12.712  13.794   3.227
49554SOL    HW250437  12.597  13.754   3.316
49555SOL     OW50438   3.992  10.457   5.872
49555SOL    HW150439   4.056  10.410   5.820
49555SOL    HW250440   3.976  10.401   5.948
49556SOL     OW50441   6.699   5.253   8.879
49556SOL    HW150442   6.710   5.187   8.811
49556SOL    HW250443   6.786   5.290   8.891
49557SOL     OW50444  13.634   4.776   2.716
49557SOL    HW150445  13.678   4.860   2.701
49557SOL    HW250446  13.697   4.711   2.687
49558SOL     OW50447   0.717   6.373   5.755
49558SOL    HW150448   0.803   6.332   5.771
49558SOL    HW250449   0.727   6.415   5.669
49559SOL     OW50450   5.746   6.977   4.718
49559SOL    HW150451   5.745   7.030   4.798
49559SOL    HW250452   5.724   6.888   4.748
49560SOL     OW50453   1.154   7.251   4.893
49560SOL    HW150454   1.083   7.316   4.888
49560SOL    HW250455   1.169   7.225   4.803
49561SOL     OW50456   0.799   4.099  13.586
49561SOL    HW150457   0.755   4.055  13.659
49561SOL    HW250458   0.878   4.046  13.570
49562SOL     OW50459   7.207   4.925  12.811
49562SOL    HW150460   7.195   4.830  12.800
49562SOL    HW250461   7.289   4.944  12.765
49563SOL     OW50462  11.401   3.529   2.333
49563SOL    HW150463  11.490   3.535   2.298
49563SOL    HW250464  11.362   3.614   2.316
49564SOL     OW50465  14.169  12.199   4.110
49564SOL    HW150466  14.170  12.170   4.019
49564SOL    HW250467  14.127  12.127   4.158
49565SOL     OW50468   1.536   6.519   2.430
49565SOL    HW150469   1.464   6.530   2.492
49565SOL    HW250470   1.585   6.444   2.463
49566SOL     OW50471   5.115  14.784  14.752
49566SOL    HW150472   5.123  14.729  14.674
49566SOL    HW250473   5.142  14.728  14.824
49567SOL     OW50474  12.273  11.757   1.987
49567SOL    HW150475  12.290  11.795   2.073
49567SOL    HW250476  12.360  11.735   1.952
49568SOL     OW50477  13.888   6.517  10.287
49568SOL    HW150478  13.883   6.435  10.336
49568SOL    HW250479  13.797   6.547  10.282
49569SOL     OW50480  13.901  14.446   9.435
49569SOL    HW150481  13.993  14.463   9.454
49569SOL    HW250482  13.860  14.532   9.433
49570SOL     OW50483  13.512   2.089   9.981
49570SOL    HW150484  13.551   2.176   9.981
49570SOL    HW250485  13.459   2.086   9.901
49571SOL     OW50486  13.691  10.890  14.687
49571SOL    HW150487  13.734  10.923  14.765
49571SOL    HW250488  13.762  10.852  14.635
49572SOL     OW50489  13.435   7.860   1.531
49572SOL    HW150490  13.476   7.924   1.590
49572SOL    HW250491  13.382   7.805   1.588
49573SOL     OW50492   7.991  13.742   5.176
49573SOL    HW150493   8.009  13.826   5.133
49573SOL    HW250494   8.077  13.709   5.202
49574SOL     OW50495  10.432  14.239   4.916
49574SOL    HW150496  10.459  14.221   5.005
49574SOL    HW250497  10.496  14.302   4.883
49575SOL     OW50498   0.540  10.367  12.148
49575SOL    HW150499   0.503  10.363  12.235
49575SOL    HW250500   0.542  10.276  12.118
49576SOL     OW50501   2.525   4.136   7.433
49576SOL    HW150502   2.610   4.109   7.399
49576SOL    HW250503   2.471   4.057   7.430
49577SOL     OW50504   6.232   7.219   2.371
49577SOL    HW150505   6.316   7.248   2.333
49577SOL    HW250506   6.248   7.129   2.398
49578SOL     OW50507   7.893  12.658  14.849
49578SOL    HW150508   7.813  12.620  14.814
49578SOL    HW250509   7.891  12.749  14.821
49579SOL     OW50510   8.433   8.994   0.286
49579SOL    HW150511   8.345   8.968   0.259
49579SOL    HW250512   8.489   8.923   0.254
49580SOL     OW50513   9.332   2.977  14.140
49580SOL    HW150514   9.284   2.907  14.097
49580SOL    HW250515   9.288   3.057  14.113
49581SOL     OW50516   5.848   3.815   0.776
49581SOL    HW150517   5.842   3.815   0.680
49581SOL    HW250518   5.923   3.870   0.796
49582SOL     OW50519   4.675  14.297   2.727
49582SOL    HW150520   4.582  14.317   2.737
49582SOL    HW250521   4.718  14.383   2.728
49583SOL     OW50522   4.078   4.414   3.889
49583SOL    HW150523   4.136   4.439   3.961
49583SOL    HW250524   3.999   4.381   3.933
49584SOL     OW50525  12.632   9.241   8.921
49584SOL    HW150526  12.713   9.219   8.874
49584SOL    HW250527  12.564   9.194   8.874
49585SOL     OW50528   8.368   4.212   0.621
49585SOL    HW150529   8.448   4.160   0.611
49585SOL    HW250530   8.379   4.257   0.705
49586SOL     OW50531   2.322   6.594   2.759
49586SOL    HW150532   2.293   6.627   2.674
49586SOL    HW250533   2.290   6.504   2.763
49587SOL     OW50534   9.496   0.758   6.275
49587SOL    HW150535   9.426   0.707   6.318
49587SOL    HW250536   9.561   0.771   6.343
49588SOL     OW50537   3.787   8.781  14.649
49588SOL    HW150538   3.883   8.772  14.648
49588SOL    HW250539   3.755   8.691  14.663
49589SOL     OW50540   8.354  11.264  10.788
49589SOL    HW150541   8.261  11.287  10.789
49589SOL    HW250542   8.355  11.169  10.804
49590SOL     OW50543  10.464  10.166   3.537
49590SOL    HW150544  10.532  10.099   3.525
49590SOL    HW250545  10.480  10.230   3.468
49591SOL     OW50546   4.392   7.546   1.449
49591SOL    HW150547   4.460   7.560   1.383
49591SOL    HW250548   4.389   7.628   1.497
49592SOL     OW50549  14.473   0.086  13.098
49592SOL    HW150550  14.399   0.067  13.155
49592SOL    HW250551  14.540   0.024  13.124
49593SOL     OW50552  14.323   4.957   2.109
49593SOL    HW150553  14.355   4.926   2.024
49593SOL    HW250554  14.234   4.923   2.115
49594SOL     OW50555   4.461  14.031  12.935
49594SOL    HW150556   4.405  14.106  12.915
49594SOL    HW250557   4.469  13.984  12.852
49595SOL     OW50558  14.026   5.949   5.390
49595SOL    HW150559  14.111   5.920   5.423
49595SOL    HW250560  13.963   5.890   5.431
49596SOL     OW50561   0.268   7.737   3.876
49596SOL    HW150562   0.342   7.739   3.937
49596SOL    HW250563   0.275   7.652   3.832
49597SOL     OW50564   7.141   2.649   7.517
49597SOL    HW150565   7.051   2.644   7.549
49597SOL    HW250566   7.170   2.738   7.540
49598SOL     OW50567  14.014   9.416  13.697
49598SOL    HW150568  14.061   9.402  13.779
49598SOL    HW250569  14.056   9.492  13.658
49599SOL     OW50570   9.142   0.069  13.038
49599SOL    HW150571   9.060   0.108  13.069
49599SOL    HW250572   9.194   0.143  13.007
49600SOL     OW50573   1.769   1.201  14.361
49600SOL    HW150574   1.802   1.218  14.449
49600SOL    HW250575   1.799   1.112  14.341
49601SOL     OW50576   7.581   2.688   0.113
49601SOL    HW150577   7.591   2.610   0.058
49601SOL    HW250578   7.559   2.653   0.200
49602SOL     OW50579  11.374  14.547  10.118
49602SOL    HW150580  11.378  14.452  10.115
49602SOL    HW250581  11.369  14.568  10.211
49603SOL     OW50582   9.755   8.500   0.272
49603SOL    HW150583   9.781   8.522   0.182
49603SOL    HW250584   9.806   8.560   0.327
49604SOL     OW50585   3.103   9.910  14.679
49604SOL    HW150586   3.038   9.845  14.655
49604SOL    HW250587   3.116   9.898  14.774
49605SOL     OW50588   8.099   0.947   5.539
49605SOL    HW150589   8.119   0.910   5.625
49605SOL    HW250590   8.019   0.902   5.512
49606SOL     OW50591  13.097   7.205  13.870
49606SOL    HW150592  13.056   7.120  13.853
49606SOL    HW250593  13.190   7.191  13.854
49607SOL     OW50594   2.984   2.893   3.157
49607SOL    HW150595   3.028   2.973   3.187
49607SOL    HW250596   2.918   2.923   3.095
49608SOL     OW50597  10.323   8.241  14.599
49608SOL    HW150598  10.351   8.196  14.519
49608SOL    HW250599  10.253   8.185  14.634
49609SOL     OW50600  12.793  12.655   9.900
49609SOL    HW150601  12.813  12.646   9.807
49609SOL    HW250602  12.777  12.748   9.912
49610SOL     OW50603   9.480   7.157   3.436
49610SOL    HW150604   9.467   7.156   3.341
49610SOL    HW250605   9.546   7.090   3.453
49611SOL     OW50606   6.356  12.926   6.670
49611SOL    HW150607   6.321  12.948   6.756
49611SOL    HW250608   6.287  12.876   6.628
49612SOL     OW50609  10.754   5.701   3.885
49612SOL    HW150610  10.792   5.672   3.802
49612SOL    HW250611  10.818   5.764   3.919
49613SOL     OW50612   2.263  13.398   1.869
49613SOL    HW150613   2.255  13.303   1.874
49613SOL    HW250614   2.332  13.420   1.931
49614SOL     OW50615  10.105   4.592  13.254
49614SOL    HW150616  10.049   4.591  13.331
49614SOL    HW250617  10.076   4.517  13.202
49615SOL     OW50618   7.537  10.391   9.945
49615SOL    HW150619   7.551  10.336  10.022
49615SOL    HW250620   7.459  10.442   9.966
49616SOL     OW50621   4.662   2.534   6.290
49616SOL    HW150622   4.567   2.551   6.288
49616SOL    HW250623   4.669   2.438   6.294
49617SOL     OW50624   4.501  12.646   6.614
49617SOL    HW150625   4.580  12.606   6.651
49617SOL    HW250626   4.438  12.574   6.609
49618SOL     OW50627   5.922  13.585   1.987
49618SOL    HW150628   6.010  13.609   1.958
49618SOL    HW250629   5.935  13.528   2.062
49619SOL     OW50630   8.926  14.057   7.843
49619SOL    HW150631   8.910  14.007   7.764
49619SOL    HW250632   8.846  14.050   7.894
49620SOL     OW50633   1.405  12.038  11.896
49620SOL    HW150634   1.469  11.970  11.872
49620SOL    HW250635   1.334  12.028  11.832
49621SOL     OW50636   7.895  14.718  14.000
49621SOL    HW150637   7.868  14.769  13.924
49621SOL    HW250638   7.865  14.629  13.983
49622SOL     OW50639   3.291  10.287   5.050
49622SOL    HW150640   3.201  10.259   5.030
49622SOL    HW250641   3.300  10.271   5.144
49623SOL     OW50642  10.894  13.030  11.043
49623SOL    HW150643  10.839  13.005  11.117
49623SOL    HW250644  10.832  13.057  10.975
49624SOL     OW50645   0.642   1.601   5.515
49624SOL    HW150646   0.697   1.678   5.499
49624SOL    HW250647   0.668   1.539   5.446
49625SOL     OW50648  13.955   0.712   9.708
49625SOL    HW150649  13.861   0.727   9.714
49625SOL    HW250650  13.995   0.797   9.727
49626SOL     OW50651   8.991   0.976   5.091
49626SOL    HW150652   8.982   0.893   5.044
49626SOL    HW250653   9.006   1.040   5.022
49627SOL     OW50654   1.248  11.551   8.212
49627SOL    HW150655   1.266  11.491   8.139
49627SOL    HW250656   1.242  11.495   8.289
49628SOL     OW50657  13.646  11.231  10.181
49628SOL    HW150658  13.592  11.275  10.246
49628SOL    HW250659  13.704  11.175  10.232
49629SOL     OW50660   2.940   4.846   1.006
49629SOL    HW150661   2.937   4.751   0.995
49629SOL    HW250662   2.859   4.868   1.051
49630SOL     OW50663   0.638  14.096   8.399
49630SOL    HW150664   0.713  14.119   8.345
49630SOL    HW250665   0.634  14.000   8.394
49631SOL     OW50666  14.700   5.148   4.350
49631SOL    HW150667  14.645   5.158   4.428
49631SOL    HW250668  14.671   5.218   4.291
49632SOL     OW50669   6.760   2.697  10.430
49632SOL    HW150670   6.688   2.644  10.397
49632SOL    HW250671   6.747   2.782  10.389
49633SOL     OW50672  12.240   6.443  14.812
49633SOL    HW150673  12.201   6.383  14.749
49633SOL    HW250674  12.311   6.487  14.765
49634SOL     OW50675   6.572  12.915   7.258
49634SOL    HW150676   6.486  12.931   7.297
49634SOL    HW250677   6.561  12.835   7.208
49635SOL     OW50678   6.315  12.551   3.789
49635SOL    HW150679   6.380  12.615   3.759
49635SOL    HW250680   6.345  12.525   3.876
49636SOL     OW50681   1.442   9.981  10.761
49636SOL    HW150682   1.475   9.941  10.841
49636SOL    HW250683   1.476  10.071  10.762
49637SOL     OW50684   8.477  10.243   8.379
49637SOL    HW150685   8.565  10.215   8.407
49637SOL    HW250686   8.480  10.338   8.382
49638SOL     OW50687   4.465  12.927   3.116
49638SOL    HW150688   4.419  12.919   3.199
49638SOL    HW250689   4.458  13.019   3.093
49639SOL     OW50690   7.554   4.577   7.733
49639SOL    HW150691   7.507   4.616   7.659
49639SOL    HW250692   7.499   4.596   7.809
49640SOL     OW50693  10.946   6.746   4.012
49640SOL    HW150694  10.950   6.688   4.088
49640SOL    HW250695  10.996   6.823   4.038
49641SOL     OW50696  11.426   1.086  13.056
49641SOL    HW150697  11.369   1.013  13.082
49641SOL    HW250698  11.409   1.097  12.962
49642SOL     OW50699  14.287   8.320   5.934
49642SOL    HW150700  14.285   8.298   5.841
49642SOL    HW250701  14.217   8.267   5.973
49643SOL     OW50702   5.058   5.687   4.428
49643SOL    HW150703   5.148   5.720   4.426
49643SOL    HW250704   5.032   5.693   4.520
49644SOL     OW50705   5.424   2.674   5.232
49644SOL    HW150706   5.473   2.700   5.310
49644SOL    HW250707   5.334   2.698   5.252
49645SOL     OW50708  11.341  13.587  13.679
49645SOL    HW150709  11.411  13.648  13.653
49645SOL    HW250710  11.355  13.572  13.772
49646SOL     OW50711  10.708   6.590  12.654
49646SOL    HW150712  10.669   6.513  12.614
49646SOL    HW250713  10.675   6.590  12.744
49647SOL     OW50714  12.734   6.957  11.448
49647SOL    HW150715  12.756   6.932  11.358
49647SOL    HW250716  12.785   7.036  11.465
49648SOL     OW50717   8.070   7.250   5.067
49648SOL    HW150718   8.141   7.307   5.097
49648SOL    HW250719   7.992   7.305   5.072
49649SOL     OW50720   6.145   6.665   1.999
49649SOL    HW150721   6.229   6.682   1.955
49649SOL    HW250722   6.133   6.741   2.056
49650SOL     OW50723  11.104   0.353  13.177
49650SOL    HW150724  11.060   0.269  13.162
49650SOL    HW250725  11.197   0.331  13.178
49651SOL     OW50726   8.079  12.905   4.034
49651SOL    HW150727   8.099  12.850   3.959
49651SOL    HW250728   8.034  12.981   3.997
49652SOL     OW50729   9.839   0.986  11.855
49652SOL    HW150730   9.858   1.066  11.805
49652SOL    HW250731   9.782   1.016  11.926
49653SOL     OW50732  10.952   0.168  11.602
49653SOL    HW150733  10.976   0.121  11.682
49653SOL    HW250734  10.861   0.144  11.587
49654SOL     OW50735  14.477  14.235   7.779
49654SOL    HW150736  14.420  14.163   7.756
49654SOL    HW250737  14.562  14.211   7.743
49655SOL     OW50738   4.529   4.500  12.702
49655SOL    HW150739   4.569   4.512  12.616
49655SOL    HW250740   4.557   4.576  12.753
49656SOL     OW50741   0.592   9.806   9.500
49656SOL    HW150742   0.534   9.838   9.568
49656SOL    HW250743   0.625   9.722   9.533
49657SOL     OW50744  11.505   1.750   7.265
49657SOL    HW150745  11.424   1.715   7.227
49657SOL    HW250746  11.486   1.842   7.280
49658SOL     OW50747   5.355   0.794   5.978
49658SOL    HW150748   5.364   0.813   6.071
49658SOL    HW250749   5.363   0.699   5.972
49659SOL     OW50750   2.278  11.547   2.654
49659SOL    HW150751   2.361  11.517   2.617
49659SOL    HW250752   2.303  11.611   2.721
49660SOL     OW50753   8.817   6.524   9.206
49660SOL    HW150754   8.826   6.452   9.269
49660SOL    HW250755   8.895   6.578   9.220
49661SOL     OW50756   0.590   4.952   9.371
49661SOL    HW150757   0.587   4.913   9.284
49661SOL    HW250758   0.663   4.907   9.414
49662SOL     OW50759   3.840  10.536  10.121
49662SOL    HW150760   3.921  10.576  10.150
49662SOL    HW250761   3.839  10.549  10.026
49663SOL     OW50762   7.548   9.255   7.064
49663SOL    HW150763   7.516   9.274   6.976
49663SOL    HW250764   7.618   9.319   7.078
49664SOL     OW50765   0.232   3.681  13.950
49664SOL    HW150766   0.275   3.599  13.970
49664SOL    HW250767   0.270   3.709  13.867
49665SOL     OW50768  12.163   3.686  13.337
49665SOL    HW150769  12.121   3.611  13.295
49665SOL    HW250770  12.220   3.647  13.403
49666SOL     OW50771   9.388   1.307   3.737
49666SOL    HW150772   9.363   1.237   3.797
49666SOL    HW250773   9.473   1.337   3.769
49667SOL     OW50774   6.998   1.056  14.345
49667SOL    HW150775   7.011   1.020  14.257
49667SOL    HW250776   6.904   1.069  14.353
49668SOL     OW50777   6.363   7.692   3.920
49668SOL    HW150778   6.305   7.731   3.985
49668SOL    HW250779   6.321   7.610   3.896
49669SOL     OW50780   0.671   8.655  14.184
49669SOL    HW150781   0.610   8.725  14.205
49669SOL    HW250782   0.747   8.671  14.239
49670SOL     OW50783   4.701  12.003   9.151
49670SOL    HW150784   4.705  12.055   9.232
49670SOL    HW250785   4.683  12.067   9.082
49671SOL     OW50786   1.181  11.404  12.466
49671SOL    HW150787   1.133  11.477  12.427
49671SOL    HW250788   1.194  11.430  12.557
49672SOL     OW50789  13.584   8.296  14.036
49672SOL    HW150790  13.523   8.354  13.990
49672SOL    HW250791  13.656   8.353  14.062
49673SOL     OW50792  12.757   6.384  14.357
49673SOL    HW150793  12.830   6.375  14.296
49673SOL    HW250794  12.689   6.327  14.321
49674SOL     OW50795  10.273   2.238   3.154
49674SOL    HW150796  10.194   2.270   3.197
49674SOL    HW250797  10.341   2.244   3.222
49675SOL     OW50798   9.907   2.813  10.770
49675SOL    HW150799   9.952   2.897  10.761
49675SOL    HW250800   9.961   2.752  10.720
49676SOL     OW50801   1.674   3.622   7.171
49676SOL    HW150802   1.606   3.555   7.181
49676SOL    HW250803   1.727   3.592   7.098
49677SOL     OW50804   0.912   2.543   8.946
49677SOL    HW150805   0.967   2.533   8.868
49677SOL    HW250806   0.885   2.454   8.967
49678SOL     OW50807   2.107   6.489   6.195
49678SOL    HW150808   2.200   6.504   6.179
49678SOL    HW250809   2.101   6.467   6.288
49679SOL     OW50810   6.396  11.763  12.444
49679SOL    HW150811   6.442  11.842  12.474
49679SOL    HW250812   6.424  11.695  12.506
49680SOL     OW50813   3.258  12.297   7.505
49680SOL    HW150814   3.353  12.288   7.516
49680SOL    HW250815   3.248  12.357   7.431
49681SOL     OW50816   0.796  11.543   9.614
49681SOL    HW150817   0.707  11.540   9.579
49681SOL    HW250818   0.832  11.626   9.581
49682SOL     OW50819  10.042  13.212   0.250
49682SOL    HW150820  10.107  13.236   0.315
49682SOL    HW250821  10.051  13.117   0.241
49683SOL     OW50822   4.795   2.776   4.762
49683SOL    HW150823   4.884   2.808   4.778
49683SOL    HW250824   4.743   2.815   4.832
49684SOL     OW50825   9.178   8.865   9.831
49684SOL    HW150826   9.105   8.884   9.772
49684SOL    HW250827   9.256   8.881   9.779
49685SOL     OW50828   2.104   9.012   2.624
49685SOL    HW150829   2.098   9.105   2.645
49685SOL    HW250830   2.112   8.968   2.709
49686SOL     OW50831   8.511  11.692  14.524
49686SOL    HW150832   8.495  11.756  14.455
49686SOL    HW250833   8.603  11.704  14.547
49687SOL     OW50834   7.036  13.754  12.365
49687SOL    HW150835   6.988  13.676  12.395
49687SOL    HW250836   7.121  13.721  12.337
49688SOL     OW50837   0.337   0.374  10.138
49688SOL    HW150838   0.363   0.426  10.213
49688SOL    HW250839   0.382   0.290  10.150
49689SOL     OW50840   3.260   8.739  14.566
49689SOL    HW150841   3.242   8.750  14.660
49689SOL    HW250842   3.351   8.710  14.563
49690SOL     OW50843   3.085   2.907  10.483
49690SOL    HW150844   3.052   2.939  10.567
49690SOL    HW250845   3.180   2.915  10.490
49691SOL     OW50846   8.391  11.734   3.294
49691SOL    HW150847   8.375  11.825   3.271
49691SOL    HW250848   8.304  11.699   3.314
49692SOL     OW50849   8.041   7.427  10.071
49692SOL    HW150850   7.978   7.391  10.008
49692SOL    HW250851   8.006   7.512  10.094
49693SOL     OW50852   3.940   9.771   5.198
49693SOL    HW150853   3.847   9.754   5.209
49693SOL    HW250854   3.966   9.813   5.280
49694SOL     OW50855   1.660   2.167   1.986
49694SOL    HW150856   1.714   2.227   2.037
49694SOL    HW250857   1.573   2.207   1.986
49695SOL     OW50858   8.623   3.499  10.650
49695SOL    HW150859   8.710   3.528  10.676
49695SOL    HW250860   8.619   3.514  10.556
49696SOL     OW50861   4.624   0.967   8.533
49696SOL    HW150862   4.563   0.947   8.462
49696SOL    HW250863   4.618   1.061   8.545
49697SOL     OW50864   2.874  11.188   1.764
49697SOL    HW150865   2.894  11.276   1.796
49697SOL    HW250866   2.816  11.150   1.830
49698SOL     OW50867   6.892   2.714   7.643
49698SOL    HW150868   6.885   2.789   7.703
49698SOL    HW250869   6.870   2.749   7.557
49699SOL     OW50870  14.033   4.078  14.850
49699SOL    HW150871  14.050   4.168   0.000
49699SOL    HW250872  13.981   4.040   0.042
49700SOL     OW50873  10.111   9.925   2.142
49700SOL    HW150874  10.189   9.886   2.101
49700SOL    HW250875  10.038   9.891   2.091
49701SOL     OW50876   1.742   7.864   7.621
49701SOL    HW150877   1.709   7.942   7.665
49701SOL    HW250878   1.709   7.870   7.531
49702SOL     OW50879   2.782   2.466  10.006
49702SOL    HW150880   2.751   2.535   9.948
49702SOL    HW250881   2.843   2.415   9.952
49703SOL     OW50882   5.841   7.585   0.634
49703SOL    HW150883   5.923   7.597   0.683
49703SOL    HW250884   5.810   7.674   0.617
49704SOL     OW50885  11.119   7.344  13.575
49704SOL    HW150886  11.055   7.416  13.578
49704SOL    HW250887  11.182   7.366  13.643
49705SOL     OW50888   6.758  12.156  10.834
49705SOL    HW150889   6.770  12.191  10.746
49705SOL    HW250890   6.665  12.172  10.853
49706SOL     OW50891  13.052  14.624  14.108
49706SOL    HW150892  13.025  14.706  14.149
49706SOL    HW250893  13.083  14.569  14.180
49707SOL     OW50894   5.387   7.619   9.902
49707SOL    HW150895   5.369   7.567   9.824
49707SOL    HW250896   5.322   7.690   9.899
49708SOL     OW50897  13.390   3.637   2.858
49708SOL    HW150898  13.337   3.560   2.842
49708SOL    HW250899  13.369   3.696   2.786
49709SOL     OW50900  12.302  11.109  11.452
49709SOL    HW150901  12.356  11.133  11.376
49709SOL    HW250902  12.364  11.100  11.524
49710SOL     OW50903   2.443  10.461  13.884
49710SOL    HW150904   2.400  10.539  13.919
49710SOL    HW250905   2.507  10.495  13.822
49711SOL     OW50906   6.130  12.408   3.017
49711SOL    HW150907   6.085  12.325   3.000
49711SOL    HW250908   6.079  12.450   3.086
49712SOL     OW50909   5.021   5.300   5.800
49712SOL    HW150910   4.973   5.283   5.719
49712SOL    HW250911   4.954   5.331   5.861
49713SOL     OW50912   8.729   7.516  13.580
49713SOL    HW150913   8.717   7.424  13.559
49713SOL    HW250914   8.784   7.551  13.510
49714SOL     OW50915   7.568   2.509   2.585
49714SOL    HW150916   7.661   2.486   2.573
49714SOL    HW250917   7.545   2.472   2.670
49715SOL     OW50918   6.774  14.783   2.631
49715SOL    HW150919   6.856  14.738   2.612
49715SOL    HW250920   6.711  14.713   2.649
49716SOL     OW50921   0.644  10.579   4.380
49716SOL    HW150922   0.608  10.573   4.291
49716SOL    HW250923   0.663  10.672   4.392
49717SOL     OW50924   7.015  10.216   4.439
49717SOL    HW150925   6.944  10.253   4.492
49717SOL    HW250926   7.030  10.282   4.371
49718SOL     OW50927   3.054   3.875  10.360
49718SOL    HW150928   2.991   3.943  10.384
49718SOL    HW250929   3.027   3.846  10.273
49719SOL     OW50930   8.635  13.745   3.316
49719SOL    HW150931   8.594  13.817   3.267
49719SOL    HW250932   8.706  13.716   3.260
49720SOL     OW50933   4.246  14.628   7.138
49720SOL    HW150934   4.247  14.689   7.064
49720SOL    HW250935   4.258  14.542   7.099
49721SOL     OW50936   4.593   0.304   5.057
49721SOL    HW150937   4.630   0.350   4.981
49721SOL    HW250938   4.589   0.213   5.030
49722SOL     OW50939  11.492   6.264  13.541
49722SOL    HW150940  11.502   6.266  13.445
49722SOL    HW250941  11.571   6.221  13.572
49723SOL     OW50942   7.966   8.782   6.406
49723SOL    HW150943   7.896   8.779   6.340
49723SOL    HW250944   7.994   8.691   6.415
49724SOL     OW50945   6.101   2.722  13.201
49724SOL    HW150946   6.108   2.728  13.296
49724SOL    HW250947   6.007   2.722  13.184
49725SOL     OW50948   1.343   5.386   2.608
49725SOL    HW150949   1.275   5.371   2.542
49725SOL    HW250950   1.305   5.449   2.668
49726SOL     OW50951   1.929  13.182   1.090
49726SOL    HW150952   1.984  13.169   1.167
49726SOL    HW250953   1.991  13.206   1.020
49727SOL     OW50954   6.010   0.435  11.295
49727SOL    HW150955   5.941   0.447  11.360
49727SOL    HW250956   5.993   0.503  11.229
49728SOL     OW50957   3.906   2.580   1.177
49728SOL    HW150958   3.810   2.574   1.171
49728SOL    HW250959   3.931   2.502   1.226
49729SOL     OW50960   2.840   5.458  10.052
49729SOL    HW150961   2.771   5.398  10.022
49729SOL    HW250962   2.866   5.423  10.138
49730SOL     OW50963  10.089   1.940   0.099
49730SOL    HW150964  10.088   1.985   0.015
49730SOL    HW250965  10.144   1.995   0.155
49731SOL     OW50966   9.094   8.683  13.958
49731SOL    HW150967   9.096   8.772  13.922
49731SOL    HW250968   9.106   8.695  14.052
49732SOL     OW50969  12.895   3.430  10.863
49732SOL    HW150970  12.950   3.497  10.905
49732SOL    HW250971  12.811   3.437  10.909
49733SOL     OW50972  14.073   4.610   6.132
49733SOL    HW150973  13.986   4.612   6.171
49733SOL    HW250974  14.091   4.701   6.109
49734SOL     OW50975   2.155   7.741   5.424
49734SOL    HW150976   2.123   7.725   5.513
49734SOL    HW250977   2.099   7.687   5.368
49735SOL     OW50978  11.218  10.221  13.899
49735SOL    HW150979  11.193  10.182  13.983
49735SOL    HW250980  11.208  10.149  13.836
49736SOL     OW50981   6.052   5.801   2.354
49736SOL    HW150982   5.959   5.779   2.363
49736SOL    HW250983   6.081   5.748   2.280
49737SOL     OW50984  12.141   1.746  12.022
49737SOL    HW150985  12.138   1.704  11.936
49737SOL    HW250986  12.102   1.683  12.082
49738SOL     OW50987  12.963   9.852  10.693
49738SOL    HW150988  12.886   9.870  10.641
49738SOL    HW250989  12.963   9.757  10.704
49739SOL     OW50990   9.449   7.585   6.003
49739SOL    HW150991   9.415   7.639   5.931
49739SOL    HW250992   9.458   7.646   6.076
49740SOL     OW50993  14.411   3.544  14.468
49740SOL    HW150994  14.443   3.463  14.428
49740SOL    HW250995  14.317   3.545  14.450
49741SOL     OW50996   1.546  10.791   3.160
49741SOL    HW150997   1.578  10.776   3.071
49741SOL    HW250998   1.618  10.836   3.204
49742SOL     OW50999   8.686   4.396   5.233
49742SOL    HW151000   8.647   4.479   5.206
49742SOL    HW251001   8.613   4.334   5.237
49743SOL     OW51002  11.693  13.030   2.820
49743SOL    HW151003  11.613  12.983   2.794
49743SOL    HW251004  11.676  13.058   2.910
49744SOL     OW51005   9.141   4.066   8.743
49744SOL    HW151006   9.163   4.141   8.799
49744SOL    HW251007   9.063   4.028   8.783
49745SOL     OW51008   2.490  14.226   5.565
49745SOL    HW151009   2.528  14.314   5.556
49745SOL    HW251010   2.490  14.191   5.476
49746SOL     OW51011  14.411  13.829  10.169
49746SOL    HW151012  14.407  13.756  10.107
49746SOL    HW251013  14.352  13.804  10.239
49747SOL     OW51014   8.389   4.478   3.126
49747SOL    HW151015   8.351   4.517   3.205
49747SOL    HW251016   8.316   4.432   3.085
49748SOL     OW51017   1.297   7.611   5.006
49748SOL    HW151018   1.320   7.518   5.009
49748SOL    HW251019   1.281   7.629   4.913
49749SOL     OW51020  10.246   3.165  13.119
49749SOL    HW151021  10.331   3.167  13.076
49749SOL    HW251022  10.242   3.247  13.168
49750SOL     OW51023   1.188   6.219   1.535
49750SOL    HW151024   1.134   6.239   1.611
49750SOL    HW251025   1.278   6.225   1.568
49751SOL     OW51026   4.965   9.935  11.972
49751SOL    HW151027   4.926  10.022  11.977
49751SOL    HW251028   5.053   9.946  12.010
49752SOL     OW51029  14.196  11.738  13.469
49752SOL    HW151030  14.253  11.667  13.499
49752SOL    HW251031  14.123  11.737  13.530
49753SOL     OW51032   4.503   5.564   9.282
49753SOL    HW151033   4.576   5.524   9.329
49753SOL    HW251034   4.468   5.494   9.227
49754SOL     OW51035  13.239   6.200   4.279
49754SOL    HW151036  13.187   6.247   4.344
49754SOL    HW251037  13.176   6.149   4.229
49755SOL     OW51038  12.577   6.736   5.374
49755SOL    HW151039  12.489   6.743   5.338
49755SOL    HW251040  12.615   6.823   5.362
49756SOL     OW51041   9.984   7.327   3.165
49756SOL    HW151042   9.933   7.389   3.217
49756SOL    HW251043   9.957   7.241   3.199
49757SOL     OW51044  10.230   2.367   2.367
49757SOL    HW151045  10.254   2.441   2.312
49757SOL    HW251046  10.263   2.290   2.319
49758SOL     OW51047   9.610   8.563   5.180
49758SOL    HW151048   9.577   8.652   5.188
49758SOL    HW251049   9.534   8.512   5.152
49759SOL     OW51050   2.996   8.042   1.255
49759SOL    HW151051   3.018   8.057   1.163
49759SOL    HW251052   2.911   7.999   1.252
49760SOL     OW51053   8.385  14.672   7.746
49760SOL    HW151054   8.391  14.615   7.669
49760SOL    HW251055   8.401  14.614   7.820
49761SOL     OW51056   4.993   7.504  12.782
49761SOL    HW151057   4.951   7.420  12.799
49761SOL    HW251058   4.983   7.516  12.687
49762SOL     OW51059   7.786   0.454   4.243
49762SOL    HW151060   7.695   0.443   4.216
49762SOL    HW251061   7.809   0.542   4.214
49763SOL     OW51062   7.700  12.463  13.842
49763SOL    HW151063   7.746  12.528  13.896
49763SOL    HW251064   7.640  12.420  13.902
49764SOL     OW51065  14.082   2.597   9.968
49764SOL    HW151066  14.175   2.613   9.952
49764SOL    HW251067  14.079   2.511  10.010
49765SOL     OW51068  14.645   6.689  11.090
49765SOL    HW151069  14.728   6.732  11.066
49765SOL    HW251070  14.672   6.611  11.139
49766SOL     OW51071  10.303  12.835   4.465
49766SOL    HW151072  10.247  12.867   4.535
49766SOL    HW251073  10.243  12.799   4.400
49767SOL     OW51074   2.913   3.042   7.905
49767SOL    HW151075   2.831   3.077   7.937
49767SOL    HW251076   2.956   3.117   7.863
49768SOL     OW51077   6.730   3.644   4.860
49768SOL    HW151078   6.706   3.552   4.849
49768SOL    HW251079   6.825   3.645   4.851
49769SOL     OW51080   3.637  10.891   8.498
49769SOL    HW151081   3.657  10.953   8.568
49769SOL    HW251082   3.721  10.876   8.455
49770SOL     OW51083   7.640   6.361  12.778
49770SOL    HW151084   7.690   6.423  12.724
49770SOL    HW251085   7.583   6.417  12.831
49771SOL     OW51086   9.031  11.464  10.196
49771SOL    HW151087   9.033  11.390  10.136
49771SOL    HW251088   9.002  11.427  10.279
49772SOL     OW51089   9.634  10.403  14.257
49772SOL    HW151090   9.653  10.371  14.169
49772SOL    HW251091   9.697  10.474  14.271
49773SOL     OW51092   9.774  12.815   8.819
49773SOL    HW151093   9.769  12.786   8.910
49773SOL    HW251094   9.794  12.735   8.769
49774SOL     OW51095  11.610   4.279  12.294
49774SOL    HW151096  11.549   4.273  12.367
49774SOL    HW251097  11.621   4.373  12.280
49775SOL     OW51098   8.024   3.091   8.460
49775SOL    HW151099   7.958   3.036   8.418
49775SOL    HW251100   8.051   3.041   8.537
49776SOL     OW51101   8.052   8.665  10.178
49776SOL    HW151102   7.984   8.681  10.243
49776SOL    HW251103   8.094   8.751  10.165
49777SOL     OW51104  10.377  11.080   5.252
49777SOL    HW151105  10.465  11.114   5.270
49777SOL    HW251106  10.354  11.030   5.330
49778SOL     OW51107  11.711   9.983   1.248
49778SOL    HW151108  11.777   9.981   1.317
49778SOL    HW251109  11.753  10.030   1.176
49779SOL     OW51110   9.265   9.727   8.216
49779SOL    HW151111   9.297   9.663   8.153
49779SOL    HW251112   9.343   9.753   8.265
49780SOL     OW51113  14.248  10.411   0.267
49780SOL    HW151114  14.206  10.460   0.337
49780SOL    HW251115  14.291  10.478   0.214
49781SOL     OW51116  13.760  10.091   8.151
49781SOL    HW151117  13.801  10.071   8.235
49781SOL    HW251118  13.666  10.095   8.171
49782SOL     OW51119   5.404   1.639   0.024
49782SOL    HW151120   5.395   1.602   0.112
49782SOL    HW251121   5.475   1.703   0.033
49783SOL     OW51122  10.945   3.536   3.635
49783SOL    HW151123  10.888   3.605   3.670
49783SOL    HW251124  10.968   3.483   3.712
49784SOL     OW51125   0.517  10.577  14.799
49784SOL    HW151126   0.564  10.654  14.830
49784SOL    HW251127   0.583  10.508  14.797
49785SOL     OW51128   5.344   1.281   0.018
49785SOL    HW151129   5.402   1.313  14.827
49785SOL    HW251130   5.318   1.359   0.066
49786SOL     OW51131  10.928  12.872   6.943
49786SOL    HW151132  10.861  12.931   6.980
49786SOL    HW251133  10.878  12.807   6.894
49787SOL     OW51134   4.865   8.322  10.385
49787SOL    HW151135   4.908   8.408  10.385
49787SOL    HW251136   4.772   8.341  10.398
49788SOL     OW51137   7.014  12.323   4.568
49788SOL    HW151138   7.049  12.410   4.551
49788SOL    HW251139   6.996  12.322   4.662
49789SOL     OW51140  12.031  12.982  10.301
49789SOL    HW151141  12.085  13.046  10.348
49789SOL    HW251142  12.057  12.992  10.209
49790SOL     OW51143   0.398   8.407   3.563
49790SOL    HW151144   0.325   8.413   3.501
49790SOL    HW251145   0.359   8.371   3.642
49791SOL     OW51146   9.633   4.041   5.322
49791SOL    HW151147   9.664   3.987   5.250
49791SOL    HW251148   9.564   4.095   5.284
49792SOL     OW51149   0.548  12.957  12.682
49792SOL    HW151150   0.524  13.004  12.602
49792SOL    HW251151   0.641  12.940  12.673
49793SOL     OW51152   0.788   3.582  14.809
49793SOL    HW151153   0.698   3.569  14.840
49793SOL    HW251154   0.798   3.677  14.801
49794SOL     OW51155   3.960   2.284   7.964
49794SOL    HW151156   4.012   2.319   8.035
49794SOL    HW251157   3.871   2.314   7.982
49795SOL     OW51158   6.515   2.660   2.854
49795SOL    HW151159   6.586   2.721   2.836
49795SOL    HW251160   6.447   2.683   2.790
49796SOL     OW51161  11.314   0.246  12.145
49796SOL    HW151162  11.243   0.288  12.194
49796SOL    HW251163  11.269   0.188  12.083
49797SOL     OW51164  13.467   6.423   4.637
49797SOL    HW151165  13.385   6.451   4.596
49797SOL    HW251166  13.465   6.328   4.631
49798SOL     OW51167  10.607   4.231  11.395
49798SOL    HW151168  10.698   4.226  11.423
49798SOL    HW251169  10.557   4.197  11.469
49799SOL     OW51170   0.858   2.861   5.536
49799SOL    HW151171   0.853   2.833   5.444
49799SOL    HW251172   0.772   2.900   5.553
49800SOL     OW51173   8.945   8.348  13.566
49800SOL    HW151174   8.905   8.382  13.486
49800SOL    HW251175   9.027   8.397  13.574
49801SOL     OW51176   4.075   4.024  12.636
49801SOL    HW151177   4.135   3.976  12.578
49801SOL    HW251178   4.128   4.044  12.713
49802SOL     OW51179   1.742   8.930   8.480
49802SOL    HW151180   1.837   8.938   8.495
49802SOL    HW251181   1.729   8.838   8.458
49803SOL     OW51182   9.331   6.575   6.715
49803SOL    HW151183   9.252   6.613   6.678
49803SOL    HW251184   9.402   6.626   6.675
49804SOL     OW51185  14.777   5.588   6.038
49804SOL    HW151186  14.778   5.653   6.108
49804SOL    HW251187  14.844   5.524   6.063
49805SOL     OW51188   2.741  11.125  11.721
49805SOL    HW151189   2.717  11.216  11.705
49805SOL    HW251190   2.823  11.130  11.769
49806SOL     OW51191   5.741   6.775   8.806
49806SOL    HW151192   5.657   6.816   8.828
49806SOL    HW251193   5.762   6.721   8.882
49807SOL     OW51194   6.343   2.150   8.034
49807SOL    HW151195   6.261   2.108   8.010
49807SOL    HW251196   6.346   2.230   7.982
49808SOL     OW51197  10.547  11.593   0.303
49808SOL    HW151198  10.589  11.571   0.387
49808SOL    HW251199  10.619  11.625   0.249
49809SOL     OW51200  14.074   1.990  12.687
49809SOL    HW151201  14.111   1.912  12.646
49809SOL    HW251202  14.093   2.061  12.627
49810SOL     OW51203  13.880   6.104  11.805
49810SOL    HW151204  13.791   6.134  11.822
49810SOL    HW251205  13.917   6.172  11.747
49811SOL     OW51206   4.957   6.408  14.179
49811SOL    HW151207   5.034   6.465  14.182
49811SOL    HW251208   4.935   6.401  14.086
49812SOL     OW51209  11.147   5.374  14.105
49812SOL    HW151210  11.083   5.344  14.170
49812SOL    HW251211  11.131   5.319  14.029
49813SOL     OW51212   3.790  14.047   3.944
49813SOL    HW151213   3.791  14.008   4.031
49813SOL    HW251214   3.712  14.102   3.942
49814SOL     OW51215   4.299  14.715  13.831
49814SOL    HW151216   4.295  14.762  13.914
49814SOL    HW251217   4.278  14.624  13.853
49815SOL     OW51218   4.934  13.447   4.349
49815SOL    HW151219   4.903  13.370   4.301
49815SOL    HW251220   4.860  13.509   4.344
49816SOL     OW51221   3.340  14.288   8.339
49816SOL    HW151222   3.278  14.234   8.388
49816SOL    HW251223   3.418  14.291   8.395
49817SOL     OW51224   2.950  10.778  10.093
49817SOL    HW151225   2.970  10.695  10.050
49817SOL    HW251226   3.000  10.775  10.175
49818SOL     OW51227  13.907  11.781   8.000
49818SOL    HW151228  13.835  11.795   8.062
49818SOL    HW251229  13.869  11.723   7.934
49819SOL     OW51230   1.252   1.846   3.809
49819SOL    HW151231   1.331   1.895   3.833
49819SOL    HW251232   1.200   1.844   3.889
49820SOL     OW51233   2.695  10.447  14.102
49820SOL    HW151234   2.629  10.435  14.033
49820SOL    HW251235   2.778  10.425  14.060
49821SOL     OW51236   8.671   4.045   1.952
49821SOL    HW151237   8.620   3.964   1.949
49821SOL    HW251238   8.664   4.081   1.863
49822SOL     OW51239   8.057   5.026  13.962
49822SOL    HW151240   8.092   5.100  13.912
49822SOL    HW251241   7.987   4.991  13.907
49823SOL     OW51242   1.410  14.692   0.859
49823SOL    HW151243   1.368  14.712   0.776
49823SOL    HW251244   1.351  14.727   0.925
49824SOL     OW51245   7.181   1.828   6.029
49824SOL    HW151246   7.197   1.873   6.111
49824SOL    HW251247   7.267   1.794   6.002
49825SOL     OW51248   4.611   2.412   8.268
49825SOL    HW151249   4.562   2.408   8.186
49825SOL    HW251250   4.669   2.336   8.265
49826SOL     OW51251   1.811   1.853   9.499
49826SOL    HW151252   1.895   1.808   9.490
49826SOL    HW251253   1.759   1.796   9.557
49827SOL     OW51254   8.057   6.545  11.544
49827SOL    HW151255   8.143   6.537  11.504
49827SOL    HW251256   8.053   6.474  11.607
49828SOL     OW51257   4.734  10.503  13.625
49828SOL    HW151258   4.720  10.416  13.664
49828SOL    HW251259   4.798  10.488  13.555
49829SOL     OW51260  11.907   1.126  14.774
49829SOL    HW151261  11.847   1.057  14.747
49829SOL    HW251262  11.984   1.080  14.806
49830SOL     OW51263   9.166   8.074   4.897
49830SOL    HW151264   9.082   8.031   4.911
49830SOL    HW251265   9.143   8.161   4.865
49831SOL     OW51266  10.388   6.711   2.250
49831SOL    HW151267  10.460   6.650   2.267
49831SOL    HW251268  10.364   6.695   2.159
49832SOL     OW51269   3.584   5.564   1.733
49832SOL    HW151270   3.594   5.610   1.817
49832SOL    HW251271   3.668   5.520   1.720
49833SOL     OW51272   7.351   2.233   6.971
49833SOL    HW151273   7.268   2.275   6.949
49833SOL    HW251274   7.408   2.252   6.896
49834SOL     OW51275   4.918   6.817   8.370
49834SOL    HW151276   4.869   6.899   8.376
49834SOL    HW251277   4.990   6.836   8.310
49835SOL     OW51278   5.425   1.644   4.478
49835SOL    HW151279   5.387   1.562   4.445
49835SOL    HW251280   5.445   1.694   4.399
49836SOL     OW51281   3.089  14.615   2.865
49836SOL    HW151282   3.130  14.674   2.928
49836SOL    HW251283   3.162  14.575   2.818
49837SOL     OW51284   5.703  11.007  12.615
49837SOL    HW151285   5.662  10.938  12.667
49837SOL    HW251286   5.775  11.039  12.669
49838SOL     OW51287   5.770   0.213   1.943
49838SOL    HW151288   5.835   0.184   2.008
49838SOL    HW251289   5.817   0.277   1.890
49839SOL     OW51290  11.847  13.357  10.806
49839SOL    HW151291  11.932  13.330  10.840
49839SOL    HW251292  11.796  13.276  10.804
49840SOL     OW51293   5.746   7.158   1.011
49840SOL    HW151294   5.824   7.212   1.019
49840SOL    HW251295   5.692   7.182   1.087
49841SOL     OW51296  10.352  12.684   7.510
49841SOL    HW151297  10.348  12.592   7.483
49841SOL    HW251298  10.428  12.688   7.568
49842SOL     OW51299  13.733  11.278   2.197
49842SOL    HW151300  13.657  11.232   2.161
49842SOL    HW251301  13.772  11.215   2.258
49843SOL     OW51302   0.531   2.640  10.518
49843SOL    HW151303   0.626   2.630  10.514
49843SOL    HW251304   0.497   2.575  10.456
49844SOL     OW51305   6.876   5.120   3.927
49844SOL    HW151306   6.944   5.067   3.885
49844SOL    HW251307   6.873   5.200   3.875
49845SOL     OW51308   5.717  11.511   8.469
49845SOL    HW151309   5.731  11.592   8.419
49845SOL    HW251310   5.732  11.536   8.560
49846SOL     OW51311   6.295   0.185   9.353
49846SOL    HW151312   6.321   0.172   9.444
49846SOL    HW251313   6.378   0.191   9.305
49847SOL     OW51314   9.670   4.148  13.496
49847SOL    HW151315   9.685   4.189  13.411
49847SOL    HW251316   9.752   4.161  13.543
49848SOL     OW51317   3.661   3.312   1.355
49848SOL    HW151318   3.576   3.348   1.331
49848SOL    HW251319   3.642   3.223   1.386
49849SOL     OW51320   3.778   0.207   4.638
49849SOL    HW151321   3.813   0.119   4.628
49849SOL    HW251322   3.848   0.256   4.682
49850SOL     OW51323   3.758  13.039   0.982
49850SOL    HW151324   3.840  13.004   1.016
49850SOL    HW251325   3.738  13.113   1.040
49851SOL     OW51326   7.423   1.203  12.326
49851SOL    HW151327   7.506   1.204  12.374
49851SOL    HW251328   7.399   1.296  12.319
49852SOL     OW51329  11.147   5.701  13.241
49852SOL    HW151330  11.110   5.748  13.167
49852SOL    HW251331  11.229   5.746  13.260
49853SOL     OW51332   9.059  11.247   9.427
49853SOL    HW151333   9.002  11.258   9.503
49853SOL    HW251334   9.062  11.153   9.412
49854SOL     OW51335   2.952  11.604  12.944
49854SOL    HW151336   2.917  11.525  12.986
49854SOL    HW251337   3.047  11.595  12.951
49855SOL     OW51338  10.457  10.772  13.098
49855SOL    HW151339  10.423  10.860  13.085
49855SOL    HW251340  10.550  10.779  13.076
49856SOL     OW51341  13.284  11.447   9.719
49856SOL    HW151342  13.296  11.470   9.811
49856SOL    HW251343  13.329  11.516   9.670
49857SOL     OW51344  12.738  12.152   8.175
49857SOL    HW151345  12.656  12.104   8.186
49857SOL    HW251346  12.730  12.195   8.090
49858SOL     OW51347   8.797   4.341  11.809
49858SOL    HW151348   8.816   4.247  11.813
49858SOL    HW251349   8.820   4.367  11.720
49859SOL     OW51350   5.099  13.090   4.245
49859SOL    HW151351   5.017  13.041   4.245
49859SOL    HW251352   5.112  13.113   4.153
49860SOL     OW51353  10.659   9.832   3.202
49860SOL    HW151354  10.600   9.858   3.272
49860SOL    HW251355  10.613   9.855   3.122
49861SOL     OW51356   9.647  10.626   6.479
49861SOL    HW151357   9.632  10.667   6.394
49861SOL    HW251358   9.720  10.565   6.464
49862SOL     OW51359   1.350   2.156   2.750
49862SOL    HW151360   1.319   2.232   2.800
49862SOL    HW251361   1.345   2.185   2.659
49863SOL     OW51362  12.539  10.013  12.120
49863SOL    HW151363  12.633   9.999  12.109
49863SOL    HW251364  12.502   9.925  12.117
49864SOL     OW51365  14.318  14.588  12.781
49864SOL    HW151366  14.263  14.667  12.782
49864SOL    HW251367  14.280  14.534  12.712
49865SOL     OW51368   3.780   2.962   6.443
49865SOL    HW151369   3.728   2.890   6.480
49865SOL    HW251370   3.727   3.040   6.457
49866SOL     OW51371   5.338   5.502   6.580
49866SOL    HW151372   5.375   5.464   6.501
49866SOL    HW251373   5.273   5.565   6.548
49867SOL     OW51374  10.409   6.294   1.387
49867SOL    HW151375  10.383   6.205   1.362
49867SOL    HW251376  10.503   6.297   1.368
49868SOL     OW51377   9.717  11.588   9.449
49868SOL    HW151378   9.690  11.607   9.538
49868SOL    HW251379   9.639  11.605   9.396
49869SOL     OW51380   1.443   0.216  14.106
49869SOL    HW151381   1.396   0.209  14.023
49869SOL    HW251382   1.421   0.304  14.138
49870SOL     OW51383  13.624   7.976  13.737
49870SOL    HW151384  13.635   8.070  13.719
49870SOL    HW251385  13.686   7.934  13.678
49871SOL     OW51386   0.466   2.927   4.071
49871SOL    HW151387   0.483   3.013   4.109
49871SOL    HW251388   0.392   2.941   4.011
49872SOL     OW51389   9.973   9.600   0.481
49872SOL    HW151390  10.055   9.551   0.482
49872SOL    HW251391   9.909   9.540   0.521
49873SOL     OW51392   5.361  11.422   5.832
49873SOL    HW151393   5.306  11.462   5.765
49873SOL    HW251394   5.302  11.412   5.907
49874SOL     OW51395  14.125  14.487   9.010
49874SOL    HW151396  14.156  14.402   8.978
49874SOL    HW251397  14.037  14.496   8.973
49875SOL     OW51398  11.751   9.697  12.265
49875SOL    HW151399  11.691   9.694  12.190
49875SOL    HW251400  11.788   9.609  12.269
49876SOL     OW51401   0.045   3.156   9.883
49876SOL    HW151402  14.855   3.219   9.857
49876SOL    HW251403   0.103   3.151   9.807
49877SOL     OW51404   5.989   8.527   1.057
49877SOL    HW151405   5.933   8.453   1.077
49877SOL    HW251406   5.996   8.575   1.140
49878SOL     OW51407   5.935   4.099  10.056
49878SOL    HW151408   6.012   4.141  10.095
49878SOL    HW251409   5.944   4.007  10.080
49879SOL     OW51410   4.386  10.398   7.220
49879SOL    HW151411   4.307  10.355   7.255
49879SOL    HW251412   4.458  10.346   7.256
49880SOL     OW51413  14.876   9.180   7.345
49880SOL    HW151414   0.017   9.263   7.301
49880SOL    HW251415  14.833   9.127   7.277
49881SOL     OW51416  12.435   5.674  14.427
49881SOL    HW151417  12.466   5.648  14.513
49881SOL    HW251418  12.369   5.609  14.404
49882SOL     OW51419  12.396   1.516   4.540
49882SOL    HW151420  12.376   1.533   4.448
49882SOL    HW251421  12.458   1.443   4.538
49883SOL     OW51422   5.070  13.811  11.552
49883SOL    HW151423   5.045  13.786  11.463
49883SOL    HW251424   5.138  13.748  11.576
49884SOL     OW51425   4.492   2.967  13.824
49884SOL    HW151426   4.468   2.901  13.889
49884SOL    HW251427   4.534   3.037  13.875
49885SOL     OW51428   8.314  12.625   5.250
49885SOL    HW151429   8.305  12.556   5.184
49885SOL    HW251430   8.349  12.581   5.327
49886SOL     OW51431  10.228   5.043   7.951
49886SOL    HW151432  10.207   4.971   8.010
49886SOL    HW251433  10.295   5.008   7.892
49887SOL     OW51434  13.352   6.735   9.646
49887SOL    HW151435  13.357   6.699   9.735
49887SOL    HW251436  13.294   6.675   9.599
49888SOL     OW51437   3.346   2.772   3.729
49888SOL    HW151438   3.356   2.730   3.814
49888SOL    HW251439   3.424   2.745   3.680
49889SOL     OW51440  12.432  11.485   3.315
49889SOL    HW151441  12.500  11.522   3.371
49889SOL    HW251442  12.471  11.485   3.228
49890SOL     OW51443   4.704   7.982   3.049
49890SOL    HW151444   4.749   7.908   3.008
49890SOL    HW251445   4.689   7.954   3.139
49891SOL     OW51446   6.683  10.924   4.318
49891SOL    HW151447   6.706  10.855   4.380
49891SOL    HW251448   6.725  11.002   4.353
49892SOL     OW51449   7.530   9.550  13.867
49892SOL    HW151450   7.531   9.606  13.790
49892SOL    HW251451   7.586   9.476  13.843
49893SOL     OW51452  10.615   9.735   8.310
49893SOL    HW151453  10.529   9.777   8.311
49893SOL    HW251454  10.597   9.642   8.321
49894SOL     OW51455   4.455  12.645   3.032
49894SOL    HW151456   4.538  12.598   3.039
49894SOL    HW251457   4.479  12.737   3.039
49895SOL     OW51458   9.855   0.917   3.002
49895SOL    HW151459   9.910   0.851   2.959
49895SOL    HW251460   9.772   0.873   3.016
49896SOL     OW51461  12.487  10.793  14.010
49896SOL    HW151462  12.505  10.868  13.955
49896SOL    HW251463  12.394  10.801  14.031
49897SOL     OW51464   5.919   2.999  10.841
49897SOL    HW151465   5.885   3.083  10.871
49897SOL    HW251466   5.924   2.945  10.920
49898SOL     OW51467   7.436  12.750  12.632
49898SOL    HW151468   7.520  12.733  12.589
49898SOL    HW251469   7.434  12.845  12.644
49899SOL     OW51470   9.747   3.788   1.330
49899SOL    HW151471   9.811   3.800   1.400
49899SOL    HW251472   9.796   3.806   1.250
49900SOL     OW51473  14.669   2.157   5.861
49900SOL    HW151474  14.723   2.229   5.893
49900SOL    HW251475  14.595   2.200   5.818
49901SOL     OW51476  12.019   8.416   5.435
49901SOL    HW151477  12.009   8.510   5.454
49901SOL    HW251478  12.014   8.373   5.520
49902SOL     OW51479  12.650   4.522   5.313
49902SOL    HW151480  12.722   4.487   5.261
49902SOL    HW251481  12.599   4.574   5.252
49903SOL     OW51482  11.500  13.010   5.693
49903SOL    HW151483  11.448  12.944   5.646
49903SOL    HW251484  11.449  13.090   5.686
49904SOL     OW51485   1.991   6.223  13.209
49904SOL    HW151486   1.965   6.299  13.158
49904SOL    HW251487   2.084   6.236  13.228
49905SOL     OW51488  14.075   5.225   0.612
49905SOL    HW151489  14.132   5.299   0.634
49905SOL    HW251490  14.124   5.175   0.547
49906SOL     OW51491   2.835   3.478   7.423
49906SOL    HW151492   2.791   3.539   7.482
49906SOL    HW251493   2.901   3.435   7.477
49907SOL     OW51494   0.585   3.979   3.612
49907SOL    HW151495   0.575   3.885   3.622
49907SOL    HW251496   0.517   4.004   3.549
49908SOL     OW51497   3.502  13.520   3.836
49908SOL    HW151498   3.535  13.608   3.819
49908SOL    HW251499   3.511  13.509   3.931
49909SOL     OW51500  10.948   5.350  12.945
49909SOL    HW151501  10.939   5.398  13.027
49909SOL    HW251502  11.027   5.387  12.904
49910SOL     OW51503   3.127  13.421   6.806
49910SOL    HW151504   3.164  13.333   6.803
49910SOL    HW251505   3.107  13.443   6.715
49911SOL     OW51506  11.151   1.304   0.606
49911SOL    HW151507  11.067   1.260   0.624
49911SOL    HW251508  11.212   1.233   0.588
49912SOL     OW51509  10.782  10.109   5.734
49912SOL    HW151510  10.700  10.085   5.776
49912SOL    HW251511  10.797  10.040   5.669
49913SOL     OW51512   3.344   5.378  14.833
49913SOL    HW151513   3.280   5.331   0.009
49913SOL    HW251514   3.403   5.419   0.018
49914SOL     OW51515   5.637   0.920   2.044
49914SOL    HW151516   5.709   0.980   2.026
49914SOL    HW251517   5.624   0.872   1.962
49915SOL     OW51518  12.728   6.118  10.541
49915SOL    HW151519  12.678   6.180  10.594
49915SOL    HW251520  12.721   6.151  10.451
49916SOL     OW51521   9.864  11.751   1.177
49916SOL    HW151522   9.803  11.825   1.177
49916SOL    HW251523   9.817  11.681   1.223
49917SOL     OW51524   6.238   3.320   2.395
49917SOL    HW151525   6.327   3.351   2.381
49917SOL    HW251526   6.218   3.343   2.486
49918SOL     OW51527  12.721   7.077   2.926
49918SOL    HW151528  12.661   7.151   2.922
49918SOL    HW251529  12.806   7.115   2.946
49919SOL     OW51530   1.156   5.850  12.040
49919SOL    HW151531   1.141   5.834  11.947
49919SOL    HW251532   1.086   5.909  12.066
49920SOL     OW51533   9.053   2.882  11.941
49920SOL    HW151534   9.112   2.931  11.884
49920SOL    HW251535   9.104   2.866  12.020
49921SOL     OW51536   3.385   5.637  12.645
49921SOL    HW151537   3.361   5.728  12.631
49921SOL    HW251538   3.374   5.595  12.560
49922SOL     OW51539  10.846  13.474   4.964
49922SOL    HW151540  10.818  13.539   4.899
49922SOL    HW251541  10.883  13.403   4.912
49923SOL     OW51542  13.790   6.197   3.304
49923SOL    HW151543  13.873   6.240   3.283
49923SOL    HW251544  13.810   6.144   3.382
49924SOL     OW51545  11.828   5.771   5.341
49924SOL    HW151546  11.766   5.823   5.291
49924SOL    HW251547  11.914   5.810   5.322
49925SOL     OW51548   6.251   9.150   1.195
49925SOL    HW151549   6.177   9.092   1.178
49925SOL    HW251550   6.299   9.153   1.112
49926SOL     OW51551  11.484  10.740  12.756
49926SOL    HW151552  11.478  10.674  12.688
49926SOL    HW251553  11.411  10.721  12.814
49927SOL     OW51554  10.375   7.902   1.546
49927SOL    HW151555  10.281   7.916   1.557
49927SOL    HW251556  10.415   7.947   1.621
49928SOL     OW51557  11.193  12.479   4.812
49928SOL    HW151558  11.106  12.443   4.795
49928SOL    HW251559  11.205  12.547   4.747
49929SOL     OW51560   1.801   4.343   5.804
49929SOL    HW151561   1.721   4.300   5.774
49929SOL    HW251562   1.820   4.408   5.736
49930SOL     OW51563   4.486  10.483   8.335
49930SOL    HW151564   4.567  10.530   8.352
49930SOL    HW251565   4.467  10.501   8.243
49931SOL     OW51566   0.836   6.905   8.066
49931SOL    HW151567   0.809   6.905   7.974
49931SOL    HW251568   0.763   6.945   8.112
49932SOL     OW51569   1.067   3.312   5.908
49932SOL    HW151570   1.010   3.254   5.857
49932SOL    HW251571   1.060   3.280   5.998
49933SOL     OW51572  14.572   4.468  12.238
49933SOL    HW151573  14.523   4.396  12.198
49933SOL    HW251574  14.586   4.529  12.166
49934SOL     OW51575  11.996  14.512   7.131
49934SOL    HW151576  12.024  14.601   7.148
49934SOL    HW251577  12.067  14.457   7.165
49935SOL     OW51578  11.087   3.372  13.995
49935SOL    HW151579  11.149   3.300  14.004
49935SOL    HW251580  11.141   3.447  13.967
49936SOL     OW51581   2.159  10.870   6.457
49936SOL    HW151582   2.252  10.892   6.456
49936SOL    HW251583   2.156  10.781   6.491
49937SOL     OW51584   9.640   1.583   8.418
49937SOL    HW151585   9.673   1.593   8.328
49937SOL    HW251586   9.547   1.568   8.407
49938SOL     OW51587   8.633   7.159   4.475
49938SOL    HW151588   8.557   7.184   4.527
49938SOL    HW251589   8.694   7.232   4.483
49939SOL     OW51590  10.369  13.528   8.667
49939SOL    HW151591  10.414  13.449   8.698
49939SOL    HW251592  10.294  13.538   8.725
49940SOL     OW51593   7.692   7.920   7.736
49940SOL    HW151594   7.771   7.907   7.788
49940SOL    HW251595   7.715   7.990   7.674
49941SOL     OW51596   0.917  11.090   5.210
49941SOL    HW151597   0.855  11.076   5.139
49941SOL    HW251598   0.984  11.023   5.197
49942SOL     OW51599  12.740   0.993  10.188
49942SOL    HW151600  12.761   1.030  10.102
49942SOL    HW251601  12.737   1.068  10.246
49943SOL     OW51602   8.890   5.106   7.160
49943SOL    HW151603   8.875   5.026   7.110
49943SOL    HW251604   8.914   5.172   7.095
49944SOL     OW51605  12.407  10.745   6.742
49944SOL    HW151606  12.388  10.813   6.808
49944SOL    HW251607  12.485  10.701   6.776
49945SOL     OW51608  13.931  14.387  13.983
49945SOL    HW151609  13.977  14.463  13.947
49945SOL    HW251610  13.891  14.419  14.064
49946SOL     OW51611   2.584  10.547  10.839
49946SOL    HW151612   2.555  10.595  10.762
49946SOL    HW251613   2.614  10.614  10.900
49947SOL     OW51614   9.726   8.484  14.692
49947SOL    HW151615   9.759   8.416  14.633
49947SOL    HW251616   9.645   8.447  14.728
49948SOL     OW51617   5.002  14.547  12.851
49948SOL    HW151618   4.970  14.467  12.893
49948SOL    HW251619   5.075  14.576  12.906
49949SOL     OW51620  14.555   0.565   1.991
49949SOL    HW151621  14.611   0.637   1.961
49949SOL    HW251622  14.604   0.525   2.062
49950SOL     OW51623   4.253   9.295   5.728
49950SOL    HW151624   4.159   9.280   5.723
49950SOL    HW251625   4.285   9.270   5.641
49951SOL     OW51626   9.232  12.234  10.991
49951SOL    HW151627   9.269  12.298  10.931
49951SOL    HW251628   9.227  12.153  10.941
49952SOL     OW51629   2.032  10.264   9.286
49952SOL    HW151630   2.089  10.186   9.291
49952SOL    HW251631   1.943  10.228   9.282
49953SOL     OW51632   5.301   6.123  11.560
49953SOL    HW151633   5.216   6.082  11.544
49953SOL    HW251634   5.364   6.051  11.559
49954SOL     OW51635   3.001   5.361  13.152
49954SOL    HW151636   3.029   5.285  13.101
49954SOL    HW251637   3.057   5.432  13.120
49955SOL     OW51638  12.012  12.406  14.434
49955SOL    HW151639  12.066  12.480  14.463
49955SOL    HW251640  11.923  12.442  14.429
49956SOL     OW51641  13.886  14.760   7.830
49956SOL    HW151642  13.799  14.724   7.811
49956SOL    HW251643  13.868  14.837   7.884
49957SOL     OW51644   1.123  12.241   8.392
49957SOL    HW151645   1.038  12.217   8.356
49957SOL    HW251646   1.114  12.227   8.486
49958SOL     OW51647  11.672  12.240   7.429
49958SOL    HW151648  11.683  12.282   7.344
49958SOL    HW251649  11.652  12.312   7.489
49959SOL     OW51650  10.802   6.580   1.040
49959SOL    HW151651  10.797   6.572   0.945
49959SOL    HW251652  10.746   6.509   1.073
49960SOL     OW51653   1.377   5.569  11.384
49960SOL    HW151654   1.470   5.576  11.407
49960SOL    HW251655   1.376   5.566  11.288
49961SOL     OW51656   7.323  12.673   2.624
49961SOL    HW151657   7.326  12.688   2.530
49961SOL    HW251658   7.414  12.685   2.653
49962SOL     OW51659   5.561   1.569  11.394
49962SOL    HW151660   5.500   1.577  11.467
49962SOL    HW251661   5.505   1.560  11.317
49963SOL     OW51662  13.778  12.094   1.435
49963SOL    HW151663  13.734  12.167   1.478
49963SOL    HW251664  13.811  12.040   1.507
49964SOL     OW51665  14.359   7.278  11.634
49964SOL    HW151666  14.416   7.303  11.562
49964SOL    HW251667  14.271   7.282  11.596
49965SOL     OW51668   3.127   1.059   3.606
49965SOL    HW151669   3.115   1.151   3.632
49965SOL    HW251670   3.175   1.019   3.679
49966SOL     OW51671  12.223   6.785   1.779
49966SOL    HW151672  12.254   6.869   1.814
49966SOL    HW251673  12.134   6.804   1.748
49967SOL     OW51674   7.490  11.607  13.581
49967SOL    HW151675   7.574  11.631  13.619
49967SOL    HW251676   7.429  11.673  13.615
49968SOL     OW51677   3.703   4.593  14.689
49968SOL    HW151678   3.752   4.671  14.664
49968SOL    HW251679   3.614   4.609  14.659
49969SOL     OW51680   8.724  14.421   9.144
49969SOL    HW151681   8.679  14.471   9.076
49969SOL    HW251682   8.685  14.452   9.226
49970SOL     OW51683  11.626  10.278   0.625
49970SOL    HW151684  11.543  10.251   0.588
49970SOL    HW251685  11.632  10.232   0.709
49971SOL     OW51686  14.100   0.136  10.723
49971SOL    HW151687  14.072   0.142  10.814
49971SOL    HW251688  14.108   0.226  10.694
49972SOL     OW51689   6.483   6.056  13.808
49972SOL    HW151690   6.483   6.023  13.899
49972SOL    HW251691   6.404   6.017  13.770
49973SOL     OW51692  13.661   2.279  14.579
49973SOL    HW151693  13.730   2.223  14.614
49973SOL    HW251694  13.707   2.347  14.531
49974SOL     OW51695   0.382   5.158  13.578
49974SOL    HW151696   0.302   5.157  13.630
49974SOL    HW251697   0.393   5.250  13.554
49975SOL     OW51698   7.896  11.505   2.982
49975SOL    HW151699   7.848  11.429   2.947
49975SOL    HW251700   7.827  11.563   3.015
49976SOL     OW51701   9.072   3.927   0.671
49976SOL    HW151702   8.991   3.910   0.623
49976SOL    HW251703   9.043   3.944   0.761
49977SOL     OW51704  13.538   1.248  12.857
49977SOL    HW151705  13.549   1.294  12.774
49977SOL    HW251706  13.469   1.184  12.841
49978SOL     OW51707  11.489   5.899  10.929
49978SOL    HW151708  11.409   5.883  10.979
49978SOL    HW251709  11.481   5.990  10.900
49979SOL     OW51710   1.210   7.133  10.709
49979SOL    HW151711   1.176   7.045  10.729
49979SOL    HW251712   1.303   7.128  10.729
49980SOL     OW51713   5.378  14.456   0.185
49980SOL    HW151714   5.427  14.387   0.138
49980SOL    HW251715   5.287  14.429   0.178
49981SOL     OW51716  12.575  13.381   1.433
49981SOL    HW151717  12.545  13.291   1.442
49981SOL    HW251718  12.608  13.405   1.519
49982SOL     OW51719   1.597   4.393   3.185
49982SOL    HW151720   1.521   4.416   3.132
49982SOL    HW251721   1.561   4.360   3.267
49983SOL     OW51722   0.196  13.784   0.214
49983SOL    HW151723   0.285  13.810   0.236
49983SOL    HW251724   0.186  13.697   0.251
49984SOL     OW51725  11.696  12.323   4.874
49984SOL    HW151726  11.610  12.340   4.914
49984SOL    HW251727  11.698  12.228   4.859
49985SOL     OW51728  13.180   4.104  10.701
49985SOL    HW151729  13.174   4.057  10.784
49985SOL    HW251730  13.100   4.078  10.654
49986SOL     OW51731  11.767  10.249   9.988
49986SOL    HW151732  11.814  10.246   9.905
49986SOL    HW251733  11.692  10.191   9.976
49987SOL     OW51734   5.090   6.529  10.685
49987SOL    HW151735   5.133   6.612  10.664
49987SOL    HW251736   5.132   6.499  10.765
49988SOL     OW51737   3.827   7.370   2.321
49988SOL    HW151738   3.914   7.363   2.282
49988SOL    HW251739   3.822   7.295   2.381
49989SOL     OW51740   5.480  13.252   8.402
49989SOL    HW151741   5.474  13.339   8.441
49989SOL    HW251742   5.442  13.193   8.466
49990SOL     OW51743   3.427  10.025   9.530
49990SOL    HW151744   3.476   9.963   9.582
49990SOL    HW251745   3.493  10.073   9.480
49991SOL     OW51746   4.207   8.749   8.531
49991SOL    HW151747   4.219   8.716   8.619
49991SOL    HW251748   4.144   8.821   8.541
49992SOL     OW51749   8.839   1.182   9.834
49992SOL    HW151750   8.819   1.212   9.922
49992SOL    HW251751   8.875   1.094   9.846
49993SOL     OW51752   8.134   9.221  12.461
49993SOL    HW151753   8.217   9.261  12.435
49993SOL    HW251754   8.157   9.130  12.481
49994SOL     OW51755   2.915  11.762  13.684
49994SOL    HW151756   2.860  11.840  13.682
49994SOL    HW251757   2.981  11.777  13.617
49995SOL     OW51758   0.869  13.515   2.747
49995SOL    HW151759   0.791  13.525   2.803
49995SOL    HW251760   0.928  13.461   2.799
49996SOL     OW51761  12.676   2.333  10.879
49996SOL    HW151762  12.754   2.308  10.829
49996SOL    HW251763  12.689   2.426  10.899
49997SOL     OW51764   1.739   2.494   3.820
49997SOL    HW151765   1.654   2.510   3.780
49997SOL    HW251766   1.802   2.510   3.750
49998SOL     OW51767   8.202  10.093   5.004
49998SOL    HW151768   8.194  10.068   4.912
49998SOL    HW251769   8.115  10.126   5.027
49999SOL     OW51770   9.490   0.025  10.589
49999SOL    HW151771   9.580   0.001  10.612
49999SOL    HW251772   9.441  14.821  10.597
50000SOL     OW51773   7.437   0.300   8.719
50000SOL    HW151774   7.424   0.345   8.802
50000SOL    HW251775   7.522   0.331   8.687
50001SOL     OW51776  14.421   8.224   2.378
50001SOL    HW151777  14.387   8.210   2.290
50001SOL    HW251778  14.515   8.234   2.366
50002SOL     OW51779   7.251   0.400   4.677
50002SOL    HW151780   7.302   0.453   4.616
50002SOL    HW251781   7.300   0.318   4.684
50003SOL     OW51782   7.393   0.425   1.992
50003SOL    HW151783   7.307   0.406   2.030
50003SOL    HW251784   7.376   0.490   1.924
50004SOL     OW51785   8.287   1.337   1.900
50004SOL    HW151786   8.247   1.295   1.977
50004SOL    HW251787   8.294   1.429   1.924
50005SOL     OW51788  11.608  11.809   9.895
50005SOL    HW151789  11.590  11.824   9.988
50005SOL    HW251790  11.586  11.892   9.852
50006SOL     OW51791   6.613  10.384  13.209
50006SOL    HW151792   6.640  10.307  13.157
50006SOL    HW251793   6.517  10.380  13.209
50007SOL     OW51794  12.159  11.334   4.005
50007SOL    HW151795  12.250  11.346   3.976
50007SOL    HW251796  12.122  11.272   3.942
50008SOL     OW51797   4.652   2.269   6.926
50008SOL    HW151798   4.600   2.347   6.945
50008SOL    HW251799   4.724   2.272   6.988
50009SOL     OW51800   6.958  12.885   0.073
50009SOL    HW151801   6.867  12.894   0.101
50009SOL    HW251802   6.985  12.974   0.051
50010SOL     OW51803   7.715  11.939   3.661
50010SOL    HW151804   7.728  11.957   3.754
50010SOL    HW251805   7.656  11.864   3.659
50011SOL     OW51806  10.888  13.838  10.741
50011SOL    HW151807  10.978  13.838  10.773
50011SOL    HW251808  10.844  13.907  10.791
50012SOL     OW51809   7.859   1.881   1.845
50012SOL    HW151810   7.827   1.969   1.863
50012SOL    HW251811   7.925   1.892   1.777
50013SOL     OW51812  12.608  12.012   8.596
50013SOL    HW151813  12.665  12.050   8.530
50013SOL    HW251814  12.538  12.077   8.607
50014SOL     OW51815   9.596   4.973  11.425
50014SOL    HW151816   9.567   4.988  11.335
50014SOL    HW251817   9.582   5.057  11.469
50015SOL     OW51818   7.836  13.264  14.819
50015SOL    HW151819   7.756  13.231  14.860
50015SOL    HW251820   7.845  13.212  14.739
50016SOL     OW51821  13.206  14.704  10.960
50016SOL    HW151822  13.287  14.677  11.002
50016SOL    HW251823  13.233  14.733  10.873
50017SOL     OW51824  11.803  13.104   3.974
50017SOL    HW151825  11.792  13.049   3.896
50017SOL    HW251826  11.778  13.046   4.046
50018SOL     OW51827   5.465  14.409   2.733
50018SOL    HW151828   5.383  14.374   2.767
50018SOL    HW251829   5.532  14.351   2.770
50019SOL     OW51830  11.573   6.785   4.688
50019SOL    HW151831  11.518   6.708   4.673
50019SOL    HW251832  11.641   6.754   4.748
50020SOL     OW51833  11.139   3.088  10.980
50020SOL    HW151834  11.200   3.032  11.027
50020SOL    HW251835  11.054   3.044  10.989
50021SOL     OW51836   1.700  13.387   0.072
50021SOL    HW151837   1.782  13.429   0.099
50021SOL    HW251838   1.653  13.455   0.024
50022SOL     OW51839   4.499   8.593   3.123
50022SOL    HW151840   4.442   8.653   3.075
50022SOL    HW251841   4.570   8.648   3.155
50023SOL     OW51842  12.757   6.219   3.009
50023SOL    HW151843  12.815   6.283   2.968
50023SOL    HW251844  12.736   6.158   2.939
50024SOL     OW51845   8.177   7.575  11.289
50024SOL    HW151846   8.144   7.488  11.313
50024SOL    HW251847   8.257   7.558  11.239
50025SOL     OW51848   4.589   6.419   0.053
50025SOL    HW151849   4.653   6.350   0.064
50025SOL    HW251850   4.586   6.435  14.837
50026SOL     OW51851  11.791  10.456   1.284
50026SOL    HW151852  11.700  10.472   1.308
50026SOL    HW251853  11.837  10.445   1.367
50027SOL     OW51854  12.898  12.564   0.325
50027SOL    HW151855  12.823  12.548   0.267
50027SOL    HW251856  12.964  12.605   0.270
50028SOL     OW51857  13.027   4.882   5.799
50028SOL    HW151858  13.049   4.973   5.819
50028SOL    HW251859  12.938   4.871   5.834
50029SOL     OW51860  12.714   3.567   8.054
50029SOL    HW151861  12.621   3.589   8.058
50029SOL    HW251862  12.723   3.512   7.976
50030SOL     OW51863  11.882   7.238   0.890
50030SOL    HW151864  11.812   7.295   0.856
50030SOL    HW251865  11.889   7.168   0.825
50031SOL     OW51866   5.247  13.538  14.471
50031SOL    HW151867   5.163  13.569  14.438
50031SOL    HW251868   5.290  13.500  14.394
50032SOL     OW51869  12.319  12.417  13.027
50032SOL    HW151870  12.286  12.505  13.044
50032SOL    HW251871  12.388  12.404  13.093
50033SOL     OW51872   0.297   7.255  12.507
50033SOL    HW151873   0.265   7.171  12.540
50033SOL    HW251874   0.335   7.298  12.584
50034SOL     OW51875  14.197   0.517   6.859
50034SOL    HW151876  14.160   0.429   6.864
50034SOL    HW251877  14.142   0.569   6.917
50035SOL     OW51878   9.294   4.693   1.073
50035SOL    HW151879   9.339   4.713   1.155
50035SOL    HW251880   9.205   4.725   1.086
50036SOL     OW51881   8.511  12.455   9.954
50036SOL    HW151882   8.569  12.531   9.943
50036SOL    HW251883   8.515  12.410   9.869
50037SOL     OW51884  10.442   3.963   2.778
50037SOL    HW151885  10.416   3.874   2.756
50037SOL    HW251886  10.359   4.011   2.785
50038SOL     OW51887   1.723  11.496  12.249
50038SOL    HW151888   1.695  11.575  12.295
50038SOL    HW251889   1.802  11.521  12.203
50039SOL     OW51890   4.921   8.012   9.636
50039SOL    HW151891   4.826   7.998   9.644
50039SOL    HW251892   4.945   8.054   9.718
50040SOL     OW51893   3.520   5.486   6.932
50040SOL    HW151894   3.556   5.412   6.882
50040SOL    HW251895   3.548   5.564   6.884
50041SOL     OW51896  10.362   2.070   5.328
50041SOL    HW151897  10.401   2.040   5.246
50041SOL    HW251898  10.363   2.165   5.322
50042SOL     OW51899  12.713   7.839  11.184
50042SOL    HW151900  12.752   7.754  11.206
50042SOL    HW251901  12.620   7.829  11.204
50043SOL     OW51902   5.643   9.049   3.703
50043SOL    HW151903   5.697   9.078   3.630
50043SOL    HW251904   5.667   8.957   3.715
50044SOL     OW51905   5.361   5.224  11.362
50044SOL    HW151906   5.436   5.257  11.313
50044SOL    HW251907   5.287   5.276  11.329
50045SOL     OW51908  13.079   6.836   3.537
50045SOL    HW151909  13.174   6.830   3.548
50045SOL    HW251910  13.053   6.908   3.595
50046SOL     OW51911   4.609  14.441   6.051
50046SOL    HW151912   4.616  14.393   5.968
50046SOL    HW251913   4.518  14.432   6.076
50047SOL     OW51914   5.181   3.621   7.458
50047SOL    HW151915   5.177   3.717   7.467
50047SOL    HW251916   5.089   3.595   7.448
50048SOL     OW51917   6.400   0.452  10.623
50048SOL    HW151918   6.434   0.495  10.545
50048SOL    HW251919   6.476   0.438  10.678
50049SOL     OW51920  10.434   2.014  11.195
50049SOL    HW151921  10.421   1.978  11.283
50049SOL    HW251922  10.429   1.939  11.137
50050SOL     OW51923   0.475   9.167   7.784
50050SOL    HW151924   0.449   9.252   7.748
50050SOL    HW251925   0.486   9.111   7.707
50051SOL     OW51926   3.251  11.638  10.097
50051SOL    HW151927   3.196  11.630  10.175
50051SOL    HW251928   3.340  11.628  10.129
50052SOL     OW51929   3.192   7.908  12.977
50052SOL    HW151930   3.244   7.854  13.036
50052SOL    HW251931   3.106   7.867  12.975
50053SOL     OW51932   9.875   8.127   5.878
50053SOL    HW151933   9.946   8.166   5.827
50053SOL    HW251934   9.844   8.054   5.825
50054SOL     OW51935   6.721   6.720  12.329
50054SOL    HW151936   6.788   6.778  12.293
50054SOL    HW251937   6.647   6.779  12.348
50055SOL     OW51938   4.857   3.320  11.412
50055SOL    HW151939   4.948   3.314  11.383
50055SOL    HW251940   4.806   3.288  11.338
50056SOL     OW51941   7.834  10.656   9.135
50056SOL    HW151942   7.856  10.713   9.209
50056SOL    HW251943   7.819  10.570   9.174
50057SOL     OW51944  14.314  14.665   7.364
50057SOL    HW151945  14.303  14.581   7.410
50057SOL    HW251946  14.378  14.646   7.296
50058SOL     OW51947  10.389   8.795   8.989
50058SOL    HW151948  10.413   8.853   9.061
50058SOL    HW251949  10.471   8.781   8.941
50059SOL     OW51950  12.605   2.653   5.569
50059SOL    HW151951  12.552   2.624   5.643
50059SOL    HW251952  12.564   2.734   5.539
50060SOL     OW51953   1.494   2.531   3.728
50060SOL    HW151954   1.462   2.618   3.704
50060SOL    HW251955   1.415   2.482   3.750
50061SOL     OW51956   5.323   2.074  14.309
50061SOL    HW151957   5.364   2.149  14.353
50061SOL    HW251958   5.329   2.093  14.216
50062SOL     OW51959  14.630   2.179   6.998
50062SOL    HW151960  14.565   2.121   7.037
50062SOL    HW251961  14.640   2.147   6.908
50063SOL     OW51962  13.900  10.724  11.558
50063SOL    HW151963  13.967  10.681  11.611
50063SOL    HW251964  13.942  10.738  11.473
50064SOL     OW51965   1.342   7.755   0.107
50064SOL    HW151966   1.403   7.721   0.173
50064SOL    HW251967   1.367   7.847   0.098
50065SOL     OW51968  14.159   8.424   2.617
50065SOL    HW151969  14.144   8.481   2.541
50065SOL    HW251970  14.247   8.388   2.603
50066SOL     OW51971  12.397   4.590   5.564
50066SOL    HW151972  12.398   4.498   5.535
50066SOL    HW251973  12.386   4.639   5.483
50067SOL     OW51974   8.420  12.227   9.559
50067SOL    HW151975   8.459  12.142   9.539
50067SOL    HW251976   8.329  12.219   9.530
50068SOL     OW51977  11.223   3.736   5.829
50068SOL    HW151978  11.229   3.660   5.771
50068SOL    HW251979  11.313   3.764   5.842
50069SOL     OW51980   2.496   1.409  10.657
50069SOL    HW151981   2.402   1.394  10.662
50069SOL    HW251982   2.534   1.324  10.679
50070SOL     OW51983   1.818   7.546   3.139
50070SOL    HW151984   1.827   7.496   3.058
50070SOL    HW251985   1.898   7.599   3.143
50071SOL     OW51986   1.531   5.397   2.327
50071SOL    HW151987   1.542   5.320   2.383
50071SOL    HW251988   1.551   5.471   2.384
50072SOL     OW51989  13.189   5.270   2.727
50072SOL    HW151990  13.278   5.244   2.749
50072SOL    HW251991  13.137   5.251   2.805
50073SOL     OW51992   8.510  10.975  14.779
50073SOL    HW151993   8.497  10.880  14.782
50073SOL    HW251994   8.597  10.988  14.818
50074SOL     OW51995  10.874   4.683   4.044
50074SOL    HW151996  10.862   4.589   4.033
50074SOL    HW251997  10.913   4.693   4.131
50075SOL     OW51998  14.585   2.545  11.659
50075SOL    HW151999  14.596   2.459  11.618
50075SOL    HW252000  14.675   2.577  11.671
50076SOL     OW52001  13.786  10.637   8.389
50076SOL    HW152002  13.712  10.695   8.407
50076SOL    HW252003  13.758  10.585   8.314
50077SOL     OW52004   1.543  13.726   8.692
50077SOL    HW152005   1.521  13.816   8.671
50077SOL    HW252006   1.459  13.683   8.708
50078SOL     OW52007  10.612   2.519   3.955
50078SOL    HW152008  10.592   2.567   4.035
50078SOL    HW252009  10.707   2.528   3.944
50079SOL     OW52010   6.600   4.284  12.271
50079SOL    HW152011   6.688   4.302  12.238
50079SOL    HW252012   6.612   4.273  12.366
50080SOL     OW52013  11.020   2.435   2.475
50080SOL    HW152014  11.055   2.415   2.561
50080SOL    HW252015  11.025   2.530   2.469
50081SOL     OW52016  14.012   6.810   5.375
50081SOL    HW152017  13.971   6.896   5.377
50081SOL    HW252018  14.067   6.807   5.454
50082SOL     OW52019   2.602  10.602   9.259
50082SOL    HW152020   2.604  10.696   9.275
50082SOL    HW252021   2.517  10.585   9.220
50083SOL     OW52022   0.943   9.312   6.916
50083SOL    HW152023   1.006   9.349   6.978
50083SOL    HW252024   0.858   9.320   6.960
50084SOL     OW52025  10.868  12.061   0.719
50084SOL    HW152026  10.953  12.091   0.685
50084SOL    HW252027  10.844  11.989   0.660
50085SOL     OW52028   3.101  14.398   9.937
50085SOL    HW152029   3.175  14.457   9.920
50085SOL    HW252030   3.101  14.338   9.863
50086SOL     OW52031  13.340   3.078  13.317
50086SOL    HW152032  13.306   3.086  13.406
50086SOL    HW252033  13.397   3.155  13.307
50087SOL     OW52034  10.916   8.021   3.982
50087SOL    HW152035  10.923   7.950   4.046
50087SOL    HW252036  10.954   8.097   4.027
50088SOL     OW52037  10.970   5.801  13.045
50088SOL    HW152038  11.022   5.877  13.021
50088SOL    HW252039  10.909   5.790  12.971
50089SOL     OW52040   2.402  12.505   8.828
50089SOL    HW152041   2.368  12.472   8.911
50089SOL    HW252042   2.487  12.543   8.851
50090SOL     OW52043   5.399  10.893   2.189
50090SOL    HW152044   5.423  10.939   2.109
50090SOL    HW252045   5.327  10.944   2.226
50091SOL     OW52046   1.719  12.470   2.144
50091SOL    HW152047   1.639  12.464   2.196
50091SOL    HW252048   1.689  12.505   2.059
50092SOL     OW52049   4.102   5.338   5.026
50092SOL    HW152050   4.012   5.319   4.998
50092SOL    HW252051   4.116   5.430   5.005
50093SOL     OW52052   5.475   3.018   6.885
50093SOL    HW152053   5.563   3.050   6.908
50093SOL    HW252054   5.473   2.928   6.917
50094SOL     OW52055  12.603   1.928   7.676
50094SOL    HW152056  12.613   1.981   7.597
50094SOL    HW252057  12.653   1.975   7.743
50095SOL     OW52058   9.576   7.351   6.705
50095SOL    HW152059   9.653   7.318   6.750
50095SOL    HW252060   9.531   7.406   6.769
50096SOL     OW52061   2.851  13.210   9.767
50096SOL    HW152062   2.820  13.299   9.751
50096SOL    HW252063   2.819  13.160   9.691
50097SOL     OW52064  12.152  13.736   7.019
50097SOL    HW152065  12.151  13.708   7.111
50097SOL    HW252066  12.061  13.726   6.991
50098SOL     OW52067   5.914   1.089   0.094
50098SOL    HW152068   5.923   0.994   0.107
50098SOL    HW252069   5.948   1.127   0.175
50099SOL     OW52070   4.069   7.986  12.583
50099SOL    HW152071   4.061   8.018  12.493
50099SOL    HW252072   4.116   7.903  12.575
50100SOL     OW52073  10.524   5.035   4.389
50100SOL    HW152074  10.471   4.956   4.378
50100SOL    HW252075  10.569   5.046   4.305
50101SOL     OW52076   8.791   7.796   6.291
50101SOL    HW152077   8.876   7.780   6.331
50101SOL    HW252078   8.796   7.754   6.205
50102SOL     OW52079   1.285  13.751   3.677
50102SOL    HW152080   1.265  13.806   3.752
50102SOL    HW252081   1.199  13.727   3.641
50103SOL     OW52082   6.818  10.103   6.724
50103SOL    HW152083   6.853  10.037   6.784
50103SOL    HW252084   6.888  10.119   6.661
50104SOL     OW52085   2.289   7.154   2.302
50104SOL    HW152086   2.260   7.190   2.218
50104SOL    HW252087   2.216   7.099   2.331
50105SOL     OW52088   3.052   0.849   2.990
50105SOL    HW152089   3.012   0.911   3.052
50105SOL    HW252090   3.066   0.900   2.911
50106SOL     OW52091  14.407   1.696  12.124
50106SOL    HW152092  14.347   1.632  12.085
50106SOL    HW252093  14.360   1.779  12.119
50107SOL     OW52094   0.404   2.823   9.690
50107SOL    HW152095   0.334   2.884   9.668
50107SOL    HW252096   0.403   2.818   9.785
50108SOL     OW52097  11.771   6.335   4.168
50108SOL    HW152098  11.722   6.291   4.237
50108SOL    HW252099  11.726   6.419   4.156
50109SOL     OW52100  10.053   7.354   9.588
50109SOL    HW152101  10.050   7.314   9.675
50109SOL    HW252102   9.963   7.382   9.572
50110SOL     OW52103   5.317   1.450   8.740
50110SOL    HW152104   5.404   1.411   8.738
50110SOL    HW252105   5.301   1.469   8.832
50111SOL     OW52106  14.365  14.637   6.324
50111SOL    HW152107  14.426  14.708   6.341
50111SOL    HW252108  14.280  14.680   6.313
50112SOL     OW52109  13.127  13.392   0.570
50112SOL    HW152110  13.125  13.298   0.585
50112SOL    HW252111  13.036  13.420   0.581
50113SOL     OW52112  10.841   6.093  13.876
50113SOL    HW152113  10.780   6.076  13.949
50113SOL    HW252114  10.928   6.092  13.917
50114SOL     OW52115  10.060  12.857  13.911
50114SOL    HW152116  10.146  12.816  13.899
50114SOL    HW252117  10.070  12.910  13.990
50115SOL     OW52118   7.762   2.454   8.104
50115SOL    HW152119   7.746   2.422   8.192
50115SOL    HW252120   7.723   2.388   8.046
50116SOL     OW52121   6.997   4.214   5.346
50116SOL    HW152122   7.034   4.181   5.264
50116SOL    HW252123   6.919   4.159   5.360
50117SOL     OW52124   0.951   7.801   4.311
50117SOL    HW152125   1.018   7.868   4.317
50117SOL    HW252126   0.996   7.719   4.334
50118SOL     OW52127   9.344  14.743   1.961
50118SOL    HW152128   9.253  14.712   1.964
50118SOL    HW252129   9.372  14.727   1.871
50119SOL     OW52130   0.370   7.476   0.955
50119SOL    HW152131   0.460   7.485   0.986
50119SOL    HW252132   0.319   7.453   1.033
50120SOL     OW52133   9.942  12.995  10.290
50120SOL    HW152134   9.870  13.055  10.274
50120SOL    HW252135   9.904  12.924  10.341
50121SOL     OW52136  12.400  10.276   4.962
50121SOL    HW152137  12.422  10.194   5.007
50121SOL    HW252138  12.388  10.250   4.870
50122SOL     OW52139   7.287   0.186   3.730
50122SOL    HW152140   7.329   0.223   3.653
50122SOL    HW252141   7.231   0.257   3.763
50123SOL     OW52142  12.918   5.672  12.224
50123SOL    HW152143  13.009   5.693  12.202
50123SOL    HW252144  12.923   5.586  12.266
50124SOL     OW52145   0.664   2.162   1.429
50124SOL    HW152146   0.728   2.103   1.471
50124SOL    HW252147   0.708   2.191   1.349
50125SOL     OW52148  11.757   2.298   5.785
50125SOL    HW152149  11.721   2.288   5.873
50125SOL    HW252150  11.683   2.327   5.732
50126SOL     OW52151   6.885   1.379  13.534
50126SOL    HW152152   6.950   1.332  13.481
50126SOL    HW252153   6.851   1.313  13.594
50127SOL     OW52154  14.764   4.733   7.692
50127SOL    HW152155  14.762   4.685   7.775
50127SOL    HW252156  14.779   4.666   7.625
50128SOL     OW52157  11.289   7.487  14.067
50128SOL    HW152158  11.259   7.548  14.135
50128SOL    HW252159  11.372   7.524  14.037
50129SOL     OW52160  12.422  12.360   5.196
50129SOL    HW152161  12.517  12.351   5.206
50129SOL    HW252162  12.404  12.324   5.109
50130SOL     OW52163  11.701   4.721  11.525
50130SOL    HW152164  11.688   4.810  11.493
50130SOL    HW252165  11.760   4.680  11.462
50131SOL     OW52166  13.874   2.232   7.706
50131SOL    HW152167  13.780   2.219   7.691
50131SOL    HW252168  13.878   2.287   7.785
50132SOL     OW52169   5.627  12.478   4.341
50132SOL    HW152170   5.663  12.417   4.276
50132SOL    HW252171   5.565  12.532   4.291
50133SOL     OW52172   8.114  12.377   8.557
50133SOL    HW152173   8.132  12.286   8.583
50133SOL    HW252174   8.039  12.403   8.610
50134SOL     OW52175   1.138   2.968   0.784
50134SOL    HW152176   1.225   2.971   0.744
50134SOL    HW252177   1.151   2.926   0.868
50135SOL     OW52178   4.997  13.475   5.541
50135SOL    HW152179   5.087  13.441   5.536
50135SOL    HW252180   4.942  13.398   5.528
50136SOL     OW52181   8.478  14.178   0.816
50136SOL    HW152182   8.507  14.251   0.871
50136SOL    HW252183   8.549  14.113   0.823
50137SOL     OW52184   0.661  10.264   2.256
50137SOL    HW152185   0.754  10.271   2.230
50137SOL    HW252186   0.652  10.174   2.286
50138SOL     OW52187   4.972   6.981  11.453
50138SOL    HW152188   4.988   7.008  11.544
50138SOL    HW252189   5.004   7.054  11.401
50139SOL     OW52190   6.828   4.294   7.281
50139SOL    HW152191   6.737   4.275   7.261
50139SOL    HW252192   6.857   4.218   7.332
50140SOL     OW52193   5.073  10.324   3.583
50140SOL    HW152194   5.118  10.319   3.666
50140SOL    HW252195   4.981  10.338   3.606
50141SOL     OW52196   2.361   1.914  12.617
50141SOL    HW152197   2.283   1.920  12.563
50141SOL    HW252198   2.406   1.997  12.604
50142SOL     OW52199   7.613   7.676  11.991
50142SOL    HW152200   7.696   7.655  11.949
50142SOL    HW252201   7.604   7.770  11.981
50143SOL     OW52202   2.880  11.254   1.366
50143SOL    HW152203   2.954  11.198   1.387
50143SOL    HW252204   2.894  11.281   1.276
50144SOL     OW52205  13.863  14.564   3.798
50144SOL    HW152206  13.773  14.550   3.827
50144SOL    HW252207  13.911  14.588   3.877
50145SOL     OW52208   9.281   5.323   3.240
50145SOL    HW152209   9.230   5.371   3.175
50145SOL    HW252210   9.272   5.232   3.215
50146SOL     OW52211   1.075  10.537   9.975
50146SOL    HW152212   0.996  10.522   9.923
50146SOL    HW252213   1.104  10.450  10.000
50147SOL     OW52214   4.801   9.164  12.635
50147SOL    HW152215   4.860   9.209  12.575
50147SOL    HW252216   4.854   9.144  12.711
50148SOL     OW52217   3.455  13.154  11.708
50148SOL    HW152218   3.505  13.195  11.778
50148SOL    HW252219   3.387  13.217  11.687
50149SOL     OW52220  12.043   5.505   5.291
50149SOL    HW152221  12.078   5.417   5.306
50149SOL    HW252222  11.976   5.516   5.359
50150SOL     OW52223   3.495  14.252  12.888
50150SOL    HW152224   3.442  14.196  12.830
50150SOL    HW252225   3.567  14.195  12.917
50151SOL     OW52226  14.294   9.037  10.025
50151SOL    HW152227  14.252   8.959  10.062
50151SOL    HW252228  14.265   9.109  10.081
50152SOL     OW52229   4.818   3.512   1.005
50152SOL    HW152230   4.871   3.589   0.983
50152SOL    HW252231   4.837   3.495   1.097
50153SOL     OW52232  11.272   0.367  10.709
50153SOL    HW152233  11.297   0.416  10.787
50153SOL    HW252234  11.330   0.400  10.640
50154SOL     OW52235   6.991   5.234   1.349
50154SOL    HW152236   6.976   5.139   1.351
50154SOL    HW252237   6.999   5.259   1.441
50155SOL     OW52238  10.824  13.928   8.033
50155SOL    HW152239  10.898  13.987   8.014
50155SOL    HW252240  10.786  13.963   8.114
50156SOL     OW52241  11.363  10.469  10.178
50156SOL    HW152242  11.338  10.389  10.132
50156SOL    HW252243  11.318  10.463  10.263
50157SOL     OW52244  11.581   3.660   7.392
50157SOL    HW152245  11.555   3.695   7.307
50157SOL    HW252246  11.505   3.674   7.448
50158SOL     OW52247   3.506   3.301   3.355
50158SOL    HW152248   3.576   3.356   3.392
50158SOL    HW252249   3.425   3.343   3.385
50159SOL     OW52250  10.302   8.048   9.863
50159SOL    HW152251  10.266   8.116   9.806
50159SOL    HW252252  10.345   8.097   9.934
50160SOL     OW52253   1.233  11.701   1.290
50160SOL    HW152254   1.232  11.609   1.314
50160SOL    HW252255   1.309  11.710   1.232
50161SOL     OW52256  13.962   6.243   7.729
50161SOL    HW152257  13.950   6.336   7.709
50161SOL    HW252258  14.042   6.239   7.780
50162SOL     OW52259   8.887   4.184   2.013
50162SOL    HW152260   8.801   4.151   1.985
50162SOL    HW252261   8.872   4.220   2.100
50163SOL     OW52262  11.327   0.246  14.274
50163SOL    HW152263  11.267   0.205  14.211
50163SOL    HW252264  11.292   0.334  14.287
50164SOL     OW52265   8.901   9.787   0.871
50164SOL    HW152266   8.822   9.742   0.842
50164SOL    HW252267   8.869   9.866   0.916
50165SOL     OW52268   1.317   9.378  13.554
50165SOL    HW152269   1.279   9.415  13.634
50165SOL    HW252270   1.359   9.452  13.511
50166SOL     OW52271  14.550  13.157   2.829
50166SOL    HW152272  14.615  13.214   2.868
50166SOL    HW252273  14.585  13.135   2.742
50167SOL     OW52274  12.016  14.640   8.426
50167SOL    HW152275  11.991  14.635   8.334
50167SOL    HW252276  12.109  14.662   8.425
50168SOL     OW52277   5.327  11.205  14.251
50168SOL    HW152278   5.333  11.226  14.158
50168SOL    HW252279   5.316  11.110  14.254
50169SOL     OW52280   4.256   3.526  11.985
50169SOL    HW152281   4.174   3.541  12.031
50169SOL    HW252282   4.230   3.482  11.904
50170SOL     OW52283  13.076   5.774   2.600
50170SOL    HW152284  13.044   5.800   2.686
50170SOL    HW252285  13.150   5.716   2.619
50171SOL     OW52286  13.075   2.390   8.083
50171SOL    HW152287  13.011   2.429   8.143
50171SOL    HW252288  13.055   2.428   7.998
50172SOL     OW52289  11.902   7.145   8.124
50172SOL    HW152290  11.905   7.056   8.158
50172SOL    HW252291  11.909   7.135   8.029
50173SOL     OW52292  13.081  11.468  10.488
50173SOL    HW152293  13.144  11.504  10.425
50173SOL    HW252294  13.116  11.493  10.574
50174SOL     OW52295  13.233  12.951   5.531
50174SOL    HW152296  13.291  12.903   5.472
50174SOL    HW252297  13.285  12.968   5.609
50175SOL     OW52298   6.617   9.542   8.660
50175SOL    HW152299   6.582   9.464   8.617
50175SOL    HW252300   6.552   9.566   8.725
50176SOL     OW52301   2.314   6.422   2.148
50176SOL    HW152302   2.280   6.418   2.237
50176SOL    HW252303   2.240   6.399   2.093
50177SOL     OW52304  12.461  13.106  13.385
50177SOL    HW152305  12.466  13.158  13.305
50177SOL    HW252306  12.417  13.025  13.357
50178SOL     OW52307  11.137   0.191   5.314
50178SOL    HW152308  11.207   0.184   5.378
50178SOL    HW252309  11.126   0.101   5.282
50179SOL     OW52310   4.481   1.862   3.404
50179SOL    HW152311   4.424   1.817   3.341
50179SOL    HW252312   4.564   1.816   3.398
50180SOL     OW52313  13.340  12.126   1.891
50180SOL    HW152314  13.247  12.137   1.870
50180SOL    HW252315  13.382  12.108   1.806
50181SOL     OW52316   1.465  12.296   0.226
50181SOL    HW152317   1.540  12.262   0.274
50181SOL    HW252318   1.432  12.367   0.281
50182SOL     OW52319  13.320   1.688   5.844
50182SOL    HW152320  13.265   1.610   5.856
50182SOL    HW252321  13.389   1.679   5.910
50183SOL     OW52322  14.208   7.672   9.639
50183SOL    HW152323  14.134   7.629   9.682
50183SOL    HW252324  14.268   7.694   9.710
50184SOL     OW52325   2.923  10.492   2.241
50184SOL    HW152326   2.946  10.570   2.293
50184SOL    HW252327   2.929  10.521   2.150
50185SOL     OW52328   0.735   0.706   8.799
50185SOL    HW152329   0.712   0.666   8.883
50185SOL    HW252330   0.813   0.758   8.818
50186SOL     OW52331  13.270   4.093   0.415
50186SOL    HW152332  13.231   4.149   0.482
50186SOL    HW252333  13.237   4.005   0.434
50187SOL     OW52334   2.410   3.955   3.795
50187SOL    HW152335   2.348   3.919   3.859
50187SOL    HW252336   2.472   3.884   3.779
50188SOL     OW52337   7.456  10.705   4.843
50188SOL    HW152338   7.406  10.630   4.875
50188SOL    HW252339   7.469  10.760   4.921
50189SOL     OW52340   5.259   7.102   6.518
50189SOL    HW152341   5.352   7.096   6.494
50189SOL    HW252342   5.250   7.042   6.593
50190SOL     OW52343   3.984  12.185   9.526
50190SOL    HW152344   3.988  12.278   9.503
50190SOL    HW252345   3.947  12.142   9.448
50191SOL     OW52346   4.765  14.754  12.078
50191SOL    HW152347   4.811  14.673  12.054
50191SOL    HW252348   4.834  14.812  12.110
50192SOL     OW52349   5.291   7.389  12.194
50192SOL    HW152350   5.280   7.402  12.288
50192SOL    HW252351   5.386   7.395  12.180
50193SOL     OW52352   3.328  14.222   4.265
50193SOL    HW152353   3.317  14.214   4.170
50193SOL    HW252354   3.247  14.264   4.295
50194SOL     OW52355  10.457   0.361  12.756
50194SOL    HW152356  10.441   0.456  12.756
50194SOL    HW252357  10.539   0.350  12.803
50195SOL     OW52358   9.759  11.769   6.681
50195SOL    HW152359   9.749  11.824   6.759
50195SOL    HW252360   9.784  11.830   6.611
50196SOL     OW52361  10.074  14.477   8.974
50196SOL    HW152362  10.130  14.402   8.996
50196SOL    HW252363  10.133  14.539   8.931
50197SOL     OW52364  10.990  10.625   1.870
50197SOL    HW152365  11.058  10.562   1.846
50197SOL    HW252366  11.038  10.699   1.907
50198SOL     OW52367   8.805  10.591  14.693
50198SOL    HW152368   8.828  10.593  14.786
50198SOL    HW252369   8.751  10.512  14.683
50199SOL     OW52370   1.229   6.287  14.600
50199SOL    HW152371   1.323   6.270  14.607
50199SOL    HW252372   1.190   6.235  14.669
50200SOL     OW52373   2.336   9.590   3.775
50200SOL    HW152374   2.286   9.607   3.695
50200SOL    HW252375   2.352   9.496   3.774
50201SOL     OW52376   8.255  12.223   9.147
50201SOL    HW152377   8.201  12.152   9.181
50201SOL    HW252378   8.237  12.223   9.052
50202SOL     OW52379  13.206   2.325   0.360
50202SOL    HW152380  13.164   2.357   0.440
50202SOL    HW252381  13.294   2.363   0.361
50203SOL     OW52382  14.432   6.377   9.115
50203SOL    HW152383  14.415   6.351   9.205
50203SOL    HW252384  14.418   6.472   9.114
50204SOL     OW52385   8.369  11.125   8.861
50204SOL    HW152386   8.378  11.094   8.951
50204SOL    HW252387   8.448  11.177   8.846
50205SOL     OW52388  12.788   3.720   0.211
50205SOL    HW152389  12.868   3.709   0.160
50205SOL    HW252390  12.807   3.791   0.272
50206SOL     OW52391  12.896   4.871   1.685
50206SOL    HW152392  12.832   4.805   1.712
50206SOL    HW252393  12.844   4.944   1.652
50207SOL     OW52394   4.372   5.585   4.449
50207SOL    HW152395   4.449   5.530   4.436
50207SOL    HW252396   4.346   5.570   4.539
50208SOL     OW52397   0.955  11.901   0.103
50208SOL    HW152398   0.860  11.915   0.104
50208SOL    HW252399   0.968  11.823   0.156
50209SOL     OW52400  11.730  12.691  12.221
50209SOL    HW152401  11.699  12.780  12.205
50209SOL    HW252402  11.677  12.660  12.295
50210SOL     OW52403   9.872  14.230   8.762
50210SOL    HW152404   9.842  14.320   8.754
50210SOL    HW252405   9.851  14.205   8.852
50211SOL     OW52406  11.688   5.680   7.684
50211SOL    HW152407  11.656   5.770   7.686
50211SOL    HW252408  11.626   5.632   7.630
50212SOL     OW52409   8.446   1.830  13.779
50212SOL    HW152410   8.369   1.801  13.827
50212SOL    HW252411   8.435   1.794  13.691
50213SOL     OW52412   5.109   1.545   7.005
50213SOL    HW152413   5.023   1.528   7.043
50213SOL    HW252414   5.095   1.545   6.911
50214SOL     OW52415   9.330   0.831   4.398
50214SOL    HW152416   9.296   0.849   4.485
50214SOL    HW252417   9.402   0.770   4.412
50215SOL     OW52418  14.773   0.805  12.986
50215SOL    HW152419  14.721   0.871  13.033
50215SOL    HW252420  14.807   0.851  12.910
50216SOL     OW52421  12.021   1.013  11.764
50216SOL    HW152422  12.074   0.944  11.724
50216SOL    HW252423  12.053   1.094  11.727
50217SOL     OW52424   0.821   1.012  11.435
50217SOL    HW152425   0.843   0.920  11.444
50217SOL    HW252426   0.825   1.028  11.340
50218SOL     OW52427  13.984   6.140   2.929
50218SOL    HW152428  13.910   6.190   2.964
50218SOL    HW252429  13.966   6.132   2.835
50219SOL     OW52430   8.152  13.237   4.967
50219SOL    HW152431   8.126  13.316   5.014
50219SOL    HW252432   8.140  13.166   5.030
50220SOL     OW52433   9.822   4.094   8.687
50220SOL    HW152434   9.865   4.078   8.603
50220SOL    HW252435   9.747   4.034   8.686
50221SOL     OW52436   3.369   9.366  10.538
50221SOL    HW152437   3.408   9.454  10.544
50221SOL    HW252438   3.392   9.336  10.451
50222SOL     OW52439   4.873   3.008   4.281
50222SOL    HW152440   4.964   3.030   4.261
50222SOL    HW252441   4.872   2.999   4.377
50223SOL     OW52442   7.508   9.789   5.761
50223SOL    HW152443   7.544   9.701   5.772
50223SOL    HW252444   7.445   9.798   5.833
50224SOL     OW52445   1.729   2.927  11.619
50224SOL    HW152446   1.663   2.956  11.556
50224SOL    HW252447   1.747   2.836  11.595
50225SOL     OW52448   7.919   9.324  10.130
50225SOL    HW152449   7.950   9.355  10.045
50225SOL    HW252450   7.895   9.233  10.115
50226SOL     OW52451  13.741  13.164   8.443
50226SOL    HW152452  13.726  13.214   8.363
50226SOL    HW252453  13.661  13.112   8.453
50227SOL     OW52454   2.677   2.738   3.279
50227SOL    HW152455   2.755   2.691   3.309
50227SOL    HW252456   2.702   2.830   3.281
50228SOL     OW52457  10.865   8.299  14.003
50228SOL    HW152458  10.784   8.349  14.005
50228SOL    HW252459  10.924   8.346  14.062
50229SOL     OW52460   4.573   0.949   9.561
50229SOL    HW152461   4.565   0.990   9.475
50229SOL    HW252462   4.496   0.979   9.609
50230SOL     OW52463  10.954   3.209  10.139
50230SOL    HW152464  10.858   3.217  10.141
50230SOL    HW252465  10.979   3.247  10.055
50231SOL     OW52466   6.964  10.019  11.954
50231SOL    HW152467   6.975   9.987  11.865
50231SOL    HW252468   6.964   9.940  12.008
50232SOL     OW52469   9.361   1.973   5.851
50232SOL    HW152470   9.273   1.988   5.885
50232SOL    HW252471   9.409   2.053   5.872
50233SOL     OW52472  13.436  14.149   2.716
50233SOL    HW152473  13.528  14.140   2.742
50233SOL    HW252474  13.440  14.175   2.624
50234SOL     OW52475   1.463   5.932   6.825
50234SOL    HW152476   1.408   5.945   6.902
50234SOL    HW252477   1.552   5.952   6.855
50235SOL     OW52478  14.595   5.654   6.354
50235SOL    HW152479  14.642   5.588   6.406
50235SOL    HW252480  14.504   5.624   6.354
50236SOL     OW52481  11.893   5.498  14.502
50236SOL    HW152482  11.855   5.550  14.431
50236SOL    HW252483  11.980   5.474  14.470
50237SOL     OW52484   1.471   0.705   4.581
50237SOL    HW152485   1.443   0.797   4.570
50237SOL    HW252486   1.487   0.696   4.675
50238SOL     OW52487  14.267  12.861   9.619
50238SOL    HW152488  14.345  12.806   9.610
50238SOL    HW252489  14.300  12.950   9.606
50239SOL     OW52490  14.404  11.795  11.269
50239SOL    HW152491  14.365  11.878  11.297
50239SOL    HW252492  14.496  11.803  11.296
50240SOL     OW52493   0.346   8.924   9.953
50240SOL    HW152494   0.416   8.870   9.989
50240SOL    HW252495   0.292   8.864   9.902
50241SOL     OW52496   6.761   1.538   7.558
50241SOL    HW152497   6.705   1.493   7.495
50241SOL    HW252498   6.711   1.614   7.586
50242SOL     OW52499   2.024  13.484   8.570
50242SOL    HW152500   1.974  13.544   8.624
50242SOL    HW252501   1.961  13.417   8.543
50243SOL     OW52502   4.352  13.057   7.389
50243SOL    HW152503   4.394  13.106   7.319
50243SOL    HW252504   4.405  13.074   7.467
50244SOL     OW52505   2.452  12.625  13.754
50244SOL    HW152506   2.430  12.630  13.661
50244SOL    HW252507   2.412  12.703  13.792
50245SOL     OW52508   2.882   0.990   6.652
50245SOL    HW152509   2.879   0.903   6.692
50245SOL    HW252510   2.910   0.973   6.562
50246SOL     OW52511   1.821   0.411   7.301
50246SOL    HW152512   1.797   0.353   7.374
50246SOL    HW252513   1.742   0.463   7.286
50247SOL     OW52514  13.710  10.300   7.128
50247SOL    HW152515  13.791  10.291   7.178
50247SOL    HW252516  13.688  10.393   7.134
50248SOL     OW52517   3.984  14.033   0.854
50248SOL    HW152518   4.008  14.074   0.937
50248SOL    HW252519   3.972  14.106   0.794
50249SOL     OW52520  11.468   8.567   9.882
50249SOL    HW152521  11.440   8.566   9.974
50249SOL    HW252522  11.478   8.474   9.859
50250SOL     OW52523   1.828   4.606  11.799
50250SOL    HW152524   1.746   4.558  11.804
50250SOL    HW252525   1.876   4.563  11.727
50251SOL     OW52526   0.015   7.213  13.672
50251SOL    HW152527  14.857   7.178  13.754
50251SOL    HW252528   0.103   7.176  13.667
50252SOL     OW52529   9.476  11.166   6.733
50252SOL    HW152530   9.389  11.187   6.698
50252SOL    HW252531   9.466  11.171   6.828
50253SOL     OW52532   0.706   4.158   1.582
50253SOL    HW152533   0.775   4.218   1.610
50253SOL    HW252534   0.677   4.116   1.663
50254SOL     OW52535  14.242   1.931   4.302
50254SOL    HW152536  14.253   1.842   4.271
50254SOL    HW252537  14.170   1.926   4.365
50255SOL     OW52538  12.893  14.412   2.293
50255SOL    HW152539  12.977  14.448   2.322
50255SOL    HW252540  12.838  14.489   2.279
50256SOL     OW52541   3.182   4.618   4.595
50256SOL    HW152542   3.261   4.604   4.647
50256SOL    HW252543   3.111   4.617   4.659
50257SOL     OW52544   4.534  10.859   6.211
50257SOL    HW152545   4.624  10.882   6.236
50257SOL    HW252546   4.504  10.801   6.280
50258SOL     OW52547   9.358   6.226   9.003
50258SOL    HW152548   9.394   6.139   8.985
50258SOL    HW252549   9.328   6.258   8.917
50259SOL     OW52550  13.571  10.857   0.659
50259SOL    HW152551  13.529  10.902   0.586
50259SOL    HW252552  13.665  10.864   0.641
50260SOL     OW52553  14.487  11.788   7.446
50260SOL    HW152554  14.395  11.764   7.450
50260SOL    HW252555  14.534  11.707   7.467
50261SOL     OW52556   3.910   4.108  14.563
50261SOL    HW152557   3.872   4.087  14.648
50261SOL    HW252558   3.847   4.169  14.523
50262SOL     OW52559   8.673  10.984   3.379
50262SOL    HW152560   8.747  11.010   3.435
50262SOL    HW252561   8.703  10.905   3.335
50263SOL     OW52562   9.942   4.949   8.405
50263SOL    HW152563   9.921   4.856   8.395
50263SOL    HW252564   9.958   4.959   8.499
50264SOL     OW52565   0.754   9.158  10.206
50264SOL    HW152566   0.682   9.177  10.146
50264SOL    HW252567   0.763   9.238  10.257
50265SOL     OW52568   4.999   2.673   8.991
50265SOL    HW152569   5.047   2.657   8.910
50265SOL    HW252570   5.066   2.668   9.059
50266SOL     OW52571   7.234  12.179   6.461
50266SOL    HW152572   7.302  12.177   6.528
50266SOL    HW252573   7.212  12.272   6.452
50267SOL     OW52574  12.548   2.247   4.852
50267SOL    HW152575  12.502   2.203   4.781
50267SOL    HW252576  12.572   2.176   4.912
50268SOL     OW52577   2.499   7.941  14.113
50268SOL    HW152578   2.547   8.021  14.134
50268SOL    HW252579   2.432   7.934  14.182
50269SOL     OW52580   1.806  12.568   9.455
50269SOL    HW152581   1.885  12.555   9.403
50269SOL    HW252582   1.815  12.509   9.529
50270SOL     OW52583   6.669   5.662   1.203
50270SOL    HW152584   6.743   5.603   1.188
50270SOL    HW252585   6.691   5.707   1.285
50271SOL     OW52586  10.901  11.472   3.239
50271SOL    HW152587  10.844  11.395   3.238
50271SOL    HW252588  10.883  11.516   3.156
50272SOL     OW52589   7.951   1.245  13.698
50272SOL    HW152590   7.937   1.186  13.624
50272SOL    HW252591   8.046   1.251  13.707
50273SOL     OW52592  10.552   8.236   0.026
50273SOL    HW152593  10.550   8.290  14.824
50273SOL    HW252594  10.472   8.259   0.073
50274SOL     OW52595   5.253  14.625  10.445
50274SOL    HW152596   5.227  14.601  10.355
50274SOL    HW252597   5.348  14.610  10.447
50275SOL     OW52598   5.322   0.764   1.396
50275SOL    HW152599   5.235   0.760   1.355
50275SOL    HW252600   5.304   0.788   1.487
50276SOL     OW52601   1.603   6.614  13.392
50276SOL    HW152602   1.685   6.654  13.365
50276SOL    HW252603   1.572   6.669  13.463
50277SOL     OW52604   5.686  13.816   1.110
50277SOL    HW152605   5.769  13.861   1.124
50277SOL    HW252606   5.627  13.884   1.077
50278SOL     OW52607  12.422  11.671   8.528
50278SOL    HW152608  12.374  11.718   8.596
50278SOL    HW252609  12.374  11.690   8.448
50279SOL     OW52610  14.188   4.944   1.240
50279SOL    HW152611  14.195   4.865   1.186
50279SOL    HW252612  14.144   5.008   1.185
50280SOL     OW52613   4.190   0.121   5.039
50280SOL    HW152614   4.116   0.181   5.028
50280SOL    HW252615   4.216   0.098   4.950
50281SOL     OW52616  10.709  11.365  12.987
50281SOL    HW152617  10.636  11.408  13.033
50281SOL    HW252618  10.707  11.275  13.020
50282SOL     OW52619   3.423  13.926  10.403
50282SOL    HW152620   3.348  13.868  10.390
50282SOL    HW252621   3.420  13.948  10.496
50283SOL     OW52622   0.372   0.977  10.117
50283SOL    HW152623   0.279   0.956  10.130
50283SOL    HW252624   0.413   0.893  10.098
50284SOL     OW52625   5.690   0.571  11.061
50284SOL    HW152626   5.786   0.574  11.059
50284SOL    HW252627   5.664   0.568  10.969
50285SOL     OW52628  10.142   4.441   2.671
50285SOL    HW152629  10.152   4.434   2.576
50285SOL    HW252630  10.054   4.406   2.689
50286SOL     OW52631   0.187  13.523   1.864
50286SOL    HW152632   0.248  13.590   1.894
50286SOL    HW252633   0.197  13.451   1.926
50287SOL     OW52634   3.822   9.056   9.401
50287SOL    HW152635   3.730   9.029   9.405
50287SOL    HW252636   3.823   9.142   9.443
50288SOL     OW52637  11.162   0.298   1.914
50288SOL    HW152638  11.198   0.224   1.864
50288SOL    HW252639  11.125   0.355   1.847
50289SOL     OW52640   7.079   1.568   8.559
50289SOL    HW152641   7.041   1.650   8.526
50289SOL    HW252642   7.171   1.590   8.576
50290SOL     OW52643   3.116   3.930   9.257
50290SOL    HW152644   3.136   3.860   9.195
50290SOL    HW252645   3.131   4.011   9.208
50291SOL     OW52646   7.591  10.820   3.784
50291SOL    HW152647   7.614  10.819   3.877
50291SOL    HW252648   7.587  10.913   3.762
50292SOL     OW52649   1.126   8.699   0.277
50292SOL    HW152650   1.058   8.756   0.242
50292SOL    HW252651   1.164   8.749   0.350
50293SOL     OW52652  12.164   7.567   4.639
50293SOL    HW152653  12.150   7.596   4.730
50293SOL    HW252654  12.141   7.644   4.586
50294SOL     OW52655   2.162  14.303  13.790
50294SOL    HW152656   2.174  14.230  13.729
50294SOL    HW252657   2.067  14.306  13.804
50295SOL     OW52658   1.680  12.444   5.252
50295SOL    HW152659   1.618  12.508   5.216
50295SOL    HW252660   1.636  12.360   5.242
50296SOL     OW52661   0.610   2.318   5.390
50296SOL    HW152662   0.606   2.307   5.295
50296SOL    HW252663   0.602   2.412   5.403
50297SOL     OW52664   5.479   4.613   3.783
50297SOL    HW152665   5.498   4.671   3.857
50297SOL    HW252666   5.453   4.530   3.823
50298SOL     OW52667  11.455   5.561   0.809
50298SOL    HW152668  11.449   5.514   0.892
50298SOL    HW252669  11.527   5.518   0.762
50299SOL     OW52670  12.484  12.999   3.312
50299SOL    HW152671  12.537  12.945   3.370
50299SOL    HW252672  12.498  13.089   3.343
50300SOL     OW52673   4.414  11.788  11.085
50300SOL    HW152674   4.395  11.821  10.998
50300SOL    HW252675   4.394  11.695  11.081
50301SOL     OW52676   1.631  13.192  10.343
50301SOL    HW152677   1.651  13.254  10.273
50301SOL    HW252678   1.636  13.244  10.423
50302SOL     OW52679   5.139   9.145   2.557
50302SOL    HW152680   5.146   9.050   2.548
50302SOL    HW252681   5.198   9.167   2.629
50303SOL     OW52682   6.822  10.353  10.922
50303SOL    HW152683   6.781  10.356  11.008
50303SOL    HW252684   6.781  10.277  10.879
50304SOL     OW52685   8.173   5.557   8.775
50304SOL    HW152686   8.180   5.580   8.683
50304SOL    HW252687   8.134   5.634   8.816
50305SOL     OW52688   2.270   3.396  13.042
50305SOL    HW152689   2.364   3.413  13.046
50305SOL    HW252690   2.263   3.306  13.009
50306SOL     OW52691   0.568   6.432   9.086
50306SOL    HW152692   0.483   6.451   9.125
50306SOL    HW252693   0.620   6.511   9.101
50307SOL     OW52694  12.497  14.247  10.900
50307SOL    HW152695  12.546  14.311  10.951
50307SOL    HW252696  12.471  14.294  10.821
50308SOL     OW52697   8.282   5.799   9.996
50308SOL    HW152698   8.332   5.733  10.045
50308SOL    HW252699   8.281   5.876  10.053
50309SOL     OW52700   5.294   6.183   9.172
50309SOL    HW152701   5.288   6.195   9.077
50309SOL    HW252702   5.204   6.197   9.203
50310SOL     OW52703   9.884   1.876   4.332
50310SOL    HW152704   9.878   1.807   4.399
50310SOL    HW252705   9.803   1.926   4.342
50311SOL     OW52706   9.500   9.023   5.847
50311SOL    HW152707   9.437   8.951   5.840
50311SOL    HW252708   9.482   9.062   5.933
50312SOL     OW52709   5.857  12.291   7.229
50312SOL    HW152710   5.905  12.210   7.210
50312SOL    HW252711   5.871  12.345   7.151
50313SOL     OW52712   5.606  11.856  14.038
50313SOL    HW152713   5.691  11.888  14.009
50313SOL    HW252714   5.581  11.790  13.974
50314SOL     OW52715   9.643   8.862  13.834
50314SOL    HW152716   9.678   8.939  13.788
50314SOL    HW252717   9.571   8.897  13.887
50315SOL     OW52718  12.526   6.135   9.494
50315SOL    HW152719  12.527   6.173   9.407
50315SOL    HW252720  12.617   6.134   9.522
50316SOL     OW52721   2.004   4.522   5.438
50316SOL    HW152722   1.978   4.607   5.473
50316SOL    HW252723   1.972   4.458   5.502
50317SOL     OW52724   3.019  10.841   1.075
50317SOL    HW152725   2.945  10.880   1.123
50317SOL    HW252726   2.995  10.850   0.983
50318SOL     OW52727   4.441   1.411   0.984
50318SOL    HW152728   4.428   1.390   1.076
50318SOL    HW252729   4.365   1.373   0.939
50319SOL     OW52730   1.891   3.716  10.216
50319SOL    HW152731   1.828   3.651  10.187
50319SOL    HW252732   1.838   3.792  10.240
50320SOL     OW52733  10.474   3.540   0.077
50320SOL    HW152734  10.406   3.482   0.043
50320SOL    HW252735  10.481   3.517   0.169
50321SOL     OW52736  10.149  14.388   9.366
50321SOL    HW152737  10.231  14.431   9.343
50321SOL    HW252738  10.082  14.455   9.352
50322SOL     OW52739   2.715   3.864   0.814
50322SOL    HW152740   2.739   3.940   0.867
50322SOL    HW252741   2.771   3.793   0.845
50323SOL     OW52742  13.681   2.603  10.256
50323SOL    HW152743  13.762   2.569  10.216
50323SOL    HW252744  13.691   2.585  10.349
50324SOL     OW52745   7.009   1.231   3.188
50324SOL    HW152746   7.023   1.246   3.281
50324SOL    HW252747   6.915   1.245   3.175
50325SOL     OW52748   5.801  11.591   5.962
50325SOL    HW152749   5.818  11.528   5.891
50325SOL    HW252750   5.865  11.569   6.029
50326SOL     OW52751   0.271   6.470   1.457
50326SOL    HW152752   0.343   6.417   1.492
50326SOL    HW252753   0.193   6.419   1.477
50327SOL     OW52754   3.341   9.490   6.145
50327SOL    HW152755   3.311   9.425   6.209
50327SOL    HW252756   3.348   9.441   6.063
50328SOL     OW52757   7.560  10.784  14.105
50328SOL    HW152758   7.616  10.861  14.089
50328SOL    HW252759   7.582  10.724  14.035
50329SOL     OW52760  11.201   3.695   9.314
50329SOL    HW152761  11.258   3.734   9.249
50329SOL    HW252762  11.113   3.725   9.290
50330SOL     OW52763   9.183   8.991   1.305
50330SOL    HW152764   9.187   9.083   1.278
50330SOL    HW252765   9.148   8.994   1.394
50331SOL     OW52766  12.329  12.938   3.091
50331SOL    HW152767  12.368  12.870   3.037
50331SOL    HW252768  12.390  12.948   3.164
50332SOL     OW52769   1.082   7.835   4.830
50332SOL    HW152770   1.099   7.922   4.794
50332SOL    HW252771   1.097   7.845   4.924
50333SOL     OW52772  13.617   2.584   6.369
50333SOL    HW152773  13.563   2.564   6.292
50333SOL    HW252774  13.555   2.618   6.434
50334SOL     OW52775   3.053   3.414   3.734
50334SOL    HW152776   3.022   3.324   3.726
50334SOL    HW252777   2.976   3.468   3.721
50335SOL     OW52778   2.531  10.099   7.895
50335SOL    HW152779   2.499  10.188   7.910
50335SOL    HW252780   2.624  10.111   7.875
50336SOL     OW52781   5.661   9.457   2.331
50336SOL    HW152782   5.735   9.515   2.314
50336SOL    HW252783   5.671   9.387   2.266
50337SOL     OW52784   6.453  12.037   3.204
50337SOL    HW152785   6.463  12.056   3.298
50337SOL    HW252786   6.490  11.950   3.193
50338SOL     OW52787  11.927   2.985   7.972
50338SOL    HW152788  12.008   2.942   8.002
50338SOL    HW252789  11.958   3.060   7.921
50339SOL     OW52790  10.331   0.929  13.162
50339SOL    HW152791  10.356   1.021  13.159
50339SOL    HW252792  10.243   0.926  13.126
50340SOL     OW52793   1.219   5.901   3.305
50340SOL    HW152794   1.239   5.825   3.359
50340SOL    HW252795   1.305   5.937   3.283
50341SOL     OW52796   3.245   3.888   7.134
50341SOL    HW152797   3.201   3.946   7.197
50341SOL    HW252798   3.338   3.896   7.154
50342SOL     OW52799   7.385   9.677  12.289
50342SOL    HW152800   7.442   9.753  12.276
50342SOL    HW252801   7.345   9.662  12.204
50343SOL     OW52802   6.871   3.829   6.140
50343SOL    HW152803   6.830   3.755   6.185
50343SOL    HW252804   6.800   3.891   6.127
50344SOL     OW52805   9.374   5.529   6.886
50344SOL    HW152806   9.401   5.470   6.816
50344SOL    HW252807   9.279   5.535   6.877
50345SOL     OW52808  12.268  11.674   5.274
50345SOL    HW152809  12.299  11.649   5.361
50345SOL    HW252810  12.182  11.712   5.289
50346SOL     OW52811  14.283  10.017   1.865
50346SOL    HW152812  14.308   9.978   1.781
50346SOL    HW252813  14.355   9.995   1.924
50347SOL     OW52814  12.978   0.425  11.141
50347SOL    HW152815  12.979   0.360  11.071
50347SOL    HW252816  12.937   0.502  11.101
50348SOL     OW52817   5.327   8.803   8.801
50348SOL    HW152818   5.365   8.726   8.843
50348SOL    HW252819   5.399   8.842   8.752
50349SOL     OW52820  14.286   5.819  13.816
50349SOL    HW152821  14.238   5.778  13.888
50349SOL    HW252822  14.219   5.867  13.766
50350SOL     OW52823   4.360   5.365   9.116
50350SOL    HW152824   4.298   5.292   9.107
50350SOL    HW252825   4.389   5.383   9.027
50351SOL     OW52826  13.046   3.815   5.746
50351SOL    HW152827  13.039   3.824   5.651
50351SOL    HW252828  12.956   3.800   5.775
50352SOL     OW52829   1.116   6.509  13.602
50352SOL    HW152830   1.153   6.446  13.541
50352SOL    HW252831   1.146   6.594  13.570
50353SOL     OW52832  14.173   6.513   9.080
50353SOL    HW152833  14.083   6.541   9.062
50353SOL    HW252834  14.222   6.594   9.089
50354SOL     OW52835   0.752  12.846   5.516
50354SOL    HW152836   0.668  12.874   5.552
50354SOL    HW252837   0.765  12.901   5.439
50355SOL     OW52838   8.583   1.755   9.968
50355SOL    HW152839   8.602   1.817   9.898
50355SOL    HW252840   8.633   1.677   9.946
50356SOL     OW52841  10.828   7.428   4.165
50356SOL    HW152842  10.907   7.419   4.112
50356SOL    HW252843  10.796   7.516   4.146
50357SOL     OW52844   5.434  11.634   3.435
50357SOL    HW152845   5.456  11.548   3.399
50357SOL    HW252846   5.468  11.632   3.524
50358SOL     OW52847   2.137   1.560  12.109
50358SOL    HW152848   2.112   1.476  12.148
50358SOL    HW252849   2.185   1.536  12.030
50359SOL     OW52850   4.353   5.668   5.370
50359SOL    HW152851   4.324   5.736   5.430
50359SOL    HW252852   4.446   5.687   5.354
50360SOL     OW52853  13.931   3.717   5.616
50360SOL    HW152854  14.009   3.693   5.667
50360SOL    HW252855  13.921   3.646   5.552
50361SOL     OW52856   1.535   0.427   2.728
50361SOL    HW152857   1.514   0.404   2.818
50361SOL    HW252858   1.590   0.506   2.736
50362SOL     OW52859  12.639   7.204   2.464
50362SOL    HW152860  12.649   7.161   2.379
50362SOL    HW252861  12.556   7.170   2.498
50363SOL     OW52862   1.686   0.184   0.848
50363SOL    HW152863   1.750   0.244   0.886
50363SOL    HW252864   1.652   0.230   0.772
50364SOL     OW52865   1.460  11.581   2.238
50364SOL    HW152866   1.402  11.552   2.166
50364SOL    HW252867   1.434  11.527   2.312
50365SOL     OW52868   7.695   3.826   8.995
50365SOL    HW152869   7.763   3.802   9.057
50365SOL    HW252870   7.652   3.902   9.034
50366SOL     OW52871   8.523   5.631   3.706
50366SOL    HW152872   8.565   5.716   3.694
50366SOL    HW252873   8.513   5.622   3.801
50367SOL     OW52874   0.439   3.105   5.290
50367SOL    HW152875   0.352   3.118   5.253
50367SOL    HW252876   0.424   3.105   5.385
50368SOL     OW52877  10.664  13.433  12.020
50368SOL    HW152878  10.666  13.524  11.988
50368SOL    HW252879  10.705  13.438  12.107
50369SOL     OW52880  14.702   2.301   4.325
50369SOL    HW152881  14.744   2.261   4.248
50369SOL    HW252882  14.629   2.351   4.289
50370SOL     OW52883  11.777   3.580   5.081
50370SOL    HW152884  11.775   3.674   5.068
50370SOL    HW252885  11.857   3.564   5.131
50371SOL     OW52886  13.817  12.338  13.985
50371SOL    HW152887  13.793  12.412  13.930
50371SOL    HW252888  13.742  12.324  14.042
50372SOL     OW52889   5.360   8.618  10.870
50372SOL    HW152890   5.316   8.543  10.831
50372SOL    HW252891   5.317   8.694  10.830
50373SOL     OW52892   3.785  11.474   3.841
50373SOL    HW152893   3.878  11.454   3.843
50373SOL    HW252894   3.767  11.501   3.751
50374SOL     OW52895  12.111   0.514   6.921
50374SOL    HW152896  12.042   0.514   6.987
50374SOL    HW252897  12.192   0.524   6.970
50375SOL     OW52898  12.777   8.305  13.118
50375SOL    HW152899  12.708   8.272  13.061
50375SOL    HW252900  12.733   8.367  13.176
50376SOL     OW52901  11.539  10.962  14.827
50376SOL    HW152902  11.622  10.945  14.871
50376SOL    HW252903  11.474  10.961   0.020
50377SOL     OW52904   1.325   2.890   8.056
50377SOL    HW152905   1.279   2.958   8.104
50377SOL    HW252906   1.296   2.900   7.965
50378SOL     OW52907   7.168  10.236  12.955
50378SOL    HW152908   7.131  10.273  12.874
50378SOL    HW252909   7.094  10.192  12.996
50379SOL     OW52910   0.161  12.421   8.434
50379SOL    HW152911   0.205  12.370   8.502
50379SOL    HW252912   0.117  12.492   8.482
50380SOL     OW52913   6.936   0.122  10.395
50380SOL    HW152914   7.026   0.145  10.371
50380SOL    HW252915   6.942   0.092  10.485
50381SOL     OW52916  11.724   4.159  11.972
50381SOL    HW152917  11.793   4.128  11.914
50381SOL    HW252918  11.747   4.122  12.058
50382SOL     OW52919   3.536  11.478  11.658
50382SOL    HW152920   3.479  11.540  11.612
50382SOL    HW252921   3.530  11.505  11.750
50383SOL     OW52922  12.338   7.561  11.202
50383SOL    HW152923  12.247   7.533  11.202
50383SOL    HW252924  12.341   7.632  11.265
50384SOL     OW52925   5.620   3.268  11.823
50384SOL    HW152926   5.589   3.226  11.904
50384SOL    HW252927   5.568   3.348  11.816
50385SOL     OW52928   8.245   0.424  14.415
50385SOL    HW152929   8.307   0.352  14.407
50385SOL    HW252930   8.160   0.381  14.425
50386SOL     OW52931   6.490  10.681   6.369
50386SOL    HW152932   6.521  10.671   6.459
50386SOL    HW252933   6.528  10.764   6.339
50387SOL     OW52934  13.612   3.896   6.935
50387SOL    HW152935  13.676   3.867   6.871
50387SOL    HW252936  13.560   3.817   6.954
50388SOL     OW52937  13.875  11.125  13.212
50388SOL    HW152938  13.853  11.109  13.120
50388SOL    HW252939  13.791  11.144  13.254
50389SOL     OW52940   1.376  12.201   9.460
50389SOL    HW152941   1.441  12.142   9.422
50389SOL    HW252942   1.308  12.143   9.495
50390SOL     OW52943   5.464   0.982  14.599
50390SOL    HW152944   5.458   0.972  14.504
50390SOL    HW252945   5.414   0.908  14.634
50391SOL     OW52946   3.177   9.111   0.411
50391SOL    HW152947   3.216   9.059   0.481
50391SOL    HW252948   3.084   9.118   0.435
50392SOL     OW52949   9.152   5.614   0.511
50392SOL    HW152950   9.111   5.542   0.464
50392SOL    HW252951   9.082   5.648   0.568
50393SOL     OW52952  10.077  13.495  10.547
50393SOL    HW152953  10.026  13.460  10.619
50393SOL    HW252954  10.143  13.428  10.528
50394SOL     OW52955  14.839  14.351   4.420
50394SOL    HW152956  14.829  14.434   4.372
50394SOL    HW252957  14.792  14.366   4.503
50395SOL     OW52958  12.879   9.624   2.753
50395SOL    HW152959  12.973   9.645   2.752
50395SOL    HW252960  12.836   9.709   2.743
50396SOL     OW52961   0.754   7.877   3.341
50396SOL    HW152962   0.669   7.921   3.334
50396SOL    HW252963   0.769   7.840   3.254
50397SOL     OW52964   2.923   3.104   0.366
50397SOL    HW152965   2.941   3.069   0.453
50397SOL    HW252966   3.009   3.107   0.323
50398SOL     OW52967   0.531   8.959   8.431
50398SOL    HW152968   0.578   8.877   8.449
50398SOL    HW252969   0.522   8.961   8.336
50399SOL     OW52970   8.475  12.840   7.681
50399SOL    HW152971   8.462  12.856   7.774
50399SOL    HW252972   8.501  12.748   7.675
50400SOL     OW52973   1.032  12.669   3.009
50400SOL    HW152974   1.091  12.677   3.085
50400SOL    HW252975   1.069  12.729   2.945
50401SOL     OW52976   6.621   0.637   9.266
50401SOL    HW152977   6.591   0.723   9.294
50401SOL    HW252978   6.708   0.653   9.230
50402SOL     OW52979   0.233  13.308   2.296
50402SOL    HW152980   0.206  13.383   2.244
50402SOL    HW252981   0.152  13.273   2.332
50403SOL     OW52982   7.152   8.137  12.230
50403SOL    HW152983   7.112   8.124  12.145
50403SOL    HW252984   7.092   8.197  12.276
50404SOL     OW52985   1.662  10.122   0.623
50404SOL    HW152986   1.664  10.109   0.718
50404SOL    HW252987   1.747  10.162   0.603
50405SOL     OW52988   0.366   1.917  14.031
50405SOL    HW152989   0.287   1.933  13.979
50405SOL    HW252990   0.426   1.874  13.970
50406SOL     OW52991  10.131   6.532   8.465
50406SOL    HW152992  10.099   6.450   8.504
50406SOL    HW252993  10.058   6.562   8.411
50407SOL     OW52994   9.488   8.905   6.968
50407SOL    HW152995   9.395   8.928   6.963
50407SOL    HW252996   9.489   8.810   6.979
50408SOL     OW52997   2.611   4.650   4.574
50408SOL    HW152998   2.549   4.602   4.519
50408SOL    HW252999   2.570   4.652   4.660
50409SOL     OW53000   3.076   5.740  11.432
50409SOL    HW153001   3.164   5.706  11.413
50409SOL    HW253002   3.061   5.806  11.365
50410SOL     OW53003  13.412   1.007  14.441
50410SOL    HW153004  13.421   1.100  14.458
50410SOL    HW253005  13.317   0.991  14.440
50411SOL     OW53006   9.229   0.600   8.195
50411SOL    HW153007   9.318   0.565   8.187
50411SOL    HW253008   9.194   0.558   8.273
50412SOL     OW53009   2.109   3.854   1.057
50412SOL    HW153010   2.066   3.889   1.135
50412SOL    HW253011   2.164   3.926   1.026
50413SOL     OW53012   9.444   9.747   8.416
50413SOL    HW153013   9.452   9.653   8.431
50413SOL    HW253014   9.526   9.771   8.372
50414SOL     OW53015   6.014   7.688   9.887
50414SOL    HW153016   5.986   7.718   9.801
50414SOL    HW253017   6.016   7.592   9.880
50415SOL     OW53018  10.843  13.061   1.166
50415SOL    HW153019  10.897  13.032   1.240
50415SOL    HW253020  10.758  13.082   1.204
50416SOL     OW53021   6.758  14.173   5.819
50416SOL    HW153022   6.741  14.228   5.742
50416SOL    HW253023   6.747  14.232   5.893
50417SOL     OW53024   2.901   9.439   7.898
50417SOL    HW153025   2.955   9.431   7.820
50417SOL    HW253026   2.955   9.487   7.960
50418SOL     OW53027   1.366   9.590   6.803
50418SOL    HW153028   1.432   9.556   6.864
50418SOL    HW253029   1.319   9.512   6.773
50419SOL     OW53030   2.837  13.471   4.971
50419SOL    HW153031   2.817  13.504   4.884
50419SOL    HW253032   2.763  13.501   5.025
50420SOL     OW53033   8.600  10.850   7.958
50420SOL    HW153034   8.625  10.762   7.984
50420SOL    HW253035   8.525  10.871   8.015
50421SOL     OW53036   2.182   3.589   1.748
50421SOL    HW153037   2.129   3.667   1.734
50421SOL    HW253038   2.185   3.546   1.662
50422SOL     OW53039  13.006  12.240   6.535
50422SOL    HW153040  13.086  12.273   6.576
50422SOL    HW253041  13.018  12.256   6.441
50423SOL     OW53042  12.861   9.063  14.848
50423SOL    HW153043  12.854   9.158  14.858
50423SOL    HW253044  12.774   9.030  14.873
50424SOL     OW53045   1.199  10.605   3.722
50424SOL    HW153046   1.144  10.669   3.768
50424SOL    HW253047   1.260  10.574   3.789
50425SOL     OW53048  10.947  10.508   9.204
50425SOL    HW153049  10.976  10.504   9.113
50425SOL    HW253050  10.940  10.416   9.231
50426SOL     OW53051   0.653  12.919  14.237
50426SOL    HW153052   0.566  12.915  14.198
50426SOL    HW253053   0.659  13.008  14.272
50427SOL     OW53054   9.202  12.486   4.812
50427SOL    HW153055   9.154  12.551   4.864
50427SOL    HW253056   9.292  12.490   4.845
50428SOL     OW53057   7.114   9.113  12.445
50428SOL    HW153058   7.207   9.108  12.426
50428SOL    HW253059   7.094   9.030  12.489
50429SOL     OW53060  12.201   1.912   7.113
50429SOL    HW153061  12.173   2.003   7.124
50429SOL    HW253062  12.137   1.860   7.161
50430SOL     OW53063   9.479  13.411  14.604
50430SOL    HW153064   9.520  13.495  14.583
50430SOL    HW253065   9.543  13.346  14.575
50431SOL     OW53066  11.817   3.549   4.730
50431SOL    HW153067  11.897   3.504   4.757
50431SOL    HW253068  11.807   3.527   4.638
50432SOL     OW53069   2.314   2.392   1.808
50432SOL    HW153070   2.398   2.362   1.774
50432SOL    HW253071   2.248   2.343   1.759
50433SOL     OW53072  10.779   0.632   0.435
50433SOL    HW153073  10.714   0.676   0.380
50433SOL    HW253074  10.855   0.621   0.378
50434SOL     OW53075   9.816   8.904  10.995
50434SOL    HW153076   9.742   8.964  10.990
50434SOL    HW253077   9.820   8.878  11.088
50435SOL     OW53078   0.189   0.181   1.541
50435SOL    HW153079   0.212   0.268   1.508
50435SOL    HW253080   0.154   0.197   1.628
50436SOL     OW53081   8.996   6.434   3.829
50436SOL    HW153082   9.089   6.419   3.809
50436SOL    HW253083   8.979   6.379   3.905
50437SOL     OW53084   7.573   1.065  13.260
50437SOL    HW153085   7.543   1.154  13.243
50437SOL    HW253086   7.549   1.048  13.351
50438SOL     OW53087   7.088   0.208   7.992
50438SOL    HW153088   7.127   0.216   7.904
50438SOL    HW253089   7.099   0.295   8.031
50439SOL     OW53090   3.479  14.507   1.621
50439SOL    HW153091   3.391  14.544   1.630
50439SOL    HW253092   3.476  14.425   1.671
50440SOL     OW53093   9.010   1.818  11.874
50440SOL    HW153094   9.004   1.904  11.832
50440SOL    HW253095   9.086   1.777  11.833
50441SOL     OW53096  10.879   3.817  10.564
50441SOL    HW153097  10.924   3.860  10.492
50441SOL    HW253098  10.788   3.811  10.535
50442SOL     OW53099   5.923   2.310   1.319
50442SOL    HW153100   5.951   2.401   1.310
50442SOL    HW253101   5.863   2.295   1.246
50443SOL     OW53102   8.963   8.430  11.935
50443SOL    HW153103   8.938   8.519  11.963
50443SOL    HW253104   8.897   8.407  11.869
50444SOL     OW53105   2.399   3.096   4.997
50444SOL    HW153106   2.428   3.187   5.010
50444SOL    HW253107   2.338   3.079   5.069
50445SOL     OW53108   4.725   5.729  11.880
50445SOL    HW153109   4.735   5.727  11.785
50445SOL    HW253110   4.788   5.665  11.912
50446SOL     OW53111   6.802   9.333  13.333
50446SOL    HW153112   6.826   9.262  13.274
50446SOL    HW253113   6.735   9.382  13.286
50447SOL     OW53114   5.771   4.281  14.824
50447SOL    HW153115   5.713   4.232  14.765
50447SOL    HW253116   5.735   4.263   0.034
50448SOL     OW53117  12.380  14.582   9.323
50448SOL    HW153118  12.319  14.652   9.347
50448SOL    HW253119  12.428  14.617   9.247
50449SOL     OW53120   1.096   9.182   2.192
50449SOL    HW153121   1.099   9.116   2.123
50449SOL    HW253122   1.027   9.243   2.165
50450SOL     OW53123   1.138   1.081  13.666
50450SOL    HW153124   1.083   1.087  13.744
50450SOL    HW253125   1.118   1.161  13.617
50451SOL     OW53126   0.651   1.541   6.215
50451SOL    HW153127   0.635   1.622   6.167
50451SOL    HW253128   0.705   1.488   6.157
50452SOL     OW53129   9.544   2.976   8.652
50452SOL    HW153130   9.456   2.939   8.665
50452SOL    HW253131   9.595   2.903   8.615
50453SOL     OW53132   4.043   3.804   5.195
50453SOL    HW153133   4.045   3.807   5.290
50453SOL    HW253134   3.951   3.823   5.172
50454SOL     OW53135   4.196  13.121  12.456
50454SOL    HW153136   4.237  13.089  12.377
50454SOL    HW253137   4.141  13.195  12.427
50455SOL     OW53138   4.464   9.610   4.157
50455SOL    HW153139   4.547   9.566   4.177
50455SOL    HW253140   4.399   9.560   4.206
50456SOL     OW53141   2.838   5.782   1.903
50456SOL    HW153142   2.899   5.734   1.959
50456SOL    HW253143   2.769   5.719   1.882
50457SOL     OW53144   3.905  10.920  11.345
50457SOL    HW153145   3.904  10.855  11.275
50457SOL    HW253146   3.854  10.881  11.416
50458SOL     OW53147   8.887  10.458  10.124
50458SOL    HW153148   8.858  10.538  10.082
50458SOL    HW253149   8.982  10.463  10.126
50459SOL     OW53150   4.460  13.345  14.481
50459SOL    HW153151   4.471  13.315  14.391
50459SOL    HW253152   4.421  13.270  14.527
50460SOL     OW53153   3.845  11.844  11.174
50460SOL    HW153154   3.796  11.762  11.180
50460SOL    HW253155   3.923  11.822  11.124
50461SOL     OW53156   1.106  11.035  14.393
50461SOL    HW153157   1.174  11.095  14.423
50461SOL    HW253158   1.137  11.002  14.309
50462SOL     OW53159   9.264   6.856  11.098
50462SOL    HW153160   9.221   6.797  11.160
50462SOL    HW253161   9.193   6.900  11.052
50463SOL     OW53162   5.501  12.469   4.801
50463SOL    HW153163   5.414  12.506   4.815
50463SOL    HW253164   5.559  12.524   4.854
50464SOL     OW53165  14.421   6.591   6.624
50464SOL    HW153166  14.386   6.659   6.567
50464SOL    HW253167  14.502   6.563   6.582
50465SOL     OW53168   0.468   7.348   8.565
50465SOL    HW153169   0.450   7.269   8.617
50465SOL    HW253170   0.421   7.335   8.483
50466SOL     OW53171   7.897   8.233  14.378
50466SOL    HW153172   7.901   8.261  14.470
50466SOL    HW253173   7.813   8.268  14.347
50467SOL     OW53174   4.021   4.940  13.714
50467SOL    HW153175   3.972   5.021  13.699
50467SOL    HW253176   4.082   4.961  13.784
50468SOL     OW53177   8.244   9.502  13.239
50468SOL    HW153178   8.188   9.501  13.318
50468SOL    HW253179   8.202   9.440  13.180
50469SOL     OW53180  10.052   5.300  11.870
50469SOL    HW153181  10.014   5.215  11.894
50469SOL    HW253182  10.140   5.298  11.907
50470SOL     OW53183   5.464  14.714   6.230
50470SOL    HW153184   5.369  14.729   6.227
50470SOL    HW253185   5.479  14.640   6.172
50471SOL     OW53186  13.202   2.010   4.370
50471SOL    HW153187  13.169   2.080   4.427
50471SOL    HW253188  13.276   1.972   4.419
50472SOL     OW53189   7.948  13.483   6.198
50472SOL    HW153190   7.890  13.409   6.179
50472SOL    HW253191   7.917  13.515   6.283
50473SOL     OW53192   0.219   5.698   2.087
50473SOL    HW153193   0.134   5.669   2.055
50473SOL    HW253194   0.279   5.682   2.014
50474SOL     OW53195   2.340   3.557   0.737
50474SOL    HW153196   2.317   3.558   0.644
50474SOL    HW253197   2.432   3.583   0.739
50475SOL     OW53198  10.154   8.165  10.644
50475SOL    HW153199  10.090   8.206  10.702
50475SOL    HW253200  10.232   8.221  10.651
50476SOL     OW53201   8.287   6.992   7.302
50476SOL    HW153202   8.311   6.908   7.340
50476SOL    HW253203   8.276   6.974   7.208
50477SOL     OW53204  11.877   5.243   4.873
50477SOL    HW153205  11.793   5.220   4.913
50477SOL    HW253206  11.858   5.320   4.820
50478SOL     OW53207   5.778   3.362   6.552
50478SOL    HW153208   5.774   3.299   6.624
50478SOL    HW253209   5.732   3.318   6.480
50479SOL     OW53210   0.711  13.675   7.518
50479SOL    HW153211   0.669  13.738   7.576
50479SOL    HW253212   0.768  13.727   7.462
50480SOL     OW53213  12.789   7.784   4.838
50480SOL    HW153214  12.844   7.711   4.811
50480SOL    HW253215  12.728   7.796   4.765
50481SOL     OW53216   0.376  13.323  13.876
50481SOL    HW153217   0.428  13.344  13.954
50481SOL    HW253218   0.412  13.380  13.808
50482SOL     OW53219   8.996   4.521  10.608
50482SOL    HW153220   8.905   4.546  10.625
50482SOL    HW253221   8.997   4.496  10.516
50483SOL     OW53222   5.343   8.764   4.500
50483SOL    HW153223   5.267   8.778   4.443
50483SOL    HW253224   5.414   8.811   4.456
50484SOL     OW53225  11.483   8.173  12.401
50484SOL    HW153226  11.575   8.172  12.373
50484SOL    HW253227  11.466   8.084  12.431
50485SOL     OW53228   7.044  12.948  10.264
50485SOL    HW153229   7.114  12.883  10.253
50485SOL    HW253230   7.010  12.933  10.352
50486SOL     OW53231   0.214  12.351  11.711
50486SOL    HW153232   0.136  12.357  11.767
50486SOL    HW253233   0.229  12.441  11.682
50487SOL     OW53234   5.621   3.259   1.477
50487SOL    HW153235   5.651   3.214   1.398
50487SOL    HW253236   5.549   3.314   1.447
50488SOL     OW53237   9.356   7.428  11.490
50488SOL    HW153238   9.316   7.445  11.575
50488SOL    HW253239   9.284   7.395  11.436
50489SOL     OW53240   1.355  12.472   0.022
50489SOL    HW153241   1.414  12.430   0.084
50489SOL    HW253242   1.269  12.472   0.066
50490SOL     OW53243  11.911  13.411   3.412
50490SOL    HW153244  11.836  13.351   3.410
50490SOL    HW253245  11.982  13.363   3.369
50491SOL     OW53246   6.124   1.262   6.988
50491SOL    HW153247   6.036   1.268   7.026
50491SOL    HW253248   6.110   1.233   6.898
50492SOL     OW53249   6.759   5.571   7.903
50492SOL    HW153250   6.742   5.510   7.974
50492SOL    HW253251   6.833   5.533   7.856
50493SOL     OW53252   6.400   4.576  13.019
50493SOL    HW153253   6.358   4.634  12.956
50493SOL    HW253254   6.375   4.611  13.105
50494SOL     OW53255   4.871  12.474  14.497
50494SOL    HW153256   4.783  12.438  14.486
50494SOL    HW253257   4.885  12.474  14.591
50495SOL     OW53258   3.431   3.066   8.463
50495SOL    HW153259   3.442   2.971   8.458
50495SOL    HW253260   3.504   3.096   8.518
50496SOL     OW53261   6.037   4.153   6.770
50496SOL    HW153262   5.947   4.155   6.803
50496SOL    HW253263   6.067   4.064   6.788
50497SOL     OW53264   9.689   3.123  14.510
50497SOL    HW153265   9.672   3.030  14.497
50497SOL    HW253266   9.769   3.127  14.562
50498SOL     OW53267  11.309  10.253  10.382
50498SOL    HW153268  11.234  10.225  10.435
50498SOL    HW253269  11.359  10.173  10.366
50499SOL     OW53270  13.721   2.402   7.901
50499SOL    HW153271  13.789   2.460   7.935
50499SOL    HW253272  13.687   2.357   7.978
50500SOL     OW53273   9.773   2.121   2.214
50500SOL    HW153274   9.850   2.073   2.182
50500SOL    HW253275   9.707   2.053   2.228
50501SOL     OW53276   6.729   7.239   6.500
50501SOL    HW153277   6.655   7.212   6.447
50501SOL    HW253278   6.775   7.303   6.447
50502SOL     OW53279   9.043   6.835   1.361
50502SOL    HW153280   9.135   6.822   1.381
50502SOL    HW253281   9.010   6.748   1.341
50503SOL     OW53282   2.053   3.195   0.640
50503SOL    HW153283   2.036   3.196   0.734
50503SOL    HW253284   1.966   3.194   0.600
50504SOL     OW53285   9.092  13.434  10.335
50504SOL    HW153286   9.184  13.443  10.363
50504SOL    HW253287   9.096  13.427  10.240
50505SOL     OW53288   4.799   4.835  13.500
50505SOL    HW153289   4.732   4.813  13.436
50505SOL    HW253290   4.804   4.758  13.557
50506SOL     OW53291  11.877  14.081   6.319
50506SOL    HW153292  11.942  14.136   6.276
50506SOL    HW253293  11.924  14.041   6.392
50507SOL     OW53294   0.915   9.033  10.445
50507SOL    HW153295   0.844   9.059  10.387
50507SOL    HW253296   0.950   9.116  10.479
50508SOL     OW53297   2.695   6.698   0.205
50508SOL    HW153298   2.642   6.678   0.283
50508SOL    HW253299   2.713   6.791   0.211
50509SOL     OW53300  14.174   4.538  11.949
50509SOL    HW153301  14.099   4.597  11.941
50509SOL    HW253302  14.196   4.515  11.859
50510SOL     OW53303   5.725   4.746   3.417
50510SOL    HW153304   5.660   4.785   3.359
50510SOL    HW253305   5.690   4.660   3.439
50511SOL     OW53306   4.652   5.248   0.579
50511SOL    HW153307   4.614   5.186   0.516
50511SOL    HW253308   4.736   5.272   0.541
50512SOL     OW53309  11.939   0.360   0.671
50512SOL    HW153310  11.911   0.269   0.685
50512SOL    HW253311  11.954   0.394   0.760
50513SOL     OW53312   0.485   0.460   1.418
50513SOL    HW153313   0.524   0.544   1.394
50513SOL    HW253314   0.477   0.412   1.335
50514SOL     OW53315  10.432  13.652  13.222
50514SOL    HW153316  10.504  13.598  13.192
50514SOL    HW253317  10.464  13.742  13.215
50515SOL     OW53318   4.642   3.843   0.933
50515SOL    HW153319   4.588   3.783   0.985
50515SOL    HW253320   4.716   3.864   0.991
50516SOL     OW53321   8.238  11.196   6.981
50516SOL    HW153322   8.263  11.197   7.073
50516SOL    HW253323   8.247  11.104   6.954
50517SOL     OW53324  12.250   1.967  12.611
50517SOL    HW153325  12.331   1.921  12.590
50517SOL    HW253326  12.190   1.897  12.638
50518SOL     OW53327   3.270   4.195  10.974
50518SOL    HW153328   3.350   4.240  11.002
50518SOL    HW253329   3.278   4.190  10.878
50519SOL     OW53330  14.184   2.974   2.105
50519SOL    HW153331  14.143   2.990   2.190
50519SOL    HW253332  14.277   2.990   2.119
50520SOL     OW53333  11.126   2.289  11.180
50520SOL    HW153334  11.065   2.256  11.246
50520SOL    HW253335  11.206   2.309  11.228
50521SOL     OW53336   5.495  13.864   6.694
50521SOL    HW153337   5.435  13.912   6.637
50521SOL    HW253338   5.518  13.927   6.763
50522SOL     OW53339   1.691  13.169  14.178
50522SOL    HW153340   1.667  13.220  14.101
50522SOL    HW253341   1.616  13.177  14.237
50523SOL     OW53342   8.686   2.965   8.606
50523SOL    HW153343   8.598   2.983   8.574
50523SOL    HW253344   8.731   3.049   8.602
50524SOL     OW53345   6.316   5.573  14.390
50524SOL    HW153346   6.370   5.572  14.469
50524SOL    HW253347   6.236   5.618  14.417
50525SOL     OW53348   0.620   1.814   5.779
50525SOL    HW153349   0.657   1.882   5.835
50525SOL    HW253350   0.569   1.862   5.714
50526SOL     OW53351  12.269   2.883  12.815
50526SOL    HW153352  12.272   2.824  12.739
50526SOL    HW253353  12.191   2.855  12.864
50527SOL     OW53354  14.259  10.604   2.623
50527SOL    HW153355  14.332  10.622   2.564
50527SOL    HW253356  14.298  10.605   2.710
50528SOL     OW53357   1.020   8.363   3.440
50528SOL    HW153358   1.090   8.310   3.479
50528SOL    HW253359   0.987   8.416   3.513
50529SOL     OW53360   1.359   6.536  11.021
50529SOL    HW153361   1.442   6.581  11.033
50529SOL    HW253362   1.304   6.599  10.974
50530SOL     OW53363  12.491  14.251   7.391
50530SOL    HW153364  12.450  14.177   7.346
50530SOL    HW253365  12.420  14.289   7.444
50531SOL     OW53366   7.848   4.273   8.361
50531SOL    HW153367   7.800   4.252   8.281
50531SOL    HW253368   7.828   4.202   8.421
50532SOL     OW53369   6.366   5.126   4.571
50532SOL    HW153370   6.442   5.158   4.619
50532SOL    HW253371   6.351   5.038   4.605
50533SOL     OW53372  10.333   6.870  13.780
50533SOL    HW153373  10.281   6.941  13.817
50533SOL    HW253374  10.416   6.873  13.827
50534SOL     OW53375  10.759   3.463   0.827
50534SOL    HW153376  10.770   3.478   0.921
50534SOL    HW253377  10.743   3.369   0.819
50535SOL     OW53378   2.952   6.956  14.597
50535SOL    HW153379   2.876   6.995  14.641
50535SOL    HW253380   2.925   6.947  14.506
50536SOL     OW53381   5.213   9.351  13.184
50536SOL    HW153382   5.260   9.278  13.142
50536SOL    HW253383   5.129   9.354  13.138
50537SOL     OW53384   8.143   2.679   7.712
50537SOL    HW153385   8.122   2.633   7.631
50537SOL    HW253386   8.162   2.609   7.775
50538SOL     OW53387   2.584   4.946  11.753
50538SOL    HW153388   2.501   4.908  11.727
50538SOL    HW253389   2.622   4.979  11.672
50539SOL     OW53390  13.437   5.162  10.212
50539SOL    HW153391  13.438   5.076  10.255
50539SOL    HW253392  13.452   5.143  10.120
50540SOL     OW53393   2.874   7.739   1.313
50540SOL    HW153394   2.817   7.667   1.289
50540SOL    HW253395   2.909   7.715   1.399
50541SOL     OW53396   0.380   8.828   2.114
50541SOL    HW153397   0.382   8.837   2.019
50541SOL    HW253398   0.472   8.833   2.141
50542SOL     OW53399  10.286   7.166   5.924
50542SOL    HW153400  10.364   7.160   5.979
50542SOL    HW253401  10.273   7.260   5.910
50543SOL     OW53402   2.513   0.946  11.382
50543SOL    HW153403   2.457   0.990  11.317
50543SOL    HW253404   2.521   0.856  11.350
50544SOL     OW53405  11.232   0.143   8.599
50544SOL    HW153406  11.163   0.109   8.656
50544SOL    HW253407  11.284   0.200   8.656
50545SOL     OW53408   1.261   1.803  13.644
50545SOL    HW153409   1.315   1.811  13.565
50545SOL    HW253410   1.230   1.892  13.661
50546SOL     OW53411   2.175  13.578   4.294
50546SOL    HW153412   2.229  13.585   4.372
50546SOL    HW253413   2.094  13.623   4.316
50547SOL     OW53414   0.544   0.608  14.288
50547SOL    HW153415   0.471   0.547  14.287
50547SOL    HW253416   0.533   0.657  14.369
50548SOL     OW53417   8.386  11.278  11.448
50548SOL    HW153418   8.437  11.199  11.430
50548SOL    HW253419   8.325  11.252  11.518
50549SOL     OW53420  14.590   1.084   2.094
50549SOL    HW153421  14.624   0.995   2.105
50549SOL    HW253422  14.497   1.071   2.075
50550SOL     OW53423   2.491   3.749   2.215
50550SOL    HW153424   2.559   3.682   2.208
50550SOL    HW253425   2.536   3.831   2.198
50551SOL     OW53426   3.138   9.806   7.280
50551SOL    HW153427   3.046   9.784   7.299
50551SOL    HW253428   3.183   9.721   7.280
50552SOL     OW53429   4.207   5.738   0.270
50552SOL    HW153430   4.256   5.800   0.217
50552SOL    HW253431   4.196   5.782   0.355
50553SOL     OW53432   1.062   7.014   4.998
50553SOL    HW153433   1.071   7.107   4.980
50553SOL    HW253434   0.968   6.998   5.000
50554SOL     OW53435   7.850  13.711   5.902
50554SOL    HW153436   7.858  13.634   5.846
50554SOL    HW253437   7.784  13.688   5.966
50555SOL     OW53438   3.101   4.324   8.873
50555SOL    HW153439   3.109   4.375   8.953
50555SOL    HW253440   3.008   4.327   8.852
50556SOL     OW53441   4.255   6.244   8.887
50556SOL    HW153442   4.243   6.209   8.975
50556SOL    HW253443   4.346   6.221   8.865
50557SOL     OW53444   1.413   6.966   0.684
50557SOL    HW153445   1.330   7.014   0.690
50557SOL    HW253446   1.479   7.034   0.671
50558SOL     OW53447  13.382   4.154  12.160
50558SOL    HW153448  13.369   4.078  12.104
50558SOL    HW253449  13.293   4.184  12.182
50559SOL     OW53450   3.104   9.757   6.606
50559SOL    HW153451   3.177   9.809   6.639
50559SOL    HW253452   3.075   9.705   6.682
50560SOL     OW53453   5.749   9.395   1.659
50560SOL    HW153454   5.737   9.453   1.734
50560SOL    HW253455   5.784   9.314   1.696
50561SOL     OW53456   3.379   1.718  14.562
50561SOL    HW153457   3.340   1.631  14.571
50561SOL    HW253458   3.443   1.723  14.633
50562SOL     OW53459   1.001   7.756   8.171
50562SOL    HW153460   1.076   7.796   8.216
50562SOL    HW253461   0.986   7.674   8.219
50563SOL     OW53462   7.383   5.852  14.800
50563SOL    HW153463   7.472   5.817  14.805
50563SOL    HW253464   7.382   5.903  14.719
50564SOL     OW53465  13.007  10.692  13.757
50564SOL    HW153466  13.056  10.634  13.816
50564SOL    HW253467  12.993  10.640  13.678
50565SOL     OW53468   4.213   6.869  13.991
50565SOL    HW153469   4.283   6.809  13.965
50565SOL    HW253470   4.137   6.813  14.004
50566SOL     OW53471  14.616   5.048   3.319
50566SOL    HW153472  14.521   5.036   3.318
50566SOL    HW253473  14.650   4.977   3.265
50567SOL     OW53474  13.708  11.611  14.611
50567SOL    HW153475  13.786  11.667  14.616
50567SOL    HW253476  13.655  11.638  14.686
50568SOL     OW53477  12.047   2.253  13.698
50568SOL    HW153478  12.052   2.318  13.768
50568SOL    HW253479  12.137   2.225  13.683
50569SOL     OW53480   6.176   8.473  14.691
50569SOL    HW153481   6.204   8.480  14.782
50569SOL    HW253482   6.238   8.527  14.642
50570SOL     OW53483  13.858  13.177  14.306
50570SOL    HW153484  13.858  13.176  14.210
50570SOL    HW253485  13.816  13.094  14.330
50571SOL     OW53486   7.327   8.137   9.236
50571SOL    HW153487   7.299   8.210   9.180
50571SOL    HW253488   7.277   8.148   9.317
50572SOL     OW53489   5.428   0.970  14.330
50572SOL    HW153490   5.372   0.908  14.283
50572SOL    HW253491   5.403   1.056  14.296
50573SOL     OW53492   7.346   4.180   9.735
50573SOL    HW153493   7.265   4.135   9.713
50573SOL    HW253494   7.415   4.122   9.704
50574SOL     OW53495   8.765  10.720  13.701
50574SOL    HW153496   8.721  10.804  13.711
50574SOL    HW253497   8.738  10.688  13.615
50575SOL     OW53498  14.667  12.203   2.746
50575SOL    HW153499  14.714  12.173   2.824
50575SOL    HW253500  14.701  12.291   2.729
50576SOL     OW53501   1.119   8.903  13.292
50576SOL    HW153502   1.111   8.817  13.335
50576SOL    HW253503   1.071   8.893  13.210
50577SOL     OW53504   6.853   7.579  14.211
50577SOL    HW153505   6.815   7.515  14.272
50577SOL    HW253506   6.793   7.653  14.215
50578SOL     OW53507  13.184   4.756   0.993
50578SOL    HW153508  13.152   4.833   0.946
50578SOL    HW253509  13.124   4.746   1.067
50579SOL     OW53510  12.758   8.805   6.836
50579SOL    HW153511  12.820   8.738   6.863
50579SOL    HW253512  12.673   8.775   6.869
50580SOL     OW53513   4.900   8.171   2.680
50580SOL    HW153514   4.827   8.178   2.619
50580SOL    HW253515   4.924   8.078   2.679
50581SOL     OW53516   7.388   1.760   4.902
50581SOL    HW153517   7.387   1.720   4.815
50581SOL    HW253518   7.308   1.728   4.944
50582SOL     OW53519  11.944   1.107   4.044
50582SOL    HW153520  11.982   1.092   4.131
50582SOL    HW253521  11.855   1.136   4.062
50583SOL     OW53522  11.782   3.214   2.098
50583SOL    HW153523  11.751   3.186   2.011
50583SOL    HW253524  11.701   3.229   2.148
50584SOL     OW53525  12.974  14.072   2.474
50584SOL    HW153526  13.069  14.070   2.472
50584SOL    HW253527  12.947  14.011   2.406
50585SOL     OW53528   6.991   9.227  11.118
50585SOL    HW153529   7.003   9.234  11.023
50585SOL    HW253530   7.079   9.230  11.154
50586SOL     OW53531  14.556   3.541  12.440
50586SOL    HW153532  14.579   3.481  12.511
50586SOL    HW253533  14.471   3.576  12.464
50587SOL     OW53534   8.788   9.730   4.987
50587SOL    HW153535   8.823   9.680   4.914
50587SOL    HW253536   8.714   9.778   4.951
50588SOL     OW53537   1.097   2.372  12.429
50588SOL    HW153538   1.167   2.436  12.436
50588SOL    HW253539   1.018   2.423  12.411
50589SOL     OW53540   1.894   0.747   8.013
50589SOL    HW153541   1.810   0.706   7.995
50589SOL    HW253542   1.871   0.831   8.052
50590SOL     OW53543   3.549  10.787   5.701
50590SOL    HW153544   3.604  10.737   5.761
50590SOL    HW253545   3.470  10.734   5.690
50591SOL     OW53546   0.122   9.810  13.067
50591SOL    HW153547   0.037   9.771  13.085
50591SOL    HW253548   0.133   9.801  12.973
50592SOL     OW53549   6.610   0.866  14.768
50592SOL    HW153550   6.527   0.911  14.754
50592SOL    HW253551   6.648   0.858  14.680
50593SOL     OW53552   3.022   6.190  14.031
50593SOL    HW153553   3.009   6.111  14.084
50593SOL    HW253554   2.997   6.262  14.088
50594SOL     OW53555  12.861   4.300   5.790
50594SOL    HW153556  12.797   4.298   5.861
50594SOL    HW253557  12.850   4.217   5.745
50595SOL     OW53558  12.014  13.148   8.777
50595SOL    HW153559  11.926  13.184   8.772
50595SOL    HW253560  12.008  13.080   8.844
50596SOL     OW53561  12.935   3.570   3.926
50596SOL    HW153562  12.975   3.489   3.893
50596SOL    HW253563  12.987   3.640   3.887
50597SOL     OW53564  12.698  11.785   6.263
50597SOL    HW153565  12.674  11.864   6.214
50597SOL    HW253566  12.772  11.811   6.317
50598SOL     OW53567   2.691   9.946   1.700
50598SOL    HW153568   2.674   9.988   1.784
50598SOL    HW253569   2.786   9.954   1.688
50599SOL     OW53570   7.384   7.226   2.167
50599SOL    HW153571   7.324   7.155   2.189
50599SOL    HW253572   7.410   7.209   2.077
50600SOL     OW53573   7.194   9.010  10.360
50600SOL    HW153574   7.196   8.928  10.312
50600SOL    HW253575   7.141   8.990  10.438
50601SOL     OW53576  14.268   8.672   4.478
50601SOL    HW153577  14.197   8.672   4.542
50601SOL    HW253578  14.347   8.655   4.529
50602SOL     OW53579   9.016   8.194  12.167
50602SOL    HW153580   9.078   8.223  12.099
50602SOL    HW253581   8.969   8.273  12.192
50603SOL     OW53582  12.820   0.074   6.743
50603SOL    HW153583  12.792   0.152   6.695
50603SOL    HW253584  12.913   0.089   6.760
50604SOL     OW53585   8.206   3.929   0.095
50604SOL    HW153586   8.278   3.921   0.157
50604SOL    HW253587   8.242   3.981   0.023
50605SOL     OW53588   0.612   9.605   3.817
50605SOL    HW153589   0.684   9.651   3.861
50605SOL    HW253590   0.642   9.515   3.810
50606SOL     OW53591   2.206   9.059   5.509
50606SOL    HW153592   2.152   8.982   5.490
50606SOL    HW253593   2.215   9.059   5.604
50607SOL     OW53594   4.079   3.777  10.906
50607SOL    HW153595   3.989   3.807  10.917
50607SOL    HW253596   4.070   3.686  10.879
50608SOL     OW53597   3.160   3.080   9.105
50608SOL    HW153598   3.095   3.136   9.062
50608SOL    HW253599   3.198   3.135   9.173
50609SOL     OW53600   0.042   3.934  10.873
50609SOL    HW153601   0.085   3.948  10.788
50609SOL    HW253602   0.033   3.839  10.880
50610SOL     OW53603   3.377   2.233   4.902
50610SOL    HW153604   3.460   2.253   4.859
50610SOL    HW253605   3.332   2.174   4.841
50611SOL     OW53606  12.632   6.708  10.352
50611SOL    HW153607  12.557   6.724  10.294
50611SOL    HW253608  12.594   6.710  10.440
50612SOL     OW53609   1.464  10.464   8.831
50612SOL    HW153610   1.508  10.546   8.856
50612SOL    HW253611   1.387  10.492   8.781
50613SOL     OW53612   9.280   5.931   0.540
50613SOL    HW153613   9.326   6.007   0.576
50613SOL    HW253614   9.305   5.859   0.598
50614SOL     OW53615  11.572   9.092  10.476
50614SOL    HW153616  11.481   9.121  10.487
50614SOL    HW253617  11.609   9.100  10.564
50615SOL     OW53618  10.272  12.473   5.986
50615SOL    HW153619  10.287  12.562   6.019
50615SOL    HW253620  10.222  12.430   6.055
50616SOL     OW53621  14.662   5.432   4.300
50616SOL    HW153622  14.607   5.492   4.352
50616SOL    HW253623  14.737   5.414   4.357
50617SOL     OW53624   4.009  10.778   0.139
50617SOL    HW153625   3.979  10.693   0.171
50617SOL    HW253626   3.973  10.784   0.050
50618SOL     OW53627   6.395   6.693  14.004
50618SOL    HW153628   6.335   6.619  13.990
50618SOL    HW253629   6.368   6.758  13.939
50619SOL     OW53630  13.629   6.938   4.389
50619SOL    HW153631  13.627   6.852   4.430
50619SOL    HW253632  13.683   6.927   4.311
50620SOL     OW53633   9.762  11.291   6.607
50620SOL    HW153634   9.710  11.247   6.540
50620SOL    HW253635   9.716  11.273   6.689
50621SOL     OW53636  11.932   1.271   3.665
50621SOL    HW153637  11.911   1.190   3.620
50621SOL    HW253638  11.871   1.275   3.739
50622SOL     OW53639   2.835   2.076   7.835
50622SOL    HW153640   2.787   2.020   7.774
50622SOL    HW253641   2.767   2.110   7.894
50623SOL     OW53642  14.217   4.110   9.161
50623SOL    HW153643  14.247   4.097   9.251
50623SOL    HW253644  14.127   4.076   9.161
50624SOL     OW53645  13.164   7.814   4.454
50624SOL    HW153646  13.205   7.733   4.423
50624SOL    HW253647  13.075   7.812   4.417
50625SOL     OW53648   5.186   6.703  13.572
50625SOL    HW153649   5.213   6.790  13.600
50625SOL    HW253650   5.105   6.718  13.522
50626SOL     OW53651  10.827   1.705  11.090
50626SOL    HW153652  10.734   1.724  11.102
50626SOL    HW253653  10.872   1.777  11.134
50627SOL     OW53654  13.804   6.454  12.793
50627SOL    HW153655  13.764   6.370  12.767
50627SOL    HW253656  13.807   6.450  12.889
50628SOL     OW53657   0.805   1.189   6.197
50628SOL    HW153658   0.888   1.156   6.161
50628SOL    HW253659   0.790   1.271   6.150
50629SOL     OW53660   0.290  11.997  13.039
50629SOL    HW153661   0.304  11.914  12.993
50629SOL    HW253662   0.254  12.055  12.973
50630SOL     OW53663   0.804  13.623  10.053
50630SOL    HW153664   0.798  13.673  10.135
50630SOL    HW253665   0.717  13.585  10.042
50631SOL     OW53666  11.795  14.397   9.531
50631SOL    HW153667  11.799  14.309   9.567
50631SOL    HW253668  11.758  14.385   9.443
50632SOL     OW53669  12.102   3.628   7.306
50632SOL    HW153670  12.117   3.565   7.235
50632SOL    HW253671  12.119   3.713   7.266
50633SOL     OW53672   4.040  10.542   5.564
50633SOL    HW153673   4.035  10.536   5.469
50633SOL    HW253674   4.039  10.451   5.594
50634SOL     OW53675  13.356  10.001  12.575
50634SOL    HW153676  13.420   9.937  12.606
50634SOL    HW253677  13.313   9.958  12.501
50635SOL     OW53678   2.700   9.900   3.374
50635SOL    HW153679   2.782   9.949   3.382
50635SOL    HW253680   2.703   9.863   3.286
50636SOL     OW53681   3.168  11.618   2.355
50636SOL    HW153682   3.084  11.655   2.327
50636SOL    HW253683   3.163  11.525   2.330
50637SOL     OW53684  14.514  12.394  10.238
50637SOL    HW153685  14.549  12.481  10.216
50637SOL    HW253686  14.427  12.412  10.273
50638SOL     OW53687  14.099   9.236  12.995
50638SOL    HW153688  14.022   9.290  13.014
50638SOL    HW253689  14.157   9.252  13.069
50639SOL     OW53690   3.653   4.766   9.147
50639SOL    HW153691   3.592   4.829   9.185
50639SOL    HW253692   3.735   4.782   9.194
50640SOL     OW53693   2.650   2.413   5.163
50640SOL    HW153694   2.700   2.478   5.212
50640SOL    HW253695   2.674   2.428   5.072
50641SOL     OW53696   0.691   1.354   8.425
50641SOL    HW153697   0.767   1.386   8.376
50641SOL    HW253698   0.619   1.355   8.361
50642SOL     OW53699   5.846   0.443   0.153
50642SOL    HW153700   5.768   0.426   0.100
50642SOL    HW253701   5.815   0.442   0.244
50643SOL     OW53702   2.264  12.726   0.093
50643SOL    HW153703   2.354  12.711   0.124
50643SOL    HW253704   2.274  12.752   0.002
50644SOL     OW53705  10.186   5.357   6.428
50644SOL    HW153706  10.195   5.262   6.416
50644SOL    HW253707  10.189   5.370   6.522
50645SOL     OW53708   8.090  11.314  10.783
50645SOL    HW153709   8.025  11.258  10.824
50645SOL    HW253710   8.084  11.397  10.831
50646SOL     OW53711   1.815   3.600  11.157
50646SOL    HW153712   1.751   3.666  11.132
50646SOL    HW253713   1.900   3.644  11.144
50647SOL     OW53714   6.079   9.752   7.891
50647SOL    HW153715   6.167   9.765   7.926
50647SOL    HW253716   6.087   9.769   7.797
50648SOL     OW53717   7.795   7.686   4.247
50648SOL    HW153718   7.855   7.646   4.185
50648SOL    HW253719   7.852   7.727   4.313
50649SOL     OW53720   2.455   2.077   1.167
50649SOL    HW153721   2.380   2.069   1.108
50649SOL    HW253722   2.531   2.076   1.108
50650SOL     OW53723   2.582   0.294   9.659
50650SOL    HW153724   2.635   0.256   9.589
50650SOL    HW253725   2.643   0.348   9.709
50651SOL     OW53726   7.692  12.218   1.802
50651SOL    HW153727   7.756  12.206   1.732
50651SOL    HW253728   7.650  12.133   1.812
50652SOL     OW53729  13.952   7.345   8.087
50652SOL    HW153730  13.985   7.294   8.161
50652SOL    HW253731  14.012   7.326   8.015
50653SOL     OW53732   5.564   0.128  10.378
50653SOL    HW153733   5.477   0.092  10.391
50653SOL    HW253734   5.610   0.060  10.328
50654SOL     OW53735   6.438   8.506   1.337
50654SOL    HW153736   6.473   8.591   1.311
50654SOL    HW253737   6.427   8.457   1.255
50655SOL     OW53738  13.237   0.321  10.968
50655SOL    HW153739  13.190   0.359  10.894
50655SOL    HW253740  13.227   0.385  11.038
50656SOL     OW53741   3.480  11.565   8.169
50656SOL    HW153742   3.523  11.563   8.255
50656SOL    HW253743   3.476  11.658   8.146
50657SOL     OW53744  10.375  14.371  10.104
50657SOL    HW153745  10.338  14.459  10.101
50657SOL    HW253746  10.304  14.313  10.077
50658SOL     OW53747   2.329  12.138  11.096
50658SOL    HW153748   2.318  12.205  11.027
50658SOL    HW253749   2.348  12.058  11.048
50659SOL     OW53750  14.213   0.912   0.796
50659SOL    HW153751  14.188   0.945   0.883
50659SOL    HW253752  14.132   0.915   0.745
50660SOL     OW53753   2.777  11.855   6.622
50660SOL    HW153754   2.725  11.880   6.545
50660SOL    HW253755   2.868  11.867   6.593
50661SOL     OW53756   2.609   2.901   5.041
50661SOL    HW153757   2.548   2.834   5.071
50661SOL    HW253758   2.553   2.974   5.014
50662SOL     OW53759   2.344  12.765   7.841
50662SOL    HW153760   2.358  12.784   7.934
50662SOL    HW253761   2.395  12.686   7.825
50663SOL     OW53762  12.106  13.007   4.403
50663SOL    HW153763  12.060  12.923   4.404
50663SOL    HW253764  12.185  12.991   4.351
50664SOL     OW53765  14.717  11.654   8.205
50664SOL    HW153766  14.648  11.608   8.252
50664SOL    HW253767  14.726  11.738   8.250
50665SOL     OW53768  14.873   5.975   9.746
50665SOL    HW153769  14.863   6.048   9.808
50665SOL    HW253770   0.089   5.969   9.731
50666SOL     OW53771  14.428   3.261   6.911
50666SOL    HW153772  14.420   3.201   6.985
50666SOL    HW253773  14.522   3.275   6.901
50667SOL     OW53774   9.651   9.408   2.684
50667SOL    HW153775   9.612   9.495   2.693
50667SOL    HW253776   9.618   9.360   2.760
50668SOL     OW53777   3.655   9.391   1.978
50668SOL    HW153778   3.709   9.379   1.900
50668SOL    HW253779   3.626   9.303   2.001
50669SOL     OW53780  14.779   5.409   5.044
50669SOL    HW153781  14.711   5.463   5.084
50669SOL    HW253782  14.819   5.466   4.978
50670SOL     OW53783  14.151  11.708   8.092
50670SOL    HW153784  14.068  11.728   8.048
50670SOL    HW253785  14.173  11.620   8.062
50671SOL     OW53786   2.018   0.909   2.844
50671SOL    HW153787   2.006   0.885   2.936
50671SOL    HW253788   1.949   0.973   2.827
50672SOL     OW53789   9.569   9.019   7.569
50672SOL    HW153790   9.574   8.925   7.588
50672SOL    HW253791   9.502   9.051   7.628
50673SOL     OW53792   4.549   6.322  12.443
50673SOL    HW153793   4.473   6.288  12.395
50673SOL    HW253794   4.514   6.347  12.528
50674SOL     OW53795   1.138   5.773   8.484
50674SOL    HW153796   1.106   5.739   8.567
50674SOL    HW253797   1.191   5.849   8.508
50675SOL     OW53798   1.661   8.820   8.838
50675SOL    HW153799   1.635   8.766   8.764
50675SOL    HW253800   1.750   8.848   8.817
50676SOL     OW53801   1.981   3.398   1.020
50676SOL    HW153802   2.016   3.397   1.109
50676SOL    HW253803   2.024   3.472   0.978
50677SOL     OW53804  14.023   0.912  14.300
50677SOL    HW153805  13.945   0.958  14.270
50677SOL    HW253806  14.032   0.936  14.392
50678SOL     OW53807   4.409   8.996   4.972
50678SOL    HW153808   4.347   9.068   4.961
50678SOL    HW253809   4.471   9.028   5.037
50679SOL     OW53810   5.818   3.604   8.070
50679SOL    HW153811   5.750   3.616   8.137
50679SOL    HW253812   5.837   3.692   8.038
50680SOL     OW53813   3.170   7.010   7.185
50680SOL    HW153814   3.223   7.014   7.265
50680SOL    HW253815   3.219   6.952   7.127
50681SOL     OW53816  12.930   8.323   7.609
50681SOL    HW153817  12.919   8.416   7.588
50681SOL    HW253818  12.995   8.292   7.546
50682SOL     OW53819   4.320   7.061   4.289
50682SOL    HW153820   4.314   7.151   4.324
50682SOL    HW253821   4.389   7.066   4.223
50683SOL     OW53822   4.390   5.476   6.881
50683SOL    HW153823   4.354   5.549   6.829
50683SOL    HW253824   4.425   5.518   6.960
50684SOL     OW53825   0.564  14.502  12.890
50684SOL    HW153826   0.481  14.460  12.868
50684SOL    HW253827   0.628  14.460  12.833
50685SOL     OW53828   7.609   9.740  14.066
50685SOL    HW153829   7.590   9.651  14.035
50685SOL    HW253830   7.676   9.727  14.134
50686SOL     OW53831  12.567   0.552   8.179
50686SOL    HW153832  12.478   0.518   8.189
50686SOL    HW253833  12.604   0.501   8.107
50687SOL     OW53834   4.575   3.542   0.519
50687SOL    HW153835   4.595   3.627   0.559
50687SOL    HW253836   4.522   3.564   0.442
50688SOL     OW53837   8.583  11.112   6.815
50688SOL    HW153838   8.676  11.090   6.810
50688SOL    HW253839   8.575  11.166   6.893
50689SOL     OW53840   7.582   8.022   2.267
50689SOL    HW153841   7.584   7.939   2.316
50689SOL    HW253842   7.656   8.016   2.207
50690SOL     OW53843   2.603   4.208   3.319
50690SOL    HW153844   2.606   4.124   3.366
50690SOL    HW253845   2.529   4.200   3.260
50691SOL     OW53846   4.692   7.771   2.341
50691SOL    HW153847   4.693   7.722   2.424
50691SOL    HW253848   4.762   7.836   2.351
50692SOL     OW53849  11.449   0.666  14.487
50692SOL    HW153850  11.489   0.721  14.420
50692SOL    HW253851  11.521   0.613  14.520
50693SOL     OW53852   3.223   9.811   7.701
50693SOL    HW153853   3.198   9.899   7.671
50693SOL    HW253854   3.141   9.762   7.703
50694SOL     OW53855   4.557  10.533  14.015
50694SOL    HW153856   4.610  10.453  14.016
50694SOL    HW253857   4.611  10.598  13.972
50695SOL     OW53858  14.503   7.156   9.632
50695SOL    HW153859  14.558   7.099   9.578
50695SOL    HW253860  14.528   7.135   9.722
50696SOL     OW53861   3.998   8.700   5.356
50696SOL    HW153862   4.056   8.752   5.301
50696SOL    HW253863   3.927   8.674   5.297
50697SOL     OW53864   8.780   3.158   5.969
50697SOL    HW153865   8.788   3.097   6.042
50697SOL    HW253866   8.859   3.144   5.917
50698SOL     OW53867   9.591   2.458  13.176
50698SOL    HW153868   9.506   2.427  13.144
50698SOL    HW253869   9.571   2.503  13.258
50699SOL     OW53870   4.834  11.358   3.047
50699SOL    HW153871   4.826  11.292   2.978
50699SOL    HW253872   4.848  11.307   3.127
50700SOL     OW53873  10.983  10.590   3.125
50700SOL    HW153874  10.995  10.590   3.030
50700SOL    HW253875  11.069  10.617   3.160
50701SOL     OW53876   9.188  12.782   4.230
50701SOL    HW153877   9.161  12.743   4.313
50701SOL    HW253878   9.123  12.849   4.213
50702SOL     OW53879  11.105   1.247   2.529
50702SOL    HW153880  11.078   1.304   2.457
50702SOL    HW253881  11.063   1.285   2.607
50703SOL     OW53882  14.616   3.399  13.607
50703SOL    HW153883  14.711   3.393  13.594
50703SOL    HW253884  14.606   3.452  13.686
50704SOL     OW53885  10.735   6.162  12.553
50704SOL    HW153886  10.719   6.090  12.492
50704SOL    HW253887  10.775   6.121  12.630
50705SOL     OW53888  10.946   3.297   8.588
50705SOL    HW153889  10.857   3.276   8.562
50705SOL    HW253890  10.997   3.220   8.562
50706SOL     OW53891  10.202  11.546   1.160
50706SOL    HW153892  10.211  11.585   1.247
50706SOL    HW253893  10.121  11.495   1.165
50707SOL     OW53894   4.132   4.443   7.342
50707SOL    HW153895   4.103   4.353   7.323
50707SOL    HW253896   4.190   4.434   7.417
50708SOL     OW53897  14.144  10.266   8.501
50708SOL    HW153898  14.149  10.253   8.595
50708SOL    HW253899  14.176  10.185   8.462
50709SOL     OW53900   6.342   5.926  14.511
50709SOL    HW153901   6.425   5.895  14.476
50709SOL    HW253902   6.359   6.017  14.536
50710SOL     OW53903   0.449   7.731   9.316
50710SOL    HW153904   0.423   7.777   9.236
50710SOL    HW253905   0.381   7.753   9.380
50711SOL     OW53906  11.718  10.405   5.174
50711SOL    HW153907  11.775  10.354   5.117
50711SOL    HW253908  11.679  10.341   5.233
50712SOL     OW53909  12.225   0.243   1.384
50712SOL    HW153910  12.297   0.193   1.346
50712SOL    HW253911  12.229   0.329   1.341
50713SOL     OW53912  12.472  11.389   0.711
50713SOL    HW153913  12.473  11.320   0.644
50713SOL    HW253914  12.473  11.471   0.661
50714SOL     OW53915   7.230   7.491  13.930
50714SOL    HW153916   7.239   7.396  13.921
50714SOL    HW253917   7.144   7.503  13.970
50715SOL     OW53918   4.114  13.623   5.274
50715SOL    HW153919   4.048  13.599   5.209
50715SOL    HW253920   4.182  13.556   5.265
50716SOL     OW53921   9.599  10.664   4.598
50716SOL    HW153922   9.652  10.589   4.626
50716SOL    HW253923   9.570  10.704   4.680
50717SOL     OW53924   8.544   5.786  13.490
50717SOL    HW153925   8.567   5.792  13.397
50717SOL    HW253926   8.625   5.759  13.533
50718SOL     OW53927   9.376   6.040   4.317
50718SOL    HW153928   9.440   5.973   4.340
50718SOL    HW253929   9.291   5.996   4.323
50719SOL     OW53930  10.533  13.911   6.231
50719SOL    HW153931  10.527  13.816   6.224
50719SOL    HW253932  10.608  13.926   6.289
50720SOL     OW53933   4.973   9.706  11.185
50720SOL    HW153934   4.912   9.709  11.259
50720SOL    HW253935   5.033   9.779  11.201
50721SOL     OW53936   4.464   6.796   4.885
50721SOL    HW153937   4.446   6.783   4.792
50721SOL    HW253938   4.398   6.744   4.930
50722SOL     OW53939   0.351   9.386   2.741
50722SOL    HW153940   0.423   9.408   2.681
50722SOL    HW253941   0.393   9.336   2.811
50723SOL     OW53942   5.432   9.140  14.281
50723SOL    HW153943   5.373   9.144  14.355
50723SOL    HW253944   5.508   9.193  14.307
50724SOL     OW53945   2.085   7.037   6.522
50724SOL    HW153946   2.113   7.107   6.464
50724SOL    HW253947   1.997   7.062   6.549
50725SOL     OW53948   2.340   2.505   2.400
50725SOL    HW153949   2.399   2.463   2.338
50725SOL    HW253950   2.296   2.573   2.349
50726SOL     OW53951   5.713   4.683   7.204
50726SOL    HW153952   5.652   4.642   7.142
50726SOL    HW253953   5.732   4.769   7.166
50727SOL     OW53954  10.762  10.628  14.857
50727SOL    HW153955  10.829  10.569   0.015
50727SOL    HW253956  10.804  10.668  14.780
50728SOL     OW53957  12.364   4.285   9.876
50728SOL    HW153958  12.443   4.294   9.824
50728SOL    HW253959  12.313   4.217   9.831
50729SOL     OW53960   9.115  14.158   5.837
50729SOL    HW153961   9.144  14.070   5.862
50729SOL    HW253962   9.187  14.215   5.863
50730SOL     OW53963   2.342   9.740   3.151
50730SOL    HW153964   2.350   9.652   3.115
50730SOL    HW253965   2.262   9.737   3.204
50731SOL     OW53966   4.289   6.311   8.376
50731SOL    HW153967   4.224   6.323   8.307
50731SOL    HW253968   4.244   6.261   8.444
50732SOL     OW53969   4.938   1.305  11.015
50732SOL    HW153970   4.898   1.241  11.074
50732SOL    HW253971   4.867   1.329  10.955
50733SOL     OW53972   1.843   1.272   0.028
50733SOL    HW153973   1.898   1.351   0.027
50733SOL    HW253974   1.754   1.306   0.039
50734SOL     OW53975   2.117   7.066   9.977
50734SOL    HW153976   2.041   7.081   9.921
50734SOL    HW253977   2.160   6.989   9.939
50735SOL     OW53978  11.794  13.155  11.506
50735SOL    HW153979  11.779  13.060  11.511
50735SOL    HW253980  11.864  13.165  11.443
50736SOL     OW53981  14.640  11.259   8.748
50736SOL    HW153982  14.636  11.202   8.825
50736SOL    HW253983  14.732  11.282   8.740
50737SOL     OW53984   2.753  11.132   1.136
50737SOL    HW153985   2.693  11.191   1.181
50737SOL    HW253986   2.800  11.189   1.073
50738SOL     OW53987   9.987   1.639   0.938
50738SOL    HW153988  10.037   1.568   0.977
50738SOL    HW253989   9.895   1.615   0.954
50739SOL     OW53990   2.721  13.820   0.165
50739SOL    HW153991   2.625  13.822   0.162
50739SOL    HW253992   2.741  13.734   0.202
50740SOL     OW53993  14.855   5.704  10.034
50740SOL    HW153994   0.061   5.745  10.013
50740SOL    HW253995  14.810   5.696   9.950
50741SOL     OW53996  14.423   0.925  12.835
50741SOL    HW153997  14.364   0.943  12.762
50741SOL    HW253998  14.400   0.836  12.862
50742SOL     OW53999   1.233   9.194  14.469
50742SOL    HW154000   1.195   9.112  14.501
50742SOL    HW254001   1.163   9.258  14.477
50743SOL     OW54002   9.390   6.740   9.613
50743SOL    HW154003   9.320   6.698   9.664
50743SOL    HW254004   9.345   6.777   9.537
50744SOL     OW54005  12.091  12.189   0.739
50744SOL    HW154006  12.160  12.253   0.757
50744SOL    HW254007  12.074  12.149   0.824
50745SOL     OW54008  10.119  10.030  11.051
50745SOL    HW154009  10.076  10.109  11.083
50745SOL    HW254010  10.080   9.959  11.102
50746SOL     OW54011  12.733  11.333   7.085
50746SOL    HW154012  12.701  11.270   7.020
50746SOL    HW254013  12.660  11.394   7.097
50747SOL     OW54014   7.019   0.399   3.625
50747SOL    HW154015   7.022   0.489   3.592
50747SOL    HW254016   7.074   0.400   3.703
50748SOL     OW54017   5.477  10.341   3.143
50748SOL    HW154018   5.492  10.402   3.216
50748SOL    HW254019   5.403  10.287   3.171
50749SOL     OW54020   0.843  14.733  11.355
50749SOL    HW154021   0.783  14.781  11.411
50749SOL    HW254022   0.821  14.641  11.370
50750SOL     OW54023   4.005   0.585   7.595
50750SOL    HW154024   4.004   0.582   7.500
50750SOL    HW254025   4.094   0.614   7.618
50751SOL     OW54026  13.730   0.386   3.973
50751SOL    HW154027  13.777   0.399   3.891
50751SOL    HW254028  13.792   0.414   4.040
50752SOL     OW54029   0.427   8.358  10.173
50752SOL    HW154030   0.500   8.380  10.114
50752SOL    HW254031   0.462   8.289  10.229
50753SOL     OW54032   5.295  12.642  14.399
50753SOL    HW154033   5.275  12.586  14.324
50753SOL    HW254034   5.214  12.690  14.416
50754SOL     OW54035   1.670  10.147   6.630
50754SOL    HW154036   1.746  10.096   6.657
50754SOL    HW254037   1.650  10.203   6.706
50755SOL     OW54038   4.572   5.869   8.324
50755SOL    HW154039   4.615   5.881   8.408
50755SOL    HW254040   4.479   5.864   8.345
50756SOL     OW54041   3.254   1.387   4.564
50756SOL    HW154042   3.241   1.296   4.591
50756SOL    HW254043   3.336   1.413   4.607
50757SOL     OW54044   0.364  13.452   5.668
50757SOL    HW154045   0.414  13.490   5.740
50757SOL    HW254046   0.315  13.380   5.709
50758SOL     OW54047   2.623  13.766   9.737
50758SOL    HW154048   2.638  13.804   9.650
50758SOL    HW254049   2.614  13.672   9.720
50759SOL     OW54050   8.587   2.704   4.048
50759SOL    HW154051   8.559   2.619   4.014
50759SOL    HW254052   8.566   2.701   4.141
50760SOL     OW54053   5.733   6.133  13.040
50760SOL    HW154054   5.818   6.150  13.000
50760SOL    HW254055   5.729   6.193  13.114
50761SOL     OW54056   0.739   5.581  12.185
50761SOL    HW154057   0.654   5.546  12.213
50761SOL    HW254058   0.738   5.573  12.090
50762SOL     OW54059  13.221   3.091   7.794
50762SOL    HW154060  13.190   3.014   7.841
50762SOL    HW254061  13.261   3.056   7.714
50763SOL     OW54062   9.118   3.106  13.588
50763SOL    HW154063   9.162   3.026  13.616
50763SOL    HW254064   9.179   3.176  13.611
50764SOL     OW54065  12.497  14.751   6.850
50764SOL    HW154066  12.484  14.681   6.786
50764SOL    HW254067  12.420  14.806   6.842
50765SOL     OW54068   4.561  13.970  12.691
50765SOL    HW154069   4.564  13.879  12.661
50765SOL    HW254070   4.639  13.980  12.746
50766SOL     OW54071   0.540  11.365   3.399
50766SOL    HW154072   0.477  11.413   3.345
50766SOL    HW254073   0.572  11.296   3.340
50767SOL     OW54074   9.619   8.764   7.664
50767SOL    HW154075   9.561   8.694   7.635
50767SOL    HW254076   9.604   8.770   7.759
50768SOL     OW54077  12.175  11.858  12.678
50768SOL    HW154078  12.166  11.865  12.583
50768SOL    HW254079  12.186  11.764  12.693
50769SOL     OW54080   9.407   2.962   6.765
50769SOL    HW154081   9.453   3.037   6.726
50769SOL    HW254082   9.317   2.992   6.775
50770SOL     OW54083  12.318   9.367  13.645
50770SOL    HW154084  12.275   9.312  13.710
50770SOL    HW254085  12.384   9.309  13.605
50771SOL     OW54086  14.825  12.170  10.474
50771SOL    HW154087  14.766  12.200  10.543
50771SOL    HW254088  14.768  12.126  10.411
50772SOL     OW54089  12.307   8.529   4.665
50772SOL    HW154090  12.353   8.584   4.602
50772SOL    HW254091  12.377   8.490   4.717
50773SOL     OW54092   6.722   0.242   0.849
50773SOL    HW154093   6.795   0.191   0.883
50773SOL    HW254094   6.751   0.333   0.858
50774SOL     OW54095   5.169  14.071   3.080
50774SOL    HW154096   5.214  13.995   3.043
50774SOL    HW254097   5.208  14.082   3.167
50775SOL     OW54098   3.958   3.175  10.760
50775SOL    HW154099   3.946   3.191  10.666
50775SOL    HW254100   4.005   3.251  10.792
50776SOL     OW54101  10.631   1.012   0.688
50776SOL    HW154102  10.645   0.967   0.771
50776SOL    HW254103  10.548   1.058   0.699
50777SOL     OW54104  11.730  10.995  11.277
50777SOL    HW154105  11.689  11.075  11.243
50777SOL    HW254106  11.711  10.996  11.371
50778SOL     OW54107   1.268   4.516   3.829
50778SOL    HW154108   1.228   4.556   3.907
50778SOL    HW254109   1.194   4.485   3.777
50779SOL     OW54110   3.771  13.838  12.974
50779SOL    HW154111   3.675  13.828  12.971
50779SOL    HW254112   3.797  13.796  13.056
50780SOL     OW54113   8.201  14.856   4.453
50780SOL    HW154114   8.268  14.789   4.442
50780SOL    HW254115   8.138  14.839   4.383
50781SOL     OW54116   9.773   9.659  14.660
50781SOL    HW154117   9.802   9.718  14.729
50781SOL    HW254118   9.795   9.704  14.578
50782SOL     OW54119   7.660   5.206  14.836
50782SOL    HW154120   7.631   5.280  14.783
50782SOL    HW254121   7.695   5.143  14.773
50783SOL     OW54122   7.313   4.254   7.533
50783SOL    HW154123   7.310   4.159   7.542
50783SOL    HW254124   7.391   4.280   7.581
50784SOL     OW54125   9.345  13.816   5.807
50784SOL    HW154126   9.402  13.876   5.855
50784SOL    HW254127   9.257  13.834   5.841
50785SOL     OW54128   0.281  14.611   0.719
50785SOL    HW154129   0.205  14.641   0.769
50785SOL    HW254130   0.357  14.644   0.767
50786SOL     OW54131   1.432  13.422   4.128
50786SOL    HW154132   1.395  13.334   4.128
50786SOL    HW254133   1.379  13.470   4.063
50787SOL     OW54134  14.471  13.556  11.255
50787SOL    HW154135  14.388  13.508  11.257
50787SOL    HW254136  14.467  13.608  11.175
50788SOL     OW54137   1.203   6.952  12.908
50788SOL    HW154138   1.203   7.042  12.876
50788SOL    HW254139   1.207   6.898  12.829
50789SOL     OW54140   0.084   1.757   9.405
50789SOL    HW154141   0.093   1.757   9.310
50789SOL    HW254142   0.170   1.783   9.438
50790SOL     OW54143   0.873  14.854   6.137
50790SOL    HW154144   0.879  14.861   6.233
50790SOL    HW254145   0.943  14.794   6.113
50791SOL     OW54146   1.476   9.902  11.656
50791SOL    HW154147   1.456   9.995  11.666
50791SOL    HW254148   1.568   9.899  11.630
50792SOL     OW54149  11.728   0.773   0.373
50792SOL    HW154150  11.719   0.686   0.412
50792SOL    HW254151  11.644   0.816   0.390
50793SOL     OW54152   4.258   0.928   5.826
50793SOL    HW154153   4.206   1.008   5.828
50793SOL    HW254154   4.215   0.870   5.889
50794SOL     OW54155   1.088   5.749  10.370
50794SOL    HW154156   1.096   5.763  10.464
50794SOL    HW254157   1.004   5.706  10.359
50795SOL     OW54158  13.390   6.038  13.844
50795SOL    HW154159  13.462   6.093  13.812
50795SOL    HW254160  13.333   6.100  13.891
50796SOL     OW54161   3.024   4.999   1.335
50796SOL    HW154162   3.060   4.957   1.257
50796SOL    HW254163   2.976   5.074   1.301
50797SOL     OW54164   3.957   1.142   0.107
50797SOL    HW154165   3.879   1.149   0.162
50797SOL    HW254166   3.939   1.067   0.050
50798SOL     OW54167   4.484   3.504   9.782
50798SOL    HW154168   4.567   3.539   9.814
50798SOL    HW254169   4.419   3.571   9.806
50799SOL     OW54170   4.818  13.036  11.994
50799SOL    HW154171   4.742  13.091  11.976
50799SOL    HW254172   4.865  13.081  12.063
50800SOL     OW54173  14.857   0.526   6.693
50800SOL    HW154174  14.816   0.566   6.770
50800SOL    HW254175   0.033   0.596   6.656
50801SOL     OW54176   1.854   6.177  12.116
50801SOL    HW154177   1.936   6.168  12.067
50801SOL    HW254178   1.847   6.097  12.166
50802SOL     OW54179   8.168   3.465   6.903
50802SOL    HW154180   8.181   3.407   6.978
50802SOL    HW254181   8.240   3.444   6.844
50803SOL     OW54182   8.490  12.082   4.866
50803SOL    HW154183   8.498  12.112   4.776
50803SOL    HW254184   8.406  12.036   4.869
50804SOL     OW54185  13.492  10.577   1.876
50804SOL    HW154186  13.504  10.541   1.964
50804SOL    HW254187  13.438  10.654   1.889
50805SOL     OW54188   9.918  11.225   6.989
50805SOL    HW154189   9.920  11.154   7.052
50805SOL    HW254190   9.941  11.185   6.905
50806SOL     OW54191   6.144   0.545   2.196
50806SOL    HW154192   6.215   0.527   2.134
50806SOL    HW254193   6.189   0.560   2.279
50807SOL     OW54194   4.605   8.553  11.081
50807SOL    HW154195   4.513   8.576  11.094
50807SOL    HW254196   4.642   8.553  11.169
50808SOL     OW54197   0.628  14.393   8.589
50808SOL    HW154198   0.628  14.415   8.682
50808SOL    HW254199   0.680  14.314   8.582
50809SOL     OW54200   1.911  11.467  11.139
50809SOL    HW154201   1.998  11.431  11.156
50809SOL    HW254202   1.867  11.465  11.224
50810SOL     OW54203   0.707  11.732   1.208
50810SOL    HW154204   0.711  11.770   1.296
50810SOL    HW254205   0.654  11.653   1.218
50811SOL     OW54206   0.206   2.610   8.312
50811SOL    HW154207   0.268   2.632   8.382
50811SOL    HW254208   0.223   2.518   8.293
50812SOL     OW54209   9.769   8.626   6.639
50812SOL    HW154210   9.846   8.655   6.590
50812SOL    HW254211   9.704   8.609   6.571
50813SOL     OW54212   9.523   2.553   2.791
50813SOL    HW154213   9.581   2.562   2.715
50813SOL    HW254214   9.541   2.465   2.825
50814SOL     OW54215   4.050   4.789  12.972
50814SOL    HW154216   4.096   4.732  12.910
50814SOL    HW254217   3.957   4.775  12.953
50815SOL     OW54218   8.910   7.383  13.410
50815SOL    HW154219   8.991   7.407  13.454
50815SOL    HW254220   8.920   7.291  13.390
50816SOL     OW54221   6.598   1.809   2.587
50816SOL    HW154222   6.528   1.766   2.636
50816SOL    HW254223   6.646   1.738   2.546
50817SOL     OW54224  10.127  14.693   1.354
50817SOL    HW154225  10.157  14.716   1.266
50817SOL    HW254226  10.180  14.617   1.379
50818SOL     OW54227   4.482   3.744   3.043
50818SOL    HW154228   4.468   3.838   3.047
50818SOL    HW254229   4.543   3.732   2.970
50819SOL     OW54230   8.608  11.654   0.819
50819SOL    HW154231   8.606  11.747   0.796
50819SOL    HW254232   8.622  11.653   0.914
50820SOL     OW54233  12.557   1.982   3.060
50820SOL    HW154234  12.615   2.051   3.092
50820SOL    HW254235  12.508   2.024   2.990
50821SOL     OW54236   9.188  11.963   0.310
50821SOL    HW154237   9.095  11.969   0.292
50821SOL    HW254238   9.200  12.008   0.394
50822SOL     OW54239  13.769   7.321   4.502
50822SOL    HW154240  13.776   7.289   4.592
50822SOL    HW254241  13.683   7.364   4.499
50823SOL     OW54242   2.554  14.809   2.366
50823SOL    HW154243   2.496  14.810   2.290
50823SOL    HW254244   2.570   0.023   2.386
50824SOL     OW54245  10.394   7.620   0.235
50824SOL    HW154246  10.464   7.674   0.198
50824SOL    HW254247  10.414   7.531   0.206
50825SOL     OW54248   8.230   3.750   8.094
50825SOL    HW154249   8.294   3.709   8.037
50825SOL    HW254250   8.145   3.719   8.061
50826SOL     OW54251   1.226  12.363   3.876
50826SOL    HW154252   1.163  12.343   3.946
50826SOL    HW254253   1.311  12.340   3.913
50827SOL     OW54254   8.875   3.901   0.004
50827SOL    HW154255   8.960   3.869  14.850
50827SOL    HW254256   8.812   3.869  14.819
50828SOL     OW54257   0.907   0.294   8.256
50828SOL    HW154258   0.935   0.208   8.289
50828SOL    HW254259   0.815   0.300   8.281
50829SOL     OW54260  11.433   9.182  14.827
50829SOL    HW154261  11.462   9.257  14.775
50829SOL    HW254262  11.446   9.209   0.040
50830SOL     OW54263   4.144  10.854   6.064
50830SOL    HW154264   4.169  10.764   6.040
50830SOL    HW254265   4.144  10.854   6.160
50831SOL     OW54266   4.490   0.690   7.464
50831SOL    HW154267   4.453   0.614   7.419
50831SOL    HW254268   4.564   0.655   7.514
50832SOL     OW54269  14.694   5.445   3.799
50832SOL    HW154270  14.706   5.462   3.893
50832SOL    HW254271  14.775   5.479   3.759
50833SOL     OW54272   9.958   8.061  10.425
50833SOL    HW154273   9.964   8.102  10.339
50833SOL    HW254274   9.995   8.125  10.486
50834SOL     OW54275   2.431   9.097  13.451
50834SOL    HW154276   2.409   9.100  13.357
50834SOL    HW254277   2.364   9.041  13.489
50835SOL     OW54278   9.206   5.918   9.119
50835SOL    HW154279   9.195   5.880   9.032
50835SOL    HW254280   9.252   5.851   9.169
50836SOL     OW54281   3.204   0.624   8.051
50836SOL    HW154282   3.115   0.640   8.080
50836SOL    HW254283   3.213   0.528   8.054
50837SOL     OW54284   0.699   4.313   4.624
50837SOL    HW154285   0.706   4.231   4.672
50837SOL    HW254286   0.784   4.322   4.580
50838SOL     OW54287   3.963   5.299   2.225
50838SOL    HW154288   4.048   5.282   2.185
50838SOL    HW254289   3.907   5.227   2.197
50839SOL     OW54290   6.220   6.985   8.543
50839SOL    HW154291   6.289   7.030   8.593
50839SOL    HW254292   6.179   6.927   8.606
50840SOL     OW54293   6.348   6.503   7.296
50840SOL    HW154294   6.260   6.539   7.286
50840SOL    HW254295   6.389   6.516   7.211
50841SOL     OW54296  11.413  11.322   5.844
50841SOL    HW154297  11.324  11.351   5.862
50841SOL    HW254298  11.425  11.334   5.750
50842SOL     OW54299  14.723   2.343   9.604
50842SOL    HW154300  14.675   2.415   9.646
50842SOL    HW254301  14.813   2.354   9.633
50843SOL     OW54302  13.509   9.676  11.982
50843SOL    HW154303  13.514   9.716  12.068
50843SOL    HW254304  13.473   9.588  11.998
50844SOL     OW54305  13.008   2.067   5.789
50844SOL    HW154306  13.053   2.030   5.865
50844SOL    HW254307  12.969   2.148   5.821
50845SOL     OW54308   3.218  11.014   8.005
50845SOL    HW154309   3.225  10.974   7.918
50845SOL    HW254310   3.221  10.941   8.066
50846SOL     OW54311   6.897   7.537   8.038
50846SOL    HW154312   6.811   7.528   7.997
50846SOL    HW254313   6.901   7.629   8.065
50847SOL     OW54314  10.715  13.173   7.388
50847SOL    HW154315  10.628  13.147   7.417
50847SOL    HW254316  10.731  13.256   7.434
50848SOL     OW54317   8.608   9.858  11.535
50848SOL    HW154318   8.655   9.783  11.571
50848SOL    HW254319   8.551   9.888  11.606
50849SOL     OW54320   5.973  11.383   3.897
50849SOL    HW154321   5.989  11.288   3.899
50849SOL    HW254322   6.049  11.419   3.850
50850SOL     OW54323   7.121   3.721   9.683
50850SOL    HW154324   7.154   3.640   9.644
50850SOL    HW254325   7.035   3.734   9.644
50851SOL     OW54326   9.963   7.263   3.569
50851SOL    HW154327   9.978   7.231   3.658
50851SOL    HW254328   9.878   7.306   3.572
50852SOL     OW54329   7.269   3.613   7.070
50852SOL    HW154330   7.272   3.562   6.989
50852SOL    HW254331   7.298   3.700   7.045
50853SOL     OW54332   7.039   0.293   2.880
50853SOL    HW154333   7.111   0.243   2.917
50853SOL    HW254334   6.972   0.227   2.861
50854SOL     OW54335   4.195  13.593  11.035
50854SOL    HW154336   4.233  13.542  10.963
50854SOL    HW254337   4.115  13.630  10.998
50855SOL     OW54338  13.597   1.805   2.240
50855SOL    HW154339  13.635   1.723   2.207
50855SOL    HW254340  13.512   1.779   2.274
50856SOL     OW54341  12.153   1.509   6.320
50856SOL    HW154342  12.077   1.453   6.334
50856SOL    HW254343  12.144   1.579   6.385
50857SOL     OW54344  11.293   9.817  11.683
50857SOL    HW154345  11.381   9.803  11.718
50857SOL    HW254346  11.255   9.885  11.739
50858SOL     OW54347   6.933  13.446  13.647
50858SOL    HW154348   6.878  13.496  13.706
50858SOL    HW254349   6.995  13.510  13.612
50859SOL     OW54350   8.937   8.974  10.088
50859SOL    HW154351   8.860   8.919  10.103
50859SOL    HW254352   8.909   9.038  10.024
50860SOL     OW54353  11.086   5.994  12.219
50860SOL    HW154354  11.003   5.956  12.191
50860SOL    HW254355  11.068   6.088  12.226
50861SOL     OW54356  10.315  11.011   4.416
50861SOL    HW154357  10.251  11.018   4.345
50861SOL    HW254358  10.395  11.050   4.380
50862SOL     OW54359   5.251   8.290   7.231
50862SOL    HW154360   5.195   8.360   7.199
50862SOL    HW254361   5.288   8.251   7.151
50863SOL     OW54362  11.564   0.403   4.950
50863SOL    HW154363  11.608   0.487   4.942
50863SOL    HW254364  11.625   0.349   5.001
50864SOL     OW54365   0.744   7.251   5.066
50864SOL    HW154366   0.653   7.269   5.090
50864SOL    HW254367   0.745   7.158   5.046
50865SOL     OW54368  10.006   5.140  14.772
50865SOL    HW154369  10.002   5.235  14.768
50865SOL    HW254370   9.980   5.118  14.862
50866SOL     OW54371   2.859  12.639   7.356
50866SOL    HW154372   2.918  12.612   7.427
50866SOL    HW254373   2.917  12.676   7.290
50867SOL     OW54374   1.253  12.070  11.022
50867SOL    HW154375   1.264  12.165  11.023
50867SOL    HW254376   1.313  12.038  11.090
50868SOL     OW54377   3.853  12.584   4.768
50868SOL    HW154378   3.835  12.663   4.819
50868SOL    HW254379   3.785  12.523   4.794
50869SOL     OW54380   1.366   2.942   4.175
50869SOL    HW154381   1.396   3.020   4.221
50869SOL    HW254382   1.429   2.874   4.200
50870SOL     OW54383   5.309  14.541   4.490
50870SOL    HW154384   5.269  14.624   4.463
50870SOL    HW254385   5.402  14.560   4.494
50871SOL     OW54386   1.459  11.026  13.451
50871SOL    HW154387   1.436  11.078  13.373
50871SOL    HW254388   1.540  11.065  13.482
50872SOL     OW54389   4.721  11.791   8.906
50872SOL    HW154390   4.762  11.718   8.953
50872SOL    HW254391   4.701  11.856   8.973
50873SOL     OW54392  14.509  12.244   4.819
50873SOL    HW154393  14.490  12.232   4.726
50873SOL    HW254394  14.434  12.292   4.853
50874SOL     OW54395   3.474  10.794   6.304
50874SOL    HW154396   3.550  10.850   6.289
50874SOL    HW254397   3.425  10.838   6.374
50875SOL     OW54398   2.827   4.446   8.835
50875SOL    HW154399   2.792   4.418   8.751
50875SOL    HW254400   2.845   4.539   8.823
50876SOL     OW54401  12.771   6.665   4.581
50876SOL    HW154402  12.753   6.572   4.568
50876SOL    HW254403  12.825   6.688   4.505
50877SOL     OW54404  13.290  10.944  10.451
50877SOL    HW154405  13.314  11.003  10.380
50877SOL    HW254406  13.200  10.967  10.473
50878SOL     OW54407   0.043  11.362  14.681
50878SOL    HW154408   0.093  11.292  14.723
50878SOL    HW254409   0.099  11.439  14.687
50879SOL     OW54410   5.973   9.567  11.204
50879SOL    HW154411   5.892   9.527  11.170
50879SOL    HW254412   5.995   9.514  11.281
50880SOL     OW54413   7.149  12.156  11.011
50880SOL    HW154414   7.167  12.184  10.921
50880SOL    HW254415   7.059  12.124  11.008
50881SOL     OW54416   6.117   2.981  14.544
50881SOL    HW154417   6.096   2.956  14.634
50881SOL    HW254418   6.049   2.940  14.491
50882SOL     OW54419   7.740  13.054   7.385
50882SOL    HW154420   7.792  13.100   7.450
50882SOL    HW254421   7.757  12.961   7.402
50883SOL     OW54422   2.597   8.226   2.390
50883SOL    HW154423   2.571   8.156   2.330
50883SOL    HW254424   2.538   8.215   2.465
50884SOL     OW54425   9.372  14.114   8.320
50884SOL    HW154426   9.315  14.104   8.396
50884SOL    HW254427   9.387  14.024   8.289
50885SOL     OW54428   3.864   7.383  11.078
50885SOL    HW154429   3.873   7.306  11.022
50885SOL    HW254430   3.827   7.450  11.021
50886SOL     OW54431   9.156   9.801   0.732
50886SOL    HW154432   9.068   9.811   0.769
50886SOL    HW254433   9.141   9.782   0.639
50887SOL     OW54434  10.417   8.039   3.741
50887SOL    HW154435  10.411   8.031   3.836
50887SOL    HW254436  10.506   8.012   3.720
50888SOL     OW54437   7.455   5.733   8.691
50888SOL    HW154438   7.390   5.798   8.722
50888SOL    HW254439   7.415   5.696   8.612
50889SOL     OW54440  10.464  13.035  10.541
50889SOL    HW154441  10.512  13.055  10.461
50889SOL    HW254442  10.372  13.049  10.518
50890SOL     OW54443  10.994  10.616   2.841
50890SOL    HW154444  10.900  10.605   2.832
50890SOL    HW254445  11.032  10.552   2.781
50891SOL     OW54446  10.977   7.847   3.738
50891SOL    HW154447  10.963   7.762   3.781
50891SOL    HW254448  10.935   7.910   3.797
50892SOL     OW54449   7.469  12.889  10.079
50892SOL    HW154450   7.415  12.836  10.020
50892SOL    HW254451   7.482  12.972  10.032
50893SOL     OW54452   9.564  11.547   4.363
50893SOL    HW154453   9.595  11.563   4.452
50893SOL    HW254454   9.612  11.609   4.309
50894SOL     OW54455  12.471  11.057  10.767
50894SOL    HW154456  12.424  11.072  10.684
50894SOL    HW254457  12.435  10.975  10.800
50895SOL     OW54458   2.938   5.113  12.915
50895SOL    HW154459   2.906   5.048  12.977
50895SOL    HW254460   3.025   5.081  12.890
50896SOL     OW54461  11.533   8.397   4.773
50896SOL    HW154462  11.594   8.459   4.734
50896SOL    HW254463  11.457   8.397   4.715
50897SOL     OW54464   6.325   1.133   1.733
50897SOL    HW154465   6.358   1.220   1.757
50897SOL    HW254466   6.243   1.124   1.783
50898SOL     OW54467   1.108  12.873   9.027
50898SOL    HW154468   1.114  12.813   8.953
50898SOL    HW254469   1.192  12.917   9.029
50899SOL     OW54470  12.620   5.306   4.871
50899SOL    HW154471  12.704   5.266   4.895
50899SOL    HW254472  12.558   5.233   4.869
50900SOL     OW54473  11.521   5.340   2.815
50900SOL    HW154474  11.468   5.270   2.776
50900SOL    HW254475  11.596   5.349   2.757
50901SOL     OW54476   3.413   9.079   1.593
50901SOL    HW154477   3.344   9.143   1.574
50901SOL    HW254478   3.468   9.080   1.515
50902SOL     OW54479  11.964   0.298  12.908
50902SOL    HW154480  11.884   0.271  12.863
50902SOL    HW254481  12.030   0.234  12.880
50903SOL     OW54482   0.830  14.160  11.282
50903SOL    HW154483   0.755  14.131  11.334
50903SOL    HW254484   0.840  14.252  11.305
50904SOL     OW54485   9.840   0.668   4.126
50904SOL    HW154486   9.790   0.592   4.096
50904SOL    HW254487   9.918   0.631   4.166
50905SOL     OW54488   7.020   3.460   0.029
50905SOL    HW154489   7.037   3.387  14.847
50905SOL    HW254490   6.974   3.524  14.853
50906SOL     OW54491   7.992  13.436   3.958
50906SOL    HW154492   7.983  13.512   4.015
50906SOL    HW254493   8.050  13.465   3.888
50907SOL     OW54494   4.876  14.298  14.736
50907SOL    HW154495   4.875  14.327  14.644
50907SOL    HW254496   4.861  14.378  14.786
50908SOL     OW54497  14.872   0.538   5.714
50908SOL    HW154498  14.793   0.582   5.682
50908SOL    HW254499  14.847   0.446   5.719
50909SOL     OW54500   9.181   2.308   3.289
50909SOL    HW154501   9.094   2.313   3.250
50909SOL    HW254502   9.165   2.302   3.383
50910SOL     OW54503  14.751   2.934  10.520
50910SOL    HW154504  14.766   2.968  10.432
50910SOL    HW254505  14.746   3.012  10.576
50911SOL     OW54506   1.897  11.540   9.107
50911SOL    HW154507   1.876  11.478   9.178
50911SOL    HW254508   1.822  11.533   9.047
50912SOL     OW54509  14.218   5.778   5.717
50912SOL    HW154510  14.281   5.847   5.697
50912SOL    HW254511  14.202   5.736   5.633
50913SOL     OW54512   0.410  11.171   6.896
50913SOL    HW154513   0.443  11.244   6.949
50913SOL    HW254514   0.412  11.204   6.806
50914SOL     OW54515   9.073  13.133   7.157
50914SOL    HW154516   9.057  13.112   7.065
50914SOL    HW254517   9.156  13.090   7.178
50915SOL     OW54518   8.662   6.334  13.461
50915SOL    HW154519   8.717   6.321  13.384
50915SOL    HW254520   8.634   6.246  13.486
50916SOL     OW54521  10.822   8.780   3.653
50916SOL    HW154522  10.874   8.753   3.729
50916SOL    HW254523  10.736   8.739   3.668
50917SOL     OW54524   3.597  12.976   2.114
50917SOL    HW154525   3.649  12.952   2.191
50917SOL    HW254526   3.634  12.924   2.043
50918SOL     OW54527   4.096   6.335   9.995
50918SOL    HW154528   4.025   6.393   9.968
50918SOL    HW254529   4.064   6.247   9.973
50919SOL     OW54530  10.485   6.986   0.012
50919SOL    HW154531  10.434   6.993   0.093
50919SOL    HW254532  10.499   6.891   0.001
50920SOL     OW54533  12.353   4.476   7.290
50920SOL    HW154534  12.276   4.422   7.311
50920SOL    HW254535  12.342   4.555   7.342
50921SOL     OW54536  12.255   6.245   0.582
50921SOL    HW154537  12.249   6.300   0.504
50921SOL    HW254538  12.349   6.243   0.601
50922SOL     OW54539   6.833  14.323   7.475
50922SOL    HW154540   6.756  14.315   7.532
50922SOL    HW254541   6.809  14.274   7.396
50923SOL     OW54542   4.725   1.575  14.701
50923SOL    HW154543   4.747   1.629  14.626
50923SOL    HW254544   4.685   1.635  14.763
50924SOL     OW54545   3.544   8.186   3.333
50924SOL    HW154546   3.580   8.131   3.264
50924SOL    HW254547   3.517   8.266   3.288
50925SOL     OW54548  13.532   7.705  13.091
50925SOL    HW154549  13.622   7.729  13.111
50925SOL    HW254550  13.520   7.727  12.999
50926SOL     OW54551  10.424  12.970  13.639
50926SOL    HW154552  10.498  12.962  13.699
50926SOL    HW254553  10.402  12.879  13.616
50927SOL     OW54554  12.270   6.946  13.298
50927SOL    HW154555  12.289   6.943  13.392
50927SOL    HW254556  12.248   7.038  13.281
50928SOL     OW54557   5.591   4.668   0.091
50928SOL    HW154558   5.575   4.745   0.146
50928SOL    HW254559   5.618   4.600   0.153
50929SOL     OW54560   7.913   7.766  12.909
50929SOL    HW154561   7.887   7.793  12.821
50929SOL    HW254562   8.007   7.781  12.912
50930SOL     OW54563   3.226   3.716   8.646
50930SOL    HW154564   3.272   3.785   8.693
50930SOL    HW254565   3.155   3.761   8.601
50931SOL     OW54566   6.351  13.741  10.456
50931SOL    HW154567   6.315  13.653  10.450
50931SOL    HW254568   6.360  13.770  10.365
50932SOL     OW54569   9.294   6.261  13.376
50932SOL    HW154570   9.202   6.285  13.381
50932SOL    HW254571   9.296   6.169  13.401
50933SOL     OW54572  14.836  13.786   9.208
50933SOL    HW154573  14.761  13.831   9.169
50933SOL    HW254574  14.866  13.726   9.140
50934SOL     OW54575   0.200  11.176   3.740
50934SOL    HW154576   0.290  11.177   3.708
50934SOL    HW254577   0.189  11.259   3.786
50935SOL     OW54578  12.984   3.685  14.068
50935SOL    HW154579  13.054   3.661  14.008
50935SOL    HW254580  12.974   3.779  14.058
50936SOL     OW54581   6.871   7.535  11.888
50936SOL    HW154582   6.799   7.523  11.826
50936SOL    HW254583   6.885   7.448  11.926
50937SOL     OW54584   3.681   2.897  11.321
50937SOL    HW154585   3.587   2.908  11.308
50937SOL    HW254586   3.720   2.916  11.236
50938SOL     OW54587   5.833   5.062   7.087
50938SOL    HW154588   5.821   5.157   7.076
50938SOL    HW254589   5.848   5.051   7.181
50939SOL     OW54590   6.675   0.297   9.976
50939SOL    HW154591   6.738   0.275  10.044
50939SOL    HW254592   6.590   0.292  10.019
50940SOL     OW54593  11.200  13.799  11.112
50940SOL    HW154594  11.163  13.711  11.115
50940SOL    HW254595  11.144  13.850  11.172
50941SOL     OW54596   3.130  12.529  11.994
50941SOL    HW154597   3.212  12.578  11.993
50941SOL    HW254598   3.150  12.451  12.045
50942SOL     OW54599   5.358   7.305   5.654
50942SOL    HW154600   5.265   7.306   5.676
50942SOL    HW254601   5.363   7.345   5.567
50943SOL     OW54602  11.218  14.293   1.834
50943SOL    HW154603  11.143  14.288   1.892
50943SOL    HW254604  11.206  14.221   1.772
50944SOL     OW54605  14.329  11.805   9.168
50944SOL    HW154606  14.305  11.885   9.121
50944SOL    HW254607  14.344  11.834   9.258
50945SOL     OW54608   5.056   2.182   2.475
50945SOL    HW154609   5.050   2.176   2.380
50945SOL    HW254610   5.116   2.112   2.500
50946SOL     OW54611  11.072   9.066   3.820
50946SOL    HW154612  10.980   9.082   3.797
50946SOL    HW254613  11.069   9.036   3.911
50947SOL     OW54614   1.822   3.355   2.902
50947SOL    HW154615   1.767   3.426   2.935
50947SOL    HW254616   1.839   3.300   2.978
50948SOL     OW54617  13.883   6.983  13.404
50948SOL    HW154618  13.824   6.955  13.474
50948SOL    HW254619  13.876   6.915  13.337
50949SOL     OW54620  12.856  13.401   8.874
50949SOL    HW154621  12.812  13.432   8.795
50949SOL    HW254622  12.843  13.306   8.872
50950SOL     OW54623   8.852   9.272  13.468
50950SOL    HW154624   8.857   9.207  13.538
50950SOL    HW254625   8.837   9.355  13.514
50951SOL     OW54626   7.102   3.432  14.065
50951SOL    HW154627   7.098   3.494  14.138
50951SOL    HW254628   7.094   3.487  13.987
50952SOL     OW54629   2.334   7.413   6.117
50952SOL    HW154630   2.389   7.448   6.046
50952SOL    HW254631   2.317   7.322   6.091
50953SOL     OW54632  12.797   1.263   1.667
50953SOL    HW154633  12.818   1.306   1.750
50953SOL    HW254634  12.701   1.261   1.664
50954SOL     OW54635  13.329   4.604   9.136
50954SOL    HW154636  13.269   4.531   9.149
50954SOL    HW254637  13.388   4.601   9.211
50955SOL     OW54638   2.492   8.916  14.244
50955SOL    HW154639   2.499   8.844  14.182
50955SOL    HW254640   2.447   8.985  14.196
50956SOL     OW54641   1.584   4.263   8.629
50956SOL    HW154642   1.496   4.288   8.601
50956SOL    HW254643   1.584   4.167   8.624
50957SOL     OW54644   2.442  11.253   4.080
50957SOL    HW154645   2.515  11.224   4.133
50957SOL    HW254646   2.405  11.327   4.128
50958SOL     OW54647   3.889   8.515  12.673
50958SOL    HW154648   3.821   8.468  12.721
50958SOL    HW254649   3.958   8.450  12.659
50959SOL     OW54650   1.423   1.267   8.533
50959SOL    HW154651   1.475   1.278   8.612
50959SOL    HW254652   1.483   1.226   8.470
50960SOL     OW54653   0.101   2.817   0.053
50960SOL    HW154654   0.155   2.838  14.855
50960SOL    HW254655   0.164   2.809   0.125
50961SOL     OW54656   9.489   3.034  11.007
50961SOL    HW154657   9.502   2.983  11.087
50961SOL    HW254658   9.500   2.970  10.936
50962SOL     OW54659   1.764  13.999  13.658
50962SOL    HW154660   1.696  13.999  13.725
50962SOL    HW254661   1.787  14.091  13.648
50963SOL     OW54662   9.936  12.398   0.509
50963SOL    HW154663   9.905  12.334   0.574
50963SOL    HW254664   9.870  12.395   0.440
50964SOL     OW54665   9.473  13.839  10.197
50964SOL    HW154666   9.452  13.835  10.104
50964SOL    HW254667   9.478  13.748  10.225
50965SOL     OW54668  14.028  10.636  12.234
50965SOL    HW154669  14.096  10.575  12.203
50965SOL    HW254670  13.946  10.588  12.222
50966SOL     OW54671   3.606  12.246  10.043
50966SOL    HW154672   3.542  12.210   9.981
50966SOL    HW254673   3.631  12.331  10.006
50967SOL     OW54674   6.988  10.212  13.405
50967SOL    HW154675   6.996  10.246  13.495
50967SOL    HW254676   7.064  10.154  13.395
50968SOL     OW54677   7.310   3.185  10.044
50968SOL    HW154678   7.331   3.254  10.107
50968SOL    HW254679   7.280   3.232   9.967
50969SOL     OW54680  11.722   8.459   1.978
50969SOL    HW154681  11.710   8.389   2.042
50969SOL    HW254682  11.637   8.471   1.938
50970SOL     OW54683   0.746   7.513  14.512
50970SOL    HW154684   0.728   7.540  14.602
50970SOL    HW254685   0.803   7.582  14.477
50971SOL     OW54686   8.086   9.044  13.326
50971SOL    HW154687   8.134   9.104  13.269
50971SOL    HW254688   8.124   8.958  13.308
50972SOL     OW54689  10.171  10.247   7.412
50972SOL    HW154690  10.130  10.161   7.401
50972SOL    HW254691  10.197  10.250   7.504
50973SOL     OW54692   3.705   0.795  13.635
50973SOL    HW154693   3.781   0.784  13.577
50973SOL    HW254694   3.728   0.745  13.714
50974SOL     OW54695   3.976  14.714   2.238
50974SOL    HW154696   3.929  14.794   2.216
50974SOL    HW254697   3.947  14.693   2.327
50975SOL     OW54698   7.351  13.528   9.022
50975SOL    HW154699   7.337  13.605   8.965
50975SOL    HW254700   7.282  13.536   9.089
50976SOL     OW54701   9.741  13.558   2.555
50976SOL    HW154702   9.797  13.620   2.602
50976SOL    HW254703   9.686  13.613   2.499
50977SOL     OW54704   1.150   6.430  11.457
50977SOL    HW154705   1.233   6.477  11.447
50977SOL    HW254706   1.136   6.387  11.372
50978SOL     OW54707   3.120   7.227   4.230
50978SOL    HW154708   3.056   7.285   4.188
50978SOL    HW254709   3.198   7.281   4.239
50979SOL     OW54710   4.368  14.306   9.427
50979SOL    HW154711   4.363  14.217   9.461
50979SOL    HW254712   4.307  14.306   9.353
50980SOL     OW54713   0.678  12.174  10.231
50980SOL    HW154714   0.684  12.081  10.255
50980SOL    HW254715   0.607  12.208  10.286
50981SOL     OW54716  11.117   1.634   5.186
50981SOL    HW154717  11.125   1.539   5.175
50981SOL    HW254718  11.183   1.656   5.250
50982SOL     OW54719  10.836  12.671   1.349
50982SOL    HW154720  10.777  12.738   1.314
50982SOL    HW254721  10.871  12.626   1.273
50983SOL     OW54722   7.961   1.150   5.309
50983SOL    HW154723   8.005   1.068   5.330
50983SOL    HW254724   7.934   1.186   5.393
50984SOL     OW54725   1.919   4.487   1.039
50984SOL    HW154726   1.875   4.493   1.124
50984SOL    HW254727   1.907   4.397   1.011
50985SOL     OW54728   9.833   4.202  13.137
50985SOL    HW154729   9.811   4.132  13.199
50985SOL    HW254730   9.830   4.159  13.051
50986SOL     OW54731  10.341  12.437   5.134
50986SOL    HW154732  10.416  12.389   5.098
50986SOL    HW254733  10.366  12.454   5.225
50987SOL     OW54734   8.211   6.763  11.072
50987SOL    HW154735   8.117   6.758  11.089
50987SOL    HW254736   8.219   6.757  10.977
50988SOL     OW54737   8.228   1.197   6.979
50988SOL    HW154738   8.198   1.149   7.056
50988SOL    HW254739   8.321   1.177   6.973
50989SOL     OW54740   0.705   6.134   6.970
50989SOL    HW154741   0.729   6.112   7.060
50989SOL    HW254742   0.716   6.052   6.921
50990SOL     OW54743   3.251   5.186   9.968
50990SOL    HW154744   3.276   5.201  10.059
50990SOL    HW254745   3.157   5.206   9.965
50991SOL     OW54746  12.365   1.842   4.616
50991SOL    HW154747  12.374   1.765   4.672
50991SOL    HW254748  12.426   1.906   4.654
50992SOL     OW54749   4.020   2.676   2.754
50992SOL    HW154750   3.979   2.733   2.819
50992SOL    HW254751   3.986   2.588   2.773
50993SOL     OW54752  13.877   9.466   8.155
50993SOL    HW154753  13.955   9.518   8.137
50993SOL    HW254754  13.906   9.375   8.148
50994SOL     OW54755   8.758   1.556  14.012
50994SOL    HW154756   8.833   1.517  13.967
50994SOL    HW254757   8.694   1.573  13.943
50995SOL     OW54758  14.449   3.210   7.932
50995SOL    HW154759  14.396   3.273   7.883
50995SOL    HW254760  14.482   3.260   8.007
50996SOL     OW54761   2.060   0.060  13.560
50996SOL    HW154762   2.086  14.857  13.604
50996SOL    HW254763   2.044   0.122  13.631
50997SOL     OW54764   5.190   9.397   2.388
50997SOL    HW154765   5.184   9.480   2.435
50997SOL    HW254766   5.154   9.332   2.449
50998SOL     OW54767   5.342   4.157  13.084
50998SOL    HW154768   5.406   4.109  13.032
50998SOL    HW254769   5.344   4.246  13.049
50999SOL     OW54770   3.891  12.010   2.238
50999SOL    HW154771   3.847  11.931   2.272
50999SOL    HW254772   3.982  11.983   2.228
51000SOL     OW54773  13.860   2.126   9.377
51000SOL    HW154774  13.830   2.109   9.466
51000SOL    HW254775  13.792   2.182   9.339
51001SOL     OW54776   0.508   1.796   2.183
51001SOL    HW154777   0.578   1.758   2.130
51001SOL    HW254778   0.545   1.876   2.219
51002SOL     OW54779   3.260   7.443  14.470
51002SOL    HW154780   3.172   7.407  14.460
51002SOL    HW254781   3.252   7.535  14.446
51003SOL     OW54782   6.673   2.150  10.455
51003SOL    HW154783   6.753   2.098  10.449
51003SOL    HW254784   6.605   2.094  10.416
51004SOL     OW54785   0.921  10.763   7.415
51004SOL    HW154786   0.831  10.774   7.446
51004SOL    HW254787   0.974  10.813   7.477
51005SOL     OW54788   9.988  14.184  10.819
51005SOL    HW154789  10.077  14.181  10.783
51005SOL    HW254790  10.000  14.213  10.909
51006SOL     OW54791   1.426   1.944   2.413
51006SOL    HW154792   1.515   1.910   2.415
51006SOL    HW254793   1.432   2.030   2.454
51007SOL     OW54794   9.659   5.299  10.410
51007SOL    HW154795   9.723   5.228  10.416
51007SOL    HW254796   9.629   5.311  10.500
51008SOL     OW54797  11.038   7.127   1.688
51008SOL    HW154798  11.111   7.189   1.682
51008SOL    HW254799  11.063   7.054   1.632
51009SOL     OW54800  12.359   5.332   8.172
51009SOL    HW154801  12.316   5.339   8.087
51009SOL    HW254802  12.452   5.345   8.154
51010SOL     OW54803  11.457  10.308   6.090
51010SOL    HW154804  11.512  10.286   6.016
51010SOL    HW254805  11.369  10.319   6.053
51011SOL     OW54806   2.308  13.478   9.547
51011SOL    HW154807   2.343  13.553   9.499
51011SOL    HW254808   2.254  13.432   9.484
51012SOL     OW54809   8.820  13.340   5.772
51012SOL    HW154810   8.800  13.252   5.741
51012SOL    HW254811   8.833  13.329   5.867
51013SOL     OW54812   1.819   5.462   0.048
51013SOL    HW154813   1.820   5.374   0.010
51013SOL    HW254814   1.838   5.520  14.853
51014SOL     OW54815  14.190  12.781  10.489
51014SOL    HW154816  14.157  12.870  10.477
51014SOL    HW254817  14.284  12.787  10.469
51015SOL     OW54818   0.265  11.730   8.080
51015SOL    HW154819   0.327  11.714   8.008
51015SOL    HW254820   0.301  11.681   8.154
51016SOL     OW54821   0.482   5.355   7.436
51016SOL    HW154822   0.413   5.352   7.503
51016SOL    HW254823   0.436   5.352   7.353
51017SOL     OW54824   5.924  13.206   0.175
51017SOL    HW154825   5.921  13.157   0.093
51017SOL    HW254826   5.989  13.161   0.228
51018SOL     OW54827   8.207   1.241  12.468
51018SOL    HW154828   8.275   1.202  12.522
51018SOL    HW254829   8.203   1.185  12.390
51019SOL     OW54830  12.249   8.414  12.756
51019SOL    HW154831  12.200   8.496  12.749
51019SOL    HW254832  12.183   8.346  12.742
51020SOL     OW54833   2.771  12.867   5.465
51020SOL    HW154834   2.751  12.951   5.505
51020SOL    HW254835   2.688  12.840   5.424
51021SOL     OW54836   6.136  14.003  12.407
51021SOL    HW154837   6.136  13.911  12.382
51021SOL    HW254838   6.228  14.029  12.403
51022SOL     OW54839  14.316  11.826  14.494
51022SOL    HW154840  14.382  11.895  14.507
51022SOL    HW254841  14.363  11.757  14.448
51023SOL     OW54842  13.633  11.979   5.617
51023SOL    HW154843  13.714  12.029   5.605
51023SOL    HW254844  13.572  12.040   5.658
51024SOL     OW54845   5.870   7.794   9.672
51024SOL    HW154846   5.832   7.711   9.643
51024SOL    HW254847   5.818   7.861   9.627
51025SOL     OW54848   4.182  11.551  12.601
51025SOL    HW154849   4.162  11.545  12.508
51025SOL    HW254850   4.108  11.509  12.645
51026SOL     OW54851  12.475   7.621  13.671
51026SOL    HW154852  12.498   7.649  13.583
51026SOL    HW254853  12.390   7.578  13.662
51027SOL     OW54854   5.865  13.122  13.470
51027SOL    HW154855   5.855  13.048  13.530
51027SOL    HW254856   5.858  13.084  13.383
51028SOL     OW54857  10.199  10.094   7.646
51028SOL    HW154858  10.206  10.010   7.601
51028SOL    HW254859  10.193  10.071   7.739
51029SOL     OW54860   0.541   3.538  10.295
51029SOL    HW154861   0.480   3.468  10.319
51029SOL    HW254862   0.593   3.501  10.224
51030SOL     OW54863   7.127   1.014   7.987
51030SOL    HW154864   7.152   1.106   7.991
51030SOL    HW254865   7.061   1.004   8.055
51031SOL     OW54866   6.558   8.030   0.312
51031SOL    HW154867   6.573   8.040   0.406
51031SOL    HW254868   6.553   8.120   0.279
51032SOL     OW54869   7.365   4.048  13.536
51032SOL    HW154870   7.443   4.040  13.480
51032SOL    HW254871   7.385   3.996  13.613
51033SOL     OW54872  14.206   7.198  13.724
51033SOL    HW154873  14.258   7.171  13.648
51033SOL    HW254874  14.128   7.143  13.720
51034SOL     OW54875   6.683  14.814  10.144
51034SOL    HW154876   6.659   0.017  10.188
51034SOL    HW254877   6.689  14.837  10.052
51035SOL     OW54878   8.177   0.332   3.904
51035SOL    HW154879   8.212   0.336   3.815
51035SOL    HW254880   8.179   0.239   3.926
51036SOL     OW54881  11.152   3.215   7.300
51036SOL    HW154882  11.244   3.204   7.324
51036SOL    HW254883  11.125   3.294   7.347
51037SOL     OW54884   6.706   9.563   8.308
51037SOL    HW154885   6.716   9.474   8.277
51037SOL    HW254886   6.613   9.570   8.332
51038SOL     OW54887  10.637   1.157   5.584
51038SOL    HW154888  10.583   1.236   5.579
51038SOL    HW254889  10.638   1.134   5.677
51039SOL     OW54890  10.410  12.025   0.810
51039SOL    HW154891  10.320  12.047   0.835
51039SOL    HW254892  10.421  12.065   0.724
51040SOL     OW54893   2.470  12.744  12.912
51040SOL    HW154894   2.461  12.772  12.821
51040SOL    HW254895   2.399  12.789  12.958
51041SOL     OW54896   0.351   0.788   1.940
51041SOL    HW154897   0.392   0.744   2.015
51041SOL    HW254898   0.317   0.717   1.886
51042SOL     OW54899   6.154   4.112  10.815
51042SOL    HW154900   6.104   4.036  10.785
51042SOL    HW254901   6.213   4.077  10.882
51043SOL     OW54902   8.231   2.583   4.930
51043SOL    HW154903   8.161   2.561   4.868
51043SOL    HW254904   8.203   2.544   5.012
51044SOL     OW54905   1.305  14.594   9.888
51044SOL    HW154906   1.339  14.670   9.841
51044SOL    HW254907   1.304  14.621   9.980
51045SOL     OW54908   2.561   7.581   8.177
51045SOL    HW154909   2.646   7.540   8.187
51045SOL    HW254910   2.574   7.650   8.112
51046SOL     OW54911   6.558  10.404   9.450
51046SOL    HW154912   6.593  10.489   9.475
51046SOL    HW254913   6.530  10.415   9.359
51047SOL     OW54914   0.601   7.121  12.565
51047SOL    HW154915   0.623   7.092  12.654
51047SOL    HW254916   0.505   7.122  12.564
51048SOL     OW54917   5.904   6.040   7.983
51048SOL    HW154918   5.903   5.965   7.923
51048SOL    HW254919   5.914   6.002   8.070
51049SOL     OW54920   8.351  11.129   3.642
51049SOL    HW154921   8.402  11.207   3.664
51049SOL    HW254922   8.402  11.056   3.678
51050SOL     OW54923   2.078   0.227   7.369
51050SOL    HW154924   2.107   0.244   7.280
51050SOL    HW254925   2.028   0.305   7.393
51051SOL     OW54926   2.724   7.339   1.854
51051SOL    HW154927   2.794   7.315   1.914
51051SOL    HW254928   2.766   7.344   1.768
51052SOL     OW54929   6.640  12.515  11.447
51052SOL    HW154930   6.600  12.592  11.408
51052SOL    HW254931   6.578  12.444  11.429
51053SOL     OW54932   6.775   1.166   8.582
51053SOL    HW154933   6.785   1.082   8.626
51053SOL    HW254934   6.825   1.157   8.501
51054SOL     OW54935  10.711   5.049   7.402
51054SOL    HW154936  10.716   5.033   7.308
51054SOL    HW254937  10.743   4.967   7.441
51055SOL     OW54938   4.617   6.956   5.062
51055SOL    HW154939   4.574   6.910   4.990
51055SOL    HW254940   4.681   7.013   5.019
51056SOL     OW54941   7.897   1.376   4.735
51056SOL    HW154942   7.967   1.431   4.700
51056SOL    HW254943   7.834   1.438   4.772
51057SOL     OW54944   4.744   0.014   5.521
51057SOL    HW154945   4.764   0.106   5.534
51057SOL    HW254946   4.763  14.876   5.428
51058SOL     OW54947  11.374  13.571   2.257
51058SOL    HW154948  11.387  13.550   2.350
51058SOL    HW254949  11.462  13.568   2.219
51059SOL     OW54950   8.783   9.975   1.041
51059SOL    HW154951   8.828   9.995   1.122
51059SOL    HW254952   8.696  10.013   1.052
51060SOL     OW54953   1.564  14.460   2.680
51060SOL    HW154954   1.590  14.551   2.690
51060SOL    HW254955   1.622  14.411   2.738
51061SOL     OW54956   5.219   9.114  14.086
51061SOL    HW154957   5.298   9.128  14.137
51061SOL    HW254958   5.156   9.177  14.120
51062SOL     OW54959  14.842  10.530  14.340
51062SOL    HW154960  14.762  10.582  14.344
51062SOL    HW254961   0.004  10.540  14.426
51063SOL     OW54962   3.158   5.839  14.053
51063SOL    HW154963   3.101   5.782  14.105
51063SOL    HW254964   3.232   5.782  14.029
51064SOL     OW54965   9.901   7.468  11.672
51064SOL    HW154966   9.860   7.543  11.630
51064SOL    HW254967   9.866   7.467  11.761
51065SOL     OW54968   6.117   8.198   1.858
51065SOL    HW154969   6.185   8.259   1.887
51065SOL    HW254970   6.156   8.153   1.783
51066SOL     OW54971   3.796   5.869   8.933
51066SOL    HW154972   3.837   5.954   8.916
51066SOL    HW254973   3.775   5.835   8.846
51067SOL     OW54974   6.347  10.459   8.891
51067SOL    HW154975   6.372  10.442   8.981
51067SOL    HW254976   6.270  10.404   8.876
51068SOL     OW54977   2.778  12.028   9.452
51068SOL    HW154978   2.820  12.015   9.368
51068SOL    HW254979   2.767  12.123   9.459
51069SOL     OW54980   4.969   6.624   6.248
51069SOL    HW154981   4.929   6.684   6.310
51069SOL    HW254982   5.057   6.659   6.234
51070SOL     OW54983  13.998   2.729  13.159
51070SOL    HW154984  14.026   2.687  13.077
51070SOL    HW254985  13.946   2.662  13.203
51071SOL     OW54986   4.932  14.058  14.819
51071SOL    HW154987   4.937  14.143  14.775
51071SOL    HW254988   4.911  13.996  14.749
51072SOL     OW54989  11.926   9.322   8.758
51072SOL    HW154990  11.983   9.267   8.704
51072SOL    HW254991  11.851   9.341   8.702
51073SOL     OW54992   4.834   7.613  13.484
51073SOL    HW154993   4.805   7.557  13.412
51073SOL    HW254994   4.908   7.662  13.448
51074SOL     OW54995  11.808   9.068   0.410
51074SOL    HW154996  11.797   9.155   0.449
51074SOL    HW254997  11.720   9.030   0.412
51075SOL     OW54998  10.374  12.155   7.996
51075SOL    HW154999  10.284  12.183   8.014
51075SOL    HW255000  10.369  12.060   7.992
51076SOL     OW55001   8.904   6.007   3.816
51076SOL    HW155002   8.984   5.963   3.789
51076SOL    HW255003   8.920   6.033   3.907
51077SOL     OW55004   3.111   9.172  12.119
51077SOL    HW155005   3.152   9.173  12.206
51077SOL    HW255006   3.135   9.087  12.083
51078SOL     OW55007   4.956  14.633   7.159
51078SOL    HW155008   5.014  14.705   7.185
51078SOL    HW255009   5.005  14.584   7.093
51079SOL     OW55010  12.406   1.517   3.788
51079SOL    HW155011  12.455   1.434   3.794
51079SOL    HW255012  12.320   1.497   3.826
51080SOL     OW55013   5.640   8.802  12.455
51080SOL    HW155014   5.580   8.859  12.407
51080SOL    HW255015   5.621   8.714  12.423
51081SOL     OW55016   3.356   5.410   7.702
51081SOL    HW155017   3.398   5.402   7.787
51081SOL    HW255018   3.338   5.504   7.693
51082SOL     OW55019   8.157   3.907  12.860
51082SOL    HW155020   8.243   3.869  12.847
51082SOL    HW255021   8.096   3.836  12.839
51083SOL     OW55022   1.950   8.513   9.415
51083SOL    HW155023   1.993   8.598   9.425
51083SOL    HW255024   1.993   8.473   9.339
51084SOL     OW55025  10.694   9.235   7.421
51084SOL    HW155026  10.683   9.150   7.378
51084SOL    HW255027  10.682   9.299   7.351
51085SOL     OW55028   5.158   9.360   9.039
51085SOL    HW155029   5.191   9.393   9.123
51085SOL    HW255030   5.139   9.439   8.988
51086SOL     OW55031   2.386   0.915   2.550
51086SOL    HW155032   2.450   0.907   2.621
51086SOL    HW255033   2.337   0.994   2.571
51087SOL     OW55034   8.543   1.060   8.622
51087SOL    HW155035   8.567   1.116   8.696
51087SOL    HW255036   8.611   1.076   8.557
51088SOL     OW55037   9.689   8.827   2.750
51088SOL    HW155038   9.740   8.891   2.700
51088SOL    HW255039   9.634   8.784   2.685
51089SOL     OW55040   2.055   3.657   3.962
51089SOL    HW155041   2.068   3.568   3.931
51089SOL    HW255042   1.976   3.687   3.916
51090SOL     OW55043   9.734   1.190  13.141
51090SOL    HW155044   9.739   1.099  13.111
51090SOL    HW255045   9.791   1.193  13.218
51091SOL     OW55046   0.330   1.109  13.222
51091SOL    HW155047   0.249   1.112  13.171
51091SOL    HW255048   0.367   1.197  13.212
51092SOL     OW55049   5.218  10.750   7.865
51092SOL    HW155050   5.194  10.841   7.884
51092SOL    HW255051   5.273  10.724   7.938
51093SOL     OW55052   2.312  13.313  10.224
51093SOL    HW155053   2.249  13.288  10.156
51093SOL    HW255054   2.354  13.391  10.189
51094SOL     OW55055   3.516   5.453  13.790
51094SOL    HW155056   3.441   5.476  13.735
51094SOL    HW255057   3.581   5.520  13.769
51095SOL     OW55058  11.284   7.785   4.507
51095SOL    HW155059  11.264   7.692   4.500
51095SOL    HW255060  11.199   7.828   4.510
51096SOL     OW55061   1.412  10.056   9.107
51096SOL    HW155062   1.460  10.109   9.171
51096SOL    HW255063   1.415  10.108   9.026
51097SOL     OW55064  10.801  14.736   4.261
51097SOL    HW155065  10.721  14.751   4.312
51097SOL    HW255066  10.790  14.648   4.224
51098SOL     OW55067   5.306  10.788  10.541
51098SOL    HW155068   5.321  10.728  10.469
51098SOL    HW255069   5.342  10.744  10.618
51099SOL     OW55070   6.137   2.906   8.595
51099SOL    HW155071   6.180   2.833   8.639
51099SOL    HW255072   6.061   2.867   8.552
51100SOL     OW55073   5.017   6.941   2.939
51100SOL    HW155074   4.930   6.971   2.967
51100SOL    HW255075   5.072   6.951   3.016
51101SOL     OW55076  11.640  14.475  10.183
51101SOL    HW155077  11.555  14.508  10.213
51101SOL    HW255078  11.619  14.400  10.128
51102SOL     OW55079   0.490  14.025   7.065
51102SOL    HW155080   0.395  14.030   7.058
51102SOL    HW255081   0.522  14.099   7.013
51103SOL     OW55082   2.820   8.378  13.346
51103SOL    HW155083   2.766   8.398  13.423
51103SOL    HW255084   2.906   8.358  13.382
51104SOL     OW55085   3.398   2.364   4.609
51104SOL    HW155086   3.410   2.332   4.520
51104SOL    HW255087   3.472   2.424   4.624
51105SOL     OW55088   5.771   3.661   2.195
51105SOL    HW155089   5.764   3.695   2.284
51105SOL    HW255090   5.864   3.647   2.182
51106SOL     OW55091   0.158   2.969   3.390
51106SOL    HW155092   0.237   2.918   3.407
51106SOL    HW255093   0.088   2.919   3.431
51107SOL     OW55094   3.922  11.432  12.680
51107SOL    HW155095   3.910  11.356  12.623
51107SOL    HW255096   3.859  11.419  12.752
51108SOL     OW55097  11.601  10.271   9.689
51108SOL    HW155098  11.685  10.299   9.653
51108SOL    HW255099  11.622  10.192   9.739
51109SOL     OW55100   0.780   0.560   0.530
51109SOL    HW155101   0.687   0.574   0.543
51109SOL    HW255102   0.790   0.465   0.525
51110SOL     OW55103  10.006   3.337   0.863
51110SOL    HW155104   9.952   3.379   0.797
51110SOL    HW255105  10.078   3.298   0.814
51111SOL     OW55106  12.992   7.404  11.814
51111SOL    HW155107  13.031   7.470  11.871
51111SOL    HW255108  13.059   7.336  11.807
51112SOL     OW55109  11.037  14.506   0.512
51112SOL    HW155110  10.993  14.590   0.502
51112SOL    HW255111  11.037  14.489   0.606
51113SOL     OW55112   8.718   7.476   7.744
51113SOL    HW155113   8.735   7.558   7.790
51113SOL    HW255114   8.626   7.458   7.759
51114SOL     OW55115   2.785  14.040   6.490
51114SOL    HW155116   2.850  14.098   6.529
51114SOL    HW255117   2.790  13.959   6.541
51115SOL     OW55118  11.483  10.770   6.474
51115SOL    HW155119  11.400  10.781   6.428
51115SOL    HW255120  11.549  10.793   6.409
51116SOL     OW55121   7.809   5.385   3.617
51116SOL    HW155122   7.866   5.445   3.665
51116SOL    HW255123   7.735   5.439   3.589
51117SOL     OW55124   7.988   4.853   6.639
51117SOL    HW155125   7.898   4.836   6.668
51117SOL    HW255126   7.982   4.935   6.590
51118SOL     OW55127   8.040   2.597   2.560
51118SOL    HW155128   8.127   2.571   2.589
51118SOL    HW255129   8.051   2.621   2.468
51119SOL     OW55130   3.041  11.204   2.025
51119SOL    HW155131   3.049  11.109   2.028
51119SOL    HW255132   3.034  11.225   1.932
51120SOL     OW55133   2.996  10.993   9.423
51120SOL    HW155134   2.957  11.074   9.453
51120SOL    HW255135   3.089  11.001   9.446
51121SOL     OW55136   2.807   0.114   2.602
51121SOL    HW155137   2.798   0.182   2.668
51121SOL    HW255138   2.814   0.033   2.652
51122SOL     OW55139   9.788  11.216   2.517
51122SOL    HW155140   9.788  11.184   2.607
51122SOL    HW255141   9.848  11.291   2.518
51123SOL     OW55142  12.002   4.593   7.645
51123SOL    HW155143  11.907   4.583   7.641
51123SOL    HW255144  12.021   4.610   7.737
51124SOL     OW55145   0.644   4.303   0.372
51124SOL    HW155146   0.610   4.369   0.432
51124SOL    HW255147   0.602   4.323   0.288
51125SOL     OW55148  11.108   1.015   7.906
51125SOL    HW155149  11.161   1.022   7.827
51125SOL    HW255150  11.104   0.921   7.924
51126SOL     OW55151  13.160  14.168   8.021
51126SOL    HW155152  13.136  14.238   7.961
51126SOL    HW255153  13.254  14.156   8.009
51127SOL     OW55154   9.901   5.970   3.798
51127SOL    HW155155   9.836   5.927   3.854
51127SOL    HW255156   9.940   6.038   3.853
51128SOL     OW55157   0.766  14.800   1.018
51128SOL    HW155158   0.822  14.791   1.095
51128SOL    HW255159   0.681  14.826   1.053
51129SOL     OW55160  11.415  12.830   1.116
51129SOL    HW155161  11.348  12.844   1.182
51129SOL    HW255162  11.425  12.735   1.111
51130SOL     OW55163   2.480  13.885   6.807
51130SOL    HW155164   2.496  13.875   6.714
51130SOL    HW255165   2.403  13.832   6.825
51131SOL     OW55166   9.775   9.461  11.498
51131SOL    HW155167   9.760   9.377  11.542
51131SOL    HW255168   9.870   9.473  11.500
51132SOL     OW55169   5.396  11.163  10.355
51132SOL    HW155170   5.386  11.251  10.391
51132SOL    HW255171   5.484  11.163  10.316
51133SOL     OW55172   3.836   4.785   7.296
51133SOL    HW155173   3.745   4.778   7.324
51133SOL    HW255174   3.844   4.722   7.224
51134SOL     OW55175   3.183   9.261   4.882
51134SOL    HW155176   3.169   9.345   4.839
51134SOL    HW255177   3.278   9.251   4.885
51135SOL     OW55178   6.765   7.481  12.267
51135SOL    HW155179   6.851   7.452  12.235
51135SOL    HW255180   6.702   7.440  12.207
51136SOL     OW55181   8.245   3.889   1.003
51136SOL    HW155182   8.305   3.898   1.076
51136SOL    HW255183   8.196   3.971   1.002
51137SOL     OW55184  12.812   1.225   8.090
51137SOL    HW155185  12.718   1.242   8.079
51137SOL    HW255186  12.837   1.281   8.164
51138SOL     OW55187   1.259   7.216   0.593
51138SOL    HW155188   1.199   7.192   0.522
51138SOL    HW255189   1.317   7.282   0.554
51139SOL     OW55190  13.187   0.493  11.337
51139SOL    HW155191  13.234   0.564  11.293
51139SOL    HW255192  13.143   0.446  11.266
51140SOL     OW55193   5.121   0.771   7.014
51140SOL    HW155194   5.056   0.710   7.049
51140SOL    HW255195   5.123   0.752   6.920
51141SOL     OW55196  11.299   1.057   3.249
51141SOL    HW155197  11.390   1.084   3.246
51141SOL    HW255198  11.252   1.132   3.284
51142SOL     OW55199  12.725  14.566   0.478
51142SOL    HW155200  12.647  14.556   0.532
51142SOL    HW255201  12.710  14.510   0.402
51143SOL     OW55202   2.275   2.779  10.213
51143SOL    HW155203   2.202   2.718  10.223
51143SOL    HW255204   2.237   2.856  10.172
51144SOL     OW55205  11.534   2.962   9.075
51144SOL    HW155206  11.535   2.890   9.138
51144SOL    HW255207  11.623   2.997   9.077
51145SOL     OW55208   5.343  13.518   3.230
51145SOL    HW155209   5.257  13.517   3.271
51145SOL    HW255210   5.366  13.425   3.222
51146SOL     OW55211   2.585  12.110  14.325
51146SOL    HW155212   2.514  12.111  14.260
51146SOL    HW255213   2.591  12.019  14.353
51147SOL     OW55214  11.595   0.652   3.522
51147SOL    HW155215  11.541   0.575   3.537
51147SOL    HW255216  11.585   0.670   3.428
51148SOL     OW55217   3.439   7.344  11.785
51148SOL    HW155218   3.419   7.307  11.699
51148SOL    HW255219   3.532   7.328  11.797
51149SOL     OW55220  12.526  10.573   8.506
51149SOL    HW155221  12.540  10.516   8.430
51149SOL    HW255222  12.536  10.662   8.471
51150SOL     OW55223  10.850   3.495   6.940
51150SOL    HW155224  10.774   3.462   6.988
51150SOL    HW255225  10.918   3.505   7.007
51151SOL     OW55226   1.352   5.420  11.638
51151SOL    HW155227   1.417   5.472  11.684
51151SOL    HW255228   1.364   5.442  11.545
51152SOL     OW55229   4.633   8.089  12.168
51152SOL    HW155230   4.691   8.130  12.233
51152SOL    HW255231   4.658   7.997  12.169
51153SOL     OW55232   8.506   6.426  13.976
51153SOL    HW155233   8.441   6.471  14.029
51153SOL    HW255234   8.463   6.412  13.892
51154SOL     OW55235   6.922   9.098   2.985
51154SOL    HW155236   6.934   9.019   2.932
51154SOL    HW255237   6.970   9.166   2.937
51155SOL     OW55238   9.979   2.578  14.565
51155SOL    HW155239  10.065   2.618  14.581
51155SOL    HW255240   9.919   2.653  14.562
51156SOL     OW55241   0.903   5.075   8.853
51156SOL    HW155242   0.857   5.008   8.904
51156SOL    HW255243   0.834   5.127   8.812
51157SOL     OW55244   2.941   7.610  13.191
51157SOL    HW155245   2.910   7.664  13.263
51157SOL    HW255246   2.897   7.526  13.203
51158SOL     OW55247   4.953  12.741   6.532
51158SOL    HW155248   5.011  12.815   6.552
51158SOL    HW255249   4.868  12.782   6.515
51159SOL     OW55250   8.866   8.930  14.164
51159SOL    HW155251   8.936   8.894  14.218
51159SOL    HW255252   8.802   8.965  14.227
51160SOL     OW55253   9.956   3.281   2.201
51160SOL    HW155254   9.896   3.286   2.126
51160SOL    HW255255   9.918   3.213   2.257
51161SOL     OW55256  13.369   6.640   6.459
51161SOL    HW155257  13.349   6.704   6.528
51161SOL    HW255258  13.324   6.673   6.382
51162SOL     OW55259  13.477   2.526   7.861
51162SOL    HW155260  13.571   2.530   7.848
51162SOL    HW255261  13.455   2.611   7.899
51163SOL     OW55262   4.217  10.443  13.332
51163SOL    HW155263   4.264  10.373  13.286
51163SOL    HW255264   4.282  10.480  13.392
51164SOL     OW55265   3.118  12.302   0.917
51164SOL    HW155266   3.183  12.371   0.921
51164SOL    HW255267   3.068  12.321   0.837
51165SOL     OW55268  10.800   6.621  11.048
51165SOL    HW155269  10.729   6.679  11.078
51165SOL    HW255270  10.795   6.625  10.952
51166SOL     OW55271  12.621   8.625   9.854
51166SOL    HW155272  12.622   8.716   9.823
51166SOL    HW255273  12.547   8.621   9.914
51167SOL     OW55274   0.166   7.111  11.471
51167SOL    HW155275   0.259   7.128  11.485
51167SOL    HW255276   0.126   7.127  11.556
51168SOL     OW55277   8.313   3.079   7.227
51168SOL    HW155278   8.284   2.989   7.238
51168SOL    HW255279   8.392   3.073   7.174
51169SOL     OW55280  10.615  13.368   9.511
51169SOL    HW155281  10.665  13.415   9.445
51169SOL    HW255282  10.681  13.327   9.567
51170SOL     OW55283   9.598   4.420   8.604
51170SOL    HW155284   9.575   4.328   8.610
51170SOL    HW255285   9.595   4.439   8.510
51171SOL     OW55286   4.380  14.139   1.789
51171SOL    HW155287   4.463  14.185   1.794
51171SOL    HW255288   4.348  14.157   1.700
51172SOL     OW55289   6.712  14.671   6.166
51172SOL    HW155290   6.746  14.603   6.108
51172SOL    HW255291   6.745  14.648   6.252
51173SOL     OW55292   2.690  13.838  11.088
51173SOL    HW155293   2.677  13.907  11.154
51173SOL    HW255294   2.674  13.881  11.004
51174SOL     OW55295  14.055   6.096   0.873
51174SOL    HW155296  14.008   6.132   0.947
51174SOL    HW255297  14.064   6.003   0.892
51175SOL     OW55298   6.695  13.414  13.885
51175SOL    HW155299   6.716  13.352  13.954
51175SOL    HW255300   6.614  13.379  13.845
51176SOL     OW55301   8.940   9.832  14.760
51176SOL    HW155302   8.945   9.822  14.855
51176SOL    HW255303   9.016   9.784  14.726
51177SOL     OW55304   8.728  11.314   3.563
51177SOL    HW155305   8.740  11.219   3.572
51177SOL    HW255306   8.814  11.346   3.535
51178SOL     OW55307   4.801  12.983   3.553
51178SOL    HW155308   4.801  13.076   3.573
51178SOL    HW255309   4.841  12.977   3.466
51179SOL     OW55310  11.788  11.253  10.292
51179SOL    HW155311  11.859  11.309  10.258
51179SOL    HW255312  11.778  11.185  10.225
51180SOL     OW55313   0.887   4.189   6.949
51180SOL    HW155314   0.793   4.193   6.968
51180SOL    HW255315   0.915   4.104   6.985
51181SOL     OW55316   3.154   8.137  12.110
51181SOL    HW155317   3.188   8.222  12.139
51181SOL    HW255318   3.109   8.157  12.028
51182SOL     OW55319  11.109   5.663  14.864
51182SOL    HW155320  11.119   5.753   0.015
51182SOL    HW255321  11.053   5.669  14.786
51183SOL     OW55322   1.955   1.128  13.375
51183SOL    HW155323   1.870   1.162  13.405
51183SOL    HW255324   2.017   1.157  13.442
51184SOL     OW55325   0.880   9.943   4.638
51184SOL    HW155326   0.825  10.013   4.603
51184SOL    HW255327   0.934   9.986   4.705
51185SOL     OW55328   3.136   9.597   1.862
51185SOL    HW155329   3.150   9.502   1.852
51185SOL    HW255330   3.074   9.618   1.792
51186SOL     OW55331   8.254   0.482  11.637
51186SOL    HW155332   8.250   0.414  11.705
51186SOL    HW255333   8.324   0.541  11.667
51187SOL     OW55334   1.673  12.456   6.157
51187SOL    HW155335   1.745  12.441   6.219
51187SOL    HW255336   1.604  12.397   6.186
51188SOL     OW55337   5.953   3.525  13.591
51188SOL    HW155338   5.953   3.577  13.511
51188SOL    HW255339   5.864   3.489  13.595
51189SOL     OW55340   8.250   2.490   3.864
51189SOL    HW155341   8.251   2.425   3.793
51189SOL    HW255342   8.341   2.497   3.892
51190SOL     OW55343   7.161   7.291   3.997
51190SOL    HW155344   7.218   7.367   3.984
51190SOL    HW255345   7.210   7.218   3.959
51191SOL     OW55346  14.195   7.294  10.364
51191SOL    HW155347  14.219   7.237  10.437
51191SOL    HW255348  14.231   7.380  10.388
51192SOL     OW55349   3.628   9.702   2.383
51192SOL    HW155350   3.679   9.712   2.464
51192SOL    HW255351   3.675   9.635   2.333
51193SOL     OW55352   5.013   7.158   1.300
51193SOL    HW155353   5.101   7.127   1.322
51193SOL    HW255354   5.016   7.252   1.317
51194SOL     OW55355   1.902  10.192  10.091
51194SOL    HW155356   1.971  10.129  10.110
51194SOL    HW255357   1.824  10.157  10.135
51195SOL     OW55358   1.971   0.785  11.800
51195SOL    HW155359   2.013   0.785  11.714
51195SOL    HW255360   1.901   0.719  11.792
51196SOL     OW55361   6.492   4.870  12.991
51196SOL    HW155362   6.495   4.966  12.986
51196SOL    HW255363   6.568   4.847  13.043
51197SOL     OW55364  12.578   9.452  14.740
51197SOL    HW155365  12.616   9.465  14.653
51197SOL    HW255366  12.487   9.426  14.723
51198SOL     OW55367  11.362   2.953   3.179
51198SOL    HW155368  11.429   2.985   3.239
51198SOL    HW255369  11.342   3.028   3.123
51199SOL     OW55370  12.021   8.084   4.285
51199SOL    HW155371  12.076   8.016   4.246
51199SOL    HW255372  12.075   8.122   4.354
51200SOL     OW55373   7.527   2.328  10.525
51200SOL    HW155374   7.588   2.398  10.502
51200SOL    HW255375   7.535   2.320  10.620
51201SOL     OW55376   6.319   3.510  10.008
51201SOL    HW155377   6.385   3.579  10.006
51201SOL    HW255378   6.356   3.444  10.068
51202SOL     OW55379   8.438  12.300   4.643
51202SOL    HW155380   8.435  12.394   4.628
51202SOL    HW255381   8.507  12.269   4.584
51203SOL     OW55382   7.084   4.114   2.823
51203SOL    HW155383   7.042   4.157   2.897
51203SOL    HW255384   7.122   4.186   2.772
51204SOL     OW55385   1.835   4.893  10.693
51204SOL    HW155386   1.838   4.843  10.611
51204SOL    HW255387   1.792   4.835  10.756
51205SOL     OW55388   6.560   9.256   7.996
51205SOL    HW155389   6.590   9.272   8.085
51205SOL    HW255390   6.470   9.225   8.006
51206SOL     OW55391  12.588   9.734   8.235
51206SOL    HW155392  12.568   9.759   8.145
51206SOL    HW255393  12.602   9.640   8.232
51207SOL     OW55394  11.407   3.936   1.140
51207SOL    HW155395  11.429   4.005   1.077
51207SOL    HW255396  11.405   3.980   1.225
51208SOL     OW55397   2.328   9.559   1.188
51208SOL    HW155398   2.289   9.518   1.265
51208SOL    HW255399   2.254   9.592   1.137
51209SOL     OW55400   9.356   7.443   1.956
51209SOL    HW155401   9.352   7.503   1.881
51209SOL    HW255402   9.431   7.474   2.007
51210SOL     OW55403   4.361   2.777   6.229
51210SOL    HW155404   4.280   2.823   6.203
51210SOL    HW255405   4.431   2.840   6.210
51211SOL     OW55406  12.138   5.058   5.873
51211SOL    HW155407  12.111   4.994   5.938
51211SOL    HW255408  12.090   5.138   5.895
51212SOL     OW55409   8.598   4.358  13.443
51212SOL    HW155410   8.562   4.431  13.493
51212SOL    HW255411   8.631   4.297  13.510
51213SOL     OW55412  11.622   5.249  13.575
51213SOL    HW155413  11.581   5.289  13.498
51213SOL    HW255414  11.550   5.204  13.620
51214SOL     OW55415   0.843  11.591   6.248
51214SOL    HW155416   0.936  11.576   6.262
51214SOL    HW255417   0.801  11.553   6.325
51215SOL     OW55418   9.467   2.212   0.680
51215SOL    HW155419   9.399   2.147   0.663
51215SOL    HW255420   9.424   2.296   0.665
51216SOL     OW55421   8.148   2.401   5.119
51216SOL    HW155422   8.065   2.355   5.118
51216SOL    HW255423   8.165   2.419   5.211
51217SOL     OW55424  10.160  11.487  13.844
51217SOL    HW155425  10.113  11.568  13.826
51217SOL    HW255426  10.247  11.515  13.872
51218SOL     OW55427   7.099  11.239   9.995
51218SOL    HW155428   7.091  11.238  10.090
51218SOL    HW255429   7.109  11.146   9.972
51219SOL     OW55430   1.119   7.325  11.141
51219SOL    HW155431   1.157   7.408  11.172
51219SOL    HW255432   1.117   7.270  11.219
51220SOL     OW55433  11.992   0.213   5.088
51220SOL    HW155434  11.949   0.131   5.063
51220SOL    HW255435  12.074   0.186   5.129
51221SOL     OW55436   5.856   8.043  12.302
51221SOL    HW155437   5.895   8.129  12.316
51221SOL    HW255438   5.774   8.062  12.255
51222SOL     OW55439   0.082   8.637   5.508
51222SOL    HW155440   0.063   8.650   5.601
51222SOL    HW255441   0.021   8.570   5.480
51223SOL     OW55442   5.612   2.495   6.425
51223SOL    HW155443   5.674   2.442   6.374
51223SOL    HW255444   5.553   2.431   6.465
51224SOL     OW55445  10.508   9.429  11.614
51224SOL    HW155446  10.566   9.358  11.588
51224SOL    HW255447  10.516   9.433  11.710
51225SOL     OW55448   7.876   6.201  11.999
51225SOL    HW155449   7.844   6.225  12.086
51225SOL    HW255450   7.827   6.258  11.939
51226SOL     OW55451  10.959   2.365   7.643
51226SOL    HW155452  10.934   2.456   7.631
51226SOL    HW255453  10.875   2.318   7.645
51227SOL     OW55454   8.489   8.842   8.616
51227SOL    HW155455   8.554   8.788   8.660
51227SOL    HW255456   8.539   8.892   8.551
51228SOL     OW55457  11.231   7.703  13.170
51228SOL    HW155458  11.170   7.641  13.211
51228SOL    HW255459  11.314   7.657  13.166
51229SOL     OW55460  10.088   3.677   5.704
51229SOL    HW155461  10.017   3.722   5.751
51229SOL    HW255462  10.076   3.585   5.726
51230SOL     OW55463  11.259  14.403   3.398
51230SOL    HW155464  11.209  14.329   3.361
51230SOL    HW255465  11.347  14.393   3.363
51231SOL     OW55466   4.110   3.113   8.894
51231SOL    HW155467   4.060   3.043   8.935
51231SOL    HW255468   4.119   3.180   8.962
51232SOL     OW55469   6.017   8.742   2.435
51232SOL    HW155470   5.931   8.782   2.419
51232SOL    HW255471   5.997   8.654   2.466
51233SOL     OW55472   6.809  10.986  13.301
51233SOL    HW155473   6.844  10.961  13.216
51233SOL    HW255474   6.838  11.077  13.314
51234SOL     OW55475   2.991   1.204  10.928
51234SOL    HW155476   3.002   1.286  10.878
51234SOL    HW255477   3.080   1.182  10.956
51235SOL     OW55478  14.421   5.242   1.605
51235SOL    HW155479  14.417   5.232   1.700
51235SOL    HW255480  14.417   5.152   1.571
51236SOL     OW55481   7.392  13.034   5.337
51236SOL    HW155482   7.469  13.081   5.305
51236SOL    HW255483   7.320  13.068   5.284
51237SOL     OW55484   7.479   1.832   5.934
51237SOL    HW155485   7.459   1.843   5.841
51237SOL    HW255486   7.574   1.832   5.938
51238SOL     OW55487   0.708   8.739   5.833
51238SOL    HW155488   0.739   8.754   5.922
51238SOL    HW255489   0.754   8.803   5.779
51239SOL     OW55490   9.078  10.053   8.567
51239SOL    HW155491   9.114   9.970   8.536
51239SOL    HW255492   9.154  10.110   8.575
51240SOL     OW55493   7.491   9.294  12.737
51240SOL    HW155494   7.465   9.269  12.648
51240SOL    HW255495   7.420   9.263  12.792
51241SOL     OW55496  10.282   7.162   8.588
51241SOL    HW155497  10.195   7.197   8.606
51241SOL    HW255498  10.330   7.235   8.550
51242SOL     OW55499  10.734   7.128   4.923
51242SOL    HW155500  10.680   7.196   4.882
51242SOL    HW255501  10.804   7.113   4.861
51243SOL     OW55502  13.568   7.616   3.755
51243SOL    HW155503  13.513   7.682   3.714
51243SOL    HW255504  13.551   7.625   3.849
51244SOL     OW55505   7.030  13.064  13.287
51244SOL    HW155506   7.020  13.123  13.362
51244SOL    HW255507   7.095  13.000  13.315
51245SOL     OW55508  10.018  14.201  14.754
51245SOL    HW155509  10.067  14.277  14.786
51245SOL    HW255510   9.977  14.164  14.833
51246SOL     OW55511  14.738   3.570  14.407
51246SOL    HW155512  14.716   3.492  14.459
51246SOL    HW255513  14.716   3.644  14.464
51247SOL     OW55514   7.215  14.527  11.005
51247SOL    HW155515   7.128  14.561  10.986
51247SOL    HW255516   7.203  14.473  11.083
51248SOL     OW55517   9.035   8.822  12.956
51248SOL    HW155518   9.001   8.894  12.903
51248SOL    HW255519   8.958   8.767  12.972
51249SOL     OW55520  10.433   0.026   3.457
51249SOL    HW155521  10.497  14.836   3.438
51249SOL    HW255522  10.414   0.066   3.371
51250SOL     OW55523   9.507  14.539  13.009
51250SOL    HW155524   9.482  14.603  12.944
51250SOL    HW255525   9.511  14.588  13.091
51251SOL     OW55526   5.839  13.034   7.289
51251SOL    HW155527   5.806  13.024   7.200
51251SOL    HW255528   5.814  13.122   7.315
51252SOL     OW55529   6.058   9.852   9.524
51252SOL    HW155530   6.118   9.838   9.597
51252SOL    HW255531   6.090   9.932   9.482
51253SOL     OW55532   9.552  11.149   2.047
51253SOL    HW155533   9.539  11.085   1.977
51253SOL    HW255534   9.523  11.232   2.010
51254SOL     OW55535   7.151   7.243   1.213
51254SOL    HW155536   7.231   7.288   1.184
51254SOL    HW255537   7.177   7.151   1.221
51255SOL     OW55538  12.501   0.016   2.749
51255SOL    HW155539  12.424  14.853   2.712
51255SOL    HW255540  12.556   0.038   2.673
51256SOL     OW55541   9.413   1.170   4.321
51256SOL    HW155542   9.336   1.176   4.378
51256SOL    HW255543   9.406   1.084   4.281
51257SOL     OW55544   5.965   6.769  13.975
51257SOL    HW155545   6.014   6.727  13.904
51257SOL    HW255546   5.888   6.713  13.987
51258SOL     OW55547   2.562   4.248   0.470
51258SOL    HW155548   2.625   4.316   0.445
51258SOL    HW255549   2.606   4.165   0.448
51259SOL     OW55550   7.535   5.859   9.310
51259SOL    HW155551   7.587   5.936   9.287
51259SOL    HW255552   7.463   5.859   9.248
51260SOL     OW55553   5.879   6.154   3.572
51260SOL    HW155554   5.856   6.098   3.646
51260SOL    HW255555   5.881   6.095   3.497
51261SOL     OW55556   0.917   4.116  14.156
51261SOL    HW155557   0.918   4.025  14.186
51261SOL    HW255558   0.961   4.164  14.227
51262SOL     OW55559   5.801   3.646   4.090
51262SOL    HW155560   5.869   3.714   4.087
51262SOL    HW255561   5.762   3.647   4.002
51263SOL     OW55562   8.595  11.242  10.986
51263SOL    HW155563   8.505  11.211  11.000
51263SOL    HW255564   8.598  11.269  10.895
51264SOL     OW55565   5.804   9.519  12.800
51264SOL    HW155566   5.750   9.474  12.735
51264SOL    HW255567   5.893   9.488  12.783
51265SOL     OW55568   6.268  12.368   9.377
51265SOL    HW155569   6.258  12.441   9.316
51265SOL    HW255570   6.337  12.396   9.438
51266SOL     OW55571  11.135   7.215   0.747
51266SOL    HW155572  11.104   7.292   0.701
51266SOL    HW255573  11.055   7.164   0.764
51267SOL     OW55574   1.074   6.736  14.295
51267SOL    HW155575   1.080   6.650  14.337
51267SOL    HW255576   0.983   6.742  14.267
51268SOL     OW55577   6.772  13.718   5.369
51268SOL    HW155578   6.797  13.761   5.451
51268SOL    HW255579   6.716  13.781   5.324
51269SOL     OW55580   7.639   4.304   0.489
51269SOL    HW155581   7.587   4.332   0.414
51269SOL    HW255582   7.601   4.220   0.515
51270SOL     OW55583   5.665   8.170  12.093
51270SOL    HW155584   5.692   8.226  12.021
51270SOL    HW255585   5.617   8.098  12.051
51271SOL     OW55586   2.670   7.591  14.392
51271SOL    HW155587   2.684   7.603  14.486
51271SOL    HW255588   2.597   7.651  14.371
51272SOL     OW55589  13.110  11.155   8.914
51272SOL    HW155590  13.186  11.139   8.859
51272SOL    HW255591  13.083  11.244   8.894
51273SOL     OW55592  12.412   5.674   9.100
51273SOL    HW155593  12.402   5.581   9.121
51273SOL    HW255594  12.415   5.718   9.185
51274SOL     OW55595   6.537   3.472  10.424
51274SOL    HW155596   6.628   3.453  10.404
51274SOL    HW255597   6.522   3.560  10.389
51275SOL     OW55598  11.114   1.654   2.615
51275SOL    HW155599  11.199   1.674   2.577
51275SOL    HW255600  11.051   1.688   2.552
51276SOL     OW55601   2.012   6.873   0.361
51276SOL    HW155602   1.916   6.871   0.362
51276SOL    HW255603   2.037   6.868   0.454
51277SOL     OW55604   1.888   3.583   7.813
51277SOL    HW155605   1.818   3.563   7.751
51277SOL    HW255606   1.922   3.667   7.784
51278SOL     OW55607   4.357  12.171  12.787
51278SOL    HW155608   4.408  12.243  12.751
51278SOL    HW255609   4.304  12.211  12.856
51279SOL     OW55610   3.334  11.862  14.542
51279SOL    HW155611   3.320  11.896  14.454
51279SOL    HW255612   3.247  11.841  14.574
51280SOL     OW55613  10.466   6.253   4.472
51280SOL    HW155614  10.481   6.189   4.542
51280SOL    HW255615  10.502   6.335   4.505
51281SOL     OW55616   4.637  10.679  14.457
51281SOL    HW155617   4.660  10.740  14.527
51281SOL    HW255618   4.721  10.646  14.426
51282SOL     OW55619  13.495   1.528   8.092
51282SOL    HW155620  13.495   1.479   8.010
51282SOL    HW255621  13.450   1.610   8.070
51283SOL     OW55622   7.949   9.788   7.868
51283SOL    HW155623   7.952   9.695   7.844
51283SOL    HW255624   8.039   9.819   7.855
51284SOL     OW55625  12.780  10.837  13.836
51284SOL    HW155626  12.852  10.780  13.809
51284SOL    HW255627  12.801  10.862  13.926
51285SOL     OW55628  11.898   6.034   4.489
51285SOL    HW155629  11.931   6.104   4.545
51285SOL    HW255630  11.875   5.963   4.549
51286SOL     OW55631  11.219   3.088   0.759
51286SOL    HW155632  11.176   3.085   0.844
51286SOL    HW255633  11.295   3.030   0.768
51287SOL     OW55634   3.970   3.807  13.188
51287SOL    HW155635   3.930   3.794  13.273
51287SOL    HW255636   3.974   3.902  13.177
51288SOL     OW55637   0.227   6.260   9.697
51288SOL    HW155638   0.289   6.312   9.646
51288SOL    HW255639   0.261   6.171   9.694
51289SOL     OW55640   9.898   4.244   1.565
51289SOL    HW155641   9.914   4.152   1.543
51289SOL    HW255642   9.941   4.256   1.650
51290SOL     OW55643  10.747  12.930  13.352
51290SOL    HW155644  10.765  12.994  13.421
51290SOL    HW255645  10.724  12.982  13.276
51291SOL     OW55646   2.947   6.411   4.279
51291SOL    HW155647   2.878   6.357   4.241
51291SOL    HW255648   2.989   6.354   4.344
51292SOL     OW55649   2.200  14.618  13.944
51292SOL    HW155650   2.110  14.585  13.950
51292SOL    HW255651   2.203  14.691  14.005
51293SOL     OW55652   1.355   6.251   4.228
51293SOL    HW155653   1.371   6.254   4.323
51293SOL    HW255654   1.284   6.188   4.218
51294SOL     OW55655  12.806  11.656   2.601
51294SOL    HW155656  12.841  11.742   2.622
51294SOL    HW255657  12.769  11.666   2.513
51295SOL     OW55658   0.868   8.227  14.086
51295SOL    HW155659   0.903   8.268  14.164
51295SOL    HW255660   0.938   8.170  14.054
51296SOL     OW55661  10.251   7.785   5.991
51296SOL    HW155662  10.178   7.844   6.010
51296SOL    HW255663  10.218   7.729   5.920
51297SOL     OW55664   7.002   7.483  10.858
51297SOL    HW155665   6.992   7.555  10.920
51297SOL    HW255666   6.918   7.438  10.860
51298SOL     OW55667  11.965   3.193  12.590
51298SOL    HW155668  11.887   3.156  12.633
51298SOL    HW255669  11.934   3.274  12.550
51299SOL     OW55670   8.105   2.584   3.587
51299SOL    HW155671   8.092   2.521   3.657
51299SOL    HW255672   8.104   2.532   3.507
51300SOL     OW55673  13.487  12.820  11.260
51300SOL    HW155674  13.545  12.749  11.287
51300SOL    HW255675  13.543  12.880  11.211
51301SOL     OW55676  13.255  10.290   9.036
51301SOL    HW155677  13.288  10.368   9.081
51301SOL    HW255678  13.186  10.257   9.093
51302SOL     OW55679   6.381  13.060   0.797
51302SOL    HW155680   6.425  13.020   0.722
51302SOL    HW255681   6.313  13.116   0.759
51303SOL     OW55682   3.441  11.917   8.113
51303SOL    HW155683   3.368  11.954   8.064
51303SOL    HW255684   3.402  11.883   8.193
51304SOL     OW55685   9.897   6.366   1.915
51304SOL    HW155686   9.991   6.373   1.902
51304SOL    HW255687   9.859   6.419   1.845
51305SOL     OW55688   5.334   8.433  12.971
51305SOL    HW155689   5.240   8.425  12.991
51305SOL    HW255690   5.370   8.346  12.990
51306SOL     OW55691  12.624   5.494   3.435
51306SOL    HW155692  12.533   5.475   3.412
51306SOL    HW255693  12.624   5.501   3.530
51307SOL     OW55694   2.934  10.460  11.702
51307SOL    HW155695   2.990  10.466  11.779
51307SOL    HW255696   2.871  10.531  11.712
51308SOL     OW55697  10.864  11.313   5.631
51308SOL    HW155698  10.880  11.221   5.610
51308SOL    HW255699  10.881  11.319   5.725
51309SOL     OW55700   9.534   0.672  13.745
51309SOL    HW155701   9.536   0.715  13.659
51309SOL    HW255702   9.457   0.709  13.788
51310SOL     OW55703  11.437   6.432  14.094
51310SOL    HW155704  11.402   6.402  14.178
51310SOL    HW255705  11.528   6.402  14.094
51311SOL     OW55706  12.709   1.023   0.297
51311SOL    HW155707  12.704   1.030   0.393
51311SOL    HW255708  12.665   0.940   0.277
51312SOL     OW55709  14.672   1.679  12.008
51312SOL    HW155710  14.581   1.677  11.979
51312SOL    HW255711  14.668   1.667  12.103
51313SOL     OW55712   6.228   9.546   9.241
51313SOL    HW155713   6.158   9.544   9.306
51313SOL    HW255714   6.236   9.456   9.210
51314SOL     OW55715  14.490   5.274  13.524
51314SOL    HW155716  14.515   5.365  13.506
51314SOL    HW255717  14.561   5.222  13.485
51315SOL     OW55718   1.576  12.901   9.284
51315SOL    HW155719   1.662  12.879   9.248
51315SOL    HW255720   1.550  12.822   9.331
51316SOL     OW55721  13.014   2.823   4.810
51316SOL    HW155722  12.962   2.755   4.768
51316SOL    HW255723  13.089   2.777   4.848
51317SOL     OW55724   0.852  14.767   3.019
51317SOL    HW155725   0.926  14.719   3.056
51317SOL    HW255726   0.879  14.788   2.929
51318SOL     OW55727  10.264  12.528  11.944
51318SOL    HW155728  10.199  12.562  11.882
51318SOL    HW255729  10.236  12.562  12.029
51319SOL     OW55730   5.312   3.885   4.139
51319SOL    HW155731   5.385   3.868   4.198
51319SOL    HW255732   5.260   3.952   4.183
51320SOL     OW55733   4.083  13.868   2.646
51320SOL    HW155734   4.081  13.804   2.717
51320SOL    HW255735   3.995  13.867   2.609
51321SOL     OW55736   7.828  14.488   8.045
51321SOL    HW155737   7.806  14.499   7.953
51321SOL    HW255738   7.743  14.491   8.090
51322SOL     OW55739   7.198  13.884   7.055
51322SOL    HW155740   7.164  13.798   7.079
51322SOL    HW255741   7.144  13.946   7.103
51323SOL     OW55742   4.592   6.236   4.458
51323SOL    HW155743   4.680   6.250   4.493
51323SOL    HW255744   4.584   6.141   4.450
51324SOL     OW55745  14.735   5.416   6.446
51324SOL    HW155746  14.713   5.434   6.537
51324SOL    HW255747  14.700   5.328   6.430
51325SOL     OW55748   5.876   4.553   6.328
51325SOL    HW155749   5.887   4.503   6.409
51325SOL    HW255750   5.784   4.541   6.305
51326SOL     OW55751   5.897  10.990   5.168
51326SOL    HW155752   5.891  10.941   5.251
51326SOL    HW255753   5.912  10.923   5.102
51327SOL     OW55754  11.882  11.450   6.462
51327SOL    HW155755  11.852  11.429   6.373
51327SOL    HW255756  11.837  11.387   6.518
51328SOL     OW55757   7.023  13.186   0.094
51328SOL    HW155758   7.029  13.230   0.178
51328SOL    HW255759   6.940  13.216   0.057
51329SOL     OW55760   4.283  13.307   2.192
51329SOL    HW155761   4.252  13.390   2.155
51329SOL    HW255762   4.204  13.263   2.222
51330SOL     OW55763  11.711   6.882   0.713
51330SOL    HW155764  11.669   6.903   0.797
51330SOL    HW255765  11.701   6.788   0.705
51331SOL     OW55766   2.818  11.962   8.100
51331SOL    HW155767   2.887  11.992   8.041
51331SOL    HW255768   2.761  11.909   8.046
51332SOL     OW55769   8.979  10.806   3.459
51332SOL    HW155770   9.014  10.855   3.533
51332SOL    HW255771   8.893  10.776   3.488
51333SOL     OW55772  14.326  10.456   6.167
51333SOL    HW155773  14.233  10.432   6.162
51333SOL    HW255774  14.364  10.392   6.227
51334SOL     OW55775  10.466   2.200   4.828
51334SOL    HW155776  10.430   2.116   4.858
51334SOL    HW255777  10.548   2.177   4.785
51335SOL     OW55778   3.785   0.129  14.029
51335SOL    HW155779   3.821   0.188  13.963
51335SOL    HW255780   3.804   0.172  14.113
51336SOL     OW55781   8.656   0.183  10.459
51336SOL    HW155782   8.621   0.266  10.493
51336SOL    HW255783   8.643   0.121  10.531
51337SOL     OW55784  13.201  12.110  13.369
51337SOL    HW155785  13.281  12.089  13.416
51337SOL    HW255786  13.148  12.031  13.374
51338SOL     OW55787   4.789   7.558   7.590
51338SOL    HW155788   4.752   7.605   7.515
51338SOL    HW255789   4.719   7.557   7.655
51339SOL     OW55790   3.995  11.303  11.614
51339SOL    HW155791   4.069  11.243  11.623
51339SOL    HW255792   3.984  11.341  11.701
51340SOL     OW55793  13.542   1.515  10.712
51340SOL    HW155794  13.632   1.545  10.699
51340SOL    HW255795  13.491   1.595  10.724
51341SOL     OW55796   2.045   3.129   8.278
51341SOL    HW155797   2.007   3.071   8.212
51341SOL    HW255798   2.125   3.163   8.237
51342SOL     OW55799   4.762   6.301  10.634
51342SOL    HW155800   4.788   6.351  10.711
51342SOL    HW255801   4.819   6.333  10.564
51343SOL     OW55802   5.519   4.774  13.069
51343SOL    HW155803   5.454   4.715  13.031
51343SOL    HW255804   5.567   4.810  12.994
51344SOL     OW55805  13.278   9.941  10.956
51344SOL    HW155806  13.276  10.035  10.976
51344SOL    HW255807  13.257   9.936  10.863
51345SOL     OW55808   8.593  14.194   0.282
51345SOL    HW155809   8.537  14.145   0.341
51345SOL    HW255810   8.533  14.234   0.219
51346SOL     OW55811   8.085  11.206  12.779
51346SOL    HW155812   8.048  11.118  12.774
51346SOL    HW255813   8.025  11.260  12.728
51347SOL     OW55814   3.598   4.365   5.293
51347SOL    HW155815   3.689   4.390   5.308
51347SOL    HW255816   3.592   4.275   5.324
51348SOL     OW55817  14.527   8.461   4.070
51348SOL    HW155818  14.579   8.448   4.149
51348SOL    HW255819  14.528   8.376   4.026
51349SOL     OW55820   3.001   7.567   3.528
51349SOL    HW155821   2.915   7.554   3.487
51349SOL    HW255822   3.014   7.489   3.582
51350SOL     OW55823   8.071   1.363   8.837
51350SOL    HW155824   8.002   1.351   8.771
51350SOL    HW255825   8.077   1.458   8.847
51351SOL     OW55826   9.718   4.882   4.119
51351SOL    HW155827   9.656   4.944   4.155
51351SOL    HW255828   9.718   4.899   4.025
51352SOL     OW55829   8.824   9.991  12.827
51352SOL    HW155830   8.915   9.979  12.853
51352SOL    HW255831   8.776   9.999  12.909
51353SOL     OW55832   9.023   7.990   2.771
51353SOL    HW155833   9.038   8.051   2.843
51353SOL    HW255834   8.978   8.043   2.704
51354SOL     OW55835   1.454  13.504  14.291
51354SOL    HW155836   1.399  13.556  14.348
51354SOL    HW255837   1.402  13.427  14.270
51355SOL     OW55838   6.570   8.330   3.788
51355SOL    HW155839   6.487   8.334   3.834
51355SOL    HW255840   6.629   8.285   3.849
51356SOL     OW55841   7.303   3.210  11.991
51356SOL    HW155842   7.306   3.115  11.979
51356SOL    HW255843   7.308   3.245  11.902
51357SOL     OW55844   9.071  14.019   6.280
51357SOL    HW155845   9.005  14.000   6.347
51357SOL    HW255846   9.021  14.033   6.200
51358SOL     OW55847  13.008   4.151   9.891
51358SOL    HW155848  13.038   4.061   9.905
51358SOL    HW255849  13.088   4.203   9.890
51359SOL     OW55850   6.517   0.873  13.019
51359SOL    HW155851   6.508   0.870  13.114
51359SOL    HW255852   6.579   0.943  13.002
51360SOL     OW55853   3.993   2.433   5.779
51360SOL    HW155854   4.076   2.399   5.746
51360SOL    HW255855   3.949   2.469   5.701
51361SOL     OW55856   2.014  11.189   0.173
51361SOL    HW155857   1.952  11.240   0.225
51361SOL    HW255858   1.977  11.101   0.171
51362SOL     OW55859  14.330  10.453   8.455
51362SOL    HW155860  14.372  10.434   8.539
51362SOL    HW255861  14.254  10.394   8.452
51363SOL     OW55862   1.009   2.096   3.827
51363SOL    HW155863   1.007   2.177   3.879
51363SOL    HW255864   1.003   2.026   3.892
51364SOL     OW55865   0.443  13.594   1.205
51364SOL    HW155866   0.393  13.516   1.229
51364SOL    HW255867   0.525  13.560   1.169
51365SOL     OW55868   7.733   3.219  13.062
51365SOL    HW155869   7.811   3.177  13.097
51365SOL    HW255870   7.731   3.305  13.103
51366SOL     OW55871  11.312   5.946   8.533
51366SOL    HW155872  11.255   5.957   8.609
51366SOL    HW255873  11.355   6.031   8.523
51367SOL     OW55874  14.310   2.169   1.821
51367SOL    HW155875  14.305   2.195   1.913
51367SOL    HW255876  14.220   2.174   1.790
51368SOL     OW55877   9.932   2.380  11.121
51368SOL    HW155878   9.908   2.473  11.122
51368SOL    HW255879   9.861   2.335  11.166
51369SOL     OW55880  14.031   2.342   7.250
51369SOL    HW155881  14.102   2.352   7.187
51369SOL    HW255882  13.994   2.256   7.232
51370SOL     OW55883   6.356   5.426   4.139
51370SOL    HW155884   6.414   5.463   4.072
51370SOL    HW255885   6.382   5.335   4.146
51371SOL     OW55886   7.726   4.796   2.700
51371SOL    HW155887   7.646   4.810   2.750
51371SOL    HW255888   7.797   4.806   2.763
51372SOL     OW55889  13.462  11.013   2.305
51372SOL    HW155890  13.463  11.106   2.328
51372SOL    HW255891  13.437  10.969   2.387
51373SOL     OW55892   8.587   9.422   3.239
51373SOL    HW155893   8.647   9.367   3.290
51373SOL    HW255894   8.505   9.420   3.289
51374SOL     OW55895  10.135   1.245   8.169
51374SOL    HW155896  10.076   1.184   8.124
51374SOL    HW255897  10.083   1.282   8.240
51375SOL     OW55898   4.212  11.388   8.219
51375SOL    HW155899   4.231  11.390   8.125
51375SOL    HW255900   4.138  11.328   8.227
51376SOL     OW55901  13.583   5.853  13.096
51376SOL    HW155902  13.551   5.832  13.184
51376SOL    HW255903  13.585   5.769  13.050
51377SOL     OW55904   1.986  12.805  13.625
51377SOL    HW155905   2.014  12.801  13.716
51377SOL    HW255906   2.036  12.737  13.581
51378SOL     OW55907   1.800   5.175   8.938
51378SOL    HW155908   1.837   5.260   8.960
51378SOL    HW255909   1.706   5.186   8.949
51379SOL     OW55910   0.033  11.294   8.772
51379SOL    HW155911   0.090  11.317   8.699
51379SOL    HW255912   0.074  11.218   8.812
51380SOL     OW55913   7.235   3.113   0.441
51380SOL    HW155914   7.287   3.054   0.495
51380SOL    HW255915   7.214   3.186   0.499
51381SOL     OW55916  14.151   8.098   0.498
51381SOL    HW155917  14.184   8.105   0.408
51381SOL    HW255918  14.110   8.183   0.515
51382SOL     OW55919   1.979   2.048   2.498
51382SOL    HW155920   2.037   1.973   2.492
51382SOL    HW255921   1.938   2.040   2.584
51383SOL     OW55922   7.970   0.116  12.184
51383SOL    HW155923   8.063   0.133  12.199
51383SOL    HW255924   7.931   0.203  12.170
51384SOL     OW55925   1.442   8.141   1.024
51384SOL    HW155926   1.489   8.207   0.973
51384SOL    HW255927   1.376   8.108   0.963
51385SOL     OW55928  11.874   6.444   7.931
51385SOL    HW155929  11.887   6.491   7.849
51385SOL    HW255930  11.865   6.512   7.997
51386SOL     OW55931  11.011   8.376   2.960
51386SOL    HW155932  10.923   8.413   2.950
51386SOL    HW255933  11.017   8.353   3.053
51387SOL     OW55934   8.328   9.594  14.742
51387SOL    HW155935   8.295   9.620  14.655
51387SOL    HW255936   8.291   9.659  14.802
51388SOL     OW55937   8.195   5.590   3.238
51388SOL    HW155938   8.272   5.619   3.189
51388SOL    HW255939   8.226   5.514   3.288
51389SOL     OW55940  14.187   1.690  10.663
51389SOL    HW155941  14.248   1.711  10.733
51389SOL    HW255942  14.133   1.620  10.698
51390SOL     OW55943  12.991  13.764   6.181
51390SOL    HW155944  12.977  13.830   6.112
51390SOL    HW255945  13.061  13.800   6.235
51391SOL     OW55946   9.694   8.577   7.386
51391SOL    HW155947   9.665   8.505   7.331
51391SOL    HW255948   9.788   8.584   7.369
51392SOL     OW55949  10.235   8.949  13.092
51392SOL    HW155950  10.174   8.881  13.121
51392SOL    HW255951  10.259   8.923  13.004
51393SOL     OW55952  13.124   0.065  12.540
51393SOL    HW155953  13.104   0.053  12.448
51393SOL    HW255954  13.193   0.131  12.542
51394SOL     OW55955   6.923  11.835   6.691
51394SOL    HW155956   6.851  11.852   6.630
51394SOL    HW255957   6.921  11.907   6.753
51395SOL     OW55958   9.629  12.022  11.919
51395SOL    HW155959   9.676  11.947  11.956
51395SOL    HW255960   9.606  11.994  11.830
51396SOL     OW55961   6.866  13.803   2.376
51396SOL    HW155962   6.800  13.872   2.367
51396SOL    HW255963   6.883  13.798   2.470
51397SOL     OW55964   4.194  12.276   9.318
51397SOL    HW155965   4.173  12.295   9.227
51397SOL    HW255966   4.124  12.218   9.348
51398SOL     OW55967   6.901   3.947   1.641
51398SOL    HW155968   6.903   3.991   1.727
51398SOL    HW255969   6.809   3.946   1.618
51399SOL     OW55970   7.725  14.306   2.191
51399SOL    HW155971   7.724  14.262   2.105
51399SOL    HW255972   7.696  14.238   2.252
51400SOL     OW55973   0.035  10.899  11.017
51400SOL    HW155974   0.006  10.869  11.103
51400SOL    HW255975   0.010  10.992  11.015
51401SOL     OW55976   5.747   9.822   7.309
51401SOL    HW155977   5.829   9.855   7.343
51401SOL    HW255978   5.770   9.741   7.263
51402SOL     OW55979  10.665  14.246  14.695
51402SOL    HW155980  10.687  14.333  14.661
51402SOL    HW255981  10.597  14.263  14.760
51403SOL     OW55982   4.832   2.533  13.202
51403SOL    HW155983   4.778   2.606  13.232
51403SOL    HW255984   4.880   2.568  13.127
51404SOL     OW55985   2.967   6.733  14.182
51404SOL    HW155986   2.896   6.669  14.183
51404SOL    HW255987   3.036   6.692  14.130
51405SOL     OW55988   6.963  12.829   3.970
51405SOL    HW155989   7.054  12.850   3.990
51405SOL    HW255990   6.915  12.910   3.988
51406SOL     OW55991   0.029   3.720   1.817
51406SOL    HW155992   0.080   3.777   1.759
51406SOL    HW255993   0.084   3.709   1.894
51407SOL     OW55994   4.287   2.334   5.902
51407SOL    HW155995   4.247   2.260   5.949
51407SOL    HW255996   4.362   2.358   5.957
51408SOL     OW55997  11.126  11.726   3.122
51408SOL    HW155998  11.145  11.816   3.096
51408SOL    HW255999  11.040  11.708   3.084
51409SOL     OW56000   7.129  13.134  14.737
51409SOL    HW156001   7.166  13.218  14.708
51409SOL    HW256002   7.113  13.146  14.831
51410SOL     OW56003   5.826   1.908   2.846
51410SOL    HW156004   5.839   1.996   2.883
51410SOL    HW256005   5.793   1.925   2.758
51411SOL     OW56006   2.548  13.152   8.418
51411SOL    HW156007   2.559  13.098   8.497
51411SOL    HW256008   2.555  13.242   8.449
51412SOL     OW56009   3.201   4.198  13.853
51412SOL    HW156010   3.256   4.272  13.830
51412SOL    HW256011   3.112   4.232  13.851
51413SOL     OW56012   8.004   5.350   6.373
51413SOL    HW156013   8.037   5.349   6.463
51413SOL    HW256014   8.053   5.282   6.328
51414SOL     OW56015   4.551   5.933  11.943
51414SOL    HW156016   4.480   5.915  11.882
51414SOL    HW256017   4.622   5.876  11.915
51415SOL     OW56018  10.252   2.596   2.896
51415SOL    HW156019  10.227   2.590   2.988
51415SOL    HW256020  10.190   2.659   2.858
51416SOL     OW56021   1.030   4.582  12.542
51416SOL    HW156022   1.059   4.490  12.547
51416SOL    HW256023   1.079   4.626  12.611
51417SOL     OW56024  10.433   1.844  14.506
51417SOL    HW156025  10.521   1.840  14.468
51417SOL    HW256026  10.445   1.811  14.595
51418SOL     OW56027   4.219   7.390   1.848
51418SOL    HW156028   4.233   7.374   1.755
51418SOL    HW256029   4.131   7.426   1.854
51419SOL     OW56030  11.355  14.008   2.647
51419SOL    HW156031  11.325  14.064   2.717
51419SOL    HW256032  11.313  13.923   2.663
51420SOL     OW56033   0.587   1.040  13.889
51420SOL    HW156034   0.542   1.102  13.831
51420SOL    HW256035   0.630   1.095  13.954
51421SOL     OW56036   1.063   8.271  12.055
51421SOL    HW156037   1.123   8.202  12.026
51421SOL    HW256038   0.984   8.224  12.081
51422SOL     OW56039   5.747   1.669  12.129
51422SOL    HW156040   5.735   1.580  12.096
51422SOL    HW256041   5.772   1.658  12.220
51423SOL     OW56042   6.053   5.750   1.572
51423SOL    HW156043   5.981   5.814   1.570
51423SOL    HW256044   6.016   5.674   1.618
51424SOL     OW56045   8.112   3.347   9.122
51424SOL    HW156046   8.128   3.440   9.135
51424SOL    HW256047   8.059   3.342   9.042
51425SOL     OW56048  11.888  11.306   9.889
51425SOL    HW156049  11.835  11.371   9.934
51425SOL    HW256050  11.965  11.295   9.945
51426SOL     OW56051   2.457  12.177  14.614
51426SOL    HW156052   2.504  12.169  14.532
51426SOL    HW256053   2.391  12.245  14.597
51427SOL     OW56054   5.095   2.948   6.920
51427SOL    HW156055   5.046   2.890   6.978
51427SOL    HW256056   5.051   3.033   6.929
51428SOL     OW56057   0.904   5.928   6.824
51428SOL    HW156058   0.854   5.850   6.799
51428SOL    HW256059   0.953   5.952   6.745
51429SOL     OW56060   8.622   3.710   3.819
51429SOL    HW156061   8.572   3.783   3.784
51429SOL    HW256062   8.643   3.655   3.744
51430SOL     OW56063   9.005   9.007   9.597
51430SOL    HW156064   9.000   8.961   9.513
51430SOL    HW256065   8.971   9.094   9.578
51431SOL     OW56066   7.018  13.799   0.023
51431SOL    HW156067   6.922  13.806   0.025
51431SOL    HW256068   7.048  13.884  14.870
51432SOL     OW56069  10.066   5.216  12.696
51432SOL    HW156070  10.097   5.135  12.656
51432SOL    HW256071   9.974   5.199  12.718
51433SOL     OW56072   2.252   0.104   8.304
51433SOL    HW156073   2.206   0.027   8.273
51433SOL    HW256074   2.325   0.115   8.243
51434SOL     OW56075  10.711   3.053   3.157
51434SOL    HW156076  10.770   2.985   3.127
51434SOL    HW256077  10.769   3.125   3.184
51435SOL     OW56078   6.107   1.200   1.082
51435SOL    HW156079   6.129   1.277   1.029
51435SOL    HW256080   6.018   1.216   1.113
51436SOL     OW56081  14.784  11.214   1.275
51436SOL    HW156082  14.827  11.275   1.215
51436SOL    HW256083  14.718  11.170   1.220
51437SOL     OW56084   5.199   5.733   2.726
51437SOL    HW156085   5.169   5.667   2.665
51437SOL    HW256086   5.268   5.689   2.777
51438SOL     OW56087   2.021  14.480  12.168
51438SOL    HW156088   1.927  14.496  12.158
51438SOL    HW256089   2.038  14.494  12.261
51439SOL     OW56090   4.711   2.834   0.442
51439SOL    HW156091   4.673   2.876   0.520
51439SOL    HW256092   4.795   2.800   0.472
51440SOL     OW56093   0.988  13.806  12.861
51440SOL    HW156094   0.943  13.762  12.934
51440SOL    HW256095   0.937  13.782  12.784
51441SOL     OW56096   2.203  14.665   3.323
51441SOL    HW156097   2.153  14.634   3.248
51441SOL    HW256098   2.221  14.587   3.375
51442SOL     OW56099  14.862  12.031  13.679
51442SOL    HW156100  14.821  11.945  13.665
51442SOL    HW256101  14.805  12.092  13.633
51443SOL     OW56102  13.073   4.933  10.905
51443SOL    HW156103  13.109   4.849  10.877
51443SOL    HW256104  12.979   4.918  10.913
51444SOL     OW56105  14.015   8.451   5.819
51444SOL    HW156106  14.056   8.379   5.771
51444SOL    HW256107  13.971   8.408   5.893
51445SOL     OW56108   8.920  13.418   1.989
51445SOL    HW156109   8.882  13.330   1.989
51445SOL    HW256110   8.942  13.435   2.080
51446SOL     OW56111  13.983  10.988   6.401
51446SOL    HW156112  13.954  10.939   6.478
51446SOL    HW256113  14.041  11.055   6.436
51447SOL     OW56114   5.925  12.739   9.179
51447SOL    HW156115   5.941  12.644   9.179
51447SOL    HW256116   5.835  12.748   9.212
51448SOL     OW56117   2.785   0.945   9.367
51448SOL    HW156118   2.784   0.853   9.342
51448SOL    HW256119   2.877   0.972   9.356
51449SOL     OW56120  12.034  14.308   1.682
51449SOL    HW156121  12.033  14.245   1.753
51449SOL    HW256122  11.948  14.350   1.686
51450SOL     OW56123   6.710   7.134   1.003
51450SOL    HW156124   6.763   7.207   0.972
51450SOL    HW256125   6.638   7.128   0.940
51451SOL     OW56126   9.619  12.569  13.142
51451SOL    HW156127   9.540  12.622  13.150
51451SOL    HW256128   9.691  12.632  13.134
51452SOL     OW56129   4.747   0.321   1.975
51452SOL    HW156130   4.796   0.274   2.043
51452SOL    HW256131   4.701   0.253   1.927
51453SOL     OW56132   6.340   2.848  14.649
51453SOL    HW156133   6.273   2.870  14.585
51453SOL    HW256134   6.317   2.760  14.679
51454SOL     OW56135  11.724   4.383  14.487
51454SOL    HW156136  11.630   4.370  14.503
51454SOL    HW256137  11.738   4.476  14.508
51455SOL     OW56138   8.540   5.743  12.600
51455SOL    HW156139   8.632   5.752  12.624
51455SOL    HW256140   8.516   5.827  12.561
51456SOL     OW56141   5.735   6.097  11.319
51456SOL    HW156142   5.649   6.135  11.301
51456SOL    HW256143   5.753   6.043  11.242
51457SOL     OW56144   3.360   6.155   1.222
51457SOL    HW156145   3.297   6.189   1.159
51457SOL    HW256146   3.379   6.230   1.279
51458SOL     OW56147   0.925  14.210   9.138
51458SOL    HW156148   0.916  14.270   9.212
51458SOL    HW256149   0.854  14.234   9.079
51459SOL     OW56150   3.955   1.530   5.907
51459SOL    HW156151   4.032   1.529   5.851
51459SOL    HW256152   3.909   1.449   5.886
51460SOL     OW56153   4.961   2.650  10.520
51460SOL    HW156154   4.992   2.714  10.456
51460SOL    HW256155   4.871   2.633  10.494
51461SOL     OW56156   4.483   8.424   6.439
51461SOL    HW156157   4.551   8.453   6.500
51461SOL    HW256158   4.530   8.370   6.376
51462SOL     OW56159   5.266   8.564   2.596
51462SOL    HW156160   5.198   8.499   2.576
51462SOL    HW256161   5.321   8.523   2.662
51463SOL     OW56162   5.889  13.048   5.885
51463SOL    HW156163   5.932  13.052   5.970
51463SOL    HW256164   5.959  13.063   5.821
51464SOL     OW56165  13.595   9.947   0.428
51464SOL    HW156166  13.666   9.896   0.467
51464SOL    HW256167  13.562  10.000   0.500
51465SOL     OW56168   8.237  11.655   7.768
51465SOL    HW156169   8.234  11.652   7.864
51465SOL    HW256170   8.180  11.583   7.740
51466SOL     OW56171  13.847   4.902  11.499
51466SOL    HW156172  13.766   4.895  11.450
51466SOL    HW256173  13.822   4.943  11.582
51467SOL     OW56174   1.774   0.372  12.978
51467SOL    HW156175   1.861   0.333  12.985
51467SOL    HW256176   1.729   0.318  12.913
51468SOL     OW56177   1.611   9.753   0.045
51468SOL    HW156178   1.601   9.757   0.140
51468SOL    HW256179   1.683   9.813   0.026
51469SOL     OW56180   8.903  14.019   0.917
51469SOL    HW156181   8.913  14.090   0.981
51469SOL    HW256182   8.809  14.000   0.917
51470SOL     OW56183   3.771   9.762   9.923
51470SOL    HW156184   3.804   9.852   9.929
51470SOL    HW256185   3.849   9.708   9.911
51471SOL     OW56186   2.016   1.730   5.881
51471SOL    HW156187   2.016   1.640   5.914
51471SOL    HW256188   2.102   1.741   5.840
51472SOL     OW56189   5.274  11.974   4.683
51472SOL    HW156190   5.207  12.019   4.631
51472SOL    HW256191   5.291  11.893   4.635
51473SOL     OW56192   9.432  13.137   4.882
51473SOL    HW156193   9.460  13.229   4.885
51473SOL    HW256194   9.355  13.134   4.939
51474SOL     OW56195   7.168   6.707   2.450
51474SOL    HW156196   7.199   6.654   2.524
51474SOL    HW256197   7.078   6.678   2.436
51475SOL     OW56198   2.670   0.796   5.313
51475SOL    HW156199   2.718   0.727   5.359
51475SOL    HW256200   2.629   0.847   5.383
51476SOL     OW56201   0.173   6.588   8.709
51476SOL    HW156202   0.188   6.568   8.616
51476SOL    HW256203   0.107   6.657   8.708
51477SOL     OW56204   8.009   6.302   5.906
51477SOL    HW156205   8.060   6.350   5.842
51477SOL    HW256206   8.057   6.312   5.988
51478SOL     OW56207   1.779  11.292   0.731
51478SOL    HW156208   1.791  11.221   0.794
51478SOL    HW256209   1.817  11.258   0.650
51479SOL     OW56210   0.179   4.042  11.763
51479SOL    HW156211   0.090   4.015  11.785
51479SOL    HW256212   0.184   4.133  11.792
51480SOL     OW56213   2.562  11.683   7.651
51480SOL    HW156214   2.513  11.690   7.569
51480SOL    HW256215   2.641  11.634   7.627
51481SOL     OW56216   8.563   4.884  11.908
51481SOL    HW156217   8.521   4.852  11.828
51481SOL    HW256218   8.533   4.824  11.976
51482SOL     OW56219   1.365   8.086   8.106
51482SOL    HW156220   1.404   8.001   8.123
51482SOL    HW256221   1.272   8.075   8.128
51483SOL     OW56222   6.649   0.900   0.631
51483SOL    HW156223   6.566   0.917   0.587
51483SOL    HW256224   6.644   0.949   0.713
51484SOL     OW56225   8.834   7.446   7.445
51484SOL    HW156226   8.873   7.534   7.445
51484SOL    HW256227   8.759   7.453   7.387
51485SOL     OW56228   0.328  13.194   6.273
51485SOL    HW156229   0.240  13.193   6.309
51485SOL    HW256230   0.318  13.231   6.185
51486SOL     OW56231   4.059   8.396   5.573
51486SOL    HW156232   4.069   8.486   5.604
51486SOL    HW256233   3.986   8.400   5.511
51487SOL     OW56234  14.690  13.661   6.632
51487SOL    HW156235  14.763  13.663   6.570
51487SOL    HW256236  14.617  13.622   6.583
51488SOL     OW56237  13.418  12.147   0.421
51488SOL    HW156238  13.356  12.131   0.493
51488SOL    HW256239  13.378  12.104   0.346
51489SOL     OW56240  12.348   4.903   9.127
51489SOL    HW156241  12.372   4.949   9.208
51489SOL    HW256242  12.430   4.901   9.077
51490SOL     OW56243  12.593   0.627  12.208
51490SOL    HW156244  12.596   0.531  12.212
51490SOL    HW256245  12.648   0.656  12.281
51491SOL     OW56246   3.650   1.704   5.622
51491SOL    HW156247   3.631   1.709   5.716
51491SOL    HW256248   3.567   1.679   5.582
51492SOL     OW56249  12.101   6.792  12.270
51492SOL    HW156250  12.019   6.744  12.275
51492SOL    HW256251  12.169   6.726  12.287
51493SOL     OW56252   4.322  11.408   0.462
51493SOL    HW156253   4.226  11.410   0.464
51493SOL    HW256254   4.348  11.500   0.466
51494SOL     OW56255   3.268   5.153  11.917
51494SOL    HW156256   3.349   5.117  11.882
51494SOL    HW256257   3.201   5.088  11.896
51495SOL     OW56258  10.597  14.497   2.331
51495SOL    HW156259  10.539  14.558   2.285
51495SOL    HW256260  10.670  14.484   2.271
51496SOL     OW56261   2.568  13.655  12.442
51496SOL    HW156262   2.601  13.740  12.411
51496SOL    HW256263   2.524  13.617  12.366
51497SOL     OW56264  11.204  12.675  14.834
51497SOL    HW156265  11.259  12.630  14.769
51497SOL    HW256266  11.114  12.658  14.805
51498SOL     OW56267   2.383   8.593   4.343
51498SOL    HW156268   2.326   8.664   4.313
51498SOL    HW256269   2.329   8.543   4.404
51499SOL     OW56270  12.060   4.733  11.493
51499SOL    HW156271  12.030   4.799  11.430
51499SOL    HW256272  12.138   4.771  11.533
51500SOL     OW56273   3.550   7.058  12.809
51500SOL    HW156274   3.518   7.042  12.720
51500SOL    HW256275   3.511   6.988  12.861
51501SOL     OW56276   9.121   2.047   6.492
51501SOL    HW156277   9.153   2.138   6.495
51501SOL    HW256278   9.036   2.053   6.448
51502SOL     OW56279   7.035   6.950   0.635
51502SOL    HW156280   7.033   7.008   0.558
51502SOL    HW256281   7.103   6.987   0.691
51503SOL     OW56282   7.979   0.712   3.214
51503SOL    HW156283   7.975   0.757   3.130
51503SOL    HW256284   8.065   0.733   3.249
51504SOL     OW56285   6.611   2.308   8.307
51504SOL    HW156286   6.613   2.373   8.377
51504SOL    HW256287   6.523   2.271   8.310
51505SOL     OW56288  11.055   3.683   4.073
51505SOL    HW156289  11.074   3.706   4.164
51505SOL    HW256290  11.083   3.592   4.065
51506SOL     OW56291   4.582   8.366   4.853
51506SOL    HW156292   4.641   8.412   4.794
51506SOL    HW256293   4.560   8.430   4.920
51507SOL     OW56294  13.465   6.668   6.940
51507SOL    HW156295  13.531   6.632   6.999
51507SOL    HW256296  13.388   6.681   6.995
51508SOL     OW56297   5.699   6.864  12.393
51508SOL    HW156298   5.787   6.887  12.364
51508SOL    HW256299   5.682   6.779  12.353
51509SOL     OW56300  12.458   5.776  11.004
51509SOL    HW156301  12.515   5.701  10.993
51509SOL    HW256302  12.449   5.786  11.099
51510SOL     OW56303   9.656  10.533  10.603
51510SOL    HW156304   9.611  10.593  10.543
51510SOL    HW256305   9.722  10.490  10.549
51511SOL     OW56306   9.157   9.650   3.422
51511SOL    HW156307   9.155   9.578   3.359
51511SOL    HW256308   9.162   9.607   3.507
51512SOL     OW56309   6.469  14.146   2.692
51512SOL    HW156310   6.549  14.135   2.743
51512SOL    HW256311   6.404  14.177   2.755
51513SOL     OW56312   9.967  12.156  14.495
51513SOL    HW156313  10.002  12.140  14.582
51513SOL    HW256314   9.995  12.080  14.443
51514SOL     OW56315   6.390  10.082  13.508
51514SOL    HW156316   6.318  10.131  13.468
51514SOL    HW256317   6.451  10.150  13.537
51515SOL     OW56318   9.290  10.191  14.620
51515SOL    HW156319   9.297  10.242  14.540
51515SOL    HW256320   9.336  10.242  14.686
51516SOL     OW56321   8.392  13.293   0.778
51516SOL    HW156322   8.394  13.219   0.839
51516SOL    HW256323   8.399  13.253   0.691
51517SOL     OW56324   1.743  14.854   5.196
51517SOL    HW156325   1.697  14.844   5.279
51517SOL    HW256326   1.830  14.815   5.212
51518SOL     OW56327   0.292  13.646  14.483
51518SOL    HW156328   0.254  13.676  14.565
51518SOL    HW256329   0.351  13.575  14.508
51519SOL     OW56330   8.069  11.992   3.756
51519SOL    HW156331   8.017  11.922   3.794
51519SOL    HW256332   8.160  11.963   3.766
51520SOL     OW56333   7.557  11.930  11.339
51520SOL    HW156334   7.474  11.956  11.299
51520SOL    HW256335   7.608  11.893  11.267
51521SOL     OW56336  12.813   9.263  13.336
51521SOL    HW156337  12.883   9.328  13.345
51521SOL    HW256338  12.792   9.237  13.425
51522SOL     OW56339   7.962   1.218  14.035
51522SOL    HW156340   7.932   1.242  14.122
51522SOL    HW256341   7.884   1.227  13.980
51523SOL     OW56342  13.996  12.612   5.754
51523SOL    HW156343  13.912  12.570   5.734
51523SOL    HW256344  14.042  12.614   5.671
51524SOL     OW56345   8.529   7.762   3.889
51524SOL    HW156346   8.565   7.846   3.917
51524SOL    HW256347   8.473   7.735   3.961
51525SOL     OW56348   5.073  10.094   8.254
51525SOL    HW156349   5.156  10.110   8.209
51525SOL    HW256350   5.044  10.181   8.281
51526SOL     OW56351   4.914   2.337   5.403
51526SOL    HW156352   5.007   2.319   5.420
51526SOL    HW256353   4.875   2.342   5.490
51527SOL     OW56354   0.247   4.723   7.099
51527SOL    HW156355   0.315   4.694   7.159
51527SOL    HW256356   0.250   4.819   7.103
51528SOL     OW56357   4.229   1.829   0.381
51528SOL    HW156358   4.183   1.887   0.321
51528SOL    HW256359   4.196   1.851   0.467
51529SOL     OW56360   8.868   6.062   4.235
51529SOL    HW156361   8.880   6.113   4.315
51529SOL    HW256362   8.928   5.988   4.244
51530SOL     OW56363  10.396   3.411  12.517
51530SOL    HW156364  10.375   3.490  12.468
51530SOL    HW256365  10.475   3.433  12.565
51531SOL     OW56366  12.858   8.881   0.987
51531SOL    HW156367  12.858   8.967   0.945
51531SOL    HW256368  12.766   8.858   0.995
51532SOL     OW56369  14.859  14.464   0.430
51532SOL    HW156370  14.852  14.523   0.506
51532SOL    HW256371  14.779  14.412   0.433
51533SOL     OW56372   1.741   0.183  12.415
51533SOL    HW156373   1.670   0.150  12.471
51533SOL    HW256374   1.764   0.108  12.359
51534SOL     OW56375   0.648   9.148   8.885
51534SOL    HW156376   0.589   9.221   8.868
51534SOL    HW256377   0.663   9.150   8.979
51535SOL     OW56378   6.393   4.677   1.699
51535SOL    HW156379   6.397   4.694   1.793
51535SOL    HW256380   6.484   4.668   1.673
51536SOL     OW56381   4.788   3.426  11.022
51536SOL    HW156382   4.858   3.468  10.972
51536SOL    HW256383   4.824   3.341  11.047
51537SOL     OW56384   1.438  12.251   3.116
51537SOL    HW156385   1.506  12.189   3.141
51537SOL    HW256386   1.391  12.269   3.197
51538SOL     OW56387   0.809   3.456  11.936
51538SOL    HW156388   0.777   3.388  11.995
51538SOL    HW256389   0.881   3.497  11.983
51539SOL     OW56390  12.767  11.384   1.141
51539SOL    HW156391  12.769  11.434   1.059
51539SOL    HW256392  12.789  11.295   1.116
51540SOL     OW56393   6.896   2.396  11.239
51540SOL    HW156394   6.927   2.418  11.151
51540SOL    HW256395   6.949   2.320  11.265
51541SOL     OW56396   1.990  10.759   3.914
51541SOL    HW156397   1.915  10.739   3.971
51541SOL    HW256398   2.037  10.676   3.908
51542SOL     OW56399   1.124   4.656   0.497
51542SOL    HW156400   1.194   4.591   0.492
51542SOL    HW256401   1.160   4.734   0.455
51543SOL     OW56402  13.151   4.990   3.147
51543SOL    HW156403  13.238   4.978   3.109
51543SOL    HW256404  13.136   4.911   3.199
51544SOL     OW56405  10.940  14.304  14.010
51544SOL    HW156406  10.982  14.383  13.975
51544SOL    HW256407  10.981  14.290  14.095
51545SOL     OW56408  11.042  14.863  12.731
51545SOL    HW156409  10.947  14.859  12.743
51545SOL    HW256410  11.066  14.776  12.699
51546SOL     OW56411   0.947  10.403  10.979
51546SOL    HW156412   0.870  10.394  11.035
51546SOL    HW256413   0.920  10.462  10.909
51547SOL     OW56414   2.421   4.452  11.314
51547SOL    HW156415   2.442   4.398  11.238
51547SOL    HW256416   2.474   4.531  11.303
51548SOL     OW56417   2.098   7.958  13.262
51548SOL    HW156418   2.063   8.028  13.207
51548SOL    HW256419   2.120   8.001  13.345
51549SOL     OW56420   5.307  12.199   1.344
51549SOL    HW156421   5.217  12.220   1.320
51549SOL    HW256422   5.353  12.283   1.338
51550SOL     OW56423   1.568  10.090   8.663
51550SOL    HW156424   1.571  10.174   8.616
51550SOL    HW256425   1.587  10.025   8.595
51551SOL     OW56426   7.186  14.386   0.593
51551SOL    HW156427   7.195  14.333   0.672
51551SOL    HW256428   7.263  14.443   0.593
51552SOL     OW56429   3.730   4.437   9.791
51552SOL    HW156430   3.718   4.410   9.882
51552SOL    HW256431   3.676   4.376   9.741
51553SOL     OW56432  12.287  11.666   5.564
51553SOL    HW156433  12.357  11.612   5.600
51553SOL    HW256434  12.208  11.633   5.606
51554SOL     OW56435   4.743   0.606   9.190
51554SOL    HW156436   4.739   0.516   9.221
51554SOL    HW256437   4.746   0.659   9.270
51555SOL     OW56438   5.420  12.581   9.932
51555SOL    HW156439   5.341  12.619   9.893
51555SOL    HW256440   5.472  12.656   9.959
51556SOL     OW56441   8.759  13.605  11.476
51556SOL    HW156442   8.786  13.652  11.397
51556SOL    HW256443   8.840  13.595  11.526
51557SOL     OW56444   6.478   1.563   4.526
51557SOL    HW156445   6.471   1.650   4.488
51557SOL    HW256446   6.459   1.503   4.454
51558SOL     OW56447   1.684   2.411   0.196
51558SOL    HW156448   1.756   2.357   0.162
51558SOL    HW256449   1.668   2.378   0.284
51559SOL     OW56450   4.064   8.515   1.283
51559SOL    HW156451   4.090   8.486   1.370
51559SOL    HW256452   4.073   8.610   1.285
51560SOL     OW56453  12.124   0.077   1.623
51560SOL    HW156454  12.138   0.147   1.559
51560SOL    HW256455  12.048   0.105   1.673
51561SOL     OW56456   0.214   3.144  12.440
51561SOL    HW156457   0.150   3.118  12.373
51561SOL    HW256458   0.249   3.228  12.408
51562SOL     OW56459   1.342  14.385  11.205
51562SOL    HW156460   1.380  14.310  11.160
51562SOL    HW256461   1.273  14.348  11.260
51563SOL     OW56462  13.859   1.013   3.796
51563SOL    HW156463  13.845   1.108   3.790
51563SOL    HW256464  13.817   0.988   3.878
51564SOL     OW56465   7.317   2.407   0.134
51564SOL    HW156466   7.277   2.494   0.136
51564SOL    HW256467   7.349   2.397   0.045
51565SOL     OW56468   5.273  12.368   3.459
51565SOL    HW156469   5.357  12.401   3.427
51565SOL    HW256470   5.221  12.448   3.473
51566SOL     OW56471  11.563  13.569   6.796
51566SOL    HW156472  11.472  13.598   6.789
51566SOL    HW256473  11.579  13.563   6.890
51567SOL     OW56474   1.124   4.256   7.542
51567SOL    HW156475   1.047   4.201   7.529
51567SOL    HW256476   1.183   4.203   7.595
51568SOL     OW56477   0.842  12.560  14.791
51568SOL    HW156478   0.863  12.471  14.820
51568SOL    HW256479   0.872  12.563  14.700
51569SOL     OW56480  11.583   8.675   8.513
51569SOL    HW156481  11.536   8.615   8.572
51569SOL    HW256482  11.592   8.625   8.432
51570SOL     OW56483   2.064   7.583  13.058
51570SOL    HW156484   2.122   7.587  13.134
51570SOL    HW256485   1.992   7.526  13.086
51571SOL     OW56486   7.922   5.874   9.138
51571SOL    HW156487   7.971   5.956   9.134
51571SOL    HW256488   7.900   5.863   9.231
51572SOL     OW56489  14.109   1.207   9.600
51572SOL    HW156490  14.194   1.189   9.559
51572SOL    HW256491  14.047   1.206   9.527
51573SOL     OW56492   3.636   9.032  14.801
51573SOL    HW156493   3.705   8.968  14.783
51573SOL    HW256494   3.645   9.097  14.731
51574SOL     OW56495   9.524   3.086   2.842
51574SOL    HW156496   9.453   3.071   2.780
51574SOL    HW256497   9.530   3.005   2.893
51575SOL     OW56498   2.460   1.592  12.299
51575SOL    HW156499   2.520   1.530  12.341
51575SOL    HW256500   2.494   1.603  12.211
51576SOL     OW56501  11.398  12.841   4.256
51576SOL    HW156502  11.322  12.814   4.205
51576SOL    HW256503  11.399  12.782   4.331
51577SOL     OW56504  10.446   6.707   6.052
51577SOL    HW156505  10.529   6.749   6.072
51577SOL    HW256506  10.387   6.737   6.121
51578SOL     OW56507  13.219   1.543   9.523
51578SOL    HW156508  13.308   1.562   9.554
51578SOL    HW256509  13.232   1.512   9.433
51579SOL     OW56510   6.772   6.306   3.601
51579SOL    HW156511   6.689   6.291   3.647
51579SOL    HW256512   6.747   6.324   3.511
51580SOL     OW56513  13.130   6.611   1.151
51580SOL    HW156514  13.147   6.688   1.098
51580SOL    HW256515  13.145   6.639   1.241
51581SOL     OW56516   5.946   7.170  12.506
51581SOL    HW156517   5.918   7.190  12.596
51581SOL    HW256518   6.018   7.108  12.516
51582SOL     OW56519  10.567   5.496   1.064
51582SOL    HW156520  10.646   5.535   1.026
51582SOL    HW256521  10.523   5.569   1.107
51583SOL     OW56522   8.623   7.779   1.009
51583SOL    HW156523   8.689   7.712   0.989
51583SOL    HW256524   8.674   7.855   1.037
51584SOL     OW56525   7.652   0.489  12.242
51584SOL    HW156526   7.596   0.549  12.193
51584SOL    HW256527   7.591   0.436  12.293
51585SOL     OW56528   4.667   7.167   9.659
51585SOL    HW156529   4.587   7.121   9.635
51585SOL    HW256530   4.651   7.199   9.748
51586SOL     OW56531  11.986   9.027   2.776
51586SOL    HW156532  11.962   8.974   2.852
51586SOL    HW256533  11.979   9.118   2.805
51587SOL     OW56534   1.301  14.843  13.099
51587SOL    HW156535   1.385  14.872  13.066
51587SOL    HW256536   1.310  14.846  13.194
51588SOL     OW56537   7.163   5.728   4.066
51588SOL    HW156538   7.165   5.814   4.108
51588SOL    HW256539   7.250   5.718   4.028
51589SOL     OW56540   7.360   0.420   0.358
51589SOL    HW156541   7.264   0.424   0.353
51589SOL    HW256542   7.378   0.378   0.442
51590SOL     OW56543   1.402   6.726   0.787
51590SOL    HW156544   1.401   6.817   0.755
51590SOL    HW256545   1.310   6.705   0.803
51591SOL     OW56546   5.680   8.618  13.175
51591SOL    HW156547   5.769   8.651  13.181
51591SOL    HW256548   5.630   8.670  13.238
51592SOL     OW56549  12.793  11.324   8.327
51592SOL    HW156550  12.845  11.251   8.360
51592SOL    HW256551  12.772  11.375   8.405
51593SOL     OW56552   8.092  12.303  14.189
51593SOL    HW156553   8.081  12.249  14.111
51593SOL    HW256554   8.178  12.279  14.224
51594SOL     OW56555  11.189   0.429   4.046
51594SOL    HW156556  11.257   0.480   4.089
51594SOL    HW256557  11.234   0.350   4.016
51595SOL     OW56558   9.352   4.471   9.365
51595SOL    HW156559   9.374   4.534   9.435
51595SOL    HW256560   9.435   4.455   9.321
51596SOL     OW56561   0.622  12.253  11.032
51596SOL    HW156562   0.659  12.171  11.065
51596SOL    HW256563   0.545  12.227  10.981
51597SOL     OW56564   3.654   5.897   2.754
51597SOL    HW156565   3.642   5.968   2.690
51597SOL    HW256566   3.747   5.898   2.774
51598SOL     OW56567   2.735   0.601   0.620
51598SOL    HW156568   2.823   0.621   0.588
51598SOL    HW256569   2.676   0.637   0.553
51599SOL     OW56570  14.208  13.755   3.688
51599SOL    HW156571  14.185  13.793   3.603
51599SOL    HW256572  14.299  13.781   3.702
51600SOL     OW56573   5.216   2.441   3.458
51600SOL    HW156574   5.206   2.348   3.438
51600SOL    HW256575   5.264   2.477   3.384
51601SOL     OW56576  11.887   5.171   7.418
51601SOL    HW156577  11.825   5.139   7.352
51601SOL    HW256578  11.840   5.241   7.463
51602SOL     OW56579   7.971   5.913  12.809
51602SOL    HW156580   7.981   6.007  12.820
51602SOL    HW256581   7.998   5.876  12.893
51603SOL     OW56582  11.961  11.528  12.141
51603SOL    HW156583  11.945  11.603  12.197
51603SOL    HW256584  11.986  11.458  12.201
51604SOL     OW56585   6.167   7.749  13.173
51604SOL    HW156586   6.096   7.810  13.194
51604SOL    HW256587   6.139   7.666  13.211
51605SOL     OW56588   1.115   1.210  10.848
51605SOL    HW156589   1.104   1.149  10.921
51605SOL    HW256590   1.119   1.154  10.770
51606SOL     OW56591   5.248  10.883   9.127
51606SOL    HW156592   5.251  10.788   9.112
51606SOL    HW256593   5.292  10.920   9.051
51607SOL     OW56594   9.741   2.613   3.238
51607SOL    HW156595   9.801   2.674   3.196
51607SOL    HW256596   9.687   2.667   3.295
51608SOL     OW56597   9.744   4.684   4.318
51608SOL    HW156598   9.693   4.603   4.322
51608SOL    HW256599   9.710   4.731   4.242
51609SOL     OW56600   6.173  12.444   3.574
51609SOL    HW156601   6.088  12.426   3.613
51609SOL    HW256602   6.227  12.476   3.647
51610SOL     OW56603   0.883   8.994  11.930
51610SOL    HW156604   0.888   8.904  11.899
51610SOL    HW256605   0.940   9.043  11.870
51611SOL     OW56606  10.190   3.500  13.789
51611SOL    HW156607  10.276   3.471  13.758
51611SOL    HW256608  10.128   3.441  13.746
51612SOL     OW56609   0.025  14.267   7.250
51612SOL    HW156610  14.812  14.254   7.277
51612SOL    HW256611   0.061  14.178   7.247
51613SOL     OW56612   1.020   4.130   4.174
51613SOL    HW156613   1.086   4.106   4.110
51613SOL    HW256614   0.990   4.047   4.211
51614SOL     OW56615   6.640   0.955  12.540
51614SOL    HW156616   6.722   0.999  12.563
51614SOL    HW256617   6.573   1.005  12.584
51615SOL     OW56618   3.918   1.139   3.832
51615SOL    HW156619   3.988   1.111   3.890
51615SOL    HW256620   3.916   1.072   3.763
51616SOL     OW56621   8.179   3.484  12.360
51616SOL    HW156622   8.162   3.533  12.280
51616SOL    HW256623   8.167   3.393  12.336
51617SOL     OW56624   1.153   3.682  14.596
51617SOL    HW156625   1.088   3.665  14.528
51617SOL    HW256626   1.144   3.775  14.615
51618SOL     OW56627   8.377   2.182  11.646
51618SOL    HW156628   8.412   2.092  11.647
51618SOL    HW256629   8.346   2.196  11.735
51619SOL     OW56630   0.783   2.406   3.600
51619SOL    HW156631   0.804   2.313   3.602
51619SOL    HW256632   0.847   2.444   3.541
51620SOL     OW56633   9.538   9.115   4.008
51620SOL    HW156634   9.509   9.037   4.056
51620SOL    HW256635   9.602   9.082   3.944
51621SOL     OW56636   6.096   9.996   8.492
51621SOL    HW156637   6.038  10.030   8.560
51621SOL    HW256638   6.161   9.944   8.538
51622SOL     OW56639   0.781   4.762   1.012
51622SOL    HW156640   0.794   4.691   0.949
51622SOL    HW256641   0.852   4.823   0.995
51623SOL     OW56642   3.630   1.776   4.623
51623SOL    HW156643   3.717   1.804   4.595
51623SOL    HW256644   3.582   1.858   4.637
51624SOL     OW56645   2.492   2.701  12.411
51624SOL    HW156646   2.446   2.768  12.461
51624SOL    HW256647   2.465   2.715  12.320
51625SOL     OW56648   2.458  13.834   0.108
51625SOL    HW156649   2.415  13.768   0.163
51625SOL    HW256650   2.434  13.918   0.148
51626SOL     OW56651   4.365  14.878   6.433
51626SOL    HW156652   4.314   0.046   6.367
51626SOL    HW256653   4.423  14.820   6.383
51627SOL     OW56654   6.082   7.133   6.152
51627SOL    HW156655   6.128   7.129   6.068
51627SOL    HW256656   6.144   7.177   6.211
51628SOL     OW56657   7.449  11.627   6.165
51628SOL    HW156658   7.455  11.569   6.089
51628SOL    HW256659   7.355  11.637   6.180
51629SOL     OW56660   1.525  10.966   7.581
51629SOL    HW156661   1.619  10.985   7.586
51629SOL    HW256662   1.505  10.968   7.487
51630SOL     OW56663   7.488   9.129   2.209
51630SOL    HW156664   7.465   9.045   2.249
51630SOL    HW256665   7.408   9.159   2.166
51631SOL     OW56666  13.162  11.342   8.162
51631SOL    HW156667  13.078  11.384   8.177
51631SOL    HW256668  13.150  11.292   8.081
51632SOL     OW56669   9.002   9.385   6.550
51632SOL    HW156670   8.968   9.299   6.575
51632SOL    HW256671   8.925   9.440   6.542
51633SOL     OW56672   0.833   5.576   3.344
51633SOL    HW156673   0.850   5.622   3.426
51633SOL    HW256674   0.917   5.535   3.322
51634SOL     OW56675  13.209  13.539   5.863
51634SOL    HW156676  13.148  13.524   5.935
51634SOL    HW256677  13.245  13.626   5.880
51635SOL     OW56678   7.570   7.701   4.507
51635SOL    HW156679   7.548   7.792   4.530
51635SOL    HW256680   7.665   7.695   4.520
51636SOL     OW56681  13.708   5.515   5.815
51636SOL    HW156682  13.756   5.455   5.871
51636SOL    HW256683  13.752   5.508   5.730
51637SOL     OW56684   1.472   6.225   9.309
51637SOL    HW156685   1.493   6.180   9.391
51637SOL    HW256686   1.529   6.184   9.244
51638SOL     OW56687   0.144   4.203   0.106
51638SOL    HW156688   0.128   4.176   0.016
51638SOL    HW256689   0.162   4.121   0.152
51639SOL     OW56690   9.424   1.842   3.480
51639SOL    HW156691   9.344   1.801   3.445
51639SOL    HW256692   9.394   1.897   3.552
51640SOL     OW56693   6.729   5.480   4.995
51640SOL    HW156694   6.766   5.525   4.919
51640SOL    HW256695   6.734   5.387   4.974
51641SOL     OW56696  11.111   4.608   6.590
51641SOL    HW156697  11.181   4.658   6.633
51641SOL    HW256698  11.148   4.583   6.506
51642SOL     OW56699  11.015  13.263  11.056
51642SOL    HW156700  10.979  13.176  11.039
51642SOL    HW256701  11.010  13.274  11.151
51643SOL     OW56702   8.929   5.821   2.415
51643SOL    HW156703   8.926   5.768   2.494
51643SOL    HW256704   9.008   5.874   2.424
51644SOL     OW56705  10.496   3.537   2.826
51644SOL    HW156706  10.485   3.614   2.882
51644SOL    HW256707  10.589   3.536   2.805
51645SOL     OW56708   0.362   3.481   7.223
51645SOL    HW156709   0.273   3.452   7.205
51645SOL    HW256710   0.405   3.404   7.261
51646SOL     OW56711   0.151   6.077   6.924
51646SOL    HW156712   0.098   6.155   6.942
51646SOL    HW256713   0.242   6.109   6.928
51647SOL     OW56714   8.232  13.648   3.515
51647SOL    HW156715   8.254  13.729   3.561
51647SOL    HW256716   8.317  13.611   3.490
51648SOL     OW56717  14.546   2.651   1.110
51648SOL    HW156718  14.480   2.582   1.104
51648SOL    HW256719  14.498   2.728   1.139
51649SOL     OW56720   1.305   7.412   0.270
51649SOL    HW156721   1.331   7.365   0.349
51649SOL    HW256722   1.314   7.348   0.200
51650SOL     OW56723   4.663  12.804   6.862
51650SOL    HW156724   4.590  12.749   6.891
51650SOL    HW256725   4.689  12.767   6.778
51651SOL     OW56726   9.364   7.981  13.622
51651SOL    HW156727   9.445   8.022  13.592
51651SOL    HW256728   9.343   8.027  13.703
51652SOL     OW56729  10.874   9.528   5.652
51652SOL    HW156730  10.868   9.499   5.561
51652SOL    HW256731  10.963   9.504   5.679
51653SOL     OW56732   2.298   6.097   2.225
51653SOL    HW156733   2.274   6.171   2.281
51653SOL    HW256734   2.237   6.028   2.250
51654SOL     OW56735   1.927   6.878  10.098
51654SOL    HW156736   1.875   6.926  10.163
51654SOL    HW256737   2.006   6.931  10.087
51655SOL     OW56738  14.794   5.711   1.025
51655SOL    HW156739  14.756   5.714   0.937
51655SOL    HW256740   0.003   5.671   1.012
51656SOL     OW56741   7.818   3.519   9.877
51656SOL    HW156742   7.769   3.447   9.915
51656SOL    HW256743   7.901   3.520   9.924
51657SOL     OW56744   8.490  13.473   1.074
51657SOL    HW156745   8.541  13.554   1.072
51657SOL    HW256746   8.453  13.469   1.162
51658SOL     OW56747   7.009   3.186  11.713
51658SOL    HW156748   7.006   3.122  11.784
51658SOL    HW256749   7.101   3.207  11.703
51659SOL     OW56750  12.108   0.588  14.200
51659SOL    HW156751  12.036   0.536  14.236
51659SOL    HW256752  12.107   0.569  14.106
51660SOL     OW56753  10.518   8.700   7.263
51660SOL    HW156754  10.547   8.696   7.355
51660SOL    HW256755  10.515   8.608   7.236
51661SOL     OW56756   1.982  13.487  11.217
51661SOL    HW156757   2.007  13.533  11.297
51661SOL    HW256758   1.949  13.555  11.159
51662SOL     OW56759  11.673  13.736  13.973
51662SOL    HW156760  11.656  13.807  14.035
51662SOL    HW256761  11.765  13.715  13.985
51663SOL     OW56762   6.666   8.437   9.289
51663SOL    HW156763   6.678   8.430   9.195
51663SOL    HW256764   6.577   8.406   9.305
51664SOL     OW56765   0.628   3.054  14.380
51664SOL    HW156766   0.634   3.129  14.321
51664SOL    HW256767   0.693   3.071  14.447
51665SOL     OW56768  14.413   0.599   1.227
51665SOL    HW156769  14.435   0.606   1.320
51665SOL    HW256770  14.395   0.689   1.199
51666SOL     OW56771   4.327   9.942   6.781
51666SOL    HW156772   4.249   9.942   6.836
51666SOL    HW256773   4.357  10.033   6.782
51667SOL     OW56774   5.625   2.565   3.728
51667SOL    HW156775   5.600   2.526   3.645
51667SOL    HW256776   5.665   2.494   3.778
51668SOL     OW56777  14.312   0.299   2.230
51668SOL    HW156778  14.257   0.376   2.246
51668SOL    HW256779  14.367   0.293   2.309
51669SOL     OW56780   4.243   3.323   2.734
51669SOL    HW156781   4.165   3.378   2.720
51669SOL    HW256782   4.236   3.295   2.825
51670SOL     OW56783  14.293  14.313   0.388
51670SOL    HW156784  14.366  14.275   0.339
51670SOL    HW256785  14.215  14.288   0.338
51671SOL     OW56786   1.625   8.301   7.466
51671SOL    HW156787   1.661   8.322   7.380
51671SOL    HW256788   1.533   8.279   7.449
51672SOL     OW56789  12.936   4.045   3.060
51672SOL    HW156790  13.019   4.000   3.051
51672SOL    HW256791  12.892   4.033   2.975
51673SOL     OW56792   4.812   7.002   4.160
51673SOL    HW156793   4.845   6.967   4.243
51673SOL    HW256794   4.877   7.068   4.134
51674SOL     OW56795   4.972  13.258   6.395
51674SOL    HW156796   5.041  13.254   6.461
51674SOL    HW256797   4.891  13.239   6.444
51675SOL     OW56798   9.477   8.878  12.890
51675SOL    HW156799   9.521   8.900  12.808
51675SOL    HW256800   9.522   8.930  12.956
51676SOL     OW56801  11.908   8.386   4.648
51676SOL    HW156802  11.893   8.466   4.700
51676SOL    HW256803  11.885   8.315   4.707
51677SOL     OW56804  11.570   2.855   3.009
51677SOL    HW156805  11.632   2.822   3.074
51677SOL    HW256806  11.487   2.862   3.057
51678SOL     OW56807   5.876   2.687   5.888
51678SOL    HW156808   5.890   2.672   5.794
51678SOL    HW256809   5.833   2.772   5.893
51679SOL     OW56810   9.663   0.421   9.908
51679SOL    HW156811   9.611   0.352   9.950
51679SOL    HW256812   9.727   0.373   9.854
51680SOL     OW56813   0.353   2.713   6.894
51680SOL    HW156814   0.322   2.735   6.982
51680SOL    HW256815   0.300   2.767   6.835
51681SOL     OW56816   5.735  10.322   3.766
51681SOL    HW156817   5.808  10.355   3.818
51681SOL    HW256818   5.675  10.284   3.831
51682SOL     OW56819  14.617  13.541  11.966
51682SOL    HW156820  14.592  13.499  12.049
51682SOL    HW256821  14.700  13.586  11.986
51683SOL     OW56822   4.031   8.049  10.016
51683SOL    HW156823   4.050   8.138   9.987
51683SOL    HW256824   3.987   8.060  10.100
51684SOL     OW56825   2.823  14.285   3.475
51684SOL    HW156826   2.853  14.335   3.551
51684SOL    HW256827   2.747  14.235   3.507
51685SOL     OW56828  10.122   2.650   2.562
51685SOL    HW156829  10.188   2.603   2.614
51685SOL    HW256830  10.172   2.689   2.490
51686SOL     OW56831   5.135  13.329  10.780
51686SOL    HW156832   5.069  13.288  10.836
51686SOL    HW256833   5.180  13.256  10.738
51687SOL     OW56834   7.431  13.912   3.635
51687SOL    HW156835   7.453  13.925   3.727
51687SOL    HW256836   7.339  13.886   3.635
51688SOL     OW56837   0.692   4.821   8.171
51688SOL    HW156838   0.636   4.813   8.248
51688SOL    HW256839   0.684   4.913   8.145
51689SOL     OW56840   2.608   5.275   6.194
51689SOL    HW156841   2.620   5.346   6.131
51689SOL    HW256842   2.664   5.204   6.163
51690SOL     OW56843   5.119   9.978  14.237
51690SOL    HW156844   5.158  10.063  14.215
51690SOL    HW256845   5.030   9.999  14.265
51691SOL     OW56846   2.850   0.776   1.907
51691SOL    HW156847   2.779   0.805   1.963
51691SOL    HW256848   2.818   0.694   1.869
51692SOL     OW56849  10.573  13.378   8.257
51692SOL    HW156850  10.491  13.411   8.293
51692SOL    HW256851  10.577  13.414   8.169
51693SOL     OW56852   9.509  11.938  13.172
51693SOL    HW156853   9.565  11.931  13.095
51693SOL    HW256854   9.547  11.876  13.234
51694SOL     OW56855   4.204  13.510   0.344
51694SOL    HW156856   4.250  13.509   0.428
51694SOL    HW256857   4.235  13.432   0.298
51695SOL     OW56858   1.980   2.549   0.546
51695SOL    HW156859   1.932   2.584   0.471
51695SOL    HW256860   2.005   2.627   0.596
51696SOL     OW56861   1.454   8.061  14.356
51696SOL    HW156862   1.441   8.098  14.444
51696SOL    HW256863   1.533   8.104  14.324
51697SOL     OW56864  13.002   0.882   1.816
51697SOL    HW156865  13.098   0.873   1.810
51697SOL    HW256866  12.988   0.975   1.834
51698SOL     OW56867   6.400  12.019   0.776
51698SOL    HW156868   6.419  12.083   0.707
51698SOL    HW256869   6.306  12.028   0.791
51699SOL     OW56870  13.514   9.227  12.995
51699SOL    HW156871  13.439   9.237  12.936
51699SOL    HW256872  13.585   9.198  12.938
51700SOL     OW56873   8.751   0.072  11.022
51700SOL    HW156874   8.794   0.003  10.972
51700SOL    HW256875   8.708   0.126  10.956
51701SOL     OW56876   9.685  10.558   7.317
51701SOL    HW156877   9.639  10.564   7.233
51701SOL    HW256878   9.762  10.505   7.298
51702SOL     OW56879   4.551   4.631   3.891
51702SOL    HW156880   4.580   4.694   3.825
51702SOL    HW256881   4.506   4.563   3.841
51703SOL     OW56882   1.452  13.211   7.865
51703SOL    HW156883   1.378  13.271   7.861
51703SOL    HW256884   1.412  13.124   7.865
51704SOL     OW56885   0.166   0.019  12.848
51704SOL    HW156886   0.136  14.852  12.927
51704SOL    HW256887   0.087   0.030  12.795
51705SOL     OW56888   2.523   5.982   2.372
51705SOL    HW156889   2.452   6.022   2.321
51705SOL    HW256890   2.578   5.939   2.306
51706SOL     OW56891  11.703  11.181   5.029
51706SOL    HW156892  11.661  11.096   5.014
51706SOL    HW256893  11.752  11.198   4.949
51707SOL     OW56894  12.888  14.364   3.236
51707SOL    HW156895  12.816  14.409   3.282
51707SOL    HW256896  12.935  14.434   3.191
51708SOL     OW56897   9.263   0.599   0.799
51708SOL    HW156898   9.176   0.579   0.835
51708SOL    HW256899   9.307   0.514   0.795
51709SOL     OW56900   5.421  10.054  11.326
51709SOL    HW156901   5.451  10.111  11.256
51709SOL    HW256902   5.396  10.113  11.397
51710SOL     OW56903  13.291   3.506   9.668
51710SOL    HW156904  13.218   3.448   9.647
51710SOL    HW256905  13.297   3.566   9.593
51711SOL     OW56906  12.194   8.121  14.769
51711SOL    HW156907  12.285   8.150  14.775
51711SOL    HW256908  12.198   8.042  14.715
51712SOL     OW56909  13.557   1.954   9.146
51712SOL    HW156910  13.508   2.009   9.086
51712SOL    HW256911  13.532   1.985   9.233
51713SOL     OW56912   4.296   7.560   0.443
51713SOL    HW156913   4.328   7.615   0.372
51713SOL    HW256914   4.288   7.473   0.404
51714SOL     OW56915   2.383  12.400   0.055
51714SOL    HW156916   2.419  12.476   0.010
51714SOL    HW256917   2.436  12.326   0.025
51715SOL     OW56918   2.113   5.733   2.054
51715SOL    HW156919   2.103   5.769   2.143
51715SOL    HW256920   2.031   5.688   2.037
51716SOL     OW56921   0.880   6.262  11.055
51716SOL    HW156922   0.848   6.178  11.087
51716SOL    HW256923   0.801   6.317  11.049
51717SOL     OW56924  10.064   3.148   7.591
51717SOL    HW156925  10.060   3.243   7.578
51717SOL    HW256926  10.084   3.137   7.684
51718SOL     OW56927   0.573  13.962   1.080
51718SOL    HW156928   0.619  13.898   1.134
51718SOL    HW256929   0.631  14.038   1.078
51719SOL     OW56930   4.294   0.823  11.067
51719SOL    HW156931   4.360   0.883  11.104
51719SOL    HW256932   4.224   0.821  11.132
51720SOL     OW56933  13.600   0.374   7.510
51720SOL    HW156934  13.694   0.365   7.494
51720SOL    HW256935  13.561   0.378   7.422
51721SOL     OW56936   5.162  11.104  13.165
51721SOL    HW156937   5.213  11.125  13.087
51721SOL    HW256938   5.194  11.165  13.231
51722SOL     OW56939   7.440  14.563  11.500
51722SOL    HW156940   7.455  14.577  11.594
51722SOL    HW256941   7.462  14.647  11.460
51723SOL     OW56942   0.298   2.657   7.779
51723SOL    HW156943   0.288   2.564   7.798
51723SOL    HW256944   0.330   2.660   7.689
51724SOL     OW56945   6.899  10.937   5.727
51724SOL    HW156946   6.890  11.031   5.740
51724SOL    HW256947   6.840  10.898   5.792
51725SOL     OW56948  13.026   0.459   8.974
51725SOL    HW156949  13.095   0.518   9.003
51725SOL    HW256950  13.014   0.399   9.048
51726SOL     OW56951   6.578   9.042   3.448
51726SOL    HW156952   6.483   9.042   3.443
51726SOL    HW256953   6.607   9.049   3.357
51727SOL     OW56954  10.927  12.717  13.277
51727SOL    HW156955  10.965  12.714  13.365
51727SOL    HW256956  10.851  12.775  13.286
51728SOL     OW56957   1.379   4.477   0.242
51728SOL    HW156958   1.298   4.514   0.206
51728SOL    HW256959   1.436   4.553   0.255
51729SOL     OW56960  14.533  11.392  12.119
51729SOL    HW156961  14.577  11.308  12.132
51729SOL    HW256962  14.545  11.411  12.026
51730SOL     OW56963   8.924  11.095   5.302
51730SOL    HW156964   8.988  11.072   5.369
51730SOL    HW256965   8.839  11.073   5.341
51731SOL     OW56966   8.544   5.051   4.405
51731SOL    HW156967   8.535   5.127   4.348
51731SOL    HW256968   8.537   5.086   4.494
51732SOL     OW56969  12.477  12.841  14.376
51732SOL    HW156970  12.544  12.807  14.316
51732SOL    HW256971  12.477  12.936  14.361
51733SOL     OW56972   0.210   8.513   4.249
51733SOL    HW156973   0.219   8.555   4.164
51733SOL    HW256974   0.294   8.527   4.292
51734SOL     OW56975  11.973   6.119  10.483
51734SOL    HW156976  11.908   6.079  10.541
51734SOL    HW256977  12.056   6.109  10.530
51735SOL     OW56978  10.927  12.731   8.543
51735SOL    HW156979  10.946  12.806   8.488
51735SOL    HW256980  10.834  12.713   8.527
51736SOL     OW56981  13.778   0.130   5.949
51736SOL    HW156982  13.770   0.179   5.868
51736SOL    HW256983  13.755   0.040   5.926
51737SOL     OW56984   5.449   5.460   1.008
51737SOL    HW156985   5.398   5.535   0.977
51737SOL    HW256986   5.518   5.498   1.062
51738SOL     OW56987   7.071  11.163  11.528
51738SOL    HW156988   7.039  11.079  11.562
51738SOL    HW256989   7.149  11.182  11.581
51739SOL     OW56990  12.295  12.544   5.769
51739SOL    HW156991  12.383  12.564   5.801
51739SOL    HW256992  12.299  12.566   5.676
51740SOL     OW56993   3.276   6.618   7.122
51740SOL    HW156994   3.186   6.632   7.152
51740SOL    HW256995   3.268   6.552   7.052
51741SOL     OW56996   2.661   5.622   7.751
51741SOL    HW156997   2.752   5.601   7.772
51741SOL    HW256998   2.611   5.546   7.780
51742SOL     OW56999   9.444  10.640   8.926
51742SOL    HW157000   9.441  10.653   9.021
51742SOL    HW257001   9.525  10.591   8.911
51743SOL     OW57002   5.362   0.192   9.777
51743SOL    HW157003   5.304   0.133   9.730
51743SOL    HW257004   5.388   0.257   9.711
51744SOL     OW57005   1.932  13.405   2.664
51744SOL    HW157006   1.960  13.349   2.736
51744SOL    HW257007   1.957  13.493   2.691
51745SOL     OW57008  12.817   2.032  12.665
51745SOL    HW157009  12.826   2.021  12.570
51745SOL    HW257010  12.728   2.066  12.676
51746SOL     OW57011   8.191   1.730   2.384
51746SOL    HW157012   8.102   1.765   2.391
51746SOL    HW257013   8.248   1.806   2.399
51747SOL     OW57014  10.209   3.414   9.211
51747SOL    HW157015  10.196   3.404   9.306
51747SOL    HW257016  10.301   3.391   9.197
51748SOL     OW57017  13.238  11.647  11.178
51748SOL    HW157018  13.178  11.716  11.150
51748SOL    HW257019  13.216  11.633  11.270
51749SOL     OW57020  12.870   2.961  11.750
51749SOL    HW157021  12.799   2.899  11.765
51749SOL    HW257022  12.949   2.909  11.757
51750SOL     OW57023   4.512  11.606   4.334
51750SOL    HW157024   4.542  11.515   4.327
51750SOL    HW257025   4.434  11.602   4.389
51751SOL     OW57026   9.687   2.893   7.321
51751SOL    HW157027   9.627   2.827   7.286
51751SOL    HW257028   9.630   2.954   7.369
51752SOL     OW57029   0.919   7.318   7.984
51752SOL    HW157030   0.827   7.333   8.003
51752SOL    HW257031   0.954   7.280   8.065
51753SOL     OW57032   4.030  14.245   5.451
51753SOL    HW157033   4.000  14.177   5.391
51753SOL    HW257034   4.125  14.249   5.437
51754SOL     OW57035   1.358   4.479   3.053
51754SOL    HW157036   1.290   4.447   2.993
51754SOL    HW257037   1.331   4.567   3.076
51755SOL     OW57038   0.983   1.768  11.750
51755SOL    HW157039   1.056   1.804  11.801
51755SOL    HW257040   0.994   1.673  11.754
51756SOL     OW57041  10.508  10.594   7.260
51756SOL    HW157042  10.425  10.564   7.224
51756SOL    HW257043  10.506  10.689   7.249
51757SOL     OW57044   7.189   8.359   0.819
51757SOL    HW157045   7.123   8.424   0.841
51757SOL    HW257046   7.270   8.391   0.860
51758SOL     OW57047  12.901   2.563  13.566
51758SOL    HW157048  12.882   2.513  13.487
51758SOL    HW257049  12.877   2.653  13.545
51759SOL     OW57050  10.709   6.712  10.075
51759SOL    HW157051  10.636   6.658  10.105
51759SOL    HW257052  10.768   6.651  10.030
51760SOL     OW57053  10.055   3.831   7.512
51760SOL    HW157054  10.033   3.923   7.496
51760SOL    HW257055  10.151   3.829   7.512
51761SOL     OW57056   6.932   3.616   6.693
51761SOL    HW157057   7.010   3.564   6.676
51761SOL    HW257058   6.947   3.698   6.646
51762SOL     OW57059   9.999   9.029  12.193
51762SOL    HW157060   9.908   9.000  12.201
51762SOL    HW257061  10.000   9.086  12.117
51763SOL     OW57062   2.826   8.601  12.816
51763SOL    HW157063   2.827   8.615  12.911
51763SOL    HW257064   2.749   8.547  12.801
51764SOL     OW57065   9.526  11.277   1.003
51764SOL    HW157066   9.573  11.334   0.942
51764SOL    HW257067   9.489  11.337   1.068
51765SOL     OW57068   2.052   8.650  11.284
51765SOL    HW157069   2.069   8.703  11.362
51765SOL    HW257070   2.110   8.575  11.292
51766SOL     OW57071   4.936   3.771   8.105
51766SOL    HW157072   4.872   3.707   8.073
51766SOL    HW257073   5.004   3.719   8.147
51767SOL     OW57074   5.142  10.254   1.265
51767SOL    HW157075   5.209  10.226   1.327
51767SOL    HW257076   5.163  10.206   1.184
51768SOL     OW57077  11.595   9.301   1.803
51768SOL    HW157078  11.540   9.368   1.844
51768SOL    HW257079  11.639   9.346   1.731
51769SOL     OW57080   3.393   2.587   7.560
51769SOL    HW157081   3.354   2.506   7.592
51769SOL    HW257082   3.387   2.581   7.464
51770SOL     OW57083  12.390   2.768   7.164
51770SOL    HW157084  12.303   2.753   7.202
51770SOL    HW257085  12.421   2.849   7.204
51771SOL     OW57086   5.046  13.175   7.187
51771SOL    HW157087   4.996  13.177   7.268
51771SOL    HW257088   5.128  13.220   7.208
51772SOL     OW57089  10.679   1.186  10.582
51772SOL    HW157090  10.721   1.127  10.646
51772SOL    HW257091  10.685   1.138  10.499
51773SOL     OW57092   7.471   5.577   0.861
51773SOL    HW157093   7.449   5.489   0.890
51773SOL    HW257094   7.387   5.624   0.858
51774SOL     OW57095   2.171  13.245  13.423
51774SOL    HW157096   2.094  13.273  13.374
51774SOL    HW257097   2.136  13.193  13.495
51775SOL     OW57098   7.499   3.500  11.278
51775SOL    HW157099   7.501   3.546  11.362
51775SOL    HW257100   7.508   3.570  11.213
51776SOL     OW57101  13.084  14.019   7.458
51776SOL    HW157102  13.145  14.004   7.530
51776SOL    HW257103  13.063  14.112   7.463
51777SOL     OW57104   7.986  13.407  12.421
51777SOL    HW157105   8.053  13.366  12.365
51777SOL    HW257106   8.023  13.492  12.443
51778SOL     OW57107  11.908   3.266   4.841
51778SOL    HW157108  12.001   3.277   4.863
51778SOL    HW257109  11.863   3.274   4.925
51779SOL     OW57110   0.565   9.867   6.544
51779SOL    HW157111   0.628   9.890   6.475
51779SOL    HW257112   0.541   9.776   6.525
51780SOL     OW57113   9.095   6.669  13.464
51780SOL    HW157114   9.074   6.623  13.383
51780SOL    HW257115   9.011   6.677  13.509
51781SOL     OW57116   0.688   9.497  12.250
51781SOL    HW157117   0.733   9.535  12.174
51781SOL    HW257118   0.734   9.415  12.266
51782SOL     OW57119  12.536  13.809  11.198
51782SOL    HW157120  12.491  13.871  11.256
51782SOL    HW257121  12.532  13.725  11.244
51783SOL     OW57122   4.805   4.077  13.553
51783SOL    HW157123   4.764   4.148  13.504
51783SOL    HW257124   4.879   4.050  13.499
51784SOL     OW57125   9.494   9.677   3.265
51784SOL    HW157126   9.452   9.607   3.214
51784SOL    HW257127   9.461   9.758   3.226
51785SOL     OW57128   3.863  11.527   8.298
51785SOL    HW157129   3.898  11.477   8.224
51785SOL    HW257130   3.846  11.614   8.262
51786SOL     OW57131   5.386  14.186  10.267
51786SOL    HW157132   5.327  14.227  10.331
51786SOL    HW257133   5.473  14.192  10.308
51787SOL     OW57134   3.764   9.214   3.938
51787SOL    HW157135   3.760   9.241   3.846
51787SOL    HW257136   3.688   9.158   3.950
51788SOL     OW57137   3.236   9.232   1.469
51788SOL    HW157138   3.148   9.198   1.455
51788SOL    HW257139   3.282   9.212   1.387
51789SOL     OW57140   3.277   0.899   9.084
51789SOL    HW157141   3.208   0.957   9.051
51789SOL    HW257142   3.344   0.958   9.118
51790SOL     OW57143  10.205   7.336   8.237
51790SOL    HW157144  10.241   7.407   8.290
51790SOL    HW257145  10.272   7.269   8.237
51791SOL     OW57146   1.587  11.625   4.562
51791SOL    HW157147   1.617  11.649   4.474
51791SOL    HW257148   1.549  11.705   4.597
51792SOL     OW57149   0.193  12.683  14.419
51792SOL    HW157150   0.142  12.735  14.357
51792SOL    HW257151   0.150  12.698  14.503
51793SOL     OW57152   5.995   4.382  11.638
51793SOL    HW157153   6.026   4.453  11.694
51793SOL    HW257154   6.039   4.397  11.554
51794SOL     OW57155   5.970   9.539  12.536
51794SOL    HW157156   5.911   9.464  12.522
51794SOL    HW257157   5.916   9.615  12.516
51795SOL     OW57158  13.237   9.721   0.663
51795SOL    HW157159  13.267   9.634   0.689
51795SOL    HW257160  13.216   9.765   0.746
51796SOL     OW57161  11.411   6.283   7.887
51796SOL    HW157162  11.374   6.277   7.975
51796SOL    HW257163  11.374   6.364   7.852
51797SOL     OW57164   4.439  12.251  14.345
51797SOL    HW157165   4.346  12.248  14.366
51797SOL    HW257166   4.451  12.182  14.279
51798SOL     OW57167   5.432   3.299   8.449
51798SOL    HW157168   5.395   3.297   8.537
51798SOL    HW257169   5.410   3.385   8.414
51799SOL     OW57170   3.240   0.801   7.828
51799SOL    HW157171   3.198   0.778   7.746
51799SOL    HW257172   3.202   0.742   7.893
51800SOL     OW57173   0.433   6.001  10.074
51800SOL    HW157174   0.473   6.048  10.147
51800SOL    HW257175   0.390   6.068  10.022
51801SOL     OW57176  14.523  14.099  12.892
51801SOL    HW157177  14.582  14.027  12.915
51801SOL    HW257178  14.480  14.121  12.975
51802SOL     OW57179  14.162   1.733   8.366
51802SOL    HW157180  14.157   1.746   8.271
51802SOL    HW257181  14.116   1.651   8.381
51803SOL     OW57182   4.832  12.112  11.188
51803SOL    HW157183   4.742  12.098  11.158
51803SOL    HW257184   4.882  12.126  11.109
51804SOL     OW57185   2.276   7.268   5.095
51804SOL    HW157186   2.228   7.327   5.037
51804SOL    HW257187   2.346   7.231   5.041
51805SOL     OW57188   7.060   9.995   8.569
51805SOL    HW157189   7.113  10.009   8.490
51805SOL    HW257190   7.050   9.900   8.573
51806SOL     OW57191   5.516  13.825   5.125
51806SOL    HW157192   5.579  13.859   5.189
51806SOL    HW257193   5.490  13.740   5.161
51807SOL     OW57194   7.146   4.747   0.715
51807SOL    HW157195   7.207   4.688   0.671
51807SOL    HW257196   7.075   4.760   0.653
51808SOL     OW57197   1.216   5.136   9.907
51808SOL    HW157198   1.124   5.108   9.903
51808SOL    HW257199   1.246   5.133   9.816
51809SOL     OW57200   4.634   1.259   4.462
51809SOL    HW157201   4.651   1.168   4.437
51809SOL    HW257202   4.541   1.272   4.445
51810SOL     OW57203   6.125   0.835  14.060
51810SOL    HW157204   6.062   0.907  14.055
51810SOL    HW257205   6.091   0.777  14.127
51811SOL     OW57206  12.395   8.906  13.313
51811SOL    HW157207  12.435   8.836  13.365
51811SOL    HW257208  12.468   8.961  13.287
51812SOL     OW57209   9.032   6.381   1.458
51812SOL    HW157210   9.096   6.439   1.500
51812SOL    HW257211   9.009   6.318   1.526
51813SOL     OW57212   8.586   6.366   4.047
51813SOL    HW157213   8.497   6.394   4.028
51813SOL    HW257214   8.641   6.439   4.018
51814SOL     OW57215   6.476  11.618   5.935
51814SOL    HW157216   6.486  11.629   5.841
51814SOL    HW257217   6.564  11.629   5.970
51815SOL     OW57218  12.063   0.993   4.965
51815SOL    HW157219  11.969   1.004   4.972
51815SOL    HW257220  12.087   0.941   5.041
51816SOL     OW57221   2.130  10.020  10.834
51816SOL    HW157222   2.057   9.972  10.797
51816SOL    HW257223   2.110  10.112  10.816
51817SOL     OW57224   7.756   2.753   5.264
51817SOL    HW157225   7.738   2.843   5.292
51817SOL    HW257226   7.846   2.737   5.291
51818SOL     OW57227   2.358   3.677   8.172
51818SOL    HW157228   2.404   3.719   8.245
51818SOL    HW257229   2.335   3.590   8.204
51819SOL     OW57230   0.538   7.470   9.371
51819SOL    HW157231   0.480   7.411   9.323
51819SOL    HW257232   0.503   7.558   9.354
51820SOL     OW57233   2.593   0.859  13.872
51820SOL    HW157234   2.689   0.864  13.868
51820SOL    HW257235   2.564   0.902  13.791
51821SOL     OW57236   2.272  10.867  10.395
51821SOL    HW157237   2.196  10.815  10.369
51821SOL    HW257238   2.346  10.827  10.350
51822SOL     OW57239   5.395   4.894   8.575
51822SOL    HW157240   5.475   4.921   8.528
51822SOL    HW257241   5.326   4.947   8.534
51823SOL     OW57242   0.358  12.844  10.510
51823SOL    HW157243   0.429  12.907  10.501
51823SOL    HW257244   0.283  12.887  10.468
51824SOL     OW57245   9.628  10.149   8.805
51824SOL    HW157246   9.605  10.112   8.720
51824SOL    HW257247   9.570  10.103   8.867
51825SOL     OW57248   4.955  13.756   4.864
51825SOL    HW157249   4.864  13.786   4.877
51825SOL    HW257250   4.956  13.719   4.776
51826SOL     OW57251   1.855   2.261  10.458
51826SOL    HW157252   1.774   2.287  10.501
51826SOL    HW257253   1.875   2.334  10.399
51827SOL     OW57254  14.067  14.171  14.710
51827SOL    HW157255  14.048  14.184  14.618
51827SOL    HW257256  14.001  14.224  14.756
51828SOL     OW57257  12.275   4.000   0.359
51828SOL    HW157258  12.186   3.996   0.394
51828SOL    HW257259  12.331   3.986   0.436
51829SOL     OW57260   4.865   9.617   7.587
51829SOL    HW157261   4.890   9.633   7.495
51829SOL    HW257262   4.943   9.642   7.637
51830SOL     OW57263  10.515   5.938   6.044
51830SOL    HW157264  10.423   5.911   6.040
51830SOL    HW257265  10.513   6.022   6.090
51831SOL     OW57266   1.928   2.868   6.232
51831SOL    HW157267   1.919   2.799   6.298
51831SOL    HW257268   1.998   2.924   6.266
51832SOL     OW57269   2.037   8.351   6.645
51832SOL    HW157270   1.949   8.343   6.607
51832SOL    HW257271   2.094   8.306   6.582
51833SOL     OW57272   7.678  10.249  12.697
51833SOL    HW157273   7.720  10.231  12.782
51833SOL    HW257274   7.670  10.162  12.657
51834SOL     OW57275   9.381   0.331  13.615
51834SOL    HW157276   9.325   0.311  13.541
51834SOL    HW257277   9.322   0.363  13.683
51835SOL     OW57278  14.131   0.392   1.980
51835SOL    HW157279  14.172   0.364   2.061
51835SOL    HW257280  14.134   0.488   1.983
51836SOL     OW57281   1.661   8.249  11.483
51836SOL    HW157282   1.601   8.287  11.547
51836SOL    HW257283   1.717   8.322  11.455
51837SOL     OW57284   7.354   0.267  10.841
51837SOL    HW157285   7.339   0.285  10.934
51837SOL    HW257286   7.437   0.220  10.838
51838SOL     OW57287  13.589   2.530   2.780
51838SOL    HW157288  13.504   2.574   2.773
51838SOL    HW257289  13.567   2.438   2.794
51839SOL     OW57290   8.931  11.613   0.897
51839SOL    HW157291   9.005  11.646   0.948
51839SOL    HW257292   8.920  11.522   0.926
51840SOL     OW57293   8.392   7.734  14.499
51840SOL    HW157294   8.472   7.708  14.454
51840SOL    HW257295   8.377   7.664  14.563
51841SOL     OW57296  11.451   3.124   6.246
51841SOL    HW157297  11.538   3.085   6.233
51841SOL    HW257298  11.390   3.055   6.221
51842SOL     OW57299   9.803   8.677  12.227
51842SOL    HW157300   9.810   8.601  12.285
51842SOL    HW257301   9.886   8.680  12.180
51843SOL     OW57302   7.607   2.692   0.519
51843SOL    HW157303   7.667   2.766   0.528
51843SOL    HW257304   7.592   2.662   0.609
51844SOL     OW57305   9.120  12.838   7.546
51844SOL    HW157306   9.090  12.925   7.519
51844SOL    HW257307   9.183  12.813   7.478
51845SOL     OW57308   6.185  10.221  13.408
51845SOL    HW157309   6.149  10.137  13.379
51845SOL    HW257310   6.128  10.286  13.366
51846SOL     OW57311  13.990  14.410   4.249
51846SOL    HW157312  14.013  14.498   4.276
51846SOL    HW257313  13.944  14.422   4.166
51847SOL     OW57314   2.993  11.414   4.581
51847SOL    HW157315   2.993  11.340   4.642
51847SOL    HW257316   2.901  11.426   4.559
51848SOL     OW57317   8.438  11.517   2.041
51848SOL    HW157318   8.472  11.468   2.116
51848SOL    HW257319   8.425  11.451   1.973
51849SOL     OW57320  11.232   5.319   2.329
51849SOL    HW157321  11.187   5.266   2.395
51849SOL    HW257322  11.303   5.362   2.377
51850SOL     OW57323   4.786   5.800  10.172
51850SOL    HW157324   4.836   5.828  10.249
51850SOL    HW257325   4.849   5.753  10.118
51851SOL     OW57326   9.031   6.900  14.400
51851SOL    HW157327   9.020   6.971  14.337
51851SOL    HW257328   9.126   6.891  14.409
51852SOL     OW57329   2.062  13.556   2.985
51852SOL    HW157330   2.136  13.571   3.044
51852SOL    HW257331   2.049  13.461   2.986
51853SOL     OW57332   7.810   4.259   1.422
51853SOL    HW157333   7.730   4.227   1.464
51853SOL    HW257334   7.877   4.197   1.448
51854SOL     OW57335   1.882  14.820   8.287
51854SOL    HW157336   1.843  14.744   8.244
51854SOL    HW257337   1.849   0.018   8.239
51855SOL     OW57338  11.746   3.616  12.284
51855SOL    HW157339  11.757   3.662  12.367
51855SOL    HW257340  11.794   3.669  12.220
51856SOL     OW57341   3.647  13.916   5.718
51856SOL    HW157342   3.667  13.829   5.751
51856SOL    HW257343   3.723  13.940   5.664
51857SOL     OW57344   1.213  10.375   0.298
51857SOL    HW157345   1.303  10.356   0.324
51857SOL    HW257346   1.200  10.467   0.324
51858SOL     OW57347  12.013   2.519   9.661
51858SOL    HW157348  11.938   2.477   9.703
51858SOL    HW257349  12.018   2.480   9.574
51859SOL     OW57350   4.197  11.788   3.532
51859SOL    HW157351   4.176  11.849   3.461
51859SOL    HW257352   4.290  11.767   3.518
51860SOL     OW57353  10.395   1.474  11.724
51860SOL    HW157354  10.482   1.457  11.762
51860SOL    HW257355  10.337   1.480  11.800
51861SOL     OW57356  13.075  10.419   1.327
51861SOL    HW157357  12.992  10.401   1.370
51861SOL    HW257358  13.141  10.413   1.396
51862SOL     OW57359  10.131  10.296  14.401
51862SOL    HW157360  10.198  10.282  14.469
51862SOL    HW257361  10.151  10.383  14.366
51863SOL     OW57362  13.856   7.919   2.270
51863SOL    HW157363  13.778   7.956   2.228
51863SOL    HW257364  13.866   7.969   2.350
51864SOL     OW57365  11.449  10.074  12.711
51864SOL    HW157366  11.491   9.992  12.739
51864SOL    HW257367  11.400  10.050  12.632
51865SOL     OW57368   7.493   7.207   9.770
51865SOL    HW157369   7.419   7.229   9.827
51865SOL    HW257370   7.454   7.199   9.682
51866SOL     OW57371  10.323   9.473   9.042
51866SOL    HW157372  10.371   9.393   9.019
51866SOL    HW257373  10.239   9.464   8.997
51867SOL     OW57374  12.555  13.940   7.759
51867SOL    HW157375  12.555  13.866   7.699
51867SOL    HW257376  12.639  13.983   7.744
51868SOL     OW57377  11.231   2.294   3.431
51868SOL    HW157378  11.224   2.351   3.355
51868SOL    HW257379  11.174   2.335   3.497
51869SOL     OW57380   6.646   4.992   8.401
51869SOL    HW157381   6.656   4.897   8.397
51869SOL    HW257382   6.658   5.022   8.311
51870SOL     OW57383   2.210   2.397   7.133
51870SOL    HW157384   2.291   2.357   7.104
51870SOL    HW257385   2.167   2.426   7.053
51871SOL     OW57386   2.700   8.681  14.106
51871SOL    HW157387   2.678   8.743  14.037
51871SOL    HW257388   2.616   8.649  14.138
51872SOL     OW57389  14.170  13.339   5.520
51872SOL    HW157390  14.230  13.368   5.450
51872SOL    HW257391  14.181  13.404   5.589
51873SOL     OW57392   1.489   4.868   1.523
51873SOL    HW157393   1.480   4.959   1.551
51873SOL    HW257394   1.406   4.848   1.479
51874SOL     OW57395  12.916   5.629   2.969
51874SOL    HW157396  12.937   5.544   3.008
51874SOL    HW257397  12.864   5.674   3.035
51875SOL     OW57398  10.920   6.818   4.457
51875SOL    HW157399  10.917   6.722   4.452
51875SOL    HW257400  10.939   6.837   4.549
51876SOL     OW57401   9.427   4.236  10.121
51876SOL    HW157402   9.364   4.169  10.149
51876SOL    HW257403   9.505   4.220  10.174
51877SOL     OW57404   4.554  13.672   8.381
51877SOL    HW157405   4.612  13.737   8.421
51877SOL    HW257406   4.611  13.598   8.361
51878SOL     OW57407  10.881   4.239   4.728
51878SOL    HW157408  10.791   4.263   4.751
51878SOL    HW257409  10.928   4.245   4.811
51879SOL     OW57410   0.749   8.974  14.807
51879SOL    HW157411   0.707   8.926  14.877
51879SOL    HW257412   0.678   9.019  14.762
51880SOL     OW57413   7.649   5.851   8.012
51880SOL    HW157414   7.615   5.925   7.962
51880SOL    HW257415   7.722   5.886   8.062
51881SOL     OW57416  13.467   5.009   9.525
51881SOL    HW157417  13.477   5.073   9.455
51881SOL    HW257418  13.423   4.935   9.484
51882SOL     OW57419   5.425   5.925   5.313
51882SOL    HW157420   5.519   5.919   5.330
51882SOL    HW257421   5.408   6.018   5.303
51883SOL     OW57422   4.860   0.872   6.389
51883SOL    HW157423   4.897   0.843   6.306
51883SOL    HW257424   4.793   0.936   6.364
51884SOL     OW57425   3.676   7.207   3.449
51884SOL    HW157426   3.736   7.239   3.381
51884SOL    HW257427   3.641   7.126   3.414
51885SOL     OW57428   0.705   6.862   8.921
51885SOL    HW157429   0.740   6.883   8.835
51885SOL    HW257430   0.624   6.814   8.904
51886SOL     OW57431   9.880   9.264   2.288
51886SOL    HW157432   9.970   9.269   2.257
51886SOL    HW257433   9.856   9.172   2.279
51887SOL     OW57434   3.348  13.042  14.289
51887SOL    HW157435   3.391  13.101  14.352
51887SOL    HW257436   3.288  13.098  14.241
51888SOL     OW57437  11.870   8.159  14.191
51888SOL    HW157438  11.928   8.199  14.255
51888SOL    HW257439  11.928   8.118  14.128
51889SOL     OW57440   7.101  14.218  13.468
51889SOL    HW157441   7.167  14.184  13.408
51889SOL    HW257442   7.069  14.141  13.515
51890SOL     OW57443  10.999   3.602   8.169
51890SOL    HW157444  11.061   3.578   8.100
51890SOL    HW257445  11.016   3.541   8.240
51891SOL     OW57446   7.861   1.804   0.318
51891SOL    HW157447   7.948   1.832   0.346
51891SOL    HW257448   7.801   1.859   0.368
51892SOL     OW57449   1.753   7.857  11.226
51892SOL    HW157450   1.814   7.783  11.228
51892SOL    HW257451   1.676   7.823  11.181
51893SOL     OW57452   0.263   1.117   7.094
51893SOL    HW157453   0.352   1.116   7.129
51893SOL    HW257454   0.207   1.097   7.169
51894SOL     OW57455  13.710  14.601   6.826
51894SOL    HW157456  13.803  14.590   6.808
51894SOL    HW257457  13.673  14.513   6.817
51895SOL     OW57458   3.751  10.060   8.917
51895SOL    HW157459   3.835  10.078   8.874
51895SOL    HW257460   3.769   9.986   8.975
51896SOL     OW57461  11.023   9.101  14.681
51896SOL    HW157462  11.074   9.140  14.752
51896SOL    HW257463  10.939   9.080  14.720
51897SOL     OW57464   3.312   3.991  14.612
51897SOL    HW157465   3.292   3.920  14.552
51897SOL    HW257466   3.277   3.961  14.696
51898SOL     OW57467   0.566   9.532   3.264
51898SOL    HW157468   0.552   9.542   3.359
51898SOL    HW257469   0.572   9.622   3.232
51899SOL     OW57470   0.711   2.259  13.729
51899SOL    HW157471   0.754   2.174  13.722
51899SOL    HW257472   0.781   2.319  13.753
51900SOL     OW57473   7.560   2.686   4.187
51900SOL    HW157474   7.514   2.760   4.148
51900SOL    HW257475   7.490   2.629   4.220
51901SOL     OW57476   0.271   6.075   0.632
51901SOL    HW157477   0.321   5.995   0.646
51901SOL    HW257478   0.222   6.089   0.713
51902SOL     OW57479  13.098  14.635   2.118
51902SOL    HW157480  13.090  14.644   2.023
51902SOL    HW257481  13.107  14.725   2.150
51903SOL     OW57482  11.242  13.555   7.244
51903SOL    HW157483  11.228  13.598   7.328
51903SOL    HW257484  11.160  13.508   7.228
51904SOL     OW57485   3.347   6.065   7.411
51904SOL    HW157486   3.252   6.076   7.418
51904SOL    HW257487   3.379   6.151   7.384
51905SOL     OW57488  13.811   2.293   1.863
51905SOL    HW157489  13.776   2.346   1.791
51905SOL    HW257490  13.736   2.244   1.894
51906SOL     OW57491   5.203  10.198  12.811
51906SOL    HW157492   5.245  10.200  12.897
51906SOL    HW257493   5.195  10.104  12.791
51907SOL     OW57494   9.434   4.893  11.706
51907SOL    HW157495   9.354   4.877  11.756
51907SOL    HW257496   9.408   4.956  11.638
51908SOL     OW57497   3.617   8.073   8.870
51908SOL    HW157498   3.645   8.140   8.932
51908SOL    HW257499   3.696   8.021   8.853
51909SOL     OW57500  11.165  11.547   3.712
51909SOL    HW157501  11.082  11.532   3.756
51909SOL    HW257502  11.167  11.641   3.694
51910SOL     OW57503  10.824   1.386  10.649
51910SOL    HW157504  10.765   1.312  10.632
51910SOL    HW257505  10.773   1.445  10.705
51911SOL     OW57506  14.543  12.882   3.058
51911SOL    HW157507  14.562  12.932   3.137
51911SOL    HW257508  14.497  12.945   3.001
51912SOL     OW57509  13.865   1.456   0.439
51912SOL    HW157510  13.905   1.470   0.525
51912SOL    HW257511  13.780   1.417   0.458
51913SOL     OW57512  11.394  11.188   1.252
51913SOL    HW157513  11.377  11.166   1.344
51913SOL    HW257514  11.365  11.110   1.204
51914SOL     OW57515   0.872   9.091  11.181
51914SOL    HW157516   0.897   9.132  11.098
51914SOL    HW257517   0.946   9.107  11.239
51915SOL     OW57518   8.805   4.134   1.014
51915SOL    HW157519   8.818   4.160   1.105
51915SOL    HW257520   8.893   4.115   0.982
51916SOL     OW57521   9.865   9.235  10.806
51916SOL    HW157522   9.912   9.188  10.875
51916SOL    HW257523   9.785   9.265  10.847
51917SOL     OW57524  11.130  12.218  10.992
51917SOL    HW157525  11.168  12.266  11.066
51917SOL    HW257526  11.040  12.250  10.986
51918SOL     OW57527   0.188  14.076   0.308
51918SOL    HW157528   0.105  14.103   0.267
51918SOL    HW257529   0.251  14.076   0.236
51919SOL     OW57530   4.544  14.785  11.866
51919SOL    HW157531   4.576  14.830  11.788
51919SOL    HW257532   4.623  14.770  11.919
51920SOL     OW57533   4.476   3.652   8.914
51920SOL    HW157534   4.394   3.603   8.907
51920SOL    HW257535   4.479   3.704   8.833
51921SOL     OW57536   6.535   1.414   0.334
51921SOL    HW157537   6.519   1.371   0.418
51921SOL    HW257538   6.515   1.506   0.350
51922SOL     OW57539   8.071   3.290   8.853
51922SOL    HW157540   8.116   3.335   8.781
51922SOL    HW257541   7.987   3.264   8.815
51923SOL     OW57542   5.610  13.044   8.765
51923SOL    HW157543   5.619  12.960   8.810
51923SOL    HW257544   5.537  13.031   8.705
51924SOL     OW57545  11.331  12.569   7.561
51924SOL    HW157546  11.418  12.590   7.527
51924SOL    HW257547  11.316  12.632   7.631
51925SOL     OW57548  11.152  10.003  14.080
51925SOL    HW157549  11.059   9.979  14.076
51925SOL    HW257550  11.180   9.976  14.168
51926SOL     OW57551   6.765  12.242   0.729
51926SOL    HW157552   6.837  12.225   0.790
51926SOL    HW257553   6.719  12.158   0.722
51927SOL     OW57554   3.175   4.927   4.797
51927SOL    HW157555   3.196   4.845   4.843
51927SOL    HW257556   3.227   4.923   4.717
51928SOL     OW57557   0.317   7.403   6.545
51928SOL    HW157558   0.367   7.476   6.508
51928SOL    HW257559   0.382   7.351   6.592
51929SOL     OW57560   9.759  14.369   8.160
51929SOL    HW157561   9.714  14.289   8.134
51929SOL    HW257562   9.850  14.355   8.136
51930SOL     OW57563   7.048   9.411  11.639
51930SOL    HW157564   7.118   9.356  11.674
51930SOL    HW257565   7.043   9.485  11.699
51931SOL     OW57566   3.206  10.312  11.077
51931SOL    HW157567   3.180  10.221  11.095
51931SOL    HW257568   3.287  10.304  11.027
51932SOL     OW57569   3.647  14.003  11.678
51932SOL    HW157570   3.695  13.925  11.653
51932SOL    HW257571   3.634  13.994  11.773
51933SOL     OW57572   4.551   3.531   2.616
51933SOL    HW157573   4.539   3.569   2.529
51933SOL    HW257574   4.494   3.453   2.616
51934SOL     OW57575   7.479  10.949  11.570
51934SOL    HW157576   7.571  10.925  11.556
51934SOL    HW257577   7.452  10.991  11.489
51935SOL     OW57578   5.332   3.961  14.590
51935SOL    HW157579   5.258   4.005  14.548
51935SOL    HW257580   5.300   3.936  14.676
51936SOL     OW57581   8.018   1.900   6.985
51936SOL    HW157582   8.021   1.954   7.064
51936SOL    HW257583   8.085   1.833   6.999
51937SOL     OW57584  10.968   8.329   5.148
51937SOL    HW157585  10.959   8.396   5.215
51937SOL    HW257586  11.063   8.314   5.142
51938SOL     OW57587   1.794   5.736   4.222
51938SOL    HW157588   1.772   5.737   4.128
51938SOL    HW257589   1.796   5.828   4.247
51939SOL     OW57590   4.719  11.236   6.706
51939SOL    HW157591   4.650  11.177   6.736
51939SOL    HW257592   4.727  11.302   6.774
51940SOL     OW57593   7.054   8.356   7.126
51940SOL    HW157594   6.995   8.313   7.188
51940SOL    HW257595   7.096   8.425   7.177
51941SOL     OW57596   9.525   3.016   5.743
51941SOL    HW157597   9.615   3.044   5.765
51941SOL    HW257598   9.494   2.974   5.823
51942SOL     OW57599   0.420   3.722   6.763
51942SOL    HW157600   0.439   3.672   6.842
51942SOL    HW257601   0.357   3.667   6.715
51943SOL     OW57602   5.484   2.745   4.657
51943SOL    HW157603   5.520   2.782   4.576
51943SOL    HW257604   5.502   2.651   4.650
51944SOL     OW57605   3.490  14.848   5.805
51944SOL    HW157606   3.549  14.833   5.879
51944SOL    HW257607   3.540  14.820   5.729
51945SOL     OW57608   3.657   6.433  10.099
51945SOL    HW157609   3.717   6.399  10.165
51945SOL    HW257610   3.662   6.528  10.108
51946SOL     OW57611   6.185   3.186   3.393
51946SOL    HW157612   6.214   3.248   3.326
51946SOL    HW257613   6.227   3.217   3.474
51947SOL     OW57614   8.871   9.499   5.298
51947SOL    HW157615   8.857   9.405   5.294
51947SOL    HW257616   8.807   9.531   5.361
51948SOL     OW57617  12.759   1.497   2.316
51948SOL    HW157618  12.814   1.461   2.385
51948SOL    HW257619  12.676   1.450   2.323
51949SOL     OW57620   5.361   4.602   8.609
51949SOL    HW157621   5.269   4.587   8.590
51949SOL    HW257622   5.373   4.697   8.598
51950SOL     OW57623   3.526   4.184   0.147
51950SOL    HW157624   3.438   4.207   0.176
51950SOL    HW257625   3.518   4.095   0.112
51951SOL     OW57626  14.742  10.940  13.626
51951SOL    HW157627  14.797  10.861  13.619
51951SOL    HW257628  14.731  10.952  13.721
51952SOL     OW57629  10.536  11.087   6.156
51952SOL    HW157630  10.596  11.071   6.083
51952SOL    HW257631  10.482  11.009   6.161
51953SOL     OW57632   7.728  13.132  11.916
51953SOL    HW157633   7.684  13.158  11.997
51953SOL    HW257634   7.821  13.135  11.938
51954SOL     OW57635  13.447   5.935   9.835
51954SOL    HW157636  13.540   5.954   9.847
51954SOL    HW257637  13.411   5.930   9.923
51955SOL     OW57638   0.781   0.135   3.155
51955SOL    HW157639   0.773   0.179   3.070
51955SOL    HW257640   0.786   0.042   3.133
51956SOL     OW57641  12.348  11.589   3.040
51956SOL    HW157642  12.359  11.660   3.103
51956SOL    HW257643  12.435  11.576   3.002
51957SOL     OW57644  11.649   5.035   7.323
51957SOL    HW157645  11.564   5.015   7.282
51957SOL    HW257646  11.648   4.986   7.405
51958SOL     OW57647   1.857  14.752   3.491
51958SOL    HW157648   1.948  14.765   3.516
51958SOL    HW257649   1.852  14.660   3.467
51959SOL     OW57650   3.192  14.397  10.286
51959SOL    HW157651   3.270  14.371  10.237
51959SOL    HW257652   3.214  14.484  10.321
51960SOL     OW57653   1.284   1.204  14.790
51960SOL    HW157654   1.356   1.153  14.826
51960SOL    HW257655   1.250   1.255  14.864
51961SOL     OW57656  13.945  11.704   6.223
51961SOL    HW157657  13.919  11.796   6.215
51961SOL    HW257658  13.864  11.659   6.249
51962SOL     OW57659   3.313   8.544   7.965
51962SOL    HW157660   3.354   8.508   8.044
51962SOL    HW257661   3.330   8.638   7.970
51963SOL     OW57662  14.758   7.203   8.978
51963SOL    HW157663  14.700   7.176   9.049
51963SOL    HW257664  14.712   7.175   8.898
51964SOL     OW57665   7.590   3.527   1.353
51964SOL    HW157666   7.647   3.604   1.358
51964SOL    HW257667   7.612   3.487   1.269
51965SOL     OW57668   8.888   6.692   2.119
51965SOL    HW157669   8.955   6.628   2.093
51965SOL    HW257670   8.820   6.683   2.053
51966SOL     OW57671  10.875   0.092   6.393
51966SOL    HW157672  10.937   0.035   6.348
51966SOL    HW257673  10.808   0.033   6.429
51967SOL     OW57674  12.569   3.912   3.434
51967SOL    HW157675  12.640   3.900   3.497
51967SOL    HW257676  12.613   3.939   3.353
51968SOL     OW57677   3.130  10.922   0.413
51968SOL    HW157678   3.055  10.885   0.366
51968SOL    HW257679   3.150  10.857   0.482
51969SOL     OW57680   6.576  14.843  12.946
51969SOL    HW157681   6.544  14.852  13.036
51969SOL    HW257682   6.649   0.027  12.940
51970SOL     OW57683  10.384   6.807   0.596
51970SOL    HW157684  10.301   6.851   0.576
51970SOL    HW257685  10.447   6.845   0.534
51971SOL     OW57686   4.718   7.063   8.365
51971SOL    HW157687   4.664   7.104   8.433
51971SOL    HW257688   4.662   6.995   8.328
51972SOL     OW57689   4.453  13.826  11.693
51972SOL    HW157690   4.470  13.740  11.656
51972SOL    HW257691   4.515  13.884  11.649
51973SOL     OW57692  10.586   6.581   1.319
51973SOL    HW157693  10.603   6.649   1.384
51973SOL    HW257694  10.546   6.626   1.245
51974SOL     OW57695   9.267   5.217   0.388
51974SOL    HW157696   9.178   5.250   0.399
51974SOL    HW257697   9.266   5.173   0.303
51975SOL     OW57698   6.609  11.938   6.174
51975SOL    HW157699   6.676  11.943   6.242
51975SOL    HW257700   6.608  12.025   6.135
51976SOL     OW57701   4.504   1.816   1.768
51976SOL    HW157702   4.490   1.833   1.861
51976SOL    HW257703   4.528   1.901   1.731
51977SOL     OW57704   5.215  12.812   6.978
51977SOL    HW157705   5.155  12.883   6.954
51977SOL    HW257706   5.168  12.765   7.047
51978SOL     OW57707  11.882   8.474   8.488
51978SOL    HW157708  11.918   8.475   8.400
51978SOL    HW257709  11.922   8.550   8.531
51979SOL     OW57710   5.166   7.029   4.117
51979SOL    HW157711   5.182   7.029   4.211
51979SOL    HW257712   5.138   7.119   4.097
51980SOL     OW57713   7.795   5.709  14.425
51980SOL    HW157714   7.766   5.629  14.469
51980SOL    HW257715   7.861   5.680  14.362
51981SOL     OW57716   2.666   9.289  13.084
51981SOL    HW157717   2.651   9.378  13.052
51981SOL    HW257718   2.756   9.291  13.118
51982SOL     OW57719  12.716   1.470   5.743
51982SOL    HW157720  12.723   1.441   5.834
51982SOL    HW257721  12.753   1.558   5.743
51983SOL     OW57722   2.673   1.796   0.683
51983SOL    HW157723   2.603   1.847   0.642
51983SOL    HW257724   2.641   1.780   0.772
51984SOL     OW57725   1.093  13.229   6.040
51984SOL    HW157726   1.061  13.177   6.114
51984SOL    HW257727   1.160  13.286   6.078
51985SOL     OW57728   1.878   0.221   5.167
51985SOL    HW157729   1.906   0.258   5.251
51985SOL    HW257730   1.793   0.181   5.186
51986SOL     OW57731   0.070   9.813   8.886
51986SOL    HW157732   0.009   9.794   8.815
51986SOL    HW257733   0.055   9.744   8.951
51987SOL     OW57734   4.525   2.585  12.912
51987SOL    HW157735   4.592   2.604  12.846
51987SOL    HW257736   4.457   2.537  12.865
51988SOL     OW57737   1.275  13.560   9.024
51988SOL    HW157738   1.362  13.520   9.021
51988SOL    HW257739   1.287  13.639   9.076
51989SOL     OW57740  13.394   7.380   3.789
51989SOL    HW157741  13.470   7.436   3.773
51989SOL    HW257742  13.319   7.432   3.760
51990SOL     OW57743   1.761  12.133  13.616
51990SOL    HW157744   1.670  12.160  13.625
51990SOL    HW257745   1.809  12.187  13.678
51991SOL     OW57746   1.420  13.774   6.936
51991SOL    HW157747   1.409  13.832   7.011
51991SOL    HW257748   1.504  13.731   6.951
51992SOL     OW57749   2.588   5.069  14.338
51992SOL    HW157750   2.671   5.058  14.384
51992SOL    HW257751   2.546   5.144  14.380
51993SOL     OW57752   2.100   3.803   3.538
51993SOL    HW157753   2.086   3.895   3.517
51993SOL    HW257754   2.191   3.787   3.512
51994SOL     OW57755   1.400   1.095  12.580
51994SOL    HW157756   1.357   1.147  12.512
51994SOL    HW257757   1.480   1.142  12.600
51995SOL     OW57758   9.612   4.684  13.300
51995SOL    HW157759   9.576   4.700  13.213
51995SOL    HW257760   9.616   4.771  13.340
51996SOL     OW57761  11.528  11.945   2.085
51996SOL    HW157762  11.515  11.948   2.180
51996SOL    HW257763  11.561  11.857   2.068
51997SOL     OW57764   6.152   3.121   9.591
51997SOL    HW157765   6.153   3.203   9.542
51997SOL    HW257766   6.234   3.078   9.567
51998SOL     OW57767   7.685  14.185  10.159
51998SOL    HW157768   7.675  14.229  10.075
51998SOL    HW257769   7.631  14.236  10.219
51999SOL     OW57770   6.621   4.453  12.882
51999SOL    HW157771   6.534   4.480  12.911
51999SOL    HW257772   6.617   4.457  12.786
52000SOL     OW57773   1.471   4.873   7.299
52000SOL    HW157774   1.482   4.934   7.372
52000SOL    HW257775   1.558   4.835   7.287
52001SOL     OW57776  12.306   7.442  10.207
52001SOL    HW157777  12.389   7.402  10.230
52001SOL    HW257778  12.266   7.465  10.291
52002SOL     OW57779   6.018   2.783  13.812
52002SOL    HW157780   6.080   2.780  13.885
52002SOL    HW257781   5.947   2.724  13.838
52003SOL     OW57782   0.364   0.114   0.977
52003SOL    HW157783   0.269   0.106   0.976
52003SOL    HW257784   0.387   0.137   0.887
52004SOL     OW57785   8.896   5.102   9.673
52004SOL    HW157786   8.884   5.112   9.579
52004SOL    HW257787   8.810   5.074   9.705
52005SOL     OW57788   3.571  13.860   9.512
52005SOL    HW157789   3.610  13.776   9.535
52005SOL    HW257790   3.497  13.869   9.572
52006SOL     OW57791  10.822   4.685   9.669
52006SOL    HW157792  10.844   4.695   9.577
52006SOL    HW257793  10.750   4.747   9.684
52007SOL     OW57794  12.292   2.940   0.187
52007SOL    HW157795  12.333   3.018   0.225
52007SOL    HW257796  12.266   2.968   0.099
52008SOL     OW57797  11.625  12.972   1.970
52008SOL    HW157798  11.629  12.948   1.877
52008SOL    HW257799  11.562  12.911   2.007
52009SOL     OW57800   6.706   9.706   6.607
52009SOL    HW157801   6.624   9.732   6.648
52009SOL    HW257802   6.703   9.743   6.519
52010SOL     OW57803   8.671   1.891   7.958
52010SOL    HW157804   8.682   1.840   7.877
52010SOL    HW257805   8.759   1.925   7.976
52011SOL     OW57806   6.113  10.419   6.640
52011SOL    HW157807   6.182  10.485   6.633
52011SOL    HW257808   6.149  10.343   6.593
52012SOL     OW57809  11.685   5.698   6.651
52012SOL    HW157810  11.619   5.642   6.609
52012SOL    HW257811  11.768   5.653   6.635
52013SOL     OW57812   0.504   6.393  10.360
52013SOL    HW157813   0.526   6.460  10.296
52013SOL    HW257814   0.580   6.391  10.419
52014SOL     OW57815  12.559   6.326   0.978
52014SOL    HW157816  12.483   6.346   1.033
52014SOL    HW257817  12.593   6.244   1.013
52015SOL     OW57818  14.123   9.493   3.057
52015SOL    HW157819  14.168   9.424   3.009
52015SOL    HW257820  14.189   9.561   3.071
52016SOL     OW57821   8.385  14.034   1.426
52016SOL    HW157822   8.295  14.064   1.442
52016SOL    HW257823   8.375  13.954   1.375
52017SOL     OW57824   8.935  13.766   9.915
52017SOL    HW157825   8.896  13.851   9.937
52017SOL    HW257826   8.862  13.714   9.883
52018SOL     OW57827   8.454  12.326   3.986
52018SOL    HW157828   8.396  12.270   4.038
52018SOL    HW257829   8.476  12.273   3.909
52019SOL     OW57830   2.113   0.563   4.368
52019SOL    HW157831   2.164   0.558   4.287
52019SOL    HW257832   2.037   0.507   4.352
52020SOL     OW57833   4.078   5.041  10.628
52020SOL    HW157834   4.168   5.060  10.653
52020SOL    HW257835   4.027   5.112  10.665
52021SOL     OW57836  13.728  10.484   0.016
52021SOL    HW157837  13.814  10.522  14.875
52021SOL    HW257838  13.705  10.436  14.814
52022SOL     OW57839   6.879   4.275  10.250
52022SOL    HW157840   6.967   4.312  10.252
52022SOL    HW257841   6.829   4.328  10.312
52023SOL     OW57842  12.444  11.410   8.587
52023SOL    HW157843  12.539  11.395   8.584
52023SOL    HW257844  12.435  11.505   8.588
52024SOL     OW57845  11.102   6.901   1.952
52024SOL    HW157846  11.173   6.963   1.935
52024SOL    HW257847  11.085   6.860   1.867
52025SOL     OW57848   6.650   6.564  12.946
52025SOL    HW157849   6.590   6.634  12.970
52025SOL    HW257850   6.735   6.607  12.937
52026SOL     OW57851   2.847   8.092   6.155
52026SOL    HW157852   2.919   8.030   6.161
52026SOL    HW257853   2.850   8.140   6.238
52027SOL     OW57854   5.480  11.678   2.317
52027SOL    HW157855   5.543  11.710   2.381
52027SOL    HW257856   5.501  11.727   2.237
52028SOL     OW57857   4.188   4.301   1.071
52028SOL    HW157858   4.273   4.326   1.107
52028SOL    HW257859   4.128   4.306   1.145
52029SOL     OW57860   7.103  14.213   4.085
52029SOL    HW157861   7.177  14.153   4.096
52029SOL    HW257862   7.138  14.299   4.107
52030SOL     OW57863   2.596   9.792   2.022
52030SOL    HW157864   2.558   9.720   1.971
52030SOL    HW257865   2.690   9.775   2.022
52031SOL     OW57866   9.969  11.202   0.251
52031SOL    HW157867   9.925  11.133   0.200
52031SOL    HW257868   9.897  11.258   0.282
52032SOL     OW57869   1.494  11.813   8.054
52032SOL    HW157870   1.572  11.774   8.016
52032SOL    HW257871   1.457  11.866   7.983
52033SOL     OW57872   1.625   3.038  13.711
52033SOL    HW157873   1.592   3.061  13.625
52033SOL    HW257874   1.556   2.985  13.751
52034SOL     OW57875   9.900  11.396   7.238
52034SOL    HW157876   9.910  11.354   7.153
52034SOL    HW257877   9.946  11.480   7.229
52035SOL     OW57878   6.035  13.152  11.097
52035SOL    HW157879   5.946  13.117  11.106
52035SOL    HW257880   6.063  13.125  11.009
52036SOL     OW57881   4.276   5.272   0.337
52036SOL    HW157882   4.229   5.322   0.403
52036SOL    HW257883   4.322   5.338   0.285
52037SOL     OW57884   2.277   1.239   7.964
52037SOL    HW157885   2.344   1.172   7.953
52037SOL    HW257886   2.325   1.321   7.971
52038SOL     OW57887   1.910   1.142   9.399
52038SOL    HW157888   1.864   1.185   9.472
52038SOL    HW257889   1.959   1.213   9.357
52039SOL     OW57890   7.589   7.309   2.871
52039SOL    HW157891   7.520   7.249   2.901
52039SOL    HW257892   7.609   7.279   2.782
52040SOL     OW57893   5.024   6.454   8.326
52040SOL    HW157894   4.978   6.378   8.362
52040SOL    HW257895   4.978   6.473   8.244
52041SOL     OW57896   6.119   8.044  10.369
52041SOL    HW157897   6.113   8.100  10.292
52041SOL    HW257898   6.193   7.986  10.351
52042SOL     OW57899   1.686   2.198  13.506
52042SOL    HW157900   1.646   2.139  13.442
52042SOL    HW257901   1.778   2.170  13.510
52043SOL     OW57902   5.227   6.587   8.232
52043SOL    HW157903   5.160   6.542   8.285
52043SOL    HW257904   5.293   6.613   8.296
52044SOL     OW57905  12.907  14.468   1.147
52044SOL    HW157906  12.945  14.554   1.128
52044SOL    HW257907  12.842  14.455   1.077
52045SOL     OW57908   5.900   7.406   1.791
52045SOL    HW157909   5.812   7.389   1.825
52045SOL    HW257910   5.935   7.475   1.847
52046SOL     OW57911   5.974   3.277   5.184
52046SOL    HW157912   5.950   3.197   5.138
52046SOL    HW257913   5.891   3.322   5.199
52047SOL     OW57914  14.074  12.681  13.463
52047SOL    HW157915  14.059  12.678  13.368
52047SOL    HW257916  14.168  12.669  13.473
52048SOL     OW57917  13.886  13.099   1.345
52048SOL    HW157918  13.828  13.134   1.413
52048SOL    HW257919  13.954  13.166   1.334
52049SOL     OW57920  10.980   5.592   5.056
52049SOL    HW157921  10.981   5.635   4.971
52049SOL    HW257922  10.979   5.665   5.119
52050SOL     OW57923   5.520   6.764  13.596
52050SOL    HW157924   5.489   6.686  13.550
52050SOL    HW257925   5.465   6.835  13.563
52051SOL     OW57926  12.116  12.037   7.145
52051SOL    HW157927  12.041  12.051   7.087
52051SOL    HW257928  12.104  11.950   7.181
52052SOL     OW57929   5.232   1.907   7.188
52052SOL    HW157930   5.291   1.972   7.227
52052SOL    HW257931   5.266   1.823   7.218
52053SOL     OW57932   4.275  12.134  11.425
52053SOL    HW157933   4.296  12.221  11.392
52053SOL    HW257934   4.312  12.074  11.361
52054SOL     OW57935   0.462   1.319  10.119
52054SOL    HW157936   0.390   1.370  10.156
52054SOL    HW257937   0.420   1.262  10.055
52055SOL     OW57938  10.661  14.360  12.208
52055SOL    HW157939  10.749  14.358  12.245
52055SOL    HW257940  10.672  14.399  12.122
52056SOL     OW57941   4.820   7.117   6.527
52056SOL    HW157942   4.897   7.126   6.471
52056SOL    HW257943   4.818   7.198   6.578
52057SOL     OW57944   6.263   7.915   6.465
52057SOL    HW157945   6.212   7.960   6.531
52057SOL    HW257946   6.340   7.970   6.451
52058SOL     OW57947   2.126   5.968  13.711
52058SOL    HW157948   2.188   6.012  13.653
52058SOL    HW257949   2.059   6.033  13.729
52059SOL     OW57950   4.463  13.275   3.638
52059SOL    HW157951   4.436  13.346   3.579
52059SOL    HW257952   4.478  13.201   3.579
52060SOL     OW57953  11.375   2.383   0.207
52060SOL    HW157954  11.356   2.464   0.255
52060SOL    HW257955  11.295   2.332   0.214
52061SOL     OW57956   8.961   0.901   7.233
52061SOL    HW157957   9.025   0.841   7.193
52061SOL    HW257958   8.894   0.912   7.166
52062SOL     OW57959   5.687   5.937   5.711
52062SOL    HW157960   5.625   5.950   5.783
52062SOL    HW257961   5.763   5.896   5.752
52063SOL     OW57962  11.943   4.634   4.028
52063SOL    HW157963  11.928   4.711   4.082
52063SOL    HW257964  12.037   4.635   4.010
52064SOL     OW57965   9.703   7.775  14.526
52064SOL    HW157966   9.776   7.833  14.506
52064SOL    HW257967   9.730   7.727  14.605
52065SOL     OW57968   0.394   1.685   3.897
52065SOL    HW157969   0.385   1.590   3.906
52065SOL    HW257970   0.309   1.720   3.921
52066SOL     OW57971   8.395   1.358  10.049
52066SOL    HW157972   8.369   1.379   9.959
52066SOL    HW257973   8.352   1.424  10.103
52067SOL     OW57974   1.006   9.867  10.464
52067SOL    HW157975   1.077   9.910  10.416
52067SOL    HW257976   0.981   9.930  10.532
52068SOL     OW57977   2.074  11.048   5.362
52068SOL    HW157978   2.157  11.089   5.385
52068SOL    HW257979   2.012  11.121   5.353
52069SOL     OW57980   1.155   0.119   1.500
52069SOL    HW157981   1.220   0.188   1.487
52069SOL    HW257982   1.134   0.088   1.412
52070SOL     OW57983   0.160  10.733   9.463
52070SOL    HW157984   0.228  10.693   9.517
52070SOL    HW257985   0.121  10.801   9.518
52071SOL     OW57986  14.179   9.847  13.472
52071SOL    HW157987  14.267   9.849  13.434
52071SOL    HW257988  14.191   9.879  13.562
52072SOL     OW57989  12.178   2.070   3.290
52072SOL    HW157990  12.167   2.156   3.249
52072SOL    HW257991  12.263   2.075   3.334
52073SOL     OW57992   2.417   9.880  14.584
52073SOL    HW157993   2.416   9.787  14.561
52073SOL    HW257994   2.491   9.916  14.535
52074SOL     OW57995   9.708   7.319   5.236
52074SOL    HW157996   9.612   7.317   5.238
52074SOL    HW257997   9.730   7.339   5.146
52075SOL     OW57998  11.539   4.404  10.748
52075SOL    HW157999  11.548   4.390  10.654
52075SOL    HW258000  11.514   4.496  10.756
52076SOL     OW58001   7.788  11.889   3.096
52076SOL    HW158002   7.866  11.932   3.062
52076SOL    HW258003   7.784  11.916   3.187
52077SOL     OW58004   7.177   2.458   6.275
52077SOL    HW158005   7.226   2.514   6.215
52077SOL    HW258006   7.242   2.426   6.337
52078SOL     OW58007   9.616  13.183   1.889
52078SOL    HW158008   9.658  13.102   1.918
52078SOL    HW258009   9.608  13.235   1.969
52079SOL     OW58010  13.370  14.506   3.674
52079SOL    HW158011  13.369  14.412   3.689
52079SOL    HW258012  13.284  14.536   3.704
52080SOL     OW58013   4.513   2.637  13.541
52080SOL    HW158014   4.552   2.572  13.483
52080SOL    HW258015   4.587   2.681  13.582
52081SOL     OW58016   7.654   2.524   3.936
52081SOL    HW158017   7.748   2.543   3.936
52081SOL    HW258018   7.618   2.576   3.865
52082SOL     OW58019  10.791  12.146  12.923
52082SOL    HW158020  10.881  12.147  12.891
52082SOL    HW258021  10.747  12.080  12.870
52083SOL     OW58022   0.841   4.844   9.010
52083SOL    HW158023   0.758   4.884   9.037
52083SOL    HW258024   0.900   4.858   9.084
52084SOL     OW58025   3.475   2.913   7.851
52084SOL    HW158026   3.388   2.886   7.822
52084SOL    HW258027   3.480   3.006   7.831
52085SOL     OW58028   2.164  12.699  11.531
52085SOL    HW158029   2.195  12.673  11.618
52085SOL    HW258030   2.154  12.794  11.537
52086SOL     OW58031   6.554   4.133   7.263
52086SOL    HW158032   6.481   4.085   7.302
52086SOL    HW258033   6.606   4.065   7.219
52087SOL     OW58034   7.198   7.255  12.872
52087SOL    HW158035   7.241   7.317  12.812
52087SOL    HW258036   7.270   7.199  12.903
52088SOL     OW58037  14.209   1.546   0.784
52088SOL    HW158038  14.256   1.560   0.866
52088SOL    HW258039  14.238   1.460   0.753
52089SOL     OW58040   9.079   5.659   4.750
52089SOL    HW158041   9.106   5.671   4.841
52089SOL    HW258042   9.095   5.566   4.733
52090SOL     OW58043   7.510   5.643   6.758
52090SOL    HW158044   7.447   5.594   6.704
52090SOL    HW258045   7.568   5.685   6.694
52091SOL     OW58046  12.896   6.200  13.286
52091SOL    HW158047  12.906   6.117  13.333
52091SOL    HW258048  12.802   6.214  13.281
52092SOL     OW58049   3.378  14.745  11.401
52092SOL    HW158050   3.437  14.691  11.454
52092SOL    HW258051   3.306  14.768  11.459
52093SOL     OW58052   6.300  12.442   2.768
52093SOL    HW158053   6.227  12.441   2.830
52093SOL    HW258054   6.301  12.531   2.734
52094SOL     OW58055  11.560   6.118  10.255
52094SOL    HW158056  11.576   6.115  10.349
52094SOL    HW258057  11.642   6.086  10.216
52095SOL     OW58058   8.898   2.869   4.204
52095SOL    HW158059   8.891   2.774   4.201
52095SOL    HW258060   8.899   2.891   4.297
52096SOL     OW58061   1.463   5.066   7.048
52096SOL    HW158062   1.511   5.109   6.977
52096SOL    HW258063   1.526   5.003   7.085
52097SOL     OW58064   7.504   3.858   0.712
52097SOL    HW158065   7.436   3.804   0.673
52097SOL    HW258066   7.574   3.797   0.733
52098SOL     OW58067  11.156   3.877   2.031
52098SOL    HW158068  11.081   3.847   1.980
52098SOL    HW258069  11.125   3.957   2.074
52099SOL     OW58070  13.084  14.171  11.654
52099SOL    HW158071  13.150  14.126  11.706
52099SOL    HW258072  13.038  14.101  11.606
52100SOL     OW58073   3.784   7.496  11.670
52100SOL    HW158074   3.773   7.501  11.575
52100SOL    HW258075   3.779   7.403  11.690
52101SOL     OW58076   1.905  12.165  10.220
52101SOL    HW158077   1.915  12.136  10.129
52101SOL    HW258078   1.980  12.128  10.265
52102SOL     OW58079  14.562   7.385  12.189
52102SOL    HW158080  14.470   7.364  12.178
52102SOL    HW258081  14.565   7.448  12.260
52103SOL     OW58082   4.437   9.915  11.084
52103SOL    HW158083   4.511   9.885  11.136
52103SOL    HW258084   4.414  10.000  11.122
52104SOL     OW58085  12.580   5.789  11.288
52104SOL    HW158086  12.490   5.783  11.322
52104SOL    HW258087  12.621   5.707  11.314
52105SOL     OW58088   3.291   3.975  13.679
52105SOL    HW158089   3.245   3.966  13.595
52105SOL    HW258090   3.249   4.051  13.720
52106SOL     OW58091   7.820  11.470   8.452
52106SOL    HW158092   7.784  11.410   8.387
52106SOL    HW258093   7.757  11.467   8.525
52107SOL     OW58094   2.706   3.104  11.676
52107SOL    HW158095   2.754   3.056  11.609
52107SOL    HW258096   2.764   3.177  11.699
52108SOL     OW58097   8.424  12.853   6.429
52108SOL    HW158098   8.393  12.891   6.346
52108SOL    HW258099   8.368  12.777   6.442
52109SOL     OW58100   1.614   7.660   6.733
52109SOL    HW158101   1.558   7.656   6.655
52109SOL    HW258102   1.574   7.727   6.788
52110SOL     OW58103   4.939  14.698  11.070
52110SOL    HW158104   4.973  14.609  11.071
52110SOL    HW258105   4.945  14.727  11.161
52111SOL     OW58106   5.505   8.043   1.044
52111SOL    HW158107   5.512   8.117   0.985
52111SOL    HW258108   5.518   8.080   1.131
52112SOL     OW58109   0.399   6.406  12.079
52112SOL    HW158110   0.367   6.334  12.024
52112SOL    HW258111   0.462   6.365  12.138
52113SOL     OW58112   5.780   3.761  12.181
52113SOL    HW158113   5.736   3.845  12.171
52113SOL    HW258114   5.718   3.706  12.229
52114SOL     OW58115  11.389  12.085   8.683
52114SOL    HW158116  11.303  12.043   8.682
52114SOL    HW258117  11.394  12.127   8.769
52115SOL     OW58118   8.910  13.150  13.985
52115SOL    HW158119   8.902  13.177  14.076
52115SOL    HW258120   8.919  13.232  13.936
52116SOL     OW58121   8.747  11.158   1.950
52116SOL    HW158122   8.696  11.110   2.014
52116SOL    HW258123   8.805  11.093   1.911
52117SOL     OW58124  10.191  10.956  14.540
52117SOL    HW158125  10.242  10.969  14.461
52117SOL    HW258126  10.157  10.867  14.533
52118SOL     OW58127  10.676   8.283  10.178
52118SOL    HW158128  10.637   8.371  10.181
52118SOL    HW258129  10.767   8.298  10.205
52119SOL     OW58130  13.748   8.738   7.781
52119SOL    HW158131  13.785   8.783   7.705
52119SOL    HW258132  13.806   8.664   7.796
52120SOL     OW58133  10.593   2.769   0.642
52120SOL    HW158134  10.666   2.822   0.674
52120SOL    HW258135  10.571   2.806   0.557
52121SOL     OW58136  10.473  13.014   6.720
52121SOL    HW158137  10.437  13.102   6.712
52121SOL    HW258138  10.565  13.023   6.697
52122SOL     OW58139  10.572   4.080  14.623
52122SOL    HW158140  10.556   3.991  14.590
52122SOL    HW258141  10.538   4.138  14.555
52123SOL     OW58142  10.078   2.746  10.104
52123SOL    HW158143  10.064   2.816  10.041
52123SOL    HW258144  10.170   2.722  10.093
52124SOL     OW58145   1.152   0.467   9.008
52124SOL    HW158146   1.236   0.434   8.978
52124SOL    HW258147   1.141   0.550   8.963
52125SOL     OW58148  12.347   9.802   5.828
52125SOL    HW158149  12.420   9.859   5.853
52125SOL    HW258150  12.272   9.837   5.877
52126SOL     OW58151  11.765  11.326   5.247
52126SOL    HW158152  11.723  11.270   5.183
52126SOL    HW258153  11.839  11.366   5.200
52127SOL     OW58154   0.196  10.598  11.285
52127SOL    HW158155   0.286  10.623  11.262
52127SOL    HW258156   0.160  10.561  11.204
52128SOL     OW58157   4.093  14.853  11.103
52128SOL    HW158158   4.009   0.011  11.129
52128SOL    HW258159   4.084  14.758  11.118
52129SOL     OW58160   4.760   1.364   8.353
52129SOL    HW158161   4.708   1.345   8.275
52129SOL    HW258162   4.844   1.395   8.319
52130SOL     OW58163   7.422   1.769  13.400
52130SOL    HW158164   7.348   1.760  13.341
52130SOL    HW258165   7.474   1.840  13.363
52131SOL     OW58166  13.712  14.322   3.565
52131SOL    HW158167  13.648  14.265   3.523
52131SOL    HW258168  13.691  14.409   3.533
52132SOL     OW58169  13.699  12.292   1.635
52132SOL    HW158170  13.623  12.348   1.619
52132SOL    HW258171  13.666  12.224   1.694
52133SOL     OW58172   3.278   7.994  14.191
52133SOL    HW158173   3.351   7.993  14.128
52133SOL    HW258174   3.310   8.047  14.264
52134SOL     OW58175   6.553  12.086   0.374
52134SOL    HW158176   6.466  12.115   0.399
52134SOL    HW258177   6.549  12.075   0.279
52135SOL     OW58178   1.264   6.211   8.450
52135SOL    HW158179   1.274   6.185   8.541
52135SOL    HW258180   1.278   6.131   8.400
52136SOL     OW58181   0.524  14.835  11.952
52136SOL    HW158182   0.491  14.765  11.896
52136SOL    HW258183   0.539   0.031  11.893
52137SOL     OW58184   4.269  13.059  14.518
52137SOL    HW158185   4.257  12.998  14.590
52137SOL    HW258186   4.197  13.122  14.527
52138SOL     OW58187   6.300   3.362   2.648
52138SOL    HW158188   6.358   3.289   2.669
52138SOL    HW258189   6.245   3.371   2.726
52139SOL     OW58190   5.735   2.318  14.495
52139SOL    HW158191   5.681   2.358  14.564
52139SOL    HW258192   5.722   2.223  14.507
52140SOL     OW58193  12.425  10.602   7.954
52140SOL    HW158194  12.433  10.541   7.880
52140SOL    HW258195  12.389  10.682   7.915
52141SOL     OW58196  10.442  10.706  11.872
52141SOL    HW158197  10.435  10.642  11.943
52141SOL    HW258198  10.532  10.740  11.880
52142SOL     OW58199  11.988  11.996   2.278
52142SOL    HW158200  12.022  11.907   2.277
52142SOL    HW258201  12.060  12.050   2.311
52143SOL     OW58202  12.012   5.892   1.144
52143SOL    HW158203  12.069   5.945   1.200
52143SOL    HW258204  11.934   5.876   1.197
52144SOL     OW58205   9.433   4.097   7.928
52144SOL    HW158206   9.390   4.015   7.951
52144SOL    HW258207   9.447   4.091   7.833
52145SOL     OW58208   5.986   1.961   7.714
52145SOL    HW158209   5.930   1.884   7.710
52145SOL    HW258210   6.026   1.958   7.802
52146SOL     OW58211   1.431  11.323   3.099
52146SOL    HW158212   1.445  11.402   3.046
52146SOL    HW258213   1.418  11.253   3.036
52147SOL     OW58214   8.707  12.618   9.021
52147SOL    HW158215   8.728  12.551   8.956
52147SOL    HW258216   8.617  12.598   9.049
52148SOL     OW58217   6.579  10.895   2.646
52148SOL    HW158218   6.667  10.929   2.629
52148SOL    HW258219   6.572  10.818   2.589
52149SOL     OW58220   9.019  14.631   6.652
52149SOL    HW158221   9.065  14.556   6.688
52149SOL    HW258222   9.088  14.691   6.624
52150SOL     OW58223  10.249   3.130  11.642
52150SOL    HW158224  10.335   3.091  11.658
52150SOL    HW258225  10.263   3.190  11.569
52151SOL     OW58226  10.946   3.134   8.255
52151SOL    HW158227  10.996   3.114   8.334
52151SOL    HW258228  10.914   3.223   8.268
52152SOL     OW58229   6.940   3.380   9.018
52152SOL    HW158230   6.920   3.288   9.002
52152SOL    HW258231   7.005   3.402   8.951
52153SOL     OW58232  11.291   0.924  14.413
52153SOL    HW158233  11.238   0.864  14.465
52153SOL    HW258234  11.323   0.871  14.340
52154SOL     OW58235   3.672   5.004  14.538
52154SOL    HW158236   3.639   4.967  14.456
52154SOL    HW258237   3.724   5.079  14.511
52155SOL     OW58238   3.660   0.946  14.579
52155SOL    HW158239   3.689   0.856  14.568
52155SOL    HW258240   3.695   0.993  14.503
52156SOL     OW58241   5.399  11.832   3.083
52156SOL    HW158242   5.382  11.873   3.168
52156SOL    HW258243   5.443  11.750   3.104
52157SOL     OW58244  14.033   5.383   7.131
52157SOL    HW158245  14.077   5.321   7.190
52157SOL    HW258246  14.095   5.455   7.121
52158SOL     OW58247   6.553  14.773   0.084
52158SOL    HW158248   6.512  14.780  14.876
52158SOL    HW258249   6.647  14.770   0.067
52159SOL     OW58250  13.112   1.424   6.932
52159SOL    HW158251  13.063   1.377   6.999
52159SOL    HW258252  13.079   1.389   6.849
52160SOL     OW58253   4.073   3.770   2.913
52160SOL    HW158254   3.991   3.797   2.954
52160SOL    HW258255   4.131   3.751   2.987
52161SOL     OW58256   7.003  14.538  13.993
52161SOL    HW158257   7.056  14.560  14.070
52161SOL    HW258258   7.052  14.469  13.950
52162SOL     OW58259   7.906  13.039  13.582
52162SOL    HW158260   7.905  12.955  13.536
52162SOL    HW258261   7.994  13.045  13.618
52163SOL     OW58262   9.168   8.351  13.341
52163SOL    HW158263   9.144   8.444  13.336
52163SOL    HW258264   9.201   8.330  13.254
52164SOL     OW58265   5.801  12.284  13.783
52164SOL    HW158266   5.872  12.290  13.847
52164SOL    HW258267   5.825  12.210  13.728
52165SOL     OW58268   0.101   9.201  11.180
52165SOL    HW158269   0.165   9.145  11.223
52165SOL    HW258270   0.035   9.141  11.147
52166SOL     OW58271  13.559   6.822   5.371
52166SOL    HW158272  13.652   6.838   5.354
52166SOL    HW258273  13.545   6.858   5.459
52167SOL     OW58274   4.173  10.475   0.663
52167SOL    HW158275   4.183  10.382   0.681
52167SOL    HW258276   4.088  10.498   0.701
52168SOL     OW58277   0.402  10.905   8.152
52168SOL    HW158278   0.338  10.846   8.193
52168SOL    HW258279   0.349  10.967   8.102
52169SOL     OW58280  10.941   9.049   7.304
52169SOL    HW158281  10.988   8.973   7.338
52169SOL    HW258282  10.855   9.016   7.280
52170SOL     OW58283   9.190  12.102   8.162
52170SOL    HW158284   9.270  12.134   8.203
52170SOL    HW258285   9.206  12.010   8.145
52171SOL     OW58286   2.698   6.074  10.739
52171SOL    HW158287   2.646   6.014  10.793
52171SOL    HW258288   2.695   6.036  10.651
52172SOL     OW58289   2.653   0.131  13.141
52172SOL    HW158290   2.622   0.119  13.231
52172SOL    HW258291   2.690   0.220  13.141
52173SOL     OW58292   5.373   3.048  11.543
52173SOL    HW158293   5.423   3.006  11.473
52173SOL    HW258294   5.308   3.101  11.497
52174SOL     OW58295   3.136   1.448  14.382
52174SOL    HW158296   3.176   1.435  14.468
52174SOL    HW258297   3.109   1.360  14.355
52175SOL     OW58298  13.794  12.191   7.142
52175SOL    HW158299  13.778  12.242   7.062
52175SOL    HW258300  13.757  12.245   7.212
52176SOL     OW58301   8.167   9.479  11.880
52176SOL    HW158302   8.242   9.474  11.820
52176SOL    HW258303   8.145   9.572  11.882
52177SOL     OW58304   1.874  14.857   6.544
52177SOL    HW158305   1.804  14.805   6.503
52177SOL    HW258306   1.925  14.793   6.593
52178SOL     OW58307   6.636   6.164   9.304
52178SOL    HW158308   6.561   6.133   9.252
52178SOL    HW258309   6.608   6.249   9.337
52179SOL     OW58310  12.834   6.307   4.008
52179SOL    HW158311  12.799   6.281   4.093
52179SOL    HW258312  12.832   6.227   3.955
52180SOL     OW58313   3.235   0.083   0.907
52180SOL    HW158314   3.319   0.041   0.924
52180SOL    HW258315   3.258   0.165   0.864
52181SOL     OW58316   2.985   4.886   2.608
52181SOL    HW158317   2.954   4.960   2.659
52181SOL    HW258318   2.983   4.917   2.517
52182SOL     OW58319   2.042   3.294  13.971
52182SOL    HW158320   2.083   3.209  13.959
52182SOL    HW258321   2.027   3.326  13.882
52183SOL     OW58322   4.078   5.617   5.662
52183SOL    HW158323   4.003   5.642   5.607
52183SOL    HW258324   4.128   5.557   5.607
52184SOL     OW58325   7.705   0.819  13.201
52184SOL    HW158326   7.635   0.755  13.185
52184SOL    HW258327   7.659   0.899  13.227
52185SOL     OW58328  12.227   9.720   8.823
52185SOL    HW158329  12.257   9.719   8.913
52185SOL    HW258330  12.252   9.807   8.790
52186SOL     OW58331   2.918   1.548   8.947
52186SOL    HW158332   2.931   1.616   9.013
52186SOL    HW258333   2.974   1.575   8.874
52187SOL     OW58334   0.016   4.796   1.144
52187SOL    HW158335  14.848   4.727   1.192
52187SOL    HW258336   0.034   4.758   1.058
52188SOL     OW58337  11.322   6.705  12.933
52188SOL    HW158338  11.366   6.748  13.005
52188SOL    HW258339  11.327   6.767  12.860
52189SOL     OW58340   8.711   4.281  12.995
52189SOL    HW158341   8.712   4.222  12.920
52189SOL    HW258342   8.624   4.322  12.994
52190SOL     OW58343   3.879   2.691   5.523
52190SOL    HW158344   3.950   2.751   5.499
52190SOL    HW258345   3.815   2.701   5.453
52191SOL     OW58346   0.940   0.307   6.966
52191SOL    HW158347   0.945   0.402   6.959
52191SOL    HW258348   0.897   0.291   7.050
52192SOL     OW58349   9.514   0.892  13.249
52192SOL    HW158350   9.587   0.919  13.194
52192SOL    HW258351   9.436   0.914  13.199
52193SOL     OW58352   3.561  12.007  13.749
52193SOL    HW158353   3.571  12.055  13.831
52193SOL    HW258354   3.467  11.997  13.737
52194SOL     OW58355   2.988   8.339   1.979
52194SOL    HW158356   2.959   8.426   2.009
52194SOL    HW258357   3.084   8.342   1.988
52195SOL     OW58358   9.699   9.791   8.559
52195SOL    HW158359   9.635   9.726   8.589
52195SOL    HW258360   9.783   9.746   8.567
52196SOL     OW58361  11.127   2.988   1.010
52196SOL    HW158362  11.123   2.899   0.973
52196SOL    HW258363  11.206   2.988   1.063
52197SOL     OW58364  10.834  14.748   5.801
52197SOL    HW158365  10.823  14.684   5.872
52197SOL    HW258366  10.822  14.833   5.842
52198SOL     OW58367   8.036   1.856   8.281
52198SOL    HW158368   7.989   1.853   8.364
52198SOL    HW258369   8.042   1.949   8.260
52199SOL     OW58370  11.814   9.099   3.679
52199SOL    HW158371  11.752   9.077   3.610
52199SOL    HW258372  11.800   9.193   3.695
52200SOL     OW58373  10.829   8.346  11.245
52200SOL    HW158374  10.846   8.289  11.320
52200SOL    HW258375  10.889   8.314  11.177
52201SOL     OW58376   6.261   2.209   4.490
52201SOL    HW158377   6.322   2.280   4.469
52201SOL    HW258378   6.296   2.172   4.572
52202SOL     OW58379  14.140   0.578   4.228
52202SOL    HW158380  14.160   0.540   4.314
52202SOL    HW258381  14.051   0.550   4.210
52203SOL     OW58382  11.915   7.269   9.067
52203SOL    HW158383  11.942   7.201   9.005
52203SOL    HW258384  11.864   7.331   9.014
52204SOL     OW58385   3.230   2.008  10.252
52204SOL    HW158386   3.213   2.099  10.275
52204SOL    HW258387   3.240   2.009  10.156
52205SOL     OW58388  10.077   0.261  14.303
52205SOL    HW158389  10.062   0.169  14.324
52205SOL    HW258390  10.141   0.260  14.232
52206SOL     OW58391   1.217   4.863   5.580
52206SOL    HW158392   1.274   4.939   5.566
52206SOL    HW258393   1.218   4.816   5.497
52207SOL     OW58394  10.429   8.361   6.526
52207SOL    HW158395  10.428   8.388   6.618
52207SOL    HW258396  10.369   8.286   6.523
52208SOL     OW58397   0.927   4.968   0.308
52208SOL    HW158398   0.856   5.020   0.270
52208SOL    HW258399   0.975   5.030   0.364
52209SOL     OW58400  13.224   8.306  14.442
52209SOL    HW158401  13.255   8.215  14.450
52209SOL    HW258402  13.204   8.316  14.349
52210SOL     OW58403  10.242  13.037  12.667
52210SOL    HW158404  10.273  12.967  12.724
52210SOL    HW258405  10.315  13.099  12.664
52211SOL     OW58406  12.975   4.338  10.100
52211SOL    HW158407  13.010   4.427  10.091
52211SOL    HW258408  12.988   4.298  10.014
52212SOL     OW58409   7.639   3.782  12.360
52212SOL    HW158410   7.661   3.701  12.314
52212SOL    HW258411   7.597   3.754  12.441
52213SOL     OW58412  11.558  14.502   0.301
52213SOL    HW158413  11.500  14.554   0.357
52213SOL    HW258414  11.630  14.561   0.278
52214SOL     OW58415   2.082   9.708   9.069
52214SOL    HW158416   2.112   9.793   9.038
52214SOL    HW258417   2.045   9.725   9.155
52215SOL     OW58418  12.408  11.205   4.298
52215SOL    HW158419  12.503  11.199   4.291
52215SOL    HW258420  12.392  11.290   4.339
52216SOL     OW58421   7.137   1.658   1.631
52216SOL    HW158422   7.232   1.661   1.636
52216SOL    HW258423   7.117   1.680   1.540
52217SOL     OW58424   6.430   2.591   7.481
52217SOL    HW158425   6.416   2.637   7.398
52217SOL    HW258426   6.392   2.504   7.467
52218SOL     OW58427   7.904  12.427  13.150
52218SOL    HW158428   7.859  12.344  13.138
52218SOL    HW258429   7.889  12.449  13.242
52219SOL     OW58430   3.481   3.260  10.809
52219SOL    HW158431   3.441   3.173  10.805
52219SOL    HW258432   3.481   3.282  10.903
52220SOL     OW58433   4.642   2.946  14.430
52220SOL    HW158434   4.564   2.911  14.386
52220SOL    HW258435   4.619   3.036  14.451
52221SOL     OW58436   9.594   8.386   1.414
52221SOL    HW158437   9.637   8.380   1.499
52221SOL    HW258438   9.598   8.297   1.378
52222SOL     OW58439   7.389   0.761   7.985
52222SOL    HW158440   7.356   0.847   8.012
52222SOL    HW258441   7.362   0.753   7.894
52223SOL     OW58442   4.025   9.435   8.629
52223SOL    HW158443   4.081   9.478   8.565
52223SOL    HW258444   3.950   9.495   8.640
52224SOL     OW58445   4.214   0.757  13.070
52224SOL    HW158446   4.144   0.821  13.061
52224SOL    HW258447   4.264   0.764  12.989
52225SOL     OW58448   6.529   9.720   7.916
52225SOL    HW158449   6.614   9.720   7.959
52225SOL    HW258450   6.470   9.760   7.979
52226SOL     OW58451   8.267   7.662   8.287
52226SOL    HW158452   8.205   7.703   8.226
52226SOL    HW258453   8.232   7.574   8.300
52227SOL     OW58454  10.090  12.117   4.119
52227SOL    HW158455  10.153  12.049   4.095
52227SOL    HW258456  10.058  12.152   4.036
52228SOL     OW58457   0.987   8.816   4.293
52228SOL    HW158458   0.912   8.798   4.349
52228SOL    HW258459   0.950   8.866   4.219
52229SOL     OW58460   6.813  11.849  11.414
52229SOL    HW158461   6.724  11.838  11.446
52229SOL    HW258462   6.862  11.777  11.454
52230SOL     OW58463   0.746   8.312   7.138
52230SOL    HW158464   0.824   8.350   7.098
52230SOL    HW258465   0.773   8.293   7.228
52231SOL     OW58466   5.622  12.079  12.125
52231SOL    HW158467   5.690  12.146  12.119
52231SOL    HW258468   5.556  12.116  12.183
52232SOL     OW58469  13.290  11.189  12.863
52232SOL    HW158470  13.346  11.258  12.829
52232SOL    HW258471  13.202  11.212  12.833
52233SOL     OW58472   7.105   4.062   7.178
52233SOL    HW158473   7.135   4.008   7.105
52233SOL    HW258474   7.021   4.024   7.203
52234SOL     OW58475   1.074   4.522   6.469
52234SOL    HW158476   1.095   4.558   6.383
52234SOL    HW258477   1.053   4.599   6.522
52235SOL     OW58478   7.387   5.391  14.307
52235SOL    HW158479   7.465   5.391  14.362
52235SOL    HW258480   7.419   5.416  14.220
52236SOL     OW58481   1.198   8.673  10.722
52236SOL    HW158482   1.258   8.746  10.734
52236SOL    HW258483   1.155   8.663  10.807
52237SOL     OW58484   2.686  12.779  13.567
52237SOL    HW158485   2.609  12.792  13.512
52237SOL    HW258486   2.724  12.867  13.577
52238SOL     OW58487   4.152   2.038  14.650
52238SOL    HW158488   4.070   2.076  14.679
52238SOL    HW258489   4.203   2.113  14.617
52239SOL     OW58490   5.645   7.013   9.506
52239SOL    HW158491   5.664   6.925   9.537
52239SOL    HW258492   5.567   7.039   9.555
52240SOL     OW58493   6.611   4.152   8.477
52240SOL    HW158494   6.616   4.161   8.572
52240SOL    HW258495   6.673   4.082   8.456
52241SOL     OW58496   1.109   1.370   5.550
52241SOL    HW158497   1.063   1.450   5.524
52241SOL    HW258498   1.048   1.324   5.607
52242SOL     OW58499  11.131  10.785   4.634
52242SOL    HW158500  11.165  10.775   4.545
52242SOL    HW258501  11.188  10.852   4.673
52243SOL     OW58502   4.150  10.307  12.053
52243SOL    HW158503   4.197  10.226  12.032
52243SOL    HW258504   4.163  10.320  12.147
52244SOL     OW58505   5.967   6.938   2.486
52244SOL    HW158506   5.979   6.886   2.406
52244SOL    HW258507   6.030   7.009   2.478
52245SOL     OW58508   2.830   1.130   1.414
52245SOL    HW158509   2.905   1.185   1.391
52245SOL    HW258510   2.842   1.110   1.506
52246SOL     OW58511  10.207  11.284   2.081
52246SOL    HW158512  10.235  11.356   2.138
52246SOL    HW258513  10.115  11.302   2.064
52247SOL     OW58514   3.913   4.667   8.990
52247SOL    HW158515   3.920   4.676   9.085
52247SOL    HW258516   3.835   4.613   8.976
52248SOL     OW58517  12.706   7.412   3.131
52248SOL    HW158518  12.673   7.499   3.153
52248SOL    HW258519  12.706   7.365   3.214
52249SOL     OW58520  12.613   0.299   7.460
52249SOL    HW158521  12.670   0.344   7.397
52249SOL    HW258522  12.626   0.206   7.442
52250SOL     OW58523   8.138  14.364  13.328
52250SOL    HW158524   8.164  14.275  13.353
52250SOL    HW258525   8.219  14.406  13.299
52251SOL     OW58526  10.200  14.216   5.735
52251SOL    HW158527  10.157  14.298   5.756
52251SOL    HW258528  10.285  14.221   5.779
52252SOL     OW58529  13.196   7.925   5.020
52252SOL    HW158530  13.262   7.993   5.009
52252SOL    HW258531  13.159   7.913   4.932
52253SOL     OW58532  14.334   2.287   3.049
52253SOL    HW158533  14.414   2.317   3.007
52253SOL    HW258534  14.266   2.299   2.983
52254SOL     OW58535  10.802   0.920  11.154
52254SOL    HW158536  10.746   0.921  11.075
52254SOL    HW258537  10.812   1.012  11.177
52255SOL     OW58538   0.313  10.147  14.218
52255SOL    HW158539   0.295  10.106  14.303
52255SOL    HW258540   0.317  10.073  14.157
52256SOL     OW58541  13.879  12.732  10.895
52256SOL    HW158542  13.848  12.776  10.816
52256SOL    HW258543  13.896  12.642  10.868
52257SOL     OW58544   8.686  10.350  14.688
52257SOL    HW158545   8.716  10.259  14.687
52257SOL    HW258546   8.624  10.356  14.616
52258SOL     OW58547   5.036   1.574  10.004
52258SOL    HW158548   5.055   1.484   9.976
52258SOL    HW258549   4.994   1.614   9.928
52259SOL     OW58550   1.625   3.021   3.294
52259SOL    HW158551   1.539   3.028   3.253
52259SOL    HW258552   1.654   2.932   3.273
52260SOL     OW58553  13.377  14.153   9.808
52260SOL    HW158554  13.423  14.074   9.779
52260SOL    HW258555  13.285  14.137   9.785
52261SOL     OW58556   9.004   3.286   7.948
52261SOL    HW158557   9.013   3.212   7.888
52261SOL    HW258558   9.067   3.268   8.018
52262SOL     OW58559  13.530   1.745   7.057
52262SOL    HW158560  13.523   1.649   7.054
52262SOL    HW258561  13.585   1.763   7.133
52263SOL     OW58562   4.784   4.452   6.542
52263SOL    HW158563   4.875   4.478   6.532
52263SOL    HW258564   4.739   4.531   6.573
52264SOL     OW58565   6.754  10.057   2.310
52264SOL    HW158566   6.739   9.969   2.343
52264SOL    HW258567   6.847  10.074   2.328
52265SOL     OW58568   4.086   5.954   4.759
52265SOL    HW158569   4.177   5.924   4.750
52265SOL    HW258570   4.054   5.962   4.669
52266SOL     OW58571   5.367   3.032   3.224
52266SOL    HW158572   5.344   3.114   3.181
52266SOL    HW258573   5.459   3.043   3.248
52267SOL     OW58574   5.222  13.340   1.708
52267SOL    HW158575   5.286  13.357   1.639
52267SOL    HW258576   5.274  13.307   1.781
52268SOL     OW58577  12.355  11.668   3.557
52268SOL    HW158578  12.345  11.668   3.461
52268SOL    HW258579  12.363  11.575   3.580
52269SOL     OW58580  10.086   1.508  10.704
52269SOL    HW158581  10.156   1.535  10.645
52269SOL    HW258582  10.055   1.425  10.667
52270SOL     OW58583   3.639  10.084   2.568
52270SOL    HW158584   3.614  10.144   2.638
52270SOL    HW258585   3.579  10.104   2.497
52271SOL     OW58586   3.270   7.855   1.161
52271SOL    HW158587   3.323   7.778   1.143
52271SOL    HW258588   3.298   7.885   1.248
52272SOL     OW58589   9.796  11.599  11.769
52272SOL    HW158590   9.757  11.547  11.840
52272SOL    HW258591   9.721  11.639  11.725
52273SOL     OW58592   3.946   9.596  13.041
52273SOL    HW158593   4.010   9.629  12.978
52273SOL    HW258594   3.862   9.628  13.009
52274SOL     OW58595  10.490   8.898   1.696
52274SOL    HW158596  10.430   8.905   1.770
52274SOL    HW258597  10.534   8.814   1.709
52275SOL     OW58598  13.566   8.261   9.114
52275SOL    HW158599  13.620   8.211   9.175
52275SOL    HW258600  13.516   8.195   9.067
52276SOL     OW58601  11.967   9.319  13.690
52276SOL    HW158602  12.014   9.303  13.608
52276SOL    HW258603  11.949   9.413  13.689
52277SOL     OW58604   3.486   6.289  14.452
52277SOL    HW158605   3.503   6.196  14.470
52277SOL    HW258606   3.569   6.322  14.418
52278SOL     OW58607   4.339   7.486  10.479
52278SOL    HW158608   4.385   7.436  10.411
52278SOL    HW258609   4.247   7.485  10.451
52279SOL     OW58610  11.642  10.092   5.068
52279SOL    HW158611  11.617  10.065   5.156
52279SOL    HW258612  11.578  10.159   5.044
52280SOL     OW58613   4.711   2.073  12.110
52280SOL    HW158614   4.801   2.053  12.085
52280SOL    HW258615   4.714   2.164  12.141
52281SOL     OW58616   5.310  14.130   0.428
52281SOL    HW158617   5.378  14.162   0.368
52281SOL    HW258618   5.306  14.036   0.412
52282SOL     OW58619   0.693  12.381   2.461
52282SOL    HW158620   0.712  12.461   2.509
52282SOL    HW258621   0.598  12.373   2.463
52283SOL     OW58622   6.177   5.744   6.071
52283SOL    HW158623   6.132   5.710   6.149
52283SOL    HW258624   6.178   5.839   6.084
52284SOL     OW58625   1.738  12.709   2.694
52284SOL    HW158626   1.726  12.730   2.601
52284SOL    HW258627   1.802  12.638   2.695
52285SOL     OW58628   6.756   5.008   2.849
52285SOL    HW158629   6.710   5.089   2.825
52285SOL    HW258630   6.779   4.967   2.765
52286SOL     OW58631  13.508   7.979   1.073
52286SOL    HW158632  13.483   8.071   1.073
52286SOL    HW258633  13.427   7.932   1.091
52287SOL     OW58634  11.985  11.289   2.145
52287SOL    HW158635  12.047  11.348   2.102
52287SOL    HW258636  12.032  11.258   2.222
52288SOL     OW58637   4.380   1.372   4.404
52288SOL    HW158638   4.297   1.334   4.377
52288SOL    HW258639   4.386   1.454   4.355
52289SOL     OW58640  13.217   8.777   5.821
52289SOL    HW158641  13.168   8.797   5.900
52289SOL    HW258642  13.226   8.862   5.776
52290SOL     OW58643   3.250   3.001   7.065
52290SOL    HW158644   3.245   2.954   7.148
52290SOL    HW258645   3.276   3.090   7.090
52291SOL     OW58646  13.252   3.600   9.398
52291SOL    HW158647  13.158   3.597   9.413
52291SOL    HW258648  13.266   3.684   9.353
52292SOL     OW58649  12.084  10.731   6.996
52292SOL    HW158650  12.109  10.721   6.904
52292SOL    HW258651  12.141  10.670   7.043
52293SOL     OW58652   3.668   1.456  10.108
52293SOL    HW158653   3.675   1.505  10.190
52293SOL    HW258654   3.699   1.368  10.130
52294SOL     OW58655  11.882   1.547  14.661
52294SOL    HW158656  11.896   1.549  14.567
52294SOL    HW258657  11.789   1.527  14.672
52295SOL     OW58658  13.397   1.318  12.419
52295SOL    HW158659  13.405   1.223  12.405
52295SOL    HW258660  13.326   1.344  12.360
52296SOL     OW58661   5.188   2.806   5.318
52296SOL    HW158662   5.138   2.872   5.269
52296SOL    HW258663   5.132   2.785   5.393
52297SOL     OW58664  14.873   4.545   1.638
52297SOL    HW158665   0.023   4.584   1.721
52297SOL    HW258666  14.787   4.583   1.621
52298SOL     OW58667   6.689   9.315   8.903
52298SOL    HW158668   6.615   9.260   8.877
52298SOL    HW258669   6.755   9.253   8.934
52299SOL     OW58670   7.194   1.660  13.205
52299SOL    HW158671   7.101   1.665  13.227
52299SOL    HW258672   7.214   1.567  13.204
52300SOL     OW58673  13.970   5.688   4.777
52300SOL    HW158674  13.907   5.730   4.718
52300SOL    HW258675  13.957   5.595   4.764
52301SOL     OW58676   7.879   0.293   7.565
52301SOL    HW158677   7.893   0.303   7.659
52301SOL    HW258678   7.941   0.353   7.525
52302SOL     OW58679   6.769   6.166   5.488
52302SOL    HW158680   6.780   6.226   5.414
52302SOL    HW258681   6.682   6.187   5.522
52303SOL     OW58682   3.174   5.829  11.107
52303SOL    HW158683   3.266   5.801  11.108
52303SOL    HW258684   3.173   5.910  11.159
52304SOL     OW58685   5.482  10.775  10.164
52304SOL    HW158686   5.408  10.827  10.196
52304SOL    HW258687   5.547  10.839  10.136
52305SOL     OW58688   5.225   9.516  13.725
52305SOL    HW158689   5.184   9.489  13.806
52305SOL    HW258690   5.318   9.493  13.736
52306SOL     OW58691   4.915   8.108   1.519
52306SOL    HW158692   4.887   8.036   1.575
52306SOL    HW258693   4.929   8.181   1.579
52307SOL     OW58694  14.683  11.233   9.854
52307SOL    HW158695  14.606  11.268   9.900
52307SOL    HW258696  14.703  11.152   9.900
52308SOL     OW58697  11.070   6.659   8.828
52308SOL    HW158698  11.069   6.733   8.889
52308SOL    HW258699  10.992   6.608   8.852
52309SOL     OW58700   6.440   1.486  12.547
52309SOL    HW158701   6.357   1.523  12.516
52309SOL    HW258702   6.484   1.560  12.589
52310SOL     OW58703  11.638   5.901   9.610
52310SOL    HW158704  11.587   5.972   9.570
52310SOL    HW258705  11.574   5.837   9.637
52311SOL     OW58706   7.667   8.269  11.521
52311SOL    HW158707   7.644   8.338  11.582
52311SOL    HW258708   7.588   8.216  11.512
52312SOL     OW58709   1.562  12.730  10.862
52312SOL    HW158710   1.654  12.725  10.839
52312SOL    HW258711   1.516  12.702  10.783
52313SOL     OW58712  11.786  11.409  12.809
52313SOL    HW158713  11.697  11.383  12.787
52313SOL    HW258714  11.776  11.475  12.877
52314SOL     OW58715   1.809   5.455  12.750
52314SOL    HW158716   1.886   5.497  12.788
52314SOL    HW258717   1.838   5.426  12.663
52315SOL     OW58718  13.563  10.057  10.649
52315SOL    HW158719  13.598   9.968  10.640
52315SOL    HW258720  13.570  10.076  10.742
52316SOL     OW58721   4.251   4.127   7.077
52316SOL    HW158722   4.320   4.173   7.028
52316SOL    HW258723   4.274   4.140   7.169
52317SOL     OW58724   9.949   5.596  12.527
52317SOL    HW158725   9.865   5.642  12.532
52317SOL    HW258726  10.014   5.661  12.555
52318SOL     OW58727   4.113  11.946   0.067
52318SOL    HW158728   4.040  11.940   0.128
52318SOL    HW258729   4.186  11.906   0.113
52319SOL     OW58730   5.500  10.701   8.416
52319SOL    HW158731   5.407  10.722   8.411
52319SOL    HW258732   5.508  10.637   8.486
52320SOL     OW58733   2.400   0.309  12.350
52320SOL    HW158734   2.385   0.319  12.256
52320SOL    HW258735   2.344   0.375  12.391
52321SOL     OW58736  12.773   2.950   0.849
52321SOL    HW158737  12.688   2.970   0.810
52321SOL    HW258738  12.753   2.912   0.934
52322SOL     OW58739   1.243  13.747   0.152
52322SOL    HW158740   1.299  13.773   0.225
52322SOL    HW258741   1.159  13.727   0.192
52323SOL     OW58742   2.441  13.023   7.487
52323SOL    HW158743   2.371  13.065   7.437
52323SOL    HW258744   2.415  12.931   7.492
52324SOL     OW58745   7.021   2.250  13.648
52324SOL    HW158746   7.074   2.278  13.573
52324SOL    HW258747   7.077   2.267  13.724
52325SOL     OW58748   4.482   6.936   4.486
52325SOL    HW158749   4.551   6.999   4.507
52325SOL    HW258750   4.430   6.979   4.418
52326SOL     OW58751  13.202   8.620   4.330
52326SOL    HW158752  13.240   8.707   4.316
52326SOL    HW258753  13.130   8.616   4.267
52327SOL     OW58754  14.680  13.854  14.778
52327SOL    HW158755  14.725  13.934  14.807
52327SOL    HW258756  14.709  13.842  14.688
52328SOL     OW58757   8.181   6.354   6.725
52328SOL    HW158758   8.171   6.411   6.649
52328SOL    HW258759   8.150   6.269   6.695
52329SOL     OW58760   8.217   0.637   1.953
52329SOL    HW158761   8.294   0.662   1.902
52329SOL    HW258762   8.219   0.541   1.953
52330SOL     OW58763   7.846   4.765  14.737
52330SOL    HW158764   7.871   4.696  14.799
52330SOL    HW258765   7.893   4.843  14.768
52331SOL     OW58766   4.484  14.685   6.277
52331SOL    HW158767   4.528  14.616   6.326
52331SOL    HW258768   4.521  14.679   6.189
52332SOL     OW58769   0.801   2.246   9.811
52332SOL    HW158770   0.803   2.190   9.889
52332SOL    HW258771   0.862   2.204   9.750
52333SOL     OW58772   7.214  10.436   5.702
52333SOL    HW158773   7.248  10.433   5.791
52333SOL    HW258774   7.227  10.347   5.668
52334SOL     OW58775  14.756   3.327   3.122
52334SOL    HW158776  14.800   3.268   3.183
52334SOL    HW258777  14.695   3.270   3.075
52335SOL     OW58778   6.212  14.141   3.814
52335SOL    HW158779   6.152  14.216   3.815
52335SOL    HW258780   6.249  14.141   3.726
52336SOL     OW58781   1.177  14.334  14.726
52336SOL    HW158782   1.241  14.367  14.789
52336SOL    HW258783   1.196  14.241  14.719
52337SOL     OW58784  10.866  13.135   8.892
52337SOL    HW158785  10.865  13.177   8.806
52337SOL    HW258786  10.853  13.207   8.954
52338SOL     OW58787   0.791   6.037   2.119
52338SOL    HW158788   0.707   6.068   2.086
52338SOL    HW258789   0.794   5.945   2.094
52339SOL     OW58790  13.880  13.442   9.478
52339SOL    HW158791  13.925  13.357   9.475
52339SOL    HW258792  13.854  13.459   9.388
52340SOL     OW58793  12.696  10.716   7.841
52340SOL    HW158794  12.605  10.742   7.829
52340SOL    HW258795  12.691  10.628   7.879
52341SOL     OW58796  11.761  10.873  12.173
52341SOL    HW158797  11.737  10.935  12.243
52341SOL    HW258798  11.829  10.918  12.123
52342SOL     OW58799   8.506  13.324   9.012
52342SOL    HW158800   8.439  13.288   9.071
52342SOL    HW258801   8.553  13.388   9.066
52343SOL     OW58802  14.233   4.030   8.685
52343SOL    HW158803  14.204   4.092   8.752
52343SOL    HW258804  14.162   4.030   8.620
52344SOL     OW58805   0.457   6.263   1.515
52344SOL    HW158806   0.543   6.227   1.493
52344SOL    HW258807   0.395   6.213   1.462
52345SOL     OW58808   4.724   4.546  12.391
52345SOL    HW158809   4.752   4.555  12.300
52345SOL    HW258810   4.784   4.482  12.429
52346SOL     OW58811   6.158   9.386   8.092
52346SOL    HW158812   6.238   9.434   8.069
52346SOL    HW258813   6.087   9.444   8.065
52347SOL     OW58814  13.305  10.642  13.379
52347SOL    HW158815  13.339  10.643  13.469
52347SOL    HW258816  13.382  10.623  13.325
52348SOL     OW58817   9.764  12.534   9.185
52348SOL    HW158818   9.840  12.578   9.147
52348SOL    HW258819   9.689  12.568   9.137
52349SOL     OW58820  12.721   8.112   7.968
52349SOL    HW158821  12.693   8.190   8.015
52349SOL    HW258822  12.651   8.097   7.903
52350SOL     OW58823   9.077  12.463   5.406
52350SOL    HW158824   8.982  12.459   5.412
52350SOL    HW258825   9.094  12.493   5.316
52351SOL     OW58826   5.922   4.116   8.003
52351SOL    HW158827   6.001   4.147   8.046
52351SOL    HW258828   5.861   4.097   8.075
52352SOL     OW58829   4.117   2.803   5.350
52352SOL    HW158830   4.190   2.829   5.294
52352SOL    HW258831   4.107   2.709   5.335
52353SOL     OW58832   0.986   1.547   4.082
52353SOL    HW158833   0.979   1.640   4.061
52353SOL    HW258834   0.972   1.503   3.998
52354SOL     OW58835  13.807   3.910  12.504
52354SOL    HW158836  13.828   3.987  12.451
52354SOL    HW258837  13.807   3.942  12.594
52355SOL     OW58838  13.024   5.507  13.307
52355SOL    HW158839  13.080   5.579  13.277
52355SOL    HW258840  12.995   5.535  13.394
52356SOL     OW58841  12.453   1.852  13.665
52356SOL    HW158842  12.421   1.828  13.752
52356SOL    HW258843  12.383   1.905  13.627
52357SOL     OW58844   4.977  11.934  11.620
52357SOL    HW158845   4.965  11.913  11.527
52357SOL    HW258846   4.916  12.005  11.637
52358SOL     OW58847   0.943  11.004   6.184
52358SOL    HW158848   0.992  10.991   6.103
52358SOL    HW258849   0.907  10.918   6.204
52359SOL     OW58850   1.050   9.177  11.368
52359SOL    HW158851   0.991   9.231  11.421
52359SOL    HW258852   1.115   9.239  11.334
52360SOL     OW58853  11.799  11.649  10.175
52360SOL    HW158854  11.777  11.617  10.262
52360SOL    HW258855  11.846  11.576  10.134
52361SOL     OW58856   6.036   5.680  11.934
52361SOL    HW158857   6.032   5.769  11.969
52361SOL    HW258858   5.968   5.678  11.867
52362SOL     OW58859   3.151  12.566   1.552
52362SOL    HW158860   3.107  12.484   1.530
52362SOL    HW258861   3.161  12.611   1.467
52363SOL     OW58862   0.666  12.128   7.882
52363SOL    HW158863   0.612  12.051   7.868
52363SOL    HW258864   0.718  12.107   7.959
52364SOL     OW58865  13.919  12.727   3.868
52364SOL    HW158866  13.976  12.734   3.945
52364SOL    HW258867  13.847  12.787   3.886
52365SOL     OW58868  13.658  10.604   2.216
52365SOL    HW158869  13.674  10.527   2.162
52365SOL    HW258870  13.713  10.591   2.293
52366SOL     OW58871   5.883   9.645   1.766
52366SOL    HW158872   5.846   9.600   1.843
52366SOL    HW258873   5.872   9.738   1.786
52367SOL     OW58874   1.916  13.105   2.017
52367SOL    HW158875   2.010  13.113   2.033
52367SOL    HW258876   1.889  13.027   2.066
52368SOL     OW58877   4.819   8.994  14.545
52368SOL    HW158878   4.810   9.048  14.623
52368SOL    HW258879   4.830   9.056  14.473
52369SOL     OW58880   9.038   6.718   0.700
52369SOL    HW158881   8.990   6.642   0.731
52369SOL    HW258882   9.130   6.698   0.720
52370SOL     OW58883  10.883   7.664   2.905
52370SOL    HW158884  10.911   7.578   2.873
52370SOL    HW258885  10.898   7.660   2.999
52371SOL     OW58886   4.981   9.723   1.028
52371SOL    HW158887   4.969   9.690   1.117
52371SOL    HW258888   4.917   9.794   1.020
52372SOL     OW58889   5.250  12.854   0.534
52372SOL    HW158890   5.292  12.810   0.608
52372SOL    HW258891   5.158  12.828   0.540
52373SOL     OW58892   6.342   9.792   0.498
52373SOL    HW158893   6.428   9.754   0.517
52373SOL    HW258894   6.283   9.747   0.558
52374SOL     OW58895   0.082   2.961  10.841
52374SOL    HW158896   0.079   2.882  10.788
52374SOL    HW258897   0.175   2.981  10.849
52375SOL     OW58898   9.301   9.385   0.994
52375SOL    HW158899   9.245   9.437   0.937
52375SOL    HW258900   9.339   9.318   0.938
52376SOL     OW58901  10.871   7.230   1.373
52376SOL    HW158902  10.806   7.165   1.346
52376SOL    HW258903  10.851   7.308   1.322
52377SOL     OW58904   3.066   1.623  14.201
52377SOL    HW158905   3.088   1.581  14.284
52377SOL    HW258906   3.123   1.580  14.136
52378SOL     OW58907  12.193   6.791  10.753
52378SOL    HW158908  12.166   6.849  10.682
52378SOL    HW258909  12.218   6.850  10.824
52379SOL     OW58910   2.839   8.913   6.573
52379SOL    HW158911   2.858   8.947   6.661
52379SOL    HW258912   2.809   8.823   6.589
52380SOL     OW58913   1.787  12.490   0.243
52380SOL    HW158914   1.731  12.438   0.301
52380SOL    HW258915   1.749  12.578   0.245
52381SOL     OW58916  12.597   9.508  10.603
52381SOL    HW158917  12.563   9.493  10.515
52381SOL    HW258918  12.656   9.434  10.619
52382SOL     OW58919   1.825   4.862   5.221
52382SOL    HW158920   1.873   4.929   5.270
52382SOL    HW258921   1.737   4.864   5.260
52383SOL     OW58922   5.063   2.149   0.958
52383SOL    HW158923   5.030   2.096   1.030
52383SOL    HW258924   4.996   2.142   0.890
52384SOL     OW58925  13.482   9.162  11.941
52384SOL    HW158926  13.485   9.115  12.025
52384SOL    HW258927  13.558   9.129  11.893
52385SOL     OW58928   8.201   2.892   1.307
52385SOL    HW158929   8.266   2.936   1.252
52385SOL    HW258930   8.216   2.799   1.291
52386SOL     OW58931   7.279  11.136   6.878
52386SOL    HW158932   7.269  11.200   6.808
52386SOL    HW258933   7.202  11.148   6.933
52387SOL     OW58934   8.015   6.087  12.545
52387SOL    HW158935   8.018   6.177  12.516
52387SOL    HW258936   8.019   6.092  12.641
52388SOL     OW58937   3.303   2.136  12.364
52388SOL    HW158938   3.282   2.221  12.403
52388SOL    HW258939   3.321   2.079  12.438
52389SOL     OW58940   8.053   7.266  10.563
52389SOL    HW158941   8.042   7.238  10.653
52389SOL    HW258942   8.026   7.191  10.510
52390SOL     OW58943   6.707   3.473   2.135
52390SOL    HW158944   6.801   3.482   2.117
52390SOL    HW258945   6.675   3.562   2.142
52391SOL     OW58946  14.830   1.086  10.854
52391SOL    HW158947  14.862   1.082  10.764
52391SOL    HW258948  14.737   1.065  10.847
52392SOL     OW58949   2.784   3.965  13.243
52392SOL    HW158950   2.825   3.889  13.284
52392SOL    HW258951   2.811   4.040  13.297
52393SOL     OW58952  10.658   4.927  13.488
52393SOL    HW158953  10.594   4.937  13.417
52393SOL    HW258954  10.634   4.845  13.531
52394SOL     OW58955   7.920   1.202  12.488
52394SOL    HW158956   7.882   1.284  12.455
52394SOL    HW258957   8.014   1.219  12.494
52395SOL     OW58958   3.462   9.133   2.839
52395SOL    HW158959   3.418   9.178   2.767
52395SOL    HW258960   3.425   9.171   2.918
52396SOL     OW58961  11.421   8.552  10.168
52396SOL    HW158962  11.332   8.581  10.188
52396SOL    HW258963  11.470   8.569  10.249
52397SOL     OW58964   0.191   8.065   0.952
52397SOL    HW158965   0.251   8.137   0.931
52397SOL    HW258966   0.234   7.987   0.917
52398SOL     OW58967  11.693   0.420   3.021
52398SOL    HW158968  11.730   0.388   2.938
52398SOL    HW258969  11.692   0.344   3.078
52399SOL     OW58970   4.725   3.256   8.552
52399SOL    HW158971   4.727   3.299   8.467
52399SOL    HW258972   4.640   3.280   8.589
52400SOL     OW58973   1.237   1.653   5.614
52400SOL    HW158974   1.188   1.651   5.532
52400SOL    HW258975   1.199   1.727   5.662
52401SOL     OW58976   5.657   7.574  10.199
52401SOL    HW158977   5.741   7.585  10.154
52401SOL    HW258978   5.661   7.486  10.236
52402SOL     OW58979   9.997   8.608  12.865
52402SOL    HW158980  10.026   8.689  12.908
52402SOL    HW258981   9.909   8.629  12.834
52403SOL     OW58982   3.789   2.760  10.623
52403SOL    HW158983   3.723   2.828  10.628
52403SOL    HW258984   3.840   2.769  10.704
52404SOL     OW58985   1.347   4.101   1.324
52404SOL    HW158986   1.348   4.114   1.419
52404SOL    HW258987   1.303   4.179   1.290
52405SOL     OW58988   0.396  13.478   7.679
52405SOL    HW158989   0.412  13.386   7.701
52405SOL    HW258990   0.421  13.526   7.757
52406SOL     OW58991  13.473   5.731   1.006
52406SOL    HW158992  13.468   5.722   0.910
52406SOL    HW258993  13.534   5.663   1.033
52407SOL     OW58994  12.901   9.219   3.337
52407SOL    HW158995  12.881   9.149   3.275
52407SOL    HW258996  12.894   9.299   3.284
52408SOL     OW58997  10.866   2.895   9.198
52408SOL    HW158998  10.813   2.819   9.175
52408SOL    HW258999  10.939   2.892   9.136
52409SOL     OW59000   9.871  13.235  14.129
52409SOL    HW159001   9.883  13.186  14.210
52409SOL    HW259002   9.785  13.277  14.139
52410SOL     OW59003  13.288   8.602   2.116
52410SOL    HW159004  13.231   8.676   2.139
52410SOL    HW259005  13.252   8.569   2.033
52411SOL     OW59006  11.616  11.138   6.991
52411SOL    HW159007  11.613  11.169   6.901
52411SOL    HW259008  11.664  11.055   6.986
52412SOL     OW59009   6.245   0.739  12.942
52412SOL    HW159010   6.324   0.779  12.977
52412SOL    HW259011   6.265   0.721  12.850
52413SOL     OW59012   1.460   1.558   7.872
52413SOL    HW159013   1.497   1.585   7.956
52413SOL    HW259014   1.522   1.591   7.807
52414SOL     OW59015  11.939   6.120   7.340
52414SOL    HW159016  12.006   6.053   7.348
52414SOL    HW259017  11.988   6.201   7.325
52415SOL     OW59018  12.245   0.834  12.908
52415SOL    HW159019  12.181   0.769  12.878
52415SOL    HW259020  12.219   0.915  12.864
52416SOL     OW59021   0.185   7.757   5.792
52416SOL    HW159022   0.116   7.746   5.856
52416SOL    HW259023   0.179   7.678   5.737
52417SOL     OW59024   9.993   2.741  12.907
52417SOL    HW159025  10.018   2.824  12.948
52417SOL    HW259026   9.903   2.726  12.936
52418SOL     OW59027   9.119   9.196   0.526
52418SOL    HW159028   9.087   9.254   0.456
52418SOL    HW259029   9.052   9.202   0.594
52419SOL     OW59030   8.949   8.587   1.058
52419SOL    HW159031   8.861   8.608   1.025
52419SOL    HW259032   8.988   8.672   1.078
52420SOL     OW59033  12.869   2.480   6.050
52420SOL    HW159034  12.924   2.558   6.046
52420SOL    HW259035  12.847   2.472   6.143
52421SOL     OW59036   6.592  14.016  10.943
52421SOL    HW159037   6.582  14.069  10.864
52421SOL    HW259038   6.582  14.078  11.015
52422SOL     OW59039  11.863   1.311   8.493
52422SOL    HW159040  11.810   1.391   8.491
52422SOL    HW259041  11.950   1.340   8.466
52423SOL     OW59042   3.265  11.035  11.925
52423SOL    HW159043   3.282  10.942  11.913
52423SOL    HW259044   3.306  11.077  11.849
52424SOL     OW59045   5.523   2.397   8.679
52424SOL    HW159046   5.545   2.383   8.587
52424SOL    HW259047   5.479   2.317   8.706
52425SOL     OW59048   1.687   5.233  11.561
52425SOL    HW159049   1.673   5.252  11.654
52425SOL    HW259050   1.713   5.141  11.559
52426SOL     OW59051   8.820   6.923  11.867
52426SOL    HW159052   8.798   6.868  11.792
52426SOL    HW259053   8.745   6.982  11.877
52427SOL     OW59054   0.115   9.159  13.549
52427SOL    HW159055   0.024   9.131  13.561
52427SOL    HW259056   0.113   9.214  13.471
52428SOL     OW59057   9.372   0.399  11.714
52428SOL    HW159058   9.350   0.464  11.781
52428SOL    HW259059   9.401   0.450  11.639
52429SOL     OW59060   0.772  10.469   5.623
52429SOL    HW159061   0.861  10.434   5.622
52429SOL    HW259062   0.744  10.462   5.714
52430SOL     OW59063   8.017   3.697  12.818
52430SOL    HW159064   7.999   3.680  12.725
52430SOL    HW259065   7.997   3.613  12.861
52431SOL     OW59066  10.397   8.168   2.708
52431SOL    HW159067  10.323   8.157   2.768
52431SOL    HW259068  10.375   8.245   2.656
52432SOL     OW59069   5.312   5.192   3.690
52432SOL    HW159070   5.376   5.158   3.627
52432SOL    HW259071   5.240   5.222   3.636
52433SOL     OW59072   8.812  11.035   7.456
52433SOL    HW159073   8.722  11.066   7.453
52433SOL    HW259074   8.806  10.944   7.485
52434SOL     OW59075   8.373   9.117   6.383
52434SOL    HW159076   8.300   9.067   6.346
52434SOL    HW259077   8.440   9.051   6.402
52435SOL     OW59078  14.016   4.659   4.641
52435SOL    HW159079  13.949   4.636   4.705
52435SOL    HW259080  14.098   4.632   4.681
52436SOL     OW59081   0.038   2.137  13.755
52436SOL    HW159082  14.871   2.182  13.683
52436SOL    HW259083   0.131   2.150  13.737
52437SOL     OW59084   0.416   3.037   9.338
52437SOL    HW159085   0.339   3.083   9.372
52437SOL    HW259086   0.382   2.952   9.308
52438SOL     OW59087   8.871   6.382   4.758
52438SOL    HW159088   8.910   6.459   4.716
52438SOL    HW259089   8.880   6.399   4.852
52439SOL     OW59090   4.466   4.574   0.833
52439SOL    HW159091   4.546   4.545   0.876
52439SOL    HW259092   4.411   4.495   0.828
52440SOL     OW59093  10.018  12.633   4.587
52440SOL    HW159094  10.040  12.550   4.628
52440SOL    HW259095   9.946  12.667   4.640
52441SOL     OW59096  10.963  14.661   5.287
52441SOL    HW159097  10.893  14.699   5.340
52441SOL    HW259098  11.008  14.601   5.346
52442SOL     OW59099  10.753   1.879  13.471
52442SOL    HW159100  10.820   1.946  13.474
52442SOL    HW259101  10.686   1.908  13.533
52443SOL     OW59102   7.209   2.066  14.777
52443SOL    HW159103   7.127   2.032  14.812
52443SOL    HW259104   7.191   2.083  14.685
52444SOL     OW59105   1.084   7.642  10.805
52444SOL    HW159106   1.159   7.686  10.765
52444SOL    HW259107   1.116   7.553  10.823
52445SOL     OW59108   6.404   2.439   4.426
52445SOL    HW159109   6.405   2.519   4.373
52445SOL    HW259110   6.468   2.382   4.383
52446SOL     OW59111   6.430   6.542  14.471
52446SOL    HW159112   6.482   6.553  14.391
52446SOL    HW259113   6.370   6.470  14.451
52447SOL     OW59114   1.264  13.058   0.893
52447SOL    HW159115   1.283  13.009   0.973
52447SOL    HW259116   1.331  13.127   0.890
52448SOL     OW59117   9.559   3.429   7.304
52448SOL    HW159118   9.488   3.365   7.293
52448SOL    HW259119   9.603   3.403   7.385
52449SOL     OW59120   2.029   7.104   0.756
52449SOL    HW159121   2.079   7.039   0.706
52449SOL    HW259122   1.985   7.157   0.690
52450SOL     OW59123  13.337  12.795   8.240
52450SOL    HW159124  13.288  12.720   8.205
52450SOL    HW259125  13.429  12.776   8.218
52451SOL     OW59126   2.986   9.205   6.260
52451SOL    HW159127   2.898   9.219   6.226
52451SOL    HW259128   2.987   9.113   6.286
52452SOL     OW59129   5.779   2.930  10.464
52452SOL    HW159130   5.819   2.869  10.402
52452SOL    HW259131   5.854   2.972  10.507
52453SOL     OW59132   0.609   8.120   0.997
52453SOL    HW159133   0.558   8.200   0.982
52453SOL    HW259134   0.561   8.052   0.949
52454SOL     OW59135   1.263  13.583  11.835
52454SOL    HW159136   1.268  13.678  11.823
52454SOL    HW259137   1.257  13.571  11.930
52455SOL     OW59138   6.543  14.123   0.734
52455SOL    HW159139   6.485  14.082   0.797
52455SOL    HW259140   6.494  14.198   0.700
52456SOL     OW59141   6.128   2.117  14.761
52456SOL    HW159142   6.223   2.121  14.774
52456SOL    HW259143   6.097   2.057  14.830
52457SOL     OW59144   1.801   5.288   8.291
52457SOL    HW159145   1.753   5.272   8.210
52457SOL    HW259146   1.811   5.201   8.330
52458SOL     OW59147  11.795   9.584  13.944
52458SOL    HW159148  11.763   9.496  13.964
52458SOL    HW259149  11.784   9.633  14.026
52459SOL     OW59150  13.733   5.334   5.288
52459SOL    HW159151  13.645   5.354   5.254
52459SOL    HW259152  13.783   5.413   5.271
52460SOL     OW59153   8.000  13.254  10.847
52460SOL    HW159154   8.081  13.305  10.843
52460SOL    HW259155   7.990  13.231  10.939
52461SOL     OW59156  12.638  13.895   9.129
52461SOL    HW159157  12.700  13.955   9.170
52461SOL    HW259158  12.581  13.951   9.078
52462SOL     OW59159  14.014   8.824   6.911
52462SOL    HW159160  14.018   8.739   6.867
52462SOL    HW259161  13.929   8.860   6.886
52463SOL     OW59162   9.452   2.258   3.313
52463SOL    HW159163   9.473   2.285   3.224
52463SOL    HW259164   9.365   2.218   3.306
52464SOL     OW59165   1.655   5.094   3.648
52464SOL    HW159166   1.695   5.179   3.668
52464SOL    HW259167   1.726   5.043   3.609
52465SOL     OW59168   1.217   6.789   8.723
52465SOL    HW159169   1.182   6.878   8.719
52465SOL    HW259170   1.288   6.794   8.787
52466SOL     OW59171   3.229   8.017  12.368
52466SOL    HW159172   3.220   8.050  12.278
52466SOL    HW259173   3.189   7.930  12.364
52467SOL     OW59174   3.747   6.941   4.792
52467SOL    HW159175   3.682   6.880   4.827
52467SOL    HW259176   3.735   6.936   4.697
52468SOL     OW59177   4.767   3.304  14.734
52468SOL    HW159178   4.851   3.275  14.770
52468SOL    HW259179   4.753   3.390  14.774
52469SOL     OW59180   0.543   3.133   3.748
52469SOL    HW159181   0.458   3.107   3.712
52469SOL    HW259182   0.523   3.162   3.837
52470SOL     OW59183   5.741   4.837  11.902
52470SOL    HW159184   5.763   4.881  11.985
52470SOL    HW259185   5.714   4.749  11.928
52471SOL     OW59186  14.169   9.221  14.294
52471SOL    HW159187  14.169   9.133  14.331
52471SOL    HW259188  14.258   9.233  14.260
52472SOL     OW59189  11.166   3.716   2.924
52472SOL    HW159190  11.116   3.664   2.862
52472SOL    HW259191  11.117   3.798   2.932
52473SOL     OW59192   2.198   4.253   3.511
52473SOL    HW159193   2.280   4.213   3.538
52473SOL    HW259194   2.177   4.210   3.427
52474SOL     OW59195   6.116  13.639   1.623
52474SOL    HW159196   6.132  13.608   1.712
52474SOL    HW259197   6.060  13.716   1.634
52475SOL     OW59198  11.365   4.439  14.268
52475SOL    HW159199  11.305   4.451  14.195
52475SOL    HW259200  11.315   4.465  14.346
52476SOL     OW59201   2.948   8.300  13.869
52476SOL    HW159202   3.009   8.348  13.814
52476SOL    HW259203   2.865   8.347  13.860
52477SOL     OW59204  11.785   7.045  12.462
52477SOL    HW159205  11.738   7.018  12.540
52477SOL    HW259206  11.877   7.028  12.482
52478SOL     OW59207  13.203   5.225   8.487
52478SOL    HW159208  13.189   5.202   8.579
52478SOL    HW259209  13.221   5.319   8.489
52479SOL     OW59210   2.388  13.625  10.765
52479SOL    HW159211   2.305  13.653  10.804
52479SOL    HW259212   2.452  13.632  10.836
52480SOL     OW59213   0.595   5.389  12.866
52480SOL    HW159214   0.564   5.453  12.803
52480SOL    HW259215   0.520   5.372  12.923
52481SOL     OW59216  14.038  10.587   6.396
52481SOL    HW159217  14.015  10.511   6.449
52481SOL    HW259218  13.955  10.634   6.384
52482SOL     OW59219   8.266   4.899   9.835
52482SOL    HW159220   8.241   4.813   9.801
52482SOL    HW259221   8.284   4.952   9.757
52483SOL     OW59222   7.394   3.328   0.980
52483SOL    HW159223   7.361   3.326   1.070
52483SOL    HW259224   7.412   3.236   0.959
52484SOL     OW59225   8.610  12.447   3.177
52484SOL    HW159226   8.677  12.516   3.177
52484SOL    HW259227   8.654  12.372   3.138
52485SOL     OW59228   1.043   2.715  13.475
52485SOL    HW159229   0.972   2.763  13.432
52485SOL    HW259230   1.090   2.674  13.403
52486SOL     OW59231  12.568   5.214   9.014
52486SOL    HW159232  12.641   5.226   8.954
52486SOL    HW259233  12.526   5.133   8.985
52487SOL     OW59234  12.033   8.491   2.142
52487SOL    HW159235  11.997   8.531   2.221
52487SOL    HW259236  12.105   8.548   2.117
52488SOL     OW59237   5.825   8.598  10.754
52488SOL    HW159238   5.739   8.622  10.720
52488SOL    HW259239   5.879   8.586  10.675
52489SOL     OW59240   9.587   3.301   0.623
52489SOL    HW159241   9.543   3.260   0.698
52489SOL    HW259242   9.625   3.381   0.658
52490SOL     OW59243  11.787   3.086   7.582
52490SOL    HW159244  11.755   3.020   7.521
52490SOL    HW259245  11.732   3.077   7.659
52491SOL     OW59246   4.745   5.867  11.237
52491SOL    HW159247   4.832   5.876  11.198
52491SOL    HW259248   4.720   5.957  11.260
52492SOL     OW59249   0.980  10.878   0.295
52492SOL    HW159250   1.074  10.888   0.278
52492SOL    HW259251   0.976  10.833   0.379
52493SOL     OW59252   7.525  10.438  13.692
52493SOL    HW159253   7.561  10.360  13.734
52493SOL    HW259254   7.580  10.510  13.723
52494SOL     OW59255   6.464   9.310   2.029
52494SOL    HW159256   6.521   9.377   1.993
52494SOL    HW259257   6.469   9.237   1.967
52495SOL     OW59258  10.929   9.559   5.075
52495SOL    HW159259  10.942   9.651   5.050
52495SOL    HW259260  10.860   9.528   5.015
52496SOL     OW59261  13.319   6.065   7.583
52496SOL    HW159262  13.275   6.125   7.642
52496SOL    HW259263  13.351   6.120   7.512
52497SOL     OW59264   2.504  11.633  13.996
52497SOL    HW159265   2.600  11.629  13.999
52497SOL    HW259266   2.480  11.697  14.063
52498SOL     OW59267   2.725  11.294   2.733
52498SOL    HW159268   2.741  11.293   2.828
52498SOL    HW259269   2.807  11.263   2.695
52499SOL     OW59270   6.251   1.527  14.384
52499SOL    HW159271   6.278   1.539  14.476
52499SOL    HW259272   6.157   1.544  14.384
52500SOL     OW59273   2.260   6.949  14.826
52500SOL    HW159274   2.354   6.933  14.830
52500SOL    HW259275   2.252   7.038  14.790
52501SOL     OW59276  10.055   6.491   5.975
52501SOL    HW159277  10.042   6.533   5.889
52501SOL    HW259278  10.089   6.561   6.030
52502SOL     OW59279  12.669   5.001  13.989
52502SOL    HW159280  12.679   5.095  13.976
52502SOL    HW259281  12.718   4.982  14.069
52503SOL     OW59282  12.555  13.792   6.935
52503SOL    HW159283  12.540  13.876   6.979
52503SOL    HW259284  12.595  13.815   6.851
52504SOL     OW59285   2.350  13.022  11.544
52504SOL    HW159286   2.275  13.024  11.484
52504SOL    HW259287   2.426  13.030  11.486
52505SOL     OW59288   6.190  10.938   9.636
52505SOL    HW159289   6.177  10.994   9.560
52505SOL    HW259290   6.119  10.875   9.633
52506SOL     OW59291   8.931  13.478   8.015
52506SOL    HW159292   8.888  13.525   8.086
52506SOL    HW259293   8.917  13.385   8.035
52507SOL     OW59294  12.016   3.935   8.757
52507SOL    HW159295  12.108   3.918   8.737
52507SOL    HW259296  12.019   3.997   8.830
52508SOL     OW59297  12.711   8.168   0.026
52508SOL    HW159298  12.702   8.154  14.809
52508SOL    HW259299  12.784   8.230   0.034
52509SOL     OW59300   9.237  10.224   3.603
52509SOL    HW159301   9.199  10.167   3.670
52509SOL    HW259302   9.221  10.313   3.635
52510SOL     OW59303  11.277   8.049  14.108
52510SOL    HW159304  11.305   8.088  14.192
52510SOL    HW259305  11.202   7.995  14.131
52511SOL     OW59306  12.395  12.165   2.612
52511SOL    HW159307  12.369  12.153   2.703
52511SOL    HW259308  12.402  12.260   2.601
52512SOL     OW59309   6.872   6.797  12.013
52512SOL    HW159310   6.779   6.773  12.016
52512SOL    HW259311   6.892   6.825  12.102
52513SOL     OW59312   5.972   1.346   7.891
52513SOL    HW159313   5.907   1.387   7.947
52513SOL    HW259314   5.922   1.311   7.817
52514SOL     OW59315   8.127  13.324   0.434
52514SOL    HW159316   8.059  13.298   0.373
52514SOL    HW259317   8.186  13.379   0.383
52515SOL     OW59318  14.358   6.826  12.488
52515SOL    HW159319  14.423   6.777  12.539
52515SOL    HW259320  14.405   6.905  12.460
52516SOL     OW59321  10.607  14.304   6.597
52516SOL    HW159322  10.673  14.371   6.613
52516SOL    HW259323  10.648  14.223   6.627
52517SOL     OW59324   0.913   4.754   3.190
52517SOL    HW159325   0.960   4.695   3.248
52517SOL    HW259326   0.869   4.696   3.127
52518SOL     OW59327  13.807   7.018   8.525
52518SOL    HW159328  13.714   7.026   8.542
52518SOL    HW259329  13.812   6.991   8.433
52519SOL     OW59330   1.076   3.585  11.450
52519SOL    HW159331   1.006   3.626  11.400
52519SOL    HW259332   1.041   3.576  11.538
52520SOL     OW59333   4.036  10.697  10.234
52520SOL    HW159334   4.085  10.630  10.281
52520SOL    HW259335   4.101  10.739  10.178
52521SOL     OW59336   3.177  11.583   4.494
52521SOL    HW159337   3.124  11.517   4.538
52521SOL    HW259338   3.127  11.607   4.416
52522SOL     OW59339  12.265   1.195   1.240
52522SOL    HW159340  12.314   1.117   1.266
52522SOL    HW259341  12.215   1.218   1.319
52523SOL     OW59342   0.837   9.442   1.419
52523SOL    HW159343   0.783   9.432   1.498
52523SOL    HW259344   0.920   9.399   1.442
52524SOL     OW59345   2.061   6.577  11.339
52524SOL    HW159346   2.090   6.617  11.420
52524SOL    HW259347   1.988   6.631  11.310
52525SOL     OW59348  12.552   6.501   4.297
52525SOL    HW159349  12.523   6.575   4.352
52525SOL    HW259350  12.608   6.449   4.354
52526SOL     OW59351   0.940   9.056   6.744
52526SOL    HW159352   0.919   9.083   6.655
52526SOL    HW259353   0.981   9.133   6.783
52527SOL     OW59354  12.299   4.734   1.261
52527SOL    HW159355  12.205   4.722   1.249
52527SOL    HW259356  12.313   4.827   1.244
52528SOL     OW59357   7.699   4.044   3.308
52528SOL    HW159358   7.784   4.011   3.278
52528SOL    HW259359   7.651   3.966   3.334
52529SOL     OW59360   5.628   8.451   4.133
52529SOL    HW159361   5.588   8.514   4.193
52529SOL    HW259362   5.702   8.414   4.183
52530SOL     OW59363  12.708   5.430   7.643
52530SOL    HW159364  12.749   5.408   7.559
52530SOL    HW259365  12.664   5.513   7.628
52531SOL     OW59366  13.898  13.829   7.212
52531SOL    HW159367  13.914  13.777   7.133
52531SOL    HW259368  13.837  13.776   7.263
52532SOL     OW59369   1.508  10.768  13.566
52532SOL    HW159370   1.471  10.822  13.496
52532SOL    HW259371   1.551  10.696  13.520
52533SOL     OW59372   3.715  12.815  12.769
52533SOL    HW159373   3.643  12.873  12.792
52533SOL    HW259374   3.676  12.747  12.715
52534SOL     OW59375   9.922   2.454   2.562
52534SOL    HW159376   9.850   2.516   2.568
52534SOL    HW259377  10.001   2.509   2.567
52535SOL     OW59378   0.259  11.089   6.415
52535SOL    HW159379   0.258  11.035   6.335
52535SOL    HW259380   0.351  11.112   6.427
52536SOL     OW59381  14.432   6.467   6.988
52536SOL    HW159382  14.368   6.465   6.917
52536SOL    HW259383  14.477   6.383   6.982
52537SOL     OW59384   3.839   5.089  11.833
52537SOL    HW159385   3.812   5.076  11.742
52537SOL    HW259386   3.922   5.041  11.840
52538SOL     OW59387  14.563   7.648   5.121
52538SOL    HW159388  14.552   7.656   5.026
52538SOL    HW259389  14.619   7.722   5.145
52539SOL     OW59390   7.632   1.932   7.776
52539SOL    HW159391   7.594   1.965   7.694
52539SOL    HW259392   7.633   1.837   7.765
52540SOL     OW59393   8.059   6.899  14.635
52540SOL    HW159394   7.981   6.850  14.607
52540SOL    HW259395   8.032   6.990  14.634
52541SOL     OW59396   5.211   1.288  14.511
52541SOL    HW159397   5.216   1.360  14.574
52541SOL    HW259398   5.278   1.307  14.446
52542SOL     OW59399  13.074   4.560  14.865
52542SOL    HW159400  13.064   4.466  14.849
52542SOL    HW259401  13.116   4.565   0.073
52543SOL     OW59402  13.712   6.447   0.277
52543SOL    HW159403  13.740   6.503   0.349
52543SOL    HW259404  13.670   6.372   0.319
52544SOL     OW59405   7.891   3.410   1.132
52544SOL    HW159406   7.940   3.492   1.140
52544SOL    HW259407   7.801   3.437   1.116
52545SOL     OW59408   8.539   6.106  14.463
52545SOL    HW159409   8.476   6.087  14.533
52545SOL    HW259410   8.484   6.126  14.387
52546SOL     OW59411   1.411  12.974   1.103
52546SOL    HW159412   1.485  13.035   1.098
52546SOL    HW259413   1.410  12.945   1.194
52547SOL     OW59414   5.084   1.456   4.850
52547SOL    HW159415   5.082   1.551   4.834
52547SOL    HW259416   4.995   1.428   4.829
52548SOL     OW59417  12.516   9.625   7.061
52548SOL    HW159418  12.539   9.716   7.078
52548SOL    HW259419  12.590   9.574   7.094
52549SOL     OW59420   3.996   0.878   4.208
52549SOL    HW159421   4.022   0.825   4.284
52549SOL    HW259422   3.955   0.955   4.246
52550SOL     OW59423   4.484   1.925   8.141
52550SOL    HW159424   4.474   1.908   8.235
52550SOL    HW259425   4.569   1.886   8.119
52551SOL     OW59426   8.710   0.852   4.236
52551SOL    HW159427   8.670   0.797   4.169
52551SOL    HW259428   8.791   0.808   4.259
52552SOL     OW59429   7.079  10.250   8.644
52552SOL    HW159430   7.171  10.271   8.630
52552SOL    HW259431   7.071  10.159   8.617
52553SOL     OW59432   6.511   3.309   8.901
52553SOL    HW159433   6.441   3.301   8.836
52553SOL    HW259434   6.472   3.362   8.971
52554SOL     OW59435   1.414   2.097   7.416
52554SOL    HW159436   1.482   2.032   7.433
52554SOL    HW259437   1.365   2.102   7.498
52555SOL     OW59438   5.655   4.141  12.691
52555SOL    HW159439   5.623   4.101  12.772
52555SOL    HW259440   5.718   4.079  12.657
52556SOL     OW59441  12.867  13.743   2.610
52556SOL    HW159442  12.845  13.678   2.543
52556SOL    HW259443  12.914  13.693   2.677
52557SOL     OW59444  11.247   7.526   4.918
52557SOL    HW159445  11.194   7.489   4.848
52557SOL    HW259446  11.324   7.469   4.923
52558SOL     OW59447  13.899  13.801   9.083
52558SOL    HW159448  13.911  13.869   9.016
52558SOL    HW259449  13.892  13.719   9.033
52559SOL     OW59450   3.388   0.801   4.014
52559SOL    HW159451   3.359   0.716   4.045
52559SOL    HW259452   3.479   0.787   3.988
52560SOL     OW59453   0.153  14.647   2.602
52560SOL    HW159454   0.116  14.561   2.585
52560SOL    HW259455   0.243  14.630   2.630
52561SOL     OW59456   8.165  13.114   3.186
52561SOL    HW159457   8.100  13.161   3.238
52561SOL    HW259458   8.114  13.066   3.121
52562SOL     OW59459   0.353  13.452  12.669
52562SOL    HW159460   0.361  13.528  12.611
52562SOL    HW259461   0.355  13.490  12.757
52563SOL     OW59462   6.265   6.580  13.243
52563SOL    HW159463   6.309   6.499  13.267
52563SOL    HW259464   6.175   6.553  13.224
52564SOL     OW59465  10.305   2.739   7.298
52564SOL    HW159466  10.235   2.718   7.237
52564SOL    HW259467  10.266   2.799   7.361
52565SOL     OW59468  12.323   4.304  11.122
52565SOL    HW159469  12.380   4.350  11.184
52565SOL    HW259470  12.234   4.332  11.146
52566SOL     OW59471   6.159   1.205   6.521
52566SOL    HW159472   6.194   1.163   6.600
52566SOL    HW259473   6.175   1.298   6.534
52567SOL     OW59474   9.469   9.665   7.177
52567SOL    HW159475   9.513   9.622   7.103
52567SOL    HW259476   9.479   9.604   7.250
52568SOL     OW59477   9.220   6.065   1.479
52568SOL    HW159478   9.184   6.027   1.399
52568SOL    HW259479   9.144   6.080   1.535
52569SOL     OW59480   6.454   3.450  11.820
52569SOL    HW159481   6.395   3.379  11.794
52569SOL    HW259482   6.397   3.519  11.851
52570SOL     OW59483   7.307   5.173  13.270
52570SOL    HW159484   7.357   5.124  13.205
52570SOL    HW259485   7.303   5.262  13.235
52571SOL     OW59486   7.776   9.022   6.081
52571SOL    HW159487   7.753   8.963   6.010
52571SOL    HW259488   7.846   8.977   6.128
52572SOL     OW59489  11.535  12.851  11.309
52572SOL    HW159490  11.496  12.876  11.226
52572SOL    HW259491  11.476  12.887  11.375
52573SOL     OW59492   0.701   9.200   5.767
52573SOL    HW159493   0.751   9.248   5.832
52573SOL    HW259494   0.611   9.203   5.800
52574SOL     OW59495  11.823  10.655  10.319
52574SOL    HW159496  11.730  10.656  10.296
52574SOL    HW259497  11.869  10.640  10.237
52575SOL     OW59498   9.439   1.284  13.315
52575SOL    HW159499   9.520   1.259  13.358
52575SOL    HW259500   9.462   1.292  13.222
52576SOL     OW59501   6.095  13.553  14.464
52576SOL    HW159502   6.123  13.560  14.556
52576SOL    HW259503   6.158  13.607  14.416
52577SOL     OW59504   3.873  12.395   6.853
52577SOL    HW159505   3.897  12.404   6.761
52577SOL    HW259506   3.891  12.303   6.874
52578SOL     OW59507   0.427   8.028   0.629
52578SOL    HW159508   0.368   7.986   0.691
52578SOL    HW259509   0.511   8.030   0.673
52579SOL     OW59510  13.965   7.517  10.110
52579SOL    HW159511  13.950   7.564  10.028
52579SOL    HW259512  14.009   7.436  10.083
52580SOL     OW59513  14.053   4.339   0.010
52580SOL    HW159514  14.049   4.355  14.793
52580SOL    HW259515  14.002   4.411   0.048
52581SOL     OW59516   9.906   3.427   5.482
52581SOL    HW159517   9.845   3.419   5.555
52581SOL    HW259518   9.923   3.337   5.455
52582SOL     OW59519  10.008   1.604   5.677
52582SOL    HW159520   9.969   1.668   5.737
52582SOL    HW259521   9.980   1.519   5.710
52583SOL     OW59522   2.723   9.661  14.179
52583SOL    HW159523   2.727   9.566  14.189
52583SOL    HW259524   2.633   9.684  14.202
52584SOL     OW59525   1.054   5.419   2.720
52584SOL    HW159526   1.046   5.339   2.668
52584SOL    HW259527   1.078   5.389   2.808
52585SOL     OW59528   5.228   7.073   7.694
52585SOL    HW159529   5.193   7.088   7.782
52585SOL    HW259530   5.252   6.980   7.694
52586SOL     OW59531   4.540   5.373   4.383
52586SOL    HW159532   4.589   5.292   4.375
52586SOL    HW259533   4.499   5.386   4.297
52587SOL     OW59534   6.437  13.257   7.406
52587SOL    HW159535   6.350  13.223   7.427
52587SOL    HW259536   6.466  13.299   7.487
52588SOL     OW59537   0.865   5.781   5.975
52588SOL    HW159538   0.827   5.728   5.906
52588SOL    HW259539   0.790   5.820   6.020
52589SOL     OW59540   0.291  12.501  11.073
52589SOL    HW159541   0.250  12.527  11.156
52589SOL    HW259542   0.365  12.561  11.063
52590SOL     OW59543   5.392   7.397   7.933
52590SOL    HW159544   5.361   7.319   7.888
52590SOL    HW259545   5.446   7.364   8.004
52591SOL     OW59546   9.538   9.191  12.424
52591SOL    HW159547   9.531   9.168  12.517
52591SOL    HW259548   9.598   9.127  12.387
52592SOL     OW59549   9.595  10.192   5.996
52592SOL    HW159550   9.638  10.130   5.938
52592SOL    HW259551   9.502  10.169   5.991
52593SOL     OW59552   3.886   7.685   2.813
52593SOL    HW159553   3.946   7.745   2.768
52593SOL    HW259554   3.907   7.599   2.776
52594SOL     OW59555   7.999  13.195   5.956
52594SOL    HW159556   8.091  13.186   5.933
52594SOL    HW259557   7.952  13.146   5.889
52595SOL     OW59558   1.256  11.118   5.339
52595SOL    HW159559   1.183  11.147   5.395
52595SOL    HW259560   1.277  11.031   5.371
52596SOL     OW59561  13.918   0.198  14.624
52596SOL    HW159562  13.914   0.221  14.717
52596SOL    HW259563  13.869   0.268  14.580
52597SOL     OW59564   6.190   4.350   4.883
52597SOL    HW159565   6.122   4.331   4.819
52597SOL    HW259566   6.174   4.288   4.954
52598SOL     OW59567   3.959   6.375  11.226
52598SOL    HW159568   3.972   6.310  11.157
52598SOL    HW259569   4.001   6.337  11.303
52599SOL     OW59570   9.128   1.671   0.941
52599SOL    HW159571   9.155   1.584   0.910
52599SOL    HW259572   9.121   1.724   0.862
52600SOL     OW59573   2.100   8.778  13.637
52600SOL    HW159574   2.156   8.785  13.560
52600SOL    HW259575   2.137   8.705  13.687
52601SOL     OW59576  12.624  13.947  11.513
52601SOL    HW159577  12.551  13.955  11.574
52601SOL    HW259578  12.633  13.853  11.498
52602SOL     OW59579  10.059  11.977  13.581
52602SOL    HW159580  10.000  12.026  13.638
52602SOL    HW259581  10.016  11.977  13.496
52603SOL     OW59582   1.556  13.610   3.694
52603SOL    HW159583   1.464  13.629   3.715
52603SOL    HW259584   1.590  13.693   3.661
52604SOL     OW59585  14.513  13.218   8.333
52604SOL    HW159586  14.502  13.308   8.302
52604SOL    HW259587  14.433  13.200   8.383
52605SOL     OW59588   2.171   7.084   5.677
52605SOL    HW159589   2.199   7.000   5.641
52605SOL    HW259590   2.252   7.128   5.702
52606SOL     OW59591   4.976   9.556  13.526
52606SOL    HW159592   5.009   9.590  13.609
52606SOL    HW259593   5.052   9.559  13.467
52607SOL     OW59594   6.776   7.774   2.559
52607SOL    HW159595   6.849   7.826   2.526
52607SOL    HW259596   6.698   7.826   2.540
52608SOL     OW59597   9.262  10.165   7.858
52608SOL    HW159598   9.177  10.152   7.815
52608SOL    HW259599   9.249  10.131   7.947
52609SOL     OW59600   3.336  12.477   1.056
52609SOL    HW159601   3.393  12.547   1.088
52609SOL    HW259602   3.317  12.424   1.133
52610SOL     OW59603  12.442  12.162  14.787
52610SOL    HW159604  12.482  12.217  14.720
52610SOL    HW259605  12.410  12.086  14.739
52611SOL     OW59606   6.992   6.883  11.104
52611SOL    HW159607   7.008   6.788  11.099
52611SOL    HW259608   7.076   6.922  11.080
52612SOL     OW59609   8.043   0.515   2.140
52612SOL    HW159610   8.079   0.587   2.087
52612SOL    HW259611   8.002   0.457   2.076
52613SOL     OW59612   1.430   0.931   2.404
52613SOL    HW159613   1.499   0.865   2.414
52613SOL    HW259614   1.411   0.930   2.310
52614SOL     OW59615   9.845  11.236  13.047
52614SOL    HW159616   9.813  11.184  13.121
52614SOL    HW259617   9.774  11.232  12.983
52615SOL     OW59618   4.488  10.320   7.728
52615SOL    HW159619   4.515  10.234   7.695
52615SOL    HW259620   4.425  10.352   7.663
52616SOL     OW59621   2.844   2.358   9.470
52616SOL    HW159622   2.822   2.268   9.445
52616SOL    HW259623   2.825   2.362   9.563
52617SOL     OW59624   2.050   8.595   6.512
52617SOL    HW159625   2.047   8.551   6.427
52617SOL    HW259626   2.067   8.526   6.575
52618SOL     OW59627   4.482   7.487  13.989
52618SOL    HW159628   4.456   7.406  13.945
52618SOL    HW259629   4.417   7.551  13.962
52619SOL     OW59630   7.073   7.296  11.155
52619SOL    HW159631   7.149   7.277  11.209
52619SOL    HW259632   7.056   7.215  11.107
52620SOL     OW59633   6.566   0.404  11.705
52620SOL    HW159634   6.622   0.327  11.699
52620SOL    HW259635   6.479   0.373  11.681
52621SOL     OW59636   2.860  12.067   9.181
52621SOL    HW159637   2.812  12.008   9.123
52621SOL    HW259638   2.867  12.149   9.132
52622SOL     OW59639   8.886  10.848  14.656
52622SOL    HW159640   8.818  10.869  14.592
52622SOL    HW259641   8.878  10.754  14.669
52623SOL     OW59642  12.565  13.403  14.705
52623SOL    HW159643  12.618  13.476  14.736
52623SOL    HW259644  12.512  13.440  14.634
52624SOL     OW59645  14.499  12.940   4.801
52624SOL    HW159646  14.577  12.885   4.789
52624SOL    HW259647  14.467  12.917   4.889
52625SOL     OW59648  10.215  13.722   0.886
52625SOL    HW159649  10.145  13.763   0.937
52625SOL    HW259650  10.174  13.699   0.802
52626SOL     OW59651   6.654  14.460  12.987
52626SOL    HW159652   6.607  14.523  12.933
52626SOL    HW259653   6.707  14.410  12.925
52627SOL     OW59654   3.024   2.216  11.657
52627SOL    HW159655   3.093   2.213  11.722
52627SOL    HW259656   3.061   2.172  11.580
52628SOL     OW59657  13.954   5.567  11.387
52628SOL    HW159658  13.884   5.543  11.447
52628SOL    HW259659  14.023   5.603  11.443
52629SOL     OW59660  10.916  11.612   7.598
52629SOL    HW159661  10.886  11.619   7.508
52629SOL    HW259662  11.011  11.600   7.592
52630SOL     OW59663   7.563   4.050   2.380
52630SOL    HW159664   7.597   4.006   2.302
52630SOL    HW259665   7.506   3.986   2.422
52631SOL     OW59666   6.959   7.804  12.647
52631SOL    HW159667   6.992   7.819  12.559
52631SOL    HW259668   6.996   7.875  12.699
52632SOL     OW59669   8.936   7.986   3.957
52632SOL    HW159670   8.905   7.998   3.867
52632SOL    HW259671   8.902   8.062   4.004
52633SOL     OW59672   5.331   7.441   8.227
52633SOL    HW159673   5.426   7.431   8.223
52633SOL    HW259674   5.297   7.353   8.213
52634SOL     OW59675  11.833   0.307   2.825
52634SOL    HW159676  11.882   0.225   2.827
52634SOL    HW259677  11.849   0.343   2.737
52635SOL     OW59678  11.282   4.045   4.519
52635SOL    HW159679  11.308   4.101   4.592
52635SOL    HW259680  11.193   4.073   4.498
52636SOL     OW59681   1.379  12.425   6.473
52636SOL    HW159682   1.468  12.397   6.452
52636SOL    HW259683   1.359  12.382   6.556
52637SOL     OW59684  11.910   3.063   1.850
52637SOL    HW159685  11.855   3.137   1.826
52637SOL    HW259686  11.974   3.056   1.779
52638SOL     OW59687  13.330   3.041   5.021
52638SOL    HW159688  13.269   2.968   5.028
52638SOL    HW259689  13.416   3.002   5.035
52639SOL     OW59690   7.179  13.985   0.329
52639SOL    HW159691   7.163  13.949   0.416
52639SOL    HW259692   7.208  13.911   0.276
52640SOL     OW59693  13.537   8.641  10.242
52640SOL    HW159694  13.587   8.636  10.161
52640SOL    HW259695  13.446   8.643  10.214
52641SOL     OW59696  14.434  13.656  13.691
52641SOL    HW159697  14.510  13.619  13.736
52641SOL    HW259698  14.401  13.584  13.637
52642SOL     OW59699  12.965   8.927   3.715
52642SOL    HW159700  12.987   8.984   3.641
52642SOL    HW259701  12.893   8.973   3.759
52643SOL     OW59702   9.048  10.021   7.099
52643SOL    HW159703   9.039   9.950   7.036
52643SOL    HW259704   9.086   9.981   7.177
52644SOL     OW59705   5.744   5.513   9.535
52644SOL    HW159706   5.724   5.421   9.554
52644SOL    HW259707   5.840   5.517   9.532
52645SOL     OW59708   7.489  11.836   3.230
52645SOL    HW159709   7.440  11.754   3.225
52645SOL    HW259710   7.477  11.876   3.144
52646SOL     OW59711   7.323  14.252   7.134
52646SOL    HW159712   7.246  14.216   7.177
52646SOL    HW259713   7.386  14.180   7.131
52647SOL     OW59714   9.165  12.071   4.019
52647SOL    HW159715   9.202  12.111   4.098
52647SOL    HW259716   9.071  12.086   4.027
52648SOL     OW59717   0.577   0.817   8.229
52648SOL    HW159718   0.590   0.879   8.301
52648SOL    HW259719   0.506   0.856   8.177
52649SOL     OW59720   1.843   7.036   1.240
52649SOL    HW159721   1.838   7.054   1.146
52649SOL    HW259722   1.838   7.123   1.281
52650SOL     OW59723   3.998  10.150   8.349
52650SOL    HW159724   4.015  10.117   8.260
52650SOL    HW259725   4.084  10.158   8.389
52651SOL     OW59726   6.790  12.917  11.449
52651SOL    HW159727   6.737  12.986  11.489
52651SOL    HW259728   6.880  12.936  11.476
52652SOL     OW59729  10.602  13.178  12.902
52652SOL    HW159730  10.562  13.162  12.817
52652SOL    HW259731  10.688  13.217  12.882
52653SOL     OW59732   7.557   1.856  11.673
52653SOL    HW159733   7.561   1.945  11.710
52653SOL    HW259734   7.615   1.860  11.596
52654SOL     OW59735  13.136  10.556   6.175
52654SOL    HW159736  13.154  10.470   6.214
52654SOL    HW259737  13.193  10.616   6.224
52655SOL     OW59738   7.411  14.217   8.405
52655SOL    HW159739   7.353  14.274   8.456
52655SOL    HW259740   7.353  14.172   8.344
52656SOL     OW59741   9.791  14.579   6.388
52656SOL    HW159742   9.879  14.540   6.387
52656SOL    HW259743   9.791  14.635   6.465
52657SOL     OW59744  12.122   8.670   4.124
52657SOL    HW159745  12.173   8.723   4.185
52657SOL    HW259746  12.167   8.678   4.040
52658SOL     OW59747   9.815   0.469   4.708
52658SOL    HW159748   9.906   0.452   4.685
52658SOL    HW259749   9.790   0.544   4.653
52659SOL     OW59750   9.467   1.069   9.493
52659SOL    HW159751   9.517   1.034   9.567
52659SOL    HW259752   9.405   0.999   9.470
52660SOL     OW59753  10.577   8.863  11.578
52660SOL    HW159754  10.590   8.840  11.486
52660SOL    HW259755  10.650   8.821  11.624
52661SOL     OW59756  10.927  12.110  11.374
52661SOL    HW159757  10.882  12.048  11.317
52661SOL    HW259758  11.013  12.070  11.389
52662SOL     OW59759   3.894   8.862  13.576
52662SOL    HW159760   3.925   8.773  13.561
52662SOL    HW259761   3.799   8.852  13.589
52663SOL     OW59762  12.613  10.299   9.410
52663SOL    HW159763  12.666  10.256   9.477
52663SOL    HW259764  12.626  10.393   9.425
52664SOL     OW59765   5.975  12.588  11.119
52664SOL    HW159766   5.983  12.657  11.185
52664SOL    HW259767   5.886  12.598  11.084
52665SOL     OW59768   8.324   5.727   7.796
52665SOL    HW159769   8.361   5.737   7.708
52665SOL    HW259770   8.277   5.809   7.811
52666SOL     OW59771   0.203  14.302   1.717
52666SOL    HW159772   0.233  14.329   1.804
52666SOL    HW259773   0.283  14.298   1.665
52667SOL     OW59774   0.623   4.364   9.981
52667SOL    HW159775   0.649   4.421  10.053
52667SOL    HW259776   0.580   4.423   9.918
52668SOL     OW59777   8.662   1.497  13.481
52668SOL    HW159778   8.685   1.533  13.395
52668SOL    HW259779   8.640   1.406  13.464
52669SOL     OW59780  14.568   9.078  11.860
52669SOL    HW159781  14.656   9.112  11.846
52669SOL    HW259782  14.518   9.108  11.784
52670SOL     OW59783  14.578  13.802   7.722
52670SOL    HW159784  14.645  13.754   7.673
52670SOL    HW259785  14.508  13.816   7.658
52671SOL     OW59786   5.582   8.593   7.252
52671SOL    HW159787   5.520   8.589   7.325
52671SOL    HW259788   5.668   8.603   7.294
52672SOL     OW59789  14.774   8.017  10.664
52672SOL    HW159790  14.795   8.084  10.729
52672SOL    HW259791  14.834   8.034  10.591
52673SOL     OW59792   9.083   5.371   6.532
52673SOL    HW159793   9.166   5.380   6.484
52673SOL    HW259794   9.033   5.308   6.481
52674SOL     OW59795   0.438   8.586  13.336
52674SOL    HW159796   0.483   8.663  13.371
52674SOL    HW259797   0.350   8.590  13.373
52675SOL     OW59798   6.922   1.158   2.695
52675SOL    HW159799   6.917   1.201   2.610
52675SOL    HW259800   6.893   1.225   2.757
52676SOL     OW59801  12.778   2.268  11.712
52676SOL    HW159802  12.782   2.287  11.618
52676SOL    HW259803  12.758   2.175  11.717
52677SOL     OW59804  12.176   0.414  11.543
52677SOL    HW159805  12.251   0.354  11.541
52677SOL    HW259806  12.118   0.383  11.473
52678SOL     OW59807   5.301   5.825   4.464
52678SOL    HW159808   5.310   5.895   4.399
52678SOL    HW259809   5.384   5.779   4.461
52679SOL     OW59810  13.330   4.588   8.151
52679SOL    HW159811  13.346   4.499   8.183
52679SOL    HW259812  13.235   4.596   8.147
52680SOL     OW59813  11.566   7.544   8.635
52680SOL    HW159814  11.549   7.454   8.663
52680SOL    HW259815  11.661   7.553   8.639
52681SOL     OW59816   7.490   1.862   0.561
52681SOL    HW159817   7.404   1.858   0.520
52681SOL    HW259818   7.513   1.770   0.578
52682SOL     OW59819   6.707   7.962   5.433
52682SOL    HW159820   6.661   7.896   5.381
52682SOL    HW259821   6.643   7.990   5.499
52683SOL     OW59822   9.968   0.877  11.459
52683SOL    HW159823   9.927   0.795  11.431
52683SOL    HW259824   9.895   0.931  11.488
52684SOL     OW59825   2.674   9.438   3.836
52684SOL    HW159826   2.612   9.369   3.812
52684SOL    HW259827   2.637   9.476   3.916
52685SOL     OW59828   3.051  10.827   6.356
52685SOL    HW159829   3.112  10.849   6.285
52685SOL    HW259830   2.989  10.766   6.316
52686SOL     OW59831  14.759   1.761  10.402
52686SOL    HW159832  14.708   1.747  10.483
52686SOL    HW259833  14.849   1.770  10.432
52687SOL     OW59834  11.205  13.987   8.825
52687SOL    HW159835  11.292  13.960   8.857
52687SOL    HW259836  11.223  14.063   8.770
52688SOL     OW59837   6.269   2.684  12.535
52688SOL    HW159838   6.326   2.717  12.466
52688SOL    HW259839   6.212   2.758  12.556
52689SOL     OW59840   6.354   7.620  11.796
52689SOL    HW159841   6.335   7.629  11.889
52689SOL    HW259842   6.327   7.530  11.774
52690SOL     OW59843  13.297  11.745   1.843
52690SOL    HW159844  13.204  11.766   1.842
52690SOL    HW259845  13.300  11.650   1.855
52691SOL     OW59846   7.878   9.411   4.413
52691SOL    HW159847   7.786   9.392   4.397
52691SOL    HW259848   7.882   9.505   4.428
52692SOL     OW59849   7.870   7.609  11.910
52692SOL    HW159850   7.937   7.591  11.977
52692SOL    HW259851   7.909   7.576  11.829
52693SOL     OW59852   3.223   3.326  14.393
52693SOL    HW159853   3.313   3.348  14.369
52693SOL    HW259854   3.215   3.233  14.372
52694SOL     OW59855   0.276   7.482   9.146
52694SOL    HW159856   0.243   7.537   9.075
52694SOL    HW259857   0.202   7.474   9.206
52695SOL     OW59858   6.689   3.623   0.796
52695SOL    HW159859   6.607   3.671   0.809
52695SOL    HW259860   6.743   3.649   0.871
52696SOL     OW59861   2.047   0.757   9.356
52696SOL    HW159862   2.050   0.729   9.447
52696SOL    HW259863   1.966   0.809   9.350
52697SOL     OW59864  10.101   5.990   5.441
52697SOL    HW159865  10.034   6.058   5.432
52697SOL    HW259866  10.115   5.957   5.352
52698SOL     OW59867  13.951  12.310  10.447
52698SOL    HW159868  13.923  12.296  10.537
52698SOL    HW259869  13.974  12.403  10.442
52699SOL     OW59870  11.192   5.361  12.312
52699SOL    HW159871  11.165   5.306  12.386
52699SOL    HW259872  11.224   5.441  12.352
52700SOL     OW59873   9.460  11.605   9.306
52700SOL    HW159874   9.382  11.654   9.281
52700SOL    HW259875   9.438  11.514   9.286
52701SOL     OW59876   6.643   7.693   5.325
52701SOL    HW159877   6.656   7.751   5.250
52701SOL    HW259878   6.652   7.605   5.289
52702SOL     OW59879   5.835  10.938   2.463
52702SOL    HW159880   5.847  10.867   2.400
52702SOL    HW259881   5.924  10.968   2.481
52703SOL     OW59882  11.276   3.324   3.812
52703SOL    HW159883  11.359   3.291   3.777
52703SOL    HW259884  11.233   3.365   3.737
52704SOL     OW59885  12.937   6.348   8.615
52704SOL    HW159886  12.971   6.365   8.527
52704SOL    HW259887  12.894   6.429   8.641
52705SOL     OW59888   0.771   5.678   2.374
52705SOL    HW159889   0.751   5.595   2.418
52705SOL    HW259890   0.699   5.689   2.311
52706SOL     OW59891  11.481   9.968  14.096
52706SOL    HW159892  11.565  10.013  14.100
52706SOL    HW259893  11.418  10.033  14.127
52707SOL     OW59894   7.767   7.887   2.119
52707SOL    HW159895   7.782   7.816   2.182
52707SOL    HW259896   7.791   7.848   2.034
52708SOL     OW59897   0.513  13.164   8.146
52708SOL    HW159898   0.468  13.178   8.230
52708SOL    HW259899   0.452  13.195   8.080
52709SOL     OW59900   9.273   7.149   9.405
52709SOL    HW159901   9.255   7.148   9.499
52709SOL    HW259902   9.368   7.141   9.398
52710SOL     OW59903  12.998  11.270  11.762
52710SOL    HW159904  13.025  11.194  11.814
52710SOL    HW259905  12.991  11.341  11.826
52711SOL     OW59906  13.411   0.918   8.422
52711SOL    HW159907  13.463   0.984   8.377
52711SOL    HW259908  13.404   0.950   8.512
52712SOL     OW59909  10.360   3.204  10.316
52712SOL    HW159910  10.416   3.207  10.393
52712SOL    HW259911  10.393   3.131  10.264
52713SOL     OW59912   5.222  12.165   6.008
52713SOL    HW159913   5.304  12.119   5.990
52713SOL    HW259914   5.230  12.193   6.099
52714SOL     OW59915   2.846  10.295  12.098
52714SOL    HW159916   2.915  10.309  12.163
52714SOL    HW259917   2.832  10.201  12.096
52715SOL     OW59918  13.016  12.056   6.917
52715SOL    HW159919  13.061  11.998   6.979
52715SOL    HW259920  13.079  12.070   6.846
52716SOL     OW59921   1.227   6.117   9.701
52716SOL    HW159922   1.241   6.104   9.795
52716SOL    HW259923   1.313   6.138   9.666
52717SOL     OW59924  11.476  11.894   7.742
52717SOL    HW159925  11.392  11.849   7.742
52717SOL    HW259926  11.527  11.849   7.810
52718SOL     OW59927  12.910   0.675   0.841
52718SOL    HW159928  12.994   0.660   0.798
52718SOL    HW259929  12.845   0.660   0.772
52719SOL     OW59930   0.303   8.978  13.451
52719SOL    HW159931   0.239   8.936  13.392
52719SOL    HW259932   0.249   9.023  13.516
52720SOL     OW59933   5.361  11.168  11.005
52720SOL    HW159934   5.388  11.243  10.951
52720SOL    HW259935   5.265  11.175  11.007
52721SOL     OW59936  10.375  11.633   4.128
52721SOL    HW159937  10.283  11.639   4.153
52721SOL    HW259938  10.374  11.598   4.039
52722SOL     OW59939   2.378  11.740   4.161
52722SOL    HW159940   2.376  11.833   4.139
52722SOL    HW259941   2.445  11.703   4.103
52723SOL     OW59942   1.883  12.544   8.927
52723SOL    HW159943   1.955  12.485   8.951
52723SOL    HW259944   1.824  12.543   9.003
52724SOL     OW59945  13.541   4.938   8.278
52724SOL    HW159946  13.494   4.945   8.195
52724SOL    HW259947  13.486   4.882   8.332
52725SOL     OW59948   2.907  14.488  10.282
52725SOL    HW159949   3.001  14.473  10.278
52725SOL    HW259950   2.871  14.437  10.209
52726SOL     OW59951   2.235  14.595   4.993
52726SOL    HW159952   2.140  14.591   4.982
52726SOL    HW259953   2.266  14.648   4.920
52727SOL     OW59954   5.296  10.687   3.527
52727SOL    HW159955   5.239  10.750   3.483
52727SOL    HW259956   5.338  10.639   3.455
52728SOL     OW59957   0.668   3.468  10.071
52728SOL    HW159958   0.661   3.395  10.009
52728SOL    HW259959   0.651   3.546  10.017
52729SOL     OW59960   9.984   2.748   4.287
52729SOL    HW159961   9.948   2.679   4.231
52729SOL    HW259962  10.075   2.756   4.261
52730SOL     OW59963  13.817  14.318   2.628
52730SOL    HW159964  13.823  14.322   2.533
52730SOL    HW259965  13.784  14.231   2.647
52731SOL     OW59966   9.402   6.076   7.008
52731SOL    HW159967   9.494   6.062   7.033
52731SOL    HW259968   9.387   6.012   6.938
52732SOL     OW59969  12.068   0.840   5.183
52732SOL    HW159970  11.986   0.846   5.234
52732SOL    HW259971  12.136   0.870   5.244
52733SOL     OW59972  11.956   7.729   7.113
52733SOL    HW159973  11.876   7.755   7.068
52733SOL    HW259974  12.022   7.724   7.044
52734SOL     OW59975  13.368   3.727  14.561
52734SOL    HW159976  13.374   3.652  14.501
52734SOL    HW259977  13.399   3.693  14.645
52735SOL     OW59978   6.750   1.971  10.131
52735SOL    HW159979   6.798   2.024  10.194
52735SOL    HW259980   6.750   2.022  10.050
52736SOL     OW59981   5.939  13.108   9.501
52736SOL    HW159982   6.032  13.092   9.482
52736SOL    HW259983   5.924  13.061   9.584
52737SOL     OW59984  10.394   5.093   8.997
52737SOL    HW159985  10.375   5.186   8.986
52737SOL    HW259986  10.462   5.074   8.931
52738SOL     OW59987   7.294   2.851   4.072
52738SOL    HW159988   7.330   2.925   4.023
52738SOL    HW259989   7.311   2.874   4.164
52739SOL     OW59990   6.006   7.485  14.638
52739SOL    HW159991   6.024   7.467  14.545
52739SOL    HW259992   6.064   7.557  14.660
52740SOL     OW59993  13.052   4.264  12.315
52740SOL    HW159994  13.070   4.181  12.271
52740SOL    HW259995  13.062   4.245  12.408
52741SOL     OW59996   9.225   0.260   7.947
52741SOL    HW159997   9.215   0.322   7.876
52741SOL    HW259998   9.191   0.178   7.913
52742SOL     OW59999   3.505   7.221   3.083
52742SOL    HW160000   3.474   7.205   3.172
52742SOL    HW260001   3.565   7.295   3.091
52743SOL     OW60002   0.385  12.871  11.844
52743SOL    HW160003   0.295  12.840  11.841
52743SOL    HW260004   0.428  12.828  11.770
52744SOL     OW60005   1.558  14.413   7.677
52744SOL    HW160006   1.498  14.369   7.738
52744SOL    HW260007   1.592  14.488   7.726
52745SOL     OW60008   7.435   8.882   7.010
52745SOL    HW160009   7.475   8.819   6.951
52745SOL    HW260010   7.452   8.847   7.098
52746SOL     OW60011   3.804   4.266  10.287
52746SOL    HW160012   3.892   4.282  10.321
52746SOL    HW260013   3.746   4.315  10.346
52747SOL     OW60014  12.416   1.176  13.410
52747SOL    HW160015  12.464   1.101  13.445
52747SOL    HW260016  12.357   1.138  13.345
52748SOL     OW60017   8.542   1.346   4.901
52748SOL    HW160018   8.572   1.282   4.836
52748SOL    HW260019   8.514   1.293   4.976
52749SOL     OW60020  13.170  14.368  12.273
52749SOL    HW160021  13.088  14.328  12.245
52749SOL    HW260022  13.187  14.331  12.359
52750SOL     OW60023   8.726  11.159  10.156
52750SOL    HW160024   8.705  11.169  10.249
52750SOL    HW260025   8.648  11.117  10.119
52751SOL     OW60026   7.607   3.745   2.993
52751SOL    HW160027   7.565   3.703   2.918
52751SOL    HW260028   7.606   3.839   2.973
52752SOL     OW60029   0.977   1.492  10.138
52752SOL    HW160030   0.889   1.469  10.167
52752SOL    HW260031   1.007   1.415  10.089
52753SOL     OW60032  12.695   9.150   7.314
52753SOL    HW160033  12.672   9.109   7.231
52753SOL    HW260034  12.620   9.204   7.336
52754SOL     OW60035   2.204  11.900   6.873
52754SOL    HW160036   2.111  11.908   6.850
52754SOL    HW260037   2.230  11.815   6.838
52755SOL     OW60038   0.035   3.346  10.901
52755SOL    HW160039  14.844   3.302  10.951
52755SOL    HW260040  14.867   3.382  10.824
52756SOL     OW60041   9.412   2.831   2.891
52756SOL    HW160042   9.355   2.833   2.815
52756SOL    HW260043   9.479   2.765   2.870
52757SOL     OW60044   8.367   0.668  11.405
52757SOL    HW160045   8.440   0.612  11.380
52757SOL    HW260046   8.338   0.633  11.489
52758SOL     OW60047  13.523   9.741   9.483
52758SOL    HW160048  13.496   9.789   9.405
52758SOL    HW260049  13.442   9.710   9.522
52759SOL     OW60050  10.745   4.450   4.133
52759SOL    HW160051  10.663   4.441   4.182
52759SOL    HW260052  10.814   4.441   4.199
52760SOL     OW60053   7.625   4.083   9.066
52760SOL    HW160054   7.529   4.080   9.070
52760SOL    HW260055   7.652   4.106   9.155
52761SOL     OW60056  13.482   0.609   3.921
52761SOL    HW160057  13.414   0.651   3.868
52761SOL    HW260058  13.480   0.517   3.894
52762SOL     OW60059   8.054  10.597   7.426
52762SOL    HW160060   7.998  10.530   7.386
52762SOL    HW260061   8.128  10.605   7.366
52763SOL     OW60062   7.551   6.168   3.660
52763SOL    HW160063   7.578   6.160   3.569
52763SOL    HW260064   7.456   6.154   3.658
52764SOL     OW60065  14.623   3.329   5.440
52764SOL    HW160066  14.668   3.245   5.449
52764SOL    HW260067  14.685   3.384   5.392
52765SOL     OW60068  12.783   7.353  12.126
52765SOL    HW160069  12.759   7.275  12.075
52765SOL    HW260070  12.860   7.325  12.176
52766SOL     OW60071   8.466   6.366   8.942
52766SOL    HW160072   8.495   6.303   9.007
52766SOL    HW260073   8.496   6.451   8.976
52767SOL     OW60074   3.365   2.751   8.663
52767SOL    HW160075   3.341   2.662   8.638
52767SOL    HW260076   3.380   2.747   8.758
52768SOL     OW60077  10.138   6.212  10.033
52768SOL    HW160078  10.189   6.258   9.967
52768SOL    HW260079  10.110   6.281  10.094
52769SOL     OW60080   6.375  11.946  14.191
52769SOL    HW160081   6.401  11.905  14.274
52769SOL    HW260082   6.335  11.874  14.141
52770SOL     OW60083   1.033   9.939   5.850
52770SOL    HW160084   0.988   9.855   5.850
52770SOL    HW260085   1.044   9.961   5.943
52771SOL     OW60086   8.517  11.823  14.030
52771SOL    HW160087   8.575  11.886  13.986
52771SOL    HW260088   8.517  11.849  14.122
52772SOL     OW60089  12.396   5.103  10.261
52772SOL    HW160090  12.445   5.175  10.222
52772SOL    HW260091  12.445   5.024  10.237
52773SOL     OW60092  10.617   1.166   4.719
52773SOL    HW160093  10.633   1.248   4.672
52773SOL    HW260094  10.652   1.098   4.661
52774SOL     OW60095   8.722  10.780   7.453
52774SOL    HW160096   8.656  10.791   7.522
52774SOL    HW260097   8.724  10.685   7.438
52775SOL     OW60098  13.076   4.067   3.537
52775SOL    HW160099  13.009   4.135   3.531
52775SOL    HW260100  13.149   4.100   3.486
52776SOL     OW60101   4.311   5.119   6.419
52776SOL    HW160102   4.356   5.158   6.344
52776SOL    HW260103   4.257   5.189   6.455
52777SOL     OW60104   9.424   1.466   8.810
52777SOL    HW160105   9.429   1.371   8.804
52777SOL    HW260106   9.465   1.487   8.894
52778SOL     OW60107   3.889  10.981   6.078
52778SOL    HW160108   3.915  11.073   6.082
52778SOL    HW260109   3.970  10.934   6.060
52779SOL     OW60110   6.398   1.431  12.836
52779SOL    HW160111   6.374   1.509  12.885
52779SOL    HW260112   6.390   1.457  12.744
52780SOL     OW60113   1.319   9.743   0.414
52780SOL    HW160114   1.326   9.686   0.491
52780SOL    HW260115   1.259   9.812   0.441
52781SOL     OW60116   0.794  13.940   2.773
52781SOL    HW160117   0.804  13.901   2.687
52781SOL    HW260118   0.861  13.897   2.827
52782SOL     OW60119  11.240   7.337   4.269
52782SOL    HW160120  11.270   7.247   4.258
52782SOL    HW260121  11.158   7.329   4.318
52783SOL     OW60122   2.596  10.037   4.995
52783SOL    HW160123   2.634  10.043   4.908
52783SOL    HW260124   2.520   9.980   4.985
52784SOL     OW60125   7.432   8.999   4.614
52784SOL    HW160126   7.507   9.028   4.563
52784SOL    HW260127   7.375   8.955   4.552
52785SOL     OW60128  13.460   3.472   8.690
52785SOL    HW160129  13.408   3.537   8.642
52785SOL    HW260130  13.485   3.516   8.771
52786SOL     OW60131   7.811   0.379   4.520
52786SOL    HW160132   7.803   0.431   4.440
52786SOL    HW260133   7.756   0.302   4.505
52787SOL     OW60134   9.644   1.925  11.572
52787SOL    HW160135   9.587   1.886  11.506
52787SOL    HW260136   9.715   1.862  11.582
52788SOL     OW60137   7.874  12.148   7.626
52788SOL    HW160138   7.952  12.154   7.571
52788SOL    HW260139   7.863  12.054   7.642
52789SOL     OW60140   0.616   3.269   3.514
52789SOL    HW160141   0.607   3.216   3.593
52789SOL    HW260142   0.665   3.213   3.453
52790SOL     OW60143   5.102   8.317  11.303
52790SOL    HW160144   5.039   8.350  11.239
52790SOL    HW260145   5.073   8.352  11.387
52791SOL     OW60146   4.602   6.504   8.252
52791SOL    HW160147   4.546   6.582   8.249
52791SOL    HW260148   4.673   6.523   8.191
52792SOL     OW60149  11.437  10.367   9.889
52792SOL    HW160150  11.384  10.418   9.828
52792SOL    HW260151  11.505  10.327   9.835
52793SOL     OW60152   5.597   5.317  13.641
52793SOL    HW160153   5.513   5.362  13.649
52793SOL    HW260154   5.633   5.347  13.558
52794SOL     OW60155   4.811   2.232  11.123
52794SOL    HW160156   4.856   2.227  11.039
52794SOL    HW260157   4.856   2.168  11.178
52795SOL     OW60158   6.205  13.089  13.475
52795SOL    HW160159   6.183  13.174  13.437
52795SOL    HW260160   6.277  13.107  13.535
52796SOL     OW60161   5.467   1.582   9.264
52796SOL    HW160162   5.447   1.517   9.197
52796SOL    HW260163   5.482   1.531   9.343
52797SOL     OW60164   9.746   7.406   0.021
52797SOL    HW160165   9.803   7.375  14.829
52797SOL    HW260166   9.801   7.402   0.100
52798SOL     OW60167  12.603   6.144   8.949
52798SOL    HW160168  12.519   6.178   8.980
52798SOL    HW260169  12.590   6.130   8.855
52799SOL     OW60170  11.827   5.638   1.146
52799SOL    HW160171  11.891   5.638   1.074
52799SOL    HW260172  11.871   5.593   1.218
52800SOL     OW60173   0.985   3.911  10.256
52800SOL    HW160174   1.025   3.838  10.304
52800SOL    HW260175   1.009   3.989  10.306
52801SOL     OW60176  10.233   0.442   7.411
52801SOL    HW160177  10.231   0.398   7.326
52801SOL    HW260178  10.285   0.521   7.397
52802SOL     OW60179  12.836  10.125   1.777
52802SOL    HW160180  12.864  10.165   1.860
52802SOL    HW260181  12.891  10.047   1.768
52803SOL     OW60182   5.376  11.011   8.398
52803SOL    HW160183   5.375  11.102   8.367
52803SOL    HW260184   5.337  11.015   8.485
52804SOL     OW60185  12.359   0.630   9.875
52804SOL    HW160186  12.287   0.679   9.835
52804SOL    HW260187  12.401   0.585   9.801
52805SOL     OW60188   6.555   0.119  12.310
52805SOL    HW160189   6.598   0.088  12.389
52805SOL    HW260190   6.488   0.053  12.291
52806SOL     OW60191   0.781   8.515   6.883
52806SOL    HW160192   0.768   8.468   6.801
52806SOL    HW260193   0.849   8.464   6.929
52807SOL     OW60194  13.333  10.924   7.887
52807SOL    HW160195  13.412  10.877   7.861
52807SOL    HW260196  13.265  10.891   7.827
52808SOL     OW60197   8.461   0.554   6.416
52808SOL    HW160198   8.439   0.463   6.396
52808SOL    HW260199   8.554   0.562   6.393
52809SOL     OW60200   5.211   6.449   0.737
52809SOL    HW160201   5.259   6.517   0.690
52809SOL    HW260202   5.262   6.436   0.818
52810SOL     OW60203  10.266   6.544   1.382
52810SOL    HW160204  10.336   6.478   1.382
52810SOL    HW260205  10.284   6.597   1.304
52811SOL     OW60206   2.700   3.501  12.603
52811SOL    HW160207   2.773   3.555  12.573
52811SOL    HW260208   2.622   3.544  12.567
52812SOL     OW60209   8.935  11.980   2.914
52812SOL    HW160210   9.009  11.984   2.853
52812SOL    HW260211   8.858  11.995   2.859
52813SOL     OW60212   3.508  14.379   6.567
52813SOL    HW160213   3.442  14.320   6.603
52813SOL    HW260214   3.457  14.453   6.532
52814SOL     OW60215   3.293   5.127   2.558
52814SOL    HW160216   3.306   5.102   2.467
52814SOL    HW260217   3.314   5.048   2.608
52815SOL     OW60218   3.179   1.122   3.190
52815SOL    HW160219   3.239   1.049   3.210
52815SOL    HW260220   3.236   1.199   3.187
52816SOL     OW60221   0.069   7.090   9.734
52816SOL    HW160222   0.158   7.055   9.734
52816SOL    HW260223   0.013   7.014   9.749
52817SOL     OW60224   2.869   1.835  14.000
52817SOL    HW160225   2.871   1.745  14.032
52817SOL    HW260226   2.863   1.827  13.905
52818SOL     OW60227  11.612   5.946   7.726
52818SOL    HW160228  11.667   6.020   7.751
52818SOL    HW260229  11.523   5.974   7.745
52819SOL     OW60230   7.033   2.728   2.973
52819SOL    HW160231   6.945   2.704   2.945
52819SOL    HW260232   7.055   2.667   3.043
52820SOL     OW60233  12.574  11.016   8.116
52820SOL    HW160234  12.588  11.111   8.120
52820SOL    HW260235  12.503  10.999   8.177
52821SOL     OW60236   8.168   9.262  14.409
52821SOL    HW160237   8.240   9.306  14.364
52821SOL    HW260238   8.164   9.303  14.495
52822SOL     OW60239   4.770   6.265  12.269
52822SOL    HW160240   4.693   6.296  12.315
52822SOL    HW260241   4.843   6.315  12.307
52823SOL     OW60242   9.943   4.650   1.826
52823SOL    HW160243   9.855   4.675   1.799
52823SOL    HW260244   9.931   4.604   1.909
52824SOL     OW60245   2.801   2.424  10.816
52824SOL    HW160246   2.752   2.400  10.737
52824SOL    HW260247   2.890   2.392  10.800
52825SOL     OW60248   9.726  10.374  13.145
52825SOL    HW160249   9.632  10.353  13.141
52825SOL    HW260250   9.746  10.377  13.239
52826SOL     OW60251   0.934   9.622   0.218
52826SOL    HW160252   0.879   9.697   0.196
52826SOL    HW260253   0.930   9.616   0.314
52827SOL     OW60254   7.896   9.840   7.117
52827SOL    HW160255   7.878   9.753   7.081
52827SOL    HW260256   7.824   9.894   7.085
52828SOL     OW60257   8.122  12.317   2.109
52828SOL    HW160258   8.113  12.350   2.198
52828SOL    HW260259   8.034  12.289   2.085
52829SOL     OW60260   7.505   7.342  14.676
52829SOL    HW160261   7.468   7.429  14.664
52829SOL    HW260262   7.573   7.353  14.742
52830SOL     OW60263  12.410  11.124  12.405
52830SOL    HW160264  12.505  11.131  12.392
52830SOL    HW260265  12.390  11.189  12.473
52831SOL     OW60266  12.286   5.408  12.437
52831SOL    HW160267  12.219   5.471  12.411
52831SOL    HW260268  12.367   5.459  12.439
52832SOL     OW60269  13.938  11.410   1.027
52832SOL    HW160270  13.952  11.317   1.006
52832SOL    HW260271  14.023  11.440   1.060
52833SOL     OW60272  12.692  10.808  11.012
52833SOL    HW160273  12.708  10.776  11.100
52833SOL    HW260274  12.626  10.876  11.023
52834SOL     OW60275  12.135   5.520   4.032
52834SOL    HW160276  12.125   5.440   4.084
52834SOL    HW260277  12.046   5.545   4.008
52835SOL     OW60278   4.355  14.303  11.763
52835SOL    HW160279   4.371  14.372  11.828
52835SOL    HW260280   4.413  14.232  11.790
52836SOL     OW60281  10.082  11.903   6.036
52836SOL    HW160282  10.004  11.863   5.996
52836SOL    HW260283  10.156  11.857   5.995
52837SOL     OW60284  10.719   1.228  10.922
52837SOL    HW160285  10.777   1.301  10.947
52837SOL    HW260286  10.635   1.270  10.904
52838SOL     OW60287   3.598   5.861  14.847
52838SOL    HW160288   3.540   5.838   0.041
52838SOL    HW260289   3.613   5.955  14.857
52839SOL     OW60290   5.776   5.457   7.357
52839SOL    HW160291   5.742   5.490   7.440
52839SOL    HW260292   5.726   5.377   7.341
52840SOL     OW60293  14.654   9.178  12.594
52840SOL    HW160294  14.726   9.124  12.627
52840SOL    HW260295  14.578   9.121  12.601
52841SOL     OW60296  12.264  14.851  11.684
52841SOL    HW160297  12.182  14.827  11.639
52841SOL    HW260298  12.294   0.052  11.639
52842SOL     OW60299  13.646   7.574   3.493
52842SOL    HW160300  13.596   7.501   3.455
52842SOL    HW260301  13.634   7.564   3.588
52843SOL     OW60302  12.365  12.501   2.851
52843SOL    HW160303  12.289  12.552   2.825
52843SOL    HW260304  12.334  12.411   2.855
52844SOL     OW60305   2.209  11.057  14.558
52844SOL    HW160306   2.127  11.009  14.567
52844SOL    HW260307   2.219  11.070  14.464
52845SOL     OW60308   0.361   2.111  10.722
52845SOL    HW160309   0.275   2.119  10.681
52845SOL    HW260310   0.359   2.027  10.767
52846SOL     OW60311   6.304   8.180   2.917
52846SOL    HW160312   6.284   8.127   2.994
52846SOL    HW260313   6.343   8.118   2.855
52847SOL     OW60314  11.069  13.573  11.147
52847SOL    HW160315  11.005  13.591  11.216
52847SOL    HW260316  11.068  13.478  11.138
52848SOL     OW60317   7.283  11.292  12.995
52848SOL    HW160318   7.208  11.320  13.047
52848SOL    HW260319   7.352  11.354  13.016
52849SOL     OW60320   0.690  11.103  13.168
52849SOL    HW160321   0.738  11.021  13.155
52849SOL    HW260322   0.753  11.171  13.144
52850SOL     OW60323  11.337   5.140   0.206
52850SOL    HW160324  11.381   5.115   0.125
52850SOL    HW260325  11.388   5.100   0.276
52851SOL     OW60326  13.037   2.326  12.926
52851SOL    HW160327  12.951   2.353  12.894
52851SOL    HW260328  13.042   2.361  13.015
52852SOL     OW60329   7.912   2.630   2.859
52852SOL    HW160330   7.976   2.625   2.930
52852SOL    HW260331   7.965   2.627   2.779
52853SOL     OW60332   1.846   8.844   5.113
52853SOL    HW160333   1.846   8.834   5.209
52853SOL    HW260334   1.753   8.838   5.089
52854SOL     OW60335   4.525  12.614   5.872
52854SOL    HW160336   4.469  12.554   5.921
52854SOL    HW260337   4.469  12.645   5.800
52855SOL     OW60338  10.123   5.506   3.860
52855SOL    HW160339  10.096   5.568   3.927
52855SOL    HW260340  10.207   5.473   3.890
52856SOL     OW60341   8.423  12.762  11.011
52856SOL    HW160342   8.352  12.738  11.070
52856SOL    HW260343   8.503  12.747  11.062
52857SOL     OW60344   8.545   2.864   9.670
52857SOL    HW160345   8.493   2.877   9.591
52857SOL    HW260346   8.504   2.919   9.736
52858SOL     OW60347  14.130  13.491   6.180
52858SOL    HW160348  14.165  13.435   6.249
52858SOL    HW260349  14.051  13.446   6.151
52859SOL     OW60350   3.150  11.731   8.941
52859SOL    HW160351   3.184  11.794   9.006
52859SOL    HW260352   3.191  11.757   8.859
52860SOL     OW60353   2.951   2.406   7.022
52860SOL    HW160354   2.906   2.341   7.075
52860SOL    HW260355   2.882   2.445   6.968
52861SOL     OW60356   9.513   3.288   3.666
52861SOL    HW160357   9.459   3.340   3.606
52861SOL    HW260358   9.476   3.200   3.662
52862SOL     OW60359  10.834  12.883   8.126
52862SOL    HW160360  10.757  12.898   8.072
52862SOL    HW260361  10.803  12.894   8.216
52863SOL     OW60362   2.752   9.108   8.471
52863SOL    HW160363   2.807   9.081   8.397
52863SOL    HW260364   2.746   9.203   8.464
52864SOL     OW60365   6.376  11.278   7.307
52864SOL    HW160366   6.400  11.291   7.215
52864SOL    HW260367   6.459  11.282   7.354
52865SOL     OW60368   9.853   6.094  10.919
52865SOL    HW160369   9.895   6.041  10.851
52865SOL    HW260370   9.790   6.035  10.960
52866SOL     OW60371   6.319  11.184   2.732
52866SOL    HW160372   6.384  11.238   2.686
52866SOL    HW260373   6.284  11.127   2.664
52867SOL     OW60374   0.799   0.010   7.661
52867SOL    HW160375   0.721   0.060   7.637
52867SOL    HW260376   0.770  14.797   7.662
52868SOL     OW60377   3.067  14.184   7.631
52868SOL    HW160378   3.052  14.090   7.642
52868SOL    HW260379   3.081  14.196   7.537
52869SOL     OW60380   1.107   9.457   0.830
52869SOL    HW160381   1.074   9.389   0.889
52869SOL    HW260382   1.094   9.421   0.742
52870SOL     OW60383   9.615   8.969  13.453
52870SOL    HW160384   9.655   8.908  13.391
52870SOL    HW260385   9.527   8.934  13.467
52871SOL     OW60386   9.839   7.013   5.269
52871SOL    HW160387   9.885   7.097   5.266
52871SOL    HW260388   9.866   6.969   5.188
52872SOL     OW60389   2.491   3.700   3.780
52872SOL    HW160390   2.470   3.679   3.689
52872SOL    HW260391   2.424   3.654   3.831
52873SOL     OW60392   5.092   3.524  10.598
52873SOL    HW160393   5.058   3.563  10.517
52873SOL    HW260394   5.183   3.501  10.577
52874SOL     OW60395  10.257  12.920   8.860
52874SOL    HW160396  10.266  13.015   8.867
52874SOL    HW260397  10.184  12.907   8.800
52875SOL     OW60398   7.043   4.661   8.614
52875SOL    HW160399   7.125   4.637   8.570
52875SOL    HW260400   6.993   4.708   8.547
52876SOL     OW60401   1.908  11.515   7.431
52876SOL    HW160402   1.966  11.460   7.378
52876SOL    HW260403   1.942  11.508   7.520
52877SOL     OW60404   1.917  13.509   1.988
52877SOL    HW160405   1.903  13.599   2.018
52877SOL    HW260406   1.984  13.474   2.047
52878SOL     OW60407  11.837   8.735   2.817
52878SOL    HW160408  11.797   8.699   2.896
52878SOL    HW260409  11.821   8.830   2.823
52879SOL     OW60410   5.490  10.771  11.313
52879SOL    HW160411   5.566  10.761  11.371
52879SOL    HW260412   5.431  10.828  11.362
52880SOL     OW60413  13.575   8.640  11.746
52880SOL    HW160414  13.550   8.573  11.683
52880SOL    HW260415  13.495   8.655  11.797
52881SOL     OW60416   4.569   1.837   6.732
52881SOL    HW160417   4.599   1.777   6.801
52881SOL    HW260418   4.515   1.902   6.778
52882SOL     OW60419   4.945  14.534   6.777
52882SOL    HW160420   5.004  14.545   6.852
52882SOL    HW260421   4.999  14.558   6.702
52883SOL     OW60422   6.519   5.021   2.250
52883SOL    HW160423   6.493   5.033   2.159
52883SOL    HW260424   6.592   4.960   2.247
52884SOL     OW60425   0.308   4.818  10.783
52884SOL    HW160426   0.339   4.756  10.718
52884SOL    HW260427   0.302   4.901  10.736
52885SOL     OW60428   0.035   1.021  10.185
52885SOL    HW160429  14.822   1.003  10.207
52885SOL    HW260430   0.046   1.114  10.203
52886SOL     OW60431   8.145  14.701   1.108
52886SOL    HW160432   8.147  14.699   1.204
52886SOL    HW260433   8.209  14.634   1.082
52887SOL     OW60434   2.075   2.970   3.547
52887SOL    HW160435   2.142   2.942   3.609
52887SOL    HW260436   1.996   2.978   3.599
52888SOL     OW60437  12.212  14.647   7.859
52888SOL    HW160438  12.184  14.739   7.868
52888SOL    HW260439  12.140  14.597   7.899
52889SOL     OW60440   0.776  11.939  10.376
52889SOL    HW160441   0.852  11.988  10.409
52889SOL    HW260442   0.787  11.852  10.415
52890SOL     OW60443   0.402   7.199   2.522
52890SOL    HW160444   0.340   7.156   2.581
52890SOL    HW260445   0.372   7.174   2.435
52891SOL     OW60446   6.272   6.999  13.931
52891SOL    HW160447   6.365   7.012  13.912
52891SOL    HW260448   6.261   7.032  14.020
52892SOL     OW60449   9.359  14.048   3.792
52892SOL    HW160450   9.412  14.034   3.713
52892SOL    HW260451   9.415  14.017   3.863
52893SOL     OW60452   4.396   8.246   2.770
52893SOL    HW160453   4.483   8.206   2.771
52893SOL    HW260454   4.356   8.219   2.852
52894SOL     OW60455   5.742  11.607   4.699
52894SOL    HW160456   5.765  11.678   4.759
52894SOL    HW260457   5.713  11.652   4.620
52895SOL     OW60458   4.430  10.275   5.168
52895SOL    HW160459   4.510  10.307   5.210
52895SOL    HW260460   4.360  10.294   5.231
52896SOL     OW60461   9.866   9.566  13.872
52896SOL    HW160462   9.863   9.515  13.792
52896SOL    HW260463   9.858   9.502  13.942
52897SOL     OW60464   7.175  11.070  11.290
52897SOL    HW160465   7.120  10.999  11.323
52897SOL    HW260466   7.171  11.137  11.359
52898SOL     OW60467   5.003   1.481   8.222
52898SOL    HW160468   4.989   1.527   8.138
52898SOL    HW260469   5.029   1.550   8.282
52899SOL     OW60470   8.216   0.773  12.999
52899SOL    HW160471   8.139   0.755  13.054
52899SOL    HW260472   8.222   0.697  12.940
52900SOL     OW60473   9.153  14.025   5.180
52900SOL    HW160474   9.198  14.096   5.227
52900SOL    HW260475   9.175  14.041   5.088
52901SOL     OW60476  14.783  10.899  12.510
52901SOL    HW160477  14.711  10.956  12.483
52901SOL    HW260478  14.832  10.950  12.574
52902SOL     OW60479   1.256  12.640  14.559
52902SOL    HW160480   1.192  12.709  14.543
52902SOL    HW260481   1.205  12.567  14.594
52903SOL     OW60482   0.555  13.591   4.882
52903SOL    HW160483   0.476  13.563   4.834
52903SOL    HW260484   0.606  13.510   4.892
52904SOL     OW60485  13.364  12.578   9.633
52904SOL    HW160486  13.435  12.521   9.661
52904SOL    HW260487  13.388  12.604   9.544
52905SOL     OW60488   1.624   8.281   3.021
52905SOL    HW160489   1.688   8.276   2.950
52905SOL    HW260490   1.557   8.341   2.989
52906SOL     OW60491   6.979  13.952  12.550
52906SOL    HW160492   6.905  13.902  12.584
52906SOL    HW260493   7.016  13.896  12.481
52907SOL     OW60494   1.482   3.261   4.985
52907SOL    HW160495   1.512   3.313   4.911
52907SOL    HW260496   1.467   3.174   4.949
52908SOL     OW60497   5.398  12.770   4.559
52908SOL    HW160498   5.363  12.858   4.551
52908SOL    HW260499   5.483  12.782   4.602
52909SOL     OW60500  14.844   4.838   5.903
52909SOL    HW160501  14.823   4.747   5.923
52909SOL    HW260502  14.759   4.880   5.891
52910SOL     OW60503   0.850  14.033   4.860
52910SOL    HW160504   0.777  13.971   4.855
52910SOL    HW260505   0.808  14.119   4.851
52911SOL     OW60506   2.703   3.714   0.250
52911SOL    HW160507   2.660   3.630   0.236
52911SOL    HW260508   2.680   3.766   0.173
52912SOL     OW60509   6.460  12.806   8.714
52912SOL    HW160510   6.382  12.766   8.753
52912SOL    HW260511   6.448  12.900   8.727
52913SOL     OW60512   6.514   3.764  11.413
52913SOL    HW160513   6.470   3.784  11.495
52913SOL    HW260514   6.566   3.686  11.431
52914SOL     OW60515   0.548   1.222   0.951
52914SOL    HW160516   0.473   1.274   0.922
52914SOL    HW260517   0.616   1.286   0.970
52915SOL     OW60518  10.991   6.772   1.697
52915SOL    HW160519  11.050   6.813   1.634
52915SOL    HW260520  10.904   6.779   1.658
52916SOL     OW60521  12.555   7.132   3.960
52916SOL    HW160522  12.605   7.055   3.935
52916SOL    HW260523  12.593   7.204   3.909
52917SOL     OW60524   9.012   8.177   4.635
52917SOL    HW160525   9.038   8.176   4.543
52917SOL    HW260526   8.951   8.103   4.643
52918SOL     OW60527  12.857  11.607  12.306
52918SOL    HW160528  12.948  11.597  12.278
52918SOL    HW260529  12.826  11.517  12.318
52919SOL     OW60530   2.077   6.184   5.298
52919SOL    HW160531   2.032   6.165   5.381
52919SOL    HW260532   2.007   6.211   5.239
52920SOL     OW60533   7.643   5.759   0.749
52920SOL    HW160534   7.597   5.842   0.756
52920SOL    HW260535   7.589   5.697   0.798
52921SOL     OW60536   6.854   0.665  13.070
52921SOL    HW160537   6.776   0.672  13.014
52921SOL    HW260538   6.868   0.754  13.102
52922SOL     OW60539  11.440   3.495   2.027
52922SOL    HW160540  11.405   3.573   2.070
52922SOL    HW260541  11.527   3.522   1.996
52923SOL     OW60542  10.300   8.647  13.845
52923SOL    HW160543  10.275   8.558  13.821
52923SOL    HW260544  10.378   8.637  13.899
52924SOL     OW60545   8.447   0.235   4.792
52924SOL    HW160546   8.377   0.294   4.763
52924SOL    HW260547   8.511   0.238   4.721
52925SOL     OW60548   4.255   3.112   7.849
52925SOL    HW160549   4.302   3.040   7.806
52925SOL    HW260550   4.171   3.072   7.875
52926SOL     OW60551   4.991   0.460   6.377
52926SOL    HW160552   5.049   0.535   6.389
52926SOL    HW260553   4.999   0.438   6.284
52927SOL     OW60554   8.410  13.684   4.445
52927SOL    HW160555   8.460  13.603   4.439
52927SOL    HW260556   8.423  13.714   4.535
52928SOL     OW60557  12.404   7.564   4.465
52928SOL    HW160558  12.332   7.570   4.528
52928SOL    HW260559  12.386   7.485   4.415
52929SOL     OW60560   7.742   3.768   1.320
52929SOL    HW160561   7.772   3.765   1.230
52929SOL    HW260562   7.678   3.839   1.322
52930SOL     OW60563   3.624   3.608  12.668
52930SOL    HW160564   3.594   3.604  12.759
52930SOL    HW260565   3.708   3.561  12.669
52931SOL     OW60566   7.474   4.678  14.286
52931SOL    HW160567   7.448   4.679  14.194
52931SOL    HW260568   7.416   4.613  14.326
52932SOL     OW60569   1.570   9.668   7.008
52932SOL    HW160570   1.546   9.739   7.067
52932SOL    HW260571   1.664   9.680   6.993
52933SOL     OW60572  13.628   5.002   4.908
52933SOL    HW160573  13.597   4.916   4.936
52933SOL    HW260574  13.670   4.986   4.824
52934SOL     OW60575   7.430  14.197  12.988
52934SOL    HW160576   7.465  14.280  13.020
52934SOL    HW260577   7.395  14.218  12.901
52935SOL     OW60578   0.037  14.136   5.467
52935SOL    HW160579   0.043  14.159   5.374
52935SOL    HW260580   0.017  14.219   5.510
52936SOL     OW60581   5.978  11.497   2.466
52936SOL    HW160582   6.068  11.512   2.497
52936SOL    HW260583   5.959  11.406   2.490
52937SOL     OW60584   7.763   7.291   1.190
52937SOL    HW160585   7.823   7.362   1.216
52937SOL    HW260586   7.806   7.251   1.114
52938SOL     OW60587   7.484   1.942   9.210
52938SOL    HW160588   7.552   1.946   9.277
52938SOL    HW260589   7.527   1.970   9.130
52939SOL     OW60590   5.498   5.772   9.949
52939SOL    HW160591   5.570   5.818   9.907
52939SOL    HW260592   5.423   5.831   9.937
52940SOL     OW60593  11.820  12.478   3.365
52940SOL    HW160594  11.792  12.492   3.455
52940SOL    HW260595  11.789  12.556   3.318
52941SOL     OW60596   9.773  12.928   1.158
52941SOL    HW160597   9.713  12.916   1.232
52941SOL    HW260598   9.716  12.933   1.081
52942SOL     OW60599   7.867   9.166  10.672
52942SOL    HW160600   7.850   9.100  10.740
52942SOL    HW260601   7.952   9.203  10.695
52943SOL     OW60602   1.926   7.550   6.249
52943SOL    HW160603   1.882   7.584   6.327
52943SOL    HW260604   1.892   7.461   6.239
52944SOL     OW60605   4.986   0.343   4.732
52944SOL    HW160606   5.065   0.329   4.783
52944SOL    HW260607   4.993   0.281   4.660
52945SOL     OW60608  10.952   4.950  13.498
52945SOL    HW160609  10.858   4.953  13.517
52945SOL    HW260610  10.972   4.856  13.493
52946SOL     OW60611   6.598  10.206   1.299
52946SOL    HW160612   6.661  10.275   1.279
52946SOL    HW260613   6.536  10.207   1.226
52947SOL     OW60614   7.211   7.536   0.209
52947SOL    HW160615   7.285   7.569   0.260
52947SOL    HW260616   7.233   7.444   0.191
52948SOL     OW60617   0.208  13.450  14.846
52948SOL    HW160618   0.240  13.507  14.776
52948SOL    HW260619   0.120  13.481  14.865
52949SOL     OW60620   4.282   3.980  14.221
52949SOL    HW160621   4.257   4.049  14.160
52949SOL    HW260622   4.239   3.901  14.187
52950SOL     OW60623  13.542   3.196   1.425
52950SOL    HW160624  13.548   3.209   1.331
52950SOL    HW260625  13.609   3.254   1.461
52951SOL     OW60626  11.424  13.439   0.688
52951SOL    HW160627  11.375  13.481   0.618
52951SOL    HW260628  11.492  13.389   0.644
52952SOL     OW60629  13.424  13.824   7.993
52952SOL    HW160630  13.347  13.799   7.942
52952SOL    HW260631  13.498  13.812   7.932
52953SOL     OW60632   5.568  11.269   0.496
52953SOL    HW160633   5.522  11.220   0.428
52953SOL    HW260634   5.568  11.211   0.572
52954SOL     OW60635  13.655   5.506  10.324
52954SOL    HW160636  13.705   5.457  10.389
52954SOL    HW260637  13.622   5.582  10.371
52955SOL     OW60638   0.604   1.802  14.184
52955SOL    HW160639   0.536   1.869  14.189
52955SOL    HW260640   0.557   1.719  14.185
52956SOL     OW60641  12.706   4.053   1.109
52956SOL    HW160642  12.723   3.960   1.123
52956SOL    HW260643  12.649   4.056   1.031
52957SOL     OW60644   7.988   2.906   9.772
52957SOL    HW160645   8.019   2.816   9.771
52957SOL    HW260646   7.898   2.901   9.740
52958SOL     OW60647  13.683   6.196   7.457
52958SOL    HW160648  13.659   6.195   7.550
52958SOL    HW260649  13.777   6.184   7.456
52959SOL     OW60650   1.157   9.830   8.422
52959SOL    HW160651   1.137   9.861   8.333
52959SOL    HW260652   1.177   9.909   8.471
52960SOL     OW60653   9.869   3.533  14.410
52960SOL    HW160654   9.860   3.593  14.336
52960SOL    HW260655   9.817   3.573  14.480
52961SOL     OW60656   8.538   5.632   4.615
52961SOL    HW160657   8.504   5.670   4.533
52961SOL    HW260658   8.631   5.658   4.615
52962SOL     OW60659   6.275   2.515  13.821
52962SOL    HW160660   6.215   2.578  13.860
52962SOL    HW260661   6.232   2.487  13.740
52963SOL     OW60662   1.865  14.816   0.380
52963SOL    HW160663   1.779  14.777   0.366
52963SOL    HW260664   1.852   0.001   0.451
52964SOL     OW60665   1.632   8.506  12.316
52964SOL    HW160666   1.612   8.526  12.407
52964SOL    HW260667   1.660   8.414  12.317
52965SOL     OW60668  12.521   8.735  13.492
52965SOL    HW160669  12.475   8.669  13.543
52965SOL    HW260670  12.607   8.696  13.474
52966SOL     OW60671  12.052  10.536  10.760
52966SOL    HW160672  12.080  10.489  10.840
52966SOL    HW260673  12.033  10.625  10.790
52967SOL     OW60674  11.358  13.764   8.566
52967SOL    HW160675  11.351  13.805   8.480
52967SOL    HW260676  11.269  13.734   8.585
52968SOL     OW60677   6.574   6.158  13.403
52968SOL    HW160678   6.589   6.135  13.311
52968SOL    HW260679   6.568   6.074  13.448
52969SOL     OW60680   7.058   0.280  14.331
52969SOL    HW160681   6.975   0.314  14.365
52969SOL    HW260682   7.108   0.359  14.308
52970SOL     OW60683  12.249   6.443  11.484
52970SOL    HW160684  12.213   6.371  11.433
52970SOL    HW260685  12.320   6.404  11.535
52971SOL     OW60686   4.124  10.848   0.503
52971SOL    HW160687   4.192  10.824   0.565
52971SOL    HW260688   4.066  10.772   0.500
52972SOL     OW60689   2.373   9.641   0.738
52972SOL    HW160690   2.329   9.626   0.654
52972SOL    HW260691   2.465   9.618   0.721
52973SOL     OW60692  14.273   6.210   6.747
52973SOL    HW160693  14.263   6.298   6.784
52973SOL    HW260694  14.368   6.200   6.737
52974SOL     OW60695  14.272  11.513  14.032
52974SOL    HW160696  14.229  11.597  14.044
52974SOL    HW260697  14.228  11.472  13.958
52975SOL     OW60698   4.620  12.962   5.574
52975SOL    HW160699   4.677  12.978   5.649
52975SOL    HW260700   4.540  12.928   5.613
52976SOL     OW60701   0.322   6.471  10.717
52976SOL    HW160702   0.326   6.409  10.643
52976SOL    HW260703   0.253   6.436  10.773
52977SOL     OW60704  13.893   0.879  12.625
52977SOL    HW160705  13.824   0.900  12.689
52977SOL    HW260706  13.847   0.875  12.541
52978SOL     OW60707   3.354   6.543   9.548
52978SOL    HW160708   3.322   6.617   9.600
52978SOL    HW260709   3.287   6.476   9.559
52979SOL     OW60710  14.577   9.087   4.050
52979SOL    HW160711  14.651   9.027   4.062
52979SOL    HW260712  14.609   9.170   4.085
52980SOL     OW60713   3.144   7.580   4.905
52980SOL    HW160714   3.208   7.520   4.867
52980SOL    HW260715   3.138   7.554   4.997
52981SOL     OW60716   8.099   1.436   7.845
52981SOL    HW160717   8.099   1.394   7.931
52981SOL    HW260718   8.017   1.408   7.804
52982SOL     OW60719   3.110  10.578   7.078
52982SOL    HW160720   3.189  10.572   7.133
52982SOL    HW260721   3.077  10.666   7.095
52983SOL     OW60722   8.784  14.123  10.767
52983SOL    HW160723   8.783  14.196  10.706
52983SOL    HW260724   8.877  14.099  10.775
52984SOL     OW60725   6.492   0.446   4.756
52984SOL    HW160726   6.578   0.479   4.784
52984SOL    HW260727   6.451   0.521   4.713
52985SOL     OW60728   8.962   7.187   1.830
52985SOL    HW160729   9.054   7.213   1.830
52985SOL    HW260730   8.962   7.099   1.868
52986SOL     OW60731   6.827  13.648   8.395
52986SOL    HW160732   6.786  13.597   8.464
52986SOL    HW260733   6.841  13.734   8.434
52987SOL     OW60734   9.633   8.965   6.491
52987SOL    HW160735   9.546   8.926   6.486
52987SOL    HW260736   9.620   9.044   6.545
52988SOL     OW60737  11.655   9.210  12.650
52988SOL    HW160738  11.566   9.203  12.684
52988SOL    HW260739  11.679   9.120  12.628
52989SOL     OW60740   0.476   6.591   7.350
52989SOL    HW160741   0.518   6.677   7.361
52989SOL    HW260742   0.548   6.533   7.323
52990SOL     OW60743  12.069   9.036  12.391
52990SOL    HW160744  12.129   9.096  12.346
52990SOL    HW260745  12.047   8.970  12.326
52991SOL     OW60746   8.697   2.912  12.313
52991SOL    HW160747   8.632   2.936  12.247
52991SOL    HW260748   8.710   2.992  12.364
52992SOL     OW60749  10.671   6.327   1.268
52992SOL    HW160750  10.645   6.404   1.318
52992SOL    HW260751  10.753   6.298   1.307
52993SOL     OW60752   2.151   2.465   6.342
52993SOL    HW160753   2.193   2.396   6.393
52993SOL    HW260754   2.213   2.482   6.271
52994SOL     OW60755   4.386   3.497   2.158
52994SOL    HW160756   4.307   3.461   2.198
52994SOL    HW260757   4.398   3.582   2.201
52995SOL     OW60758  13.113   2.283   3.250
52995SOL    HW160759  13.171   2.230   3.305
52995SOL    HW260760  13.154   2.370   3.248
52996SOL     OW60761   1.182   8.805   6.407
52996SOL    HW160762   1.270   8.829   6.378
52996SOL    HW260763   1.195   8.760   6.490
52997SOL     OW60764   4.659  11.288   2.019
52997SOL    HW160765   4.728  11.248   2.073
52997SOL    HW260766   4.578  11.268   2.066
52998SOL     OW60767   2.310  11.241  11.887
52998SOL    HW160768   2.354  11.300  11.948
52998SOL    HW260769   2.377  11.178  11.861
52999SOL     OW60770   5.929  12.289   8.794
52999SOL    HW160771   5.943  12.381   8.771
52999SOL    HW260772   6.017  12.256   8.813
53000SOL     OW60773   9.848   7.122  11.971
53000SOL    HW160774   9.881   7.100  12.058
53000SOL    HW260775   9.835   7.217  11.974
53001SOL     OW60776  10.309  14.682   0.846
53001SOL    HW160777  10.305  14.674   0.941
53001SOL    HW260778  10.389  14.731   0.829
53002SOL     OW60779  11.536  10.938  13.165
53002SOL    HW160780  11.515  11.029  13.142
53002SOL    HW260781  11.597  10.947  13.239
53003SOL     OW60782   0.427   0.231   0.016
53003SOL    HW160783   0.359   0.258  14.832
53003SOL    HW260784   0.386   0.240   0.102
53004SOL     OW60785   2.246   9.477   4.650
53004SOL    HW160786   2.222   9.476   4.558
53004SOL    HW260787   2.183   9.535   4.691
53005SOL     OW60788   7.248  11.886   5.296
53005SOL    HW160789   7.311  11.893   5.369
53005SOL    HW260790   7.263  11.799   5.260
53006SOL     OW60791  10.338   9.345   8.528
53006SOL    HW160792  10.293   9.292   8.461
53006SOL    HW260793  10.267   9.394   8.570
53007SOL     OW60794   3.248   2.431   4.196
53007SOL    HW160795   3.222   2.396   4.111
53007SOL    HW260796   3.179   2.495   4.217
53008SOL     OW60797   4.209   6.229  14.556
53008SOL    HW160798   4.280   6.248  14.495
53008SOL    HW260799   4.243   6.254  14.642
53009SOL     OW60800   7.450   8.693   7.261
53009SOL    HW160801   7.455   8.701   7.356
53009SOL    HW260802   7.537   8.662   7.235
53010SOL     OW60803   6.625  10.897  13.832
53010SOL    HW160804   6.651  10.836  13.763
53010SOL    HW260805   6.534  10.917  13.812
53011SOL     OW60806   2.483   4.207   6.056
53011SOL    HW160807   2.404   4.239   6.013
53011SOL    HW260808   2.527   4.154   5.990
53012SOL     OW60809   8.709   2.208  10.721
53012SOL    HW160810   8.678   2.297  10.704
53012SOL    HW260811   8.739   2.177  10.636
53013SOL     OW60812   9.857  14.333   8.428
53013SOL    HW160813   9.791  14.301   8.490
53013SOL    HW260814   9.808  14.353   8.349
53014SOL     OW60815  11.938   9.875   8.448
53014SOL    HW160816  11.934   9.922   8.531
53014SOL    HW260817  11.986   9.795   8.469
53015SOL     OW60818   4.161   7.787   5.204
53015SOL    HW160819   4.078   7.740   5.200
53015SOL    HW260820   4.182   7.790   5.297
53016SOL     OW60821  11.661   0.884   0.084
53016SOL    HW160822  11.671   0.965   0.134
53016SOL    HW260823  11.678   0.814   0.148
53017SOL     OW60824   4.870   0.574   4.065
53017SOL    HW160825   4.910   0.622   3.993
53017SOL    HW260826   4.858   0.639   4.134
53018SOL     OW60827  11.147   4.886   4.063
53018SOL    HW160828  11.109   4.860   4.147
53018SOL    HW260829  11.117   4.818   4.002
53019SOL     OW60830  10.720  10.257  11.111
53019SOL    HW160831  10.740  10.165  11.099
53019SOL    HW260832  10.805  10.299  11.122
53020SOL     OW60833  11.886   7.751   2.825
53020SOL    HW160834  11.855   7.667   2.859
53020SOL    HW260835  11.976   7.734   2.798
53021SOL     OW60836  13.800  11.066  13.560
53021SOL    HW160837  13.783  11.152  13.522
53021SOL    HW260838  13.730  11.010  13.525
53022SOL     OW60839  13.326  14.786   8.494
53022SOL    HW160840  13.325  14.870   8.449
53022SOL    HW260841  13.329  14.808   8.587
53023SOL     OW60842   7.019   8.806  11.504
53023SOL    HW160843   6.968   8.837  11.428
53023SOL    HW260844   7.064   8.884  11.536
53024SOL     OW60845   4.366   6.054  12.899
53024SOL    HW160846   4.418   5.986  12.856
53024SOL    HW260847   4.401   6.056  12.989
53025SOL     OW60848   2.896   4.710   6.403
53025SOL    HW160849   2.810   4.672   6.423
53025SOL    HW260850   2.943   4.640   6.357
53026SOL     OW60851   2.367   7.129   6.027
53026SOL    HW160852   2.411   7.051   5.994
53026SOL    HW260853   2.325   7.101   6.108
53027SOL     OW60854   4.156   3.293  10.113
53027SOL    HW160855   4.072   3.266  10.074
53027SOL    HW260856   4.185   3.218  10.163
53028SOL     OW60857   9.787   4.978   8.040
53028SOL    HW160858   9.765   4.954   8.130
53028SOL    HW260859   9.835   5.060   8.047
53029SOL     OW60860  10.141  13.439  13.671
53029SOL    HW160861  10.186  13.354  13.676
53029SOL    HW260862  10.173  13.488  13.746
53030SOL     OW60863   0.870  10.917   8.593
53030SOL    HW160864   0.923  10.957   8.524
53030SOL    HW260865   0.831  10.990   8.640
53031SOL     OW60866   3.871  11.789  13.885
53031SOL    HW160867   3.800  11.774  13.822
53031SOL    HW260868   3.950  11.793  13.832
53032SOL     OW60869  13.038  10.374   0.103
53032SOL    HW160870  13.028  10.307   0.035
53032SOL    HW260871  13.129  10.368   0.130
53033SOL     OW60872   3.774   4.797  10.930
53033SOL    HW160873   3.828   4.823  10.855
53033SOL    HW260874   3.699   4.856  10.927
53034SOL     OW60875   9.460   3.319  11.026
53034SOL    HW160876   9.461   3.224  11.010
53034SOL    HW260877   9.393   3.332  11.093
53035SOL     OW60878   9.448   5.618  10.261
53035SOL    HW160879   9.368   5.579  10.227
53035SOL    HW260880   9.427   5.642  10.351
53036SOL     OW60881   3.815   3.803   3.046
53036SOL    HW160882   3.857   3.736   3.100
53036SOL    HW260883   3.747   3.840   3.102
53037SOL     OW60884  12.359  10.183   3.982
53037SOL    HW160885  12.354  10.111   3.919
53037SOL    HW260886  12.267  10.203   4.001
53038SOL     OW60887   4.381  14.064   3.343
53038SOL    HW160888   4.314  14.098   3.401
53038SOL    HW260889   4.434  14.140   3.320
53039SOL     OW60890   1.227   8.391  11.403
53039SOL    HW160891   1.270   8.476  11.395
53039SOL    HW260892   1.202   8.385  11.495
53040SOL     OW60893   7.035   0.476  10.701
53040SOL    HW160894   6.986   0.398  10.728
53040SOL    HW260895   7.043   0.467  10.606
53041SOL     OW60896   5.402  11.369  10.553
53041SOL    HW160897   5.497  11.364  10.538
53041SOL    HW260898   5.394  11.408  10.640
53042SOL     OW60899   8.481   2.177   3.899
53042SOL    HW160900   8.450   2.158   3.987
53042SOL    HW260901   8.557   2.120   3.888
53043SOL     OW60902   9.033  13.530  14.091
53043SOL    HW160903   8.986  13.611  14.114
53043SOL    HW260904   8.995  13.504  14.007
53044SOL     OW60905  12.398   6.382   6.027
53044SOL    HW160906  12.357   6.296   6.024
53044SOL    HW260907  12.326   6.443   6.013
53045SOL     OW60908   9.650  14.097   9.763
53045SOL    HW160909   9.729  14.047   9.781
53045SOL    HW260910   9.627  14.136   9.848
53046SOL     OW60911   4.821   4.777   0.735
53046SOL    HW160912   4.801   4.868   0.758
53046SOL    HW260913   4.791   4.767   0.645
53047SOL     OW60914  11.705   5.423   1.994
53047SOL    HW160915  11.784   5.476   2.008
53047SOL    HW260916  11.735   5.347   1.944
53048SOL     OW60917   2.729  10.468   8.374
53048SOL    HW160918   2.643  10.508   8.386
53048SOL    HW260919   2.741  10.414   8.452
53049SOL     OW60920  11.153   5.951  13.556
53049SOL    HW160921  11.136   5.905  13.639
53049SOL    HW260922  11.180   6.039  13.582
53050SOL     OW60923  11.623  12.589  12.694
53050SOL    HW160924  11.690  12.651  12.722
53050SOL    HW260925  11.659  12.503  12.714
53051SOL     OW60926   0.331  10.456   9.455
53051SOL    HW160927   0.292  10.542   9.439
53051SOL    HW260928   0.423  10.474   9.473
53052SOL     OW60929  11.831  11.291   4.819
53052SOL    HW160930  11.788  11.377   4.826
53052SOL    HW260931  11.923  11.312   4.807
53053SOL     OW60932   7.643   6.183   4.806
53053SOL    HW160933   7.727   6.215   4.839
53053SOL    HW260934   7.657   6.089   4.794
53054SOL     OW60935   6.225  12.125   0.433
53054SOL    HW160936   6.175  12.056   0.476
53054SOL    HW260937   6.266  12.082   0.358
53055SOL     OW60938  10.262  14.221  10.764
53055SOL    HW160939  10.300  14.308  10.775
53055SOL    HW260940  10.283  14.197  10.673
53056SOL     OW60941   6.059  11.392  10.260
53056SOL    HW160942   6.103  11.323  10.211
53056SOL    HW260943   6.078  11.372  10.352
53057SOL     OW60944   3.866   9.311   0.191
53057SOL    HW160945   3.847   9.377   0.124
53057SOL    HW260946   3.939   9.348   0.240
53058SOL     OW60947   3.358  13.995   6.382
53058SOL    HW160948   3.318  13.935   6.319
53058SOL    HW260949   3.320  13.971   6.466
53059SOL     OW60950   5.719  14.022   6.530
53059SOL    HW160951   5.644  14.082   6.534
53059SOL    HW260952   5.701  13.967   6.454
53060SOL     OW60953  12.676   2.687   0.712
53060SOL    HW160954  12.716   2.608   0.677
53060SOL    HW260955  12.687   2.752   0.644
53061SOL     OW60956  10.746   7.525  10.503
53061SOL    HW160957  10.787   7.553  10.421
53061SOL    HW260958  10.763   7.596  10.564
53062SOL     OW60959  13.295  14.094  10.791
53062SOL    HW160960  13.228  14.159  10.768
53062SOL    HW260961  13.340  14.132  10.866
53063SOL     OW60962   0.535   0.201  11.758
53063SOL    HW160963   0.609   0.172  11.704
53063SOL    HW260964   0.572   0.268  11.815
53064SOL     OW60965  14.429  12.935   6.188
53064SOL    HW160966  14.401  12.855   6.143
53064SOL    HW260967  14.508  12.963   6.141
53065SOL     OW60968   3.738   6.903  10.001
53065SOL    HW160969   3.762   6.910  10.093
53065SOL    HW260970   3.668   6.838   9.999
53066SOL     OW60971  14.715   9.871   7.854
53066SOL    HW160972  14.765   9.855   7.934
53066SOL    HW260973  14.782   9.880   7.785
53067SOL     OW60974   2.617   4.736  13.645
53067SOL    HW160975   2.644   4.813  13.594
53067SOL    HW260976   2.590   4.772  13.729
53068SOL     OW60977  13.286  10.854   0.009
53068SOL    HW160978  13.363  10.845  14.831
53068SOL    HW260979  13.227  10.911  14.838
53069SOL     OW60980  13.400   5.055   0.604
53069SOL    HW160981  13.371   5.053   0.695
53069SOL    HW260982  13.319   5.067   0.554
53070SOL     OW60983   2.679   6.196   7.027
53070SOL    HW160984   2.677   6.107   7.062
53070SOL    HW260985   2.763   6.201   6.980
53071SOL     OW60986   8.722  13.291   3.082
53071SOL    HW160987   8.668  13.287   3.003
53071SOL    HW260988   8.659  13.288   3.155
53072SOL     OW60989   5.314   9.327   2.145
53072SOL    HW160990   5.259   9.347   2.220
53072SOL    HW260991   5.350   9.241   2.163
53073SOL     OW60992   8.799  11.407   0.156
53073SOL    HW160993   8.852  11.332   0.183
53073SOL    HW260994   8.862  11.480   0.151
53074SOL     OW60995   1.537   5.639   2.080
53074SOL    HW160996   1.445   5.655   2.101
53074SOL    HW260997   1.585   5.674   2.155
53075SOL     OW60998   3.522  10.927  13.878
53075SOL    HW160999   3.538  10.980  13.955
53075SOL    HW261000   3.427  10.916  13.876
53076SOL     OW61001   9.187   9.031  10.471
53076SOL    HW161002   9.252   9.073  10.413
53076SOL    HW261003   9.138   9.104  10.509
53077SOL     OW61004   1.757  11.009   7.811
53077SOL    HW161005   1.703  11.083   7.836
53077SOL    HW261006   1.829  11.047   7.760
53078SOL     OW61007  14.022   8.838  14.671
53078SOL    HW161008  14.053   8.754  14.704
53078SOL    HW261009  14.064   8.847  14.586
53079SOL     OW61010  11.750  13.259   2.659
53079SOL    HW161011  11.722  13.177   2.700
53079SOL    HW261012  11.841  13.243   2.635
53080SOL     OW61013  10.405   9.416   7.241
53080SOL    HW161014  10.488   9.422   7.192
53080SOL    HW261015  10.354   9.491   7.210
53081SOL     OW61016   5.521  13.809   8.884
53081SOL    HW161017   5.485  13.853   8.961
53081SOL    HW261018   5.562  13.879   8.833
53082SOL     OW61019  10.441   9.951   1.330
53082SOL    HW161020  10.497   9.954   1.407
53082SOL    HW261021  10.426  10.043   1.308
53083SOL     OW61022   5.669   0.456   0.384
53083SOL    HW161023   5.702   0.410   0.462
53083SOL    HW261024   5.674   0.549   0.408
53084SOL     OW61025   7.495   4.252   5.902
53084SOL    HW161026   7.463   4.339   5.926
53084SOL    HW261027   7.456   4.235   5.816
53085SOL     OW61028   9.425   6.837  13.042
53085SOL    HW161029   9.484   6.761  13.043
53085SOL    HW261030   9.383   6.834  12.956
53086SOL     OW61031  12.903  10.862  10.188
53086SOL    HW161032  12.972  10.920  10.155
53086SOL    HW261033  12.916  10.780  10.139
53087SOL     OW61034   9.939  11.464  11.126
53087SOL    HW161035   9.903  11.478  11.214
53087SOL    HW261036   9.862  11.466  11.068
53088SOL     OW61037   1.253   8.905  10.323
53088SOL    HW161038   1.160   8.882  10.332
53088SOL    HW261039   1.254   9.000  10.335
53089SOL     OW61040   0.472  12.196   8.309
53089SOL    HW161041   0.408  12.176   8.241
53089SOL    HW261042   0.487  12.290   8.302
53090SOL     OW61043   4.633   0.489   6.221
53090SOL    HW161044   4.717   0.461   6.183
53090SOL    HW261045   4.610   0.419   6.282
53091SOL     OW61046  13.119   2.828  11.803
53091SOL    HW161047  13.174   2.904  11.820
53091SOL    HW261048  13.120   2.779  11.885
53092SOL     OW61049  10.990  10.313  13.440
53092SOL    HW161050  10.994  10.253  13.365
53092SOL    HW261051  10.987  10.400  13.400
53093SOL     OW61052  13.830   0.374  12.985
53093SOL    HW161053  13.825   0.286  12.947
53093SOL    HW261054  13.789   0.366  13.071
53094SOL     OW61055   5.980   1.958   5.447
53094SOL    HW161056   5.939   2.041   5.424
53094SOL    HW261057   5.931   1.925   5.522
53095SOL     OW61058  12.933   8.850   7.607
53095SOL    HW161059  12.882   8.901   7.670
53095SOL    HW261060  12.988   8.914   7.562
53096SOL     OW61061   2.581   4.879   8.064
53096SOL    HW161062   2.563   4.834   8.146
53096SOL    HW261063   2.553   4.818   7.996
53097SOL     OW61064   4.399  14.578   0.838
53097SOL    HW161065   4.432  14.528   0.913
53097SOL    HW261066   4.310  14.603   0.863
53098SOL     OW61067  13.740   9.947   4.298
53098SOL    HW161068  13.684   9.876   4.331
53098SOL    HW261069  13.822   9.937   4.347
53099SOL     OW61070   3.762  10.489   8.057
53099SOL    HW161071   3.790  10.569   8.102
53099SOL    HW261072   3.676  10.510   8.021
53100SOL     OW61073   9.833   5.032  14.241
53100SOL    HW161074   9.848   5.106  14.300
53100SOL    HW261075   9.769   5.066  14.178
53101SOL     OW61076  12.221  12.743  12.651
53101SOL    HW161077  12.142  12.769  12.602
53101SOL    HW261078  12.265  12.681  12.594
53102SOL     OW61079   6.795   9.495  14.734
53102SOL    HW161080   6.846   9.519  14.810
53102SOL    HW261081   6.838   9.539  14.661
53103SOL     OW61082  11.716  12.791   4.490
53103SOL    HW161083  11.681  12.857   4.430
53103SOL    HW261084  11.737  12.840   4.569
53104SOL     OW61085   3.628   6.190   3.474
53104SOL    HW161086   3.613   6.279   3.442
53104SOL    HW261087   3.664   6.142   3.399
53105SOL     OW61088  10.744  12.162  13.667
53105SOL    HW161089  10.706  12.092  13.720
53105SOL    HW261090  10.683  12.170  13.593
53106SOL     OW61091   6.350  13.379  13.581
53106SOL    HW161092   6.337  13.407  13.490
53106SOL    HW261093   6.263  13.385  13.620
53107SOL     OW61094  13.470  12.922   3.433
53107SOL    HW161095  13.482  12.849   3.494
53107SOL    HW261096  13.555  12.966   3.432
53108SOL     OW61097   4.247   9.627   7.237
53108SOL    HW161098   4.176   9.636   7.301
53108SOL    HW261099   4.203   9.596   7.157
53109SOL     OW61100   3.037   4.743   0.202
53109SOL    HW161101   3.080   4.760   0.285
53109SOL    HW261102   2.945   4.766   0.216
53110SOL     OW61103   1.200   9.845  13.179
53110SOL    HW161104   1.287   9.805  13.188
53110SOL    HW261105   1.144   9.796  13.238
53111SOL     OW61106  12.065   1.601  12.949
53111SOL    HW161107  12.141   1.567  12.996
53111SOL    HW261108  12.002   1.621  13.017
53112SOL     OW61109   3.622   1.156   2.890
53112SOL    HW161110   3.713   1.177   2.871
53112SOL    HW261111   3.618   1.060   2.885
53113SOL     OW61112   5.757   7.815  13.912
53113SOL    HW161113   5.844   7.778  13.900
53113SOL    HW261114   5.728   7.781  13.996
53114SOL     OW61115  11.084   8.864   8.168
53114SOL    HW161116  11.064   8.936   8.227
53114SOL    HW261117  11.115   8.794   8.225
53115SOL     OW61118   3.329  12.783   5.222
53115SOL    HW161119   3.276  12.728   5.280
53115SOL    HW261120   3.420  12.760   5.243
53116SOL     OW61121   8.810   1.304   6.950
53116SOL    HW161122   8.800   1.399   6.960
53116SOL    HW261123   8.884   1.281   7.007
53117SOL     OW61124   7.409   4.401   9.263
53117SOL    HW161125   7.495   4.439   9.283
53117SOL    HW261126   7.367   4.390   9.348
53118SOL     OW61127  13.110   4.749   9.243
53118SOL    HW161128  13.161   4.675   9.209
53118SOL    HW261129  13.109   4.812   9.171
53119SOL     OW61130   5.508   1.092   5.026
53119SOL    HW161131   5.444   1.135   5.083
53119SOL    HW261132   5.593   1.112   5.066
53120SOL     OW61133   0.632  14.279   7.327
53120SOL    HW161134   0.583  14.279   7.244
53120SOL    HW261135   0.658  14.188   7.338
53121SOL     OW61136  12.010   7.329   4.628
53121SOL    HW161137  12.059   7.410   4.614
53121SOL    HW261138  11.960   7.344   4.709
53122SOL     OW61139   2.362   7.115   7.647
53122SOL    HW161140   2.445   7.069   7.655
53122SOL    HW261141   2.383   7.206   7.666
53123SOL     OW61142   6.538   8.026   0.587
53123SOL    HW161143   6.489   8.104   0.612
53123SOL    HW261144   6.559   7.983   0.669
53124SOL     OW61145  13.951  13.643   3.173
53124SOL    HW161146  13.895  13.719   3.157
53124SOL    HW261147  13.904  13.570   3.131
53125SOL     OW61148   6.087  13.418  12.153
53125SOL    HW161149   6.152  13.445  12.089
53125SOL    HW261150   6.089  13.487  12.220
53126SOL     OW61151   9.163   2.125  13.963
53126SOL    HW161152   9.126   2.212  13.946
53126SOL    HW261153   9.100   2.065  13.924
53127SOL     OW61154  11.760   3.310   1.041
53127SOL    HW161155  11.826   3.249   1.007
53127SOL    HW261156  11.759   3.294   1.135
53128SOL     OW61157   4.089   6.015   0.070
53128SOL    HW161158   4.003   5.998   0.109
53128SOL    HW261159   4.070   6.044  14.859
53129SOL     OW61160   4.804   2.133   7.598
53129SOL    HW161161   4.798   2.056   7.654
53129SOL    HW261162   4.726   2.184   7.617
53130SOL     OW61163   6.653  10.909   6.675
53130SOL    HW161164   6.608  10.993   6.662
53130SOL    HW261165   6.689  10.914   6.763
53131SOL     OW61166   6.437   4.107  13.047
53131SOL    HW161167   6.405   4.062  13.125
53131SOL    HW261168   6.391   4.191  13.047
53132SOL     OW61169  11.164  12.652  12.649
53132SOL    HW161170  11.214  12.576  12.678
53132SOL    HW261171  11.077  12.617  12.627
53133SOL     OW61172   3.062   9.443   7.686
53133SOL    HW161173   3.156   9.456   7.673
53133SOL    HW261174   3.021   9.515   7.639
53134SOL     OW61175   7.059  13.861   3.898
53134SOL    HW161176   6.969  13.869   3.931
53134SOL    HW261177   7.075  13.944   3.854
53135SOL     OW61178   7.140   6.299   4.689
53135SOL    HW161179   7.235   6.302   4.697
53135SOL    HW261180   7.108   6.360   4.756
53136SOL     OW61181   9.158   0.646   4.742
53136SOL    HW161182   9.113   0.639   4.658
53136SOL    HW261183   9.188   0.557   4.760
53137SOL     OW61184  14.220   0.084   1.906
53137SOL    HW161185  14.190   0.175   1.898
53137SOL    HW261186  14.231   0.054   1.816
53138SOL     OW61187   7.257  10.040   6.789
53138SOL    HW161188   7.189   9.993   6.741
53138SOL    HW261189   7.219  10.125   6.809
53139SOL     OW61190  13.188   8.436   9.555
53139SOL    HW161191  13.274   8.462   9.589
53139SOL    HW261192  13.167   8.503   9.491
53140SOL     OW61193   9.472   1.907  12.886
53140SOL    HW161194   9.387   1.903  12.930
53140SOL    HW261195   9.484   1.819  12.849
53141SOL     OW61196   2.108  10.492  10.083
53141SOL    HW161197   2.109  10.587  10.070
53141SOL    HW261198   2.030  10.475  10.134
53142SOL     OW61199   1.548   4.564   5.345
53142SOL    HW161200   1.555   4.510   5.265
53142SOL    HW261201   1.458   4.548   5.376
53143SOL     OW61202   5.295  12.021   1.136
53143SOL    HW161203   5.291  12.030   1.231
53143SOL    HW261204   5.378  11.977   1.119
53144SOL     OW61205   6.985   7.654   3.776
53144SOL    HW161206   6.962   7.747   3.786
53144SOL    HW261207   6.905   7.613   3.744
53145SOL     OW61208  11.060  13.926  11.304
53145SOL    HW161209  11.041  14.010  11.262
53145SOL    HW261210  11.069  13.947  11.397
53146SOL     OW61211  14.654   8.851   9.487
53146SOL    HW161212  14.646   8.944   9.511
53146SOL    HW261213  14.574   8.811   9.522
53147SOL     OW61214   9.926   3.598  13.493
53147SOL    HW161215   9.957   3.554  13.414
53147SOL    HW261216   9.987   3.570  13.562
53148SOL     OW61217   8.562  14.658   1.138
53148SOL    HW161218   8.559  14.753   1.144
53148SOL    HW261219   8.541  14.628   1.227
53149SOL     OW61220  12.689   9.759   0.327
53149SOL    HW161221  12.659   9.703   0.255
53149SOL    HW261222  12.685   9.702   0.404
53150SOL     OW61223   7.594   8.314   2.346
53150SOL    HW161224   7.610   8.301   2.440
53150SOL    HW261225   7.577   8.226   2.313
53151SOL     OW61226  11.812   7.210  14.022
53151SOL    HW161227  11.815   7.116  14.002
53151SOL    HW261228  11.725   7.224  14.059
53152SOL     OW61229  14.734   1.197   7.556
53152SOL    HW161230  14.717   1.202   7.650
53152SOL    HW261231  14.758   1.286   7.531
53153SOL     OW61232   9.715   0.992  12.701
53153SOL    HW161233   9.713   1.057  12.631
53153SOL    HW261234   9.805   0.995  12.734
53154SOL     OW61235   2.299   8.417  14.019
53154SOL    HW161236   2.307   8.343  14.079
53154SOL    HW261237   2.332   8.384  13.935
53155SOL     OW61238  13.440  10.643  13.618
53155SOL    HW161239  13.520  10.592  13.632
53155SOL    HW261240  13.433  10.699  13.695
53156SOL     OW61241   5.179   1.197   4.676
53156SOL    HW161242   5.155   1.282   4.713
53156SOL    HW261243   5.273   1.189   4.695
53157SOL     OW61244   7.764  14.020  12.780
53157SOL    HW161245   7.839  14.080  12.778
53157SOL    HW261246   7.787  13.954  12.845
53158SOL     OW61247  12.160   0.706   9.729
53158SOL    HW161248  12.096   0.745   9.789
53158SOL    HW261249  12.108   0.651   9.671
53159SOL     OW61250  13.093   9.402   2.207
53159SOL    HW161251  13.155   9.475   2.194
53159SOL    HW261252  13.072   9.405   2.300
53160SOL     OW61253   2.009   8.426   6.285
53160SOL    HW161254   1.938   8.393   6.340
53160SOL    HW261255   1.978   8.414   6.195
53161SOL     OW61256   1.551  12.008  10.418
53161SOL    HW161257   1.564  12.087  10.366
53161SOL    HW261258   1.609  12.019  10.494
53162SOL     OW61259  14.306  10.698   9.116
53162SOL    HW161260  14.379  10.644   9.083
53162SOL    HW261261  14.231  10.639   9.115
53163SOL     OW61262   4.524   6.365  10.232
53163SOL    HW161263   4.488   6.316  10.306
53163SOL    HW261264   4.554   6.297  10.171
53164SOL     OW61265   2.484  12.965  10.479
53164SOL    HW161266   2.461  12.886  10.528
53164SOL    HW261267   2.412  13.025  10.497
53165SOL     OW61268  10.261   1.438   6.429
53165SOL    HW161269  10.297   1.368   6.483
53165SOL    HW261270  10.334   1.470   6.377
53166SOL     OW61271  10.668   7.717   7.084
53166SOL    HW161272  10.666   7.678   6.997
53166SOL    HW261273  10.576   7.721   7.110
53167SOL     OW61274   0.257   9.010  11.298
53167SOL    HW161275   0.253   8.999  11.393
53167SOL    HW261276   0.247   8.921  11.263
53168SOL     OW61277   8.791  12.600   7.371
53168SOL    HW161278   8.806  12.632   7.460
53168SOL    HW261279   8.743  12.518   7.382
53169SOL     OW61280   0.426   0.490   8.633
53169SOL    HW161281   0.415   0.512   8.726
53169SOL    HW261282   0.519   0.466   8.626
53170SOL     OW61283   3.530   2.861  10.073
53170SOL    HW161284   3.530   2.810   9.991
53170SOL    HW261285   3.516   2.951  10.045
53171SOL     OW61286   4.562  13.429   5.190
53171SOL    HW161287   4.482  13.460   5.148
53171SOL    HW261288   4.599  13.366   5.127
53172SOL     OW61289   9.716   0.280  14.609
53172SOL    HW161290   9.664   0.268  14.530
53172SOL    HW261291   9.787   0.216  14.601
53173SOL     OW61292  11.494   0.314   2.291
53173SOL    HW161293  11.446   0.354   2.219
53173SOL    HW261294  11.437   0.325   2.368
53174SOL     OW61295  11.540   9.487   0.705
53174SOL    HW161296  11.499   9.411   0.745
53174SOL    HW261297  11.484   9.508   0.630
53175SOL     OW61298   3.624   5.613  12.779
53175SOL    HW161299   3.690   5.615  12.710
53175SOL    HW261300   3.540   5.611  12.733
53176SOL     OW61301   1.254   2.285  10.368
53176SOL    HW161302   1.270   2.342  10.443
53176SOL    HW261303   1.277   2.198  10.399
53177SOL     OW61304   5.354  10.201  14.460
53177SOL    HW161305   5.375  10.235  14.373
53177SOL    HW261306   5.438  10.197  14.505
53178SOL     OW61307  12.648   8.664   1.378
53178SOL    HW161308  12.583   8.654   1.448
53178SOL    HW261309  12.612   8.732   1.322
53179SOL     OW61310  14.094   4.964   3.455
53179SOL    HW161311  14.000   4.945   3.446
53179SOL    HW261312  14.122   4.914   3.532
53180SOL     OW61313   0.943   2.799  13.718
53180SOL    HW161314   0.976   2.758  13.638
53180SOL    HW261315   0.952   2.731  13.785
53181SOL     OW61316   0.766   3.223   4.181
53181SOL    HW161317   0.769   3.180   4.095
53181SOL    HW261318   0.695   3.179   4.227
53182SOL     OW61319   3.554   0.940  13.010
53182SOL    HW161320   3.609   0.863  12.994
53182SOL    HW261321   3.468   0.916  12.974
53183SOL     OW61322  12.155  13.954   7.890
53183SOL    HW161323  12.195  13.955   7.803
53183SOL    HW261324  12.223  13.917   7.947
53184SOL     OW61325  14.454   6.018   9.441
53184SOL    HW161326  14.406   5.937   9.424
53184SOL    HW261327  14.432   6.041   9.531
53185SOL     OW61328   7.128   7.284   0.065
53185SOL    HW161329   7.201   7.272   0.126
53185SOL    HW261330   7.076   7.205   0.074
53186SOL     OW61331   6.635   6.363   4.332
53186SOL    HW161332   6.649   6.279   4.289
53186SOL    HW261333   6.709   6.372   4.393
53187SOL     OW61334   6.471   0.976   2.956
53187SOL    HW161335   6.390   0.960   3.005
53187SOL    HW261336   6.515   0.891   2.952
53188SOL     OW61337  12.064   6.887   7.313
53188SOL    HW161338  12.005   6.871   7.239
53188SOL    HW261339  12.085   6.800   7.347
53189SOL     OW61340   0.032   5.936  10.913
53189SOL    HW161341   0.042   6.009  10.974
53189SOL    HW261342   0.096   5.871  10.943
53190SOL     OW61343   1.640  12.383   8.770
53190SOL    HW161344   1.582  12.307   8.768
53190SOL    HW261345   1.641  12.411   8.861
53191SOL     OW61346  10.957   3.272   4.607
53191SOL    HW161347  10.960   3.257   4.702
53191SOL    HW261348  11.048   3.289   4.583
53192SOL     OW61349   5.588   5.767   7.962
53192SOL    HW161350   5.533   5.689   7.972
53192SOL    HW261351   5.649   5.763   8.035
53193SOL     OW61352   2.775   5.104   8.834
53193SOL    HW161353   2.842   5.117   8.901
53193SOL    HW261354   2.783   5.179   8.775
53194SOL     OW61355   6.823   8.568   2.497
53194SOL    HW161356   6.775   8.617   2.564
53194SOL    HW261357   6.852   8.489   2.541
53195SOL     OW61358   2.103   0.214   8.008
53195SOL    HW161359   2.046   0.278   8.048
53195SOL    HW261360   2.184   0.262   7.988
53196SOL     OW61361   2.857   4.014  10.899
53196SOL    HW161362   2.848   4.049  10.987
53196SOL    HW261363   2.950   3.991  10.892
53197SOL     OW61364   9.297  14.350   5.051
53197SOL    HW161365   9.211  14.343   5.009
53197SOL    HW261366   9.295  14.284   5.120
53198SOL     OW61367   6.861   9.091  10.269
53198SOL    HW161368   6.792   9.090  10.203
53198SOL    HW261369   6.886   9.000  10.280
53199SOL     OW61370  11.367   8.313  11.236
53199SOL    HW161371  11.310   8.360  11.175
53199SOL    HW261372  11.309   8.252  11.281
53200SOL     OW61373   7.159   9.975   8.062
53200SOL    HW161374   7.087  10.010   8.115
53200SOL    HW261375   7.182  10.047   8.003
53201SOL     OW61376  13.343   4.078  13.163
53201SOL    HW161377  13.382   3.996  13.194
53201SOL    HW261378  13.286   4.106  13.234
53202SOL     OW61379   6.768  11.411   8.871
53202SOL    HW161380   6.676  11.425   8.894
53202SOL    HW261381   6.807  11.374   8.950
53203SOL     OW61382   3.175  13.834   3.794
53203SOL    HW161383   3.161  13.906   3.732
53203SOL    HW261384   3.270  13.820   3.793
53204SOL     OW61385   0.241   9.122   2.503
53204SOL    HW161386   0.331   9.098   2.525
53204SOL    HW261387   0.230   9.091   2.413
53205SOL     OW61388   1.243  13.913   3.881
53205SOL    HW161389   1.327  13.932   3.921
53205SOL    HW261390   1.180  13.968   3.928
53206SOL     OW61391  13.823  10.145   2.151
53206SOL    HW161392  13.856  10.066   2.106
53206SOL    HW261393  13.728  10.135   2.150
53207SOL     OW61394   7.841   7.432   9.386
53207SOL    HW161395   7.855   7.416   9.292
53207SOL    HW261396   7.818   7.525   9.391
53208SOL     OW61397   9.148   3.853   3.445
53208SOL    HW161398   9.175   3.936   3.404
53208SOL    HW261399   9.117   3.800   3.372
53209SOL     OW61400   8.050  14.315   6.375
53209SOL    HW161401   8.011  14.229   6.362
53209SOL    HW261402   7.992  14.359   6.437
53210SOL     OW61403   3.028   9.587   4.308
53210SOL    HW161404   3.090   9.597   4.381
53210SOL    HW261405   3.082   9.595   4.230
53211SOL     OW61406  13.783  13.424   6.578
53211SOL    HW161407  13.830  13.421   6.662
53211SOL    HW261408  13.822  13.354   6.526
53212SOL     OW61409  10.898   7.080  12.924
53212SOL    HW161410  10.806   7.078  12.949
53212SOL    HW261411  10.944   7.042  12.999
53213SOL     OW61412   3.646   3.623   1.857
53213SOL    HW161413   3.709   3.571   1.808
53213SOL    HW261414   3.699   3.675   1.918
53214SOL     OW61415  13.013   1.661   5.011
53214SOL    HW161416  12.997   1.654   5.105
53214SOL    HW261417  13.016   1.755   4.994
53215SOL     OW61418  11.765   4.132  13.005
53215SOL    HW161419  11.790   4.046  12.970
53215SOL    HW261420  11.688   4.114  13.058
53216SOL     OW61421   6.591   9.143  14.434
53216SOL    HW161422   6.646   9.190  14.371
53216SOL    HW261423   6.507   9.131  14.388
53217SOL     OW61424   0.076  10.962   8.171
53217SOL    HW161425   0.089  11.037   8.229
53217SOL    HW261426   0.062  10.888   8.230
53218SOL     OW61427  10.243   7.875   3.589
53218SOL    HW161428  10.226   7.831   3.672
53218SOL    HW261429  10.308   7.942   3.610
53219SOL     OW61430   8.360  13.465   3.174
53219SOL    HW161431   8.444  13.418   3.172
53219SOL    HW261432   8.364  13.517   3.255
53220SOL     OW61433  13.315   7.185   9.261
53220SOL    HW161434  13.220   7.184   9.274
53220SOL    HW261435  13.343   7.094   9.276
53221SOL     OW61436  10.386  11.074  13.388
53221SOL    HW161437  10.428  11.143  13.439
53221SOL    HW261438  10.292  11.094  13.395
53222SOL     OW61439   7.357  13.093   1.080
53222SOL    HW161440   7.410  13.109   1.158
53222SOL    HW261441   7.384  13.160   1.017
53223SOL     OW61442  12.068   5.712   1.830
53223SOL    HW161443  12.138   5.777   1.824
53223SOL    HW261444  12.018   5.737   1.907
53224SOL     OW61445   2.254   6.073   0.945
53224SOL    HW161446   2.228   5.994   0.992
53224SOL    HW261447   2.212   6.064   0.859
53225SOL     OW61448   8.870   2.378   8.270
53225SOL    HW161449   8.817   2.326   8.209
53225SOL    HW261450   8.924   2.313   8.316
53226SOL     OW61451  11.720   2.771   9.664
53226SOL    HW161452  11.805   2.791   9.625
53226SOL    HW261453  11.699   2.683   9.632
53227SOL     OW61454   9.407  14.558   4.266
53227SOL    HW161455   9.407  14.464   4.248
53227SOL    HW261456   9.326  14.590   4.226
53228SOL     OW61457  13.305   3.591  11.680
53228SOL    HW161458  13.344   3.605  11.593
53228SOL    HW261459  13.211   3.606  11.667
53229SOL     OW61460  14.337  10.518  14.856
53229SOL    HW161461  14.308  10.449  14.797
53229SOL    HW261462  14.432  10.508  14.861
53230SOL     OW61463  11.073   0.803   5.249
53230SOL    HW161464  10.986   0.807   5.291
53230SOL    HW261465  11.082   0.887   5.205
53231SOL     OW61466   7.334  13.284   4.325
53231SOL    HW161467   7.307  13.366   4.282
53231SOL    HW261468   7.356  13.310   4.414
53232SOL     OW61469   7.526   7.037   3.174
53232SOL    HW161470   7.566   6.952   3.188
53232SOL    HW261471   7.581   7.079   3.108
53233SOL     OW61472   5.379  11.791  14.201
53233SOL    HW161473   5.319  11.818  14.132
53233SOL    HW261474   5.465  11.791  14.160
53234SOL     OW61475  14.283  10.835   0.113
53234SOL    HW161476  14.259  10.804   0.026
53234SOL    HW261477  14.261  10.929   0.112
53235SOL     OW61478  12.845   7.192  11.493
53235SOL    HW161479  12.809   7.279  11.508
53235SOL    HW261480  12.913   7.206  11.426
53236SOL     OW61481   1.457   9.735   2.721
53236SOL    HW161482   1.533   9.792   2.731
53236SOL    HW261483   1.391   9.773   2.780
53237SOL     OW61484   0.903   8.577  11.316
53237SOL    HW161485   0.870   8.536  11.396
53237SOL    HW261486   0.887   8.670  11.329
53238SOL     OW61487   2.782   8.202  12.081
53238SOL    HW161488   2.824   8.286  12.097
53238SOL    HW261489   2.813   8.175  11.995
53239SOL     OW61490  11.171   6.247   4.484
53239SOL    HW161491  11.102   6.213   4.426
53239SOL    HW261492  11.217   6.312   4.431
53240SOL     OW61493   9.852   4.991   0.592
53240SOL    HW161494   9.768   4.962   0.555
53240SOL    HW261495   9.830   5.019   0.681
53241SOL     OW61496   3.317   5.850   6.659
53241SOL    HW161497   3.328   5.761   6.692
53241SOL    HW261498   3.275   5.898   6.730
53242SOL     OW61499   6.345  13.271   2.812
53242SOL    HW161500   6.427  13.250   2.857
53242SOL    HW261501   6.323  13.360   2.842
53243SOL     OW61502   0.026   9.302   1.343
53243SOL    HW161503   0.018   9.215   1.383
53243SOL    HW261504   0.015   9.287   1.249
53244SOL     OW61505  12.042  10.519   0.151
53244SOL    HW161506  11.963  10.531   0.100
53244SOL    HW261507  12.098  10.593   0.127
53245SOL     OW61508   0.755   9.889   7.719
53245SOL    HW161509   0.803   9.807   7.709
53245SOL    HW261510   0.792   9.947   7.651
53246SOL     OW61511   4.867   1.591  13.622
53246SOL    HW161512   4.836   1.586  13.712
53246SOL    HW261513   4.933   1.660  13.623
53247SOL     OW61514   2.366   4.902   6.483
53247SOL    HW161515   2.344   4.839   6.415
53247SOL    HW261516   2.345   4.858   6.565
53248SOL     OW61517   9.845   6.718  13.337
53248SOL    HW161518   9.821   6.780  13.406
53248SOL    HW261519   9.777   6.728  13.270
53249SOL     OW61520   8.910   6.273  13.956
53249SOL    HW161521   8.989   6.232  13.990
53249SOL    HW261522   8.839   6.231  14.004
53250SOL     OW61523   1.177   3.916   8.346
53250SOL    HW161524   1.183   3.821   8.359
53250SOL    HW261525   1.134   3.949   8.424
53251SOL     OW61526   6.630  10.977  10.236
53251SOL    HW161527   6.694  10.908  10.251
53251SOL    HW261528   6.553  10.931  10.202
53252SOL     OW61529   3.432   0.131   9.593
53252SOL    HW161530   3.467   0.069   9.657
53252SOL    HW261531   3.349   0.161   9.630
53253SOL     OW61532   6.031  10.926   3.197
53253SOL    HW161533   6.083  10.851   3.168
53253SOL    HW261534   6.094  10.997   3.206
53254SOL     OW61535  11.268  10.055   5.976
53254SOL    HW161536  11.180  10.023   5.995
53254SOL    HW261537  11.316  10.040   6.058
53255SOL     OW61538   3.378   4.542   1.592
53255SOL    HW161539   3.387   4.492   1.510
53255SOL    HW261540   3.435   4.618   1.580
53256SOL     OW61541   1.586   9.059   7.941
53256SOL    HW161542   1.572   9.021   7.854
53256SOL    HW261543   1.504   9.106   7.960
53257SOL     OW61544   2.429   7.509   2.149
53257SOL    HW161545   2.465   7.421   2.163
53257SOL    HW261546   2.496   7.555   2.099
53258SOL     OW61547  10.221  11.199  13.889
53258SOL    HW161548  10.159  11.270  13.876
53258SOL    HW261549  10.179  11.142  13.954
53259SOL     OW61550   9.680   7.091   0.227
53259SOL    HW161551   9.655   7.001   0.248
53259SOL    HW261552   9.676   7.138   0.311
53260SOL     OW61553  10.555  12.781   6.853
53260SOL    HW161554  10.476  12.747   6.894
53260SOL    HW261555  10.530  12.867   6.820
53261SOL     OW61556  10.512   2.605  12.001
53261SOL    HW161557  10.436   2.639  12.050
53261SOL    HW261558  10.554   2.545  12.062
53262SOL     OW61559   2.121   8.400   7.815
53262SOL    HW161560   2.148   8.469   7.754
53262SOL    HW261561   2.098   8.447   7.895
53263SOL     OW61562  12.668   4.035   9.440
53263SOL    HW161563  12.764   4.043   9.444
53263SOL    HW261564  12.652   3.978   9.365
53264SOL     OW61565   2.481   8.078   0.112
53264SOL    HW161566   2.556   8.113   0.161
53264SOL    HW261567   2.410   8.139   0.130
53265SOL     OW61568   5.160  11.956   3.987
53265SOL    HW161569   5.226  11.902   4.031
53265SOL    HW261570   5.153  11.918   3.899
53266SOL     OW61571  10.751   2.486   9.875
53266SOL    HW161572  10.734   2.580   9.886
53266SOL    HW261573  10.680   2.443   9.922
53267SOL     OW61574  14.270   1.289   0.682
53267SOL    HW161575  14.190   1.257   0.641
53267SOL    HW261576  14.339   1.231   0.649
53268SOL     OW61577  10.770  10.896   4.447
53268SOL    HW161578  10.801  10.887   4.537
53268SOL    HW261579  10.719  10.817   4.430
53269SOL     OW61580   9.876   1.732   6.888
53269SOL    HW161581   9.857   1.706   6.798
53269SOL    HW261582   9.935   1.664   6.920
53270SOL     OW61583   9.450  14.705  11.074
53270SOL    HW161584   9.452  14.645  11.148
53270SOL    HW261585   9.364  14.692  11.034
53271SOL     OW61586   1.875   3.113  14.094
53271SOL    HW161587   1.780   3.108  14.089
53271SOL    HW261588   1.901   3.164  14.017
53272SOL     OW61589  10.366  11.658  11.959
53272SOL    HW161590  10.396  11.576  11.996
53272SOL    HW261591  10.332  11.635  11.872
53273SOL     OW61592   7.777   6.478   7.278
53273SOL    HW161593   7.850   6.426   7.245
53273SOL    HW261594   7.787   6.475   7.374
53274SOL     OW61595   9.094  10.924   1.207
53274SOL    HW161596   9.036  10.995   1.235
53274SOL    HW261597   9.035  10.850   1.192
53275SOL     OW61598   0.338   1.121   8.469
53275SOL    HW161599   0.297   1.149   8.552
53275SOL    HW261600   0.264   1.105   8.410
53276SOL     OW61601   9.999   8.309  13.030
53276SOL    HW161602   9.950   8.355  12.962
53276SOL    HW261603   9.942   8.237  13.057
53277SOL     OW61604   4.913   3.839   4.035
53277SOL    HW161605   4.865   3.841   3.953
53277SOL    HW261606   4.967   3.918   4.033
53278SOL     OW61607   6.615   3.873   3.172
53278SOL    HW161608   6.607   3.929   3.249
53278SOL    HW261609   6.661   3.928   3.108
53279SOL     OW61610  11.882   0.004   7.921
53279SOL    HW161611  11.859  14.876   8.014
53279SOL    HW261612  11.973   0.031   7.920
53280SOL     OW61613   5.388   5.783  10.494
53280SOL    HW161614   5.443   5.849  10.537
53280SOL    HW261615   5.388   5.809  10.402
53281SOL     OW61616   5.139   7.209  11.879
53281SOL    HW161617   5.159   7.219  11.786
53281SOL    HW261618   5.145   7.115  11.895
53282SOL     OW61619  13.894   0.504   3.757
53282SOL    HW161620  13.853   0.556   3.688
53282SOL    HW261621  13.975   0.551   3.777
53283SOL     OW61622   5.796   9.754   9.424
53283SOL    HW161623   5.743   9.790   9.353
53283SOL    HW261624   5.874   9.810   9.426
53284SOL     OW61625   9.971   8.367   6.502
53284SOL    HW161626  10.056   8.338   6.467
53284SOL    HW261627   9.962   8.457   6.470
53285SOL     OW61628  11.857   4.029   2.801
53285SOL    HW161629  11.923   3.959   2.799
53285SOL    HW261630  11.774   3.984   2.784
53286SOL     OW61631   4.121  14.160  13.772
53286SOL    HW161632   4.180  14.111  13.829
53286SOL    HW261633   4.162  14.246  13.763
53287SOL     OW61634  12.187   7.393   8.372
53287SOL    HW161635  12.204   7.399   8.466
53287SOL    HW261636  12.223   7.308   8.346
53288SOL     OW61637   4.706   8.207   5.807
53288SOL    HW161638   4.685   8.281   5.750
53288SOL    HW261639   4.683   8.130   5.755
53289SOL     OW61640  10.557   5.195   7.843
53289SOL    HW161641  10.527   5.118   7.794
53289SOL    HW261642  10.581   5.258   7.775
53290SOL     OW61643   1.284  12.089   5.008
53290SOL    HW161644   1.316  12.071   4.920
53290SOL    HW261645   1.287  12.005   5.053
53291SOL     OW61646   3.014   6.681   6.668
53291SOL    HW161647   3.056   6.596   6.681
53291SOL    HW261648   2.990   6.683   6.576
53292SOL     OW61649  11.046   1.422   1.022
53292SOL    HW161650  11.048   1.479   1.099
53292SOL    HW261651  11.096   1.470   0.956
53293SOL     OW61652   6.885   6.522  14.567
53293SOL    HW161653   6.852   6.507  14.479
53293SOL    HW261654   6.968   6.569  14.555
53294SOL     OW61655   6.799   0.120  12.995
53294SOL    HW161656   6.869   0.074  13.042
53294SOL    HW261657   6.832   0.209  12.983
53295SOL     OW61658   8.729  11.520   6.161
53295SOL    HW161659   8.785  11.521   6.084
53295SOL    HW261660   8.657  11.462   6.138
53296SOL     OW61661   0.973  12.701   4.349
53296SOL    HW161662   1.044  12.759   4.323
53296SOL    HW261663   0.939  12.665   4.267
53297SOL     OW61664   5.852   3.555   6.025
53297SOL    HW161665   5.796   3.595   6.092
53297SOL    HW261666   5.818   3.589   5.942
53298SOL     OW61667  13.294  13.034  12.132
53298SOL    HW161668  13.271  13.125  12.114
53298SOL    HW261669  13.237  12.982  12.075
53299SOL     OW61670   0.990   4.872   2.925
53299SOL    HW161671   0.896   4.861   2.941
53299SOL    HW261672   1.011   4.804   2.860
53300SOL     OW61673   8.467   0.757   2.654
53300SOL    HW161674   8.469   0.811   2.733
53300SOL    HW261675   8.485   0.668   2.684
53301SOL     OW61676   4.288   9.312   1.936
53301SOL    HW161677   4.324   9.307   2.024
53301SOL    HW261678   4.335   9.385   1.895
53302SOL     OW61679   2.097  14.273   6.379
53302SOL    HW161680   2.159  14.252   6.309
53302SOL    HW261681   2.013  14.240   6.348
53303SOL     OW61682  13.494   8.765   6.019
53303SOL    HW161683  13.435   8.756   5.944
53303SOL    HW261684  13.552   8.690   6.012
53304SOL     OW61685  12.354   5.546  10.336
53304SOL    HW161686  12.350   5.599  10.416
53304SOL    HW261687  12.263   5.522  10.318
53305SOL     OW61688   9.031  13.303   1.452
53305SOL    HW161689   9.006  13.388   1.418
53305SOL    HW261690   8.982  13.294   1.534
53306SOL     OW61691  10.885   1.423   0.412
53306SOL    HW161692  10.976   1.433   0.386
53306SOL    HW261693  10.858   1.339   0.374
53307SOL     OW61694   1.722  11.327  13.581
53307SOL    HW161695   1.716  11.368  13.495
53307SOL    HW261696   1.798  11.269  13.574
53308SOL     OW61697   6.229   7.078   5.273
53308SOL    HW161698   6.182   7.133   5.336
53308SOL    HW261699   6.273   7.012   5.326
53309SOL     OW61700  12.974  13.525   6.045
53309SOL    HW161701  12.937  13.537   5.958
53309SOL    HW261702  12.969  13.611   6.085
53310SOL     OW61703   2.485   6.257   3.400
53310SOL    HW161704   2.576   6.247   3.428
53310SOL    HW261705   2.433   6.236   3.478
53311SOL     OW61706   5.300  13.553   8.040
53311SOL    HW161707   5.358  13.617   8.082
53311SOL    HW261708   5.337  13.468   8.064
53312SOL     OW61709   5.406  14.100   1.519
53312SOL    HW161710   5.362  14.183   1.537
53312SOL    HW261711   5.439  14.072   1.604
53313SOL     OW61712  10.659   0.281   1.718
53313SOL    HW161713  10.721   0.225   1.671
53313SOL    HW261714  10.650   0.359   1.663
53314SOL     OW61715  10.991  12.594  13.009
53314SOL    HW161716  10.994  12.686  12.983
53314SOL    HW261717  10.984  12.595  13.104
53315SOL     OW61718   8.513  11.556   5.739
53315SOL    HW161719   8.592  11.506   5.763
53315SOL    HW261720   8.524  11.574   5.646
53316SOL     OW61721   2.387  12.049   7.571
53316SOL    HW161722   2.366  12.018   7.659
53316SOL    HW261723   2.462  12.108   7.584
53317SOL     OW61724   8.905   6.150   7.897
53317SOL    HW161725   8.867   6.237   7.905
53317SOL    HW261726   8.998   6.162   7.919
53318SOL     OW61727   5.532  12.363   4.555
53318SOL    HW161728   5.534  12.411   4.637
53318SOL    HW261729   5.550  12.428   4.487
53319SOL     OW61730  11.166   2.371   2.261
53319SOL    HW161731  11.222   2.443   2.291
53319SOL    HW261732  11.099   2.363   2.329
53320SOL     OW61733  12.390   3.812   4.410
53320SOL    HW161734  12.462   3.871   4.386
53320SOL    HW261735  12.322   3.832   4.346
53321SOL     OW61736  10.673  12.153   0.892
53321SOL    HW161737  10.591  12.103   0.897
53321SOL    HW261738  10.731  12.099   0.838
53322SOL     OW61739  14.471  10.428  12.327
53322SOL    HW161740  14.478  10.454  12.419
53322SOL    HW261741  14.523  10.492  12.280
53323SOL     OW61742   6.473   0.634   3.360
53323SOL    HW161743   6.552   0.588   3.330
53323SOL    HW261744   6.498   0.667   3.447
53324SOL     OW61745   6.196  13.981  12.898
53324SOL    HW161746   6.170  14.045  12.832
53324SOL    HW261747   6.192  14.029  12.981
53325SOL     OW61748   3.884  11.012   1.425
53325SOL    HW161749   3.966  11.051   1.454
53325SOL    HW261750   3.904  10.974   1.339
53326SOL     OW61751   8.206  14.121   6.203
53326SOL    HW161752   8.121  14.110   6.246
53326SOL    HW261753   8.270  14.107   6.273
53327SOL     OW61754   8.397  13.149   8.466
53327SOL    HW161755   8.318  13.170   8.516
53327SOL    HW261756   8.432  13.234   8.440
53328SOL     OW61757   2.506  13.840   5.788
53328SOL    HW161758   2.481  13.760   5.835
53328SOL    HW261759   2.563  13.887   5.850
53329SOL     OW61760   9.092   1.610   9.800
53329SOL    HW161761   9.043   1.637   9.878
53329SOL    HW261762   9.124   1.522   9.821
53330SOL     OW61763   2.992   1.642   8.261
53330SOL    HW161764   2.921   1.605   8.313
53330SOL    HW261765   2.959   1.728   8.233
53331SOL     OW61766   1.325  11.748   6.470
53331SOL    HW161767   1.382  11.778   6.400
53331SOL    HW261768   1.333  11.816   6.538
53332SOL     OW61769   2.172   9.319  12.355
53332SOL    HW161770   2.179   9.370  12.436
53332SOL    HW261771   2.114   9.246  12.377
53333SOL     OW61772   5.230   9.225  10.631
53333SOL    HW161773   5.260   9.164  10.699
53333SOL    HW261774   5.207   9.305  10.679
53334SOL     OW61775   7.399   5.452   7.179
53334SOL    HW161776   7.469   5.517   7.175
53334SOL    HW261777   7.320   5.498   7.150
53335SOL     OW61778   1.689  10.887  11.156
53335SOL    HW161779   1.672  10.807  11.206
53335SOL    HW261780   1.735  10.944  11.218
53336SOL     OW61781   1.154   4.511  10.416
53336SOL    HW161782   1.111   4.577  10.361
53336SOL    HW261783   1.222   4.473  10.359
53337SOL     OW61784  14.731   6.383   0.548
53337SOL    HW161785  14.649   6.433   0.541
53337SOL    HW261786  14.788   6.439   0.600
53338SOL     OW61787  14.828   0.162   5.324
53338SOL    HW161788   0.012   0.191   5.391
53338SOL    HW261789   0.002   0.157   5.244
53339SOL     OW61790   3.041  12.847   2.772
53339SOL    HW161791   3.061  12.886   2.686
53339SOL    HW261792   2.958  12.802   2.758
53340SOL     OW61793   9.350   2.418  10.836
53340SOL    HW161794   9.377   2.482  10.770
53340SOL    HW261795   9.432   2.386  10.873
53341SOL     OW61796   9.467  11.546  14.722
53341SOL    HW161797   9.401  11.590  14.669
53341SOL    HW261798   9.510  11.617  14.771
53342SOL     OW61799  11.422   0.035   7.481
53342SOL    HW161800  11.501  14.863   7.502
53342SOL    HW261801  11.361   0.014   7.552
53343SOL     OW61802   8.574   7.308  10.682
53343SOL    HW161803   8.568   7.310  10.586
53343SOL    HW261804   8.484   7.292  10.711
53344SOL     OW61805   7.572   3.592   6.251
53344SOL    HW161806   7.542   3.604   6.341
53344SOL    HW261807   7.492   3.570   6.202
53345SOL     OW61808   1.106  12.763   0.954
53345SOL    HW161809   1.075  12.683   0.910
53345SOL    HW261810   1.036  12.827   0.939
53346SOL     OW61811   4.098   6.212   7.600
53346SOL    HW161812   4.108   6.249   7.687
53346SOL    HW261813   4.018   6.160   7.604
53347SOL     OW61814   9.610   5.138  12.907
53347SOL    HW161815   9.684   5.110  12.961
53347SOL    HW261816   9.535   5.137  12.966
53348SOL     OW61817   3.645   5.047   3.472
53348SOL    HW161818   3.717   5.067   3.412
53348SOL    HW261819   3.662   4.958   3.501
53349SOL     OW61820   8.571   8.119  14.190
53349SOL    HW161821   8.623   8.146  14.266
53349SOL    HW261822   8.480   8.131  14.219
53350SOL     OW61823   7.903   7.680  14.050
53350SOL    HW161824   7.962   7.651  13.981
53350SOL    HW261825   7.859   7.600  14.080
53351SOL     OW61826   0.374   0.462   4.030
53351SOL    HW161827   0.423   0.410   4.093
53351SOL    HW261828   0.301   0.498   4.080
53352SOL     OW61829   4.149  10.300   7.250
53352SOL    HW161830   4.168  10.206   7.250
53352SOL    HW261831   4.099  10.315   7.330
53353SOL     OW61832  11.461   3.305   5.513
53353SOL    HW161833  11.430   3.227   5.559
53353SOL    HW261834  11.423   3.297   5.425
53354SOL     OW61835  11.765   4.759  11.248
53354SOL    HW161836  11.670   4.772  11.247
53354SOL    HW261837  11.800   4.829  11.192
53355SOL     OW61838  11.115   7.475   2.522
53355SOL    HW161839  11.020   7.475   2.523
53355SOL    HW261840  11.139   7.411   2.455
53356SOL     OW61841  14.873   7.703   4.013
53356SOL    HW161842  14.813   7.727   3.943
53356SOL    HW261843   0.082   7.711   3.973
53357SOL     OW61844   9.284   4.343   4.676
53357SOL    HW161845   9.276   4.381   4.588
53357SOL    HW261846   9.265   4.250   4.663
53358SOL     OW61847   8.079   5.142   4.129
53358SOL    HW161848   7.996   5.141   4.082
53358SOL    HW261849   8.145   5.115   4.064
53359SOL     OW61850   5.446   1.864   6.363
53359SOL    HW161851   5.496   1.824   6.292
53359SOL    HW261852   5.501   1.855   6.440
53360SOL     OW61853   4.477   8.090   6.116
53360SOL    HW161854   4.528   8.014   6.144
53360SOL    HW261855   4.521   8.165   6.156
53361SOL     OW61856   0.739  10.575   2.283
53361SOL    HW161857   0.652  10.572   2.323
53361SOL    HW261858   0.724  10.610   2.195
53362SOL     OW61859  14.187   0.944   9.045
53362SOL    HW161860  14.127   0.869   9.047
53362SOL    HW261861  14.204   0.964   9.137
53363SOL     OW61862  13.760  12.148  14.516
53363SOL    HW161863  13.806  12.169  14.435
53363SOL    HW261864  13.712  12.228  14.538
53364SOL     OW61865   0.825   7.628   7.424
53364SOL    HW161866   0.756   7.662   7.367
53364SOL    HW261867   0.865   7.706   7.462
53365SOL     OW61868   8.861   0.998  13.859
53365SOL    HW161869   8.857   1.027  13.950
53365SOL    HW261870   8.810   1.062  13.810
53366SOL     OW61871   7.168  12.087   4.183
53366SOL    HW161872   7.218  12.144   4.125
53366SOL    HW261873   7.184  12.123   4.271
53367SOL     OW61874   0.156   3.648   3.669
53367SOL    HW161875   0.065   3.628   3.690
53367SOL    HW261876   0.191   3.567   3.631
53368SOL     OW61877  10.351   5.351   3.869
53368SOL    HW161878  10.356   5.280   3.933
53368SOL    HW261879  10.442   5.377   3.855
53369SOL     OW61880   5.382   3.295   3.669
53369SOL    HW161881   5.446   3.262   3.732
53369SOL    HW261882   5.416   3.266   3.584
53370SOL     OW61883  11.661  11.054  13.623
53370SOL    HW161884  11.574  11.014  13.615
53370SOL    HW261885  11.714  10.986  13.664
53371SOL     OW61886   8.316  11.890   3.865
53371SOL    HW161887   8.398  11.917   3.906
53371SOL    HW261888   8.264  11.854   3.937
53372SOL     OW61889   0.235   2.385  11.675
53372SOL    HW161890   0.227   2.290  11.668
53372SOL    HW261891   0.248   2.415  11.584
53373SOL     OW61892   2.156   0.240   5.909
53373SOL    HW161893   2.249   0.259   5.904
53373SOL    HW261894   2.129   0.270   5.996
53374SOL     OW61895  13.778   8.434  13.278
53374SOL    HW161896  13.852   8.403  13.330
53374SOL    HW261897  13.742   8.507  13.329
53375SOL     OW61898   4.904   4.275   7.446
53375SOL    HW161899   4.842   4.305   7.513
53375SOL    HW261900   4.863   4.299   7.363
53376SOL     OW61901  10.418   8.619   3.368
53376SOL    HW161902  10.348   8.685   3.366
53376SOL    HW261903  10.373   8.537   3.390
53377SOL     OW61904   9.107   6.382  12.095
53377SOL    HW161905   9.044   6.324  12.139
53377SOL    HW261906   9.142   6.436  12.166
53378SOL     OW61907   2.142   7.200  10.595
53378SOL    HW161908   2.144   7.229  10.504
53378SOL    HW261909   2.105   7.112  10.591
53379SOL     OW61910   0.400  12.003  10.146
53379SOL    HW161911   0.382  12.095  10.128
53379SOL    HW261912   0.436  12.001  10.234
53380SOL     OW61913   0.251  12.221   8.742
53380SOL    HW161914   0.276  12.169   8.818
53380SOL    HW261915   0.274  12.311   8.765
53381SOL     OW61916   3.707   3.485   3.405
53381SOL    HW161917   3.713   3.490   3.310
53381SOL    HW261918   3.788   3.527   3.437
53382SOL     OW61919   1.610   1.565   9.115
53382SOL    HW161920   1.648   1.653   9.102
53382SOL    HW261921   1.532   1.565   9.060
53383SOL     OW61922   9.268  13.598   6.864
53383SOL    HW161923   9.344  13.567   6.815
53383SOL    HW261924   9.210  13.521   6.870
53384SOL     OW61925   4.492  10.092   4.243
53384SOL    HW161926   4.554  10.092   4.316
53384SOL    HW261927   4.509  10.009   4.198
53385SOL     OW61928   5.137   1.793   0.474
53385SOL    HW161929   5.225   1.783   0.509
53385SOL    HW261930   5.149   1.802   0.380
53386SOL     OW61931   4.994   7.074  10.586
53386SOL    HW161932   5.089   7.086  10.591
53386SOL    HW261933   4.974   7.088  10.493
53387SOL     OW61934   3.665   5.812   4.730
53387SOL    HW161935   3.590   5.860   4.694
53387SOL    HW261936   3.686   5.746   4.664
53388SOL     OW61937   3.450   6.997  14.103
53388SOL    HW161938   3.382   6.952  14.153
53388SOL    HW261939   3.456   6.949  14.021
53389SOL     OW61940   9.579  10.698  12.294
53389SOL    HW161941   9.540  10.625  12.341
53389SOL    HW261942   9.665  10.711  12.335
53390SOL     OW61943  12.524   9.285  12.393
53390SOL    HW161944  12.572   9.361  12.425
53390SOL    HW261945  12.487   9.245  12.472
53391SOL     OW61946   2.489  11.558   3.681
53391SOL    HW161947   2.527  11.638   3.645
53391SOL    HW261948   2.429  11.527   3.613
53392SOL     OW61949  12.954   8.010  13.398
53392SOL    HW161950  13.013   8.083  13.379
53392SOL    HW261951  13.011   7.942  13.434
53393SOL     OW61952   2.194   9.410  13.758
53393SOL    HW161953   2.228   9.490  13.799
53393SOL    HW261954   2.198   9.429  13.664
53394SOL     OW61955   1.828   5.901   1.366
53394SOL    HW161956   1.745   5.859   1.391
53394SOL    HW261957   1.876   5.832   1.321
53395SOL     OW61958   3.682   8.514  14.371
53395SOL    HW161959   3.678   8.536  14.277
53395SOL    HW261960   3.772   8.533  14.396
53396SOL     OW61961  13.482  13.762   4.744
53396SOL    HW161962  13.390  13.781   4.763
53396SOL    HW261963  13.524  13.761   4.830
53397SOL     OW61964  10.612   3.923  12.193
53397SOL    HW161965  10.689   3.963  12.234
53397SOL    HW261966  10.625   3.829  12.205
53398SOL     OW61967   0.131   0.936  11.702
53398SOL    HW161968   0.212   0.983  11.718
53398SOL    HW261969   0.071   1.002  11.669
53399SOL     OW61970   9.329   5.382   1.058
53399SOL    HW161971   9.418   5.400   1.028
53399SOL    HW261972   9.306   5.299   1.017
53400SOL     OW61973  12.731   5.447   1.971
53400SOL    HW161974  12.656   5.408   2.018
53400SOL    HW261975  12.764   5.376   1.916
53401SOL     OW61976   4.159   7.031   4.536
53401SOL    HW161977   4.234   7.018   4.478
53401SOL    HW261978   4.195   7.019   4.624
53402SOL     OW61979   5.573   7.444  12.141
53402SOL    HW161980   5.594   7.361  12.184
53402SOL    HW261981   5.607   7.435  12.053
53403SOL     OW61982   3.553   7.288   6.653
53403SOL    HW161983   3.521   7.206   6.691
53403SOL    HW261984   3.647   7.288   6.672
53404SOL     OW61985   2.201  13.386   7.438
53404SOL    HW161986   2.230  13.404   7.527
53404SOL    HW261987   2.154  13.303   7.444
53405SOL     OW61988   5.294  13.356   9.437
53405SOL    HW161989   5.239  13.285   9.471
53405SOL    HW261990   5.269  13.433   9.489
53406SOL     OW61991   7.176   6.984   1.630
53406SOL    HW161992   7.097   6.933   1.610
53406SOL    HW261993   7.245   6.940   1.581
53407SOL     OW61994   0.808   0.637  10.940
53407SOL    HW161995   0.811   0.665  10.848
53407SOL    HW261996   0.838   0.714  10.989
53408SOL     OW61997   5.628  14.443   9.201
53408SOL    HW161998   5.696  14.455   9.135
53408SOL    HW261999   5.622  14.348   9.212
53409SOL     OW62000  11.510   6.036  12.276
53409SOL    HW162001  11.537   6.071  12.361
53409SOL    HW262002  11.591   6.007  12.235
53410SOL     OW62003   6.694   1.560  13.399
53410SOL    HW162004   6.628   1.593  13.459
53410SOL    HW262005   6.755   1.511  13.454
53411SOL     OW62006   6.520   5.136   5.421
53411SOL    HW162007   6.496   5.222   5.456
53411SOL    HW262008   6.446   5.080   5.443
53412SOL     OW62009   3.870   6.750   8.888
53412SOL    HW162010   3.803   6.819   8.881
53412SOL    HW262011   3.952   6.795   8.868
53413SOL     OW62012   5.002   7.079   1.656
53413SOL    HW162013   4.924   7.133   1.669
53413SOL    HW262014   4.988   7.038   1.570
53414SOL     OW62015  12.530  11.869   2.688
53414SOL    HW162016  12.438  11.884   2.712
53414SOL    HW262017  12.539  11.914   2.604
53415SOL     OW62018  13.681  11.923   0.015
53415SOL    HW162019  13.627  11.848  14.868
53415SOL    HW262020  13.752  11.885   0.067
53416SOL     OW62021   2.545   6.326   7.587
53416SOL    HW162022   2.526   6.293   7.499
53416SOL    HW262023   2.469   6.381   7.608
53417SOL     OW62024   5.380   2.375  10.883
53417SOL    HW162025   5.398   2.292  10.840
53417SOL    HW262026   5.465   2.402  10.920
53418SOL     OW62027  11.473  14.442  11.515
53418SOL    HW162028  11.476  14.535  11.494
53418SOL    HW262029  11.523  14.400  11.445
53419SOL     OW62030  12.401  13.676  13.695
53419SOL    HW162031  12.426  13.721  13.615
53419SOL    HW262032  12.399  13.583  13.671
53420SOL     OW62033   7.473  13.526  12.193
53420SOL    HW162034   7.554  13.553  12.150
53420SOL    HW262035   7.494  13.443  12.235
53421SOL     OW62036   9.814   6.967   6.950
53421SOL    HW162037   9.846   6.946   7.037
53421SOL    HW262038   9.790   7.060   6.955
53422SOL     OW62039   9.211  14.264   5.319
53422SOL    HW162040   9.297  14.259   5.361
53422SOL    HW262041   9.149  14.246   5.390
53423SOL     OW62042   2.888   2.400   1.053
53423SOL    HW162043   2.896   2.396   1.148
53423SOL    HW262044   2.962   2.348   1.021
53424SOL     OW62045   3.943   8.366   6.104
53424SOL    HW162046   4.002   8.290   6.103
53424SOL    HW262047   3.963   8.410   6.186
53425SOL     OW62048   3.718   5.345  12.132
53425SOL    HW162049   3.625   5.335  12.154
53425SOL    HW262050   3.764   5.302  12.204
53426SOL     OW62051   5.855   5.690   8.169
53426SOL    HW162052   5.838   5.622   8.234
53426SOL    HW262053   5.899   5.760   8.217
53427SOL     OW62054  10.561   5.264  13.992
53427SOL    HW162055  10.637   5.251  13.936
53427SOL    HW262056  10.503   5.321  13.942
53428SOL     OW62057   0.534  12.250   1.068
53428SOL    HW162058   0.592  12.320   1.037
53428SOL    HW262059   0.446  12.279   1.044
53429SOL     OW62060   9.853  10.651  13.031
53429SOL    HW162061   9.887  10.570  12.992
53429SOL    HW262062   9.770  10.666  12.986
53430SOL     OW62063  11.099   5.153  10.066
53430SOL    HW162064  11.127   5.161  10.157
53430SOL    HW262065  11.176   5.174  10.014
53431SOL     OW62066  10.635   4.264   4.825
53431SOL    HW162067  10.671   4.315   4.897
53431SOL    HW262068  10.599   4.186   4.866
53432SOL     OW62069   6.776   0.768   6.224
53432SOL    HW162070   6.783   0.715   6.145
53432SOL    HW262071   6.693   0.742   6.264
53433SOL     OW62072   4.834  12.084   8.121
53433SOL    HW162073   4.831  12.140   8.199
53433SOL    HW262074   4.903  12.020   8.140
53434SOL     OW62075  10.208   6.999  12.930
53434SOL    HW162076  10.247   6.969  13.012
53434SOL    HW262077  10.197   7.093  12.942
53435SOL     OW62078  12.139  14.069  11.345
53435SOL    HW162079  12.187  14.071  11.428
53435SOL    HW262080  12.207  14.057  11.279
53436SOL     OW62081   8.409   5.684   4.851
53436SOL    HW162082   8.450   5.637   4.778
53436SOL    HW262083   8.477   5.689   4.918
53437SOL     OW62084   3.410  14.539  13.637
53437SOL    HW162085   3.330  14.521  13.588
53437SOL    HW262086   3.394  14.501  13.723
53438SOL     OW62087   5.759   8.051   4.705
53438SOL    HW162088   5.843   8.070   4.662
53438SOL    HW262089   5.738   7.962   4.677
53439SOL     OW62090  11.362  10.606   7.727
53439SOL    HW162091  11.339  10.563   7.645
53439SOL    HW262092  11.451  10.577   7.746
53440SOL     OW62093   6.657   3.478   7.931
53440SOL    HW162094   6.596   3.450   7.863
53440SOL    HW262095   6.732   3.514   7.883
53441SOL     OW62096   6.479  14.110   7.531
53441SOL    HW162097   6.464  14.016   7.541
53441SOL    HW262098   6.395  14.144   7.498
53442SOL     OW62099   6.561  10.835   3.659
53442SOL    HW162100   6.621  10.768   3.692
53442SOL    HW262101   6.618  10.909   3.638
53443SOL     OW62102  10.695   4.547  14.112
53443SOL    HW162103  10.715   4.603  14.037
53443SOL    HW262104  10.612   4.581  14.146
53444SOL     OW62105  11.466   9.537   1.890
53444SOL    HW162106  11.431   9.601   1.828
53444SOL    HW262107  11.561   9.552   1.889
53445SOL     OW62108  12.408   0.410   5.390
53445SOL    HW162109  12.410   0.334   5.448
53445SOL    HW262110  12.316   0.422   5.368
53446SOL     OW62111   6.636  13.835  10.224
53446SOL    HW162112   6.720  13.850  10.182
53446SOL    HW262113   6.616  13.743  10.206
53447SOL     OW62114  10.998   4.719  10.271
53447SOL    HW162115  11.025   4.780  10.203
53447SOL    HW262116  10.915   4.755  10.305
53448SOL     OW62117   5.050  10.854   6.014
53448SOL    HW162118   5.034  10.926   5.952
53448SOL    HW262119   5.143  10.835   6.006
53449SOL     OW62120   7.664   4.244   4.014
53449SOL    HW162121   7.658   4.326   4.062
53449SOL    HW262122   7.599   4.187   4.055
53450SOL     OW62123   1.584   9.074  13.075
53450SOL    HW162124   1.569   9.145  13.137
53450SOL    HW262125   1.587   9.117  12.989
53451SOL     OW62126   2.468   3.162  13.826
53451SOL    HW162127   2.545   3.105  13.823
53451SOL    HW262128   2.496   3.242  13.781
53452SOL     OW62129   1.090   1.135   6.959
53452SOL    HW162130   1.095   1.159   6.866
53452SOL    HW262131   1.111   1.041   6.961
53453SOL     OW62132  10.174   4.691   1.695
53453SOL    HW162133  10.095   4.669   1.744
53453SOL    HW262134  10.177   4.627   1.624
53454SOL     OW62135   7.035   0.225   6.015
53454SOL    HW162136   7.055   0.140   5.975
53454SOL    HW262137   7.107   0.240   6.076
53455SOL     OW62138   8.388   9.002   0.577
53455SOL    HW162139   8.333   8.927   0.599
53455SOL    HW262140   8.413   8.987   0.486
53456SOL     OW62141   6.743   4.023   1.094
53456SOL    HW162142   6.797   4.046   1.018
53456SOL    HW262143   6.771   4.084   1.162
53457SOL     OW62144   2.673   6.534   8.385
53457SOL    HW162145   2.708   6.463   8.330
53457SOL    HW262146   2.735   6.606   8.375
53458SOL     OW62147   2.223   0.770   7.354
53458SOL    HW162148   2.232   0.826   7.432
53458SOL    HW262149   2.208   0.682   7.389
53459SOL     OW62150   6.086   2.617   6.125
53459SOL    HW162151   6.070   2.628   6.219
53459SOL    HW262152   6.026   2.678   6.083
53460SOL     OW62153   7.120  12.864  10.870
53460SOL    HW162154   7.091  12.952  10.896
53460SOL    HW262155   7.202  12.851  10.917
53461SOL     OW62156  10.770   8.604   5.082
53461SOL    HW162157  10.822   8.544   5.029
53461SOL    HW262158  10.679   8.584   5.060
53462SOL     OW62159  11.317   4.230   6.957
53462SOL    HW162160  11.244   4.251   6.898
53462SOL    HW262161  11.301   4.284   7.035
53463SOL     OW62162  12.788  13.173   1.286
53463SOL    HW162163  12.857  13.113   1.315
53463SOL    HW262164  12.825  13.260   1.300
53464SOL     OW62165   8.334   6.762  12.304
53464SOL    HW162166   8.373   6.698  12.364
53464SOL    HW262167   8.291   6.825  12.361
53465SOL     OW62168   4.340   9.218   5.388
53465SOL    HW162169   4.393   9.256   5.317
53465SOL    HW262170   4.404   9.192   5.454
53466SOL     OW62171   9.213   1.831  10.797
53466SOL    HW162172   9.234   1.880  10.876
53466SOL    HW262173   9.159   1.890  10.744
53467SOL     OW62174  11.623   7.587  12.974
53467SOL    HW162175  11.603   7.681  12.978
53467SOL    HW262176  11.632   7.569  12.881
53468SOL     OW62177   0.761   0.048  13.223
53468SOL    HW162178   0.762  14.855  13.287
53468SOL    HW262179   0.672   0.083  13.227
53469SOL     OW62180   2.282   8.612  14.842
53469SOL    HW162181   2.225   8.664   0.020
53469SOL    HW262182   2.358   8.668  14.826
53470SOL     OW62183   3.444   6.954  12.549
53470SOL    HW162184   3.469   6.862  12.560
53470SOL    HW262185   3.363   6.951  12.498
53471SOL     OW62186  14.719  12.792   4.835
53471SOL    HW162187  14.699  12.699   4.849
53471SOL    HW262188  14.762  12.794   4.749
53472SOL     OW62189   8.272   7.999   6.740
53472SOL    HW162190   8.232   7.997   6.653
53472SOL    HW262191   8.362   8.028   6.726
53473SOL     OW62192   0.301   4.611   2.298
53473SOL    HW162193   0.340   4.619   2.384
53473SOL    HW262194   0.291   4.517   2.284
53474SOL     OW62195  14.169   9.852   6.973
53474SOL    HW162196  14.137   9.895   7.053
53474SOL    HW262197  14.109   9.777   6.962
53475SOL     OW62198   0.564  12.761  13.500
53475SOL    HW162199   0.498  12.799  13.442
53475SOL    HW262200   0.521  12.755  13.585
53476SOL     OW62201   2.947  11.521  12.674
53476SOL    HW162202   2.977  11.601  12.632
53476SOL    HW262203   2.940  11.543  12.767
53477SOL     OW62204   5.102   8.662   9.405
53477SOL    HW162205   5.146   8.578   9.392
53477SOL    HW262206   5.118   8.711   9.325
53478SOL     OW62207   6.775   8.938  12.629
53478SOL    HW162208   6.737   8.989  12.557
53478SOL    HW262209   6.703   8.883  12.660
53479SOL     OW62210   2.111  10.753  14.087
53479SOL    HW162211   2.056  10.684  14.049
53479SOL    HW262212   2.093  10.748  14.181
53480SOL     OW62213   4.813  13.260   5.769
53480SOL    HW162214   4.818  13.168   5.798
53480SOL    HW262215   4.865  13.263   5.689
53481SOL     OW62216   2.513   8.564  12.523
53481SOL    HW162217   2.482   8.654  12.522
53481SOL    HW262218   2.547   8.551  12.612
53482SOL     OW62219   3.438   7.513  10.222
53482SOL    HW162220   3.452   7.431  10.269
53482SOL    HW262221   3.349   7.506  10.187
53483SOL     OW62222  12.234  13.523  11.144
53483SOL    HW162223  12.232  13.461  11.217
53483SOL    HW262224  12.302  13.490  11.085
53484SOL     OW62225   0.791   0.794   8.517
53484SOL    HW162226   0.796   0.732   8.444
53484SOL    HW262227   0.729   0.753   8.578
53485SOL     OW62228   5.218   8.429   3.005
53485SOL    HW162229   5.167   8.359   2.965
53485SOL    HW262230   5.293   8.441   2.948
53486SOL     OW62231   5.978  10.362   8.435
53486SOL    HW162232   6.001  10.345   8.526
53486SOL    HW262233   6.058  10.395   8.395
53487SOL     OW62234   0.064   5.034  13.479
53487SOL    HW162235   0.091   5.062  13.567
53487SOL    HW262236   0.147   5.020  13.432
53488SOL     OW62237   1.422   6.395  10.610
53488SOL    HW162238   1.387   6.318  10.564
53488SOL    HW262239   1.351   6.423  10.668
53489SOL     OW62240   0.059  10.068   4.646
53489SOL    HW162241   0.051  10.162   4.628
53489SOL    HW262242  14.873  10.051   4.715
53490SOL     OW62243  14.716   6.591   8.124
53490SOL    HW162244  14.786   6.542   8.169
53490SOL    HW262245  14.727   6.681   8.155
53491SOL     OW62246   5.441  11.263   9.177
53491SOL    HW162247   5.441  11.285   9.084
53491SOL    HW262248   5.356  11.294   9.208
53492SOL     OW62249   9.490   3.871  12.911
53492SOL    HW162250   9.509   3.912  12.827
53492SOL    HW262251   9.461   3.782  12.889
53493SOL     OW62252   2.591   3.356   2.155
53493SOL    HW162253   2.545   3.273   2.164
53493SOL    HW262254   2.671   3.344   2.207
53494SOL     OW62255  10.291   0.402   0.548
53494SOL    HW162256  10.212   0.349   0.559
53494SOL    HW262257  10.270   0.463   0.478
53495SOL     OW62258  10.121  14.452   2.327
53495SOL    HW162259  10.206  14.446   2.370
53495SOL    HW262260  10.094  14.362   2.312
53496SOL     OW62261   4.872   6.732  11.040
53496SOL    HW162262   4.897   6.739  10.948
53496SOL    HW262263   4.781   6.760  11.042
53497SOL     OW62264   6.629  12.150   5.773
53497SOL    HW162265   6.721  12.126   5.764
53497SOL    HW262266   6.630  12.246   5.773
53498SOL     OW62267   0.191  11.392   3.883
53498SOL    HW162268   0.267  11.450   3.892
53498SOL    HW262269   0.134  11.416   3.956
53499SOL     OW62270  11.091   7.116   9.946
53499SOL    HW162271  10.996   7.127   9.944
53499SOL    HW262272  11.126   7.198   9.912
53500SOL     OW62273   1.303   5.281  13.402
53500SOL    HW162274   1.311   5.205  13.344
53500SOL    HW262275   1.390   5.319  13.404
53501SOL     OW62276   7.014  12.871   6.556
53501SOL    HW162277   6.969  12.838   6.633
53501SOL    HW262278   7.092  12.816   6.548
53502SOL     OW62279   5.323  10.575  12.912
53502SOL    HW162280   5.359  10.499  12.958
53502SOL    HW262281   5.272  10.538  12.840
53503SOL     OW62282   3.034  12.484  14.799
53503SOL    HW162283   2.966  12.516  14.740
53503SOL    HW262284   3.029  12.540  14.876
53504SOL     OW62285   3.909   8.854   8.817
53504SOL    HW162286   3.988   8.871   8.766
53504SOL    HW262287   3.922   8.902   8.899
53505SOL     OW62288  10.083   8.180   4.676
53505SOL    HW162289  10.093   8.275   4.679
53505SOL    HW262290  10.111   8.156   4.588
53506SOL     OW62291   3.806   4.276   7.231
53506SOL    HW162292   3.803   4.345   7.298
53506SOL    HW262293   3.749   4.307   7.161
53507SOL     OW62294   4.069   8.388   9.341
53507SOL    HW162295   3.990   8.340   9.315
53507SOL    HW262296   4.075   8.375   9.436
53508SOL     OW62297   4.060  12.103   5.565
53508SOL    HW162298   3.974  12.079   5.531
53508SOL    HW262299   4.120  12.042   5.523
53509SOL     OW62300   5.929   8.630   9.084
53509SOL    HW162301   5.956   8.720   9.100
53509SOL    HW262302   5.962   8.610   8.996
53510SOL     OW62303   8.228   4.378   0.988
53510SOL    HW162304   8.285   4.357   1.062
53510SOL    HW262305   8.251   4.468   0.964
53511SOL     OW62306   5.578  11.800   7.066
53511SOL    HW162307   5.578  11.761   7.153
53511SOL    HW262308   5.533  11.884   7.078
53512SOL     OW62309   4.314   6.460   2.765
53512SOL    HW162310   4.285   6.416   2.685
53512SOL    HW262311   4.323   6.389   2.829
53513SOL     OW62312   0.371   7.192   3.013
53513SOL    HW162313   0.445   7.241   2.977
53513SOL    HW262314   0.299   7.207   2.951
53514SOL     OW62315   8.725   0.423   8.523
53514SOL    HW162316   8.767   0.509   8.521
53514SOL    HW262317   8.715   0.400   8.431
53515SOL     OW62318   0.840   3.855  10.870
53515SOL    HW162319   0.784   3.823  10.940
53515SOL    HW262320   0.793   3.930  10.833
53516SOL     OW62321   5.575   4.847  13.774
53516SOL    HW162322   5.511   4.783  13.744
53516SOL    HW262323   5.598   4.898  13.696
53517SOL     OW62324  10.041   0.848  13.335
53517SOL    HW162325   9.946   0.860  13.332
53517SOL    HW262326  10.058   0.771  13.280
53518SOL     OW62327   3.765  14.326  10.026
53518SOL    HW162328   3.722  14.401  10.068
53518SOL    HW262329   3.855  14.355  10.014
53519SOL     OW62330   7.302  11.488  12.452
53519SOL    HW162331   7.310  11.573  12.495
53519SOL    HW262332   7.353  11.429  12.507
53520SOL     OW62333   4.915  13.187  11.701
53520SOL    HW162334   4.952  13.259  11.650
53520SOL    HW262335   4.931  13.211  11.792
53521SOL     OW62336   0.537   1.707   5.231
53521SOL    HW162337   0.584   1.778   5.188
53521SOL    HW262338   0.494   1.748   5.306
53522SOL     OW62339  13.691   1.509   1.885
53522SOL    HW162340  13.660   1.595   1.914
53522SOL    HW262341  13.785   1.511   1.900
53523SOL     OW62342  11.607   0.102   1.076
53523SOL    HW162343  11.617   0.170   1.010
53523SOL    HW262344  11.694   0.061   1.083
53524SOL     OW62345   1.540  14.514  10.843
53524SOL    HW162346   1.460  14.490  10.796
53524SOL    HW262347   1.521  14.600  10.880
53525SOL     OW62348   0.870   0.910   7.475
53525SOL    HW162349   0.834   0.894   7.387
53525SOL    HW262350   0.950   0.857   7.477
53526SOL     OW62351   4.001   7.755   3.322
53526SOL    HW162352   4.027   7.767   3.230
53526SOL    HW262353   4.028   7.836   3.365
53527SOL     OW62354   7.822   0.489   2.429
53527SOL    HW162355   7.780   0.402   2.424
53527SOL    HW262356   7.897   0.482   2.369
53528SOL     OW62357   6.812  14.767  12.113
53528SOL    HW162358   6.763  14.818  12.048
53528SOL    HW262359   6.897  14.809  12.118
53529SOL     OW62360  13.248   6.560   3.500
53529SOL    HW162361  13.321   6.528   3.447
53529SOL    HW262362  13.174   6.505   3.476
53530SOL     OW62363   1.098   6.714   1.284
53530SOL    HW162364   1.148   6.666   1.217
53530SOL    HW262365   1.163   6.737   1.350
53531SOL     OW62366   1.179  14.412   0.949
53531SOL    HW162367   1.154  14.504   0.940
53531SOL    HW262368   1.125  14.379   1.022
53532SOL     OW62369   7.971  11.718   7.140
53532SOL    HW162370   7.899  11.696   7.200
53532SOL    HW262371   7.938  11.695   7.054
53533SOL     OW62372  14.496   2.718   9.122
53533SOL    HW162373  14.449   2.769   9.056
53533SOL    HW262374  14.582   2.760   9.129
53534SOL     OW62375   2.082   0.772   1.891
53534SOL    HW162376   2.014   0.838   1.908
53534SOL    HW262377   2.073   0.754   1.797
53535SOL     OW62378   2.243   9.527  10.524
53535SOL    HW162379   2.235   9.569  10.438
53535SOL    HW262380   2.323   9.476  10.518
53536SOL     OW62381   3.750   2.105  12.491
53536SOL    HW162382   3.703   2.120  12.409
53536SOL    HW262383   3.817   2.040  12.469
53537SOL     OW62384   0.898  13.428   7.316
53537SOL    HW162385   0.845  13.447   7.393
53537SOL    HW262386   0.973  13.487   7.323
53538SOL     OW62387   8.473  13.557   3.417
53538SOL    HW162388   8.527  13.486   3.382
53538SOL    HW262389   8.526  13.636   3.406
53539SOL     OW62390   5.188   2.462   4.222
53539SOL    HW162391   5.154   2.479   4.310
53539SOL    HW262392   5.188   2.367   4.215
53540SOL     OW62393  14.014   6.131  13.457
53540SOL    HW162394  14.014   6.072  13.381
53540SOL    HW262395  13.924   6.161  13.463
53541SOL     OW62396   4.304   7.199   8.652
53541SOL    HW162397   4.330   7.281   8.611
53541SOL    HW262398   4.346   7.131   8.598
53542SOL     OW62399   6.666  11.842  14.737
53542SOL    HW162400   6.742  11.790  14.711
53542SOL    HW262401   6.597  11.778  14.751
53543SOL     OW62402   4.524  12.371   0.816
53543SOL    HW162403   4.477  12.411   0.742
53543SOL    HW262404   4.597  12.325   0.775
53544SOL     OW62405   0.328   3.326   0.792
53544SOL    HW162406   0.239   3.290   0.795
53544SOL    HW262407   0.385   3.249   0.787
53545SOL     OW62408  14.729  10.822   9.840
53545SOL    HW162409  14.809  10.769   9.848
53545SOL    HW262410  14.737  10.889   9.908
53546SOL     OW62411   5.574   6.719   8.273
53546SOL    HW162412   5.517   6.665   8.327
53546SOL    HW262413   5.662   6.707   8.310
53547SOL     OW62414  12.189   0.517   1.206
53547SOL    HW162415  12.138   0.598   1.207
53547SOL    HW262416  12.236   0.519   1.122
53548SOL     OW62417  13.787  14.493   9.166
53548SOL    HW162418  13.854  14.462   9.227
53548SOL    HW262419  13.758  14.415   9.119
53549SOL     OW62420  13.028   2.016  13.573
53549SOL    HW162421  13.022   2.098  13.523
53549SOL    HW262422  13.014   2.042  13.664
53550SOL     OW62423   8.712   3.521  12.114
53550SOL    HW162424   8.624   3.492  12.138
53550SOL    HW262425   8.743   3.569  12.191
53551SOL     OW62426   7.714   7.640   5.663
53551SOL    HW162427   7.736   7.562   5.612
53551SOL    HW262428   7.757   7.711   5.616
53552SOL     OW62429   0.132   8.994   0.186
53552SOL    HW162430   0.142   8.901   0.164
53552SOL    HW262431   0.040   9.003   0.210
53553SOL     OW62432  12.772   4.642  14.679
53553SOL    HW162433  12.762   4.551  14.653
53553SOL    HW262434  12.728   4.648  14.764
53554SOL     OW62435  11.510   2.614   2.619
53554SOL    HW162436  11.531   2.647   2.532
53554SOL    HW262437  11.419   2.640   2.633
53555SOL     OW62438   3.146  13.067   3.928
53555SOL    HW162439   3.075  13.069   3.864
53555SOL    HW262440   3.166  12.974   3.939
53556SOL     OW62441   2.388   9.190   0.804
53556SOL    HW162442   2.359   9.239   0.726
53556SOL    HW262443   2.448   9.250   0.848
53557SOL     OW62444   5.150   7.098   6.895
53557SOL    HW162445   5.210   7.170   6.877
53557SOL    HW262446   5.200   7.019   6.875
53558SOL     OW62447  13.261   0.126   0.389
53558SOL    HW162448  13.283   0.168   0.306
53558SOL    HW262449  13.198   0.058   0.366
53559SOL     OW62450  11.786   6.246  12.792
53559SOL    HW162451  11.719   6.314  12.793
53559SOL    HW262452  11.767   6.192  12.869
53560SOL     OW62453  14.317  13.870  13.831
53560SOL    HW162454  14.373  13.803  13.791
53560SOL    HW262455  14.310  13.842  13.923
53561SOL     OW62456   7.610   2.663  11.183
53561SOL    HW162457   7.553   2.718  11.238
53561SOL    HW262458   7.621   2.714  11.102
53562SOL     OW62459   4.984   0.010  10.593
53562SOL    HW162460   4.969   0.078  10.527
53562SOL    HW262461   4.972  14.806  10.546
53563SOL     OW62462   6.430  14.129   2.430
53563SOL    HW162463   6.445  14.150   2.522
53563SOL    HW262464   6.448  14.210   2.383
53564SOL     OW62465  11.347  13.318   3.092
53564SOL    HW162466  11.316  13.229   3.109
53564SOL    HW262467  11.337  13.363   3.175
53565SOL     OW62468   9.639  14.878   6.642
53565SOL    HW162469   9.586   0.017   6.564
53565SOL    HW262470   9.575  14.875   6.714
53566SOL     OW62471   8.509  13.843   3.928
53566SOL    HW162472   8.442  13.775   3.920
53566SOL    HW262473   8.468  13.921   3.889
53567SOL     OW62474   9.199  13.246   9.125
53567SOL    HW162475   9.159  13.289   9.201
53567SOL    HW262476   9.291  13.238   9.148
53568SOL     OW62477  11.066   5.745  10.375
53568SOL    HW162478  10.976   5.770  10.352
53568SOL    HW262479  11.077   5.657  10.339
53569SOL     OW62480  14.825  14.723   2.971
53569SOL    HW162481  14.732  14.700   2.980
53569SOL    HW262482  14.870  14.664   3.032
53570SOL     OW62483  12.743  12.312   2.316
53570SOL    HW162484  12.681  12.370   2.360
53570SOL    HW262485  12.792  12.370   2.258
53571SOL     OW62486   9.418   1.845   4.516
53571SOL    HW162487   9.415   1.750   4.505
53571SOL    HW262488   9.328   1.871   4.534
53572SOL     OW62489   6.518   4.334   8.682
53572SOL    HW162490   6.426   4.311   8.684
53572SOL    HW262491   6.563   4.260   8.722
53573SOL     OW62492  12.952   1.792  10.545
53573SOL    HW162493  12.949   1.872  10.492
53573SOL    HW262494  13.019   1.810  10.611
53574SOL     OW62495   2.070   1.383  10.899
53574SOL    HW162496   2.039   1.337  10.977
53574SOL    HW262497   2.104   1.466  10.933
53575SOL     OW62498  12.216  12.492   7.227
53575SOL    HW162499  12.167  12.470   7.148
53575SOL    HW262500  12.176  12.439   7.296
53576SOL     OW62501  14.440   5.249   0.642
53576SOL    HW162502  14.426   5.267   0.549
53576SOL    HW262503  14.367   5.292   0.686
53577SOL     OW62504   0.647   1.004   9.203
53577SOL    HW162505   0.597   1.084   9.220
53577SOL    HW262506   0.704   0.995   9.279
53578SOL     OW62507  14.750   7.844   6.443
53578SOL    HW162508  14.778   7.922   6.396
53578SOL    HW262509  14.819   7.828   6.507
53579SOL     OW62510   6.082   1.127  14.594
53579SOL    HW162511   6.138   1.090  14.662
53579SOL    HW262512   6.140   1.182  14.542
53580SOL     OW62513  10.971   0.460  10.082
53580SOL    HW162514  10.915   0.396  10.125
53580SOL    HW262515  11.048   0.411  10.056
53581SOL     OW62516   5.514   7.227  14.114
53581SOL    HW162517   5.454   7.218  14.040
53581SOL    HW262518   5.460   7.259  14.186
53582SOL     OW62519   3.458   2.902   8.151
53582SOL    HW162520   3.508   2.880   8.073
53582SOL    HW262521   3.524   2.923   8.217
53583SOL     OW62522   2.003   0.781   9.625
53583SOL    HW162523   2.023   0.754   9.715
53583SOL    HW262524   1.918   0.826   9.633
53584SOL     OW62525   7.502  11.297   8.409
53584SOL    HW162526   7.418  11.287   8.365
53584SOL    HW262527   7.567  11.286   8.339
53585SOL     OW62528   4.122   9.920   8.889
53585SOL    HW162529   4.215   9.895   8.886
53585SOL    HW262530   4.079   9.848   8.935
53586SOL     OW62531  12.890   2.657   3.925
53586SOL    HW162532  12.962   2.593   3.925
53586SOL    HW262533  12.811   2.604   3.928
53587SOL     OW62534   2.914   1.543  11.427
53587SOL    HW162535   2.909   1.448  11.412
53587SOL    HW262536   2.972   1.551  11.503
53588SOL     OW62537   4.885   5.540   9.635
53588SOL    HW162538   4.893   5.572   9.545
53588SOL    HW262539   4.792   5.525   9.647
53589SOL     OW62540  14.262   4.549   4.748
53589SOL    HW162541  14.342   4.508   4.716
53589SOL    HW262542  14.227   4.488   4.813
53590SOL     OW62543  14.015   6.320   0.198
53590SOL    HW162544  13.940   6.275   0.236
53590SOL    HW262545  13.980   6.365   0.121
53591SOL     OW62546   4.822  10.339  11.047
53591SOL    HW162547   4.867  10.330  11.130
53591SOL    HW262548   4.875  10.291  10.984
53592SOL     OW62549  14.837   0.918   7.476
53592SOL    HW162550  14.797   0.981   7.536
53592SOL    HW262551  14.781   0.841   7.480
53593SOL     OW62552  14.563  10.187   1.652
53593SOL    HW162553  14.609  10.204   1.570
53593SOL    HW262554  14.550  10.093   1.654
53594SOL     OW62555   1.176  13.745  10.184
53594SOL    HW162556   1.088  13.784  10.189
53594SOL    HW262557   1.199  13.751  10.091
53595SOL     OW62558   5.728  10.728  10.935
53595SOL    HW162559   5.730  10.689  10.848
53595SOL    HW262560   5.681  10.811  10.923
53596SOL     OW62561   6.487   8.156  12.671
53596SOL    HW162562   6.545   8.084  12.695
53596SOL    HW262563   6.420   8.157  12.739
53597SOL     OW62564   1.113  11.586   9.871
53597SOL    HW162565   1.020  11.571   9.886
53597SOL    HW262566   1.131  11.672   9.908
53598SOL     OW62567   2.572   2.152   0.336
53598SOL    HW162568   2.599   2.061   0.347
53598SOL    HW262569   2.560   2.185   0.425
53599SOL     OW62570  13.449  11.069  10.802
53599SOL    HW162571  13.389  11.125  10.752
53599SOL    HW262572  13.424  10.980  10.778
53600SOL     OW62573   8.753  12.604  12.573
53600SOL    HW162574   8.734  12.518  12.611
53600SOL    HW262575   8.678  12.622  12.517
53601SOL     OW62576  14.200  14.002   0.966
53601SOL    HW162577  14.226  13.991   0.875
53601SOL    HW262578  14.266  13.954   1.016
53602SOL     OW62579   7.134  11.414  13.187
53602SOL    HW162580   7.183  11.442  13.264
53602SOL    HW262581   7.058  11.472  13.185
53603SOL     OW62582   0.368   4.777   5.437
53603SOL    HW162583   0.343   4.695   5.480
53603SOL    HW262584   0.459   4.764   5.412
53604SOL     OW62585  12.281   8.596  12.288
53604SOL    HW162586  12.350   8.582  12.353
53604SOL    HW262587  12.206   8.626  12.340
53605SOL     OW62588  10.089   4.168   5.614
53605SOL    HW162589  10.128   4.141   5.531
53605SOL    HW262590  10.022   4.102   5.632
53606SOL     OW62591   8.876   7.801   3.272
53606SOL    HW162592   8.882   7.826   3.179
53606SOL    HW262593   8.933   7.724   3.280
53607SOL     OW62594   9.139   0.118   1.054
53607SOL    HW162595   9.135   0.065   1.134
53607SOL    HW262596   9.191   0.065   0.994
53608SOL     OW62597  11.908  13.930   2.526
53608SOL    HW162598  11.884  13.934   2.434
53608SOL    HW262599  11.981  13.990   2.535
53609SOL     OW62600   8.549   7.787  10.478
53609SOL    HW162601   8.537   7.707  10.427
53609SOL    HW262602   8.640   7.782  10.509
53610SOL     OW62603   5.934   1.461   8.289
53610SOL    HW162604   5.937   1.381   8.236
53610SOL    HW262605   5.885   1.436   8.368
53611SOL     OW62606   3.577  13.695  10.185
53611SOL    HW162607   3.561  13.784  10.215
53611SOL    HW262608   3.587  13.703  10.090
53612SOL     OW62609   4.794   8.491   4.558
53612SOL    HW162610   4.722   8.553   4.554
53612SOL    HW262611   4.844   8.517   4.636
53613SOL     OW62612   2.012  12.834   0.002
53613SOL    HW162613   2.006  12.780  14.800
53613SOL    HW262614   2.077  12.789   0.056
53614SOL     OW62615   2.684   0.625   8.246
53614SOL    HW162616   2.672   0.559   8.178
53614SOL    HW262617   2.670   0.578   8.328
53615SOL     OW62618  10.586  13.694   5.522
53615SOL    HW162619  10.519  13.711   5.589
53615SOL    HW262620  10.593  13.777   5.474
53616SOL     OW62621   8.839   4.902   0.776
53616SOL    HW162622   8.918   4.954   0.790
53616SOL    HW262623   8.819   4.865   0.862
53617SOL     OW62624   7.883   6.439   2.267
53617SOL    HW162625   7.789   6.423   2.261
53617SOL    HW262626   7.895   6.483   2.351
53618SOL     OW62627  11.189   0.204  11.490
53618SOL    HW162628  11.237   0.214  11.572
53618SOL    HW262629  11.103   0.172  11.516
53619SOL     OW62630  12.071   4.969  11.913
53619SOL    HW162631  12.058   4.874  11.925
53619SOL    HW262632  11.985   5.001  11.888
53620SOL     OW62633  12.098  13.665   8.114
53620SOL    HW162634  12.188  13.669   8.084
53620SOL    HW262635  12.103  13.632   8.204
53621SOL     OW62636   4.177   4.691   7.669
53621SOL    HW162637   4.163   4.773   7.717
53621SOL    HW262638   4.128   4.702   7.588
53622SOL     OW62639   6.702   0.635   5.208
53622SOL    HW162640   6.636   0.576   5.172
53622SOL    HW262641   6.690   0.717   5.161
53623SOL     OW62642  11.356   0.393  11.014
53623SOL    HW162643  11.340   0.303  10.985
53623SOL    HW262644  11.336   0.392  11.108
53624SOL     OW62645   3.654   0.295   7.182
53624SOL    HW162646   3.674   0.204   7.204
53624SOL    HW262647   3.730   0.345   7.212
53625SOL     OW62648   9.158   8.585   9.866
53625SOL    HW162649   9.162   8.660   9.807
53625SOL    HW262650   9.244   8.582   9.907
53626SOL     OW62651  14.466  12.561   7.220
53626SOL    HW162652  14.412  12.614   7.279
53626SOL    HW262653  14.555  12.567   7.256
53627SOL     OW62654   2.189   1.109   7.629
53627SOL    HW162655   2.268   1.161   7.646
53627SOL    HW262656   2.220   1.018   7.632
53628SOL     OW62657  11.772   3.459   8.680
53628SOL    HW162658  11.799   3.409   8.603
53628SOL    HW262659  11.840   3.526   8.690
53629SOL     OW62660  14.500   7.820  12.615
53629SOL    HW162661  14.412   7.808  12.580
53629SOL    HW262662  14.555   7.830  12.537
53630SOL     OW62663  13.078   0.675  12.731
53630SOL    HW162664  13.031   0.603  12.689
53630SOL    HW262665  13.114   0.637  12.811
53631SOL     OW62666   7.032   9.003   7.379
53631SOL    HW162667   7.007   8.966   7.464
53631SOL    HW262668   7.125   8.983   7.371
53632SOL     OW62669  10.658   0.160   4.930
53632SOL    HW162670  10.633   0.198   5.015
53632SOL    HW262671  10.678   0.236   4.876
53633SOL     OW62672  14.806   1.982  11.220
53633SOL    HW162673   0.015   1.957  11.189
53633SOL    HW262674  14.789   2.066  11.180
53634SOL     OW62675  11.314   4.183   1.292
53634SOL    HW162676  11.262   4.257   1.260
53634SOL    HW262677  11.253   4.132   1.346
53635SOL     OW62678   2.885  11.861   1.619
53635SOL    HW162679   2.891  11.938   1.676
53635SOL    HW262680   2.937  11.794   1.663
53636SOL     OW62681   9.762  13.737  13.586
53636SOL    HW162682   9.784  13.647  13.565
53636SOL    HW262683   9.666  13.740  13.585
53637SOL     OW62684  13.248  12.021   5.735
53637SOL    HW162685  13.195  12.085   5.688
53637SOL    HW262686  13.195  11.941   5.734
53638SOL     OW62687  11.409   4.972  12.087
53638SOL    HW162688  11.387   4.890  12.131
53638SOL    HW262689  11.396   4.953  11.994
53639SOL     OW62690  11.730   4.795   8.231
53639SOL    HW162691  11.809   4.761   8.189
53639SOL    HW262692  11.749   4.791   8.324
53640SOL     OW62693   4.851   8.642   8.756
53640SOL    HW162694   4.938   8.676   8.736
53640SOL    HW262695   4.853   8.627   8.851
53641SOL     OW62696   5.525   1.640   6.814
53641SOL    HW162697   5.537   1.713   6.875
53641SOL    HW262698   5.520   1.680   6.728
53642SOL     OW62699   7.772   0.470  10.415
53642SOL    HW162700   7.770   0.520  10.334
53642SOL    HW262701   7.686   0.429  10.421
53643SOL     OW62702  13.585   9.055   3.508
53643SOL    HW162703  13.568   9.051   3.602
53643SOL    HW262704  13.631   9.138   3.496
53644SOL     OW62705   2.636   6.824   3.645
53644SOL    HW162706   2.659   6.828   3.738
53644SOL    HW262707   2.547   6.860   3.641
53645SOL     OW62708   1.908  10.607  11.704
53645SOL    HW162709   2.003  10.610  11.689
53645SOL    HW262710   1.898  10.547  11.779
53646SOL     OW62711  11.271  12.003   0.769
53646SOL    HW162712  11.245  11.965   0.854
53646SOL    HW262713  11.188  12.025   0.726
53647SOL     OW62714   2.304   6.214   5.414
53647SOL    HW162715   2.348   6.294   5.385
53647SOL    HW262716   2.216   6.221   5.377
53648SOL     OW62717   8.175   2.516   4.280
53648SOL    HW162718   8.174   2.535   4.374
53648SOL    HW262719   8.151   2.599   4.239
53649SOL     OW62720  12.297  11.060   7.167
53649SOL    HW162721  12.217  11.048   7.116
53649SOL    HW262722  12.268  11.047   7.258
53650SOL     OW62723   4.340   7.850   0.464
53650SOL    HW162724   4.370   7.764   0.495
53650SOL    HW262725   4.312   7.895   0.543
53651SOL     OW62726   2.922  13.391   4.507
53651SOL    HW162727   2.874  13.400   4.425
53651SOL    HW262728   2.949  13.480   4.530
53652SOL     OW62729   1.987   7.807  10.785
53652SOL    HW162730   2.055   7.874  10.778
53652SOL    HW262731   1.907   7.857  10.806
53653SOL     OW62732   0.249   3.353  13.919
53653SOL    HW162733   0.161   3.387  13.898
53653SOL    HW262734   0.258   3.366  14.013
53654SOL     OW62735   5.441   7.665  13.103
53654SOL    HW162736   5.483   7.714  13.172
53654SOL    HW262737   5.365   7.624  13.145
53655SOL     OW62738  12.674   4.623   2.143
53655SOL    HW162739  12.632   4.686   2.084
53655SOL    HW262740  12.741   4.674   2.189
53656SOL     OW62741   7.920   0.049   2.050
53656SOL    HW162742   7.864  14.853   2.026
53656SOL    HW262743   7.974   0.016   2.122
53657SOL     OW62744   4.296   0.417   4.678
53657SOL    HW162745   4.248   0.454   4.752
53657SOL    HW262746   4.385   0.450   4.688
53658SOL     OW62747   5.356   3.042   5.266
53658SOL    HW162748   5.323   2.965   5.312
53658SOL    HW262749   5.420   3.007   5.204
53659SOL     OW62750   9.334  10.831  11.295
53659SOL    HW162751   9.416  10.866  11.328
53659SOL    HW262752   9.336  10.849  11.201
53660SOL     OW62753   5.177   2.501  10.480
53660SOL    HW162754   5.094   2.534  10.445
53660SOL    HW262755   5.185   2.541  10.566
53661SOL     OW62756   1.851   6.883   8.170
53661SOL    HW162757   1.812   6.942   8.234
53661SOL    HW262758   1.856   6.934   8.089
53662SOL     OW62759   1.749   2.279   7.341
53662SOL    HW162760   1.845   2.285   7.336
53662SOL    HW262761   1.732   2.205   7.399
53663SOL     OW62762  10.345  14.830   8.560
53663SOL    HW162763  10.345  14.735   8.544
53663SOL    HW262764  10.419  14.843   8.620
53664SOL     OW62765  14.071  12.903   6.383
53664SOL    HW162766  13.998  12.841   6.370
53664SOL    HW262767  14.071  12.957   6.304
53665SOL     OW62768  10.863   8.834   1.674
53665SOL    HW162769  10.802   8.804   1.741
53665SOL    HW262770  10.895   8.918   1.705
53666SOL     OW62771   5.271   0.276  14.093
53666SOL    HW162772   5.348   0.232  14.056
53666SOL    HW262773   5.306   0.356  14.133
53667SOL     OW62774  12.679  10.019   8.950
53667SOL    HW162775  12.607   9.966   8.917
53667SOL    HW262776  12.757   9.980   8.911
53668SOL     OW62777   1.488   7.601  14.803
53668SOL    HW162778   1.423   7.636  14.864
53668SOL    HW262779   1.500   7.670  14.739
53669SOL     OW62780   6.901   2.697   2.639
53669SOL    HW162781   6.983   2.677   2.594
53669SOL    HW262782   6.894   2.630   2.706
53670SOL     OW62783   3.801   0.981   5.915
53670SOL    HW162784   3.768   1.070   5.903
53670SOL    HW262785   3.828   0.953   5.828
53671SOL     OW62786   2.531   1.195   3.520
53671SOL    HW162787   2.504   1.152   3.438
53671SOL    HW262788   2.456   1.183   3.578
53672SOL     OW62789   5.268   1.775  12.115
53672SOL    HW162790   5.266   1.734  12.029
53672SOL    HW262791   5.218   1.857  12.103
53673SOL     OW62792  11.271   0.788   3.160
53673SOL    HW162793  11.281   0.876   3.197
53673SOL    HW262794  11.355   0.770   3.118
53674SOL     OW62795   4.762   0.131   4.022
53674SOL    HW162796   4.824   0.083   3.966
53674SOL    HW262797   4.817   0.189   4.074
53675SOL     OW62798   5.084   1.631  12.586
53675SOL    HW162799   5.021   1.563  12.562
53675SOL    HW262800   5.086   1.689  12.510
53676SOL     OW62801   1.450   8.536   2.572
53676SOL    HW162802   1.402   8.456   2.593
53676SOL    HW262803   1.485   8.520   2.484
53677SOL     OW62804  12.441   9.999   5.056
53677SOL    HW162805  12.383   9.963   5.123
53677SOL    HW262806  12.438   9.936   4.985
53678SOL     OW62807   5.907   7.357   6.083
53678SOL    HW162808   5.813   7.368   6.092
53678SOL    HW262809   5.926   7.273   6.125
53679SOL     OW62810   9.873  10.564   4.212
53679SOL    HW162811   9.810  10.581   4.142
53679SOL    HW262812   9.818  10.547   4.289
53680SOL     OW62813   5.983  14.729  10.481
53680SOL    HW162814   5.960  14.740  10.573
53680SOL    HW262815   6.023  14.643  10.476
53681SOL     OW62816   4.020   3.709  10.020
53681SOL    HW162817   3.929   3.683  10.011
53681SOL    HW262818   4.066   3.664   9.949
53682SOL     OW62819   6.235   0.573  11.660
53682SOL    HW162820   6.153   0.621  11.648
53682SOL    HW262821   6.239   0.515  11.583
53683SOL     OW62822   1.098  14.590  13.970
53683SOL    HW162823   1.024  14.650  13.959
53683SOL    HW262824   1.171  14.635  13.928
53684SOL     OW62825  12.092  10.684   7.944
53684SOL    HW162826  12.042  10.765   7.955
53684SOL    HW262827  12.097  10.647   8.032
53685SOL     OW62828   5.013   1.926   9.430
53685SOL    HW162829   5.085   1.987   9.445
53685SOL    HW262830   5.054   1.840   9.433
53686SOL     OW62831   9.844   1.555   4.166
53686SOL    HW162832   9.822   1.552   4.259
53686SOL    HW262833   9.901   1.479   4.152
53687SOL     OW62834   4.100   8.497  12.242
53687SOL    HW162835   4.050   8.561  12.192
53687SOL    HW262836   4.051   8.487  12.324
53688SOL     OW62837  11.672   2.570   5.013
53688SOL    HW162838  11.762   2.598   5.000
53688SOL    HW262839  11.642   2.618   5.090
53689SOL     OW62840   2.448  10.318   5.624
53689SOL    HW162841   2.502  10.246   5.591
53689SOL    HW262842   2.368  10.276   5.654
53690SOL     OW62843   5.412   2.597   9.750
53690SOL    HW162844   5.499   2.626   9.777
53690SOL    HW262845   5.374   2.673   9.705
53691SOL     OW62846  10.602  14.184   6.171
53691SOL    HW162847  10.569  14.247   6.236
53691SOL    HW262848  10.555  14.103   6.191
53692SOL     OW62849   2.929   9.760  12.204
53692SOL    HW162850   2.948   9.683  12.151
53692SOL    HW262851   2.834   9.761  12.212
53693SOL     OW62852   5.295  11.024   7.140
53693SOL    HW162853   5.322  10.996   7.227
53693SOL    HW262854   5.309  10.947   7.084
53694SOL     OW62855   0.436  13.479  14.109
53694SOL    HW162856   0.530  13.486  14.095
53694SOL    HW262857   0.398  13.546  14.052
53695SOL     OW62858   0.175  13.636  10.084
53695SOL    HW162859   0.107  13.678  10.137
53695SOL    HW262860   0.255  13.683  10.107
53696SOL     OW62861   9.045  14.274  13.416
53696SOL    HW162862   8.984  14.307  13.482
53696SOL    HW262863   9.131  14.303  13.446
53697SOL     OW62864   0.931   2.640  13.217
53697SOL    HW162865   0.903   2.550  13.199
53697SOL    HW262866   0.858   2.679  13.265
53698SOL     OW62867   4.194  13.050   9.117
53698SOL    HW162868   4.124  12.993   9.085
53698SOL    HW262869   4.257  13.053   9.045
53699SOL     OW62870  13.612   7.112   5.837
53699SOL    HW162871  13.606   7.206   5.849
53699SOL    HW262872  13.697   7.088   5.874
53700SOL     OW62873   3.788   0.061   2.224
53700SOL    HW162874   3.753   0.076   2.136
53700SOL    HW262875   3.713   0.027   2.273
53701SOL     OW62876   2.804   5.241  11.070
53701SOL    HW162877   2.753   5.215  11.147
53701SOL    HW262878   2.858   5.314  11.100
53702SOL     OW62879   5.028   1.069  12.703
53702SOL    HW162880   4.979   0.999  12.658
53702SOL    HW262881   5.118   1.057  12.674
53703SOL     OW62882  10.504  14.785   1.192
53703SOL    HW162883  10.583  14.731   1.201
53703SOL    HW262884  10.511  14.823   1.104
53704SOL     OW62885  14.861   8.229  11.689
53704SOL    HW162886  14.814   8.221  11.606
53704SOL    HW262887  14.795   8.212  11.756
53705SOL     OW62888  14.135  13.131   0.498
53705SOL    HW162889  14.041  13.146   0.509
53705SOL    HW262890  14.145  13.036   0.506
53706SOL     OW62891   9.953  10.507  11.454
53706SOL    HW162892   9.960  10.524  11.548
53706SOL    HW262893   9.890  10.573  11.423
53707SOL     OW62894  14.157   0.628   3.854
53707SOL    HW162895  14.154   0.723   3.870
53707SOL    HW262896  14.207   0.593   3.928
53708SOL     OW62897  10.478  14.191  13.638
53708SOL    HW162898  10.476  14.139  13.718
53708SOL    HW262899  10.489  14.127  13.568
53709SOL     OW62900   6.280  11.863  10.747
53709SOL    HW162901   6.301  11.798  10.814
53709SOL    HW262902   6.360  11.871  10.695
53710SOL     OW62903   2.691   7.543   2.715
53710SOL    HW162904   2.624   7.541   2.783
53710SOL    HW262905   2.650   7.589   2.642
53711SOL     OW62906   8.753   6.267   2.238
53711SOL    HW162907   8.703   6.290   2.316
53711SOL    HW262908   8.733   6.337   2.175
53712SOL     OW62909   3.402   7.196   2.801
53712SOL    HW162910   3.313   7.228   2.787
53712SOL    HW262911   3.412   7.194   2.896
53713SOL     OW62912  14.261  11.533  14.400
53713SOL    HW162913  14.321  11.557  14.329
53713SOL    HW262914  14.311  11.473  14.455
53714SOL     OW62915   8.246  12.576  10.567
53714SOL    HW162916   8.319  12.631  10.595
53714SOL    HW262917   8.287  12.496  10.533
53715SOL     OW62918   1.924   9.591   0.547
53715SOL    HW162919   1.935   9.604   0.641
53715SOL    HW262920   1.885   9.672   0.516
53716SOL     OW62921   0.763  11.980   8.654
53716SOL    HW162922   0.673  11.969   8.624
53716SOL    HW262923   0.795  12.057   8.607
53717SOL     OW62924   8.206   7.252   4.151
53717SOL    HW162925   8.194   7.347   4.148
53717SOL    HW262926   8.261   7.233   4.075
53718SOL     OW62927   0.679   4.143   9.859
53718SOL    HW162928   0.745   4.099   9.913
53718SOL    HW262929   0.666   4.228   9.902
53719SOL     OW62930   2.484   1.084   3.293
53719SOL    HW162931   2.564   1.072   3.241
53719SOL    HW262932   2.428   1.011   3.266
53720SOL     OW62933  10.008   6.368   4.320
53720SOL    HW162934  10.053   6.413   4.247
53720SOL    HW262935   9.915   6.373   4.296
53721SOL     OW62936   2.679   0.103   4.984
53721SOL    HW162937   2.711   0.179   4.935
53721SOL    HW262938   2.639   0.140   5.063
53722SOL     OW62939   7.273  14.828   0.348
53722SOL    HW162940   7.217   0.015   0.306
53722SOL    HW262941   7.343   0.001   0.389
53723SOL     OW62942   9.870   5.005  13.723
53723SOL    HW162943   9.928   5.078  13.743
53723SOL    HW262944   9.783   5.045  13.712
53724SOL     OW62945  13.447  14.635   7.087
53724SOL    HW162946  13.354  14.652   7.107
53724SOL    HW262947  13.463  14.548   7.124
53725SOL     OW62948   5.431  14.680   1.243
53725SOL    HW162949   5.464  14.647   1.327
53725SOL    HW262950   5.510  14.702   1.194
53726SOL     OW62951  11.323   0.460   9.758
53726SOL    HW162952  11.318   0.513   9.837
53726SOL    HW262953  11.416   0.451   9.740
53727SOL     OW62954   6.929   5.394  14.525
53727SOL    HW162955   6.934   5.490  14.527
53727SOL    HW262956   6.992   5.366  14.592
53728SOL     OW62957   5.937  10.173  14.774
53728SOL    HW162958   6.027  10.143  14.788
53728SOL    HW262959   5.899  10.173  14.862
53729SOL     OW62960   4.082   2.856  11.912
53729SOL    HW162961   4.174   2.879  11.926
53729SOL    HW262962   4.084   2.764  11.887
53730SOL     OW62963   3.727   3.720  13.843
53730SOL    HW162964   3.643   3.764  13.848
53730SOL    HW262965   3.709   3.636  13.801
53731SOL     OW62966   3.827   9.605   6.964
53731SOL    HW162967   3.755   9.656   6.927
53731SOL    HW262968   3.787   9.520   6.984
53732SOL     OW62969   5.128  14.400   6.140
53732SOL    HW162970   5.164  14.344   6.072
53732SOL    HW262971   5.077  14.341   6.195
53733SOL     OW62972   4.283  13.227   2.805
53733SOL    HW162973   4.365  13.188   2.838
53733SOL    HW262974   4.292  13.320   2.823
53734SOL     OW62975   4.802   8.587   0.146
53734SOL    HW162976   4.715   8.579   0.186
53734SOL    HW262977   4.827   8.678   0.162
53735SOL     OW62978   4.099  12.060   3.755
53735SOL    HW162979   4.183  12.030   3.722
53735SOL    HW262980   4.099  12.036   3.848
53736SOL     OW62981   2.840   1.870   1.857
53736SOL    HW162982   2.861   1.793   1.805
53736SOL    HW262983   2.747   1.862   1.876
53737SOL     OW62984  13.633   0.676  11.753
53737SOL    HW162985  13.725   0.663  11.777
53737SOL    HW262986  13.620   0.771  11.758
53738SOL     OW62987   2.600   8.506   4.945
53738SOL    HW162988   2.536   8.577   4.940
53738SOL    HW262989   2.590   8.472   5.035
53739SOL     OW62990   1.654  13.917  10.972
53739SOL    HW162991   1.703  13.976  10.915
53739SOL    HW262992   1.605  13.861  10.911
53740SOL     OW62993   5.007  13.477   1.656
53740SOL    HW162994   5.079  13.414   1.656
53740SOL    HW262995   4.944  13.441   1.718
53741SOL     OW62996   4.673   4.175  11.862
53741SOL    HW162997   4.769   4.170  11.862
53741SOL    HW262998   4.655   4.269  11.862
53742SOL     OW62999  11.784   1.955   9.555
53742SOL    HW163000  11.745   1.925   9.472
53742SOL    HW263001  11.735   1.909   9.623
53743SOL     OW63002   1.284   9.012   3.563
53743SOL    HW163003   1.301   9.106   3.564
53743SOL    HW263004   1.327   8.979   3.642
53744SOL     OW63005  12.037  13.052  13.926
53744SOL    HW163006  11.945  13.042  13.903
53744SOL    HW263007  12.065  12.965  13.954
53745SOL     OW63008  10.262   3.437   1.536
53745SOL    HW163009  10.357   3.438   1.529
53745SOL    HW263010  10.231   3.485   1.459
53746SOL     OW63011  13.492   8.121   0.571
53746SOL    HW163012  13.534   8.074   0.642
53746SOL    HW263013  13.510   8.213   0.589
53747SOL     OW63014   6.877  12.431   5.547
53747SOL    HW163015   6.878  12.527   5.555
53747SOL    HW263016   6.790  12.411   5.512
53748SOL     OW63017   6.032   2.294  13.896
53748SOL    HW163018   5.960   2.352  13.873
53748SOL    HW263019   6.064   2.327  13.980
53749SOL     OW63020   0.045   6.143   1.298
53749SOL    HW163021  14.865   6.086   1.248
53749SOL    HW263022   0.133   6.119   1.269
53750SOL     OW63023   4.727   6.931   0.580
53750SOL    HW163024   4.713   7.009   0.635
53750SOL    HW263025   4.687   6.954   0.496
53751SOL     OW63026   5.472   4.175   2.705
53751SOL    HW163027   5.531   4.113   2.748
53751SOL    HW263028   5.453   4.134   2.620
53752SOL     OW63029   0.568   9.227   8.565
53752SOL    HW163030   0.545   9.276   8.487
53752SOL    HW263031   0.566   9.135   8.538
53753SOL     OW63032  10.282   8.813   2.556
53753SOL    HW163033  10.265   8.799   2.649
53753SOL    HW263034  10.240   8.738   2.513
53754SOL     OW63035   9.863  12.948   4.414
53754SOL    HW163036   9.873  12.869   4.467
53754SOL    HW263037   9.832  12.916   4.329
53755SOL     OW63038   9.067  14.351   5.604
53755SOL    HW163039   9.128  14.364   5.676
53755SOL    HW263040   9.070  14.256   5.587
53756SOL     OW63041   0.087  10.361   2.072
53756SOL    HW163042   0.142  10.375   2.149
53756SOL    HW263043   0.010  10.314   2.106
53757SOL     OW63044  14.874   3.351   9.458
53757SOL    HW163045  14.838   3.393   9.379
53757SOL    HW263046  14.812   3.374   9.527
53758SOL     OW63047  12.665   1.113   7.440
53758SOL    HW163048  12.645   1.058   7.515
53758SOL    HW263049  12.631   1.064   7.365
53759SOL     OW63050   9.971   4.999   4.183
53759SOL    HW163051  10.026   4.983   4.106
53759SOL    HW263052   9.897   4.939   4.172
53760SOL     OW63053   0.233  10.732  10.529
53760SOL    HW163054   0.210  10.809  10.477
53760SOL    HW263055   0.304  10.761  10.586
53761SOL     OW63056  11.628  10.190   1.682
53761SOL    HW163057  11.563  10.124   1.658
53761SOL    HW263058  11.689  10.144   1.739
53762SOL     OW63059   5.867  11.286  14.214
53762SOL    HW163060   5.840  11.301  14.305
53762SOL    HW263061   5.943  11.343  14.202
53763SOL     OW63062   2.652   8.989   1.710
53763SOL    HW163063   2.667   9.082   1.724
53763SOL    HW263064   2.558   8.977   1.725
53764SOL     OW63065  12.766   9.266   4.895
53764SOL    HW163066  12.701   9.250   4.963
53764SOL    HW263067  12.850   9.245   4.937
53765SOL     OW63068  10.360   6.343  14.188
53765SOL    HW163069  10.268   6.368  14.186
53765SOL    HW263070  10.362   6.256  14.149
53766SOL     OW63071   9.222   3.795   1.993
53766SOL    HW163072   9.147   3.842   1.955
53766SOL    HW263073   9.249   3.734   1.925
53767SOL     OW63074   0.867   2.841   7.208
53767SOL    HW163075   0.866   2.746   7.218
53767SOL    HW263076   0.874   2.854   7.113
53768SOL     OW63077   7.215  12.949  11.772
53768SOL    HW163078   7.203  13.006  11.848
53768SOL    HW263079   7.148  12.882  11.781
53769SOL     OW63080  14.734   9.197   4.784
53769SOL    HW163081  14.645   9.179   4.755
53769SOL    HW263082  14.769   9.111   4.808
53770SOL     OW63083  11.907   4.401   9.576
53770SOL    HW163084  11.874   4.340   9.643
53770SOL    HW263085  11.877   4.487   9.605
53771SOL     OW63086   3.165   3.108   6.836
53771SOL    HW163087   3.220   3.052   6.891
53771SOL    HW263088   3.141   3.182   6.892
53772SOL     OW63089   8.370  14.361   9.153
53772SOL    HW163090   8.399  14.280   9.112
53772SOL    HW263091   8.416  14.431   9.105
53773SOL     OW63092   9.084   6.816   7.715
53773SOL    HW163093   9.084   6.789   7.807
53773SOL    HW263094   8.993   6.806   7.687
53774SOL     OW63095  11.365  10.579  12.184
53774SOL    HW163096  11.298  10.539  12.128
53774SOL    HW263097  11.325  10.583  12.271
53775SOL     OW63098   1.090   6.758  11.960
53775SOL    HW163099   1.000   6.789  11.950
53775SOL    HW263100   1.087   6.668  11.925
53776SOL     OW63101   3.605  12.182   3.287
53776SOL    HW163102   3.682  12.213   3.335
53776SOL    HW263103   3.641  12.130   3.215
53777SOL     OW63104  12.799  14.753  14.156
53777SOL    HW163105  12.795  14.700  14.236
53777SOL    HW263106  12.779  14.842  14.185
53778SOL     OW63107   4.483  13.601  11.478
53778SOL    HW163108   4.404  13.607  11.424
53778SOL    HW263109   4.488  13.509  11.503
53779SOL     OW63110   5.800   7.608  11.561
53779SOL    HW163111   5.718   7.616  11.610
53779SOL    HW263112   5.868   7.617  11.627
53780SOL     OW63113  13.820   5.648   2.891
53780SOL    HW163114  13.825   5.624   2.984
53780SOL    HW263115  13.893   5.709   2.878
53781SOL     OW63116  12.717   7.820   5.814
53781SOL    HW163117  12.804   7.790   5.789
53781SOL    HW263118  12.718   7.914   5.796
53782SOL     OW63119   0.173   2.463  11.415
53782SOL    HW163120   0.211   2.472  11.328
53782SOL    HW263121   0.128   2.379  11.412
53783SOL     OW63122  14.757   7.285   8.122
53783SOL    HW163123  14.844   7.325   8.118
53783SOL    HW263124  14.764   7.216   8.187
53784SOL     OW63125  12.003   4.470  10.087
53784SOL    HW163126  11.983   4.389  10.041
53784SOL    HW263127  11.992   4.448  10.180
53785SOL     OW63128   3.743   7.573  13.670
53785SOL    HW163129   3.679   7.604  13.735
53785SOL    HW263130   3.753   7.647  13.610
53786SOL     OW63131   2.402   9.159   9.919
53786SOL    HW163132   2.316   9.120   9.935
53786SOL    HW263133   2.439   9.107   9.848
53787SOL     OW63134   8.509  12.882  11.921
53787SOL    HW163135   8.469  12.863  12.006
53787SOL    HW263136   8.449  12.844  11.857
53788SOL     OW63137  10.132  11.689   3.825
53788SOL    HW163138  10.088  11.746   3.888
53788SOL    HW263139  10.063  11.663   3.765
53789SOL     OW63140   6.952   7.498   5.193
53789SOL    HW163141   6.916   7.451   5.269
53789SOL    HW263142   7.040   7.462   5.182
53790SOL     OW63143   1.943   4.760   5.555
53790SOL    HW163144   1.906   4.831   5.502
53790SOL    HW263145   2.016   4.800   5.601
53791SOL     OW63146   0.497  14.816   9.435
53791SOL    HW163147   0.455  14.771   9.363
53791SOL    HW263148   0.587  14.784   9.435
53792SOL     OW63149   9.145   8.183   0.790
53792SOL    HW163150   9.145   8.231   0.707
53792SOL    HW263151   9.118   8.249   0.855
53793SOL     OW63152  12.274   2.397   3.598
53793SOL    HW163153  12.363   2.377   3.570
53793SOL    HW263154  12.225   2.317   3.581
53794SOL     OW63155   5.007  11.314   9.791
53794SOL    HW163156   4.961  11.388   9.751
53794SOL    HW263157   4.947  11.240   9.781
53795SOL     OW63158   6.926   0.250   4.801
53795SOL    HW163159   6.968   0.319   4.853
53795SOL    HW263160   6.879   0.197   4.866
53796SOL     OW63161  12.648  12.543  13.347
53796SOL    HW163162  12.635  12.613  13.283
53796SOL    HW263163  12.596  12.470  13.314
53797SOL     OW63164   2.170  13.825   1.802
53797SOL    HW163165   2.154  13.733   1.784
53797SOL    HW263166   2.113  13.872   1.742
53798SOL     OW63167  10.952   0.491   4.193
53798SOL    HW163168  10.972   0.444   4.274
53798SOL    HW263169  11.016   0.459   4.130
53799SOL     OW63170   6.082   6.863   9.114
53799SOL    HW163171   6.052   6.776   9.089
53799SOL    HW263172   6.140   6.890   9.042
53800SOL     OW63173   1.777   0.289   9.236
53800SOL    HW163174   1.779   0.383   9.252
53800SOL    HW263175   1.703   0.276   9.177
53801SOL     OW63176   8.677   9.606   0.914
53801SOL    HW163177   8.732   9.582   0.989
53801SOL    HW263178   8.589   9.580   0.940
53802SOL     OW63179  12.515  11.947   7.475
53802SOL    HW163180  12.603  11.979   7.493
53802SOL    HW263181  12.481  12.008   7.409
53803SOL     OW63182   1.146   4.507   0.772
53803SOL    HW163183   1.133   4.428   0.721
53803SOL    HW263184   1.222   4.549   0.733
53804SOL     OW63185  12.323  14.024   0.112
53804SOL    HW163186  12.371  14.032   0.194
53804SOL    HW263187  12.391  14.023   0.044
53805SOL     OW63188  11.262   3.336   8.656
53805SOL    HW163189  11.260   3.287   8.738
53805SOL    HW263190  11.179   3.384   8.655
53806SOL     OW63191  13.077  11.276   3.940
53806SOL    HW163192  13.006  11.296   4.000
53806SOL    HW263193  13.063  11.184   3.916
53807SOL     OW63194   9.974  13.456   0.890
53807SOL    HW163195   9.907  13.512   0.850
53807SOL    HW263196   9.964  13.371   0.846
53808SOL     OW63197  11.249   6.423  11.520
53808SOL    HW163198  11.344   6.423  11.509
53808SOL    HW263199  11.234   6.475  11.599
53809SOL     OW63200   4.010   1.587   0.406
53809SOL    HW163201   4.099   1.618   0.392
53809SOL    HW263202   4.009   1.499   0.368
53810SOL     OW63203   8.899   6.520   5.688
53810SOL    HW163204   8.889   6.601   5.738
53810SOL    HW263205   8.985   6.528   5.646
53811SOL     OW63206   2.833  13.579   3.085
53811SOL    HW163207   2.800  13.491   3.098
53811SOL    HW263208   2.807  13.602   2.995
53812SOL     OW63209   6.802   3.271   1.858
53812SOL    HW163210   6.832   3.361   1.853
53812SOL    HW263211   6.816   3.246   1.949
53813SOL     OW63212  14.786  12.211   7.141
53813SOL    HW163213  14.748  12.124   7.136
53813SOL    HW263214  14.714  12.269   7.114
53814SOL     OW63215   5.663  13.300   2.126
53814SOL    HW163216   5.682  13.239   2.196
53814SOL    HW263217   5.733  13.366   2.132
53815SOL     OW63218   5.222   3.152   9.013
53815SOL    HW163219   5.194   3.089   8.947
53815SOL    HW263220   5.314   3.170   8.992
53816SOL     OW63221   7.841  14.652  13.388
53816SOL    HW163222   7.841  14.729  13.330
53816SOL    HW263223   7.758  14.656  13.434
53817SOL     OW63224   5.814   7.465   2.094
53817SOL    HW163225   5.787   7.400   2.159
53817SOL    HW263226   5.766   7.441   2.015
53818SOL     OW63227   9.832   3.019   7.100
53818SOL    HW163228   9.797   2.969   7.027
53818SOL    HW263229   9.789   2.983   7.177
53819SOL     OW63230  11.715   9.484  11.791
53819SOL    HW163231  11.801   9.443  11.800
53819SOL    HW263232  11.709   9.506  11.698
53820SOL     OW63233  10.694   4.007   7.688
53820SOL    HW163234  10.726   3.958   7.764
53820SOL    HW263235  10.767   4.006   7.626
53821SOL     OW63236   2.758  10.690   8.979
53821SOL    HW163237   2.831  10.722   9.033
53821SOL    HW263238   2.697  10.764   8.975
53822SOL     OW63239   7.518  10.776  11.335
53822SOL    HW163240   7.532  10.790  11.241
53822SOL    HW263241   7.437  10.823  11.354
53823SOL     OW63242   9.024   3.403  12.631
53823SOL    HW163243   8.954   3.455  12.591
53823SOL    HW263244   9.062   3.353  12.559
53824SOL     OW63245   6.125  14.475   4.580
53824SOL    HW163246   6.030  14.464   4.582
53824SOL    HW263247   6.159  14.386   4.578
53825SOL     OW63248   1.613  10.237   1.044
53825SOL    HW163249   1.627  10.165   0.983
53825SOL    HW263250   1.671  10.218   1.118
53826SOL     OW63251  10.291   5.256   4.755
53826SOL    HW163252  10.331   5.220   4.676
53826SOL    HW263253  10.308   5.350   4.750
53827SOL     OW63254   5.515   2.054  10.306
53827SOL    HW163255   5.578   2.002  10.257
53827SOL    HW263256   5.486   2.121  10.243
53828SOL     OW63257   8.356   7.995  14.317
53828SOL    HW163258   8.343   7.967  14.408
53828SOL    HW263259   8.273   8.035  14.292
53829SOL     OW63260   3.477   8.790   0.910
53829SOL    HW163261   3.442   8.737   0.981
53829SOL    HW263262   3.483   8.730   0.836
53830SOL     OW63263   1.002  14.292  10.851
53830SOL    HW163264   1.017  14.318  10.942
53830SOL    HW263265   0.933  14.226  10.856
53831SOL     OW63266  14.147   9.841  14.144
53831SOL    HW163267  14.211   9.881  14.085
53831SOL    HW263268  14.132   9.907  14.211
53832SOL     OW63269   4.290  14.427   4.725
53832SOL    HW163270   4.330  14.347   4.690
53832SOL    HW263271   4.353  14.496   4.702
53833SOL     OW63272   7.495   0.367  10.340
53833SOL    HW163273   7.477   0.344  10.431
53833SOL    HW263274   7.452   0.298  10.289
53834SOL     OW63275   1.602  13.860  13.427
53834SOL    HW163276   1.649  13.927  13.377
53834SOL    HW263277   1.595  13.897  13.515
53835SOL     OW63278  14.095   9.274  12.739
53835SOL    HW163279  14.094   9.242  12.829
53835SOL    HW263280  14.004   9.293  12.719
53836SOL     OW63281   6.121   0.593   6.013
53836SOL    HW163282   6.181   0.656   5.972
53836SOL    HW263283   6.036   0.611   5.973
53837SOL     OW63284   7.459   5.011  11.584
53837SOL    HW163285   7.513   4.952  11.636
53837SOL    HW263286   7.486   4.994  11.494
53838SOL     OW63287   8.428  14.579  11.489
53838SOL    HW163288   8.410  14.601  11.398
53838SOL    HW263289   8.490  14.646  11.519
53839SOL     OW63290   6.951   3.120   2.621
53839SOL    HW163291   6.991   3.078   2.697
53839SOL    HW263292   6.863   3.084   2.616
53840SOL     OW63293  13.094  12.987   2.692
53840SOL    HW163294  13.180  13.012   2.657
53840SOL    HW263295  13.085  13.038   2.772
53841SOL     OW63296  10.075  13.454   0.075
53841SOL    HW163297  10.170  13.454   0.066
53841SOL    HW263298  10.056  13.368   0.115
53842SOL     OW63299   1.751  12.552   7.005
53842SOL    HW163300   1.804  12.617   7.051
53842SOL    HW263301   1.706  12.504   7.075
53843SOL     OW63302   6.246   2.370   0.561
53843SOL    HW163303   6.156   2.350   0.584
53843SOL    HW263304   6.294   2.370   0.644
53844SOL     OW63305  10.566   5.718   8.847
53844SOL    HW163306  10.582   5.691   8.756
53844SOL    HW263307  10.652   5.713   8.889
53845SOL     OW63308  10.241  12.823  14.334
53845SOL    HW163309  10.331  12.814  14.302
53845SOL    HW263310  10.201  12.738  14.314
53846SOL     OW63311  10.934   9.353   7.499
53846SOL    HW163312  10.964   9.287   7.561
53846SOL    HW263313  10.842   9.332   7.484
53847SOL     OW63314   8.886  14.463   2.323
53847SOL    HW163315   8.890  14.369   2.305
53847SOL    HW263316   8.876  14.469   2.418
53848SOL     OW63317  11.493  14.707  12.080
53848SOL    HW163318  11.403  14.699  12.049
53848SOL    HW263319  11.503  14.637  12.143
53849SOL     OW63320  11.495   9.089   6.586
53849SOL    HW163321  11.497   9.010   6.641
53849SOL    HW263322  11.402   9.103   6.568
53850SOL     OW63323   6.820   1.172  13.267
53850SOL    HW163324   6.733   1.211  13.260
53850SOL    HW263325   6.817   1.119  13.346
53851SOL     OW63326  11.895   7.898   3.482
53851SOL    HW163327  11.882   7.947   3.563
53851SOL    HW263328  11.895   7.806   3.509
53852SOL     OW63329   2.180  14.512  10.843
53852SOL    HW163330   2.238  14.536  10.915
53852SOL    HW263331   2.101  14.564  10.857
53853SOL     OW63332   8.393  10.480  10.798
53853SOL    HW163333   8.381  10.455  10.889
53853SOL    HW263334   8.360  10.405  10.748
53854SOL     OW63335   9.405   7.443   8.057
53854SOL    HW163336   9.357   7.510   8.008
53854SOL    HW263337   9.346   7.418   8.128
53855SOL     OW63338  10.540   0.519   7.186
53855SOL    HW163339  10.453   0.515   7.146
53855SOL    HW263340  10.595   0.558   7.118
53856SOL     OW63341  10.469   1.894  10.946
53856SOL    HW163342  10.408   1.946  10.893
53856SOL    HW263343  10.546   1.951  10.955
53857SOL     OW63344   0.659  13.849   1.317
53857SOL    HW163345   0.671  13.908   1.392
53857SOL    HW263346   0.747  13.814   1.300
53858SOL     OW63347   9.015   9.984   7.487
53858SOL    HW163348   9.103   9.955   7.460
53858SOL    HW263349   8.997   9.932   7.566
53859SOL     OW63350  10.050   3.048  14.255
53859SOL    HW163351  10.026   3.013  14.340
53859SOL    HW263352   9.973   3.097  14.227
53860SOL     OW63353   7.496  12.893   8.630
53860SOL    HW163354   7.443  12.866   8.705
53860SOL    HW263355   7.439  12.881   8.555
53861SOL     OW63356   6.443   3.327   5.638
53861SOL    HW163357   6.538   3.326   5.628
53861SOL    HW263358   6.410   3.276   5.564
53862SOL     OW63359  14.377  13.987   1.269
53862SOL    HW163360  14.402  13.915   1.211
53862SOL    HW263361  14.282  13.978   1.278
53863SOL     OW63362   4.963   3.097   6.513
53863SOL    HW163363   4.931   3.108   6.602
53863SOL    HW263364   4.927   3.012   6.485
53864SOL     OW63365  14.778   7.380  11.588
53864SOL    HW163366  14.698   7.379  11.640
53864SOL    HW263367  14.836   7.317  11.632
53865SOL     OW63368   5.860   4.147   4.690
53865SOL    HW163369   5.889   4.231   4.654
53865SOL    HW263370   5.940   4.098   4.707
53866SOL     OW63371  10.452   6.819   9.943
53866SOL    HW163372  10.540   6.783   9.953
53866SOL    HW263373  10.449   6.849   9.852
53867SOL     OW63374   0.763   1.640   0.185
53867SOL    HW163375   0.841   1.685   0.218
53867SOL    HW263376   0.700   1.646   0.257
53868SOL     OW63377   5.623   6.606   5.353
53868SOL    HW163378   5.556   6.651   5.301
53868SOL    HW263379   5.587   6.605   5.442
53869SOL     OW63380  11.308   4.346   0.498
53869SOL    HW163381  11.384   4.288   0.492
53869SOL    HW263382  11.342   4.433   0.475
53870SOL     OW63383   2.756   9.036   5.840
53870SOL    HW163384   2.732   9.129   5.846
53870SOL    HW263385   2.823   9.024   5.907
53871SOL     OW63386   2.016  10.559   9.490
53871SOL    HW163387   1.957  10.549   9.415
53871SOL    HW263388   1.957  10.579   9.563
53872SOL     OW63389  14.360   5.043   5.991
53872SOL    HW163390  14.371   5.022   5.898
53872SOL    HW263391  14.432   5.104   6.010
53873SOL     OW63392   1.090  10.206  11.193
53873SOL    HW163393   1.125  10.203  11.104
53873SOL    HW263394   1.017  10.144  11.192
53874SOL     OW63395  14.171  14.531   9.453
53874SOL    HW163396  14.164  14.616   9.410
53874SOL    HW263397  14.253  14.494   9.420
53875SOL     OW63398   2.151   3.236  14.877
53875SOL    HW163399   2.134   3.145   0.025
53875SOL    HW263400   2.245   3.239  14.859
53876SOL     OW63401   8.326  14.374   2.003
53876SOL    HW163402   8.388  14.445   1.986
53876SOL    HW263403   8.341  14.312   1.931
53877SOL     OW63404   3.268   1.905   5.701
53877SOL    HW163405   3.314   1.902   5.618
53877SOL    HW263406   3.263   1.813   5.730
53878SOL     OW63407   7.626   1.488   4.704
53878SOL    HW163408   7.573   1.534   4.639
53878SOL    HW263409   7.566   1.426   4.745
53879SOL     OW63410   2.866   8.119   7.839
53879SOL    HW163411   2.811   8.198   7.836
53879SOL    HW263412   2.808   8.049   7.807
53880SOL     OW63413   7.231   2.526   5.168
53880SOL    HW163414   7.193   2.441   5.191
53880SOL    HW263415   7.281   2.509   5.089
53881SOL     OW63416   4.555   1.483  13.731
53881SOL    HW163417   4.510   1.561  13.698
53881SOL    HW263418   4.631   1.518  13.777
53882SOL     OW63419  13.500  14.104  13.306
53882SOL    HW163420  13.574  14.047  13.284
53882SOL    HW263421  13.434  14.045  13.343
53883SOL     OW63422   4.588   1.147  12.138
53883SOL    HW163423   4.517   1.086  12.116
53883SOL    HW263424   4.668   1.101  12.111
53884SOL     OW63425  10.513  12.436   9.818
53884SOL    HW163426  10.557  12.498   9.759
53884SOL    HW263427  10.578  12.367   9.832
53885SOL     OW63428   6.171  11.383  10.843
53885SOL    HW163429   6.266  11.371  10.844
53885SOL    HW263430   6.135  11.297  10.865
53886SOL     OW63431  12.061  10.073  13.456
53886SOL    HW163432  12.077   9.981  13.436
53886SOL    HW263433  12.008  10.072  13.536
53887SOL     OW63434   5.267   8.725   6.743
53887SOL    HW163435   5.348   8.690   6.780
53887SOL    HW263436   5.258   8.683   6.658
53888SOL     OW63437   0.532   3.626   8.321
53888SOL    HW163438   0.489   3.598   8.240
53888SOL    HW263439   0.568   3.545   8.357
53889SOL     OW63440   0.019   6.826   4.045
53889SOL    HW163441   0.114   6.816   4.042
53889SOL    HW263442  14.863   6.749   3.999
53890SOL     OW63443  10.400   2.917   2.728
53890SOL    HW163444  10.424   2.825   2.742
53890SOL    HW263445  10.480   2.965   2.744
53891SOL     OW63446   2.874   3.475   8.780
53891SOL    HW163447   2.947   3.438   8.729
53891SOL    HW263448   2.880   3.569   8.765
53892SOL     OW63449   9.738  10.739   1.373
53892SOL    HW163450   9.770  10.781   1.453
53892SOL    HW263451   9.796  10.664   1.360
53893SOL     OW63452   1.329  12.390   7.535
53893SOL    HW163453   1.399  12.334   7.569
53893SOL    HW263454   1.366  12.428   7.455
53894SOL     OW63455   2.412   5.928   3.739
53894SOL    HW163456   2.407   5.838   3.770
53894SOL    HW263457   2.362   5.928   3.658
53895SOL     OW63458   2.318  12.337   9.037
53895SOL    HW163459   2.340  12.373   9.123
53895SOL    HW263460   2.390  12.277   9.016
53896SOL     OW63461   6.174  14.395  12.600
53896SOL    HW163462   6.152  14.438  12.517
53896SOL    HW263463   6.151  14.460  12.667
53897SOL     OW63464  10.277  10.743   3.544
53897SOL    HW163465  10.211  10.700   3.598
53897SOL    HW263466  10.237  10.825   3.517
53898SOL     OW63467   6.221   8.277  13.096
53898SOL    HW163468   6.139   8.244  13.060
53898SOL    HW263469   6.228   8.236  13.182
53899SOL     OW63470   1.892   3.822  13.590
53899SOL    HW163471   1.969   3.861  13.548
53899SOL    HW263472   1.904   3.728  13.580
53900SOL     OW63473   0.830   3.096   3.860
53900SOL    HW163474   0.874   3.177   3.833
53900SOL    HW263475   0.738   3.110   3.840
53901SOL     OW63476   5.913   2.879   0.513
53901SOL    HW163477   6.003   2.860   0.538
53901SOL    HW263478   5.905   2.974   0.522
53902SOL     OW63479  10.815   4.024  13.113
53902SOL    HW163480  10.850   3.941  13.083
53902SOL    HW263481  10.811   4.016  13.208
53903SOL     OW63482  11.943   3.962   0.817
53903SOL    HW163483  12.025   3.913   0.818
53903SOL    HW263484  11.950   4.024   0.890
53904SOL     OW63485  12.653  10.204   6.844
53904SOL    HW163486  12.720  10.194   6.912
53904SOL    HW263487  12.657  10.122   6.795
53905SOL     OW63488  14.838   5.979   4.792
53905SOL    HW163489  14.861   5.993   4.884
53905SOL    HW263490  14.762   6.036   4.777
53906SOL     OW63491   5.241   6.834   8.786
53906SOL    HW163492   5.283   6.899   8.729
53906SOL    HW263493   5.171   6.883   8.830
53907SOL     OW63494   1.966   7.555   7.877
53907SOL    HW163495   2.032   7.537   7.810
53907SOL    HW263496   1.883   7.531   7.836
53908SOL     OW63497   5.430   3.088   4.292
53908SOL    HW163498   5.483   3.038   4.231
53908SOL    HW263499   5.459   3.179   4.280
53909SOL     OW63500   3.284   7.097   0.647
53909SOL    HW163501   3.318   7.009   0.632
53909SOL    HW263502   3.249   7.094   0.736
53910SOL     OW63503   9.562  14.438   2.717
53910SOL    HW163504   9.645  14.440   2.765
53910SOL    HW263505   9.499  14.478   2.777
53911SOL     OW63506   4.634   2.372   3.861
53911SOL    HW163507   4.539   2.368   3.866
53911SOL    HW263508   4.655   2.461   3.891
53912SOL     OW63509  14.512   5.423  12.972
53912SOL    HW163510  14.466   5.485  12.916
53912SOL    HW263511  14.543   5.475  13.046
53913SOL     OW63512  13.416  14.504   1.006
53913SOL    HW163513  13.380  14.589   1.033
53913SOL    HW263514  13.343  14.443   1.015
53914SOL     OW63515  14.419  12.790  11.324
53914SOL    HW163516  14.392  12.819  11.237
53914SOL    HW263517  14.510  12.764  11.314
53915SOL     OW63518   2.699   0.964  12.429
53915SOL    HW163519   2.646   0.885  12.433
53915SOL    HW263520   2.782   0.936  12.390
53916SOL     OW63521  10.422   2.121   0.111
53916SOL    HW163522  10.404   2.030   0.088
53916SOL    HW263523  10.517   2.124   0.124
53917SOL     OW63524   5.558   3.987  12.943
53917SOL    HW163525   5.644   3.992  12.985
53917SOL    HW263526   5.558   3.903  12.898
53918SOL     OW63527  13.647  13.201   4.227
53918SOL    HW163528  13.577  13.138   4.210
53918SOL    HW263529  13.620  13.281   4.181
53919SOL     OW63530   5.480   3.846   1.278
53919SOL    HW163531   5.446   3.788   1.210
53919SOL    HW263532   5.570   3.864   1.252
53920SOL     OW63533   2.260   3.042  14.599
53920SOL    HW163534   2.286   3.121  14.646
53920SOL    HW263535   2.168   3.030  14.622
53921SOL     OW63536  11.573  10.157   6.504
53921SOL    HW163537  11.633  10.200   6.443
53921SOL    HW263538  11.513  10.227   6.531
53922SOL     OW63539  13.225  14.197   2.415
53922SOL    HW163540  13.211  14.269   2.353
53922SOL    HW263541  13.320  14.189   2.421
53923SOL     OW63542   4.550  14.608   3.638
53923SOL    HW163543   4.503  14.541   3.687
53923SOL    HW263544   4.549  14.685   3.696
53924SOL     OW63545   8.348   1.801  10.082
53924SOL    HW163546   8.279   1.788  10.017
53924SOL    HW263547   8.428   1.771  10.039
53925SOL     OW63548   1.595   7.638   2.986
53925SOL    HW163549   1.655   7.596   3.047
53925SOL    HW263550   1.575   7.722   3.026
53926SOL     OW63551  12.304   7.952  10.429
53926SOL    HW163552  12.301   8.009  10.352
53926SOL    HW263553  12.385   7.902  10.419
53927SOL     OW63554   5.047   0.482   0.651
53927SOL    HW163555   4.958   0.470   0.685
53927SOL    HW263556   5.066   0.575   0.664
53928SOL     OW63557   5.324   5.430  10.472
53928SOL    HW163558   5.410   5.471  10.471
53928SOL    HW263559   5.340   5.341  10.504
53929SOL     OW63560   5.296   1.327   3.307
53929SOL    HW163561   5.293   1.420   3.326
53929SOL    HW263562   5.320   1.323   3.214
53930SOL     OW63563   7.234   5.867   7.655
53930SOL    HW163564   7.236   5.828   7.568
53930SOL    HW263565   7.325   5.886   7.675
53931SOL     OW63566   3.032   9.007   3.437
53931SOL    HW163567   3.071   8.947   3.373
53931SOL    HW263568   3.106   9.034   3.492
53932SOL     OW63569   0.949  13.379   0.004
53932SOL    HW163570   0.929  13.456   0.057
53932SOL    HW263571   0.864  13.343  14.858
53933SOL     OW63572   3.651   4.441   1.655
53933SOL    HW163573   3.692   4.400   1.731
53933SOL    HW263574   3.605   4.370   1.611
53934SOL     OW63575  11.712   8.000   6.586
53934SOL    HW163576  11.711   8.092   6.560
53934SOL    HW263577  11.744   7.954   6.508
53935SOL     OW63578  14.646   5.495   9.023
53935SOL    HW163579  14.560   5.463   9.053
53935SOL    HW263580  14.646   5.588   9.044
53936SOL     OW63581   4.735  13.193   1.388
53936SOL    HW163582   4.793  13.120   1.409
53936SOL    HW263583   4.733  13.245   1.468
53937SOL     OW63584   0.296   9.632   3.379
53937SOL    HW163585   0.344   9.698   3.331
53937SOL    HW263586   0.326   9.548   3.343
53938SOL     OW63587   9.033  12.545   9.553
53938SOL    HW163588   8.953  12.493   9.563
53938SOL    HW263589   9.014  12.627   9.600
53939SOL     OW63590  13.078   6.390   7.423
53939SOL    HW163591  13.124   6.462   7.379
53939SOL    HW263592  13.077   6.319   7.358
53940SOL     OW63593   3.759   9.686  13.680
53940SOL    HW163594   3.795   9.620  13.740
53940SOL    HW263595   3.780   9.770  13.722
53941SOL     OW63596   6.488  13.028   1.512
53941SOL    HW163597   6.577  13.065   1.514
53941SOL    HW263598   6.501  12.937   1.483
53942SOL     OW63599   8.226   8.044   2.057
53942SOL    HW163600   8.137   8.077   2.070
53942SOL    HW263601   8.268   8.055   2.142
53943SOL     OW63602   7.289   0.191   2.956
53943SOL    HW163603   7.288   0.217   3.049
53943SOL    HW263604   7.360   0.243   2.918
53944SOL     OW63605   6.823   1.925   7.734
53944SOL    HW163606   6.784   2.007   7.765
53944SOL    HW263607   6.907   1.951   7.697
53945SOL     OW63608   1.446  11.624  10.399
53945SOL    HW163609   1.472  11.539  10.364
53945SOL    HW263610   1.503  11.686  10.354
53946SOL     OW63611  13.410   4.551   5.893
53946SOL    HW163612  13.479   4.618   5.898
53946SOL    HW263613  13.417   4.517   5.804
53947SOL     OW63614  10.053  12.560  11.734
53947SOL    HW163615  10.012  12.646  11.723
53947SOL    HW263616  10.009  12.504  11.670
53948SOL     OW63617   1.633  14.114   4.449
53948SOL    HW163618   1.542  14.143   4.437
53948SOL    HW263619   1.663  14.094   4.361
53949SOL     OW63620   2.357   6.480   4.684
53949SOL    HW163621   2.305   6.465   4.605
53949SOL    HW263622   2.383   6.393   4.713
53950SOL     OW63623   7.708   1.930   0.964
53950SOL    HW163624   7.647   1.931   1.037
53950SOL    HW263625   7.696   1.844   0.924
53951SOL     OW63626   1.273  13.023  10.567
53951SOL    HW163627   1.333  12.970  10.620
53951SOL    HW263628   1.272  13.109  10.609
53952SOL     OW63629   9.737   8.983  12.304
53952SOL    HW163630   9.724   8.890  12.324
53952SOL    HW263631   9.756   9.023  12.388
53953SOL     OW63632  12.059   5.256  11.179
53953SOL    HW163633  12.099   5.289  11.260
53953SOL    HW263634  12.131   5.248  11.118
53954SOL     OW63635   6.377   7.619   8.840
53954SOL    HW163636   6.283   7.615   8.857
53954SOL    HW263637   6.413   7.544   8.887
53955SOL     OW63638  13.076   9.167   7.924
53955SOL    HW163639  13.041   9.103   7.987
53955SOL    HW263640  13.125   9.114   7.862
53956SOL     OW63641   5.837  12.232   7.883
53956SOL    HW163642   5.905  12.298   7.877
53956SOL    HW263643   5.772  12.258   7.817
53957SOL     OW63644  14.321   1.454   9.440
53957SOL    HW163645  14.399   1.507   9.459
53957SOL    HW263646  14.327   1.380   9.500
53958SOL     OW63647   4.154  12.270   7.782
53958SOL    HW163648   4.244  12.291   7.806
53958SOL    HW263649   4.147  12.175   7.796
53959SOL     OW63650   9.376  13.293   1.121
53959SOL    HW163651   9.327  13.213   1.142
53959SOL    HW263652   9.462  13.279   1.160
53960SOL     OW63653  12.651  12.828   3.433
53960SOL    HW163654  12.732  12.879   3.436
53960SOL    HW263655  12.680  12.737   3.422
53961SOL     OW63656   0.538   6.458   5.476
53961SOL    HW163657   0.512   6.548   5.494
53961SOL    HW263658   0.477   6.429   5.408
53962SOL     OW63659   7.839   1.201   7.943
53962SOL    HW163660   7.759   1.176   7.896
53962SOL    HW263661   7.808   1.247   8.021
53963SOL     OW63662  13.706   4.200  13.611
53963SOL    HW163663  13.765   4.135  13.574
53963SOL    HW263664  13.631   4.201  13.551
53964SOL     OW63665  12.126   2.139   1.571
53964SOL    HW163666  12.092   2.206   1.629
53964SOL    HW263667  12.079   2.059   1.595
53965SOL     OW63668  13.439   9.554   3.896
53965SOL    HW163669  13.473   9.535   3.809
53965SOL    HW263670  13.452   9.648   3.908
53966SOL     OW63671   6.814   4.572  13.452
53966SOL    HW163672   6.863   4.573  13.534
53966SOL    HW263673   6.881   4.574  13.384
53967SOL     OW63674   8.952  13.161  11.976
53967SOL    HW163675   8.890  13.167  11.904
53967SOL    HW263676   9.025  13.217  11.950
53968SOL     OW63677   3.256   1.074   1.978
53968SOL    HW163678   3.321   1.047   2.043
53968SOL    HW263679   3.177   1.026   2.002
53969SOL     OW63680  11.999   1.865   6.400
53969SOL    HW163681  11.969   1.935   6.459
53969SOL    HW263682  12.032   1.912   6.323
53970SOL     OW63683  11.734   0.212  12.766
53970SOL    HW163684  11.680   0.264  12.706
53970SOL    HW263685  11.761   0.136  12.714
53971SOL     OW63686   8.357   0.664   0.849
53971SOL    HW163687   8.359   0.603   0.923
53971SOL    HW263688   8.308   0.617   0.781
53972SOL     OW63689  13.402   3.472   9.202
53972SOL    HW163690  13.346   3.442   9.272
53972SOL    HW263691  13.456   3.541   9.241
53973SOL     OW63692   5.048   8.568  10.835
53973SOL    HW163693   4.964   8.606  10.810
53973SOL    HW263694   5.064   8.499  10.771
53974SOL     OW63695   2.493   8.588  13.056
53974SOL    HW163696   2.461   8.672  13.087
53974SOL    HW263697   2.426   8.525  13.083
53975SOL     OW63698  11.400  13.810   4.837
53975SOL    HW163699  11.324  13.861   4.865
53975SOL    HW263700  11.456  13.873   4.792
53976SOL     OW63701   2.085  12.989  10.529
53976SOL    HW163702   2.130  13.067  10.496
53976SOL    HW263703   1.996  12.996  10.494
53977SOL     OW63704   8.846  12.056   4.350
53977SOL    HW163705   8.932  12.050   4.390
53977SOL    HW263706   8.800  11.977   4.380
53978SOL     OW63707   4.033   2.313  13.187
53978SOL    HW163708   4.023   2.314  13.092
53978SOL    HW263709   4.087   2.390  13.206
53979SOL     OW63710   2.051   5.356  13.374
53979SOL    HW163711   2.078   5.322  13.288
53979SOL    HW263712   2.131   5.394  13.410
53980SOL     OW63713   2.711  14.112   6.235
53980SOL    HW163714   2.803  14.098   6.211
53980SOL    HW263715   2.707  14.087   6.328
53981SOL     OW63716   5.096   5.932   3.339
53981SOL    HW163717   5.119   6.024   3.354
53981SOL    HW263718   5.010   5.935   3.297
53982SOL     OW63719   2.270   8.407  13.088
53982SOL    HW163720   2.276   8.334  13.026
53982SOL    HW263721   2.213   8.375  13.158
53983SOL     OW63722   5.024   7.497   4.051
53983SOL    HW163723   5.066   7.442   4.118
53983SOL    HW263724   5.051   7.457   3.968
53984SOL     OW63725   3.640   8.300   8.346
53984SOL    HW163726   3.716   8.309   8.288
53984SOL    HW263727   3.669   8.333   8.430
53985SOL     OW63728   4.805  10.819   2.688
53985SOL    HW163729   4.725  10.784   2.650
53985SOL    HW263730   4.875  10.763   2.652
53986SOL     OW63731   4.631   3.410  13.145
53986SOL    HW163732   4.627   3.362  13.228
53986SOL    HW263733   4.625   3.502  13.170
53987SOL     OW63734  14.241   7.516  11.243
53987SOL    HW163735  14.210   7.570  11.170
53987SOL    HW263736  14.287   7.443  11.201
53988SOL     OW63737   1.264  12.028   4.727
53988SOL    HW163738   1.242  12.117   4.697
53988SOL    HW263739   1.183  11.979   4.715
53989SOL     OW63740   7.976  14.500   0.964
53989SOL    HW163741   8.059  14.547   0.973
53989SOL    HW263742   7.990  14.418   1.011
53990SOL     OW63743   4.011   6.604  11.494
53990SOL    HW163744   3.988   6.687  11.535
53990SOL    HW263745   3.939   6.545  11.517
53991SOL     OW63746   2.287   0.378   1.834
53991SOL    HW163747   2.284   0.366   1.929
53991SOL    HW263748   2.329   0.299   1.801
53992SOL     OW63749   1.938  12.221   2.639
53992SOL    HW163750   1.961  12.130   2.621
53992SOL    HW263751   2.019  12.270   2.622
53993SOL     OW63752  12.933  12.332  11.532
53993SOL    HW163753  12.937  12.345  11.627
53993SOL    HW263754  12.870  12.260  11.521
53994SOL     OW63755   3.533   9.469   8.651
53994SOL    HW163756   3.548   9.418   8.572
53994SOL    HW263757   3.531   9.405   8.722
53995SOL     OW63758  11.663   7.515   9.280
53995SOL    HW163759  11.598   7.499   9.211
53995SOL    HW263760  11.672   7.430   9.324
53996SOL     OW63761  13.655  13.787   2.027
53996SOL    HW163762  13.645  13.846   1.952
53996SOL    HW263763  13.748  13.793   2.051
53997SOL     OW63764   2.585  10.928  11.855
53997SOL    HW163765   2.607  10.910  11.947
53997SOL    HW263766   2.660  10.979  11.823
53998SOL     OW63767  10.357   9.275  11.382
53998SOL    HW163768  10.414   9.345  11.353
53998SOL    HW263769  10.326   9.234  11.301
53999SOL     OW63770   8.751   3.018   5.618
53999SOL    HW163771   8.785   3.051   5.535
53999SOL    HW263772   8.823   3.030   5.680
54000SOL     OW63773   0.940   8.699  14.261
54000SOL    HW163774   0.971   8.789  14.252
54000SOL    HW263775   1.019   8.646  14.257
54001SOL     OW63776   5.251   4.122   5.916
54001SOL    HW163777   5.206   4.040   5.937
54001SOL    HW263778   5.329   4.094   5.868
54002SOL     OW63779   6.122   7.300   8.903
54002SOL    HW163780   6.189   7.352   8.948
54002SOL    HW263781   6.088   7.242   8.971
54003SOL     OW63782  13.842   6.964   0.078
54003SOL    HW163783  13.903   7.035   0.057
54003SOL    HW263784  13.756   7.007   0.084
54004SOL     OW63785   0.766   7.424   1.535
54004SOL    HW163786   0.771   7.331   1.554
54004SOL    HW263787   0.851   7.445   1.497
54005SOL     OW63788  11.885   9.795   6.373
54005SOL    HW163789  11.886   9.773   6.466
54005SOL    HW263790  11.866   9.713   6.329
54006SOL     OW63791   2.646   7.008  11.780
54006SOL    HW163792   2.620   6.917  11.769
54006SOL    HW263793   2.709   7.007  11.851
54007SOL     OW63794   4.616   6.862   7.611
54007SOL    HW163795   4.656   6.883   7.527
54007SOL    HW263796   4.547   6.799   7.589
54008SOL     OW63797  14.646  10.485   8.103
54008SOL    HW163798  14.727  10.507   8.150
54008SOL    HW263799  14.614  10.405   8.144
54009SOL     OW63800  12.910  11.829  11.611
54009SOL    HW163801  12.821  11.793  11.612
54009SOL    HW263802  12.958  11.772  11.551
54010SOL     OW63803   8.060   2.479   8.139
54010SOL    HW163804   7.967   2.502   8.138
54010SOL    HW263805   8.060   2.383   8.136
54011SOL     OW63806  11.507  11.454   2.472
54011SOL    HW163807  11.474  11.368   2.447
54011SOL    HW263808  11.593  11.460   2.430
54012SOL     OW63809   0.579   3.181  13.261
54012SOL    HW163810   0.483   3.177  13.257
54012SOL    HW263811   0.609   3.115  13.199
54013SOL     OW63812   7.014  13.598  10.542
54013SOL    HW163813   7.062  13.526  10.582
54013SOL    HW263814   7.082  13.655  10.505
54014SOL     OW63815  11.552   1.311  13.001
54014SOL    HW163816  11.527   1.335  12.912
54014SOL    HW263817  11.498   1.235  13.021
54015SOL     OW63818   3.261   9.098   7.844
54015SOL    HW163819   3.338   9.076   7.896
54015SOL    HW263820   3.292   9.162   7.780
54016SOL     OW63821  10.604   4.924   2.665
54016SOL    HW163822  10.542   4.851   2.669
54016SOL    HW263823  10.621   4.946   2.757
54017SOL     OW63824   0.769   8.149   3.049
54017SOL    HW163825   0.832   8.079   3.069
54017SOL    HW263826   0.776   8.209   3.123
54018SOL     OW63827   9.794   7.958   2.556
54018SOL    HW163828   9.790   8.015   2.480
54018SOL    HW263829   9.728   7.993   2.616
54019SOL     OW63830  11.405   0.596  10.028
54019SOL    HW163831  11.436   0.545  10.103
54019SOL    HW263832  11.381   0.681  10.064
54020SOL     OW63833   6.242  14.021   7.262
54020SOL    HW163834   6.246  13.953   7.196
54020SOL    HW263835   6.194  13.982   7.335
54021SOL     OW63836   7.234  11.580  11.137
54021SOL    HW163837   7.225  11.671  11.110
54021SOL    HW263838   7.325  11.572  11.165
54022SOL     OW63839  10.238   2.515   5.730
54022SOL    HW163840  10.244   2.534   5.823
54022SOL    HW263841  10.325   2.484   5.706
54023SOL     OW63842   8.166   9.088   6.037
54023SOL    HW163843   8.254   9.117   6.062
54023SOL    HW263844   8.144   9.022   6.102
54024SOL     OW63845   8.237  12.154  11.549
54024SOL    HW163846   8.229  12.107  11.632
54024SOL    HW263847   8.179  12.106  11.489
54025SOL     OW63848  11.842   2.163  10.296
54025SOL    HW163849  11.873   2.191  10.382
54025SOL    HW263850  11.865   2.236  10.237
54026SOL     OW63851   4.500  13.989   2.966
54026SOL    HW163852   4.544  13.923   3.020
54026SOL    HW263853   4.567  14.056   2.952
54027SOL     OW63854   4.023   9.872   9.684
54027SOL    HW163855   4.013   9.848   9.592
54027SOL    HW263856   3.973   9.953   9.694
54028SOL     OW63857   2.654  13.669  14.341
54028SOL    HW163858   2.671  13.596  14.401
54028SOL    HW263859   2.585  13.719  14.385
54029SOL     OW63860   9.896  12.510   1.834
54029SOL    HW163861   9.817  12.564   1.832
54029SOL    HW263862   9.968  12.572   1.831
54030SOL     OW63863   2.344   1.515  14.536
54030SOL    HW163864   2.258   1.556  14.542
54030SOL    HW263865   2.375   1.536  14.447
54031SOL     OW63866  11.334  13.675   9.367
54031SOL    HW163867  11.353  13.740   9.434
54031SOL    HW263868  11.260  13.625   9.402
54032SOL     OW63869   6.002   9.962  11.701
54032SOL    HW163870   5.965   9.925  11.782
54032SOL    HW263871   5.929   9.963  11.640
54033SOL     OW63872  10.434   7.725  10.935
54033SOL    HW163873  10.493   7.655  10.906
54033SOL    HW263874  10.347   7.694  10.909
54034SOL     OW63875  14.354   6.649  10.516
54034SOL    HW163876  14.282   6.673  10.458
54034SOL    HW263877  14.314   6.637  10.602
54035SOL     OW63878  11.807   6.391   8.369
54035SOL    HW163879  11.900   6.376   8.388
54035SOL    HW263880  11.787   6.475   8.411
54036SOL     OW63881  11.652   2.976  10.860
54036SOL    HW163882  11.702   2.904  10.898
54036SOL    HW263883  11.575   2.934  10.821
54037SOL     OW63884   4.059  12.181   2.431
54037SOL    HW163885   4.061  12.133   2.348
54037SOL    HW263886   4.082  12.271   2.408
54038SOL     OW63887   4.916   0.029   1.863
54038SOL    HW163888   4.873   0.016   1.947
54038SOL    HW263889   4.880   0.111   1.830
54039SOL     OW63890   4.217  12.805   9.325
54039SOL    HW163891   4.233  12.807   9.231
54039SOL    HW263892   4.243  12.717   9.352
54040SOL     OW63893  10.522  11.517   3.552
54040SOL    HW163894  10.608  11.542   3.520
54040SOL    HW263895  10.494  11.590   3.607
54041SOL     OW63896  14.216  14.663  10.488
54041SOL    HW163897  14.140  14.720  10.504
54041SOL    HW263898  14.231  14.619  10.572
54042SOL     OW63899   2.850  11.494   0.527
54042SOL    HW163900   2.821  11.585   0.521
54042SOL    HW263901   2.868  11.469   0.436
54043SOL     OW63902   6.747   2.382   8.573
54043SOL    HW163903   6.672   2.386   8.633
54043SOL    HW263904   6.743   2.464   8.524
54044SOL     OW63905   3.445   9.183   5.775
54044SOL    HW163906   3.399   9.263   5.800
54044SOL    HW263907   3.498   9.208   5.700
54045SOL     OW63908  10.572   5.153   0.184
54045SOL    HW163909  10.560   5.242   0.214
54045SOL    HW263910  10.526   5.099   0.248
54046SOL     OW63911  10.558   8.819   2.421
54046SOL    HW163912  10.620   8.749   2.443
54046SOL    HW263913  10.491   8.813   2.488
54047SOL     OW63914   7.533   3.794   5.273
54047SOL    HW163915   7.484   3.862   5.320
54047SOL    HW263916   7.569   3.738   5.343
54048SOL     OW63917   0.955   7.122  10.952
54048SOL    HW163918   1.031   7.071  10.982
54048SOL    HW263919   0.972   7.211  10.984
54049SOL     OW63920  11.448   3.926   5.925
54049SOL    HW163921  11.442   3.910   6.019
54049SOL    HW263922  11.498   4.007   5.917
54050SOL     OW63923  13.318  14.699  13.475
54050SOL    HW163924  13.248  14.691  13.410
54050SOL    HW263925  13.276  14.736  13.552
54051SOL     OW63926  12.796   3.630   4.145
54051SOL    HW163927  12.764   3.719   4.132
54051SOL    HW263928  12.845   3.610   4.065
54052SOL     OW63929   7.513  13.289  11.996
54052SOL    HW163930   7.466  13.371  11.979
54052SOL    HW263931   7.445  13.222  12.001
54053SOL     OW63932   5.594   6.585   6.281
54053SOL    HW163933   5.607   6.562   6.190
54053SOL    HW263934   5.681   6.608   6.314
54054SOL     OW63935  10.513   9.007   4.812
54054SOL    HW163936  10.466   8.979   4.890
54054SOL    HW263937  10.447   9.051   4.759
54055SOL     OW63938  11.360   7.929  13.556
54055SOL    HW163939  11.319   8.013  13.577
54055SOL    HW263940  11.410   7.946  13.476
54056SOL     OW63941  13.972   1.585  14.557
54056SOL    HW163942  13.940   1.516  14.615
54056SOL    HW263943  13.973   1.545  14.470
54057SOL     OW63944   2.857   6.248   8.038
54057SOL    HW163945   2.845   6.153   8.029
54057SOL    HW263946   2.805   6.285   7.967
54058SOL     OW63947   2.730  11.265   5.258
54058SOL    HW163948   2.662  11.332   5.269
54058SOL    HW263949   2.695  11.187   5.300
54059SOL     OW63950   4.527   7.111   1.595
54059SOL    HW163951   4.440   7.074   1.581
54059SOL    HW263952   4.586   7.053   1.547
54060SOL     OW63953   3.134   0.948   6.923
54060SOL    HW163954   3.110   0.915   6.836
54060SOL    HW263955   3.132   0.871   6.979
54061SOL     OW63956  14.746   1.073   9.853
54061SOL    HW163957  14.764   1.144   9.914
54061SOL    HW263958  14.667   1.102   9.806
54062SOL     OW63959  10.084   6.781   9.824
54062SOL    HW163960  10.129   6.842   9.766
54062SOL    HW263961  10.130   6.788   9.908
54063SOL     OW63962   8.029   7.432  13.154
54063SOL    HW163963   7.963   7.443  13.222
54063SOL    HW263964   8.021   7.510  13.100
54064SOL     OW63965  13.089   5.130   7.260
54064SOL    HW163966  13.164   5.124   7.201
54064SOL    HW263967  13.074   5.039   7.288
54065SOL     OW63968  12.551   8.388  14.667
54065SOL    HW163969  12.505   8.392  14.583
54065SOL    HW263970  12.587   8.299  14.670
54066SOL     OW63971  14.413   3.551   2.836
54066SOL    HW163972  14.328   3.515   2.862
54066SOL    HW263973  14.470   3.475   2.828
54067SOL     OW63974  13.099   5.895   6.103
54067SOL    HW163975  13.105   5.805   6.070
54067SOL    HW263976  13.172   5.902   6.165
54068SOL     OW63977  13.561  10.179   1.909
54068SOL    HW163978  13.520  10.126   1.977
54068SOL    HW263979  13.646  10.138   1.895
54069SOL     OW63980   2.395  14.106   1.827
54069SOL    HW163981   2.349  14.043   1.884
54069SOL    HW263982   2.457  14.149   1.885
54070SOL     OW63983   7.383  14.301  11.614
54070SOL    HW163984   7.312  14.303  11.678
54070SOL    HW263985   7.385  14.389  11.577
54071SOL     OW63986   9.924   4.297   6.355
54071SOL    HW163987   9.931   4.371   6.415
54071SOL    HW263988   9.985   4.317   6.284
54072SOL     OW63989  11.754  10.558   2.807
54072SOL    HW163990  11.678  10.610   2.780
54072SOL    HW263991  11.718  10.489   2.861
54073SOL     OW63992   3.526   5.955   2.199
54073SOL    HW163993   3.539   6.029   2.138
54073SOL    HW263994   3.475   5.993   2.271
54074SOL     OW63995   2.312  14.282  12.670
54074SOL    HW163996   2.247  14.286  12.741
54074SOL    HW263997   2.384  14.232  12.707
54075SOL     OW63998   3.145   6.164  10.380
54075SOL    HW163999   3.189   6.236  10.426
54075SOL    HW264000   3.053   6.191  10.376
54076SOL     OW64001   3.536   6.569   6.014
54076SOL    HW164002   3.560   6.577   6.107
54076SOL    HW264003   3.526   6.659   5.985
54077SOL     OW64004   2.046  13.379  14.585
54077SOL    HW164005   2.025  13.293  14.620
54077SOL    HW264006   2.125  13.366  14.533
54078SOL     OW64007   9.823   4.479  14.641
54078SOL    HW164008   9.778   4.396  14.626
54078SOL    HW264009   9.799   4.533  14.566
54079SOL     OW64010   6.231   4.079   4.277
54079SOL    HW164011   6.168   4.034   4.334
54079SOL    HW264012   6.317   4.057   4.313
54080SOL     OW64013   6.854   2.896   7.402
54080SOL    HW164014   6.800   2.819   7.382
54080SOL    HW264015   6.793   2.959   7.441
54081SOL     OW64016   5.162   6.975   9.367
54081SOL    HW164017   5.116   6.900   9.404
54081SOL    HW264018   5.146   7.047   9.428
54082SOL     OW64019   4.810   4.322   2.757
54082SOL    HW164020   4.753   4.379   2.808
54082SOL    HW264021   4.889   4.313   2.811
54083SOL     OW64022   7.777   8.954   4.860
54083SOL    HW164023   7.870   8.937   4.843
54083SOL    HW264024   7.731   8.913   4.787
54084SOL     OW64025  12.334   4.491   8.875
54084SOL    HW164026  12.364   4.564   8.822
54084SOL    HW264027  12.316   4.529   8.961
54085SOL     OW64028   2.171  13.200  11.145
54085SOL    HW164029   2.263  13.218  11.162
54085SOL    HW264030   2.127  13.285  11.154
54086SOL     OW64031  14.377   6.404   7.532
54086SOL    HW164032  14.334   6.407   7.447
54086SOL    HW264033  14.438   6.330   7.526
54087SOL     OW64034  14.400   8.895   3.594
54087SOL    HW164035  14.435   8.850   3.671
54087SOL    HW264036  14.365   8.977   3.629
54088SOL     OW64037   0.423  12.598  14.801
54088SOL    HW164038   0.339  12.643  14.806
54088SOL    HW264039   0.439  12.588  14.708
54089SOL     OW64040  14.353  13.514   2.056
54089SOL    HW164041  14.342  13.450   2.127
54089SOL    HW264042  14.445  13.505   2.031
54090SOL     OW64043   3.653   8.230   4.981
54090SOL    HW164044   3.584   8.180   5.025
54090SOL    HW264045   3.725   8.232   5.044
54091SOL     OW64046   2.242   5.103  13.641
54091SOL    HW164047   2.188   5.063  13.709
54091SOL    HW264048   2.181   5.155  13.589
54092SOL     OW64049  10.057  13.768  10.461
54092SOL    HW164050  10.078  13.681  10.497
54092SOL    HW264051  10.128  13.824  10.493
54093SOL     OW64052  14.315   8.922   9.463
54093SOL    HW164053  14.236   8.877   9.493
54093SOL    HW264054  14.382   8.899   9.527
54094SOL     OW64055   4.826  13.987   7.496
54094SOL    HW164056   4.856  13.896   7.492
54094SOL    HW264057   4.807  14.011   7.406
54095SOL     OW64058   3.856  12.643   0.305
54095SOL    HW164059   3.893  12.609   0.386
54095SOL    HW264060   3.767  12.608   0.302
54096SOL     OW64061   5.721   6.001   2.947
54096SOL    HW164062   5.761   6.068   2.891
54096SOL    HW264063   5.644   5.972   2.899
54097SOL     OW64064  11.460   0.665   2.577
54097SOL    HW164065  11.395   0.694   2.642
54097SOL    HW264066  11.506   0.593   2.620
54098SOL     OW64067   2.290   2.643   5.383
54098SOL    HW164068   2.253   2.701   5.450
54098SOL    HW264069   2.214   2.618   5.329
54099SOL     OW64070  13.299   9.890   5.351
54099SOL    HW164071  13.255   9.814   5.312
54099SOL    HW264072  13.357   9.853   5.417
54100SOL     OW64073  12.610  12.515   9.667
54100SOL    HW164074  12.538  12.478   9.615
54100SOL    HW264075  12.600  12.610   9.658
54101SOL     OW64076   5.767   6.262  11.887
54101SOL    HW164077   5.704   6.190  11.877
54101SOL    HW264078   5.794   6.282  11.798
54102SOL     OW64079   7.102  10.043  10.774
54102SOL    HW164080   7.032  10.079  10.721
54102SOL    HW264081   7.114   9.954  10.741
54103SOL     OW64082   1.142   2.451   3.212
54103SOL    HW164083   1.111   2.361   3.223
54103SOL    HW264084   1.105   2.480   3.129
54104SOL     OW64085   7.541   1.490   2.245
54104SOL    HW164086   7.475   1.420   2.249
54104SOL    HW264087   7.522   1.545   2.321
54105SOL     OW64088   3.887   2.639   6.520
54105SOL    HW164089   3.903   2.633   6.425
54105SOL    HW264090   3.945   2.574   6.558
54106SOL     OW64091   9.281   1.226   1.566
54106SOL    HW164092   9.343   1.266   1.505
54106SOL    HW264093   9.217   1.182   1.511
54107SOL     OW64094   9.480  14.056  14.112
54107SOL    HW164095   9.462  14.067  14.019
54107SOL    HW264096   9.527  14.136  14.137
54108SOL     OW64097   6.007   0.167  11.038
54108SOL    HW164098   6.084   0.223  11.042
54108SOL    HW264099   6.038   0.082  11.068
54109SOL     OW64100  13.130   5.376  11.194
54109SOL    HW164101  13.173   5.434  11.131
54109SOL    HW264102  13.039   5.371  11.164
54110SOL     OW64103   5.910   7.513   4.628
54110SOL    HW164104   5.967   7.536   4.555
54110SOL    HW264105   5.823   7.542   4.601
54111SOL     OW64106   5.158   1.490  11.343
54111SOL    HW164107   5.067   1.474  11.320
54111SOL    HW264108   5.200   1.404  11.339
54112SOL     OW64109   3.755  11.221  14.238
54112SOL    HW164110   3.822  11.153  14.236
54112SOL    HW264111   3.774  11.270  14.318
54113SOL     OW64112   9.237   8.954   5.898
54113SOL    HW164113   9.217   8.869   5.859
54113SOL    HW264114   9.161   8.976   5.951
54114SOL     OW64115   3.466  12.737   1.423
54114SOL    HW164116   3.487  12.765   1.512
54114SOL    HW264117   3.399  12.800   1.394
54115SOL     OW64118  14.253   1.292  13.428
54115SOL    HW164119  14.311   1.368  13.430
54115SOL    HW264120  14.181   1.319  13.371
54116SOL     OW64121   5.203   6.797   4.681
54116SOL    HW164122   5.232   6.775   4.769
54116SOL    HW264123   5.272   6.762   4.624
54117SOL     OW64124   2.225   7.801   9.940
54117SOL    HW164125   2.252   7.872   9.997
54117SOL    HW264126   2.130   7.797   9.948
54118SOL     OW64127   6.604   2.298   1.119
54118SOL    HW164128   6.518   2.340   1.124
54118SOL    HW264129   6.644   2.314   1.205
54119SOL     OW64130   1.191   8.679   6.657
54119SOL    HW164131   1.162   8.642   6.741
54119SOL    HW264132   1.271   8.727   6.678
54120SOL     OW64133   5.134   5.417   4.114
54120SOL    HW164134   5.117   5.461   4.198
54120SOL    HW264135   5.228   5.424   4.101
54121SOL     OW64136  11.527  10.011  12.189
54121SOL    HW164137  11.603  10.060  12.156
54121SOL    HW264138  11.504   9.951  12.118
54122SOL     OW64139   8.219   0.258   2.184
54122SOL    HW164140   8.271   0.324   2.230
54122SOL    HW264141   8.129   0.279   2.206
54123SOL     OW64142  10.776   6.394   5.093
54123SOL    HW164143  10.695   6.445   5.084
54123SOL    HW264144  10.782   6.376   5.187
54124SOL     OW64145   2.103   5.649  13.908
54124SOL    HW164146   2.171   5.663  13.974
54124SOL    HW264147   2.141   5.683  13.827
54125SOL     OW64148   0.444   1.379  13.232
54125SOL    HW164149   0.467   1.421  13.315
54125SOL    HW264150   0.455   1.447  13.167
54126SOL     OW64151   7.762  10.274   6.861
54126SOL    HW164152   7.854  10.283   6.886
54126SOL    HW264153   7.759  10.194   6.810
54127SOL     OW64154   6.112   7.599   1.145
54127SOL    HW164155   6.096   7.515   1.189
54127SOL    HW264156   6.161   7.575   1.066
54128SOL     OW64157   8.920  13.204   6.006
54128SOL    HW164158   8.918  13.158   6.090
54128SOL    HW264159   8.957  13.140   5.944
54129SOL     OW64160  11.560  13.748   7.502
54129SOL    HW164161  11.640  13.771   7.550
54129SOL    HW264162  11.588  13.738   7.411
54130SOL     OW64163  12.013  12.671   4.771
54130SOL    HW164164  12.004  12.751   4.720
54130SOL    HW264165  11.930  12.625   4.760
54131SOL     OW64166   5.990   2.892  12.957
54131SOL    HW164167   6.085   2.884  12.951
54131SOL    HW264168   5.976   2.947  13.034
54132SOL     OW64169  12.830  12.463   4.270
54132SOL    HW164170  12.767  12.534   4.283
54132SOL    HW264171  12.882  12.490   4.194
54133SOL     OW64172   6.249   9.992   8.246
54133SOL    HW164173   6.171  10.004   8.299
54133SOL    HW264174   6.273  10.081   8.218
54134SOL     OW64175   5.167   7.428  10.318
54134SOL    HW164176   5.194   7.515  10.291
54134SOL    HW264177   5.225   7.368  10.271
54135SOL     OW64178  14.792  10.567   4.184
54135SOL    HW164179  14.783  10.662   4.175
54135SOL    HW264180  14.708  10.538   4.219
54136SOL     OW64181  14.285   1.658   3.328
54136SOL    HW164182  14.360   1.684   3.274
54136SOL    HW264183  14.213   1.647   3.265
54137SOL     OW64184   9.189  10.457  11.558
54137SOL    HW164185   9.274  10.423  11.588
54137SOL    HW264186   9.202  10.552  11.558
54138SOL     OW64187   1.444   2.524   0.504
54138SOL    HW164188   1.412   2.555   0.588
54138SOL    HW264189   1.404   2.581   0.439
54139SOL     OW64190   8.056   9.005  12.852
54139SOL    HW164191   8.071   9.092  12.815
54139SOL    HW264192   7.967   8.982  12.824
54140SOL     OW64193   8.574   3.408   1.737
54140SOL    HW164194   8.613   3.491   1.764
54140SOL    HW264195   8.604   3.345   1.803
54141SOL     OW64196  10.937   2.160  11.336
54141SOL    HW164197  10.904   2.097  11.400
54141SOL    HW264198  10.858   2.193  11.293
54142SOL     OW64199  11.116   2.664   5.029
54142SOL    HW164200  11.194   2.635   5.075
54142SOL    HW264201  11.102   2.598   4.961
54143SOL     OW64202  12.294  10.588  11.873
54143SOL    HW164203  12.375  10.597  11.922
54143SOL    HW264204  12.283  10.494  11.861
54144SOL     OW64205  10.291  13.955   4.639
54144SOL    HW164206  10.301  13.889   4.571
54144SOL    HW264207  10.284  14.038   4.591
54145SOL     OW64208   7.663   8.617   1.394
54145SOL    HW164209   7.590   8.638   1.452
54145SOL    HW264210   7.732   8.678   1.420
54146SOL     OW64211   2.577   0.023  11.880
54146SOL    HW164212   2.594   0.006  11.787
54146SOL    HW264213   2.620  14.829  11.926
54147SOL     OW64214   2.419   2.390   2.635
54147SOL    HW164215   2.514   2.394   2.632
54147SOL    HW264216   2.390   2.423   2.550
54148SOL     OW64217   4.637  14.859   8.537
54148SOL    HW164218   4.715   0.036   8.535
54148SOL    HW264219   4.583   0.018   8.608
54149SOL     OW64220   2.425   7.441   4.447
54149SOL    HW164221   2.354   7.460   4.510
54149SOL    HW264222   2.463   7.526   4.428
54150SOL     OW64223   6.396   0.814   9.189
54150SOL    HW164224   6.431   0.840   9.104
54150SOL    HW264225   6.369   0.723   9.177
54151SOL     OW64226   6.368   3.314   3.563
54151SOL    HW164227   6.371   3.343   3.472
54151SOL    HW264228   6.320   3.383   3.608
54152SOL     OW64229   7.349   3.665   9.176
54152SOL    HW164230   7.443   3.685   9.178
54152SOL    HW264231   7.310   3.726   9.239
54153SOL     OW64232  14.840   3.472   0.807
54153SOL    HW164233  14.817   3.422   0.885
54153SOL    HW264234  14.767   3.459   0.747
54154SOL     OW64235   9.799  13.182  13.220
54154SOL    HW164236   9.846  13.202  13.302
54154SOL    HW264237   9.757  13.098  13.236
54155SOL     OW64238   2.261  13.615  12.620
54155SOL    HW164239   2.236  13.706  12.604
54155SOL    HW264240   2.356  13.616  12.624
54156SOL     OW64241   6.854   3.746   0.971
54156SOL    HW164242   6.925   3.748   0.906
54156SOL    HW264243   6.860   3.830   1.016
54157SOL     OW64244   9.476  13.983  10.505
54157SOL    HW164245   9.526  14.033  10.440
54157SOL    HW264246   9.427  13.919  10.454
54158SOL     OW64247   4.620   3.020  13.198
54158SOL    HW164248   4.662   3.083  13.257
54158SOL    HW264249   4.528   3.046  13.198
54159SOL     OW64250   1.000   1.087   7.216
54159SOL    HW164251   0.947   1.009   7.224
54159SOL    HW264252   1.012   1.099   7.121
54160SOL     OW64253   0.285   1.616   9.147
54160SOL    HW164254   0.322   1.545   9.201
54160SOL    HW264255   0.313   1.696   9.192
54161SOL     OW64256   2.613   1.422   4.955
54161SOL    HW164257   2.582   1.399   4.867
54161SOL    HW264258   2.707   1.433   4.944
54162SOL     OW64259  11.648   1.509   7.247
54162SOL    HW164260  11.575   1.569   7.260
54162SOL    HW264261  11.612   1.423   7.269
54163SOL     OW64262   7.510   4.921  14.793
54163SOL    HW164263   7.603   4.926  14.773
54163SOL    HW264264   7.505   4.927   0.010
54164SOL     OW64265   0.005  12.424  12.152
54164SOL    HW164266   0.085  12.379  12.178
54164SOL    HW264267  14.823  12.412  12.226
54165SOL     OW64268   2.707   6.056  11.869
54165SOL    HW164269   2.711   5.964  11.843
54165SOL    HW264270   2.757   6.102  11.802
54166SOL     OW64271   7.359   1.161   5.109
54166SOL    HW164272   7.277   1.160   5.059
54166SOL    HW264273   7.331   1.182   5.198
54167SOL     OW64274  14.267  12.894   4.427
54167SOL    HW164275  14.245  12.977   4.386
54167SOL    HW264276  14.359  12.879   4.405
54168SOL     OW64277   9.732   1.421   3.518
54168SOL    HW164278   9.775   1.489   3.569
54168SOL    HW264279   9.655   1.464   3.481
54169SOL     OW64280   1.355   1.331  10.824
54169SOL    HW164281   1.263   1.304  10.832
54169SOL    HW264282   1.379   1.307  10.734
54170SOL     OW64283   9.331   0.236   2.289
54170SOL    HW164284   9.289   0.320   2.271
54170SOL    HW264285   9.274   0.172   2.246
54171SOL     OW64286   7.952   5.033  12.509
54171SOL    HW164287   7.906   4.996  12.584
54171SOL    HW264288   8.020   4.968  12.488
54172SOL     OW64289   7.099  10.060  10.384
54172SOL    HW164290   7.022  10.031  10.432
54172SOL    HW264291   7.066  10.125  10.322
54173SOL     OW64292   2.755  11.846   7.236
54173SOL    HW164293   2.664  11.876   7.236
54173SOL    HW264294   2.760  11.787   7.160
54174SOL     OW64295   1.453  11.674  12.590
54174SOL    HW164296   1.525  11.618  12.619
54174SOL    HW264297   1.494  11.737  12.530
54175SOL     OW64298  12.344   7.197  10.765
54175SOL    HW164299  12.264   7.223  10.720
54175SOL    HW264300  12.414   7.241  10.716
54176SOL     OW64301   9.490  12.506   0.138
54176SOL    HW164302   9.501  12.435   0.202
54176SOL    HW264303   9.533  12.473   0.059
54177SOL     OW64304   8.701   5.980  14.664
54177SOL    HW164305   8.689   6.051  14.726
54177SOL    HW264306   8.677   6.018  14.579
54178SOL     OW64307   9.672   7.743   1.031
54178SOL    HW164308   9.694   7.660   1.073
54178SOL    HW264309   9.731   7.747   0.956
54179SOL     OW64310   7.010  10.285  11.980
54179SOL    HW164311   7.100  10.304  11.954
54179SOL    HW264312   7.003  10.190  11.976
54180SOL     OW64313   4.230   9.424   9.352
54180SOL    HW164314   4.228   9.430   9.256
54180SOL    HW264315   4.322   9.434   9.375
54181SOL     OW64316   6.763   3.136   1.627
54181SOL    HW164317   6.801   3.183   1.701
54181SOL    HW264318   6.673   3.118   1.653
54182SOL     OW64319   2.496   6.985   5.011
54182SOL    HW164320   2.584   7.006   4.978
54182SOL    HW264321   2.498   6.890   5.023
54183SOL     OW64322   8.055  10.178   2.971
54183SOL    HW164323   7.979  10.162   3.026
54183SOL    HW264324   8.130  10.170   3.030
54184SOL     OW64325   1.227   9.944   4.194
54184SOL    HW164326   1.176   9.931   4.274
54184SOL    HW264327   1.304   9.888   4.204
54185SOL     OW64328   0.653   0.968   3.624
54185SOL    HW164329   0.599   0.889   3.619
54185SOL    HW264330   0.743   0.936   3.627
54186SOL     OW64331   1.707   0.990   2.525
54186SOL    HW164332   1.648   0.915   2.540
54186SOL    HW264333   1.725   0.987   2.431
54187SOL     OW64334   9.055   2.328   9.796
54187SOL    HW164335   9.143   2.326   9.758
54187SOL    HW264336   9.049   2.415   9.836
54188SOL     OW64337  11.764  12.212   9.540
54188SOL    HW164338  11.753  12.151   9.613
54188SOL    HW264339  11.676  12.242   9.520
54189SOL     OW64340   2.923   0.696  10.981
54189SOL    HW164341   2.897   0.708  10.890
54189SOL    HW264342   2.947   0.784  11.010
54190SOL     OW64343   4.155   4.362   6.853
54190SOL    HW164344   4.248   4.347   6.872
54190SOL    HW264345   4.128   4.429   6.915
54191SOL     OW64346  12.944   5.897  14.878
54191SOL    HW164347  12.883   5.970   0.012
54191SOL    HW264348  12.948   5.885  14.783
54192SOL     OW64349   1.180   2.320  13.146
54192SOL    HW164350   1.212   2.368  13.222
54192SOL    HW264351   1.096   2.285  13.173
54193SOL     OW64352   1.614   5.237  10.162
54193SOL    HW164353   1.594   5.324  10.126
54193SOL    HW264354   1.646   5.187  10.087
54194SOL     OW64355   1.224   1.455   7.803
54194SOL    HW164356   1.208   1.411   7.886
54194SOL    HW264357   1.310   1.494   7.813
54195SOL     OW64358   0.714  14.610   7.782
54195SOL    HW164359   0.797  14.601   7.828
54195SOL    HW264360   0.650  14.630   7.851
54196SOL     OW64361   3.150   8.693  11.593
54196SOL    HW164362   3.236   8.724  11.564
54196SOL    HW264363   3.088   8.738  11.536
54197SOL     OW64364   7.281  10.568  13.691
54197SOL    HW164365   7.364  10.526  13.713
54197SOL    HW264366   7.306  10.636  13.628
54198SOL     OW64367  13.378   9.639   9.894
54198SOL    HW164368  13.347   9.709   9.837
54198SOL    HW264369  13.399   9.682   9.977
54199SOL     OW64370   3.222  10.493   7.735
54199SOL    HW164371   3.186  10.508   7.822
54199SOL    HW264372   3.296  10.554   7.730
54200SOL     OW64373  14.510  10.274   7.827
54200SOL    HW164374  14.505  10.184   7.796
54200SOL    HW264375  14.598  10.303   7.805
54201SOL     OW64376   1.927   0.306   6.125
54201SOL    HW164377   1.884   0.289   6.041
54201SOL    HW264378   1.871   0.263   6.189
54202SOL     OW64379   4.364   5.360   4.084
54202SOL    HW164380   4.318   5.444   4.082
54202SOL    HW264381   4.389   5.344   3.993
54203SOL     OW64382   4.811   4.250   8.804
54203SOL    HW164383   4.809   4.198   8.723
54203SOL    HW264384   4.720   4.274   8.820
54204SOL     OW64385   7.350   3.920   8.225
54204SOL    HW164386   7.273   3.866   8.243
54204SOL    HW264387   7.364   3.911   8.131
54205SOL     OW64388   4.294   7.754   4.968
54205SOL    HW164389   4.244   7.757   5.049
54205SOL    HW264390   4.383   7.781   4.993
54206SOL     OW64391   5.129   5.194  11.854
54206SOL    HW164392   5.168   5.225  11.936
54206SOL    HW264393   5.193   5.132  11.819
54207SOL     OW64394   0.791  13.726   9.798
54207SOL    HW164395   0.791  13.691   9.886
54207SOL    HW264396   0.854  13.798   9.801
54208SOL     OW64397  12.662   4.930  13.703
54208SOL    HW164398  12.662   4.965  13.792
54208SOL    HW264399  12.749   4.893  13.691
54209SOL     OW64400   3.091   1.564  13.619
54209SOL    HW164401   3.138   1.505  13.560
54209SOL    HW264402   3.000   1.534  13.615
54210SOL     OW64403   1.192   3.105   0.197
54210SOL    HW164404   1.151   3.029   0.240
54210SOL    HW264405   1.185   3.175   0.262
54211SOL     OW64406   1.588  14.207   1.152
54211SOL    HW164407   1.596  14.164   1.067
54211SOL    HW264408   1.653  14.277   1.150
54212SOL     OW64409  11.532   8.847   7.853
54212SOL    HW164410  11.505   8.888   7.936
54212SOL    HW264411  11.616   8.888   7.833
54213SOL     OW64412   4.559   3.111   4.615
54213SOL    HW164413   4.597   3.105   4.703
54213SOL    HW264414   4.587   3.031   4.571
54214SOL     OW64415  11.609   7.039   8.045
54214SOL    HW164416  11.642   6.996   8.124
54214SOL    HW264417  11.670   7.013   7.976
54215SOL     OW64418  10.811   0.209   0.727
54215SOL    HW164419  10.742   0.146   0.710
54215SOL    HW264420  10.797   0.279   0.663
54216SOL     OW64421   4.227   5.678   6.755
54216SOL    HW164422   4.180   5.691   6.837
54216SOL    HW264423   4.160   5.645   6.694
54217SOL     OW64424   6.472   3.352   6.652
54217SOL    HW164425   6.378   3.336   6.652
54217SOL    HW264426   6.483   3.432   6.704
54218SOL     OW64427   4.845  12.343   6.257
54218SOL    HW164428   4.860  12.431   6.221
54218SOL    HW264429   4.859  12.284   6.184
54219SOL     OW64430   7.663  13.854   8.542
54219SOL    HW164431   7.588  13.819   8.590
54219SOL    HW264432   7.710  13.908   8.606
54220SOL     OW64433   3.049   9.732   5.357
54220SOL    HW164434   2.970   9.711   5.307
54220SOL    HW264435   3.056   9.827   5.352
54221SOL     OW64436   6.040   7.598   2.137
54221SOL    HW164437   6.053   7.633   2.049
54221SOL    HW264438   5.951   7.562   2.136
54222SOL     OW64439   1.844   2.075   4.026
54222SOL    HW164440   1.779   2.144   4.016
54222SOL    HW264441   1.821   2.012   3.957
54223SOL     OW64442   3.143   4.305   3.833
54223SOL    HW164443   3.137   4.389   3.787
54223SOL    HW264444   3.095   4.244   3.777
54224SOL     OW64445  11.069   2.339   5.968
54224SOL    HW164446  11.018   2.259   5.958
54224SOL    HW264447  11.142   2.329   5.906
54225SOL     OW64448   9.590   9.391   9.847
54225SOL    HW164449   9.534   9.365   9.920
54225SOL    HW264450   9.677   9.358   9.871
54226SOL     OW64451   2.165   7.953  11.006
54226SOL    HW164452   2.070   7.955  11.018
54226SOL    HW264453   2.201   7.941  11.094
54227SOL     OW64454   8.552   7.515   8.583
54227SOL    HW164455   8.642   7.546   8.598
54227SOL    HW264456   8.562   7.421   8.565
54228SOL     OW64457   7.470  13.642   6.764
54228SOL    HW164458   7.517  13.723   6.782
54228SOL    HW264459   7.403  13.667   6.700
54229SOL     OW64460   7.291   5.921  11.952
54229SOL    HW164461   7.240   5.899  11.874
54229SOL    HW264462   7.330   6.006  11.933
54230SOL     OW64463   2.230  14.437   3.445
54230SOL    HW164464   2.202  14.447   3.536
54230SOL    HW264465   2.153  14.402   3.399
54231SOL     OW64466   5.275   7.502  13.242
54231SOL    HW164467   5.275   7.507  13.337
54231SOL    HW264468   5.298   7.412  13.222
54232SOL     OW64469   9.105   9.142   9.886
54232SOL    HW164470   9.123   9.088   9.809
54232SOL    HW264471   9.157   9.103   9.956
54233SOL     OW64472   4.889  14.178   1.910
54233SOL    HW164473   4.796  14.175   1.931
54233SOL    HW264474   4.929  14.219   1.987
54234SOL     OW64475   3.615  13.891  11.955
54234SOL    HW164476   3.597  13.879  12.048
54234SOL    HW264477   3.688  13.832  11.937
54235SOL     OW64478  10.141  11.361   9.877
54235SOL    HW164479  10.080  11.433   9.860
54235SOL    HW264480  10.142  11.354   9.972
54236SOL     OW64481   0.721   8.440   1.922
54236SOL    HW164482   0.710   8.405   2.010
54236SOL    HW264483   0.811   8.473   1.921
54237SOL     OW64484  10.835   4.166   3.542
54237SOL    HW164485  10.888   4.118   3.478
54237SOL    HW264486  10.834   4.110   3.619
54238SOL     OW64487   5.873   2.323   6.861
54238SOL    HW164488   5.844   2.262   6.929
54238SOL    HW264489   5.969   2.318   6.863
54239SOL     OW64490  11.276   2.317  12.036
54239SOL    HW164491  11.273   2.379  11.963
54239SOL    HW264492  11.366   2.323  12.068
54240SOL     OW64493   2.169   6.141  12.538
54240SOL    HW164494   2.080   6.145  12.503
54240SOL    HW264495   2.190   6.047  12.536
54241SOL     OW64496   1.993   6.789  11.686
54241SOL    HW164497   1.911   6.741  11.669
54241SOL    HW264498   2.060   6.739  11.640
54242SOL     OW64499   0.677   8.476   8.290
54242SOL    HW164500   0.734   8.447   8.219
54242SOL    HW264501   0.633   8.397   8.319
54243SOL     OW64502   1.531   9.602  11.266
54243SOL    HW164503   1.553   9.580  11.176
54243SOL    HW264504   1.576   9.685  11.283
54244SOL     OW64505   0.965   2.213   7.025
54244SOL    HW164506   0.969   2.141   7.088
54244SOL    HW264507   1.021   2.184   6.952
54245SOL     OW64508   7.679  13.695   4.787
54245SOL    HW164509   7.764  13.660   4.763
54245SOL    HW264510   7.658  13.759   4.719
54246SOL     OW64511   1.143   3.015  12.626
54246SOL    HW164512   1.059   3.001  12.582
54246SOL    HW264513   1.178   3.094  12.586
54247SOL     OW64514  11.373   5.519  14.368
54247SOL    HW164515  11.327   5.445  14.409
54247SOL    HW264516  11.453   5.481  14.333
54248SOL     OW64517   6.427   2.793   4.770
54248SOL    HW164518   6.370   2.826   4.839
54248SOL    HW264519   6.395   2.837   4.690
54249SOL     OW64520   2.714  13.088   1.547
54249SOL    HW164521   2.683  13.166   1.502
54249SOL    HW264522   2.711  13.019   1.479
54250SOL     OW64523   4.755  13.633  13.503
54250SOL    HW164524   4.845  13.663  13.490
54250SOL    HW264525   4.706  13.671  13.430
54251SOL     OW64526   2.398   2.045   7.743
54251SOL    HW164527   2.364   2.125   7.783
54251SOL    HW264528   2.323   1.986   7.741
54252SOL     OW64529  14.809   0.870  12.494
54252SOL    HW164530  14.783   0.802  12.556
54252SOL    HW264531  14.859   0.932  12.547
54253SOL     OW64532   2.245   3.847   4.004
54253SOL    HW164533   2.181   3.776   3.995
54253SOL    HW264534   2.230   3.882   4.092
54254SOL     OW64535   4.953   1.951   7.241
54254SOL    HW164536   4.946   1.859   7.267
54254SOL    HW264537   5.044   1.960   7.211
54255SOL     OW64538  12.663   4.615  13.809
54255SOL    HW164539  12.689   4.667  13.732
54255SOL    HW264540  12.745   4.599  13.855
54256SOL     OW64541   4.928   1.562   3.535
54256SOL    HW164542   4.939   1.638   3.479
54256SOL    HW264543   4.902   1.491   3.476
54257SOL     OW64544   2.418  14.661  14.105
54257SOL    HW164545   2.360  14.720  14.153
54257SOL    HW264546   2.359  14.600  14.060
54258SOL     OW64547   6.766   6.346   6.888
54258SOL    HW164548   6.802   6.409   6.825
54258SOL    HW264549   6.689   6.391   6.925
54259SOL     OW64550   0.067  10.991   7.272
54259SOL    HW164551   0.016  11.039   7.207
54259SOL    HW264552   0.154  10.981   7.233
54260SOL     OW64553   9.439   1.835  13.347
54260SOL    HW164554   9.458   1.751  13.389
54260SOL    HW264555   9.402   1.889  13.418
54261SOL     OW64556   1.404   9.245   4.450
54261SOL    HW164557   1.397   9.331   4.493
54261SOL    HW264558   1.476   9.201   4.496
54262SOL     OW64559  12.016   8.410  12.080
54262SOL    HW164560  12.072   8.453  12.015
54262SOL    HW264561  12.011   8.319  12.050
54263SOL     OW64562  11.081  12.731   7.352
54263SOL    HW164563  11.096  12.759   7.442
54263SOL    HW264564  11.135  12.653   7.342
54264SOL     OW64565   3.276   5.797   3.684
54264SOL    HW164566   3.314   5.709   3.682
54264SOL    HW264567   3.301   5.834   3.599
54265SOL     OW64568  13.110   4.902   0.427
54265SOL    HW164569  13.023   4.889   0.390
54265SOL    HW264570  13.117   4.834   0.494
54266SOL     OW64571   4.191   5.241  11.068
54266SOL    HW164572   4.233   5.233  11.154
54266SOL    HW264573   4.244   5.306  11.022
54267SOL     OW64574   4.696   4.800   8.317
54267SOL    HW164575   4.702   4.742   8.392
54267SOL    HW264576   4.722   4.886   8.351
54268SOL     OW64577   0.262   7.916   7.795
54268SOL    HW164578   0.305   7.841   7.753
54268SOL    HW264579   0.319   7.937   7.870
54269SOL     OW64580   9.747   3.867   7.885
54269SOL    HW164581   9.838   3.856   7.858
54269SOL    HW264582   9.703   3.905   7.809
54270SOL     OW64583   1.739   1.332   3.199
54270SOL    HW164584   1.761   1.265   3.134
54270SOL    HW264585   1.655   1.366   3.171
54271SOL     OW64586   6.831   0.186   6.208
54271SOL    HW164587   6.905   0.194   6.147
54271SOL    HW264588   6.865   0.221   6.290
54272SOL     OW64589  12.956  12.431  13.858
54272SOL    HW164590  13.046  12.412  13.833
54272SOL    HW264591  12.909  12.349  13.841
54273SOL     OW64592  14.421   4.353  13.213
54273SOL    HW164593  14.458   4.291  13.276
54273SOL    HW264594  14.489   4.363  13.147
54274SOL     OW64595   9.889   0.059  14.582
54274SOL    HW164596   9.888  14.869  14.649
54274SOL    HW264597   9.982   0.075  14.566
54275SOL     OW64598   0.347   0.186   9.460
54275SOL    HW164599   0.395   0.103   9.462
54275SOL    HW264600   0.415   0.252   9.443
54276SOL     OW64601   2.502  11.860   1.665
54276SOL    HW164602   2.455  11.778   1.684
54276SOL    HW264603   2.554  11.840   1.587
54277SOL     OW64604   0.702   2.242   5.774
54277SOL    HW164605   0.696   2.203   5.861
54277SOL    HW264606   0.795   2.262   5.763
54278SOL     OW64607   1.241  13.969  12.064
54278SOL    HW164608   1.216  14.061  12.071
54278SOL    HW264609   1.253  13.954  11.970
54279SOL     OW64610   2.489   3.613   2.849
54279SOL    HW164611   2.537   3.559   2.786
54279SOL    HW264612   2.537   3.601   2.931
54280SOL     OW64613   5.006  13.389   8.376
54280SOL    HW164614   5.063  13.458   8.409
54280SOL    HW264615   5.064  13.329   8.329
54281SOL     OW64616   2.759   0.186  10.254
54281SOL    HW164617   2.743   0.128  10.328
54281SOL    HW264618   2.802   0.262  10.292
54282SOL     OW64619   3.589  12.686   9.584
54282SOL    HW164620   3.590  12.780   9.604
54282SOL    HW264621   3.517  12.651   9.637
54283SOL     OW64622   6.546  13.527   3.673
54283SOL    HW164623   6.595  13.583   3.733
54283SOL    HW264624   6.496  13.587   3.619
54284SOL     OW64625   9.537  14.453   4.939
54284SOL    HW164626   9.463  14.423   4.991
54284SOL    HW264627   9.581  14.372   4.911
54285SOL     OW64628   8.237   9.652   7.191
54285SOL    HW164629   8.293   9.730   7.188
54285SOL    HW264630   8.234   9.629   7.284
54286SOL     OW64631   6.989   1.184  12.072
54286SOL    HW164632   6.961   1.244  12.141
54286SOL    HW264633   7.045   1.121  12.117
54287SOL     OW64634  12.722   8.873  10.048
54287SOL    HW164635  12.692   8.916   9.968
54287SOL    HW264636  12.818   8.877  10.043
54288SOL     OW64637   5.903   4.435   3.555
54288SOL    HW164638   5.960   4.509   3.578
54288SOL    HW264639   5.832   4.439   3.620
54289SOL     OW64640  11.638   3.138   0.834
54289SOL    HW164641  11.636   3.226   0.874
54289SOL    HW264642  11.620   3.154   0.742
54290SOL     OW64643   9.237  13.975   1.382
54290SOL    HW164644   9.190  14.051   1.418
54290SOL    HW264645   9.168  13.913   1.358
54291SOL     OW64646   0.365   1.438   7.136
54291SOL    HW164647   0.401   1.349   7.139
54291SOL    HW264648   0.441   1.495   7.146
54292SOL     OW64649  11.934   7.133   2.657
54292SOL    HW164650  11.900   7.168   2.739
54292SOL    HW264651  11.855   7.102   2.611
54293SOL     OW64652  11.292   0.881   2.462
54293SOL    HW164653  11.334   0.967   2.457
54293SOL    HW264654  11.355   0.826   2.509
54294SOL     OW64655   6.484  10.981   5.585
54294SOL    HW164656   6.525  11.028   5.658
54294SOL    HW264657   6.455  11.050   5.526
54295SOL     OW64658   5.412  12.847  14.042
54295SOL    HW164659   5.444  12.809  13.960
54295SOL    HW264660   5.393  12.938  14.019
54296SOL     OW64661  11.928   2.315  11.610
54296SOL    HW164662  11.969   2.336  11.527
54296SOL    HW264663  12.001   2.298  11.670
54297SOL     OW64664   9.062  13.486  10.046
54297SOL    HW164665   9.082  13.580  10.045
54297SOL    HW264666   9.129  13.448   9.989
54298SOL     OW64667   6.916   6.541   6.026
54298SOL    HW164668   7.006   6.519   6.005
54298SOL    HW264669   6.874   6.552   5.940
54299SOL     OW64670  14.655  14.817  13.507
54299SOL    HW164671  14.562  14.837  13.496
54299SOL    HW264672  14.663  14.795  13.600
54300SOL     OW64673   9.229   9.461   4.611
54300SOL    HW164674   9.213   9.371   4.639
54300SOL    HW264675   9.158   9.480   4.551
54301SOL     OW64676   0.059  13.090   2.672
54301SOL    HW164677   0.062  13.129   2.760
54301SOL    HW264678   0.120  13.017   2.676
54302SOL     OW64679   1.915   5.633   9.668
54302SOL    HW164680   1.996   5.683   9.669
54302SOL    HW264681   1.941   5.544   9.689
54303SOL     OW64682   7.613  10.498   6.680
54303SOL    HW164683   7.701  10.478   6.712
54303SOL    HW264684   7.564  10.523   6.758
54304SOL     OW64685   6.376   7.860  13.963
54304SOL    HW164686   6.369   7.947  14.002
54304SOL    HW264687   6.358   7.800  14.035
54305SOL     OW64688   5.369  13.069   3.567
54305SOL    HW164689   5.310  12.994   3.570
54305SOL    HW264690   5.311  13.145   3.563
54306SOL     OW64691   4.252  12.281   8.794
54306SOL    HW164692   4.298  12.365   8.791
54306SOL    HW264693   4.296  12.227   8.728
54307SOL     OW64694   0.757  10.398   8.720
54307SOL    HW164695   0.779  10.402   8.813
54307SOL    HW264696   0.779  10.484   8.685
54308SOL     OW64697   9.417   2.149   3.974
54308SOL    HW164698   9.407   2.209   4.049
54308SOL    HW264699   9.425   2.208   3.899
54309SOL     OW64700   3.365  13.274   0.034
54309SOL    HW164701   3.362  13.366   0.059
54309SOL    HW264702   3.458  13.255   0.022
54310SOL     OW64703  11.819  11.870  13.700
54310SOL    HW164704  11.731  11.907  13.711
54310SOL    HW264705  11.878  11.943  13.718
54311SOL     OW64706  13.726  13.406  13.025
54311SOL    HW164707  13.757  13.329  12.978
54311SOL    HW264708  13.708  13.375  13.114
54312SOL     OW64709   8.114   8.147   1.361
54312SOL    HW164710   8.028   8.183   1.378
54312SOL    HW264711   8.100   8.053   1.351
54313SOL     OW64712   2.241   8.127   1.079
54313SOL    HW164713   2.195   8.126   1.163
54313SOL    HW264714   2.330   8.098   1.100
54314SOL     OW64715   1.764   0.306   8.442
54314SOL    HW164716   1.857   0.299   8.423
54314SOL    HW264717   1.743   0.398   8.428
54315SOL     OW64718   4.322  10.823  14.558
54315SOL    HW164719   4.260  10.756  14.531
54315SOL    HW264720   4.361  10.790  14.639
54316SOL     OW64721   6.098   4.012   4.742
54316SOL    HW164722   6.144   4.002   4.826
54316SOL    HW264723   6.168   4.009   4.676
54317SOL     OW64724  12.746  12.490  11.385
54317SOL    HW164725  12.680  12.434  11.345
54317SOL    HW264726  12.800  12.430  11.437
54318SOL     OW64727   5.970  11.527  12.226
54318SOL    HW164728   5.996  11.536  12.134
54318SOL    HW264729   6.032  11.581  12.274
54319SOL     OW64730   4.754   3.019   8.407
54319SOL    HW164731   4.750   3.059   8.494
54319SOL    HW264732   4.683   3.061   8.358
54320SOL     OW64733  14.637  10.433  13.588
54320SOL    HW164734  14.665  10.475  13.669
54320SOL    HW264735  14.576  10.495  13.549
54321SOL     OW64736   7.103   9.215  10.213
54321SOL    HW164737   7.012   9.201  10.238
54321SOL    HW264738   7.151   9.147  10.259
54322SOL     OW64739   4.265   5.452  14.156
54322SOL    HW164740   4.246   5.401  14.235
54322SOL    HW264741   4.251   5.543  14.182
54323SOL     OW64742  10.485   3.250  10.554
54323SOL    HW164743  10.578   3.253  10.576
54323SOL    HW264744  10.451   3.175  10.603
54324SOL     OW64745   2.181   8.398   7.183
54324SOL    HW164746   2.164   8.324   7.124
54324SOL    HW264747   2.128   8.469   7.147
54325SOL     OW64748   8.245  12.862   8.952
54325SOL    HW164749   8.337  12.838   8.956
54325SOL    HW264750   8.231  12.888   8.861
54326SOL     OW64751  14.283  10.409  13.608
54326SOL    HW164752  14.314  10.349  13.675
54326SOL    HW264753  14.199  10.440  13.640
54327SOL     OW64754   5.578   8.400  10.577
54327SOL    HW164755   5.503   8.445  10.616
54327SOL    HW264756   5.544   8.314  10.552
54328SOL     OW64757   1.494   0.162   5.155
54328SOL    HW164758   1.525   0.252   5.152
54328SOL    HW264759   1.574   0.109   5.157
54329SOL     OW64760   5.544   0.268   3.663
54329SOL    HW164761   5.620   0.220   3.630
54329SOL    HW264762   5.525   0.228   3.748
54330SOL     OW64763  13.240  11.087   4.242
54330SOL    HW164764  13.311  11.025   4.257
54330SOL    HW264765  13.202  11.061   4.158
54331SOL     OW64766   0.018   3.633   0.021
54331SOL    HW164767   0.076   3.664  14.830
54331SOL    HW264768  14.810   3.626  14.857
54332SOL     OW64769   6.454   3.462   7.392
54332SOL    HW164770   6.432   3.553   7.375
54332SOL    HW264771   6.431   3.448   7.484
54333SOL     OW64772  11.083   3.618  10.553
54333SOL    HW164773  11.152   3.645  10.492
54333SOL    HW264774  11.024   3.693  10.557
54334SOL     OW64775  14.306   3.644  12.617
54334SOL    HW164776  14.306   3.738  12.600
54334SOL    HW264777  14.304   3.637  12.712
54335SOL     OW64778  11.216   5.421  14.784
54335SOL    HW164779  11.177   5.504  14.809
54335SOL    HW264780  11.298   5.444  14.741
54336SOL     OW64781   0.510   4.841   1.076
54336SOL    HW164782   0.528   4.933   1.098
54336SOL    HW264783   0.582   4.816   1.018
54337SOL     OW64784   5.571   0.795   8.392
54337SOL    HW164785   5.615   0.849   8.326
54337SOL    HW264786   5.556   0.855   8.465
54338SOL     OW64787   2.458  14.550   9.071
54338SOL    HW164788   2.425  14.505   8.993
54338SOL    HW264789   2.484  14.637   9.039
54339SOL     OW64790   4.973   6.556  14.537
54339SOL    HW164791   4.930   6.614  14.600
54339SOL    HW264792   4.911   6.484  14.526
54340SOL     OW64793  14.145  10.705   3.651
54340SOL    HW164794  14.236  10.690   3.678
54340SOL    HW264795  14.094  10.688   3.730
54341SOL     OW64796   8.199  14.336   0.843
54341SOL    HW164797   8.232  14.381   0.920
54341SOL    HW264798   8.277  14.295   0.805
54342SOL     OW64799   4.841   5.265  14.740
54342SOL    HW164800   4.921   5.216  14.722
54342SOL    HW264801   4.813   5.233  14.826
54343SOL     OW64802   2.263  10.053  11.660
54343SOL    HW164803   2.211  10.030  11.738
54343SOL    HW264804   2.290   9.968  11.624
54344SOL     OW64805   8.875   4.341   4.240
54344SOL    HW164806   8.894   4.269   4.179
54344SOL    HW264807   8.946   4.404   4.225
54345SOL     OW64808  12.278   9.691   9.730
54345SOL    HW164809  12.210   9.750   9.699
54345SOL    HW264810  12.283   9.708   9.824
54346SOL     OW64811  14.635   6.268   8.290
54346SOL    HW164812  14.649   6.181   8.327
54346SOL    HW264813  14.551   6.262   8.246
54347SOL     OW64814   0.426   9.798   7.369
54347SOL    HW164815   0.449   9.818   7.278
54347SOL    HW264816   0.448   9.877   7.418
54348SOL     OW64817  13.269   1.450   7.422
54348SOL    HW164818  13.250   1.543   7.422
54348SOL    HW264819  13.262   1.424   7.330
54349SOL     OW64820   9.133  10.770   8.769
54349SOL    HW164821   9.162  10.680   8.756
54349SOL    HW264822   9.142  10.785   8.863
54350SOL     OW64823  12.412   8.361  12.040
54350SOL    HW164824  12.434   8.295  12.106
54350SOL    HW264825  12.494   8.408  12.025
54351SOL     OW64826   4.073   6.110   4.004
54351SOL    HW164827   4.025   6.078   3.928
54351SOL    HW264828   4.070   6.205   3.997
54352SOL     OW64829   6.141   3.854   8.088
54352SOL    HW164830   6.189   3.893   8.161
54352SOL    HW264831   6.207   3.844   8.019
54353SOL     OW64832  14.721   1.357   9.428
54353SOL    HW164833  14.769   1.395   9.355
54353SOL    HW264834  14.731   1.263   9.417
54354SOL     OW64835  10.883  11.918   3.970
54354SOL    HW164836  10.821  11.860   4.014
54354SOL    HW264837  10.844  11.937   3.885
54355SOL     OW64838  14.605  14.128  13.609
54355SOL    HW164839  14.524  14.144  13.657
54355SOL    HW264840  14.643  14.216  13.596
54356SOL     OW64841   4.115  10.018   3.216
54356SOL    HW164842   4.068   9.935   3.208
54356SOL    HW264843   4.054  10.083   3.183
54357SOL     OW64844  11.633   0.499   7.404
54357SOL    HW164845  11.571   0.427   7.393
54357SOL    HW264846  11.701   0.464   7.461
54358SOL     OW64847  12.181   7.153  10.261
54358SOL    HW164848  12.116   7.190  10.321
54358SOL    HW264849  12.193   7.221  10.194
54359SOL     OW64850  11.594  10.874  10.283
54359SOL    HW164851  11.671  10.896  10.231
54359SOL    HW264852  11.621  10.886  10.374
54360SOL     OW64853  13.251   7.835   0.592
54360SOL    HW164854  13.181   7.865   0.534
54360SOL    HW264855  13.323   7.813   0.532
54361SOL     OW64856   2.682  11.504   4.974
54361SOL    HW164857   2.615  11.447   5.011
54361SOL    HW264858   2.765  11.460   4.995
54362SOL     OW64859  10.585  12.535   0.844
54362SOL    HW164860  10.624  12.489   0.918
54362SOL    HW264861  10.647  12.521   0.772
54363SOL     OW64862   3.397   4.232   6.640
54363SOL    HW164863   3.490   4.210   6.642
54363SOL    HW264864   3.355   4.157   6.598
54364SOL     OW64865  12.199   7.267   8.060
54364SOL    HW164866  12.171   7.207   8.129
54364SOL    HW264867  12.196   7.215   7.980
54365SOL     OW64868   0.357  12.190  12.002
54365SOL    HW164869   0.391  12.218  12.087
54365SOL    HW264870   0.280  12.136  12.023
54366SOL     OW64871   1.325  11.809  13.236
54366SOL    HW164872   1.408  11.857  13.237
54366SOL    HW264873   1.273  11.853  13.169
54367SOL     OW64874   4.652   7.873   6.182
54367SOL    HW164875   4.629   7.785   6.213
54367SOL    HW264876   4.710   7.858   6.107
54368SOL     OW64877   8.681   9.408   9.800
54368SOL    HW164878   8.601   9.460   9.810
54368SOL    HW264879   8.747   9.471   9.774
54369SOL     OW64880   0.324  12.579   9.132
54369SOL    HW164881   0.379  12.510   9.170
54369SOL    HW264882   0.236  12.541   9.129
54370SOL     OW64883   1.895   1.542   7.703
54370SOL    HW164884   1.903   1.600   7.778
54370SOL    HW264885   1.980   1.545   7.660
54371SOL     OW64886   9.564  12.248  11.127
54371SOL    HW164887   9.640  12.245  11.070
54371SOL    HW264888   9.498  12.195  11.083
54372SOL     OW64889   1.898   9.383  14.695
54372SOL    HW164890   1.827   9.335  14.737
54372SOL    HW264891   1.938   9.432  14.767
54373SOL     OW64892   6.140   1.477  13.074
54373SOL    HW164893   6.145   1.418  12.999
54373SOL    HW264894   6.052   1.514  13.071
54374SOL     OW64895  12.761   8.428   2.793
54374SOL    HW164896  12.731   8.508   2.835
54374SOL    HW264897  12.801   8.458   2.711
54375SOL     OW64898  13.263   2.493   0.846
54375SOL    HW164899  13.287   2.432   0.915
54375SOL    HW264900  13.175   2.523   0.869
54376SOL     OW64901  12.990   8.782  12.836
54376SOL    HW164902  13.068   8.789  12.890
54376SOL    HW264903  13.023   8.780  12.746
54377SOL     OW64904   9.621   4.405   4.725
54377SOL    HW164905   9.591   4.365   4.807
54377SOL    HW264906   9.557   4.376   4.659
54378SOL     OW64907   8.782   1.109   7.495
54378SOL    HW164908   8.740   1.125   7.580
54378SOL    HW264909   8.776   1.193   7.449
54379SOL     OW64910   2.751   3.631   2.061
54379SOL    HW164911   2.822   3.642   2.124
54379SOL    HW264912   2.778   3.557   2.006
54380SOL     OW64913   6.370   7.278   2.915
54380SOL    HW164914   6.427   7.203   2.899
54380SOL    HW264915   6.405   7.317   2.995
54381SOL     OW64916   9.880   0.760   1.778
54381SOL    HW164917   9.962   0.722   1.747
54381SOL    HW264918   9.853   0.704   1.851
54382SOL     OW64919   1.904  11.594   3.183
54382SOL    HW164920   1.911  11.570   3.091
54382SOL    HW264921   1.988  11.568   3.221
54383SOL     OW64922   1.610   5.306   4.955
54383SOL    HW164923   1.604   5.216   4.989
54383SOL    HW264924   1.590   5.361   5.031
54384SOL     OW64925   2.210   3.712   2.324
54384SOL    HW164926   2.207   3.617   2.311
54384SOL    HW264927   2.289   3.740   2.277
54385SOL     OW64928   2.079  11.986   2.598
54385SOL    HW164929   2.040  11.988   2.685
54385SOL    HW264930   2.134  11.907   2.598
54386SOL     OW64931   0.926   4.295  13.806
54386SOL    HW164932   0.835   4.275  13.823
54386SOL    HW264933   0.971   4.211  13.811
54387SOL     OW64934   0.904   2.984   6.939
54387SOL    HW164935   0.832   2.984   6.876
54387SOL    HW264936   0.952   2.903   6.921
54388SOL     OW64937   6.187   8.011   4.356
54388SOL    HW164938   6.231   8.093   4.335
54388SOL    HW264939   6.217   7.989   4.444
54389SOL     OW64940  12.106  10.309   9.079
54389SOL    HW164941  12.016  10.277   9.081
54389SOL    HW264942  12.124  10.324   8.986
54390SOL     OW64943  10.547  11.483   1.669
54390SOL    HW164944  10.477  11.453   1.727
54390SOL    HW264945  10.514  11.566   1.633
54391SOL     OW64946   5.378  10.948   1.045
54391SOL    HW164947   5.328  10.897   0.981
54391SOL    HW264948   5.318  10.961   1.118
54392SOL     OW64949  11.749   9.467  10.604
54392SOL    HW164950  11.736   9.525  10.529
54392SOL    HW264951  11.820   9.409  10.577
54393SOL     OW64952  11.869  14.269  11.259
54393SOL    HW164953  11.947  14.323  11.249
54393SOL    HW264954  11.893  14.185  11.220
54394SOL     OW64955   1.720   0.749   1.140
54394SOL    HW164956   1.637   0.784   1.173
54394SOL    HW264957   1.785   0.816   1.163
54395SOL     OW64958   6.278  10.232  14.002
54395SOL    HW164959   6.272  10.141  13.975
54395SOL    HW264960   6.231  10.280  13.934
54396SOL     OW64961  11.867  13.272  13.580
54396SOL    HW164962  11.864  13.265  13.485
54396SOL    HW264963  11.899  13.187  13.610
54397SOL     OW64964   9.732   1.310  13.508
54397SOL    HW164965   9.785   1.271  13.439
54397SOL    HW264966   9.795   1.357  13.563
54398SOL     OW64967  10.825  13.418   4.435
54398SOL    HW164968  10.815  13.358   4.361
54398SOL    HW264969  10.752  13.396   4.493
54399SOL     OW64970   5.243   0.006   0.274
54399SOL    HW164971   5.149   0.019   0.291
54399SOL    HW264972   5.262   0.065   0.201
54400SOL     OW64973  10.158   7.627   5.776
54400SOL    HW164974  10.065   7.640   5.760
54400SOL    HW264975  10.188   7.572   5.703
54401SOL     OW64976   0.789   9.241   7.724
54401SOL    HW164977   0.760   9.152   7.743
54401SOL    HW264978   0.707   9.291   7.713
54402SOL     OW64979   0.182  14.204   2.974
54402SOL    HW164980   0.184  14.145   2.899
54402SOL    HW264981   0.206  14.149   3.049
54403SOL     OW64982   9.051   9.547  11.755
54403SOL    HW164983   9.029   9.454  11.760
54403SOL    HW264984   9.097   9.556  11.672
54404SOL     OW64985   8.271   1.127   9.190
54404SOL    HW164986   8.208   1.057   9.207
54404SOL    HW264987   8.283   1.125   9.095
54405SOL     OW64988   5.754  12.707   3.818
54405SOL    HW164989   5.816  12.780   3.818
54405SOL    HW264990   5.755  12.675   3.727
54406SOL     OW64991   8.733   6.281   1.782
54406SOL    HW164992   8.743   6.186   1.775
54406SOL    HW264993   8.660   6.301   1.723
54407SOL     OW64994   5.741  13.634  13.803
54407SOL    HW164995   5.690  13.700  13.758
54407SOL    HW264996   5.821  13.625  13.750
54408SOL     OW64997  11.369   4.654   5.045
54408SOL    HW164998  11.454   4.669   5.085
54408SOL    HW264999  11.347   4.737   5.002
54409SOL     OW65000   4.962   6.173  11.460
54409SOL    HW165001   4.974   6.254  11.410
54409SOL    HW265002   4.971   6.199  11.551
54410SOL     OW65003   7.365   9.681   6.909
54410SOL    HW165004   7.404   9.761   6.945
54410SOL    HW265005   7.326   9.637   6.984
54411SOL     OW65006   6.158  13.278  14.056
54411SOL    HW165007   6.149  13.255  13.964
54411SOL    HW265008   6.116  13.364  14.063
54412SOL     OW65009  14.247  11.390  14.774
54412SOL    HW165010  14.279  11.479  14.767
54412SOL    HW265011  14.286  11.344  14.699
54413SOL     OW65012  13.019   3.133   2.070
54413SOL    HW165013  12.992   3.225   2.078
54413SOL    HW265014  12.976   3.089   2.143
54414SOL     OW65015   0.199   0.220  13.974
54414SOL    HW165016   0.263   0.182  13.913
54414SOL    HW265017   0.147   0.145  14.003
54415SOL     OW65018  13.578   3.430   9.578
54415SOL    HW165019  13.630   3.508   9.597
54415SOL    HW265020  13.632   3.379   9.518
54416SOL     OW65021   9.165  11.620   1.060
54416SOL    HW165022   9.111  11.557   1.108
54416SOL    HW265023   9.172  11.695   1.119
54417SOL     OW65024   5.669   1.125   8.970
54417SOL    HW165025   5.659   1.116   8.875
54417SOL    HW265026   5.754   1.167   8.982
54418SOL     OW65027   9.217   7.142   6.223
54418SOL    HW165028   9.161   7.210   6.260
54418SOL    HW265029   9.276   7.189   6.164
54419SOL     OW65030  14.712  12.676   1.714
54419SOL    HW165031  14.732  12.588   1.683
54419SOL    HW265032  14.621  12.670   1.744
54420SOL     OW65033   0.058   5.753   8.464
54420SOL    HW165034   0.002   5.677   8.473
54420SOL    HW265035   0.045   5.803   8.545
54421SOL     OW65036   0.141  10.766   5.837
54421SOL    HW165037   0.203  10.784   5.908
54421SOL    HW265038   0.166  10.679   5.805
54422SOL     OW65039   0.088  13.555   2.987
54422SOL    HW165040   0.024  13.617   3.020
54422SOL    HW265041   0.095  13.575   2.894
54423SOL     OW65042   8.135   5.702   9.037
54423SOL    HW165043   8.164   5.794   9.031
54423SOL    HW265044   8.061   5.704   9.098
54424SOL     OW65045   5.124   1.100   3.329
54424SOL    HW165046   5.102   1.090   3.421
54424SOL    HW265047   5.208   1.146   3.329
54425SOL     OW65048  11.537   8.347   9.726
54425SOL    HW165049  11.510   8.282   9.661
54425SOL    HW265050  11.630   8.330   9.740
54426SOL     OW65051   6.223  13.403   1.075
54426SOL    HW165052   6.193  13.376   0.988
54426SOL    HW265053   6.193  13.494   1.082
54427SOL     OW65054   9.228  12.819   9.013
54427SOL    HW165055   9.185  12.894   8.973
54427SOL    HW265056   9.157  12.755   9.026
54428SOL     OW65057   9.653  11.390  10.136
54428SOL    HW165058   9.563  11.422  10.144
54428SOL    HW265059   9.655  11.342  10.054
54429SOL     OW65060   5.391   3.223  12.732
54429SOL    HW165061   5.420   3.178  12.653
54429SOL    HW265062   5.379   3.314  12.706
54430SOL     OW65063  10.307  10.010   5.575
54430SOL    HW165064  10.226  10.043   5.613
54430SOL    HW265065  10.279   9.950   5.506
54431SOL     OW65066  10.904   2.569   1.408
54431SOL    HW165067  10.864   2.484   1.391
54431SOL    HW265068  10.834   2.632   1.391
54432SOL     OW65069   3.684  12.267  12.115
54432SOL    HW165070   3.665  12.332  12.183
54432SOL    HW265071   3.598  12.235  12.088
54433SOL     OW65072   0.688   6.775   1.016
54433SOL    HW165073   0.645   6.845   1.066
54433SOL    HW265074   0.716   6.818   0.935
54434SOL     OW65075   8.074   6.131  13.200
54434SOL    HW165076   8.143   6.139  13.266
54434SOL    HW265077   8.121   6.121  13.117
54435SOL     OW65078   1.423   7.416   0.536
54435SOL    HW165079   1.381   7.492   0.577
54435SOL    HW265080   1.512   7.417   0.570
54436SOL     OW65081  10.934  12.635   5.329
54436SOL    HW165082  10.929  12.551   5.374
54436SOL    HW265083  11.028  12.647   5.312
54437SOL     OW65084   3.327   5.806   4.399
54437SOL    HW165085   3.329   5.747   4.323
54437SOL    HW265086   3.380   5.881   4.372
54438SOL     OW65087  14.532   1.871   3.853
54438SOL    HW165088  14.543   1.961   3.823
54438SOL    HW265089  14.549   1.875   3.948
54439SOL     OW65090   3.063  10.616  14.066
54439SOL    HW165091   3.013  10.596  13.987
54439SOL    HW265092   3.129  10.547  14.072
54440SOL     OW65093  12.776   2.353  10.518
54440SOL    HW165094  12.851   2.312  10.561
54440SOL    HW265095  12.704   2.342  10.580
54441SOL     OW65096   9.892   7.435  12.986
54441SOL    HW165097   9.835   7.458  13.060
54441SOL    HW265098   9.846   7.362  12.943
54442SOL     OW65099   4.380   4.551   6.710
54442SOL    HW165100   4.388   4.486   6.640
54442SOL    HW265101   4.428   4.627   6.678
54443SOL     OW65102   7.526   1.217   0.061
54443SOL    HW165103   7.537   1.274   0.137
54443SOL    HW265104   7.600   1.157   0.066
54444SOL     OW65105   5.742   6.248  14.086
54444SOL    HW165106   5.749   6.325  14.142
54444SOL    HW265107   5.833   6.225  14.065
54445SOL     OW65108  10.676   5.922   0.651
54445SOL    HW165109  10.581   5.935   0.641
54445SOL    HW265110  10.696   5.847   0.596
54446SOL     OW65111   2.839   7.103   8.931
54446SOL    HW165112   2.930   7.107   8.959
54446SOL    HW265113   2.808   7.194   8.939
54447SOL     OW65114   9.245   8.553  12.230
54447SOL    HW165115   9.283   8.467  12.215
54447SOL    HW265116   9.263   8.602  12.149
54448SOL     OW65117   9.713   2.074  10.496
54448SOL    HW165118   9.780   2.017  10.535
54448SOL    HW265119   9.730   2.160  10.534
54449SOL     OW65120  11.293   5.901  13.309
54449SOL    HW165121  11.257   5.941  13.388
54449SOL    HW265122  11.336   5.974  13.264
54450SOL     OW65123   3.977   5.418  10.103
54450SOL    HW165124   4.050   5.476  10.124
54450SOL    HW265125   3.903   5.477  10.088
54451SOL     OW65126   3.510   9.474   2.937
54451SOL    HW165127   3.461   9.538   2.885
54451SOL    HW265128   3.480   9.488   3.027
54452SOL     OW65129   3.857   1.187   9.535
54452SOL    HW165130   3.856   1.115   9.471
54452SOL    HW265131   3.766   1.198   9.561
54453SOL     OW65132   1.255  14.463   7.149
54453SOL    HW165133   1.268  14.400   7.079
54453SOL    HW265134   1.200  14.531   7.110
54454SOL     OW65135  12.628  11.655   7.471
54454SOL    HW165136  12.622  11.647   7.566
54454SOL    HW265137  12.589  11.741   7.451
54455SOL     OW65138  12.494  12.889  10.446
54455SOL    HW165139  12.549  12.852  10.376
54455SOL    HW265140  12.458  12.812  10.491
54456SOL     OW65141  14.302   9.816   0.570
54456SOL    HW165142  14.381   9.856   0.606
54456SOL    HW265143  14.321   9.806   0.477
54457SOL     OW65144   3.894  10.420   8.667
54457SOL    HW165145   3.958  10.353   8.689
54457SOL    HW265146   3.939  10.476   8.604
54458SOL     OW65147   9.986   6.745   1.528
54458SOL    HW165148   9.949   6.780   1.609
54458SOL    HW265149  10.001   6.652   1.547
54459SOL     OW65150   2.054   6.412  11.100
54459SOL    HW165151   1.998   6.478  11.060
54459SOL    HW265152   2.076   6.448  11.186
54460SOL     OW65153   7.953   0.623  13.910
54460SOL    HW165154   7.936   0.688  13.841
54460SOL    HW265155   8.048   0.625  13.921
54461SOL     OW65156   7.332  13.743   9.666
54461SOL    HW165157   7.351  13.653   9.695
54461SOL    HW265158   7.307  13.734   9.575
54462SOL     OW65159   8.917  12.919  10.724
54462SOL    HW165160   8.961  12.863  10.788
54462SOL    HW265161   8.891  12.996  10.774
54463SOL     OW65162  12.793   7.193  12.916
54463SOL    HW165163  12.781   7.288  12.908
54463SOL    HW265164  12.706   7.157  12.896
54464SOL     OW65165   1.715   0.980   9.577
54464SOL    HW165166   1.752   1.033   9.507
54464SOL    HW265167   1.652   1.038   9.620
54465SOL     OW65168   5.202   1.674   5.019
54465SOL    HW165169   5.113   1.660   5.053
54465SOL    HW265170   5.249   1.716   5.090
54466SOL     OW65171   0.146  13.442   9.325
54466SOL    HW165172   0.166  13.427   9.232
54466SOL    HW265173   0.229  13.429   9.370
54467SOL     OW65174   0.728   6.738   3.488
54467SOL    HW165175   0.784   6.668   3.522
54467SOL    HW265176   0.788   6.798   3.445
54468SOL     OW65177  10.970   9.787  12.080
54468SOL    HW165178  10.891   9.796  12.027
54468SOL    HW265179  11.017   9.869  12.067
54469SOL     OW65180  12.529   3.518   1.138
54469SOL    HW165181  12.435   3.524   1.159
54469SOL    HW265182  12.541   3.580   1.066
54470SOL     OW65183  12.675  10.513  12.418
54470SOL    HW165184  12.702  10.485  12.331
54470SOL    HW265185  12.707  10.444  12.476
54471SOL     OW65186  14.455   1.392   7.577
54471SOL    HW165187  14.505   1.434   7.507
54471SOL    HW265188  14.364   1.396   7.547
54472SOL     OW65189   4.816   6.720  14.205
54472SOL    HW165190   4.801   6.634  14.245
54472SOL    HW265191   4.844   6.700  14.116
54473SOL     OW65192   9.926   5.174   7.445
54473SOL    HW165193   9.895   5.122   7.519
54473SOL    HW265194  10.017   5.195   7.466
54474SOL     OW65195   1.815   7.809  10.353
54474SOL    HW165196   1.839   7.739  10.414
54474SOL    HW265197   1.719   7.803  10.347
54475SOL     OW65198   9.322  13.981  11.971
54475SOL    HW165199   9.284  13.947  11.890
54475SOL    HW265200   9.251  14.031  12.011
54476SOL     OW65201  11.942   2.717   3.386
54476SOL    HW165202  11.977   2.783   3.445
54476SOL    HW265203  11.949   2.635   3.435
54477SOL     OW65204  10.113  11.729   2.387
54477SOL    HW165205  10.057  11.729   2.310
54477SOL    HW265206  10.052  11.723   2.461
54478SOL     OW65207   5.839   2.565  13.267
54478SOL    HW165208   5.854   2.518  13.185
54478SOL    HW265209   5.883   2.513  13.334
54479SOL     OW65210  10.855   7.352   1.107
54479SOL    HW165211  10.778   7.386   1.062
54479SOL    HW265212  10.929   7.391   1.060
54480SOL     OW65213  11.367   9.231  10.923
54480SOL    HW165214  11.327   9.298  10.978
54480SOL    HW265215  11.440   9.276  10.880
54481SOL     OW65216  11.364   2.772   3.542
54481SOL    HW165217  11.408   2.831   3.481
54481SOL    HW265218  11.311   2.715   3.486
54482SOL     OW65219   3.132   9.153   9.835
54482SOL    HW165220   3.127   9.062   9.807
54482SOL    HW265221   3.194   9.153   9.908
54483SOL     OW65222   1.511   2.576  11.440
54483SOL    HW165223   1.422   2.609  11.434
54483SOL    HW265224   1.535   2.586  11.532
54484SOL     OW65225   8.617  13.364  11.388
54484SOL    HW165226   8.641  13.443  11.437
54484SOL    HW265227   8.680  13.298  11.417
54485SOL     OW65228  14.454   2.718   8.763
54485SOL    HW165229  14.453   2.792   8.823
54485SOL    HW265230  14.542   2.681   8.772
54486SOL     OW65231   6.703  12.926  13.331
54486SOL    HW165232   6.756  12.852  13.300
54486SOL    HW265233   6.621  12.918  13.283
54487SOL     OW65234   8.750   1.542   5.397
54487SOL    HW165235   8.705   1.476   5.344
54487SOL    HW265236   8.787   1.493   5.470
54488SOL     OW65237   8.763   0.361  11.168
54488SOL    HW165238   8.727   0.286  11.120
54488SOL    HW265239   8.858   0.350  11.162
54489SOL     OW65240  11.066  14.772   6.293
54489SOL    HW165241  11.085  14.745   6.383
54489SOL    HW265242  11.025  14.696   6.253
54490SOL     OW65243  12.059  13.776  11.797
54490SOL    HW165244  12.024  13.832  11.727
54490SOL    HW265245  12.128  13.725  11.754
54491SOL     OW65246   1.776   5.720   8.948
54491SOL    HW165247   1.762   5.723   8.853
54491SOL    HW265248   1.715   5.784   8.984
54492SOL     OW65249  10.636   5.677  14.344
54492SOL    HW165250  10.638   5.657  14.438
54492SOL    HW265251  10.555   5.727  14.332
54493SOL     OW65252   0.552  11.772   0.512
54493SOL    HW165253   0.485  11.724   0.464
54493SOL    HW265254   0.627  11.713   0.514
54494SOL     OW65255   2.062   6.281   7.119
54494SOL    HW165256   1.995   6.276   7.051
54494SOL    HW265257   2.048   6.366   7.161
54495SOL     OW65258   0.666   2.970   9.091
54495SOL    HW165259   0.704   2.931   9.013
54495SOL    HW265260   0.698   2.917   9.164
54496SOL     OW65261   6.488   1.469  14.269
54496SOL    HW165262   6.405   1.495  14.307
54496SOL    HW265263   6.467   1.444  14.179
54497SOL     OW65264  11.220  14.436   1.554
54497SOL    HW165265  11.243  14.440   1.461
54497SOL    HW265266  11.276  14.501   1.596
54498SOL     OW65267   5.707   5.560   5.774
54498SOL    HW165268   5.755   5.602   5.845
54498SOL    HW265269   5.721   5.617   5.698
54499SOL     OW65270  14.585  13.792   0.830
54499SOL    HW165271  14.670  13.750   0.820
54499SOL    HW265272  14.528  13.746   0.769
54500SOL     OW65273  11.872   5.219   0.635
54500SOL    HW165274  11.948   5.161   0.633
54500SOL    HW265275  11.874   5.264   0.551
54501SOL     OW65276   2.863   2.029   2.888
54501SOL    HW165277   2.919   2.102   2.916
54501SOL    HW265278   2.814   2.065   2.814
54502SOL     OW65279   2.093   2.187   4.032
54502SOL    HW165280   2.009   2.143   4.024
54502SOL    HW265281   2.121   2.167   4.122
54503SOL     OW65282  10.951   3.244  13.484
54503SOL    HW165283  10.985   3.294  13.559
54503SOL    HW265284  10.975   3.153  13.503
54504SOL     OW65285  13.843   9.572  13.309
54504SOL    HW165286  13.935   9.548  13.298
54504SOL    HW265287  13.819   9.616  13.228
54505SOL     OW65288  13.601   5.975   3.968
54505SOL    HW165289  13.532   5.920   4.004
54505SOL    HW265290  13.602   6.053   4.023
54506SOL     OW65291   7.151   8.716  10.829
54506SOL    HW165292   7.155   8.646  10.765
54506SOL    HW265293   7.219   8.777  10.802
54507SOL     OW65294   0.632   6.783   1.775
54507SOL    HW165295   0.602   6.717   1.712
54507SOL    HW265296   0.598   6.753   1.859
54508SOL     OW65297  10.490  13.152  10.295
54508SOL    HW165298  10.549  13.191  10.359
54508SOL    HW265299  10.430  13.223  10.271
54509SOL     OW65300   0.267   3.750  13.157
54509SOL    HW165301   0.232   3.685  13.218
54509SOL    HW265302   0.191   3.779  13.107
54510SOL     OW65303  14.556   8.591   0.832
54510SOL    HW165304  14.634   8.548   0.867
54510SOL    HW265305  14.535   8.542   0.753
54511SOL     OW65306  10.433   0.585   9.863
54511SOL    HW165307  10.513   0.609   9.816
54511SOL    HW265308  10.387   0.524   9.805
54512SOL     OW65309   8.559  14.710  10.288
54512SOL    HW165310   8.512  14.666  10.217
54512SOL    HW265311   8.490  14.748  10.343
54513SOL     OW65312   0.381  11.722  11.396
54513SOL    HW165313   0.376  11.734  11.301
54513SOL    HW265314   0.384  11.811  11.432
54514SOL     OW65315   0.029  10.666  13.976
54514SOL    HW165316  14.875  10.596  14.034
54514SOL    HW265317   0.077  10.725  14.034
54515SOL     OW65318  12.081   3.479   3.545
54515SOL    HW165319  12.110   3.395   3.511
54515SOL    HW265320  11.985   3.474   3.543
54516SOL     OW65321   9.151   4.990   0.549
54516SOL    HW165322   9.100   5.064   0.582
54516SOL    HW265323   9.191   5.023   0.469
54517SOL     OW65324   4.217  10.328   2.249
54517SOL    HW165325   4.173  10.319   2.164
54517SOL    HW265326   4.163  10.390   2.297
54518SOL     OW65327  11.444   0.534   8.514
54518SOL    HW165328  11.466   0.482   8.436
54518SOL    HW265329  11.460   0.475   8.587
54519SOL     OW65330   3.338   1.183   0.280
54519SOL    HW165331   3.331   1.092   0.250
54519SOL    HW265332   3.291   1.234   0.214
54520SOL     OW65333   9.525   3.449   9.975
54520SOL    HW165334   9.466   3.477  10.044
54520SOL    HW265335   9.471   3.396   9.916
54521SOL     OW65336   7.481   3.506   7.280
54521SOL    HW165337   7.420   3.568   7.240
54521SOL    HW265338   7.535   3.475   7.207
54522SOL     OW65339  10.411   9.225   9.817
54522SOL    HW165340  10.496   9.268   9.809
54522SOL    HW265341  10.356   9.267   9.752
54523SOL     OW65342   9.278  10.456   6.835
54523SOL    HW165343   9.258  10.404   6.757
54523SOL    HW265344   9.218  10.424   6.902
54524SOL     OW65345   6.429   3.204   8.068
54524SOL    HW165346   6.338   3.231   8.086
54524SOL    HW265347   6.479   3.237   8.142
54525SOL     OW65348   9.655   1.118   9.713
54525SOL    HW165349   9.668   1.211   9.697
54525SOL    HW265350   9.734   1.076   9.677
54526SOL     OW65351   9.126   6.356   6.563
54526SOL    HW165352   9.090   6.428   6.615
54526SOL    HW265353   9.068   6.350   6.487
54527SOL     OW65354   4.143   6.429   6.908
54527SOL    HW165355   4.195   6.437   6.988
54527SOL    HW265356   4.202   6.459   6.838
54528SOL     OW65357   8.095   8.953   4.681
54528SOL    HW165358   8.122   8.861   4.674
54528SOL    HW265359   8.176   9.001   4.698
54529SOL     OW65360  10.719  10.192   2.531
54529SOL    HW165361  10.742  10.112   2.578
54529SOL    HW265362  10.796  10.211   2.477
54530SOL     OW65363   4.447  13.918   7.034
54530SOL    HW165364   4.514  13.975   6.995
54530SOL    HW265365   4.496  13.864   7.096
54531SOL     OW65366  14.237   5.926   3.927
54531SOL    HW165367  14.295   5.859   3.962
54531SOL    HW265368  14.269   5.942   3.838
54532SOL     OW65369  11.885   0.355   9.514
54532SOL    HW165370  11.816   0.375   9.451
54532SOL    HW265371  11.840   0.315   9.588
54533SOL     OW65372   0.634   3.051  12.581
54533SOL    HW165373   0.569   3.040  12.512
54533SOL    HW265374   0.659   3.143  12.576
54534SOL     OW65375   9.912   6.849  13.838
54534SOL    HW165376   9.891   6.839  13.931
54534SOL    HW265377   9.903   6.943  13.821
54535SOL     OW65378  12.456   4.521   2.719
54535SOL    HW165379  12.528   4.528   2.781
54535SOL    HW265380  12.418   4.609   2.716
54536SOL     OW65381  13.690   9.120  12.814
54536SOL    HW165382  13.624   9.053  12.792
54536SOL    HW265383  13.741   9.081  12.885
54537SOL     OW65384   1.328   2.134  12.399
54537SOL    HW165385   1.317   2.216  12.352
54537SOL    HW265386   1.264   2.075  12.360
54538SOL     OW65387  10.574   6.681   8.046
54538SOL    HW165388  10.653   6.634   8.072
54538SOL    HW265389  10.529   6.702   8.128
54539SOL     OW65390   0.934   3.617   1.816
54539SOL    HW165391   1.022   3.637   1.783
54539SOL    HW265392   0.897   3.557   1.752
54540SOL     OW65393   8.749  12.570   6.383
54540SOL    HW165394   8.661  12.550   6.350
54540SOL    HW265395   8.748  12.539   6.474
54541SOL     OW65396  11.085   1.131   9.393
54541SOL    HW165397  11.137   1.128   9.312
54541SOL    HW265398  11.147   1.106   9.462
54542SOL     OW65399   6.900   7.919   1.567
54542SOL    HW165400   6.938   7.835   1.542
54542SOL    HW265401   6.848   7.900   1.645
54543SOL     OW65402   4.775  11.668   6.959
54543SOL    HW165403   4.796  11.753   6.998
54543SOL    HW265404   4.706  11.632   7.014
54544SOL     OW65405   0.931  14.044   4.466
54544SOL    HW165406   0.934  14.001   4.551
54544SOL    HW265407   0.847  14.090   4.466
54545SOL     OW65408   1.595  13.701   7.365
54545SOL    HW165409   1.596  13.655   7.281
54545SOL    HW265410   1.646  13.781   7.349
54546SOL     OW65411  13.382  14.133   6.097
54546SOL    HW165412  13.311  14.077   6.127
54546SOL    HW265413  13.461  14.079   6.105
54547SOL     OW65414   9.991   9.610   3.011
54547SOL    HW165415  10.031   9.696   2.997
54547SOL    HW265416   9.952   9.587   2.927
54548SOL     OW65417   0.521  11.664   6.401
54548SOL    HW165418   0.504  11.578   6.439
54548SOL    HW265419   0.589  11.702   6.456
54549SOL     OW65420  12.583   9.386  13.203
54549SOL    HW165421  12.663   9.348  13.239
54549SOL    HW265422  12.604   9.479  13.190
54550SOL     OW65423   6.413   1.373   7.627
54550SOL    HW165424   6.406   1.468   7.619
54550SOL    HW265425   6.348   1.350   7.694
54551SOL     OW65426   5.927   3.223   7.189
54551SOL    HW165427   5.858   3.289   7.196
54551SOL    HW265428   5.978   3.233   7.269
54552SOL     OW65429   4.357   6.200   7.093
54552SOL    HW165430   4.393   6.135   7.153
54552SOL    HW265431   4.371   6.163   7.006
54553SOL     OW65432   6.385   9.009   4.553
54553SOL    HW165433   6.407   9.034   4.643
54553SOL    HW265434   6.360   9.092   4.511
54554SOL     OW65435   3.486   7.619   8.819
54554SOL    HW165436   3.519   7.615   8.729
54554SOL    HW265437   3.409   7.676   8.815
54555SOL     OW65438   6.050   3.393   0.885
54555SOL    HW165439   6.063   3.417   0.977
54555SOL    HW265440   6.078   3.470   0.836
54556SOL     OW65441   8.350  13.848   9.037
54556SOL    HW165442   8.276  13.789   9.022
54556SOL    HW265443   8.421  13.809   8.986
54557SOL     OW65444  13.585   6.146   6.901
54557SOL    HW165445  13.635   6.220   6.868
54557SOL    HW265446  13.495   6.162   6.871
54558SOL     OW65447   5.290  14.243   4.482
54558SOL    HW165448   5.360  14.241   4.548
54558SOL    HW265449   5.270  14.336   4.472
54559SOL     OW65450   1.448  13.423  10.249
54559SOL    HW165451   1.389  13.355  10.280
54559SOL    HW265452   1.421  13.502  10.296
54560SOL     OW65453   1.364   5.101   8.848
54560SOL    HW165454   1.288   5.095   8.790
54560SOL    HW265455   1.363   5.018   8.897
54561SOL     OW65456  13.924   6.655   6.935
54561SOL    HW165457  13.962   6.742   6.929
54561SOL    HW265458  13.987   6.598   6.891
54562SOL     OW65459   8.561  10.872  12.665
54562SOL    HW165460   8.652  10.878  12.694
54562SOL    HW265461   8.559  10.799  12.604
54563SOL     OW65462   6.978  12.838   5.197
54563SOL    HW165463   6.958  12.751   5.230
54563SOL    HW265464   7.073  12.847   5.209
54564SOL     OW65465  10.114   1.338  13.000
54564SOL    HW165466  10.144   1.343  13.091
54564SOL    HW265467  10.022   1.367  13.003
54565SOL     OW65468  11.077  12.237   1.185
54565SOL    HW165469  11.016  12.250   1.257
54565SOL    HW265470  11.148  12.299   1.202
54566SOL     OW65471   3.742  12.664  14.051
54566SOL    HW165472   3.713  12.616  14.129
54566SOL    HW265473   3.731  12.756  14.074
54567SOL     OW65474   5.013   5.892   9.963
54567SOL    HW165475   5.082   5.856  10.020
54567SOL    HW265476   4.979   5.967  10.012
54568SOL     OW65477   8.646   3.945  12.004
54568SOL    HW165478   8.695   3.873  11.963
54568SOL    HW265479   8.699   3.969  12.080
54569SOL     OW65480   2.480   7.997   8.653
54569SOL    HW165481   2.574   7.996   8.638
54569SOL    HW265482   2.469   8.029   8.742
54570SOL     OW65483  13.280   0.474   7.326
54570SOL    HW165484  13.359   0.423   7.308
54570SOL    HW265485  13.259   0.453   7.418
54571SOL     OW65486   6.428   2.484   6.301
54571SOL    HW165487   6.479   2.564   6.292
54571SOL    HW265488   6.490   2.420   6.336
54572SOL     OW65489  10.947  11.484  10.477
54572SOL    HW165490  10.960  11.436  10.395
54572SOL    HW265491  10.862  11.454  10.509
54573SOL     OW65492   7.638   6.606   3.018
54573SOL    HW165493   7.711   6.667   3.033
54573SOL    HW265494   7.567   6.642   3.071
54574SOL     OW65495   5.460   5.553  13.619
54574SOL    HW165496   5.481   5.646  13.623
54574SOL    HW265497   5.427   5.539  13.530
54575SOL     OW65498   3.719   8.392  12.870
54575SOL    HW165499   3.729   8.364  12.960
54575SOL    HW265500   3.661   8.327  12.831
54576SOL     OW65501   2.735   9.113   3.771
54576SOL    HW165502   2.819   9.099   3.815
54576SOL    HW265503   2.675   9.138   3.842
54577SOL     OW65504   9.830   9.241   2.825
54577SOL    HW165505   9.756   9.208   2.877
54577SOL    HW265506   9.793   9.315   2.776
54578SOL     OW65507   0.426   7.805   9.702
54578SOL    HW165508   0.344   7.816   9.654
54578SOL    HW265509   0.452   7.715   9.686
54579SOL     OW65510   0.765   5.698   0.642
54579SOL    HW165511   0.799   5.609   0.649
54579SOL    HW265512   0.783   5.724   0.551
54580SOL     OW65513   1.136   1.450  10.994
54580SOL    HW165514   1.226   1.468  10.965
54580SOL    HW265515   1.117   1.364  10.957
54581SOL     OW65516  11.174   5.974   5.164
54581SOL    HW165517  11.207   6.042   5.223
54581SOL    HW265518  11.096   5.940   5.207
54582SOL     OW65519  10.405   9.257   8.119
54582SOL    HW165520  10.433   9.173   8.084
54582SOL    HW265521  10.465   9.321   8.080
54583SOL     OW65522   1.370  12.265   2.860
54583SOL    HW165523   1.303  12.332   2.878
54583SOL    HW265524   1.401  12.239   2.947
54584SOL     OW65525   7.005   2.396   9.154
54584SOL    HW165526   6.986   2.308   9.123
54584SOL    HW265527   6.957   2.454   9.094
54585SOL     OW65528   2.572   9.388   0.449
54585SOL    HW165529   2.539   9.348   0.529
54585SOL    HW265530   2.667   9.397   0.463
54586SOL     OW65531   9.767   6.511   9.041
54586SOL    HW165532   9.674   6.492   9.024
54586SOL    HW265533   9.779   6.489   9.134
54587SOL     OW65534   8.577   4.853   7.695
54587SOL    HW165535   8.622   4.937   7.698
54587SOL    HW265536   8.497   4.867   7.746
54588SOL     OW65537   8.499   7.154   7.078
54588SOL    HW165538   8.557   7.155   7.003
54588SOL    HW265539   8.542   7.095   7.141
54589SOL     OW65540  14.560   1.935  13.878
54589SOL    HW165541  14.588   1.855  13.922
54589SOL    HW265542  14.563   2.003  13.946
54590SOL     OW65543  12.114   1.077   3.207
54590SOL    HW165544  12.113   1.108   3.116
54590SOL    HW265545  12.037   1.118   3.247
54591SOL     OW65546   2.788   3.638  14.077
54591SOL    HW165547   2.855   3.570  14.081
54591SOL    HW265548   2.713   3.595  14.035
54592SOL     OW65549   3.433   9.865   8.857
54592SOL    HW165550   3.528   9.868   8.861
54592SOL    HW265551   3.406   9.956   8.854
54593SOL     OW65552   8.480   6.935   3.784
54593SOL    HW165553   8.465   6.934   3.878
54593SOL    HW265554   8.571   6.908   3.772
54594SOL     OW65555   0.961  14.809   3.609
54594SOL    HW165556   0.891  14.772   3.663
54594SOL    HW265557   1.021  14.736   3.594
54595SOL     OW65558  13.690   6.443   0.877
54595SOL    HW165559  13.666   6.450   0.969
54595SOL    HW265560  13.702   6.350   0.862
54596SOL     OW65561   4.414  13.887   0.795
54596SOL    HW165562   4.320  13.873   0.800
54596SOL    HW265563   4.452  13.800   0.805
54597SOL     OW65564   1.296   1.269   8.104
54597SOL    HW165565   1.242   1.196   8.072
54597SOL    HW265566   1.385   1.245   8.080
54598SOL     OW65567   6.507   9.450   1.345
54598SOL    HW165568   6.555   9.517   1.393
54598SOL    HW265569   6.473   9.496   1.268
54599SOL     OW65570   6.722   3.559   8.346
54599SOL    HW165571   6.787   3.594   8.407
54599SOL    HW265572   6.710   3.629   8.281
54600SOL     OW65573   5.383   9.419   8.452
54600SOL    HW165574   5.291   9.445   8.447
54600SOL    HW265575   5.416   9.430   8.363
54601SOL     OW65576   0.140   2.702  13.068
54601SOL    HW165577   0.178   2.636  13.009
54601SOL    HW265578   0.198   2.778  13.058
54602SOL     OW65579   9.685   0.355   0.699
54602SOL    HW165580   9.778   0.349   0.678
54602SOL    HW265581   9.644   0.283   0.651
54603SOL     OW65582  12.469  12.521   4.057
54603SOL    HW165583  12.396  12.483   4.106
54603SOL    HW265584  12.498  12.451   3.999
54604SOL     OW65585   3.387  12.369   6.843
54604SOL    HW165586   3.470  12.341   6.883
54604SOL    HW265587   3.342  12.417   6.912
54605SOL     OW65588   8.648   6.151   9.869
54605SOL    HW165589   8.621   6.104   9.948
54605SOL    HW265590   8.742   6.164   9.880
54606SOL     OW65591  12.520  11.797   7.848
54606SOL    HW165592  12.523  11.720   7.906
54606SOL    HW265593  12.454  11.854   7.888
54607SOL     OW65594   4.982   6.975  10.840
54607SOL    HW165595   4.995   7.039  10.770
54607SOL    HW265596   4.996   7.024  10.921
54608SOL     OW65597   1.532   3.334   4.243
54608SOL    HW165598   1.605   3.287   4.282
54608SOL    HW265599   1.456   3.279   4.261
54609SOL     OW65600   8.735  12.069   2.745
54609SOL    HW165601   8.684  11.995   2.713
54609SOL    HW265602   8.724  12.137   2.678
54610SOL     OW65603   2.251   8.306   8.769
54610SOL    HW165604   2.242   8.230   8.712
54610SOL    HW265605   2.162   8.333   8.788
54611SOL     OW65606   6.090   1.409   1.670
54611SOL    HW165607   6.171   1.458   1.659
54611SOL    HW265608   6.095   1.373   1.758
54612SOL     OW65609   1.046   9.280   1.406
54612SOL    HW165610   1.138   9.281   1.430
54612SOL    HW265611   1.043   9.321   1.320
54613SOL     OW65612  14.002   3.708   5.115
54613SOL    HW165613  14.089   3.745   5.125
54613SOL    HW265614  13.949   3.753   5.182
54614SOL     OW65615   7.559   2.507  11.492
54614SOL    HW165616   7.580   2.586  11.442
54614SOL    HW265617   7.562   2.535  11.584
54615SOL     OW65618   1.572   2.069   6.803
54615SOL    HW165619   1.582   2.146   6.860
54615SOL    HW265620   1.636   2.083   6.733
54616SOL     OW65621   3.639  12.172   6.725
54616SOL    HW165622   3.557  12.141   6.685
54616SOL    HW265623   3.638  12.133   6.812
54617SOL     OW65624   3.151  12.880   1.698
54617SOL    HW165625   3.064  12.866   1.735
54617SOL    HW265626   3.136  12.936   1.622
54618SOL     OW65627   4.315   9.528   1.595
54618SOL    HW165628   4.371   9.505   1.669
54618SOL    HW265629   4.260   9.452   1.581
54619SOL     OW65630  11.037  13.377  14.048
54619SOL    HW165631  11.114  13.429  14.028
54619SOL    HW265632  10.992  13.368  13.965
54620SOL     OW65633   2.696   7.124   7.632
54620SOL    HW165634   2.650   7.044   7.606
54620SOL    HW265635   2.681   7.130   7.726
54621SOL     OW65636   3.517   5.990   6.896
54621SOL    HW165637   3.564   5.992   6.980
54621SOL    HW265638   3.433   5.949   6.917
54622SOL     OW65639   8.975  11.060   7.011
54622SOL    HW165640   9.071  11.054   7.008
54622SOL    HW265641   8.948  11.052   6.920
54623SOL     OW65642   0.610   8.243  14.614
54623SOL    HW165643   0.594   8.307  14.684
54623SOL    HW265644   0.538   8.180  14.623
54624SOL     OW65645   7.053  13.679  11.233
54624SOL    HW165646   6.971  13.654  11.190
54624SOL    HW265647   7.030  13.754  11.287
54625SOL     OW65648  14.568  14.760   3.027
54625SOL    HW165649  14.567  14.853   3.052
54625SOL    HW265650  14.554  14.760   2.933
54626SOL     OW65651   7.944   8.928   6.894
54626SOL    HW165652   7.954   8.841   6.856
54626SOL    HW265653   7.861   8.961   6.860
54627SOL     OW65654  12.702   1.060   9.625
54627SOL    HW165655  12.656   1.000   9.567
54627SOL    HW265656  12.787   1.019   9.639
54628SOL     OW65657   3.530   8.490   0.378
54628SOL    HW165658   3.465   8.435   0.422
54628SOL    HW265659   3.614   8.450   0.399
54629SOL     OW65660   1.413  12.326   3.382
54629SOL    HW165661   1.353  12.305   3.454
54629SOL    HW265662   1.492  12.277   3.402
54630SOL     OW65663   1.845   4.740   3.758
54630SOL    HW165664   1.775   4.721   3.697
54630SOL    HW265665   1.901   4.662   3.756
54631SOL     OW65666   5.175  13.449   3.998
54631SOL    HW165667   5.086  13.419   3.977
54631SOL    HW265668   5.163  13.509   4.071
54632SOL     OW65669   6.353   3.706   0.297
54632SOL    HW165670   6.365   3.763   0.372
54632SOL    HW265671   6.327   3.622   0.334
54633SOL     OW65672   5.510   8.202   1.277
54633SOL    HW165673   5.449   8.157   1.335
54633SOL    HW265674   5.507   8.293   1.305
54634SOL     OW65675   0.559   3.604   5.623
54634SOL    HW165676   0.552   3.545   5.548
54634SOL    HW265677   0.548   3.692   5.586
54635SOL     OW65678   7.029   3.457   9.266
54635SOL    HW165679   7.123   3.442   9.263
54635SOL    HW265680   6.997   3.428   9.180
54636SOL     OW65681  10.453  14.432  14.178
54636SOL    HW165682  10.412  14.347  14.192
54636SOL    HW265683  10.533  14.412  14.130
54637SOL     OW65684  12.189  12.745   1.833
54637SOL    HW165685  12.193  12.785   1.747
54637SOL    HW265686  12.114  12.786   1.876
54638SOL     OW65687  12.674   9.781   7.750
54638SOL    HW165688  12.763   9.788   7.715
54638SOL    HW265689  12.617   9.791   7.674
54639SOL     OW65690  13.827   4.955   3.485
54639SOL    HW165691  13.740   4.936   3.519
54639SOL    HW265692  13.814   5.032   3.429
54640SOL     OW65693   0.073   1.999   8.191
54640SOL    HW165694   0.099   1.913   8.225
54640SOL    HW265695   0.107   2.061   8.255
54641SOL     OW65696   1.828  11.023   3.090
54641SOL    HW165697   1.900  11.057   3.142
54641SOL    HW265698   1.869  10.986   3.012
54642SOL     OW65699   4.226   7.939   7.186
54642SOL    HW165700   4.197   8.030   7.178
54642SOL    HW265701   4.320   7.942   7.169
54643SOL     OW65702   4.880   9.954   4.380
54643SOL    HW165703   4.876   9.973   4.287
54643SOL    HW265704   4.790   9.965   4.411
54644SOL     OW65705   9.600  11.184  10.488
54644SOL    HW165706   9.686  11.224  10.495
54644SOL    HW265707   9.578  11.190  10.395
54645SOL     OW65708  10.069  13.255   2.236
54645SOL    HW165709  10.105  13.341   2.258
54645SOL    HW265710  10.001  13.274   2.171
54646SOL     OW65711  12.523  12.415   8.124
54646SOL    HW165712  12.465  12.365   8.067
54646SOL    HW265713  12.559  12.483   8.067
54647SOL     OW65714   3.345   7.968   5.895
54647SOL    HW165715   3.371   7.964   5.802
54647SOL    HW265716   3.302   7.884   5.911
54648SOL     OW65717   8.375   3.295   3.677
54648SOL    HW165718   8.407   3.358   3.740
54648SOL    HW265719   8.312   3.242   3.726
54649SOL     OW65720  10.648  13.557   4.053
54649SOL    HW165721  10.647  13.605   4.136
54649SOL    HW265722  10.709  13.485   4.068
54650SOL     OW65723   2.475  13.210   4.245
54650SOL    HW165724   2.390  13.194   4.286
54650SOL    HW265725   2.459  13.283   4.184
54651SOL     OW65726   6.440   1.969   6.286
54651SOL    HW165727   6.414   2.024   6.359
54651SOL    HW265728   6.487   2.027   6.226
54652SOL     OW65729   0.186  12.684   1.925
54652SOL    HW165730   0.130  12.607   1.934
54652SOL    HW265731   0.229  12.691   2.011
54653SOL     OW65732  13.953  12.891   2.354
54653SOL    HW165733  13.860  12.881   2.375
54653SOL    HW265734  13.994  12.913   2.437
54654SOL     OW65735   6.588   0.869   0.170
54654SOL    HW165736   6.618   0.857   0.080
54654SOL    HW265737   6.496   0.895   0.162
54655SOL     OW65738  13.350   5.271   6.404
54655SOL    HW165739  13.344   5.233   6.316
54655SOL    HW265740  13.259   5.291   6.428
54656SOL     OW65741  10.175   8.180   2.853
54656SOL    HW165742  10.081   8.169   2.841
54656SOL    HW265743  10.183   8.244   2.924
54657SOL     OW65744   0.389   3.325   0.150
54657SOL    HW165745   0.312   3.376   0.123
54657SOL    HW265746   0.429   3.297   0.067
54658SOL     OW65747   1.939   7.671   7.518
54658SOL    HW165748   1.963   7.632   7.435
54658SOL    HW265749   1.886   7.747   7.494
54659SOL     OW65750   1.862  12.608   1.170
54659SOL    HW165751   1.770  12.634   1.170
54659SOL    HW265752   1.901  12.657   1.098
54660SOL     OW65753   4.125   8.741   1.579
54660SOL    HW165754   4.111   8.809   1.644
54660SOL    HW265755   4.183   8.781   1.514
54661SOL     OW65756  11.084   4.116   2.433
54661SOL    HW165757  11.029   4.195   2.436
54661SOL    HW265758  11.171   4.149   2.412
54662SOL     OW65759   7.057   0.947   1.760
54662SOL    HW165760   7.026   0.873   1.813
54662SOL    HW265761   7.132   0.912   1.712
54663SOL     OW65762   5.700  12.867  10.128
54663SOL    HW165763   5.793  12.848  10.112
54663SOL    HW265764   5.658  12.852  10.043
54664SOL     OW65765  11.022  12.047   6.240
54664SOL    HW165766  11.004  12.097   6.160
54664SOL    HW265767  11.110  12.073   6.265
54665SOL     OW65768   5.799  11.594   7.584
54665SOL    HW165769   5.859  11.557   7.649
54665SOL    HW265770   5.750  11.519   7.552
54666SOL     OW65771   5.777   9.848  10.264
54666SOL    HW165772   5.708   9.790  10.231
54666SOL    HW265773   5.821   9.796  10.332
54667SOL     OW65774  10.959   8.137  10.711
54667SOL    HW165775  10.991   8.111  10.625
54667SOL    HW265776  10.875   8.179  10.694
54668SOL     OW65777  10.507   1.520   7.568
54668SOL    HW165778  10.549   1.550   7.649
54668SOL    HW265779  10.490   1.601   7.519
54669SOL     OW65780   9.992   3.848   7.776
54669SOL    HW165781  10.078   3.805   7.783
54669SOL    HW265782   9.975   3.851   7.682
54670SOL     OW65783  10.279  10.307  13.997
54670SOL    HW165784  10.283  10.226  14.049
54670SOL    HW265785  10.229  10.282  13.919
54671SOL     OW65786  10.142   6.385  10.698
54671SOL    HW165787  10.170   6.451  10.635
54671SOL    HW265788  10.048   6.374  10.681
54672SOL     OW65789  13.538   5.330   1.771
54672SOL    HW165790  13.607   5.297   1.714
54672SOL    HW265791  13.554   5.287   1.855
54673SOL     OW65792   0.113   8.815   8.845
54673SOL    HW165793   0.021   8.788   8.847
54673SOL    HW265794   0.158   8.751   8.901
54674SOL     OW65795   3.685   4.439   2.699
54674SOL    HW165796   3.780   4.449   2.697
54674SOL    HW265797   3.668   4.361   2.647
54675SOL     OW65798   5.727  13.948   4.583
54675SOL    HW165799   5.710  13.860   4.548
54675SOL    HW265800   5.642  13.991   4.579
54676SOL     OW65801   5.444   5.104   1.718
54676SOL    HW165802   5.449   5.186   1.669
54676SOL    HW265803   5.435   5.037   1.651
54677SOL     OW65804   9.736   9.462   1.011
54677SOL    HW165805   9.749   9.370   1.033
54677SOL    HW265806   9.644   9.479   1.034
54678SOL     OW65807   0.338   3.384  12.385
54678SOL    HW165808   0.300   3.395  12.298
54678SOL    HW265809   0.376   3.469  12.405
54679SOL     OW65810   3.785   7.686   0.120
54679SOL    HW165811   3.715   7.629   0.154
54679SOL    HW265812   3.805   7.650   0.034
54680SOL     OW65813   3.951  10.448   2.987
54680SOL    HW165814   3.896  10.425   2.912
54680SOL    HW265815   4.040  10.442   2.954
54681SOL     OW65816  14.338   5.570  14.501
54681SOL    HW165817  14.421   5.588  14.546
54681SOL    HW265818  14.341   5.624  14.423
54682SOL     OW65819  10.345   6.285  12.778
54682SOL    HW165820  10.335   6.380  12.785
54682SOL    HW265821  10.423   6.272  12.725
54683SOL     OW65822  12.623  14.756  12.052
54683SOL    HW165823  12.552  14.783  11.994
54683SOL    HW265824  12.657  14.676  12.012
54684SOL     OW65825   0.321  13.288   7.983
54684SOL    HW165826   0.270  13.241   7.917
54684SOL    HW265827   0.292  13.379   7.976
54685SOL     OW65828   3.834  13.701   3.600
54685SOL    HW165829   3.927  13.686   3.618
54685SOL    HW265830   3.804  13.618   3.563
54686SOL     OW65831  14.703   2.458   0.770
54686SOL    HW165832  14.722   2.466   0.677
54686SOL    HW265833  14.788   2.466   0.813
54687SOL     OW65834  13.250  13.729  11.496
54687SOL    HW165835  13.256  13.651  11.441
54687SOL    HW265836  13.315  13.715  11.565
54688SOL     OW65837   0.889  11.011   2.814
54688SOL    HW165838   0.925  10.926   2.788
54688SOL    HW265839   0.853  11.048   2.734
54689SOL     OW65840   1.976  10.843   7.089
54689SOL    HW165841   1.932  10.763   7.118
54689SOL    HW265842   1.907  10.896   7.050
54690SOL     OW65843   6.861   6.019   0.131
54690SOL    HW165844   6.899   6.013   0.043
54690SOL    HW265845   6.914   5.960   0.184
54691SOL     OW65846   0.904   4.158   8.850
54691SOL    HW165847   0.852   4.171   8.771
54691SOL    HW265848   0.840   4.153   8.921
54692SOL     OW65849   2.674   9.512   0.747
54692SOL    HW165850   2.671   9.431   0.696
54692SOL    HW265851   2.616   9.496   0.821
54693SOL     OW65852   1.957  11.933  12.932
54693SOL    HW165853   1.887  11.997  12.915
54693SOL    HW265854   1.922  11.850  12.899
54694SOL     OW65855  10.062   9.018   7.449
54694SOL    HW165856   9.996   8.966   7.494
54694SOL    HW265857  10.142   9.005   7.500
54695SOL     OW65858   7.366   8.865   2.269
54695SOL    HW165859   7.320   8.796   2.317
54695SOL    HW265860   7.420   8.818   2.205
54696SOL     OW65861   3.394  10.241  11.401
54696SOL    HW165862   3.315  10.226  11.453
54696SOL    HW265863   3.430  10.323  11.434
54697SOL     OW65864  13.968   2.672   2.979
54697SOL    HW165865  13.995   2.585   3.011
54697SOL    HW265866  13.880   2.684   3.015
54698SOL     OW65867   7.242   1.515   2.735
54698SOL    HW165868   7.193   1.469   2.802
54698SOL    HW265869   7.290   1.583   2.782
54699SOL     OW65870   9.701   1.756   3.029
54699SOL    HW165871   9.737   1.671   3.004
54699SOL    HW265872   9.767   1.794   3.087
54700SOL     OW65873   0.972   6.078  12.639
54700SOL    HW165874   0.890   6.049  12.680
54700SOL    HW265875   1.041   6.031  12.686
54701SOL     OW65876   1.270   6.258   5.763
54701SOL    HW165877   1.315   6.316   5.824
54701SOL    HW265878   1.232   6.190   5.818
54702SOL     OW65879  10.469   6.226   9.280
54702SOL    HW165880  10.377   6.204   9.263
54702SOL    HW265881  10.517   6.149   9.252
54703SOL     OW65882   4.446   5.279   8.237
54703SOL    HW165883   4.485   5.327   8.310
54703SOL    HW265884   4.520   5.233   8.197
54704SOL     OW65885   8.489   1.499   6.642
54704SOL    HW165886   8.499   1.454   6.558
54704SOL    HW265887   8.400   1.479   6.669
54705SOL     OW65888   7.846   7.427   5.550
54705SOL    HW165889   7.907   7.383   5.609
54705SOL    HW265890   7.866   7.392   5.464
54706SOL     OW65891   6.721   1.934  14.571
54706SOL    HW165892   6.795   1.966  14.624
54706SOL    HW265893   6.660   1.897  14.635
54707SOL     OW65894  14.652  10.676   9.485
54707SOL    HW165895  14.638  10.757   9.534
54707SOL    HW265896  14.641  10.606   9.550
54708SOL     OW65897   4.195   1.419   2.755
54708SOL    HW165898   4.257   1.351   2.728
54708SOL    HW265899   4.140   1.433   2.678
54709SOL     OW65900  12.872   5.684  10.215
54709SOL    HW165901  12.815   5.756  10.242
54709SOL    HW265902  12.943   5.685  10.279
54710SOL     OW65903   2.773  10.597   4.925
54710SOL    HW165904   2.755  10.679   4.970
54710SOL    HW265905   2.824  10.622   4.848
54711SOL     OW65906   6.830  13.759  14.456
54711SOL    HW165907   6.911  13.809  14.468
54711SOL    HW265908   6.764  13.825  14.434
54712SOL     OW65909  10.846   5.717   4.635
54712SOL    HW165910  10.776   5.739   4.697
54712SOL    HW265911  10.890   5.799   4.617
54713SOL     OW65912  10.314  10.564  11.646
54713SOL    HW165913  10.359  10.589  11.727
54713SOL    HW265914  10.294  10.471  11.656
54714SOL     OW65915   3.246   0.955   3.823
54714SOL    HW165916   3.312   1.025   3.827
54714SOL    HW265917   3.289   0.879   3.863
54715SOL     OW65918   0.977   6.755   4.503
54715SOL    HW165919   0.922   6.735   4.580
54715SOL    HW265920   1.041   6.818   4.535
54716SOL     OW65921   3.746   6.280   3.723
54716SOL    HW165922   3.713   6.249   3.638
54716SOL    HW265923   3.687   6.240   3.787
54717SOL     OW65924   8.570   5.867   1.595
54717SOL    HW165925   8.574   5.821   1.679
54717SOL    HW265926   8.572   5.798   1.529
54718SOL     OW65927  13.374  14.472  12.140
54718SOL    HW165928  13.353  14.565  12.132
54718SOL    HW265929  13.301  14.435  12.190
54719SOL     OW65930   8.916  11.182   3.312
54719SOL    HW165931   8.877  11.221   3.234
54719SOL    HW265932   8.952  11.256   3.361
54720SOL     OW65933  12.034   4.045   8.498
54720SOL    HW165934  12.017   4.001   8.581
54720SOL    HW265935  11.957   4.027   8.444
54721SOL     OW65936  14.120  12.446  14.026
54721SOL    HW165937  14.114  12.508  14.098
54721SOL    HW265938  14.029  12.418  14.011
54722SOL     OW65939   4.110   7.923   7.885
54722SOL    HW165940   4.097   7.997   7.826
54722SOL    HW265941   4.204   7.904   7.878
54723SOL     OW65942   4.964   7.093  13.462
54723SOL    HW165943   5.036   7.152  13.439
54723SOL    HW265944   4.941   7.116  13.552
54724SOL     OW65945  12.599   5.165   3.251
54724SOL    HW165946  12.516   5.154   3.206
54724SOL    HW265947  12.637   5.245   3.214
54725SOL     OW65948   1.816   6.979  13.915
54725SOL    HW165949   1.764   6.951  13.841
54725SOL    HW265950   1.907   6.972  13.885
54726SOL     OW65951   1.724  12.693   1.457
54726SOL    HW165952   1.804  12.640   1.450
54726SOL    HW265953   1.675  12.674   1.377
54727SOL     OW65954   7.629   1.002   4.231
54727SOL    HW165955   7.565   0.969   4.294
54727SOL    HW265956   7.707   0.949   4.247
54728SOL     OW65957  12.649   1.921  13.163
54728SOL    HW165958  12.655   2.002  13.113
54728SOL    HW265959  12.714   1.863  13.123
54729SOL     OW65960   3.564  13.041  13.508
54729SOL    HW165961   3.477  13.007  13.529
54729SOL    HW265962   3.593  13.084  13.589
54730SOL     OW65963   7.749   0.855  10.422
54730SOL    HW165964   7.831   0.825  10.382
54730SOL    HW265965   7.777   0.906  10.498
54731SOL     OW65966  12.165   7.779   5.262
54731SOL    HW165967  12.235   7.723   5.297
54731SOL    HW265968  12.107   7.719   5.215
54732SOL     OW65969   0.515  13.477  13.666
54732SOL    HW165970   0.453  13.490  13.594
54732SOL    HW265971   0.599  13.506  13.630
54733SOL     OW65972   7.532  14.236  14.445
54733SOL    HW165973   7.517  14.169  14.378
54733SOL    HW265974   7.446  14.250  14.485
54734SOL     OW65975   0.219  12.550   2.781
54734SOL    HW165976   0.229  12.529   2.873
54734SOL    HW265977   0.294  12.607   2.761
54735SOL     OW65978  11.275   3.160  10.769
54735SOL    HW165979  11.221   3.239  10.773
54735SOL    HW265980  11.234   3.100  10.831
54736SOL     OW65981   7.370   3.093  12.353
54736SOL    HW165982   7.411   3.087  12.266
54736SOL    HW265983   7.434   3.143  12.405
54737SOL     OW65984   3.836  12.594  12.365
54737SOL    HW165985   3.921  12.626  12.335
54737SOL    HW265986   3.844  12.589  12.460
54738SOL     OW65987   8.303  11.246   7.323
54738SOL    HW165988   8.369  11.310   7.295
54738SOL    HW265989   8.219  11.290   7.309
54739SOL     OW65990   5.793   6.737   7.051
54739SOL    HW165991   5.802   6.654   7.005
54739SOL    HW265992   5.867   6.790   7.020
54740SOL     OW65993  14.853   3.128   5.570
54740SOL    HW165994  14.860   3.191   5.642
54740SOL    HW265995  14.804   3.055   5.606
54741SOL     OW65996   1.247   9.861   5.381
54741SOL    HW165997   1.187   9.888   5.311
54741SOL    HW265998   1.225   9.918   5.454
54742SOL     OW65999  11.483   0.477  12.858
54742SOL    HW166000  11.387   0.473  12.852
54742SOL    HW266001  11.514   0.432  12.779
54743SOL     OW66002   1.013   6.419  10.856
54743SOL    HW166003   0.969   6.370  10.926
54743SOL    HW266004   1.016   6.509  10.888
54744SOL     OW66005   7.211  13.041   9.278
54744SOL    HW166006   7.197  13.103   9.349
54744SOL    HW266007   7.306  13.036   9.268
54745SOL     OW66008   5.816   3.161   2.925
54745SOL    HW166009   5.824   3.067   2.913
54745SOL    HW266010   5.846   3.199   2.843
54746SOL     OW66011   9.142   5.634  12.941
54746SOL    HW166012   9.098   5.709  12.981
54746SOL    HW266013   9.081   5.561  12.954
54747SOL     OW66014   0.008   3.168   1.870
54747SOL    HW166015  14.842   3.240   1.824
54747SOL    HW266016   0.094   3.162   1.827
54748SOL     OW66017   2.236   2.180  10.243
54748SOL    HW166018   2.228   2.178  10.148
54748SOL    HW266019   2.330   2.187  10.259
54749SOL     OW66020   0.821   7.025   2.671
54749SOL    HW166021   0.727   7.022   2.685
54749SOL    HW266022   0.859   7.012   2.758
54750SOL     OW66023  11.374  13.724   6.361
54750SOL    HW166024  11.450  13.691   6.407
54750SOL    HW266025  11.369  13.671   6.281
54751SOL     OW66026   4.709  13.062   9.924
54751SOL    HW166027   4.680  12.971   9.926
54751SOL    HW266028   4.682  13.095   9.839
54752SOL     OW66029   0.087   9.179   7.804
54752SOL    HW166030   0.024   9.108   7.795
54752SOL    HW266031   0.053   9.248   7.746
54753SOL     OW66032   4.483   9.023   0.031
54753SOL    HW166033   4.500   9.020   0.125
54753SOL    HW266034   4.552   9.079  14.874
54754SOL     OW66035  13.790   2.846  12.930
54754SOL    HW166036  13.737   2.820  12.855
54754SOL    HW266037  13.782   2.941  12.935
54755SOL     OW66038   6.385   5.001   2.547
54755SOL    HW166039   6.457   5.064   2.540
54755SOL    HW266040   6.406   4.949   2.624
54756SOL     OW66041   0.830   2.836   7.596
54756SOL    HW166042   0.887   2.763   7.617
54756SOL    HW266043   0.881   2.891   7.536
54757SOL     OW66044   9.603  14.133   7.739
54757SOL    HW166045   9.613  14.042   7.767
54757SOL    HW266046   9.523  14.162   7.782
54758SOL     OW66047  13.355   6.376   2.811
54758SOL    HW166048  13.339   6.336   2.896
54758SOL    HW266049  13.407   6.310   2.763
54759SOL     OW66050   9.358   1.115   9.901
54759SOL    HW166051   9.326   1.122   9.811
54759SOL    HW266052   9.346   1.023   9.924
54760SOL     OW66053  12.548   5.622  10.129
54760SOL    HW166054  12.606   5.692  10.160
54760SOL    HW266055  12.488   5.606  10.203
54761SOL     OW66056   7.656   5.101   1.677
54761SOL    HW166057   7.671   5.192   1.703
54761SOL    HW266058   7.721   5.084   1.608
54762SOL     OW66059   7.988   6.080   7.418
54762SOL    HW166060   8.004   6.162   7.465
54762SOL    HW266061   8.073   6.055   7.384
54763SOL     OW66062  14.832   7.066  12.569
54763SOL    HW166063  14.857   7.129  12.502
54763SOL    HW266064  14.843   7.113  12.652
54764SOL     OW66065  14.659  10.028  13.177
54764SOL    HW166066  14.685   9.946  13.218
54764SOL    HW266067  14.725  10.092  13.205
54765SOL     OW66068  12.541   9.686  14.243
54765SOL    HW166069  12.458   9.643  14.261
54765SOL    HW266070  12.573   9.715  14.328
54766SOL     OW66071   1.340   3.569  14.427
54766SOL    HW166072   1.260   3.611  14.460
54766SOL    HW266073   1.381   3.531  14.505
54767SOL     OW66074   1.711   9.461   4.980
54767SOL    HW166075   1.769   9.454   5.056
54767SOL    HW266076   1.750   9.403   4.914
54768SOL     OW66077  13.587   2.810   5.576
54768SOL    HW166078  13.678   2.785   5.591
54768SOL    HW266079  13.538   2.728   5.584
54769SOL     OW66080   0.495   4.754   3.656
54769SOL    HW166081   0.413   4.706   3.643
54769SOL    HW266082   0.558   4.686   3.679
54770SOL     OW66083   1.740   9.516  10.566
54770SOL    HW166084   1.765   9.605  10.541
54770SOL    HW266085   1.801   9.460  10.517
54771SOL     OW66086  14.644   2.649   5.166
54771SOL    HW166087  14.592   2.592   5.222
54771SOL    HW266088  14.595   2.653   5.084
54772SOL     OW66089   2.612  14.653  12.754
54772SOL    HW166090   2.658  14.727  12.793
54772SOL    HW266091   2.582  14.601  12.829
54773SOL     OW66092  10.416   5.036  10.886
54773SOL    HW166093  10.320   5.032  10.883
54773SOL    HW266094  10.440   4.961  10.940
54774SOL     OW66095   2.111  12.398  14.739
54774SOL    HW166096   2.167  12.437  14.806
54774SOL    HW266097   2.036  12.363  14.786
54775SOL     OW66098   1.848   4.044   9.631
54775SOL    HW166099   1.915   4.086   9.684
54775SOL    HW266100   1.897   3.998   9.563
54776SOL     OW66101   7.104   2.930   7.304
54776SOL    HW166102   7.105   2.886   7.219
54776SOL    HW266103   7.012   2.931   7.329
54777SOL     OW66104   5.003  13.050   7.457
54777SOL    HW166105   4.971  13.063   7.546
54777SOL    HW266106   5.064  12.976   7.464
54778SOL     OW66107  10.284   6.478  14.737
54778SOL    HW166108  10.351   6.409  14.738
54778SOL    HW266109  10.235   6.465  14.818
54779SOL     OW66110  13.585   9.734   8.532
54779SOL    HW166111  13.551   9.818   8.500
54779SOL    HW266112  13.507   9.679   8.542
54780SOL     OW66113   3.804   6.965   3.653
54780SOL    HW166114   3.782   7.057   3.637
54780SOL    HW266115   3.846   6.965   3.739
54781SOL     OW66116  11.692  12.235  11.122
54781SOL    HW166117  11.762  12.292  11.154
54781SOL    HW266118  11.616  12.293  11.116
54782SOL     OW66119   9.251  11.168   2.546
54782SOL    HW166120   9.211  11.106   2.607
54782SOL    HW266121   9.202  11.157   2.465
54783SOL     OW66122  11.166   6.133  10.411
54783SOL    HW166123  11.186   6.222  10.383
54783SOL    HW266124  11.099   6.103  10.350
54784SOL     OW66125   8.658  11.109   8.029
54784SOL    HW166126   8.583  11.145   8.076
54784SOL    HW266127   8.660  11.016   8.054
54785SOL     OW66128   1.966   7.828  12.914
54785SOL    HW166129   1.878   7.833  12.952
54785SOL    HW266130   1.994   7.738  12.932
54786SOL     OW66131  12.873   3.317  11.443
54786SOL    HW166132  12.845   3.287  11.357
54786SOL    HW266133  12.967   3.335  11.433
54787SOL     OW66134  10.474   6.775   0.920
54787SOL    HW166135  10.507   6.799   0.834
54787SOL    HW266136  10.382   6.804   0.920
54788SOL     OW66137   5.268  13.425   5.948
54788SOL    HW166138   5.339  13.362   5.961
54788SOL    HW266139   5.217  13.420   6.029
54789SOL     OW66140  14.033  13.422   0.481
54789SOL    HW166141  14.059  13.511   0.504
54789SOL    HW266142  14.112  13.370   0.496
54790SOL     OW66143   3.564   8.252   1.324
54790SOL    HW166144   3.658   8.252   1.340
54790SOL    HW266145   3.536   8.342   1.342
54791SOL     OW66146   0.006   0.783   6.078
54791SOL    HW166147   0.083   0.768   6.133
54791SOL    HW266148   0.042   0.793   5.990
54792SOL     OW66149   8.599  11.587   8.774
54792SOL    HW166150   8.589  11.497   8.743
54792SOL    HW266151   8.638  11.634   8.700
54793SOL     OW66152   9.437   5.726   2.739
54793SOL    HW166153   9.520   5.771   2.726
54793SOL    HW266154   9.444   5.686   2.826
54794SOL     OW66155   6.882  11.442  12.250
54794SOL    HW166156   6.810  11.412  12.194
54794SOL    HW266157   6.925  11.361  12.278
54795SOL     OW66158  14.453  12.910   7.505
54795SOL    HW166159  14.418  12.929   7.592
54795SOL    HW266160  14.526  12.851   7.521
54796SOL     OW66161   8.693   9.383   7.762
54796SOL    HW166162   8.665   9.470   7.789
54796SOL    HW266163   8.708   9.390   7.668
54797SOL     OW66164   4.134   4.183  11.685
54797SOL    HW166165   4.123   4.209  11.776
54797SOL    HW266166   4.211   4.232  11.656
54798SOL     OW66167   6.122  11.353   7.335
54798SOL    HW166168   6.196  11.294   7.324
54798SOL    HW266169   6.137  11.395   7.420
54799SOL     OW66170   9.213   2.870   9.949
54799SOL    HW166171   9.206   2.825   9.864
54799SOL    HW266172   9.125   2.903   9.967
54800SOL     OW66173  12.718  13.010   6.537
54800SOL    HW166174  12.717  13.101   6.509
54800SOL    HW266175  12.801  12.975   6.505
54801SOL     OW66176   9.639  11.534  14.067
54801SOL    HW166177   9.677  11.486  14.141
54801SOL    HW266178   9.662  11.481  13.991
54802SOL     OW66179  12.786   8.942  14.395
54802SOL    HW166180  12.825   8.941  14.308
54802SOL    HW266181  12.718   9.010  14.390
54803SOL     OW66182   1.905   2.305   5.605
54803SOL    HW166183   1.863   2.329   5.523
54803SOL    HW266184   1.998   2.296   5.582
54804SOL     OW66185   3.975   2.925  14.644
54804SOL    HW166186   3.992   3.000  14.586
54804SOL    HW266187   3.883   2.905  14.629
54805SOL     OW66188  10.692   7.887  11.392
54805SOL    HW166189  10.783   7.916  11.392
54805SOL    HW266190  10.690   7.815  11.455
54806SOL     OW66191  13.981   8.004  11.884
54806SOL    HW166192  14.062   8.006  11.834
54806SOL    HW266193  13.981   7.918  11.926
54807SOL     OW66194   2.504  10.101  11.982
54807SOL    HW166195   2.590  10.079  12.017
54807SOL    HW266196   2.516  10.102  11.887
54808SOL     OW66197   0.750   8.848   3.732
54808SOL    HW166198   0.724   8.756   3.745
54808SOL    HW266199   0.843   8.849   3.751
54809SOL     OW66200   4.216   6.351   6.062
54809SOL    HW166201   4.310   6.363   6.049
54809SOL    HW266202   4.210   6.307   6.147
54810SOL     OW66203   6.596   1.998   4.206
54810SOL    HW166204   6.689   2.001   4.184
54810SOL    HW266205   6.589   2.048   4.288
54811SOL     OW66206   2.793  12.550  10.972
54811SOL    HW166207   2.796  12.490  11.047
54811SOL    HW266208   2.756  12.497  10.902
54812SOL     OW66209   9.615   0.726   5.062
54812SOL    HW166210   9.539   0.750   5.008
54812SOL    HW266211   9.636   0.637   5.034
54813SOL     OW66212   2.496   6.278   8.381
54813SOL    HW166213   2.589   6.293   8.392
54813SOL    HW266214   2.479   6.194   8.423
54814SOL     OW66215   8.988   3.315   6.458
54814SOL    HW166216   8.914   3.261   6.486
54814SOL    HW266217   8.947   3.396   6.427
54815SOL     OW66218  10.792   3.793   0.324
54815SOL    HW166219  10.819   3.706   0.354
54815SOL    HW266220  10.700   3.782   0.299
54816SOL     OW66221   5.257   1.569   3.447
54816SOL    HW166222   5.318   1.631   3.485
54816SOL    HW266223   5.192   1.623   3.402
54817SOL     OW66224   4.145  12.521  14.260
54817SOL    HW166225   4.132  12.441  14.310
54817SOL    HW266226   4.116  12.499  14.171
54818SOL     OW66227   4.088  13.699  10.442
54818SOL    HW166228   4.089  13.795  10.433
54818SOL    HW266229   3.996  13.675  10.434
54819SOL     OW66230   0.024  10.874   5.127
54819SOL    HW166231   0.001  10.926   5.205
54819SOL    HW266232   0.071  10.798   5.162
54820SOL     OW66233  11.091   0.190   7.679
54820SOL    HW166234  11.022   0.206   7.743
54820SOL    HW266235  11.150   0.127   7.721
54821SOL     OW66236  10.978   5.805   2.351
54821SOL    HW166237  11.003   5.713   2.343
54821SOL    HW266238  11.061   5.851   2.357
54822SOL     OW66239  14.424  10.494   3.346
54822SOL    HW166240  14.449  10.410   3.385
54822SOL    HW266241  14.334  10.507   3.374
54823SOL     OW66242   9.108  13.043   8.894
54823SOL    HW166243   9.027  13.092   8.876
54823SOL    HW266244   9.161  13.102   8.947
54824SOL     OW66245  13.583  10.728   9.007
54824SOL    HW166246  13.541  10.693   8.929
54824SOL    HW266247  13.668  10.683   9.011
54825SOL     OW66248  12.937  12.687  11.647
54825SOL    HW166249  12.874  12.641  11.702
54825SOL    HW266250  12.991  12.618  11.609
54826SOL     OW66251   3.025   3.700   3.651
54826SOL    HW166252   2.981   3.691   3.566
54826SOL    HW266253   3.118   3.686   3.631
54827SOL     OW66254  14.708  11.339  10.570
54827SOL    HW166255  14.629  11.390  10.590
54827SOL    HW266256  14.675  11.252  10.549
54828SOL     OW66257   8.816  11.802   6.778
54828SOL    HW166258   8.880  11.869   6.803
54828SOL    HW266259   8.798  11.820   6.685
54829SOL     OW66260   0.476   7.286  14.855
54829SOL    HW166261   0.523   7.217  14.809
54829SOL    HW266262   0.384   7.270  14.835
54830SOL     OW66263  10.701  10.781   6.329
54830SOL    HW166264  10.695  10.722   6.254
54830SOL    HW266265  10.613  10.780   6.367
54831SOL     OW66266  13.387   9.895   9.290
54831SOL    HW166267  13.296   9.922   9.301
54831SOL    HW266268  13.396   9.878   9.197
54832SOL     OW66269   4.603   0.927  12.686
54832SOL    HW166270   4.664   0.972  12.744
54832SOL    HW266271   4.650   0.921  12.602
54833SOL     OW66272  13.190   6.037   3.366
54833SOL    HW166273  13.138   6.070   3.439
54833SOL    HW266274  13.277   6.074   3.380
54834SOL     OW66275   1.575   8.049  13.843
54834SOL    HW166276   1.508   7.986  13.871
54834SOL    HW266277   1.649   8.031  13.901
54835SOL     OW66278   7.571   4.496   3.320
54835SOL    HW166279   7.647   4.529   3.369
54835SOL    HW266280   7.602   4.414   3.280
54836SOL     OW66281  10.996   9.856   9.420
54836SOL    HW166282  10.929   9.801   9.460
54836SOL    HW266283  10.997   9.936   9.473
54837SOL     OW66284  12.917  13.614  13.720
54837SOL    HW166285  12.850  13.673  13.687
54837SOL    HW266286  12.990  13.671  13.746
54838SOL     OW66287   9.423   4.507   5.178
54838SOL    HW166288   9.378   4.441   5.231
54838SOL    HW266289   9.405   4.483   5.087
54839SOL     OW66290  12.540   8.338  13.722
54839SOL    HW166291  12.455   8.382  13.727
54839SOL    HW266292  12.527   8.256  13.768
54840SOL     OW66293  11.030   7.558   8.376
54840SOL    HW166294  11.009   7.482   8.322
54840SOL    HW266295  10.979   7.545   8.456
54841SOL     OW66296   7.938   7.284   9.630
54841SOL    HW166297   7.912   7.365   9.586
54841SOL    HW266298   8.017   7.257   9.585
54842SOL     OW66299   9.619   4.193  10.312
54842SOL    HW166300   9.664   4.111  10.291
54842SOL    HW266301   9.647   4.213  10.401
54843SOL     OW66302   2.563   2.729  14.050
54843SOL    HW166303   2.480   2.720  14.096
54843SOL    HW266304   2.546   2.796  13.984
54844SOL     OW66305   9.868   1.414   0.276
54844SOL    HW166306   9.932   1.398   0.345
54844SOL    HW266307   9.816   1.334   0.271
54845SOL     OW66308  14.393  13.966   8.525
54845SOL    HW166309  14.457  13.910   8.481
54845SOL    HW266310  14.405  14.052   8.485
54846SOL     OW66311  12.038   2.929  14.622
54846SOL    HW166312  12.040   3.024  14.628
54846SOL    HW266313  11.966   2.910  14.561
54847SOL     OW66314  13.525   6.808  13.428
54847SOL    HW166315  13.542   6.865  13.352
54847SOL    HW266316  13.579   6.845  13.498
54848SOL     OW66317  13.620   4.171   0.630
54848SOL    HW166318  13.641   4.242   0.568
54848SOL    HW266319  13.527   4.181   0.647
54849SOL     OW66320   9.335   0.606  11.935
54849SOL    HW166321   9.402   0.553  11.978
54849SOL    HW266322   9.265   0.613  12.000
54850SOL     OW66323  10.900   3.690   1.309
54850SOL    HW166324  10.941   3.726   1.388
54850SOL    HW266325  10.839   3.758   1.281
54851SOL     OW66326   2.340  13.224   2.571
54851SOL    HW166327   2.391  13.295   2.532
54851SOL    HW266328   2.250  13.242   2.543
54852SOL     OW66329   6.903   6.608   2.460
54852SOL    HW166330   6.857   6.538   2.413
54852SOL    HW266331   6.908   6.578   2.550
54853SOL     OW66332  14.001   5.002   6.455
54853SOL    HW166333  13.958   4.916   6.457
54853SOL    HW266334  13.970   5.046   6.534
54854SOL     OW66335   9.400   3.459  12.038
54854SOL    HW166336   9.447   3.516  12.099
54854SOL    HW266337   9.357   3.519  11.977
54855SOL     OW66338  13.094   7.610   3.022
54855SOL    HW166339  13.081   7.538   2.960
54855SOL    HW266340  13.189   7.622   3.025
54856SOL     OW66341   3.410   1.196   1.130
54856SOL    HW166342   3.328   1.184   1.082
54856SOL    HW266343   3.444   1.107   1.142
54857SOL     OW66344   2.740   8.504  11.343
54857SOL    HW166345   2.665   8.464  11.386
54857SOL    HW266346   2.806   8.435  11.341
54858SOL     OW66347   2.523   5.695  13.630
54858SOL    HW166348   2.525   5.629  13.560
54858SOL    HW266349   2.556   5.775  13.589
54859SOL     OW66350   4.269   3.715   5.574
54859SOL    HW166351   4.269   3.647   5.642
54859SOL    HW266352   4.362   3.728   5.553
54860SOL     OW66353  11.039   0.527   3.831
54860SOL    HW166354  11.014   0.614   3.863
54860SOL    HW266355  11.096   0.492   3.899
54861SOL     OW66356   2.778  14.660   3.153
54861SOL    HW166357   2.753  14.740   3.108
54861SOL    HW266358   2.743  14.590   3.098
54862SOL     OW66359   0.211  14.306  13.628
54862SOL    HW166360   0.307  14.313  13.623
54862SOL    HW266361   0.181  14.396  13.635
54863SOL     OW66362   7.860   2.951   3.243
54863SOL    HW166363   7.812   2.971   3.163
54863SOL    HW266364   7.946   2.990   3.231
54864SOL     OW66365   6.466   7.600  11.003
54864SOL    HW166366   6.389   7.564  11.048
54864SOL    HW266367   6.478   7.687  11.041
54865SOL     OW66368   4.191  10.646   3.115
54865SOL    HW166369   4.183  10.625   3.021
54865SOL    HW266370   4.152  10.570   3.159
54866SOL     OW66371  12.371  12.712   2.371
54866SOL    HW166372  12.401  12.799   2.344
54866SOL    HW266373  12.386  12.709   2.465
54867SOL     OW66374  12.843   7.755   0.888
54867SOL    HW166375  12.815   7.665   0.873
54867SOL    HW266376  12.933   7.746   0.921
54868SOL     OW66377   6.173   4.791  13.911
54868SOL    HW166378   6.083   4.799  13.943
54868SOL    HW266379   6.220   4.864  13.953
54869SOL     OW66380   4.474   8.146   0.837
54869SOL    HW166381   4.527   8.221   0.862
54869SOL    HW266382   4.385   8.181   0.831
54870SOL     OW66383   0.540   0.522   7.594
54870SOL    HW166384   0.530   0.514   7.688
54870SOL    HW266385   0.477   0.590   7.569
54871SOL     OW66386  13.304  13.104  13.188
54871SOL    HW166387  13.376  13.105  13.124
54871SOL    HW266388  13.338  13.054  13.261
54872SOL     OW66389   1.104  11.433   4.578
54872SOL    HW166390   1.144  11.346   4.580
54872SOL    HW266391   1.177  11.492   4.562
54873SOL     OW66392  12.585   7.020   4.343
54873SOL    HW166393  12.588   7.031   4.438
54873SOL    HW266394  12.494   7.038   4.320
54874SOL     OW66395   1.642   7.342  13.917
54874SOL    HW166396   1.618   7.249  13.922
54874SOL    HW266397   1.575   7.380  13.859
54875SOL     OW66398  12.692   2.932   4.925
54875SOL    HW166399  12.670   3.011   4.875
54875SOL    HW266400  12.769   2.956   4.976
54876SOL     OW66401   0.983   3.512   0.141
54876SOL    HW166402   1.074   3.481   0.148
54876SOL    HW266403   0.964   3.508   0.047
54877SOL     OW66404   1.495   7.654   3.370
54877SOL    HW166405   1.582   7.628   3.342
54877SOL    HW266406   1.465   7.714   3.302
54878SOL     OW66407   0.218   5.618  14.829
54878SOL    HW166408   0.157   5.660   0.012
54878SOL    HW266409   0.254   5.544   0.001
54879SOL     OW66410   2.669  14.134   3.662
54879SOL    HW166411   2.577  14.139   3.636
54879SOL    HW266412   2.683  14.042   3.684
54880SOL     OW66413   3.516  10.021  12.126
54880SOL    HW166414   3.460   9.967  12.071
54880SOL    HW266415   3.479  10.012  12.214
54881SOL     OW66416   3.985   4.976   0.894
54881SOL    HW166417   3.953   4.887   0.879
54881SOL    HW266418   3.909   5.032   0.875
54882SOL     OW66419   1.341  11.187   3.321
54882SOL    HW166420   1.297  11.256   3.371
54882SOL    HW266421   1.405  11.234   3.268
54883SOL     OW66422   2.473   5.290   1.897
54883SOL    HW166423   2.526   5.349   1.951
54883SOL    HW266424   2.525   5.278   1.817
54884SOL     OW66425   1.129  10.711  11.687
54884SOL    HW166426   1.165  10.798  11.705
54884SOL    HW266427   1.049  10.728  11.637
54885SOL     OW66428   6.922   0.743   4.951
54885SOL    HW166429   6.860   0.816   4.957
54885SOL    HW266430   6.981   0.755   5.025
54886SOL     OW66431   1.006   1.395   0.914
54886SOL    HW166432   1.041   1.382   1.002
54886SOL    HW266433   0.947   1.470   0.922
54887SOL     OW66434   1.979   0.188  12.962
54887SOL    HW166435   2.061   0.167  13.006
54887SOL    HW266436   2.005   0.217  12.875
54888SOL     OW66437  11.881   7.176   3.160
54888SOL    HW166438  11.885   7.202   3.068
54888SOL    HW266439  11.835   7.092   3.160
54889SOL     OW66440   3.276   0.178  10.060
54889SOL    HW166441   3.234   0.097  10.029
54889SOL    HW266442   3.230   0.199  10.141
54890SOL     OW66443   7.049  14.362   2.684
54890SOL    HW166444   7.029  14.360   2.590
54890SOL    HW266445   6.964  14.354   2.727
54891SOL     OW66446   4.481   5.038  13.116
54891SOL    HW166447   4.470   5.125  13.079
54891SOL    HW266448   4.429   4.981  13.058
54892SOL     OW66449  10.470   4.321   2.489
54892SOL    HW166450  10.527   4.255   2.450
54892SOL    HW266451  10.467   4.298   2.582
54893SOL     OW66452  14.327  12.587   2.321
54893SOL    HW166453  14.294  12.515   2.267
54893SOL    HW266454  14.253  12.646   2.331
54894SOL     OW66455   7.578   7.766   6.427
54894SOL    HW166456   7.566   7.860   6.441
54894SOL    HW266457   7.643   7.761   6.357
54895SOL     OW66458  10.386   6.098   8.313
54895SOL    HW166459  10.416   6.155   8.242
54895SOL    HW266460  10.448   6.114   8.385
54896SOL     OW66461   0.949  10.706   6.277
54896SOL    HW166462   0.884  10.654   6.322
54896SOL    HW266463   1.009  10.642   6.237
54897SOL     OW66464   4.093   0.064   9.727
54897SOL    HW166465   4.100   0.145   9.678
54897SOL    HW266466   4.118  14.873   9.665
54898SOL     OW66467  14.368   3.961   6.259
54898SOL    HW166468  14.278   3.971   6.230
54898SOL    HW266469  14.392   4.047   6.293
54899SOL     OW66470  11.454   1.145   0.055
54899SOL    HW166471  11.416   1.155   0.142
54899SOL    HW266472  11.547   1.163   0.068
54900SOL     OW66473   0.445  11.727   1.863
54900SOL    HW166474   0.439  11.795   1.930
54900SOL    HW266475   0.489  11.769   1.789
54901SOL     OW66476   9.467   5.321  12.722
54901SOL    HW166477   9.510   5.401  12.753
54901SOL    HW266478   9.511   5.250  12.769
54902SOL     OW66479   9.217   4.796  11.928
54902SOL    HW166480   9.244   4.854  11.999
54902SOL    HW266481   9.121   4.805  11.924
54903SOL     OW66482  11.790   4.706  13.651
54903SOL    HW166483  11.760   4.657  13.574
54903SOL    HW266484  11.854   4.768  13.615
54904SOL     OW66485  11.533   5.102  12.976
54904SOL    HW166486  11.611   5.117  13.030
54904SOL    HW266487  11.469   5.166  13.008
54905SOL     OW66488   7.115   1.492  12.284
54905SOL    HW166489   7.070   1.571  12.315
54905SOL    HW266490   7.047   1.442  12.239
54906SOL     OW66491   7.956  14.527  10.356
54906SOL    HW166492   8.021  14.462  10.328
54906SOL    HW266493   7.875  14.498  10.315
54907SOL     OW66494  13.831   3.953   5.617
54907SOL    HW166495  13.873   3.868   5.604
54907SOL    HW266496  13.778   3.941   5.696
54908SOL     OW66497   8.148   2.284   1.318
54908SOL    HW166498   8.069   2.288   1.265
54908SOL    HW266499   8.203   2.219   1.275
54909SOL     OW66500  13.149   1.109   8.192
54909SOL    HW166501  13.152   1.106   8.097
54909SOL    HW266502  13.201   1.186   8.215
54910SOL     OW66503   4.819  13.409  10.314
54910SOL    HW166504   4.867  13.326  10.306
54910SOL    HW266505   4.867  13.470  10.258
54911SOL     OW66506   1.032   7.529   1.798
54911SOL    HW166507   1.018   7.445   1.753
54911SOL    HW266508   0.994   7.516   1.885
54912SOL     OW66509   0.686  12.314   4.215
54912SOL    HW166510   0.718  12.233   4.254
54912SOL    HW266511   0.703  12.381   4.282
54913SOL     OW66512  10.229   2.766   1.358
54913SOL    HW166513  10.293   2.705   1.322
54913SOL    HW266514  10.163   2.710   1.399
54914SOL     OW66515   3.386  14.619   1.186
54914SOL    HW166516   3.481  14.607   1.192
54914SOL    HW266517   3.360  14.645   1.275
54915SOL     OW66518   0.731  10.168  10.312
54915SOL    HW166519   0.707  10.108  10.242
54915SOL    HW266520   0.808  10.128  10.353
54916SOL     OW66521  12.837   4.272  11.020
54916SOL    HW166522  12.803   4.233  10.940
54916SOL    HW266523  12.931   4.275  11.007
54917SOL     OW66524   7.850   1.424   1.339
54917SOL    HW166525   7.826   1.411   1.248
54917SOL    HW266526   7.912   1.497   1.337
54918SOL     OW66527   8.906   5.234   3.784
54918SOL    HW166528   8.826   5.235   3.837
54918SOL    HW266529   8.880   5.278   3.703
54919SOL     OW66530   5.570  13.808  14.648
54919SOL    HW166531   5.645  13.781  14.701
54919SOL    HW266532   5.495  13.764  14.688
54920SOL     OW66533   2.948  13.720   9.519
54920SOL    HW166534   3.043  13.731   9.524
54920SOL    HW266535   2.929  13.651   9.581
54921SOL     OW66536  12.299   6.179   7.857
54921SOL    HW166537  12.245   6.258   7.863
54921SOL    HW266538  12.238   6.107   7.875
54922SOL     OW66539   9.664  10.329  10.895
54922SOL    HW166540   9.635  10.284  10.816
54922SOL    HW266541   9.658  10.262  10.964
54923SOL     OW66542   3.574  11.094   9.781
54923SOL    HW166543   3.552  11.032   9.851
54923SOL    HW266544   3.516  11.168   9.796
54924SOL     OW66545  10.288   9.606   5.373
54924SOL    HW166546  10.327   9.620   5.286
54924SOL    HW266547  10.200   9.644   5.366
54925SOL     OW66548  10.598   6.341   8.716
54925SOL    HW166549  10.521   6.368   8.765
54925SOL    HW266550  10.572   6.261   8.672
54926SOL     OW66551   5.836  11.266   8.487
54926SOL    HW166552   5.799  11.352   8.469
54926SOL    HW266553   5.829  11.219   8.403
54927SOL     OW66554   3.626   3.000  10.586
54927SOL    HW166555   3.645   2.988  10.493
54927SOL    HW266556   3.582   3.085  10.591
54928SOL     OW66557   3.458   6.418   9.921
54928SOL    HW166558   3.531   6.402   9.981
54928SOL    HW266559   3.479   6.503   9.881
54929SOL     OW66560   7.232   4.917   3.385
54929SOL    HW166561   7.217   4.861   3.308
54929SOL    HW266562   7.154   4.972   3.390
54930SOL     OW66563   3.765   7.599  10.947
54930SOL    HW166564   3.754   7.689  10.978
54930SOL    HW266565   3.680   7.575  10.910
54931SOL     OW66566   0.954  10.015   4.128
54931SOL    HW166567   1.050  10.018   4.127
54931SOL    HW266568   0.933   9.922   4.124
54932SOL     OW66569   8.474  10.531   8.298
54932SOL    HW166570   8.486  10.614   8.343
54932SOL    HW266571   8.403  10.547   8.236
54933SOL     OW66572  14.142   4.910  10.509
54933SOL    HW166573  14.090   4.912  10.428
54933SOL    HW266574  14.163   4.817  10.521
54934SOL     OW66575   1.952  13.409   0.593
54934SOL    HW166576   1.924  13.482   0.538
54934SOL    HW266577   1.950  13.442   0.682
54935SOL     OW66578  10.875   2.956   9.738
54935SOL    HW166579  10.903   2.865   9.748
54935SOL    HW266580  10.956   3.005   9.728
54936SOL     OW66581   1.637   6.994   9.856
54936SOL    HW166582   1.600   6.951   9.933
54936SOL    HW266583   1.731   6.984   9.865
54937SOL     OW66584   3.954   9.033   3.037
54937SOL    HW166585   3.908   9.102   3.085
54937SOL    HW266586   3.911   9.030   2.952
54938SOL     OW66587  13.781  10.142  12.192
54938SOL    HW166588  13.729  10.083  12.137
54938SOL    HW266589  13.766  10.111  12.281
54939SOL     OW66590  10.456   2.715   3.826
54939SOL    HW166591  10.495   2.630   3.847
54939SOL    HW266592  10.514   2.779   3.868
54940SOL     OW66593  12.000   1.913  10.264
54940SOL    HW166594  12.084   1.903  10.309
54940SOL    HW266595  11.949   1.970  10.322
54941SOL     OW66596   0.758   5.060  11.341
54941SOL    HW166597   0.758   4.964  11.349
54941SOL    HW266598   0.690   5.079  11.277
54942SOL     OW66599   3.100   7.548  11.654
54942SOL    HW166600   3.161   7.622  11.650
54942SOL    HW266601   3.109   7.515  11.744
54943SOL     OW66602  10.964   5.597   8.510
54943SOL    HW166603  11.012   5.655   8.451
54943SOL    HW266604  10.990   5.626   8.598
54944SOL     OW66605   6.236   1.525   4.124
54944SOL    HW166606   6.228   1.450   4.065
54944SOL    HW266607   6.153   1.528   4.171
54945SOL     OW66608   7.064   9.714   0.336
54945SOL    HW166609   7.128   9.757   0.393
54945SOL    HW266610   7.065   9.767   0.255
54946SOL     OW66611   5.182   9.891  11.206
54946SOL    HW166612   5.235   9.934  11.273
54946SOL    HW266613   5.177   9.955  11.135
54947SOL     OW66614   5.969   6.594   1.697
54947SOL    HW166615   6.013   6.589   1.782
54947SOL    HW266616   6.021   6.538   1.640
54948SOL     OW66617   0.010   2.608   2.849
54948SOL    HW166618   0.010   2.556   2.929
54948SOL    HW266619   0.087   2.577   2.801
54949SOL     OW66620   8.222   1.639  13.260
54949SOL    HW166621   8.159   1.650  13.331
54949SOL    HW266622   8.171   1.655  13.180
54950SOL     OW66623   5.883   8.539   1.334
54950SOL    HW166624   5.942   8.614   1.320
54950SOL    HW266625   5.848   8.553   1.422
54951SOL     OW66626   8.596   0.748   0.917
54951SOL    HW166627   8.512   0.711   0.892
54951SOL    HW266628   8.586   0.842   0.902
54952SOL     OW66629  10.848   7.108   8.334
54952SOL    HW166630  10.771   7.062   8.368
54952SOL    HW266631  10.828   7.123   8.242
54953SOL     OW66632   8.082   3.678  14.774
54953SOL    HW166633   8.172   3.709  14.771
54953SOL    HW266634   8.076   3.614  14.704
54954SOL     OW66635   1.241  14.168   5.081
54954SOL    HW166636   1.325  14.204   5.109
54954SOL    HW266637   1.192  14.157   5.162
54955SOL     OW66638  11.051   5.035   6.477
54955SOL    HW166639  11.090   5.117   6.446
54955SOL    HW266640  11.009   5.058   6.560
54956SOL     OW66641  10.963  13.337  14.676
54956SOL    HW166642  10.923  13.266  14.726
54956SOL    HW266643  11.010  13.293  14.606
54957SOL     OW66644   3.129   4.434   7.069
54957SOL    HW166645   3.103   4.488   7.144
54957SOL    HW266646   3.124   4.492   6.994
54958SOL     OW66647  10.085  14.865   7.128
54958SOL    HW166648  10.019  14.829   7.188
54958SOL    HW266649  10.165  14.866   7.179
54959SOL     OW66650   0.743   2.508  11.910
54959SOL    HW166651   0.657   2.478  11.883
54959SOL    HW266652   0.728   2.593  11.952
54960SOL     OW66653   7.573   5.535   2.469
54960SOL    HW166654   7.569   5.614   2.415
54960SOL    HW266655   7.657   5.495   2.445
54961SOL     OW66656   5.719   4.598  14.317
54961SOL    HW166657   5.653   4.667  14.326
54961SOL    HW266658   5.802   4.645  14.310
54962SOL     OW66659   9.994   7.358   7.508
54962SOL    HW166660   9.945   7.427   7.463
54962SOL    HW266661  10.063   7.333   7.446
54963SOL     OW66662   0.543   8.810   5.584
54963SOL    HW166663   0.545   8.737   5.645
54963SOL    HW266664   0.616   8.866   5.611
54964SOL     OW66665   8.146  12.173   1.161
54964SOL    HW166666   8.117  12.083   1.147
54964SOL    HW266667   8.193  12.195   1.080
54965SOL     OW66668   0.999   9.321   2.815
54965SOL    HW166669   0.904   9.309   2.820
54965SOL    HW266670   1.029   9.316   2.905
54966SOL     OW66671   9.495   3.195   8.198
54966SOL    HW166672   9.540   3.161   8.275
54966SOL    HW266673   9.564   3.230   8.143
54967SOL     OW66674   4.738   8.239   8.126
54967SOL    HW166675   4.829   8.266   8.137
54967SOL    HW266676   4.700   8.248   8.213
54968SOL     OW66677   2.472   5.631  13.265
54968SOL    HW166678   2.527   5.554  13.253
54968SOL    HW266679   2.406   5.625  13.195
54969SOL     OW66680  14.711   6.584   4.537
54969SOL    HW166681  14.753   6.598   4.621
54969SOL    HW266682  14.763   6.635   4.475
54970SOL     OW66683   1.074   9.000  12.544
54970SOL    HW166684   1.112   8.991  12.632
54970SOL    HW266685   1.078   8.912  12.507
54971SOL     OW66686   5.189   7.673   1.613
54971SOL    HW166687   5.170   7.613   1.685
54971SOL    HW266688   5.104   7.686   1.570
54972SOL     OW66689   2.597   3.917   5.408
54972SOL    HW166690   2.593   4.007   5.442
54972SOL    HW266691   2.683   3.912   5.366
54973SOL     OW66692   1.358   0.310   3.929
54973SOL    HW166693   1.318   0.362   3.860
54973SOL    HW266694   1.422   0.369   3.969
54974SOL     OW66695   4.759   7.945   6.439
54974SOL    HW166696   4.765   7.927   6.346
54974SOL    HW266697   4.838   7.904   6.476
54975SOL     OW66698   6.223   1.755   7.990
54975SOL    HW166699   6.216   1.682   7.929
54975SOL    HW266700   6.302   1.736   8.041
54976SOL     OW66701  10.024  10.003  14.424
54976SOL    HW166702  10.102   9.952  14.448
54976SOL    HW266703  10.050  10.094  14.436
54977SOL     OW66704   8.723  14.514   5.220
54977SOL    HW166705   8.738  14.593   5.272
54977SOL    HW266706   8.776  14.447   5.263
54978SOL     OW66707  11.141  14.385  12.869
54978SOL    HW166708  11.195  14.463  12.852
54978SOL    HW266709  11.056  14.406  12.832
54979SOL     OW66710   6.618  12.824   0.808
54979SOL    HW166711   6.675  12.812   0.884
54979SOL    HW266712   6.534  12.787   0.835
54980SOL     OW66713  14.003   3.040   9.492
54980SOL    HW166714  14.006   3.035   9.396
54980SOL    HW266715  13.971   2.953   9.519
54981SOL     OW66716   7.288   7.776  11.092
54981SOL    HW166717   7.329   7.861  11.111
54981SOL    HW266718   7.351   7.732  11.034
54982SOL     OW66719   8.752  10.216  12.105
54982SOL    HW166720   8.715  10.254  12.025
54982SOL    HW266721   8.761  10.290  12.165
54983SOL     OW66722   6.340  11.862   5.313
54983SOL    HW166723   6.257  11.909   5.321
54983SOL    HW266724   6.403  11.916   5.361
54984SOL     OW66725   4.481   2.811   1.097
54984SOL    HW166726   4.453   2.826   1.007
54984SOL    HW266727   4.402   2.821   1.150
54985SOL     OW66728   8.961  10.150  10.721
54985SOL    HW166729   9.049  10.168  10.755
54985SOL    HW266730   8.940  10.226  10.668
54986SOL     OW66731   6.588  12.482   6.081
54986SOL    HW166732   6.514  12.532   6.114
54986SOL    HW266733   6.645  12.468   6.157
54987SOL     OW66734  11.745   7.367  12.745
54987SOL    HW166735  11.713   7.456  12.727
54987SOL    HW266736  11.670   7.310  12.727
54988SOL     OW66737  13.794   2.780   3.634
54988SOL    HW166738  13.760   2.840   3.700
54988SOL    HW266739  13.886   2.806   3.623
54989SOL     OW66740   7.049   3.263   1.005
54989SOL    HW166741   6.965   3.307   1.020
54989SOL    HW266742   7.113   3.320   1.047
54990SOL     OW66743  11.215   9.449   3.171
54990SOL    HW166744  11.170   9.488   3.096
54990SOL    HW266745  11.196   9.355   3.165
54991SOL     OW66746   7.654   0.403   3.896
54991SOL    HW166747   7.629   0.418   3.805
54991SOL    HW266748   7.747   0.425   3.899
54992SOL     OW66749   4.662   1.671   4.390
54992SOL    HW166750   4.627   1.613   4.457
54992SOL    HW266751   4.596   1.670   4.320
54993SOL     OW66752   9.323  12.242   6.056
54993SOL    HW166753   9.328  12.277   5.967
54993SOL    HW266754   9.251  12.289   6.097
54994SOL     OW66755   7.227   2.510  13.597
54994SOL    HW166756   7.238   2.541  13.687
54994SOL    HW266757   7.271   2.577  13.543
54995SOL     OW66758   1.745   2.881   6.544
54995SOL    HW166759   1.714   2.815   6.482
54995SOL    HW266760   1.794   2.831   6.610
54996SOL     OW66761   5.846   5.214   7.599
54996SOL    HW166762   5.873   5.305   7.610
54996SOL    HW266763   5.751   5.217   7.591
54997SOL     OW66764   1.231  10.711   0.087
54997SOL    HW166765   1.186  10.631   0.060
54997SOL    HW266766   1.319  10.682   0.110
54998SOL     OW66767   2.704   0.124   8.504
54998SOL    HW166768   2.632   0.177   8.468
54998SOL    HW266769   2.661   0.064   8.565
54999SOL     OW66770   0.793   8.754   0.633
54999SOL    HW166771   0.811   8.822   0.698
54999SOL    HW266772   0.767   8.678   0.685
55000SOL     OW66773  14.678  13.944   8.972
55000SOL    HW166774  14.618  13.982   8.908
55000SOL    HW266775  14.628  13.873   9.012
55001SOL     OW66776  12.538  11.678  10.983
55001SOL    HW166777  12.517  11.763  10.943
55001SOL    HW266778  12.633  11.681  10.994
55002SOL     OW66779   9.584   3.843  11.560
55002SOL    HW166780   9.596   3.925  11.512
55002SOL    HW266781   9.625   3.777  11.504
55003SOL     OW66782   9.788   5.303   6.550
55003SOL    HW166783   9.843   5.273   6.622
55003SOL    HW266784   9.780   5.398   6.564
55004SOL     OW66785   7.566   2.892  14.262
55004SOL    HW166786   7.551   2.817  14.203
55004SOL    HW266787   7.620   2.952  14.211
55005SOL     OW66788   6.722   1.986  14.306
55005SOL    HW166789   6.727   1.986  14.402
55005SOL    HW266790   6.746   1.897  14.281
55006SOL     OW66791   9.581   8.836   0.923
55006SOL    HW166792   9.600   8.921   0.962
55006SOL    HW266793   9.615   8.772   0.985
55007SOL     OW66794   6.064  14.731   7.315
55007SOL    HW166795   6.000  14.772   7.374
55007SOL    HW266796   6.021  14.733   7.230
55008SOL     OW66797   5.490   2.479  13.573
55008SOL    HW166798   5.428   2.437  13.513
55008SOL    HW266799   5.469   2.572  13.568
55009SOL     OW66800  12.675   5.273  13.978
55009SOL    HW166801  12.708   5.346  14.031
55009SOL    HW266802  12.699   5.296  13.888
55010SOL     OW66803   7.110  10.025   6.098
55010SOL    HW166804   7.150   9.947   6.138
55010SOL    HW266805   7.091   9.999   6.008
55011SOL     OW66806  12.873   3.212   1.770
55011SOL    HW166807  12.914   3.126   1.760
55011SOL    HW266808  12.780   3.197   1.754
55012SOL     OW66809  10.156   6.308   1.863
55012SOL    HW166810  10.224   6.249   1.831
55012SOL    HW266811  10.182   6.327   1.953
55013SOL     OW66812  10.922   5.400   8.807
55013SOL    HW166813  10.900   5.353   8.887
55013SOL    HW266814  10.837   5.419   8.767
55014SOL     OW66815  12.828   2.296   5.137
55014SOL    HW166816  12.842   2.330   5.049
55014SOL    HW266817  12.781   2.365   5.183
55015SOL     OW66818   4.311   9.665  12.376
55015SOL    HW166819   4.321   9.690  12.468
55015SOL    HW266820   4.291   9.572  12.378
55016SOL     OW66821  13.060  10.919   2.384
55016SOL    HW166822  13.109  10.837   2.381
55016SOL    HW266823  13.069  10.955   2.295
55017SOL     OW66824  12.983   2.936   3.210
55017SOL    HW166825  12.998   2.849   3.249
55017SOL    HW266826  13.059   2.951   3.155
55018SOL     OW66827   3.665   8.748   3.134
55018SOL    HW166828   3.644   8.791   3.051
55018SOL    HW266829   3.727   8.678   3.110
55019SOL     OW66830  11.381   3.388  12.314
55019SOL    HW166831  11.456   3.369  12.258
55019SOL    HW266832  11.397   3.477  12.346
55020SOL     OW66833   3.529   7.058  11.748
55020SOL    HW166834   3.460   7.122  11.731
55020SOL    HW266835   3.485   6.973  11.747
55021SOL     OW66836   6.236   1.306   5.627
55021SOL    HW166837   6.300   1.308   5.556
55021SOL    HW266838   6.182   1.384   5.613
55022SOL     OW66839   4.697  12.630   9.282
55022SOL    HW166840   4.649  12.617   9.364
55022SOL    HW266841   4.713  12.724   9.279
55023SOL     OW66842  14.236  13.322   1.509
55023SOL    HW166843  14.263  13.233   1.531
55023SOL    HW266844  14.316  13.364   1.478
55024SOL     OW66845   1.538  11.204   7.857
55024SOL    HW166846   1.458  11.197   7.909
55024SOL    HW266847   1.535  11.292   7.819
55025SOL     OW66848   2.725  12.571  13.785
55025SOL    HW166849   2.747  12.644  13.726
55025SOL    HW266850   2.631  12.578  13.797
55026SOL     OW66851   0.026   7.416   6.310
55026SOL    HW166852   0.098   7.459   6.265
55026SOL    HW266853   0.055   7.325   6.320
55027SOL     OW66854   3.823   4.969   6.045
55027SOL    HW166855   3.898   4.910   6.041
55027SOL    HW266856   3.755   4.918   6.089
55028SOL     OW66857   8.102  11.625   6.805
55028SOL    HW166858   8.181  11.571   6.795
55028SOL    HW266859   8.125  11.709   6.765
55029SOL     OW66860  11.478   1.894   9.915
55029SOL    HW166861  11.506   1.831   9.981
55029SOL    HW266862  11.399   1.855   9.876
55030SOL     OW66863   6.486  12.467   9.516
55030SOL    HW166864   6.579  12.475   9.495
55030SOL    HW266865   6.477  12.502   9.605
55031SOL     OW66866   5.557  13.779   7.439
55031SOL    HW166867   5.630  13.825   7.397
55031SOL    HW266868   5.582  13.686   7.437
55032SOL     OW66869   9.950   4.106   2.102
55032SOL    HW166870   9.948   4.065   2.016
55032SOL    HW266871  10.029   4.158   2.102
55033SOL     OW66872   1.250   0.290   6.745
55033SOL    HW166873   1.243   0.367   6.688
55033SOL    HW266874   1.170   0.240   6.727
55034SOL     OW66875  13.357  10.550   5.380
55034SOL    HW166876  13.333  10.603   5.457
55034SOL    HW266877  13.433  10.500   5.409
55035SOL     OW66878   8.791   6.301   6.107
55035SOL    HW166879   8.790   6.205   6.102
55035SOL    HW266880   8.811   6.319   6.199
55036SOL     OW66881   2.681   6.233   5.733
55036SOL    HW166882   2.713   6.324   5.729
55036SOL    HW266883   2.590   6.239   5.706
55037SOL     OW66884   2.938  10.246   2.579
55037SOL    HW166885   2.951  10.286   2.493
55037SOL    HW266886   2.844  10.224   2.581
55038SOL     OW66887  11.786   6.943   7.870
55038SOL    HW166888  11.755   6.941   7.780
55038SOL    HW266889  11.863   7.000   7.868
55039SOL     OW66890   8.225   6.021   6.102
55039SOL    HW166891   8.146   5.968   6.109
55039SOL    HW266892   8.220   6.082   6.176
55040SOL     OW66893   5.190   2.933   1.279
55040SOL    HW166894   5.166   2.870   1.211
55040SOL    HW266895   5.118   2.995   1.280
55041SOL     OW66896   4.358  10.104   0.136
55041SOL    HW166897   4.300  10.031   0.158
55041SOL    HW266898   4.436  10.090   0.190
55042SOL     OW66899   3.832   9.954   0.812
55042SOL    HW166900   3.823   9.871   0.766
55042SOL    HW266901   3.754   9.961   0.867
55043SOL     OW66902   9.843  10.685   7.889
55043SOL    HW166903   9.798  10.699   7.972
55043SOL    HW266904   9.792  10.735   7.825
55044SOL     OW66905   1.582   4.078   4.251
55044SOL    HW166906   1.504   4.063   4.303
55044SOL    HW266907   1.552   4.131   4.177
55045SOL     OW66908  12.431   7.413   8.044
55045SOL    HW166909  12.389   7.464   7.974
55045SOL    HW266910  12.365   7.348   8.068
55046SOL     OW66911   8.218   3.760   4.850
55046SOL    HW166912   8.211   3.685   4.910
55046SOL    HW266913   8.128   3.778   4.824
55047SOL     OW66914  11.122   5.021  11.222
55047SOL    HW166915  11.161   5.108  11.228
55047SOL    HW266916  11.032   5.033  11.253
55048SOL     OW66917   0.365   2.657   5.174
55048SOL    HW166918   0.306   2.676   5.102
55048SOL    HW266919   0.451   2.648   5.133
55049SOL     OW66920   2.929   5.949   9.276
55049SOL    HW166921   2.924   6.040   9.248
55049SOL    HW266922   3.009   5.916   9.234
55050SOL     OW66923   5.682   2.118   8.903
55050SOL    HW166924   5.589   2.095   8.894
55050SOL    HW266925   5.690   2.148   8.994
55051SOL     OW66926   1.797   5.631   3.398
55051SOL    HW166927   1.733   5.593   3.338
55051SOL    HW266928   1.746   5.684   3.459
55052SOL     OW66929  13.217   3.117  11.817
55052SOL    HW166930  13.285   3.063  11.775
55052SOL    HW266931  13.263   3.196  11.845
55053SOL     OW66932  13.270   5.727   1.176
55053SOL    HW166933  13.333   5.720   1.104
55053SOL    HW266934  13.185   5.716   1.135
55054SOL     OW66935   6.952   6.891   6.884
55054SOL    HW166936   6.906   6.865   6.964
55054SOL    HW266937   7.006   6.966   6.911
55055SOL     OW66938   4.761   0.675   7.637
55055SOL    HW166939   4.819   0.671   7.562
55055SOL    HW266940   4.820   0.678   7.713
55056SOL     OW66941   1.494   5.422   0.285
55056SOL    HW166942   1.510   5.351   0.347
55056SOL    HW266943   1.545   5.495   0.318
55057SOL     OW66944   2.348   1.265   6.928
55057SOL    HW166945   2.269   1.311   6.956
55057SOL    HW266946   2.385   1.321   6.860
55058SOL     OW66947   8.821  10.888   6.821
55058SOL    HW166948   8.878  10.811   6.822
55058SOL    HW266949   8.865  10.950   6.764
55059SOL     OW66950  11.950  12.759  13.883
55059SOL    HW166951  11.855  12.756  13.874
55059SOL    HW266952  11.967  12.729  13.973
55060SOL     OW66953   4.941   7.365   7.417
55060SOL    HW166954   4.997   7.325   7.484
55060SOL    HW266955   4.900   7.439   7.460
55061SOL     OW66956   6.783   1.212   0.041
55061SOL    HW166957   6.807   1.215   0.134
55061SOL    HW266958   6.857   1.252  14.874
55062SOL     OW66959   8.005   3.005   7.092
55062SOL    HW166960   7.916   2.973   7.107
55062SOL    HW266961   8.050   2.987   7.175
55063SOL     OW66962   6.719   2.582   0.917
55063SOL    HW166963   6.667   2.601   0.995
55063SOL    HW266964   6.738   2.669   0.880
55064SOL     OW66965  11.950   3.709   0.301
55064SOL    HW166966  11.977   3.789   0.345
55064SOL    HW266967  11.855   3.717   0.292
55065SOL     OW66968   5.851   1.101  11.604
55065SOL    HW166969   5.933   1.053  11.616
55065SOL    HW266970   5.793   1.068  11.673
55066SOL     OW66971   7.506   7.741  11.326
55066SOL    HW166972   7.449   7.699  11.261
55066SOL    HW266973   7.591   7.699  11.314
55067SOL     OW66974   9.508  10.099  13.010
55067SOL    HW166975   9.427  10.115  12.962
55067SOL    HW266976   9.538  10.186  13.036
55068SOL     OW66977   1.360  12.923  10.127
55068SOL    HW166978   1.286  12.974  10.095
55068SOL    HW266979   1.334  12.894  10.214
55069SOL     OW66980  11.053   9.467   7.238
55069SOL    HW166981  11.145   9.442   7.239
55069SOL    HW266982  11.021   9.445   7.326
55070SOL     OW66983   6.315  13.538   5.327
55070SOL    HW166984   6.337  13.527   5.234
55070SOL    HW266985   6.400  13.536   5.372
55071SOL     OW66986   7.935  11.958   8.449
55071SOL    HW166987   7.971  11.945   8.362
55071SOL    HW266988   7.840  11.947   8.438
55072SOL     OW66989   6.271  13.743  12.575
55072SOL    HW166990   6.346  13.757  12.518
55072SOL    HW266991   6.305  13.691  12.648
55073SOL     OW66992   7.923  12.761  10.376
55073SOL    HW166993   8.018  12.773  10.382
55073SOL    HW266994   7.904  12.773  10.283
55074SOL     OW66995   5.585  12.028   0.052
55074SOL    HW166996   5.508  12.042   0.106
55074SOL    HW266997   5.653  12.083   0.092
55075SOL     OW66998   8.830   2.475   1.293
55075SOL    HW166999   8.854   2.434   1.376
55075SOL    HW267000   8.735   2.464   1.287
55076SOL     OW67001  11.882   2.133   6.573
55076SOL    HW167002  11.857   2.225   6.564
55076SOL    HW267003  11.852   2.109   6.661
55077SOL     OW67004   3.788   7.624   6.253
55077SOL    HW167005   3.784   7.529   6.239
55077SOL    HW267006   3.881   7.643   6.262
55078SOL     OW67007   6.044   6.299   4.330
55078SOL    HW167008   6.076   6.369   4.273
55078SOL    HW267009   6.123   6.257   4.363
55079SOL     OW67010  14.179   8.078  12.201
55079SOL    HW167011  14.228   8.091  12.120
55079SOL    HW267012  14.147   7.988  12.196
55080SOL     OW67013   4.110   8.237   8.197
55080SOL    HW167014   4.064   8.312   8.233
55080SOL    HW267015   4.202   8.254   8.217
55081SOL     OW67016   3.554   0.393   9.148
55081SOL    HW167017   3.559   0.346   9.231
55081SOL    HW267018   3.517   0.478   9.170
55082SOL     OW67019   5.127   5.891   1.814
55082SOL    HW167020   5.078   5.813   1.787
55082SOL    HW267021   5.060   5.960   1.818
55083SOL     OW67022  14.692   4.928  13.190
55083SOL    HW167023  14.606   4.931  13.232
55083SOL    HW267024  14.723   4.839  13.207
55084SOL     OW67025  12.177  12.871  12.889
55084SOL    HW167026  12.173  12.854  12.794
55084SOL    HW267027  12.094  12.836  12.922
55085SOL     OW67028  13.385   2.507   7.050
55085SOL    HW167029  13.425   2.424   7.074
55085SOL    HW267030  13.395   2.512   6.955
55086SOL     OW67031   3.415   4.033   9.336
55086SOL    HW167032   3.401   4.014   9.243
55086SOL    HW267033   3.352   4.103   9.356
55087SOL     OW67034  12.123  10.848   8.849
55087SOL    HW167035  12.212  10.820   8.826
55087SOL    HW267036  12.135  10.930   8.896
55088SOL     OW67037   6.786   5.667   5.836
55088SOL    HW167038   6.712   5.703   5.787
55088SOL    HW267039   6.785   5.574   5.815
55089SOL     OW67040   2.732  10.496   8.004
55089SOL    HW167041   2.658  10.557   8.006
55089SOL    HW267042   2.767  10.498   8.093
55090SOL     OW67043   4.219   7.570   3.102
55090SOL    HW167044   4.211   7.520   3.021
55090SOL    HW267045   4.171   7.651   3.085
55091SOL     OW67046  10.450   3.449   5.683
55091SOL    HW167047  10.457   3.433   5.777
55091SOL    HW267048  10.541   3.449   5.652
55092SOL     OW67049   5.180   1.347  12.048
55092SOL    HW167050   5.177   1.328  12.142
55092SOL    HW267051   5.144   1.435  12.039
55093SOL     OW67052  13.386   3.942  14.001
55093SOL    HW167053  13.341   3.944  14.086
55093SOL    HW267054  13.343   4.011  13.950
55094SOL     OW67055   5.705   9.757  12.864
55094SOL    HW167056   5.793   9.786  12.890
55094SOL    HW267057   5.708   9.662  12.873
55095SOL     OW67058   7.278   9.235   4.685
55095SOL    HW167059   7.343   9.297   4.651
55095SOL    HW267060   7.320   9.149   4.675
55096SOL     OW67061  14.281  13.643  10.372
55096SOL    HW167062  14.276  13.647  10.468
55096SOL    HW267063  14.224  13.570  10.348
55097SOL     OW67064   4.062  13.965  14.656
55097SOL    HW167065   4.076  13.877  14.690
55097SOL    HW267066   4.108  14.022  14.718
55098SOL     OW67067   1.172   5.930   9.470
55098SOL    HW167068   1.260   5.892   9.466
55098SOL    HW267069   1.177   5.996   9.539
55099SOL     OW67070  12.469  14.229  14.186
55099SOL    HW167071  12.431  14.277  14.260
55099SOL    HW267072  12.563  14.247  14.191
55100SOL     OW67073   2.197   1.514  12.761
55100SOL    HW167074   2.199   1.419  12.764
55100SOL    HW267075   2.210   1.535  12.668
55101SOL     OW67076   0.611   9.016   1.193
55101SOL    HW167077   0.699   9.052   1.204
55101SOL    HW267078   0.568   9.033   1.277
55102SOL     OW67079   7.067  12.479   6.005
55102SOL    HW167080   7.025  12.404   5.964
55102SOL    HW267081   7.160  12.457   6.008
55103SOL     OW67082   8.693   0.691   9.839
55103SOL    HW167083   8.607   0.704   9.798
55103SOL    HW267084   8.756   0.710   9.770
55104SOL     OW67085  13.384   8.119   4.706
55104SOL    HW167086  13.291   8.142   4.696
55104SOL    HW267087  13.393   8.093   4.797
55105SOL     OW67088   9.686   1.229  10.645
55105SOL    HW167089   9.660   1.153  10.593
55105SOL    HW267090   9.614   1.292  10.634
55106SOL     OW67091  11.236  10.533  13.347
55106SOL    HW167092  11.264  10.443  13.333
55106SOL    HW267093  11.151  10.539  13.302
55107SOL     OW67094   2.262   7.319  12.278
55107SOL    HW167095   2.254   7.302  12.184
55107SOL    HW267096   2.352   7.294  12.299
55108SOL     OW67097   3.486   6.175   0.180
55108SOL    HW167098   3.398   6.211   0.188
55108SOL    HW267099   3.511   6.194   0.090
55109SOL     OW67100   6.649  12.724  13.861
55109SOL    HW167101   6.679  12.809  13.892
55109SOL    HW267102   6.711  12.661  13.897
55110SOL     OW67103   3.184   5.350  10.337
55110SOL    HW167104   3.175   5.400  10.418
55110SOL    HW267105   3.227   5.269  10.363
55111SOL     OW67106  14.483   4.698  12.930
55111SOL    HW167107  14.476   4.793  12.937
55111SOL    HW267108  14.545   4.684  12.858
55112SOL     OW67109   3.736   2.668   2.148
55112SOL    HW167110   3.760   2.626   2.230
55112SOL    HW267111   3.641   2.676   2.152
55113SOL     OW67112   5.429   9.927   9.302
55113SOL    HW167113   5.408  10.006   9.352
55113SOL    HW267114   5.377   9.858   9.344
55114SOL     OW67115   6.733  14.486   8.167
55114SOL    HW167116   6.728  14.520   8.257
55114SOL    HW267117   6.820  14.445   8.162
55115SOL     OW67118  14.792   1.573   1.795
55115SOL    HW167119  14.765   1.545   1.707
55115SOL    HW267120   0.004   1.539   1.804
55116SOL     OW67121  12.963   3.663   9.701
55116SOL    HW167122  13.033   3.615   9.657
55116SOL    HW267123  12.935   3.604   9.772
55117SOL     OW67124   9.847   4.779   2.291
55117SOL    HW167125   9.922   4.775   2.351
55117SOL    HW267126   9.774   4.806   2.347
55118SOL     OW67127   4.036   7.640  11.983
55118SOL    HW167128   4.095   7.582  11.934
55118SOL    HW267129   3.997   7.583  12.049
55119SOL     OW67130   7.353  14.046   9.567
55119SOL    HW167131   7.437  14.009   9.541
55119SOL    HW267132   7.330  14.000   9.647
55120SOL     OW67133   5.509   0.163  13.999
55120SOL    HW167134   5.510   0.086  13.943
55120SOL    HW267135   5.588   0.154  14.052
55121SOL     OW67136  14.877   7.592   0.939
55121SOL    HW167137   0.029   7.648   1.010
55121SOL    HW267138   0.069   7.596   0.874
55122SOL     OW67139   7.321   3.347  13.628
55122SOL    HW167140   7.297   3.379  13.541
55122SOL    HW267141   7.400   3.295  13.613
55123SOL     OW67142   4.374  13.853   9.159
55123SOL    HW167143   4.335  13.767   9.143
55123SOL    HW267144   4.459  13.850   9.114
55124SOL     OW67145   6.624   7.113   7.755
55124SOL    HW167146   6.676   7.061   7.694
55124SOL    HW267147   6.682   7.127   7.830
55125SOL     OW67148   1.693   2.845   9.634
55125SOL    HW167149   1.742   2.828   9.553
55125SOL    HW267150   1.602   2.828   9.611
55126SOL     OW67151  11.267   6.931   5.704
55126SOL    HW167152  11.183   6.971   5.682
55126SOL    HW267153  11.263   6.918   5.799
55127SOL     OW67154   1.477   2.874   9.997
55127SOL    HW167155   1.464   2.834  10.083
55127SOL    HW267156   1.516   2.804   9.945
55128SOL     OW67157   1.353   9.868   0.020
55128SOL    HW167158   1.305   9.792   0.051
55128SOL    HW267159   1.433   9.832  14.860
55129SOL     OW67160   8.307  12.245  11.944
55129SOL    HW167161   8.397  12.236  11.914
55129SOL    HW267162   8.263  12.165  11.915
55130SOL     OW67163   4.501  12.199   5.884
55130SOL    HW167164   4.468  12.132   5.825
55130SOL    HW267165   4.592  12.212   5.857
55131SOL     OW67166  14.119   4.021  14.583
55131SOL    HW167167  14.082   4.019  14.672
55131SOL    HW267168  14.084   4.101  14.545
55132SOL     OW67169   0.412  14.592   2.674
55132SOL    HW167170   0.468  14.615   2.749
55132SOL    HW267171   0.419  14.497   2.669
55133SOL     OW67172   7.439   2.191  13.585
55133SOL    HW167173   7.452   2.100  13.614
55133SOL    HW267174   7.356   2.217  13.623
55134SOL     OW67175   7.006   4.902   7.964
55134SOL    HW167176   7.002   4.943   7.878
55134SOL    HW267177   7.084   4.939   8.005
55135SOL     OW67178   0.874   2.893   0.122
55135SOL    HW167179   0.941   2.876   0.189
55135SOL    HW267180   0.884   2.820   0.060
55136SOL     OW67181   4.464   1.629   9.042
55136SOL    HW167182   4.516   1.588   8.973
55136SOL    HW267183   4.506   1.714   9.058
55137SOL     OW67184   1.620  10.415   3.134
55137SOL    HW167185   1.542  10.375   3.096
55137SOL    HW267186   1.671  10.445   3.059
55138SOL     OW67187  10.862   1.206   3.857
55138SOL    HW167188  10.913   1.200   3.776
55138SOL    HW267189  10.771   1.194   3.829
55139SOL     OW67190  11.288  14.275  14.369
55139SOL    HW167191  11.290  14.368  14.394
55139SOL    HW267192  11.248  14.231  14.444
55140SOL     OW67193   6.763  13.089  12.846
55140SOL    HW167194   6.819  13.064  12.773
55140SOL    HW267195   6.790  13.031  12.918
55141SOL     OW67196  12.667  12.670   3.752
55141SOL    HW167197  12.590  12.620   3.724
55141SOL    HW267198  12.634  12.729   3.819
55142SOL     OW67199   9.186  13.654  12.268
55142SOL    HW167200   9.240  13.688  12.196
55142SOL    HW267201   9.227  13.571  12.292
55143SOL     OW67202   0.763  10.570  12.201
55143SOL    HW167203   0.839  10.603  12.249
55143SOL    HW267204   0.731  10.498  12.254
55144SOL     OW67205  11.531   5.458  12.504
55144SOL    HW167206  11.626   5.469  12.496
55144SOL    HW267207  11.509   5.394  12.437
55145SOL     OW67208   4.880   1.137  14.618
55145SOL    HW167209   4.841   1.151  14.704
55145SOL    HW267210   4.963   1.092  14.636
55146SOL     OW67211   3.893   7.292   9.393
55146SOL    HW167212   3.972   7.253   9.358
55146SOL    HW267213   3.917   7.318   9.482
55147SOL     OW67214   2.929   9.017   3.961
55147SOL    HW167215   2.993   9.081   3.929
55147SOL    HW267216   2.907   9.048   4.049
55148SOL     OW67217   4.626   5.884  13.882
55148SOL    HW167218   4.710   5.921  13.852
55148SOL    HW267219   4.575   5.874  13.802
55149SOL     OW67220   7.399  11.675  12.914
55149SOL    HW167221   7.438  11.588  12.914
55149SOL    HW267222   7.470  11.733  12.884
55150SOL     OW67223   9.684  10.652   5.897
55150SOL    HW167224   9.595  10.675   5.925
55150SOL    HW267225   9.703  10.570   5.943
55151SOL     OW67226   0.848   8.460  13.088
55151SOL    HW167227   0.887   8.544  13.064
55151SOL    HW267228   0.791   8.438  13.014
55152SOL     OW67229  13.381  11.806  13.432
55152SOL    HW167230  13.317  11.748  13.391
55152SOL    HW267231  13.382  11.780  13.524
55153SOL     OW67232   0.463  13.139  11.557
55153SOL    HW167233   0.416  13.222  11.567
55153SOL    HW267234   0.523  13.136  11.632
55154SOL     OW67235   7.485   1.028   3.010
55154SOL    HW167236   7.453   1.113   2.978
55154SOL    HW267237   7.533   1.049   3.090
55155SOL     OW67238   0.921  13.923   8.034
55155SOL    HW167239   0.864  13.846   8.035
55155SOL    HW267240   1.010  13.887   8.036
55156SOL     OW67241  12.087   5.852   3.574
55156SOL    HW167242  11.992   5.843   3.574
55156SOL    HW267243  12.104   5.939   3.539
55157SOL     OW67244   9.788   5.136  12.713
55157SOL    HW167245   9.715   5.148  12.773
55157SOL    HW267246   9.783   5.211  12.654
55158SOL     OW67247   8.840   6.677   6.302
55158SOL    HW167248   8.860   6.740   6.233
55158SOL    HW267249   8.828   6.730   6.380
55159SOL     OW67250   9.794   8.229   5.085
55159SOL    HW167251   9.722   8.199   5.142
55159SOL    HW267252   9.822   8.312   5.124
55160SOL     OW67253   3.264  10.329  13.423
55160SOL    HW167254   3.351  10.367  13.434
55160SOL    HW267255   3.219  10.391  13.365
55161SOL     OW67256   6.481   8.283   0.285
55161SOL    HW167257   6.390   8.277   0.315
55161SOL    HW267258   6.515   8.362   0.328
55162SOL     OW67259  12.965   5.400  12.543
55162SOL    HW167260  12.874   5.400  12.572
55162SOL    HW267261  12.992   5.492  12.546
55163SOL     OW67262   1.813   7.432  12.754
55163SOL    HW167263   1.766   7.369  12.698
55163SOL    HW267264   1.743   7.483  12.795
55164SOL     OW67265   5.883  14.361   4.688
55164SOL    HW167266   5.808  14.315   4.650
55164SOL    HW267267   5.885  14.333   4.780
55165SOL     OW67268   5.436   3.119   9.966
55165SOL    HW167269   5.389   3.126   9.883
55165SOL    HW267270   5.491   3.042   9.956
55166SOL     OW67271   6.473   4.400   7.909
55166SOL    HW167272   6.380   4.409   7.890
55166SOL    HW267273   6.513   4.481   7.876
55167SOL     OW67274   6.501   4.756   7.021
55167SOL    HW167275   6.441   4.764   6.947
55167SOL    HW267276   6.568   4.694   6.990
55168SOL     OW67277   1.397   1.518  11.568
55168SOL    HW167278   1.438   1.482  11.490
55168SOL    HW267279   1.416   1.612  11.564
55169SOL     OW67280  10.190   3.437   3.486
55169SOL    HW167281  10.149   3.516   3.451
55169SOL    HW267282  10.116   3.381   3.511
55170SOL     OW67283   3.397   9.512  11.003
55170SOL    HW167284   3.457   9.505  10.929
55170SOL    HW267285   3.380   9.606  11.012
55171SOL     OW67286   6.192   9.388  13.507
55171SOL    HW167287   6.238   9.406  13.589
55171SOL    HW267288   6.125   9.323  13.531
55172SOL     OW67289   1.783  13.911  12.915
55172SOL    HW167290   1.801  13.870  13.000
55172SOL    HW267291   1.869  13.916  12.872
55173SOL     OW67292   3.997   3.278  14.269
55173SOL    HW167293   4.032   3.207  14.323
55173SOL    HW267294   4.042   3.356  14.302
55174SOL     OW67295   3.021  12.912   4.923
55174SOL    HW167296   2.977  12.900   4.839
55174SOL    HW267297   2.956  12.885   4.988
55175SOL     OW67298   8.710   0.686  11.066
55175SOL    HW167299   8.665   0.756  11.019
55175SOL    HW267300   8.772   0.650  11.003
55176SOL     OW67301   1.456  11.566   4.068
55176SOL    HW167302   1.496  11.577   3.981
55176SOL    HW267303   1.362  11.567   4.051
55177SOL     OW67304   3.546  13.651   0.935
55177SOL    HW167305   3.629  13.679   0.896
55177SOL    HW267306   3.555  13.556   0.942
55178SOL     OW67307   0.584   3.714   2.423
55178SOL    HW167308   0.533   3.691   2.500
55178SOL    HW267309   0.562   3.805   2.406
55179SOL     OW67310   1.319   7.467   7.634
55179SOL    HW167311   1.236   7.466   7.682
55179SOL    HW267312   1.342   7.560   7.630
55180SOL     OW67313   4.265   4.584  12.783
55180SOL    HW167314   4.354   4.562  12.755
55180SOL    HW267315   4.211   4.514  12.748
55181SOL     OW67316   0.332   4.861   4.917
55181SOL    HW167317   0.416   4.867   4.870
55181SOL    HW267318   0.266   4.872   4.849
55182SOL     OW67319   7.345  13.530   3.296
55182SOL    HW167320   7.419  13.522   3.235
55182SOL    HW267321   7.385  13.525   3.383
55183SOL     OW67322  12.725   1.662   6.397
55183SOL    HW167323  12.730   1.570   6.421
55183SOL    HW267324  12.631   1.680   6.390
55184SOL     OW67325   0.512  10.304   0.262
55184SOL    HW167326   0.474  10.391   0.258
55184SOL    HW267327   0.445  10.246   0.226
55185SOL     OW67328   0.275  10.743   4.215
55185SOL    HW167329   0.259  10.825   4.167
55185SOL    HW267330   0.348  10.763   4.274
55186SOL     OW67331   8.670   3.235   3.382
55186SOL    HW167332   8.721   3.172   3.432
55186SOL    HW267333   8.579   3.209   3.396
55187SOL     OW67334   2.195  11.912   4.485
55187SOL    HW167335   2.126  11.844   4.485
55187SOL    HW267336   2.243  11.897   4.566
55188SOL     OW67337   2.835   4.672   2.442
55188SOL    HW167338   2.779   4.673   2.364
55188SOL    HW267339   2.827   4.761   2.478
55189SOL     OW67340   0.822   8.162  14.446
55189SOL    HW167341   0.779   8.176  14.531
55189SOL    HW267342   0.914   8.149  14.468
55190SOL     OW67343  14.275   4.994  13.580
55190SOL    HW167344  14.296   4.902  13.596
55190SOL    HW267345  14.184   4.993  13.550
55191SOL     OW67346   5.110   9.711   3.863
55191SOL    HW167347   5.039   9.723   3.799
55191SOL    HW267348   5.097   9.622   3.896
55192SOL     OW67349  14.255   1.309  13.971
55192SOL    HW167350  14.303   1.353  14.041
55192SOL    HW267351  14.319   1.300  13.900
55193SOL     OW67352   5.395  13.264   1.346
55193SOL    HW167353   5.430  13.177   1.369
55193SOL    HW267354   5.305  13.262   1.377
55194SOL     OW67355   5.984   0.852   9.448
55194SOL    HW167356   5.919   0.917   9.421
55194SOL    HW267357   6.068   0.891   9.424
55195SOL     OW67358   0.501  11.866  14.411
55195SOL    HW167359   0.580  11.843  14.361
55195SOL    HW267360   0.489  11.960  14.394
55196SOL     OW67361  13.579   0.073  11.743
55196SOL    HW167362  13.617  14.868  11.771
55196SOL    HW267363  13.488   0.069  11.772
55197SOL     OW67364   9.809   5.771   4.278
55197SOL    HW167365   9.801   5.680   4.250
55197SOL    HW267366   9.845   5.766   4.367
55198SOL     OW67367   1.917   4.452   5.195
55198SOL    HW167368   1.927   4.357   5.206
55198SOL    HW267369   1.957   4.489   5.274
55199SOL     OW67370   1.352  12.805   0.015
55199SOL    HW167371   1.446  12.810   0.004
55199SOL    HW267372   1.324  12.733  14.837
55200SOL     OW67373   1.453   9.489   8.458
55200SOL    HW167374   1.361   9.510   8.472
55200SOL    HW267375   1.452   9.434   8.379
55201SOL     OW67376   3.006   6.879   2.838
55201SOL    HW167377   2.959   6.954   2.875
55201SOL    HW267378   3.001   6.892   2.744
55202SOL     OW67379   7.860  10.499   1.181
55202SOL    HW167380   7.918  10.458   1.117
55202SOL    HW267381   7.795  10.432   1.201
55203SOL     OW67382   6.687   4.019  11.490
55203SOL    HW167383   6.657   4.106  11.461
55203SOL    HW267384   6.696   3.969  11.409
55204SOL     OW67385   6.069   2.024  14.061
55204SOL    HW167386   6.024   2.083  14.123
55204SOL    HW267387   6.158   2.058  14.058
55205SOL     OW67388   8.716  13.553  13.902
55205SOL    HW167389   8.749  13.605  13.975
55205SOL    HW267390   8.794  13.513  13.863
55206SOL     OW67391   9.195   4.465  13.390
55206SOL    HW167392   9.245   4.546  13.395
55206SOL    HW267393   9.256   4.397  13.419
55207SOL     OW67394   6.899   8.228   4.903
55207SOL    HW167395   6.943   8.309   4.930
55207SOL    HW267396   6.865   8.191   4.985
55208SOL     OW67397  13.626   1.533   5.249
55208SOL    HW167398  13.703   1.589   5.253
55208SOL    HW267399  13.570   1.574   5.182
55209SOL     OW67400   5.028   4.394   0.886
55209SOL    HW167401   5.004   4.424   0.798
55209SOL    HW267402   4.951   4.346   0.916
55210SOL     OW67403   6.391  12.527   5.572
55210SOL    HW167404   6.353  12.522   5.484
55210SOL    HW267405   6.477  12.485   5.564
55211SOL     OW67406   9.806   7.182   7.609
55211SOL    HW167407   9.754   7.189   7.689
55211SOL    HW267408   9.866   7.257   7.612
55212SOL     OW67409  13.601   2.370   8.216
55212SOL    HW167410  13.529   2.320   8.178
55212SOL    HW267411  13.670   2.305   8.231
55213SOL     OW67412   3.614   1.347  11.621
55213SOL    HW167413   3.691   1.389  11.659
55213SOL    HW267414   3.560   1.420  11.591
55214SOL     OW67415  12.622   8.639   2.908
55214SOL    HW167416  12.550   8.608   2.963
55214SOL    HW267417  12.581   8.695   2.843
55215SOL     OW67418   7.511  14.807  11.382
55215SOL    HW167419   7.579  14.804  11.315
55215SOL    HW267420   7.483   0.021  11.385
55216SOL     OW67421  12.593   5.485  13.009
55216SOL    HW167422  12.601   5.575  13.040
55216SOL    HW267423  12.615   5.431  13.085
55217SOL     OW67424   5.027   5.726  12.148
55217SOL    HW167425   5.050   5.807  12.103
55217SOL    HW267426   5.085   5.724  12.224
55218SOL     OW67427   9.230  11.241  12.758
55218SOL    HW167428   9.317  11.203  12.755
55218SOL    HW267429   9.212  11.266  12.667
55219SOL     OW67430  11.844  11.484   3.149
55219SOL    HW167431  11.833  11.577   3.130
55219SOL    HW267432  11.938  11.472   3.160
55220SOL     OW67433  13.765  12.449   5.772
55220SOL    HW167434  13.712  12.384   5.724
55220SOL    HW267435  13.752  12.427   5.864
55221SOL     OW67436  13.999   8.497  11.648
55221SOL    HW167437  14.026   8.408  11.626
55221SOL    HW267438  14.071   8.552  11.616
55222SOL     OW67439   6.430   2.504  10.776
55222SOL    HW167440   6.366   2.433  10.787
55222SOL    HW267441   6.471   2.512  10.862
55223SOL     OW67442   8.733  12.389   4.329
55223SOL    HW167443   8.683  12.471   4.328
55223SOL    HW267444   8.676  12.326   4.372
55224SOL     OW67445  12.931   8.251  12.165
55224SOL    HW167446  12.852   8.303  12.152
55224SOL    HW267447  12.967   8.239  12.077
55225SOL     OW67448  11.108  13.286   5.508
55225SOL    HW167449  11.100  13.219   5.440
55225SOL    HW267450  11.024  13.332   5.506
55226SOL     OW67451   1.320   9.265  14.020
55226SOL    HW167452   1.300   9.179  13.983
55226SOL    HW267453   1.339   9.248  14.112
55227SOL     OW67454   7.937   0.362   8.029
55227SOL    HW167455   7.924   0.452   8.000
55227SOL    HW267456   7.998   0.370   8.103
55228SOL     OW67457   4.280   2.029   4.311
55228SOL    HW167458   4.322   2.000   4.392
55228SOL    HW267459   4.277   1.950   4.257
55229SOL     OW67460   7.092   3.395   7.402
55229SOL    HW167461   7.013   3.346   7.377
55229SOL    HW267462   7.164   3.336   7.382
55230SOL     OW67463   6.599   2.965  14.717
55230SOL    HW167464   6.598   2.912  14.797
55230SOL    HW267465   6.515   2.945  14.674
55231SOL     OW67466   5.411   1.467   9.811
55231SOL    HW167467   5.316   1.464   9.812
55231SOL    HW267468   5.438   1.416   9.888
55232SOL     OW67469   7.313   3.077   6.397
55232SOL    HW167470   7.231   3.029   6.382
55232SOL    HW267471   7.348   3.041   6.478
55233SOL     OW67472   7.121   6.282  10.897
55233SOL    HW167473   7.034   6.306  10.927
55233SOL    HW267474   7.178   6.350  10.934
55234SOL     OW67475  10.641   2.007  14.249
55234SOL    HW167476  10.555   2.006  14.208
55234SOL    HW267477  10.657   1.916  14.273
55235SOL     OW67478  13.870  14.668  13.147
55235SOL    HW167479  13.937  14.635  13.207
55235SOL    HW267480  13.802  14.600  13.148
55236SOL     OW67481   0.861  13.140   1.294
55236SOL    HW167482   0.771  13.142   1.264
55236SOL    HW267483   0.914  13.136   1.214
55237SOL     OW67484  11.056   5.630   5.384
55237SOL    HW167485  10.978   5.574   5.382
55237SOL    HW267486  11.048   5.685   5.307
55238SOL     OW67487  13.425   4.881   4.596
55238SOL    HW167488  13.401   4.930   4.675
55238SOL    HW267489  13.510   4.917   4.571
55239SOL     OW67490   8.039   2.126   2.145
55239SOL    HW167491   7.947   2.106   2.158
55239SOL    HW267492   8.086   2.056   2.191
55240SOL     OW67493   5.590   4.881   5.669
55240SOL    HW167494   5.573   4.788   5.687
55240SOL    HW267495   5.585   4.888   5.574
55241SOL     OW67496   6.263   6.764   9.733
55241SOL    HW167497   6.342   6.732   9.777
55241SOL    HW267498   6.249   6.701   9.662
55242SOL     OW67499  10.276  13.434  13.374
55242SOL    HW167500  10.241  13.455  13.460
55242SOL    HW267501  10.339  13.504  13.356
55243SOL     OW67502   8.251  12.683   9.263
55243SOL    HW167503   8.223  12.603   9.308
55243SOL    HW267504   8.247  12.661   9.170
55244SOL     OW67505   8.899   6.218   5.117
55244SOL    HW167506   8.926   6.186   5.203
55244SOL    HW267507   8.823   6.274   5.135
55245SOL     OW67508   1.575   4.064   3.580
55245SOL    HW167509   1.532   4.139   3.540
55245SOL    HW267510   1.660   4.098   3.610
55246SOL     OW67511   1.312   9.222   3.064
55246SOL    HW167512   1.391   9.169   3.072
55246SOL    HW267513   1.241   9.159   3.062
55247SOL     OW67514   1.130   6.627   0.753
55247SOL    HW167515   1.044   6.644   0.716
55247SOL    HW267516   1.146   6.534   0.737
55248SOL     OW67517   5.209  12.810  11.416
55248SOL    HW167518   5.172  12.813  11.505
55248SOL    HW267519   5.304  12.814  11.430
55249SOL     OW67520  10.816   1.309   5.039
55249SOL    HW167521  10.729   1.294   5.001
55249SOL    HW267522  10.798   1.329   5.131
55250SOL     OW67523   1.954   7.058   0.030
55250SOL    HW167524   2.008   7.084   0.104
55250SOL    HW267525   2.002   6.986  14.868
55251SOL     OW67526   7.275   5.523   7.674
55251SOL    HW167527   7.337   5.586   7.710
55251SOL    HW267528   7.223   5.495   7.750
55252SOL     OW67529  10.593   7.107  12.804
55252SOL    HW167530  10.605   7.118  12.898
55252SOL    HW267531  10.540   7.183  12.778
55253SOL     OW67532   7.339   3.278  10.509
55253SOL    HW167533   7.325   3.296  10.416
55253SOL    HW267534   7.378   3.358  10.544
55254SOL     OW67535   4.730   0.295   1.581
55254SOL    HW167536   4.700   0.385   1.595
55254SOL    HW267537   4.713   0.250   1.664
55255SOL     OW67538   6.604   9.575  10.405
55255SOL    HW167539   6.605   9.667  10.380
55255SOL    HW267540   6.599   9.528  10.322
55256SOL     OW67541  11.789   7.355  11.868
55256SOL    HW167542  11.818   7.273  11.908
55256SOL    HW267543  11.721   7.388  11.928
55257SOL     OW67544  12.141   8.647   5.603
55257SOL    HW167545  12.045   8.652   5.604
55257SOL    HW267546  12.163   8.589   5.676
55258SOL     OW67547  11.125   0.531  14.725
55258SOL    HW167548  11.052   0.490  14.678
55258SOL    HW267549  11.146   0.609  14.673
55259SOL     OW67550   2.372   3.263  14.721
55259SOL    HW167551   2.373   3.358  14.708
55259SOL    HW267552   2.464   3.240  14.733
55260SOL     OW67553  14.327   0.563   4.045
55260SOL    HW167554  14.263   0.552   4.115
55260SOL    HW267555  14.377   0.641   4.070
55261SOL     OW67556   2.270  11.329   1.769
55261SOL    HW167557   2.245  11.238   1.751
55261SOL    HW267558   2.189  11.378   1.758
55262SOL     OW67559   9.569  12.609   7.858
55262SOL    HW167560   9.647  12.652   7.894
55262SOL    HW267561   9.535  12.556   7.931
55263SOL     OW67562  14.386  10.284   9.959
55263SOL    HW167563  14.345  10.330   9.886
55263SOL    HW267564  14.446  10.221   9.918
55264SOL     OW67565   9.993   0.503   5.859
55264SOL    HW167566  10.069   0.457   5.823
55264SOL    HW267567   9.987   0.473   5.950
55265SOL     OW67568   6.308  11.984   0.217
55265SOL    HW167569   6.346  12.027   0.141
55265SOL    HW267570   6.251  11.916   0.179
55266SOL     OW67571   0.942   7.749   1.457
55266SOL    HW167572   0.990   7.821   1.416
55266SOL    HW267573   0.997   7.673   1.443
55267SOL     OW67574   9.903   4.083   1.212
55267SOL    HW167575   9.911   4.004   1.158
55267SOL    HW267576   9.980   4.135   1.191
55268SOL     OW67577  12.722   3.164  11.605
55268SOL    HW167578  12.774   3.214  11.541
55268SOL    HW267579  12.778   3.090  11.628
55269SOL     OW67580  14.647   3.176   6.618
55269SOL    HW167581  14.630   3.259   6.662
55269SOL    HW267582  14.719   3.137   6.668
55270SOL     OW67583   4.301   9.040  10.399
55270SOL    HW167584   4.372   9.089  10.439
55270SOL    HW267585   4.223   9.095  10.412
55271SOL     OW67586   2.564   3.961   9.618
55271SOL    HW167587   2.538   3.878   9.659
55271SOL    HW267588   2.611   3.935   9.539
55272SOL     OW67589  12.734  10.948   8.472
55272SOL    HW167590  12.765  10.952   8.382
55272SOL    HW267591  12.795  11.003   8.521
55273SOL     OW67592   6.510  14.487  11.086
55273SOL    HW167593   6.574  14.554  11.062
55273SOL    HW267594   6.425  14.528  11.068
55274SOL     OW67595   8.576   1.171   9.705
55274SOL    HW167596   8.655   1.151   9.755
55274SOL    HW267597   8.569   1.266   9.707
55275SOL     OW67598   3.313  12.599   7.559
55275SOL    HW167599   3.271  12.550   7.488
55275SOL    HW267600   3.354  12.673   7.516
55276SOL     OW67601  10.935   4.866   1.818
55276SOL    HW167602  10.903   4.956   1.811
55276SOL    HW267603  11.031   4.874   1.812
55277SOL     OW67604   9.300   4.696   2.559
55277SOL    HW167605   9.257   4.759   2.617
55277SOL    HW267606   9.257   4.708   2.474
55278SOL     OW67607   5.964   5.401  13.988
55278SOL    HW167608   6.039   5.341  13.988
55278SOL    HW267609   5.889   5.346  14.010
55279SOL     OW67610   2.762  13.446  11.908
55279SOL    HW167611   2.797  13.509  11.845
55279SOL    HW267612   2.677  13.422  11.872
55280SOL     OW67613  12.880   1.624  14.666
55280SOL    HW167614  12.916   1.581  14.589
55280SOL    HW267615  12.871   1.716  14.640
55281SOL     OW67616   7.671  12.513   7.009
55281SOL    HW167617   7.762  12.517   7.038
55281SOL    HW267618   7.662  12.426   6.969
55282SOL     OW67619   8.147  12.368   3.330
55282SOL    HW167620   8.082  12.428   3.365
55282SOL    HW267621   8.211  12.425   3.287
55283SOL     OW67622   6.916   2.209   7.083
55283SOL    HW167623   6.954   2.277   7.026
55283SOL    HW267624   6.833   2.246   7.113
55284SOL     OW67625   4.566  11.744   8.354
55284SOL    HW167626   4.494  11.747   8.417
55284SOL    HW267627   4.524  11.755   8.269
55285SOL     OW67628   8.789   3.168   1.396
55285SOL    HW167629   8.740   3.246   1.421
55285SOL    HW267630   8.866   3.201   1.349
55286SOL     OW67631   7.997  13.172  14.022
55286SOL    HW167632   7.977  13.244  13.962
55286SOL    HW267633   8.084  13.193  14.056
55287SOL     OW67634  14.239   1.666  13.430
55287SOL    HW167635  14.163   1.719  13.453
55287SOL    HW267636  14.214   1.622  13.349
55288SOL     OW67637   5.679  14.153   5.645
55288SOL    HW167638   5.712  14.126   5.731
55288SOL    HW267639   5.616  14.223   5.664
55289SOL     OW67640   1.292   5.349   3.670
55289SOL    HW167641   1.225   5.411   3.643
55289SOL    HW267642   1.375   5.393   3.649
55290SOL     OW67643   5.895   8.456  12.553
55290SOL    HW167644   5.961   8.504  12.603
55290SOL    HW267645   5.944   8.386  12.510
55291SOL     OW67646  11.253  11.482  14.376
55291SOL    HW167647  11.164  11.460  14.402
55291SOL    HW267648  11.292  11.518  14.455
55292SOL     OW67649   9.635  10.162  10.688
55292SOL    HW167650   9.674  10.085  10.729
55292SOL    HW267651   9.662  10.157  10.596
55293SOL     OW67652   7.591   7.188   7.331
55293SOL    HW167653   7.502   7.156   7.316
55293SOL    HW267654   7.583   7.284   7.327
55294SOL     OW67655   7.149  12.824   2.273
55294SOL    HW167656   7.178  12.850   2.186
55294SOL    HW267657   7.229  12.821   2.326
55295SOL     OW67658   4.338  12.464   6.327
55295SOL    HW167659   4.311  12.419   6.247
55295SOL    HW267660   4.431  12.479   6.316
55296SOL     OW67661  12.400  12.011   5.390
55296SOL    HW167662  12.328  12.016   5.327
55296SOL    HW267663  12.359  12.028   5.475
55297SOL     OW67664   7.171   3.282   0.634
55297SOL    HW167665   7.090   3.281   0.685
55297SOL    HW267666   7.228   3.344   0.680
55298SOL     OW67667   8.285   6.379   9.704
55298SOL    HW167668   8.222   6.451   9.695
55298SOL    HW267669   8.299   6.347   9.615
55299SOL     OW67670   7.710   4.986   8.611
55299SOL    HW167671   7.654   5.015   8.683
55299SOL    HW267672   7.652   4.938   8.553
55300SOL     OW67673   3.435   0.509   6.829
55300SOL    HW167674   3.522   0.536   6.799
55300SOL    HW267675   3.405   0.446   6.764
55301SOL     OW67676  12.311  10.612  10.185
55301SOL    HW167677  12.401  10.586  10.206
55301SOL    HW267678  12.292  10.568  10.102
55302SOL     OW67679   6.633  14.311   7.654
55302SOL    HW167680   6.584  14.233   7.626
55302SOL    HW267681   6.570  14.362   7.704
55303SOL     OW67682   2.934  13.279   8.536
55303SOL    HW167683   2.858  13.325   8.573
55303SOL    HW267684   2.956  13.212   8.601
55304SOL     OW67685   3.906   0.885   8.259
55304SOL    HW167686   3.891   0.919   8.171
55304SOL    HW267687   3.879   0.794   8.255
55305SOL     OW67688  11.938  12.151   7.540
55305SOL    HW167689  11.861  12.182   7.493
55305SOL    HW267690  11.908  12.074   7.588
55306SOL     OW67691   0.064   5.524   3.714
55306SOL    HW167692   0.089   5.613   3.688
55306SOL    HW267693   0.078   5.471   3.636
55307SOL     OW67694   0.807   7.519  10.163
55307SOL    HW167695   0.748   7.571  10.109
55307SOL    HW267696   0.816   7.569  10.244
55308SOL     OW67697   8.341   0.533   8.446
55308SOL    HW167698   8.405   0.561   8.379
55308SOL    HW267699   8.370   0.446   8.472
55309SOL     OW67700  12.723   8.781  11.154
55309SOL    HW167701  12.757   8.814  11.071
55309SOL    HW267702  12.640   8.738  11.131
55310SOL     OW67703  11.576   5.321   3.434
55310SOL    HW167704  11.646   5.260   3.456
55310SOL    HW267705  11.621   5.398   3.400
55311SOL     OW67706   8.245  11.530  13.256
55311SOL    HW167707   8.338  11.552  13.253
55311SOL    HW267708   8.241  11.449  13.306
55312SOL     OW67709   7.964   8.646  10.696
55312SOL    HW167710   8.028   8.667  10.627
55312SOL    HW267711   7.881   8.638  10.649
55313SOL     OW67712   8.821  14.789  11.544
55313SOL    HW167713   8.830  14.745  11.460
55313SOL    HW267714   8.822  14.718  11.608
55314SOL     OW67715   7.805   0.495  12.776
55314SOL    HW167716   7.842   0.554  12.711
55314SOL    HW267717   7.723   0.536  12.802
55315SOL     OW67718   2.038   6.268   7.865
55315SOL    HW167719   1.966   6.233   7.917
55315SOL    HW267720   2.034   6.363   7.880
55316SOL     OW67721   4.400   3.133  12.031
55316SOL    HW167722   4.465   3.093  12.089
55316SOL    HW267723   4.411   3.087  11.947
55317SOL     OW67724   6.291   9.878   5.268
55317SOL    HW167725   6.286   9.962   5.313
55317SOL    HW267726   6.217   9.828   5.303
55318SOL     OW67727   8.294   9.043   2.662
55318SOL    HW167728   8.242   9.079   2.590
55318SOL    HW267729   8.294   9.112   2.728
55319SOL     OW67730  12.701   2.882   9.559
55319SOL    HW167731  12.654   2.887   9.476
55319SOL    HW267732  12.679   2.795   9.593
55320SOL     OW67733   3.904   7.784  12.417
55320SOL    HW167734   3.990   7.744  12.408
55320SOL    HW267735   3.844   7.723  12.375
55321SOL     OW67736   1.870   0.563   3.859
55321SOL    HW167737   1.953   0.569   3.906
55321SOL    HW267738   1.847   0.471   3.862
55322SOL     OW67739  11.271  11.539   8.210
55322SOL    HW167740  11.335  11.530   8.280
55322SOL    HW267741  11.228  11.453   8.205
55323SOL     OW67742   1.652   3.045   0.898
55323SOL    HW167743   1.733   3.006   0.867
55323SOL    HW267744   1.678   3.128   0.938
55324SOL     OW67745   3.304   0.519   5.888
55324SOL    HW167746   3.325   0.429   5.863
55324SOL    HW267747   3.380   0.548   5.937
55325SOL     OW67748  11.903  14.698   1.821
55325SOL    HW167749  11.864  14.610   1.831
55325SOL    HW267750  11.948  14.695   1.737
55326SOL     OW67751   4.212  13.580  14.369
55326SOL    HW167752   4.225  13.488  14.348
55326SOL    HW267753   4.290  13.605  14.418
55327SOL     OW67754   9.756   3.950  10.228
55327SOL    HW167755   9.849   3.966  10.214
55327SOL    HW267756   9.752   3.864  10.270
55328SOL     OW67757  10.337   0.996   7.700
55328SOL    HW167758  10.258   0.942   7.697
55328SOL    HW267759  10.404   0.939   7.737
55329SOL     OW67760   6.732  10.922  11.179
55329SOL    HW167761   6.661  10.980  11.152
55329SOL    HW267762   6.784  10.909  11.100
55330SOL     OW67763   8.098   4.515   1.995
55330SOL    HW167764   8.086   4.459   2.071
55330SOL    HW267765   8.011   4.549   1.975
55331SOL     OW67766  12.609   9.366  13.909
55331SOL    HW167767  12.640   9.390  13.821
55331SOL    HW267768  12.637   9.439  13.964
55332SOL     OW67769   8.032  11.760   6.230
55332SOL    HW167770   8.014  11.807   6.150
55332SOL    HW267771   8.010  11.669   6.210
55333SOL     OW67772   2.760   0.077   6.346
55333SOL    HW167773   2.715   0.119   6.272
55333SOL    HW267774   2.850   0.069   6.316
55334SOL     OW67775   1.941   8.740   9.731
55334SOL    HW167776   1.926   8.727   9.638
55334SOL    HW267777   2.036   8.738   9.741
55335SOL     OW67778   9.520  14.125  11.154
55335SOL    HW167779   9.505  14.133  11.248
55335SOL    HW267780   9.602  14.173  11.139
55336SOL     OW67781  14.748   9.685  13.109
55336SOL    HW167782  14.659   9.715  13.094
55336SOL    HW267783  14.765   9.622  13.039
55337SOL     OW67784  14.185  12.022   9.035
55337SOL    HW167785  14.092  12.022   9.010
55337SOL    HW267786  14.228  12.074   8.968
55338SOL     OW67787  10.519   5.253   8.121
55338SOL    HW167788  10.428   5.279   8.135
55338SOL    HW267789  10.523   5.222   8.031
55339SOL     OW67790   4.859   6.366   2.374
55339SOL    HW167791   4.861   6.270   2.366
55339SOL    HW267792   4.834   6.382   2.465
55340SOL     OW67793   7.391   4.764  13.975
55340SOL    HW167794   7.304   4.773  14.014
55340SOL    HW267795   7.437   4.844  13.999
55341SOL     OW67796   3.728   9.641  14.669
55341SOL    HW167797   3.748   9.608  14.582
55341SOL    HW267798   3.652   9.590  14.698
55342SOL     OW67799   7.948   5.754   5.073
55342SOL    HW167800   8.028   5.761   5.125
55342SOL    HW267801   7.962   5.676   5.019
55343SOL     OW67802   8.087   6.453  10.615
55343SOL    HW167803   8.151   6.382  10.625
55343SOL    HW267804   8.005   6.409  10.593
55344SOL     OW67805  13.278   9.436   0.676
55344SOL    HW167806  13.290   9.380   0.600
55344SOL    HW267807  13.220   9.386   0.734
55345SOL     OW67808   4.442  12.358  10.597
55345SOL    HW167809   4.362  12.316  10.627
55345SOL    HW267810   4.512  12.316  10.648
55346SOL     OW67811   4.291   6.822  12.852
55346SOL    HW167812   4.362   6.813  12.914
55346SOL    HW267813   4.320   6.890  12.791
55347SOL     OW67814   4.100   2.301   8.400
55347SOL    HW167815   4.100   2.327   8.492
55347SOL    HW267816   4.192   2.278   8.382
55348SOL     OW67817   3.838  11.999   2.929
55348SOL    HW167818   3.744  12.003   2.946
55348SOL    HW267819   3.849  12.047   2.846
55349SOL     OW67820   0.944   1.808   1.832
55349SOL    HW167821   0.886   1.874   1.871
55349SOL    HW267822   0.886   1.738   1.804
55350SOL     OW67823   1.090   0.163   4.814
55350SOL    HW167824   1.076   0.191   4.724
55350SOL    HW267825   1.122   0.074   4.807
55351SOL     OW67826   8.158   6.240  14.609
55351SOL    HW167827   8.063   6.253  14.606
55351SOL    HW267828   8.170   6.146  14.623
55352SOL     OW67829   2.286   7.800  10.281
55352SOL    HW167830   2.260   7.891  10.268
55352SOL    HW267831   2.377   7.797  10.253
55353SOL     OW67832   6.024   8.176   2.286
55353SOL    HW167833   6.064   8.089   2.295
55353SOL    HW267834   6.098   8.234   2.266
55354SOL     OW67835   5.709   4.977   6.811
55354SOL    HW167836   5.772   5.010   6.876
55354SOL    HW267837   5.687   5.055   6.758
55355SOL     OW67838  12.868   4.433   3.128
55355SOL    HW167839  12.947   4.459   3.176
55355SOL    HW267840  12.901   4.396   3.046
55356SOL     OW67841   0.595   5.749   8.774
55356SOL    HW167842   0.537   5.746   8.698
55356SOL    HW267843   0.651   5.825   8.759
55357SOL     OW67844   4.506   0.727   3.946
55357SOL    HW167845   4.595   0.750   3.919
55357SOL    HW267846   4.509   0.632   3.961
55358SOL     OW67847   2.892  11.209  10.971
55358SOL    HW167848   2.985  11.220  10.952
55358SOL    HW267849   2.857  11.163  10.894
55359SOL     OW67850  11.798   9.822   2.887
55359SOL    HW167851  11.711   9.784   2.892
55359SOL    HW267852  11.857   9.747   2.874
55360SOL     OW67853   1.013  11.641  14.295
55360SOL    HW167854   1.024  11.667  14.203
55360SOL    HW267855   1.054  11.555  14.300
55361SOL     OW67856  12.223   9.864  10.425
55361SOL    HW167857  12.191   9.950  10.449
55361SOL    HW267858  12.180   9.803  10.486
55362SOL     OW67859  10.966   2.073  14.356
55362SOL    HW167860  10.901   2.116  14.300
55362SOL    HW267861  11.026   2.143  14.380
55363SOL     OW67862   7.733  13.545   8.422
55363SOL    HW167863   7.734  13.641   8.425
55363SOL    HW267864   7.810  13.522   8.371
55364SOL     OW67865   4.680  11.935  10.115
55364SOL    HW167866   4.670  11.991  10.191
55364SOL    HW267867   4.681  11.995  10.041
55365SOL     OW67868   8.240   5.409  12.050
55365SOL    HW167869   8.313   5.371  12.001
55365SOL    HW267870   8.273   5.418  12.140
55366SOL     OW67871   4.459   6.444   8.689
55366SOL    HW167872   4.509   6.524   8.700
55366SOL    HW267873   4.370   6.468   8.716
55367SOL     OW67874  11.985   3.181  11.952
55367SOL    HW167875  12.000   3.260  11.900
55367SOL    HW267876  11.891   3.183  11.971
55368SOL     OW67877   1.219   8.683   1.933
55368SOL    HW167878   1.250   8.627   2.004
55368SOL    HW267879   1.299   8.726   1.901
55369SOL     OW67880   9.326  14.240   2.244
55369SOL    HW167881   9.365  14.187   2.314
55369SOL    HW267882   9.357  14.329   2.263
55370SOL     OW67883   7.765  14.826  10.225
55370SOL    HW167884   7.818   0.028  10.223
55370SOL    HW267885   7.696  14.845  10.288
55371SOL     OW67886  13.785   0.019   6.576
55371SOL    HW167887  13.862   0.071   6.556
55371SOL    HW267888  13.785  14.827   6.510
55372SOL     OW67889   6.957   6.276  10.111
55372SOL    HW167890   6.972   6.211  10.180
55372SOL    HW267891   6.915   6.226  10.040
55373SOL     OW67892   5.790   1.353   6.475
55373SOL    HW167893   5.721   1.388   6.418
55373SOL    HW267894   5.871   1.373   6.429
55374SOL     OW67895  12.214  14.455   7.316
55374SOL    HW167896  12.167  14.537   7.332
55374SOL    HW267897  12.220  14.413   7.402
55375SOL     OW67898  10.428   1.289  13.642
55375SOL    HW167899  10.353   1.229  13.636
55375SOL    HW267900  10.503   1.235  13.617
55376SOL     OW67901   8.247  10.500  12.564
55376SOL    HW167902   8.154  10.504  12.585
55376SOL    HW267903   8.263  10.577  12.509
55377SOL     OW67904   1.368  12.764   0.393
55377SOL    HW167905   1.358  12.853   0.359
55377SOL    HW267906   1.413  12.776   0.477
55378SOL     OW67907  12.213   7.545  13.654
55378SOL    HW167908  12.131   7.594  13.641
55378SOL    HW267909  12.191   7.481  13.721
55379SOL     OW67910   8.971   4.491   5.370
55379SOL    HW167911   8.959   4.440   5.290
55379SOL    HW267912   9.056   4.534   5.358
55380SOL     OW67913   1.743   1.733   0.406
55380SOL    HW167914   1.811   1.698   0.349
55380SOL    HW267915   1.780   1.814   0.441
55381SOL     OW67916  10.519   9.917  12.943
55381SOL    HW167917  10.439   9.865  12.953
55381SOL    HW267918  10.573   9.893  13.018
55382SOL     OW67919  11.868   4.645   9.680
55382SOL    HW167920  11.871   4.739   9.698
55382SOL    HW267921  11.828   4.606   9.758
55383SOL     OW67922   8.812   7.281   8.696
55383SOL    HW167923   8.849   7.222   8.762
55383SOL    HW267924   8.809   7.228   8.616
55384SOL     OW67925  11.632   9.436   3.968
55384SOL    HW167926  11.602   9.512   4.017
55384SOL    HW267927  11.706   9.403   4.019
55385SOL     OW67928   9.527   2.091   7.199
55385SOL    HW167929   9.613   2.072   7.238
55385SOL    HW267930   9.547   2.149   7.125
55386SOL     OW67931   6.466   9.789   1.589
55386SOL    HW167932   6.471   9.877   1.552
55386SOL    HW267933   6.532   9.739   1.541
55387SOL     OW67934  13.714   0.176   4.711
55387SOL    HW167935  13.658   0.251   4.689
55387SOL    HW267936  13.802   0.204   4.684
55388SOL     OW67937   9.543   8.739   3.195
55388SOL    HW167938   9.562   8.699   3.279
55388SOL    HW267939   9.458   8.705   3.170
55389SOL     OW67940   3.238   0.811   6.263
55389SOL    HW167941   3.333   0.812   6.250
55389SOL    HW267942   3.204   0.876   6.201
55390SOL     OW67943  11.205   6.112   3.071
55390SOL    HW167944  11.117   6.149   3.062
55390SOL    HW267945  11.190   6.024   3.106
55391SOL     OW67946   3.071   6.564  13.690
55391SOL    HW167947   2.983   6.603  13.697
55391SOL    HW267948   3.055   6.473  13.665
55392SOL     OW67949   8.848   6.864   9.184
55392SOL    HW167950   8.919   6.861   9.248
55392SOL    HW267951   8.771   6.891   9.235
55393SOL     OW67952   1.422  10.936   3.425
55393SOL    HW167953   1.517  10.925   3.420
55393SOL    HW267954   1.407  11.025   3.393
55394SOL     OW67955   9.514   5.509   7.114
55394SOL    HW167956   9.471   5.520   7.029
55394SOL    HW267957   9.442   5.509   7.177
55395SOL     OW67958   4.191   3.789  13.042
55395SOL    HW167959   4.104   3.790  13.082
55395SOL    HW267960   4.239   3.858  13.088
55396SOL     OW67961   9.556   7.022  14.678
55396SOL    HW167962   9.543   6.958  14.748
55396SOL    HW267963   9.492   7.091  14.697
55397SOL     OW67964   3.301  10.394  13.071
55397SOL    HW167965   3.375  10.362  13.123
55397SOL    HW267966   3.336  10.402  12.982
55398SOL     OW67967  13.172   9.624  14.108
55398SOL    HW167968  13.185   9.549  14.050
55398SOL    HW267969  13.259   9.646  14.139
55399SOL     OW67970   3.289  10.784  11.063
55399SOL    HW167971   3.330  10.710  11.018
55399SOL    HW267972   3.234  10.742  11.130
55400SOL     OW67973   0.262   8.204   3.242
55400SOL    HW167974   0.259   8.300   3.241
55400SOL    HW267975   0.171   8.178   3.254
55401SOL     OW67976  12.343  12.922   7.697
55401SOL    HW167977  12.344  12.929   7.792
55401SOL    HW267978  12.426  12.879   7.675
55402SOL     OW67979   6.072  13.896   8.663
55402SOL    HW167980   6.011  13.930   8.728
55402SOL    HW267981   6.095  13.809   8.694
55403SOL     OW67982   5.958   9.777  10.663
55403SOL    HW167983   6.001   9.853  10.625
55403SOL    HW267984   5.965   9.709  10.596
55404SOL     OW67985  12.929   0.100   5.521
55404SOL    HW167986  12.949   0.164   5.589
55404SOL    HW267987  12.977   0.022   5.547
55405SOL     OW67988   8.895   4.759  10.164
55405SOL    HW167989   8.819   4.735  10.217
55405SOL    HW267990   8.910   4.682  10.108
55406SOL     OW67991   4.869   8.631  10.253
55406SOL    HW167992   4.799   8.602  10.194
55406SOL    HW267993   4.937   8.665  10.195
55407SOL     OW67994   4.988  14.756  11.483
55407SOL    HW167995   4.999  14.715  11.569
55407SOL    HW267996   4.981  14.850  11.502
55408SOL     OW67997   3.527  13.005  14.028
55408SOL    HW167998   3.466  12.961  14.088
55408SOL    HW267999   3.610  13.006  14.074
55409SOL     OW68000   4.078  11.765   8.036
55409SOL    HW168001   4.073  11.762   8.131
55409SOL    HW268002   4.068  11.673   8.008
55410SOL     OW68003   6.866  11.437  11.923
55410SOL    HW168004   6.837  11.432  11.832
55410SOL    HW268005   6.850  11.349  11.959
55411SOL     OW68006  11.425   4.860   9.680
55411SOL    HW168007  11.503   4.837   9.730
55411SOL    HW268008  11.400   4.780   9.635
55412SOL     OW68009   0.663   4.659   6.925
55412SOL    HW168010   0.744   4.613   6.901
55412SOL    HW268011   0.661   4.655   7.021
55413SOL     OW68012  13.854  14.445   9.754
55413SOL    HW168013  13.786  14.432   9.688
55413SOL    HW268014  13.903  14.363   9.755
55414SOL     OW68015   0.390  12.071   0.092
55414SOL    HW168016   0.433  12.156   0.083
55414SOL    HW268017   0.334  12.081   0.169
55415SOL     OW68018   0.734  10.738   9.690
55415SOL    HW168019   0.795  10.809   9.669
55415SOL    HW268020   0.683  10.772   9.763
55416SOL     OW68021   3.717   1.638  10.684
55416SOL    HW168022   3.632   1.630  10.641
55416SOL    HW268023   3.696   1.650  10.777
55417SOL     OW68024   2.761   5.042   2.150
55417SOL    HW168025   2.764   4.996   2.066
55417SOL    HW268026   2.816   5.119   2.138
55418SOL     OW68027   4.564   4.133  11.615
55418SOL    HW168028   4.593   4.142  11.706
55418SOL    HW268029   4.584   4.042  11.593
55419SOL     OW68030   9.900  14.317   6.780
55419SOL    HW168031   9.994  14.324   6.798
55419SOL    HW268032   9.859  14.330   6.866
55420SOL     OW68033  10.077   0.202   2.422
55420SOL    HW168034  10.117   0.122   2.387
55420SOL    HW268035   9.983   0.190   2.408
55421SOL     OW68036  11.801   5.968   4.927
55421SOL    HW168037  11.713   5.972   4.963
55421SOL    HW268038  11.825   6.060   4.912
55422SOL     OW68039   4.200  12.249   3.418
55422SOL    HW168040   4.189  12.283   3.507
55422SOL    HW268041   4.175  12.321   3.361
55423SOL     OW68042   8.016  12.613  11.257
55423SOL    HW168043   7.942  12.630  11.315
55423SOL    HW268044   8.012  12.519  11.239
55424SOL     OW68045   4.183  13.783   4.940
55424SOL    HW168046   4.113  13.721   4.961
55424SOL    HW268047   4.137  13.861   4.908
55425SOL     OW68048   4.198   0.739   2.575
55425SOL    HW168049   4.151   0.779   2.502
55425SOL    HW268050   4.229   0.655   2.540
55426SOL     OW68051   3.989   9.174  14.363
55426SOL    HW168052   4.038   9.219  14.294
55426SOL    HW268053   3.950   9.098  14.319
55427SOL     OW68054   7.567   3.166   5.716
55427SOL    HW168055   7.482   3.190   5.752
55427SOL    HW268056   7.572   3.213   5.632
55428SOL     OW68057  14.514   3.305  11.562
55428SOL    HW168058  14.465   3.232  11.599
55428SOL    HW268059  14.508   3.292  11.467
55429SOL     OW68060   5.933   8.578   0.398
55429SOL    HW168061   5.966   8.572   0.308
55429SOL    HW268062   5.924   8.672   0.414
55430SOL     OW68063  12.532  14.852  12.509
55430SOL    HW168064  12.569  14.783  12.565
55430SOL    HW268065  12.468   0.018  12.564
55431SOL     OW68066   5.220  12.720   7.433
55431SOL    HW168067   5.313  12.721   7.412
55431SOL    HW268068   5.214  12.769   7.515
55432SOL     OW68069  11.542   7.235  14.089
55432SOL    HW168070  11.487   7.177  14.036
55432SOL    HW268071  11.522   7.210  14.180
55433SOL     OW68072   6.843   1.271  12.916
55433SOL    HW168073   6.827   1.314  13.001
55433SOL    HW268074   6.910   1.326  12.875
55434SOL     OW68075   9.697   7.976  12.210
55434SOL    HW168076   9.650   8.028  12.276
55434SOL    HW268077   9.784   7.963  12.248
55435SOL     OW68078  13.066   5.085   6.798
55435SOL    HW168079  12.979   5.087   6.838
55435SOL    HW268080  13.050   5.095   6.704
55436SOL     OW68081   6.769   5.436   1.936
55436SOL    HW168082   6.695   5.457   1.879
55436SOL    HW268083   6.749   5.482   2.018
55437SOL     OW68084  10.246  11.794  12.547
55437SOL    HW168085  10.161  11.836  12.562
55437SOL    HW268086  10.230  11.701  12.564
55438SOL     OW68087  13.073   7.005   7.074
55438SOL    HW168088  13.092   7.042   7.160
55438SOL    HW268089  13.068   7.081   7.016
55439SOL     OW68090   0.303   9.558   1.206
55439SOL    HW168091   0.261   9.608   1.276
55439SOL    HW268092   0.372   9.617   1.173
55440SOL     OW68093   4.335  11.643   7.937
55440SOL    HW168094   4.339  11.738   7.941
55440SOL    HW268095   4.405  11.614   7.996
55441SOL     OW68096  12.661   4.180   5.415
55441SOL    HW168097  12.754   4.196   5.397
55441SOL    HW268098  12.657   4.168   5.510
55442SOL     OW68099   0.613  14.699   3.143
55442SOL    HW168100   0.553  14.694   3.069
55442SOL    HW268101   0.697  14.724   3.104
55443SOL     OW68102  13.481  14.389  13.594
55443SOL    HW168103  13.437  14.462  13.550
55443SOL    HW268104  13.414  14.350  13.649
55444SOL     OW68105  11.061   6.528   0.972
55444SOL    HW168106  11.097   6.458   1.027
55444SOL    HW268107  10.976   6.549   1.012
55445SOL     OW68108   2.284   3.433  14.162
55445SOL    HW168109   2.319   3.417  14.075
55445SOL    HW268110   2.207   3.489  14.148
55446SOL     OW68111   2.383   3.187  11.978
55446SOL    HW168112   2.304   3.224  12.017
55446SOL    HW268113   2.425   3.139  12.050
55447SOL     OW68114   3.472   5.132   9.836
55447SOL    HW168115   3.384   5.144   9.872
55447SOL    HW268116   3.458   5.097   9.749
55448SOL     OW68117   2.887   4.307  14.379
55448SOL    HW168118   2.891   4.239  14.312
55448SOL    HW268119   2.951   4.280  14.444
55449SOL     OW68120   0.439   7.743   4.104
55449SOL    HW168121   0.383   7.666   4.120
55449SOL    HW268122   0.525   7.716   4.135
55450SOL     OW68123   1.032  13.443  10.960
55450SOL    HW168124   0.954  13.476  11.004
55450SOL    HW268125   1.072  13.383  11.023
55451SOL     OW68126   0.376   5.047   0.309
55451SOL    HW168127   0.416   4.961   0.316
55451SOL    HW268128   0.382   5.070   0.216
55452SOL     OW68129  11.007   8.240  11.054
55452SOL    HW168130  11.049   8.314  11.012
55452SOL    HW268131  11.036   8.163  11.005
55453SOL     OW68132   6.493  13.410   9.903
55453SOL    HW168133   6.524  13.325   9.935
55453SOL    HW268134   6.518  13.472   9.972
55454SOL     OW68135   0.267   4.601  14.374
55454SOL    HW168136   0.175   4.627  14.377
55454SOL    HW268137   0.298   4.633  14.289
55455SOL     OW68138   5.493   9.588   6.794
55455SOL    HW168139   5.438   9.603   6.871
55455SOL    HW268140   5.543   9.668   6.785
55456SOL     OW68141   9.942   5.574   9.860
55456SOL    HW168142   9.894   5.627   9.797
55456SOL    HW268143  10.020   5.544   9.812
55457SOL     OW68144  12.332  11.045   8.227
55457SOL    HW168145  12.371  11.125   8.263
55457SOL    HW268146  12.240  11.049   8.254
55458SOL     OW68147  12.327   2.159   2.768
55458SOL    HW168148  12.263   2.118   2.711
55458SOL    HW268149  12.412   2.130   2.733
55459SOL     OW68150   8.335  14.421   9.683
55459SOL    HW168151   8.295  14.346   9.638
55459SOL    HW268152   8.262  14.462   9.730
55460SOL     OW68153  12.446   8.373   4.880
55460SOL    HW168154  12.388   8.302   4.908
55460SOL    HW268155  12.531   8.352   4.919
55461SOL     OW68156   8.248   1.250  13.748
55461SOL    HW168157   8.280   1.220  13.663
55461SOL    HW268158   8.325   1.245  13.805
55462SOL     OW68159   4.392   8.852   8.803
55462SOL    HW168160   4.365   8.828   8.892
55462SOL    HW268161   4.453   8.782   8.777
55463SOL     OW68162   3.436   5.312   9.471
55463SOL    HW168163   3.356   5.323   9.420
55463SOL    HW268164   3.427   5.373   9.544
55464SOL     OW68165   6.396   4.549   3.217
55464SOL    HW168166   6.476   4.577   3.173
55464SOL    HW268167   6.355   4.489   3.154
55465SOL     OW68168   0.267  13.976   9.629
55465SOL    HW168169   0.328  13.948   9.561
55465SOL    HW268170   0.206  13.902   9.637
55466SOL     OW68171  12.767  10.850  12.157
55466SOL    HW168172  12.763  10.862  12.251
55466SOL    HW268173  12.683  10.883  12.124
55467SOL     OW68174   2.978   0.493  14.235
55467SOL    HW168175   3.060   0.500  14.285
55467SOL    HW268176   2.966   0.580  14.197
55468SOL     OW68177   9.790   3.120   0.472
55468SOL    HW168178   9.718   3.109   0.410
55468SOL    HW268179   9.762   3.192   0.529
55469SOL     OW68180   3.436  13.271   7.669
55469SOL    HW168181   3.441  13.359   7.706
55469SOL    HW268182   3.368  13.276   7.602
55470SOL     OW68183   8.038   7.446  14.124
55470SOL    HW168184   8.024   7.432  14.030
55470SOL    HW268185   8.110   7.509  14.128
55471SOL     OW68186   2.166   6.852   2.678
55471SOL    HW168187   2.210   6.919   2.731
55471SOL    HW268188   2.128   6.792   2.742
55472SOL     OW68189   5.129   6.341  12.120
55472SOL    HW168190   5.167   6.276  12.179
55472SOL    HW268191   5.186   6.339  12.043
55473SOL     OW68192  14.034  12.411   5.074
55473SOL    HW168193  13.941  12.392   5.085
55473SOL    HW268194  14.052  12.395   4.982
55474SOL     OW68195   3.791   3.028   8.817
55474SOL    HW168196   3.838   2.944   8.811
55474SOL    HW268197   3.704   3.004   8.850
55475SOL     OW68198   4.071   8.390   0.370
55475SOL    HW168199   4.114   8.429   0.294
55475SOL    HW268200   4.143   8.358   0.424
55476SOL     OW68201   8.807   0.199  14.692
55476SOL    HW168202   8.791   0.196  14.786
55476SOL    HW268203   8.726   0.234  14.655
55477SOL     OW68204   9.800   9.095  12.562
55477SOL    HW168205   9.816   9.179  12.606
55477SOL    HW268206   9.882   9.047  12.572
55478SOL     OW68207  14.530   4.459   3.785
55478SOL    HW168208  14.594   4.395   3.753
55478SOL    HW268209  14.559   4.480   3.873
55479SOL     OW68210  11.615   2.225   3.371
55479SOL    HW168211  11.608   2.137   3.336
55479SOL    HW268212  11.629   2.281   3.295
55480SOL     OW68213   7.697  13.740  10.571
55480SOL    HW168214   7.766  13.806  10.573
55480SOL    HW268215   7.626  13.777  10.623
55481SOL     OW68216   0.460   9.193   7.359
55481SOL    HW168217   0.372   9.180   7.396
55481SOL    HW268218   0.484   9.282   7.385
55482SOL     OW68219   0.215   4.502   8.830
55482SOL    HW168220   0.250   4.479   8.916
55482SOL    HW268221   0.264   4.447   8.768
55483SOL     OW68222   2.541   4.941   8.977
55483SOL    HW168223   2.563   4.884   8.903
55483SOL    HW268224   2.592   4.906   9.050
55484SOL     OW68225  14.539  13.125   1.052
55484SOL    HW168226  14.627  13.090   1.042
55484SOL    HW268227  14.504  13.081   1.130
55485SOL     OW68228  14.483   6.257  14.058
55485SOL    HW168229  14.513   6.179  14.105
55485SOL    HW268230  14.426   6.222  13.989
55486SOL     OW68231   4.459  11.325   7.240
55486SOL    HW168232   4.478  11.381   7.165
55486SOL    HW268233   4.448  11.385   7.314
55487SOL     OW68234   4.965   6.158   6.424
55487SOL    HW168235   4.899   6.189   6.486
55487SOL    HW268236   4.951   6.210   6.345
55488SOL     OW68237   4.788   0.790   2.188
55488SOL    HW168238   4.794   0.704   2.230
55488SOL    HW268239   4.875   0.805   2.151
55489SOL     OW68240   9.880   0.157   6.691
55489SOL    HW168241   9.866   0.207   6.610
55489SOL    HW268242   9.802   0.102   6.699
55490SOL     OW68243   6.095   9.965  13.394
55490SOL    HW168244   6.064   9.939  13.481
55490SOL    HW268245   6.138   9.887  13.360
55491SOL     OW68246   2.875   6.864  10.946
55491SOL    HW168247   2.791   6.898  10.915
55491SOL    HW268248   2.877   6.884  11.039
55492SOL     OW68249  10.883  13.189   7.939
55492SOL    HW168250  10.798  13.150   7.959
55492SOL    HW268251  10.924  13.202   8.024
55493SOL     OW68252   2.809  12.871   3.625
55493SOL    HW168253   2.821  12.781   3.656
55493SOL    HW268254   2.857  12.874   3.542
55494SOL     OW68255   8.787   4.710  12.433
55494SOL    HW168256   8.847   4.645  12.471
55494SOL    HW268257   8.741   4.747  12.508
55495SOL     OW68258   8.795  12.999   4.541
55495SOL    HW168259   8.759  13.073   4.589
55495SOL    HW268260   8.718  12.952   4.508
55496SOL     OW68261   5.528  14.683  12.378
55496SOL    HW168262   5.569  14.602  12.347
55496SOL    HW268263   5.586  14.713  12.449
55497SOL     OW68264  14.244   6.057  12.335
55497SOL    HW168265  14.210   5.968  12.340
55497SOL    HW268266  14.240   6.079  12.242
55498SOL     OW68267  11.202   2.018   4.197
55498SOL    HW168268  11.187   1.986   4.108
55498SOL    HW268269  11.214   2.112   4.187
55499SOL     OW68270   8.180   0.805  12.338
55499SOL    HW168271   8.158   0.892  12.369
55499SOL    HW268272   8.228   0.765  12.411
55500SOL     OW68273  12.263   8.727  10.368
55500SOL    HW168274  12.245   8.693  10.280
55500SOL    HW268275  12.355   8.704  10.384
55501SOL     OW68276   5.680   9.038   7.787
55501SOL    HW168277   5.691   9.116   7.840
55501SOL    HW268278   5.731   8.971   7.833
55502SOL     OW68279   2.566  13.379   6.151
55502SOL    HW168280   2.631  13.449   6.149
55502SOL    HW268281   2.603  13.313   6.210
55503SOL     OW68282  14.312  14.504  10.695
55503SOL    HW168283  14.374  14.574  10.719
55503SOL    HW268284  14.339  14.430  10.749
55504SOL     OW68285  13.590   7.603   1.867
55504SOL    HW168286  13.611   7.697   1.863
55504SOL    HW268287  13.536   7.594   1.946
55505SOL     OW68288   0.785  14.307  12.814
55505SOL    HW168289   0.878  14.329  12.817
55505SOL    HW268290   0.777  14.229  12.869
55506SOL     OW68291   7.409   1.505  12.257
55506SOL    HW168292   7.449   1.504  12.170
55506SOL    HW268293   7.316   1.518  12.240
55507SOL     OW68294   6.328   2.958   6.115
55507SOL    HW168295   6.257   2.916   6.066
55507SOL    HW268296   6.360   3.026   6.057
55508SOL     OW68297   2.472   5.500   1.501
55508SOL    HW168298   2.387   5.533   1.473
55508SOL    HW268299   2.508   5.458   1.423
55509SOL     OW68300   6.825   5.498   6.113
55509SOL    HW168301   6.779   5.561   6.168
55509SOL    HW268302   6.898   5.547   6.076
55510SOL     OW68303  10.760   5.740   7.810
55510SOL    HW168304  10.710   5.816   7.779
55510SOL    HW268305  10.833   5.734   7.748
55511SOL     OW68306   0.293  13.019   2.070
55511SOL    HW168307   0.208  12.978   2.087
55511SOL    HW268308   0.339  12.955   2.014
55512SOL     OW68309   7.479  11.775   1.629
55512SOL    HW168310   7.409  11.738   1.684
55512SOL    HW268311   7.458  11.745   1.540
55513SOL     OW68312   5.357  12.250   2.531
55513SOL    HW168313   5.335  12.197   2.455
55513SOL    HW268314   5.421  12.197   2.579
55514SOL     OW68315   8.366   4.813   7.867
55514SOL    HW168316   8.332   4.828   7.955
55514SOL    HW268317   8.377   4.718   7.861
55515SOL     OW68318   8.130  10.314  11.759
55515SOL    HW168319   8.114  10.404  11.789
55515SOL    HW268320   8.194  10.324  11.688
55516SOL     OW68321   1.633   1.006  11.956
55516SOL    HW168322   1.605   1.042  12.041
55516SOL    HW268323   1.693   1.072  11.921
55517SOL     OW68324   5.991   9.038  13.000
55517SOL    HW168325   5.976   9.106  13.065
55517SOL    HW268326   5.920   8.976  13.014
55518SOL     OW68327   3.885   0.909   5.638
55518SOL    HW168328   3.949   0.930   5.569
55518SOL    HW268329   3.805   0.885   5.591
55519SOL     OW68330  10.655  10.952   7.970
55519SOL    HW168331  10.697  10.893   7.907
55519SOL    HW268332  10.567  10.966   7.936
55520SOL     OW68333   9.313   1.596   0.129
55520SOL    HW168334   9.408   1.598   0.118
55520SOL    HW268335   9.294   1.672   0.184
55521SOL     OW68336  14.562   8.552   9.515
55521SOL    HW168337  14.577   8.474   9.567
55521SOL    HW268338  14.559   8.623   9.579
55522SOL     OW68339  10.364  12.854   2.470
55522SOL    HW168340  10.321  12.895   2.395
55522SOL    HW268341  10.454  12.884   2.467
55523SOL     OW68342  14.468   3.099   9.154
55523SOL    HW168343  14.446   3.130   9.242
55523SOL    HW268344  14.403   3.140   9.097
55524SOL     OW68345  13.121   6.200   8.941
55524SOL    HW168346  13.156   6.257   8.873
55524SOL    HW268347  13.029   6.187   8.916
55525SOL     OW68348   9.141  12.096   6.298
55525SOL    HW168349   9.102  12.059   6.378
55525SOL    HW268350   9.099  12.049   6.227
55526SOL     OW68351  13.306  14.611   6.293
55526SOL    HW168352  13.300  14.565   6.377
55526SOL    HW268353  13.289  14.544   6.227
55527SOL     OW68354   4.790  14.196   3.796
55527SOL    HW168355   4.778  14.246   3.877
55527SOL    HW268356   4.812  14.108   3.826
55528SOL     OW68357   0.100  10.861  13.449
55528SOL    HW168358   0.098  10.863  13.544
55528SOL    HW268359   0.193  10.863  13.427
55529SOL     OW68360   0.930   6.986  13.081
55529SOL    HW168361   0.973   6.903  13.061
55529SOL    HW268362   0.925   6.988  13.176
55530SOL     OW68363   6.414   4.803   6.227
55530SOL    HW168364   6.367   4.736   6.176
55530SOL    HW268365   6.504   4.797   6.197
55531SOL     OW68366  14.617   5.617  11.779
55531SOL    HW168367  14.647   5.531  11.749
55531SOL    HW268368  14.554   5.597  11.848
55532SOL     OW68369   8.720  10.275   7.369
55532SOL    HW168370   8.777  10.257   7.294
55532SOL    HW268371   8.727  10.369   7.383
55533SOL     OW68372   0.223   9.984   7.949
55533SOL    HW168373   0.245   9.956   7.860
55533SOL    HW268374   0.296  10.040   7.976
55534SOL     OW68375  12.295   0.564   0.950
55534SOL    HW168376  12.305   0.540   0.858
55534SOL    HW268377  12.313   0.658   0.952
55535SOL     OW68378   2.264   8.378  10.953
55535SOL    HW168379   2.175   8.379  10.919
55535SOL    HW268380   2.259   8.431  11.033
55536SOL     OW68381   7.841   7.474   5.084
55536SOL    HW168382   7.892   7.537   5.135
55536SOL    HW268383   7.771   7.447   5.143
55537SOL     OW68384   8.469   9.923  11.792
55537SOL    HW168385   8.529   9.884  11.856
55537SOL    HW268386   8.419   9.988  11.842
55538SOL     OW68387   5.200   6.703   8.516
55538SOL    HW168388   5.216   6.755   8.595
55538SOL    HW268389   5.138   6.635   8.544
55539SOL     OW68390   1.181   2.575   5.325
55539SOL    HW168391   1.188   2.481   5.309
55539SOL    HW268392   1.174   2.582   5.420
55540SOL     OW68393   8.441   3.032   0.811
55540SOL    HW168394   8.360   2.997   0.773
55540SOL    HW268395   8.502   3.037   0.738
55541SOL     OW68396   6.016   4.631  13.357
55541SOL    HW168397   6.083   4.573  13.319
55541SOL    HW268398   5.961   4.572  13.409
55542SOL     OW68399   0.345   7.374  12.010
55542SOL    HW168400   0.253   7.399  12.016
55542SOL    HW268401   0.369   7.351  12.100
55543SOL     OW68402   7.455  10.885   8.999
55543SOL    HW168403   7.453  10.804   8.948
55543SOL    HW268404   7.521  10.869   9.067
55544SOL     OW68405  11.169   8.997   5.241
55544SOL    HW168406  11.184   8.903   5.249
55544SOL    HW268407  11.083   9.011   5.282
55545SOL     OW68408   0.361  14.539   6.421
55545SOL    HW168409   0.291  14.505   6.365
55545SOL    HW268410   0.362  14.481   6.497
55546SOL     OW68411   6.255   1.657   1.347
55546SOL    HW168412   6.321   1.725   1.353
55546SOL    HW268413   6.189   1.681   1.413
55547SOL     OW68414   6.738   2.554   2.057
55547SOL    HW168415   6.757   2.628   2.115
55547SOL    HW268416   6.649   2.528   2.081
55548SOL     OW68417   4.152   9.392   0.889
55548SOL    HW168418   4.106   9.371   0.807
55548SOL    HW268419   4.183   9.308   0.921
55549SOL     OW68420  10.080   5.697  11.397
55549SOL    HW168421  10.019   5.762  11.432
55549SOL    HW268422  10.027   5.618  11.385
55550SOL     OW68423  11.609  10.030   0.418
55550SOL    HW168424  11.579  10.037   0.328
55550SOL    HW268425  11.646  10.116   0.438
55551SOL     OW68426   0.795   7.833   7.991
55551SOL    HW168427   0.835   7.806   8.074
55551SOL    HW268428   0.768   7.751   7.950
55552SOL     OW68429  13.890  14.492   5.904
55552SOL    HW168430  13.845  14.416   5.942
55552SOL    HW268431  13.852  14.567   5.949
55553SOL     OW68432   9.846   3.440  12.647
55553SOL    HW168433   9.929   3.462  12.606
55553SOL    HW268434   9.859   3.354  12.686
55554SOL     OW68435   6.972   5.843  10.472
55554SOL    HW168436   6.966   5.756  10.433
55554SOL    HW268437   6.970   5.827  10.566
55555SOL     OW68438   1.872   7.112  10.660
55555SOL    HW168439   1.816   7.164  10.602
55555SOL    HW268440   1.833   7.025  10.659
55556SOL     OW68441   7.472  11.407  14.826
55556SOL    HW168442   7.418  11.361  14.761
55556SOL    HW268443   7.463  11.354   0.027
55557SOL     OW68444   0.037   5.884  12.917
55557SOL    HW168445   0.121   5.882  12.963
55557SOL    HW268446   0.055   5.928  12.834
55558SOL     OW68447   6.158   9.797  14.422
55558SOL    HW168448   6.207   9.877  14.440
55558SOL    HW268449   6.221   9.738  14.381
55559SOL     OW68450  11.150   6.005  11.905
55559SOL    HW168451  11.079   5.947  11.879
55559SOL    HW268452  11.139   6.083  11.851
55560SOL     OW68453   3.641   8.634  13.024
55560SOL    HW168454   3.686   8.717  13.007
55560SOL    HW268455   3.700   8.567  12.989
55561SOL     OW68456   3.541  10.146  13.283
55561SOL    HW168457   3.475  10.101  13.336
55561SOL    HW268458   3.526  10.239  13.300
55562SOL     OW68459   0.853   2.393   6.432
55562SOL    HW168460   0.770   2.400   6.479
55562SOL    HW268461   0.914   2.356   6.496
55563SOL     OW68462   4.870   5.372  12.534
55563SOL    HW168463   4.932   5.317  12.584
55563SOL    HW268464   4.925   5.422  12.475
55564SOL     OW68465  13.568  11.113   9.161
55564SOL    HW168466  13.640  11.156   9.206
55564SOL    HW268467  13.595  11.111   9.069
55565SOL     OW68468  10.947   9.415   2.113
55565SOL    HW168469  10.889   9.487   2.136
55565SOL    HW268470  10.889   9.345   2.085
55566SOL     OW68471   9.759  12.931  11.985
55566SOL    HW168472   9.792  12.951  11.898
55566SOL    HW268473   9.676  12.885  11.970
55567SOL     OW68474   0.043   4.619   4.828
55567SOL    HW168475   0.091   4.661   4.899
55567SOL    HW268476  14.834   4.602   4.864
55568SOL     OW68477   1.322  13.842   5.485
55568SOL    HW168478   1.372  13.799   5.554
55568SOL    HW268479   1.368  13.924   5.470
55569SOL     OW68480   7.052   0.176   5.735
55569SOL    HW168481   7.039   0.211   5.823
55569SOL    HW268482   7.137   0.133   5.738
55570SOL     OW68483   1.641   4.921   9.795
55570SOL    HW168484   1.652   4.835   9.836
55570SOL    HW268485   1.694   4.916   9.716
55571SOL     OW68486  13.915   9.856   6.038
55571SOL    HW168487  13.985   9.895   5.986
55571SOL    HW268488  13.959   9.792   6.093
55572SOL     OW68489   6.728   7.477   2.450
55572SOL    HW168490   6.743   7.568   2.424
55572SOL    HW268491   6.721   7.479   2.545
55573SOL     OW68492   9.499   5.821  12.725
55573SOL    HW168493   9.502   5.841  12.631
55573SOL    HW268494   9.411   5.785  12.739
55574SOL     OW68495   5.512   3.750  11.449
55574SOL    HW168496   5.543   3.684  11.387
55574SOL    HW268497   5.417   3.736  11.454
55575SOL     OW68498   5.633   8.811   4.389
55575SOL    HW168499   5.663   8.890   4.344
55575SOL    HW268500   5.590   8.759   4.321
55576SOL     OW68501   1.738   7.072   1.749
55576SOL    HW168502   1.688   7.067   1.668
55576SOL    HW268503   1.682   7.031   1.815
55577SOL     OW68504   5.827  11.947   3.185
55577SOL    HW168505   5.916  11.917   3.167
55577SOL    HW268506   5.825  11.960   3.280
55578SOL     OW68507   3.144  13.221  12.168
55578SOL    HW168508   3.075  13.235  12.103
55578SOL    HW268509   3.225  13.231  12.119
55579SOL     OW68510   1.261   1.800   4.628
55579SOL    HW168511   1.352   1.785   4.655
55579SOL    HW268512   1.267   1.862   4.556
55580SOL     OW68513   1.402  10.616   0.735
55580SOL    HW168514   1.351  10.574   0.665
55580SOL    HW268515   1.492  10.587   0.720
55581SOL     OW68516   3.020  13.894  13.064
55581SOL    HW168517   3.083  13.825  13.043
55581SOL    HW268518   2.937  13.863  13.025
55582SOL     OW68519   4.223  13.027  13.663
55582SOL    HW168520   4.154  13.078  13.620
55582SOL    HW268521   4.237  12.952  13.605
55583SOL     OW68522   6.886  12.577  12.036
55583SOL    HW168523   6.912  12.559  11.946
55583SOL    HW268524   6.900  12.671  12.047
55584SOL     OW68525   6.040  14.798   2.515
55584SOL    HW168526   6.040   0.011   2.485
55584SOL    HW268527   6.060  14.747   2.437
55585SOL     OW68528   6.909   0.957   8.167
55585SOL    HW168529   6.931   1.020   8.236
55585SOL    HW268530   6.815   0.969   8.154
55586SOL     OW68531  13.893  14.782   3.597
55586SOL    HW168532  13.981  14.820   3.595
55586SOL    HW268533  13.886  14.743   3.684
55587SOL     OW68534   6.499  14.377  14.055
55587SOL    HW168535   6.492  14.282  14.039
55587SOL    HW268536   6.584  14.401  14.017
55588SOL     OW68537   6.654  12.884  14.745
55588SOL    HW168538   6.594  12.941  14.794
55588SOL    HW268539   6.711  12.944  14.697
55589SOL     OW68540  13.147   7.439  10.368
55589SOL    HW168541  13.091   7.439  10.291
55589SOL    HW268542  13.149   7.347  10.396
55590SOL     OW68543  13.137  13.201   1.555
55590SOL    HW168544  13.226  13.185   1.523
55590SOL    HW268545  13.146  13.210   1.649
55591SOL     OW68546  11.657  10.948   0.559
55591SOL    HW168547  11.677  10.870   0.506
55591SOL    HW268548  11.724  10.948   0.626
55592SOL     OW68549   8.134   5.562   5.549
55592SOL    HW168550   8.166   5.526   5.467
55592SOL    HW268551   8.094   5.646   5.526
55593SOL     OW68552  14.727   1.848   5.810
55593SOL    HW168553  14.802   1.797   5.839
55593SOL    HW268554  14.693   1.889   5.890
55594SOL     OW68555  11.903  12.052   0.198
55594SOL    HW168556  11.956  12.105   0.258
55594SOL    HW268557  11.903  12.101   0.116
55595SOL     OW68558   1.818   8.011  10.092
55595SOL    HW168559   1.776   8.072  10.152
55595SOL    HW268560   1.857   8.068  10.024
55596SOL     OW68561   5.766   7.862   9.980
55596SOL    HW168562   5.824   7.936   9.960
55596SOL    HW268563   5.791   7.795   9.916
55597SOL     OW68564  13.966   6.826   5.828
55597SOL    HW168565  13.898   6.812   5.761
55597SOL    HW268566  13.956   6.918   5.852
55598SOL     OW68567   3.647  10.535   7.581
55598SOL    HW168568   3.566  10.560   7.624
55598SOL    HW268569   3.650  10.440   7.588
55599SOL     OW68570  14.703  11.467   4.962
55599SOL    HW168571  14.630  11.523   4.936
55599SOL    HW268572  14.704  11.397   4.897
55600SOL     OW68573   2.964   7.076   2.386
55600SOL    HW168574   2.910   7.051   2.312
55600SOL    HW268575   2.910   7.138   2.436
55601SOL     OW68576   3.091   0.307   6.147
55601SOL    HW168577   3.120   0.254   6.072
55601SOL    HW268578   2.997   0.317   6.134
55602SOL     OW68579  14.423  10.050   3.216
55602SOL    HW168580  14.359  10.045   3.287
55602SOL    HW268581  14.479   9.973   3.228
55603SOL     OW68582   2.036   3.653  11.569
55603SOL    HW168583   2.072   3.580  11.518
55603SOL    HW268584   2.075   3.643  11.656
55604SOL     OW68585   8.870  10.413   5.311
55604SOL    HW168586   8.854  10.436   5.402
55604SOL    HW268587   8.784  10.398   5.273
55605SOL     OW68588  13.826   0.365  11.292
55605SOL    HW168589  13.757   0.322  11.241
55605SOL    HW268590  13.784   0.388  11.375
55606SOL     OW68591   4.643   0.565   2.035
55606SOL    HW168592   4.697   0.626   2.084
55606SOL    HW268593   4.696   0.486   2.028
55607SOL     OW68594   8.535   7.421   5.514
55607SOL    HW168595   8.527   7.490   5.448
55607SOL    HW268596   8.553   7.342   5.463
55608SOL     OW68597   8.878  11.746   3.847
55608SOL    HW168598   8.790  11.714   3.825
55608SOL    HW268599   8.892  11.714   3.936
55609SOL     OW68600  13.597   4.297   9.454
55609SOL    HW168601  13.613   4.377   9.504
55609SOL    HW268602  13.569   4.233   9.520
55610SOL     OW68603  12.282   8.651   8.566
55610SOL    HW168604  12.358   8.655   8.624
55610SOL    HW268605  12.283   8.734   8.519
55611SOL     OW68606   5.498  12.960  10.407
55611SOL    HW168607   5.517  12.869  10.388
55611SOL    HW268608   5.523  12.971  10.499
55612SOL     OW68609   8.814  11.487   0.578
55612SOL    HW168610   8.795  11.555   0.644
55612SOL    HW268611   8.895  11.516   0.537
55613SOL     OW68612   3.589  11.304   2.893
55613SOL    HW168613   3.503  11.290   2.853
55613SOL    HW268614   3.640  11.348   2.825
55614SOL     OW68615   0.501   6.862   9.427
55614SOL    HW168616   0.511   6.957   9.423
55614SOL    HW268617   0.408   6.849   9.449
55615SOL     OW68618   7.380   8.427   7.096
55615SOL    HW168619   7.458   8.435   7.152
55615SOL    HW268620   7.337   8.512   7.103
55616SOL     OW68621  11.398   4.809  12.455
55616SOL    HW168622  11.404   4.798  12.550
55616SOL    HW268623  11.488   4.828  12.427
55617SOL     OW68624   4.359   2.804  13.993
55617SOL    HW168625   4.367   2.709  13.995
55617SOL    HW268626   4.373   2.832  14.083
55618SOL     OW68627   3.190   1.596  12.556
55618SOL    HW168628   3.251   1.610  12.628
55618SOL    HW268629   3.163   1.504  12.565
55619SOL     OW68630  10.757  10.482  13.421
55619SOL    HW168631  10.754  10.387  13.425
55619SOL    HW268632  10.676  10.508  13.377
55620SOL     OW68633   0.547   0.147   7.259
55620SOL    HW168634   0.501   0.094   7.324
55620SOL    HW268635   0.629   0.171   7.301
55621SOL     OW68636   1.822   0.104  14.742
55621SOL    HW168637   1.777   0.029  14.702
55621SOL    HW268638   1.855   0.071  14.825
55622SOL     OW68639   2.557   9.129   7.486
55622SOL    HW168640   2.489   9.182   7.526
55622SOL    HW268641   2.620   9.192   7.451
55623SOL     OW68642   5.930   3.721   9.624
55623SOL    HW168643   5.947   3.800   9.572
55623SOL    HW268644   5.872   3.750   9.695
55624SOL     OW68645  14.387   1.527   4.676
55624SOL    HW168646  14.370   1.573   4.594
55624SOL    HW268647  14.344   1.580   4.743
55625SOL     OW68648  14.171   9.259   4.181
55625SOL    HW168649  14.219   9.298   4.255
55625SOL    HW268650  14.167   9.166   4.202
55626SOL     OW68651   3.757   1.458  13.966
55626SOL    HW168652   3.822   1.524  13.939
55626SOL    HW268653   3.703   1.503  14.031
55627SOL     OW68654   4.425   0.137   4.274
55627SOL    HW168655   4.424   0.169   4.365
55627SOL    HW268656   4.348   0.178   4.234
55628SOL     OW68657   3.535   2.835   7.336
55628SOL    HW168658   3.529   2.807   7.244
55628SOL    HW268659   3.581   2.764   7.380
55629SOL     OW68660   1.858  13.424   5.820
55629SOL    HW168661   1.829  13.452   5.907
55629SOL    HW268662   1.778  13.417   5.768
55630SOL     OW68663   7.903   5.832   7.529
55630SOL    HW168664   7.913   5.919   7.490
55630SOL    HW268665   7.952   5.836   7.611
55631SOL     OW68666   7.805   1.131   0.903
55631SOL    HW168667   7.783   1.043   0.935
55631SOL    HW268668   7.788   1.126   0.809
55632SOL     OW68669   9.901  14.013   2.583
55632SOL    HW168670   9.959  14.060   2.643
55632SOL    HW268671   9.816  14.056   2.594
55633SOL     OW68672   7.525  14.595  13.496
55633SOL    HW168673   7.491  14.676  13.458
55633SOL    HW268674   7.496  14.526  13.436
55634SOL     OW68675  13.283   9.261   0.431
55634SOL    HW168676  13.346   9.219   0.372
55634SOL    HW268677  13.234   9.189   0.470
55635SOL     OW68678  10.354   9.295   3.357
55635SOL    HW168679  10.260   9.277   3.348
55635SOL    HW268680  10.396   9.211   3.336
55636SOL     OW68681   6.716   1.090   9.155
55636SOL    HW168682   6.639   1.044   9.121
55636SOL    HW268683   6.685   1.131   9.236
55637SOL     OW68684   2.869   6.889   3.446
55637SOL    HW168685   2.883   6.806   3.400
55637SOL    HW268686   2.829   6.863   3.529
55638SOL     OW68687  12.490   6.825   0.279
55638SOL    HW168688  12.585   6.825   0.287
55638SOL    HW268689  12.459   6.774   0.355
55639SOL     OW68690   6.257  10.924   1.847
55639SOL    HW168691   6.328  10.865   1.872
55639SOL    HW268692   6.250  10.914   1.752
55640SOL     OW68693   3.519   0.181   6.924
55640SOL    HW168694   3.528   0.197   7.018
55640SOL    HW268695   3.429   0.151   6.913
55641SOL     OW68696   4.371   7.866   5.665
55641SOL    HW168697   4.356   7.948   5.713
55641SOL    HW268698   4.431   7.890   5.595
55642SOL     OW68699   2.444   3.142   2.164
55642SOL    HW168700   2.452   3.046   2.169
55642SOL    HW268701   2.396   3.166   2.244
55643SOL     OW68702  12.292  12.312   6.353
55643SOL    HW168703  12.223  12.376   6.335
55643SOL    HW268704  12.256  12.229   6.323
55644SOL     OW68705   4.238   7.379   0.986
55644SOL    HW168706   4.258   7.399   0.894
55644SOL    HW268707   4.205   7.289   0.985
55645SOL     OW68708   7.089   9.471   1.772
55645SOL    HW168709   7.110   9.385   1.736
55645SOL    HW268710   6.994   9.478   1.766
55646SOL     OW68711   8.708  14.786  14.423
55646SOL    HW168712   8.703  14.871  14.380
55646SOL    HW268713   8.617  14.755  14.427
55647SOL     OW68714   7.087   8.010  12.805
55647SOL    HW168715   7.037   8.041  12.729
55647SOL    HW268716   7.145   8.083  12.827
55648SOL     OW68717  10.127  12.676   5.630
55648SOL    HW168718  10.103  12.701   5.719
55648SOL    HW268719  10.048  12.634   5.595
55649SOL     OW68720   3.709  11.269  12.304
55649SOL    HW168721   3.659  11.350  12.312
55649SOL    HW268722   3.651  11.210  12.257
55650SOL     OW68723  13.167   7.790   6.090
55650SOL    HW168724  13.219   7.758   6.016
55650SOL    HW268725  13.089   7.827   6.050
55651SOL     OW68726   8.854  13.010  13.089
55651SOL    HW168727   8.779  12.972  13.044
55651SOL    HW268728   8.912  12.935  13.105
55652SOL     OW68729   3.720  12.620  13.546
55652SOL    HW168730   3.651  12.643  13.608
55652SOL    HW268731   3.731  12.699  13.493
55653SOL     OW68732   6.647  10.227   4.151
55653SOL    HW168733   6.688  10.303   4.192
55653SOL    HW268734   6.554  10.248   4.150
55654SOL     OW68735   6.327   7.734  12.664
55654SOL    HW168736   6.269   7.681  12.610
55654SOL    HW268737   6.384   7.779  12.602
55655SOL     OW68738  11.089   3.055  10.342
55655SOL    HW168739  11.176   3.095  10.354
55655SOL    HW268740  11.047   3.110  10.276
55656SOL     OW68741   5.127   5.645  14.233
55656SOL    HW168742   5.036   5.632  14.259
55656SOL    HW268743   5.123   5.663  14.139
55657SOL     OW68744   0.321   8.129   0.238
55657SOL    HW168745   0.276   8.213   0.225
55657SOL    HW268746   0.396   8.151   0.294
55658SOL     OW68747   9.538  13.097   5.765
55658SOL    HW168748   9.585  13.153   5.827
55658SOL    HW268749   9.603  13.033   5.737
55659SOL     OW68750   6.688   9.113   4.208
55659SOL    HW168751   6.722   9.033   4.170
55659SOL    HW268752   6.694   9.178   4.138
55660SOL     OW68753   6.958   9.945  10.100
55660SOL    HW168754   6.896   9.875  10.079
55660SOL    HW268755   6.909  10.026  10.086
55661SOL     OW68756   3.026  12.434   2.976
55661SOL    HW168757   3.040  12.339   2.968
55661SOL    HW268758   2.962  12.454   2.907
55662SOL     OW68759   8.795  12.664   3.132
55662SOL    HW168760   8.887  12.689   3.146
55662SOL    HW268761   8.745  12.734   3.174
55663SOL     OW68762   9.228  13.823  13.381
55663SOL    HW168763   9.222  13.795  13.290
55663SOL    HW268764   9.266  13.910  13.377
55664SOL     OW68765   8.374   9.343   9.647
55664SOL    HW168766   8.414   9.428   9.630
55664SOL    HW268767   8.406   9.288   9.576
55665SOL     OW68768  14.666  12.286   9.025
55665SOL    HW168769  14.675  12.326   9.111
55665SOL    HW268770  14.636  12.197   9.043
55666SOL     OW68771   6.671   6.930   8.033
55666SOL    HW168772   6.704   7.010   7.993
55666SOL    HW268773   6.738   6.905   8.096
55667SOL     OW68774  13.074   1.735   1.612
55667SOL    HW168775  13.034   1.773   1.534
55667SOL    HW268776  13.144   1.796   1.635
55668SOL     OW68777   4.175   3.649   6.735
55668SOL    HW168778   4.235   3.688   6.672
55668SOL    HW268779   4.140   3.572   6.691
55669SOL     OW68780  14.206  14.242   1.397
55669SOL    HW168781  14.169  14.258   1.310
55669SOL    HW268782  14.171  14.156   1.423
55670SOL     OW68783   4.251   2.230  13.378
55670SOL    HW168784   4.317   2.220  13.309
55670SOL    HW268785   4.168   2.239  13.330
55671SOL     OW68786   3.696   4.770  10.065
55671SOL    HW168787   3.641   4.708  10.015
55671SOL    HW268788   3.761   4.714  10.107
55672SOL     OW68789   2.938   6.407  11.369
55672SOL    HW168790   2.885   6.344  11.321
55672SOL    HW268791   2.877   6.453  11.426
55673SOL     OW68792  13.349   6.742  13.191
55673SOL    HW168793  13.323   6.769  13.103
55673SOL    HW268794  13.320   6.813  13.248
55674SOL     OW68795   7.041   7.210   6.686
55674SOL    HW168796   7.086   7.190   6.604
55674SOL    HW268797   7.099   7.176   6.754
55675SOL     OW68798   1.780   3.616  11.630
55675SOL    HW168799   1.867   3.635  11.595
55675SOL    HW268800   1.763   3.689  11.690
55676SOL     OW68801  14.685  10.263   2.655
55676SOL    HW168802  14.665  10.230   2.742
55676SOL    HW268803  14.712  10.353   2.668
55677SOL     OW68804   2.285   1.374   5.857
55677SOL    HW168805   2.252   1.366   5.768
55677SOL    HW268806   2.363   1.430   5.848
55678SOL     OW68807   2.084  12.663   9.651
55678SOL    HW168808   2.036  12.692   9.728
55678SOL    HW268809   2.101  12.742   9.601
55679SOL     OW68810   6.891  13.748   3.587
55679SOL    HW168811   6.887  13.803   3.509
55679SOL    HW268812   6.840  13.796   3.652
55680SOL     OW68813  12.907  11.414   6.115
55680SOL    HW168814  12.870  11.455   6.194
55680SOL    HW268815  12.948  11.486   6.068
55681SOL     OW68816  11.692  13.179   9.247
55681SOL    HW168817  11.600  13.156   9.238
55681SOL    HW268818  11.733  13.101   9.284
55682SOL     OW68819   4.590   7.476   0.172
55682SOL    HW168820   4.683   7.457   0.168
55682SOL    HW268821   4.548   7.392   0.189
55683SOL     OW68822   3.230   3.408  10.915
55683SOL    HW168823   3.236   3.373  10.827
55683SOL    HW268824   3.305   3.371  10.962
55684SOL     OW68825   7.141   9.496   8.164
55684SOL    HW168826   7.202   9.568   8.183
55684SOL    HW268827   7.196   9.421   8.147
55685SOL     OW68828  13.757  11.217   9.340
55685SOL    HW168829  13.843  11.257   9.355
55685SOL    HW268830  13.725  11.195   9.427
55686SOL     OW68831  10.916   8.957   8.495
55686SOL    HW168832  10.990   8.973   8.436
55686SOL    HW268833  10.839   8.966   8.439
55687SOL     OW68834   4.736   2.955   2.463
55687SOL    HW168835   4.661   3.006   2.495
55687SOL    HW268836   4.708   2.864   2.474
55688SOL     OW68837   6.368   2.941   5.768
55688SOL    HW168838   6.349   3.012   5.829
55688SOL    HW268839   6.463   2.929   5.774
55689SOL     OW68840   3.894  10.772   2.739
55689SOL    HW168841   3.857  10.843   2.687
55689SOL    HW268842   3.823  10.746   2.798
55690SOL     OW68843   1.323  11.178  14.486
55690SOL    HW168844   1.328  11.243  14.416
55690SOL    HW268845   1.410  11.137  14.486
55691SOL     OW68846   9.014  10.947  11.448
55691SOL    HW168847   9.093  10.994  11.472
55691SOL    HW268848   8.988  10.985  11.364
55692SOL     OW68849  13.324  14.247   0.375
55692SOL    HW168850  13.273  14.170   0.351
55692SOL    HW268851  13.295  14.315   0.314
55693SOL     OW68852   6.939  11.997   3.056
55693SOL    HW168853   6.947  11.907   3.089
55693SOL    HW268854   6.861  11.995   3.001
55694SOL     OW68855   9.041   3.682   4.308
55694SOL    HW168856   9.042   3.693   4.213
55694SOL    HW268857   8.950   3.661   4.329
55695SOL     OW68858   0.294   4.253   8.064
55695SOL    HW168859   0.318   4.238   7.972
55695SOL    HW268860   0.201   4.274   8.061
55696SOL     OW68861   1.092   7.433   6.215
55696SOL    HW168862   1.150   7.358   6.206
55696SOL    HW268863   1.004   7.398   6.198
55697SOL     OW68864  11.652  11.787  10.666
55697SOL    HW168865  11.673  11.880  10.654
55697SOL    HW268866  11.724  11.752  10.718
55698SOL     OW68867   2.110   1.076   2.362
55698SOL    HW168868   2.134   0.983   2.366
55698SOL    HW268869   2.119   1.107   2.452
55699SOL     OW68870  10.651   6.642   6.472
55699SOL    HW168871  10.726   6.679   6.518
55699SOL    HW268872  10.617   6.714   6.419
55700SOL     OW68873  13.290   0.772  14.672
55700SOL    HW168874  13.279   0.865  14.692
55700SOL    HW268875  13.256   0.763  14.583
55701SOL     OW68876  12.308   6.642   5.013
55701SOL    HW168877  12.378   6.686   4.964
55701SOL    HW268878  12.352   6.602   5.088
55702SOL     OW68879  13.616   5.737   2.727
55702SOL    HW168880  13.690   5.727   2.786
55702SOL    HW268881  13.544   5.693   2.771
55703SOL     OW68882   9.063  10.382   3.338
55703SOL    HW168883   8.985  10.396   3.392
55703SOL    HW268884   9.062  10.288   3.318
55704SOL     OW68885   6.265  11.629   5.470
55704SOL    HW168886   6.190  11.665   5.516
55704SOL    HW268887   6.299  11.702   5.418
55705SOL     OW68888  10.700   4.739   6.956
55705SOL    HW168889  10.636   4.790   6.907
55705SOL    HW268890  10.648   4.671   6.999
55706SOL     OW68891   1.163   7.536  11.769
55706SOL    HW168892   1.132   7.535  11.860
55706SOL    HW268893   1.178   7.443  11.748
55707SOL     OW68894   4.548   7.875  13.695
55707SOL    HW168895   4.599   7.863  13.615
55707SOL    HW268896   4.611   7.905  13.760
55708SOL     OW68897   9.677   5.931   7.070
55708SOL    HW168898   9.693   5.860   7.007
55708SOL    HW268899   9.753   5.928   7.128
55709SOL     OW68900   3.627  12.876   0.815
55709SOL    HW168901   3.670  12.891   0.730
55709SOL    HW268902   3.668  12.939   0.874
55710SOL     OW68903  13.076  13.551   8.720
55710SOL    HW168904  13.161  13.515   8.744
55710SOL    HW268905  13.013  13.489   8.755
55711SOL     OW68906   7.022   7.033   3.314
55711SOL    HW168907   7.037   6.941   3.336
55711SOL    HW268908   7.108   7.066   3.289
55712SOL     OW68909  14.124   4.348  11.476
55712SOL    HW168910  14.129   4.351  11.381
55712SOL    HW268911  14.115   4.254  11.497
55713SOL     OW68912   9.434   0.593  10.914
55713SOL    HW168913   9.413   0.580  11.007
55713SOL    HW268914   9.423   0.506  10.875
55714SOL     OW68915   7.018   5.746   4.932
55714SOL    HW168916   6.989   5.721   5.019
55714SOL    HW268917   7.093   5.803   4.946
55715SOL     OW68918   5.860   9.383   1.194
55715SOL    HW168919   5.788   9.358   1.253
55715SOL    HW268920   5.931   9.408   1.253
55716SOL     OW68921   6.824   0.542  12.143
55716SOL    HW168922   6.755   0.476  12.145
55716SOL    HW268923   6.871   0.526  12.061
55717SOL     OW68924  11.297   8.939   4.339
55717SOL    HW168925  11.351   9.013   4.367
55717SOL    HW268926  11.222   8.939   4.398
55718SOL     OW68927   7.921   6.554   0.138
55718SOL    HW168928   7.968   6.637   0.150
55718SOL    HW268929   7.913   6.544   0.043
55719SOL     OW68930  12.924   0.558   4.303
55719SOL    HW168931  12.891   0.469   4.289
55719SOL    HW268932  12.958   0.585   4.217
55720SOL     OW68933  11.055  12.938   3.774
55720SOL    HW168934  11.133  12.886   3.756
55720SOL    HW268935  10.983  12.875   3.773
55721SOL     OW68936  13.897   8.585  10.006
55721SOL    HW168937  13.805   8.576   9.983
55721SOL    HW268938  13.895   8.618  10.096
55722SOL     OW68939  12.851  14.034   0.921
55722SOL    HW168940  12.771  14.058   0.876
55722SOL    HW268941  12.847  14.081   1.004
55723SOL     OW68942   4.305   4.053  14.783
55723SOL    HW168943   4.281   4.102  14.704
55723SOL    HW268944   4.327   4.121  14.847
55724SOL     OW68945   9.387   7.066   6.556
55724SOL    HW168946   9.312   7.039   6.609
55724SOL    HW268947   9.398   6.995   6.492
55725SOL     OW68948   3.413   0.369  12.405
55725SOL    HW168949   3.466   0.374  12.485
55725SOL    HW268950   3.408   0.275  12.386
55726SOL     OW68951   2.805   0.552   1.760
55726SOL    HW168952   2.882   0.496   1.754
55726SOL    HW268953   2.769   0.534   1.847
55727SOL     OW68954  13.623  14.060  10.405
55727SOL    HW168955  13.611  14.058  10.310
55727SOL    HW268956  13.712  14.094  10.417
55728SOL     OW68957  13.337   6.799   6.692
55728SOL    HW168958  13.390   6.786   6.771
55728SOL    HW268959  13.249   6.770   6.717
55729SOL     OW68960  10.229   2.913  14.080
55729SOL    HW168961  10.250   2.981  14.017
55729SOL    HW268962  10.188   2.960  14.153
55730SOL     OW68963  11.043  10.335   9.622
55730SOL    HW168964  11.072  10.416   9.581
55730SOL    HW268965  11.012  10.362   9.709
55731SOL     OW68966   2.458   9.463   3.335
55731SOL    HW168967   2.464   9.480   3.241
55731SOL    HW268968   2.528   9.516   3.374
55732SOL     OW68969  12.246   3.060  11.617
55732SOL    HW168970  12.306   3.109  11.561
55732SOL    HW268971  12.274   3.081  11.706
55733SOL     OW68972   7.950  11.048  14.293
55733SOL    HW168973   7.896  11.126  14.290
55733SOL    HW268974   7.979  11.042  14.384
55734SOL     OW68975   9.323   3.683   4.102
55734SOL    HW168976   9.232   3.671   4.075
55734SOL    HW268977   9.345   3.771   4.072
55735SOL     OW68978   1.980   0.810  13.062
55735SOL    HW168979   1.974   0.765  12.978
55735SOL    HW268980   2.031   0.889  13.043
55736SOL     OW68981  13.007   4.516   7.112
55736SOL    HW168982  13.049   4.592   7.070
55736SOL    HW268983  13.067   4.444   7.096
55737SOL     OW68984   8.460   9.852   7.883
55737SOL    HW168985   8.423   9.814   7.963
55737SOL    HW268986   8.533   9.906   7.913
55738SOL     OW68987   5.374   4.382   2.368
55738SOL    HW168988   5.345   4.462   2.412
55738SOL    HW268989   5.301   4.322   2.377
55739SOL     OW68990   4.888  12.684   1.448
55739SOL    HW168991   4.803  12.726   1.459
55739SOL    HW268992   4.885  12.608   1.506
55740SOL     OW68993   2.259   2.182   3.062
55740SOL    HW168994   2.298   2.268   3.051
55740SOL    HW268995   2.316   2.136   3.124
55741SOL     OW68996   3.783   4.389   3.963
55741SOL    HW168997   3.717   4.403   4.031
55741SOL    HW268998   3.736   4.403   3.880
55742SOL     OW68999   2.737   4.006   6.407
55742SOL    HW169000   2.824   3.971   6.425
55742SOL    HW269001   2.754   4.089   6.360
55743SOL     OW69002   8.445   6.493   4.672
55743SOL    HW169003   8.412   6.518   4.758
55743SOL    HW269004   8.370   6.502   4.614
55744SOL     OW69005  14.504   1.752   3.188
55744SOL    HW169006  14.483   1.829   3.135
55744SOL    HW269007  14.585   1.718   3.149
55745SOL     OW69008   9.550   1.139   2.199
55745SOL    HW169009   9.515   1.116   2.112
55745SOL    HW269010   9.644   1.148   2.186
55746SOL     OW69011   8.351   2.057   2.133
55746SOL    HW169012   8.334   1.996   2.061
55746SOL    HW269013   8.444   2.047   2.152
55747SOL     OW69014   5.810   1.430   1.628
55747SOL    HW169015   5.783   1.340   1.614
55747SOL    HW269016   5.905   1.425   1.640
55748SOL     OW69017  12.629   5.309   2.237
55748SOL    HW169018  12.682   5.260   2.300
55748SOL    HW269019  12.619   5.396   2.277
55749SOL     OW69020  14.663   9.433   1.963
55749SOL    HW169021  14.636   9.365   2.026
55749SOL    HW269022  14.752   9.409   1.939
55750SOL     OW69023   2.528   7.926   0.788
55750SOL    HW169024   2.542   7.976   0.708
55750SOL    HW269025   2.560   7.838   0.767
55751SOL     OW69026  12.273   5.774  12.520
55751SOL    HW169027  12.234   5.749  12.437
55751SOL    HW269028  12.213   5.739  12.587
55752SOL     OW69029   7.693   9.371  10.689
55752SOL    HW169030   7.748   9.298  10.663
55752SOL    HW269031   7.659   9.407  10.607
55753SOL     OW69032   8.134  12.499   6.883
55753SOL    HW169033   8.181  12.537   6.957
55753SOL    HW269034   8.077  12.570   6.852
55754SOL     OW69035   3.599   9.967  14.562
55754SOL    HW169036   3.513   9.929  14.548
55754SOL    HW269037   3.596  10.004  14.650
55755SOL     OW69038   0.759   5.289   2.212
55755SOL    HW169039   0.810   5.314   2.289
55755SOL    HW269040   0.670   5.274   2.246
55756SOL     OW69041   1.337  11.702  12.059
55756SOL    HW169042   1.353  11.618  12.102
55756SOL    HW269043   1.284  11.750  12.123
55757SOL     OW69044   0.701  14.347   6.244
55757SOL    HW169045   0.645  14.271   6.261
55757SOL    HW269046   0.750  14.323   6.165
55758SOL     OW69047   6.390   5.547   4.501
55758SOL    HW169048   6.372   5.628   4.453
55758SOL    HW269049   6.314   5.491   4.484
55759SOL     OW69050   9.204   5.942   2.414
55759SOL    HW169051   9.216   5.945   2.509
55759SOL    HW269052   9.286   5.906   2.380
55760SOL     OW69053   1.857  13.810  14.172
55760SOL    HW169054   1.922  13.746  14.144
55760SOL    HW269055   1.900  13.895  14.161
55761SOL     OW69056   7.719   3.771   0.058
55761SOL    HW169057   7.780   3.838   0.087
55761SOL    HW269058   7.728   3.701   0.122
55762SOL     OW69059   4.170   7.970   4.445
55762SOL    HW169060   4.088   7.922   4.461
55762SOL    HW269061   4.147   8.034   4.378
55763SOL     OW69062   8.622  13.326   8.358
55763SOL    HW169063   8.636  13.262   8.288
55763SOL    HW269064   8.654  13.282   8.436
55764SOL     OW69065  13.189  10.820   3.104
55764SOL    HW169066  13.097  10.837   3.085
55764SOL    HW269067  13.236  10.857   3.029
55765SOL     OW69068   5.229   5.037   7.884
55765SOL    HW169069   5.203   5.077   7.800
55765SOL    HW269070   5.287   4.965   7.859
55766SOL     OW69071  11.087  10.899   7.833
55766SOL    HW169072  11.170  10.859   7.809
55766SOL    HW269073  11.107  10.993   7.841
55767SOL     OW69074   5.967   7.585   8.145
55767SOL    HW169075   5.880   7.554   8.122
55767SOL    HW269076   5.981   7.662   8.090
55768SOL     OW69077   9.210   1.640  13.379
55768SOL    HW169078   9.302   1.617  13.397
55768SOL    HW269079   9.211   1.671  13.288
55769SOL     OW69080   4.273   7.846   8.621
55769SOL    HW169081   4.361   7.811   8.636
55769SOL    HW269082   4.249   7.814   8.534
55770SOL     OW69083   3.268  14.194   9.163
55770SOL    HW169084   3.265  14.125   9.229
55770SOL    HW269085   3.224  14.156   9.087
55771SOL     OW69086   5.409   6.196   6.641
55771SOL    HW169087   5.450   6.232   6.719
55771SOL    HW269088   5.430   6.259   6.572
55772SOL     OW69089  10.068  14.417   8.591
55772SOL    HW169090  10.010  14.399   8.517
55772SOL    HW269091  10.010  14.425   8.666
55773SOL     OW69092  13.898   6.036   0.568
55773SOL    HW169093  13.901   6.022   0.473
55773SOL    HW269094  13.816   6.084   0.582
55774SOL     OW69095  14.684   8.873   4.408
55774SOL    HW169096  14.734   8.883   4.489
55774SOL    HW269097  14.659   8.781   4.407
55775SOL     OW69098   3.808  11.077  10.098
55775SOL    HW169099   3.759  11.158  10.115
55775SOL    HW269100   3.766  11.011  10.154
55776SOL     OW69101   7.771   1.416   7.597
55776SOL    HW169102   7.794   1.486   7.657
55776SOL    HW269103   7.854   1.392   7.555
55777SOL     OW69104   1.992   0.533   2.926
55777SOL    HW169105   1.989   0.439   2.945
55777SOL    HW269106   1.935   0.572   2.992
55778SOL     OW69107   3.035  10.128   7.321
55778SOL    HW169108   3.009  10.089   7.238
55778SOL    HW269109   3.108  10.186   7.298
55779SOL     OW69110   8.102   0.213   7.077
55779SOL    HW169111   8.145   0.188   7.159
55779SOL    HW269112   8.010   0.224   7.100
55780SOL     OW69113  14.279  14.061   7.737
55780SOL    HW169114  14.306  14.004   7.665
55780SOL    HW269115  14.189  14.086   7.715
55781SOL     OW69116  10.141   2.926   7.045
55781SOL    HW169117  10.109   3.008   7.083
55781SOL    HW269118  10.230   2.947   7.014
55782SOL     OW69119  13.875   7.620   8.141
55782SOL    HW169120  13.787   7.602   8.174
55782SOL    HW269121  13.913   7.534   8.126
55783SOL     OW69122  14.016   8.661   7.758
55783SOL    HW169123  13.993   8.574   7.790
55783SOL    HW269124  14.045   8.646   7.668
55784SOL     OW69125   9.793   5.177   1.824
55784SOL    HW169126   9.801   5.206   1.915
55784SOL    HW269127   9.701   5.153   1.814
55785SOL     OW69128  12.511  10.137   2.169
55785SOL    HW169129  12.531  10.135   2.263
55785SOL    HW269130  12.490  10.046   2.147
55786SOL     OW69131   6.596   5.728   7.792
55786SOL    HW169132   6.661   5.666   7.825
55786SOL    HW269133   6.530   5.675   7.749
55787SOL     OW69134   4.636   2.343   5.318
55787SOL    HW169135   4.731   2.341   5.313
55787SOL    HW269136   4.611   2.425   5.275
55788SOL     OW69137   6.119  14.344   4.318
55788SOL    HW169138   6.026  14.327   4.337
55788SOL    HW269139   6.141  14.419   4.373
55789SOL     OW69140   6.683   4.647   0.683
55789SOL    HW169141   6.729   4.564   0.681
55789SOL    HW269142   6.653   4.660   0.593
55790SOL     OW69143  13.278   2.494   3.558
55790SOL    HW169144  13.189   2.513   3.528
55790SOL    HW269145  13.267   2.438   3.635
55791SOL     OW69146   9.054   4.571   4.222
55791SOL    HW169147   9.121   4.580   4.154
55791SOL    HW269148   8.986   4.633   4.198
55792SOL     OW69149  12.052  10.879  12.560
55792SOL    HW169150  11.988  10.828  12.608
55792SOL    HW269151  12.066  10.957  12.614
55793SOL     OW69152   0.881  11.493   0.781
55793SOL    HW169153   0.845  11.407   0.804
55793SOL    HW269154   0.895  11.537   0.865
55794SOL     OW69155   7.766  14.379   6.287
55794SOL    HW169156   7.682  14.337   6.268
55794SOL    HW269157   7.763  14.398   6.380
55795SOL     OW69158   5.762  10.114  11.006
55795SOL    HW169159   5.770  10.105  11.101
55795SOL    HW269160   5.836  10.064  10.972
55796SOL     OW69161   3.907   1.269   8.999
55796SOL    HW169162   3.997   1.298   9.014
55796SOL    HW269163   3.908   1.176   9.021
55797SOL     OW69164   5.524   9.153   5.867
55797SOL    HW169165   5.587   9.220   5.840
55797SOL    HW269166   5.578   9.077   5.888
55798SOL     OW69167   9.896   6.931   3.677
55798SOL    HW169168   9.850   6.889   3.749
55798SOL    HW269169   9.924   7.015   3.712
55799SOL     OW69170   0.663  13.269   0.563
55799SOL    HW169171   0.742  13.299   0.608
55799SOL    HW269172   0.593  13.278   0.628
55800SOL     OW69173  13.546   1.636  14.639
55800SOL    HW169174  13.602   1.624  14.715
55800SOL    HW269175  13.475   1.573  14.651
55801SOL     OW69176   8.018   3.646  13.198
55801SOL    HW169177   7.981   3.726  13.162
55801SOL    HW269178   8.102   3.636  13.153
55802SOL     OW69179  11.374  13.093   8.868
55802SOL    HW169180  11.408  13.170   8.915
55802SOL    HW269181  11.292  13.072   8.912
55803SOL     OW69182   2.749   9.637  14.515
55803SOL    HW169183   2.790   9.685  14.443
55803SOL    HW269184   2.794   9.553  14.516
55804SOL     OW69185  11.917   3.913   6.609
55804SOL    HW169186  11.994   3.862   6.583
55804SOL    HW269187  11.846   3.849   6.615
55805SOL     OW69188   8.980   6.114  10.472
55805SOL    HW169189   9.003   6.125  10.564
55805SOL    HW269190   9.046   6.164  10.424
55806SOL     OW69191   5.327   6.457   7.708
55806SOL    HW169192   5.297   6.418   7.790
55806SOL    HW269193   5.419   6.478   7.723
55807SOL     OW69194   6.738   6.825   3.772
55807SOL    HW169195   6.752   6.915   3.744
55807SOL    HW269196   6.792   6.816   3.851
55808SOL     OW69197  14.533   2.968  11.240
55808SOL    HW169198  14.602   2.924  11.290
55808SOL    HW269199  14.514   2.908  11.168
55809SOL     OW69200  13.522  12.259   1.340
55809SOL    HW169201  13.570  12.334   1.304
55809SOL    HW269202  13.441  12.297   1.374
55810SOL     OW69203   2.562   6.882   7.303
55810SOL    HW169204   2.578   6.788   7.312
55810SOL    HW269205   2.649   6.921   7.291
55811SOL     OW69206  13.733   8.634   0.338
55811SOL    HW169207  13.744   8.665   0.248
55811SOL    HW269208  13.678   8.557   0.330
55812SOL     OW69209   0.653   5.174   4.220
55812SOL    HW169210   0.733   5.132   4.253
55812SOL    HW269211   0.642   5.251   4.275
55813SOL     OW69212   3.767   1.763  11.103
55813SOL    HW169213   3.837   1.744  11.165
55813SOL    HW269214   3.723   1.840  11.139
55814SOL     OW69215  10.891  13.301  13.836
55814SOL    HW169216  10.821  13.361  13.862
55814SOL    HW269217  10.882  13.292  13.741
55815SOL     OW69218   4.656   7.575   1.176
55815SOL    HW169219   4.563   7.596   1.176
55815SOL    HW269220   4.685   7.592   1.086
55816SOL     OW69221   6.280   8.013   3.124
55816SOL    HW169222   6.214   8.042   3.186
55816SOL    HW269223   6.248   7.928   3.093
55817SOL     OW69224   3.830  11.808   0.182
55817SOL    HW169225   3.873  11.738   0.132
55817SOL    HW269226   3.739  11.807   0.152
55818SOL     OW69227   0.130   8.638   2.926
55818SOL    HW169228   0.169   8.722   2.952
55818SOL    HW269229   0.036   8.654   2.928
55819SOL     OW69230  14.625  11.413  14.569
55819SOL    HW169231  14.650  11.394  14.659
55819SOL    HW269232  14.707  11.403  14.519
55820SOL     OW69233  11.415   3.031   1.943
55820SOL    HW169234  11.373   3.113   1.917
55820SOL    HW269235  11.347   2.982   1.990
55821SOL     OW69236   6.634  10.851   5.292
55821SOL    HW169237   6.706  10.853   5.355
55821SOL    HW269238   6.564  10.804   5.337
55822SOL     OW69239   8.035   0.236  10.963
55822SOL    HW169240   8.043   0.199  10.875
55822SOL    HW269241   8.048   0.330  10.951
55823SOL     OW69242  11.454   5.920  13.759
55823SOL    HW169243  11.493   5.911  13.846
55823SOL    HW269244  11.409   5.837  13.744
55824SOL     OW69245   1.356  10.576   2.489
55824SOL    HW169246   1.266  10.586   2.459
55824SOL    HW269247   1.402  10.651   2.451
55825SOL     OW69248   6.587   1.353   8.343
55825SOL    HW169249   6.628   1.402   8.415
55825SOL    HW269250   6.633   1.383   8.265
55826SOL     OW69251   5.453   3.254   3.422
55826SOL    HW169252   5.501   3.180   3.386
55826SOL    HW269253   5.491   3.331   3.380
55827SOL     OW69254   1.642   1.892   1.461
55827SOL    HW169255   1.612   1.872   1.549
55827SOL    HW269256   1.736   1.907   1.470
55828SOL     OW69257   2.543  12.131   5.160
55828SOL    HW169258   2.595  12.187   5.217
55828SOL    HW269259   2.597  12.119   5.082
55829SOL     OW69260  12.715  11.336  11.660
55829SOL    HW169261  12.629  11.356  11.622
55829SOL    HW269262  12.706  11.361  11.752
55830SOL     OW69263  12.269   6.529   1.400
55830SOL    HW169264  12.270   6.517   1.495
55830SOL    HW269265  12.346   6.583   1.382
55831SOL     OW69266  14.355   6.838   0.722
55831SOL    HW169267  14.445   6.812   0.703
55831SOL    HW269268  14.308   6.822   0.640
55832SOL     OW69269   4.123  11.613   3.314
55832SOL    HW169270   4.124  11.631   3.408
55832SOL    HW269271   4.214  11.621   3.286
55833SOL     OW69272  11.951  10.305  12.609
55833SOL    HW169273  11.923  10.396  12.610
55833SOL    HW269274  11.946  10.278  12.517
55834SOL     OW69275   7.649   5.634   1.164
55834SOL    HW169276   7.685   5.661   1.080
55834SOL    HW269277   7.712   5.570   1.198
55835SOL     OW69278   6.686  13.363   9.714
55835SOL    HW169279   6.613  13.363   9.775
55835SOL    HW269280   6.739  13.439   9.739
55836SOL     OW69281   2.931  14.347   1.139
55836SOL    HW169282   2.975  14.429   1.159
55836SOL    HW269283   2.897  14.317   1.223
55837SOL     OW69284  13.442  12.137   9.208
55837SOL    HW169285  13.417  12.228   9.220
55837SOL    HW269286  13.526  12.141   9.162
55838SOL     OW69287  12.299  14.107  13.157
55838SOL    HW169288  12.271  14.095  13.248
55838SOL    HW269289  12.301  14.202  13.146
55839SOL     OW69290   3.913  12.741   9.356
55839SOL    HW169291   3.890  12.834   9.356
55839SOL    HW269292   3.965  12.728   9.435
55840SOL     OW69293   0.952  11.962  11.478
55840SOL    HW169294   1.021  11.958  11.411
55840SOL    HW269295   0.882  11.906  11.443
55841SOL     OW69296   7.702   0.513   3.616
55841SOL    HW169297   7.671   0.490   3.528
55841SOL    HW269298   7.773   0.451   3.633
55842SOL     OW69299   3.872  13.151   9.129
55842SOL    HW169300   3.844  13.100   9.053
55842SOL    HW269301   3.918  13.226   9.091
55843SOL     OW69302  14.429  12.345  13.620
55843SOL    HW169303  14.358  12.283  13.604
55843SOL    HW269304  14.431  12.357  13.715
55844SOL     OW69305   7.704   7.057   5.563
55844SOL    HW169306   7.733   6.974   5.601
55844SOL    HW269307   7.777   7.083   5.506
55845SOL     OW69308  11.171   7.886   0.603
55845SOL    HW169309  11.167   7.869   0.697
55845SOL    HW269310  11.156   7.800   0.563
55846SOL     OW69311   7.853   5.835  11.580
55846SOL    HW169312   7.863   5.746  11.546
55846SOL    HW269313   7.918   5.841  11.650
55847SOL     OW69314  10.561  14.860   9.030
55847SOL    HW169315  10.650  14.840   9.060
55847SOL    HW269316  10.573   0.046   8.960
55848SOL     OW69317   8.831   1.115   1.210
55848SOL    HW169318   8.742   1.152   1.209
55848SOL    HW269319   8.830   1.048   1.142
55849SOL     OW69320  11.190   5.899   4.361
55849SOL    HW169321  11.270   5.882   4.312
55849SOL    HW269322  11.221   5.925   4.448
55850SOL     OW69323  10.952   1.595   0.075
55850SOL    HW169324  10.967   1.501   0.065
55850SOL    HW269325  11.008   1.635   0.009
55851SOL     OW69326   2.161  14.507   8.317
55851SOL    HW169327   2.215  14.516   8.239
55851SOL    HW269328   2.197  14.571   8.379
55852SOL     OW69329   8.270  14.337   3.456
55852SOL    HW169330   8.245  14.342   3.364
55852SOL    HW269331   8.209  14.396   3.500
55853SOL     OW69332   7.921  11.434   0.660
55853SOL    HW169333   7.982  11.500   0.694
55853SOL    HW269334   7.946  11.424   0.568
55854SOL     OW69335   6.980  11.607   1.634
55854SOL    HW169336   7.023  11.531   1.596
55854SOL    HW269337   6.902  11.571   1.677
55855SOL     OW69338  12.439  13.636   5.107
55855SOL    HW169339  12.430  13.615   5.014
55855SOL    HW269340  12.360  13.685   5.128
55856SOL     OW69341   9.769   5.446   2.198
55856SOL    HW169342   9.784   5.394   2.277
55856SOL    HW269343   9.767   5.536   2.229
55857SOL     OW69344   7.774   8.566   8.398
55857SOL    HW169345   7.789   8.472   8.389
55857SOL    HW269346   7.837   8.594   8.464
55858SOL     OW69347   3.074   8.789  12.158
55858SOL    HW169348   3.151   8.792  12.101
55858SOL    HW269349   3.006   8.837  12.111
55859SOL     OW69350   3.385   4.426  12.346
55859SOL    HW169351   3.347   4.417  12.433
55859SOL    HW269352   3.344   4.505  12.309
55860SOL     OW69353   6.042  13.283  14.668
55860SOL    HW169354   6.107  13.277  14.737
55860SOL    HW269355   6.007  13.371  14.676
55861SOL     OW69356  13.273  11.898   3.628
55861SOL    HW169357  13.335  11.832   3.596
55861SOL    HW269358  13.190  11.877   3.585
55862SOL     OW69359   9.683   4.761   7.359
55862SOL    HW169360   9.609   4.768   7.420
55862SOL    HW269361   9.706   4.668   7.361
55863SOL     OW69362   8.360   2.691   6.430
55863SOL    HW169363   8.423   2.703   6.359
55863SOL    HW269364   8.410   2.650   6.501
55864SOL     OW69365   2.490  14.427   8.793
55864SOL    HW169366   2.502  14.389   8.706
55864SOL    HW269367   2.424  14.495   8.782
55865SOL     OW69368   7.969  10.798   8.212
55865SOL    HW169369   7.939  10.884   8.240
55865SOL    HW269370   8.005  10.812   8.124
55866SOL     OW69371  12.940   9.957  10.942
55866SOL    HW169372  12.951   9.902  10.864
55866SOL    HW269373  12.939   9.895  11.015
55867SOL     OW69374   3.657   6.739   7.017
55867SOL    HW169375   3.593   6.704   6.956
55867SOL    HW269376   3.741   6.711   6.982
55868SOL     OW69377  11.511   9.856  12.891
55868SOL    HW169378  11.561   9.821  12.817
55868SOL    HW269379  11.560   9.829  12.968
55869SOL     OW69380   0.530   3.808  10.253
55869SOL    HW169381   0.448   3.843  10.287
55869SOL    HW269382   0.520   3.713  10.258
55870SOL     OW69383  11.304  14.715   3.200
55870SOL    HW169384  11.347  14.753   3.277
55870SOL    HW269385  11.272  14.629   3.230
55871SOL     OW69386   7.914   5.443   7.395
55871SOL    HW169387   7.974   5.448   7.470
55871SOL    HW269388   7.970   5.422   7.320
55872SOL     OW69389   9.210   4.671  12.790
55872SOL    HW169390   9.288   4.622  12.814
55872SOL    HW269391   9.138   4.612  12.808
55873SOL     OW69392   8.679  11.957   9.755
55873SOL    HW169393   8.606  12.017   9.772
55873SOL    HW269394   8.671  11.890   9.823
55874SOL     OW69395  11.072   5.112   8.275
55874SOL    HW169396  11.047   5.203   8.289
55874SOL    HW269397  11.158   5.104   8.316
55875SOL     OW69398  11.649  14.460   7.653
55875SOL    HW169399  11.723  14.466   7.593
55875SOL    HW269400  11.654  14.541   7.704
55876SOL     OW69401  12.520  11.419   1.324
55876SOL    HW169402  12.459  11.373   1.267
55876SOL    HW269403  12.604  11.413   1.279
55877SOL     OW69404  10.264  11.272   8.655
55877SOL    HW169405  10.243  11.339   8.591
55877SOL    HW269406  10.222  11.192   8.621
55878SOL     OW69407   7.893   1.091  10.009
55878SOL    HW169408   7.852   1.005  10.003
55878SOL    HW269409   7.934   1.092  10.095
55879SOL     OW69410   0.467   5.808   7.190
55879SOL    HW169411   0.470   5.896   7.155
55879SOL    HW269412   0.550   5.768   7.164
55880SOL     OW69413   9.129  11.725   4.248
55880SOL    HW169414   9.166  11.760   4.167
55880SOL    HW269415   9.179  11.646   4.266
55881SOL     OW69416   1.432  14.089  14.510
55881SOL    HW169417   1.471  14.004  14.532
55881SOL    HW269418   1.481  14.119  14.433
55882SOL     OW69419   1.022  12.813   3.988
55882SOL    HW169420   1.085  12.831   4.058
55882SOL    HW269421   1.012  12.897   3.942
55883SOL     OW69422   3.384  12.890  11.756
55883SOL    HW169423   3.434  12.850  11.827
55883SOL    HW269424   3.423  12.976  11.744
55884SOL     OW69425   5.165   9.511   4.851
55884SOL    HW169426   5.165   9.553   4.937
55884SOL    HW269427   5.072   9.506   4.827
55885SOL     OW69428   0.404   5.463  10.135
55885SOL    HW169429   0.320   5.479  10.178
55885SOL    HW269430   0.385   5.399  10.067
55886SOL     OW69431   3.993  14.224   7.978
55886SOL    HW169432   4.029  14.136   7.991
55886SOL    HW269433   3.999  14.239   7.884
55887SOL     OW69434   5.620   6.662   4.162
55887SOL    HW169435   5.598   6.722   4.091
55887SOL    HW269436   5.664   6.716   4.226
55888SOL     OW69437  12.886   4.611  13.939
55888SOL    HW169438  12.877   4.601  14.034
55888SOL    HW269439  12.937   4.691  13.928
55889SOL     OW69440  14.341   5.053   2.567
55889SOL    HW169441  14.296   5.074   2.649
55889SOL    HW269442  14.404   5.124   2.555
55890SOL     OW69443  10.532   5.913   2.295
55890SOL    HW169444  10.471   5.847   2.262
55890SOL    HW269445  10.486   5.996   2.281
55891SOL     OW69446   0.570   1.652   3.183
55891SOL    HW169447   0.522   1.574   3.153
55891SOL    HW269448   0.660   1.636   3.155
55892SOL     OW69449   0.551  12.188  11.799
55892SOL    HW169450   0.560  12.283  11.806
55892SOL    HW269451   0.478  12.167  11.857
55893SOL     OW69452   1.261   5.403   9.081
55893SOL    HW169453   1.197   5.337   9.054
55893SOL    HW269454   1.212   5.461   9.139
55894SOL     OW69455   8.410  10.219  11.301
55894SOL    HW169456   8.440  10.277  11.231
55894SOL    HW269457   8.479  10.153  11.309
55895SOL     OW69458   2.710  11.153   7.342
55895SOL    HW169459   2.770  11.151   7.267
55895SOL    HW269460   2.665  11.238   7.335
55896SOL     OW69461   3.734   6.366   3.247
55896SOL    HW169462   3.783   6.287   3.266
55896SOL    HW269463   3.785   6.437   3.287
55897SOL     OW69464   4.579  10.002  10.840
55897SOL    HW169465   4.528   9.980  10.918
55897SOL    HW269466   4.670  10.008  10.871
55898SOL     OW69467   7.572   8.803  12.742
55898SOL    HW169468   7.612   8.888  12.725
55898SOL    HW269469   7.481   8.823  12.765
55899SOL     OW69470  13.319  10.929   2.886
55899SOL    HW169471  13.409  10.908   2.860
55899SOL    HW269472  13.269  10.926   2.805
55900SOL     OW69473   1.184   0.610   4.111
55900SOL    HW169474   1.134   0.689   4.135
55900SOL    HW269475   1.265   0.617   4.162
55901SOL     OW69476   8.848   0.660   8.527
55901SOL    HW169477   8.824   0.719   8.456
55901SOL    HW269478   8.932   0.623   8.500
55902SOL     OW69479   5.415   1.107   6.256
55902SOL    HW169480   5.409   1.198   6.285
55902SOL    HW269481   5.453   1.113   6.168
55903SOL     OW69482   9.553   2.730   6.695
55903SOL    HW169483   9.606   2.755   6.619
55903SOL    HW269484   9.518   2.813   6.728
55904SOL     OW69485   8.992  12.778  10.953
55904SOL    HW169486   8.955  12.741  11.033
55904SOL    HW269487   9.044  12.853  10.984
55905SOL     OW69488   6.140   3.036   0.379
55905SOL    HW169489   6.167   3.127   0.365
55905SOL    HW269490   6.110   3.006   0.293
55906SOL     OW69491   0.213   9.835   9.639
55906SOL    HW169492   0.294   9.801   9.677
55906SOL    HW269493   0.236   9.857   9.549
55907SOL     OW69494   5.411   2.628   2.747
55907SOL    HW169495   5.368   2.561   2.694
55907SOL    HW269496   5.342   2.692   2.764
55908SOL     OW69497  14.150   4.121   3.194
55908SOL    HW169498  14.133   4.152   3.283
55908SOL    HW269499  14.074   4.150   3.143
55909SOL     OW69500   8.608   4.617   8.059
55909SOL    HW169501   8.525   4.570   8.071
55909SOL    HW269502   8.667   4.553   8.020
55910SOL     OW69503   2.902   1.788   7.738
55910SOL    HW169504   2.862   1.762   7.655
55910SOL    HW269505   2.845   1.750   7.805
55911SOL     OW69506   0.184   4.543   6.023
55911SOL    HW169507   0.225   4.545   6.110
55911SOL    HW269508   0.238   4.482   5.973
55912SOL     OW69509   0.026  10.443   3.935
55912SOL    HW169510   0.106  10.428   3.985
55912SOL    HW269511  14.842  10.477   4.000
55913SOL     OW69512  13.223  10.437   8.278
55913SOL    HW169513  13.141  10.486   8.278
55913SOL    HW269514  13.196  10.346   8.275
55914SOL     OW69515   2.152   1.560  10.418
55914SOL    HW169516   2.079   1.592  10.365
55914SOL    HW269517   2.209   1.637  10.430
55915SOL     OW69518  10.992   2.296   5.139
55915SOL    HW169519  11.049   2.281   5.063
55915SOL    HW269520  10.904   2.279   5.106
55916SOL     OW69521   0.902   8.754   1.236
55916SOL    HW169522   0.924   8.661   1.241
55916SOL    HW269523   0.808   8.756   1.216
55917SOL     OW69524  11.916  14.802   4.425
55917SOL    HW169525  11.968  14.748   4.484
55917SOL    HW269526  11.861  14.855   4.482
55918SOL     OW69527   2.639  10.104   0.383
55918SOL    HW169528   2.600  10.134   0.301
55918SOL    HW269529   2.653  10.010   0.370
55919SOL     OW69530   5.942   4.543   0.435
55919SOL    HW169531   5.938   4.563   0.342
55919SOL    HW269532   5.949   4.447   0.438
55920SOL     OW69533   4.117  10.144   1.615
55920SOL    HW169534   4.141  10.056   1.645
55920SOL    HW269535   4.079  10.186   1.692
55921SOL     OW69536   7.092  11.939  14.363
55921SOL    HW169537   7.119  11.990  14.287
55921SOL    HW269538   7.070  12.005  14.429
55922SOL     OW69539   7.243   8.772   8.669
55922SOL    HW169540   7.252   8.747   8.762
55922SOL    HW269541   7.307   8.842   8.657
55923SOL     OW69542   3.237   4.219   9.438
55923SOL    HW169543   3.191   4.237   9.520
55923SOL    HW269544   3.250   4.306   9.398
55924SOL     OW69545   6.652   9.390   3.517
55924SOL    HW169546   6.733   9.340   3.529
55924SOL    HW269547   6.680   9.475   3.485
55925SOL     OW69548   2.874   3.123  11.359
55925SOL    HW169549   2.969   3.134  11.348
55925SOL    HW269550   2.836   3.164  11.282
55926SOL     OW69551   5.756   3.874   6.680
55926SOL    HW169552   5.832   3.882   6.623
55926SOL    HW269553   5.715   3.791   6.654
55927SOL     OW69554   5.405  11.086   9.884
55927SOL    HW169555   5.437  11.094   9.795
55927SOL    HW269556   5.481  11.059   9.935
55928SOL     OW69557   2.893   2.096   1.710
55928SOL    HW169558   2.860   2.012   1.742
55928SOL    HW269559   2.980   2.076   1.674
55929SOL     OW69560   9.357   1.209   7.814
55929SOL    HW169561   9.435   1.245   7.773
55929SOL    HW269562   9.387   1.180   7.900
55930SOL     OW69563   9.069  12.657  14.116
55930SOL    HW169564   9.020  12.739  14.130
55930SOL    HW269565   9.015  12.590  14.158
55931SOL     OW69566   2.985   8.932  10.973
55931SOL    HW169567   3.047   8.992  10.931
55931SOL    HW269568   2.903   8.981  10.977
55932SOL     OW69569   8.189  10.887   5.495
55932SOL    HW169570   8.246  10.858   5.566
55932SOL    HW269571   8.249  10.921   5.429
55933SOL     OW69572   4.516  12.435   0.389
55933SOL    HW169573   4.483  12.490   0.318
55933SOL    HW269574   4.606  12.415   0.365
55934SOL     OW69575   0.548   9.210  13.482
55934SOL    HW169576   0.477   9.153  13.452
55934SOL    HW269577   0.531   9.295  13.441
55935SOL     OW69578  14.642   4.946   9.911
55935SOL    HW169579  14.689   4.928   9.992
55935SOL    HW269580  14.631   4.860   9.870
55936SOL     OW69581   1.247  10.752   7.399
55936SOL    HW169582   1.202  10.836   7.408
55936SOL    HW269583   1.294  10.740   7.481
55937SOL     OW69584   2.281   5.901   3.500
55937SOL    HW169585   2.220   5.838   3.462
55937SOL    HW269586   2.366   5.879   3.463
55938SOL     OW69587   8.806  11.172   7.790
55938SOL    HW169588   8.886  11.120   7.775
55938SOL    HW269589   8.768  11.134   7.870
55939SOL     OW69590   4.470   9.152   8.413
55939SOL    HW169591   4.479   9.248   8.406
55939SOL    HW269592   4.466   9.136   8.507
55940SOL     OW69593   5.061   6.179   8.570
55940SOL    HW169594   4.970   6.174   8.541
55940SOL    HW269595   5.113   6.165   8.490
55941SOL     OW69596   1.059   1.203  10.405
55941SOL    HW169597   0.986   1.171  10.350
55941SOL    HW269598   1.060   1.144  10.480
55942SOL     OW69599   1.145   5.893   5.684
55942SOL    HW169600   1.053   5.915   5.669
55942SOL    HW269601   1.160   5.909   5.777
55943SOL     OW69602  13.581  14.414  10.516
55943SOL    HW169603  13.532  14.371  10.446
55943SOL    HW269604  13.552  14.371  10.596
55944SOL     OW69605   5.854  12.299   6.596
55944SOL    HW169606   5.856  12.295   6.500
55944SOL    HW269607   5.808  12.219   6.623
55945SOL     OW69608   5.980  14.211  13.398
55945SOL    HW169609   6.068  14.246  13.411
55945SOL    HW269610   5.954  14.244  13.312
55946SOL     OW69611   1.326   2.812  12.393
55946SOL    HW169612   1.326   2.905  12.371
55946SOL    HW269613   1.286   2.769  12.317
55947SOL     OW69614  13.413   8.592   1.669
55947SOL    HW169615  13.432   8.666   1.611
55947SOL    HW269616  13.499   8.564   1.701
55948SOL     OW69617  11.198   9.745   8.581
55948SOL    HW169618  11.187   9.656   8.616
55948SOL    HW269619  11.168   9.802   8.651
55949SOL     OW69620   7.803  10.395  10.566
55949SOL    HW169621   7.739  10.429  10.504
55949SOL    HW269622   7.784  10.301  10.571
55950SOL     OW69623   9.145   0.229   4.950
55950SOL    HW169624   9.094   0.157   4.989
55950SOL    HW269625   9.133   0.217   4.856
55951SOL     OW69626  12.419  13.589   7.301
55951SOL    HW169627  12.508  13.623   7.295
55951SOL    HW269628  12.419  13.537   7.381
55952SOL     OW69629   0.577  11.913  12.149
55952SOL    HW169630   0.557  11.921  12.056
55952SOL    HW269631   0.653  11.970  12.162
55953SOL     OW69632  12.862   0.997   3.607
55953SOL    HW169633  12.809   1.001   3.527
55953SOL    HW269634  12.950   1.020   3.578
55954SOL     OW69635   8.398   6.469  12.173
55954SOL    HW169636   8.381   6.478  12.267
55954SOL    HW269637   8.482   6.514  12.160
55955SOL     OW69638  11.536   8.437   2.505
55955SOL    HW169639  11.511   8.500   2.437
55955SOL    HW269640  11.628   8.458   2.524
55956SOL     OW69641   0.668   7.810   6.491
55956SOL    HW169642   0.618   7.891   6.501
55956SOL    HW269643   0.709   7.817   6.405
55957SOL     OW69644   6.475  12.867  13.529
55957SOL    HW169645   6.453  12.958  13.546
55957SOL    HW269646   6.508  12.866  13.440
55958SOL     OW69647  13.811   6.353  14.497
55958SOL    HW169648  13.812   6.442  14.532
55958SOL    HW269649  13.898   6.342  14.457
55959SOL     OW69650   2.110   9.625  10.180
55959SOL    HW169651   2.096   9.534  10.205
55959SOL    HW269652   2.029   9.650  10.133
55960SOL     OW69653   2.548   7.779  10.228
55960SOL    HW169654   2.577   7.838  10.158
55960SOL    HW269655   2.536   7.695  10.184
55961SOL     OW69656   2.824   2.646   9.164
55961SOL    HW169657   2.775   2.568   9.138
55961SOL    HW269658   2.849   2.687   9.081
55962SOL     OW69659   6.112   1.995   7.970
55962SOL    HW169660   6.147   1.907   7.981
55962SOL    HW269661   6.063   2.012   8.051
55963SOL     OW69662   5.291  12.668   8.458
55963SOL    HW169663   5.359  12.687   8.394
55963SOL    HW269664   5.301  12.576   8.479
55964SOL     OW69665  12.164   0.812   2.457
55964SOL    HW169666  12.206   0.789   2.539
55964SOL    HW269667  12.135   0.902   2.470
55965SOL     OW69668  11.511   9.885   8.440
55965SOL    HW169669  11.555   9.969   8.455
55965SOL    HW269670  11.430   9.909   8.396
55966SOL     OW69671   4.862   4.637   1.805
55966SOL    HW169672   4.937   4.587   1.836
55966SOL    HW269673   4.898   4.696   1.738
55967SOL     OW69674  11.124   0.954  11.955
55967SOL    HW169675  11.181   0.881  11.932
55967SOL    HW269676  11.035   0.922  11.939
55968SOL     OW69677  10.198   8.786   0.721
55968SOL    HW169678  10.223   8.723   0.789
55968SOL    HW269679  10.253   8.862   0.738
55969SOL     OW69680   4.327  12.607  13.733
55969SOL    HW169681   4.381  12.611  13.655
55969SOL    HW269682   4.389  12.605  13.806
55970SOL     OW69683   3.847   1.901  13.493
55970SOL    HW169684   3.803   1.980  13.462
55970SOL    HW269685   3.881   1.860  13.414
55971SOL     OW69686   7.238   8.571  14.569
55971SOL    HW169687   7.163   8.555  14.626
55971SOL    HW269688   7.268   8.658  14.592
55972SOL     OW69689   6.195   6.404  10.671
55972SOL    HW169690   6.205   6.492  10.706
55972SOL    HW269691   6.268   6.394  10.610
55973SOL     OW69692   2.210   0.950   8.615
55973SOL    HW169693   2.225   0.936   8.708
55973SOL    HW269694   2.259   0.880   8.572
55974SOL     OW69695  10.151   4.015  11.666
55974SOL    HW169696  10.063   4.030  11.631
55974SOL    HW269697  10.173   3.926  11.640
55975SOL     OW69698   2.995   2.014   2.563
55975SOL    HW169699   2.967   2.104   2.545
55975SOL    HW269700   2.914   1.963   2.562
55976SOL     OW69701   5.471  13.975  12.730
55976SOL    HW169702   5.401  13.976  12.795
55976SOL    HW269703   5.529  13.904  12.758
55977SOL     OW69704  12.174   0.261   9.349
55977SOL    HW169705  12.125   0.329   9.394
55977SOL    HW269706  12.150   0.180   9.394
55978SOL     OW69707   9.986  11.157   6.001
55978SOL    HW169708   9.988  11.217   6.076
55978SOL    HW269709   9.900  11.170   5.962
55979SOL     OW69710   7.640   5.150  10.941
55979SOL    HW169711   7.671   5.189  11.023
55979SOL    HW269712   7.713   5.160  10.880
55980SOL     OW69713  12.464   3.294   4.244
55980SOL    HW169714  12.377   3.278   4.208
55980SOL    HW269715  12.461   3.384   4.275
55981SOL     OW69716   1.420   6.821   3.443
55981SOL    HW169717   1.370   6.891   3.485
55981SOL    HW269718   1.508   6.859   3.431
55982SOL     OW69719  11.797   0.780   3.735
55982SOL    HW169720  11.739   0.727   3.790
55982SOL    HW269721  11.746   0.799   3.657
55983SOL     OW69722   5.563   5.113   0.072
55983SOL    HW169723   5.592   5.059   0.145
55983SOL    HW269724   5.578   5.203   0.101
55984SOL     OW69725   0.072   0.270   9.369
55984SOL    HW169726   0.036   0.358   9.379
55984SOL    HW269727   0.145   0.267   9.432
55985SOL     OW69728  12.949   1.570   5.289
55985SOL    HW169729  12.968   1.609   5.375
55985SOL    HW269730  12.855   1.552   5.291
55986SOL     OW69731  10.145   6.650  12.373
55986SOL    HW169732  10.120   6.688  12.458
55986SOL    HW269733  10.214   6.708  12.341
55987SOL     OW69734   1.657   6.592   6.135
55987SOL    HW169735   1.744   6.632   6.127
55987SOL    HW269736   1.668   6.523   6.200
55988SOL     OW69737   3.014   8.104   3.370
55988SOL    HW169738   2.962   8.028   3.343
55988SOL    HW269739   3.085   8.108   3.307
55989SOL     OW69740   2.897   8.407   5.403
55989SOL    HW169741   2.924   8.325   5.446
55989SOL    HW269742   2.968   8.427   5.342
55990SOL     OW69743   1.157   7.753   3.165
55990SOL    HW169744   1.222   7.684   3.159
55990SOL    HW269745   1.084   7.713   3.213
55991SOL     OW69746   7.462  12.639   5.241
55991SOL    HW169747   7.531  12.699   5.268
55991SOL    HW269748   7.500  12.589   5.169
55992SOL     OW69749  13.013  10.426  11.967
55992SOL    HW169750  13.025  10.453  11.876
55992SOL    HW269751  13.086  10.466  12.014
55993SOL     OW69752   4.251  13.645  13.725
55993SOL    HW169753   4.231  13.732  13.691
55993SOL    HW269754   4.251  13.656  13.820
55994SOL     OW69755   6.209   6.815   0.452
55994SOL    HW169756   6.220   6.856   0.366
55994SOL    HW269757   6.226   6.722   0.437
55995SOL     OW69758  11.138   5.416   4.585
55995SOL    HW169759  11.120   5.352   4.653
55995SOL    HW269760  11.219   5.458   4.612
55996SOL     OW69761  12.606   6.175   8.173
55996SOL    HW169762  12.588   6.162   8.080
55996SOL    HW269763  12.653   6.095   8.199
55997SOL     OW69764   9.753  11.609  10.692
55997SOL    HW169765   9.744  11.602  10.597
55997SOL    HW269766   9.699  11.538  10.727
55998SOL     OW69767  10.841   1.406   8.624
55998SOL    HW169768  10.788   1.482   8.600
55998SOL    HW269769  10.780   1.333   8.626
55999SOL     OW69770   8.704  10.459   0.297
55999SOL    HW169771   8.674  10.546   0.273
55999SOL    HW269772   8.713  10.462   0.392
56000SOL     OW69773   4.819   4.853  11.564
56000SOL    HW169774   4.822   4.919  11.494
56000SOL    HW269775   4.815   4.904  11.645
56001SOL     OW69776  11.580  11.043   9.177
56001SOL    HW169777  11.590  10.972   9.240
56001SOL    HW269778  11.670  11.067   9.153
56002SOL     OW69779  10.069  14.256  14.244
56002SOL    HW169780   9.993  14.313  14.242
56002SOL    HW269781  10.039  14.177  14.288
56003SOL     OW69782   2.878   3.609  10.010
56003SOL    HW169783   2.834   3.537   9.965
56003SOL    HW269784   2.971   3.598   9.988
56004SOL     OW69785   2.166   9.434  12.591
56004SOL    HW169786   2.242   9.467  12.638
56004SOL    HW269787   2.092   9.481  12.629
56005SOL     OW69788   5.682   9.752  10.762
56005SOL    HW169789   5.705   9.729  10.852
56005SOL    HW269790   5.759   9.728  10.710
56006SOL     OW69791  12.245   0.074   0.233
56006SOL    HW169792  12.221   0.166   0.243
56006SOL    HW269793  12.209   0.049   0.148
56007SOL     OW69794   3.334   6.191   3.574
56007SOL    HW169795   3.347   6.143   3.656
56007SOL    HW269796   3.422   6.220   3.550
56008SOL     OW69797  12.614  14.096  10.280
56008SOL    HW169798  12.661  14.023  10.240
56008SOL    HW269799  12.565  14.135  10.208
56009SOL     OW69800  14.269   7.282   3.645
56009SOL    HW169801  14.225   7.293   3.561
56009SOL    HW269802  14.293   7.370   3.672
56010SOL     OW69803  10.104   8.879  11.594
56010SOL    HW169804  10.154   8.933  11.533
56010SOL    HW269805  10.072   8.806  11.541
56011SOL     OW69806  12.757   6.554   2.175
56011SOL    HW169807  12.848   6.559   2.205
56011SOL    HW269808  12.749   6.466   2.136
56012SOL     OW69809   1.453  14.413   0.911
56012SOL    HW169810   1.359  14.397   0.922
56012SOL    HW269811   1.460  14.508   0.900
56013SOL     OW69812   0.967  11.688  14.561
56013SOL    HW169813   1.020  11.622  14.606
56013SOL    HW269814   0.995  11.685  14.470
56014SOL     OW69815   1.230  14.713   2.745
56014SOL    HW169816   1.264  14.623   2.737
56014SOL    HW269817   1.267  14.759   2.670
56015SOL     OW69818  10.968   6.594  11.628
56015SOL    HW169819  11.007   6.586  11.541
56015SOL    HW269820  10.881   6.631  11.612
56016SOL     OW69821  11.755   1.636   6.777
56016SOL    HW169822  11.690   1.671   6.839
56016SOL    HW269823  11.707   1.569   6.728
56017SOL     OW69824   5.659   0.358   4.080
56017SOL    HW169825   5.649   0.423   4.010
56017SOL    HW269826   5.725   0.395   4.138
56018SOL     OW69827  14.615  12.904   3.708
56018SOL    HW169828  14.628  12.832   3.770
56018SOL    HW269829  14.525  12.894   3.677
56019SOL     OW69830  13.305   7.923   3.124
56019SOL    HW169831  13.355   8.001   3.102
56019SOL    HW269832  13.246   7.951   3.194
56020SOL     OW69833   2.012   2.211  14.083
56020SOL    HW169834   1.928   2.197  14.040
56020SOL    HW269835   1.998   2.184  14.173
56021SOL     OW69836   5.708   9.430  11.531
56021SOL    HW169837   5.792   9.385  11.538
56021SOL    HW269838   5.668   9.420  11.618
56022SOL     OW69839   4.918   4.631   3.449
56022SOL    HW169840   4.898   4.724   3.461
56022SOL    HW269841   4.951   4.626   3.359
56023SOL     OW69842  13.420   6.933   8.179
56023SOL    HW169843  13.364   6.960   8.251
56023SOL    HW269844  13.435   6.840   8.194
56024SOL     OW69845   9.529   8.621  14.373
56024SOL    HW169846   9.498   8.591  14.458
56024SOL    HW269847   9.622   8.636  14.384
56025SOL     OW69848  13.564   5.228   1.181
56025SOL    HW169849  13.633   5.216   1.116
56025SOL    HW269850  13.592   5.174   1.255
56026SOL     OW69851  13.821   6.767   8.802
56026SOL    HW169852  13.761   6.737   8.871
56026SOL    HW269853  13.908   6.742   8.834
56027SOL     OW69854   3.203   8.997   5.804
56027SOL    HW169855   3.229   8.977   5.894
56027SOL    HW269856   3.278   9.044   5.767
56028SOL     OW69857   0.429  14.182   4.464
56028SOL    HW169858   0.378  14.260   4.442
56028SOL    HW269859   0.502  14.215   4.517
56029SOL     OW69860   2.557  10.745   2.038
56029SOL    HW169861   2.469  10.711   2.023
56029SOL    HW269862   2.555  10.775   2.129
56030SOL     OW69863  12.955  12.623  12.599
56030SOL    HW169864  13.001  12.706  12.612
56030SOL    HW269865  13.008  12.577  12.534
56031SOL     OW69866   1.513  12.392  14.225
56031SOL    HW169867   1.458  12.468  14.243
56031SOL    HW269868   1.567  12.382  14.304
56032SOL     OW69869   4.021   6.424   4.568
56032SOL    HW169870   4.006   6.392   4.657
56032SOL    HW269871   4.078   6.358   4.528
56033SOL     OW69872   4.126  11.405   7.815
56033SOL    HW169873   4.070  11.456   7.874
56033SOL    HW269874   4.066  11.344   7.772
56034SOL     OW69875   1.960   5.724  13.063
56034SOL    HW169876   1.901   5.799  13.051
56034SOL    HW269877   1.931   5.683  13.144
56035SOL     OW69878   4.770   0.681   5.707
56035SOL    HW169879   4.762   0.592   5.675
56035SOL    HW269880   4.682   0.704   5.737
56036SOL     OW69881   4.803   4.365   1.707
56036SOL    HW169882   4.779   4.429   1.774
56036SOL    HW269883   4.895   4.346   1.724
56037SOL     OW69884   1.868   5.602   5.642
56037SOL    HW169885   1.869   5.692   5.674
56037SOL    HW269886   1.917   5.552   5.707
56038SOL     OW69887   4.915   7.195  14.022
56038SOL    HW169888   4.969   7.225  14.096
56038SOL    HW269889   4.875   7.275  13.988
56039SOL     OW69890   0.335  14.560  12.125
56039SOL    HW169891   0.388  14.579  12.047
56039SOL    HW269892   0.372  14.616  12.193
56040SOL     OW69893  13.891   1.865   6.900
56040SOL    HW169894  13.796   1.861   6.907
56040SOL    HW269895  13.908   1.925   6.828
56041SOL     OW69896   7.673   8.178   9.066
56041SOL    HW169897   7.737   8.152   8.999
56041SOL    HW269898   7.591   8.188   9.018
56042SOL     OW69899  11.987   1.763   6.757
56042SOL    HW169900  11.971   1.856   6.771
56042SOL    HW269901  11.901   1.722   6.766
56043SOL     OW69902   7.722  12.302   3.992
56043SOL    HW169903   7.689  12.261   3.911
56043SOL    HW269904   7.718  12.232   4.057
56044SOL     OW69905   8.346   3.225   8.639
56044SOL    HW169906   8.369   3.213   8.731
56044SOL    HW269907   8.417   3.278   8.603
56045SOL     OW69908   4.086   5.834   0.521
56045SOL    HW169909   3.995   5.852   0.497
56045SOL    HW269910   4.089   5.847   0.615
56046SOL     OW69911  12.740   8.199   6.654
56046SOL    HW169912  12.769   8.256   6.726
56046SOL    HW269913  12.650   8.175   6.678
56047SOL     OW69914  14.436   2.784  11.047
56047SOL    HW169915  14.456   2.708  11.101
56047SOL    HW269916  14.341   2.793  11.053
56048SOL     OW69917   4.044  12.646  10.621
56048SOL    HW169918   4.000  12.656  10.536
56048SOL    HW269919   4.135  12.625  10.599
56049SOL     OW69920   3.656   3.252   2.757
56049SOL    HW169921   3.578   3.199   2.738
56049SOL    HW269922   3.620   3.332   2.797
56050SOL     OW69923   7.401  14.277   3.229
56050SOL    HW169924   7.352  14.337   3.173
56050SOL    HW269925   7.350  14.197   3.230
56051SOL     OW69926   5.291   2.702   8.583
56051SOL    HW169927   5.272   2.666   8.497
56051SOL    HW269928   5.365   2.762   8.568
56052SOL     OW69929   2.510   9.110  11.302
56052SOL    HW169930   2.552   9.030  11.334
56052SOL    HW269931   2.571   9.180  11.323
56053SOL     OW69932  10.445   8.514   2.106
56053SOL    HW169933  10.434   8.552   2.018
56053SOL    HW269934  10.469   8.423   2.090
56054SOL     OW69935   0.375   4.594   4.603
56054SOL    HW169936   0.383   4.528   4.672
56054SOL    HW269937   0.428   4.667   4.634
56055SOL     OW69938  11.893  12.771   3.650
56055SOL    HW169939  11.981  12.735   3.662
56055SOL    HW269940  11.884  12.784   3.556
56056SOL     OW69941   3.379   7.198   4.746
56056SOL    HW169942   3.294   7.165   4.717
56056SOL    HW269943   3.423   7.226   4.666
56057SOL     OW69944   3.319  10.101   8.868
56057SOL    HW169945   3.234  10.115   8.912
56057SOL    HW269946   3.378  10.163   8.911
56058SOL     OW69947   8.978   3.620   3.771
56058SOL    HW169948   8.904   3.668   3.735
56058SOL    HW269949   9.053   3.651   3.720
56059SOL     OW69950   2.978  12.734  12.987
56059SOL    HW169951   2.978  12.811  12.931
56059SOL    HW269952   2.887  12.706  12.989
56060SOL     OW69953   1.107   9.865   2.739
56060SOL    HW169954   1.084   9.786   2.691
56060SOL    HW269955   1.142   9.924   2.672
56061SOL     OW69956   9.354   3.979   8.955
56061SOL    HW169957   9.371   4.011   8.866
56061SOL    HW269958   9.263   4.005   8.972
56062SOL     OW69959  12.368   7.354   7.198
56062SOL    HW169960  12.303   7.417   7.168
56062SOL    HW269961  12.388   7.301   7.121
56063SOL     OW69962   6.588   5.770   8.303
56063SOL    HW169963   6.575   5.684   8.342
56063SOL    HW269964   6.499   5.803   8.289
56064SOL     OW69965  11.589   6.168   9.894
56064SOL    HW169966  11.619   6.109   9.963
56064SOL    HW269967  11.554   6.244   9.941
56065SOL     OW69968   7.356  14.452   1.106
56065SOL    HW169969   7.299  14.520   1.142
56065SOL    HW269970   7.296  14.392   1.062
56066SOL     OW69971   3.351  11.416  10.463
56066SOL    HW169972   3.259  11.396  10.479
56066SOL    HW269973   3.350  11.494  10.408
56067SOL     OW69974   4.873   8.107  11.562
56067SOL    HW169975   4.789   8.087  11.604
56067SOL    HW269976   4.883   8.038  11.496
56068SOL     OW69977   8.320  10.164  14.098
56068SOL    HW169978   8.390  10.110  14.134
56068SOL    HW269979   8.267  10.190  14.173
56069SOL     OW69980  13.648   3.310  10.661
56069SOL    HW169981  13.642   3.330  10.755
56069SOL    HW269982  13.592   3.376  10.620
56070SOL     OW69983   3.620   2.466   5.077
56070SOL    HW169984   3.664   2.511   5.149
56070SOL    HW269985   3.691   2.424   5.028
56071SOL     OW69986   6.741   4.930   4.679
56071SOL    HW169987   6.776   4.864   4.739
56071SOL    HW269988   6.674   4.975   4.729
56072SOL     OW69989  10.385   5.780  14.099
56072SOL    HW169990  10.446   5.709  14.080
56072SOL    HW269991  10.311   5.738  14.141
56073SOL     OW69992   3.195  14.736  13.694
56073SOL    HW169993   3.175  14.664  13.635
56073SOL    HW269994   3.203  14.695  13.780
56074SOL     OW69995   6.338   4.179   0.239
56074SOL    HW169996   6.427   4.191   0.206
56074SOL    HW269997   6.285   4.243   0.192
56075SOL     OW69998   4.779   0.542   2.281
56075SOL    HW169999   4.688   0.521   2.300
56075SOL    HW270000   4.828   0.467   2.316
56076SOL     OW70001  12.590   5.272  11.551
56076SOL    HW170002  12.557   5.339  11.611
56076SOL    HW270003  12.515   5.251  11.494
56077SOL     OW70004   5.010   3.630  14.768
56077SOL    HW170005   4.923   3.613  14.804
56077SOL    HW270006   5.070   3.600  14.835
56078SOL     OW70007   0.788   7.169   7.038
56078SOL    HW170008   0.811   7.258   7.015
56078SOL    HW270009   0.856   7.140   7.098
56079SOL     OW70010  11.356   9.086  12.454
56079SOL    HW170011  11.449   9.083  12.475
56079SOL    HW270012  11.352   9.102  12.360
56080SOL     OW70013   1.877   2.509   4.968
56080SOL    HW170014   1.842   2.478   4.885
56080SOL    HW270015   1.942   2.442   4.993
56081SOL     OW70016  11.333  10.238  12.007
56081SOL    HW170017  11.365  10.148  12.005
56081SOL    HW270018  11.308  10.253  12.098
56082SOL     OW70019   9.874  11.940   5.344
56082SOL    HW170020   9.923  11.869   5.385
56082SOL    HW270021   9.783  11.921   5.363
56083SOL     OW70022  13.726   7.730  10.525
56083SOL    HW170023  13.782   7.796  10.485
56083SOL    HW270024  13.637   7.759  10.507
56084SOL     OW70025   4.586   9.330   6.431
56084SOL    HW170026   4.544   9.271   6.368
56084SOL    HW270027   4.521   9.399   6.446
56085SOL     OW70028   9.757   0.328   6.420
56085SOL    HW170029   9.686   0.272   6.389
56085SOL    HW270030   9.825   0.321   6.353
56086SOL     OW70031  11.807   7.816   0.718
56086SOL    HW170032  11.780   7.859   0.636
56086SOL    HW270033  11.833   7.728   0.691
56087SOL     OW70034  11.825   5.694   7.057
56087SOL    HW170035  11.805   5.783   7.087
56087SOL    HW270036  11.917   5.698   7.031
56088SOL     OW70037   8.959   3.882   8.904
56088SOL    HW170038   8.902   3.855   8.976
56088SOL    HW270039   8.995   3.800   8.869
56089SOL     OW70040   5.750  12.330  14.315
56089SOL    HW170041   5.817  12.394  14.340
56089SOL    HW270042   5.668  12.369  14.345
56090SOL     OW70043   9.213   2.090  13.170
56090SOL    HW170044   9.121   2.116  13.177
56090SOL    HW270045   9.254   2.163  13.123
56091SOL     OW70046   3.042   9.904  12.444
56091SOL    HW170047   3.016   9.995  12.451
56091SOL    HW270048   2.993   9.870  12.370
56092SOL     OW70049  11.608  10.066   9.232
56092SOL    HW170050  11.674  10.085   9.298
56092SOL    HW270051  11.542  10.135   9.243
56093SOL     OW70052   5.580   8.955   9.530
56093SOL    HW170053   5.641   8.964   9.457
56093SOL    HW270054   5.504   8.911   9.492
56094SOL     OW70055   3.825   0.377   0.859
56094SOL    HW170056   3.804   0.445   0.922
56094SOL    HW270057   3.858   0.425   0.782
56095SOL     OW70058  11.046   5.982   7.637
56095SOL    HW170059  11.064   5.935   7.555
56095SOL    HW270060  11.097   5.935   7.703
56096SOL     OW70061   1.923   5.606   1.016
56096SOL    HW170062   1.876   5.528   1.043
56096SOL    HW270063   2.013   5.591   1.044
56097SOL     OW70064   3.417   7.111  11.333
56097SOL    HW170065   3.431   7.194  11.287
56097SOL    HW270066   3.398   7.048  11.264
56098SOL     OW70067   5.690   5.755  12.340
56098SOL    HW170068   5.705   5.786  12.251
56098SOL    HW270069   5.754   5.802  12.393
56099SOL     OW70070   3.547   8.039  10.090
56099SOL    HW170071   3.496   7.958  10.079
56099SOL    HW270072   3.499   8.104  10.039
56100SOL     OW70073  10.772   0.107   5.923
56100SOL    HW170074  10.776   0.183   5.980
56100SOL    HW270075  10.689   0.064   5.946
56101SOL     OW70076   4.376   9.314   8.002
56101SOL    HW170077   4.424   9.293   7.922
56101SOL    HW270078   4.415   9.395   8.033
56102SOL     OW70079  10.093  10.035   1.433
56102SOL    HW170080  10.031  10.085   1.380
56102SOL    HW270081  10.177  10.048   1.390
56103SOL     OW70082   0.228  13.975  12.763
56103SOL    HW170083   0.157  13.958  12.701
56103SOL    HW270084   0.306  13.984  12.709
56104SOL     OW70085  10.573   2.807   2.243
56104SOL    HW170086  10.642   2.758   2.200
56104SOL    HW270087  10.499   2.802   2.183
56105SOL     OW70088  10.346  12.531   3.269
56105SOL    HW170089  10.373  12.447   3.231
56105SOL    HW270090  10.340  12.514   3.363
56106SOL     OW70091   8.683  13.681   9.165
56106SOL    HW170092   8.748  13.708   9.230
56106SOL    HW270093   8.653  13.596   9.194
56107SOL     OW70094   3.305  13.390  14.459
56107SOL    HW170095   3.242  13.329  14.497
56107SOL    HW270096   3.379  13.335  14.435
56108SOL     OW70097  13.706   5.299   0.732
56108SOL    HW170098  13.711   5.361   0.659
56108SOL    HW270099  13.709   5.213   0.691
56109SOL     OW70100   9.945  10.977   3.478
56109SOL    HW170101   9.922  11.032   3.553
56109SOL    HW270102   9.878  10.998   3.412
56110SOL     OW70103   4.043   1.265   0.611
56110SOL    HW170104   4.117   1.243   0.555
56110SOL    HW270105   3.967   1.226   0.569
56111SOL     OW70106   2.563   2.190  11.620
56111SOL    HW170107   2.647   2.145  11.630
56111SOL    HW270108   2.519   2.178  11.704
56112SOL     OW70109   1.184   5.388   6.230
56112SOL    HW170110   1.170   5.406   6.323
56112SOL    HW270111   1.214   5.471   6.193
56113SOL     OW70112  13.932  13.335   8.063
56113SOL    HW170113  13.993  13.291   8.122
56113SOL    HW270114  13.948  13.428   8.076
56114SOL     OW70115   6.973  12.988  13.024
56114SOL    HW170116   6.992  13.007  13.116
56114SOL    HW270117   7.059  12.971  12.985
56115SOL     OW70118  10.196  10.259   9.831
56115SOL    HW170119  10.287  10.230   9.821
56115SOL    HW270120  10.166  10.276   9.741
56116SOL     OW70121   2.179  13.890  12.311
56116SOL    HW170122   2.221  13.922  12.391
56116SOL    HW270123   2.128  13.814  12.340
56117SOL     OW70124  14.812  10.349   1.612
56117SOL    HW170125  14.787  10.287   1.543
56117SOL    HW270126  14.730  10.373   1.655
56118SOL     OW70127  12.083  10.750   8.589
56118SOL    HW170128  12.044  10.796   8.664
56118SOL    HW270129  12.100  10.819   8.525
56119SOL     OW70130   0.842   9.989  12.974
56119SOL    HW170131   0.857   9.896  12.961
56119SOL    HW270132   0.753  10.004  12.943
56120SOL     OW70133   9.093   6.914   9.828
56120SOL    HW170134   9.070   6.961   9.908
56120SOL    HW270135   9.054   6.827   9.840
56121SOL     OW70136   7.557  10.341  11.341
56121SOL    HW170137   7.643  10.308  11.312
56121SOL    HW270138   7.494  10.299  11.282
56122SOL     OW70139  10.243   4.359  11.301
56122SOL    HW170140  10.159   4.369  11.257
56122SOL    HW270141  10.261   4.265  11.299
56123SOL     OW70142   8.590   1.009   1.590
56123SOL    HW170143   8.495   1.011   1.603
56123SOL    HW270144   8.626   1.054   1.666
56124SOL     OW70145   7.800  12.115  13.603
56124SOL    HW170146   7.800  12.119  13.699
56124SOL    HW270147   7.730  12.175  13.577
56125SOL     OW70148   4.960   0.734   0.971
56125SOL    HW170149   5.046   0.742   0.929
56125SOL    HW270150   4.946   0.818   1.014
56126SOL     OW70151   2.652   7.305   4.366
56126SOL    HW170152   2.723   7.354   4.407
56126SOL    HW270153   2.573   7.355   4.387
56127SOL     OW70154  10.455   3.196   6.790
56127SOL    HW170155  10.453   3.253   6.867
56127SOL    HW270156  10.499   3.247   6.723
56128SOL     OW70157  14.522   9.881   3.460
56128SOL    HW170158  14.571   9.941   3.516
56128SOL    HW270159  14.573   9.800   3.460
56129SOL     OW70160   2.768  13.678   7.678
56129SOL    HW170161   2.739  13.608   7.736
56129SOL    HW270162   2.857  13.653   7.652
56130SOL     OW70163  12.909   8.190   0.828
56130SOL    HW170164  12.830   8.140   0.849
56130SOL    HW270165  12.974   8.125   0.804
56131SOL     OW70166  14.507   1.849  10.316
56131SOL    HW170167  14.454   1.810  10.385
56131SOL    HW270168  14.592   1.805  10.324
56132SOL     OW70169  10.203   9.909  10.429
56132SOL    HW170170  10.252   9.828  10.443
56132SOL    HW270171  10.247   9.951  10.355
56133SOL     OW70172  13.454   8.036   3.425
56133SOL    HW170173  13.371   8.027   3.379
56133SOL    HW270174  13.518   8.052   3.356
56134SOL     OW70175  13.655   0.476   9.081
56134SOL    HW170176  13.672   0.402   9.138
56134SOL    HW270177  13.601   0.536   9.133
56135SOL     OW70178   6.240  10.740   7.582
56135SOL    HW170179   6.251  10.822   7.534
56135SOL    HW270180   6.147  10.738   7.605
56136SOL     OW70181   1.182   4.214  13.579
56136SOL    HW170182   1.255   4.273  13.597
56136SOL    HW270183   1.217   4.126  13.597
56137SOL     OW70184  12.753   4.265   6.888
56137SOL    HW170185  12.776   4.198   6.952
56137SOL    HW270186  12.694   4.324   6.934
56138SOL     OW70187   4.997   0.151   7.894
56138SOL    HW170188   5.083   0.167   7.933
56138SOL    HW270189   4.951   0.098   7.960
56139SOL     OW70190   8.979  14.080   3.317
56139SOL    HW170191   8.905  14.128   3.353
56139SOL    HW270192   9.004  14.019   3.387
56140SOL     OW70193   4.732  11.203   1.758
56140SOL    HW170194   4.720  11.215   1.852
56140SOL    HW270195   4.803  11.140   1.751
56141SOL     OW70196   5.283   9.951   2.580
56141SOL    HW170197   5.300   9.915   2.667
56141SOL    HW270198   5.203  10.001   2.590
56142SOL     OW70199   6.958  10.604  11.078
56142SOL    HW170200   6.956  10.573  10.988
56142SOL    HW270201   7.051  10.609  11.100
56143SOL     OW70202   3.786   4.095   8.262
56143SOL    HW170203   3.745   4.166   8.310
56143SOL    HW270204   3.797   4.025   8.327
56144SOL     OW70205   7.448   8.034   0.274
56144SOL    HW170206   7.387   7.980   0.224
56144SOL    HW270207   7.453   8.116   0.225
56145SOL     OW70208  13.692   4.511   0.442
56145SOL    HW170209  13.715   4.555   0.360
56145SOL    HW270210  13.619   4.454   0.420
56146SOL     OW70211   7.607   2.598   0.781
56146SOL    HW170212   7.634   2.517   0.823
56146SOL    HW270213   7.657   2.666   0.826
56147SOL     OW70214  11.599   6.710   6.018
56147SOL    HW170215  11.511   6.681   5.991
56147SOL    HW270216  11.647   6.628   6.032
56148SOL     OW70217   4.493   9.428   0.178
56148SOL    HW170218   4.473   9.415   0.085
56148SOL    HW270219   4.426   9.490   0.208
56149SOL     OW70220   8.122  14.868   5.834
56149SOL    HW170221   8.111   0.056   5.902
56149SOL    HW270222   8.110  14.785   5.879
56150SOL     OW70223  12.365   9.123  13.517
56150SOL    HW170224  12.318   9.054  13.471
56150SOL    HW270225  12.431   9.078  13.570
56151SOL     OW70226   3.433   6.346   0.784
56151SOL    HW170227   3.505   6.380   0.837
56151SOL    HW270228   3.402   6.270   0.832
56152SOL     OW70229  13.475   7.795  12.855
56152SOL    HW170230  13.398   7.850  12.842
56152SOL    HW270231  13.528   7.810  12.777
56153SOL     OW70232   6.196   8.265  12.205
56153SOL    HW170233   6.189   8.191  12.145
56153SOL    HW270234   6.281   8.253  12.249
56154SOL     OW70235  13.995   9.516  11.453
56154SOL    HW170236  13.983   9.500  11.546
56154SOL    HW270237  13.970   9.434  11.411
56155SOL     OW70238   0.564  10.373   2.855
56155SOL    HW170239   0.485  10.321   2.836
56155SOL    HW270240   0.557  10.393   2.948
56156SOL     OW70241   5.290   8.403  14.697
56156SOL    HW170242   5.208   8.404  14.746
56156SOL    HW270243   5.319   8.495  14.698
56157SOL     OW70244  12.390   6.060  12.779
56157SOL    HW170245  12.458   5.998  12.754
56157SOL    HW270246  12.316   6.005  12.805
56158SOL     OW70247   7.787   6.777   8.334
56158SOL    HW170248   7.746   6.850   8.380
56158SOL    HW270249   7.735   6.700   8.358
56159SOL     OW70250   2.601   4.775   5.199
56159SOL    HW170251   2.687   4.758   5.240
56159SOL    HW270252   2.559   4.689   5.197
56160SOL     OW70253   2.834   1.893  13.709
56160SOL    HW170254   2.751   1.935  13.690
56160SOL    HW270255   2.859   1.849  13.627
56161SOL     OW70256   5.096  11.579   7.803
56161SOL    HW170257   5.117  11.667   7.773
56161SOL    HW270258   5.004  11.584   7.829
56162SOL     OW70259  13.503  10.448   2.469
56162SOL    HW170260  13.485  10.446   2.563
56162SOL    HW270261  13.577  10.389   2.457
56163SOL     OW70262   6.953   4.003   0.478
56163SOL    HW170263   7.022   3.965   0.425
56163SOL    HW270264   6.939   3.941   0.549
56164SOL     OW70265   3.463   1.522   1.136
56164SOL    HW170266   3.554   1.496   1.117
56164SOL    HW270267   3.416   1.503   1.055
56165SOL     OW70268  12.975   5.502   3.624
56165SOL    HW170269  12.912   5.445   3.668
56165SOL    HW270270  13.060   5.477   3.660
56166SOL     OW70271   9.797   4.056   0.868
56166SOL    HW170272   9.885   4.091   0.878
56166SOL    HW270273   9.775   4.019   0.953
56167SOL     OW70274   6.933   0.279   8.925
56167SOL    HW170275   6.888   0.240   8.850
56167SOL    HW270276   6.864   0.292   8.990
56168SOL     OW70277   2.124  12.383  14.462
56168SOL    HW170278   2.072  12.459  14.437
56168SOL    HW270279   2.115  12.378  14.558
56169SOL     OW70280   5.562   1.579   1.715
56169SOL    HW170281   5.580   1.610   1.803
56169SOL    HW270282   5.565   1.484   1.722
56170SOL     OW70283   8.680   4.993   9.839
56170SOL    HW170284   8.741   5.003   9.912
56170SOL    HW270285   8.594   4.981   9.881
56171SOL     OW70286   1.419   5.931   4.993
56171SOL    HW170287   1.473   5.893   5.062
56171SOL    HW270288   1.440   5.881   4.915
56172SOL     OW70289  11.397  11.668   0.102
56172SOL    HW170290  11.399  11.602   0.172
56172SOL    HW270291  11.308  11.662   0.067
56173SOL     OW70292  10.109  12.930   4.123
56173SOL    HW170293  10.056  12.878   4.183
56173SOL    HW270294  10.129  13.010   4.171
56174SOL     OW70295   8.427   5.982   3.384
56174SOL    HW170296   8.406   6.026   3.466
56174SOL    HW270297   8.354   6.004   3.326
56175SOL     OW70298   7.613   6.090  13.406
56175SOL    HW170299   7.570   6.159  13.457
56175SOL    HW270300   7.695   6.129  13.377
56176SOL     OW70301  13.224   8.549  11.475
56176SOL    HW170302  13.242   8.642  11.488
56176SOL    HW270303  13.219   8.513  11.563
56177SOL     OW70304   9.678  13.334  10.060
56177SOL    HW170305   9.585  13.318  10.050
56177SOL    HW270306   9.716  13.246  10.073
56178SOL     OW70307  10.191   5.595   6.682
56178SOL    HW170308  10.155   5.683   6.693
56178SOL    HW270309  10.284   5.609   6.669
56179SOL     OW70310  14.165   4.608   5.548
56179SOL    HW170311  14.157   4.626   5.455
56179SOL    HW270312  14.074   4.600   5.579
56180SOL     OW70313   6.929   8.687  13.599
56180SOL    HW170314   6.870   8.619  13.568
56180SOL    HW270315   7.008   8.677  13.547
56181SOL     OW70316   2.909   3.265  11.901
56181SOL    HW170317   2.985   3.289  11.848
56181SOL    HW270318   2.884   3.346  11.945
56182SOL     OW70319   7.616   7.660  12.257
56182SOL    HW170320   7.605   7.660  12.162
56182SOL    HW270321   7.531   7.686  12.292
56183SOL     OW70322   6.725  14.459  11.464
56183SOL    HW170323   6.640  14.468  11.423
56183SOL    HW270324   6.783  14.428  11.394
56184SOL     OW70325   2.565   6.727  12.492
56184SOL    HW170326   2.562   6.655  12.555
56184SOL    HW270327   2.498   6.704  12.427
56185SOL     OW70328  10.006   9.753   6.692
56185SOL    HW170329  10.008   9.658   6.686
56185SOL    HW270330   9.947   9.780   6.621
56186SOL     OW70331   8.055   6.047  12.251
56186SOL    HW170332   7.972   6.038  12.297
56186SOL    HW270333   8.122   6.034  12.319
56187SOL     OW70334  11.216   7.348   6.500
56187SOL    HW170335  11.229   7.393   6.416
56187SOL    HW270336  11.122   7.354   6.516
56188SOL     OW70337  12.279   8.250   3.943
56188SOL    HW170338  12.362   8.224   3.983
56188SOL    HW270339  12.234   8.167   3.924
56189SOL     OW70340   6.730   4.705   6.159
56189SOL    HW170341   6.764   4.740   6.077
56189SOL    HW270342   6.805   4.660   6.199
56190SOL     OW70343   5.489  12.475   6.665
56190SOL    HW170344   5.406  12.506   6.702
56190SOL    HW270345   5.474  12.475   6.570
56191SOL     OW70346   9.007  12.978   4.196
56191SOL    HW170347   8.980  13.031   4.270
56191SOL    HW270348   8.948  13.004   4.125
56192SOL     OW70349  14.744   3.484   3.335
56192SOL    HW170350  14.699   3.437   3.405
56192SOL    HW270351  14.757   3.419   3.266
56193SOL     OW70352   1.020  10.773   3.081
56193SOL    HW170353   1.040  10.863   3.106
56193SOL    HW270354   1.105  10.731   3.074
56194SOL     OW70355  13.753   3.917   6.552
56194SOL    HW170356  13.684   3.947   6.492
56194SOL    HW270357  13.833   3.956   6.517
56195SOL     OW70358  12.149   0.050   8.418
56195SOL    HW170359  12.225   0.013   8.373
56195SOL    HW270360  12.161   0.024   8.509
56196SOL     OW70361   4.250  11.332   2.384
56196SOL    HW170362   4.212  11.275   2.451
56196SOL    HW270363   4.203  11.310   2.303
56197SOL     OW70364   7.860   8.639   9.965
56197SOL    HW170365   7.911   8.681  10.034
56197SOL    HW270366   7.770   8.641   9.998
56198SOL     OW70367  10.292   6.221   5.577
56198SOL    HW170368  10.296   6.308   5.617
56198SOL    HW270369  10.381   6.188   5.582
56199SOL     OW70370   4.044   3.176  12.436
56199SOL    HW170371   4.029   3.129  12.354
56199SOL    HW270372   4.055   3.108  12.501
56200SOL     OW70373  11.468  12.602  12.005
56200SOL    HW170374  11.479  12.668  12.074
56200SOL    HW270375  11.397  12.636  11.951
56201SOL     OW70376   4.405  10.844  11.261
56201SOL    HW170377   4.328  10.900  11.274
56201SOL    HW270378   4.479  10.905  11.263
56202SOL     OW70379   4.964   2.220  14.675
56202SOL    HW170380   4.972   2.132  14.711
56202SOL    HW270381   5.047   2.263  14.696
56203SOL     OW70382   2.689  12.340   8.781
56203SOL    HW170383   2.673  12.364   8.690
56203SOL    HW270384   2.615  12.284   8.805
56204SOL     OW70385   1.503   7.045  12.983
56204SOL    HW170386   1.522   6.971  13.040
56204SOL    HW270387   1.553   7.028  12.903
56205SOL     OW70388   7.487   6.787   8.083
56205SOL    HW170389   7.393   6.772   8.072
56205SOL    HW270390   7.492   6.851   8.154
56206SOL     OW70391   2.161  12.526  12.502
56206SOL    HW170392   2.204  12.608  12.478
56206SOL    HW270393   2.076  12.529  12.457
56207SOL     OW70394   2.290   6.723   7.157
56207SOL    HW170395   2.329   6.738   7.071
56207SOL    HW270396   2.358   6.749   7.219
56208SOL     OW70397   6.619   3.308   0.541
56208SOL    HW170398   6.666   3.255   0.476
56208SOL    HW270399   6.650   3.397   0.526
56209SOL     OW70400   4.525   2.252   2.774
56209SOL    HW170401   4.442   2.218   2.809
56209SOL    HW270402   4.499   2.303   2.697
56210SOL     OW70403   0.132   1.373   7.649
56210SOL    HW170404   0.156   1.306   7.585
56210SOL    HW270405   0.147   1.331   7.734
56211SOL     OW70406   7.323   5.816  12.923
56211SOL    HW170407   7.278   5.766  12.991
56211SOL    HW270408   7.257   5.878  12.892
56212SOL     OW70409  13.674  10.208   3.561
56212SOL    HW170410  13.711  10.143   3.501
56212SOL    HW270411  13.688  10.171   3.648
56213SOL     OW70412  11.838   1.748   8.965
56213SOL    HW170413  11.747   1.776   8.955
56213SOL    HW270414  11.834   1.674   9.026
56214SOL     OW70415   9.458  10.227   3.394
56214SOL    HW170416   9.426  10.150   3.348
56214SOL    HW270417   9.413  10.227   3.478
56215SOL     OW70418   4.341  11.515   5.547
56215SOL    HW170419   4.342  11.512   5.643
56215SOL    HW270420   4.255  11.480   5.523
56216SOL     OW70421   4.808  14.067   7.251
56216SOL    HW170422   4.721  14.102   7.237
56216SOL    HW270423   4.812  13.989   7.195
56217SOL     OW70424   4.378   3.890   3.576
56217SOL    HW170425   4.464   3.884   3.618
56217SOL    HW270426   4.369   3.982   3.553
56218SOL     OW70427  12.306   7.553  10.455
56218SOL    HW170428  12.318   7.486  10.522
56218SOL    HW270429  12.232   7.606  10.487
56219SOL     OW70430  13.812   1.756  14.027
56219SOL    HW170431  13.875   1.718  14.088
56219SOL    HW270432  13.743   1.792  14.083
56220SOL     OW70433   7.716   0.846   8.891
56220SOL    HW170434   7.657   0.897   8.835
56220SOL    HW270435   7.776   0.803   8.831
56221SOL     OW70436  11.767  10.535   3.278
56221SOL    HW170437  11.749  10.607   3.339
56221SOL    HW270438  11.685  10.525   3.228
56222SOL     OW70439   5.651   1.801   4.182
56222SOL    HW170440   5.613   1.731   4.128
56222SOL    HW270441   5.744   1.779   4.189
56223SOL     OW70442   2.535   8.135  14.655
56223SOL    HW170443   2.617   8.087  14.665
56223SOL    HW270444   2.473   8.088  14.710
56224SOL     OW70445  12.141   0.840   7.937
56224SOL    HW170446  12.228   0.806   7.957
56224SOL    HW270447  12.099   0.852   8.022
56225SOL     OW70448  11.871   8.085  11.645
56225SOL    HW170449  11.821   8.125  11.716
56225SOL    HW270450  11.845   7.993  11.646
56226SOL     OW70451   2.082   6.017   4.612
56226SOL    HW170452   2.018   5.957   4.573
56226SOL    HW270453   2.104   5.975   4.695
56227SOL     OW70454   3.743  14.638   9.272
56227SOL    HW170455   3.661  14.653   9.225
56227SOL    HW270456   3.777  14.556   9.236
56228SOL     OW70457  12.813  10.000  12.179
56228SOL    HW170458  12.906   9.982  12.197
56228SOL    HW270459  12.793  10.076  12.234
56229SOL     OW70460   2.717  12.630  10.537
56229SOL    HW170461   2.724  12.572  10.461
56229SOL    HW270462   2.788  12.693  10.525
56230SOL     OW70463   3.230  10.773  10.698
56230SOL    HW170464   3.276  10.739  10.621
56230SOL    HW270465   3.266  10.861  10.711
56231SOL     OW70466   8.773   1.413  12.574
56231SOL    HW170467   8.829   1.415  12.496
56231SOL    HW270468   8.821   1.465  12.638
56232SOL     OW70469   1.919   2.326   6.423
56232SOL    HW170470   1.987   2.373   6.374
56232SOL    HW270471   1.846   2.388   6.428
56233SOL     OW70472   4.125  10.773   4.203
56233SOL    HW170473   4.144  10.754   4.295
56233SOL    HW270474   4.201  10.822   4.172
56234SOL     OW70475   6.191  14.778   7.023
56234SOL    HW170476   6.256  14.806   7.086
56234SOL    HW270477   6.227  14.804   6.938
56235SOL     OW70478   0.041  14.840  11.298
56235SOL    HW170479   0.044   0.008  11.214
56235SOL    HW270480  14.840  14.874  11.340
56236SOL     OW70481   2.968   8.757  10.756
56236SOL    HW170482   2.966   8.804  10.672
56236SOL    HW270483   2.906   8.804  10.811
56237SOL     OW70484   7.352  12.730   3.859
56237SOL    HW170485   7.309  12.645   3.874
56237SOL    HW270486   7.320  12.785   3.931
56238SOL     OW70487  14.469   3.832   0.457
56238SOL    HW170488  14.501   3.877   0.379
56238SOL    HW270489  14.392   3.882   0.484
56239SOL     OW70490  13.598   5.420  14.076
56239SOL    HW170491  13.545   5.341  14.090
56239SOL    HW270492  13.668   5.391  14.017
56240SOL     OW70493   7.595  14.628   8.736
56240SOL    HW170494   7.580  14.564   8.805
56240SOL    HW270495   7.642  14.579   8.668
56241SOL     OW70496  12.106  13.320  12.671
56241SOL    HW170497  12.196  13.343  12.691
56241SOL    HW270498  12.054  13.392  12.708
56242SOL     OW70499  13.652   3.371   1.206
56242SOL    HW170500  13.731   3.316   1.206
56242SOL    HW270501  13.595   3.330   1.141
56243SOL     OW70502  11.083   4.985   4.374
56243SOL    HW170503  11.093   5.074   4.341
56243SOL    HW270504  10.998   4.986   4.419
56244SOL     OW70505   8.779   9.646   9.221
56244SOL    HW170506   8.712   9.696   9.175
56244SOL    HW270507   8.821   9.593   9.153
56245SOL     OW70508  11.669   3.161   3.013
56245SOL    HW170509  11.611   3.089   2.986
56245SOL    HW270510  11.617   3.212   3.075
56246SOL     OW70511   9.428   5.895   8.348
56246SOL    HW170512   9.450   5.812   8.307
56246SOL    HW270513   9.334   5.906   8.333
56247SOL     OW70514  11.054  13.406   0.397
56247SOL    HW170515  11.069  13.323   0.352
56247SOL    HW270516  11.071  13.473   0.330
56248SOL     OW70517   8.608  13.094   7.816
56248SOL    HW170518   8.576  13.009   7.787
56248SOL    HW270519   8.702  13.081   7.831
56249SOL     OW70520   4.430  11.737   0.709
56249SOL    HW170521   4.475  11.713   0.628
56249SOL    HW270522   4.398  11.825   0.694
56250SOL     OW70523   2.483   4.667   4.819
56250SOL    HW170524   2.431   4.586   4.818
56250SOL    HW270525   2.495   4.687   4.912
56251SOL     OW70526   6.152   8.667  10.034
56251SOL    HW170527   6.220   8.635   9.974
56251SOL    HW270528   6.158   8.610  10.110
56252SOL     OW70529  12.426   3.707  10.623
56252SOL    HW170530  12.358   3.766  10.589
56252SOL    HW270531  12.393   3.680  10.709
56253SOL     OW70532   0.861   3.855  14.210
56253SOL    HW170533   0.843   3.776  14.160
56253SOL    HW270534   0.792   3.857  14.277
56254SOL     OW70535   4.750   1.431   1.694
56254SOL    HW170536   4.769   1.391   1.779
56254SOL    HW270537   4.719   1.519   1.715
56255SOL     OW70538  11.234  10.784   5.818
56255SOL    HW170539  11.144  10.754   5.826
56255SOL    HW270540  11.228  10.878   5.804
56256SOL     OW70541   9.935  10.739   1.965
56256SOL    HW170542   9.948  10.644   1.965
56256SOL    HW270543   9.848  10.751   1.929
56257SOL     OW70544  10.506   5.124   5.967
56257SOL    HW170545  10.577   5.187   5.957
56257SOL    HW270546  10.455   5.132   5.887
56258SOL     OW70547  12.901   2.189  12.244
56258SOL    HW170548  12.829   2.239  12.205
56258SOL    HW270549  12.963   2.177  12.172
56259SOL     OW70550   9.240  14.192  10.837
56259SOL    HW170551   9.286  14.109  10.853
56259SOL    HW270552   9.308  14.250  10.802
56260SOL     OW70553   2.181   7.953  12.838
56260SOL    HW170554   2.098   7.915  12.867
56260SOL    HW270555   2.190   7.923  12.747
56261SOL     OW70556   9.633  13.721   6.499
56261SOL    HW170557   9.586  13.791   6.544
56261SOL    HW270558   9.725  13.737   6.520
56262SOL     OW70559   5.254   7.992   2.391
56262SOL    HW170560   5.281   8.080   2.365
56262SOL    HW270561   5.262   7.940   2.311
56263SOL     OW70562  11.931   8.925   3.031
56263SOL    HW170563  11.999   8.934   3.097
56263SOL    HW270564  11.869   8.861   3.068
56264SOL     OW70565  13.591   4.713   2.129
56264SOL    HW170566  13.566   4.660   2.054
56264SOL    HW270567  13.520   4.700   2.192
56265SOL     OW70568  10.719   4.294  10.807
56265SOL    HW170569  10.793   4.347  10.837
56265SOL    HW270570  10.752   4.251  10.727
56266SOL     OW70571  14.695   3.755  12.574
56266SOL    HW170572  14.784   3.738  12.543
56266SOL    HW270573  14.640   3.744  12.496
56267SOL     OW70574   5.923  11.001  12.428
56267SOL    HW170575   5.998  10.947  12.453
56267SOL    HW270576   5.865  10.998  12.505
56268SOL     OW70577   7.223   3.162   7.317
56268SOL    HW170578   7.271   3.179   7.236
56268SOL    HW270579   7.187   3.074   7.306
56269SOL     OW70580   5.487  12.375  12.550
56269SOL    HW170581   5.495  12.364  12.645
56269SOL    HW270582   5.575  12.401  12.521
56270SOL     OW70583   6.793   1.225   2.428
56270SOL    HW170584   6.734   1.288   2.469
56270SOL    HW270585   6.870   1.277   2.404
56271SOL     OW70586  10.465   9.250   2.280
56271SOL    HW170587  10.521   9.302   2.337
56271SOL    HW270588  10.411   9.199   2.340
56272SOL     OW70589  13.616  10.808  10.292
56272SOL    HW170590  13.659  10.730  10.258
56272SOL    HW270591  13.628  10.874  10.223
56273SOL     OW70592   6.842  14.817  11.130
56273SOL    HW170593   6.925  14.863  11.121
56273SOL    HW270594   6.845  14.780  11.217
56274SOL     OW70595   6.605   3.733   2.087
56274SOL    HW170596   6.526   3.684   2.064
56274SOL    HW270597   6.588   3.766   2.175
56275SOL     OW70598  13.034  14.848   0.300
56275SOL    HW170599  12.987   0.052   0.314
56275SOL    HW270600  12.966  14.784   0.279
56276SOL     OW70601  13.419   1.660   9.717
56276SOL    HW170602  13.443   1.686   9.806
56276SOL    HW270603  13.476   1.585   9.698
56277SOL     OW70604   1.126   6.279   6.716
56277SOL    HW170605   1.156   6.279   6.807
56277SOL    HW270606   1.057   6.214   6.713
56278SOL     OW70607   3.165   5.708   7.781
56278SOL    HW170608   3.255   5.724   7.753
56278SOL    HW270609   3.170   5.702   7.876
56279SOL     OW70610  12.126  11.515  13.346
56279SOL    HW170611  12.115  11.420  13.338
56279SOL    HW270612  12.149  11.528  13.438
56280SOL     OW70613   5.907  14.311   8.397
56280SOL    HW170614   5.937  14.336   8.484
56280SOL    HW270615   5.975  14.342   8.338
56281SOL     OW70616   4.281   8.689   0.261
56281SOL    HW170617   4.233   8.734   0.192
56281SOL    HW270618   4.304   8.758   0.323
56282SOL     OW70619   9.152  12.994  10.366
56282SOL    HW170620   9.176  12.905  10.338
56282SOL    HW270621   9.066  13.008  10.328
56283SOL     OW70622   5.571  13.871  13.692
56283SOL    HW170623   5.495  13.813  13.694
56283SOL    HW270624   5.534  13.960  13.694
56284SOL     OW70625   5.831   4.772   5.124
56284SOL    HW170626   5.756   4.817   5.162
56284SOL    HW270627   5.794   4.697   5.078
56285SOL     OW70628   5.474   6.944   3.260
56285SOL    HW170629   5.485   6.849   3.251
56285SOL    HW270630   5.444   6.973   3.174
56286SOL     OW70631  14.072  10.295   2.186
56286SOL    HW170632  14.151  10.258   2.147
56286SOL    HW270633  14.037  10.224   2.241
56287SOL     OW70634   8.052   7.213   3.332
56287SOL    HW170635   8.008   7.271   3.394
56287SOL    HW270636   8.131   7.184   3.377
56288SOL     OW70637   1.147   3.363   0.568
56288SOL    HW170638   1.175   3.440   0.518
56288SOL    HW270639   1.060   3.387   0.601
56289SOL     OW70640   4.839   0.624   4.979
56289SOL    HW170641   4.829   0.712   5.013
56289SOL    HW270642   4.933   0.613   4.967
56290SOL     OW70643   5.109   9.046   0.076
56290SOL    HW170644   5.059   9.127   0.065
56290SOL    HW270645   5.169   9.064   0.148
56291SOL     OW70646   7.631  13.408   0.141
56291SOL    HW170647   7.644  13.327   0.091
56291SOL    HW270648   7.540  13.403   0.170
56292SOL     OW70649   5.398   0.906   8.789
56292SOL    HW170650   5.455   0.922   8.713
56292SOL    HW270651   5.441   0.834   8.835
56293SOL     OW70652   3.749   0.248   5.154
56293SOL    HW170653   3.727   0.311   5.222
56293SOL    HW270654   3.671   0.195   5.144
56294SOL     OW70655   4.871   2.831   7.834
56294SOL    HW170656   4.873   2.810   7.927
56294SOL    HW270657   4.936   2.774   7.794
56295SOL     OW70658   9.754  12.389  10.234
56295SOL    HW170659   9.802  12.371  10.315
56295SOL    HW270660   9.819  12.426  10.175
56296SOL     OW70661  13.833   7.106  12.475
56296SOL    HW170662  13.773   7.039  12.508
56296SOL    HW270663  13.802   7.125  12.387
56297SOL     OW70664  12.555   6.756   5.706
56297SOL    HW170665  12.578   6.706   5.784
56297SOL    HW270666  12.480   6.710   5.669
56298SOL     OW70667   7.806   2.345   4.743
56298SOL    HW170668   7.794   2.287   4.819
56298SOL    HW270669   7.823   2.285   4.670
56299SOL     OW70670  11.288  10.876  12.524
56299SOL    HW170671  11.300  10.969  12.544
56299SOL    HW270672  11.307  10.869  12.431
56300SOL     OW70673  12.719   2.004   2.135
56300SOL    HW170674  12.788   2.049   2.086
56300SOL    HW270675  12.762   1.978   2.217
56301SOL     OW70676   8.433  14.300  13.714
56301SOL    HW170677   8.472  14.332  13.796
56301SOL    HW270678   8.415  14.379  13.663
56302SOL     OW70679   4.506   9.134   2.477
56302SOL    HW170680   4.561   9.090   2.542
56302SOL    HW270681   4.564   9.197   2.434
56303SOL     OW70682   9.005   9.755   8.279
56303SOL    HW170683   8.963   9.716   8.203
56303SOL    HW270684   9.099   9.748   8.261
56304SOL     OW70685   2.892  10.626   9.243
56304SOL    HW170686   2.901  10.534   9.265
56304SOL    HW270687   2.798  10.642   9.241
56305SOL     OW70688   4.539   7.122   4.163
56305SOL    HW170689   4.575   7.205   4.131
56305SOL    HW270690   4.611   7.060   4.153
56306SOL     OW70691   8.141   6.489   3.032
56306SOL    HW170692   8.112   6.479   2.941
56306SOL    HW270693   8.221   6.541   3.025
56307SOL     OW70694   0.197   8.113   3.588
56307SOL    HW170695   0.273   8.106   3.530
56307SOL    HW270696   0.131   8.159   3.536
56308SOL     OW70697  13.116  11.879   5.209
56308SOL    HW170698  13.110  11.870   5.114
56308SOL    HW270699  13.025  11.886   5.238
56309SOL     OW70700  12.273   8.551   9.701
56309SOL    HW170701  12.300   8.548   9.609
56309SOL    HW270702  12.255   8.460   9.724
56310SOL     OW70703   6.472  10.737   8.874
56310SOL    HW170704   6.423  10.808   8.832
56310SOL    HW270705   6.500  10.682   8.802
56311SOL     OW70706   4.540  11.005   2.101
56311SOL    HW170707   4.500  11.050   2.175
56311SOL    HW270708   4.465  10.977   2.048
56312SOL     OW70709   1.859   3.435   9.206
56312SOL    HW170710   1.812   3.468   9.282
56312SOL    HW270711   1.923   3.503   9.185
56313SOL     OW70712   5.488   7.401   3.828
56313SOL    HW170713   5.437   7.481   3.817
56313SOL    HW270714   5.536   7.413   3.910
56314SOL     OW70715  11.666  13.519  14.583
56314SOL    HW170716  11.639  13.506  14.674
56314SOL    HW270717  11.587  13.549  14.539
56315SOL     OW70718  12.520  13.788   4.384
56315SOL    HW170719  12.436  13.755   4.413
56315SOL    HW270720  12.513  13.883   4.394
56316SOL     OW70721  12.624  11.979  10.293
56316SOL    HW170722  12.549  11.998  10.236
56316SOL    HW270723  12.677  12.058  10.290
56317SOL     OW70724  11.091   3.692   4.916
56317SOL    HW170725  11.103   3.729   4.829
56317SOL    HW270726  10.999   3.709   4.937
56318SOL     OW70727  12.317   9.047   5.881
56318SOL    HW170728  12.392   9.098   5.911
56318SOL    HW270729  12.354   8.967   5.845
56319SOL     OW70730   6.460   4.928   4.214
56319SOL    HW170731   6.556   4.931   4.220
56319SOL    HW270732   6.433   5.020   4.215
56320SOL     OW70733  14.127   4.063   8.211
56320SOL    HW170734  14.098   3.991   8.267
56320SOL    HW270735  14.156   4.130   8.273
56321SOL     OW70736   2.254   6.902   4.307
56321SOL    HW170737   2.231   6.910   4.215
56321SOL    HW270738   2.268   6.992   4.336
56322SOL     OW70739   6.527   2.522   8.017
56322SOL    HW170740   6.580   2.443   8.008
56322SOL    HW270741   6.565   2.583   7.953
56323SOL     OW70742  12.323   4.089   7.261
56323SOL    HW170743  12.359   4.026   7.324
56323SOL    HW270744  12.386   4.090   7.189
56324SOL     OW70745  10.363  11.080   2.098
56324SOL    HW170746  10.298  11.143   2.066
56324SOL    HW270747  10.447  11.123   2.086
56325SOL     OW70748   5.248  10.175   1.580
56325SOL    HW170749   5.249  10.265   1.614
56325SOL    HW270750   5.337  10.143   1.596
56326SOL     OW70751   3.323   2.618   3.969
56326SOL    HW170752   3.396   2.611   4.030
56326SOL    HW270753   3.298   2.528   3.951
56327SOL     OW70754  12.222   2.672  10.185
56327SOL    HW170755  12.137   2.655  10.144
56327SOL    HW270756  12.212   2.757  10.228
56328SOL     OW70757  11.516   6.363   1.841
56328SOL    HW170758  11.598   6.314   1.835
56328SOL    HW270759  11.542   6.455   1.839
56329SOL     OW70760  11.382   4.357   7.430
56329SOL    HW170761  11.353   4.363   7.521
56329SOL    HW270762  11.396   4.263   7.416
56330SOL     OW70763   1.567   7.287  11.671
56330SOL    HW170764   1.654   7.253  11.652
56330SOL    HW270765   1.528   7.304  11.585
56331SOL     OW70766   8.119  12.011  10.233
56331SOL    HW170767   8.150  11.968  10.313
56331SOL    HW270768   8.064  12.083  10.263
56332SOL     OW70769   9.051   2.627  11.025
56332SOL    HW170770   9.056   2.621  10.930
56332SOL    HW270771   9.075   2.540  11.056
56333SOL     OW70772  12.089   9.356   3.113
56333SOL    HW170773  12.088   9.287   3.047
56333SOL    HW270774  12.181   9.380   3.122
56334SOL     OW70775   0.377   5.875  11.558
56334SOL    HW170776   0.442   5.873  11.488
56334SOL    HW270777   0.301   5.827  11.523
56335SOL     OW70778  13.836  13.047   6.994
56335SOL    HW170779  13.853  12.970   7.047
56335SOL    HW270780  13.762  13.090   7.037
56336SOL     OW70781  13.070   7.926   0.439
56336SOL    HW170782  13.014   8.004   0.437
56336SOL    HW270783  13.018   7.858   0.394
56337SOL     OW70784  11.087   3.529   0.697
56337SOL    HW170785  11.157   3.593   0.683
56337SOL    HW270786  11.031   3.568   0.763
56338SOL     OW70787  14.528  12.452  14.161
56338SOL    HW170788  14.551  12.494  14.078
56338SOL    HW270789  14.454  12.396  14.139
56339SOL     OW70790   6.961   5.862  10.746
56339SOL    HW170791   6.885   5.840  10.799
56339SOL    HW270792   7.027   5.796  10.770
56340SOL     OW70793  13.296  13.852   1.420
56340SOL    HW170794  13.353  13.836   1.496
56340SOL    HW270795  13.317  13.941   1.393
56341SOL     OW70796   8.837   7.174   5.552
56341SOL    HW170797   8.786   7.223   5.616
56341SOL    HW270798   8.780   7.103   5.525
56342SOL     OW70799   1.641   0.786   7.830
56342SOL    HW170800   1.724   0.806   7.787
56342SOL    HW270801   1.593   0.869   7.831
56343SOL     OW70802   5.524  12.176   0.644
56343SOL    HW170803   5.432  12.174   0.668
56343SOL    HW270804   5.568  12.129   0.715
56344SOL     OW70805   6.874   3.821   0.693
56344SOL    HW170806   6.818   3.897   0.709
56344SOL    HW270807   6.812   3.749   0.680
56345SOL     OW70808   2.401  11.398  13.189
56345SOL    HW170809   2.445  11.386  13.274
56345SOL    HW270810   2.391  11.309  13.155
56346SOL     OW70811   2.794  14.045   7.925
56346SOL    HW170812   2.776  13.999   7.843
56346SOL    HW270813   2.773  13.981   7.993
56347SOL     OW70814   4.954   9.767   3.614
56347SOL    HW170815   4.981   9.856   3.592
56347SOL    HW270816   4.859   9.767   3.601
56348SOL     OW70817   9.826   5.877  10.734
56348SOL    HW170818   9.732   5.859  10.733
56348SOL    HW270819   9.858   5.829  10.811
56349SOL     OW70820  12.412   6.541   5.236
56349SOL    HW170821  12.422   6.447   5.250
56349SOL    HW270822  12.379   6.574   5.320
56350SOL     OW70823   4.436  10.690  14.821
56350SOL    HW170824   4.377  10.755  14.860
56350SOL    HW270825   4.378  10.619  14.794
56351SOL     OW70826  11.378   9.468  12.353
56351SOL    HW170827  11.448   9.417  12.312
56351SOL    HW270828  11.418   9.551  12.376
56352SOL     OW70829   7.132   0.409   2.087
56352SOL    HW170830   7.076   0.359   2.145
56352SOL    HW270831   7.087   0.407   2.002
56353SOL     OW70832   1.561   9.719   4.010
56353SOL    HW170833   1.591   9.730   3.920
56353SOL    HW270834   1.555   9.808   4.044
56354SOL     OW70835   2.764  11.596   1.871
56354SOL    HW170836   2.849  11.581   1.912
56354SOL    HW270837   2.725  11.668   1.920
56355SOL     OW70838   4.672   7.795  12.179
56355SOL    HW170839   4.626   7.762  12.102
56355SOL    HW270840   4.629   7.752  12.253
56356SOL     OW70841  11.070   8.042  12.968
56356SOL    HW170842  11.145   8.096  12.940
56356SOL    HW270843  10.994   8.098  12.955
56357SOL     OW70844  10.430   5.935   8.981
56357SOL    HW170845  10.464   5.865   8.925
56357SOL    HW270846  10.504   5.958   9.038
56358SOL     OW70847   2.673  12.782  11.534
56358SOL    HW170848   2.753  12.750  11.491
56358SOL    HW270849   2.694  12.873  11.558
56359SOL     OW70850   3.893   9.130   4.955
56359SOL    HW170851   3.817   9.108   5.009
56359SOL    HW270852   3.856   9.167   4.875
56360SOL     OW70853   4.867  11.904   0.140
56360SOL    HW170854   4.808  11.933   0.070
56360SOL    HW270855   4.944  11.960   0.131
56361SOL     OW70856   1.591   0.893   0.084
56361SOL    HW170857   1.615   0.803   0.063
56361SOL    HW270858   1.652   0.918   0.154
56362SOL     OW70859  14.652   3.687   6.508
56362SOL    HW170860  14.674   3.775   6.480
56362SOL    HW270861  14.679   3.684   6.600
56363SOL     OW70862   6.042   0.737  14.307
56363SOL    HW170863   5.971   0.704  14.251
56363SOL    HW270864   6.003   0.744  14.394
56364SOL     OW70865  12.294   5.465   2.337
56364SOL    HW170866  12.227   5.489   2.401
56364SOL    HW270867  12.341   5.393   2.378
56365SOL     OW70868  12.449   3.665   8.115
56365SOL    HW170869  12.421   3.731   8.051
56365SOL    HW270870  12.368   3.622   8.142
56366SOL     OW70871  13.659   8.432   5.753
56366SOL    HW170872  13.611   8.355   5.722
56366SOL    HW270873  13.599   8.505   5.742
56367SOL     OW70874   6.142   4.263   8.189
56367SOL    HW170875   6.232   4.294   8.196
56367SOL    HW270876   6.106   4.275   8.277
56368SOL     OW70877   8.076   6.048   7.067
56368SOL    HW170878   8.124   6.112   7.014
56368SOL    HW270879   8.141   6.014   7.128
56369SOL     OW70880   0.006   0.303   1.998
56369SOL    HW170881  14.830   0.343   2.066
56369SOL    HW270882  14.837   0.222   1.976
56370SOL     OW70883  13.517  12.344   3.307
56370SOL    HW170884  13.562  12.270   3.347
56370SOL    HW270885  13.477  12.308   3.227
56371SOL     OW70886   5.459   3.620  12.956
56371SOL    HW170887   5.502   3.540  12.926
56371SOL    HW270888   5.392   3.589  13.017
56372SOL     OW70889   9.991  11.562   7.506
56372SOL    HW170890  10.047  11.634   7.535
56372SOL    HW270891   9.949  11.595   7.426
56373SOL     OW70892  14.041   1.657   4.468
56373SOL    HW170893  14.126   1.659   4.424
56373SOL    HW270894  14.057   1.609   4.549
56374SOL     OW70895   5.659   4.972  13.257
56374SOL    HW170896   5.623   4.918  13.187
56374SOL    HW270897   5.747   4.937  13.272
56375SOL     OW70898   1.737  14.135   4.845
56375SOL    HW170899   1.663  14.085   4.881
56375SOL    HW270900   1.720  14.139   4.751
56376SOL     OW70901  10.022  13.796  14.253
56376SOL    HW170902  10.043  13.703  14.255
56376SOL    HW270903  10.089  13.834  14.195
56377SOL     OW70904  12.097   4.761   5.591
56377SOL    HW170905  12.174   4.783   5.643
56377SOL    HW270906  12.082   4.839   5.537
56378SOL     OW70907  13.698   0.296   7.078
56378SOL    HW170908  13.753   0.375   7.070
56378SOL    HW270909  13.700   0.257   6.990
56379SOL     OW70910  13.458  14.172   9.151
56379SOL    HW170911  13.497  14.177   9.064
56379SOL    HW270912  13.526  14.204   9.210
56380SOL     OW70913   3.534   9.350  13.172
56380SOL    HW170914   3.580   9.271  13.203
56380SOL    HW270915   3.545   9.347  13.077
56381SOL     OW70916   4.236   8.924   7.641
56381SOL    HW170917   4.223   8.858   7.709
56381SOL    HW270918   4.175   8.994   7.664
56382SOL     OW70919  12.822  10.761   2.388
56382SOL    HW170920  12.838  10.712   2.469
56382SOL    HW270921  12.881  10.836   2.394
56383SOL     OW70922   8.751   9.459  13.650
56383SOL    HW170923   8.690   9.467  13.723
56383SOL    HW270924   8.771   9.550  13.626
56384SOL     OW70925  12.026   1.319   7.388
56384SOL    HW170926  11.962   1.249   7.397
56384SOL    HW270927  12.095   1.283   7.332
56385SOL     OW70928  11.913   6.152   3.455
56385SOL    HW170929  11.934   6.225   3.512
56385SOL    HW270930  11.824   6.126   3.480
56386SOL     OW70931   1.653  13.114   4.985
56386SOL    HW170932   1.649  13.026   4.947
56386SOL    HW270933   1.746  13.130   5.001
56387SOL     OW70934   6.387   6.006   9.683
56387SOL    HW170935   6.300   6.025   9.649
56387SOL    HW270936   6.421   5.936   9.627
56388SOL     OW70937   5.774  12.619   6.364
56388SOL    HW170938   5.783  12.653   6.275
56388SOL    HW270939   5.862  12.626   6.401
56389SOL     OW70940   0.838   6.630  12.720
56389SOL    HW170941   0.788   6.557  12.685
56389SOL    HW270942   0.777   6.677  12.778
56390SOL     OW70943   1.526   4.753  10.045
56390SOL    HW170944   1.607   4.701  10.049
56390SOL    HW270945   1.482   4.735  10.127
56391SOL     OW70946   5.783   3.763  14.857
56391SOL    HW170947   5.859   3.808  14.820
56391SOL    HW270948   5.734   3.832   0.025
56392SOL     OW70949   0.682   6.736   7.036
56392SOL    HW170950   0.731   6.744   7.118
56392SOL    HW270951   0.691   6.644   7.012
56393SOL     OW70952   4.382  11.002   7.719
56393SOL    HW170953   4.313  10.950   7.679
56393SOL    HW270954   4.463  10.968   7.680
56394SOL     OW70955  10.721   6.468   5.874
56394SOL    HW170956  10.630   6.469   5.844
56394SOL    HW270957  10.738   6.557   5.903
56395SOL     OW70958   1.108   9.456   0.563
56395SOL    HW170959   1.113   9.414   0.478
56395SOL    HW270960   1.200   9.472   0.587
56396SOL     OW70961  12.039   7.172   8.732
56396SOL    HW170962  11.961   7.149   8.784
56396SOL    HW270963  12.109   7.119   8.769
56397SOL     OW70964  11.121   2.395  12.242
56397SOL    HW170965  11.108   2.312  12.288
56397SOL    HW270966  11.151   2.370  12.155
56398SOL     OW70967   3.732   0.123  11.949
56398SOL    HW170968   3.718   0.215  11.971
56398SOL    HW270969   3.667   0.076  12.001
56399SOL     OW70970   9.449   5.103   8.313
56399SOL    HW170971   9.479   5.122   8.225
56399SOL    HW270972   9.388   5.029   8.303
56400SOL     OW70973  11.264   9.382   2.567
56400SOL    HW170974  11.306   9.461   2.534
56400SOL    HW270975  11.308   9.311   2.521
56401SOL     OW70976   5.717   6.626   0.219
56401SOL    HW170977   5.759   6.647   0.136
56401SOL    HW270978   5.661   6.551   0.200
56402SOL     OW70979   9.161  11.030   8.695
56402SOL    HW170980   9.098  11.074   8.752
56402SOL    HW270981   9.144  10.937   8.708
56403SOL     OW70982  11.505  12.582  10.177
56403SOL    HW170983  11.441  12.639  10.220
56403SOL    HW270984  11.581  12.639  10.163
56404SOL     OW70985   0.300  10.689   6.835
56404SOL    HW170986   0.286  10.696   6.741
56404SOL    HW270987   0.227  10.737   6.874
56405SOL     OW70988   6.748   7.589   8.451
56405SOL    HW170989   6.693   7.590   8.373
56405SOL    HW270990   6.720   7.512   8.500
56406SOL     OW70991  13.413   2.770   7.969
56406SOL    HW170992  13.471   2.828   7.918
56406SOL    HW270993  13.326   2.807   7.956
56407SOL     OW70994   1.680   9.959   9.408
56407SOL    HW170995   1.710  10.020   9.476
56407SOL    HW270996   1.727   9.987   9.330
56408SOL     OW70997   6.344   5.244   0.307
56408SOL    HW170998   6.304   5.330   0.292
56408SOL    HW270999   6.422   5.263   0.360
56409SOL     OW71000   0.383   2.432   3.959
56409SOL    HW171001   0.321   2.383   3.904
56409SOL    HW271002   0.347   2.520   3.963
56410SOL     OW71003   8.574   5.444   5.587
56410SOL    HW171004   8.601   5.361   5.627
56410SOL    HW271005   8.483   5.456   5.616
56411SOL     OW71006   5.417  10.232   2.057
56411SOL    HW171007   5.487  10.263   2.114
56411SOL    HW271008   5.372  10.311   2.027
56412SOL     OW71009  11.038  12.074  14.003
56412SOL    HW171010  10.985  12.012  13.954
56412SOL    HW271011  11.051  12.034  14.089
56413SOL     OW71012   0.919   8.497   8.940
56413SOL    HW171013   0.884   8.570   8.888
56413SOL    HW271014   0.902   8.420   8.886
56414SOL     OW71015  10.433   4.519   6.072
56414SOL    HW171016  10.512   4.538   6.021
56414SOL    HW271017  10.465   4.507   6.161
56415SOL     OW71018   6.366   0.513   7.945
56415SOL    HW171019   6.305   0.550   7.881
56415SOL    HW271020   6.387   0.426   7.910
56416SOL     OW71021  14.508   9.367   8.298
56416SOL    HW171022  14.436   9.324   8.343
56416SOL    HW271023  14.583   9.355   8.356
56417SOL     OW71024   9.128   0.576  12.101
56417SOL    HW171025   9.060   0.616  12.155
56417SOL    HW271026   9.094   0.490  12.079
56418SOL     OW71027   2.209   2.063  10.770
56418SOL    HW171028   2.245   1.981  10.736
56418SOL    HW271029   2.238   2.130  10.708
56419SOL     OW71030   2.885   8.693  13.573
56419SOL    HW171031   2.945   8.767  13.569
56419SOL    HW271032   2.930   8.630  13.629
56420SOL     OW71033   9.592   4.272   3.089
56420SOL    HW171034   9.502   4.303   3.080
56420SOL    HW271035   9.629   4.280   3.001
56421SOL     OW71036   8.261   4.611  13.437
56421SOL    HW171037   8.303   4.696  13.453
56421SOL    HW271038   8.313   4.549  13.488
56422SOL     OW71039   8.499   0.789   6.566
56422SOL    HW171040   8.479   0.710   6.516
56422SOL    HW271041   8.586   0.815   6.535
56423SOL     OW71042  12.665   1.995  14.719
56423SOL    HW171043  12.614   2.076  14.729
56423SOL    HW271044  12.668   1.959  14.808
56424SOL     OW71045   6.723  11.165   4.984
56424SOL    HW171046   6.737  11.091   5.044
56424SOL    HW271047   6.636  11.152   4.948
56425SOL     OW71048   1.583  12.342   6.876
56425SOL    HW171049   1.511  12.402   6.891
56425SOL    HW271050   1.661  12.389   6.907
56426SOL     OW71051   2.874   6.754   5.649
56426SOL    HW171052   2.969   6.766   5.659
56426SOL    HW271053   2.865   6.702   5.569
56427SOL     OW71054   6.623   5.428   9.053
56427SOL    HW171055   6.629   5.511   9.006
56427SOL    HW271056   6.634   5.361   8.985
56428SOL     OW71057   1.626   8.701  12.930
56428SOL    HW171058   1.649   8.723  12.840
56428SOL    HW271059   1.707   8.667  12.968
56429SOL     OW71060   0.510  11.067   0.205
56429SOL    HW171061   0.550  11.037   0.287
56429SOL    HW271062   0.531  10.998   0.142
56430SOL     OW71063  14.247  10.137   5.778
56430SOL    HW171064  14.289  10.121   5.693
56430SOL    HW271065  14.214  10.227   5.772
56431SOL     OW71066   7.062   2.792   0.253
56431SOL    HW171067   7.006   2.822   0.325
56431SOL    HW271068   7.150   2.816   0.280
56432SOL     OW71069   2.059   8.975   7.539
56432SOL    HW171070   2.084   8.994   7.629
56432SOL    HW271071   2.075   9.057   7.492
56433SOL     OW71072   9.735   3.446   3.748
56433SOL    HW171073   9.790   3.385   3.700
56433SOL    HW271074   9.645   3.420   3.727
56434SOL     OW71075  13.835   2.645   2.367
56434SOL    HW171076  13.777   2.601   2.429
56434SOL    HW271077  13.847   2.582   2.296
56435SOL     OW71078   0.532  14.474   0.773
56435SOL    HW171079   0.503  14.435   0.691
56435SOL    HW271080   0.616  14.515   0.752
56436SOL     OW71081   6.814   0.288  11.667
56436SOL    HW171082   6.836   0.352  11.734
56436SOL    HW271083   6.865   0.313  11.590
56437SOL     OW71084   0.077   8.220   7.818
56437SOL    HW171085   0.058   8.300   7.769
56437SOL    HW271086   0.172   8.211   7.811
56438SOL     OW71087   7.839  13.191   4.105
56438SOL    HW171088   7.849  13.164   4.196
56438SOL    HW271089   7.848  13.286   4.107
56439SOL     OW71090  11.707  10.530  13.683
56439SOL    HW171091  11.705  10.477  13.604
56439SOL    HW271092  11.704  10.466  13.755
56440SOL     OW71093   3.682   0.792  11.381
56440SOL    HW171094   3.647   0.740  11.309
56440SOL    HW271095   3.707   0.875  11.341
56441SOL     OW71096   4.201  14.676   1.184
56441SOL    HW171097   4.134  14.691   1.252
56441SOL    HW271098   4.250  14.759   1.181
56442SOL     OW71099   5.270  13.114  14.613
56442SOL    HW171100   5.322  13.128  14.533
56442SOL    HW271101   5.225  13.197  14.627
56443SOL     OW71102   5.131   4.985  12.684
56443SOL    HW171103   5.122   4.931  12.763
56443SOL    HW271104   5.126   4.923  12.611
56444SOL     OW71105   2.930   8.021  12.203
56444SOL    HW171106   3.019   8.039  12.173
56444SOL    HW271107   2.878   8.092  12.165
56445SOL     OW71108   7.508   9.674   2.418
56445SOL    HW171109   7.508   9.747   2.480
56445SOL    HW271110   7.436   9.618   2.447
56446SOL     OW71111   7.449   3.126   3.615
56446SOL    HW171112   7.418   3.040   3.642
56446SOL    HW271113   7.372   3.183   3.622
56447SOL     OW71114   0.396   1.984  11.928
56447SOL    HW171115   0.338   1.972  11.852
56447SOL    HW271116   0.405   1.896  11.965
56448SOL     OW71117   6.406  14.313  14.354
56448SOL    HW171118   6.405  14.408  14.369
56448SOL    HW271119   6.313  14.288  14.358
56449SOL     OW71120   0.800   8.380   5.590
56449SOL    HW171121   0.861   8.446   5.557
56449SOL    HW271122   0.739   8.366   5.517
56450SOL     OW71123  10.992  12.275   2.212
56450SOL    HW171124  11.059  12.220   2.254
56450SOL    HW271125  10.936  12.304   2.284
56451SOL     OW71126   6.948   9.485   8.826
56451SOL    HW171127   6.978   9.398   8.799
56451SOL    HW271128   6.853   9.475   8.833
56452SOL     OW71129  11.355   4.426  10.465
56452SOL    HW171130  11.329   4.510  10.426
56452SOL    HW271131  11.284   4.404  10.524
56453SOL     OW71132   7.239   2.863   8.984
56453SOL    HW171133   7.229   2.768   8.996
56453SOL    HW271134   7.172   2.901   9.040
56454SOL     OW71135  10.384   2.436  12.780
56454SOL    HW171136  10.345   2.374  12.718
56454SOL    HW271137  10.318   2.447  12.848
56455SOL     OW71138  13.084   7.735   7.051
56455SOL    HW171139  13.056   7.826   7.054
56455SOL    HW271140  13.012   7.686   7.092
56456SOL     OW71141   4.220   0.007   7.899
56456SOL    HW171142   4.268   0.076   7.944
56456SOL    HW271143   4.262  14.803   7.927
56457SOL     OW71144  10.228   5.357   1.381
56457SOL    HW171145  10.322   5.349   1.398
56457SOL    HW271146  10.214   5.450   1.367
56458SOL     OW71147  13.123   9.833   0.992
56458SOL    HW171148  13.093   9.833   1.083
56458SOL    HW271149  13.094   9.918   0.958
56459SOL     OW71150  11.961  13.014   5.776
56459SOL    HW171151  11.989  12.927   5.749
56459SOL    HW271152  11.992  13.022   5.866
56460SOL     OW71153   1.833   1.967   0.180
56460SOL    HW171154   1.892   1.892   0.173
56460SOL    HW271155   1.809   1.969   0.273
56461SOL     OW71156   3.792  12.540   5.129
56461SOL    HW171157   3.804  12.446   5.140
56461SOL    HW271158   3.697  12.553   5.129
56462SOL     OW71159   3.785   7.703   9.554
56462SOL    HW171160   3.846   7.641   9.513
56462SOL    HW271161   3.807   7.787   9.515
56463SOL     OW71162   9.392  11.243   4.454
56463SOL    HW171163   9.337  11.317   4.479
56463SOL    HW271164   9.478  11.263   4.492
56464SOL     OW71165   8.324   3.593  10.876
56464SOL    HW171166   8.399   3.542  10.910
56464SOL    HW271167   8.360   3.680  10.859
56465SOL     OW71168  11.705   2.395   4.656
56465SOL    HW171169  11.691   2.477   4.704
56465SOL    HW271170  11.640   2.398   4.586
56466SOL     OW71171  14.318  12.274  14.191
56466SOL    HW171172  14.296  12.274  14.284
56466SOL    HW271173  14.241  12.238  14.148
56467SOL     OW71174   7.012  13.035  14.509
56467SOL    HW171175   7.008  12.940  14.525
56467SOL    HW271176   7.020  13.073  14.597
56468SOL     OW71177   9.590   3.586   3.204
56468SOL    HW171178   9.633   3.670   3.218
56468SOL    HW271179   9.652   3.535   3.153
56469SOL     OW71180   5.482   4.302  12.253
56469SOL    HW171181   5.529   4.224  12.281
56469SOL    HW271182   5.550   4.363  12.227
56470SOL     OW71183  10.980  10.652   5.860
56470SOL    HW171184  10.981  10.562   5.828
56470SOL    HW271185  10.982  10.643   5.955
56471SOL     OW71186   4.984   0.753   6.167
56471SOL    HW171187   5.018   0.835   6.130
56471SOL    HW271188   4.957   0.702   6.090
56472SOL     OW71189   3.175   7.281  11.913
56472SOL    HW171190   3.110   7.329  11.964
56472SOL    HW271191   3.240   7.347  11.888
56473SOL     OW71192  12.500  14.848  14.444
56473SOL    HW171193  12.444  14.851  14.522
56473SOL    HW271194  12.569  14.787  14.467
56474SOL     OW71195  12.689   3.765   6.201
56474SOL    HW171196  12.606   3.720   6.218
56474SOL    HW271197  12.669   3.858   6.216
56475SOL     OW71198  13.094   8.607   6.776
56475SOL    HW171199  13.186   8.625   6.792
56475SOL    HW271200  13.091   8.572   6.687
56476SOL     OW71201  14.821  11.091  11.507
56476SOL    HW171202  14.839  11.000  11.481
56476SOL    HW271203  14.726  11.094  11.519
56477SOL     OW71204   5.486  10.097  10.219
56477SOL    HW171205   5.502  10.047  10.299
56477SOL    HW271206   5.541  10.056  10.153
56478SOL     OW71207  12.060   8.431  10.591
56478SOL    HW171208  12.059   8.403  10.682
56478SOL    HW271209  12.082   8.524  10.595
56479SOL     OW71210   3.223   3.594   1.489
56479SOL    HW171211   3.176   3.626   1.566
56479SOL    HW271212   3.288   3.533   1.524
56480SOL     OW71213   7.839  10.346  11.944
56480SOL    HW171214   7.759  10.364  11.993
56480SOL    HW271215   7.825  10.389  11.860
56481SOL     OW71216   3.956   5.695  10.428
56481SOL    HW171217   3.871   5.726  10.458
56481SOL    HW271218   3.963   5.727  10.338
56482SOL     OW71219   4.113   8.569   3.582
56482SOL    HW171220   4.127   8.605   3.494
56482SOL    HW271221   4.186   8.508   3.594
56483SOL     OW71222  13.127  11.356  14.447
56483SOL    HW171223  13.210  11.341  14.401
56483SOL    HW271224  13.133  11.447  14.477
56484SOL     OW71225  13.476   3.411   5.268
56484SOL    HW171226  13.518   3.402   5.183
56484SOL    HW271227  13.537   3.463   5.320
56485SOL     OW71228   9.304   6.938  10.391
56485SOL    HW171229   9.262   6.905  10.311
56485SOL    HW271230   9.304   7.033  10.381
56486SOL     OW71231   9.997   5.449   5.563
56486SOL    HW171232   9.988   5.473   5.655
56486SOL    HW271233  10.089   5.463   5.543
56487SOL     OW71234   8.428  13.040   4.649
56487SOL    HW171235   8.346  12.992   4.641
56487SOL    HW271236   8.405  13.118   4.701
56488SOL     OW71237   5.207   2.369  11.077
56488SOL    HW171238   5.245   2.423  11.146
56488SOL    HW271239   5.272   2.373  11.006
56489SOL     OW71240   9.107   5.500   6.788
56489SOL    HW171241   9.113   5.453   6.705
56489SOL    HW271242   9.013   5.507   6.805
56490SOL     OW71243   8.218  13.580   9.494
56490SOL    HW171244   8.285  13.513   9.504
56490SOL    HW271245   8.262  13.652   9.448
56491SOL     OW71246   3.251   9.272   6.283
56491SOL    HW171247   3.316   9.212   6.246
56491SOL    HW271248   3.167   9.229   6.267
56492SOL     OW71249   1.500   0.192   9.989
56492SOL    HW171250   1.492   0.200   9.894
56492SOL    HW271251   1.512   0.098  10.004
56493SOL     OW71252   3.184  13.471   4.112
56493SOL    HW171253   3.278  13.489   4.108
56493SOL    HW271254   3.144  13.554   4.137
56494SOL     OW71255   4.667   7.435  12.684
56494SOL    HW171256   4.717   7.353  12.688
56494SOL    HW271257   4.592   7.415  12.628
56495SOL     OW71258   7.838   4.652   7.697
56495SOL    HW171259   7.831   4.737   7.739
56495SOL    HW271260   7.747   4.621   7.690
56496SOL     OW71261   9.490  10.054  14.239
56496SOL    HW171262   9.437  10.060  14.159
56496SOL    HW271263   9.427  10.041  14.309
56497SOL     OW71264   8.351   4.888   2.225
56497SOL    HW171265   8.383   4.887   2.315
56497SOL    HW271266   8.400   4.959   2.183
56498SOL     OW71267   3.517   7.050   2.447
56498SOL    HW171268   3.585   6.996   2.487
56498SOL    HW271269   3.446   7.052   2.512
56499SOL     OW71270  13.492  14.466   2.480
56499SOL    HW171271  13.521  14.545   2.526
56499SOL    HW271272  13.422  14.496   2.422
56500SOL     OW71273  11.527  12.391  10.368
56500SOL    HW171274  11.500  12.448  10.296
56500SOL    HW271275  11.589  12.329  10.328
56501SOL     OW71276  11.951   7.045   2.324
56501SOL    HW171277  11.973   6.990   2.249
56501SOL    HW271278  11.946   6.985   2.398
56502SOL     OW71279   6.477  14.044   2.131
56502SOL    HW171280   6.452  14.132   2.103
56502SOL    HW271281   6.427  14.028   2.211
56503SOL     OW71282   3.117   3.030   7.531
56503SOL    HW171283   3.120   3.088   7.607
56503SOL    HW271284   3.156   2.948   7.562
56504SOL     OW71285   8.782  10.632   6.130
56504SOL    HW171286   8.777  10.537   6.118
56504SOL    HW271287   8.726  10.667   6.060
56505SOL     OW71288  12.792  10.072   3.312
56505SOL    HW171289  12.701  10.070   3.341
56505SOL    HW271290  12.817  10.165   3.316
56506SOL     OW71291  12.466   8.260   6.068
56506SOL    HW171292  12.391   8.205   6.091
56506SOL    HW271293  12.513   8.271   6.151
56507SOL     OW71294   9.957   5.286  10.086
56507SOL    HW171295   9.863   5.297  10.101
56507SOL    HW271296   9.997   5.301  10.171
56508SOL     OW71297   5.840   3.260   0.756
56508SOL    HW171298   5.905   3.317   0.797
56508SOL    HW271299   5.829   3.188   0.818
56509SOL     OW71300   6.287   4.989   2.037
56509SOL    HW171301   6.328   5.008   1.953
56509SOL    HW271302   6.255   5.074   2.068
56510SOL     OW71303   7.522   7.988  11.418
56510SOL    HW171304   7.510   7.900  11.383
56510SOL    HW271305   7.589   8.027  11.362
56511SOL     OW71306  13.103   0.558   3.567
56511SOL    HW171307  13.173   0.546   3.631
56511SOL    HW271308  13.025   0.523   3.610
56512SOL     OW71309  10.902   7.292  13.796
56512SOL    HW171310  10.905   7.202  13.764
56512SOL    HW271311  10.853   7.340  13.730
56513SOL     OW71312   4.600   6.430  11.799
56513SOL    HW171313   4.591   6.391  11.886
56513SOL    HW271314   4.528   6.494  11.794
56514SOL     OW71315  12.036   1.599   1.253
56514SOL    HW171316  12.124   1.632   1.273
56514SOL    HW271317  12.036   1.509   1.285
56515SOL     OW71318  11.652   8.455  14.009
56515SOL    HW171319  11.588   8.434  14.077
56515SOL    HW271320  11.736   8.455  14.055
56516SOL     OW71321  14.605  12.129   9.781
56516SOL    HW171322  14.667  12.130   9.708
56516SOL    HW271323  14.650  12.177   9.851
56517SOL     OW71324   9.333  12.443  14.224
56517SOL    HW171325   9.287  12.507  14.279
56517SOL    HW271326   9.372  12.381  14.286
56518SOL     OW71327   7.634   7.768   1.640
56518SOL    HW171328   7.601   7.688   1.601
56518SOL    HW271329   7.717   7.785   1.595
56519SOL     OW71330   3.798   6.870  14.002
56519SOL    HW171331   3.812   6.854  13.909
56519SOL    HW271332   3.795   6.966  14.010
56520SOL     OW71333   3.698   3.711   1.250
56520SOL    HW171334   3.655   3.660   1.319
56520SOL    HW271335   3.790   3.683   1.254
56521SOL     OW71336   4.686  11.862   2.321
56521SOL    HW171337   4.604  11.813   2.312
56521SOL    HW271338   4.661  11.943   2.364
56522SOL     OW71339  11.295   6.444   4.321
56522SOL    HW171340  11.330   6.533   4.328
56522SOL    HW271341  11.319   6.416   4.232
56523SOL     OW71342   2.794  14.840  12.958
56523SOL    HW171343   2.842  14.783  13.018
56523SOL    HW271344   2.742   0.019  13.016
56524SOL     OW71345   9.525   2.349  12.797
56524SOL    HW171346   9.592   2.412  12.768
56524SOL    HW271347   9.561   2.264  12.773
56525SOL     OW71348  12.131  11.243   2.691
56525SOL    HW171349  12.192  11.241   2.765
56525SOL    HW271350  12.157  11.169   2.637
56526SOL     OW71351  12.003  13.313   2.332
56526SOL    HW171352  11.956  13.385   2.291
56526SOL    HW271353  12.053  13.273   2.261
56527SOL     OW71354   9.066   2.478  13.622
56527SOL    HW171355   9.157   2.475  13.590
56527SOL    HW271356   9.056   2.397  13.673
56528SOL     OW71357  10.613   9.828   4.996
56528SOL    HW171358  10.631   9.734   4.995
56528SOL    HW271359  10.568   9.842   5.080
56529SOL     OW71360  10.044  11.478   8.965
56529SOL    HW171361  10.059  11.566   8.999
56529SOL    HW271362   9.960  11.485   8.919
56530SOL     OW71363   3.451  13.222   5.824
56530SOL    HW171364   3.437  13.139   5.871
56530SOL    HW271365   3.467  13.286   5.893
56531SOL     OW71366   1.656   2.708   0.470
56531SOL    HW171367   1.603   2.635   0.503
56531SOL    HW271368   1.594   2.781   0.466
56532SOL     OW71369   1.890   7.617   4.191
56532SOL    HW171370   1.903   7.539   4.245
56532SOL    HW271371   1.822   7.592   4.128
56533SOL     OW71372  12.892  11.992   9.827
56533SOL    HW171373  12.958  11.983   9.758
56533SOL    HW271374  12.915  12.073   9.872
56534SOL     OW71375  13.407  14.583   9.276
56534SOL    HW171376  13.443  14.609   9.361
56534SOL    HW271377  13.323  14.628   9.270
56535SOL     OW71378   8.263   9.875  10.071
56535SOL    HW171379   8.309   9.920  10.141
56535SOL    HW271380   8.294   9.784  10.075
56536SOL     OW71381   9.668   4.904   8.261
56536SOL    HW171382   9.664   4.820   8.306
56536SOL    HW271383   9.644   4.968   8.329
56537SOL     OW71384   0.663   8.306   7.607
56537SOL    HW171385   0.605   8.233   7.585
56537SOL    HW271386   0.715   8.321   7.529
56538SOL     OW71387  10.336  14.133   3.627
56538SOL    HW171388  10.280  14.116   3.703
56538SOL    HW271389  10.423  14.145   3.664
56539SOL     OW71390  11.040   1.916  12.528
56539SOL    HW171391  10.964   1.953  12.572
56539SOL    HW271392  11.092   1.876  12.598
56540SOL     OW71393  14.061   1.364  13.274
56540SOL    HW171394  14.037   1.445  13.229
56540SOL    HW271395  14.008   1.296  13.231
56541SOL     OW71396   1.815   9.575   5.276
56541SOL    HW171397   1.809   9.580   5.371
56541SOL    HW271398   1.833   9.483   5.257
56542SOL     OW71399   2.876   4.115   0.507
56542SOL    HW171400   2.932   4.055   0.556
56542SOL    HW271401   2.810   4.059   0.467
56543SOL     OW71402   3.072  13.783   1.989
56543SOL    HW171403   3.024  13.751   1.913
56543SOL    HW271404   3.008  13.785   2.060
56544SOL     OW71405   9.961   6.508   3.223
56544SOL    HW171406  10.013   6.431   3.203
56544SOL    HW271407   9.922   6.533   3.140
56545SOL     OW71408   4.602   3.433  13.437
56545SOL    HW171409   4.508   3.416  13.447
56545SOL    HW271410   4.612   3.526  13.460
56546SOL     OW71411   8.282  11.694   4.211
56546SOL    HW171412   8.315  11.722   4.297
56546SOL    HW271413   8.227  11.766   4.182
56547SOL     OW71414   7.397  13.514   7.019
56547SOL    HW171415   7.391  13.419   7.002
56547SOL    HW271416   7.427  13.550   6.936
56548SOL     OW71417  11.168   9.256   8.950
56548SOL    HW171418  11.199   9.346   8.941
56548SOL    HW271419  11.149   9.227   8.861
56549SOL     OW71420   5.116   9.307   6.112
56549SOL    HW171421   5.057   9.263   6.174
56549SOL    HW271422   5.201   9.305   6.154
56550SOL     OW71423   4.435   1.874   1.084
56550SOL    HW171424   4.475   1.960   1.097
56550SOL    HW271425   4.414   1.844   1.173
56551SOL     OW71426   9.082   5.578   3.954
56551SOL    HW171427   9.002   5.599   3.906
56551SOL    HW271428   9.135   5.527   3.892
56552SOL     OW71429   1.697  14.413   9.569
56552SOL    HW171430   1.746  14.352   9.624
56552SOL    HW271431   1.605  14.394   9.588
56553SOL     OW71432  10.557   6.575   2.859
56553SOL    HW171433  10.614   6.499   2.848
56553SOL    HW271434  10.548   6.586   2.954
56554SOL     OW71435   0.698   1.053   3.285
56554SOL    HW171436   0.772   1.097   3.328
56554SOL    HW271437   0.727   0.963   3.273
56555SOL     OW71438   8.226   6.671   0.010
56555SOL    HW171439   8.182   6.614  14.825
56555SOL    HW271440   8.221   6.758  14.849
56556SOL     OW71441   5.153   5.791  12.706
56556SOL    HW171442   5.098   5.865  12.729
56556SOL    HW271443   5.242   5.827  12.706
56557SOL     OW71444   7.417  14.619  14.778
56557SOL    HW171445   7.421  14.710  14.806
56557SOL    HW271446   7.341  14.583  14.824
56558SOL     OW71447   9.388   6.807  11.536
56558SOL    HW171448   9.394   6.860  11.616
56558SOL    HW271449   9.351   6.867  11.471
56559SOL     OW71450  11.032   1.360  12.127
56559SOL    HW171451  11.082   1.311  12.191
56559SOL    HW271452  10.943   1.362  12.162
56560SOL     OW71453   3.786   8.925   7.409
56560SOL    HW171454   3.874   8.936   7.445
56560SOL    HW271455   3.781   8.833   7.384
56561SOL     OW71456   6.837   3.222   8.014
56561SOL    HW171457   6.924   3.215   8.055
56561SOL    HW271458   6.794   3.292   8.062
56562SOL     OW71459  12.090  10.459   4.549
56562SOL    HW171460  12.021  10.433   4.488
56562SOL    HW271461  12.089  10.555   4.547
56563SOL     OW71462  13.967   4.091   1.624
56563SOL    HW171463  13.979   4.125   1.712
56563SOL    HW271464  13.872   4.091   1.610
56564SOL     OW71465  11.012   5.011   0.897
56564SOL    HW171466  11.107   5.009   0.890
56564SOL    HW271467  10.994   5.055   0.980
56565SOL     OW71468  14.715  14.647   6.576
56565SOL    HW171469  14.765  14.568   6.594
56565SOL    HW271470  14.779  14.708   6.538
56566SOL     OW71471   7.338   8.376   1.768
56566SOL    HW171472   7.359   8.417   1.684
56566SOL    HW271473   7.280   8.303   1.746
56567SOL     OW71474  11.363  13.449  14.748
56567SOL    HW171475  11.284  13.419  14.793
56567SOL    HW271476  11.421  13.373  14.746
56568SOL     OW71477  11.190   5.868   3.158
56568SOL    HW171478  11.098   5.843   3.162
56568SOL    HW271479  11.236   5.787   3.138
56569SOL     OW71480  14.871  11.025   3.230
56569SOL    HW171481   0.061  10.993   3.171
56569SOL    HW271482  14.799  11.049   3.173
56570SOL     OW71483  12.275   4.715  11.297
56570SOL    HW171484  12.214   4.774  11.340
56570SOL    HW271485  12.229   4.687  11.218
56571SOL     OW71486  13.055  14.290  14.496
56571SOL    HW171487  13.099  14.294  14.581
56571SOL    HW271488  12.987  14.224  14.507
56572SOL     OW71489   1.715   2.942   0.157
56572SOL    HW171490   1.628   2.925   0.121
56572SOL    HW271491   1.740   3.026   0.119
56573SOL     OW71492   9.585   1.550  14.521
56573SOL    HW171493   9.514   1.547  14.585
56573SOL    HW271494   9.543   1.579  14.440
56574SOL     OW71495   0.378   9.185   9.315
56574SOL    HW171496   0.463   9.164   9.275
56574SOL    HW271497   0.361   9.276   9.288
56575SOL     OW71498   7.371   9.134   5.225
56575SOL    HW171499   7.427   9.172   5.158
56575SOL    HW271500   7.346   9.049   5.189
56576SOL     OW71501   9.348   6.687   5.333
56576SOL    HW171502   9.277   6.747   5.310
56576SOL    HW271503   9.425   6.744   5.345
56577SOL     OW71504   8.712   2.120   5.708
56577SOL    HW171505   8.697   2.048   5.769
56577SOL    HW271506   8.748   2.190   5.762
56578SOL     OW71507  11.409  12.874  11.030
56578SOL    HW171508  11.502  12.852  11.039
56578SOL    HW271509  11.402  12.911  10.941
56579SOL     OW71510  13.668   5.456   4.649
56579SOL    HW171511  13.590   5.510   4.662
56579SOL    HW271512  13.639   5.367   4.668
56580SOL     OW71513  12.951  10.771   0.043
56580SOL    HW171514  12.921  10.852   0.001
56580SOL    HW271515  13.018  10.737  14.861
56581SOL     OW71516   3.736   5.176   4.260
56581SOL    HW171517   3.748   5.261   4.303
56581SOL    HW271518   3.716   5.116   4.332
56582SOL     OW71519  13.840   8.217  12.297
56582SOL    HW171520  13.930   8.249  12.303
56582SOL    HW271521  13.788   8.285  12.340
56583SOL     OW71522   3.614   6.359  11.458
56583SOL    HW171523   3.645   6.435  11.407
56583SOL    HW271524   3.523   6.348  11.429
56584SOL     OW71525   3.735   8.830   7.945
56584SOL    HW171526   3.749   8.781   7.863
56584SOL    HW271527   3.804   8.897   7.944
56585SOL     OW71528  10.111   8.037  14.654
56585SOL    HW171529  10.044   8.051  14.587
56585SOL    HW271530  10.129   7.943  14.650
56586SOL     OW71531   9.241   9.782   5.872
56586SOL    HW171532   9.250   9.874   5.848
56586SOL    HW271533   9.228   9.784   5.967
56587SOL     OW71534  13.180   0.690   3.107
56587SOL    HW171535  13.161   0.636   3.184
56587SOL    HW271536  13.248   0.751   3.137
56588SOL     OW71537   4.900   5.399   1.846
56588SOL    HW171538   4.844   5.476   1.856
56588SOL    HW271539   4.917   5.370   1.936
56589SOL     OW71540   3.818   7.585  11.405
56589SOL    HW171541   3.882   7.655  11.397
56589SOL    HW271542   3.864   7.506  11.375
56590SOL     OW71543   4.481   0.843   7.799
56590SOL    HW171544   4.467   0.894   7.880
56590SOL    HW271545   4.479   0.908   7.729
56591SOL     OW71546  12.545   9.974  10.835
56591SOL    HW171547  12.580   9.890  10.806
56591SOL    HW271548  12.450   9.964  10.831
56592SOL     OW71549   8.248  12.305  12.227
56592SOL    HW171550   8.332  12.284  12.270
56592SOL    HW271551   8.256  12.265  12.140
56593SOL     OW71552  14.324   5.937   4.450
56593SOL    HW171553  14.316   5.932   4.546
56593SOL    HW271554  14.234   5.946   4.419
56594SOL     OW71555   6.560   5.363  11.772
56594SOL    HW171556   6.476   5.390  11.734
56594SOL    HW271557   6.587   5.438  11.825
56595SOL     OW71558   9.969  12.126   7.778
56595SOL    HW171559   9.921  12.071   7.715
56595SOL    HW271560   9.989  12.066   7.850
56596SOL     OW71561   1.885   6.458   0.339
56596SOL    HW171562   1.903   6.541   0.295
56596SOL    HW271563   1.790   6.448   0.335
56597SOL     OW71564   2.012   2.456   9.304
56597SOL    HW171565   2.007   2.369   9.343
56597SOL    HW271566   2.077   2.503   9.357
56598SOL     OW71567   4.327  13.315   6.509
56598SOL    HW171568   4.264  13.314   6.581
56598SOL    HW271569   4.280  13.275   6.435
56599SOL     OW71570   8.399  13.189  14.538
56599SOL    HW171571   8.428  13.101  14.562
56599SOL    HW271572   8.471  13.246  14.562
56600SOL     OW71573   5.034   8.547   5.870
56600SOL    HW171574   5.119   8.585   5.891
56600SOL    HW271575   5.046   8.453   5.883
56601SOL     OW71576   6.879   8.981   6.925
56601SOL    HW171577   6.956   8.924   6.924
56601SOL    HW271578   6.902   9.054   6.868
56602SOL     OW71579  11.198  13.663   7.499
56602SOL    HW171580  11.210  13.672   7.593
56602SOL    HW271581  11.175  13.751   7.469
56603SOL     OW71582  10.965   5.144  11.725
56603SOL    HW171583  11.022   5.166  11.799
56603SOL    HW271584  10.970   5.220  11.667
56604SOL     OW71585   4.293   2.521   6.733
56604SOL    HW171586   4.364   2.552   6.676
56604SOL    HW271587   4.220   2.580   6.714
56605SOL     OW71588   5.579   3.590  12.249
56605SOL    HW171589   5.591   3.617  12.340
56605SOL    HW271590   5.485   3.571  12.241
56606SOL     OW71591   4.657   3.562   5.702
56606SOL    HW171592   4.629   3.495   5.641
56606SOL    HW271593   4.751   3.545   5.715
56607SOL     OW71594   0.891   7.576  12.449
56607SOL    HW171595   0.928   7.664  12.455
56607SOL    HW271596   0.821   7.584  12.385
56608SOL     OW71597   5.450   4.625  10.758
56608SOL    HW171598   5.490   4.696  10.807
56608SOL    HW271599   5.392   4.668  10.695
56609SOL     OW71600   0.618   1.809   3.944
56609SOL    HW171601   0.615   1.894   3.900
56609SOL    HW271602   0.536   1.767   3.920
56610SOL     OW71603   7.832   6.320  10.626
56610SOL    HW171604   7.854   6.298  10.536
56610SOL    HW271605   7.760   6.383  10.619
56611SOL     OW71606  12.940  12.033   4.466
56611SOL    HW171607  13.021  12.066   4.507
56611SOL    HW271608  12.929  12.087   4.388
56612SOL     OW71609  13.133  11.283   6.180
56612SOL    HW171610  13.110  11.203   6.133
56612SOL    HW271611  13.051  11.313   6.219
56613SOL     OW71612  11.206   8.720   0.048
56613SOL    HW171613  11.268   8.716   0.121
56613SOL    HW271614  11.245   8.783  14.864
56614SOL     OW71615   1.172  12.702   7.339
56614SOL    HW171616   1.180  12.607   7.335
56614SOL    HW271617   1.148  12.728   7.250
56615SOL     OW71618  13.377   7.761   4.838
56615SOL    HW171619  13.401   7.713   4.759
56615SOL    HW271620  13.305   7.817   4.812
56616SOL     OW71621  14.483  10.705   9.976
56616SOL    HW171622  14.570  10.681   9.945
56616SOL    HW271623  14.499  10.762  10.051
56617SOL     OW71624   5.050   3.499   8.231
56617SOL    HW171625   5.003   3.417   8.217
56617SOL    HW271626   5.140   3.480   8.205
56618SOL     OW71627   0.980  11.938   1.056
56618SOL    HW171628   0.891  11.937   1.091
56618SOL    HW271629   0.969  11.954   0.962
56619SOL     OW71630   6.842   5.806   3.867
56619SOL    HW171631   6.806   5.757   3.793
56619SOL    HW271632   6.861   5.893   3.831
56620SOL     OW71633  10.857  13.590  11.338
56620SOL    HW171634  10.772  13.556  11.363
56620SOL    HW271635  10.908  13.588  11.419
56621SOL     OW71636   3.749   0.155  12.266
56621SOL    HW171637   3.743   0.115  12.352
56621SOL    HW271638   3.675   0.119  12.217
56622SOL     OW71639   0.194   7.634  12.576
56622SOL    HW171640   0.211   7.726  12.558
56622SOL    HW271641   0.236   7.618  12.660
56623SOL     OW71642   3.245  10.418   3.940
56623SOL    HW171643   3.284  10.495   3.899
56623SOL    HW271644   3.298  10.403   4.018
56624SOL     OW71645   7.968  14.396   6.836
56624SOL    HW171646   7.945  14.379   6.927
56624SOL    HW271647   8.023  14.474   6.839
56625SOL     OW71648   4.705  13.768   9.331
56625SOL    HW171649   4.775  13.734   9.387
56625SOL    HW271650   4.649  13.693   9.314
56626SOL     OW71651   2.489   9.858   0.862
56626SOL    HW171652   2.581   9.843   0.839
56626SOL    HW271653   2.445   9.775   0.843
56627SOL     OW71654   3.354  14.345   7.157
56627SOL    HW171655   3.446  14.341   7.184
56627SOL    HW271656   3.307  14.367   7.237
56628SOL     OW71657   6.170   2.840   4.161
56628SOL    HW171658   6.192   2.933   4.173
56628SOL    HW271659   6.138   2.834   4.072
56629SOL     OW71660   2.933  13.673   2.219
56629SOL    HW171661   2.859  13.645   2.164
56629SOL    HW271662   2.972  13.591   2.249
56630SOL     OW71663   2.756   1.905  13.174
56630SOL    HW171664   2.741   1.952  13.255
56630SOL    HW271665   2.669   1.899  13.133
56631SOL     OW71666   4.489  10.927   0.212
56631SOL    HW171667   4.445  11.012   0.213
56631SOL    HW271668   4.417  10.863   0.214
56632SOL     OW71669  12.889   0.958  12.286
56632SOL    HW171670  12.976   0.999  12.292
56632SOL    HW271671  12.852   0.969  12.374
56633SOL     OW71672   0.110   9.377   2.570
56633SOL    HW171673   0.134   9.287   2.547
56633SOL    HW271674   0.167   9.398   2.644
56634SOL     OW71675   0.239   0.170   7.568
56634SOL    HW171676   0.165   0.110   7.565
56634SOL    HW271677   0.213   0.244   7.513
56635SOL     OW71678   6.798   0.013   1.113
56635SOL    HW171679   6.842   0.031   1.029
56635SOL    HW271680   6.793   0.098   1.156
56636SOL     OW71681   6.333   0.545   9.836
56636SOL    HW171682   6.425   0.572   9.834
56636SOL    HW271683   6.284   0.626   9.834
56637SOL     OW71684  12.508   9.731  12.053
56637SOL    HW171685  12.425   9.752  12.010
56637SOL    HW271686  12.488   9.653  12.105
56638SOL     OW71687   2.991   7.762   8.316
56638SOL    HW171688   3.084   7.774   8.295
56638SOL    HW271689   2.947   7.832   8.267
56639SOL     OW71690   2.757   0.673   4.392
56639SOL    HW171691   2.826   0.728   4.355
56639SOL    HW271692   2.802   0.618   4.457
56640SOL     OW71693   3.880   8.102   0.786
56640SOL    HW171694   3.904   8.103   0.694
56640SOL    HW271695   3.938   8.036   0.825
56641SOL     OW71696   0.995  13.319   4.698
56641SOL    HW171697   0.947  13.268   4.763
56641SOL    HW271698   1.069  13.356   4.747
56642SOL     OW71699   3.640   8.978  11.946
56642SOL    HW171700   3.733   8.996  11.931
56642SOL    HW271701   3.639   8.915  12.018
56643SOL     OW71702   6.991   0.259   9.419
56643SOL    HW171703   7.076   0.276   9.459
56643SOL    HW271704   7.002   0.288   9.328
56644SOL     OW71705  14.638   2.601   8.093
56644SOL    HW171706  14.727   2.609   8.128
56644SOL    HW271707  14.647   2.546   8.015
56645SOL     OW71708  10.079  11.540  12.868
56645SOL    HW171709  10.168  11.567  12.846
56645SOL    HW271710  10.043  11.507  12.786
56646SOL     OW71711   2.220   7.234  11.659
56646SOL    HW171712   2.275   7.209  11.585
56646SOL    HW271713   2.230   7.162  11.722
56647SOL     OW71714  14.613   7.516   8.066
56647SOL    HW171715  14.616   7.563   8.149
56647SOL    HW271716  14.661   7.435   8.082
56648SOL     OW71717   8.843   7.128   3.261
56648SOL    HW171718   8.856   7.202   3.201
56648SOL    HW271719   8.748   7.115   3.263
56649SOL     OW71720  10.738   9.262  13.075
56649SOL    HW171721  10.796   9.187  13.064
56649SOL    HW271722  10.653   9.232  13.043
56650SOL     OW71723   0.540  11.506   4.569
56650SOL    HW171724   0.598  11.530   4.640
56650SOL    HW271725   0.556  11.413   4.554
56651SOL     OW71726   7.445   7.008   7.823
56651SOL    HW171727   7.369   6.951   7.838
56651SOL    HW271728   7.520   6.948   7.824
56652SOL     OW71729   7.032  14.178   7.249
56652SOL    HW171730   6.986  14.256   7.219
56652SOL    HW271731   6.967  14.108   7.242
56653SOL     OW71732   5.009   8.659  11.221
56653SOL    HW171733   5.019   8.753  11.209
56653SOL    HW271734   4.980   8.650  11.312
56654SOL     OW71735   0.939   0.983   4.456
56654SOL    HW171736   0.900   1.003   4.371
56654SOL    HW271737   0.940   1.068   4.502
56655SOL     OW71738  10.390   7.809   7.492
56655SOL    HW171739  10.298   7.829   7.509
56655SOL    HW271740  10.408   7.733   7.549
56656SOL     OW71741   8.315  10.970   1.496
56656SOL    HW171742   8.284  10.944   1.409
56656SOL    HW271743   8.311  10.889   1.547
56657SOL     OW71744   3.788   0.715   9.670
56657SOL    HW171745   3.883   0.725   9.679
56657SOL    HW271746   3.771   0.623   9.690
56658SOL     OW71747   4.019   5.029   7.232
56658SOL    HW171748   3.945   5.068   7.184
56658SOL    HW271749   3.987   5.019   7.322
56659SOL     OW71750   3.588   1.829   8.947
56659SOL    HW171751   3.614   1.899   8.887
56659SOL    HW271752   3.670   1.797   8.984
56660SOL     OW71753  13.528   2.540   3.453
56660SOL    HW171754  13.439   2.534   3.488
56660SOL    HW271755  13.552   2.450   3.433
56661SOL     OW71756   0.625   9.377   2.319
56661SOL    HW171757   0.594   9.410   2.235
56661SOL    HW271758   0.571   9.300   2.337
56662SOL     OW71759   5.661   4.149  14.110
56662SOL    HW171760   5.613   4.084  14.059
56662SOL    HW271761   5.593   4.200  14.154
56663SOL     OW71762   1.651   3.127   2.559
56663SOL    HW171763   1.651   3.218   2.529
56663SOL    HW271764   1.561   3.112   2.589
56664SOL     OW71765  12.899   4.086   6.629
56664SOL    HW171766  12.953   4.017   6.590
56664SOL    HW271767  12.962   4.152   6.660
56665SOL     OW71768   5.922  14.678  12.612
56665SOL    HW171769   5.972  14.611  12.565
56665SOL    HW271770   5.987  14.745  12.633
56666SOL     OW71771   0.832   9.910   7.046
56666SOL    HW171772   0.814   9.904   6.952
56666SOL    HW271773   0.872   9.997   7.057
56667SOL     OW71774   4.116   8.171   3.801
56667SOL    HW171775   4.099   8.080   3.822
56667SOL    HW271776   4.079   8.183   3.713
56668SOL     OW71777   5.799   8.315  14.497
56668SOL    HW171778   5.828   8.224  14.489
56668SOL    HW271779   5.748   8.331  14.418
56669SOL     OW71780   0.112  13.197  10.328
56669SOL    HW171781   0.040  13.257  10.345
56669SOL    HW271782   0.117  13.193  10.232
56670SOL     OW71783   4.112   6.352   8.203
56670SOL    HW171784   4.045   6.284   8.213
56670SOL    HW271785   4.091   6.394   8.120
56671SOL     OW71786   7.194   8.892   9.966
56671SOL    HW171787   7.182   8.956   9.896
56671SOL    HW271788   7.135   8.820   9.943
56672SOL     OW71789   2.322   6.858  13.049
56672SOL    HW171790   2.291   6.767  13.053
56672SOL    HW271791   2.247   6.907  13.016
56673SOL     OW71792   3.470  10.007   9.963
56673SOL    HW171793   3.505  10.094   9.945
56673SOL    HW271794   3.544   9.958   9.998
56674SOL     OW71795   0.631   5.057   4.748
56674SOL    HW171796   0.543   5.046   4.714
56674SOL    HW271797   0.680   5.095   4.675
56675SOL     OW71798  11.328   3.509   8.214
56675SOL    HW171799  11.423   3.518   8.218
56675SOL    HW271800  11.297   3.550   8.295
56676SOL     OW71801  14.570   4.948   5.789
56676SOL    HW171802  14.576   4.855   5.809
56676SOL    HW271803  14.575   4.952   5.694
56677SOL     OW71804   1.662   0.041  11.630
56677SOL    HW171805   1.698   0.108  11.573
56677SOL    HW271806   1.600   0.087  11.686
56678SOL     OW71807   0.610  14.082  11.569
56678SOL    HW171808   0.526  14.128  11.574
56678SOL    HW271809   0.585  13.989  11.565
56679SOL     OW71810  12.014   8.414   4.318
56679SOL    HW171811  12.050   8.448   4.236
56679SOL    HW271812  12.076   8.346   4.345
56680SOL     OW71813   3.628   9.442   4.249
56680SOL    HW171814   3.626   9.451   4.344
56680SOL    HW271815   3.667   9.356   4.234
56681SOL     OW71816  14.811  10.545   5.116
56681SOL    HW171817   0.027  10.544   5.137
56681SOL    HW271818  14.808  10.534   5.021
56682SOL     OW71819   5.790   1.429  11.010
56682SOL    HW171820   5.864   1.404  10.955
56682SOL    HW271821   5.827   1.486  11.077
56683SOL     OW71822  12.635   3.547  13.277
56683SOL    HW171823  12.618   3.530  13.369
56683SOL    HW271824  12.730   3.540  13.268
56684SOL     OW71825  10.582  12.763   0.484
56684SOL    HW171826  10.645  12.826   0.521
56684SOL    HW271827  10.633  12.712   0.422
56685SOL     OW71828  11.482   8.040   5.912
56685SOL    HW171829  11.538   8.000   5.846
56685SOL    HW271830  11.448   7.967   5.964
56686SOL     OW71831   2.766  13.638   0.681
56686SOL    HW171832   2.839  13.589   0.720
56686SOL    HW271833   2.730  13.688   0.755
56687SOL     OW71834   7.008   1.945   2.203
56687SOL    HW171835   7.099   1.972   2.215
56687SOL    HW271836   6.979   1.993   2.125
56688SOL     OW71837   2.828   5.209  11.396
56688SOL    HW171838   2.901   5.152  11.420
56688SOL    HW271839   2.851   5.294  11.434
56689SOL     OW71840   7.951   4.144   5.358
56689SOL    HW171841   7.968   4.051   5.342
56689SOL    HW271842   8.039   4.183   5.366
56690SOL     OW71843  13.832   6.656   4.450
56690SOL    HW171844  13.834   6.647   4.545
56690SOL    HW271845  13.742   6.634   4.425
56691SOL     OW71846  11.171   1.100  14.265
56691SOL    HW171847  11.220   1.057  14.335
56691SOL    HW271848  11.213   1.186  14.257
56692SOL     OW71849  11.002   1.336  14.858
56692SOL    HW171850  10.940   1.336  14.785
56692SOL    HW271851  10.964   1.276   0.044
56693SOL     OW71852   0.121   6.495   7.802
56693SOL    HW171853   0.145   6.576   7.847
56693SOL    HW271854   0.132   6.427   7.868
56694SOL     OW71855   0.016  11.481   5.996
56694SOL    HW171856   0.094  11.525   6.029
56694SOL    HW271857   0.024  11.484   5.901
56695SOL     OW71858   3.494  14.669   9.209
56695SOL    HW171859   3.442  14.592   9.231
56695SOL    HW271860   3.454  14.741   9.258
56696SOL     OW71861   1.706   5.696  11.364
56696SOL    HW171862   1.689   5.608  11.397
56696SOL    HW271863   1.730   5.746  11.442
56697SOL     OW71864   0.625   3.571   4.267
56697SOL    HW171865   0.610   3.498   4.207
56697SOL    HW271866   0.595   3.648   4.220
56698SOL     OW71867  10.293   3.259  11.418
56698SOL    HW171868  10.330   3.347  11.425
56698SOL    HW271869  10.369   3.201  11.411
56699SOL     OW71870  13.224   3.302   5.850
56699SOL    HW171871  13.245   3.216   5.814
56699SOL    HW271872  13.282   3.362   5.805
56700SOL     OW71873  10.689   2.567   7.112
56700SOL    HW171874  10.713   2.641   7.167
56700SOL    HW271875  10.722   2.490   7.159
56701SOL     OW71876   7.166   7.026   2.043
56701SOL    HW171877   7.193   6.966   2.113
56701SOL    HW271878   7.230   7.011   1.973
56702SOL     OW71879   7.959   8.428   8.142
56702SOL    HW171880   8.026   8.375   8.185
56702SOL    HW271881   7.988   8.518   8.154
56703SOL     OW71882   8.285   5.056  11.840
56703SOL    HW171883   8.367   5.008  11.832
56703SOL    HW271884   8.219   4.987  11.853
56704SOL     OW71885   1.757  13.946   8.091
56704SOL    HW171886   1.754  14.041   8.086
56704SOL    HW271887   1.738  13.926   8.183
56705SOL     OW71888  13.883   2.503   7.596
56705SOL    HW171889  13.857   2.530   7.684
56705SOL    HW271890  13.827   2.428   7.577
56706SOL     OW71891   3.979   6.159   6.872
56706SOL    HW171892   4.008   6.108   6.948
56706SOL    HW271893   4.021   6.244   6.883
56707SOL     OW71894  13.476  10.934   1.808
56707SOL    HW171895  13.427  10.887   1.875
56707SOL    HW271896  13.411  10.990   1.766
56708SOL     OW71897   3.997   7.680  12.800
56708SOL    HW171898   3.945   7.755  12.770
56708SOL    HW271899   3.967   7.666  12.890
56709SOL     OW71900  11.168   4.034   1.492
56709SOL    HW171901  11.077   4.007   1.496
56709SOL    HW271902  11.215   3.966   1.540
56710SOL     OW71903  10.373   3.152   6.486
56710SOL    HW171904  10.365   3.247   6.492
56710SOL    HW271905  10.449   3.131   6.540
56711SOL     OW71906  10.817   5.341   8.039
56711SOL    HW171907  10.785   5.251   8.040
56711SOL    HW271908  10.760   5.386   7.977
56712SOL     OW71909  11.633  13.526   1.819
56712SOL    HW171910  11.579  13.569   1.752
56712SOL    HW271911  11.618  13.578   1.898
56713SOL     OW71912  12.372  11.694  10.370
56713SOL    HW171913  12.352  11.786  10.391
56713SOL    HW271914  12.387  11.653  10.456
56714SOL     OW71915   9.924  10.709   0.683
56714SOL    HW171916   9.860  10.641   0.705
56714SOL    HW271917   9.898  10.785   0.735
56715SOL     OW71918   2.222   5.454   3.373
56715SOL    HW171919   2.276   5.511   3.427
56715SOL    HW271920   2.248   5.365   3.396
56716SOL     OW71921  11.613  13.719   5.524
56716SOL    HW171922  11.536  13.707   5.468
56716SOL    HW271923  11.623  13.636   5.569
56717SOL     OW71924   9.498  13.401   7.142
56717SOL    HW171925   9.485  13.341   7.069
56717SOL    HW271926   9.534  13.347   7.212
56718SOL     OW71927   8.714   2.340   4.770
56718SOL    HW171928   8.652   2.394   4.819
56718SOL    HW271929   8.738   2.393   4.694
56719SOL     OW71930   7.941   1.154   1.380
56719SOL    HW171931   7.981   1.162   1.466
56719SOL    HW271932   7.901   1.239   1.364
56720SOL     OW71933   0.280   9.621   6.712
56720SOL    HW171934   0.240   9.606   6.627
56720SOL    HW271935   0.329   9.541   6.730
56721SOL     OW71936   3.763   2.220   0.125
56721SOL    HW171937   3.686   2.175   0.159
56721SOL    HW271938   3.813   2.243   0.203
56722SOL     OW71939  11.909   6.894  11.378
56722SOL    HW171940  11.817   6.875  11.397
56722SOL    HW271941  11.948   6.911  11.464
56723SOL     OW71942   8.275  13.410   4.568
56723SOL    HW171943   8.334  13.390   4.640
56723SOL    HW271944   8.323  13.382   4.490
56724SOL     OW71945   3.936  10.496  11.332
56724SOL    HW171946   4.023  10.528  11.353
56724SOL    HW271947   3.877  10.566  11.361
56725SOL     OW71948   4.391   7.656   5.347
56725SOL    HW171949   4.306   7.670   5.389
56725SOL    HW271950   4.446   7.728   5.377
56726SOL     OW71951   1.423   2.769  12.931
56726SOL    HW171952   1.352   2.714  12.962
56726SOL    HW271953   1.413   2.771  12.836
56727SOL     OW71954  13.309   6.890   7.831
56727SOL    HW171955  13.278   6.811   7.876
56727SOL    HW271956  13.242   6.955   7.850
56728SOL     OW71957  14.644   5.255   5.250
56728SOL    HW171958  14.585   5.181   5.265
56728SOL    HW271959  14.668   5.249   5.158
56729SOL     OW71960   5.982   8.724   8.347
56729SOL    HW171961   5.979   8.778   8.269
56729SOL    HW271962   6.049   8.658   8.327
56730SOL     OW71963   7.957  12.276  14.455
56730SOL    HW171964   7.996  12.288  14.368
56730SOL    HW271965   7.935  12.365  14.483
56731SOL     OW71966  14.069  13.700   4.948
56731SOL    HW171967  14.065  13.790   4.916
56731SOL    HW271968  14.015  13.651   4.887
56732SOL     OW71969   5.085   3.666  13.160
56732SOL    HW171970   5.044   3.621  13.234
56732SOL    HW271971   5.122   3.746  13.198
56733SOL     OW71972   7.579  13.145   8.021
56733SOL    HW171973   7.587  13.052   8.000
56733SOL    HW271974   7.662  13.168   8.063
56734SOL     OW71975   3.441   3.196  13.619
56734SOL    HW171976   3.445   3.197  13.714
56734SOL    HW271977   3.501   3.125  13.593
56735SOL     OW71978   4.320   9.801  10.231
56735SOL    HW171979   4.396   9.743  10.226
56735SOL    HW271980   4.326   9.839  10.319
56736SOL     OW71981  13.857   8.787   3.972
56736SOL    HW171982  13.929   8.753   4.026
56736SOL    HW271983  13.896   8.861   3.926
56737SOL     OW71984   8.396   8.300   2.724
56737SOL    HW171985   8.324   8.337   2.775
56737SOL    HW271986   8.408   8.212   2.760
56738SOL     OW71987   2.864   0.303   5.435
56738SOL    HW171988   2.836   0.366   5.501
56738SOL    HW271989   2.945   0.339   5.399
56739SOL     OW71990   8.257   2.107   7.377
56739SOL    HW171991   8.342   2.117   7.420
56739SOL    HW271992   8.277   2.057   7.297
56740SOL     OW71993  11.827  11.854   3.851
56740SOL    HW171994  11.745  11.867   3.803
56740SOL    HW271995  11.820  11.767   3.888
56741SOL     OW71996   4.028   6.676   7.087
56741SOL    HW171997   4.079   6.707   7.012
56741SOL    HW271998   3.959   6.622   7.048
56742SOL     OW71999   9.965  12.717   9.102
56742SOL    HW172000  10.000  12.694   9.189
56742SOL    HW272001   9.984  12.810   9.092
56743SOL     OW72002   3.939   3.600   7.950
56743SOL    HW172003   3.890   3.534   7.998
56743SOL    HW272004   3.875   3.642   7.892
56744SOL     OW72005  13.121  11.327   7.437
56744SOL    HW172006  13.209  11.364   7.435
56744SOL    HW272007  13.077  11.365   7.360
56745SOL     OW72008   5.061   7.105   6.145
56745SOL    HW172009   5.007   7.029   6.125
56745SOL    HW272010   5.045   7.165   6.072
56746SOL     OW72011   0.675  11.908  12.659
56746SOL    HW172012   0.653  12.001  12.653
56746SOL    HW272013   0.617  11.874  12.728
56747SOL     OW72014   0.690   0.073  10.809
56747SOL    HW172015   0.707  14.865  10.772
56747SOL    HW272016   0.695   0.059  10.904
56748SOL     OW72017  11.048   1.004   2.421
56748SOL    HW172018  11.077   1.087   2.459
56748SOL    HW272019  11.123   0.946   2.431
56749SOL     OW72020  10.159   9.577   0.194
56749SOL    HW172021  10.077   9.623   0.210
56749SOL    HW272022  10.223   9.622   0.249
56750SOL     OW72023   9.567   1.411   5.618
56750SOL    HW172024   9.506   1.447   5.554
56750SOL    HW272025   9.653   1.424   5.579
56751SOL     OW72026   9.996   2.742   6.174
56751SOL    HW172027   9.993   2.676   6.243
56751SOL    HW272028  10.088   2.770   6.171
56752SOL     OW72029   6.763  12.344  14.238
56752SOL    HW172030   6.756  12.253  14.268
56752SOL    HW272031   6.856  12.366  14.250
56753SOL     OW72032   2.368   1.447   0.779
56753SOL    HW172033   2.394   1.404   0.698
56753SOL    HW272034   2.308   1.385   0.820
56754SOL     OW72035   7.003   2.630   4.923
56754SOL    HW172036   6.963   2.606   5.006
56754SOL    HW272037   7.097   2.634   4.941
56755SOL     OW72038  10.879   2.402   9.563
56755SOL    HW172039  10.953   2.342   9.568
56755SOL    HW272040  10.910   2.476   9.511
56756SOL     OW72041  11.022   9.598   8.281
56756SOL    HW172042  10.968   9.662   8.328
56756SOL    HW272043  11.110   9.609   8.318
56757SOL     OW72044   0.805   1.127   1.256
56757SOL    HW172045   0.782   1.215   1.286
56757SOL    HW272046   0.893   1.136   1.221
56758SOL     OW72047  14.166  10.593   9.504
56758SOL    HW172048  14.243  10.609   9.449
56758SOL    HW272049  14.163  10.498   9.515
56759SOL     OW72050  11.210   7.657   2.013
56759SOL    HW172051  11.305   7.655   2.001
56759SOL    HW272052  11.198   7.646   2.108
56760SOL     OW72053   2.084  10.471   5.602
56760SOL    HW172054   2.166  10.446   5.645
56760SOL    HW272055   2.104  10.555   5.559
56761SOL     OW72056  13.903   5.756   8.687
56761SOL    HW172057  13.976   5.803   8.728
56761SOL    HW272058  13.861   5.710   8.759
56762SOL     OW72059  12.708  11.829  12.792
56762SOL    HW172060  12.752  11.774  12.727
56762SOL    HW272061  12.671  11.767  12.855
56763SOL     OW72062   2.230   6.351   2.849
56763SOL    HW172063   2.157   6.347   2.910
56763SOL    HW272064   2.308   6.356   2.904
56764SOL     OW72065   9.411  14.454   9.870
56764SOL    HW172066   9.497  14.445   9.913
56764SOL    HW272067   9.370  14.369   9.883
56765SOL     OW72068   5.014  13.133   5.194
56765SOL    HW172069   4.921  13.131   5.215
56765SOL    HW272070   5.036  13.043   5.172
56766SOL     OW72071   9.733  11.971   5.988
56766SOL    HW172072   9.655  12.024   5.973
56766SOL    HW272073   9.716  11.889   5.943
56767SOL     OW72074   2.081   3.481   2.008
56767SOL    HW172075   2.139   3.405   2.003
56767SOL    HW272076   2.108   3.537   1.935
56768SOL     OW72077  12.483   7.238  11.139
56768SOL    HW172078  12.402   7.266  11.182
56768SOL    HW272079  12.458   7.162  11.087
56769SOL     OW72080  12.286   4.234   7.607
56769SOL    HW172081  12.377   4.259   7.592
56769SOL    HW272082  12.282   4.142   7.579
56770SOL     OW72083  12.566   7.290   2.928
56770SOL    HW172084  12.614   7.337   2.996
56770SOL    HW272085  12.560   7.352   2.856
56771SOL     OW72086  11.427   9.453   5.010
56771SOL    HW172087  11.339   9.465   4.974
56771SOL    HW272088  11.425   9.499   5.094
56772SOL     OW72089  13.333   0.559   5.075
56772SOL    HW172090  13.267   0.585   5.140
56772SOL    HW272091  13.315   0.615   5.000
56773SOL     OW72092   8.727  10.803   7.118
56773SOL    HW172093   8.759  10.825   7.205
56773SOL    HW272094   8.758  10.874   7.062
56774SOL     OW72095  14.748  10.795  10.496
56774SOL    HW172096  14.771  10.864  10.559
56774SOL    HW272097  14.776  10.714  10.539
56775SOL     OW72098  14.146  10.594  10.320
56775SOL    HW172099  14.208  10.666  10.334
56775SOL    HW272100  14.186  10.542  10.250
56776SOL     OW72101  11.715  14.242   9.991
56776SOL    HW172102  11.737  14.180   9.921
56776SOL    HW272103  11.630  14.277   9.966
56777SOL     OW72104  10.333   1.758   8.265
56777SOL    HW172105  10.286   1.701   8.204
56777SOL    HW272106  10.426   1.742   8.248
56778SOL     OW72107   6.458  11.366  10.788
56778SOL    HW172108   6.548  11.338  10.773
56778SOL    HW272109   6.456  11.456  10.756
56779SOL     OW72110   1.482   7.730  11.366
56779SOL    HW172111   1.531   7.809  11.390
56779SOL    HW272112   1.503   7.715  11.274
56780SOL     OW72113   4.610   3.890   2.571
56780SOL    HW172114   4.601   3.984   2.584
56780SOL    HW272115   4.559   3.851   2.642
56781SOL     OW72116   1.813  13.091   7.105
56781SOL    HW172117   1.785  13.095   7.014
56781SOL    HW272118   1.905  13.119   7.103
56782SOL     OW72119   3.642   1.153   1.590
56782SOL    HW172120   3.639   1.061   1.618
56782SOL    HW272121   3.725   1.185   1.625
56783SOL     OW72122  11.763  12.199   9.982
56783SOL    HW172123  11.673  12.203   9.951
56783SOL    HW272124  11.789  12.108   9.969
56784SOL     OW72125   2.542   5.075   3.469
56784SOL    HW172126   2.478   5.015   3.508
56784SOL    HW272127   2.581   5.025   3.398
56785SOL     OW72128   9.873   8.888  12.775
56785SOL    HW172129   9.963   8.920  12.784
56785SOL    HW272130   9.840   8.884  12.865
56786SOL     OW72131  14.346  11.725   8.911
56786SOL    HW172132  14.369  11.761   8.997
56786SOL    HW272133  14.422  11.674   8.884
56787SOL     OW72134   4.675   3.378   7.981
56787SOL    HW172135   4.685   3.285   7.997
56787SOL    HW272136   4.596   3.385   7.927
56788SOL     OW72137  13.052   7.652  10.518
56788SOL    HW172138  13.014   7.670  10.432
56788SOL    HW272139  13.107   7.575  10.504
56789SOL     OW72140  10.045  12.037   4.487
56789SOL    HW172141  10.041  11.957   4.539
56789SOL    HW272142   9.986  12.098   4.530
56790SOL     OW72143   7.082   0.703   9.737
56790SOL    HW172144   7.149   0.770   9.747
56790SOL    HW272145   7.039   0.724   9.654
56791SOL     OW72146  10.002   0.881   0.749
56791SOL    HW172147  10.075   0.889   0.689
56791SOL    HW272148  10.015   0.797   0.793
56792SOL     OW72149   2.072   2.283  11.032
56792SOL    HW172150   2.097   2.228  10.958
56792SOL    HW272151   2.147   2.340  11.046
56793SOL     OW72152  12.985  10.462   8.454
56793SOL    HW172153  12.910  10.417   8.414
56793SOL    HW272154  13.031  10.393   8.503
56794SOL     OW72155  12.092  11.901   0.517
56794SOL    HW172156  12.069  11.814   0.548
56794SOL    HW272157  12.110  11.890   0.424
56795SOL     OW72158   3.145   5.813  11.698
56795SOL    HW172159   3.199   5.800  11.620
56795SOL    HW272160   3.076   5.747  11.691
56796SOL     OW72161   3.853   8.025   2.371
56796SOL    HW172162   3.764   8.051   2.349
56796SOL    HW272163   3.899   8.024   2.287
56797SOL     OW72164   4.419   2.394  10.828
56797SOL    HW172165   4.467   2.412  10.909
56797SOL    HW272166   4.478   2.338  10.778
56798SOL     OW72167   5.816   0.208   3.553
56798SOL    HW172168   5.857   0.212   3.640
56798SOL    HW272169   5.850   0.285   3.508
56799SOL     OW72170   5.415  10.500  12.174
56799SOL    HW172171   5.359  10.423  12.161
56799SOL    HW272172   5.433  10.531  12.085
56800SOL     OW72173   9.514  12.596  12.370
56800SOL    HW172174   9.474  12.575  12.285
56800SOL    HW272175   9.604  12.618  12.350
56801SOL     OW72176  13.378   0.728  13.807
56801SOL    HW172177  13.434   0.803  13.788
56801SOL    HW272178  13.301   0.767  13.850
56802SOL     OW72179   9.426   1.391   1.135
56802SOL    HW172180   9.341   1.384   1.178
56802SOL    HW272181   9.406   1.432   1.051
56803SOL     OW72182  14.786  12.823  12.026
56803SOL    HW172183  14.731  12.889  11.983
56803SOL    HW272184  14.796  12.856  12.115
56804SOL     OW72185  14.517  11.841   1.816
56804SOL    HW172186  14.439  11.866   1.767
56804SOL    HW272187  14.558  11.773   1.763
56805SOL     OW72188   5.020   8.983  12.794
56805SOL    HW172189   4.949   8.958  12.852
56805SOL    HW272190   5.066   9.053  12.841
56806SOL     OW72191   3.036   0.348   2.106
56806SOL    HW172192   3.043   0.317   2.016
56806SOL    HW272193   3.112   0.311   2.150
56807SOL     OW72194   0.636   2.292   5.107
56807SOL    HW172195   0.573   2.221   5.109
56807SOL    HW272196   0.689   2.275   5.028
56808SOL     OW72197  12.587   3.429  14.029
56808SOL    HW172198  12.592   3.431  13.933
56808SOL    HW272199  12.573   3.336  14.050
56809SOL     OW72200   3.598   8.441   5.959
56809SOL    HW172201   3.578   8.393   6.039
56809SOL    HW272202   3.527   8.505   5.951
56810SOL     OW72203   5.082  10.711   8.285
56810SOL    HW172204   5.113  10.792   8.245
56810SOL    HW272205   5.030  10.669   8.216
56811SOL     OW72206   9.327   5.408   6.391
56811SOL    HW172207   9.322   5.345   6.320
56811SOL    HW272208   9.348   5.491   6.348
56812SOL     OW72209   6.126  12.954   6.072
56812SOL    HW172210   6.079  12.878   6.037
56812SOL    HW272211   6.215  12.923   6.084
56813SOL     OW72212   7.350  10.855   9.828
56813SOL    HW172213   7.278  10.794   9.843
56813SOL    HW272214   7.407  10.810   9.765
56814SOL     OW72215  10.435   9.960  12.094
56814SOL    HW172216  10.449   9.893  12.028
56814SOL    HW272217  10.387  10.030  12.049
56815SOL     OW72218   5.887  14.113   9.668
56815SOL    HW172219   5.922  14.199   9.645
56815SOL    HW272220   5.945  14.050   9.625
56816SOL     OW72221   6.602   4.417   0.469
56816SOL    HW172222   6.537   4.445   0.533
56816SOL    HW272223   6.645   4.498   0.441
56817SOL     OW72224  13.829   1.059  14.142
56817SOL    HW172225  13.765   1.128  14.161
56817SOL    HW272226  13.893   1.101  14.085
56818SOL     OW72227   3.578  13.227  13.310
56818SOL    HW172228   3.542  13.291  13.372
56818SOL    HW272229   3.583  13.146  13.360
56819SOL     OW72230  10.950  10.570   0.157
56819SOL    HW172231  10.925  10.506   0.225
56819SOL    HW272232  10.931  10.655   0.196
56820SOL     OW72233   0.707  13.060  10.871
56820SOL    HW172234   0.680  12.969  10.858
56820SOL    HW272235   0.761  13.059  10.950
56821SOL     OW72236   0.045  11.461   8.140
56821SOL    HW172237   0.059  11.416   8.223
56821SOL    HW272238  14.849  11.519   8.156
56822SOL     OW72239   1.017   7.156   2.147
56822SOL    HW172240   1.010   7.222   2.216
56822SOL    HW272241   0.927   7.125   2.133
56823SOL     OW72242   3.138  11.847   2.556
56823SOL    HW172243   3.162  11.778   2.493
56823SOL    HW272244   3.167  11.928   2.514
56824SOL     OW72245  12.270   2.191  12.250
56824SOL    HW172246  12.243   2.099  12.240
56824SOL    HW272247  12.209   2.226  12.315
56825SOL     OW72248   0.689  13.713   5.980
56825SOL    HW172249   0.755  13.733   5.914
56825SOL    HW272250   0.683  13.793   6.032
56826SOL     OW72251  11.394  13.052   9.278
56826SOL    HW172252  11.302  13.036   9.300
56826SOL    HW272253  11.413  12.991   9.207
56827SOL     OW72254   7.804  13.666  14.746
56827SOL    HW172255   7.818  13.745  14.695
56827SOL    HW272256   7.728  13.624  14.706
56828SOL     OW72257   6.351   2.901   3.005
56828SOL    HW172258   6.290   2.851   2.951
56828SOL    HW272259   6.436   2.860   2.990
56829SOL     OW72260   2.614   0.153   2.071
56829SOL    HW172261   2.526   0.117   2.080
56829SOL    HW272262   2.604   0.246   2.092
56830SOL     OW72263   8.748  11.458  13.723
56830SOL    HW172264   8.656  11.475  13.705
56830SOL    HW272265   8.769  11.515  13.797
56831SOL     OW72266   0.157   1.688  13.809
56831SOL    HW172267   0.082   1.642  13.847
56831SOL    HW272268   0.143   1.780  13.831
56832SOL     OW72269  14.760  14.032  13.071
56832SOL    HW172270  14.813  14.111  13.070
56832SOL    HW272271  14.714  14.034  13.154
56833SOL     OW72272  13.938   3.175   1.931
56833SOL    HW172273  13.861   3.220   1.967
56833SOL    HW272274  13.905   3.088   1.906
56834SOL     OW72275   8.054   6.133   0.859
56834SOL    HW172276   7.987   6.099   0.800
56834SOL    HW272277   8.009   6.200   0.910
56835SOL     OW72278  12.574   3.540   6.544
56835SOL    HW172279  12.550   3.630   6.525
56835SOL    HW272280  12.501   3.507   6.597
56836SOL     OW72281   2.104   5.819   8.424
56836SOL    HW172282   2.049   5.741   8.433
56836SOL    HW272283   2.111   5.855   8.512
56837SOL     OW72284  10.952   8.249   0.264
56837SOL    HW172285  11.033   8.298   0.251
56837SOL    HW272286  10.972   8.189   0.336
56838SOL     OW72287   7.231   3.482   5.822
56838SOL    HW172288   7.249   3.458   5.731
56838SOL    HW272289   7.185   3.566   5.817
56839SOL     OW72290   6.204   8.866  12.900
56839SOL    HW172291   6.158   8.933  12.950
56839SOL    HW272292   6.146   8.847  12.826
56840SOL     OW72293   2.952  11.811   8.486
56840SOL    HW172294   2.940  11.899   8.522
56840SOL    HW272295   2.910  11.754   8.551
56841SOL     OW72296  13.887   3.914   1.332
56841SOL    HW172297  13.966   3.922   1.386
56841SOL    HW272298  13.911   3.853   1.263
56842SOL     OW72299  11.574   8.478  11.786
56842SOL    HW172300  11.512   8.543  11.752
56842SOL    HW272301  11.637   8.465  11.716
56843SOL     OW72302   5.082  14.819  12.654
56843SOL    HW172303   5.086  14.772  12.570
56843SOL    HW272304   5.089  14.751  12.720
56844SOL     OW72305  14.615  12.341   4.057
56844SOL    HW172306  14.635  12.378   4.143
56844SOL    HW272307  14.587  12.251   4.076
56845SOL     OW72308   6.889   1.322   9.179
56845SOL    HW172309   6.821   1.257   9.199
56845SOL    HW272310   6.863   1.399   9.229
56846SOL     OW72311   5.547  13.266   9.091
56846SOL    HW172312   5.611  13.291   9.158
56846SOL    HW272313   5.552  13.336   9.026
56847SOL     OW72314  12.795   0.988   1.497
56847SOL    HW172315  12.798   1.075   1.536
56847SOL    HW272316  12.828   1.001   1.408
56848SOL     OW72317   7.426   4.990   6.841
56848SOL    HW172318   7.497   5.013   6.901
56848SOL    HW272319   7.447   5.035   6.760
56849SOL     OW72320   5.745  13.653   2.597
56849SOL    HW172321   5.805  13.622   2.666
56849SOL    HW272322   5.732  13.746   2.617
56850SOL     OW72323  13.134   1.776  13.845
56850SOL    HW172324  13.225   1.749  13.857
56850SOL    HW272325  13.097   1.712  13.785
56851SOL     OW72326   2.762  14.842  12.169
56851SOL    HW172327   2.816  14.803  12.101
56851SOL    HW272328   2.784   0.058  12.166
56852SOL     OW72329  12.437  13.626   1.594
56852SOL    HW172330  12.449  13.553   1.532
56852SOL    HW272331  12.431  13.704   1.538
56853SOL     OW72332   8.222   0.150   8.101
56853SOL    HW172333   8.157   0.174   8.035
56853SOL    HW272334   8.174   0.151   8.184
56854SOL     OW72335  10.445  14.611   8.193
56854SOL    HW172336  10.393  14.600   8.114
56854SOL    HW272337  10.531  14.641   8.161
56855SOL     OW72338  14.729   6.427   6.032
56855SOL    HW172339  14.636   6.420   6.011
56855SOL    HW272340  14.773   6.417   5.947
56856SOL     OW72341   8.743   9.470  12.094
56856SOL    HW172342   8.676   9.429  12.148
56856SOL    HW272343   8.761   9.406  12.025
56857SOL     OW72344   5.061   7.776  10.632
56857SOL    HW172345   5.104   7.692  10.612
56857SOL    HW272346   4.969   7.762  10.610
56858SOL     OW72347   8.290   6.877   0.388
56858SOL    HW172348   8.384   6.890   0.401
56858SOL    HW272349   8.255   6.866   0.476
56859SOL     OW72350  13.548  10.112   2.196
56859SOL    HW172351  13.552  10.051   2.269
56859SOL    HW272352  13.465  10.158   2.207
56860SOL     OW72353  14.095  12.182   0.568
56860SOL    HW172354  14.021  12.226   0.525
56860SOL    HW272355  14.072  12.184   0.661
56861SOL     OW72356   5.947  12.474   9.246
56861SOL    HW172357   5.911  12.394   9.283
56861SOL    HW272358   6.020  12.445   9.191
56862SOL     OW72359  10.373  12.313   6.360
56862SOL    HW172360  10.341  12.224   6.373
56862SOL    HW272361  10.324  12.366   6.423
56863SOL     OW72362  13.640   1.815  13.236
56863SOL    HW172363  13.583   1.796  13.310
56863SOL    HW272364  13.616   1.904  13.209
56864SOL     OW72365   0.091   1.351   3.304
56864SOL    HW172366   0.184   1.328   3.308
56864SOL    HW272367   0.049   1.294   3.369
56865SOL     OW72368   1.473   6.563   0.538
56865SOL    HW172369   1.453   6.602   0.623
56865SOL    HW272370   1.466   6.635   0.475
56866SOL     OW72371   6.824  12.607  14.122
56866SOL    HW172372   6.846  12.514  14.121
56866SOL    HW272373   6.757  12.614  14.190
56867SOL     OW72374   9.649  11.354  11.107
56867SOL    HW172375   9.584  11.301  11.061
56867SOL    HW272376   9.722  11.294  11.123
56868SOL     OW72377   8.382   8.042   1.278
56868SOL    HW172378   8.463   8.092   1.293
56868SOL    HW272379   8.326   8.102   1.229
56869SOL     OW72380  13.896   9.294   4.901
56869SOL    HW172381  13.936   9.380   4.886
56869SOL    HW272382  13.967   9.242   4.939
56870SOL     OW72383   1.699  10.328   6.867
56870SOL    HW172384   1.659  10.412   6.890
56870SOL    HW272385   1.783  10.351   6.829
56871SOL     OW72386   3.745   1.077   9.887
56871SOL    HW172387   3.762   1.171   9.882
56871SOL    HW272388   3.814   1.043   9.944
56872SOL     OW72389   8.590   7.749  11.341
56872SOL    HW172390   8.550   7.801  11.271
56872SOL    HW272391   8.563   7.659  11.322
56873SOL     OW72392   5.310   4.549   3.298
56873SOL    HW172393   5.227   4.528   3.254
56873SOL    HW272394   5.377   4.515   3.240
56874SOL     OW72395  11.728   8.968   4.311
56874SOL    HW172396  11.677   8.888   4.298
56874SOL    HW272397  11.689   9.032   4.251
56875SOL     OW72398   6.769  11.241   1.802
56875SOL    HW172399   6.724  11.222   1.719
56875SOL    HW272400   6.755  11.162   1.855
56876SOL     OW72401   9.228  14.519  12.956
56876SOL    HW172402   9.294  14.589  12.959
56876SOL    HW272403   9.171  14.537  13.030
56877SOL     OW72404   6.040  11.637   0.488
56877SOL    HW172405   6.043  11.720   0.536
56877SOL    HW272406   6.050  11.662   0.396
56878SOL     OW72407   8.429   9.513  11.752
56878SOL    HW172408   8.460   9.431  11.714
56878SOL    HW272409   8.506   9.552  11.793
56879SOL     OW72410  10.476   1.617   6.631
56879SOL    HW172411  10.552   1.614   6.573
56879SOL    HW272412  10.432   1.533   6.618
56880SOL     OW72413   6.186   8.572  11.111
56880SOL    HW172414   6.105   8.620  11.131
56880SOL    HW272415   6.166   8.481  11.130
56881SOL     OW72416   1.200  12.641   1.919
56881SOL    HW172417   1.182  12.664   1.828
56881SOL    HW272418   1.258  12.711   1.950
56882SOL     OW72419  12.909  11.819   6.414
56882SOL    HW172420  12.976  11.887   6.425
56882SOL    HW272421  12.954  11.737   6.434
56883SOL     OW72422  10.466   6.569   3.972
56883SOL    HW172423  10.486   6.522   4.053
56883SOL    HW272424  10.378   6.604   3.985
56884SOL     OW72425   0.814   0.737  11.465
56884SOL    HW172426   0.740   0.695  11.421
56884SOL    HW272427   0.876   0.666  11.479
56885SOL     OW72428  14.248  12.426  11.647
56885SOL    HW172429  14.216  12.511  11.618
56885SOL    HW272430  14.256  12.435  11.742
56886SOL     OW72431   1.882   7.063   4.168
56886SOL    HW172432   1.934   6.986   4.188
56886SOL    HW272433   1.802   7.053   4.221
56887SOL     OW72434   7.785  13.215  14.203
56887SOL    HW172435   7.802  13.309  14.204
56887SOL    HW272436   7.866  13.177  14.170
56888SOL     OW72437   9.239   5.557   1.882
56888SOL    HW172438   9.205   5.609   1.809
56888SOL    HW272439   9.209   5.602   1.960
56889SOL     OW72440  13.109   7.767   8.680
56889SOL    HW172441  13.064   7.800   8.602
56889SOL    HW272442  13.175   7.834   8.700
56890SOL     OW72443   8.485  11.775   6.121
56890SOL    HW172444   8.423  11.798   6.189
56890SOL    HW272445   8.453  11.691   6.086
56891SOL     OW72446   4.993   8.861  13.302
56891SOL    HW172447   5.078   8.835  13.266
56891SOL    HW272448   5.008   8.874  13.395
56892SOL     OW72449   2.756  11.647  14.057
56892SOL    HW172450   2.754  11.599  14.140
56892SOL    HW272451   2.808  11.591  13.998
56893SOL     OW72452   7.476   6.515   8.820
56893SOL    HW172453   7.559   6.539   8.778
56893SOL    HW272454   7.474   6.419   8.815
56894SOL     OW72455   6.068   3.777   1.784
56894SOL    HW172456   6.083   3.862   1.824
56894SOL    HW272457   6.146   3.726   1.806
56895SOL     OW72458  12.674   7.644   7.500
56895SOL    HW172459  12.643   7.576   7.441
56895SOL    HW272460  12.658   7.726   7.453
56896SOL     OW72461  11.258  11.763  12.585
56896SOL    HW172462  11.296  11.827  12.524
56896SOL    HW272463  11.180  11.730  12.539
56897SOL     OW72464  11.985  11.996   3.686
56897SOL    HW172465  11.938  12.077   3.706
56897SOL    HW272466  11.936  11.928   3.733
56898SOL     OW72467  14.268   1.204   6.030
56898SOL    HW172468  14.322   1.140   6.076
56898SOL    HW272469  14.317   1.223   5.949
56899SOL     OW72470  12.370  12.294   3.739
56899SOL    HW172471  12.294  12.339   3.777
56899SOL    HW272472  12.414  12.254   3.814
56900SOL     OW72473  11.271  14.579   6.779
56900SOL    HW172474  11.240  14.630   6.854
56900SOL    HW272475  11.261  14.488   6.805
56901SOL     OW72476   8.796  13.909   9.031
56901SOL    HW172477   8.738  13.839   9.059
56901SOL    HW272478   8.877  13.894   9.080
56902SOL     OW72479   4.921  12.077   3.695
56902SOL    HW172480   4.905  12.150   3.755
56902SOL    HW272481   4.899  12.113   3.609
56903SOL     OW72482   0.849  11.234   8.994
56903SOL    HW172483   0.871  11.208   9.084
56903SOL    HW272484   0.754  11.240   8.993
56904SOL     OW72485   2.885   2.733   8.323
56904SOL    HW172486   2.837   2.785   8.387
56904SOL    HW272487   2.899   2.792   8.249
56905SOL     OW72488  10.350   2.959   3.654
56905SOL    HW172489  10.400   2.895   3.706
56905SOL    HW272490  10.358   3.041   3.704
56906SOL     OW72491   8.466   5.771   0.000
56906SOL    HW172492   8.496   5.708  14.813
56906SOL    HW272493   8.530   5.763   0.072
56907SOL     OW72494  13.920   6.168   9.883
56907SOL    HW172495  13.897   6.249   9.930
56907SOL    HW272496  14.015   6.173   9.873
56908SOL     OW72497   6.031  11.775   7.515
56908SOL    HW172498   5.970  11.702   7.524
56908SOL    HW272499   6.114  11.740   7.549
56909SOL     OW72500   1.227   2.220   2.486
56909SOL    HW172501   1.181   2.198   2.405
56909SOL    HW272502   1.301   2.273   2.457
56910SOL     OW72503   4.500   5.843   7.875
56910SOL    HW172504   4.503   5.791   7.955
56910SOL    HW272505   4.516   5.780   7.804
56911SOL     OW72506   6.105  12.927   0.046
56911SOL    HW172507   6.114  12.975   0.128
56911SOL    HW272508   6.045  12.855   0.065
56912SOL     OW72509   3.859   5.221  14.523
56912SOL    HW172510   3.872   5.300  14.469
56912SOL    HW272511   3.801   5.250  14.593
56913SOL     OW72512  13.452   7.983   2.045
56913SOL    HW172513  13.531   7.930   2.042
56913SOL    HW272514  13.408   7.957   2.126
56914SOL     OW72515   2.949  10.639   0.100
56914SOL    HW172516   2.907  10.599   0.176
56914SOL    HW272517   3.043  10.629   0.115
56915SOL     OW72518  10.371   6.964   5.024
56915SOL    HW172519  10.304   6.963   5.092
56915SOL    HW272520  10.443   7.014   5.062
56916SOL     OW72521  10.110   4.352  10.776
56916SOL    HW172522  10.173   4.326  10.843
56916SOL    HW272523  10.029   4.370  10.824
56917SOL     OW72524   1.647  13.737  14.309
56917SOL    HW172525   1.736  13.760  14.283
56917SOL    HW272526   1.630  13.653  14.266
56918SOL     OW72527   4.875  10.132   3.326
56918SOL    HW172528   4.808  10.124   3.258
56918SOL    HW272529   4.946  10.074   3.297
56919SOL     OW72530   8.625  12.557   0.120
56919SOL    HW172531   8.694  12.549   0.054
56919SOL    HW272532   8.667  12.602   0.193
56920SOL     OW72533   8.933  13.691  12.392
56920SOL    HW172534   8.997  13.670  12.324
56920SOL    HW272535   8.872  13.751  12.350
56921SOL     OW72536  14.355   3.762   1.144
56921SOL    HW172537  14.417   3.775   1.215
56921SOL    HW272538  14.390   3.686   1.096
56922SOL     OW72539  10.856   3.201   3.982
56922SOL    HW172540  10.813   3.159   4.056
56922SOL    HW272541  10.832   3.148   3.907
56923SOL     OW72542  14.852  13.005   4.991
56923SOL    HW172543   0.048  12.944   4.989
56923SOL    HW272544  14.778  12.954   4.959
56924SOL     OW72545  11.098  14.429   5.782
56924SOL    HW172546  11.192  14.448   5.777
56924SOL    HW272547  11.076  14.439   5.875
56925SOL     OW72548   2.350  14.257   3.015
56925SOL    HW172549   2.356  14.171   2.974
56925SOL    HW272550   2.277  14.249   3.076
56926SOL     OW72551   1.509   4.401  13.911
56926SOL    HW172552   1.428   4.444  13.882
56926SOL    HW272553   1.579   4.457  13.880
56927SOL     OW72554   8.883  10.426   5.975
56927SOL    HW172555   8.882  10.378   5.893
56927SOL    HW272556   8.931  10.507   5.956
56928SOL     OW72557   2.699   4.543   3.460
56928SOL    HW172558   2.733   4.502   3.539
56928SOL    HW272559   2.706   4.476   3.393
56929SOL     OW72560  11.352   5.191  11.544
56929SOL    HW172561  11.268   5.229  11.567
56929SOL    HW272562  11.414   5.263  11.550
56930SOL     OW72563   2.966  13.264   1.638
56930SOL    HW172564   2.906  13.193   1.662
56930SOL    HW272565   2.909  13.339   1.622
56931SOL     OW72566   4.072   8.886   4.912
56931SOL    HW172567   4.115   8.844   4.987
56931SOL    HW272568   4.046   8.972   4.944
56932SOL     OW72569   2.542   6.898   7.990
56932SOL    HW172570   2.607   6.897   8.060
56932SOL    HW272571   2.587   6.859   7.915
56933SOL     OW72572   0.023   0.149   8.698
56933SOL    HW172573   0.104   0.165   8.746
56933SOL    HW272574   0.020   0.219   8.632
56934SOL     OW72575   2.725  12.636  12.960
56934SOL    HW172576   2.638  12.674  12.947
56934SOL    HW272577   2.714  12.574  13.032
56935SOL     OW72578  10.327   2.222   6.655
56935SOL    HW172579  10.420   2.240   6.643
56935SOL    HW272580  10.314   2.134   6.620
56936SOL     OW72581   9.872   0.677  10.241
56936SOL    HW172582   9.857   0.772  10.250
56936SOL    HW272583   9.839   0.656  10.154
56937SOL     OW72584   1.553  14.370   3.943
56937SOL    HW172585   1.633  14.407   3.906
56937SOL    HW272586   1.495  14.445   3.955
56938SOL     OW72587   4.613   6.362  13.906
56938SOL    HW172588   4.522   6.393  13.912
56938SOL    HW272589   4.636   6.371  13.813
56939SOL     OW72590  10.857  10.730   9.327
56939SOL    HW172591  10.859  10.642   9.290
56939SOL    HW272592  10.778  10.731   9.381
56940SOL     OW72593   3.291   4.032  11.757
56940SOL    HW172594   3.286   3.937  11.748
56940SOL    HW272595   3.290   4.047  11.851
56941SOL     OW72596   6.800  13.263  14.815
56941SOL    HW172597   6.788  13.207  14.739
56941SOL    HW272598   6.770  13.349  14.787
56942SOL     OW72599   4.681   7.765  14.419
56942SOL    HW172600   4.656   7.771  14.511
56942SOL    HW272601   4.673   7.855  14.386
56943SOL     OW72602  12.098  13.559  13.567
56943SOL    HW172603  12.171  13.559  13.505
56943SOL    HW272604  12.110  13.479  13.618
56944SOL     OW72605   7.032   0.094  14.116
56944SOL    HW172606   7.044   0.147  14.195
56944SOL    HW272607   6.959   0.136  14.070
56945SOL     OW72608   3.437  10.390   0.294
56945SOL    HW172609   3.469  10.404   0.382
56945SOL    HW272610   3.364  10.451   0.284
56946SOL     OW72611  10.966  13.589  12.226
56946SOL    HW172612  11.036  13.654  12.234
56946SOL    HW272613  11.005  13.519  12.174
56947SOL     OW72614   4.111   0.134   8.855
56947SOL    HW172615   4.087   0.227   8.859
56947SOL    HW272616   4.186   0.126   8.914
56948SOL     OW72617   5.758   0.333  13.038
56948SOL    HW172618   5.685   0.302  13.090
56948SOL    HW272619   5.753   0.429  13.043
56949SOL     OW72620  11.038   9.585   2.694
56949SOL    HW172621  11.133   9.595   2.690
56949SOL    HW272622  11.004   9.659   2.643
56950SOL     OW72623   6.729   9.978   4.277
56950SOL    HW172624   6.651   9.987   4.332
56950SOL    HW272625   6.745  10.066   4.243
56951SOL     OW72626  13.484  13.403   8.083
56951SOL    HW172627  13.437  13.445   8.155
56951SOL    HW272628  13.417  13.386   8.017
56952SOL     OW72629   1.771  11.848  11.718
56952SOL    HW172630   1.685  11.888  11.707
56952SOL    HW272631   1.799  11.873  11.806
56953SOL     OW72632   3.293   2.042   0.196
56953SOL    HW172633   3.318   2.074   0.109
56953SOL    HW272634   3.211   2.087   0.216
56954SOL     OW72635  10.242  10.567   7.169
56954SOL    HW172636  10.216  10.538   7.081
56954SOL    HW272637  10.168  10.543   7.225
56955SOL     OW72638   0.656  13.426   1.119
56955SOL    HW172639   0.709  13.485   1.173
56955SOL    HW272640   0.690  13.437   1.031
56956SOL     OW72641   6.045   2.658   9.108
56956SOL    HW172642   6.125   2.628   9.152
56956SOL    HW272643   6.003   2.715   9.172
56957SOL     OW72644  10.080   3.754   4.403
56957SOL    HW172645  10.044   3.778   4.317
56957SOL    HW272646  10.048   3.823   4.461
56958SOL     OW72647  11.714  12.569   2.151
56958SOL    HW172648  11.625  12.578   2.185
56958SOL    HW272649  11.769  12.611   2.217
56959SOL     OW72650   2.859   8.875  12.846
56959SOL    HW172651   2.783   8.909  12.799
56959SOL    HW272652   2.866   8.784  12.817
56960SOL     OW72653   8.529   2.444   1.349
56960SOL    HW172654   8.551   2.537   1.350
56960SOL    HW272655   8.450   2.439   1.295
56961SOL     OW72656  14.416  13.258   5.745
56961SOL    HW172657  14.349  13.192   5.726
56961SOL    HW272658  14.368  13.329   5.787
56962SOL     OW72659   2.043   5.201  10.990
56962SOL    HW172660   2.093   5.143  10.933
56962SOL    HW272661   2.109   5.260  11.027
56963SOL     OW72662   2.195   4.575   6.055
56963SOL    HW172663   2.192   4.605   6.146
56963SOL    HW272664   2.106   4.546   6.036
56964SOL     OW72665  13.354   7.603   8.233
56964SOL    HW172666  13.386   7.513   8.234
56964SOL    HW272667  13.348   7.625   8.139
56965SOL     OW72668   5.796  14.132  12.182
56965SOL    HW172669   5.739  14.066  12.222
56965SOL    HW272670   5.864  14.147  12.247
56966SOL     OW72671  13.634   2.687  11.105
56966SOL    HW172672  13.647   2.782  11.106
56966SOL    HW272673  13.700   2.653  11.166
56967SOL     OW72674   8.267  12.707   2.013
56967SOL    HW172675   8.210  12.776   1.977
56967SOL    HW272676   8.315  12.751   2.083
56968SOL     OW72677  14.408   8.883  11.706
56968SOL    HW172678  14.450   8.835  11.635
56968SOL    HW272679  14.480   8.907  11.765
56969SOL     OW72680  12.230  13.957   1.062
56969SOL    HW172681  12.226  14.021   0.991
56969SOL    HW272682  12.170  13.992   1.128
56970SOL     OW72683   9.857   2.180   5.975
56970SOL    HW172684   9.798   2.248   5.944
56970SOL    HW272685   9.898   2.145   5.896
56971SOL     OW72686   1.928  13.881   8.554
56971SOL    HW172687   1.920  13.974   8.573
56971SOL    HW272688   1.965  13.877   8.466
56972SOL     OW72689   4.172   6.606   2.077
56972SOL    HW172690   4.147   6.698   2.068
56972SOL    HW272691   4.090   6.562   2.100
56973SOL     OW72692   4.916   1.031   9.524
56973SOL    HW172693   5.006   1.063   9.524
56973SOL    HW272694   4.901   1.002   9.434
56974SOL     OW72695   0.867   1.029   8.633
56974SOL    HW172696   0.925   0.986   8.696
56974SOL    HW272697   0.825   0.957   8.585
56975SOL     OW72698   3.083  14.315   4.380
56975SOL    HW172699   3.033  14.387   4.418
56975SOL    HW272700   3.016  14.260   4.339
56976SOL     OW72701   6.843  12.042  10.429
56976SOL    HW172702   6.812  12.131  10.413
56976SOL    HW272703   6.850  12.004  10.341
56977SOL     OW72704   6.079  12.644   6.419
56977SOL    HW172705   6.125  12.561   6.430
56977SOL    HW272706   6.134  12.694   6.358
56978SOL     OW72707   3.483  12.902   3.803
56978SOL    HW172708   3.495  12.886   3.709
56978SOL    HW272709   3.438  12.987   3.807
56979SOL     OW72710   9.746   1.253   7.206
56979SOL    HW172711   9.714   1.335   7.168
56979SOL    HW272712   9.839   1.251   7.184
56980SOL     OW72713  14.731  13.321  11.090
56980SOL    HW172714  14.721  13.287  11.179
56980SOL    HW272715  14.822  13.303  11.067
56981SOL     OW72716   5.629  14.625   5.726
56981SOL    HW172717   5.534  14.621   5.713
56981SOL    HW272718   5.640  14.617   5.821
56982SOL     OW72719   0.611   0.004  11.475
56982SOL    HW172720   0.559   0.080  11.452
56982SOL    HW272721   0.670   0.035  11.544
56983SOL     OW72722  10.347   2.114  12.316
56983SOL    HW172723  10.374   2.192  12.365
56983SOL    HW272724  10.377   2.041  12.371
56984SOL     OW72725   3.035  13.986   9.796
56984SOL    HW172726   3.100  14.052   9.822
56984SOL    HW272727   3.073  13.903   9.826
56985SOL     OW72728   6.033   8.183  11.879
56985SOL    HW172729   5.948   8.166  11.920
56985SOL    HW272730   6.096   8.136  11.934
56986SOL     OW72731   4.376   7.003   0.637
56986SOL    HW172732   4.405   6.925   0.590
56986SOL    HW272733   4.281   7.005   0.625
56987SOL     OW72734   4.804  10.374   7.952
56987SOL    HW172735   4.869  10.404   7.889
56987SOL    HW272736   4.805  10.279   7.944
56988SOL     OW72737  13.810  14.514  14.224
56988SOL    HW172738  13.764  14.503  14.307
56988SOL    HW272739  13.756  14.575  14.174
56989SOL     OW72740   1.378  14.680   3.662
56989SOL    HW172741   1.425  14.761   3.677
56989SOL    HW272742   1.374  14.671   3.567
56990SOL     OW72743  13.071   9.134  10.343
56990SOL    HW172744  13.025   9.216  10.326
56990SOL    HW272745  13.103   9.142  10.433
56991SOL     OW72746   7.527   5.290   1.466
56991SOL    HW172747   7.462   5.298   1.396
56991SOL    HW272748   7.589   5.225   1.433
56992SOL     OW72749   2.731  12.105   8.315
56992SOL    HW172750   2.636  12.095   8.322
56992SOL    HW272751   2.756  12.042   8.247
56993SOL     OW72752  11.454  14.271  10.136
56993SOL    HW172753  11.492  14.223  10.210
56993SOL    HW272754  11.406  14.204  10.087
56994SOL     OW72755  14.367   4.543  10.880
56994SOL    HW172756  14.346   4.618  10.936
56994SOL    HW272757  14.304   4.548  10.809
56995SOL     OW72758  11.327  14.752   1.902
56995SOL    HW172759  11.279  14.706   1.971
56995SOL    HW272760  11.416  14.715   1.906
56996SOL     OW72761   2.598   2.515   1.014
56996SOL    HW172762   2.673   2.469   1.052
56996SOL    HW272763   2.524   2.488   1.068
56997SOL     OW72764   6.699  11.450  10.283
56997SOL    HW172765   6.608  11.468  10.305
56997SOL    HW272766   6.696  11.420  10.192
56998SOL     OW72767  11.176  11.964  10.475
56998SOL    HW172768  11.170  11.871  10.497
56998SOL    HW272769  11.133  12.009  10.547
56999SOL     OW72770   1.615   1.501  12.652
56999SOL    HW172771   1.683   1.481  12.588
56999SOL    HW272772   1.650   1.573  12.703
57000SOL     OW72773   9.414   7.182   2.792
57000SOL    HW172774   9.348   7.247   2.766
57000SOL    HW272775   9.374   7.135   2.865
57001SOL     OW72776   9.396   2.972   7.784
57001SOL    HW172777   9.373   2.880   7.775
57001SOL    HW272778   9.468   2.974   7.848
57002SOL     OW72779   9.301  12.185   1.936
57002SOL    HW172780   9.318  12.108   1.882
57002SOL    HW272781   9.321  12.259   1.879
57003SOL     OW72782   1.844   2.927   0.406
57003SOL    HW172783   1.843   2.903   0.314
57003SOL    HW272784   1.771   2.878   0.444
57004SOL     OW72785  11.234   7.402  12.178
57004SOL    HW172786  11.163   7.388  12.240
57004SOL    HW272787  11.283   7.320  12.179
57005SOL     OW72788   4.823   0.740   0.378
57005SOL    HW172789   4.849   0.779   0.294
57005SOL    HW272790   4.826   0.645   0.361
57006SOL     OW72791   3.069   4.739  10.948
57006SOL    HW172792   2.996   4.678  10.959
57006SOL    HW272793   3.031   4.824  10.969
57007SOL     OW72794  14.293   6.077   9.145
57007SOL    HW172795  14.260   6.154   9.099
57007SOL    HW272796  14.312   6.109   9.233
57008SOL     OW72797   6.501   4.746   2.345
57008SOL    HW172798   6.461   4.828   2.372
57008SOL    HW272799   6.428   4.684   2.339
57009SOL     OW72800   6.126   3.621  13.768
57009SOL    HW172801   6.122   3.552  13.834
57009SOL    HW272802   6.056   3.600  13.707
57010SOL     OW72803   2.653   3.273   9.516
57010SOL    HW172804   2.724   3.280   9.580
57010SOL    HW272805   2.694   3.291   9.431
57011SOL     OW72806   9.892   1.621   8.787
57011SOL    HW172807   9.970   1.669   8.812
57011SOL    HW272808   9.843   1.683   8.732
57012SOL     OW72809   1.782   1.512   1.167
57012SOL    HW172810   1.795   1.551   1.253
57012SOL    HW272811   1.842   1.559   1.109
57013SOL     OW72812   8.112  14.649   5.650
57013SOL    HW172813   8.061  14.728   5.670
57013SOL    HW272814   8.091  14.630   5.559
57014SOL     OW72815   2.956   1.991   4.592
57014SOL    HW172816   2.910   1.963   4.513
57014SOL    HW272817   3.021   2.055   4.561
57015SOL     OW72818   3.698   1.999  11.356
57015SOL    HW172819   3.723   1.932  11.420
57015SOL    HW272820   3.781   2.024  11.314
57016SOL     OW72821  13.684  10.978   8.471
57016SOL    HW172822  13.718  10.942   8.553
57016SOL    HW272823  13.759  10.982   8.413
57017SOL     OW72824   1.110   2.029   7.651
57017SOL    HW172825   1.099   1.993   7.739
57017SOL    HW272826   1.170   2.103   7.663
57018SOL     OW72827  13.706   8.742   8.684
57018SOL    HW172828  13.687   8.649   8.694
57018SOL    HW272829  13.630   8.786   8.723
57019SOL     OW72830  11.486   1.344  12.071
57019SOL    HW172831  11.423   1.414  12.053
57019SOL    HW272832  11.438   1.264  12.050
57020SOL     OW72833  11.144   5.298   6.342
57020SOL    HW172834  11.082   5.329   6.275
57020SOL    HW272835  11.123   5.350   6.420
57021SOL     OW72836  14.468  14.292  11.878
57021SOL    HW172837  14.385  14.312  11.835
57021SOL    HW272838  14.469  14.348  11.955
57022SOL     OW72839   6.039   9.833   9.921
57022SOL    HW172840   6.007   9.912   9.964
57022SOL    HW272841   6.113   9.864   9.867
57023SOL     OW72842   0.903   7.483   7.704
57023SOL    HW172843   0.905   7.483   7.800
57023SOL    HW272844   0.990   7.511   7.678
57024SOL     OW72845   3.937   7.882   5.596
57024SOL    HW172846   3.849   7.919   5.585
57024SOL    HW272847   3.992   7.958   5.618
57025SOL     OW72848   2.163  13.150  12.749
57025SOL    HW172849   2.069  13.165  12.746
57025SOL    HW272850   2.200  13.229  12.787
57026SOL     OW72851   1.650   7.883  10.884
57026SOL    HW172852   1.720   7.947  10.874
57026SOL    HW272853   1.570   7.935  10.887
57027SOL     OW72854   1.838  14.120   8.682
57027SOL    HW172855   1.755  14.166   8.695
57027SOL    HW272856   1.877  14.116   8.769
57028SOL     OW72857   0.306   9.024   8.583
57028SOL    HW172858   0.315   9.051   8.675
57028SOL    HW272859   0.395   9.005   8.555
57029SOL     OW72860  14.391   0.565   8.335
57029SOL    HW172861  14.485   0.584   8.329
57029SOL    HW272862  14.355   0.595   8.252
57030SOL     OW72863   4.446  10.793  11.742
57030SOL    HW172864   4.394  10.756  11.670
57030SOL    HW272865   4.445  10.887  11.727
57031SOL     OW72866  12.786  13.240  13.205
57031SOL    HW172867  12.775  13.146  13.216
57031SOL    HW272868  12.839  13.250  13.126
57032SOL     OW72869   4.226   8.841   9.830
57032SOL    HW172870   4.182   8.894   9.764
57032SOL    HW272871   4.199   8.751   9.810
57033SOL     OW72872  10.836   5.448   6.729
57033SOL    HW172873  10.761   5.471   6.783
57033SOL    HW272874  10.906   5.506   6.758
57034SOL     OW72875   8.377  10.273   9.782
57034SOL    HW172876   8.415  10.185   9.788
57034SOL    HW272877   8.384  10.296   9.689
57035SOL     OW72878   8.888   5.288   2.697
57035SOL    HW172879   8.876   5.356   2.631
57035SOL    HW272880   8.981   5.291   2.719
57036SOL     OW72881   5.382   6.694   5.243
57036SOL    HW172882   5.340   6.610   5.228
57036SOL    HW272883   5.348   6.723   5.328
57037SOL     OW72884   1.287  14.368  10.840
57037SOL    HW172885   1.209  14.333  10.797
57037SOL    HW272886   1.255  14.444  10.889
57038SOL     OW72887  14.538  12.148   0.113
57038SOL    HW172888  14.586  12.225   0.145
57038SOL    HW272889  14.510  12.103   0.193
57039SOL     OW72890   4.671   9.973   8.502
57039SOL    HW172891   4.623   9.900   8.542
57039SOL    HW272892   4.722  10.010   8.574
57040SOL     OW72893  10.817   8.900   0.850
57040SOL    HW172894  10.873   8.915   0.927
57040SOL    HW272895  10.780   8.813   0.865
57041SOL     OW72896  13.855  13.433  12.070
57041SOL    HW172897  13.886  13.482  11.994
57041SOL    HW272898  13.899  13.348  12.063
57042SOL     OW72899  11.255   1.872   5.170
57042SOL    HW172900  11.200   1.794   5.163
57042SOL    HW272901  11.340   1.845   5.135
57043SOL     OW72902   9.897   9.699   4.292
57043SOL    HW172903   9.887   9.609   4.261
57043SOL    HW272904   9.912   9.751   4.213
57044SOL     OW72905   3.143  13.849  11.501
57044SOL    HW172906   3.174  13.895  11.579
57044SOL    HW272907   3.068  13.798  11.532
57045SOL     OW72908   0.055   7.376   6.649
57045SOL    HW172909   0.004   7.457   6.656
57045SOL    HW272910   0.125   7.398   6.588
57046SOL     OW72911   1.212   3.103   6.764
57046SOL    HW172912   1.287   3.055   6.729
57046SOL    HW272913   1.226   3.194   6.736
57047SOL     OW72914  12.544   8.804   7.739
57047SOL    HW172915  12.580   8.892   7.753
57047SOL    HW272916  12.517   8.804   7.647
57048SOL     OW72917   8.150   8.658   4.735
57048SOL    HW172918   8.231   8.608   4.730
57048SOL    HW272919   8.088   8.611   4.678
57049SOL     OW72920   3.102  10.897   1.658
57049SOL    HW172921   3.152  10.911   1.577
57049SOL    HW272922   3.015  10.930   1.638
57050SOL     OW72923   0.318   1.987   6.580
57050SOL    HW172924   0.277   2.042   6.513
57050SOL    HW272925   0.288   1.898   6.560
57051SOL     OW72926  10.769   1.137  11.329
57051SOL    HW172927  10.710   1.094  11.391
57051SOL    HW272928  10.747   1.230  11.336
57052SOL     OW72929   2.011   7.272  14.039
57052SOL    HW172930   1.959   7.201  14.076
57052SOL    HW272931   2.054   7.313  14.114
57053SOL     OW72932  13.895   7.574   1.417
57053SOL    HW172933  13.930   7.588   1.506
57053SOL    HW272934  13.826   7.640   1.408
57054SOL     OW72935   6.662  14.683  13.870
57054SOL    HW172936   6.733  14.633  13.827
57054SOL    HW272937   6.706  14.733  13.938
57055SOL     OW72938   9.203   2.498   0.915
57055SOL    HW172939   9.143   2.522   0.986
57055SOL    HW272940   9.161   2.424   0.872
57056SOL     OW72941   5.107  11.028  10.495
57056SOL    HW172942   5.051  10.951  10.504
57056SOL    HW272943   5.196  10.994  10.507
57057SOL     OW72944   6.011   6.656  11.942
57057SOL    HW172945   6.008   6.662  11.846
57057SOL    HW272946   5.979   6.741  11.972
57058SOL     OW72947  10.176   9.255   9.999
57058SOL    HW172948  10.142   9.166  10.009
57058SOL    HW272949  10.222   9.253   9.915
57059SOL     OW72950   8.809   0.511   3.203
57059SOL    HW172951   8.844   0.540   3.287
57059SOL    HW272952   8.878   0.533   3.140
57060SOL     OW72953   3.229  13.319   1.625
57060SOL    HW172954   3.222  13.406   1.587
57060SOL    HW272955   3.139  13.286   1.627
57061SOL     OW72956   8.079   3.307   2.829
57061SOL    HW172957   8.156   3.365   2.830
57061SOL    HW272958   8.116   3.219   2.839
57062SOL     OW72959  13.717   9.118   8.171
57062SOL    HW172960  13.762   9.047   8.217
57062SOL    HW272961  13.651   9.074   8.118
57063SOL     OW72962  11.901  12.513   9.680
57063SOL    HW172963  11.958  12.458   9.734
57063SOL    HW272964  11.819  12.464   9.674
57064SOL     OW72965  11.825   3.588   6.108
57064SOL    HW172966  11.761   3.608   6.040
57064SOL    HW272967  11.864   3.673   6.130
57065SOL     OW72968   4.599  12.462   6.251
57065SOL    HW172969   4.603  12.470   6.156
57065SOL    HW272970   4.687  12.435   6.277
57066SOL     OW72971  12.376   5.714   7.769
57066SOL    HW172972  12.442   5.671   7.824
57066SOL    HW272973  12.292   5.688   7.807
57067SOL     OW72974  10.631   2.789   5.860
57067SOL    HW172975  10.595   2.706   5.826
57067SOL    HW272976  10.725   2.780   5.849
57068SOL     OW72977   4.649   5.872   1.669
57068SOL    HW172978   4.586   5.942   1.652
57068SOL    HW272979   4.684   5.850   1.582
57069SOL     OW72980  10.532  13.917   5.110
57069SOL    HW172981  10.484  13.897   5.030
57069SOL    HW272982  10.488  13.994   5.146
57070SOL     OW72983   5.503  13.679   1.791
57070SOL    HW172984   5.540  13.597   1.756
57070SOL    HW272985   5.550  13.693   1.873
57071SOL     OW72986  14.478  13.275   6.079
57071SOL    HW172987  14.411  13.288   6.147
57071SOL    HW272988  14.433  13.299   5.998
57072SOL     OW72989   7.708  11.712   7.818
57072SOL    HW172990   7.632  11.730   7.763
57072SOL    HW272991   7.690  11.626   7.856
57073SOL     OW72992   4.382  13.615  11.901
57073SOL    HW172993   4.387  13.689  11.842
57073SOL    HW272994   4.350  13.543  11.847
57074SOL     OW72995   8.578   7.448   0.588
57074SOL    HW172996   8.660   7.497   0.587
57074SOL    HW272997   8.511   7.514   0.568
57075SOL     OW72998  10.371  13.956  14.680
57075SOL    HW172999  10.370  14.044  14.642
57075SOL    HW273000  10.279  13.936  14.696
57076SOL     OW73001  10.317   4.770  13.242
57076SOL    HW173002  10.242   4.710  13.243
57076SOL    HW273003  10.301   4.828  13.318
57077SOL     OW73004   9.272   7.337   6.571
57077SOL    HW173005   9.323   7.261   6.544
57077SOL    HW273006   9.284   7.341   6.666
57078SOL     OW73007   0.189   5.406   1.382
57078SOL    HW173008   0.095   5.415   1.395
57078SOL    HW273009   0.227   5.425   1.467
57079SOL     OW73010   4.676   1.941  12.475
57079SOL    HW173011   4.649   1.932  12.567
57079SOL    HW273012   4.676   1.852  12.441
57080SOL     OW73013   7.391   1.678   4.646
57080SOL    HW173014   7.389   1.761   4.598
57080SOL    HW273015   7.336   1.619   4.595
57081SOL     OW73016  12.569  11.970  12.425
57081SOL    HW173017  12.548  11.998  12.336
57081SOL    HW273018  12.632  12.036  12.456
57082SOL     OW73019   7.077  13.810  11.507
57082SOL    HW173020   7.141  13.872  11.543
57082SOL    HW273021   7.018  13.864  11.455
57083SOL     OW73022   9.917   9.446   7.640
57083SOL    HW173023   9.834   9.411   7.674
57083SOL    HW273024   9.985   9.398   7.687
57084SOL     OW73025  14.032   6.623   2.540
57084SOL    HW173026  14.103   6.685   2.555
57084SOL    HW273027  13.964   6.674   2.496
57085SOL     OW73028   9.048   0.355  11.697
57085SOL    HW173029   9.000   0.313  11.625
57085SOL    HW273030   9.096   0.426  11.655
57086SOL     OW73031   7.413  12.766   6.388
57086SOL    HW173032   7.495  12.718   6.396
57086SOL    HW273033   7.402  12.810   6.473
57087SOL     OW73034  10.626  13.244   6.535
57087SOL    HW173035  10.605  13.196   6.455
57087SOL    HW273036  10.684  13.186   6.583
57088SOL     OW73037   2.837  10.192  10.881
57088SOL    HW173038   2.775  10.166  10.813
57088SOL    HW273039   2.922  10.195  10.837
57089SOL     OW73040   2.920  14.462   5.110
57089SOL    HW173041   2.848  14.508   5.153
57089SOL    HW273042   2.974  14.430   5.182
57090SOL     OW73043   6.066   0.797   1.150
57090SOL    HW173044   6.129   0.846   1.098
57090SOL    HW273045   6.072   0.708   1.115
57091SOL     OW73046   4.520   8.122   4.987
57091SOL    HW173047   4.504   8.214   4.965
57091SOL    HW273048   4.520   8.077   4.903
57092SOL     OW73049   6.287  10.130   9.934
57092SOL    HW173050   6.230  10.206   9.950
57092SOL    HW273051   6.368  10.169   9.901
57093SOL     OW73052   2.332   1.690   4.835
57093SOL    HW173053   2.380   1.631   4.893
57093SOL    HW273054   2.272   1.737   4.892
57094SOL     OW73055   4.001  10.187  13.050
57094SOL    HW173056   3.906  10.197  13.050
57094SOL    HW273057   4.026  10.195  12.958
57095SOL     OW73058  11.505   9.353   6.433
57095SOL    HW173059  11.578   9.324   6.487
57095SOL    HW273060  11.461   9.271   6.407
57096SOL     OW73061   9.907   1.012   7.345
57096SOL    HW173062   9.965   1.065   7.399
57096SOL    HW273063   9.818   1.039   7.369
57097SOL     OW73064   2.618   4.122  14.687
57097SOL    HW173065   2.573   4.176  14.623
57097SOL    HW273066   2.551   4.097  14.750
57098SOL     OW73067   7.384   5.299   8.946
57098SOL    HW173068   7.460   5.312   8.889
57098SOL    HW273069   7.314   5.348   8.903
57099SOL     OW73070   5.077   7.182   3.147
57099SOL    HW173071   5.022   7.202   3.071
57099SOL    HW273072   5.086   7.265   3.193
57100SOL     OW73073  12.102   1.074  12.343
57100SOL    HW173074  12.113   1.070  12.248
57100SOL    HW273075  12.065   0.989  12.366
57101SOL     OW73076   6.480  11.687  11.828
57101SOL    HW173077   6.565  11.701  11.870
57101SOL    HW273078   6.416  11.721  11.891
57102SOL     OW73079   0.816   0.852   2.197
57102SOL    HW173080   0.722   0.864   2.187
57102SOL    HW273081   0.847   0.830   2.109
57103SOL     OW73082   6.232   2.012   1.578
57103SOL    HW173083   6.271   2.076   1.518
57103SOL    HW273084   6.249   2.048   1.665
57104SOL     OW73085   3.021  11.238   5.337
57104SOL    HW173086   3.110  11.224   5.370
57104SOL    HW273087   2.986  11.309   5.392
57105SOL     OW73088  12.797   3.365   2.048
57105SOL    HW173089  12.825   3.456   2.040
57105SOL    HW273090  12.809   3.328   1.961
57106SOL     OW73091   5.553   9.467   9.951
57106SOL    HW173092   5.558   9.551   9.998
57106SOL    HW273093   5.488   9.482   9.882
57107SOL     OW73094   5.771   8.968   4.715
57107SOL    HW173095   5.814   8.903   4.771
57107SOL    HW273096   5.788   8.938   4.626
57108SOL     OW73097   3.064   2.713  10.267
57108SOL    HW173098   2.970   2.705  10.248
57108SOL    HW273099   3.068   2.779  10.337
57109SOL     OW73100   5.987   0.916   6.910
57109SOL    HW173101   5.970   0.992   6.854
57109SOL    HW273102   5.951   0.842   6.862
57110SOL     OW73103   1.450   0.859   6.369
57110SOL    HW173104   1.441   0.955   6.367
57110SOL    HW273105   1.515   0.842   6.437
57111SOL     OW73106   0.626  12.208   7.119
57111SOL    HW173107   0.600  12.180   7.207
57111SOL    HW273108   0.561  12.275   7.095
57112SOL     OW73109  10.028   6.757   1.249
57112SOL    HW173110  10.117   6.722   1.245
57112SOL    HW273111  10.015   6.779   1.342
57113SOL     OW73112   2.054  11.516   6.659
57113SOL    HW173113   2.016  11.455   6.722
57113SOL    HW273114   2.026  11.484   6.574
57114SOL     OW73115  10.823   7.105   9.977
57114SOL    HW173116  10.791   7.181  10.026
57114SOL    HW273117  10.855   7.045  10.043
57115SOL     OW73118  13.615  13.418   9.879
57115SOL    HW173119  13.536  13.367   9.862
57115SOL    HW273120  13.599  13.461   9.963
57116SOL     OW73121   4.815  13.809   0.878
57116SOL    HW173122   4.782  13.868   0.810
57116SOL    HW273123   4.906  13.833   0.889
57117SOL     OW73124   1.347  13.804   4.338
57117SOL    HW173125   1.371  13.786   4.247
57117SOL    HW273126   1.265  13.756   4.350
57118SOL     OW73127  11.953   1.230   2.749
57118SOL    HW173128  12.039   1.264   2.772
57118SOL    HW273129  11.907   1.221   2.832
57119SOL     OW73130  11.063   0.577   6.323
57119SOL    HW173131  11.065   0.481   6.322
57119SOL    HW273132  11.134   0.602   6.382
57120SOL     OW73133   2.874   2.749  13.826
57120SOL    HW173134   2.923   2.671  13.852
57120SOL    HW273135   2.783   2.722  13.830
57121SOL     OW73136   0.189   0.509   5.436
57121SOL    HW173137   0.183   0.574   5.506
57121SOL    HW273138   0.227   0.557   5.363
57122SOL     OW73139  12.219   9.878   7.579
57122SOL    HW173140  12.198   9.967   7.550
57122SOL    HW273141  12.150   9.857   7.642
57123SOL     OW73142  11.564   8.996   3.306
57123SOL    HW173143  11.494   8.997   3.240
57123SOL    HW273144  11.558   9.081   3.348
57124SOL     OW73145   3.601   9.411   7.809
57124SOL    HW173146   3.606   9.497   7.767
57124SOL    HW273147   3.523   9.371   7.772
57125SOL     OW73148  14.458  10.411   4.406
57125SOL    HW173149  14.452  10.492   4.355
57125SOL    HW273150  14.518  10.356   4.356
57126SOL     OW73151   2.284  11.617   0.727
57126SOL    HW173152   2.314  11.663   0.648
57126SOL    HW273153   2.212  11.671   0.760
57127SOL     OW73154   0.337   6.947   9.071
57127SOL    HW173155   0.390   7.027   9.068
57127SOL    HW273156   0.392   6.880   9.030
57128SOL     OW73157   0.709   1.937   2.867
57128SOL    HW173158   0.615   1.953   2.870
57128SOL    HW273159   0.720   1.851   2.908
57129SOL     OW73160   1.605   2.435   6.722
57129SOL    HW173161   1.671   2.495   6.687
57129SOL    HW273162   1.652   2.387   6.791
57130SOL     OW73163   6.025   9.106   2.052
57130SOL    HW173164   6.063   9.191   2.030
57130SOL    HW273165   5.985   9.118   2.138
57131SOL     OW73166   9.874   5.769  13.045
57131SOL    HW173167   9.866   5.674  13.039
57131SOL    HW273168   9.872   5.799  12.954
57132SOL     OW73169  14.794  12.646   4.033
57132SOL    HW173170  14.838  12.585   4.091
57132SOL    HW273171  14.788  12.727   4.083
57133SOL     OW73172  14.740   6.564  11.363
57133SOL    HW173173  14.824   6.581  11.319
57133SOL    HW273174  14.730   6.469  11.360
57134SOL     OW73175   7.007   8.703   9.427
57134SOL    HW173176   6.944   8.635   9.453
57134SOL    HW273177   6.997   8.772   9.493
57135SOL     OW73178  14.294  12.689   6.810
57135SOL    HW173179  14.266  12.763   6.862
57135SOL    HW273180  14.214  12.653   6.773
57136SOL     OW73181   1.997  11.067  10.408
57136SOL    HW173182   1.922  11.071  10.467
57136SOL    HW273183   2.065  11.022  10.459
57137SOL     OW73184  11.010   4.818   9.405
57137SOL    HW173185  11.064   4.747   9.439
57137SOL    HW273186  10.929   4.775   9.377
57138SOL     OW73187   2.009  11.285   4.195
57138SOL    HW173188   2.054  11.367   4.173
57138SOL    HW273189   1.930  11.286   4.140
57139SOL     OW73190   4.847   6.100  12.036
57139SOL    HW173191   4.818   6.161  12.104
57139SOL    HW273192   4.816   6.140  11.954
57140SOL     OW73193   0.542   6.069  13.675
57140SOL    HW173194   0.456   6.031  13.660
57140SOL    HW273195   0.535   6.112  13.760
57141SOL     OW73196  13.649   0.816   3.005
57141SOL    HW173197  13.715   0.837   3.071
57141SOL    HW273198  13.597   0.747   3.044
57142SOL     OW73199   0.490  11.662   6.106
57142SOL    HW173200   0.474  11.641   6.198
57142SOL    HW273201   0.577  11.702   6.105
57143SOL     OW73202  14.598   9.146  11.375
57143SOL    HW173203  14.655   9.193  11.315
57143SOL    HW273204  14.595   9.056  11.341
57144SOL     OW73205   5.769   1.938  12.487
57144SOL    HW173206   5.779   1.951  12.393
57144SOL    HW273207   5.733   2.021  12.519
57145SOL     OW73208   9.472   9.006   9.347
57145SOL    HW173209   9.399   9.056   9.384
57145SOL    HW273210   9.439   8.976   9.262
57146SOL     OW73211   3.841   6.286   6.389
57146SOL    HW173212   3.763   6.265   6.338
57146SOL    HW273213   3.823   6.252   6.477
57147SOL     OW73214   0.434   2.889   4.935
57147SOL    HW173215   0.341   2.867   4.936
57147SOL    HW273216   0.444   2.944   4.857
57148SOL     OW73217   7.398   7.269   4.770
57148SOL    HW173218   7.481   7.286   4.816
57148SOL    HW273219   7.419   7.279   4.678
57149SOL     OW73220   8.473   5.785   0.807
57149SOL    HW173221   8.404   5.850   0.793
57149SOL    HW273222   8.444   5.736   0.884
57150SOL     OW73223  13.497   3.469  14.472
57150SOL    HW173224  13.412   3.474  14.428
57150SOL    HW273225  13.556   3.433  14.406
57151SOL     OW73226   5.866   0.140   7.390
57151SOL    HW173227   5.811   0.085   7.334
57151SOL    HW273228   5.901   0.207   7.332
57152SOL     OW73229   3.441   8.975   9.686
57152SOL    HW173230   3.352   8.996   9.712
57152SOL    HW273231   3.495   9.003   9.761
57153SOL     OW73232   8.313   9.511   6.964
57153SOL    HW173233   8.275   9.546   7.045
57153SOL    HW273234   8.314   9.416   6.977
57154SOL     OW73235  14.447   1.169   1.494
57154SOL    HW173236  14.413   1.217   1.570
57154SOL    HW273237  14.497   1.096   1.531
57155SOL     OW73238   3.703   5.611  13.392
57155SOL    HW173239   3.687   5.678  13.325
57155SOL    HW273240   3.790   5.576  13.370
57156SOL     OW73241   8.863  12.124   2.157
57156SOL    HW173242   8.858  12.082   2.243
57156SOL    HW273243   8.957  12.134   2.140
57157SOL     OW73244  11.894  14.318   0.068
57157SOL    HW173245  11.888  14.223   0.052
57157SOL    HW273246  11.843  14.357  14.876
57158SOL     OW73247  12.407  13.384   0.272
57158SOL    HW173248  12.348  13.327   0.221
57158SOL    HW273249  12.349  13.452   0.308
57159SOL     OW73250   7.748   6.383  11.846
57159SOL    HW173251   7.799   6.454  11.885
57159SOL    HW273252   7.735   6.410  11.755
57160SOL     OW73253   9.315   4.514  11.432
57160SOL    HW173254   9.229   4.511  11.474
57160SOL    HW273255   9.333   4.607  11.420
57161SOL     OW73256   3.523   1.241   8.313
57161SOL    HW173257   3.490   1.307   8.254
57161SOL    HW273258   3.540   1.288   8.395
57162SOL     OW73259   6.831   1.728  14.245
57162SOL    HW173260   6.780   1.650  14.268
57162SOL    HW273261   6.876   1.705  14.164
57163SOL     OW73262   5.995   2.467  12.716
57163SOL    HW173263   6.062   2.403  12.693
57163SOL    HW273264   5.932   2.463  12.644
57164SOL     OW73265   6.081  10.509   4.554
57164SOL    HW173266   6.121  10.423   4.565
57164SOL    HW273267   6.086  10.527   4.460
57165SOL     OW73268  13.186   9.286   3.363
57165SOL    HW173269  13.099   9.253   3.385
57165SOL    HW273270  13.228   9.298   3.448
57166SOL     OW73271  10.824   7.524   5.018
57166SOL    HW173272  10.763   7.450   5.024
57166SOL    HW273273  10.870   7.524   5.102
57167SOL     OW73274  12.700  13.426   8.641
57167SOL    HW173275  12.611  13.445   8.672
57167SOL    HW273276  12.687  13.394   8.551
57168SOL     OW73277  13.931  14.267  12.474
57168SOL    HW173278  13.852  14.314  12.451
57168SOL    HW273279  13.991  14.335  12.505
57169SOL     OW73280   9.718   4.825   1.800
57169SOL    HW173281   9.688   4.872   1.723
57169SOL    HW273282   9.719   4.891   1.870
57170SOL     OW73283   8.716   9.782   1.759
57170SOL    HW173284   8.722   9.722   1.685
57170SOL    HW273285   8.743   9.730   1.834
57171SOL     OW73286   6.275   7.846   8.952
57171SOL    HW173287   6.197   7.792   8.938
57171SOL    HW273288   6.348   7.785   8.940
57172SOL     OW73289  10.704   4.901   3.532
57172SOL    HW173290  10.719   4.898   3.626
57172SOL    HW273291  10.609   4.911   3.523
57173SOL     OW73292   2.023  12.591   5.293
57173SOL    HW173293   2.113  12.593   5.326
57173SOL    HW273294   1.972  12.638   5.358
57174SOL     OW73295   7.406   9.842   6.263
57174SOL    HW173296   7.433   9.880   6.179
57174SOL    HW273297   7.481   9.856   6.321
57175SOL     OW73298   0.790   7.888   2.086
57175SOL    HW173299   0.817   7.861   1.998
57175SOL    HW273300   0.712   7.942   2.071
57176SOL     OW73301   3.046   4.887   9.407
57176SOL    HW173302   3.096   4.966   9.389
57176SOL    HW273303   2.995   4.873   9.327
57177SOL     OW73304  13.500  10.882   9.958
57177SOL    HW173305  13.502  10.912   9.867
57177SOL    HW273306  13.583  10.914   9.995
57178SOL     OW73307   8.324  11.887   5.612
57178SOL    HW173308   8.365  11.899   5.697
57178SOL    HW273309   8.243  11.840   5.631
57179SOL     OW73310   9.946   8.093   4.151
57179SOL    HW173311   9.903   8.052   4.076
57179SOL    HW273312   9.979   8.020   4.203
57180SOL     OW73313   4.978   8.302   6.358
57180SOL    HW173314   5.041   8.336   6.421
57180SOL    HW273315   4.908   8.367   6.356
57181SOL     OW73316   8.917   6.580   6.798
57181SOL    HW173317   8.875   6.656   6.837
57181SOL    HW273318   8.852   6.510   6.803
57182SOL     OW73319  13.817   5.006   0.222
57182SOL    HW173320  13.878   4.973   0.288
57182SOL    HW273321  13.756   5.061   0.272
57183SOL     OW73322   4.065  10.606   2.649
57183SOL    HW173323   4.110  10.664   2.588
57183SOL    HW273324   3.984  10.653   2.671
57184SOL     OW73325   3.356   3.878  13.350
57184SOL    HW173326   3.412   3.949  13.318
57184SOL    HW273327   3.415   3.822  13.400
57185SOL     OW73328   3.375   9.350   7.638
57185SOL    HW173329   3.412   9.287   7.576
57185SOL    HW273330   3.338   9.419   7.583
57186SOL     OW73331   5.797  12.876   7.516
57186SOL    HW173332   5.756  12.789   7.516
57186SOL    HW273333   5.783  12.908   7.426
57187SOL     OW73334   2.427   3.572  14.757
57187SOL    HW173335   2.407   3.653  14.804
57187SOL    HW273336   2.358   3.564  14.691
57188SOL     OW73337   1.454   3.101  12.982
57188SOL    HW173338   1.459   3.016  12.938
57188SOL    HW273339   1.528   3.100  13.044
57189SOL     OW73340   8.790   5.957   0.708
57189SOL    HW173341   8.815   5.995   0.623
57189SOL    HW273342   8.707   5.913   0.691
57190SOL     OW73343   5.408   6.510   3.873
57190SOL    HW173344   5.435   6.592   3.914
57190SOL    HW273345   5.433   6.520   3.781
57191SOL     OW73346   0.914   5.978  12.146
57191SOL    HW173347   0.943   5.943  12.230
57191SOL    HW273348   0.825   5.946  12.136
57192SOL     OW73349   7.388   2.862   0.880
57192SOL    HW173350   7.389   2.917   0.958
57192SOL    HW273351   7.336   2.785   0.905
57193SOL     OW73352   7.164   7.639   3.569
57193SOL    HW173353   7.246   7.654   3.617
57193SOL    HW273354   7.097   7.635   3.637
57194SOL     OW73355   1.212   1.606  11.321
57194SOL    HW173356   1.221   1.679  11.383
57194SOL    HW273357   1.121   1.610  11.293
57195SOL     OW73358   7.632  12.982  11.527
57195SOL    HW173359   7.561  12.981  11.590
57195SOL    HW273360   7.596  13.027  11.450
57196SOL     OW73361   9.141  12.966  11.326
57196SOL    HW173362   9.144  13.003  11.237
57196SOL    HW273363   9.130  12.872  11.312
57197SOL     OW73364   9.561   0.292  14.381
57197SOL    HW173365   9.545   0.383  14.355
57197SOL    HW273366   9.553   0.242  14.300
57198SOL     OW73367   6.936   4.909   1.883
57198SOL    HW173368   6.989   4.830   1.869
57198SOL    HW273369   6.999   4.976   1.909
57199SOL     OW73370   2.397   8.537   9.997
57199SOL    HW173371   2.335   8.566  10.064
57199SOL    HW273372   2.482   8.537  10.041
57200SOL     OW73373  10.733   1.266   9.094
57200SOL    HW173374  10.666   1.232   9.034
57200SOL    HW273375  10.787   1.190   9.116
57201SOL     OW73376   2.413   2.937   3.530
57201SOL    HW173377   2.381   2.913   3.616
57201SOL    HW273378   2.394   2.861   3.475
57202SOL     OW73379  14.507   0.826   2.642
57202SOL    HW173380  14.447   0.790   2.708
57202SOL    HW273381  14.453   0.887   2.591
57203SOL     OW73382  11.026   5.762   8.738
57203SOL    HW173383  10.960   5.771   8.807
57203SOL    HW273384  11.056   5.851   8.722
57204SOL     OW73385   3.786   2.477   1.565
57204SOL    HW173386   3.801   2.435   1.480
57204SOL    HW273387   3.698   2.515   1.558
57205SOL     OW73388   4.698   9.318   2.664
57205SOL    HW173389   4.755   9.296   2.590
57205SOL    HW273390   4.757   9.356   2.729
57206SOL     OW73391  12.344   9.401   5.376
57206SOL    HW173392  12.401   9.349   5.433
57206SOL    HW273393  12.321   9.341   5.305
57207SOL     OW73394  12.132   0.588  13.936
57207SOL    HW173395  12.199   0.652  13.960
57207SOL    HW273396  12.088   0.626  13.860
57208SOL     OW73397  12.271   6.992  10.922
57208SOL    HW173398  12.282   7.064  10.860
57208SOL    HW273399  12.212   7.027  10.989
57209SOL     OW73400   0.057   1.807   8.531
57209SOL    HW173401   0.003   1.886   8.521
57209SOL    HW273402   0.004   1.749   8.585
57210SOL     OW73403  12.219   8.141   8.822
57210SOL    HW173404  12.218   8.193   8.903
57210SOL    HW273405  12.298   8.170   8.776
57211SOL     OW73406  14.833  10.273  14.469
57211SOL    HW173407  14.803  10.362  14.448
57211SOL    HW273408   0.049  10.282  14.480
57212SOL     OW73409  11.777  12.198   3.304
57212SOL    HW173410  11.696  12.170   3.347
57212SOL    HW273411  11.777  12.293   3.311
57213SOL     OW73412   9.844  13.262  12.404
57213SOL    HW173413   9.784  13.218  12.463
57213SOL    HW273414   9.837  13.355  12.427
57214SOL     OW73415   0.529  10.914   7.914
57214SOL    HW173416   0.440  10.892   7.887
57214SOL    HW273417   0.528  10.908   8.009
57215SOL     OW73418   0.284   7.190   6.139
57215SOL    HW173419   0.255   7.246   6.210
57215SOL    HW273420   0.350   7.242   6.093
57216SOL     OW73421   1.562  13.387   5.389
57216SOL    HW173422   1.518  13.472   5.381
57216SOL    HW273423   1.628  13.389   5.320
57217SOL     OW73424   4.399   3.115  10.602
57217SOL    HW173425   4.403   3.021  10.584
57217SOL    HW273426   4.308   3.139  10.586
57218SOL     OW73427   4.005  12.280   7.130
57218SOL    HW173428   4.009  12.373   7.109
57218SOL    HW273429   3.931  12.273   7.191
57219SOL     OW73430  12.663  12.464   1.705
57219SOL    HW173431  12.693  12.553   1.689
57219SOL    HW273432  12.593  12.473   1.770
57220SOL     OW73433   0.840  14.321   3.015
57220SOL    HW173434   0.775  14.296   3.082
57220SOL    HW273435   0.901  14.247   3.012
57221SOL     OW73436   1.249   1.632   0.306
57221SOL    HW173437   1.324   1.647   0.364
57221SOL    HW273438   1.227   1.540   0.321
57222SOL     OW73439  11.114   5.846   0.737
57222SOL    HW173440  11.190   5.834   0.682
57222SOL    HW273441  11.143   5.907   0.805
57223SOL     OW73442   8.176  11.770  11.849
57223SOL    HW173443   8.121  11.693  11.858
57223SOL    HW273444   8.252  11.740  11.799
57224SOL     OW73445   6.379   7.891   5.526
57224SOL    HW173446   6.388   7.868   5.434
57224SOL    HW273447   6.328   7.820   5.564
57225SOL     OW73448   5.167   0.510   1.040
57225SOL    HW173449   5.083   0.555   1.039
57225SOL    HW273450   5.226   0.568   0.991
57226SOL     OW73451   3.925  14.717  14.361
57226SOL    HW173452   3.858  14.649  14.355
57226SOL    HW273453   3.931  14.753  14.273
57227SOL     OW73454   3.693  13.330  12.798
57227SOL    HW173455   3.695  13.404  12.859
57227SOL    HW273456   3.684  13.369  12.712
57228SOL     OW73457   1.965   1.823   4.695
57228SOL    HW173458   1.988   1.859   4.781
57228SOL    HW273459   1.933   1.735   4.713
57229SOL     OW73460  14.798   5.491  13.154
57229SOL    HW173461  14.708   5.509  13.183
57229SOL    HW273462  14.804   5.396  13.152
57230SOL     OW73463   2.700   4.181  13.695
57230SOL    HW173464   2.665   4.268  13.677
57230SOL    HW273465   2.788   4.197  13.727
57231SOL     OW73466   1.516   1.444   7.283
57231SOL    HW173467   1.584   1.451   7.216
57231SOL    HW273468   1.507   1.350   7.299
57232SOL     OW73469   4.815  10.779   6.165
57232SOL    HW173470   4.748  10.767   6.098
57232SOL    HW273471   4.898  10.782   6.116
57233SOL     OW73472  14.788   9.017  14.667
57233SOL    HW173473  14.867   9.069  14.649
57233SOL    HW273474  14.738   9.019  14.586
57234SOL     OW73475  11.179  12.422   9.012
57234SOL    HW173476  11.256  12.478   9.007
57234SOL    HW273477  11.173  12.380   8.926
57235SOL     OW73478   6.341   7.835   9.548
57235SOL    HW173479   6.385   7.919   9.541
57235SOL    HW273480   6.254   7.849   9.509
57236SOL     OW73481   0.660   9.198   3.461
57236SOL    HW173482   0.693   9.285   3.437
57236SOL    HW273483   0.706   9.177   3.542
57237SOL     OW73484   4.040   6.891   1.192
57237SOL    HW173485   4.075   6.813   1.150
57237SOL    HW273486   3.988   6.858   1.265
57238SOL     OW73487   5.953   4.175   3.632
57238SOL    HW173488   5.985   4.168   3.721
57238SOL    HW273489   5.939   4.269   3.618
57239SOL     OW73490   2.945   8.003   0.047
57239SOL    HW173491   2.943   8.072  14.858
57239SOL    HW273492   3.038   7.986   0.061
57240SOL     OW73493   4.060  12.483   2.528
57240SOL    HW173494   4.139  12.439   2.498
57240SOL    HW273495   4.091  12.563   2.569
57241SOL     OW73496   3.678   5.316   9.339
57241SOL    HW173497   3.739   5.376   9.381
57241SOL    HW273498   3.609   5.302   9.404
57242SOL     OW73499   5.983   7.464   6.606
57242SOL    HW173500   5.955   7.516   6.530
57242SOL    HW273501   6.037   7.523   6.657
57243SOL     OW73502   7.115   5.256   0.212
57243SOL    HW173503   7.170   5.329   0.183
57243SOL    HW273504   7.165   5.178   0.189
57244SOL     OW73505   3.345   8.222  10.608
57244SOL    HW173506   3.350   8.148  10.547
57244SOL    HW273507   3.322   8.182  10.692
57245SOL     OW73508   1.426  14.342   3.450
57245SOL    HW173509   1.440  14.344   3.355
57245SOL    HW273510   1.383  14.258   3.466
57246SOL     OW73511   8.095  13.540  12.822
57246SOL    HW173512   8.080  13.532  12.916
57246SOL    HW273513   8.130  13.629  12.811
57247SOL     OW73514   9.033  12.189   9.673
57247SOL    HW173515   8.980  12.211   9.597
57247SOL    HW273516   8.992  12.110   9.709
57248SOL     OW73517   1.762  12.657   4.185
57248SOL    HW173518   1.844  12.685   4.144
57248SOL    HW273519   1.781  12.658   4.279
57249SOL     OW73520  10.470   7.700   7.934
57249SOL    HW173521  10.532   7.774   7.934
57249SOL    HW273522  10.385   7.741   7.947
57250SOL     OW73523   6.711   0.916   4.397
57250SOL    HW173524   6.793   0.931   4.350
57250SOL    HW273525   6.738   0.896   4.486
57251SOL     OW73526  14.676   1.125   5.195
57251SOL    HW173527  14.588   1.143   5.161
57251SOL    HW273528  14.680   1.172   5.278
57252SOL     OW73529   1.939  13.806   5.401
57252SOL    HW173530   2.022  13.778   5.439
57252SOL    HW273531   1.917  13.886   5.449
57253SOL     OW73532   8.972   8.689   7.949
57253SOL    HW173533   8.977   8.737   8.031
57253SOL    HW273534   8.917   8.613   7.969
57254SOL     OW73535   9.986   0.347  11.967
57254SOL    HW173536  10.072   0.374  11.998
57254SOL    HW273537  10.004   0.278  11.902
57255SOL     OW73538  11.671   5.628  13.513
57255SOL    HW173539  11.656   5.723  13.511
57255SOL    HW273540  11.613   5.597  13.583
57256SOL     OW73541  14.513   2.911   3.208
57256SOL    HW173542  14.604   2.934   3.187
57256SOL    HW273543  14.520   2.856   3.285
57257SOL     OW73544   5.283   9.565   8.000
57257SOL    HW173545   5.304   9.531   7.912
57257SOL    HW273546   5.338   9.513   8.059
57258SOL     OW73547  11.753  13.066   8.575
57258SOL    HW173548  11.772  13.128   8.645
57258SOL    HW273549  11.710  13.118   8.508
57259SOL     OW73550   8.469   0.122   6.591
57259SOL    HW173551   8.415   0.131   6.512
57259SOL    HW273552   8.443   0.196   6.646
57260SOL     OW73553  14.210   7.953   1.990
57260SOL    HW173554  14.215   7.861   2.015
57260SOL    HW273555  14.117   7.972   1.983
57261SOL     OW73556   2.007  12.785   0.999
57261SOL    HW173557   2.077  12.792   1.064
57261SOL    HW273558   2.044  12.822   0.919
57262SOL     OW73559   1.299   2.003   1.541
57262SOL    HW173560   1.312   1.983   1.449
57262SOL    HW273561   1.274   2.096   1.543
57263SOL     OW73562   5.179   6.637   3.033
57263SOL    HW173563   5.194   6.730   3.044
57263SOL    HW273564   5.195   6.620   2.940
57264SOL     OW73565   4.409   4.270   2.992
57264SOL    HW173566   4.382   4.292   3.082
57264SOL    HW273567   4.328   4.242   2.950
57265SOL     OW73568  14.833   4.918  10.133
57265SOL    HW173569  14.856   5.011  10.130
57265SOL    HW273570   0.035   4.875  10.163
57266SOL     OW73571   0.732   6.064   4.673
57266SOL    HW173572   0.788   6.073   4.751
57266SOL    HW273573   0.678   6.143   4.674
57267SOL     OW73574   9.552  13.322   5.413
57267SOL    HW173575   9.534  13.252   5.351
57267SOL    HW273576   9.494  13.304   5.487
57268SOL     OW73577  12.196   6.747   7.700
57268SOL    HW173578  12.173   6.798   7.778
57268SOL    HW273579  12.276   6.788   7.667
57269SOL     OW73580  12.078  13.080   2.818
57269SOL    HW173581  12.033  13.156   2.780
57269SOL    HW273582  12.160  13.073   2.769
57270SOL     OW73583   5.281   8.598  13.299
57270SOL    HW173584   5.253   8.653  13.226
57270SOL    HW273585   5.366   8.633  13.325
57271SOL     OW73586   2.192   5.449   0.221
57271SOL    HW173587   2.111   5.501   0.219
57271SOL    HW273588   2.213   5.441   0.314
57272SOL     OW73589   9.515   7.760   2.074
57272SOL    HW173590   9.423   7.769   2.098
57272SOL    HW273591   9.560   7.824   2.128
57273SOL     OW73592   1.180   2.809   1.780
57273SOL    HW173593   1.192   2.796   1.686
57273SOL    HW273594   1.234   2.886   1.801
57274SOL     OW73595  14.011   4.656   2.400
57274SOL    HW173596  14.103   4.644   2.376
57274SOL    HW273597  13.966   4.661   2.316
57275SOL     OW73598  13.122   2.442  14.418
57275SOL    HW173599  13.094   2.413  14.332
57275SOL    HW273600  13.083   2.378  14.478
57276SOL     OW73601  11.319   7.197   7.780
57276SOL    HW173602  11.314   7.163   7.869
57276SOL    HW273603  11.232   7.180   7.743
57277SOL     OW73604   0.709   6.821   2.128
57277SOL    HW173605   0.760   6.797   2.205
57277SOL    HW273606   0.729   6.913   2.113
57278SOL     OW73607   3.536   6.731   0.770
57278SOL    HW173608   3.450   6.702   0.799
57278SOL    HW273609   3.560   6.801   0.831
57279SOL     OW73610  14.214  12.925   8.857
57279SOL    HW173611  14.280  12.959   8.918
57279SOL    HW273612  14.135  12.976   8.877
57280SOL     OW73613   4.592  13.394   3.136
57280SOL    HW173614   4.524  13.351   3.085
57280SOL    HW273615   4.544  13.443   3.203
57281SOL     OW73616   8.061   0.911   2.299
57281SOL    HW173617   8.069   0.825   2.342
57281SOL    HW273618   8.132   0.912   2.235
57282SOL     OW73619   3.323  11.913  11.786
57282SOL    HW173620   3.306  11.962  11.867
57282SOL    HW273621   3.247  11.933  11.731
57283SOL     OW73622   2.098  11.684  14.490
57283SOL    HW173623   2.072  11.622  14.559
57283SOL    HW273624   2.122  11.763  14.538
57284SOL     OW73625   9.941   5.246  13.246
57284SOL    HW173626   9.855   5.224  13.282
57284SOL    HW273627   9.940   5.341  13.238
57285SOL     OW73628   4.086  10.088  13.555
57285SOL    HW173629   4.023  10.157  13.576
57285SOL    HW273630   4.039  10.029  13.496
57286SOL     OW73631   6.647   9.745  12.541
57286SOL    HW173632   6.655   9.652  12.519
57286SOL    HW273633   6.675   9.791  12.462
57287SOL     OW73634   6.826  13.848   6.716
57287SOL    HW173635   6.749  13.792   6.703
57287SOL    HW273636   6.843  13.843   6.810
57288SOL     OW73637   2.173   6.886   7.533
57288SOL    HW173638   2.265   6.857   7.534
57288SOL    HW273639   2.130   6.828   7.471
57289SOL     OW73640   4.332   6.395  13.967
57289SOL    HW173641   4.313   6.485  13.939
57289SOL    HW273642   4.246   6.358  13.990
57290SOL     OW73643   0.054   6.027   2.192
57290SOL    HW173644   0.095   5.956   2.242
57290SOL    HW273645  14.849   6.044   2.236
57291SOL     OW73646   0.789   4.457   1.209
57291SOL    HW173647   0.702   4.498   1.202
57291SOL    HW273648   0.816   4.475   1.299
57292SOL     OW73649   5.869   8.100   0.366
57292SOL    HW173650   5.899   8.155   0.293
57292SOL    HW273651   5.938   8.034   0.376
57293SOL     OW73652  12.872   9.430  10.509
57293SOL    HW173653  12.963   9.440  10.482
57293SOL    HW273654  12.823   9.486  10.448
57294SOL     OW73655  13.979  10.043   4.483
57294SOL    HW173656  14.028  10.072   4.560
57294SOL    HW273657  14.035  10.065   4.409
57295SOL     OW73658   8.678  10.271   6.052
57295SOL    HW173659   8.756  10.325   6.044
57295SOL    HW273660   8.666  10.232   5.965
57296SOL     OW73661  10.108   8.570   3.422
57296SOL    HW173662  10.037   8.563   3.485
57296SOL    HW273663  10.147   8.482   3.419
57297SOL     OW73664   9.750   7.693  13.592
57297SOL    HW173665   9.809   7.746  13.646
57297SOL    HW273666   9.787   7.698  13.504
57298SOL     OW73667   8.115   0.749   3.625
57298SOL    HW173668   8.038   0.787   3.668
57298SOL    HW273669   8.157   0.823   3.582
57299SOL     OW73670   9.424  11.843   6.871
57299SOL    HW173671   9.390  11.759   6.902
57299SOL    HW273672   9.382  11.856   6.785
57300SOL     OW73673   0.122   9.821  14.401
57300SOL    HW173674   0.049   9.881  14.387
57300SOL    HW273675   0.198   9.877  14.417
57301SOL     OW73676   1.071  11.576  10.588
57301SOL    HW173677   1.164  11.587  10.608
57301SOL    HW273678   1.032  11.547  10.671
57302SOL     OW73679  13.348   8.605   5.141
57302SOL    HW173680  13.374   8.630   5.229
57302SOL    HW273681  13.424   8.624   5.087
57303SOL     OW73682  14.839   9.981   2.806
57303SOL    HW173683  14.808   9.924   2.736
57303SOL    HW273684  14.760  10.021   2.842
57304SOL     OW73685   3.831   9.815   9.229
57304SOL    HW173686   3.905   9.844   9.282
57304SOL    HW273687   3.870   9.762   9.159
57305SOL     OW73688   9.575  10.645   9.674
57305SOL    HW173689   9.578  10.740   9.665
57305SOL    HW273690   9.648  10.624   9.732
57306SOL     OW73691   1.049   1.856   9.079
57306SOL    HW173692   1.127   1.840   9.133
57306SOL    HW273693   1.062   1.944   9.044
57307SOL     OW73694   6.124   5.981  10.254
57307SOL    HW173695   6.067   6.038  10.201
57307SOL    HW273696   6.181   6.042  10.301
57308SOL     OW73697  11.936  12.243   0.433
57308SOL    HW173698  11.893  12.322   0.464
57308SOL    HW273699  11.996  12.273   0.364
57309SOL     OW73700   6.640   7.065   4.106
57309SOL    HW173701   6.631   7.115   4.187
57309SOL    HW273702   6.643   7.132   4.037
57310SOL     OW73703   3.605   9.036   9.036
57310SOL    HW173704   3.606   8.955   8.985
57310SOL    HW273705   3.516   9.042   9.070
57311SOL     OW73706   1.251   4.229   2.368
57311SOL    HW173707   1.187   4.292   2.401
57311SOL    HW273708   1.223   4.210   2.279
57312SOL     OW73709  13.826  12.057  14.145
57312SOL    HW173710  13.785  12.023  14.066
57312SOL    HW273711  13.794  12.146  14.153
57313SOL     OW73712  12.551  11.710   6.499
57313SOL    HW173713  12.605  11.725   6.422
57313SOL    HW273714  12.590  11.765   6.567
57314SOL     OW73715   3.705  12.060  11.047
57314SOL    HW173716   3.736  11.979  11.086
57314SOL    HW273717   3.625  12.036  11.001
57315SOL     OW73718  10.614   6.926   6.029
57315SOL    HW173719  10.703   6.961   6.026
57315SOL    HW273720  10.601   6.885   5.944
57316SOL     OW73721   1.115  13.557   1.040
57316SOL    HW173722   1.154  13.471   1.034
57316SOL    HW273723   1.140  13.601   0.958
57317SOL     OW73724   2.933   6.109   5.719
57317SOL    HW173725   2.980   6.179   5.765
57317SOL    HW273726   2.841   6.137   5.721
57318SOL     OW73727  10.450  10.359   5.948
57318SOL    HW173728  10.362  10.392   5.966
57318SOL    HW273729  10.474  10.312   6.028
57319SOL     OW73730   3.944   0.370   7.359
57319SOL    HW173731   4.018   0.311   7.374
57319SOL    HW273732   3.876   0.339   7.419
57320SOL     OW73733   1.943  12.336   5.281
57320SOL    HW173734   1.978  12.424   5.272
57320SOL    HW273735   1.850  12.345   5.258
57321SOL     OW73736   7.456  12.243   2.614
57321SOL    HW173737   7.402  12.221   2.538
57321SOL    HW273738   7.523  12.174   2.617
57322SOL     OW73739  14.610   6.821   8.679
57322SOL    HW173740  14.551   6.767   8.627
57322SOL    HW273741  14.576   6.910   8.671
57323SOL     OW73742  13.223  13.248   2.268
57323SOL    HW173743  13.272  13.169   2.244
57323SOL    HW273744  13.236  13.257   2.362
57324SOL     OW73745   7.190   9.968  11.282
57324SOL    HW173746   7.243  10.041  11.314
57324SOL    HW273747   7.172   9.990  11.190
57325SOL     OW73748   2.712   6.121  10.101
57325SOL    HW173749   2.671   6.173  10.032
57325SOL    HW273750   2.663   6.039  10.103
57326SOL     OW73751   9.243   8.097   1.482
57326SOL    HW173752   9.298   8.099   1.403
57326SOL    HW273753   9.165   8.147   1.458
57327SOL     OW73754  10.922   7.856  13.427
57327SOL    HW173755  10.910   7.872  13.520
57327SOL    HW273756  10.950   7.941  13.391
57328SOL     OW73757   2.744   5.328  14.438
57328SOL    HW173758   2.828   5.300  14.475
57328SOL    HW273759   2.754   5.317  14.344
57329SOL     OW73760  13.488  12.604   7.497
57329SOL    HW173761  13.416  12.615   7.559
57329SOL    HW273762  13.567  12.605   7.551
57330SOL     OW73763   5.226   8.293   6.752
57330SOL    HW173764   5.199   8.202   6.756
57330SOL    HW273765   5.151   8.342   6.787
57331SOL     OW73766  13.102  11.257   0.969
57331SOL    HW173767  13.175  11.293   1.020
57331SOL    HW273768  13.132  11.171   0.941
57332SOL     OW73769   0.262   5.178   7.928
57332SOL    HW173770   0.323   5.170   8.001
57332SOL    HW273771   0.177   5.198   7.969
57333SOL     OW73772   3.201   4.796   3.389
57333SOL    HW173773   3.277   4.740   3.406
57333SOL    HW273774   3.206   4.865   3.455
57334SOL     OW73775  14.331  14.839   8.521
57334SOL    HW173776  14.330   0.020   8.445
57334SOL    HW273777  14.348  14.753   8.484
57335SOL     OW73778   7.221   3.312   3.726
57335SOL    HW173779   7.217   3.404   3.701
57335SOL    HW273780   7.280   3.310   3.802
57336SOL     OW73781   7.904   0.354   3.376
57336SOL    HW173782   7.936   0.296   3.307
57336SOL    HW273783   7.968   0.346   3.447
57337SOL     OW73784  14.789   1.316   9.970
57337SOL    HW173785  14.790   1.353   9.882
57337SOL    HW273786  14.755   1.386  10.026
57338SOL     OW73787   3.565   8.976   9.436
57338SOL    HW173788   3.499   8.943   9.375
57338SOL    HW273789   3.542   8.938   9.520
57339SOL     OW73790  13.900   4.516   8.389
57339SOL    HW173791  13.871   4.466   8.466
57339SOL    HW273792  13.929   4.449   8.327
57340SOL     OW73793   3.993  12.101  13.323
57340SOL    HW173794   3.965  12.107  13.232
57340SOL    HW273795   4.051  12.176  13.335
57341SOL     OW73796   1.875  11.344   7.689
57341SOL    HW173797   1.944  11.282   7.666
57341SOL    HW273798   1.795  11.308   7.651
57342SOL     OW73799   0.362  12.451  13.353
57342SOL    HW173800   0.331  12.370  13.312
57342SOL    HW273801   0.328  12.448  13.442
57343SOL     OW73802  11.774   4.977   5.422
57343SOL    HW173803  11.697   4.924   5.441
57343SOL    HW273804  11.739   5.058   5.386
57344SOL     OW73805   0.926   0.710  13.162
57344SOL    HW173806   1.015   0.714  13.127
57344SOL    HW273807   0.875   0.669  13.093
57345SOL     OW73808   8.292   7.982  11.661
57345SOL    HW173809   8.321   8.017  11.577
57345SOL    HW273810   8.224   7.919  11.638
57346SOL     OW73811  10.220   8.408   9.191
57346SOL    HW173812  10.194   8.340   9.129
57346SOL    HW273813  10.197   8.372   9.277
57347SOL     OW73814   5.217   9.738   4.406
57347SOL    HW173815   5.264   9.661   4.372
57347SOL    HW273816   5.174   9.776   4.329
57348SOL     OW73817  11.024   1.627   0.691
57348SOL    HW173818  10.970   1.665   0.761
57348SOL    HW273819  10.965   1.571   0.642
57349SOL     OW73820   8.437  10.098   4.365
57349SOL    HW173821   8.368  10.045   4.325
57349SOL    HW273822   8.390  10.160   4.421
57350SOL     OW73823   9.290   3.847   4.365
57350SOL    HW173824   9.209   3.799   4.349
57350SOL    HW273825   9.334   3.797   4.434
57351SOL     OW73826   4.878   9.650   7.299
57351SOL    HW173827   4.834   9.577   7.256
57351SOL    HW273828   4.834   9.728   7.264
57352SOL     OW73829  10.435   3.424   9.957
57352SOL    HW173830  10.432   3.385   9.869
57352SOL    HW273831  10.349   3.464   9.969
57353SOL     OW73832   7.176   3.650   7.629
57353SOL    HW173833   7.169   3.740   7.661
57353SOL    HW273834   7.182   3.659   7.534
57354SOL     OW73835   1.245   2.926  14.342
57354SOL    HW173836   1.253   3.019  14.364
57354SOL    HW273837   1.172   2.923  14.279
57355SOL     OW73838   1.665  14.439  13.821
57355SOL    HW173839   1.593  14.387  13.784
57355SOL    HW273840   1.657  14.426  13.916
57356SOL     OW73841   8.782  12.871   5.831
57356SOL    HW173842   8.816  12.883   5.919
57356SOL    HW273843   8.855  12.832   5.782
57357SOL     OW73844   1.924   5.113   0.765
57357SOL    HW173845   1.833   5.142   0.752
57357SOL    HW273846   1.945   5.143   0.853
57358SOL     OW73847   4.351   5.574   7.535
57358SOL    HW173848   4.368   5.480   7.528
57358SOL    HW273849   4.412   5.605   7.601
57359SOL     OW73850   2.232  13.066   7.280
57359SOL    HW173851   2.228  13.128   7.207
57359SOL    HW273852   2.163  13.002   7.261
57360SOL     OW73853   0.174   5.349   3.483
57360SOL    HW173854   0.207   5.305   3.561
57360SOL    HW273855   0.088   5.309   3.467
57361SOL     OW73856   8.467  14.494   7.924
57361SOL    HW173857   8.530  14.470   7.992
57361SOL    HW273858   8.394  14.434   7.936
57362SOL     OW73859  14.028  14.420   0.933
57362SOL    HW173860  13.949  14.447   0.886
57362SOL    HW273861  14.099  14.465   0.889
57363SOL     OW73862   3.950   4.405   8.322
57363SOL    HW173863   4.019   4.354   8.281
57363SOL    HW273864   3.981   4.495   8.319
57364SOL     OW73865   9.656   5.241   3.968
57364SOL    HW173866   9.641   5.284   3.883
57364SOL    HW273867   9.644   5.148   3.950
57365SOL     OW73868  14.111   6.537  11.887
57365SOL    HW173869  14.046   6.557  11.820
57365SOL    HW273870  14.063   6.543  11.970
57366SOL     OW73871  13.242   4.224   3.130
57366SOL    HW173872  13.296   4.146   3.140
57366SOL    HW273873  13.301   4.297   3.150
57367SOL     OW73874   2.593   1.802   3.950
57367SOL    HW173875   2.499   1.815   3.939
57367SOL    HW273876   2.628   1.889   3.966
57368SOL     OW73877   1.341   6.726   4.551
57368SOL    HW173878   1.295   6.795   4.598
57368SOL    HW273879   1.421   6.711   4.601
57369SOL     OW73880   1.288  13.463  12.758
57369SOL    HW173881   1.258  13.478  12.668
57369SOL    HW273882   1.364  13.520  12.768
57370SOL     OW73883  10.414   0.672  12.481
57370SOL    HW173884  10.484   0.624  12.438
57370SOL    HW273885  10.450   0.698  12.565
57371SOL     OW73886  11.221  11.051   5.791
57371SOL    HW173887  11.148  11.089   5.744
57371SOL    HW273888  11.234  11.108   5.866
57372SOL     OW73889   5.444   6.723   2.897
57372SOL    HW173890   5.443   6.653   2.831
57372SOL    HW273891   5.514   6.698   2.957
57373SOL     OW73892   2.548   6.896   7.651
57373SOL    HW173893   2.615   6.838   7.688
57373SOL    HW273894   2.491   6.838   7.601
57374SOL     OW73895  13.913   1.310  13.548
57374SOL    HW173896  13.917   1.366  13.626
57374SOL    HW273897  13.854   1.356  13.488
57375SOL     OW73898   9.299   6.410  11.903
57375SOL    HW173899   9.261   6.397  11.990
57375SOL    HW273900   9.391   6.427  11.919
57376SOL     OW73901  12.576  14.313   5.131
57376SOL    HW173902  12.648  14.377   5.133
57376SOL    HW273903  12.620  14.228   5.138
57377SOL     OW73904  11.794  10.871   0.070
57377SOL    HW173905  11.866  10.887   0.010
57377SOL    HW273906  11.835  10.866   0.156
57378SOL     OW73907   3.270  14.423  11.804
57378SOL    HW173908   3.300  14.357  11.866
57378SOL    HW273909   3.348  14.476  11.787
57379SOL     OW73910  13.932  13.458   2.854
57379SOL    HW173911  13.914  13.552   2.851
57379SOL    HW273912  13.869  13.423   2.917
57380SOL     OW73913   1.449   4.327  14.180
57380SOL    HW173914   1.389   4.255  14.162
57380SOL    HW273915   1.472   4.362  14.093
57381SOL     OW73916  12.838   6.156   9.154
57381SOL    HW173917  12.788   6.119   9.081
57381SOL    HW273918  12.831   6.091   9.223
57382SOL     OW73919   6.103   5.591   8.135
57382SOL    HW173920   6.015   5.620   8.110
57382SOL    HW273921   6.110   5.502   8.100
57383SOL     OW73922  11.409   1.676   9.489
57383SOL    HW173923  11.462   1.655   9.412
57383SOL    HW273924  11.325   1.633   9.473
57384SOL     OW73925   4.204  11.628  14.001
57384SOL    HW173926   4.294  11.597  14.010
57384SOL    HW273927   4.159  11.593  14.078
57385SOL     OW73928   3.906   6.068   3.787
57385SOL    HW173929   3.850   6.146   3.789
57385SOL    HW273930   3.927   6.056   3.695
57386SOL     OW73931   7.029   8.563  10.236
57386SOL    HW173932   6.996   8.511  10.164
57386SOL    HW273933   7.085   8.504  10.286
57387SOL     OW73934  10.393   1.113   1.591
57387SOL    HW173935  10.432   1.116   1.679
57387SOL    HW273936  10.372   1.021   1.578
57388SOL     OW73937   1.773   6.070   9.753
57388SOL    HW173938   1.685   6.107   9.744
57388SOL    HW273939   1.782   6.012   9.677
57389SOL     OW73940  13.135   0.306   7.871
57389SOL    HW173941  13.167   0.223   7.834
57389SOL    HW273942  13.210   0.341   7.918
57390SOL     OW73943   7.711   4.597   1.162
57390SOL    HW173944   7.753   4.683   1.154
57390SOL    HW273945   7.753   4.557   1.238
57391SOL     OW73946  12.662  13.365   0.351
57391SOL    HW173947  12.712  13.307   0.293
57391SOL    HW273948  12.573  13.364   0.315
57392SOL     OW73949   0.969   8.840   0.094
57392SOL    HW173950   0.978   8.779   0.021
57392SOL    HW273951   0.910   8.907   0.061
57393SOL     OW73952   4.671   5.880   0.147
57393SOL    HW173953   4.616   5.939   0.095
57393SOL    HW273954   4.744   5.934   0.176
57394SOL     OW73955   9.682  13.230   3.671
57394SOL    HW173956   9.762  13.251   3.623
57394SOL    HW273957   9.700  13.146   3.713
57395SOL     OW73958  12.199   4.654   9.075
57395SOL    HW173959  12.130   4.665   9.141
57395SOL    HW273960  12.254   4.733   9.085
57396SOL     OW73961   6.115   6.110   3.025
57396SOL    HW173962   6.192   6.166   3.013
57396SOL    HW273963   6.106   6.100   3.120
57397SOL     OW73964  14.148   8.124  11.074
57397SOL    HW173965  14.092   8.053  11.104
57397SOL    HW273966  14.114   8.202  11.119
57398SOL     OW73967   4.777  12.154  10.867
57398SOL    HW173968   4.840  12.111  10.809
57398SOL    HW273969   4.697  12.160  10.815
57399SOL     OW73970  11.505  13.229   7.669
57399SOL    HW173971  11.518  13.191   7.756
57399SOL    HW273972  11.496  13.322   7.685
57400SOL     OW73973   3.979  12.323  11.366
57400SOL    HW173974   3.951  12.242  11.408
57400SOL    HW273975   3.976  12.304  11.272
57401SOL     OW73976   2.027  12.313   0.814
57401SOL    HW173977   1.935  12.289   0.826
57401SOL    HW273978   2.053  12.267   0.734
57402SOL     OW73979   8.098  14.554   8.003
57402SOL    HW173980   8.012  14.572   8.042
57402SOL    HW273981   8.154  14.531   8.077
57403SOL     OW73982   7.324  12.041   1.491
57403SOL    HW173983   7.392  11.980   1.516
57403SOL    HW273984   7.268  11.992   1.430
57404SOL     OW73985  10.805  14.720   5.519
57404SOL    HW173986  10.813  14.725   5.614
57404SOL    HW273987  10.736  14.656   5.503
57405SOL     OW73988   0.973  13.400  13.522
57405SOL    HW173989   0.924  13.347  13.584
57405SOL    HW273990   1.013  13.337  13.463
57406SOL     OW73991   3.882  12.207   3.677
57406SOL    HW173992   3.960  12.153   3.691
57406SOL    HW273993   3.881  12.223   3.583
57407SOL     OW73994   8.806  11.685  14.627
57407SOL    HW173995   8.860  11.692  14.706
57407SOL    HW273996   8.793  11.775  14.599
57408SOL     OW73997   2.292  10.412   8.337
57408SOL    HW173998   2.229  10.481   8.313
57408SOL    HW273999   2.238  10.334   8.352
57409SOL     OW74000   1.424   4.364  13.568
57409SOL    HW174001   1.442   4.285  13.517
57409SOL    HW274002   1.482   4.430  13.530
57410SOL     OW74003  13.490   4.376   1.605
57410SOL    HW174004  13.473   4.379   1.510
57410SOL    HW274005  13.405   4.395   1.645
57411SOL     OW74006  14.437   4.180   0.756
57411SOL    HW174007  14.488   4.100   0.755
57411SOL    HW274008  14.431   4.204   0.849
57412SOL     OW74009  12.296   3.543  13.830
57412SOL    HW174010  12.228   3.569  13.768
57412SOL    HW274011  12.322   3.625  13.872
57413SOL     OW74012  10.850  13.718   5.711
57413SOL    HW174013  10.766  13.707   5.665
57413SOL    HW274014  10.882  13.803   5.680
57414SOL     OW74015   5.283   9.163   4.059
57414SOL    HW174016   5.259   9.205   4.142
57414SOL    HW274017   5.353   9.218   4.024
57415SOL     OW74018   3.980   9.661   2.069
57415SOL    HW174019   4.061   9.646   2.117
57415SOL    HW274020   3.915   9.607   2.115
57416SOL     OW74021  10.088   6.838  11.782
57416SOL    HW174022  10.043   6.869  11.703
57416SOL    HW274023  10.170   6.802  11.750
57417SOL     OW74024   7.777   3.375   5.063
57417SOL    HW174025   7.836   3.373   5.138
57417SOL    HW274026   7.831   3.403   4.990
57418SOL     OW74027   2.111   9.342   3.712
57418SOL    HW174028   2.083   9.370   3.799
57418SOL    HW274029   2.149   9.255   3.727
57419SOL     OW74030   4.210   5.989   6.547
57419SOL    HW174031   4.291   5.946   6.574
57419SOL    HW274032   4.161   5.920   6.501
57420SOL     OW74033   7.650  13.785  14.332
57420SOL    HW174034   7.675  13.697  14.360
57420SOL    HW274035   7.718  13.842  14.369
57421SOL     OW74036  10.881   8.194  11.488
57421SOL    HW174037  10.808   8.208  11.548
57421SOL    HW274038  10.871   8.103  11.460
57422SOL     OW74039   4.387   1.054   7.659
57422SOL    HW174040   4.378   1.062   7.754
57422SOL    HW274041   4.302   1.019   7.631
57423SOL     OW74042   2.450  11.944   5.452
57423SOL    HW174043   2.507  11.913   5.382
57423SOL    HW274044   2.436  11.868   5.508
57424SOL     OW74045   2.103   7.512   1.819
57424SOL    HW174046   2.104   7.416   1.823
57424SOL    HW274047   2.042   7.538   1.888
57425SOL     OW74048  14.643  12.657   1.451
57425SOL    HW174049  14.548  12.658   1.459
57425SOL    HW274050  14.675  12.699   1.531
57426SOL     OW74051   3.590   7.244   1.788
57426SOL    HW174052   3.655   7.181   1.759
57426SOL    HW274053   3.640   7.324   1.805
57427SOL     OW74054   2.546   7.998   0.516
57427SOL    HW174055   2.602   8.061   0.471
57427SOL    HW274056   2.590   7.914   0.503
57428SOL     OW74057   1.105  11.400   7.372
57428SOL    HW174058   1.077  11.425   7.460
57428SOL    HW274059   1.032  11.427   7.316
57429SOL     OW74060   1.812   3.163  10.527
57429SOL    HW174061   1.744   3.147  10.592
57429SOL    HW274062   1.878   3.214  10.574
57430SOL     OW74063  12.743  12.989  10.585
57430SOL    HW174064  12.802  12.913  10.581
57430SOL    HW274065  12.697  12.988  10.501
57431SOL     OW74066  14.408   2.838   0.077
57431SOL    HW174067  14.476   2.807   0.018
57431SOL    HW274068  14.383   2.924   0.043
57432SOL     OW74069  12.103  11.656   7.508
57432SOL    HW174070  12.047  11.733   7.510
57432SOL    HW274071  12.188  11.687   7.539
57433SOL     OW74072   4.066   6.324   5.595
57433SOL    HW174073   4.050   6.314   5.689
57433SOL    HW274074   3.979   6.334   5.556
57434SOL     OW74075   9.464  11.545  10.468
57434SOL    HW174076   9.386  11.496  10.442
57434SOL    HW274077   9.510  11.487  10.528
57435SOL     OW74078   3.911  11.467   5.970
57435SOL    HW174079   3.824  11.431   5.954
57435SOL    HW274080   3.959  11.396   6.014
57436SOL     OW74081   8.590   3.377   0.744
57436SOL    HW174082   8.676   3.353   0.777
57436SOL    HW274083   8.530   3.351   0.814
57437SOL     OW74084  14.241   8.352   3.614
57437SOL    HW174085  14.156   8.373   3.575
57437SOL    HW274086  14.220   8.319   3.701
57438SOL     OW74087   0.841   1.280  10.802
57438SOL    HW174088   0.931   1.311  10.813
57438SOL    HW274089   0.803   1.288  10.890
57439SOL     OW74090   6.823  10.946   9.548
57439SOL    HW174091   6.787  10.910   9.629
57439SOL    HW274092   6.772  10.903   9.478
57440SOL     OW74093   7.560  12.905   4.751
57440SOL    HW174094   7.492  12.858   4.703
57440SOL    HW274095   7.520  12.923   4.836
57441SOL     OW74096  14.133   2.120   4.854
57441SOL    HW174097  14.123   2.033   4.818
57441SOL    HW274098  14.177   2.170   4.785
57442SOL     OW74099   3.568  13.034   6.173
57442SOL    HW174100   3.653  13.078   6.179
57442SOL    HW274101   3.590  12.942   6.159
57443SOL     OW74102   2.832   9.114  12.384
57443SOL    HW174103   2.778   9.043  12.419
57443SOL    HW274104   2.895   9.133  12.454
57444SOL     OW74105   8.168   2.299  14.717
57444SOL    HW174106   8.119   2.342  14.787
57444SOL    HW274107   8.206   2.372  14.667
57445SOL     OW74108  14.806   3.371   5.818
57445SOL    HW174109  14.793   3.461   5.846
57445SOL    HW274110  14.717   3.335   5.812
57446SOL     OW74111  11.899   6.180   0.916
57446SOL    HW174112  11.959   6.108   0.900
57446SOL    HW274113  11.813   6.147   0.890
57447SOL     OW74114   0.398   8.175  12.460
57447SOL    HW174115   0.321   8.219  12.494
57447SOL    HW274116   0.428   8.230  12.388
57448SOL     OW74117   4.021  12.348  12.882
57448SOL    HW174118   4.061  12.331  12.797
57448SOL    HW274119   3.937  12.390  12.861
57449SOL     OW74120   0.502  11.149   6.619
57449SOL    HW174121   0.593  11.176   6.605
57449SOL    HW274122   0.506  11.054   6.629
57450SOL     OW74123  13.588  10.208   2.867
57450SOL    HW174124  13.668  10.192   2.817
57450SOL    HW274125  13.617  10.212   2.959
57451SOL     OW74126  13.580   5.513   9.545
57451SOL    HW174127  13.543   5.442   9.598
57451SOL    HW274128  13.584   5.588   9.604
57452SOL     OW74129  10.965   5.334   2.133
57452SOL    HW174130  10.915   5.306   2.210
57452SOL    HW274131  11.056   5.334   2.163
57453SOL     OW74132  12.517   4.657  13.447
57453SOL    HW174133  12.494   4.614  13.529
57453SOL    HW274134  12.447   4.633  13.387
57454SOL     OW74135   9.103   5.288   5.360
57454SOL    HW174136   9.025   5.332   5.327
57454SOL    HW274137   9.167   5.298   5.290
57455SOL     OW74138   1.947   8.283  14.388
57455SOL    HW174139   2.022   8.311  14.440
57455SOL    HW274140   1.974   8.296  14.297
57456SOL     OW74141   5.229   6.132   6.334
57456SOL    HW174142   5.143   6.142   6.376
57456SOL    HW274143   5.221   6.182   6.253
57457SOL     OW74144   3.907  10.770   8.419
57457SOL    HW174145   3.935  10.701   8.479
57457SOL    HW274146   3.988  10.812   8.391
57458SOL     OW74147   0.720   3.398   5.163
57458SOL    HW174148   0.738   3.358   5.248
57458SOL    HW274149   0.774   3.350   5.101
57459SOL     OW74150   0.724   1.801   1.165
57459SOL    HW174151   0.750   1.890   1.190
57459SOL    HW274152   0.728   1.751   1.247
57460SOL     OW74153   6.613  14.313   1.537
57460SOL    HW174154   6.693  14.364   1.544
57460SOL    HW274155   6.642  14.223   1.519
57461SOL     OW74156   6.355   9.814  14.746
57461SOL    HW174157   6.324   9.736  14.791
57461SOL    HW274158   6.434   9.786  14.700
57462SOL     OW74159   2.335  10.121  13.018
57462SOL    HW174160   2.285  10.141  12.939
57462SOL    HW274161   2.381  10.039  12.996
57463SOL     OW74162   5.774  14.659   0.665
57463SOL    HW174163   5.816  14.701   0.740
57463SOL    HW274164   5.681  14.659   0.687
57464SOL     OW74165  14.809   8.118   5.200
57464SOL    HW174166   0.022   8.095   5.219
57464SOL    HW274167  14.813   8.160   5.114
57465SOL     OW74168   6.109   0.103   8.304
57465SOL    HW174169   6.090   0.190   8.337
57465SOL    HW274170   6.164   0.063   8.371
57466SOL     OW74171   8.958   0.053  14.483
57466SOL    HW174172   8.911   0.100  14.552
57466SOL    HW274173   9.016  14.871  14.530
57467SOL     OW74174   3.966   7.585   1.843
57467SOL    HW174175   3.881   7.542   1.844
57467SOL    HW274176   3.963   7.647   1.915
57468SOL     OW74177   3.169   8.890   2.431
57468SOL    HW174178   3.156   8.796   2.427
57468SOL    HW274179   3.199   8.914   2.343
57469SOL     OW74180  11.818   9.143   5.049
57469SOL    HW174181  11.822   9.143   4.954
57469SOL    HW274182  11.729   9.172   5.070
57470SOL     OW74183  12.859   4.529   4.845
57470SOL    HW174184  12.867   4.439   4.814
57470SOL    HW274185  12.803   4.572   4.781
57471SOL     OW74186   7.379  10.181   4.576
57471SOL    HW174187   7.310  10.188   4.510
57471SOL    HW274188   7.421  10.097   4.557
57472SOL     OW74189  12.525  13.778  10.903
57472SOL    HW174190  12.509  13.861  10.857
57472SOL    HW274191  12.489  13.792  10.991
57473SOL     OW74192   2.064   4.084  12.541
57473SOL    HW174193   2.069   4.098  12.636
57473SOL    HW274194   2.074   3.989  12.531
57474SOL     OW74195  13.302   6.752   8.642
57474SOL    HW174196  13.376   6.731   8.697
57474SOL    HW274197  13.225   6.741   8.698
57475SOL     OW74198   7.409  10.729   8.732
57475SOL    HW174199   7.413  10.703   8.640
57475SOL    HW274200   7.482  10.790   8.743
57476SOL     OW74201  11.943  14.052  12.178
57476SOL    HW174202  12.008  14.100  12.126
57476SOL    HW274203  11.996  13.991  12.230
57477SOL     OW74204  13.358  12.974   4.057
57477SOL    HW174205  13.329  13.055   4.014
57477SOL    HW274206  13.362  12.997   4.150
57478SOL     OW74207   6.911   4.576   8.828
57478SOL    HW174208   6.888   4.652   8.882
57478SOL    HW274209   6.948   4.615   8.749
57479SOL     OW74210   1.582   9.483   7.339
57479SOL    HW174211   1.576   9.390   7.360
57479SOL    HW274212   1.539   9.491   7.254
57480SOL     OW74213  11.423   4.508   4.722
57480SOL    HW174214  11.342   4.536   4.762
57480SOL    HW274215  11.398   4.480   4.634
57481SOL     OW74216   7.999  12.440  10.645
57481SOL    HW174217   8.082  12.462  10.602
57481SOL    HW274218   7.971  12.522  10.687
57482SOL     OW74219   5.730   6.391   8.850
57482SOL    HW174220   5.647   6.418   8.890
57482SOL    HW274221   5.792   6.460   8.875
57483SOL     OW74222   3.322  13.161   3.771
57483SOL    HW174223   3.294  13.121   3.689
57483SOL    HW274224   3.257  13.132   3.835
57484SOL     OW74225   1.494   6.882  10.066
57484SOL    HW174226   1.553   6.820  10.110
57484SOL    HW274227   1.424   6.899  10.129
57485SOL     OW74228  12.951  13.218  13.001
57485SOL    HW174229  13.017  13.259  12.945
57485SOL    HW274230  12.979  13.126  13.008
57486SOL     OW74231   6.676   9.488  13.129
57486SOL    HW174232   6.630   9.573  13.130
57486SOL    HW274233   6.636   9.441  13.056
57487SOL     OW74234   9.279   0.979   8.283
57487SOL    HW174235   9.189   1.004   8.263
57487SOL    HW274236   9.308   1.043   8.347
57488SOL     OW74237   1.159   9.041   9.112
57488SOL    HW174238   1.067   9.059   9.131
57488SOL    HW274239   1.177   8.957   9.155
57489SOL     OW74240   8.202  10.724   7.760
57489SOL    HW174241   8.230  10.797   7.704
57489SOL    HW274242   8.246  10.648   7.724
57490SOL     OW74243   8.427   5.816  10.753
57490SOL    HW174244   8.354   5.867  10.718
57490SOL    HW274245   8.417   5.821  10.848
57491SOL     OW74246  12.752   4.841   7.470
57491SOL    HW174247  12.808   4.877   7.540
57491SOL    HW274248  12.812   4.825   7.397
57492SOL     OW74249  10.465   0.427   3.294
57492SOL    HW174250  10.501   0.408   3.380
57492SOL    HW274251  10.393   0.488   3.311
57493SOL     OW74252  13.013  14.227  14.241
57493SOL    HW174253  13.027  14.274  14.323
57493SOL    HW274254  13.028  14.135  14.263
57494SOL     OW74255  14.481   2.290   1.679
57494SOL    HW174256  14.439   2.361   1.630
57494SOL    HW274257  14.410   2.250   1.729
57495SOL     OW74258   0.492   4.718  13.436
57495SOL    HW174259   0.426   4.654  13.464
57495SOL    HW274260   0.463   4.746  13.350
57496SOL     OW74261  11.423   9.657  10.137
57496SOL    HW174262  11.338   9.697  10.156
57496SOL    HW274263  11.437   9.596  10.209
57497SOL     OW74264   2.434   3.402   9.897
57497SOL    HW174265   2.418   3.315   9.934
57497SOL    HW274266   2.402   3.396   9.807
57498SOL     OW74267   1.028   1.833   2.412
57498SOL    HW174268   0.989   1.871   2.334
57498SOL    HW274269   0.956   1.832   2.477
57499SOL     OW74270  10.955   1.554  11.876
57499SOL    HW174271  10.904   1.475  11.890
57499SOL    HW274272  11.008   1.535  11.799
57500SOL     OW74273   6.618   6.125   8.590
57500SOL    HW174274   6.657   6.059   8.648
57500SOL    HW274275   6.537   6.151   8.635
57501SOL     OW74276  14.129  13.497   7.800
57501SOL    HW174277  14.103  13.501   7.892
57501SOL    HW274278  14.063  13.549   7.754
57502SOL     OW74279   5.916   4.476   2.136
57502SOL    HW174280   5.881   4.482   2.225
57502SOL    HW274281   5.959   4.560   2.122
57503SOL     OW74282   8.026   0.087   1.076
57503SOL    HW174283   7.979   0.084   1.159
57503SOL    HW274284   8.060  14.876   1.064
57504SOL     OW74285   6.581   5.014   1.516
57504SOL    HW174286   6.641   5.017   1.590
57504SOL    HW274287   6.501   5.057   1.547
57505SOL     OW74288   7.143  12.480   3.154
57505SOL    HW174289   7.228  12.486   3.109
57505SOL    HW274290   7.103  12.401   3.118
57506SOL     OW74291  12.511  13.772   6.399
57506SOL    HW174292  12.479  13.862   6.399
57506SOL    HW274293  12.606  13.780   6.402
57507SOL     OW74294   0.590   9.480   1.792
57507SOL    HW174295   0.627   9.414   1.733
57507SOL    HW274296   0.496   9.479   1.773
57508SOL     OW74297   7.066   6.874   4.795
57508SOL    HW174298   7.018   6.918   4.725
57508SOL    HW274299   7.153   6.915   4.795
57509SOL     OW74300   3.803   7.864   8.215
57509SOL    HW174301   3.854   7.929   8.166
57509SOL    HW274302   3.761   7.811   8.148
57510SOL     OW74303   6.912   6.690   1.553
57510SOL    HW174304   6.916   6.613   1.496
57510SOL    HW274305   6.937   6.763   1.497
57511SOL     OW74306   7.565  11.074   4.871
57511SOL    HW174307   7.543  11.008   4.937
57511SOL    HW274308   7.514  11.151   4.896
57512SOL     OW74309   2.497   9.848   4.592
57512SOL    HW174310   2.489   9.769   4.538
57512SOL    HW274311   2.468   9.820   4.679
57513SOL     OW74312   1.899   0.242   4.244
57513SOL    HW174313   1.959   0.183   4.290
57513SOL    HW274314   1.879   0.310   4.309
57514SOL     OW74315   1.921  11.362   6.917
57514SOL    HW174316   1.851  11.367   6.852
57514SOL    HW274317   1.876  11.372   7.001
57515SOL     OW74318  11.149  11.804   3.999
57515SOL    HW174319  11.197  11.801   3.916
57515SOL    HW274320  11.057  11.814   3.974
57516SOL     OW74321   0.319   2.198  13.723
57516SOL    HW174322   0.303   2.292  13.732
57516SOL    HW274323   0.415   2.189  13.728
57517SOL     OW74324   2.849  10.470   4.358
57517SOL    HW174325   2.885  10.537   4.417
57517SOL    HW274326   2.754  10.479   4.365
57518SOL     OW74327   1.601   8.920   7.707
57518SOL    HW174328   1.518   8.889   7.672
57518SOL    HW274329   1.641   8.968   7.634
57519SOL     OW74330   3.757   9.889  12.286
57519SOL    HW174331   3.691   9.952  12.257
57519SOL    HW274332   3.814   9.940  12.344
57520SOL     OW74333  14.666  13.429  13.509
57520SOL    HW174334  14.663  13.407  13.415
57520SOL    HW274335  14.632  13.518  13.513
57521SOL     OW74336   7.776   6.316   5.571
57521SOL    HW174337   7.804   6.246   5.511
57521SOL    HW274338   7.856   6.366   5.587
57522SOL     OW74339  11.406   1.479   8.036
57522SOL    HW174340  11.321   1.465   8.077
57522SOL    HW274341  11.467   1.429   8.089
57523SOL     OW74342  10.498  14.828   1.768
57523SOL    HW174343  10.488  14.803   1.676
57523SOL    HW274344  10.433   0.019   1.781
57524SOL     OW74345   0.329  10.920   5.317
57524SOL    HW174346   0.245  10.881   5.340
57524SOL    HW274347   0.377  10.925   5.400
57525SOL     OW74348   5.298  12.750   2.635
57525SOL    HW174349   5.376  12.806   2.629
57525SOL    HW274350   5.321  12.672   2.585
57526SOL     OW74351   4.863   0.534  10.014
57526SOL    HW174352   4.805   0.608  10.028
57526SOL    HW274353   4.808   0.457  10.030
57527SOL     OW74354  11.818   2.848  14.470
57527SOL    HW174355  11.798   2.809  14.385
57527SOL    HW274356  11.760   2.803  14.531
57528SOL     OW74357   2.453   7.350   1.678
57528SOL    HW174358   2.538   7.352   1.633
57528SOL    HW274359   2.466   7.287   1.749
57529SOL     OW74360   4.433  12.113   6.165
57529SOL    HW174361   4.444  12.135   6.072
57529SOL    HW274362   4.350  12.153   6.190
57530SOL     OW74363   1.817  13.625  11.032
57530SOL    HW174364   1.806  13.636  10.937
57530SOL    HW274365   1.768  13.698  11.070
57531SOL     OW74366   1.066  10.749   8.674
57531SOL    HW174367   1.074  10.815   8.743
57531SOL    HW274368   1.008  10.789   8.610
57532SOL     OW74369  11.950   5.865   9.477
57532SOL    HW174370  11.907   5.940   9.517
57532SOL    HW274371  11.955   5.800   9.547
57533SOL     OW74372  11.097   5.526   1.015
57533SOL    HW174373  11.138   5.479   0.943
57533SOL    HW274374  11.126   5.616   1.006
57534SOL     OW74375   4.551  10.168   2.353
57534SOL    HW174376   4.640  10.162   2.318
57534SOL    HW274377   4.525  10.259   2.336
57535SOL     OW74378   6.780   5.179  14.615
57535SOL    HW174379   6.729   5.197  14.694
57535SOL    HW274380   6.825   5.262  14.597
57536SOL     OW74381   6.454  11.708   8.012
57536SOL    HW174382   6.386  11.692   7.947
57536SOL    HW274383   6.477  11.621   8.045
57537SOL     OW74384   6.370   2.635   4.230
57537SOL    HW174385   6.427   2.600   4.162
57537SOL    HW274386   6.304   2.685   4.183
57538SOL     OW74387   8.876   3.087   7.024
57538SOL    HW174388   8.895   3.138   6.946
57538SOL    HW274389   8.848   3.151   7.089
57539SOL     OW74390   6.895   9.149   0.673
57539SOL    HW174391   6.827   9.090   0.706
57539SOL    HW274392   6.901   9.218   0.740
57540SOL     OW74393  14.807  10.124   9.229
57540SOL    HW174394  14.816  10.104   9.136
57540SOL    HW274395  14.713  10.138   9.241
57541SOL     OW74396  12.454   6.929   1.954
57541SOL    HW174397  12.496   6.981   1.886
57541SOL    HW274398  12.364   6.961   1.957
57542SOL     OW74399   4.172   1.533   5.075
57542SOL    HW174400   4.140   1.583   5.150
57542SOL    HW274401   4.117   1.455   5.073
57543SOL     OW74402   2.113   2.282  11.503
57543SOL    HW174403   2.155   2.196  11.507
57543SOL    HW274404   2.137   2.323  11.586
57544SOL     OW74405   9.609   2.236  10.270
57544SOL    HW174406   9.668   2.249  10.344
57544SOL    HW274407   9.646   2.291  10.200
57545SOL     OW74408   0.033   8.130   4.781
57545SOL    HW174409   0.070   8.042   4.793
57545SOL    HW274410   0.077   8.183   4.848
57546SOL     OW74411  13.909   0.624   0.233
57546SOL    HW174412  13.824   0.665   0.247
57546SOL    HW274413  13.899   0.577   0.151
57547SOL     OW74414  13.861   0.116   7.995
57547SOL    HW174415  13.821   0.197   7.964
57547SOL    HW274416  13.933   0.144   8.051
57548SOL     OW74417  11.859   3.389  11.208
57548SOL    HW174418  11.768   3.362  11.220
57548SOL    HW274419  11.910   3.311  11.230
57549SOL     OW74420   4.591   9.162  12.951
57549SOL    HW174421   4.586   9.257  12.949
57549SOL    HW274422   4.514   9.134  13.000
57550SOL     OW74423  11.262   7.889   3.704
57550SOL    HW174424  11.296   7.935   3.780
57550SOL    HW274425  11.177   7.855   3.733
57551SOL     OW74426   6.961   0.733   2.313
57551SOL    HW174427   6.967   0.673   2.387
57551SOL    HW274428   7.034   0.708   2.256
57552SOL     OW74429   1.116   6.495   3.709
57552SOL    HW174430   1.166   6.427   3.664
57552SOL    HW274431   1.097   6.457   3.795
57553SOL     OW74432   2.398   0.180   1.667
57553SOL    HW174433   2.339   0.119   1.622
57553SOL    HW274434   2.485   0.143   1.653
57554SOL     OW74435   7.198  11.670   4.511
57554SOL    HW174436   7.166  11.580   4.524
57554SOL    HW274437   7.165  11.695   4.425
57555SOL     OW74438   0.334   8.658   8.113
57555SOL    HW174439   0.271   8.730   8.116
57555SOL    HW274440   0.396   8.677   8.183
57556SOL     OW74441   6.857   6.614   5.758
57556SOL    HW174442   6.768   6.621   5.724
57556SOL    HW274443   6.877   6.703   5.789
57557SOL     OW74444   0.947   3.814   8.734
57557SOL    HW174445   0.987   3.834   8.819
57557SOL    HW274446   0.856   3.795   8.755
57558SOL     OW74447   8.144   9.401   9.345
57558SOL    HW174448   8.142   9.456   9.267
57558SOL    HW274449   8.217   9.341   9.330
57559SOL     OW74450   8.244   3.342  14.114
57559SOL    HW174451   8.315   3.298  14.066
57559SOL    HW274452   8.175   3.354  14.049
57560SOL     OW74453   9.804   6.024  12.123
57560SOL    HW174454   9.778   5.969  12.049
57560SOL    HW274455   9.726   6.025  12.179
57561SOL     OW74456   9.694   5.241   3.692
57561SOL    HW174457   9.750   5.163   3.689
57561SOL    HW274458   9.669   5.256   3.601
57562SOL     OW74459  12.969  10.139  10.587
57562SOL    HW174460  13.011  10.088  10.657
57562SOL    HW274461  12.980  10.230  10.614
57563SOL     OW74462   6.997  11.045   1.702
57563SOL    HW174463   6.923  11.086   1.658
57563SOL    HW274464   7.004  10.958   1.663
57564SOL     OW74465   6.222  13.356   1.698
57564SOL    HW174466   6.236  13.333   1.790
57564SOL    HW274467   6.297  13.412   1.676
57565SOL     OW74468   4.798  11.260   0.184
57565SOL    HW174469   4.887  11.294   0.173
57565SOL    HW274470   4.801  11.173   0.145
57566SOL     OW74471   3.389  12.873   0.687
57566SOL    HW174472   3.367  12.782   0.709
57566SOL    HW274473   3.472  12.889   0.732
57567SOL     OW74474  10.903  14.519  11.578
57567SOL    HW174475  10.860  14.440  11.545
57567SOL    HW274476  10.959  14.548  11.506
57568SOL     OW74477  12.109   3.527   4.794
57568SOL    HW174478  12.120   3.605   4.739
57568SOL    HW274479  12.171   3.539   4.865
57569SOL     OW74480   7.035  12.231   3.453
57569SOL    HW174481   7.049  12.149   3.405
57569SOL    HW274482   7.115  12.242   3.505
57570SOL     OW74483   1.030   6.144   2.055
57570SOL    HW174484   1.040   6.212   2.121
57570SOL    HW274485   0.954   6.094   2.083
57571SOL     OW74486   2.095  12.630   7.091
57571SOL    HW174487   2.111  12.593   7.005
57571SOL    HW274488   2.067  12.556   7.144
57572SOL     OW74489   4.772  13.650   8.755
57572SOL    HW174490   4.730  13.583   8.809
57572SOL    HW274491   4.861  13.617   8.741
57573SOL     OW74492   8.793   0.591  14.553
57573SOL    HW174493   8.798   0.678  14.515
57573SOL    HW274494   8.802   0.605  14.648
57574SOL     OW74495  10.650   8.020   7.781
57574SOL    HW174496  10.618   7.960   7.847
57574SOL    HW274497  10.572   8.047   7.732
57575SOL     OW74498   6.237   4.746   8.222
57575SOL    HW174499   6.271   4.782   8.304
57575SOL    HW274500   6.315   4.719   8.173
57576SOL     OW74501  11.670   0.199  13.050
57576SOL    HW174502  11.750   0.163  13.090
57576SOL    HW274503  11.690   0.201  12.957
57577SOL     OW74504  11.761   4.644   4.919
57577SOL    HW174505  11.732   4.554   4.928
57577SOL    HW274506  11.752   4.681   5.007
57578SOL     OW74507   8.212   2.267   1.789
57578SOL    HW174508   8.305   2.266   1.768
57578SOL    HW274509   8.175   2.334   1.732
57579SOL     OW74510   2.690   0.108   5.600
57579SOL    HW174511   2.712   0.197   5.575
57579SOL    HW274512   2.753   0.085   5.669
57580SOL     OW74513   6.062  11.846  11.083
57580SOL    HW174514   6.085  11.763  11.041
57580SOL    HW274515   6.033  11.902  11.012
57581SOL     OW74516   3.250   5.213   7.102
57581SOL    HW174517   3.278   5.268   7.029
57581SOL    HW274518   3.177   5.260   7.141
57582SOL     OW74519   8.062   4.278   9.500
57582SOL    HW174520   8.076   4.308   9.590
57582SOL    HW274521   8.137   4.312   9.452
57583SOL     OW74522  12.026   8.110  13.370
57583SOL    HW174523  12.116   8.141  13.374
57583SOL    HW274524  12.003   8.092  13.461
57584SOL     OW74525  11.630   3.324  14.670
57584SOL    HW174526  11.640   3.344  14.577
57584SOL    HW274527  11.719   3.308  14.701
57585SOL     OW74528   4.825   5.925   4.400
57585SOL    HW174529   4.887   5.995   4.419
57585SOL    HW274530   4.833   5.911   4.305
57586SOL     OW74531  12.707   7.076   6.870
57586SOL    HW174532  12.637   7.123   6.914
57586SOL    HW274533  12.666   6.996   6.837
57587SOL     OW74534   6.545  11.215   8.457
57587SOL    HW174535   6.626  11.176   8.490
57587SOL    HW274536   6.475  11.164   8.498
57588SOL     OW74537   6.763   5.400   4.568
57588SOL    HW174538   6.785   5.389   4.476
57588SOL    HW274539   6.824   5.341   4.614
57589SOL     OW74540   1.709  12.185   6.023
57589SOL    HW174541   1.796  12.211   6.054
57589SOL    HW274542   1.723  12.156   5.933
57590SOL     OW74543  11.371   5.440  11.832
57590SOL    HW174544  11.285   5.478  11.845
57590SOL    HW274545  11.376   5.421  11.738
57591SOL     OW74546   5.583  13.983   8.656
57591SOL    HW174547   5.632  14.055   8.616
57591SOL    HW274548   5.616  13.904   8.613
57592SOL     OW74549   6.791  14.751  14.858
57592SOL    HW174550   6.841  14.675  14.829
57592SOL    HW274551   6.844  14.789   0.051
57593SOL     OW74552   8.172   1.526  12.605
57593SOL    HW174553   8.158   1.440  12.566
57593SOL    HW274554   8.085   1.553  12.634
57594SOL     OW74555   3.422   4.432   8.591
57594SOL    HW174556   3.410   4.493   8.664
57594SOL    HW274557   3.515   4.409   8.595
57595SOL     OW74558   5.237   2.940   7.183
57595SOL    HW174559   5.183   2.955   7.106
57595SOL    HW274560   5.325   2.926   7.149
57596SOL     OW74561   0.733   8.559   0.853
57596SOL    HW174562   0.638   8.559   0.865
57596SOL    HW274563   0.758   8.467   0.865
57597SOL     OW74564   6.281   8.916  10.130
57597SOL    HW174565   6.354   8.973  10.108
57597SOL    HW274566   6.306   8.830  10.094
57598SOL     OW74567   9.242   9.022   6.891
57598SOL    HW174568   9.169   9.084   6.883
57598SOL    HW274569   9.291   9.032   6.810
57599SOL     OW74570   7.754   2.558  10.092
57599SOL    HW174571   7.763   2.547   9.997
57599SOL    HW274572   7.700   2.636  10.102
57600SOL     OW74573   7.570  14.762   7.670
57600SOL    HW174574   7.636  14.828   7.690
57600SOL    HW274575   7.487  14.810   7.675
57601SOL     OW74576   4.844   4.679   4.918
57601SOL    HW174577   4.884   4.604   4.872
57601SOL    HW274578   4.849   4.655   5.011
57602SOL     OW74579   8.344  14.390   1.469
57602SOL    HW174580   8.339  14.485   1.479
57602SOL    HW274581   8.253  14.362   1.456
57603SOL     OW74582   5.845  13.469   3.997
57603SOL    HW174583   5.802  13.524   4.063
57603SOL    HW274584   5.785  13.395   3.984
57604SOL     OW74585   4.102   3.104   0.536
57604SOL    HW174586   4.087   3.060   0.452
57604SOL    HW274587   4.078   3.195   0.520
57605SOL     OW74588  14.169   6.495  12.300
57605SOL    HW174589  14.082   6.454  12.294
57605SOL    HW274590  14.173   6.528  12.390
57606SOL     OW74591   8.211  14.581   8.348
57606SOL    HW174592   8.233  14.630   8.427
57606SOL    HW274593   8.228  14.642   8.276
57607SOL     OW74594   4.308  11.833   1.169
57607SOL    HW174595   4.308  11.874   1.083
57607SOL    HW274596   4.215  11.831   1.194
57608SOL     OW74597   9.860   8.196  12.100
57608SOL    HW174598   9.797   8.210  12.170
57608SOL    HW274599   9.835   8.259  12.032
57609SOL     OW74600  10.937   4.089   7.991
57609SOL    HW174601  10.843   4.101   7.978
57609SOL    HW274602  10.957   4.007   7.947
57610SOL     OW74603  12.336   6.671   2.981
57610SOL    HW174604  12.387   6.590   2.988
57610SOL    HW274605  12.401   6.740   2.978
57611SOL     OW74606  11.884  13.181  12.992
57611SOL    HW174607  11.863  13.088  13.000
57611SOL    HW274608  11.943  13.198  13.066
57612SOL     OW74609  10.280  14.505   0.523
57612SOL    HW174610  10.313  14.497   0.612
57612SOL    HW274611  10.203  14.561   0.530
57613SOL     OW74612   4.889   7.835  12.034
57613SOL    HW174613   4.825   7.825  12.105
57613SOL    HW274614   4.844   7.800  11.957
57614SOL     OW74615   8.635   4.192  14.858
57614SOL    HW174616   8.652   4.201   0.073
57614SOL    HW274617   8.721   4.168  14.821
57615SOL     OW74618   1.719   7.854   2.574
57615SOL    HW174619   1.680   7.833   2.658
57615SOL    HW274620   1.720   7.950   2.572
57616SOL     OW74621  10.406   6.544   1.804
57616SOL    HW174622  10.350   6.576   1.734
57616SOL    HW274623  10.466   6.482   1.761
57617SOL     OW74624   6.930  13.754   2.657
57617SOL    HW174625   6.858  13.695   2.678
57617SOL    HW274626   6.948  13.801   2.738
57618SOL     OW74627  13.106   5.678   8.296
57618SOL    HW174628  13.090   5.710   8.208
57618SOL    HW274629  13.094   5.755   8.352
57619SOL     OW74630  11.942   2.899   3.600
57619SOL    HW174631  12.016   2.926   3.654
57619SOL    HW274632  11.877   2.867   3.663
57620SOL     OW74633   1.459   5.397  10.580
57620SOL    HW174634   1.476   5.303  10.578
57620SOL    HW274635   1.364   5.404  10.592
57621SOL     OW74636   2.808   8.426   4.317
57621SOL    HW174637   2.770   8.513   4.321
57621SOL    HW274638   2.897   8.437   4.351
57622SOL     OW74639  10.979   3.631  13.800
57622SOL    HW174640  10.917   3.575  13.847
57622SOL    HW274641  11.063   3.616  13.845
57623SOL     OW74642   0.818   3.671   7.874
57623SOL    HW174643   0.771   3.608   7.929
57623SOL    HW274644   0.762   3.682   7.797
57624SOL     OW74645  10.245  10.981  12.476
57624SOL    HW174646  10.165  10.993  12.424
57624SOL    HW274647  10.289  10.906  12.435
57625SOL     OW74648  14.438   9.807  13.374
57625SOL    HW174649  14.446   9.795  13.279
57625SOL    HW274650  14.521   9.849  13.399
57626SOL     OW74651   7.616   6.558  12.180
57626SOL    HW174652   7.554   6.572  12.251
57626SOL    HW274653   7.697   6.600  12.210
57627SOL     OW74654  12.346  11.953   1.143
57627SOL    HW174655  12.351  12.021   1.075
57627SOL    HW274656  12.361  11.871   1.096
57628SOL     OW74657   3.728  11.230   6.303
57628SOL    HW174658   3.670  11.242   6.379
57628SOL    HW274659   3.710  11.141   6.273
57629SOL     OW74660  10.911   5.475   1.687
57629SOL    HW174661  10.874   5.504   1.771
57629SOL    HW274662  11.005   5.470   1.703
57630SOL     OW74663  14.193  12.085   7.029
57630SOL    HW174664  14.131  12.153   7.056
57630SOL    HW274665  14.251  12.075   7.104
57631SOL     OW74666  13.215   8.288   2.143
57631SOL    HW174667  13.164   8.324   2.215
57631SOL    HW274668  13.157   8.223   2.102
57632SOL     OW74669   5.747   3.007   5.259
57632SOL    HW174670   5.817   2.961   5.212
57632SOL    HW274671   5.707   3.064   5.193
57633SOL     OW74672   3.884   3.608  14.036
57633SOL    HW174673   3.826   3.639  13.966
57633SOL    HW274674   3.826   3.596  14.112
57634SOL     OW74675  13.016   4.145   1.786
57634SOL    HW174676  12.947   4.185   1.839
57634SOL    HW274677  12.972   4.116   1.706
57635SOL     OW74678   7.180   2.082   7.811
57635SOL    HW174679   7.239   2.087   7.887
57635SOL    HW274680   7.094   2.105   7.846
57636SOL     OW74681   4.262   3.915   3.287
57636SOL    HW174682   4.304   3.935   3.371
57636SOL    HW274683   4.327   3.938   3.221
57637SOL     OW74684  11.113   6.320   6.884
57637SOL    HW174685  11.152   6.234   6.868
57637SOL    HW274686  11.093   6.354   6.797
57638SOL     OW74687  11.363   9.098   7.703
57638SOL    HW174688  11.411   9.111   7.621
57638SOL    HW274689  11.431   9.086   7.769
57639SOL     OW74690   0.817   8.666  10.064
57639SOL    HW174691   0.899   8.679  10.016
57639SOL    HW274692   0.798   8.752  10.101
57640SOL     OW74693   2.023   9.735   5.214
57640SOL    HW174694   1.983   9.822   5.203
57640SOL    HW274695   1.954   9.682   5.252
57641SOL     OW74696  14.382   7.219   1.078
57641SOL    HW174697  14.354   7.158   1.009
57641SOL    HW274698  14.319   7.290   1.075
57642SOL     OW74699  11.467   6.380  14.430
57642SOL    HW174700  11.431   6.309  14.483
57642SOL    HW274701  11.561   6.363  14.427
57643SOL     OW74702   1.057   5.176   7.892
57643SOL    HW174703   1.130   5.114   7.897
57643SOL    HW274704   1.061   5.210   7.803
57644SOL     OW74705   8.309  13.635   3.912
57644SOL    HW174706   8.300  13.601   4.001
57644SOL    HW274707   8.320  13.558   3.857
57645SOL     OW74708  12.269   3.045   9.896
57645SOL    HW174709  12.264   3.104   9.820
57645SOL    HW274710  12.348   2.994   9.882
57646SOL     OW74711  11.199   9.905  14.320
57646SOL    HW174712  11.141   9.941  14.386
57646SOL    HW274713  11.204   9.811  14.339
57647SOL     OW74714   0.703   5.676   7.144
57647SOL    HW174715   0.743   5.656   7.228
57647SOL    HW274716   0.747   5.619   7.081
57648SOL     OW74717  11.959  13.751   4.322
57648SOL    HW174718  11.877  13.730   4.365
57648SOL    HW274719  11.984  13.669   4.278
57649SOL     OW74720   3.111   4.091   4.116
57649SOL    HW174721   3.189   4.110   4.063
57649SOL    HW274722   3.117   3.997   4.134
57650SOL     OW74723  10.470   7.254   6.907
57650SOL    HW174724  10.390   7.269   6.856
57650SOL    HW274725  10.463   7.316   6.980
57651SOL     OW74726   8.875   1.896   1.562
57651SOL    HW174727   8.790   1.940   1.554
57651SOL    HW274728   8.933   1.962   1.600
57652SOL     OW74729   8.339  11.526   8.543
57652SOL    HW174730   8.248  11.497   8.546
57652SOL    HW274731   8.337  11.605   8.489
57653SOL     OW74732   6.745   6.033   2.528
57653SOL    HW174733   6.704   6.016   2.443
57653SOL    HW274734   6.813   6.098   2.509
57654SOL     OW74735  14.247   0.310  14.873
57654SOL    HW174736  14.251   0.383  14.811
57654SOL    HW274737  14.328   0.317   0.045
57655SOL     OW74738   3.830   0.940   7.603
57655SOL    HW174739   3.790   0.969   7.521
57655SOL    HW274740   3.917   0.981   7.603
57656SOL     OW74741   4.680  14.404  10.684
57656SOL    HW174742   4.747  14.469  10.663
57656SOL    HW274743   4.721  14.349  10.751
57657SOL     OW74744   9.056   6.891   3.888
57657SOL    HW174745   9.008   6.914   3.967
57657SOL    HW274746   9.015   6.810   3.857
57658SOL     OW74747   8.497  12.040  12.969
57658SOL    HW174748   8.484  11.946  12.983
57658SOL    HW274749   8.471  12.080  13.051
57659SOL     OW74750   3.909   0.809   0.472
57659SOL    HW174751   3.832   0.757   0.495
57659SOL    HW274752   3.953   0.757   0.405
57660SOL     OW74753   0.969   4.256   3.474
57660SOL    HW174754   0.886   4.229   3.513
57660SOL    HW274755   1.019   4.174   3.466
57661SOL     OW74756   6.249   0.806  14.660
57661SOL    HW174757   6.198   0.809  14.741
57661SOL    HW274758   6.288   0.894  14.653
57662SOL     OW74759   1.711   9.568   7.963
57662SOL    HW174760   1.745   9.479   7.965
57662SOL    HW274761   1.618   9.559   7.985
57663SOL     OW74762  12.230   9.392   6.442
57663SOL    HW174763  12.222   9.409   6.536
57663SOL    HW274764  12.310   9.437   6.416
57664SOL     OW74765   1.608  10.758   2.891
57664SOL    HW174766   1.688  10.707   2.906
57664SOL    HW274767   1.593  10.753   2.796
57665SOL     OW74768  13.820   2.259   4.674
57665SOL    HW174769  13.908   2.293   4.692
57665SOL    HW274770  13.780   2.324   4.617
57666SOL     OW74771   1.452   6.461   0.934
57666SOL    HW174772   1.481   6.526   0.870
57666SOL    HW274773   1.531   6.439   0.984
57667SOL     OW74774   0.711   4.456  11.062
57667SOL    HW174775   0.790   4.502  11.093
57667SOL    HW274776   0.719   4.456  10.967
57668SOL     OW74777  12.174   2.395   5.574
57668SOL    HW174778  12.120   2.316   5.573
57668SOL    HW274779  12.263   2.364   5.557
57669SOL     OW74780   7.605   0.980  12.073
57669SOL    HW174781   7.629   0.960  11.983
57669SOL    HW274782   7.590   1.075  12.074
57670SOL     OW74783   0.997   5.298   5.473
57670SOL    HW174784   0.911   5.255   5.477
57670SOL    HW274785   1.028   5.280   5.384
57671SOL     OW74786   6.829   5.599   2.963
57671SOL    HW174787   6.738   5.582   2.937
57671SOL    HW274788   6.872   5.626   2.882
57672SOL     OW74789  12.083   7.720  13.103
57672SOL    HW174790  12.094   7.714  13.198
57672SOL    HW274791  12.066   7.629  13.076
57673SOL     OW74792  11.780   7.909   4.052
57673SOL    HW174793  11.780   7.987   4.108
57673SOL    HW274794  11.868   7.904   4.017
57674SOL     OW74795  14.805  13.276  10.582
57674SOL    HW174796  14.876  13.211  10.579
57674SOL    HW274797  14.837  13.349  10.530
57675SOL     OW74798   0.818   0.744  12.399
57675SOL    HW174799   0.723   0.742  12.385
57675SOL    HW274800   0.850   0.812  12.340
57676SOL     OW74801  12.648  11.985   3.506
57676SOL    HW174802  12.563  12.008   3.545
57676SOL    HW274803  12.673  11.903   3.550
57677SOL     OW74804   1.377  14.418   6.230
57677SOL    HW174805   1.298  14.467   6.250
57677SOL    HW274806   1.429  14.420   6.310
57678SOL     OW74807   8.106   7.954  12.531
57678SOL    HW174808   8.141   8.021  12.473
57678SOL    HW274809   8.156   7.875  12.509
57679SOL     OW74810   3.668   6.711   8.011
57679SOL    HW174811   3.698   6.795   8.048
57679SOL    HW274812   3.614   6.735   7.936
57680SOL     OW74813  10.233  13.315   6.880
57680SOL    HW174814  10.190  13.247   6.828
57680SOL    HW274815  10.275  13.268   6.952
57681SOL     OW74816  10.060   5.149  10.995
57681SOL    HW174817  10.042   5.119  10.906
57681SOL    HW274818  10.129   5.091  11.027
57682SOL     OW74819   9.741   3.396  11.640
57682SOL    HW174820   9.827   3.412  11.601
57682SOL    HW274821   9.679   3.438  11.580
57683SOL     OW74822   4.487   1.005   2.211
57683SOL    HW174823   4.508   1.043   2.297
57683SOL    HW274824   4.561   1.030   2.156
57684SOL     OW74825  13.411  11.304   7.380
57684SOL    HW174826  13.406  11.363   7.304
57684SOL    HW274827  13.370  11.223   7.349
57685SOL     OW74828  12.526   8.635   8.397
57685SOL    HW174829  12.441   8.630   8.355
57685SOL    HW274830  12.515   8.590   8.481
57686SOL     OW74831  12.696  12.301   9.136
57686SOL    HW174832  12.704  12.394   9.114
57686SOL    HW274833  12.732  12.294   9.224
57687SOL     OW74834  10.577   5.849  11.631
57687SOL    HW174835  10.483   5.854  11.613
57687SOL    HW274836  10.582   5.822  11.723
57688SOL     OW74837   2.339   1.586   3.840
57688SOL    HW174838   2.358   1.499   3.804
57688SOL    HW274839   2.282   1.570   3.914
57689SOL     OW74840   0.813   6.629   9.106
57689SOL    HW174841   0.743   6.670   9.156
57689SOL    HW274842   0.844   6.698   9.047
57690SOL     OW74843  12.594   1.636   5.273
57690SOL    HW174844  12.604   1.605   5.183
57690SOL    HW274845  12.633   1.568   5.327
57691SOL     OW74846   8.139  10.084   8.372
57691SOL    HW174847   8.056  10.109   8.411
57691SOL    HW274848   8.205  10.133   8.421
57692SOL     OW74849   2.922   6.217   3.737
57692SOL    HW174850   2.902   6.223   3.830
57692SOL    HW274851   2.837   6.206   3.695
57693SOL     OW74852  10.575   9.614   5.681
57693SOL    HW174853  10.666   9.589   5.669
57693SOL    HW274854  10.557   9.674   5.608
57694SOL     OW74855   9.276  12.815  10.598
57694SOL    HW174856   9.295  12.878  10.528
57694SOL    HW274857   9.250  12.736  10.553
57695SOL     OW74858  13.741   7.434   4.928
57695SOL    HW174859  13.783   7.517   4.907
57695SOL    HW274860  13.665   7.459   4.981
57696SOL     OW74861   3.485   8.279   0.762
57696SOL    HW174862   3.410   8.222   0.743
57696SOL    HW274863   3.547   8.261   0.692
57697SOL     OW74864   0.730  10.093   5.649
57697SOL    HW174865   0.809  10.139   5.676
57697SOL    HW274866   0.683  10.156   5.595
57698SOL     OW74867   7.523  11.366   6.444
57698SOL    HW174868   7.528  11.276   6.414
57698SOL    HW274869   7.432  11.391   6.428
57699SOL     OW74870  10.904   7.651   3.185
57699SOL    HW174871  10.975   7.690   3.237
57699SOL    HW274872  10.829   7.650   3.245
57700SOL     OW74873  12.355   8.716   7.501
57700SOL    HW174874  12.346   8.641   7.559
57700SOL    HW274875  12.290   8.779   7.533
57701SOL     OW74876   7.899  11.762   9.214
57701SOL    HW174877   7.989  11.740   9.189
57701SOL    HW274878   7.861  11.679   9.243
57702SOL     OW74879   8.286  13.114   0.971
57702SOL    HW174880   8.284  13.148   1.061
57702SOL    HW274881   8.307  13.022   0.981
57703SOL     OW74882   4.172   6.137   9.137
57703SOL    HW174883   4.206   6.169   9.221
57703SOL    HW274884   4.097   6.193   9.118
57704SOL     OW74885   2.476  14.705   4.295
57704SOL    HW174886   2.402  14.646   4.285
57704SOL    HW274887   2.501  14.697   4.386
57705SOL     OW74888   2.893  13.708  12.175
57705SOL    HW174889   2.960  13.681  12.238
57705SOL    HW274890   2.942  13.749  12.104
57706SOL     OW74891   5.558   6.901  13.883
57706SOL    HW174892   5.570   6.954  13.805
57706SOL    HW274893   5.512   6.822  13.852
57707SOL     OW74894  11.263   2.280  13.795
57707SOL    HW174895  11.243   2.202  13.744
57707SOL    HW274896  11.332   2.324  13.747
57708SOL     OW74897   6.341   9.190  14.361
57708SOL    HW174898   6.249   9.178  14.337
57708SOL    HW274899   6.338   9.247  14.438
57709SOL     OW74900   8.324   7.597  13.583
57709SOL    HW174901   8.373   7.547  13.648
57709SOL    HW274902   8.373   7.678  13.574
57710SOL     OW74903  12.726  10.361   7.101
57710SOL    HW174904  12.731  10.412   7.181
57710SOL    HW274905  12.810  10.376   7.058
57711SOL     OW74906  11.481  12.162   9.603
57711SOL    HW174907  11.463  12.138   9.512
57711SOL    HW274908  11.418  12.231   9.622
57712SOL     OW74909  10.166   4.241   1.934
57712SOL    HW174910  10.223   4.280   1.867
57712SOL    HW274911  10.182   4.294   2.012
57713SOL     OW74912  11.241   7.733   7.897
57713SOL    HW174913  11.263   7.640   7.906
57713SOL    HW274914  11.288   7.776   7.968
57714SOL     OW74915  12.659   5.747   1.142
57714SOL    HW174916  12.738   5.800   1.127
57714SOL    HW274917  12.607   5.757   1.062
57715SOL     OW74918  11.338   4.579   0.242
57715SOL    HW174919  11.242   4.578   0.240
57715SOL    HW274920  11.361   4.659   0.287
57716SOL     OW74921   9.205   4.366  14.085
57716SOL    HW174922   9.289   4.334  14.118
57716SOL    HW274923   9.166   4.413  14.159
57717SOL     OW74924   3.440   2.167  13.228
57717SOL    HW174925   3.419   2.256  13.255
57717SOL    HW274926   3.461   2.174  13.135
57718SOL     OW74927   3.200  12.918   8.107
57718SOL    HW174928   3.201  12.829   8.142
57718SOL    HW274929   3.181  12.908   8.014
57719SOL     OW74930   9.760  10.555  13.694
57719SOL    HW174931   9.768  10.503  13.774
57719SOL    HW274932   9.792  10.498  13.625
57720SOL     OW74933   2.872   0.486   4.006
57720SOL    HW174934   2.838   0.532   3.929
57720SOL    HW274935   2.897   0.400   3.972
57721SOL     OW74936   3.738  12.881   1.385
57721SOL    HW174937   3.653  12.923   1.374
57721SOL    HW274938   3.799  12.940   1.340
57722SOL     OW74939   2.896  14.163  14.724
57722SOL    HW174940   2.860  14.250  14.703
57722SOL    HW274941   2.828  14.121  14.777
57723SOL     OW74942   2.487   9.633  10.710
57723SOL    HW174943   2.415   9.659  10.768
57723SOL    HW274944   2.472   9.683  10.630
57724SOL     OW74945  11.655  13.803   2.301
57724SOL    HW174946  11.567  13.804   2.338
57724SOL    HW274947  11.671  13.892   2.271
57725SOL     OW74948   2.535   8.534   6.976
57725SOL    HW174949   2.572   8.536   7.064
57725SOL    HW274950   2.502   8.445   6.966
57726SOL     OW74951   5.909  11.365   7.146
57726SOL    HW174952   5.907  11.447   7.097
57726SOL    HW274953   5.972  11.380   7.216
57727SOL     OW74954   3.915  14.623  12.205
57727SOL    HW174955   3.929  14.717  12.213
57727SOL    HW274956   3.965  14.585  12.277
57728SOL     OW74957   3.755   0.631   1.077
57728SOL    HW174958   3.700   0.658   1.151
57728SOL    HW274959   3.840   0.613   1.115
57729SOL     OW74960   9.817   0.656   3.310
57729SOL    HW174961   9.749   0.724   3.319
57729SOL    HW274962   9.781   0.594   3.246
57730SOL     OW74963   5.395  11.313   3.811
57730SOL    HW174964   5.388  11.221   3.837
57730SOL    HW274965   5.373  11.314   3.718
57731SOL     OW74966   8.104   1.438   8.162
57731SOL    HW174967   8.184   1.472   8.202
57731SOL    HW274968   8.081   1.361   8.214
57732SOL     OW74969   9.877   0.774   4.744
57732SOL    HW174970   9.814   0.710   4.710
57732SOL    HW274971   9.880   0.756   4.838
57733SOL     OW74972  10.826   9.085   5.705
57733SOL    HW174973  10.871   9.114   5.626
57733SOL    HW274974  10.751   9.144   5.713
57734SOL     OW74975   6.106   9.066  12.446
57734SOL    HW174976   6.156   8.986  12.465
57734SOL    HW274977   6.164   9.137  12.473
57735SOL     OW74978   5.048   2.899   4.796
57735SOL    HW174979   5.073   2.981   4.755
57735SOL    HW274980   5.129   2.847   4.800
57736SOL     OW74981   5.768  10.503  11.556
57736SOL    HW174982   5.782  10.497  11.650
57736SOL    HW274983   5.794  10.416  11.523
57737SOL     OW74984  14.259   9.245  13.414
57737SOL    HW174985  14.202   9.321  13.403
57737SOL    HW274986  14.240   9.189  13.339
57738SOL     OW74987   8.627   6.557   5.601
57738SOL    HW174988   8.673   6.525   5.523
57738SOL    HW274989   8.697   6.575   5.664
57739SOL     OW74990   9.697   2.749   8.633
57739SOL    HW174991   9.741   2.794   8.706
57739SOL    HW274992   9.639   2.686   8.675
57740SOL     OW74993   6.749   7.503   1.479
57740SOL    HW174994   6.765   7.592   1.447
57740SOL    HW274995   6.696   7.462   1.410
57741SOL     OW74996   4.464   3.375   1.274
57741SOL    HW174997   4.477   3.467   1.251
57741SOL    HW274998   4.410   3.378   1.353
57742SOL     OW74999  13.694   2.544   3.724
57742SOL    HW175000  13.650   2.487   3.660
57742SOL    HW275001  13.744   2.605   3.670
57743SOL     OW75002   9.437   2.790   3.790
57743SOL    HW175003   9.381   2.716   3.766
57743SOL    HW275004   9.522   2.769   3.751
57744SOL     OW75005   0.244   3.465  11.626
57744SOL    HW175006   0.283   3.543  11.666
57744SOL    HW275007   0.177   3.500  11.567
57745SOL     OW75008   4.218   9.377   6.576
57745SOL    HW175009   4.206   9.291   6.536
57745SOL    HW275010   4.275   9.424   6.515
57746SOL     OW75011   2.021  11.109   7.643
57746SOL    HW175012   1.995  11.031   7.593
57746SOL    HW275013   2.108  11.130   7.609
57747SOL     OW75014  10.045  13.414  13.944
57747SOL    HW175015  10.005  13.498  13.920
57747SOL    HW275016   9.970  13.357  13.964
57748SOL     OW75017   6.926   4.041  11.240
57748SOL    HW175018   6.986   3.969  11.259
57748SOL    HW275019   6.839   4.000  11.238
57749SOL     OW75020  10.780  11.652   4.587
57749SOL    HW175021  10.688  11.670   4.607
57749SOL    HW275022  10.820  11.631   4.671
57750SOL     OW75023  12.618   1.842   9.237
57750SOL    HW175024  12.711   1.819   9.235
57750SOL    HW275025  12.616   1.934   9.263
57751SOL     OW75026   7.669   2.261   6.515
57751SOL    HW175027   7.745   2.205   6.531
57751SOL    HW275028   7.692   2.310   6.436
57752SOL     OW75029   1.116  12.816   5.624
57752SOL    HW175030   1.107  12.760   5.547
57752SOL    HW275031   1.183  12.880   5.599
57753SOL     OW75032   7.582   1.787  12.112
57753SOL    HW175033   7.556   1.707  12.067
57753SOL    HW275034   7.675   1.797  12.092
57754SOL     OW75035  10.917  10.377   9.879
57754SOL    HW175036  10.989  10.414   9.929
57754SOL    HW275037  10.854  10.348   9.945
57755SOL     OW75038   7.385  14.349   3.921
57755SOL    HW175039   7.366  14.430   3.969
57755SOL    HW275040   7.468  14.366   3.877
57756SOL     OW75041   1.658   8.947   5.304
57756SOL    HW175042   1.609   8.902   5.372
57756SOL    HW275043   1.635   8.901   5.223
57757SOL     OW75044   7.290  10.789   6.546
57757SOL    HW175045   7.311  10.716   6.488
57757SOL    HW275046   7.375  10.818   6.579
57758SOL     OW75047  14.084   8.666   9.037
57758SOL    HW175048  14.001   8.648   8.991
57758SOL    HW275049  14.107   8.582   9.077
57759SOL     OW75050   5.148   4.070  10.673
57759SOL    HW175051   5.229   4.070  10.622
57759SOL    HW275052   5.174   4.033  10.758
57760SOL     OW75053   2.376   7.579   1.759
57760SOL    HW175054   2.410   7.505   1.710
57760SOL    HW275055   2.299   7.544   1.804
57761SOL     OW75056   2.029  11.076  10.976
57761SOL    HW175057   2.056  11.033  11.057
57761SOL    HW275058   1.949  11.123  10.999
57762SOL     OW75059   4.927   5.373   6.361
57762SOL    HW175060   5.005   5.429   6.360
57762SOL    HW275061   4.854   5.434   6.348
57763SOL     OW75062   4.517   5.228  12.919
57763SOL    HW175063   4.550   5.261  13.002
57763SOL    HW275064   4.563   5.280  12.853
57764SOL     OW75065   7.797   7.281  10.317
57764SOL    HW175066   7.767   7.295  10.227
57764SOL    HW275067   7.892   7.273  10.309
57765SOL     OW75068  14.055   4.388  14.175
57765SOL    HW175069  13.961   4.372  14.164
57765SOL    HW275070  14.063   4.483  14.182
57766SOL     OW75071   2.764   5.621  14.716
57766SOL    HW175072   2.848   5.585  14.744
57766SOL    HW275073   2.784   5.669  14.636
57767SOL     OW75074   1.977   0.771   2.204
57767SOL    HW175075   2.030   0.762   2.283
57767SOL    HW275076   2.037   0.756   2.132
57768SOL     OW75077   2.046   3.278  13.244
57768SOL    HW175078   2.024   3.220  13.171
57768SOL    HW275079   1.966   3.329  13.259
57769SOL     OW75080   1.718   7.304  10.476
57769SOL    HW175081   1.650   7.326  10.413
57769SOL    HW275082   1.682   7.330  10.561
57770SOL     OW75083   0.186   8.065  14.847
57770SOL    HW175084   0.232   8.125   0.027
57770SOL    HW275085   0.187   7.981   0.015
57771SOL     OW75086   8.311  11.085   2.239
57771SOL    HW175087   8.285  10.993   2.246
57771SOL    HW275088   8.239  11.133   2.280
57772SOL     OW75089   1.520   6.452   8.402
57772SOL    HW175090   1.443   6.502   8.429
57772SOL    HW275091   1.541   6.398   8.479
57773SOL     OW75092   2.707   9.705   9.169
57773SOL    HW175093   2.774   9.767   9.198
57773SOL    HW275094   2.724   9.625   9.219
57774SOL     OW75095  10.212   7.354   2.972
57774SOL    HW175096  10.148   7.334   3.041
57774SOL    HW275097  10.204   7.449   2.959
57775SOL     OW75098   4.230   1.591   2.398
57775SOL    HW175099   4.249   1.531   2.326
57775SOL    HW275100   4.312   1.639   2.411
57776SOL     OW75101   1.057   3.862   2.362
57776SOL    HW175102   1.026   3.799   2.428
57776SOL    HW275103   1.140   3.895   2.398
57777SOL     OW75104  10.531   7.091  14.114
57777SOL    HW175105  10.502   7.041  14.190
57777SOL    HW275106  10.524   7.030  14.040
57778SOL     OW75107   5.923   7.949   7.686
57778SOL    HW175108   5.977   8.028   7.681
57778SOL    HW275109   5.834   7.980   7.674
57779SOL     OW75110   6.679  12.129   1.299
57779SOL    HW175111   6.645  12.106   1.385
57779SOL    HW275112   6.772  12.106   1.303
57780SOL     OW75113   5.299  14.517   2.013
57780SOL    HW175114   5.347  14.436   1.998
57780SOL    HW275115   5.285  14.553   1.925
57781SOL     OW75116   7.056  11.547   6.618
57781SOL    HW175117   6.996  11.620   6.631
57781SOL    HW275118   7.132  11.586   6.575
57782SOL     OW75119  13.676  10.198   9.522
57782SOL    HW175120  13.712  10.273   9.568
57782SOL    HW275121  13.670  10.129   9.589
57783SOL     OW75122   7.524   3.524   1.833
57783SOL    HW175123   7.478   3.533   1.750
57783SOL    HW275124   7.476   3.456   1.880
57784SOL     OW75125  11.361   8.311   7.453
57784SOL    HW175126  11.346   8.378   7.519
57784SOL    HW275127  11.454   8.291   7.460
57785SOL     OW75128   2.999   2.971   4.848
57785SOL    HW175129   3.042   2.893   4.814
57785SOL    HW275130   2.924   2.984   4.790
57786SOL     OW75131   7.744  14.512  12.262
57786SOL    HW175132   7.731  14.417  12.257
57786SOL    HW275133   7.799  14.533  12.187
57787SOL     OW75134   8.544   3.462   6.041
57787SOL    HW175135   8.465   3.407   6.033
57787SOL    HW275136   8.529   3.515   6.119
57788SOL     OW75137   4.202   6.566   8.394
57788SOL    HW175138   4.201   6.540   8.302
57788SOL    HW275139   4.258   6.502   8.438
57789SOL     OW75140   0.530   3.308  14.593
57789SOL    HW175141   0.568   3.310  14.682
57789SOL    HW275142   0.526   3.400  14.567
57790SOL     OW75143  12.157  14.739   5.010
57790SOL    HW175144  12.231  14.765   4.956
57790SOL    HW275145  12.114  14.669   4.961
57791SOL     OW75146   2.701   1.854  12.563
57791SOL    HW175147   2.620   1.813  12.595
57791SOL    HW275148   2.769   1.790  12.581
57792SOL     OW75149   3.046  10.220   8.996
57792SOL    HW175150   2.951  10.230   9.006
57792SOL    HW275151   3.068  10.145   9.052
57793SOL     OW75152   2.002  10.296   1.379
57793SOL    HW175153   2.014  10.207   1.410
57793SOL    HW275154   2.064  10.306   1.307
57794SOL     OW75155   7.782   4.625  11.948
57794SOL    HW175156   7.840   4.551  11.966
57794SOL    HW275157   7.784   4.678  12.027
57795SOL     OW75158  12.104   1.516   3.982
57795SOL    HW175159  12.118   1.441   3.924
57795SOL    HW275160  12.113   1.592   3.925
57796SOL     OW75161   0.536   4.360  10.544
57796SOL    HW175162   0.493   4.281  10.509
57796SOL    HW275163   0.512   4.361  10.636
57797SOL     OW75164  13.640  10.103  12.707
57797SOL    HW175165  13.571  10.039  12.723
57797SOL    HW275166  13.718  10.050  12.691
57798SOL     OW75167   6.292   9.030   5.284
57798SOL    HW175168   6.198   9.049   5.287
57798SOL    HW275169   6.334   9.110   5.315
57799SOL     OW75170   3.647   0.905  13.999
57799SOL    HW175171   3.613   0.955  13.925
57799SOL    HW275172   3.727   0.951  14.025
57800SOL     OW75173   1.897   0.633   5.412
57800SOL    HW175174   1.855   0.709   5.372
57800SOL    HW275175   1.885   0.645   5.506
57801SOL     OW75176   5.638  10.067   7.242
57801SOL    HW175177   5.710  10.109   7.289
57801SOL    HW275178   5.644   9.975   7.266
57802SOL     OW75179   5.489   3.368   4.253
57802SOL    HW175180   5.481   3.421   4.332
57802SOL    HW275181   5.479   3.430   4.181
57803SOL     OW75182  13.227  12.439   4.819
57803SOL    HW175183  13.257  12.390   4.743
57803SOL    HW275184  13.136  12.414   4.830
57804SOL     OW75185   8.770   7.884  13.179
57804SOL    HW175186   8.698   7.926  13.226
57804SOL    HW275187   8.838   7.872  13.244
57805SOL     OW75188   2.011  13.868   0.155
57805SOL    HW175189   1.972  13.905   0.235
57805SOL    HW275190   1.954  13.795   0.132
57806SOL     OW75191   1.406  14.312  13.454
57806SOL    HW175192   1.415  14.239  13.393
57806SOL    HW275193   1.471  14.375  13.426
57807SOL     OW75194   4.424   0.321  10.374
57807SOL    HW175195   4.465   0.385  10.316
57807SOL    HW275196   4.453   0.347  10.462
57808SOL     OW75197   0.888   5.736  11.611
57808SOL    HW175198   0.870   5.829  11.595
57808SOL    HW275199   0.810   5.705  11.658
57809SOL     OW75200  11.016   9.774   9.166
57809SOL    HW175201  10.997   9.798   9.256
57809SOL    HW275202  10.959   9.830   9.113
57810SOL     OW75203   1.131   5.897  14.127
57810SOL    HW175204   1.138   5.865  14.037
57810SOL    HW275205   1.037   5.894  14.147
57811SOL     OW75206   7.213   4.907   8.754
57811SOL    HW175207   7.152   4.979   8.768
57811SOL    HW275208   7.190   4.843   8.821
57812SOL     OW75209   9.264   0.077  13.955
57812SOL    HW175210   9.358   0.075  13.972
57812SOL    HW275211   9.245  14.868  13.918
57813SOL     OW75212  14.078   9.573   1.696
57813SOL    HW175213  14.012   9.584   1.765
57813SOL    HW275214  14.037   9.609   1.618
57814SOL     OW75215   2.718   1.587   6.314
57814SOL    HW175216   2.779   1.514   6.326
57814SOL    HW275217   2.730   1.641   6.392
57815SOL     OW75218   8.016  13.565   7.301
57815SOL    HW175219   8.051  13.622   7.369
57815SOL    HW275220   7.952  13.511   7.345
57816SOL     OW75221  11.961  14.756  11.982
57816SOL    HW175222  11.992  14.670  11.956
57816SOL    HW275223  12.033  14.792  12.036
57817SOL     OW75224   1.842   0.429   4.416
57817SOL    HW175225   1.824   0.523   4.414
57817SOL    HW275226   1.824   0.403   4.506
57818SOL     OW75227   3.567   1.677   8.576
57818SOL    HW175228   3.539   1.675   8.484
57818SOL    HW275229   3.497   1.634   8.624
57819SOL     OW75230  13.635   5.666  14.785
57819SOL    HW175231  13.722   5.630  14.803
57819SOL    HW275232  13.575   5.600  14.819
57820SOL     OW75233  12.549   5.398   3.736
57820SOL    HW175234  12.463   5.437   3.753
57820SOL    HW275235  12.593   5.397   3.821
57821SOL     OW75236  13.538   6.818   8.739
57821SOL    HW175237  13.627   6.785   8.753
57821SOL    HW275238  13.519   6.867   8.819
57822SOL     OW75239  14.833   1.134   9.237
57822SOL    HW175240  14.829   1.039   9.247
57822SOL    HW275241  14.844   1.149   9.143
57823SOL     OW75242   7.910   7.080   9.027
57823SOL    HW175243   7.832   7.122   9.064
57823SOL    HW275244   7.915   7.113   8.938
57824SOL     OW75245   9.290  12.336   3.799
57824SOL    HW175246   9.352  12.378   3.739
57824SOL    HW275247   9.231  12.406   3.827
57825SOL     OW75248  14.611   7.630   4.842
57825SOL    HW175249  14.578   7.644   4.753
57825SOL    HW275250  14.704   7.614   4.831
57826SOL     OW75251  13.468   2.267  11.100
57826SOL    HW175252  13.449   2.352  11.139
57826SOL    HW275253  13.544   2.235  11.148
57827SOL     OW75254  13.931   3.099   4.806
57827SOL    HW175255  13.880   3.130   4.732
57827SOL    HW275256  13.873   3.112   4.882
57828SOL     OW75257  11.956  11.271  14.103
57828SOL    HW175258  12.034  11.255  14.156
57828SOL    HW275259  11.968  11.216  14.025
57829SOL     OW75260  10.303   3.928   1.526
57829SOL    HW175261  10.383   3.905   1.479
57829SOL    HW275262  10.288   3.854   1.585
57830SOL     OW75263   1.321  12.463   5.309
57830SOL    HW175264   1.385  12.525   5.344
57830SOL    HW275265   1.347  12.450   5.218
57831SOL     OW75266  12.561   8.821  12.692
57831SOL    HW175267  12.617   8.745  12.708
57831SOL    HW275268  12.512   8.832  12.774
57832SOL     OW75269   3.531   8.424   4.314
57832SOL    HW175270   3.518   8.380   4.230
57832SOL    HW275271   3.491   8.510   4.302
57833SOL     OW75272   0.270  12.490   5.470
57833SOL    HW175273   0.270  12.406   5.515
57833SOL    HW275274   0.242  12.470   5.381
57834SOL     OW75275   7.720   8.855   8.463
57834SOL    HW175276   7.651   8.869   8.398
57834SOL    HW275277   7.726   8.760   8.471
57835SOL     OW75278  11.537  10.656   1.558
57835SOL    HW175279  11.466  10.714   1.531
57835SOL    HW275280  11.494  10.572   1.573
57836SOL     OW75281   5.690   4.464   3.720
57836SOL    HW175282   5.726   4.485   3.806
57836SOL    HW275283   5.611   4.518   3.713
57837SOL     OW75284   9.420   5.248  13.622
57837SOL    HW175285   9.373   5.208  13.549
57837SOL    HW275286   9.465   5.323  13.582
57838SOL     OW75287   5.141   0.640   5.741
57838SOL    HW175288   5.162   0.689   5.662
57838SOL    HW275289   5.205   0.569   5.744
57839SOL     OW75290  14.459   1.924   1.868
57839SOL    HW175291  14.466   1.840   1.914
57839SOL    HW275292  14.391   1.971   1.915
57840SOL     OW75293   7.518  12.154  12.816
57840SOL    HW175294   7.446  12.192  12.766
57840SOL    HW275295   7.546  12.225  12.874
57841SOL     OW75296   8.066   3.880  10.037
57841SOL    HW175297   8.093   3.796  10.000
57841SOL    HW275298   8.100   3.945   9.976
57842SOL     OW75299  10.561  10.825   0.347
57842SOL    HW175300  10.556  10.756   0.281
57842SOL    HW275301  10.599  10.781   0.424
57843SOL     OW75302   3.104  13.790  14.227
57843SOL    HW175303   3.159  13.827  14.158
57843SOL    HW275304   3.015  13.816  14.203
57844SOL     OW75305  14.822   2.647   7.032
57844SOL    HW175306  14.761   2.669   6.962
57844SOL    HW275307  14.774   2.584   7.087
57845SOL     OW75308  12.932  10.086   5.412
57845SOL    HW175309  12.894  10.156   5.466
57845SOL    HW275310  12.957  10.018   5.474
57846SOL     OW75311  11.647   7.605   1.274
57846SOL    HW175312  11.606   7.596   1.188
57846SOL    HW275313  11.643   7.699   1.292
57847SOL     OW75314   5.521   2.350   5.493
57847SOL    HW175315   5.461   2.303   5.550
57847SOL    HW275316   5.515   2.303   5.409
57848SOL     OW75317   9.021  12.326   6.882
57848SOL    HW175318   9.041  12.349   6.791
57848SOL    HW275319   8.981  12.405   6.918
57849SOL     OW75320   5.200   4.840  12.453
57849SOL    HW175321   5.129   4.838  12.389
57849SOL    HW275322   5.279   4.855  12.400
57850SOL     OW75323  14.095  10.615   7.964
57850SOL    HW175324  14.172  10.567   7.934
57850SOL    HW275325  14.112  10.633   8.056
57851SOL     OW75326   8.439  14.329  10.067
57851SOL    HW175327   8.447  14.320   9.972
57851SOL    HW275328   8.408  14.244  10.096
57852SOL     OW75329   6.575  11.923   5.455
57852SOL    HW175330   6.610  12.011   5.447
57852SOL    HW275331   6.544  11.917   5.545
57853SOL     OW75332   1.286   3.640   0.512
57853SOL    HW175333   1.375   3.674   0.520
57853SOL    HW275334   1.230   3.709   0.546
57854SOL     OW75335   8.434   7.692   9.221
57854SOL    HW175336   8.405   7.611   9.181
57854SOL    HW275337   8.353   7.741   9.237
57855SOL     OW75338  11.896   7.670   8.054
57855SOL    HW175339  11.880   7.633   7.967
57855SOL    HW275340  11.954   7.607   8.097
57856SOL     OW75341  13.700   2.037   7.195
57856SOL    HW175342  13.790   2.053   7.167
57856SOL    HW275343  13.672   2.120   7.234
57857SOL     OW75344   9.577   7.109   2.601
57857SOL    HW175345   9.510   7.110   2.670
57857SOL    HW275346   9.618   7.195   2.606
57858SOL     OW75347   6.877  13.664   9.259
57858SOL    HW175348   6.825  13.741   9.285
57858SOL    HW275349   6.812  13.595   9.245
57859SOL     OW75350   4.888  10.468   5.921
57859SOL    HW175351   4.921  10.491   5.834
57859SOL    HW275352   4.961  10.424   5.964
57860SOL     OW75353   0.681  11.291   0.843
57860SOL    HW175354   0.592  11.309   0.813
57860SOL    HW275355   0.672  11.219   0.904
57861SOL     OW75356   3.147   2.378   8.175
57861SOL    HW175357   3.117   2.290   8.198
57861SOL    HW275358   3.166   2.373   8.081
57862SOL     OW75359   5.779  11.216   4.841
57862SOL    HW175360   5.832  11.270   4.783
57862SOL    HW275361   5.787  11.257   4.927
57863SOL     OW75362  14.393   6.730   1.102
57863SOL    HW175363  14.483   6.748   1.130
57863SOL    HW275364  14.340   6.795   1.148
57864SOL     OW75365   5.713  13.382   2.500
57864SOL    HW175366   5.624  13.393   2.465
57864SOL    HW275367   5.723  13.454   2.562
57865SOL     OW75368   0.330   7.938   4.411
57865SOL    HW175369   0.363   7.973   4.329
57865SOL    HW275370   0.284   8.012   4.451
57866SOL     OW75371  12.277  14.306   2.224
57866SOL    HW175372  12.252  14.350   2.143
57866SOL    HW275373  12.258  14.214   2.208
57867SOL     OW75374  11.604   0.281  11.454
57867SOL    HW175375  11.628   0.362  11.408
57867SOL    HW275376  11.648   0.288  11.539
57868SOL     OW75377  13.550   8.363   8.266
57868SOL    HW175378  13.547   8.297   8.197
57868SOL    HW275379  13.641   8.392   8.268
57869SOL     OW75380   6.241   0.045  13.378
57869SOL    HW175381   6.240  14.877  13.462
57869SOL    HW275382   6.204   0.131  13.398
57870SOL     OW75383   2.494   9.395   5.260
57870SOL    HW175384   2.559   9.355   5.202
57870SOL    HW275385   2.545   9.447   5.322
57871SOL     OW75386   4.584   6.286   5.785
57871SOL    HW175387   4.670   6.326   5.792
57871SOL    HW275388   4.571   6.271   5.691
57872SOL     OW75389   5.292   8.818   1.417
57872SOL    HW175390   5.385   8.798   1.428
57872SOL    HW275391   5.291   8.892   1.357
57873SOL     OW75392  13.945   9.429   4.186
57873SOL    HW175393  13.915   9.425   4.095
57873SOL    HW275394  14.016   9.364   4.191
57874SOL     OW75395  12.691   8.060   0.294
57874SOL    HW175396  12.626   7.991   0.305
57874SOL    HW275397  12.705   8.065   0.199
57875SOL     OW75398   6.944   8.319   9.537
57875SOL    HW175399   6.952   8.259   9.611
57875SOL    HW275400   6.858   8.300   9.499
57876SOL     OW75401   9.018   1.896  13.604
57876SOL    HW175402   8.983   1.822  13.554
57876SOL    HW275403   8.950   1.963  13.600
57877SOL     OW75404  13.351   2.544   1.244
57877SOL    HW175405  13.395   2.568   1.326
57877SOL    HW275406  13.354   2.625   1.192
57878SOL     OW75407   0.606  13.693   8.731
57878SOL    HW175408   0.662  13.618   8.753
57878SOL    HW275409   0.665  13.756   8.690
57879SOL     OW75410   2.453   1.427   6.726
57879SOL    HW175411   2.425   1.491   6.661
57879SOL    HW275412   2.530   1.385   6.686
57880SOL     OW75413   5.570   2.906   4.456
57880SOL    HW175414   5.649   2.885   4.406
57880SOL    HW275415   5.546   2.994   4.427
57881SOL     OW75416  13.153   5.563   3.919
57881SOL    HW175417  13.204   5.540   3.997
57881SOL    HW275418  13.162   5.488   3.861
57882SOL     OW75419   0.108   0.959   6.903
57882SOL    HW175420   0.018   0.941   6.928
57882SOL    HW275421   0.147   0.999   6.981
57883SOL     OW75422  12.603  13.843   2.422
57883SOL    HW175423  12.660  13.836   2.346
57883SOL    HW275424  12.560  13.928   2.411
57884SOL     OW75425  14.475  13.014   9.772
57884SOL    HW175426  14.461  13.100   9.811
57884SOL    HW275427  14.446  12.952   9.838
57885SOL     OW75428  13.077   5.185  10.164
57885SOL    HW175429  13.109   5.112  10.111
57885SOL    HW275430  12.996   5.213  10.120
57886SOL     OW75431   6.499   5.538   0.566
57886SOL    HW175432   6.420   5.550   0.514
57886SOL    HW275433   6.468   5.528   0.656
57887SOL     OW75434   4.920  10.600   6.454
57887SOL    HW175435   4.994  10.541   6.467
57887SOL    HW275436   4.960  10.688   6.452
57888SOL     OW75437   2.264  11.354   5.816
57888SOL    HW175438   2.261  11.304   5.898
57888SOL    HW275439   2.198  11.313   5.761
57889SOL     OW75440  11.240   5.767   7.665
57889SOL    HW175441  11.312   5.822   7.698
57889SOL    HW275442  11.194   5.739   7.744
57890SOL     OW75443   9.028  14.316   3.052
57890SOL    HW175444   9.047  14.386   3.114
57890SOL    HW275445   9.045  14.355   2.966
57891SOL     OW75446   7.023  11.899   7.952
57891SOL    HW175447   7.103  11.854   7.981
57891SOL    HW275448   6.953  11.835   7.966
57892SOL     OW75449   9.051   3.385   7.104
57892SOL    HW175450   9.099   3.304   7.088
57892SOL    HW275451   8.960   3.357   7.117
57893SOL     OW75452  12.438  11.934   4.256
57893SOL    HW175453  12.496  12.008   4.238
57893SOL    HW275454  12.497  11.862   4.280
57894SOL     OW75455   7.333   3.563   7.835
57894SOL    HW175456   7.254   3.607   7.805
57894SOL    HW275457   7.326   3.474   7.803
57895SOL     OW75458   6.137  13.555  14.119
57895SOL    HW175459   6.164  13.627  14.062
57895SOL    HW275460   6.156  13.586  14.208
57896SOL     OW75461   4.744   8.807   3.539
57896SOL    HW175462   4.680   8.776   3.475
57896SOL    HW275463   4.812   8.850   3.486
57897SOL     OW75464   7.868   7.314   4.191
57897SOL    HW175465   7.863   7.236   4.137
57897SOL    HW275466   7.908   7.380   4.135
57898SOL     OW75467   9.218   6.568   9.754
57898SOL    HW175468   9.126   6.587   9.771
57898SOL    HW275469   9.251   6.530   9.835
57899SOL     OW75470   6.675   6.986   4.888
57899SOL    HW175471   6.690   7.070   4.844
57899SOL    HW275472   6.639   7.010   4.973
57900SOL     OW75473   9.458  11.224   1.630
57900SOL    HW175474   9.478  11.180   1.548
57900SOL    HW275475   9.492  11.166   1.698
57901SOL     OW75476  10.359   5.594   4.189
57901SOL    HW175477  10.289   5.659   4.193
57901SOL    HW275478  10.317   5.512   4.216
57902SOL     OW75479   3.651   4.368   5.874
57902SOL    HW175480   3.673   4.337   5.787
57902SOL    HW275481   3.696   4.308   5.934
57903SOL     OW75482  12.283   7.770   0.033
57903SOL    HW175483  12.352   7.704   0.033
57903SOL    HW275484  12.324   7.849   0.068
57904SOL     OW75485   8.699   1.616  12.260
57904SOL    HW175486   8.782   1.585  12.297
57904SOL    HW275487   8.635   1.600  12.330
57905SOL     OW75488  12.375   3.480   3.858
57905SOL    HW175489  12.417   3.505   3.776
57905SOL    HW275490  12.436   3.509   3.926
57906SOL     OW75491  14.578  10.970   6.901
57906SOL    HW175492  14.611  10.964   6.811
57906SOL    HW275493  14.561  10.880   6.927
57907SOL     OW75494   6.287  12.437   1.902
57907SOL    HW175495   6.229  12.428   1.827
57907SOL    HW275496   6.236  12.484   1.967
57908SOL     OW75497  14.102   2.076   2.379
57908SOL    HW175498  14.105   1.986   2.410
57908SOL    HW275499  14.186   2.114   2.406
57909SOL     OW75500   7.279   8.259   5.414
57909SOL    HW175501   7.213   8.300   5.469
57909SOL    HW275502   7.363   8.288   5.449
57910SOL     OW75503  10.400   8.744   1.404
57910SOL    HW175504  10.328   8.804   1.424
57910SOL    HW275505  10.393   8.675   1.471
57911SOL     OW75506  11.034   5.486   3.190
57911SOL    HW175507  11.051   5.432   3.113
57911SOL    HW275508  11.022   5.574   3.154
57912SOL     OW75509   4.759  11.834  14.099
57912SOL    HW175510   4.795  11.910  14.053
57912SOL    HW275511   4.796  11.758  14.053
57913SOL     OW75512   0.594  13.040  11.333
57913SOL    HW175513   0.622  13.123  11.294
57913SOL    HW275514   0.536  13.066  11.405
57914SOL     OW75515   3.895  12.779   7.133
57914SOL    HW175516   3.857  12.780   7.221
57914SOL    HW275517   3.933  12.866   7.121
57915SOL     OW75518  14.751  13.343  14.342
57915SOL    HW175519  14.808  13.310  14.411
57915SOL    HW275520  14.665  13.349  14.384
57916SOL     OW75521   2.984   6.373   2.568
57916SOL    HW175522   2.998   6.308   2.637
57916SOL    HW275523   3.047   6.442   2.587
57917SOL     OW75524   9.610  14.792   9.709
57917SOL    HW175525   9.669  14.855   9.666
57917SOL    HW275526   9.651  14.707   9.695
57918SOL     OW75527   7.798  10.195  11.576
57918SOL    HW175528   7.728  10.212  11.638
57918SOL    HW275529   7.859  10.269  11.587
57919SOL     OW75530  13.720  13.202   3.574
57919SOL    HW175531  13.693  13.217   3.665
57919SOL    HW275532  13.716  13.107   3.564
57920SOL     OW75533   5.398   1.671   8.079
57920SOL    HW175534   5.405   1.589   8.030
57920SOL    HW275535   5.410   1.646   8.171
57921SOL     OW75536  13.278  12.127   2.899
57921SOL    HW175537  13.265  12.034   2.882
57921SOL    HW275538  13.269  12.169   2.814
57922SOL     OW75539   2.023  13.125  10.930
57922SOL    HW175540   2.068  13.135  11.014
57922SOL    HW275541   2.089  13.146  10.864
57923SOL     OW75542   4.315  10.712   1.004
57923SOL    HW175543   4.361  10.685   0.925
57923SOL    HW275544   4.232  10.747   0.972
57924SOL     OW75545   1.318   7.204   0.087
57924SOL    HW175546   1.251   7.252   0.038
57924SOL    HW275547   1.373   7.165   0.020
57925SOL     OW75548   5.098  10.821   2.487
57925SOL    HW175549   5.033  10.751   2.477
57925SOL    HW275550   5.152  10.793   2.561
57926SOL     OW75551   6.285  12.474   4.710
57926SOL    HW175552   6.359  12.473   4.649
57926SOL    HW275553   6.279  12.384   4.742
57927SOL     OW75554   3.780   8.657   5.668
57927SOL    HW175555   3.759   8.719   5.598
57927SOL    HW275556   3.813   8.711   5.740
57928SOL     OW75557   4.284  12.644  13.130
57928SOL    HW175558   4.276  12.568  13.072
57928SOL    HW275559   4.200  12.689  13.122
57929SOL     OW75560   9.514   9.818   9.297
57929SOL    HW175561   9.585   9.806   9.361
57929SOL    HW275562   9.558   9.812   9.212
57930SOL     OW75563   1.056   4.176   6.058
57930SOL    HW175564   1.143   4.208   6.083
57930SOL    HW275565   1.069   4.138   5.971
57931SOL     OW75566   2.726  13.200   5.050
57931SOL    HW175567   2.812  13.237   5.068
57931SOL    HW275568   2.670  13.236   5.119
57932SOL     OW75569  13.178  11.797   2.361
57932SOL    HW175570  13.273  11.786   2.370
57932SOL    HW275571  13.155  11.749   2.282
57933SOL     OW75572   9.587   9.090  12.709
57933SOL    HW175573   9.606   9.164  12.767
57933SOL    HW275574   9.671   9.071  12.667
57934SOL     OW75575   9.488  12.324   5.387
57934SOL    HW175576   9.570  12.337   5.433
57934SOL    HW275577   9.484  12.395   5.324
57935SOL     OW75578   7.179  12.501  13.696
57935SOL    HW175579   7.088  12.485  13.719
57935SOL    HW275580   7.183  12.490  13.601
57936SOL     OW75581   9.156   9.367   5.259
57936SOL    HW175582   9.193   9.324   5.182
57936SOL    HW275583   9.112   9.297   5.306
57937SOL     OW75584   0.562   2.829   8.385
57937SOL    HW175585   0.608   2.766   8.441
57937SOL    HW275586   0.558   2.787   8.300
57938SOL     OW75587   5.870  10.263   3.533
57938SOL    HW175588   5.964  10.270   3.547
57938SOL    HW275589   5.831  10.310   3.607
57939SOL     OW75590   0.411  14.010   8.105
57939SOL    HW175591   0.403  13.933   8.049
57939SOL    HW275592   0.504  14.032   8.101
57940SOL     OW75593   8.859   2.384  13.959
57940SOL    HW175594   8.771   2.358  13.988
57940SOL    HW275595   8.867   2.346  13.871
57941SOL     OW75596  14.482  12.095  11.970
57941SOL    HW175597  14.428  12.163  11.928
57941SOL    HW275598  14.419  12.038  12.014
57942SOL     OW75599   7.965   4.248   3.367
57942SOL    HW175600   7.934   4.252   3.458
57942SOL    HW275601   7.918   4.175   3.329
57943SOL     OW75602   2.612   9.025   1.206
57943SOL    HW175603   2.537   8.966   1.193
57943SOL    HW275604   2.642   9.006   1.295
57944SOL     OW75605   9.058   2.414  12.780
57944SOL    HW175606   9.042   2.505  12.805
57944SOL    HW275607   9.137   2.418  12.726
57945SOL     OW75608  14.616  14.056   0.914
57945SOL    HW175609  14.572  14.099   0.840
57945SOL    HW275610  14.612  13.963   0.894
57946SOL     OW75611   8.024  13.675   9.085
57946SOL    HW175612   8.008  13.681   9.180
57946SOL    HW275613   8.117  13.650   9.079
57947SOL     OW75614   2.905   8.646   6.607
57947SOL    HW175615   2.913   8.597   6.689
57947SOL    HW275616   2.894   8.578   6.540
57948SOL     OW75617   0.722  11.693   7.511
57948SOL    HW175618   0.704  11.774   7.558
57948SOL    HW275619   0.730  11.720   7.419
57949SOL     OW75620   9.731   9.797   6.297
57949SOL    HW175621   9.816   9.816   6.336
57949SOL    HW275622   9.684   9.881   6.299
57950SOL     OW75623   4.207  14.083  12.697
57950SOL    HW175624   4.156  14.063  12.775
57950SOL    HW275625   4.237  13.998  12.665
57951SOL     OW75626   1.338  11.134  13.936
57951SOL    HW175627   1.327  11.148  13.842
57951SOL    HW275628   1.431  11.151  13.952
57952SOL     OW75629   5.293   2.472   5.401
57952SOL    HW175630   5.387   2.454   5.412
57952SOL    HW275631   5.275   2.541   5.465
57953SOL     OW75632   9.799  10.359   2.886
57953SOL    HW175633   9.744  10.341   2.810
57953SOL    HW275634   9.738  10.390   2.953
57954SOL     OW75635   2.249  13.200   3.122
57954SOL    HW175636   2.163  13.187   3.163
57954SOL    HW275637   2.277  13.113   3.096
57955SOL     OW75638   0.588  11.719  10.336
57955SOL    HW175639   0.664  11.688  10.387
57955SOL    HW275640   0.572  11.807  10.369
57956SOL     OW75641   0.902   8.979  13.544
57956SOL    HW175642   0.917   8.915  13.613
57956SOL    HW275643   0.977   9.038  13.550
57957SOL     OW75644   4.787  12.618   3.385
57957SOL    HW175645   4.743  12.548   3.337
57957SOL    HW275646   4.718  12.682   3.402
57958SOL     OW75647   4.091   7.566   1.614
57958SOL    HW175648   4.064   7.484   1.571
57958SOL    HW275649   4.045   7.564   1.698
57959SOL     OW75650  10.710   6.840   3.955
57959SOL    HW175651  10.802   6.817   3.959
57959SOL    HW275652  10.710   6.933   3.934
57960SOL     OW75653   3.314   0.058   4.894
57960SOL    HW175654   3.236   0.067   4.949
57960SOL    HW275655   3.283   0.078   4.805
57961SOL     OW75656   6.288   6.741   7.805
57961SOL    HW175657   6.292   6.807   7.736
57961SOL    HW275658   6.379   6.712   7.816
57962SOL     OW75659   3.363  14.413   8.915
57962SOL    HW175660   3.451  14.448   8.931
57962SOL    HW275661   3.377  14.334   8.863
57963SOL     OW75662   9.324   6.816   9.344
57963SOL    HW175663   9.373   6.762   9.282
57963SOL    HW275664   9.240   6.832   9.300
57964SOL     OW75665   1.743   3.279   0.992
57964SOL    HW175666   1.667   3.316   1.036
57964SOL    HW275667   1.809   3.348   0.997
57965SOL     OW75668  12.831  12.778  14.088
57965SOL    HW175669  12.753  12.736  14.126
57965SOL    HW275670  12.842  12.735  14.003
57966SOL     OW75671  11.390  11.739   3.294
57966SOL    HW175672  11.297  11.743   3.271
57966SOL    HW275673  11.418  11.654   3.261
57967SOL     OW75674  14.614   2.671   2.033
57967SOL    HW175675  14.628   2.726   2.111
57967SOL    HW275676  14.540   2.615   2.057
57968SOL     OW75677  14.270  10.944   3.990
57968SOL    HW175678  14.188  10.924   4.034
57968SOL    HW275679  14.245  10.973   3.903
57969SOL     OW75680   0.274   9.698   5.023
57969SOL    HW175681   0.220   9.652   4.959
57969SOL    HW275682   0.353   9.722   4.974
57970SOL     OW75683  14.560   1.941   9.430
57970SOL    HW175684  14.628   1.999   9.395
57970SOL    HW275685  14.507   1.997   9.486
57971SOL     OW75686   6.145   7.396   8.282
57971SOL    HW175687   6.078   7.444   8.233
57971SOL    HW275688   6.115   7.306   8.282
57972SOL     OW75689   5.508   7.716   1.758
57972SOL    HW175690   5.582   7.739   1.702
57972SOL    HW275691   5.440   7.778   1.734
57973SOL     OW75692   9.072  10.094   2.855
57973SOL    HW175693   9.014  10.094   2.779
57973SOL    HW275694   9.042  10.169   2.907
57974SOL     OW75695   0.441  13.283   0.367
57974SOL    HW175696   0.400  13.278   0.281
57974SOL    HW275697   0.454  13.191   0.392
57975SOL     OW75698   0.381   3.843  14.555
57975SOL    HW175699   0.335   3.861  14.473
57975SOL    HW275700   0.376   3.925  14.604
57976SOL     OW75701   9.723   3.208   8.047
57976SOL    HW175702   9.816   3.191   8.062
57976SOL    HW275703   9.718   3.238   7.956
57977SOL     OW75704   2.366  10.661   5.144
57977SOL    HW175705   2.294  10.600   5.156
57977SOL    HW275706   2.365  10.716   5.222
57978SOL     OW75707   0.677   3.289   9.883
57978SOL    HW175708   0.759   3.289   9.834
57978SOL    HW275709   0.657   3.196   9.897
57979SOL     OW75710   2.081   7.862   9.296
57979SOL    HW175711   2.024   7.817   9.233
57979SOL    HW275712   2.169   7.845   9.265
57980SOL     OW75713   2.719   4.509   6.446
57980SOL    HW175714   2.633   4.552   6.452
57980SOL    HW275715   2.710   4.450   6.372
57981SOL     OW75716   8.975  14.149   7.182
57981SOL    HW175717   8.904  14.085   7.192
57981SOL    HW275718   8.958  14.214   7.250
57982SOL     OW75719  13.512  13.252   4.649
57982SOL    HW175720  13.506  13.240   4.743
57982SOL    HW275721  13.468  13.175   4.612
57983SOL     OW75722   9.721   8.219  12.368
57983SOL    HW175723   9.694   8.306  12.337
57983SOL    HW275724   9.764   8.236  12.451
57984SOL     OW75725   9.815   2.862   9.259
57984SOL    HW175726   9.840   2.944   9.303
57984SOL    HW275727   9.862   2.794   9.307
57985SOL     OW75728   4.371   8.895  10.195
57985SOL    HW175729   4.365   8.965  10.259
57985SOL    HW275730   4.280   8.881  10.166
57986SOL     OW75731   0.566   1.235   8.905
57986SOL    HW175732   0.588   1.144   8.885
57986SOL    HW275733   0.618   1.287   8.843
57987SOL     OW75734  10.448  12.839   0.007
57987SOL    HW175735  10.493  12.883   0.079
57987SOL    HW275736  10.450  12.903  14.813
57988SOL     OW75737   8.908   2.498   2.500
57988SOL    HW175738   8.994   2.459   2.520
57988SOL    HW275739   8.917   2.534   2.412
57989SOL     OW75740  12.221   8.222   7.933
57989SOL    HW175741  12.211   8.145   7.878
57989SOL    HW275742  12.316   8.232   7.943
57990SOL     OW75743   5.687   7.901   6.733
57990SOL    HW175744   5.741   7.979   6.745
57990SOL    HW275745   5.639   7.892   6.816
57991SOL     OW75746  12.716   7.281   8.756
57991SOL    HW175747  12.790   7.282   8.817
57991SOL    HW275748  12.733   7.207   8.698
57992SOL     OW75749   5.651   8.850   7.111
57992SOL    HW175750   5.599   8.876   7.188
57992SOL    HW275751   5.619   8.762   7.090
57993SOL     OW75752   6.194   9.705  12.472
57993SOL    HW175753   6.144   9.625  12.485
57993SOL    HW275754   6.219   9.703  12.380
57994SOL     OW75755   7.974   6.999   9.877
57994SOL    HW175756   7.959   6.984   9.971
57994SOL    HW275757   7.938   6.921   9.835
57995SOL     OW75758   9.687   2.750   4.321
57995SOL    HW175759   9.741   2.674   4.302
57995SOL    HW275760   9.744   2.825   4.301
57996SOL     OW75761   8.073   9.668   8.185
57996SOL    HW175762   7.980   9.682   8.166
57996SOL    HW275763   8.088   9.576   8.164
57997SOL     OW75764  13.142   8.209   3.383
57997SOL    HW175765  13.138   8.202   3.288
57997SOL    HW275766  13.157   8.119   3.413
57998SOL     OW75767   3.236  13.586  13.231
57998SOL    HW175768   3.194  13.654  13.284
57998SOL    HW275769   3.206  13.503  13.270
57999SOL     OW75770  13.609   6.106  12.374
57999SOL    HW175771  13.669   6.179  12.393
57999SOL    HW275772  13.546   6.108  12.447
58000SOL     OW75773   5.905  11.531   6.797
58000SOL    HW175774   5.837  11.466   6.778
58000SOL    HW275775   5.986  11.492   6.762
58001SOL     OW75776   1.368   6.761  14.116
58001SOL    HW175777   1.311   6.830  14.149
58001SOL    HW275778   1.360   6.691  14.181
58002SOL     OW75779   3.510  12.240  10.785
58002SOL    HW175780   3.438  12.229  10.847
58002SOL    HW275781   3.474  12.210  10.701
58003SOL     OW75782  13.298   6.395  10.545
58003SOL    HW175783  13.268   6.324  10.488
58003SOL    HW275784  13.218   6.440  10.572
58004SOL     OW75785   4.386   6.679  14.625
58004SOL    HW175786   4.473   6.669  14.587
58004SOL    HW275787   4.356   6.766  14.595
58005SOL     OW75788   8.820  13.239   9.286
58005SOL    HW175789   8.898  13.183   9.286
58005SOL    HW275790   8.747  13.177   9.286
58006SOL     OW75791  14.685   2.194   1.549
58006SOL    HW175792  14.759   2.186   1.610
58006SOL    HW275793  14.615   2.231   1.602
58007SOL     OW75794  12.800   5.607   8.635
58007SOL    HW175795  12.819   5.607   8.542
58007SOL    HW275796  12.704   5.610   8.640
58008SOL     OW75797   4.455   8.659   1.842
58008SOL    HW175798   4.373   8.651   1.892
58008SOL    HW275799   4.443   8.599   1.768
58009SOL     OW75800   0.319  13.025   0.510
58009SOL    HW175801   0.377  13.007   0.584
58009SOL    HW275802   0.242  13.066   0.549
58010SOL     OW75803   8.016   2.054   9.919
58010SOL    HW175804   7.923   2.076   9.922
58010SOL    HW275805   8.046   2.069  10.009
58011SOL     OW75806  12.312  10.221   9.790
58011SOL    HW175807  12.357  10.137   9.779
58011SOL    HW275808  12.352  10.279   9.726
58012SOL     OW75809  12.451   6.591   6.452
58012SOL    HW175810  12.423   6.664   6.508
58012SOL    HW275811  12.369   6.553   6.420
58013SOL     OW75812   0.945  14.178   1.036
58013SOL    HW175813   0.965  14.210   1.123
58013SOL    HW275814   0.854  14.202   1.021
58014SOL     OW75815  11.432  11.754  13.297
58014SOL    HW175816  11.519  11.755  13.338
58014SOL    HW275817  11.446  11.714  13.211
58015SOL     OW75818   5.772   9.612   5.353
58015SOL    HW175819   5.722   9.590   5.432
58015SOL    HW275820   5.854   9.564   5.362
58016SOL     OW75821   8.742   7.560   9.439
58016SOL    HW175822   8.752   7.558   9.344
58016SOL    HW275823   8.666   7.504   9.456
58017SOL     OW75824  11.472  14.270   2.554
58017SOL    HW175825  11.429  14.186   2.536
58017SOL    HW275826  11.412  14.336   2.522
58018SOL     OW75827  10.407   2.046  14.113
58018SOL    HW175828  10.415   1.998  14.031
58018SOL    HW275829  10.377   2.133  14.086
58019SOL     OW75830  11.360   2.305   0.698
58019SOL    HW175831  11.344   2.243   0.627
58019SOL    HW275832  11.376   2.389   0.654
58020SOL     OW75833   8.181   8.379  10.370
58020SOL    HW175834   8.234   8.414  10.442
58020SOL    HW275835   8.138   8.301  10.407
58021SOL     OW75836   1.336   2.809  11.460
58021SOL    HW175837   1.292   2.793  11.544
58021SOL    HW275838   1.405   2.872  11.481
58022SOL     OW75839   1.821  11.077  10.633
58022SOL    HW175840   1.802  11.171  10.630
58022SOL    HW275841   1.775  11.046  10.711
58023SOL     OW75842   2.886  11.540  10.088
58023SOL    HW175843   2.944  11.579  10.154
58023SOL    HW275844   2.799  11.570  10.112
58024SOL     OW75845   6.199  10.195   6.509
58024SOL    HW175846   6.257  10.260   6.469
58024SOL    HW275847   6.125  10.188   6.449
58025SOL     OW75848   1.611   9.298  11.574
58025SOL    HW175849   1.692   9.269  11.616
58025SOL    HW275850   1.620   9.393  11.568
58026SOL     OW75851  11.929   0.454  13.478
58026SOL    HW175852  11.932   0.362  13.452
58026SOL    HW275853  11.838   0.480  13.462
58027SOL     OW75854   2.740   0.755   6.143
58027SOL    HW175855   2.788   0.829   6.180
58027SOL    HW275856   2.762   0.681   6.199
58028SOL     OW75857   8.145   5.631   4.271
58028SOL    HW175858   8.111   5.661   4.187
58028SOL    HW275859   8.080   5.662   4.335
58029SOL     OW75860   7.894   4.159   8.969
58029SOL    HW175861   7.909   4.242   9.014
58029SOL    HW275862   7.825   4.115   9.019
58030SOL     OW75863   4.378   7.331  10.699
58030SOL    HW175864   4.282   7.335  10.707
58030SOL    HW275865   4.398   7.386  10.623
58031SOL     OW75866   8.904  13.641   0.531
58031SOL    HW175867   8.927  13.727   0.567
58031SOL    HW275868   8.862  13.661   0.448
58032SOL     OW75869   9.582   0.343   1.300
58032SOL    HW175870   9.558   0.371   1.388
58032SOL    HW275871   9.524   0.392   1.242
58033SOL     OW75872   6.274   5.933  13.704
58033SOL    HW175873   6.205   5.931  13.770
58033SOL    HW275874   6.256   5.857  13.649
58034SOL     OW75875   9.178   4.271  10.576
58034SOL    HW175876   9.104   4.317  10.617
58034SOL    HW275877   9.188   4.313  10.490
58035SOL     OW75878   9.168   4.904  10.063
58035SOL    HW175879   9.159   4.848   9.986
58035SOL    HW275880   9.170   4.843  10.137
58036SOL     OW75881   5.634   9.277   5.469
58036SOL    HW175882   5.703   9.227   5.513
58036SOL    HW275883   5.619   9.230   5.387
58037SOL     OW75884  13.401   8.550   8.944
58037SOL    HW175885  13.362   8.483   8.888
58037SOL    HW275886  13.379   8.522   9.033
58038SOL     OW75887   8.430  10.576   8.897
58038SOL    HW175888   8.406  10.485   8.883
58038SOL    HW275889   8.468  10.578   8.985
58039SOL     OW75890   2.738  12.976   6.076
58039SOL    HW175891   2.697  13.033   6.141
58039SOL    HW275892   2.759  13.034   6.003
58040SOL     OW75893   6.879   3.542   6.003
58040SOL    HW175894   6.856   3.592   6.082
58040SOL    HW275895   6.822   3.577   5.935
58041SOL     OW75896  14.352   5.007   0.830
58041SOL    HW175897  14.354   4.992   0.736
58041SOL    HW275898  14.373   4.922   0.869
58042SOL     OW75899  13.238   2.628   1.936
58042SOL    HW175900  13.199   2.571   1.870
58042SOL    HW275901  13.169   2.689   1.959
58043SOL     OW75902   8.187   7.766  11.516
58043SOL    HW175903   8.187   7.728  11.428
58043SOL    HW275904   8.095   7.760  11.544
58044SOL     OW75905   2.426   8.290   6.991
58044SOL    HW175906   2.380   8.229   6.933
58044SOL    HW275907   2.445   8.239   7.070
58045SOL     OW75908  10.851   1.224   0.955
58045SOL    HW175909  10.897   1.307   0.944
58045SOL    HW275910  10.794   1.238   1.031
58046SOL     OW75911   2.242  14.191   5.002
58046SOL    HW175912   2.256  14.285   4.998
58046SOL    HW275913   2.161  14.176   4.953
58047SOL     OW75914   2.951   2.058  14.784
58047SOL    HW175915   2.964   2.138  14.733
58047SOL    HW275916   2.867   2.071  14.829
58048SOL     OW75917  14.706   6.223   9.407
58048SOL    HW175918  14.703   6.312   9.443
58048SOL    HW275919  14.796   6.195   9.419
58049SOL     OW75920   0.291   5.375   0.072
58049SOL    HW175921   0.323   5.312   0.007
58049SOL    HW275922   0.221   5.329   0.117
58050SOL     OW75923  10.327   4.341   4.769
58050SOL    HW175924  10.364   4.316   4.854
58050SOL    HW275925  10.400   4.379   4.720
58051SOL     OW75926   7.421   1.645   2.894
58051SOL    HW175927   7.492   1.659   2.831
58051SOL    HW275928   7.465   1.636   2.978
58052SOL     OW75929  10.457   1.942   1.294
58052SOL    HW175930  10.522   2.013   1.297
58052SOL    HW275931  10.390   1.969   1.357
58053SOL     OW75932   5.745   0.392  10.612
58053SOL    HW175933   5.735   0.300  10.590
58053SOL    HW275934   5.715   0.440  10.534
58054SOL     OW75935   2.906  12.806   1.105
58054SOL    HW175936   2.925  12.898   1.121
58054SOL    HW275937   2.940  12.762   1.183
58055SOL     OW75938   7.208   6.399   6.892
58055SOL    HW175939   7.128   6.447   6.873
58055SOL    HW275940   7.181   6.307   6.892
58056SOL     OW75941  11.852   9.120   2.507
58056SOL    HW175942  11.916   9.090   2.572
58056SOL    HW275943  11.801   9.187   2.552
58057SOL     OW75944   6.371   8.759   9.678
58057SOL    HW175945   6.315   8.722   9.610
58057SOL    HW275946   6.311   8.802   9.739
58058SOL     OW75947  10.809  13.799   2.323
58058SOL    HW175948  10.819  13.826   2.414
58058SOL    HW275949  10.719  13.766   2.317
58059SOL     OW75950  11.392  14.202  10.879
58059SOL    HW175951  11.432  14.221  10.964
58059SOL    HW275952  11.424  14.115  10.856
58060SOL     OW75953   9.547   9.539   9.123
58060SOL    HW175954   9.575   9.469   9.063
58060SOL    HW275955   9.601   9.527   9.201
58061SOL     OW75956  10.230   1.268   9.069
58061SOL    HW175957  10.141   1.266   9.105
58061SOL    HW275958  10.283   1.306   9.139
58062SOL     OW75959   7.543  10.389  12.515
58062SOL    HW175960   7.454  10.408  12.543
58062SOL    HW275961   7.582  10.341  12.588
58063SOL     OW75962  10.018  10.353   4.435
58063SOL    HW175963  10.039  10.350   4.342
58063SOL    HW275964   9.922  10.355   4.438
58064SOL     OW75965   0.382   8.510   0.768
58064SOL    HW175966   0.365   8.577   0.834
58064SOL    HW275967   0.330   8.537   0.692
58065SOL     OW75968   3.679  13.598  10.985
58065SOL    HW175969   3.655  13.604  10.893
58065SOL    HW275970   3.596  13.612  11.032
58066SOL     OW75971   7.507   5.878  13.272
58066SOL    HW175972   7.508   5.893  13.177
58066SOL    HW275973   7.543   5.959  13.309
58067SOL     OW75974  13.845  13.768   6.528
58067SOL    HW175975  13.868  13.719   6.606
58067SOL    HW275976  13.924  13.766   6.473
58068SOL     OW75977   4.167   7.113   5.654
58068SOL    HW175978   4.202   7.038   5.606
58068SOL    HW275979   4.120   7.074   5.727
58069SOL     OW75980   6.679  10.100  11.973
58069SOL    HW175981   6.762  10.131  11.937
58069SOL    HW275982   6.687  10.005  11.973
58070SOL     OW75983   0.863   4.296  13.281
58070SOL    HW175984   0.830   4.281  13.370
58070SOL    HW275985   0.880   4.390  13.277
58071SOL     OW75986   1.450   9.701  13.174
58071SOL    HW175987   1.459   9.630  13.111
58071SOL    HW275988   1.451   9.780  13.121
58072SOL     OW75989  13.825   7.680  14.850
58072SOL    HW175990  13.787   7.721  14.773
58072SOL    HW275991  13.893   7.741   0.001
58073SOL     OW75992  10.753  11.638   6.839
58073SOL    HW175993  10.697  11.570   6.800
58073SOL    HW275994  10.833  11.636   6.788
58074SOL     OW75995   5.202  12.802   2.076
58074SOL    HW175996   5.262  12.853   2.130
58074SOL    HW275997   5.118  12.845   2.086
58075SOL     OW75998  10.859   9.506  13.395
58075SOL    HW175999  10.823   9.455  13.467
58075SOL    HW276000  10.934   9.553  13.433
58076SOL     OW76001   2.606   3.838   5.702
58076SOL    HW176002   2.617   3.773   5.633
58076SOL    HW276003   2.638   3.795   5.782
58077SOL     OW76004   7.971   7.613  10.921
58077SOL    HW176005   8.058   7.589  10.953
58077SOL    HW276006   7.979   7.608  10.825
58078SOL     OW76007   1.606   8.798   5.000
58078SOL    HW176008   1.624   8.746   4.922
58078SOL    HW276009   1.533   8.855   4.975
58079SOL     OW76010   0.213   3.224   1.247
58079SOL    HW176011   0.187   3.228   1.339
58079SOL    HW276012   0.156   3.287   1.203
58080SOL     OW76013   2.486   0.599   5.621
58080SOL    HW176014   2.426   0.663   5.582
58080SOL    HW276015   2.453   0.585   5.709
58081SOL     OW76016   0.863   0.552   0.798
58081SOL    HW176017   0.788   0.493   0.800
58081SOL    HW276018   0.859   0.594   0.712
58082SOL     OW76019  14.830   3.823   8.239
58082SOL    HW176020  14.771   3.851   8.310
58082SOL    HW276021  14.851   3.904   8.193
58083SOL     OW76022  10.565   3.090   0.869
58083SOL    HW176023  10.655   3.104   0.840
58083SOL    HW276024  10.572   3.060   0.959
58084SOL     OW76025   5.380   9.861   0.140
58084SOL    HW176026   5.425   9.780   0.116
58084SOL    HW276027   5.451   9.924   0.153
58085SOL     OW76028   3.245  12.551   8.034
58085SOL    HW176029   3.237  12.457   8.050
58085SOL    HW276030   3.293  12.558   7.951
58086SOL     OW76031   5.215   9.446  14.320
58086SOL    HW176032   5.167   9.482  14.395
58086SOL    HW276033   5.295   9.498  14.316
58087SOL     OW76034  12.662   1.936   7.050
58087SOL    HW176035  12.741   1.882   7.044
58087SOL    HW276036  12.596   1.888   7.000
58088SOL     OW76037  10.634   7.952   8.638
58088SOL    HW176038  10.645   8.030   8.692
58088SOL    HW276039  10.637   7.879   8.701
58089SOL     OW76040   3.290  12.837  12.541
58089SOL    HW176041   3.274  12.915  12.487
58089SOL    HW276042   3.296  12.871  12.630
58090SOL     OW76043   7.319   7.159  14.549
58090SOL    HW176044   7.342   7.134  14.460
58090SOL    HW276045   7.370   7.238  14.566
58091SOL     OW76046   8.105   0.519  12.878
58091SOL    HW176047   8.161   0.453  12.836
58091SOL    HW276048   8.016   0.491  12.858
58092SOL     OW76049   5.333  13.048   1.990
58092SOL    HW176050   5.357  13.137   1.965
58092SOL    HW276051   5.411  13.013   2.033
58093SOL     OW76052   6.229   2.511  13.054
58093SOL    HW176053   6.206   2.574  13.123
58093SOL    HW276054   6.203   2.553  12.973
58094SOL     OW76055   7.768   6.985  14.730
58094SOL    HW176056   7.776   6.890  14.728
58094SOL    HW276057   7.720   7.004  14.810
58095SOL     OW76058   4.698   2.961   9.246
58095SOL    HW176059   4.754   3.031   9.216
58095SOL    HW276060   4.729   2.942   9.335
58096SOL     OW76061  13.424   1.524  10.214
58096SOL    HW176062  13.439   1.555  10.125
58096SOL    HW276063  13.339   1.479  10.209
58097SOL     OW76064   7.707   5.502  11.428
58097SOL    HW176065   7.783   5.518  11.484
58097SOL    HW276066   7.719   5.560  11.353
58098SOL     OW76067  12.425  10.655   6.197
58098SOL    HW176068  12.443  10.671   6.104
58098SOL    HW276069  12.511  10.652   6.238
58099SOL     OW76070   1.682   4.204   5.411
58099SOL    HW176071   1.634   4.192   5.330
58099SOL    HW276072   1.773   4.216   5.384
58100SOL     OW76073  12.574  12.151   8.899
58100SOL    HW176074  12.644  12.193   8.850
58100SOL    HW276075  12.580  12.188   8.987
58101SOL     OW76076   4.776   8.616   6.594
58101SOL    HW176077   4.767   8.531   6.638
58101SOL    HW276078   4.782   8.594   6.501
58102SOL     OW76079   4.786  10.373   8.563
58102SOL    HW176080   4.770  10.467   8.566
58102SOL    HW276081   4.870  10.365   8.517
58103SOL     OW76082   8.258   5.150   7.111
58103SOL    HW176083   8.301   5.095   7.046
58103SOL    HW276084   8.253   5.095   7.190
58104SOL     OW76085  13.540   5.035   7.218
58104SOL    HW176086  13.597   5.037   7.295
58104SOL    HW276087  13.519   5.127   7.201
58105SOL     OW76088  10.312  11.898   2.406
58105SOL    HW176089  10.248  11.828   2.410
58105SOL    HW276090  10.261  11.978   2.417
58106SOL     OW76091   5.748   6.113   7.100
58106SOL    HW176092   5.693   6.048   7.142
58106SOL    HW276093   5.734   6.193   7.151
58107SOL     OW76094  11.945   5.663   5.909
58107SOL    HW176095  11.916   5.623   5.991
58107SOL    HW276096  11.926   5.756   5.919
58108SOL     OW76097   3.056   6.769   7.289
58108SOL    HW176098   2.988   6.717   7.247
58108SOL    HW276099   3.033   6.860   7.269
58109SOL     OW76100  11.994   2.130  12.728
58109SOL    HW176101  11.914   2.182  12.720
58109SOL    HW276102  12.032   2.156  12.812
58110SOL     OW76103  10.317   0.586  12.808
58110SOL    HW176104  10.350   0.669  12.774
58110SOL    HW276105  10.261   0.611  12.882
58111SOL     OW76106   2.394   0.970   1.762
58111SOL    HW176107   2.451   0.894   1.752
58111SOL    HW276108   2.344   0.975   1.680
58112SOL     OW76109   1.748   2.579   6.071
58112SOL    HW176110   1.841   2.594   6.086
58112SOL    HW276111   1.737   2.484   6.077
58113SOL     OW76112   2.999   2.545   4.486
58113SOL    HW176113   2.946   2.618   4.518
58113SOL    HW276114   3.011   2.564   4.393
58114SOL     OW76115   4.550   1.211  11.009
58114SOL    HW176116   4.523   1.124  11.038
58114SOL    HW276117   4.626   1.196  10.953
58115SOL     OW76118   3.413   4.619  14.601
58115SOL    HW176119   3.338   4.626  14.659
58115SOL    HW276120   3.376   4.610  14.513
58116SOL     OW76121   7.163   7.976   4.998
58116SOL    HW176122   7.176   8.019   5.083
58116SOL    HW276123   7.250   7.941   4.976
58117SOL     OW76124   2.651   6.032  13.850
58117SOL    HW176125   2.718   5.975  13.814
58117SOL    HW276126   2.667   6.033  13.944
58118SOL     OW76127  10.969   3.505  13.194
58118SOL    HW176128  10.920   3.523  13.114
58118SOL    HW276129  11.037   3.444  13.167
58119SOL     OW76130   0.430   4.377   9.329
58119SOL    HW176131   0.520   4.344   9.333
58119SOL    HW276132   0.376   4.298   9.330
58120SOL     OW76133   9.861   7.575   9.697
58120SOL    HW176134   9.949   7.593   9.665
58120SOL    HW276135   9.819   7.661   9.702
58121SOL     OW76136   0.523   9.517   4.580
58121SOL    HW176137   0.456   9.528   4.647
58121SOL    HW276138   0.548   9.607   4.558
58122SOL     OW76139   6.853   3.456  10.913
58122SOL    HW176140   6.788   3.458  10.843
58122SOL    HW276141   6.862   3.364  10.935
58123SOL     OW76142  12.089  10.406  14.427
58123SOL    HW176143  12.064  10.405  14.519
58123SOL    HW276144  12.131  10.491  14.414
58124SOL     OW76145   9.721  13.787   3.940
58124SOL    HW176146   9.807  13.775   3.899
58124SOL    HW276147   9.728  13.741   4.023
58125SOL     OW76148   4.983   4.240   5.863
58125SOL    HW176149   4.974   4.309   5.929
58125SOL    HW276150   5.070   4.204   5.876
58126SOL     OW76151   3.458   9.926  14.815
58126SOL    HW176152   3.391   9.978  14.770
58126SOL    HW276153   3.418   9.904   0.021
58127SOL     OW76154  13.760  10.091   8.478
58127SOL    HW176155  13.665  10.081   8.471
58127SOL    HW276156  13.774  10.141   8.558
58128SOL     OW76157  11.522   2.957   8.780
58128SOL    HW176158  11.431   2.986   8.780
58128SOL    HW276159  11.562   3.003   8.854
58129SOL     OW76160   4.259   8.172  11.497
58129SOL    HW176161   4.332   8.183  11.558
58129SOL    HW276162   4.286   8.101  11.439
58130SOL     OW76163   0.387   0.296  10.585
58130SOL    HW176164   0.345   0.223  10.631
58130SOL    HW276165   0.479   0.270  10.577
58131SOL     OW76166   0.937   2.898   1.602
58131SOL    HW176167   0.891   2.937   1.676
58131SOL    HW276168   0.912   2.805   1.605
58132SOL     OW76169   0.822  11.831  10.091
58132SOL    HW176170   0.768  11.883  10.150
58132SOL    HW276171   0.825  11.744  10.131
58133SOL     OW76172  14.864  10.495   0.981
58133SOL    HW176173  14.820  10.577   1.004
58133SOL    HW276174   0.022  10.463   1.064
58134SOL     OW76175   9.061   0.577  14.086
58134SOL    HW176176   8.970   0.550  14.071
58134SOL    HW276177   9.113   0.502  14.060
58135SOL     OW76178   1.282   5.047   7.494
58135SOL    HW176179   1.256   4.959   7.465
58135SOL    HW276180   1.201   5.097   7.495
58136SOL     OW76181   3.851   8.564   4.280
58136SOL    HW176182   3.912   8.520   4.339
58136SOL    HW276183   3.865   8.657   4.295
58137SOL     OW76184  14.139  10.924   5.428
58137SOL    HW176185  14.053  10.898   5.461
58137SOL    HW276186  14.162  11.002   5.479
58138SOL     OW76187   5.744   0.031   3.315
58138SOL    HW176188   5.769   0.123   3.310
58138SOL    HW276189   5.780  14.871   3.234
58139SOL     OW76190   9.366  10.656  14.766
58139SOL    HW176191   9.298  10.723  14.760
58139SOL    HW276192   9.407  10.656  14.680
58140SOL     OW76193  11.094   3.416   4.896
58140SOL    HW176194  11.186   3.389   4.903
58140SOL    HW276195  11.092   3.502   4.938
58141SOL     OW76196   6.317   6.899   1.659
58141SOL    HW176197   6.227   6.891   1.629
58141SOL    HW276198   6.367   6.845   1.597
58142SOL     OW76199   8.431   5.328   1.343
58142SOL    HW176200   8.429   5.233   1.331
58142SOL    HW276201   8.520   5.353   1.317
58143SOL     OW76202   5.478   5.413   3.803
58143SOL    HW176203   5.545   5.359   3.845
58143SOL    HW276204   5.400   5.357   3.800
58144SOL     OW76205   5.937  12.238   5.541
58144SOL    HW176206   5.972  12.209   5.457
58144SOL    HW276207   6.003  12.300   5.574
58145SOL     OW76208   8.017   8.164  11.146
58145SOL    HW176209   8.100   8.125  11.117
58145SOL    HW276210   8.026   8.171  11.241
58146SOL     OW76211   8.902  14.059   9.291
58146SOL    HW176212   8.900  14.068   9.386
58146SOL    HW276213   8.930  14.145   9.259
58147SOL     OW76214   1.890   7.111   7.991
58147SOL    HW176215   1.847   7.094   7.907
58147SOL    HW276216   1.889   7.207   7.999
58148SOL     OW76217   4.987   7.452   8.288
58148SOL    HW176218   4.940   7.409   8.360
58148SOL    HW276219   5.079   7.450   8.315
58149SOL     OW76220   4.567   7.937   2.696
58149SOL    HW176221   4.635   7.993   2.732
58149SOL    HW276222   4.613   7.876   2.638
58150SOL     OW76223   6.522   9.671  11.545
58150SOL    HW176224   6.566   9.589  11.520
58150SOL    HW276225   6.582   9.740  11.516
58151SOL     OW76226   1.449   5.259  11.377
58151SOL    HW176227   1.512   5.308  11.429
58151SOL    HW276228   1.502   5.198  11.326
58152SOL     OW76229   0.765   0.092   0.782
58152SOL    HW176230   0.821   0.042   0.723
58152SOL    HW276231   0.761   0.039   0.862
58153SOL     OW76232  13.993   6.835  13.141
58153SOL    HW176233  13.979   6.929  13.152
58153SOL    HW276234  14.035   6.826  13.055
58154SOL     OW76235   2.052   5.687  10.022
58154SOL    HW176236   1.968   5.730  10.012
58154SOL    HW276237   2.046   5.640  10.105
58155SOL     OW76238  11.294  13.098   1.388
58155SOL    HW176239  11.262  13.064   1.472
58155SOL    HW276240  11.349  13.173   1.411
58156SOL     OW76241  13.948  11.015  14.147
58156SOL    HW176242  13.900  11.094  14.121
58156SOL    HW276243  13.952  10.962  14.068
58157SOL     OW76244   6.815  14.595   6.558
58157SOL    HW176245   6.838  14.666   6.498
58157SOL    HW276246   6.849  14.516   6.516
58158SOL     OW76247   4.023   9.147  10.116
58158SOL    HW176248   3.958   9.191  10.062
58158SOL    HW276249   4.040   9.064  10.071
58159SOL     OW76250  13.587   3.355   0.467
58159SOL    HW176251  13.605   3.279   0.522
58159SOL    HW276252  13.654   3.419   0.490
58160SOL     OW76253  12.478   5.731   5.633
58160SOL    HW176254  12.470   5.688   5.548
58160SOL    HW276255  12.523   5.666   5.688
58161SOL     OW76256   0.878   8.107  11.848
58161SOL    HW176257   0.943   8.072  11.909
58161SOL    HW276258   0.925   8.171  11.796
58162SOL     OW76259   0.040   4.447   0.168
58162SOL    HW176260   0.068   4.358   0.145
58162SOL    HW276261  14.864   4.435   0.246
58163SOL     OW76262  10.095   4.378   1.073
58163SOL    HW176263  10.171   4.426   1.041
58163SOL    HW276264  10.109   4.371   1.167
58164SOL     OW76265   3.975   7.983   2.111
58164SOL    HW176266   4.039   7.920   2.078
58164SOL    HW276267   3.895   7.964   2.061
58165SOL     OW76268  13.431  10.917   5.415
58165SOL    HW176269  13.503  10.964   5.372
58165SOL    HW276270  13.468  10.831   5.434
58166SOL     OW76271   6.293  14.734  12.578
58166SOL    HW176272   6.388  14.736  12.566
58166SOL    HW276273   6.276  14.799  12.646
58167SOL     OW76274   0.106   0.589   7.891
58167SOL    HW176275   0.020   0.564   7.857
58167SOL    HW276276   0.097   0.683   7.910
58168SOL     OW76277   8.600  12.706   3.354
58168SOL    HW176278   8.584  12.616   3.323
58168SOL    HW276279   8.664  12.696   3.423
58169SOL     OW76280   4.011   8.966   9.678
58169SOL    HW176281   4.020   9.059   9.701
58169SOL    HW276282   3.969   8.966   9.592
58170SOL     OW76283  14.542  10.065   9.288
58170SOL    HW176284  14.478  10.123   9.247
58170SOL    HW276285  14.514   9.977   9.264
58171SOL     OW76286   7.749  11.157  13.836
58171SOL    HW176287   7.828  11.147  13.783
58171SOL    HW276288   7.720  11.247  13.819
58172SOL     OW76289   2.862   9.654   6.101
58172SOL    HW176290   2.832   9.745   6.097
58172SOL    HW276291   2.791   9.607   6.145
58173SOL     OW76292   6.783   5.083  10.242
58173SOL    HW176293   6.746   5.030  10.313
58173SOL    HW276294   6.789   5.023  10.168
58174SOL     OW76295  10.461   4.175  12.166
58174SOL    HW176296  10.498   4.103  12.218
58174SOL    HW276297  10.476   4.150  12.075
58175SOL     OW76298   7.821  12.923  12.684
58175SOL    HW176299   7.794  12.860  12.616
58175SOL    HW276300   7.740  12.966  12.711
58176SOL     OW76301   1.800   2.946   5.554
58176SOL    HW176302   1.854   2.945   5.475
58176SOL    HW276303   1.710   2.948   5.521
58177SOL     OW76304  12.702   3.171  13.996
58177SOL    HW176305  12.719   3.099  14.056
58177SOL    HW276306  12.781   3.225  14.000
58178SOL     OW76307   4.456   8.545   3.951
58178SOL    HW176308   4.526   8.558   3.888
58178SOL    HW276309   4.399   8.480   3.910
58179SOL     OW76310   2.748   7.446  14.847
58179SOL    HW176311   2.678   7.495  14.803
58179SOL    HW276312   2.822   7.506  14.848
58180SOL     OW76313   9.673   9.438   1.795
58180SOL    HW176314   9.580   9.441   1.818
58180SOL    HW276315   9.674   9.418   1.702
58181SOL     OW76316   9.904  14.661  13.687
58181SOL    HW176317   9.972  14.693  13.629
58181SOL    HW276318   9.948  14.650  13.772
58182SOL     OW76319   0.435   1.041  10.925
58182SOL    HW176320   0.426   0.990  10.844
58182SOL    HW276321   0.498   0.993  10.978
58183SOL     OW76322   3.922   1.282  11.054
58183SOL    HW176323   3.953   1.302  11.143
58183SOL    HW276324   3.988   1.322  10.997
58184SOL     OW76325   8.513  10.562   4.008
58184SOL    HW176326   8.424  10.591   3.991
58184SOL    HW276327   8.532  10.500   3.938
58185SOL     OW76328  13.375  13.754   3.870
58185SOL    HW176329  13.354  13.675   3.920
58185SOL    HW276330  13.333  13.741   3.785
58186SOL     OW76331   5.628   0.303   5.727
58186SOL    HW176332   5.633   0.276   5.819
58186SOL    HW276333   5.554   0.254   5.692
58187SOL     OW76334  14.124   7.214   6.111
58187SOL    HW176335  14.126   7.164   6.029
58187SOL    HW276336  14.121   7.305   6.084
58188SOL     OW76337   3.076  12.131   2.714
58188SOL    HW176338   3.110  12.221   2.710
58188SOL    HW276339   3.098  12.094   2.629
58189SOL     OW76340   2.439   4.467   4.475
58189SOL    HW176341   2.444   4.372   4.481
58189SOL    HW276342   2.353   4.490   4.511
58190SOL     OW76343   8.239  12.652   6.535
58190SOL    HW176344   8.218  12.573   6.485
58190SOL    HW276345   8.158  12.674   6.580
58191SOL     OW76346  11.230   3.640   0.946
58191SOL    HW176347  11.295   3.672   0.883
58191SOL    HW276348  11.282   3.597   1.014
58192SOL     OW76349   1.905   6.707   7.106
58192SOL    HW176350   1.846   6.667   7.042
58192SOL    HW276351   1.846   6.755   7.165
58193SOL     OW76352  12.733   9.160   5.674
58193SOL    HW176353  12.801   9.132   5.735
58193SOL    HW276354  12.658   9.179   5.731
58194SOL     OW76355   4.433   9.376   2.196
58194SOL    HW176356   4.498   9.305   2.193
58194SOL    HW276357   4.428   9.400   2.289
58195SOL     OW76358   3.530   0.636  10.474
58195SOL    HW176359   3.594   0.570  10.501
58195SOL    HW276360   3.566   0.719  10.506
58196SOL     OW76361  11.440   4.243   9.204
58196SOL    HW176362  11.434   4.325   9.156
58196SOL    HW276363  11.503   4.190   9.155
58197SOL     OW76364   1.713   3.305  14.826
58197SOL    HW176365   1.689   3.319  14.734
58197SOL    HW276366   1.726   3.210  14.834
58198SOL     OW76367   0.954   2.317   7.807
58198SOL    HW176368   0.981   2.379   7.875
58198SOL    HW276369   0.985   2.232   7.838
58199SOL     OW76370  14.444   4.880   2.355
58199SOL    HW176371  14.401   4.904   2.274
58199SOL    HW276372  14.402   4.935   2.422
58200SOL     OW76373   2.081   2.360  12.544
58200SOL    HW176374   2.014   2.397  12.486
58200SOL    HW276375   2.149   2.428  12.547
58201SOL     OW76376   8.285   9.961  11.111
58201SOL    HW176377   8.327   9.945  11.026
58201SOL    HW276378   8.355   9.948  11.175
58202SOL     OW76379  11.993  14.168   5.406
58202SOL    HW176380  12.020  14.168   5.315
58202SOL    HW276381  12.033  14.247   5.443
58203SOL     OW76382   1.717   8.799   0.321
58203SOL    HW176383   1.742   8.884   0.357
58203SOL    HW276384   1.733   8.738   0.394
58204SOL     OW76385   3.332   8.929   0.581
58204SOL    HW176386   3.310   8.836   0.593
58204SOL    HW276387   3.419   8.927   0.540
58205SOL     OW76388   3.935   5.844   9.377
58205SOL    HW176389   3.990   5.861   9.454
58205SOL    HW276390   3.862   5.904   9.386
58206SOL     OW76391   5.493  11.076   1.966
58206SOL    HW176392   5.579  11.053   2.000
58206SOL    HW276393   5.510  11.149   1.906
58207SOL     OW76394  12.678  13.636  10.202
58207SOL    HW176395  12.609  13.617  10.266
58207SOL    HW276396  12.733  13.558  10.202
58208SOL     OW76397   0.492  12.666  13.752
58208SOL    HW176398   0.520  12.597  13.812
58208SOL    HW276399   0.413  12.631  13.710
58209SOL     OW76400   5.633   2.368   5.786
58209SOL    HW176401   5.544   2.347   5.757
58209SOL    HW276402   5.689   2.346   5.711
58210SOL     OW76403   4.407   1.235   9.363
58210SOL    HW176404   4.474   1.275   9.307
58210SOL    HW276405   4.456   1.180   9.423
58211SOL     OW76406  10.981   6.620  11.886
58211SOL    HW176407  10.993   6.620  11.791
58211SOL    HW276408  10.966   6.528  11.908
58212SOL     OW76409   6.407   1.710   2.801
58212SOL    HW176410   6.378   1.634   2.850
58212SOL    HW276411   6.340   1.723   2.734
58213SOL     OW76412  13.214  11.769  13.113
58213SOL    HW176413  13.241  11.760  13.022
58213SOL    HW276414  13.120  11.789  13.108
58214SOL     OW76415   6.303  11.392   3.349
58214SOL    HW176416   6.347  11.478   3.350
58214SOL    HW276417   6.331  11.351   3.431
58215SOL     OW76418   0.010  11.651   0.899
58215SOL    HW176419   0.052  11.571   0.865
58215SOL    HW276420   0.055  11.668   0.982
58216SOL     OW76421   4.306   4.519   6.102
58216SOL    HW176422   4.227   4.471   6.078
58216SOL    HW276423   4.371   4.492   6.037
58217SOL     OW76424   2.384   0.633  13.034
58217SOL    HW176425   2.343   0.719  13.028
58217SOL    HW276426   2.478   0.650  13.033
58218SOL     OW76427   3.169  10.186   6.679
58218SOL    HW176428   3.146  10.099   6.710
58218SOL    HW276429   3.171  10.241   6.758
58219SOL     OW76430   4.447   5.822  13.171
58219SOL    HW176431   4.533   5.853  13.200
58219SOL    HW276432   4.467   5.749  13.112
58220SOL     OW76433   3.908   1.507   7.741
58220SOL    HW176434   3.900   1.523   7.835
58220SOL    HW276435   3.931   1.414   7.734
58221SOL     OW76436   5.875   0.882   1.332
58221SOL    HW176437   5.943   0.845   1.276
58221SOL    HW276438   5.870   0.974   1.306
58222SOL     OW76439   5.680   0.980   4.425
58222SOL    HW176440   5.758   0.997   4.373
58222SOL    HW276441   5.621   0.935   4.365
58223SOL     OW76442  13.117   8.678   0.731
58223SOL    HW176443  13.097   8.768   0.704
58223SOL    HW276444  13.068   8.665   0.812
58224SOL     OW76445   1.229   6.629   1.048
58224SOL    HW176446   1.321   6.605   1.041
58224SOL    HW276447   1.184   6.577   0.982
58225SOL     OW76448  14.081  12.747   7.781
58225SOL    HW176449  14.057  12.709   7.865
58225SOL    HW276450  14.051  12.682   7.716
58226SOL     OW76451  13.885   1.704   2.019
58226SOL    HW176452  13.934   1.782   2.046
58226SOL    HW276453  13.953   1.640   1.997
58227SOL     OW76454  12.069  12.617   0.841
58227SOL    HW176455  11.983  12.591   0.875
58227SOL    HW276456  12.059  12.617   0.746
58228SOL     OW76457   0.849  13.337  11.706
58228SOL    HW176458   0.888  13.421  11.728
58228SOL    HW276459   0.881  13.318  11.617
58229SOL     OW76460  12.754   9.705   4.012
58229SOL    HW176461  12.815   9.748   4.072
58229SOL    HW276462  12.670   9.705   4.059
58230SOL     OW76463   9.310  12.655   8.308
58230SOL    HW176464   9.298  12.661   8.403
58230SOL    HW276465   9.300  12.744   8.276
58231SOL     OW76466  12.545  14.648   3.710
58231SOL    HW176467  12.500  14.731   3.723
58231SOL    HW276468  12.496  14.585   3.762
58232SOL     OW76469   0.543   0.075   6.774
58232SOL    HW176470   0.609   0.131   6.815
58232SOL    HW276471   0.502   0.028   6.847
58233SOL     OW76472   6.947   3.039  10.389
58233SOL    HW176473   6.901   2.970  10.342
58233SOL    HW276474   6.888   3.064  10.460
58234SOL     OW76475   3.437   6.410  12.841
58234SOL    HW176476   3.386   6.399  12.922
58234SOL    HW276477   3.372   6.412  12.771
58235SOL     OW76478  11.554   3.074   1.580
58235SOL    HW176479  11.487   3.141   1.582
58235SOL    HW276480  11.507   2.993   1.600
58236SOL     OW76481   3.826   1.690   8.759
58236SOL    HW176482   3.877   1.626   8.709
58236SOL    HW276483   3.756   1.717   8.699
58237SOL     OW76484   7.964  13.266  11.122
58237SOL    HW176485   7.991  13.246  11.212
58237SOL    HW276486   7.906  13.194  11.098
58238SOL     OW76487   0.280   7.002  14.096
58238SOL    HW176488   0.213   7.065  14.119
58238SOL    HW276489   0.241   6.917  14.116
58239SOL     OW76490   7.726   2.472   9.205
58239SOL    HW176491   7.803   2.474   9.148
58239SOL    HW276492   7.761   2.442   9.290
58240SOL     OW76493  14.705   7.483  13.212
58240SOL    HW176494  14.789   7.489  13.166
58240SOL    HW276495  14.726   7.505  13.303
58241SOL     OW76496   9.888  10.218  11.405
58241SOL    HW176497   9.937  10.196  11.326
58241SOL    HW276498   9.936  10.292  11.444
58242SOL     OW76499   5.924   1.986   4.508
58242SOL    HW176500   5.843   1.939   4.488
58242SOL    HW276501   5.993   1.921   4.497
58243SOL     OW76502   8.682   5.834  10.748
58243SOL    HW176503   8.591   5.809  10.735
58243SOL    HW276504   8.686   5.864  10.839
58244SOL     OW76505   0.653  12.974   0.134
58244SOL    HW176506   0.725  12.912   0.123
58244SOL    HW276507   0.643  12.984   0.229
58245SOL     OW76508  13.659   6.698   3.410
58245SOL    HW176509  13.629   6.688   3.319
58245SOL    HW276510  13.751   6.669   3.408
58246SOL     OW76511   7.746   0.333  10.713
58246SOL    HW176512   7.703   0.399  10.767
58246SOL    HW276513   7.808   0.384  10.659
58247SOL     OW76514  12.873  13.548   7.499
58247SOL    HW176515  12.895  13.632   7.540
58247SOL    HW276516  12.840  13.572   7.412
58248SOL     OW76517  14.427   6.860   1.796
58248SOL    HW176518  14.510   6.887   1.758
58248SOL    HW276519  14.361   6.879   1.729
58249SOL     OW76520  11.924  10.014   5.124
58249SOL    HW176521  11.844  10.032   5.075
58249SOL    HW276522  11.932  10.087   5.185
58250SOL     OW76523  13.718   1.735   9.528
58250SOL    HW176524  13.731   1.662   9.588
58250SOL    HW276525  13.778   1.802   9.558
58251SOL     OW76526   0.468   1.124   5.076
58251SOL    HW176527   0.404   1.084   5.016
58251SOL    HW276528   0.457   1.218   5.063
58252SOL     OW76529  14.448   4.261  10.994
58252SOL    HW176530  14.417   4.291  10.908
58252SOL    HW276531  14.504   4.331  11.025
58253SOL     OW76532   7.997  14.580  13.690
58253SOL    HW176533   7.952  14.662  13.710
58253SOL    HW276534   8.003  14.578  13.595
58254SOL     OW76535   5.684   5.822  10.361
58254SOL    HW176536   5.722   5.911  10.362
58254SOL    HW276537   5.699   5.790  10.450
58255SOL     OW76538   5.838   1.979   9.499
58255SOL    HW176539   5.932   1.988   9.511
58255SOL    HW276540   5.814   1.902   9.551
58256SOL     OW76541   7.300  13.288  13.801
58256SOL    HW176542   7.220  13.294  13.854
58256SOL    HW276543   7.370  13.318  13.859
58257SOL     OW76544   4.763   3.815   1.675
58257SOL    HW176545   4.704   3.810   1.600
58257SOL    HW276546   4.838   3.865   1.644
58258SOL     OW76547  10.812   4.812  13.231
58258SOL    HW176548  10.732   4.826  13.179
58258SOL    HW276549  10.814   4.886  13.291
58259SOL     OW76550   4.028   4.622   0.062
58259SOL    HW176551   4.012   4.540   0.017
58259SOL    HW276552   4.114   4.651   0.032
58260SOL     OW76553   2.990   3.257   6.338
58260SOL    HW176554   3.051   3.272   6.266
58260SOL    HW276555   2.975   3.344   6.376
58261SOL     OW76556   1.042   0.274   0.565
58261SOL    HW176557   1.061   0.302   0.654
58261SOL    HW276558   0.953   0.304   0.548
58262SOL     OW76559   3.927   8.660  12.072
58262SOL    HW176560   3.951   8.748  12.102
58262SOL    HW276561   3.881   8.676  11.989
58263SOL     OW76562   1.947   2.060   5.134
58263SOL    HW176563   1.866   2.092   5.174
58263SOL    HW276564   2.004   2.040   5.208
58264SOL     OW76565  13.595  10.520  12.104
58264SOL    HW176566  13.595  10.616  12.114
58264SOL    HW276567  13.508  10.499  12.073
58265SOL     OW76568   9.270  11.547   4.765
58265SOL    HW176569   9.253  11.474   4.826
58265SOL    HW276570   9.244  11.513   4.680
58266SOL     OW76571   3.186  12.967   5.467
58266SOL    HW176572   3.259  13.017   5.504
58266SOL    HW276573   3.138  13.030   5.413
58267SOL     OW76574   0.847   9.955  12.183
58267SOL    HW176575   0.782   9.913  12.241
58267SOL    HW276576   0.929   9.949  12.231
58268SOL     OW76577   3.015   8.680  10.448
58268SOL    HW176578   3.030   8.669  10.354
58268SOL    HW276579   2.920   8.679  10.459
58269SOL     OW76580  11.421  11.592   9.766
58269SOL    HW176581  11.491  11.648   9.798
58269SOL    HW276582  11.352  11.601   9.831
58270SOL     OW76583   1.900   8.713  14.737
58270SOL    HW176584   1.954   8.778  14.782
58270SOL    HW276585   1.835   8.765  14.690
58271SOL     OW76586   4.022   7.417  13.105
58271SOL    HW176587   4.019   7.359  13.181
58271SOL    HW276588   3.930   7.432  13.082
58272SOL     OW76589   9.282  12.024  10.805
58272SOL    HW176590   9.231  12.053  10.729
58272SOL    HW276591   9.368  12.004  10.770
58273SOL     OW76592   6.234   8.899  14.405
58273SOL    HW176593   6.140   8.897  14.419
58273SOL    HW276594   6.267   8.964  14.466
58274SOL     OW76595   4.063  14.715   4.140
58274SOL    HW176596   4.151  14.725   4.175
58274SOL    HW276597   4.062  14.768   4.061
58275SOL     OW76598   0.596   3.466  13.179
58275SOL    HW176599   0.564   3.376  13.170
58275SOL    HW276600   0.669   3.471  13.117
58276SOL     OW76601  12.543   4.029   4.641
58276SOL    HW176602  12.449   4.042   4.651
58276SOL    HW276603  12.551   3.952   4.585
58277SOL     OW76604   0.603   1.422   9.884
58277SOL    HW176605   0.565   1.414   9.972
58277SOL    HW276606   0.618   1.515   9.873
58278SOL     OW76607  13.975   8.160  10.471
58278SOL    HW176608  14.057   8.207  10.487
58278SOL    HW276609  13.998   8.068  10.477
58279SOL     OW76610   0.674  13.831   4.787
58279SOL    HW176611   0.631  13.755   4.826
58279SOL    HW276612   0.603  13.882   4.750
58280SOL     OW76613   0.462  14.343   2.706
58280SOL    HW176614   0.552  14.314   2.690
58280SOL    HW276615   0.458  14.355   2.801
58281SOL     OW76616   0.482   9.785   2.850
58281SOL    HW176617   0.479   9.847   2.924
58281SOL    HW276618   0.403   9.804   2.799
58282SOL     OW76619  11.812  14.063  12.506
58282SOL    HW176620  11.882  14.101  12.452
58282SOL    HW276621  11.787  13.983  12.460
58283SOL     OW76622   0.384   4.722   7.935
58283SOL    HW176623   0.378   4.795   7.873
58283SOL    HW276624   0.293   4.694   7.949
58284SOL     OW76625   2.454   9.842   9.176
58284SOL    HW176626   2.512   9.886   9.238
58284SOL    HW276627   2.512   9.786   9.125
58285SOL     OW76628   2.781   9.340   8.148
58285SOL    HW176629   2.808   9.425   8.113
58285SOL    HW276630   2.819   9.336   8.235
58286SOL     OW76631  11.123   4.683   3.846
58286SOL    HW176632  11.203   4.631   3.846
58286SOL    HW276633  11.052   4.618   3.841
58287SOL     OW76634   7.899   1.818   2.354
58287SOL    HW176635   7.865   1.759   2.286
58287SOL    HW276636   7.859   1.787   2.435
58288SOL     OW76637   5.830   4.498   4.668
58288SOL    HW176638   5.795   4.472   4.582
58288SOL    HW276639   5.802   4.589   4.677
58289SOL     OW76640  13.633   5.986   2.921
58289SOL    HW176641  13.636   5.952   2.832
58289SOL    HW276642  13.654   6.079   2.912
58290SOL     OW76643   4.948  14.199  10.452
58290SOL    HW176644   4.901  14.137  10.398
58290SOL    HW276645   4.979  14.147  10.526
58291SOL     OW76646  14.861  13.449  10.399
58291SOL    HW176647  14.834  13.462  10.308
58291SOL    HW276648  14.813  13.515  10.448
58292SOL     OW76649   8.581  10.981   4.584
58292SOL    HW176650   8.494  10.992   4.547
58292SOL    HW276651   8.636  10.958   4.510
58293SOL     OW76652   7.361   3.388  10.222
58293SOL    HW176653   7.316   3.472  10.226
58293SOL    HW276654   7.453   3.411  10.210
58294SOL     OW76655   0.211  10.289   7.335
58294SOL    HW176656   0.216  10.363   7.275
58294SOL    HW276657   0.298  10.287   7.377
58295SOL     OW76658   6.756   3.428   1.614
58295SOL    HW176659   6.781   3.337   1.602
58295SOL    HW276660   6.708   3.450   1.534
58296SOL     OW76661  14.391  14.804   5.634
58296SOL    HW176662  14.387  14.832   5.725
58296SOL    HW276663  14.327  14.860   5.590
58297SOL     OW76664  12.512  12.566  12.737
58297SOL    HW176665  12.508  12.603  12.649
58297SOL    HW276666  12.484  12.475  12.727
58298SOL     OW76667   6.293  12.582  14.103
58298SOL    HW176668   6.341  12.505  14.133
58298SOL    HW276669   6.329  12.654  14.155
58299SOL     OW76670   4.400   0.366   9.179
58299SOL    HW176671   4.442   0.436   9.228
58299SOL    HW276672   4.310   0.363   9.212
58300SOL     OW76673   3.826   3.032  11.098
58300SOL    HW176674   3.919   3.026  11.078
58300SOL    HW276675   3.782   2.999  11.019
58301SOL     OW76676   8.903   4.694  13.367
58301SOL    HW176677   8.843   4.625  13.340
58301SOL    HW276678   8.936   4.666  13.452
58302SOL     OW76679   0.953   6.787   0.623
58302SOL    HW176680   0.965   6.806   0.530
58302SOL    HW276681   1.028   6.828   0.666
58303SOL     OW76682   7.965  11.357   4.958
58303SOL    HW176683   8.010  11.322   4.881
58303SOL    HW276684   8.026  11.342   5.030
58304SOL     OW76685  10.982   8.894   0.104
58304SOL    HW176686  11.052   8.839   0.070
58304SOL    HW276687  10.914   8.891   0.036
58305SOL     OW76688   0.072   1.805   9.105
58305SOL    HW176689   0.126   1.804   9.026
58305SOL    HW276690   0.015   1.728   9.095
58306SOL     OW76691   2.632   5.310  14.148
58306SOL    HW176692   2.710   5.355  14.116
58306SOL    HW276693   2.648   5.218  14.130
58307SOL     OW76694   0.313  14.558  13.148
58307SOL    HW176695   0.362  14.491  13.100
58307SOL    HW276696   0.272  14.611  13.080
58308SOL     OW76697  14.772  12.551  13.408
58308SOL    HW176698  14.697  12.495  13.392
58308SOL    HW276699  14.814  12.560  13.322
58309SOL     OW76700  14.620   7.636   5.954
58309SOL    HW176701  14.602   7.630   5.860
58309SOL    HW276702  14.560   7.703   5.986
58310SOL     OW76703   2.326   4.483   4.927
58310SOL    HW176704   2.231   4.488   4.934
58310SOL    HW276705   2.343   4.417   4.860
58311SOL     OW76706   1.330   5.090  13.173
58311SOL    HW176707   1.335   5.082  13.078
58311SOL    HW276708   1.242   5.060  13.196
58312SOL     OW76709   2.823  13.704   2.765
58312SOL    HW176710   2.823  13.798   2.783
58312SOL    HW276711   2.909  13.687   2.727
58313SOL     OW76712   9.139   5.159   3.880
58313SOL    HW176713   9.128   5.170   3.974
58313SOL    HW276714   9.056   5.189   3.842
58314SOL     OW76715  11.320   4.304   7.966
58314SOL    HW176716  11.242   4.338   8.010
58314SOL    HW276717  11.361   4.248   8.032
58315SOL     OW76718   5.810   8.030   6.167
58315SOL    HW176719   5.836   7.938   6.170
58315SOL    HW276720   5.752   8.036   6.091
58316SOL     OW76721   0.120   0.335  12.045
58316SOL    HW176722   0.176   0.332  11.967
58316SOL    HW276723   0.174   0.296  12.114
58317SOL     OW76724  11.351  11.627   1.873
58317SOL    HW176725  11.312  11.697   1.926
58317SOL    HW276726  11.364  11.666   1.787
58318SOL     OW76727   6.419  13.930  14.089
58318SOL    HW176728   6.389  13.908  14.001
58318SOL    HW276729   6.505  13.889  14.096
58319SOL     OW76730   5.186   8.488  10.281
58319SOL    HW176731   5.164   8.470  10.190
58319SOL    HW276732   5.195   8.401  10.321
58320SOL     OW76733   3.449  10.985  11.632
58320SOL    HW176734   3.440  11.076  11.660
58320SOL    HW276735   3.541  10.978  11.605
58321SOL     OW76736   7.858  11.045  14.759
58321SOL    HW176737   7.894  11.003  14.837
58321SOL    HW276738   7.838  11.134  14.786
58322SOL     OW76739  10.343  10.509  13.129
58322SOL    HW176740  10.388  10.592  13.116
58322SOL    HW276741  10.261  10.518  13.082
58323SOL     OW76742  10.504  12.017  14.436
58323SOL    HW176743  10.583  12.004  14.384
58323SOL    HW276744  10.501  11.940  14.493
58324SOL     OW76745   7.271  10.795   1.661
58324SOL    HW176746   7.340  10.858   1.679
58324SOL    HW276747   7.296  10.754   1.579
58325SOL     OW76748  13.248   0.508   7.072
58325SOL    HW176749  13.215   0.598   7.064
58325SOL    HW276750  13.256   0.494   7.167
58326SOL     OW76751  11.566  11.701   0.845
58326SOL    HW176752  11.639  11.714   0.906
58326SOL    HW276753  11.601  11.641   0.779
58327SOL     OW76754   6.995   4.051  10.085
58327SOL    HW176755   6.937   4.105  10.031
58327SOL    HW276756   6.983   4.087  10.174
58328SOL     OW76757   1.023  14.651  12.327
58328SOL    HW176758   1.029  14.679  12.235
58328SOL    HW276759   0.932  14.626  12.339
58329SOL     OW76760   1.506   1.763   9.911
58329SOL    HW176761   1.448   1.688   9.915
58329SOL    HW276762   1.448   1.839   9.918
58330SOL     OW76763  12.221   7.183   0.605
58330SOL    HW176764  12.273   7.200   0.526
58330SOL    HW276765  12.286   7.160   0.672
58331SOL     OW76766   4.338   9.389  10.950
58331SOL    HW176767   4.361   9.329  10.879
58331SOL    HW276768   4.290   9.460  10.907
58332SOL     OW76769   9.706  10.911  14.812
58332SOL    HW176770   9.667  10.907  14.725
58332SOL    HW276771   9.654  10.849  14.864
58333SOL     OW76772   0.857  13.475   7.028
58333SOL    HW176773   0.860  13.391   6.981
58333SOL    HW276774   0.879  13.453   7.118
58334SOL     OW76775  14.049   1.252  10.125
58334SOL    HW176776  14.037   1.214  10.038
58334SOL    HW276777  13.983   1.322  10.129
58335SOL     OW76778  14.499   6.118   9.711
58335SOL    HW176779  14.471   6.201   9.750
58335SOL    HW276780  14.594   6.126   9.703
58336SOL     OW76781   8.627   0.508   2.047
58336SOL    HW176782   8.693   0.559   2.002
58336SOL    HW276783   8.587   0.570   2.108
58337SOL     OW76784   0.496   0.532  12.727
58337SOL    HW176785   0.517   0.478  12.804
58337SOL    HW276786   0.401   0.542  12.730
58338SOL     OW76787   8.895   5.574   8.075
58338SOL    HW176788   8.818   5.623   8.048
58338SOL    HW276789   8.913   5.515   8.002
58339SOL     OW76790  10.404   7.061   0.310
58339SOL    HW176791  10.350   6.982   0.313
58339SOL    HW276792  10.456   7.058   0.390
58340SOL     OW76793   9.976   5.904   0.309
58340SOL    HW176794   9.897   5.955   0.328
58340SOL    HW276795   9.946   5.836   0.248
58341SOL     OW76796  12.268   3.464   1.238
58341SOL    HW176797  12.183   3.430   1.212
58341SOL    HW276798  12.249   3.525   1.309
58342SOL     OW76799   1.503  13.044  13.457
58342SOL    HW176800   1.430  13.011  13.510
58342SOL    HW276801   1.577  13.044  13.517
58343SOL     OW76802   7.799   2.002   2.180
58343SOL    HW176803   7.853   1.948   2.237
58343SOL    HW276804   7.714   1.958   2.179
58344SOL     OW76805   6.333   7.908   0.250
58344SOL    HW176806   6.419   7.948   0.261
58344SOL    HW276807   6.287   7.966   0.189
58345SOL     OW76808  12.984  10.487   7.982
58345SOL    HW176809  12.984  10.539   8.062
58345SOL    HW276810  12.891  10.483   7.956
58346SOL     OW76811   0.949   5.474   2.037
58346SOL    HW176812   0.888   5.418   2.084
58346SOL    HW276813   0.935   5.561   2.074
58347SOL     OW76814  10.388   7.890   5.058
58347SOL    HW176815  10.399   7.959   4.992
58347SOL    HW276816  10.427   7.812   5.018
58348SOL     OW76817   3.586   0.853  11.626
58348SOL    HW176818   3.642   0.835  11.550
58348SOL    HW276819   3.545   0.937  11.605
58349SOL     OW76820   2.884   7.512   4.305
58349SOL    HW176821   2.941   7.567   4.359
58349SOL    HW276822   2.851   7.445   4.364
58350SOL     OW76823  14.773   3.815  14.585
58350SOL    HW176824  14.735   3.757  14.651
58350SOL    HW276825  14.698   3.862  14.548
58351SOL     OW76826   8.539   9.199   8.510
58351SOL    HW176827   8.611   9.246   8.467
58351SOL    HW276828   8.563   9.197   8.602
58352SOL     OW76829  13.302  14.766   1.054
58352SOL    HW176830  13.266  14.819   0.983
58352SOL    HW276831  13.337  14.829   1.117
58353SOL     OW76832   4.340  12.875  11.154
58353SOL    HW176833   4.316  12.842  11.067
58353SOL    HW276834   4.267  12.850  11.210
58354SOL     OW76835  10.665   8.759  13.365
58354SOL    HW176836  10.593   8.756  13.427
58354SOL    HW276837  10.734   8.808  13.410
58355SOL     OW76838   1.591  10.747  14.765
58355SOL    HW176839   1.539  10.723  14.842
58355SOL    HW276840   1.546  10.705  14.692
58356SOL     OW76841   5.427   8.354   3.983
58356SOL    HW176842   5.485   8.409   4.036
58356SOL    HW276843   5.345   8.403   3.980
58357SOL     OW76844   4.605   3.172  10.822
58357SOL    HW176845   4.553   3.178  10.742
58357SOL    HW276846   4.586   3.252  10.870
58358SOL     OW76847   2.983   2.649  14.263
58358SOL    HW176848   2.949   2.575  14.314
58358SOL    HW276849   2.911   2.711  14.260
58359SOL     OW76850   9.660   8.961   1.451
58359SOL    HW176851   9.730   8.986   1.512
58359SOL    HW276852   9.585   8.942   1.508
58360SOL     OW76853   7.134  13.148   6.447
58360SOL    HW176854   7.196  13.201   6.496
58360SOL    HW276855   7.097  13.087   6.511
58361SOL     OW76856   5.223   4.197  10.329
58361SOL    HW176857   5.148   4.255  10.341
58361SOL    HW276858   5.266   4.230  10.250
58362SOL     OW76859  13.800   8.929  11.153
58362SOL    HW176860  13.731   8.863  11.160
58362SOL    HW276861  13.870   8.897  11.209
58363SOL     OW76862  10.416   8.109   2.192
58363SOL    HW176863  10.344   8.171   2.188
58363SOL    HW276864  10.426   8.089   2.285
58364SOL     OW76865   3.235  13.874   1.635
58364SOL    HW176866   3.143  13.885   1.660
58364SOL    HW276867   3.243  13.781   1.614
58365SOL     OW76868  13.861   3.909   2.799
58365SOL    HW176869  13.850   3.913   2.704
58365SOL    HW276870  13.911   3.988   2.820
58366SOL     OW76871   4.395   5.559   2.876
58366SOL    HW176872   4.473   5.508   2.856
58366SOL    HW276873   4.382   5.548   2.970
58367SOL     OW76874  13.857   2.776  14.516
58367SOL    HW176875  13.776   2.752  14.473
58367SOL    HW276876  13.898   2.839  14.456
58368SOL     OW76877  10.334   2.868  10.358
58368SOL    HW176878  10.265   2.933  10.370
58368SOL    HW276879  10.395   2.908  10.296
58369SOL     OW76880  14.246   6.568  13.548
58369SOL    HW176881  14.214   6.610  13.468
58369SOL    HW276882  14.299   6.495  13.518
58370SOL     OW76883  14.026   7.123   8.636
58370SOL    HW176884  13.957   7.075   8.591
58370SOL    HW276885  14.075   7.166   8.566
58371SOL     OW76886   4.982   5.045   7.455
58371SOL    HW176887   4.902   5.001   7.428
58371SOL    HW276888   5.043   5.031   7.383
58372SOL     OW76889   6.679   4.674  14.223
58372SOL    HW176890   6.669   4.725  14.143
58372SOL    HW276891   6.750   4.613  14.204
58373SOL     OW76892   0.028   3.629  12.433
58373SOL    HW176893   0.098   3.654  12.372
58373SOL    HW276894  14.856   3.563  12.385
58374SOL     OW76895  13.784   6.883   9.675
58374SOL    HW176896  13.836   6.864   9.597
58374SOL    HW276897  13.715   6.942   9.644
58375SOL     OW76898   5.162  14.667   6.356
58375SOL    HW176899   5.158  14.578   6.391
58375SOL    HW276900   5.087  14.712   6.396
58376SOL     OW76901  10.206  13.741  11.391
58376SOL    HW176902  10.227  13.826  11.351
58376SOL    HW276903  10.180  13.686  11.317
58377SOL     OW76904   6.657  11.715   2.961
58377SOL    HW176905   6.643  11.779   2.890
58377SOL    HW276906   6.584  11.728   3.020
58378SOL     OW76907   9.912   1.311   1.207
58378SOL    HW176908   9.860   1.391   1.204
58378SOL    HW276909   9.856   1.244   1.168
58379SOL     OW76910   2.434   9.100  12.451
58379SOL    HW176911   2.446   9.142  12.367
58379SOL    HW276912   2.454   9.168  12.515
58380SOL     OW76913  10.677   3.992  11.236
58380SOL    HW176914  10.619   4.041  11.296
58380SOL    HW276915  10.623   3.919  11.205
58381SOL     OW76916   5.788   1.769   7.734
58381SOL    HW176917   5.769   1.676   7.722
58381SOL    HW276918   5.749   1.790   7.819
58382SOL     OW76919   5.320   1.300   9.236
58382SOL    HW176920   5.336   1.286   9.330
58382SOL    HW276921   5.375   1.234   9.193
58383SOL     OW76922   8.139   0.954  12.757
58383SOL    HW176923   8.191   0.893  12.705
58383SOL    HW276924   8.138   0.917  12.845
58384SOL     OW76925  13.161   7.542  11.972
58384SOL    HW176926  13.240   7.597  11.978
58384SOL    HW276927  13.138   7.523  12.063
58385SOL     OW76928   5.720   5.777  10.671
58385SOL    HW176929   5.719   5.684  10.692
58385SOL    HW276930   5.810   5.796  10.644
58386SOL     OW76931   2.335  14.349  14.325
58386SOL    HW176932   2.380  14.388  14.251
58386SOL    HW276933   2.396  14.283  14.359
58387SOL     OW76934   1.033   9.657   2.514
58387SOL    HW176935   0.955   9.630   2.465
58387SOL    HW276936   1.099   9.591   2.494
58388SOL     OW76937   6.819   3.245   7.672
58388SOL    HW176938   6.798   3.280   7.585
58388SOL    HW276939   6.734   3.233   7.714
58389SOL     OW76940   7.337  12.095   9.928
58389SOL    HW176941   7.270  12.163   9.934
58389SOL    HW276942   7.340  12.056  10.016
58390SOL     OW76943   7.260  13.382   0.497
58390SOL    HW176944   7.185  13.387   0.556
58390SOL    HW276945   7.221  13.375   0.409
58391SOL     OW76946   4.434  11.114   6.251
58391SOL    HW176947   4.498  11.149   6.313
58391SOL    HW276948   4.460  11.023   6.237
58392SOL     OW76949   3.941  12.585   0.555
58392SOL    HW176950   4.024  12.552   0.589
58392SOL    HW276951   3.876  12.556   0.618
58393SOL     OW76952   1.146  13.557  14.632
58393SOL    HW176953   1.091  13.616  14.683
58393SOL    HW276954   1.230  13.602  14.625
58394SOL     OW76955   1.719   3.359   5.666
58394SOL    HW176956   1.631   3.395   5.672
58394SOL    HW276957   1.708   3.265   5.680
58395SOL     OW76958  12.600   7.523   9.671
58395SOL    HW176959  12.538   7.567   9.729
58395SOL    HW276960  12.545   7.478   9.607
58396SOL     OW76961   6.596   5.821   4.355
58396SOL    HW176962   6.668   5.823   4.417
58396SOL    HW276963   6.598   5.733   4.317
58397SOL     OW76964   7.649   6.836  11.444
58397SOL    HW176965   7.673   6.841  11.537
58397SOL    HW276966   7.669   6.745  11.419
58398SOL     OW76967   8.561   6.961   6.288
58398SOL    HW176968   8.518   7.040   6.320
58398SOL    HW276969   8.654   6.983   6.288
58399SOL     OW76970   1.358   2.176   9.547
58399SOL    HW176971   1.444   2.135   9.547
58399SOL    HW276972   1.353   2.222   9.463
58400SOL     OW76973  11.534   2.479  11.477
58400SOL    HW176974  11.449   2.483  11.521
58400SOL    HW276975  11.597   2.461  11.547
58401SOL     OW76976   1.687  13.498   5.134
58401SOL    HW176977   1.627  13.556   5.086
58401SOL    HW276978   1.737  13.454   5.066
58402SOL     OW76979   7.900   1.565  14.064
58402SOL    HW176980   7.948   1.540  13.985
58402SOL    HW276981   7.808   1.552  14.041
58403SOL     OW76982   9.907   3.135  13.726
58403SOL    HW176983   9.958   3.074  13.778
58403SOL    HW276984   9.849   3.080  13.673
58404SOL     OW76985   8.420  10.540   0.626
58404SOL    HW176986   8.358  10.602   0.663
58404SOL    HW276987   8.386  10.454   0.652
58405SOL     OW76988   4.590   0.545   0.122
58405SOL    HW176989   4.570   0.589   0.204
58405SOL    HW276990   4.591   0.615   0.057
58406SOL     OW76991  10.360   9.514  10.655
58406SOL    HW176992  10.425   9.445  10.638
58406SOL    HW276993  10.280   9.482  10.613
58407SOL     OW76994  12.035   7.441   2.807
58407SOL    HW176995  12.078   7.414   2.888
58407SOL    HW276996  12.051   7.535   2.802
58408SOL     OW76997  13.377   5.431  10.233
58408SOL    HW176998  13.371   5.340  10.204
58408SOL    HW276999  13.466   5.458  10.209
58409SOL     OW77000  10.191   9.829   8.897
58409SOL    HW177001  10.113   9.797   8.850
58409SOL    HW277002  10.188   9.784   8.982
58410SOL     OW77003   3.862   4.940   0.359
58410SOL    HW177004   3.778   4.897   0.342
58410SOL    HW277005   3.917   4.915   0.284
58411SOL     OW77006   3.737   6.295  13.830
58411SOL    HW177007   3.767   6.326  13.915
58411SOL    HW277008   3.712   6.204  13.845
58412SOL     OW77009   3.196   2.630  14.072
58412SOL    HW177010   3.166   2.611  13.983
58412SOL    HW277011   3.115   2.641  14.123
58413SOL     OW77012   5.916   2.381  10.815
58413SOL    HW177013   5.861   2.313  10.776
58413SOL    HW277014   5.999   2.375  10.767
58414SOL     OW77015   9.576   2.049   8.316
58414SOL    HW177016   9.536   1.995   8.384
58414SOL    HW277017   9.613   2.124   8.362
58415SOL     OW77018  11.557  10.978   5.406
58415SOL    HW177019  11.516  10.990   5.492
58415SOL    HW277020  11.501  10.914   5.362
58416SOL     OW77021  12.458  12.242   1.336
58416SOL    HW177022  12.478  12.227   1.428
58416SOL    HW277023  12.506  12.174   1.289
58417SOL     OW77024   1.639   7.178   6.823
58417SOL    HW177025   1.633   7.085   6.842
58417SOL    HW277026   1.550   7.204   6.800
58418SOL     OW77027  12.703   2.641   0.335
58418SOL    HW177028  12.640   2.669   0.268
58418SOL    HW277029  12.693   2.705   0.405
58419SOL     OW77030   5.345   8.497   2.351
58419SOL    HW177031   5.322   8.562   2.285
58419SOL    HW277032   5.317   8.535   2.434
58420SOL     OW77033   8.305  13.906   1.779
58420SOL    HW177034   8.302  13.968   1.853
58420SOL    HW277035   8.396  13.905   1.752
58421SOL     OW77036   0.902   8.192  12.420
58421SOL    HW177037   0.944   8.238  12.493
58421SOL    HW277038   0.833   8.141  12.461
58422SOL     OW77039  13.518  10.786   7.790
58422SOL    HW177040  13.551  10.755   7.705
58422SOL    HW277041  13.508  10.706   7.842
58423SOL     OW77042   9.554   0.834   9.716
58423SOL    HW177043   9.629   0.887   9.744
58423SOL    HW277044   9.492   0.839   9.789
58424SOL     OW77045  13.193   6.706  11.192
58424SOL    HW177046  13.194   6.618  11.231
58424SOL    HW277047  13.140   6.696  11.113
58425SOL     OW77048  13.709  14.316   6.763
58425SOL    HW177049  13.790  14.367   6.764
58425SOL    HW277050  13.737  14.227   6.786
58426SOL     OW77051   0.322  11.660   3.594
58426SOL    HW177052   0.231  11.673   3.567
58426SOL    HW277053   0.373  11.713   3.534
58427SOL     OW77054   2.456   5.235  10.195
58427SOL    HW177055   2.382   5.262  10.140
58427SOL    HW277056   2.415   5.196  10.272
58428SOL     OW77057   0.059   8.946   1.023
58428SOL    HW177058   0.013   8.901   0.953
58428SOL    HW277059   0.096   9.024   0.981
58429SOL     OW77060   3.387   2.976  10.814
58429SOL    HW177061   3.353   2.910  10.754
58429SOL    HW277062   3.316   2.992  10.876
58430SOL     OW77063   6.820  14.261  14.150
58430SOL    HW177064   6.819  14.289  14.059
58430SOL    HW277065   6.749  14.197  14.157
58431SOL     OW77066   4.068   5.496   3.238
58431SOL    HW177067   4.064   5.591   3.251
58431SOL    HW277068   4.039   5.483   3.148
58432SOL     OW77069   7.953  10.014   5.674
58432SOL    HW177070   7.936   9.930   5.716
58432SOL    HW277071   7.943  10.079   5.743
58433SOL     OW77072   4.841  14.050  13.071
58433SOL    HW177073   4.761  14.079  13.117
58433SOL    HW277074   4.864  13.968  13.114
58434SOL     OW77075   4.776  10.134   2.202
58434SOL    HW177076   4.819  10.161   2.120
58434SOL    HW277077   4.755  10.041   2.189
58435SOL     OW77078  14.099   7.954   9.775
58435SOL    HW177079  14.095   7.907   9.858
58435SOL    HW277080  14.193   7.960   9.756
58436SOL     OW77081   3.287  14.037   1.910
58436SOL    HW177082   3.273  13.983   1.832
58436SOL    HW277083   3.368  14.003   1.948
58437SOL     OW77084   8.961   0.556   0.876
58437SOL    HW177085   8.932   0.586   0.790
58437SOL    HW277086   8.910   0.608   0.938
58438SOL     OW77087   0.809   1.576  10.599
58438SOL    HW177088   0.839   1.611  10.683
58438SOL    HW277089   0.884   1.529  10.564
58439SOL     OW77090   9.461   6.510   8.661
58439SOL    HW177091   9.390   6.470   8.712
58439SOL    HW277092   9.451   6.604   8.675
58440SOL     OW77093   0.375   5.459   8.096
58440SOL    HW177094   0.312   5.510   8.147
58440SOL    HW277095   0.457   5.506   8.106
58441SOL     OW77096  10.987   8.319  14.249
58441SOL    HW177097  11.006   8.243  14.303
58441SOL    HW277098  11.025   8.393  14.296
58442SOL     OW77099   9.683   4.907   3.861
58442SOL    HW177100   9.589   4.894   3.873
58442SOL    HW277101   9.695   4.906   3.766
58443SOL     OW77102   4.632   8.551  14.325
58443SOL    HW177103   4.638   8.614  14.397
58443SOL    HW277104   4.644   8.466  14.367
58444SOL     OW77105  13.392   7.671   3.491
58444SOL    HW177106  13.361   7.665   3.401
58444SOL    HW277107  13.468   7.729   3.486
58445SOL     OW77108  10.071  13.921   6.140
58445SOL    HW177109  10.102  13.937   6.229
58445SOL    HW277110  10.005  13.989   6.124
58446SOL     OW77111  12.785   2.690   9.152
58446SOL    HW177112  12.877   2.666   9.144
58446SOL    HW277113  12.738   2.612   9.124
58447SOL     OW77114   2.126   7.545   7.663
58447SOL    HW177115   2.213   7.558   7.626
58447SOL    HW277116   2.071   7.607   7.616
58448SOL     OW77117   1.689  14.603   8.795
58448SOL    HW177118   1.633  14.649   8.733
58448SOL    HW277119   1.654  14.627   8.881
58449SOL     OW77120   3.901   1.599  12.580
58449SOL    HW177121   3.927   1.508  12.562
58449SOL    HW277122   3.809   1.593  12.606
58450SOL     OW77123   4.493   6.553   5.134
58450SOL    HW177124   4.442   6.607   5.073
58450SOL    HW277125   4.448   6.468   5.133
58451SOL     OW77126   6.558  10.257   2.382
58451SOL    HW177127   6.636  10.201   2.386
58451SOL    HW277128   6.511  10.227   2.305
58452SOL     OW77129   4.891   5.744   2.623
58452SOL    HW177130   4.842   5.692   2.688
58452SOL    HW277131   4.969   5.691   2.605
58453SOL     OW77132   5.183  11.934   5.239
58453SOL    HW177133   5.217  11.856   5.195
58453SOL    HW277134   5.114  11.900   5.297
58454SOL     OW77135  11.892   6.478   4.808
58454SOL    HW177136  11.879   6.570   4.830
58454SOL    HW277137  11.823   6.459   4.744
58455SOL     OW77138   6.337   6.042   2.554
58455SOL    HW177139   6.330   5.956   2.513
58455SOL    HW277140   6.248   6.063   2.581
58456SOL     OW77141   7.383  14.096  12.246
58456SOL    HW177142   7.390  14.171  12.305
58456SOL    HW277143   7.292  14.099  12.215
58457SOL     OW77144   6.372   5.058   8.271
58457SOL    HW177145   6.456   5.075   8.312
58457SOL    HW277146   6.322   5.138   8.283
58458SOL     OW77147   5.187   0.627   2.628
58458SOL    HW177148   5.248   0.693   2.660
58458SOL    HW277149   5.240   0.570   2.572
58459SOL     OW77150   7.946   0.908  11.348
58459SOL    HW177151   8.029   0.931  11.306
58459SOL    HW277152   7.970   0.884  11.437
58460SOL     OW77153   3.979  13.481  14.833
58460SOL    HW177154   3.919  13.408  14.850
58460SOL    HW277155   4.065  13.441  14.827
58461SOL     OW77156   3.775   1.797   7.958
58461SOL    HW177157   3.823   1.878   7.940
58461SOL    HW277158   3.739   1.772   7.873
58462SOL     OW77159   0.896  13.720  11.179
58462SOL    HW177160   0.918  13.719  11.272
58462SOL    HW277161   0.896  13.813  11.156
58463SOL     OW77162   5.974   1.208  11.169
58463SOL    HW177163   5.926   1.261  11.232
58463SOL    HW277164   6.022   1.145  11.222
58464SOL     OW77165   1.851   0.946   6.377
58464SOL    HW177166   1.936   0.902   6.377
58464SOL    HW277167   1.793   0.889   6.327
58465SOL     OW77168  13.348  12.763   0.071
58465SOL    HW177169  13.409  12.753  14.877
58465SOL    HW277170  13.357  12.681   0.121
58466SOL     OW77171  10.088   3.173   1.113
58466SOL    HW177172  10.026   3.120   1.063
58466SOL    HW277173  10.062   3.263   1.095
58467SOL     OW77174  14.055   0.516  11.940
58467SOL    HW177175  13.987   0.471  11.989
58467SOL    HW277176  14.123   0.450  11.926
58468SOL     OW77177  12.531   9.104  12.841
58468SOL    HW177178  12.606   9.072  12.892
58468SOL    HW277179  12.472   9.029  12.835
58469SOL     OW77180  12.521  10.267   7.373
58469SOL    HW177181  12.525  10.222   7.289
58469SOL    HW277182  12.512  10.360   7.350
58470SOL     OW77183   4.372   9.977  14.662
58470SOL    HW177184   4.358   9.923  14.739
58470SOL    HW277185   4.466   9.998  14.664
58471SOL     OW77186   6.175  14.748   3.885
58471SOL    HW177187   6.133  14.832   3.904
58471SOL    HW277188   6.107  14.683   3.903
58472SOL     OW77189   9.720  14.012   1.489
58472SOL    HW177190   9.643  13.956   1.504
58472SOL    HW277191   9.762  13.974   1.411
58473SOL     OW77192  13.005   3.143   0.298
58473SOL    HW177193  13.042   3.095   0.224
58473SOL    HW277194  13.007   3.080   0.371
58474SOL     OW77195  13.056   7.183  11.313
58474SOL    HW177196  13.056   7.100  11.266
58474SOL    HW277197  13.124   7.173  11.379
58475SOL     OW77198   2.386  10.723   3.529
58475SOL    HW177199   2.386  10.768   3.613
58475SOL    HW277200   2.478  10.713   3.506
58476SOL     OW77201   4.790   8.515   6.318
58476SOL    HW177202   4.708   8.480   6.283
58476SOL    HW277203   4.828   8.565   6.245
58477SOL     OW77204   9.236   3.455  14.876
58477SOL    HW177205   9.236   3.377  14.820
58477SOL    HW277206   9.250   3.527  14.815
58478SOL     OW77207  14.452  12.402  12.473
58478SOL    HW177208  14.506  12.452  12.534
58478SOL    HW277209  14.372  12.455  12.463
58479SOL     OW77210  14.066   1.451  10.724
58479SOL    HW177211  14.161   1.437  10.721
58479SOL    HW277212  14.029   1.377  10.676
58480SOL     OW77213  13.860   3.464   9.790
58480SOL    HW177214  13.898   3.378   9.808
58480SOL    HW277215  13.778   3.465   9.840
58481SOL     OW77216   0.310   0.998   4.899
58481SOL    HW177217   0.249   1.019   4.828
58481SOL    HW277218   0.256   0.996   4.978
58482SOL     OW77219  11.988   9.027   1.370
58482SOL    HW177220  12.028   8.960   1.427
58482SOL    HW277221  12.062   9.067   1.325
58483SOL     OW77222   5.697   6.290   5.414
58483SOL    HW177223   5.787   6.280   5.446
58483SOL    HW277224   5.694   6.379   5.379
58484SOL     OW77225   3.871   8.581   0.591
58484SOL    HW177226   3.880   8.547   0.680
58484SOL    HW277227   3.801   8.646   0.597
58485SOL     OW77228   0.165   7.319  11.000
58485SOL    HW177229   0.204   7.272  11.074
58485SOL    HW277230   0.153   7.408  11.032
58486SOL     OW77231  10.277   4.467   1.560
58486SOL    HW177232  10.308   4.388   1.604
58486SOL    HW277233  10.355   4.522   1.553
58487SOL     OW77234   8.070   4.567   6.994
58487SOL    HW177235   8.094   4.585   6.903
58487SOL    HW277236   7.974   4.575   6.995
58488SOL     OW77237   2.431   5.263   5.501
58488SOL    HW177238   2.481   5.197   5.549
58488SOL    HW277239   2.467   5.260   5.412
58489SOL     OW77240   6.623   1.238   5.959
58489SOL    HW177241   6.529   1.237   5.944
58489SOL    HW277242   6.632   1.266   6.051
58490SOL     OW77243  11.328   5.149   4.886
58490SOL    HW177244  11.343   5.174   4.977
58490SOL    HW277245  11.409   5.172   4.841
58491SOL     OW77246  13.195   1.372  10.362
58491SOL    HW177247  13.140   1.451  10.363
58491SOL    HW277248  13.169   1.326  10.282
58492SOL     OW77249  11.012   7.353   3.704
58492SOL    HW177250  10.966   7.274   3.733
58492SOL    HW277251  11.036   7.335   3.614
58493SOL     OW77252  10.259   8.832   8.553
58493SOL    HW177253  10.325   8.836   8.484
58493SOL    HW277254  10.289   8.897   8.618
58494SOL     OW77255  14.591  10.992  13.858
58494SOL    HW177256  14.610  11.028  13.945
58494SOL    HW277257  14.508  10.946  13.869
58495SOL     OW77258   6.246   8.126  14.105
58495SOL    HW177259   6.234   8.075  14.185
58495SOL    HW277260   6.309   8.194  14.128
58496SOL     OW77261  10.793   9.905  12.293
58496SOL    HW177262  10.851   9.883  12.366
58496SOL    HW277263  10.824   9.851  12.221
58497SOL     OW77264   0.238   2.497   8.636
58497SOL    HW177265   0.320   2.492   8.587
58497SOL    HW277266   0.233   2.588   8.666
58498SOL     OW77267   7.128   4.804   7.205
58498SOL    HW177268   7.168   4.718   7.214
58498SOL    HW277269   7.054   4.790   7.145
58499SOL     OW77270   0.610   1.215   2.780
58499SOL    HW177271   0.667   1.187   2.708
58499SOL    HW277272   0.609   1.310   2.773
58500SOL     OW77273   0.797   9.734  10.345
58500SOL    HW177274   0.874   9.766  10.391
58500SOL    HW277275   0.729   9.729  10.412
58501SOL     OW77276  13.330   7.808   2.256
58501SOL    HW177277  13.268   7.814   2.328
58501SOL    HW277278  13.406   7.764   2.293
58502SOL     OW77279   3.233   8.199  13.244
58502SOL    HW177280   3.189   8.168  13.165
58502SOL    HW277281   3.286   8.274  13.215
58503SOL     OW77282   6.651  10.393  10.565
58503SOL    HW177283   6.591  10.320  10.582
58503SOL    HW277284   6.721  10.355  10.512
58504SOL     OW77285   3.876  13.034   9.611
58504SOL    HW177286   3.927  13.107   9.646
58504SOL    HW277287   3.877  13.048   9.517
58505SOL     OW77288   7.672  14.849  11.163
58505SOL    HW177289   7.714   0.033  11.103
58505SOL    HW277290   7.713  14.765  11.143
58506SOL     OW77291  14.693  11.787   9.982
58506SOL    HW177292  14.608  11.806  10.021
58506SOL    HW277293  14.672  11.728   9.909
58507SOL     OW77294  12.268  10.431  12.947
58507SOL    HW177295  12.355  10.469  12.959
58507SOL    HW277296  12.256  10.426  12.852
58508SOL     OW77297  14.359  12.246   4.291
58508SOL    HW177298  14.291  12.242   4.223
58508SOL    HW277299  14.387  12.337   4.292
58509SOL     OW77300   0.077  11.962   1.078
58509SOL    HW177301   0.015  11.906   1.124
58509SOL    HW277302   0.056  11.950   0.985
58510SOL     OW77303  11.595  14.482  10.720
58510SOL    HW177304  11.591  14.576  10.736
58510SOL    HW277305  11.510  14.460  10.682
58511SOL     OW77306  11.685   7.411   7.623
58511SOL    HW177307  11.663   7.499   7.651
58511SOL    HW277308  11.643   7.402   7.537
58512SOL     OW77309   0.341   0.420   4.492
58512SOL    HW177310   0.329   0.512   4.468
58512SOL    HW277311   0.417   0.421   4.551
58513SOL     OW77312   5.398   8.676  10.230
58513SOL    HW177313   5.350   8.755  10.204
58513SOL    HW277314   5.330   8.609  10.238
58514SOL     OW77315  11.287  13.092  12.481
58514SOL    HW177316  11.344  13.121  12.409
58514SOL    HW277317  11.300  12.997  12.485
58515SOL     OW77318   9.595  12.208   2.396
58515SOL    HW177319   9.651  12.262   2.340
58515SOL    HW277320   9.603  12.247   2.483
58516SOL     OW77321   1.724   2.542  11.218
58516SOL    HW177322   1.801   2.515  11.269
58516SOL    HW277323   1.656   2.555  11.284
58517SOL     OW77324   2.064   9.968   4.966
58517SOL    HW177325   1.993  10.019   4.926
58517SOL    HW277326   2.030   9.942   5.051
58518SOL     OW77327   8.042  10.391   7.933
58518SOL    HW177328   8.065  10.321   7.995
58518SOL    HW277329   7.994  10.455   7.986
58519SOL     OW77330  13.065  13.485  12.114
58519SOL    HW177331  12.994  13.537  12.151
58519SOL    HW277332  13.068  13.406  12.168
58520SOL     OW77333   4.949  12.578  12.050
58520SOL    HW177334   4.870  12.572  12.105
58520SOL    HW277335   4.974  12.486  12.035
58521SOL     OW77336   2.740   0.613   5.901
58521SOL    HW177337   2.772   0.670   5.970
58521SOL    HW277338   2.646   0.606   5.917
58522SOL     OW77339  13.068   2.310  14.163
58522SOL    HW177340  13.068   2.238  14.226
58522SOL    HW277341  13.155   2.309  14.125
58523SOL     OW77342   0.587   4.478   6.364
58523SOL    HW177343   0.618   4.506   6.450
58523SOL    HW277344   0.608   4.385   6.360
58524SOL     OW77345   7.374   7.329   2.617
58524SOL    HW177346   7.417   7.283   2.544
58524SOL    HW277347   7.393   7.276   2.694
58525SOL     OW77348   7.048  12.718  11.309
58525SOL    HW177349   7.026  12.811  11.312
58525SOL    HW277350   6.990  12.678  11.374
58526SOL     OW77351   1.606   4.230  12.713
58526SOL    HW177352   1.692   4.231  12.756
58526SOL    HW277353   1.596   4.318  12.677
58527SOL     OW77354   8.456   3.451  14.760
58527SOL    HW177355   8.415   3.369  14.734
58527SOL    HW277356   8.530   3.425  14.814
58528SOL     OW77357   6.239   4.791  10.297
58528SOL    HW177358   6.178   4.810  10.225
58528SOL    HW277359   6.313   4.849  10.280
58529SOL     OW77360   7.933   4.198   0.193
58529SOL    HW177361   7.887   4.165   0.271
58529SOL    HW277362   7.896   4.285   0.179
58530SOL     OW77363  14.374  10.934  12.868
58530SOL    HW177364  14.338  10.866  12.925
58530SOL    HW277365  14.343  10.912  12.781
58531SOL     OW77366   4.109  14.087  13.368
58531SOL    HW177367   4.191  14.132  13.349
58531SOL    HW277368   4.046  14.158  13.384
58532SOL     OW77369   9.343   0.167  12.707
58532SOL    HW177370   9.359   0.073  12.700
58532SOL    HW277371   9.249   0.176  12.690
58533SOL     OW77372   5.221   7.675   6.491
58533SOL    HW177373   5.260   7.753   6.450
58533SOL    HW277374   5.231   7.607   6.424
58534SOL     OW77375   1.858   8.584  13.025
58534SOL    HW177376   1.862   8.501  12.977
58534SOL    HW277377   1.940   8.628  13.004
58535SOL     OW77378   2.754   8.076  12.666
58535SOL    HW177379   2.762   7.981  12.675
58535SOL    HW277380   2.726   8.106  12.752
58536SOL     OW77381   9.391  12.231   6.529
58536SOL    HW177382   9.348  12.183   6.458
58536SOL    HW277383   9.469  12.269   6.488
58537SOL     OW77384   8.053   2.133   8.241
58537SOL    HW177385   8.146   2.153   8.252
58537SOL    HW277386   8.035   2.152   8.149
58538SOL     OW77387   9.200   1.389   0.018
58538SOL    HW177388   9.240   1.467   0.056
58538SOL    HW277389   9.265   1.320   0.030
58539SOL     OW77390   4.862   8.702   5.714
58539SOL    HW177391   4.906   8.634   5.766
58539SOL    HW277392   4.924   8.723   5.644
58540SOL     OW77393  11.421   2.285   1.139
58540SOL    HW177394  11.394   2.215   1.080
58540SOL    HW277395  11.499   2.250   1.182
58541SOL     OW77396   6.970   3.177  13.116
58541SOL    HW177397   6.957   3.150  13.025
58541SOL    HW277398   6.906   3.247  13.129
58542SOL     OW77399   8.819   9.440   5.970
58542SOL    HW177400   8.911   9.441   5.945
58542SOL    HW277401   8.771   9.430   5.888
58543SOL     OW77402   7.330   2.751  13.472
58543SOL    HW177403   7.378   2.814  13.525
58543SOL    HW277404   7.352   2.773  13.382
58544SOL     OW77405  12.559   3.025  10.205
58544SOL    HW177406  12.640   3.074  10.193
58544SOL    HW277407  12.500   3.086  10.248
58545SOL     OW77408  13.503   0.478  13.868
58545SOL    HW177409  13.449   0.557  13.859
58545SOL    HW277410  13.588   0.502  13.831
58546SOL     OW77411  10.199   4.082   7.906
58546SOL    HW177412  10.211   4.020   7.834
58546SOL    HW277413  10.108   4.110   7.899
58547SOL     OW77414   1.601   1.851   1.727
58547SOL    HW177415   1.524   1.807   1.763
58547SOL    HW277416   1.669   1.838   1.793
58548SOL     OW77417  12.286   1.946   3.886
58548SOL    HW177418  12.356   1.891   3.852
58548SOL    HW277419  12.327   1.997   3.955
58549SOL     OW77420   2.308  12.950   6.376
58549SOL    HW177421   2.295  12.980   6.286
58549SOL    HW277422   2.225  12.969   6.420
58550SOL     OW77423   5.187   8.472   3.910
58550SOL    HW177424   5.234   8.556   3.906
58550SOL    HW277425   5.110   8.490   3.964
58551SOL     OW77426  12.850   3.833   3.555
58551SOL    HW177427  12.869   3.740   3.544
58551SOL    HW277428  12.902   3.876   3.488
58552SOL     OW77429  10.043  13.129   8.587
58552SOL    HW177430  10.005  13.178   8.514
58552SOL    HW277431   9.970  13.113   8.647
58553SOL     OW77432  12.919   0.171   3.458
58553SOL    HW177433  12.850   0.221   3.413
58553SOL    HW277434  12.895   0.174   3.550
58554SOL     OW77435  10.950   4.272   7.306
58554SOL    HW177436  10.877   4.319   7.346
58554SOL    HW277437  11.023   4.334   7.308
58555SOL     OW77438  13.869   8.975  12.980
58555SOL    HW177439  13.962   8.955  12.969
58555SOL    HW277440  13.868   9.047  13.043
58556SOL     OW77441   5.711  11.259  10.050
58556SOL    HW177442   5.751  11.250   9.963
58556SOL    HW277443   5.740  11.345  10.080
58557SOL     OW77444   0.297   4.368   7.121
58557SOL    HW177445   0.308   4.292   7.064
58557SOL    HW277446   0.208   4.399   7.103
58558SOL     OW77447  14.737   3.779  13.864
58558SOL    HW177448  14.731   3.794  13.770
58558SOL    HW277449  14.789   3.699  13.872
58559SOL     OW77450   4.519  13.260   1.262
58559SOL    HW177451   4.482  13.252   1.350
58559SOL    HW277452   4.612  13.243   1.274
58560SOL     OW77453   0.513   8.258   8.423
58560SOL    HW177454   0.452   8.239   8.353
58560SOL    HW277455   0.569   8.181   8.429
58561SOL     OW77456   8.405   0.195  12.088
58561SOL    HW177457   8.464   0.265  12.116
58561SOL    HW277458   8.450   0.155  12.013
58562SOL     OW77459  13.329   6.616  13.541
58562SOL    HW177460  13.393   6.681  13.511
58562SOL    HW277461  13.376   6.533  13.537
58563SOL     OW77462  14.045   2.083   0.057
58563SOL    HW177463  13.976   2.023   0.084
58563SOL    HW277464  14.094   2.102   0.137
58564SOL     OW77465   3.756  13.055   7.224
58564SOL    HW177466   3.794  13.131   7.180
58564SOL    HW277467   3.698  13.093   7.290
58565SOL     OW77468   2.801  13.616   4.057
58565SOL    HW177469   2.743  13.691   4.045
58565SOL    HW277470   2.888  13.654   4.070
58566SOL     OW77471   0.435   1.883   3.177
58566SOL    HW177472   0.503   1.943   3.208
58566SOL    HW277473   0.480   1.799   3.167
58567SOL     OW77474  14.567  11.891  11.475
58567SOL    HW177475  14.644  11.843  11.505
58567SOL    HW277476  14.506  11.889  11.549
58568SOL     OW77477   9.244   6.369   8.752
58568SOL    HW177478   9.203   6.421   8.822
58568SOL    HW277479   9.170   6.325   8.710
58569SOL     OW77480   2.277   7.370  13.558
58569SOL    HW177481   2.314   7.451  13.593
58569SOL    HW277482   2.268   7.312  13.634
58570SOL     OW77483  11.326  10.333   2.882
58570SOL    HW177484  11.250  10.342   2.825
58570SOL    HW277485  11.359  10.423   2.892
58571SOL     OW77486  12.301   4.014   9.798
58571SOL    HW177487  12.388   4.004   9.760
58571SOL    HW277488  12.292   3.938   9.856
58572SOL     OW77489   9.153   9.238  12.201
58572SOL    HW177490   9.198   9.288  12.269
58572SOL    HW277491   9.102   9.304  12.154
58573SOL     OW77492   0.904   0.418   2.019
58573SOL    HW177493   0.886   0.505   1.984
58573SOL    HW277494   0.903   0.361   1.942
58574SOL     OW77495  11.623   2.873   6.496
58574SOL    HW177496  11.568   2.806   6.537
58574SOL    HW277497  11.705   2.828   6.477
58575SOL     OW77498   4.839  13.158  12.279
58575SOL    HW177499   4.805  13.244  12.254
58575SOL    HW277500   4.933  13.163  12.261
58576SOL     OW77501   8.489   7.337   4.864
58576SOL    HW177502   8.464   7.427   4.889
58576SOL    HW277503   8.567   7.349   4.809
58577SOL     OW77504   7.120   9.347  10.899
58577SOL    HW177505   7.134   9.381  10.811
58577SOL    HW277506   7.208   9.342  10.937
58578SOL     OW77507  11.911   2.304  14.774
58578SOL    HW177508  11.983   2.365  14.787
58578SOL    HW277509  11.881   2.282  14.862
58579SOL     OW77510   0.803   0.257   2.925
58579SOL    HW177511   0.778   0.283   2.837
58579SOL    HW277512   0.895   0.282   2.933
58580SOL     OW77513   5.303   7.377  12.497
58580SOL    HW177514   5.259   7.346  12.576
58580SOL    HW277515   5.296   7.472  12.501
58581SOL     OW77516   7.526  11.747   9.605
58581SOL    HW177517   7.530  11.805   9.681
58581SOL    HW277518   7.496  11.664   9.640
58582SOL     OW77519   4.827  11.101  11.480
58582SOL    HW177520   4.815  11.006  11.482
58582SOL    HW277521   4.888  11.119  11.551
58583SOL     OW77522   6.982   1.537   2.037
58583SOL    HW177523   6.992   1.614   1.982
58583SOL    HW277524   6.970   1.572   2.125
58584SOL     OW77525  13.823  11.583   7.799
58584SOL    HW177526  13.805  11.495   7.830
58584SOL    HW277527  13.737  11.622   7.784
58585SOL     OW77528  12.783   7.732  11.908
58585SOL    HW177529  12.730   7.803  11.943
58585SOL    HW277530  12.732   7.698  11.835
58586SOL     OW77531   3.062   0.470   7.290
58586SOL    HW177532   3.007   0.495   7.216
58586SOL    HW277533   3.002   0.428   7.352
58587SOL     OW77534  12.294  10.044  12.431
58587SOL    HW177535  12.241  10.057  12.509
58587SOL    HW277536  12.243   9.984  12.376
58588SOL     OW77537  13.523  11.819   6.887
58588SOL    HW177538  13.614  11.795   6.907
58588SOL    HW277539  13.529  11.909   6.855
58589SOL     OW77540   4.710   1.753   7.453
58589SOL    HW177541   4.647   1.706   7.399
58589SOL    HW277542   4.795   1.736   7.412
58590SOL     OW77543  12.360   9.896  14.094
58590SOL    HW177544  12.415   9.867  14.167
58590SOL    HW277545  12.271   9.891  14.128
58591SOL     OW77546   9.738   3.524  13.705
58591SOL    HW177547   9.708   3.597  13.759
58591SOL    HW277548   9.772   3.564  13.625
58592SOL     OW77549   3.878   3.067   7.818
58592SOL    HW177550   3.821   3.143   7.802
58592SOL    HW277551   3.868   3.049   7.911
58593SOL     OW77552   2.162   7.762   4.663
58593SOL    HW177553   2.183   7.825   4.594
58593SOL    HW277554   2.076   7.728   4.640
58594SOL     OW77555   8.213   3.196  11.045
58594SOL    HW177556   8.258   3.125  11.000
58594SOL    HW277557   8.187   3.255  10.975
58595SOL     OW77558   3.275   9.778  12.533
58595SOL    HW177559   3.275   9.784  12.628
58595SOL    HW277560   3.192   9.817  12.507
58596SOL     OW77561   9.361   5.887   9.454
58596SOL    HW177562   9.401   5.835   9.384
58596SOL    HW277563   9.384   5.977   9.432
58597SOL     OW77564   2.163   1.303   6.497
58597SOL    HW177565   2.244   1.330   6.453
58597SOL    HW277566   2.108   1.381   6.495
58598SOL     OW77567   8.274   5.320   8.843
58598SOL    HW177568   8.239   5.409   8.843
58598SOL    HW277569   8.212   5.270   8.896
58599SOL     OW77570  13.105   4.263   7.080
58599SOL    HW177571  13.126   4.193   7.018
58599SOL    HW277572  13.018   4.241   7.112
58600SOL     OW77573  14.289  10.478   4.028
58600SOL    HW177574  14.321  10.566   4.010
58600SOL    HW277575  14.365  10.432   4.063
58601SOL     OW77576  13.487   8.240   5.704
58601SOL    HW177577  13.442   8.302   5.647
58601SOL    HW277578  13.425   8.222   5.774
58602SOL     OW77579   5.411   1.780  10.919
58602SOL    HW177580   5.502   1.806  10.934
58602SOL    HW277581   5.402   1.781  10.824
58603SOL     OW77582  10.367   3.726   2.636
58603SOL    HW177583  10.372   3.757   2.546
58603SOL    HW277584  10.419   3.646   2.637
58604SOL     OW77585  10.467  10.293  12.966
58604SOL    HW177586  10.430  10.374  13.002
58604SOL    HW277587  10.396  10.254  12.915
58605SOL     OW77588  14.522   9.220   0.204
58605SOL    HW177589  14.435   9.192   0.231
58605SOL    HW277590  14.551   9.152   0.143
58606SOL     OW77591  12.134  13.566   5.346
58606SOL    HW177592  12.059  13.525   5.389
58606SOL    HW277593  12.172  13.622   5.413
58607SOL     OW77594   4.314   6.303   0.348
58607SOL    HW177595   4.322   6.210   0.368
58607SOL    HW277596   4.243   6.308   0.284
58608SOL     OW77597   8.853   2.762   4.716
58608SOL    HW177598   8.867   2.668   4.706
58608SOL    HW277599   8.829   2.773   4.808
58609SOL     OW77600   7.108   5.607  10.802
58609SOL    HW177601   7.113   5.513  10.823
58609SOL    HW277602   7.123   5.651  10.886
58610SOL     OW77603  11.468  11.083   5.640
58610SOL    HW177604  11.403  11.056   5.705
58610SOL    HW277605  11.456  11.177   5.631
58611SOL     OW77606  12.389   9.437   8.033
58611SOL    HW177607  12.448   9.421   8.107
58611SOL    HW277608  12.340   9.515   8.059
58612SOL     OW77609  11.134   6.804  10.524
58612SOL    HW177610  11.087   6.764  10.451
58612SOL    HW277611  11.182   6.731  10.564
58613SOL     OW77612   9.667  11.586   1.316
58613SOL    HW177613   9.623  11.504   1.298
58613SOL    HW277614   9.597  11.649   1.329
58614SOL     OW77615   1.979  13.895   7.319
58614SOL    HW177616   2.013  13.982   7.337
58614SOL    HW277617   2.022  13.838   7.383
58615SOL     OW77618  10.727   8.707  11.744
58615SOL    HW177619  10.667   8.721  11.817
58615SOL    HW277620  10.780   8.632  11.770
58616SOL     OW77621   8.969   0.507   8.048
58616SOL    HW177622   8.900   0.572   8.059
58616SOL    HW277623   9.046   0.546   8.090
58617SOL     OW77624   1.942   1.405  11.692
58617SOL    HW177625   1.983   1.447  11.768
58617SOL    HW277626   1.852   1.387  11.721
58618SOL     OW77627   3.604   6.403  14.744
58618SOL    HW177628   3.620   6.309  14.735
58618SOL    HW277629   3.529   6.409  14.804
58619SOL     OW77630   2.900   6.343   7.285
58619SOL    HW177631   2.982   6.348   7.334
58619SOL    HW277632   2.869   6.254   7.299
58620SOL     OW77633   6.480   9.951  13.272
58620SOL    HW177634   6.562  10.000  13.269
58620SOL    HW277635   6.424  10.000  13.331
58621SOL     OW77636   5.193  11.854  10.729
58621SOL    HW177637   5.192  11.771  10.682
58621SOL    HW277638   5.270  11.850  10.785
58622SOL     OW77639  12.579   3.844  14.169
58622SOL    HW177640  12.617   3.772  14.117
58622SOL    HW277641  12.590   3.921  14.114
58623SOL     OW77642   3.422   8.807  10.899
58623SOL    HW177643   3.493   8.749  10.871
58623SOL    HW277644   3.344   8.750  10.901
58624SOL     OW77645  10.369  13.133   7.106
58624SOL    HW177646  10.453  13.180   7.106
58624SOL    HW277647  10.394  13.041   7.119
58625SOL     OW77648   8.226  12.872   6.810
58625SOL    HW177649   8.289  12.924   6.761
58625SOL    HW277650   8.182  12.936   6.867
58626SOL     OW77651   5.668   5.580   7.561
58626SOL    HW177652   5.755   5.552   7.589
58626SOL    HW277653   5.664   5.673   7.583
58627SOL     OW77654   8.655   9.586   6.156
58627SOL    HW177655   8.628   9.664   6.108
58627SOL    HW277656   8.726   9.550   6.104
58628SOL     OW77657   1.046  13.459  14.369
58628SOL    HW177658   1.088  13.533  14.412
58628SOL    HW277659   1.044  13.483  14.277
58629SOL     OW77660  14.644  11.976   8.007
58629SOL    HW177661  14.703  11.902   8.020
58629SOL    HW277662  14.647  11.991   7.912
58630SOL     OW77663   5.720  14.798   1.289
58630SOL    HW177664   5.759  14.719   1.251
58630SOL    HW277665   5.760  14.870   1.242
58631SOL     OW77666  12.598  11.157   6.680
58631SOL    HW177667  12.664  11.219   6.650
58631SOL    HW277668  12.612  11.152   6.775
58632SOL     OW77669  12.915  11.166   6.847
58632SOL    HW177670  12.875  11.080   6.858
58632SOL    HW277671  12.911  11.183   6.753
58633SOL     OW77672   3.620   1.632  10.935
58633SOL    HW177673   3.533   1.670  10.925
58633SOL    HW277674   3.657   1.675  11.012
58634SOL     OW77675   3.454  10.886   8.827
58634SOL    HW177676   3.531  10.830   8.837
58634SOL    HW277677   3.387  10.829   8.789
58635SOL     OW77678   2.536  11.988   4.856
58635SOL    HW177679   2.461  12.044   4.839
58635SOL    HW277680   2.604  12.047   4.889
58636SOL     OW77681   1.054   9.710  11.955
58636SOL    HW177682   1.124   9.763  11.993
58636SOL    HW277683   1.032   9.755  11.873
58637SOL     OW77684  14.029  11.275   0.048
58637SOL    HW177685  13.937  11.300   0.041
58637SOL    HW277686  14.074  11.336  14.868
58638SOL     OW77687   9.633   4.238   8.103
58638SOL    HW177688   9.589   4.178   8.042
58638SOL    HW277689   9.569   4.307   8.119
58639SOL     OW77690   1.613  14.819   1.599
58639SOL    HW177691   1.583   0.026   1.564
58639SOL    HW277692   1.708  14.820   1.585
58640SOL     OW77693   7.123   9.973   4.886
58640SOL    HW177694   7.084   9.901   4.836
58640SOL    HW277695   7.111   9.949   4.978
58641SOL     OW77696  12.953   7.141  10.780
58641SOL    HW177697  12.966   7.048  10.760
58641SOL    HW277698  12.935   7.143  10.874
58642SOL     OW77699  13.511   0.840   1.236
58642SOL    HW177700  13.600   0.837   1.202
58642SOL    HW277701  13.519   0.884   1.321
58643SOL     OW77702   9.908   7.792   8.421
58643SOL    HW177703   9.820   7.787   8.384
58643SOL    HW277704   9.931   7.885   8.415
58644SOL     OW77705  11.543  13.156   2.144
58644SOL    HW177706  11.557  13.085   2.081
58644SOL    HW277707  11.627  13.167   2.188
58645SOL     OW77708   2.611   9.711   7.336
58645SOL    HW177709   2.539   9.666   7.380
58645SOL    HW277710   2.574   9.795   7.308
58646SOL     OW77711   1.914   8.214   2.970
58646SOL    HW177712   1.944   8.298   3.005
58646SOL    HW277713   1.988   8.181   2.919
58647SOL     OW77714   6.262  12.169   1.384
58647SOL    HW177715   6.168  12.157   1.393
58647SOL    HW277716   6.294  12.179   1.473
58648SOL     OW77717  13.324  11.257   2.075
58648SOL    HW177718  13.393  11.209   2.029
58648SOL    HW277719  13.247  11.200   2.070
58649SOL     OW77720  14.301  13.600   6.529
58649SOL    HW177721  14.381  13.631   6.487
58649SOL    HW277722  14.313  13.506   6.537
58650SOL     OW77723  14.617   6.649   4.959
58650SOL    HW177724  14.544   6.705   4.933
58650SOL    HW277725  14.649   6.686   5.041
58651SOL     OW77726   6.965  10.868  11.623
58651SOL    HW177727   6.882  10.847  11.666
58651SOL    HW277728   7.032  10.844  11.687
58652SOL     OW77729   1.198   4.057  12.151
58652SOL    HW177730   1.258   4.100  12.212
58652SOL    HW277731   1.159   3.986  12.201
58653SOL     OW77732   2.464   6.953  12.061
58653SOL    HW177733   2.407   6.994  11.996
58653SOL    HW277734   2.552   6.988  12.041
58654SOL     OW77735   7.155   4.397   2.494
58654SOL    HW177736   7.082   4.370   2.549
58654SOL    HW277737   7.117   4.407   2.406
58655SOL     OW77738   3.376  12.286   4.746
58655SOL    HW177739   3.372  12.298   4.651
58655SOL    HW277740   3.358  12.193   4.759
58656SOL     OW77741   7.901   3.086   6.270
58656SOL    HW177742   7.821   3.119   6.310
58656SOL    HW277743   7.945   3.164   6.236
58657SOL     OW77744   0.713  11.201   5.629
58657SOL    HW177745   0.708  11.125   5.688
58657SOL    HW277746   0.677  11.170   5.546
58658SOL     OW77747   2.852  11.555   5.874
58658SOL    HW177748   2.766  11.588   5.847
58658SOL    HW277749   2.851  11.462   5.848
58659SOL     OW77750   1.054  13.381   2.893
58659SOL    HW177751   1.107  13.302   2.903
58659SOL    HW277752   1.117  13.453   2.896
58660SOL     OW77753   4.615  10.268   1.804
58660SOL    HW177754   4.598  10.291   1.895
58660SOL    HW277755   4.537  10.296   1.757
58661SOL     OW77756  13.067   4.994  13.416
58661SOL    HW177757  13.158   4.983  13.388
58661SOL    HW277758  13.015   4.950  13.349
58662SOL     OW77759   4.649   1.877   4.822
58662SOL    HW177760   4.715   1.840   4.881
58662SOL    HW277761   4.597   1.802   4.794
58663SOL     OW77762   4.384  13.894  12.362
58663SOL    HW177763   4.356  13.920  12.274
58663SOL    HW277764   4.393  13.976  12.410
58664SOL     OW77765   8.681   4.522   8.989
58664SOL    HW177766   8.608   4.511   8.927
58664SOL    HW277767   8.757   4.486   8.943
58665SOL     OW77768   9.014   4.134   2.682
58665SOL    HW177769   8.981   4.093   2.762
58665SOL    HW277770   8.956   4.208   2.668
58666SOL     OW77771  11.876  13.420  14.120
58666SOL    HW177772  11.807  13.362  14.150
58666SOL    HW277773  11.869  13.497  14.176
58667SOL     OW77774   3.043   1.848   0.043
58667SOL    HW177775   3.016   1.918  14.861
58667SOL    HW277776   3.050   1.771  14.865
58668SOL     OW77777  12.090   6.813   9.480
58668SOL    HW177778  12.075   6.879   9.548
58668SOL    HW277779  12.027   6.744   9.500
58669SOL     OW77780   0.578   8.215   2.470
58669SOL    HW177781   0.510   8.275   2.502
58669SOL    HW277782   0.561   8.133   2.515
58670SOL     OW77783   8.821  11.299  10.773
58670SOL    HW177784   8.897  11.357  10.773
58670SOL    HW277785   8.857  11.212  10.794
58671SOL     OW77786   4.307  11.704  14.382
58671SOL    HW177787   4.281  11.671  14.296
58671SOL    HW277788   4.317  11.798  14.370
58672SOL     OW77789  11.549  10.583   2.041
58672SOL    HW177790  11.537  10.491   2.014
58672SOL    HW277791  11.521  10.633   1.965
58673SOL     OW77792  13.987   3.698   3.408
58673SOL    HW177793  13.950   3.672   3.324
58673SOL    HW277794  14.073   3.656   3.410
58674SOL     OW77795  10.043  12.883   6.859
58674SOL    HW177796  10.077  12.933   6.933
58674SOL    HW277797   9.961  12.846   6.892
58675SOL     OW77798   7.263   8.195  14.221
58675SOL    HW177799   7.356   8.203  14.244
58675SOL    HW277800   7.217   8.210  14.304
58676SOL     OW77801   1.707   0.782   0.618
58676SOL    HW177802   1.776   0.718   0.602
58676SOL    HW277803   1.716   0.805   0.710
58677SOL     OW77804   6.938  14.682   7.118
58677SOL    HW177805   6.845  14.668   7.131
58677SOL    HW277806   6.950  14.777   7.130
58678SOL     OW77807  13.294   7.472   9.275
58678SOL    HW177808  13.303   7.379   9.297
58678SOL    HW277809  13.247   7.472   9.192
58679SOL     OW77810   4.413  10.073   8.877
58679SOL    HW177811   4.486  10.132   8.861
58679SOL    HW277812   4.426  10.042   8.967
58680SOL     OW77813   2.679   1.887   8.467
58680SOL    HW177814   2.614   1.919   8.404
58680SOL    HW277815   2.631   1.877   8.549
58681SOL     OW77816   2.571   6.835  12.935
58681SOL    HW177817   2.484   6.814  12.970
58681SOL    HW277818   2.576   6.931  12.939
58682SOL     OW77819  12.396   8.899   2.113
58682SOL    HW177820  12.482   8.927   2.144
58682SOL    HW277821  12.397   8.919   2.019
58683SOL     OW77822   1.912  10.365   5.077
58683SOL    HW177823   1.824  10.403   5.087
58683SOL    HW277824   1.897  10.271   5.075
58684SOL     OW77825  10.443   7.178   8.274
58684SOL    HW177826  10.485   7.188   8.360
58684SOL    HW277827  10.413   7.087   8.273
58685SOL     OW77828   2.261   7.456  13.234
58685SOL    HW177829   2.228   7.406  13.309
58685SOL    HW277830   2.286   7.541  13.271
58686SOL     OW77831  10.195   2.748   0.848
58686SOL    HW177832  10.227   2.837   0.832
58686SOL    HW277833  10.246   2.717   0.923
58687SOL     OW77834   5.490  11.282   3.329
58687SOL    HW177835   5.531  11.239   3.253
58687SOL    HW277836   5.563  11.320   3.377
58688SOL     OW77837  14.235   5.670   5.447
58688SOL    HW177838  14.223   5.583   5.407
58688SOL    HW277839  14.329   5.684   5.444
58689SOL     OW77840   6.482   2.087   3.627
58689SOL    HW177841   6.438   2.036   3.559
58689SOL    HW277842   6.415   2.101   3.695
58690SOL     OW77843   0.579  13.036   2.499
58690SOL    HW177844   0.498  13.054   2.547
58690SOL    HW277845   0.563  13.067   2.410
58691SOL     OW77846   4.834  14.735  12.952
58691SOL    HW177847   4.868  14.695  12.872
58691SOL    HW277848   4.898  14.714  13.020
58692SOL     OW77849  11.210   9.670   7.737
58692SOL    HW177850  11.268   9.594   7.742
58692SOL    HW277851  11.181   9.684   7.827
58693SOL     OW77852   0.502   1.425   7.788
58693SOL    HW177853   0.596   1.444   7.788
58693SOL    HW277854   0.494   1.340   7.831
58694SOL     OW77855   2.809   7.313  11.187
58694SOL    HW177856   2.772   7.251  11.125
58694SOL    HW277857   2.876   7.263  11.234
58695SOL     OW77858   4.506   8.087  10.619
58695SOL    HW177859   4.468   8.042  10.694
58695SOL    HW277860   4.467   8.045  10.542
58696SOL     OW77861  11.860   3.248   8.076
58696SOL    HW177862  11.877   3.209   7.990
58696SOL    HW277863  11.776   3.293   8.065
58697SOL     OW77864   3.931   8.017   7.504
58697SOL    HW177865   3.912   8.063   7.422
58697SOL    HW277866   3.923   7.925   7.482
58698SOL     OW77867   7.996   2.484   0.043
58698SOL    HW177868   8.026   2.528   0.123
58698SOL    HW277869   7.947   2.552  14.874
58699SOL     OW77870  14.334  10.597   7.328
58699SOL    HW177871  14.251  10.644   7.319
58699SOL    HW277872  14.362  10.580   7.238
58700SOL     OW77873   0.637   4.762   0.046
58700SOL    HW177874   0.686   4.691   0.004
58700SOL    HW277875   0.562   4.776  14.867
58701SOL     OW77876   1.062  11.833  10.701
58701SOL    HW177877   1.065  11.747  10.660
58701SOL    HW277878   0.995  11.825  10.768
58702SOL     OW77879  12.986  12.068  10.076
58702SOL    HW177880  12.979  12.059  10.171
58702SOL    HW277881  12.999  12.162  10.061
58703SOL     OW77882   1.276   7.336   2.420
58703SOL    HW177883   1.197   7.371   2.462
58703SOL    HW277884   1.345   7.348   2.485
58704SOL     OW77885  10.556  10.551   5.391
58704SOL    HW177886  10.563  10.641   5.421
58704SOL    HW277887  10.519  10.557   5.303
58705SOL     OW77888   1.863   1.940  13.738
58705SOL    HW177889   1.906   1.973  13.660
58705SOL    HW277890   1.775   1.915  13.709
58706SOL     OW77891   8.198   1.695  14.631
58706SOL    HW177892   8.252   1.712  14.553
58706SOL    HW277893   8.131   1.634  14.601
58707SOL     OW77894  11.802   6.008   5.632
58707SOL    HW177895  11.722   6.011   5.580
58707SOL    HW277896  11.865   5.961   5.577
58708SOL     OW77897   8.862   5.974   5.006
58708SOL    HW177898   8.770   5.954   5.020
58708SOL    HW277899   8.883   6.040   5.073
58709SOL     OW77900  12.773   0.178   5.299
58709SOL    HW177901  12.796   0.129   5.220
58709SOL    HW277902  12.837   0.148   5.364
58710SOL     OW77903   1.035   4.334  10.121
58710SOL    HW177904   1.052   4.370  10.035
58710SOL    HW277905   1.120   4.335  10.165
58711SOL     OW77906  11.063   0.847  10.764
58711SOL    HW177907  11.061   0.933  10.808
58711SOL    HW277908  11.127   0.796  10.814
58712SOL     OW77909   7.524  12.431   1.861
58712SOL    HW177910   7.579  12.356   1.842
58712SOL    HW277911   7.439  12.394   1.887
58713SOL     OW77912   6.180   4.871  13.394
58713SOL    HW177913   6.115   4.801  13.391
58713SOL    HW277914   6.228   4.855  13.476
58714SOL     OW77915   3.890   9.897  11.182
58714SOL    HW177916   3.882   9.890  11.277
58714SOL    HW277917   3.820   9.958  11.156
58715SOL     OW77918   2.528   8.165   7.582
58715SOL    HW177919   2.453   8.224   7.574
58715SOL    HW277920   2.508   8.111   7.658
58716SOL     OW77921   8.789   5.602   5.689
58716SOL    HW177922   8.717   5.577   5.630
58716SOL    HW277923   8.809   5.522   5.737
58717SOL     OW77924  12.873   6.374   4.849
58717SOL    HW177925  12.784   6.403   4.828
58717SOL    HW277926  12.861   6.309   4.918
58718SOL     OW77927   1.143  12.704   5.094
58718SOL    HW177928   1.081  12.642   5.133
58718SOL    HW277929   1.152  12.675   5.003
58719SOL     OW77930   8.346   5.757   5.905
58719SOL    HW177931   8.285   5.688   5.930
58719SOL    HW277932   8.367   5.801   5.987
58720SOL     OW77933   1.909  13.452  12.926
58720SOL    HW177934   1.830  13.506  12.922
58720SOL    HW277935   1.912  13.409  12.840
58721SOL     OW77936   4.817   0.044   7.086
58721SOL    HW177937   4.747   0.106   7.066
58721SOL    HW277938   4.852   0.017   7.001
58722SOL     OW77939  12.706  13.755   4.205
58722SOL    HW177940  12.641  13.742   4.273
58722SOL    HW277941  12.657  13.791   4.131
58723SOL     OW77942  10.917   1.838   8.565
58723SOL    HW177943  10.991   1.801   8.613
58723SOL    HW277944  10.845   1.778   8.582
58724SOL     OW77945   5.773   3.781   1.900
58724SOL    HW177946   5.719   3.708   1.871
58724SOL    HW277947   5.862   3.758   1.873
58725SOL     OW77948   0.320   0.076   4.999
58725SOL    HW177949   0.360   0.001   5.044
58725SOL    HW277950   0.340   0.062   4.907
58726SOL     OW77951  11.562   3.131   7.157
58726SOL    HW177952  11.514   3.184   7.093
58726SOL    HW277953  11.633   3.188   7.188
58727SOL     OW77954  12.564  12.749   9.582
58727SOL    HW177955  12.490  12.787   9.631
58727SOL    HW277956  12.609  12.825   9.545
58728SOL     OW77957   6.704  10.536  14.875
58728SOL    HW177958   6.697  10.490  14.792
58728SOL    HW277959   6.663  10.621  14.859
58729SOL     OW77960  14.474   6.848   6.221
58729SOL    HW177961  14.412   6.849   6.148
58729SOL    HW277962  14.543   6.908   6.194
58730SOL     OW77963  10.117  11.262   3.587
58730SOL    HW177964  10.211  11.264   3.606
58730SOL    HW277965  10.111  11.219   3.502
58731SOL     OW77966   9.521   0.513  12.118
58731SOL    HW177967   9.595   0.466  12.081
58731SOL    HW277968   9.559   0.568  12.187
58732SOL     OW77969  11.432   2.447   9.382
58732SOL    HW177970  11.441   2.493   9.299
58732SOL    HW277971  11.439   2.354   9.359
58733SOL     OW77972  13.330  13.003  12.815
58733SOL    HW177973  13.406  12.960  12.855
58733SOL    HW277974  13.261  12.998  12.881
58734SOL     OW77975   3.457  11.997   3.398
58734SOL    HW177976   3.368  12.032   3.400
58734SOL    HW277977   3.511  12.070   3.368
58735SOL     OW77978   3.182   0.664   9.155
58735SOL    HW177979   3.134   0.618   9.086
58735SOL    HW277980   3.214   0.744   9.113
58736SOL     OW77981   7.974   7.973   2.400
58736SOL    HW177982   7.935   8.042   2.454
58736SOL    HW277983   8.038   7.931   2.457
58737SOL     OW77984   4.668  12.132   1.152
58737SOL    HW177985   4.699  12.074   1.083
58737SOL    HW277986   4.744  12.148   1.207
58738SOL     OW77987   6.820  12.096   7.898
58738SOL    HW177988   6.729  12.065   7.899
58738SOL    HW277989   6.871  12.022   7.866
58739SOL     OW77990  12.308  14.264   5.662
58739SOL    HW177991  12.395  14.298   5.640
58739SOL    HW277992  12.316  14.169   5.651
58740SOL     OW77993  10.151   1.951   9.061
58740SOL    HW177994  10.189   2.038   9.045
58740SOL    HW277995  10.215   1.908   9.118
58741SOL     OW77996  11.941   7.535   3.962
58741SOL    HW177997  11.941   7.557   4.055
58741SOL    HW277998  11.957   7.618   3.918
58742SOL     OW77999   6.031  11.884   7.818
58742SOL    HW178000   6.041  11.801   7.865
58742SOL    HW278001   6.080  11.871   7.737
58743SOL     OW78002  11.190   1.751   0.518
58743SOL    HW178003  11.257   1.781   0.580
58743SOL    HW278004  11.117   1.722   0.574
58744SOL     OW78005   9.084  13.208   7.758
58744SOL    HW178006   9.097  13.254   7.841
58744SOL    HW278007   9.172  13.194   7.725
58745SOL     OW78008   7.443  14.719   5.365
58745SOL    HW178009   7.399  14.657   5.307
58745SOL    HW278010   7.439  14.803   5.319
58746SOL     OW78011  12.632  10.077   3.658
58746SOL    HW178012  12.725  10.055   3.657
58746SOL    HW278013  12.605  10.075   3.566
58747SOL     OW78014   4.818  10.257   7.508
58747SOL    HW178015   4.870  10.292   7.580
58747SOL    HW278016   4.848  10.167   7.496
58748SOL     OW78017   6.862  13.808   9.610
58748SOL    HW178018   6.780  13.841   9.573
58748SOL    HW278019   6.912  13.887   9.631
58749SOL     OW78020   2.278   6.167  10.678
58749SOL    HW178021   2.250   6.213  10.757
58749SOL    HW278022   2.237   6.214  10.606
58750SOL     OW78023   4.984   7.431   8.028
58750SOL    HW178024   4.896   7.425   7.990
58750SOL    HW278025   4.971   7.417   8.121
58751SOL     OW78026  13.696  11.331   7.243
58751SOL    HW178027  13.754  11.352   7.169
58751SOL    HW278028  13.661  11.415   7.271
58752SOL     OW78029  10.427  14.767   9.776
58752SOL    HW178030  10.426  14.825   9.701
58752SOL    HW278031  10.502  14.796   9.828
58753SOL     OW78032   4.100   9.209   9.498
58753SOL    HW178033   4.145   9.284   9.460
58753SOL    HW278034   4.144   9.133   9.460
58754SOL     OW78035   9.691  13.732  10.622
58754SOL    HW178036   9.697  13.715  10.528
58754SOL    HW278037   9.766  13.788  10.642
58755SOL     OW78038  14.525   0.849   1.771
58755SOL    HW178039  14.609   0.810   1.795
58755SOL    HW278040  14.532   0.862   1.676
58756SOL     OW78041   8.662   9.200  14.156
58756SOL    HW178042   8.708   9.240  14.082
58756SOL    HW278043   8.592   9.148  14.115
58757SOL     OW78044   2.224   7.006   4.058
58757SOL    HW178045   2.182   7.072   4.002
58757SOL    HW278046   2.299   7.051   4.096
58758SOL     OW78047  12.141   3.018   3.265
58758SOL    HW178048  12.059   3.030   3.217
58758SOL    HW278049  12.134   2.931   3.303
58759SOL     OW78050  14.522  14.714  13.776
58759SOL    HW178051  14.441  14.670  13.751
58759SOL    HW278052  14.497  14.774  13.846
58760SOL     OW78053   1.749   2.879  10.192
58760SOL    HW178054   1.699   2.862  10.272
58760SOL    HW278055   1.822   2.934  10.221
58761SOL     OW78056   2.371  13.845   9.745
58761SOL    HW178057   2.466  13.838   9.753
58761SOL    HW278058   2.349  13.797   9.665
58762SOL     OW78059  12.954   6.724   8.580
58762SOL    HW178060  12.880   6.663   8.587
58762SOL    HW278061  13.012   6.699   8.651
58763SOL     OW78062   4.026   2.422  12.779
58763SOL    HW178063   4.113   2.461  12.784
58763SOL    HW278064   3.973   2.487  12.732
58764SOL     OW78065  14.561   6.708   7.379
58764SOL    HW178066  14.521   6.623   7.359
58764SOL    HW278067  14.655   6.690   7.377
58765SOL     OW78068  10.071   7.985   6.058
58765SOL    HW178069  10.025   8.037   6.123
58765SOL    HW278070  10.038   8.017   5.974
58766SOL     OW78071   9.658   9.578  13.189
58766SOL    HW178072   9.616   9.548  13.270
58766SOL    HW278073   9.585   9.599  13.130
58767SOL     OW78074   0.416   4.659   3.031
58767SOL    HW178075   0.347   4.598   3.006
58767SOL    HW278076   0.374   4.719   3.093
58768SOL     OW78077   6.200   6.719   4.892
58768SOL    HW178078   6.180   6.741   4.983
58768SOL    HW278079   6.235   6.800   4.855
58769SOL     OW78080  10.352   1.846  13.638
58769SOL    HW178081  10.265   1.885  13.640
58769SOL    HW278082  10.346   1.778  13.570
58770SOL     OW78083   5.533   9.906  11.926
58770SOL    HW178084   5.537   9.959  11.846
58770SOL    HW278085   5.557   9.818  11.898
58771SOL     OW78086  10.616   1.478   9.545
58771SOL    HW178087  10.632   1.385   9.525
58771SOL    HW278088  10.552   1.477   9.616
58772SOL     OW78089  12.319   1.496   8.490
58772SOL    HW178090  12.287   1.541   8.568
58772SOL    HW278091  12.391   1.441   8.522
58773SOL     OW78092   5.547  14.633   6.479
58773SOL    HW178093   5.637  14.602   6.482
58773SOL    HW278094   5.542  14.686   6.399
58774SOL     OW78095   1.444   6.729   6.038
58774SOL    HW178096   1.471   6.786   5.966
58774SOL    HW278097   1.522   6.676   6.056
58775SOL     OW78098   7.611   6.347  13.233
58775SOL    HW178099   7.697   6.303  13.233
58775SOL    HW278100   7.548   6.275  13.225
58776SOL     OW78101  12.595  13.605  13.185
58776SOL    HW178102  12.552  13.566  13.261
58776SOL    HW278103  12.568  13.697  13.187
58777SOL     OW78104  12.428   9.158   2.290
58777SOL    HW178105  12.487   9.228   2.318
58777SOL    HW278106  12.430   9.095   2.362
58778SOL     OW78107   7.122   4.447   8.297
58778SOL    HW178108   7.139   4.359   8.330
58778SOL    HW278109   7.175   4.504   8.352
58779SOL     OW78110   4.470  11.695   0.416
58779SOL    HW178111   4.457  11.675   0.323
58779SOL    HW278112   4.545  11.754   0.417
58780SOL     OW78113   9.811  12.272   8.350
58780SOL    HW178114   9.792  12.364   8.331
58780SOL    HW278115   9.893  12.275   8.399
58781SOL     OW78116  13.668   2.761   4.581
58781SOL    HW178117  13.753   2.797   4.557
58781SOL    HW278118  13.605   2.809   4.527
58782SOL     OW78119   7.841  13.426   4.263
58782SOL    HW178120   7.911  13.424   4.328
58782SOL    HW278121   7.761  13.411   4.313
58783SOL     OW78122  12.202   4.625   7.829
58783SOL    HW178123  12.260   4.609   7.755
58783SOL    HW278124  12.249   4.689   7.882
58784SOL     OW78125  13.296   7.255   1.701
58784SOL    HW178126  13.246   7.258   1.620
58784SOL    HW278127  13.259   7.325   1.755
58785SOL     OW78128   0.744  14.018  12.688
58785SOL    HW178129   0.799  13.943  12.667
58785SOL    HW278130   0.761  14.034  12.781
58786SOL     OW78131   2.627   0.036  14.625
58786SOL    HW178132   2.536   0.007  14.637
58786SOL    HW278133   2.679  14.850  14.673
58787SOL     OW78134   9.648   1.934  11.094
58787SOL    HW178135   9.585   1.967  11.157
58787SOL    HW278136   9.733   1.960  11.129
58788SOL     OW78137   6.194   6.733   6.145
58788SOL    HW178138   6.265   6.770   6.196
58788SOL    HW278139   6.117   6.785   6.170
58789SOL     OW78140  12.034   6.988   5.023
58789SOL    HW178141  12.108   7.020   4.971
58789SOL    HW278142  11.961   6.986   4.962
58790SOL     OW78143  13.252  14.352   9.150
58790SOL    HW178144  13.318  14.282   9.150
58790SOL    HW278145  13.285  14.416   9.213
58791SOL     OW78146   3.690  12.255   1.501
58791SOL    HW178147   3.701  12.175   1.553
58791SOL    HW278148   3.660  12.320   1.563
58792SOL     OW78149   4.957   4.172   9.595
58792SOL    HW178150   5.028   4.167   9.532
58792SOL    HW278151   4.881   4.199   9.543
58793SOL     OW78152  13.062   9.530   1.731
58793SOL    HW178153  13.010   9.602   1.765
58793SOL    HW278154  13.031   9.453   1.778
58794SOL     OW78155   3.227   7.779  14.663
58794SOL    HW178156   3.221   7.740  14.575
58794SOL    HW278157   3.263   7.866  14.648
58795SOL     OW78158  12.721   7.362  11.236
58795SOL    HW178159  12.772   7.306  11.179
58795SOL    HW278160  12.631   7.329  11.228
58796SOL     OW78161   4.373  10.556   8.108
58796SOL    HW178162   4.313  10.594   8.043
58796SOL    HW278163   4.436  10.507   8.056
58797SOL     OW78164   9.908   5.451   1.334
58797SOL    HW178165   9.940   5.391   1.401
58797SOL    HW278166   9.982   5.510   1.318
58798SOL     OW78167  12.843   6.249   2.225
58798SOL    HW178168  12.931   6.245   2.262
58798SOL    HW278169  12.856   6.268   2.132
58799SOL     OW78170   8.875  12.825   0.873
58799SOL    HW178171   8.827  12.887   0.928
58799SOL    HW278172   8.808  12.788   0.815
58800SOL     OW78173   4.290  13.554   8.205
58800SOL    HW178174   4.343  13.633   8.202
58800SOL    HW278175   4.346  13.489   8.247
58801SOL     OW78176  10.647  13.503   6.645
58801SOL    HW178177  10.670  13.571   6.583
58801SOL    HW278178  10.642  13.423   6.592
58802SOL     OW78179  13.734   9.569   7.601
58802SOL    HW178180  13.802   9.515   7.641
58802SOL    HW278181  13.717   9.638   7.664
58803SOL     OW78182   8.493   8.883   0.852
58803SOL    HW178183   8.443   8.960   0.826
58803SOL    HW278184   8.428   8.815   0.866
58804SOL     OW78185   2.072   7.293   4.131
58804SOL    HW178186   1.985   7.254   4.120
58804SOL    HW278187   2.097   7.270   4.220
58805SOL     OW78188   4.462  13.819   3.268
58805SOL    HW178189   4.445  13.911   3.285
58805SOL    HW278190   4.536  13.818   3.208
58806SOL     OW78191   2.283   7.312   7.024
58806SOL    HW178192   2.319   7.226   7.046
58806SOL    HW278193   2.357   7.361   6.988
58807SOL     OW78194  13.588   0.645   7.521
58807SOL    HW178195  13.560   0.554   7.524
58807SOL    HW278196  13.592   0.667   7.428
58808SOL     OW78197   8.235   4.260  13.496
58808SOL    HW178198   8.171   4.277  13.565
58808SOL    HW278199   8.312   4.225  13.542
58809SOL     OW78200   0.177   2.668   4.113
58809SOL    HW178201   0.241   2.730   4.146
58809SOL    HW278202   0.171   2.601   4.180
58810SOL     OW78203   1.626  12.974  12.768
58810SOL    HW178204   1.607  12.930  12.851
58810SOL    HW278205   1.595  13.064  12.781
58811SOL     OW78206   7.122  12.834   1.534
58811SOL    HW178207   7.121  12.777   1.611
58811SOL    HW278208   7.102  12.776   1.460
58812SOL     OW78209   1.359   2.069   3.071
58812SOL    HW178210   1.452   2.079   3.050
58812SOL    HW278211   1.318   2.150   3.039
58813SOL     OW78212  13.627  11.107   1.100
58813SOL    HW178213  13.681  11.135   1.174
58813SOL    HW278214  13.537  11.110   1.133
58814SOL     OW78215  11.057   6.625   1.436
58814SOL    HW178216  11.013   6.687   1.378
58814SOL    HW278217  11.145   6.616   1.400
58815SOL     OW78218   9.071  14.835   7.441
58815SOL    HW178219   8.996  14.776   7.441
58815SOL    HW278220   9.123  14.808   7.517
58816SOL     OW78221  13.280  10.226  14.589
58816SOL    HW178222  13.275  10.301  14.649
58816SOL    HW278223  13.243  10.259  14.507
58817SOL     OW78224   6.327   9.031   5.639
58817SOL    HW178225   6.404   9.072   5.679
58817SOL    HW278226   6.257   9.043   5.703
58818SOL     OW78227  10.210  14.116  12.304
58818SOL    HW178228  10.119  14.106  12.335
58818SOL    HW278229  10.201  14.158  12.219
58819SOL     OW78230   9.013   2.956  14.582
58819SOL    HW178231   8.930   2.923  14.546
58819SOL    HW278232   9.062   2.986  14.506
58820SOL     OW78233  11.634   3.676  14.119
58820SOL    HW178234  11.617   3.655  14.211
58820SOL    HW278235  11.670   3.595  14.083
58821SOL     OW78236   4.381  14.514   3.265
58821SOL    HW178237   4.294  14.554   3.260
58821SOL    HW278238   4.441  14.588   3.262
58822SOL     OW78239   5.910   2.316   8.405
58822SOL    HW178240   5.971   2.302   8.478
58822SOL    HW278241   5.965   2.348   8.334
58823SOL     OW78242  10.432  12.469   1.183
58823SOL    HW178243  10.382  12.444   1.261
58823SOL    HW278244  10.428  12.565   1.181
58824SOL     OW78245  11.755   1.437  10.636
58824SOL    HW178246  11.850   1.447  10.648
58824SOL    HW278247  11.720   1.429  10.724
58825SOL     OW78248  13.575   4.083   9.632
58825SOL    HW178249  13.667   4.072   9.606
58825SOL    HW278250  13.579   4.140   9.709
58826SOL     OW78251  10.341   2.447   9.901
58826SOL    HW178252  10.291   2.372   9.933
58826SOL    HW278253  10.426   2.411   9.877
58827SOL     OW78254  11.497  13.077  12.894
58827SOL    HW178255  11.493  13.173  12.888
58827SOL    HW278256  11.570  13.060  12.953
58828SOL     OW78257   5.499   6.659   5.614
58828SOL    HW178258   5.442   6.616   5.677
58828SOL    HW278259   5.442   6.722   5.570
58829SOL     OW78260   0.116   2.562  13.503
58829SOL    HW178261   0.139   2.506  13.577
58829SOL    HW278262   0.034   2.603  13.528
58830SOL     OW78263   2.789   5.965   6.683
58830SOL    HW178264   2.703   5.928   6.706
58830SOL    HW278265   2.848   5.931   6.750
58831SOL     OW78266   1.179  13.144   7.064
58831SOL    HW178267   1.189  13.172   6.973
58831SOL    HW278268   1.091  13.106   7.068
58832SOL     OW78269  13.097   6.735   8.819
58832SOL    HW178270  13.049   6.813   8.846
58832SOL    HW278271  13.081   6.672   8.889
58833SOL     OW78272   7.035   4.593  11.622
58833SOL    HW178273   7.115   4.615  11.573
58833SOL    HW278274   7.063   4.525  11.684
58834SOL     OW78275   1.677  13.636  13.985
58834SOL    HW178276   1.696  13.580  14.060
58834SOL    HW278277   1.600  13.686  14.011
58835SOL     OW78278  12.289   9.191   2.050
58835SOL    HW178279  12.335   9.145   2.120
58835SOL    HW278280  12.343   9.178   1.972
58836SOL     OW78281   0.319  11.736   4.778
58836SOL    HW178282   0.293  11.715   4.688
58836SOL    HW278283   0.248  11.791   4.811
58837SOL     OW78284   7.195   3.729   2.923
58837SOL    HW178285   7.131   3.676   2.970
58837SOL    HW278286   7.274   3.724   2.976
58838SOL     OW78287   0.271  10.591   7.374
58838SOL    HW178288   0.326  10.635   7.309
58838SOL    HW278289   0.190  10.642   7.376
58839SOL     OW78290   4.084  12.163   7.425
58839SOL    HW178291   4.139  12.101   7.473
58839SOL    HW278292   4.100  12.143   7.332
58840SOL     OW78293   6.459   1.026   2.656
58840SOL    HW178294   6.478   1.009   2.748
58840SOL    HW278295   6.543   1.014   2.612
58841SOL     OW78296  11.042  12.553   5.771
58841SOL    HW178297  10.952  12.571   5.743
58841SOL    HW278298  11.072  12.484   5.711
58842SOL     OW78299   2.970   8.182   0.267
58842SOL    HW178300   2.962   8.137   0.183
58842SOL    HW278301   3.051   8.147   0.305
58843SOL     OW78302   3.396   9.117   7.468
58843SOL    HW178303   3.479   9.094   7.425
58843SOL    HW278304   3.341   9.040   7.459
58844SOL     OW78305   7.081   8.308   6.852
58844SOL    HW178306   7.049   8.384   6.804
58844SOL    HW278307   7.074   8.333   6.944
58845SOL     OW78308   0.759  14.519  14.062
58845SOL    HW178309   0.744  14.507  14.156
58845SOL    HW278310   0.795  14.607  14.055
58846SOL     OW78311  14.137   8.109   9.353
58846SOL    HW178312  14.083   8.030   9.355
58846SOL    HW278313  14.104   8.162   9.426
58847SOL     OW78314  12.971   1.895   8.986
58847SOL    HW178315  12.908   1.966   8.999
58847SOL    HW278316  12.978   1.886   8.891
58848SOL     OW78317   4.629  12.716   2.793
58848SOL    HW178318   4.618  12.629   2.755
58848SOL    HW278319   4.724  12.731   2.791
58849SOL     OW78320   4.658   8.990   3.691
58849SOL    HW178321   4.710   8.921   3.650
58849SOL    HW278322   4.582   9.000   3.634
58850SOL     OW78323   4.900   1.357  11.748
58850SOL    HW178324   4.933   1.384  11.834
58850SOL    HW278325   4.978   1.344  11.695
58851SOL     OW78326   5.435   5.240   9.876
58851SOL    HW178327   5.408   5.255   9.785
58851SOL    HW278328   5.476   5.322   9.902
58852SOL     OW78329  11.960  10.512   7.784
58852SOL    HW178330  12.021  10.571   7.829
58852SOL    HW278331  11.881  10.515   7.838
58853SOL     OW78332   2.358   6.698  11.423
58853SOL    HW178333   2.376   6.792  11.420
58853SOL    HW278334   2.340   6.675  11.331
58854SOL     OW78335   9.159   0.977   0.251
58854SOL    HW178336   9.109   0.898   0.274
58854SOL    HW278337   9.096   1.049   0.261
58855SOL     OW78338   6.435  10.489  12.638
58855SOL    HW178339   6.368  10.455  12.697
58855SOL    HW278340   6.432  10.430  12.562
58856SOL     OW78341   7.653   9.110   5.482
58856SOL    HW178342   7.565   9.112   5.520
58856SOL    HW278343   7.711   9.132   5.555
58857SOL     OW78344   9.133   7.576  11.230
58857SOL    HW178345   9.091   7.531  11.156
58857SOL    HW278346   9.060   7.606  11.284
58858SOL     OW78347   9.353  10.066   5.993
58858SOL    HW178348   9.322  10.097   5.908
58858SOL    HW278349   9.285  10.092   6.055
58859SOL     OW78350   1.410   0.624  10.861
58859SOL    HW178351   1.458   0.654  10.938
58859SOL    HW278352   1.319   0.619  10.889
58860SOL     OW78353   4.729   7.877   8.896
58860SOL    HW178354   4.803   7.938   8.894
58860SOL    HW278355   4.738   7.831   8.980
58861SOL     OW78356   3.441  10.121   2.981
58861SOL    HW178357   3.353  10.139   3.014
58861SOL    HW278358   3.438  10.029   2.954
58862SOL     OW78359  12.025   3.195  14.575
58862SOL    HW178360  12.009   3.261  14.642
58862SOL    HW278361  12.100   3.229  14.525
58863SOL     OW78362  10.827   7.384   4.605
58863SOL    HW178363  10.805   7.442   4.532
58863SOL    HW278364  10.743   7.362   4.644
58864SOL     OW78365  10.666   6.209  11.491
58864SOL    HW178366  10.588   6.168  11.454
58864SOL    HW278367  10.632   6.275  11.551
58865SOL     OW78368  10.669  10.339   8.065
58865SOL    HW178369  10.750  10.359   8.113
58865SOL    HW278370  10.691  10.356   7.974
58866SOL     OW78371   9.400   3.077   3.407
58866SOL    HW178372   9.493   3.079   3.386
58866SOL    HW278373   9.397   3.056   3.500
58867SOL     OW78374   9.457   9.299  13.032
58867SOL    HW178375   9.457   9.335  13.120
58867SOL    HW278376   9.425   9.371  12.977
58868SOL     OW78377   9.688   3.925  13.298
58868SOL    HW178378   9.637   3.954  13.374
58868SOL    HW278379   9.641   3.849  13.265
58869SOL     OW78380  12.163   5.902   4.608
58869SOL    HW178381  12.239   5.908   4.665
58869SOL    HW278382  12.125   5.989   4.610
58870SOL     OW78383  14.811   7.313   5.119
58870SOL    HW178384  14.809   7.284   5.210
58870SOL    HW278385   0.013   7.366   5.112
58871SOL     OW78386   4.517   2.671   3.690
58871SOL    HW178387   4.453   2.707   3.751
58871SOL    HW278388   4.590   2.645   3.746
58872SOL     OW78389  12.234  13.272   8.556
58872SOL    HW178390  12.207  13.287   8.647
58872SOL    HW278391  12.287  13.192   8.561
58873SOL     OW78392   1.513   3.687   4.344
58873SOL    HW178393   1.435   3.633   4.337
58873SOL    HW278394   1.583   3.626   4.369
58874SOL     OW78395   9.385  11.453  14.222
58874SOL    HW178396   9.464  11.468  14.170
58874SOL    HW278397   9.327  11.526  14.199
58875SOL     OW78398  14.146  11.884   4.542
58875SOL    HW178399  14.147  11.852   4.632
58875SOL    HW278400  14.203  11.824   4.494
58876SOL     OW78401   0.047   0.374   8.103
58876SOL    HW178402   0.085   0.378   8.191
58876SOL    HW278403   0.045   0.465   8.074
58877SOL     OW78404   5.199   9.524  11.416
58877SOL    HW178405   5.223   9.432  11.423
58877SOL    HW278406   5.127   9.526  11.353
58878SOL     OW78407   3.007   5.509  13.752
58878SOL    HW178408   2.966   5.573  13.694
58878SOL    HW278409   2.942   5.438  13.758
58879SOL     OW78410   6.360   3.895  12.640
58879SOL    HW178411   6.409   3.888  12.722
58879SOL    HW278412   6.347   3.988  12.627
58880SOL     OW78413   4.127   0.116  14.110
58880SOL    HW178414   4.055   0.058  14.086
58880SOL    HW278415   4.145   0.166  14.031
58881SOL     OW78416   5.544   1.422   8.424
58881SOL    HW178417   5.594   1.375   8.357
58881SOL    HW278418   5.497   1.354   8.471
58882SOL     OW78419   5.666   8.046   3.087
58882SOL    HW178420   5.573   8.069   3.079
58882SOL    HW278421   5.712   8.125   3.059
58883SOL     OW78422   8.309   1.631   4.285
58883SOL    HW178423   8.383   1.645   4.227
58883SOL    HW278424   8.334   1.674   4.367
58884SOL     OW78425   9.584  13.968  14.679
58884SOL    HW178426   9.595  13.935  14.768
58884SOL    HW278427   9.667  14.011  14.659
58885SOL     OW78428   0.032   5.233   7.610
58885SOL    HW178429  14.815   5.221   7.615
58885SOL    HW278430   0.044   5.327   7.619
58886SOL     OW78431  11.909  10.063   6.309
58886SOL    HW178432  11.888   9.976   6.344
58886SOL    HW278433  11.829  10.114   6.324
58887SOL     OW78434   0.279   8.289   2.345
58887SOL    HW178435   0.302   8.351   2.414
58887SOL    HW278436   0.308   8.204   2.378
58888SOL     OW78437  11.622   9.237   1.200
58888SOL    HW178438  11.537   9.278   1.186
58888SOL    HW278439  11.685   9.307   1.183
58889SOL     OW78440   8.895   3.566   8.178
58889SOL    HW178441   8.988   3.544   8.187
58889SOL    HW278442   8.865   3.582   8.267
58890SOL     OW78443   4.436  13.802   5.009
58890SOL    HW178444   4.426  13.799   5.104
58890SOL    HW278445   4.348  13.787   4.974
58891SOL     OW78446   1.527  13.370  11.684
58891SOL    HW178447   1.503  13.412  11.601
58891SOL    HW278448   1.575  13.292  11.658
58892SOL     OW78449   1.180  13.233   0.722
58892SOL    HW178450   1.196  13.156   0.777
58892SOL    HW278451   1.268  13.267   0.703
58893SOL     OW78452  13.937  12.739   0.647
58893SOL    HW178453  13.904  12.792   0.720
58893SOL    HW278454  13.859  12.697   0.611
58894SOL     OW78455   1.537   6.092   1.429
58894SOL    HW178456   1.484   6.112   1.352
58894SOL    HW278457   1.485   6.125   1.503
58895SOL     OW78458   3.329  14.143   2.514
58895SOL    HW178459   3.337  14.048   2.509
58895SOL    HW278460   3.313  14.171   2.424
58896SOL     OW78461  12.103   2.859   0.897
58896SOL    HW178462  12.189   2.826   0.870
58896SOL    HW278463  12.070   2.793   0.958
58897SOL     OW78464   1.190   5.114   1.190
58897SOL    HW178465   1.200   5.065   1.108
58897SOL    HW278466   1.132   5.187   1.168
58898SOL     OW78467   5.492   8.937  12.263
58898SOL    HW178468   5.544   9.016  12.254
58898SOL    HW278469   5.490   8.900  12.174
58899SOL     OW78470   0.322  14.830  11.268
58899SOL    HW178471   0.336  14.745  11.227
58899SOL    HW278472   0.233  14.825  11.304
58900SOL     OW78473  14.851   3.128   8.665
58900SOL    HW178474   0.052   3.173   8.635
58900SOL    HW278475  14.873   3.035   8.660
58901SOL     OW78476   2.223   8.427   1.966
58901SOL    HW178477   2.168   8.498   1.932
58901SOL    HW278478   2.187   8.409   2.053
58902SOL     OW78479  14.317   1.411  10.690
58902SOL    HW178480  14.344   1.402  10.599
58902SOL    HW278481  14.399   1.421  10.738
58903SOL     OW78482   0.965   3.924   7.836
58903SOL    HW178483   0.913   3.853   7.873
58903SOL    HW278484   0.998   3.889   7.754
58904SOL     OW78485   4.501   3.705  10.488
58904SOL    HW178486   4.497   3.610  10.473
58904SOL    HW278487   4.571   3.735  10.431
58905SOL     OW78488   5.271   1.430   6.506
58905SOL    HW178489   5.240   1.512   6.544
58905SOL    HW278490   5.354   1.412   6.551
58906SOL     OW78491  12.424   1.653  10.590
58906SOL    HW178492  12.450   1.578  10.537
58906SOL    HW278493  12.424   1.727  10.528
58907SOL     OW78494  12.134   5.763  11.525
58907SOL    HW178495  12.078   5.828  11.482
58907SOL    HW278496  12.073   5.700  11.562
58908SOL     OW78497  11.242   4.863   5.322
58908SOL    HW178498  11.172   4.837   5.382
58908SOL    HW278499  11.198   4.871   5.237
58909SOL     OW78500   8.177   5.487  14.180
58909SOL    HW178501   8.128   5.427  14.125
58909SOL    HW278502   8.117   5.561  14.194
58910SOL     OW78503   3.268  11.483  12.900
58910SOL    HW178504   3.273  11.402  12.850
58910SOL    HW278505   3.348  11.530  12.878
58911SOL     OW78506   0.718   4.270   0.018
58911SOL    HW178507   0.632   4.269   0.060
58911SOL    HW278508   0.764   4.343   0.057
58912SOL     OW78509   1.413   1.132   6.361
58912SOL    HW178510   1.450   1.164   6.444
58912SOL    HW278511   1.331   1.181   6.352
58913SOL     OW78512  14.433   3.241   8.405
58913SOL    HW178513  14.471   3.294   8.475
58913SOL    HW278514  14.439   3.151   8.437
58914SOL     OW78515   2.134  12.247   7.892
58914SOL    HW178516   2.166  12.165   7.853
58914SOL    HW278517   2.198  12.312   7.866
58915SOL     OW78518  14.742   1.473   6.475
58915SOL    HW178519  14.830   1.437   6.485
58915SOL    HW278520  14.729   1.481   6.381
58916SOL     OW78521   7.289   0.819   9.121
58916SOL    HW178522   7.285   0.858   9.208
58916SOL    HW278523   7.236   0.877   9.066
58917SOL     OW78524  13.634   0.730  14.628
58917SOL    HW178525  13.703   0.668  14.605
58917SOL    HW278526  13.583   0.740  14.547
58918SOL     OW78527   9.810   7.964   3.930
58918SOL    HW178528   9.715   7.959   3.943
58918SOL    HW278529   9.838   7.874   3.914
58919SOL     OW78530   7.495   3.414  12.073
58919SOL    HW178531   7.433   3.380  12.007
58919SOL    HW278532   7.581   3.397  12.035
58920SOL     OW78533   5.650   7.986   0.794
58920SOL    HW178534   5.588   7.963   0.864
58920SOL    HW278535   5.695   8.064   0.827
58921SOL     OW78536   8.423  14.867  12.413
58921SOL    HW178537   8.504   0.031  12.444
58921SOL    HW278538   8.428  14.778  12.448
58922SOL     OW78539  13.763  14.801   5.032
58922SOL    HW178540  13.672  14.777   5.049
58922SOL    HW278541  13.811  14.765   5.107
58923SOL     OW78542  13.875  13.134   7.862
58923SOL    HW178543  13.798  13.174   7.823
58923SOL    HW278544  13.897  13.191   7.936
58924SOL     OW78545  10.705   8.557  10.590
58924SOL    HW178546  10.747   8.616  10.652
58924SOL    HW278547  10.611   8.574  10.600
58925SOL     OW78548   3.806   1.735  12.013
58925SOL    HW178549   3.840   1.817  11.978
58925SOL    HW278550   3.879   1.673  12.006
58926SOL     OW78551   6.935   3.248  10.685
58926SOL    HW178552   7.021   3.288  10.699
58926SOL    HW278553   6.908   3.219  10.772
58927SOL     OW78554  14.067   6.636   0.004
58927SOL    HW178555  13.971   6.641  14.874
58927SOL    HW278556  14.092   6.561  14.828
58928SOL     OW78557   5.292   4.500   8.933
58928SOL    HW178558   5.202   4.512   8.904
58928SOL    HW278559   5.341   4.483   8.853
58929SOL     OW78560  11.627   5.134   7.782
58929SOL    HW178561  11.677   5.211   7.753
58929SOL    HW278562  11.666   5.112   7.867
58930SOL     OW78563   5.220  14.274   6.949
58930SOL    HW178564   5.214  14.179   6.950
58930SOL    HW278565   5.242  14.296   6.859
58931SOL     OW78566   9.172   7.860   1.076
58931SOL    HW178567   9.156   7.953   1.088
58931SOL    HW278568   9.264   7.855   1.047
58932SOL     OW78569   6.064   6.121   5.643
58932SOL    HW178570   6.149   6.083   5.620
58932SOL    HW278571   6.049   6.092   5.733
58933SOL     OW78572  11.756  13.544   7.881
58933SOL    HW178573  11.686  13.560   7.944
58933SOL    HW278574  11.810  13.622   7.885
58934SOL     OW78575   7.213  10.172   5.594
58934SOL    HW178576   7.261  10.155   5.675
58934SOL    HW278577   7.273  10.146   5.524
58935SOL     OW78578  12.552   7.394   7.402
58935SOL    HW178579  12.472   7.376   7.353
58935SOL    HW278580  12.622   7.363   7.344
58936SOL     OW78581   8.209   3.978   9.444
58936SOL    HW178582   8.234   3.919   9.372
58936SOL    HW278583   8.268   4.053   9.436
58937SOL     OW78584   9.316   6.191   9.770
58937SOL    HW178585   9.359   6.106   9.765
58937SOL    HW278586   9.370   6.248   9.716
58938SOL     OW78587  10.459   3.762   1.385
58938SOL    HW178588  10.382   3.714   1.355
58938SOL    HW278589  10.490   3.712   1.461
58939SOL     OW78590   5.159  10.695   3.160
58939SOL    HW178591   5.193  10.779   3.188
58939SOL    HW278592   5.114  10.660   3.237
58940SOL     OW78593   3.785  11.056  13.557
58940SOL    HW178594   3.834  11.046  13.638
58940SOL    HW278595   3.842  11.021  13.489
58941SOL     OW78596  10.577   9.883   1.571
58941SOL    HW178597  10.590   9.942   1.645
58941SOL    HW278598  10.520   9.814   1.604
58942SOL     OW78599  14.036   2.406   3.047
58942SOL    HW178600  14.076   2.382   2.964
58942SOL    HW278601  14.103   2.458   3.092
58943SOL     OW78602   3.529   6.687   7.261
58943SOL    HW178603   3.436   6.678   7.240
58943SOL    HW278604   3.568   6.722   7.182
58944SOL     OW78605   8.282   3.629  10.594
58944SOL    HW178606   8.280   3.610  10.688
58944SOL    HW278607   8.356   3.689  10.584
58945SOL     OW78608  10.724  10.294   2.823
58945SOL    HW178609  10.720  10.212   2.873
58945SOL    HW278610  10.700  10.268   2.734
58946SOL     OW78611   1.797   6.522   8.740
58946SOL    HW178612   1.874   6.580   8.741
58946SOL    HW278613   1.732   6.570   8.688
58947SOL     OW78614   5.209   4.742   5.124
58947SOL    HW178615   5.213   4.829   5.163
58947SOL    HW278616   5.204   4.757   5.030
58948SOL     OW78617   3.809   6.124   7.535
58948SOL    HW178618   3.817   6.093   7.445
58948SOL    HW278619   3.718   6.152   7.543
58949SOL     OW78620   7.904   1.601   3.218
58949SOL    HW178621   7.857   1.552   3.285
58949SOL    HW278622   7.910   1.541   3.144
58950SOL     OW78623   5.494  13.170  11.741
58950SOL    HW178624   5.544  13.090  11.757
58950SOL    HW278625   5.557  13.229  11.699
58951SOL     OW78626  11.411  10.729  10.488
58951SOL    HW178627  11.498  10.734  10.448
58951SOL    HW278628  11.379  10.642  10.463
58952SOL     OW78629   7.179  11.873   2.874
58952SOL    HW178630   7.217  11.789   2.846
58952SOL    HW278631   7.147  11.856   2.963
58953SOL     OW78632   7.801  12.157  13.166
58953SOL    HW178633   7.798  12.084  13.227
58953SOL    HW278634   7.858  12.127  13.095
58954SOL     OW78635   1.001  11.561   2.195
58954SOL    HW178636   0.908  11.585   2.201
58954SOL    HW278637   1.047  11.635   2.234
58955SOL     OW78638   6.695  13.533   7.972
58955SOL    HW178639   6.778  13.485   7.972
58955SOL    HW278640   6.716  13.617   7.932
58956SOL     OW78641  10.146  12.976  11.305
58956SOL    HW178642  10.224  13.030  11.294
58956SOL    HW278643  10.073  13.036  11.290
58957SOL     OW78644   0.498   5.499   3.101
58957SOL    HW178645   0.544   5.474   3.182
58957SOL    HW278646   0.499   5.594   3.101
58958SOL     OW78647   4.538  13.016   4.100
58958SOL    HW178648   4.476  13.085   4.077
58958SOL    HW278649   4.624  13.054   4.083
58959SOL     OW78650   9.810   7.359   6.109
58959SOL    HW178651   9.716   7.343   6.110
58959SOL    HW278652   9.824   7.418   6.184
58960SOL     OW78653   1.469  13.147  11.156
58960SOL    HW178654   1.496  13.091  11.229
58960SOL    HW278655   1.502  13.102  11.078
58961SOL     OW78656   9.345  14.547   9.630
58961SOL    HW178657   9.360  14.513   9.718
58961SOL    HW278658   9.402  14.494   9.574
58962SOL     OW78659  10.157   9.935  13.921
58962SOL    HW178660  10.149   9.945  14.015
58962SOL    HW278661  10.236   9.984  13.897
58963SOL     OW78662   5.456   5.359   8.247
58963SOL    HW178663   5.380   5.319   8.290
58963SOL    HW278664   5.445   5.338   8.154
58964SOL     OW78665  10.740   7.342   9.681
58964SOL    HW178666  10.656   7.352   9.635
58964SOL    HW278667  10.753   7.247   9.687
58965SOL     OW78668   2.978   4.180   6.534
58965SOL    HW178669   3.054   4.127   6.509
58965SOL    HW278670   2.949   4.220   6.451
58966SOL     OW78671  13.524   8.918   6.964
58966SOL    HW178672  13.535   8.923   6.869
58966SOL    HW278673  13.572   8.995   6.997
58967SOL     OW78674   3.321   4.459   2.818
58967SOL    HW178675   3.399   4.450   2.871
58967SOL    HW278676   3.302   4.370   2.787
58968SOL     OW78677   7.099  13.999   5.653
58968SOL    HW178678   7.118  13.988   5.746
58968SOL    HW278679   7.101  13.910   5.617
58969SOL     OW78680   1.137   8.168   1.623
58969SOL    HW178681   1.073   8.101   1.649
58969SOL    HW278682   1.099   8.250   1.656
58970SOL     OW78683   9.794   6.902  10.869
58970SOL    HW178684   9.736   6.828  10.851
58970SOL    HW278685   9.812   6.940  10.784
58971SOL     OW78686  11.790   9.786   5.822
58971SOL    HW178687  11.849   9.764   5.749
58971SOL    HW278688  11.849   9.801   5.896
58972SOL     OW78689  11.907   0.622  11.313
58972SOL    HW178690  11.819   0.603  11.346
58972SOL    HW278691  11.960   0.547  11.341
58973SOL     OW78692   8.641  12.384  10.555
58973SOL    HW178693   8.735  12.389  10.573
58973SOL    HW278694   8.599  12.410  10.637
58974SOL     OW78695   9.824   2.328  10.774
58974SOL    HW178696   9.862   2.301  10.690
58974SOL    HW278697   9.801   2.420  10.762
58975SOL     OW78698   9.909   3.405  14.731
58975SOL    HW178699   9.985   3.464  14.725
58975SOL    HW278700   9.908   3.359  14.647
58976SOL     OW78701   1.270   7.635   6.250
58976SOL    HW178702   1.196   7.581   6.223
58976SOL    HW278703   1.237   7.685   6.324
58977SOL     OW78704   7.153  14.797   3.443
58977SOL    HW178705   7.246  14.816   3.449
58977SOL    HW278706   7.110   0.003   3.459
58978SOL     OW78707   1.740   4.023  10.768
58978SOL    HW178708   1.688   4.045  10.845
58978SOL    HW278709   1.817   3.978  10.803
58979SOL     OW78710  14.144   6.326   2.762
58979SOL    HW178711  14.085   6.255   2.785
58979SOL    HW278712  14.110   6.402   2.810
58980SOL     OW78713   6.240   0.061  14.049
58980SOL    HW178714   6.284   0.070  13.964
58980SOL    HW278715   6.210  14.848  14.050
58981SOL     OW78716   9.902  13.166   4.567
58981SOL    HW178717   9.894  13.097   4.502
58981SOL    HW278718   9.991  13.155   4.601
58982SOL     OW78719  11.336   3.599   4.689
58982SOL    HW178720  11.253   3.624   4.648
58982SOL    HW278721  11.403   3.631   4.629
58983SOL     OW78722   0.211   2.268   4.716
58983SOL    HW178723   0.276   2.199   4.726
58983SOL    HW278724   0.136   2.224   4.675
58984SOL     OW78725   0.259   1.864  10.203
58984SOL    HW178726   0.259   1.878  10.108
58984SOL    HW278727   0.183   1.914  10.235
58985SOL     OW78728   0.667  14.292  13.508
58985SOL    HW178729   0.679  14.346  13.430
58985SOL    HW278730   0.756  14.272  13.538
58986SOL     OW78731   0.299   3.849   3.818
58986SOL    HW178732   0.289   3.844   3.913
58986SOL    HW278733   0.239   3.783   3.783
58987SOL     OW78734   2.502   1.862   1.354
58987SOL    HW178735   2.439   1.869   1.425
58987SOL    HW278736   2.490   1.943   1.303
58988SOL     OW78737   6.244   3.321  12.349
58988SOL    HW178738   6.286   3.407  12.358
58988SOL    HW278739   6.292   3.264  12.409
58989SOL     OW78740   4.904   6.724   4.572
58989SOL    HW178741   4.981   6.676   4.603
58989SOL    HW278742   4.935   6.773   4.496
58990SOL     OW78743  12.080   9.425   7.747
58990SOL    HW178744  12.001   9.450   7.795
58990SOL    HW278745  12.069   9.467   7.661
58991SOL     OW78746  10.603  11.131   7.267
58991SOL    HW178747  10.667  11.114   7.198
58991SOL    HW278748  10.518  11.116   7.226
58992SOL     OW78749  13.200  13.718  10.104
58992SOL    HW178750  13.128  13.744  10.048
58992SOL    HW278751  13.279  13.749  10.059
58993SOL     OW78752   6.321   5.402  14.860
58993SOL    HW178753   6.387   5.348   0.026
58993SOL    HW278754   6.362   5.488  14.852
58994SOL     OW78755   2.108   8.095   8.651
58994SOL    HW178756   2.169   8.041   8.602
58994SOL    HW278757   2.025   8.048   8.646
58995SOL     OW78758  10.793   1.668  13.173
58995SOL    HW178759  10.726   1.731  13.200
58995SOL    HW278760  10.872   1.696  13.219
58996SOL     OW78761   4.706   0.746   9.964
58996SOL    HW178762   4.752   0.829   9.977
58996SOL    HW278763   4.623   0.757  10.011
58997SOL     OW78764   8.647   0.623   4.090
58997SOL    HW178765   8.632   0.573   4.010
58997SOL    HW278766   8.562   0.624   4.133
58998SOL     OW78767  12.272   7.136  13.893
58998SOL    HW178768  12.213   7.073  13.850
58998SOL    HW278769  12.329   7.166  13.823
58999SOL     OW78770  10.605  14.387   5.111
58999SOL    HW178771  10.610  14.387   5.015
58999SOL    HW278772  10.578  14.475   5.134
59000SOL     OW78773   8.656  12.458   6.629
59000SOL    HW178774   8.659  12.379   6.682
59000SOL    HW278775   8.656  12.530   6.692
59001SOL     OW78776   3.086   6.123   7.093
59001SOL    HW178777   3.074   6.204   7.043
59001SOL    HW278778   3.161   6.142   7.150
59002SOL     OW78779   5.540   9.157  12.561
59002SOL    HW178780   5.449   9.128  12.569
59002SOL    HW278781   5.590   9.076  12.550
59003SOL     OW78782   0.815   6.099   7.207
59003SOL    HW178783   0.843   6.019   7.252
59003SOL    HW278784   0.896   6.148   7.194
59004SOL     OW78785   0.972   7.990   3.194
59004SOL    HW178786   1.015   7.910   3.165
59004SOL    HW278787   0.933   7.967   3.278
59005SOL     OW78788  10.318   4.621   3.588
59005SOL    HW178789  10.352   4.705   3.618
59005SOL    HW278790  10.395   4.567   3.575
59006SOL     OW78791   1.065   8.676   9.957
59006SOL    HW178792   1.048   8.619  10.032
59006SOL    HW278793   1.160   8.674   9.945
59007SOL     OW78794   5.524   3.849   6.857
59007SOL    HW178795   5.541   3.866   6.950
59007SOL    HW278796   5.609   3.824   6.821
59008SOL     OW78797   8.394   1.199  12.111
59008SOL    HW178798   8.395   1.243  12.196
59008SOL    HW278799   8.409   1.107  12.130
59009SOL     OW78800   6.712  14.314  11.008
59009SOL    HW178801   6.719  14.323  10.913
59009SOL    HW278802   6.649  14.381  11.034
59010SOL     OW78803  12.855   9.105   5.420
59010SOL    HW178804  12.813   9.134   5.500
59010SOL    HW278805  12.829   9.169   5.354
59011SOL     OW78806   2.194   9.067   8.908
59011SOL    HW178807   2.275   9.086   8.861
59011SOL    HW278808   2.135   9.139   8.885
59012SOL     OW78809  12.034  14.761   7.252
59012SOL    HW178810  11.960  14.763   7.192
59012SOL    HW278811  12.031  14.847   7.295
59013SOL     OW78812   4.293   1.349  11.100
59013SOL    HW178813   4.370   1.296  11.078
59013SOL    HW278814   4.246   1.357  11.017
59014SOL     OW78815   3.893   4.760   6.790
59014SOL    HW178816   3.835   4.763   6.865
59014SOL    HW278817   3.940   4.843   6.792
59015SOL     OW78818  10.311  11.820  12.179
59015SOL    HW178819  10.281  11.898  12.133
59015SOL    HW278820  10.303  11.749  12.115
59016SOL     OW78821   8.301   0.773   8.320
59016SOL    HW178822   8.333   0.705   8.379
59016SOL    HW278823   8.290   0.850   8.375
59017SOL     OW78824  12.368   3.198   4.574
59017SOL    HW178825  12.332   3.277   4.533
59017SOL    HW278826  12.292   3.152   4.609
59018SOL     OW78827  12.076  14.251   8.802
59018SOL    HW178828  12.060  14.202   8.721
59018SOL    HW278829  12.115  14.333   8.772
59019SOL     OW78830   4.598   3.215   3.853
59019SOL    HW178831   4.603   3.300   3.896
59019SOL    HW278832   4.535   3.164   3.905
59020SOL     OW78833   8.095   6.787   5.129
59020SOL    HW178834   8.035   6.843   5.080
59020SOL    HW278835   8.179   6.797   5.084
59021SOL     OW78836  11.126   1.791   7.388
59021SOL    HW178837  11.197   1.790   7.452
59021SOL    HW278838  11.086   1.704   7.395
59022SOL     OW78839   9.300   0.454   5.232
59022SOL    HW178840   9.351   0.529   5.263
59022SOL    HW278841   9.266   0.413   5.312
59023SOL     OW78842  10.203   3.888  10.344
59023SOL    HW178843  10.170   3.941  10.417
59023SOL    HW278844  10.167   3.801  10.360
59024SOL     OW78845  12.750   6.740  11.807
59024SOL    HW178846  12.787   6.719  11.721
59024SOL    HW278847  12.695   6.817  11.791
59025SOL     OW78848   1.247   5.344   0.760
59025SOL    HW178849   1.282   5.280   0.823
59025SOL    HW278850   1.152   5.342   0.774
59026SOL     OW78851   7.308   2.657  13.820
59026SOL    HW178852   7.267   2.744  13.818
59026SOL    HW278853   7.287   2.623  13.907
59027SOL     OW78854   2.202   6.555   2.484
59027SOL    HW178855   2.221   6.643   2.450
59027SOL    HW278856   2.110   6.559   2.510
59028SOL     OW78857   8.425   1.785  12.115
59028SOL    HW178858   8.348   1.842  12.121
59028SOL    HW278859   8.396   1.702  12.154
59029SOL     OW78860   4.201   9.127  11.359
59029SOL    HW178861   4.148   9.115  11.438
59029SOL    HW278862   4.140   9.110  11.287
59030SOL     OW78863   4.117   9.540   4.932
59030SOL    HW178864   4.158   9.606   4.876
59030SOL    HW278865   4.094   9.469   4.873
59031SOL     OW78866  12.906   3.508  11.996
59031SOL    HW178867  12.875   3.541  12.080
59031SOL    HW278868  12.848   3.436  11.975
59032SOL     OW78869   4.689  14.625   7.166
59032SOL    HW178870   4.656  14.649   7.080
59032SOL    HW278871   4.783  14.642   7.161
59033SOL     OW78872  13.616  14.691   9.110
59033SOL    HW178873  13.537  14.646   9.140
59033SOL    HW278874  13.688  14.636   9.140
59034SOL     OW78875   5.666  13.866   3.877
59034SOL    HW178876   5.726  13.889   3.948
59034SOL    HW278877   5.601  13.809   3.918
59035SOL     OW78878   4.636   3.428   3.192
59035SOL    HW178879   4.679   3.512   3.180
59035SOL    HW278880   4.689   3.383   3.258
59036SOL     OW78881  12.850   9.862   2.131
59036SOL    HW178882  12.777   9.817   2.089
59036SOL    HW278883  12.908   9.792   2.162
59037SOL     OW78884   6.397   9.695   3.419
59037SOL    HW178885   6.368   9.730   3.504
59037SOL    HW278886   6.344   9.617   3.406
59038SOL     OW78887  13.478   2.958  11.120
59038SOL    HW178888  13.394   2.915  11.138
59038SOL    HW278889  13.477   3.036  11.176
59039SOL     OW78890   6.656  11.606   7.776
59039SOL    HW178891   6.646  11.597   7.871
59039SOL    HW278892   6.744  11.572   7.758
59040SOL     OW78893  10.668   1.279   1.744
59040SOL    HW178894  10.581   1.253   1.774
59040SOL    HW278895  10.700   1.204   1.693
59041SOL     OW78896  11.624  12.292   2.059
59041SOL    HW178897  11.598  12.330   2.143
59041SOL    HW278898  11.692  12.229   2.082
59042SOL     OW78899   1.168   7.346   8.771
59042SOL    HW178900   1.194   7.263   8.811
59042SOL    HW278901   1.099   7.380   8.828
59043SOL     OW78902   2.793   5.243   5.396
59043SOL    HW178903   2.857   5.229   5.326
59043SOL    HW278904   2.717   5.282   5.352
59044SOL     OW78905  12.004   6.088  11.207
59044SOL    HW178906  12.092   6.053  11.196
59044SOL    HW278907  11.982   6.125  11.121
59045SOL     OW78908  12.357   6.450   5.609
59045SOL    HW178909  12.354   6.542   5.581
59045SOL    HW278910  12.450   6.429   5.611
59046SOL     OW78911  12.883  11.069   7.923
59046SOL    HW178912  12.967  11.116   7.919
59046SOL    HW278913  12.830  11.121   7.983
59047SOL     OW78914  10.197   8.646   4.473
59047SOL    HW178915  10.102   8.629   4.475
59047SOL    HW278916  10.213   8.683   4.386
59048SOL     OW78917   3.542   3.854   5.363
59048SOL    HW178918   3.620   3.803   5.342
59048SOL    HW278919   3.485   3.793   5.408
59049SOL     OW78920   6.916   6.504   5.325
59049SOL    HW178921   6.853   6.559   5.372
59049SOL    HW278922   6.988   6.491   5.388
59050SOL     OW78923   0.355   1.326   4.181
59050SOL    HW178924   0.422   1.270   4.219
59050SOL    HW278925   0.390   1.415   4.188
59051SOL     OW78926   2.985   9.478   6.985
59051SOL    HW178927   2.947   9.476   7.073
59051SOL    HW278928   3.025   9.391   6.974
59052SOL     OW78929  13.604  10.013   1.097
59052SOL    HW178930  13.612   9.935   1.152
59052SOL    HW278931  13.686  10.015   1.048
59053SOL     OW78932   5.449  10.334   7.820
59053SOL    HW178933   5.371  10.348   7.875
59053SOL    HW278934   5.448  10.407   7.758
59054SOL     OW78935  14.709  12.553   5.786
59054SOL    HW178936  14.755  12.469   5.784
59054SOL    HW278937  14.780  12.618   5.787
59055SOL     OW78938   7.579  12.370  11.538
59055SOL    HW178939   7.515  12.419  11.590
59055SOL    HW278940   7.607  12.299  11.595
59056SOL     OW78941  13.168   8.826  11.303
59056SOL    HW178942  13.164   8.864  11.391
59056SOL    HW278943  13.256   8.790  11.296
59057SOL     OW78944  12.760   3.752   8.481
59057SOL    HW178945  12.781   3.661   8.460
59057SOL    HW278946  12.671   3.764   8.447
59058SOL     OW78947   2.950   6.195   1.129
59058SOL    HW178948   2.985   6.123   1.181
59058SOL    HW278949   2.912   6.152   1.052
59059SOL     OW78950  11.416   3.848  14.331
59059SOL    HW178951  11.488   3.787  14.348
59059SOL    HW278952  11.381   3.869  14.418
59060SOL     OW78953   3.298  14.639   5.622
59060SOL    HW178954   3.353  14.716   5.609
59060SOL    HW278955   3.341  14.592   5.694
59061SOL     OW78956   7.397   1.657   9.196
59061SOL    HW178957   7.409   1.741   9.240
59061SOL    HW278958   7.378   1.680   9.105
59062SOL     OW78959  13.843   6.896   6.310
59062SOL    HW178960  13.791   6.972   6.339
59062SOL    HW278961  13.798   6.821   6.349
59063SOL     OW78962   4.064  12.733  14.414
59063SOL    HW178963   4.127  12.742  14.485
59063SOL    HW278964   4.104  12.669  14.355
59064SOL     OW78965  10.687   0.109   4.559
59064SOL    HW178966  10.717   0.191   4.597
59064SOL    HW278967  10.759   0.048   4.573
59065SOL     OW78968  13.084   7.490  12.248
59065SOL    HW178969  13.006   7.543  12.234
59065SOL    HW278970  13.055   7.417  12.302
59066SOL     OW78971  14.242   9.188   4.449
59066SOL    HW178972  14.165   9.231   4.487
59066SOL    HW278973  14.265   9.119   4.512
59067SOL     OW78974   9.135   5.036   6.476
59067SOL    HW178975   9.054   5.074   6.443
59067SOL    HW278976   9.135   5.057   6.569
59068SOL     OW78977  14.237   4.080  10.462
59068SOL    HW178978  14.296   4.152  10.443
59068SOL    HW278979  14.183   4.070  10.383
59069SOL     OW78980   9.363   6.168   2.065
59069SOL    HW178981   9.336   6.162   1.973
59069SOL    HW278982   9.401   6.082   2.084
59070SOL     OW78983   4.974   8.613   8.238
59070SOL    HW178984   5.018   8.698   8.237
59070SOL    HW278985   4.893   8.627   8.190
59071SOL     OW78986   6.141  12.574   8.239
59071SOL    HW178987   6.145  12.653   8.293
59071SOL    HW278988   6.100  12.603   8.157
59072SOL     OW78989   4.742   8.740   9.531
59072SOL    HW178990   4.835   8.730   9.549
59072SOL    HW278991   4.720   8.827   9.565
59073SOL     OW78992   2.766   7.684   4.623
59073SOL    HW178993   2.740   7.722   4.539
59073SOL    HW278994   2.858   7.706   4.632
59074SOL     OW78995   8.574   5.419   4.375
59074SOL    HW178996   8.638   5.373   4.320
59074SOL    HW278997   8.593   5.511   4.361
59075SOL     OW78998   9.791   1.031   4.674
59075SOL    HW178999   9.831   0.944   4.668
59075SOL    HW279000   9.698   1.016   4.655
59076SOL     OW79001  10.356   3.871   4.227
59076SOL    HW179002  10.275   3.892   4.180
59076SOL    HW279003  10.330   3.874   4.320
59077SOL     OW79004  13.954   1.359   5.359
59077SOL    HW179005  13.913   1.435   5.401
59077SOL    HW279006  13.910   1.284   5.398
59078SOL     OW79007   1.821   0.096   0.587
59078SOL    HW179008   1.768   0.175   0.603
59078SOL    HW279009   1.898   0.108   0.642
59079SOL     OW79010   8.125   5.200   1.370
59079SOL    HW179011   8.203   5.196   1.425
59079SOL    HW279012   8.085   5.113   1.379
59080SOL     OW79013   8.186  11.425   4.451
59080SOL    HW179014   8.192  11.354   4.387
59080SOL    HW279015   8.275  11.462   4.452
59081SOL     OW79016   7.636   1.749  10.292
59081SOL    HW179017   7.689   1.826  10.314
59081SOL    HW279018   7.549   1.784  10.275
59082SOL     OW79019   6.295   5.409   3.508
59082SOL    HW179020   6.270   5.326   3.468
59082SOL    HW279021   6.390   5.401   3.520
59083SOL     OW79022   5.078   8.017   7.378
59083SOL    HW179023   5.056   7.924   7.375
59083SOL    HW279024   5.162   8.023   7.332
59084SOL     OW79025   1.418  13.286   0.930
59084SOL    HW179026   1.466  13.282   0.847
59084SOL    HW279027   1.414  13.380   0.951
59085SOL     OW79028   8.082  10.618  13.482
59085SOL    HW179029   8.129  10.571  13.412
59085SOL    HW279030   8.089  10.560  13.558
59086SOL     OW79031   8.443   8.665  10.445
59086SOL    HW179032   8.416   8.734  10.385
59086SOL    HW279033   8.528   8.637  10.412
59087SOL     OW79034   5.428  11.600   9.097
59087SOL    HW179035   5.362  11.561   9.153
59087SOL    HW279036   5.382  11.672   9.053
59088SOL     OW79037  13.865   5.822  10.733
59088SOL    HW179038  13.847   5.733  10.702
59088SOL    HW279039  13.865   5.876  10.654
59089SOL     OW79040   7.505   7.839   0.461
59089SOL    HW179041   7.473   7.892   0.388
59089SOL    HW279042   7.529   7.902   0.528
59090SOL     OW79043  13.143   6.674   0.563
59090SOL    HW179044  13.235   6.692   0.543
59090SOL    HW279045  13.105   6.646   0.479
59091SOL     OW79046   1.109  12.473   7.088
59091SOL    HW179047   1.048  12.520   7.031
59091SOL    HW279048   1.097  12.381   7.064
59092SOL     OW79049   5.844   8.979   0.293
59092SOL    HW179050   5.904   8.931   0.351
59092SOL    HW279051   5.872   9.070   0.301
59093SOL     OW79052   6.612   6.971  11.625
59093SOL    HW179053   6.615   7.009  11.713
59093SOL    HW279054   6.652   6.885  11.634
59094SOL     OW79055  14.505  12.064   6.043
59094SOL    HW179056  14.493  12.123   5.969
59094SOL    HW279057  14.416  12.047   6.074
59095SOL     OW79058   1.645  13.091   1.190
59095SOL    HW179059   1.722  13.054   1.234
59095SOL    HW279060   1.628  13.173   1.236
59096SOL     OW79061   3.925   2.423   9.573
59096SOL    HW179062   3.900   2.512   9.551
59096SOL    HW279063   3.966   2.430   9.659
59097SOL     OW79064   2.263   3.129   8.490
59097SOL    HW179065   2.322   3.195   8.453
59097SOL    HW279066   2.180   3.143   8.445
59098SOL     OW79067   7.376  11.036   5.942
59098SOL    HW179068   7.283  11.045   5.921
59098SOL    HW279069   7.422  11.055   5.860
59099SOL     OW79070   9.683   9.107   7.962
59099SOL    HW179071   9.724   9.085   7.878
59099SOL    HW279072   9.721   9.045   8.024
59100SOL     OW79073  14.187  11.601  11.758
59100SOL    HW179074  14.142  11.686  11.764
59100SOL    HW279075  14.270  11.621  11.716
59101SOL     OW79076   4.481   2.301   8.959
59101SOL    HW179077   4.426   2.269   8.888
59101SOL    HW279078   4.520   2.382   8.925
59102SOL     OW79079   0.299   1.632   8.866
59102SOL    HW179080   0.390   1.661   8.872
59102SOL    HW279081   0.279   1.599   8.953
59103SOL     OW79082  11.226  10.404  14.414
59103SOL    HW179083  11.258  10.479  14.464
59103SOL    HW279084  11.224  10.434  14.323
59104SOL     OW79085   7.259  11.509   4.844
59104SOL    HW179086   7.179  11.561   4.843
59104SOL    HW279087   7.317  11.552   4.781
59105SOL     OW79088   7.585   1.759   7.450
59105SOL    HW179089   7.606   1.795   7.364
59105SOL    HW279090   7.666   1.768   7.500
59106SOL     OW79091   0.021   4.925   7.878
59106SOL    HW179092   0.082   4.854   7.856
59106SOL    HW279093   0.004   4.968   7.794
59107SOL     OW79094   5.520   6.977   0.956
59107SOL    HW179095   5.602   7.023   0.936
59107SOL    HW279096   5.511   6.914   0.884
59108SOL     OW79097   7.489   2.283   0.371
59108SOL    HW179098   7.511   2.375   0.358
59108SOL    HW279099   7.441   2.259   0.292
59109SOL     OW79100  11.723   0.410  10.784
59109SOL    HW179101  11.703   0.370  10.699
59109SOL    HW279102  11.648   0.468  10.801
59110SOL     OW79103  13.981   0.509  11.626
59110SOL    HW179104  14.029   0.558  11.694
59110SOL    HW279105  13.902   0.477  11.671
59111SOL     OW79106  13.831  12.870  12.730
59111SOL    HW179107  13.902  12.921  12.692
59111SOL    HW279108  13.758  12.881  12.669
59112SOL     OW79109  14.831   6.306   6.998
59112SOL    HW179110  14.799   6.355   6.922
59112SOL    HW279111  14.813   6.364   7.073
59113SOL     OW79112  13.808  13.889  10.571
59113SOL    HW179113  13.731  13.832  10.567
59113SOL    HW279114  13.853  13.875  10.488
59114SOL     OW79115   6.497   1.748  10.892
59114SOL    HW179116   6.412   1.708  10.911
59114SOL    HW279117   6.504   1.819  10.956
59115SOL     OW79118   3.006   3.589   0.562
59115SOL    HW179119   2.996   3.519   0.498
59115SOL    HW279120   3.101   3.600   0.571
59116SOL     OW79121   4.935  10.246   0.146
59116SOL    HW179122   4.960  10.161   0.183
59116SOL    HW279123   4.989  10.310   0.192
59117SOL     OW79124   1.837   7.839  13.294
59117SOL    HW179125   1.927   7.861  13.274
59117SOL    HW279126   1.842   7.754  13.337
59118SOL     OW79127   9.736  10.103   8.345
59118SOL    HW179128   9.825  10.069   8.357
59118SOL    HW279129   9.723  10.102   8.250
59119SOL     OW79130   2.650   8.699   3.987
59119SOL    HW179131   2.718   8.632   3.981
59119SOL    HW279132   2.580   8.659   4.039
59120SOL     OW79133   5.519   1.822   7.632
59120SOL    HW179134   5.455   1.770   7.681
59120SOL    HW279135   5.602   1.777   7.646
59121SOL     OW79136   9.448   1.886   8.494
59121SOL    HW179137   9.398   1.863   8.416
59121SOL    HW279138   9.418   1.824   8.561
59122SOL     OW79139   2.409   1.866   4.643
59122SOL    HW179140   2.385   1.804   4.712
59122SOL    HW279141   2.329   1.916   4.627
59123SOL     OW79142  11.775   2.909   0.957
59123SOL    HW179143  11.744   2.859   0.881
59123SOL    HW279144  11.779   2.999   0.926
59124SOL     OW79145   5.529   5.337   7.672
59124SOL    HW179146   5.579   5.260   7.698
59124SOL    HW279147   5.582   5.411   7.701
59125SOL     OW79148   7.030  10.498   3.894
59125SOL    HW179149   7.013  10.591   3.905
59125SOL    HW279150   7.093  10.476   3.962
59126SOL     OW79151   4.873   3.043   5.813
59126SOL    HW179152   4.868   2.950   5.833
59126SOL    HW279153   4.940   3.050   5.745
59127SOL     OW79154  11.924  11.307   1.302
59127SOL    HW179155  11.855  11.346   1.356
59127SOL    HW279156  11.879  11.241   1.249
59128SOL     OW79157  12.813  11.332   5.496
59128SOL    HW179158  12.758  11.289   5.561
59128SOL    HW279159  12.848  11.409   5.540
59129SOL     OW79160   0.503   7.443   7.124
59129SOL    HW179161   0.504   7.431   7.029
59129SOL    HW279162   0.596   7.446   7.148
59130SOL     OW79163   6.896  12.092  11.066
59130SOL    HW179164   6.854  12.124  10.986
59130SOL    HW279165   6.837  12.025  11.100
59131SOL     OW79166   4.322   0.480   1.603
59131SOL    HW179167   4.346   0.451   1.692
59131SOL    HW279168   4.293   0.400   1.559
59132SOL     OW79169  11.032   1.643   1.206
59132SOL    HW179170  10.948   1.685   1.225
59132SOL    HW279171  11.098   1.702   1.243
59133SOL     OW79172   6.317   0.370  12.117
59133SOL    HW179173   6.334   0.349  12.208
59133SOL    HW279174   6.378   0.315  12.068
59134SOL     OW79175  10.464   3.331   9.179
59134SOL    HW179176  10.543   3.323   9.126
59134SOL    HW279177  10.488   3.294   9.264
59135SOL     OW79178   2.415   8.029  14.408
59135SOL    HW179179   2.478   8.085  14.452
59135SOL    HW279180   2.332   8.044  14.453
59136SOL     OW79181  12.092   8.334  11.371
59136SOL    HW179182  12.050   8.360  11.452
59136SOL    HW279183  12.107   8.240  11.381
59137SOL     OW79184   5.214   9.240   6.915
59137SOL    HW179185   5.230   9.166   6.856
59137SOL    HW279186   5.164   9.202   6.987
59138SOL     OW79187  10.719   4.585   4.591
59138SOL    HW179188  10.779   4.580   4.517
59138SOL    HW279189  10.772   4.564   4.668
59139SOL     OW79190   0.189   3.544  12.716
59139SOL    HW179191   0.130   3.561  12.642
59139SOL    HW279192   0.136   3.492  12.777
59140SOL     OW79193   1.516  10.220   9.314
59140SOL    HW179194   1.551  10.248   9.399
59140SOL    HW279195   1.480  10.300   9.275
59141SOL     OW79196  14.659   6.010   6.099
59141SOL    HW179197  14.564   6.002   6.102
59141SOL    HW279198  14.681   5.992   6.007
59142SOL     OW79199  13.568   7.401  13.724
59142SOL    HW179200  13.529   7.444  13.800
59142SOL    HW279201  13.663   7.409  13.738
59143SOL     OW79202   9.036   7.527  10.981
59143SOL    HW179203   9.111   7.587  10.974
59143SOL    HW279204   9.060   7.452  10.928
59144SOL     OW79205   6.690  12.548  12.733
59144SOL    HW179206   6.755  12.490  12.695
59144SOL    HW279207   6.665  12.506  12.816
59145SOL     OW79208   2.585  13.520   9.623
59145SOL    HW179209   2.513  13.470   9.584
59145SOL    HW279210   2.645  13.535   9.551
59146SOL     OW79211   7.123   5.259   2.535
59146SOL    HW179212   7.119   5.322   2.463
59146SOL    HW279213   7.134   5.314   2.613
59147SOL     OW79214   4.972   5.427   5.067
59147SOL    HW179215   4.893   5.403   5.115
59147SOL    HW279216   5.022   5.480   5.130
59148SOL     OW79217   3.229  12.704   6.955
59148SOL    HW179218   3.302  12.677   7.011
59148SOL    HW279219   3.182  12.623   6.935
59149SOL     OW79220   8.282   4.218   7.888
59149SOL    HW179221   8.361   4.168   7.870
59149SOL    HW279222   8.266   4.267   7.807
59150SOL     OW79223   2.701   8.731   5.242
59150SOL    HW179224   2.789   8.757   5.267
59150SOL    HW279225   2.692   8.641   5.273
59151SOL     OW79226   9.614  12.907   5.408
59151SOL    HW179227   9.676  12.895   5.336
59151SOL    HW279228   9.669  12.921   5.485
59152SOL     OW79229  10.695  12.957  14.133
59152SOL    HW179230  10.680  13.025  14.068
59152SOL    HW279231  10.726  13.003  14.210
59153SOL     OW79232  11.545  13.871  12.543
59153SOL    HW179233  11.518  13.785  12.576
59153SOL    HW279234  11.587  13.852  12.459
59154SOL     OW79235   9.825  11.866  12.402
59154SOL    HW179236   9.908  11.836  12.366
59154SOL    HW279237   9.815  11.815  12.483
59155SOL     OW79238  10.439   9.563  13.400
59155SOL    HW179239  10.448   9.658  13.391
59155SOL    HW279240  10.508   9.528  13.344
59156SOL     OW79241  13.247   1.922  14.263
59156SOL    HW179242  13.248   1.976  14.342
59156SOL    HW279243  13.304   1.848  14.285
59157SOL     OW79244   4.452   6.565  10.070
59157SOL    HW179245   4.401   6.534   9.995
59157SOL    HW279246   4.468   6.487  10.123
59158SOL     OW79247   2.740   1.109  11.321
59158SOL    HW179248   2.718   1.136  11.232
59158SOL    HW279249   2.682   1.035  11.339
59159SOL     OW79250  12.853   1.515  13.158
59159SOL    HW179251  12.832   1.505  13.250
59159SOL    HW279252  12.837   1.608  13.140
59160SOL     OW79253   7.506   5.433  10.732
59160SOL    HW179254   7.551   5.417  10.649
59160SOL    HW279255   7.477   5.524  10.727
59161SOL     OW79256   6.767   2.011   7.400
59161SOL    HW179257   6.797   2.068   7.470
59161SOL    HW279258   6.698   1.958   7.440
59162SOL     OW79259  14.258   1.838   2.810
59162SOL    HW179260  14.296   1.785   2.740
59162SOL    HW279261  14.276   1.789   2.890
59163SOL     OW79262  12.409  11.410   3.653
59163SOL    HW179263  12.379  11.438   3.739
59163SOL    HW279264  12.474  11.343   3.671
59164SOL     OW79265  12.694  13.870   6.090
59164SOL    HW179266  12.670  13.780   6.110
59164SOL    HW279267  12.625  13.899   6.030
59165SOL     OW79268  10.915   2.774   1.777
59165SOL    HW179269  11.001   2.752   1.739
59165SOL    HW279270  10.921   2.746   1.868
59166SOL     OW79271   6.987   1.477   5.520
59166SOL    HW179272   6.963   1.387   5.541
59166SOL    HW279273   6.903   1.524   5.520
59167SOL     OW79274   0.617   9.896   1.348
59167SOL    HW179275   0.678   9.926   1.415
59167SOL    HW279276   0.556   9.839   1.395
59168SOL     OW79277   1.365   0.847  11.325
59168SOL    HW179278   1.345   0.934  11.360
59168SOL    HW279279   1.438   0.816  11.379
59169SOL     OW79280   9.606  12.620   8.504
59169SOL    HW179281   9.700  12.616   8.524
59169SOL    HW279282   9.600  12.677   8.428
59170SOL     OW79283  12.744  14.331  11.393
59170SOL    HW179284  12.774  14.300  11.479
59170SOL    HW279285  12.819  14.318  11.335
59171SOL     OW79286   2.173   3.018  10.119
59171SOL    HW179287   2.108   2.988  10.055
59171SOL    HW279288   2.133   3.094  10.161
59172SOL     OW79289  14.000   0.325   9.258
59172SOL    HW179290  13.910   0.304   9.282
59172SOL    HW279291  14.021   0.404   9.310
59173SOL     OW79292  12.297  10.775  12.470
59173SOL    HW179293  12.288  10.866  12.496
59173SOL    HW279294  12.210  10.750  12.438
59174SOL     OW79295   7.129   8.210  10.234
59174SOL    HW179296   7.169   8.286  10.277
59174SOL    HW279297   7.201   8.167  10.188
59175SOL     OW79298  12.692  11.676   1.959
59175SOL    HW179299  12.758  11.618   1.998
59175SOL    HW279300  12.736  11.760   1.951
59176SOL     OW79301  10.598   8.688   0.806
59176SOL    HW179302  10.586   8.614   0.747
59176SOL    HW279303  10.550   8.760   0.765
59177SOL     OW79304   6.974   3.007   1.072
59177SOL    HW179305   7.008   3.092   1.046
59177SOL    HW279306   6.956   3.016   1.166
59178SOL     OW79307   3.074   1.523   7.426
59178SOL    HW179308   3.144   1.550   7.367
59178SOL    HW279309   3.081   1.427   7.429
59179SOL     OW79310   2.806   0.908  10.255
59179SOL    HW179311   2.847   0.990  10.227
59179SOL    HW279312   2.717   0.934  10.279
59180SOL     OW79313   7.568   5.551  10.128
59180SOL    HW179314   7.489   5.498  10.135
59180SOL    HW279315   7.576   5.595  10.213
59181SOL     OW79316  13.648  14.815   4.793
59181SOL    HW179317  13.679   0.027   4.780
59181SOL    HW279318  13.702  14.781   4.864
59182SOL     OW79319   0.406   6.824   7.712
59182SOL    HW179320   0.365   6.856   7.632
59182SOL    HW279321   0.489   6.871   7.718
59183SOL     OW79322   2.057  10.606   2.790
59183SOL    HW179323   2.080  10.680   2.734
59183SOL    HW279324   2.093  10.529   2.746
59184SOL     OW79325  11.027  10.027  12.669
59184SOL    HW179326  11.105   9.990  12.712
59184SOL    HW279327  11.051  10.118  12.651
59185SOL     OW79328   9.370   1.593   4.506
59185SOL    HW179329   9.298   1.583   4.443
59185SOL    HW279330   9.339   1.548   4.585
59186SOL     OW79331   4.280  11.201  12.809
59186SOL    HW179332   4.192  11.173  12.832
59186SOL    HW279333   4.293  11.283  12.857
59187SOL     OW79334   2.743   4.755  14.532
59187SOL    HW179335   2.759   4.683  14.471
59187SOL    HW279336   2.678   4.720  14.594
59188SOL     OW79337   1.587   3.200   6.400
59188SOL    HW179338   1.606   3.239   6.315
59188SOL    HW279339   1.660   3.141   6.417
59189SOL     OW79340  14.843  13.520  12.922
59189SOL    HW179341  14.755  13.492  12.947
59189SOL    HW279342  14.842  13.615  12.930
59190SOL     OW79343  13.099  12.527   8.713
59190SOL    HW179344  13.067  12.614   8.687
59190SOL    HW279345  13.020  12.473   8.719
59191SOL     OW79346   7.621   5.525   9.161
59191SOL    HW179347   7.579   5.574   9.090
59191SOL    HW279348   7.592   5.569   9.241
59192SOL     OW79349   3.410  10.316   8.252
59192SOL    HW179350   3.350  10.361   8.311
59192SOL    HW279351   3.432  10.235   8.298
59193SOL     OW79352  12.148  14.386  12.772
59193SOL    HW179353  12.093  14.433  12.834
59193SOL    HW279354  12.238  14.403  12.801
59194SOL     OW79355   5.253   2.668   6.993
59194SOL    HW179356   5.160   2.660   6.970
59194SOL    HW279357   5.296   2.597   6.944
59195SOL     OW79358  11.522   5.684   9.872
59195SOL    HW179359  11.434   5.709   9.900
59195SOL    HW279360  11.510   5.655   9.781
59196SOL     OW79361   4.698   2.730   4.212
59196SOL    HW179362   4.651   2.774   4.142
59196SOL    HW279363   4.699   2.638   4.185
59197SOL     OW79364   7.315   6.739   7.237
59197SOL    HW179365   7.408   6.716   7.242
59197SOL    HW279366   7.273   6.659   7.207
59198SOL     OW79367   7.160  13.072   8.687
59198SOL    HW179368   7.176  13.043   8.777
59198SOL    HW279369   7.176  12.994   8.633
59199SOL     OW79370   7.405  11.550  11.908
59199SOL    HW179371   7.370  11.474  11.956
59199SOL    HW279372   7.354  11.624  11.940
59200SOL     OW79373   3.529   8.512  12.691
59200SOL    HW179374   3.551   8.483  12.780
59200SOL    HW279375   3.497   8.433  12.647
59201SOL     OW79376   7.331   1.720   2.406
59201SOL    HW179377   7.267   1.788   2.386
59201SOL    HW279378   7.396   1.763   2.460
59202SOL     OW79379   5.170   0.248   6.394
59202SOL    HW179380   5.169   0.176   6.331
59202SOL    HW279381   5.153   0.326   6.341
59203SOL     OW79382  10.010   5.628  12.024
59203SOL    HW179383  10.030   5.591  11.938
59203SOL    HW279384  10.095   5.631  12.069
59204SOL     OW79385   0.307   8.378  11.414
59204SOL    HW179386   0.269   8.372  11.502
59204SOL    HW279387   0.367   8.452  11.419
59205SOL     OW79388   3.463  10.075   1.345
59205SOL    HW179389   3.481  10.134   1.419
59205SOL    HW279390   3.524  10.104   1.277
59206SOL     OW79391   3.354   8.441  10.221
59206SOL    HW179392   3.309   8.360  10.197
59206SOL    HW279393   3.301   8.477  10.293
59207SOL     OW79394   2.748  13.458   0.467
59207SOL    HW179395   2.662  13.473   0.428
59207SOL    HW279396   2.753  13.522   0.538
59208SOL     OW79397   8.803  14.302   4.058
59208SOL    HW179398   8.828  14.259   4.140
59208SOL    HW279399   8.713  14.273   4.042
59209SOL     OW79400   2.352   3.386   1.101
59209SOL    HW179401   2.439   3.352   1.125
59209SOL    HW279402   2.330   3.341   1.019
59210SOL     OW79403  10.427   7.391   1.674
59210SOL    HW179404  10.447   7.346   1.592
59210SOL    HW279405  10.407   7.320   1.735
59211SOL     OW79406   0.586   6.450  10.787
59211SOL    HW179407   0.617   6.427  10.875
59211SOL    HW279408   0.491   6.453  10.795
59212SOL     OW79409   9.545  12.992   3.342
59212SOL    HW179410   9.577  13.054   3.407
59212SOL    HW279411   9.462  13.029   3.313
59213SOL     OW79412   8.791   4.751   5.374
59213SOL    HW179413   8.845   4.675   5.398
59213SOL    HW279414   8.835   4.789   5.298
59214SOL     OW79415  11.647   6.633  13.445
59214SOL    HW179416  11.675   6.665  13.359
59214SOL    HW279417  11.579   6.568  13.425
59215SOL     OW79418  13.194   3.733   7.513
59215SOL    HW179419  13.180   3.668   7.582
59215SOL    HW279420  13.115   3.786   7.512
59216SOL     OW79421   3.019  10.424   8.596
59216SOL    HW179422   2.939  10.387   8.634
59216SOL    HW279423   3.081  10.429   8.668
59217SOL     OW79424  12.603   3.710  11.240
59217SOL    HW179425  12.679   3.766  11.255
59217SOL    HW279426  12.578   3.680  11.328
59218SOL     OW79427   1.331   5.554   6.814
59218SOL    HW179428   1.419   5.590   6.828
59218SOL    HW279429   1.307   5.517   6.899
59219SOL     OW79430   5.784  12.034   9.268
59219SOL    HW179431   5.690  12.014   9.272
59219SOL    HW279432   5.824  11.969   9.326
59220SOL     OW79433   0.082   4.139   3.939
59220SOL    HW179434  14.872   4.176   3.931
59220SOL    HW279435   0.134   4.189   3.876
59221SOL     OW79436   7.613   7.207  11.498
59221SOL    HW179437   7.601   7.148  11.573
59221SOL    HW279438   7.572   7.289  11.525
59222SOL     OW79439   7.312   2.400   8.451
59222SOL    HW179440   7.224   2.433   8.469
59222SOL    HW279441   7.298   2.312   8.417
59223SOL     OW79442   8.127   8.428  11.085
59223SOL    HW179443   8.056   8.366  11.095
59223SOL    HW279444   8.148   8.426  10.991
59224SOL     OW79445  12.224   3.990   5.577
59224SOL    HW179446  12.277   3.998   5.498
59224SOL    HW279447  12.188   4.078   5.592
59225SOL     OW79448   9.654   4.189   1.221
59225SOL    HW179449   9.736   4.144   1.198
59225SOL    HW279450   9.644   4.173   1.315
59226SOL     OW79451   7.496  14.362  10.251
59226SOL    HW179452   7.521  14.454  10.244
59226SOL    HW279453   7.407  14.365  10.288
59227SOL     OW79454  11.036   6.988   7.362
59227SOL    HW179455  10.983   6.964   7.438
59227SOL    HW279456  11.125   6.995   7.395
59228SOL     OW79457  12.996   6.043  13.510
59228SOL    HW179458  13.054   5.996  13.570
59228SOL    HW279459  13.055   6.101  13.461
59229SOL     OW79460   1.907  13.534  14.785
59229SOL    HW179461   1.926  13.476  14.712
59229SOL    HW279462   1.977  13.518  14.848
59230SOL     OW79463  10.969   7.498  10.329
59230SOL    HW179464  11.040   7.527  10.272
59230SOL    HW279465  10.982   7.546  10.411
59231SOL     OW79466   6.792  11.835  13.773
59231SOL    HW179467   6.804  11.766  13.838
59231SOL    HW279468   6.818  11.794  13.690
59232SOL     OW79469   5.961   7.838   1.686
59232SOL    HW179470   5.901   7.901   1.645
59232SOL    HW279471   5.933   7.753   1.652
59233SOL     OW79472   8.556   6.373   9.725
59233SOL    HW179473   8.462   6.384   9.713
59233SOL    HW279474   8.564   6.296   9.782
59234SOL     OW79475   4.412   5.536   0.298
59234SOL    HW179476   4.415   5.572   0.387
59234SOL    HW279477   4.362   5.601   0.248
59235SOL     OW79478  12.382   0.349   8.259
59235SOL    HW179479  12.384   0.390   8.345
59235SOL    HW279480  12.289   0.346   8.236
59236SOL     OW79481   8.418   9.467   4.504
59236SOL    HW179482   8.438   9.426   4.421
59236SOL    HW279483   8.348   9.529   4.484
59237SOL     OW79484  12.917   5.259   7.988
59237SOL    HW179485  12.902   5.211   7.907
59237SOL    HW279486  12.994   5.217   8.027
59238SOL     OW79487   7.270   3.316  11.197
59238SOL    HW179488   7.337   3.375  11.233
59238SOL    HW279489   7.240   3.360  11.117
59239SOL     OW79490  13.516  11.312  12.081
59239SOL    HW179491  13.537  11.220  12.067
59239SOL    HW279492  13.426  11.321  12.051
59240SOL     OW79493   4.249   9.699   4.755
59240SOL    HW179494   4.326   9.753   4.770
59240SOL    HW279495   4.268   9.651   4.675
59241SOL     OW79496   2.394  10.566   9.846
59241SOL    HW179497   2.415  10.611   9.764
59241SOL    HW279498   2.307  10.598   9.869
59242SOL     OW79499   0.923  14.362   9.404
59242SOL    HW179500   0.909  14.361   9.498
59242SOL    HW279501   1.011  14.398   9.393
59243SOL     OW79502   2.803  13.551  12.517
59243SOL    HW179503   2.716  13.592  12.516
59243SOL    HW279504   2.787  13.463  12.552
59244SOL     OW79505   0.307  10.321   7.918
59244SOL    HW179506   0.245  10.357   7.981
59244SOL    HW279507   0.272  10.345   7.832
59245SOL     OW79508   4.089   7.834   8.917
59245SOL    HW179509   4.166   7.841   8.860
59245SOL    HW279510   4.052   7.749   8.897
59246SOL     OW79511  11.603   1.463   2.287
59246SOL    HW179512  11.594   1.515   2.367
59246SOL    HW279513  11.649   1.384   2.315
59247SOL     OW79514   9.165   6.177   2.995
59247SOL    HW179515   9.130   6.255   2.952
59247SOL    HW279516   9.170   6.201   3.088
59248SOL     OW79517   9.758   2.564   9.756
59248SOL    HW179518   9.714   2.633   9.705
59248SOL    HW279519   9.738   2.483   9.710
59249SOL     OW79520   2.502   2.393   9.692
59249SOL    HW179521   2.508   2.462   9.625
59249SOL    HW279522   2.503   2.440   9.775
59250SOL     OW79523  12.177  14.089   0.814
59250SOL    HW179524  12.228  14.143   0.754
59250SOL    HW279525  12.089  14.087   0.776
59251SOL     OW79526  13.793   8.461   3.193
59251SOL    HW179527  13.802   8.487   3.285
59251SOL    HW279528  13.785   8.366   3.196
59252SOL     OW79529   5.892  11.485   0.091
59252SOL    HW179530   5.934  11.403   0.065
59252SOL    HW279531   5.849  11.517   0.011
59253SOL     OW79532  14.789  10.795  11.484
59253SOL    HW179533  14.700  10.761  11.474
59253SOL    HW279534  14.814  10.770  11.573
59254SOL     OW79535   8.838   2.174  12.526
59254SOL    HW179536   8.820   2.213  12.441
59254SOL    HW279537   8.794   2.231  12.589
59255SOL     OW79538  13.310  12.148   6.431
59255SOL    HW179539  13.393  12.101   6.426
59255SOL    HW279540  13.305  12.197   6.349
59256SOL     OW79541  12.804   7.579   1.776
59256SOL    HW179542  12.719   7.552   1.810
59256SOL    HW279543  12.801   7.675   1.777
59257SOL     OW79544  12.869  13.857   7.565
59257SOL    HW179545  12.825  13.938   7.591
59257SOL    HW279546  12.947  13.887   7.518
59258SOL     OW79547   3.619   1.593   3.222
59258SOL    HW179548   3.680   1.554   3.285
59258SOL    HW279549   3.550   1.631   3.277
59259SOL     OW79550  14.696  12.337   6.327
59259SOL    HW179551  14.679  12.390   6.405
59259SOL    HW279552  14.734  12.256   6.361
59260SOL     OW79553  10.914  11.128   0.389
59260SOL    HW179554  10.998  11.118   0.345
59260SOL    HW279555  10.862  11.182   0.329
59261SOL     OW79556   9.751  12.945   5.625
59261SOL    HW179557   9.788  12.904   5.703
59261SOL    HW279558   9.822  13.001   5.592
59262SOL     OW79559  11.647  11.860  14.366
59262SOL    HW179560  11.595  11.837  14.443
59262SOL    HW279561  11.724  11.802  14.371
59263SOL     OW79562   3.867   1.426  10.743
59263SOL    HW179563   3.945   1.416  10.689
59263SOL    HW279564   3.826   1.506  10.712
59264SOL     OW79565   8.577   3.834   1.582
59264SOL    HW179566   8.527   3.764   1.542
59264SOL    HW279567   8.515   3.880   1.639
59265SOL     OW79568   1.851   1.023   2.240
59265SOL    HW179569   1.887   0.935   2.229
59265SOL    HW279570   1.906   1.064   2.306
59266SOL     OW79571  12.002   7.845   0.910
59266SOL    HW179572  11.915   7.835   0.872
59266SOL    HW279573  12.035   7.756   0.919
59267SOL     OW79574   7.984  11.729   8.825
59267SOL    HW179575   8.037  11.736   8.746
59267SOL    HW279576   7.982  11.818   8.861
59268SOL     OW79577  12.354  14.415   6.541
59268SOL    HW179578  12.306  14.332   6.551
59268SOL    HW279579  12.337  14.442   6.451
59269SOL     OW79580  13.100   8.207  13.335
59269SOL    HW179581  13.089   8.217  13.241
59269SOL    HW279582  13.194   8.196  13.348
59270SOL     OW79583  14.236  13.516   8.469
59270SOL    HW179584  14.317  13.494   8.517
59270SOL    HW279585  14.256  13.599   8.426
59271SOL     OW79586   9.864  13.925   9.799
59271SOL    HW179587   9.937  13.884   9.753
59271SOL    HW279588   9.904  13.991   9.855
59272SOL     OW79589   0.029  14.179  13.827
59272SOL    HW179590   0.068  14.264  13.846
59272SOL    HW279591   0.048  14.165  13.734
59273SOL     OW79592   8.933   0.226   8.020
59273SOL    HW179593   8.963   0.179   7.943
59273SOL    HW279594   8.946   0.319   7.999
59274SOL     OW79595   5.903  11.823   2.332
59274SOL    HW179596   5.868  11.905   2.364
59274SOL    HW279597   5.845  11.798   2.260
59275SOL     OW79598   2.759   6.730   0.826
59275SOL    HW179599   2.810   6.664   0.779
59275SOL    HW279600   2.744   6.692   0.912
59276SOL     OW79601  14.034  11.536   9.568
59276SOL    HW179602  14.046  11.626   9.538
59276SOL    HW279603  14.071  11.536   9.656
59277SOL     OW79604   3.095  13.612   2.783
59277SOL    HW179605   3.049  13.533   2.812
59277SOL    HW279606   3.176  13.579   2.743
59278SOL     OW79607  10.697  13.257   5.458
59278SOL    HW179608  10.650  13.297   5.532
59278SOL    HW279609  10.666  13.167   5.456
59279SOL     OW79610  14.742   7.412   2.456
59279SOL    HW179611  14.809   7.386   2.519
59279SOL    HW279612  14.785   7.407   2.371
59280SOL     OW79613   6.500   3.133   1.797
59280SOL    HW179614   6.534   3.203   1.852
59280SOL    HW279615   6.437   3.177   1.740
59281SOL     OW79616   8.472   2.203   1.422
59281SOL    HW179617   8.518   2.273   1.376
59281SOL    HW279618   8.435   2.148   1.353
59282SOL     OW79619   2.218   3.971   0.126
59282SOL    HW179620   2.173   3.961   0.210
59282SOL    HW279621   2.260   3.887   0.111
59283SOL     OW79622   0.160  11.487  10.895
59283SOL    HW179623   0.188  11.475  10.986
59283SOL    HW279624   0.124  11.401  10.871
59284SOL     OW79625   7.749   1.444  12.133
59284SOL    HW179626   7.718   1.358  12.105
59284SOL    HW279627   7.716   1.504  12.066
59285SOL     OW79628   7.605   9.141  11.639
59285SOL    HW179629   7.608   9.162  11.733
59285SOL    HW279630   7.520   9.175  11.611
59286SOL     OW79631  13.986   5.319   3.643
59286SOL    HW179632  13.896   5.287   3.645
59286SOL    HW279633  13.999   5.350   3.554
59287SOL     OW79634   0.366  12.033   2.014
59287SOL    HW179635   0.460  12.048   2.029
59287SOL    HW279636   0.339  12.107   1.958
59288SOL     OW79637   1.694  13.259   3.026
59288SOL    HW179638   1.746  13.196   2.976
59288SOL    HW279639   1.690  13.223   3.114
59289SOL     OW79640   8.089   0.627   7.030
59289SOL    HW179641   8.120   0.716   7.016
59289SOL    HW279642   8.029   0.634   7.104
59290SOL     OW79643   6.385   6.953  11.135
59290SOL    HW179644   6.363   7.046  11.148
59290SOL    HW279645   6.460   6.938  11.193
59291SOL     OW79646  12.402   0.713   5.948
59291SOL    HW179647  12.464   0.750   5.884
59291SOL    HW279648  12.328   0.774   5.946
59292SOL     OW79649   9.897  10.615   5.326
59292SOL    HW179650   9.885  10.643   5.235
59292SOL    HW279651   9.887  10.695   5.377
59293SOL     OW79652   4.812   5.361  11.446
59293SOL    HW179653   4.817   5.450  11.481
59293SOL    HW279654   4.846   5.306  11.516
59294SOL     OW79655  13.871  13.291   5.711
59294SOL    HW179656  13.945  13.233   5.730
59294SOL    HW279657  13.797  13.232   5.696
59295SOL     OW79658  13.365  12.893  13.938
59295SOL    HW179659  13.331  12.804  13.925
59295SOL    HW279660  13.456  12.880  13.962
59296SOL     OW79661   3.131   3.725   9.086
59296SOL    HW179662   3.038   3.708   9.072
59296SOL    HW279663   3.172   3.639   9.076
59297SOL     OW79664   3.674   6.985   8.132
59297SOL    HW179665   3.603   7.045   8.154
59297SOL    HW279666   3.736   7.039   8.083
59298SOL     OW79667  11.570   4.499   4.356
59298SOL    HW179668  11.586   4.454   4.274
59298SOL    HW279669  11.644   4.559   4.366
59299SOL     OW79670   7.878  14.590   0.557
59299SOL    HW179671   7.974  14.585   0.564
59299SOL    HW279672   7.860  14.564   0.467
59300SOL     OW79673  14.229   5.597  10.060
59300SOL    HW179674  14.247   5.659  10.130
59300SOL    HW279675  14.192   5.521  10.105
59301SOL     OW79676  14.405   5.350  10.890
59301SOL    HW179677  14.369   5.438  10.878
59301SOL    HW279678  14.445   5.352  10.977
59302SOL     OW79679  14.690   4.213   3.649
59302SOL    HW179680  14.692   4.186   3.740
59302SOL    HW279681  14.624   4.157   3.608
59303SOL     OW79682   4.775   7.628  11.286
59303SOL    HW179683   4.844   7.678  11.330
59303SOL    HW279684   4.715   7.695  11.252
59304SOL     OW79685  11.543  13.901   7.979
59304SOL    HW179686  11.559  13.808   7.990
59304SOL    HW279687  11.453  13.906   7.946
59305SOL     OW79688   2.260  12.735  12.319
59305SOL    HW179689   2.288  12.669  12.255
59305SOL    HW279690   2.167  12.749  12.298
59306SOL     OW79691   4.693  12.123   2.510
59306SOL    HW179692   4.735  12.185   2.570
59306SOL    HW279693   4.663  12.177   2.437
59307SOL     OW79694   5.048   4.060   3.933
59307SOL    HW179695   5.130   4.052   3.883
59307SOL    HW279696   5.039   4.154   3.949
59308SOL     OW79697   4.884   9.629   2.605
59308SOL    HW179698   4.966   9.661   2.570
59308SOL    HW279699   4.896   9.628   2.700
59309SOL     OW79700   7.601  12.698  10.209
59309SOL    HW179701   7.649  12.764  10.259
59309SOL    HW279702   7.535  12.748  10.161
59310SOL     OW79703   1.281   1.523   6.816
59310SOL    HW179704   1.269   1.511   6.910
59310SOL    HW279705   1.244   1.609   6.797
59311SOL     OW79706   2.483   1.564   6.178
59311SOL    HW179707   2.569   1.588   6.213
59311SOL    HW279708   2.462   1.634   6.116
59312SOL     OW79709  10.554  12.618  11.935
59312SOL    HW179710  10.589  12.707  11.938
59312SOL    HW279711  10.465  12.626  11.969
59313SOL     OW79712   4.337   5.024   5.915
59313SOL    HW179713   4.294   4.952   5.871
59313SOL    HW279714   4.417   4.986   5.952
59314SOL     OW79715   9.490   7.817   5.825
59314SOL    HW179716   9.551   7.810   5.751
59314SOL    HW279717   9.531   7.881   5.883
59315SOL     OW79718   0.438   7.567  14.136
59315SOL    HW179719   0.495   7.605  14.203
59315SOL    HW279720   0.451   7.623  14.059
59316SOL     OW79721  14.807  11.883  11.223
59316SOL    HW179722   0.022  11.898  11.240
59316SOL    HW279723  14.777  11.963  11.179
59317SOL     OW79724  12.507  12.663   5.590
59317SOL    HW179725  12.587  12.666   5.643
59317SOL    HW279726  12.504  12.574   5.557
59318SOL     OW79727   4.720   5.357  12.114
59318SOL    HW179728   4.695   5.400  12.196
59318SOL    HW279729   4.772   5.423  12.068
59319SOL     OW79730   7.434  13.378  13.223
59319SOL    HW179731   7.345  13.345  13.209
59319SOL    HW279732   7.450  13.363  13.316
59320SOL     OW79733   0.067  11.648   3.514
59320SOL    HW179734   0.042  11.680   3.427
59320SOL    HW279735   0.019  11.566   3.524
59321SOL     OW79736   5.599   1.405   0.255
59321SOL    HW179737   5.515   1.450   0.251
59321SOL    HW279738   5.610   1.367   0.167
59322SOL     OW79739   7.599   8.718   8.962
59322SOL    HW179740   7.615   8.812   8.967
59322SOL    HW279741   7.585   8.690   9.052
59323SOL     OW79742   9.265  14.382   4.641
59323SOL    HW179743   9.338  14.440   4.662
59323SOL    HW279744   9.259  14.323   4.717
59324SOL     OW79745  11.941  14.615   8.939
59324SOL    HW179746  11.928  14.612   8.844
59324SOL    HW279747  12.035  14.625   8.951
59325SOL     OW79748   6.027   4.689   0.704
59325SOL    HW179749   6.032   4.695   0.609
59325SOL    HW279750   5.942   4.649   0.722
59326SOL     OW79751   4.359   8.069   8.210
59326SOL    HW179752   4.350   8.133   8.140
59326SOL    HW279753   4.448   8.036   8.201
59327SOL     OW79754   3.336  14.066   9.938
59327SOL    HW179755   3.293  14.145   9.905
59327SOL    HW279756   3.412  14.099   9.986
59328SOL     OW79757   5.730  10.052   9.597
59328SOL    HW179758   5.792  10.101   9.652
59328SOL    HW279759   5.778  10.035   9.516
59329SOL     OW79760   5.840   1.836  14.411
59329SOL    HW179761   5.798   1.858  14.328
59329SOL    HW279762   5.875   1.748  14.397
59330SOL     OW79763   8.123   6.167   7.672
59330SOL    HW179764   8.080   6.219   7.739
59330SOL    HW279765   8.144   6.229   7.602
59331SOL     OW79766  13.072   6.358   3.440
59331SOL    HW179767  13.002   6.398   3.492
59331SOL    HW279768  13.041   6.364   3.350
59332SOL     OW79769   5.455   1.749   3.505
59332SOL    HW179770   5.550   1.763   3.495
59332SOL    HW279771   5.429   1.812   3.573
59333SOL     OW79772   6.476   5.903   6.030
59333SOL    HW179773   6.436   5.965   5.969
59333SOL    HW279774   6.464   5.817   5.989
59334SOL     OW79775   4.488   7.344   5.603
59334SOL    HW179776   4.569   7.317   5.646
59334SOL    HW279777   4.430   7.370   5.675
59335SOL     OW79778   2.175   9.248  10.844
59335SOL    HW179779   2.143   9.199  10.920
59335SOL    HW279780   2.268   9.224  10.838
59336SOL     OW79781   3.825   2.831   2.531
59336SOL    HW179782   3.845   2.774   2.457
59336SOL    HW279783   3.907   2.877   2.549
59337SOL     OW79784   5.363  11.316  10.095
59337SOL    HW179785   5.428  11.380  10.124
59337SOL    HW279786   5.400  11.280  10.014
59338SOL     OW79787   0.209   1.005  11.440
59338SOL    HW179788   0.119   0.986  11.412
59338SOL    HW279789   0.237   1.077  11.383
59339SOL     OW79790   7.235   5.130  10.938
59339SOL    HW179791   7.204   5.194  10.873
59339SOL    HW279792   7.155   5.088  10.970
59340SOL     OW79793  13.275  10.769  14.485
59340SOL    HW179794  13.266  10.861  14.511
59340SOL    HW279795  13.185  10.736  14.483
59341SOL     OW79796  11.973   9.375  11.757
59341SOL    HW179797  12.033   9.307  11.788
59341SOL    HW279798  11.951   9.349  11.667
59342SOL     OW79799   4.319   9.677   1.265
59342SOL    HW179800   4.258   9.663   1.338
59342SOL    HW279801   4.349   9.767   1.276
59343SOL     OW79802  12.836  12.252  14.457
59343SOL    HW179803  12.891  12.197  14.401
59343SOL    HW279804  12.871  12.237  14.545
59344SOL     OW79805   9.836   4.272  14.055
59344SOL    HW179806   9.770   4.339  14.075
59344SOL    HW279807   9.812   4.198  14.110
59345SOL     OW79808  13.059  11.318  10.041
59345SOL    HW179809  13.008  11.282   9.969
59345SOL    HW279810  13.147  11.331  10.004
59346SOL     OW79811   3.677   5.645   4.068
59346SOL    HW179812   3.632   5.561   4.066
59346SOL    HW279813   3.705   5.659   3.977
59347SOL     OW79814  12.048   5.491   9.232
59347SOL    HW179815  12.110   5.420   9.213
59347SOL    HW279816  11.985   5.451   9.292
59348SOL     OW79817   0.617   4.885   7.496
59348SOL    HW179818   0.541   4.833   7.470
59348SOL    HW279819   0.591   4.927   7.578
59349SOL     OW79820   5.492  10.826   9.269
59349SOL    HW179821   5.559  10.894   9.278
59349SOL    HW279822   5.419  10.871   9.225
59350SOL     OW79823  13.480   5.059   9.953
59350SOL    HW179824  13.408   5.050   9.891
59350SOL    HW279825  13.551   5.098   9.902
59351SOL     OW79826   6.853   9.491  13.598
59351SOL    HW179827   6.844   9.461  13.688
59351SOL    HW279828   6.936   9.454  13.568
59352SOL     OW79829   9.092   8.566  12.725
59352SOL    HW179830   9.155   8.551  12.656
59352SOL    HW279831   9.142   8.610  12.794
59353SOL     OW79832  11.494   0.837   7.706
59353SOL    HW179833  11.439   0.779   7.655
59353SOL    HW279834  11.529   0.782   7.776
59354SOL     OW79835   0.030  12.017   4.137
59354SOL    HW179836   0.107  12.062   4.172
59354SOL    HW279837   0.029  11.932   4.182
59355SOL     OW79838   9.556  12.917   9.590
59355SOL    HW179839   9.611  12.991   9.567
59355SOL    HW279840   9.614  12.841   9.584
59356SOL     OW79841  14.004   1.979   2.031
59356SOL    HW179842  13.959   2.011   2.109
59356SOL    HW279843  13.934   1.963   1.967
59357SOL     OW79844   0.527   7.517  13.520
59357SOL    HW179845   0.571   7.602  13.519
59357SOL    HW279846   0.573   7.467  13.587
59358SOL     OW79847  12.625  13.464   0.966
59358SOL    HW179848  12.655  13.549   0.996
59358SOL    HW279849  12.612  13.475   0.872
59359SOL     OW79850   7.554   3.202   7.352
59359SOL    HW179851   7.541   3.272   7.417
59359SOL    HW279852   7.512   3.126   7.391
59360SOL     OW79853   4.618   6.937  13.529
59360SOL    HW179854   4.593   6.870  13.466
59360SOL    HW279855   4.543   6.945  13.588
59361SOL     OW79856   8.338  12.958   4.229
59361SOL    HW179857   8.255  12.957   4.181
59361SOL    HW279858   8.323  12.897   4.302
59362SOL     OW79859   9.327   5.373   4.491
59362SOL    HW179860   9.398   5.362   4.427
59362SOL    HW279861   9.354   5.321   4.566
59363SOL     OW79862  14.625   5.278  12.073
59363SOL    HW179863  14.655   5.344  12.135
59363SOL    HW279864  14.535   5.258  12.101
59364SOL     OW79865  10.724   0.405   5.760
59364SOL    HW179866  10.799   0.351   5.734
59364SOL    HW279867  10.684   0.431   5.678
59365SOL     OW79868   8.057   6.734   9.298
59365SOL    HW179869   8.048   6.825   9.326
59365SOL    HW279870   7.975   6.715   9.252
59366SOL     OW79871  14.676   5.508   3.477
59366SOL    HW179872  14.591   5.524   3.435
59366SOL    HW279873  14.721   5.592   3.471
59367SOL     OW79874   8.315  12.501  13.892
59367SOL    HW179875   8.377  12.473  13.960
59367SOL    HW279876   8.275  12.420  13.862
59368SOL     OW79877   6.355  10.804   7.838
59368SOL    HW179878   6.324  10.743   7.905
59368SOL    HW279879   6.330  10.764   7.755
59369SOL     OW79880   1.729   1.612   3.735
59369SOL    HW179881   1.674   1.589   3.660
59369SOL    HW279882   1.711   1.543   3.799
59370SOL     OW79883  10.484   8.748  12.638
59370SOL    HW179884  10.397   8.737  12.678
59370SOL    HW279885  10.521   8.660  12.639
59371SOL     OW79886   9.641   2.983  10.127
59371SOL    HW179887   9.696   3.036  10.186
59371SOL    HW279888   9.649   3.026  10.042
59372SOL     OW79889   7.788   8.440   0.359
59372SOL    HW179890   7.867   8.476   0.318
59372SOL    HW279891   7.769   8.501   0.430
59373SOL     OW79892   3.234   2.425   5.433
59373SOL    HW179893   3.274   2.444   5.349
59373SOL    HW279894   3.216   2.331   5.430
59374SOL     OW79895   5.362   5.462  10.973
59374SOL    HW179896   5.446   5.431  10.940
59374SOL    HW279897   5.321   5.504  10.897
59375SOL     OW79898   7.135  10.302  10.097
59375SOL    HW179899   7.067  10.326  10.034
59375SOL    HW279900   7.148  10.208  10.083
59376SOL     OW79901  11.266  11.526  13.366
59376SOL    HW179902  11.306  11.613  13.371
59376SOL    HW279903  11.243  11.515  13.274
59377SOL     OW79904   3.549  11.341   0.746
59377SOL    HW179905   3.482  11.274   0.761
59377SOL    HW279906   3.615  11.324   0.813
59378SOL     OW79907  11.402   5.237  12.132
59378SOL    HW179908  11.315   5.256  12.169
59378SOL    HW279909  11.405   5.142  12.127
59379SOL     OW79910  13.821   3.036   8.528
59379SOL    HW179911  13.908   3.075   8.524
59379SOL    HW279912  13.772   3.079   8.458
59380SOL     OW79913   9.253  11.154   1.175
59380SOL    HW179914   9.206  11.071   1.181
59380SOL    HW279915   9.221  11.194   1.094
59381SOL     OW79916   7.445  14.076  11.805
59381SOL    HW179917   7.534  14.111  11.797
59381SOL    HW279918   7.457  13.982  11.811
59382SOL     OW79919   0.151   4.646  14.078
59382SOL    HW179920   0.173   4.731  14.040
59382SOL    HW279921   0.056   4.645  14.079
59383SOL     OW79922   0.741   5.753  12.401
59383SOL    HW179923   0.732   5.699  12.323
59383SOL    HW279924   0.815   5.811  12.382
59384SOL     OW79925   6.122  11.859   3.182
59384SOL    HW179926   6.108  11.812   3.099
59384SOL    HW279927   6.138  11.949   3.155
59385SOL     OW79928   0.942   4.707   8.243
59385SOL    HW179929   1.009   4.761   8.284
59385SOL    HW279930   0.878   4.770   8.209
59386SOL     OW79931   8.706  10.779   9.594
59386SOL    HW179932   8.738  10.689   9.606
59386SOL    HW279933   8.612  10.773   9.612
59387SOL     OW79934   8.090  14.298   0.411
59387SOL    HW179935   8.039  14.252   0.478
59387SOL    HW279936   8.053  14.268   0.328
59388SOL     OW79937  14.040  13.366   7.072
59388SOL    HW179938  14.082  13.298   7.020
59388SOL    HW279939  14.071  13.351   7.161
59389SOL     OW79940   6.050  12.474  14.364
59389SOL    HW179941   6.143  12.462  14.385
59389SOL    HW279942   6.006  12.474  14.449
59390SOL     OW79943  14.775   5.867  10.314
59390SOL    HW179944  14.768   5.801  10.383
59390SOL    HW279945  14.851   5.840  10.262
59391SOL     OW79946   5.123   6.855   1.784
59391SOL    HW179947   5.134   6.815   1.698
59391SOL    HW279948   5.078   6.938   1.767
59392SOL     OW79949   5.675   6.619  12.257
59392SOL    HW179950   5.705   6.586  12.173
59392SOL    HW279951   5.589   6.579  12.270
59393SOL     OW79952   0.524  14.404   2.348
59393SOL    HW179953   0.456  14.351   2.307
59393SOL    HW279954   0.478  14.479   2.385
59394SOL     OW79955   1.693   1.131  10.227
59394SOL    HW179956   1.641   1.206  10.200
59394SOL    HW279957   1.781   1.166  10.239
59395SOL     OW79958   9.573   7.753   4.877
59395SOL    HW179959   9.492   7.782   4.835
59395SOL    HW279960   9.548   7.673   4.923
59396SOL     OW79961   2.280   0.161   5.207
59396SOL    HW179962   2.362   0.135   5.251
59396SOL    HW279963   2.211   0.127   5.264
59397SOL     OW79964   7.641   3.407   8.853
59397SOL    HW179965   7.724   3.447   8.880
59397SOL    HW279966   7.656   3.375   8.764
59398SOL     OW79967   8.865   3.499  11.074
59398SOL    HW179968   8.841   3.582  11.032
59398SOL    HW279969   8.926   3.458  11.013
59399SOL     OW79970   2.280   9.983  11.072
59399SOL    HW179971   2.220   9.983  10.998
59399SOL    HW279972   2.356  10.031  11.041
59400SOL     OW79973   1.973   8.043  11.667
59400SOL    HW179974   2.007   8.081  11.586
59400SOL    HW279975   1.983   8.112  11.732
59401SOL     OW79976   0.398   2.368   6.957
59401SOL    HW179977   0.335   2.419   7.009
59401SOL    HW279978   0.484   2.401   6.984
59402SOL     OW79979   3.801   2.333  11.370
59402SOL    HW179980   3.882   2.330  11.319
59402SOL    HW279981   3.733   2.307  11.308
59403SOL     OW79982  14.094   3.468   9.570
59403SOL    HW179983  14.048   3.474   9.487
59403SOL    HW279984  14.182   3.501   9.551
59404SOL     OW79985   4.930  11.910   3.341
59404SOL    HW179986   5.021  11.888   3.361
59404SOL    HW279987   4.915  11.875   3.253
59405SOL     OW79988  11.612   3.319   4.569
59405SOL    HW179989  11.606   3.293   4.661
59405SOL    HW279990  11.695   3.365   4.563
59406SOL     OW79991  11.410   7.638  12.533
59406SOL    HW179992  11.338   7.675  12.483
59406SOL    HW279993  11.421   7.550  12.498
59407SOL     OW79994   4.312   7.804  12.682
59407SOL    HW179995   4.277   7.716  12.697
59407SOL    HW279996   4.290   7.852  12.762
59408SOL     OW79997  11.435   4.905   7.842
59408SOL    HW179998  11.453   4.886   7.934
59408SOL    HW279999  11.489   4.980   7.822
59409SOL     OW80000  14.613  11.000   5.955
59409SOL    HW180001  14.558  10.957   5.890
59409SOL    HW280002  14.558  11.005   6.033
59410SOL     OW80003   7.023   8.387   5.967
59410SOL    HW180004   7.085   8.397   5.895
59410SOL    HW280005   6.985   8.474   5.978
59411SOL     OW80006  12.668   1.030   3.419
59411SOL    HW180007  12.612   1.068   3.486
59411SOL    HW280008  12.613   1.025   3.341
59412SOL     OW80009  14.066   9.940   5.841
59412SOL    HW180010  14.139   9.997   5.819
59412SOL    HW280011  14.032   9.911   5.756
59413SOL     OW80012   9.741   9.735   7.433
59413SOL    HW180013   9.693   9.655   7.450
59413SOL    HW280014   9.674   9.802   7.423
59414SOL     OW80015   9.826  14.108  14.596
59414SOL    HW180016   9.879  14.062  14.531
59414SOL    HW280017   9.888  14.168  14.639
59415SOL     OW80018  10.279   1.372   7.523
59415SOL    HW180019  10.355   1.394   7.577
59415SOL    HW280020  10.213   1.344   7.587
59416SOL     OW80021   9.272   8.312  13.082
59416SOL    HW180022   9.244   8.264  13.004
59416SOL    HW280023   9.366   8.295  13.089
59417SOL     OW80024  11.769   0.885  10.135
59417SOL    HW180025  11.774   0.955  10.200
59417SOL    HW280026  11.728   0.812  10.182
59418SOL     OW80027   6.986  12.235   2.322
59418SOL    HW180028   7.061  12.179   2.304
59418SOL    HW280029   6.949  12.200   2.404
59419SOL     OW80030   7.521   0.798   6.056
59419SOL    HW180031   7.511   0.884   6.095
59419SOL    HW280032   7.578   0.812   5.981
59420SOL     OW80033   8.056   1.891  10.516
59420SOL    HW180034   8.039   1.896  10.610
59420SOL    HW280035   8.150   1.876  10.509
59421SOL     OW80036   7.219   4.187   4.504
59421SOL    HW180037   7.314   4.177   4.502
59421SOL    HW280038   7.202   4.246   4.578
59422SOL     OW80039   6.224   0.923   4.740
59422SOL    HW180040   6.231   0.949   4.831
59422SOL    HW280041   6.161   0.984   4.702
59423SOL     OW80042   0.462   8.840   7.964
59423SOL    HW180043   0.406   8.853   7.888
59423SOL    HW280044   0.434   8.755   8.000
59424SOL     OW80045  11.056  12.895   8.800
59424SOL    HW180046  10.990  12.962   8.817
59424SOL    HW280047  11.031  12.821   8.855
59425SOL     OW80048  12.159   6.892  11.546
59425SOL    HW180049  12.192   6.900  11.635
59425SOL    HW280050  12.131   6.981  11.523
59426SOL     OW80051   7.829   1.655   3.575
59426SOL    HW180052   7.896   1.623   3.637
59426SOL    HW280053   7.757   1.593   3.584
59427SOL     OW80054   6.838  10.925   7.203
59427SOL    HW180055   6.875  10.839   7.224
59427SOL    HW280056   6.792  10.951   7.283
59428SOL     OW80057  12.983   9.561  11.743
59428SOL    HW180058  12.902   9.607  11.723
59428SOL    HW280059  13.041   9.627  11.781
59429SOL     OW80060  11.351   3.868  14.598
59429SOL    HW180061  11.299   3.794  14.629
59429SOL    HW280062  11.287   3.938  14.585
59430SOL     OW80063  10.369   7.346   0.814
59430SOL    HW180064  10.376   7.398   0.734
59430SOL    HW280065  10.456   7.353   0.854
59431SOL     OW80066  11.957  12.697  11.324
59431SOL    HW180067  11.953  12.740  11.239
59431SOL    HW280068  12.050  12.681  11.339
59432SOL     OW80069   4.655  11.384   3.340
59432SOL    HW180070   4.592  11.337   3.286
59432SOL    HW280071   4.740  11.350   3.313
59433SOL     OW80072   8.766  14.281  11.201
59433SOL    HW180073   8.771  14.216  11.131
59433SOL    HW280074   8.673  14.305  11.203
59434SOL     OW80075  11.473   2.076   2.810
59434SOL    HW180076  11.418   2.030   2.746
59434SOL    HW280077  11.539   2.012   2.835
59435SOL     OW80078   1.410   2.985   6.230
59435SOL    HW180079   1.455   2.909   6.193
59435SOL    HW280080   1.480   3.044   6.257
59436SOL     OW80081   3.027  13.028   1.498
59436SOL    HW180082   2.950  12.981   1.465
59436SOL    HW280083   2.996  13.117   1.513
59437SOL     OW80084  12.671   2.320   1.106
59437SOL    HW180085  12.588   2.314   1.153
59437SOL    HW280086  12.668   2.405   1.061
59438SOL     OW80087  10.390   1.336   9.310
59438SOL    HW180088  10.483   1.316   9.313
59438SOL    HW280089  10.362   1.332   9.402
59439SOL     OW80090   9.085  11.700   5.623
59439SOL    HW180091   9.146  11.702   5.696
59439SOL    HW280092   8.999  11.697   5.663
59440SOL     OW80093  11.891  11.288   2.444
59440SOL    HW180094  11.893  11.327   2.532
59440SOL    HW280095  11.975  11.314   2.405
59441SOL     OW80096  11.141   5.387  10.565
59441SOL    HW180097  11.091   5.435  10.631
59441SOL    HW280098  11.224   5.434  10.557
59442SOL     OW80099   5.607   4.479   1.771
59442SOL    HW180100   5.620   4.460   1.864
59442SOL    HW280101   5.514   4.503   1.764
59443SOL     OW80102  11.544   1.656   6.495
59443SOL    HW180103  11.624   1.622   6.455
59443SOL    HW280104  11.501   1.704   6.425
59444SOL     OW80105   1.420  10.681   0.994
59444SOL    HW180106   1.360  10.615   1.029
59444SOL    HW280107   1.430  10.658   0.902
59445SOL     OW80108  11.267   7.846   5.619
59445SOL    HW180109  11.330   7.918   5.621
59445SOL    HW280110  11.298   7.788   5.549
59446SOL     OW80111  12.122   3.107   8.743
59446SOL    HW180112  12.080   3.166   8.681
59446SOL    HW280113  12.063   3.031   8.748
59447SOL     OW80114  11.977  10.034   4.478
59447SOL    HW180115  12.013  10.062   4.562
59447SOL    HW280116  11.888  10.071   4.476
59448SOL     OW80117  14.377   1.649   6.211
59448SOL    HW180118  14.414   1.637   6.298
59448SOL    HW280119  14.334   1.566   6.191
59449SOL     OW80120   4.845   0.738  12.806
59449SOL    HW180121   4.874   0.667  12.863
59449SOL    HW280122   4.824   0.810  12.866
59450SOL     OW80123  14.602  13.198   2.512
59450SOL    HW180124  14.653  13.274   2.481
59450SOL    HW280125  14.553  13.170   2.435
59451SOL     OW80126   9.923   2.464   3.721
59451SOL    HW180127   9.877   2.542   3.752
59451SOL    HW280128   9.861   2.392   3.735
59452SOL     OW80129  12.689   8.026   0.844
59452SOL    HW180130  12.646   7.963   0.903
59452SOL    HW280131  12.755   7.975   0.798
59453SOL     OW80132   3.749   8.231  13.399
59453SOL    HW180133   3.677   8.261  13.454
59453SOL    HW280134   3.729   8.139  13.381
59454SOL     OW80135  12.465   9.195   5.524
59454SOL    HW180136  12.479   9.103   5.501
59454SOL    HW280137  12.533   9.214   5.588
59455SOL     OW80138   5.504   1.754  10.248
59455SOL    HW180139   5.543   1.671  10.223
59455SOL    HW280140   5.570   1.820  10.224
59456SOL     OW80141   6.251  12.918  14.343
59456SOL    HW180142   6.230  13.008  14.318
59456SOL    HW280143   6.308  12.926  14.420
59457SOL     OW80144   3.129   5.267   1.133
59457SOL    HW180145   3.129   5.184   1.084
59457SOL    HW280146   3.061   5.256   1.199
59458SOL     OW80147   0.391   4.901  11.023
59458SOL    HW180148   0.328   4.897  11.095
59458SOL    HW280149   0.339   4.880  10.945
59459SOL     OW80150   9.013   2.609   8.159
59459SOL    HW180151   9.084   2.559   8.199
59459SOL    HW280152   8.938   2.592   8.215
59460SOL     OW80153   7.946   0.885   0.756
59460SOL    HW180154   8.035   0.857   0.773
59460SOL    HW280155   7.906   0.892   0.843
59461SOL     OW80156   5.328  13.690   8.723
59461SOL    HW180157   5.291  13.646   8.800
59461SOL    HW280158   5.356  13.776   8.755
59462SOL     OW80159   6.593  12.648   5.294
59462SOL    HW180160   6.633  12.726   5.333
59462SOL    HW280161   6.603  12.580   5.361
59463SOL     OW80162   6.456   4.249   1.860
59463SOL    HW180163   6.503   4.174   1.897
59463SOL    HW280164   6.523   4.317   1.850
59464SOL     OW80165   6.835  14.109  12.390
59464SOL    HW180166   6.804  14.165  12.461
59464SOL    HW280167   6.914  14.068  12.423
59465SOL     OW80168   8.594   4.081   0.519
59465SOL    HW180169   8.678   4.038   0.535
59465SOL    HW280170   8.528   4.016   0.544
59466SOL     OW80171  12.471   2.095  10.277
59466SOL    HW180172  12.396   2.077  10.219
59466SOL    HW280173  12.530   2.148  10.224
59467SOL     OW80174   5.311  10.969   1.652
59467SOL    HW180175   5.391  10.939   1.609
59467SOL    HW280176   5.277  10.892   1.696
59468SOL     OW80177   3.423   3.307   3.743
59468SOL    HW180178   3.509   3.298   3.785
59468SOL    HW280179   3.431   3.385   3.688
59469SOL     OW80180   2.944   4.857   9.132
59469SOL    HW180181   3.017   4.803   9.102
59469SOL    HW280182   2.953   4.939   9.082
59470SOL     OW80183  11.941   1.567   7.360
59470SOL    HW180184  11.860   1.544   7.316
59470SOL    HW280185  11.995   1.488   7.357
59471SOL     OW80186  11.531   7.516   5.574
59471SOL    HW180187  11.437   7.504   5.586
59471SOL    HW280188  11.567   7.516   5.662
59472SOL     OW80189   8.636   0.122  12.251
59472SOL    HW180190   8.731   0.127  12.259
59472SOL    HW280191   8.620   0.036  12.212
59473SOL     OW80192   7.832   7.041   2.193
59473SOL    HW180193   7.924   7.023   2.211
59473SOL    HW280194   7.826   7.137   2.191
59474SOL     OW80195  14.436  11.316  12.722
59474SOL    HW180196  14.402  11.376  12.788
59474SOL    HW280197  14.500  11.368  12.673
59475SOL     OW80198   4.088   5.526   1.158
59475SOL    HW180199   4.074   5.460   1.090
59475SOL    HW280200   4.126   5.600   1.111
59476SOL     OW80201   3.478   0.564   9.552
59476SOL    HW180202   3.450   0.637   9.497
59476SOL    HW280203   3.419   0.492   9.528
59477SOL     OW80204   7.241  11.314  11.918
59477SOL    HW180205   7.306  11.288  11.983
59477SOL    HW280206   7.167  11.346  11.971
59478SOL     OW80207   1.981   7.094   7.486
59478SOL    HW180208   1.950   7.113   7.575
59478SOL    HW280209   2.071   7.064   7.498
59479SOL     OW80210   1.412  11.379  14.281
59479SOL    HW180211   1.442  11.428  14.357
59479SOL    HW280212   1.422  11.440  14.208
59480SOL     OW80213   8.805  14.615   3.747
59480SOL    HW180214   8.781  14.686   3.688
59480SOL    HW280215   8.867  14.562   3.697
59481SOL     OW80216   1.272   9.350  11.308
59481SOL    HW180217   1.246   9.372  11.219
59481SOL    HW280218   1.337   9.280  11.298
59482SOL     OW80219   3.366   4.474   5.213
59482SOL    HW180220   3.435   4.428   5.261
59482SOL    HW280221   3.413   4.526   5.148
59483SOL     OW80222   6.995   7.589   0.372
59483SOL    HW180223   7.077   7.570   0.326
59483SOL    HW280224   6.998   7.683   0.388
59484SOL     OW80225  12.059   8.200   6.312
59484SOL    HW180226  12.076   8.214   6.405
59484SOL    HW280227  12.000   8.272   6.288
59485SOL     OW80228   1.683  13.956   6.062
59485SOL    HW180229   1.650  13.868   6.084
59485SOL    HW280230   1.630  14.015   6.115
59486SOL     OW80231  12.424   8.709  11.264
59486SOL    HW180232  12.361   8.638  11.276
59486SOL    HW280233  12.437   8.714  11.169
59487SOL     OW80234   0.842   9.328   5.952
59487SOL    HW180235   0.779   9.334   6.024
59487SOL    HW280236   0.922   9.294   5.992
59488SOL     OW80237  14.685  13.600   9.973
59488SOL    HW180238  14.747  13.666  10.003
59488SOL    HW280239  14.600  13.645   9.975
59489SOL     OW80240   6.378   9.163  14.824
59489SOL    HW180241   6.357   9.097   0.012
59489SOL    HW280242   6.372   9.247  14.871
59490SOL     OW80243   6.217   1.681  12.472
59490SOL    HW180244   6.183   1.696  12.384
59490SOL    HW280245   6.198   1.761  12.520
59491SOL     OW80246   2.585  12.650   0.202
59491SOL    HW180247   2.677  12.674   0.216
59491SOL    HW280248   2.588  12.568   0.154
59492SOL     OW80249   3.400   2.098   8.821
59492SOL    HW180250   3.455   2.037   8.772
59492SOL    HW280251   3.460   2.165   8.854
59493SOL     OW80252  11.901   0.956   7.027
59493SOL    HW180253  11.861   0.878   6.988
59493SOL    HW280254  11.982   0.968   6.977
59494SOL     OW80255   4.747   1.314   7.911
59494SOL    HW180256   4.716   1.241   7.857
59494SOL    HW280257   4.694   1.309   7.990
59495SOL     OW80258   3.781   7.961   9.443
59495SOL    HW180259   3.858   8.007   9.409
59495SOL    HW280260   3.724   7.952   9.367
59496SOL     OW80261  14.810   3.134  14.470
59496SOL    HW180262  14.833   3.042  14.470
59496SOL    HW280263  14.785   3.153  14.380
59497SOL     OW80264   9.953  12.250  12.660
59497SOL    HW180265   9.878  12.265  12.602
59497SOL    HW280266   9.956  12.155  12.670
59498SOL     OW80267   3.259   3.256  11.523
59498SOL    HW180268   3.226   3.268  11.612
59498SOL    HW280269   3.181   3.233  11.472
59499SOL     OW80270   9.526   0.998  13.682
59499SOL    HW180271   9.608   0.953  13.662
59499SOL    HW280272   9.467   0.973  13.612
59500SOL     OW80273   2.637   3.387  11.318
59500SOL    HW180274   2.665   3.332  11.390
59500SOL    HW280275   2.671   3.474  11.339
59501SOL     OW80276  13.090   9.884  11.732
59501SOL    HW180277  13.136   9.874  11.816
59501SOL    HW280278  13.033   9.960  11.745
59502SOL     OW80279   6.819   8.307  14.865
59502SOL    HW180280   6.728   8.326  14.842
59502SOL    HW280281   6.838   8.225  14.820
59503SOL     OW80282  12.028   2.133   2.660
59503SOL    HW180283  11.973   2.151   2.737
59503SOL    HW280284  12.053   2.220   2.629
59504SOL     OW80285   7.125   8.700   4.943
59504SOL    HW180286   7.092   8.787   4.919
59504SOL    HW280287   7.197   8.684   4.882
59505SOL     OW80288  13.611   8.577   9.991
59505SOL    HW180289  13.646   8.490   9.973
59505SOL    HW280290  13.524   8.577   9.950
59506SOL     OW80291  13.208   5.792   5.831
59506SOL    HW180292  13.298   5.812   5.858
59506SOL    HW280293  13.173   5.740   5.903
59507SOL     OW80294   5.346   4.099   3.071
59507SOL    HW180295   5.374   4.040   3.001
59507SOL    HW280296   5.428   4.133   3.107
59508SOL     OW80297   0.679   9.721  14.790
59508SOL    HW180298   0.677   9.675  14.874
59508SOL    HW280299   0.725   9.661  14.731
59509SOL     OW80300   3.239   8.540  12.434
59509SOL    HW180301   3.249   8.455  12.477
59509SOL    HW280302   3.184   8.521  12.358
59510SOL     OW80303   8.111   8.128  10.816
59510SOL    HW180304   8.196   8.135  10.772
59510SOL    HW280305   8.081   8.219  10.823
59511SOL     OW80306   2.790   4.772   3.385
59511SOL    HW180307   2.745   4.687   3.392
59511SOL    HW280308   2.814   4.795   3.475
59512SOL     OW80309   6.323  13.024   3.721
59512SOL    HW180310   6.375  13.064   3.651
59512SOL    HW280311   6.234  13.020   3.686
59513SOL     OW80312  13.482  12.060   4.739
59513SOL    HW180313  13.424  12.048   4.665
59513SOL    HW280314  13.428  12.040   4.816
59514SOL     OW80315   4.711   9.694   8.239
59514SOL    HW180316   4.789   9.749   8.249
59514SOL    HW280317   4.690   9.699   8.146
59515SOL     OW80318   6.311  14.520   9.775
59515SOL    HW180319   6.251  14.540   9.847
59515SOL    HW280320   6.336  14.429   9.789
59516SOL     OW80321   7.731   0.233   8.340
59516SOL    HW180322   7.815   0.189   8.351
59516SOL    HW280323   7.700   0.204   8.254
59517SOL     OW80324   6.384  12.629   7.352
59517SOL    HW180325   6.384  12.557   7.415
59517SOL    HW280326   6.366  12.587   7.268
59518SOL     OW80327   3.780   3.683   5.351
59518SOL    HW180328   3.825   3.610   5.310
59518SOL    HW280329   3.849   3.747   5.371
59519SOL     OW80330   4.770   4.723   2.316
59519SOL    HW180331   4.727   4.725   2.230
59519SOL    HW280332   4.747   4.637   2.352
59520SOL     OW80333   2.930  14.193   3.727
59520SOL    HW180334   2.998  14.164   3.665
59520SOL    HW280335   2.848  14.161   3.689
59521SOL     OW80336   4.248  13.892   7.869
59521SOL    HW180337   4.220  13.802   7.887
59521SOL    HW280338   4.337  13.883   7.834
59522SOL     OW80339   2.534   3.167   1.269
59522SOL    HW180340   2.544   3.167   1.174
59522SOL    HW280341   2.601   3.105   1.300
59523SOL     OW80342   6.443  13.300   1.420
59523SOL    HW180343   6.423  13.207   1.407
59523SOL    HW280344   6.461  13.308   1.514
59524SOL     OW80345   8.926   0.238   0.662
59524SOL    HW180346   8.923   0.165   0.600
59524SOL    HW280347   9.002   0.218   0.718
59525SOL     OW80348  12.351  14.841   4.840
59525SOL    HW180349  12.289   0.034   4.823
59525SOL    HW280350  12.397  14.829   4.756
59526SOL     OW80351   3.049  11.664   5.720
59526SOL    HW180352   2.977  11.640   5.778
59526SOL    HW280353   3.092  11.582   5.699
59527SOL     OW80354   5.121  10.397   7.205
59527SOL    HW180355   5.109  10.328   7.269
59527SOL    HW280356   5.032  10.427   7.186
59528SOL     OW80357   1.487  13.917   3.233
59528SOL    HW180358   1.575  13.896   3.263
59528SOL    HW280359   1.487  14.013   3.224
59529SOL     OW80360   1.797   0.132   1.229
59529SOL    HW180361   1.755   0.048   1.211
59529SOL    HW280362   1.734   0.179   1.284
59530SOL     OW80363   8.583   1.230   1.244
59530SOL    HW180364   8.540   1.150   1.212
59530SOL    HW280365   8.517   1.298   1.231
59531SOL     OW80366   9.534   9.733   7.947
59531SOL    HW180367   9.535   9.827   7.964
59531SOL    HW280368   9.590   9.721   7.871
59532SOL     OW80369   0.922   8.880   9.220
59532SOL    HW180370   0.904   8.840   9.136
59532SOL    HW280371   0.855   8.844   9.279
59533SOL     OW80372   1.776   0.379   4.657
59533SOL    HW180373   1.827   0.436   4.716
59533SOL    HW280374   1.734   0.316   4.715
59534SOL     OW80375  10.473   2.264   3.385
59534SOL    HW180376  10.544   2.203   3.405
59534SOL    HW280377  10.402   2.238   3.444
59535SOL     OW80378   3.376   7.825  11.210
59535SOL    HW180379   3.293   7.813  11.256
59535SOL    HW280380   3.434   7.759  11.248
59536SOL     OW80381  13.249   7.128   1.149
59536SOL    HW180382  13.174   7.112   1.092
59536SOL    HW280383  13.243   7.061   1.217
59537SOL     OW80384   3.152   9.346   1.818
59537SOL    HW180385   3.114   9.288   1.753
59537SOL    HW280386   3.246   9.331   1.812
59538SOL     OW80387   6.608   2.209  11.986
59538SOL    HW180388   6.578   2.290  12.028
59538SOL    HW280389   6.546   2.142  12.016
59539SOL     OW80390   3.487   8.627   8.719
59539SOL    HW180391   3.402   8.613   8.678
59539SOL    HW280392   3.548   8.633   8.645
59540SOL     OW80393   5.010   8.714   5.452
59540SOL    HW180394   5.018   8.803   5.486
59540SOL    HW280395   5.099   8.679   5.457
59541SOL     OW80396   8.488  10.040   5.113
59541SOL    HW180397   8.485   9.946   5.133
59541SOL    HW280398   8.396  10.066   5.107
59542SOL     OW80399   0.612  14.756   4.032
59542SOL    HW180400   0.548  14.700   4.075
59542SOL    HW280401   0.620  14.832   4.090
59543SOL     OW80402  11.182   4.550  10.043
59543SOL    HW180403  11.132   4.580  10.118
59543SOL    HW280404  11.182   4.454  10.050
59544SOL     OW80405   1.903   0.915  11.395
59544SOL    HW180406   1.980   0.897  11.450
59544SOL    HW280407   1.870   0.999  11.427
59545SOL     OW80408  12.494   7.885  14.749
59545SOL    HW180409  12.409   7.868  14.708
59545SOL    HW280410  12.556   7.832  14.699
59546SOL     OW80411   7.295  11.689  12.661
59546SOL    HW180412   7.290  11.684  12.757
59546SOL    HW280413   7.257  11.775  12.640
59547SOL     OW80414  13.139   2.077   7.724
59547SOL    HW180415  13.086   2.147   7.684
59547SOL    HW280416  13.222   2.081   7.678
59548SOL     OW80417   6.446   0.891  13.565
59548SOL    HW180418   6.405   0.968  13.604
59548SOL    HW280419   6.450   0.827  13.636
59549SOL     OW80420  11.961   7.797   1.353
59549SOL    HW180421  11.865   7.795   1.360
59549SOL    HW280422  11.980   7.885   1.321
59550SOL     OW80423   9.133   7.170   5.635
59550SOL    HW180424   9.047   7.212   5.639
59550SOL    HW280425   9.127   7.098   5.699
59551SOL     OW80426  12.384   3.895   5.361
59551SOL    HW180427  12.414   3.819   5.411
59551SOL    HW280428  12.339   3.857   5.286
59552SOL     OW80429   3.248   6.928   3.761
59552SOL    HW180430   3.338   6.947   3.733
59552SOL    HW280431   3.251   6.836   3.788
59553SOL     OW80432  12.724  10.169   2.674
59553SOL    HW180433  12.704  10.148   2.583
59553SOL    HW280434  12.654  10.127   2.724
59554SOL     OW80435   2.014  14.853   7.944
59554SOL    HW180436   2.064  14.799   8.006
59554SOL    HW280437   2.055   0.061   7.950
59555SOL     OW80438  14.836   6.379   2.221
59555SOL    HW180439  14.791   6.314   2.274
59555SOL    HW280440  14.871   6.442   2.285
59556SOL     OW80441  12.617  12.839  11.489
59556SOL    HW180442  12.581  12.776  11.551
59556SOL    HW280443  12.600  12.924  11.528
59557SOL     OW80444   5.386   4.298  13.440
59557SOL    HW180445   5.342   4.372  13.481
59557SOL    HW280446   5.320   4.259  13.382
59558SOL     OW80447  10.677   9.084   7.912
59558SOL    HW180448  10.737   9.156   7.890
59558SOL    HW280449  10.662   9.039   7.829
59559SOL     OW80450   7.263   0.095   7.238
59559SOL    HW180451   7.258   0.010   7.282
59559SOL    HW280452   7.180   0.102   7.190
59560SOL     OW80453  12.698   2.083   5.272
59560SOL    HW180454  12.772   2.066   5.330
59560SOL    HW280455  12.725   2.159   5.221
59561SOL     OW80456  10.873  14.872  14.612
59561SOL    HW180457  10.877  14.827  14.528
59561SOL    HW280458  10.906  14.808  14.676
59562SOL     OW80459   1.869  13.029   5.988
59562SOL    HW180460   1.939  13.094   5.990
59562SOL    HW280461   1.904  12.956   5.936
59563SOL     OW80462  11.656   0.904   1.532
59563SOL    HW180463  11.683   0.954   1.610
59563SOL    HW280464  11.738   0.881   1.488
59564SOL     OW80465  10.830   2.002   5.119
59564SOL    HW180466  10.866   1.929   5.069
59564SOL    HW280467  10.904   2.038   5.167
59565SOL     OW80468  13.625   5.414   6.739
59565SOL    HW180469  13.611   5.412   6.834
59565SOL    HW280470  13.716   5.387   6.728
59566SOL     OW80471  12.115  14.669  12.303
59566SOL    HW180472  12.142  14.755  12.335
59566SOL    HW280473  12.077  14.626  12.380
59567SOL     OW80474  11.565  11.860   3.120
59567SOL    HW180475  11.530  11.812   3.045
59567SOL    HW280476  11.516  11.827   3.195
59568SOL     OW80477   9.729   4.862   7.114
59568SOL    HW180478   9.738   4.792   7.049
59568SOL    HW280479   9.712   4.815   7.196
59569SOL     OW80480  13.299   3.908   0.047
59569SOL    HW180481  13.242   3.955  14.864
59569SOL    HW280482  13.354   3.854  14.868
59570SOL     OW80483   2.858   1.482   4.806
59570SOL    HW180484   2.907   1.446   4.731
59570SOL    HW280485   2.779   1.519   4.767
59571SOL     OW80486  14.154   1.007   5.512
59571SOL    HW180487  14.135   1.097   5.540
59571SOL    HW280488  14.240   0.988   5.550
59572SOL     OW80489   3.317   1.665  14.039
59572SOL    HW180490   3.298   1.742  14.092
59572SOL    HW280491   3.395   1.690  13.989
59573SOL     OW80492   5.765   0.181  13.559
59573SOL    HW180493   5.787   0.248  13.624
59573SOL    HW280494   5.729   0.231  13.485
59574SOL     OW80495  10.511   8.515   3.060
59574SOL    HW180496  10.517   8.429   3.101
59574SOL    HW280497  10.489   8.574   3.133
59575SOL     OW80498  12.705   5.609   0.271
59575SOL    HW180499  12.775   5.625   0.208
59575SOL    HW280500  12.679   5.696   0.301
59576SOL     OW80501   9.653   1.646   1.424
59576SOL    HW180502   9.564   1.613   1.414
59576SOL    HW280503   9.663   1.710   1.354
59577SOL     OW80504   5.448   6.982   0.056
59577SOL    HW180505   5.450   6.964   0.150
59577SOL    HW280506   5.495   7.065   0.046
59578SOL     OW80507   9.104   1.803   7.795
59578SOL    HW180508   9.077   1.718   7.832
59578SOL    HW280509   9.090   1.794   7.701
59579SOL     OW80510   7.078  10.819   8.847
59579SOL    HW180511   7.158  10.817   8.795
59579SOL    HW280512   7.091  10.890   8.909
59580SOL     OW80513  12.837   5.088   2.840
59580SOL    HW180514  12.897   5.137   2.897
59580SOL    HW280515  12.765   5.149   2.824
59581SOL     OW80516  13.239  13.615   5.521
59581SOL    HW180517  13.275  13.530   5.495
59581SOL    HW280518  13.173  13.595   5.587
59582SOL     OW80519  14.186   2.304  10.549
59582SOL    HW180520  14.241   2.377  10.577
59582SOL    HW280521  14.121   2.295  10.619
59583SOL     OW80522  12.074   4.596   7.354
59583SOL    HW180523  11.986   4.570   7.325
59583SOL    HW280524  12.084   4.557   7.440
59584SOL     OW80525  12.246   7.868  12.531
59584SOL    HW180526  12.306   7.794  12.543
59584SOL    HW280527  12.182   7.859  12.602
59585SOL     OW80528   4.793  14.188   2.406
59585SOL    HW180529   4.793  14.151   2.495
59585SOL    HW280530   4.779  14.112   2.349
59586SOL     OW80531  10.988   5.540  14.376
59586SOL    HW180532  11.019   5.595  14.305
59586SOL    HW280533  10.959   5.459  14.334
59587SOL     OW80534   6.656  12.137   8.575
59587SOL    HW180535   6.747  12.139   8.546
59587SOL    HW280536   6.649  12.057   8.626
59588SOL     OW80537  11.706   4.702   2.792
59588SOL    HW180538  11.769   4.663   2.731
59588SOL    HW280539  11.670   4.627   2.840
59589SOL     OW80540   3.759   1.070   2.469
59589SOL    HW180541   3.764   1.038   2.378
59589SOL    HW280542   3.847   1.055   2.504
59590SOL     OW80543   4.625   2.300   9.323
59590SOL    HW180544   4.539   2.260   9.312
59590SOL    HW280545   4.676   2.234   9.369
59591SOL     OW80546  14.638   8.600   7.596
59591SOL    HW180547  14.656   8.611   7.503
59591SOL    HW280548  14.602   8.684   7.624
59592SOL     OW80549  11.075  13.682   5.305
59592SOL    HW180550  10.989  13.669   5.264
59592SOL    HW280551  11.087  13.777   5.307
59593SOL     OW80552   5.290   3.943  10.881
59593SOL    HW180553   5.311   4.003  10.952
59593SOL    HW280554   5.217   3.891  10.914
59594SOL     OW80555  14.149   2.213   3.678
59594SOL    HW180556  14.238   2.238   3.656
59594SOL    HW280557  14.125   2.147   3.613
59595SOL     OW80558  10.482  10.496   4.359
59595SOL    HW180559  10.409  10.483   4.420
59595SOL    HW280560  10.443  10.487   4.272
59596SOL     OW80561   0.821   5.901   1.377
59596SOL    HW180562   0.904   5.940   1.405
59596SOL    HW280563   0.764   5.976   1.359
59597SOL     OW80564   5.534   8.271   2.582
59597SOL    HW180565   5.605   8.297   2.523
59597SOL    HW280566   5.454   8.291   2.533
59598SOL     OW80567   5.430   8.106   6.516
59598SOL    HW180568   5.511   8.076   6.475
59598SOL    HW280569   5.457   8.177   6.574
59599SOL     OW80570   7.940   9.898   8.612
59599SOL    HW180571   7.880   9.891   8.686
59599SOL    HW280572   8.016   9.844   8.637
59600SOL     OW80573  11.754   0.979  10.796
59600SOL    HW180574  11.818   0.967  10.725
59600SOL    HW280575  11.750   0.893  10.839
59601SOL     OW80576   4.556   2.909   6.929
59601SOL    HW180577   4.470   2.922   6.970
59601SOL    HW280578   4.614   2.971   6.973
59602SOL     OW80579   1.773  10.212  13.160
59602SOL    HW180580   1.698  10.220  13.218
59602SOL    HW280581   1.745  10.149  13.094
59603SOL     OW80582   3.219   8.020   0.073
59603SOL    HW180583   3.290   7.978   0.024
59603SOL    HW280584   3.256   8.104   0.101
59604SOL     OW80585   6.453   3.417   5.122
59604SOL    HW180586   6.401   3.398   5.044
59604SOL    HW280587   6.400   3.384   5.195
59605SOL     OW80588  12.876  11.026  14.615
59605SOL    HW180589  12.818  11.033  14.691
59605SOL    HW280590  12.865  11.109  14.569
59606SOL     OW80591  14.178   2.171  12.183
59606SOL    HW180592  14.205   2.088  12.221
59606SOL    HW280593  14.241   2.235  12.217
59607SOL     OW80594   2.127   6.032   7.243
59607SOL    HW180595   2.054   6.021   7.303
59607SOL    HW280596   2.098   6.099   7.182
59608SOL     OW80597   2.755   5.440   9.679
59608SOL    HW180598   2.732   5.507   9.744
59608SOL    HW280599   2.686   5.374   9.688
59609SOL     OW80600  11.245  10.800   8.908
59609SOL    HW180601  11.260  10.710   8.881
59609SOL    HW280602  11.210  10.793   8.997
59610SOL     OW80603   4.788   7.137   5.335
59610SOL    HW180604   4.804   7.132   5.429
59610SOL    HW280605   4.705   7.091   5.322
59611SOL     OW80606  12.207  12.642  11.150
59611SOL    HW180607  12.213  12.582  11.223
59611SOL    HW280608  12.283  12.621  11.095
59612SOL     OW80609   1.321   0.120   8.948
59612SOL    HW180610   1.266   0.081   9.016
59612SOL    HW280611   1.267   0.120   8.870
59613SOL     OW80612  12.215   9.621   4.610
59613SOL    HW180613  12.237   9.706   4.649
59613SOL    HW280614  12.143   9.639   4.550
59614SOL     OW80615   5.676   1.559   5.251
59614SOL    HW180616   5.665   1.640   5.301
59614SOL    HW280617   5.683   1.588   5.160
59615SOL     OW80618  12.543   4.022  13.421
59615SOL    HW180619  12.515   3.935  13.391
59615SOL    HW280620  12.476   4.081  13.388
59616SOL     OW80621   8.905   0.886  14.819
59616SOL    HW180622   8.904   0.891   0.036
59616SOL    HW280623   8.929   0.795  14.800
59617SOL     OW80624   7.401   5.953   0.751
59617SOL    HW180625   7.321   5.958   0.804
59617SOL    HW280626   7.384   5.882   0.688
59618SOL     OW80627  14.110   2.453   2.251
59618SOL    HW180628  14.102   2.391   2.179
59618SOL    HW280629  14.186   2.507   2.228
59619SOL     OW80630   0.995   0.829   1.184
59619SOL    HW180631   0.952   0.903   1.227
59619SOL    HW280632   1.002   0.856   1.092
59620SOL     OW80633   4.193  14.179  11.330
59620SOL    HW180634   4.257  14.180  11.402
59620SOL    HW280635   4.143  14.260  11.342
59621SOL     OW80636   5.235   1.052  10.103
59621SOL    HW180637   5.270   1.067  10.191
59621SOL    HW280638   5.283   0.976  10.071
59622SOL     OW80639   1.144   7.765  11.068
59622SOL    HW180640   1.126   7.682  11.024
59622SOL    HW280641   1.150   7.829  10.997
59623SOL     OW80642   5.670  13.820   9.858
59623SOL    HW180643   5.735  13.750   9.854
59623SOL    HW280644   5.659  13.838   9.951
59624SOL     OW80645  13.302  10.420   0.120
59624SOL    HW180646  13.297  10.500   0.173
59624SOL    HW280647  13.376  10.371   0.156
59625SOL     OW80648   3.813   7.009   0.038
59625SOL    HW180649   3.787   7.067  14.844
59625SOL    HW280650   3.864   7.064   0.097
59626SOL     OW80651   1.906   0.439   9.772
59626SOL    HW180652   1.943   0.519   9.809
59626SOL    HW280653   1.840   0.412   9.836
59627SOL     OW80654   7.535   0.513   3.135
59627SOL    HW180655   7.602   0.554   3.189
59627SOL    HW280656   7.582   0.482   3.058
59628SOL     OW80657   3.503   9.409  11.564
59628SOL    HW180658   3.423   9.457  11.586
59628SOL    HW280659   3.529   9.443  11.478
59629SOL     OW80660  12.549  14.726   5.006
59629SOL    HW180661  12.553  14.649   4.949
59629SOL    HW280662  12.484  14.783   4.965
59630SOL     OW80663   6.767   0.326   1.774
59630SOL    HW180664   6.734   0.379   1.847
59630SOL    HW280665   6.740   0.237   1.794
59631SOL     OW80666   5.480   2.525   1.982
59631SOL    HW180667   5.479   2.562   1.894
59631SOL    HW280668   5.410   2.572   2.028
59632SOL     OW80669  12.933   0.962   8.971
59632SOL    HW180670  12.851   0.911   8.972
59632SOL    HW280671  12.906   1.049   8.943
59633SOL     OW80672  12.597  10.071   5.484
59633SOL    HW180673  12.686  10.044   5.507
59633SOL    HW280674  12.607  10.125   5.406
59634SOL     OW80675  13.866   8.580   8.894
59634SOL    HW180676  13.845   8.633   8.817
59634SOL    HW280677  13.781   8.565   8.936
59635SOL     OW80678  12.469   1.606   7.078
59635SOL    HW180679  12.446   1.682   7.025
59635SOL    HW280680  12.506   1.642   7.158
59636SOL     OW80681  12.625   1.970   6.060
59636SOL    HW180682  12.630   1.970   5.965
59636SOL    HW280683  12.647   2.060   6.085
59637SOL     OW80684   9.856  14.536  12.787
59637SOL    HW180685   9.844  14.506  12.877
59637SOL    HW280686   9.873  14.456  12.737
59638SOL     OW80687  13.401   7.461  11.726
59638SOL    HW180688  13.451   7.383  11.704
59638SOL    HW280689  13.383   7.452  11.819
59639SOL     OW80690  13.567  14.250   0.726
59639SOL    HW180691  13.511  14.327   0.729
59639SOL    HW280692  13.506  14.177   0.718
59640SOL     OW80693  10.538  13.714  14.506
59640SOL    HW180694  10.559  13.648  14.571
59640SOL    HW280695  10.518  13.793  14.557
59641SOL     OW80696   2.424   4.460   5.810
59641SOL    HW180697   2.441   4.488   5.720
59641SOL    HW280698   2.329   4.448   5.814
59642SOL     OW80699  13.631  12.169   4.333
59642SOL    HW180700  13.695  12.196   4.268
59642SOL    HW280701  13.548  12.167   4.286
59643SOL     OW80702   9.739   0.402  10.367
59643SOL    HW180703   9.802   0.357  10.311
59643SOL    HW280704   9.772   0.389  10.456
59644SOL     OW80705   9.495  14.079   7.447
59644SOL    HW180706   9.553  14.019   7.400
59644SOL    HW280707   9.537  14.091   7.532
59645SOL     OW80708   7.385  12.473   1.625
59645SOL    HW180709   7.302  12.459   1.670
59645SOL    HW280710   7.451  12.464   1.694
59646SOL     OW80711   5.000  13.528  12.107
59646SOL    HW180712   5.024  13.566  12.023
59646SOL    HW280713   5.041  13.584  12.172
59647SOL     OW80714   0.042   4.307   8.022
59647SOL    HW180715   0.002   4.390   8.051
59647SOL    HW280716  14.864   4.277   7.951
59648SOL     OW80717  12.087   8.707  10.588
59648SOL    HW180718  12.163   8.725  10.533
59648SOL    HW280719  12.059   8.793  10.619
59649SOL     OW80720   9.462   9.311  13.303
59649SOL    HW180721   9.385   9.366  13.318
59649SOL    HW280722   9.477   9.268  13.387
59650SOL     OW80723  14.324   6.593   5.518
59650SOL    HW180724  14.390   6.591   5.449
59650SOL    HW280725  14.305   6.686   5.530
59651SOL     OW80726  10.691   2.101   0.164
59651SOL    HW180727  10.775   2.146   0.178
59651SOL    HW280728  10.714   2.020   0.119
59652SOL     OW80729  13.199   5.167  10.961
59652SOL    HW180730  13.153   5.089  10.930
59652SOL    HW280731  13.130   5.224  10.995
59653SOL     OW80732  10.230   7.111  14.501
59653SOL    HW180733  10.244   7.202  14.527
59653SOL    HW280734  10.146   7.111  14.454
59654SOL     OW80735   2.668   7.392   9.659
59654SOL    HW180736   2.600   7.434   9.711
59654SOL    HW280737   2.663   7.299   9.683
59655SOL     OW80738   1.188  11.981   9.845
59655SOL    HW180739   1.181  11.915   9.914
59655SOL    HW280740   1.136  12.055   9.876
59656SOL     OW80741   6.632  12.906  10.925
59656SOL    HW180742   6.667  12.817  10.919
59656SOL    HW280743   6.578  12.905  11.004
59657SOL     OW80744  14.312   8.064   2.789
59657SOL    HW180745  14.219   8.060   2.810
59657SOL    HW280746  14.338   7.972   2.780
59658SOL     OW80747  10.213   6.814  10.060
59658SOL    HW180748  10.203   6.908  10.074
59658SOL    HW280749  10.291   6.805  10.007
59659SOL     OW80750  13.943   6.773  12.361
59659SOL    HW180751  13.859   6.733  12.381
59659SOL    HW280752  13.993   6.766  12.443
59660SOL     OW80753   0.098   9.620   9.762
59660SOL    HW180754   0.119   9.542   9.710
59660SOL    HW280755   0.139   9.692   9.715
59661SOL     OW80756   1.055  13.729   4.130
59661SOL    HW180757   1.086  13.812   4.094
59661SOL    HW280758   0.994  13.696   4.064
59662SOL     OW80759   7.097  14.678   3.736
59662SOL    HW180760   7.159  14.615   3.771
59662SOL    HW280761   7.117  14.682   3.642
59663SOL     OW80762   1.033  14.565   9.139
59663SOL    HW180763   0.952  14.600   9.176
59663SOL    HW280764   1.086  14.543   9.215
59664SOL     OW80765   5.129   5.339   4.881
59664SOL    HW180766   5.073   5.282   4.828
59664SOL    HW280767   5.070   5.379   4.944
59665SOL     OW80768   2.182   9.828   6.591
59665SOL    HW180769   2.201   9.746   6.634
59665SOL    HW280770   2.242   9.891   6.631
59666SOL     OW80771   4.293   2.715   3.901
59666SOL    HW180772   4.306   2.736   3.993
59666SOL    HW280773   4.239   2.636   3.902
59667SOL     OW80774   2.101  13.065   3.596
59667SOL    HW180775   2.119  13.029   3.509
59667SOL    HW280776   2.055  13.147   3.579
59668SOL     OW80777   1.521   6.119   5.346
59668SOL    HW180778   1.476   6.151   5.424
59668SOL    HW280779   1.557   6.034   5.372
59669SOL     OW80780   5.205   5.225   4.403
59669SOL    HW180781   5.243   5.308   4.372
59669SOL    HW280782   5.247   5.210   4.488
59670SOL     OW80783   9.677   1.380   0.597
59670SOL    HW180784   9.626   1.311   0.555
59670SOL    HW280785   9.763   1.340   0.612
59671SOL     OW80786  12.171  14.038  10.996
59671SOL    HW180787  12.088  14.062  11.036
59671SOL    HW280788  12.212  14.121  10.974
59672SOL     OW80789  13.755   9.306  13.900
59672SOL    HW180790  13.807   9.270  13.972
59672SOL    HW280791  13.765   9.401  13.908
59673SOL     OW80792  12.226   8.472   0.335
59673SOL    HW180793  12.221   8.376   0.331
59673SOL    HW280794  12.280   8.490   0.412
59674SOL     OW80795   9.162  10.794   6.638
59674SOL    HW180796   9.189  10.870   6.587
59674SOL    HW280797   9.071  10.779   6.614
59675SOL     OW80798   7.711  14.432  11.622
59675SOL    HW180799   7.677  14.521  11.616
59675SOL    HW280800   7.747  14.426  11.710
59676SOL     OW80801  14.021   6.429   6.632
59676SOL    HW180802  14.070   6.380   6.698
59676SOL    HW280803  14.028   6.521   6.659
59677SOL     OW80804  10.002   8.279   2.597
59677SOL    HW180805  10.046   8.361   2.620
59677SOL    HW280806  10.069   8.229   2.550
59678SOL     OW80807   5.813   0.407   8.413
59678SOL    HW180808   5.827   0.499   8.432
59678SOL    HW280809   5.899   0.374   8.386
59679SOL     OW80810   2.719  10.421   5.713
59679SOL    HW180811   2.637  10.458   5.747
59679SOL    HW280812   2.701  10.409   5.619
59680SOL     OW80813   5.495  11.452   4.406
59680SOL    HW180814   5.425  11.399   4.444
59680SOL    HW280815   5.575  11.419   4.447
59681SOL     OW80816   7.365  12.742   4.314
59681SOL    HW180817   7.389  12.806   4.381
59681SOL    HW280818   7.443  12.737   4.258
59682SOL     OW80819  13.055   2.011  14.424
59682SOL    HW180820  12.993   1.969  14.484
59682SOL    HW280821  13.115   2.060  14.481
59683SOL     OW80822  12.475   9.880   8.655
59683SOL    HW180823  12.560   9.875   8.610
59683SOL    HW280824  12.417   9.921   8.591
59684SOL     OW80825  12.282  13.486  14.011
59684SOL    HW180826  12.206  13.525  13.968
59684SOL    HW280827  12.248  13.452  14.093
59685SOL     OW80828  13.695   0.247   8.258
59685SOL    HW180829  13.608   0.284   8.276
59685SOL    HW280830  13.682   0.193   8.180
59686SOL     OW80831   9.139   4.674   1.344
59686SOL    HW180832   9.203   4.607   1.370
59686SOL    HW280833   9.068   4.624   1.303
59687SOL     OW80834   6.391  10.455  11.469
59687SOL    HW180835   6.485  10.468  11.476
59687SOL    HW280836   6.367  10.407  11.549
59688SOL     OW80837   9.341   0.261  12.093
59688SOL    HW180838   9.348   0.295  12.182
59688SOL    HW280839   9.397   0.318  12.041
59689SOL     OW80840   2.017  10.775   5.887
59689SOL    HW180841   1.986  10.850   5.938
59689SOL    HW280842   1.939  10.745   5.839
59690SOL     OW80843   8.415   7.262   0.344
59690SOL    HW180844   8.344   7.271   0.407
59690SOL    HW280845   8.492   7.239   0.396
59691SOL     OW80846   6.811   9.898   5.977
59691SOL    HW180847   6.889   9.918   5.926
59691SOL    HW280848   6.812   9.961   6.049
59692SOL     OW80849  11.974   1.050   9.722
59692SOL    HW180850  11.964   0.995   9.644
59692SOL    HW280851  12.062   1.086   9.714
59693SOL     OW80852   7.101   5.220   8.712
59693SOL    HW180853   7.119   5.312   8.697
59693SOL    HW280854   7.062   5.217   8.800
59694SOL     OW80855   1.595   9.244  10.891
59694SOL    HW180856   1.674   9.219  10.843
59694SOL    HW280857   1.627   9.278  10.975
59695SOL     OW80858   5.143  10.623   4.255
59695SOL    HW180859   5.181  10.542   4.221
59695SOL    HW280860   5.217  10.671   4.291
59696SOL     OW80861  14.670  11.130   7.658
59696SOL    HW180862  14.679  11.043   7.696
59696SOL    HW280863  14.714  11.124   7.573
59697SOL     OW80864  14.551   5.271   3.595
59697SOL    HW180865  14.610   5.321   3.651
59697SOL    HW280866  14.533   5.328   3.520
59698SOL     OW80867  13.796  10.051  14.612
59698SOL    HW180868  13.838  10.066  14.528
59698SOL    HW280869  13.703  10.066  14.595
59699SOL     OW80870   0.855  13.804  14.149
59699SOL    HW180871   0.854  13.776  14.057
59699SOL    HW280872   0.939  13.849  14.159
59700SOL     OW80873   2.185  12.552   4.316
59700SOL    HW180874   2.179  12.627   4.376
59700SOL    HW280875   2.273  12.519   4.329
59701SOL     OW80876   6.108  10.151  11.503
59701SOL    HW180877   6.199  10.125  11.514
59701SOL    HW280878   6.058  10.084  11.549
59702SOL     OW80879   6.396   7.034   5.931
59702SOL    HW180880   6.303   7.050   5.923
59702SOL    HW280881   6.418   7.058   6.021
59703SOL     OW80882  13.402  11.390   6.712
59703SOL    HW180883  13.480  11.404   6.765
59703SOL    HW280884  13.337  11.355   6.773
59704SOL     OW80885   3.754  13.152   4.055
59704SOL    HW180886   3.704  13.079   4.090
59704SOL    HW280887   3.701  13.185   3.982
59705SOL     OW80888   4.250   1.522   0.729
59705SOL    HW180889   4.293   1.604   0.755
59705SOL    HW280890   4.164   1.549   0.697
59706SOL     OW80891  10.997  13.363   7.756
59706SOL    HW180892  10.947  13.291   7.794
59706SOL    HW280893  11.032  13.410   7.832
59707SOL     OW80894   7.886  10.009  10.903
59707SOL    HW180895   7.973  10.048  10.916
59707SOL    HW280896   7.851   9.998  10.991
59708SOL     OW80897   7.088   8.930   2.416
59708SOL    HW180898   7.083   8.893   2.328
59708SOL    HW280899   7.166   8.987   2.414
59709SOL     OW80900   4.949   7.275   9.119
59709SOL    HW180901   4.909   7.194   9.149
59709SOL    HW280902   5.041   7.253   9.104
59710SOL     OW80903   3.336   3.949   1.865
59710SOL    HW180904   3.377   4.001   1.795
59710SOL    HW280905   3.330   4.010   1.939
59711SOL     OW80906  13.982  14.581   6.180
59711SOL    HW180907  13.928  14.513   6.220
59711SOL    HW280908  14.033  14.617   6.253
59712SOL     OW80909   8.506  11.996  11.190
59712SOL    HW180910   8.478  11.908  11.168
59712SOL    HW280911   8.602  11.993  11.182
59713SOL     OW80912  11.923   9.178   2.237
59713SOL    HW180913  11.856   9.225   2.188
59713SOL    HW280914  11.884   9.164   2.324
59714SOL     OW80915   9.268  12.128   9.412
59714SOL    HW180916   9.328  12.085   9.473
59714SOL    HW280917   9.280  12.221   9.429
59715SOL     OW80918   3.271   4.471   9.380
59715SOL    HW180919   3.272   4.567   9.369
59715SOL    HW280920   3.307   4.457   9.467
59716SOL     OW80921   1.569   8.458  11.213
59716SOL    HW180922   1.481   8.485  11.240
59716SOL    HW280923   1.584   8.504  11.130
59717SOL     OW80924  13.973  12.290   1.980
59717SOL    HW180925  13.892  12.331   2.009
59717SOL    HW280926  14.016  12.358   1.927
59718SOL     OW80927   2.065  11.406   5.260
59718SOL    HW180928   2.024  11.489   5.285
59718SOL    HW280929   1.991  11.347   5.244
59719SOL     OW80930  12.704   6.419   7.110
59719SOL    HW180931  12.699   6.325   7.131
59719SOL    HW280932  12.644   6.430   7.036
59720SOL     OW80933  11.402   0.656   4.767
59720SOL    HW180934  11.486   0.654   4.814
59720SOL    HW280935  11.418   0.605   4.687
59721SOL     OW80936   0.525  12.730  12.830
59721SOL    HW180937   0.575  12.805  12.798
59721SOL    HW280938   0.551  12.658  12.773
59722SOL     OW80939  12.154   4.123   6.017
59722SOL    HW180940  12.200   4.046   6.051
59722SOL    HW280941  12.223   4.177   5.978
59723SOL     OW80942   4.879  11.759  12.113
59723SOL    HW180943   4.854  11.741  12.204
59723SOL    HW280944   4.827  11.698  12.062
59724SOL     OW80945   8.234  12.885  11.843
59724SOL    HW180946   8.170  12.872  11.912
59724SOL    HW280947   8.242  12.980  11.834
59725SOL     OW80948   1.453   8.936  12.422
59725SOL    HW180949   1.433   8.984  12.502
59725SOL    HW280950   1.449   9.002  12.353
59726SOL     OW80951  11.455   4.225  12.531
59726SOL    HW180952  11.505   4.166  12.587
59726SOL    HW280953  11.375   4.176  12.510
59727SOL     OW80954   0.993  13.088   6.284
59727SOL    HW180955   0.909  13.071   6.327
59727SOL    HW280956   1.005  13.015   6.224
59728SOL     OW80957   2.735   9.570  13.002
59728SOL    HW180958   2.803   9.507  12.980
59728SOL    HW280959   2.777   9.632  13.061
59729SOL     OW80960  11.260   5.660   7.066
59729SOL    HW180961  11.203   5.724   7.023
59729SOL    HW280962  11.328   5.712   7.108
59730SOL     OW80963   2.066  14.388  14.232
59730SOL    HW180964   2.158  14.395  14.259
59730SOL    HW280965   2.035  14.307  14.272
59731SOL     OW80966   3.609   0.419   5.715
59731SOL    HW180967   3.605   0.400   5.809
59731SOL    HW280968   3.700   0.400   5.691
59732SOL     OW80969   0.257   3.243   4.451
59732SOL    HW180970   0.305   3.196   4.520
59732SOL    HW280971   0.314   3.318   4.430
59733SOL     OW80972   9.141   1.264  10.949
59733SOL    HW180973   9.181   1.298  11.030
59733SOL    HW280974   9.107   1.178  10.974
59734SOL     OW80975   4.976   3.974   1.047
59734SOL    HW180976   5.018   4.009   1.125
59734SOL    HW280977   5.001   4.035   0.977
59735SOL     OW80978   3.052   6.436   7.079
59735SOL    HW180979   3.012   6.421   7.164
59735SOL    HW280980   2.986   6.409   7.015
59736SOL     OW80981   8.951   1.697   2.055
59736SOL    HW180982   8.964   1.712   1.962
59736SOL    HW280983   9.012   1.626   2.077
59737SOL     OW80984   4.225   6.295   2.562
59737SOL    HW180985   4.286   6.228   2.531
59737SOL    HW280986   4.140   6.269   2.525
59738SOL     OW80987  11.319   6.641  14.444
59738SOL    HW180988  11.225   6.626  14.442
59738SOL    HW280989  11.358   6.558  14.417
59739SOL     OW80990   1.490   5.792   9.046
59739SOL    HW180991   1.559   5.823   9.106
59739SOL    HW280992   1.464   5.707   9.082
59740SOL     OW80993   7.814   0.076  12.393
59740SOL    HW180994   7.831   0.144  12.457
59740SOL    HW280995   7.873   0.096  12.320
59741SOL     OW80996   7.701  11.727   8.618
59741SOL    HW180997   7.649  11.651   8.596
59741SOL    HW280998   7.709  11.724   8.714
59742SOL     OW80999   3.267  10.886   3.760
59742SOL    HW181000   3.195  10.932   3.804
59742SOL    HW281001   3.335  10.953   3.749
59743SOL     OW81002  14.009   6.375   3.231
59743SOL    HW181003  14.065   6.450   3.210
59743SOL    HW281004  13.952   6.407   3.301
59744SOL     OW81005   2.893  11.313  12.083
59744SOL    HW181006   2.923  11.309  11.993
59744SOL    HW281007   2.839  11.392  12.087
59745SOL     OW81008   5.922  12.154  10.393
59745SOL    HW181009   5.986  12.109  10.337
59745SOL    HW281010   5.938  12.247  10.377
59746SOL     OW81011   1.838  12.389   8.206
59746SOL    HW181012   1.871  12.463   8.256
59746SOL    HW281013   1.900  12.318   8.222
59747SOL     OW81014   0.031  13.977   7.138
59747SOL    HW181015   0.070  13.974   7.225
59747SOL    HW281016   0.047  13.889   7.102
59748SOL     OW81017   1.474  14.490   7.415
59748SOL    HW181018   1.398  14.434   7.399
59748SOL    HW281019   1.515  14.454   7.494
59749SOL     OW81020   9.395   8.860   9.651
59749SOL    HW181021   9.401   8.776   9.605
59749SOL    HW281022   9.442   8.922   9.595
59750SOL     OW81023   2.914   9.101   6.806
59750SOL    HW181024   2.840   9.045   6.831
59750SOL    HW281025   2.879   9.190   6.811
59751SOL     OW81026   2.616  13.688   2.357
59751SOL    HW181027   2.597  13.767   2.407
59751SOL    HW281028   2.629  13.719   2.268
59752SOL     OW81029   0.804  12.526   3.070
59752SOL    HW181030   0.867  12.598   3.061
59752SOL    HW281031   0.852  12.448   3.042
59753SOL     OW81032   2.998  13.605   5.671
59753SOL    HW181033   2.904  13.620   5.661
59753SOL    HW281034   3.035  13.634   5.588
59754SOL     OW81035  10.939  12.229   8.834
59754SOL    HW181036  10.970  12.206   8.746
59754SOL    HW281037  10.912  12.145   8.872
59755SOL     OW81038   3.639  13.343   2.453
59755SOL    HW181039   3.661  13.426   2.494
59755SOL    HW281040   3.648  13.360   2.359
59756SOL     OW81041   6.423   0.022   1.162
59756SOL    HW181042   6.466  14.822   1.198
59756SOL    HW281043   6.458   0.030   1.073
59757SOL     OW81044   8.226  10.526   9.792
59757SOL    HW181045   8.132  10.519   9.804
59757SOL    HW281046   8.257  10.436   9.791
59758SOL     OW81047  13.318  12.909   7.480
59758SOL    HW181048  13.340  12.841   7.543
59758SOL    HW281049  13.274  12.976   7.533
59759SOL     OW81050   5.745   1.999   5.092
59759SOL    HW181051   5.728   2.093   5.094
59759SOL    HW281052   5.799   1.986   5.015
59760SOL     OW81053   5.717   8.792   8.947
59760SOL    HW181054   5.802   8.767   8.982
59760SOL    HW281055   5.738   8.846   8.871
59761SOL     OW81056   7.386   8.786  13.177
59761SOL    HW181057   7.303   8.740  13.191
59761SOL    HW281058   7.450   8.717  13.159
59762SOL     OW81059   6.093   4.393   6.626
59762SOL    HW181060   6.012   4.434   6.655
59762SOL    HW281061   6.085   4.301   6.651
59763SOL     OW81062   3.803   0.392   7.664
59763SOL    HW181063   3.804   0.381   7.759
59763SOL    HW281064   3.878   0.447   7.645
59764SOL     OW81065   0.442   2.596  13.514
59764SOL    HW181066   0.480   2.665  13.460
59764SOL    HW281067   0.348   2.614  13.513
59765SOL     OW81068  14.617   6.679   5.605
59765SOL    HW181069  14.584   6.589   5.611
59765SOL    HW281070  14.649   6.698   5.694
59766SOL     OW81071  10.509   9.113   8.540
59766SOL    HW181072  10.448   9.186   8.529
59766SOL    HW281073  10.531   9.087   8.450
59767SOL     OW81074   8.708   3.417   0.515
59767SOL    HW181075   8.634   3.411   0.576
59767SOL    HW281076   8.775   3.466   0.562
59768SOL     OW81077  10.276  11.170   9.084
59768SOL    HW181078  10.246  11.130   9.166
59768SOL    HW281079  10.303  11.258   9.109
59769SOL     OW81080   8.331  13.407  10.268
59769SOL    HW181081   8.243  13.370  10.263
59769SOL    HW281082   8.343  13.429  10.360
59770SOL     OW81083  14.417  11.548  11.622
59770SOL    HW181084  14.472  11.558  11.543
59770SOL    HW281085  14.377  11.462  11.612
59771SOL     OW81086   6.215   5.070   1.716
59771SOL    HW181087   6.155   4.996   1.731
59771SOL    HW281088   6.301   5.037   1.741
59772SOL     OW81089   1.151  11.573  10.295
59772SOL    HW181090   1.240  11.608  10.283
59772SOL    HW281091   1.144  11.557  10.389
59773SOL     OW81092   1.716   4.504  11.477
59773SOL    HW181093   1.734   4.410  11.482
59773SOL    HW281094   1.633   4.510  11.429
59774SOL     OW81095   0.578   5.065   2.936
59774SOL    HW181096   0.602   5.079   3.027
59774SOL    HW281097   0.483   5.070   2.935
59775SOL     OW81098   1.038   0.958   9.326
59775SOL    HW181099   1.010   1.036   9.279
59775SOL    HW281100   0.958   0.910   9.343
59776SOL     OW81101   9.762  12.127   3.326
59776SOL    HW181102   9.753  12.164   3.414
59776SOL    HW281103   9.752  12.202   3.268
59777SOL     OW81104   7.831  13.212   8.120
59777SOL    HW181105   7.894  13.149   8.156
59777SOL    HW281106   7.845  13.291   8.172
59778SOL     OW81107  12.296  10.522  10.988
59778SOL    HW181108  12.380  10.478  11.003
59778SOL    HW281109  12.298  10.598  11.046
59779SOL     OW81110  13.010   2.365   9.315
59779SOL    HW181111  12.923   2.378   9.352
59779SOL    HW281112  13.053   2.451   9.324
59780SOL     OW81113   7.381  12.514   4.856
59780SOL    HW181114   7.409  12.524   4.766
59780SOL    HW281115   7.309  12.451   4.852
59781SOL     OW81116   3.178  11.567  14.246
59781SOL    HW181117   3.116  11.621  14.293
59781SOL    HW281118   3.257  11.566  14.300
59782SOL     OW81119   4.051   3.063  14.410
59782SOL    HW181120   4.007   2.986  14.374
59782SOL    HW281121   4.131   3.029  14.450
59783SOL     OW81122  13.586   9.323   9.228
59783SOL    HW181123  13.627   9.384   9.166
59783SOL    HW281124  13.657   9.298   9.288
59784SOL     OW81125   7.808   3.932   1.746
59784SOL    HW181126   7.744   3.874   1.706
59784SOL    HW281127   7.859   3.876   1.804
59785SOL     OW81128   8.745   4.950   1.977
59785SOL    HW181129   8.822   4.970   1.923
59785SOL    HW281130   8.675   4.936   1.913
59786SOL     OW81131   7.246   4.745  10.411
59786SOL    HW181132   7.316   4.802  10.445
59786SOL    HW281133   7.210   4.793  10.337
59787SOL     OW81134   3.550   5.535   3.774
59787SOL    HW181135   3.510   5.481   3.706
59787SOL    HW281136   3.632   5.566   3.735
59788SOL     OW81137   9.655   2.302   8.406
59788SOL    HW181138   9.586   2.349   8.360
59788SOL    HW281139   9.733   2.314   8.352
59789SOL     OW81140   4.595  11.177   3.765
59789SOL    HW181141   4.579  11.103   3.707
59789SOL    HW281142   4.628  11.138   3.846
59790SOL     OW81143   4.921  13.941   3.736
59790SOL    HW181144   4.837  13.926   3.692
59790SOL    HW281145   4.972  13.993   3.674
59791SOL     OW81146  10.103  14.083   4.384
59791SOL    HW181147  10.166  14.153   4.404
59791SOL    HW281148  10.138  14.043   4.304
59792SOL     OW81149   5.375  12.262   8.799
59792SOL    HW181150   5.307  12.201   8.769
59792SOL    HW281151   5.352  12.280   8.890
59793SOL     OW81152  12.613   1.165   5.898
59793SOL    HW181153  12.569   1.134   5.978
59793SOL    HW281154  12.636   1.256   5.916
59794SOL     OW81155   1.441   4.406   4.329
59794SOL    HW181156   1.448   4.499   4.306
59794SOL    HW281157   1.360   4.377   4.287
59795SOL     OW81158   9.626  11.868  12.910
59795SOL    HW181159   9.549  11.904  12.866
59795SOL    HW281160   9.601  11.779  12.934
59796SOL     OW81161  13.344  13.261  10.998
59796SOL    HW181162  13.309  13.306  10.921
59796SOL    HW281163  13.434  13.290  11.005
59797SOL     OW81164   9.573  11.673  10.938
59797SOL    HW181165   9.479  11.662  10.946
59797SOL    HW281166   9.595  11.635  10.853
59798SOL     OW81167   8.157  12.787  13.581
59798SOL    HW181168   8.239  12.745  13.605
59798SOL    HW281169   8.166  12.877  13.611
59799SOL     OW81170  12.214   5.990   4.134
59799SOL    HW181171  12.155   5.928   4.176
59799SOL    HW281172  12.198   6.073   4.179
59800SOL     OW81173   0.739   5.546  11.916
59800SOL    HW181174   0.816   5.490  11.904
59800SOL    HW281175   0.724   5.585  11.830
59801SOL     OW81176   0.282   3.983   6.738
59801SOL    HW181177   0.346   3.913   6.755
59801SOL    HW281178   0.321   4.034   6.667
59802SOL     OW81179   0.713   9.333   3.796
59802SOL    HW181180   0.793   9.324   3.848
59802SOL    HW281181   0.722   9.268   3.726
59803SOL     OW81182   5.752   6.993   5.550
59803SOL    HW181183   5.685   6.997   5.483
59803SOL    HW281184   5.834   6.978   5.502
59804SOL     OW81185   0.480  11.610   2.356
59804SOL    HW181186   0.452  11.695   2.323
59804SOL    HW281187   0.445  11.605   2.445
59805SOL     OW81188  14.254   1.968   5.903
59805SOL    HW181189  14.260   2.062   5.918
59805SOL    HW281190  14.228   1.932   5.988
59806SOL     OW81191   1.369   1.010   8.777
59806SOL    HW181192   1.450   1.061   8.771
59806SOL    HW281193   1.356   0.974   8.689
59807SOL     OW81194  11.495   7.380   4.106
59807SOL    HW181195  11.417   7.407   4.152
59807SOL    HW281196  11.534   7.461   4.073
59808SOL     OW81197   4.696   5.128  11.093
59808SOL    HW181198   4.662   5.200  11.145
59808SOL    HW281199   4.753   5.080  11.152
59809SOL     OW81200  14.867  14.750  10.032
59809SOL    HW181201  14.838  14.841  10.045
59809SOL    HW281202  14.867  14.713  10.120
59810SOL     OW81203   1.657  14.556   1.418
59810SOL    HW181204   1.572  14.570   1.378
59810SOL    HW281205   1.688  14.643   1.441
59811SOL     OW81206   2.441  12.077   9.638
59811SOL    HW181207   2.498  12.025   9.695
59811SOL    HW281208   2.396  12.012   9.584
59812SOL     OW81209  13.945   0.205   2.286
59812SOL    HW181210  13.944   0.127   2.231
59812SOL    HW281211  13.913   0.175   2.371
59813SOL     OW81212  12.599   4.921  14.826
59813SOL    HW181213  12.692   4.910  14.844
59813SOL    HW281214  12.594   4.925  14.731
59814SOL     OW81215   3.832   6.889  13.343
59814SOL    HW181216   3.754   6.924  13.386
59814SOL    HW281217   3.903   6.905  13.405
59815SOL     OW81218   7.665   5.956  12.853
59815SOL    HW181219   7.583   5.936  12.807
59815SOL    HW281220   7.716   6.006  12.789
59816SOL     OW81221  14.043   5.141  11.669
59816SOL    HW181222  14.076   5.052  11.678
59816SOL    HW281223  13.969   5.145  11.729
59817SOL     OW81224  11.650  13.318   5.375
59817SOL    HW181225  11.695  13.310   5.459
59817SOL    HW281226  11.690  13.395   5.334
59818SOL     OW81227   0.722   7.151  10.798
59818SOL    HW181228   0.668   7.210  10.851
59818SOL    HW281229   0.808   7.154  10.840
59819SOL     OW81230  10.445  13.190   7.885
59819SOL    HW181231  10.395  13.156   7.811
59819SOL    HW281232  10.422  13.283   7.888
59820SOL     OW81233  11.899  13.767   7.906
59820SOL    HW181234  11.989  13.775   7.874
59820SOL    HW281235  11.903  13.797   7.997
59821SOL     OW81236   3.346   0.989   1.726
59821SOL    HW181237   3.350   1.081   1.699
59821SOL    HW281238   3.294   0.990   1.806
59822SOL     OW81239   1.950  12.350   5.558
59822SOL    HW181240   1.991  12.340   5.472
59822SOL    HW281241   2.021  12.334   5.620
59823SOL     OW81242  14.546   4.860   6.807
59823SOL    HW181243  14.453   4.883   6.794
59823SOL    HW281244  14.593   4.939   6.778
59824SOL     OW81245   4.380   9.811   8.221
59824SOL    HW181246   4.460   9.854   8.191
59824SOL    HW281247   4.311   9.874   8.205
59825SOL     OW81248   0.159   8.886   8.103
59825SOL    HW181249   0.203   8.945   8.041
59825SOL    HW281250   0.087   8.937   8.138
59826SOL     OW81251   2.698  11.392   8.568
59826SOL    HW181252   2.631  11.362   8.507
59826SOL    HW281253   2.649  11.438   8.637
59827SOL     OW81254   3.509  12.643  12.907
59827SOL    HW181255   3.532  12.566  12.960
59827SOL    HW281256   3.522  12.614  12.817
59828SOL     OW81257   8.096   6.760   3.332
59828SOL    HW181258   8.185   6.759   3.366
59828SOL    HW281259   8.102   6.810   3.251
59829SOL     OW81260   7.917   6.788  11.200
59829SOL    HW181261   7.839   6.825  11.157
59829SOL    HW281262   7.882   6.722  11.260
59830SOL     OW81263   4.751   0.259   0.061
59830SOL    HW181264   4.683   0.325   0.074
59830SOL    HW281265   4.756   0.248  14.844
59831SOL     OW81266   7.864   3.256   7.010
59831SOL    HW181267   7.891   3.168   7.034
59831SOL    HW281268   7.895   3.312   7.081
59832SOL     OW81269  10.819  11.802  11.425
59832SOL    HW181270  10.734  11.806  11.469
59832SOL    HW281271  10.881  11.838  11.488
59833SOL     OW81272  10.357  10.273   5.641
59833SOL    HW181273  10.367  10.189   5.596
59833SOL    HW281274  10.387  10.256   5.730
59834SOL     OW81275  10.754  12.435   8.526
59834SOL    HW181276  10.782  12.524   8.548
59834SOL    HW281277  10.687  12.447   8.458
59835SOL     OW81278  10.900   6.222  10.592
59835SOL    HW181279  10.810   6.213  10.561
59835SOL    HW281280  10.949   6.248  10.514
59836SOL     OW81281  13.994   7.813   6.187
59836SOL    HW181282  14.055   7.765   6.244
59836SOL    HW281283  13.955   7.745   6.132
59837SOL     OW81284  10.420   2.790   4.858
59837SOL    HW181285  10.437   2.884   4.852
59837SOL    HW281286  10.406   2.774   4.951
59838SOL     OW81287   1.491   5.038   9.451
59838SOL    HW181288   1.458   4.992   9.529
59838SOL    HW281289   1.530   4.970   9.397
59839SOL     OW81290   5.231   4.972  11.706
59839SOL    HW181291   5.289   4.945  11.635
59839SOL    HW281292   5.143   4.959  11.670
59840SOL     OW81293   5.174  13.575   2.733
59840SOL    HW181294   5.137  13.487   2.720
59840SOL    HW281295   5.114  13.633   2.687
59841SOL     OW81296   5.956   5.175  13.298
59841SOL    HW181297   5.913   5.104  13.345
59841SOL    HW281298   6.041   5.139  13.274
59842SOL     OW81299   5.978  10.641   0.054
59842SOL    HW181300   5.915  10.685   0.110
59842SOL    HW281301   6.062  10.682   0.075
59843SOL     OW81302   3.888   0.774  12.877
59843SOL    HW181303   3.913   0.847  12.934
59843SOL    HW281304   3.971   0.746  12.838
59844SOL     OW81305  12.649   2.579   3.827
59844SOL    HW181306  12.564   2.622   3.821
59844SOL    HW281307  12.640   2.517   3.900
59845SOL     OW81308   6.130   0.325   1.830
59845SOL    HW181309   6.038   0.344   1.808
59845SOL    HW281310   6.170   0.298   1.747
59846SOL     OW81311   9.435   9.362   3.974
59846SOL    HW181312   9.403   9.384   4.061
59846SOL    HW281313   9.454   9.268   3.978
59847SOL     OW81314   3.092  10.494  13.259
59847SOL    HW181315   3.128  10.455  13.179
59847SOL    HW281316   3.131  10.581  13.263
59848SOL     OW81317   1.918  10.249   0.460
59848SOL    HW181318   1.923  10.303   0.538
59848SOL    HW281319   2.007  10.216   0.448
59849SOL     OW81320   0.079   7.243   6.896
59849SOL    HW181321   0.078   7.280   6.808
59849SOL    HW281322   0.157   7.187   6.898
59850SOL     OW81323   4.366  10.503  13.786
59850SOL    HW181324   4.459  10.498  13.810
59850SOL    HW281325   4.356  10.589  13.745
59851SOL     OW81326  12.266   2.061   5.355
59851SOL    HW181327  12.284   2.143   5.307
59851SOL    HW281328  12.324   1.997   5.314
59852SOL     OW81329  12.153  10.081  10.642
59852SOL    HW181330  12.079  10.075  10.582
59852SOL    HW281331  12.195  10.165  10.620
59853SOL     OW81332   7.487   7.448   5.874
59853SOL    HW181333   7.518   7.377   5.930
59853SOL    HW281334   7.500   7.417   5.785
59854SOL     OW81335   0.392  12.672   9.759
59854SOL    HW181336   0.454  12.679   9.687
59854SOL    HW281337   0.446  12.653   9.836
59855SOL     OW81338   6.026  11.376   9.492
59855SOL    HW181339   5.966  11.412   9.426
59855SOL    HW281340   6.060  11.453   9.538
59856SOL     OW81341   0.021   0.887   3.392
59856SOL    HW181342   0.065   0.865   3.310
59856SOL    HW281343  14.863   0.804   3.423
59857SOL     OW81344   1.329  11.989   3.360
59857SOL    HW181345   1.305  12.028   3.444
59857SOL    HW281346   1.275  12.034   3.295
59858SOL     OW81347  14.209   4.225  14.022
59858SOL    HW181348  14.268   4.280  13.972
59858SOL    HW281349  14.166   4.285  14.083
59859SOL     OW81350  10.044   6.468  14.614
59859SOL    HW181351  10.062   6.553  14.575
59859SOL    HW281352  10.121   6.449  14.668
59860SOL     OW81353   0.095   6.038  12.296
59860SOL    HW181354   0.091   5.995  12.210
59860SOL    HW281355   0.059   5.973  12.357
59861SOL     OW81356  14.119   0.021  11.002
59861SOL    HW181357  14.140  14.845  11.079
59861SOL    HW281358  14.194   0.010  10.943
59862SOL     OW81359  10.857   7.479  10.787
59862SOL    HW181360  10.910   7.558  10.801
59862SOL    HW281361  10.888   7.444  10.703
59863SOL     OW81362   6.129   0.716  12.189
59863SOL    HW181363   6.146   0.803  12.226
59863SOL    HW281364   6.213   0.689  12.152
59864SOL     OW81365   9.816   3.389   6.149
59864SOL    HW181366   9.732   3.358   6.182
59864SOL    HW281367   9.848   3.317   6.094
59865SOL     OW81368   6.573   0.501   8.960
59865SOL    HW181369   6.577   0.584   8.912
59865SOL    HW281370   6.664   0.474   8.968
59866SOL     OW81371  10.993  13.460   9.797
59866SOL    HW181372  10.977  13.508   9.878
59866SOL    HW281373  11.001  13.369   9.824
59867SOL     OW81374   4.180   3.605   3.729
59867SOL    HW181375   4.172   3.525   3.781
59867SOL    HW281376   4.265   3.598   3.687
59868SOL     OW81377  11.295   9.727   4.866
59868SOL    HW181378  11.248   9.644   4.875
59868SOL    HW281379  11.333   9.743   4.952
59869SOL     OW81380   0.798  13.479   8.862
59869SOL    HW181381   0.876  13.533   8.844
59869SOL    HW281382   0.766  13.511   8.946
59870SOL     OW81383   9.339   2.598   6.050
59870SOL    HW181384   9.392   2.602   6.130
59870SOL    HW281385   9.253   2.570   6.080
59871SOL     OW81386   6.567   3.432   0.266
59871SOL    HW181387   6.560   3.508   0.324
59871SOL    HW281388   6.638   3.453   0.206
59872SOL     OW81389   6.857   9.524  12.346
59872SOL    HW181390   6.821   9.498  12.431
59872SOL    HW281391   6.929   9.463  12.331
59873SOL     OW81392   8.254   1.883   5.752
59873SOL    HW181393   8.324   1.944   5.729
59873SOL    HW281394   8.293   1.825   5.818
59874SOL     OW81395   7.501  10.540   9.175
59874SOL    HW181396   7.580  10.487   9.160
59874SOL    HW281397   7.534  10.626   9.199
59875SOL     OW81398   8.026   0.261   6.360
59875SOL    HW181399   7.943   0.261   6.407
59875SOL    HW281400   8.029   0.177   6.315
59876SOL     OW81401  11.226   4.092   8.460
59876SOL    HW181402  11.299   4.123   8.515
59876SOL    HW281403  11.257   4.009   8.424
59877SOL     OW81404   3.909   9.469   2.878
59877SOL    HW181405   3.859   9.406   2.826
59877SOL    HW281406   3.928   9.541   2.818
59878SOL     OW81407  14.343  13.802   5.248
59878SOL    HW181408  14.313  13.712   5.254
59878SOL    HW281409  14.263  13.853   5.231
59879SOL     OW81410   0.709   4.180   9.077
59879SOL    HW181411   0.736   4.237   9.150
59879SOL    HW281412   0.645   4.232   9.029
59880SOL     OW81413   6.268   7.551   7.376
59880SOL    HW181414   6.286   7.594   7.459
59880SOL    HW281415   6.352   7.510   7.351
59881SOL     OW81416   1.795  11.331   1.841
59881SOL    HW181417   1.734  11.264   1.810
59881SOL    HW281418   1.853  11.284   1.901
59882SOL     OW81419   3.943   8.792   4.078
59882SOL    HW181420   3.934   8.707   4.120
59882SOL    HW281421   3.889   8.786   3.999
59883SOL     OW81422   1.164   8.483   5.951
59883SOL    HW181423   1.127   8.471   5.864
59883SOL    HW281424   1.121   8.416   6.005
59884SOL     OW81425   1.663   1.733  12.785
59884SOL    HW181426   1.746   1.780  12.787
59884SOL    HW281427   1.630   1.738  12.874
59885SOL     OW81428   0.507  11.185   1.549
59885SOL    HW181429   0.565  11.234   1.608
59885SOL    HW281430   0.424  11.182   1.596
59886SOL     OW81431  12.716   3.486   4.393
59886SOL    HW181432  12.732   3.539   4.315
59886SOL    HW281433  12.795   3.496   4.446
59887SOL     OW81434   8.039  12.006   1.961
59887SOL    HW181435   8.118  11.983   2.009
59887SOL    HW281436   8.061  12.090   1.919
59888SOL     OW81437  10.280   3.202   8.346
59888SOL    HW181438  10.316   3.117   8.372
59888SOL    HW281439  10.198   3.181   8.302
59889SOL     OW81440  11.180   3.182   5.082
59889SOL    HW181441  11.156   3.179   5.174
59889SOL    HW281442  11.126   3.115   5.040
59890SOL     OW81443   9.033   9.991   0.564
59890SOL    HW181444   9.102   9.970   0.626
59890SOL    HW281445   9.005  10.080   0.588
59891SOL     OW81446   5.892   6.817  11.008
59891SOL    HW181447   5.797   6.803  11.015
59891SOL    HW281448   5.923   6.817  11.099
59892SOL     OW81449  11.601   1.656   1.587
59892SOL    HW181450  11.669   1.678   1.523
59892SOL    HW281451  11.641   1.672   1.672
59893SOL     OW81452  12.060   5.791  13.676
59893SOL    HW181453  12.144   5.836  13.689
59893SOL    HW281454  12.058   5.773  13.582
59894SOL     OW81455   8.571   0.468   3.532
59894SOL    HW181456   8.627   0.391   3.549
59894SOL    HW281457   8.617   0.540   3.574
59895SOL     OW81458  10.658  13.642  10.442
59895SOL    HW181459  10.572  13.599  10.438
59895SOL    HW281460  10.644  13.728  10.401
59896SOL     OW81461  11.533  12.123   3.416
59896SOL    HW181462  11.493  12.046   3.457
59896SOL    HW281463  11.496  12.198   3.463
59897SOL     OW81464  13.322  12.293   4.277
59897SOL    HW181465  13.229  12.316   4.271
59897SOL    HW281466  13.367  12.369   4.240
59898SOL     OW81467   2.763   1.032   2.290
59898SOL    HW181468   2.718   0.968   2.235
59898SOL    HW281469   2.709   1.037   2.369
59899SOL     OW81470   4.181   4.119   8.017
59899SOL    HW181471   4.204   4.212   8.017
59899SOL    HW281472   4.250   4.077   8.067
59900SOL     OW81473  10.555   1.181   7.963
59900SOL    HW181474  10.497   1.244   8.007
59900SOL    HW281475  10.502   1.101   7.957
59901SOL     OW81476  14.095  11.257  13.428
59901SOL    HW181477  14.084  11.182  13.486
59901SOL    HW281478  14.105  11.219  13.341
59902SOL     OW81479  13.517   9.173  14.466
59902SOL    HW181480  13.457   9.165  14.540
59902SOL    HW281481  13.507   9.091  14.418
59903SOL     OW81482  10.801   7.129   2.410
59903SOL    HW181483  10.751   7.109   2.330
59903SOL    HW281484  10.833   7.044   2.439
59904SOL     OW81485   9.304  10.425  10.254
59904SOL    HW181486   9.337  10.335  10.259
59904SOL    HW281487   9.267  10.442  10.341
59905SOL     OW81488   5.228   8.999  11.415
59905SOL    HW181489   5.178   8.963  11.342
59905SOL    HW281490   5.254   8.922  11.466
59906SOL     OW81491   8.536  14.234   6.357
59906SOL    HW181492   8.478  14.170   6.398
59906SOL    HW281493   8.624  14.201   6.373
59907SOL     OW81494  10.487  11.818  12.407
59907SOL    HW181495  10.417  11.788  12.465
59907SOL    HW281496  10.443  11.833  12.323
59908SOL     OW81497   5.290   6.700  13.863
59908SOL    HW181498   5.267   6.745  13.781
59908SOL    HW281499   5.247   6.751  13.931
59909SOL     OW81500   6.572  10.169   8.925
59909SOL    HW181501   6.582  10.125   8.840
59909SOL    HW281502   6.608  10.256   8.912
59910SOL     OW81503   6.741   2.587  14.282
59910SOL    HW181504   6.701   2.533  14.351
59910SOL    HW281505   6.695   2.562  14.202
59911SOL     OW81506   7.311   0.649  13.810
59911SOL    HW181507   7.335   0.558  13.794
59911SOL    HW281508   7.394   0.693  13.830
59912SOL     OW81509  10.434   5.886  14.359
59912SOL    HW181510  10.407   5.832  14.285
59912SOL    HW281511  10.353   5.906  14.406
59913SOL     OW81512  12.025   1.023   4.311
59913SOL    HW181513  12.070   1.079   4.374
59913SOL    HW281514  12.094   0.964   4.279
59914SOL     OW81515   2.265   3.309   9.392
59914SOL    HW181516   2.180   3.285   9.428
59914SOL    HW281517   2.246   3.345   9.306
59915SOL     OW81518   0.482   0.601   6.884
59915SOL    HW181519   0.462   0.585   6.976
59915SOL    HW281520   0.422   0.672   6.859
59916SOL     OW81521   0.466   8.191  10.640
59916SOL    HW181522   0.389   8.246  10.628
59916SOL    HW281523   0.520   8.239  10.703
59917SOL     OW81524   9.758  13.975  13.448
59917SOL    HW181525   9.747  13.948  13.357
59917SOL    HW281526   9.785  13.895  13.493
59918SOL     OW81527   1.853   8.703   1.821
59918SOL    HW181528   1.829   8.791   1.850
59918SOL    HW281529   1.801   8.688   1.742
59919SOL     OW81530  14.254   8.852   2.967
59919SOL    HW181531  14.340   8.891   2.949
59919SOL    HW281532  14.265   8.808   3.051
59920SOL     OW81533   5.226   7.894  13.422
59920SOL    HW181534   5.218   7.946  13.342
59920SOL    HW281535   5.211   7.957  13.493
59921SOL     OW81536   8.984  13.993   6.768
59921SOL    HW181537   8.978  14.088   6.781
59921SOL    HW281538   9.075  13.972   6.788
59922SOL     OW81539   3.338   1.960  14.768
59922SOL    HW181540   3.391   1.896  14.817
59922SOL    HW281541   3.269   1.909  14.728
59923SOL     OW81542   0.216   7.056   8.368
59923SOL    HW181543   0.121   7.069   8.361
59923SOL    HW281544   0.227   7.004   8.448
59924SOL     OW81545  10.046  10.221   9.569
59924SOL    HW181546   9.983  10.190   9.504
59924SOL    HW281547  10.076  10.141   9.613
59925SOL     OW81548   6.363   1.124  11.029
59925SOL    HW181549   6.444   1.165  10.997
59925SOL    HW281550   6.380   1.030  11.021
59926SOL     OW81551   9.547   5.630   1.880
59926SOL    HW181552   9.452   5.619   1.870
59926SOL    HW281553   9.583   5.590   1.801
59927SOL     OW81554   1.408   4.403   5.696
59927SOL    HW181555   1.448   4.318   5.714
59927SOL    HW281556   1.320   4.382   5.665
59928SOL     OW81557   7.527  10.681  13.149
59928SOL    HW181558   7.503  10.589  13.157
59928SOL    HW281559   7.593  10.695  13.217
59929SOL     OW81560   0.286   3.779   2.294
59929SOL    HW181561   0.204   3.813   2.329
59929SOL    HW281562   0.283   3.685   2.313
59930SOL     OW81563   2.579   9.189   4.008
59930SOL    HW181564   2.594   9.262   4.068
59930SOL    HW281565   2.497   9.211   3.963
59931SOL     OW81566   0.275   8.443   1.379
59931SOL    HW181567   0.333   8.520   1.381
59931SOL    HW281568   0.222   8.455   1.300
59932SOL     OW81569  14.085   9.944  11.478
59932SOL    HW181570  14.095  10.034  11.449
59932SOL    HW281571  14.038   9.951  11.561
59933SOL     OW81572   9.158   9.551   2.668
59933SOL    HW181573   9.070   9.587   2.680
59933SOL    HW281574   9.209   9.623   2.630
59934SOL     OW81575   5.216  14.237   2.860
59934SOL    HW181576   5.173  14.235   2.774
59934SOL    HW281577   5.200  14.150   2.897
59935SOL     OW81578   7.939   7.565  14.483
59935SOL    HW181579   7.895   7.501  14.427
59935SOL    HW281580   7.954   7.640  14.426
59936SOL     OW81581   6.778   0.022   8.322
59936SOL    HW181582   6.694   0.045   8.361
59936SOL    HW281583   6.794   0.090   8.257
59937SOL     OW81584   0.181   9.586   9.454
59937SOL    HW181585   0.224   9.545   9.379
59937SOL    HW281586   0.090   9.597   9.426
59938SOL     OW81587  12.289  14.565   1.724
59938SOL    HW181588  12.365  14.574   1.782
59938SOL    HW281589  12.266  14.472   1.730
59939SOL     OW81590   3.689   6.093   1.443
59939SOL    HW181591   3.747   6.098   1.367
59939SOL    HW281592   3.669   6.000   1.452
59940SOL     OW81593   9.661   6.149  10.502
59940SOL    HW181594   9.616   6.065  10.493
59940SOL    HW281595   9.753   6.129  10.487
59941SOL     OW81596   1.395   2.591   9.066
59941SOL    HW181597   1.438   2.560   8.985
59941SOL    HW281598   1.357   2.675   9.042
59942SOL     OW81599   7.042   0.979  12.373
59942SOL    HW181600   7.127   0.936  12.369
59942SOL    HW281601   6.978   0.908  12.364
59943SOL     OW81602   6.359   9.896  13.020
59943SOL    HW181603   6.426   9.836  12.988
59943SOL    HW281604   6.388   9.919  13.109
59944SOL     OW81605   2.810  10.113   3.807
59944SOL    HW181606   2.862  10.033   3.818
59944SOL    HW281607   2.852  10.177   3.863
59945SOL     OW81608   5.527   2.410   2.245
59945SOL    HW181609   5.529   2.459   2.163
59945SOL    HW281610   5.619   2.403   2.271
59946SOL     OW81611   5.966   6.182   4.094
59946SOL    HW181612   5.986   6.226   4.176
59946SOL    HW281613   6.047   6.187   4.043
59947SOL     OW81614   5.119   4.778   8.037
59947SOL    HW181615   5.154   4.750   7.953
59947SOL    HW281616   5.176   4.850   8.064
59948SOL     OW81617  13.017   7.035   6.448
59948SOL    HW181618  12.986   7.113   6.493
59948SOL    HW281619  13.110   7.050   6.434
59949SOL     OW81620   8.907  13.290   4.204
59949SOL    HW181621   8.987  13.338   4.183
59949SOL    HW281622   8.906  13.287   4.300
59950SOL     OW81623   2.520   7.572   7.237
59950SOL    HW181624   2.609   7.604   7.253
59950SOL    HW281625   2.528   7.476   7.243
59951SOL     OW81626  12.035   5.893   5.253
59951SOL    HW181627  11.987   5.963   5.208
59951SOL    HW281628  12.084   5.848   5.184
59952SOL     OW81629   8.313   5.410  13.648
59952SOL    HW181630   8.385   5.406  13.585
59952SOL    HW281631   8.236   5.381  13.599
59953SOL     OW81632   2.762  12.592   6.270
59953SOL    HW181633   2.699  12.523   6.249
59953SOL    HW281634   2.777  12.583   6.364
59954SOL     OW81635   0.060  13.243   1.500
59954SOL    HW181636   0.145  13.226   1.539
59954SOL    HW281637   0.031  13.326   1.538
59955SOL     OW81638   7.219   8.901   5.156
59955SOL    HW181639   7.277   8.827   5.174
59955SOL    HW281640   7.205   8.898   5.061
59956SOL     OW81641   9.978   7.268   5.227
59956SOL    HW181642   9.894   7.300   5.195
59956SOL    HW281643  10.004   7.332   5.293
59957SOL     OW81644  12.972   8.288   6.527
59957SOL    HW181645  12.878   8.282   6.540
59957SOL    HW281646  13.008   8.216   6.578
59958SOL     OW81647  13.913   3.795   7.109
59958SOL    HW181648  13.949   3.788   7.198
59958SOL    HW281649  13.984   3.766   7.052
59959SOL     OW81650   4.912  14.234   7.041
59959SOL    HW181651   5.005  14.224   7.022
59959SOL    HW281652   4.891  14.159   7.098
59960SOL     OW81653   6.239  12.271   3.340
59960SOL    HW181654   6.218  12.294   3.430
59960SOL    HW281655   6.320  12.319   3.322
59961SOL     OW81656   1.829  13.259   2.340
59961SOL    HW181657   1.745  13.276   2.381
59961SOL    HW281658   1.823  13.168   2.309
59962SOL     OW81659   3.009  14.064   3.974
59962SOL    HW181660   3.103  14.056   3.989
59962SOL    HW281661   3.002  14.111   3.891
59963SOL     OW81662  14.552   7.841  12.329
59963SOL    HW181663  14.647   7.831  12.328
59963SOL    HW281664  14.536   7.918  12.274
59964SOL     OW81665  11.837   0.434   5.039
59964SOL    HW181666  11.867   0.473   4.957
59964SOL    HW281667  11.892   0.356   5.050
59965SOL     OW81668   4.768   7.249   3.057
59965SOL    HW181669   4.696   7.190   3.082
59965SOL    HW281670   4.770   7.314   3.127
59966SOL     OW81671  12.106   0.471  11.794
59966SOL    HW181672  12.101   0.471  11.698
59966SOL    HW281673  12.015   0.471  11.822
59967SOL     OW81674   7.107   1.122   9.145
59967SOL    HW181675   7.056   1.190   9.102
59967SOL    HW281676   7.044   1.052   9.162
59968SOL     OW81677   0.281   6.220  11.219
59968SOL    HW181678   0.266   6.245  11.310
59968SOL    HW281679   0.277   6.124  11.219
59969SOL     OW81680  13.449   1.128   9.980
59969SOL    HW181681  13.422   1.135  10.072
59969SOL    HW281682  13.521   1.191   9.972
59970SOL     OW81683   9.229   2.109   3.079
59970SOL    HW181684   9.163   2.145   3.019
59970SOL    HW281685   9.179   2.080   3.155
59971SOL     OW81686   0.798   1.914   6.681
59971SOL    HW181687   0.848   1.832   6.680
59971SOL    HW281688   0.714   1.890   6.719
59972SOL     OW81689  11.655   6.634   8.508
59972SOL    HW181690  11.585   6.572   8.490
59972SOL    HW281691  11.641   6.661   8.599
59973SOL     OW81692   1.181   6.554   8.074
59973SOL    HW181693   1.097   6.599   8.067
59973SOL    HW281694   1.173   6.499   8.152
59974SOL     OW81695  11.920   6.349  11.958
59974SOL    HW181696  11.950   6.419  11.899
59974SOL    HW281697  11.998   6.326  12.008
59975SOL     OW81698   6.780  12.616   6.846
59975SOL    HW181699   6.720  12.553   6.805
59975SOL    HW281700   6.860  12.565   6.863
59976SOL     OW81701  10.758   6.851  11.229
59976SOL    HW181702  10.683   6.805  11.267
59976SOL    HW281703  10.725   6.939  11.211
59977SOL     OW81704   5.914   7.841   3.133
59977SOL    HW181705   5.920   7.900   3.058
59977SOL    HW281706   5.872   7.893   3.201
59978SOL     OW81707   0.537  12.943   6.579
59978SOL    HW181708   0.450  12.918   6.547
59978SOL    HW281709   0.576  12.861   6.610
59979SOL     OW81710   7.448   9.050  10.372
59979SOL    HW181711   7.356   9.033  10.393
59979SOL    HW281712   7.446   9.132  10.323
59980SOL     OW81713   0.003   0.531   7.107
59980SOL    HW181714   0.061   0.462   7.076
59980SOL    HW281715  14.847   0.571   7.026
59981SOL     OW81716   9.608   0.005  12.992
59981SOL    HW181717   9.517  14.862  13.016
59981SOL    HW281718   9.621  14.840  12.908
59982SOL     OW81719  10.009   7.204  10.512
59982SOL    HW181720   9.934   7.232  10.460
59982SOL    HW281721   9.999   7.109  10.519
59983SOL     OW81722   2.857   5.561   3.959
59983SOL    HW181723   2.798   5.485   3.956
59983SOL    HW281724   2.815   5.626   3.902
59984SOL     OW81725   4.820  11.537   6.703
59984SOL    HW181726   4.912  11.518   6.721
59984SOL    HW281727   4.799  11.612   6.758
59985SOL     OW81728   0.665   7.158   8.465
59985SOL    HW181729   0.596   7.135   8.404
59985SOL    HW281730   0.633   7.236   8.509
59986SOL     OW81731   7.295   2.507  10.530
59986SOL    HW181732   7.306   2.588  10.481
59986SOL    HW281733   7.368   2.452  10.501
59987SOL     OW81734  14.220   5.077   0.398
59987SOL    HW181735  14.175   5.017   0.339
59987SOL    HW281736  14.286   5.022   0.442
59988SOL     OW81737   2.901   2.356  12.293
59988SOL    HW181738   2.875   2.404  12.372
59988SOL    HW281739   2.981   2.401  12.264
59989SOL     OW81740  11.530   9.271   4.735
59989SOL    HW181741  11.598   9.205   4.717
59989SOL    HW281742  11.471   9.228   4.797
59990SOL     OW81743   3.887   4.403  13.280
59990SOL    HW181744   3.973   4.432  13.248
59990SOL    HW281745   3.876   4.449  13.363
59991SOL     OW81746   0.036  11.351   5.393
59991SOL    HW181747   0.096  11.276   5.398
59991SOL    HW281748  14.844  11.321   5.335
59992SOL     OW81749   8.165   2.592   4.524
59992SOL    HW181750   8.151   2.665   4.585
59992SOL    HW281751   8.203   2.523   4.579
59993SOL     OW81752   5.163   4.654  10.319
59993SOL    HW181753   5.119   4.692  10.243
59993SOL    HW281754   5.130   4.564  10.325
59994SOL     OW81755   8.092  13.231   7.542
59994SOL    HW181756   8.168  13.254   7.596
59994SOL    HW281757   8.091  13.136   7.540
59995SOL     OW81758  13.602   6.929   2.926
59995SOL    HW181759  13.668   6.962   2.987
59995SOL    HW281760  13.519   6.966   2.957
59996SOL     OW81761   9.744  14.824  13.227
59996SOL    HW181762   9.695  14.836  13.146
59996SOL    HW281763   9.736   0.030  13.272
59997SOL     OW81764   5.013  14.127   4.784
59997SOL    HW181765   4.954  14.080   4.844
59997SOL    HW281766   5.101  14.096   4.808
59998SOL     OW81767  14.172   6.656   8.131
59998SOL    HW181768  14.137   6.703   8.206
59998SOL    HW281769  14.137   6.567   8.141
59999SOL     OW81770   6.406   4.003   4.674
59999SOL    HW181771   6.372   3.999   4.763
59999SOL    HW281772   6.419   3.911   4.649
60000SOL     OW81773  12.780   2.631   6.942
60000SOL    HW181774  12.734   2.609   7.023
60000SOL    HW281775  12.872   2.634   6.967
60001SOL     OW81776  14.535   4.145  11.268
60001SOL    HW181777  14.564   4.151  11.177
60001SOL    HW281778  14.453   4.193  11.271
60002SOL     OW81779   7.524   6.279   0.487
60002SOL    HW181780   7.506   6.258   0.578
60002SOL    HW281781   7.467   6.353   0.467
60003SOL     OW81782  14.684   6.077  10.939
60003SOL    HW181783  14.671   6.133  10.862
60003SOL    HW281784  14.764   6.028  10.920
60004SOL     OW81785   6.068   5.780  10.396
60004SOL    HW181786   6.152   5.739  10.416
60004SOL    HW281787   6.088   5.843  10.327
60005SOL     OW81788  10.300   2.632  13.507
60005SOL    HW181789  10.378   2.636  13.452
60005SOL    HW281790  10.313   2.700  13.573
60006SOL     OW81791   0.600   7.869   0.860
60006SOL    HW181792   0.615   7.777   0.837
60006SOL    HW281793   0.663   7.917   0.805
60007SOL     OW81794   8.013  11.619   5.210
60007SOL    HW181795   7.992  11.544   5.154
60007SOL    HW281796   8.102  11.644   5.184
60008SOL     OW81797   6.387   8.346   3.984
60008SOL    HW181798   6.399   8.396   4.064
60008SOL    HW281799   6.393   8.255   4.011
60009SOL     OW81800   0.954  14.161   6.131
60009SOL    HW181801   0.936  14.236   6.073
60009SOL    HW281802   0.985  14.092   6.072
60010SOL     OW81803   9.837  10.204   3.139
60010SOL    HW181804   9.880  10.119   3.137
60010SOL    HW281805   9.812  10.221   3.048
60011SOL     OW81806  10.984   1.932   7.901
60011SOL    HW181807  10.934   2.013   7.905
60011SOL    HW281808  11.067   1.953   7.944
60012SOL     OW81809   1.844   4.405  12.698
60012SOL    HW181810   1.939   4.420  12.707
60012SOL    HW281811   1.805   4.491  12.711
60013SOL     OW81812   0.211   5.035   3.963
60013SOL    HW181813   0.145   5.071   3.904
60013SOL    HW281814   0.182   4.945   3.979
60014SOL     OW81815   8.569  13.316  13.605
60014SOL    HW181816   8.490  13.369  13.605
60014SOL    HW281817   8.537  13.226  13.617
60015SOL     OW81818   6.445   1.102   7.001
60015SOL    HW181819   6.480   1.142   7.080
60015SOL    HW281820   6.400   1.023   7.032
60016SOL     OW81821  13.706   9.907  12.013
60016SOL    HW181822  13.797   9.893  11.985
60016SOL    HW281823  13.659   9.926  11.931
60017SOL     OW81824   2.485   2.710  10.420
60017SOL    HW181825   2.430   2.699  10.342
60017SOL    HW281826   2.530   2.626  10.429
60018SOL     OW81827   0.747   1.444   4.237
60018SOL    HW181828   0.829   1.488   4.214
60018SOL    HW281829   0.680   1.491   4.188
60019SOL     OW81830  11.375   6.246  10.709
60019SOL    HW181831  11.351   6.308  10.777
60019SOL    HW281832  11.305   6.180  10.711
60020SOL     OW81833   2.006   0.989   0.302
60020SOL    HW181834   2.075   1.011   0.240
60020SOL    HW281835   1.974   1.074   0.333
60021SOL     OW81836   5.768  12.944   2.923
60021SOL    HW181837   5.840  12.993   2.962
60021SOL    HW281838   5.690  12.977   2.967
60022SOL     OW81839  11.838  13.619  10.854
60022SOL    HW181840  11.865  13.638  10.944
60022SOL    HW281841  11.849  13.524  10.846
60023SOL     OW81842   1.328   7.302   3.777
60023SOL    HW181843   1.394   7.300   3.707
60023SOL    HW281844   1.270   7.375   3.754
60024SOL     OW81845  14.033  14.323   7.871
60024SOL    HW181846  13.957  14.374   7.845
60024SOL    HW281847  14.062  14.280   7.790
60025SOL     OW81848   3.557  11.118  12.156
60025SOL    HW181849   3.462  11.133  12.156
60025SOL    HW281850   3.585  11.142  12.068
60026SOL     OW81851   7.041   0.441   4.996
60026SOL    HW181852   7.111   0.506   5.007
60026SOL    HW281853   6.988   0.449   5.075
60027SOL     OW81854   4.469  14.474  13.030
60027SOL    HW181855   4.502  14.554  12.989
60027SOL    HW281856   4.548  14.424  13.052
60028SOL     OW81857  11.454   8.821  10.951
60028SOL    HW181858  11.459   8.910  10.986
60028SOL    HW281859  11.427   8.767  11.025
60029SOL     OW81860  13.497   9.288  11.223
60029SOL    HW181861  13.508   9.379  11.250
60029SOL    HW281862  13.405   9.283  11.196
60030SOL     OW81863   9.235  14.772   7.647
60030SOL    HW181864   9.298  14.759   7.718
60030SOL    HW281865   9.257  14.704   7.583
60031SOL     OW81866   3.813   2.001   1.863
60031SOL    HW181867   3.735   2.033   1.819
60031SOL    HW281868   3.798   1.907   1.874
60032SOL     OW81869   2.334  11.678   4.433
60032SOL    HW181870   2.266  11.745   4.443
60032SOL    HW281871   2.378  11.701   4.351
60033SOL     OW81872  11.535  14.105   8.896
60033SOL    HW181873  11.562  14.014   8.902
60033SOL    HW281874  11.615  14.154   8.878
60034SOL     OW81875   8.363   9.572   0.307
60034SOL    HW181876   8.361   9.580   0.403
60034SOL    HW281877   8.455   9.552   0.287
60035SOL     OW81878  10.754   2.603   2.681
60035SOL    HW181879  10.770   2.588   2.588
60035SOL    HW281880  10.663   2.576   2.694
60036SOL     OW81881   0.973   9.088   4.923
60036SOL    HW181882   0.940   9.022   4.862
60036SOL    HW281883   1.057   9.054   4.953
60037SOL     OW81884   3.094  11.049   6.509
60037SOL    HW181885   3.022  11.109   6.487
60037SOL    HW281886   3.068  10.966   6.468
60038SOL     OW81887   3.232   6.230   0.365
60038SOL    HW181888   3.301   6.287   0.398
60038SOL    HW281889   3.150   6.273   0.388
60039SOL     OW81890   1.184   9.371   5.187
60039SOL    HW181891   1.140   9.452   5.213
60039SOL    HW281892   1.277   9.392   5.193
60040SOL     OW81893   0.423  14.359   6.053
60040SOL    HW181894   0.337  14.386   6.023
60040SOL    HW281895   0.407  14.313   6.135
60041SOL     OW81896   9.560   6.107  12.250
60041SOL    HW181897   9.509   6.188  12.261
60041SOL    HW281898   9.551   6.062  12.334
60042SOL     OW81899   6.802   0.733   9.840
60042SOL    HW181900   6.804   0.828   9.830
60042SOL    HW281901   6.891   0.705   9.821
60043SOL     OW81902   9.967   2.051   4.571
60043SOL    HW181903   9.914   1.971   4.568
60043SOL    HW281904   9.948   2.089   4.657
60044SOL     OW81905   0.152   7.079   5.670
60044SOL    HW181906   0.075   7.034   5.635
60044SOL    HW281907   0.201   7.010   5.715
60045SOL     OW81908  12.479   1.809  12.559
60045SOL    HW181909  12.456   1.717  12.548
60045SOL    HW281910  12.535   1.830  12.485
60046SOL     OW81911  13.610   9.180   4.466
60046SOL    HW181912  13.682   9.199   4.405
60046SOL    HW281913  13.538   9.235   4.435
60047SOL     OW81914  13.513  13.832   1.575
60047SOL    HW181915  13.559  13.819   1.492
60047SOL    HW281916  13.541  13.759   1.631
60048SOL     OW81917   5.838   7.277   4.430
60048SOL    HW181918   5.812   7.365   4.405
60048SOL    HW281919   5.929   7.286   4.459
60049SOL     OW81920   2.996   8.238   3.884
60049SOL    HW181921   3.071   8.297   3.886
60049SOL    HW281922   3.019   8.172   3.818
60050SOL     OW81923   1.348  10.792   3.964
60050SOL    HW181924   1.299  10.873   3.948
60050SOL    HW281925   1.399  10.779   3.885
60051SOL     OW81926  10.143   3.399  11.784
60051SOL    HW181927  10.072   3.419  11.724
60051SOL    HW281928  10.101   3.393  11.870
60052SOL     OW81929   4.921  11.479  12.333
60052SOL    HW181930   4.947  11.569  12.353
60052SOL    HW281931   4.836  11.488  12.290
60053SOL     OW81932   9.231   1.734  11.745
60053SOL    HW181933   9.298   1.801  11.761
60053SOL    HW281934   9.248   1.704  11.656
60054SOL     OW81935  12.743   5.774   4.486
60054SOL    HW181936  12.704   5.743   4.404
60054SOL    HW281937  12.673   5.765   4.550
60055SOL     OW81938   7.756   7.195   2.644
60055SOL    HW181939   7.773   7.110   2.684
60055SOL    HW281940   7.729   7.174   2.555
60056SOL     OW81941   0.207  11.751   7.033
60056SOL    HW181942   0.138  11.690   7.009
60056SOL    HW281943   0.176  11.836   7.000
60057SOL     OW81944  14.215  12.125   8.764
60057SOL    HW181945  14.271  12.109   8.689
60057SOL    HW281946  14.226  12.219   8.782
60058SOL     OW81947   2.760   9.406   8.998
60058SOL    HW181948   2.726   9.394   8.909
60058SOL    HW281949   2.691   9.373   9.055
60059SOL     OW81950   5.051   2.992  11.319
60059SOL    HW181951   5.075   2.994  11.411
60059SOL    HW281952   5.041   2.900  11.297
60060SOL     OW81953   1.383   0.458  14.184
60060SOL    HW181954   1.439   0.535  14.171
60060SOL    HW281955   1.309   0.491  14.235
60061SOL     OW81956   7.050   5.411  14.196
60061SOL    HW181957   6.955   5.398  14.201
60061SOL    HW281958   7.084   5.366  14.274
60062SOL     OW81959   2.980   6.861   6.101
60062SOL    HW181960   3.037   6.926   6.142
60062SOL    HW281961   3.037   6.813   6.041
60063SOL     OW81962   2.014   8.331   0.218
60063SOL    HW181963   1.957   8.302   0.288
60063SOL    HW281964   2.027   8.424   0.235
60064SOL     OW81965   2.777  10.054   7.763
60064SOL    HW181966   2.799  10.133   7.714
60064SOL    HW281967   2.723  10.003   7.702
60065SOL     OW81968   7.460   0.262   1.127
60065SOL    HW181969   7.525   0.251   1.058
60065SOL    HW281970   7.489   0.339   1.176
60066SOL     OW81971  10.941   0.999   6.820
60066SOL    HW181972  10.944   1.080   6.768
60066SOL    HW281973  10.860   1.007   6.871
60067SOL     OW81974  10.378   8.455   2.460
60067SOL    HW181975  10.327   8.384   2.422
60067SOL    HW281976  10.327   8.483   2.536
60068SOL     OW81977   9.050   2.881   8.749
60068SOL    HW181978   9.012   2.822   8.813
60068SOL    HW281979   8.996   2.870   8.671
60069SOL     OW81980  13.723   3.671   1.345
60069SOL    HW181981  13.813   3.700   1.334
60069SOL    HW281982  13.701   3.693   1.436
60070SOL     OW81983   4.818   1.627  12.252
60070SOL    HW181984   4.880   1.695  12.279
60070SOL    HW281985   4.747   1.633  12.315
60071SOL     OW81986   3.526  10.105  11.664
60071SOL    HW181987   3.529  10.043  11.737
60071SOL    HW281988   3.551  10.053  11.588
60072SOL     OW81989  12.540   1.480  10.435
60072SOL    HW181990  12.500   1.394  10.443
60072SOL    HW281991  12.541   1.499  10.341
60073SOL     OW81992  12.417   5.855   6.174
60073SOL    HW181993  12.344   5.857   6.112
60073SOL    HW281994  12.477   5.790   6.138
60074SOL     OW81995   6.040   9.412   8.333
60074SOL    HW181996   6.057   9.406   8.239
60074SOL    HW281997   6.058   9.503   8.356
60075SOL     OW81998  12.248   9.487  10.680
60075SOL    HW181999  12.267   9.400  10.715
60075SOL    HW282000  12.334   9.522  10.656
60076SOL     OW82001   9.690  10.009   1.432
60076SOL    HW182002   9.671   9.915   1.427
60076SOL    HW282003   9.627  10.043   1.496
60077SOL     OW82004  13.594   0.906   5.042
60077SOL    HW182005  13.598   0.945   4.955
60077SOL    HW282006  13.520   0.951   5.084
60078SOL     OW82007  13.824   8.095   2.499
60078SOL    HW182008  13.755   8.162   2.503
60078SOL    HW282009  13.904   8.141   2.525
60079SOL     OW82010   9.461   0.989  11.378
60079SOL    HW182011   9.370   0.992  11.349
60079SOL    HW282012   9.457   1.004  11.472
60080SOL     OW82013   4.516  11.841  11.329
60080SOL    HW182014   4.601  11.797  11.318
60080SOL    HW282015   4.456  11.791  11.275
60081SOL     OW82016  10.813   3.150  14.774
60081SOL    HW182017  10.725   3.157  14.738
60081SOL    HW282018  10.800   3.130  14.867
60082SOL     OW82019  10.575   2.997  14.873
60082SOL    HW182020  10.497   2.984   0.049
60082SOL    HW282021  10.642   3.026   0.056
60083SOL     OW82022   4.537   9.681   4.576
60083SOL    HW182023   4.548   9.773   4.600
60083SOL    HW282024   4.455   9.679   4.527
60084SOL     OW82025   8.598   6.600   8.547
60084SOL    HW182026   8.622   6.691   8.564
60084SOL    HW282027   8.506   6.594   8.575
60085SOL     OW82028   8.159   3.002   6.854
60085SOL    HW182029   8.092   3.026   6.918
60085SOL    HW282030   8.140   2.912   6.831
60086SOL     OW82031   7.577   0.823   9.124
60086SOL    HW182032   7.485   0.810   9.102
60086SOL    HW282033   7.624   0.808   9.042
60087SOL     OW82034   6.564   6.735   1.915
60087SOL    HW182035   6.481   6.783   1.915
60087SOL    HW282036   6.606   6.761   1.833
60088SOL     OW82037   5.681  12.442   1.930
60088SOL    HW182038   5.606  12.497   1.907
60088SOL    HW282039   5.734  12.497   1.987
60089SOL     OW82040   1.350   2.745   0.345
60089SOL    HW182041   1.359   2.746   0.249
60089SOL    HW282042   1.259   2.717   0.360
60090SOL     OW82043   9.047  12.412   1.450
60090SOL    HW182044   9.134  12.445   1.429
60090SOL    HW282045   9.017  12.467   1.522
60091SOL     OW82046   1.452   0.193   9.719
60091SOL    HW182047   1.545   0.187   9.696
60091SOL    HW282048   1.421   0.271   9.672
60092SOL     OW82049   2.063   9.866  12.591
60092SOL    HW182050   1.989   9.927  12.581
60092SOL    HW282051   2.098   9.857  12.503
60093SOL     OW82052   0.503   8.779  12.725
60093SOL    HW182053   0.439   8.795  12.656
60093SOL    HW282054   0.587   8.801  12.685
60094SOL     OW82055   7.175   9.354   5.662
60094SOL    HW182056   7.244   9.328   5.722
60094SOL    HW282057   7.211   9.338   5.574
60095SOL     OW82058  12.070   5.854   4.948
60095SOL    HW182059  12.035   5.938   4.920
60095SOL    HW282060  12.104   5.814   4.868
60096SOL     OW82061  10.284   7.961   8.407
60096SOL    HW182062  10.292   8.055   8.395
60096SOL    HW282063  10.205   7.937   8.359
60097SOL     OW82064  12.312  14.546   5.823
60097SOL    HW182065  12.387  14.517   5.770
60097SOL    HW282066  12.236  14.524   5.769
60098SOL     OW82067   4.597  10.934  14.739
60098SOL    HW182068   4.551  10.856  14.769
60098SOL    HW282069   4.585  10.998  14.809
60099SOL     OW82070  12.026  10.503  11.096
60099SOL    HW182071  12.010  10.596  11.110
60099SOL    HW282072  12.118  10.498  11.070
60100SOL     OW82073   6.371   7.326  11.808
60100SOL    HW182074   6.455   7.311  11.765
60100SOL    HW282075   6.388   7.311  11.901
60101SOL     OW82076   3.721   2.485  10.729
60101SOL    HW182077   3.735   2.572  10.691
60101SOL    HW282078   3.631   2.463  10.707
60102SOL     OW82079  13.049   5.826   7.319
60102SOL    HW182080  13.085   5.839   7.406
60102SOL    HW282081  13.104   5.879   7.262
60103SOL     OW82082   9.183   3.140   7.072
60103SOL    HW182083   9.151   3.061   7.116
60103SOL    HW282084   9.274   3.148   7.100
60104SOL     OW82085  11.090   8.615   2.203
60104SOL    HW182086  11.087   8.654   2.290
60104SOL    HW282087  10.998   8.601   2.180
60105SOL     OW82088   6.986   9.250   8.440
60105SOL    HW182089   6.906   9.293   8.408
60105SOL    HW282090   6.975   9.248   8.535
60106SOL     OW82091   1.235   3.239  12.865
60106SOL    HW182092   1.309   3.200  12.911
60106SOL    HW282093   1.274   3.305  12.808
60107SOL     OW82094   1.282  10.208  13.370
60107SOL    HW182095   1.240  10.167  13.295
60107SOL    HW282096   1.225  10.186  13.444
60108SOL     OW82097   6.585   1.979   4.515
60108SOL    HW182098   6.559   2.070   4.526
60108SOL    HW282099   6.622   1.954   4.599
60109SOL     OW82100   4.424   5.681  10.991
60109SOL    HW182101   4.363   5.721  11.053
60109SOL    HW282102   4.406   5.726  10.908
60110SOL     OW82103   0.575   8.039   1.970
60110SOL    HW182104   0.489   8.003   1.948
60110SOL    HW282105   0.571   8.054   2.065
60111SOL     OW82106   6.386   2.348  14.010
60111SOL    HW182107   6.477   2.377  14.021
60111SOL    HW282108   6.350   2.408  13.944
60112SOL     OW82109   7.387  10.107   5.389
60112SOL    HW182110   7.468  10.146   5.354
60112SOL    HW282111   7.317  10.163   5.355
60113SOL     OW82112  12.531   3.573   5.845
60113SOL    HW182113  12.544   3.523   5.926
60113SOL    HW282114  12.454   3.532   5.805
60114SOL     OW82115  10.128   0.126   0.069
60114SOL    HW182116  10.181   0.179   0.128
60114SOL    HW282117  10.185   0.108  14.872
60115SOL     OW82118   7.580   4.766  12.638
60115SOL    HW182119   7.533   4.849  12.644
60115SOL    HW282120   7.667   4.787  12.672
60116SOL     OW82121  10.483   7.034   2.918
60116SOL    HW182122  10.488   7.013   3.011
60116SOL    HW282123  10.558   7.092   2.903
60117SOL     OW82124  11.426  11.210   7.181
60117SOL    HW182125  11.491  11.197   7.113
60117SOL    HW282126  11.463  11.279   7.237
60118SOL     OW82127   5.550   7.548  14.463
60118SOL    HW182128   5.488   7.477  14.445
60118SOL    HW282129   5.560   7.593  14.378
60119SOL     OW82130   5.107   5.185  11.195
60119SOL    HW182131   5.142   5.206  11.109
60119SOL    HW282132   5.021   5.227  11.197
60120SOL     OW82133   9.495   6.144   1.410
60120SOL    HW182134   9.411   6.123   1.450
60120SOL    HW282135   9.476   6.219   1.353
60121SOL     OW82136  11.249   9.263   6.560
60121SOL    HW182137  11.223   9.192   6.620
60121SOL    HW282138  11.185   9.257   6.488
60122SOL     OW82139   7.010  12.024   3.961
60122SOL    HW182140   7.068  12.047   4.034
60122SOL    HW282141   7.044  12.074   3.886
60123SOL     OW82142  13.203   8.257  12.604
60123SOL    HW182143  13.200   8.213  12.519
60123SOL    HW282144  13.176   8.347  12.586
60124SOL     OW82145   4.455  11.260  13.801
60124SOL    HW182146   4.427  11.171  13.824
60124SOL    HW282147   4.436  11.312  13.878
60125SOL     OW82148   9.526   8.083  12.567
60125SOL    HW182149   9.576   8.136  12.505
60125SOL    HW282150   9.575   8.089  12.649
60126SOL     OW82151  10.736  14.132   8.573
60126SOL    HW182152  10.642  14.123   8.560
60126SOL    HW282153  10.762  14.198   8.508
60127SOL     OW82154  14.861   5.532  14.662
60127SOL    HW182155  14.806   5.609  14.647
60127SOL    HW282156   0.055   5.564  14.716
60128SOL     OW82157   0.004  14.142  14.127
60128SOL    HW182158  14.848  14.181  14.047
60128SOL    HW282159  14.864  14.048  14.118
60129SOL     OW82160   0.812   2.133  10.385
60129SOL    HW182161   0.830   2.114  10.477
60129SOL    HW282162   0.751   2.064  10.358
60130SOL     OW82163   1.802   8.910   9.911
60130SOL    HW182164   1.807   8.818   9.938
60130SOL    HW282165   1.853   8.914   9.830
60131SOL     OW82166   5.534   8.133  10.123
60131SOL    HW182167   5.570   8.133  10.034
60131SOL    HW282168   5.525   8.040  10.145
60132SOL     OW82169   4.170   4.432   0.839
60132SOL    HW182170   4.183   4.407   0.931
60132SOL    HW282171   4.209   4.360   0.789
60133SOL     OW82172   5.683   6.147  13.617
60133SOL    HW182173   5.632   6.221  13.585
60133SOL    HW282174   5.654   6.073  13.564
60134SOL     OW82175   9.759   5.502   0.750
60134SOL    HW182176   9.749   5.497   0.655
60134SOL    HW282177   9.851   5.525   0.763
60135SOL     OW82178   2.000   1.458   5.502
60135SOL    HW182179   1.950   1.504   5.569
60135SOL    HW282180   1.937   1.438   5.434
60136SOL     OW82181   4.635   8.717   5.545
60136SOL    HW182182   4.572   8.683   5.609
60136SOL    HW282183   4.718   8.721   5.593
60137SOL     OW82184  13.974   3.499  13.184
60137SOL    HW182185  13.918   3.488  13.107
60137SOL    HW282186  14.048   3.441  13.169
60138SOL     OW82187   5.275   4.881   0.274
60138SOL    HW182188   5.316   4.823   0.339
60138SOL    HW282189   5.194   4.909   0.315
60139SOL     OW82190   2.582   9.092   4.799
60139SOL    HW182191   2.648   9.162   4.793
60139SOL    HW282192   2.629   9.018   4.837
60140SOL     OW82193   8.651   6.933   0.883
60140SOL    HW182194   8.742   6.958   0.896
60140SOL    HW282195   8.601   7.011   0.906
60141SOL     OW82196  11.742   8.538   6.849
60141SOL    HW182197  11.792   8.461   6.877
60141SOL    HW282198  11.659   8.531   6.896
60142SOL     OW82199   6.179  14.208   5.119
60142SOL    HW182200   6.103  14.150   5.109
60142SOL    HW282201   6.167  14.274   5.050
60143SOL     OW82202  11.434   8.503   6.455
60143SOL    HW182203  11.521   8.472   6.479
60143SOL    HW282204  11.396   8.431   6.404
60144SOL     OW82205   8.649  13.174   4.699
60144SOL    HW182206   8.570  13.131   4.667
60144SOL    HW282207   8.618  13.237   4.764
60145SOL     OW82208  11.757   7.975  10.784
60145SOL    HW182209  11.723   8.021  10.706
60145SOL    HW282210  11.759   8.043  10.852
60146SOL     OW82211   5.252  13.946  13.240
60146SOL    HW182212   5.312  14.014  13.212
60146SOL    HW282213   5.223  13.904  13.159
60147SOL     OW82214  11.145   7.925  12.090
60147SOL    HW182215  11.161   7.830  12.087
60147SOL    HW282216  11.132   7.943  12.183
60148SOL     OW82217   2.932   0.036   3.763
60148SOL    HW182218   2.942   0.042   3.668
60148SOL    HW282219   2.932  14.820   3.781
60149SOL     OW82220  12.509  14.030  14.780
60149SOL    HW182221  12.555  14.086  14.717
60149SOL    HW282222  12.469  13.962  14.726
60150SOL     OW82223   6.200   2.139   0.773
60150SOL    HW182224   6.256   2.065   0.799
60150SOL    HW282225   6.254   2.216   0.789
60151SOL     OW82226   0.596   5.465   0.659
60151SOL    HW182227   0.646   5.486   0.580
60151SOL    HW282228   0.551   5.546   0.682
60152SOL     OW82229  13.332   6.547  11.490
60152SOL    HW182230  13.329   6.555  11.586
60152SOL    HW282231  13.391   6.617  11.462
60153SOL     OW82232  11.358   2.708   5.715
60153SOL    HW182233  11.342   2.695   5.622
60153SOL    HW282234  11.291   2.770   5.743
60154SOL     OW82235   9.880  10.218   7.710
60154SOL    HW182236   9.918  10.133   7.686
60154SOL    HW282237   9.950  10.262   7.758
60155SOL     OW82238  11.903  10.571   7.508
60155SOL    HW182239  11.921  10.524   7.590
60155SOL    HW282240  11.915  10.505   7.440
60156SOL     OW82241   6.640   1.965  11.815
60156SOL    HW182242   6.637   1.881  11.862
60156SOL    HW282243   6.616   2.030  11.880
60157SOL     OW82244   1.695  11.797   4.346
60157SOL    HW182245   1.721  11.757   4.263
60157SOL    HW282246   1.609  11.835   4.329
60158SOL     OW82247  13.619   9.150   7.072
60158SOL    HW182248  13.546   9.154   7.134
60158SOL    HW282249  13.676   9.223   7.097
60159SOL     OW82250  10.077  13.817   5.110
60159SOL    HW182251  10.112  13.849   5.027
60159SOL    HW282252  10.126  13.737   5.127
60160SOL     OW82253  11.650   1.942   1.485
60160SOL    HW182254  11.598   1.921   1.407
60160SOL    HW282255  11.589   1.987   1.543
60161SOL     OW82256  12.421   5.268   2.850
60161SOL    HW182257  12.508   5.286   2.886
60161SOL    HW282258  12.437   5.251   2.757
60162SOL     OW82259   5.225   2.009   9.940
60162SOL    HW182260   5.222   1.920   9.976
60162SOL    HW282261   5.211   1.998   9.846
60163SOL     OW82262  13.898   5.404   1.254
60163SOL    HW182263  13.951   5.432   1.180
60163SOL    HW282264  13.904   5.308   1.253
60164SOL     OW82265   8.701  13.689  11.183
60164SOL    HW182266   8.644  13.695  11.259
60164SOL    HW282267   8.661  13.746  11.118
60165SOL     OW82268   3.045   4.387  10.687
60165SOL    HW182269   3.029   4.393  10.593
60165SOL    HW282270   3.137   4.360  10.694
60166SOL     OW82271   2.561  12.591   4.094
60166SOL    HW182272   2.599  12.505   4.072
60166SOL    HW282273   2.513  12.575   4.175
60167SOL     OW82274   7.845   2.103  11.242
60167SOL    HW182275   7.857   2.193  11.210
60167SOL    HW282276   7.751   2.095  11.256
60168SOL     OW82277   4.251  10.424   3.857
60168SOL    HW182278   4.299  10.476   3.793
60168SOL    HW282279   4.315  10.362   3.891
60169SOL     OW82280  11.700  11.280  10.627
60169SOL    HW182281  11.697  11.374  10.643
60169SOL    HW282282  11.637  11.267  10.556
60170SOL     OW82283   4.724   5.880   2.434
60170SOL    HW182284   4.642   5.883   2.483
60170SOL    HW282285   4.787   5.842   2.495
60171SOL     OW82286  12.334   5.015  14.396
60171SOL    HW182287  12.350   5.006  14.302
60171SOL    HW282288  12.257   5.073  14.402
60172SOL     OW82289  10.946  12.643   8.912
60172SOL    HW182290  11.027  12.613   8.870
60172SOL    HW282291  10.897  12.563   8.929
60173SOL     OW82292   1.824   9.596   2.249
60173SOL    HW182293   1.882   9.525   2.275
60173SOL    HW282294   1.805   9.644   2.330
60174SOL     OW82295   2.493  13.094   0.629
60174SOL    HW182296   2.408  13.100   0.672
60174SOL    HW282297   2.492  13.163   0.563
60175SOL     OW82298   2.951   6.300   9.970
60175SOL    HW182299   2.910   6.234  10.027
60175SOL    HW282300   3.043   6.301   9.997
60176SOL     OW82301   5.431  10.503   5.644
60176SOL    HW182302   5.348  10.525   5.603
60176SOL    HW282303   5.494  10.502   5.572
60177SOL     OW82304   2.126   0.824   4.486
60177SOL    HW182305   2.094   0.746   4.441
60177SOL    HW282306   2.182   0.791   4.556
60178SOL     OW82307  11.926  12.335  10.159
60178SOL    HW182308  11.954  12.422  10.130
60178SOL    HW282309  11.853  12.313  10.102
60179SOL     OW82310   4.744   2.769   8.957
60179SOL    HW182311   4.760   2.767   8.863
60179SOL    HW282312   4.824   2.734   8.996
60180SOL     OW82313   9.407   3.350   9.233
60180SOL    HW182314   9.374   3.343   9.144
60180SOL    HW282315   9.387   3.265   9.273
60181SOL     OW82316  10.616   9.185  14.561
60181SOL    HW182317  10.615   9.103  14.610
60181SOL    HW282318  10.525   9.214  14.560
60182SOL     OW82319   7.061  10.100   3.390
60182SOL    HW182320   7.012  10.028   3.430
60182SOL    HW282321   7.143  10.103   3.439
60183SOL     OW82322  11.056   9.206  12.007
60183SOL    HW182323  11.000   9.265  11.957
60183SOL    HW282324  11.131   9.259  12.033
60184SOL     OW82325   1.032   7.753  13.993
60184SOL    HW182326   1.127   7.761  13.982
60184SOL    HW282327   1.020   7.673  14.043
60185SOL     OW82328   1.786   2.545   6.437
60185SOL    HW182329   1.720   2.609   6.411
60185SOL    HW282330   1.867   2.579   6.399
60186SOL     OW82331   3.089  10.280   2.964
60186SOL    HW182332   3.087  10.222   2.888
60186SOL    HW282333   3.109  10.367   2.928
60187SOL     OW82334  13.620   6.170   1.162
60187SOL    HW182335  13.611   6.108   1.234
60187SOL    HW282336  13.699   6.143   1.116
60188SOL     OW82337   1.323   4.526  13.756
60188SOL    HW182338   1.229   4.520  13.736
60188SOL    HW282339   1.364   4.467  13.693
60189SOL     OW82340  12.091   4.271   0.920
60189SOL    HW182341  12.028   4.302   0.855
60189SOL    HW282342  12.109   4.349   0.974
60190SOL     OW82343   5.960   0.075   2.731
60190SOL    HW182344   5.959   0.055   2.638
60190SOL    HW282345   5.869   0.100   2.751
60191SOL     OW82346  10.086   4.967   3.909
60191SOL    HW182347  10.043   5.035   3.857
60191SOL    HW282348  10.109   4.900   3.845
60192SOL     OW82349   7.831   6.715  14.584
60192SOL    HW182350   7.779   6.677  14.513
60192SOL    HW282351   7.787   6.687  14.664
60193SOL     OW82352   4.401   4.204   0.418
60193SOL    HW182353   4.312   4.171   0.403
60193SOL    HW282354   4.457   4.143   0.371
60194SOL     OW82355   4.042   7.185   2.719
60194SOL    HW182356   4.121   7.184   2.665
60194SOL    HW282357   4.049   7.107   2.774
60195SOL     OW82358  14.779  11.160   3.460
60195SOL    HW182359  14.805  11.102   3.532
60195SOL    HW282360  14.823  11.124   3.383
60196SOL     OW82361   9.616   9.300  10.930
60196SOL    HW182362   9.650   9.385  10.958
60196SOL    HW282363   9.521   9.309  10.935
60197SOL     OW82364   4.154   5.012   5.461
60197SOL    HW182365   4.060   4.993   5.457
60197SOL    HW282366   4.166   5.087   5.403
60198SOL     OW82367   9.584  11.621  12.062
60198SOL    HW182368   9.635  11.695  12.029
60198SOL    HW282369   9.608  11.548  12.005
60199SOL     OW82370   8.679   1.603   1.030
60199SOL    HW182371   8.773   1.589   1.034
60199SOL    HW282372   8.666   1.689   1.071
60200SOL     OW82373  11.209  12.425   4.224
60200SOL    HW182374  11.158  12.459   4.150
60200SOL    HW282375  11.225  12.334   4.203
60201SOL     OW82376   5.234  13.132   5.372
60201SOL    HW182377   5.160  13.152   5.315
60201SOL    HW282378   5.194  13.090   5.449
60202SOL     OW82379   0.615  12.567  13.030
60202SOL    HW182380   0.653  12.609  13.108
60202SOL    HW282381   0.610  12.637  12.965
60203SOL     OW82382  13.278   6.399   5.540
60203SOL    HW182383  13.272   6.317   5.589
60203SOL    HW282384  13.206   6.453   5.574
60204SOL     OW82385   4.304   1.158  13.526
60204SOL    HW182386   4.306   1.136  13.433
60204SOL    HW282387   4.212   1.176  13.545
60205SOL     OW82388  13.562  13.585  14.851
60205SOL    HW182389  13.574  13.530   0.050
60205SOL    HW282390  13.635  13.647  14.853
60206SOL     OW82391  14.089  12.152   1.363
60206SOL    HW182392  14.005  12.187   1.333
60206SOL    HW282393  14.154  12.211   1.326
60207SOL     OW82394  14.308   7.464  13.374
60207SOL    HW182395  14.374   7.404  13.337
60207SOL    HW282396  14.296   7.531  13.306
60208SOL     OW82397   9.216  14.686   2.741
60208SOL    HW182398   9.133  14.732   2.728
60208SOL    HW282399   9.270  14.713   2.667
60209SOL     OW82400   3.041   2.763   1.663
60209SOL    HW182401   3.096   2.841   1.661
60209SOL    HW282402   3.102   2.689   1.670
60210SOL     OW82403   9.815   3.648  13.089
60210SOL    HW182404   9.804   3.727  13.037
60210SOL    HW282405   9.910   3.640  13.101
60211SOL     OW82406   8.848   1.408   4.816
60211SOL    HW182407   8.804   1.359   4.747
60211SOL    HW282408   8.888   1.482   4.771
60212SOL     OW82409  10.392  11.755  13.711
60212SOL    HW182410  10.360  11.741  13.622
60212SOL    HW282411  10.469  11.700  13.719
60213SOL     OW82412   1.316  11.923   0.351
60213SOL    HW182413   1.400  11.952   0.316
60213SOL    HW282414   1.325  11.827   0.357
60214SOL     OW82415   7.506   9.458   5.965
60214SOL    HW182416   7.446   9.494   6.031
60214SOL    HW282417   7.507   9.364   5.983
60215SOL     OW82418   1.315   1.440   7.081
60215SOL    HW182419   1.367   1.493   7.142
60215SOL    HW282420   1.297   1.359   7.128
60216SOL     OW82421   2.876  10.203  12.784
60216SOL    HW182422   2.817  10.140  12.743
60216SOL    HW282423   2.826  10.237  12.859
60217SOL     OW82424  12.734   9.996  11.620
60217SOL    HW182425  12.734  10.039  11.535
60217SOL    HW282426  12.783   9.915  11.608
60218SOL     OW82427  14.576   6.015   3.609
60218SOL    HW182428  14.480   6.020   3.610
60218SOL    HW282429  14.602   6.038   3.699
60219SOL     OW82430  12.329  10.728  11.156
60219SOL    HW182431  12.349  10.683  11.239
60219SOL    HW282432  12.356  10.819  11.171
60220SOL     OW82433  11.528   7.411   7.422
60220SOL    HW182434  11.549   7.401   7.329
60220SOL    HW282435  11.493   7.499   7.430
60221SOL     OW82436   4.809   8.049  11.913
60221SOL    HW182437   4.775   8.123  11.962
60221SOL    HW282438   4.840   7.988  11.980
60222SOL     OW82439   3.000   0.906   6.083
60222SOL    HW182440   3.037   0.864   6.005
60222SOL    HW282441   2.996   0.999   6.060
60223SOL     OW82442   6.324   5.415  13.321
60223SOL    HW182443   6.230   5.425  13.307
60223SOL    HW282444   6.332   5.372  13.406
60224SOL     OW82445   5.915   3.487  13.034
60224SOL    HW182446   5.913   3.581  13.015
60224SOL    HW282447   5.838   3.471  13.088
60225SOL     OW82448   8.636  11.967  13.515
60225SOL    HW182449   8.563  12.028  13.500
60225SOL    HW282450   8.594  11.882  13.525
60226SOL     OW82451   0.767   0.610  11.865
60226SOL    HW182452   0.802   0.627  11.952
60226SOL    HW282453   0.768   0.696  11.822
60227SOL     OW82454   5.624  10.607   1.246
60227SOL    HW182455   5.701  10.664   1.239
60227SOL    HW282456   5.575  10.642   1.320
60228SOL     OW82457  10.053  12.577  12.445
60228SOL    HW182458  10.105  12.547  12.519
60228SOL    HW282459  10.023  12.665  12.471
60229SOL     OW82460  13.902   7.629  11.317
60229SOL    HW182461  13.926   7.607  11.227
60229SOL    HW282462  13.816   7.669  11.310
60230SOL     OW82463   1.738  12.268   3.096
60230SOL    HW182464   1.717  12.235   3.008
60230SOL    HW282465   1.780  12.195   3.140
60231SOL     OW82466  12.279   1.960  11.516
60231SOL    HW182467  12.250   1.885  11.464
60231SOL    HW282468  12.254   2.036  11.464
60232SOL     OW82469   9.207  11.377   7.697
60232SOL    HW182470   9.217  11.413   7.609
60232SOL    HW282471   9.292  11.390   7.738
60233SOL     OW82472   6.709  13.670   4.225
60233SOL    HW182473   6.665  13.596   4.182
60233SOL    HW282474   6.641  13.736   4.236
60234SOL     OW82475   4.005   1.427  12.934
60234SOL    HW182476   4.005   1.470  13.019
60234SOL    HW282477   4.095   1.397  12.922
60235SOL     OW82478  12.160   0.622   9.344
60235SOL    HW182479  12.230   0.681   9.316
60235SOL    HW282480  12.198   0.569   9.414
60236SOL     OW82481   2.097   4.788   1.586
60236SOL    HW182482   2.180   4.782   1.634
60236SOL    HW282483   2.085   4.881   1.570
60237SOL     OW82484  13.585   4.176  10.706
60237SOL    HW182485  13.680   4.166  10.709
60237SOL    HW282486  13.569   4.216  10.620
60238SOL     OW82487   8.928   0.547  13.084
60238SOL    HW182488   8.863   0.607  13.121
60238SOL    HW282489   8.880   0.497  13.018
60239SOL     OW82490   0.151   4.705   7.553
60239SOL    HW182491   0.151   4.800   7.560
60239SOL    HW282492   0.110   4.688   7.468
60240SOL     OW82493   3.471  13.416   7.251
60240SOL    HW182494   3.381  13.386   7.257
60240SOL    HW282495   3.489  13.421   7.157
60241SOL     OW82496   3.132   0.287  12.962
60241SOL    HW182497   3.040   0.265  12.949
60241SOL    HW282498   3.144   0.283  13.057
60242SOL     OW82499   7.971   4.420   1.032
60242SOL    HW182500   7.921   4.462   0.963
60242SOL    HW282501   8.056   4.400   0.992
60243SOL     OW82502  12.122   0.785   4.088
60243SOL    HW182503  12.110   0.853   4.023
60243SOL    HW282504  12.214   0.758   4.079
60244SOL     OW82505   1.913   3.973   5.128
60244SOL    HW182506   1.937   4.055   5.085
60244SOL    HW282507   1.996   3.926   5.137
60245SOL     OW82508   5.050   7.269   5.928
60245SOL    HW182509   4.977   7.329   5.943
60245SOL    HW282510   5.124   7.327   5.908
60246SOL     OW82511  11.811  14.752  14.784
60246SOL    HW182512  11.798  14.662  14.755
60246SOL    HW282513  11.723  14.789  14.786
60247SOL     OW82514   8.118   3.954  11.314
60247SOL    HW182515   8.067   4.010  11.255
60247SOL    HW282516   8.083   3.973  11.401
60248SOL     OW82517   8.341  10.206   7.935
60248SOL    HW182518   8.251  10.174   7.937
60248SOL    HW282519   8.386  10.156   8.004
60249SOL     OW82520   1.249   2.000   5.516
60249SOL    HW182521   1.269   2.092   5.537
60249SOL    HW282522   1.186   1.974   5.583
60250SOL     OW82523   8.298   2.628   2.361
60250SOL    HW182524   8.340   2.545   2.342
60250SOL    HW282525   8.370   2.687   2.383
60251SOL     OW82526   9.514   7.214   5.785
60251SOL    HW182527   9.554   7.297   5.810
60251SOL    HW282528   9.448   7.237   5.720
60252SOL     OW82529   6.114  10.437  10.535
60252SOL    HW182530   6.162  10.387  10.601
60252SOL    HW282531   6.063  10.371  10.487
60253SOL     OW82532   0.302   8.363   5.366
60253SOL    HW182533   0.275   8.317   5.446
60253SOL    HW282534   0.278   8.454   5.382
60254SOL     OW82535   8.702   3.957   5.796
60254SOL    HW182536   8.743   4.043   5.788
60254SOL    HW282537   8.749   3.915   5.869
60255SOL     OW82538   9.703   6.532   0.688
60255SOL    HW182539   9.755   6.596   0.639
60255SOL    HW282540   9.672   6.579   0.765
60256SOL     OW82541   3.911  12.471   1.551
60256SOL    HW182542   3.849  12.498   1.484
60256SOL    HW282543   3.987  12.527   1.538
60257SOL     OW82544  13.966  11.855  10.955
60257SOL    HW182545  14.026  11.788  10.923
60257SOL    HW282546  14.010  11.891  11.033
60258SOL     OW82547   2.374   3.682   6.886
60258SOL    HW182548   2.452   3.723   6.848
60258SOL    HW282549   2.323   3.755   6.921
60259SOL     OW82550  13.836  12.810   0.901
60259SOL    HW182551  13.887  12.836   0.978
60259SOL    HW282552  13.752  12.855   0.912
60260SOL     OW82553   2.214  11.013   9.526
60260SOL    HW182554   2.288  11.047   9.576
60260SOL    HW282555   2.234  10.921   9.512
60261SOL     OW82556  14.539  10.714   8.670
60261SOL    HW182557  14.472  10.745   8.731
60261SOL    HW282558  14.621  10.718   8.720
60262SOL     OW82559  11.964  11.719  13.262
60262SOL    HW182560  11.891  11.709  13.323
60262SOL    HW282561  12.023  11.647  13.283
60263SOL     OW82562   8.929   5.119   6.337
60263SOL    HW182563   8.890   5.199   6.302
60263SOL    HW282564   8.874   5.049   6.304
60264SOL     OW82565   5.732  10.872  13.434
60264SOL    HW182566   5.690  10.937  13.489
60264SOL    HW282567   5.783  10.818  13.495
60265SOL     OW82568  13.567   1.400  12.619
60265SOL    HW182569  13.534   1.381  12.532
60265SOL    HW282570  13.540   1.490  12.637
60266SOL     OW82571   8.627   8.782   7.416
60266SOL    HW182572   8.549   8.820   7.375
60266SOL    HW282573   8.701   8.822   7.368
60267SOL     OW82574   0.338   4.221  12.763
60267SOL    HW182575   0.417   4.269  12.739
60267SOL    HW282576   0.277   4.237  12.690
60268SOL     OW82577   5.678   7.324   4.645
60268SOL    HW182578   5.615   7.378   4.598
60268SOL    HW282579   5.730   7.283   4.577
60269SOL     OW82580   5.340   1.493   0.249
60269SOL    HW182581   5.349   1.547   0.327
60269SOL    HW282582   5.265   1.436   0.268
60270SOL     OW82583  14.356   3.583  12.883
60270SOL    HW182584  14.334   3.500  12.927
60270SOL    HW282585  14.337   3.650  12.949
60271SOL     OW82586  13.826   2.865   8.891
60271SOL    HW182587  13.759   2.803   8.865
60271SOL    HW282588  13.897   2.853   8.827
60272SOL     OW82589   0.420  12.586  14.511
60272SOL    HW182590   0.455  12.516  14.455
60272SOL    HW282591   0.336  12.609  14.470
60273SOL     OW82592  10.668   2.427   8.164
60273SOL    HW182593  10.604   2.358   8.143
60273SOL    HW282594  10.733   2.421   8.094
60274SOL     OW82595   6.207   4.194   6.089
60274SOL    HW182596   6.209   4.246   6.009
60274SOL    HW282597   6.151   4.244   6.149
60275SOL     OW82598  13.856   9.682  11.047
60275SOL    HW182599  13.860   9.751  11.114
60275SOL    HW282600  13.911   9.715  10.976
60276SOL     OW82601  13.851   1.626   5.451
60276SOL    HW182602  13.807   1.704   5.417
60276SOL    HW282603  13.800   1.602   5.529
60277SOL     OW82604  14.660  10.378   6.455
60277SOL    HW182605  14.670  10.364   6.549
60277SOL    HW282606  14.749  10.389   6.422
60278SOL     OW82607   2.353   1.670   4.418
60278SOL    HW182608   2.414   1.730   4.460
60278SOL    HW282609   2.332   1.711   4.334
60279SOL     OW82610   2.189   7.060  12.371
60279SOL    HW182611   2.206   7.122  12.300
60279SOL    HW282612   2.185   6.975  12.328
60280SOL     OW82613  10.105  12.158  10.146
60280SOL    HW182614  10.048  12.174  10.070
60280SOL    HW282615  10.185  12.206  10.126
60281SOL     OW82616   4.143  14.123   6.963
60281SOL    HW182617   4.049  14.122   6.983
60281SOL    HW282618   4.177  14.043   7.001
60282SOL     OW82619  11.615   7.693   6.459
60282SOL    HW182620  11.582   7.737   6.537
60282SOL    HW282621  11.690   7.746   6.432
60283SOL     OW82622  12.974   2.050   4.959
60283SOL    HW182623  12.928   2.129   4.931
60283SOL    HW282624  13.030   2.080   5.031
60284SOL     OW82625  11.162   2.023   8.102
60284SOL    HW182626  11.246   1.978   8.094
60284SOL    HW282627  11.147   2.029   8.196
60285SOL     OW82628  13.822   5.810   4.369
60285SOL    HW182629  13.843   5.717   4.367
60285SOL    HW282630  13.797   5.827   4.460
60286SOL     OW82631  11.676   0.894   1.168
60286SOL    HW182632  11.710   0.811   1.203
60286SOL    HW282633  11.587   0.872   1.139
60287SOL     OW82634   7.092   2.737   9.364
60287SOL    HW182635   7.159   2.778   9.310
60287SOL    HW282636   7.015   2.732   9.308
60288SOL     OW82637   5.384   2.845  13.271
60288SOL    HW182638   5.329   2.799  13.208
60288SOL    HW282639   5.465   2.794  13.273
60289SOL     OW82640   8.256  10.267   5.981
60289SOL    HW182641   8.284  10.271   6.073
60289SOL    HW282642   8.335  10.290   5.931
60290SOL     OW82643   6.031  10.937   2.859
60290SOL    HW182644   6.113  10.908   2.899
60290SOL    HW282645   5.966  10.872   2.888
60291SOL     OW82646  14.333   4.625   6.993
60291SOL    HW182647  14.369   4.536   6.999
60291SOL    HW282648  14.239   4.611   6.976
60292SOL     OW82649  10.783   5.718   1.510
60292SOL    HW182650  10.816   5.652   1.572
60292SOL    HW282651  10.861   5.767   1.484
60293SOL     OW82652  14.847  11.953  12.869
60293SOL    HW182653  14.810  11.897  12.937
60293SOL    HW282654  14.862  11.894  12.795
60294SOL     OW82655   6.695   6.027   1.372
60294SOL    HW182656   6.632   6.039   1.301
60294SOL    HW282657   6.770   6.080   1.347
60295SOL     OW82658   0.446   5.280  13.251
60295SOL    HW182659   0.540   5.289  13.267
60295SOL    HW282660   0.405   5.330  13.322
60296SOL     OW82661  11.018   8.319   0.707
60296SOL    HW182662  10.931   8.349   0.680
60296SOL    HW282663  11.079   8.367   0.651
60297SOL     OW82664  14.248   4.837   9.911
60297SOL    HW182665  14.243   4.765   9.848
60297SOL    HW282666  14.193   4.808   9.984
60298SOL     OW82667   2.229  10.881   9.946
60298SOL    HW182668   2.187  10.842   9.869
60298SOL    HW282669   2.158  10.927   9.991
60299SOL     OW82670  14.749   3.639  10.924
60299SOL    HW182671  14.712   3.551  10.928
60299SOL    HW282672  14.673   3.697  10.916
60300SOL     OW82673   1.562  12.522  14.549
60300SOL    HW182674   1.603  12.608  14.539
60300SOL    HW282675   1.473  12.541  14.579
60301SOL     OW82676   4.939  11.103   5.946
60301SOL    HW182677   4.875  11.144   6.005
60301SOL    HW282678   4.905  11.120   5.859
60302SOL     OW82679  12.719  12.690  14.707
60302SOL    HW182680  12.784  12.700  14.637
60302SOL    HW282681  12.635  12.696  14.661
60303SOL     OW82682  10.347   6.151   1.761
60303SOL    HW182683  10.437   6.132   1.735
60303SOL    HW282684  10.308   6.065   1.776
60304SOL     OW82685   9.363  10.402   1.917
60304SOL    HW182686   9.298  10.336   1.892
60304SOL    HW282687   9.348  10.474   1.855
60305SOL     OW82688   9.968   7.913   0.947
60305SOL    HW182689   9.981   8.004   0.923
60305SOL    HW282690   9.958   7.868   0.863
60306SOL     OW82691   6.768  10.019   0.285
60306SOL    HW182692   6.763  10.092   0.223
60306SOL    HW282693   6.831   9.959   0.246
60307SOL     OW82694  11.916  11.465   7.596
60307SOL    HW182695  11.891  11.423   7.514
60307SOL    HW282696  11.988  11.524   7.572
60308SOL     OW82697   1.184   5.378  13.636
60308SOL    HW182698   1.260   5.405  13.688
60308SOL    HW282699   1.220   5.358  13.550
60309SOL     OW82700   7.238   6.795   5.607
60309SOL    HW182701   7.256   6.784   5.700
60309SOL    HW282702   7.322   6.820   5.569
60310SOL     OW82703  14.665   7.601  10.004
60310SOL    HW182704  14.579   7.582   9.967
60310SOL    HW282705  14.655   7.687  10.047
60311SOL     OW82706   3.098   9.428   2.142
60311SOL    HW182707   3.007   9.424   2.110
60311SOL    HW282708   3.138   9.497   2.090
60312SOL     OW82709   5.583   3.478   1.298
60312SOL    HW182710   5.678   3.490   1.294
60312SOL    HW282711   5.560   3.437   1.215
60313SOL     OW82712  14.153   3.495   1.863
60313SOL    HW182713  14.125   3.413   1.823
60313SOL    HW282714  14.160   3.475   1.957
60314SOL     OW82715  13.521   9.032   9.482
60314SOL    HW182716  13.512   9.086   9.403
60314SOL    HW282717  13.521   9.095   9.554
60315SOL     OW82718   6.362   1.360   3.170
60315SOL    HW182719   6.374   1.279   3.219
60315SOL    HW282720   6.359   1.333   3.078
60316SOL     OW82721  14.666  13.463   1.221
60316SOL    HW182722  14.738  13.516   1.255
60316SOL    HW282723  14.693  13.372   1.236
60317SOL     OW82724   9.439   8.764  11.780
60317SOL    HW182725   9.372   8.711  11.735
60317SOL    HW282726   9.495   8.700  11.824
60318SOL     OW82727   2.689   3.511  14.786
60318SOL    HW182728   2.687   3.460  14.705
60318SOL    HW282729   2.614   3.570  14.779
60319SOL     OW82730   8.610  10.703   2.189
60319SOL    HW182731   8.570  10.619   2.211
60319SOL    HW282732   8.684  10.680   2.133
60320SOL     OW82733   6.241   5.053   0.115
60320SOL    HW182734   6.295   5.041   0.037
60320SOL    HW282735   6.297   5.105   0.174
60321SOL     OW82736   2.849   7.925  13.882
60321SOL    HW182737   2.925   7.982  13.874
60321SOL    HW282738   2.776   7.984  13.900
60322SOL     OW82739   6.859   4.454  14.164
60322SOL    HW182740   6.954   4.447  14.179
60322SOL    HW282741   6.841   4.391  14.094
60323SOL     OW82742  11.379   3.256   0.108
60323SOL    HW182743  11.413   3.270   0.197
60323SOL    HW282744  11.442   3.197   0.068
60324SOL     OW82745   9.248  14.253   8.138
60324SOL    HW182746   9.316  14.200   8.181
60324SOL    HW282747   9.296  14.327   8.101
60325SOL     OW82748  11.982  10.009   0.126
60325SOL    HW182749  11.950   9.950   0.195
60325SOL    HW282750  11.903  10.035   0.079
60326SOL     OW82751   0.845  13.918  11.581
60326SOL    HW182752   0.752  13.943  11.579
60326SOL    HW282753   0.880  13.961  11.659
60327SOL     OW82754  12.195   5.942   2.936
60327SOL    HW182755  12.144   5.997   2.995
60327SOL    HW282756  12.146   5.860   2.931
60328SOL     OW82757   4.617   9.453   7.279
60328SOL    HW182758   4.640   9.361   7.271
60328SOL    HW282759   4.575   9.475   7.196
60329SOL     OW82760   2.245   5.211   3.476
60329SOL    HW182761   2.176   5.220   3.542
60329SOL    HW282762   2.273   5.120   3.482
60330SOL     OW82763   7.468   4.701   8.911
60330SOL    HW182764   7.448   4.794   8.900
60330SOL    HW282765   7.383   4.657   8.899
60331SOL     OW82766   6.734   0.867   8.764
60331SOL    HW182767   6.758   0.878   8.672
60331SOL    HW282768   6.661   0.805   8.763
60332SOL     OW82769  12.182   2.006  10.769
60332SOL    HW182770  12.196   2.020  10.862
60332SOL    HW282771  12.142   1.919  10.763
60333SOL     OW82772   8.956  13.119   1.203
60333SOL    HW182773   8.938  13.150   1.291
60333SOL    HW282774   8.987  13.029   1.215
60334SOL     OW82775   0.746   3.208   7.069
60334SOL    HW182776   0.805   3.133   7.060
60334SOL    HW282777   0.667   3.171   7.109
60335SOL     OW82778   4.602  12.555  12.882
60335SOL    HW182779   4.558  12.624  12.932
60335SOL    HW282780   4.648  12.602  12.812
60336SOL     OW82781   6.836   1.846   4.423
60336SOL    HW182782   6.867   1.912   4.362
60336SOL    HW282783   6.757   1.884   4.462
60337SOL     OW82784   2.856   0.122  10.501
60337SOL    HW182785   2.879   0.211  10.525
60337SOL    HW282786   2.827   0.081  10.582
60338SOL     OW82787  14.728   1.041  13.161
60338SOL    HW182788  14.721   0.948  13.186
60338SOL    HW282789  14.759   1.085  13.240
60339SOL     OW82790   7.166   6.453   5.878
60339SOL    HW182791   7.161   6.425   5.787
60339SOL    HW282792   7.251   6.420   5.909
60340SOL     OW82793   9.934  10.111   3.786
60340SOL    HW182794   9.896  10.071   3.865
60340SOL    HW282795   9.891  10.066   3.714
60341SOL     OW82796  14.309   5.614  10.881
60341SOL    HW182797  14.316   5.710  10.877
60341SOL    HW282798  14.228   5.594  10.834
60342SOL     OW82799  13.171  14.414  11.931
60342SOL    HW182800  13.146  14.483  11.992
60342SOL    HW282801  13.182  14.460  11.847
60343SOL     OW82802   1.358   6.025  13.573
60343SOL    HW182803   1.417   6.100  13.582
60343SOL    HW282804   1.412   5.949  13.595
60344SOL     OW82805   0.129  14.584  13.633
60344SOL    HW182806   0.111  14.568  13.541
60344SOL    HW282807   0.123  14.679  13.643
60345SOL     OW82808   5.854   2.940  14.154
60345SOL    HW182809   5.915   3.008  14.123
60345SOL    HW282810   5.782   2.942  14.091
60346SOL     OW82811   4.591   6.853   3.517
60346SOL    HW182812   4.566   6.886   3.603
60346SOL    HW282813   4.626   6.766   3.534
60347SOL     OW82814   1.534  12.812   4.160
60347SOL    HW182815   1.617  12.765   4.170
60347SOL    HW282816   1.559  12.900   4.132
60348SOL     OW82817   5.510   7.611   3.018
60348SOL    HW182818   5.507   7.602   2.923
60348SOL    HW282819   5.596   7.648   3.036
60349SOL     OW82820  12.823  12.356   1.515
60349SOL    HW182821  12.902  12.403   1.541
60349SOL    HW282822  12.752  12.403   1.557
60350SOL     OW82823  10.407  14.088   1.298
60350SOL    HW182824  10.385  14.106   1.389
60350SOL    HW282825  10.365  14.159   1.249
60351SOL     OW82826   0.713   0.098  13.929
60351SOL    HW182827   0.657   0.093  14.007
60351SOL    HW282828   0.724   0.192  13.914
60352SOL     OW82829  11.558   2.511   1.280
60352SOL    HW182830  11.509   2.439   1.239
60352SOL    HW282831  11.628   2.467   1.328
60353SOL     OW82832   4.347   8.108   7.561
60353SOL    HW182833   4.268   8.053   7.571
60353SOL    HW282834   4.317   8.196   7.581
60354SOL     OW82835  10.100  12.927  12.929
60354SOL    HW182836  10.042  12.852  12.916
60354SOL    HW282837  10.187  12.895  12.907
60355SOL     OW82838   3.855   0.189   9.242
60355SOL    HW182839   3.810   0.137   9.308
60355SOL    HW282840   3.857   0.133   9.164
60356SOL     OW82841   7.925  13.422  13.897
60356SOL    HW182842   8.011  13.458  13.878
60356SOL    HW282843   7.878  13.493  13.942
60357SOL     OW82844   1.181   6.155   2.422
60357SOL    HW182845   1.102   6.202   2.451
60357SOL    HW282846   1.252   6.218   2.433
60358SOL     OW82847   9.659  14.146   1.003
60358SOL    HW182848   9.641  14.053   0.990
60358SOL    HW282849   9.618  14.188   0.927
60359SOL     OW82850  12.697  11.817   0.260
60359SOL    HW182851  12.636  11.785   0.193
60359SOL    HW282852  12.694  11.913   0.250
60360SOL     OW82853  13.815   9.256   4.327
60360SOL    HW182854  13.835   9.329   4.268
60360SOL    HW282855  13.865   9.275   4.407
60361SOL     OW82856  14.536  11.129  10.429
60361SOL    HW182857  14.510  11.163  10.344
60361SOL    HW282858  14.458  11.082  10.460
60362SOL     OW82859   4.103   6.725   9.439
60362SOL    HW182860   4.119   6.716   9.533
60362SOL    HW282861   4.053   6.807   9.430
60363SOL     OW82862  11.872  10.352   9.618
60363SOL    HW182863  11.877  10.374   9.525
60363SOL    HW282864  11.909  10.429   9.662
60364SOL     OW82865  10.197   6.627   0.386
60364SOL    HW182866  10.161   6.639   0.474
60364SOL    HW282867  10.205   6.532   0.377
60365SOL     OW82868   6.635   5.518  13.501
60365SOL    HW182869   6.589   5.601  13.515
60365SOL    HW282870   6.571   5.451  13.524
60366SOL     OW82871  12.803   7.766   3.843
60366SOL    HW182872  12.831   7.818   3.919
60366SOL    HW282873  12.710   7.748   3.860
60367SOL     OW82874   4.138   8.671  11.669
60367SOL    HW182875   4.086   8.600  11.706
60367SOL    HW282876   4.093   8.695  11.588
60368SOL     OW82877   5.250   9.587   2.944
60368SOL    HW182878   5.309   9.610   3.016
60368SOL    HW282879   5.297   9.518   2.897
60369SOL     OW82880   8.104   0.534   2.661
60369SOL    HW182881   8.115   0.576   2.576
60369SOL    HW282882   8.164   0.459   2.659
60370SOL     OW82883   5.673  10.226   1.372
60370SOL    HW182884   5.677  10.149   1.428
60370SOL    HW282885   5.609  10.284   1.414
60371SOL     OW82886   1.229  12.926   1.553
60371SOL    HW182887   1.176  13.004   1.532
60371SOL    HW282888   1.305  12.961   1.599
60372SOL     OW82889   1.871   5.899  14.444
60372SOL    HW182890   1.960   5.925  14.469
60372SOL    HW282891   1.878   5.876  14.352
60373SOL     OW82892   9.476   9.663   8.860
60373SOL    HW182893   9.394   9.703   8.829
60373SOL    HW282894   9.453   9.624   8.944
60374SOL     OW82895   2.607   5.896   8.120
60374SOL    HW182896   2.560   5.957   8.177
60374SOL    HW282897   2.540   5.838   8.086
60375SOL     OW82898   3.881   8.350   3.681
60375SOL    HW182899   3.947   8.419   3.691
60375SOL    HW282900   3.832   8.352   3.764
60376SOL     OW82901   9.374   7.459  14.657
60376SOL    HW182902   9.316   7.528  14.626
60376SOL    HW282903   9.396   7.484  14.747
60377SOL     OW82904   8.480   0.807   6.835
60377SOL    HW182905   8.558   0.761   6.865
60377SOL    HW282906   8.493   0.817   6.741
60378SOL     OW82907  14.139   7.267   7.893
60378SOL    HW182908  14.079   7.223   7.833
60378SOL    HW282909  14.215   7.209   7.898
60379SOL     OW82910   4.217  11.884   4.337
60379SOL    HW182911   4.147  11.820   4.322
60379SOL    HW282912   4.171  11.968   4.342
60380SOL     OW82913   3.281   5.016  10.949
60380SOL    HW182914   3.218   4.971  10.892
60380SOL    HW282915   3.251   5.107  10.949
60381SOL     OW82916   9.254  14.315  10.385
60381SOL    HW182917   9.322  14.251  10.364
60381SOL    HW282918   9.190  14.265  10.436
60382SOL     OW82919   9.945  10.920   0.159
60382SOL    HW182920   9.950  10.861   0.233
60382SOL    HW282921   9.863  10.897   0.115
60383SOL     OW82922   7.149   0.280  13.901
60383SOL    HW182923   7.065   0.313  13.931
60383SOL    HW282924   7.131   0.191  13.870
60384SOL     OW82925   7.263   8.457   7.502
60384SOL    HW182926   7.340   8.435   7.449
60384SOL    HW282927   7.234   8.373   7.538
60385SOL     OW82928   4.901  12.714   1.135
60385SOL    HW182929   4.875  12.806   1.138
60385SOL    HW282930   4.907  12.687   1.226
60386SOL     OW82931   3.883   3.032   0.030
60386SOL    HW182932   3.921   3.121   0.031
60386SOL    HW282933   3.936   2.985  14.844
60387SOL     OW82934   4.645   1.707  10.111
60387SOL    HW182935   4.733   1.739  10.090
60387SOL    HW282936   4.588   1.751  10.048
60388SOL     OW82937  13.726   7.261  13.296
60388SOL    HW182938  13.749   7.241  13.387
60388SOL    HW282939  13.695   7.178  13.261
60389SOL     OW82940  13.139   7.318   2.268
60389SOL    HW182941  13.151   7.265   2.347
60389SOL    HW282942  13.181   7.401   2.287
60390SOL     OW82943   6.118   0.777   6.575
60390SOL    HW182944   6.204   0.812   6.600
60390SOL    HW282945   6.093   0.829   6.498
60391SOL     OW82946  14.230   0.682   2.488
60391SOL    HW182947  14.237   0.776   2.501
60391SOL    HW282948  14.155   0.656   2.542
60392SOL     OW82949   8.506   9.620  14.095
60392SOL    HW182950   8.452   9.698  14.110
60392SOL    HW282951   8.531   9.591  14.183
60393SOL     OW82952   1.816   9.036   0.429
60393SOL    HW182953   1.854   9.124   0.423
60393SOL    HW282954   1.784   9.029   0.519
60394SOL     OW82955  12.524   9.611  12.779
60394SOL    HW182956  12.535   9.700  12.812
60394SOL    HW282957  12.442   9.581  12.818
60395SOL     OW82958   7.903   4.829   1.609
60395SOL    HW182959   7.814   4.804   1.584
60395SOL    HW282960   7.941   4.749   1.645
60396SOL     OW82961   8.439  14.247  13.340
60396SOL    HW182962   8.458  14.333  13.304
60396SOL    HW282963   8.483  14.246  13.424
60397SOL     OW82964   5.885   3.622   4.577
60397SOL    HW182965   5.903   3.697   4.634
60397SOL    HW282966   5.865   3.550   4.638
60398SOL     OW82967   9.138  14.463  10.587
60398SOL    HW182968   9.138  14.437  10.495
60398SOL    HW282969   9.226  14.444  10.618
60399SOL     OW82970   3.528  14.250   4.851
60399SOL    HW182971   3.436  14.259   4.826
60399SOL    HW282972   3.574  14.315   4.799
60400SOL     OW82973   0.199   5.153   3.677
60400SOL    HW182974   0.284   5.126   3.711
60400SOL    HW282975   0.175   5.085   3.614
60401SOL     OW82976   6.067  12.098   7.275
60401SOL    HW182977   6.076  12.005   7.253
60401SOL    HW282978   6.090  12.103   7.368
60402SOL     OW82979   6.457  14.233   4.459
60402SOL    HW182980   6.508  14.154   4.442
60402SOL    HW282981   6.478  14.291   4.385
60403SOL     OW82982   0.260   9.628   3.842
60403SOL    HW182983   0.300   9.673   3.768
60403SOL    HW282984   0.335   9.598   3.894
60404SOL     OW82985  12.465   9.990   9.814
60404SOL    HW182986  12.541   9.979   9.871
60404SOL    HW282987  12.485   9.939   9.736
60405SOL     OW82988   6.122  10.172   1.967
60405SOL    HW182989   6.173  10.130   2.036
60405SOL    HW282990   6.187  10.193   1.899
60406SOL     OW82991   6.581   6.359  11.755
60406SOL    HW182992   6.528   6.430  11.791
60406SOL    HW282993   6.536   6.334  11.674
60407SOL     OW82994  10.815   5.588   0.967
60407SOL    HW182995  10.907   5.571   0.950
60407SOL    HW282996  10.812   5.675   1.006
60408SOL     OW82997   8.319  11.997   3.460
60408SOL    HW182998   8.326  11.917   3.512
60408SOL    HW282999   8.225  12.014   3.454
60409SOL     OW83000   4.253   5.137   8.159
60409SOL    HW183001   4.302   5.214   8.187
60409SOL    HW283002   4.221   5.159   8.072
60410SOL     OW83003   4.650   0.937   0.515
60410SOL    HW183004   4.607   0.930   0.600
60410SOL    HW283005   4.671   0.846   0.492
60411SOL     OW83006   3.509   8.192   0.355
60411SOL    HW183007   3.539   8.114   0.308
60411SOL    HW283008   3.561   8.194   0.435
60412SOL     OW83009   1.817   6.092   4.214
60412SOL    HW183010   1.745   6.142   4.177
60412SOL    HW283011   1.885   6.095   4.146
60413SOL     OW83012  14.677  12.894   0.404
60413SOL    HW183013  14.603  12.939   0.362
60413SOL    HW283014  14.636  12.838   0.470
60414SOL     OW83015   9.223  14.877   9.059
60414SOL    HW183016   9.192   0.064   8.996
60414SOL    HW283017   9.162   0.006   9.132
60415SOL     OW83018   9.192   3.326   6.700
60415SOL    HW183019   9.218   3.258   6.637
60415SOL    HW283020   9.103   3.303   6.724
60416SOL     OW83021   3.809  14.594   2.731
60416SOL    HW183022   3.878  14.529   2.738
60416SOL    HW283023   3.850  14.676   2.757
60417SOL     OW83024   7.347   1.274   5.386
60417SOL    HW183025   7.347   1.199   5.446
60417SOL    HW283026   7.439   1.299   5.379
60418SOL     OW83027   4.707   1.928  10.298
60418SOL    HW183028   4.639   1.975  10.348
60418SOL    HW283029   4.716   1.978  10.217
60419SOL     OW83030  12.937   7.727   1.209
60419SOL    HW183031  13.006   7.748   1.271
60419SOL    HW283032  12.897   7.812   1.187
60420SOL     OW83033   4.182   1.195   0.382
60420SOL    HW183034   4.277   1.186   0.395
60420SOL    HW283035   4.173   1.210   0.288
60421SOL     OW83036   6.210  11.310  11.977
60421SOL    HW183037   6.125  11.345  12.006
60421SOL    HW283038   6.205  11.311  11.881
60422SOL     OW83039  10.009  13.402  10.195
60422SOL    HW183040   9.978  13.406  10.286
60422SOL    HW283041   9.984  13.487  10.158
60423SOL     OW83042   8.765   0.367   8.231
60423SOL    HW183043   8.741   0.275   8.237
60423SOL    HW283044   8.842   0.368   8.174
60424SOL     OW83045   7.799   4.752   3.192
60424SOL    HW183046   7.866   4.779   3.254
60424SOL    HW283047   7.773   4.664   3.221
60425SOL     OW83048  10.496   5.600  12.618
60425SOL    HW183049  10.476   5.589  12.711
60425SOL    HW283050  10.498   5.512  12.582
60426SOL     OW83051  12.393   6.426   7.421
60426SOL    HW183052  12.395   6.381   7.506
60426SOL    HW283053  12.481   6.464   7.412
60427SOL     OW83054   7.603  11.485   8.598
60427SOL    HW183055   7.578  11.444   8.681
60427SOL    HW283056   7.567  11.427   8.530
60428SOL     OW83057   6.601   2.600   4.773
60428SOL    HW183058   6.674   2.636   4.723
60428SOL    HW283059   6.537   2.671   4.777
60429SOL     OW83060   1.162   6.154  11.608
60429SOL    HW183061   1.153   6.249  11.614
60429SOL    HW283062   1.256   6.140  11.596
60430SOL     OW83063   6.624  10.532  12.898
60430SOL    HW183064   6.551  10.587  12.927
60430SOL    HW283065   6.698  10.593  12.889
60431SOL     OW83066  14.249   9.770   3.131
60431SOL    HW183067  14.196   9.820   3.069
60431SOL    HW283068  14.188   9.745   3.200
60432SOL     OW83069  14.112   3.401  14.043
60432SOL    HW183070  14.068   3.334  13.990
60432SOL    HW283071  14.126   3.474  13.983
60433SOL     OW83072  12.967   2.142  14.814
60433SOL    HW183073  13.028   2.070  14.831
60433SOL    HW283074  12.886   2.116  14.858
60434SOL     OW83075   2.142   8.613   7.578
60434SOL    HW183076   2.086   8.658   7.515
60434SOL    HW283077   2.157   8.676   7.648
60435SOL     OW83078  13.796   0.318   5.309
60435SOL    HW183079  13.791   0.386   5.377
60435SOL    HW283080  13.829   0.364   5.232
60436SOL     OW83081   5.706  13.093   1.622
60436SOL    HW183082   5.787  13.082   1.572
60436SOL    HW283083   5.734  13.118   1.710
60437SOL     OW83084   8.948   9.468  10.791
60437SOL    HW183085   8.952   9.419  10.708
60437SOL    HW283086   8.966   9.402  10.858
60438SOL     OW83087   2.527  13.551   8.176
60438SOL    HW183088   2.537  13.640   8.211
60438SOL    HW283089   2.614  13.530   8.140
60439SOL     OW83090   9.101   5.552  10.495
60439SOL    HW183091   9.101   5.472  10.443
60439SOL    HW283092   9.055   5.529  10.575
60440SOL     OW83093   1.229   3.445  14.705
60440SOL    HW183094   1.149   3.393  14.709
60440SOL    HW283095   1.202   3.528  14.665
60441SOL     OW83096  12.262   9.087   1.346
60441SOL    HW183097  12.262   9.005   1.396
60441SOL    HW283098  12.258   9.060   1.255
60442SOL     OW83099  12.933   8.616   5.597
60442SOL    HW183100  12.900   8.571   5.519
60442SOL    HW283101  12.996   8.555   5.635
60443SOL     OW83102   0.652  11.114  12.306
60443SOL    HW183103   0.687  11.093  12.220
60443SOL    HW283104   0.633  11.208  12.302
60444SOL     OW83105   4.526   8.978   1.053
60444SOL    HW183106   4.576   8.905   1.018
60444SOL    HW283107   4.587   9.052   1.054
60445SOL     OW83108  10.025   7.612   4.850
60445SOL    HW183109  10.013   7.666   4.928
60445SOL    HW283110   9.941   7.619   4.803
60446SOL     OW83111   8.799   1.889   0.928
60446SOL    HW183112   8.879   1.852   0.965
60446SOL    HW283113   8.737   1.890   1.001
60447SOL     OW83114   4.275  12.372   5.612
60447SOL    HW183115   4.367  12.363   5.588
60447SOL    HW283116   4.244  12.282   5.622
60448SOL     OW83117   0.313   0.611   2.974
60448SOL    HW183118   0.219   0.610   2.992
60448SOL    HW283119   0.353   0.575   3.053
60449SOL     OW83120   9.906   0.354   9.116
60449SOL    HW183121   9.867   0.431   9.076
60449SOL    HW283122   9.841   0.324   9.180
60450SOL     OW83123   3.187   2.375  12.163
60450SOL    HW183124   3.231   2.323  12.095
60450SOL    HW283125   3.252   2.384  12.232
60451SOL     OW83126  12.985   5.595   3.363
60451SOL    HW183127  12.973   5.583   3.458
60451SOL    HW283128  12.898   5.618   3.331
60452SOL     OW83129   4.321   8.492  11.398
60452SOL    HW183130   4.394   8.507  11.459
60452SOL    HW283131   4.244   8.482  11.455
60453SOL     OW83132   1.061   2.905  14.134
60453SOL    HW183133   1.052   2.986  14.083
60453SOL    HW283134   1.003   2.843  14.091
60454SOL     OW83135   6.237  10.517  12.391
60454SOL    HW183136   6.239  10.424  12.368
60454SOL    HW283137   6.164  10.553  12.341
60455SOL     OW83138   6.529  10.363  10.117
60455SOL    HW183139   6.480  10.403  10.045
60455SOL    HW283140   6.492  10.402  10.196
60456SOL     OW83141   0.043   4.452   2.126
60456SOL    HW183142   0.127   4.497   2.124
60456SOL    HW283143  14.856   4.522   2.124
60457SOL     OW83144  12.980   3.762   2.403
60457SOL    HW183145  12.950   3.846   2.366
60457SOL    HW283146  12.910   3.700   2.382
60458SOL     OW83147   0.082  12.686   5.701
60458SOL    HW183148   0.166  12.684   5.747
60458SOL    HW283149   0.105  12.698   5.609
60459SOL     OW83150  13.698   5.536   1.981
60459SOL    HW183151  13.682   5.577   1.895
60459SOL    HW283152  13.612   5.538   2.024
60460SOL     OW83153   6.914   2.155  13.154
60460SOL    HW183154   6.995   2.113  13.124
60460SOL    HW283155   6.900   2.227  13.093
60461SOL     OW83156   4.743   1.428   0.420
60461SOL    HW183157   4.710   1.347   0.458
60461SOL    HW283158   4.815   1.454   0.477
60462SOL     OW83159  13.504  10.049   8.554
60462SOL    HW183160  13.456  10.100   8.488
60462SOL    HW283161  13.439  10.028   8.621
60463SOL     OW83162  13.656   1.365  11.571
60463SOL    HW183163  13.670   1.371  11.665
60463SOL    HW283164  13.742   1.384  11.532
60464SOL     OW83165  10.678  12.445  10.406
60464SOL    HW183166  10.656  12.524  10.356
60464SOL    HW283167  10.697  12.380  10.339
60465SOL     OW83168   6.347   0.891   6.712
60465SOL    HW183169   6.424   0.861   6.760
60465SOL    HW283170   6.359   0.986   6.702
60466SOL     OW83171  12.544   0.095   7.769
60466SOL    HW183172  12.502   0.130   7.848
60466SOL    HW283173  12.597   0.168   7.736
60467SOL     OW83174  13.734   5.220  10.141
60467SOL    HW183175  13.671   5.223  10.213
60467SOL    HW283176  13.759   5.127  10.135
60468SOL     OW83177  10.549   0.940   9.383
60468SOL    HW183178  10.501   0.921   9.303
60468SOL    HW283179  10.630   0.889   9.376
60469SOL     OW83180   9.476   7.900  11.616
60469SOL    HW183181   9.473   7.823  11.559
60469SOL    HW283182   9.483   7.864  11.704
60470SOL     OW83183   4.898   0.568   4.583
60470SOL    HW183184   4.958   0.641   4.597
60470SOL    HW283185   4.936   0.496   4.633
60471SOL     OW83186   4.485   5.283  10.472
60471SOL    HW183187   4.561   5.321  10.518
60471SOL    HW283188   4.481   5.193  10.503
60472SOL     OW83189  10.876   8.447  13.227
60472SOL    HW183190  10.922   8.508  13.171
60472SOL    HW283191  10.933   8.437  13.304
60473SOL     OW83192   7.459   2.535   3.699
60473SOL    HW183193   7.384   2.589   3.725
60473SOL    HW283194   7.523   2.598   3.666
60474SOL     OW83195   5.785  13.221   8.864
60474SOL    HW183196   5.734  13.148   8.828
60474SOL    HW283197   5.853  13.179   8.917
60475SOL     OW83198  13.821   9.098   2.392
60475SOL    HW183199  13.777   9.059   2.468
60475SOL    HW283200  13.900   9.044   2.381
60476SOL     OW83201   9.655  14.624   8.088
60476SOL    HW183202   9.685  14.644   8.000
60476SOL    HW283203   9.691  14.537   8.107
60477SOL     OW83204   4.277   5.010   7.450
60477SOL    HW183205   4.297   4.922   7.420
60477SOL    HW283206   4.241   5.054   7.373
60478SOL     OW83207  12.772   7.139   7.752
60478SOL    HW183208  12.701   7.157   7.813
60478SOL    HW283209  12.728   7.113   7.671
60479SOL     OW83210  13.624   2.156  13.907
60479SOL    HW183211  13.648   2.242  13.872
60479SOL    HW283212  13.647   2.161  14.000
60480SOL     OW83213  14.142   8.341   1.175
60480SOL    HW183214  14.067   8.286   1.198
60480SOL    HW283215  14.152   8.331   1.080
60481SOL     OW83216   6.969   1.200   1.497
60481SOL    HW183217   7.042   1.249   1.535
60481SOL    HW283218   6.904   1.196   1.567
60482SOL     OW83219   8.230   6.792   8.394
60482SOL    HW183220   8.317   6.802   8.355
60482SOL    HW283221   8.243   6.809   8.487
60483SOL     OW83222   9.216   6.608   0.230
60483SOL    HW183223   9.145   6.642   0.284
60483SOL    HW283224   9.173   6.574   0.152
60484SOL     OW83225   6.256   7.118   9.931
60484SOL    HW183226   6.216   7.065   9.862
60484SOL    HW283227   6.315   7.178   9.885
60485SOL     OW83228   9.774   3.559   9.700
60485SOL    HW183229   9.756   3.644   9.660
60485SOL    HW283230   9.689   3.517   9.707
60486SOL     OW83231   5.591   2.975   8.760
60486SOL    HW183232   5.516   2.917   8.752
60486SOL    HW283233   5.635   2.970   8.676
60487SOL     OW83234   5.572   7.007   7.024
60487SOL    HW183235   5.624   6.974   7.098
60487SOL    HW283236   5.546   7.095   7.052
60488SOL     OW83237   9.990  12.843   2.025
60488SOL    HW183238  10.013  12.817   2.115
60488SOL    HW283239  10.026  12.774   1.970
60489SOL     OW83240  10.870  11.685  13.658
60489SOL    HW183241  10.836  11.723  13.577
60489SOL    HW283242  10.854  11.591  13.649
60490SOL     OW83243   2.542   4.739   0.895
60490SOL    HW183244   2.564   4.821   0.939
60490SOL    HW283245   2.595   4.740   0.815
60491SOL     OW83246  11.566  10.290  12.569
60491SOL    HW183247  11.646  10.260  12.527
60491SOL    HW283248  11.517  10.210  12.589
60492SOL     OW83249   3.368   2.157   1.176
60492SOL    HW183250   3.445   2.174   1.230
60492SOL    HW283251   3.297   2.145   1.239
60493SOL     OW83252   6.525   4.835  12.027
60493SOL    HW183253   6.618   4.858  12.030
60493SOL    HW283254   6.484   4.893  12.091
60494SOL     OW83255   9.803   3.516  12.205
60494SOL    HW183256   9.728   3.557  12.163
60494SOL    HW283257   9.856   3.484  12.132
60495SOL     OW83258  12.567   6.336   9.837
60495SOL    HW183259  12.514   6.259   9.858
60495SOL    HW283260  12.535   6.404   9.896
60496SOL     OW83261   7.035   9.689   4.796
60496SOL    HW183262   7.014   9.647   4.712
60496SOL    HW283263   7.058   9.616   4.854
60497SOL     OW83264  12.164   4.301   5.389
60497SOL    HW183265  12.136   4.384   5.351
60497SOL    HW283266  12.260   4.305   5.390
60498SOL     OW83267   3.374   2.977   4.124
60498SOL    HW183268   3.380   2.883   4.137
60498SOL    HW283269   3.368   3.014   4.212
60499SOL     OW83270   9.134   4.810   9.108
60499SOL    HW183271   9.102   4.892   9.068
60499SOL    HW283272   9.054   4.764   9.134
60500SOL     OW83273  12.540   2.568  13.274
60500SOL    HW183274  12.459   2.518  13.264
60500SOL    HW283275  12.513   2.660  13.276
60501SOL     OW83276  10.861   0.432  12.008
60501SOL    HW183277  10.937   0.475  12.049
60501SOL    HW283278  10.786   0.464  12.057
60502SOL     OW83279   8.389   7.276   1.719
60502SOL    HW183280   8.299   7.267   1.749
60502SOL    HW283281   8.385   7.258   1.625
60503SOL     OW83282   7.944   8.019   9.563
60503SOL    HW183283   7.957   8.027   9.468
60503SOL    HW283284   8.032   8.004   9.598
60504SOL     OW83285  12.176  11.461   2.017
60504SOL    HW183286  12.237  11.404   2.064
60504SOL    HW283287  12.225  11.542   2.003
60505SOL     OW83288   5.764  11.625   0.307
60505SOL    HW183289   5.770  11.558   0.375
60505SOL    HW283290   5.802  11.583   0.229
60506SOL     OW83291   0.387  13.285   4.123
60506SOL    HW183292   0.376  13.249   4.035
60506SOL    HW283293   0.313  13.249   4.172
60507SOL     OW83294  11.387   5.401   1.020
60507SOL    HW183295  11.336   5.333   1.065
60507SOL    HW283296  11.415   5.460   1.090
60508SOL     OW83297  10.558  11.688   7.920
60508SOL    HW183298  10.611  11.609   7.932
60508SOL    HW283299  10.497  11.666   7.851
60509SOL     OW83300   8.976  12.751   2.290
60509SOL    HW183301   9.046  12.793   2.340
60509SOL    HW283302   8.987  12.657   2.308
60510SOL     OW83303   9.692   4.450   0.821
60510SOL    HW183304   9.776   4.455   0.868
60510SOL    HW283305   9.707   4.499   0.741
60511SOL     OW83306   5.304  14.214  14.613
60511SOL    HW183307   5.281  14.151  14.682
60511SOL    HW283308   5.284  14.299  14.651
60512SOL     OW83309   8.012   8.665   0.242
60512SOL    HW183310   8.054   8.648   0.158
60512SOL    HW283311   7.919   8.672   0.222
60513SOL     OW83312  10.030   3.890   8.126
60513SOL    HW183313  10.065   3.969   8.167
60513SOL    HW283314   9.942   3.914   8.098
60514SOL     OW83315  10.587   5.394   9.437
60514SOL    HW183316  10.583   5.303   9.468
60514SOL    HW283317  10.515   5.437   9.481
60515SOL     OW83318  13.946   0.786   5.431
60515SOL    HW183319  13.919   0.767   5.521
60515SOL    HW283320  14.008   0.858   5.439
60516SOL     OW83321   1.930   4.535   6.007
60516SOL    HW183322   1.913   4.600   5.938
60516SOL    HW283323   1.861   4.470   5.996
60517SOL     OW83324  11.102   4.514  12.326
60517SOL    HW183325  11.174   4.466  12.285
60517SOL    HW283326  11.138   4.599  12.347
60518SOL     OW83327   4.801  11.606   2.206
60518SOL    HW183328   4.885  11.611   2.161
60518SOL    HW283329   4.751  11.680   2.171
60519SOL     OW83330   3.156  14.666  11.017
60519SOL    HW183331   3.068  14.688  10.987
60519SOL    HW283332   3.148  14.577  11.050
60520SOL     OW83333   7.460   1.312   4.340
60520SOL    HW183334   7.546   1.332   4.303
60520SOL    HW283335   7.479   1.273   4.426
60521SOL     OW83336   5.231   7.095   2.535
60521SOL    HW183337   5.206   7.013   2.576
60521SOL    HW283338   5.283   7.070   2.459
60522SOL     OW83339  12.501   4.887  10.605
60522SOL    HW183340  12.473   4.832  10.678
60522SOL    HW283341  12.452   4.852  10.530
60523SOL     OW83342   8.656  14.073  11.056
60523SOL    HW183343   8.593  14.044  11.122
60523SOL    HW283344   8.604  14.119  10.991
60524SOL     OW83345  10.400   4.004   0.102
60524SOL    HW183346  10.337   3.956   0.048
60524SOL    HW283347  10.348   4.075   0.141
60525SOL     OW83348   0.840   6.956   0.198
60525SOL    HW183349   0.754   6.976   0.236
60525SOL    HW283350   0.854   7.024   0.132
60526SOL     OW83351  13.611   0.807   8.182
60526SOL    HW183352  13.653   0.741   8.238
60526SOL    HW283353  13.572   0.869   8.244
60527SOL     OW83354   9.022   6.623   2.412
60527SOL    HW183355   8.963   6.669   2.354
60527SOL    HW283356   9.010   6.530   2.390
60528SOL     OW83357  10.222   2.119  10.204
60528SOL    HW183358  10.141   2.100  10.252
60528SOL    HW283359  10.292   2.089  10.262
60529SOL     OW83360  10.703  10.834  13.319
60529SOL    HW183361  10.685  10.900  13.252
60529SOL    HW283362  10.775  10.782  13.282
60530SOL     OW83363   0.129   0.705   9.733
60530SOL    HW183364   0.112   0.752   9.815
60530SOL    HW283365   0.179   0.628   9.760
60531SOL     OW83366  11.159   2.367  10.500
60531SOL    HW183367  11.163   2.383  10.595
60531SOL    HW283368  11.250   2.373  10.471
60532SOL     OW83369   7.183   9.210   7.823
60532SOL    HW183370   7.091   9.229   7.839
60532SOL    HW283371   7.188   9.191   7.729
60533SOL     OW83372  10.917   6.135   8.027
60533SOL    HW183373  10.874   6.099   8.105
60533SOL    HW283374  10.862   6.107   7.954
60534SOL     OW83375   0.819  11.208   0.053
60534SOL    HW183376   0.805  11.140  14.865
60534SOL    HW283377   0.796  11.167   0.136
60535SOL     OW83378  10.316   5.324   0.351
60535SOL    HW183379  10.284   5.288   0.434
60535SOL    HW283380  10.253   5.294   0.286
60536SOL     OW83381   4.790   6.269   1.183
60536SOL    HW183382   4.709   6.217   1.177
60536SOL    HW283383   4.770   6.349   1.135
60537SOL     OW83384   1.042  14.199   2.445
60537SOL    HW183385   1.088  14.159   2.518
60537SOL    HW283386   1.055  14.293   2.457
60538SOL     OW83387   3.821  10.344  12.629
60538SOL    HW183388   3.771  10.422  12.655
60538SOL    HW283389   3.754  10.280  12.604
60539SOL     OW83390  14.568   3.431   8.594
60539SOL    HW183391  14.606   3.372   8.660
60539SOL    HW283392  14.641   3.449   8.534
60540SOL     OW83393   8.768   4.200   9.469
60540SOL    HW183394   8.744   4.169   9.382
60540SOL    HW283395   8.864   4.201   9.469
60541SOL     OW83396  11.858   3.805   7.387
60541SOL    HW183397  11.813   3.732   7.345
60541SOL    HW283398  11.943   3.809   7.344
60542SOL     OW83399   6.112  10.928   1.551
60542SOL    HW183400   6.046  10.868   1.516
60542SOL    HW283401   6.189  10.873   1.565
60543SOL     OW83402   5.207   8.570  14.471
60543SOL    HW183403   5.254   8.582  14.553
60543SOL    HW283404   5.198   8.658  14.436
60544SOL     OW83405   2.990  10.878   9.166
60544SOL    HW183406   2.976  10.787   9.190
60544SOL    HW283407   3.012  10.921   9.249
60545SOL     OW83408   8.271  14.483  12.302
60545SOL    HW183409   8.182  14.448  12.306
60545SOL    HW283410   8.318  14.421  12.246
60546SOL     OW83411   7.453   8.339   6.302
60546SOL    HW183412   7.415   8.361   6.217
60546SOL    HW283413   7.536   8.297   6.281
60547SOL     OW83414   7.256   6.670   6.250
60547SOL    HW183415   7.336   6.705   6.212
60547SOL    HW283416   7.273   6.576   6.260
60548SOL     OW83417   5.525   8.666  13.719
60548SOL    HW183418   5.534   8.755  13.751
60548SOL    HW283419   5.589   8.658  13.648
60549SOL     OW83420   2.948  12.472   4.335
60549SOL    HW183421   3.043  12.458   4.332
60549SOL    HW283422   2.936  12.537   4.404
60550SOL     OW83423   3.486  12.469  13.359
60550SOL    HW183424   3.507  12.466  13.453
60550SOL    HW283425   3.554  12.416  13.318
60551SOL     OW83426   8.454   6.305   3.699
60551SOL    HW183427   8.395   6.231   3.691
60551SOL    HW283428   8.541   6.267   3.688
60552SOL     OW83429  11.142  11.031   9.430
60552SOL    HW183430  11.209  11.068   9.487
60552SOL    HW283431  11.121  10.946   9.470
60553SOL     OW83432  10.375   3.531  12.882
60553SOL    HW183433  10.403   3.537  12.973
60553SOL    HW283434  10.324   3.451  12.878
60554SOL     OW83435  13.276   2.298   1.845
60554SOL    HW183436  13.220   2.305   1.922
60554SOL    HW283437  13.223   2.332   1.773
60555SOL     OW83438  11.381  10.071   2.793
60555SOL    HW183439  11.361  10.163   2.808
60555SOL    HW283440  11.450  10.050   2.856
60556SOL     OW83441  13.058   2.290   2.062
60556SOL    HW183442  13.009   2.209   2.045
60556SOL    HW283443  13.098   2.276   2.147
60557SOL     OW83444  14.180   3.785  11.665
60557SOL    HW183445  14.189   3.758  11.574
60557SOL    HW283446  14.170   3.880  11.662
60558SOL     OW83447  10.938   9.013   8.893
60558SOL    HW183448  11.014   9.044   8.845
60558SOL    HW283449  10.864   9.027   8.834
60559SOL     OW83450   4.890  11.599  13.172
60559SOL    HW183451   4.874  11.690  13.197
60559SOL    HW283452   4.808  11.570  13.132
60560SOL     OW83453   0.372  10.049   2.072
60560SOL    HW183454   0.412   9.999   2.001
60560SOL    HW283455   0.406  10.138   2.060
60561SOL     OW83456   3.918   0.717   3.247
60561SOL    HW183457   3.873   0.781   3.193
60561SOL    HW283458   3.993   0.689   3.195
60562SOL     OW83459   9.667   2.186   3.469
60562SOL    HW183460   9.680   2.093   3.488
60562SOL    HW283461   9.586   2.189   3.418
60563SOL     OW83462  12.649  11.571   0.945
60563SOL    HW183463  12.584  11.507   0.915
60563SOL    HW283464  12.669  11.623   0.867
60564SOL     OW83465  14.204   8.564   7.111
60564SOL    HW183466  14.137   8.619   7.069
60564SOL    HW283467  14.211   8.488   7.054
60565SOL     OW83468   7.919   3.970  10.527
60565SOL    HW183469   7.838   3.963  10.577
60565SOL    HW283470   7.896   4.024  10.451
60566SOL     OW83471   6.837   4.935   2.248
60566SOL    HW183472   6.843   5.030   2.254
60566SOL    HW283473   6.928   4.905   2.245
60567SOL     OW83474   8.500  11.774   2.035
60567SOL    HW183475   8.576  11.780   1.977
60567SOL    HW283476   8.486  11.680   2.046
60568SOL     OW83477   2.817   1.052  14.457
60568SOL    HW183478   2.756   0.982  14.483
60568SOL    HW283479   2.899   1.006  14.440
60569SOL     OW83480   4.362  13.427  10.285
60569SOL    HW183481   4.302  13.428  10.211
60569SOL    HW283482   4.449  13.433  10.246
60570SOL     OW83483  13.273   5.819  11.873
60570SOL    HW183484  13.350   5.811  11.930
60570SOL    HW283485  13.306   5.799  11.786
60571SOL     OW83486   7.597   6.586   5.589
60571SOL    HW183487   7.630   6.497   5.575
60571SOL    HW283488   7.559   6.611   5.505
60572SOL     OW83489  11.610  10.254   6.974
60572SOL    HW183490  11.538  10.307   6.940
60572SOL    HW283491  11.568  10.192   7.034
60573SOL     OW83492   7.955   4.974   1.825
60573SOL    HW183493   7.983   5.060   1.794
60573SOL    HW283494   7.948   4.921   1.746
60574SOL     OW83495  14.519  11.900   7.754
60574SOL    HW183496  14.526  11.805   7.764
60574SOL    HW283497  14.427  11.919   7.771
60575SOL     OW83498   7.304  14.695   9.041
60575SOL    HW183499   7.240  14.667   9.107
60575SOL    HW283500   7.380  14.724   9.092
60576SOL     OW83501  10.849   6.227  11.279
60576SOL    HW183502  10.795   6.223  11.358
60576SOL    HW283503  10.930   6.269  11.307
60577SOL     OW83504   1.703   8.289  10.743
60577SOL    HW183505   1.629   8.349  10.753
60577SOL    HW283506   1.778   8.346  10.724
60578SOL     OW83507   3.397   9.611   4.976
60578SOL    HW183508   3.397   9.697   4.935
60578SOL    HW283509   3.358   9.626   5.062
60579SOL     OW83510  11.969   5.359   1.598
60579SOL    HW183511  11.874   5.364   1.608
60579SOL    HW283512  12.004   5.396   1.679
60580SOL     OW83513   1.021  10.185   2.787
60580SOL    HW183514   1.057  10.200   2.700
60580SOL    HW283515   1.042  10.265   2.836
60581SOL     OW83516   5.152  12.731   1.578
60581SOL    HW183517   5.153  12.826   1.582
60581SOL    HW283518   5.071  12.709   1.533
60582SOL     OW83519  13.626  13.667  10.676
60582SOL    HW183520  13.583  13.594  10.632
60582SOL    HW283521  13.593  13.664  10.766
60583SOL     OW83522   6.619   6.444  13.517
60583SOL    HW183523   6.650   6.490  13.439
60583SOL    HW283524   6.628   6.351  13.496
60584SOL     OW83525   1.550   6.963  14.245
60584SOL    HW183526   1.519   6.879  14.213
60584SOL    HW283527   1.502   6.977  14.326
60585SOL     OW83528   2.522  14.418   8.335
60585SOL    HW183529   2.540  14.437   8.243
60585SOL    HW283530   2.441  14.368   8.333
60586SOL     OW83531   8.482   4.676  13.258
60586SOL    HW183532   8.570   4.700  13.288
60586SOL    HW283533   8.475   4.582  13.275
60587SOL     OW83534   0.993   1.188  11.314
60587SOL    HW183535   1.039   1.251  11.368
60587SOL    HW283536   0.959   1.122  11.376
60588SOL     OW83537   2.747   6.011   8.988
60588SOL    HW183538   2.807   5.954   9.037
60588SOL    HW283539   2.682   6.038   9.053
60589SOL     OW83540  12.605   4.940   4.750
60589SOL    HW183541  12.566   4.981   4.674
60589SOL    HW283542  12.687   4.988   4.764
60590SOL     OW83543   8.608   2.518   9.485
60590SOL    HW183544   8.574   2.524   9.575
60590SOL    HW283545   8.544   2.463   9.439
60591SOL     OW83546  10.151   6.964   4.553
60591SOL    HW183547  10.070   6.992   4.510
60591SOL    HW283548  10.124   6.934   4.639
60592SOL     OW83549   0.857   0.651   5.569
60592SOL    HW183550   0.861   0.730   5.516
60592SOL    HW283551   0.888   0.581   5.512
60593SOL     OW83552  10.900  13.814   8.406
60593SOL    HW183553  10.926  13.906   8.409
60593SOL    HW283554  10.807  13.816   8.384
60594SOL     OW83555   7.917   3.377   6.436
60594SOL    HW183556   7.927   3.438   6.363
60594SOL    HW283557   7.835   3.332   6.418
60595SOL     OW83558  12.641  13.306  10.383
60595SOL    HW183559  12.711  13.251  10.347
60595SOL    HW283560  12.687  13.368  10.440
60596SOL     OW83561   9.010   6.075  14.495
60596SOL    HW183562   9.044   6.052  14.409
60596SOL    HW283563   8.949   6.148  14.478
60597SOL     OW83564   9.656   4.387  10.754
60597SOL    HW183565   9.665   4.371  10.848
60597SOL    HW283566   9.596   4.462  10.749
60598SOL     OW83567   6.096   9.638  14.869
60598SOL    HW183568   6.054   9.679   0.067
60598SOL    HW283569   6.144   9.563   0.028
60599SOL     OW83570  11.411  11.190   9.351
60599SOL    HW183571  11.438  11.138   9.275
60599SOL    HW283572  11.434  11.136   9.426
60600SOL     OW83573   9.723   7.012  14.174
60600SOL    HW183574   9.695   7.017  14.265
60600SOL    HW283575   9.646   7.038  14.124
60601SOL     OW83576   2.689   5.623   4.424
60601SOL    HW183577   2.756   5.648   4.489
60601SOL    HW283578   2.739   5.594   4.348
60602SOL     OW83579   0.662   0.976   2.888
60602SOL    HW183580   0.579   0.929   2.898
60602SOL    HW283581   0.638   1.058   2.846
60603SOL     OW83582   9.566   9.214   0.649
60603SOL    HW183583   9.570   9.137   0.591
60603SOL    HW283584   9.628   9.194   0.719
60604SOL     OW83585  14.785   7.236   0.085
60604SOL    HW183586  14.840   7.304   0.124
60604SOL    HW283587  14.695   7.265   0.103
60605SOL     OW83588   8.873   7.256  13.695
60605SOL    HW183589   8.778   7.254  13.680
60605SOL    HW283590   8.910   7.240  13.608
60606SOL     OW83591  10.400   5.534   9.575
60606SOL    HW183592  10.428   5.582   9.652
60606SOL    HW283593  10.311   5.506   9.595
60607SOL     OW83594   7.660  10.502   4.231
60607SOL    HW183595   7.670  10.426   4.174
60607SOL    HW283596   7.750  10.535   4.243
60608SOL     OW83597  14.503   9.332   5.625
60608SOL    HW183598  14.596   9.321   5.604
60608SOL    HW283599  14.467   9.244   5.623
60609SOL     OW83600   4.248   3.943   6.880
60609SOL    HW183601   4.238   4.000   6.956
60609SOL    HW283602   4.167   3.956   6.831
60610SOL     OW83603   3.790   1.817   5.132
60610SOL    HW183604   3.750   1.901   5.154
60610SOL    HW283605   3.753   1.794   5.046
60611SOL     OW83606   6.783  11.297   3.562
60611SOL    HW183607   6.763  11.331   3.475
60611SOL    HW283608   6.710  11.326   3.616
60612SOL     OW83609   8.955  11.902   6.359
60612SOL    HW183610   8.947  11.806   6.365
60612SOL    HW283611   8.894  11.934   6.425
60613SOL     OW83612   3.557  14.458  10.464
60613SOL    HW183613   3.584  14.547  10.441
60613SOL    HW283614   3.492  14.470  10.533
60614SOL     OW83615   3.707   1.757   0.460
60614SOL    HW183616   3.702   1.850   0.443
60614SOL    HW283617   3.640   1.741   0.527
60615SOL     OW83618   1.922   3.363   6.225
60615SOL    HW183619   1.842   3.309   6.229
60615SOL    HW283620   1.890   3.452   6.212
60616SOL     OW83621   2.930  13.187   8.000
60616SOL    HW183622   2.963  13.261   8.051
60616SOL    HW283623   2.932  13.113   8.061
60617SOL     OW83624   1.675   8.055   3.163
60617SOL    HW183625   1.651   8.137   3.120
60617SOL    HW283626   1.734   8.012   3.102
60618SOL     OW83627  12.546   3.470  10.260
60618SOL    HW183628  12.586   3.490  10.345
60618SOL    HW283629  12.566   3.378  10.246
60619SOL     OW83630   8.250  10.010   3.723
60619SOL    HW183631   8.272  10.073   3.792
60619SOL    HW283632   8.163  10.038   3.693
60620SOL     OW83633   8.947   0.280  14.196
60620SOL    HW183634   8.873   0.282  14.257
60620SOL    HW283635   9.018   0.322  14.245
60621SOL     OW83636   9.803   8.671  11.514
60621SOL    HW183637   9.827   8.763  11.500
60621SOL    HW283638   9.866   8.621  11.462
60622SOL     OW83639  10.789  11.966   4.583
60622SOL    HW183640  10.797  12.034   4.650
60622SOL    HW283641  10.830  11.889   4.621
60623SOL     OW83642  14.742  10.464  11.304
60623SOL    HW183643  14.665  10.484  11.357
60623SOL    HW283644  14.815  10.470  11.365
60624SOL     OW83645  14.125   1.942  10.560
60624SOL    HW183646  14.161   1.873  10.616
60624SOL    HW283647  14.105   2.014  10.620
60625SOL     OW83648  12.001  12.217   2.575
60625SOL    HW183649  11.996  12.190   2.667
60625SOL    HW283650  12.067  12.287   2.574
60626SOL     OW83651   0.995   1.736   0.248
60626SOL    HW183652   1.028   1.824   0.231
60626SOL    HW283653   1.074   1.683   0.263
60627SOL     OW83654   6.386  11.028  13.736
60627SOL    HW183655   6.377  10.961  13.668
60627SOL    HW283656   6.320  11.005  13.802
60628SOL     OW83657   1.069  13.142   1.472
60628SOL    HW183658   1.122  13.181   1.402
60628SOL    HW283659   0.983  13.130   1.432
60629SOL     OW83660   6.334  14.167   3.546
60629SOL    HW183661   6.405  14.228   3.569
60629SOL    HW283662   6.296  14.204   3.467
60630SOL     OW83663  14.513  13.757   3.700
60630SOL    HW183664  14.518  13.741   3.794
60630SOL    HW283665  14.545  13.677   3.659
60631SOL     OW83666   5.657   9.607  13.377
60631SOL    HW183667   5.701   9.631  13.459
60631SOL    HW283668   5.679   9.514  13.365
60632SOL     OW83669  14.469  11.386  10.831
60632SOL    HW183670  14.482  11.420  10.919
60632SOL    HW283671  14.460  11.463  10.775
60633SOL     OW83672  10.343  12.717   7.057
60633SOL    HW183673  10.381  12.668   7.130
60633SOL    HW283674  10.313  12.650   6.996
60634SOL     OW83675  14.261  11.061   9.105
60634SOL    HW183676  14.180  11.109   9.117
60634SOL    HW283677  14.235  10.979   9.064
60635SOL     OW83678  11.998  10.439  14.688
60635SOL    HW183679  12.085  10.410  14.715
60635SOL    HW283680  11.942  10.362  14.702
60636SOL     OW83681   4.228   6.158   0.708
60636SOL    HW183682   4.230   6.241   0.659
60636SOL    HW283683   4.143   6.120   0.687
60637SOL     OW83684   4.227   7.669  14.623
60637SOL    HW183685   4.243   7.762  14.608
60637SOL    HW283686   4.251   7.655  14.715
60638SOL     OW83687  14.498  14.144   4.442
60638SOL    HW183688  14.553  14.116   4.369
60638SOL    HW283689  14.434  14.074   4.452
60639SOL     OW83690   7.271   7.479  12.633
60639SOL    HW183691   7.339   7.512  12.691
60639SOL    HW283692   7.194   7.533  12.654
60640SOL     OW83693   3.988  14.762  11.560
60640SOL    HW183694   3.924  14.786  11.627
60640SOL    HW283695   3.996  14.667  11.566
60641SOL     OW83696   2.998   5.149  13.707
60641SOL    HW183697   2.998   5.082  13.776
60641SOL    HW283698   3.080   5.197  13.721
60642SOL     OW83699   7.457  11.739  13.254
60642SOL    HW183700   7.516  11.664  13.256
60642SOL    HW283701   7.506  11.807  13.208
60643SOL     OW83702   0.230   5.168   1.967
60643SOL    HW183703   0.314   5.171   1.921
60643SOL    HW283704   0.169   5.214   1.909
60644SOL     OW83705   3.986   2.917   4.206
60644SOL    HW183706   4.080   2.909   4.224
60644SOL    HW283707   3.953   2.828   4.214
60645SOL     OW83708   5.063   3.259   1.515
60645SOL    HW183709   5.010   3.236   1.591
60645SOL    HW283710   5.016   3.222   1.440
60646SOL     OW83711   2.073   2.487   5.823
60646SOL    HW183712   1.988   2.469   5.782
60646SOL    HW283713   2.133   2.501   5.750
60647SOL     OW83714  10.391   2.280  11.091
60647SOL    HW183715  10.433   2.200  11.124
60647SOL    HW283716  10.336   2.250  11.019
60648SOL     OW83717   2.976   1.678  12.258
60648SOL    HW183718   3.000   1.673  12.165
60648SOL    HW283719   2.968   1.587  12.285
60649SOL     OW83720   2.341   0.490   4.859
60649SOL    HW183721   2.270   0.462   4.916
60649SOL    HW283722   2.412   0.515   4.918
60650SOL     OW83723   9.581   8.272   8.731
60650SOL    HW183724   9.539   8.358   8.738
60650SOL    HW283725   9.562   8.229   8.814
60651SOL     OW83726   1.092   2.938   4.244
60651SOL    HW183727   1.068   3.022   4.282
60651SOL    HW283728   1.183   2.948   4.217
60652SOL     OW83729   2.457   3.806   9.030
60652SOL    HW183730   2.528   3.868   9.015
60652SOL    HW283731   2.405   3.846   9.100
60653SOL     OW83732   3.430   9.044   0.124
60653SOL    HW183733   3.507   9.042   0.067
60653SOL    HW283734   3.422   9.135   0.151
60654SOL     OW83735  12.448  10.965   2.059
60654SOL    HW183736  12.533  10.926   2.078
60654SOL    HW283737  12.466  11.027   1.988
60655SOL     OW83738   6.387   1.336  11.784
60655SOL    HW183739   6.449   1.353  11.856
60655SOL    HW283740   6.309   1.301  11.827
60656SOL     OW83741   7.206   5.481   8.855
60656SOL    HW183742   7.251   5.553   8.899
60656SOL    HW283743   7.170   5.521   8.775
60657SOL     OW83744   8.952   9.918  11.526
60657SOL    HW183745   9.033   9.867  11.529
60657SOL    HW283746   8.977  10.004  11.560
60658SOL     OW83747  13.308  13.626  12.843
60658SOL    HW183748  13.364  13.682  12.896
60658SOL    HW283749  13.238  13.599  12.902
60659SOL     OW83750   1.315  13.388   1.785
60659SOL    HW183751   1.220  13.378   1.771
60659SOL    HW283752   1.337  13.319   1.847
60660SOL     OW83753   3.588   1.950   2.179
60660SOL    HW183754   3.631   1.865   2.172
60660SOL    HW283755   3.582   1.966   2.274
60661SOL     OW83756  13.001   2.914   3.891
60661SOL    HW183757  12.990   2.933   3.798
60661SOL    HW283758  12.959   2.829   3.903
60662SOL     OW83759  10.483   9.618   0.080
60662SOL    HW183760  10.420   9.666   0.135
60662SOL    HW283761  10.562   9.671   0.083
60663SOL     OW83762  14.302   7.430   6.009
60663SOL    HW183763  14.314   7.498   6.075
60663SOL    HW283764  14.369   7.364   6.028
60664SOL     OW83765   8.887  10.581   8.597
60664SOL    HW183766   8.977  10.552   8.611
60664SOL    HW283767   8.882  10.598   8.503
60665SOL     OW83768   8.236   4.744  11.485
60665SOL    HW183769   8.161   4.695  11.452
60665SOL    HW283770   8.243   4.819  11.425
60666SOL     OW83771   5.198  10.585   7.647
60666SOL    HW183772   5.266  10.585   7.580
60666SOL    HW283773   5.238  10.627   7.723
60667SOL     OW83774  12.069   0.294  14.749
60667SOL    HW183775  11.977   0.267  14.758
60667SOL    HW283776  12.072   0.380  14.791
60668SOL     OW83777   0.702   7.563   8.031
60668SOL    HW183778   0.611   7.536   8.026
60668SOL    HW283779   0.733   7.527   8.114
60669SOL     OW83780   6.110   8.557  12.695
60669SOL    HW183781   6.184   8.616  12.680
60669SOL    HW283782   6.131   8.513  12.777
60670SOL     OW83783   5.187   9.653  10.513
60670SOL    HW183784   5.191   9.659  10.418
60670SOL    HW283785   5.114   9.594  10.531
60671SOL     OW83786   9.272   3.517   7.033
60671SOL    HW183787   9.197   3.461   7.011
60671SOL    HW283788   9.345   3.479   6.984
60672SOL     OW83789  10.328   1.631  13.445
60672SOL    HW183790  10.267   1.558  13.460
60672SOL    HW283791  10.414   1.592  13.456
60673SOL     OW83792   4.158  12.815  13.824
60673SOL    HW183793   4.178  12.871  13.748
60673SOL    HW283794   4.197  12.731  13.803
60674SOL     OW83795  11.874  14.785   6.999
60674SOL    HW183796  11.812  14.758   6.931
60674SOL    HW283797  11.915  14.864   6.964
60675SOL     OW83798   9.862   4.237   0.315
60675SOL    HW183799   9.781   4.217   0.269
60675SOL    HW283800   9.911   4.292   0.254
60676SOL     OW83801  13.081  14.591   6.631
60676SOL    HW183802  13.160  14.643   6.644
60676SOL    HW283803  13.032  14.639   6.564
60677SOL     OW83804   3.928   7.140   7.473
60677SOL    HW183805   3.917   7.073   7.406
60677SOL    HW283806   3.996   7.197   7.438
60678SOL     OW83807   3.799   0.939   3.113
60678SOL    HW183808   3.874   0.997   3.098
60678SOL    HW283809   3.732   0.995   3.152
60679SOL     OW83810   3.619  11.276   8.973
60679SOL    HW183811   3.570  11.283   9.056
60679SOL    HW283812   3.569  11.213   8.922
60680SOL     OW83813   6.688   8.444   6.225
60680SOL    HW183814   6.647   8.529   6.211
60680SOL    HW283815   6.692   8.435   6.321
60681SOL     OW83816   0.168   1.989   1.438
60681SOL    HW183817   0.140   1.903   1.470
60681SOL    HW283818   0.091   2.025   1.395
60682SOL     OW83819  13.772   3.252   2.714
60682SOL    HW183820  13.784   3.173   2.767
60682SOL    HW283821  13.848   3.254   2.656
60683SOL     OW83822   8.810   3.784   5.300
60683SOL    HW183823   8.837   3.852   5.363
60683SOL    HW283824   8.858   3.806   5.220
60684SOL     OW83825   4.312   5.789  14.568
60684SOL    HW183826   4.379   5.743  14.517
60684SOL    HW283827   4.333   5.768  14.659
60685SOL     OW83828   9.690   4.122  12.871
60685SOL    HW183829   9.730   4.178  12.805
60685SOL    HW283830   9.666   4.042  12.823
60686SOL     OW83831  11.186   7.612  11.179
60686SOL    HW183832  11.235   7.627  11.259
60686SOL    HW283833  11.249   7.571  11.120
60687SOL     OW83834   5.440   9.438   8.831
60687SOL    HW183835   5.366   9.397   8.785
60687SOL    HW283836   5.402   9.515   8.873
60688SOL     OW83837   3.291   0.251   4.095
60688SOL    HW183838   3.334   0.168   4.075
60688SOL    HW283839   3.203   0.226   4.125
60689SOL     OW83840  11.602   8.716  13.980
60689SOL    HW183841  11.596   8.621  13.984
60689SOL    HW283842  11.658   8.734  13.905
60690SOL     OW83843   9.835  10.869   2.484
60690SOL    HW183844   9.775  10.916   2.543
60690SOL    HW283845   9.899  10.936   2.458
60691SOL     OW83846   3.512   0.814   7.894
60691SOL    HW183847   3.520   0.718   7.898
60691SOL    HW283848   3.419   0.829   7.879
60692SOL     OW83849  12.293  13.584   4.372
60692SOL    HW183850  12.314  13.498   4.408
60692SOL    HW283851  12.224  13.566   4.308
60693SOL     OW83852   2.228  12.071  13.893
60693SOL    HW183853   2.171  11.994  13.888
60693SOL    HW283854   2.196  12.129  13.823
60694SOL     OW83855   9.205   9.628   7.137
60694SOL    HW183856   9.191   9.542   7.098
60694SOL    HW283857   9.300   9.633   7.151
60695SOL     OW83858  13.754  12.706   0.190
60695SOL    HW183859  13.727  12.776   0.250
60695SOL    HW283860  13.787  12.752   0.113
60696SOL     OW83861   8.488  13.718   7.838
60696SOL    HW183862   8.436  13.714   7.758
60696SOL    HW283863   8.573  13.682   7.813
60697SOL     OW83864   9.083   9.438   8.549
60697SOL    HW183865   9.087   9.346   8.574
60697SOL    HW283866   9.005   9.445   8.494
60698SOL     OW83867  12.774   0.649  11.091
60698SOL    HW183868  12.702   0.599  11.053
60698SOL    HW283869  12.784   0.724  11.032
60699SOL     OW83870   6.623   2.598   5.046
60699SOL    HW183871   6.703   2.555   5.075
60699SOL    HW283872   6.609   2.564   4.958
60700SOL     OW83873   6.004  13.049   0.995
60700SOL    HW183874   6.065  13.031   1.068
60700SOL    HW283875   6.021  13.140   0.972
60701SOL     OW83876   1.271   8.055  14.157
60701SOL    HW183877   1.291   8.145  14.130
60701SOL    HW283878   1.334   8.036  14.226
60702SOL     OW83879   8.573  12.642   5.795
60702SOL    HW183880   8.611  12.644   5.707
60702SOL    HW283881   8.508  12.712   5.795
60703SOL     OW83882  13.420   4.316  11.361
60703SOL    HW183883  13.395   4.402  11.394
60703SOL    HW283884  13.384   4.255  11.426
60704SOL     OW83885   5.022  13.700  13.421
60704SOL    HW183886   5.085  13.765  13.452
60704SOL    HW283887   5.076  13.630  13.384
60705SOL     OW83888   7.155   5.337   9.987
60705SOL    HW183889   7.248   5.350  10.008
60705SOL    HW283890   7.116   5.423   9.998
60706SOL     OW83891  12.738  11.913   4.990
60706SOL    HW183892  12.678  11.964   5.045
60706SOL    HW283893  12.732  11.824   5.023
60707SOL     OW83894  12.150   3.160  14.144
60707SOL    HW183895  12.193   3.225  14.087
60707SOL    HW283896  12.175   3.076  14.107
60708SOL     OW83897   1.145   4.685   2.782
60708SOL    HW183898   1.083   4.613   2.771
60708SOL    HW283899   1.228   4.650   2.749
60709SOL     OW83900   6.118   2.299   5.899
60709SOL    HW183901   6.035   2.331   5.935
60709SOL    HW283902   6.185   2.348   5.946
60710SOL     OW83903   9.295   6.016  14.466
60710SOL    HW183904   9.270   6.098  14.508
60710SOL    HW283905   9.224   5.998  14.404
60711SOL     OW83906   5.818  11.511  14.504
60711SOL    HW183907   5.771  11.507  14.588
60711SOL    HW283908   5.774  11.581  14.455
60712SOL     OW83909  10.522   1.115   1.357
60712SOL    HW183910  10.495   1.175   1.288
60712SOL    HW283911  10.445   1.108   1.414
60713SOL     OW83912   0.399   0.819   4.179
60713SOL    HW183913   0.400   0.913   4.199
60713SOL    HW283914   0.317   0.806   4.131
60714SOL     OW83915  14.696  12.331  10.679
60714SOL    HW183916  14.771  12.390  10.675
60714SOL    HW283917  14.620  12.388  10.680
60715SOL     OW83918   3.592  11.698   0.396
60715SOL    HW183919   3.546  11.707   0.312
60715SOL    HW283920   3.603  11.603   0.407
60716SOL     OW83921   5.277   0.946   5.762
60716SOL    HW183922   5.298   0.881   5.829
60716SOL    HW283923   5.341   0.931   5.693
60717SOL     OW83924   4.733   8.688  12.646
60717SOL    HW183925   4.801   8.673  12.712
60717SOL    HW283926   4.761   8.636  12.571
60718SOL     OW83927   0.561  11.175   8.454
60718SOL    HW183928   0.541  11.268   8.460
60718SOL    HW283929   0.540  11.140   8.540
60719SOL     OW83930  12.553   0.576   1.481
60719SOL    HW183931  12.606   0.503   1.512
60719SOL    HW283932  12.464   0.541   1.473
60720SOL     OW83933   1.970   1.359   2.829
60720SOL    HW183934   2.006   1.372   2.916
60720SOL    HW283935   1.887   1.407   2.830
60721SOL     OW83936   4.003   7.610   7.033
60721SOL    HW183937   4.069   7.651   7.088
60721SOL    HW283938   4.007   7.517   7.057
60722SOL     OW83939   7.672   3.917   8.207
60722SOL    HW183940   7.583   3.911   8.241
60722SOL    HW283941   7.685   4.011   8.190
60723SOL     OW83942  12.072  14.359   8.507
60723SOL    HW183943  12.098  14.269   8.524
60723SOL    HW283944  11.983  14.366   8.541
60724SOL     OW83945   9.043   3.138   9.542
60724SOL    HW183946   9.130   3.176   9.555
60724SOL    HW283947   9.042   3.111   9.450
60725SOL     OW83948   0.238   5.090   1.365
60725SOL    HW183949   0.236   4.995   1.368
60725SOL    HW283950   0.293   5.111   1.290
60726SOL     OW83951   4.263  10.323   4.929
60726SOL    HW183952   4.236  10.296   5.017
60726SOL    HW283953   4.256  10.244   4.876
60727SOL     OW83954   8.853   2.790  10.136
60727SOL    HW183955   8.781   2.763  10.079
60727SOL    HW283956   8.897   2.860  10.087
60728SOL     OW83957   0.134  13.248  11.460
60728SOL    HW183958   0.187  13.250  11.380
60728SOL    HW283959   0.121  13.340  11.482
60729SOL     OW83960  13.213   1.938  12.399
60729SOL    HW183961  13.253   1.892  12.326
60729SOL    HW283962  13.219   1.877  12.472
60730SOL     OW83963  11.234   3.083   4.481
60730SOL    HW183964  11.315   3.032   4.480
60730SOL    HW283965  11.167   3.022   4.451
60731SOL     OW83966  12.719  12.082   1.388
60731SOL    HW183967  12.787  12.147   1.373
60731SOL    HW283968  12.741  12.010   1.328
60732SOL     OW83969   8.500   9.143   9.513
60732SOL    HW183970   8.563   9.152   9.442
60732SOL    HW283971   8.547   9.097   9.582
60733SOL     OW83972   8.558   4.027   7.302
60733SOL    HW183973   8.480   3.974   7.318
60733SOL    HW283974   8.630   3.963   7.303
60734SOL     OW83975  10.805   9.326   7.859
60734SOL    HW183976  10.809   9.404   7.803
60734SOL    HW283977  10.896   9.309   7.883
60735SOL     OW83978  12.322   2.055   5.903
60735SOL    HW183979  12.314   2.071   5.997
60735SOL    HW283980  12.269   1.977   5.887
60736SOL     OW83981   5.630   3.406  14.542
60736SOL    HW183982   5.573   3.358  14.601
60736SOL    HW283983   5.619   3.498  14.567
60737SOL     OW83984  12.748   4.759   6.191
60737SOL    HW183985  12.801   4.809   6.253
60737SOL    HW283986  12.665   4.745   6.236
60738SOL     OW83987   5.187   9.488  10.775
60738SOL    HW183988   5.248   9.541  10.723
60738SOL    HW283989   5.131   9.553  10.818
60739SOL     OW83990   5.446   9.748   3.100
60739SOL    HW183991   5.453   9.749   3.195
60739SOL    HW283992   5.528   9.788   3.069
60740SOL     OW83993   0.797  12.414   3.909
60740SOL    HW183994   0.762  12.369   3.832
60740SOL    HW283995   0.747  12.380   3.983
60741SOL     OW83996   3.864   3.420  11.721
60741SOL    HW183997   3.769   3.425  11.706
60741SOL    HW283998   3.892   3.341  11.676
60742SOL     OW83999   4.912   2.284   6.067
60742SOL    HW184000   4.857   2.319   5.996
60742SOL    HW284001   4.949   2.203   6.031
60743SOL     OW84002   0.018   9.285   1.855
60743SOL    HW184003   0.063   9.230   1.919
60743SOL    HW284004   0.084   9.304   1.789
60744SOL     OW84005  10.643   3.659  13.185
60744SOL    HW184006  10.674   3.616  13.265
60744SOL    HW284007  10.715   3.649  13.123
60745SOL     OW84008   6.798  10.502   0.751
60745SOL    HW184009   6.821  10.550   0.830
60745SOL    HW284010   6.748  10.427   0.782
60746SOL     OW84011   9.965  11.372   0.652
60746SOL    HW184012   9.960  11.467   0.646
60746SOL    HW284013   9.890  11.341   0.602
60747SOL     OW84014   9.482  11.144  10.246
60747SOL    HW184015   9.451  11.215  10.190
60747SOL    HW284016   9.485  11.067  10.189
60748SOL     OW84017   3.637   2.710   5.934
60748SOL    HW184018   3.724   2.703   5.894
60748SOL    HW284019   3.609   2.800   5.915
60749SOL     OW84020  13.868   0.150   0.457
60749SOL    HW184021  13.841   0.207   0.528
60749SOL    HW284022  13.963   0.144   0.467
60750SOL     OW84023   6.703   3.656   1.188
60750SOL    HW184024   6.665   3.725   1.242
60750SOL    HW284025   6.718   3.698   1.103
60751SOL     OW84026  11.917   5.277  14.266
60751SOL    HW184027  11.834   5.268  14.219
60751SOL    HW284028  11.976   5.315  14.201
60752SOL     OW84029   9.368   5.203   4.663
60752SOL    HW184030   9.448   5.179   4.709
60752SOL    HW284031   9.316   5.123   4.661
60753SOL     OW84032   6.828   1.086  12.704
60753SOL    HW184033   6.907   1.098  12.651
60753SOL    HW284034   6.825   1.163  12.761
60754SOL     OW84035   8.445   0.923   0.505
60754SOL    HW184036   8.475   0.973   0.429
60754SOL    HW284037   8.404   0.845   0.468
60755SOL     OW84038   5.028  14.248   8.145
60755SOL    HW184039   5.044  14.342   8.153
60755SOL    HW284040   5.115  14.209   8.152
60756SOL     OW84041   4.285   7.591   2.784
60756SOL    HW184042   4.319   7.547   2.706
60756SOL    HW284043   4.211   7.537   2.812
60757SOL     OW84044   8.002  11.426   1.036
60757SOL    HW184045   7.926  11.472   1.001
60757SOL    HW284046   8.061  11.496   1.064
60758SOL     OW84047   6.887   0.778   7.741
60758SOL    HW184048   6.937   0.745   7.667
60758SOL    HW284049   6.895   0.873   7.736
60759SOL     OW84050   3.150   2.222   6.297
60759SOL    HW184051   3.190   2.172   6.226
60759SOL    HW284052   3.060   2.190   6.302
60760SOL     OW84053   9.797   1.253  10.874
60760SOL    HW184054   9.749   1.232  10.794
60760SOL    HW284055   9.871   1.192  10.875
60761SOL     OW84056   8.929   5.411   2.110
60761SOL    HW184057   8.912   5.505   2.117
60761SOL    HW284058   9.024   5.403   2.118
60762SOL     OW84059  13.594  10.784  10.607
60762SOL    HW184060  13.546  10.769  10.526
60762SOL    HW284061  13.596  10.880  10.616
60763SOL     OW84062   2.126   4.256   5.622
60763SOL    HW184063   2.220   4.238   5.617
60763SOL    HW284064   2.091   4.182   5.671
60764SOL     OW84065   9.973  13.606   5.568
60764SOL    HW184066   9.888  13.578   5.601
60764SOL    HW284067   9.953  13.656   5.489
60765SOL     OW84068  14.657   7.942   8.349
60765SOL    HW184069  14.579   7.940   8.404
60765SOL    HW284070  14.668   7.852   8.318
60766SOL     OW84071   5.271   2.264   7.135
60766SOL    HW184072   5.279   2.210   7.214
60766SOL    HW284073   5.315   2.346   7.157
60767SOL     OW84074   0.487   7.470   7.391
60767SOL    HW184075   0.421   7.534   7.417
60767SOL    HW284076   0.479   7.464   7.296
60768SOL     OW84077   5.901  13.207  12.140
60768SOL    HW184078   5.918  13.128  12.089
60768SOL    HW284079   5.981  13.259  12.132
60769SOL     OW84080  10.255   5.348   8.812
60769SOL    HW184081  10.176   5.306   8.847
60769SOL    HW284082  10.229   5.378   8.725
60770SOL     OW84083  10.786  13.844  11.192
60770SOL    HW184084  10.852  13.896  11.238
60770SOL    HW284085  10.806  13.753  11.215
60771SOL     OW84086   2.907   9.537   8.639
60771SOL    HW184087   2.980   9.521   8.698
60771SOL    HW284088   2.927   9.621   8.597
60772SOL     OW84089   1.682  13.905  11.418
60772SOL    HW184090   1.727  13.829  11.454
60772SOL    HW284091   1.630  13.939  11.491
60773SOL     OW84092  12.006   5.720  13.429
60773SOL    HW184093  12.040   5.630  13.419
60773SOL    HW284094  11.912   5.709  13.438
60774SOL     OW84095  13.651  10.720  11.428
60774SOL    HW184096  13.704  10.788  11.468
60774SOL    HW284097  13.714  10.656  11.396
60775SOL     OW84098   1.596   2.612  10.773
60775SOL    HW184099   1.635   2.600  10.686
60775SOL    HW284100   1.671   2.614  10.833
60776SOL     OW84101  11.614   0.151  10.316
60776SOL    HW184102  11.548   0.096  10.355
60776SOL    HW284103  11.651   0.098  10.245
60777SOL     OW84104  10.455   9.948   3.003
60777SOL    HW184105  10.374   9.942   2.953
60777SOL    HW284106  10.427   9.975   3.091
60778SOL     OW84107   7.991   0.368   1.872
60778SOL    HW184108   7.965   0.318   1.794
60778SOL    HW284109   7.919   0.430   1.886
60779SOL     OW84110   1.273   8.265   9.219
60779SOL    HW184111   1.332   8.234   9.288
60779SOL    HW284112   1.304   8.353   9.198
60780SOL     OW84113   2.372   7.684   4.263
60780SOL    HW184114   2.465   7.670   4.277
60780SOL    HW284115   2.341   7.604   4.222
60781SOL     OW84116   8.610  13.910   6.270
60781SOL    HW184117   8.616  13.904   6.366
60781SOL    HW284118   8.660  13.989   6.249
60782SOL     OW84119  13.973   9.401  11.087
60782SOL    HW184120  13.947   9.476  11.033
60782SOL    HW284121  13.901   9.338  11.076
60783SOL     OW84122  13.542  12.709   5.952
60783SOL    HW184123  13.618  12.704   5.894
60783SOL    HW284124  13.579  12.722   6.039
60784SOL     OW84125   3.919  14.175   4.421
60784SOL    HW184126   3.867  14.183   4.501
60784SOL    HW284127   4.004  14.211   4.443
60785SOL     OW84128   2.430   5.302  13.794
60785SOL    HW184129   2.481   5.381  13.808
60785SOL    HW284130   2.339   5.328  13.809
60786SOL     OW84131  12.032  11.819   6.995
60786SOL    HW184132  11.965  11.824   6.927
60786SOL    HW284133  12.114  11.806   6.947
60787SOL     OW84134   6.285   9.469   0.126
60787SOL    HW184135   6.376   9.453   0.099
60787SOL    HW284136   6.279   9.432   0.214
60788SOL     OW84137  13.211   5.617  12.532
60788SOL    HW184138  13.284   5.566  12.498
60788SOL    HW284139  13.245   5.661  12.609
60789SOL     OW84140  13.321   1.974   4.959
60789SOL    HW184141  13.372   1.902   4.997
60789SOL    HW284142  13.260   2.000   5.028
60790SOL     OW84143   9.336   3.385   2.826
60790SOL    HW184144   9.250   3.411   2.858
60790SOL    HW284145   9.322   3.300   2.785
60791SOL     OW84146   7.363  10.614   5.254
60791SOL    HW184147   7.404  10.582   5.335
60791SOL    HW284148   7.274  10.579   5.257
60792SOL     OW84149  13.506   1.137  11.064
60792SOL    HW184150  13.501   1.064  11.126
60792SOL    HW284151  13.597   1.135  11.033
60793SOL     OW84152   5.681   6.799   6.020
60793SOL    HW184153   5.743   6.822   5.951
60793SOL    HW284154   5.701   6.709   6.042
60794SOL     OW84155   8.115   5.644  10.463
60794SOL    HW184156   8.155   5.724  10.498
60794SOL    HW284157   8.183   5.578  10.471
60795SOL     OW84158   3.712   4.303   0.005
60795SOL    HW184159   3.739   4.377   0.059
60795SOL    HW284160   3.635   4.268   0.049
60796SOL     OW84161   7.877   9.843  10.637
60796SOL    HW184162   7.799   9.803  10.599
60796SOL    HW284163   7.865   9.835  10.731
60797SOL     OW84164   1.880   5.526  10.549
60797SOL    HW184165   1.788   5.551  10.563
60797SOL    HW284166   1.893   5.451  10.608
60798SOL     OW84167  11.770   9.042   8.319
60798SOL    HW184168  11.717   8.989   8.260
60798SOL    HW284169  11.824   8.979   8.367
60799SOL     OW84170   9.595   6.426   1.945
60799SOL    HW184171   9.657   6.448   1.876
60799SOL    HW284172   9.645   6.368   2.004
60800SOL     OW84173   8.107  14.126   1.519
60800SOL    HW184174   8.083  14.042   1.558
60800SOL    HW284175   8.131  14.181   1.593
60801SOL     OW84176   2.676   4.936   3.205
60801SOL    HW184177   2.732   4.880   3.257
60801SOL    HW284178   2.684   4.903   3.115
60802SOL     OW84179  14.684   9.756  13.624
60802SOL    HW184180  14.777   9.775  13.639
60802SOL    HW284181  14.674   9.762  13.529
60803SOL     OW84182  13.916   4.124   5.205
60803SOL    HW184183  13.845   4.068   5.237
60803SOL    HW284184  13.986   4.114   5.269
60804SOL     OW84185   8.805   6.535  14.363
60804SOL    HW184186   8.786   6.441  14.368
60804SOL    HW284187   8.726   6.573  14.325
60805SOL     OW84188  10.948  10.346  13.870
60805SOL    HW184189  11.032  10.310  13.897
60805SOL    HW284190  10.968  10.398  13.791
60806SOL     OW84191   7.099  14.619   6.893
60806SOL    HW184192   7.053  14.647   6.972
60806SOL    HW284193   7.178  14.577   6.925
60807SOL     OW84194   3.609  12.440  13.095
60807SOL    HW184195   3.617  12.348  13.118
60807SOL    HW284196   3.688  12.481  13.129
60808SOL     OW84197  12.744  11.808   4.001
60808SOL    HW184198  12.833  11.817   3.969
60808SOL    HW284199  12.752  11.757   4.082
60809SOL     OW84200   7.969  10.915   7.058
60809SOL    HW184201   8.049  10.912   7.006
60809SOL    HW284202   7.906  10.863   7.007
60810SOL     OW84203  14.713   5.747  14.642
60810SOL    HW184204  14.621   5.725  14.659
60810SOL    HW284205  14.716   5.842  14.649
60811SOL     OW84206   8.094   4.062   4.602
60811SOL    HW184207   8.134   4.065   4.514
60811SOL    HW284208   8.014   4.114   4.594
60812SOL     OW84209   6.676   6.945  10.836
60812SOL    HW184210   6.668   6.991  10.753
60812SOL    HW284211   6.727   6.867  10.815
60813SOL     OW84212   3.620   7.283   0.383
60813SOL    HW184213   3.684   7.269   0.312
60813SOL    HW284214   3.553   7.216   0.368
60814SOL     OW84215   9.758   9.690   1.240
60814SOL    HW184216   9.702   9.695   1.317
60814SOL    HW284217   9.698   9.683   1.166
60815SOL     OW84218  13.733  11.610   3.814
60815SOL    HW184219  13.727  11.517   3.835
60815SOL    HW284220  13.680  11.654   3.881
60816SOL     OW84221   6.625   6.533  12.134
60816SOL    HW184222   6.714   6.499  12.131
60816SOL    HW284223   6.634   6.624  12.160
60817SOL     OW84224   5.989   8.567  13.340
60817SOL    HW184225   5.978   8.593  13.248
60817SOL    HW284226   6.047   8.633  13.377
60818SOL     OW84227  10.543   1.210   9.743
60818SOL    HW184228  10.550   1.225   9.837
60818SOL    HW284229  10.535   1.115   9.734
60819SOL     OW84230  13.815  10.067   2.803
60819SOL    HW184231  13.872  10.131   2.759
60819SOL    HW284232  13.819   9.990   2.747
60820SOL     OW84233  12.280   1.921   1.851
60820SOL    HW184234  12.357   1.928   1.907
60820SOL    HW284235  12.227   1.998   1.873
60821SOL     OW84236   9.968  12.522   3.740
60821SOL    HW184237   9.877  12.494   3.736
60821SOL    HW284238   9.989  12.546   3.649
60822SOL     OW84239  14.350   9.543  13.354
60822SOL    HW184240  14.427   9.500  13.316
60822SOL    HW284241  14.376   9.634  13.364
60823SOL     OW84242   2.653  12.796   6.450
60823SOL    HW184243   2.718  12.798   6.380
60823SOL    HW284244   2.621  12.886   6.456
60824SOL     OW84245   1.300   2.760  13.265
60824SOL    HW184246   1.389   2.788  13.245
60824SOL    HW284247   1.267   2.721  13.184
60825SOL     OW84248   3.987   4.498  11.556
60825SOL    HW184249   3.996   4.405  11.535
60825SOL    HW284250   4.047   4.541  11.496
60826SOL     OW84251   6.773   1.819   1.751
60826SOL    HW184252   6.778   1.767   1.671
60826SOL    HW284253   6.782   1.754   1.821
60827SOL     OW84254   5.721   1.735   3.176
60827SOL    HW184255   5.812   1.757   3.192
60827SOL    HW284256   5.713   1.729   3.081
60828SOL     OW84257   1.402   9.724  13.856
60828SOL    HW184258   1.476   9.755  13.804
60828SOL    HW284259   1.418   9.759  13.944
60829SOL     OW84260  12.788   4.448   2.445
60829SOL    HW184261  12.806   4.463   2.352
60829SOL    HW284262  12.694   4.463   2.454
60830SOL     OW84263   6.465   4.781  11.747
60830SOL    HW184264   6.520   4.814  11.818
60830SOL    HW284265   6.377   4.815  11.768
60831SOL     OW84266   7.811  10.696  13.949
60831SOL    HW184267   7.904  10.676  13.961
60831SOL    HW284268   7.792  10.762  14.015
60832SOL     OW84269  14.752   0.948  12.074
60832SOL    HW184270  14.847   0.943  12.086
60832SOL    HW284271  14.739   1.021  12.014
60833SOL     OW84272  10.106   9.070   8.979
60833SOL    HW184273  10.095   8.996   8.921
60833SOL    HW284274  10.044   9.055   9.050
60834SOL     OW84275   6.549   2.583   0.611
60834SOL    HW184276   6.536   2.490   0.629
60834SOL    HW284277   6.469   2.625   0.642
60835SOL     OW84278   3.114   4.533   3.676
60835SOL    HW184279   3.117   4.499   3.587
60835SOL    HW284280   3.057   4.610   3.671
60836SOL     OW84281   6.187  13.231   8.594
60836SOL    HW184282   6.142  13.152   8.566
60836SOL    HW284283   6.265  13.200   8.640
60837SOL     OW84284   8.401   1.678   1.552
60837SOL    HW184285   8.349   1.601   1.573
60837SOL    HW284286   8.343   1.752   1.572
60838SOL     OW84287  12.621  11.538  10.667
60838SOL    HW184288  12.678  11.501  10.600
60838SOL    HW284289  12.627  11.477  10.740
60839SOL     OW84290   1.920   6.261  12.486
60839SOL    HW184291   1.909   6.350  12.522
60839SOL    HW284292   1.832   6.223  12.488
60840SOL     OW84293  12.674   6.452   6.385
60840SOL    HW184294  12.597   6.500   6.417
60840SOL    HW284295  12.740   6.520   6.371
60841SOL     OW84296  13.775   6.548   9.408
60841SOL    HW184297  13.842   6.505   9.356
60841SOL    HW284298  13.814   6.631   9.435
60842SOL     OW84299   9.874   2.675   0.318
60842SOL    HW184300   9.901   2.703   0.405
60842SOL    HW284301   9.830   2.752   0.281
60843SOL     OW84302   5.228   3.600   6.845
60843SOL    HW184303   5.271   3.668   6.794
60843SOL    HW284304   5.178   3.550   6.780
60844SOL     OW84305  14.765   8.894  10.723
60844SOL    HW184306  14.744   8.807  10.692
60844SOL    HW284307  14.855   8.887  10.756
60845SOL     OW84308  11.813   9.486   2.298
60845SOL    HW184309  11.756   9.412   2.317
60845SOL    HW284310  11.846   9.469   2.210
60846SOL     OW84311   8.834   9.142   5.806
60846SOL    HW184312   8.759   9.155   5.747
60846SOL    HW284313   8.910   9.150   5.750
60847SOL     OW84314   7.159   4.399  11.265
60847SOL    HW184315   7.076   4.383  11.221
60847SOL    HW284316   7.221   4.418  11.194
60848SOL     OW84317  11.770   5.469   9.674
60848SOL    HW184318  11.849   5.459   9.621
60848SOL    HW284319  11.780   5.554   9.716
60849SOL     OW84320  10.470   5.758   1.089
60849SOL    HW184321  10.501   5.769   1.179
60849SOL    HW284322  10.461   5.847   1.056
60850SOL     OW84323   5.159   9.701   1.340
60850SOL    HW184324   5.110   9.754   1.404
60850SOL    HW284325   5.093   9.644   1.301
60851SOL     OW84326   3.595   6.792  10.635
60851SOL    HW184327   3.583   6.774  10.728
60851SOL    HW284328   3.524   6.853  10.613
60852SOL     OW84329   6.875  12.383  13.339
60852SOL    HW184330   6.967  12.390  13.366
60852SOL    HW284331   6.832  12.342  13.414
60853SOL     OW84332   1.737  14.049  13.279
60853SOL    HW184333   1.759  14.114  13.346
60853SOL    HW284334   1.712  14.100  13.202
60854SOL     OW84335  13.144   1.004   5.251
60854SOL    HW184336  13.123   0.994   5.158
60854SOL    HW284337  13.063   0.983   5.296
60855SOL     OW84338   0.353   6.398   1.838
60855SOL    HW184339   0.426   6.340   1.861
60855SOL    HW284340   0.304   6.409   1.919
60856SOL     OW84341   9.631   2.858  10.844
60856SOL    HW184342   9.724   2.840  10.832
60856SOL    HW284343   9.605   2.903  10.764
60857SOL     OW84344   4.711  13.000   0.554
60857SOL    HW184345   4.629  13.049   0.545
60857SOL    HW284346   4.763  13.050   0.617
60858SOL     OW84347   2.021   8.941   8.577
60858SOL    HW184348   2.094   8.915   8.520
60858SOL    HW284349   2.054   9.017   8.625
60859SOL     OW84350   1.468  10.309  11.200
60859SOL    HW184351   1.461  10.235  11.260
60859SOL    HW284352   1.430  10.383  11.248
60860SOL     OW84353   0.880   5.910   8.844
60860SOL    HW184354   0.940   5.982   8.862
60860SOL    HW284355   0.869   5.867   8.929
60861SOL     OW84356  13.117   5.294  10.426
60861SOL    HW184357  13.134   5.265  10.337
60861SOL    HW284358  13.163   5.230  10.481
60862SOL     OW84359  14.631  12.058   4.034
60862SOL    HW184360  14.722  12.037   4.058
60862SOL    HW284361  14.578  11.994   4.081
60863SOL     OW84362  13.241   3.034   3.817
60863SOL    HW184363  13.165   2.980   3.838
60863SOL    HW284364  13.261   3.014   3.726
60864SOL     OW84365   2.612   4.558   9.320
60864SOL    HW184366   2.698   4.524   9.346
60864SOL    HW284367   2.551   4.491   9.349
60865SOL     OW84368   9.993   1.272  12.434
60865SOL    HW184369   9.947   1.329  12.373
60865SOL    HW284370  10.082   1.265  12.399
60866SOL     OW84371  14.800   9.533   1.500
60866SOL    HW184372  14.747   9.511   1.577
60866SOL    HW284373  14.833   9.448   1.469
60867SOL     OW84374  13.152   8.492   6.526
60867SOL    HW184375  13.240   8.455   6.520
60867SOL    HW284376  13.094   8.416   6.520
60868SOL     OW84377   2.213   2.217   9.932
60868SOL    HW184378   2.202   2.312   9.941
60868SOL    HW284379   2.194   2.199   9.840
60869SOL     OW84380   7.693   6.695  14.854
60869SOL    HW184381   7.717   6.618   0.027
60869SOL    HW284382   7.600   6.707  14.871
60870SOL     OW84383  10.973  14.521   1.128
60870SOL    HW184384  11.013  14.449   1.080
60870SOL    HW284385  11.046  14.575   1.156
60871SOL     OW84386  14.512  14.449   2.266
60871SOL    HW184387  14.496  14.524   2.209
60871SOL    HW284388  14.554  14.384   2.210
60872SOL     OW84389  13.174  11.819  10.546
60872SOL    HW184390  13.170  11.770  10.463
60872SOL    HW284391  13.247  11.879  10.535
60873SOL     OW84392  14.652   3.291   8.825
60873SOL    HW184393  14.653   3.263   8.917
60873SOL    HW284394  14.733   3.256   8.789
60874SOL     OW84395   9.729  14.503  10.689
60874SOL    HW184396   9.797  14.568  10.701
60874SOL    HW284397   9.694  14.488  10.777
60875SOL     OW84398  12.986   1.475  11.141
60875SOL    HW184399  13.076   1.448  11.123
60875SOL    HW284400  12.965   1.536  11.070
60876SOL     OW84401   1.508   2.638   9.295
60876SOL    HW184402   1.506   2.733   9.305
60876SOL    HW284403   1.459   2.621   9.214
60877SOL     OW84404   6.640  13.701  11.820
60877SOL    HW184405   6.715  13.757  11.802
60877SOL    HW284406   6.571  13.734  11.763
60878SOL     OW84407   3.040   0.973  11.424
60878SOL    HW184408   2.981   0.909  11.383
60878SOL    HW284409   3.004   0.987  11.511
60879SOL     OW84410   8.563   1.609   4.175
60879SOL    HW184411   8.578   1.539   4.111
60879SOL    HW284412   8.571   1.565   4.260
60880SOL     OW84413  10.219  14.131  10.047
60880SOL    HW184414  10.128  14.116  10.021
60880SOL    HW284415  10.266  14.142   9.964
60881SOL     OW84416   2.276  13.464   8.196
60881SOL    HW184417   2.368  13.477   8.173
60881SOL    HW284418   2.271  13.489   8.288
60882SOL     OW84419  11.627   2.810   9.924
60882SOL    HW184420  11.673   2.826   9.841
60882SOL    HW284421  11.606   2.717   9.921
60883SOL     OW84422   5.414   7.025  13.502
60883SOL    HW184423   5.358   6.985  13.435
60883SOL    HW284424   5.482   7.070  13.452
60884SOL     OW84425  12.696   5.455   3.987
60884SOL    HW184426  12.765   5.487   4.045
60884SOL    HW284427  12.619   5.447   4.043
60885SOL     OW84428   7.259   5.919  13.355
60885SOL    HW184429   7.260   5.858  13.429
60885SOL    HW284430   7.349   5.919  13.322
60886SOL     OW84431   3.592  10.320   3.346
60886SOL    HW184432   3.605  10.345   3.437
60886SOL    HW284433   3.618  10.398   3.296
60887SOL     OW84434   5.876  12.198   5.796
60887SOL    HW184435   5.789  12.237   5.792
60887SOL    HW284436   5.906  12.197   5.705
60888SOL     OW84437  12.275  11.384   9.829
60888SOL    HW184438  12.245  11.410   9.742
60888SOL    HW284439  12.197  11.347   9.871
60889SOL     OW84440   9.062   4.506  11.534
60889SOL    HW184441   9.078   4.526  11.627
60889SOL    HW284442   8.967   4.495  11.529
60890SOL     OW84443   5.770   5.238  10.255
60890SOL    HW184444   5.783   5.271  10.166
60890SOL    HW284445   5.787   5.144  10.249
60891SOL     OW84446  13.139   2.705  12.052
60891SOL    HW184447  13.044   2.705  12.067
60891SOL    HW284448  13.170   2.624  12.092
60892SOL     OW84449  14.309   7.185   2.053
60892SOL    HW184450  14.390   7.236   2.060
60892SOL    HW284451  14.334   7.098   2.083
60893SOL     OW84452   4.923   2.074  11.393
60893SOL    HW184453   4.889   2.021  11.465
60893SOL    HW284454   5.005   2.030  11.368
60894SOL     OW84455  12.043  14.824   9.729
60894SOL    HW184456  12.013   0.033   9.757
60894SOL    HW284457  12.063  14.778   9.811
60895SOL     OW84458   2.780   6.196  12.782
60895SOL    HW184459   2.848   6.210  12.849
60895SOL    HW284460   2.699   6.190  12.832
60896SOL     OW84461  10.527  14.337  11.067
60896SOL    HW184462  10.552  14.404  11.131
60896SOL    HW284463  10.432  14.343  11.063
60897SOL     OW84464   5.137   5.878   2.489
60897SOL    HW184465   5.169   5.839   2.571
60897SOL    HW284466   5.091   5.957   2.517
60898SOL     OW84467   7.068   2.841  13.451
60898SOL    HW184468   7.013   2.767  13.476
60898SOL    HW284469   7.157   2.806  13.448
60899SOL     OW84470  13.064  14.725   6.073
60899SOL    HW184471  13.065  14.712   6.168
60899SOL    HW284472  13.043  14.639   6.037
60900SOL     OW84473  13.160   1.452   8.631
60900SOL    HW184474  13.189   1.528   8.580
60900SOL    HW284475  13.187   1.471   8.720
60901SOL     OW84476  13.522  14.065  11.260
60901SOL    HW184477  13.431  14.087  11.280
60901SOL    HW284478  13.573  14.111  11.327
60902SOL     OW84479   0.144   1.158   5.434
60902SOL    HW184480   0.226   1.109   5.443
60902SOL    HW284481   0.118   1.179   5.524
60903SOL     OW84482   5.774  12.903   5.168
60903SOL    HW184483   5.818  12.935   5.090
60903SOL    HW284484   5.777  12.807   5.159
60904SOL     OW84485  11.866  11.544   6.769
60904SOL    HW184486  11.920  11.524   6.845
60904SOL    HW284487  11.871  11.466   6.714
60905SOL     OW84488  13.127  13.278   9.582
60905SOL    HW184489  13.078  13.196   9.587
60905SOL    HW284490  13.181  13.270   9.504
60906SOL     OW84491   1.012   5.461   8.280
60906SOL    HW184492   0.965   5.419   8.208
60906SOL    HW284493   0.967   5.544   8.293
60907SOL     OW84494   5.447   6.595  11.044
60907SOL    HW184495   5.436   6.534  10.971
60907SOL    HW284496   5.380   6.569  11.107
60908SOL     OW84497   2.592   2.976   3.748
60908SOL    HW184498   2.540   2.976   3.828
60908SOL    HW284499   2.580   2.887   3.712
60909SOL     OW84500   8.374   4.664   8.656
60909SOL    HW184501   8.319   4.592   8.626
60909SOL    HW284502   8.340   4.742   8.611
60910SOL     OW84503   4.324   5.178   6.919
60910SOL    HW184504   4.295   5.177   7.010
60910SOL    HW284505   4.351   5.269   6.905
60911SOL     OW84506   5.331   5.892   6.999
60911SOL    HW184507   5.263   5.881   6.933
60911SOL    HW284508   5.375   5.973   6.976
60912SOL     OW84509   2.695   7.006   0.179
60912SOL    HW184510   2.789   6.988   0.179
60912SOL    HW284511   2.678   7.043   0.266
60913SOL     OW84512   4.972   6.367  10.031
60913SOL    HW184513   5.025   6.442  10.003
60913SOL    HW284514   4.892   6.406  10.064
60914SOL     OW84515   2.898   1.072   8.834
60914SOL    HW184516   2.861   1.069   8.922
60914SOL    HW284517   2.859   1.151   8.794
60915SOL     OW84518   2.244   5.998  11.486
60915SOL    HW184519   2.192   6.073  11.458
60915SOL    HW284520   2.266   6.016  11.577
60916SOL     OW84521  11.877  14.807  12.884
60916SOL    HW184522  11.941  14.737  12.890
60916SOL    HW284523  11.800  14.774  12.931
60917SOL     OW84524   2.160   5.794  13.388
60917SOL    HW184525   2.082   5.739  13.382
60917SOL    HW284526   2.223   5.754  13.328
60918SOL     OW84527  14.796   1.152   0.897
60918SOL    HW184528  14.820   1.244   0.903
60918SOL    HW284529  14.871   1.110   0.856
60919SOL     OW84530  12.613   2.957   3.219
60919SOL    HW184531  12.653   2.898   3.282
60919SOL    HW284532  12.686   3.011   3.187
60920SOL     OW84533   1.924   0.158  13.842
60920SOL    HW184534   1.831   0.145  13.825
60920SOL    HW284535   1.933   0.144  13.937
60921SOL     OW84536   6.020   4.436   7.913
60921SOL    HW184537   6.064   4.379   7.849
60921SOL    HW284538   6.057   4.522   7.896
60922SOL     OW84539  10.581   8.423   3.640
60922SOL    HW184540  10.496   8.385   3.661
60922SOL    HW284541  10.583   8.426   3.544
60923SOL     OW84542  14.565   5.424   6.003
60923SOL    HW184543  14.492   5.466   5.958
60923SOL    HW284544  14.609   5.496   6.048
60924SOL     OW84545   6.979   9.495   0.502
60924SOL    HW184546   6.983   9.544   0.584
60924SOL    HW284547   7.032   9.547   0.441
60925SOL     OW84548   6.087   6.210  12.715
60925SOL    HW184549   6.159   6.154  12.686
60925SOL    HW284550   6.026   6.210  12.641
60926SOL     OW84551   1.172   5.184   8.304
60926SOL    HW184552   1.106   5.163   8.238
60926SOL    HW284553   1.125   5.237   8.368
60927SOL     OW84554  10.022   4.182   3.641
60927SOL    HW184555   9.933   4.157   3.666
60927SOL    HW284556  10.055   4.230   3.717
60928SOL     OW84557  13.742   8.966  13.598
60928SOL    HW184558  13.738   9.061  13.589
60928SOL    HW284559  13.835   8.945  13.595
60929SOL     OW84560   2.156   8.822   8.374
60929SOL    HW184561   2.137   8.759   8.305
60929SOL    HW284562   2.216   8.777   8.433
60930SOL     OW84563  13.902  13.997   7.881
60930SOL    HW184564  13.816  14.031   7.907
60930SOL    HW284565  13.928  14.052   7.807
60931SOL     OW84566   6.802  12.957   9.015
60931SOL    HW184567   6.831  12.965   8.924
60931SOL    HW284568   6.845  13.030   9.060
60932SOL     OW84569   7.490   3.613   2.206
60932SOL    HW184570   7.496   3.707   2.220
60932SOL    HW284571   7.404   3.588   2.241
60933SOL     OW84572  11.412  12.124   5.772
60933SOL    HW184573  11.432  12.060   5.841
60933SOL    HW284574  11.406  12.208   5.818
60934SOL     OW84575   7.674   8.578   4.485
60934SOL    HW184576   7.630   8.538   4.561
60934SOL    HW284577   7.606   8.582   4.418
60935SOL     OW84578   3.795   0.632   8.169
60935SOL    HW184579   3.821   0.593   8.252
60935SOL    HW284580   3.776   0.557   8.112
60936SOL     OW84581  12.054  10.367  11.935
60936SOL    HW184582  12.098  10.312  12.000
60936SOL    HW284583  12.078  10.456  11.959
60937SOL     OW84584   0.397  12.756  12.406
60937SOL    HW184585   0.308  12.722  12.411
60937SOL    HW284586   0.404  12.794  12.319
60938SOL     OW84587  13.735   0.390   3.535
60938SOL    HW184588  13.669   0.324   3.554
60938SOL    HW284589  13.816   0.354   3.569
60939SOL     OW84590   6.939   5.173  13.188
60939SOL    HW184591   6.902   5.181  13.276
60939SOL    HW284592   6.953   5.079  13.176
60940SOL     OW84593  11.428   4.264  14.474
60940SOL    HW184594  11.338   4.236  14.488
60940SOL    HW284595  11.422   4.335  14.410
60941SOL     OW84596   7.735   0.622   1.016
60941SOL    HW184597   7.735   0.614   0.921
60941SOL    HW284598   7.659   0.572   1.045
60942SOL     OW84599   4.640   0.925   4.116
60942SOL    HW184600   4.609   0.874   4.041
60942SOL    HW284601   4.577   0.997   4.123
60943SOL     OW84602   3.619   7.665   5.397
60943SOL    HW184603   3.619   7.740   5.456
60943SOL    HW284604   3.712   7.649   5.379
60944SOL     OW84605   8.114   9.394  14.628
60944SOL    HW184606   8.182   9.421  14.689
60944SOL    HW284607   8.032   9.420  14.671
60945SOL     OW84608   4.495   2.195   6.730
60945SOL    HW184609   4.555   2.241   6.790
60945SOL    HW284610   4.513   2.233   6.644
60946SOL     OW84611   8.909   2.934   9.662
60946SOL    HW184612   8.869   2.903   9.581
60946SOL    HW284613   8.942   3.021   9.641
60947SOL     OW84614   3.903   4.375   9.325
60947SOL    HW184615   3.924   4.381   9.418
60947SOL    HW284616   3.931   4.287   9.300
60948SOL     OW84617   1.362   3.994  10.874
60948SOL    HW184618   1.401   4.020  10.791
60948SOL    HW284619   1.275   4.033  10.873
60949SOL     OW84620   5.952  14.718   5.856
60949SOL    HW184621   5.897  14.794   5.877
60949SOL    HW284622   5.983  14.686   5.940
60950SOL     OW84623  13.573   1.757   7.533
60950SOL    HW184624  13.601   1.774   7.443
60950SOL    HW284625  13.535   1.840   7.563
60951SOL     OW84626   4.623   2.360  12.259
60951SOL    HW184627   4.529   2.361  12.273
60951SOL    HW284628   4.650   2.452  12.266
60952SOL     OW84629   9.679   7.758  11.195
60952SOL    HW184630   9.647   7.820  11.130
60952SOL    HW284631   9.636   7.784  11.276
60953SOL     OW84632  10.478   2.302   7.509
60953SOL    HW184633  10.426   2.352   7.446
60953SOL    HW284634  10.418   2.282   7.581
60954SOL     OW84635  10.140  12.990  14.550
60954SOL    HW184636  10.181  12.953  14.472
60954SOL    HW284637  10.148  13.084  14.539
60955SOL     OW84638  11.254   3.729   6.852
60955SOL    HW184639  11.222   3.768   6.770
60955SOL    HW284640  11.259   3.803   6.913
60956SOL     OW84641   0.378   8.890  14.575
60956SOL    HW184642   0.356   8.896  14.668
60956SOL    HW284643   0.452   8.830  14.572
60957SOL     OW84644   0.512   5.382  11.963
60957SOL    HW184645   0.582   5.428  11.917
60957SOL    HW284646   0.546   5.369  12.052
60958SOL     OW84647   5.297   5.265  12.184
60958SOL    HW184648   5.376   5.212  12.187
60958SOL    HW284649   5.227   5.202  12.166
60959SOL     OW84650   4.612   2.080  11.566
60959SOL    HW184651   4.583   2.047  11.651
60959SOL    HW284652   4.643   2.003  11.519
60960SOL     OW84653   0.209  10.316  14.527
60960SOL    HW184654   0.258  10.360  14.458
60960SOL    HW284655   0.217  10.375  14.603
60961SOL     OW84656   3.665   0.407   9.927
60961SOL    HW184657   3.612   0.477   9.890
60961SOL    HW284658   3.739   0.399   9.867
60962SOL     OW84659   6.053  14.630   6.385
60962SOL    HW184660   6.085  14.643   6.474
60962SOL    HW284661   5.968  14.587   6.396
60963SOL     OW84662   3.813   2.248  12.202
60963SOL    HW184663   3.733   2.195  12.207
60963SOL    HW284664   3.827   2.261  12.108
60964SOL     OW84665  14.157  12.850   0.559
60964SOL    HW184666  14.158  12.833   0.465
60964SOL    HW284667  14.084  12.797   0.593
60965SOL     OW84668   4.071   6.737   6.707
60965SOL    HW184669   4.132   6.697   6.645
60965SOL    HW284670   4.127   6.771   6.777
60966SOL     OW84671   5.459   8.066  14.157
60966SOL    HW184672   5.543   8.051  14.115
60966SOL    HW284673   5.425   8.145  14.115
60967SOL     OW84674  12.930   1.116  14.137
60967SOL    HW184675  12.872   1.083  14.067
60967SOL    HW284676  12.937   1.209  14.120
60968SOL     OW84677   7.824  11.830  12.637
60968SOL    HW184678   7.885  11.779  12.585
60968SOL    HW284679   7.834  11.920  12.605
60969SOL     OW84680   8.976   1.926   4.441
60969SOL    HW184681   8.920   2.000   4.461
60969SOL    HW284682   9.055   1.941   4.492
60970SOL     OW84683   6.915   2.388   3.544
60970SOL    HW184684   6.884   2.431   3.464
60970SOL    HW284685   6.853   2.317   3.558
60971SOL     OW84686   3.492   5.519  11.896
60971SOL    HW184687   3.567   5.462  11.914
60971SOL    HW284688   3.507   5.551  11.807
60972SOL     OW84689   8.617   6.225  10.324
60972SOL    HW184690   8.658   6.307  10.295
60972SOL    HW284691   8.643   6.161  10.257
60973SOL     OW84692  14.653  12.166   7.379
60973SOL    HW184693  14.683  12.078   7.401
60973SOL    HW284694  14.723  12.201   7.324
60974SOL     OW84695   9.183   5.750   4.980
60974SOL    HW184696   9.174   5.845   4.972
60974SOL    HW284697   9.129   5.726   5.055
60975SOL     OW84698   2.757   5.204  10.188
60975SOL    HW184699   2.666   5.232  10.183
60975SOL    HW284700   2.761   5.126  10.132
60976SOL     OW84701   7.831   4.487   5.897
60976SOL    HW184702   7.803   4.512   5.985
60976SOL    HW284703   7.781   4.545   5.839
60977SOL     OW84704  13.813   2.605   5.650
60977SOL    HW184705  13.837   2.532   5.708
60977SOL    HW284706  13.780   2.563   5.571
60978SOL     OW84707   5.991   5.082  12.318
60978SOL    HW184708   6.072   5.098  12.366
60978SOL    HW284709   6.003   5.130  12.235
60979SOL     OW84710  10.209   9.322   9.643
60979SOL    HW184711  10.201   9.365   9.558
60979SOL    HW284712  10.137   9.260   9.645
60980SOL     OW84713   0.950   1.572  11.153
60980SOL    HW184714   1.022   1.528  11.108
60980SOL    HW284715   0.943   1.656  11.108
60981SOL     OW84716   7.659   0.524  13.902
60981SOL    HW184717   7.622   0.489  13.983
60981SOL    HW284718   7.748   0.489  13.899
60982SOL     OW84719   0.708  14.256   5.961
60982SOL    HW184720   0.653  14.334   5.969
60982SOL    HW284721   0.647  14.183   5.974
60983SOL     OW84722   7.723   8.352  12.919
60983SOL    HW184723   7.787   8.415  12.951
60983SOL    HW284724   7.740   8.273  12.970
60984SOL     OW84725  11.155  11.889   0.055
60984SOL    HW184726  11.214  11.910   0.128
60984SOL    HW284727  11.100  11.966   0.046
60985SOL     OW84728  12.084   4.304   0.510
60985SOL    HW184729  12.152   4.247   0.548
60985SOL    HW284730  12.125   4.390   0.507
60986SOL     OW84731   6.063  11.525   8.999
60986SOL    HW184732   5.992  11.580   8.965
60986SOL    HW284733   6.096  11.478   8.922
60987SOL     OW84734  12.400   8.929  12.222
60987SOL    HW184735  12.392   8.874  12.301
60987SOL    HW284736  12.336   8.892  12.161
60988SOL     OW84737   8.410  13.861  14.432
60988SOL    HW184738   8.466  13.858  14.354
60988SOL    HW284739   8.468  13.891  14.502
60989SOL     OW84740   5.439   5.195   6.431
60989SOL    HW184741   5.457   5.140   6.355
60989SOL    HW284742   5.395   5.272   6.395
60990SOL     OW84743   3.567   1.768   9.631
60990SOL    HW184744   3.585   1.837   9.567
60990SOL    HW284745   3.495   1.718   9.593
60991SOL     OW84746   8.185  10.820  12.176
60991SOL    HW184747   8.123  10.880  12.219
60991SOL    HW284748   8.139  10.735  12.177
60992SOL     OW84749   7.065   3.594  14.289
60992SOL    HW184750   7.131   3.664  14.288
60992SOL    HW284751   6.985   3.637  14.317
60993SOL     OW84752   9.249  13.017   8.186
60993SOL    HW184753   9.194  13.094   8.166
60993SOL    HW284754   9.236  12.958   8.112
60994SOL     OW84755   8.179   1.454   7.084
60994SOL    HW184756   8.127   1.509   7.026
60994SOL    HW284757   8.211   1.382   7.029
60995SOL     OW84758   3.780  13.496  11.916
60995SOL    HW184759   3.719  13.554  11.870
60995SOL    HW284760   3.834  13.555  11.968
60996SOL     OW84761  13.510   6.063   8.985
60996SOL    HW184762  13.553   5.992   9.033
60996SOL    HW284763  13.582   6.113   8.946
60997SOL     OW84764   5.779  12.704   9.574
60997SOL    HW184765   5.732  12.625   9.601
60997SOL    HW284766   5.734  12.776   9.619
60998SOL     OW84767   4.484   1.885   8.740
60998SOL    HW184768   4.427   1.876   8.816
60998SOL    HW284769   4.559   1.829   8.760
60999SOL     OW84770  10.845   3.512   9.143
60999SOL    HW184771  10.762   3.485   9.103
60999SOL    HW284772  10.894   3.551   9.071
61000SOL     OW84773   3.644  13.333  10.010
61000SOL    HW184774   3.578  13.268   9.984
61000SOL    HW284775   3.625  13.352  10.101
61001SOL     OW84776   0.895   4.118  11.372
61001SOL    HW184777   0.955   4.187  11.344
61001SOL    HW284778   0.897   4.122  11.468
61002SOL     OW84779   3.518  12.675   0.011
61002SOL    HW184780   3.532  12.663  14.795
61002SOL    HW284781   3.437  12.628   0.028
61003SOL     OW84782   3.220   8.386   2.162
61003SOL    HW184783   3.310   8.354   2.163
61003SOL    HW284784   3.204   8.419   2.250
61004SOL     OW84785   0.749   9.412   7.317
61004SOL    HW184786   0.806   9.489   7.322
61004SOL    HW284787   0.660   9.447   7.327
61005SOL     OW84788   1.010   6.945  13.693
61005SOL    HW184789   0.970   6.864  13.664
61005SOL    HW284790   0.950   7.014  13.664
61006SOL     OW84791  13.571   4.701   6.623
61006SOL    HW184792  13.509   4.767   6.655
61006SOL    HW284793  13.644   4.704   6.685
61007SOL     OW84794   3.878  12.013   9.355
61007SOL    HW184795   3.897  11.923   9.380
61007SOL    HW284796   3.890  12.015   9.260
61008SOL     OW84797  10.573   8.061   6.229
61008SOL    HW184798  10.594   8.055   6.323
61008SOL    HW284799  10.618   8.140   6.200
61009SOL     OW84800   4.910  14.276   6.364
61009SOL    HW184801   4.858  14.225   6.427
61009SOL    HW284802   4.874  14.364   6.369
61010SOL     OW84803   6.889   0.742   3.689
61010SOL    HW184804   6.826   0.805   3.654
61010SOL    HW284805   6.954   0.731   3.620
61011SOL     OW84806  14.095   0.842  11.163
61011SOL    HW184807  14.069   0.817  11.252
61011SOL    HW284808  14.012   0.845  11.114
61012SOL     OW84809   4.912   8.531   3.310
61012SOL    HW184810   4.877   8.442   3.312
61012SOL    HW284811   4.967   8.537   3.388
61013SOL     OW84812   7.414   7.691   6.881
61013SOL    HW184813   7.379   7.762   6.935
61013SOL    HW284814   7.341   7.629   6.873
61014SOL     OW84815   3.537  12.815  13.132
61014SOL    HW184816   3.571  12.892  13.087
61014SOL    HW284817   3.527  12.750  13.062
61015SOL     OW84818   6.672  10.871  12.698
61015SOL    HW184819   6.581  10.852  12.673
61015SOL    HW284820   6.696  10.946  12.643
61016SOL     OW84821  12.478   2.138  12.072
61016SOL    HW184822  12.394   2.142  12.117
61016SOL    HW284823  12.506   2.047  12.081
61017SOL     OW84824   2.396   1.982   6.937
61017SOL    HW184825   2.463   1.938   6.883
61017SOL    HW284826   2.392   2.071   6.902
61018SOL     OW84827   4.901   3.155  13.807
61018SOL    HW184828   4.914   3.141  13.714
61018SOL    HW284829   4.842   3.231  13.812
61019SOL     OW84830   8.326   7.116  11.825
61019SOL    HW184831   8.274   7.196  11.836
61019SOL    HW284832   8.303   7.084  11.738
61020SOL     OW84833   6.641   4.300   4.424
61020SOL    HW184834   6.712   4.335   4.370
61020SOL    HW284835   6.611   4.375   4.475
61021SOL     OW84836   9.955   4.088   2.400
61021SOL    HW184837   9.973   4.081   2.307
61021SOL    HW284838   9.890   4.019   2.417
61022SOL     OW84839  10.627   4.933   0.552
61022SOL    HW184840  10.676   4.991   0.611
61022SOL    HW284841  10.546   4.914   0.599
61023SOL     OW84842   6.374  10.292  13.125
61023SOL    HW184843   6.423  10.262  13.049
61023SOL    HW284844   6.289  10.250  13.117
61024SOL     OW84845   2.132   0.963   9.168
61024SOL    HW184846   2.067   1.023   9.131
61024SOL    HW284847   2.081   0.904   9.223
61025SOL     OW84848   4.764   3.584  12.379
61025SOL    HW184849   4.739   3.675  12.392
61025SOL    HW284850   4.728   3.538  12.455
61026SOL     OW84851  14.011  14.815  10.525
61026SOL    HW184852  13.928  14.777  10.553
61026SOL    HW284853  14.024   0.013  10.581
61027SOL     OW84854   6.496   7.560  14.391
61027SOL    HW184855   6.583   7.569  14.429
61027SOL    HW284856   6.441   7.529  14.463
61028SOL     OW84857  14.302   8.184  11.979
61028SOL    HW184858  14.281   8.127  11.905
61028SOL    HW284859  14.353   8.255  11.940
61029SOL     OW84860   5.047  12.910  13.132
61029SOL    HW184861   4.963  12.903  13.085
61029SOL    HW284862   5.035  12.983  13.192
61030SOL     OW84863  12.840   4.935  14.235
61030SOL    HW184864  12.824   4.906  14.326
61030SOL    HW284865  12.907   5.003  14.243
61031SOL     OW84866  11.590  11.341   6.808
61031SOL    HW184867  11.511  11.360   6.758
61031SOL    HW284868  11.589  11.406   6.879
61032SOL     OW84869  13.203  12.728   2.083
61032SOL    HW184870  13.255  12.742   2.004
61032SOL    HW284871  13.211  12.811   2.132
61033SOL     OW84872   4.094  10.914   3.194
61033SOL    HW184873   4.120  10.830   3.155
61033SOL    HW284874   4.030  10.891   3.260
61034SOL     OW84875   6.775   7.773  12.307
61034SOL    HW184876   6.795   7.681  12.292
61034SOL    HW284877   6.860   7.816  12.316
61035SOL     OW84878  14.209   5.857   1.857
61035SOL    HW184879  14.218   5.905   1.939
61035SOL    HW284880  14.143   5.790   1.876
61036SOL     OW84881  12.343   6.835   7.458
61036SOL    HW184882  12.261   6.808   7.418
61036SOL    HW284883  12.411   6.802   7.399
61037SOL     OW84884   1.116   8.129   4.827
61037SOL    HW184885   1.062   8.187   4.772
61037SOL    HW284886   1.094   8.154   4.916
61038SOL     OW84887   1.681  11.150   4.639
61038SOL    HW184888   1.749  11.146   4.572
61038SOL    HW284889   1.723  11.190   4.714
61039SOL     OW84890   3.835   3.379   1.974
61039SOL    HW184891   3.788   3.355   1.894
61039SOL    HW284892   3.918   3.414   1.944
61040SOL     OW84893  12.161   0.707   2.781
61040SOL    HW184894  12.246   0.749   2.768
61040SOL    HW284895  12.109   0.773   2.827
61041SOL     OW84896   6.463   8.213  12.296
61041SOL    HW184897   6.491   8.123  12.312
61041SOL    HW284898   6.540   8.255  12.258
61042SOL     OW84899   2.125   1.487   1.481
61042SOL    HW184900   2.202   1.449   1.437
61042SOL    HW284901   2.134   1.459   1.572
61043SOL     OW84902  12.074   0.444   5.703
61043SOL    HW184903  12.165   0.473   5.690
61043SOL    HW284904  12.024   0.526   5.706
61044SOL     OW84905   4.707   4.588   0.498
61044SOL    HW184906   4.620   4.570   0.462
61044SOL    HW284907   4.717   4.683   0.490
61045SOL     OW84908   5.143   5.886   5.251
61045SOL    HW184909   5.049   5.899   5.263
61045SOL    HW284910   5.180   5.904   5.337
61046SOL     OW84911   3.680  12.761  10.918
61046SOL    HW184912   3.758  12.741  10.866
61046SOL    HW284913   3.687  12.704  10.994
61047SOL     OW84914   4.597  12.636   7.782
61047SOL    HW184915   4.665  12.609   7.721
61047SOL    HW284916   4.516  12.597   7.746
61048SOL     OW84917  10.659   8.239   2.765
61048SOL    HW184918  10.661   8.206   2.855
61048SOL    HW284919  10.577   8.206   2.729
61049SOL     OW84920   3.387  10.350   9.924
61049SOL    HW184921   3.377  10.411   9.851
61049SOL    HW284922   3.301  10.348   9.965
61050SOL     OW84923  13.786  10.119  14.291
61050SOL    HW184924  13.830  10.114  14.206
61050SOL    HW284925  13.740  10.036  14.299
61051SOL     OW84926   7.627   8.009  13.689
61051SOL    HW184927   7.636   7.964  13.773
61051SOL    HW284928   7.668   8.094  13.703
61052SOL     OW84929  11.532   2.222   0.047
61052SOL    HW184930  11.470   2.278   0.093
61052SOL    HW284931  11.618   2.253   0.076
61053SOL     OW84932   1.309   5.620  11.998
61053SOL    HW184933   1.258   5.695  12.029
61053SOL    HW284934   1.344   5.649  11.913
61054SOL     OW84935   1.030   1.959   3.113
61054SOL    HW184936   1.019   1.992   3.024
61054SOL    HW284937   1.092   1.886   3.104
61055SOL     OW84938   6.758  12.609   8.469
61055SOL    HW184939   6.827  12.659   8.513
61055SOL    HW284940   6.700  12.676   8.433
61056SOL     OW84941   6.112   3.580   4.037
61056SOL    HW184942   6.136   3.652   4.095
61056SOL    HW284943   6.097   3.623   3.952
61057SOL     OW84944   4.797   6.995   3.637
61057SOL    HW184945   4.778   7.004   3.544
61057SOL    HW284946   4.711   6.998   3.680
61058SOL     OW84947   9.052   9.452  12.047
61058SOL    HW184948   9.009   9.525  12.092
61058SOL    HW284949   9.015   9.454  11.958
61059SOL     OW84950   8.616   1.482   0.770
61059SOL    HW184951   8.655   1.396   0.754
61059SOL    HW284952   8.642   1.502   0.860
61060SOL     OW84953   8.687   9.527  10.918
61060SOL    HW184954   8.752   9.498  10.854
61060SOL    HW284955   8.614   9.466  10.906
61061SOL     OW84956  11.621   9.556   0.104
61061SOL    HW184957  11.716   9.569   0.115
61061SOL    HW284958  11.603   9.471   0.143
61062SOL     OW84959   9.437   7.676   1.266
61062SOL    HW184960   9.380   7.695   1.341
61062SOL    HW284961   9.496   7.752   1.261
61063SOL     OW84962   3.823   7.144  12.803
61063SOL    HW184963   3.862   7.151  12.890
61063SOL    HW284964   3.741   7.097  12.817
61064SOL     OW84965   2.369   3.473   6.116
61064SOL    HW184966   2.433   3.539   6.089
61064SOL    HW284967   2.372   3.407   6.046
61065SOL     OW84968   1.421   8.428   5.592
61065SOL    HW184969   1.328   8.431   5.614
61065SOL    HW284970   1.438   8.511   5.547
61066SOL     OW84971  11.461   0.436   0.563
61066SOL    HW184972  11.416   0.377   0.502
61066SOL    HW284973  11.454   0.394   0.648
61067SOL     OW84974  13.480   8.753   7.698
61067SOL    HW184975  13.454   8.683   7.758
61067SOL    HW284976  13.575   8.760   7.710
61068SOL     OW84977   4.716  11.336   7.570
61068SOL    HW184978   4.719  11.430   7.587
61068SOL    HW284979   4.652  11.302   7.633
61069SOL     OW84980  14.592  11.529  13.626
61069SOL    HW184981  14.540  11.491  13.697
61069SOL    HW284982  14.675  11.480  13.629
61070SOL     OW84983   5.668  11.215  12.105
61070SOL    HW184984   5.729  11.229  12.177
61070SOL    HW284985   5.612  11.143  12.134
61071SOL     OW84986   8.652  12.460   7.974
61071SOL    HW184987   8.602  12.398   7.922
61071SOL    HW284988   8.707  12.406   8.031
61072SOL     OW84989  12.762   7.305   6.021
61072SOL    HW184990  12.817   7.378   5.995
61072SOL    HW284991  12.824   7.235   6.042
61073SOL     OW84992  11.515   9.485   2.449
61073SOL    HW184993  11.467   9.507   2.370
61073SOL    HW284994  11.569   9.410   2.425
61074SOL     OW84995   1.376  10.598  14.677
61074SOL    HW184996   1.362  10.564  14.589
61074SOL    HW284997   1.405  10.523  14.728
61075SOL     OW84998   1.943   7.065  11.796
61075SOL    HW184999   2.016   7.064  11.858
61075SOL    HW285000   1.933   6.973  11.769
61076SOL     OW85001   7.182  14.232   9.484
61076SOL    HW185002   7.235  14.154   9.500
61076SOL    HW285003   7.176  14.276   9.569
61077SOL     OW85004   5.859  12.772   6.782
61077SOL    HW185005   5.838  12.776   6.688
61077SOL    HW285006   5.815  12.693   6.813
61078SOL     OW85007  12.647  13.655   5.283
61078SOL    HW185008  12.718  13.633   5.222
61078SOL    HW285009  12.567  13.641   5.233
61079SOL     OW85010   0.022   4.721   8.869
61079SOL    HW185011   0.093   4.658   8.869
61079SOL    HW285012   0.003   4.735   8.776
61080SOL     OW85013   7.478   1.572  10.965
61080SOL    HW185014   7.457   1.486  11.001
61080SOL    HW285015   7.513   1.553  10.878
61081SOL     OW85016   3.951  12.388  10.051
61081SOL    HW185017   3.974  12.303  10.014
61081SOL    HW285018   3.872  12.413  10.005
61082SOL     OW85019  10.023   9.016   6.432
61082SOL    HW185020  10.067   8.958   6.369
61082SOL    HW285021  10.093   9.072   6.465
61083SOL     OW85022   9.601   8.154  11.667
61083SOL    HW185023   9.564   8.068  11.647
61083SOL    HW285024   9.628   8.189  11.582
61084SOL     OW85025   4.292   7.887  14.423
61084SOL    HW185026   4.381   7.884  14.458
61084SOL    HW285027   4.304   7.886  14.328
61085SOL     OW85028   2.975   3.056  10.974
61085SOL    HW185029   2.983   3.128  11.036
61085SOL    HW285030   2.916   2.994  11.016
61086SOL     OW85031   7.567   6.230   2.149
61086SOL    HW185032   7.569   6.301   2.214
61086SOL    HW285033   7.505   6.260   2.083
61087SOL     OW85034   1.980   4.805   4.406
61087SOL    HW185035   2.060   4.767   4.371
61087SOL    HW285036   2.007   4.845   4.489
61088SOL     OW85037   3.529  11.450   2.024
61088SOL    HW185038   3.557  11.442   1.933
61088SOL    HW285039   3.569  11.532   2.055
61089SOL     OW85040   9.437   7.616   3.505
61089SOL    HW185041   9.430   7.552   3.576
61089SOL    HW285042   9.399   7.696   3.540
61090SOL     OW85043   0.409   2.024   4.008
61090SOL    HW185044   0.323   2.030   3.966
61090SOL    HW285045   0.471   2.044   3.938
61091SOL     OW85046   2.885  11.241   3.727
61091SOL    HW185047   2.937  11.170   3.766
61091SOL    HW285048   2.937  11.269   3.652
61092SOL     OW85049   2.249   1.026   0.123
61092SOL    HW185050   2.246   0.933   0.101
61092SOL    HW285051   2.342   1.048   0.125
61093SOL     OW85052   2.820  12.713  14.314
61093SOL    HW185053   2.879  12.743  14.383
61093SOL    HW285054   2.832  12.776  14.243
61094SOL     OW85055   4.922   2.155   2.892
61094SOL    HW185056   4.851   2.137   2.830
61094SOL    HW285057   4.996   2.180   2.837
61095SOL     OW85058   4.803   8.558  12.408
61095SOL    HW185059   4.747   8.481  12.395
61095SOL    HW285060   4.879   8.541  12.352
61096SOL     OW85061   1.734   0.345  10.000
61096SOL    HW185062   1.663   0.283  10.013
61096SOL    HW285063   1.811   0.303  10.038
61097SOL     OW85064   7.185   5.679  11.146
61097SOL    HW185065   7.229   5.600  11.177
61097SOL    HW285066   7.097   5.650  11.121
61098SOL     OW85067   0.068   8.755   9.595
61098SOL    HW185068  14.866   8.804   9.613
61098SOL    HW285069   0.038   8.664   9.586
61099SOL     OW85070   4.288   1.825   6.322
61099SOL    HW185071   4.212   1.832   6.380
61099SOL    HW285072   4.259   1.767   6.252
61100SOL     OW85073  10.868  14.200   4.852
61100SOL    HW185074  10.875  14.236   4.941
61100SOL    HW285075  10.929  14.252   4.800
61101SOL     OW85076   7.259  11.332  14.355
61101SOL    HW185077   7.232  11.376  14.436
61101SOL    HW285078   7.194  11.263  14.342
61102SOL     OW85079   9.696   7.493   9.105
61102SOL    HW185080   9.733   7.517   9.189
61102SOL    HW285081   9.771   7.488   9.046
61103SOL     OW85082   6.798   8.946   4.889
61103SOL    HW185083   6.804   8.992   4.973
61103SOL    HW285084   6.704   8.945   4.870
61104SOL     OW85085   6.315  11.141   6.969
61104SOL    HW185086   6.228  11.166   7.001
61104SOL    HW285087   6.316  11.046   6.973
61105SOL     OW85088   6.952   3.109   1.333
61105SOL    HW185089   6.998   3.191   1.351
61105SOL    HW285090   6.927   3.076   1.419
61106SOL     OW85091   8.367   6.996   9.631
61106SOL    HW185092   8.369   6.901   9.619
61106SOL    HW285093   8.324   7.009   9.715
61107SOL     OW85094  10.414   0.682   0.237
61107SOL    HW185095  10.499   0.717   0.265
61107SOL    HW285096  10.364   0.760   0.213
61108SOL     OW85097   2.154  13.485   6.972
61108SOL    HW185098   2.160  13.546   7.045
61108SOL    HW285099   2.071  13.506   6.929
61109SOL     OW85100   2.657  12.425  11.353
61109SOL    HW185101   2.586  12.488  11.362
61109SOL    HW285102   2.699  12.423  11.439
61110SOL     OW85103  13.717   5.983   8.269
61110SOL    HW185104  13.644   5.923   8.251
61110SOL    HW285105  13.748   5.959   8.356
61111SOL     OW85106   9.114   1.880   3.741
61111SOL    HW185107   9.028   1.859   3.704
61111SOL    HW285108   9.175   1.825   3.692
61112SOL     OW85109   6.754   2.441   5.952
61112SOL    HW185110   6.726   2.523   5.994
61112SOL    HW285111   6.809   2.470   5.879
61113SOL     OW85112   3.124   5.887  13.774
61113SOL    HW185113   3.199   5.941  13.749
61113SOL    HW285114   3.122   5.893  13.870
61114SOL     OW85115   4.958   9.979  10.975
61114SOL    HW185116   5.044  10.021  10.973
61114SOL    HW285117   4.915  10.010  10.895
61115SOL     OW85118   2.868   6.210  11.014
61115SOL    HW185119   2.841   6.208  11.105
61115SOL    HW285120   2.864   6.119  10.985
61116SOL     OW85121   9.278   3.334  13.640
61116SOL    HW185122   9.308   3.424  13.649
61116SOL    HW285123   9.231   3.332  13.557
61117SOL     OW85124   7.378   4.141   9.163
61117SOL    HW185125   7.385   4.225   9.207
61117SOL    HW285126   7.328   4.159   9.083
61118SOL     OW85127   5.801  14.649  11.765
61118SOL    HW185128   5.789  14.556  11.786
61118SOL    HW285129   5.745  14.695  11.828
61119SOL     OW85130   5.828  10.540   7.793
61119SOL    HW185131   5.771  10.581   7.728
61119SOL    HW285132   5.917  10.561   7.764
61120SOL     OW85133  12.395   2.749   8.638
61120SOL    HW185134  12.470   2.796   8.603
61120SOL    HW285135  12.375   2.682   8.572
61121SOL     OW85136   6.055   0.879  14.871
61121SOL    HW185137   5.992   0.932  14.824
61121SOL    HW285138   6.019   0.790  14.869
61122SOL     OW85139   6.029   0.494  14.606
61122SOL    HW185140   5.998   0.583  14.586
61122SOL    HW285141   6.115   0.507  14.646
61123SOL     OW85142   7.753   1.518  14.354
61123SOL    HW185143   7.669   1.561  14.372
61123SOL    HW285144   7.783   1.559  14.272
61124SOL     OW85145  12.397  13.847   9.294
61124SOL    HW185146  12.328  13.912   9.308
61124SOL    HW285147  12.470  13.877   9.348
61125SOL     OW85148  13.517   6.353  14.505
61125SOL    HW185149  13.475   6.396  14.579
61125SOL    HW285150  13.611   6.371  14.517
61126SOL     OW85151  12.008   9.129   9.159
61126SOL    HW185152  12.055   9.184   9.095
61126SOL    HW285153  11.928   9.104   9.113
61127SOL     OW85154   4.138   3.732   4.942
61127SOL    HW185155   4.058   3.751   4.893
61127SOL    HW285156   4.124   3.773   5.027
61128SOL     OW85157  13.235   4.119  13.603
61128SOL    HW185158  13.239   4.032  13.565
61128SOL    HW285159  13.217   4.177  13.529
61129SOL     OW85160   6.659   6.700   1.610
61129SOL    HW185161   6.754   6.698   1.607
61129SOL    HW285162   6.637   6.792   1.626
61130SOL     OW85163   5.040   4.038   1.297
61130SOL    HW185164   5.005   4.101   1.360
61130SOL    HW285165   5.054   3.958   1.348
61131SOL     OW85166   3.046  12.679   9.001
61131SOL    HW185167   3.127  12.681   9.052
61131SOL    HW285168   3.061  12.609   8.937
61132SOL     OW85169  13.750   5.781   2.501
61132SOL    HW185170  13.777   5.691   2.482
61132SOL    HW285171  13.703   5.774   2.585
61133SOL     OW85172   2.695   6.112   7.619
61133SOL    HW185173   2.632   6.185   7.620
61133SOL    HW285174   2.650   6.042   7.666
61134SOL     OW85175  11.355   6.857  10.378
61134SOL    HW185176  11.340   6.775  10.329
61134SOL    HW285177  11.275   6.869  10.430
61135SOL     OW85178   7.022   4.243   0.591
61135SOL    HW185179   7.074   4.275   0.517
61135SOL    HW285180   6.978   4.164   0.558
61136SOL     OW85181   1.122   8.673  12.659
61136SOL    HW185182   1.118   8.693  12.566
61136SOL    HW285183   1.038   8.633  12.680
61137SOL     OW85184   5.133   8.319   2.630
61137SOL    HW185185   5.175   8.237   2.657
61137SOL    HW285186   5.043   8.295   2.609
61138SOL     OW85187  13.694  10.457  13.808
61138SOL    HW185188  13.736  10.523  13.863
61138SOL    HW285189  13.708  10.488  13.718
61139SOL     OW85190  10.619   9.028   8.309
61139SOL    HW185191  10.691   9.048   8.250
61139SOL    HW285192  10.560   8.973   8.258
61140SOL     OW85193  13.338   4.479  11.980
61140SOL    HW185194  13.296   4.562  12.004
61140SOL    HW285195  13.266   4.418  11.966
61141SOL     OW85196  14.302   6.093  12.080
61141SOL    HW185197  14.230   6.151  12.057
61141SOL    HW285198  14.339   6.066  11.996
61142SOL     OW85199  14.800  14.439   0.891
61142SOL    HW185200  14.753  14.371   0.940
61142SOL    HW285201   0.002  14.396   0.861
61143SOL     OW85202   7.623  11.889   8.409
61143SOL    HW185203   7.656  11.828   8.343
61143SOL    HW285204   7.648  11.850   8.492
61144SOL     OW85205  12.969   9.817   6.987
61144SOL    HW185206  13.046   9.806   7.044
61144SOL    HW285207  12.898   9.775   7.035
61145SOL     OW85208   7.796   5.088   2.363
61145SOL    HW185209   7.771   4.996   2.374
61145SOL    HW285210   7.814   5.119   2.452
61146SOL     OW85211   4.614  12.275   7.158
61146SOL    HW185212   4.599  12.308   7.070
61146SOL    HW285213   4.593  12.349   7.215
61147SOL     OW85214   6.276  13.558   2.939
61147SOL    HW185215   6.326  13.622   2.990
61147SOL    HW285216   6.266  13.598   2.853
61148SOL     OW85217  13.354   8.911   2.317
61148SOL    HW185218  13.435   8.890   2.364
61148SOL    HW285219  13.298   8.951   2.382
61149SOL     OW85220   1.549  12.997   2.745
61149SOL    HW185221   1.633  13.041   2.750
61149SOL    HW285222   1.549  12.953   2.660
61150SOL     OW85223  11.449   6.985  13.397
61150SOL    HW185224  11.382   6.943  13.452
61150SOL    HW285225  11.449   7.076  13.426
61151SOL     OW85226  13.348  10.611   0.318
61151SOL    HW185227  13.265  10.658   0.328
61151SOL    HW285228  13.354  10.558   0.398
61152SOL     OW85229  10.595   6.417   9.085
61152SOL    HW185230  10.572   6.507   9.107
61152SOL    HW285231  10.511   6.372   9.078
61153SOL     OW85232   3.243   1.330   0.494
61153SOL    HW185233   3.277   1.277   0.422
61153SOL    HW285234   3.222   1.266   0.563
61154SOL     OW85235   5.696   3.132  13.497
61154SOL    HW185236   5.689   3.139  13.592
61154SOL    HW285237   5.789   3.118  13.481
61155SOL     OW85238  13.798   8.095  11.347
61155SOL    HW185239  13.756   8.089  11.433
61155SOL    HW285240  13.725   8.097  11.285
61156SOL     OW85241   3.816   5.730   8.321
61156SOL    HW185242   3.744   5.781   8.356
61156SOL    HW285243   3.797   5.640   8.347
61157SOL     OW85244   4.819   4.111  10.335
61157SOL    HW185245   4.798   4.185  10.279
61157SOL    HW285246   4.892   4.068  10.291
61158SOL     OW85247   3.223   9.375  11.513
61158SOL    HW185248   3.230   9.358  11.607
61158SOL    HW285249   3.216   9.470  11.506
61159SOL     OW85250  10.499   4.823  11.025
61159SOL    HW185251  10.473   4.750  11.081
61159SOL    HW285252  10.592   4.834  11.042
61160SOL     OW85253   7.359  14.044   0.017
61160SOL    HW185254   7.265  14.053   0.003
61160SOL    HW285255   7.391  14.134   0.022
61161SOL     OW85256   0.721   5.072   2.071
61161SOL    HW185257   0.742   5.156   2.112
61161SOL    HW285258   0.625   5.070   2.066
61162SOL     OW85259  14.651   9.758   0.608
61162SOL    HW185260  14.746   9.749   0.603
61162SOL    HW285261  14.623   9.763   0.517
61163SOL     OW85262   4.580   6.675  14.423
61163SOL    HW185263   4.517   6.703  14.357
61163SOL    HW285264   4.637   6.613  14.377
61164SOL     OW85265  12.470   0.459   7.908
61164SOL    HW185266  12.445   0.465   7.816
61164SOL    HW285267  12.565   0.470   7.908
61165SOL     OW85268   3.730   3.908   3.323
61165SOL    HW185269   3.796   3.880   3.386
61165SOL    HW285270   3.674   3.969   3.372
61166SOL     OW85271   2.505   0.540   7.645
61166SOL    HW185272   2.576   0.601   7.624
61166SOL    HW285273   2.457   0.531   7.563
61167SOL     OW85274   9.169  11.009   3.932
61167SOL    HW185275   9.247  11.058   3.958
61167SOL    HW285276   9.193  10.917   3.946
61168SOL     OW85277   8.176   6.670   0.944
61168SOL    HW185278   8.254   6.698   0.896
61168SOL    HW285279   8.149   6.748   0.993
61169SOL     OW85280   0.355  14.541  14.096
61169SOL    HW185281   0.304  14.475  14.048
61169SOL    HW285282   0.392  14.494  14.170
61170SOL     OW85283   0.199   8.775   0.734
61170SOL    HW185284   0.185   8.866   0.708
61170SOL    HW285285   0.129   8.757   0.797
61171SOL     OW85286   9.558   9.586   3.646
61171SOL    HW185287   9.492   9.655   3.645
61171SOL    HW285288   9.572   9.565   3.554
61172SOL     OW85289   6.557  11.439  13.711
61172SOL    HW185290   6.538  11.450  13.804
61172SOL    HW285291   6.582  11.348  13.701
61173SOL     OW85292  13.062  12.045   0.305
61173SOL    HW185293  13.010  12.112   0.260
61173SOL    HW285294  13.090  12.088   0.386
61174SOL     OW85295  13.090   4.279   8.224
61174SOL    HW185296  13.041   4.265   8.142
61174SOL    HW285297  13.182   4.284   8.196
61175SOL     OW85298   9.207  14.118   3.099
61175SOL    HW185299   9.149  14.194   3.086
61175SOL    HW285300   9.167  14.049   3.047
61176SOL     OW85301   6.511   7.435   7.336
61176SOL    HW185302   6.568   7.511   7.321
61176SOL    HW285303   6.570   7.360   7.332
61177SOL     OW85304  13.865   1.944   9.674
61177SOL    HW185305  13.886   1.928   9.766
61177SOL    HW285306  13.931   1.896   9.625
61178SOL     OW85307  11.174   6.864   0.202
61178SOL    HW185308  11.101   6.824   0.155
61178SOL    HW285309  11.169   6.827   0.290
61179SOL     OW85310   2.124  10.672   9.781
61179SOL    HW185311   2.033  10.691   9.804
61179SOL    HW285312   2.121  10.588   9.736
61180SOL     OW85313  12.196   7.837   1.118
61180SOL    HW185314  12.101   7.848   1.121
61180SOL    HW285315  12.227   7.908   1.062
61181SOL     OW85316   4.480  10.187  10.655
61181SOL    HW185317   4.512  10.114  10.707
61181SOL    HW285318   4.460  10.256  10.719
61182SOL     OW85319   4.406   6.256  14.192
61182SOL    HW185320   4.389   6.312  14.117
61182SOL    HW285321   4.466   6.189  14.160
61183SOL     OW85322   8.273   0.430   9.097
61183SOL    HW185323   8.193   0.408   9.049
61183SOL    HW285324   8.292   0.520   9.072
61184SOL     OW85325  11.809  11.545  10.682
61184SOL    HW185326  11.800  11.545  10.778
61184SOL    HW285327  11.895  11.584  10.666
61185SOL     OW85328  11.814   6.639  11.572
61185SOL    HW185329  11.780   6.718  11.532
61185SOL    HW285330  11.909   6.650  11.570
61186SOL     OW85331   6.566   2.569  13.009
61186SOL    HW185332   6.545   2.638  12.946
61186SOL    HW285333   6.598   2.616  13.086
61187SOL     OW85334   5.605   0.419   0.894
61187SOL    HW185335   5.540   0.459   0.836
61187SOL    HW285336   5.556   0.351   0.941
61188SOL     OW85337  10.618   8.726   9.428
61188SOL    HW185338  10.554   8.714   9.498
61188SOL    HW285339  10.677   8.794   9.460
61189SOL     OW85340   4.874   6.507   9.769
61189SOL    HW185341   4.788   6.489   9.807
61189SOL    HW285342   4.865   6.485   9.677
61190SOL     OW85343   1.818   3.259   0.191
61190SOL    HW185344   1.806   3.311   0.111
61190SOL    HW285345   1.891   3.200   0.170
61191SOL     OW85346   7.862  10.532   6.063
61191SOL    HW185347   7.874  10.439   6.041
61191SOL    HW285348   7.800  10.564   5.998
61192SOL     OW85349   6.262   9.176   6.971
61192SOL    HW185350   6.174   9.184   7.008
61192SOL    HW285351   6.286   9.266   6.947
61193SOL     OW85352   4.202  12.262   1.373
61193SOL    HW185353   4.109  12.241   1.360
61193SOL    HW285354   4.245  12.177   1.381
61194SOL     OW85355  14.101  11.333  14.212
61194SOL    HW185356  14.042  11.324  14.286
61194SOL    HW285357  14.169  11.393  14.242
61195SOL     OW85358   7.576   4.875  11.794
61195SOL    HW185359   7.617   4.819  11.860
61195SOL    HW285360   7.573   4.962  11.834
61196SOL     OW85361   2.738   6.885   3.096
61196SOL    HW185362   2.664   6.945   3.081
61196SOL    HW285363   2.701   6.798   3.083
61197SOL     OW85364   0.901   3.769   0.802
61197SOL    HW185365   0.894   3.861   0.777
61197SOL    HW285366   0.828   3.726   0.757
61198SOL     OW85367   0.576   9.192  14.111
61198SOL    HW185368   0.517   9.190  14.036
61198SOL    HW285369   0.549   9.270  14.160
61199SOL     OW85370   4.309   5.830   5.589
61199SOL    HW185371   4.236   5.891   5.575
61199SOL    HW285372   4.373   5.882   5.638
61200SOL     OW85373   0.850  10.249   9.656
61200SOL    HW185374   0.943  10.228   9.666
61200SOL    HW285375   0.805  10.185   9.712
61201SOL     OW85376   7.551   2.920   2.103
61201SOL    HW185377   7.615   2.868   2.150
61201SOL    HW285378   7.503   2.857   2.049
61202SOL     OW85379   1.462   9.467   2.282
61202SOL    HW185380   1.412   9.386   2.296
61202SOL    HW285381   1.525   9.469   2.354
61203SOL     OW85382   2.793  14.065   5.026
61203SOL    HW185383   2.884  14.091   5.040
61203SOL    HW285384   2.742  14.132   5.071
61204SOL     OW85385  11.114   4.819  12.871
61204SOL    HW185386  11.093   4.731  12.840
61204SOL    HW285387  11.031   4.866  12.867
61205SOL     OW85388   0.094   4.295   0.979
61205SOL    HW185389   0.161   4.336   0.923
61205SOL    HW285390   0.078   4.210   0.938
61206SOL     OW85391   5.067   4.747   2.538
61206SOL    HW185392   5.159   4.767   2.525
61206SOL    HW285393   5.040   4.703   2.458
61207SOL     OW85394   8.753   2.137   9.600
61207SOL    HW185395   8.836   2.098   9.626
61207SOL    HW285396   8.771   2.176   9.514
61208SOL     OW85397  13.092  12.168   5.065
61208SOL    HW185398  13.048  12.175   5.150
61208SOL    HW285399  13.179  12.204   5.079
61209SOL     OW85400  14.568  11.079  12.452
61209SOL    HW185401  14.571  11.171  12.425
61209SOL    HW285402  14.478  11.065  12.480
61210SOL     OW85403  12.568  14.552  10.796
61210SOL    HW185404  12.553  14.641  10.766
61210SOL    HW285405  12.524  14.496  10.731
61211SOL     OW85406   0.025   4.317  13.887
61211SOL    HW185407  14.846   4.294  13.960
61211SOL    HW285408   0.111   4.282  13.911
61212SOL     OW85409   1.037   5.129   7.267
61212SOL    HW185410   0.976   5.058   7.287
61212SOL    HW285411   1.051   5.123   7.173
61213SOL     OW85412  10.755  13.846   1.314
61213SOL    HW185413  10.668  13.823   1.346
61213SOL    HW285414  10.768  13.936   1.344
61214SOL     OW85415   6.465  13.180   8.137
61214SOL    HW185416   6.481  13.171   8.043
61214SOL    HW285417   6.527  13.120   8.178
61215SOL     OW85418  10.666   7.377   3.206
61215SOL    HW185419  10.734   7.443   3.196
61215SOL    HW285420  10.683   7.337   3.291
61216SOL     OW85421   8.148   7.140   1.174
61216SOL    HW185422   8.236   7.115   1.203
61216SOL    HW285423   8.118   7.203   1.240
61217SOL     OW85424   2.653   8.126  13.940
61217SOL    HW185425   2.634   8.220  13.933
61217SOL    HW285426   2.686   8.115  14.029
61218SOL     OW85427  11.549  12.915  12.639
61218SOL    HW185428  11.547  12.986  12.703
61218SOL    HW285429  11.632  12.870  12.656
61219SOL     OW85430  11.353   9.114  12.184
61219SOL    HW185431  11.322   9.202  12.164
61219SOL    HW285432  11.324   9.061  12.109
61220SOL     OW85433  12.811   4.638   4.098
61220SOL    HW185434  12.790   4.632   4.005
61220SOL    HW285435  12.779   4.724   4.125
61221SOL     OW85436   0.267  12.823   1.696
61221SOL    HW185437   0.196  12.886   1.689
61221SOL    HW285438   0.266  12.796   1.788
61222SOL     OW85439   4.864   1.245   2.947
61222SOL    HW185440   4.879   1.338   2.926
61222SOL    HW285441   4.807   1.214   2.877
61223SOL     OW85442   9.389   2.389   7.675
61223SOL    HW185443   9.429   2.439   7.747
61223SOL    HW285444   9.299   2.420   7.672
61224SOL     OW85445   9.218   6.840  12.435
61224SOL    HW185446   9.162   6.873  12.365
61224SOL    HW285447   9.293   6.899  12.436
61225SOL     OW85448   5.348   5.619   8.233
61225SOL    HW185449   5.404   5.669   8.293
61225SOL    HW285450   5.386   5.530   8.234
61226SOL     OW85451   9.617   0.610  11.239
61226SOL    HW185452   9.523   0.605  11.223
61226SOL    HW285453   9.656   0.553  11.172
61227SOL     OW85454   3.132   4.157   9.123
61227SOL    HW185455   3.222   4.187   9.111
61227SOL    HW285456   3.101   4.140   9.034
61228SOL     OW85457  13.695   1.873  10.076
61228SOL    HW185458  13.641   1.939  10.032
61228SOL    HW285459  13.782   1.883  10.037
61229SOL     OW85460   7.427  13.487   5.059
61229SOL    HW185461   7.508  13.520   5.098
61229SOL    HW285462   7.410  13.546   4.986
61230SOL     OW85463  13.779   8.209   5.657
61230SOL    HW185464  13.700   8.173   5.696
61230SOL    HW285465  13.801   8.283   5.713
61231SOL     OW85466   0.725   0.959  13.107
61231SOL    HW185467   0.694   0.930  13.022
61231SOL    HW285468   0.812   0.919  13.116
61232SOL     OW85469   9.697  10.960  13.651
61232SOL    HW185470   9.658  10.934  13.567
61232SOL    HW285471   9.789  10.935  13.644
61233SOL     OW85472   8.688   2.953   5.136
61233SOL    HW185473   8.656   2.947   5.046
61233SOL    HW285474   8.687   3.046   5.156
61234SOL     OW85475   7.105   2.156   7.268
61234SOL    HW185476   7.125   2.249   7.283
61234SOL    HW285477   7.021   2.157   7.222
61235SOL     OW85478  14.214   6.173   5.738
61235SOL    HW185479  14.190   6.245   5.679
61235SOL    HW285480  14.132   6.146   5.778
61236SOL     OW85481  10.203   1.830  10.667
61236SOL    HW185482  10.211   1.759  10.603
61236SOL    HW285483  10.287   1.876  10.664
61237SOL     OW85484  12.797  12.211  10.880
61237SOL    HW185485  12.817  12.304  10.891
61237SOL    HW285486  12.722  12.209  10.821
61238SOL     OW85487  10.464  12.944  11.605
61238SOL    HW185488  10.378  12.973  11.572
61238SOL    HW285489  10.486  12.869  11.550
61239SOL     OW85490  12.562   0.290  11.171
61239SOL    HW185491  12.615   0.309  11.248
61239SOL    HW285492  12.553   0.374  11.127
61240SOL     OW85493   8.438   5.012   0.831
61240SOL    HW185494   8.374   4.972   0.889
61240SOL    HW285495   8.432   5.106   0.849
61241SOL     OW85496  12.438   6.430   3.341
61241SOL    HW185497  12.416   6.415   3.433
61241SOL    HW285498  12.423   6.345   3.299
61242SOL     OW85499   0.625   0.218   7.597
61242SOL    HW185500   0.577   0.271   7.533
61242SOL    HW285501   0.628   0.271   7.676
61243SOL     OW85502   1.828  10.624   4.054
61243SOL    HW185503   1.839  10.588   4.142
61243SOL    HW285504   1.750  10.678   4.059
61244SOL     OW85505  12.611   6.108   5.474
61244SOL    HW185506  12.674   6.097   5.545
61244SOL    HW285507  12.575   6.196   5.488
61245SOL     OW85508  13.274   2.053   9.809
61245SOL    HW185509  13.239   2.118   9.747
61245SOL    HW285510  13.207   1.984   9.811
61246SOL     OW85511  12.826   4.922   6.403
61246SOL    HW185512  12.781   4.876   6.473
61246SOL    HW285513  12.903   4.961   6.446
61247SOL     OW85514   8.990  10.264   7.431
61247SOL    HW185515   8.979  10.173   7.460
61247SOL    HW285516   8.911  10.309   7.462
61248SOL     OW85517   8.980  12.597   8.458
61248SOL    HW185518   8.930  12.579   8.378
61248SOL    HW285519   8.947  12.533   8.521
61249SOL     OW85520   9.666  11.265   0.612
61249SOL    HW185521   9.574  11.290   0.603
61249SOL    HW285522   9.663  11.175   0.643
61250SOL     OW85523   2.383  10.452  12.965
61250SOL    HW185524   2.305  10.481  12.917
61250SOL    HW285525   2.360  10.465  13.057
61251SOL     OW85526  13.764   9.095  12.091
61251SOL    HW185527  13.756   9.002  12.073
61251SOL    HW285528  13.855   9.117  12.068
61252SOL     OW85529   4.791   6.816  10.285
61252SOL    HW185530   4.875   6.816  10.331
61252SOL    HW285531   4.738   6.880  10.333
61253SOL     OW85532   1.913   0.937   7.111
61253SOL    HW185533   1.855   0.958   7.038
61253SOL    HW285534   1.886   0.995   7.182
61254SOL     OW85535   9.991   9.223   1.132
61254SOL    HW185536   9.982   9.233   1.037
61254SOL    HW285537   9.901   9.217   1.164
61255SOL     OW85538   2.989   3.858   7.462
61255SOL    HW185539   3.043   3.811   7.398
61255SOL    HW285540   2.899   3.835   7.439
61256SOL     OW85541  11.289   6.958   9.451
61256SOL    HW185542  11.310   7.034   9.505
61256SOL    HW285543  11.291   6.990   9.361
61257SOL     OW85544   2.373  12.564   2.851
61257SOL    HW185545   2.407  12.475   2.841
61257SOL    HW285546   2.419  12.599   2.928
61258SOL     OW85547   3.601   5.817   7.734
61258SOL    HW185548   3.613   5.910   7.718
61258SOL    HW285549   3.686   5.778   7.712
61259SOL     OW85550   3.432   6.924   4.184
61259SOL    HW185551   3.512   6.930   4.132
61259SOL    HW285552   3.373   6.988   4.144
61260SOL     OW85553  13.470  11.685   2.842
61260SOL    HW185554  13.502  11.698   2.931
61260SOL    HW285555  13.513  11.753   2.791
61261SOL     OW85556   4.862  11.793  13.388
61261SOL    HW185557   4.948  11.755  13.369
61261SOL    HW285558   4.836  11.754  13.471
61262SOL     OW85559   6.435   8.374   4.762
61262SOL    HW185560   6.375   8.437   4.802
61262SOL    HW285561   6.504   8.362   4.827
61263SOL     OW85562  11.139  14.698   6.995
61263SOL    HW185563  11.063  14.641   6.995
61263SOL    HW285564  11.180  14.682   7.080
61264SOL     OW85565   3.121   8.712   6.219
61264SOL    HW185566   3.197   8.661   6.245
61264SOL    HW285567   3.067   8.651   6.169
61265SOL     OW85568   8.460   2.239   8.983
61265SOL    HW185569   8.416   2.323   8.997
61265SOL    HW285570   8.425   2.182   9.052
61266SOL     OW85571   0.356   3.148   9.788
61266SOL    HW185572   0.312   3.092   9.724
61266SOL    HW285573   0.404   3.087   9.844
61267SOL     OW85574  10.258   8.220   4.145
61267SOL    HW185575  10.193   8.245   4.080
61267SOL    HW285576  10.322   8.167   4.097
61268SOL     OW85577   9.362  12.244  12.392
61268SOL    HW185578   9.292  12.282  12.338
61268SOL    HW285579   9.440  12.251  12.338
61269SOL     OW85580   1.607   7.120  13.374
61269SOL    HW185581   1.636   7.202  13.414
61269SOL    HW285582   1.522   7.142  13.335
61270SOL     OW85583   0.484   4.954   6.249
61270SOL    HW185584   0.440   4.972   6.166
61270SOL    HW285585   0.499   4.860   6.249
61271SOL     OW85586  12.944   4.822   7.104
61271SOL    HW185587  13.005   4.761   7.064
61271SOL    HW285588  12.990   4.855   7.182
61272SOL     OW85589   5.557   6.064   1.822
61272SOL    HW185590   5.495   6.137   1.812
61272SOL    HW285591   5.505   5.993   1.860
61273SOL     OW85592  11.176  10.747   2.467
61273SOL    HW185593  11.206  10.667   2.511
61273SOL    HW285594  11.083  10.733   2.453
61274SOL     OW85595  14.850   2.550  12.603
61274SOL    HW185596   0.013   2.544  12.516
61274SOL    HW285597  14.791   2.625  12.597
61275SOL     OW85598   9.200  14.567   2.463
61275SOL    HW185599   9.242  14.653   2.472
61275SOL    HW285600   9.271  14.504   2.479
61276SOL     OW85601  10.909   4.575   1.818
61276SOL    HW185602  10.830   4.564   1.871
61276SOL    HW285603  10.901   4.663   1.780
61277SOL     OW85604   9.883   5.726  14.187
61277SOL    HW185605   9.829   5.669  14.132
61277SOL    HW285606   9.843   5.812  14.179
61278SOL     OW85607  12.230  10.541   8.580
61278SOL    HW185608  12.310  10.579   8.544
61278SOL    HW285609  12.172  10.617   8.594
61279SOL     OW85610   1.042  12.224   5.143
61279SOL    HW185611   1.006  12.149   5.192
61279SOL    HW285612   1.112  12.186   5.090
61280SOL     OW85613  13.459   5.805   0.270
61280SOL    HW185614  13.549   5.837   0.276
61280SOL    HW285615  13.418   5.861   0.205
61281SOL     OW85616  13.390   0.102  10.965
61281SOL    HW185617  13.333   0.178  10.971
61281SOL    HW285618  13.385   0.061  11.051
61282SOL     OW85619   8.019   9.277  11.796
61282SOL    HW185620   8.075   9.351  11.816
61282SOL    HW285621   8.031   9.216  11.869
61283SOL     OW85622   6.469   9.041   2.432
61283SOL    HW185623   6.540   9.071   2.488
61283SOL    HW285624   6.434   8.963   2.476
61284SOL     OW85625   4.362   6.064   0.927
61284SOL    HW185626   4.306   6.104   0.859
61284SOL    HW285627   4.392   5.982   0.887
61285SOL     OW85628  11.091  13.490   3.089
61285SOL    HW185629  11.061  13.536   3.010
61285SOL    HW285630  11.115  13.403   3.059
61286SOL     OW85631  14.266   1.033   9.974
61286SOL    HW185632  14.269   1.037  10.070
61286SOL    HW285633  14.290   1.121   9.946
61287SOL     OW85634   2.447   2.292   0.106
61287SOL    HW185635   2.513   2.353   0.073
61287SOL    HW285636   2.487   2.253   0.184
61288SOL     OW85637  12.236   9.047  10.319
61288SOL    HW185638  12.169   8.990  10.281
61288SOL    HW285639  12.316   9.025  10.271
61289SOL     OW85640   2.376  14.865   2.797
61289SOL    HW185641   2.342  14.811   2.726
61289SOL    HW285642   2.338   0.074   2.781
61290SOL     OW85643  14.707   9.321   7.146
61290SOL    HW185644  14.674   9.351   7.061
61290SOL    HW285645  14.677   9.388   7.208
61291SOL     OW85646  13.944   0.788  10.913
61291SOL    HW185647  13.849   0.799  10.917
61291SOL    HW285648  13.960   0.706  10.960
61292SOL     OW85649  13.303   8.995   0.264
61292SOL    HW185650  13.237   9.000   0.194
61292SOL    HW285651  13.313   8.901   0.280
61293SOL     OW85652   0.419  11.731   8.805
61293SOL    HW185653   0.505  11.706   8.770
61293SOL    HW285654   0.438  11.788   8.879
61294SOL     OW85655   7.224   6.200   2.935
61294SOL    HW185656   7.194   6.147   3.010
61294SOL    HW285657   7.296   6.252   2.971
61295SOL     OW85658   0.404  12.976   3.245
61295SOL    HW185659   0.466  12.961   3.316
61295SOL    HW285660   0.449  13.036   3.185
61296SOL     OW85661  13.591   4.483   5.686
61296SOL    HW185662  13.604   4.405   5.633
61296SOL    HW285663  13.606   4.556   5.626
61297SOL     OW85664   1.063   0.594   5.727
61297SOL    HW185665   0.993   0.636   5.677
61297SOL    HW285666   1.106   0.537   5.664
61298SOL     OW85667   5.168   6.260  10.428
61298SOL    HW185668   5.173   6.196  10.357
61298SOL    HW285669   5.256   6.259  10.467
61299SOL     OW85670   4.134   4.494   4.456
61299SOL    HW185671   4.152   4.478   4.548
61299SOL    HW285672   4.059   4.553   4.456
61300SOL     OW85673   2.320   7.723   0.815
61300SOL    HW185674   2.323   7.804   0.764
61300SOL    HW285675   2.408   7.712   0.849
61301SOL     OW85676   3.038   0.101  13.966
61301SOL    HW185677   3.053   0.012  13.936
61301SOL    HW285678   2.982   0.092  14.043
61302SOL     OW85679   3.373   6.417  11.351
61302SOL    HW185680   3.298   6.432  11.409
61302SOL    HW285681   3.352   6.465  11.272
61303SOL     OW85682   6.002  14.738   7.689
61303SOL    HW185683   5.975  14.677   7.620
61303SOL    HW285684   6.025  14.682   7.762
61304SOL     OW85685  14.055   6.977   1.785
61304SOL    HW185686  14.034   7.070   1.778
61304SOL    HW285687  14.040   6.955   1.877
61305SOL     OW85688   6.897   9.177   2.481
61305SOL    HW185689   6.936   9.210   2.401
61305SOL    HW285690   6.971   9.153   2.537
61306SOL     OW85691  10.412   2.066   7.406
61306SOL    HW185692  10.414   2.152   7.449
61306SOL    HW285693  10.343   2.018   7.452
61307SOL     OW85694  11.734   3.929  11.476
61307SOL    HW185695  11.711   3.841  11.505
61307SOL    HW285696  11.827   3.924  11.457
61308SOL     OW85697   9.690   1.161   6.896
61308SOL    HW185698   9.601   1.156   6.931
61308SOL    HW285699   9.679   1.190   6.806
61309SOL     OW85700  11.831  10.788  13.684
61309SOL    HW185701  11.923  10.785  13.659
61309SOL    HW285702  11.810  10.697  13.707
61310SOL     OW85703   5.580   3.511  11.982
61310SOL    HW185704   5.610   3.511  12.073
61310SOL    HW285705   5.511   3.445  11.979
61311SOL     OW85706   2.324  14.579   2.971
61311SOL    HW185707   2.401  14.553   3.022
61311SOL    HW285708   2.339  14.672   2.952
61312SOL     OW85709   7.295   1.274   8.418
61312SOL    HW185710   7.345   1.296   8.340
61312SOL    HW285711   7.235   1.348   8.429
61313SOL     OW85712   9.389   5.221   5.816
61313SOL    HW185713   9.391   5.192   5.725
61313SOL    HW285714   9.311   5.275   5.823
61314SOL     OW85715   0.285   9.192   8.224
61314SOL    HW185716   0.279   9.198   8.128
61314SOL    HW285717   0.379   9.193   8.242
61315SOL     OW85718  13.575   4.288  11.148
61315SOL    HW185719  13.521   4.314  11.222
61315SOL    HW285720  13.515   4.241  11.090
61316SOL     OW85721  11.798   5.378   4.306
61316SOL    HW185722  11.858   5.355   4.377
61316SOL    HW285723  11.810   5.472   4.293
61317SOL     OW85724  10.505  14.352   6.352
61317SOL    HW185725  10.532  14.314   6.436
61317SOL    HW285726  10.527  14.444   6.359
61318SOL     OW85727   1.807   2.172  12.589
61318SOL    HW185728   1.863   2.216  12.653
61318SOL    HW285729   1.865   2.113  12.542
61319SOL     OW85730   5.123  14.324  12.460
61319SOL    HW185731   5.079  14.391  12.512
61319SOL    HW285732   5.061  14.305  12.389
61320SOL     OW85733   8.177   6.578   7.733
61320SOL    HW185734   8.115   6.600   7.803
61320SOL    HW285735   8.226   6.503   7.768
61321SOL     OW85736   9.417   3.924   6.538
61321SOL    HW185737   9.402   3.829   6.536
61321SOL    HW285738   9.422   3.945   6.631
61322SOL     OW85739  12.960  10.936   7.456
61322SOL    HW185740  13.030  10.978   7.506
61322SOL    HW285741  12.889  10.926   7.519
61323SOL     OW85742   9.747  10.128  10.403
61323SOL    HW185743   9.740  10.106  10.310
61323SOL    HW285744   9.815  10.071  10.436
61324SOL     OW85745   0.933   2.402   9.365
61324SOL    HW185746   1.008   2.436   9.316
61324SOL    HW285747   0.857   2.422   9.311
61325SOL     OW85748   5.275  14.061   9.391
61325SOL    HW185749   5.318  14.091   9.311
61325SOL    HW285750   5.311  13.973   9.406
61326SOL     OW85751   6.328  14.594  10.461
61326SOL    HW185752   6.335  14.616  10.554
61326SOL    HW285753   6.348  14.676  10.416
61327SOL     OW85754  11.053   2.655  11.814
61327SOL    HW185755  11.052   2.674  11.908
61327SOL    HW285756  11.085   2.735  11.773
61328SOL     OW85757   9.705   9.201   1.089
61328SOL    HW185758   9.746   9.147   1.022
61328SOL    HW285759   9.621   9.158   1.106
61329SOL     OW85760  11.615   6.905   4.453
61329SOL    HW185761  11.609   6.858   4.536
61329SOL    HW285762  11.647   6.992   4.476
61330SOL     OW85763   9.281   1.800  14.473
61330SOL    HW185764   9.318   1.723  14.431
61330SOL    HW285765   9.207   1.824  14.418
61331SOL     OW85766  11.810   1.825   6.162
61331SOL    HW185767  11.722   1.793   6.178
61331SOL    HW285768  11.815   1.909   6.209
61332SOL     OW85769   0.067   1.102  13.910
61332SOL    HW185770   0.089   1.068  13.997
61332SOL    HW285771  14.877   1.043  13.878
61333SOL     OW85772   2.846  10.002   8.255
61333SOL    HW185773   2.835  10.065   8.184
61333SOL    HW285774   2.928  10.027   8.297
61334SOL     OW85775  13.003  14.697   8.736
61334SOL    HW185776  12.914  14.723   8.758
61334SOL    HW285777  13.058  14.771   8.762
61335SOL     OW85778   2.695   2.481   0.662
61335SOL    HW185779   2.756   2.521   0.724
61335SOL    HW285780   2.710   2.387   0.672
61336SOL     OW85781   7.145   6.167  12.515
61336SOL    HW185782   7.141   6.092  12.457
61336SOL    HW285783   7.069   6.220  12.492
61337SOL     OW85784   1.936   7.934  14.524
61337SOL    HW185785   1.925   7.851  14.477
61337SOL    HW285786   1.865   7.935  14.588
61338SOL     OW85787   6.522  11.777   4.896
61338SOL    HW185788   6.448  11.771   4.956
61338SOL    HW285789   6.596  11.807   4.950
61339SOL     OW85790  14.423  12.182  10.966
61339SOL    HW185791  14.401  12.254  11.025
61339SOL    HW285792  14.387  12.208  10.881
61340SOL     OW85793  10.134   7.737   8.309
61340SOL    HW185794  10.156   7.664   8.366
61340SOL    HW285795  10.043   7.757   8.330
61341SOL     OW85796   6.572   3.877   3.665
61341SOL    HW185797   6.535   3.809   3.720
61341SOL    HW285798   6.630   3.926   3.723
61342SOL     OW85799  11.299  13.635  11.714
61342SOL    HW185800  11.262  13.654  11.801
61342SOL    HW285801  11.359  13.562  11.729
61343SOL     OW85802  14.257   6.941   8.994
61343SOL    HW185803  14.274   7.028   9.028
61343SOL    HW285804  14.311   6.934   8.916
61344SOL     OW85805   7.024   8.971  14.026
61344SOL    HW185806   7.037   9.039  14.092
61344SOL    HW285807   7.004   9.020  13.945
61345SOL     OW85808   2.998   0.457   6.478
61345SOL    HW185809   2.959   0.544   6.480
61345SOL    HW285810   3.069   0.464   6.413
61346SOL     OW85811   6.559   9.680  14.619
61346SOL    HW185812   6.635   9.738  14.628
61346SOL    HW285813   6.587   9.597  14.657
61347SOL     OW85814  14.765   2.698   5.532
61347SOL    HW185815  14.724   2.774   5.490
61347SOL    HW285816  14.810   2.653   5.460
61348SOL     OW85817   2.718   1.281   2.004
61348SOL    HW185818   2.810   1.269   1.979
61348SOL    HW285819   2.690   1.196   2.037
61349SOL     OW85820  11.892   0.361   7.488
61349SOL    HW185821  11.916   0.283   7.438
61349SOL    HW285822  11.974   0.410   7.497
61350SOL     OW85823  13.023  10.185  11.722
61350SOL    HW185824  13.019  10.273  11.760
61350SOL    HW285825  12.948  10.182  11.662
61351SOL     OW85826  10.905   8.696   5.387
61351SOL    HW185827  10.979   8.635   5.380
61351SOL    HW285828  10.828   8.644   5.365
61352SOL     OW85829  11.007  10.153  13.023
61352SOL    HW185830  10.928  10.144  13.077
61352SOL    HW285831  11.066  10.087  13.057
61353SOL     OW85832  12.650  14.289  10.058
61353SOL    HW185833  12.647  14.347   9.982
61353SOL    HW285834  12.643  14.201  10.022
61354SOL     OW85835   3.134   7.946   3.837
61354SOL    HW185836   3.058   7.969   3.784
61354SOL    HW285837   3.137   7.850   3.835
61355SOL     OW85838   0.423   2.462   8.429
61355SOL    HW185839   0.446   2.434   8.340
61355SOL    HW285840   0.505   2.455   8.478
61356SOL     OW85841   4.932  12.920   0.803
61356SOL    HW185842   4.956  12.849   0.744
61356SOL    HW285843   4.841  12.941   0.780
61357SOL     OW85844   5.421   1.088   4.107
61357SOL    HW185845   5.507   1.118   4.076
61357SOL    HW285846   5.411   1.131   4.192
61358SOL     OW85847  11.487   0.239   6.558
61358SOL    HW185848  11.532   0.177   6.616
61358SOL    HW285849  11.526   0.225   6.472
61359SOL     OW85850   4.804  11.399  13.937
61359SOL    HW185851   4.727  11.350  13.906
61359SOL    HW285852   4.856  11.413  13.858
61360SOL     OW85853   8.694  12.845   6.378
61360SOL    HW185854   8.722  12.754   6.385
61360SOL    HW285855   8.598  12.840   6.381
61361SOL     OW85856  10.823   2.527   5.427
61361SOL    HW185857  10.881   2.518   5.351
61361SOL    HW285858  10.840   2.615   5.460
61362SOL     OW85859   2.202   2.575  14.604
61362SOL    HW185860   2.116   2.535  14.597
61362SOL    HW285861   2.188   2.654  14.656
61363SOL     OW85862   2.237   5.484   1.676
61363SOL    HW185863   2.205   5.572   1.696
61363SOL    HW285864   2.322   5.498   1.634
61364SOL     OW85865   4.368   4.758   8.993
61364SOL    HW185866   4.309   4.758   8.918
61364SOL    HW285867   4.414   4.674   8.988
61365SOL     OW85868   0.504  14.834   1.163
61365SOL    HW185869   0.452  14.866   1.089
61365SOL    HW285870   0.473   0.007   1.238
61366SOL     OW85871   8.981  14.504  14.146
61366SOL    HW185872   8.913  14.437  14.154
61366SOL    HW285873   8.968  14.561  14.222
61367SOL     OW85874   1.451   4.304   6.584
61367SOL    HW185875   1.403   4.311   6.502
61367SOL    HW285876   1.401   4.357   6.646
61368SOL     OW85877  13.918   9.663   2.045
61368SOL    HW185878  13.998   9.627   2.084
61368SOL    HW285879  13.849   9.639   2.107
61369SOL     OW85880   5.595   0.200   4.670
61369SOL    HW185881   5.651   0.191   4.593
61369SOL    HW285882   5.636   0.267   4.723
61370SOL     OW85883   4.704  10.845   0.955
61370SOL    HW185884   4.728  10.754   0.938
61370SOL    HW285885   4.656  10.872   0.877
61371SOL     OW85886  14.627   0.042   9.603
61371SOL    HW185887  14.653  14.842   9.652
61371SOL    HW285888  14.671   0.033   9.519
61372SOL     OW85889   8.353   0.406  13.220
61372SOL    HW185890   8.366   0.442  13.308
61372SOL    HW285891   8.259   0.411  13.205
61373SOL     OW85892  13.448   7.613   9.502
61373SOL    HW185893  13.497   7.535   9.529
61373SOL    HW285894  13.384   7.580   9.438
61374SOL     OW85895   3.573   1.848   9.888
61374SOL    HW185896   3.587   1.942   9.873
61374SOL    HW285897   3.572   1.809   9.801
61375SOL     OW85898  11.088   1.493   8.390
61375SOL    HW185899  11.093   1.479   8.296
61375SOL    HW285900  11.105   1.587   8.401
61376SOL     OW85901   0.216   8.313  10.876
61376SOL    HW185902   0.230   8.343  10.966
61376SOL    HW285903   0.261   8.378  10.822
61377SOL     OW85904   3.525   4.135  14.231
61377SOL    HW185905   3.520   4.229  14.217
61377SOL    HW285906   3.538   4.125  14.325
61378SOL     OW85907   0.796  10.346   3.717
61378SOL    HW185908   0.851  10.350   3.796
61378SOL    HW285909   0.760  10.258   3.717
61379SOL     OW85910   0.585  13.878   3.857
61379SOL    HW185911   0.512  13.824   3.889
61379SOL    HW285912   0.637  13.896   3.935
61380SOL     OW85913   0.453   9.239   3.799
61380SOL    HW185914   0.486   9.150   3.784
61380SOL    HW285915   0.532   9.293   3.803
61381SOL     OW85916  13.961   8.982  10.940
61381SOL    HW185917  13.938   8.994  11.032
61381SOL    HW285918  13.882   8.946  10.900
61382SOL     OW85919   2.413   5.041   6.193
61382SOL    HW185920   2.451   4.957   6.167
61382SOL    HW285921   2.485   5.103   6.186
61383SOL     OW85922   6.919   7.873   0.332
61383SOL    HW185923   6.893   7.869   0.240
61383SOL    HW285924   6.917   7.967   0.353
61384SOL     OW85925   5.157  12.240   6.935
61384SOL    HW185926   5.179  12.229   6.843
61384SOL    HW285927   5.108  12.161   6.957
61385SOL     OW85928   8.435   3.845   0.543
61385SOL    HW185929   8.348   3.832   0.504
61385SOL    HW285930   8.494   3.797   0.486
61386SOL     OW85931   2.513  10.168  11.674
61386SOL    HW185932   2.422  10.140  11.672
61386SOL    HW285933   2.558  10.107  11.615
61387SOL     OW85934   6.553  10.589   4.069
61387SOL    HW185935   6.635  10.632   4.093
61387SOL    HW285936   6.484  10.643   4.107
61388SOL     OW85937   7.284  12.435   0.912
61388SOL    HW185938   7.296  12.397   0.826
61388SOL    HW285939   7.277  12.529   0.896
61389SOL     OW85940   1.793  13.537  11.756
61389SOL    HW185941   1.763  13.489  11.833
61389SOL    HW285942   1.886  13.552  11.772
61390SOL     OW85943   2.396   3.013  12.252
61390SOL    HW185944   2.435   3.099  12.268
61390SOL    HW285945   2.346   2.994  12.332
61391SOL     OW85946   6.739   2.366   7.453
61391SOL    HW185947   6.684   2.392   7.527
61391SOL    HW285948   6.797   2.299   7.489
61392SOL     OW85949  14.194   4.313  12.457
61392SOL    HW185950  14.137   4.386  12.483
61392SOL    HW285951  14.152   4.236  12.495
61393SOL     OW85952  11.278  11.551   8.717
61393SOL    HW185953  11.207  11.587   8.663
61393SOL    HW285954  11.241  11.470   8.754
61394SOL     OW85955   8.130   8.990   8.507
61394SOL    HW185956   8.154   9.079   8.484
61394SOL    HW285957   8.034   8.989   8.498
61395SOL     OW85958   2.639  14.669   1.209
61395SOL    HW185959   2.631  14.576   1.190
61395SOL    HW285960   2.659  14.709   1.124
61396SOL     OW85961  13.793  14.200   7.525
61396SOL    HW185962  13.713  14.252   7.530
61396SOL    HW285963  13.773  14.130   7.464
61397SOL     OW85964  11.323   9.778  12.049
61397SOL    HW185965  11.344   9.865  12.015
61397SOL    HW285966  11.311   9.723  11.971
61398SOL     OW85967   4.373   4.082   3.956
61398SOL    HW185968   4.343   3.994   3.981
61398SOL    HW285969   4.385   4.127   4.039
61399SOL     OW85970   0.558   3.422   7.887
61399SOL    HW185971   0.513   3.457   7.963
61399SOL    HW285972   0.506   3.347   7.860
61400SOL     OW85973   6.663   6.182  12.581
61400SOL    HW185974   6.645   6.268  12.543
61400SOL    HW285975   6.708   6.134  12.512
61401SOL     OW85976   9.420  14.350  10.717
61401SOL    HW185977   9.436  14.352  10.623
61401SOL    HW285978   9.503  14.321  10.755
61402SOL     OW85979   0.729  14.368   1.551
61402SOL    HW185980   0.772  14.290   1.587
61402SOL    HW285981   0.750  14.366   1.457
61403SOL     OW85982  12.895  11.467  14.028
61403SOL    HW185983  12.938  11.525  13.965
61403SOL    HW285984  12.810  11.448  13.988
61404SOL     OW85985   3.318   0.994   9.416
61404SOL    HW185986   3.283   0.997   9.505
61404SOL    HW285987   3.306   0.903   9.389
61405SOL     OW85988   6.565   5.540   9.551
61405SOL    HW185989   6.596   5.479   9.618
61405SOL    HW285990   6.591   5.501   9.468
61406SOL     OW85991   7.354   5.315   0.088
61406SOL    HW185992   7.412   5.379   0.129
61406SOL    HW285993   7.409   5.237   0.078
61407SOL     OW85994  11.923   0.081   6.129
61407SOL    HW185995  11.964   0.003   6.166
61407SOL    HW285996  11.953   0.153   6.186
61408SOL     OW85997  12.346  10.354  11.783
61408SOL    HW185998  12.432  10.319  11.762
61408SOL    HW285999  12.300  10.358  11.699
61409SOL     OW86000  10.073   6.567  12.699
61409SOL    HW186001  10.098   6.553  12.790
61409SOL    HW286002  10.143   6.526  12.649
61410SOL     OW86003   2.777   7.376   8.972
61410SOL    HW186004   2.828   7.447   9.011
61410SOL    HW286005   2.721   7.421   8.908
61411SOL     OW86006   5.348   2.741   6.522
61411SOL    HW186007   5.320   2.773   6.607
61411SOL    HW286008   5.327   2.811   6.461
61412SOL     OW86009  12.539   6.949   7.932
61412SOL    HW186010  12.507   6.944   7.842
61412SOL    HW286011  12.571   7.038   7.941
61413SOL     OW86012   6.222   2.314   6.753
61413SOL    HW186013   6.309   2.275   6.762
61413SOL    HW286014   6.216   2.336   6.660
61414SOL     OW86015   6.605  10.984   2.340
61414SOL    HW186016   6.663  11.012   2.410
61414SOL    HW286017   6.645  10.904   2.306
61415SOL     OW86018   4.529   0.147   7.738
61415SOL    HW186019   4.496   0.077   7.682
61415SOL    HW286020   4.504   0.120   7.827
61416SOL     OW86021   4.074  14.448   2.443
61416SOL    HW186022   3.990  14.428   2.401
61416SOL    HW286023   4.073  14.542   2.457
61417SOL     OW86024   2.165   2.137   1.719
61417SOL    HW186025   2.188   2.065   1.778
61417SOL    HW286026   2.074   2.157   1.740
61418SOL     OW86027   9.114   6.534   4.693
61418SOL    HW186028   9.177   6.513   4.762
61418SOL    HW286029   9.124   6.464   4.628
61419SOL     OW86030  11.782   6.238  13.361
61419SOL    HW186031  11.843   6.236  13.286
61419SOL    HW286032  11.706   6.285  13.328
61420SOL     OW86033  12.149   7.501   6.819
61420SOL    HW186034  12.116   7.591   6.809
61420SOL    HW286035  12.086   7.447   6.771
61421SOL     OW86036   6.131  12.574   4.502
61421SOL    HW186037   6.148  12.567   4.596
61421SOL    HW286038   6.189  12.510   4.462
61422SOL     OW86039   4.633   1.445  13.271
61422SOL    HW186040   4.632   1.388  13.349
61422SOL    HW286041   4.687   1.519  13.297
61423SOL     OW86042   4.465   5.942  10.502
61423SOL    HW186043   4.560   5.955  10.501
61423SOL    HW286044   4.429   6.030  10.488
61424SOL     OW86045   2.011   8.165  13.112
61424SOL    HW186046   2.008   8.225  13.187
61424SOL    HW286047   2.026   8.222  13.037
61425SOL     OW86048  14.573  13.217  13.663
61425SOL    HW186049  14.597  13.277  13.592
61425SOL    HW286050  14.613  13.254  13.741
61426SOL     OW86051   4.554  12.203   8.309
61426SOL    HW186052   4.526  12.137   8.372
61426SOL    HW286053   4.643  12.226   8.335
61427SOL     OW86054   6.610  12.415  12.963
61427SOL    HW186055   6.681  12.354  12.982
61427SOL    HW286056   6.535  12.379  13.011
61428SOL     OW86057   2.067  10.431  11.988
61428SOL    HW186058   2.111  10.413  11.905
61428SOL    HW286059   2.107  10.511  12.021
61429SOL     OW86060  11.247   0.421   7.625
61429SOL    HW186061  11.230   0.395   7.534
61429SOL    HW286062  11.205   0.353   7.678
61430SOL     OW86063   2.540  10.629   6.819
61430SOL    HW186064   2.447  10.609   6.827
61430SOL    HW286065   2.556  10.696   6.885
61431SOL     OW86066   4.046   4.401   7.821
61431SOL    HW186067   3.996   4.483   7.819
61431SOL    HW286068   4.137   4.428   7.805
61432SOL     OW86069   1.163  10.046   2.543
61432SOL    HW186070   1.161  10.136   2.511
61432SOL    HW286071   1.252  10.017   2.525
61433SOL     OW86072   4.053   7.490  13.718
61433SOL    HW186073   4.108   7.517  13.644
61433SOL    HW286074   3.964   7.491  13.684
61434SOL     OW86075   2.169  13.887  14.460
61434SOL    HW186076   2.077  13.861  14.468
61434SOL    HW286077   2.180  13.957  14.524
61435SOL     OW86078   3.118   2.259   1.064
61435SOL    HW186079   3.209   2.234   1.048
61435SOL    HW286080   3.115   2.280   1.157
61436SOL     OW86081   6.478   1.141  12.682
61436SOL    HW186082   6.471   1.224  12.730
61436SOL    HW286083   6.390   1.103  12.687
61437SOL     OW86084   4.458   9.705  10.814
61437SOL    HW186085   4.524   9.743  10.757
61437SOL    HW286086   4.506   9.677  10.892
61438SOL     OW86087   0.944   1.454   1.811
61438SOL    HW186088   0.866   1.454   1.756
61438SOL    HW286089   1.010   1.500   1.760
61439SOL     OW86090   9.953  12.761  10.529
61439SOL    HW186091   9.947  12.802  10.616
61439SOL    HW286092  10.046  12.744  10.517
61440SOL     OW86093   9.450  13.752  13.505
61440SOL    HW186094   9.356  13.754  13.485
61440SOL    HW286095   9.493  13.773  13.422
61441SOL     OW86096   6.727   4.047   2.552
61441SOL    HW186097   6.636   4.019   2.557
61441SOL    HW286098   6.727   4.138   2.580
61442SOL     OW86099   7.831  11.055   1.029
61442SOL    HW186100   7.761  10.995   1.053
61442SOL    HW286101   7.883  11.007   0.965
61443SOL     OW86102   5.238  10.832  12.637
61443SOL    HW186103   5.287  10.909  12.607
61443SOL    HW286104   5.272  10.760  12.584
61444SOL     OW86105   1.097  10.030   8.190
61444SOL    HW186106   1.012  10.072   8.177
61444SOL    HW286107   1.110   9.977   8.111
61445SOL     OW86108  13.146  12.015   8.711
61445SOL    HW186109  13.202  11.966   8.771
61445SOL    HW286110  13.168  12.107   8.726
61446SOL     OW86111   5.231   1.001   1.887
61446SOL    HW186112   5.300   1.058   1.920
61446SOL    HW286113   5.194   1.050   1.813
61447SOL     OW86114  14.307  10.961   5.207
61447SOL    HW186115  14.275  11.050   5.193
61447SOL    HW286116  14.256  10.927   5.280
61448SOL     OW86117   9.231   1.486  10.466
61448SOL    HW186118   9.269   1.560  10.513
61448SOL    HW286119   9.220   1.516  10.376
61449SOL     OW86120   4.322   9.132   9.991
61449SOL    HW186121   4.249   9.169  10.042
61449SOL    HW286122   4.395   9.130  10.052
61450SOL     OW86123   0.803  12.536  12.766
61450SOL    HW186124   0.820  12.613  12.820
61450SOL    HW286125   0.774  12.571  12.682
61451SOL     OW86126   4.063   4.442  10.865
61451SOL    HW186127   4.001   4.378  10.831
61451SOL    HW286128   4.113   4.471  10.789
61452SOL     OW86129   2.800  14.079  11.656
61452SOL    HW186130   2.738  14.097  11.727
61452SOL    HW286131   2.821  14.166  11.622
61453SOL     OW86132   9.465  11.110   5.548
61453SOL    HW186133   9.384  11.098   5.597
61453SOL    HW286134   9.441  11.166   5.474
61454SOL     OW86135  13.286   1.140   5.488
61454SOL    HW186136  13.243   1.089   5.557
61454SOL    HW286137  13.253   1.103   5.406
61455SOL     OW86138   6.191  12.012   4.552
61455SOL    HW186139   6.231  12.078   4.495
61455SOL    HW286140   6.264  11.968   4.594
61456SOL     OW86141   2.082   4.162  11.333
61456SOL    HW186142   2.128   4.246  11.331
61456SOL    HW286143   2.054   4.153  11.425
61457SOL     OW86144   8.603   3.356   1.445
61457SOL    HW186145   8.585   3.418   1.516
61457SOL    HW286146   8.580   3.403   1.365
61458SOL     OW86147   8.811   4.303   9.953
61458SOL    HW186148   8.791   4.357   9.876
61458SOL    HW286149   8.736   4.315  10.011
61459SOL     OW86150   1.498   3.913   2.929
61459SOL    HW186151   1.542   3.936   2.847
61459SOL    HW286152   1.505   3.992   2.982
61460SOL     OW86153   4.551  10.588  12.903
61460SOL    HW186154   4.626  10.638  12.870
61460SOL    HW286155   4.568  10.579  12.997
61461SOL     OW86156   2.632   3.500   8.008
61461SOL    HW186157   2.677   3.563   7.952
61461SOL    HW286158   2.666   3.518   8.096
61462SOL     OW86159  14.029  11.372   6.297
61462SOL    HW186160  14.123  11.387   6.283
61462SOL    HW286161  14.017  11.278   6.284
61463SOL     OW86162  13.259   0.826  12.607
61463SOL    HW186163  13.283   0.760  12.543
61463SOL    HW286164  13.193   0.783  12.663
61464SOL     OW86165  11.122   0.277   9.674
61464SOL    HW186166  11.197   0.334   9.687
61464SOL    HW286167  11.149   0.193   9.712
61465SOL     OW86168  12.494  13.285  11.198
61465SOL    HW186169  12.530  13.205  11.238
61465SOL    HW286170  12.500  13.270  11.104
61466SOL     OW86171   1.348  12.434   6.002
61466SOL    HW186172   1.376  12.519   5.968
61466SOL    HW286173   1.268  12.452   6.050
61467SOL     OW86174   1.738   0.604   5.001
61467SOL    HW186175   1.663   0.629   4.947
61467SOL    HW286176   1.804   0.573   4.940
61468SOL     OW86177   6.018   9.356  14.480
61468SOL    HW186178   6.111   9.352  14.503
61468SOL    HW286179   5.986   9.436  14.523
61469SOL     OW86180  10.029   6.008   3.064
61469SOL    HW186181  10.055   5.956   3.140
61469SOL    HW286182   9.995   5.945   3.001
61470SOL     OW86183   1.003   0.312   9.531
61470SOL    HW186184   1.041   0.356   9.455
61470SOL    HW286185   1.063   0.332   9.603
61471SOL     OW86186   1.612  11.104  12.550
61471SOL    HW186187   1.651  11.170  12.493
61471SOL    HW286188   1.542  11.065  12.498
61472SOL     OW86189   9.322   7.010  11.358
61472SOL    HW186190   9.391   7.060  11.403
61472SOL    HW286191   9.333   7.032  11.265
61473SOL     OW86192   5.484  10.569   3.298
61473SOL    HW186193   5.506  10.625   3.223
61473SOL    HW286194   5.568  10.550   3.339
61474SOL     OW86195  12.569   2.475   5.123
61474SOL    HW186196  12.604   2.477   5.212
61474SOL    HW286197  12.563   2.567   5.098
61475SOL     OW86198  10.627   2.865   6.919
61475SOL    HW186199  10.689   2.792   6.929
61475SOL    HW286200  10.681   2.940   6.897
61476SOL     OW86201   2.071   8.964  12.006
61476SOL    HW186202   2.000   9.027  12.022
61476SOL    HW286203   2.083   8.920  12.090
61477SOL     OW86204   5.581  11.170   5.190
61477SOL    HW186205   5.650  11.176   5.124
61477SOL    HW286206   5.584  11.254   5.236
61478SOL     OW86207   1.094   0.894   5.511
61478SOL    HW186208   1.156   0.892   5.439
61478SOL    HW286209   1.137   0.945   5.579
61479SOL     OW86210   0.862   4.044   6.230
61479SOL    HW186211   0.907   3.995   6.299
61479SOL    HW286212   0.931   4.097   6.190
61480SOL     OW86213   1.208   2.156   8.574
61480SOL    HW186214   1.136   2.193   8.625
61480SOL    HW286215   1.250   2.093   8.633
61481SOL     OW86216   6.440   1.784  12.142
61481SOL    HW186217   6.426   1.873  12.110
61481SOL    HW286218   6.458   1.795  12.236
61482SOL     OW86219  10.568  10.704   9.933
61482SOL    HW186220  10.637  10.681   9.996
61482SOL    HW286221  10.567  10.631   9.871
61483SOL     OW86222  14.843  14.814  11.632
61483SOL    HW186223  14.846  14.736  11.578
61483SOL    HW286224  14.788  14.790  11.707
61484SOL     OW86225  10.057  10.636   3.353
61484SOL    HW186226  10.061  10.636   3.449
61484SOL    HW286227   9.964  10.628   3.333
61485SOL     OW86228  11.065  12.418   3.052
61485SOL    HW186229  10.993  12.466   3.093
61485SOL    HW286230  11.089  12.352   3.117
61486SOL     OW86231  14.821  10.904  10.249
61486SOL    HW186232  14.862  10.990  10.259
61486SOL    HW286233  14.792  10.882  10.338
61487SOL     OW86234   4.387   9.774  14.858
61487SOL    HW186235   4.306   9.798   0.024
61487SOL    HW286236   4.446   9.746   0.050
61488SOL     OW86237   0.043  14.810   6.461
61488SOL    HW186238   0.033  14.823   6.367
61488SOL    HW286239   0.126  14.852   6.482
61489SOL     OW86240   1.547   8.202   4.460
61489SOL    HW186241   1.606   8.137   4.423
61489SOL    HW286242   1.538   8.269   4.392
61490SOL     OW86243  10.038   2.425   2.094
61490SOL    HW186244   9.997   2.388   2.172
61490SOL    HW286245  10.132   2.408   2.107
61491SOL     OW86246   6.105  11.879   2.101
61491SOL    HW186247   6.144  11.847   2.183
61491SOL    HW286248   6.079  11.799   2.055
61492SOL     OW86249   2.620  10.715   2.432
61492SOL    HW186250   2.667  10.657   2.372
61492SOL    HW286251   2.681  10.731   2.504
61493SOL     OW86252  14.510   3.905   4.165
61493SOL    HW186253  14.455   3.899   4.243
61493SOL    HW286254  14.599   3.891   4.197
61494SOL     OW86255   8.023   6.320   7.926
61494SOL    HW186256   8.105   6.359   7.956
61494SOL    HW286257   7.956   6.385   7.947
61495SOL     OW86258   2.863   6.761   8.619
61495SOL    HW186259   2.873   6.728   8.708
61495SOL    HW286260   2.912   6.843   8.618
61496SOL     OW86261  11.261   1.989   2.256
61496SOL    HW186262  11.282   1.896   2.266
61496SOL    HW286263  11.345   2.031   2.237
61497SOL     OW86264  13.424   2.872   4.432
61497SOL    HW186265  13.459   2.878   4.343
61497SOL    HW286266  13.387   2.958   4.450
61498SOL     OW86267   6.523  10.519   8.704
61498SOL    HW186268   6.476  10.484   8.780
61498SOL    HW286269   6.454  10.549   8.645
61499SOL     OW86270   3.064   4.316   1.251
61499SOL    HW186271   2.989   4.259   1.269
61499SOL    HW286272   3.047   4.395   1.302
61500SOL     OW86273  13.316  13.220   7.662
61500SOL    HW186274  13.254  13.253   7.596
61500SOL    HW286275  13.400  13.261   7.638
61501SOL     OW86276   9.375   7.103   1.305
61501SOL    HW186277   9.373   7.054   1.387
61501SOL    HW286278   9.353   7.193   1.331
61502SOL     OW86279   9.616   1.559   6.807
61502SOL    HW186280   9.656   1.523   6.886
61502SOL    HW286281   9.689   1.587   6.753
61503SOL     OW86282   0.762   5.641   8.984
61503SOL    HW186283   0.796   5.704   9.048
61503SOL    HW286284   0.726   5.695   8.914
61504SOL     OW86285   6.421   6.082  13.132
61504SOL    HW186286   6.429   6.017  13.063
61504SOL    HW286287   6.486   6.149  13.110
61505SOL     OW86288   7.814   2.430   2.494
61505SOL    HW186289   7.866   2.395   2.423
61505SOL    HW286290   7.873   2.491   2.540
61506SOL     OW86291   0.043   4.687   3.602
61506SOL    HW186292   0.015   4.595   3.599
61506SOL    HW286293   0.134   4.685   3.572
61507SOL     OW86294  10.210   7.329   6.812
61507SOL    HW186295  10.220   7.423   6.824
61507SOL    HW286296  10.251   7.311   6.727
61508SOL     OW86297  10.816   8.978  10.577
61508SOL    HW186298  10.818   8.985  10.482
61508SOL    HW286299  10.727   8.949  10.598
61509SOL     OW86300   4.295  12.473   1.214
61509SOL    HW186301   4.311  12.413   1.140
61509SOL    HW286302   4.270  12.415   1.286
61510SOL     OW86303  11.765   2.399   9.192
61510SOL    HW186304  11.741   2.319   9.238
61510SOL    HW286305  11.771   2.373   9.100
61511SOL     OW86306   8.847   1.738  11.443
61511SOL    HW186307   8.853   1.697  11.357
61511SOL    HW286308   8.837   1.832  11.423
61512SOL     OW86309   4.567   8.083   4.711
61512SOL    HW186310   4.607   8.063   4.626
61512SOL    HW286311   4.534   8.172   4.701
61513SOL     OW86312  10.986   7.445   5.791
61513SOL    HW186313  11.007   7.524   5.742
61513SOL    HW286314  10.909   7.469   5.844
61514SOL     OW86315   2.389   4.207  11.470
61514SOL    HW186316   2.481   4.202  11.444
61514SOL    HW286317   2.366   4.299  11.460
61515SOL     OW86318  11.340   2.230   8.658
61515SOL    HW186319  11.312   2.187   8.739
61515SOL    HW286320  11.435   2.223   8.659
61516SOL     OW86321   9.788   2.623  13.070
61516SOL    HW186322   9.722   2.558  13.094
61516SOL    HW286323   9.763   2.702  13.117
61517SOL     OW86324   0.080   9.231  10.372
61517SOL    HW186325   0.002   9.186  10.404
61517SOL    HW286326   0.049   9.281  10.296
61518SOL     OW86327   1.967   9.361   0.096
61518SOL    HW186328   2.041   9.377   0.155
61518SOL    HW286329   1.933   9.276   0.123
61519SOL     OW86330  14.411  10.775  12.364
61519SOL    HW186331  14.471  10.829  12.416
61519SOL    HW286332  14.428  10.686  12.393
61520SOL     OW86333   7.412   6.830   8.612
61520SOL    HW186334   7.448   6.791   8.691
61520SOL    HW286335   7.487   6.868   8.567
61521SOL     OW86336  10.171   6.455  11.333
61521SOL    HW186337  10.241   6.477  11.272
61521SOL    HW286338  10.130   6.377  11.296
61522SOL     OW86339  10.114   0.421  10.899
61522SOL    HW186340  10.161   0.406  10.817
61522SOL    HW286341  10.124   0.515  10.916
61523SOL     OW86342   7.796   3.570   8.494
61523SOL    HW186343   7.809   3.646   8.437
61523SOL    HW286344   7.833   3.597   8.578
61524SOL     OW86345  13.404   8.722   0.300
61524SOL    HW186346  13.484   8.687   0.260
61524SOL    HW286347  13.421   8.720   0.394
61525SOL     OW86348   9.050   4.006  14.302
61525SOL    HW186349   9.113   4.014  14.231
61525SOL    HW286350   9.009   3.921  14.289
61526SOL     OW86351   4.125   3.026  12.642
61526SOL    HW186352   4.112   2.963  12.713
61526SOL    HW286353   4.155   3.105  12.685
61527SOL     OW86354   8.746   9.142   6.059
61527SOL    HW186355   8.787   9.186   5.984
61527SOL    HW286356   8.681   9.084   6.020
61528SOL     OW86357   8.721  14.457   9.429
61528SOL    HW186358   8.778  14.382   9.446
61528SOL    HW286359   8.632  14.422   9.437
61529SOL     OW86360  11.007   2.508  14.472
61529SOL    HW186361  11.077   2.568  14.502
61529SOL    HW286362  10.936   2.523  14.534
61530SOL     OW86363  12.172  13.854  13.367
61530SOL    HW186364  12.088  13.842  13.322
61530SOL    HW286365  12.168  13.941  13.405
61531SOL     OW86366   7.430  13.311   9.506
61531SOL    HW186367   7.470  13.370   9.443
61531SOL    HW286368   7.381  13.368   9.565
61532SOL     OW86369   3.321   5.469   1.783
61532SOL    HW186370   3.370   5.435   1.857
61532SOL    HW286371   3.382   5.464   1.709
61533SOL     OW86372  13.742   9.191  11.049
61533SOL    HW186373  13.741   9.109  11.097
61533SOL    HW286374  13.659   9.234  11.071
61534SOL     OW86375   5.596  13.462  14.703
61534SOL    HW186376   5.592  13.367  14.713
61534SOL    HW286377   5.526  13.484  14.642
61535SOL     OW86378   0.708   7.914   4.938
61535SOL    HW186379   0.786   7.966   4.960
61535SOL    HW286380   0.647   7.931   5.010
61536SOL     OW86381   9.437   3.830  10.888
61536SOL    HW186382   9.383   3.835  10.809
61536SOL    HW286383   9.462   3.921  10.905
61537SOL     OW86384  11.417   2.892   4.445
61537SOL    HW186385  11.458   2.882   4.531
61537SOL    HW286386  11.484   2.933   4.390
61538SOL     OW86387  11.509  14.574   1.662
61538SOL    HW186388  11.590  14.577   1.610
61538SOL    HW286389  11.447  14.627   1.612
61539SOL     OW86390   1.319   9.077   6.228
61539SOL    HW186391   1.324   9.151   6.168
61539SOL    HW286392   1.333   9.000   6.173
61540SOL     OW86393   7.258  14.410   3.015
61540SOL    HW186394   7.298  14.497   3.020
61540SOL    HW286395   7.164  14.427   3.008
61541SOL     OW86396   7.521   7.723   7.450
61541SOL    HW186397   7.604   7.765   7.427
61541SOL    HW286398   7.508   7.658   7.381
61542SOL     OW86399   2.121  13.948   8.305
61542SOL    HW186400   2.189  13.928   8.241
61542SOL    HW286401   2.156  13.918   8.388
61543SOL     OW86402   1.112   4.361   2.950
61543SOL    HW186403   1.103   4.375   3.044
61543SOL    HW286404   1.023   4.343   2.920
61544SOL     OW86405   4.980   5.707   7.302
61544SOL    HW186406   5.057   5.750   7.264
61544SOL    HW286407   4.942   5.774   7.360
61545SOL     OW86408  13.579   4.643  13.325
61545SOL    HW186409  13.509   4.586  13.293
61545SOL    HW286410  13.652   4.627  13.266
61546SOL     OW86411   7.219   9.045   7.079
61546SOL    HW186412   7.161   8.969   7.072
61546SOL    HW286413   7.284   9.031   7.011
61547SOL     OW86414   6.758  12.104   3.957
61547SOL    HW186415   6.694  12.036   3.938
61547SOL    HW286416   6.841  12.057   3.967
61548SOL     OW86417   9.441  12.385   9.200
61548SOL    HW186418   9.460  12.315   9.263
61548SOL    HW286419   9.403  12.455   9.253
61549SOL     OW86420  13.952  14.392  13.665
61549SOL    HW186421  13.887  14.325  13.644
61549SOL    HW286422  14.022  14.345  13.710
61550SOL     OW86423   6.814   2.898   9.276
61550SOL    HW186424   6.724   2.886   9.245
61550SOL    HW286425   6.814   2.862   9.364
61551SOL     OW86426   8.157   2.247   9.392
61551SOL    HW186427   8.086   2.222   9.333
61551SOL    HW286428   8.181   2.167   9.437
61552SOL     OW86429   3.605   7.528   7.206
61552SOL    HW186430   3.554   7.483   7.274
61552SOL    HW286431   3.693   7.491   7.215
61553SOL     OW86432  14.176  13.617  12.326
61553SOL    HW186433  14.083  13.638  12.333
61553SOL    HW286434  14.210  13.630  12.414
61554SOL     OW86435  13.099   7.888   3.697
61554SOL    HW186436  13.122   7.824   3.764
61554SOL    HW286437  13.113   7.973   3.739
61555SOL     OW86438   5.740  14.374  12.976
61555SOL    HW186439   5.759  14.447  12.917
61555SOL    HW286440   5.790  14.301  12.940
61556SOL     OW86441   8.992   3.035  11.337
61556SOL    HW186442   8.987   2.983  11.257
61556SOL    HW286443   8.986   3.126  11.308
61557SOL     OW86444   6.678   2.973   6.396
61557SOL    HW186445   6.699   3.018   6.314
61557SOL    HW286446   6.642   3.041   6.453
61558SOL     OW86447   3.388   0.541  11.888
61558SOL    HW186448   3.364   0.537  11.795
61558SOL    HW286449   3.431   0.626  11.898
61559SOL     OW86450   8.780   6.810   0.526
61559SOL    HW186451   8.719   6.753   0.573
61559SOL    HW286452   8.856   6.754   0.509
61560SOL     OW86453  13.113  10.905   4.961
61560SOL    HW186454  13.033  10.918   5.012
61560SOL    HW286455  13.100  10.956   4.881
61561SOL     OW86456   9.768  10.450   8.479
61561SOL    HW186457   9.796  10.418   8.565
61561SOL    HW286458   9.723  10.533   8.498
61562SOL     OW86459   9.700   9.557  12.862
61562SOL    HW186460   9.622   9.598  12.900
61562SOL    HW286461   9.772   9.585  12.919
61563SOL     OW86462   9.282   1.528   9.095
61563SOL    HW186463   9.280   1.539   9.000
61563SOL    HW286464   9.201   1.569   9.126
61564SOL     OW86465   5.854   2.878  12.317
61564SOL    HW186466   5.917   2.873  12.389
61564SOL    HW286467   5.794   2.948  12.344
61565SOL     OW86468   7.301   3.890   4.104
61565SOL    HW186469   7.349   3.901   4.022
61565SOL    HW286470   7.364   3.851   4.164
61566SOL     OW86471   5.435  10.715  10.791
61566SOL    HW186472   5.423  10.751  10.879
61566SOL    HW286473   5.434  10.620  10.804
61567SOL     OW86474  14.594   7.780   7.512
61567SOL    HW186475  14.557   7.782   7.423
61567SOL    HW286476  14.519   7.793   7.570
61568SOL     OW86477   4.891  13.433  12.996
61568SOL    HW186478   4.857  13.415  13.084
61568SOL    HW286479   4.907  13.347  12.958
61569SOL     OW86480   5.885  14.596   7.507
61569SOL    HW186481   5.897  14.522   7.448
61569SOL    HW286482   5.799  14.631   7.485
61570SOL     OW86483   0.236   8.778  10.191
61570SOL    HW186484   0.263   8.702  10.242
61570SOL    HW286485   0.279   8.767  10.106
61571SOL     OW86486   0.646   6.564   1.414
61571SOL    HW186487   0.591   6.640   1.392
61571SOL    HW286488   0.608   6.529   1.495
61572SOL     OW86489   7.244   0.855   6.703
61572SOL    HW186490   7.189   0.934   6.704
61572SOL    HW286491   7.243   0.824   6.793
61573SOL     OW86492   3.775  12.111   0.995
61573SOL    HW186493   3.870  12.113   1.012
61573SOL    HW286494   3.747  12.201   1.007
61574SOL     OW86495   7.558   2.844   4.645
61574SOL    HW186496   7.629   2.869   4.703
61574SOL    HW286497   7.583   2.879   4.560
61575SOL     OW86498   5.576   2.448   5.019
61575SOL    HW186499   5.546   2.519   5.076
61575SOL    HW286500   5.613   2.493   4.943
61576SOL     OW86501   5.355   4.531  11.559
61576SOL    HW186502   5.409   4.610  11.567
61576SOL    HW286503   5.333   4.508  11.649
61577SOL     OW86504   9.427  12.340   3.359
61577SOL    HW186505   9.343  12.373   3.390
61577SOL    HW286506   9.438  12.256   3.403
61578SOL     OW86507  13.427   9.266   2.856
61578SOL    HW186508  13.476   9.188   2.882
61578SOL    HW286509  13.386   9.297   2.937
61579SOL     OW86510  11.124   4.552  12.739
61579SOL    HW186511  11.075   4.584  12.664
61579SOL    HW286512  11.213   4.540  12.707
61580SOL     OW86513   8.562   6.429  13.000
61580SOL    HW186514   8.602   6.495  13.056
61580SOL    HW286515   8.482   6.403  13.046
61581SOL     OW86516   1.333  12.783   8.838
61581SOL    HW186517   1.409  12.725   8.839
61581SOL    HW286518   1.353  12.850   8.904
61582SOL     OW86519   3.758  11.021   0.404
61582SOL    HW186520   3.715  10.942   0.372
61582SOL    HW286521   3.687  11.072   0.443
61583SOL     OW86522  14.501   4.948   9.265
61583SOL    HW186523  14.479   4.863   9.302
61583SOL    HW286524  14.593   4.961   9.288
61584SOL     OW86525   2.420   8.889  10.095
61584SOL    HW186526   2.374   8.970  10.075
61584SOL    HW286527   2.353   8.832  10.132
61585SOL     OW86528   1.928   2.372   1.209
61585SOL    HW186529   1.857   2.437   1.210
61585SOL    HW286530   1.987   2.400   1.279
61586SOL     OW86531  11.735   4.930   0.598
61586SOL    HW186532  11.800   4.978   0.650
61586SOL    HW286533  11.701   4.863   0.658
61587SOL     OW86534  14.814   7.054   7.935
61587SOL    HW186535  14.764   7.033   7.856
61587SOL    HW286536  14.765   7.124   7.977
61588SOL     OW86537   2.416   7.004   7.073
61588SOL    HW186538   2.447   6.991   7.162
61588SOL    HW286539   2.321   7.001   7.080
61589SOL     OW86540   5.204   6.010   6.644
61589SOL    HW186541   5.271   6.078   6.634
61589SOL    HW286542   5.128   6.055   6.679
61590SOL     OW86543   8.193  11.672   8.339
61590SOL    HW186544   8.236  11.719   8.267
61590SOL    HW286545   8.178  11.584   8.304
61591SOL     OW86546   5.318  10.224   0.412
61591SOL    HW186547   5.366  10.230   0.494
61591SOL    HW286548   5.277  10.138   0.414
61592SOL     OW86549   6.962   0.304   1.454
61592SOL    HW186550   6.883   0.303   1.508
61592SOL    HW286551   7.031   0.270   1.511
61593SOL     OW86552   9.401   9.137  10.310
61593SOL    HW186553   9.465   9.067  10.298
61593SOL    HW286554   9.454   9.214  10.330
61594SOL     OW86555   4.892   2.019   8.906
61594SOL    HW186556   4.863   1.988   8.820
61594SOL    HW286557   4.821   2.074   8.937
61595SOL     OW86558   5.330   5.771   1.323
61595SOL    HW186559   5.288   5.732   1.399
61595SOL    HW286560   5.422   5.745   1.330
61596SOL     OW86561   7.551  12.595  13.411
61596SOL    HW186562   7.593  12.587  13.326
61596SOL    HW286563   7.618  12.634  13.467
61597SOL     OW86564  13.676   3.640   2.522
61597SOL    HW186565  13.647   3.625   2.612
61597SOL    HW286566  13.614   3.590   2.469
61598SOL     OW86567   1.222   7.297   0.869
61598SOL    HW186568   1.133   7.303   0.904
61598SOL    HW286569   1.210   7.288   0.775
61599SOL     OW86570   5.300   9.225   1.115
61599SOL    HW186571   5.390   9.252   1.098
61599SOL    HW286572   5.266   9.200   1.030
61600SOL     OW86573  11.015  11.976   6.792
61600SOL    HW186574  10.921  11.990   6.779
61600SOL    HW286575  11.041  11.917   6.722
61601SOL     OW86576  10.066   3.014  11.159
61601SOL    HW186577   9.995   2.950  11.164
61601SOL    HW286578  10.135   2.978  11.214
61602SOL     OW86579   9.257   7.757   2.145
61602SOL    HW186580   9.204   7.694   2.193
61602SOL    HW286581   9.195   7.825   2.119
61603SOL     OW86582   2.437   6.331  14.056
61603SOL    HW186583   2.463   6.332  14.148
61603SOL    HW286584   2.420   6.239  14.037
61604SOL     OW86585  10.399   2.843  12.465
61604SOL    HW186586  10.311   2.852  12.429
61604SOL    HW286587  10.404   2.752  12.494
61605SOL     OW86588  10.046   7.918   0.337
61605SOL    HW186589  10.112   7.869   0.387
61605SOL    HW286590  10.043   7.874   0.252
61606SOL     OW86591   5.422  11.059   3.892
61606SOL    HW186592   5.470  10.991   3.940
61606SOL    HW286593   5.375  11.012   3.824
61607SOL     OW86594   6.797  14.568  10.535
61607SOL    HW186595   6.833  14.488  10.575
61607SOL    HW286596   6.795  14.631  10.606
61608SOL     OW86597   7.368   2.453   8.852
61608SOL    HW186598   7.328   2.370   8.879
61608SOL    HW286599   7.330   2.518   8.911
61609SOL     OW86600  10.427   4.939   7.465
61609SOL    HW186601  10.452   4.863   7.413
61609SOL    HW286602  10.489   5.008   7.440
61610SOL     OW86603   9.102   2.017   8.415
61610SOL    HW186604   9.096   2.102   8.459
61610SOL    HW286605   9.119   2.038   8.324
61611SOL     OW86606  12.179   3.138   9.302
61611SOL    HW186607  12.205   3.051   9.273
61611SOL    HW286608  12.098   3.156   9.254
61612SOL     OW86609  10.435   7.530  11.919
61612SOL    HW186610  10.343   7.508  11.935
61612SOL    HW286611  10.445   7.521  11.824
61613SOL     OW86612   8.836   6.569  11.423
61613SOL    HW186613   8.793   6.655  11.425
61613SOL    HW286614   8.770   6.508  11.453
61614SOL     OW86615   6.109   1.065  11.376
61614SOL    HW186616   6.186   1.098  11.421
61614SOL    HW286617   6.061   1.016  11.443
61615SOL     OW86618   7.503   5.601   7.494
61615SOL    HW186619   7.467   5.585   7.581
61615SOL    HW286620   7.457   5.679   7.463
61616SOL     OW86621   4.212   1.105  14.055
61616SOL    HW186622   4.146   1.161  14.014
61616SOL    HW286623   4.259   1.066  13.981
61617SOL     OW86624  13.802   1.053   2.935
61617SOL    HW186625  13.808   1.051   3.030
61617SOL    HW286626  13.722   1.103   2.917
61618SOL     OW86627   3.704   6.425  13.578
61618SOL    HW186628   3.725   6.350  13.522
61618SOL    HW286629   3.717   6.392  13.668
61619SOL     OW86630  10.447   7.670   7.241
61619SOL    HW186631  10.484   7.598   7.294
61619SOL    HW286632  10.387   7.714   7.300
61620SOL     OW86633  14.606   9.766   4.348
61620SOL    HW186634  14.624   9.672   4.355
61620SOL    HW286635  14.557   9.787   4.428
61621SOL     OW86636   9.054   3.424  11.774
61621SOL    HW186637   9.063   3.400  11.867
61621SOL    HW286638   9.128   3.380  11.731
61622SOL     OW86639  12.959   4.740   5.538
61622SOL    HW186640  12.960   4.816   5.597
61622SOL    HW286641  12.871   4.704   5.546
61623SOL     OW86642  12.953   7.759   7.737
61623SOL    HW186643  12.932   7.679   7.689
61623SOL    HW286644  13.010   7.729   7.808
61624SOL     OW86645   0.348  12.594   4.999
61624SOL    HW186646   0.303  12.660   4.946
61624SOL    HW286647   0.420  12.642   5.039
61625SOL     OW86648   6.835   1.713   1.378
61625SOL    HW186649   6.771   1.648   1.407
61625SOL    HW286650   6.813   1.792   1.428
61626SOL     OW86651   4.582   9.166   2.101
61626SOL    HW186652   4.673   9.141   2.082
61626SOL    HW286653   4.540   9.083   2.125
61627SOL     OW86654  10.819   0.113   6.875
61627SOL    HW186655  10.875   0.128   6.798
61627SOL    HW286656  10.740   0.074   6.839
61628SOL     OW86657   8.348  12.240  13.755
61628SOL    HW186658   8.327  12.150  13.778
61628SOL    HW286659   8.275  12.268  13.699
61629SOL     OW86660   8.039   7.064   9.295
61629SOL    HW186661   8.117   7.017   9.265
61629SOL    HW286662   7.999   7.097   9.214
61630SOL     OW86663  10.660  14.192   2.197
61630SOL    HW186664  10.581  14.162   2.242
61630SOL    HW286665  10.728  14.189   2.264
61631SOL     OW86666   9.559   0.556  14.308
61631SOL    HW186667   9.609   0.622  14.356
61631SOL    HW286668   9.596   0.557  14.220
61632SOL     OW86669   2.315   9.309   2.145
61632SOL    HW186670   2.395   9.262   2.170
61632SOL    HW286671   2.298   9.279   2.055
61633SOL     OW86672  12.301  14.620  11.807
61633SOL    HW186673  12.284  14.701  11.758
61633SOL    HW286674  12.309  14.648  11.898
61634SOL     OW86675   1.762   9.217   9.713
61634SOL    HW186676   1.788   9.267   9.790
61634SOL    HW286677   1.671   9.243   9.696
61635SOL     OW86678  13.459   6.132  13.103
61635SOL    HW186679  13.493   6.193  13.037
61635SOL    HW286680  13.529   6.067  13.113
61636SOL     OW86681   1.228   8.638   6.936
61636SOL    HW186682   1.179   8.569   6.981
61636SOL    HW286683   1.320   8.621   6.958
61637SOL     OW86684   9.126   1.349   9.849
61637SOL    HW186685   9.110   1.280   9.785
61637SOL    HW286686   9.096   1.313   9.932
61638SOL     OW86687   4.521  14.218  13.642
61638SOL    HW186688   4.539  14.214  13.548
61638SOL    HW286689   4.431  14.250  13.648
61639SOL     OW86690  14.255   0.365   6.465
61639SOL    HW186691  14.166   0.390   6.443
61639SOL    HW286692  14.277   0.296   6.402
61640SOL     OW86693  13.396  13.716   4.432
61640SOL    HW186694  13.473  13.731   4.377
61640SOL    HW286695  13.403  13.779   4.503
61641SOL     OW86696   4.472  14.711   3.877
61641SOL    HW186697   4.530  14.665   3.938
61641SOL    HW286698   4.402  14.649   3.858
61642SOL     OW86699   3.848  10.333   2.735
61642SOL    HW186700   3.864  10.292   2.650
61642SOL    HW286701   3.793  10.408   2.716
61643SOL     OW86702   0.645  11.660  12.220
61643SOL    HW186703   0.652  11.668  12.315
61643SOL    HW286704   0.594  11.737  12.194
61644SOL     OW86705   4.505   0.950   4.385
61644SOL    HW186706   4.561   0.899   4.327
61644SOL    HW286707   4.464   1.015   4.328
61645SOL     OW86708  11.703   6.663   4.900
61645SOL    HW186709  11.614   6.659   4.936
61645SOL    HW286710  11.757   6.693   4.972
61646SOL     OW86711   8.745   3.533   5.311
61646SOL    HW186712   8.834   3.506   5.290
61646SOL    HW286713   8.753   3.626   5.334
61647SOL     OW86714  13.619   1.909  14.735
61647SOL    HW186715  13.608   1.897  14.641
61647SOL    HW286716  13.668   1.832  14.764
61648SOL     OW86717  11.602   2.621   8.928
61648SOL    HW186718  11.649   2.669   8.996
61648SOL    HW286719  11.635   2.656   8.845
61649SOL     OW86720   1.337  10.647   6.933
61649SOL    HW186721   1.317  10.740   6.922
61649SOL    HW286722   1.325  10.630   7.026
61650SOL     OW86723   2.815  14.252   9.063
61650SOL    HW186724   2.855  14.221   9.145
61650SOL    HW286725   2.888  14.285   9.011
61651SOL     OW86726   8.665  13.868  11.597
61651SOL    HW186727   8.744  13.906  11.559
61651SOL    HW286728   8.609  13.847  11.522
61652SOL     OW86729  14.357   2.676   8.098
61652SOL    HW186730  14.347   2.758   8.051
61652SOL    HW286731  14.450   2.672   8.119
61653SOL     OW86732  12.702   7.489   8.485
61653SOL    HW186733  12.725   7.437   8.562
61653SOL    HW286734  12.607   7.501   8.491
61654SOL     OW86735  12.838   5.868   0.985
61654SOL    HW186736  12.907   5.935   0.979
61654SOL    HW286737  12.882   5.786   0.965
61655SOL     OW86738   6.489   5.307  13.650
61655SOL    HW186739   6.406   5.261  13.637
61655SOL    HW286740   6.477   5.355  13.732
61656SOL     OW86741  13.540   6.327   5.072
61656SOL    HW186742  13.484   6.328   5.149
61656SOL    HW286743  13.548   6.234   5.048
61657SOL     OW86744  12.256  11.217  10.947
61657SOL    HW186745  12.238  11.285  10.882
61657SOL    HW286746  12.176  11.165  10.949
61658SOL     OW86747  14.535  13.266   6.482
61658SOL    HW186748  14.608  13.208   6.458
61658SOL    HW286749  14.465  13.207   6.509
61659SOL     OW86750   8.096   6.220  10.159
61659SOL    HW186751   8.178   6.253  10.122
61659SOL    HW286752   8.029   6.245  10.096
61660SOL     OW86753  10.756  14.402   3.253
61660SOL    HW186754  10.736  14.314   3.221
61660SOL    HW286755  10.754  14.394   3.348
61661SOL     OW86756  12.064   5.898  14.761
61661SOL    HW186757  12.136   5.935  14.812
61661SOL    HW286758  11.990   5.957  14.779
61662SOL     OW86759   6.960   9.998   3.113
61662SOL    HW186760   6.955  10.031   3.203
61662SOL    HW286761   7.032  10.048   3.074
61663SOL     OW86762  11.300   1.245   8.593
61663SOL    HW186763  11.213   1.228   8.557
61663SOL    HW286764  11.358   1.237   8.517
61664SOL     OW86765   2.148   5.723   2.805
61664SOL    HW186766   2.142   5.776   2.884
61664SOL    HW286767   2.241   5.725   2.782
61665SOL     OW86768  11.780   9.992  13.626
61665SOL    HW186769  11.792   9.907  13.582
61665SOL    HW286770  11.724   9.971  13.701
61666SOL     OW86771  14.324  10.870   6.730
61666SOL    HW186772  14.257  10.936   6.750
61666SOL    HW286773  14.296  10.833   6.646
61667SOL     OW86774   6.070  11.532  12.623
61667SOL    HW186775   6.156  11.572  12.637
61667SOL    HW286776   6.018  11.601  12.580
61668SOL     OW86777  11.699   1.009   3.311
61668SOL    HW186778  11.637   1.063   3.360
61668SOL    HW286779  11.656   0.993   3.227
61669SOL     OW86780   3.990   6.333  12.511
61669SOL    HW186781   3.929   6.278  12.461
61669SOL    HW286782   3.939   6.408  12.538
61670SOL     OW86783  14.655   0.818  13.271
61670SOL    HW186784  14.677   0.725  13.269
61670SOL    HW286785  14.575   0.823  13.323
61671SOL     OW86786  12.319   2.516   1.604
61671SOL    HW186787  12.389   2.575   1.631
61671SOL    HW286788  12.238   2.564   1.622
61672SOL     OW86789   2.295   2.633  13.783
61672SOL    HW186790   2.299   2.545  13.820
61672SOL    HW286791   2.243   2.683  13.846
61673SOL     OW86792  13.012   3.040  11.441
61673SOL    HW186793  13.105   3.030  11.421
61673SOL    HW286794  13.010   3.112  11.504
61674SOL     OW86795   1.197   6.391   7.414
61674SOL    HW186796   1.203   6.469   7.359
61674SOL    HW286797   1.236   6.418   7.497
61675SOL     OW86798   3.229   4.277   9.764
61675SOL    HW186799   3.293   4.214   9.797
61675SOL    HW286800   3.281   4.351   9.733
61676SOL     OW86801   1.307   3.762  13.941
61676SOL    HW186802   1.402   3.762  13.944
61676SOL    HW286803   1.280   3.731  14.027
61677SOL     OW86804   6.916  14.390   5.028
61677SOL    HW186805   6.975  14.447   4.978
61677SOL    HW286806   6.957  14.385   5.115
61678SOL     OW86807   2.722   2.898  11.426
61678SOL    HW186808   2.647   2.944  11.387
61678SOL    HW286809   2.795   2.958  11.413
61679SOL     OW86810   5.770  13.622   6.434
61679SOL    HW186811   5.804  13.534   6.423
61679SOL    HW286812   5.750  13.629   6.528
61680SOL     OW86813   5.793  11.772  10.859
61680SOL    HW186814   5.806  11.695  10.803
61680SOL    HW286815   5.744  11.833  10.804
61681SOL     OW86816  13.475  13.531   3.476
61681SOL    HW186817  13.428  13.483   3.544
61681SOL    HW286818  13.412  13.540   3.405
61682SOL     OW86819   7.011   7.643   2.937
61682SOL    HW186820   7.001   7.574   2.871
61682SOL    HW286821   7.104   7.665   2.935
61683SOL     OW86822   8.229   2.542  12.797
61683SOL    HW186823   8.294   2.603  12.761
61683SOL    HW286824   8.210   2.577  12.884
61684SOL     OW86825  13.093   2.911   4.176
61684SOL    HW186826  13.174   2.874   4.139
61684SOL    HW286827  13.026   2.889   4.112
61685SOL     OW86828  12.401   7.693  12.216
61685SOL    HW186829  12.458   7.716  12.142
61685SOL    HW286830  12.394   7.598  12.213
61686SOL     OW86831   6.424  14.660   3.025
61686SOL    HW186832   6.343  14.622   3.058
61686SOL    HW286833   6.415  14.655   2.929
61687SOL     OW86834   8.612   1.912   9.726
61687SOL    HW186835   8.634   2.004   9.719
61687SOL    HW286836   8.681   1.866   9.678
61688SOL     OW86837   5.808  10.795  12.292
61688SOL    HW186838   5.754  10.824  12.218
61688SOL    HW286839   5.851  10.875  12.323
61689SOL     OW86840   5.870   1.787  13.179
61689SOL    HW186841   5.804   1.812  13.244
61689SOL    HW286842   5.952   1.822  13.214
61690SOL     OW86843   4.358  11.730   2.327
61690SOL    HW186844   4.375  11.792   2.398
61690SOL    HW286845   4.431  11.668   2.331
61691SOL     OW86846  12.503  12.682  11.689
61691SOL    HW186847  12.516  12.605  11.634
61691SOL    HW286848  12.512  12.650  11.779
61692SOL     OW86849   3.247  11.455   1.981
61692SOL    HW186850   3.255  11.396   1.906
61692SOL    HW286851   3.336  11.465   2.013
61693SOL     OW86852  12.323   9.167   8.137
61693SOL    HW186853  12.252   9.103   8.138
61693SOL    HW286854  12.283   9.246   8.100
61694SOL     OW86855   7.318   2.226   3.486
61694SOL    HW186856   7.380   2.296   3.465
61694SOL    HW286857   7.359   2.146   3.454
61695SOL     OW86858   1.322   9.535   0.984
61695SOL    HW186859   1.280   9.608   1.030
61695SOL    HW286860   1.258   9.509   0.918
61696SOL     OW86861   8.822   5.665  14.015
61696SOL    HW186862   8.909   5.698  13.992
61696SOL    HW286863   8.838   5.575  14.044
61697SOL     OW86864   6.696   4.500   5.210
61697SOL    HW186865   6.684   4.533   5.121
61697SOL    HW286866   6.790   4.484   5.217
61698SOL     OW86867   4.467  12.285   7.550
61698SOL    HW186868   4.484  12.374   7.520
61698SOL    HW286869   4.554  12.248   7.566
61699SOL     OW86870   3.947   9.995   4.062
61699SOL    HW186871   4.039  10.012   4.082
61699SOL    HW286872   3.946   9.971   3.970
61700SOL     OW86873   1.096  10.689   0.775
61700SOL    HW186874   1.016  10.675   0.826
61700SOL    HW286875   1.166  10.691   0.840
61701SOL     OW86876   3.937   3.468   8.948
61701SOL    HW186877   3.903   3.384   8.977
61701SOL    HW286878   3.922   3.527   9.023
61702SOL     OW86879   4.142  10.009  10.181
61702SOL    HW186880   4.087   9.939  10.214
61702SOL    HW286881   4.227   9.968  10.167
61703SOL     OW86882  10.510  12.004   1.879
61703SOL    HW186883  10.600  12.029   1.859
61703SOL    HW286884  10.469  11.995   1.793
61704SOL     OW86885   3.352   0.450   3.687
61704SOL    HW186886   3.422   0.405   3.640
61704SOL    HW286887   3.361   0.542   3.662
61705SOL     OW86888   3.577   5.333  10.211
61705SOL    HW186889   3.506   5.279  10.246
61705SOL    HW286890   3.650   5.272  10.200
61706SOL     OW86891  12.618  14.551  12.915
61706SOL    HW186892  12.704  14.545  12.957
61706SOL    HW286893  12.574  14.622  12.961
61707SOL     OW86894   1.831   9.654   1.812
61707SOL    HW186895   1.766   9.623   1.875
61707SOL    HW286896   1.779   9.697   1.744
61708SOL     OW86897   5.310   5.421   3.282
61708SOL    HW186898   5.223   5.460   3.269
61708SOL    HW286899   5.353   5.480   3.344
61709SOL     OW86900   2.576  14.746   2.941
61709SOL    HW186901   2.582  14.658   2.904
61709SOL    HW286902   2.512  14.791   2.887
61710SOL     OW86903   2.251   8.275   9.226
61710SOL    HW186904   2.297   8.314   9.152
61710SOL    HW286905   2.159   8.300   9.212
61711SOL     OW86906   8.746   1.291  13.253
61711SOL    HW186907   8.679   1.274  13.187
61711SOL    HW286908   8.767   1.205  13.288
61712SOL     OW86909   0.958   7.917   6.393
61712SOL    HW186910   1.021   7.851   6.423
61712SOL    HW286911   0.885   7.866   6.359
61713SOL     OW86912  14.865   8.839  11.904
61713SOL    HW186913  14.835   8.815  11.816
61713SOL    HW286914  14.850   8.933  11.909
61714SOL     OW86915  12.380   8.956   1.842
61714SOL    HW186916  12.286   8.965   1.860
61714SOL    HW286917  12.394   8.861   1.839
61715SOL     OW86918  12.852  13.705  13.350
61715SOL    HW186919  12.808  13.735  13.271
61715SOL    HW286920  12.790  13.720  13.421
61716SOL     OW86921   8.623   6.017   4.632
61716SOL    HW186922   8.711   6.049   4.655
61716SOL    HW286923   8.569   6.096   4.632
61717SOL     OW86924  10.121   1.416  14.601
61717SOL    HW186925  10.161   1.365  14.531
61717SOL    HW286926  10.030   1.424  14.576
61718SOL     OW86927  11.958   2.375   6.897
61718SOL    HW186928  11.957   2.414   6.810
61718SOL    HW286929  11.866   2.371   6.923
61719SOL     OW86930   9.119   1.905   7.038
61719SOL    HW186931   9.079   1.987   7.068
61719SOL    HW286932   9.121   1.912   6.943
61720SOL     OW86933   7.696  11.577  11.950
61720SOL    HW186934   7.616  11.530  11.925
61720SOL    HW286935   7.668  11.639  12.016
61721SOL     OW86936   0.298   8.161   1.390
61721SOL    HW186937   0.292   8.256   1.397
61721SOL    HW286938   0.225   8.136   1.333
61722SOL     OW86939  13.464   3.373  13.612
61722SOL    HW186940  13.443   3.462  13.641
61722SOL    HW286941  13.536   3.346  13.669
61723SOL     OW86942   4.577   7.159   6.489
61723SOL    HW186943   4.508   7.103   6.524
61723SOL    HW286944   4.658   7.122   6.523
61724SOL     OW86945   3.406   7.143  13.013
61724SOL    HW186946   3.429   7.092  13.091
61724SOL    HW286947   3.462   7.108  12.944
61725SOL     OW86948  14.181   3.368   4.522
61725SOL    HW186949  14.193   3.442   4.462
61725SOL    HW286950  14.262   3.364   4.572
61726SOL     OW86951  10.314   7.587   5.154
61726SOL    HW186952  10.325   7.641   5.232
61726SOL    HW286953  10.305   7.650   5.082
61727SOL     OW86954   1.341   8.072  13.398
61727SOL    HW186955   1.436   8.061  13.394
61727SOL    HW286956   1.310   8.038  13.314
61728SOL     OW86957   9.726   4.534  10.497
61728SOL    HW186958   9.630   4.528  10.501
61728SOL    HW286959   9.757   4.449  10.528
61729SOL     OW86960   6.684   9.508   9.633
61729SOL    HW186961   6.688   9.602   9.646
61729SOL    HW286962   6.661   9.496   9.541
61730SOL     OW86963   9.243  13.558  14.415
61730SOL    HW186964   9.295  13.486  14.381
61730SOL    HW286965   9.152  13.533  14.396
61731SOL     OW86966  13.380   8.087   1.343
61731SOL    HW186967  13.424   8.100   1.427
61731SOL    HW286968  13.343   7.999   1.349
61732SOL     OW86969   2.560   2.908   1.488
61732SOL    HW186970   2.595   2.982   1.537
61732SOL    HW286971   2.585   2.831   1.539
61733SOL     OW86972   4.528  13.635   3.803
61733SOL    HW186973   4.584  13.559   3.817
61733SOL    HW286974   4.482  13.646   3.887
61734SOL     OW86975  10.080  10.826   7.854
61734SOL    HW186976   9.994  10.782   7.848
61734SOL    HW286977  10.071  10.904   7.799
61735SOL     OW86978   5.941  13.808   5.916
61735SOL    HW186979   6.011  13.743   5.915
61735SOL    HW286980   5.987  13.892   5.915
61736SOL     OW86981  11.740   4.300  10.436
61736SOL    HW186982  11.718   4.211  10.408
61736SOL    HW286983  11.784   4.289  10.520
61737SOL     OW86984   2.171  11.569   5.647
61737SOL    HW186985   2.185  11.519   5.567
61737SOL    HW286986   2.216  11.519   5.715
61738SOL     OW86987   8.153   0.941   5.235
61738SOL    HW186988   8.181   0.862   5.280
61738SOL    HW286989   8.061   0.925   5.214
61739SOL     OW86990   7.892   4.543  13.543
61739SOL    HW186991   7.870   4.480  13.474
61739SOL    HW286992   7.941   4.612  13.497
61740SOL     OW86993   8.862  12.253   6.385
61740SOL    HW186994   8.875  12.201   6.305
61740SOL    HW286995   8.771  12.282   6.381
61741SOL     OW86996   3.553   1.898   2.982
61741SOL    HW186997   3.483   1.832   2.978
61741SOL    HW286998   3.625   1.854   3.028
61742SOL     OW86999  11.571   2.823   5.863
61742SOL    HW187000  11.494   2.788   5.818
61742SOL    HW287001  11.547   2.913   5.886
61743SOL     OW87002   0.072   8.578   5.180
61743SOL    HW187003   0.005   8.539   5.237
61743SOL    HW287004   0.023   8.618   5.108
61744SOL     OW87005  11.697  12.699   8.378
61744SOL    HW187006  11.759  12.627   8.386
61744SOL    HW287007  11.711  12.751   8.458
61745SOL     OW87008  11.612  11.273   4.662
61745SOL    HW187009  11.647  11.307   4.580
61745SOL    HW287010  11.689  11.250   4.714
61746SOL     OW87011   8.158   5.863   3.592
61746SOL    HW187012   8.082   5.911   3.626
61746SOL    HW287013   8.158   5.880   3.498
61747SOL     OW87014  11.095   2.283  14.047
61747SOL    HW187015  11.022   2.332  14.009
61747SOL    HW287016  11.085   2.194  14.012
61748SOL     OW87017   2.311  11.411   6.804
61748SOL    HW187018   2.283  11.387   6.715
61748SOL    HW287019   2.281  11.338   6.858
61749SOL     OW87020  10.399  10.222   9.126
61749SOL    HW187021  10.355  10.141   9.152
61749SOL    HW287022  10.424  10.208   9.035
61750SOL     OW87023  14.770   8.965   0.306
61750SOL    HW187024  14.681   8.995   0.325
61750SOL    HW287025  14.769   8.871   0.325
61751SOL     OW87026   3.153   2.588   9.546
61751SOL    HW187027   3.160   2.496   9.572
61751SOL    HW287028   3.062   2.611   9.561
61752SOL     OW87029   6.725   9.678  14.262
61752SOL    HW187030   6.779   9.660  14.185
61752SOL    HW287031   6.708   9.772  14.258
61753SOL     OW87032   4.241   4.149  12.813
61753SOL    HW187033   4.203   4.194  12.888
61753SOL    HW287034   4.325   4.116  12.844
61754SOL     OW87035   3.517   4.568   7.600
61754SOL    HW187036   3.570   4.523   7.666
61754SOL    HW287037   3.427   4.548   7.624
61755SOL     OW87038   3.756   4.059   1.111
61755SOL    HW187039   3.682   4.008   1.143
61755SOL    HW287040   3.833   4.019   1.151
61756SOL     OW87041   9.962   3.313   8.580
61756SOL    HW187042   9.881   3.292   8.627
61756SOL    HW287043   9.952   3.271   8.495
61757SOL     OW87044   9.195   1.423   6.809
61757SOL    HW187045   9.172   1.331   6.794
61757SOL    HW287046   9.230   1.425   6.898
61758SOL     OW87047  12.448   1.422  11.094
61758SOL    HW187048  12.493   1.360  11.151
61758SOL    HW287049  12.493   1.505  11.108
61759SOL     OW87050   7.773   8.741   6.211
61759SOL    HW187051   7.678   8.748   6.216
61759SOL    HW287052   7.790   8.699   6.127
61760SOL     OW87053   8.707   2.434   3.334
61760SOL    HW187054   8.657   2.367   3.289
61760SOL    HW287055   8.650   2.463   3.405
61761SOL     OW87056  13.359   3.896   0.732
61761SOL    HW187057  13.432   3.838   0.713
61761SOL    HW287058  13.282   3.840   0.727
61762SOL     OW87059  10.152   0.159   3.394
61762SOL    HW187060  10.210   0.091   3.359
61762SOL    HW287061  10.071   0.150   3.345
61763SOL     OW87062  14.301   4.998  11.475
61763SOL    HW187063  14.216   4.976  11.438
61763SOL    HW287064  14.318   4.930  11.540
61764SOL     OW87065  13.932   3.314  13.814
61764SOL    HW187066  13.845   3.276  13.801
61764SOL    HW287067  13.988   3.267  13.752
61765SOL     OW87068  13.580   8.553   3.023
61765SOL    HW187069  13.603   8.537   2.931
61765SOL    HW287070  13.638   8.495   3.072
61766SOL     OW87071   1.154   6.362  12.220
61766SOL    HW187072   1.154   6.458  12.228
61766SOL    HW287073   1.098   6.332  12.291
61767SOL     OW87074   8.365   7.431   6.153
61767SOL    HW187075   8.309   7.387   6.217
61767SOL    HW287076   8.317   7.511   6.131
61768SOL     OW87077   7.557  14.088   2.034
61768SOL    HW187078   7.564  14.000   1.997
61768SOL    HW287079   7.534  14.074   2.126
61769SOL     OW87080   7.281   9.236   5.896
61769SOL    HW187081   7.312   9.163   5.951
61769SOL    HW287082   7.199   9.263   5.937
61770SOL     OW87083   1.060   7.390   2.946
61770SOL    HW187084   1.140   7.440   2.935
61770SOL    HW287085   1.058   7.330   2.871
61771SOL     OW87086  14.244  10.353   9.125
61771SOL    HW187087  14.309  10.340   9.194
61771SOL    HW287088  14.195  10.271   9.122
61772SOL     OW87089   5.527   1.606   2.265
61772SOL    HW187090   5.487   1.676   2.317
61772SOL    HW287091   5.619   1.606   2.291
61773SOL     OW87092  11.698   8.269  10.108
61773SOL    HW187093  11.735   8.193  10.063
61773SOL    HW287094  11.743   8.344  10.069
61774SOL     OW87095   0.838   6.310   6.486
61774SOL    HW187096   0.767   6.372   6.469
61774SOL    HW287097   0.916   6.353   6.451
61775SOL     OW87098   1.224   6.315  11.981
61775SOL    HW187099   1.225   6.324  12.076
61775SOL    HW287100   1.151   6.255  11.963
61776SOL     OW87101   4.669   5.485  10.019
61776SOL    HW187102   4.618   5.470  10.099
61776SOL    HW287103   4.744   5.538  10.048
61777SOL     OW87104   2.363  11.316   3.357
61777SOL    HW187105   2.274  11.286   3.338
61777SOL    HW287106   2.355  11.365   3.438
61778SOL     OW87107   7.494  13.632   8.170
61778SOL    HW187108   7.480  13.539   8.153
61778SOL    HW287109   7.464  13.645   8.260
61779SOL     OW87110   3.402   4.918   3.955
61779SOL    HW187111   3.334   4.982   3.975
61779SOL    HW287112   3.390   4.899   3.861
61780SOL     OW87113   3.844   7.675   0.384
61780SOL    HW187114   3.753   7.706   0.390
61780SOL    HW287115   3.858   7.659   0.291
61781SOL     OW87116   0.705  14.523   2.555
61781SOL    HW187117   0.631  14.578   2.578
61781SOL    HW287118   0.687  14.492   2.467
61782SOL     OW87119  10.653  12.437   1.375
61782SOL    HW187120  10.653  12.436   1.280
61782SOL    HW287121  10.692  12.521   1.399
61783SOL     OW87122   7.843   7.078  14.343
61783SOL    HW187123   7.825   7.079  14.437
61783SOL    HW287124   7.810   6.994  14.312
61784SOL     OW87125   3.793   0.078  13.035
61784SOL    HW187126   3.863   0.016  13.056
61784SOL    HW287127   3.712   0.029  13.051
61785SOL     OW87128   4.512   2.805  11.104
61785SOL    HW187129   4.458   2.819  11.027
61785SOL    HW287130   4.578   2.741  11.076
61786SOL     OW87131   0.635   9.297   1.570
61786SOL    HW187132   0.636   9.202   1.580
61786SOL    HW287133   0.569   9.314   1.503
61787SOL     OW87134   0.798   5.330   1.680
61787SOL    HW187135   0.823   5.384   1.605
61787SOL    HW287136   0.844   5.369   1.754
61788SOL     OW87137   4.469  10.416   2.305
61788SOL    HW187138   4.451  10.505   2.276
61788SOL    HW287139   4.385  10.370   2.295
61789SOL     OW87140   9.658  10.512   5.487
61789SOL    HW187141   9.687  10.511   5.395
61789SOL    HW287142   9.693  10.593   5.523
61790SOL     OW87143   6.970   9.649   8.358
61790SOL    HW187144   6.880   9.639   8.327
61790SOL    HW287145   7.023   9.649   8.278
61791SOL     OW87146   5.895   6.909   8.455
61791SOL    HW187147   5.845   6.980   8.494
61791SOL    HW287148   5.862   6.903   8.365
61792SOL     OW87149   6.667   9.296   7.058
61792SOL    HW187150   6.635   9.208   7.077
61792SOL    HW287151   6.588   9.346   7.037
61793SOL     OW87152   4.052  12.122   4.374
61793SOL    HW187153   3.972  12.078   4.346
61793SOL    HW287154   4.047  12.209   4.334
61794SOL     OW87155   7.349   6.851  14.591
61794SOL    HW187156   7.331   6.840  14.685
61794SOL    HW287157   7.341   6.945  14.576
61795SOL     OW87158   4.927   4.855   0.070
61795SOL    HW187159   5.003   4.798   0.067
61795SOL    HW287160   4.881   4.838  14.865
61796SOL     OW87161   5.643  12.946  11.817
61796SOL    HW187162   5.658  12.859  11.780
61796SOL    HW287163   5.698  12.948  11.895
61797SOL     OW87164  10.339   3.460   8.213
61797SOL    HW187165  10.332   3.372   8.249
61797SOL    HW287166  10.252   3.498   8.222
61798SOL     OW87167   5.609   1.929   0.377
61798SOL    HW187168   5.664   1.852   0.368
61798SOL    HW287169   5.669   2.003   0.366
61799SOL     OW87170   8.438   0.682  10.206
61799SOL    HW187171   8.530   0.684  10.179
61799SOL    HW287172   8.438   0.718  10.295
61800SOL     OW87173   7.790   1.330   1.091
61800SOL    HW187174   7.782   1.258   1.028
61800SOL    HW287175   7.701   1.345   1.122
61801SOL     OW87176   3.122   1.159   8.073
61801SOL    HW187177   3.093   1.248   8.056
61801SOL    HW287178   3.162   1.131   7.990
61802SOL     OW87179   0.352   3.053  11.936
61802SOL    HW187180   0.288   2.982  11.935
61802SOL    HW287181   0.318   3.118  11.875
61803SOL     OW87182   8.072   5.286  13.541
61803SOL    HW187183   8.036   5.274  13.454
61803SOL    HW287184   8.024   5.361  13.577
61804SOL     OW87185  11.568  12.637   7.403
61804SOL    HW187186  11.582  12.693   7.326
61804SOL    HW287187  11.605  12.552   7.378
61805SOL     OW87188  10.440   3.368  11.741
61805SOL    HW187189  10.430   3.396  11.651
61805SOL    HW287190  10.360   3.320  11.761
61806SOL     OW87191   7.049  10.201  11.600
61806SOL    HW187192   7.101  10.281  11.599
61806SOL    HW287193   6.959  10.230  11.585
61807SOL     OW87194  13.858   0.114   4.031
61807SOL    HW187195  13.937   0.135   4.080
61807SOL    HW287196  13.812   0.198   4.021
61808SOL     OW87197   9.303   9.340  13.832
61808SOL    HW187198   9.268   9.265  13.880
61808SOL    HW287199   9.355   9.387  13.897
61809SOL     OW87200  11.989  13.534  12.772
61809SOL    HW187201  11.989  13.521  12.867
61809SOL    HW287202  11.947  13.619  12.760
61810SOL     OW87203  11.133   5.276   4.336
61810SOL    HW187204  11.116   5.359   4.291
61810SOL    HW287205  11.131   5.298   4.429
61811SOL     OW87206   8.512   9.128  12.385
61811SOL    HW187207   8.506   9.106  12.478
61811SOL    HW287208   8.543   9.048  12.343
61812SOL     OW87209   9.852  12.955  11.487
61812SOL    HW187210   9.872  12.862  11.498
61812SOL    HW287211   9.796  12.959  11.409
61813SOL     OW87212   1.732   7.539  11.572
61813SOL    HW187213   1.666   7.508  11.510
61813SOL    HW287214   1.774   7.459  11.603
61814SOL     OW87215   9.607   8.000   4.329
61814SOL    HW187216   9.578   7.931   4.388
61814SOL    HW287217   9.699   8.015   4.353
61815SOL     OW87218   1.512   0.154  13.051
61815SOL    HW187219   1.589   0.173  13.104
61815SOL    HW287220   1.464   0.238  13.047
61816SOL     OW87221   8.549  10.723   8.488
61816SOL    HW187222   8.622  10.785   8.480
61816SOL    HW287223   8.490  10.764   8.552
61817SOL     OW87224   2.716  10.467   6.216
61817SOL    HW187225   2.801  10.431   6.239
61817SOL    HW287226   2.716  10.469   6.120
61818SOL     OW87227   4.782   0.113  13.999
61818SOL    HW187228   4.843   0.183  14.021
61818SOL    HW287229   4.701   0.136  14.046
61819SOL     OW87230   3.621  11.243  12.616
61819SOL    HW187231   3.676  11.287  12.551
61819SOL    HW287232   3.545  11.212  12.566
61820SOL     OW87233   0.123  13.062   9.369
61820SOL    HW187234   0.039  13.087   9.329
61820SOL    HW287235   0.128  12.967   9.358
61821SOL     OW87236  12.836   3.366   6.174
61821SOL    HW187237  12.915   3.410   6.143
61821SOL    HW287238  12.867   3.301   6.236
61822SOL     OW87239   6.798   6.497   9.246
61822SOL    HW187240   6.871   6.446   9.280
61822SOL    HW287241   6.742   6.514   9.322
61823SOL     OW87242   4.835  10.122   7.838
61823SOL    HW187243   4.867  10.095   7.752
61823SOL    HW287244   4.748  10.083   7.845
61824SOL     OW87245   7.866  14.250   3.932
61824SOL    HW187246   7.934  14.254   3.864
61824SOL    HW287247   7.820  14.334   3.924
61825SOL     OW87248   8.291   5.513  13.908
61825SOL    HW187249   8.280   5.492  13.815
61825SOL    HW287250   8.357   5.452  13.939
61826SOL     OW87251  13.878  12.145  10.675
61826SOL    HW187252  13.816  12.113  10.740
61826SOL    HW287253  13.935  12.070  10.656
61827SOL     OW87254  13.717  11.372   5.165
61827SOL    HW187255  13.736  11.428   5.090
61827SOL    HW287256  13.627  11.394   5.189
61828SOL     OW87257  10.619  12.147   8.575
61828SOL    HW187258  10.687  12.209   8.601
61828SOL    HW287259  10.590  12.178   8.489
61829SOL     OW87260  13.244   1.260   5.904
61829SOL    HW187261  13.216   1.271   5.814
61829SOL    HW287262  13.338   1.279   5.903
61830SOL     OW87263  12.670   8.994   7.089
61830SOL    HW187264  12.728   8.928   7.126
61830SOL    HW287265  12.653   8.963   7.000
61831SOL     OW87266  13.420   7.444   6.335
61831SOL    HW187267  13.459   7.368   6.378
61831SOL    HW287268  13.436   7.517   6.395
61832SOL     OW87269   5.694   1.357   5.574
61832SOL    HW187270   5.697   1.433   5.516
61832SOL    HW287271   5.602   1.335   5.580
61833SOL     OW87272   3.981   0.709   7.979
61833SOL    HW187273   3.934   0.712   7.895
61833SOL    HW287274   3.913   0.690   8.043
61834SOL     OW87275  14.053  12.623  11.563
61834SOL    HW187276  14.053  12.691  11.631
61834SOL    HW287277  13.961  12.595  11.557
61835SOL     OW87278   7.425   9.145  14.692
61835SOL    HW187279   7.474   9.176  14.616
61835SOL    HW287280   7.475   9.071  14.725
61836SOL     OW87281   6.411  11.571   1.263
61836SOL    HW187282   6.341  11.532   1.315
61836SOL    HW287283   6.377  11.657   1.237
61837SOL     OW87284   1.457   3.637  10.034
61837SOL    HW187285   1.427   3.697   9.966
61837SOL    HW287286   1.388   3.570  10.039
61838SOL     OW87287   0.165   3.379   8.509
61838SOL    HW187288   0.191   3.435   8.583
61838SOL    HW287289   0.174   3.435   8.432
61839SOL     OW87290  13.693  12.137   5.246
61839SOL    HW187291  13.656  12.057   5.283
61839SOL    HW287292  13.634  12.206   5.276
61840SOL     OW87293   7.707  13.407  11.108
61840SOL    HW187294   7.788  13.357  11.100
61840SOL    HW287295   7.721  13.463  11.185
61841SOL     OW87296   6.478  11.284   4.596
61841SOL    HW187297   6.528  11.338   4.535
61841SOL    HW287298   6.431  11.348   4.651
61842SOL     OW87299   4.814  11.780  12.398
61842SOL    HW187300   4.766  11.862  12.399
61842SOL    HW287301   4.755  11.717  12.439
61843SOL     OW87302  10.695   4.286   7.896
61843SOL    HW187303  10.721   4.355   7.834
61843SOL    HW287304  10.670   4.212   7.841
61844SOL     OW87305  12.371   5.829   5.233
61844SOL    HW187306  12.324   5.776   5.297
61844SOL    HW287307  12.462   5.827   5.262
61845SOL     OW87308   8.392   3.685   1.472
61845SOL    HW187309   8.422   3.621   1.407
61845SOL    HW287310   8.312   3.722   1.435
61846SOL     OW87311   5.558  11.880   2.100
61846SOL    HW187312   5.515  11.909   2.181
61846SOL    HW287313   5.519  11.933   2.031
61847SOL     OW87314   8.096  11.802   0.864
61847SOL    HW187315   8.116  11.710   0.850
61847SOL    HW287316   8.003  11.803   0.888
61848SOL     OW87317  10.085   8.659   9.991
61848SOL    HW187318  10.025   8.657  10.066
61848SOL    HW287319  10.065   8.741   9.946
61849SOL     OW87320   3.768   2.594  13.948
61849SOL    HW187321   3.673   2.598  13.955
61849SOL    HW287322   3.785   2.570  13.857
61850SOL     OW87323   4.059   2.010   6.562
61850SOL    HW187324   4.131   2.049   6.512
61850SOL    HW287325   4.050   1.922   6.524
61851SOL     OW87326  11.304   1.452  12.778
61851SOL    HW187327  11.261   1.500  12.707
61851SOL    HW287328  11.392   1.433  12.744
61852SOL     OW87329  13.720   2.816   6.162
61852SOL    HW187330  13.696   2.754   6.231
61852SOL    HW287331  13.698   2.771   6.081
61853SOL     OW87332   6.328  12.692   6.050
61853SOL    HW187333   6.351  12.742   6.128
61853SOL    HW287334   6.241  12.656   6.070
61854SOL     OW87335  11.712  12.770  10.152
61854SOL    HW187336  11.763  12.761  10.233
61854SOL    HW287337  11.752  12.843  10.106
61855SOL     OW87338  10.976   6.950  11.814
61855SOL    HW187339  11.037   6.878  11.829
61855SOL    HW287340  10.999   7.015  11.880
61856SOL     OW87341  14.618  13.575   2.282
61856SOL    HW187342  14.576  13.490   2.269
61856SOL    HW287343  14.546  13.632   2.310
61857SOL     OW87344  11.447  10.509  11.538
61857SOL    HW187345  11.486  10.536  11.455
61857SOL    HW287346  11.442  10.414  11.533
61858SOL     OW87347   8.525  14.166  10.839
61858SOL    HW187348   8.485  14.179  10.753
61858SOL    HW287349   8.608  14.123  10.821
61859SOL     OW87350  14.185   2.382   9.702
61859SOL    HW187351  14.152   2.397   9.614
61859SOL    HW287352  14.197   2.287   9.708
61860SOL     OW87353   7.851   5.763  12.635
61860SOL    HW187354   7.900   5.824  12.690
61860SOL    HW287355   7.835   5.687  12.692
61861SOL     OW87356   9.218  14.080   4.595
61861SOL    HW187357   9.267  14.095   4.675
61861SOL    HW287358   9.268  14.126   4.527
61862SOL     OW87359  11.829   1.671   4.945
61862SOL    HW187360  11.859   1.726   5.018
61862SOL    HW287361  11.749   1.713   4.914
61863SOL     OW87362   9.112   5.883  13.202
61863SOL    HW187363   9.138   5.969  13.170
61863SOL    HW287364   9.049   5.851  13.138
61864SOL     OW87365  11.542  11.701  12.621
61864SOL    HW187366  11.448  11.705  12.605
61864SOL    HW287367  11.560  11.774  12.680
61865SOL     OW87368   3.222   4.440   7.613
61865SOL    HW187369   3.151   4.420   7.552
61865SOL    HW287370   3.191   4.516   7.662
61866SOL     OW87371  12.633   7.767   7.744
61866SOL    HW187372  12.662   7.716   7.668
61866SOL    HW287373  12.699   7.751   7.811
61867SOL     OW87374  13.418   7.308   6.075
61867SOL    HW187375  13.500   7.289   6.122
61867SOL    HW287376  13.375   7.375   6.127
61868SOL     OW87377   9.944   7.650   9.264
61868SOL    HW187378   9.991   7.571   9.291
61868SOL    HW287379   9.856   7.640   9.300
61869SOL     OW87380  14.696   4.950   0.002
61869SOL    HW187381  14.619   4.955  14.823
61869SOL    HW287382  14.665   4.982   0.087
61870SOL     OW87383   6.996   7.640   7.647
61870SOL    HW187384   7.000   7.733   7.622
61870SOL    HW287385   6.903   7.624   7.664
61871SOL     OW87386  10.099   9.572  12.355
61871SOL    HW187387  10.157   9.597  12.283
61871SOL    HW287388  10.089   9.652  12.407
61872SOL     OW87389   9.327   5.297  14.175
61872SOL    HW187390   9.344   5.202  14.178
61872SOL    HW287391   9.300   5.319  14.264
61873SOL     OW87392   1.014   7.466  14.609
61873SOL    HW187393   1.066   7.539  14.575
61873SOL    HW287394   0.941   7.457  14.548
61874SOL     OW87395   7.791   0.236  13.019
61874SOL    HW187396   7.776   0.331  13.015
61874SOL    HW287397   7.703   0.198  13.021
61875SOL     OW87398   0.758  13.641   3.669
61875SOL    HW187399   0.734  13.598   3.587
61875SOL    HW287400   0.699  13.717   3.674
61876SOL     OW87401   1.473  13.205  14.421
61876SOL    HW187402   1.397  13.177  14.472
61876SOL    HW287403   1.504  13.284  14.466
61877SOL     OW87404   7.991  13.810   8.550
61877SOL    HW187405   7.903  13.828   8.584
61877SOL    HW287406   8.028  13.897   8.535
61878SOL     OW87407  10.372   2.649   0.437
61878SOL    HW187408  10.340   2.590   0.505
61878SOL    HW287409  10.299   2.710   0.422
61879SOL     OW87410  11.774   0.132  12.222
61879SOL    HW187411  11.718   0.107  12.148
61879SOL    HW287412  11.747   0.074  12.293
61880SOL     OW87413  13.056   9.456   9.203
61880SOL    HW187414  13.078   9.459   9.110
61880SOL    HW287415  13.131   9.413   9.244
61881SOL     OW87416  11.037   2.936   5.011
61881SOL    HW187417  11.078   2.851   5.028
61881SOL    HW287418  10.943   2.919   5.012
61882SOL     OW87419  11.609   0.960   9.870
61882SOL    HW187420  11.670   0.942   9.942
61882SOL    HW287421  11.585   1.052   9.881
61883SOL     OW87422   8.326  11.078   4.424
61883SOL    HW187423   8.301  11.158   4.379
61883SOL    HW287424   8.314  11.009   4.358
61884SOL     OW87425  12.308   2.591   2.258
61884SOL    HW187426  12.268   2.673   2.229
61884SOL    HW287427  12.260   2.523   2.210
61885SOL     OW87428  10.282   6.356   0.997
61885SOL    HW187429  10.227   6.395   0.929
61885SOL    HW287430  10.225   6.348   1.073
61886SOL     OW87431  12.923   1.583   1.789
61886SOL    HW187432  13.006   1.540   1.810
61886SOL    HW287433  12.944   1.640   1.715
61887SOL     OW87434   9.595   6.273   5.387
61887SOL    HW187435   9.577   6.332   5.314
61887SOL    HW287436   9.583   6.326   5.465
61888SOL     OW87437  11.177   6.160   2.555
61888SOL    HW187438  11.124   6.230   2.516
61888SOL    HW287439  11.239   6.205   2.611
61889SOL     OW87440   7.065   4.460  14.857
61889SOL    HW187441   7.037   4.503   0.060
61889SOL    HW287442   6.992   4.404  14.832
61890SOL     OW87443  11.613   1.091   5.274
61890SOL    HW187444  11.641   1.060   5.188
61890SOL    HW287445  11.679   1.057   5.334
61891SOL     OW87446   1.239   4.735   8.969
61891SOL    HW187447   1.310   4.792   8.998
61891SOL    HW287448   1.273   4.691   8.891
61892SOL     OW87449   6.164  12.944   6.411
61892SOL    HW187450   6.125  13.031   6.418
61892SOL    HW287451   6.250  12.960   6.371
61893SOL     OW87452   1.595  10.327  13.540
61893SOL    HW187453   1.598  10.271  13.462
61893SOL    HW287454   1.634  10.274  13.610
61894SOL     OW87455   7.640  13.914   7.501
61894SOL    HW187456   7.703  13.966   7.451
61894SOL    HW287457   7.555  13.946   7.472
61895SOL     OW87458   2.258   0.544   6.129
61895SOL    HW187459   2.253   0.469   6.187
61895SOL    HW287460   2.253   0.620   6.187
61896SOL     OW87461  14.329  12.010   4.907
61896SOL    HW187462  14.305  11.918   4.898
61896SOL    HW287463  14.420  12.008   4.939
61897SOL     OW87464   2.774   1.199  12.265
61897SOL    HW187465   2.852   1.146  12.278
61897SOL    HW287466   2.716   1.144  12.211
61898SOL     OW87467  11.840   0.891   4.761
61898SOL    HW187468  11.778   0.914   4.691
61898SOL    HW287469  11.919   0.863   4.714
61899SOL     OW87470  10.337   6.572  11.902
61899SOL    HW187471  10.245   6.548  11.911
61899SOL    HW287472  10.338   6.637  11.831
61900SOL     OW87473  14.257   9.832  11.265
61900SOL    HW187474  14.276   9.743  11.237
61900SOL    HW287475  14.244   9.826  11.360
61901SOL     OW87476  11.371   1.272   1.354
61901SOL    HW187477  11.413   1.301   1.435
61901SOL    HW287478  11.441   1.271   1.290
61902SOL     OW87479   8.814   4.561   1.821
61902SOL    HW187480   8.844   4.526   1.904
61902SOL    HW287481   8.888   4.612   1.787
61903SOL     OW87482  10.978   6.344   2.775
61903SOL    HW187483  11.062   6.366   2.814
61903SOL    HW287484  10.997   6.333   2.682
61904SOL     OW87485   2.156   9.471   8.705
61904SOL    HW187486   2.186   9.550   8.750
61904SOL    HW287487   2.111   9.504   8.627
61905SOL     OW87488   8.493   8.233   1.795
61905SOL    HW187489   8.475   8.262   1.884
61905SOL    HW287490   8.525   8.144   1.805
61906SOL     OW87491  13.536  13.953   3.946
61906SOL    HW187492  13.480  13.877   3.928
61906SOL    HW287493  13.475  14.027   3.947
61907SOL     OW87494   0.527  14.065  14.713
61907SOL    HW187495   0.543  13.971  14.711
61907SOL    HW287496   0.476  14.082  14.633
61908SOL     OW87497   3.251   7.488   2.555
61908SOL    HW187498   3.226   7.516   2.467
61908SOL    HW287499   3.289   7.565   2.596
61909SOL     OW87500   3.838   4.357   4.686
61909SOL    HW187501   3.793   4.312   4.757
61909SOL    HW287502   3.908   4.297   4.659
61910SOL     OW87503   3.196  14.300   6.396
61910SOL    HW187504   3.134  14.339   6.458
61910SOL    HW287505   3.265  14.366   6.386
61911SOL     OW87506   3.932  10.314  11.532
61911SOL    HW187507   3.939  10.340  11.440
61911SOL    HW287508   3.890  10.228  11.529
61912SOL     OW87509  12.328  13.566   4.821
61912SOL    HW187510  12.284  13.606   4.747
61912SOL    HW287511  12.258  13.521   4.869
61913SOL     OW87512   9.606  10.125  12.192
61913SOL    HW187513   9.515  10.098  12.204
61913SOL    HW287514   9.655  10.076  12.258
61914SOL     OW87515   7.960   2.330   6.902
61914SOL    HW187516   7.892   2.264   6.915
61914SOL    HW287517   7.942   2.365   6.814
61915SOL     OW87518   4.009   0.672   5.672
61915SOL    HW187519   4.082   0.682   5.733
61915SOL    HW287520   3.955   0.749   5.687
61916SOL     OW87521   6.139   3.214   2.964
61916SOL    HW187522   6.201   3.147   2.934
61916SOL    HW287523   6.071   3.164   3.011
61917SOL     OW87524   5.711   1.087  11.386
61917SOL    HW187525   5.677   1.173  11.363
61917SOL    HW287526   5.775   1.105  11.455
61918SOL     OW87527   7.481   3.637  12.596
61918SOL    HW187528   7.543   3.565  12.594
61918SOL    HW287529   7.525   3.706  12.645
61919SOL     OW87530  12.068  14.194  11.955
61919SOL    HW187531  12.008  14.169  11.885
61919SOL    HW287532  12.135  14.248  11.912
61920SOL     OW87533   8.888   3.464  10.487
61920SOL    HW187534   8.943   3.455  10.566
61920SOL    HW287535   8.882   3.558  10.473
61921SOL     OW87536   6.946   3.193  11.135
61921SOL    HW187537   6.971   3.247  11.210
61921SOL    HW287538   7.027   3.184  11.085
61922SOL     OW87539  14.143   1.036   4.561
61922SOL    HW187540  14.053   1.021   4.530
61922SOL    HW287541  14.133   1.093   4.637
61923SOL     OW87542   3.306   2.842  14.179
61923SOL    HW187543   3.302   2.893  14.098
61923SOL    HW287544   3.270   2.756  14.155
61924SOL     OW87545   1.332   5.975  10.729
61924SOL    HW187546   1.340   6.039  10.799
61924SOL    HW287547   1.398   6.002  10.665
61925SOL     OW87548  13.844  14.160   0.095
61925SOL    HW187549  13.789  14.101   0.147
61925SOL    HW287550  13.838  14.126   0.006
61926SOL     OW87551   3.543   9.472   5.801
61926SOL    HW187552   3.458   9.462   5.842
61926SOL    HW287553   3.527   9.529   5.725
61927SOL     OW87554   0.147   9.526   3.106
61927SOL    HW187555   0.205   9.454   3.130
61927SOL    HW287556   0.175   9.599   3.160
61928SOL     OW87557  14.519  11.614   3.228
61928SOL    HW187558  14.570  11.533   3.222
61928SOL    HW287559  14.498  11.636   3.137
61929SOL     OW87560   8.004   1.626  12.047
61929SOL    HW187561   7.978   1.557  12.109
61929SOL    HW287562   8.058   1.580  11.983
61930SOL     OW87563   9.413   7.578  13.156
61930SOL    HW187564   9.447   7.599  13.069
61930SOL    HW287565   9.489   7.586  13.214
61931SOL     OW87566   4.473  11.684   2.841
61931SOL    HW187567   4.510  11.654   2.924
61931SOL    HW287568   4.431  11.767   2.863
61932SOL     OW87569  13.226   4.371   1.759
61932SOL    HW187570  13.135   4.401   1.754
61932SOL    HW287571  13.219   4.279   1.785
61933SOL     OW87572  14.062   3.781   9.691
61933SOL    HW187573  14.054   3.706   9.631
61933SOL    HW287574  13.980   3.829   9.679
61934SOL     OW87575   4.909   4.079   0.066
61934SOL    HW187576   4.941   4.165   0.040
61934SOL    HW287577   4.914   4.026  14.864
61935SOL     OW87578  13.131   3.122  12.455
61935SOL    HW187579  13.051   3.167  12.428
61935SOL    HW287580  13.148   3.060  12.384
61936SOL     OW87581  13.947  12.824   0.017
61936SOL    HW187582  14.004  12.859   0.086
61936SOL    HW287583  13.975  12.871  14.815
61937SOL     OW87584  14.660  13.515   6.148
61937SOL    HW187585  14.671  13.573   6.072
61937SOL    HW287586  14.629  13.433   6.110
61938SOL     OW87587   8.822  13.144   1.929
61938SOL    HW187588   8.800  13.051   1.921
61938SOL    HW287589   8.753  13.181   1.983
61939SOL     OW87590   2.221  14.569   4.578
61939SOL    HW187591   2.245  14.631   4.646
61939SOL    HW287592   2.152  14.515   4.617
61940SOL     OW87593   2.457  11.577  13.012
61940SOL    HW187594   2.488  11.511  12.950
61940SOL    HW287595   2.433  11.527  13.090
61941SOL     OW87596   2.348   7.455   7.942
61941SOL    HW187597   2.305   7.509   8.009
61941SOL    HW287598   2.394   7.387   7.991
61942SOL     OW87599  10.979  10.318  11.138
61942SOL    HW187600  11.034  10.389  11.105
61942SOL    HW287601  11.040  10.245  11.152
61943SOL     OW87602  13.849   0.608  14.531
61943SOL    HW187603  13.896   0.615  14.448
61943SOL    HW287604  13.914   0.631  14.597
61944SOL     OW87605   1.603   4.132  13.904
61944SOL    HW187606   1.569   4.097  13.986
61944SOL    HW287607   1.556   4.215  13.892
61945SOL     OW87608  12.688   3.508   1.635
61945SOL    HW187609  12.769   3.476   1.594
61945SOL    HW287610  12.658   3.435   1.689
61946SOL     OW87611   5.990   0.641  12.569
61946SOL    HW187612   6.033   0.580  12.509
61946SOL    HW287613   6.039   0.723  12.559
61947SOL     OW87614   2.477   5.388  12.038
61947SOL    HW187615   2.477   5.322  11.968
61947SOL    HW287616   2.388   5.386  12.074
61948SOL     OW87617   6.456  11.382   2.588
61948SOL    HW187618   6.521  11.377   2.519
61948SOL    HW287619   6.383  11.430   2.549
61949SOL     OW87620  10.641  14.206   4.510
61949SOL    HW187621  10.710  14.264   4.541
61949SOL    HW287622  10.685  14.143   4.453
61950SOL     OW87623   8.063   1.343  10.922
61950SOL    HW187624   8.086   1.371  11.011
61950SOL    HW287625   7.994   1.403  10.895
61951SOL     OW87626   3.222   8.782   2.136
61951SOL    HW187627   3.196   8.866   2.098
61951SOL    HW287628   3.216   8.720   2.064
61952SOL     OW87629   5.837  12.422   4.568
61952SOL    HW187630   5.757  12.455   4.526
61952SOL    HW287631   5.905  12.434   4.501
61953SOL     OW87632  10.456   4.902   1.816
61953SOL    HW187633  10.449   4.911   1.721
61953SOL    HW287634  10.365   4.909   1.846
61954SOL     OW87635  11.976   9.501  12.575
61954SOL    HW187636  11.979   9.547  12.659
61954SOL    HW287637  11.974   9.408  12.598
61955SOL     OW87638   8.465   8.357   2.457
61955SOL    HW187639   8.461   8.328   2.548
61955SOL    HW287640   8.478   8.452   2.463
61956SOL     OW87641   1.799  10.122  14.394
61956SOL    HW187642   1.768  10.154  14.479
61956SOL    HW287643   1.845  10.196  14.356
61957SOL     OW87644   6.813   8.186   0.897
61957SOL    HW187645   6.882   8.246   0.924
61957SOL    HW287646   6.793   8.135   0.975
61958SOL     OW87647   8.136   3.245   8.272
61958SOL    HW187648   8.059   3.303   8.281
61958SOL    HW287649   8.114   3.168   8.325
61959SOL     OW87650  12.949  13.506   9.588
61959SOL    HW187651  13.028  13.451   9.594
61959SOL    HW287652  12.935  13.518   9.494
61960SOL     OW87653   3.748  10.254   7.245
61960SOL    HW187654   3.809  10.248   7.319
61960SOL    HW287655   3.786  10.197   7.178
61961SOL     OW87656  13.251   7.253  14.542
61961SOL    HW187657  13.255   7.168  14.587
61961SOL    HW287658  13.208   7.310  14.605
61962SOL     OW87659  14.789   3.626  13.431
61962SOL    HW187660  14.753   3.661  13.349
61962SOL    HW287661  14.869   3.581  13.405
61963SOL     OW87662   4.192   2.429   2.170
61963SOL    HW187663   4.187   2.524   2.179
61963SOL    HW287664   4.103   2.401   2.150
61964SOL     OW87665   2.346  10.470   8.590
61964SOL    HW187666   2.308  10.443   8.506
61964SOL    HW287667   2.338  10.393   8.646
61965SOL     OW87668   7.701   4.681  12.968
61965SOL    HW187669   7.761   4.613  12.998
61965SOL    HW287670   7.743   4.763  12.994
61966SOL     OW87671   1.300   7.510   1.890
61966SOL    HW187672   1.237   7.522   1.819
61966SOL    HW287673   1.253   7.540   1.968
61967SOL     OW87674   4.256  12.407   9.940
61967SOL    HW187675   4.193  12.336   9.928
61967SOL    HW287676   4.262  12.418  10.035
61968SOL     OW87677  13.603   7.028  13.173
61968SOL    HW187678  13.547   7.051  13.099
61968SOL    HW287679  13.672   6.974  13.135
61969SOL     OW87680   1.382   0.658   7.401
61969SOL    HW187681   1.411   0.601   7.331
61969SOL    HW287682   1.348   0.599   7.468
61970SOL     OW87683   5.385   9.581   4.734
61970SOL    HW187684   5.308   9.554   4.783
61970SOL    HW287685   5.421   9.499   4.699
61971SOL     OW87686   8.851  11.379   6.369
61971SOL    HW187687   8.870  11.295   6.326
61971SOL    HW287688   8.818  11.435   6.298
61972SOL     OW87689  11.046   7.388   8.137
61972SOL    HW187690  10.982   7.319   8.120
61972SOL    HW287691  11.127   7.356   8.096
61973SOL     OW87692   7.067   2.817   7.005
61973SOL    HW187693   7.115   2.734   6.998
61973SOL    HW287694   6.978   2.792   7.029
61974SOL     OW87695  12.034   4.033   1.107
61974SOL    HW187696  12.060   4.122   1.086
61974SOL    HW287697  11.939   4.037   1.121
61975SOL     OW87698   1.293   3.642  11.007
61975SOL    HW187699   1.291   3.738  11.003
61975SOL    HW287700   1.342   3.622  11.087
61976SOL     OW87701  13.252   7.394   7.693
61976SOL    HW187702  13.181   7.444   7.733
61976SOL    HW287703  13.329   7.450   7.703
61977SOL     OW87704   4.663  10.811   4.961
61977SOL    HW187705   4.757  10.829   4.968
61977SOL    HW287706   4.651  10.728   5.007
61978SOL     OW87707  10.793   1.458  14.485
61978SOL    HW187708  10.735   1.414  14.423
61978SOL    HW287709  10.743   1.534  14.515
61979SOL     OW87710   1.552   5.575   2.559
61979SOL    HW187711   1.563   5.623   2.641
61979SOL    HW287712   1.488   5.507   2.579
61980SOL     OW87713  11.729  12.043  10.648
61980SOL    HW187714  11.698  12.107  10.583
61980SOL    HW287715  11.669  12.054  10.722
61981SOL     OW87716  14.619   4.069  10.384
61981SOL    HW187717  14.606   3.974  10.376
61981SOL    HW287718  14.673   4.079  10.462
61982SOL     OW87719   8.812   3.281   7.185
61982SOL    HW187720   8.797   3.257   7.277
61982SOL    HW287721   8.726   3.307   7.153
61983SOL     OW87722   4.940  11.874   4.909
61983SOL    HW187723   4.959  11.810   4.841
61983SOL    HW287724   4.968  11.831   4.990
61984SOL     OW87725   6.076   3.594   8.670
61984SOL    HW187726   6.162   3.580   8.710
61984SOL    HW287727   6.017   3.611   8.744
61985SOL     OW87728   7.141  13.837   1.091
61985SOL    HW187729   7.231  13.808   1.077
61985SOL    HW287730   7.113  13.872   1.006
61986SOL     OW87731   2.963  12.722   6.572
61986SOL    HW187732   2.875  12.741   6.539
61986SOL    HW287733   2.996  12.653   6.514
61987SOL     OW87734   8.710   8.321   8.519
61987SOL    HW187735   8.764   8.367   8.583
61987SOL    HW287736   8.706   8.231   8.551
61988SOL     OW87737  14.231  11.582   3.707
61988SOL    HW187738  14.249  11.488   3.709
61988SOL    HW287739  14.284  11.614   3.634
61989SOL     OW87740  10.434   3.830   8.035
61989SOL    HW187741  10.382   3.815   8.114
61989SOL    HW287742  10.451   3.924   8.035
61990SOL     OW87743  10.671  12.383   1.090
61990SOL    HW187744  10.682  12.309   1.030
61990SOL    HW287745  10.577  12.392   1.101
61991SOL     OW87746   6.795  13.648   4.479
61991SOL    HW187747   6.851  13.571   4.474
61991SOL    HW287748   6.752  13.653   4.394
61992SOL     OW87749   5.337   8.482   4.363
61992SOL    HW187750   5.244   8.462   4.374
61992SOL    HW287751   5.356   8.544   4.434
61993SOL     OW87752   2.380   4.958   0.113
61993SOL    HW187753   2.307   5.019   0.124
61993SOL    HW287754   2.427   4.990   0.036
61994SOL     OW87755  10.992  13.585   9.317
61994SOL    HW187756  10.965  13.494   9.312
61994SOL    HW287757  11.018  13.608   9.228
61995SOL     OW87758  11.709  11.124   8.758
61995SOL    HW187759  11.683  11.142   8.667
61995SOL    HW287760  11.627  11.116   8.805
61996SOL     OW87761  14.642   1.060  12.778
61996SOL    HW187762  14.572   1.015  12.826
61996SOL    HW287763  14.599   1.091  12.698
61997SOL     OW87764  14.222  14.642   6.592
61997SOL    HW187765  14.282  14.624   6.519
61997SOL    HW287766  14.274  14.692   6.655
61998SOL     OW87767   2.423   3.193  12.722
61998SOL    HW187768   2.378   3.146  12.792
61998SOL    HW287769   2.510   3.211  12.756
61999SOL     OW87770  10.358   4.845  12.076
61999SOL    HW187771  10.347   4.916  12.139
61999SOL    HW287772  10.406   4.885  12.003
62000SOL     OW87773  10.256   6.032  11.097
62000SOL    HW187774  10.176   6.083  11.110
62000SOL    HW287775  10.273   6.040  11.003
62001SOL     OW87776   0.074   7.108  14.205
62001SOL    HW187777   0.104   7.169  14.273
62001SOL    HW287778   0.055   7.027  14.252
62002SOL     OW87779   2.669  13.245   0.159
62002SOL    HW187780   2.626  13.254   0.074
62002SOL    HW287781   2.742  13.184   0.143
62003SOL     OW87782   0.142   2.567   0.729
62003SOL    HW187783   0.109   2.567   0.819
62003SOL    HW287784   0.107   2.648   0.691
62004SOL     OW87785   4.312  11.443   3.055
62004SOL    HW187786   4.222  11.445   3.023
62004SOL    HW287787   4.364  11.420   2.977
62005SOL     OW87788   8.298  14.166  12.422
62005SOL    HW187789   8.240  14.207  12.486
62005SOL    HW287790   8.306  14.230  12.352
62006SOL     OW87791   0.536   7.835   1.227
62006SOL    HW187792   0.597   7.849   1.155
62006SOL    HW287793   0.575   7.763   1.278
62007SOL     OW87794   7.795   7.128   7.103
62007SOL    HW187795   7.746   7.104   7.182
62007SOL    HW287796   7.881   7.154   7.135
62008SOL     OW87797   6.464   7.942   3.841
62008SOL    HW187798   6.469   7.847   3.830
62008SOL    HW287799   6.547   7.974   3.805
62009SOL     OW87800  13.526   1.877   5.403
62009SOL    HW187801  13.504   1.963   5.438
62009SOL    HW287802  13.507   1.817   5.476
62010SOL     OW87803   7.128   6.813   8.361
62010SOL    HW187804   7.196   6.878   8.344
62010SOL    HW287805   7.165   6.730   8.329
62011SOL     OW87806   6.174   2.816   5.460
62011SOL    HW187807   6.116   2.740   5.456
62011SOL    HW287808   6.262   2.779   5.458
62012SOL     OW87809   4.879  12.187   7.249
62012SOL    HW187810   4.950  12.238   7.211
62012SOL    HW287811   4.817  12.174   7.177
62013SOL     OW87812   5.131  10.750   7.050
62013SOL    HW187813   5.093  10.836   7.034
62013SOL    HW287814   5.056  10.695   7.077
62014SOL     OW87815   9.692  14.450   4.404
62014SOL    HW187816   9.618  14.497   4.441
62014SOL    HW287817   9.744  14.423   4.480
62015SOL     OW87818   4.556   9.030   6.657
62015SOL    HW187819   4.565   9.094   6.727
62015SOL    HW287820   4.637   8.980   6.659
62016SOL     OW87821   3.989   7.753  14.048
62016SOL    HW187822   3.977   7.705  14.131
62016SOL    HW287823   3.942   7.700  13.983
62017SOL     OW87824   9.428   2.059  10.197
62017SOL    HW187825   9.487   2.133  10.209
62017SOL    HW287826   9.425   2.016  10.282
62018SOL     OW87827   3.287   9.249   4.066
62018SOL    HW187828   3.304   9.330   4.115
62018SOL    HW287829   3.193   9.234   4.077
62019SOL     OW87830   5.485   1.410   6.687
62019SOL    HW187831   5.504   1.495   6.726
62019SOL    HW287832   5.570   1.369   6.676
62020SOL     OW87833   4.250   8.437  10.316
62020SOL    HW187834   4.310   8.511  10.314
62020SOL    HW287835   4.278   8.386  10.392
62021SOL     OW87836   2.576  14.275  10.399
62021SOL    HW187837   2.533  14.312  10.322
62021SOL    HW287838   2.659  14.240  10.365
62022SOL     OW87839   7.051   7.611  11.633
62022SOL    HW187840   7.003   7.589  11.712
62022SOL    HW287841   7.011   7.692  11.602
62023SOL     OW87842   6.994  11.261   6.935
62023SOL    HW187843   6.955  11.247   6.849
62023SOL    HW287844   6.919  11.279   6.992
62024SOL     OW87845  11.419   0.024  13.742
62024SOL    HW187846  11.352   0.085  13.770
62024SOL    HW287847  11.434   0.045  13.650
62025SOL     OW87848  11.494   1.434   2.578
62025SOL    HW187849  11.554   1.435   2.652
62025SOL    HW287850  11.497   1.345   2.544
62026SOL     OW87851  11.338  13.129   3.915
62026SOL    HW187852  11.422  13.166   3.943
62026SOL    HW287853  11.283  13.134   3.993
62027SOL     OW87854   0.901  12.409  13.688
62027SOL    HW187855   0.942  12.326  13.667
62027SOL    HW287856   0.830  12.387  13.748
62028SOL     OW87857   3.726   5.054   9.938
62028SOL    HW187858   3.637   5.062   9.904
62028SOL    HW287859   3.725   4.973   9.989
62029SOL     OW87860   0.390   8.209   2.742
62029SOL    HW187861   0.437   8.208   2.825
62029SOL    HW287862   0.367   8.118   2.726
62030SOL     OW87863   7.084   4.297   7.021
62030SOL    HW187864   7.113   4.218   7.067
62030SOL    HW287865   7.163   4.331   6.978
62031SOL     OW87866   3.246   8.908   2.781
62031SOL    HW187867   3.214   8.818   2.780
62031SOL    HW287868   3.166   8.961   2.774
62032SOL     OW87869  11.287  13.855  10.179
62032SOL    HW187870  11.329  13.769  10.172
62032SOL    HW287871  11.310  13.886  10.267
62033SOL     OW87872   5.581   8.712  10.657
62033SOL    HW187873   5.515   8.777  10.681
62033SOL    HW287874   5.565   8.694  10.565
62034SOL     OW87875  13.065   0.972   4.981
62034SOL    HW187876  13.141   0.931   4.940
62034SOL    HW287877  13.000   0.978   4.910
62035SOL     OW87878   3.661   9.741   5.155
62035SOL    HW187879   3.602   9.779   5.220
62035SOL    HW287880   3.659   9.802   5.082
62036SOL     OW87881   1.528  11.270   3.994
62036SOL    HW187882   1.446  11.237   3.956
62036SOL    HW287883   1.546  11.350   3.945
62037SOL     OW87884   0.456   1.244  13.719
62037SOL    HW187885   0.420   1.173  13.665
62037SOL    HW287886   0.391   1.314  13.714
62038SOL     OW87887   1.418   8.175   4.054
62038SOL    HW187888   1.442   8.083   4.066
62038SOL    HW287889   1.421   8.213   4.142
62039SOL     OW87890   5.040   0.612  13.536
62039SOL    HW187891   4.951   0.578  13.547
62039SOL    HW287892   5.093   0.535  13.515
62040SOL     OW87893  14.860   7.545  12.422
62040SOL    HW187894  14.859   7.620  12.363
62040SOL    HW287895   0.044   7.568  12.490
62041SOL     OW87896   0.941  14.197   5.620
62041SOL    HW187897   0.881  14.134   5.660
62041SOL    HW287898   0.973  14.250   5.694
62042SOL     OW87899   6.613  11.933   9.220
62042SOL    HW187900   6.553  11.985   9.274
62042SOL    HW287901   6.593  11.842   9.242
62043SOL     OW87902   6.536   0.665   1.118
62043SOL    HW187903   6.600   0.617   1.169
62043SOL    HW287904   6.503   0.732   1.177
62044SOL     OW87905  12.830   7.488   0.842
62044SOL    HW187906  12.759   7.425   0.830
62044SOL    HW287907  12.888   7.473   0.768
62045SOL     OW87908   4.752   6.023   9.659
62045SOL    HW187909   4.783   6.102   9.704
62045SOL    HW287910   4.825   5.961   9.667
62046SOL     OW87911   3.152   7.756  12.398
62046SOL    HW187912   3.245   7.759  12.422
62046SOL    HW287913   3.108   7.720  12.475
62047SOL     OW87914   8.038  13.366   6.850
62047SOL    HW187915   8.080  13.450   6.832
62047SOL    HW287916   7.993  13.343   6.769
62048SOL     OW87917  13.887   1.172  10.658
62048SOL    HW187918  13.849   1.084  10.654
62048SOL    HW287919  13.813   1.231  10.644
62049SOL     OW87920   7.836   5.107   1.471
62049SOL    HW187921   7.868   5.192   1.499
62049SOL    HW287922   7.915   5.056   1.452
62050SOL     OW87923   4.482   3.647   8.413
62050SOL    HW187924   4.454   3.566   8.372
62050SOL    HW287925   4.413   3.710   8.392
62051SOL     OW87926  11.564  14.210  13.572
62051SOL    HW187927  11.492  14.157  13.536
62051SOL    HW287928  11.639  14.151  13.575
62052SOL     OW87929   4.471  11.704  13.029
62052SOL    HW187930   4.494  11.797  13.023
62052SOL    HW287931   4.377  11.704  13.049
62053SOL     OW87932   1.646   9.135  14.021
62053SOL    HW187933   1.737   9.108  14.005
62053SOL    HW287934   1.623   9.093  14.103
62054SOL     OW87935   0.930   8.344   0.386
62054SOL    HW187936   0.888   8.283   0.326
62054SOL    HW287937   0.870   8.418   0.391
62055SOL     OW87938  13.006  14.238  10.379
62055SOL    HW187939  12.964  14.286  10.308
62055SOL    HW287940  12.979  14.147  10.367
62056SOL     OW87941   9.444   5.400  12.191
62056SOL    HW187942   9.410   5.328  12.244
62056SOL    HW287943   9.536   5.377  12.175
62057SOL     OW87944   1.080  11.925  12.217
62057SOL    HW187945   1.051  11.866  12.147
62057SOL    HW287946   1.152  11.975  12.178
62058SOL     OW87947  12.409  13.785  10.160
62058SOL    HW187948  12.398  13.838  10.239
62058SOL    HW287949  12.445  13.702  10.191
62059SOL     OW87950   2.560  10.797  12.431
62059SOL    HW187951   2.630  10.848  12.471
62059SOL    HW287952   2.493  10.861  12.406
62060SOL     OW87953   0.125  13.822   8.054
62060SOL    HW187954   0.039  13.863   8.046
62060SOL    HW287955   0.182  13.872   7.996
62061SOL     OW87956   8.239  10.342   6.522
62061SOL    HW187957   8.160  10.382   6.486
62061SOL    HW287958   8.294  10.416   6.548
62062SOL     OW87959   4.467  12.855   0.161
62062SOL    HW187960   4.533  12.788   0.141
62062SOL    HW287961   4.426  12.824   0.242
62063SOL     OW87962   8.236   0.710  11.912
62063SOL    HW187963   8.258   0.739  11.824
62063SOL    HW287964   8.150   0.670  11.904
62064SOL     OW87965   0.183   8.099   5.301
62064SOL    HW187966   0.267   8.056   5.283
62064SOL    HW287967   0.205   8.170   5.361
62065SOL     OW87968   4.555   4.075   8.978
62065SOL    HW187969   4.570   4.168   8.994
62065SOL    HW287970   4.578   4.062   8.886
62066SOL     OW87971   2.896   0.210  12.098
62066SOL    HW187972   2.822   0.270  12.106
62066SOL    HW287973   2.919   0.213  12.005
62067SOL     OW87974   9.268  14.018  10.168
62067SOL    HW187975   9.201  13.954  10.144
62067SOL    HW287976   9.340  13.964  10.202
62068SOL     OW87977   0.790   8.157   6.238
62068SOL    HW187978   0.828   8.139   6.152
62068SOL    HW287979   0.696   8.141   6.226
62069SOL     OW87980   6.359   2.059  11.732
62069SOL    HW187981   6.330   1.980  11.686
62069SOL    HW287982   6.411   2.106  11.667
62070SOL     OW87983   1.269   8.759   5.959
62070SOL    HW187984   1.201   8.784   5.896
62070SOL    HW287985   1.271   8.664   5.955
62071SOL     OW87986   3.682   8.833   4.856
62071SOL    HW187987   3.594   8.796   4.861
62071SOL    HW287988   3.740   8.762   4.883
62072SOL     OW87989   2.457   0.752   8.563
62072SOL    HW187990   2.489   0.715   8.645
62072SOL    HW287991   2.477   0.686   8.497
62073SOL     OW87992  13.545   5.244   7.723
62073SOL    HW187993  13.461   5.216   7.759
62073SOL    HW287994  13.570   5.320   7.777
62074SOL     OW87995   5.476   4.551   6.770
62074SOL    HW187996   5.544   4.618   6.765
62074SOL    HW287997   5.449   4.538   6.679
62075SOL     OW87998   7.533   1.540   0.331
62075SOL    HW187999   7.547   1.558   0.424
62075SOL    HW288000   7.524   1.445   0.326
62076SOL     OW88001   3.981   1.618  10.092
62076SOL    HW188002   3.992   1.607  10.187
62076SOL    HW288003   4.012   1.536  10.054
62077SOL     OW88004   5.981  10.798   4.966
62077SOL    HW188005   5.985  10.855   4.890
62077SOL    HW288006   5.931  10.721   4.937
62078SOL     OW88007  13.089   8.697   8.144
62078SOL    HW188008  13.044   8.683   8.061
62078SOL    HW288009  13.167   8.642   8.138
62079SOL     OW88010  12.262   2.529   7.781
62079SOL    HW188011  12.287   2.454   7.836
62079SOL    HW288012  12.198   2.577   7.834
62080SOL     OW88013   1.025   6.365   2.250
62080SOL    HW188014   1.072   6.447   2.232
62080SOL    HW288015   0.933   6.389   2.245
62081SOL     OW88016  12.184  11.070  12.229
62081SOL    HW188017  12.265  11.086  12.277
62081SOL    HW288018  12.210  11.074  12.137
62082SOL     OW88019  14.674   3.835   1.833
62082SOL    HW188020  14.668   3.879   1.918
62082SOL    HW288021  14.761   3.794   1.833
62083SOL     OW88022   2.457   1.171   5.045
62083SOL    HW188023   2.527   1.234   5.030
62083SOL    HW288024   2.435   1.138   4.958
62084SOL     OW88025  13.059   0.216   8.264
62084SOL    HW188026  13.058   0.150   8.195
62084SOL    HW288027  13.143   0.203   8.309
62085SOL     OW88028  11.759   5.002  10.786
62085SOL    HW188029  11.789   5.092  10.792
62085SOL    HW288030  11.665   5.006  10.805
62086SOL     OW88031   5.849  11.217   7.550
62086SOL    HW188032   5.843  11.238   7.643
62086SOL    HW288033   5.774  11.261   7.509
62087SOL     OW88034  10.546   8.655   8.254
62087SOL    HW188035  10.483   8.727   8.256
62087SOL    HW288036  10.622   8.691   8.208
62088SOL     OW88037  11.079   0.323   6.862
62088SOL    HW188038  11.107   0.255   6.923
62088SOL    HW288039  11.161   0.357   6.826
62089SOL     OW88040  14.092   0.270   6.922
62089SOL    HW188041  14.154   0.202   6.949
62089SOL    HW288042  14.022   0.265   6.987
62090SOL     OW88043  12.919   6.602   0.253
62090SOL    HW188044  13.011   6.587   0.274
62090SOL    HW288045  12.881   6.514   0.248
62091SOL     OW88046   8.019   3.500   5.474
62091SOL    HW188047   8.107   3.473   5.446
62091SOL    HW288048   8.006   3.585   5.432
62092SOL     OW88049  14.696   4.567  13.574
62092SOL    HW188050  14.674   4.643  13.521
62092SOL    HW288051  14.612   4.524  13.590
62093SOL     OW88052  13.841   8.713  10.902
62093SOL    HW188053  13.814   8.728  10.811
62093SOL    HW288054  13.760   8.688  10.946
62094SOL     OW88055  10.445   0.103  11.518
62094SOL    HW188056  10.433   0.132  11.609
62094SOL    HW288057  10.365   0.054  11.498
62095SOL     OW88058   5.264   8.203  11.081
62095SOL    HW188059   5.209   8.200  11.159
62095SOL    HW288060   5.345   8.245  11.111
62096SOL     OW88061  12.366   1.834   0.206
62096SOL    HW188062  12.442   1.778   0.220
62096SOL    HW288063  12.309   1.815   0.280
62097SOL     OW88064   8.069  10.336  13.569
62097SOL    HW188065   8.127  10.262  13.583
62097SOL    HW288066   8.070  10.384  13.652
62098SOL     OW88067  14.813  10.751   0.621
62098SOL    HW188068  14.728  10.761   0.666
62098SOL    HW288069  14.871  10.812   0.666
62099SOL     OW88070  10.758   5.444   2.801
62099SOL    HW188071  10.791   5.387   2.732
62099SOL    HW288072  10.688   5.494   2.760
62100SOL     OW88073  12.249  10.839   4.860
62100SOL    HW188074  12.253  10.743   4.861
62100SOL    HW288075  12.159  10.858   4.833
62101SOL     OW88076   9.540   0.125   2.027
62101SOL    HW188077   9.569   0.089   2.110
62101SOL    HW288078   9.587   0.075   1.960
62102SOL     OW88079   4.572   1.074   7.043
62102SOL    HW188080   4.623   0.996   7.065
62102SOL    HW288081   4.526   1.096   7.124
62103SOL     OW88082   5.971   5.762  11.334
62103SOL    HW188083   6.050   5.795  11.291
62103SOL    HW288084   5.989   5.770  11.427
62104SOL     OW88085  13.885   6.793   3.190
62104SOL    HW188086  13.858   6.885   3.197
62104SOL    HW288087  13.928   6.774   3.273
62105SOL     OW88088   5.910  13.037   4.437
62105SOL    HW188089   5.845  13.071   4.376
62105SOL    HW288090   5.974  13.107   4.446
62106SOL     OW88091   4.628  14.151   1.982
62106SOL    HW188092   4.593  14.096   2.051
62106SOL    HW288093   4.616  14.241   2.014
62107SOL     OW88094   6.345   3.971   0.445
62107SOL    HW188095   6.299   4.008   0.370
62107SOL    HW288096   6.425   4.023   0.453
62108SOL     OW88097   1.035   4.809  12.129
62108SOL    HW188098   1.031   4.867  12.052
62108SOL    HW288099   1.115   4.836  12.174
62109SOL     OW88100   9.065   9.688   1.149
62109SOL    HW188101   9.082   9.650   1.062
62109SOL    HW288102   9.091   9.779   1.140
62110SOL     OW88103  12.867   0.234  11.329
62110SOL    HW188104  12.886   0.179  11.253
62110SOL    HW288105  12.877   0.323  11.298
62111SOL     OW88106   4.849  13.882   7.052
62111SOL    HW188107   4.854  13.787   7.047
62111SOL    HW288108   4.851  13.912   6.961
62112SOL     OW88109   1.019  11.314  13.932
62112SOL    HW188110   1.025  11.249  13.863
62112SOL    HW288111   0.928  11.310  13.961
62113SOL     OW88112   6.427  11.020   9.035
62113SOL    HW188113   6.506  10.975   9.063
62113SOL    HW288114   6.411  11.085   9.103
62114SOL     OW88115   2.148   2.382  13.920
62114SOL    HW188116   2.093   2.321  13.970
62114SOL    HW288117   2.086   2.441  13.879
62115SOL     OW88118   0.079   6.023   0.462
62115SOL    HW188119   0.144   6.032   0.532
62115SOL    HW288120   0.077   5.929   0.443
62116SOL     OW88121   2.399   5.918   7.104
62116SOL    HW188122   2.332   5.977   7.140
62116SOL    HW288123   2.350   5.839   7.081
62117SOL     OW88124   4.374   6.386   1.198
62117SOL    HW188125   4.456   6.417   1.237
62117SOL    HW288126   4.315   6.372   1.272
62118SOL     OW88127   9.454  14.051   8.714
62118SOL    HW188128   9.521  14.010   8.768
62118SOL    HW288129   9.400  14.099   8.776
62119SOL     OW88130   5.455   3.175   2.211
62119SOL    HW188131   5.509   3.117   2.264
62119SOL    HW288132   5.412   3.118   2.148
62120SOL     OW88133   0.621   5.508   0.380
62120SOL    HW188134   0.617   5.457   0.299
62120SOL    HW288135   0.681   5.580   0.362
62121SOL     OW88136   4.884   6.907   7.734
62121SOL    HW188137   4.825   6.834   7.753
62121SOL    HW288138   4.892   6.954   7.817
62122SOL     OW88139  10.414  11.365  10.931
62122SOL    HW188140  10.333  11.385  10.976
62122SOL    HW288141  10.405  11.407  10.845
62123SOL     OW88142   8.126   9.740   1.579
62123SOL    HW188143   8.067   9.696   1.640
62123SOL    HW288144   8.068   9.780   1.514
62124SOL     OW88145   3.480   7.945  14.861
62124SOL    HW188146   3.551   7.964   0.045
62124SOL    HW288147   3.518   7.880  14.802
62125SOL     OW88148   7.652   1.115   5.640
62125SOL    HW188149   7.566   1.115   5.683
62125SOL    HW288150   7.633   1.092   5.549
62126SOL     OW88151   1.269   2.799   5.457
62126SOL    HW188152   1.244   2.745   5.382
62126SOL    HW288153   1.224   2.882   5.443
62127SOL     OW88154  13.036   0.618   7.846
62127SOL    HW188155  12.948   0.614   7.809
62127SOL    HW288156  13.071   0.701   7.816
62128SOL     OW88157   3.097  12.953   0.218
62128SOL    HW188158   3.092  12.895   0.294
62128SOL    HW288159   3.190  12.976   0.212
62129SOL     OW88160   1.625   3.904   4.952
62129SOL    HW188161   1.706   3.924   4.904
62129SOL    HW288162   1.556   3.917   4.888
62130SOL     OW88163   3.916   4.433  12.108
62130SOL    HW188164   3.842   4.415  12.165
62130SOL    HW288165   3.933   4.527  12.118
62131SOL     OW88166  10.077   4.348  14.180
62131SOL    HW188167  10.024   4.412  14.227
62131SOL    HW288168  10.018   4.311  14.114
62132SOL     OW88169   1.539  10.791  12.108
62132SOL    HW188170   1.605  10.853  12.078
62132SOL    HW288171   1.468  10.799  12.045
62133SOL     OW88172   8.027  12.350  11.227
62133SOL    HW188173   8.047  12.357  11.134
62133SOL    HW288174   8.023  12.256  11.244
62134SOL     OW88175   5.872   2.523  11.732
62134SOL    HW188176   5.910   2.608  11.707
62134SOL    HW288177   5.785   2.545  11.764
62135SOL     OW88178   0.496   8.038   6.488
62135SOL    HW188179   0.525   8.109   6.546
62135SOL    HW288180   0.403   8.057   6.473
62136SOL     OW88181   8.033   6.368   1.283
62136SOL    HW188182   8.065   6.459   1.280
62136SOL    HW288183   7.951   6.370   1.234
62137SOL     OW88184   1.329   5.317  14.492
62137SOL    HW188185   1.284   5.384  14.441
62137SOL    HW288186   1.299   5.234  14.454
62138SOL     OW88187   8.078   2.338  10.502
62138SOL    HW188188   8.060   2.345  10.596
62138SOL    HW288189   8.169   2.308  10.498
62139SOL     OW88190  10.443  11.431   7.731
62139SOL    HW188191  10.532  11.402   7.711
62139SOL    HW288192  10.425  11.499   7.666
62140SOL     OW88193   0.789  13.332   5.594
62140SOL    HW188194   0.782  13.290   5.680
62140SOL    HW288195   0.705  13.376   5.581
62141SOL     OW88196   1.935   0.900   1.222
62141SOL    HW188197   1.910   0.904   1.314
62141SOL    HW288198   2.023   0.862   1.222
62142SOL     OW88199   6.796   9.610   0.257
62142SOL    HW188200   6.855   9.679   0.225
62142SOL    HW288201   6.855   9.541   0.288
62143SOL     OW88202  14.167   1.201   3.797
62143SOL    HW188203  14.129   1.288   3.787
62143SOL    HW288204  14.165   1.185   3.892
62144SOL     OW88205  12.538   9.669   4.181
62144SOL    HW188206  12.519   9.722   4.259
62144SOL    HW288207  12.527   9.578   4.211
62145SOL     OW88208   2.313  11.844   9.503
62145SOL    HW188209   2.405  11.828   9.482
62145SOL    HW288210   2.270  11.853   9.418
62146SOL     OW88211  10.195   5.042   5.559
62146SOL    HW188212  10.110   5.032   5.602
62146SOL    HW288213  10.215   4.954   5.525
62147SOL     OW88214  13.715  12.343   7.347
62147SOL    HW188215  13.742  12.293   7.424
62147SOL    HW288216  13.762  12.426   7.355
62148SOL     OW88217  11.541   5.139  11.812
62148SOL    HW188218  11.489   5.189  11.875
62148SOL    HW288219  11.487   5.063  11.791
62149SOL     OW88220  12.235  13.744   9.933
62149SOL    HW188221  12.316  13.760   9.981
62149SOL    HW288222  12.258  13.679   9.867
62150SOL     OW88223   9.960   4.109  11.003
62150SOL    HW188224   9.960   4.071  11.091
62150SOL    HW288225  10.052   4.132  10.986
62151SOL     OW88226  13.486   9.536   0.114
62151SOL    HW188227  13.581   9.546   0.120
62151SOL    HW288228  13.451   9.619   0.146
62152SOL     OW88229   7.474  12.068   5.139
62152SOL    HW188230   7.561  12.029   5.149
62152SOL    HW288231   7.425  12.005   5.085
62153SOL     OW88232   5.222   8.798  13.143
62153SOL    HW188233   5.211   8.782  13.049
62153SOL    HW288234   5.281   8.873  13.148
62154SOL     OW88235   1.928   6.669   9.180
62154SOL    HW188236   1.901   6.679   9.271
62154SOL    HW288237   1.938   6.759   9.148
62155SOL     OW88238   4.962   8.510  12.192
62155SOL    HW188239   4.964   8.426  12.146
62155SOL    HW288240   4.973   8.575  12.122
62156SOL     OW88241   4.003   3.886  11.307
62156SOL    HW188242   3.944   3.815  11.334
62156SOL    HW288243   4.066   3.844  11.249
62157SOL     OW88244  14.781  10.519   2.375
62157SOL    HW188245  14.765  10.593   2.316
62157SOL    HW288246  14.826  10.556   2.450
62158SOL     OW88247   5.403  11.210   6.751
62158SOL    HW188248   5.367  11.188   6.665
62158SOL    HW288249   5.368  11.143   6.809
62159SOL     OW88250  12.217   4.036  11.785
62159SOL    HW188251  12.215   3.943  11.806
62159SOL    HW288252  12.220   4.039  11.690
62160SOL     OW88253   2.261   3.116  13.975
62160SOL    HW188254   2.232   3.029  13.946
62160SOL    HW288255   2.325   3.143  13.908
62161SOL     OW88256  13.622   4.167   8.333
62161SOL    HW188257  13.580   4.252   8.346
62161SOL    HW288258  13.706   4.175   8.378
62162SOL     OW88259  11.877   6.961   0.327
62162SOL    HW188260  11.835   6.885   0.368
62162SOL    HW288261  11.950   6.982   0.384
62163SOL     OW88262  11.238   0.364   3.281
62163SOL    HW188263  11.218   0.456   3.296
62163SOL    HW288264  11.332   0.356   3.297
62164SOL     OW88265   0.984   1.661   9.608
62164SOL    HW188266   0.888   1.650   9.610
62164SOL    HW288267   1.008   1.642   9.518
62165SOL     OW88268  12.475   4.029   5.087
62165SOL    HW188269  12.467   4.011   5.180
62165SOL    HW288270  12.486   4.124   5.082
62166SOL     OW88271  12.575   9.438   3.382
62166SOL    HW188272  12.491   9.469   3.416
62166SOL    HW288273  12.582   9.478   3.295
62167SOL     OW88274  12.768   0.259   3.931
62167SOL    HW188275  12.701   0.320   3.962
62167SOL    HW288276  12.730   0.172   3.948
62168SOL     OW88277   6.164   8.419   8.928
62168SOL    HW188278   6.122   8.338   8.899
62168SOL    HW288279   6.190   8.401   9.019
62169SOL     OW88280   1.313   4.435   5.322
62169SOL    HW188281   1.237   4.455   5.268
62169SOL    HW288282   1.350   4.356   5.283
62170SOL     OW88283  11.905   6.913   4.695
62170SOL    HW188284  11.896   6.822   4.668
62170SOL    HW288285  11.966   6.951   4.631
62171SOL     OW88286   5.355   0.396   8.409
62171SOL    HW188287   5.372   0.477   8.361
62171SOL    HW288288   5.291   0.349   8.356
62172SOL     OW88289   8.397   1.882   6.020
62172SOL    HW188290   8.460   1.861   5.951
62172SOL    HW288291   8.435   1.844   6.099
62173SOL     OW88292   1.120  10.659   4.727
62173SOL    HW188293   1.064  10.708   4.667
62173SOL    HW288294   1.208  10.666   4.689
62174SOL     OW88295  13.927   4.944  14.351
62174SOL    HW188296  13.856   4.917  14.410
62174SOL    HW288297  14.006   4.905  14.389
62175SOL     OW88298   1.891   6.236  11.809
62175SOL    HW188299   1.807   6.197  11.786
62175SOL    HW288300   1.949   6.214  11.736
62176SOL     OW88301   1.764   3.502  12.257
62176SOL    HW188302   1.745   3.426  12.203
62176SOL    HW288303   1.846   3.537  12.223
62177SOL     OW88304   4.468   0.085  14.864
62177SOL    HW188305   4.475   0.179  14.854
62177SOL    HW288306   4.420   0.055  14.787
62178SOL     OW88307  11.107   2.312  14.313
62178SOL    HW188308  11.092   2.341  14.222
62178SOL    HW288309  11.059   2.375  14.366
62179SOL     OW88310   1.808   1.833   4.473
62179SOL    HW188311   1.877   1.824   4.407
62179SOL    HW288312   1.855   1.847   4.555
62180SOL     OW88313   6.091   5.037   9.171
62180SOL    HW188314   6.112   5.040   9.265
62180SOL    HW288315   6.173   5.016   9.128
62181SOL     OW88316   7.707   5.148   4.299
62181SOL    HW188317   7.757   5.193   4.231
62181SOL    HW288318   7.618   5.146   4.266
62182SOL     OW88319   7.432  11.376   4.992
62182SOL    HW188320   7.446  11.423   4.910
62182SOL    HW288321   7.338  11.357   4.992
62183SOL     OW88322   8.910   4.985   9.975
62183SOL    HW188323   8.900   4.933  10.054
62183SOL    HW288324   8.994   5.031   9.986
62184SOL     OW88325   8.240   5.213  14.099
62184SOL    HW188326   8.328   5.176  14.109
62184SOL    HW288327   8.190   5.145  14.054
62185SOL     OW88328   8.596  11.698   1.109
62185SOL    HW188329   8.523  11.756   1.133
62185SOL    HW288330   8.670  11.733   1.158
62186SOL     OW88331   8.149   6.919  10.691
62186SOL    HW188332   8.127   6.830  10.718
62186SOL    HW288333   8.234   6.911  10.648
62187SOL     OW88334  11.954  11.971  10.814
62187SOL    HW188335  12.018  11.912  10.774
62187SOL    HW288336  11.911  12.014  10.741
62188SOL     OW88337   2.521   8.375   0.795
62188SOL    HW188338   2.466   8.399   0.869
62188SOL    HW288339   2.480   8.417   0.720
62189SOL     OW88340   0.074   4.138  10.294
62189SOL    HW188341  14.867   4.101  10.317
62189SOL    HW288342   0.097   4.193  10.369
62190SOL     OW88343  13.930  14.002   0.438
62190SOL    HW188344  14.008  14.036   0.482
62190SOL    HW288345  13.858  14.023   0.498
62191SOL     OW88346   9.005   7.731  12.942
62191SOL    HW188347   9.052   7.814  12.938
62191SOL    HW288348   9.017   7.701  13.033
62192SOL     OW88349   8.203   9.856   7.810
62192SOL    HW188350   8.217   9.838   7.717
62192SOL    HW288351   8.290   9.876   7.844
62193SOL     OW88352   6.222  14.444   5.724
62193SOL    HW188353   6.140  14.396   5.720
62193SOL    HW288354   6.199  14.534   5.701
62194SOL     OW88355   8.887   8.723   8.262
62194SOL    HW188356   8.820   8.787   8.281
62194SOL    HW288357   8.843   8.638   8.271
62195SOL     OW88358  13.909   6.926   7.241
62195SOL    HW188359  13.925   7.010   7.283
62195SOL    HW288360  13.996   6.887   7.231
62196SOL     OW88361  10.698  11.710   6.183
62196SOL    HW188362  10.666  11.799   6.200
62196SOL    HW288363  10.792  11.714   6.201
62197SOL     OW88364   1.308  14.030  13.726
62197SOL    HW188365   1.297  13.941  13.760
62197SOL    HW288366   1.394  14.057  13.756
62198SOL     OW88367   1.616   5.760  12.824
62198SOL    HW188368   1.534   5.749  12.776
62198SOL    HW288369   1.622   5.683  12.880
62199SOL     OW88370  14.314  10.843  10.928
62199SOL    HW188371  14.227  10.843  10.887
62199SOL    HW288372  14.374  10.820  10.857
62200SOL     OW88373   8.299   4.742   4.534
62200SOL    HW188374   8.214   4.767   4.569
62200SOL    HW288375   8.362   4.777   4.597
62201SOL     OW88376  12.073  13.254  10.909
62201SOL    HW188377  12.147  13.278  10.853
62201SOL    HW288378  12.114  13.218  10.988
62202SOL     OW88379   4.620   1.360  10.098
62202SOL    HW188380   4.670   1.315  10.031
62202SOL    HW288381   4.685   1.389  10.162
62203SOL     OW88382   1.530  12.814  13.291
62203SOL    HW188383   1.524  12.893  13.344
62203SOL    HW288384   1.539  12.743  13.354
62204SOL     OW88385   9.821   7.759   2.318
62204SOL    HW188386   9.796   7.668   2.299
62204SOL    HW288387   9.740   7.801   2.344
62205SOL     OW88388  10.750   8.059   4.484
62205SOL    HW188389  10.688   8.119   4.527
62205SOL    HW288390  10.799   8.114   4.423
62206SOL     OW88391  11.770   7.125   4.531
62206SOL    HW188392  11.842   7.120   4.594
62206SOL    HW288393  11.812   7.144   4.447
62207SOL     OW88394   4.791  11.910   5.869
62207SOL    HW188395   4.774  12.002   5.849
62207SOL    HW288396   4.711  11.864   5.844
62208SOL     OW88397   8.532   0.332   4.345
62208SOL    HW188398   8.550   0.402   4.408
62208SOL    HW288399   8.605   0.336   4.284
62209SOL     OW88400   6.908   1.035   0.991
62209SOL    HW188401   6.823   1.008   1.028
62209SOL    HW288402   6.911   1.130   1.006
62210SOL     OW88403   0.068   7.636   6.872
62210SOL    HW188404   0.136   7.570   6.885
62210SOL    HW288405   0.088   7.705   6.934
62211SOL     OW88406   4.713   8.855   9.832
62211SOL    HW188407   4.754   8.940   9.817
62211SOL    HW288408   4.638   8.874   9.888
62212SOL     OW88409   3.911   2.169   9.122
62212SOL    HW188410   3.876   2.081   9.136
62212SOL    HW288411   3.951   2.193   9.205
62213SOL     OW88412   8.597   6.848  14.516
62213SOL    HW188413   8.540   6.799  14.575
62213SOL    HW288414   8.677   6.795  14.512
62214SOL     OW88415   7.838   3.456  14.625
62214SOL    HW188416   7.811   3.537  14.581
62214SOL    HW288417   7.933   3.464  14.635
62215SOL     OW88418   6.589   6.720   7.815
62215SOL    HW188419   6.672   6.739   7.773
62215SOL    HW288420   6.585   6.781   7.889
62216SOL     OW88421   9.545   7.949   4.066
62216SOL    HW188422   9.526   7.857   4.081
62216SOL    HW288423   9.568   7.984   4.152
62217SOL     OW88424   9.028   8.975   7.105
62217SOL    HW188425   9.001   9.030   7.031
62217SOL    HW288426   9.120   8.958   7.090
62218SOL     OW88427   4.015  10.585   0.483
62218SOL    HW188428   4.086  10.553   0.540
62218SOL    HW288429   4.028  10.539   0.400
62219SOL     OW88430  10.028   2.704   9.002
62219SOL    HW188431  10.092   2.670   9.064
62219SOL    HW288432  10.064   2.789   8.975
62220SOL     OW88433   6.289  13.838   6.401
62220SOL    HW188434   6.332  13.804   6.323
62220SOL    HW288435   6.355  13.894   6.442
62221SOL     OW88436   4.671  13.401  10.840
62221SOL    HW188437   4.621  13.398  10.758
62221SOL    HW288438   4.750  13.451  10.818
62222SOL     OW88439   2.915   5.023   6.551
62222SOL    HW188440   2.830   4.980   6.547
62222SOL    HW288441   2.930   5.039   6.644
62223SOL     OW88442   4.380   9.641  11.495
62223SOL    HW188443   4.298   9.688  11.510
62223SOL    HW288444   4.432   9.656  11.574
62224SOL     OW88445   7.652   6.581   8.087
62224SOL    HW188446   7.577   6.639   8.092
62224SOL    HW288447   7.670   6.557   8.178
62225SOL     OW88448   3.195   2.669  14.461
62225SOL    HW188449   3.151   2.652  14.378
62225SOL    HW288450   3.153   2.748  14.495
62226SOL     OW88451  14.034  12.523  13.678
62226SOL    HW188452  13.979  12.565  13.745
62226SOL    HW288453  14.031  12.583  13.604
62227SOL     OW88454   6.183   1.651   8.286
62227SOL    HW188455   6.198   1.677   8.195
62227SOL    HW288456   6.114   1.585   8.281
62228SOL     OW88457   6.562  13.765   6.946
62228SOL    HW188458   6.616  13.818   7.005
62228SOL    HW288459   6.610  13.684   6.935
62229SOL     OW88460   9.346   7.194  13.204
62229SOL    HW188461   9.334   7.276  13.155
62229SOL    HW288462   9.340   7.220  13.296
62230SOL     OW88463  13.473   3.505  13.342
62230SOL    HW188464  13.482   3.467  13.429
62230SOL    HW288465  13.470   3.431  13.282
62231SOL     OW88466  13.702   4.644  10.388
62231SOL    HW188467  13.659   4.724  10.419
62231SOL    HW288468  13.667   4.575  10.444
62232SOL     OW88469   5.433   4.171   6.347
62232SOL    HW188470   5.481   4.122   6.280
62232SOL    HW288471   5.363   4.215   6.298
62233SOL     OW88472   5.729  12.523  10.542
62233SOL    HW188473   5.694  12.451  10.594
62233SOL    HW288474   5.699  12.505  10.453
62234SOL     OW88475  12.664   4.291   2.858
62234SOL    HW188476  12.720   4.227   2.900
62234SOL    HW288477  12.587   4.242   2.830
62235SOL     OW88478  13.100   4.296  11.045
62235SOL    HW188479  13.140   4.213  11.070
62235SOL    HW288480  13.129   4.358  11.112
62236SOL     OW88481   5.290   4.552  12.775
62236SOL    HW188482   5.206   4.551  12.820
62236SOL    HW288483   5.321   4.461  12.780
62237SOL     OW88484  11.059   9.466  14.170
62237SOL    HW188485  10.998   9.522  14.219
62237SOL    HW288486  11.026   9.377  14.184
62238SOL     OW88487   7.679   4.248   2.067
62238SOL    HW188488   7.677   4.190   1.992
62238SOL    HW288489   7.643   4.331   2.035
62239SOL     OW88490   9.169  13.791   8.045
62239SOL    HW188491   9.101  13.858   8.040
62239SOL    HW288492   9.134  13.718   7.992
62240SOL     OW88493   3.830   0.422   2.531
62240SOL    HW188494   3.887   0.386   2.599
62240SOL    HW288495   3.856   0.375   2.451
62241SOL     OW88496   7.591   2.195   3.165
62241SOL    HW188497   7.520   2.131   3.171
62241SOL    HW288498   7.561   2.260   3.102
62242SOL     OW88499   7.943   4.312   9.949
62242SOL    HW188500   7.883   4.239   9.961
62242SOL    HW288501   7.934   4.364  10.029
62243SOL     OW88502   1.054   4.215  12.879
62243SOL    HW188503   0.969   4.172  12.882
62243SOL    HW288504   1.089   4.194  12.792
62244SOL     OW88505   3.134   9.151   2.204
62244SOL    HW188506   3.202   9.143   2.271
62244SOL    HW288507   3.122   9.245   2.194
62245SOL     OW88508   7.464  11.400  10.903
62245SOL    HW188509   7.438  11.395  10.995
62245SOL    HW288510   7.483  11.493  10.888
62246SOL     OW88511  10.067   7.012  13.457
62246SOL    HW188512   9.980   6.975  13.470
62246SOL    HW288513  10.053   7.107  13.457
62247SOL     OW88514  13.181   4.703  12.056
62247SOL    HW188515  13.258   4.754  12.079
62247SOL    HW288516  13.107   4.762  12.072
62248SOL     OW88517  10.358  11.715   3.677
62248SOL    HW188518  10.344  11.789   3.618
62248SOL    HW288519  10.281  11.716   3.734
62249SOL     OW88520   8.408   2.672  11.114
62249SOL    HW188521   8.425   2.636  11.201
62249SOL    HW288522   8.328   2.724  11.125
62250SOL     OW88523   1.340   6.452   4.507
62250SOL    HW188524   1.309   6.543   4.515
62250SOL    HW288525   1.422   6.459   4.459
62251SOL     OW88526   0.297   2.126   8.351
62251SOL    HW188527   0.359   2.149   8.420
62251SOL    HW288528   0.293   2.203   8.295
62252SOL     OW88529   1.516   9.821   1.978
62252SOL    HW188530   1.544   9.824   1.887
62252SOL    HW288531   1.487   9.731   1.992
62253SOL     OW88532  14.455   4.712  14.787
62253SOL    HW188533  14.533   4.680  14.833
62253SOL    HW288534  14.425   4.637  14.735
62254SOL     OW88535   3.838   5.459   4.291
62254SOL    HW188536   3.856   5.505   4.209
62254SOL    HW288537   3.922   5.457   4.337
62255SOL     OW88538   5.481  14.058   0.746
62255SOL    HW188539   5.546  14.048   0.677
62255SOL    HW288540   5.445  14.146   0.733
62256SOL     OW88541   9.517  10.276   8.322
62256SOL    HW188542   9.602  10.243   8.351
62256SOL    HW288543   9.521  10.271   8.227
62257SOL     OW88544   3.749   1.921   4.241
62257SOL    HW188545   3.664   1.894   4.274
62257SOL    HW288546   3.810   1.854   4.272
62258SOL     OW88547   2.178   8.053   2.154
62258SOL    HW188548   2.109   8.090   2.100
62258SOL    HW288549   2.134   8.021   2.232
62259SOL     OW88550   6.089   9.669  14.085
62259SOL    HW188551   6.059   9.693  14.173
62259SOL    HW288552   6.085   9.574  14.083
62260SOL     OW88553   2.934   3.012   7.335
62260SOL    HW188554   2.862   3.067   7.366
62260SOL    HW288555   2.997   3.012   7.407
62261SOL     OW88556   9.995   4.091   7.449
62261SOL    HW188557   9.909   4.080   7.408
62261SOL    HW288558   9.977   4.138   7.530
62262SOL     OW88559  13.438   5.233   6.665
62262SOL    HW188560  13.418   5.244   6.572
62262SOL    HW288561  13.526   5.269   6.676
62263SOL     OW88562  12.147  14.316  14.686
62263SOL    HW188563  12.067  14.307  14.635
62263SOL    HW288564  12.142  14.246  14.752
62264SOL     OW88565   9.313   0.342   5.493
62264SOL    HW188566   9.379   0.301   5.548
62264SOL    HW288567   9.306   0.432   5.526
62265SOL     OW88568   3.435  14.379   8.077
62265SOL    HW188569   3.418  14.315   8.145
62265SOL    HW288570   3.525  14.363   8.050
62266SOL     OW88571   8.599  12.970   2.223
62266SOL    HW188572   8.606  12.884   2.183
62266SOL    HW288573   8.689  13.004   2.223
62267SOL     OW88574   6.956   5.472  11.246
62267SOL    HW188575   6.969   5.489  11.339
62267SOL    HW288576   7.021   5.405  11.224
62268SOL     OW88577   0.811   9.973   1.628
62268SOL    HW188578   0.815  10.008   1.717
62268SOL    HW288579   0.792   9.880   1.639
62269SOL     OW88580   0.269   2.833   6.285
62269SOL    HW188581   0.180   2.866   6.297
62269SOL    HW288582   0.259   2.757   6.228
62270SOL     OW88583   4.325   1.546   7.797
62270SOL    HW188584   4.416   1.519   7.812
62270SOL    HW288585   4.298   1.496   7.720
62271SOL     OW88586  12.125  13.056   2.167
62271SOL    HW188587  12.073  13.003   2.106
62271SOL    HW288588  12.149  13.134   2.117
62272SOL     OW88589   4.770  11.731   4.181
62272SOL    HW188590   4.828  11.808   4.182
62272SOL    HW288591   4.714  11.745   4.105
62273SOL     OW88592   1.769  14.292   2.220
62273SOL    HW188593   1.803  14.207   2.247
62273SOL    HW288594   1.744  14.336   2.301
62274SOL     OW88595   9.693  13.621   7.932
62274SOL    HW188596   9.779  13.589   7.904
62274SOL    HW288597   9.653  13.657   7.853
62275SOL     OW88598  10.587  14.720   2.120
62275SOL    HW188599  10.539  14.778   2.061
62275SOL    HW288600  10.625  14.777   2.186
62276SOL     OW88601  12.484   3.224   1.112
62276SOL    HW188602  12.409   3.271   1.076
62276SOL    HW288603  12.466   3.217   1.206
62277SOL     OW88604   0.342   1.991   4.431
62277SOL    HW188605   0.272   2.038   4.384
62277SOL    HW288606   0.371   1.923   4.370
62278SOL     OW88607  14.826   5.202  11.166
62278SOL    HW188608  14.778   5.279  11.136
62278SOL    HW288609  14.765   5.157  11.225
62279SOL     OW88610  12.179  12.398   8.027
62279SOL    HW188611  12.141  12.403   7.939
62279SOL    HW288612  12.244  12.328   8.021
62280SOL     OW88613  10.352   7.185  11.147
62280SOL    HW188614  10.352   7.179  11.051
62280SOL    HW288615  10.311   7.270  11.165
62281SOL     OW88616   7.939  12.098  12.950
62281SOL    HW188617   8.028  12.075  12.926
62281SOL    HW288618   7.884  12.029  12.912
62282SOL     OW88619  13.270   6.803  14.094
62282SOL    HW188620  13.322   6.838  14.022
62282SOL    HW288621  13.308   6.717  14.112
62283SOL     OW88622   3.976   9.634   4.512
62283SOL    HW188623   3.933   9.550   4.496
62283SOL    HW288624   4.068   9.617   4.493
62284SOL     OW88625  10.393   7.118  11.700
62284SOL    HW188626  10.314   7.170  11.714
62284SOL    HW288627  10.392   7.099  11.606
62285SOL     OW88628   2.006   2.166   6.618
62285SOL    HW188629   1.986   2.089   6.566
62285SOL    HW288630   1.976   2.240   6.565
62286SOL     OW88631   9.661   4.889   8.662
62286SOL    HW188632   9.631   4.949   8.731
62286SOL    HW288633   9.589   4.828   8.649
62287SOL     OW88634  12.970  12.462   2.156
62287SOL    HW188635  12.896  12.445   2.097
62287SOL    HW288636  12.945  12.542   2.203
62288SOL     OW88637   1.883  10.128   5.470
62288SOL    HW188638   1.828  10.072   5.525
62288SOL    HW288639   1.963  10.077   5.456
62289SOL     OW88640   6.212   9.286   9.211
62289SOL    HW188641   6.183   9.216   9.269
62289SOL    HW288642   6.164   9.270   9.129
62290SOL     OW88643  12.501  12.380   3.499
62290SOL    HW188644  12.432  12.413   3.441
62290SOL    HW288645  12.455  12.346   3.575
62291SOL     OW88646  12.802  14.764   1.441
62291SOL    HW188647  12.722  14.734   1.399
62291SOL    HW288648  12.822  14.697   1.506
62292SOL     OW88649   5.568  13.401   8.859
62292SOL    HW188650   5.575  13.451   8.778
62292SOL    HW288651   5.644  13.343   8.858
62293SOL     OW88652   0.621   5.176  10.788
62293SOL    HW188653   0.671   5.179  10.869
62293SOL    HW288654   0.674   5.226  10.725
62294SOL     OW88655   1.069   1.779  12.502
62294SOL    HW188656   0.981   1.752  12.474
62294SOL    HW288657   1.080   1.739  12.588
62295SOL     OW88658  11.997   7.781   6.219
62295SOL    HW188659  11.971   7.698   6.260
62295SOL    HW288660  11.980   7.767   6.126
62296SOL     OW88661   3.334   2.395   9.425
62296SOL    HW188662   3.317   2.327   9.360
62296SOL    HW288663   3.317   2.477   9.379
62297SOL     OW88664   7.738  14.193  13.889
62297SOL    HW188665   7.707  14.189  13.799
62297SOL    HW288666   7.777  14.280  13.897
62298SOL     OW88667  10.275  13.092   5.193
62298SOL    HW188668  10.259  13.078   5.286
62298SOL    HW288669  10.367  13.117   5.187
62299SOL     OW88670   8.731  11.408  10.033
62299SOL    HW188671   8.678  11.377  10.106
62299SOL    HW288672   8.770  11.329   9.996
62300SOL     OW88673   3.538  13.776  12.605
62300SOL    HW188674   3.468  13.776  12.540
62300SOL    HW288675   3.498  13.740  12.684
62301SOL     OW88676  12.610  13.931   1.326
62301SOL    HW188677  12.588  13.893   1.241
62301SOL    HW288678  12.535  13.909   1.382
62302SOL     OW88679   8.314   0.707   0.393
62302SOL    HW188680   8.253   0.682   0.324
62302SOL    HW288681   8.353   0.625   0.422
62303SOL     OW88682  14.837  11.994   8.854
62303SOL    HW188683  14.865  11.920   8.799
62303SOL    HW288684  14.801  12.057   8.792
62304SOL     OW88685   7.010   6.548  14.091
62304SOL    HW188686   7.088   6.603  14.099
62304SOL    HW288687   7.020   6.504  14.007
62305SOL     OW88688   4.648  13.424   0.219
62305SOL    HW188689   4.686  13.342   0.188
62305SOL    HW288690   4.701  13.492   0.176
62306SOL     OW88691   1.464  10.197   1.644
62306SOL    HW188692   1.399  10.230   1.706
62306SOL    HW288693   1.533  10.263   1.645
62307SOL     OW88694  10.871   9.195   6.356
62307SOL    HW188695  10.783   9.197   6.318
62307SOL    HW288696  10.875   9.273   6.411
62308SOL     OW88697   2.496  13.021  10.923
62308SOL    HW188698   2.449  12.968  10.858
62308SOL    HW288699   2.564  12.963  10.955
62309SOL     OW88700   2.684   7.267  11.544
62309SOL    HW188701   2.735   7.241  11.621
62309SOL    HW288702   2.627   7.337  11.575
62310SOL     OW88703  10.756   1.004   7.882
62310SOL    HW188704  10.683   1.065   7.872
62310SOL    HW288705  10.832   1.052   7.848
62311SOL     OW88706   4.891   9.543   6.113
62311SOL    HW188707   4.874   9.452   6.138
62311SOL    HW288708   4.983   9.545   6.087
62312SOL     OW88709   4.418  14.842  11.301
62312SOL    HW188710   4.327  14.818  11.283
62312SOL    HW288711   4.456  14.765  11.342
62313SOL     OW88712   4.838   3.491   8.693
62313SOL    HW188713   4.909   3.426   8.693
62313SOL    HW288714   4.871   3.562   8.749
62314SOL     OW88715   3.077   4.834   5.113
62314SOL    HW188716   3.157   4.886   5.102
62314SOL    HW288717   3.023   4.884   5.172
62315SOL     OW88718   0.849   4.295   2.888
62315SOL    HW188719   0.817   4.323   2.974
62315SOL    HW288720   0.770   4.270   2.840
62316SOL     OW88721  13.572   7.023   7.774
62316SOL    HW188722  13.493   6.971   7.784
62316SOL    HW288723  13.584   7.067   7.858
62317SOL     OW88724  12.610   1.726   2.431
62317SOL    HW188725  12.625   1.715   2.525
62317SOL    HW288726  12.691   1.694   2.390
62318SOL     OW88727   1.422  11.494   6.911
62318SOL    HW188728   1.511  11.517   6.937
62318SOL    HW288729   1.380  11.464   6.991
62319SOL     OW88730   2.877  14.190  11.155
62319SOL    HW188731   2.949  14.223  11.100
62319SOL    HW288732   2.840  14.269  11.194
62320SOL     OW88733   4.764  10.812   9.319
62320SOL    HW188734   4.713  10.892   9.302
62320SOL    HW288735   4.716  10.768   9.389
62321SOL     OW88736   5.811   9.721  13.193
62321SOL    HW188737   5.893   9.672  13.200
62321SOL    HW288738   5.758   9.688  13.266
62322SOL     OW88739   0.642   1.940   5.147
62322SOL    HW188740   0.722   1.992   5.158
62322SOL    HW288741   0.585   1.969   5.219
62323SOL     OW88742   8.014  13.688  14.188
62323SOL    HW188743   8.051  13.770  14.155
62323SOL    HW288744   8.084  13.624  14.176
62324SOL     OW88745  10.417   3.881  12.942
62324SOL    HW188746  10.460   3.960  12.975
62324SOL    HW288747  10.337   3.875  12.993
62325SOL     OW88748  10.160   7.043  13.926
62325SOL    HW188749  10.074   7.033  13.885
62325SOL    HW288750  10.173   7.138  13.931
62326SOL     OW88751   3.075  11.199   3.468
62326SOL    HW188752   3.122  11.249   3.535
62326SOL    HW288753   3.138  11.134   3.437
62327SOL     OW88754   6.875   5.541   0.270
62327SOL    HW188755   6.964   5.513   0.292
62327SOL    HW288756   6.833   5.554   0.354
62328SOL     OW88757  13.323  12.603  12.731
62328SOL    HW188758  13.289  12.606  12.641
62328SOL    HW288759  13.398  12.662  12.730
62329SOL     OW88760   6.181   2.115  11.317
62329SOL    HW188761   6.101   2.159  11.348
62329SOL    HW288762   6.178   2.030  11.360
62330SOL     OW88763   0.706   8.192   4.483
62330SOL    HW188764   0.649   8.127   4.525
62330SOL    HW288765   0.711   8.163   4.392
62331SOL     OW88766   0.851  14.768   1.281
62331SOL    HW188767   0.879  14.706   1.349
62331SOL    HW288768   0.915  14.839   1.286
62332SOL     OW88769   0.899  14.341   6.552
62332SOL    HW188770   0.805  14.328   6.556
62332SOL    HW288771   0.911  14.436   6.557
62333SOL     OW88772   8.377   5.155  13.488
62333SOL    HW188773   8.383   5.243  13.452
62333SOL    HW288774   8.461   5.142  13.532
62334SOL     OW88775  14.370   4.700  12.070
62334SOL    HW188776  14.310   4.652  12.013
62334SOL    HW288777  14.441   4.639  12.088
62335SOL     OW88778   6.765  14.442   3.985
62335SOL    HW188779   6.780  14.468   4.076
62335SOL    HW288780   6.849  14.458   3.942
62336SOL     OW88781   0.057  11.967   9.328
62336SOL    HW188782   0.012  11.910   9.392
62336SOL    HW288783   0.122  12.014   9.380
62337SOL     OW88784  10.398   5.505   4.838
62337SOL    HW188785  10.414   5.543   4.751
62337SOL    HW288786  10.483   5.470   4.865
62338SOL     OW88787   5.949  11.406   9.206
62338SOL    HW188788   5.989  11.452   9.132
62338SOL    HW288789   5.907  11.330   9.166
62339SOL     OW88790  10.577   6.412  11.664
62339SOL    HW188791  10.627   6.490  11.640
62339SOL    HW288792  10.493   6.447  11.696
62340SOL     OW88793  13.041  12.347  13.421
62340SOL    HW188794  13.106  12.289  13.382
62340SOL    HW288795  13.003  12.394  13.346
62341SOL     OW88796   2.419  11.750  11.306
62341SOL    HW188797   2.329  11.719  11.313
62341SOL    HW288798   2.433  11.762  11.212
62342SOL     OW88799   6.425  10.665   0.414
62342SOL    HW188800   6.352  10.618   0.454
62342SOL    HW288801   6.384  10.735   0.364
62343SOL     OW88802  10.516   7.888   2.039
62343SOL    HW188803  10.501   7.958   2.103
62343SOL    HW288804  10.611   7.874   2.040
62344SOL     OW88805  14.381   2.011   2.390
62344SOL    HW188806  14.464   1.985   2.431
62344SOL    HW288807  14.358   1.936   2.335
62345SOL     OW88808  10.853   2.705   6.332
62345SOL    HW188809  10.800   2.784   6.339
62345SOL    HW288810  10.824   2.664   6.250
62346SOL     OW88811   3.858  11.868   9.779
62346SOL    HW188812   3.772  11.835   9.751
62346SOL    HW288813   3.858  11.960   9.752
62347SOL     OW88814   8.992  11.146   8.052
62347SOL    HW188815   9.023  11.059   8.078
62347SOL    HW288816   8.897  11.141   8.059
62348SOL     OW88817   8.591   9.642   1.291
62348SOL    HW188818   8.554   9.716   1.243
62348SOL    HW288819   8.530   9.628   1.364
62349SOL     OW88820  14.129  12.216   4.497
62349SOL    HW188821  14.065  12.169   4.550
62349SOL    HW288822  14.145  12.158   4.422
62350SOL     OW88823  13.390   0.277  12.259
62350SOL    HW188824  13.304   0.298  12.223
62350SOL    HW288825  13.437   0.361  12.259
62351SOL     OW88826   8.945   0.578   9.374
62351SOL    HW188827   8.863   0.621   9.349
62351SOL    HW288828   8.921   0.486   9.386
62352SOL     OW88829  13.356   5.434  10.541
62352SOL    HW188830  13.322   5.412  10.454
62352SOL    HW288831  13.320   5.368  10.599
62353SOL     OW88832   8.989  11.862  13.829
62353SOL    HW188833   9.037  11.808  13.892
62353SOL    HW288834   9.030  11.843  13.745
62354SOL     OW88835   7.401  12.454   3.101
62354SOL    HW188836   7.415  12.465   3.195
62354SOL    HW288837   7.393  12.359   3.089
62355SOL     OW88838  12.633   9.546   0.186
62355SOL    HW188839  12.599   9.504   0.107
62355SOL    HW288840  12.654   9.473   0.244
62356SOL     OW88841   3.179   5.214   2.041
62356SOL    HW188842   3.200   5.262   2.121
62356SOL    HW288843   3.258   5.223   1.987
62357SOL     OW88844  12.560   7.182   4.597
62357SOL    HW188845  12.474   7.178   4.640
62357SOL    HW288846  12.623   7.185   4.670
62358SOL     OW88847  11.698  12.927   9.337
62358SOL    HW188848  11.616  12.905   9.294
62358SOL    HW288849  11.736  12.843   9.364
62359SOL     OW88850   2.328   5.986   9.547
62359SOL    HW188851   2.363   6.045   9.613
62359SOL    HW288852   2.399   5.924   9.529
62360SOL     OW88853   4.910   8.327   8.856
62360SOL    HW188854   4.972   8.350   8.787
62360SOL    HW288855   4.914   8.401   8.917
62361SOL     OW88856   7.191   4.172   8.358
62361SOL    HW188857   7.119   4.112   8.338
62361SOL    HW288858   7.263   4.114   8.383
62362SOL     OW88859   2.430   3.214   3.583
62362SOL    HW188860   2.401   3.205   3.674
62362SOL    HW288861   2.436   3.124   3.551
62363SOL     OW88862   2.518   3.792   5.033
62363SOL    HW188863   2.514   3.867   5.092
62363SOL    HW288864   2.481   3.720   5.083
62364SOL     OW88865   8.904   7.359  12.809
62364SOL    HW188866   8.977   7.417  12.786
62364SOL    HW288867   8.944   7.272  12.815
62365SOL     OW88868   3.623  14.423   1.962
62365SOL    HW188869   3.709  14.432   1.921
62365SOL    HW288870   3.640  14.430   2.056
62366SOL     OW88871   2.198   9.376  11.457
62366SOL    HW188872   2.157   9.409  11.377
62366SOL    HW288873   2.263   9.442  11.480
62367SOL     OW88874  11.096  10.888  10.988
62367SOL    HW188875  11.100  10.962  10.928
62367SOL    HW288876  11.168  10.831  10.960
62368SOL     OW88877  12.005   0.512   7.184
62368SOL    HW188878  12.077   0.569   7.208
62368SOL    HW288879  11.926   0.561   7.207
62369SOL     OW88880  10.755   0.121   0.106
62369SOL    HW188881  10.840   0.104   0.146
62369SOL    HW288882  10.705   0.041   0.120
62370SOL     OW88883   8.855   6.997   2.117
62370SOL    HW188884   8.919   6.941   2.162
62370SOL    HW288885   8.838   7.068   2.179
62371SOL     OW88886  12.576  14.187   6.326
62371SOL    HW188887  12.581  14.231   6.411
62371SOL    HW288888  12.523  14.109   6.341
62372SOL     OW88889   8.997  13.046   7.423
62372SOL    HW188890   8.928  13.112   7.432
62372SOL    HW288891   9.037  13.065   7.338
62373SOL     OW88892   3.091   6.555  14.021
62373SOL    HW188893   3.186   6.564  14.034
62373SOL    HW288894   3.081   6.531  13.929
62374SOL     OW88895   9.124   3.008   8.245
62374SOL    HW188896   9.176   3.050   8.177
62374SOL    HW288897   9.150   3.052   8.326
62375SOL     OW88898   9.996   9.900   5.148
62375SOL    HW188899   9.999   9.932   5.058
62375SOL    HW288900   9.903   9.906   5.172
62376SOL     OW88901  13.027   0.596  10.732
62376SOL    HW188902  12.957   0.556  10.785
62376SOL    HW288903  13.073   0.521  10.694
62377SOL     OW88904   8.612   9.512   0.135
62377SOL    HW188905   8.532   9.481   0.094
62377SOL    HW288906   8.652   9.570   0.071
62378SOL     OW88907   2.823  14.097  13.369
62378SOL    HW188908   2.766  14.108  13.293
62378SOL    HW288909   2.764  14.063  13.437
62379SOL     OW88910   0.905   9.803   9.715
62379SOL    HW188911   0.896   9.858   9.793
62379SOL    HW288912   0.919   9.864   9.643
62380SOL     OW88913  13.957   7.613   9.798
62380SOL    HW188914  13.879   7.637   9.748
62380SOL    HW288915  13.990   7.695   9.833
62381SOL     OW88916   3.086   4.218  12.274
62381SOL    HW188917   3.098   4.207  12.368
62381SOL    HW288918   3.132   4.145  12.234
62382SOL     OW88919  13.115   2.310   6.861
62382SOL    HW188920  13.173   2.275   6.794
62382SOL    HW288921  13.036   2.338   6.813
62383SOL     OW88922   2.416   7.978  13.002
62383SOL    HW188923   2.357   7.961  12.928
62383SOL    HW288924   2.498   7.937  12.977
62384SOL     OW88925  12.836  10.947   8.862
62384SOL    HW188926  12.922  10.921   8.893
62384SOL    HW288927  12.789  10.975   8.940
62385SOL     OW88928   6.907   0.320   8.433
62385SOL    HW188929   6.880   0.228   8.436
62385SOL    HW288930   6.992   0.322   8.477
62386SOL     OW88931   1.955  13.145   9.475
62386SOL    HW188932   1.943  13.237   9.500
62386SOL    HW288933   1.968  13.148   9.380
62387SOL     OW88934   8.374   4.076   2.301
62387SOL    HW188935   8.297   4.078   2.359
62387SOL    HW288936   8.384   3.984   2.276
62388SOL     OW88937   3.864   1.969  12.809
62388SOL    HW188938   3.885   2.041  12.868
62388SOL    HW288939   3.796   2.005  12.752
62389SOL     OW88940   5.365  13.905   1.796
62389SOL    HW188941   5.398  13.815   1.790
62389SOL    HW288942   5.288  13.906   1.740
62390SOL     OW88943   8.350  12.177  10.285
62390SOL    HW188944   8.273  12.122  10.269
62390SOL    HW288945   8.343  12.247  10.220
62391SOL     OW88946  13.711  12.373   4.491
62391SOL    HW188947  13.682  12.291   4.451
62391SOL    HW288948  13.807  12.369   4.485
62392SOL     OW88949   1.742   6.952   8.510
62392SOL    HW188950   1.765   6.957   8.603
62392SOL    HW288951   1.818   6.988   8.465
62393SOL     OW88952   6.185  14.704   5.663
62393SOL    HW188953   6.103  14.740   5.698
62393SOL    HW288954   6.164  14.681   5.573
62394SOL     OW88955  11.430   8.419  13.118
62394SOL    HW188956  11.416   8.330  13.085
62394SOL    HW288957  11.403   8.416  13.209
62395SOL     OW88958   6.707   5.947  12.360
62395SOL    HW188959   6.776   5.887  12.333
62395SOL    HW288960   6.720   6.025  12.306
62396SOL     OW88961  14.789   6.370  10.934
62396SOL    HW188962  14.772   6.413  11.018
62396SOL    HW288963  14.702   6.354  10.897
62397SOL     OW88964   5.854  13.364   9.798
62397SOL    HW188965   5.941  13.336   9.827
62397SOL    HW288966   5.798  13.290   9.817
62398SOL     OW88967   3.023   8.868   7.978
62398SOL    HW188968   3.039   8.960   7.957
62398SOL    HW288969   3.058   8.856   8.066
62399SOL     OW88970  14.765   9.631   2.131
62399SOL    HW188971  14.724   9.559   2.083
62399SOL    HW288972  14.807   9.589   2.206
62400SOL     OW88973   0.382  13.401  11.528
62400SOL    HW188974   0.295  13.427  11.558
62400SOL    HW288975   0.441  13.468  11.563
62401SOL     OW88976   6.401   0.156   7.368
62401SOL    HW188977   6.419   0.249   7.380
62401SOL    HW288978   6.343   0.133   7.441
62402SOL     OW88979   8.126  12.602   7.917
62402SOL    HW188980   8.106  12.510   7.905
62402SOL    HW288981   8.208  12.603   7.967
62403SOL     OW88982   2.068  11.357   7.259
62403SOL    HW188983   2.132  11.299   7.300
62403SOL    HW288984   2.120  11.410   7.198
62404SOL     OW88985   4.629  13.346   7.194
62404SOL    HW188986   4.681  13.303   7.262
62404SOL    HW288987   4.675  13.326   7.113
62405SOL     OW88988   4.284   8.354   0.783
62405SOL    HW188989   4.195   8.355   0.820
62405SOL    HW288990   4.293   8.440   0.742
62406SOL     OW88991   1.385  11.839   8.514
62406SOL    HW188992   1.420  11.768   8.460
62406SOL    HW288993   1.421  11.823   8.602
62407SOL     OW88994  14.044   2.300   2.035
62407SOL    HW188995  14.103   2.228   2.013
62407SOL    HW288996  13.972   2.293   1.972
62408SOL     OW88997   8.463   4.810   4.763
62408SOL    HW188998   8.488   4.900   4.742
62408SOL    HW288999   8.439   4.813   4.856
62409SOL     OW89000   3.546  11.183   6.502
62409SOL    HW189001   3.477  11.119   6.485
62409SOL    HW289002   3.607  11.138   6.561
62410SOL     OW89003   8.891  11.595   2.236
62410SOL    HW189004   8.825  11.527   2.220
62410SOL    HW289005   8.966  11.548   2.271
62411SOL     OW89006   9.691  14.438  11.411
62411SOL    HW189007   9.646  14.374  11.466
62411SOL    HW289008   9.732  14.385  11.342
62412SOL     OW89009   3.335   3.096   6.521
62412SOL    HW189010   3.381   3.058   6.596
62412SOL    HW289011   3.261   3.036   6.506
62413SOL     OW89012  13.288   9.438   4.830
62413SOL    HW189013  13.375   9.457   4.795
62413SOL    HW289014  13.304   9.397   4.915
62414SOL     OW89015  11.039   7.903   9.775
62414SOL    HW189016  11.082   7.827   9.815
62414SOL    HW289017  11.105   7.972   9.778
62415SOL     OW89018   3.530   4.564   8.827
62415SOL    HW189019   3.514   4.658   8.827
62415SOL    HW289020   3.475   4.531   8.898
62416SOL     OW89021  11.605   2.190  14.189
62416SOL    HW189022  11.651   2.109  14.169
62416SOL    HW289023  11.523   2.183  14.141
62417SOL     OW89024  13.206  14.683   4.380
62417SOL    HW189025  13.296  14.655   4.399
62417SOL    HW289026  13.160  14.672   4.462
62418SOL     OW89027   9.109   2.005   5.142
62418SOL    HW189028   9.037   2.066   5.160
62418SOL    HW289029   9.149   1.990   5.228
62419SOL     OW89030  10.404   1.261  11.205
62419SOL    HW189031  10.441   1.253  11.117
62419SOL    HW289032  10.372   1.351  11.210
62420SOL     OW89033  13.857  11.595   0.588
62420SOL    HW189034  13.812  11.603   0.672
62420SOL    HW289035  13.907  11.514   0.595
62421SOL     OW89036  13.900   5.542  10.229
62421SOL    HW189037  13.898   5.637  10.225
62421SOL    HW289038  13.808   5.517  10.238
62422SOL     OW89039  14.245   6.547   7.710
62422SOL    HW189040  14.305   6.483   7.673
62422SOL    HW289041  14.288   6.631   7.697
62423SOL     OW89042  13.789   6.762   5.624
62423SOL    HW189043  13.808   6.831   5.560
62423SOL    HW289044  13.693   6.759   5.629
62424SOL     OW89045  10.118   0.125   9.060
62424SOL    HW189046  10.204   0.160   9.038
62424SOL    HW289047  10.066   0.203   9.083
62425SOL     OW89048   1.734   1.271   3.743
62425SOL    HW189049   1.665   1.324   3.782
62425SOL    HW289050   1.729   1.289   3.649
62426SOL     OW89051  11.942  10.887   2.038
62426SOL    HW189052  11.868  10.947   2.028
62426SOL    HW289053  12.012  10.926   1.986
62427SOL     OW89054   2.361   0.204   3.685
62427SOL    HW189055   2.429   0.196   3.752
62427SOL    HW289056   2.344   0.114   3.657
62428SOL     OW89057   9.610   8.011   4.958
62428SOL    HW189058   9.613   8.041   5.049
62428SOL    HW289059   9.617   7.916   4.964
62429SOL     OW89060   9.182  12.214   2.966
62429SOL    HW189061   9.212  12.132   3.004
62429SOL    HW289062   9.096  12.229   3.006
62430SOL     OW89063   5.634   6.688  11.811
62430SOL    HW189064   5.720   6.680  11.769
62430SOL    HW289065   5.647   6.650  11.898
62431SOL     OW89066   8.367   0.790   4.192
62431SOL    HW189067   8.313   0.712   4.205
62431SOL    HW289068   8.336   0.828   4.110
62432SOL     OW89069  10.170   2.901   8.817
62432SOL    HW189070  10.167   2.938   8.729
62432SOL    HW289071  10.253   2.931   8.854
62433SOL     OW89072   1.236   6.235  10.969
62433SOL    HW189073   1.209   6.320  10.936
62433SOL    HW289074   1.316   6.214  10.920
62434SOL     OW89075   0.036  11.624   8.922
62434SOL    HW189076   0.065  11.681   8.992
62434SOL    HW289077   0.088  11.544   8.931
62435SOL     OW89078   0.298   4.738  14.860
62435SOL    HW189079   0.205   4.760  14.871
62435SOL    HW289080   0.307   4.719  14.766
62436SOL     OW89081   7.430  14.057   1.747
62436SOL    HW189082   7.435  13.971   1.788
62436SOL    HW289083   7.472  14.116   1.809
62437SOL     OW89084  10.010  12.257   3.242
62437SOL    HW189085  10.010  12.170   3.203
62437SOL    HW289086  10.054  12.312   3.177
62438SOL     OW89087   4.433  10.952   2.498
62438SOL    HW189088   4.388  11.012   2.439
62438SOL    HW289089   4.519  10.938   2.457
62439SOL     OW89090   9.371   2.062  13.787
62439SOL    HW189091   9.423   1.982  13.796
62439SOL    HW289092   9.349   2.087  13.877
62440SOL     OW89093   1.077   3.007   2.110
62440SOL    HW189094   1.091   3.049   2.195
62440SOL    HW289095   1.159   2.963   2.090
62441SOL     OW89096  13.366   8.733   8.636
62441SOL    HW189097  13.311   8.715   8.559
62441SOL    HW289098  13.436   8.789   8.602
62442SOL     OW89099  13.569   7.672   2.853
62442SOL    HW189100  13.566   7.764   2.878
62442SOL    HW289101  13.662   7.649   2.854
62443SOL     OW89102   9.987   9.650   1.781
62443SOL    HW189103   9.953   9.701   1.854
62443SOL    HW289104  10.060   9.702   1.746
62444SOL     OW89105   7.671   2.958   0.440
62444SOL    HW189106   7.652   2.996   0.354
62444SOL    HW289107   7.752   3.002   0.468
62445SOL     OW89108  11.750   2.169   8.197
62445SOL    HW189109  11.732   2.089   8.147
62445SOL    HW289110  11.756   2.238   8.131
62446SOL     OW89111  11.327   2.812   4.759
62446SOL    HW189112  11.370   2.728   4.779
62446SOL    HW289113  11.399   2.872   4.743
62447SOL     OW89114   8.987   1.262   4.999
62447SOL    HW189115   8.934   1.319   4.943
62447SOL    HW289116   8.927   1.234   5.068
62448SOL     OW89117   2.955   5.867   2.791
62448SOL    HW189118   2.889   5.805   2.822
62448SOL    HW289119   2.980   5.834   2.705
62449SOL     OW89120   7.377   5.016   0.486
62449SOL    HW189121   7.439   4.943   0.480
62449SOL    HW289122   7.294   4.980   0.456
62450SOL     OW89123  11.731   3.300  10.342
62450SOL    HW189124  11.743   3.241  10.416
62450SOL    HW289125  11.820   3.318  10.311
62451SOL     OW89126  10.916   8.343   2.306
62451SOL    HW189127  10.903   8.344   2.400
62451SOL    HW289128  11.001   8.301   2.294
62452SOL     OW89129   9.273   3.671   7.326
62452SOL    HW189130   9.309   3.632   7.246
62452SOL    HW289131   9.348   3.708   7.371
62453SOL     OW89132   3.575  13.954   6.115
62453SOL    HW189133   3.533  13.869   6.127
62453SOL    HW289134   3.513  14.017   6.152
62454SOL     OW89135  13.416  10.863   8.442
62454SOL    HW189136  13.492  10.921   8.451
62454SOL    HW289137  13.431  10.816   8.360
62455SOL     OW89138   0.896   4.473   6.207
62455SOL    HW189139   0.905   4.506   6.296
62455SOL    HW289140   0.957   4.525   6.155
62456SOL     OW89141   3.842   5.470   9.094
62456SOL    HW189142   3.913   5.508   9.145
62456SOL    HW289143   3.821   5.388   9.140
62457SOL     OW89144  13.426   8.677   2.536
62457SOL    HW189145  13.515   8.709   2.522
62457SOL    HW289146  13.411   8.615   2.465
62458SOL     OW89147  12.383   2.848   4.652
62458SOL    HW189148  12.334   2.871   4.573
62458SOL    HW289149  12.369   2.922   4.711
62459SOL     OW89150   0.267   8.917  11.574
62459SOL    HW189151   0.231   8.899  11.661
62459SOL    HW289152   0.302   8.832  11.545
62460SOL     OW89153   9.723   7.143   2.133
62460SOL    HW189154   9.683   7.119   2.217
62460SOL    HW289155   9.691   7.231   2.115
62461SOL     OW89156   8.822   0.393   9.543
62461SOL    HW189157   8.830   0.376   9.637
62461SOL    HW289158   8.769   0.320   9.510
62462SOL     OW89159  10.545  14.320   1.107
62462SOL    HW189160  10.584  14.242   1.069
62462SOL    HW289161  10.454  14.296   1.123
62463SOL     OW89162   0.680  10.201   7.589
62463SOL    HW189163   0.659  10.282   7.635
62463SOL    HW289164   0.763  10.220   7.544
62464SOL     OW89165   1.291   2.104   3.951
62464SOL    HW189166   1.375   2.062   3.931
62464SOL    HW289167   1.229   2.061   3.892
62465SOL     OW89168  11.932   4.144  14.467
62465SOL    HW189169  11.954   4.112  14.555
62465SOL    HW289170  11.854   4.198  14.480
62466SOL     OW89171   1.019  13.645  11.701
62466SOL    HW189172   1.017  13.663  11.607
62466SOL    HW289173   1.109  13.615  11.718
62467SOL     OW89174  13.852  10.892   6.607
62467SOL    HW189175  13.852  10.804   6.644
62467SOL    HW289176  13.766  10.928   6.631
62468SOL     OW89177   1.539  14.516  11.714
62468SOL    HW189178   1.578  14.453  11.653
62468SOL    HW289179   1.597  14.514  11.790
62469SOL     OW89180  10.308   2.667   5.095
62469SOL    HW189181  10.215   2.655   5.118
62469SOL    HW289182  10.328   2.595   5.036
62470SOL     OW89183   7.350   9.381  14.073
62470SOL    HW189184   7.413   9.398  14.003
62470SOL    HW289185   7.366   9.450  14.137
62471SOL     OW89186   8.833  14.397   7.637
62471SOL    HW189187   8.864  14.429   7.721
62471SOL    HW289188   8.793  14.474   7.596
62472SOL     OW89189  11.320  11.686   9.511
62472SOL    HW189190  11.403  11.706   9.468
62472SOL    HW289191  11.344  11.628   9.583
62473SOL     OW89192   7.844   9.014  10.924
62473SOL    HW189193   7.870   9.032  11.014
62473SOL    HW289194   7.916   8.964  10.887
62474SOL     OW89195  12.340   4.295  12.182
62474SOL    HW189196  12.404   4.228  12.157
62474SOL    HW289197  12.267   4.281  12.122
62475SOL     OW89198   6.206   0.335  13.999
62475SOL    HW189199   6.223   0.241  13.995
62475SOL    HW289200   6.225   0.366  13.910
62476SOL     OW89201   9.962  11.966   0.408
62476SOL    HW189202  10.043  12.016   0.396
62476SOL    HW289203   9.960  11.946   0.502
62477SOL     OW89204   7.079  13.389   0.258
62477SOL    HW189205   7.012  13.428   0.314
62477SOL    HW289206   7.071  13.436   0.175
62478SOL     OW89207   5.123   2.645   2.405
62478SOL    HW189208   5.089   2.732   2.383
62478SOL    HW289209   5.047   2.598   2.439
62479SOL     OW89210   9.604   1.572  12.051
62479SOL    HW189211   9.655   1.647  12.083
62479SOL    HW289212   9.514   1.592  12.077
62480SOL     OW89213   7.977  13.753  10.172
62480SOL    HW189214   8.015  13.788  10.092
62480SOL    HW289215   7.994  13.659  10.167
62481SOL     OW89216  12.008   3.894   6.926
62481SOL    HW189217  11.943   3.961   6.906
62481SOL    HW289218  12.073   3.940   6.981
62482SOL     OW89219   9.963   2.325   0.532
62482SOL    HW189220   9.925   2.399   0.580
62482SOL    HW289221   9.890   2.266   0.517
62483SOL     OW89222  12.655  10.715   8.177
62483SOL    HW189223  12.595  10.778   8.138
62483SOL    HW289224  12.600  10.639   8.197
62484SOL     OW89225   3.854  10.116   2.172
62484SOL    HW189226   3.830  10.058   2.244
62484SOL    HW289227   3.771  10.157   2.146
62485SOL     OW89228   4.987  13.103  13.302
62485SOL    HW189229   5.044  13.147  13.364
62485SOL    HW289230   4.899  13.135  13.322
62486SOL     OW89231  11.003  11.460  10.784
62486SOL    HW189232  10.997  11.382  10.840
62486SOL    HW289233  10.913  11.476  10.756
62487SOL     OW89234   4.662   4.153   9.520
62487SOL    HW189235   4.704   4.083   9.471
62487SOL    HW289236   4.650   4.224   9.457
62488SOL     OW89237  14.232   1.750   4.773
62488SOL    HW189238  14.263   1.801   4.848
62488SOL    HW289239  14.269   1.793   4.697
62489SOL     OW89240   1.069   2.402   0.031
62489SOL    HW189241   1.104   2.454  14.836
62489SOL    HW289242   0.997   2.353  14.871
62490SOL     OW89243   5.401   3.394   1.747
62490SOL    HW189244   5.456   3.317   1.760
62490SOL    HW289245   5.375   3.390   1.655
62491SOL     OW89246  14.543   1.839   4.113
62491SOL    HW189247  14.473   1.774   4.122
62491SOL    HW289248  14.587   1.837   4.197
62492SOL     OW89249   8.899  12.669   6.194
62492SOL    HW189250   8.842  12.661   6.270
62492SOL    HW289251   8.866  12.604   6.132
62493SOL     OW89252  10.560   3.519  11.943
62493SOL    HW189253  10.508   3.494  12.019
62493SOL    HW289254  10.535   3.457  11.874
62494SOL     OW89255   2.190  11.000   5.677
62494SOL    HW189256   2.218  10.990   5.768
62494SOL    HW289257   2.104  10.957   5.674
62495SOL     OW89258   9.079  10.864   1.985
62495SOL    HW189259   9.153  10.923   1.999
62495SOL    HW289260   9.095  10.826   1.899
62496SOL     OW89261   1.287   9.892   3.649
62496SOL    HW189262   1.371   9.861   3.682
62496SOL    HW289263   1.223   9.833   3.690
62497SOL     OW89264   9.165   6.135   3.638
62497SOL    HW189265   9.210   6.203   3.588
62497SOL    HW289266   9.072   6.150   3.622
62498SOL     OW89267   9.265  11.041   2.066
62498SOL    HW189268   9.206  11.112   2.039
62498SOL    HW289269   9.332  11.039   1.999
62499SOL     OW89270   4.729  13.080   5.217
62499SOL    HW189271   4.699  13.158   5.170
62499SOL    HW289272   4.651  13.024   5.223
62500SOL     OW89273   1.889  10.277   0.735
62500SOL    HW189274   1.963  10.236   0.781
62500SOL    HW289275   1.857  10.342   0.797
62501SOL     OW89276   5.636  10.686   8.785
62501SOL    HW189277   5.721  10.642   8.794
62501SOL    HW289278   5.609  10.704   8.875
62502SOL     OW89279   2.263   1.243  11.912
62502SOL    HW189280   2.347   1.231  11.957
62502SOL    HW289281   2.239   1.333  11.931
62503SOL     OW89282   7.086   8.575   1.048
62503SOL    HW189283   7.143   8.606   1.119
62503SOL    HW289284   7.040   8.500   1.086
62504SOL     OW89285  12.066   5.631   3.275
62504SOL    HW189286  12.078   5.723   3.249
62504SOL    HW289287  12.096   5.628   3.365
62505SOL     OW89288   0.359   7.418  10.588
62505SOL    HW189289   0.410   7.348  10.628
62505SOL    HW289290   0.353   7.486  10.655
62506SOL     OW89291  13.491   7.869   9.398
62506SOL    HW189292  13.464   7.782   9.429
62506SOL    HW289293  13.409   7.910   9.367
62507SOL     OW89294   9.666   5.935   1.487
62507SOL    HW189295   9.630   6.010   1.439
62507SOL    HW289296   9.661   5.862   1.425
62508SOL     OW89297   7.332   6.930   6.878
62508SOL    HW189298   7.419   6.914   6.915
62508SOL    HW289299   7.349   6.967   6.791
62509SOL     OW89300   1.713   1.800   8.901
62509SOL    HW189301   1.664   1.882   8.893
62509SOL    HW289302   1.804   1.826   8.885
62510SOL     OW89303   0.397  11.967  11.524
62510SOL    HW189304   0.352  12.000  11.602
62510SOL    HW289305   0.454  12.039  11.497
62511SOL     OW89306   9.150   8.126  13.506
62511SOL    HW189307   9.154   8.213  13.466
62511SOL    HW289308   9.228   8.120  13.560
62512SOL     OW89309  10.367  13.489  10.716
62512SOL    HW189310  10.427  13.514  10.786
62512SOL    HW289311  10.397  13.402  10.689
62513SOL     OW89312   9.784  10.209   8.005
62513SOL    HW189313   9.848  10.276   7.981
62513SOL    HW289314   9.708  10.259   8.037
62514SOL     OW89315   2.849   2.190   7.138
62514SOL    HW189316   2.846   2.097   7.119
62514SOL    HW289317   2.805   2.199   7.223
62515SOL     OW89318  14.370   3.618   6.893
62515SOL    HW189319  14.383   3.699   6.842
62515SOL    HW289320  14.354   3.551   6.827
62516SOL     OW89321   0.061   7.519  12.989
62516SOL    HW189322   0.083   7.565  12.908
62516SOL    HW289323   0.136   7.534  13.047
62517SOL     OW89324   1.607   6.725   6.446
62517SOL    HW189325   1.629   6.803   6.395
62517SOL    HW289326   1.552   6.673   6.387
62518SOL     OW89327  13.621  12.885  13.970
62518SOL    HW189328  13.687  12.856  14.033
62518SOL    HW289329  13.656  12.860  13.885
62519SOL     OW89330   4.965   3.093  13.532
62519SOL    HW189331   4.923   3.006  13.537
62519SOL    HW289332   5.057   3.074  13.515
62520SOL     OW89333  11.010   0.975   4.736
62520SOL    HW189334  11.099   0.944   4.718
62520SOL    HW289335  11.015   1.070   4.726
62521SOL     OW89336   8.656  11.124   4.306
62521SOL    HW189337   8.625  11.034   4.302
62521SOL    HW289338   8.681  11.145   4.216
62522SOL     OW89339   4.084   8.845   2.747
62522SOL    HW189340   4.161   8.899   2.764
62522SOL    HW289341   4.012   8.908   2.738
62523SOL     OW89342   1.923  11.348   6.026
62523SOL    HW189343   1.909  11.277   5.964
62523SOL    HW289344   1.982  11.409   5.980
62524SOL     OW89345   7.398   1.901   4.451
62524SOL    HW189346   7.322   1.893   4.393
62524SOL    HW289347   7.372   1.966   4.516
62525SOL     OW89348   6.854   2.419   4.731
62525SOL    HW189349   6.773   2.382   4.697
62525SOL    HW289350   6.864   2.502   4.685
62526SOL     OW89351   6.369   6.994   2.432
62526SOL    HW189352   6.448   7.047   2.430
62526SOL    HW289353   6.396   6.911   2.471
62527SOL     OW89354   0.769   5.415   9.328
62527SOL    HW189355   0.779   5.396   9.422
62527SOL    HW289356   0.688   5.465   9.321
62528SOL     OW89357  11.822   3.091   1.453
62528SOL    HW189358  11.853   3.046   1.374
62528SOL    HW289359  11.731   3.065   1.461
62529SOL     OW89360   5.679   1.043   2.393
62529SOL    HW189361   5.595   1.028   2.350
62529SOL    HW289362   5.675   0.990   2.472
62530SOL     OW89363  13.942   5.250   9.938
62530SOL    HW189364  13.856   5.227   9.975
62530SOL    HW289365  13.992   5.281  10.014
62531SOL     OW89366  12.547  12.084  12.886
62531SOL    HW189367  12.597  12.012  12.927
62531SOL    HW289368  12.525  12.051  12.799
62532SOL     OW89369   6.226   4.829  11.127
62532SOL    HW189370   6.190   4.757  11.075
62532SOL    HW289371   6.213   4.907  11.073
62533SOL     OW89372  14.868   9.774   8.623
62533SOL    HW189373  14.797   9.721   8.586
62533SOL    HW289374   0.067   9.749   8.572
62534SOL     OW89375   6.468   5.884  12.965
62534SOL    HW189376   6.476   5.897  12.871
62534SOL    HW289377   6.513   5.802  12.982
62535SOL     OW89378   3.808  11.032   8.706
62535SOL    HW189379   3.868  11.101   8.678
62535SOL    HW289380   3.725  11.078   8.720
62536SOL     OW89381  13.176  11.585   7.669
62536SOL    HW189382  13.268  11.560   7.661
62536SOL    HW289383  13.140  11.524   7.733
62537SOL     OW89384   3.213  12.455  10.936
62537SOL    HW189385   3.268  12.528  10.964
62537SOL    HW289386   3.141  12.496  10.887
62538SOL     OW89387   0.900  13.117   8.335
62538SOL    HW189388   0.985  13.082   8.309
62538SOL    HW289389   0.863  13.049   8.391
62539SOL     OW89390  12.780   3.005  11.300
62539SOL    HW189391  12.738   3.091  11.303
62539SOL    HW289392  12.868   3.020  11.336
62540SOL     OW89393  10.899   1.605   4.626
62540SOL    HW189394  10.904   1.669   4.555
62540SOL    HW289395  10.809   1.613   4.659
62541SOL     OW89396   8.430   4.542   0.153
62541SOL    HW189397   8.456   4.571   0.240
62541SOL    HW289398   8.494   4.584   0.094
62542SOL     OW89399   5.769   2.750   3.103
62542SOL    HW189400   5.677   2.725   3.094
62542SOL    HW289401   5.777   2.779   3.194
62543SOL     OW89402   9.875  12.438   6.836
62543SOL    HW189403   9.827  12.435   6.919
62543SOL    HW289404   9.848  12.358   6.790
62544SOL     OW89405  14.276   0.051   3.361
62544SOL    HW189406  14.306   0.141   3.348
62544SOL    HW289407  14.320   0.022   3.440
62545SOL     OW89408   0.150   6.973   6.049
62545SOL    HW189409   0.105   7.034   5.991
62545SOL    HW289410   0.182   7.028   6.121
62546SOL     OW89411   4.111  12.973   4.988
62546SOL    HW189412   4.058  13.032   5.041
62546SOL    HW289413   4.074  12.886   5.005
62547SOL     OW89414  11.377   5.512   4.670
62547SOL    HW189415  11.350   5.595   4.709
62547SOL    HW289416  11.424   5.467   4.740
62548SOL     OW89417   6.972   5.856   6.305
62548SOL    HW189418   6.900   5.798   6.281
62548SOL    HW289419   6.936   5.944   6.293
62549SOL     OW89420  10.838   0.406   7.786
62549SOL    HW189421  10.872   0.356   7.860
62549SOL    HW289422  10.905   0.472   7.769
62550SOL     OW89423  12.976   3.370   7.993
62550SOL    HW189424  13.023   3.358   8.076
62550SOL    HW289425  13.041   3.409   7.935
62551SOL     OW89426   8.487  14.035   7.394
62551SOL    HW189427   8.453  13.985   7.319
62551SOL    HW289428   8.442  13.997   7.469
62552SOL     OW89429   6.551   7.800   3.434
62552SOL    HW189430   6.562   7.890   3.402
62552SOL    HW289431   6.456   7.787   3.438
62553SOL     OW89432   2.068   8.327  13.332
62553SOL    HW189433   2.121   8.332  13.411
62553SOL    HW289434   2.017   8.408  13.331
62554SOL     OW89435   4.971   1.001   1.321
62554SOL    HW189436   5.065   1.009   1.337
62554SOL    HW289437   4.955   0.906   1.321
62555SOL     OW89438  12.414  11.230  13.618
62555SOL    HW189439  12.440  11.247  13.527
62555SOL    HW289440  12.451  11.144  13.637
62556SOL     OW89441   7.113   9.825   0.722
62556SOL    HW189442   7.136   9.895   0.660
62556SOL    HW289443   7.142   9.858   0.807
62557SOL     OW89444  12.033   6.202   9.346
62557SOL    HW189445  11.969   6.140   9.380
62557SOL    HW289446  12.110   6.192   9.403
62558SOL     OW89447  11.674   6.452   4.611
62558SOL    HW189448  11.628   6.399   4.546
62558SOL    HW289449  11.605   6.505   4.651
62559SOL     OW89450  11.315   5.363   9.730
62559SOL    HW189451  11.396   5.414   9.718
62559SOL    HW289452  11.334   5.280   9.687
62560SOL     OW89453   0.646   9.571   6.781
62560SOL    HW189454   0.724   9.614   6.816
62560SOL    HW289455   0.650   9.586   6.687
62561SOL     OW89456   4.626  12.482   8.677
62561SOL    HW189457   4.715  12.502   8.650
62561SOL    HW289458   4.571  12.544   8.628
62562SOL     OW89459  11.708   0.248  11.716
62562SOL    HW189460  11.778   0.191  11.746
62562SOL    HW289461  11.732   0.335  11.748
62563SOL     OW89462   1.813   8.444   9.904
62563SOL    HW189463   1.746   8.508   9.882
62563SOL    HW289464   1.849   8.416   9.819
62564SOL     OW89465   3.264   6.356   1.398
62564SOL    HW189466   3.176   6.375   1.365
62564SOL    HW289467   3.320   6.422   1.358
62565SOL     OW89468  12.766  14.126   1.182
62565SOL    HW189469  12.835  14.139   1.247
62565SOL    HW289470  12.692  14.092   1.232
62566SOL     OW89471   0.820   1.466  13.440
62566SOL    HW189472   0.801   1.434  13.352
62566SOL    HW289473   0.887   1.533  13.428
62567SOL     OW89474   5.908   2.632   4.643
62567SOL    HW189475   5.899   2.722   4.610
62567SOL    HW289476   5.888   2.577   4.568
62568SOL     OW89477   9.762  11.517   7.935
62568SOL    HW189478   9.857  11.508   7.933
62568SOL    HW289479   9.745  11.583   8.003
62569SOL     OW89480  11.778   8.202   1.317
62569SOL    HW189481  11.799   8.186   1.409
62569SOL    HW289482  11.688   8.236   1.319
62570SOL     OW89483   2.138   0.756   7.870
62570SOL    HW189484   2.169   0.702   7.943
62570SOL    HW289485   2.046   0.772   7.889
62571SOL     OW89486   6.554   2.081  13.521
62571SOL    HW189487   6.639   2.082  13.477
62571SOL    HW289488   6.575   2.079  13.614
62572SOL     OW89489   2.387   9.438   8.077
62572SOL    HW189490   2.351   9.523   8.052
62572SOL    HW289491   2.312   9.380   8.082
62573SOL     OW89492   0.892   4.514   0.152
62573SOL    HW189493   0.923   4.601   0.176
62573SOL    HW289494   0.971   4.459   0.154
62574SOL     OW89495   2.899   3.212  10.397
62574SOL    HW189496   2.873   3.232  10.487
62574SOL    HW289497   2.991   3.239  10.393
62575SOL     OW89498   6.838   9.595   2.579
62575SOL    HW189499   6.805   9.592   2.669
62575SOL    HW289500   6.928   9.562   2.586
62576SOL     OW89501   3.436  11.177   8.143
62576SOL    HW189502   3.502  11.121   8.183
62576SOL    HW289503   3.396  11.123   8.075
62577SOL     OW89504   7.978   1.890   5.723
62577SOL    HW189505   8.074   1.894   5.721
62577SOL    HW289506   7.959   1.825   5.791
62578SOL     OW89507   9.487   8.901   8.154
62578SOL    HW189508   9.577   8.932   8.153
62578SOL    HW289509   9.468   8.885   8.247
62579SOL     OW89510  13.058   1.068  10.815
62579SOL    HW189511  12.995   1.030  10.754
62579SOL    HW289512  13.073   1.157  10.781
62580SOL     OW89513   1.742  12.478  11.086
62580SOL    HW189514   1.712  12.564  11.057
62580SOL    HW289515   1.780  12.438  11.008
62581SOL     OW89516   0.418  12.359   7.013
62581SOL    HW189517   0.357  12.418   7.056
62581SOL    HW289518   0.410  12.379   6.920
62582SOL     OW89519  10.898   8.971  12.805
62582SOL    HW189520  10.928   8.963  12.714
62582SOL    HW289521  10.855   8.887  12.823
62583SOL     OW89522  12.652   0.028   6.992
62583SOL    HW189523  12.604  14.834   6.950
62583SOL    HW289524  12.722   0.049   6.930
62584SOL     OW89525  13.125   1.367   5.205
62584SOL    HW189526  13.068   1.291   5.189
62584SOL    HW289527  13.067   1.442   5.199
62585SOL     OW89528  13.842   1.135   2.263
62585SOL    HW189529  13.747   1.123   2.256
62585SOL    HW289530  13.862   1.117   2.354
62586SOL     OW89531   5.380   9.909   1.474
62586SOL    HW189532   5.384   9.818   1.444
62586SOL    HW289533   5.290   9.921   1.503
62587SOL     OW89534   8.091   0.116   9.646
62587SOL    HW189535   8.161   0.051   9.651
62587SOL    HW289536   8.101   0.167   9.727
62588SOL     OW89537   1.292   6.280   0.241
62588SOL    HW189538   1.308   6.370   0.213
62588SOL    HW289539   1.297   6.283   0.336
62589SOL     OW89540   1.503   6.950   3.786
62589SOL    HW189541   1.568   6.883   3.765
62589SOL    HW289542   1.427   6.927   3.733
62590SOL     OW89543   3.609   3.784   9.702
62590SOL    HW189544   3.593   3.714   9.639
62590SOL    HW289545   3.705   3.795   9.702
62591SOL     OW89546   4.638   9.695  14.011
62591SOL    HW189547   4.672   9.622  13.960
62591SOL    HW289548   4.681   9.772  13.975
62592SOL     OW89549   1.570   5.743   4.833
62592SOL    HW189550   1.512   5.674   4.802
62592SOL    HW289551   1.653   5.699   4.853
62593SOL     OW89552   6.417   5.909   8.107
62593SOL    HW189553   6.403   6.001   8.083
62593SOL    HW289554   6.510   5.893   8.089
62594SOL     OW89555   9.195   4.352   1.061
62594SOL    HW189556   9.223   4.269   1.101
62594SOL    HW289557   9.277   4.396   1.039
62595SOL     OW89558   0.634  11.902   3.512
62595SOL    HW189559   0.698  11.846   3.556
62595SOL    HW289560   0.686  11.967   3.466
62596SOL     OW89561   1.249   4.957  12.491
62596SOL    HW189562   1.173   4.934  12.545
62596SOL    HW289563   1.282   5.039  12.529
62597SOL     OW89564   9.221   3.675   0.381
62597SOL    HW189565   9.172   3.597   0.406
62597SOL    HW289566   9.157   3.730   0.337
62598SOL     OW89567   8.051   1.696   1.931
62598SOL    HW189568   7.991   1.623   1.947
62598SOL    HW289569   7.996   1.774   1.936
62599SOL     OW89570  13.493  14.383   8.513
62599SOL    HW189571  13.548  14.459   8.492
62599SOL    HW289572  13.415  14.420   8.554
62600SOL     OW89573  12.544   1.800   5.825
62600SOL    HW189574  12.514   1.750   5.749
62600SOL    HW289575  12.489   1.771   5.897
62601SOL     OW89576  10.952  11.000  12.760
62601SOL    HW189577  10.934  11.025  12.669
62601SOL    HW289578  10.878  10.944  12.784
62602SOL     OW89579  13.818   7.202   2.262
62602SOL    HW189580  13.882   7.269   2.240
62602SOL    HW289581  13.813   7.146   2.185
62603SOL     OW89582   4.817   8.278   3.218
62603SOL    HW189583   4.849   8.221   3.148
62603SOL    HW289584   4.726   8.296   3.195
62604SOL     OW89585   1.417   3.057  10.836
62604SOL    HW189586   1.391   2.980  10.787
62604SOL    HW289587   1.438   3.024  10.924
62605SOL     OW89588   7.609   7.243  12.520
62605SOL    HW189589   7.629   7.328  12.481
62605SOL    HW289590   7.634   7.180  12.453
62606SOL     OW89591  12.777  11.139   8.676
62606SOL    HW189592  12.683  11.123   8.685
62606SOL    HW289593  12.814  11.111   8.760
62607SOL     OW89594   3.224   2.982  11.684
62607SOL    HW189595   3.253   3.047  11.749
62607SOL    HW289596   3.184   2.912  11.737
62608SOL     OW89597  10.200   3.123  14.832
62608SOL    HW189598  10.263   3.196  14.834
62608SOL    HW289599  10.161   3.128  14.745
62609SOL     OW89600   4.453   1.580   5.000
62609SOL    HW189601   4.463   1.622   4.914
62609SOL    HW289602   4.358   1.571   5.011
62610SOL     OW89603   7.178   7.201   5.915
62610SOL    HW189604   7.207   7.197   5.823
62610SOL    HW289605   7.142   7.114   5.932
62611SOL     OW89606   0.188   4.449  10.622
62611SOL    HW189607   0.177   4.428  10.529
62611SOL    HW289608   0.104   4.426  10.662
62612SOL     OW89609  13.823   8.150   4.291
62612SOL    HW189610  13.857   8.233   4.259
62612SOL    HW289611  13.831   8.155   4.386
62613SOL     OW89612  11.979  10.182   7.980
62613SOL    HW189613  11.904  10.215   7.930
62613SOL    HW289614  12.036  10.258   7.990
62614SOL     OW89615   0.933   1.656  10.824
62614SOL    HW189616   0.973   1.654  10.912
62614SOL    HW289617   0.984   1.721  10.776
62615SOL     OW89618   2.787  12.887  11.262
62615SOL    HW189619   2.845  12.958  11.235
62615SOL    HW289620   2.840  12.835  11.322
62616SOL     OW89621  13.494   2.202  10.634
62616SOL    HW189622  13.502   2.272  10.699
62616SOL    HW289623  13.576   2.153  10.641
62617SOL     OW89624   1.121   8.463   9.564
62617SOL    HW189625   1.085   8.526   9.500
62617SOL    HW289626   1.209   8.496   9.583
62618SOL     OW89627   8.396   6.756   8.188
62618SOL    HW189628   8.418   6.664   8.204
62618SOL    HW289629   8.481   6.800   8.182
62619SOL     OW89630   2.953   7.583   8.971
62619SOL    HW189631   3.021   7.518   8.993
62619SOL    HW289632   2.975   7.659   9.025
62620SOL     OW89633  14.145   0.873  12.145
62620SOL    HW189634  14.108   0.960  12.125
62620SOL    HW289635  14.227   0.871  12.095
62621SOL     OW89636   6.571   0.340   9.310
62621SOL    HW189637   6.644   0.318   9.366
62621SOL    HW289638   6.593   0.425   9.272
62622SOL     OW89639  10.830  11.190   6.524
62622SOL    HW189640  10.804  11.187   6.432
62622SOL    HW289641  10.766  11.135   6.569
62623SOL     OW89642  13.936   0.581   3.249
62623SOL    HW189643  13.979   0.647   3.304
62623SOL    HW289644  13.925   0.625   3.164
62624SOL     OW89645  11.224  11.268   7.746
62624SOL    HW189646  11.134  11.283   7.719
62624SOL    HW289647  11.217  11.239   7.837
62625SOL     OW89648   4.307   3.604  13.250
62625SOL    HW189649   4.273   3.651  13.174
62625SOL    HW289650   4.230   3.588  13.305
62626SOL     OW89651  12.148   1.607   1.571
62626SOL    HW189652  12.157   1.672   1.642
62626SOL    HW289653  12.234   1.605   1.530
62627SOL     OW89654   4.772   0.437   8.165
62627SOL    HW189655   4.680   0.436   8.193
62627SOL    HW289656   4.769   0.414   8.072
62628SOL     OW89657   9.004   3.406   1.335
62628SOL    HW189658   8.995   3.374   1.425
62628SOL    HW289659   9.088   3.451   1.333
62629SOL     OW89660  11.591  10.117   8.918
62629SOL    HW189661  11.608  10.099   9.010
62629SOL    HW289662  11.537  10.044   8.888
62630SOL     OW89663   8.054   2.499  11.833
62630SOL    HW189664   7.960   2.490  11.817
62630SOL    HW289665   8.088   2.540  11.753
62631SOL     OW89666  14.467  12.884   7.823
62631SOL    HW189667  14.523  12.895   7.901
62631SOL    HW289668  14.378  12.887   7.857
62632SOL     OW89669   3.043   5.940   1.247
62632SOL    HW189670   3.104   5.944   1.320
62632SOL    HW289671   2.962   5.906   1.285
62633SOL     OW89672  14.227  14.629   0.465
62633SOL    HW189673  14.316  14.657   0.441
62633SOL    HW289674  14.236  14.538   0.490
62634SOL     OW89675  10.344   3.822   4.933
62634SOL    HW189676  10.324   3.768   5.009
62634SOL    HW289677  10.259   3.841   4.894
62635SOL     OW89678   5.607   2.908  13.645
62635SOL    HW189679   5.640   2.842  13.707
62635SOL    HW289680   5.542   2.861  13.592
62636SOL     OW89681  10.999  10.453  14.588
62636SOL    HW189682  11.078  10.437  14.536
62636SOL    HW289683  10.996  10.548  14.598
62637SOL     OW89684   7.601  12.297   5.498
62637SOL    HW189685   7.652  12.217   5.509
62637SOL    HW289686   7.510  12.268   5.505
62638SOL     OW89687   2.731  10.625  10.521
62638SOL    HW189688   2.774  10.618  10.606
62638SOL    HW289689   2.639  10.637  10.543
62639SOL     OW89690   2.216  10.591   3.850
62639SOL    HW189691   2.201  10.532   3.924
62639SOL    HW289692   2.234  10.534   3.776
62640SOL     OW89693   4.538   2.026  11.859
62640SOL    HW189694   4.594   2.005  11.933
62640SOL    HW289695   4.501   2.112  11.880
62641SOL     OW89696   1.747  10.681  10.334
62641SOL    HW189697   1.717  10.685  10.425
62641SOL    HW289698   1.673  10.715  10.283
62642SOL     OW89699   2.160   1.850   3.804
62642SOL    HW189700   2.127   1.764   3.778
62642SOL    HW289701   2.211   1.880   3.729
62643SOL     OW89702   1.977   1.278  11.119
62643SOL    HW189703   2.003   1.188  11.140
62643SOL    HW289704   2.007   1.330  11.194
62644SOL     OW89705  14.419  14.207   5.020
62644SOL    HW189706  14.420  14.242   4.931
62644SOL    HW289707  14.331  14.171   5.032
62645SOL     OW89708  14.757   7.519   8.616
62645SOL    HW189709  14.665   7.526   8.639
62645SOL    HW289710  14.803   7.520   8.700
62646SOL     OW89711  10.933   0.226   5.690
62646SOL    HW189712  10.918   0.215   5.784
62646SOL    HW289713  10.991   0.154   5.666
62647SOL     OW89714  13.164  10.961   5.327
62647SOL    HW189715  13.255  10.967   5.355
62647SOL    HW289716  13.159  11.015   5.248
62648SOL     OW89717  10.917  12.867  10.148
62648SOL    HW189718  10.873  12.946  10.118
62648SOL    HW289719  11.009  12.892  10.160
62649SOL     OW89720  10.357   2.269  13.078
62649SOL    HW189721  10.367   2.264  13.173
62649SOL    HW289722  10.262   2.277  13.064
62650SOL     OW89723  11.683   2.660  10.774
62650SOL    HW189724  11.597   2.701  10.768
62650SOL    HW289725  11.740   2.713  10.718
62651SOL     OW89726   8.920  12.918  10.030
62651SOL    HW189727   8.948  12.967  10.107
62651SOL    HW289728   8.874  12.842  10.065
62652SOL     OW89729   2.445   1.932  12.908
62652SOL    HW189730   2.426   2.025  12.895
62652SOL    HW289731   2.407   1.889  12.831
62653SOL     OW89732   0.255   8.635   4.004
62653SOL    HW189733   0.295   8.628   3.917
62653SOL    HW289734   0.306   8.702   4.048
62654SOL     OW89735   9.121  14.134  12.110
62654SOL    HW189736   9.102  14.043  12.132
62654SOL    HW289737   9.035  14.177  12.107
62655SOL     OW89738   2.591  13.834   8.580
62655SOL    HW189739   2.525  13.814   8.647
62655SOL    HW289740   2.563  13.918   8.543
62656SOL     OW89741   3.853  11.645  14.124
62656SOL    HW189742   3.875  11.678  14.037
62656SOL    HW289743   3.802  11.565  14.108
62657SOL     OW89744  11.539   0.799  13.188
62657SOL    HW189745  11.514   0.889  13.207
62657SOL    HW289746  11.540   0.794  13.093
62658SOL     OW89747   0.741  12.269   1.637
62658SOL    HW189748   0.745  12.222   1.554
62658SOL    HW289749   0.817  12.327   1.636
62659SOL     OW89750  10.968   2.285  10.275
62659SOL    HW189751  10.981   2.375  10.243
62659SOL    HW289752  10.995   2.287  10.366
62660SOL     OW89753  11.734   5.271   3.038
62660SOL    HW189754  11.742   5.317   2.954
62660SOL    HW289755  11.755   5.337   3.103
62661SOL     OW89756   8.589  13.806  12.085
62661SOL    HW189757   8.629  13.726  12.118
62661SOL    HW289758   8.628  13.819  11.999
62662SOL     OW89759  13.441   8.491   9.560
62662SOL    HW189760  13.478   8.576   9.537
62662SOL    HW289761  13.515   8.431   9.554
62663SOL     OW89762  10.292   5.259  11.993
62663SOL    HW189763  10.337   5.252  12.077
62663SOL    HW289764  10.362   5.270  11.928
62664SOL     OW89765  11.381   8.383  13.404
62664SOL    HW189766  11.319   8.311  13.391
62664SOL    HW289767  11.467   8.341  13.400
62665SOL     OW89768   3.438   4.985   1.073
62665SOL    HW189769   3.523   4.943   1.084
62665SOL    HW289770   3.408   5.003   1.162
62666SOL     OW89771   4.933   9.161   1.834
62666SOL    HW189772   4.929   9.253   1.808
62666SOL    HW289773   4.845   9.128   1.821
62667SOL     OW89774   8.013   2.666   8.879
62667SOL    HW189775   8.095   2.715   8.881
62667SOL    HW289776   7.989   2.663   8.786
62668SOL     OW89777   4.782  14.513   0.001
62668SOL    HW189778   4.860  14.567   0.006
62668SOL    HW289779   4.709  14.576   0.001
62669SOL     OW89780   1.814   3.702   0.363
62669SOL    HW189781   1.808   3.607   0.369
62669SOL    HW289782   1.901   3.719   0.326
62670SOL     OW89783  12.124  11.750   5.818
62670SOL    HW189784  12.195  11.728   5.878
62670SOL    HW289785  12.068  11.810   5.868
62671SOL     OW89786   2.228   1.141  12.664
62671SOL    HW189787   2.240   1.174  12.753
62671SOL    HW289788   2.170   1.065  12.675
62672SOL     OW89789   7.407   4.429  12.221
62672SOL    HW189790   7.434   4.412  12.130
62672SOL    HW289791   7.428   4.521  12.235
62673SOL     OW89792   6.443   3.791   6.381
62673SOL    HW189793   6.497   3.746   6.316
62673SOL    HW289794   6.414   3.871   6.337
62674SOL     OW89795  14.854   8.752  10.071
62674SOL    HW189796   0.041   8.810  10.031
62674SOL    HW289797   0.021   8.715  10.148
62675SOL     OW89798  14.620   8.269   6.911
62675SOL    HW189799  14.631   8.250   6.817
62675SOL    HW289800  14.674   8.346   6.926
62676SOL     OW89801   6.196   7.885  11.791
62676SOL    HW189802   6.244   7.808  11.821
62676SOL    HW289803   6.123   7.850  11.740
62677SOL     OW89804  14.586  10.992   1.170
62677SOL    HW189805  14.559  11.041   1.092
62677SOL    HW289806  14.569  10.900   1.147
62678SOL     OW89807   0.796  11.859  10.829
62678SOL    HW189808   0.750  11.802  10.891
62678SOL    HW289809   0.762  11.947  10.847
62679SOL     OW89810   2.536  10.038   8.882
62679SOL    HW189811   2.587  10.005   8.956
62679SOL    HW289812   2.445  10.025   8.908
62680SOL     OW89813  14.464  11.080   0.262
62680SOL    HW189814  14.414  11.161   0.264
62680SOL    HW289815  14.452  11.041   0.348
62681SOL     OW89816   1.817  13.476   1.388
62681SOL    HW189817   1.808  13.410   1.456
62681SOL    HW289818   1.833  13.558   1.435
62682SOL     OW89819  10.067  12.994   3.803
62682SOL    HW189820  10.125  13.036   3.740
62682SOL    HW289821  10.108  12.910   3.822
62683SOL     OW89822  11.692   0.535   4.161
62683SOL    HW189823  11.692   0.442   4.182
62683SOL    HW289824  11.785   0.558   4.151
62684SOL     OW89825   2.278   0.844   7.665
62684SOL    HW189826   2.373   0.848   7.673
62684SOL    HW289827   2.249   0.796   7.743
62685SOL     OW89828  10.371  11.349   5.183
62685SOL    HW189829  10.393  11.263   5.219
62685SOL    HW289830  10.380  11.337   5.088
62686SOL     OW89831  13.627  10.353   8.668
62686SOL    HW189832  13.722  10.341   8.666
62686SOL    HW289833  13.599  10.340   8.578
62687SOL     OW89834   3.889  14.249  13.388
62687SOL    HW189835   3.886  14.318  13.321
62687SOL    HW289836   3.810  14.264  13.440
62688SOL     OW89837  12.004   8.076   3.303
62688SOL    HW189838  11.941   8.143   3.275
62688SOL    HW289839  11.954   8.019   3.362
62689SOL     OW89840  11.271   6.450   0.302
62689SOL    HW189841  11.305   6.361   0.310
62689SOL    HW289842  11.253   6.461   0.209
62690SOL     OW89843   4.843   6.927   6.046
62690SOL    HW189844   4.779   6.959   5.983
62690SOL    HW289845   4.876   6.846   6.008
62691SOL     OW89846   3.127   0.721   7.090
62691SOL    HW189847   3.158   0.632   7.072
62691SOL    HW289848   3.195   0.759   7.147
62692SOL     OW89849   4.227   4.812  11.415
62692SOL    HW189850   4.244   4.730  11.370
62692SOL    HW289851   4.252   4.880  11.353
62693SOL     OW89852  12.034   4.760   9.254
62693SOL    HW189853  12.006   4.842   9.214
62693SOL    HW289854  11.964   4.738   9.315
62694SOL     OW89855   2.309   0.721   4.680
62694SOL    HW189856   2.398   0.757   4.685
62694SOL    HW289857   2.321   0.626   4.687
62695SOL     OW89858   7.532   3.478   9.390
62695SOL    HW189859   7.550   3.567   9.362
62695SOL    HW289860   7.478   3.487   9.468
62696SOL     OW89861   6.632  14.001  12.970
62696SOL    HW189862   6.562  13.967  12.915
62696SOL    HW289863   6.666  13.924  13.016
62697SOL     OW89864   3.767   7.822  12.886
62697SOL    HW189865   3.683   7.784  12.912
62697SOL    HW289866   3.749   7.869  12.805
62698SOL     OW89867   6.788   5.759   7.220
62698SOL    HW189868   6.861   5.820   7.229
62698SOL    HW289869   6.712   5.806   7.254
62699SOL     OW89870  13.921   6.415   4.901
62699SOL    HW189871  13.951   6.324   4.895
62699SOL    HW289872  13.887   6.423   4.991
62700SOL     OW89873  14.577   4.576   3.548
62700SOL    HW189874  14.619   4.501   3.506
62700SOL    HW289875  14.551   4.543   3.634
62701SOL     OW89876   6.594  12.011  13.877
62701SOL    HW189877   6.642  12.077  13.928
62701SOL    HW289878   6.662  11.964  13.829
62702SOL     OW89879  12.946  12.133   5.311
62702SOL    HW189880  12.887  12.063   5.282
62702SOL    HW289881  12.905  12.166   5.391
62703SOL     OW89882  13.111  11.118   4.725
62703SOL    HW189883  13.205  11.104   4.717
62703SOL    HW289884  13.094  11.197   4.673
62704SOL     OW89885   9.551   7.277  13.537
62704SOL    HW189886   9.458   7.285  13.514
62704SOL    HW289887   9.551   7.251  13.629
62705SOL     OW89888   1.210   4.505   8.809
62705SOL    HW189889   1.183   4.514   8.717
62705SOL    HW289890   1.134   4.534   8.859
62706SOL     OW89891  10.258   5.754  12.546
62706SOL    HW189892  10.265   5.783  12.455
62706SOL    HW289893  10.346   5.720  12.567
62707SOL     OW89894   4.115   8.590   3.032
62707SOL    HW189895   4.128   8.519   2.968
62707SOL    HW289896   4.110   8.670   2.979
62708SOL     OW89897   8.460   3.628  13.182
62708SOL    HW189898   8.541   3.634  13.131
62708SOL    HW289899   8.487   3.586  13.264
62709SOL     OW89900   2.244   8.075  13.490
62709SOL    HW189901   2.307   8.110  13.428
62709SOL    HW289902   2.201   8.152  13.527
62710SOL     OW89903   7.964   7.882  14.446
62710SOL    HW189904   8.054   7.885  14.478
62710SOL    HW289905   7.960   7.950  14.380
62711SOL     OW89906  12.188   7.248   8.969
62711SOL    HW189907  12.110   7.289   9.006
62711SOL    HW289908  12.254   7.318   8.968
62712SOL     OW89909  13.025  14.572   9.009
62712SOL    HW189910  13.037  14.574   8.914
62712SOL    HW289911  13.022  14.478   9.030
62713SOL     OW89912   4.953   4.672   9.411
62713SOL    HW189913   4.896   4.736   9.366
62713SOL    HW289914   5.009   4.726   9.467
62714SOL     OW89915  14.866   5.220  13.123
62714SOL    HW189916  14.816   5.172  13.189
62714SOL    HW289917   0.070   5.171  13.115
62715SOL     OW89918   8.487  13.841  12.700
62715SOL    HW189919   8.494  13.905  12.629
62715SOL    HW289920   8.541  13.878  12.771
62716SOL     OW89921   2.009   6.410   9.162
62716SOL    HW189922   1.999   6.365   9.079
62716SOL    HW289923   1.978   6.499   9.146
62717SOL     OW89924   7.944   6.886  12.100
62717SOL    HW189925   7.906   6.961  12.055
62717SOL    HW289926   8.016   6.858  12.043
62718SOL     OW89927  12.151   8.096   9.427
62718SOL    HW189928  12.067   8.078   9.468
62718SOL    HW289929  12.157   8.033   9.355
62719SOL     OW89930   8.418   5.618  10.184
62719SOL    HW189931   8.371   5.585  10.261
62719SOL    HW289932   8.506   5.636  10.216
62720SOL     OW89933   8.157   1.721   0.433
62720SOL    HW189934   8.106   1.801   0.444
62720SOL    HW289935   8.114   1.657   0.491
62721SOL     OW89936   9.073  11.711   4.696
62721SOL    HW189937   9.145  11.656   4.726
62721SOL    HW289938   9.002  11.694   4.759
62722SOL     OW89939   5.375   5.716  11.926
62722SOL    HW189940   5.413   5.643  11.877
62722SOL    HW289941   5.299   5.742  11.874
62723SOL     OW89942   8.292  12.116   0.451
62723SOL    HW189943   8.303  12.027   0.419
62723SOL    HW289944   8.238  12.107   0.530
62724SOL     OW89945   6.127   1.728  12.181
62724SOL    HW189946   6.115   1.638  12.151
62724SOL    HW289947   6.221   1.744  12.175
62725SOL     OW89948  12.552   8.024   7.436
62725SOL    HW189949  12.613   7.963   7.394
62725SOL    HW289950  12.466   7.989   7.416
62726SOL     OW89951   2.063   4.830   7.354
62726SOL    HW189952   2.108   4.868   7.429
62726SOL    HW289953   2.097   4.741   7.348
62727SOL     OW89954   6.141  11.093   9.181
62727SOL    HW189955   6.056  11.052   9.199
62727SOL    HW289956   6.137  11.119   9.089
62728SOL     OW89957   0.144  13.781   6.922
62728SOL    HW189958   0.059  13.741   6.907
62728SOL    HW289959   0.172  13.747   7.007
62729SOL     OW89960   1.920   5.231  14.225
62729SOL    HW189961   1.997   5.179  14.251
62729SOL    HW289962   1.936   5.251  14.132
62730SOL     OW89963   6.707   3.342   5.608
62730SOL    HW189964   6.725   3.295   5.527
62730SOL    HW289965   6.771   3.307   5.670
62731SOL     OW89966   2.255   9.950  13.278
62731SOL    HW189967   2.167   9.967  13.310
62731SOL    HW289968   2.300  10.034  13.287
62732SOL     OW89969   1.574  13.435   7.660
62732SOL    HW189970   1.549  13.386   7.581
62732SOL    HW289971   1.565  13.372   7.731
62733SOL     OW89972  11.885   3.940   9.519
62733SOL    HW189973  11.894   3.876   9.449
62733SOL    HW289974  11.974   3.973   9.532
62734SOL     OW89975   5.094   7.562   5.172
62734SOL    HW189976   5.093   7.656   5.191
62734SOL    HW289977   5.003   7.540   5.154
62735SOL     OW89978  10.467   4.169   7.729
62735SOL    HW189979  10.495   4.078   7.741
62735SOL    HW289980  10.494   4.191   7.640
62736SOL     OW89981  12.947  14.075   8.475
62736SOL    HW189982  12.916  14.000   8.423
62736SOL    HW289983  13.034  14.048   8.506
62737SOL     OW89984  14.188   6.850   3.898
62737SOL    HW189985  14.166   6.846   3.991
62737SOL    HW289986  14.228   6.936   3.887
62738SOL     OW89987   1.030  12.775   7.881
62738SOL    HW189988   1.116  12.806   7.911
62738SOL    HW289989   1.021  12.688   7.919
62739SOL     OW89990   2.456   7.264   2.475
62739SOL    HW189991   2.416   7.206   2.411
62739SOL    HW289992   2.540   7.289   2.435
62740SOL     OW89993   6.686   5.693   5.524
62740SOL    HW189994   6.716   5.783   5.509
62740SOL    HW289995   6.671   5.658   5.437
62741SOL     OW89996  11.260   4.725   0.735
62741SOL    HW189997  11.281   4.804   0.784
62741SOL    HW289998  11.172   4.741   0.701
62742SOL     OW89999  12.794   5.660   8.372
62742SOL    HW190000  12.708   5.616   8.371
62742SOL    HW290001  12.836   5.630   8.292
62743SOL     OW90002  14.824   0.258   6.786
62743SOL    HW190003  14.784   0.217   6.709
62743SOL    HW290004  14.831   0.350   6.763
62744SOL     OW90005   9.666   8.309   7.528
62744SOL    HW190006   9.695   8.314   7.437
62744SOL    HW290007   9.746   8.290   7.577
62745SOL     OW90008  14.543   4.580   6.074
62745SOL    HW190009  14.638   4.574   6.065
62745SOL    HW290010  14.529   4.620   6.160
62746SOL     OW90011  13.122   7.154   8.964
62746SOL    HW190012  13.128   7.169   8.869
62746SOL    HW290013  13.212   7.166   8.995
62747SOL     OW90014  13.239   1.902   3.317
62747SOL    HW190015  13.229   1.978   3.373
62747SOL    HW290016  13.189   1.923   3.238
62748SOL     OW90017   6.230  14.212   4.605
62748SOL    HW190018   6.198  14.126   4.578
62748SOL    HW290019   6.319  14.216   4.571
62749SOL     OW90020  12.135   2.700   3.128
62749SOL    HW190021  12.119   2.707   3.222
62749SOL    HW290022  12.066   2.641   3.096
62750SOL     OW90023   1.626   7.986   0.064
62750SOL    HW190024   1.711   7.971   0.104
62750SOL    HW290025   1.639   7.970  14.849
62751SOL     OW90026  14.417   0.065   2.066
62751SOL    HW190027  14.411   0.127   2.139
62751SOL    HW290028  14.334   0.076   2.018
62752SOL     OW90029   9.610  12.416   3.759
62752SOL    HW190030   9.558  12.346   3.798
62752SOL    HW290031   9.586  12.494   3.809
62753SOL     OW90032   8.844   9.402  12.628
62753SOL    HW190033   8.788   9.394  12.704
62753SOL    HW290034   8.909   9.332  12.638
62754SOL     OW90035   2.081   8.940  11.052
62754SOL    HW190036   2.119   8.976  10.972
62754SOL    HW290037   2.021   9.008  11.082
62755SOL     OW90038   9.780   2.626  10.505
62755SOL    HW190039   9.857   2.681  10.522
62755SOL    HW290040   9.754   2.651  10.416
62756SOL     OW90041  14.134   1.385  12.920
62756SOL    HW190042  14.052   1.402  12.965
62756SOL    HW290043  14.111   1.325  12.849
62757SOL     OW90044   7.049   4.206   7.711
62757SOL    HW190045   7.120   4.149   7.741
62757SOL    HW290046   7.092   4.274   7.660
62758SOL     OW90047  10.390   0.234   7.433
62758SOL    HW190048  10.324   0.303   7.422
62758SOL    HW290049  10.405   0.230   7.528
62759SOL     OW90050   7.129   5.665  14.485
62759SOL    HW190051   7.140   5.660  14.390
62759SOL    HW290052   7.176   5.744  14.510
62760SOL     OW90053  14.697   1.767   8.306
62760SOL    HW190054  14.787   1.777   8.337
62760SOL    HW290055  14.645   1.758   8.386
62761SOL     OW90056   6.585   6.444   2.491
62761SOL    HW190057   6.572   6.349   2.492
62761SOL    HW290058   6.641   6.459   2.415
62762SOL     OW90059   1.515  10.249   8.078
62762SOL    HW190060   1.593  10.296   8.108
62762SOL    HW290061   1.442  10.291   8.123
62763SOL     OW90062  10.353   5.133  10.294
62763SOL    HW190063  10.391   5.161  10.211
62763SOL    HW290064  10.288   5.067  10.270
62764SOL     OW90065   1.714  14.717   1.182
62764SOL    HW190066   1.621  14.695   1.175
62764SOL    HW290067   1.746  14.716   1.092
62765SOL     OW90068  13.149   3.334  11.445
62765SOL    HW190069  13.225   3.295  11.488
62765SOL    HW290070  13.174   3.426  11.432
62766SOL     OW90071   4.494   4.723   1.866
62766SOL    HW190072   4.466   4.651   1.810
62766SOL    HW290073   4.566   4.764   1.818
62767SOL     OW90074  12.358   2.546   3.043
62767SOL    HW190075  12.286   2.609   3.053
62767SOL    HW290076  12.318   2.471   3.000
62768SOL     OW90077   8.481   3.940   4.507
62768SOL    HW190078   8.386   3.923   4.505
62768SOL    HW290079   8.489   4.029   4.539
62769SOL     OW90080   5.386   2.043  11.907
62769SOL    HW190081   5.441   2.042  11.828
62769SOL    HW290082   5.298   2.026  11.874
62770SOL     OW90083  13.204  13.026  10.986
62770SOL    HW190084  13.248  13.105  11.018
62770SOL    HW290085  13.136  13.008  11.050
62771SOL     OW90086   5.433  14.116   6.024
62771SOL    HW190087   5.438  14.052   5.953
62771SOL    HW290088   5.373  14.077   6.087
62772SOL     OW90089   3.248   5.297   5.986
62772SOL    HW190090   3.246   5.259   6.074
62772SOL    HW290091   3.336   5.280   5.954
62773SOL     OW90092   9.321  10.719  13.488
62773SOL    HW190093   9.256  10.788  13.497
62773SOL    HW290094   9.361  10.712  13.575
62774SOL     OW90095   4.886   3.842   7.511
62774SOL    HW190096   4.891   3.754   7.473
62774SOL    HW290097   4.856   3.898   7.439
62775SOL     OW90098   5.467  11.898   3.366
62775SOL    HW190099   5.492  11.931   3.452
62775SOL    HW290100   5.461  11.803   3.378
62776SOL     OW90101   5.544   8.309   3.360
62776SOL    HW190102   5.495   8.377   3.315
62776SOL    HW290103   5.478   8.243   3.384
62777SOL     OW90104   8.744  12.003  11.781
62777SOL    HW190105   8.819  11.997  11.840
62777SOL    HW290106   8.734  11.914  11.746
62778SOL     OW90107   7.924  12.644   5.740
62778SOL    HW190108   7.882  12.599   5.813
62778SOL    HW290109   8.013  12.609   5.737
62779SOL     OW90110  12.566   0.371   0.550
62779SOL    HW190111  12.524   0.367   0.636
62779SOL    HW290112  12.605   0.284   0.537
62780SOL     OW90113  11.440   5.202   0.829
62780SOL    HW190114  11.536   5.199   0.830
62780SOL    HW290115  11.417   5.266   0.896
62781SOL     OW90116   8.607  11.277  14.822
62781SOL    HW190117   8.670  11.315   0.005
62781SOL    HW290118   8.646  11.194  14.794
62782SOL     OW90119   9.903   2.067   4.844
62782SOL    HW190120   9.943   1.983   4.865
62782SOL    HW290121   9.813   2.044   4.818
62783SOL     OW90122   2.191   0.049   5.492
62783SOL    HW190123   2.234  14.841   5.490
62783SOL    HW290124   2.161   0.059   5.582
62784SOL     OW90125   0.149   1.036   8.299
62784SOL    HW190126   0.120   1.125   8.280
62784SOL    HW290127   0.095   1.009   8.374
62785SOL     OW90128  14.240  13.334   3.428
62785SOL    HW190129  14.187  13.276   3.373
62785SOL    HW290130  14.197  13.419   3.421
62786SOL     OW90131  13.503   0.901   6.218
62786SOL    HW190132  13.448   0.827   6.246
62786SOL    HW290133  13.453   0.978   6.242
62787SOL     OW90134  13.810   8.859   2.184
62787SOL    HW190135  13.789   8.951   2.199
62787SOL    HW290136  13.900   8.860   2.154
62788SOL     OW90137   2.043  13.659  11.444
62788SOL    HW190138   1.950  13.662  11.462
62788SOL    HW290139   2.056  13.722  11.373
62789SOL     OW90140   0.524  12.980   9.449
62789SOL    HW190141   0.553  12.961   9.538
62789SOL    HW290142   0.503  12.894   9.412
62790SOL     OW90143  10.787   5.857  14.575
62790SOL    HW190144  10.716   5.804  14.537
62790SOL    HW290145  10.833   5.797  14.634
62791SOL     OW90146  10.472   7.959   3.410
62791SOL    HW190147  10.389   8.005   3.401
62791SOL    HW290148  10.458   7.898   3.482
62792SOL     OW90149   9.859   4.338   2.539
62792SOL    HW190150   9.912   4.270   2.498
62792SOL    HW290151   9.772   4.326   2.500
62793SOL     OW90152   6.402  10.268   1.099
62793SOL    HW190153   6.397  10.200   1.032
62793SOL    HW290154   6.361  10.344   1.058
62794SOL     OW90155   2.786   6.301   8.310
62794SOL    HW190156   2.805   6.289   8.216
62794SOL    HW290157   2.872   6.298   8.352
62795SOL     OW90158   2.435   4.966   5.828
62795SOL    HW190159   2.443   5.000   5.739
62795SOL    HW290160   2.524   4.971   5.864
62796SOL     OW90161   0.187  13.365   4.905
62796SOL    HW190162   0.101  13.333   4.879
62796SOL    HW290163   0.170  13.420   4.981
62797SOL     OW90164   3.757   1.074   2.116
62797SOL    HW190165   3.727   0.986   2.093
62797SOL    HW290166   3.681   1.114   2.160
62798SOL     OW90167   9.670  14.384   9.981
62798SOL    HW190168   9.669  14.303  10.032
62798SOL    HW290169   9.700  14.450  10.044
62799SOL     OW90170   8.097  11.746   9.505
62799SOL    HW190171   8.119  11.656   9.482
62799SOL    HW290172   8.002  11.747   9.512
62800SOL     OW90173   4.307  11.497   2.722
62800SOL    HW190174   4.345  11.475   2.637
62800SOL    HW290175   4.365  11.566   2.756
62801SOL     OW90176   4.045   7.127  12.415
62801SOL    HW190177   4.055   7.033  12.424
62801SOL    HW290178   4.128   7.157  12.378
62802SOL     OW90179   7.521   9.831   4.858
62802SOL    HW190180   7.541   9.828   4.952
62802SOL    HW290181   7.477   9.915   4.845
62803SOL     OW90182   3.179  14.450  14.120
62803SOL    HW190183   3.204  14.513  14.188
62803SOL    HW290184   3.101  14.407  14.155
62804SOL     OW90185   9.374  10.379   9.143
62804SOL    HW190186   9.287  10.419   9.152
62804SOL    HW290187   9.355  10.287   9.121
62805SOL     OW90188   4.948   5.742   3.501
62805SOL    HW190189   4.964   5.649   3.480
62805SOL    HW290190   5.021   5.788   3.460
62806SOL     OW90191   4.151   6.654   3.506
62806SOL    HW190192   4.226   6.705   3.536
62806SOL    HW290193   4.080   6.717   3.495
62807SOL     OW90194   0.125   2.330   9.060
62807SOL    HW190195   0.115   2.420   9.091
62807SOL    HW290196   0.037   2.293   9.067
62808SOL     OW90197   2.810   0.326   5.028
62808SOL    HW190198   2.777   0.383   5.098
62808SOL    HW290199   2.853   0.386   4.967
62809SOL     OW90200  12.833   4.207   3.903
62809SOL    HW190201  12.827   4.264   3.826
62809SOL    HW290202  12.841   4.118   3.867
62810SOL     OW90203  10.005   2.118   5.713
62810SOL    HW190204   9.978   2.129   5.622
62810SOL    HW290205  10.030   2.207   5.741
62811SOL     OW90206   9.181  10.156   4.577
62811SOL    HW190207   9.096  10.123   4.605
62811SOL    HW290208   9.218  10.199   4.654
62812SOL     OW90209   6.420   2.373   9.103
62812SOL    HW190210   6.349   2.433   9.124
62812SOL    HW290211   6.386   2.287   9.128
62813SOL     OW90212  10.485   5.176   2.619
62813SOL    HW190213  10.513   5.084   2.626
62813SOL    HW290214  10.432   5.191   2.697
62814SOL     OW90215   7.037  10.484   9.642
62814SOL    HW190216   6.959  10.457   9.593
62814SOL    HW290217   7.109  10.474   9.579
62815SOL     OW90218   8.747  10.286   2.136
62815SOL    HW190219   8.778  10.303   2.224
62815SOL    HW290220   8.653  10.306   2.139
62816SOL     OW90221   3.195   1.865   2.677
62816SOL    HW190222   3.134   1.934   2.653
62816SOL    HW290223   3.148   1.811   2.740
62817SOL     OW90224   1.143   1.341  11.448
62817SOL    HW190225   1.208   1.401  11.412
62817SOL    HW290226   1.078   1.397  11.490
62818SOL     OW90227   7.601   3.487  14.020
62818SOL    HW190228   7.545   3.552  14.062
62818SOL    HW290229   7.540   3.423  13.983
62819SOL     OW90230  13.392  14.781   8.870
62819SOL    HW190231  13.374  14.688   8.880
62819SOL    HW290232  13.306  14.821   8.862
62820SOL     OW90233   7.695   9.040   6.808
62820SOL    HW190234   7.618   9.006   6.762
62820SOL    HW290235   7.708   9.127   6.771
62821SOL     OW90236   9.276  13.196   7.400
62821SOL    HW190237   9.259  13.117   7.348
62821SOL    HW290238   9.332  13.249   7.344
62822SOL     OW90239  12.099   0.155   1.019
62822SOL    HW190240  12.057   0.072   0.995
62822SOL    HW290241  12.036   0.198   1.076
62823SOL     OW90242   9.023   5.013   8.121
62823SOL    HW190243   8.962   5.057   8.062
62823SOL    HW290244   8.971   4.946   8.165
62824SOL     OW90245   0.209  10.562  13.529
62824SOL    HW190246   0.265  10.631  13.493
62824SOL    HW290247   0.135  10.558  13.468
62825SOL     OW90248  13.289   8.136  12.063
62825SOL    HW190249  13.269   8.095  11.978
62825SOL    HW290250  13.233   8.213  12.066
62826SOL     OW90251   3.913  12.776   5.069
62826SOL    HW190252   3.843  12.817   5.018
62826SOL    HW290253   3.893  12.682   5.065
62827SOL     OW90254  11.957   2.281   4.213
62827SOL    HW190255  12.031   2.342   4.212
62827SOL    HW290256  11.905   2.308   4.289
62828SOL     OW90257   8.471   0.803   4.431
62828SOL    HW190258   8.508   0.887   4.458
62828SOL    HW290259   8.461   0.809   4.336
62829SOL     OW90260   6.241   2.904  12.724
62829SOL    HW190261   6.229   2.989  12.768
62829SOL    HW290262   6.327   2.910  12.682
62830SOL     OW90263   4.333   1.973  12.184
62830SOL    HW190264   4.268   2.042  12.174
62830SOL    HW290265   4.378   1.993  12.266
62831SOL     OW90266   0.420  11.458  14.013
62831SOL    HW190267   0.484  11.442  13.944
62831SOL    HW290268   0.403  11.552  14.010
62832SOL     OW90269   0.172  14.056   2.053
62832SOL    HW190270   0.089  14.040   2.098
62832SOL    HW290271   0.197  14.145   2.079
62833SOL     OW90272   2.063   9.194   6.911
62833SOL    HW190273   2.029   9.276   6.876
62833SOL    HW290274   2.102   9.150   6.835
62834SOL     OW90275  13.202   0.249   1.852
62834SOL    HW190276  13.121   0.254   1.802
62834SOL    HW290277  13.188   0.178   1.915
62835SOL     OW90278   4.270  14.807   8.427
62835SOL    HW190279   4.304  14.815   8.516
62835SOL    HW290280   4.252   0.019   8.400
62836SOL     OW90281   2.947  11.688   6.341
62836SOL    HW190282   2.878  11.743   6.304
62836SOL    HW290283   2.951  11.612   6.283
62837SOL     OW90284   0.993   8.737   2.907
62837SOL    HW190285   0.900   8.743   2.886
62837SOL    HW290286   1.001   8.653   2.954
62838SOL     OW90287   1.561   4.395   9.191
62838SOL    HW190288   1.638   4.430   9.145
62838SOL    HW290289   1.584   4.402   9.284
62839SOL     OW90290  11.689  14.075   1.512
62839SOL    HW190291  11.756  14.011   1.536
62839SOL    HW290292  11.660  14.113   1.595
62840SOL     OW90293   2.909   1.303   6.714
62840SOL    HW190294   2.953   1.378   6.673
62840SOL    HW290295   2.932   1.229   6.659
62841SOL     OW90296   7.989  13.000   2.239
62841SOL    HW190297   7.976  13.005   2.144
62841SOL    HW290298   8.013  13.089   2.264
62842SOL     OW90299   4.674  14.234   9.122
62842SOL    HW190300   4.678  14.171   9.194
62842SOL    HW290301   4.696  14.183   9.044
62843SOL     OW90302   6.597   4.133   0.461
62843SOL    HW190303   6.662   4.127   0.391
62843SOL    HW290304   6.589   4.227   0.479
62844SOL     OW90305   5.403   5.621   3.455
62844SOL    HW190306   5.361   5.609   3.540
62844SOL    HW290307   5.445   5.707   3.460
62845SOL     OW90308   2.157   1.244  14.358
62845SOL    HW190309   2.232   1.248  14.299
62845SOL    HW290310   2.106   1.322  14.337
62846SOL     OW90311   3.666  11.687  11.505
62846SOL    HW190312   3.649  11.769  11.551
62846SOL    HW290313   3.582  11.665  11.464
62847SOL     OW90314   2.683   8.278   8.734
62847SOL    HW190315   2.747   8.324   8.680
62847SOL    HW290316   2.600   8.287   8.687
62848SOL     OW90317   2.919   0.556   7.895
62848SOL    HW190318   2.828   0.536   7.920
62848SOL    HW290319   2.929   0.518   7.808
62849SOL     OW90320   1.092   4.664  11.359
62849SOL    HW190321   1.097   4.728  11.430
62849SOL    HW290322   1.141   4.704  11.287
62850SOL     OW90323   2.267  14.016   0.861
62850SOL    HW190324   2.262  14.112   0.869
62850SOL    HW290325   2.177  13.988   0.850
62851SOL     OW90326   7.734   4.135  12.563
62851SOL    HW190327   7.745   4.215  12.512
62851SOL    HW290328   7.640   4.123  12.571
62852SOL     OW90329  10.036   3.674   3.406
62852SOL    HW190330  10.009   3.688   3.316
62852SOL    HW290331   9.981   3.734   3.457
62853SOL     OW90332  14.072   3.751  12.392
62853SOL    HW190333  14.058   3.663  12.425
62853SOL    HW290334  14.004   3.804  12.435
62854SOL     OW90335   4.962   6.724  10.012
62854SOL    HW190336   4.961   6.811   9.972
62854SOL    HW290337   4.870   6.698  10.012
62855SOL     OW90338  11.063   7.173  14.547
62855SOL    HW190339  11.023   7.118  14.481
62855SOL    HW290340  11.157   7.172  14.527
62856SOL     OW90341  10.449   3.100  11.155
62856SOL    HW190342  10.479   3.191  11.148
62856SOL    HW290343  10.467   3.076  11.246
62857SOL     OW90344   6.834   3.440  13.131
62857SOL    HW190345   6.802   3.523  13.094
62857SOL    HW290346   6.851   3.460  13.223
62858SOL     OW90347  12.949   4.705  13.095
62858SOL    HW190348  13.000   4.659  13.161
62858SOL    HW290349  12.917   4.783  13.139
62859SOL     OW90350   6.750  11.379   0.886
62859SOL    HW190351   6.690  11.448   0.858
62859SOL    HW290352   6.706  11.339   0.961
62860SOL     OW90353  12.111  14.725   4.063
62860SOL    HW190354  12.055  14.793   4.101
62860SOL    HW290355  12.191  14.771   4.036
62861SOL     OW90356  13.292  14.461   5.710
62861SOL    HW190357  13.303  14.522   5.637
62861SOL    HW290358  13.253  14.383   5.670
62862SOL     OW90359   6.350  13.891   0.203
62862SOL    HW190360   6.286  13.961   0.190
62862SOL    HW290361   6.306  13.827   0.258
62863SOL     OW90362  12.696  13.450   3.759
62863SOL    HW190363  12.715  13.364   3.797
62863SOL    HW290364  12.751  13.454   3.681
62864SOL     OW90365   4.627   2.834   1.366
62864SOL    HW190366   4.567   2.873   1.429
62864SOL    HW290367   4.653   2.906   1.309
62865SOL     OW90368  14.797   9.057   8.820
62865SOL    HW190369  14.714   9.103   8.816
62865SOL    HW290370  14.775   8.965   8.810
62866SOL     OW90371   5.853  14.337   6.751
62866SOL    HW190372   5.797  14.261   6.769
62866SOL    HW290373   5.940  14.300   6.738
62867SOL     OW90374   0.495   7.723  11.183
62867SOL    HW190375   0.546   7.796  11.148
62867SOL    HW290376   0.439   7.763  11.249
62868SOL     OW90377  13.370  13.163   8.222
62868SOL    HW190378  13.303  13.140   8.158
62868SOL    HW290379  13.362  13.258   8.233
62869SOL     OW90380   6.178   9.329   6.414
62869SOL    HW190381   6.254   9.371   6.453
62869SOL    HW290382   6.143   9.273   6.483
62870SOL     OW90383  10.349   1.030  14.754
62870SOL    HW190384  10.430   1.070  14.785
62870SOL    HW290385  10.373   0.990  14.670
62871SOL     OW90386  14.465   5.120  10.070
62871SOL    HW190387  14.438   5.210  10.051
62871SOL    HW290388  14.487   5.083   9.984
62872SOL     OW90389   3.708   5.806   9.729
62872SOL    HW190390   3.771   5.863   9.772
62872SOL    HW290391   3.727   5.718   9.764
62873SOL     OW90392   5.203  14.769  14.107
62873SOL    HW190393   5.206  14.862  14.128
62873SOL    HW290394   5.252  14.727  14.178
62874SOL     OW90395   3.650   7.656  14.571
62874SOL    HW190396   3.592   7.580  14.585
62874SOL    HW290397   3.597   7.717  14.519
62875SOL     OW90398   9.060   5.583  12.527
62875SOL    HW190399   9.096   5.496  12.508
62875SOL    HW290400   9.001   5.602  12.454
62876SOL     OW90401   4.862   0.984   1.048
62876SOL    HW190402   4.865   1.026   1.134
62876SOL    HW290403   4.778   1.009   1.011
62877SOL     OW90404  14.755   1.783   9.573
62877SOL    HW190405  14.702   1.839   9.515
62877SOL    HW290406  14.825   1.750   9.517
62878SOL     OW90407   7.947   3.932   1.185
62878SOL    HW190408   7.942   3.851   1.134
62878SOL    HW290409   8.012   3.985   1.140
62879SOL     OW90410  10.744   2.882   2.518
62879SOL    HW190411  10.719   2.791   2.501
62879SOL    HW290412  10.839   2.880   2.523
62880SOL     OW90413   6.293   2.137   7.569
62880SOL    HW190414   6.234   2.169   7.637
62880SOL    HW290415   6.337   2.215   7.537
62881SOL     OW90416   7.418   1.002  11.245
62881SOL    HW190417   7.422   1.020  11.150
62881SOL    HW290418   7.509   1.003  11.273
62882SOL     OW90419   6.208   6.482  14.043
62882SOL    HW190420   6.152   6.545  13.999
62882SOL    HW290421   6.215   6.409  13.981
62883SOL     OW90422   9.193  11.946  12.371
62883SOL    HW190423   9.225  12.013  12.311
62883SOL    HW290424   9.188  11.867  12.318
62884SOL     OW90425   5.548  11.836  12.113
62884SOL    HW190426   5.629  11.795  12.084
62884SOL    HW290427   5.570  11.928  12.124
62885SOL     OW90428  10.998   0.403   0.330
62885SOL    HW190429  10.967   0.413   0.240
62885SOL    HW290430  10.969   0.315   0.356
62886SOL     OW90431  10.715   4.329   5.498
62886SOL    HW190432  10.668   4.407   5.527
62886SOL    HW290433  10.699   4.264   5.566
62887SOL     OW90434   3.300   0.954   5.440
62887SOL    HW190435   3.256   0.997   5.513
62887SOL    HW290436   3.240   0.966   5.366
62888SOL     OW90437   0.155  13.161   4.247
62888SOL    HW190438   0.147  13.184   4.340
62888SOL    HW290439   0.089  13.214   4.203
62889SOL     OW90440   6.751  11.212   7.080
62889SOL    HW190441   6.773  11.119   7.087
62889SOL    HW290442   6.803  11.254   7.148
62890SOL     OW90443   4.347   1.283  12.240
62890SOL    HW190444   4.432   1.242  12.226
62890SOL    HW290445   4.340   1.348  12.171
62891SOL     OW90446  11.928  13.617   5.728
62891SOL    HW190447  12.015  13.654   5.743
62891SOL    HW290448  11.867  13.683   5.762
62892SOL     OW90449  12.080   7.446   0.581
62892SOL    HW190450  12.108   7.356   0.598
62892SOL    HW290451  12.147   7.481   0.524
62893SOL     OW90452  12.537   6.267   2.783
62893SOL    HW190453  12.596   6.199   2.752
62893SOL    HW290454  12.483   6.224   2.849
62894SOL     OW90455   9.143   3.846  14.839
62894SOL    HW190456   9.184   3.914   0.014
62894SOL    HW290457   9.216   3.801  14.797
62895SOL     OW90458  12.019   4.734   5.059
62895SOL    HW190459  11.975   4.674   5.119
62895SOL    HW290460  11.955   4.804   5.044
62896SOL     OW90461  10.988   9.169   1.572
62896SOL    HW190462  10.990   9.150   1.479
62896SOL    HW290463  11.068   9.219   1.588
62897SOL     OW90464   7.120   3.901   8.015
62897SOL    HW190465   7.201   3.919   7.967
62897SOL    HW290466   7.071   3.842   7.958
62898SOL     OW90467   0.889  11.128  14.504
62898SOL    HW190468   0.962  11.074  14.472
62898SOL    HW290469   0.860  11.178  14.427
62899SOL     OW90470  13.441  10.658  14.283
62899SOL    HW190471  13.391  10.676  14.363
62899SOL    HW290472  13.451  10.744  14.242
62900SOL     OW90473  10.486   2.607   1.573
62900SOL    HW190474  10.396   2.580   1.592
62900SOL    HW290475  10.484   2.634   1.481
62901SOL     OW90476  12.517   1.089   4.271
62901SOL    HW190477  12.552   1.169   4.311
62901SOL    HW290478  12.559   1.018   4.318
62902SOL     OW90479   0.682  14.851   9.941
62902SOL    HW190480   0.618  14.782   9.958
62902SOL    HW290481   0.651   0.015   9.861
62903SOL     OW90482   8.159  11.531   0.818
62903SOL    HW190483   8.116  11.468   0.876
62903SOL    HW290484   8.245  11.491   0.800
62904SOL     OW90485  13.689   6.038   2.548
62904SOL    HW190486  13.754   6.095   2.506
62904SOL    HW290487  13.708   5.951   2.513
62905SOL     OW90488   3.735  14.342   3.791
62905SOL    HW190489   3.785  14.407   3.840
62905SOL    HW290490   3.783  14.260   3.804
62906SOL     OW90491   8.294   9.875   1.733
62906SOL    HW190492   8.299   9.808   1.801
62906SOL    HW290493   8.236   9.837   1.666
62907SOL     OW90494   7.146  11.090  11.010
62907SOL    HW190495   7.068  11.034  11.010
62907SOL    HW290496   7.166  11.101  11.103
62908SOL     OW90497  14.356   2.168   7.126
62908SOL    HW190498  14.342   2.114   7.048
62908SOL    HW290499  14.303   2.246   7.111
62909SOL     OW90500  13.972   6.374   9.301
62909SOL    HW190501  14.011   6.401   9.218
62909SOL    HW290502  14.046   6.353   9.357
62910SOL     OW90503  11.136   7.498  14.661
62910SOL    HW190504  11.086   7.537  14.589
62910SOL    HW290505  11.220   7.476  14.622
62911SOL     OW90506   9.902  13.905  13.739
62911SOL    HW190507   9.847  13.983  13.734
62911SOL    HW290508   9.860  13.842  13.681
62912SOL     OW90509   5.966   3.775   3.021
62912SOL    HW190510   5.894   3.723   2.986
62912SOL    HW290511   5.924   3.854   3.054
62913SOL     OW90512   6.361  11.982  13.466
62913SOL    HW190513   6.387  12.036  13.540
62913SOL    HW290514   6.344  11.896  13.505
62914SOL     OW90515   2.600   3.618   7.604
62914SOL    HW190516   2.536   3.549   7.618
62914SOL    HW290517   2.600   3.668   7.686
62915SOL     OW90518  12.100   8.604   2.729
62915SOL    HW190519  12.010   8.637   2.734
62915SOL    HW290520  12.111   8.578   2.637
62916SOL     OW90521   6.295   9.446   6.898
62916SOL    HW190522   6.319   9.488   6.980
62916SOL    HW290523   6.207   9.477   6.880
62917SOL     OW90524  12.330   8.902  12.883
62917SOL    HW190525  12.322   8.864  12.970
62917SOL    HW290526  12.244   8.939  12.865
62918SOL     OW90527   3.200  13.035   3.569
62918SOL    HW190528   3.118  13.063   3.610
62918SOL    HW290529   3.221  13.106   3.508
62919SOL     OW90530   3.644   3.909   9.437
62919SOL    HW190531   3.616   3.869   9.519
62919SOL    HW290532   3.568   3.959   9.407
62920SOL     OW90533   9.920   5.408   1.022
62920SOL    HW190534   9.952   5.352   1.093
62920SOL    HW290535   9.972   5.385   0.946
62921SOL     OW90536   2.855   7.115   2.907
62921SOL    HW190537   2.826   7.201   2.937
62921SOL    HW290538   2.788   7.055   2.937
62922SOL     OW90539   7.460   3.797   4.724
62922SOL    HW190540   7.486   3.724   4.781
62922SOL    HW290541   7.380   3.767   4.682
62923SOL     OW90542  14.191   5.736   0.418
62923SOL    HW190543  14.286   5.719   0.417
62923SOL    HW290544  14.182   5.816   0.470
62924SOL     OW90545  13.719  10.759   6.897
62924SOL    HW190546  13.639  10.715   6.869
62924SOL    HW290547  13.699  10.852   6.888
62925SOL     OW90548  10.515  14.836   5.407
62925SOL    HW190549  10.521  14.863   5.499
62925SOL    HW290550  10.425  14.803   5.398
62926SOL     OW90551   5.205   1.238   3.548
62926SOL    HW190552   5.272   1.229   3.615
62926SOL    HW290553   5.251   1.275   3.473
62927SOL     OW90554  10.451   1.793   2.656
62927SOL    HW190555  10.360   1.793   2.685
62927SOL    HW290556  10.502   1.793   2.737
62928SOL     OW90557   9.442   9.836  12.122
62928SOL    HW190558   9.380   9.892  12.169
62928SOL    HW290559   9.440   9.753  12.169
62929SOL     OW90560  13.427   4.621   1.018
62929SOL    HW190561  13.420   4.534   1.056
62929SOL    HW290562  13.340   4.638   0.980
62930SOL     OW90563   5.921   0.678  11.900
62930SOL    HW190564   5.915   0.756  11.846
62930SOL    HW290565   5.947   0.710  11.986
62931SOL     OW90566   3.708  11.865   1.536
62931SOL    HW190567   3.625  11.906   1.561
62931SOL    HW290568   3.775  11.927   1.564
62932SOL     OW90569  13.686   6.323   6.453
62932SOL    HW190570  13.742   6.251   6.424
62932SOL    HW290571  13.661   6.300   6.542
62933SOL     OW90572  12.132   4.719  13.710
62933SOL    HW190573  12.133   4.627  13.737
62933SOL    HW290574  12.184   4.722  13.630
62934SOL     OW90575   6.668   9.081   5.506
62934SOL    HW190576   6.705   9.004   5.549
62934SOL    HW290577   6.740   9.114   5.452
62935SOL     OW90578  10.265  11.770   2.841
62935SOL    HW190579  10.270  11.711   2.916
62935SOL    HW290580  10.339  11.747   2.786
62936SOL     OW90581   0.084  10.376  12.917
62936SOL    HW190582   0.115  10.305  12.862
62936SOL    HW290583  14.871  10.353  12.937
62937SOL     OW90584   6.500   1.221   4.571
62937SOL    HW190585   6.510   1.159   4.499
62937SOL    HW290586   6.418   1.267   4.552
62938SOL     OW90587   2.942   0.770   6.797
62938SOL    HW190588   2.865   0.798   6.847
62938SOL    HW290589   3.007   0.748   6.863
62939SOL     OW90590  10.539   8.938   6.423
62939SOL    HW190591  10.446   8.949   6.442
62939SOL    HW290592  10.574   9.027   6.420
62940SOL     OW90593  12.294   0.601   8.101
62940SOL    HW190594  12.328   0.689   8.089
62940SOL    HW290595  12.340   0.548   8.035
62941SOL     OW90596  10.619   9.145   3.503
62941SOL    HW190597  10.646   9.147   3.412
62941SOL    HW290598  10.549   9.080   3.506
62942SOL     OW90599   0.813  11.861  13.876
62942SOL    HW190600   0.768  11.925  13.931
62942SOL    HW290601   0.750  11.841  13.807
62943SOL     OW90602   8.841   5.012   7.900
62943SOL    HW190603   8.769   4.957   7.931
62943SOL    HW290604   8.798   5.092   7.869
62944SOL     OW90605   4.243   1.655   7.059
62944SOL    HW190606   4.299   1.723   7.097
62944SOL    HW290607   4.172   1.645   7.121
62945SOL     OW90608   8.459  13.218  10.690
62945SOL    HW190609   8.512  13.154  10.641
62945SOL    HW290610   8.380  13.170  10.715
62946SOL     OW90611  10.824   1.018   2.581
62946SOL    HW190612  10.752   1.028   2.518
62946SOL    HW290613  10.901   1.006   2.526
62947SOL     OW90614  13.300   2.510   2.234
62947SOL    HW190615  13.248   2.430   2.229
62947SOL    HW290616  13.281   2.556   2.152
62948SOL     OW90617   0.529   2.516  10.843
62948SOL    HW190618   0.570   2.457  10.780
62948SOL    HW290619   0.581   2.597  10.838
62949SOL     OW90620  14.387  13.925  13.214
62949SOL    HW190621  14.366  13.913  13.306
62949SOL    HW290622  14.426  14.012  13.209
62950SOL     OW90623   5.739   9.693  12.309
62950SOL    HW190624   5.781   9.779  12.308
62950SOL    HW290625   5.708   9.683  12.399
62951SOL     OW90626  13.136   0.801  11.658
62951SOL    HW190627  13.072   0.866  11.628
62951SOL    HW290628  13.083   0.727  11.686
62952SOL     OW90629   2.210  12.375  10.406
62952SOL    HW190630   2.256  12.451  10.373
62952SOL    HW290631   2.117  12.397  10.396
62953SOL     OW90632  11.203  11.125   9.111
62953SOL    HW190633  11.156  11.116   9.194
62953SOL    HW290634  11.141  11.095   9.045
62954SOL     OW90635  11.700  12.841   5.848
62954SOL    HW190636  11.719  12.933   5.826
62954SOL    HW290637  11.707  12.839   5.944
62955SOL     OW90638  10.363   9.182   4.647
62955SOL    HW190639  10.273   9.155   4.631
62955SOL    HW290640  10.356   9.272   4.678
62956SOL     OW90641  12.602   4.515  11.588
62956SOL    HW190642  12.632   4.591  11.538
62956SOL    HW290643  12.604   4.544  11.679
62957SOL     OW90644  13.713  10.639  14.195
62957SOL    HW190645  13.656  10.671  14.265
62957SOL    HW290646  13.751  10.559  14.231
62958SOL     OW90647   8.452  11.573   4.846
62958SOL    HW190648   8.411  11.495   4.808
62958SOL    HW290649   8.384  11.640   4.841
62959SOL     OW90650   4.207  13.808  12.549
62959SOL    HW190651   4.123  13.788  12.508
62959SOL    HW290652   4.268  13.817  12.475
62960SOL     OW90653   6.288   5.156   9.686
62960SOL    HW190654   6.341   5.099   9.741
62960SOL    HW290655   6.279   5.237   9.737
62961SOL     OW90656   3.992   1.760   1.335
62961SOL    HW190657   3.935   1.789   1.406
62961SOL    HW290658   4.036   1.840   1.305
62962SOL     OW90659   6.158   8.977   6.784
62962SOL    HW190660   6.197   9.024   6.857
62962SOL    HW290661   6.099   9.040   6.743
62963SOL     OW90662  12.963   3.826   4.469
62963SOL    HW190663  12.982   3.733   4.460
62963SOL    HW290664  13.006   3.852   4.550
62964SOL     OW90665   1.233   2.774   1.494
62964SOL    HW190666   1.258   2.689   1.457
62964SOL    HW290667   1.137   2.772   1.495
62965SOL     OW90668  13.323   0.531  13.322
62965SOL    HW190669  13.395   0.551  13.382
62965SOL    HW290670  13.281   0.615  13.305
62966SOL     OW90671   8.956  14.476  10.270
62966SOL    HW190672   8.876  14.424  10.265
62966SOL    HW290673   8.925  14.567  10.275
62967SOL     OW90674  12.423   3.019   7.223
62967SOL    HW190675  12.355   3.078   7.256
62967SOL    HW290676  12.505   3.057   7.254
62968SOL     OW90677  11.417   5.520   1.259
62968SOL    HW190678  11.374   5.458   1.317
62968SOL    HW290679  11.509   5.494   1.259
62969SOL     OW90680   5.022   3.868   0.240
62969SOL    HW190681   5.016   3.952   0.194
62969SOL    HW290682   5.077   3.886   0.316
62970SOL     OW90683  12.942   7.512   4.217
62970SOL    HW190684  12.884   7.501   4.291
62970SOL    HW290685  12.965   7.605   4.219
62971SOL     OW90686   3.860   4.549  10.653
62971SOL    HW190687   3.797   4.615  10.623
62971SOL    HW290688   3.946   4.584  10.627
62972SOL     OW90689   6.533  11.576   3.938
62972SOL    HW190690   6.580  11.571   3.855
62972SOL    HW290691   6.600  11.560   4.004
62973SOL     OW90692   9.435   0.587  13.261
62973SOL    HW190693   9.471   0.633  13.185
62973SOL    HW290694   9.371   0.648  13.298
62974SOL     OW90695   3.824  12.565   9.670
62974SOL    HW190696   3.791  12.654   9.656
62974SOL    HW290697   3.855  12.538   9.583
62975SOL     OW90698   4.855   8.745   3.930
62975SOL    HW190699   4.899   8.672   3.974
62975SOL    HW290700   4.808   8.704   3.857
62976SOL     OW90701  13.672  14.008   0.935
62976SOL    HW190702  13.700  14.099   0.942
62976SOL    HW290703  13.751  13.961   0.907
62977SOL     OW90704   6.062   1.563   6.355
62977SOL    HW190705   6.052   1.575   6.260
62977SOL    HW290706   6.095   1.474   6.365
62978SOL     OW90707   6.977   4.818   4.522
62978SOL    HW190708   6.902   4.820   4.463
62978SOL    HW290709   7.017   4.905   4.513
62979SOL     OW90710  12.879  13.049  13.947
62979SOL    HW190711  12.969  13.028  13.921
62979SOL    HW290712  12.835  12.965  13.953
62980SOL     OW90713  14.492   8.869  14.500
62980SOL    HW190714  14.559   8.931  14.472
62980SOL    HW290715  14.500   8.795  14.440
62981SOL     OW90716   1.437   1.867  13.440
62981SOL    HW190717   1.486   1.941  13.405
62981SOL    HW290718   1.377   1.842  13.371
62982SOL     OW90719   5.478   0.026   9.955
62982SOL    HW190720   5.437   0.062   9.876
62982SOL    HW290721   5.409   0.029  10.021
62983SOL     OW90722   8.788  12.826   3.560
62983SOL    HW190723   8.766  12.870   3.642
62983SOL    HW290724   8.858  12.879   3.523
62984SOL     OW90725   5.634  11.209   6.944
62984SOL    HW190726   5.585  11.217   6.862
62984SOL    HW290727   5.633  11.115   6.964
62985SOL     OW90728   2.525  10.462   5.079
62985SOL    HW190729   2.603  10.498   5.037
62985SOL    HW290730   2.479  10.539   5.113
62986SOL     OW90731  11.112  12.825   5.520
62986SOL    HW190732  11.125  12.745   5.570
62986SOL    HW290733  11.199  12.865   5.514
62987SOL     OW90734  13.578  12.503   7.974
62987SOL    HW190735  13.578  12.562   8.049
62987SOL    HW290736  13.642  12.435   7.997
62988SOL     OW90737  12.934   5.389   6.753
62988SOL    HW190738  12.955   5.363   6.843
62988SOL    HW290739  12.849   5.348   6.735
62989SOL     OW90740   6.875  14.593   4.235
62989SOL    HW190741   6.895  14.641   4.315
62989SOL    HW290742   6.927  14.637   4.167
62990SOL     OW90743  10.170   2.851   0.416
62990SOL    HW190744  10.178   2.897   0.500
62990SOL    HW290745  10.077   2.827   0.411
62991SOL     OW90746  10.558   6.025   5.373
62991SOL    HW190747  10.623   6.069   5.428
62991SOL    HW290748  10.494   5.989   5.435
62992SOL     OW90749  11.167   7.686   9.848
62992SOL    HW190750  11.115   7.606   9.856
62992SOL    HW290751  11.247   7.659   9.803
62993SOL     OW90752  10.583   6.658   5.547
62993SOL    HW190753  10.557   6.683   5.636
62993SOL    HW290754  10.560   6.733   5.493
62994SOL     OW90755   9.566   2.389   9.001
62994SOL    HW190756   9.638   2.371   8.941
62994SOL    HW290757   9.490   2.349   8.960
62995SOL     OW90758  10.716  14.668   8.832
62995SOL    HW190759  10.688  14.577   8.817
62995SOL    HW290760  10.807  14.660   8.862
62996SOL     OW90761   5.751   9.749   4.192
62996SOL    HW190762   5.701   9.773   4.114
62996SOL    HW290763   5.842   9.759   4.166
62997SOL     OW90764  11.489  13.489   7.375
62997SOL    HW190765  11.493  13.488   7.470
62997SOL    HW290766  11.405  13.529   7.354
62998SOL     OW90767   3.259   6.205   5.793
62998SOL    HW190768   3.312   6.225   5.870
62998SOL    HW290769   3.233   6.114   5.805
62999SOL     OW90770   2.365   5.015  10.347
62999SOL    HW190771   2.312   5.064  10.410
62999SOL    HW290772   2.307   5.001  10.273
63000SOL     OW90773  14.627   9.138   1.487
63000SOL    HW190774  14.569   9.063   1.498
63000SOL    HW290775  14.662   9.154   1.575
63001SOL     OW90776  11.179  10.860  12.760
63001SOL    HW190777  11.217  10.883  12.675
63001SOL    HW290778  11.106  10.922  12.770
63002SOL     OW90779   4.913   0.041   8.547
63002SOL    HW190780   4.976   0.102   8.510
63002SOL    HW290781   4.966  14.845   8.576
63003SOL     OW90782   3.473  13.530   4.134
63003SOL    HW190783   3.558  13.488   4.148
63003SOL    HW290784   3.464  13.591   4.207
63004SOL     OW90785   2.194   8.471  10.199
63004SOL    HW190786   2.125   8.406  10.190
63004SOL    HW290787   2.264   8.425  10.245
63005SOL     OW90788   4.059   8.152   6.662
63005SOL    HW190789   4.022   8.094   6.728
63005SOL    HW290790   4.147   8.117   6.647
63006SOL     OW90791  11.353   4.290   3.582
63006SOL    HW190792  11.363   4.382   3.561
63006SOL    HW290793  11.276   4.262   3.532
63007SOL     OW90794   7.420   7.854  10.807
63007SOL    HW190795   7.446   7.772  10.848
63007SOL    HW290796   7.500   7.906  10.804
63008SOL     OW90797   1.212   2.326   7.224
63008SOL    HW190798   1.304   2.318   7.247
63008SOL    HW290799   1.209   2.307   7.130
63009SOL     OW90800   7.548   5.062   2.077
63009SOL    HW190801   7.614   4.992   2.078
63009SOL    HW290802   7.594   5.138   2.043
63010SOL     OW90803  12.798  14.067   7.768
63010SOL    HW190804  12.819  14.044   7.859
63010SOL    HW290805  12.866  14.129   7.743
63011SOL     OW90806   7.991  10.326   7.641
63011SOL    HW190807   7.996  10.275   7.722
63011SOL    HW290808   8.001  10.417   7.668
63012SOL     OW90809   5.361  14.577   4.939
63012SOL    HW190810   5.303  14.623   4.879
63012SOL    HW290811   5.343  14.484   4.924
63013SOL     OW90812   6.295   5.906   3.432
63013SOL    HW190813   6.369   5.951   3.473
63013SOL    HW290814   6.241   5.976   3.396
63014SOL     OW90815   3.235   5.895   1.458
63014SOL    HW190816   3.232   5.838   1.535
63014SOL    HW290817   3.304   5.958   1.478
63015SOL     OW90818   0.830   4.397  10.835
63015SOL    HW190819   0.851   4.430  10.748
63015SOL    HW290820   0.818   4.302  10.823
63016SOL     OW90821   0.181  11.183   8.337
63016SOL    HW190822   0.142  11.256   8.385
63016SOL    HW290823   0.251  11.222   8.285
63017SOL     OW90824  13.589   8.037   5.196
63017SOL    HW190825  13.578   7.959   5.250
63017SOL    HW290826  13.601   8.108   5.258
63018SOL     OW90827  14.407   7.604   6.247
63018SOL    HW190828  14.489   7.565   6.277
63018SOL    HW290829  14.431   7.652   6.168
63019SOL     OW90830   7.024   1.852  10.139
63019SOL    HW190831   7.010   1.797  10.215
63019SOL    HW290832   6.942   1.847  10.089
63020SOL     OW90833   5.295   7.252   6.178
63020SOL    HW190834   5.228   7.184   6.182
63020SOL    HW290835   5.352   7.226   6.105
63021SOL     OW90836  12.603   9.967  13.541
63021SOL    HW190837  12.629   9.988  13.631
63021SOL    HW290838  12.529  10.026  13.524
63022SOL     OW90839   7.036   0.448   1.841
63022SOL    HW190840   7.108   0.421   1.784
63022SOL    HW290841   6.958   0.406   1.804
63023SOL     OW90842   3.163  12.506   4.834
63023SOL    HW190843   3.249  12.464   4.838
63023SOL    HW290844   3.181  12.599   4.851
63024SOL     OW90845   0.421   4.700   7.393
63024SOL    HW190846   0.443   4.651   7.315
63024SOL    HW290847   0.400   4.633   7.459
63025SOL     OW90848   0.541   6.948   9.819
63025SOL    HW190849   0.594   6.898   9.757
63025SOL    HW290850   0.605   6.995   9.873
63026SOL     OW90851   1.726   3.575  10.011
63026SOL    HW190852   1.767   3.629   9.944
63026SOL    HW290853   1.641   3.615  10.027
63027SOL     OW90854   0.802   6.350   3.080
63027SOL    HW190855   0.810   6.295   3.157
63027SOL    HW290856   0.753   6.298   3.017
63028SOL     OW90857  12.839   9.258   9.363
63028SOL    HW190858  12.913   9.202   9.339
63028SOL    HW290859  12.803   9.289   9.280
63029SOL     OW90860   1.106   8.939  14.555
63029SOL    HW190861   1.128   8.847  14.568
63029SOL    HW290862   1.020   8.938  14.513
63030SOL     OW90863  13.644   7.605   4.455
63030SOL    HW190864  13.724   7.656   4.465
63030SOL    HW290865  13.630   7.599   4.361
63031SOL     OW90866   3.565   4.036   0.442
63031SOL    HW190867   3.624   4.046   0.368
63031SOL    HW290868   3.561   4.124   0.481
63032SOL     OW90869   7.239   7.557   3.938
63032SOL    HW190870   7.149   7.575   3.910
63032SOL    HW290871   7.293   7.609   3.879
63033SOL     OW90872   2.451   1.020  14.551
63033SOL    HW190873   2.394   0.960  14.598
63033SOL    HW290874   2.518   0.964  14.512
63034SOL     OW90875   3.240  14.530   2.551
63034SOL    HW190876   3.246  14.471   2.626
63034SOL    HW290877   3.271  14.479   2.477
63035SOL     OW90878  12.459  10.500   0.541
63035SOL    HW190879  12.399  10.530   0.472
63035SOL    HW290880  12.464  10.573   0.602
63036SOL     OW90881   7.674   8.990  12.415
63036SOL    HW190882   7.702   9.054  12.349
63036SOL    HW290883   7.681   8.906  12.371
63037SOL     OW90884  11.730   8.251   6.486
63037SOL    HW190885  11.749   8.242   6.392
63037SOL    HW290886  11.733   8.346   6.501
63038SOL     OW90887   0.777   4.152   9.606
63038SOL    HW190888   0.836   4.123   9.675
63038SOL    HW290889   0.703   4.191   9.652
63039SOL     OW90890   2.105  10.874   3.559
63039SOL    HW190891   2.150  10.806   3.607
63039SOL    HW290892   2.165  10.899   3.489
63040SOL     OW90893   8.366   4.921   5.030
63040SOL    HW190894   8.423   4.986   5.070
63040SOL    HW290895   8.338   4.865   5.102
63041SOL     OW90896  11.244   5.037  14.014
63041SOL    HW190897  11.239   4.972  13.944
63041SOL    HW290898  11.220   4.989  14.093
63042SOL     OW90899   4.967  12.507   7.796
63042SOL    HW190900   4.911  12.475   7.866
63042SOL    HW290901   5.032  12.438   7.784
63043SOL     OW90902  10.362   5.020  11.539
63043SOL    HW190903  10.416   4.968  11.598
63043SOL    HW290904  10.392   5.110  11.551
63044SOL     OW90905  12.569  12.945   5.962
63044SOL    HW190906  12.636  12.917   6.025
63044SOL    HW290907  12.619  12.980   5.889
63045SOL     OW90908   8.891  13.499   9.644
63045SOL    HW190909   8.972  13.546   9.625
63045SOL    HW290910   8.918  13.425   9.698
63046SOL     OW90911   6.623   7.700   5.931
63046SOL    HW190912   6.553   7.694   5.997
63046SOL    HW290913   6.604   7.780   5.883
63047SOL     OW90914   8.540  11.943  10.195
63047SOL    HW190915   8.529  12.036  10.211
63047SOL    HW290916   8.607  11.915  10.258
63048SOL     OW90917   2.312   3.808   3.087
63048SOL    HW190918   2.285   3.894   3.120
63048SOL    HW290919   2.238   3.751   3.107
63049SOL     OW90920   0.158   7.135  10.746
63049SOL    HW190921   0.140   7.170  10.833
63049SOL    HW290922   0.242   7.174  10.722
63050SOL     OW90923   7.849  11.401   7.219
63050SOL    HW190924   7.848  11.315   7.177
63050SOL    HW290925   7.763  11.439   7.198
63051SOL     OW90926   2.738  12.761   2.896
63051SOL    HW190927   2.801  12.789   2.962
63051SOL    HW290928   2.662  12.731   2.947
63052SOL     OW90929   0.368  10.940   0.666
63052SOL    HW190930   0.291  10.940   0.723
63052SOL    HW290931   0.428  10.876   0.705
63053SOL     OW90932   8.387   7.443   1.368
63053SOL    HW190933   8.461   7.493   1.401
63053SOL    HW290934   8.382   7.367   1.427
63054SOL     OW90935  14.443   5.933  11.508
63054SOL    HW190936  14.493   5.935  11.590
63054SOL    HW290937  14.498   5.981  11.446
63055SOL     OW90938   0.761   5.565   9.598
63055SOL    HW190939   0.731   5.617   9.673
63055SOL    HW290940   0.761   5.627   9.525
63056SOL     OW90941  11.894   0.206   1.239
63056SOL    HW190942  11.821   0.229   1.181
63056SOL    HW290943  11.862   0.224   1.327
63057SOL     OW90944  11.435   5.124   4.023
63057SOL    HW190945  11.499   5.089   3.962
63057SOL    HW290946  11.448   5.219   4.020
63058SOL     OW90947   8.571  12.128  10.757
63058SOL    HW190948   8.539  12.136  10.667
63058SOL    HW290949   8.666  12.117  10.748
63059SOL     OW90950   2.079  14.142   2.049
63059SOL    HW190951   2.122  14.059   2.072
63059SOL    HW290952   2.003  14.116   1.997
63060SOL     OW90953   2.004   8.976  13.262
63060SOL    HW190954   2.031   9.067  13.270
63060SOL    HW290955   1.936   8.977  13.194
63061SOL     OW90956  12.852  10.773   5.535
63061SOL    HW190957  12.947  10.764   5.542
63061SOL    HW290958  12.838  10.809   5.448
63062SOL     OW90959   9.607  10.347   2.007
63062SOL    HW190960   9.514  10.358   1.986
63062SOL    HW290961   9.631  10.262   1.970
63063SOL     OW90962   2.351   9.169   6.231
63063SOL    HW190963   2.365   9.252   6.186
63063SOL    HW290964   2.419   9.111   6.196
63064SOL     OW90965   0.269   9.901  14.081
63064SOL    HW190966   0.181   9.937  14.092
63064SOL    HW290967   0.261   9.837  14.011
63065SOL     OW90968   7.584   8.153   3.881
63065SOL    HW190969   7.570   8.090   3.810
63065SOL    HW290970   7.631   8.104   3.948
63066SOL     OW90971   8.761   6.862  12.146
63066SOL    HW190972   8.717   6.935  12.191
63066SOL    HW290973   8.759   6.887  12.053
63067SOL     OW90974   1.744   8.127   2.499
63067SOL    HW190975   1.703   8.214   2.496
63067SOL    HW290976   1.830   8.143   2.539
63068SOL     OW90977  10.233  11.247   0.237
63068SOL    HW190978  10.259  11.167   0.284
63068SOL    HW290979  10.138  11.243   0.233
63069SOL     OW90980   5.574   9.298   2.014
63069SOL    HW190981   5.531   9.347   2.084
63069SOL    HW290982   5.579   9.208   2.047
63070SOL     OW90983   7.727   5.019   3.861
63070SOL    HW190984   7.801   5.027   3.921
63070SOL    HW290985   7.662   4.969   3.909
63071SOL     OW90986   8.014   1.561   6.917
63071SOL    HW190987   7.978   1.475   6.895
63071SOL    HW290988   7.944   1.622   6.893
63072SOL     OW90989  12.981  11.712   2.978
63072SOL    HW190990  13.075  11.698   2.973
63072SOL    HW290991  12.962  11.773   2.907
63073SOL     OW90992   4.470  13.563  14.114
63073SOL    HW190993   4.376  13.548  14.119
63073SOL    HW290994   4.488  13.578  14.022
63074SOL     OW90995   8.384   7.833  13.114
63074SOL    HW190996   8.375   7.810  13.207
63074SOL    HW290997   8.360   7.925  13.110
63075SOL     OW90998  14.452  14.460   9.647
63075SOL    HW190999  14.487  14.419   9.567
63075SOL    HW291000  14.497  14.415   9.718
63076SOL     OW91001  13.571  10.277   7.996
63076SOL    HW191002  13.528  10.203   7.954
63076SOL    HW291003  13.603  10.330   7.923
63077SOL     OW91004  10.042   3.362  13.617
63077SOL    HW191005  10.113   3.312  13.578
63077SOL    HW291006   9.979   3.296  13.645
63078SOL     OW91007  13.173  12.077   6.678
63078SOL    HW191008  13.116  12.015   6.634
63078SOL    HW291009  13.236  12.104   6.611
63079SOL     OW91010  10.591   0.107   7.866
63079SOL    HW191011  10.601   0.181   7.926
63079SOL    HW291012  10.672   0.057   7.877
63080SOL     OW91013   5.151   1.533   4.507
63080SOL    HW191014   5.169   1.595   4.578
63080SOL    HW291015   5.084   1.576   4.453
63081SOL     OW91016  14.173  13.984   2.480
63081SOL    HW191017  14.258  14.024   2.459
63081SOL    HW291018  14.122  13.991   2.400
63082SOL     OW91019   6.553  10.348  13.557
63082SOL    HW191020   6.615  10.291  13.512
63082SOL    HW291021   6.578  10.343  13.649
63083SOL     OW91022   8.283  12.745   9.540
63083SOL    HW191023   8.192  12.774   9.554
63083SOL    HW291024   8.286  12.725   9.446
63084SOL     OW91025   3.607  11.923  10.671
63084SOL    HW191026   3.684  11.880  10.708
63084SOL    HW291027   3.547  11.933  10.745
63085SOL     OW91028  11.785   0.233   3.897
63085SOL    HW191029  11.786   0.265   3.987
63085SOL    HW291030  11.850   0.163   3.895
63086SOL     OW91031   3.925   7.551   6.568
63086SOL    HW191032   3.976   7.587   6.640
63086SOL    HW291033   3.834   7.569   6.591
63087SOL     OW91034   3.159  10.916  13.086
63087SOL    HW191035   3.106  10.902  13.008
63087SOL    HW291036   3.106  10.973  13.141
63088SOL     OW91037   0.463   2.851  10.717
63088SOL    HW191038   0.547   2.812  10.743
63088SOL    HW291039   0.435   2.799  10.642
63089SOL     OW91040  12.598  12.609   8.572
63089SOL    HW191041  12.556  12.660   8.642
63089SOL    HW291042  12.537  12.614   8.499
63090SOL     OW91043   5.126   0.156   5.123
63090SOL    HW191044   5.162   0.114   5.201
63090SOL    HW291045   5.043   0.110   5.107
63091SOL     OW91046  14.173  10.726   0.895
63091SOL    HW191047  14.110  10.664   0.860
63091SOL    HW291048  14.226  10.674   0.956
63092SOL     OW91049   1.199   4.340  10.647
63092SOL    HW191050   1.161   4.389  10.574
63092SOL    HW291051   1.152   4.257  10.647
63093SOL     OW91052  14.297  13.138  12.974
63093SOL    HW191053  14.382  13.118  13.015
63093SOL    HW291054  14.317  13.150  12.882
63094SOL     OW91055   3.063   7.280  11.576
63094SOL    HW191056   2.983   7.250  11.620
63094SOL    HW291057   3.073   7.371  11.605
63095SOL     OW91058   0.906   1.713   8.878
63095SOL    HW191059   0.848   1.777   8.837
63095SOL    HW291060   0.942   1.759   8.954
63096SOL     OW91061   8.725  13.568   8.223
63096SOL    HW191062   8.701  13.530   8.308
63096SOL    HW291063   8.765  13.652   8.245
63097SOL     OW91064  12.634  12.420  14.355
63097SOL    HW191065  12.719  12.404  14.396
63097SOL    HW291066  12.650  12.494  14.297
63098SOL     OW91067   3.546   9.965   6.998
63098SOL    HW191068   3.549   9.897   6.931
63098SOL    HW291069   3.560  10.047   6.950
63099SOL     OW91070  11.908   3.744  14.210
63099SOL    HW191071  11.883   3.800  14.284
63099SOL    HW291072  11.826   3.730  14.163
63100SOL     OW91073  11.737   7.589   4.556
63100SOL    HW191074  11.659   7.547   4.590
63100SOL    HW291075  11.724   7.593   4.462
63101SOL     OW91076  11.609   6.051   0.835
63101SOL    HW191077  11.629   6.061   0.929
63101SOL    HW291078  11.560   5.969   0.830
63102SOL     OW91079   8.283   2.168   0.487
63102SOL    HW191080   8.250   2.258   0.490
63102SOL    HW291081   8.315   2.150   0.575
63103SOL     OW91082  12.202   3.258   3.913
63103SOL    HW191083  12.277   3.315   3.895
63103SOL    HW291084  12.178   3.279   4.003
63104SOL     OW91085   9.107  11.397  10.881
63104SOL    HW191086   9.083  11.442  10.962
63104SOL    HW291087   9.110  11.304  10.904
63105SOL     OW91088  11.127   7.176   0.220
63105SOL    HW191089  11.103   7.150   0.131
63105SOL    HW291090  11.216   7.143   0.232
63106SOL     OW91091   5.329   1.663   7.740
63106SOL    HW191092   5.305   1.585   7.689
63106SOL    HW291093   5.282   1.654   7.822
63107SOL     OW91094   4.610   9.762  13.664
63107SOL    HW191095   4.550   9.782  13.737
63107SOL    HW291096   4.556   9.771  13.586
63108SOL     OW91097   0.780  14.859   7.095
63108SOL    HW191098   0.806  14.835   7.006
63108SOL    HW291099   0.723   0.058   7.083
63109SOL     OW91100  12.858   2.463   3.207
63109SOL    HW191101  12.933   2.423   3.251
63109SOL    HW291102  12.882   2.463   3.115
63110SOL     OW91103  11.401   3.670   6.513
63110SOL    HW191104  11.311   3.667   6.481
63110SOL    HW291105  11.424   3.579   6.531
63111SOL     OW91106  14.346   1.428   5.230
63111SOL    HW191107  14.399   1.456   5.155
63111SOL    HW291108  14.382   1.477   5.305
63112SOL     OW91109   9.874   5.170   5.905
63112SOL    HW191110   9.968   5.173   5.925
63112SOL    HW291111   9.836   5.115   5.974
63113SOL     OW91112   6.173  12.824  13.473
63113SOL    HW191113   6.234  12.815  13.400
63113SOL    HW291114   6.145  12.915  13.470
63114SOL     OW91115   0.983  14.402   7.211
63114SOL    HW191116   1.074  14.392   7.183
63114SOL    HW291117   0.975  14.494   7.236
63115SOL     OW91118  10.899   0.858  12.244
63115SOL    HW191119  10.834   0.905  12.296
63115SOL    HW291120  10.977   0.857  12.299
63116SOL     OW91121   6.319  10.488   9.957
63116SOL    HW191122   6.236  10.441   9.969
63116SOL    HW291123   6.337  10.479   9.863
63117SOL     OW91124   1.242   3.584  10.455
63117SOL    HW191125   1.226   3.553  10.366
63117SOL    HW291126   1.293   3.515  10.496
63118SOL     OW91127   4.299   7.963   3.642
63118SOL    HW191128   4.342   7.892   3.594
63118SOL    HW291129   4.206   7.954   3.619
63119SOL     OW91130  11.553   8.218   7.164
63119SOL    HW191131  11.515   8.187   7.081
63119SOL    HW291132  11.486   8.199   7.229
63120SOL     OW91133   5.990   3.340   0.338
63120SOL    HW191134   5.933   3.408   0.301
63120SOL    HW291135   5.930   3.284   0.388
63121SOL     OW91136   9.328   5.840   3.395
63121SOL    HW191137   9.421   5.814   3.396
63121SOL    HW291138   9.311   5.865   3.304
63122SOL     OW91139   2.201  13.120   2.784
63122SOL    HW191140   2.251  13.132   2.703
63122SOL    HW291141   2.174  13.029   2.783
63123SOL     OW91142   0.815  12.345   8.265
63123SOL    HW191143   0.885  12.365   8.203
63123SOL    HW291144   0.753  12.417   8.254
63124SOL     OW91145   1.397   3.451   2.296
63124SOL    HW191146   1.408   3.481   2.386
63124SOL    HW291147   1.310   3.483   2.271
63125SOL     OW91148  12.881   5.537   1.457
63125SOL    HW191149  12.826   5.599   1.503
63125SOL    HW291150  12.958   5.587   1.431
63126SOL     OW91151  12.096   9.589  11.919
63126SOL    HW191152  12.048   9.541  11.851
63126SOL    HW291153  12.157   9.645  11.871
63127SOL     OW91154   2.551  11.798   3.168
63127SOL    HW191155   2.464  11.811   3.206
63127SOL    HW291156   2.566  11.703   3.174
63128SOL     OW91157   0.858   5.853  10.609
63128SOL    HW191158   0.895   5.888  10.690
63128SOL    HW291159   0.822   5.929  10.564
63129SOL     OW91160   2.796   2.742   0.062
63129SOL    HW191161   2.880   2.741   0.015
63129SOL    HW291162   2.757   2.825   0.038
63130SOL     OW91163   4.347   6.858   2.282
63130SOL    HW191164   4.302   6.911   2.216
63130SOL    HW291165   4.388   6.787   2.232
63131SOL     OW91166  12.875  13.416   6.279
63131SOL    HW191167  12.924  13.418   6.197
63131SOL    HW291168  12.788  13.450   6.256
63132SOL     OW91169  12.610   1.780   3.262
63132SOL    HW191170  12.705   1.774   3.255
63132SOL    HW291171  12.584   1.827   3.183
63133SOL     OW91172   3.453   8.650   2.800
63133SOL    HW191173   3.544   8.667   2.778
63133SOL    HW291174   3.457   8.597   2.880
63134SOL     OW91175   2.518   9.751   3.705
63134SOL    HW191176   2.469   9.676   3.739
63134SOL    HW291177   2.450   9.814   3.680
63135SOL     OW91178   4.808   1.017  12.103
63135SOL    HW191179   4.856   1.092  12.139
63135SOL    HW291180   4.874   0.965  12.059
63136SOL     OW91181  11.477  11.381   1.654
63136SOL    HW191182  11.413  11.453   1.654
63136SOL    HW291183  11.540  11.405   1.587
63137SOL     OW91184   8.944   2.433   4.362
63137SOL    HW191185   9.019   2.491   4.368
63137SOL    HW291186   8.957   2.385   4.281
63138SOL     OW91187  10.585   3.899  13.286
63138SOL    HW191188  10.597   3.817  13.237
63138SOL    HW291189  10.672   3.918  13.322
63139SOL     OW91190   2.402  14.857   7.449
63139SOL    HW191191   2.319  14.815   7.427
63139SOL    HW291192   2.462  14.784   7.463
63140SOL     OW91193  13.609   2.178   7.647
63140SOL    HW191194  13.554   2.117   7.597
63140SOL    HW291195  13.579   2.265   7.621
63141SOL     OW91196  14.429   8.019  13.124
63141SOL    HW191197  14.478   7.937  13.121
63141SOL    HW291198  14.450   8.062  13.041
63142SOL     OW91199  14.521   9.191   4.326
63142SOL    HW191200  14.449   9.163   4.383
63142SOL    HW291201  14.534   9.118   4.266
63143SOL     OW91202   6.132   0.651   7.876
63143SOL    HW191203   6.106   0.666   7.967
63143SOL    HW291204   6.090   0.722   7.827
63144SOL     OW91205  13.058  11.053   1.802
63144SOL    HW191206  12.979  11.005   1.825
63144SOL    HW291207  13.048  11.073   1.709
63145SOL     OW91208   4.644   0.673   7.072
63145SOL    HW191209   4.654   0.748   7.131
63145SOL    HW291210   4.728   0.669   7.025
63146SOL     OW91211   0.796  12.915   3.566
63146SOL    HW191212   0.872  12.897   3.622
63146SOL    HW291213   0.747  12.982   3.613
63147SOL     OW91214   6.056  13.282   2.451
63147SOL    HW191215   6.145  13.279   2.416
63147SOL    HW291216   6.036  13.375   2.458
63148SOL     OW91217  11.083   4.877   2.993
63148SOL    HW191218  11.029   4.830   3.057
63148SOL    HW291219  11.160   4.905   3.042
63149SOL     OW91220  10.407   5.842  13.147
63149SOL    HW191221  10.443   5.778  13.209
63149SOL    HW291222  10.353   5.900  13.201
63150SOL     OW91223   4.260  13.515   8.957
63150SOL    HW191224   4.266  13.420   8.948
63150SOL    HW291225   4.313  13.536   9.034
63151SOL     OW91226   5.147   1.712   5.794
63151SOL    HW191227   5.238   1.739   5.804
63151SOL    HW291228   5.145   1.659   5.714
63152SOL     OW91229   8.510   1.490  14.864
63152SOL    HW191230   8.461   1.498   0.068
63152SOL    HW291231   8.602   1.489   0.013
63153SOL     OW91232  11.377   4.873  11.801
63153SOL    HW191233  11.421   4.853  11.719
63153SOL    HW291234  11.321   4.797  11.818
63154SOL     OW91235   5.406  13.840  11.861
63154SOL    HW191236   5.407  13.899  11.785
63154SOL    HW291237   5.488  13.858  11.906
63155SOL     OW91238  10.187   2.174   1.791
63155SOL    HW191239  10.204   2.085   1.822
63155SOL    HW291240  10.257   2.226   1.829
63156SOL     OW91241   3.658   4.150   9.631
63156SOL    HW191242   3.617   4.090   9.569
63156SOL    HW291243   3.670   4.231   9.582
63157SOL     OW91244  11.961   9.448   2.059
63157SOL    HW191245  11.994   9.401   1.983
63157SOL    HW291246  12.031   9.440   2.124
63158SOL     OW91247  11.572   4.915   6.547
63158SOL    HW191248  11.605   4.954   6.628
63158SOL    HW291249  11.649   4.907   6.491
63159SOL     OW91250   4.266   2.152   0.022
63159SOL    HW191251   4.340   2.127  14.844
63159SOL    HW291252   4.192   2.156  14.840
63160SOL     OW91253   5.815   6.575  10.499
63160SOL    HW191254   5.856   6.604  10.579
63160SOL    HW291255   5.789   6.656  10.454
63161SOL     OW91256   3.105   9.711   6.958
63161SOL    HW191257   3.068   9.623   6.949
63161SOL    HW291258   3.099   9.730   7.051
63162SOL     OW91259   9.555   0.267   8.430
63162SOL    HW191260   9.589   0.191   8.476
63162SOL    HW291261   9.606   0.341   8.464
63163SOL     OW91262   0.298   9.201   9.930
63163SOL    HW191263   0.257   9.214   9.844
63163SOL    HW291264   0.300   9.107   9.942
63164SOL     OW91265   3.652  11.339   5.949
63164SOL    HW191266   3.636  11.293   6.031
63164SOL    HW291267   3.602  11.420   5.955
63165SOL     OW91268   5.705   5.166   9.772
63165SOL    HW191269   5.636   5.137   9.831
63165SOL    HW291270   5.667   5.156   9.684
63166SOL     OW91271   1.013  13.537   0.557
63166SOL    HW191272   1.104  13.551   0.582
63166SOL    HW291273   0.982  13.623   0.528
63167SOL     OW91274   3.692  11.229  12.890
63167SOL    HW191275   3.656  11.239  12.802
63167SOL    HW291276   3.621  11.190  12.941
63168SOL     OW91277   5.911   6.424   4.588
63168SOL    HW191278   5.876   6.511   4.568
63168SOL    HW291279   5.914   6.379   4.504
63169SOL     OW91280   1.373   3.824   2.330
63169SOL    HW191281   1.362   3.896   2.392
63169SOL    HW291282   1.388   3.867   2.246
63170SOL     OW91283   5.052   8.215   7.582
63170SOL    HW191284   5.077   8.142   7.525
63170SOL    HW291285   4.974   8.252   7.540
63171SOL     OW91286   5.114   8.402   8.683
63171SOL    HW191287   5.098   8.378   8.592
63171SOL    HW291288   5.116   8.498   8.683
63172SOL     OW91289   6.641   6.202  12.881
63172SOL    HW191290   6.645   6.225  12.789
63172SOL    HW291291   6.665   6.109  12.884
63173SOL     OW91292  13.628   8.385   7.847
63173SOL    HW191293  13.596   8.386   7.757
63173SOL    HW291294  13.648   8.293   7.864
63174SOL     OW91295   6.629  13.517  12.867
63174SOL    HW191296   6.672  13.524  12.953
63174SOL    HW291297   6.612  13.423  12.857
63175SOL     OW91298   7.585  13.047  14.115
63175SOL    HW191299   7.600  13.051  14.021
63175SOL    HW291300   7.659  13.093  14.153
63176SOL     OW91301   6.057   5.371   9.254
63176SOL    HW191302   6.040   5.418   9.172
63176SOL    HW291303   6.151   5.357   9.254
63177SOL     OW91304   3.190   4.533  14.841
63177SOL    HW191305   3.204   4.441  14.864
63177SOL    HW291306   3.231   4.582   0.034
63178SOL     OW91307   3.205   0.173   2.480
63178SOL    HW191308   3.255   0.172   2.562
63178SOL    HW291309   3.198   0.081   2.455
63179SOL     OW91310  13.428   3.194   6.314
63179SOL    HW191311  13.445   3.175   6.406
63179SOL    HW291312  13.428   3.290   6.309
63180SOL     OW91313  13.517   9.477   4.729
63180SOL    HW191314  13.549   9.417   4.797
63180SOL    HW291315  13.584   9.474   4.661
63181SOL     OW91316   1.820   9.558   8.583
63181SOL    HW191317   1.900   9.559   8.530
63181SOL    HW291318   1.823   9.474   8.629
63182SOL     OW91319   8.944   4.679  11.950
63182SOL    HW191320   8.911   4.755  11.901
63182SOL    HW291321   8.866   4.644  11.995
63183SOL     OW91322  10.060  12.180   7.265
63183SOL    HW191323  10.040  12.274   7.267
63183SOL    HW291324   9.982  12.139   7.229
63184SOL     OW91325   6.345   8.608   0.524
63184SOL    HW191326   6.334   8.641   0.435
63184SOL    HW291327   6.403   8.532   0.515
63185SOL     OW91328  12.074   3.501  12.925
63185SOL    HW191329  12.099   3.516  13.017
63185SOL    HW291330  12.045   3.410  12.922
63186SOL     OW91331  11.010   2.149  12.004
63186SOL    HW191332  10.971   2.093  12.071
63186SOL    HW291333  11.104   2.133  12.011
63187SOL     OW91334  13.379  13.531  12.119
63187SOL    HW191335  13.339  13.459  12.168
63187SOL    HW291336  13.315  13.602  12.123
63188SOL     OW91337   7.041  11.094  10.699
63188SOL    HW191338   7.079  11.014  10.734
63188SOL    HW291339   6.947  11.087  10.719
63189SOL     OW91340   5.761  10.306   9.338
63189SOL    HW191341   5.789  10.217   9.360
63189SOL    HW291342   5.707  10.333   9.413
63190SOL     OW91343   3.770   2.398   0.920
63190SOL    HW191344   3.809   2.354   0.995
63190SOL    HW291345   3.716   2.467   0.958
63191SOL     OW91346   7.808   3.976  12.298
63191SOL    HW191347   7.762   3.893  12.301
63191SOL    HW291348   7.800   4.011  12.387
63192SOL     OW91349   2.513  12.670   9.211
63192SOL    HW191350   2.476  12.751   9.246
63192SOL    HW291351   2.463  12.601   9.254
63193SOL     OW91352   2.090   3.161   8.940
63193SOL    HW191353   1.995   3.147   8.935
63193SOL    HW291354   2.109   3.214   8.862
63194SOL     OW91355  10.580   8.474  11.147
63194SOL    HW191356  10.511   8.444  11.206
63194SOL    HW291357  10.656   8.420  11.168
63195SOL     OW91358   8.444   4.387   0.434
63195SOL    HW191359   8.420   4.344   0.352
63195SOL    HW291360   8.410   4.329   0.502
63196SOL     OW91361  13.246  10.449  13.741
63196SOL    HW191362  13.306  10.516  13.774
63196SOL    HW291363  13.211  10.407  13.819
63197SOL     OW91364   6.809   4.159  13.734
63197SOL    HW191365   6.766   4.223  13.677
63197SOL    HW291366   6.879   4.122  13.681
63198SOL     OW91367   9.302  13.854  14.696
63198SOL    HW191368   9.367  13.851  14.625
63198SOL    HW291369   9.322  13.777  14.749
63199SOL     OW91370  12.706   4.919  10.083
63199SOL    HW191371  12.712   5.011  10.058
63199SOL    HW291372  12.731   4.918  10.175
63200SOL     OW91373   0.552   7.022   5.541
63200SOL    HW191374   0.576   7.012   5.449
63200SOL    HW291375   0.596   7.103   5.568
63201SOL     OW91376   9.459   1.584  10.046
63201SOL    HW191377   9.418   1.619   9.967
63201SOL    HW291378   9.514   1.512  10.014
63202SOL     OW91379   1.108   6.173   3.308
63202SOL    HW191380   1.201   6.185   3.286
63202SOL    HW291381   1.102   6.081   3.335
63203SOL     OW91382  12.862  10.234   2.029
63203SOL    HW191383  12.841  10.184   2.108
63203SOL    HW291384  12.957  10.247   2.034
63204SOL     OW91385  10.164   2.940   2.489
63204SOL    HW191386  10.117   2.878   2.545
63204SOL    HW291387  10.244   2.894   2.464
63205SOL     OW91388  12.077   1.228  13.492
63205SOL    HW191389  12.115   1.273  13.568
63205SOL    HW291390  12.149   1.219  13.431
63206SOL     OW91391   4.291  10.604  12.543
63206SOL    HW191392   4.274  10.692  12.510
63206SOL    HW291393   4.206  10.560  12.538
63207SOL     OW91394   2.631   5.052   5.077
63207SOL    HW191395   2.717   5.082   5.047
63207SOL    HW291396   2.646   4.962   5.106
63208SOL     OW91397   1.634   7.405  13.247
63208SOL    HW191398   1.585   7.405  13.165
63208SOL    HW291399   1.690   7.327  13.241
63209SOL     OW91400   6.244   9.321   5.468
63209SOL    HW191401   6.230   9.244   5.413
63209SOL    HW291402   6.289   9.288   5.545
63210SOL     OW91403  12.954   3.777   6.269
63210SOL    HW191404  12.862   3.773   6.243
63210SOL    HW291405  12.999   3.815   6.193
63211SOL     OW91406   2.741   8.684   6.852
63211SOL    HW191407   2.676   8.636   6.903
63211SOL    HW291408   2.778   8.618   6.793
63212SOL     OW91409   7.467   9.268   3.786
63212SOL    HW191410   7.476   9.229   3.873
63212SOL    HW291411   7.400   9.335   3.796
63213SOL     OW91412  14.610  10.473  14.589
63213SOL    HW191413  14.629  10.507  14.676
63213SOL    HW291414  14.636  10.543  14.530
63214SOL     OW91415  12.090   3.000   4.174
63214SOL    HW191416  12.166   2.958   4.136
63214SOL    HW291417  12.034   3.022   4.099
63215SOL     OW91418  13.048   5.988   4.196
63215SOL    HW191419  13.013   6.005   4.108
63215SOL    HW291420  12.976   6.009   4.255
63216SOL     OW91421  10.237   2.206   1.030
63216SOL    HW191422  10.223   2.160   0.947
63216SOL    HW291423  10.331   2.195   1.047
63217SOL     OW91424  12.122  13.789  10.292
63217SOL    HW191425  12.187  13.815  10.358
63217SOL    HW291426  12.174  13.775  10.213
63218SOL     OW91427   8.218  12.078   2.595
63218SOL    HW191428   8.256  12.021   2.662
63218SOL    HW291429   8.275  12.155   2.593
63219SOL     OW91430   6.425  14.817   7.178
63219SOL    HW191431   6.428   0.001   7.251
63219SOL    HW291432   6.475  14.860   7.109
63220SOL     OW91433   7.001  12.457  10.868
63220SOL    HW191434   6.923  12.405  10.852
63220SOL    HW291435   7.064  12.426  10.802
63221SOL     OW91436  14.380   0.061  10.633
63221SOL    HW191437  14.286   0.043  10.638
63221SOL    HW291438  14.394   0.088  10.542
63222SOL     OW91439  11.153  11.382  13.149
63222SOL    HW191440  11.078  11.442  13.154
63222SOL    HW291441  11.117  11.303  13.109
63223SOL     OW91442  13.446   6.875  12.783
63223SOL    HW191443  13.494   6.792  12.778
63223SOL    HW291444  13.363   6.852  12.825
63224SOL     OW91445  14.485   4.482   2.939
63224SOL    HW191446  14.490   4.415   2.871
63224SOL    HW291447  14.453   4.436   3.016
63225SOL     OW91448  12.754  13.608   1.994
63225SOL    HW191449  12.713  13.634   1.911
63225SOL    HW291450  12.697  13.539   2.028
63226SOL     OW91451  12.016  12.676  14.132
63226SOL    HW191452  12.107  12.689  14.160
63226SOL    HW291453  11.968  12.750  14.171
63227SOL     OW91454  12.234   9.089  12.617
63227SOL    HW191455  12.171   9.092  12.545
63227SOL    HW291456  12.180   9.087  12.696
63228SOL     OW91457   4.465   2.782   7.737
63228SOL    HW191458   4.430   2.857   7.688
63228SOL    HW291459   4.396   2.760   7.799
63229SOL     OW91460   0.986  10.462   3.015
63229SOL    HW191461   0.948  10.516   3.085
63229SOL    HW291462   0.927  10.474   2.941
63230SOL     OW91463  10.656   4.818  12.994
63230SOL    HW191464  10.597   4.892  13.008
63230SOL    HW291465  10.603   4.741  13.017
63231SOL     OW91466  10.904  12.294   6.466
63231SOL    HW191467  10.986  12.342   6.472
63231SOL    HW291468  10.879  12.300   6.373
63232SOL     OW91469  14.009   6.338   1.071
63232SOL    HW191470  13.943   6.403   1.046
63232SOL    HW291471  13.971   6.293   1.146
63233SOL     OW91472  12.468  12.428   1.906
63233SOL    HW191473  12.386  12.384   1.883
63233SOL    HW291474  12.475  12.417   2.001
63234SOL     OW91475   1.919  11.197   6.334
63234SOL    HW191476   1.932  11.280   6.379
63234SOL    HW291477   1.951  11.212   6.246
63235SOL     OW91478  13.029  12.467  12.185
63235SOL    HW191479  12.945  12.428  12.160
63235SOL    HW291480  13.088  12.445  12.112
63236SOL     OW91481   0.103   2.573   6.606
63236SOL    HW191482   0.183   2.608   6.567
63236SOL    HW291483   0.039   2.643   6.598
63237SOL     OW91484   5.587  14.070   0.251
63237SOL    HW191485   5.658  14.102   0.306
63237SOL    HW291486   5.615  13.982   0.225
63238SOL     OW91487   4.108   1.382  10.571
63238SOL    HW191488   4.132   1.453  10.511
63238SOL    HW291489   4.157   1.306  10.539
63239SOL     OW91490   6.435   2.879   7.607
63239SOL    HW191491   6.459   2.786   7.607
63239SOL    HW291492   6.516   2.925   7.631
63240SOL     OW91493   3.210   7.128  10.885
63240SOL    HW191494   3.122   7.157  10.864
63240SOL    HW291495   3.243   7.088  10.804
63241SOL     OW91496   8.127   4.654  13.744
63241SOL    HW191497   8.218   4.682  13.742
63241SOL    HW291498   8.094   4.684  13.828
63242SOL     OW91499   5.680   3.187   5.039
63242SOL    HW191500   5.696   3.121   4.972
63242SOL    HW291501   5.736   3.261   5.014
63243SOL     OW91502  11.131  13.801  10.597
63243SOL    HW191503  11.037  13.818  10.593
63243SOL    HW291504  11.148  13.742  10.523
63244SOL     OW91505   1.248   4.939   6.935
63244SOL    HW191506   1.281   4.855   6.967
63244SOL    HW291507   1.307   5.004   6.973
63245SOL     OW91508  12.653  10.892   6.550
63245SOL    HW191509  12.572  10.886   6.499
63245SOL    HW291510  12.644  10.972   6.601
63246SOL     OW91511  13.820   8.508   2.662
63246SOL    HW191512  13.868   8.426   2.656
63246SOL    HW291513  13.823   8.532   2.754
63247SOL     OW91514  14.597  12.071   4.336
63247SOL    HW191515  14.541  12.102   4.265
63247SOL    HW291516  14.567  12.119   4.413
63248SOL     OW91517  10.403   7.463   7.668
63248SOL    HW191518  10.467   7.427   7.730
63248SOL    HW291519  10.351   7.524   7.720
63249SOL     OW91520   0.913  10.518  12.632
63249SOL    HW191521   0.897  10.466  12.711
63249SOL    HW291522   0.861  10.597  12.644
63250SOL     OW91523  10.318  13.961   2.337
63250SOL    HW191524  10.233  13.956   2.294
63250SOL    HW291525  10.347  14.051   2.322
63251SOL     OW91526   5.225  11.782   2.365
63251SOL    HW191527   5.315  11.751   2.374
63251SOL    HW291528   5.212  11.841   2.439
63252SOL     OW91529  13.688  13.331   8.231
63252SOL    HW191530  13.618  13.349   8.168
63252SOL    HW291531  13.765  13.314   8.177
63253SOL     OW91532   7.744   8.996  12.983
63253SOL    HW191533   7.742   8.980  12.889
63253SOL    HW291534   7.652   8.997  13.009
63254SOL     OW91535   9.507  13.079   0.030
63254SOL    HW191536   9.462  13.137  14.847
63254SOL    HW291537   9.446  13.005   0.042
63255SOL     OW91538   2.833  13.388  14.183
63255SOL    HW191539   2.800  13.431  14.262
63255SOL    HW291540   2.912  13.343  14.213
63256SOL     OW91541  12.347   1.615   3.005
63256SOL    HW191542  12.321   1.707   3.010
63256SOL    HW291543  12.272   1.567   3.041
63257SOL     OW91544   7.156   6.636   4.826
63257SOL    HW191545   7.084   6.572   4.830
63257SOL    HW291546   7.112   6.719   4.806
63258SOL     OW91547   9.203  11.792   3.976
63258SOL    HW191548   9.169  11.785   3.887
63258SOL    HW291549   9.189  11.884   4.000
63259SOL     OW91550   6.785  11.329   4.008
63259SOL    HW191551   6.807  11.409   4.057
63259SOL    HW291552   6.714  11.289   4.058
63260SOL     OW91553   0.012   6.355   3.077
63260SOL    HW191554   0.083   6.402   3.120
63260SOL    HW291555   0.032   6.262   3.091
63261SOL     OW91556   3.360   4.340  12.032
63261SOL    HW191557   3.398   4.385  12.108
63261SOL    HW291558   3.308   4.407  11.988
63262SOL     OW91559   2.605   3.213   9.038
63262SOL    HW191560   2.671   3.150   9.008
63262SOL    HW291561   2.567   3.173   9.115
63263SOL     OW91562  13.571   3.711   5.003
63263SOL    HW191563  13.601   3.621   5.018
63263SOL    HW291564  13.646   3.766   5.025
63264SOL     OW91565   6.866  13.371   4.410
63264SOL    HW191566   6.923  13.429   4.359
63264SOL    HW291567   6.801  13.340   4.348
63265SOL     OW91568   2.513   5.859  12.879
63265SOL    HW191569   2.499   5.811  12.961
63265SOL    HW291570   2.537   5.947  12.907
63266SOL     OW91571  11.592   6.911   3.387
63266SOL    HW191572  11.566   6.988   3.438
63266SOL    HW291573  11.644   6.859   3.448
63267SOL     OW91574  10.450   8.595   9.245
63267SOL    HW191575  10.504   8.660   9.291
63267SOL    HW291576  10.419   8.536   9.313
63268SOL     OW91577   8.448   5.303  11.903
63268SOL    HW191578   8.389   5.230  11.884
63268SOL    HW291579   8.501   5.313  11.824
63269SOL     OW91580   0.034  14.653  12.480
63269SOL    HW191581  14.870  14.625  12.561
63269SOL    HW291582   0.000  14.742  12.465
63270SOL     OW91583  12.322   1.838  11.196
63270SOL    HW191584  12.248   1.891  11.168
63270SOL    HW291585  12.380   1.835  11.119
63271SOL     OW91586   0.802   4.301  10.328
63271SOL    HW191587   0.885   4.291  10.281
63271SOL    HW291588   0.802   4.229  10.392
63272SOL     OW91589  10.120  12.911   4.654
63272SOL    HW191590  10.071  12.829   4.656
63272SOL    HW291591  10.196  12.895   4.710
63273SOL     OW91592  13.922   7.736   7.261
63273SOL    HW191593  13.848   7.741   7.321
63273SOL    HW291594  13.992   7.784   7.305
63274SOL     OW91595   6.765   1.437  12.657
63274SOL    HW191596   6.737   1.366  12.598
63274SOL    HW291597   6.857   1.451  12.635
63275SOL     OW91598   1.478  10.335   0.462
63275SOL    HW191599   1.481  10.349   0.557
63275SOL    HW291600   1.543  10.396   0.427
63276SOL     OW91601  10.046   0.612   8.419
63276SOL    HW191602   9.985   0.634   8.488
63276SOL    HW291603  10.107   0.550   8.460
63277SOL     OW91604  13.372   0.367   4.702
63277SOL    HW191605  13.343   0.349   4.792
63277SOL    HW291606  13.464   0.391   4.711
63278SOL     OW91607  13.873   8.134  10.913
63278SOL    HW191608  13.805   8.071  10.935
63278SOL    HW291609  13.827   8.217  10.903
63279SOL     OW91610  10.098   8.925   4.358
63279SOL    HW191611  10.020   8.899   4.406
63279SOL    HW291612  10.075   8.911   4.266
63280SOL     OW91613   1.635   1.176   1.584
63280SOL    HW191614   1.599   1.088   1.596
63280SOL    HW291615   1.579   1.216   1.518
63281SOL     OW91616   7.527   7.007   2.459
63281SOL    HW191617   7.609   6.963   2.438
63281SOL    HW291618   7.545   7.099   2.444
63282SOL     OW91619  12.721  10.708  11.289
63282SOL    HW191620  12.788  10.758  11.335
63282SOL    HW291621  12.640  10.726  11.337
63283SOL     OW91622   1.767   8.958   4.789
63283SOL    HW191623   1.831   8.909   4.738
63283SOL    HW291624   1.741   8.899   4.860
63284SOL     OW91625   6.459  13.276  13.792
63284SOL    HW191626   6.443  13.327  13.713
63284SOL    HW291627   6.404  13.199  13.782
63285SOL     OW91628   2.838   3.624   2.606
63285SOL    HW191629   2.811   3.571   2.682
63285SOL    HW291630   2.762   3.623   2.548
63286SOL     OW91631   8.148   4.453   3.264
63286SOL    HW191632   8.168   4.540   3.298
63286SOL    HW291633   8.069   4.426   3.310
63287SOL     OW91634   8.548  13.136  14.873
63287SOL    HW191635   8.536  13.141   0.090
63287SOL    HW291636   8.556  13.228  14.846
63288SOL     OW91637   0.544   2.969  12.137
63288SOL    HW191638   0.476   2.990  12.072
63288SOL    HW291639   0.516   3.013  12.216
63289SOL     OW91640  10.825  13.878   0.047
63289SOL    HW191641  10.738  13.859   0.014
63289SOL    HW291642  10.810  13.929   0.127
63290SOL     OW91643   2.965  14.336   4.809
63290SOL    HW191644   2.984  14.302   4.896
63290SOL    HW291645   2.906  14.272   4.770
63291SOL     OW91646   6.006   1.529  10.629
63291SOL    HW191647   6.007   1.489  10.716
63291SOL    HW291648   6.048   1.614  10.641
63292SOL     OW91649  13.342   3.747   3.109
63292SOL    HW191650  13.425   3.786   3.138
63292SOL    HW291651  13.367   3.691   3.036
63293SOL     OW91652  11.319   8.874   2.904
63293SOL    HW191653  11.318   8.934   2.980
63293SOL    HW291654  11.226   8.859   2.885
63294SOL     OW91655   4.253   0.631  14.377
63294SOL    HW191656   4.229   0.688  14.304
63294SOL    HW291657   4.230   0.543  14.346
63295SOL     OW91658  13.325   9.346   3.126
63295SOL    HW191659  13.289   9.311   3.207
63295SOL    HW291660  13.418   9.359   3.144
63296SOL     OW91661  11.434  11.259   5.287
63296SOL    HW191662  11.388  11.218   5.213
63296SOL    HW291663  11.502  11.196   5.311
63297SOL     OW91664   4.779   8.366   6.674
63297SOL    HW191665   4.698   8.354   6.723
63297SOL    HW291666   4.803   8.277   6.646
63298SOL     OW91667   7.157   5.472  13.925
63298SOL    HW191668   7.118   5.551  13.886
63298SOL    HW291669   7.124   5.471  14.015
63299SOL     OW91670   9.648   5.285   4.828
63299SOL    HW191671   9.610   5.245   4.906
63299SOL    HW291672   9.742   5.272   4.837
63300SOL     OW91673   4.618   0.799   6.184
63300SOL    HW191674   4.606   0.828   6.274
63300SOL    HW291675   4.619   0.703   6.189
63301SOL     OW91676   6.303   1.219   7.234
63301SOL    HW191677   6.342   1.307   7.238
63301SOL    HW291678   6.263   1.215   7.147
63302SOL     OW91679   7.069   9.449  12.760
63302SOL    HW191680   6.982   9.441  12.722
63302SOL    HW291681   7.060   9.419  12.850
63303SOL     OW91682  13.211   0.925   6.758
63303SOL    HW191683  13.141   0.938   6.822
63303SOL    HW291684  13.280   0.986   6.784
63304SOL     OW91685  10.927   7.137   8.929
63304SOL    HW191686  11.002   7.191   8.954
63304SOL    HW291687  10.912   7.159   8.837
63305SOL     OW91688  14.275   7.226   1.443
63305SOL    HW191689  14.191   7.239   1.486
63305SOL    HW291690  14.278   7.133   1.422
63306SOL     OW91691   9.862  12.581   3.175
63306SOL    HW191692   9.957  12.594   3.174
63306SOL    HW291693   9.825  12.669   3.174
63307SOL     OW91694   7.941   4.590   1.739
63307SOL    HW191695   8.004   4.521   1.761
63307SOL    HW291696   7.859   4.543   1.724
63308SOL     OW91697   4.550   2.468  11.655
63308SOL    HW191698   4.564   2.373  11.658
63308SOL    HW291699   4.637   2.505  11.664
63309SOL     OW91700   1.465   0.464   3.004
63309SOL    HW191701   1.375   0.461   3.035
63309SOL    HW291702   1.509   0.526   3.062
63310SOL     OW91703  14.245   3.496   6.688
63310SOL    HW191704  14.171   3.478   6.745
63310SOL    HW291705  14.206   3.518   6.604
63311SOL     OW91706   9.734   5.366  10.899
63311SOL    HW191707   9.776   5.299  10.844
63311SOL    HW291708   9.791   5.375  10.975
63312SOL     OW91709  10.345   0.962   5.369
63312SOL    HW191710  10.416   1.018   5.338
63312SOL    HW291711  10.271   0.983   5.313
63313SOL     OW91712  14.529  11.978   5.350
63313SOL    HW191713  14.441  11.998   5.381
63313SOL    HW291714  14.520  11.892   5.308
63314SOL     OW91715   4.127   6.301   7.830
63314SOL    HW191716   4.216   6.299   7.865
63314SOL    HW291717   4.080   6.361   7.889
63315SOL     OW91718   7.815   5.721  11.292
63315SOL    HW191719   7.735   5.770  11.273
63315SOL    HW291720   7.882   5.788  11.303
63316SOL     OW91721   8.337   0.702   5.294
63316SOL    HW191722   8.406   0.652   5.338
63316SOL    HW291723   8.271   0.638   5.270
63317SOL     OW91724  12.347  10.231   2.992
63317SOL    HW191725  12.300  10.310   2.967
63317SOL    HW291726  12.289  10.159   2.969
63318SOL     OW91727   8.811  13.823   5.759
63318SOL    HW191728   8.758  13.898   5.787
63318SOL    HW291729   8.800  13.759   5.829
63319SOL     OW91730   0.470   1.190   2.488
63319SOL    HW191731   0.462   1.111   2.541
63319SOL    HW291732   0.564   1.209   2.488
63320SOL     OW91733   8.689   5.874   3.700
63320SOL    HW191734   8.773   5.890   3.741
63320SOL    HW291735   8.707   5.879   3.606
63321SOL     OW91736  11.270   0.135   4.856
63321SOL    HW191737  11.266   0.215   4.909
63321SOL    HW291738  11.320   0.073   4.908
63322SOL     OW91739   0.890  10.323   6.861
63322SOL    HW191740   0.963  10.384   6.850
63322SOL    HW291741   0.819  10.377   6.897
63323SOL     OW91742  14.501  12.233   3.184
63323SOL    HW191743  14.532  12.304   3.128
63323SOL    HW291744  14.551  12.156   3.155
63324SOL     OW91745   0.429  14.558  10.527
63324SOL    HW191746   0.454  14.556  10.619
63324SOL    HW291747   0.335  14.539  10.527
63325SOL     OW91748   8.901   3.299  13.676
63325SOL    HW191749   8.809   3.274  13.669
63325SOL    HW291750   8.949   3.219  13.655
63326SOL     OW91751  11.368   8.560  12.900
63326SOL    HW191752  11.295   8.515  12.856
63326SOL    HW291753  11.383   8.508  12.979
63327SOL     OW91754  13.821   8.462   1.326
63327SOL    HW191755  13.860   8.540   1.285
63327SOL    HW291756  13.823   8.396   1.258
63328SOL     OW91757   1.961   1.604  10.246
63328SOL    HW191758   1.953   1.699  10.248
63328SOL    HW291759   1.892   1.576  10.185
63329SOL     OW91760   9.560  10.356   9.318
63329SOL    HW191761   9.547  10.270   9.358
63329SOL    HW291762   9.490  10.363   9.253
63330SOL     OW91763   4.545   3.095   3.594
63330SOL    HW191764   4.512   3.175   3.554
63330SOL    HW291765   4.566   3.120   3.684
63331SOL     OW91766   3.463   2.512   2.147
63331SOL    HW191767   3.469   2.531   2.054
63331SOL    HW291768   3.453   2.417   2.152
63332SOL     OW91769   0.613  14.295   6.573
63332SOL    HW191770   0.648  14.270   6.658
63332SOL    HW291771   0.524  14.326   6.591
63333SOL     OW91772   2.873  11.557   6.792
63333SOL    HW191773   2.954  11.607   6.793
63333SOL    HW291774   2.902  11.466   6.781
63334SOL     OW91775   8.728  10.925   2.757
63334SOL    HW191776   8.772  10.945   2.840
63334SOL    HW291777   8.729  10.829   2.753
63335SOL     OW91778  12.884  12.408  10.333
63335SOL    HW191779  12.815  12.462  10.372
63335SOL    HW291780  12.955  12.412  10.397
63336SOL     OW91781   9.863   7.806  11.761
63336SOL    HW191782   9.854   7.735  11.825
63336SOL    HW291783   9.808   7.876  11.796
63337SOL     OW91784   1.325   5.960   7.783
63337SOL    HW191785   1.344   5.916   7.701
63337SOL    HW291786   1.234   5.989   7.775
63338SOL     OW91787   3.217   8.869   1.658
63338SOL    HW191788   3.274   8.796   1.632
63338SOL    HW291789   3.274   8.946   1.656
63339SOL     OW91790  10.671   2.295   9.464
63339SOL    HW191791  10.599   2.339   9.509
63339SOL    HW291792  10.749   2.316   9.516
63340SOL     OW91793   5.121   5.693   2.032
63340SOL    HW191794   5.184   5.756   1.996
63340SOL    HW291795   5.081   5.739   2.107
63341SOL     OW91796   3.054  14.182   5.028
63341SOL    HW191797   3.115  14.249   5.060
63341SOL    HW291798   3.110  14.118   4.984
63342SOL     OW91799   7.138   5.003   6.304
63342SOL    HW191800   7.174   5.089   6.326
63342SOL    HW291801   7.129   4.958   6.388
63343SOL     OW91802  11.475   3.562  11.794
63343SOL    HW191803  11.448   3.494  11.733
63343SOL    HW291804  11.530   3.516  11.858
63344SOL     OW91805  10.600   9.289   0.914
63344SOL    HW191806  10.600   9.324   1.003
63344SOL    HW291807  10.604   9.366   0.857
63345SOL     OW91808  13.316   0.079  13.137
63345SOL    HW191809  13.346   0.131  13.212
63345SOL    HW291810  13.286   0.143  13.073
63346SOL     OW91811  12.807   8.614   3.777
63346SOL    HW191812  12.888   8.664   3.770
63346SOL    HW291813  12.744   8.662   3.724
63347SOL     OW91814  11.335   3.481   7.857
63347SOL    HW191815  11.250   3.501   7.817
63347SOL    HW291816  11.312   3.446   7.943
63348SOL     OW91817   4.179   0.746  14.137
63348SOL    HW191818   4.112   0.759  14.070
63348SOL    HW291819   4.262   0.763  14.091
63349SOL     OW91820  12.933  10.802  11.919
63349SOL    HW191821  12.900  10.824  12.006
63349SOL    HW291822  13.001  10.736  11.935
63350SOL     OW91823  12.149   3.623   0.949
63350SOL    HW191824  12.216   3.562   0.918
63350SOL    HW291825  12.125   3.589   1.035
63351SOL     OW91826   2.803  14.847   6.618
63351SOL    HW191827   2.794   0.004   6.529
63351SOL    HW291828   2.714  14.817   6.640
63352SOL     OW91829  13.676   1.349   1.253
63352SOL    HW191830  13.741   1.373   1.319
63352SOL    HW291831  13.694   1.258   1.232
63353SOL     OW91832  14.460   5.615   3.700
63353SOL    HW191833  14.423   5.550   3.641
63353SOL    HW291834  14.550   5.587   3.713
63354SOL     OW91835   3.480   3.449   7.787
63354SOL    HW191836   3.553   3.482   7.735
63354SOL    HW291837   3.521   3.408   7.863
63355SOL     OW91838  10.371  10.896  11.599
63355SOL    HW191839  10.424  10.975  11.587
63355SOL    HW291840  10.435  10.827  11.616
63356SOL     OW91841  13.227  12.760   6.891
63356SOL    HW191842  13.138  12.792   6.904
63356SOL    HW291843  13.278  12.838   6.870
63357SOL     OW91844   3.708   1.344  12.867
63357SOL    HW191845   3.762   1.286  12.815
63357SOL    HW291846   3.770   1.401  12.913
63358SOL     OW91847  13.533  14.743   9.500
63358SOL    HW191848  13.524  14.692   9.580
63358SOL    HW291849  13.466  14.811   9.507
63359SOL     OW91850   3.578  12.658   3.198
63359SOL    HW191851   3.559  12.565   3.208
63359SOL    HW291852   3.553  12.678   3.108
63360SOL     OW91853   4.927  10.827   5.714
63360SOL    HW191854   4.912  10.801   5.623
63360SOL    HW291855   4.992  10.897   5.710
63361SOL     OW91856  10.319   1.505   0.760
63361SOL    HW191857  10.250   1.474   0.702
63361SOL    HW291858  10.300   1.598   0.773
63362SOL     OW91859   7.365   1.527  14.602
63362SOL    HW191860   7.313   1.608  14.598
63362SOL    HW291861   7.446   1.554  14.645
63363SOL     OW91862   7.337  11.271   1.407
63363SOL    HW191863   7.297  11.249   1.323
63363SOL    HW291864   7.286  11.221   1.471
63364SOL     OW91865   8.279   0.726  12.586
63364SOL    HW191866   8.340   0.799  12.583
63364SOL    HW291867   8.321   0.661  12.642
63365SOL     OW91868   8.616   0.234  10.861
63365SOL    HW191869   8.525   0.256  10.844
63365SOL    HW291870   8.665   0.286  10.797
63366SOL     OW91871   6.149  11.665   9.242
63366SOL    HW191872   6.176  11.678   9.151
63366SOL    HW291873   6.079  11.600   9.238
63367SOL     OW91874   4.611   9.044   7.631
63367SOL    HW191875   4.635   9.125   7.587
63367SOL    HW291876   4.668   8.978   7.592
63368SOL     OW91877  12.130   0.296   9.083
63368SOL    HW191878  12.168   0.267   9.166
63368SOL    HW291879  12.055   0.350   9.109
63369SOL     OW91880   3.778   1.412   4.496
63369SOL    HW191881   3.798   1.326   4.534
63369SOL    HW291882   3.808   1.475   4.562
63370SOL     OW91883   7.889   0.293   5.773
63370SOL    HW191884   7.813   0.301   5.830
63370SOL    HW291885   7.873   0.212   5.724
63371SOL     OW91886   9.661   1.300  11.974
63371SOL    HW191887   9.611   1.285  11.894
63371SOL    HW291888   9.630   1.385  12.007
63372SOL     OW91889  13.365  12.034   1.636
63372SOL    HW191890  13.329  11.948   1.656
63372SOL    HW291891  13.396  12.027   1.546
63373SOL     OW91892   2.302   9.763  13.092
63373SOL    HW191893   2.393   9.773  13.062
63373SOL    HW291894   2.295   9.820  13.168
63374SOL     OW91895  14.008  13.142   3.554
63374SOL    HW191896  13.914  13.129   3.562
63374SOL    HW291897  14.027  13.212   3.617
63375SOL     OW91898   8.682   4.528  12.761
63375SOL    HW191899   8.745   4.491  12.823
63375SOL    HW291900   8.636   4.596  12.811
63376SOL     OW91901  13.617   5.792   2.210
63376SOL    HW191902  13.705   5.830   2.204
63376SOL    HW291903  13.572   5.847   2.274
63377SOL     OW91904   0.301   5.072   3.003
63377SOL    HW191905   0.234   5.069   2.935
63377SOL    HW291906   0.279   5.149   3.056
63378SOL     OW91907   9.040  14.451   1.172
63378SOL    HW191908   9.028  14.466   1.078
63378SOL    HW291909   8.973  14.504   1.214
63379SOL     OW91910   4.749  11.329   1.390
63379SOL    HW191911   4.681  11.286   1.338
63379SOL    HW291912   4.798  11.256   1.429
63380SOL     OW91913   8.639   1.012   7.206
63380SOL    HW191914   8.684   1.007   7.291
63380SOL    HW291915   8.614   1.104   7.198
63381SOL     OW91916   4.157   9.082   3.435
63381SOL    HW191917   4.175   9.055   3.345
63381SOL    HW291918   4.102   9.012   3.470
63382SOL     OW91919   6.714   5.488   9.976
63382SOL    HW191920   6.770   5.564   9.957
63382SOL    HW291921   6.764   5.437  10.040
63383SOL     OW91922  14.528   9.321   2.611
63383SOL    HW191923  14.500   9.398   2.561
63383SOL    HW291924  14.497   9.337   2.700
63384SOL     OW91925   2.096   9.267   2.691
63384SOL    HW191926   2.057   9.325   2.625
63384SOL    HW291927   2.175   9.313   2.719
63385SOL     OW91928  11.404  13.582  11.015
63385SOL    HW191929  11.387  13.662  11.065
63385SOL    HW291930  11.329  13.574  10.957
63386SOL     OW91931   1.400  14.346  13.728
63386SOL    HW191932   1.394  14.306  13.641
63386SOL    HW291933   1.316  14.327  13.769
63387SOL     OW91934   6.676   2.960   4.353
63387SOL    HW191935   6.645   2.955   4.263
63387SOL    HW291936   6.728   2.880   4.365
63388SOL     OW91937   0.263   2.080   9.192
63388SOL    HW191938   0.218   2.128   9.123
63388SOL    HW291939   0.236   1.989   9.180
63389SOL     OW91940  12.152  12.665   3.651
63389SOL    HW191941  12.182  12.596   3.711
63389SOL    HW291942  12.213  12.662   3.578
63390SOL     OW91943   6.328   4.722  14.797
63390SOL    HW191944   6.394   4.714  14.866
63390SOL    HW291945   6.301   4.632  14.780
63391SOL     OW91946   6.459   2.562  14.532
63391SOL    HW191947   6.403   2.603  14.465
63391SOL    HW291948   6.489   2.481  14.491
63392SOL     OW91949  12.733   2.128   0.084
63392SOL    HW191950  12.644   2.106   0.112
63392SOL    HW291951  12.785   2.119   0.164
63393SOL     OW91952   2.586   2.692   4.446
63393SOL    HW191953   2.515   2.726   4.392
63393SOL    HW291954   2.577   2.736   4.530
63394SOL     OW91955   5.841   0.821   0.218
63394SOL    HW191956   5.801   0.785   0.297
63394SOL    HW291957   5.767   0.849   0.164
63395SOL     OW91958   3.142  12.210   4.087
63395SOL    HW191959   3.114  12.157   4.162
63395SOL    HW291960   3.226  12.247   4.114
63396SOL     OW91961   1.259  12.731  11.775
63396SOL    HW191962   1.310  12.785  11.835
63396SOL    HW291963   1.181  12.707  11.824
63397SOL     OW91964   1.238   2.477  13.360
63397SOL    HW191965   1.248   2.553  13.302
63397SOL    HW291966   1.328   2.453  13.384
63398SOL     OW91967   1.805  12.795   9.870
63398SOL    HW191968   1.890  12.825   9.839
63398SOL    HW291969   1.784  12.852   9.944
63399SOL     OW91970  10.479   0.032  13.647
63399SOL    HW191971  10.537   0.105  13.672
63399SOL    HW291972  10.537  14.849  13.601
63400SOL     OW91973   5.521   8.825   3.435
63400SOL    HW191974   5.581   8.888   3.396
63400SOL    HW291975   5.452   8.878   3.474
63401SOL     OW91976   0.035   2.149   8.465
63401SOL    HW191977   0.009   2.210   8.396
63401SOL    HW291978   0.131   2.153   8.465
63402SOL     OW91979   8.486  14.008   2.284
63402SOL    HW191980   8.486  14.096   2.245
63402SOL    HW291981   8.560  14.009   2.345
63403SOL     OW91982   0.191  12.490   7.058
63403SOL    HW191983   0.138  12.520   6.984
63403SOL    HW291984   0.192  12.395   7.051
63404SOL     OW91985   5.913   1.535  12.762
63404SOL    HW191986   5.850   1.479  12.808
63404SOL    HW291987   5.859   1.588  12.703
63405SOL     OW91988   3.593   0.917   9.705
63405SOL    HW191989   3.632   0.959   9.782
63405SOL    HW291990   3.647   0.839   9.691
63406SOL     OW91991   7.044  11.282  10.511
63406SOL    HW191992   7.118  11.339  10.531
63406SOL    HW291993   7.049  11.212  10.577
63407SOL     OW91994   2.161   4.602   8.698
63407SOL    HW191995   2.147   4.650   8.616
63407SOL    HW291996   2.222   4.532   8.674
63408SOL     OW91997   2.400   8.682   7.992
63408SOL    HW191998   2.323   8.681   7.934
63408SOL    HW291999   2.467   8.728   7.943
63409SOL     OW92000   6.831  11.468   5.437
63409SOL    HW192001   6.777  11.528   5.385
63409SOL    HW292002   6.891  11.525   5.485
63410SOL     OW92003   3.727   7.766  10.412
63410SOL    HW192004   3.736   7.822  10.335
63410SOL    HW292005   3.805   7.784  10.465
63411SOL     OW92006   8.386  13.094   1.787
63411SOL    HW192007   8.400  13.005   1.820
63411SOL    HW292008   8.343  13.082   1.703
63412SOL     OW92009   7.123  12.445   8.423
63412SOL    HW192010   7.196  12.468   8.480
63412SOL    HW292011   7.163  12.408   8.345
63413SOL     OW92012  10.954   9.269  12.530
63413SOL    HW192013  11.038   9.294  12.493
63413SOL    HW292014  10.952   9.311  12.616
63414SOL     OW92015  11.169   4.380   2.366
63414SOL    HW192016  11.121   4.443   2.312
63414SOL    HW292017  11.261   4.395   2.345
63415SOL     OW92018   9.046   4.184   4.515
63415SOL    HW192019   8.989   4.149   4.447
63415SOL    HW292020   9.091   4.257   4.473
63416SOL     OW92021  10.966   9.981   0.254
63416SOL    HW192022  10.896   9.919   0.276
63416SOL    HW292023  10.945  10.060   0.303
63417SOL     OW92024   3.985   6.590   2.712
63417SOL    HW192025   4.042   6.622   2.642
63417SOL    HW292026   3.919   6.538   2.667
63418SOL     OW92027   9.603   5.130   7.800
63418SOL    HW192028   9.627   5.209   7.752
63418SOL    HW292029   9.668   5.065   7.775
63419SOL     OW92030   3.825   2.358  12.451
63419SOL    HW192031   3.807   2.281  12.504
63419SOL    HW292032   3.841   2.323  12.363
63420SOL     OW92033   0.772   6.097   0.635
63420SOL    HW192034   0.808   6.035   0.699
63420SOL    HW292035   0.732   6.166   0.688
63421SOL     OW92036  10.558   2.083   0.405
63421SOL    HW192037  10.606   2.078   0.322
63421SOL    HW292038  10.555   2.177   0.425
63422SOL     OW92039   3.098  11.545   4.823
63422SOL    HW192040   3.112  11.538   4.917
63422SOL    HW292041   3.025  11.485   4.805
63423SOL     OW92042  10.772   4.327   6.621
63423SOL    HW192043  10.805   4.267   6.689
63423SOL    HW292044  10.794   4.414   6.653
63424SOL     OW92045   2.568  14.092   8.474
63424SOL    HW192046   2.607  14.165   8.522
63424SOL    HW292047   2.597  14.105   8.384
63425SOL     OW92048  11.432  13.228   7.244
63425SOL    HW192049  11.445  13.145   7.289
63425SOL    HW292050  11.436  13.294   7.313
63426SOL     OW92051  13.924   7.104   4.441
63426SOL    HW192052  13.862   7.161   4.395
63426SOL    HW292053  13.889   7.099   4.530
63427SOL     OW92054  10.740  14.573  14.084
63427SOL    HW192055  10.690  14.498  14.052
63427SOL    HW292056  10.757  14.626  14.006
63428SOL     OW92057   4.825  11.645   3.760
63428SOL    HW192058   4.818  11.551   3.772
63428SOL    HW292059   4.919  11.661   3.746
63429SOL     OW92060   1.904   2.933   0.831
63429SOL    HW192061   1.941   2.898   0.750
63429SOL    HW292062   1.968   2.996   0.862
63430SOL     OW92063   7.723   9.103   2.077
63430SOL    HW192064   7.639   9.085   2.120
63430SOL    HW292065   7.760   9.176   2.127
63431SOL     OW92066   3.516   9.116  14.431
63431SOL    HW192067   3.590   9.058  14.445
63431SOL    HW292068   3.451   9.064  14.384
63432SOL     OW92069  13.080  10.929   9.048
63432SOL    HW192070  13.089  11.007   8.993
63432SOL    HW292071  13.164  10.923   9.095
63433SOL     OW92072   1.699   5.030  13.422
63433SOL    HW192073   1.697   4.999  13.332
63433SOL    HW292074   1.789   5.012  13.451
63434SOL     OW92075  10.892   6.308   5.394
63434SOL    HW192076  10.960   6.373   5.409
63434SOL    HW292077  10.811   6.359   5.392
63435SOL     OW92078   0.237   4.836   1.294
63435SOL    HW192079   0.156   4.829   1.242
63435SOL    HW292080   0.246   4.750   1.334
63436SOL     OW92081  10.677  10.506   6.701
63436SOL    HW192082  10.673  10.519   6.795
63436SOL    HW292083  10.744  10.568   6.671
63437SOL     OW92084   4.421   8.297   5.721
63437SOL    HW192085   4.451   8.214   5.759
63437SOL    HW292086   4.354   8.328   5.782
63438SOL     OW92087   5.428  12.555  12.165
63438SOL    HW192088   5.464  12.619  12.227
63438SOL    HW292089   5.349  12.597  12.130
63439SOL     OW92090   5.239   1.898   9.174
63439SOL    HW192091   5.182   1.975   9.179
63439SOL    HW292092   5.207   1.840   9.242
63440SOL     OW92093   5.062  13.665  10.553
63440SOL    HW192094   5.147  13.689  10.515
63440SOL    HW292095   5.070  13.689  10.645
63441SOL     OW92096  11.111  13.289   8.183
63441SOL    HW192097  11.142  13.333   8.262
63441SOL    HW292098  11.090  13.200   8.211
63442SOL     OW92099   1.805  10.607  12.489
63442SOL    HW192100   1.824  10.521  12.527
63442SOL    HW292101   1.710  10.608  12.480
63443SOL     OW92102   1.462  14.478   4.582
63443SOL    HW192103   1.387  14.459   4.639
63443SOL    HW292104   1.503  14.555   4.623
63444SOL     OW92105   9.527  13.293  10.994
63444SOL    HW192106   9.573  13.363  10.948
63444SOL    HW292107   9.534  13.317  11.087
63445SOL     OW92108   6.808   4.281  13.221
63445SOL    HW192109   6.781   4.372  13.235
63445SOL    HW292110   6.739   4.228  13.261
63446SOL     OW92111   0.616   3.708  13.671
63446SOL    HW192112   0.694   3.655  13.688
63446SOL    HW292113   0.648   3.798  13.668
63447SOL     OW92114   3.006   4.400   9.892
63447SOL    HW192115   2.942   4.337   9.925
63447SOL    HW292116   3.049   4.355   9.820
63448SOL     OW92117   4.989   3.255   6.019
63448SOL    HW192118   4.931   3.180   6.016
63448SOL    HW292119   5.051   3.241   5.947
63449SOL     OW92120   8.887  11.351   2.799
63449SOL    HW192121   8.858  11.317   2.714
63449SOL    HW292122   8.964  11.299   2.821
63450SOL     OW92123   6.135   1.755  13.737
63450SOL    HW192124   6.081   1.705  13.797
63450SOL    HW292125   6.083   1.762  13.657
63451SOL     OW92126   3.993   5.731   8.614
63451SOL    HW192127   4.032   5.743   8.701
63451SOL    HW292128   4.011   5.813   8.568
63452SOL     OW92129   3.235   6.008   9.609
63452SOL    HW192130   3.262   6.079   9.666
63452SOL    HW292131   3.184   5.949   9.665
63453SOL     OW92132  11.137  14.289   0.378
63453SOL    HW192133  11.083  14.246   0.312
63453SOL    HW292134  11.075  14.341   0.429
63454SOL     OW92135   3.419  13.752   7.919
63454SOL    HW192136   3.480  13.767   7.847
63454SOL    HW292137   3.360  13.685   7.887
63455SOL     OW92138  10.197   0.616  12.013
63455SOL    HW192139  10.138   0.690  11.998
63455SOL    HW292140  10.284   0.650  11.989
63456SOL     OW92141   7.329   7.004  11.440
63456SOL    HW192142   7.397   6.985  11.375
63456SOL    HW292143   7.363   6.967  11.522
63457SOL     OW92144  14.601   0.685  14.224
63457SOL    HW192145  14.663   0.745  14.266
63457SOL    HW292146  14.656   0.623  14.176
63458SOL     OW92147  11.012   9.657   8.825
63458SOL    HW192148  11.086   9.651   8.885
63458SOL    HW292149  10.942   9.695   8.878
63459SOL     OW92150  11.242  14.574   1.034
63459SOL    HW192151  11.321  14.565   1.087
63459SOL    HW292152  11.268  14.632   0.962
63460SOL     OW92153   2.416  10.688  12.180
63460SOL    HW192154   2.487  10.694  12.116
63460SOL    HW292155   2.459  10.699  12.264
63461SOL     OW92156  12.417   7.115   9.641
63461SOL    HW192157  12.337   7.082   9.600
63461SOL    HW292158  12.452   7.178   9.578
63462SOL     OW92159   2.758  13.254  11.527
63462SOL    HW192160   2.728  13.316  11.460
63462SOL    HW292161   2.682  13.241  11.583
63463SOL     OW92162   9.268   1.104   2.136
63463SOL    HW192163   9.279   1.146   2.050
63463SOL    HW292164   9.346   1.129   2.185
63464SOL     OW92165  13.072  14.455   8.171
63464SOL    HW192166  13.031  14.440   8.256
63464SOL    HW292167  13.013  14.414   8.108
63465SOL     OW92168  13.517  13.703   5.989
63465SOL    HW192169  13.503  13.608   5.986
63465SOL    HW292170  13.433  13.741   5.964
63466SOL     OW92171   5.514   8.985  14.088
63466SOL    HW192172   5.473   9.034  14.160
63466SOL    HW292173   5.608   9.000  14.101
63467SOL     OW92174  10.924   8.286  13.716
63467SOL    HW192175  10.830   8.274  13.729
63467SOL    HW292176  10.957   8.309  13.803
63468SOL     OW92177   0.367  12.483   2.524
63468SOL    HW192178   0.405  12.550   2.580
63468SOL    HW292179   0.406  12.499   2.438
63469SOL     OW92180  14.656   5.337  14.693
63469SOL    HW192181  14.712   5.414  14.706
63469SOL    HW292182  14.598   5.336  14.769
63470SOL     OW92183  12.043   1.602   0.627
63470SOL    HW192184  11.984   1.653   0.683
63470SOL    HW292185  12.045   1.652   0.545
63471SOL     OW92186  11.170  14.673   0.246
63471SOL    HW192187  11.075  14.682   0.238
63471SOL    HW292188  11.194  14.610   0.179
63472SOL     OW92189  13.700  10.046  10.364
63472SOL    HW192190  13.632   9.988  10.397
63472SOL    HW292191  13.775  10.032  10.422
63473SOL     OW92192   7.251   8.628   6.069
63473SOL    HW192193   7.317   8.567   6.038
63473SOL    HW292194   7.210   8.584   6.143
63474SOL     OW92195   3.494   2.316   7.725
63474SOL    HW192196   3.534   2.310   7.812
63474SOL    HW292197   3.406   2.349   7.742
63475SOL     OW92198  14.635   7.047   7.479
63475SOL    HW192199  14.722   7.068   7.512
63475SOL    HW292200  14.650   7.009   7.393
63476SOL     OW92201   2.729   5.788   5.838
63476SOL    HW192202   2.659   5.809   5.900
63476SOL    HW292203   2.713   5.846   5.763
63477SOL     OW92204  14.453   4.359   4.999
63477SOL    HW192205  14.358   4.367   5.003
63477SOL    HW292206  14.474   4.288   5.060
63478SOL     OW92207  11.526   5.645   2.223
63478SOL    HW192208  11.598   5.681   2.275
63478SOL    HW292209  11.555   5.655   2.132
63479SOL     OW92210   9.552   7.638  12.919
63479SOL    HW192211   9.626   7.622  12.861
63479SOL    HW292212   9.508   7.715  12.882
63480SOL     OW92213   5.358   2.526  12.469
63480SOL    HW192214   5.448   2.494  12.467
63480SOL    HW292215   5.305   2.447  12.480
63481SOL     OW92216   4.054  10.621   0.979
63481SOL    HW192217   4.138  10.576   0.972
63481SOL    HW292218   3.992  10.564   0.933
63482SOL     OW92219  10.558  14.855   8.719
63482SOL    HW192220  10.605  14.781   8.757
63482SOL    HW292221  10.595   0.054   8.763
63483SOL     OW92222   5.904   8.904   0.035
63483SOL    HW192223   5.827   8.926   0.087
63483SOL    HW292224   5.949   8.987   0.021
63484SOL     OW92225   0.313   9.580   9.019
63484SOL    HW192226   0.256   9.553   8.947
63484SOL    HW292227   0.396   9.602   8.977
63485SOL     OW92228   4.772   2.378  12.601
63485SOL    HW192229   4.790   2.303  12.545
63485SOL    HW292230   4.802   2.454  12.550
63486SOL     OW92231  12.274   3.490  10.265
63486SOL    HW192232  12.265   3.559  10.331
63486SOL    HW292233  12.364   3.498  10.234
63487SOL     OW92234   2.949   1.425   6.339
63487SOL    HW192235   3.029   1.450   6.294
63487SOL    HW292236   2.956   1.467   6.425
63488SOL     OW92237  11.780   6.461   1.323
63488SOL    HW192238  11.720   6.513   1.375
63488SOL    HW292239  11.833   6.526   1.275
63489SOL     OW92240   0.663   0.472   6.738
63489SOL    HW192241   0.612   0.522   6.803
63489SOL    HW292242   0.647   0.518   6.655
63490SOL     OW92243   5.474  10.347  12.585
63490SOL    HW192244   5.475  10.263  12.631
63490SOL    HW292245   5.457  10.323  12.493
63491SOL     OW92246  14.832  10.998  12.766
63491SOL    HW192247   0.024  11.060  12.744
63491SOL    HW292248  14.752  11.050  12.761
63492SOL     OW92249  14.156   6.869   0.535
63492SOL    HW192250  14.062   6.877   0.551
63492SOL    HW292251  14.170   6.915   0.452
63493SOL     OW92252   4.842  13.281   3.598
63493SOL    HW192253   4.834  13.339   3.522
63493SOL    HW292254   4.779  13.317   3.661
63494SOL     OW92255  10.444   2.530   6.006
63494SOL    HW192256  10.499   2.598   6.047
63494SOL    HW292257  10.503   2.455   5.995
63495SOL     OW92258   3.623   2.761   1.328
63495SOL    HW192259   3.600   2.680   1.282
63495SOL    HW292260   3.543   2.784   1.375
63496SOL     OW92261  13.333   9.787   6.852
63496SOL    HW192262  13.253   9.741   6.876
63496SOL    HW292263  13.360   9.832   6.932
63497SOL     OW92264   3.774   3.857   5.066
63497SOL    HW192265   3.699   3.799   5.075
63497SOL    HW292266   3.795   3.855   4.973
63498SOL     OW92267  13.123   3.082   1.339
63498SOL    HW192268  13.068   3.156   1.366
63498SOL    HW292269  13.125   3.088   1.244
63499SOL     OW92270   5.216  14.629   2.265
63499SOL    HW192271   5.244  14.568   2.197
63499SOL    HW292272   5.295  14.645   2.317
63500SOL     OW92273   4.354   4.132   5.085
63500SOL    HW192274   4.429   4.185   5.058
63500SOL    HW292275   4.379   4.099   5.172
63501SOL     OW92276   4.023   4.601  14.047
63501SOL    HW192277   4.096   4.540  14.058
63501SOL    HW292278   3.962   4.555  13.990
63502SOL     OW92279   0.034   8.478   2.231
63502SOL    HW192280   0.089   8.524   2.168
63502SOL    HW292281   0.095   8.441   2.294
63503SOL     OW92282   6.329   0.290   1.636
63503SOL    HW192283   6.400   0.343   1.599
63503SOL    HW292284   6.352   0.200   1.613
63504SOL     OW92285   5.978   2.197   1.576
63504SOL    HW192286   5.965   2.246   1.495
63504SOL    HW292287   6.070   2.172   1.575
63505SOL     OW92288   6.388  11.645   6.538
63505SOL    HW192289   6.479  11.618   6.527
63505SOL    HW292290   6.358  11.666   6.449
63506SOL     OW92291   2.820   3.849  12.668
63506SOL    HW192292   2.868   3.915  12.618
63506SOL    HW292293   2.729   3.876  12.661
63507SOL     OW92294  13.470   2.463   0.665
63507SOL    HW192295  13.504   2.375   0.679
63507SOL    HW292296  13.383   2.462   0.706
63508SOL     OW92297  10.466  14.116   5.849
63508SOL    HW192298  10.399  14.055   5.880
63508SOL    HW292299  10.533  14.060   5.811
63509SOL     OW92300  10.394  13.361   4.049
63509SOL    HW192301  10.479  13.331   4.081
63509SOL    HW292302  10.371  13.298   3.980
63510SOL     OW92303   4.110   2.630   9.016
63510SOL    HW192304   4.109   2.535   9.000
63510SOL    HW292305   4.081   2.639   9.106
63511SOL     OW92306   4.924  11.009   8.748
63511SOL    HW192307   4.839  11.041   8.718
63511SOL    HW292308   4.919  11.013   8.844
63512SOL     OW92309   8.946  12.530   7.032
63512SOL    HW192310   8.926  12.622   7.049
63512SOL    HW292311   9.009  12.506   7.101
63513SOL     OW92312   6.397   7.555   1.298
63513SOL    HW192313   6.323   7.560   1.237
63513SOL    HW292314   6.421   7.463   1.300
63514SOL     OW92315   7.308  11.081  12.078
63514SOL    HW192316   7.275  11.022  12.146
63514SOL    HW292317   7.349  11.023  12.014
63515SOL     OW92318  13.846  11.809  13.055
63515SOL    HW192319  13.761  11.851  13.044
63515SOL    HW292320  13.827  11.715  13.050
63516SOL     OW92321   9.320  14.441   0.599
63516SOL    HW192322   9.269  14.361   0.608
63516SOL    HW292323   9.333  14.472   0.688
63517SOL     OW92324   9.414   1.322   9.641
63517SOL    HW192325   9.323   1.342   9.662
63517SOL    HW292326   9.411   1.237   9.597
63518SOL     OW92327   7.672   2.702  11.686
63518SOL    HW192328   7.759   2.700  11.647
63518SOL    HW292329   7.634   2.785  11.656
63519SOL     OW92330   0.769   3.751   2.206
63519SOL    HW192331   0.704   3.734   2.274
63519SOL    HW292332   0.834   3.682   2.217
63520SOL     OW92333   4.084  12.897  12.614
63520SOL    HW192334   4.082  12.969  12.551
63520SOL    HW292335   4.146  12.835  12.576
63521SOL     OW92336  10.965   0.201   7.937
63521SOL    HW192337  11.040   0.234   7.987
63521SOL    HW292338  10.925   0.136   7.994
63522SOL     OW92339   9.292   1.375   7.052
63522SOL    HW192340   9.382   1.343   7.051
63522SOL    HW292341   9.295   1.454   7.105
63523SOL     OW92342   6.718  11.317  13.130
63523SOL    HW192343   6.678  11.233  13.154
63523SOL    HW292344   6.769  11.342  13.207
63524SOL     OW92345   1.262  13.082   3.776
63524SOL    HW192346   1.196  13.102   3.709
63524SOL    HW292347   1.300  13.167   3.798
63525SOL     OW92348   3.446  14.213   9.587
63525SOL    HW192349   3.426  14.306   9.601
63525SOL    HW292350   3.523  14.197   9.642
63526SOL     OW92351   6.899  11.140   8.328
63526SOL    HW192352   6.992  11.129   8.348
63526SOL    HW292353   6.855  11.134   8.412
63527SOL     OW92354   9.683   0.061   4.096
63527SOL    HW192355   9.715   0.096   4.179
63527SOL    HW292356   9.755   0.006   4.065
63528SOL     OW92357  10.545  12.856   5.956
63528SOL    HW192358  10.600  12.833   5.881
63528SOL    HW292359  10.475  12.911   5.918
63529SOL     OW92360   2.296   6.264   3.939
63529SOL    HW192361   2.337   6.189   3.980
63529SOL    HW292362   2.217   6.280   3.991
63530SOL     OW92363   4.522   3.218   1.073
63530SOL    HW192364   4.551   3.276   1.003
63530SOL    HW292365   4.487   3.277   1.140
63531SOL     OW92366   6.096   7.123   1.752
63531SOL    HW192367   6.071   7.032   1.769
63531SOL    HW292368   6.014   7.168   1.735
63532SOL     OW92369   3.382   3.401   0.784
63532SOL    HW192370   3.343   3.350   0.713
63532SOL    HW292371   3.474   3.372   0.787
63533SOL     OW92372  14.207   7.161   0.631
63533SOL    HW192373  14.281   7.220   0.612
63533SOL    HW292374  14.246   7.074   0.636
63534SOL     OW92375   7.721   6.547   9.673
63534SOL    HW192376   7.734   6.553   9.578
63534SOL    HW292377   7.638   6.500   9.683
63535SOL     OW92378   1.690  11.663   0.667
63535SOL    HW192379   1.598  11.672   0.643
63535SOL    HW292380   1.691  11.593   0.732
63536SOL     OW92381   0.207   1.874   8.764
63536SOL    HW192382   0.168   1.860   8.678
63536SOL    HW292383   0.254   1.793   8.783
63537SOL     OW92384  14.465  11.217  11.262
63537SOL    HW192385  14.547  11.252  11.225
63537SOL    HW292386  14.396  11.270  11.221
63538SOL     OW92387   8.345   8.893  12.165
63538SOL    HW192388   8.390   8.881  12.082
63538SOL    HW292389   8.261   8.848  12.153
63539SOL     OW92390   7.305   2.905   3.607
63539SOL    HW192391   7.255   2.866   3.535
63539SOL    HW292392   7.317   2.834   3.670
63540SOL     OW92393  13.005   9.037   9.275
63540SOL    HW192394  12.927   9.021   9.328
63540SOL    HW292395  12.972   9.038   9.185
63541SOL     OW92396  11.085   9.204  14.230
63541SOL    HW192397  11.060   9.178  14.319
63541SOL    HW292398  11.038   9.142  14.173
63542SOL     OW92399   7.149   2.421   7.280
63542SOL    HW192400   7.091   2.468   7.340
63542SOL    HW292401   7.237   2.441   7.311
63543SOL     OW92402   0.335  10.978   2.545
63543SOL    HW192403   0.367  10.889   2.556
63543SOL    HW292404   0.283  10.995   2.624
63544SOL     OW92405   4.464   3.271   0.638
63544SOL    HW192406   4.484   3.318   0.718
63544SOL    HW292407   4.491   3.331   0.568
63545SOL     OW92408   3.541  12.490   7.267
63545SOL    HW192409   3.486  12.567   7.252
63545SOL    HW292410   3.584  12.507   7.351
63546SOL     OW92411   4.110   3.190  13.909
63546SOL    HW192412   4.149   3.111  13.946
63546SOL    HW292413   4.051   3.159  13.841
63547SOL     OW92414   5.457  14.267   8.509
63547SOL    HW192415   5.373  14.291   8.469
63547SOL    HW292416   5.438  14.188   8.560
63548SOL     OW92417  10.775   5.527  10.559
63548SOL    HW192418  10.701   5.584  10.538
63548SOL    HW292419  10.740   5.438  10.549
63549SOL     OW92420  13.765  12.159  12.239
63549SOL    HW192421  13.687  12.202  12.204
63549SOL    HW292422  13.823  12.231  12.265
63550SOL     OW92423   6.510  13.642  14.295
63550SOL    HW192424   6.579  13.668  14.235
63550SOL    HW292425   6.500  13.547  14.281
63551SOL     OW92426   2.315  14.177   9.789
63551SOL    HW192427   2.326  14.087   9.821
63551SOL    HW292428   2.232  14.175   9.741
63552SOL     OW92429   3.803   6.340  10.297
63552SOL    HW192430   3.867   6.364  10.364
63552SOL    HW292431   3.786   6.247  10.313
63553SOL     OW92432   1.323  10.773  14.279
63553SOL    HW192433   1.243  10.738  14.239
63553SOL    HW292434   1.336  10.857  14.236
63554SOL     OW92435   3.811   9.589   9.413
63554SOL    HW192436   3.726   9.615   9.449
63554SOL    HW292437   3.835   9.661   9.355
63555SOL     OW92438   1.213   5.340   2.141
63555SOL    HW192439   1.299   5.376   2.119
63555SOL    HW292440   1.157   5.365   2.067
63556SOL     OW92441   3.625   4.524   4.189
63556SOL    HW192442   3.653   4.488   4.273
63556SOL    HW292443   3.701   4.574   4.158
63557SOL     OW92444   4.208   1.681   6.795
63557SOL    HW192445   4.223   1.646   6.883
63557SOL    HW292446   4.250   1.766   6.795
63558SOL     OW92447   5.740  10.499   7.021
63558SOL    HW192448   5.724  10.407   7.043
63558SOL    HW292449   5.832  10.501   6.994
63559SOL     OW92450  12.726  13.394   1.683
63559SOL    HW192451  12.754  13.320   1.737
63559SOL    HW292452  12.797  13.458   1.692
63560SOL     OW92453   9.767   6.956   0.627
63560SOL    HW192454   9.699   6.935   0.691
63560SOL    HW292455   9.802   6.871   0.601
63561SOL     OW92456  10.708   2.241  11.251
63561SOL    HW192457  10.705   2.336  11.239
63561SOL    HW292458  10.625   2.221  11.294
63562SOL     OW92459  10.734   6.188  10.861
63562SOL    HW192460  10.666   6.203  10.795
63562SOL    HW292461  10.690   6.207  10.944
63563SOL     OW92462  11.661   4.482   1.525
63563SOL    HW192463  11.745   4.498   1.570
63563SOL    HW292464  11.631   4.569   1.499
63564SOL     OW92465  10.760   1.807   8.015
63564SOL    HW192466  10.751   1.877   8.080
63564SOL    HW292467  10.772   1.853   7.932
63565SOL     OW92468  14.822   1.706  13.249
63565SOL    HW192469   0.027   1.690  13.292
63565SOL    HW292470  14.765   1.740  13.318
63566SOL     OW92471   7.396   2.327  11.375
63566SOL    HW192472   7.338   2.287  11.439
63566SOL    HW292473   7.456   2.381  11.426
63567SOL     OW92474  14.835  14.667  12.018
63567SOL    HW192475  14.759  14.677  12.076
63567SOL    HW292476   0.024  14.724  12.057
63568SOL     OW92477  13.384  13.179   0.411
63568SOL    HW192478  13.330  13.116   0.459
63568SOL    HW292479  13.462  13.190   0.465
63569SOL     OW92480   0.857   0.880   5.403
63569SOL    HW192481   0.841   0.952   5.343
63569SOL    HW292482   0.940   0.900   5.444
63570SOL     OW92483  13.812  11.048   3.145
63570SOL    HW192484  13.742  11.068   3.083
63570SOL    HW292485  13.771  11.057   3.231
63571SOL     OW92486   1.424  11.189  12.294
63571SOL    HW192487   1.463  11.220  12.213
63571SOL    HW292488   1.468  11.106  12.311
63572SOL     OW92489   0.863   9.108   5.431
63572SOL    HW192490   0.816   9.187   5.458
63572SOL    HW292491   0.939   9.140   5.383
63573SOL     OW92492   9.102   0.209   5.267
63573SOL    HW192493   9.017   0.234   5.231
63573SOL    HW292494   9.103   0.249   5.354
63574SOL     OW92495  13.677   7.226   1.887
63574SOL    HW192496  13.607   7.215   1.823
63574SOL    HW292497  13.652   7.304   1.936
63575SOL     OW92498   0.064   0.141   3.075
63575SOL    HW192499   0.001   0.069   3.073
63575SOL    HW292500   0.047   0.189   2.993
63576SOL     OW92501   8.097   6.572   0.675
63576SOL    HW192502   8.142   6.650   0.706
63576SOL    HW292503   8.156   6.534   0.609
63577SOL     OW92504   5.068   3.846  10.526
63577SOL    HW192505   5.119   3.914  10.571
63577SOL    HW292506   4.984   3.847  10.570
63578SOL     OW92507   7.336   1.779  14.799
63578SOL    HW192508   7.417   1.778  14.850
63578SOL    HW292509   7.334   1.864  14.757
63579SOL     OW92510  10.285   9.729  12.674
63579SOL    HW192511  10.350   9.799  12.661
63579SOL    HW292512  10.268   9.729  12.768
63580SOL     OW92513   9.559   0.050   0.329
63580SOL    HW192514   9.645   0.010   0.340
63580SOL    HW292515   9.510  14.866   0.275
63581SOL     OW92516   2.024   5.213   3.642
63581SOL    HW192517   2.017   5.159   3.721
63581SOL    HW292518   1.974   5.166   3.575
63582SOL     OW92519   5.636   8.358  13.418
63582SOL    HW192520   5.545   8.341  13.391
63582SOL    HW292521   5.683   8.370  13.336
63583SOL     OW92522   7.011   6.840   7.704
63583SOL    HW192523   6.924   6.873   7.679
63583SOL    HW292524   7.057   6.829   7.620
63584SOL     OW92525  10.639  11.725   5.842
63584SOL    HW192526  10.612  11.687   5.759
63584SOL    HW292527  10.654  11.649   5.899
63585SOL     OW92528   9.153   4.703   9.868
63585SOL    HW192529   9.172   4.623   9.819
63585SOL    HW292530   9.108   4.759   9.805
63586SOL     OW92531   4.812   5.948  11.587
63586SOL    HW192532   4.831   6.025  11.641
63586SOL    HW292533   4.762   5.983  11.513
63587SOL     OW92534   7.616  12.254   3.570
63587SOL    HW192535   7.623  12.212   3.484
63587SOL    HW292536   7.686  12.214   3.621
63588SOL     OW92537  10.806   9.829   4.723
63588SOL    HW192538  10.784   9.895   4.658
63588SOL    HW292539  10.728   9.774   4.730
63589SOL     OW92540   0.838  13.641   9.072
63589SOL    HW192541   0.897  13.567   9.087
63589SOL    HW292542   0.804  13.663   9.158
63590SOL     OW92543  10.691   8.271   7.496
63590SOL    HW192544  10.777   8.283   7.536
63590SOL    HW292545  10.660   8.186   7.528
63591SOL     OW92546  12.398   0.664   1.902
63591SOL    HW192547  12.431   0.751   1.924
63591SOL    HW292548  12.468   0.604   1.928
63592SOL     OW92549   7.160  14.571   0.339
63592SOL    HW192550   7.076  14.581   0.383
63592SOL    HW292551   7.209  14.650   0.361
63593SOL     OW92552  11.785  13.329   1.710
63593SOL    HW192553  11.806  13.332   1.616
63593SOL    HW292554  11.711  13.389   1.720
63594SOL     OW92555   9.940   9.799   5.546
63594SOL    HW192556  10.010   9.797   5.611
63594SOL    HW292557   9.974   9.749   5.472
63595SOL     OW92558   7.557  11.220  13.185
63595SOL    HW192559   7.513  11.242  13.267
63595SOL    HW292560   7.515  11.139  13.156
63596SOL     OW92561   3.012  11.715   3.931
63596SOL    HW192562   3.017  11.620   3.935
63596SOL    HW292563   3.103  11.744   3.930
63597SOL     OW92564   3.147  14.264  14.631
63597SOL    HW192565   3.060  14.230  14.649
63597SOL    HW292566   3.186  14.200  14.571
63598SOL     OW92567   6.875   8.102  10.325
63598SOL    HW192568   6.817   8.152  10.382
63598SOL    HW292569   6.952   8.158  10.314
63599SOL     OW92570  12.991   7.196  10.396
63599SOL    HW192571  12.944   7.229  10.473
63599SOL    HW292572  13.044   7.124  10.431
63600SOL     OW92573   3.880   0.349   9.712
63600SOL    HW192574   3.842   0.263   9.730
63600SOL    HW292575   3.838   0.377   9.630
63601SOL     OW92576  14.649  13.301   9.247
63601SOL    HW192577  14.555  13.295   9.227
63601SOL    HW292578  14.682  13.212   9.237
63602SOL     OW92579   2.942   4.298   5.462
63602SOL    HW192580   3.008   4.307   5.393
63602SOL    HW292581   2.980   4.343   5.537
63603SOL     OW92582   4.295  12.563   2.097
63603SOL    HW192583   4.201  12.553   2.113
63603SOL    HW292584   4.310  12.518   2.013
63604SOL     OW92585   9.790  12.195  11.001
63604SOL    HW192586   9.771  12.130  10.933
63604SOL    HW292587   9.849  12.257  10.959
63605SOL     OW92588   0.088   9.996   3.613
63605SOL    HW192589   0.077  10.018   3.706
63605SOL    HW292590   0.058  10.073   3.566
63606SOL     OW92591  14.265   0.471   0.989
63606SOL    HW192592  14.286   0.381   1.015
63606SOL    HW292593  14.300   0.525   1.059
63607SOL     OW92594   1.497  12.061   3.703
63607SOL    HW192595   1.520  12.001   3.632
63607SOL    HW292596   1.576  12.113   3.716
63608SOL     OW92597  11.592   2.686   3.679
63608SOL    HW192598  11.584   2.591   3.689
63608SOL    HW292599  11.511   2.712   3.635
63609SOL     OW92600   9.469  11.086   5.013
63609SOL    HW192601   9.376  11.098   4.991
63609SOL    HW292602   9.477  11.122   5.101
63610SOL     OW92603  12.288  12.602  12.373
63610SOL    HW192604  12.206  12.624  12.329
63610SOL    HW292605  12.289  12.506  12.376
63611SOL     OW92606   6.289   4.650  12.659
63611SOL    HW192607   6.267   4.689  12.744
63611SOL    HW292608   6.301   4.557  12.677
63612SOL     OW92609   7.482   6.217   0.734
63612SOL    HW192610   7.453   6.126   0.730
63612SOL    HW292611   7.441   6.252   0.814
63613SOL     OW92612   4.103   7.620   3.757
63613SOL    HW192613   4.031   7.643   3.816
63613SOL    HW292614   4.060   7.591   3.677
63614SOL     OW92615  11.390  14.773   9.248
63614SOL    HW192616  11.476  14.761   9.288
63614SOL    HW292617  11.370  14.689   9.207
63615SOL     OW92618   1.151  14.210   0.744
63615SOL    HW192619   1.129  14.296   0.707
63615SOL    HW292620   1.139  14.220   0.838
63616SOL     OW92621   2.893   2.262   9.871
63616SOL    HW192622   2.950   2.185   9.877
63616SOL    HW292623   2.810   2.227   9.837
63617SOL     OW92624  14.614   8.492  12.578
63617SOL    HW192625  14.598   8.432  12.505
63617SOL    HW292626  14.526   8.514  12.610
63618SOL     OW92627   1.597   0.877  14.521
63618SOL    HW192628   1.524   0.880  14.460
63618SOL    HW292629   1.565   0.922  14.599
63619SOL     OW92630  14.848   9.315   5.254
63619SOL    HW192631  14.826   9.320   5.161
63619SOL    HW292632   0.064   9.301   5.257
63620SOL     OW92633  12.977   0.222   4.818
63620SOL    HW192634  13.003   0.306   4.855
63620SOL    HW292635  12.995   0.229   4.725
63621SOL     OW92636   9.474   0.069  13.761
63621SOL    HW192637   9.465  14.863  13.717
63621SOL    HW292638   9.412   0.127  13.716
63622SOL     OW92639  10.305   3.542   4.170
63622SOL    HW192640  10.390   3.585   4.180
63622SOL    HW292641  10.275   3.567   4.083
63623SOL     OW92642   0.074  11.707   3.247
63623SOL    HW192643   0.166  11.681   3.246
63623SOL    HW292644   0.070  11.788   3.196
63624SOL     OW92645  11.407  10.304   8.780
63624SOL    HW192646  11.469  10.237   8.809
63624SOL    HW292647  11.459  10.383   8.768
63625SOL     OW92648   7.535   5.571   1.502
63625SOL    HW192649   7.626   5.584   1.477
63625SOL    HW292650   7.526   5.476   1.513
63626SOL     OW92651   0.435   2.604   0.444
63626SOL    HW192652   0.489   2.653   0.506
63626SOL    HW292653   0.391   2.538   0.497
63627SOL     OW92654  10.105   3.572  14.645
63627SOL    HW192655  10.156   3.638  14.693
63627SOL    HW292656  10.171   3.524  14.594
63628SOL     OW92657   0.017  12.551  10.666
63628SOL    HW192658   0.044  12.528  10.755
63628SOL    HW292659   0.090  12.602  10.632
63629SOL     OW92660   5.532  12.725  10.317
63629SOL    HW192661   5.547  12.634  10.295
63629SOL    HW292662   5.590  12.774  10.258
63630SOL     OW92663   5.815  13.918   4.107
63630SOL    HW192664   5.819  13.962   4.192
63630SOL    HW292665   5.904  13.927   4.072
63631SOL     OW92666   6.994   6.125   1.004
63631SOL    HW192667   7.013   6.073   1.082
63631SOL    HW292668   7.042   6.207   1.018
63632SOL     OW92669  10.426  11.418  13.923
63632SOL    HW192670  10.515  11.388  13.938
63632SOL    HW292671  10.373  11.369  13.986
63633SOL     OW92672   1.152   6.341   0.670
63633SOL    HW192673   1.111   6.362   0.586
63633SOL    HW292674   1.109   6.260   0.697
63634SOL     OW92675   6.818  12.161  13.501
63634SOL    HW192676   6.802  12.069  13.524
63634SOL    HW292677   6.767  12.211  13.565
63635SOL     OW92678   4.574   3.691  12.181
63635SOL    HW192679   4.549   3.603  12.153
63635SOL    HW292680   4.519   3.707  12.258
63636SOL     OW92681   9.077  13.465   5.682
63636SOL    HW192682   9.124  13.423   5.753
63636SOL    HW292683   8.996  13.414   5.674
63637SOL     OW92684  14.015   2.056   5.384
63637SOL    HW192685  14.024   2.026   5.294
63637SOL    HW292686  14.027   1.977   5.437
63638SOL     OW92687   8.734  11.337  12.162
63638SOL    HW192688   8.803  11.277  12.134
63638SOL    HW292689   8.694  11.294  12.238
63639SOL     OW92690   2.488   9.581  12.492
63639SOL    HW192691   2.535   9.573  12.409
63639SOL    HW292692   2.404   9.621  12.469
63640SOL     OW92693   0.996  12.948  13.025
63640SOL    HW192694   1.037  13.027  12.989
63640SOL    HW292695   1.029  12.943  13.115
63641SOL     OW92696   4.733  11.718   0.836
63641SOL    HW192697   4.678  11.692   0.909
63641SOL    HW292698   4.725  11.647   0.773
63642SOL     OW92699   8.730   2.345   0.808
63642SOL    HW192700   8.714   2.273   0.869
63642SOL    HW292701   8.704   2.310   0.723
63643SOL     OW92702  12.304   2.143  13.398
63643SOL    HW192703  12.362   2.071  13.376
63643SOL    HW292704  12.315   2.155  13.493
63644SOL     OW92705   3.979   0.074  10.148
63644SOL    HW192706   4.047   0.012  10.176
63644SOL    HW292707   4.026   0.138  10.095
63645SOL     OW92708   9.330   8.619   4.884
63645SOL    HW192709   9.238   8.645   4.891
63645SOL    HW292710   9.378   8.693   4.923
63646SOL     OW92711   1.702   9.211   5.410
63646SOL    HW192712   1.608   9.230   5.414
63646SOL    HW292713   1.710   9.144   5.342
63647SOL     OW92714  11.213  10.124   0.360
63647SOL    HW192715  11.293  10.176   0.357
63647SOL    HW292716  11.243  10.033   0.365
63648SOL     OW92717  11.311   4.228   4.739
63648SOL    HW192718  11.336   4.305   4.687
63648SOL    HW292719  11.247   4.261   4.802
63649SOL     OW92720   7.819   2.294   3.309
63649SOL    HW192721   7.748   2.271   3.249
63649SOL    HW292722   7.852   2.378   3.277
63650SOL     OW92723   6.207   3.408   1.996
63650SOL    HW192724   6.301   3.416   2.006
63650SOL    HW292725   6.190   3.433   1.905
63651SOL     OW92726   1.057  13.550   8.746
63651SOL    HW192727   1.055  13.538   8.651
63651SOL    HW292728   1.149  13.537   8.770
63652SOL     OW92729  11.152   2.910  11.368
63652SOL    HW192730  11.131   2.820  11.395
63652SOL    HW292731  11.103   2.922  11.287
63653SOL     OW92732   1.247  12.511   4.379
63653SOL    HW192733   1.154  12.517   4.399
63653SOL    HW292734   1.287  12.586   4.422
63654SOL     OW92735   2.603   7.535  10.747
63654SOL    HW192736   2.533   7.600  10.755
63654SOL    HW292737   2.644   7.553  10.662
63655SOL     OW92738   8.958   4.036   3.689
63655SOL    HW192739   8.971   4.084   3.607
63655SOL    HW292740   8.985   3.947   3.669
63656SOL     OW92741  11.001   5.351   5.707
63656SOL    HW192742  10.984   5.260   5.732
63656SOL    HW292743  10.917   5.396   5.720
63657SOL     OW92744   3.506   1.764  14.835
63657SOL    HW192745   3.590   1.812  14.838
63657SOL    HW292746   3.495   1.730   0.045
63658SOL     OW92747   9.386  13.070   1.800
63658SOL    HW192748   9.336  13.143   1.762
63658SOL    HW292749   9.469  13.110   1.827
63659SOL     OW92750   6.960   7.062   0.135
63659SOL    HW192751   6.900   7.131   0.105
63659SOL    HW292752   6.911   6.981   0.123
63660SOL     OW92753   8.678   8.912  13.213
63660SOL    HW192754   8.668   8.833  13.265
63660SOL    HW292755   8.622   8.898  13.137
63661SOL     OW92756   5.212   4.850  11.967
63661SOL    HW192757   5.209   4.934  12.013
63661SOL    HW292758   5.273   4.864  11.895
63662SOL     OW92759  10.390  14.480   7.654
63662SOL    HW192760  10.481  14.507   7.660
63662SOL    HW292761  10.341  14.562   7.644
63663SOL     OW92762   8.634  14.483  13.442
63663SOL    HW192763   8.689  14.431  13.500
63663SOL    HW292764   8.687  14.494  13.363
63664SOL     OW92765   8.340  13.354  11.398
63664SOL    HW192766   8.431  13.345  11.369
63664SOL    HW292767   8.291  13.366  11.317
63665SOL     OW92768   9.776  14.618  13.985
63665SOL    HW192769   9.709  14.568  13.938
63665SOL    HW292770   9.853  14.562  13.984
63666SOL     OW92771   7.108   5.093   2.009
63666SOL    HW192772   7.151   5.176   1.989
63666SOL    HW292773   7.180   5.032   2.025
63667SOL     OW92774   0.744  11.756   4.996
63667SOL    HW192775   0.701  11.785   5.076
63667SOL    HW292776   0.681  11.776   4.926
63668SOL     OW92777  10.857   9.244   7.133
63668SOL    HW192778  10.892   9.159   7.161
63668SOL    HW292779  10.904   9.308   7.186
63669SOL     OW92780   8.899   1.886   0.650
63669SOL    HW192781   8.814   1.889   0.606
63669SOL    HW292782   8.878   1.901   0.743
63670SOL     OW92783   0.993   4.208   5.461
63670SOL    HW192784   1.029   4.190   5.375
63670SOL    HW292785   0.898   4.214   5.447
63671SOL     OW92786   6.687   2.134   4.969
63671SOL    HW192787   6.614   2.166   5.021
63671SOL    HW292788   6.757   2.199   4.983
63672SOL     OW92789  10.122  13.712   6.775
63672SOL    HW192790  10.155  13.638   6.723
63672SOL    HW292791  10.105  13.675   6.861
63673SOL     OW92792   5.069  13.892   0.907
63673SOL    HW192793   5.129  13.887   0.833
63673SOL    HW292794   5.086  13.812   0.957
63674SOL     OW92795   8.299   3.593   5.298
63674SOL    HW192796   8.390   3.592   5.268
63674SOL    HW292797   8.292   3.671   5.352
63675SOL     OW92798   3.448   4.483   9.628
63675SOL    HW192799   3.464   4.570   9.664
63675SOL    HW292800   3.527   4.463   9.577
63676SOL     OW92801  13.723  11.696  11.179
63676SOL    HW192802  13.800  11.696  11.236
63676SOL    HW292803  13.698  11.604  11.173
63677SOL     OW92804   4.661   5.758   3.503
63677SOL    HW192805   4.757   5.755   3.512
63677SOL    HW292806   4.636   5.842   3.540
63678SOL     OW92807  10.885   8.732  14.537
63678SOL    HW192808  10.905   8.776  14.454
63678SOL    HW292809  10.795   8.758  14.557
63679SOL     OW92810  11.668   2.216   9.528
63679SOL    HW192811  11.699   2.127   9.517
63679SOL    HW292812  11.615   2.233   9.450
63680SOL     OW92813   4.342   2.772   8.171
63680SOL    HW192814   4.270   2.722   8.132
63680SOL    HW292815   4.369   2.720   8.246
63681SOL     OW92816   6.552   5.909   7.360
63681SOL    HW192817   6.597   5.962   7.425
63681SOL    HW292818   6.481   5.867   7.408
63682SOL     OW92819   3.460   7.230   9.487
63682SOL    HW192820   3.504   7.208   9.405
63682SOL    HW292821   3.519   7.291   9.531
63683SOL     OW92822  11.753  10.787   6.736
63683SOL    HW192823  11.833  10.740   6.717
63683SOL    HW292824  11.683  10.729   6.707
63684SOL     OW92825   4.474   4.888   1.447
63684SOL    HW192826   4.418   4.961   1.471
63684SOL    HW292827   4.536   4.880   1.520
63685SOL     OW92828   1.091   9.519   3.416
63685SOL    HW192829   1.163   9.517   3.352
63685SOL    HW292830   1.105   9.599   3.466
63686SOL     OW92831   9.231   3.536   4.453
63686SOL    HW192832   9.165   3.570   4.393
63686SOL    HW292833   9.311   3.531   4.400
63687SOL     OW92834   4.613   2.792  12.685
63687SOL    HW192835   4.705   2.793  12.713
63687SOL    HW292836   4.589   2.884  12.679
63688SOL     OW92837  12.556  10.528  10.209
63688SOL    HW192838  12.616  10.478  10.264
63688SOL    HW292839  12.585  10.510  10.120
63689SOL     OW92840   2.575   8.952   0.127
63689SOL    HW192841   2.541   8.897   0.057
63689SOL    HW292842   2.516   8.936   0.201
63690SOL     OW92843   6.794   3.761   0.142
63690SOL    HW192844   6.718   3.715   0.108
63690SOL    HW292845   6.829   3.808   0.066
63691SOL     OW92846   9.012   5.026   4.155
63691SOL    HW192847   9.104   5.001   4.140
63691SOL    HW292848   8.983   4.968   4.225
63692SOL     OW92849   7.606   3.206   5.433
63692SOL    HW192850   7.627   3.298   5.417
63692SOL    HW292851   7.546   3.182   5.362
63693SOL     OW92852   5.478   2.317   6.559
63693SOL    HW192853   5.414   2.280   6.498
63693SOL    HW292854   5.426   2.350   6.632
63694SOL     OW92855   9.013   5.708  10.031
63694SOL    HW192856   8.970   5.664   9.958
63694SOL    HW292857   8.969   5.676  10.109
63695SOL     OW92858   2.665   3.114   4.378
63695SOL    HW192859   2.615   3.110   4.459
63695SOL    HW292860   2.736   3.050   4.390
63696SOL     OW92861   7.513   0.096   2.668
63696SOL    HW192862   7.580   0.126   2.606
63696SOL    HW292863   7.438   0.153   2.651
63697SOL     OW92864  11.929   4.116   1.546
63697SOL    HW192865  11.919   4.121   1.641
63697SOL    HW292866  12.017   4.082   1.532
63698SOL     OW92867  12.507  13.316  13.234
63698SOL    HW192868  12.472  13.339  13.148
63698SOL    HW292869  12.602  13.321  13.224
63699SOL     OW92870  14.793   2.616   0.320
63699SOL    HW192871  14.823   2.611   0.411
63699SOL    HW292872  14.777   2.709   0.305
63700SOL     OW92873  13.029   8.308  13.559
63700SOL    HW192874  13.096   8.259  13.606
63700SOL    HW292875  13.042   8.286  13.467
63701SOL     OW92876   5.139   4.131   9.351
63701SOL    HW192877   5.225   4.126   9.310
63701SOL    HW292878   5.083   4.074   9.298
63702SOL     OW92879   9.454   6.742  13.595
63702SOL    HW192880   9.544   6.777  13.593
63702SOL    HW292881   9.399   6.820  13.600
63703SOL     OW92882  13.439  11.120   7.037
63703SOL    HW192883  13.431  11.122   6.942
63703SOL    HW292884  13.531  11.099   7.054
63704SOL     OW92885  10.606   5.929  10.329
63704SOL    HW192886  10.542   5.985  10.372
63704SOL    HW292887  10.686   5.941  10.381
63705SOL     OW92888  12.279   0.956  14.633
63705SOL    HW192889  12.338   0.927  14.563
63705SOL    HW292890  12.219   0.883  14.646
63706SOL     OW92891  13.709  10.089   3.785
63706SOL    HW192892  13.633  10.076   3.842
63706SOL    HW292893  13.782  10.104   3.846
63707SOL     OW92894  11.022   8.803  11.389
63707SOL    HW192895  11.091   8.768  11.446
63707SOL    HW292896  10.954   8.736  11.389
63708SOL     OW92897  12.543   5.329  10.169
63708SOL    HW192898  12.631   5.365  10.162
63708SOL    HW292899  12.485   5.404  10.158
63709SOL     OW92900   9.399  13.657   3.091
63709SOL    HW192901   9.467  13.621   3.034
63709SOL    HW292902   9.448  13.703   3.160
63710SOL     OW92903   0.986   7.844  12.439
63710SOL    HW192904   0.955   7.898  12.366
63710SOL    HW292905   1.069   7.884  12.464
63711SOL     OW92906   0.028   5.684   5.350
63711SOL    HW192907  14.844   5.749   5.383
63711SOL    HW292908  14.858   5.601   5.354
63712SOL     OW92909   8.477   5.844   7.100
63712SOL    HW192910   8.447   5.916   7.155
63712SOL    HW292911   8.572   5.857   7.092
63713SOL     OW92912  11.962  10.258   7.642
63713SOL    HW192913  12.037  10.201   7.660
63713SOL    HW292914  11.978  10.335   7.697
63714SOL     OW92915  11.994   8.120   0.827
63714SOL    HW192916  12.012   8.033   0.863
63714SOL    HW292917  11.943   8.164   0.894
63715SOL     OW92918   5.283   0.933  13.568
63715SOL    HW192919   5.241   0.915  13.484
63715SOL    HW292920   5.246   0.868  13.627
63716SOL     OW92921   7.877   4.468  14.386
63716SOL    HW192922   7.833   4.548  14.416
63716SOL    HW292923   7.860   4.404  14.455
63717SOL     OW92924  14.376   8.869   0.197
63717SOL    HW192925  14.312   8.919   0.146
63717SOL    HW292926  14.449   8.855   0.137
63718SOL     OW92927   7.239   0.101  11.346
63718SOL    HW192928   7.215   0.052  11.425
63718SOL    HW292929   7.317   0.150  11.371
63719SOL     OW92930   6.118   7.514   7.866
63719SOL    HW192931   6.143   7.431   7.906
63719SOL    HW292932   6.082   7.490   7.781
63720SOL     OW92933  11.541   9.696   5.912
63720SOL    HW192934  11.616   9.736   5.869
63720SOL    HW292935  11.580   9.635   5.975
63721SOL     OW92936   2.066   5.785  14.875
63721SOL    HW192937   2.111   5.769  14.792
63721SOL    HW292938   2.111   5.730   0.061
63722SOL     OW92939  11.316   0.969  11.074
63722SOL    HW192940  11.282   1.037  11.132
63722SOL    HW292941  11.369   1.016  11.010
63723SOL     OW92942   8.725   6.097   8.248
63723SOL    HW192943   8.715   6.086   8.153
63723SOL    HW292944   8.785   6.171   8.257
63724SOL     OW92945   4.516  10.598  13.472
63724SOL    HW192946   4.505  10.684  13.511
63724SOL    HW292947   4.606  10.574  13.492
63725SOL     OW92948   1.333   4.665   6.709
63725SOL    HW192949   1.428   4.673   6.709
63725SOL    HW292950   1.304   4.714   6.632
63726SOL     OW92951   7.220   1.372  13.245
63726SOL    HW192952   7.184   1.369  13.157
63726SOL    HW292953   7.158   1.322  13.298
63727SOL     OW92954  12.732   3.202   4.261
63727SOL    HW192955  12.648   3.231   4.224
63727SOL    HW292956  12.796   3.217   4.192
63728SOL     OW92957   8.345   7.506  11.705
63728SOL    HW192958   8.397   7.555  11.641
63728SOL    HW292959   8.268   7.560  11.720
63729SOL     OW92960  14.339  12.044  11.319
63729SOL    HW192961  14.319  12.135  11.298
63729SOL    HW292962  14.348  12.043  11.414
63730SOL     OW92963   0.084  14.558   0.195
63730SOL    HW192964   0.152  14.595   0.251
63730SOL    HW292965   0.038  14.496   0.252
63731SOL     OW92966   9.973   5.744   2.977
63731SOL    HW192967   9.913   5.673   2.954
63731SOL    HW292968   9.977   5.741   3.073
63732SOL     OW92969   4.907   5.168   4.789
63732SOL    HW192970   4.840   5.164   4.857
63732SOL    HW292971   4.945   5.080   4.788
63733SOL     OW92972   1.952  12.813   4.076
63733SOL    HW192973   2.033  12.775   4.109
63733SOL    HW292974   1.980  12.889   4.026
63734SOL     OW92975   1.442  11.401  11.706
63734SOL    HW192976   1.356  11.419  11.745
63734SOL    HW292977   1.505  11.428  11.773
63735SOL     OW92978  13.958  12.395   4.373
63735SOL    HW192979  14.016  12.341   4.426
63735SOL    HW292980  14.003  12.479   4.366
63736SOL     OW92981  10.828   6.210   3.151
63736SOL    HW192982  10.885   6.286   3.156
63736SOL    HW292983  10.830   6.172   3.238
63737SOL     OW92984   4.898  13.872   8.869
63737SOL    HW192985   4.830  13.809   8.845
63737SOL    HW292986   4.929  13.842   8.955
63738SOL     OW92987   2.778  10.538   1.969
63738SOL    HW192988   2.754  10.454   1.932
63738SOL    HW292989   2.695  10.577   1.997
63739SOL     OW92990   8.018   3.398  10.631
63739SOL    HW192991   8.055   3.425  10.547
63739SOL    HW292992   8.007   3.304  10.623
63740SOL     OW92993   2.582  14.528   2.738
63740SOL    HW192994   2.487  14.530   2.725
63740SOL    HW292995   2.617  14.578   2.664
63741SOL     OW92996   9.860   4.033  10.729
63741SOL    HW192997   9.782   3.990  10.763
63741SOL    HW292998   9.895   4.082  10.803
63742SOL     OW92999   1.199   3.857   9.186
63742SOL    HW193000   1.276   3.908   9.211
63742SOL    HW293001   1.160   3.830   9.269
63743SOL     OW93002  11.538   3.536   5.166
63743SOL    HW193003  11.481   3.584   5.106
63743SOL    HW293004  11.625   3.544   5.126
63744SOL     OW93005   7.270  14.307   5.096
63744SOL    HW193006   7.336  14.251   5.054
63744SOL    HW293007   7.205  14.323   5.027
63745SOL     OW93008   8.340  13.875  12.002
63745SOL    HW193009   8.342  13.831  11.917
63745SOL    HW293010   8.416  13.840  12.049
63746SOL     OW93011   7.241   2.022   0.823
63746SOL    HW193012   7.248   1.968   0.901
63746SOL    HW293013   7.331   2.042   0.799
63747SOL     OW93014   2.691   0.868  10.913
63747SOL    HW193015   2.724   0.944  10.962
63747SOL    HW293016   2.600   0.890  10.893
63748SOL     OW93017   9.125  13.357   1.794
63748SOL    HW193018   9.100  13.393   1.879
63748SOL    HW293019   9.080  13.273   1.789
63749SOL     OW93020  10.616   5.694   1.893
63749SOL    HW193021  10.569   5.648   1.963
63749SOL    HW293022  10.699   5.648   1.885
63750SOL     OW93023  11.727   2.099  12.517
63750SOL    HW193024  11.639   2.062  12.529
63750SOL    HW293025  11.745   2.087  12.424
63751SOL     OW93026   3.556   2.791   4.591
63751SOL    HW193027   3.599   2.850   4.529
63751SOL    HW293028   3.533   2.848   4.665
63752SOL     OW93029   4.693  10.415   0.656
63752SOL    HW193030   4.719  10.458   0.737
63752SOL    HW293031   4.756  10.343   0.646
63753SOL     OW93032   0.734  13.767   5.327
63753SOL    HW193033   0.755  13.720   5.246
63753SOL    HW293034   0.819  13.789   5.365
63754SOL     OW93035   8.144   8.386   5.011
63754SOL    HW193036   8.180   8.441   4.942
63754SOL    HW293037   8.072   8.437   5.048
63755SOL     OW93038   7.058   8.819  12.094
63755SOL    HW193039   7.014   8.805  12.010
63755SOL    HW293040   7.129   8.755  12.095
63756SOL     OW93041   0.571  11.912   9.003
63756SOL    HW193042   0.653  11.872   8.975
63756SOL    HW293043   0.593  11.956   9.086
63757SOL     OW93044   9.856   3.783   8.940
63757SOL    HW193045   9.833   3.703   8.987
63757SOL    HW293046   9.782   3.800   8.881
63758SOL     OW93047   4.778   6.806   9.186
63758SOL    HW193048   4.793   6.715   9.161
63758SOL    HW293049   4.683   6.817   9.179
63759SOL     OW93050   9.283   3.491   9.609
63759SOL    HW193051   9.355   3.521   9.666
63759SOL    HW293052   9.260   3.405   9.642
63760SOL     OW93053   5.177   0.716   5.488
63760SOL    HW193054   5.112   0.780   5.460
63760SOL    HW293055   5.186   0.657   5.413
63761SOL     OW93056   5.225   0.042   5.337
63761SOL    HW193057   5.298   0.103   5.333
63761SOL    HW293058   5.264  14.834   5.318
63762SOL     OW93059  13.154   9.823   2.506
63762SOL    HW193060  13.223   9.889   2.513
63762SOL    HW293061  13.073   9.869   2.528
63763SOL     OW93062  11.268  13.818   7.103
63763SOL    HW193063  11.237  13.780   7.021
63763SOL    HW293064  11.253  13.750   7.169
63764SOL     OW93065   8.030   6.066   1.599
63764SOL    HW193066   8.029   6.061   1.695
63764SOL    HW293067   7.961   6.130   1.578
63765SOL     OW93068   4.086  13.953  14.256
63765SOL    HW193069   4.073  13.928  14.165
63765SOL    HW293070   4.031  13.892  14.306
63766SOL     OW93071  11.843   7.881   8.447
63766SOL    HW193072  11.806   7.830   8.375
63766SOL    HW293073  11.937   7.881   8.430
63767SOL     OW93074  10.854   6.631   2.315
63767SOL    HW193075  10.847   6.540   2.287
63767SOL    HW293076  10.910   6.672   2.249
63768SOL     OW93077   0.223   3.388   2.885
63768SOL    HW193078   0.217   3.366   2.978
63768SOL    HW293079   0.133   3.382   2.854
63769SOL     OW93080   0.226   1.293   1.078
63769SOL    HW193081   0.186   1.353   1.016
63769SOL    HW293082   0.240   1.212   1.028
63770SOL     OW93083  11.105   5.754  12.074
63770SOL    HW193084  11.181   5.777  12.128
63770SOL    HW293085  11.063   5.838  12.055
63771SOL     OW93086   2.481   5.015  13.005
63771SOL    HW193087   2.413   5.045  12.945
63771SOL    HW293088   2.495   5.089  13.064
63772SOL     OW93089  12.249  10.801   1.468
63772SOL    HW193090  12.173  10.792   1.412
63772SOL    HW293091  12.237  10.885   1.512
63773SOL     OW93092   3.606  13.462   6.260
63773SOL    HW193093   3.630  13.371   6.280
63773SOL    HW293094   3.553  13.490   6.335
63774SOL     OW93095   2.849  14.115   4.196
63774SOL    HW193096   2.905  14.114   4.119
63774SOL    HW293097   2.772  14.165   4.169
63775SOL     OW93098   5.318   6.751   1.606
63775SOL    HW193099   5.382   6.719   1.670
63775SOL    HW293100   5.333   6.696   1.529
63776SOL     OW93101   2.419   5.465   0.655
63776SOL    HW193102   2.333   5.426   0.668
63776SOL    HW293103   2.415   5.549   0.701
63777SOL     OW93104   7.328  10.194  10.395
63777SOL    HW193105   7.291  10.267  10.444
63777SOL    HW293106   7.264  10.123  10.405
63778SOL     OW93107   3.906  14.651   1.721
63778SOL    HW193108   3.967  14.716   1.754
63778SOL    HW293109   3.864  14.693   1.646
63779SOL     OW93110  12.745   5.351   5.388
63779SOL    HW193111  12.744   5.279   5.451
63779SOL    HW293112  12.832   5.346   5.348
63780SOL     OW93113   1.910  11.933  11.371
63780SOL    HW193114   1.865  11.855  11.401
63780SOL    HW293115   1.883  11.943  11.280
63781SOL     OW93116   7.364  14.870   7.798
63781SOL    HW193117   7.352   0.033   7.883
63781SOL    HW293118   7.319  14.785   7.806
63782SOL     OW93119  14.007   9.287  13.277
63782SOL    HW193120  13.930   9.298  13.221
63782SOL    HW293121  13.970   9.275  13.365
63783SOL     OW93122   6.536  10.413   7.987
63783SOL    HW193123   6.570  10.339   8.037
63783SOL    HW293124   6.521  10.481   8.052
63784SOL     OW93125  13.331   9.298  12.812
63784SOL    HW193126  13.354   9.293  12.720
63784SOL    HW293127  13.246   9.253  12.818
63785SOL     OW93128  11.329  10.317   6.859
63785SOL    HW193129  11.361  10.305   6.770
63785SOL    HW293130  11.285  10.235   6.880
63786SOL     OW93131   5.528  12.467   3.423
63786SOL    HW193132   5.615  12.483   3.461
63786SOL    HW293133   5.545  12.415   3.345
63787SOL     OW93134  10.766   6.847   7.913
63787SOL    HW193135  10.745   6.917   7.852
63787SOL    HW293136  10.682   6.804   7.931
63788SOL     OW93137   8.645   8.141   1.359
63788SOL    HW193138   8.738   8.124   1.374
63788SOL    HW293139   8.624   8.212   1.420
63789SOL     OW93140   7.226  12.417   2.638
63789SOL    HW193141   7.257  12.508   2.640
63789SOL    HW293142   7.304  12.365   2.660
63790SOL     OW93143   2.806   9.804   2.889
63790SOL    HW193144   2.873   9.847   2.942
63790SOL    HW293145   2.847   9.723   2.860
63791SOL     OW93146  12.614   4.538   7.473
63791SOL    HW193147  12.618   4.633   7.486
63791SOL    HW293148  12.703   4.508   7.493
63792SOL     OW93149  13.148   0.704  11.994
63792SOL    HW193150  13.060   0.680  12.023
63792SOL    HW293151  13.153   0.673  11.904
63793SOL     OW93152   8.501   1.807   6.268
63793SOL    HW193153   8.428   1.756   6.304
63793SOL    HW293154   8.570   1.742   6.254
63794SOL     OW93155   0.839  14.047   0.238
63794SOL    HW193156   0.877  13.960   0.248
63794SOL    HW293157   0.806  14.069   0.325
63795SOL     OW93158   3.221  10.951   7.747
63795SOL    HW193159   3.225  10.870   7.696
63795SOL    HW293160   3.259  11.017   7.691
63796SOL     OW93161  11.953  12.888  13.064
63796SOL    HW193162  11.995  12.862  13.147
63796SOL    HW293163  11.867  12.846  13.066
63797SOL     OW93164   8.749  13.965  12.233
63797SOL    HW193165   8.672  13.934  12.186
63797SOL    HW293166   8.823  13.932  12.182
63798SOL     OW93167   0.135   6.466   4.050
63798SOL    HW193168   0.208   6.473   4.110
63798SOL    HW293169   0.121   6.555   4.019
63799SOL     OW93170   1.421   8.272   0.354
63799SOL    HW193171   1.366   8.197   0.377
63799SOL    HW293172   1.359   8.341   0.332
63800SOL     OW93173   1.615   9.273   3.593
63800SOL    HW193174   1.529   9.294   3.631
63800SOL    HW293175   1.620   9.328   3.514
63801SOL     OW93176   3.503  14.839   9.824
63801SOL    HW193177   3.423  14.797   9.857
63801SOL    HW293178   3.547  14.871   9.903
63802SOL     OW93179   2.658   1.163  10.724
63802SOL    HW193180   2.705   1.112  10.658
63802SOL    HW293181   2.585   1.107  10.751
63803SOL     OW93182   6.372  11.852  13.854
63803SOL    HW193183   6.404  11.823  13.769
63803SOL    HW293184   6.445  11.900  13.893
63804SOL     OW93185  14.623   8.477  11.481
63804SOL    HW193186  14.680   8.495  11.406
63804SOL    HW293187  14.536   8.465  11.443
63805SOL     OW93188   1.064   5.742  11.814
63805SOL    HW193189   1.124   5.668  11.807
63805SOL    HW293190   0.996   5.724  11.748
63806SOL     OW93191   6.719   9.711   4.830
63806SOL    HW193192   6.780   9.784   4.818
63806SOL    HW293193   6.708   9.705   4.925
63807SOL     OW93194   2.498   3.853   7.988
63807SOL    HW193195   2.429   3.794   8.016
63807SOL    HW293196   2.452   3.932   7.958
63808SOL     OW93197   5.563   7.314  12.563
63808SOL    HW193198   5.570   7.219  12.565
63808SOL    HW293199   5.472   7.331  12.538
63809SOL     OW93200  12.267  10.260  11.528
63809SOL    HW193201  12.252  10.288  11.438
63809SOL    HW293202  12.304  10.172  11.520
63810SOL     OW93203   7.638   7.444   3.601
63810SOL    HW193204   7.675   7.425   3.687
63810SOL    HW293205   7.568   7.379   3.589
63811SOL     OW93206   4.986   9.727   5.262
63811SOL    HW193207   5.043   9.763   5.194
63811SOL    HW293208   4.986   9.793   5.331
63812SOL     OW93209   2.110   6.039  12.943
63812SOL    HW193210   2.021   6.003  12.944
63812SOL    HW293211   2.137   6.034  12.851
63813SOL     OW93212   1.877  12.067   6.343
63813SOL    HW193213   1.964  12.027   6.335
63813SOL    HW293214   1.876  12.136   6.277
63814SOL     OW93215   8.994  10.775   2.666
63814SOL    HW193216   9.048  10.749   2.592
63814SOL    HW293217   8.906  10.747   2.643
63815SOL     OW93218   0.527  10.731   8.782
63815SOL    HW193219   0.556  10.816   8.817
63815SOL    HW293220   0.439  10.748   8.748
63816SOL     OW93221  13.311   1.229   4.280
63816SOL    HW193222  13.390   1.175   4.278
63816SOL    HW293223  13.327   1.292   4.350
63817SOL     OW93224  13.220   6.511   2.606
63817SOL    HW193225  13.292   6.460   2.642
63817SOL    HW293226  13.186   6.561   2.681
63818SOL     OW93227   9.316  10.597   1.722
63818SOL    HW193228   9.285  10.575   1.634
63818SOL    HW293229   9.273  10.680   1.742
63819SOL     OW93230   1.490   3.035   3.669
63819SOL    HW193231   1.519   3.109   3.616
63819SOL    HW293232   1.496   3.067   3.760
63820SOL     OW93233   9.574   6.492   3.964
63820SOL    HW193234   9.546   6.401   3.957
63820SOL    HW293235   9.493   6.543   3.955
63821SOL     OW93236   8.891   2.791  12.813
63821SOL    HW193237   8.874   2.703  12.848
63821SOL    HW293238   8.888   2.780  12.718
63822SOL     OW93239   9.919   6.543  11.405
63822SOL    HW193240  10.004   6.532  11.362
63822SOL    HW293241   9.877   6.615  11.358
63823SOL     OW93242   6.533   5.939  12.706
63823SOL    HW193243   6.555   6.027  12.675
63823SOL    HW293244   6.617   5.893  12.708
63824SOL     OW93245  13.823  11.968  12.614
63824SOL    HW193246  13.776  12.031  12.669
63824SOL    HW293247  13.755  11.913  12.577
63825SOL     OW93248   4.494   9.860   4.098
63825SOL    HW193249   4.580   9.858   4.056
63825SOL    HW293250   4.482   9.771   4.131
63826SOL     OW93251   2.478   0.273   8.413
63826SOL    HW193252   2.450   0.226   8.335
63826SOL    HW293253   2.412   0.252   8.479
63827SOL     OW93254   1.510   5.681   0.447
63827SOL    HW193255   1.464   5.652   0.526
63827SOL    HW293256   1.441   5.698   0.383
63828SOL     OW93257  11.927   4.803   3.077
63828SOL    HW193258  11.858   4.747   3.042
63828SOL    HW293259  11.905   4.891   3.047
63829SOL     OW93260   9.740   6.238   5.675
63829SOL    HW193261   9.668   6.299   5.694
63829SOL    HW293262   9.812   6.295   5.649
63830SOL     OW93263   5.174   0.011   6.193
63830SOL    HW193264   5.111  14.871   6.123
63830SOL    HW293265   5.180  14.807   6.242
63831SOL     OW93266  12.694   5.696   1.861
63831SOL    HW193267  12.727   5.621   1.911
63831SOL    HW293268  12.626   5.733   1.916
63832SOL     OW93269   9.425  11.368  11.284
63832SOL    HW193270   9.420  11.287  11.336
63832SOL    HW293271   9.515  11.369  11.250
63833SOL     OW93272   3.805   5.269   1.193
63833SOL    HW193273   3.865   5.233   1.128
63833SOL    HW293274   3.726   5.290   1.145
63834SOL     OW93275  13.230  14.188  12.071
63834SOL    HW193276  13.281  14.192  12.151
63834SOL    HW293277  13.257  14.266  12.022
63835SOL     OW93278   2.273  14.808  11.610
63835SOL    HW193279   2.228  14.759  11.540
63835SOL    HW293280   2.359  14.767  11.616
63836SOL     OW93281   1.542  11.618   6.618
63836SOL    HW193282   1.536  11.682   6.689
63836SOL    HW293283   1.512  11.665   6.541
63837SOL     OW93284   6.174   8.251   1.186
63837SOL    HW193285   6.181   8.168   1.233
63837SOL    HW293286   6.264   8.285   1.182
63838SOL     OW93287   7.098  11.359  10.826
63838SOL    HW193288   7.177  11.354  10.880
63838SOL    HW293289   7.098  11.278  10.775
63839SOL     OW93290   3.655   4.038  10.325
63839SOL    HW193291   3.706   4.119  10.328
63839SOL    HW293292   3.618   4.030  10.413
63840SOL     OW93293   1.790   7.813   3.784
63840SOL    HW193294   1.739   7.773   3.714
63840SOL    HW293295   1.869   7.845   3.741
63841SOL     OW93296   6.535  13.269   0.892
63841SOL    HW193297   6.538  13.267   0.988
63841SOL    HW293298   6.471  13.202   0.869
63842SOL     OW93299   4.998  10.794  12.500
63842SOL    HW193300   5.069  10.798  12.563
63842SOL    HW293301   5.042  10.791  12.415
63843SOL     OW93302   4.316  13.121   1.978
63843SOL    HW193303   4.280  13.207   1.998
63843SOL    HW293304   4.406  13.123   2.010
63844SOL     OW93305   6.680   4.522   6.981
63844SOL    HW193306   6.763   4.494   7.018
63844SOL    HW293307   6.614   4.471   7.028
63845SOL     OW93308   0.035   9.092   8.263
63845SOL    HW193309   0.114   9.147   8.258
63845SOL    HW293310   0.034   9.059   8.352
63846SOL     OW93311  13.761   5.490   7.793
63846SOL    HW193312  13.834   5.493   7.731
63846SOL    HW293313  13.796   5.528   7.873
63847SOL     OW93314  13.556   4.441   8.359
63847SOL    HW193315  13.531   4.470   8.447
63847SOL    HW293316  13.631   4.496   8.337
63848SOL     OW93317   6.356   2.910   2.069
63848SOL    HW193318   6.352   3.003   2.091
63848SOL    HW293319   6.450   2.893   2.056
63849SOL     OW93320   2.476  11.206   8.936
63849SOL    HW193321   2.482  11.235   8.845
63849SOL    HW293322   2.435  11.279   8.982
63850SOL     OW93323   8.863   1.374   7.713
63850SOL    HW193324   8.800   1.423   7.766
63850SOL    HW293325   8.808   1.319   7.656
63851SOL     OW93326  11.346  12.540  14.041
63851SOL    HW193327  11.306  12.501  14.118
63851SOL    HW293328  11.330  12.633  14.048
63852SOL     OW93329   9.330  11.032   9.519
63852SOL    HW193330   9.421  11.018   9.495
63852SOL    HW293331   9.281  10.972   9.462
63853SOL     OW93332   7.937   6.246  10.389
63853SOL    HW193333   7.934   6.155  10.417
63853SOL    HW293334   7.997   6.246  10.314
63854SOL     OW93335  14.239   5.043   2.812
63854SOL    HW193336  14.241   4.948   2.806
63854SOL    HW293337  14.253   5.061   2.905
63855SOL     OW93338   3.397   8.180   9.585
63855SOL    HW193339   3.469   8.183   9.648
63855SOL    HW293340   3.438   8.200   9.501
63856SOL     OW93341  14.406  14.386   1.847
63856SOL    HW193342  14.384  14.338   1.928
63856SOL    HW293343  14.482  14.339   1.813
63857SOL     OW93344  13.705  10.582   1.072
63857SOL    HW193345  13.686  10.657   1.129
63857SOL    HW293346  13.652  10.597   0.994
63858SOL     OW93347   5.924   2.900   2.900
63858SOL    HW193348   5.857   2.838   2.927
63858SOL    HW293349   5.917   2.905   2.805
63859SOL     OW93350  12.942  13.931   7.234
63859SOL    HW193351  12.952  13.839   7.260
63859SOL    HW293352  12.980  13.980   7.307
63860SOL     OW93353  14.054   8.614   4.644
63860SOL    HW193354  14.105   8.535   4.664
63860SOL    HW293355  13.996   8.624   4.719
63861SOL     OW93356   5.031   1.216  12.422
63861SOL    HW193357   5.021   1.239  12.330
63861SOL    HW293358   5.011   1.122  12.426
63862SOL     OW93359   1.620   4.810   5.434
63862SOL    HW193360   1.615   4.722   5.396
63862SOL    HW293361   1.573   4.803   5.517
63863SOL     OW93362   5.637   5.089   2.509
63863SOL    HW193363   5.598   5.061   2.426
63863SOL    HW293364   5.630   5.185   2.507
63864SOL     OW93365   1.624   3.174  12.374
63864SOL    HW193366   1.571   3.253  12.382
63864SOL    HW293367   1.687   3.193  12.305
63865SOL     OW93368   9.812   0.124   4.756
63865SOL    HW193369   9.734   0.175   4.780
63865SOL    HW293370   9.794   0.036   4.789
63866SOL     OW93371  11.420   8.334   0.378
63866SOL    HW193372  11.506   8.347   0.338
63866SOL    HW293373  11.435   8.345   0.472
63867SOL     OW93374   6.561  13.070   5.833
63867SOL    HW193375   6.593  12.980   5.829
63867SOL    HW293376   6.478  13.064   5.880
63868SOL     OW93377   6.367   5.203   0.965
63868SOL    HW193378   6.452   5.177   1.000
63868SOL    HW293379   6.380   5.291   0.931
63869SOL     OW93380   1.210   7.544   3.673
63869SOL    HW193381   1.243   7.566   3.761
63869SOL    HW293382   1.287   7.516   3.625
63870SOL     OW93383   9.733   1.558   0.877
63870SOL    HW193384   9.710   1.492   0.811
63870SOL    HW293385   9.699   1.640   0.842
63871SOL     OW93386   4.940  12.531  12.882
63871SOL    HW193387   4.932  12.571  12.969
63871SOL    HW293388   4.919  12.601  12.821
63872SOL     OW93389   0.286  13.473   8.238
63872SOL    HW193390   0.219  13.537   8.213
63872SOL    HW293391   0.366  13.505   8.197
63873SOL     OW93392  10.592   0.714   4.789
63873SOL    HW193393  10.550   0.639   4.747
63873SOL    HW293394  10.674   0.725   4.742
63874SOL     OW93395  14.320   6.390  11.533
63874SOL    HW193396  14.248   6.390  11.597
63874SOL    HW293397  14.291   6.329  11.466
63875SOL     OW93398   5.990   7.908  12.772
63875SOL    HW193399   5.946   7.957  12.703
63875SOL    HW293400   5.980   7.817  12.747
63876SOL     OW93401   3.937   1.518   0.672
63876SOL    HW193402   3.933   1.559   0.585
63876SOL    HW293403   3.962   1.427   0.654
63877SOL     OW93404  12.438  13.003   2.323
63877SOL    HW193405  12.472  13.052   2.398
63877SOL    HW293406  12.411  13.070   2.261
63878SOL     OW93407   5.721  11.406  10.492
63878SOL    HW193408   5.676  11.358  10.421
63878SOL    HW293409   5.752  11.337  10.551
63879SOL     OW93410   3.899  12.032  11.441
63879SOL    HW193411   3.827  12.003  11.498
63879SOL    HW293412   3.888  11.980  11.361
63880SOL     OW93413   4.622  13.491  12.872
63880SOL    HW193414   4.612  13.437  12.950
63880SOL    HW293415   4.548  13.551  12.874
63881SOL     OW93416  14.246   5.554   7.342
63881SOL    HW193417  14.319   5.570   7.281
63881SOL    HW293418  14.287   5.512   7.418
63882SOL     OW93419   4.039  14.579   5.525
63882SOL    HW193420   3.962  14.531   5.556
63882SOL    HW293421   4.037  14.662   5.573
63883SOL     OW93422   9.311   3.910  13.116
63883SOL    HW193423   9.262   3.828  13.104
63883SOL    HW293424   9.401   3.888  13.089
63884SOL     OW93425   8.456   9.929  10.896
63884SOL    HW193426   8.386   9.864  10.907
63884SOL    HW293427   8.470   9.934  10.802
63885SOL     OW93428   0.363  12.539   7.909
63885SOL    HW193429   0.289  12.479   7.899
63885SOL    HW293430   0.428  12.487   7.958
63886SOL     OW93431   7.575   2.558  12.658
63886SOL    HW193432   7.618   2.619  12.598
63886SOL    HW293433   7.630   2.558  12.736
63887SOL     OW93434   9.289   3.471  10.321
63887SOL    HW193435   9.267   3.380  10.300
63887SOL    HW293436   9.221   3.522  10.278
63888SOL     OW93437  14.245   3.122  13.915
63888SOL    HW193438  14.296   3.067  13.856
63888SOL    HW293439  14.205   3.060  13.976
63889SOL     OW93440   6.099   0.938  10.211
63889SOL    HW193441   6.008   0.908  10.205
63889SOL    HW293442   6.125   0.919  10.301
63890SOL     OW93443   7.198  12.152   7.545
63890SOL    HW193444   7.276  12.149   7.600
63890SOL    HW293445   7.129  12.183   7.604
63891SOL     OW93446   5.473  12.023   1.869
63891SOL    HW193447   5.559  12.064   1.879
63891SOL    HW293448   5.446  12.047   1.780
63892SOL     OW93449   7.602  12.806   5.386
63892SOL    HW193450   7.540  12.876   5.407
63892SOL    HW293451   7.686  12.839   5.416
63893SOL     OW93452   4.620   7.563   7.811
63893SOL    HW193453   4.686   7.603   7.867
63893SOL    HW293454   4.538   7.570   7.860
63894SOL     OW93455  12.757   6.344   1.970
63894SOL    HW193456  12.795   6.283   1.907
63894SOL    HW293457  12.787   6.430   1.941
63895SOL     OW93458   2.993  13.408   8.890
63895SOL    HW193459   3.084  13.379   8.893
63895SOL    HW293460   2.973  13.414   8.797
63896SOL     OW93461   2.339  14.757   1.358
63896SOL    HW193462   2.423  14.717   1.379
63896SOL    HW293463   2.274  14.701   1.402
63897SOL     OW93464   0.331   8.547  13.616
63897SOL    HW193465   0.342   8.633  13.576
63897SOL    HW293466   0.404   8.541  13.679
63898SOL     OW93467   1.687   6.953   6.327
63898SOL    HW193468   1.637   7.013   6.383
63898SOL    HW293469   1.697   7.001   6.245
63899SOL     OW93470  12.260   1.727  10.159
63899SOL    HW193471  12.312   1.702  10.083
63899SOL    HW293472  12.202   1.652  10.174
63900SOL     OW93473   1.343  12.838   8.079
63900SOL    HW193474   1.435  12.822   8.100
63900SOL    HW293475   1.345  12.880   7.993
63901SOL     OW93476  10.393   5.462   2.707
63901SOL    HW193477  10.474   5.499   2.672
63901SOL    HW293478  10.330   5.470   2.635
63902SOL     OW93479   8.495  14.258   5.780
63902SOL    HW193480   8.520  14.282   5.691
63902SOL    HW293481   8.565  14.295   5.835
63903SOL     OW93482   4.881  12.808   9.898
63903SOL    HW193483   4.822  12.808   9.823
63903SOL    HW293484   4.836  12.754   9.964
63904SOL     OW93485  13.651  12.782   3.056
63904SOL    HW193486  13.579  12.738   3.101
63904SOL    HW293487  13.709  12.710   3.027
63905SOL     OW93488   5.369   5.573   5.870
63905SOL    HW193489   5.417   5.507   5.819
63905SOL    HW293490   5.295   5.525   5.907
63906SOL     OW93491   6.790   2.102   3.331
63906SOL    HW193492   6.791   2.158   3.253
63906SOL    HW293493   6.745   2.154   3.398
63907SOL     OW93494   5.831   4.971   7.433
63907SOL    HW193495   5.740   4.950   7.455
63907SOL    HW293496   5.851   5.048   7.488
63908SOL     OW93497  12.996   1.128   9.413
63908SOL    HW193498  12.954   1.046   9.437
63908SOL    HW293499  13.089   1.111   9.422
63909SOL     OW93500  12.508   6.091   7.596
63909SOL    HW193501  12.431   6.041   7.569
63909SOL    HW293502  12.472   6.171   7.634
63910SOL     OW93503   3.015  13.742   2.493
63910SOL    HW193504   2.975  13.663   2.532
63910SOL    HW293505   2.963  13.758   2.414
63911SOL     OW93506   6.629   2.033   1.806
63911SOL    HW193507   6.570   2.041   1.732
63911SOL    HW293508   6.673   1.949   1.793
63912SOL     OW93509  12.458   7.946   4.721
63912SOL    HW193510  12.541   7.920   4.682
63912SOL    HW293511  12.406   7.978   4.647
63913SOL     OW93512   6.578   6.328   8.850
63913SOL    HW193513   6.650   6.379   8.813
63913SOL    HW293514   6.621   6.261   8.904
63914SOL     OW93515   1.050  11.440  12.084
63914SOL    HW193516   0.955  11.453  12.089
63914SOL    HW293517   1.087  11.511  12.137
63915SOL     OW93518   0.995  10.672  11.397
63915SOL    HW193519   1.006  10.660  11.303
63915SOL    HW293520   1.013  10.586  11.435
63916SOL     OW93521   4.698   4.536   6.126
63916SOL    HW193522   4.723   4.584   6.047
63916SOL    HW293523   4.781   4.509   6.165
63917SOL     OW93524   5.110   0.136   7.398
63917SOL    HW193525   5.068   0.050   7.401
63917SOL    HW293526   5.203   0.117   7.413
63918SOL     OW93527   1.189   0.212   7.415
63918SOL    HW193528   1.240   0.131   7.424
63918SOL    HW293529   1.250   0.276   7.381
63919SOL     OW93530   2.671  14.317   8.549
63919SOL    HW193531   2.633  14.345   8.465
63919SOL    HW293532   2.752  14.366   8.556
63920SOL     OW93533   9.044   8.578   4.753
63920SOL    HW193534   9.059   8.634   4.677
63920SOL    HW293535   8.949   8.568   4.758
63921SOL     OW93536   1.246  10.747   9.943
63921SOL    HW193537   1.176  10.684   9.960
63921SOL    HW293538   1.255  10.748   9.848
63922SOL     OW93539  10.521   5.119   3.262
63922SOL    HW193540  10.538   5.203   3.304
63922SOL    HW293541  10.442   5.134   3.210
63923SOL     OW93542   2.217  14.413   6.599
63923SOL    HW193543   2.203  14.344   6.663
63923SOL    HW293544   2.203  14.370   6.514
63924SOL     OW93545   8.634   0.805   7.837
63924SOL    HW193546   8.608   0.889   7.798
63924SOL    HW293547   8.672   0.829   7.922
63925SOL     OW93548   4.058   6.455   7.505
63925SOL    HW193549   4.064   6.362   7.527
63925SOL    HW293550   4.138   6.493   7.542
63926SOL     OW93551  13.603   8.837  14.066
63926SOL    HW193552  13.672   8.863  14.005
63926SOL    HW293553  13.550   8.774  14.016
63927SOL     OW93554   3.786  14.727   4.575
63927SOL    HW193555   3.839  14.730   4.495
63927SOL    HW293556   3.723  14.797   4.564
63928SOL     OW93557   4.524   0.661   5.331
63928SOL    HW193558   4.599   0.601   5.319
63928SOL    HW293559   4.538   0.729   5.266
63929SOL     OW93560   3.900  13.544   8.811
63929SOL    HW193561   3.896  13.639   8.798
63929SOL    HW293562   3.809  13.515   8.802
63930SOL     OW93563  14.280   3.378   0.769
63930SOL    HW193564  14.329   3.342   0.695
63930SOL    HW293565  14.210   3.429   0.730
63931SOL     OW93566   4.444   9.912   8.675
63931SOL    HW193567   4.351   9.901   8.655
63931SOL    HW293568   4.446   9.961   8.757
63932SOL     OW93569   4.816  12.490  10.630
63932SOL    HW193570   4.862  12.573  10.633
63932SOL    HW293571   4.815  12.459  10.720
63933SOL     OW93572  12.321   2.669   6.901
63933SOL    HW193573  12.374   2.666   6.980
63933SOL    HW293574  12.238   2.706   6.929
63934SOL     OW93575  10.176  12.690   6.121
63934SOL    HW193576  10.138  12.625   6.180
63934SOL    HW293577  10.251  12.725   6.169
63935SOL     OW93578   8.019  13.853   2.991
63935SOL    HW193579   8.027  13.945   2.967
63935SOL    HW293580   8.076  13.843   3.067
63936SOL     OW93581   3.280   2.686  12.084
63936SOL    HW193582   3.339   2.746  12.129
63936SOL    HW293583   3.193   2.720  12.102
63937SOL     OW93584   9.384  12.509   6.268
63937SOL    HW193585   9.416  12.574   6.206
63937SOL    HW293586   9.318  12.556   6.320
63938SOL     OW93587   5.811   1.131  12.168
63938SOL    HW193588   5.754   1.054  12.160
63938SOL    HW293589   5.834   1.135  12.261
63939SOL     OW93590   4.304   5.193   2.207
63939SOL    HW193591   4.264   5.109   2.186
63939SOL    HW293592   4.277   5.210   2.297
63940SOL     OW93593   6.441  12.777  14.231
63940SOL    HW193594   6.477  12.821  14.154
63940SOL    HW293595   6.382  12.842  14.270
63941SOL     OW93596  13.059   8.197  10.488
63941SOL    HW193597  12.978   8.235  10.520
63941SOL    HW293598  13.044   8.184  10.394
63942SOL     OW93599   3.854   1.759   0.198
63942SOL    HW193600   3.864   1.718   0.284
63942SOL    HW293601   3.927   1.820   0.192
63943SOL     OW93602   0.302   1.844   0.557
63943SOL    HW193603   0.325   1.754   0.582
63943SOL    HW293604   0.206   1.844   0.554
63944SOL     OW93605   1.681  14.032   4.193
63944SOL    HW193606   1.649  13.953   4.150
63944SOL    HW293607   1.740  14.072   4.130
63945SOL     OW93608  14.744   9.277   5.517
63945SOL    HW193609  14.776   9.274   5.426
63945SOL    HW293610  14.802   9.217   5.564
63946SOL     OW93611   4.005   1.032   2.665
63946SOL    HW193612   3.968   0.975   2.733
63946SOL    HW293613   4.028   0.972   2.594
63947SOL     OW93614   0.541  14.165  10.655
63947SOL    HW193615   0.563  14.083  10.700
63947SOL    HW293616   0.565  14.150  10.564
63948SOL     OW93617   9.463  10.797   8.699
63948SOL    HW193618   9.422  10.731   8.755
63948SOL    HW293619   9.540  10.826   8.748
63949SOL     OW93620   8.813  11.377   5.464
63949SOL    HW193621   8.766  11.294   5.456
63949SOL    HW293622   8.779  11.431   5.393
63950SOL     OW93623   2.798   5.674   1.008
63950SOL    HW193624   2.775   5.606   0.944
63950SOL    HW293625   2.721   5.683   1.063
63951SOL     OW93626   0.800  13.187   9.774
63951SOL    HW193627   0.818  13.096   9.797
63951SOL    HW293628   0.769  13.227   9.855
63952SOL     OW93629  14.127   4.983   7.147
63952SOL    HW193630  14.160   4.894   7.163
63952SOL    HW293631  14.103   4.984   7.055
63953SOL     OW93632   1.321  12.816  14.043
63953SOL    HW193633   1.311  12.738  14.098
63953SOL    HW293634   1.404  12.801  13.997
63954SOL     OW93635   3.365   3.119  11.874
63954SOL    HW193636   3.457   3.114  11.900
63954SOL    HW293637   3.316   3.109  11.955
63955SOL     OW93638  12.261  10.457   9.948
63955SOL    HW193639  12.294  10.509   9.875
63955SOL    HW293640  12.253  10.369   9.913
63956SOL     OW93641   5.973   8.673   3.011
63956SOL    HW193642   5.942   8.626   2.934
63956SOL    HW293643   5.947   8.764   2.995
63957SOL     OW93644   5.797  11.758   2.093
63957SOL    HW193645   5.709  11.794   2.101
63957SOL    HW293646   5.801  11.725   2.003
63958SOL     OW93647  10.874  11.896   6.450
63958SOL    HW193648  10.794  11.945   6.469
63958SOL    HW293649  10.917  11.945   6.380
63959SOL     OW93650   6.879   9.195   3.475
63959SOL    HW193651   6.790   9.161   3.461
63959SOL    HW293652   6.928   9.167   3.398
63960SOL     OW93653   5.631  10.279   8.047
63960SOL    HW193654   5.594  10.264   7.959
63960SOL    HW293655   5.691  10.352   8.035
63961SOL     OW93656  11.454   7.191  11.877
63961SOL    HW193657  11.381   7.172  11.817
63961SOL    HW293658  11.532   7.182  11.822
63962SOL     OW93659   8.422  11.020  12.063
63962SOL    HW193660   8.395  10.967  11.988
63962SOL    HW293661   8.449  10.955  12.129
63963SOL     OW93662   5.126   9.626   7.170
63963SOL    HW193663   5.043   9.604   7.211
63963SOL    HW293664   5.137   9.720   7.188
63964SOL     OW93665   5.195  10.904   5.576
63964SOL    HW193666   5.217  10.931   5.487
63964SOL    HW293667   5.270  10.930   5.629
63965SOL     OW93668  11.609   6.135  13.908
63965SOL    HW193669  11.615   6.226  13.880
63965SOL    HW293670  11.559   6.091  13.838
63966SOL     OW93671   6.010  11.484   3.576
63966SOL    HW193672   5.946  11.526   3.633
63966SOL    HW293673   6.032  11.551   3.511
63967SOL     OW93674   0.148   8.159  13.929
63967SOL    HW193675   0.166   8.067  13.950
63967SOL    HW293676   0.071   8.181  13.981
63968SOL     OW93677  10.690  10.924   1.313
63968SOL    HW193678  10.617  10.958   1.262
63968SOL    HW293679  10.767  10.942   1.259
63969SOL     OW93680  10.011  11.833   4.656
63969SOL    HW193681  10.026  11.747   4.693
63969SOL    HW293682  10.051  11.894   4.718
63970SOL     OW93683  12.490   5.236   6.953
63970SOL    HW193684  12.489   5.325   6.989
63970SOL    HW293685  12.497   5.249   6.858
63971SOL     OW93686   8.025   6.082  10.692
63971SOL    HW193687   8.092   6.136  10.650
63971SOL    HW293688   7.947   6.093  10.638
63972SOL     OW93689   6.948   2.464   4.187
63972SOL    HW193690   7.007   2.469   4.262
63972SOL    HW293691   7.003   2.486   4.111
63973SOL     OW93692   7.540  10.786   2.957
63973SOL    HW193693   7.455  10.827   2.971
63973SOL    HW293694   7.550  10.783   2.862
63974SOL     OW93695  14.355   8.827   5.265
63974SOL    HW193696  14.328   8.905   5.217
63974SOL    HW293697  14.348   8.851   5.357
63975SOL     OW93698  12.481   4.439  13.613
63975SOL    HW193699  12.479   4.418  13.706
63975SOL    HW293700  12.566   4.406  13.583
63976SOL     OW93701   9.257  13.839  10.702
63976SOL    HW193702   9.317  13.768  10.680
63976SOL    HW293703   9.240  13.883  10.618
63977SOL     OW93704   2.696   1.522   4.345
63977SOL    HW193705   2.645   1.525   4.264
63977SOL    HW293706   2.778   1.480   4.320
63978SOL     OW93707   9.208   9.379   6.741
63978SOL    HW193708   9.144   9.405   6.675
63978SOL    HW293709   9.257   9.308   6.700
63979SOL     OW93710   8.901   0.102  13.181
63979SOL    HW193711   8.906   0.060  13.267
63979SOL    HW293712   8.820   0.068  13.143
63980SOL     OW93713  11.114   4.661  14.348
63980SOL    HW193714  11.073   4.625  14.427
63980SOL    HW293715  11.090   4.599  14.279
63981SOL     OW93716   9.180   7.708   6.731
63981SOL    HW193717   9.095   7.750   6.716
63981SOL    HW293718   9.158   7.622   6.765
63982SOL     OW93719  11.597   4.876  10.141
63982SOL    HW193720  11.679   4.832  10.117
63982SOL    HW293721  11.623   4.966  10.161
63983SOL     OW93722   7.250   1.611  14.242
63983SOL    HW193723   7.285   1.525  14.217
63983SOL    HW293724   7.208   1.596  14.326
63984SOL     OW93725  10.608   3.413   5.052
63984SOL    HW193726  10.628   3.498   5.012
63984SOL    HW293727  10.552   3.435   5.127
63985SOL     OW93728   5.416   0.350  12.418
63985SOL    HW193729   5.340   0.297  12.443
63985SOL    HW293730   5.385   0.402  12.344
63986SOL     OW93731  10.848   4.671   9.023
63986SOL    HW193732  10.790   4.596   9.033
63986SOL    HW293733  10.914   4.642   8.960
63987SOL     OW93734  13.363   0.635  10.841
63987SOL    HW193735  13.325   0.587  10.768
63987SOL    HW293736  13.316   0.718  10.842
63988SOL     OW93737   3.589  13.195   7.374
63988SOL    HW193738   3.596  13.210   7.469
63988SOL    HW293739   3.606  13.281   7.336
63989SOL     OW93740   9.996  13.809   1.665
63989SOL    HW193741   9.948  13.736   1.625
63989SOL    HW293742  10.056  13.768   1.727
63990SOL     OW93743   0.444  13.517   0.503
63990SOL    HW193744   0.472  13.476   0.585
63990SOL    HW293745   0.434  13.444   0.442
63991SOL     OW93746   7.602  14.707   0.621
63991SOL    HW193747   7.620  14.763   0.696
63991SOL    HW293748   7.687  14.669   0.599
63992SOL     OW93749   8.517  12.326   1.599
63992SOL    HW193750   8.602  12.333   1.556
63992SOL    HW293751   8.458  12.294   1.529
63993SOL     OW93752   3.045   1.606   2.749
63993SOL    HW193753   3.099   1.537   2.711
63993SOL    HW293754   2.990   1.562   2.814
63994SOL     OW93755  10.052  12.294   8.480
63994SOL    HW193756  10.144  12.266   8.482
63994SOL    HW293757  10.048  12.364   8.545
63995SOL     OW93758   4.271   4.466   3.446
63995SOL    HW193759   4.355   4.433   3.477
63995SOL    HW293760   4.293   4.526   3.375
63996SOL     OW93761   2.290   9.050  11.466
63996SOL    HW193762   2.287   9.108  11.542
63996SOL    HW293763   2.365   9.081  11.415
63997SOL     OW93764   4.308  12.380   9.570
63997SOL    HW193765   4.301  12.304   9.513
63997SOL    HW293766   4.296  12.455   9.512
63998SOL     OW93767  13.182  11.730  11.505
63998SOL    HW193768  13.186  11.636  11.491
63998SOL    HW293769  13.189  11.740  11.600
63999SOL     OW93770   1.067  10.065   1.000
63999SOL    HW193771   1.156  10.051   0.968
63999SOL    HW293772   1.070  10.151   1.042
64000SOL     OW93773   0.639  11.172   3.242
64000SOL    HW193774   0.556  11.142   3.205
64000SOL    HW293775   0.695  11.188   3.165
64001SOL     OW93776  13.457   5.977   2.338
64001SOL    HW193777  13.497   6.012   2.417
64001SOL    HW293778  13.363   5.984   2.353
64002SOL     OW93779   1.962  10.915   7.461
64002SOL    HW193780   1.910  10.956   7.392
64002SOL    HW293781   1.919  10.832   7.478
64003SOL     OW93782   5.682   8.040   7.695
64003SOL    HW193783   5.629   8.109   7.655
64003SOL    HW293784   5.625   8.002   7.762
64004SOL     OW93785  11.450   8.114  12.708
64004SOL    HW193786  11.380   8.126  12.643
64004SOL    HW293787  11.506   8.047  12.671
64005SOL     OW93788   6.812   3.126   6.956
64005SOL    HW193789   6.907   3.117   6.944
64005SOL    HW293790   6.783   3.178   6.880
64006SOL     OW93791  10.900   2.723   8.033
64006SOL    HW193792  10.981   2.756   7.995
64006SOL    HW293793  10.831   2.754   7.973
64007SOL     OW93794  14.129   9.675   9.898
64007SOL    HW193795  14.189   9.748   9.916
64007SOL    HW293796  14.098   9.692   9.809
64008SOL     OW93797   8.803  10.486   4.088
64008SOL    HW193798   8.742  10.448   4.151
64008SOL    HW293799   8.773  10.454   4.003
64009SOL     OW93800   2.536   0.966  10.269
64009SOL    HW193801   2.519   0.979  10.176
64009SOL    HW293802   2.479   1.029  10.313
64010SOL     OW93803   4.510  14.222   0.335
64010SOL    HW193804   4.573  14.247   0.268
64010SOL    HW293805   4.448  14.165   0.289
64011SOL     OW93806  12.545   8.916   1.244
64011SOL    HW193807  12.474   8.979   1.255
64011SOL    HW293808  12.623   8.970   1.228
64012SOL     OW93809   0.565   1.247   7.146
64012SOL    HW193810   0.636   1.304   7.175
64012SOL    HW293811   0.591   1.219   7.058
64013SOL     OW93812   5.770  11.777   4.077
64013SOL    HW193813   5.788  11.710   4.012
64013SOL    HW293814   5.724  11.731   4.148
64014SOL     OW93815  11.481   7.609   1.961
64014SOL    HW193816  11.471   7.535   2.022
64014SOL    HW293817  11.570   7.599   1.927
64015SOL     OW93818  12.013   0.427   0.248
64015SOL    HW193819  12.076   0.389   0.309
64015SOL    HW293820  11.937   0.369   0.252
64016SOL     OW93821  10.521   8.401  14.678
64016SOL    HW193822  10.440   8.354  14.660
64016SOL    HW293823  10.557   8.420  14.591
64017SOL     OW93824  13.748   8.905  10.212
64017SOL    HW193825  13.710   8.992  10.219
64017SOL    HW293826  13.763   8.892  10.119
64018SOL     OW93827   6.254  10.886   2.964
64018SOL    HW193828   6.298  10.815   3.011
64018SOL    HW293829   6.312  10.961   2.972
64019SOL     OW93830  11.597   3.460  12.585
64019SOL    HW193831  11.556   3.435  12.668
64019SOL    HW293832  11.555   3.543  12.561
64020SOL     OW93833   9.070   0.661   1.243
64020SOL    HW193834   9.111   0.648   1.329
64020SOL    HW293835   9.064   0.574   1.206
64021SOL     OW93836  12.634   7.290   2.036
64021SOL    HW193837  12.633   7.380   2.003
64021SOL    HW293838  12.694   7.293   2.111
64022SOL     OW93839   3.257   7.173   8.721
64022SOL    HW193840   3.303   7.089   8.711
64022SOL    HW293841   3.225   7.194   8.634
64023SOL     OW93842  13.286  14.372   5.366
64023SOL    HW193843  13.267  14.310   5.296
64023SOL    HW293844  13.247  14.332   5.444
64024SOL     OW93845   9.224   5.021  13.036
64024SOL    HW193846   9.158   4.971  13.084
64024SOL    HW293847   9.270   4.955  12.984
64025SOL     OW93848   1.158   6.738  13.921
64025SOL    HW193849   1.144   6.811  13.860
64025SOL    HW293850   1.228   6.768  13.979
64026SOL     OW93851   0.044   2.868  14.444
64026SOL    HW193852  14.849   2.848  14.503
64026SOL    HW293853   0.070   2.783  14.409
64027SOL     OW93854  13.955  12.309  14.320
64027SOL    HW193855  13.972  12.286  14.229
64027SOL    HW293856  14.041  12.323  14.358
64028SOL     OW93857   1.834   4.738   3.048
64028SOL    HW193858   1.743   4.726   3.023
64028SOL    HW293859   1.862   4.652   3.080
64029SOL     OW93860   9.298   0.955  12.039
64029SOL    HW193861   9.320   0.899  12.114
64029SOL    HW293862   9.348   0.920  11.966
64030SOL     OW93863   3.979   9.290   7.207
64030SOL    HW193864   4.048   9.266   7.268
64030SOL    HW293865   4.012   9.368   7.163
64031SOL     OW93866   2.097  12.526  12.881
64031SOL    HW193867   2.122  12.583  12.954
64031SOL    HW293868   2.039  12.580  12.828
64032SOL     OW93869   6.285  13.448  11.963
64032SOL    HW193870   6.261  13.517  11.902
64032SOL    HW293871   6.379  13.458  11.975
64033SOL     OW93872   3.495  12.708   4.782
64033SOL    HW193873   3.408  12.742   4.804
64033SOL    HW293874   3.487  12.678   4.692
64034SOL     OW93875   7.381   1.607   9.907
64034SOL    HW193876   7.472   1.588   9.931
64034SOL    HW293877   7.363   1.552   9.832
64035SOL     OW93878   6.344   4.946   5.737
64035SOL    HW193879   6.319   5.002   5.811
64035SOL    HW293880   6.418   4.895   5.770
64036SOL     OW93881   3.031   1.574   9.760
64036SOL    HW193882   3.119   1.536   9.762
64036SOL    HW293883   3.046   1.669   9.765
64037SOL     OW93884   6.764   3.351   6.803
64037SOL    HW193885   6.800   3.427   6.756
64037SOL    HW293886   6.764   3.377   6.895
64038SOL     OW93887  10.432   5.561   4.598
64038SOL    HW193888  10.395   5.636   4.552
64038SOL    HW293889  10.484   5.516   4.531
64039SOL     OW93890   2.299   3.266   0.871
64039SOL    HW193891   2.302   3.360   0.851
64039SOL    HW293892   2.372   3.228   0.822
64040SOL     OW93893  13.568  13.902  14.438
64040SOL    HW193894  13.651  13.869  14.473
64040SOL    HW293895  13.528  13.827  14.395
64041SOL     OW93896   3.624   4.453   7.795
64041SOL    HW193897   3.592   4.467   7.884
64041SOL    HW293898   3.608   4.360   7.777
64042SOL     OW93899   0.520  13.633  10.915
64042SOL    HW193900   0.425  13.646  10.913
64042SOL    HW293901   0.531  13.539  10.905
64043SOL     OW93902  11.274  12.808   4.933
64043SOL    HW193903  11.199  12.790   4.991
64043SOL    HW293904  11.350  12.782   4.984
64044SOL     OW93905   1.569  12.328  11.237
64044SOL    HW193906   1.636  12.385  11.198
64044SOL    HW293907   1.517  12.387  11.291
64045SOL     OW93908  12.918   6.590   9.003
64045SOL    HW193909  12.922   6.528   9.076
64045SOL    HW293910  12.846   6.559   8.948
64046SOL     OW93911   3.028  12.702   7.155
64046SOL    HW193912   3.116  12.711   7.118
64046SOL    HW293913   2.974  12.763   7.105
64047SOL     OW93914  11.228   1.616   7.631
64047SOL    HW193915  11.257   1.539   7.582
64047SOL    HW293916  11.186   1.579   7.709
64048SOL     OW93917   6.392   0.358  12.420
64048SOL    HW193918   6.439   0.274  12.422
64048SOL    HW293919   6.441   0.414  12.480
64049SOL     OW93920   0.260  12.237   1.834
64049SOL    HW193921   0.332  12.243   1.771
64049SOL    HW293922   0.201  12.308   1.809
64050SOL     OW93923  11.260   5.899  12.717
64050SOL    HW193924  11.177   5.852  12.707
64050SOL    HW293925  11.273   5.943  12.633
64051SOL     OW93926  10.084   3.870   4.810
64051SOL    HW193927  10.099   3.921   4.730
64051SOL    HW293928   9.995   3.893   4.836
64052SOL     OW93929   7.733  10.594   9.495
64052SOL    HW193930   7.692  10.524   9.444
64052SOL    HW293931   7.821  10.601   9.459
64053SOL     OW93932   3.388  11.527   5.676
64053SOL    HW193933   3.397  11.592   5.745
64053SOL    HW293934   3.376  11.578   5.596
64054SOL     OW93935   0.312   0.709   9.365
64054SOL    HW193936   0.382   0.744   9.310
64054SOL    HW293937   0.268   0.644   9.310
64055SOL     OW93938   3.902   8.184   0.467
64055SOL    HW193939   3.979   8.231   0.436
64055SOL    HW293940   3.896   8.108   0.409
64056SOL     OW93941   8.718   2.358   2.661
64056SOL    HW193942   8.796   2.391   2.616
64056SOL    HW293943   8.645   2.398   2.614
64057SOL     OW93944  13.479   7.125   4.508
64057SOL    HW193945  13.551   7.063   4.502
64057SOL    HW293946  13.478   7.170   4.423
64058SOL     OW93947   8.580   2.749   4.568
64058SOL    HW193948   8.509   2.782   4.623
64058SOL    HW293949   8.651   2.812   4.580
64059SOL     OW93950   5.605   8.518   3.530
64059SOL    HW193951   5.533   8.503   3.591
64059SOL    HW293952   5.603   8.443   3.471
64060SOL     OW93953   6.042  12.671  14.182
64060SOL    HW193954   6.010  12.612  14.250
64060SOL    HW293955   6.136  12.654  14.178
64061SOL     OW93956  12.403   2.435   8.729
64061SOL    HW193957  12.381   2.423   8.636
64061SOL    HW293958  12.369   2.521   8.751
64062SOL     OW93959   6.133  14.389  14.377
64062SOL    HW193960   6.065  14.346  14.429
64062SOL    HW293961   6.084  14.431  14.305
64063SOL     OW93962   8.141   4.052   8.332
64063SOL    HW193963   8.223   4.038   8.283
64063SOL    HW293964   8.080   4.084   8.266
64064SOL     OW93965  10.233   7.453   8.701
64064SOL    HW193966  10.140   7.443   8.718
64064SOL    HW293967  10.241   7.537   8.656
64065SOL     OW93968   9.998  11.420   2.396
64065SOL    HW193969   9.986  11.403   2.303
64065SOL    HW293970   9.982  11.514   2.406
64066SOL     OW93971   8.871   8.580   1.931
64066SOL    HW193972   8.871   8.562   2.025
64066SOL    HW293973   8.939   8.645   1.919
64067SOL     OW93974  14.770   8.423   0.952
64067SOL    HW193975  14.826   8.348   0.933
64067SOL    HW293976  14.716   8.394   1.026
64068SOL     OW93977   7.185  10.179  13.878
64068SOL    HW193978   7.236  10.243  13.927
64068SOL    HW293979   7.245  10.147  13.810
64069SOL     OW93980   0.596  12.583   8.505
64069SOL    HW193981   0.513  12.630   8.508
64069SOL    HW293982   0.623  12.577   8.596
64070SOL     OW93983   4.248  11.022  10.504
64070SOL    HW193984   4.230  10.953  10.567
64070SOL    HW293985   4.302  10.980  10.437
64071SOL     OW93986   6.078  14.823   4.766
64071SOL    HW193987   6.098  14.831   4.859
64071SOL    HW293988   6.010  14.755   4.762
64072SOL     OW93989   9.197   9.016   4.065
64072SOL    HW193990   9.150   9.067   4.131
64072SOL    HW293991   9.286   9.010   4.099
64073SOL     OW93992   9.457  13.024  10.030
64073SOL    HW193993   9.445  13.083  10.104
64073SOL    HW293994   9.475  12.939  10.071
64074SOL     OW93995  13.980   0.268   3.586
64074SOL    HW193996  14.016   0.183   3.613
64074SOL    HW293997  14.050   0.331   3.606
64075SOL     OW93998  11.476  11.777   1.401
64075SOL    HW193999  11.450  11.861   1.437
64075SOL    HW294000  11.567  11.789   1.374
64076SOL     OW94001  12.781   5.900   7.435
64076SOL    HW194002  12.832   5.894   7.355
64076SOL    HW294003  12.747   5.990   7.436
64077SOL     OW94004   0.778  12.266  12.524
64077SOL    HW194005   0.812  12.197  12.467
64077SOL    HW294006   0.708  12.224  12.574
64078SOL     OW94007   0.549  13.318   6.934
64078SOL    HW194008   0.491  13.392   6.951
64078SOL    HW294009   0.637  13.355   6.940
64079SOL     OW94010   3.052  13.714   7.205
64079SOL    HW194011   2.960  13.737   7.202
64079SOL    HW294012   3.061  13.639   7.146
64080SOL     OW94013   4.869   1.955   6.971
64080SOL    HW194014   4.868   1.931   7.063
64080SOL    HW294015   4.962   1.957   6.948
64081SOL     OW94016   4.346  13.207   5.543
64081SOL    HW194017   4.429  13.253   5.557
64081SOL    HW294018   4.365  13.115   5.560
64082SOL     OW94019   3.422   9.745   0.969
64082SOL    HW194020   3.368   9.770   1.044
64082SOL    HW294021   3.370   9.679   0.923
64083SOL     OW94022   4.013   1.806  11.282
64083SOL    HW194023   4.049   1.889  11.249
64083SOL    HW294024   4.037   1.742  11.216
64084SOL     OW94025   4.104  10.522  11.889
64084SOL    HW194026   4.119  10.462  11.961
64084SOL    HW294027   4.039  10.479  11.834
64085SOL     OW94028  14.697   9.222   2.403
64085SOL    HW194029  14.636   9.250   2.470
64085SOL    HW294030  14.761   9.168   2.449
64086SOL     OW94031   3.639   4.715   8.471
64086SOL    HW194032   3.672   4.692   8.558
64086SOL    HW294033   3.647   4.634   8.420
64087SOL     OW94034   9.941  10.073  10.785
64087SOL    HW194035  10.000  10.056  10.858
64087SOL    HW294036   9.862  10.023  10.807
64088SOL     OW94037   3.168  13.806  13.674
64088SOL    HW194038   3.093  13.866  13.673
64088SOL    HW294039   3.130  13.719  13.670
64089SOL     OW94040  12.188   1.695   7.920
64089SOL    HW194041  12.161   1.736   7.838
64089SOL    HW294042  12.178   1.601   7.905
64090SOL     OW94043  11.253   0.180   3.653
64090SOL    HW194044  11.236   0.121   3.726
64090SOL    HW294045  11.338   0.152   3.619
64091SOL     OW94046  14.829   7.104  13.922
64091SOL    HW194047  14.797   7.014  13.932
64091SOL    HW294048   0.024   7.110  13.984
64092SOL     OW94049   3.909   5.827  10.809
64092SOL    HW194050   3.886   5.920  10.820
64092SOL    HW294051   4.000   5.828  10.781
64093SOL     OW94052  11.572  11.206   3.120
64093SOL    HW194053  11.624  11.235   3.195
64093SOL    HW294054  11.599  11.264   3.049
64094SOL     OW94055   3.872   6.490  14.667
64094SOL    HW194056   3.943   6.459  14.722
64094SOL    HW294057   3.793   6.461  14.711
64095SOL     OW94058   2.155   4.577   7.355
64095SOL    HW194059   2.241   4.598   7.393
64095SOL    HW294060   2.175   4.513   7.286
64096SOL     OW94061   5.352   9.306   4.945
64096SOL    HW194062   5.287   9.364   4.908
64096SOL    HW294063   5.353   9.327   5.038
64097SOL     OW94064   8.181   6.511   9.176
64097SOL    HW194065   8.138   6.543   9.096
64097SOL    HW294066   8.166   6.580   9.240
64098SOL     OW94067   4.059   0.707  10.499
64098SOL    HW194068   4.012   0.778  10.542
64098SOL    HW294069   3.997   0.633  10.502
64099SOL     OW94070   7.748   7.301  11.929
64099SOL    HW194071   7.727   7.351  11.851
64099SOL    HW294072   7.688   7.226  11.927
64100SOL     OW94073   4.653   9.766   2.881
64100SOL    HW194074   4.655   9.780   2.786
64100SOL    HW294075   4.682   9.675   2.892
64101SOL     OW94076   4.138   9.903   1.736
64101SOL    HW194077   4.157   9.876   1.826
64101SOL    HW294078   4.045   9.926   1.737
64102SOL     OW94079   6.115   3.869  13.889
64102SOL    HW194080   6.064   3.865  13.970
64102SOL    HW294081   6.106   3.782  13.851
64103SOL     OW94082   0.411  13.088   5.239
64103SOL    HW194083   0.503  13.063   5.230
64103SOL    HW294084   0.385  13.056   5.325
64104SOL     OW94085   9.396  10.126   7.227
64104SOL    HW194086   9.301  10.124   7.222
64104SOL    HW294087   9.415  10.173   7.308
64105SOL     OW94088   9.488   0.626   9.527
64105SOL    HW194089   9.509   0.716   9.551
64105SOL    HW294090   9.398   0.630   9.494
64106SOL     OW94091   6.511  13.412   7.629
64106SOL    HW194092   6.577  13.421   7.560
64106SOL    HW294093   6.490  13.503   7.653
64107SOL     OW94094  10.301   0.030   5.802
64107SOL    HW194095  10.394   0.030   5.782
64107SOL    HW294096  10.285  14.822   5.842
64108SOL     OW94097   5.690  12.603   1.486
64108SOL    HW194098   5.598  12.616   1.510
64108SOL    HW294099   5.737  12.614   1.569
64109SOL     OW94100  12.930  11.493  13.000
64109SOL    HW194101  12.858  11.458  12.948
64109SOL    HW294102  13.008  11.471  12.950
64110SOL     OW94103  12.859  14.093  14.546
64110SOL    HW194104  12.797  14.056  14.484
64110SOL    HW294105  12.919  14.022  14.566
64111SOL     OW94106   6.726   4.152   8.109
64111SOL    HW194107   6.739   4.225   8.048
64111SOL    HW294108   6.637   4.122   8.090
64112SOL     OW94109   9.709   3.730   6.768
64112SOL    HW194110   9.734   3.643   6.801
64112SOL    HW294111   9.615   3.735   6.783
64113SOL     OW94112   4.061   8.383  11.733
64113SOL    HW194113   4.087   8.396  11.824
64113SOL    HW294114   4.002   8.308  11.735
64114SOL     OW94115  11.816  10.493   8.880
64114SOL    HW194116  11.812  10.466   8.972
64114SOL    HW294117  11.908  10.515   8.866
64115SOL     OW94118   5.551   0.132   3.130
64115SOL    HW194119   5.542   0.066   3.199
64115SOL    HW294120   5.536   0.215   3.175
64116SOL     OW94121   0.104   4.749   6.253
64116SOL    HW194122   0.177   4.715   6.304
64116SOL    HW294123   0.134   4.746   6.162
64117SOL     OW94124  11.133   8.381   5.980
64117SOL    HW194125  11.203   8.320   5.954
64117SOL    HW294126  11.074   8.382   5.904
64118SOL     OW94127   9.235   6.171   5.649
64118SOL    HW194128   9.296   6.144   5.580
64118SOL    HW294129   9.149   6.152   5.613
64119SOL     OW94130   6.369   6.757  11.562
64119SOL    HW194131   6.298   6.819  11.548
64119SOL    HW294132   6.330   6.671  11.549
64120SOL     OW94133   8.901   1.887   7.569
64120SOL    HW194134   8.959   1.962   7.577
64120SOL    HW294135   8.879   1.883   7.476
64121SOL     OW94136  12.596   9.792   3.814
64121SOL    HW194137  12.663   9.769   3.878
64121SOL    HW294138  12.628   9.873   3.773
64122SOL     OW94139   9.922  10.773  14.722
64122SOL    HW194140   9.855  10.820  14.772
64122SOL    HW294141  10.002  10.786  14.772
64123SOL     OW94142  13.789  11.174  14.436
64123SOL    HW194143  13.804  11.235  14.509
64123SOL    HW294144  13.838  11.095  14.461
64124SOL     OW94145   5.944  13.136   6.782
64124SOL    HW194146   6.040  13.127   6.776
64124SOL    HW294147   5.914  13.119   6.693
64125SOL     OW94148  14.228   5.370  13.106
64125SOL    HW194149  14.256   5.462  13.102
64125SOL    HW294150  14.265   5.337  13.187
64126SOL     OW94151  12.424   8.230   1.709
64126SOL    HW194152  12.389   8.306   1.663
64126SOL    HW294153  12.499   8.203   1.656
64127SOL     OW94154   0.691   2.785   5.009
64127SOL    HW194155   0.620   2.850   5.006
64127SOL    HW294156   0.646   2.701   5.006
64128SOL     OW94157   9.601  11.904   2.974
64128SOL    HW194158   9.680  11.852   2.991
64128SOL    HW294159   9.586  11.895   2.880
64129SOL     OW94160   0.384   9.798   3.624
64129SOL    HW194161   0.408   9.889   3.607
64129SOL    HW294162   0.438   9.748   3.563
64130SOL     OW94163   7.523   9.831  11.791
64130SOL    HW194164   7.491   9.846  11.702
64130SOL    HW294165   7.612   9.796  11.780
64131SOL     OW94166  13.265   6.785   7.090
64131SOL    HW194167  13.181   6.828   7.101
64131SOL    HW294168  13.330   6.853   7.108
64132SOL     OW94169   3.450   5.123   5.426
64132SOL    HW194170   3.469   5.217   5.426
64132SOL    HW294171   3.417   5.105   5.514
64133SOL     OW94172   3.673   1.384  11.001
64133SOL    HW194173   3.677   1.454  10.936
64133SOL    HW294174   3.763   1.355  11.012
64134SOL     OW94175   0.260   7.589   7.501
64134SOL    HW194176   0.195   7.637   7.449
64134SOL    HW294177   0.210   7.519   7.542
64135SOL     OW94178  12.003  11.519  13.012
64135SOL    HW194179  12.019  11.573  13.090
64135SOL    HW294180  12.016  11.430  13.043
64136SOL     OW94181   6.503   9.135   3.967
64136SOL    HW194182   6.499   9.162   3.876
64136SOL    HW294183   6.571   9.068   3.969
64137SOL     OW94184   7.495   0.524  11.425
64137SOL    HW194185   7.459   0.507  11.338
64137SOL    HW294186   7.456   0.607  11.451
64138SOL     OW94187   9.869   8.532   2.430
64138SOL    HW194188   9.870   8.489   2.516
64138SOL    HW294189   9.875   8.625   2.451
64139SOL     OW94190   2.118  14.272   0.755
64139SOL    HW194191   2.048  14.246   0.813
64139SOL    HW294192   2.195  14.280   0.811
64140SOL     OW94193   4.954   2.739   0.519
64140SOL    HW194194   5.006   2.806   0.474
64140SOL    HW294195   5.018   2.685   0.564
64141SOL     OW94196   3.564  12.739   5.299
64141SOL    HW194197   3.615  12.819   5.284
64141SOL    HW294198   3.629  12.669   5.302
64142SOL     OW94199  13.806   6.704   7.771
64142SOL    HW194200  13.746   6.665   7.707
64142SOL    HW294201  13.748   6.741   7.838
64143SOL     OW94202   4.071  14.229  14.220
64143SOL    HW194203   4.149  14.259  14.173
64143SOL    HW294204   4.086  14.135  14.234
64144SOL     OW94205   2.100   7.801  14.190
64144SOL    HW194206   2.185   7.762  14.209
64144SOL    HW294207   2.086   7.786  14.097
64145SOL     OW94208  10.377   1.136  13.981
64145SOL    HW194209  10.364   1.118  13.888
64145SOL    HW294210  10.365   1.051  14.024
64146SOL     OW94211   5.476   1.068  11.912
64146SOL    HW194212   5.518   1.141  11.957
64146SOL    HW294213   5.539   1.043  11.844
64147SOL     OW94214  10.426   8.631   1.166
64147SOL    HW194215  10.518   8.609   1.153
64147SOL    HW294216  10.425   8.685   1.245
64148SOL     OW94217   9.586   8.307   3.848
64148SOL    HW194218   9.580   8.365   3.772
64148SOL    HW294219   9.679   8.307   3.870
64149SOL     OW94220   7.903   7.382   3.553
64149SOL    HW194221   7.957   7.461   3.551
64149SOL    HW294222   7.814   7.413   3.539
64150SOL     OW94223   2.480  11.300  13.887
64150SOL    HW194224   2.496  11.395  13.888
64150SOL    HW294225   2.555  11.264  13.839
64151SOL     OW94226  13.207  14.718  11.432
64151SOL    HW194227  13.296  14.728  11.397
64151SOL    HW294228  13.155  14.692  11.356
64152SOL     OW94229   3.085   9.444   8.108
64152SOL    HW194230   3.046   9.519   8.153
64152SOL    HW294231   3.159   9.481   8.060
64153SOL     OW94232   6.214   9.442   1.779
64153SOL    HW194233   6.303   9.409   1.767
64153SOL    HW294234   6.217   9.532   1.747
64154SOL     OW94235  10.188   6.136   9.251
64154SOL    HW194236  10.095   6.134   9.274
64154SOL    HW294237  10.195   6.206   9.185
64155SOL     OW94238   8.255   4.359   9.318
64155SOL    HW194239   8.346   4.384   9.335
64155SOL    HW294240   8.258   4.312   9.234
64156SOL     OW94241  13.598   3.131   0.617
64156SOL    HW194242  13.641   3.070   0.557
64156SOL    HW294243  13.609   3.092   0.703
64157SOL     OW94244  13.422  12.923  10.911
64157SOL    HW194245  13.428  12.830  10.932
64157SOL    HW294246  13.336  12.950  10.945
64158SOL     OW94247   1.287   9.708  10.332
64158SOL    HW194248   1.256   9.797  10.311
64158SOL    HW294249   1.246   9.653  10.266
64159SOL     OW94250  11.526  12.247   1.413
64159SOL    HW194251  11.556  12.254   1.322
64159SOL    HW294252  11.466  12.172   1.412
64160SOL     OW94253   6.254  14.652  14.095
64160SOL    HW194254   6.265  14.619  14.006
64160SOL    HW294255   6.176  14.607  14.128
64161SOL     OW94256   4.379  10.596   3.386
64161SOL    HW194257   4.304  10.558   3.341
64161SOL    HW294258   4.394  10.680   3.343
64162SOL     OW94259   2.069  11.214   8.909
64162SOL    HW194260   1.973  11.216   8.907
64162SOL    HW294261   2.091  11.121   8.913
64163SOL     OW94262  12.615   4.365   9.671
64163SOL    HW194263  12.588   4.334   9.585
64163SOL    HW294264  12.704   4.331   9.681
64164SOL     OW94265  13.163   8.695  10.649
64164SOL    HW194266  13.247   8.737  10.667
64164SOL    HW294267  13.184   8.625  10.587
64165SOL     OW94268   3.278  13.602   1.940
64165SOL    HW194269   3.214  13.536   1.914
64165SOL    HW294270   3.225  13.679   1.964
64166SOL     OW94271   4.475  14.386  13.366
64166SOL    HW194272   4.538  14.442  13.321
64166SOL    HW294273   4.449  14.321  13.301
64167SOL     OW94274   3.468  12.419   6.313
64167SOL    HW194275   3.475  12.514   6.321
64167SOL    HW294276   3.448  12.389   6.402
64168SOL     OW94277   2.781  10.251   9.074
64168SOL    HW194278   2.733  10.312   9.019
64168SOL    HW294279   2.730  10.245   9.155
64169SOL     OW94280   8.916  11.814   1.293
64169SOL    HW194281   8.886  11.792   1.382
64169SOL    HW294282   8.840  11.852   1.250
64170SOL     OW94283   6.119   0.196  10.220
64170SOL    HW194284   6.092   0.237  10.303
64170SOL    HW294285   6.068   0.241  10.154
64171SOL     OW94286  11.981   7.251   5.313
64171SOL    HW194287  12.031   7.244   5.232
64171SOL    HW294288  11.913   7.316   5.294
64172SOL     OW94289   6.917   8.642   6.072
64172SOL    HW194290   6.957   8.593   6.144
64172SOL    HW294291   6.944   8.732   6.086
64173SOL     OW94292  11.362   3.885   3.615
64173SOL    HW194293  11.270   3.909   3.629
64173SOL    HW294294  11.411   3.953   3.660
64174SOL     OW94295   2.852   9.598  11.976
64174SOL    HW194296   2.924   9.535  11.982
64174SOL    HW294297   2.776   9.551  12.008
64175SOL     OW94298   3.415   3.840   8.026
64175SOL    HW194299   3.325   3.852   7.994
64175SOL    HW294300   3.409   3.857   8.120
64176SOL     OW94301   6.565   6.923  11.340
64176SOL    HW194302   6.660   6.935  11.344
64176SOL    HW294303   6.534   6.944  11.428
64177SOL     OW94304  12.460  11.746   3.960
64177SOL    HW194305  12.548  11.782   3.973
64177SOL    HW294306  12.404  11.822   3.949
64178SOL     OW94307   5.247   4.371   6.324
64178SOL    HW194308   5.275   4.376   6.232
64178SOL    HW294309   5.298   4.440   6.367
64179SOL     OW94310   4.203   4.476   9.287
64179SOL    HW194311   4.221   4.458   9.194
64179SOL    HW294312   4.211   4.391   9.330
64180SOL     OW94313  11.282   4.812  11.170
64180SOL    HW194314  11.280   4.767  11.254
64180SOL    HW294315  11.207   4.870  11.172
64181SOL     OW94316   3.093  11.042   7.376
64181SOL    HW194317   3.179  11.060   7.337
64181SOL    HW294318   3.073  11.119   7.429
64182SOL     OW94319  12.846  10.950   8.235
64182SOL    HW194320  12.891  10.979   8.156
64182SOL    HW294321  12.792  10.877   8.208
64183SOL     OW94322   2.915   1.414   3.965
64183SOL    HW194323   3.000   1.455   3.947
64183SOL    HW294324   2.899   1.358   3.889
64184SOL     OW94325   4.149   9.251   8.807
64184SOL    HW194326   4.108   9.309   8.743
64184SOL    HW294327   4.237   9.287   8.819
64185SOL     OW94328   4.469   5.074   0.398
64185SOL    HW194329   4.412   4.998   0.386
64185SOL    HW294330   4.414   5.149   0.378
64186SOL     OW94331  14.482  11.552   4.218
64186SOL    HW194332  14.446  11.521   4.301
64186SOL    HW294333  14.470  11.479   4.157
64187SOL     OW94334   9.706   0.127   9.532
64187SOL    HW194335   9.756   0.162   9.458
64187SOL    HW294336   9.670   0.203   9.576
64188SOL     OW94337  12.711   9.160   8.411
64188SOL    HW194338  12.752   9.246   8.422
64188SOL    HW294339  12.618   9.176   8.429
64189SOL     OW94340   1.491   9.895   7.178
64189SOL    HW194341   1.535   9.977   7.156
64189SOL    HW294342   1.478   9.898   7.272
64190SOL     OW94343   1.516   4.878   5.900
64190SOL    HW194344   1.454   4.948   5.917
64190SOL    HW294345   1.539   4.845   5.987
64191SOL     OW94346   6.800  11.783  11.757
64191SOL    HW194347   6.861  11.732  11.703
64191SOL    HW294348   6.788  11.731  11.836
64192SOL     OW94349   2.218   2.665   7.518
64192SOL    HW194350   2.125   2.682   7.504
64192SOL    HW294351   2.219   2.599   7.588
64193SOL     OW94352   2.490   9.408  14.850
64193SOL    HW194353   2.506   9.364   0.056
64193SOL    HW294354   2.408   9.456  14.864
64194SOL     OW94355   1.172   3.188   9.287
64194SOL    HW194356   1.080   3.212   9.276
64194SOL    HW294357   1.179   3.161   9.379
64195SOL     OW94358   7.871   6.906   4.769
64195SOL    HW194359   7.950   6.929   4.817
64195SOL    HW294360   7.900   6.841   4.705
64196SOL     OW94361   3.479   9.063   8.004
64196SOL    HW194362   3.574   9.072   8.014
64196SOL    HW294363   3.444   9.150   8.022
64197SOL     OW94364   5.690  14.658  13.588
64197SOL    HW194365   5.741  14.606  13.526
64197SOL    HW294366   5.756  14.706  13.637
64198SOL     OW94367   7.090   9.438  11.364
64198SOL    HW194368   7.064   9.431  11.455
64198SOL    HW294369   7.015   9.402  11.315
64199SOL     OW94370  13.158   2.203   4.152
64199SOL    HW194371  13.072   2.191   4.111
64199SOL    HW294372  13.152   2.156   4.235
64200SOL     OW94373  12.369   6.209   5.004
64200SOL    HW194374  12.396   6.221   5.094
64200SOL    HW294375  12.297   6.272   4.992
64201SOL     OW94376  11.654   9.224   7.797
64201SOL    HW194377  11.705   9.146   7.779
64201SOL    HW294378  11.633   9.260   7.711
64202SOL     OW94379   3.115  11.034  13.511
64202SOL    HW194380   3.208  11.011  13.507
64202SOL    HW294381   3.110  11.100  13.581
64203SOL     OW94382   4.519  14.222  14.383
64203SOL    HW194383   4.593  14.218  14.444
64203SOL    HW294384   4.488  14.312  14.387
64204SOL     OW94385   2.012  14.426   7.553
64204SOL    HW194386   1.916  14.429   7.555
64204SOL    HW294387   2.032  14.358   7.489
64205SOL     OW94388   4.856  13.417  12.671
64205SOL    HW194389   4.807  13.448  12.748
64205SOL    HW294390   4.828  13.326  12.660
64206SOL     OW94391   4.167   9.656   5.418
64206SOL    HW194392   4.238   9.619   5.471
64206SOL    HW294393   4.184   9.625   5.329
64207SOL     OW94394  11.203   4.195   0.984
64207SOL    HW194395  11.123   4.248   0.980
64207SOL    HW294396  11.268   4.253   1.023
64208SOL     OW94397   1.770   9.218   1.852
64208SOL    HW194398   1.708   9.236   1.923
64208SOL    HW294399   1.856   9.238   1.891
64209SOL     OW94400   4.074  11.778   8.315
64209SOL    HW194401   4.088  11.746   8.404
64209SOL    HW294402   3.979  11.780   8.305
64210SOL     OW94403   6.386   1.756   7.321
64210SOL    HW194404   6.451   1.754   7.391
64210SOL    HW294405   6.311   1.801   7.361
64211SOL     OW94406  11.584  11.452  13.302
64211SOL    HW194407  11.628  11.368  13.287
64211SOL    HW294408  11.505  11.429  13.352
64212SOL     OW94409   1.918   4.421   9.867
64212SOL    HW194410   2.009   4.446   9.851
64212SOL    HW294411   1.920   4.326   9.878
64213SOL     OW94412  13.439   4.872  12.721
64213SOL    HW194413  13.397   4.922  12.790
64213SOL    HW294414  13.367   4.830  12.674
64214SOL     OW94415   8.442   2.527  14.168
64214SOL    HW194416   8.499   2.474  14.111
64214SOL    HW294417   8.503   2.581  14.219
64215SOL     OW94418   6.859  10.256  13.140
64215SOL    HW194419   6.896  10.344  13.144
64215SOL    HW294420   6.889  10.214  13.221
64216SOL     OW94421  11.825  11.129   9.105
64216SOL    HW194422  11.906  11.128   9.157
64216SOL    HW294423  11.852  11.163   9.019
64217SOL     OW94424  10.650   8.868   2.969
64217SOL    HW194425  10.714   8.931   3.001
64217SOL    HW294426  10.649   8.881   2.874
64218SOL     OW94427   2.817   9.440  12.414
64218SOL    HW194428   2.870   9.376  12.367
64218SOL    HW294429   2.835   9.423  12.507
64219SOL     OW94430   8.570   5.422  13.751
64219SOL    HW194431   8.477   5.432  13.732
64219SOL    HW294432   8.614   5.457  13.674
64220SOL     OW94433   1.764   3.811   9.130
64220SOL    HW194434   1.778   3.798   9.036
64220SOL    HW294435   1.709   3.737   9.157
64221SOL     OW94436  10.110  10.001   9.705
64221SOL    HW194437  10.187   9.987   9.761
64221SOL    HW294438  10.037  10.007   9.766
64222SOL     OW94439  14.596   2.563  14.559
64222SOL    HW194440  14.612   2.557  14.465
64222SOL    HW294441  14.675   2.527  14.599
64223SOL     OW94442   8.044  13.054  14.541
64223SOL    HW194443   8.038  13.145  14.512
64223SOL    HW294444   8.058  13.005  14.460
64224SOL     OW94445  11.837   5.906  10.946
64224SOL    HW194446  11.762   5.868  10.991
64224SOL    HW294447  11.913   5.865  10.988
64225SOL     OW94448   6.642   8.392  14.445
64225SOL    HW194449   6.734   8.399  14.467
64225SOL    HW294450   6.597   8.383  14.529
64226SOL     OW94451  12.255   8.866   6.078
64226SOL    HW194452  12.269   8.927   6.006
64226SOL    HW294453  12.332   8.876   6.134
64227SOL     OW94454   6.551  12.460   0.464
64227SOL    HW194455   6.464  12.485   0.434
64227SOL    HW294456   6.590  12.541   0.496
64228SOL     OW94457  14.309  12.857   5.295
64228SOL    HW194458  14.256  12.929   5.330
64228SOL    HW294459  14.390  12.860   5.346
64229SOL     OW94460  10.986  13.425  13.153
64229SOL    HW194461  10.922  13.373  13.105
64229SOL    HW294462  11.024  13.483  13.087
64230SOL     OW94463  12.695  14.330   1.010
64230SOL    HW194464  12.711  14.242   1.043
64230SOL    HW294465  12.681  14.318   0.916
64231SOL     OW94466   1.433  13.760   0.603
64231SOL    HW194467   1.484  13.681   0.587
64231SOL    HW294468   1.488  13.814   0.660
64232SOL     OW94469   0.602   5.920  10.382
64232SOL    HW194470   0.622   5.999  10.333
64232SOL    HW294471   0.605   5.850  10.317
64233SOL     OW94472   3.569   9.187   6.680
64233SOL    HW194473   3.486   9.208   6.638
64233SOL    HW294474   3.636   9.213   6.616
64234SOL     OW94475   0.632  10.981   0.503
64234SOL    HW194476   0.537  10.979   0.509
64234SOL    HW294477   0.660  10.894   0.533
64235SOL     OW94478   6.934   3.403   5.093
64235SOL    HW194479   6.856   3.458   5.105
64235SOL    HW294480   6.911   3.320   5.133
64236SOL     OW94481   1.082  10.160  13.549
64236SOL    HW194482   1.021  10.150  13.622
64236SOL    HW294483   1.104  10.253  13.549
64237SOL     OW94484  14.712   0.252   0.022
64237SOL    HW194485  14.763   0.319   0.069
64237SOL    HW294486  14.759   0.170   0.039
64238SOL     OW94487   7.853  10.557   8.120
64238SOL    HW194488   7.868  10.621   8.190
64238SOL    HW294489   7.817  10.609   8.048
64239SOL     OW94490   4.454   4.839   9.341
64239SOL    HW194491   4.474   4.901   9.270
64239SOL    HW294492   4.457   4.892   9.421
64240SOL     OW94493   7.794   2.747   7.959
64240SOL    HW194494   7.729   2.718   7.895
64240SOL    HW294495   7.878   2.722   7.922
64241SOL     OW94496   2.886   0.430   4.265
64241SOL    HW194497   2.849   0.342   4.253
64241SOL    HW294498   2.854   0.480   4.190
64242SOL     OW94499   6.072   2.532   9.970
64242SOL    HW194500   6.107   2.458   9.919
64242SOL    HW294501   6.124   2.532  10.050
64243SOL     OW94502   0.653   7.634  12.340
64243SOL    HW194503   0.567   7.595  12.356
64243SOL    HW294504   0.661   7.703  12.407
64244SOL     OW94505   3.089   8.290   6.225
64244SOL    HW194506   3.133   8.236   6.160
64244SOL    HW294507   3.077   8.232   6.300
64245SOL     OW94508  11.265  10.722   4.194
64245SOL    HW194509  11.314  10.748   4.272
64245SOL    HW294510  11.222  10.640   4.218
64246SOL     OW94511   8.872   6.711   4.825
64246SOL    HW194512   8.842   6.793   4.864
64246SOL    HW294513   8.806   6.690   4.759
64247SOL     OW94514   8.260  12.649   7.521
64247SOL    HW194515   8.346  12.635   7.561
64247SOL    HW294516   8.197  12.618   7.586
64248SOL     OW94517   6.192   1.493  11.426
64248SOL    HW194518   6.159   1.413  11.467
64248SOL    HW294519   6.137   1.563  11.462
64249SOL     OW94520   7.659   9.977   9.928
64249SOL    HW194521   7.588   9.950   9.986
64249SOL    HW294522   7.616   9.998   9.845
64250SOL     OW94523  10.567   8.006   7.468
64250SOL    HW194524  10.495   7.943   7.482
64250SOL    HW294525  10.597   7.988   7.379
64251SOL     OW94526   0.846  11.880   6.524
64251SOL    HW194527   0.876  11.840   6.442
64251SOL    HW294528   0.908  11.951   6.539
64252SOL     OW94529   7.552   9.464  12.934
64252SOL    HW194530   7.526   9.546  12.894
64252SOL    HW294531   7.536   9.398  12.867
64253SOL     OW94532   4.543  14.309  11.304
64253SOL    HW194533   4.479  14.280  11.369
64253SOL    HW294534   4.624  14.264  11.329
64254SOL     OW94535   8.441   1.209   0.669
64254SOL    HW194536   8.388   1.269   0.617
64254SOL    HW294537   8.421   1.122   0.633
64255SOL     OW94538   9.834  12.764  13.138
64255SOL    HW194539   9.815  12.837  13.080
64255SOL    HW294540   9.914  12.790  13.183
64256SOL     OW94541  11.372   8.241  14.821
64256SOL    HW194542  11.334   8.169  14.872
64256SOL    HW294543  11.297   8.292  14.792
64257SOL     OW94544   3.795   5.801   4.288
64257SOL    HW194545   3.733   5.774   4.220
64257SOL    HW294546   3.877   5.816   4.241
64258SOL     OW94547  12.402   6.868   8.199
64258SOL    HW194548  12.318   6.823   8.188
64258SOL    HW294549  12.442   6.867   8.112
64259SOL     OW94550   5.771  11.922   7.952
64259SOL    HW194551   5.821  12.003   7.942
64259SOL    HW294552   5.837  11.853   7.958
64260SOL     OW94553   5.050   6.481   0.279
64260SOL    HW194554   5.128   6.479   0.334
64260SOL    HW294555   4.977   6.477   0.342
64261SOL     OW94556   9.149   6.923   3.613
64261SOL    HW194557   9.110   6.955   3.694
64261SOL    HW294558   9.117   6.983   3.546
64262SOL     OW94559   6.482  13.466   6.346
64262SOL    HW194560   6.527  13.457   6.430
64262SOL    HW294561   6.537  13.418   6.284
64263SOL     OW94562   7.753   6.069   8.461
64263SOL    HW194563   7.689   6.021   8.408
64263SOL    HW294564   7.823   6.092   8.400
64264SOL     OW94565   8.255   5.440   0.182
64264SOL    HW194566   8.209   5.394   0.252
64264SOL    HW294567   8.336   5.391   0.170
64265SOL     OW94568   9.423   3.903   0.375
64265SOL    HW194569   9.344   3.879   0.424
64265SOL    HW294570   9.433   3.997   0.391
64266SOL     OW94571   2.820  11.629   7.909
64266SOL    HW194572   2.743  11.674   7.944
64266SOL    HW294573   2.870  11.697   7.863
64267SOL     OW94574   7.663  11.311   4.121
64267SOL    HW194575   7.612  11.323   4.201
64267SOL    HW294576   7.754  11.327   4.148
64268SOL     OW94577  11.244   9.428  10.572
64268SOL    HW194578  11.330   9.402  10.607
64268SOL    HW294579  11.181   9.374  10.619
64269SOL     OW94580   9.969   3.253  12.478
64269SOL    HW194581   9.971   3.241  12.383
64269SOL    HW294582  10.016   3.335  12.493
64270SOL     OW94583   2.506   9.604   0.306
64270SOL    HW194584   2.434   9.570   0.252
64270SOL    HW294585   2.537   9.527   0.355
64271SOL     OW94586   9.548  12.715   0.494
64271SOL    HW194587   9.644  12.714   0.493
64271SOL    HW294588   9.524  12.745   0.406
64272SOL     OW94589   1.109  10.179  14.841
64272SOL    HW194590   1.116  10.111   0.031
64272SOL    HW294591   1.025  10.161  14.798
64273SOL     OW94592   3.256   2.671   7.938
64273SOL    HW194593   3.176   2.716   7.963
64273SOL    HW294594   3.278   2.705   7.852
64274SOL     OW94595  11.944   1.588  12.450
64274SOL    HW194596  12.006   1.539  12.505
64274SOL    HW294597  11.881   1.624  12.513
64275SOL     OW94598   9.400  12.863  10.876
64275SOL    HW194599   9.412  12.937  10.817
64275SOL    HW294600   9.327  12.814  10.839
64276SOL     OW94601  11.997   4.295   0.271
64276SOL    HW194602  11.927   4.355   0.298
64276SOL    HW294603  12.054   4.288   0.347
64277SOL     OW94604  14.520   4.228   5.799
64277SOL    HW194605  14.564   4.265   5.723
64277SOL    HW294606  14.529   4.133   5.787
64278SOL     OW94607   0.926   9.334   9.207
64278SOL    HW194608   0.856   9.393   9.179
64278SOL    HW294609   0.919   9.333   9.303
64279SOL     OW94610  10.035   3.761   6.748
64279SOL    HW194611  10.008   3.850   6.771
64279SOL    HW294612  10.104   3.773   6.683
64280SOL     OW94613  14.849   6.624   9.903
64280SOL    HW194614   0.064   6.601   9.904
64280SOL    HW294615  14.847   6.715   9.931
64281SOL     OW94616   0.318  12.684   8.500
64281SOL    HW194617   0.340  12.772   8.531
64281SOL    HW294618   0.319  12.691   8.404
64282SOL     OW94619  14.627  12.063  11.097
64282SOL    HW194620  14.636  12.015  11.014
64282SOL    HW294621  14.546  12.113  11.087
64283SOL     OW94622   5.307  12.500  14.133
64283SOL    HW194623   5.359  12.565  14.085
64283SOL    HW294624   5.217  12.521  14.111
64284SOL     OW94625   9.391  10.167   0.780
64284SOL    HW194626   9.422  10.127   0.699
64284SOL    HW294627   9.471  10.196   0.825
64285SOL     OW94628   9.532   2.922   9.427
64285SOL    HW194629   9.561   2.902   9.516
64285SOL    HW294630   9.609   2.907   9.372
64286SOL     OW94631   4.298   5.224   9.507
64286SOL    HW194632   4.255   5.266   9.581
64286SOL    HW294633   4.287   5.286   9.435
64287SOL     OW94634  11.447  14.375   8.637
64287SOL    HW194635  11.501  14.395   8.560
64287SOL    HW294636  11.462  14.450   8.695
64288SOL     OW94637   4.237   4.135   8.749
64288SOL    HW194638   4.271   4.103   8.833
64288SOL    HW294639   4.246   4.230   8.755
64289SOL     OW94640  11.753  13.199   5.030
64289SOL    HW194641  11.737  13.106   5.012
64289SOL    HW294642  11.668  13.233   5.057
64290SOL     OW94643   9.796  12.707  13.513
64290SOL    HW194644   9.880  12.668  13.487
64290SOL    HW294645   9.762  12.746  13.433
64291SOL     OW94646   8.319   0.395   2.409
64291SOL    HW194647   8.320   0.490   2.423
64291SOL    HW294648   8.410   0.372   2.392
64292SOL     OW94649   2.330  11.082   6.347
64292SOL    HW194650   2.259  11.053   6.404
64292SOL    HW294651   2.340  11.012   6.283
64293SOL     OW94652   8.411   0.880   5.100
64293SOL    HW194653   8.497   0.906   5.131
64293SOL    HW294654   8.380   0.818   5.165
64294SOL     OW94655   5.151  14.432  14.692
64294SOL    HW194656   5.083  14.406  14.630
64294SOL    HW294657   5.108  14.497  14.748
64295SOL     OW94658  12.962   1.022  13.843
64295SOL    HW194659  13.001   1.104  13.874
64295SOL    HW294660  12.932   1.042  13.754
64296SOL     OW94661   3.198   6.730   0.136
64296SOL    HW194662   3.186   6.669   0.063
64296SOL    HW294663   3.165   6.814   0.104
64297SOL     OW94664   7.483   0.194  11.404
64297SOL    HW194665   7.490   0.254  11.479
64297SOL    HW294666   7.573   0.179  11.378
64298SOL     OW94667   6.413  11.559  13.307
64298SOL    HW194668   6.333  11.556  13.360
64298SOL    HW294669   6.383  11.564  13.217
64299SOL     OW94670  11.340  10.616  11.772
64299SOL    HW194671  11.357  10.594  11.680
64299SOL    HW294672  11.427  10.618  11.812
64300SOL     OW94673  14.021   9.075   3.392
64300SOL    HW194674  14.075   9.123   3.329
64300SOL    HW294675  14.056   8.986   3.392
64301SOL     OW94676  12.606  10.181   5.253
64301SOL    HW194677  12.523  10.138   5.234
64301SOL    HW294678  12.658  10.171   5.173
64302SOL     OW94679   6.419   8.607  12.681
64302SOL    HW194680   6.399   8.526  12.635
64302SOL    HW294681   6.511   8.623  12.662
64303SOL     OW94682  11.191   1.409  11.144
64303SOL    HW194683  11.172   1.449  11.229
64303SOL    HW294684  11.123   1.442  11.086
64304SOL     OW94685  11.759  14.338   3.921
64304SOL    HW194686  11.724  14.251   3.940
64304SOL    HW294687  11.790  14.370   4.006
64305SOL     OW94688  12.161   6.016   1.708
64305SOL    HW194689  12.254   6.026   1.691
64305SOL    HW294690  12.137   6.094   1.759
64306SOL     OW94691   3.351  13.499  12.585
64306SOL    HW194692   3.321  13.443  12.514
64306SOL    HW294693   3.312  13.585  12.568
64307SOL     OW94694   5.199  12.814   7.949
64307SOL    HW194695   5.155  12.803   8.033
64307SOL    HW294696   5.268  12.878   7.965
64308SOL     OW94697   3.792   1.041  12.300
64308SOL    HW194698   3.698   1.042  12.319
64308SOL    HW294699   3.832   1.005  12.379
64309SOL     OW94700   7.811  13.907   1.264
64309SOL    HW194701   7.728  13.897   1.311
64309SOL    HW294702   7.807  13.996   1.228
64310SOL     OW94703  10.316   8.185  13.848
64310SOL    HW194704  10.278   8.272  13.837
64310SOL    HW294705  10.242   8.125  13.848
64311SOL     OW94706   7.400  10.247   1.587
64311SOL    HW194707   7.490  10.216   1.600
64311SOL    HW294708   7.355  10.222   1.667
64312SOL     OW94709   5.310   7.567   7.501
64312SOL    HW194710   5.376   7.622   7.544
64312SOL    HW294711   5.258   7.531   7.573
64313SOL     OW94712   6.921   2.208   7.871
64313SOL    HW194713   6.920   2.303   7.881
64313SOL    HW294714   6.899   2.174   7.958
64314SOL     OW94715   6.598  10.783  14.844
64314SOL    HW194716   6.512  10.805  14.808
64314SOL    HW294717   6.591  10.803   0.059
64315SOL     OW94718   0.974   2.786   0.671
64315SOL    HW194719   0.922   2.757   0.746
64315SOL    HW294720   1.025   2.859   0.705
64316SOL     OW94721  11.129   4.594   8.499
64316SOL    HW194722  11.188   4.580   8.426
64316SOL    HW294723  11.089   4.508   8.515
64317SOL     OW94724   6.525  10.041   4.434
64317SOL    HW194725   6.520  10.136   4.440
64317SOL    HW294726   6.534  10.011   4.524
64318SOL     OW94727  14.512   6.105   4.328
64318SOL    HW194728  14.459   6.054   4.388
64318SOL    HW294729  14.573   6.153   4.384
64319SOL     OW94730   9.166  14.710  10.717
64319SOL    HW194731   9.142  14.625  10.678
64319SOL    HW294732   9.231  14.746  10.656
64320SOL     OW94733   7.112   0.712   4.140
64320SOL    HW194734   7.098   0.703   4.046
64320SOL    HW294735   7.091   0.626   4.176
64321SOL     OW94736  10.721   9.942   7.550
64321SOL    HW194737  10.792   9.909   7.605
64321SOL    HW294738  10.744  10.033   7.533
64322SOL     OW94739   6.422   0.595   1.747
64322SOL    HW194740   6.465   0.677   1.725
64322SOL    HW294741   6.460   0.531   1.687
64323SOL     OW94742   4.496  10.217  10.223
64323SOL    HW194743   4.586  10.193  10.203
64323SOL    HW294744   4.444  10.180  10.151
64324SOL     OW94745   7.134  13.228  11.501
64324SOL    HW194746   7.104  13.215  11.591
64324SOL    HW294747   7.136  13.323  11.490
64325SOL     OW94748   1.553   0.992   9.237
64325SOL    HW194749   1.512   1.064   9.284
64325SOL    HW294750   1.480   0.939   9.205
64326SOL     OW94751  10.120   3.521  12.170
64326SOL    HW194752  10.084   3.572  12.243
64326SOL    HW294753  10.097   3.430  12.191
64327SOL     OW94754   6.213  12.826   9.566
64327SOL    HW194755   6.266  12.875   9.504
64327SOL    HW294756   6.174  12.756   9.514
64328SOL     OW94757  11.716  13.846   7.257
64328SOL    HW194758  11.727  13.940   7.269
64328SOL    HW294759  11.649  13.838   7.189
64329SOL     OW94760  14.549   5.196   4.631
64329SOL    HW194761  14.504   5.112   4.631
64329SOL    HW294762  14.481   5.261   4.649
64330SOL     OW94763   7.375   9.060   0.777
64330SOL    HW194764   7.327   9.105   0.846
64330SOL    HW294765   7.357   8.967   0.791
64331SOL     OW94766   5.230   5.807   5.823
64331SOL    HW194767   5.172   5.755   5.878
64331SOL    HW294768   5.285   5.743   5.778
64332SOL     OW94769   8.074  14.365   1.397
64332SOL    HW194770   8.031  14.357   1.312
64332SOL    HW294771   8.062  14.279   1.438
64333SOL     OW94772  12.551   8.623  12.172
64333SOL    HW194773  12.458   8.644  12.177
64333SOL    HW294774  12.577   8.647  12.083
64334SOL     OW94775   2.102  13.073   7.807
64334SOL    HW194776   2.121  13.003   7.745
64334SOL    HW294777   2.086  13.150   7.752
64335SOL     OW94778   1.873   6.152   0.011
64335SOL    HW194779   1.858   6.247   0.011
64335SOL    HW294780   1.797   6.116   0.057
64336SOL     OW94781   2.729   2.228   8.831
64336SOL    HW194782   2.737   2.258   8.740
64336SOL    HW294783   2.641   2.252   8.857
64337SOL     OW94784  10.386  14.070   9.440
64337SOL    HW194785  10.298  14.100   9.463
64337SOL    HW294786  10.440  14.149   9.444
64338SOL     OW94787  13.869   3.833  14.087
64338SOL    HW194788  13.791   3.820  14.034
64338SOL    HW294789  13.836   3.864  14.171
64339SOL     OW94790  10.510   1.766   6.843
64339SOL    HW194791  10.430   1.758   6.894
64339SOL    HW294792  10.505   1.695   6.778
64340SOL     OW94793  10.973   8.017   3.080
64340SOL    HW194794  10.937   7.999   2.993
64340SOL    HW294795  10.906   7.986   3.141
64341SOL     OW94796   4.542   0.777   3.013
64341SOL    HW194797   4.625   0.769   2.966
64341SOL    HW294798   4.475   0.768   2.946
64342SOL     OW94799  13.514   0.674  11.279
64342SOL    HW194800  13.542   0.619  11.352
64342SOL    HW294801  13.460   0.616  11.225
64343SOL     OW94802   6.440  12.147   7.190
64343SOL    HW194803   6.402  12.060   7.177
64343SOL    HW294804   6.529  12.140   7.155
64344SOL     OW94805   4.497   2.771   7.349
64344SOL    HW194806   4.523   2.695   7.402
64344SOL    HW294807   4.466   2.733   7.267
64345SOL     OW94808   2.355   6.341   6.602
64345SOL    HW194809   2.391   6.304   6.682
64345SOL    HW294810   2.362   6.436   6.614
64346SOL     OW94811  11.265  13.930  13.005
64346SOL    HW194812  11.353  13.910  12.975
64346SOL    HW294813  11.262  13.898  13.095
64347SOL     OW94814  11.877   5.434   8.620
64347SOL    HW194815  11.940   5.439   8.548
64347SOL    HW294816  11.794   5.458   8.580
64348SOL     OW94817   0.485   1.949   8.128
64348SOL    HW194818   0.406   1.983   8.086
64348SOL    HW294819   0.453   1.899   8.203
64349SOL     OW94820   3.943   3.269   7.439
64349SOL    HW194821   4.038   3.277   7.427
64349SOL    HW294822   3.910   3.357   7.423
64350SOL     OW94823   9.918   3.065   2.661
64350SOL    HW194824   9.900   3.142   2.607
64350SOL    HW294825   9.986   3.093   2.722
64351SOL     OW94826   0.380   7.928  13.381
64351SOL    HW194827   0.307   7.935  13.319
64351SOL    HW294828   0.453   7.972  13.338
64352SOL     OW94829  12.963   0.185  11.768
64352SOL    HW194830  13.048   0.174  11.726
64352SOL    HW294831  12.924   0.261  11.725
64353SOL     OW94832   9.022   6.023   6.367
64353SOL    HW194833   9.072   5.943   6.353
64353SOL    HW294834   8.991   6.048   6.280
64354SOL     OW94835   5.834   6.721  14.862
64354SOL    HW194836   5.856   6.812   0.003
64354SOL    HW294837   5.745   6.724  14.826
64355SOL     OW94838   5.448   2.358   7.591
64355SOL    HW194839   5.395   2.285   7.624
64355SOL    HW294840   5.441   2.425   7.658
64356SOL     OW94841  10.467   4.507  11.415
64356SOL    HW194842  10.407   4.433  11.428
64356SOL    HW294843  10.528   4.501  11.489
64357SOL     OW94844   9.464   9.360   2.287
64357SOL    HW194845   9.483   9.274   2.248
64357SOL    HW294846   9.383   9.346   2.336
64358SOL     OW94847   0.370   5.340  12.996
64358SOL    HW194848   0.405   5.259  12.956
64358SOL    HW294849   0.385   5.328  13.090
64359SOL     OW94850   1.938  11.130  14.031
64359SOL    HW194851   1.861  11.153  13.978
64359SOL    HW294852   1.989  11.072  13.975
64360SOL     OW94853   3.344  13.276  11.964
64360SOL    HW194854   3.310  13.361  11.937
64360SOL    HW294855   3.437  13.292  11.982
64361SOL     OW94856   9.112  10.688  12.459
64361SOL    HW194857   9.153  10.748  12.521
64361SOL    HW294858   9.176  10.679  12.388
64362SOL     OW94859  11.431   1.857   8.115
64362SOL    HW194860  11.406   1.847   8.207
64362SOL    HW294861  11.520   1.891   8.118
64363SOL     OW94862  10.373   1.850   6.221
64363SOL    HW194863  10.457   1.823   6.258
64363SOL    HW294864  10.381   1.828   6.128
64364SOL     OW94865   6.264   7.213   9.412
64364SOL    HW194866   6.204   7.225   9.485
64364SOL    HW294867   6.288   7.302   9.386
64365SOL     OW94868  14.247   3.371  13.737
64365SOL    HW194869  14.201   3.364  13.653
64365SOL    HW294870  14.235   3.284  13.777
64366SOL     OW94871   0.255   9.301   3.218
64366SOL    HW194872   0.272   9.300   3.313
64366SOL    HW294873   0.247   9.209   3.194
64367SOL     OW94874   9.911   2.625   6.667
64367SOL    HW194875   9.854   2.635   6.743
64367SOL    HW294876   9.993   2.590   6.703
64368SOL     OW94877  11.434  14.434   6.013
64368SOL    HW194878  11.526  14.409   6.018
64368SOL    HW294879  11.420  14.458   5.922
64369SOL     OW94880   1.163   9.161  13.539
64369SOL    HW194881   1.197   9.251  13.543
64369SOL    HW294882   1.177   9.135  13.448
64370SOL     OW94883   7.786   0.075  10.540
64370SOL    HW194884   7.763   0.168  10.547
64370SOL    HW294885   7.705   0.033  10.510
64371SOL     OW94886   9.856   7.471   6.591
64371SOL    HW194887   9.800   7.549   6.585
64371SOL    HW294888   9.818   7.409   6.530
64372SOL     OW94889   1.220  11.437   1.412
64372SOL    HW194890   1.125  11.449   1.417
64372SOL    HW294891   1.234  11.347   1.440
64373SOL     OW94892  14.154   3.285  13.143
64373SOL    HW194893  14.171   3.225  13.069
64373SOL    HW294894  14.226   3.348  13.139
64374SOL     OW94895   2.016  11.119   3.637
64374SOL    HW194896   2.040  11.044   3.584
64374SOL    HW294897   2.086  11.126   3.702
64375SOL     OW94898   3.772   2.396   4.292
64375SOL    HW194899   3.750   2.323   4.350
64375SOL    HW294900   3.739   2.473   4.338
64376SOL     OW94901  12.388   0.876   8.120
64376SOL    HW194902  12.439   0.885   8.200
64376SOL    HW294903  12.445   0.908   8.051
64377SOL     OW94904   8.887   9.623   9.742
64377SOL    HW194905   8.873   9.651   9.832
64377SOL    HW294906   8.932   9.696   9.700
64378SOL     OW94907   6.252  10.380   9.232
64378SOL    HW194908   6.336  10.416   9.262
64378SOL    HW294909   6.274  10.295   9.196
64379SOL     OW94910   5.148  11.952   7.261
64379SOL    HW194911   5.198  11.939   7.180
64379SOL    HW294912   5.142  12.047   7.271
64380SOL     OW94913  13.929   2.376   0.744
64380SOL    HW194914  13.886   2.413   0.667
64380SOL    HW294915  13.857   2.349   0.802
64381SOL     OW94916  13.433  10.428   9.936
64381SOL    HW194917  13.518  10.440   9.978
64381SOL    HW294918  13.426  10.501   9.875
64382SOL     OW94919   4.784  14.332  10.909
64382SOL    HW194920   4.750  14.263  10.967
64382SOL    HW294921   4.750  14.413  10.947
64383SOL     OW94922   2.837   5.533   7.188
64383SOL    HW194923   2.873   5.548   7.275
64383SOL    HW294924   2.759   5.479   7.202
64384SOL     OW94925   9.859  12.049   4.278
64384SOL    HW194926   9.900  12.023   4.360
64384SOL    HW294927   9.932  12.062   4.218
64385SOL     OW94928   6.177  13.889  11.623
64385SOL    HW194929   6.130  13.916  11.544
64385SOL    HW294930   6.214  13.971  11.657
64386SOL     OW94931   8.955  11.862   5.053
64386SOL    HW194932   8.903  11.942   5.065
64386SOL    HW294933   8.895  11.800   5.012
64387SOL     OW94934  12.537   1.272   4.525
64387SOL    HW194935  12.623   1.242   4.553
64387SOL    HW294936  12.477   1.203   4.554
64388SOL     OW94937   3.838  12.680  12.973
64388SOL    HW194938   3.797  12.726  12.899
64388SOL    HW294939   3.919  12.644  12.938
64389SOL     OW94940   4.833   2.830   0.201
64389SOL    HW194941   4.780   2.808   0.278
64389SOL    HW294942   4.794   2.780   0.130
64390SOL     OW94943   0.019   3.413   1.197
64390SOL    HW194944  14.878   3.506   1.183
64390SOL    HW294945  14.844   3.367   1.133
64391SOL     OW94946   2.941   9.827  10.835
64391SOL    HW194947   2.938   9.732  10.850
64391SOL    HW294948   2.998   9.837  10.759
64392SOL     OW94949   8.828   1.332   9.595
64392SOL    HW194950   8.852   1.276   9.669
64392SOL    HW294951   8.742   1.366   9.617
64393SOL     OW94952   0.216  13.987   6.749
64393SOL    HW194953   0.303  14.021   6.768
64393SOL    HW294954   0.193  13.934   6.826
64394SOL     OW94955  10.976  13.938   5.661
64394SOL    HW194956  10.960  14.032   5.667
64394SOL    HW294957  11.067  13.931   5.632
64395SOL     OW94958   8.475  13.434  10.857
64395SOL    HW194959   8.503  13.429  10.948
64395SOL    HW294960   8.482  13.345  10.824
64396SOL     OW94961   5.488  12.607   0.799
64396SOL    HW194962   5.491  12.702   0.797
64396SOL    HW294963   5.574  12.580   0.833
64397SOL     OW94964   0.034   0.078  11.948
64397SOL    HW194965   0.074   0.060  11.863
64397SOL    HW294966   0.069   0.163  11.974
64398SOL     OW94967  10.772   9.351  14.127
64398SOL    HW194968  10.712   9.422  14.152
64398SOL    HW294969  10.741   9.275  14.177
64399SOL     OW94970   9.826   5.771   2.570
64399SOL    HW194971   9.889   5.843   2.569
64399SOL    HW294972   9.865   5.707   2.629
64400SOL     OW94973   0.483   5.770   0.137
64400SOL    HW194974   0.576   5.786   0.152
64400SOL    HW294975   0.437   5.833   0.192
64401SOL     OW94976  14.369   2.639   6.264
64401SOL    HW194977  14.445   2.669   6.314
64401SOL    HW294978  14.328   2.573   6.320
64402SOL     OW94979   9.006  13.879   4.006
64402SOL    HW194980   9.063  13.936   4.059
64402SOL    HW294981   8.920  13.886   4.047
64403SOL     OW94982   9.885  11.631   0.921
64403SOL    HW194983   9.887  11.677   1.005
64403SOL    HW294984   9.976  11.635   0.890
64404SOL     OW94985  14.737  10.175   1.422
64404SOL    HW194986  14.667  10.123   1.383
64404SOL    HW294987  14.793  10.111   1.466
64405SOL     OW94988  12.831   5.159   7.765
64405SOL    HW194989  12.868   5.077   7.732
64405SOL    HW294990  12.737   5.149   7.754
64406SOL     OW94991   7.458  13.626   0.318
64406SOL    HW194992   7.389  13.640   0.254
64406SOL    HW294993   7.523  13.693   0.298
64407SOL     OW94994   7.682  12.169   7.823
64407SOL    HW194995   7.751  12.162   7.757
64407SOL    HW294996   7.718  12.229   7.889
64408SOL     OW94997   0.142  13.125  13.067
64408SOL    HW194998   0.161  13.215  13.039
64408SOL    HW294999   0.225  13.079  13.061
64409SOL     OW95000   7.046   9.351   9.502
64409SOL    HW195001   7.066   9.258   9.491
64409SOL    HW295002   7.078   9.393   9.423
64410SOL     OW95003  10.340   4.297  14.150
64410SOL    HW195004  10.245   4.308  14.150
64410SOL    HW295005  10.372   4.366  14.092
64411SOL     OW95006  11.976   5.250   3.883
64411SOL    HW195007  11.889   5.217   3.908
64411SOL    HW295008  12.004   5.191   3.813
64412SOL     OW95009  11.988  10.632   3.947
64412SOL    HW195010  11.924  10.562   3.954
64412SOL    HW295011  12.053  10.613   4.015
64413SOL     OW95012   0.429   2.735  11.077
64413SOL    HW195013   0.391   2.754  11.163
64413SOL    HW295014   0.502   2.797  11.070
64414SOL     OW95015   4.753   3.542  14.374
64414SOL    HW195016   4.676   3.596  14.359
64414SOL    HW295017   4.756   3.484  14.298
64415SOL     OW95018   7.737  14.041  13.630
64415SOL    HW195019   7.750  13.951  13.660
64415SOL    HW295020   7.776  14.043  13.543
64416SOL     OW95021   5.027  11.623   0.434
64416SOL    HW195022   5.014  11.610   0.340
64416SOL    HW295023   5.077  11.547   0.462
64417SOL     OW95024   1.958  13.755   8.071
64417SOL    HW195025   1.896  13.823   8.044
64417SOL    HW295026   1.940  13.742   8.164
64418SOL     OW95027  11.882   9.476  12.329
64418SOL    HW195028  11.943   9.457  12.258
64418SOL    HW295029  11.937   9.490  12.405
64419SOL     OW95030   0.558  14.737  10.187
64419SOL    HW195031   0.472  14.699  10.171
64419SOL    HW295032   0.556  14.821  10.141
64420SOL     OW95033  12.514  14.838  13.374
64420SOL    HW195034  12.595   0.008  13.394
64420SOL    HW295035  12.447   0.028  13.370
64421SOL     OW95036  12.798   8.007   2.535
64421SOL    HW195037  12.778   8.098   2.553
64421SOL    HW295038  12.821   7.970   2.621
64422SOL     OW95039   0.840   6.599   9.429
64422SOL    HW195040   0.902   6.628   9.362
64422SOL    HW295041   0.756   6.592   9.382
64423SOL     OW95042   7.699   7.395   6.961
64423SOL    HW195043   7.752   7.413   6.883
64423SOL    HW295044   7.743   7.321   7.003
64424SOL     OW95045   9.973   1.619   1.309
64424SOL    HW195046  10.006   1.631   1.398
64424SOL    HW295047   9.878   1.622   1.319
64425SOL     OW95048   4.442   9.155   3.015
64425SOL    HW195049   4.528   9.173   2.975
64425SOL    HW295050   4.424   9.232   3.068
64426SOL     OW95051   4.053   4.050   8.362
64426SOL    HW195052   4.034   4.091   8.278
64426SOL    HW295053   3.997   3.972   8.364
64427SOL     OW95054   4.603   8.598   3.717
64427SOL    HW195055   4.551   8.652   3.657
64427SOL    HW295056   4.659   8.546   3.660
64428SOL     OW95057  11.126   5.626   7.866
64428SOL    HW195058  11.057   5.629   7.932
64428SOL    HW295059  11.173   5.545   7.885
64429SOL     OW95060   3.629   9.564   5.372
64429SOL    HW195061   3.650   9.623   5.300
64429SOL    HW295062   3.715   9.542   5.410
64430SOL     OW95063  12.592  13.109  11.575
64430SOL    HW195064  12.571  13.195  11.541
64430SOL    HW295065  12.671  13.122  11.628
64431SOL     OW95066   9.218   3.287  14.616
64431SOL    HW195067   9.135   3.332  14.600
64431SOL    HW295068   9.264   3.292  14.532
64432SOL     OW95069  13.215  11.181   6.594
64432SOL    HW195070  13.251  11.248   6.653
64432SOL    HW295071  13.177  11.231   6.522
64433SOL     OW95072   9.153   5.210   4.938
64433SOL    HW195073   9.100   5.132   4.928
64433SOL    HW295074   9.096   5.273   4.982
64434SOL     OW95075  12.672   5.717   0.006
64434SOL    HW195076  12.631   5.798   0.037
64434SOL    HW295077  12.762   5.722   0.039
64435SOL     OW95078   7.702  12.189  14.358
64435SOL    HW195079   7.716  12.096  14.339
64435SOL    HW295080   7.785  12.218  14.396
64436SOL     OW95081   1.974  14.730   1.368
64436SOL    HW195082   1.965  14.793   1.439
64436SOL    HW295083   1.887  14.724   1.330
64437SOL     OW95084   0.597   1.513   0.470
64437SOL    HW195085   0.620   1.603   0.493
64437SOL    HW295086   0.678   1.475   0.438
64438SOL     OW95087   6.572  14.122  12.565
64438SOL    HW195088   6.507  14.145  12.631
64438SOL    HW295089   6.521  14.096  12.489
64439SOL     OW95090   4.812   9.344   0.704
64439SOL    HW195091   4.736   9.383   0.661
64439SOL    HW295092   4.796   9.358   0.797
64440SOL     OW95093   8.928   2.320   3.170
64440SOL    HW195094   8.981   2.396   3.147
64440SOL    HW295095   8.856   2.355   3.223
64441SOL     OW95096   4.781   9.746   1.594
64441SOL    HW195097   4.693   9.777   1.572
64441SOL    HW295098   4.775   9.651   1.590
64442SOL     OW95099  14.081  10.540   8.244
64442SOL    HW195100  14.105  10.600   8.315
64442SOL    HW295101  14.045  10.463   8.290
64443SOL     OW95102   3.430   0.317   0.453
64443SOL    HW195103   3.498   0.304   0.386
64443SOL    HW295104   3.417   0.411   0.456
64444SOL     OW95105  14.339  14.298  10.874
64444SOL    HW195106  14.282  14.227  10.846
64444SOL    HW295107  14.283  14.354  10.928
64445SOL     OW95108   1.174   5.304   2.410
64445SOL    HW195109   1.107   5.238   2.422
64445SOL    HW295110   1.185   5.310   2.315
64446SOL     OW95111   8.468   0.779   0.093
64446SOL    HW195112   8.448   0.868   0.062
64446SOL    HW295113   8.473   0.787   0.188
64447SOL     OW95114   9.798   4.095   4.666
64447SOL    HW195115   9.834   4.125   4.749
64447SOL    HW295116   9.764   4.174   4.624
64448SOL     OW95117  10.969   0.037   4.774
64448SOL    HW195118  11.016   0.109   4.817
64448SOL    HW295119  10.889   0.026   4.825
64449SOL     OW95120   7.297   7.710   9.630
64449SOL    HW195121   7.263   7.776   9.570
64449SOL    HW295122   7.392   7.710   9.616
64450SOL     OW95123   6.573   2.983   4.077
64450SOL    HW195124   6.628   2.906   4.060
64450SOL    HW295125   6.555   3.018   3.989
64451SOL     OW95126   4.330  10.252   1.451
64451SOL    HW195127   4.344  10.340   1.487
64451SOL    HW295128   4.247  10.224   1.488
64452SOL     OW95129   8.678   5.850   3.435
64452SOL    HW195130   8.724   5.915   3.383
64452SOL    HW295131   8.587   5.856   3.406
64453SOL     OW95132   0.328  10.158   5.113
64453SOL    HW195133   0.367  10.238   5.149
64453SOL    HW295134   0.348  10.090   5.177
64454SOL     OW95135  13.240   6.531   4.513
64454SOL    HW195136  13.213   6.622   4.525
64454SOL    HW295137  13.266   6.526   4.421
64455SOL     OW95138   2.116  14.253   5.927
64455SOL    HW195139   2.100  14.186   5.861
64455SOL    HW295140   2.200  14.292   5.902
64456SOL     OW95141  10.407   4.433  12.284
64456SOL    HW195142  10.411   4.341  12.260
64456SOL    HW295143  10.422   4.480  12.202
64457SOL     OW95144   0.436  10.127   9.408
64457SOL    HW195145   0.395  10.048   9.373
64457SOL    HW295146   0.364  10.189   9.420
64458SOL     OW95147  10.664  11.970   6.213
64458SOL    HW195148  10.663  12.061   6.242
64458SOL    HW295149  10.688  11.975   6.120
64459SOL     OW95150   9.883   9.033   7.721
64459SOL    HW195151   9.849   9.094   7.656
64459SOL    HW295152   9.847   8.948   7.696
64460SOL     OW95153   5.446   1.943   0.138
64460SOL    HW195154   5.423   2.035   0.143
64460SOL    HW295155   5.517   1.931   0.202
64461SOL     OW95156  10.636   0.215   8.870
64461SOL    HW195157  10.727   0.231   8.845
64461SOL    HW295158  10.592   0.298   8.853
64462SOL     OW95159   3.165  11.562   0.281
64462SOL    HW195160   3.160  11.472   0.247
64462SOL    HW295161   3.075  11.594   0.276
64463SOL     OW95162   4.205   9.452   0.050
64463SOL    HW195163   4.277   9.437  14.867
64463SOL    HW295164   4.129   9.466  14.872
64464SOL     OW95165   8.149  11.194  10.040
64464SOL    HW195166   8.222  11.250  10.014
64464SOL    HW295167   8.094  11.188   9.961
64465SOL     OW95168   1.614  14.009   1.356
64465SOL    HW195169   1.576  14.084   1.311
64465SOL    HW295170   1.541  13.972   1.406
64466SOL     OW95171   7.054   8.118  11.966
64466SOL    HW195172   6.989   8.180  11.931
64466SOL    HW295173   7.138   8.163  11.955
64467SOL     OW95174  10.151  10.379  10.273
64467SOL    HW195175  10.240  10.395  10.240
64467SOL    HW295176  10.103  10.343  10.198
64468SOL     OW95177   1.736   3.076  12.587
64468SOL    HW195178   1.775   2.999  12.546
64468SOL    HW295179   1.694   3.123  12.515
64469SOL     OW95180   9.970   8.869  11.816
64469SOL    HW195181  10.042   8.872  11.753
64469SOL    HW295182   9.891   8.866  11.762
64470SOL     OW95183   9.471   8.224  14.311
64470SOL    HW195184   9.525   8.280  14.256
64470SOL    HW295185   9.487   8.135  14.278
64471SOL     OW95186  12.625  14.579   7.040
64471SOL    HW195187  12.548  14.635   7.039
64471SOL    HW295188  12.689  14.625   6.985
64472SOL     OW95189   3.271   4.489  14.396
64472SOL    HW195190   3.301   4.415  14.449
64472SOL    HW295191   3.181   4.505  14.425
64473SOL     OW95192   4.478   6.993   9.950
64473SOL    HW195193   4.455   7.021   9.861
64473SOL    HW295194   4.393   6.982   9.994
64474SOL     OW95195   6.130   0.467  12.405
64474SOL    HW195196   6.168   0.528  12.341
64474SOL    HW295197   6.181   0.387  12.395
64475SOL     OW95198   5.268   6.374  11.855
64475SOL    HW195199   5.197   6.429  11.822
64475SOL    HW295200   5.342   6.394  11.798
64476SOL     OW95201  10.868   1.838   3.225
64476SOL    HW195202  10.872   1.765   3.287
64476SOL    HW295203  10.841   1.912   3.279
64477SOL     OW95204   5.498  14.408   0.888
64477SOL    HW195205   5.478  14.343   0.955
64477SOL    HW295206   5.465  14.369   0.807
64478SOL     OW95207   9.231   8.697   5.229
64478SOL    HW195208   9.174   8.671   5.157
64478SOL    HW295209   9.188   8.662   5.308
64479SOL     OW95210   7.748   3.515   7.644
64479SOL    HW195211   7.834   3.481   7.670
64479SOL    HW295212   7.716   3.561   7.722
64480SOL     OW95213   0.387  12.681  14.151
64480SOL    HW195214   0.403  12.775  14.164
64480SOL    HW295215   0.454  12.639  14.204
64481SOL     OW95216   5.879   4.110   2.462
64481SOL    HW195217   5.885   4.111   2.558
64481SOL    HW295218   5.785   4.111   2.444
64482SOL     OW95219   9.199  13.557   9.658
64482SOL    HW195220   9.226  13.501   9.731
64482SOL    HW295221   9.267  13.544   9.592
64483SOL     OW95222   7.092   8.078  11.449
64483SOL    HW195223   7.091   8.065  11.544
64483SOL    HW295224   7.098   7.990  11.413
64484SOL     OW95225   9.948   5.015   5.657
64484SOL    HW195226   9.909   5.102   5.671
64484SOL    HW295227   9.912   4.962   5.728
64485SOL     OW95228   0.767   7.177   3.758
64485SOL    HW195229   0.717   7.219   3.828
64485SOL    HW295230   0.706   7.173   3.685
64486SOL     OW95231  10.539   4.981   4.086
64486SOL    HW195232  10.607   4.990   4.019
64486SOL    HW295233  10.463   5.026   4.051
64487SOL     OW95234   9.126   4.298   7.105
64487SOL    HW195235   9.209   4.296   7.153
64487SOL    HW295236   9.150   4.274   7.015
64488SOL     OW95237   2.468   8.867   8.885
64488SOL    HW195238   2.561   8.844   8.880
64488SOL    HW295239   2.454   8.930   8.814
64489SOL     OW95240   3.141  11.485   1.605
64489SOL    HW195241   3.121  11.408   1.658
64489SOL    HW295242   3.160  11.450   1.518
64490SOL     OW95243   2.904  11.299   9.070
64490SOL    HW195244   2.905  11.309   8.975
64490SOL    HW295245   2.987  11.336   9.100
64491SOL     OW95246  10.559   0.096   9.363
64491SOL    HW195247  10.561   0.068   9.271
64491SOL    HW295248  10.627   0.164   9.368
64492SOL     OW95249   5.684   7.159   0.043
64492SOL    HW195250   5.778   7.157   0.028
64492SOL    HW295251   5.674   7.211   0.123
64493SOL     OW95252   4.211   7.055   6.265
64493SOL    HW195253   4.166   7.104   6.196
64493SOL    HW295254   4.302   7.053   6.237
64494SOL     OW95255   7.319   1.865  13.661
64494SOL    HW195256   7.364   1.874  13.578
64494SOL    HW295257   7.241   1.813  13.641
64495SOL     OW95258   3.393   9.151   2.352
64495SOL    HW195259   3.369   9.108   2.434
64495SOL    HW295260   3.478   9.113   2.329
64496SOL     OW95261  14.279   8.571   5.545
64496SOL    HW195262  14.250   8.485   5.575
64496SOL    HW295263  14.203   8.608   5.500
64497SOL     OW95264   7.278   0.232   9.376
64497SOL    HW195265   7.305   0.228   9.284
64497SOL    HW295266   7.356   0.209   9.425
64498SOL     OW95267   2.756   6.169  14.329
64498SOL    HW195268   2.806   6.238  14.284
64498SOL    HW295269   2.814   6.138  14.398
64499SOL     OW95270   5.671   4.333   7.218
64499SOL    HW195271   5.640   4.410   7.169
64499SOL    HW295272   5.743   4.299   7.165
64500SOL     OW95273  12.016   0.441   3.823
64500SOL    HW195274  11.972   0.460   3.906
64500SOL    HW295275  11.985   0.509   3.763
64501SOL     OW95276   7.724   4.720   5.988
64501SOL    HW195277   7.736   4.790   6.052
64501SOL    HW295278   7.663   4.756   5.924
64502SOL     OW95279   1.450  12.743   4.903
64502SOL    HW195280   1.415  12.736   4.815
64502SOL    HW295281   1.396  12.811   4.945
64503SOL     OW95282   2.772  13.485   4.268
64503SOL    HW195283   2.777  13.557   4.205
64503SOL    HW295284   2.691  13.439   4.246
64504SOL     OW95285  14.759   5.782  13.123
64504SOL    HW195286  14.810   5.819  13.050
64504SOL    HW295287  14.804   5.700  13.145
64505SOL     OW95288  13.194   3.949  10.179
64505SOL    HW195289  13.195   4.029  10.233
64505SOL    HW295290  13.180   3.878  10.242
64506SOL     OW95291  12.276   3.964  14.658
64506SOL    HW195292  12.249   3.875  14.682
64506SOL    HW295293  12.283   4.010  14.741
64507SOL     OW95294  13.154  10.138   6.066
64507SOL    HW195295  13.077  10.085   6.048
64507SOL    HW295296  13.179  10.176   5.982
64508SOL     OW95297  14.118   3.773   1.782
64508SOL    HW195298  14.114   3.705   1.849
64508SOL    HW295299  14.064   3.740   1.710
64509SOL     OW95300   7.889   9.049  10.081
64509SOL    HW195301   7.829   9.071  10.009
64509SOL    HW295302   7.947   8.983  10.044
64510SOL     OW95303  14.394  12.505   4.372
64510SOL    HW195304  14.474  12.557   4.383
64510SOL    HW295305  14.365  12.487   4.461
64511SOL     OW95306   9.053   7.120  12.770
64511SOL    HW195307   9.090   7.032  12.766
64511SOL    HW295308   9.052   7.151  12.680
64512SOL     OW95309  12.943  13.660   4.114
64512SOL    HW195310  12.965  13.715   4.038
64512SOL    HW295311  12.867  13.703   4.153
64513SOL     OW95312  10.981   4.289   3.078
64513SOL    HW195313  11.030   4.340   3.013
64513SOL    HW295314  11.047   4.261   3.141
64514SOL     OW95315  14.696   6.633   8.969
64514SOL    HW195316  14.633   6.705   8.963
64514SOL    HW295317  14.744   6.650   9.050
64515SOL     OW95318  12.840   5.935   6.469
64515SOL    HW195319  12.805   6.017   6.433
64515SOL    HW295320  12.789   5.920   6.548
64516SOL     OW95321  12.978  14.622   3.116
64516SOL    HW195322  13.049  14.613   3.180
64516SOL    HW295323  12.947  14.711   3.128
64517SOL     OW95324  12.480   3.247  10.558
64517SOL    HW195325  12.552   3.187  10.578
64517SOL    HW295326  12.441   3.212  10.478
64518SOL     OW95327  12.721   1.077  13.162
64518SOL    HW195328  12.745   1.150  13.219
64518SOL    HW295329  12.631   1.097  13.134
64519SOL     OW95330   1.048   8.586  13.963
64519SOL    HW195331   0.966   8.605  14.007
64519SOL    HW295332   1.024   8.575  13.871
64520SOL     OW95333   1.079   7.577   4.351
64520SOL    HW195334   1.097   7.500   4.297
64520SOL    HW295335   1.059   7.541   4.438
64521SOL     OW95336   4.511   8.412   8.809
64521SOL    HW195337   4.572   8.338   8.804
64521SOL    HW295338   4.426   8.374   8.787
64522SOL     OW95339   5.744   4.415   5.995
64522SOL    HW195340   5.697   4.482   5.946
64522SOL    HW295341   5.835   4.426   5.970
64523SOL     OW95342  11.345  14.234   8.008
64523SOL    HW195343  11.390  14.311   7.974
64523SOL    HW295344  11.397  14.206   8.083
64524SOL     OW95345   7.120   5.670  14.210
64524SOL    HW195346   7.081   5.584  14.197
64524SOL    HW295347   7.210   5.661  14.177
64525SOL     OW95348   6.330  10.258   2.662
64525SOL    HW195349   6.279  10.246   2.742
64525SOL    HW295350   6.334  10.171   2.623
64526SOL     OW95351   2.258   5.730   9.309
64526SOL    HW195352   2.343   5.689   9.328
64526SOL    HW295353   2.268   5.768   9.222
64527SOL     OW95354  10.886   3.260  13.844
64527SOL    HW195355  10.827   3.243  13.917
64527SOL    HW295356  10.971   3.275  13.885
64528SOL     OW95357   3.399   3.207   8.999
64528SOL    HW195358   3.365   3.177   9.083
64528SOL    HW295359   3.479   3.157   8.986
64529SOL     OW95360   6.064   7.085  10.241
64529SOL    HW195361   6.148   7.129  10.226
64529SOL    HW295362   6.053   7.028  10.165
64530SOL     OW95363   5.562   8.135   4.087
64530SOL    HW195364   5.523   8.209   4.039
64530SOL    HW295365   5.552   8.159   4.180
64531SOL     OW95366  10.084  12.710   1.791
64531SOL    HW195367  10.176  12.695   1.813
64531SOL    HW295368  10.086  12.783   1.730
64532SOL     OW95369  11.524   8.735   7.487
64532SOL    HW195370  11.555   8.667   7.548
64532SOL    HW295371  11.499   8.686   7.408
64533SOL     OW95372   5.695   9.273  13.774
64533SOL    HW195373   5.763   9.206  13.768
64533SOL    HW295374   5.733   9.341  13.830
64534SOL     OW95375   1.616  12.167  11.477
64534SOL    HW195376   1.554  12.095  11.465
64534SOL    HW295377   1.633  12.199  11.388
64535SOL     OW95378  10.046  12.023  10.648
64535SOL    HW195379  10.114  11.967  10.611
64535SOL    HW295380   9.980  11.962  10.681
64536SOL     OW95381   0.082   8.987   3.939
64536SOL    HW195382   0.052   8.958   4.025
64536SOL    HW295383   0.056   9.079   3.935
64537SOL     OW95384  13.454  13.389  13.024
64537SOL    HW195385  13.397  13.435  13.085
64537SOL    HW295386  13.533  13.443  13.019
64538SOL     OW95387   1.993   0.174  11.288
64538SOL    HW195388   1.922   0.116  11.317
64538SOL    HW295389   1.960   0.262  11.304
64539SOL     OW95390  11.680   0.714  12.379
64539SOL    HW195391  11.616   0.643  12.377
64539SOL    HW295392  11.677   0.751  12.291
64540SOL     OW95393  14.580   2.309   0.391
64540SOL    HW195394  14.637   2.238   0.420
64540SOL    HW295395  14.493   2.285   0.423
64541SOL     OW95396   9.633   9.637   4.177
64541SOL    HW195397   9.654   9.669   4.265
64541SOL    HW295398   9.560   9.691   4.147
64542SOL     OW95399   7.844  12.457  13.416
64542SOL    HW195400   7.771  12.412  13.458
64542SOL    HW295401   7.887  12.504  13.487
64543SOL     OW95402   4.383   3.596   3.501
64543SOL    HW195403   4.376   3.691   3.501
64543SOL    HW295404   4.373   3.570   3.410
64544SOL     OW95405   2.337  14.004   5.641
64544SOL    HW195406   2.407  13.957   5.686
64544SOL    HW295407   2.370  14.094   5.633
64545SOL     OW95408   5.291   5.024  10.937
64545SOL    HW195409   5.219   4.962  10.928
64545SOL    HW295410   5.266   5.097  10.881
64546SOL     OW95411   4.983   3.163   7.042
64546SOL    HW195412   4.942   3.126   7.120
64546SOL    HW295413   4.991   3.256   7.060
64547SOL     OW95414   7.914   3.643   5.132
64547SOL    HW195415   7.948   3.727   5.164
64547SOL    HW295416   7.854   3.666   5.061
64548SOL     OW95417  11.298   9.540   6.626
64548SOL    HW195418  11.367   9.575   6.569
64548SOL    HW295419  11.295   9.446   6.604
64549SOL     OW95420   8.512   5.179  13.140
64549SOL    HW195421   8.586   5.176  13.079
64549SOL    HW295422   8.436   5.155  13.087
64550SOL     OW95423   1.939  10.842   1.999
64550SOL    HW195424   1.942  10.771   2.063
64550SOL    HW295425   2.017  10.830   1.946
64551SOL     OW95426   7.543   1.360   1.204
64551SOL    HW195427   7.524   1.361   1.298
64551SOL    HW295428   7.477   1.301   1.167
64552SOL     OW95429   7.808   0.452   5.548
64552SOL    HW195430   7.747   0.502   5.601
64552SOL    HW295431   7.833   0.378   5.604
64553SOL     OW95432   9.670   2.432   0.803
64553SOL    HW195433   9.604   2.380   0.756
64553SOL    HW295434   9.628   2.454   0.886
64554SOL     OW95435   4.183   1.202   5.610
64554SOL    HW195436   4.226   1.134   5.558
64554SOL    HW295437   4.250   1.230   5.673
64555SOL     OW95438   9.496   9.927  14.758
64555SOL    HW195439   9.588   9.941  14.781
64555SOL    HW295440   9.465   9.861  14.820
64556SOL     OW95441  12.972  13.522  13.998
64556SOL    HW195442  12.985  13.538  13.905
64556SOL    HW295443  13.059  13.500  14.031
64557SOL     OW95444  13.053   2.213   4.525
64557SOL    HW195445  13.087   2.208   4.614
64557SOL    HW295446  13.034   2.306   4.512
64558SOL     OW95447  10.902   0.653  10.618
64558SOL    HW195448  10.966   0.710  10.661
64558SOL    HW295449  10.951   0.573  10.599
64559SOL     OW95450  14.425  14.210   9.037
64559SOL    HW195451  14.353  14.268   9.012
64559SOL    HW295452  14.495  14.232   8.974
64560SOL     OW95453  12.661  14.733   1.914
64560SOL    HW195454  12.693  14.797   1.978
64560SOL    HW295455  12.635  14.786   1.839
64561SOL     OW95456   6.415  10.487   2.238
64561SOL    HW195457   6.363  10.408   2.250
64561SOL    HW295458   6.502  10.463   2.268
64562SOL     OW95459   7.238  10.425   0.789
64562SOL    HW195460   7.238  10.373   0.709
64562SOL    HW295461   7.159  10.480   0.782
64563SOL     OW95462   4.121  13.632  11.476
64563SOL    HW195463   4.158  13.584  11.550
64563SOL    HW295464   4.061  13.570  11.435
64564SOL     OW95465   1.648   8.659  14.339
64564SOL    HW195466   1.726   8.658  14.283
64564SOL    HW295467   1.669   8.721  14.409
64565SOL     OW95468   5.970   4.715   1.247
64565SOL    HW195469   5.897   4.762   1.209
64565SOL    HW295470   5.988   4.760   1.330
64566SOL     OW95471   7.721  12.336   7.434
64566SOL    HW195472   7.788  12.294   7.487
64566SOL    HW295473   7.768  12.402   7.383
64567SOL     OW95474   7.752   1.617   9.896
64567SOL    HW195475   7.785   1.678   9.962
64567SOL    HW295476   7.765   1.530   9.935
64568SOL     OW95477  11.743  13.470   6.235
64568SOL    HW195478  11.717  13.561   6.225
64568SOL    HW295479  11.684  13.422   6.177
64569SOL     OW95480   9.701   9.699  11.533
64569SOL    HW195481   9.769   9.753  11.574
64569SOL    HW295482   9.748   9.621  11.503
64570SOL     OW95483  11.655  10.702   7.417
64570SOL    HW195484  11.646  10.610   7.392
64570SOL    HW295485  11.744  10.708   7.453
64571SOL     OW95486   2.065   7.780   1.975
64571SOL    HW195487   2.094   7.753   2.063
64571SOL    HW295488   1.982   7.734   1.962
64572SOL     OW95489   7.231   5.592  11.688
64572SOL    HW195490   7.239   5.536  11.765
64572SOL    HW295491   7.308   5.572  11.635
64573SOL     OW95492  14.469  14.673   4.518
64573SOL    HW195493  14.530  14.747   4.523
64573SOL    HW295494  14.412  14.684   4.594
64574SOL     OW95495   2.707   3.772  14.630
64574SOL    HW195496   2.758   3.849  14.604
64574SOL    HW295497   2.639   3.765  14.563
64575SOL     OW95498   8.476  11.467   8.979
64575SOL    HW195499   8.528  11.513   8.914
64575SOL    HW295500   8.438  11.536   9.034
64576SOL     OW95501   7.842   0.714   0.357
64576SOL    HW195502   7.855   0.698   0.263
64576SOL    HW295503   7.771   0.654   0.381
64577SOL     OW95504   7.282   2.719  10.954
64577SOL    HW195505   7.241   2.659  11.016
64577SOL    HW295506   7.342   2.665  10.903
64578SOL     OW95507   7.596   7.838   7.115
64578SOL    HW195508   7.592   7.928   7.080
64578SOL    HW295509   7.505   7.809   7.117
64579SOL     OW95510   9.341  13.323   3.497
64579SOL    HW195511   9.373  13.329   3.587
64579SOL    HW295512   9.249  13.347   3.503
64580SOL     OW95513  11.420  13.581   4.994
64580SOL    HW195514  11.333  13.541   4.985
64580SOL    HW295515  11.416  13.658   4.938
64581SOL     OW95516   6.058   4.529  10.116
64581SOL    HW195517   6.143   4.568  10.096
64581SOL    HW295518   5.999   4.560  10.048
64582SOL     OW95519  11.075   8.074   6.176
64582SOL    HW195520  10.986   8.053   6.149
64582SOL    HW295521  11.104   7.998   6.226
64583SOL     OW95522   7.029   6.367   8.991
64583SOL    HW195523   7.070   6.373   8.905
64583SOL    HW295524   7.083   6.424   9.046
64584SOL     OW95525   5.556  12.828   9.010
64584SOL    HW195526   5.646  12.806   8.987
64584SOL    HW295527   5.565  12.899   9.075
64585SOL     OW95528   7.741  10.576   9.773
64585SOL    HW195529   7.742  10.584   9.678
64585SOL    HW295530   7.649  10.563   9.795
64586SOL     OW95531   4.858   6.520  13.396
64586SOL    HW195532   4.896   6.447  13.446
64586SOL    HW295533   4.929   6.582  13.386
64587SOL     OW95534   9.440   6.041  11.981
64587SOL    HW195535   9.468   6.050  12.072
64587SOL    HW295536   9.501   6.095  11.931
64588SOL     OW95537  10.997   5.824  11.371
64588SOL    HW195538  10.947   5.904  11.387
64588SOL    HW295539  11.013   5.823  11.277
64589SOL     OW95540   4.888   6.816   5.305
64589SOL    HW195541   4.911   6.726   5.328
64589SOL    HW295542   4.884   6.816   5.209
64590SOL     OW95543  12.325   5.832   3.697
64590SOL    HW195544  12.333   5.899   3.765
64590SOL    HW295545  12.238   5.844   3.660
64591SOL     OW95546   6.334  13.324  12.870
64591SOL    HW195547   6.276  13.328  12.945
64591SOL    HW295548   6.422  13.338  12.906
64592SOL     OW95549  13.519   0.031   0.520
64592SOL    HW195550  13.583   0.101   0.515
64592SOL    HW295551  13.434   0.075   0.512
64593SOL     OW95552   1.203   1.630   2.542
64593SOL    HW195553   1.123   1.678   2.526
64593SOL    HW295554   1.256   1.688   2.597
64594SOL     OW95555   2.166   2.034  13.146
64594SOL    HW195556   2.253   2.071  13.165
64594SOL    HW295557   2.169   1.945  13.181
64595SOL     OW95558   9.695  13.168  12.182
64595SOL    HW195559   9.760  13.178  12.252
64595SOL    HW295560   9.729  13.097  12.128
64596SOL     OW95561   9.785   5.314   8.782
64596SOL    HW195562   9.771   5.409   8.773
64596SOL    HW295563   9.700   5.276   8.761
64597SOL     OW95564  13.227   5.665  14.816
64597SOL    HW195565  13.148   5.614  14.795
64597SOL    HW295566  13.259   5.627   0.020
64598SOL     OW95567   8.280  13.430  13.372
64598SOL    HW195568   8.354  13.441  13.313
64598SOL    HW295569   8.215  13.495  13.343
64599SOL     OW95570   5.589  10.705   4.092
64599SOL    HW195571   5.607  10.611   4.101
64599SOL    HW295572   5.633  10.729   4.010
64600SOL     OW95573  11.692   6.494   2.995
64600SOL    HW195574  11.618   6.555   2.989
64600SOL    HW295575  11.710   6.470   2.904
64601SOL     OW95576  11.405  10.053  13.053
64601SOL    HW195577  11.426   9.992  12.982
64601SOL    HW295578  11.481  10.112  13.057
64602SOL     OW95579   7.854   0.033  10.979
64602SOL    HW195580   7.898   0.118  10.986
64602SOL    HW295581   7.923  14.850  10.952
64603SOL     OW95582   2.084   0.818   6.938
64603SOL    HW195583   2.045   0.874   7.006
64603SOL    HW295584   2.170   0.856   6.923
64604SOL     OW95585   3.658   5.805   8.664
64604SOL    HW195586   3.675   5.712   8.676
64604SOL    HW295587   3.641   5.815   8.570
64605SOL     OW95588  11.447   9.811   9.891
64605SOL    HW195589  11.380   9.805   9.823
64605SOL    HW295590  11.425   9.742   9.953
64606SOL     OW95591  14.112   5.833  12.322
64606SOL    HW195592  14.106   5.740  12.345
64606SOL    HW295593  14.022   5.864  12.322
64607SOL     OW95594   3.713   9.389  12.344
64607SOL    HW195595   3.757   9.466  12.308
64607SOL    HW295596   3.696   9.412  12.436
64608SOL     OW95597   3.683  13.584   2.561
64608SOL    HW195598   3.645  13.672   2.557
64608SOL    HW295599   3.768  13.597   2.604
64609SOL     OW95600   4.813  13.686  11.948
64609SOL    HW195601   4.803  13.689  12.043
64609SOL    HW295602   4.813  13.778  11.921
64610SOL     OW95603   3.912  12.243   1.721
64610SOL    HW195604   3.996  12.256   1.765
64610SOL    HW295605   3.911  12.308   1.651
64611SOL     OW95606   9.920   3.338   3.595
64611SOL    HW195607   9.927   3.361   3.502
64611SOL    HW295608   9.921   3.242   3.596
64612SOL     OW95609   6.641  13.548  10.572
64612SOL    HW195610   6.572  13.608  10.544
64612SOL    HW295611   6.709  13.558  10.506
64613SOL     OW95612   2.022   2.645   9.783
64613SOL    HW195613   1.944   2.618   9.735
64613SOL    HW295614   2.094   2.605   9.734
64614SOL     OW95615   4.201  14.383   8.504
64614SOL    HW195616   4.141  14.318   8.542
64614SOL    HW295617   4.188  14.375   8.410
64615SOL     OW95618   1.768   0.864   0.364
64615SOL    HW195619   1.765   0.891   0.455
64615SOL    HW295620   1.847   0.905   0.329
64616SOL     OW95621  12.198   7.476   5.878
64616SOL    HW195622  12.128   7.477   5.813
64616SOL    HW295623  12.154   7.453   5.960
64617SOL     OW95624   1.996  11.840  13.927
64617SOL    HW195625   2.040  11.807  14.006
64617SOL    HW295626   2.015  11.774  13.860
64618SOL     OW95627   9.780  13.926   6.320
64618SOL    HW195628   9.832  13.878   6.383
64618SOL    HW295629   9.689  13.900   6.338
64619SOL     OW95630   2.306  13.801   5.136
64619SOL    HW195631   2.344  13.799   5.048
64619SOL    HW295632   2.243  13.729   5.136
64620SOL     OW95633   6.448   0.968   8.238
64620SOL    HW195634   6.476   0.882   8.207
64620SOL    HW295635   6.426   0.954   8.330
64621SOL     OW95636   0.696   4.574   3.660
64621SOL    HW195637   0.738   4.550   3.743
64621SOL    HW295638   0.761   4.629   3.615
64622SOL     OW95639   7.916   2.466   1.363
64622SOL    HW195640   7.893   2.558   1.347
64622SOL    HW295641   7.954   2.436   1.281
64623SOL     OW95642  12.315   1.346  12.020
64623SOL    HW195643  12.350   1.259  12.039
64623SOL    HW295644  12.228   1.329  11.983
64624SOL     OW95645   5.974   4.858   6.200
64624SOL    HW195646   5.889   4.815   6.214
64624SOL    HW295647   5.985   4.915   6.275
64625SOL     OW95648   0.943   0.247   6.054
64625SOL    HW195649   1.036   0.233   6.035
64625SOL    HW295650   0.910   0.160   6.078
64626SOL     OW95651   0.876   4.524   6.805
64626SOL    HW195652   0.920   4.461   6.862
64626SOL    HW295653   0.943   4.590   6.787
64627SOL     OW95654   0.727   5.332   8.630
64627SOL    HW195655   0.703   5.329   8.537
64627SOL    HW295656   0.643   5.338   8.676
64628SOL     OW95657   6.021   8.048   4.649
64628SOL    HW195658   6.093   7.986   4.632
64628SOL    HW295659   6.050   8.129   4.607
64629SOL     OW95660  13.459  11.425   7.624
64629SOL    HW195661  13.469  11.365   7.698
64629SOL    HW295662  13.464  11.368   7.547
64630SOL     OW95663  13.735  10.927   0.924
64630SOL    HW195664  13.692  10.852   0.964
64630SOL    HW295665  13.696  11.003   0.968
64631SOL     OW95666   6.284   8.785   2.383
64631SOL    HW195667   6.190   8.773   2.396
64631SOL    HW295668   6.319   8.800   2.471
64632SOL     OW95669  14.215   6.369  14.164
64632SOL    HW195670  14.303   6.405  14.158
64632SOL    HW295671  14.195   6.340  14.075
64633SOL     OW95672   0.152  12.756   5.434
64633SOL    HW195673   0.179  12.665   5.446
64633SOL    HW295674   0.100  12.755   5.354
64634SOL     OW95675   5.542  11.081   4.451
64634SOL    HW195676   5.506  11.032   4.377
64634SOL    HW295677   5.472  11.140   4.477
64635SOL     OW95678  11.147   8.771  10.013
64635SOL    HW195679  11.174   8.742   9.926
64635SOL    HW295680  11.217   8.830  10.042
64636SOL     OW95681   7.328   6.036   8.560
64636SOL    HW195682   7.405   6.079   8.597
64636SOL    HW295683   7.290   5.988   8.634
64637SOL     OW95684   5.548   0.560  13.630
64637SOL    HW195685   5.530   0.475  13.670
64637SOL    HW295686   5.506   0.555  13.544
64638SOL     OW95687   5.500  14.098  13.188
64638SOL    HW195688   5.527  14.032  13.253
64638SOL    HW295689   5.544  14.071  13.107
64639SOL     OW95690   5.919  13.468   8.941
64639SOL    HW195691   5.857  13.400   8.919
64639SOL    HW295692   5.866  13.547   8.951
64640SOL     OW95693  11.745  10.169  12.086
64640SOL    HW195694  11.770  10.167  11.994
64640SOL    HW295695  11.721  10.260  12.103
64641SOL     OW95696  10.689  11.282  14.027
64641SOL    HW195697  10.698  11.190  13.999
64641SOL    HW295698  10.694  11.278  14.122
64642SOL     OW95699   5.605   2.242   0.163
64642SOL    HW195700   5.613   2.300   0.239
64642SOL    HW295701   5.512   2.246   0.140
64643SOL     OW95702   5.309   4.529   5.246
64643SOL    HW195703   5.275   4.617   5.226
64643SOL    HW295704   5.275   4.474   5.177
64644SOL     OW95705   8.034  11.160   0.654
64644SOL    HW195706   7.952  11.130   0.693
64644SOL    HW295707   8.009  11.235   0.600
64645SOL     OW95708   3.791  11.659  14.605
64645SOL    HW195709   3.748  11.743  14.617
64645SOL    HW295710   3.885  11.680  14.605
64646SOL     OW95711   8.229   4.805  14.328
64646SOL    HW195712   8.233   4.710  14.336
64646SOL    HW295713   8.156   4.821  14.268
64647SOL     OW95714   3.322   7.227  11.574
64647SOL    HW195715   3.230   7.247  11.586
64647SOL    HW295716   3.324   7.170  11.497
64648SOL     OW95717  10.020   6.221  11.109
64648SOL    HW195718   9.971   6.171  11.044
64648SOL    HW295719   9.985   6.193  11.193
64649SOL     OW95720  11.707  10.565   6.513
64649SOL    HW195721  11.722  10.472   6.525
64649SOL    HW295722  11.631  10.585   6.568
64650SOL     OW95723  14.534   4.716   3.318
64650SOL    HW195724  14.608   4.685   3.267
64650SOL    HW295725  14.532   4.660   3.395
64651SOL     OW95726   0.235   5.199  10.419
64651SOL    HW195727   0.260   5.189  10.328
64651SOL    HW295728   0.254   5.290  10.441
64652SOL     OW95729   6.704   1.596   5.992
64652SOL    HW195730   6.731   1.681   6.027
64652SOL    HW295731   6.779   1.566   5.941
64653SOL     OW95732   0.681   6.712   5.076
64653SOL    HW195733   0.586   6.714   5.069
64653SOL    HW295734   0.699   6.648   5.145
64654SOL     OW95735   4.808  14.553  13.398
64654SOL    HW195736   4.756  14.547  13.478
64654SOL    HW295737   4.754  14.510  13.332
64655SOL     OW95738   8.977   0.197   7.562
64655SOL    HW195739   9.021   0.135   7.504
64655SOL    HW295740   9.045   0.227   7.622
64656SOL     OW95741   7.443  12.172   8.622
64656SOL    HW195742   7.370  12.172   8.683
64656SOL    HW295743   7.496  12.248   8.648
64657SOL     OW95744  13.444   3.520   1.545
64657SOL    HW195745  13.437   3.589   1.479
64657SOL    HW295746  13.534   3.489   1.538
64658SOL     OW95747   0.846   2.272  13.054
64658SOL    HW195748   0.830   2.363  13.031
64658SOL    HW295749   0.846   2.225  12.970
64659SOL     OW95750   6.951  12.076   0.092
64659SOL    HW195751   6.983  12.015   0.026
64659SOL    HW295752   6.855  12.072   0.084
64660SOL     OW95753  10.966  12.567   2.090
64660SOL    HW195754  11.055  12.572   2.055
64660SOL    HW295755  10.966  12.485   2.141
64661SOL     OW95756   5.530   8.706   6.624
64661SOL    HW195757   5.546   8.612   6.625
64661SOL    HW295758   5.556   8.734   6.536
64662SOL     OW95759   3.286  11.140  12.181
64662SOL    HW195760   3.260  11.154  12.090
64662SOL    HW295761   3.239  11.061  12.207
64663SOL     OW95762  14.539  14.210  14.004
64663SOL    HW195763  14.549  14.119  13.977
64663SOL    HW295764  14.508  14.256  13.925
64664SOL     OW95765   6.638  12.405   5.813
64664SOL    HW195766   6.683  12.472   5.761
64664SOL    HW295767   6.628  12.444   5.900
64665SOL     OW95768   7.455   4.123   6.558
64665SOL    HW195769   7.395   4.176   6.506
64665SOL    HW295770   7.510   4.186   6.603
64666SOL     OW95771   3.756   3.372   6.231
64666SOL    HW195772   3.683   3.430   6.247
64666SOL    HW295773   3.736   3.293   6.280
64667SOL     OW95774   3.967   6.253   3.381
64667SOL    HW195775   3.936   6.342   3.400
64667SOL    HW295776   4.059   6.265   3.358
64668SOL     OW95777   9.916   0.679  11.119
64668SOL    HW195778   9.891   0.596  11.160
64668SOL    HW295779   9.860   0.744  11.161
64669SOL     OW95780  14.679  12.923  12.815
64669SOL    HW195781  14.702  13.007  12.775
64669SOL    HW295782  14.696  12.935  12.908
64670SOL     OW95783   8.341   3.145   9.762
64670SOL    HW195784   8.283   3.220   9.756
64670SOL    HW295785   8.406   3.160   9.693
64671SOL     OW95786   3.781   3.958  10.904
64671SOL    HW195787   3.699   4.004  10.922
64671SOL    HW295788   3.848   4.011  10.948
64672SOL     OW95789   9.931   7.752  11.246
64672SOL    HW195790   9.841   7.730  11.224
64672SOL    HW295791   9.950   7.830  11.194
64673SOL     OW95792   4.894   2.285   7.082
64673SOL    HW195793   4.987   2.299   7.062
64673SOL    HW295794   4.892   2.271   7.176
64674SOL     OW95795   5.835   4.633  13.785
64674SOL    HW195796   5.776   4.703  13.755
64674SOL    HW295797   5.866   4.663  13.870
64675SOL     OW95798   0.402  10.425   5.139
64675SOL    HW195799   0.483  10.409   5.186
64675SOL    HW295800   0.429  10.449   5.051
64676SOL     OW95801   7.778   8.232  13.847
64676SOL    HW195802   7.829   8.257  13.770
64676SOL    HW295803   7.701   8.288  13.845
64677SOL     OW95804  14.474   0.353   0.148
64677SOL    HW195805  14.492   0.434   0.195
64677SOL    HW295806  14.555   0.335   0.100
64678SOL     OW95807   3.372  10.900   5.912
64678SOL    HW195808   3.421  10.904   5.830
64678SOL    HW295809   3.394  10.815   5.949
64679SOL     OW95810   2.079   0.198   2.103
64679SOL    HW195811   2.071   0.264   2.173
64679SOL    HW295812   2.073   0.114   2.148
64680SOL     OW95813  13.657  10.189  13.907
64680SOL    HW195814  13.716  10.139  13.851
64680SOL    HW295815  13.672  10.280  13.882
64681SOL     OW95816   3.083  11.052   0.029
64681SOL    HW195817   3.010  11.032   0.087
64681SOL    HW295818   3.043  11.075  14.823
64682SOL     OW95819   1.615   6.508   2.022
64682SOL    HW195820   1.580   6.562   1.951
64682SOL    HW295821   1.626   6.568   2.096
64683SOL     OW95822   1.484   1.232   4.934
64683SOL    HW195823   1.544   1.297   4.970
64683SOL    HW295824   1.540   1.172   4.885
64684SOL     OW95825   5.387  13.326   1.057
64684SOL    HW195826   5.432  13.408   1.034
64684SOL    HW295827   5.385  13.326   1.153
64685SOL     OW95828   4.616   6.029   3.548
64685SOL    HW195829   4.553   6.101   3.550
64685SOL    HW295830   4.665   6.037   3.630
64686SOL     OW95831   1.258   8.780   9.201
64686SOL    HW195832   1.323   8.763   9.134
64686SOL    HW295833   1.206   8.700   9.206
64687SOL     OW95834   3.376  11.383  11.994
64687SOL    HW195835   3.308  11.389  12.062
64687SOL    HW295836   3.382  11.471  11.958
64688SOL     OW95837  14.275  12.553  10.804
64688SOL    HW195838  14.189  12.519  10.825
64688SOL    HW295839  14.262  12.647  10.792
64689SOL     OW95840  12.039   4.998  13.786
64689SOL    HW195841  11.987   5.020  13.864
64689SOL    HW295842  12.089   4.921  13.813
64690SOL     OW95843   6.151   0.752   9.796
64690SOL    HW195844   6.156   0.847   9.806
64690SOL    HW295845   6.194   0.734   9.713
64691SOL     OW95846   2.808   3.725   6.895
64691SOL    HW195847   2.764   3.654   6.849
64691SOL    HW295848   2.866   3.764   6.830
64692SOL     OW95849  13.112  10.575  14.004
64692SOL    HW195850  13.089  10.641  14.070
64692SOL    HW295851  13.032  10.524  13.992
64693SOL     OW95852  12.819  14.550   0.061
64693SOL    HW195853  12.733  14.507   0.062
64693SOL    HW295854  12.813  14.617   0.128
64694SOL     OW95855   7.993   3.196   1.689
64694SOL    HW195856   8.043   3.162   1.615
64694SOL    HW295857   8.050   3.184   1.764
64695SOL     OW95858   8.372  13.369   2.491
64695SOL    HW195859   8.310  13.417   2.436
64695SOL    HW295860   8.419  13.312   2.430
64696SOL     OW95861   7.054  12.775  12.172
64696SOL    HW195862   7.103  12.854  12.196
64696SOL    HW295863   7.122  12.711  12.150
64697SOL     OW95864  14.479  11.505   8.685
64697SOL    HW195865  14.542  11.540   8.747
64697SOL    HW295866  14.507  11.415   8.670
64698SOL     OW95867   9.247  11.219   7.976
64698SOL    HW195868   9.159  11.185   7.993
64698SOL    HW295869   9.284  11.231   8.064
64699SOL     OW95870   9.327   1.603   2.099
64699SOL    HW195871   9.282   1.642   2.174
64699SOL    HW295872   9.261   1.547   2.057
64700SOL     OW95873  11.739   2.427   6.201
64700SOL    HW195874  11.733   2.523   6.198
64700SOL    HW295875  11.686   2.398   6.127
64701SOL     OW95876   2.598   2.502   7.222
64701SOL    HW195877   2.662   2.562   7.261
64701SOL    HW295878   2.524   2.504   7.281
64702SOL     OW95879   7.696   4.219  11.699
64702SOL    HW195880   7.662   4.291  11.645
64702SOL    HW295881   7.644   4.143  11.672
64703SOL     OW95882  10.337  10.423   6.722
64703SOL    HW195883  10.431  10.440   6.730
64703SOL    HW295884  10.326  10.333   6.750
64704SOL     OW95885  13.294   3.565  12.995
64704SOL    HW195886  13.235   3.494  12.970
64704SOL    HW295887  13.249   3.611  13.065
64705SOL     OW95888   1.492   9.027   0.036
64705SOL    HW195889   1.403   9.020   0.001
64705SOL    HW295890   1.529   9.104  14.871
64706SOL     OW95891   1.290  14.115   6.776
64706SOL    HW195892   1.269  14.165   6.697
64706SOL    HW295893   1.329  14.034   6.744
64707SOL     OW95894   8.396   4.089  14.198
64707SOL    HW195895   8.486   4.074  14.227
64707SOL    HW295896   8.348   4.105  14.279
64708SOL     OW95897   9.830  12.545   6.383
64708SOL    HW195898   9.906  12.488   6.392
64708SOL    HW295899   9.824  12.591   6.466
64709SOL     OW95900   9.239   9.070  10.107
64709SOL    HW195901   9.157   9.027  10.130
64709SOL    HW295902   9.278   9.094  10.191
64710SOL     OW95903  10.955   0.665  14.274
64710SOL    HW195904  10.866   0.630  14.278
64710SOL    HW295905  10.958   0.731  14.343
64711SOL     OW95906   8.282  11.849  11.560
64711SOL    HW195907   8.240  11.861  11.475
64711SOL    HW295908   8.263  11.758  11.583
64712SOL     OW95909  13.361   7.533  13.564
64712SOL    HW195910  13.412   7.608  13.534
64712SOL    HW295911  13.420   7.485  13.622
64713SOL     OW95912  13.238   0.429   3.763
64713SOL    HW195913  13.159   0.431   3.816
64713SOL    HW295914  13.297   0.369   3.809
64714SOL     OW95915   8.233  14.617  14.635
64714SOL    HW195916   8.228  14.522  14.622
64714SOL    HW295917   8.149  14.640  14.675
64715SOL     OW95918   8.624   6.594  12.144
64715SOL    HW195919   8.711   6.554  12.137
64715SOL    HW295920   8.640   6.688  12.136
64716SOL     OW95921  10.534   6.124   8.570
64716SOL    HW195922  10.602   6.064   8.601
64716SOL    HW295923  10.452   6.080   8.592
64717SOL     OW95924   2.591   6.563   6.265
64717SOL    HW195925   2.591   6.497   6.334
64717SOL    HW295926   2.683   6.577   6.245
64718SOL     OW95927  10.921   1.180   7.763
64718SOL    HW195928  10.887   1.269   7.770
64718SOL    HW295929  11.002   1.181   7.814
64719SOL     OW95930  13.653  11.841   8.421
64719SOL    HW195931  13.634  11.927   8.459
64719SOL    HW295932  13.741  11.850   8.383
64720SOL     OW95933   7.467  12.089   3.789
64720SOL    HW195934   7.410  12.123   3.720
64720SOL    HW295935   7.488  12.000   3.760
64721SOL     OW95936   4.195  12.860   8.571
64721SOL    HW195937   4.275  12.819   8.604
64721SOL    HW295938   4.213  12.876   8.478
64722SOL     OW95939   2.851  12.885  12.749
64722SOL    HW195940   2.882  12.865  12.661
64722SOL    HW295941   2.763  12.846  12.752
64723SOL     OW95942   1.716   6.498  11.009
64723SOL    HW195943   1.794   6.552  10.998
64723SOL    HW295944   1.680   6.490  10.920
64724SOL     OW95945  14.310  10.486   3.005
64724SOL    HW195946  14.376  10.555   3.005
64724SOL    HW295947  14.252  10.509   2.932
64725SOL     OW95948  10.677   1.642  13.732
64725SOL    HW195949  10.764   1.602  13.740
64725SOL    HW295950  10.669   1.698  13.808
64726SOL     OW95951   8.139   1.424  13.918
64726SOL    HW195952   8.182   1.366  13.855
64726SOL    HW295953   8.071   1.369  13.957
64727SOL     OW95954  11.785  14.768  10.244
64727SOL    HW195955  11.719  14.809  10.188
64727SOL    HW295956  11.839  14.716  10.185
64728SOL     OW95957   2.473   5.389   1.019
64728SOL    HW195958   2.440   5.404   0.931
64728SOL    HW295959   2.567   5.373   1.007
64729SOL     OW95960   1.367   4.527   0.570
64729SOL    HW195961   1.459   4.550   0.557
64729SOL    HW295962   1.361   4.437   0.538
64730SOL     OW95963   8.127   5.718   4.794
64730SOL    HW195964   8.074   5.658   4.846
64730SOL    HW295965   8.215   5.711   4.831
64731SOL     OW95966   1.057   7.335  13.642
64731SOL    HW195967   1.043   7.283  13.721
64731SOL    HW295968   1.044   7.426  13.670
64732SOL     OW95969   7.513   1.285  12.987
64732SOL    HW195970   7.421   1.263  12.970
64732SOL    HW295971   7.514   1.312  13.079
64733SOL     OW95972   5.252  13.947  10.188
64733SOL    HW195973   5.268  14.032  10.230
64733SOL    HW295974   5.315  13.888  10.230
64734SOL     OW95975  11.520  10.509   3.155
64734SOL    HW195976  11.480  10.596   3.165
64734SOL    HW295977  11.467  10.453   3.211
64735SOL     OW95978   8.009   1.222   8.331
64735SOL    HW195979   8.032   1.136   8.296
64735SOL    HW295980   7.918   1.213   8.361
64736SOL     OW95981   7.383  11.855   5.009
64736SOL    HW195982   7.292  11.884   5.009
64736SOL    HW295983   7.385  11.784   5.074
64737SOL     OW95984  12.031  11.563   7.836
64737SOL    HW195985  11.980  11.566   7.754
64737SOL    HW295986  12.109  11.513   7.813
64738SOL     OW95987   7.520   2.960   8.050
64738SOL    HW195988   7.529   3.055   8.039
64738SOL    HW295989   7.453   2.934   7.987
64739SOL     OW95990   7.818  12.672   1.178
64739SOL    HW195991   7.784  12.658   1.266
64739SOL    HW295992   7.788  12.596   1.128
64740SOL     OW95993  12.536   7.456  12.115
64740SOL    HW195994  12.486   7.403  12.177
64740SOL    HW295995  12.627   7.440  12.138
64741SOL     OW95996   0.294   8.884   7.434
64741SOL    HW195997   0.250   8.956   7.387
64741SOL    HW295998   0.366   8.859   7.376
64742SOL     OW95999   1.339   5.706  13.833
64742SOL    HW196000   1.314   5.790  13.872
64742SOL    HW296001   1.398   5.730  13.761
64743SOL     OW96002  13.871   9.043  14.710
64743SOL    HW196003  13.937   8.975  14.695
64743SOL    HW296004  13.863   9.088  14.626
64744SOL     OW96005   5.577   4.584  11.904
64744SOL    HW196006   5.485   4.564  11.921
64744SOL    HW296007   5.624   4.540  11.975
64745SOL     OW96008   0.237   5.113   2.232
64745SOL    HW196009   0.282   5.028   2.232
64745SOL    HW296010   0.217   5.129   2.140
64746SOL     OW96011   6.877   3.731   3.015
64746SOL    HW196012   6.857   3.777   3.096
64746SOL    HW296013   6.804   3.670   3.002
64747SOL     OW96014   0.840   8.709  12.069
64747SOL    HW196015   0.928   8.673  12.078
64747SOL    HW296016   0.815   8.689  11.979
64748SOL     OW96017   6.073  13.523   6.546
64748SOL    HW196018   5.999  13.462   6.539
64748SOL    HW296019   6.111  13.525   6.459
64749SOL     OW96020   2.063  12.372   9.021
64749SOL    HW196021   2.152  12.337   9.012
64749SOL    HW296022   2.006  12.298   8.998
64750SOL     OW96023   8.478   2.725  13.466
64750SOL    HW196024   8.530   2.685  13.397
64750SOL    HW296025   8.389   2.727  13.431
64751SOL     OW96026   4.994   6.499   7.895
64751SOL    HW196027   4.923   6.540   7.845
64751SOL    HW296028   4.986   6.406   7.875
64752SOL     OW96029   3.448   0.319  10.610
64752SOL    HW196030   3.462   0.354  10.522
64752SOL    HW296031   3.534   0.285  10.636
64753SOL     OW96032   6.345   3.650   4.940
64753SOL    HW196033   6.252   3.663   4.920
64753SOL    HW296034   6.351   3.558   4.965
64754SOL     OW96035   2.321   4.276   7.668
64754SOL    HW196036   2.231   4.271   7.702
64754SOL    HW296037   2.347   4.184   7.656
64755SOL     OW96038   8.234  13.194   1.225
64755SOL    HW196039   8.218  13.287   1.238
64755SOL    HW296040   8.291  13.169   1.298
64756SOL     OW96041   3.227   2.099   3.119
64756SOL    HW196042   3.200   2.009   3.134
64756SOL    HW296043   3.172   2.129   3.047
64757SOL     OW96044   1.165  12.309   8.684
64757SOL    HW196045   1.234  12.374   8.669
64757SOL    HW296046   1.173  12.288   8.777
64758SOL     OW96047  10.029   5.862   8.904
64758SOL    HW196048  10.112   5.909   8.897
64758SOL    HW296049  10.049   5.774   8.873
64759SOL     OW96050  10.717  11.629   5.575
64759SOL    HW196051  10.790  11.648   5.634
64759SOL    HW296052  10.686  11.542   5.602
64760SOL     OW96053   0.960  12.092  11.000
64760SOL    HW196054   0.916  12.039  11.066
64760SOL    HW296055   1.050  12.060  11.000
64761SOL     OW96056   5.629   7.228   9.784
64761SOL    HW196057   5.591   7.250   9.870
64761SOL    HW296058   5.715   7.270   9.784
64762SOL     OW96059   1.810   5.289  14.656
64762SOL    HW196060   1.861   5.303  14.576
64762SOL    HW296061   1.858   5.221  14.704
64763SOL     OW96062  10.731  14.329  13.407
64763SOL    HW196063  10.815  14.284  13.414
64763SOL    HW296064  10.684  14.307  13.487
64764SOL     OW96065  12.280   9.755  11.823
64764SOL    HW196066  12.323   9.837  11.845
64764SOL    HW296067  12.350   9.700  11.787
64765SOL     OW96068   7.606   4.822   0.457
64765SOL    HW196069   7.587   4.772   0.378
64765SOL    HW296070   7.581   4.764   0.529
64766SOL     OW96071   3.558   7.385   2.157
64766SOL    HW196072   3.640   7.400   2.204
64766SOL    HW296073   3.493   7.371   2.226
64767SOL     OW96074  14.436  12.684   4.665
64767SOL    HW196075  14.446  12.689   4.760
64767SOL    HW296076  14.381  12.608   4.650
64768SOL     OW96077   3.437  11.646   0.172
64768SOL    HW196078   3.353  11.692   0.169
64768SOL    HW296079   3.415  11.554   0.168
64769SOL     OW96080   2.672   8.802   9.318
64769SOL    HW196081   2.718   8.839   9.394
64769SOL    HW296082   2.741   8.787   9.253
64770SOL     OW96083   9.791   3.655   0.234
64770SOL    HW196084   9.846   3.701   0.170
64770SOL    HW296085   9.782   3.717   0.307
64771SOL     OW96086  12.256   8.075   1.913
64771SOL    HW196087  12.191   8.120   1.967
64771SOL    HW296088  12.271   8.136   1.840
64772SOL     OW96089  14.178  10.974   2.041
64772SOL    HW196090  14.155  10.933   1.959
64772SOL    HW296091  14.105  11.033   2.061
64773SOL     OW96092   1.827  13.898   9.992
64773SOL    HW196093   1.912  13.937   9.972
64773SOL    HW296094   1.764  13.970   9.980
64774SOL     OW96095   5.279  11.985   6.786
64774SOL    HW196096   5.207  12.033   6.745
64774SOL    HW296097   5.267  11.895   6.757
64775SOL     OW96098  14.222  12.990   1.869
64775SOL    HW196099  14.237  12.905   1.910
64775SOL    HW296100  14.141  12.980   1.820
64776SOL     OW96101   6.758   4.090   5.368
64776SOL    HW196102   6.683   4.145   5.345
64776SOL    HW296103   6.723   4.001   5.368
64777SOL     OW96104   6.558   5.488   4.709
64777SOL    HW196105   6.496   5.513   4.640
64777SOL    HW296106   6.638   5.463   4.662
64778SOL     OW96107   8.036   6.083   3.751
64778SOL    HW196108   8.088   6.145   3.802
64778SOL    HW296109   7.980   6.137   3.696
64779SOL     OW96110  10.949  13.626   8.172
64779SOL    HW196111  11.024  13.683   8.159
64779SOL    HW296112  10.918  13.647   8.260
64780SOL     OW96113   4.525  14.569   2.512
64780SOL    HW196114   4.452  14.562   2.573
64780SOL    HW296115   4.603  14.562   2.567
64781SOL     OW96116   0.437   7.753   7.061
64781SOL    HW196117   0.409   7.693   6.991
64781SOL    HW296118   0.370   7.745   7.128
64782SOL     OW96119   1.234   7.108   1.174
64782SOL    HW196120   1.286   7.110   1.094
64782SOL    HW296121   1.149   7.144   1.149
64783SOL     OW96122   0.663   7.651   9.077
64783SOL    HW196123   0.624   7.685   9.157
64783SOL    HW296124   0.757   7.667   9.087
64784SOL     OW96125   2.908  10.976   5.352
64784SOL    HW196126   2.945  11.063   5.366
64784SOL    HW296127   2.952  10.944   5.273
64785SOL     OW96128   7.386  12.477   9.877
64785SOL    HW196129   7.425  12.541   9.819
64785SOL    HW296130   7.450  12.467   9.948
64786SOL     OW96131   8.606   1.882   2.863
64786SOL    HW196132   8.651   1.813   2.815
64786SOL    HW296133   8.526   1.841   2.896
64787SOL     OW96134  10.330   3.970   6.089
64787SOL    HW196135  10.383   4.048   6.070
64787SOL    HW296136  10.257   3.975   6.027
64788SOL     OW96137   0.245   6.507   3.096
64788SOL    HW196138   0.337   6.521   3.073
64788SOL    HW296139   0.207   6.595   3.100
64789SOL     OW96140   6.233   8.498   5.326
64789SOL    HW196141   6.323   8.525   5.308
64789SOL    HW296142   6.231   8.405   5.307
64790SOL     OW96143   9.358  12.431  13.619
64790SOL    HW196144   9.392  12.356  13.668
64790SOL    HW296145   9.313  12.393  13.544
64791SOL     OW96146  14.512   8.182  10.744
64791SOL    HW196147  14.571   8.110  10.719
64791SOL    HW296148  14.524   8.247  10.675
64792SOL     OW96149   8.533   2.022   9.178
64792SOL    HW196150   8.626   2.006   9.197
64792SOL    HW296151   8.486   1.966   9.239
64793SOL     OW96152  12.095  13.910   5.546
64793SOL    HW196153  12.040  13.987   5.559
64793SOL    HW296154  12.047  13.857   5.482
64794SOL     OW96155   8.520   0.237   9.766
64794SOL    HW196156   8.604   0.193   9.766
64794SOL    HW296157   8.514   0.277   9.679
64795SOL     OW96158   0.864  12.489   8.905
64795SOL    HW196159   0.949  12.444   8.908
64795SOL    HW296160   0.809  12.440   8.966
64796SOL     OW96161   6.219  14.395  13.389
64796SOL    HW196162   6.283  14.337  13.348
64796SOL    HW296163   6.208  14.466  13.326
64797SOL     OW96164   8.187   4.175  14.376
64797SOL    HW196165   8.187   4.256  14.427
64797SOL    HW296166   8.107   4.180  14.324
64798SOL     OW96167  14.398   0.134  10.377
64798SOL    HW196168  14.330   0.116  10.312
64798SOL    HW296169  14.480   0.132  10.328
64799SOL     OW96170   1.044   7.004   7.697
64799SOL    HW196171   1.129   7.048   7.691
64799SOL    HW296172   0.981   7.075   7.714
64800SOL     OW96173   7.172   2.267  10.492
64800SOL    HW196174   7.218   2.251  10.409
64800SOL    HW296175   7.165   2.362  10.498
64801SOL     OW96176   5.649   2.729  14.393
64801SOL    HW196177   5.593   2.714  14.469
64801SOL    HW296178   5.599   2.790  14.338
64802SOL     OW96179   9.657   1.625   8.141
64802SOL    HW196180   9.686   1.568   8.069
64802SOL    HW296181   9.689   1.712   8.118
64803SOL     OW96182  11.300  12.695   8.172
64803SOL    HW196183  11.297  12.677   8.266
64803SOL    HW296184  11.302  12.791   8.167
64804SOL     OW96185   3.584  13.428   8.467
64804SOL    HW196186   3.579  13.516   8.503
64804SOL    HW296187   3.570  13.370   8.541
64805SOL     OW96188   9.132  13.461  12.679
64805SOL    HW196189   9.107  13.478  12.770
64805SOL    HW296190   9.146  13.366  12.675
64806SOL     OW96191   5.028  14.113   3.522
64806SOL    HW196192   5.088  14.059   3.469
64806SOL    HW296193   4.945  14.109   3.475
64807SOL     OW96194  12.442  13.443  10.006
64807SOL    HW196195  12.509  13.375  10.015
64807SOL    HW296196  12.384  13.429  10.081
64808SOL     OW96197  14.404   3.088   6.255
64808SOL    HW196198  14.406   3.158   6.320
64808SOL    HW296199  14.316   3.050   6.263
64809SOL     OW96200   8.312   9.371   4.189
64809SOL    HW196201   8.301   9.466   4.196
64809SOL    HW296202   8.237   9.335   4.236
64810SOL     OW96203  14.448   9.533   4.089
64810SOL    HW196204  14.543   9.527   4.076
64810SOL    HW296205  14.430   9.627   4.088
64811SOL     OW96206   3.261  14.767   4.105
64811SOL    HW196207   3.348  14.804   4.124
64811SOL    HW296208   3.258  14.688   4.159
64812SOL     OW96209  14.522   8.103   4.223
64812SOL    HW196210  14.431   8.116   4.251
64812SOL    HW296211  14.570   8.176   4.263
64813SOL     OW96212  12.781  13.824   6.398
64813SOL    HW196213  12.829  13.845   6.318
64813SOL    HW296214  12.824  13.876   6.467
64814SOL     OW96215   2.270   9.864  12.773
64814SOL    HW196216   2.230   9.929  12.831
64814SOL    HW296217   2.201   9.845  12.709
64815SOL     OW96218   4.906  12.416   9.411
64815SOL    HW196219   4.872  12.490   9.461
64815SOL    HW296220   4.989  12.448   9.374
64816SOL     OW96221  11.038  13.144   2.883
64816SOL    HW196222  11.111  13.154   2.823
64816SOL    HW296223  11.069  13.083   2.950
64817SOL     OW96224   4.120   0.293   2.794
64817SOL    HW196225   4.176   0.261   2.864
64817SOL    HW296226   4.054   0.347   2.838
64818SOL     OW96227   7.342  11.650   5.174
64818SOL    HW196228   7.294  11.580   5.218
64818SOL    HW296229   7.429  11.647   5.213
64819SOL     OW96230   9.170  13.362   7.961
64819SOL    HW196231   9.250  13.409   7.985
64819SOL    HW296232   9.100  13.424   7.979
64820SOL     OW96233   0.115   2.255   7.471
64820SOL    HW196234   0.072   2.235   7.388
64820SOL    HW296235   0.088   2.185   7.530
64821SOL     OW96236  12.782  14.760   0.215
64821SOL    HW196237  12.800  14.851   0.239
64821SOL    HW296238  12.692  14.746   0.243
64822SOL     OW96239   5.518   1.678   1.135
64822SOL    HW196240   5.574   1.601   1.145
64822SOL    HW296241   5.556   1.726   1.061
64823SOL     OW96242   5.307   9.753   7.521
64823SOL    HW196243   5.298   9.688   7.452
64823SOL    HW296244   5.297   9.703   7.602
64824SOL     OW96245  11.580   0.861   8.912
64824SOL    HW196246  11.614   0.907   8.836
64824SOL    HW296247  11.621   0.905   8.987
64825SOL     OW96248   0.025   4.783  14.853
64825SOL    HW196249  14.831   4.846  14.848
64825SOL    HW296250  14.868   4.703  14.813
64826SOL     OW96251  13.547  10.643   6.467
64826SOL    HW196252  13.510  10.556   6.483
64826SOL    HW296253  13.574  10.673   6.554
64827SOL     OW96254  10.792  13.698   5.970
64827SOL    HW196255  10.790  13.710   5.875
64827SOL    HW296256  10.812  13.784   6.005
64828SOL     OW96257   6.896  11.537  13.277
64828SOL    HW196258   6.803  11.553  13.289
64828SOL    HW296259   6.939  11.604  13.330
64829SOL     OW96260   3.082   5.874   8.313
64829SOL    HW196261   2.993   5.902   8.330
64829SOL    HW296262   3.118   5.941   8.255
64830SOL     OW96263  14.216   6.181   9.925
64830SOL    HW196264  14.252   6.250   9.869
64830SOL    HW296265  14.282   6.111   9.923
64831SOL     OW96266   1.174  13.202   0.131
64831SOL    HW196267   1.102  13.202   0.068
64831SOL    HW296268   1.139  13.249   0.207
64832SOL     OW96269   9.754   1.121   1.092
64832SOL    HW196270   9.741   1.159   1.005
64832SOL    HW296271   9.796   1.037   1.075
64833SOL     OW96272  13.430   5.582   0.124
64833SOL    HW196273  13.383   5.532   0.191
64833SOL    HW296274  13.471   5.654   0.171
64834SOL     OW96275   4.844   4.993  11.265
64834SOL    HW196276   4.872   4.912  11.223
64834SOL    HW296277   4.925   5.041  11.283
64835SOL     OW96278   8.024   8.308  14.662
64835SOL    HW196279   8.022   8.370  14.736
64835SOL    HW296280   8.033   8.222  14.703
64836SOL     OW96281  10.689  13.199  10.457
64836SOL    HW196282  10.724  13.257  10.525
64836SOL    HW296283  10.766  13.168  10.409
64837SOL     OW96284  10.584   3.692  10.625
64837SOL    HW196285  10.511   3.635  10.649
64837SOL    HW296286  10.598   3.675  10.532
64838SOL     OW96287   4.827   7.394   6.050
64838SOL    HW196288   4.803   7.337   6.122
64838SOL    HW296289   4.743   7.417   6.008
64839SOL     OW96290  10.913   2.145   9.989
64839SOL    HW196291  10.933   2.052   9.999
64839SOL    HW296292  10.818   2.150   9.994
64840SOL     OW96293   3.603  11.352   5.533
64840SOL    HW196294   3.601  11.281   5.597
64840SOL    HW296295   3.551  11.422   5.573
64841SOL     OW96296   5.542  10.425   9.163
64841SOL    HW196297   5.467  10.368   9.179
64841SOL    HW296298   5.605  10.402   9.232
64842SOL     OW96299   0.583  14.114   0.762
64842SOL    HW196300   0.491  14.109   0.789
64842SOL    HW296301   0.580  14.156   0.676
64843SOL     OW96302   5.241   9.910  14.477
64843SOL    HW196303   5.172   9.922  14.413
64843SOL    HW296304   5.285   9.995  14.481
64844SOL     OW96305   2.044  13.297   0.099
64844SOL    HW196306   2.054  13.233   0.029
64844SOL    HW296307   1.988  13.254   0.164
64845SOL     OW96308  10.331   2.140   5.725
64845SOL    HW196309  10.306   2.143   5.817
64845SOL    HW296310  10.251   2.116   5.678
64846SOL     OW96311   2.845   9.077   4.473
64846SOL    HW196312   2.753   9.082   4.447
64846SOL    HW296313   2.866   9.164   4.507
64847SOL     OW96314  11.072   7.366   0.506
64847SOL    HW196315  11.050   7.424   0.433
64847SOL    HW296316  11.141   7.309   0.471
64848SOL     OW96317   2.557  13.043   5.295
64848SOL    HW196318   2.509  13.125   5.309
64848SOL    HW296319   2.537  12.990   5.372
64849SOL     OW96320   4.065   6.949   2.864
64849SOL    HW196321   4.023   6.865   2.876
64849SOL    HW296322   4.063   6.990   2.950
64850SOL     OW96323   3.668   2.987  10.870
64850SOL    HW196324   3.582   2.968  10.908
64850SOL    HW296325   3.650   3.005  10.778
64851SOL     OW96326  12.862  10.432   4.191
64851SOL    HW196327  12.775  10.452   4.225
64851SOL    HW296328  12.888  10.352   4.236
64852SOL     OW96329   9.601   3.758   6.297
64852SOL    HW196330   9.530   3.794   6.244
64852SOL    HW296331   9.580   3.664   6.304
64853SOL     OW96332   4.287   2.379   9.125
64853SOL    HW196333   4.364   2.341   9.083
64853SOL    HW296334   4.228   2.304   9.139
64854SOL     OW96335   5.730   6.787   1.299
64854SOL    HW196336   5.775   6.828   1.226
64854SOL    HW296337   5.764   6.697   1.301
64855SOL     OW96338   8.854  10.773  14.341
64855SOL    HW196339   8.848  10.760  14.246
64855SOL    HW296340   8.763  10.785  14.369
64856SOL     OW96341  14.063   6.225  12.884
64856SOL    HW196342  14.026   6.296  12.935
64856SOL    HW296343  14.155   6.248  12.874
64857SOL     OW96344  12.551   6.006   1.327
64857SOL    HW196345  12.534   5.944   1.256
64857SOL    HW296346  12.518   6.089   1.293
64858SOL     OW96347   9.085  14.647   1.940
64858SOL    HW196348   9.105  14.610   2.026
64858SOL    HW296349   8.990  14.644   1.934
64859SOL     OW96350   5.159   1.854   6.893
64859SOL    HW196351   5.159   1.843   6.988
64859SOL    HW296352   5.243   1.894   6.873
64860SOL     OW96353   9.070   6.154   9.257
64860SOL    HW196354   8.987   6.109   9.270
64860SOL    HW296355   9.126   6.090   9.212
64861SOL     OW96356  11.001  14.436   5.458
64861SOL    HW196357  10.971  14.397   5.540
64861SOL    HW296358  10.923  14.439   5.403
64862SOL     OW96359   5.773  10.097  14.223
64862SOL    HW196360   5.732  10.079  14.139
64862SOL    HW296361   5.855  10.048  14.221
64863SOL     OW96362  12.048   8.217   2.058
64863SOL    HW196363  11.958   8.184   2.061
64863SOL    HW296364  12.043   8.302   2.102
64864SOL     OW96365   4.456  10.706   6.836
64864SOL    HW196366   4.397  10.638   6.805
64864SOL    HW296367   4.437  10.713   6.930
64865SOL     OW96368   6.435   9.043   9.842
64865SOL    HW196369   6.358   8.989   9.860
64865SOL    HW296370   6.459   9.022   9.752
64866SOL     OW96371   5.436   7.653   3.736
64866SOL    HW196372   5.343   7.661   3.717
64866SOL    HW296373   5.480   7.686   3.658
64867SOL     OW96374   5.477  11.158   0.246
64867SOL    HW196375   5.458  11.217   0.173
64867SOL    HW296376   5.398  11.105   0.256
64868SOL     OW96377   1.117   6.855   4.721
64868SOL    HW196378   1.051   6.914   4.756
64868SOL    HW296379   1.137   6.796   4.793
64869SOL     OW96380   2.785  14.771   8.012
64869SOL    HW196381   2.698  14.732   8.010
64869SOL    HW296382   2.802  14.788   8.105
64870SOL     OW96383  10.872   9.085   3.024
64870SOL    HW196384  10.875   9.124   2.937
64870SOL    HW296385  10.834   9.153   3.080
64871SOL     OW96386   7.042   9.007   8.789
64871SOL    HW196387   7.004   8.989   8.875
64871SOL    HW296388   7.137   9.009   8.804
64872SOL     OW96389   6.027   3.294   8.967
64872SOL    HW196390   6.053   3.221   8.910
64872SOL    HW296391   6.095   3.360   8.955
64873SOL     OW96392  10.055  12.861  11.051
64873SOL    HW196393  10.083  12.892  11.137
64873SOL    HW296394  10.000  12.785  11.069
64874SOL     OW96395  13.636  13.937   4.592
64874SOL    HW196396  13.653  13.904   4.505
64874SOL    HW296397  13.596  13.864   4.639
64875SOL     OW96398   0.219   4.891   8.246
64875SOL    HW196399   0.213   4.918   8.338
64875SOL    HW296400   0.174   4.960   8.198
64876SOL     OW96401   5.842   1.760   6.450
64876SOL    HW196402   5.862   1.670   6.424
64876SOL    HW296403   5.828   1.806   6.367
64877SOL     OW96404   5.031   9.227  12.134
64877SOL    HW196405   5.046   9.158  12.070
64877SOL    HW296406   4.952   9.272  12.104
64878SOL     OW96407   5.999   5.577   9.449
64878SOL    HW196408   6.027   5.496   9.408
64878SOL    HW296409   6.038   5.646   9.395
64879SOL     OW96410   9.829   4.373   8.766
64879SOL    HW196411   9.832   4.278   8.755
64879SOL    HW296412   9.761   4.402   8.705
64880SOL     OW96413   8.853   8.707   1.387
64880SOL    HW196414   8.765   8.746   1.388
64880SOL    HW296415   8.904   8.761   1.448
64881SOL     OW96416   9.557  13.642   1.713
64881SOL    HW196417   9.477  13.603   1.748
64881SOL    HW296418   9.527  13.719   1.665
64882SOL     OW96419  12.465  14.042   9.005
64882SOL    HW196420  12.389  14.093   9.035
64882SOL    HW296421  12.473  14.064   8.913
64883SOL     OW96422   4.720   4.014   4.267
64883SOL    HW196423   4.683   3.977   4.188
64883SOL    HW296424   4.749   3.939   4.318
64884SOL     OW96425  10.412  12.931  13.934
64884SOL    HW196426  10.427  13.025  13.945
64884SOL    HW296427  10.331  12.914  13.981
64885SOL     OW96428   8.757   0.967  12.407
64885SOL    HW196429   8.829   0.905  12.421
64885SOL    HW296430   8.766   1.030  12.478
64886SOL     OW96431  12.299   4.978  14.126
64886SOL    HW196432  12.215   4.967  14.081
64886SOL    HW296433  12.319   5.071  14.118
64887SOL     OW96434   8.661  14.648   2.262
64887SOL    HW196435   8.710  14.713   2.211
64887SOL    HW296436   8.728  14.592   2.301
64888SOL     OW96437  12.075   4.954  10.705
64888SOL    HW196438  12.026   4.963  10.623
64888SOL    HW296439  12.142   5.023  10.701
64889SOL     OW96440   6.403   2.433  13.426
64889SOL    HW196441   6.495   2.448  13.405
64889SOL    HW296442   6.389   2.340  13.407
64890SOL     OW96443   9.750   8.805  13.321
64890SOL    HW196444   9.834   8.850  13.309
64890SOL    HW296445   9.772   8.712  13.323
64891SOL     OW96446  13.678  12.633   4.356
64891SOL    HW196447  13.756  12.577   4.363
64891SOL    HW296448  13.710  12.721   4.371
64892SOL     OW96449   8.206   2.206   6.104
64892SOL    HW196450   8.244   2.219   6.191
64892SOL    HW296451   8.196   2.111   6.096
64893SOL     OW96452   5.987   0.116  11.356
64893SOL    HW196453   5.928   0.158  11.294
64893SOL    HW296454   5.991   0.175  11.431
64894SOL     OW96455   7.105   5.611   6.881
64894SOL    HW196456   7.192   5.572   6.874
64894SOL    HW296457   7.064   5.593   6.796
64895SOL     OW96458   0.987   8.396  14.266
64895SOL    HW196459   0.970   8.408  14.360
64895SOL    HW296460   1.082   8.399  14.258
64896SOL     OW96461   6.499  12.856  11.595
64896SOL    HW196462   6.451  12.779  11.625
64896SOL    HW296463   6.586  12.846  11.631
64897SOL     OW96464   6.922  11.158   0.677
64897SOL    HW196465   6.827  11.151   0.688
64897SOL    HW296466   6.953  11.068   0.680
64898SOL     OW96467  11.006   9.969   6.025
64898SOL    HW196468  10.920   9.992   6.059
64898SOL    HW296469  10.988   9.918   5.946
64899SOL     OW96470  12.896  10.600   8.960
64899SOL    HW196471  12.801  10.594   8.969
64899SOL    HW296472  12.912  10.592   8.866
64900SOL     OW96473   9.526  10.837  12.902
64900SOL    HW196474   9.601  10.874  12.948
64900SOL    HW296475   9.485  10.780  12.967
64901SOL     OW96476   0.263  10.478   4.898
64901SOL    HW196477   0.192  10.534   4.868
64901SOL    HW296478   0.340  10.508   4.848
64902SOL     OW96479  11.148  10.905  12.144
64902SOL    HW196480  11.155  10.985  12.092
64902SOL    HW296481  11.233  10.897  12.187
64903SOL     OW96482   5.094  14.504  13.702
64903SOL    HW196483   5.104  14.589  13.745
64903SOL    HW296484   5.081  14.525  13.609
64904SOL     OW96485   2.978  11.989   6.120
64904SOL    HW196486   3.005  12.080   6.113
64904SOL    HW296487   3.009  11.949   6.038
64905SOL     OW96488   1.433  14.758   5.416
64905SOL    HW196489   1.391  14.843   5.399
64905SOL    HW296490   1.460  14.727   5.329
64906SOL     OW96491   0.284   5.508   6.309
64906SOL    HW196492   0.260   5.488   6.218
64906SOL    HW296493   0.324   5.428   6.342
64907SOL     OW96494  13.207   7.900   2.846
64907SOL    HW196495  13.283   7.929   2.794
64907SOL    HW296496  13.238   7.901   2.936
64908SOL     OW96497   7.153   0.889   1.305
64908SOL    HW196498   7.233   0.861   1.348
64908SOL    HW296499   7.172   0.883   1.211
64909SOL     OW96500   5.453   6.987   1.244
64909SOL    HW196501   5.471   6.936   1.166
64909SOL    HW296502   5.504   7.068   1.232
64910SOL     OW96503  10.261   9.581   2.772
64910SOL    HW196504  10.265   9.513   2.705
64910SOL    HW296505  10.293   9.660   2.728
64911SOL     OW96506   3.260  14.789  14.160
64911SOL    HW196507   3.261  14.748  14.247
64911SOL    HW296508   3.335  14.751  14.115
64912SOL     OW96509   8.096   8.666   8.178
64912SOL    HW196510   8.126   8.713   8.256
64912SOL    HW296511   8.169   8.671   8.117
64913SOL     OW96512   3.950   8.644   8.390
64913SOL    HW196513   3.939   8.718   8.330
64913SOL    HW296514   4.041   8.651   8.419
64914SOL     OW96515   7.743  11.174  10.407
64914SOL    HW196516   7.663  11.126  10.386
64914SOL    HW296517   7.813  11.127  10.362
64915SOL     OW96518  12.857   9.878  11.357
64915SOL    HW196519  12.883   9.808  11.296
64915SOL    HW296520  12.914   9.951  11.334
64916SOL     OW96521   9.887  13.540   2.302
64916SOL    HW196522   9.828  13.502   2.367
64916SOL    HW296523   9.974  13.534   2.341
64917SOL     OW96524   5.143   8.030   6.832
64917SOL    HW196525   5.150   7.954   6.890
64917SOL    HW296526   5.053   8.062   6.845
64918SOL     OW96527   0.463   8.926   6.592
64918SOL    HW196528   0.504   9.008   6.564
64918SOL    HW296529   0.536   8.874   6.627
64919SOL     OW96530  10.952   2.513   5.690
64919SOL    HW196531  11.030   2.515   5.635
64919SOL    HW296532  10.895   2.449   5.648
64920SOL     OW96533   8.613   7.352  10.417
64920SOL    HW196534   8.581   7.433  10.377
64920SOL    HW296535   8.698   7.337  10.375
64921SOL     OW96536   6.129  11.666  13.132
64921SOL    HW196537   6.044  11.685  13.092
64921SOL    HW296538   6.152  11.579  13.100
64922SOL     OW96539   8.887   2.557   6.966
64922SOL    HW196540   8.810   2.502   6.982
64922SOL    HW296541   8.961   2.503   6.991
64923SOL     OW96542  14.131   9.267   9.141
64923SOL    HW196543  14.170   9.353   9.123
64923SOL    HW296544  14.056   9.286   9.197
64924SOL     OW96545  10.548  13.163   4.151
64924SOL    HW196546  10.492  13.088   4.169
64924SOL    HW296547  10.551  13.169   4.055
64925SOL     OW96548  14.582  12.285  14.678
64925SOL    HW196549  14.673  12.279  14.707
64925SOL    HW296550  14.532  12.243  14.748
64926SOL     OW96551   1.892   0.132  10.862
64926SOL    HW196552   1.815   0.095  10.905
64926SOL    HW296553   1.865   0.148  10.772
64927SOL     OW96554   2.540   0.466   2.579
64927SOL    HW196555   2.511   0.473   2.670
64927SOL    HW296556   2.460   0.477   2.528
64928SOL     OW96557   9.618  12.353   6.133
64928SOL    HW196558   9.540  12.389   6.176
64928SOL    HW296559   9.670  12.430   6.110
64929SOL     OW96560   7.138   3.737   8.589
64929SOL    HW196561   7.205   3.700   8.646
64929SOL    HW296562   7.163   3.707   8.501
64930SOL     OW96563  13.502  14.117  12.979
64930SOL    HW196564  13.481  14.157  13.063
64930SOL    HW296565  13.571  14.053  12.998
64931SOL     OW96566   6.016   1.909   9.747
64931SOL    HW196567   6.082   1.923   9.815
64931SOL    HW296568   5.933   1.934   9.789
64932SOL     OW96569  13.672   2.138  11.193
64932SOL    HW196570  13.724   2.087  11.131
64932SOL    HW296571  13.631   2.073  11.250
64933SOL     OW96572  11.493   8.093   5.414
64933SOL    HW196573  11.515   8.000   5.422
64933SOL    HW296574  11.577   8.135   5.394
64934SOL     OW96575  12.070   5.873   2.611
64934SOL    HW196576  12.047   5.808   2.678
64934SOL    HW296577  12.000   5.938   2.616
64935SOL     OW96578   7.232   8.316   9.466
64935SOL    HW196579   7.243   8.397   9.416
64935SOL    HW296580   7.139   8.316   9.492
64936SOL     OW96581  10.712   7.267   7.511
64936SOL    HW196582  10.755   7.279   7.427
64936SOL    HW296583  10.647   7.198   7.496
64937SOL     OW96584   2.559  11.589   2.296
64937SOL    HW196585   2.506  11.644   2.237
64937SOL    HW296586   2.628  11.554   2.240
64938SOL     OW96587   9.497   4.092   2.547
64938SOL    HW196588   9.496   4.000   2.520
64938SOL    HW296589   9.406   4.121   2.539
64939SOL     OW96590  10.979  14.111   1.632
64939SOL    HW196591  11.003  14.026   1.669
64939SOL    HW296592  10.898  14.134   1.677
64940SOL     OW96593   9.556   4.456   7.567
64940SOL    HW196594   9.463   4.433   7.556
64940SOL    HW296595   9.555   4.550   7.583
64941SOL     OW96596   6.471   6.488  10.518
64941SOL    HW196597   6.499   6.579  10.525
64941SOL    HW296598   6.413   6.486  10.442
64942SOL     OW96599  14.170   1.827   6.110
64942SOL    HW196600  14.101   1.807   6.172
64942SOL    HW296601  14.237   1.760   6.125
64943SOL     OW96602   9.772   8.896   6.067
64943SOL    HW196603   9.704   8.963   6.077
64943SOL    HW296604   9.775   8.879   5.973
64944SOL     OW96605   9.394  12.743  13.128
64944SOL    HW196606   9.359  12.715  13.213
64944SOL    HW296607   9.384  12.838  13.128
64945SOL     OW96608  11.357  13.692   1.381
64945SOL    HW196609  11.308  13.774   1.384
64945SOL    HW296610  11.331  13.650   1.299
64946SOL     OW96611   3.267   9.279   2.650
64946SOL    HW196612   3.258   9.371   2.673
64946SOL    HW296613   3.327   9.278   2.576
64947SOL     OW96614   4.533   4.135  12.232
64947SOL    HW196615   4.608   4.192  12.213
64947SOL    HW296616   4.530   4.130  12.327
64948SOL     OW96617  13.679   6.392   5.420
64948SOL    HW196618  13.713   6.457   5.359
64948SOL    HW296619  13.620   6.441   5.478
64949SOL     OW96620   7.471   4.050  12.581
64949SOL    HW196621   7.425   4.064  12.498
64949SOL    HW296622   7.402   4.034  12.645
64950SOL     OW96623   4.596   3.701   0.255
64950SOL    HW196624   4.605   3.691   0.160
64950SOL    HW296625   4.684   3.684   0.289
64951SOL     OW96626  10.518   4.625   1.536
64951SOL    HW196627  10.528   4.692   1.603
64951SOL    HW296628  10.604   4.586   1.527
64952SOL     OW96629  12.981   9.438   7.980
64952SOL    HW196630  12.899   9.428   7.931
64952SOL    HW296631  13.039   9.371   7.944
64953SOL     OW96632   6.122   8.977   7.475
64953SOL    HW196633   6.164   8.958   7.559
64953SOL    HW296634   6.163   9.059   7.446
64954SOL     OW96635  12.438   2.120   0.783
64954SOL    HW196636  12.480   2.099   0.699
64954SOL    HW296637  12.352   2.154   0.758
64955SOL     OW96638   2.750   1.249   3.312
64955SOL    HW196639   2.830   1.197   3.306
64955SOL    HW296640   2.697   1.204   3.377
64956SOL     OW96641   0.477  13.549   4.453
64956SOL    HW196642   0.486  13.459   4.484
64956SOL    HW296643   0.477  13.602   4.533
64957SOL     OW96644   0.258   1.893  12.827
64957SOL    HW196645   0.261   1.985  12.803
64957SOL    HW296646   0.199   1.890  12.903
64958SOL     OW96647   7.887  12.655  10.766
64958SOL    HW196648   7.882  12.740  10.723
64958SOL    HW296649   7.907  12.675  10.857
64959SOL     OW96650   2.728   3.266  12.468
64959SOL    HW196651   2.702   3.336  12.528
64959SOL    HW296652   2.770   3.201  12.524
64960SOL     OW96653   4.093   2.382   9.786
64960SOL    HW196654   4.165   2.320   9.786
64960SOL    HW296655   4.118   2.448   9.851
64961SOL     OW96656  10.565   1.117   5.297
64961SOL    HW196657  10.621   1.115   5.374
64961SOL    HW296658  10.622   1.090   5.225
64962SOL     OW96659   2.623  14.489  10.998
64962SOL    HW196660   2.541  14.536  10.982
64962SOL    HW296661   2.646  14.513  11.088
64963SOL     OW96662   9.572   3.680   0.706
64963SOL    HW196663   9.520   3.758   0.725
64963SOL    HW296664   9.509   3.616   0.675
64964SOL     OW96665   2.406  11.368   5.005
64964SOL    HW196666   2.355  11.449   5.009
64964SOL    HW296667   2.352  11.308   4.953
64965SOL     OW96668  12.359  13.473  11.912
64965SOL    HW196669  12.384  13.564  11.897
64965SOL    HW296670  12.379  13.457  12.004
64966SOL     OW96671  11.665  13.334   9.513
64966SOL    HW196672  11.656  13.423   9.479
64966SOL    HW296673  11.672  13.279   9.435
64967SOL     OW96674   7.671  11.101  12.459
64967SOL    HW196675   7.602  11.036  12.446
64967SOL    HW296676   7.625  11.181  12.485
64968SOL     OW96677   5.538  11.997  11.843
64968SOL    HW196678   5.446  12.013  11.862
64968SOL    HW296679   5.584  12.024  11.923
64969SOL     OW96680  11.764  12.879  11.456
64969SOL    HW196681  11.682  12.866  11.409
64969SOL    HW296682  11.829  12.832  11.404
64970SOL     OW96683   5.403  14.777  11.481
64970SOL    HW196684   5.493  14.806  11.497
64970SOL    HW296685   5.365  14.767  11.568
64971SOL     OW96686   4.636  11.804  10.561
64971SOL    HW196687   4.612  11.825  10.651
64971SOL    HW296688   4.556  11.769  10.522
64972SOL     OW96689   3.975  14.689   8.730
64972SOL    HW196690   4.002  14.662   8.643
64972SOL    HW296691   3.959  14.783   8.722
64973SOL     OW96692   5.182   3.242  13.940
64973SOL    HW196693   5.125   3.204  14.007
64973SOL    HW296694   5.125   3.254  13.864
64974SOL     OW96695   5.398   0.085   6.936
64974SOL    HW196696   5.473   0.115   6.988
64974SOL    HW296697   5.425   0.099   6.845
64975SOL     OW96698   1.694   9.207  12.219
64975SOL    HW196699   1.622   9.146  12.198
64975SOL    HW296700   1.666   9.251  12.299
64976SOL     OW96701  11.853   9.943   3.117
64976SOL    HW196702  11.835   9.919   3.027
64976SOL    HW296703  11.939   9.984   3.115
64977SOL     OW96704  11.549  13.322  11.082
64977SOL    HW196705  11.528  13.413  11.065
64977SOL    HW296706  11.474  13.273  11.049
64978SOL     OW96707  11.365   6.971   7.115
64978SOL    HW196708  11.278   7.007   7.098
64978SOL    HW296709  11.425   7.043   7.095
64979SOL     OW96710   4.437  11.849  11.837
64979SOL    HW196711   4.427  11.827  11.744
64979SOL    HW296712   4.369  11.799  11.881
64980SOL     OW96713  11.152  10.136   8.062
64980SOL    HW196714  11.093  10.193   8.013
64980SOL    HW296715  11.129  10.048   8.034
64981SOL     OW96716  14.044   3.648   0.951
64981SOL    HW196717  14.131   3.686   0.934
64981SOL    HW296718  14.025   3.597   0.872
64982SOL     OW96719   4.502   9.088   9.754
64982SOL    HW196720   4.592   9.080   9.786
64982SOL    HW296721   4.448   9.058   9.827
64983SOL     OW96722  13.785  12.318  11.922
64983SOL    HW196723  13.769  12.397  11.870
64983SOL    HW296724  13.880  12.309  11.924
64984SOL     OW96725  14.105   5.151   0.994
64984SOL    HW196726  14.082   5.221   0.933
64984SOL    HW296727  14.162   5.192   1.058
64985SOL     OW96728   0.265  11.699   4.509
64985SOL    HW196729   0.293  11.618   4.466
64985SOL    HW296730   0.191  11.730   4.456
64986SOL     OW96731   6.607  14.371   1.807
64986SOL    HW196732   6.622  14.355   1.714
64986SOL    HW296733   6.553  14.451   1.808
64987SOL     OW96734  10.112   4.456   4.899
64987SOL    HW196735  10.151   4.443   4.985
64987SOL    HW296736  10.185   4.442   4.838
64988SOL     OW96737   9.168   8.233  11.136
64988SOL    HW196738   9.076   8.251  11.119
64988SOL    HW296739   9.169   8.145  11.175
64989SOL     OW96740   2.957   8.283  10.964
64989SOL    HW196741   3.004   8.345  11.020
64989SOL    HW296742   2.899   8.338  10.912
64990SOL     OW96743   0.691  12.782   2.453
64990SOL    HW196744   0.642  12.858   2.484
64990SOL    HW296745   0.632  12.739   2.391
64991SOL     OW96746  11.460   5.112   2.418
64991SOL    HW196747  11.485   5.204   2.429
64991SOL    HW296748  11.365   5.112   2.429
64992SOL     OW96749  14.061   9.037   6.654
64992SOL    HW196750  14.044   9.125   6.687
64992SOL    HW296751  13.984   8.986   6.681
64993SOL     OW96752   0.581   7.155  13.804
64993SOL    HW196753   0.595   7.245  13.776
64993SOL    HW296754   0.524   7.163  13.881
64994SOL     OW96755   9.111  13.335   0.470
64994SOL    HW196756   9.020  13.366   0.472
64994SOL    HW296757   9.152  13.386   0.399
64995SOL     OW96758  11.268  14.373   1.272
64995SOL    HW196759  11.330  14.376   1.199
64995SOL    HW296760  11.189  14.334   1.236
64996SOL     OW96761   4.392   5.036   9.089
64996SOL    HW196762   4.321   5.083   9.045
64996SOL    HW296763   4.381   4.945   9.060
64997SOL     OW96764   7.685   8.248  13.518
64997SOL    HW196765   7.711   8.245  13.426
64997SOL    HW296766   7.591   8.231  13.516
64998SOL     OW96767   2.353   2.993   8.741
64998SOL    HW196768   2.291   3.030   8.678
64998SOL    HW296769   2.436   3.034   8.719
64999SOL     OW96770  13.498   7.162  12.665
64999SOL    HW196771  13.551   7.086  12.640
64999SOL    HW296772  13.496   7.159  12.761
65000SOL     OW96773  12.566  14.727   1.307
65000SOL    HW196774  12.494  14.705   1.367
65000SOL    HW296775  12.523  14.741   1.222
65001SOL     OW96776  11.540   5.108   8.482
65001SOL    HW196777  11.558   5.201   8.495
65001SOL    HW296778  11.599   5.063   8.543
65002SOL     OW96779  12.276   5.407  14.442
65002SOL    HW196780  12.298   5.392  14.534
65002SOL    HW296781  12.358   5.392  14.394
65003SOL     OW96782   8.451   2.119  13.852
65003SOL    HW196783   8.471   2.028  13.830
65003SOL    HW296784   8.403   2.152  13.777
65004SOL     OW96785   3.814   6.500   5.799
65004SOL    HW196786   3.720   6.500   5.784
65004SOL    HW296787   3.826   6.552   5.878
65005SOL     OW96788   5.078   0.881   8.430
65005SOL    HW196789   5.058   0.791   8.456
65005SOL    HW296790   5.027   0.936   8.489
65006SOL     OW96791  11.139   0.508   4.746
65006SOL    HW196792  11.214   0.552   4.786
65006SOL    HW296793  11.070   0.514   4.813
65007SOL     OW96794  13.482   8.768   4.454
65007SOL    HW196795  13.438   8.823   4.389
65007SOL    HW296796  13.575   8.780   4.437
65008SOL     OW96797  11.548   3.381   6.311
65008SOL    HW196798  11.504   3.296   6.306
65008SOL    HW296799  11.552   3.412   6.221
65009SOL     OW96800   8.755   9.574   3.951
65009SOL    HW196801   8.777   9.503   3.891
65009SOL    HW296802   8.711   9.639   3.896
65010SOL     OW96803  14.554   6.189  13.117
65010SOL    HW196804  14.631   6.173  13.063
65010SOL    HW296805  14.588   6.229  13.197
65011SOL     OW96806   0.015  10.311   7.997
65011SOL    HW196807  14.820  10.315   8.058
65011SOL    HW296808   0.087  10.274   8.048
65012SOL     OW96809  12.659   5.311  12.028
65012SOL    HW196810  12.706   5.395  12.026
65012SOL    HW296811  12.666   5.283  12.119
65013SOL     OW96812   9.877   1.795   0.218
65013SOL    HW196813   9.950   1.857   0.223
65013SOL    HW296814   9.907   1.727   0.158
65014SOL     OW96815  14.068   4.447   9.097
65014SOL    HW196816  14.000   4.433   9.163
65014SOL    HW296817  14.039   4.395   9.022
65015SOL     OW96818  10.212  13.647   1.772
65015SOL    HW196819  10.245  13.628   1.860
65015SOL    HW296820  10.269  13.597   1.714
65016SOL     OW96821   9.326  13.081   0.767
65016SOL    HW196822   9.387  13.006   0.765
65016SOL    HW296823   9.307  13.098   0.675
65017SOL     OW96824  12.781   8.018   8.820
65017SOL    HW196825  12.750   7.928   8.820
65017SOL    HW296826  12.858   8.017   8.877
65018SOL     OW96827  10.886   7.411   6.135
65018SOL    HW196828  10.854   7.344   6.073
65018SOL    HW296829  10.829   7.401   6.211
65019SOL     OW96830   1.873   2.854   7.914
65019SOL    HW196831   1.945   2.885   7.859
65019SOL    HW296832   1.844   2.932   7.961
65020SOL     OW96833  11.441   7.857   3.215
65020SOL    HW196834  11.383   7.891   3.146
65020SOL    HW296835  11.477   7.777   3.178
65021SOL     OW96836  11.565  12.474   0.208
65021SOL    HW196837  11.577  12.546   0.146
65021SOL    HW296838  11.584  12.512   0.294
65022SOL     OW96839  13.586   2.268   0.149
65022SOL    HW196840  13.538   2.305   0.074
65022SOL    HW296841  13.551   2.314   0.225
65023SOL     OW96842  12.355   0.196   9.592
65023SOL    HW196843  12.335   0.215   9.684
65023SOL    HW296844  12.387   0.105   9.593
65024SOL     OW96845  11.053   2.453   7.285
65024SOL    HW196846  10.959   2.453   7.301
65024SOL    HW296847  11.090   2.408   7.361
65025SOL     OW96848   1.936   7.504  14.233
65025SOL    HW196849   1.977   7.437  14.287
65025SOL    HW296850   2.007   7.540  14.180
65026SOL     OW96851   5.891   7.758   6.132
65026SOL    HW196852   5.961   7.814   6.098
65026SOL    HW296853   5.870   7.699   6.060
65027SOL     OW96854   0.185   1.526  13.310
65027SOL    HW196855   0.250   1.482  13.255
65027SOL    HW296856   0.213   1.617  13.313
65028SOL     OW96857   8.068   5.556   0.883
65028SOL    HW196858   8.101   5.466   0.893
65028SOL    HW296859   8.067   5.571   0.789
65029SOL     OW96860   9.111  13.616   1.595
65029SOL    HW196861   9.176  13.617   1.665
65029SOL    HW296862   9.060  13.695   1.609
65030SOL     OW96863   9.489   4.222   0.991
65030SOL    HW196864   9.482   4.316   0.974
65030SOL    HW296865   9.568   4.214   1.045
65031SOL     OW96866   3.030   5.638   3.132
65031SOL    HW196867   3.013   5.571   3.198
65031SOL    HW296868   2.945   5.677   3.113
65032SOL     OW96869  10.192   0.029   4.827
65032SOL    HW196870  10.280   0.065   4.813
65032SOL    HW296871  10.193   0.002   4.919
65033SOL     OW96872  11.372   3.247   1.093
65033SOL    HW196873  11.403   3.156   1.087
65033SOL    HW296874  11.277   3.239   1.097
65034SOL     OW96875  10.241  14.833   7.612
65034SOL    HW196876  10.159  14.812   7.567
65034SOL    HW296877  10.308  14.786   7.562
65035SOL     OW96878  14.554   0.341  14.142
65035SOL    HW196879  14.483   0.278  14.150
65035SOL    HW296880  14.531   0.393  14.065
65036SOL     OW96881  13.499   1.527  12.056
65036SOL    HW196882  13.430   1.468  12.028
65036SOL    HW296883  13.470   1.614  12.027
65037SOL     OW96884   9.323   6.319   3.453
65037SOL    HW196885   9.336   6.232   3.414
65037SOL    HW296886   9.280   6.370   3.385
65038SOL     OW96887   6.949   2.850   7.895
65038SOL    HW196888   7.022   2.787   7.897
65038SOL    HW296889   6.990   2.935   7.914
65039SOL     OW96890   3.216  12.944  13.036
65039SOL    HW196891   3.144  13.005  13.052
65039SOL    HW296892   3.248  12.921  13.123
65040SOL     OW96893  13.866   5.351   1.992
65040SOL    HW196894  13.804   5.423   2.006
65040SOL    HW296895  13.839   5.284   2.055
65041SOL     OW96896   6.454  11.679  14.748
65041SOL    HW196897   6.390  11.680  14.819
65041SOL    HW296898   6.410  11.720  14.674
65042SOL     OW96899  11.222  11.372   9.684
65042SOL    HW196900  11.214  11.382   9.589
65042SOL    HW296901  11.295  11.429   9.708
65043SOL     OW96902   9.643  11.185   8.702
65043SOL    HW196903   9.547  11.190   8.704
65043SOL    HW296904   9.666  11.147   8.786
65044SOL     OW96905  12.551   3.967   9.684
65044SOL    HW196906  12.618   3.938   9.747
65044SOL    HW296907  12.601   3.999   9.609
65045SOL     OW96908   1.625  13.059   9.665
65045SOL    HW196909   1.699  13.017   9.708
65045SOL    HW296910   1.624  13.021   9.577
65046SOL     OW96911   6.670  14.695  10.972
65046SOL    HW196912   6.721  14.757  11.025
65046SOL    HW296913   6.605  14.750  10.928
65047SOL     OW96914   6.170   6.602   0.283
65047SOL    HW196915   6.189   6.624   0.191
65047SOL    HW296916   6.080   6.629   0.295
65048SOL     OW96917   1.136  12.826  11.551
65048SOL    HW196918   1.150  12.921  11.552
65048SOL    HW296919   1.178  12.795  11.631
65049SOL     OW96920  13.499   4.959  11.934
65049SOL    HW196921  13.450   5.007  11.868
65049SOL    HW296922  13.437   4.895  11.969
65050SOL     OW96923   4.426   1.678   0.875
65050SOL    HW196924   4.401   1.607   0.933
65050SOL    HW296925   4.457   1.747   0.934
65051SOL     OW96926   3.330   6.526  14.400
65051SOL    HW196927   3.377   6.588  14.456
65051SOL    HW296928   3.377   6.444  14.411
65052SOL     OW96929   8.968  13.809   1.879
65052SOL    HW196930   9.003  13.898   1.870
65052SOL    HW296931   9.031  13.765   1.937
65053SOL     OW96932   7.410   8.377  13.413
65053SOL    HW196933   7.476   8.382  13.344
65053SOL    HW296934   7.328   8.402  13.371
65054SOL     OW96935   7.394   2.081   7.197
65054SOL    HW196936   7.362   2.109   7.111
65054SOL    HW296937   7.316   2.077   7.252
65055SOL     OW96938   7.732   6.438   0.411
65055SOL    HW196939   7.683   6.362   0.445
65055SOL    HW296940   7.746   6.493   0.488
65056SOL     OW96941   4.439  12.945   7.641
65056SOL    HW196942   4.432  12.915   7.732
65056SOL    HW296943   4.353  12.930   7.604
65057SOL     OW96944  12.839   8.172  12.641
65057SOL    HW196945  12.901   8.132  12.702
65057SOL    HW296946  12.851   8.266  12.652
65058SOL     OW96947  12.131   6.944   6.723
65058SOL    HW196948  12.058   6.954   6.785
65058SOL    HW296949  12.195   7.009   6.752
65059SOL     OW96950   3.354   9.191   1.233
65059SOL    HW196951   3.350   9.096   1.243
65059SOL    HW296952   3.447   9.211   1.227
65060SOL     OW96953  12.353   2.227  12.657
65060SOL    HW196954  12.317   2.138  12.664
65060SOL    HW296955  12.401   2.227  12.574
65061SOL     OW96956   9.647  14.195  13.867
65061SOL    HW196957   9.676  14.193  13.775
65061SOL    HW296958   9.552  14.183  13.861
65062SOL     OW96959  14.187   0.342   1.425
65062SOL    HW196960  14.269   0.369   1.467
65062SOL    HW296961  14.214   0.292   1.349
65063SOL     OW96962   3.154  12.959  11.088
65063SOL    HW196963   3.085  12.894  11.104
65063SOL    HW296964   3.166  12.959  10.993
65064SOL     OW96965   7.673   0.655   1.395
65064SOL    HW196966   7.681   0.732   1.338
65064SOL    HW296967   7.757   0.648   1.438
65065SOL     OW96968   9.220   6.805  13.885
65065SOL    HW196969   9.161   6.880  13.880
65065SOL    HW296970   9.259   6.809  13.973
65066SOL     OW96971  11.727   9.270  14.726
65066SOL    HW196972  11.664   9.285  14.655
65066SOL    HW296973  11.748   9.177  14.720
65067SOL     OW96974   1.705   8.741   0.707
65067SOL    HW196975   1.645   8.671   0.732
65067SOL    HW296976   1.785   8.725   0.757
65068SOL     OW96977  10.377  12.720   0.854
65068SOL    HW196978  10.304  12.696   0.912
65068SOL    HW296979  10.446  12.656   0.875
65069SOL     OW96980   7.713   6.084  11.191
65069SOL    HW196981   7.769   6.099  11.267
65069SOL    HW296982   7.631   6.052  11.229
65070SOL     OW96983  14.682   5.731   9.138
65070SOL    HW196984  14.598   5.750   9.181
65070SOL    HW296985  14.730   5.814   9.142
65071SOL     OW96986  10.527   3.331  13.940
65071SOL    HW196987  10.607   3.307  13.986
65071SOL    HW296988  10.477   3.383  14.003
65072SOL     OW96989   1.826   5.810  12.631
65072SOL    HW196990   1.799   5.751  12.561
65072SOL    HW296991   1.743   5.844  12.666
65073SOL     OW96992  14.767   4.311   2.866
65073SOL    HW196993  14.807   4.388   2.827
65073SOL    HW296994  14.691   4.293   2.810
65074SOL     OW96995  14.645  12.998  13.780
65074SOL    HW196996  14.732  12.984  13.742
65074SOL    HW296997  14.616  13.082  13.745
65075SOL     OW96998   2.838  11.362   3.373
65075SOL    HW196999   2.905  11.296   3.357
65075SOL    HW297000   2.755  11.314   3.369
65076SOL     OW97001  12.202  12.962   4.721
65076SOL    HW197002  12.216  12.981   4.629
65076SOL    HW297003  12.271  13.010   4.767
65077SOL     OW97004   5.927   1.606   5.605
65077SOL    HW197005   5.900   1.575   5.691
65077SOL    HW297006   5.896   1.697   5.602
65078SOL     OW97007   7.926   2.392   4.190
65078SOL    HW197008   8.018   2.403   4.214
65078SOL    HW297009   7.878   2.411   4.270
65079SOL     OW97010   5.981   6.462   2.210
65079SOL    HW197011   5.993   6.453   2.116
65079SOL    HW297012   6.051   6.409   2.249
65080SOL     OW97013   8.880   8.741  10.915
65080SOL    HW197014   8.879   8.733  10.820
65080SOL    HW297015   8.837   8.825  10.933
65081SOL     OW97016  12.211  12.603   8.209
65081SOL    HW197017  12.196  12.534   8.144
65081SOL    HW297018  12.131  12.656   8.206
65082SOL     OW97019  10.979   5.113  13.719
65082SOL    HW197020  10.964   5.042  13.781
65082SOL    HW297021  10.994   5.069  13.635
65083SOL     OW97022  13.501  14.126  14.585
65083SOL    HW197023  13.430  14.152  14.526
65083SOL    HW297024  13.540  14.049  14.544
65084SOL     OW97025   9.925   4.587   5.704
65084SOL    HW197026   9.902   4.518   5.766
65084SOL    HW297027   9.984   4.545   5.642
65085SOL     OW97028  13.542   5.149   8.014
65085SOL    HW197029  13.452   5.175   7.997
65085SOL    HW297030  13.541   5.053   8.007
65086SOL     OW97031   8.357   7.769   1.146
65086SOL    HW197032   8.371   7.854   1.189
65086SOL    HW297033   8.438   7.753   1.098
65087SOL     OW97034  11.357   1.283   8.275
65087SOL    HW197035  11.424   1.217   8.292
65087SOL    HW297036  11.300   1.243   8.209
65088SOL     OW97037  10.189  13.626   8.861
65088SOL    HW197038  10.154  13.541   8.889
65088SOL    HW297039  10.251  13.651   8.929
65089SOL     OW97040  13.681   3.846   7.234
65089SOL    HW197041  13.720   3.864   7.148
65089SOL    HW297042  13.751   3.804   7.284
65090SOL     OW97043   5.949  14.162  13.989
65090SOL    HW197044   6.003  14.183  14.065
65090SOL    HW297045   5.866  14.132  14.025
65091SOL     OW97046   0.578  10.073   3.308
65091SOL    HW197047   0.530  10.156   3.312
65091SOL    HW297048   0.658  10.095   3.261
65092SOL     OW97049   8.433   3.341   6.862
65092SOL    HW197050   8.451   3.251   6.836
65092SOL    HW297051   8.505   3.392   6.826
65093SOL     OW97052   5.900   0.165   8.140
65093SOL    HW197053   5.975   0.161   8.200
65093SOL    HW297054   5.919   0.240   8.083
65094SOL     OW97055  12.276   1.749   1.264
65094SOL    HW197056  12.366   1.716   1.261
65094SOL    HW297057  12.284   1.839   1.297
65095SOL     OW97058   8.327   9.515  10.542
65095SOL    HW197059   8.256   9.518  10.605
65095SOL    HW297060   8.285   9.525  10.457
65096SOL     OW97061   9.205   9.336   6.349
65096SOL    HW197062   9.137   9.357   6.414
65096SOL    HW297063   9.258   9.269   6.391
65097SOL     OW97064  12.064  12.023   0.965
65097SOL    HW197065  12.098  11.943   0.923
65097SOL    HW297066  12.100  12.020   1.054
65098SOL     OW97067  14.771   5.942   1.158
65098SOL    HW197068  14.710   5.988   1.101
65098SOL    HW297069  14.775   5.853   1.124
65099SOL     OW97070  10.967   5.289   9.749
65099SOL    HW197071  11.034   5.308   9.815
65099SOL    HW297072  10.948   5.196   9.761
65100SOL     OW97073   6.877   7.896  11.998
65100SOL    HW197074   6.844   7.906  11.909
65100SOL    HW297075   6.934   7.972  12.012
65101SOL     OW97076   4.513   6.051  11.641
65101SOL    HW197077   4.541   5.961  11.626
65101SOL    HW297078   4.482   6.081  11.555
65102SOL     OW97079   0.074  14.644   0.887
65102SOL    HW197080   0.070  14.654   0.983
65102SOL    HW297081   0.035  14.558   0.871
65103SOL     OW97082   6.957   5.911   5.261
65103SOL    HW197083   7.004   5.988   5.230
65103SOL    HW297084   6.933   5.864   5.181
65104SOL     OW97085  13.239   7.139  12.579
65104SOL    HW197086  13.237   7.229  12.547
65104SOL    HW297087  13.310   7.138  12.644
65105SOL     OW97088   1.296   3.541   4.256
65105SOL    HW197089   1.316   3.450   4.232
65105SOL    HW297090   1.236   3.571   4.188
65106SOL     OW97091   2.192   5.218  10.047
65106SOL    HW197092   2.136   5.206  10.124
65106SOL    HW297093   2.131   5.229   9.974
65107SOL     OW97094   9.389   8.277  12.731
65107SOL    HW197095   9.302   8.294  12.697
65107SOL    HW297096   9.419   8.198  12.685
65108SOL     OW97097   0.516   2.582   9.982
65108SOL    HW197098   0.536   2.541   9.898
65108SOL    HW297099   0.598   2.576  10.031
65109SOL     OW97100  14.678   4.239   6.024
65109SOL    HW197101  14.636   4.243   5.937
65109SOL    HW297102  14.772   4.236   6.005
65110SOL     OW97103   8.652   4.894   8.028
65110SOL    HW197104   8.605   4.810   8.028
65110SOL    HW297105   8.626   4.935   8.111
65111SOL     OW97106  10.240   5.569   8.982
65111SOL    HW197107  10.298   5.557   9.058
65111SOL    HW297108  10.244   5.486   8.935
65112SOL     OW97109   4.290   1.105   3.665
65112SOL    HW197110   4.386   1.106   3.673
65112SOL    HW297111   4.261   1.047   3.735
65113SOL     OW97112   0.223  10.154   6.911
65113SOL    HW197113   0.268  10.203   6.843
65113SOL    HW297114   0.130  10.170   6.894
65114SOL     OW97115  11.055  12.091   7.087
65114SOL    HW197116  11.055  12.008   7.135
65114SOL    HW297117  11.024  12.067   6.999
65115SOL     OW97118   0.874  12.928   0.861
65115SOL    HW197119   0.825  12.999   0.903
65115SOL    HW297120   0.851  12.935   0.768
65116SOL     OW97121   5.823  14.232   1.084
65116SOL    HW197122   5.829  14.176   1.007
65116SOL    HW297123   5.784  14.313   1.053
65117SOL     OW97124  11.490   7.798  11.836
65117SOL    HW197125  11.427   7.729  11.818
65117SOL    HW297126  11.439   7.879  11.829
65118SOL     OW97127   8.690  13.973  12.888
65118SOL    HW197128   8.695  14.056  12.935
65118SOL    HW297129   8.675  13.907  12.957
65119SOL     OW97130  10.219   9.596   6.254
65119SOL    HW197131  10.189   9.542   6.181
65119SOL    HW297132  10.182   9.556   6.332
65120SOL     OW97133   1.444  14.691   4.384
65120SOL    HW197134   1.476  14.601   4.377
65120SOL    HW297135   1.492  14.728   4.458
65121SOL     OW97136  14.531  13.412   6.735
65121SOL    HW197137  14.585  13.347   6.780
65121SOL    HW297138  14.510  13.372   6.651
65122SOL     OW97139   0.808   7.793  12.829
65122SOL    HW197140   0.715   7.806  12.811
65122SOL    HW297141   0.842   7.880  12.847
65123SOL     OW97142  10.056   7.909   2.960
65123SOL    HW197143   9.975   7.956   2.981
65123SOL    HW297144  10.088   7.949   2.879
65124SOL     OW97145  10.013   9.753   0.978
65124SOL    HW197146   9.982   9.690   1.043
65124SOL    HW297147   9.985   9.838   1.011
65125SOL     OW97148   3.154  10.795   5.453
65125SOL    HW197149   3.067  10.784   5.413
65125SOL    HW297150   3.209  10.827   5.382
65126SOL     OW97151   2.784   6.484  10.185
65126SOL    HW197152   2.756   6.501  10.276
65126SOL    HW297153   2.876   6.462  10.193
65127SOL     OW97154   5.637   0.089   1.512
65127SOL    HW197155   5.666   0.021   1.451
65127SOL    HW297156   5.707   0.155   1.509
65128SOL     OW97157   8.780   0.260   5.688
65128SOL    HW197158   8.741   0.335   5.731
65128SOL    HW297159   8.808   0.203   5.759
65129SOL     OW97160  12.575   3.256   3.520
65129SOL    HW197161  12.517   3.183   3.541
65129SOL    HW297162  12.629   3.267   3.599
65130SOL     OW97163   1.443   8.542  14.156
65130SOL    HW197164   1.488   8.485  14.219
65130SOL    HW297165   1.504   8.614  14.142
65131SOL     OW97166   1.981   2.136   1.108
65131SOL    HW197167   2.021   2.094   1.184
65131SOL    HW297168   1.958   2.224   1.139
65132SOL     OW97169  13.435  10.229   7.055
65132SOL    HW197170  13.525  10.255   7.075
65132SOL    HW297171  13.436  10.210   6.961
65133SOL     OW97172   2.590   2.388   6.110
65133SOL    HW197173   2.594   2.306   6.061
65133SOL    HW297174   2.642   2.371   6.189
65134SOL     OW97175   2.127   1.949   0.411
65134SOL    HW197176   2.161   1.947   0.501
65134SOL    HW297177   2.204   1.968   0.357
65135SOL     OW97178   6.066   8.103   9.262
65135SOL    HW197179   6.002   8.036   9.237
65135SOL    HW297180   6.150   8.066   9.236
65136SOL     OW97181   5.272   1.845   8.617
65136SOL    HW197182   5.212   1.770   8.621
65136SOL    HW297183   5.267   1.884   8.704
65137SOL     OW97184   2.099   9.664   1.070
65137SOL    HW197185   2.095   9.757   1.047
65137SOL    HW297186   2.034   9.653   1.139
65138SOL     OW97187   6.576  10.834  14.151
65138SOL    HW197188   6.613  10.750  14.179
65138SOL    HW297189   6.639  10.870  14.090
65139SOL     OW97190   0.978  12.660  12.153
65139SOL    HW197191   0.960  12.699  12.068
65139SOL    HW297192   0.923  12.581  12.155
65140SOL     OW97193  14.026   4.009   6.759
65140SOL    HW197194  13.965   4.074   6.727
65140SOL    HW297195  14.020   3.937   6.696
65141SOL     OW97196   7.907   8.102   7.969
65141SOL    HW197197   7.933   8.041   7.899
65141SOL    HW297198   7.936   8.188   7.938
65142SOL     OW97199   6.779   3.341  14.032
65142SOL    HW197200   6.720   3.387  13.973
65142SOL    HW297201   6.844   3.407  14.056
65143SOL     OW97202   8.377   0.431   5.735
65143SOL    HW197203   8.368   0.458   5.643
65143SOL    HW297204   8.291   0.449   5.773
65144SOL     OW97205  13.308  11.471  11.677
65144SOL    HW197206  13.361  11.472  11.598
65144SOL    HW297207  13.218  11.470  11.645
65145SOL     OW97208   1.668   1.846   2.432
65145SOL    HW197209   1.763   1.830   2.428
65145SOL    HW297210   1.645   1.822   2.522
65146SOL     OW97211  12.939   8.230   9.222
65146SOL    HW197212  12.950   8.319   9.189
65146SOL    HW297213  13.026   8.190   9.213
65147SOL     OW97214   1.560  14.511  10.101
65147SOL    HW197215   1.532  14.420  10.106
65147SOL    HW297216   1.608  14.518  10.018
65148SOL     OW97217  14.770  10.168   3.834
65148SOL    HW197218  14.787  10.106   3.905
65148SOL    HW297219  14.810  10.250   3.864
65149SOL     OW97220  11.421   9.730   6.995
65149SOL    HW197221  11.473   9.804   7.023
65149SOL    HW297222  11.479   9.680   6.938
65150SOL     OW97223   9.874  14.314  12.077
65150SOL    HW197224   9.803  14.311  12.142
65150SOL    HW297225   9.844  14.256  12.007
65151SOL     OW97226   8.395  11.380  10.545
65151SOL    HW197227   8.314  11.372  10.494
65151SOL    HW297228   8.373  11.339  10.629
65152SOL     OW97229  14.323   7.599  13.663
65152SOL    HW197230  14.332   7.566  13.574
65152SOL    HW297231  14.406   7.642  13.682
65153SOL     OW97232  10.158   6.096   7.491
65153SOL    HW197233  10.087   6.150   7.525
65153SOL    HW297234  10.155   6.016   7.544
65154SOL     OW97235   6.357   9.452   8.529
65154SOL    HW197236   6.273   9.464   8.573
65154SOL    HW297237   6.353   9.363   8.492
65155SOL     OW97238   6.495   2.427   5.274
65155SOL    HW197239   6.497   2.370   5.352
65155SOL    HW297240   6.461   2.510   5.306
65156SOL     OW97241  13.122   5.453   1.094
65156SOL    HW197242  13.050   5.423   1.149
65156SOL    HW297243  13.200   5.440   1.148
65157SOL     OW97244  14.728  10.686   5.812
65157SOL    HW197245  14.768  10.601   5.793
65157SOL    HW297246  14.801  10.748   5.808
65158SOL     OW97247   3.736  10.519   3.141
65158SOL    HW197248   3.814  10.511   3.085
65158SOL    HW297249   3.705  10.608   3.126
65159SOL     OW97250   9.767   4.587  14.421
65159SOL    HW197251   9.724   4.574  14.336
65159SOL    HW297252   9.758   4.680  14.438
65160SOL     OW97253  10.275   4.450  12.960
65160SOL    HW197254  10.267   4.408  13.045
65160SOL    HW297255  10.365   4.483  12.957
65161SOL     OW97256   2.507  14.465   4.511
65161SOL    HW197257   2.552  14.547   4.531
65161SOL    HW297258   2.424  14.472   4.558
65162SOL     OW97259  13.175   8.528   2.642
65162SOL    HW197260  13.179   8.510   2.736
65162SOL    HW297261  13.250   8.585   2.625
65163SOL     OW97262   8.923   4.002   4.315
65163SOL    HW197263   8.889   4.081   4.273
65163SOL    HW297264   8.998   3.977   4.260
65164SOL     OW97265  13.243  12.583  10.222
65164SOL    HW197266  13.258  12.633  10.142
65164SOL    HW297267  13.148  12.579  10.231
65165SOL     OW97268   4.897  14.079   6.183
65165SOL    HW197269   4.830  14.104   6.119
65165SOL    HW297270   4.914  14.159   6.233
65166SOL     OW97271   1.791   2.511  10.958
65166SOL    HW197272   1.797   2.416  10.957
65166SOL    HW297273   1.750   2.532  11.042
65167SOL     OW97274  10.435   4.060   6.651
65167SOL    HW197275  10.475   4.118   6.587
65167SOL    HW297276  10.404   4.118   6.721
65168SOL     OW97277  11.970   4.821   4.230
65168SOL    HW197278  11.920   4.902   4.242
65168SOL    HW297279  12.061   4.848   4.239
65169SOL     OW97280   6.321  11.476  13.033
65169SOL    HW197281   6.348  11.385  13.019
65169SOL    HW297282   6.329  11.517  12.947
65170SOL     OW97283   7.714   5.636   1.755
65170SOL    HW197284   7.778   5.707   1.763
65170SOL    HW297285   7.675   5.649   1.669
65171SOL     OW97286  11.083   8.845   7.400
65171SOL    HW197287  11.061   8.751   7.398
65171SOL    HW297288  11.103   8.862   7.492
65172SOL     OW97289   6.652   6.993  14.507
65172SOL    HW197290   6.562   6.981  14.478
65172SOL    HW297291   6.648   7.066  14.569
65173SOL     OW97292   7.849   0.612   8.171
65173SOL    HW197293   7.852   0.599   8.266
65173SOL    HW297294   7.939   0.635   8.148
65174SOL     OW97295  12.027   9.737   5.666
65174SOL    HW197296  11.982   9.803   5.614
65174SOL    HW297297  12.103   9.783   5.703
65175SOL     OW97298   8.053   3.648   7.602
65175SOL    HW197299   8.129   3.621   7.550
65175SOL    HW297300   7.979   3.644   7.540
65176SOL     OW97301  13.583   7.182   5.406
65176SOL    HW197302  13.657   7.149   5.355
65176SOL    HW297303  13.565   7.113   5.470
65177SOL     OW97304   2.446   6.261  14.357
65177SOL    HW197305   2.387   6.313  14.412
65177SOL    HW297306   2.533   6.297  14.374
65178SOL     OW97307  12.867   8.044   6.117
65178SOL    HW197308  12.835   8.031   6.206
65178SOL    HW297309  12.792   8.026   6.061
65179SOL     OW97310   2.694  10.200   0.080
65179SOL    HW197311   2.772  10.245   0.112
65179SOL    HW297312   2.717  10.170  14.870
65180SOL     OW97313   2.108  12.945   8.764
65180SOL    HW197314   2.030  12.974   8.717
65180SOL    HW297315   2.163  12.905   8.696
65181SOL     OW97316  12.637  11.335  13.801
65181SOL    HW197317  12.691  11.257  13.788
65181SOL    HW297318  12.551  11.310  13.767
65182SOL     OW97319   1.743   8.786  10.498
65182SOL    HW197320   1.742   8.784  10.403
65182SOL    HW297321   1.829   8.750  10.522
65183SOL     OW97322   0.728  12.041  14.072
65183SOL    HW197323   0.712  11.991  14.152
65183SOL    HW297324   0.734  12.132  14.102
65184SOL     OW97325   0.360   4.670   6.366
65184SOL    HW197326   0.397   4.680   6.453
65184SOL    HW297327   0.435   4.650   6.310
65185SOL     OW97328   2.998   0.139  11.831
65185SOL    HW197329   3.047   0.187  11.764
65185SOL    HW297330   3.007   0.047  11.806
65186SOL     OW97331   0.517   8.445  11.931
65186SOL    HW197332   0.532   8.524  11.878
65186SOL    HW297333   0.432   8.460  11.973
65187SOL     OW97334  11.258   3.968  13.665
65187SOL    HW197335  11.346   3.934  13.682
65187SOL    HW297336  11.256   4.054  13.707
65188SOL     OW97337  13.569   1.870  12.381
65188SOL    HW197338  13.665   1.868  12.388
65188SOL    HW297339  13.542   1.780  12.400
65189SOL     OW97340   9.948   7.142   6.255
65189SOL    HW197341   9.897   7.205   6.204
65189SOL    HW297342   9.975   7.076   6.191
65190SOL     OW97343   5.409   2.409   3.225
65190SOL    HW197344   5.488   2.438   3.178
65190SOL    HW297345   5.342   2.404   3.157
65191SOL     OW97346   8.369  14.439   8.604
65191SOL    HW197347   8.348  14.533   8.603
65191SOL    HW297348   8.361  14.414   8.697
65192SOL     OW97349   6.685   5.914   3.529
65192SOL    HW197350   6.761   5.972   3.540
65192SOL    HW297351   6.615   5.972   3.500
65193SOL     OW97352   5.834   7.640   0.159
65193SOL    HW197353   5.862   7.562   0.110
65193SOL    HW297354   5.801   7.605   0.242
65194SOL     OW97355  12.865   4.840   0.351
65194SOL    HW197356  12.833   4.919   0.393
65194SOL    HW297357  12.789   4.781   0.349
65195SOL     OW97358  13.257  13.586  14.012
65195SOL    HW197359  13.230  13.674  13.989
65195SOL    HW297360  13.334  13.570  13.958
65196SOL     OW97361  13.149  11.634   0.269
65196SOL    HW197362  13.065  11.592   0.287
65196SOL    HW297363  13.162  11.693   0.344
65197SOL     OW97364  13.399   5.527  13.088
65197SOL    HW197365  13.407   5.435  13.113
65197SOL    HW297366  13.463   5.539  13.018
65198SOL     OW97367  10.584   9.458   3.092
65198SOL    HW197368  10.610   9.481   3.003
65198SOL    HW297369  10.666   9.440   3.138
65199SOL     OW97370   8.478   9.889   1.414
65199SOL    HW197371   8.478   9.917   1.506
65199SOL    HW297372   8.479   9.970   1.364
65200SOL     OW97373  13.975   7.488   7.807
65200SOL    HW197374  14.031   7.425   7.853
65200SOL    HW297375  14.012   7.491   7.719
65201SOL     OW97376  13.965  14.412   6.781
65201SOL    HW197377  14.003  14.384   6.698
65201SOL    HW297378  14.039  14.419   6.841
65202SOL     OW97379  11.592   0.940   3.044
65202SOL    HW197380  11.543   1.022   3.044
65202SOL    HW297381  11.640   0.941   2.961
65203SOL     OW97382   0.201  12.520   4.546
65203SOL    HW197383   0.143  12.463   4.495
65203SOL    HW297384   0.258  12.560   4.482
65204SOL     OW97385   3.427   7.905   7.425
65204SOL    HW197386   3.496   7.895   7.360
65204SOL    HW297387   3.361   7.841   7.401
65205SOL     OW97388   2.473   5.130   3.107
65205SOL    HW197389   2.474   5.213   3.156
65205SOL    HW297390   2.547   5.080   3.142
65206SOL     OW97391   9.173   5.865   6.567
65206SOL    HW197392   9.194   5.944   6.517
65206SOL    HW297393   9.179   5.891   6.658
65207SOL     OW97394   3.551   4.734   6.418
65207SOL    HW197395   3.460   4.762   6.423
65207SOL    HW297396   3.591   4.768   6.498
65208SOL     OW97397   6.523   6.299   3.696
65208SOL    HW197398   6.489   6.302   3.786
65208SOL    HW297399   6.461   6.244   3.649
65209SOL     OW97400   9.940  12.303   2.554
65209SOL    HW197401   9.987  12.293   2.471
65209SOL    HW297402   9.867  12.361   2.533
65210SOL     OW97403   1.567  14.100   6.594
65210SOL    HW197404   1.558  14.057   6.679
65210SOL    HW297405   1.510  14.177   6.599
65211SOL     OW97406  10.137   4.857   6.546
65211SOL    HW197407  10.223   4.821   6.565
65211SOL    HW297408  10.108   4.811   6.467
65212SOL     OW97409  11.923   2.077  13.962
65212SOL    HW197410  11.904   2.059  13.870
65212SOL    HW297411  11.913   2.172  13.970
65213SOL     OW97412  12.790   1.797  14.307
65213SOL    HW197413  12.722   1.734  14.284
65213SOL    HW297414  12.871   1.758  14.274
65214SOL     OW97415   3.638   5.312  11.420
65214SOL    HW197416   3.594   5.227  11.426
65214SOL    HW297417   3.705   5.300  11.353
65215SOL     OW97418   7.161   0.248   1.089
65215SOL    HW197419   7.248   0.275   1.118
65215SOL    HW297420   7.176   0.165   1.043
65216SOL     OW97421   2.661   3.375   5.798
65216SOL    HW197422   2.707   3.325   5.864
65216SOL    HW297423   2.715   3.367   5.719
65217SOL     OW97424   1.157   6.229   5.377
65217SOL    HW197425   1.226   6.289   5.402
65217SOL    HW297426   1.133   6.254   5.288
65218SOL     OW97427   4.151   1.285   4.066
65218SOL    HW197428   4.246   1.292   4.060
65218SOL    HW297429   4.132   1.193   4.050
65219SOL     OW97430   2.791   3.184   4.736
65219SOL    HW197431   2.874   3.220   4.766
65219SOL    HW297432   2.725   3.245   4.768
65220SOL     OW97433  10.693   1.427   4.195
65220SOL    HW197434  10.722   1.337   4.211
65220SOL    HW297435  10.770   1.472   4.160
65221SOL     OW97436   3.014  14.859   1.944
65221SOL    HW197437   3.034  14.771   1.974
65221SOL    HW297438   2.988  14.848   1.853
65222SOL     OW97439  11.710   4.904   9.466
65222SOL    HW197440  11.649   4.932   9.534
65222SOL    HW297441  11.659   4.910   9.385
65223SOL     OW97442   4.106  13.071   8.718
65223SOL    HW197443   4.076  13.132   8.651
65223SOL    HW297444   4.142  12.997   8.670
65224SOL     OW97445   4.928  10.613  10.308
65224SOL    HW197446   5.017  10.602  10.274
65224SOL    HW297447   4.886  10.528  10.291
65225SOL     OW97448   9.690   3.876   0.366
65225SOL    HW197449   9.714   3.899   0.456
65225SOL    HW297450   9.596   3.891   0.361
65226SOL     OW97451  14.071   0.063   6.098
65226SOL    HW197452  14.059  14.856   6.056
65226SOL    HW297453  14.029   0.126   6.039
65227SOL     OW97454   3.581   7.791   0.892
65227SOL    HW197455   3.663   7.767   0.849
65227SOL    HW297456   3.606   7.810   0.982
65228SOL     OW97457   9.035   7.990  10.474
65228SOL    HW197458   8.968   8.054  10.450
65228SOL    HW297459   9.117   8.041  10.475
65229SOL     OW97460   5.385  13.606  11.170
65229SOL    HW197461   5.458  13.576  11.115
65229SOL    HW297462   5.367  13.534  11.229
65230SOL     OW97463  11.475   8.169   6.356
65230SOL    HW197464  11.395   8.211   6.327
65230SOL    HW297465  11.507   8.120   6.280
65231SOL     OW97466  10.877  10.554   1.009
65231SOL    HW197467  10.856  10.464   1.033
65231SOL    HW297468  10.928  10.546   0.928
65232SOL     OW97469   8.077  13.766   3.849
65232SOL    HW197470   8.148  13.710   3.817
65232SOL    HW297471   8.121  13.839   3.892
65233SOL     OW97472   8.555   2.958   3.606
65233SOL    HW197473   8.595   2.902   3.539
65233SOL    HW297474   8.628   3.010   3.641
65234SOL     OW97475  13.421  10.119   7.305
65234SOL    HW197476  13.507  10.161   7.292
65234SOL    HW297477  13.369  10.147   7.229
65235SOL     OW97478   6.586  13.088   2.393
65235SOL    HW197479   6.613  13.171   2.355
65235SOL    HW297480   6.619  13.022   2.333
65236SOL     OW97481   0.052   0.173   1.065
65236SOL    HW197482   0.027   0.121   1.142
65236SOL    HW297483   0.015   0.259   1.082
65237SOL     OW97484  10.723   0.362  12.898
65237SOL    HW197485  10.673   0.424  12.950
65237SOL    HW297486  10.716   0.279  12.945
65238SOL     OW97487  11.904   2.292   1.168
65238SOL    HW197488  11.998   2.308   1.166
65238SOL    HW297489  11.893   2.210   1.119
65239SOL     OW97490   4.237  14.026   1.971
65239SOL    HW197491   4.296  14.021   2.047
65239SOL    HW297492   4.285  14.079   1.907
65240SOL     OW97493  10.203  14.872   4.541
65240SOL    HW197494  10.255  14.793   4.525
65240SOL    HW297495  10.203   0.004   4.636
65241SOL     OW97496   7.679   0.933   2.191
65241SOL    HW197497   7.696   0.887   2.274
65241SOL    HW297498   7.586   0.916   2.173
65242SOL     OW97499   5.349  13.640   7.299
65242SOL    HW197500   5.333  13.674   7.387
65242SOL    HW297501   5.445  13.643   7.290
65243SOL     OW97502   1.375   2.844  14.086
65243SOL    HW197503   1.289   2.884  14.099
65243SOL    HW297504   1.430   2.883  14.154
65244SOL     OW97505  11.166   9.659  13.223
65244SOL    HW197506  11.159   9.634  13.315
65244SOL    HW297507  11.199   9.581  13.179
65245SOL     OW97508  13.927  11.600   6.743
65245SOL    HW197509  13.996  11.576   6.804
65245SOL    HW297510  13.927  11.530   6.677
65246SOL     OW97511  13.162   2.073   5.168
65246SOL    HW197512  13.186   2.159   5.201
65246SOL    HW297513  13.147   2.020   5.246
65247SOL     OW97514   8.342  12.997  10.434
65247SOL    HW197515   8.328  12.903  10.442
65247SOL    HW297516   8.351  13.011  10.339
65248SOL     OW97517  14.538   8.601   9.088
65248SOL    HW197518  14.537   8.694   9.066
65248SOL    HW297519  14.461   8.565   9.044
65249SOL     OW97520   5.642   4.620  11.027
65249SOL    HW197521   5.662   4.537  11.071
65249SOL    HW297522   5.634   4.684  11.098
65250SOL     OW97523  13.347  11.260  13.125
65250SOL    HW197524  13.274  11.322  13.123
65250SOL    HW297525  13.337  11.209  13.045
65251SOL     OW97526   3.831   6.925   2.001
65251SOL    HW197527   3.786   6.969   1.928
65251SOL    HW297528   3.763   6.911   2.066
65252SOL     OW97529   4.120   7.958   4.890
65252SOL    HW197530   4.132   7.865   4.908
65252SOL    HW297531   4.165   7.973   4.807
65253SOL     OW97532   5.396   5.194  10.641
65253SOL    HW197533   5.318   5.219  10.690
65253SOL    HW297534   5.377   5.107  10.606
65254SOL     OW97535   9.444  12.506   4.924
65254SOL    HW197536   9.491  12.580   4.884
65254SOL    HW297537   9.512  12.441   4.940
65255SOL     OW97538   2.172   6.582  11.577
65255SOL    HW197539   2.256   6.617  11.546
65255SOL    HW297540   2.196   6.512  11.637
65256SOL     OW97541   3.250  12.093   7.292
65256SOL    HW197542   3.256  12.152   7.367
65256SOL    HW297543   3.192  12.023   7.321
65257SOL     OW97544  13.260  10.175   8.674
65257SOL    HW197545  13.198  10.246   8.688
65257SOL    HW297546  13.221  10.124   8.603
65258SOL     OW97547   4.884   3.191   6.755
65258SOL    HW197548   4.859   3.280   6.728
65258SOL    HW297549   4.863   3.187   6.848
65259SOL     OW97550   8.109   8.080   2.841
65259SOL    HW197551   8.049   8.152   2.821
65259SOL    HW297552   8.186   8.121   2.879
65260SOL     OW97553  13.429   3.773  12.852
65260SOL    HW197554  13.367   3.846  12.854
65260SOL    HW297555  13.388   3.706  12.907
65261SOL     OW97556  10.241   0.769   4.097
65261SOL    HW197557  10.250   0.830   4.171
65261SOL    HW297558  10.320   0.715   4.102
65262SOL     OW97559   6.704   5.795  14.814
65262SOL    HW197560   6.789   5.752  14.828
65262SOL    HW297561   6.678   5.826   0.023
65263SOL     OW97562   7.148   6.959   3.691
65263SOL    HW197563   7.119   7.037   3.644
65263SOL    HW297564   7.147   6.889   3.626
65264SOL     OW97565   1.469   5.375   2.052
65264SOL    HW197566   1.484   5.469   2.045
65264SOL    HW297567   1.548   5.340   2.093
65265SOL     OW97568  13.262   5.117   1.647
65265SOL    HW197569  13.184   5.167   1.670
65265SOL    HW297570  13.265   5.121   1.551
65266SOL     OW97571   1.988  11.245   2.615
65266SOL    HW197572   1.949  11.197   2.542
65266SOL    HW297573   1.914  11.293   2.654
65267SOL     OW97574   8.982   0.642   8.919
65267SOL    HW197575   9.031   0.632   8.837
65267SOL    HW297576   8.911   0.578   8.912
65268SOL     OW97577   2.288   5.083  12.229
65268SOL    HW197578   2.248   5.161  12.190
65268SOL    HW297579   2.372   5.113  12.262
65269SOL     OW97580   0.564   2.132  11.176
65269SOL    HW197581   0.517   2.068  11.229
65269SOL    HW297582   0.656   2.107  11.182
65270SOL     OW97583   8.767  10.237  13.948
65270SOL    HW197584   8.829  10.305  13.973
65270SOL    HW297585   8.708  10.229  14.023
65271SOL     OW97586  13.998   7.012   2.411
65271SOL    HW197587  13.923   6.968   2.450
65271SOL    HW297588  13.960   7.079   2.354
65272SOL     OW97589  14.806   7.975   9.711
65272SOL    HW197590  14.814   8.044   9.644
65272SOL    HW297591   0.002   7.990   9.770
65273SOL     OW97592   9.187   4.830   8.777
65273SOL    HW197593   9.258   4.835   8.712
65273SOL    HW297594   9.224   4.870   8.856
65274SOL     OW97595   7.904   4.418   3.959
65274SOL    HW197596   7.823   4.369   3.974
65274SOL    HW297597   7.876   4.509   3.953
65275SOL     OW97598   3.648   9.172  13.529
65275SOL    HW197599   3.601   9.106  13.478
65275SOL    HW297600   3.682   9.124  13.605
65276SOL     OW97601   9.258   2.891   2.420
65276SOL    HW197602   9.227   2.910   2.331
65276SOL    HW297603   9.353   2.901   2.415
65277SOL     OW97604  14.710   7.381   7.790
65277SOL    HW197605  14.725   7.411   7.700
65277SOL    HW297606  14.752   7.447   7.845
65278SOL     OW97607  10.331  10.488  12.319
65278SOL    HW197608  10.408  10.433  12.333
65278SOL    HW297609  10.257  10.434  12.346
65279SOL     OW97610   3.002   3.909  11.980
65279SOL    HW197611   2.983   3.902  12.074
65279SOL    HW297612   2.975   3.825  11.944
65280SOL     OW97613  10.463   6.514   3.456
65280SOL    HW197614  10.456   6.518   3.552
65280SOL    HW297615  10.512   6.434   3.439
65281SOL     OW97616   2.787   1.286  14.579
65281SOL    HW197617   2.695   1.296  14.602
65281SOL    HW297618   2.791   1.203  14.532
65282SOL     OW97619  10.623   5.009   5.262
65282SOL    HW197620  10.714   5.023   5.236
65282SOL    HW297621  10.578   5.089   5.237
65283SOL     OW97622   8.282   5.250   5.549
65283SOL    HW197623   8.296   5.321   5.612
65283SOL    HW297624   8.275   5.295   5.465
65284SOL     OW97625   8.101   1.634   5.931
65284SOL    HW197626   8.042   1.606   6.000
65284SOL    HW297627   8.089   1.569   5.862
65285SOL     OW97628   0.756   3.013  13.983
65285SOL    HW197629   0.683   3.075  13.982
65285SOL    HW297630   0.834   3.068  13.971
65286SOL     OW97631   5.237   6.915   6.717
65286SOL    HW197632   5.325   6.879   6.716
65286SOL    HW297633   5.182   6.846   6.681
65287SOL     OW97634  13.003  12.024   6.111
65287SOL    HW197635  12.980  11.950   6.055
65287SOL    HW297636  13.044  11.985   6.188
65288SOL     OW97637   6.571   5.190   4.368
65288SOL    HW197638   6.637   5.130   4.403
65288SOL    HW297639   6.498   5.184   4.430
65289SOL     OW97640   6.222   7.012  13.396
65289SOL    HW197641   6.139   6.979  13.432
65289SOL    HW297642   6.275   6.934  13.382
65290SOL     OW97643   9.484   3.014  13.517
65290SOL    HW197644   9.505   3.011  13.424
65290SOL    HW297645   9.507   3.103  13.545
65291SOL     OW97646  11.058   0.788  14.059
65291SOL    HW197647  11.021   0.748  14.137
65291SOL    HW297648  11.023   0.736  13.986
65292SOL     OW97649   4.251   1.839  10.985
65292SOL    HW197650   4.320   1.858  11.048
65292SOL    HW297651   4.213   1.757  11.015
65293SOL     OW97652   4.860   3.466  13.631
65293SOL    HW197653   4.796   3.408  13.671
65293SOL    HW297654   4.861   3.544  13.686
65294SOL     OW97655   4.594   4.245  11.030
65294SOL    HW197656   4.518   4.228  10.975
65294SOL    HW297657   4.561   4.238  11.120
65295SOL     OW97658   9.800  11.287   9.520
65295SOL    HW197659   9.754  11.370   9.525
65295SOL    HW297660   9.821  11.265   9.611
65296SOL     OW97661   0.301   8.701   3.379
65296SOL    HW197662   0.228   8.748   3.339
65296SOL    HW297663   0.307   8.738   3.467
65297SOL     OW97664  13.177   9.267  11.210
65297SOL    HW197665  13.117   9.245  11.139
65297SOL    HW297666  13.239   9.194  11.213
65298SOL     OW97667   0.732  10.334   8.467
65298SOL    HW197668   0.800  10.387   8.426
65298SOL    HW297669   0.742  10.350   8.560
65299SOL     OW97670   3.343   2.479  11.928
65299SOL    HW197671   3.430   2.468  11.965
65299SOL    HW297672   3.298   2.537  11.990
65300SOL     OW97673   1.886   9.345   5.160
65300SOL    HW197674   1.954   9.315   5.221
65300SOL    HW297675   1.890   9.282   5.088
65301SOL     OW97676   8.404  12.461  11.037
65301SOL    HW197677   8.386  12.367  11.030
65301SOL    HW297678   8.387  12.481  11.129
65302SOL     OW97679  13.138   5.451  10.112
65302SOL    HW197680  13.117   5.360  10.132
65302SOL    HW297681  13.206   5.475  10.175
65303SOL     OW97682   6.254   7.134   2.035
65303SOL    HW197683   6.200   7.168   1.964
65303SOL    HW297684   6.318   7.203   2.052
65304SOL     OW97685   3.769  13.568  14.606
65304SOL    HW197686   3.742  13.593  14.517
65304SOL    HW297687   3.863  13.587  14.608
65305SOL     OW97688  10.301  13.101  12.182
65305SOL    HW197689  10.225  13.128  12.234
65305SOL    HW297690  10.371  13.159  12.210
65306SOL     OW97691   8.455   7.751   0.080
65306SOL    HW197692   8.545   7.733   0.054
65306SOL    HW297693   8.432   7.679   0.139
65307SOL     OW97694  10.873  10.918   3.154
65307SOL    HW197695  10.860  10.906   3.248
65307SOL    HW297696  10.965  10.895   3.139
65308SOL     OW97697   1.557   0.525   9.657
65308SOL    HW197698   1.580   0.605   9.609
65308SOL    HW297699   1.641   0.482   9.672
65309SOL     OW97700  13.689   1.602   8.990
65309SOL    HW197701  13.721   1.594   9.080
65309SOL    HW297702  13.758   1.563   8.936
65310SOL     OW97703   4.847   6.225   8.396
65310SOL    HW197704   4.812   6.157   8.338
65310SOL    HW297705   4.770   6.272   8.427
65311SOL     OW97706  12.246   1.553   4.768
65311SOL    HW197707  12.297   1.507   4.835
65311SOL    HW297708  12.301   1.551   4.690
65312SOL     OW97709  11.075   0.222   2.161
65312SOL    HW197710  11.018   0.148   2.139
65312SOL    HW297711  11.100   0.258   2.076
65313SOL     OW97712   4.801  11.471  10.771
65313SOL    HW197713   4.808  11.452  10.677
65313SOL    HW297714   4.878  11.525  10.791
65314SOL     OW97715   9.586   5.896  13.000
65314SOL    HW197716   9.544   5.811  12.992
65314SOL    HW297717   9.578   5.935  12.912
65315SOL     OW97718  10.107   9.673  14.091
65315SOL    HW197719  10.033   9.656  14.033
65315SOL    HW297720  10.086   9.755  14.134
65316SOL     OW97721  12.649   0.403   5.214
65316SOL    HW197722  12.588   0.444   5.275
65316SOL    HW297723  12.688   0.332   5.264
65317SOL     OW97724   7.788  13.056   8.668
65317SOL    HW197725   7.694  13.048   8.683
65317SOL    HW297726   7.807  13.149   8.678
65318SOL     OW97727  12.051  13.050   7.982
65318SOL    HW197728  12.082  13.132   8.022
65318SOL    HW297729  11.989  13.079   7.914
65319SOL     OW97730   0.801  10.380   4.504
65319SOL    HW197731   0.774  10.311   4.442
65319SOL    HW297732   0.739  10.451   4.488
65320SOL     OW97733   7.886  11.359   8.828
65320SOL    HW197734   7.791  11.373   8.826
65320SOL    HW297735   7.898  11.275   8.782
65321SOL     OW97736   9.564   4.855  13.598
65321SOL    HW197737   9.599   4.894  13.517
65321SOL    HW297738   9.520   4.927  13.642
65322SOL     OW97739   8.763   3.205   8.023
65322SOL    HW197740   8.848   3.247   8.009
65322SOL    HW297741   8.784   3.122   8.065
65323SOL     OW97742   9.107  11.722   3.142
65323SOL    HW197743   9.120  11.716   3.047
65323SOL    HW297744   9.080  11.812   3.158
65324SOL     OW97745   8.567   9.791   4.804
65324SOL    HW197746   8.638   9.792   4.740
65324SOL    HW297747   8.488   9.771   4.753
65325SOL     OW97748   2.235  13.566   5.821
65325SOL    HW197749   2.224  13.485   5.771
65325SOL    HW297750   2.315  13.552   5.872
65326SOL     OW97751  13.750   4.860   8.031
65326SOL    HW197752  13.800   4.817   8.100
65326SOL    HW297753  13.659   4.842   8.052
65327SOL     OW97754   3.207   6.491  11.892
65327SOL    HW197755   3.209   6.568  11.835
65327SOL    HW297756   3.283   6.502  11.949
65328SOL     OW97757   8.061   7.761   7.334
65328SOL    HW197758   8.109   7.679   7.345
65328SOL    HW297759   8.020   7.777   7.420
65329SOL     OW97760   1.801  11.413   2.711
65329SOL    HW197761   1.846  11.419   2.796
65329SOL    HW297762   1.711  11.390   2.733
65330SOL     OW97763  12.930   7.999   7.613
65330SOL    HW197764  12.943   7.919   7.663
65330SOL    HW297765  12.855   8.042   7.655
65331SOL     OW97766   9.727  11.075   5.423
65331SOL    HW197767   9.776  11.121   5.491
65331SOL    HW297768   9.648  11.127   5.410
65332SOL     OW97769   3.831   4.103   3.981
65332SOL    HW197770   3.895   4.092   3.911
65332SOL    HW297771   3.829   4.197   3.997
65333SOL     OW97772   7.503   7.735   7.734
65333SOL    HW197773   7.491   7.749   7.640
65333SOL    HW297774   7.573   7.795   7.759
65334SOL     OW97775  10.298  14.300   3.158
65334SOL    HW197776  10.301  14.358   3.082
65334SOL    HW297777  10.385  14.261   3.161
65335SOL     OW97778  11.396  12.082   9.369
65335SOL    HW197779  11.365  12.163   9.329
65335SOL    HW297780  11.318  12.027   9.375
65336SOL     OW97781   3.689  10.857   2.918
65336SOL    HW197782   3.640  10.874   2.999
65336SOL    HW297783   3.634  10.894   2.849
65337SOL     OW97784   4.378  10.693   2.820
65337SOL    HW197785   4.337  10.607   2.821
65337SOL    HW297786   4.304  10.755   2.824
65338SOL     OW97787   9.673   5.385  13.910
65338SOL    HW197788   9.670   5.481  13.901
65338SOL    HW297789   9.731   5.370  13.984
65339SOL     OW97790   4.235   1.866  13.048
65339SOL    HW197791   4.273   1.924  12.982
65339SOL    HW297792   4.162   1.916  13.084
65340SOL     OW97793  14.102  13.713   6.347
65340SOL    HW197794  14.099  13.639   6.286
65340SOL    HW297795  14.172  13.691   6.408
65341SOL     OW97796   5.625   0.116   8.121
65341SOL    HW197797   5.612   0.206   8.153
65341SOL    HW297798   5.720   0.105   8.121
65342SOL     OW97799   0.953  11.783   2.927
65342SOL    HW197800   0.863  11.783   2.894
65342SOL    HW297801   1.003  11.738   2.859
65343SOL     OW97802   0.291  10.938   7.788
65343SOL    HW197803   0.263  10.962   7.700
65343SOL    HW297804   0.265  10.847   7.799
65344SOL     OW97805   3.110   1.946   3.412
65344SOL    HW197806   3.199   1.970   3.437
65344SOL    HW297807   3.076   1.896   3.487
65345SOL     OW97808   3.947   4.623  13.452
65345SOL    HW197809   4.039   4.640  13.471
65345SOL    HW297810   3.931   4.669  13.369
65346SOL     OW97811   8.630   6.705   3.998
65346SOL    HW197812   8.581   6.714   4.080
65346SOL    HW297813   8.711   6.754   4.013
65347SOL     OW97814   0.734   3.595   7.026
65347SOL    HW197815   0.722   3.666   7.089
65347SOL    HW297816   0.645   3.566   7.004
65348SOL     OW97817  10.126   9.879   2.465
65348SOL    HW197818  10.116   9.960   2.415
65348SOL    HW297819  10.047   9.828   2.443
65349SOL     OW97820  10.112   7.997  13.876
65349SOL    HW197821  10.170   7.928  13.908
65349SOL    HW297822  10.104   7.980  13.782
65350SOL     OW97823   4.430   7.920  11.451
65350SOL    HW197824   4.352   7.881  11.492
65350SOL    HW297825   4.502   7.864  11.480
65351SOL     OW97826   6.895  13.580  11.517
65351SOL    HW197827   6.807  13.592  11.480
65351SOL    HW297828   6.926  13.669  11.533
65352SOL     OW97829   0.362   4.367   2.690
65352SOL    HW197830   0.318   4.326   2.765
65352SOL    HW297831   0.294   4.417   2.647
65353SOL     OW97832  12.748  12.795   0.942
65353SOL    HW197833  12.690  12.823   1.013
65353SOL    HW297834  12.757  12.872   0.887
65354SOL     OW97835   3.436   4.701  10.345
65354SOL    HW197836   3.475   4.788  10.336
65354SOL    HW297837   3.495   4.644  10.296
65355SOL     OW97838   2.504  10.586   0.144
65355SOL    HW197839   2.412  10.612   0.148
65355SOL    HW297840   2.536  10.626   0.063
65356SOL     OW97841   7.561   4.913  14.417
65356SOL    HW197842   7.514   4.847  14.366
65356SOL    HW297843   7.516   4.916  14.501
65357SOL     OW97844   5.511   2.932   1.643
65357SOL    HW197845   5.466   2.962   1.564
65357SOL    HW297846   5.564   3.006   1.671
65358SOL     OW97847  11.575   0.428  14.587
65358SOL    HW197848  11.581   0.372  14.510
65358SOL    HW297849  11.591   0.369  14.661
65359SOL     OW97850   1.014   1.570   7.409
65359SOL    HW197851   1.088   1.520   7.444
65359SOL    HW297852   0.937   1.523   7.439
65360SOL     OW97853  14.015   9.272   9.467
65360SOL    HW197854  14.009   9.353   9.518
65360SOL    HW297855  14.108   9.250   9.466
65361SOL     OW97856   9.637  14.588  12.183
65361SOL    HW197857   9.672  14.556  12.266
65361SOL    HW297858   9.543  14.597  12.199
65362SOL     OW97859   7.374   4.588   3.468
65362SOL    HW197860   7.429   4.537   3.407
65362SOL    HW297861   7.419   4.672   3.476
65363SOL     OW97862   3.053   7.610   6.326
65363SOL    HW197863   2.991   7.628   6.397
65363SOL    HW297864   3.005   7.633   6.246
65364SOL     OW97865   3.491  12.083  12.336
65364SOL    HW197866   3.400  12.053  12.336
65364SOL    HW297867   3.488  12.169  12.376
65365SOL     OW97868   4.580  10.930   9.947
65365SOL    HW197869   4.527  10.989  10.000
65365SOL    HW297870   4.572  10.845   9.991
65366SOL     OW97871   8.384   2.249   4.158
65366SOL    HW197872   8.296   2.283   4.176
65366SOL    HW297873   8.397   2.180   4.222
65367SOL     OW97874  13.252   3.421  10.615
65367SOL    HW197875  13.205   3.351  10.661
65367SOL    HW297876  13.191   3.495  10.616
65368SOL     OW97877  10.918  10.111  13.605
65368SOL    HW197878  10.944  10.191  13.559
65368SOL    HW297879  10.974  10.043  13.569
65369SOL     OW97880   3.875   9.469  11.127
65369SOL    HW197881   3.926   9.505  11.199
65369SOL    HW297882   3.933   9.406  11.085
65370SOL     OW97883   2.097   4.720  14.105
65370SOL    HW197884   2.105   4.630  14.076
65370SOL    HW297885   2.132   4.720  14.194
65371SOL     OW97886  12.088   5.433   1.818
65371SOL    HW197887  12.079   5.528   1.820
65371SOL    HW297888  12.153   5.414   1.885
65372SOL     OW97889  11.707   4.567   6.706
65372SOL    HW197890  11.744   4.631   6.767
65372SOL    HW297891  11.615   4.559   6.732
65373SOL     OW97892  11.936   0.554   4.768
65373SOL    HW197893  11.960   0.464   4.748
65373SOL    HW297894  12.016   0.592   4.805
65374SOL     OW97895   7.916   8.501   6.543
65374SOL    HW197896   7.985   8.446   6.578
65374SOL    HW297897   7.838   8.445   6.542
65375SOL     OW97898  11.425   6.209   3.650
65375SOL    HW197899  11.343   6.164   3.629
65375SOL    HW297900  11.445   6.184   3.740
65376SOL     OW97901   3.139   7.700   2.385
65376SOL    HW197902   3.153   7.619   2.336
65376SOL    HW297903   3.198   7.763   2.344
65377SOL     OW97904   3.975  13.280   5.750
65377SOL    HW197905   3.882  13.275   5.776
65377SOL    HW297906   3.983  13.219   5.678
65378SOL     OW97907  14.004   0.197   8.232
65378SOL    HW197908  13.926   0.237   8.271
65378SOL    HW297909  14.039   0.265   8.173
65379SOL     OW97910  14.380   0.875  12.009
65379SOL    HW197911  14.361   0.867  11.915
65379SOL    HW297912  14.405   0.967  12.021
65380SOL     OW97913  10.091   9.791  10.012
65380SOL    HW197914  10.061   9.861  10.070
65380SOL    HW297915  10.185   9.805  10.005
65381SOL     OW97916   8.188   7.174   9.536
65381SOL    HW197917   8.254   7.110   9.562
65381SOL    HW297918   8.147   7.136   9.458
65382SOL     OW97919   5.742  10.955   9.380
65382SOL    HW197920   5.688  10.922   9.451
65382SOL    HW297921   5.831  10.954   9.415
65383SOL     OW97922   9.549  14.648  10.378
65383SOL    HW197923   9.607  14.724  10.380
65383SOL    HW297924   9.461  14.685  10.373
65384SOL     OW97925   1.270   3.070   9.078
65384SOL    HW197926   1.216   3.099   9.151
65384SOL    HW297927   1.360   3.086   9.105
65385SOL     OW97928   4.171   0.710   5.404
65385SOL    HW197929   4.159   0.749   5.491
65385SOL    HW297930   4.190   0.785   5.347
65386SOL     OW97931  11.131   4.214  13.116
65386SOL    HW197932  11.124   4.176  13.204
65386SOL    HW297933  11.070   4.288  13.118
65387SOL     OW97934   7.159   0.543  12.216
65387SOL    HW197935   7.130   0.510  12.300
65387SOL    HW297936   7.138   0.474  12.154
65388SOL     OW97937   2.476   2.290   7.096
65388SOL    HW197938   2.542   2.345   7.138
65388SOL    HW297939   2.455   2.223   7.162
65389SOL     OW97940   5.558   0.636  14.652
65389SOL    HW197941   5.480   0.685  14.678
65389SOL    HW297942   5.529   0.545  14.647
65390SOL     OW97943  14.097   0.549   0.409
65390SOL    HW197944  14.010   0.570   0.373
65390SOL    HW297945  14.157   0.563   0.336
65391SOL     OW97946  10.354   1.368  14.755
65391SOL    HW197947  10.327   1.317  14.831
65391SOL    HW297948  10.274   1.383  14.706
65392SOL     OW97949   2.844   8.828   8.329
65392SOL    HW197950   2.936   8.853   8.331
65392SOL    HW297951   2.805   8.882   8.260
65393SOL     OW97952   3.557   9.792   7.249
65393SOL    HW197953   3.511   9.761   7.171
65393SOL    HW297954   3.587   9.880   7.225
65394SOL     OW97955   9.832   9.255  11.124
65394SOL    HW197956   9.773   9.282  11.195
65394SOL    HW297957   9.842   9.160  11.136
65395SOL     OW97958   4.702  14.212   0.951
65395SOL    HW197959   4.750  14.170   0.880
65395SOL    HW297960   4.644  14.144   0.984
65396SOL     OW97961  14.675  11.201  13.743
65396SOL    HW197962  14.769  11.216  13.730
65396SOL    HW297963  14.669  11.114  13.782
65397SOL     OW97964   1.727  11.685  12.022
65397SOL    HW197965   1.820  11.704  12.022
65397SOL    HW297966   1.700  11.699  12.113
65398SOL     OW97967   3.967  11.634   3.999
65398SOL    HW197968   3.974  11.696   3.927
65398SOL    HW297969   3.887  11.585   3.980
65399SOL     OW97970   5.874  12.770   8.331
65399SOL    HW197971   5.958  12.797   8.367
65399SOL    HW297972   5.853  12.688   8.377
65400SOL     OW97973   9.970   7.767  10.431
65400SOL    HW197974   9.907   7.759  10.502
65400SOL    HW297975   9.989   7.861  10.426
65401SOL     OW97976   6.599   5.939   2.294
65401SOL    HW197977   6.630   5.850   2.280
65401SOL    HW297978   6.506   5.937   2.270
65402SOL     OW97979   5.894  10.308  12.116
65402SOL    HW197980   5.958  10.374  12.144
65402SOL    HW297981   5.920  10.286  12.027
65403SOL     OW97982  13.195   6.941   0.668
65403SOL    HW197983  13.170   6.857   0.628
65403SOL    HW297984  13.124   6.960   0.729
65404SOL     OW97985   1.363  10.315   4.646
65404SOL    HW197986   1.381  10.251   4.577
65404SOL    HW297987   1.282  10.285   4.686
65405SOL     OW97988   0.446  13.126   2.261
65405SOL    HW197989   0.420  13.056   2.201
65405SOL    HW297990   0.367  13.179   2.272
65406SOL     OW97991   4.857   3.748  13.498
65406SOL    HW197992   4.862   3.669  13.445
65406SOL    HW297993   4.875   3.820  13.437
65407SOL     OW97994  13.482   6.468   6.280
65407SOL    HW197995  13.486   6.377   6.308
65407SOL    HW297996  13.466   6.517   6.361
65408SOL     OW97997  13.891  13.830   1.476
65408SOL    HW197998  13.835  13.908   1.474
65408SOL    HW297999  13.832  13.758   1.453
65409SOL     OW98000   6.850   7.092   3.755
65409SOL    HW198001   6.878   7.164   3.811
65409SOL    HW298002   6.920   7.082   3.691
65410SOL     OW98003  14.736   5.381  13.845
65410SOL    HW198004  14.745   5.358  13.752
65410SOL    HW298005  14.781   5.310  13.891
65411SOL     OW98006  10.033   7.840   4.279
65411SOL    HW198007  10.053   7.779   4.208
65411SOL    HW298008   9.996   7.785   4.348
65412SOL     OW98009   6.358   9.455   6.566
65412SOL    HW198010   6.332   9.547   6.573
65412SOL    HW298011   6.333   9.416   6.650
65413SOL     OW98012  13.858  11.653   0.900
65413SOL    HW198013  13.768  11.655   0.867
65413SOL    HW298014  13.872  11.563   0.927
65414SOL     OW98015   0.516  12.680  11.399
65414SOL    HW198016   0.571  12.601  11.399
65414SOL    HW298017   0.477  12.682  11.312
65415SOL     OW98018   7.796  11.268   2.880
65415SOL    HW198019   7.707  11.304   2.878
65415SOL    HW298020   7.793  11.195   2.818
65416SOL     OW98021  13.659   6.987  10.836
65416SOL    HW198022  13.733   7.037  10.802
65416SOL    HW298023  13.697   6.934  10.907
65417SOL     OW98024  12.530  11.945  11.510
65417SOL    HW198025  12.571  11.878  11.456
65417SOL    HW298026  12.464  11.986  11.454
65418SOL     OW98027   1.957  12.562   2.002
65418SOL    HW198028   2.045  12.530   1.980
65418SOL    HW298029   1.902  12.484   2.002
65419SOL     OW98030   0.951  10.391  14.416
65419SOL    HW198031   0.929  10.483  14.434
65419SOL    HW298032   1.039  10.381  14.453
65420SOL     OW98033  14.356  11.121   1.667
65420SOL    HW198034  14.273  11.152   1.629
65420SOL    HW298035  14.343  11.128   1.761
65421SOL     OW98036   3.806   0.053   9.730
65421SOL    HW198037   3.901   0.049   9.740
65421SOL    HW298038   3.791   0.035   9.637
65422SOL     OW98039   1.805  10.273   2.243
65422SOL    HW198040   1.739  10.232   2.299
65422SOL    HW298041   1.850  10.335   2.301
65423SOL     OW98042   4.330   6.326   4.377
65423SOL    HW198043   4.346   6.416   4.349
65423SOL    HW298044   4.403   6.306   4.436
65424SOL     OW98045  13.499   5.927   1.981
65424SOL    HW198046  13.469   6.012   2.016
65424SOL    HW298047  13.534   5.881   2.058
65425SOL     OW98048   7.428  11.259  10.431
65425SOL    HW198049   7.384  11.317  10.493
65425SOL    HW298050   7.424  11.305  10.347
65426SOL     OW98051   2.260  10.070   1.258
65426SOL    HW198052   2.314  10.005   1.214
65426SOL    HW298053   2.286  10.064   1.350
65427SOL     OW98054   4.259   0.808   3.848
65427SOL    HW198055   4.339   0.788   3.897
65427SOL    HW298056   4.248   0.735   3.788
65428SOL     OW98057   9.399   4.791  10.286
65428SOL    HW198058   9.481   4.753  10.255
65428SOL    HW298059   9.419   4.883  10.301
65429SOL     OW98060   4.326   3.840  12.639
65429SOL    HW198061   4.325   3.790  12.557
65429SOL    HW298062   4.406   3.892  12.635
65430SOL     OW98063  10.785   6.084   7.778
65430SOL    HW198064  10.792   6.177   7.755
65430SOL    HW298065  10.842   6.040   7.714
65431SOL     OW98066  12.812   4.112   1.547
65431SOL    HW198067  12.803   4.031   1.498
65431SOL    HW298068  12.770   4.178   1.492
65432SOL     OW98069   9.975  13.652  11.710
65432SOL    HW198070   9.941  13.707  11.781
65432SOL    HW298071   9.978  13.564  11.748
65433SOL     OW98072  10.707  10.297  10.082
65433SOL    HW198073  10.624  10.271  10.043
65433SOL    HW298074  10.735  10.219  10.132
65434SOL     OW98075   6.227   8.464  10.243
65434SOL    HW198076   6.307   8.516  10.249
65434SOL    HW298077   6.257   8.374  10.236
65435SOL     OW98078   9.107   6.273   7.134
65435SOL    HW198079   9.136   6.299   7.047
65435SOL    HW298080   9.116   6.353   7.187
65436SOL     OW98081  13.003  10.380   2.941
65436SOL    HW198082  12.967  10.455   2.987
65436SOL    HW298083  13.042  10.417   2.861
65437SOL     OW98084   6.628  13.507  12.269
65437SOL    HW198085   6.557  13.443  12.268
65437SOL    HW298086   6.636  13.535  12.178
65438SOL     OW98087   6.031   6.654   2.381
65438SOL    HW198088   6.091   6.594   2.424
65438SOL    HW298089   5.993   6.603   2.309
65439SOL     OW98090   9.090   8.613   1.647
65439SOL    HW198091   9.080   8.699   1.688
65439SOL    HW298092   9.009   8.567   1.669
65440SOL     OW98093   2.533   8.885   5.762
65440SOL    HW198094   2.608   8.908   5.817
65440SOL    HW298095   2.554   8.921   5.676
65441SOL     OW98096   2.142   7.277   2.066
65441SOL    HW198097   2.051   7.274   2.095
65441SOL    HW298098   2.146   7.216   1.993
65442SOL     OW98099   2.334   8.010  12.126
65442SOL    HW198100   2.403   8.072  12.102
65442SOL    HW298101   2.357   7.930  12.080
65443SOL     OW98102   9.652   2.892   3.286
65443SOL    HW198103   9.740   2.884   3.323
65443SOL    HW298104   9.653   2.976   3.239
65444SOL     OW98105   8.083   0.481  13.159
65444SOL    HW198106   8.049   0.569  13.173
65444SOL    HW298107   8.108   0.479  13.067
65445SOL     OW98108   3.303   0.355  13.758
65445SOL    HW198109   3.337   0.433  13.714
65445SOL    HW298110   3.208   0.368  13.759
65446SOL     OW98111   0.712   2.304   7.430
65446SOL    HW198112   0.800   2.319   7.396
65446SOL    HW298113   0.725   2.254   7.511
65447SOL     OW98114  14.335   9.147   8.072
65447SOL    HW198115  14.393   9.086   8.117
65447SOL    HW298116  14.309   9.210   8.139
65448SOL     OW98117   9.108  13.364   6.370
65448SOL    HW198118   9.153  13.448   6.379
65448SOL    HW298119   9.109  13.327   6.458
65449SOL     OW98120  11.599   1.217   9.581
65449SOL    HW198121  11.545   1.246   9.507
65449SOL    HW298122  11.632   1.131   9.555
65450SOL     OW98123   6.415  13.664   4.737
65450SOL    HW198124   6.355  13.702   4.673
65450SOL    HW298125   6.383  13.695   4.822
65451SOL     OW98126   4.959   2.199  12.161
65451SOL    HW198127   5.014   2.264  12.117
65451SOL    HW298128   4.977   2.211  12.254
65452SOL     OW98129   3.153  11.276   0.683
65452SOL    HW198130   3.087  11.259   0.616
65452SOL    HW298131   3.212  11.340   0.642
65453SOL     OW98132   4.240   8.206  13.302
65453SOL    HW198133   4.197   8.217  13.217
65453SOL    HW298134   4.326   8.247  13.291
65454SOL     OW98135   0.789  10.553  14.178
65454SOL    HW198136   0.735  10.544  14.256
65454SOL    HW298137   0.772  10.642  14.147
65455SOL     OW98138   4.481  13.305  13.104
65455SOL    HW198139   4.527  13.232  13.061
65455SOL    HW298140   4.402  13.318  13.052
65456SOL     OW98141  13.310   4.047  14.509
65456SOL    HW198142  13.360   4.127  14.497
65456SOL    HW298143  13.376   3.979  14.521
65457SOL     OW98144   5.631  13.341  11.364
65457SOL    HW198145   5.549  13.389  11.378
65457SOL    HW298146   5.668  13.380  11.284
65458SOL     OW98147  13.056  13.518   2.001
65458SOL    HW198148  13.016  13.602   1.979
65458SOL    HW298149  13.104  13.492   1.922
65459SOL     OW98150   5.036  14.391   4.102
65459SOL    HW198151   5.100  14.462   4.103
65459SOL    HW298152   5.018  14.373   4.194
65460SOL     OW98153   6.142   7.370   2.775
65460SOL    HW198154   6.214   7.324   2.818
65460SOL    HW298155   6.113   7.311   2.706
65461SOL     OW98156   2.750   1.228   5.234
65461SOL    HW198157   2.672   1.224   5.289
65461SOL    HW298158   2.777   1.320   5.239
65462SOL     OW98159   9.919  12.359  13.734
65462SOL    HW198160   9.928  12.387  13.643
65462SOL    HW298161   9.850  12.415  13.770
65463SOL     OW98162   3.619   9.373  14.559
65463SOL    HW198163   3.560   9.319  14.507
65463SOL    HW298164   3.564   9.404  14.632
65464SOL     OW98165  12.454   7.065  12.093
65464SOL    HW198166  12.538   7.038  12.055
65464SOL    HW298167  12.409   6.983  12.111
65465SOL     OW98168   8.105   0.216   1.435
65465SOL    HW198169   8.128   0.286   1.497
65465SOL    HW298170   8.101   0.260   1.350
65466SOL     OW98171   3.767  12.208  13.697
65466SOL    HW198172   3.708  12.175  13.765
65466SOL    HW298173   3.830  12.137  13.685
65467SOL     OW98174   9.499   4.489   7.118
65467SOL    HW198175   9.448   4.552   7.169
65467SOL    HW298176   9.538   4.541   7.048
65468SOL     OW98177  13.357  11.010   4.673
65468SOL    HW198178  13.370  10.916   4.660
65468SOL    HW298179  13.417  11.051   4.611
65469SOL     OW98180  10.107  10.352   6.583
65469SOL    HW198181  10.146  10.328   6.499
65469SOL    HW298182  10.177  10.397   6.630
65470SOL     OW98183   9.797  12.111   8.121
65470SOL    HW198184   9.706  12.080   8.120
65470SOL    HW298185   9.800  12.174   8.193
65471SOL     OW98186   3.530  14.030   4.327
65471SOL    HW198187   3.539  14.042   4.421
65471SOL    HW298188   3.458  14.088   4.302
65472SOL     OW98189  12.729   3.793   1.415
65472SOL    HW198190  12.649   3.846   1.407
65472SOL    HW298191  12.701   3.716   1.463
65473SOL     OW98192   7.481   4.952  10.007
65473SOL    HW198193   7.542   5.021   9.978
65473SOL    HW298194   7.394   4.988   9.988
65474SOL     OW98195   1.468   3.141   3.924
65474SOL    HW198196   1.399   3.097   3.974
65474SOL    HW298197   1.453   3.234   3.941
65475SOL     OW98198  10.464   2.609   1.287
65475SOL    HW198199  10.556   2.630   1.304
65475SOL    HW298200  10.467   2.531   1.231
65476SOL     OW98201  11.196  11.252  11.577
65476SOL    HW198202  11.282  11.211  11.585
65476SOL    HW298203  11.148  11.196  11.516
65477SOL     OW98204   1.964   7.317   6.696
65477SOL    HW198205   2.040   7.372   6.676
65477SOL    HW298206   1.980   7.284   6.784
65478SOL     OW98207  10.547  13.702   7.789
65478SOL    HW198208  10.630  13.683   7.833
65478SOL    HW298209  10.529  13.793   7.810
65479SOL     OW98210   9.513   8.992   7.236
65479SOL    HW198211   9.590   9.042   7.263
65479SOL    HW298212   9.524   8.979   7.142
65480SOL     OW98213   5.286  11.429   8.205
65480SOL    HW198214   5.266  11.514   8.245
65480SOL    HW298215   5.272  11.366   8.276
65481SOL     OW98216   9.818  10.386   3.841
65481SOL    HW198217   9.906  10.377   3.804
65481SOL    HW298218   9.761  10.345   3.776
65482SOL     OW98219   3.995  13.032   0.785
65482SOL    HW198220   3.993  12.946   0.827
65482SOL    HW298221   4.061  13.081   0.835
65483SOL     OW98222   9.627   1.059   9.051
65483SOL    HW198223   9.629   1.117   9.127
65483SOL    HW298224   9.551   1.002   9.065
65484SOL     OW98225  12.134  10.269  10.902
65484SOL    HW198226  12.189  10.274  10.980
65484SOL    HW298227  12.191  10.299  10.831
65485SOL     OW98228  12.309   6.393   2.337
65485SOL    HW198229  12.335   6.467   2.392
65485SOL    HW298230  12.390   6.365   2.294
65486SOL     OW98231   5.125   0.362   2.886
65486SOL    HW198232   5.200   0.421   2.883
65486SOL    HW298233   5.164   0.275   2.901
65487SOL     OW98234   5.587   3.102   7.859
65487SOL    HW198235   5.606   3.010   7.880
65487SOL    HW298236   5.528   3.097   7.783
65488SOL     OW98237  14.400   6.681   9.758
65488SOL    HW198238  14.410   6.669   9.852
65488SOL    HW298239  14.367   6.771   9.749
65489SOL     OW98240  13.071  14.467   2.499
65489SOL    HW198241  13.129  14.535   2.532
65489SOL    HW298242  13.117  14.385   2.517
65490SOL     OW98243  14.552  10.033   0.037
65490SOL    HW198244  14.530   9.953  14.868
65490SOL    HW298245  14.615  10.077  14.859
65491SOL     OW98246  11.493  10.709   4.448
65491SOL    HW198247  11.437  10.782   4.475
65491SOL    HW298248  11.558  10.750   4.390
65492SOL     OW98249  12.065   7.776  10.320
65492SOL    HW198250  12.127   7.839  10.356
65492SOL    HW298251  12.065   7.703  10.382
65493SOL     OW98252   1.627   6.391   7.587
65493SOL    HW198253   1.646   6.449   7.513
65493SOL    HW298254   1.630   6.448   7.664
65494SOL     OW98255   7.902  13.174  13.090
65494SOL    HW198256   7.916  13.125  13.010
65494SOL    HW298257   7.808  13.188  13.094
65495SOL     OW98258   2.464   4.005  10.667
65495SOL    HW198259   2.384   4.031  10.623
65495SOL    HW298260   2.441   3.926  10.715
65496SOL     OW98261   8.107  13.661   9.765
65496SOL    HW198262   8.153  13.610   9.699
65496SOL    HW298263   8.015  13.656   9.740
65497SOL     OW98264   6.218   9.519   6.184
65497SOL    HW198265   6.299   9.569   6.199
65497SOL    HW298266   6.205   9.470   6.265
65498SOL     OW98267   7.249   2.537  14.053
65498SOL    HW198268   7.318   2.482  14.090
65498SOL    HW298269   7.170   2.513  14.101
65499SOL     OW98270   3.385  13.514  10.270
65499SOL    HW198271   3.341  13.551  10.346
65499SOL    HW298272   3.463  13.568  10.259
65500SOL     OW98273   6.948   6.852   1.356
65500SOL    HW198274   6.930   6.934   1.402
65500SOL    HW298275   6.914   6.866   1.268
65501SOL     OW98276   7.893   6.325   4.885
65501SOL    HW198277   7.937   6.408   4.906
65501SOL    HW298278   7.925   6.303   4.798
65502SOL     OW98279   5.201   7.304  12.766
65502SOL    HW198280   5.285   7.311  12.812
65502SOL    HW298281   5.135   7.324  12.832
65503SOL     OW98282   1.373   1.243   0.223
65503SOL    HW198283   1.381   1.319   0.165
65503SOL    HW298284   1.322   1.276   0.298
65504SOL     OW98285   7.405  12.041   1.168
65504SOL    HW198286   7.398  12.129   1.132
65504SOL    HW298287   7.347  11.988   1.114
65505SOL     OW98288   0.737   1.992   5.953
65505SOL    HW198289   0.712   2.039   6.032
65505SOL    HW298290   0.832   1.982   5.960
65506SOL     OW98291   7.780   1.600  13.703
65506SOL    HW198292   7.808   1.686  13.735
65506SOL    HW298293   7.816   1.595  13.614
65507SOL     OW98294   4.744   0.950  12.452
65507SOL    HW198295   4.689   0.964  12.375
65507SOL    HW298296   4.833   0.970  12.422
65508SOL     OW98297   7.821  13.833   9.007
65508SOL    HW198298   7.900  13.779   9.014
65508SOL    HW298299   7.750  13.769   9.002
65509SOL     OW98300   7.467   6.107  14.433
65509SOL    HW198301   7.519   6.157  14.496
65509SOL    HW298302   7.380   6.145  14.438
65510SOL     OW98303  10.006   8.438   2.226
65510SOL    HW198304   9.991   8.494   2.150
65510SOL    HW298305   9.949   8.473   2.294
65511SOL     OW98306   8.097   7.319   2.532
65511SOL    HW198307   8.007   7.305   2.560
65511SOL    HW298308   8.131   7.386   2.592
65512SOL     OW98309   8.117  11.524  14.407
65512SOL    HW198310   8.069  11.501  14.487
65512SOL    HW298311   8.120  11.442  14.357
65513SOL     OW98312  11.900   4.465   0.843
65513SOL    HW198313  11.826   4.467   0.782
65513SOL    HW298314  11.947   4.546   0.827
65514SOL     OW98315  14.340   2.737   3.079
65514SOL    HW198316  14.412   2.788   3.116
65514SOL    HW298317  14.378   2.692   3.004
65515SOL     OW98318   2.233   3.141   0.452
65515SOL    HW198319   2.177   3.166   0.526
65515SOL    HW298320   2.194   3.060   0.419
65516SOL     OW98321   0.631  10.547   7.434
65516SOL    HW198322   0.572  10.472   7.429
65516SOL    HW298323   0.597  10.609   7.369
65517SOL     OW98324   8.329  12.612   0.558
65517SOL    HW198325   8.366  12.564   0.633
65517SOL    HW298326   8.280  12.546   0.509
65518SOL     OW98327   7.471   3.594   5.568
65518SOL    HW198328   7.411   3.666   5.583
65518SOL    HW298329   7.440   3.552   5.488
65519SOL     OW98330  14.303   7.440   2.723
65519SOL    HW198331  14.397   7.422   2.731
65519SOL    HW298332  14.269   7.366   2.671
65520SOL     OW98333   3.124   1.232   7.586
65520SOL    HW198334   3.101   1.154   7.534
65520SOL    HW298335   3.207   1.209   7.628
65521SOL     OW98336  13.278   6.788   4.795
65521SOL    HW198337  13.231   6.706   4.804
65521SOL    HW298338  13.265   6.814   4.704
65522SOL     OW98339   5.514   6.034   3.842
65522SOL    HW198340   5.488   5.943   3.830
65522SOL    HW298341   5.601   6.039   3.802
65523SOL     OW98342  13.986  14.040  13.210
65523SOL    HW198343  14.012  14.044  13.302
65523SOL    HW298344  13.898  14.003  13.210
65524SOL     OW98345   2.537  10.900   2.265
65524SOL    HW198346   2.539  10.824   2.323
65524SOL    HW298347   2.624  10.939   2.274
65525SOL     OW98348   5.204   8.391   6.491
65525SOL    HW198349   5.213   8.486   6.496
65525SOL    HW298350   5.232   8.360   6.577
65526SOL     OW98351  11.736  13.423   3.163
65526SOL    HW198352  11.807  13.483   3.185
65526SOL    HW298353  11.725  13.433   3.068
65527SOL     OW98354  14.806   1.480   5.716
65527SOL    HW198355  14.758   1.415   5.767
65527SOL    HW298356  14.851   1.533   5.782
65528SOL     OW98357  12.734  12.031   2.283
65528SOL    HW198358  12.660  12.021   2.342
65528SOL    HW298359  12.733  12.123   2.258
65529SOL     OW98360   0.683   5.033  11.688
65529SOL    HW198361   0.679   5.057  11.781
65529SOL    HW298362   0.720   5.110  11.645
65530SOL     OW98363  12.533   4.455   6.817
65530SOL    HW198364  12.612   4.482   6.864
65530SOL    HW298365  12.462   4.470   6.879
65531SOL     OW98366   3.146   8.037   2.345
65531SOL    HW198367   3.136   7.999   2.258
65531SOL    HW298368   3.098   8.120   2.339
65532SOL     OW98369   7.589   4.520  11.251
65532SOL    HW198370   7.599   4.451  11.185
65532SOL    HW298371   7.578   4.600  11.199
65533SOL     OW98372   8.757  13.113   3.382
65533SOL    HW198373   8.844  13.075   3.369
65533SOL    HW298374   8.699  13.058   3.330
65534SOL     OW98375   7.509  12.982  13.566
65534SOL    HW198376   7.514  12.967  13.471
65534SOL    HW298377   7.528  12.897  13.604
65535SOL     OW98378   9.538   4.988  14.725
65535SOL    HW198379   9.602   4.922  14.752
65535SOL    HW298380   9.590   5.067  14.709
65536SOL     OW98381   9.769   0.103   2.667
65536SOL    HW198382   9.695   0.057   2.705
65536SOL    HW298383   9.735   0.141   2.586
65537SOL     OW98384   0.590  10.736   3.519
65537SOL    HW198385   0.678  10.750   3.485
65537SOL    HW298386   0.604  10.696   3.605
65538SOL     OW98387   4.792  12.203   5.812
65538SOL    HW198388   4.786  12.291   5.848
65538SOL    HW298389   4.823  12.215   5.722
65539SOL     OW98390  14.507  10.036   6.170
65539SOL    HW198391  14.430  10.077   6.131
65539SOL    HW298392  14.581  10.075   6.123
65540SOL     OW98393   1.199  11.458   9.371
65540SOL    HW198394   1.209  11.438   9.464
65540SOL    HW298395   1.232  11.548   9.362
65541SOL     OW98396  13.380   5.168  12.880
65541SOL    HW198397  13.318   5.108  12.922
65541SOL    HW298398  13.331   5.207  12.808
65542SOL     OW98399  12.224  13.575   5.958
65542SOL    HW198400  12.229  13.639   6.028
65542SOL    HW298401  12.212  13.627   5.878
65543SOL     OW98402  12.284  11.768  13.219
65543SOL    HW198403  12.213  11.722  13.264
65543SOL    HW298404  12.350  11.784  13.288
65544SOL     OW98405  12.218   2.330   6.750
65544SOL    HW198406  12.136   2.309   6.794
65544SOL    HW298407  12.269   2.379   6.816
65545SOL     OW98408  10.426   1.326  14.341
65545SOL    HW198409  10.445   1.411  14.381
65545SOL    HW298410  10.373   1.347  14.264
65546SOL     OW98411   1.882  14.017   1.393
65546SOL    HW198412   1.788  13.997   1.391
65546SOL    HW298413   1.907  14.024   1.301
65547SOL     OW98414  14.120   4.379   7.079
65547SOL    HW198415  14.208   4.377   7.041
65547SOL    HW298416  14.082   4.295   7.054
65548SOL     OW98417   1.004   3.281  13.545
65548SOL    HW198418   0.918   3.313  13.520
65548SOL    HW298419   1.049   3.263  13.463
65549SOL     OW98420   8.235   5.129  10.735
65549SOL    HW198421   8.296   5.115  10.663
65549SOL    HW298422   8.192   5.212  10.714
65550SOL     OW98423   0.950   5.430   9.887
65550SOL    HW198424   0.855   5.428   9.876
65550SOL    HW298425   0.964   5.426   9.981
65551SOL     OW98426  12.689   7.578   1.112
65551SOL    HW198427  12.784   7.590   1.100
65551SOL    HW298428  12.653   7.585   1.024
65552SOL     OW98429  11.518   9.340   6.798
65552SOL    HW198430  11.483   9.275   6.736
65552SOL    HW298431  11.613   9.325   6.797
65553SOL     OW98432   9.063   7.723  13.658
65553SOL    HW198433   8.992   7.735  13.721
65553SOL    HW298434   9.097   7.812  13.642
65554SOL     OW98435   1.979   9.427   3.499
65554SOL    HW198436   2.017   9.405   3.584
65554SOL    HW298437   1.935   9.347   3.472
65555SOL     OW98438   8.114  11.796   8.588
65555SOL    HW198439   8.147  11.770   8.502
65555SOL    HW298440   8.043  11.857   8.570
65556SOL     OW98441  13.328  12.075   2.301
65556SOL    HW198442  13.322  12.013   2.228
65556SOL    HW298443  13.251  12.130   2.292
65557SOL     OW98444   6.414  14.477  12.396
65557SOL    HW198445   6.397  14.445  12.484
65557SOL    HW298446   6.502  14.515  12.401
65558SOL     OW98447   3.742   5.182   8.239
65558SOL    HW198448   3.711   5.270   8.217
65558SOL    HW298449   3.664   5.137   8.272
65559SOL     OW98450   6.612   7.573  11.668
65559SOL    HW198451   6.581   7.492  11.629
65559SOL    HW298452   6.532   7.621  11.692
65560SOL     OW98453  12.229   6.244  11.835
65560SOL    HW198454  12.177   6.250  11.915
65560SOL    HW298455  12.211   6.156  11.802
65561SOL     OW98456   7.453   4.308   8.252
65561SOL    HW198457   7.362   4.283   8.238
65561SOL    HW298458   7.492   4.235   8.299
65562SOL     OW98459   2.905   7.246  11.794
65562SOL    HW198460   2.902   7.341  11.809
65562SOL    HW298461   2.957   7.212  11.866
65563SOL     OW98462  14.635  10.175  14.138
65563SOL    HW198463  14.643  10.166  14.043
65563SOL    HW298464  14.642  10.086  14.172
65564SOL     OW98465  14.282   0.867   6.425
65564SOL    HW198466  14.191   0.850   6.403
65564SOL    HW298467  14.311   0.787   6.470
65565SOL     OW98468   9.373   9.895   0.865
65565SOL    HW198469   9.433   9.942   0.808
65565SOL    HW298470   9.309   9.856   0.806
65566SOL     OW98471  11.293   2.499  14.102
65566SOL    HW198472  11.237   2.423  14.116
65566SOL    HW298473  11.317   2.494  14.010
65567SOL     OW98474   4.019   4.004   6.764
65567SOL    HW198475   3.988   4.081   6.813
65567SOL    HW298476   4.023   4.034   6.673
65568SOL     OW98477  13.619   0.650   6.758
65568SOL    HW198478  13.618   0.710   6.832
65568SOL    HW298479  13.526   0.633   6.740
65569SOL     OW98480   7.464  11.410   0.251
65569SOL    HW198481   7.433  11.455   0.329
65569SOL    HW298482   7.392  11.353   0.225
65570SOL     OW98483  13.764   1.210   0.613
65570SOL    HW198484  13.686   1.265   0.608
65570SOL    HW298485  13.729   1.120   0.616
65571SOL     OW98486   8.079   0.563   8.630
65571SOL    HW198487   8.155   0.565   8.572
65571SOL    HW298488   8.073   0.472   8.659
65572SOL     OW98489   2.428  11.456   6.432
65572SOL    HW198490   2.456  11.420   6.348
65572SOL    HW298491   2.495  11.519   6.455
65573SOL     OW98492  11.411   8.672  14.254
65573SOL    HW198493  11.387   8.579  14.257
65573SOL    HW298494  11.506   8.672  14.259
65574SOL     OW98495   1.026  13.322  10.681
65574SOL    HW198496   1.027  13.248  10.742
65574SOL    HW298497   1.016  13.399  10.737
65575SOL     OW98498   6.096   6.784   5.686
65575SOL    HW198499   6.111   6.738   5.768
65575SOL    HW298500   6.167   6.848   5.680
65576SOL     OW98501   1.116   2.176  12.210
65576SOL    HW198502   1.041   2.173  12.150
65576SOL    HW298503   1.088   2.236  12.279
65577SOL     OW98504   7.507   7.508   1.538
65577SOL    HW198505   7.425   7.547   1.507
65577SOL    HW298506   7.488   7.485   1.630
65578SOL     OW98507   9.417  13.967  12.678
65578SOL    HW198508   9.375  13.971  12.592
65578SOL    HW298509   9.482  13.898  12.670
65579SOL     OW98510   4.557   3.825   7.870
65579SOL    HW198511   4.608   3.801   7.948
65579SOL    HW298512   4.608   3.790   7.797
65580SOL     OW98513   7.822   8.480   8.717
65580SOL    HW198514   7.759   8.418   8.679
65580SOL    HW298515   7.898   8.426   8.740
65581SOL     OW98516  13.500   5.375   9.803
65581SOL    HW198517  13.544   5.408   9.882
65581SOL    HW298518  13.554   5.301   9.775
65582SOL     OW98519  12.279  10.717  10.584
65582SOL    HW198520  12.294  10.720  10.490
65582SOL    HW298521  12.185  10.732  10.594
65583SOL     OW98522   5.856   0.146  11.659
65583SOL    HW198523   5.951   0.154  11.671
65583SOL    HW298524   5.821   0.149  11.748
65584SOL     OW98525  11.508   7.252   8.859
65584SOL    HW198526  11.528   7.160   8.879
65584SOL    HW298527  11.501   7.254   8.763
65585SOL     OW98528   7.828   7.229   1.509
65585SOL    HW198529   7.763   7.178   1.460
65585SOL    HW298530   7.807   7.320   1.490
65586SOL     OW98531   4.502  12.017   7.432
65586SOL    HW198532   4.426  11.975   7.391
65586SOL    HW298533   4.470  12.103   7.458
65587SOL     OW98534  13.645  11.444   8.879
65587SOL    HW198535  13.718  11.409   8.931
65587SOL    HW298536  13.606  11.366   8.838
65588SOL     OW98537  10.446   6.275  10.632
65588SOL    HW198538  10.457   6.364  10.597
65588SOL    HW298539  10.423   6.288  10.724
65589SOL     OW98540   1.362   6.362   3.571
65589SOL    HW198541   1.348   6.275   3.610
65589SOL    HW298542   1.399   6.413   3.643
65590SOL     OW98543   8.850   3.543   6.004
65590SOL    HW198544   8.780   3.533   6.069
65590SOL    HW298545   8.879   3.633   6.014
65591SOL     OW98546   5.050  11.941  10.428
65591SOL    HW198547   4.991  11.994  10.374
65591SOL    HW298548   5.103  11.893  10.364
65592SOL     OW98549   3.301   8.932   1.322
65592SOL    HW198550   3.291   8.882   1.241
65592SOL    HW298551   3.374   8.891   1.368
65593SOL     OW98552  13.694  10.456   8.188
65593SOL    HW198553  13.676  10.403   8.110
65593SOL    HW298554  13.756  10.403   8.238
65594SOL     OW98555   2.750   3.266   5.184
65594SOL    HW198556   2.821   3.209   5.214
65594SOL    HW298557   2.739   3.244   5.091
65595SOL     OW98558   0.566  11.529   6.884
65595SOL    HW198559   0.489  11.488   6.845
65595SOL    HW298560   0.638  11.472   6.860
65596SOL     OW98561   5.619   3.713   0.561
65596SOL    HW198562   5.604   3.700   0.655
65596SOL    HW298563   5.652   3.628   0.531
65597SOL     OW98564  11.307  12.242   6.194
65597SOL    HW198565  11.346  12.297   6.126
65597SOL    HW298566  11.317  12.293   6.275
65598SOL     OW98567  12.576   8.865   0.926
65598SOL    HW198568  12.506   8.929   0.919
65598SOL    HW298569  12.588   8.832   0.836
65599SOL     OW98570   2.714  12.467  11.638
65599SOL    HW198571   2.760  12.482  11.720
65599SOL    HW298572   2.628  12.506  11.651
65600SOL     OW98573   0.064   4.815  10.921
65600SOL    HW198574   0.136   4.774  10.873
65600SOL    HW298575   0.107   4.862  10.993
65601SOL     OW98576  11.697  10.028   1.901
65601SOL    HW198577  11.663  10.116   1.916
65601SOL    HW298578  11.636   9.969   1.945
65602SOL     OW98579   7.504   8.474  12.382
65602SOL    HW198580   7.423   8.423  12.378
65602SOL    HW298581   7.561   8.424  12.440
65603SOL     OW98582   1.113   5.528  12.934
65603SOL    HW198583   1.117   5.553  13.026
65603SOL    HW298584   1.191   5.474  12.921
65604SOL     OW98585   2.526   3.594  10.168
65604SOL    HW198586   2.583   3.633  10.235
65604SOL    HW298587   2.545   3.500  10.173
65605SOL     OW98588  13.508  13.500  10.121
65605SOL    HW198589  13.552  13.473  10.202
65605SOL    HW298590  13.420  13.463  10.129
65606SOL     OW98591   5.532  13.022   6.888
65606SOL    HW198592   5.443  13.026   6.925
65606SOL    HW298593   5.529  12.947   6.829
65607SOL     OW98594  10.989   9.826   5.799
65607SOL    HW198595  10.897   9.835   5.771
65607SOL    HW298596  11.001   9.732   5.810
65608SOL     OW98597  13.681   3.533   4.121
65608SOL    HW198598  13.639   3.511   4.204
65608SOL    HW298599  13.622   3.498   4.055
65609SOL     OW98600   5.025   8.897  10.549
65609SOL    HW198601   4.997   8.890  10.641
65609SOL    HW298602   5.017   8.990  10.529
65610SOL     OW98603  11.028  13.825  10.107
65610SOL    HW198604  11.114  13.819  10.149
65610SOL    HW298605  11.008  13.919  10.106
65611SOL     OW98606   7.206  11.744   3.498
65611SOL    HW198607   7.198  11.716   3.590
65611SOL    HW298608   7.206  11.663   3.448
65612SOL     OW98609  10.743   8.463   2.918
65612SOL    HW198610  10.669   8.500   2.966
65612SOL    HW298611  10.704   8.393   2.866
65613SOL     OW98612   5.179   5.430  13.766
65613SOL    HW198613   5.231   5.501  13.804
65613SOL    HW298614   5.212   5.421  13.677
65614SOL     OW98615  10.342   0.839   3.248
65614SOL    HW198616  10.359   0.750   3.279
65614SOL    HW298617  10.247   0.842   3.234
65615SOL     OW98618   3.324   6.602  11.110
65615SOL    HW198619   3.336   6.665  11.038
65615SOL    HW298620   3.251   6.547  11.082
65616SOL     OW98621   6.989   6.841   5.546
65616SOL    HW198622   6.946   6.924   5.566
65616SOL    HW298623   7.075   6.848   5.587
65617SOL     OW98624   5.116   7.466   7.788
65617SOL    HW198625   5.092   7.385   7.743
65617SOL    HW298626   5.071   7.460   7.873
65618SOL     OW98627   7.559  13.845  13.287
65618SOL    HW198628   7.524  13.885  13.207
65618SOL    HW298629   7.555  13.915  13.352
65619SOL     OW98630  14.269   9.521   4.305
65619SOL    HW198631  14.190   9.554   4.263
65619SOL    HW298632  14.341   9.565   4.260
65620SOL     OW98633   9.885   3.827  11.547
65620SOL    HW198634   9.972   3.807  11.512
65620SOL    HW298635   9.826   3.818  11.471
65621SOL     OW98636   9.538   9.602  13.425
65621SOL    HW198637   9.572   9.546  13.495
65621SOL    HW298638   9.447   9.617  13.449
65622SOL     OW98639  12.614   1.331   9.896
65622SOL    HW198640  12.658   1.248   9.912
65622SOL    HW298641  12.672   1.379   9.837
65623SOL     OW98642  11.655   7.685   7.399
65623SOL    HW198643  11.582   7.703   7.459
65623SOL    HW298644  11.679   7.772   7.366
65624SOL     OW98645  14.250  14.406   7.503
65624SOL    HW198646  14.323  14.362   7.460
65624SOL    HW298647  14.172  14.366   7.466
65625SOL     OW98648  13.018   8.770   9.668
65625SOL    HW198649  12.984   8.851   9.630
65625SOL    HW298650  13.113   8.775   9.655
65626SOL     OW98651   7.020   3.308   4.642
65626SOL    HW198652   7.076   3.315   4.565
65626SOL    HW298653   6.968   3.228   4.628
65627SOL     OW98654   7.694   6.580  11.301
65627SOL    HW198655   7.736   6.519  11.240
65627SOL    HW298656   7.605   6.591  11.266
65628SOL     OW98657   3.927   3.631   9.197
65628SOL    HW198658   3.846   3.683   9.190
65628SOL    HW298659   3.996   3.691   9.167
65629SOL     OW98660   1.487   2.202   4.594
65629SOL    HW198661   1.555   2.142   4.625
65629SOL    HW298662   1.468   2.258   4.670
65630SOL     OW98663   4.671   8.599  11.950
65630SOL    HW198664   4.654   8.652  11.872
65630SOL    HW298665   4.604   8.627  12.012
65631SOL     OW98666   3.937   0.220   4.951
65631SOL    HW198667   3.952   0.128   4.929
65631SOL    HW298668   3.869   0.217   5.018
65632SOL     OW98669   7.986   8.805   0.484
65632SOL    HW198670   7.909   8.755   0.510
65632SOL    HW298671   8.032   8.749   0.422
65633SOL     OW98672  11.887   0.729   8.227
65633SOL    HW198673  11.920   0.787   8.158
65633SOL    HW298674  11.958   0.726   8.291
65634SOL     OW98675   9.687   0.836  10.920
65634SOL    HW198676   9.660   0.752  10.958
65634SOL    HW298677   9.664   0.900  10.987
65635SOL     OW98678   4.282  10.224   6.786
65635SOL    HW198679   4.312  10.293   6.844
65635SOL    HW298680   4.347  10.221   6.716
65636SOL     OW98681   7.324   0.414   7.870
65636SOL    HW198682   7.315   0.502   7.908
65636SOL    HW298683   7.360   0.361   7.941
65637SOL     OW98684   2.302  11.539   7.399
65637SOL    HW198685   2.241  11.507   7.465
65637SOL    HW298686   2.314  11.632   7.420
65638SOL     OW98687   7.227  13.075  13.650
65638SOL    HW198688   7.313  13.061  13.611
65638SOL    HW298689   7.242  13.145  13.715
65639SOL     OW98690  14.303   3.456   7.217
65639SOL    HW198691  14.252   3.457   7.136
65639SOL    HW298692  14.304   3.547   7.245
65640SOL     OW98693   9.118   8.777  10.468
65640SOL    HW198694   9.205   8.744  10.449
65640SOL    HW298695   9.122   8.870  10.445
65641SOL     OW98696   0.508   4.953  10.184
65641SOL    HW198697   0.506   4.870  10.137
65641SOL    HW298698   0.508   4.928  10.277
65642SOL     OW98699   1.041   9.747   8.695
65642SOL    HW198700   1.084   9.662   8.706
65642SOL    HW298701   1.089   9.789   8.623
65643SOL     OW98702   1.533   0.307  12.648
65643SOL    HW198703   1.441   0.329  12.663
65643SOL    HW298704   1.539   0.214  12.666
65644SOL     OW98705  10.475   9.071   0.364
65644SOL    HW198706  10.537   9.098   0.295
65644SOL    HW298707  10.407   9.137   0.362
65645SOL     OW98708  13.186   4.681  10.886
65645SOL    HW198709  13.234   4.600  10.901
65645SOL    HW298710  13.109   4.654  10.836
65646SOL     OW98711   4.422  10.169   8.138
65646SOL    HW198712   4.486  10.113   8.183
65646SOL    HW298713   4.476  10.234   8.094
65647SOL     OW98714   6.546  12.460   7.789
65647SOL    HW198715   6.458  12.461   7.827
65647SOL    HW298716   6.535  12.501   7.703
65648SOL     OW98717   0.293   8.361   6.605
65648SOL    HW198718   0.354   8.407   6.547
65648SOL    HW298719   0.266   8.426   6.669
65649SOL     OW98720   4.308  12.127   8.568
65649SOL    HW198721   4.394  12.101   8.535
65649SOL    HW298722   4.256  12.143   8.489
65650SOL     OW98723   5.039   6.828  10.400
65650SOL    HW198724   5.093   6.842  10.478
65650SOL    HW298725   5.070   6.745  10.364
65651SOL     OW98726   4.281   5.583   3.628
65651SOL    HW198727   4.267   5.660   3.573
65651SOL    HW298728   4.337   5.613   3.699
65652SOL     OW98729   4.408   9.670  14.623
65652SOL    HW198730   4.491   9.687  14.579
65652SOL    HW298731   4.412   9.721  14.704
65653SOL     OW98732  11.101   2.408   5.489
65653SOL    HW198733  11.054   2.431   5.409
65653SOL    HW298734  11.115   2.314   5.483
65654SOL     OW98735   9.063   4.968  11.359
65654SOL    HW198736   9.050   4.922  11.442
65654SOL    HW298737   9.065   5.061  11.383
65655SOL     OW98738   8.119  13.775  10.429
65655SOL    HW198739   8.064  13.776  10.351
65655SOL    HW298740   8.207  13.794  10.396
65656SOL     OW98741  12.209   7.735  10.003
65656SOL    HW198742  12.199   7.828  10.027
65656SOL    HW298743  12.283   7.706  10.055
65657SOL     OW98744   0.817   6.635  13.928
65657SOL    HW198745   0.806   6.540  13.920
65657SOL    HW298746   0.856   6.662  13.845
65658SOL     OW98747  12.331  10.977   6.852
65658SOL    HW198748  12.258  11.028   6.816
65658SOL    HW298749  12.403  11.039   6.859
65659SOL     OW98750   8.230  10.767  13.266
65659SOL    HW198751   8.210  10.797  13.355
65659SOL    HW298752   8.158  10.800  13.212
65660SOL     OW98753  13.535  10.379  13.417
65660SOL    HW198754  13.464  10.375  13.480
65660SOL    HW298755  13.614  10.390  13.470
65661SOL     OW98756   7.396  13.791  11.861
65661SOL    HW198757   7.418  13.791  11.954
65661SOL    HW298758   7.446  13.717  11.824
65662SOL     OW98759  11.021   1.110  12.971
65662SOL    HW198760  11.039   1.204  12.962
65662SOL    HW298761  11.092   1.067  12.924
65663SOL     OW98762   1.621   0.136   7.902
65663SOL    HW198763   1.559   0.110   7.834
65663SOL    HW298764   1.705   0.143   7.856
65664SOL     OW98765   4.445  13.733   2.050
65664SOL    HW198766   4.400  13.693   1.975
65664SOL    HW298767   4.377  13.784   2.094
65665SOL     OW98768   2.723  13.577  13.191
65665SOL    HW198769   2.726  13.525  13.272
65665SOL    HW298770   2.757  13.518  13.124
65666SOL     OW98771   1.277   0.543   1.061
65666SOL    HW198772   1.322   0.531   1.144
65666SOL    HW298773   1.184   0.539   1.084
65667SOL     OW98774   1.029   7.612   9.289
65667SOL    HW198775   1.086   7.689   9.283
65667SOL    HW298776   0.941   7.649   9.296
65668SOL     OW98777   8.036   9.386   6.463
65668SOL    HW198778   8.131   9.388   6.475
65668SOL    HW298779   8.021   9.319   6.395
65669SOL     OW98780  13.097   0.461   4.877
65669SOL    HW198781  13.099   0.449   4.972
65669SOL    HW298782  13.171   0.518   4.858
65670SOL     OW98783   4.265   4.592   7.947
65670SOL    HW198784   4.199   4.654   7.917
65670SOL    HW298785   4.315   4.640   8.013
65671SOL     OW98786  11.565  14.135  14.415
65671SOL    HW198787  11.470  14.147  14.415
65671SOL    HW298788  11.577  14.044  14.442
65672SOL     OW98789   4.319   7.014  12.662
65672SOL    HW198790   4.276   6.971  12.588
65672SOL    HW298791   4.256   7.079  12.692
65673SOL     OW98792   3.468   6.133  14.794
65673SOL    HW198793   3.376   6.159  14.798
65673SOL    HW298794   3.482   6.104  14.704
65674SOL     OW98795   3.363   1.882   2.471
65674SOL    HW198796   3.401   1.969   2.464
65674SOL    HW298797   3.310   1.884   2.551
65675SOL     OW98798   2.324   1.798   7.525
65675SOL    HW198799   2.411   1.828   7.500
65675SOL    HW298800   2.340   1.736   7.596
65676SOL     OW98801  12.326   6.130   2.087
65676SOL    HW198802  12.402   6.111   2.141
65676SOL    HW298803  12.360   6.134   1.997
65677SOL     OW98804   5.400   4.601   6.353
65677SOL    HW198805   5.484   4.582   6.310
65677SOL    HW298806   5.412   4.689   6.391
65678SOL     OW98807  11.566   6.045   6.620
65678SOL    HW198808  11.517   5.964   6.604
65678SOL    HW298809  11.613   6.028   6.702
65679SOL     OW98810   6.525   3.601  13.112
65679SOL    HW198811   6.482   3.525  13.074
65679SOL    HW298812   6.524   3.585  13.206
65680SOL     OW98813   1.201  10.859   8.025
65680SOL    HW198814   1.191  10.914   7.948
65680SOL    HW298815   1.274  10.898   8.073
65681SOL     OW98816  12.369   0.904  13.269
65681SOL    HW198817  12.425   0.856  13.208
65681SOL    HW298818  12.403   0.881  13.355
65682SOL     OW98819   1.118   2.467  13.633
65682SOL    HW198820   1.196   2.421  13.603
65682SOL    HW298821   1.107   2.540  13.572
65683SOL     OW98822   8.062  13.174  11.350
65683SOL    HW198823   8.123  13.217  11.409
65683SOL    HW298824   8.071  13.081  11.370
65684SOL     OW98825   5.675   9.822   9.192
65684SOL    HW198826   5.704   9.885   9.126
65684SOL    HW298827   5.589   9.853   9.219
65685SOL     OW98828  12.751  11.964   7.002
65685SOL    HW198829  12.841  11.959   6.969
65685SOL    HW298830  12.696  11.940   6.927
65686SOL     OW98831   6.910  13.514   0.404
65686SOL    HW198832   6.970  13.543   0.472
65686SOL    HW298833   6.878  13.594   0.364
65687SOL     OW98834   8.175  10.655  11.393
65687SOL    HW198835   8.125  10.729  11.428
65687SOL    HW298836   8.256  10.655  11.443
65688SOL     OW98837   7.871   8.383   1.351
65688SOL    HW198838   7.890   8.338   1.268
65688SOL    HW298839   7.828   8.464   1.325
65689SOL     OW98840   8.997   8.672  11.529
65689SOL    HW198841   8.904   8.664  11.551
65689SOL    HW298842   8.997   8.684  11.434
65690SOL     OW98843   8.164  10.062   4.260
65690SOL    HW198844   8.175  10.001   4.187
65690SOL    HW298845   8.099  10.019   4.317
65691SOL     OW98846   9.239  12.510  11.136
65691SOL    HW198847   9.311  12.499  11.198
65691SOL    HW298848   9.282  12.526  11.052
65692SOL     OW98849   9.545   5.743   7.351
65692SOL    HW198850   9.612   5.791   7.400
65692SOL    HW298851   9.595   5.680   7.298
65693SOL     OW98852   0.732   8.723   8.917
65693SOL    HW198853   0.687   8.802   8.946
65693SOL    HW298854   0.745   8.736   8.823
65694SOL     OW98855   1.043  11.773  11.096
65694SOL    HW198856   1.050  11.798  11.188
65694SOL    HW298857   1.027  11.679  11.097
65695SOL     OW98858   6.738  10.887  11.781
65695SOL    HW198859   6.726  10.944  11.857
65695SOL    HW298860   6.760  10.802  11.819
65696SOL     OW98861   4.487   3.532   6.212
65696SOL    HW198862   4.512   3.533   6.120
65696SOL    HW298863   4.397   3.565   6.213
65697SOL     OW98864   0.381   7.456  14.407
65697SOL    HW198865   0.302   7.507  14.390
65697SOL    HW298866   0.420   7.442  14.321
65698SOL     OW98867  10.725   3.083   5.383
65698SOL    HW198868  10.710   3.126   5.467
65698SOL    HW298869  10.639   3.082   5.341
65699SOL     OW98870  13.646   3.181   8.359
65699SOL    HW198871  13.589   3.217   8.291
65699SOL    HW298872  13.665   3.256   8.416
65700SOL     OW98873   7.387   0.175  13.574
65700SOL    HW198874   7.322   0.110  13.547
65700SOL    HW298875   7.456   0.123  13.615
65701SOL     OW98876  10.399   0.868   6.501
65701SOL    HW198877  10.480   0.873   6.551
65701SOL    HW298878  10.358   0.786   6.529
65702SOL     OW98879   6.225  11.266  11.704
65702SOL    HW198880   6.237  11.338  11.642
65702SOL    HW298881   6.273  11.193  11.665
65703SOL     OW98882  10.433   1.028   2.593
65703SOL    HW198883  10.353   1.031   2.646
65703SOL    HW298884  10.459   1.120   2.583
65704SOL     OW98885   8.406   8.684  12.409
65704SOL    HW198886   8.348   8.653  12.340
65704SOL    HW298887   8.458   8.608  12.434
65705SOL     OW98888   0.970  14.568   7.936
65705SOL    HW198889   1.045  14.586   7.879
65705SOL    HW298890   0.997  14.601   8.022
65706SOL     OW98891   4.586  10.414   3.107
65706SOL    HW198892   4.662  10.431   3.164
65706SOL    HW298893   4.568  10.497   3.065
65707SOL     OW98894  11.717   9.346   8.608
65707SOL    HW198895  11.722   9.330   8.514
65707SOL    HW298896  11.623   9.354   8.626
65708SOL     OW98897  11.351  11.587   4.007
65708SOL    HW198898  11.355  11.544   4.093
65708SOL    HW298899  11.276  11.646   4.013
65709SOL     OW98900  13.299  12.314  12.154
65709SOL    HW198901  13.385  12.353  12.145
65709SOL    HW298902  13.290  12.256  12.079
65710SOL     OW98903   3.158  14.086  12.955
65710SOL    HW198904   3.219  14.078  13.028
65710SOL    HW298905   3.088  14.024  12.975
65711SOL     OW98906   1.537   9.443  13.063
65711SOL    HW198907   1.502   9.394  13.137
65711SOL    HW298908   1.630   9.423  13.062
65712SOL     OW98909   1.813  14.455  12.988
65712SOL    HW198910   1.738  14.402  13.017
65712SOL    HW298911   1.859  14.478  13.068
65713SOL     OW98912   5.613   7.362  13.732
65713SOL    HW198913   5.563   7.378  13.812
65713SOL    HW298914   5.649   7.447  13.709
65714SOL     OW98915   5.406  11.986   5.781
65714SOL    HW198916   5.487  11.970   5.732
65714SOL    HW298917   5.341  12.005   5.713
65715SOL     OW98918  12.145   3.618  12.134
65715SOL    HW198919  12.067   3.632  12.080
65715SOL    HW298920  12.164   3.525  12.125
65716SOL     OW98921  13.811   9.114   5.195
65716SOL    HW198922  13.847   9.202   5.185
65716SOL    HW298923  13.753   9.103   5.119
65717SOL     OW98924   3.734  14.446  12.478
65717SOL    HW198925   3.768  14.484  12.559
65717SOL    HW298926   3.702  14.360  12.503
65718SOL     OW98927   9.922   3.078   3.540
65718SOL    HW198928   9.899   3.000   3.489
65718SOL    HW298929  10.014   3.094   3.521
65719SOL     OW98930   6.054  14.450   5.466
65719SOL    HW198931   5.973  14.474   5.420
65719SOL    HW298932   6.026  14.386   5.531
65720SOL     OW98933  10.865   7.363  10.083
65720SOL    HW198934  10.899   7.320  10.161
65720SOL    HW298935  10.821   7.442  10.116
65721SOL     OW98936   4.899  12.557   6.108
65721SOL    HW198937   4.995  12.557   6.114
65721SOL    HW298938   4.880  12.518   6.022
65722SOL     OW98939   3.257   8.469   6.578
65722SOL    HW198940   3.255   8.500   6.669
65722SOL    HW298941   3.340   8.422   6.570
65723SOL     OW98942  13.091   6.505   9.967
65723SOL    HW198943  13.089   6.597   9.939
65723SOL    HW298944  13.033   6.461   9.905
65724SOL     OW98945   5.741   0.421   7.542
65724SOL    HW198946   5.690   0.375   7.475
65724SOL    HW298947   5.700   0.507   7.549
65725SOL     OW98948   9.814   7.912  14.802
65725SOL    HW198949   9.785   7.821  14.788
65725SOL    HW298950   9.880   7.906  14.870
65726SOL     OW98951   3.070   0.254   8.293
65726SOL    HW198952   3.153   0.223   8.258
65726SOL    HW298953   3.039   0.181   8.347
65727SOL     OW98954   5.211  14.490   8.704
65727SOL    HW198955   5.222  14.402   8.740
65727SOL    HW298956   5.232  14.481   8.611
65728SOL     OW98957  10.265   8.663   5.616
65728SOL    HW198958  10.200   8.593   5.614
65728SOL    HW298959  10.253   8.710   5.534
65729SOL     OW98960  10.698   0.041  12.550
65729SOL    HW198961  10.631  14.854  12.571
65729SOL    HW298962  10.743   0.057  12.634
65730SOL     OW98963   2.755   9.965   9.052
65730SOL    HW198964   2.818   9.939   9.119
65730SOL    HW298965   2.743  10.059   9.065
65731SOL     OW98966  13.133   7.650   0.122
65731SOL    HW198967  13.072   7.712   0.161
65731SOL    HW298968  13.201   7.638   0.189
65732SOL     OW98969   7.615   6.237  13.833
65732SOL    HW198970   7.683   6.190  13.785
65732SOL    HW298971   7.562   6.168  13.873
65733SOL     OW98972   7.598   4.332   3.622
65733SOL    HW198973   7.513   4.360   3.657
65733SOL    HW298974   7.612   4.387   3.545
65734SOL     OW98975   0.345   7.315  11.737
65734SOL    HW198976   0.355   7.324  11.832
65734SOL    HW298977   0.263   7.268  11.726
65735SOL     OW98978   8.704   5.408   8.680
65735SOL    HW198979   8.729   5.322   8.713
65735SOL    HW298980   8.680   5.393   8.589
65736SOL     OW98981   3.911   6.618  14.424
65736SOL    HW198982   3.846   6.688  14.421
65736SOL    HW298983   3.907   6.585  14.513
65737SOL     OW98984   7.527  12.062   6.177
65737SOL    HW198985   7.589  12.011   6.229
65737SOL    HW298986   7.558  12.152   6.184
65738SOL     OW98987   7.741   4.136  10.678
65738SOL    HW198988   7.654   4.155  10.716
65738SOL    HW298989   7.752   4.203  10.611
65739SOL     OW98990   3.599   7.688   5.751
65739SOL    HW198991   3.670   7.709   5.811
65739SOL    HW298992   3.604   7.756   5.684
65740SOL     OW98993   1.668  13.692   5.369
65740SOL    HW198994   1.620  13.673   5.289
65740SOL    HW298995   1.758  13.703   5.341
65741SOL     OW98996   5.896  12.427   5.101
65741SOL    HW198997   5.885  12.403   5.009
65741SOL    HW298998   5.863  12.351   5.149
65742SOL     OW98999   8.952   6.034   5.363
65742SOL    HW199000   8.908   5.958   5.326
65742SOL    HW299001   9.018   5.997   5.422
65743SOL     OW99002  10.723  11.084   2.444
65743SOL    HW199003  10.707  11.111   2.534
65743SOL    HW299004  10.636  11.063   2.409
65744SOL     OW99005   9.605   8.907   0.260
65744SOL    HW199006   9.604   9.001   0.240
65744SOL    HW299007   9.520   8.875   0.231
65745SOL     OW99008   6.845   8.740   0.945
65745SOL    HW199009   6.927   8.701   0.976
65745SOL    HW299010   6.792   8.751   1.024
65746SOL     OW99011   7.201   3.727  11.813
65746SOL    HW199012   7.146   3.656  11.778
65746SOL    HW299013   7.173   3.805  11.765
65747SOL     OW99014   4.120  14.062   6.068
65747SOL    HW199015   4.140  14.108   6.150
65747SOL    HW299016   4.038  14.101   6.039
65748SOL     OW99017   1.793  13.325  11.320
65748SOL    HW199018   1.863  13.387  11.296
65748SOL    HW299019   1.773  13.280  11.238
65749SOL     OW99020  10.005   2.514   4.799
65749SOL    HW199021  10.095   2.521   4.768
65749SOL    HW299022   9.953   2.561   4.734
65750SOL     OW99023  14.208   3.257   0.231
65750SOL    HW199024  14.299   3.275   0.254
65750SOL    HW299025  14.185   3.182   0.285
65751SOL     OW99026   5.638   5.651   9.114
65751SOL    HW199027   5.700   5.721   9.094
65751SOL    HW299028   5.640   5.594   9.036
65752SOL     OW99029   9.493   9.471   1.185
65752SOL    HW199030   9.416   9.453   1.131
65752SOL    HW299031   9.473   9.432   1.270
65753SOL     OW99032   7.633   4.213   4.814
65753SOL    HW199033   7.655   4.129   4.774
65753SOL    HW299034   7.548   4.236   4.775
65754SOL     OW99035   8.746  13.010   1.058
65754SOL    HW199036   8.688  13.087   1.062
65754SOL    HW299037   8.824  13.037   1.106
65755SOL     OW99038   4.911   5.502  11.994
65755SOL    HW199039   4.990   5.486  11.941
65755SOL    HW299040   4.934   5.577  12.048
65756SOL     OW99041   9.799   2.349  10.476
65756SOL    HW199042   9.892   2.337  10.457
65756SOL    HW299043   9.789   2.443  10.487
65757SOL     OW99044  14.787   0.034  13.185
65757SOL    HW199045  14.753   0.116  13.150
65757SOL    HW299046  14.771   0.038  13.279
65758SOL     OW99047   6.342   0.129  12.775
65758SOL    HW199048   6.341   0.223  12.793
65758SOL    HW299049   6.435   0.106  12.774
65759SOL     OW99050   2.424   4.592   0.462
65759SOL    HW199051   2.484   4.661   0.489
65759SOL    HW299052   2.366   4.633   0.398
65760SOL     OW99053  12.531   0.415   5.735
65760SOL    HW199054  12.502   0.494   5.690
65760SOL    HW299055  12.504   0.429   5.826
65761SOL     OW99056   4.379  11.639   7.002
65761SOL    HW199057   4.304  11.694   7.024
65761SOL    HW299058   4.439  11.698   6.956
65762SOL     OW99059   1.218   1.919   5.225
65762SOL    HW199060   1.270   1.997   5.207
65762SOL    HW299061   1.211   1.916   5.321
65763SOL     OW99062   2.112   5.952  14.020
65763SOL    HW199063   2.117   5.928  13.927
65763SOL    HW299064   2.032   5.911  14.052
65764SOL     OW99065   9.816  11.204  13.711
65764SOL    HW199066   9.779  11.121  13.681
65764SOL    HW299067   9.741  11.260  13.728
65765SOL     OW99068  11.463  11.127   0.914
65765SOL    HW199069  11.460  11.047   0.861
65765SOL    HW299070  11.440  11.098   1.003
65766SOL     OW99071  11.755   3.957  14.328
65766SOL    HW199072  11.685   4.005  14.284
65766SOL    HW299073  11.810   4.024  14.367
65767SOL     OW99074   4.403   7.906   9.159
65767SOL    HW199075   4.402   7.984   9.215
65767SOL    HW299076   4.327   7.855   9.188
65768SOL     OW99077   0.716  13.394  13.857
65768SOL    HW199078   0.776  13.444  13.801
65768SOL    HW299079   0.672  13.334  13.797
65769SOL     OW99080   1.899  13.902  11.840
65769SOL    HW199081   1.855  13.987  11.847
65769SOL    HW299082   1.900  13.868  11.930
65770SOL     OW99083  11.972   7.882   5.065
65770SOL    HW199084  12.054   7.915   5.102
65770SOL    HW299085  11.972   7.915   4.975
65771SOL     OW99086   1.139   7.988   4.309
65771SOL    HW199087   1.109   8.041   4.235
65771SOL    HW299088   1.223   7.952   4.280
65772SOL     OW99089   9.739  12.881   7.399
65772SOL    HW199090   9.691  12.800   7.386
65772SOL    HW299091   9.733  12.927   7.315
65773SOL     OW99092  14.158   1.317   5.765
65773SOL    HW199093  14.233   1.369   5.795
65773SOL    HW299094  14.175   1.302   5.672
65774SOL     OW99095   4.569   5.045   7.159
65774SOL    HW199096   4.523   5.129   7.156
65774SOL    HW299097   4.499   4.980   7.163
65775SOL     OW99098   0.788   1.836   5.439
65775SOL    HW199099   0.796   1.829   5.344
65775SOL    HW299100   0.778   1.930   5.456
65776SOL     OW99101   5.847   3.576  11.554
65776SOL    HW199102   5.787   3.570  11.628
65776SOL    HW299103   5.857   3.670  11.539
65777SOL     OW99104   7.277   8.440  10.323
65777SOL    HW199105   7.365   8.459  10.291
65777SOL    HW299106   7.274   8.481  10.410
65778SOL     OW99107   3.318   8.328   3.018
65778SOL    HW199108   3.351   8.417   3.029
65778SOL    HW299109   3.288   8.325   2.927
65779SOL     OW99110   3.552  11.111   8.710
65779SOL    HW199111   3.520  11.024   8.733
65779SOL    HW299112   3.507  11.132   8.628
65780SOL     OW99113  14.677  10.976   9.088
65780SOL    HW199114  14.713  10.914   9.152
65780SOL    HW299115  14.719  11.059   9.109
65781SOL     OW99116   9.770  12.323   5.476
65781SOL    HW199117   9.796  12.276   5.555
65781SOL    HW299118   9.813  12.276   5.404
65782SOL     OW99119   7.202   8.922   0.990
65782SOL    HW199120   7.149   8.932   0.911
65782SOL    HW299121   7.154   8.970   1.057
65783SOL     OW99122   0.591  13.702   5.567
65783SOL    HW199123   0.602  13.743   5.481
65783SOL    HW299124   0.501  13.724   5.593
65784SOL     OW99125  14.412   5.722   7.524
65784SOL    HW199126  14.326   5.745   7.558
65784SOL    HW299127  14.424   5.778   7.448
65785SOL     OW99128   0.707   5.250  13.260
65785SOL    HW199129   0.735   5.282  13.175
65785SOL    HW299130   0.775   5.189  13.287
65786SOL     OW99131   4.430   6.686   2.089
65786SOL    HW199132   4.473   6.617   2.141
65786SOL    HW299133   4.343   6.651   2.071
65787SOL     OW99134   4.971   6.544  12.014
65787SOL    HW199135   4.996   6.456  12.044
65787SOL    HW299136   4.886   6.560  12.056
65788SOL     OW99137   4.775  10.677  12.609
65788SOL    HW199138   4.695  10.658  12.559
65788SOL    HW299139   4.839  10.704  12.543
65789SOL     OW99140  14.746  14.756   8.459
65789SOL    HW199141  14.677  14.699   8.425
65789SOL    HW299142  14.719  14.844   8.434
65790SOL     OW99143   3.570   9.899   9.237
65790SOL    HW199144   3.661   9.876   9.253
65790SOL    HW299145   3.521   9.840   9.296
65791SOL     OW99146   0.006   9.540  13.385
65791SOL    HW199147  14.873   9.531  13.479
65791SOL    HW299148   0.076   9.605  13.374
65792SOL     OW99149  12.949   3.277   4.984
65792SOL    HW199150  13.040   3.286   5.011
65792SOL    HW299151  12.945   3.194   4.937
65793SOL     OW99152   0.718  10.176   1.250
65793SOL    HW199153   0.753  10.114   1.186
65793SOL    HW299154   0.623  10.169   1.240
65794SOL     OW99155   6.192   2.238  12.691
65794SOL    HW199156   6.200   2.182  12.769
65794SOL    HW299157   6.282   2.250  12.661
65795SOL     OW99158   0.896   9.635   7.332
65795SOL    HW199159   0.893   9.718   7.285
65795SOL    HW299160   0.988   9.610   7.331
65796SOL     OW99161  12.122   8.422   3.817
65796SOL    HW199162  12.114   8.396   3.725
65796SOL    HW299163  12.149   8.342   3.862
65797SOL     OW99164   2.910  11.365   8.412
65797SOL    HW199165   2.879  11.417   8.337
65797SOL    HW299166   2.850  11.386   8.483
65798SOL     OW99167   3.024   3.442   5.282
65798SOL    HW199168   3.006   3.353   5.249
65798SOL    HW299169   3.096   3.430   5.344
65799SOL     OW99170   8.485   6.577   1.089
65799SOL    HW199171   8.418   6.526   1.042
65799SOL    HW299172   8.564   6.524   1.082
65800SOL     OW99173   0.334  10.883  14.816
65800SOL    HW199174   0.402  10.900  14.751
65800SOL    HW299175   0.376  10.826   0.003
65801SOL     OW99176   5.478   7.148  11.203
65801SOL    HW199177   5.439   7.066  11.174
65801SOL    HW299178   5.569   7.125  11.223
65802SOL     OW99179   7.264   4.051  10.977
65802SOL    HW199180   7.357   4.052  10.955
65802SOL    HW299181   7.221   4.092  10.902
65803SOL     OW99182   4.407   2.628   5.272
65803SOL    HW199183   4.480   2.646   5.331
65803SOL    HW299184   4.448   2.613   5.187
65804SOL     OW99185   9.782   3.549   2.751
65804SOL    HW199186   9.876   3.553   2.733
65804SOL    HW299187   9.759   3.457   2.736
65805SOL     OW99188   1.731   6.870  10.695
65805SOL    HW199189   1.696   6.833  10.614
65805SOL    HW299190   1.668   6.846  10.763
65806SOL     OW99191  14.639   4.335   7.869
65806SOL    HW199192  14.556   4.359   7.828
65806SOL    HW299193  14.616   4.263   7.928
65807SOL     OW99194  10.994  12.021  14.571
65807SOL    HW199195  10.954  11.973  14.499
65807SOL    HW299196  10.921  12.046  14.627
65808SOL     OW99197   4.925   2.178   4.320
65808SOL    HW199198   4.928   2.273   4.329
65808SOL    HW299199   4.999   2.157   4.263
65809SOL     OW99200   6.816   8.859   4.172
65809SOL    HW199201   6.750   8.841   4.240
65809SOL    HW299202   6.890   8.804   4.196
65810SOL     OW99203   0.958   2.760  11.919
65810SOL    HW199204   0.920   2.706  11.988
65810SOL    HW299205   0.883   2.797  11.873
65811SOL     OW99206   8.321   4.206  11.817
65811SOL    HW199207   8.352   4.123  11.854
65811SOL    HW299208   8.346   4.272  11.882
65812SOL     OW99209  10.032  10.272  10.065
65812SOL    HW199210   9.953  10.219  10.059
65812SOL    HW299211  10.072  10.265   9.978
65813SOL     OW99212   2.032  14.596   7.236
65813SOL    HW199213   1.949  14.561   7.268
65813SOL    HW299214   2.069  14.642   7.312
65814SOL     OW99215  14.361   4.264   1.371
65814SOL    HW199216  14.390   4.209   1.298
65814SOL    HW299217  14.441   4.280   1.422
65815SOL     OW99218   5.527  11.570   2.804
65815SOL    HW199219   5.462  11.519   2.853
65815SOL    HW299220   5.610  11.525   2.821
65816SOL     OW99221   2.823  11.818   4.256
65816SOL    HW199222   2.745  11.842   4.207
65816SOL    HW299223   2.790  11.790   4.341
65817SOL     OW99224   9.863   8.022   3.154
65817SOL    HW199225   9.853   8.099   3.099
65817SOL    HW299226   9.831   8.049   3.240
65818SOL     OW99227  13.564  11.130  14.594
65818SOL    HW199228  13.570  11.060  14.659
65818SOL    HW299229  13.654  11.142  14.564
65819SOL     OW99230   7.093  13.009   3.491
65819SOL    HW199231   7.000  13.013   3.470
65819SOL    HW299232   7.115  12.916   3.480
65820SOL     OW99233  13.696   2.411  13.405
65820SOL    HW199234  13.657   2.332  13.367
65820SOL    HW299235  13.740   2.454  13.331
65821SOL     OW99236   8.375  10.490  13.748
65821SOL    HW199237   8.365  10.405  13.704
65821SOL    HW299238   8.456  10.481  13.799
65822SOL     OW99239  14.218   6.021   2.429
65822SOL    HW199240  14.258   6.072   2.499
65822SOL    HW299241  14.145   5.976   2.470
65823SOL     OW99242   0.280   2.558  10.935
65823SOL    HW199243   0.308   2.632  10.988
65823SOL    HW299244   0.360   2.528  10.891
65824SOL     OW99245   9.808   6.489   1.671
65824SOL    HW199246   9.726   6.537   1.658
65824SOL    HW299247   9.851   6.490   1.586
65825SOL     OW99248  14.469   7.389  14.407
65825SOL    HW199249  14.458   7.388  14.502
65825SOL    HW299250  14.395   7.440  14.375
65826SOL     OW99251   6.738  13.133   1.492
65826SOL    HW199252   6.751  13.177   1.407
65826SOL    HW299253   6.826  13.114   1.522
65827SOL     OW99254  13.299   7.576   0.337
65827SOL    HW199255  13.283   7.543   0.425
65827SOL    HW299256  13.359   7.649   0.348
65828SOL     OW99257   9.981   4.052   3.234
65828SOL    HW199258  10.060   4.088   3.275
65828SOL    HW299259   9.998   3.957   3.232
65829SOL     OW99260   3.566  13.083  12.750
65829SOL    HW199261   3.574  13.178  12.751
65829SOL    HW299262   3.536  13.063  12.661
65830SOL     OW99263  12.258  13.659  11.633
65830SOL    HW199264  12.325  13.603  11.672
65830SOL    HW299265  12.241  13.621  11.546
65831SOL     OW99266   7.129   2.658  12.155
65831SOL    HW199267   7.223   2.641  12.166
65831SOL    HW299268   7.114   2.739  12.204
65832SOL     OW99269   3.309   7.061   9.268
65832SOL    HW199270   3.228   7.059   9.217
65832SOL    HW299271   3.281   7.039   9.357
65833SOL     OW99272   7.581  11.106   8.885
65833SOL    HW199273   7.620  11.049   8.819
65833SOL    HW299274   7.544  11.046   8.950
65834SOL     OW99275  12.721  14.488   9.876
65834SOL    HW199276  12.742  14.577   9.903
65834SOL    HW299277  12.755  14.481   9.787
65835SOL     OW99278   7.256   1.847  10.003
65835SOL    HW199279   7.179   1.832  10.058
65835SOL    HW299280   7.271   1.762   9.961
65836SOL     OW99281  10.954  14.078  12.489
65836SOL    HW199282  10.876  14.027  12.467
65836SOL    HW299283  11.026  14.016  12.482
65837SOL     OW99284   3.028   1.980  13.045
65837SOL    HW199285   2.946   1.964  13.092
65837SOL    HW299286   3.004   2.045  12.978
65838SOL     OW99287   8.794   2.247  11.100
65838SOL    HW199288   8.730   2.242  11.171
65838SOL    HW299289   8.777   2.333  11.060
65839SOL     OW99290  13.934   8.867  11.989
65839SOL    HW199291  13.913   8.797  11.928
65839SOL    HW299292  13.935   8.824  12.075
65840SOL     OW99293   6.607   4.367   9.824
65840SOL    HW199294   6.560   4.450   9.822
65840SOL    HW299295   6.540   4.301   9.840
65841SOL     OW99296   7.322  14.499  12.179
65841SOL    HW199297   7.333  14.587  12.142
65841SOL    HW299298   7.286  14.447  12.107
65842SOL     OW99299   3.751   3.932  12.379
65842SOL    HW199300   3.771   3.941  12.473
65842SOL    HW299301   3.665   3.891  12.377
65843SOL     OW99302   5.537   0.683  12.267
65843SOL    HW199303   5.451   0.665  12.304
65843SOL    HW299304   5.582   0.734  12.334
65844SOL     OW99305  13.172   3.584  14.730
65844SOL    HW199306  13.091   3.622  14.696
65844SOL    HW299307  13.207   3.651  14.788
65845SOL     OW99308   5.443   7.908  10.405
65845SOL    HW199309   5.488   7.896  10.321
65845SOL    HW299310   5.512   7.903  10.470
65846SOL     OW99311   4.508   4.103  13.353
65846SOL    HW199312   4.576   4.156  13.394
65846SOL    HW299313   4.484   4.152  13.274
65847SOL     OW99314   8.774   4.479   9.734
65847SOL    HW199315   8.867   4.455   9.725
65847SOL    HW299316   8.776   4.572   9.756
65848SOL     OW99317  13.083   0.808   8.777
65848SOL    HW199318  13.157   0.869   8.785
65848SOL    HW299319  13.013   0.849   8.828
65849SOL     OW99320   1.433  13.748   4.093
65849SOL    HW199321   1.390  13.706   4.019
65849SOL    HW299322   1.496  13.808   4.054
65850SOL     OW99323   9.190  14.681  11.024
65850SOL    HW199324   9.177  14.647  10.936
65850SOL    HW299325   9.136  14.624  11.079
65851SOL     OW99326   6.834   9.893   9.423
65851SOL    HW199327   6.810   9.909   9.332
65851SOL    HW299328   6.772   9.826   9.452
65852SOL     OW99329   4.751   2.078  10.060
65852SOL    HW199330   4.842   2.105  10.054
65852SOL    HW299331   4.726   2.055   9.970
65853SOL     OW99332  11.925   2.063   3.179
65853SOL    HW199333  11.880   1.983   3.206
65853SOL    HW299334  11.992   2.077   3.245
65854SOL     OW99335  14.540   1.656   6.450
65854SOL    HW199336  14.635   1.649   6.462
65854SOL    HW299337  14.510   1.565   6.450
65855SOL     OW99338  10.120   3.625   7.959
65855SOL    HW199339  10.098   3.713   7.930
65855SOL    HW299340  10.162   3.637   8.044
65856SOL     OW99341   8.707  14.367   6.588
65856SOL    HW199342   8.757  14.354   6.507
65856SOL    HW299343   8.630  14.417   6.561
65857SOL     OW99344  12.730  12.132  13.983
65857SOL    HW199345  12.649  12.121  14.032
65857SOL    HW299346  12.715  12.209  13.929
65858SOL     OW99347   4.062   8.478   4.451
65858SOL    HW199348   4.082   8.389   4.423
65858SOL    HW299349   4.119   8.534   4.397
65859SOL     OW99350   2.968  10.941   7.095
65859SOL    HW199351   2.918  10.997   7.035
65859SOL    HW299352   3.008  11.002   7.157
65860SOL     OW99353  11.626  13.332   6.017
65860SOL    HW199354  11.595  13.384   5.942
65860SOL    HW299355  11.581  13.248   6.007
65861SOL     OW99356   1.407   1.168   1.160
65861SOL    HW199357   1.490   1.209   1.136
65861SOL    HW299358   1.356   1.167   1.079
65862SOL     OW99359   0.712   9.659   0.835
65862SOL    HW199360   0.643   9.624   0.778
65862SOL    HW299361   0.751   9.730   0.784
65863SOL     OW99362   2.487  12.253   1.085
65863SOL    HW199363   2.569  12.244   1.036
65863SOL    HW299364   2.426  12.295   1.024
65864SOL     OW99365  11.467  12.331   3.538
65864SOL    HW199366  11.445  12.423   3.519
65864SOL    HW299367  11.491  12.331   3.630
65865SOL     OW99368  12.560   4.271  11.680
65865SOL    HW199369  12.479   4.249  11.635
65865SOL    HW299370  12.582   4.359  11.650
65866SOL     OW99371   8.916  10.885  13.452
65866SOL    HW199372   8.825  10.868  13.429
65866SOL    HW299373   8.948  10.802  13.485
65867SOL     OW99374  13.165   3.973  10.941
65867SOL    HW199375  13.201   3.988  11.028
65867SOL    HW299376  13.189   3.883  10.920
65868SOL     OW99377   4.090   2.778   0.043
65868SOL    HW199378   4.006   2.733   0.049
65868SOL    HW299379   4.127   2.750  14.837
65869SOL     OW99380   4.678   2.321   1.718
65869SOL    HW199381   4.764   2.334   1.758
65869SOL    HW299382   4.680   2.376   1.640
65870SOL     OW99383   5.644  10.019  10.751
65870SOL    HW199384   5.604  10.050  10.833
65870SOL    HW299385   5.655   9.924  10.765
65871SOL     OW99386   4.236  14.162   5.209
65871SOL    HW199387   4.148  14.172   5.172
65871SOL    HW299388   4.290  14.133   5.136
65872SOL     OW99389  10.635   9.042   1.030
65872SOL    HW199390  10.661   8.987   0.956
65872SOL    HW299391  10.625   9.130   0.992
65873SOL     OW99392   1.593   2.316  13.734
65873SOL    HW199393   1.577   2.405  13.702
65873SOL    HW299394   1.640   2.273  13.663
65874SOL     OW99395   4.381  14.431   5.012
65874SOL    HW199396   4.291  14.457   5.033
65874SOL    HW299397   4.381  14.416   4.918
65875SOL     OW99398   3.116   1.690   7.100
65875SOL    HW199399   3.208   1.664   7.095
65875SOL    HW299400   3.112   1.773   7.052
65876SOL     OW99401   0.979  14.578   5.078
65876SOL    HW199402   0.927  14.598   5.156
65876SOL    HW299403   1.070  14.581   5.108
65877SOL     OW99404   9.404   5.378   6.643
65877SOL    HW199405   9.379   5.380   6.551
65877SOL    HW299406   9.456   5.298   6.652
65878SOL     OW99407   6.663   0.413  10.398
65878SOL    HW199408   6.584   0.466  10.389
65878SOL    HW299409   6.714   0.456  10.466
65879SOL     OW99410   3.994   7.333   7.015
65879SOL    HW199411   3.934   7.261   7.035
65879SOL    HW299412   4.059   7.293   6.956
65880SOL     OW99413  10.282   5.346   6.948
65880SOL    HW199414  10.201   5.321   6.991
65880SOL    HW299415  10.287   5.441   6.960
65881SOL     OW99416  14.050   5.058   2.468
65881SOL    HW199417  14.009   5.119   2.406
65881SOL    HW299418  14.143   5.077   2.463
65882SOL     OW99419   6.745   8.819   3.915
65882SOL    HW199420   6.688   8.754   3.955
65882SOL    HW299421   6.796   8.855   3.988
65883SOL     OW99422   2.085  10.998   7.909
65883SOL    HW199423   2.175  11.006   7.877
65883SOL    HW299424   2.032  11.031   7.837
65884SOL     OW99425   5.880   9.873  14.465
65884SOL    HW199426   5.969   9.907  14.454
65884SOL    HW299427   5.868   9.812  14.393
65885SOL     OW99428  14.661   6.499  14.562
65885SOL    HW199429  14.741   6.448  14.574
65885SOL    HW299430  14.641   6.533  14.649
65886SOL     OW99431   0.999   9.944  10.995
65886SOL    HW199432   0.926   9.997  10.962
65886SOL    HW299433   1.004   9.870  10.935
65887SOL     OW99434   6.520   6.793   7.166
65887SOL    HW199435   6.470   6.720   7.129
65887SOL    HW299436   6.466   6.870   7.149
65888SOL     OW99437   2.168  14.151   3.215
65888SOL    HW199438   2.112  14.217   3.255
65888SOL    HW299439   2.118  14.070   3.221
65889SOL     OW99440  10.665   3.959   1.360
65889SOL    HW199441  10.595   3.897   1.382
65889SOL    HW299442  10.660   3.969   1.265
65890SOL     OW99443   4.676  13.306   1.606
65890SOL    HW199444   4.745  13.261   1.655
65890SOL    HW299445   4.602  13.310   1.667
65891SOL     OW99446   4.571   5.007   1.041
65891SOL    HW199447   4.504   5.074   1.055
65891SOL    HW299448   4.524   4.924   1.049
65892SOL     OW99449   5.275   5.126   0.655
65892SOL    HW199450   5.268   5.203   0.711
65892SOL    HW299451   5.271   5.052   0.715
65893SOL     OW99452  10.302  14.576   9.614
65893SOL    HW199453  10.345  14.621   9.687
65893SOL    HW299454  10.256  14.503   9.655
65894SOL     OW99455   8.856  11.353   7.009
65894SOL    HW199456   8.830  11.266   6.979
65894SOL    HW299457   8.814  11.413   6.947
65895SOL     OW99458   9.640   3.661   9.234
65895SOL    HW199459   9.554   3.641   9.272
65895SOL    HW299460   9.696   3.680   9.309
65896SOL     OW99461   9.597   5.714   8.532
65896SOL    HW199462   9.662   5.753   8.474
65896SOL    HW299463   9.586   5.625   8.500
65897SOL     OW99464   1.828   5.790   7.408
65897SOL    HW199465   1.864   5.878   7.417
65897SOL    HW299466   1.785   5.773   7.492
65898SOL     OW99467  13.800  12.505   1.209
65898SOL    HW199468  13.740  12.573   1.242
65898SOL    HW299469  13.821  12.534   1.120
65899SOL     OW99470   7.348   5.878   6.831
65899SOL    HW199471   7.424   5.838   6.790
65899SOL    HW299472   7.278   5.869   6.767
65900SOL     OW99473   8.830   8.820   5.982
65900SOL    HW199474   8.844   8.739   6.032
65900SOL    HW299475   8.808   8.790   5.894
65901SOL     OW99476   0.108  12.416   9.168
65901SOL    HW199477   0.106  12.323   9.143
65901SOL    HW299478   0.016  12.439   9.182
65902SOL     OW99479   1.612   6.233   2.964
65902SOL    HW199480   1.598   6.320   2.928
65902SOL    HW299481   1.544   6.223   3.031
65903SOL     OW99482  14.277  11.071   8.041
65903SOL    HW199483  14.357  11.110   8.005
65903SOL    HW299484  14.281  10.979   8.013
65904SOL     OW99485   0.965  11.639   0.203
65904SOL    HW199486   0.921  11.601   0.279
65904SOL    HW299487   0.928  11.592   0.128
65905SOL     OW99488  11.134  12.235   3.457
65905SOL    HW199489  11.201  12.256   3.521
65905SOL    HW299490  11.085  12.162   3.495
65906SOL     OW99491  12.574  14.234  11.196
65906SOL    HW199492  12.640  14.279  11.247
65906SOL    HW299493  12.622  14.193  11.124
65907SOL     OW99494  10.934   7.465   5.280
65907SOL    HW199495  10.901   7.389   5.328
65907SOL    HW299496  11.028   7.465   5.294
65908SOL     OW99497  13.033   5.971   6.891
65908SOL    HW199498  13.125   5.959   6.869
65908SOL    HW299499  12.986   5.911   6.834
65909SOL     OW99500  14.008  13.260  12.934
65909SOL    HW199501  14.096  13.239  12.964
65909SOL    HW299502  14.021  13.304  12.850
65910SOL     OW99503  12.202  11.989  10.388
65910SOL    HW199504  12.140  12.056  10.415
65910SOL    HW299505  12.147  11.917  10.358
65911SOL     OW99506  10.617   2.985   1.816
65911SOL    HW199507  10.609   3.080   1.812
65911SOL    HW299508  10.531   2.952   1.792
65912SOL     OW99509   9.057   0.355  11.959
65912SOL    HW199510   9.042   0.356  11.864
65912SOL    HW299511   9.118   0.282  11.973
65913SOL     OW99512   4.303  10.014  12.439
65913SOL    HW199513   4.334  10.100  12.470
65913SOL    HW299514   4.383   9.962  12.430
65914SOL     OW99515  13.797   2.502   2.648
65914SOL    HW199516  13.722   2.524   2.703
65914SOL    HW299517  13.855   2.577   2.654
65915SOL     OW99518  12.651  14.127   1.839
65915SOL    HW199519  12.710  14.058   1.870
65915SOL    HW299520  12.578  14.126   1.901
65916SOL     OW99521   6.043   9.707   4.092
65916SOL    HW199522   6.119   9.675   4.043
65916SOL    HW299523   6.041   9.801   4.075
65917SOL     OW99524   5.183   6.333  14.711
65917SOL    HW199525   5.201   6.356  14.802
65917SOL    HW299526   5.091   6.359  14.697
65918SOL     OW99527   7.610  10.924  13.781
65918SOL    HW199528   7.520  10.957  13.782
65918SOL    HW299529   7.665  11.002  13.781
65919SOL     OW99530   9.623  13.351   4.769
65919SOL    HW199531   9.634  13.369   4.862
65919SOL    HW299532   9.643  13.258   4.760
65920SOL     OW99533   3.826   1.341   7.256
65920SOL    HW199534   3.897   1.306   7.310
65920SOL    HW299535   3.857   1.330   7.166
65921SOL     OW99536   8.933  12.538  13.713
65921SOL    HW199537   8.886  12.573  13.788
65921SOL    HW299538   8.908  12.445  13.711
65922SOL     OW99539   3.661   2.635   4.335
65922SOL    HW199540   3.566   2.633   4.323
65922SOL    HW299541   3.680   2.725   4.360
65923SOL     OW99542   6.712  14.304   2.926
65923SOL    HW199543   6.658  14.359   2.870
65923SOL    HW299544   6.786  14.359   2.951
65924SOL     OW99545  10.649  12.770  13.847
65924SOL    HW199546  10.725  12.765  13.905
65924SOL    HW299547  10.580  12.810  13.900
65925SOL     OW99548   3.027   3.542  11.397
65925SOL    HW199549   3.070   3.537  11.311
65925SOL    HW299550   2.993   3.632  11.400
65926SOL     OW99551   2.641  11.811   2.019
65926SOL    HW199552   2.560  11.780   2.059
65926SOL    HW299553   2.614  11.884   1.963
65927SOL     OW99554   2.930   4.206   2.050
65927SOL    HW199555   2.890   4.251   2.124
65927SOL    HW299556   2.886   4.242   1.973
65928SOL     OW99557   4.974   9.291  12.470
65928SOL    HW199558   4.985   9.372  12.420
65928SOL    HW299559   5.019   9.225  12.417
65929SOL     OW99560   1.751   6.796   4.009
65929SOL    HW199561   1.839   6.803   4.046
65929SOL    HW299562   1.717   6.886   4.012
65930SOL     OW99563  14.799  11.421   3.785
65930SOL    HW199564   0.009  11.392   3.808
65930SOL    HW299565  14.744  11.389   3.856
65931SOL     OW99566   7.045  12.094   7.336
65931SOL    HW199567   6.983  12.165   7.320
65931SOL    HW299568   7.087  12.117   7.419
65932SOL     OW99569   3.271   9.604  13.625
65932SOL    HW199570   3.347   9.567  13.670
65932SOL    HW299571   3.307   9.639  13.543
65933SOL     OW99572   5.250  14.837   1.347
65933SOL    HW199573   5.299  14.867   1.424
65933SOL    HW299574   5.310  14.779   1.301
65934SOL     OW99575   6.152   1.772   3.103
65934SOL    HW199576   6.125   1.853   3.059
65934SOL    HW299577   6.101   1.704   3.060
65935SOL     OW99578   4.225   1.810   4.127
65935SOL    HW199579   4.175   1.732   4.101
65935SOL    HW299580   4.219   1.868   4.051
65936SOL     OW99581   0.120   0.798   8.629
65936SOL    HW199582   0.091   0.889   8.624
65936SOL    HW299583   0.067   0.758   8.698
65937SOL     OW99584   6.598   0.524  13.942
65937SOL    HW199585   6.569   0.607  13.904
65937SOL    HW299586   6.540   0.510  14.016
65938SOL     OW99587  12.100   8.004   1.692
65938SOL    HW199588  12.072   8.093   1.714
65938SOL    HW299589  12.182   7.992   1.740
65939SOL     OW99590   7.662  13.249  10.138
65939SOL    HW199591   7.716  13.328  10.139
65939SOL    HW299592   7.628  13.242  10.227
65940SOL     OW99593   8.973   4.754   5.159
65940SOL    HW199594   9.044   4.703   5.120
65940SOL    HW299595   8.904   4.753   5.093
65941SOL     OW99596   9.007  10.288   6.278
65941SOL    HW199597   9.027  10.381   6.296
65941SOL    HW299598   8.918  10.276   6.310
65942SOL     OW99599   5.189  14.592  11.428
65942SOL    HW199600   5.119  14.657  11.434
65942SOL    HW299601   5.267  14.639  11.458
65943SOL     OW99602   2.687   5.166  10.494
65943SOL    HW199603   2.608   5.220  10.489
65943SOL    HW299604   2.679   5.105  10.421
65944SOL     OW99605   9.758   6.230  14.445
65944SOL    HW199606   9.664   6.243  14.437
65944SOL    HW299607   9.777   6.247  14.537
65945SOL     OW99608   5.769  12.833  12.541
65945SOL    HW199609   5.855  12.828  12.584
65945SOL    HW299610   5.769  12.919  12.499
65946SOL     OW99611  11.394   6.328   5.174
65946SOL    HW199612  11.395   6.349   5.081
65946SOL    HW299613  11.439   6.402   5.215
65947SOL     OW99614  13.391   0.399   2.180
65947SOL    HW199615  13.469   0.343   2.186
65947SOL    HW299616  13.387   0.422   2.087
65948SOL     OW99617   0.449   3.980   0.667
65948SOL    HW199618   0.463   3.914   0.736
65948SOL    HW299619   0.432   4.061   0.715
65949SOL     OW99620  13.333   6.043   2.729
65949SOL    HW199621  13.331   5.968   2.670
65949SOL    HW299622  13.404   6.099   2.696
65950SOL     OW99623  11.315   7.061   9.200
65950SOL    HW199624  11.220   7.058   9.210
65950SOL    HW299625  11.337   6.985   9.147
65951SOL     OW99626   6.184  12.271   8.473
65951SOL    HW199627   6.221  12.317   8.548
65951SOL    HW299628   6.248  12.283   8.403
65952SOL     OW99629  13.049  11.761   8.064
65952SOL    HW199630  13.115  11.802   8.008
65952SOL    HW299631  13.025  11.829   8.127
65953SOL     OW99632   1.770   4.841  13.226
65953SOL    HW199633   1.790   4.756  13.264
65953SOL    HW299634   1.848   4.863  13.175
65954SOL     OW99635  12.242   9.182  14.816
65954SOL    HW199636  12.278   9.250  14.872
65954SOL    HW299637  12.247   9.218  14.727
65955SOL     OW99638   6.420   3.737   7.502
65955SOL    HW199639   6.423   3.729   7.598
65955SOL    HW299640   6.512   3.733   7.475
65956SOL     OW99641   1.092   3.848   4.424
65956SOL    HW199642   1.091   3.760   4.387
65956SOL    HW299643   1.037   3.842   4.502
65957SOL     OW99644   4.708  11.662  11.291
65957SOL    HW199645   4.717  11.579  11.339
65957SOL    HW299646   4.732  11.640  11.201
65958SOL     OW99647   3.337   2.533   0.111
65958SOL    HW199648   3.396   2.458   0.107
65958SOL    HW299649   3.317   2.551   0.019
65959SOL     OW99650   3.743   5.000   4.759
65959SOL    HW199651   3.715   5.083   4.795
65959SOL    HW299652   3.835   4.992   4.787
65960SOL     OW99653   1.795  12.199  12.407
65960SOL    HW199654   1.871  12.143  12.392
65960SOL    HW299655   1.781  12.194  12.502
65961SOL     OW99656  10.314   4.140   1.128
65961SOL    HW199657  10.298   4.195   1.205
65961SOL    HW299658  10.255   4.066   1.140
65962SOL     OW99659   9.269   8.092   2.224
65962SOL    HW199660   9.251   8.025   2.290
65962SOL    HW299661   9.348   8.137   2.257
65963SOL     OW99662   3.530   8.651   6.655
65963SOL    HW199663   3.487   8.735   6.638
65963SOL    HW299664   3.523   8.604   6.572
65964SOL     OW99665   0.618  10.133   7.139
65964SOL    HW199666   0.619  10.061   7.202
65964SOL    HW299667   0.691  10.114   7.079
65965SOL     OW99668  10.385  10.995  13.989
65965SOL    HW199669  10.353  11.065  13.933
65965SOL    HW299670  10.448  10.948  13.935
65966SOL     OW99671   0.461   0.004  14.731
65966SOL    HW199672   0.552  14.860  14.711
65966SOL    HW299673   0.467   0.089  14.774
65967SOL     OW99674   3.331   0.609   7.641
65967SOL    HW199675   3.418   0.581   7.612
65967SOL    HW299676   3.347   0.658   7.721
65968SOL     OW99677   9.206  10.709  11.879
65968SOL    HW199678   9.184  10.677  11.791
65968SOL    HW299679   9.292  10.671  11.897
65969SOL     OW99680  11.735   5.932  12.149
65969SOL    HW199681  11.731   6.013  12.099
65969SOL    HW299682  11.680   5.871  12.101
65970SOL     OW99683  11.465  11.001  14.413
65970SOL    HW199684  11.393  11.052  14.375
65970SOL    HW299685  11.528  10.992  14.342
65971SOL     OW99686   9.711   4.984  12.481
65971SOL    HW199687   9.625   4.944  12.498
65971SOL    HW299688   9.727   5.039  12.558
65972SOL     OW99689  10.645   5.919   8.181
65972SOL    HW199690  10.665   6.010   8.204
65972SOL    HW299691  10.624   5.923   8.087
65973SOL     OW99692   4.999   1.853  13.540
65973SOL    HW199693   5.011   1.888  13.452
65973SOL    HW299694   4.919   1.895  13.572
65974SOL     OW99695   9.745   2.354   7.546
65974SOL    HW199696   9.803   2.417   7.502
65974SOL    HW299697   9.779   2.268   7.520
65975SOL     OW99698   1.279   7.778   1.084
65975SOL    HW199699   1.258   7.691   1.049
65975SOL    HW299700   1.371   7.771   1.110
65976SOL     OW99701   6.851  13.538  12.426
65976SOL    HW199702   6.798  13.546  12.505
65976SOL    HW299703   6.788  13.522  12.356
65977SOL     OW99704  13.688  11.703   9.376
65977SOL    HW199705  13.755  11.760   9.414
65977SOL    HW299706  13.737  11.632   9.336
65978SOL     OW99707   1.748  13.161   6.846
65978SOL    HW199708   1.807  13.099   6.803
65978SOL    HW299709   1.762  13.243   6.800
65979SOL     OW99710   9.760   7.577  11.898
65979SOL    HW199711   9.667   7.564  11.915
65979SOL    HW299712   9.804   7.523  11.964
65980SOL     OW99713   9.794  10.606  14.156
65980SOL    HW199714   9.882  10.644  14.148
65980SOL    HW299715   9.799  10.525  14.105
65981SOL     OW99716   1.666  11.008   2.585
65981SOL    HW199717   1.665  11.050   2.672
65981SOL    HW299718   1.654  11.081   2.524
65982SOL     OW99719   6.556  12.843   1.184
65982SOL    HW199720   6.552  12.814   1.275
65982SOL    HW299721   6.546  12.763   1.133
65983SOL     OW99722  12.524   9.957   7.576
65983SOL    HW199723  12.453   9.893   7.576
65983SOL    HW299724  12.481  10.040   7.592
65984SOL     OW99725   1.364   0.715   0.881
65984SOL    HW199726   1.332   0.657   0.950
65984SOL    HW299727   1.391   0.794   0.928
65985SOL     OW99728   6.214   1.317   1.940
65985SOL    HW199729   6.304   1.284   1.943
65985SOL    HW299730   6.184   1.311   2.031
65986SOL     OW99731   5.339   2.222   2.128
65986SOL    HW199732   5.398   2.147   2.123
65986SOL    HW299733   5.390   2.289   2.175
65987SOL     OW99734  10.401  14.161  12.563
65987SOL    HW199735  10.464  14.113  12.508
65987SOL    HW299736  10.344  14.093  12.598
65988SOL     OW99737   6.658  14.040   4.418
65988SOL    HW199738   6.708  14.049   4.337
65988SOL    HW299739   6.719  14.067   4.487
65989SOL     OW99740   0.842   8.192   9.402
65989SOL    HW199741   0.867   8.259   9.339
65989SOL    HW299742   0.886   8.112   9.371
65990SOL     OW99743   1.947  10.013   1.405
65990SOL    HW199744   1.975   9.984   1.492
65990SOL    HW299745   1.883   9.947   1.378
65991SOL     OW99746  10.182   6.388  10.982
65991SOL    HW199747  10.120   6.339  11.035
65991SOL    HW299748  10.143   6.388  10.894
65992SOL     OW99749   4.478   9.620   5.700
65992SOL    HW199750   4.461   9.568   5.622
65992SOL    HW299751   4.573   9.629   5.703
65993SOL     OW99752  10.396   4.343   3.197
65993SOL    HW199753  10.485   4.357   3.164
65993SOL    HW299754  10.406   4.347   3.292
65994SOL     OW99755   2.416  14.840   3.361
65994SOL    HW199756   2.495  14.821   3.411
65994SOL    HW299757   2.365  14.759   3.364
65995SOL     OW99758   7.332  14.192   2.848
65995SOL    HW199759   7.327  14.280   2.886
65995SOL    HW299760   7.241  14.169   2.830
65996SOL     OW99761  10.150   4.822   8.930
65996SOL    HW199762  10.068   4.817   8.980
65996SOL    HW299763  10.185   4.909   8.950
65997SOL     OW99764   8.872   2.523  14.586
65997SOL    HW199765   8.916   2.596  14.630
65997SOL    HW299766   8.936   2.452  14.587
65998SOL     OW99767   1.784   9.992  12.649
65998SOL    HW199768   1.690   9.989  12.669
65998SOL    HW299769   1.827   9.989  12.734
65999SOL     OW99770   9.098  14.301   9.213
65999SOL    HW199771   9.064  14.295   9.124
65999SOL    HW299772   9.096  14.394   9.234
66000SOL     OW99773   5.613   7.405   7.533
66000SOL    HW199774   5.553   7.331   7.531
66000SOL    HW299775   5.568   7.475   7.487
66001SOL     OW99776  11.622   7.219  13.727
66001SOL    HW199777  11.658   7.144  13.774
66001SOL    HW299778  11.638   7.294  13.786
66002SOL     OW99779  10.645   9.829  12.728
66002SOL    HW199780  10.641   9.852  12.821
66002SOL    HW299781  10.663   9.735  12.727
66003SOL     OW99782   2.414  11.791  12.759
66003SOL    HW199783   2.375  11.811  12.844
66003SOL    HW299784   2.481  11.725  12.779
66004SOL     OW99785  11.213   0.439  12.827
66004SOL    HW199786  11.137   0.478  12.870
66004SOL    HW299787  11.205   0.345  12.846
66005SOL     OW99788   7.061   4.847  11.196
66005SOL    HW199789   7.053   4.854  11.291
66005SOL    HW299790   7.041   4.935  11.164
66006SOL     OW99791   9.512   3.633   4.814
66006SOL    HW199792   9.467   3.586   4.744
66006SOL    HW299793   9.562   3.701   4.769
66007SOL     OW99794   1.883   4.767  12.577
66007SOL    HW199795   1.864   4.760  12.484
66007SOL    HW299796   1.819   4.711  12.620
66008SOL     OW99797   2.468   3.788  10.870
66008SOL    HW199798   2.562   3.772  10.860
66008SOL    HW299799   2.431   3.702  10.889
66009SOL     OW99800  13.837  14.163  14.144
66009SOL    HW199801  13.846  14.076  14.106
66009SOL    HW299802  13.874  14.222  14.077
66010SOL     OW99803  13.716   8.514   4.013
66010SOL    HW199804  13.743   8.606   4.010
66010SOL    HW299805  13.734   8.480   3.926
66011SOL     OW99806   4.865   9.992   7.584
66011SOL    HW199807   4.802   9.934   7.542
66011SOL    HW299808   4.951   9.956   7.561
66012SOL     OW99809   5.790  13.023   6.995
66012SOL    HW199810   5.699  13.045   6.973
66012SOL    HW299811   5.836  13.025   6.911
66013SOL     OW99812  11.798  12.682   4.039
66013SOL    HW199813  11.762  12.769   4.060
66013SOL    HW299814  11.735  12.621   4.075
66014SOL     OW99815  14.254   5.719  13.481
66014SOL    HW199816  14.204   5.674  13.413
66014SOL    HW299817  14.198   5.791  13.509
66015SOL     OW99818  10.587   5.892   3.341
66015SOL    HW199819  10.619   5.926   3.257
66015SOL    HW299820  10.492   5.887   3.330
66016SOL     OW99821   3.576   5.336   3.305
66016SOL    HW199822   3.567   5.380   3.389
66016SOL    HW299823   3.632   5.260   3.324
66017SOL     OW99824  10.606   4.917  12.668
66017SOL    HW199825  10.630   4.849  12.606
66017SOL    HW299826  10.553   4.872  12.734
66018SOL     OW99827  14.193  13.997  13.004
66018SOL    HW199828  14.261  13.973  13.066
66018SOL    HW299829  14.114  14.006  13.057
66019SOL     OW99830   5.032   1.788   1.165
66019SOL    HW199831   5.074   1.874   1.170
66019SOL    HW299832   5.023   1.770   1.071
66020SOL     OW99833   9.389   6.145   9.430
66020SOL    HW199834   9.363   6.211   9.365
66020SOL    HW299835   9.442   6.193   9.493
66021SOL     OW99836   1.256   4.491   1.567
66021SOL    HW199837   1.286   4.493   1.658
66021SOL    HW299838   1.196   4.417   1.563
66022SOL     OW99839  10.313  13.830  13.818
66022SOL    HW199840  10.249  13.879  13.869
66022SOL    HW299841  10.285  13.841  13.727
66023SOL     OW99842  10.374   2.820  14.393
66023SOL    HW199843  10.354   2.755  14.325
66023SOL    HW299844  10.298   2.817  14.451
66024SOL     OW99845   4.831   9.276   3.930
66024SOL    HW199846   4.847   9.191   3.970
66024SOL    HW299847   4.740   9.272   3.900
66025SOL     OW99848   7.803   8.226  10.237
66025SOL    HW199849   7.892   8.242  10.206
66025SOL    HW299850   7.747   8.243  10.161
66026SOL     OW99851   0.692   6.691   0.564
66026SOL    HW199852   0.775   6.731   0.590
66026SOL    HW299853   0.636   6.699   0.642
66027SOL     OW99854  13.524   9.535   1.482
66027SOL    HW199855  13.588   9.497   1.542
66027SOL    HW299856  13.451   9.473   1.480
66028SOL     OW99857   2.143  14.038   9.360
66028SOL    HW199858   2.100  13.987   9.429
66028SOL    HW299859   2.229  14.059   9.397
66029SOL     OW99860   3.216  13.744   3.004
66029SOL    HW199861   3.189  13.713   2.917
66029SOL    HW299862   3.134  13.769   3.047
66030SOL     OW99863   4.144   4.097   0.392
66030SOL    HW199864   4.113   4.089   0.482
66030SOL    HW299865   4.064   4.107   0.340
66031SOL     OW99866   7.417   3.673  11.976
66031SOL    HW199867   7.398   3.605  12.041
66031SOL    HW299868   7.339   3.675  11.921
66032SOL     OW99869  14.715   4.716   2.628
66032SOL    HW199870  14.736   4.728   2.535
66032SOL    HW299871  14.690   4.803   2.658
66033SOL     OW99872   0.411   5.049   5.461
66033SOL    HW199873   0.371   4.964   5.442
66033SOL    HW299874   0.402   5.059   5.556
66034SOL     OW99875   2.620   2.845   0.452
66034SOL    HW199876   2.552   2.778   0.462
66034SOL    HW299877   2.702   2.796   0.457
66035SOL     OW99878   7.327   5.433  13.192
66035SOL    HW199879   7.252   5.492  13.194
66035SOL    HW299880   7.392   5.473  13.250
66036SOL     OW99881   5.958  12.842   7.731
66036SOL    HW199882   5.904  12.866   7.656
66036SOL    HW299883   6.011  12.920   7.749
66037SOL     OW99884   9.960   7.254   8.041
66037SOL    HW199885  10.022   7.273   7.971
66037SOL    HW299886   9.879   7.231   7.995
66038SOL     OW99887  14.748   9.993   4.300
66038SOL    HW199888  14.691   9.919   4.318
66038SOL    HW299889  14.691  10.070   4.309
66039SOL     OW99890   5.832   2.184   8.676
66039SOL    HW199891   5.837   2.279   8.687
66039SOL    HW299892   5.784   2.153   8.753
66040SOL     OW99893   6.658   3.439   4.584
66040SOL    HW199894   6.608   3.400   4.512
66040SOL    HW299895   6.705   3.365   4.622
66041SOL     OW99896   6.284   5.208   9.404
66041SOL    HW199897   6.269   5.194   9.498
66041SOL    HW299898   6.270   5.302   9.391
66042SOL     OW99899   5.499   0.127  14.391
66042SOL    HW199900   5.518   0.082  14.309
66042SOL    HW299901   5.420   0.085  14.424
66043SOL     OW99902   0.811   4.464  10.567
66043SOL    HW199903   0.852   4.431  10.487
66043SOL    HW299904   0.723   4.425  10.567
66044SOL     OW99905   6.979   0.420   5.264
66044SOL    HW199906   6.888   0.422   5.292
66044SOL    HW299907   7.004   0.328   5.267
66045SOL     OW99908   2.368  10.212  13.921
66045SOL    HW199909   2.293  10.212  13.980
66045SOL    HW299910   2.383  10.305  13.902
66046SOL     OW99911   3.866   5.763  11.224
66046SOL    HW199912   3.895   5.852  11.207
66046SOL    HW299913   3.776   5.773  11.256
66047SOL     OW99914   4.875   5.977   0.288
66047SOL    HW199915   4.953   5.933   0.255
66047SOL    HW299916   4.867   5.948   0.378
66048SOL     OW99917   5.251  12.164  14.666
66048SOL    HW199918   5.292  12.170  14.580
66048SOL    HW299919   5.269  12.248  14.707
66049SOL     OW99920  13.533   9.499   5.745
66049SOL    HW199921  13.600   9.564   5.763
66049SOL    HW299922  13.536   9.486   5.650
66050SOL     OW99923  14.798  13.683  14.531
66050SOL    HW199924  14.766  13.751  14.472
66050SOL    HW299925   0.012  13.671  14.506
66051SOL     OW99926   5.472   3.781  11.935
66051SOL    HW199927   5.448   3.838  12.008
66051SOL    HW299928   5.472   3.693  11.974
66052SOL     OW99929   7.547   6.772  11.723
66052SOL    HW199930   7.637   6.756  11.749
66052SOL    HW299931   7.496   6.752  11.802
66053SOL     OW99932  12.187   9.164  10.068
66053SOL    HW199933  12.102   9.188  10.030
66053SOL    HW299934  12.165   9.122  10.151
66054SOL     OW99935   7.811  12.572   6.002
66054SOL    HW199936   7.725  12.558   6.042
66054SOL    HW299937   7.825  12.667   6.010
66055SOL     OW99938   1.006  13.723   3.595
66055SOL    HW199939   0.981  13.769   3.515
66055SOL    HW299940   0.930  13.730   3.652
66056SOL     OW99941   4.772   1.022   3.081
66056SOL    HW199942   4.732   0.975   3.007
66056SOL    HW299943   4.801   1.105   3.044
66057SOL     OW99944   7.900  10.524   6.719
66057SOL    HW199945   7.954  10.470   6.777
66057SOL    HW299946   7.910  10.483   6.633
66058SOL     OW99947   7.509   0.524   1.231
66058SOL    HW199948   7.454   0.598   1.207
66058SOL    HW299949   7.567   0.558   1.300
66059SOL     OW99950   0.627   7.971  14.783
66059SOL    HW199951   0.573   8.038  14.742
66059SOL    HW299952   0.715   8.008  14.785
66060SOL     OW99953   8.652  10.802   3.983
66060SOL    HW199954   8.625  10.713   3.961
66060SOL    HW299955   8.636  10.808   4.077
66061SOL     OW99956  13.565  14.781   6.679
66061SOL    HW199957  13.624  14.805   6.607
66061SOL    HW299958  13.611  14.711   6.725
66062SOL     OW99959   0.113  10.129  10.878
66062SOL    HW199960   0.117  10.041  10.840
66062SOL    HW299961   0.124  10.188  10.803
66063SOL     OW99962  12.671   6.522   7.368
66063SOL    HW199963  12.697   6.480   7.286
66063SOL    HW299964  12.718   6.474   7.436
66064SOL     OW99965   9.789   3.818   7.090
66064SOL    HW199966   9.763   3.740   7.041
66064SOL    HW299967   9.791   3.790   7.181
66065SOL     OW99968  14.868   6.750   4.379
66065SOL    HW199969  14.859   6.707   4.294
66065SOL    HW299970  14.838   6.840   4.364
66066SOL     OW99971   4.356   8.343   8.101
66066SOL    HW199972   4.397   8.356   8.015
66066SOL    HW299973   4.348   8.431   8.137
66067SOL     OW99974   2.433   1.144   2.183
66067SOL    HW199975   2.366   1.119   2.120
66067SOL    HW299976   2.516   1.130   2.138
66068SOL     OW99977   8.187   1.452   8.525
66068SOL    HW199978   8.158   1.370   8.565
66068SOL    HW299979   8.107   1.492   8.491
66069SOL     OW99980   2.402  12.822   8.116
66069SOL    HW199981   2.348  12.901   8.117
66069SOL    HW299982   2.489  12.851   8.144
66070SOL     OW99983   2.720   7.972  11.476
66070SOL    HW199984   2.806   8.013  11.467
66070SOL    HW299985   2.707   7.924  11.395
66071SOL     OW99986   3.537   3.582  12.938
66071SOL    HW199987   3.585   3.553  13.016
66071SOL    HW299988   3.486   3.657  12.968
66072SOL     OW99989  10.066   6.567   3.960
66072SOL    HW199990  10.007   6.498   3.931
66072SOL    HW299991  10.114   6.529   4.034
66073SOL     OW99992   5.893   9.440   8.831
66073SOL    HW199993   5.835   9.390   8.773
66073SOL    HW299994   5.834   9.478   8.896
66074SOL     OW99995  12.148   8.994  11.093
66074SOL    HW199996  12.132   8.942  11.171
66074SOL    HW299997  12.066   9.041  11.078
66075SOL     OW99998   5.291   2.742  11.461
66075SOL    HW199999   5.278   2.714  11.551
66075SOL    HW2    0   5.207   2.725  11.418
66076SOL     OW    1   0.775  13.968   9.553
66076SOL    HW1    2   0.721  13.927   9.621
66076SOL    HW2    3   0.862  13.931   9.565
66077SOL     OW    4  10.874   2.820   5.440
66077SOL    HW1    5  10.859   2.883   5.510
66077SOL    HW2    6  10.950   2.853   5.393
66078SOL     OW    7  10.479   6.341  10.908
66078SOL    HW1    8  10.392   6.374  10.932
66078SOL    HW2    9  10.523   6.328  10.991
66079SOL     OW   10   3.656   0.166   0.883
66079SOL    HW1   11   3.706   0.242   0.855
66079SOL    HW2   12   3.567   0.198   0.897
66080SOL     OW   13  14.538   7.373   9.341
66080SOL    HW1   14  14.459   7.415   9.308
66080SOL    HW2   15  14.569   7.320   9.268
66081SOL     OW   16   9.684  13.536   5.558
66081SOL    HW1   17   9.629  13.486   5.499
66081SOL    HW2   18   9.632  13.615   5.577
66082SOL     OW   19  14.154  10.994   3.738
66082SOL    HW1   20  14.079  11.045   3.705
66082SOL    HW2   21  14.151  10.913   3.687
66083SOL     OW   22   8.006   2.331  12.850
66083SOL    HW1   23   8.078   2.364  12.903
66083SOL    HW2   24   8.025   2.361  12.761
66084SOL     OW   25   4.201   4.747   1.467
66084SOL    HW1   26   4.270   4.806   1.437
66084SOL    HW2   27   4.133   4.804   1.502
66085SOL     OW   28   1.207   4.047   0.601
66085SOL    HW1   29   1.152   3.978   0.638
66085SOL    HW2   30   1.295   4.010   0.600
66086SOL     OW   31   9.704   7.592   9.355
66086SOL    HW1   32   9.643   7.655   9.394
66086SOL    HW2   33   9.695   7.514   9.409
66087SOL     OW   34  12.578  10.560   9.931
66087SOL    HW1   35  12.507  10.612   9.894
66087SOL    HW2   36  12.647  10.624   9.950
66088SOL     OW   37  14.024   8.571  12.402
66088SOL    HW1   38  14.032   8.488  12.356
66088SOL    HW2   39  14.112   8.607  12.402
66089SOL     OW   40   5.707  10.621   7.273
66089SOL    HW1   41   5.720  10.586   7.185
66089SOL    HW2   42   5.684  10.713   7.259
66090SOL     OW   43   0.935  11.521  11.449
66090SOL    HW1   44   0.980  11.443  11.416
66090SOL    HW2   45   0.892  11.492  11.529
66091SOL     OW   46  11.736   0.639   2.091
66091SOL    HW1   47  11.827   0.664   2.077
66091SOL    HW2   48  11.719   0.659   2.183
66092SOL     OW   49   0.818   8.483  11.559
66092SOL    HW1   50   0.838   8.430  11.637
66092SOL    HW2   51   0.724   8.475  11.548
66093SOL     OW   52   2.313   0.495  11.342
66093SOL    HW1   53   2.258   0.450  11.278
66093SOL    HW2   54   2.373   0.428  11.373
66094SOL     OW   55   0.283   9.076  11.846
66094SOL    HW1   56   0.231   9.087  11.925
66094SOL    HW2   57   0.366   9.041  11.876
66095SOL     OW   58   1.071  12.756  13.531
66095SOL    HW1   59   0.989  12.738  13.576
66095SOL    HW2   60   1.137  12.758  13.601
66096SOL     OW   61   9.525  13.874  12.322
66096SOL    HW1   62   9.592  13.900  12.386
66096SOL    HW2   63   9.442  13.886  12.368
66097SOL     OW   64   6.311   8.305   5.669
66097SOL    HW1   65   6.368   8.230   5.680
66097SOL    HW2   66   6.367   8.374   5.635
66098SOL     OW   67   2.873   6.629   6.206
66098SOL    HW1   68   2.910   6.563   6.148
66098SOL    HW2   69   2.882   6.711   6.157
66099SOL     OW   70   1.976  11.764  12.534
66099SOL    HW1   71   1.901  11.799  12.583
66099SOL    HW2   72   1.998  11.682  12.579
66100SOL     OW   73   5.976   5.532   1.720
66100SOL    HW1   74   6.067   5.503   1.714
66100SOL    HW2   75   5.959   5.536   1.814
66101SOL     OW   76   4.953   6.424  10.475
66101SOL    HW1   77   5.005   6.485  10.527
66101SOL    HW2   78   5.017   6.366  10.434
66102SOL     OW   79  14.447   2.012   0.280
66102SOL    HW1   80  14.525   1.980   0.325
66102SOL    HW2   81  14.376   1.996   0.342
66103SOL     OW   82   6.962   3.505  10.170
66103SOL    HW1   83   6.978   3.566  10.099
66103SOL    HW2   84   7.037   3.517  10.230
66104SOL     OW   85  13.127  13.260   8.523
66104SOL    HW1   86  13.140  13.345   8.565
66104SOL    HW2   87  13.186  13.201   8.570
66105SOL     OW   88   3.331   2.893   0.044
66105SOL    HW1   89   3.364   2.823  14.865
66105SOL    HW2   90   3.267   2.850   0.101
66106SOL     OW   91   6.945   7.499  13.980
66106SOL    HW1   92   6.929   7.532  14.068
66106SOL    HW2   93   6.870   7.444  13.960
66107SOL     OW   94   8.529   4.924   3.970
66107SOL    HW1   95   8.559   4.834   3.959
66107SOL    HW2   96   8.502   4.930   4.061
66108SOL     OW   97   5.103   4.615   0.089
66108SOL    HW1   98   5.180   4.604   0.033
66108SOL    HW2   99   5.080   4.527   0.117
66109SOL     OW  100  12.593  13.568   8.033
66109SOL    HW1  101  12.522  13.518   8.073
66109SOL    HW2  102  12.647  13.501   7.991
66110SOL     OW  103  11.969   2.246  10.528
66110SOL    HW1  104  11.904   2.316  10.539
66110SOL    HW2  105  12.022   2.250  10.608
66111SOL     OW  106  11.381  14.789   4.659
66111SOL    HW1  107  11.461  14.827   4.695
66111SOL    HW2  108  11.403  14.697   4.644
66112SOL     OW  109  14.642   5.656   1.594
66112SOL    HW1  110  14.693   5.709   1.655
66112SOL    HW2  111  14.551   5.671   1.618
66113SOL     OW  112   9.835   8.446   5.256
66113SOL    HW1  113   9.755   8.491   5.229
66113SOL    HW2  114   9.886   8.511   5.304
66114SOL     OW  115  10.432  12.505   6.797
66114SOL    HW1  116  10.459  12.436   6.858
66114SOL    HW2  117  10.494  12.576   6.811
66115SOL     OW  118  10.094   2.620   9.555
66115SOL    HW1  119  10.095   2.525   9.543
66115SOL    HW2  120  10.058   2.654   9.473
66116SOL     OW  121  13.062   1.495  12.835
66116SOL    HW1  122  13.077   1.408  12.872
66116SOL    HW2  123  13.098   1.489  12.746
66117SOL     OW  124  11.990   1.965   4.957
66117SOL    HW1  125  11.981   1.914   5.038
66117SOL    HW2  126  12.079   1.948   4.928
66118SOL     OW  127   8.124  12.128  10.904
66118SOL    HW1  128   8.075  12.081  10.838
66118SOL    HW2  129   8.073  12.207  10.922
66119SOL     OW  130   4.915   4.610  13.122
66119SOL    HW1  131   5.003   4.634  13.093
66119SOL    HW2  132   4.864   4.690  13.114
66120SOL     OW  133  10.456  12.717  11.444
66120SOL    HW1  134  10.481  12.671  11.524
66120SOL    HW2  135  10.524  12.693  11.381
66121SOL     OW  136  13.367   6.453   1.835
66121SOL    HW1  137  13.414   6.536   1.832
66121SOL    HW2  138  13.304   6.464   1.906
66122SOL     OW  139  13.647   2.432  13.870
66122SOL    HW1  140  13.706   2.491  13.823
66122SOL    HW2  141  13.665   2.449  13.962
66123SOL     OW  142  12.479   9.459   4.399
66123SOL    HW1  143  12.420   9.433   4.470
66123SOL    HW2  144  12.556   9.495   4.443
66124SOL     OW  145   4.078  12.892   2.041
66124SOL    HW1  146   4.019  12.859   2.109
66124SOL    HW2  147   4.162  12.903   2.084
66125SOL     OW  148   9.578  12.745  10.649
66125SOL    HW1  149   9.570  12.665  10.597
66125SOL    HW2  150   9.502  12.798  10.624
66126SOL     OW  151  13.992   8.067   5.612
66126SOL    HW1  152  13.908   8.114   5.613
66126SOL    HW2  153  13.990   8.013   5.691
66127SOL     OW  154   0.769   3.416  13.976
66127SOL    HW1  155   0.853   3.409  13.931
66127SOL    HW2  156   0.765   3.506  14.006
66128SOL     OW  157   0.607  12.663   9.581
66128SOL    HW1  158   0.632  12.647   9.490
66128SOL    HW2  159   0.685  12.641   9.632
66129SOL     OW  160   4.140  12.644   6.881
66129SOL    HW1  161   4.095  12.710   6.830
66129SOL    HW2  162   4.219  12.688   6.914
66130SOL     OW  163  10.864   0.610  14.670
66130SOL    HW1  164  10.901   0.680  14.616
66130SOL    HW2  165  10.880   0.638  14.760
66131SOL     OW  166  13.479   9.382   1.222
66131SOL    HW1  167  13.423   9.409   1.295
66131SOL    HW2  168  13.558   9.434   1.233
66132SOL     OW  169  11.999   4.134   4.577
66132SOL    HW1  170  11.917   4.146   4.624
66132SOL    HW2  171  11.975   4.084   4.499
66133SOL     OW  172   7.218  10.603   1.395
66133SOL    HW1  173   7.283  10.533   1.397
66133SOL    HW2  174   7.266  10.681   1.367
66134SOL     OW  175   7.364   9.156   2.596
66134SOL    HW1  176   7.325   9.161   2.508
66134SOL    HW2  177   7.290   9.145   2.655
66135SOL     OW  178   4.973   9.865   9.345
66135SOL    HW1  179   4.895   9.810   9.336
66135SOL    HW2  180   5.036   9.809   9.391
66136SOL     OW  181  10.701   0.850   0.905
66136SOL    HW1  182  10.681   0.758   0.920
66136SOL    HW2  183  10.703   0.889   0.992
66137SOL     OW  184   3.501   3.567   3.582
66137SOL    HW1  185   3.575   3.540   3.528
66137SOL    HW2  186   3.539   3.622   3.650
66138SOL     OW  187   8.723   6.108   1.094
66138SOL    HW1  188   8.791   6.075   1.035
66138SOL    HW2  189   8.659   6.036   1.100
66139SOL     OW  190   5.308  14.176   9.799
66139SOL    HW1  191   5.284  14.215   9.883
66139SOL    HW2  192   5.400  14.153   9.808
66140SOL     OW  193  12.325   4.780   7.529
66140SOL    HW1  194  12.410   4.824   7.521
66140SOL    HW2  195  12.282   4.794   7.445
66141SOL     OW  196  13.483  14.769   5.094
66141SOL    HW1  197  13.457  14.678   5.111
66141SOL    HW2  198  13.443  14.789   5.009
66142SOL     OW  199   7.279  13.828   7.811
66142SOL    HW1  200   7.373  13.813   7.799
66142SOL    HW2  201   7.265  13.815   7.905
66143SOL     OW  202  11.860   3.787  14.861
66143SOL    HW1  203  11.824   3.742   0.059
66143SOL    HW2  204  11.877   3.876   0.014
66144SOL     OW  205  11.959   5.731   6.371
66144SOL    HW1  206  12.040   5.781   6.365
66144SOL    HW2  207  11.951   5.708   6.463
66145SOL     OW  208   3.075   8.771  11.170
66145SOL    HW1  209   3.078   8.817  11.086
66145SOL    HW2  210   3.132   8.823  11.227
66146SOL     OW  211  10.755   0.658   3.564
66146SOL    HW1  212  10.705   0.616   3.635
66146SOL    HW2  213  10.825   0.597   3.545
66147SOL     OW  214   6.042   1.593  11.136
66147SOL    HW1  215   6.052   1.511  11.184
66147SOL    HW2  216   5.973   1.640  11.183
66148SOL     OW  217   4.962   7.255  12.454
66148SOL    HW1  218   4.993   7.202  12.527
66148SOL    HW2  219   4.992   7.208  12.376
66149SOL     OW  220  11.192  14.424   8.885
66149SOL    HW1  221  11.254  14.489   8.852
66149SOL    HW2  222  11.241  14.373   8.949
66150SOL     OW  223   6.743   3.526  14.292
66150SOL    HW1  224   6.692   3.480  14.359
66150SOL    HW2  225   6.699   3.506  14.210
66151SOL     OW  226   7.024   1.922   7.425
66151SOL    HW1  227   7.085   1.967   7.367
66151SOL    HW2  228   6.937   1.950   7.395
66152SOL     OW  229  10.280   7.548   9.741
66152SOL    HW1  230  10.247   7.511   9.823
66152SOL    HW2  231  10.342   7.615   9.768
66153SOL     OW  232  11.471   5.439  14.719
66153SOL    HW1  233  11.558   5.410  14.691
66153SOL    HW2  234  11.476   5.535  14.717
66154SOL     OW  235   2.406   4.446  12.623
66154SOL    HW1  236   2.368   4.441  12.536
66154SOL    HW2  237   2.349   4.507  12.670
66155SOL     OW  238   5.065   3.842  13.932
66155SOL    HW1  239   5.057   3.924  13.883
66155SOL    HW2  240   4.979   3.829  13.972
66156SOL     OW  241  10.112   0.492  13.977
66156SOL    HW1  242  10.046   0.471  14.043
66156SOL    HW2  243  10.146   0.407  13.949
66157SOL     OW  244   2.473   8.071   8.912
66157SOL    HW1  245   2.389   8.036   8.940
66157SOL    HW2  246   2.473   8.161   8.946
66158SOL     OW  247   1.729   6.142   7.236
66158SOL    HW1  248   1.744   6.182   7.150
66158SOL    HW2  249   1.636   6.117   7.234
66159SOL     OW  250   2.826  12.305   6.998
66159SOL    HW1  251   2.838  12.379   6.938
66159SOL    HW2  252   2.833  12.228   6.942
66160SOL     OW  253   4.048  13.431   2.555
66160SOL    HW1  254   4.028  13.464   2.467
66160SOL    HW2  255   4.119  13.368   2.541
66161SOL     OW  256  10.082   4.806  11.722
66161SOL    HW1  257  10.171   4.787  11.695
66161SOL    HW2  258  10.047   4.861  11.653
66162SOL     OW  259   1.753   4.876   1.643
66162SOL    HW1  260   1.661   4.862   1.622
66162SOL    HW2  261   1.790   4.789   1.652
66163SOL     OW  262   5.155   5.403   1.277
66163SOL    HW1  263   5.246   5.372   1.279
66163SOL    HW2  264   5.153   5.475   1.341
66164SOL     OW  265   5.176   0.260  13.777
66164SOL    HW1  266   5.143   0.297  13.696
66164SOL    HW2  267   5.101   0.261  13.837
66165SOL     OW  268  12.039   2.647   2.581
66165SOL    HW1  269  11.970   2.637   2.515
66165SOL    HW2  270  12.002   2.708   2.644
66166SOL     OW  271   6.763   0.773   1.730
66166SOL    HW1  272   6.804   0.704   1.679
66166SOL    HW2  273   6.830   0.841   1.736
66167SOL     OW  274  11.881   2.785   0.726
66167SOL    HW1  275  11.930   2.826   0.797
66167SOL    HW2  276  11.941   2.719   0.690
66168SOL     OW  277   2.985   2.314   8.714
66168SOL    HW1  278   2.926   2.261   8.768
66168SOL    HW2  279   2.928   2.351   8.646
66169SOL     OW  280  11.146   8.892   7.666
66169SOL    HW1  281  11.223   8.897   7.723
66169SOL    HW2  282  11.080   8.847   7.718
66170SOL     OW  283  13.829   4.389   5.794
66170SOL    HW1  284  13.871   4.451   5.734
66170SOL    HW2  285  13.737   4.415   5.794
66171SOL     OW  286   3.323  12.043   2.140
66171SOL    HW1  287   3.364  12.125   2.113
66171SOL    HW2  288   3.364  12.024   2.225
66172SOL     OW  289   9.469  11.600   2.585
66172SOL    HW1  290   9.405  11.553   2.531
66172SOL    HW2  291   9.553  11.567   2.555
66173SOL     OW  292  13.175  12.083   9.296
66173SOL    HW1  293  13.191  12.006   9.242
66173SOL    HW2  294  13.254  12.093   9.349
66174SOL     OW  295  10.974   5.432   6.164
66174SOL    HW1  296  11.039   5.447   6.096
66174SOL    HW2  297  10.929   5.516   6.172
66175SOL     OW  298   9.556  13.104   1.539
66175SOL    HW1  299   9.465  13.112   1.566
66175SOL    HW2  300   9.600  13.178   1.580
66176SOL     OW  301  13.874   9.599   2.846
66176SOL    HW1  302  13.907   9.542   2.916
66176SOL    HW2  303  13.783   9.571   2.834
66177SOL     OW  304   0.274   8.018   7.508
66177SOL    HW1  305   0.198   7.967   7.478
66177SOL    HW2  306   0.289   7.988   7.597
66178SOL     OW  307  13.021  10.577   0.308
66178SOL    HW1  308  12.950  10.572   0.372
66178SOL    HW2  309  12.997  10.513   0.241
66179SOL     OW  310   1.982   9.715   6.274
66179SOL    HW1  311   2.004   9.683   6.361
66179SOL    HW2  312   1.988   9.810   6.281
66180SOL     OW  313   0.141  12.345   7.810
66180SOL    HW1  314   0.141  12.406   7.736
66180SOL    HW2  315   0.049  12.339   7.836
66181SOL     OW  316   2.398  11.950  10.893
66181SOL    HW1  317   2.430  11.862  10.915
66181SOL    HW2  318   2.475  11.995  10.858
66182SOL     OW  319   6.427   6.394   5.927
66182SOL    HW1  320   6.517   6.374   5.953
66182SOL    HW2  321   6.381   6.409   6.010
66183SOL     OW  322   8.909  14.590   4.419
66183SOL    HW1  323   8.915  14.686   4.419
66183SOL    HW2  324   8.904  14.567   4.326
66184SOL     OW  325   5.354  11.083   7.692
66184SOL    HW1  326   5.307  11.036   7.623
66184SOL    HW2  327   5.292  11.089   7.764
66185SOL     OW  328   2.064   6.505   5.610
66185SOL    HW1  329   2.004   6.438   5.641
66185SOL    HW2  330   2.070   6.490   5.515
66186SOL     OW  331  11.707   2.395   3.155
66186SOL    HW1  332  11.627   2.443   3.178
66186SOL    HW2  333  11.705   2.389   3.060
66187SOL     OW  334  11.278   7.439  12.759
66187SOL    HW1  335  11.339   7.470  12.692
66187SOL    HW2  336  11.230   7.518  12.786
66188SOL     OW  337  12.929  13.003  12.247
66188SOL    HW1  338  12.993  13.027  12.314
66188SOL    HW2  339  12.929  12.907  12.247
66189SOL     OW  340  14.233   2.458  13.242
66189SOL    HW1  341  14.283   2.408  13.307
66189SOL    HW2  342  14.300   2.498  13.187
66190SOL     OW  343   8.402  14.031  13.971
66190SOL    HW1  344   8.330  14.080  13.932
66190SOL    HW2  345   8.441  14.091  14.034
66191SOL     OW  346   1.504   7.526   5.868
66191SOL    HW1  347   1.554   7.446   5.852
66191SOL    HW2  348   1.523   7.548   5.959
66192SOL     OW  349   1.727   3.421   8.152
66192SOL    HW1  350   1.818   3.429   8.183
66192SOL    HW2  351   1.690   3.508   8.165
66193SOL     OW  352   5.872   0.083   7.725
66193SOL    HW1  353   5.930   0.007   7.737
66193SOL    HW2  354   5.864   0.093   7.630
66194SOL     OW  355   4.254   8.751   8.102
66194SOL    HW1  356   4.168   8.765   8.143
66194SOL    HW2  357   4.303   8.700   8.166
66195SOL     OW  358   3.052   5.103   5.542
66195SOL    HW1  359   3.059   5.199   5.542
66195SOL    HW2  360   3.024   5.081   5.631
66196SOL     OW  361   1.177  14.478   9.385
66196SOL    HW1  362   1.269  14.449   9.386
66196SOL    HW2  363   1.172  14.545   9.454
66197SOL     OW  364   7.011  14.823   9.955
66197SOL    HW1  365   7.034  14.733   9.980
66197SOL    HW2  366   6.916  14.823   9.948
66198SOL     OW  367   2.919   7.338  13.092
66198SOL    HW1  368   3.014   7.330  13.081
66198SOL    HW2  369   2.885   7.250  13.075
66199SOL     OW  370   3.178   9.844  10.673
66199SOL    HW1  371   3.236   9.829  10.598
66199SOL    HW2  372   3.157   9.937  10.668
66200SOL     OW  373  12.133  14.141   6.227
66200SOL    HW1  374  12.110  14.230   6.200
66200SOL    HW2  375  12.156  14.096   6.146
66201SOL     OW  376  12.062  10.574   8.875
66201SOL    HW1  377  12.089  10.662   8.849
66201SOL    HW2  378  12.125  10.549   8.944
66202SOL     OW  379   0.125   9.262  14.014
66202SOL    HW1  380   0.101   9.181  14.057
66202SOL    HW2  381   0.105   9.330  14.078
66203SOL     OW  382   5.095   9.910   5.635
66203SOL    HW1  383   5.182   9.941   5.661
66203SOL    HW2  384   5.088   9.823   5.673
66204SOL     OW  385   8.980   9.798   4.510
66204SOL    HW1  386   9.057   9.805   4.567
66204SOL    HW2  387   9.006   9.735   4.442
66205SOL     OW  388   5.243  13.900   0.716
66205SOL    HW1  389   5.245  13.893   0.620
66205SOL    HW2  390   5.331  13.930   0.739
66206SOL     OW  391   0.238  11.124   4.550
66206SOL    HW1  392   0.288  11.197   4.587
66206SOL    HW2  393   0.166  11.165   4.503
66207SOL     OW  394  14.552   3.564  14.173
66207SOL    HW1  395  14.588   3.574  14.261
66207SOL    HW2  396  14.558   3.652  14.134
66208SOL     OW  397  10.498   5.343   7.342
66208SOL    HW1  398  10.536   5.361   7.428
66208SOL    HW2  399  10.571   5.308   7.291
66209SOL     OW  400   0.320   9.549  10.531
66209SOL    HW1  401   0.278   9.617  10.585
66209SOL    HW2  402   0.257   9.531  10.462
66210SOL     OW  403   3.129  13.848  14.490
66210SOL    HW1  404   3.043  13.885  14.511
66210SOL    HW2  405   3.122  13.821  14.399
66211SOL     OW  406  13.755  14.080  14.723
66211SOL    HW1  407  13.754  13.995  14.679
66211SOL    HW2  408  13.671  14.119  14.702
66212SOL     OW  409   4.708   2.242   9.670
66212SOL    HW1  410   4.745   2.287   9.746
66212SOL    HW2  411   4.687   2.154   9.701
66213SOL     OW  412  12.456  10.936   3.665
66213SOL    HW1  413  12.521  10.913   3.731
66213SOL    HW2  414  12.493  11.013   3.621
66214SOL     OW  415   0.399   5.665  13.327
66214SOL    HW1  416   0.466   5.684  13.393
66214SOL    HW2  417   0.445   5.671  13.244
66215SOL     OW  418   7.437   4.939   5.274
66215SOL    HW1  419   7.357   4.892   5.250
66215SOL    HW2  420   7.502   4.870   5.286
66216SOL     OW  421   0.683   1.736  13.056
66216SOL    HW1  422   0.730   1.660  13.090
66216SOL    HW2  423   0.742   1.774  12.991
66217SOL     OW  424   3.801   2.140  10.203
66217SOL    HW1  425   3.841   2.065  10.247
66217SOL    HW2  426   3.803   2.210  10.268
66218SOL     OW  427   0.292  10.433  14.271
66218SOL    HW1  428   0.275  10.339  14.267
66218SOL    HW2  429   0.348  10.450  14.196
66219SOL     OW  430   7.115   8.079   1.450
66219SOL    HW1  431   7.134   8.047   1.362
66219SOL    HW2  432   7.035   8.033   1.476
66220SOL     OW  433   1.869   4.391   7.259
66220SOL    HW1  434   1.868   4.366   7.166
66220SOL    HW2  435   1.836   4.315   7.305
66221SOL     OW  436   7.674  12.577   9.137
66221SOL    HW1  437   7.677  12.616   9.224
66221SOL    HW2  438   7.751  12.522   9.132
66222SOL     OW  439  10.839  12.076   1.602
66222SOL    HW1  440  10.779  12.150   1.610
66222SOL    HW2  441  10.880  12.088   1.516
66223SOL     OW  442   0.168   8.303   6.019
66223SOL    HW1  443   0.089   8.358   6.015
66223SOL    HW2  444   0.218   8.329   5.941
66224SOL     OW  445   8.371   0.128  10.539
66224SOL    HW1  446   8.432   0.064  10.575
66224SOL    HW2  447   8.337   0.087  10.459
66225SOL     OW  448   8.860   2.683   0.936
66225SOL    HW1  449   8.911   2.722   0.865
66225SOL    HW2  450   8.827   2.601   0.899
66226SOL     OW  451  11.079   2.504   4.548
66226SOL    HW1  452  11.011   2.564   4.516
66226SOL    HW2  453  11.154   2.519   4.489
66227SOL     OW  454   1.202   5.725   6.593
66227SOL    HW1  455   1.247   5.652   6.635
66227SOL    HW2  456   1.213   5.709   6.499
66228SOL     OW  457   9.249   4.902  13.405
66228SOL    HW1  458   9.171   4.888  13.352
66228SOL    HW2  459   9.309   4.832  13.377
66229SOL     OW  460  14.003   0.090   3.300
66229SOL    HW1  461  14.084   0.039   3.304
66229SOL    HW2  462  14.003   0.141   3.381
66230SOL     OW  463  12.280  12.785   8.940
66230SOL    HW1  464  12.336  12.713   8.966
66230SOL    HW2  465  12.220  12.747   8.875
66231SOL     OW  466   2.449   0.349  13.967
66231SOL    HW1  467   2.508   0.424  13.962
66231SOL    HW2  468   2.362   0.387  13.951
66232SOL     OW  469   9.497   9.679   6.269
66232SOL    HW1  470   9.492   9.724   6.185
66232SOL    HW2  471   9.578   9.710   6.308
66233SOL     OW  472  13.760   0.354  14.471
66233SOL    HW1  473  13.735   0.342  14.379
66233SOL    HW2  474  13.796   0.443  14.474
66234SOL     OW  475  13.388   9.782  14.500
66234SOL    HW1  476  13.326   9.710  14.489
66234SOL    HW2  477  13.376   9.837  14.422
66235SOL     OW  478  11.324   3.272   8.065
66235SOL    HW1  479  11.302   3.333   8.135
66235SOL    HW2  480  11.319   3.186   8.107
66236SOL     OW  481  14.344  13.909   4.191
66236SOL    HW1  482  14.338  13.999   4.158
66236SOL    HW2  483  14.256  13.890   4.224
66237SOL     OW  484  10.054   8.940   5.257
66237SOL    HW1  485  10.097   9.022   5.231
66237SOL    HW2  486  10.008   8.911   5.179
66238SOL     OW  487   6.206  13.289   0.011
66238SOL    HW1  488   6.152  13.318   0.085
66238SOL    HW2  489   6.295  13.286   0.046
66239SOL     OW  490   6.848  12.293   7.352
66239SOL    HW1  491   6.814  12.339   7.275
66239SOL    HW2  492   6.879  12.362   7.410
66240SOL     OW  493   0.858  13.684  13.071
66240SOL    HW1  494   0.873  13.705  13.164
66240SOL    HW2  495   0.904  13.601  13.058
66241SOL     OW  496   8.787   2.757   1.971
66241SOL    HW1  497   8.852   2.766   1.902
66241SOL    HW2  498   8.827   2.698   2.036
66242SOL     OW  499   7.684   1.669  11.864
66242SOL    HW1  500   7.672   1.757  11.827
66242SOL    HW2  501   7.748   1.627  11.806
66243SOL     OW  502   1.229   9.019   0.827
66243SOL    HW1  503   1.162   8.954   0.810
66243SOL    HW2  504   1.303   8.993   0.772
66244SOL     OW  505   9.299   9.328   7.299
66244SOL    HW1  506   9.272   9.236   7.303
66244SOL    HW2  507   9.217   9.376   7.284
66245SOL     OW  508   3.856   9.651   1.792
66245SOL    HW1  509   3.892   9.615   1.873
66245SOL    HW2  510   3.848   9.745   1.810
66246SOL     OW  511   4.025  14.343   4.813
66246SOL    HW1  512   3.993  14.401   4.744
66246SOL    HW2  513   4.120  14.339   4.799
66247SOL     OW  514  12.664   1.987  11.733
66247SOL    HW1  515  12.685   1.968  11.641
66247SOL    HW2  516  12.569   1.975  11.738
66248SOL     OW  517   5.813  11.203  13.600
66248SOL    HW1  518   5.816  11.160  13.514
66248SOL    HW2  519   5.767  11.141  13.656
66249SOL     OW  520   3.419   5.928  14.140
66249SOL    HW1  521   3.418   6.017  14.175
66249SOL    HW2  522   3.327   5.907  14.124
66250SOL     OW  523   9.106   0.699   2.340
66250SOL    HW1  524   9.045   0.707   2.267
66250SOL    HW2  525   9.186   0.741   2.309
66251SOL     OW  526   9.728  14.773   0.916
66251SOL    HW1  527   9.773  14.690   0.899
66251SOL    HW2  528   9.661  14.777   0.848
66252SOL     OW  529  14.000   4.606   0.808
66252SOL    HW1  530  13.929   4.604   0.744
66252SOL    HW2  531  13.958   4.630   0.891
66253SOL     OW  532   3.205  13.397   7.222
66253SOL    HW1  533   3.169  13.405   7.310
66253SOL    HW2  534   3.136  13.429   7.165
66254SOL     OW  535  11.497   6.183   3.934
66254SOL    HW1  536  11.582   6.219   3.910
66254SOL    HW2  537  11.512   6.089   3.943
66255SOL     OW  538   1.912   9.978   5.205
66255SOL    HW1  539   1.975  10.042   5.238
66255SOL    HW2  540   1.838   9.983   5.266
66256SOL     OW  541   0.479   7.138   1.536
66256SOL    HW1  542   0.560   7.112   1.493
66256SOL    HW2  543   0.500   7.138   1.630
66257SOL     OW  544  13.890   3.155  10.292
66257SOL    HW1  545  13.958   3.111  10.343
66257SOL    HW2  546  13.807   3.127  10.332
66258SOL     OW  547   9.472   3.398   1.728
66258SOL    HW1  548   9.552   3.445   1.753
66258SOL    HW2  549   9.503   3.327   1.671
66259SOL     OW  550   6.676  14.331   5.631
66259SOL    HW1  551   6.632  14.415   5.645
66259SOL    HW2  552   6.666  14.315   5.537
66260SOL     OW  553   8.153   7.724   0.502
66260SOL    HW1  554   8.178   7.804   0.456
66260SOL    HW2  555   8.233   7.699   0.549
66261SOL     OW  556   1.557   0.686  14.162
66261SOL    HW1  557   1.590   0.696  14.073
66261SOL    HW2  558   1.632   0.653  14.212
66262SOL     OW  559   1.178   9.743   1.858
66262SOL    HW1  560   1.252   9.684   1.870
66262SOL    HW2  561   1.103   9.696   1.893
66263SOL     OW  562  10.143  14.804   9.811
66263SOL    HW1  563  10.078  14.833   9.747
66263SOL    HW2  564  10.215  14.770   9.758
66264SOL     OW  565  10.469  13.250   4.923
66264SOL    HW1  566  10.423  13.218   4.844
66264SOL    HW2  567  10.524  13.177   4.950
66265SOL     OW  568   6.819  14.662   1.264
66265SOL    HW1  569   6.731  14.635   1.288
66265SOL    HW2  570   6.806  14.736   1.205
66266SOL     OW  571  12.136   2.448  14.792
66266SOL    HW1  572  12.220   2.422  14.753
66266SOL    HW2  573  12.136   2.544  14.788
66267SOL     OW  574  14.585  11.417   9.125
66267SOL    HW1  575  14.624  11.330   9.138
66267SOL    HW2  576  14.493  11.406   9.149
66268SOL     OW  577   1.818   3.351  11.224
66268SOL    HW1  578   1.893   3.336  11.282
66268SOL    HW2  579   1.811   3.446  11.220
66269SOL     OW  580   6.128   3.685   3.786
66269SOL    HW1  581   6.056   3.736   3.748
66269SOL    HW2  582   6.146   3.618   3.721
66270SOL     OW  583  13.841   5.123   1.262
66270SOL    HW1  584  13.811   5.087   1.345
66270SOL    HW2  585  13.855   5.047   1.207
66271SOL     OW  586  12.612   5.868  12.169
66271SOL    HW1  587  12.556   5.792  12.182
66271SOL    HW2  588  12.618   5.878  12.074
66272SOL     OW  589   0.424  13.837   0.857
66272SOL    HW1  590   0.423  13.906   0.791
66272SOL    HW2  591   0.450  13.881   0.938
66273SOL     OW  592   1.391  10.814   8.945
66273SOL    HW1  593   1.422  10.745   9.003
66273SOL    HW2  594   1.355  10.881   9.004
66274SOL     OW  595   8.077   2.990  10.117
66274SOL    HW1  596   8.006   2.932  10.144
66274SOL    HW2  597   8.084   3.054  10.188
66275SOL     OW  598  12.270  10.550   4.872
66275SOL    HW1  599  12.210  10.485   4.833
66275SOL    HW2  600  12.271  10.528   4.965
66276SOL     OW  601   2.256  14.601  13.103
66276SOL    HW1  602   2.321  14.646  13.156
66276SOL    HW2  603   2.177  14.654  13.111
66277SOL     OW  604   6.308  10.711   0.716
66277SOL    HW1  605   6.319  10.783   0.779
66277SOL    HW2  606   6.390  10.710   0.667
66278SOL     OW  607   2.448   6.460   9.363
66278SOL    HW1  608   2.477   6.551   9.363
66278SOL    HW2  609   2.523   6.411   9.397
66279SOL     OW  610   9.662   6.540   4.647
66279SOL    HW1  611   9.682   6.604   4.716
66279SOL    HW2  612   9.745   6.495   4.632
66280SOL     OW  613  11.496  10.803   3.011
66280SOL    HW1  614  11.452  10.842   3.087
66280SOL    HW2  615  11.589  10.810   3.031
66281SOL     OW  616   6.749   3.342  11.800
66281SOL    HW1  617   6.769   3.353  11.707
66281SOL    HW2  618   6.666   3.388  11.812
66282SOL     OW  619  10.429   4.391  14.786
66282SOL    HW1  620  10.487   4.316  14.796
66282SOL    HW2  621  10.456   4.452  14.855
66283SOL     OW  622  14.664   4.712   2.967
66283SOL    HW1  623  14.614   4.630   2.966
66283SOL    HW2  624  14.615   4.771   2.910
66284SOL     OW  625   9.568   5.180   1.156
66284SOL    HW1  626   9.642   5.142   1.203
66284SOL    HW2  627   9.527   5.105   1.112
66285SOL     OW  628   8.312  11.042  10.504
66285SOL    HW1  629   8.326  11.136  10.494
66285SOL    HW2  630   8.219  11.033  10.524
66286SOL     OW  631  11.633  12.787  13.599
66286SOL    HW1  632  11.618  12.702  13.556
66286SOL    HW2  633  11.590  12.850  13.542
66287SOL     OW  634   0.347   7.759  11.816
66287SOL    HW1  635   0.394   7.700  11.757
66287SOL    HW2  636   0.391   7.749  11.901
66288SOL     OW  637   3.119  14.205  13.647
66288SOL    HW1  638   3.056  14.272  13.620
66288SOL    HW2  639   3.179  14.196  13.572
66289SOL     OW  640   1.952   5.309   7.942
66289SOL    HW1  641   2.002   5.324   8.022
66289SOL    HW2  642   1.867   5.279   7.972
66290SOL     OW  643   3.222   3.817  14.376
66290SOL    HW1  644   3.199   3.726  14.357
66290SOL    HW2  645   3.145   3.867  14.349
66291SOL     OW  646  12.160   5.112   7.466
66291SOL    HW1  647  12.065   5.129   7.467
66291SOL    HW2  648  12.180   5.097   7.373
66292SOL     OW  649   2.478   9.545   7.500
66292SOL    HW1  650   2.424   9.469   7.520
66292SOL    HW2  651   2.550   9.540   7.563
66293SOL     OW  652  10.770   6.541   8.173
66293SOL    HW1  653  10.823   6.495   8.108
66293SOL    HW2  654  10.747   6.473   8.237
66294SOL     OW  655  11.272   1.657   7.140
66294SOL    HW1  656  11.288   1.572   7.101
66294SOL    HW2  657  11.185   1.650   7.180
66295SOL     OW  658   1.918  11.427  11.656
66295SOL    HW1  659   1.836  11.380  11.644
66295SOL    HW2  660   1.933  11.425  11.750
66296SOL     OW  661   3.781   9.950   5.885
66296SOL    HW1  662   3.742   9.863   5.888
66296SOL    HW2  663   3.784   9.972   5.792
66297SOL     OW  664   0.946   2.617  14.443
66297SOL    HW1  665   0.911   2.692  14.395
66297SOL    HW2  666   1.038   2.612  14.418
66298SOL     OW  667   8.404   1.003  14.831
66298SOL    HW1  668   8.456   0.984  14.753
66298SOL    HW2  669   8.387   1.097  14.826
66299SOL     OW  670   4.684   4.884   6.759
66299SOL    HW1  671   4.626   4.955   6.784
66299SOL    HW2  672   4.659   4.811   6.816
66300SOL     OW  673  13.083   6.885   5.917
66300SOL    HW1  674  13.109   6.963   5.868
66300SOL    HW2  675  12.990   6.901   5.938
66301SOL     OW  676   1.910   8.963  10.798
66301SOL    HW1  677   1.986   8.910  10.772
66301SOL    HW2  678   1.835   8.912  10.768
66302SOL     OW  679   3.403  13.417   0.594
66302SOL    HW1  680   3.347  13.351   0.554
66302SOL    HW2  681   3.419  13.385   0.683
66303SOL     OW  682   6.308   6.043   5.600
66303SOL    HW1  683   6.385   6.035   5.545
66303SOL    HW2  684   6.288   5.953   5.626
66304SOL     OW  685  11.176   9.471   1.895
66304SOL    HW1  686  11.120   9.474   1.972
66304SOL    HW2  687  11.258   9.512   1.923
66305SOL     OW  688  11.474   2.508   0.561
66305SOL    HW1  689  11.427   2.536   0.483
66305SOL    HW2  690  11.564   2.538   0.548
66306SOL     OW  691   5.688   4.743   1.691
66306SOL    HW1  692   5.710   4.774   1.779
66306SOL    HW2  693   5.654   4.654   1.705
66307SOL     OW  694   2.291   7.672  11.687
66307SOL    HW1  695   2.204   7.686  11.649
66307SOL    HW2  696   2.343   7.747  11.659
66308SOL     OW  697   9.689   7.850   5.180
66308SOL    HW1  698   9.638   7.915   5.229
66308SOL    HW2  699   9.633   7.772   5.179
66309SOL     OW  700  11.296  12.482   9.840
66309SOL    HW1  701  11.274  12.535   9.916
66309SOL    HW2  702  11.277  12.538   9.765
66310SOL     OW  703   9.910   7.317   0.206
66310SOL    HW1  704   9.846   7.252   0.235
66310SOL    HW2  705   9.990   7.267   0.192
66311SOL     OW  706   5.869   0.701   2.472
66311SOL    HW1  707   5.841   0.716   2.382
66311SOL    HW2  708   5.791   0.716   2.525
66312SOL     OW  709   7.943   4.881  10.445
66312SOL    HW1  710   7.948   4.975  10.458
66312SOL    HW2  711   7.939   4.844  10.534
66313SOL     OW  712  13.772  11.587  12.894
66313SOL    HW1  713  13.843  11.531  12.862
66313SOL    HW2  714  13.727  11.533  12.960
66314SOL     OW  715   2.532   1.951  14.510
66314SOL    HW1  716   2.578   2.021  14.464
66314SOL    HW2  717   2.590   1.876  14.505
66315SOL     OW  718  14.235   6.371   8.440
66315SOL    HW1  719  14.259   6.303   8.377
66315SOL    HW2  720  14.314   6.385   8.492
66316SOL     OW  721  13.066  13.027   2.949
66316SOL    HW1  722  13.052  13.010   3.042
66316SOL    HW2  723  13.110  12.949   2.916
66317SOL     OW  724   1.311   9.078   8.077
66317SOL    HW1  725   1.300   9.144   8.146
66317SOL    HW2  726   1.346   9.001   8.122
66318SOL     OW  727  14.380   9.797   7.949
66318SOL    HW1  728  14.320   9.750   7.892
66318SOL    HW2  729  14.413   9.731   8.010
66319SOL     OW  730   8.756  10.807  11.391
66319SOL    HW1  731   8.805  10.747  11.335
66319SOL    HW2  732   8.786  10.787  11.480
66320SOL     OW  733  12.196  10.006  14.843
66320SOL    HW1  734  12.118   9.998   0.019
66320SOL    HW2  735  12.260  10.048   0.022
66321SOL     OW  736   2.749   3.067   6.352
66321SOL    HW1  737   2.818   3.124   6.318
66321SOL    HW2  738   2.670   3.120   6.350
66322SOL     OW  739   0.587   5.852   5.307
66322SOL    HW1  740   0.493   5.842   5.323
66322SOL    HW2  741   0.604   5.799   5.229
66323SOL     OW  742  14.188   0.939   9.351
66323SOL    HW1  743  14.267   0.897   9.386
66323SOL    HW2  744  14.211   1.032   9.346
66324SOL     OW  745   6.958   5.072  14.443
66324SOL    HW1  746   7.025   5.139  14.455
66324SOL    HW2  747   6.886   5.099  14.500
66325SOL     OW  748   1.102   3.812   1.269
66325SOL    HW1  749   1.115   3.846   1.181
66325SOL    HW2  750   1.020   3.764   1.265
66326SOL     OW  751   0.675   9.940  10.180
66326SOL    HW1  752   0.614   9.918  10.110
66326SOL    HW2  753   0.682   9.859  10.232
66327SOL     OW  754  11.361   8.736   8.246
66327SOL    HW1  755  11.318   8.763   8.327
66327SOL    HW2  756  11.295   8.684   8.200
66328SOL     OW  757   2.901   5.948  12.782
66328SOL    HW1  758   2.874   5.863  12.747
66328SOL    HW2  759   2.835   6.010  12.748
66329SOL     OW  760  14.229  13.173   9.586
66329SOL    HW1  761  14.230  13.263   9.553
66329SOL    HW2  762  14.282  13.178   9.666
66330SOL     OW  763  10.214   7.799   8.011
66330SOL    HW1  764  10.198   7.801   8.106
66330SOL    HW2  765  10.212   7.891   7.984
66331SOL     OW  766  10.461  13.013   8.611
66331SOL    HW1  767  10.384  12.963   8.583
66331SOL    HW2  768  10.503  12.959   8.677
66332SOL     OW  769   2.251   6.252  13.217
66332SOL    HW1  770   2.277   6.160  13.214
66332SOL    HW2  771   2.332   6.300  13.234
66333SOL     OW  772   6.331  12.638   0.422
66333SOL    HW1  773   6.235  12.640   0.425
66333SOL    HW2  774   6.357  12.730   0.411
66334SOL     OW  775  12.851   1.203   9.188
66334SOL    HW1  776  12.915   1.166   9.250
66334SOL    HW2  777  12.903   1.227   9.112
66335SOL     OW  778   8.381   9.339   5.889
66335SOL    HW1  779   8.352   9.419   5.932
66335SOL    HW2  780   8.383   9.274   5.959
66336SOL     OW  781   6.826   7.211  11.455
66336SOL    HW1  782   6.849   7.303  11.448
66336SOL    HW2  783   6.908   7.164  11.439
66337SOL     OW  784   2.237   4.638   2.195
66337SOL    HW1  785   2.193   4.571   2.248
66337SOL    HW2  786   2.173   4.710   2.190
66338SOL     OW  787  11.902   4.988   2.206
66338SOL    HW1  788  11.912   5.068   2.154
66338SOL    HW2  789  11.990   4.953   2.213
66339SOL     OW  790  11.186  12.787   9.243
66339SOL    HW1  791  11.111  12.812   9.189
66339SOL    HW2  792  11.194  12.858   9.307
66340SOL     OW  793   6.732   0.514  13.437
66340SOL    HW1  794   6.801   0.448  13.439
66340SOL    HW2  795   6.664   0.478  13.494
66341SOL     OW  796  12.234  10.287  14.718
66341SOL    HW1  797  12.201  10.208  14.762
66341SOL    HW2  798  12.299  10.255  14.656
66342SOL     OW  799   5.360   4.480   5.730
66342SOL    HW1  800   5.272   4.461   5.699
66342SOL    HW2  801   5.360   4.574   5.745
66343SOL     OW  802   6.899  13.652   1.145
66343SOL    HW1  803   6.972  13.687   1.094
66343SOL    HW2  804   6.900  13.558   1.128
66344SOL     OW  805   7.321   9.447   7.720
66344SOL    HW1  806   7.227   9.431   7.727
66344SOL    HW2  807   7.358   9.362   7.694
66345SOL     OW  808   4.091   0.664   6.959
66345SOL    HW1  809   4.035   0.649   7.035
66345SOL    HW2  810   4.029   0.686   6.889
66346SOL     OW  811   3.846   4.317   5.020
66346SOL    HW1  812   3.934   4.282   5.035
66346SOL    HW2  813   3.794   4.240   4.998
66347SOL     OW  814  13.458   7.589   7.693
66347SOL    HW1  815  13.417   7.654   7.636
66347SOL    HW2  816  13.547   7.620   7.705
66348SOL     OW  817   9.706   1.435  14.790
66348SOL    HW1  818   9.703   1.341  14.804
66348SOL    HW2  819   9.667   1.448  14.704
66349SOL     OW  820   4.667   5.577  13.665
66349SOL    HW1  821   4.573   5.591  13.675
66349SOL    HW2  822   4.682   5.488  13.699
66350SOL     OW  823   6.156  13.073   4.788
66350SOL    HW1  824   6.153  13.126   4.709
66350SOL    HW2  825   6.238  13.098   4.831
66351SOL     OW  826  14.041   3.116   9.204
66351SOL    HW1  827  14.069   3.160   9.124
66351SOL    HW2  828  13.979   3.049   9.174
66352SOL     OW  829   9.734   2.898   7.818
66352SOL    HW1  830   9.761   2.977   7.771
66352SOL    HW2  831   9.694   2.843   7.751
66353SOL     OW  832  10.750   4.493   9.860
66353SOL    HW1  833  10.771   4.546   9.783
66353SOL    HW2  834  10.774   4.548   9.934
66354SOL     OW  835   1.659  14.413   6.815
66354SOL    HW1  836   1.728  14.454   6.868
66354SOL    HW2  837   1.705  14.375   6.740
66355SOL     OW  838  11.563   5.213   9.104
66355SOL    HW1  839  11.509   5.290   9.123
66355SOL    HW2  840  11.631   5.215   9.170
66356SOL     OW  841  12.997   1.814   2.621
66356SOL    HW1  842  13.036   1.731   2.649
66356SOL    HW2  843  12.917   1.823   2.673
66357SOL     OW  844   5.440  12.471   0.555
66357SOL    HW1  845   5.442  12.497   0.648
66357SOL    HW2  846   5.495  12.393   0.551
66358SOL     OW  847  13.305  10.718  11.835
66358SOL    HW1  848  13.345  10.788  11.782
66358SOL    HW2  849  13.327  10.638  11.788
66359SOL     OW  850   5.044  14.278  10.960
66359SOL    HW1  851   4.959  14.296  10.921
66359SOL    HW2  852   5.065  14.356  11.011
66360SOL     OW  853   3.369  10.696  11.674
66360SOL    HW1  854   3.339  10.699  11.764
66360SOL    HW2  855   3.369  10.788  11.646
66361SOL     OW  856   2.155   6.826  13.866
66361SOL    HW1  857   2.158   6.756  13.800
66361SOL    HW2  858   2.096   6.792  13.933
66362SOL     OW  859  11.133   6.332   0.513
66362SOL    HW1  860  11.140   6.405   0.575
66362SOL    HW2  861  11.192   6.354   0.442
66363SOL     OW  862  10.604   4.481  11.643
66363SOL    HW1  863  10.565   4.430  11.714
66363SOL    HW2  864  10.677   4.528  11.684
66364SOL     OW  865   7.082   4.955   0.935
66364SOL    HW1  866   7.028   5.004   0.874
66364SOL    HW2  867   7.127   4.890   0.881
66365SOL     OW  868  12.571   0.849  14.783
66365SOL    HW1  869  12.566   0.819  14.692
66365SOL    HW2  870  12.643   0.799  14.820
66366SOL     OW  871   3.948   7.703   7.513
66366SOL    HW1  872   3.888   7.733   7.581
66366SOL    HW2  873   4.011   7.648   7.560
66367SOL     OW  874   4.876   2.209   5.661
66367SOL    HW1  875   4.785   2.236   5.659
66367SOL    HW2  876   4.921   2.279   5.708
66368SOL     OW  877  13.169   5.164   7.547
66368SOL    HW1  878  13.130   5.188   7.462
66368SOL    HW2  879  13.254   5.125   7.524
66369SOL     OW  880  11.685   2.377   1.499
66369SOL    HW1  881  11.665   2.309   1.435
66369SOL    HW2  882  11.779   2.367   1.516
66370SOL     OW  883   8.614  13.214   2.102
66370SOL    HW1  884   8.575  13.292   2.141
66370SOL    HW2  885   8.604  13.145   2.168
66371SOL     OW  886  10.931   9.610  10.524
66371SOL    HW1  887  10.840   9.630  10.545
66371SOL    HW2  888  10.967   9.576  10.606
66372SOL     OW  889   4.246   8.660   8.948
66372SOL    HW1  890   4.232   8.620   9.034
66372SOL    HW2  891   4.177   8.622   8.893
66373SOL     OW  892   7.257  10.700  13.945
66373SOL    HW1  893   7.350  10.719  13.937
66373SOL    HW2  894   7.233  10.659  13.862
66374SOL     OW  895   5.275   6.712   4.982
66374SOL    HW1  896   5.338   6.706   5.054
66374SOL    HW2  897   5.193   6.736   5.025
66375SOL     OW  898   1.880  12.430  12.612
66375SOL    HW1  899   1.962  12.403  12.571
66375SOL    HW2  900   1.823  12.454  12.538
66376SOL     OW  901  12.081   7.494   8.140
66376SOL    HW1  902  12.083   7.429   8.070
66376SOL    HW2  903  12.127   7.452   8.213
66377SOL     OW  904   4.222   6.071   8.098
66377SOL    HW1  905   4.244   6.009   8.029
66377SOL    HW2  906   4.273   6.150   8.076
66378SOL     OW  907   8.737   6.230  11.596
66378SOL    HW1  908   8.806   6.216  11.661
66378SOL    HW2  909   8.767   6.181  11.519
66379SOL     OW  910   9.370   9.360   3.677
66379SOL    HW1  911   9.436   9.415   3.719
66379SOL    HW2  912   9.329   9.313   3.750
66380SOL     OW  913   0.719   8.455   6.370
66380SOL    HW1  914   0.772   8.376   6.377
66380SOL    HW2  915   0.773   8.516   6.320
66381SOL     OW  916   2.073  13.753   1.325
66381SOL    HW1  917   1.993  13.769   1.376
66381SOL    HW2  918   2.107  13.670   1.359
66382SOL     OW  919   2.123  13.390  12.529
66382SOL    HW1  920   2.102  13.395  12.436
66382SOL    HW2  921   2.203  13.441  12.539
66383SOL     OW  922   7.434  10.247  11.569
66383SOL    HW1  923   7.494  10.291  11.509
66383SOL    HW2  924   7.437  10.300  11.649
66384SOL     OW  925   6.843   9.002  13.518
66384SOL    HW1  926   6.819   8.956  13.598
66384SOL    HW2  927   6.798   8.954  13.448
66385SOL     OW  928   9.616   9.177   6.977
66385SOL    HW1  929   9.548   9.240   7.002
66385SOL    HW2  930   9.569   9.094   6.966
66386SOL     OW  931   7.954   2.741   9.167
66386SOL    HW1  932   8.026   2.680   9.153
66386SOL    HW2  933   7.917   2.756   9.080
66387SOL     OW  934   5.748  12.119   8.204
66387SOL    HW1  935   5.812  12.190   8.220
66387SOL    HW2  936   5.793  12.060   8.145
66388SOL     OW  937  14.750   7.762   2.348
66388SOL    HW1  938  14.718   7.833   2.404
66388SOL    HW2  939  14.845   7.769   2.352
66389SOL     OW  940  12.831   4.075   9.181
66389SOL    HW1  941  12.792   4.020   9.112
66389SOL    HW2  942  12.871   4.013   9.241
66390SOL     OW  943  12.630   7.659   9.058
66390SOL    HW1  944  12.677   7.743   9.059
66390SOL    HW2  945  12.695   7.595   9.028
66391SOL     OW  946   1.551   6.603   1.273
66391SOL    HW1  947   1.628   6.568   1.229
66391SOL    HW2  948   1.525   6.678   1.220
66392SOL     OW  949   5.741   6.240  11.047
66392SOL    HW1  950   5.646   6.254  11.052
66392SOL    HW2  951   5.777   6.327  11.033
66393SOL     OW  952   5.138  12.578   4.587
66393SOL    HW1  953   5.068  12.602   4.526
66393SOL    HW2  954   5.198  12.653   4.584
66394SOL     OW  955   1.741  11.467   6.719
66394SOL    HW1  956   1.697  11.546   6.685
66394SOL    HW2  957   1.732  11.403   6.649
66395SOL     OW  958   4.792  13.557   0.789
66395SOL    HW1  959   4.794  13.476   0.840
66395SOL    HW2  960   4.810  13.626   0.853
66396SOL     OW  961  13.582  12.271   5.659
66396SOL    HW1  962  13.571  12.240   5.569
66396SOL    HW2  963  13.508  12.330   5.673
66397SOL     OW  964  14.628   4.151   0.008
66397SOL    HW1  965  14.585   4.235  14.877
66397SOL    HW2  966  14.715   4.164  14.847
66398SOL     OW  967   9.298   4.720   3.780
66398SOL    HW1  968   9.212   4.761   3.789
66398SOL    HW2  969   9.293   4.669   3.699
66399SOL     OW  970  11.559  14.226   7.254
66399SOL    HW1  971  11.640  14.236   7.304
66399SOL    HW2  972  11.495  14.279   7.301
66400SOL     OW  973  11.878  12.262   3.755
66400SOL    HW1  974  11.899  12.355   3.752
66400SOL    HW2  975  11.844  12.248   3.844
66401SOL     OW  976   7.005   1.919   8.789
66401SOL    HW1  977   6.955   1.850   8.834
66401SOL    HW2  978   7.096   1.898   8.808
66402SOL     OW  979   7.681   6.118   2.744
66402SOL    HW1  980   7.689   6.196   2.799
66402SOL    HW2  981   7.723   6.142   2.662
66403SOL     OW  982   2.356   1.334   3.093
66403SOL    HW1  983   2.340   1.268   3.026
66403SOL    HW2  984   2.327   1.294   3.175
66404SOL     OW  985   2.145   8.443  12.693
66404SOL    HW1  986   2.232   8.417  12.660
66404SOL    HW2  987   2.160   8.528  12.734
66405SOL     OW  988  10.834  12.869   7.704
66405SOL    HW1  989  10.775  12.944   7.711
66405SOL    HW2  990  10.905  12.888   7.766
66406SOL     OW  991   1.488  13.551   4.522
66406SOL    HW1  992   1.557  13.526   4.460
66406SOL    HW2  993   1.406  13.529   4.477
66407SOL     OW  994  10.826   1.830   1.505
66407SOL    HW1  995  10.837   1.872   1.419
66407SOL    HW2  996  10.868   1.744   1.495
66408SOL     OW  997   7.426  13.518   3.569
66408SOL    HW1  998   7.453  13.459   3.638
66408SOL    HW2  999   7.377  13.587   3.614
66409SOL     OW 1000   4.956   7.839   8.345
66409SOL    HW1 1001   4.978   7.760   8.297
66409SOL    HW2 1002   4.984   7.911   8.288
66410SOL     OW 1003   6.000   3.093   6.608
66410SOL    HW1 1004   5.923   3.097   6.664
66410SOL    HW2 1005   6.056   3.026   6.649
66411SOL     OW 1006   6.062   1.975  11.875
66411SOL    HW1 1007   6.092   1.888  11.850
66411SOL    HW2 1008   6.033   2.015  11.793
66412SOL     OW 1009   3.626  10.497   2.208
66412SOL    HW1 1010   3.602  10.439   2.281
66412SOL    HW2 1011   3.593  10.453   2.130
66413SOL     OW 1012  13.378  11.954   4.046
66413SOL    HW1 1013  13.412  12.042   4.064
66413SOL    HW2 1014  13.323  11.934   4.122
66414SOL     OW 1015  11.453   8.993   7.449
66414SOL    HW1 1016  11.396   8.997   7.373
66414SOL    HW2 1017  11.440   8.905   7.484
66415SOL     OW 1018   4.043   2.308   4.466
66415SOL    HW1 1019   4.092   2.379   4.506
66415SOL    HW2 1020   3.952   2.337   4.469
66416SOL     OW 1021  10.006   1.075   5.386
66416SOL    HW1 1022   9.921   1.111   5.363
66416SOL    HW2 1023  10.062   1.098   5.312
66417SOL     OW 1024  12.816  10.929   7.713
66417SOL    HW1 1025  12.789  10.844   7.747
66417SOL    HW2 1026  12.844  10.978   7.790
66418SOL     OW 1027   0.511  12.080  13.797
66418SOL    HW1 1028   0.452  12.119  13.862
66418SOL    HW2 1029   0.486  11.988  13.793
66419SOL     OW 1030   7.562   5.852   2.086
66419SOL    HW1 1031   7.581   5.767   2.046
66419SOL    HW2 1032   7.503   5.896   2.025
66420SOL     OW 1033   7.448  12.938   5.000
66420SOL    HW1 1034   7.530  12.925   5.048
66420SOL    HW2 1035   7.448  13.031   4.976
66421SOL     OW 1036   7.328  12.633  14.780
66421SOL    HW1 1037   7.402  12.630  14.720
66421SOL    HW2 1038   7.296  12.723  14.776
66422SOL     OW 1039  12.912  11.773   0.012
66422SOL    HW1 1040  12.869  11.761   0.097
66422SOL    HW2 1041  12.988  11.828   0.032
66423SOL     OW 1042  11.521  11.527  11.168
66423SOL    HW1 1043  11.520  11.491  11.079
66423SOL    HW2 1044  11.560  11.614  11.158
66424SOL     OW 1045   9.276   9.003   7.998
66424SOL    HW1 1046   9.347   8.964   8.049
66424SOL    HW2 1047   9.196   8.976   8.042
66425SOL     OW 1048   0.050   4.897   0.660
66425SOL    HW1 1049   0.106   4.958   0.613
66425SOL    HW2 1050  14.850   4.888   0.605
66426SOL     OW 1051  13.117   5.221   5.543
66426SOL    HW1 1052  13.179   5.285   5.578
66426SOL    HW2 1053  13.172   5.151   5.507
66427SOL     OW 1054   8.178   0.816   2.718
66427SOL    HW1 1055   8.130   0.737   2.745
66427SOL    HW2 1056   8.260   0.783   2.682
66428SOL     OW 1057   7.390  14.409   0.290
66428SOL    HW1 1058   7.420  14.462   0.363
66428SOL    HW2 1059   7.298  14.432   0.280
66429SOL     OW 1060   8.892   0.209  13.586
66429SOL    HW1 1061   8.925   0.299  13.590
66429SOL    HW2 1062   8.945   0.167  13.518
66430SOL     OW 1063  11.328   9.788  11.082
66430SOL    HW1 1064  11.281   9.735  11.017
66430SOL    HW2 1065  11.337   9.874  11.041
66431SOL     OW 1066   3.421  11.114  12.467
66431SOL    HW1 1067   3.361  11.133  12.394
66431SOL    HW2 1068   3.428  11.018  12.467
66432SOL     OW 1069   7.488   1.080   4.880
66432SOL    HW1 1070   7.579   1.110   4.875
66432SOL    HW2 1071   7.460   1.101   4.969
66433SOL     OW 1072  12.564   8.747   6.369
66433SOL    HW1 1073  12.529   8.660   6.347
66433SOL    HW2 1074  12.529   8.764   6.456
66434SOL     OW 1075   7.829   9.371  12.265
66434SOL    HW1 1076   7.920   9.351  12.241
66434SOL    HW2 1077   7.837   9.439  12.332
66435SOL     OW 1078   3.270   7.267   7.094
66435SOL    HW1 1079   3.319   7.224   7.025
66435SOL    HW2 1080   3.179   7.240   7.081
66436SOL     OW 1081  14.269   6.534  13.034
66436SOL    HW1 1082  14.255   6.597  12.964
66436SOL    HW2 1083  14.313   6.460  12.991
66437SOL     OW 1084   2.556  11.149   6.914
66437SOL    HW1 1085   2.476  11.119   6.956
66437SOL    HW2 1086   2.540  11.138   6.820
66438SOL     OW 1087   9.659  12.223  12.641
66438SOL    HW1 1088   9.660  12.212  12.736
66438SOL    HW2 1089   9.590  12.288  12.625
66439SOL     OW 1090   4.797  12.975  10.779
66439SOL    HW1 1091   4.710  12.940  10.760
66439SOL    HW2 1092   4.781  13.064  10.811
66440SOL     OW 1093   3.227   3.724  11.408
66440SOL    HW1 1094   3.233   3.791  11.340
66440SOL    HW2 1095   3.192   3.647  11.363
66441SOL     OW 1096   8.101   4.531  10.729
66441SOL    HW1 1097   8.190   4.553  10.702
66441SOL    HW2 1098   8.106   4.523  10.824
66442SOL     OW 1099   4.300   2.877   5.152
66442SOL    HW1 1100   4.369   2.923   5.200
66442SOL    HW2 1101   4.346   2.832   5.082
66443SOL     OW 1102   4.975   2.087   1.822
66443SOL    HW1 1103   4.890   2.070   1.863
66443SOL    HW2 1104   5.036   2.029   1.869
66444SOL     OW 1105   9.037   4.650   7.803
66444SOL    HW1 1106   8.962   4.685   7.754
66444SOL    HW2 1107   9.049   4.562   7.767
66445SOL     OW 1108  13.294   7.717   7.260
66445SOL    HW1 1109  13.276   7.680   7.347
66445SOL    HW2 1110  13.218   7.694   7.208
66446SOL     OW 1111  10.235  10.314   2.362
66446SOL    HW1 1112  10.224  10.364   2.443
66446SOL    HW2 1113  10.330  10.299   2.356
66447SOL     OW 1114   8.545  10.676   9.171
66447SOL    HW1 1115   8.486  10.675   9.247
66447SOL    HW2 1116   8.528  10.761   9.130
66448SOL     OW 1117   7.651  12.801   6.958
66448SOL    HW1 1118   7.715  12.739   6.990
66448SOL    HW2 1119   7.698  12.854   6.894
66449SOL     OW 1120   2.859   0.971   8.051
66449SOL    HW1 1121   2.818   1.033   7.991
66449SOL    HW2 1122   2.921   1.023   8.102
66450SOL     OW 1123   4.342   0.996   5.507
66450SOL    HW1 1124   4.437   0.989   5.497
66450SOL    HW2 1125   4.307   0.954   5.428
66451SOL     OW 1126   4.062   1.388  11.263
66451SOL    HW1 1127   4.085   1.443  11.338
66451SOL    HW2 1128   4.145   1.374  11.217
66452SOL     OW 1129  14.779  14.579  13.403
66452SOL    HW1 1130  14.791  14.674  13.405
66452SOL    HW2 1131  14.866  14.544  13.381
66453SOL     OW 1132   9.904  14.430   4.213
66453SOL    HW1 1133   9.831  14.434   4.274
66453SOL    HW2 1134   9.891  14.348   4.165
66454SOL     OW 1135  10.957   0.389   2.358
66454SOL    HW1 1136  11.008   0.353   2.285
66454SOL    HW2 1137  11.002   0.470   2.381
66455SOL     OW 1138  10.244  10.018  12.277
66455SOL    HW1 1139  10.314   9.984  12.222
66455SOL    HW2 1140  10.171   9.958  12.265
66456SOL     OW 1141   4.195  10.264  11.578
66456SOL    HW1 1142   4.103  10.284  11.595
66456SOL    HW2 1143   4.239  10.279  11.661
66457SOL     OW 1144  13.963   6.515   7.539
66457SOL    HW1 1145  14.021   6.559   7.601
66457SOL    HW2 1146  13.881   6.563   7.544
66458SOL     OW 1147  11.158  14.164   8.386
66458SOL    HW1 1148  11.080  14.130   8.431
66458SOL    HW2 1149  11.143  14.259   8.380
66459SOL     OW 1150   1.369   5.961   4.385
66459SOL    HW1 1151   1.312   5.928   4.454
66459SOL    HW2 1152   1.406   6.042   4.421
66460SOL     OW 1153   1.287   0.457   7.204
66460SOL    HW1 1154   1.233   0.533   7.225
66460SOL    HW2 1155   1.256   0.428   7.118
66461SOL     OW 1156  11.488   2.838   5.418
66461SOL    HW1 1157  11.456   2.749   5.431
66461SOL    HW2 1158  11.537   2.834   5.335
66462SOL     OW 1159  13.698   8.139   2.136
66462SOL    HW1 1160  13.732   8.224   2.110
66462SOL    HW2 1161  13.625   8.158   2.194
66463SOL     OW 1162  13.854   6.166   2.396
66463SOL    HW1 1163  13.946   6.192   2.396
66463SOL    HW2 1164  13.806   6.249   2.407
66464SOL     OW 1165   6.448   6.288   1.785
66464SOL    HW1 1166   6.519   6.293   1.720
66464SOL    HW2 1167   6.485   6.328   1.863
66465SOL     OW 1168   7.131   6.907   3.035
66465SOL    HW1 1169   7.154   6.947   3.119
66465SOL    HW2 1170   7.086   6.826   3.059
66466SOL     OW 1171   2.039  12.781   1.707
66466SOL    HW1 1172   2.003  12.853   1.656
66466SOL    HW2 1173   2.028  12.704   1.651
66467SOL     OW 1174   3.784  11.799   3.613
66467SOL    HW1 1175   3.872  11.777   3.645
66467SOL    HW2 1176   3.736  11.825   3.692
66468SOL     OW 1177   1.689   5.629   9.825
66468SOL    HW1 1178   1.615   5.630   9.765
66468SOL    HW2 1179   1.766   5.628   9.768
66469SOL     OW 1180  12.878  14.749   0.645
66469SOL    HW1 1181  12.838  14.679   0.593
66469SOL    HW2 1182  12.972  14.734   0.637
66470SOL     OW 1183   6.768  14.436   9.339
66470SOL    HW1 1184   6.809  14.491   9.406
66470SOL    HW2 1185   6.827  14.361   9.330
66471SOL     OW 1186  11.995   1.078   2.525
66471SOL    HW1 1187  12.089   1.096   2.525
66471SOL    HW2 1188  11.957   1.151   2.575
66472SOL     OW 1189  10.743   3.740   6.276
66472SOL    HW1 1190  10.655   3.715   6.305
66472SOL    HW2 1191  10.780   3.788   6.350
66473SOL     OW 1192   9.271  10.426   4.084
66473SOL    HW1 1193   9.202  10.466   4.030
66473SOL    HW2 1194   9.229  10.350   4.124
66474SOL     OW 1195  14.658  14.646   7.807
66474SOL    HW1 1196  14.577  14.665   7.758
66474SOL    HW2 1197  14.720  14.617   7.740
66475SOL     OW 1198   2.484   7.744   5.968
66475SOL    HW1 1199   2.576   7.773   5.968
66475SOL    HW2 1200   2.438   7.813   6.015
66476SOL     OW 1201   4.678   0.472   2.612
66476SOL    HW1 1202   4.639   0.558   2.595
66476SOL    HW2 1203   4.762   0.491   2.653
66477SOL     OW 1204   4.207  12.148  14.139
66477SOL    HW1 1205   4.140  12.154  14.071
66477SOL    HW2 1206   4.166  12.183  14.217
66478SOL     OW 1207   0.311   7.493   3.739
66478SOL    HW1 1208   0.344   7.465   3.653
66478SOL    HW2 1209   0.216   7.483   3.733
66479SOL     OW 1210   0.895  13.972   8.560
66479SOL    HW1 1211   0.957  13.979   8.488
66479SOL    HW2 1212   0.923  13.894   8.609
66480SOL     OW 1213  12.865  13.188   4.727
66480SOL    HW1 1214  12.952  13.178   4.689
66480SOL    HW2 1215  12.807  13.198   4.652
66481SOL     OW 1216   0.231   5.798  10.516
66481SOL    HW1 1217   0.189   5.881  10.494
66481SOL    HW2 1218   0.256   5.761  10.431
66482SOL     OW 1219   5.535   1.885   1.682
66482SOL    HW1 1220   5.577   1.800   1.673
66482SOL    HW2 1221   5.489   1.898   1.599
66483SOL     OW 1222  12.319  11.117   9.694
66483SOL    HW1 1223  12.298  11.186   9.758
66483SOL    HW2 1224  12.415  11.117   9.690
66484SOL     OW 1225   2.155   0.039   3.066
66484SOL    HW1 1226   2.245   0.068   3.054
66484SOL    HW2 1227   2.142   0.038   3.160
66485SOL     OW 1228  11.326   6.614  10.264
66485SOL    HW1 1229  11.336   6.532  10.313
66485SOL    HW2 1230  11.234   6.614  10.236
66486SOL     OW 1231   5.766   7.225   7.098
66486SOL    HW1 1232   5.678   7.255   7.122
66486SOL    HW2 1233   5.816   7.306   7.088
66487SOL     OW 1234   8.102   8.502   0.703
66487SOL    HW1 1235   8.058   8.454   0.634
66487SOL    HW2 1236   8.054   8.481   0.783
66488SOL     OW 1237  10.278   5.340   0.935
66488SOL    HW1 1238  10.243   5.258   0.901
66488SOL    HW2 1239  10.349   5.313   0.994
66489SOL     OW 1240  13.421  10.946   7.475
66489SOL    HW1 1241  13.366  10.986   7.408
66489SOL    HW2 1242  13.470  11.019   7.513
66490SOL     OW 1243   9.756   4.714  12.988
66490SOL    HW1 1244   9.749   4.776  13.060
66490SOL    HW2 1245   9.674   4.725  12.939
66491SOL     OW 1246   1.388   0.320   0.711
66491SOL    HW1 1247   1.329   0.394   0.697
66491SOL    HW2 1248   1.433   0.340   0.793
66492SOL     OW 1249   5.828   9.208  14.604
66492SOL    HW1 1250   5.748   9.203  14.552
66492SOL    HW2 1251   5.881   9.274  14.560
66493SOL     OW 1252   9.504   5.823   6.164
66493SOL    HW1 1253   9.454   5.900   6.138
66493SOL    HW2 1254   9.588   5.858   6.194
66494SOL     OW 1255   3.984   6.052  10.514
66494SOL    HW1 1256   3.903   6.053  10.463
66494SOL    HW2 1257   4.019   5.964  10.503
66495SOL     OW 1258  11.259  14.645   7.801
66495SOL    HW1 1259  11.205  14.599   7.865
66495SOL    HW2 1260  11.200  14.663   7.728
66496SOL     OW 1261  11.148  14.690   4.042
66496SOL    HW1 1262  11.068  14.706   3.992
66496SOL    HW2 1263  11.122  14.626   4.108
66497SOL     OW 1264   2.366   0.013  13.102
66497SOL    HW1 1265   2.409  14.826  13.158
66497SOL    HW2 1266   2.433   0.078  13.084
66498SOL     OW 1267   7.669   1.298   2.674
66498SOL    HW1 1268   7.592   1.276   2.621
66498SOL    HW2 1269   7.736   1.322   2.610
66499SOL     OW 1270  10.696  14.247  10.072
66499SOL    HW1 1271  10.621  14.269  10.017
66499SOL    HW2 1272  10.766  14.224  10.010
66500SOL     OW 1273   4.207  14.474  11.601
66500SOL    HW1 1274   4.247  14.555  11.634
66500SOL    HW2 1275   4.268  14.405  11.629
66501SOL     OW 1276  13.060   2.890   0.431
66501SOL    HW1 1277  13.090   2.804   0.401
66501SOL    HW2 1278  13.127   2.917   0.493
66502SOL     OW 1279  11.064   5.327   7.060
66502SOL    HW1 1280  11.062   5.386   6.985
66502SOL    HW2 1281  11.114   5.374   7.127
66503SOL     OW 1282   4.141   1.935  10.491
66503SOL    HW1 1283   4.181   1.917  10.577
66503SOL    HW2 1284   4.091   2.015  10.504
66504SOL     OW 1285   4.568   8.621   7.004
66504SOL    HW1 1286   4.499   8.635   7.069
66504SOL    HW2 1287   4.613   8.705   6.998
66505SOL     OW 1288   1.539   3.327  14.267
66505SOL    HW1 1289   1.553   3.232  14.276
66505SOL    HW2 1290   1.490   3.351  14.346
66506SOL     OW 1291   1.599   4.603   1.891
66506SOL    HW1 1292   1.645   4.621   1.809
66506SOL    HW2 1293   1.657   4.543   1.938
66507SOL     OW 1294  11.372   5.010   9.963
66507SOL    HW1 1295  11.375   4.952   9.886
66507SOL    HW2 1296  11.453   5.059   9.959
66508SOL     OW 1297  10.194   7.741  13.065
66508SOL    HW1 1298  10.125   7.746  12.998
66508SOL    HW2 1299  10.240   7.824  13.057
66509SOL     OW 1300  10.380  14.535  11.522
66509SOL    HW1 1301  10.376  14.439  11.521
66509SOL    HW2 1302  10.353  14.560  11.610
66510SOL     OW 1303  10.856   1.459  10.925
66510SOL    HW1 1304  10.829   1.528  10.986
66510SOL    HW2 1305  10.903   1.506  10.856
66511SOL     OW 1306  11.122  14.210  13.068
66511SOL    HW1 1307  11.155  14.122  13.083
66511SOL    HW2 1308  11.153  14.234  12.981
66512SOL     OW 1309  10.742   8.063  12.350
66512SOL    HW1 1310  10.822   8.097  12.390
66512SOL    HW2 1311  10.745   8.093  12.260
66513SOL     OW 1312  12.123   6.385   2.099
66513SOL    HW1 1313  12.197   6.360   2.153
66513SOL    HW2 1314  12.138   6.478   2.078
66514SOL     OW 1315  12.491  10.849   5.281
66514SOL    HW1 1316  12.448  10.789   5.342
66514SOL    HW2 1317  12.506  10.797   5.202
66515SOL     OW 1318   6.718  13.102  14.597
66515SOL    HW1 1319   6.741  13.081  14.507
66515SOL    HW2 1320   6.625  13.083  14.603
66516SOL     OW 1321  11.416   6.379   5.459
66516SOL    HW1 1322  11.476   6.306   5.441
66516SOL    HW2 1323  11.473   6.448   5.492
66517SOL     OW 1324   5.226  12.932   0.036
66517SOL    HW1 1325   5.249  12.872  14.844
66517SOL    HW2 1326   5.230  12.879   0.116
66518SOL     OW 1327   8.173   3.795   1.382
66518SOL    HW1 1328   8.125   3.773   1.302
66518SOL    HW2 1329   8.106   3.802   1.449
66519SOL     OW 1330   5.028   8.265   8.465
66519SOL    HW1 1331   5.002   8.276   8.373
66519SOL    HW2 1332   4.971   8.196   8.498
66520SOL     OW 1333   0.827   0.438  11.653
66520SOL    HW1 1334   0.809   0.509  11.715
66520SOL    HW2 1335   0.804   0.359  11.701
66521SOL     OW 1336  11.079  11.901   0.968
66521SOL    HW1 1337  11.008  11.958   0.997
66521SOL    HW2 1338  11.035  11.828   0.924
66522SOL     OW 1339   9.655  12.082   9.867
66522SOL    HW1 1340   9.649  12.061   9.774
66522SOL    HW2 1341   9.631  12.174   9.873
66523SOL     OW 1342   4.514   1.482   9.491
66523SOL    HW1 1343   4.486   1.527   9.412
66523SOL    HW2 1344   4.513   1.389   9.468
66524SOL     OW 1345   1.674   3.521   5.230
66524SOL    HW1 1346   1.627   3.573   5.164
66524SOL    HW2 1347   1.632   3.544   5.312
66525SOL     OW 1348  10.108   7.417   7.200
66525SOL    HW1 1349  10.137   7.339   7.153
66525SOL    HW2 1350  10.143   7.490   7.150
66526SOL     OW 1351   3.707   1.124   0.225
66526SOL    HW1 1352   3.667   1.049   0.181
66526SOL    HW2 1353   3.645   1.196   0.212
66527SOL     OW 1354   3.442   4.404   6.238
66527SOL    HW1 1355   3.416   4.419   6.329
66527SOL    HW2 1356   3.530   4.440   6.231
66528SOL     OW 1357   3.590  10.626   9.640
66528SOL    HW1 1358   3.579  10.589   9.553
66528SOL    HW2 1359   3.501  10.638   9.672
66529SOL     OW 1360   7.277   5.962   7.077
66529SOL    HW1 1361   7.291   5.948   6.984
66529SOL    HW2 1362   7.366   5.963   7.114
66530SOL     OW 1363  12.771   6.664   3.039
66530SOL    HW1 1364  12.727   6.616   2.969
66530SOL    HW2 1365  12.834   6.719   2.994
66531SOL     OW 1366  10.237   8.172   6.595
66531SOL    HW1 1367  10.280   8.184   6.679
66531SOL    HW2 1368  10.147   8.148   6.617
66532SOL     OW 1369  13.861   4.659  14.739
66532SOL    HW1 1370  13.920   4.655  14.814
66532SOL    HW2 1371  13.798   4.727  14.763
66533SOL     OW 1372   9.389   1.774  10.223
66533SOL    HW1 1373   9.426   1.862  10.209
66533SOL    HW2 1374   9.442   1.717  10.167
66534SOL     OW 1375   2.453   2.866   2.389
66534SOL    HW1 1376   2.380   2.805   2.398
66534SOL    HW2 1377   2.427   2.942   2.441
66535SOL     OW 1378   6.214   5.518   5.054
66535SOL    HW1 1379   6.218   5.590   5.117
66535SOL    HW2 1380   6.258   5.552   4.976
66536SOL     OW 1381   2.394   8.083   4.414
66536SOL    HW1 1382   2.441   8.165   4.404
66536SOL    HW2 1383   2.425   8.047   4.497
66537SOL     OW 1384   2.872   0.418  10.713
66537SOL    HW1 1385   2.840   0.504  10.743
66537SOL    HW2 1386   2.792   0.366  10.701
66538SOL     OW 1387   1.150   4.645  13.086
66538SOL    HW1 1388   1.066   4.671  13.123
66538SOL    HW2 1389   1.149   4.550  13.089
66539SOL     OW 1390  12.863  14.484   3.725
66539SOL    HW1 1391  12.773  14.509   3.749
66539SOL    HW2 1392  12.852  14.411   3.664
66540SOL     OW 1393   3.729  13.015  10.220
66540SOL    HW1 1394   3.784  12.988  10.146
66540SOL    HW2 1395   3.676  12.938  10.240
66541SOL     OW 1396   4.580  12.699   5.463
66541SOL    HW1 1397   4.582  12.787   5.500
66541SOL    HW2 1398   4.555  12.712   5.372
66542SOL     OW 1399  12.361   2.426   8.462
66542SOL    HW1 1400  12.322   2.469   8.386
66542SOL    HW2 1401  12.421   2.362   8.424
66543SOL     OW 1402   0.894  12.285  12.805
66543SOL    HW1 1403   0.847  12.246  12.732
66543SOL    HW2 1404   0.874  12.378  12.800
66544SOL     OW 1405   8.114   1.726   9.929
66544SOL    HW1 1406   8.079   1.643   9.896
66544SOL    HW2 1407   8.036   1.776   9.956
66545SOL     OW 1408   6.300   6.305   2.682
66545SOL    HW1 1409   6.364   6.335   2.746
66545SOL    HW2 1410   6.338   6.224   2.647
66546SOL     OW 1411   5.631   7.628   7.347
66546SOL    HW1 1412   5.583   7.687   7.289
66546SOL    HW2 1413   5.678   7.685   7.407
66547SOL     OW 1414   7.432   2.213   5.254
66547SOL    HW1 1415   7.432   2.269   5.176
66547SOL    HW2 1416   7.520   2.222   5.290
66548SOL     OW 1417  11.546   1.000  12.161
66548SOL    HW1 1418  11.474   0.966  12.214
66548SOL    HW2 1419  11.504   1.028  12.080
66549SOL     OW 1420  10.327   7.452  12.554
66549SOL    HW1 1421  10.260   7.428  12.490
66549SOL    HW2 1422  10.407   7.413  12.520
66550SOL     OW 1423  11.568  14.674   5.624
66550SOL    HW1 1424  11.626  14.703   5.694
66550SOL    HW2 1425  11.578  14.740   5.556
66551SOL     OW 1426  11.474  11.441  12.684
66551SOL    HW1 1427  11.409  11.450  12.753
66551SOL    HW2 1428  11.518  11.526  12.681
66552SOL     OW 1429   4.981   3.510  10.852
66552SOL    HW1 1430   4.948   3.600  10.844
66552SOL    HW2 1431   5.036   3.498  10.775
66553SOL     OW 1432  10.008   7.951  13.587
66553SOL    HW1 1433   9.957   8.017  13.540
66553SOL    HW2 1434  10.080   7.930  13.527
66554SOL     OW 1435   6.881  10.535   5.370
66554SOL    HW1 1436   6.857  10.607   5.429
66554SOL    HW2 1437   6.830  10.551   5.290
66555SOL     OW 1438  12.105   2.723   1.580
66555SOL    HW1 1439  12.095   2.700   1.488
66555SOL    HW2 1440  12.077   2.815   1.585
66556SOL     OW 1441   9.248   7.411   3.160
66556SOL    HW1 1442   9.337   7.428   3.191
66556SOL    HW2 1443   9.259   7.353   3.085
66557SOL     OW 1444  11.335   1.699   2.242
66557SOL    HW1 1445  11.295   1.637   2.182
66557SOL    HW2 1446  11.391   1.753   2.187
66558SOL     OW 1447  13.864   2.289   3.743
66558SOL    HW1 1448  13.955   2.266   3.758
66558SOL    HW2 1449  13.853   2.374   3.786
66559SOL     OW 1450   9.144   3.671   1.418
66559SOL    HW1 1451   9.214   3.646   1.357
66559SOL    HW2 1452   9.068   3.689   1.361
66560SOL     OW 1453   2.448  12.446   4.302
66560SOL    HW1 1454   2.440  12.355   4.272
66560SOL    HW2 1455   2.511  12.442   4.374
66561SOL     OW 1456   5.183   3.533   4.317
66561SOL    HW1 1457   5.136   3.615   4.302
66561SOL    HW2 1458   5.188   3.492   4.231
66562SOL     OW 1459  12.421   6.606  13.634
66562SOL    HW1 1460  12.395   6.617  13.725
66562SOL    HW2 1461  12.508   6.645  13.629
66563SOL     OW 1462  10.620  13.557   3.600
66563SOL    HW1 1463  10.714  13.543   3.613
66563SOL    HW2 1464  10.579  13.475   3.629
66564SOL     OW 1465  10.395   5.692   9.805
66564SOL    HW1 1466  10.359   5.622   9.859
66564SOL    HW2 1467  10.470   5.724   9.855
66565SOL     OW 1468  12.739  11.342   5.880
66565SOL    HW1 1469  12.652  11.308   5.903
66565SOL    HW2 1470  12.783  11.354   5.964
66566SOL     OW 1471   4.023  13.198   2.208
66566SOL    HW1 1472   3.979  13.134   2.264
66566SOL    HW2 1473   3.986  13.185   2.121
66567SOL     OW 1474   9.126   3.017  13.133
66567SOL    HW1 1475   9.084   2.991  13.215
66567SOL    HW2 1476   9.213   3.048  13.160
66568SOL     OW 1477   9.676  10.892   9.652
66568SOL    HW1 1478   9.766  10.917   9.672
66568SOL    HW2 1479   9.626  10.973   9.663
66569SOL     OW 1480   1.458   7.663  14.402
66569SOL    HW1 1481   1.427   7.596  14.341
66569SOL    HW2 1482   1.540   7.628  14.437
66570SOL     OW 1483   7.474   3.946   8.827
66570SOL    HW1 1484   7.539   4.016   8.816
66570SOL    HW2 1485   7.525   3.868   8.847
66571SOL     OW 1486  12.191  14.020   8.314
66571SOL    HW1 1487  12.233  13.936   8.331
66571SOL    HW2 1488  12.253  14.067   8.258
66572SOL     OW 1489   2.120  13.581   3.951
66572SOL    HW1 1490   2.178  13.649   3.915
66572SOL    HW2 1491   2.048  13.630   3.990
66573SOL     OW 1492  11.202   9.687   1.548
66573SOL    HW1 1493  11.115   9.666   1.583
66573SOL    HW2 1494  11.230   9.765   1.595
66574SOL     OW 1495   0.920   1.552   6.579
66574SOL    HW1 1496   0.848   1.504   6.537
66574SOL    HW2 1497   0.884   1.581   6.663
66575SOL     OW 1498  13.274  10.060   9.560
66575SOL    HW1 1499  13.325  10.127   9.606
66575SOL    HW2 1500  13.338  10.017   9.503
66576SOL     OW 1501  11.832   0.311   3.304
66576SOL    HW1 1502  11.853   0.355   3.387
66576SOL    HW2 1503  11.817   0.220   3.328
66577SOL     OW 1504   4.574   2.289  10.597
66577SOL    HW1 1505   4.628   2.266  10.672
66577SOL    HW2 1506   4.635   2.296  10.524
66578SOL     OW 1507  14.024  10.627   2.907
66578SOL    HW1 1508  14.003  10.536   2.885
66578SOL    HW2 1509  13.941  10.665   2.936
66579SOL     OW 1510  12.999   7.784   4.225
66579SOL    HW1 1511  12.987   7.847   4.154
66579SOL    HW2 1512  13.082   7.741   4.205
66580SOL     OW 1513   7.063   7.342  10.200
66580SOL    HW1 1514   7.060   7.385  10.285
66580SOL    HW2 1515   7.105   7.407  10.142
66581SOL     OW 1516  10.505  13.360   1.923
66581SOL    HW1 1517  10.442  13.421   1.959
66581SOL    HW2 1518  10.506  13.287   1.985
66582SOL     OW 1519  10.212   0.039   9.300
66582SOL    HW1 1520  10.157   0.037   9.221
66582SOL    HW2 1521  10.207   0.129   9.330
66583SOL     OW 1522   6.378   0.994  10.173
66583SOL    HW1 1523   6.368   1.062  10.240
66583SOL    HW2 1524   6.293   0.950  10.171
66584SOL     OW 1525   0.740  10.386  13.770
66584SOL    HW1 1526   0.736  10.315  13.706
66584SOL    HW2 1527   0.767  10.343  13.851
66585SOL     OW 1528   5.408  12.945   4.153
66585SOL    HW1 1529   5.329  12.892   4.163
66585SOL    HW2 1530   5.414  12.962   4.059
66586SOL     OW 1531   3.967   9.220  12.138
66586SOL    HW1 1532   3.975   9.315  12.140
66586SOL    HW2 1533   4.048   9.189  12.179
66587SOL     OW 1534   5.215  11.860  10.216
66587SOL    HW1 1535   5.139  11.868  10.158
66587SOL    HW2 1536   5.271  11.935  10.193
66588SOL     OW 1537  13.591   0.604   2.780
66588SOL    HW1 1538  13.526   0.674   2.790
66588SOL    HW2 1539  13.635   0.599   2.864
66589SOL     OW 1540   8.636  10.883  11.764
66589SOL    HW1 1541   8.633  10.798  11.808
66589SOL    HW2 1542   8.712  10.878  11.706
66590SOL     OW 1543  14.135   8.337   1.587
66590SOL    HW1 1544  14.198   8.355   1.517
66590SOL    HW2 1545  14.105   8.248   1.570
66591SOL     OW 1546   9.368   0.300  10.573
66591SOL    HW1 1547   9.329   0.288  10.487
66591SOL    HW2 1548   9.430   0.228  10.582
66592SOL     OW 1549  10.424   6.052   1.065
66592SOL    HW1 1550  10.409   6.147   1.069
66592SOL    HW2 1551  10.492   6.042   0.998
66593SOL     OW 1552  12.839   0.491   1.041
66593SOL    HW1 1553  12.779   0.448   0.980
66593SOL    HW2 1554  12.872   0.566   0.992
66594SOL     OW 1555   7.343  12.168   3.154
66594SOL    HW1 1556   7.361  12.113   3.078
66594SOL    HW2 1557   7.248  12.175   3.157
66595SOL     OW 1558  14.817   8.612  13.785
66595SOL    HW1 1559  14.860   8.681  13.835
66595SOL    HW2 1560   0.002   8.540  13.785
66596SOL     OW 1561  14.791   0.582  13.882
66596SOL    HW1 1562  14.768   0.509  13.824
66596SOL    HW2 1563  14.800   0.542  13.969
66597SOL     OW 1564   3.005   5.489   7.676
66597SOL    HW1 1565   2.946   5.475   7.749
66597SOL    HW2 1566   3.068   5.554   7.707
66598SOL     OW 1567  10.700   0.181  13.775
66598SOL    HW1 1568  10.691   0.197  13.869
66598SOL    HW2 1569  10.726   0.265  13.739
66599SOL     OW 1570   4.753   4.869  13.125
66599SOL    HW1 1571   4.760   4.956  13.164
66599SOL    HW2 1572   4.677   4.829  13.169
66600SOL     OW 1573   4.380  12.817   8.820
66600SOL    HW1 1574   4.441  12.886   8.793
66600SOL    HW2 1575   4.368  12.832   8.914
66601SOL     OW 1576   6.116   8.022   3.975
66601SOL    HW1 1577   6.074   8.084   4.035
66601SOL    HW2 1578   6.199   8.064   3.952
66602SOL     OW 1579   7.473   3.994  13.155
66602SOL    HW1 1580   7.403   4.053  13.182
66602SOL    HW2 1581   7.551   4.049  13.150
66603SOL     OW 1582   7.469   4.872  10.513
66603SOL    HW1 1583   7.505   4.933  10.577
66603SOL    HW2 1584   7.545   4.843  10.462
66604SOL     OW 1585  12.351   4.784   2.791
66604SOL    HW1 1586  12.267   4.792   2.836
66604SOL    HW2 1587  12.414   4.824   2.850
66605SOL     OW 1588   9.282   7.932   4.205
66605SOL    HW1 1589   9.193   7.968   4.208
66605SOL    HW2 1590   9.334   7.992   4.259
66606SOL     OW 1591   9.557   0.123   9.146
66606SOL    HW1 1592   9.635   0.103   9.096
66606SOL    HW2 1593   9.547   0.048   9.206
66607SOL     OW 1594   0.741   8.134   4.218
66607SOL    HW1 1595   0.706   8.222   4.208
66607SOL    HW2 1596   0.715   8.089   4.137
66608SOL     OW 1597   1.792  11.698  10.540
66608SOL    HW1 1598   1.814  11.760  10.609
66608SOL    HW2 1599   1.772  11.616  10.586
66609SOL     OW 1600   1.291   5.322   6.977
66609SOL    HW1 1601   1.357   5.261   7.009
66609SOL    HW2 1602   1.207   5.281   7.001
66610SOL     OW 1603   5.802  10.514  14.259
66610SOL    HW1 1604   5.775  10.430  14.296
66610SOL    HW2 1605   5.813  10.572  14.334
66611SOL     OW 1606   6.558   5.285   2.352
66611SOL    HW1 1607   6.546   5.191   2.341
66611SOL    HW2 1608   6.616   5.294   2.427
66612SOL     OW 1609  11.307   0.644  13.220
66612SOL    HW1 1610  11.289   0.583  13.291
66612SOL    HW2 1611  11.400   0.665  13.230
66613SOL     OW 1612  10.101   5.140   1.770
66613SOL    HW1 1613  10.014   5.141   1.809
66613SOL    HW2 1614  10.136   5.053   1.792
66614SOL     OW 1615   8.692  10.657   2.714
66614SOL    HW1 1616   8.756  10.600   2.670
66614SOL    HW2 1617   8.609  10.636   2.671
66615SOL     OW 1618   0.485   9.727  11.240
66615SOL    HW1 1619   0.415   9.665  11.259
66615SOL    HW2 1620   0.495   9.725  11.145
66616SOL     OW 1621   8.422   3.166   3.452
66616SOL    HW1 1622   8.445   3.082   3.491
66616SOL    HW2 1623   8.387   3.218   3.525
66617SOL     OW 1624   6.575   5.297   0.453
66617SOL    HW1 1625   6.568   5.386   0.489
66617SOL    HW2 1626   6.630   5.250   0.516
66618SOL     OW 1627  10.915   9.304  11.500
66618SOL    HW1 1628  10.823   9.279  11.507
66618SOL    HW2 1629  10.963   9.227  11.530
66619SOL     OW 1630   8.365   8.128  13.912
66619SOL    HW1 1631   8.334   8.052  13.863
66619SOL    HW2 1632   8.286   8.177  13.934
66620SOL     OW 1633   8.036   6.459  13.287
66620SOL    HW1 1634   8.032   6.554  13.289
66620SOL    HW2 1635   8.031   6.437  13.194
66621SOL     OW 1636  13.720   9.766   5.216
66621SOL    HW1 1637  13.651   9.831   5.199
66621SOL    HW2 1638  13.714   9.706   5.142
66622SOL     OW 1639  10.095   6.637  13.530
66622SOL    HW1 1640  10.002   6.659  13.520
66622SOL    HW2 1641  10.138   6.679  13.455
66623SOL     OW 1642  10.789  12.496  11.590
66623SOL    HW1 1643  10.838  12.469  11.667
66623SOL    HW2 1644  10.751  12.415  11.556
66624SOL     OW 1645   7.584   9.188   6.069
66624SOL    HW1 1646   7.654   9.126   6.086
66624SOL    HW2 1647   7.504   9.142   6.095
66625SOL     OW 1648   0.267   7.489   6.197
66625SOL    HW1 1649   0.345   7.446   6.231
66625SOL    HW2 1650   0.282   7.582   6.210
66626SOL     OW 1651   2.475   5.375  10.429
66626SOL    HW1 1652   2.473   5.401  10.337
66626SOL    HW2 1653   2.426   5.444  10.474
66627SOL     OW 1654   9.689  12.072  10.208
66627SOL    HW1 1655   9.721  12.081  10.298
66627SOL    HW2 1656   9.689  12.162  10.173
66628SOL     OW 1657   2.861   8.526   9.477
66628SOL    HW1 1658   2.855   8.481   9.393
66628SOL    HW2 1659   2.777   8.511   9.519
66629SOL     OW 1660  10.922   9.220   5.492
66629SOL    HW1 1661  10.912   9.135   5.449
66629SOL    HW2 1662  10.906   9.284   5.423
66630SOL     OW 1663   7.313  11.829  14.810
66630SOL    HW1 1664   7.267  11.810   0.014
66630SOL    HW2 1665   7.385  11.766  14.808
66631SOL     OW 1666  13.989  14.390   3.206
66631SOL    HW1 1667  13.951  14.473   3.234
66631SOL    HW2 1668  14.009  14.345   3.289
66632SOL     OW 1669  14.370   1.517   3.572
66632SOL    HW1 1670  14.315   1.548   3.500
66632SOL    HW2 1671  14.329   1.553   3.651
66633SOL     OW 1672   3.339   5.615  13.999
66633SOL    HW1 1673   3.353   5.542  13.939
66633SOL    HW2 1674   3.250   5.601  14.032
66634SOL     OW 1675  14.237   0.875   4.267
66634SOL    HW1 1676  14.203   0.786   4.259
66634SOL    HW2 1677  14.221   0.898   4.359
66635SOL     OW 1678   2.059   8.141   3.240
66635SOL    HW1 1679   2.035   8.192   3.162
66635SOL    HW2 1680   2.120   8.198   3.287
66636SOL     OW 1681   1.760   8.012   4.381
66636SOL    HW1 1682   1.842   7.997   4.333
66636SOL    HW2 1683   1.703   7.941   4.352
66637SOL     OW 1684  13.085  12.966  13.037
66637SOL    HW1 1685  13.051  12.877  13.024
66637SOL    HW2 1686  13.125  12.964  13.124
66638SOL     OW 1687  12.428   9.482   9.908
66638SOL    HW1 1688  12.361   9.431   9.862
66638SOL    HW2 1689  12.393   9.571   9.911
66639SOL     OW 1690   8.740   1.946   0.282
66639SOL    HW1 1691   8.735   1.867   0.335
66639SOL    HW2 1692   8.678   1.930   0.210
66640SOL     OW 1693   1.501   5.225   3.866
66640SOL    HW1 1694   1.498   5.176   3.783
66640SOL    HW2 1695   1.591   5.216   3.895
66641SOL     OW 1696   5.084   1.160   7.644
66641SOL    HW1 1697   5.073   1.149   7.739
66641SOL    HW2 1698   5.114   1.075   7.614
66642SOL     OW 1699   3.345   1.695   9.913
66642SOL    HW1 1700   3.327   1.617   9.860
66642SOL    HW2 1701   3.434   1.720   9.888
66643SOL     OW 1702  12.197  10.527   9.162
66643SOL    HW1 1703  12.150  10.448   9.139
66643SOL    HW2 1704  12.238  10.507   9.246
66644SOL     OW 1705  14.550   3.919  10.090
66644SOL    HW1 1706  14.475   3.920  10.150
66644SOL    HW2 1707  14.564   3.826  10.072
66645SOL     OW 1708  13.449   0.896   9.837
66645SOL    HW1 1709  13.357   0.888   9.811
66645SOL    HW2 1710  13.457   0.985   9.870
66646SOL     OW 1711   8.458   0.485   7.955
66646SOL    HW1 1712   8.531   0.482   7.893
66646SOL    HW2 1713   8.384   0.518   7.903
66647SOL     OW 1714   8.379  14.646   3.875
66647SOL    HW1 1715   8.361  14.626   3.783
66647SOL    HW2 1716   8.392  14.741   3.878
66648SOL     OW 1717   3.257   7.001   5.949
66648SOL    HW1 1718   3.184   7.051   5.913
66648SOL    HW2 1719   3.267   6.927   5.888
66649SOL     OW 1720   8.447   5.249  12.642
66649SOL    HW1 1721   8.366   5.272  12.689
66649SOL    HW2 1722   8.439   5.155  12.625
66650SOL     OW 1723  13.684   5.599  11.002
66650SOL    HW1 1724  13.756   5.592  11.063
66650SOL    HW2 1725  13.652   5.689  11.013
66651SOL     OW 1726  13.405  13.865   0.312
66651SOL    HW1 1727  13.468  13.913   0.366
66651SOL    HW2 1728  13.339  13.930   0.289
66652SOL     OW 1729  14.539   6.952  14.801
66652SOL    HW1 1730  14.550   6.995  14.716
66652SOL    HW2 1731  14.512   7.021  14.860
66653SOL     OW 1732  10.746   1.584   1.893
66653SOL    HW1 1733  10.839   1.575   1.870
66653SOL    HW2 1734  10.722   1.498   1.928
66654SOL     OW 1735   3.534  11.159   1.905
66654SOL    HW1 1736   3.557  11.247   1.873
66654SOL    HW2 1737   3.512  11.173   1.997
66655SOL     OW 1738  10.980  12.857   9.097
66655SOL    HW1 1739  10.926  12.905   9.159
66655SOL    HW2 1740  10.917  12.801   9.050
66656SOL     OW 1741   4.244   2.776   4.160
66656SOL    HW1 1742   4.266   2.685   4.180
66656SOL    HW2 1743   4.328   2.822   4.163
66657SOL     OW 1744   3.201   1.392  10.154
66657SOL    HW1 1745   3.128   1.399  10.092
66657SOL    HW2 1746   3.201   1.476  10.200
66658SOL     OW 1747   4.514   9.495   7.023
66658SOL    HW1 1748   4.471   9.476   6.939
66658SOL    HW2 1749   4.585   9.555   7.000
66659SOL     OW 1750   1.043  13.843   9.577
66659SOL    HW1 1751   1.080  13.834   9.489
66659SOL    HW2 1752   1.077  13.767   9.625
66660SOL     OW 1753  12.433   2.964  13.764
66660SOL    HW1 1754  12.451   2.911  13.841
66660SOL    HW2 1755  12.507   2.948  13.706
66661SOL     OW 1756  12.828  10.266   8.883
66661SOL    HW1 1757  12.777  10.347   8.879
66661SOL    HW2 1758  12.764  10.199   8.910
66662SOL     OW 1759  11.605   0.067   0.474
66662SOL    HW1 1760  11.619   0.114   0.391
66662SOL    HW2 1761  11.535   0.004   0.454
66663SOL     OW 1762   0.691   2.811  12.420
66663SOL    HW1 1763   0.700   2.906  12.435
66663SOL    HW2 1764   0.617   2.785  12.474
66664SOL     OW 1765   4.515  13.613   0.796
66664SOL    HW1 1766   4.502  13.572   0.881
66664SOL    HW2 1767   4.610  13.621   0.787
66665SOL     OW 1768   3.240   7.126  13.837
66665SOL    HW1 1769   3.281   7.047  13.874
66665SOL    HW2 1770   3.156   7.132  13.883
66666SOL     OW 1771   2.302   7.953   2.427
66666SOL    HW1 1772   2.347   7.954   2.343
66666SOL    HW2 1773   2.220   7.906   2.409
66667SOL     OW 1774   5.732   3.673   4.993
66667SOL    HW1 1775   5.645   3.678   5.035
66667SOL    HW2 1776   5.748   3.762   4.962
66668SOL     OW 1777   1.652   6.126   8.383
66668SOL    HW1 1778   1.598   6.158   8.455
66668SOL    HW2 1779   1.740   6.122   8.420
66669SOL     OW 1780   9.403   9.203  14.755
66669SOL    HW1 1781   9.311   9.205  14.728
66669SOL    HW2 1782   9.403   9.150  14.834
66670SOL     OW 1783   1.427   6.185   5.102
66670SOL    HW1 1784   1.382   6.103   5.081
66670SOL    HW2 1785   1.466   6.170   5.188
66671SOL     OW 1786   6.207   8.128   0.555
66671SOL    HW1 1787   6.156   8.102   0.632
66671SOL    HW2 1788   6.289   8.161   0.590
66672SOL     OW 1789   6.207   8.327   0.346
66672SOL    HW1 1790   6.176   8.390   0.411
66672SOL    HW2 1791   6.188   8.241   0.385
66673SOL     OW 1792   7.078   1.799   3.625
66673SOL    HW1 1793   7.169   1.826   3.626
66673SOL    HW2 1794   7.031   1.874   3.588
66674SOL     OW 1795   4.859  14.088   9.538
66674SOL    HW1 1796   4.792  14.128   9.483
66674SOL    HW2 1797   4.936  14.082   9.482
66675SOL     OW 1798   0.985   6.234   3.564
66675SOL    HW1 1799   1.080   6.228   3.550
66675SOL    HW2 1800   0.952   6.280   3.487
66676SOL     OW 1801  11.781  10.761   4.114
66676SOL    HW1 1802  11.761  10.700   4.043
66676SOL    HW2 1803  11.866  10.798   4.090
66677SOL     OW 1804   2.013   1.591   1.778
66677SOL    HW1 1805   2.108   1.584   1.786
66677SOL    HW2 1806   1.999   1.670   1.726
66678SOL     OW 1807   3.157  13.102   9.186
66678SOL    HW1 1808   3.192  13.083   9.099
66678SOL    HW2 1809   3.152  13.017   9.230
66679SOL     OW 1810   6.721   8.158   9.341
66679SOL    HW1 1811   6.686   8.097   9.276
66679SOL    HW2 1812   6.673   8.239   9.326
66680SOL     OW 1813   7.196   9.006   9.181
66680SOL    HW1 1814   7.253   8.929   9.188
66680SOL    HW2 1815   7.252   9.074   9.144
66681SOL     OW 1816   2.757   2.683   7.837
66681SOL    HW1 1817   2.791   2.595   7.820
66681SOL    HW2 1818   2.751   2.723   7.750
66682SOL     OW 1819  11.036   1.356   8.122
66682SOL    HW1 1820  11.035   1.450   8.103
66682SOL    HW2 1821  10.944   1.332   8.133
66683SOL     OW 1822   8.835   0.992   8.018
66683SOL    HW1 1823   8.872   1.049   7.951
66683SOL    HW2 1824   8.769   1.046   8.062
66684SOL     OW 1825   8.491   8.792   6.564
66684SOL    HW1 1826   8.577   8.749   6.572
66684SOL    HW2 1827   8.496   8.839   6.481
66685SOL     OW 1828   4.329  13.575  10.515
66685SOL    HW1 1829   4.342  13.557  10.421
66685SOL    HW2 1830   4.237  13.600  10.521
66686SOL     OW 1831   1.369  10.626  10.608
66686SOL    HW1 1832   1.305  10.638  10.538
66686SOL    HW2 1833   1.320  10.642  10.689
66687SOL     OW 1834   8.737   3.255   5.123
66687SOL    HW1 1835   8.749   3.239   5.030
66687SOL    HW2 1836   8.804   3.319   5.145
66688SOL     OW 1837  12.206  11.413  11.192
66688SOL    HW1 1838  12.198  11.439  11.101
66688SOL    HW2 1839  12.262  11.335  11.190
66689SOL     OW 1840   8.144  13.209   3.956
66689SOL    HW1 1841   8.205  13.228   4.027
66689SOL    HW2 1842   8.088  13.286   3.950
66690SOL     OW 1843   6.439  13.003   4.422
66690SOL    HW1 1844   6.452  13.060   4.497
66690SOL    HW2 1845   6.359  12.955   4.442
66691SOL     OW 1846  12.424   4.513  12.299
66691SOL    HW1 1847  12.398   4.437  12.247
66691SOL    HW2 1848  12.477   4.477  12.370
66692SOL     OW 1849   5.667   4.066   3.464
66692SOL    HW1 1850   5.695   4.139   3.408
66692SOL    HW2 1851   5.746   4.015   3.479
66693SOL     OW 1852   2.727   4.447  11.419
66693SOL    HW1 1853   2.662   4.516  11.409
66693SOL    HW2 1854   2.679   4.366  11.404
66694SOL     OW 1855   7.631   8.249   5.977
66694SOL    HW1 1856   7.715   8.243   5.932
66694SOL    HW2 1857   7.640   8.189   6.052
66695SOL     OW 1858   9.928   3.075   9.421
66695SOL    HW1 1859   9.914   3.169   9.409
66695SOL    HW2 1860  10.019   3.068   9.451
66696SOL     OW 1861   0.160  13.115   9.089
66696SOL    HW1 1862   0.195  13.132   9.176
66696SOL    HW2 1863   0.193  13.027   9.067
66697SOL     OW 1864   7.827   0.872   1.015
66697SOL    HW1 1865   7.777   0.790   1.008
66697SOL    HW2 1866   7.813   0.902   1.105
66698SOL     OW 1867   3.501   8.843   7.578
66698SOL    HW1 1868   3.405   8.835   7.577
66698SOL    HW2 1869   3.532   8.759   7.544
66699SOL     OW 1870  11.916   0.695   2.348
66699SOL    HW1 1871  11.995   0.744   2.370
66699SOL    HW2 1872  11.947   0.606   2.328
66700SOL     OW 1873   6.873  14.601  11.656
66700SOL    HW1 1874   6.838  14.549  11.728
66700SOL    HW2 1875   6.842  14.557  11.577
66701SOL     OW 1876   2.991   7.563   3.999
66701SOL    HW1 1877   3.042   7.596   3.926
66701SOL    HW2 1878   3.050   7.569   4.074
66702SOL     OW 1879   6.243   2.980   4.914
66702SOL    HW1 1880   6.241   3.042   4.986
66702SOL    HW2 1881   6.204   3.026   4.841
66703SOL     OW 1882  10.276  14.223  14.053
66703SOL    HW1 1883  10.244  14.226  13.963
66703SOL    HW2 1884  10.201  14.248  14.107
66704SOL     OW 1885   6.481   7.601   9.538
66704SOL    HW1 1886   6.573   7.596   9.564
66704SOL    HW2 1887   6.458   7.693   9.546
66705SOL     OW 1888   7.889   7.682  10.109
66705SOL    HW1 1889   7.938   7.717  10.183
66705SOL    HW2 1890   7.812   7.738  10.101
66706SOL     OW 1891   2.800   5.641   6.701
66706SOL    HW1 1892   2.707   5.650   6.683
66706SOL    HW2 1893   2.815   5.697   6.777
66707SOL     OW 1894   3.819   5.853   0.513
66707SOL    HW1 1895   3.730   5.831   0.487
66707SOL    HW2 1896   3.809   5.900   0.596
66708SOL     OW 1897  12.299   1.280  12.518
66708SOL    HW1 1898  12.293   1.227  12.439
66708SOL    HW2 1899  12.209   1.310  12.534
66709SOL     OW 1900  10.610   6.299   3.288
66709SOL    HW1 1901  10.565   6.235   3.232
66709SOL    HW2 1902  10.648   6.246   3.358
66710SOL     OW 1903   3.611   8.641  10.770
66710SOL    HW1 1904   3.541   8.578  10.753
66710SOL    HW2 1905   3.643   8.667  10.684
66711SOL     OW 1906   2.899   4.035  14.818
66711SOL    HW1 1907   2.926   3.981  14.745
66711SOL    HW2 1908   2.830   4.091  14.783
66712SOL     OW 1909   2.322  11.087   1.416
66712SOL    HW1 1910   2.245  11.124   1.460
66712SOL    HW2 1911   2.367  11.163   1.379
66713SOL     OW 1912  13.513   6.236  13.427
66713SOL    HW1 1913  13.467   6.260  13.347
66713SOL    HW2 1914  13.471   6.155  13.456
66714SOL     OW 1915  12.803   8.122   8.574
66714SOL    HW1 1916  12.832   8.046   8.523
66714SOL    HW2 1917  12.792   8.088   8.663
66715SOL     OW 1918  12.736   2.619   7.734
66715SOL    HW1 1919  12.780   2.603   7.818
66715SOL    HW2 1920  12.663   2.557   7.733
66716SOL     OW 1921  11.378  13.480   7.003
66716SOL    HW1 1922  11.340  13.502   7.088
66716SOL    HW2 1923  11.308  13.435   6.956
66717SOL     OW 1924   9.817  14.028   6.063
66717SOL    HW1 1925   9.794  13.989   6.147
66717SOL    HW2 1926   9.800  13.960   5.999
66718SOL     OW 1927  10.745  11.206  13.323
66718SOL    HW1 1928  10.689  11.282  13.341
66718SOL    HW2 1929  10.718  11.176  13.236
66719SOL     OW 1930  14.706  14.374   1.514
66719SOL    HW1 1931  14.714  14.334   1.600
66719SOL    HW2 1932  14.612  14.376   1.498
66720SOL     OW 1933   5.852  13.737   8.367
66720SOL    HW1 1934   5.888  13.657   8.404
66720SOL    HW2 1935   5.810  13.780   8.441
66721SOL     OW 1936   1.426   9.970   5.834
66721SOL    HW1 1937   1.430   9.979   5.929
66721SOL    HW2 1938   1.394   9.881   5.819
66722SOL     OW 1939  13.149   3.442   3.185
66722SOL    HW1 1940  13.063   3.485   3.180
66722SOL    HW2 1941  13.206   3.507   3.226
66723SOL     OW 1942   0.502  14.494  14.676
66723SOL    HW1 1943   0.558  14.468  14.749
66723SOL    HW2 1944   0.522  14.431  14.607
66724SOL     OW 1945  10.471  11.019   6.416
66724SOL    HW1 1946  10.531  11.007   6.490
66724SOL    HW2 1947  10.526  11.050   6.345
66725SOL     OW 1948   0.937   2.830   9.979
66725SOL    HW1 1949   1.003   2.773   9.939
66725SOL    HW2 1950   0.981   2.868  10.055
66726SOL     OW 1951  13.225   0.845   0.622
66726SOL    HW1 1952  13.141   0.835   0.578
66726SOL    HW2 1953  13.227   0.775   0.687
66727SOL     OW 1954   7.469  11.925  11.600
66727SOL    HW1 1955   7.493  11.840  11.636
66727SOL    HW2 1956   7.504  11.925  11.511
66728SOL     OW 1957  14.104   8.263   4.563
66728SOL    HW1 1958  14.154   8.315   4.627
66728SOL    HW2 1959  14.018   8.253   4.602
66729SOL     OW 1960   0.444   7.413   8.023
66729SOL    HW1 1961   0.371   7.361   8.057
66729SOL    HW2 1962   0.458   7.381   7.934
66730SOL     OW 1963   6.427   1.771  11.296
66730SOL    HW1 1964   6.401   1.791  11.386
66730SOL    HW2 1965   6.474   1.688  11.302
66731SOL     OW 1966   4.223  11.548   1.269
66731SOL    HW1 1967   4.267  11.516   1.191
66731SOL    HW2 1968   4.278  11.620   1.300
66732SOL     OW 1969   0.311   7.822   4.691
66732SOL    HW1 1970   0.302   7.833   4.597
66732SOL    HW2 1971   0.391   7.869   4.714
66733SOL     OW 1972   9.298   1.574   3.688
66733SOL    HW1 1973   9.306   1.479   3.696
66733SOL    HW2 1974   9.284   1.604   3.778
66734SOL     OW 1975   4.828   4.013   7.324
66734SOL    HW1 1976   4.895   4.011   7.256
66734SOL    HW2 1977   4.831   4.102   7.358
66735SOL     OW 1978   6.905  11.363   2.426
66735SOL    HW1 1979   6.916  11.432   2.361
66735SOL    HW2 1980   6.969  11.296   2.402
66736SOL     OW 1981   4.530   1.991   3.633
66736SOL    HW1 1982   4.519   1.932   3.558
66736SOL    HW2 1983   4.612   1.962   3.674
66737SOL     OW 1984   6.280   0.675   8.540
66737SOL    HW1 1985   6.219   0.726   8.486
66737SOL    HW2 1986   6.335   0.629   8.477
66738SOL     OW 1987   5.722  14.686   9.872
66738SOL    HW1 1988   5.754  14.764   9.918
66738SOL    HW2 1989   5.634  14.710   9.842
66739SOL     OW 1990  13.024   0.754   1.345
66739SOL    HW1 1991  12.973   0.760   1.425
66739SOL    HW2 1992  13.107   0.796   1.367
66740SOL     OW 1993   6.636   0.616  11.862
66740SOL    HW1 1994   6.554   0.660  11.886
66740SOL    HW2 1995   6.612   0.561  11.788
66741SOL     OW 1996   2.933   1.456   9.299
66741SOL    HW1 1997   2.986   1.401   9.357
66741SOL    HW2 1998   2.926   1.540   9.345
66742SOL     OW 1999   7.211  10.478   4.607
66742SOL    HW1 2000   7.212  10.383   4.622
66742SOL    HW2 2001   7.300  10.506   4.628
66743SOL     OW 2002   4.072  13.046  12.221
66743SOL    HW1 2003   4.067  13.035  12.316
66743SOL    HW2 2004   4.147  12.992  12.195
66744SOL     OW 2005  14.411   1.773  10.063
66744SOL    HW1 2006  14.490   1.801  10.016
66744SOL    HW2 2007  14.431   1.788  10.155
66745SOL     OW 2008  14.470   2.615  13.644
66745SOL    HW1 2009  14.512   2.578  13.721
66745SOL    HW2 2010  14.438   2.700  13.672
66746SOL     OW 2011   0.190   3.035   4.288
66746SOL    HW1 2012   0.206   3.109   4.347
66746SOL    HW2 2013   0.152   3.075   4.209
66747SOL     OW 2014  11.038   4.206   4.937
66747SOL    HW1 2015  11.086   4.127   4.963
66747SOL    HW2 2016  11.098   4.278   4.954
66748SOL     OW 2017   0.330   7.246  13.619
66748SOL    HW1 2018   0.357   7.313  13.683
66748SOL    HW2 2019   0.318   7.167  13.671
66749SOL     OW 2020   9.752   5.597   9.311
66749SOL    HW1 2021   9.732   5.680   9.355
66749SOL    HW2 2022   9.830   5.616   9.259
66750SOL     OW 2023  11.839   0.964  11.124
66750SOL    HW1 2024  11.787   1.025  11.071
66750SOL    HW2 2025  11.789   0.954  11.205
66751SOL     OW 2026   9.728   8.385  12.931
66751SOL    HW1 2027   9.646   8.433  12.936
66751SOL    HW2 2028   9.744   8.355  13.021
66752SOL     OW 2029  14.735  10.189  10.995
66752SOL    HW1 2030  14.831  10.189  10.988
66752SOL    HW2 2031  14.716  10.129  11.068
66753SOL     OW 2032   0.795   0.098  11.669
66753SOL    HW1 2033   0.880   0.092  11.626
66753SOL    HW2 2034   0.812   0.075  11.760
66754SOL     OW 2035  10.775   7.760  10.640
66754SOL    HW1 2036  10.845   7.747  10.705
66754SOL    HW2 2037  10.820   7.794  10.563
66755SOL     OW 2038  14.460   2.208   2.223
66755SOL    HW1 2039  14.549   2.172   2.220
66755SOL    HW2 2040  14.411   2.145   2.275
66756SOL     OW 2041   6.239   4.427  13.936
66756SOL    HW1 2042   6.217   4.517  13.959
66756SOL    HW2 2043   6.238   4.380  14.020
66757SOL     OW 2044   8.270   9.516   6.690
66757SOL    HW1 2045   8.297   9.442   6.636
66757SOL    HW2 2046   8.298   9.493   6.778
66758SOL     OW 2047   4.654  12.613   8.087
66758SOL    HW1 2048   4.604  12.575   8.015
66758SOL    HW2 2049   4.602  12.594   8.165
66759SOL     OW 2050  13.943   2.902   0.511
66759SOL    HW1 2051  13.855   2.910   0.474
66759SOL    HW2 2052  13.931   2.917   0.605
66760SOL     OW 2053  13.678  11.962   3.803
66760SOL    HW1 2054  13.600  12.001   3.764
66760SOL    HW2 2055  13.737  11.947   3.730
66761SOL     OW 2056  10.514   1.147   7.555
66761SOL    HW1 2057  10.469   1.132   7.472
66761SOL    HW2 2058  10.462   1.098   7.619
66762SOL     OW 2059  12.715  12.092  12.668
66762SOL    HW1 2060  12.719  12.013  12.722
66762SOL    HW2 2061  12.799  12.094  12.622
66763SOL     OW 2062  13.286   2.786  12.978
66763SOL    HW1 2063  13.265   2.803  13.070
66763SOL    HW2 2064  13.380   2.766  12.979
66764SOL     OW 2065   5.857   8.014  12.567
66764SOL    HW1 2066   5.881   8.013  12.475
66764SOL    HW2 2067   5.796   8.087  12.576
66765SOL     OW 2068   9.484  10.595   2.471
66765SOL    HW1 2069   9.532  10.619   2.550
66765SOL    HW2 2070   9.487  10.500   2.468
66766SOL     OW 2071   6.152  10.044   6.064
66766SOL    HW1 2072   6.138  10.023   6.156
66766SOL    HW2 2073   6.214   9.978   6.033
66767SOL     OW 2074  14.216   4.484   2.078
66767SOL    HW1 2075  14.194   4.520   2.164
66767SOL    HW2 2076  14.216   4.389   2.091
66768SOL     OW 2077   0.817   6.233  12.214
66768SOL    HW1 2078   0.830   6.319  12.255
66768SOL    HW2 2079   0.892   6.181  12.243
66769SOL     OW 2080  14.337  11.030   2.290
66769SOL    HW1 2081  14.347  11.100   2.225
66769SOL    HW2 2082  14.379  10.954   2.250
66770SOL     OW 2083   9.259  12.548   1.388
66770SOL    HW1 2084   9.286  12.584   1.303
66770SOL    HW2 2085   9.233  12.624   1.439
66771SOL     OW 2086  11.314   0.348   6.728
66771SOL    HW1 2087  11.323   0.443   6.739
66771SOL    HW2 2088  11.354   0.330   6.643
66772SOL     OW 2089   4.679   5.949   9.189
66772SOL    HW1 2090   4.688   5.911   9.277
66772SOL    HW2 2091   4.614   6.019   9.201
66773SOL     OW 2092  12.962   4.248   4.156
66773SOL    HW1 2093  12.970   4.156   4.180
66773SOL    HW2 2094  12.922   4.247   4.069
66774SOL     OW 2095  14.745   2.538   8.570
66774SOL    HW1 2096  14.800   2.481   8.624
66774SOL    HW2 2097  14.661   2.494   8.566
66775SOL     OW 2098  12.470  11.588  12.173
66775SOL    HW1 2099  12.445  11.614  12.262
66775SOL    HW2 2100  12.557  11.549  12.184
66776SOL     OW 2101   4.265   1.142   1.070
66776SOL    HW1 2102   4.185   1.116   1.117
66776SOL    HW2 2103   4.235   1.204   1.003
66777SOL     OW 2104  10.746  12.487   5.470
66777SOL    HW1 2105  10.719  12.540   5.395
66777SOL    HW2 2106  10.692  12.409   5.465
66778SOL     OW 2107  14.319   6.784   6.454
66778SOL    HW1 2108  14.396   6.829   6.419
66778SOL    HW2 2109  14.245   6.833   6.419
66779SOL     OW 2110  13.837  14.245  10.257
66779SOL    HW1 2111  13.922  14.208  10.231
66779SOL    HW2 2112  13.799  14.276  10.175
66780SOL     OW 2113  14.134  10.229   8.188
66780SOL    HW1 2114  14.224  10.260   8.176
66780SOL    HW2 2115  14.142  10.134   8.195
66781SOL     OW 2116  11.156  11.453  11.749
66781SOL    HW1 2117  11.137  11.532  11.699
66781SOL    HW2 2118  11.177  11.387  11.683
66782SOL     OW 2119  13.339   3.854   2.663
66782SOL    HW1 2120  13.323   3.804   2.584
66782SOL    HW2 2121  13.278   3.928   2.658
66783SOL     OW 2122   0.356   4.116   7.004
66783SOL    HW1 2123   0.437   4.067   6.989
66783SOL    HW2 2124   0.301   4.096   6.928
66784SOL     OW 2125   7.777  11.673   5.063
66784SOL    HW1 2126   7.829  11.700   5.139
66784SOL    HW2 2127   7.729  11.596   5.093
66785SOL     OW 2128   8.234   7.483  14.326
66785SOL    HW1 2129   8.188   7.428  14.264
66785SOL    HW2 2130   8.312   7.514  14.279
66786SOL     OW 2131   5.423   4.107  11.092
66786SOL    HW1 2132   5.379   4.109  11.177
66786SOL    HW2 2133   5.384   4.180  11.043
66787SOL     OW 2134   2.476   5.645   6.105
66787SOL    HW1 2135   2.414   5.642   6.032
66787SOL    HW2 2136   2.426   5.613   6.180
66788SOL     OW 2137   7.461  10.412   3.989
66788SOL    HW1 2138   7.451  10.347   4.058
66788SOL    HW2 2139   7.416  10.490   4.021
66789SOL     OW 2140  13.916   1.210  12.291
66789SOL    HW1 2141  13.875   1.146  12.350
66789SOL    HW2 2142  13.864   1.289  12.302
66790SOL     OW 2143   8.848  13.913   0.644
66790SOL    HW1 2144   8.792  13.989   0.626
66790SOL    HW2 2145   8.908  13.944   0.712
66791SOL     OW 2146   5.042   0.727   1.364
66791SOL    HW1 2147   5.051   0.666   1.438
66791SOL    HW2 2148   4.947   0.737   1.354
66792SOL     OW 2149   7.025  10.421   6.440
66792SOL    HW1 2150   7.102  10.419   6.497
66792SOL    HW2 2151   6.972  10.346   6.468
66793SOL     OW 2152   4.839  13.969   5.863
66793SOL    HW1 2153   4.814  13.879   5.845
66793SOL    HW2 2154   4.780  13.997   5.934
66794SOL     OW 2155  14.515  10.604   2.471
66794SOL    HW1 2156  14.574  10.536   2.438
66794SOL    HW2 2157  14.571  10.680   2.485
66795SOL     OW 2158  12.700   0.911   4.995
66795SOL    HW1 2159  12.741   0.855   5.061
66795SOL    HW2 2160  12.723   0.871   4.911
66796SOL     OW 2161   3.601   6.050  13.883
66796SOL    HW1 2162   3.560   6.020  13.802
66796SOL    HW2 2163   3.584   5.980  13.946
66797SOL     OW 2164   6.812   1.113  11.109
66797SOL    HW1 2165   6.876   1.045  11.090
66797SOL    HW2 2166   6.738   1.067  11.148
66798SOL     OW 2167  14.284   7.440   7.437
66798SOL    HW1 2168  14.379   7.453   7.428
66798SOL    HW2 2169  14.255   7.419   7.348
66799SOL     OW 2170   9.572  14.183   6.942
66799SOL    HW1 2171   9.508  14.144   7.001
66799SOL    HW2 2172   9.561  14.277   6.953
66800SOL     OW 2173  13.001  11.782   3.881
66800SOL    HW1 2174  13.060  11.721   3.925
66800SOL    HW2 2175  13.058  11.854   3.852
66801SOL     OW 2176   1.366   6.447   5.939
66801SOL    HW1 2177   1.272   6.464   5.952
66801SOL    HW2 2178   1.408   6.528   5.968
66802SOL     OW 2179  10.430  13.361  14.439
66802SOL    HW1 2180  10.377  13.392  14.513
66802SOL    HW2 2181  10.506  13.419  14.440
66803SOL     OW 2182  11.868   9.600  14.302
66803SOL    HW1 2183  11.847   9.522  14.251
66803SOL    HW2 2184  11.955   9.583  14.337
66804SOL     OW 2185  14.478   1.118  12.034
66804SOL    HW1 2186  14.433   1.189  12.080
66804SOL    HW2 2187  14.551   1.161  11.989
66805SOL     OW 2188   5.747  12.444  13.166
66805SOL    HW1 2189   5.727  12.509  13.234
66805SOL    HW2 2190   5.809  12.384  13.207
66806SOL     OW 2191   5.754   1.418  14.047
66806SOL    HW1 2192   5.848   1.435  14.059
66806SOL    HW2 2193   5.728   1.370  14.126
66807SOL     OW 2194   3.590   3.046   9.314
66807SOL    HW1 2195   3.674   3.089   9.332
66807SOL    HW2 2196   3.570   2.999   9.394
66808SOL     OW 2197  12.059   4.328   7.116
66808SOL    HW1 2198  12.060   4.250   7.060
66808SOL    HW2 2199  12.101   4.299   7.197
66809SOL     OW 2200   4.974   7.822   6.528
66809SOL    HW1 2201   5.042   7.889   6.535
66809SOL    HW2 2202   5.020   7.740   6.547
66810SOL     OW 2203  10.862   8.573   9.188
66810SOL    HW1 2204  10.882   8.662   9.218
66810SOL    HW2 2205  10.865   8.519   9.267
66811SOL     OW 2206  14.456   5.596   8.516
66811SOL    HW1 2207  14.428   5.521   8.463
66811SOL    HW2 2208  14.416   5.581   8.601
66812SOL     OW 2209   5.800  12.498   2.424
66812SOL    HW1 2210   5.888  12.533   2.441
66812SOL    HW2 2211   5.750  12.573   2.393
66813SOL     OW 2212   1.612  11.541   3.840
66813SOL    HW1 2213   1.701  11.526   3.809
66813SOL    HW2 2214   1.568  11.584   3.767
66814SOL     OW 2215   3.766   0.087  10.278
66814SOL    HW1 2216   3.848   0.089  10.231
66814SOL    HW2 2217   3.703   0.129  10.219
66815SOL     OW 2218   8.627   3.512   2.728
66815SOL    HW1 2219   8.702   3.456   2.711
66815SOL    HW2 2220   8.552   3.466   2.690
66816SOL     OW 2221   6.912   1.958   7.054
66816SOL    HW1 2222   6.998   1.924   7.028
66816SOL    HW2 2223   6.927   2.050   7.072
66817SOL     OW 2224   0.318  11.480   1.862
66817SOL    HW1 2225   0.376  11.404   1.853
66817SOL    HW2 2226   0.375  11.556   1.853
66818SOL     OW 2227  10.168   9.541  13.642
66818SOL    HW1 2228  10.219   9.486  13.582
66818SOL    HW2 2229  10.233   9.573  13.705
66819SOL     OW 2230  12.451  14.781  14.864
66819SOL    HW1 2231  12.526  14.826  14.824
66819SOL    HW2 2232  12.375  14.832  14.837
66820SOL     OW 2233   6.074  10.787  12.537
66820SOL    HW1 2234   6.107  10.728  12.605
66820SOL    HW2 2235   6.034  10.729  12.472
66821SOL     OW 2236  13.082  12.533   9.482
66821SOL    HW1 2237  13.069  12.456   9.427
66821SOL    HW2 2238  13.163  12.515   9.531
66822SOL     OW 2239   7.831   3.877   9.546
66822SOL    HW1 2240   7.750   3.830   9.568
66822SOL    HW2 2241   7.893   3.808   9.522
66823SOL     OW 2242   6.727   9.251  11.021
66823SOL    HW1 2243   6.652   9.310  11.011
66823SOL    HW2 2244   6.763   9.241  10.933
66824SOL     OW 2245   4.704   6.427   5.294
66824SOL    HW1 2246   4.781   6.483   5.302
66824SOL    HW2 2247   4.643   6.477   5.241
66825SOL     OW 2248   3.517   7.684  12.933
66825SOL    HW1 2249   3.551   7.706  13.019
66825SOL    HW2 2250   3.422   7.680  12.945
66826SOL     OW 2251   4.066   0.038  13.491
66826SOL    HW1 2252   4.016  14.837  13.511
66826SOL    HW2 2253   4.155   0.007  13.477
66827SOL     OW 2254   9.852   1.773   5.213
66827SOL    HW1 2255   9.823   1.807   5.298
66827SOL    HW2 2256   9.776   1.782   5.156
66828SOL     OW 2257   1.181   3.385  12.064
66828SOL    HW1 2258   1.258   3.412  12.014
66828SOL    HW2 2259   1.113   3.449  12.041
66829SOL     OW 2260  14.157   1.533   8.112
66829SOL    HW1 2261  14.155   1.611   8.056
66829SOL    HW2 2262  14.157   1.460   8.050
66830SOL     OW 2263   7.067  12.940   7.359
66830SOL    HW1 2264   7.155  12.921   7.392
66830SOL    HW2 2265   7.069  13.032   7.335
66831SOL     OW 2266   1.200   6.556   5.554
66831SOL    HW1 2267   1.215   6.579   5.645
66831SOL    HW2 2268   1.227   6.634   5.505
66832SOL     OW 2269   4.281   1.558   8.367
66832SOL    HW1 2270   4.357   1.565   8.425
66832SOL    HW2 2271   4.255   1.649   8.351
66833SOL     OW 2272   0.840   5.246   4.898
66833SOL    HW1 2273   0.858   5.214   4.810
66833SOL    HW2 2274   0.760   5.298   4.888
66834SOL     OW 2275   8.099   4.648   4.350
66834SOL    HW1 2276   8.143   4.685   4.426
66834SOL    HW2 2277   8.118   4.710   4.279
66835SOL     OW 2278   0.970   7.021  13.337
66835SOL    HW1 2279   1.065   7.021  13.333
66835SOL    HW2 2280   0.950   7.071  13.416
66836SOL     OW 2281   5.795   2.648   6.626
66836SOL    HW1 2282   5.838   2.599   6.556
66836SOL    HW2 2283   5.710   2.672   6.589
66837SOL     OW 2284   2.212  14.793   6.392
66837SOL    HW1 2285   2.158  14.770   6.468
66837SOL    HW2 2286   2.286  14.733   6.395
66838SOL     OW 2287   4.221   1.389   6.046
66838SOL    HW1 2288   4.142   1.338   6.034
66838SOL    HW2 2289   4.285   1.326   6.079
66839SOL     OW 2290   6.238   4.521  13.256
66839SOL    HW1 2291   6.270   4.431  13.256
66839SOL    HW2 2292   6.314   4.573  13.281
66840SOL     OW 2293   2.488  13.695   4.239
66840SOL    HW1 2294   2.431  13.678   4.314
66840SOL    HW2 2295   2.548  13.762   4.270
66841SOL     OW 2296   4.301   9.977   6.263
66841SOL    HW1 2297   4.251   9.973   6.345
66841SOL    HW2 2298   4.248   9.929   6.200
66842SOL     OW 2299  11.559   8.386  12.688
66842SOL    HW1 2300  11.589   8.417  12.773
66842SOL    HW2 2301  11.562   8.290  12.695
66843SOL     OW 2302   3.840  12.155  12.620
66843SOL    HW1 2303   3.812  12.126  12.707
66843SOL    HW2 2304   3.883  12.239  12.636
66844SOL     OW 2305   8.449   0.688   1.809
66844SOL    HW1 2306   8.437   0.629   1.734
66844SOL    HW2 2307   8.542   0.709   1.808
66845SOL     OW 2308   1.200   7.625  14.514
66845SOL    HW1 2309   1.293   7.624  14.491
66845SOL    HW2 2310   1.192   7.698  14.575
66846SOL     OW 2311   0.521   0.980   6.623
66846SOL    HW1 2312   0.448   0.991   6.683
66846SOL    HW2 2313   0.559   0.896   6.647
66847SOL     OW 2314   0.935   9.314   8.660
66847SOL    HW1 2315   1.019   9.354   8.680
66847SOL    HW2 2316   0.919   9.335   8.568
66848SOL     OW 2317   7.221   8.323  13.701
66848SOL    HW1 2318   7.298   8.347  13.649
66848SOL    HW2 2319   7.253   8.252  13.757
66849SOL     OW 2320   0.590   5.735  13.535
66849SOL    HW1 2321   0.647   5.661  13.517
66849SOL    HW2 2322   0.645   5.812  13.519
66850SOL     OW 2323  11.424   1.325   7.761
66850SOL    HW1 2324  11.389   1.377   7.833
66850SOL    HW2 2325  11.517   1.347   7.758
66851SOL     OW 2326   6.329   2.073   1.851
66851SOL    HW1 2327   6.278   2.149   1.878
66851SOL    HW2 2328   6.411   2.080   1.901
66852SOL     OW 2329   8.130   1.527   4.726
66852SOL    HW1 2330   8.110   1.602   4.670
66852SOL    HW2 2331   8.177   1.467   4.669
66853SOL     OW 2332   7.477   7.185   6.252
66853SOL    HW1 2333   7.389   7.216   6.232
66853SOL    HW2 2334   7.526   7.264   6.272
66854SOL     OW 2335   0.317  10.894   0.389
66854SOL    HW1 2336   0.249  10.958   0.371
66854SOL    HW2 2337   0.329  10.897   0.484
66855SOL     OW 2338   8.677   8.200  14.461
66855SOL    HW1 2339   8.598   8.212  14.514
66855SOL    HW2 2340   8.715   8.287  14.454
66856SOL     OW 2341   6.372   8.291   6.654
66856SOL    HW1 2342   6.446   8.324   6.707
66856SOL    HW2 2343   6.355   8.204   6.688
66857SOL     OW 2344   8.959   8.653   9.602
66857SOL    HW1 2345   8.963   8.573   9.550
66857SOL    HW2 2346   9.002   8.719   9.548
66858SOL     OW 2347   2.398  11.781   6.270
66858SOL    HW1 2348   2.367  11.733   6.194
66858SOL    HW2 2349   2.322  11.786   6.329
66859SOL     OW 2350  10.539   3.048  14.066
66859SOL    HW1 2351  10.450   3.075  14.041
66859SOL    HW2 2352  10.560   2.977  14.006
66860SOL     OW 2353  13.191  12.866   9.728
66860SOL    HW1 2354  13.268  12.831   9.683
66860SOL    HW2 2355  13.209  12.853   9.821
66861SOL     OW 2356   2.616   7.710   3.536
66861SOL    HW1 2357   2.536   7.759   3.557
66861SOL    HW2 2358   2.620   7.642   3.603
66862SOL     OW 2359   4.886   2.843   7.117
66862SOL    HW1 2360   4.886   2.747   7.113
66862SOL    HW2 2361   4.853   2.863   7.205
66863SOL     OW 2362   7.614  12.735  11.036
66863SOL    HW1 2363   7.583  12.746  10.946
66863SOL    HW2 2364   7.551  12.675  11.076
66864SOL     OW 2365   5.171   7.578  13.950
66864SOL    HW1 2366   5.116   7.595  13.873
66864SOL    HW2 2367   5.110   7.547  14.017
66865SOL     OW 2368  14.108   1.793   1.759
66865SOL    HW1 2369  14.109   1.821   1.668
66865SOL    HW2 2370  14.084   1.871   1.808
66866SOL     OW 2371   9.218   2.827  11.381
66866SOL    HW1 2372   9.155   2.825  11.453
66866SOL    HW2 2373   9.166   2.818  11.302
66867SOL     OW 2374  12.658   2.838  10.475
66867SOL    HW1 2375  12.627   2.817  10.387
66867SOL    HW2 2376  12.699   2.758  10.507
66868SOL     OW 2377   0.629  14.560  10.371
66868SOL    HW1 2378   0.591  14.622  10.308
66868SOL    HW2 2379   0.560  14.546  10.435
66869SOL     OW 2380   2.570   9.361  13.508
66869SOL    HW1 2381   2.620   9.325  13.581
66869SOL    HW2 2382   2.564   9.288  13.445
66870SOL     OW 2383   9.859   8.153   5.530
66870SOL    HW1 2384   9.877   8.241   5.561
66870SOL    HW2 2385   9.773   8.159   5.487
66871SOL     OW 2386   8.435  13.286  11.878
66871SOL    HW1 2387   8.424  13.381  11.879
66871SOL    HW2 2388   8.361  13.254  11.826
66872SOL     OW 2389  11.899   7.138   4.294
66872SOL    HW1 2390  11.840   7.140   4.219
66872SOL    HW2 2391  11.966   7.204   4.273
66873SOL     OW 2392   5.709   8.218  13.659
66873SOL    HW1 2393   5.802   8.218  13.637
66873SOL    HW2 2394   5.666   8.255  13.581
66874SOL     OW 2395   7.697   9.305  13.791
66874SOL    HW1 2396   7.698   9.271  13.701
66874SOL    HW2 2397   7.777   9.358  13.797
66875SOL     OW 2398  10.845  13.763   9.160
66875SOL    HW1 2399  10.797  13.756   9.242
66875SOL    HW2 2400  10.936  13.780   9.186
66876SOL     OW 2401   7.631  14.364   3.766
66876SOL    HW1 2402   7.697  14.420   3.725
66876SOL    HW2 2403   7.615  14.295   3.701
66877SOL     OW 2404   2.869   9.365   9.490
66877SOL    HW1 2405   2.889   9.442   9.437
66877SOL    HW2 2406   2.917   9.381   9.572
66878SOL     OW 2407   4.736   9.595  12.502
66878SOL    HW1 2408   4.669   9.529  12.519
66878SOL    HW2 2409   4.799   9.552  12.444
66879SOL     OW 2410   6.441   7.757  14.784
66879SOL    HW1 2411   6.495   7.824  14.826
66879SOL    HW2 2412   6.394   7.715  14.856
66880SOL     OW 2413   8.640   5.969   5.166
66880SOL    HW1 2414   8.557   6.010   5.142
66880SOL    HW2 2415   8.640   5.969   5.262
66881SOL     OW 2416  14.744   1.379  11.220
66881SOL    HW1 2417  14.691   1.306  11.187
66881SOL    HW2 2418  14.812   1.337  11.272
66882SOL     OW 2419   5.886   0.376   5.076
66882SOL    HW1 2420   5.864   0.404   4.987
66882SOL    HW2 2421   5.980   0.386   5.082
66883SOL     OW 2422   8.469   8.968   9.160
66883SOL    HW1 2423   8.451   8.918   9.081
66883SOL    HW2 2424   8.553   9.010   9.143
66884SOL     OW 2425   5.666   3.648  11.766
66884SOL    HW1 2426   5.597   3.710  11.744
66884SOL    HW2 2427   5.639   3.609  11.849
66885SOL     OW 2428   0.377   6.294  11.711
66885SOL    HW1 2429   0.300   6.259  11.756
66885SOL    HW2 2430   0.450   6.241  11.744
66886SOL     OW 2431   2.535  10.808  10.261
66886SOL    HW1 2432   2.523  10.869  10.188
66886SOL    HW2 2433   2.551  10.723  10.219
66887SOL     OW 2434   6.056   8.204   7.654
66887SOL    HW1 2435   6.028   8.257   7.580
66887SOL    HW2 2436   6.152   8.203   7.648
66888SOL     OW 2437   0.360   5.072  12.808
66888SOL    HW1 2438   0.428   5.062  12.876
66888SOL    HW2 2439   0.290   5.013  12.836
66889SOL     OW 2440  14.056   0.792   3.367
66889SOL    HW1 2441  14.039   0.868   3.310
66889SOL    HW2 2442  14.016   0.816   3.450
66890SOL     OW 2443   5.919   8.905   9.554
66890SOL    HW1 2444   5.937   8.942   9.640
66890SOL    HW2 2445   5.841   8.851   9.567
66891SOL     OW 2446   9.245  10.919   2.749
66891SOL    HW1 2447   9.188  10.842   2.747
66891SOL    HW2 2448   9.260  10.935   2.842
66892SOL     OW 2449   0.065   4.410   8.587
66892SOL    HW1 2450   0.107   4.329   8.615
66892SOL    HW2 2451   0.085   4.417   8.494
66893SOL     OW 2452   8.226   5.571   3.698
66893SOL    HW1 2453   8.260   5.660   3.699
66893SOL    HW2 2454   8.211   5.550   3.790
66894SOL     OW 2455   5.827   2.373   2.225
66894SOL    HW1 2456   5.893   2.433   2.259
66894SOL    HW2 2457   5.876   2.307   2.177
66895SOL     OW 2458  11.809   1.792   3.192
66895SOL    HW1 2459  11.892   1.744   3.186
66895SOL    HW2 2460  11.756   1.757   3.120
66896SOL     OW 2461   8.966  14.539   4.154
66896SOL    HW1 2462   8.885  14.567   4.112
66896SOL    HW2 2463   9.013  14.491   4.085
66897SOL     OW 2464  14.056   9.509  12.183
66897SOL    HW1 2465  14.038   9.443  12.250
66897SOL    HW2 2466  14.144   9.489  12.152
66898SOL     OW 2467   1.112   4.850  11.583
66898SOL    HW1 2468   1.149   4.813  11.663
66898SOL    HW2 2469   1.109   4.944  11.600
66899SOL     OW 2470   2.820   5.797   5.379
66899SOL    HW1 2471   2.800   5.766   5.467
66899SOL    HW2 2472   2.755   5.755   5.323
66900SOL     OW 2473   9.576   3.865  11.853
66900SOL    HW1 2474   9.577   3.840  11.761
66900SOL    HW2 2475   9.555   3.958  11.853
66901SOL     OW 2476   0.135   8.016   5.675
66901SOL    HW1 2477   0.051   7.983   5.644
66901SOL    HW2 2478   0.178   7.940   5.715
66902SOL     OW 2479   5.244   5.833   6.289
66902SOL    HW1 2480   5.217   5.922   6.313
66902SOL    HW2 2481   5.312   5.846   6.223
66903SOL     OW 2482   6.800  10.267  11.575
66903SOL    HW1 2483   6.747  10.225  11.642
66903SOL    HW2 2484   6.764  10.355  11.566
66904SOL     OW 2485   7.564  14.467   8.165
66904SOL    HW1 2486   7.480  14.421   8.156
66904SOL    HW2 2487   7.558  14.539   8.102
66905SOL     OW 2488  11.131   3.648   8.651
66905SOL    HW1 2489  11.113   3.739   8.625
66905SOL    HW2 2490  11.185   3.656   8.729
66906SOL     OW 2491   6.096   1.110   9.247
66906SOL    HW1 2492   6.006   1.079   9.256
66906SOL    HW2 2493   6.145   1.063   9.314
66907SOL     OW 2494   4.289   9.367  13.012
66907SOL    HW1 2495   4.218   9.334  13.067
66907SOL    HW2 2496   4.368   9.344  13.060
66908SOL     OW 2497   6.318  10.742  12.673
66908SOL    HW1 2498   6.350  10.657  12.641
66908SOL    HW2 2499   6.361  10.806  12.618
66909SOL     OW 2500   7.553   0.999  13.520
66909SOL    HW1 2501   7.613   0.956  13.581
66909SOL    HW2 2502   7.561   1.092  13.540
66910SOL     OW 2503  13.802   1.631  10.624
66910SOL    HW1 2504  13.846   1.570  10.564
66910SOL    HW2 2505  13.746   1.683  10.567
66911SOL     OW 2506  13.228  13.989   9.180
66911SOL    HW1 2507  13.203  13.976   9.088
66911SOL    HW2 2508  13.302  14.049   9.176
66912SOL     OW 2509  10.431   3.173   3.795
66912SOL    HW1 2510  10.485   3.181   3.717
66912SOL    HW2 2511  10.398   3.262   3.810
66913SOL     OW 2512  10.271  14.670   1.888
66913SOL    HW1 2513  10.259  14.654   1.981
66913SOL    HW2 2514  10.362  14.701   1.881
66914SOL     OW 2515   2.754  12.466  12.181
66914SOL    HW1 2516   2.787  12.527  12.247
66914SOL    HW2 2517   2.710  12.521  12.117
66915SOL     OW 2518   2.560  13.668  13.864
66915SOL    HW1 2519   2.473  13.644  13.831
66915SOL    HW2 2520   2.544  13.693  13.955
66916SOL     OW 2521  11.868   1.291   5.064
66916SOL    HW1 2522  11.930   1.360   5.041
66916SOL    HW2 2523  11.845   1.250   4.981
66917SOL     OW 2524   7.612   0.587   8.586
66917SOL    HW1 2525   7.628   0.536   8.666
66917SOL    HW2 2526   7.558   0.660   8.615
66918SOL     OW 2527  14.111   4.797  14.530
66918SOL    HW1 2528  14.105   4.825  14.622
66918SOL    HW2 2529  14.201   4.767  14.520
66919SOL     OW 2530   0.054   8.186  12.004
66919SOL    HW1 2531   0.099   8.112  11.963
66919SOL    HW2 2532   0.017   8.235  11.930
66920SOL     OW 2533   9.432   4.412   2.524
66920SOL    HW1 2534   9.351   4.401   2.475
66920SOL    HW2 2535   9.422   4.496   2.569
66921SOL     OW 2536  11.180  13.584  10.881
66921SOL    HW1 2537  11.118  13.588  10.954
66921SOL    HW2 2538  11.128  13.550  10.808
66922SOL     OW 2539  11.934  12.346   9.363
66922SOL    HW1 2540  12.013  12.360   9.416
66922SOL    HW2 2541  11.875  12.299   9.422
66923SOL     OW 2542   1.053   7.474   7.432
66923SOL    HW1 2543   0.976   7.527   7.453
66923SOL    HW2 2544   1.104   7.528   7.372
66924SOL     OW 2545   6.194   3.509   4.384
66924SOL    HW1 2546   6.103   3.498   4.357
66924SOL    HW2 2547   6.246   3.477   4.310
66925SOL     OW 2548   9.271   0.616  14.338
66925SOL    HW1 2549   9.352   0.629  14.289
66925SOL    HW2 2550   9.265   0.522  14.351
66926SOL     OW 2551  12.972   3.758  14.367
66926SOL    HW1 2552  12.922   3.722  14.441
66926SOL    HW2 2553  12.943   3.706  14.292
66927SOL     OW 2554  12.853  13.135   8.860
66927SOL    HW1 2555  12.850  13.093   8.774
66927SOL    HW2 2556  12.870  13.063   8.921
66928SOL     OW 2557   9.242  10.058  14.388
66928SOL    HW1 2558   9.270  10.070  14.479
66928SOL    HW2 2559   9.166  10.114  14.379
66929SOL     OW 2560  10.756   2.002  12.186
66929SOL    HW1 2561  10.685   1.983  12.124
66929SOL    HW2 2562  10.762   1.924  12.240
66930SOL     OW 2563  10.811  12.095  12.508
66930SOL    HW1 2564  10.814  12.155  12.583
66930SOL    HW2 2565  10.719  12.091  12.484
66931SOL     OW 2566  13.506  14.675  11.336
66931SOL    HW1 2567  13.499  14.579  11.341
66931SOL    HW2 2568  13.553  14.690  11.254
66932SOL     OW 2569   3.485  10.122   6.706
66932SOL    HW1 2570   3.566  10.142   6.754
66932SOL    HW2 2571   3.500  10.158   6.619
66933SOL     OW 2572  11.997   7.656  14.397
66933SOL    HW1 2573  12.039   7.661  14.311
66933SOL    HW2 2574  11.987   7.563  14.414
66934SOL     OW 2575   9.464   2.377   4.187
66934SOL    HW1 2576   9.552   2.346   4.212
66934SOL    HW2 2577   9.457   2.463   4.228
66935SOL     OW 2578  11.859   4.804  10.946
66935SOL    HW1 2579  11.892   4.865  11.011
66935SOL    HW2 2580  11.829   4.859  10.874
66936SOL     OW 2581  14.445   6.954   2.792
66936SOL    HW1 2582  14.382   6.927   2.859
66936SOL    HW2 2583  14.523   6.903   2.810
66937SOL     OW 2584  10.732  13.088   0.921
66937SOL    HW1 2585  10.687  13.172   0.932
66937SOL    HW2 2586  10.792  13.083   0.996
66938SOL     OW 2587  14.302  14.414   3.696
66938SOL    HW1 2588  14.375  14.370   3.739
66938SOL    HW2 2589  14.306  14.504   3.727
66939SOL     OW 2590  12.558   8.110   9.655
66939SOL    HW1 2591  12.571   8.116   9.560
66939SOL    HW2 2592  12.647   8.118   9.691
66940SOL     OW 2593   8.632   0.951   9.994
66940SOL    HW1 2594   8.682   0.933   9.915
66940SOL    HW2 2595   8.638   0.870  10.046
66941SOL     OW 2596   2.424  12.337   5.044
66941SOL    HW1 2597   2.404  12.313   4.954
66941SOL    HW2 2598   2.431  12.254   5.091
66942SOL     OW 2599  11.475   9.818  14.368
66942SOL    HW1 2600  11.435   9.756  14.307
66942SOL    HW2 2601  11.424   9.899  14.355
66943SOL     OW 2602  12.716   1.955  11.464
66943SOL    HW1 2603  12.644   1.987  11.409
66943SOL    HW2 2604  12.754   1.883  11.414
66944SOL     OW 2605   5.373   8.327  13.330
66944SOL    HW1 2606   5.370   8.422  13.331
66944SOL    HW2 2607   5.290   8.301  13.290
66945SOL     OW 2608  12.675   0.438  11.371
66945SOL    HW1 2609  12.644   0.517  11.327
66945SOL    HW2 2610  12.606   0.416  11.433
66946SOL     OW 2611  14.713  14.490   6.201
66946SOL    HW1 2612  14.749  14.570   6.163
66946SOL    HW2 2613  14.723  14.501   6.295
66947SOL     OW 2614   9.453  14.307   3.866
66947SOL    HW1 2615   9.540  14.285   3.833
66947SOL    HW2 2616   9.403  14.226   3.856
66948SOL     OW 2617   0.023   5.459   5.623
66948SOL    HW1 2618   0.004   5.425   5.536
66948SOL    HW2 2619   0.117   5.448   5.634
66949SOL     OW 2620  14.775  14.562  13.063
66949SOL    HW1 2621  14.765  14.480  13.015
66949SOL    HW2 2622  14.697  14.612  13.041
66950SOL     OW 2623  13.070  13.228   6.974
66950SOL    HW1 2624  13.007  13.237   6.902
66950SOL    HW2 2625  13.062  13.309   7.023
66951SOL     OW 2626   4.886   8.101   8.621
66951SOL    HW1 2627   4.802   8.055   8.616
66951SOL    HW2 2628   4.950   8.032   8.636
66952SOL     OW 2629   4.395   6.223   3.257
66952SOL    HW1 2630   4.365   6.150   3.203
66952SOL    HW2 2631   4.316   6.272   3.277
66953SOL     OW 2632   7.738  11.374  13.497
66953SOL    HW1 2633   7.738  11.433  13.572
66953SOL    HW2 2634   7.660  11.319  13.509
66954SOL     OW 2635   3.006   9.656  13.569
66954SOL    HW1 2636   3.091   9.621  13.596
66954SOL    HW2 2637   3.017   9.676  13.476
66955SOL     OW 2638   4.659   5.131   0.041
66955SOL    HW1 2639   4.640   5.053  14.867
66955SOL    HW2 2640   4.574   5.159   0.076
66956SOL     OW 2641  13.078   3.254  14.473
66956SOL    HW1 2642  12.985   3.271  14.458
66956SOL    HW2 2643  13.086   3.242  14.568
66957SOL     OW 2644   7.461  10.200   9.729
66957SOL    HW1 2645   7.543  10.229   9.688
66957SOL    HW2 2646   7.458  10.245   9.813
66958SOL     OW 2647  11.654   8.682  13.327
66958SOL    HW1 2648  11.628   8.766  13.289
66958SOL    HW2 2649  11.733   8.658  13.279
66959SOL     OW 2650   8.457   5.291   0.869
66959SOL    HW1 2651   8.506   5.344   0.806
66959SOL    HW2 2652   8.521   5.267   0.935
66960SOL     OW 2653   4.369  14.107   0.655
66960SOL    HW1 2654   4.340  14.162   0.728
66960SOL    HW2 2655   4.410  14.031   0.696
66961SOL     OW 2656   3.698   8.647   2.350
66961SOL    HW1 2657   3.777   8.673   2.303
66961SOL    HW2 2658   3.626   8.688   2.301
66962SOL     OW 2659  10.812   2.342   0.451
66962SOL    HW1 2660  10.813   2.433   0.422
66962SOL    HW2 2661  10.719   2.323   0.468
66963SOL     OW 2662   3.803  13.043  12.024
66963SOL    HW1 2663   3.763  12.978  12.083
66963SOL    HW2 2664   3.885  13.068  12.068
66964SOL     OW 2665  10.750   1.776  12.422
66964SOL    HW1 2666  10.728   1.740  12.508
66964SOL    HW2 2667  10.801   1.707  12.380
66965SOL     OW 2668   7.352  10.577   9.446
66965SOL    HW1 2669   7.281  10.512   9.444
66965SOL    HW2 2670   7.357  10.609   9.356
66966SOL     OW 2671   0.899   5.366  14.648
66966SOL    HW1 2672   0.841   5.426  14.601
66966SOL    HW2 2673   0.890   5.390  14.740
66967SOL     OW 2674   5.217   5.388   5.994
66967SOL    HW1 2675   5.206   5.323   5.924
66967SOL    HW2 2676   5.133   5.432   6.000
66968SOL     OW 2677   1.650  10.678   7.189
66968SOL    HW1 2678   1.640  10.754   7.246
66968SOL    HW2 2679   1.740  10.647   7.205
66969SOL     OW 2680   0.704   4.302   9.331
66969SOL    HW1 2681   0.788   4.348   9.329
66969SOL    HW2 2682   0.716   4.231   9.394
66970SOL     OW 2683  10.842  13.885   3.393
66970SOL    HW1 2684  10.862  13.804   3.440
66970SOL    HW2 2685  10.863  13.955   3.455
66971SOL     OW 2686   4.564   5.083   3.500
66971SOL    HW1 2687   4.530   5.137   3.429
66971SOL    HW2 2688   4.585   4.999   3.459
66972SOL     OW 2689   5.058   7.935  11.191
66972SOL    HW1 2690   5.078   7.885  11.112
66972SOL    HW2 2691   5.003   8.007  11.160
66973SOL     OW 2692   1.751   3.835   6.612
66973SOL    HW1 2693   1.692   3.858   6.540
66973SOL    HW2 2694   1.830   3.802   6.568
66974SOL     OW 2695   6.045   0.902   8.850
66974SOL    HW1 2696   6.101   0.963   8.899
66974SOL    HW2 2697   6.067   0.919   8.758
66975SOL     OW 2698   1.165  13.769   2.378
66975SOL    HW1 2699   1.103  13.714   2.427
66975SOL    HW2 2700   1.235  13.788   2.441
66976SOL     OW 2701   9.342   2.799   8.031
66976SOL    HW1 2702   9.410   2.866   8.035
66976SOL    HW2 2703   9.335   2.767   8.121
66977SOL     OW 2704   6.917  14.663   3.110
66977SOL    HW1 2705   6.967  14.644   3.189
66977SOL    HW2 2706   6.967  14.730   3.064
66978SOL     OW 2707   8.430   0.826   1.454
66978SOL    HW1 2708   8.377   0.863   1.525
66978SOL    HW2 2709   8.519   0.855   1.473
66979SOL     OW 2710   3.067   0.405   0.890
66979SOL    HW1 2711   3.121   0.484   0.885
66979SOL    HW2 2712   2.989   0.433   0.939
66980SOL     OW 2713   7.198  11.847   7.443
66980SOL    HW1 2714   7.134  11.787   7.404
66980SOL    HW2 2715   7.154  11.932   7.443
66981SOL     OW 2716   0.001   6.783  13.430
66981SOL    HW1 2717   0.008   6.856  13.368
66981SOL    HW2 2718  14.795   6.798  13.475
66982SOL     OW 2719  12.012  14.297  13.077
66982SOL    HW1 2720  12.067  14.226  13.112
66982SOL    HW2 2721  11.954  14.320  13.150
66983SOL     OW 2722  14.305   5.367   4.241
66983SOL    HW1 2723  14.313   5.291   4.298
66983SOL    HW2 2724  14.277   5.438   4.299
66984SOL     OW 2725   6.348   3.105   7.505
66984SOL    HW1 2726   6.342   3.016   7.539
66984SOL    HW2 2727   6.275   3.152   7.546
66985SOL     OW 2728   0.217   8.342  11.674
66985SOL    HW1 2729   0.281   8.272  11.686
66985SOL    HW2 2730   0.137   8.297  11.647
66986SOL     OW 2731  10.213   9.635   3.986
66986SOL    HW1 2732  10.171   9.554   4.016
66986SOL    HW2 2733  10.151   9.704   4.010
66987SOL     OW 2734   0.439   5.395   8.691
66987SOL    HW1 2735   0.471   5.474   8.648
66987SOL    HW2 2736   0.409   5.425   8.777
66988SOL     OW 2737   5.753   2.548  12.524
66988SOL    HW1 2738   5.747   2.643  12.533
66988SOL    HW2 2739   5.707   2.514  12.601
66989SOL     OW 2740   5.898  11.685  13.785
66989SOL    HW1 2741   5.975  11.710  13.837
66989SOL    HW2 2742   5.872  11.600  13.820
66990SOL     OW 2743   5.019  11.222   8.125
66990SOL    HW1 2744   4.973  11.141   8.105
66990SOL    HW2 2745   4.978  11.254   8.205
66991SOL     OW 2746  11.761   7.376   6.964
66991SOL    HW1 2747  11.774   7.418   7.050
66991SOL    HW2 2748  11.706   7.438   6.916
66992SOL     OW 2749   2.301   7.613   7.457
66992SOL    HW1 2750   2.256   7.590   7.375
66992SOL    HW2 2751   2.393   7.590   7.441
66993SOL     OW 2752  13.395  10.091   7.921
66993SOL    HW1 2753  13.312  10.138   7.917
66993SOL    HW2 2754  13.369   9.998   7.922
66994SOL     OW 2755   1.940  12.504  12.312
66994SOL    HW1 2756   1.920  12.597  12.323
66994SOL    HW2 2757   1.957  12.495  12.218
66995SOL     OW 2758   0.737   5.923   2.844
66995SOL    HW1 2759   0.773   5.842   2.881
66995SOL    HW2 2760   0.685   5.894   2.769
66996SOL     OW 2761   7.405   3.977   0.445
66996SOL    HW1 2762   7.444   3.927   0.517
66996SOL    HW2 2763   7.476   4.032   0.413
66997SOL     OW 2764  10.799  11.106  10.441
66997SOL    HW1 2765  10.850  11.172  10.396
66997SOL    HW2 2766  10.709  11.122  10.413
66998SOL     OW 2767  14.696   8.369   0.532
66998SOL    HW1 2768  14.622   8.431   0.530
66998SOL    HW2 2769  14.693   8.326   0.447
66999SOL     OW 2770  10.776   2.891   9.444
66999SOL    HW1 2771  10.782   2.796   9.451
66999SOL    HW2 2772  10.837   2.914   9.374
67000SOL     OW 2773   7.385   2.953  10.871
67000SOL    HW1 2774   7.466   2.950  10.922
67000SOL    HW2 2775   7.335   2.877  10.901
67001SOL     OW 2776   2.882  11.403   4.090
67001SOL    HW1 2777   2.823  11.421   4.017
67001SOL    HW2 2778   2.858  11.315   4.118
67002SOL     OW 2779  14.442   4.681   6.332
67002SOL    HW1 2780  14.519   4.737   6.337
67002SOL    HW2 2781  14.372   4.733   6.373
67003SOL     OW 2782   6.653  14.101  11.251
67003SOL    HW1 2783   6.632  14.194  11.256
67003SOL    HW2 2784   6.589  14.058  11.308
67004SOL     OW 2785   7.104   6.669   6.785
67004SOL    HW1 2786   7.194   6.638   6.798
67004SOL    HW2 2787   7.104   6.758   6.821
67005SOL     OW 2788   4.885   9.702  12.726
67005SOL    HW1 2789   4.820   9.672  12.662
67005SOL    HW2 2790   4.946   9.756  12.675
67006SOL     OW 2791   1.943  13.811   1.973
67006SOL    HW1 2792   1.981  13.776   1.893
67006SOL    HW2 2793   1.913  13.899   1.949
67007SOL     OW 2794  10.670  11.205   7.720
67007SOL    HW1 2795  10.588  11.160   7.741
67007SOL    HW2 2796  10.715  11.145   7.661
67008SOL     OW 2797  14.646   0.859   2.251
67008SOL    HW1 2798  14.578   0.803   2.289
67008SOL    HW2 2799  14.713   0.798   2.221
67009SOL     OW 2800  14.627  14.185  12.229
67009SOL    HW1 2801  14.623  14.280  12.240
67009SOL    HW2 2802  14.540  14.162  12.196
67010SOL     OW 2803   7.259   5.303   1.921
67010SOL    HW1 2804   7.280   5.281   1.830
67010SOL    HW2 2805   7.215   5.388   1.916
67011SOL     OW 2806   4.082   0.458  10.973
67011SOL    HW1 2807   4.109   0.366  10.983
67011SOL    HW2 2808   3.986   0.456  10.982
67012SOL     OW 2809   1.419   3.730  12.429
67012SOL    HW1 2810   1.497   3.759  12.383
67012SOL    HW2 2811   1.447   3.655  12.480
67013SOL     OW 2812  11.865   4.657   1.397
67013SOL    HW1 2813  11.881   4.586   1.335
67013SOL    HW2 2814  11.925   4.727   1.369
67014SOL     OW 2815  10.105   5.175  10.687
67014SOL    HW1 2816  10.110   5.271  10.687
67014SOL    HW2 2817  10.090   5.152  10.595
67015SOL     OW 2818  14.286   9.508   9.316
67015SOL    HW1 2819  14.324   9.432   9.271
67015SOL    HW2 2820  14.345   9.524   9.390
67016SOL     OW 2821   1.558   9.670  12.809
67016SOL    HW1 2822   1.604   9.605  12.756
67016SOL    HW2 2823   1.565   9.751  12.758
67017SOL     OW 2824  12.404  12.334  13.476
67017SOL    HW1 2825  12.314  12.311  13.455
67017SOL    HW2 2826  12.406  12.430  13.470
67018SOL     OW 2827   5.894   4.754   5.433
67018SOL    HW1 2828   5.799   4.754   5.447
67018SOL    HW2 2829   5.910   4.834   5.383
67019SOL     OW 2830   3.184   6.033  11.307
67019SOL    HW1 2831   3.203   6.044  11.400
67019SOL    HW2 2832   3.184   6.122  11.272
67020SOL     OW 2833   1.289   4.791   8.395
67020SOL    HW1 2834   1.208   4.827   8.429
67020SOL    HW2 2835   1.354   4.860   8.409
67021SOL     OW 2836  11.693   6.303  10.823
67021SOL    HW1 2837  11.744   6.380  10.849
67021SOL    HW2 2838  11.630   6.291  10.895
67022SOL     OW 2839  10.727  11.429   0.743
67022SOL    HW1 2840  10.692  11.452   0.657
67022SOL    HW2 2841  10.822  11.437   0.732
67023SOL     OW 2842   5.887   5.028   2.283
67023SOL    HW1 2843   5.964   5.084   2.286
67023SOL    HW2 2844   5.882   4.988   2.370
67024SOL     OW 2845  12.015   8.597  12.767
67024SOL    HW1 2846  12.006   8.674  12.823
67024SOL    HW2 2847  11.978   8.526  12.818
67025SOL     OW 2848  10.812   8.706   4.527
67025SOL    HW1 2849  10.778   8.618   4.544
67025SOL    HW2 2850  10.748   8.764   4.568
67026SOL     OW 2851  10.102   1.685   4.714
67026SOL    HW1 2852  10.118   1.591   4.719
67026SOL    HW2 2853  10.017   1.693   4.670
67027SOL     OW 2854  11.373   1.354   1.793
67027SOL    HW1 2855  11.383   1.366   1.887
67027SOL    HW2 2856  11.330   1.270   1.783
67028SOL     OW 2857   5.792   0.360   1.486
67028SOL    HW1 2858   5.828   0.327   1.404
67028SOL    HW2 2859   5.751   0.443   1.462
67029SOL     OW 2860   8.639  14.866   1.886
67029SOL    HW1 2861   8.668   0.075   1.912
67029SOL    HW2 2862   8.564  14.848   1.942
67030SOL     OW 2863  14.163  11.482  12.003
67030SOL    HW1 2864  14.137  11.392  11.984
67030SOL    HW2 2865  14.178  11.521  11.917
67031SOL     OW 2866  10.891  12.252   3.254
67031SOL    HW1 2867  10.969  12.208   3.288
67031SOL    HW2 2868  10.842  12.183   3.210
67032SOL     OW 2869   2.342   7.363  11.424
67032SOL    HW1 2870   2.336   7.418  11.502
67032SOL    HW2 2871   2.404   7.409  11.367
67033SOL     OW 2872   9.371   6.112   5.439
67033SOL    HW1 2873   9.452   6.162   5.448
67033SOL    HW2 2874   9.366   6.090   5.346
67034SOL     OW 2875  12.658   0.572  14.657
67034SOL    HW1 2876  12.725   0.503  14.662
67034SOL    HW2 2877  12.662   0.602  14.566
67035SOL     OW 2878  11.664   0.388   9.735
67035SOL    HW1 2879  11.735   0.449   9.755
67035SOL    HW2 2880  11.641   0.349   9.820
67036SOL     OW 2881   1.962   4.994  13.576
67036SOL    HW1 2882   1.969   4.982  13.671
67036SOL    HW2 2883   2.047   4.964  13.542
67037SOL     OW 2884   6.341   4.541  10.353
67037SOL    HW1 2885   6.329   4.636  10.355
67037SOL    HW2 2886   6.392   4.525  10.274
67038SOL     OW 2887   0.328   6.587   3.694
67038SOL    HW1 2888   0.244   6.620   3.728
67038SOL    HW2 2889   0.378   6.666   3.674
67039SOL     OW 2890   3.822   0.138   8.814
67039SOL    HW1 2891   3.819   0.232   8.833
67039SOL    HW2 2892   3.843   0.097   8.898
67040SOL     OW 2893  14.468   9.140   1.248
67040SOL    HW1 2894  14.514   9.128   1.164
67040SOL    HW2 2895  14.528   9.104   1.313
67041SOL     OW 2896   8.382  12.205  10.962
67041SOL    HW1 2897   8.443  12.186  10.891
67041SOL    HW2 2898   8.299  12.168  10.934
67042SOL     OW 2899  13.488  12.074  11.739
67042SOL    HW1 2900  13.552  12.074  11.811
67042SOL    HW2 2901  13.444  11.989  11.747
67043SOL     OW 2902  11.226   0.872   2.148
67043SOL    HW1 2903  11.134   0.866   2.174
67043SOL    HW2 2904  11.269   0.801   2.196
67044SOL     OW 2905  14.708  12.865   4.190
67044SOL    HW1 2906  14.619  12.896   4.171
67044SOL    HW2 2907  14.707  12.844   4.284
67045SOL     OW 2908   9.042  12.824  13.168
67045SOL    HW1 2909   9.100  12.766  13.217
67045SOL    HW2 2910   9.085  12.836  13.084
67046SOL     OW 2911   5.395   3.163   6.666
67046SOL    HW1 2912   5.422   3.089   6.721
67046SOL    HW2 2913   5.322   3.202   6.715
67047SOL     OW 2914  11.655   3.803  13.428
67047SOL    HW1 2915  11.618   3.891  13.419
67047SOL    HW2 2916  11.693   3.802  13.516
67048SOL     OW 2917   3.427  13.750  11.066
67048SOL    HW1 2918   3.447  13.807  10.992
67048SOL    HW2 2919   3.406  13.809  11.138
67049SOL     OW 2920  13.222  13.650   0.443
67049SOL    HW1 2921  13.248  13.592   0.515
67049SOL    HW2 2922  13.299  13.705   0.428
67050SOL     OW 2923  13.628  12.041   6.124
67050SOL    HW1 2924  13.611  12.009   6.035
67050SOL    HW2 2925  13.586  12.127   6.126
67051SOL     OW 2926   7.173   7.096   9.914
67051SOL    HW1 2927   7.111   7.131   9.851
67051SOL    HW2 2928   7.232   7.169   9.934
67052SOL     OW 2929   3.195   8.770   1.036
67052SOL    HW1 2930   3.140   8.745   1.110
67052SOL    HW2 2931   3.189   8.696   0.976
67053SOL     OW 2932  14.073  12.237  10.962
67053SOL    HW1 2933  14.138  12.200  10.902
67053SOL    HW2 2934  14.123  12.258  11.041
67054SOL     OW 2935   4.668  14.347   7.144
67054SOL    HW1 2936   4.751  14.305   7.125
67054SOL    HW2 2937   4.681  14.438   7.118
67055SOL     OW 2938   0.446   0.139   5.487
67055SOL    HW1 2939   0.368   0.186   5.515
67055SOL    HW2 2940   0.517   0.179   5.537
67056SOL     OW 2941   9.657  10.484   4.783
67056SOL    HW1 2942   9.643  10.480   4.878
67056SOL    HW2 2943   9.750  10.462   4.772
67057SOL     OW 2944  12.127   9.418   9.213
67057SOL    HW1 2945  12.130   9.364   9.134
67057SOL    HW2 2946  12.201   9.479   9.203
67058SOL     OW 2947   3.108  10.461  10.834
67058SOL    HW1 2948   3.112  10.395  10.903
67058SOL    HW2 2949   3.197  10.498  10.832
67059SOL     OW 2950   5.059   1.297   9.334
67059SOL    HW1 2951   5.154   1.293   9.320
67059SOL    HW2 2952   5.025   1.336   9.253
67060SOL     OW 2953   0.732   4.571  13.351
67060SOL    HW1 2954   0.644   4.607  13.351
67060SOL    HW2 2955   0.745   4.539  13.441
67061SOL     OW 2956   4.151  11.876  10.666
67061SOL    HW1 2957   4.153  11.787  10.631
67061SOL    HW2 2958   4.083  11.920  10.616
67062SOL     OW 2959   3.179   8.187  10.853
67062SOL    HW1 2960   3.113   8.184  10.922
67062SOL    HW2 2961   3.159   8.268  10.805
67063SOL     OW 2962   2.397   8.399   0.098
67063SOL    HW1 2963   2.345   8.319   0.102
67063SOL    HW2 2964   2.340   8.463   0.055
67064SOL     OW 2965   5.198   4.682   7.257
67064SOL    HW1 2966   5.210   4.624   7.332
67064SOL    HW2 2967   5.111   4.719   7.269
67065SOL     OW 2968   1.041   7.014   1.796
67065SOL    HW1 2969   0.972   6.965   1.751
67065SOL    HW2 2970   1.105   6.947   1.821
67066SOL     OW 2971   0.788   8.363   4.837
67066SOL    HW1 2972   0.829   8.338   4.755
67066SOL    HW2 2973   0.694   8.350   4.821
67067SOL     OW 2974   1.698   8.134   7.658
67067SOL    HW1 2975   1.775   8.180   7.689
67067SOL    HW2 2976   1.659   8.193   7.593
67068SOL     OW 2977  11.819   8.609  10.669
67068SOL    HW1 2978  11.769   8.682  10.705
67068SOL    HW2 2979  11.896   8.651  10.628
67069SOL     OW 2980   3.325   6.394   4.711
67069SOL    HW1 2981   3.314   6.468   4.651
67069SOL    HW2 2982   3.404   6.416   4.760
67070SOL     OW 2983   2.066   4.080   8.081
67070SOL    HW1 2984   2.055   4.166   8.121
67070SOL    HW2 2985   1.977   4.048   8.068
67071SOL     OW 2986   7.033  11.144   1.948
67071SOL    HW1 2987   7.128  11.147   1.941
67071SOL    HW2 2988   7.006  11.094   1.870
67072SOL     OW 2989   8.256  10.162   2.715
67072SOL    HW1 2990   8.210  10.191   2.795
67072SOL    HW2 2991   8.265  10.068   2.726
67073SOL     OW 2992  13.746  10.814   1.249
67073SOL    HW1 2993  13.771  10.813   1.342
67073SOL    HW2 2994  13.671  10.874   1.245
67074SOL     OW 2995  12.874   4.654  11.044
67074SOL    HW1 2996  12.888   4.738  11.088
67074SOL    HW2 2997  12.905   4.589  11.107
67075SOL     OW 2998  14.280   5.369  10.373
67075SOL    HW1 2999  14.232   5.441  10.414
67075SOL    HW2 3000  14.229   5.291  10.396
67076SOL     OW 3001   5.752  12.481   6.777
67076SOL    HW1 3002   5.659  12.474   6.758
67076SOL    HW2 3003   5.795  12.439   6.702
67077SOL     OW 3004   3.521   9.107   4.032
67077SOL    HW1 3005   3.438   9.154   4.034
67077SOL    HW2 3006   3.516   9.046   4.106
67078SOL     OW 3007  12.326  14.323   2.789
67078SOL    HW1 3008  12.401  14.374   2.758
67078SOL    HW2 3009  12.358  14.233   2.793
67079SOL     OW 3010  12.567  10.325   0.778
67079SOL    HW1 3011  12.660  10.323   0.799
67079SOL    HW2 3012  12.560  10.391   0.708
67080SOL     OW 3013   2.422   5.017   1.974
67080SOL    HW1 3014   2.418   5.111   1.957
67080SOL    HW2 3015   2.502   4.988   1.932
67081SOL     OW 3016   5.402   7.033   4.867
67081SOL    HW1 3017   5.415   6.988   4.950
67081SOL    HW2 3018   5.337   7.101   4.885
67082SOL     OW 3019   7.083  10.913   7.858
67082SOL    HW1 3020   7.133  10.956   7.789
67082SOL    HW2 3021   7.149  10.867   7.911
67083SOL     OW 3022   7.661   6.410   3.250
67083SOL    HW1 3023   7.663   6.472   3.324
67083SOL    HW2 3024   7.744   6.423   3.206
67084SOL     OW 3025  11.184   1.098   5.244
67084SOL    HW1 3026  11.125   1.154   5.295
67084SOL    HW2 3027  11.231   1.046   5.310
67085SOL     OW 3028   0.583  10.952   7.436
67085SOL    HW1 3029   0.625  10.913   7.513
67085SOL    HW2 3030   0.512  11.006   7.472
67086SOL     OW 3031   3.097  12.836  14.792
67086SOL    HW1 3032   3.176  12.873  14.832
67086SOL    HW2 3033   3.059  12.781  14.861
67087SOL     OW 3034  11.588   5.039   1.088
67087SOL    HW1 3035  11.555   4.950   1.080
67087SOL    HW2 3036  11.543   5.075   1.164
67088SOL     OW 3037   2.715   0.748   4.083
67088SOL    HW1 3038   2.798   0.762   4.039
67088SOL    HW2 3039   2.738   0.737   4.175
67089SOL     OW 3040   5.702  14.722  10.449
67089SOL    HW1 3041   5.677  14.719  10.356
67089SOL    HW2 3042   5.796  14.740  10.447
67090SOL     OW 3043   4.000  12.074  10.587
67090SOL    HW1 3044   3.986  12.150  10.645
67090SOL    HW2 3045   3.926  12.077  10.527
67091SOL     OW 3046  14.157  11.319   4.624
67091SOL    HW1 3047  14.252  11.328   4.629
67091SOL    HW2 3048  14.130  11.384   4.560
67092SOL     OW 3049  11.134  10.784  11.737
67092SOL    HW1 3050  11.160  10.704  11.782
67092SOL    HW2 3051  11.154  10.769  11.645
67093SOL     OW 3052   7.643  12.518   1.044
67093SOL    HW1 3053   7.647  12.518   0.948
67093SOL    HW2 3054   7.568  12.462   1.064
67094SOL     OW 3055   8.804   2.163  14.193
67094SOL    HW1 3056   8.857   2.125  14.263
67094SOL    HW2 3057   8.807   2.258  14.209
67095SOL     OW 3058   0.517   5.781   3.073
67095SOL    HW1 3059   0.460   5.840   3.024
67095SOL    HW2 3060   0.566   5.838   3.131
67096SOL     OW 3061   5.711   3.477   0.471
67096SOL    HW1 3062   5.743   3.387   0.469
67096SOL    HW2 3063   5.661   3.487   0.390
67097SOL     OW 3064  12.761   6.802  12.076
67097SOL    HW1 3065  12.736   6.766  11.991
67097SOL    HW2 3066  12.831   6.744  12.107
67098SOL     OW 3067   7.076  13.337   4.071
67098SOL    HW1 3068   7.144  13.271   4.061
67098SOL    HW2 3069   6.996  13.288   4.087
67099SOL     OW 3070   9.538   1.770   7.902
67099SOL    HW1 3071   9.443   1.781   7.912
67099SOL    HW2 3072   9.550   1.676   7.886
67100SOL     OW 3073   0.572   0.346   3.007
67100SOL    HW1 3074   0.659   0.355   2.968
67100SOL    HW2 3075   0.534   0.270   2.964
67101SOL     OW 3076   4.535   1.463  10.864
67101SOL    HW1 3077   4.491   1.407  10.800
67101SOL    HW2 3078   4.541   1.409  10.943
67102SOL     OW 3079  10.481   5.825  14.752
67102SOL    HW1 3080  10.510   5.744  14.795
67102SOL    HW2 3081  10.423   5.795  14.682
67103SOL     OW 3082   8.974  12.449   1.837
67103SOL    HW1 3083   8.900  12.480   1.888
67103SOL    HW2 3084   8.949  12.361   1.808
67104SOL     OW 3085  12.743   8.022   5.479
67104SOL    HW1 3086  12.653   7.993   5.465
67104SOL    HW2 3087  12.796   7.957   5.433
67105SOL     OW 3088  14.457  11.070   3.660
67105SOL    HW1 3089  14.506  11.138   3.614
67105SOL    HW2 3090  14.421  11.015   3.590
67106SOL     OW 3091   5.237   1.614  11.882
67106SOL    HW1 3092   5.286   1.583  11.805
67106SOL    HW2 3093   5.147   1.621  11.852
67107SOL     OW 3094   0.309  12.010   8.970
67107SOL    HW1 3095   0.403  11.995   8.975
67107SOL    HW2 3096   0.270  11.937   9.019
67108SOL     OW 3097  11.830   6.744  13.072
67108SOL    HW1 3098  11.778   6.800  13.013
67108SOL    HW2 3099  11.882   6.806  13.123
67109SOL     OW 3100   8.634   0.974  11.006
67109SOL    HW1 3101   8.605   1.042  11.067
67109SOL    HW2 3102   8.673   1.022  10.932
67110SOL     OW 3103   0.196   6.938   1.958
67110SOL    HW1 3104   0.265   6.876   1.934
67110SOL    HW2 3105   0.210   7.013   1.900
67111SOL     OW 3106   0.402   4.554  13.956
67111SOL    HW1 3107   0.352   4.559  13.875
67111SOL    HW2 3108   0.340   4.576  14.025
67112SOL     OW 3109   0.003   2.909   4.455
67112SOL    HW1 3110   0.070   2.958   4.407
67112SOL    HW2 3111  14.798   2.942   4.419
67113SOL     OW 3112  11.347  12.624   4.435
67113SOL    HW1 3113  11.387  12.634   4.521
67113SOL    HW2 3114  11.253  12.626   4.452
67114SOL     OW 3115  14.509  10.633   4.233
67114SOL    HW1 3116  14.526  10.724   4.258
67114SOL    HW2 3117  14.464  10.639   4.149
67115SOL     OW 3118   6.402   2.898   4.509
67115SOL    HW1 3119   6.491   2.930   4.494
67115SOL    HW2 3120   6.351   2.936   4.438
67116SOL     OW 3121   1.658  11.985   1.191
67116SOL    HW1 3122   1.654  11.908   1.247
67116SOL    HW2 3123   1.741  12.027   1.213
67117SOL     OW 3124  10.599   5.598  14.847
67117SOL    HW1 3125  10.594   5.634   0.058
67117SOL    HW2 3126  10.654   5.520  14.857
67118SOL     OW 3127   0.413   0.504  10.374
67118SOL    HW1 3128   0.492   0.511  10.427
67118SOL    HW2 3129   0.367   0.428  10.410
67119SOL     OW 3130   9.591  13.655   5.901
67119SOL    HW1 3131   9.533  13.686   5.970
67119SOL    HW2 3132   9.532  13.617   5.836
67120SOL     OW 3133  13.582  12.694  14.820
67120SOL    HW1 3134  13.619  12.656   0.022
67120SOL    HW2 3135  13.657  12.704  14.761
67121SOL     OW 3136   6.254   7.113   4.319
67121SOL    HW1 3137   6.312   7.135   4.245
67121SOL    HW2 3138   6.214   7.030   4.293
67122SOL     OW 3139   1.090   4.606   3.385
67122SOL    HW1 3140   1.027   4.587   3.455
67122SOL    HW2 3141   1.151   4.669   3.425
67123SOL     OW 3142   6.459   5.032   8.642
67123SOL    HW1 3143   6.439   4.949   8.685
67123SOL    HW2 3144   6.514   5.007   8.567
67124SOL     OW 3145   3.065   0.872   2.325
67124SOL    HW1 3146   3.152   0.885   2.363
67124SOL    HW2 3147   3.069   0.785   2.285
67125SOL     OW 3148   4.047  10.269  10.232
67125SOL    HW1 3149   3.964  10.276  10.185
67125SOL    HW2 3150   4.082  10.184  10.206
67126SOL     OW 3151   8.377   9.352  14.270
67126SOL    HW1 3152   8.457   9.330  14.318
67126SOL    HW2 3153   8.387   9.308  14.186
67127SOL     OW 3154  11.869  14.456  11.920
67127SOL    HW1 3155  11.949  14.445  11.971
67127SOL    HW2 3156  11.806  14.398  11.962
67128SOL     OW 3157  14.244  11.468   7.976
67128SOL    HW1 3158  14.197  11.433   7.900
67128SOL    HW2 3159  14.314  11.405   7.993
67129SOL     OW 3160   6.773   1.882  11.170
67129SOL    HW1 3161   6.860   1.901  11.134
67129SOL    HW2 3162   6.790   1.836  11.252
67130SOL     OW 3163  13.128  12.951   1.771
67130SOL    HW1 3164  13.171  12.879   1.726
67130SOL    HW2 3165  13.198  13.017   1.782
67131SOL     OW 3166   9.446  12.283   7.401
67131SOL    HW1 3167   9.497  12.286   7.482
67131SOL    HW2 3168   9.378  12.218   7.419
67132SOL     OW 3169  13.239   5.222  12.449
67132SOL    HW1 3170  13.329   5.193  12.460
67132SOL    HW2 3171  13.210   5.245  12.537
67133SOL     OW 3172  14.632  13.779   7.187
67133SOL    HW1 3173  14.692  13.799   7.116
67133SOL    HW2 3174  14.677  13.711   7.237
67134SOL     OW 3175  10.354   4.460   0.686
67134SOL    HW1 3176  10.372   4.452   0.592
67134SOL    HW2 3177  10.259   4.458   0.693
67135SOL     OW 3178   4.959  13.636   3.182
67135SOL    HW1 3179   4.902  13.656   3.256
67135SOL    HW2 3180   5.039  13.686   3.198
67136SOL     OW 3181   4.521  10.949  13.237
67136SOL    HW1 3182   4.510  11.019  13.173
67136SOL    HW2 3183   4.613  10.925  13.230
67137SOL     OW 3184   0.960   9.275   3.940
67137SOL    HW1 3185   1.001   9.190   3.929
67137SOL    HW2 3186   1.030   9.338   3.923
67138SOL     OW 3187   4.026   8.149   7.755
67138SOL    HW1 3188   4.103   8.171   7.703
67138SOL    HW2 3189   3.959   8.125   7.691
67139SOL     OW 3190  11.642   7.161   1.071
67139SOL    HW1 3191  11.599   7.245   1.055
67139SOL    HW2 3192  11.729   7.170   1.033
67140SOL     OW 3193   7.863   7.470   2.655
67140SOL    HW1 3194   7.890   7.502   2.741
67140SOL    HW2 3195   7.818   7.388   2.673
67141SOL     OW 3196   5.501   8.965   8.659
67141SOL    HW1 3197   5.450   9.044   8.642
67141SOL    HW2 3198   5.581   8.997   8.700
67142SOL     OW 3199   8.597  14.498  13.074
67142SOL    HW1 3200   8.671  14.467  13.127
67142SOL    HW2 3201   8.632  14.505  12.985
67143SOL     OW 3202  13.810  11.605  13.764
67143SOL    HW1 3203  13.732  11.582  13.814
67143SOL    HW2 3204  13.883  11.571  13.815
67144SOL     OW 3205   6.425   2.138   8.746
67144SOL    HW1 3206   6.340   2.174   8.772
67144SOL    HW2 3207   6.479   2.148   8.824
67145SOL     OW 3208  13.180  11.990   3.889
67145SOL    HW1 3209  13.248  11.966   3.952
67145SOL    HW2 3210  13.212  11.956   3.805
67146SOL     OW 3211   7.041  11.847   1.099
67146SOL    HW1 3212   6.979  11.866   1.029
67146SOL    HW2 3213   7.127  11.855   1.059
67147SOL     OW 3214  11.499   7.915   0.674
67147SOL    HW1 3215  11.452   7.936   0.754
67147SOL    HW2 3216  11.433   7.926   0.605
67148SOL     OW 3217   8.915   6.746  10.408
67148SOL    HW1 3218   9.009   6.738  10.391
67148SOL    HW2 3219   8.877   6.763  10.322
67149SOL     OW 3220   7.547   5.330  12.016
67149SOL    HW1 3221   7.549   5.326  11.920
67149SOL    HW2 3222   7.543   5.423  12.036
67150SOL     OW 3223   0.089   5.123   4.592
67150SOL    HW1 3224   0.015   5.084   4.546
67150SOL    HW2 3225   0.055   5.204   4.630
67151SOL     OW 3226   1.588  11.032  14.507
67151SOL    HW1 3227   1.539  10.951  14.521
67151SOL    HW2 3228   1.625  11.052  14.593
67152SOL     OW 3229   4.612   7.454  11.881
67152SOL    HW1 3230   4.549   7.415  11.820
67152SOL    HW2 3231   4.696   7.415  11.856
67153SOL     OW 3232   1.989   8.459   4.097
67153SOL    HW1 3233   1.966   8.403   4.171
67153SOL    HW2 3234   1.998   8.398   4.023
67154SOL     OW 3235   9.452   5.064  10.245
67154SOL    HW1 3236   9.410   5.105  10.321
67154SOL    HW2 3237   9.446   5.129  10.176
67155SOL     OW 3238  12.868  10.362  14.606
67155SOL    HW1 3239  12.868  10.426  14.677
67155SOL    HW2 3240  12.908  10.408  14.532
67156SOL     OW 3241   8.154   4.738  14.018
67156SOL    HW1 3242   8.090   4.807  14.007
67156SOL    HW2 3243   8.238   4.780  13.999
67157SOL     OW 3244   5.347   0.470   0.763
67157SOL    HW1 3245   5.358   0.522   0.843
67157SOL    HW2 3246   5.255   0.446   0.762
67158SOL     OW 3247  11.320   1.797  10.654
67158SOL    HW1 3248  11.306   1.725  10.591
67158SOL    HW2 3249  11.400   1.772  10.700
67159SOL     OW 3250   9.586   1.588   0.149
67159SOL    HW1 3251   9.653   1.542   0.098
67159SOL    HW2 3252   9.620   1.585   0.239
67160SOL     OW 3253   7.592   5.414  11.765
67160SOL    HW1 3254   7.587   5.509  11.758
67160SOL    HW2 3255   7.506   5.384  11.734
67161SOL     OW 3256   1.489   6.709   7.459
67161SOL    HW1 3257   1.573   6.707   7.506
67161SOL    HW2 3258   1.428   6.750   7.520
67162SOL     OW 3259  11.344  12.788  10.299
67162SOL    HW1 3260  11.258  12.806  10.336
67162SOL    HW2 3261  11.391  12.871  10.305
67163SOL     OW 3262   0.709   9.533  11.147
67163SOL    HW1 3263   0.699   9.501  11.236
67163SOL    HW2 3264   0.665   9.618  11.147
67164SOL     OW 3265   0.648  12.654   7.002
67164SOL    HW1 3266   0.657  12.653   7.098
67164SOL    HW2 3267   0.601  12.735   6.983
67165SOL     OW 3268   3.922   2.241  12.941
67165SOL    HW1 3269   3.837   2.268  12.976
67165SOL    HW2 3270   3.957   2.320  12.899
67166SOL     OW 3271   5.851  12.606   2.061
67166SOL    HW1 3272   5.926  12.549   2.081
67166SOL    HW2 3273   5.878  12.693   2.093
67167SOL     OW 3274   6.319   9.950  14.240
67167SOL    HW1 3275   6.367   9.896  14.302
67167SOL    HW2 3276   6.320   9.901  14.158
67168SOL     OW 3277   6.301  11.530   2.415
67168SOL    HW1 3278   6.270  11.465   2.352
67168SOL    HW2 3279   6.256  11.610   2.390
67169SOL     OW 3280   1.846   4.985   3.494
67169SOL    HW1 3281   1.838   4.890   3.485
67169SOL    HW2 3282   1.872   5.015   3.407
67170SOL     OW 3283   4.973   5.440   4.350
67170SOL    HW1 3284   4.985   5.528   4.388
67170SOL    HW2 3285   4.942   5.387   4.424
67171SOL     OW 3286  12.095  10.540  11.484
67171SOL    HW1 3287  12.059  10.513  11.568
67171SOL    HW2 3288  12.072  10.470  11.423
67172SOL     OW 3289  13.580   5.513   8.796
67172SOL    HW1 3290  13.575   5.515   8.701
67172SOL    HW2 3291  13.582   5.420   8.818
67173SOL     OW 3292  10.660   7.093  14.733
67173SOL    HW1 3293  10.669   7.027  14.664
67173SOL    HW2 3294  10.589   7.061  14.788
67174SOL     OW 3295  13.720   7.884   2.956
67174SOL    HW1 3296  13.767   7.962   2.984
67174SOL    HW2 3297  13.705   7.896   2.862
67175SOL     OW 3298  14.369   4.332   3.485
67175SOL    HW1 3299  14.445   4.332   3.426
67175SOL    HW2 3300  14.320   4.411   3.461
67176SOL     OW 3301  10.439   0.559   1.464
67176SOL    HW1 3302  10.478   0.618   1.528
67176SOL    HW2 3303  10.505   0.492   1.449
67177SOL     OW 3304   9.344  13.423  12.125
67177SOL    HW1 3305   9.366  13.503  12.173
67177SOL    HW2 3306   9.332  13.356  12.192
67178SOL     OW 3307  13.456   4.050   1.273
67178SOL    HW1 3308  13.438   3.956   1.274
67178SOL    HW2 3309  13.431   4.081   1.360
67179SOL     OW 3310   9.040   6.983   4.751
67179SOL    HW1 3311   9.117   7.022   4.710
67179SOL    HW2 3312   9.013   7.047   4.817
67180SOL     OW 3313  10.747   8.542   2.214
67180SOL    HW1 3314  10.813   8.474   2.227
67180SOL    HW2 3315  10.707   8.554   2.300
67181SOL     OW 3316   9.503   3.108   6.294
67181SOL    HW1 3317   9.409   3.093   6.304
67181SOL    HW2 3318   9.537   3.111   6.383
67182SOL     OW 3319   8.513   3.869   4.033
67182SOL    HW1 3320   8.514   3.832   3.945
67182SOL    HW2 3321   8.551   3.801   4.088
67183SOL     OW 3322  14.814   4.423   5.074
67183SOL    HW1 3323  14.782   4.332   5.071
67183SOL    HW2 3324   0.031   4.414   5.073
67184SOL     OW 3325   0.738   4.050   2.369
67184SOL    HW1 3326   0.792   3.976   2.339
67184SOL    HW2 3327   0.648   4.022   2.352
67185SOL     OW 3328   9.823   5.248  14.421
67185SOL    HW1 3329   9.735   5.281  14.406
67185SOL    HW2 3330   9.875   5.325  14.443
67186SOL     OW 3331  10.399  10.774   6.905
67186SOL    HW1 3332  10.428  10.684   6.915
67186SOL    HW2 3333  10.416  10.795   6.814
67187SOL     OW 3334  12.200   5.527  11.197
67187SOL    HW1 3335  12.144   5.488  11.264
67187SOL    HW2 3336  12.153   5.512  11.115
67188SOL     OW 3337  11.087   7.137  11.423
67188SOL    HW1 3338  11.015   7.118  11.483
67188SOL    HW2 3339  11.077   7.074  11.352
67189SOL     OW 3340   0.001  10.724   7.040
67189SOL    HW1 3341  14.875  10.656   6.973
67189SOL    HW2 3342   0.021  10.805   6.992
67190SOL     OW 3343   3.487   6.833  10.315
67190SOL    HW1 3344   3.460   6.870  10.400
67190SOL    HW2 3345   3.444   6.888  10.250
67191SOL     OW 3346   0.782   7.605   5.824
67191SOL    HW1 3347   0.859   7.553   5.844
67191SOL    HW2 3348   0.768   7.593   5.730
67192SOL     OW 3349  13.554   7.933   3.709
67192SOL    HW1 3350  13.624   7.998   3.710
67192SOL    HW2 3351  13.502   7.955   3.632
67193SOL     OW 3352   1.691   7.307   2.985
67193SOL    HW1 3353   1.767   7.355   2.952
67193SOL    HW2 3354   1.719   7.216   2.988
67194SOL     OW 3355  13.300   6.689   7.360
67194SOL    HW1 3356  13.261   6.650   7.283
67194SOL    HW2 3357  13.317   6.780   7.335
67195SOL     OW 3358   3.324  12.583   2.508
67195SOL    HW1 3359   3.309  12.495   2.473
67195SOL    HW2 3360   3.313  12.641   2.433
67196SOL     OW 3361   6.991   4.187  13.052
67196SOL    HW1 3362   6.936   4.207  13.128
67196SOL    HW2 3363   6.933   4.199  12.977
67197SOL     OW 3364   4.892  12.533   4.480
67197SOL    HW1 3365   4.900  12.510   4.387
67197SOL    HW2 3366   4.799  12.551   4.492
67198SOL     OW 3367   9.786  12.789   5.878
67198SOL    HW1 3368   9.873  12.752   5.864
67198SOL    HW2 3369   9.725  12.717   5.862
67199SOL     OW 3370  11.520   0.551   9.406
67199SOL    HW1 3371  11.543   0.479   9.464
67199SOL    HW2 3372  11.424   0.556   9.410
67200SOL     OW 3373   3.552  10.411  13.352
67200SOL    HW1 3374   3.583  10.456  13.274
67200SOL    HW2 3375   3.563  10.474  13.423
67201SOL     OW 3376   7.119   2.060  12.632
67201SOL    HW1 3377   7.161   1.974  12.626
67201SOL    HW2 3378   7.179   2.111  12.686
67202SOL     OW 3379   7.962   4.081   6.883
67202SOL    HW1 3380   7.953   4.141   6.957
67202SOL    HW2 3381   7.923   3.999   6.914
67203SOL     OW 3382   6.716  14.092   3.123
67203SOL    HW1 3383   6.806  14.100   3.156
67203SOL    HW2 3384   6.712  14.153   3.049
67204SOL     OW 3385  13.077   7.330   9.509
67204SOL    HW1 3386  13.015   7.276   9.559
67204SOL    HW2 3387  13.067   7.301   9.419
67205SOL     OW 3388   5.632  12.518  14.003
67205SOL    HW1 3389   5.625  12.547  14.094
67205SOL    HW2 3390   5.723  12.535  13.979
67206SOL     OW 3391   6.564   0.487  14.497
67206SOL    HW1 3392   6.559   0.524  14.585
67206SOL    HW2 3393   6.520   0.552  14.442
67207SOL     OW 3394   2.064   0.166   1.172
67207SOL    HW1 3395   1.970   0.157   1.189
67207SOL    HW2 3396   2.069   0.225   1.097
67208SOL     OW 3397  14.619   1.559  12.655
67208SOL    HW1 3398  14.577   1.527  12.734
67208SOL    HW2 3399  14.713   1.552  12.673
67209SOL     OW 3400  13.181   6.380   8.735
67209SOL    HW1 3401  13.123   6.351   8.664
67209SOL    HW2 3402  13.226   6.456   8.699
67210SOL     OW 3403  12.247   0.249   2.603
67210SOL    HW1 3404  12.213   0.222   2.518
67210SOL    HW2 3405  12.196   0.196   2.666
67211SOL     OW 3406   3.640  14.147  14.057
67211SOL    HW1 3407   3.551  14.181  14.060
67211SOL    HW2 3408   3.694  14.216  14.096
67212SOL     OW 3409   5.589   6.070   4.977
67212SOL    HW1 3410   5.675   6.053   4.940
67212SOL    HW2 3411   5.559   5.985   5.009
67213SOL     OW 3412   9.935   9.912  13.769
67213SOL    HW1 3413  10.013   9.938  13.818
67213SOL    HW2 3414   9.960   9.829  13.728
67214SOL     OW 3415   3.971  10.067  14.370
67214SOL    HW1 3416   3.930  10.150  14.394
67214SOL    HW2 3417   3.923  10.002  14.422
67215SOL     OW 3418   4.286  11.066   2.247
67215SOL    HW1 3419   4.205  11.031   2.284
67215SOL    HW2 3420   4.278  11.052   2.153
67216SOL     OW 3421  10.974  14.828  11.386
67216SOL    HW1 3422  10.929  14.823  11.470
67216SOL    HW2 3423  10.979   0.044  11.367
67217SOL     OW 3424   6.153  11.989  10.326
67217SOL    HW1 3425   6.231  11.941  10.354
67217SOL    HW2 3426   6.168  12.007  10.233
67218SOL     OW 3427   6.960  14.336  12.226
67218SOL    HW1 3428   7.008  14.276  12.170
67218SOL    HW2 3429   6.887  14.367  12.171
67219SOL     OW 3430   9.340  12.750   6.414
67219SOL    HW1 3431   9.412  12.792   6.367
67219SOL    HW2 3432   9.272  12.819   6.418
67220SOL     OW 3433   2.834  13.058  13.530
67220SOL    HW1 3434   2.840  13.067  13.435
67220SOL    HW2 3435   2.909  13.107  13.563
67221SOL     OW 3436   5.027   3.527   9.860
67221SOL    HW1 3437   5.118   3.513   9.836
67221SOL    HW2 3438   5.005   3.612   9.820
67222SOL     OW 3439  13.277  12.075   0.634
67222SOL    HW1 3440  13.261  12.144   0.699
67222SOL    HW2 3441  13.212  12.008   0.654
67223SOL     OW 3442   5.341   6.422   6.974
67223SOL    HW1 3443   5.340   6.493   6.910
67223SOL    HW2 3444   5.272   6.445   7.036
67224SOL     OW 3445  14.572   8.429   1.646
67224SOL    HW1 3446  14.514   8.378   1.590
67224SOL    HW2 3447  14.627   8.479   1.585
67225SOL     OW 3448   0.996   2.257  10.189
67225SOL    HW1 3449   1.074   2.274  10.242
67225SOL    HW2 3450   0.925   2.248  10.252
67226SOL     OW 3451   1.951   6.138  10.819
67226SOL    HW1 3452   2.011   6.212  10.824
67226SOL    HW2 3453   1.864   6.177  10.832
67227SOL     OW 3454   7.068   7.695   1.542
67227SOL    HW1 3455   7.100   7.615   1.500
67227SOL    HW2 3456   7.147   7.748   1.556
67228SOL     OW 3457   7.296   4.923   4.086
67228SOL    HW1 3458   7.374   4.867   4.088
67228SOL    HW2 3459   7.274   4.931   3.993
67229SOL     OW 3460  12.871  14.080   9.159
67229SOL    HW1 3461  12.852  14.062   9.068
67229SOL    HW2 3462  12.911  14.167   9.159
67230SOL     OW 3463  14.000   8.190  11.552
67230SOL    HW1 3464  14.081   8.143  11.537
67230SOL    HW2 3465  13.945   8.169  11.476
67231SOL     OW 3466   2.644  11.088   3.657
67231SOL    HW1 3467   2.721  11.129   3.696
67231SOL    HW2 3468   2.657  10.994   3.669
67232SOL     OW 3469   9.421   6.409   7.066
67232SOL    HW1 3470   9.390   6.351   6.997
67232SOL    HW2 3471   9.350   6.410   7.131
67233SOL     OW 3472   8.492   8.570   8.456
67233SOL    HW1 3473   8.422   8.634   8.466
67233SOL    HW2 3474   8.541   8.575   8.538
67234SOL     OW 3475   7.416   0.229  10.551
67234SOL    HW1 3476   7.420   0.134  10.552
67234SOL    HW2 3477   7.387   0.253  10.639
67235SOL     OW 3478   6.621   3.160   0.296
67235SOL    HW1 3479   6.532   3.149   0.260
67235SOL    HW2 3480   6.635   3.254   0.296
67236SOL     OW 3481   7.081   3.036  14.298
67236SOL    HW1 3482   7.122   2.986  14.369
67236SOL    HW2 3483   7.009   2.982  14.269
67237SOL     OW 3484   3.346   9.835  14.489
67237SOL    HW1 3485   3.319   9.773  14.557
67237SOL    HW2 3486   3.265   9.858  14.444
67238SOL     OW 3487   7.566   2.297   7.869
67238SOL    HW1 3488   7.546   2.317   7.777
67238SOL    HW2 3489   7.491   2.247   7.900
67239SOL     OW 3490   7.697   2.339   5.595
67239SOL    HW1 3491   7.617   2.390   5.597
67239SOL    HW2 3492   7.707   2.306   5.685
67240SOL     OW 3493   8.126   2.949   7.766
67240SOL    HW1 3494   8.045   2.953   7.715
67240SOL    HW2 3495   8.125   2.862   7.806
67241SOL     OW 3496   9.055   7.356   9.734
67241SOL    HW1 3497   8.973   7.383   9.773
67241SOL    HW2 3498   9.066   7.413   9.658
67242SOL     OW 3499   1.285   4.807  12.258
67242SOL    HW1 3500   1.375   4.818  12.229
67242SOL    HW2 3501   1.286   4.835  12.350
67243SOL     OW 3502  14.079   3.713   9.267
67243SOL    HW1 3503  14.065   3.794   9.218
67243SOL    HW2 3504  14.173   3.712   9.285
67244SOL     OW 3505   2.160   4.608   6.806
67244SOL    HW1 3506   2.148   4.676   6.740
67244SOL    HW2 3507   2.119   4.644   6.885
67245SOL     OW 3508   9.669  12.710  12.694
67245SOL    HW1 3509   9.637  12.628  12.657
67245SOL    HW2 3510   9.740  12.736  12.636
67246SOL     OW 3511  13.193   6.657   3.112
67246SOL    HW1 3512  13.246   6.599   3.167
67246SOL    HW2 3513  13.115   6.675   3.164
67247SOL     OW 3514   8.645   3.152   2.841
67247SOL    HW1 3515   8.622   3.161   2.749
67247SOL    HW2 3516   8.584   3.209   2.887
67248SOL     OW 3517   5.751  13.098   1.191
67248SOL    HW1 3518   5.659  13.122   1.185
67248SOL    HW2 3519   5.797  13.181   1.207
67249SOL     OW 3520   1.096   6.387   8.643
67249SOL    HW1 3521   1.031   6.375   8.573
67249SOL    HW2 3522   1.148   6.306   8.641
67250SOL     OW 3523   2.312   2.931   8.232
67250SOL    HW1 3524   2.283   3.020   8.215
67250SOL    HW2 3525   2.407   2.934   8.223
67251SOL     OW 3526   2.784   0.786   7.826
67251SOL    HW1 3527   2.824   0.699   7.829
67251SOL    HW2 3528   2.833   0.837   7.891
67252SOL     OW 3529   3.920   4.660  10.309
67252SOL    HW1 3530   3.989   4.717  10.342
67252SOL    HW2 3531   3.853   4.661  10.378
67253SOL     OW 3532  10.734   5.368   5.601
67253SOL    HW1 3533  10.790   5.407   5.534
67253SOL    HW2 3534  10.743   5.427   5.676
67254SOL     OW 3535  10.156   2.588  10.343
67254SOL    HW1 3536  10.204   2.529  10.286
67254SOL    HW2 3537  10.128   2.660  10.285
67255SOL     OW 3538   5.957   9.306  11.881
67255SOL    HW1 3539   6.017   9.277  11.949
67255SOL    HW2 3540   5.953   9.233  11.819
67256SOL     OW 3541   1.581   8.615  11.566
67256SOL    HW1 3542   1.560   8.657  11.482
67256SOL    HW2 3543   1.507   8.556  11.581
67257SOL     OW 3544  12.377  10.594   4.300
67257SOL    HW1 3545  12.433  10.671   4.287
67257SOL    HW2 3546  12.361  10.591   4.394
67258SOL     OW 3547   0.482  12.372   4.027
67258SOL    HW1 3548   0.502  12.291   3.980
67258SOL    HW2 3549   0.533  12.366   4.107
67259SOL     OW 3550   6.837  14.818   0.451
67259SOL    HW1 3551   6.860   0.029   0.477
67259SOL    HW2 3552   6.883  14.762   0.514
67260SOL     OW 3553  12.559  11.709  13.735
67260SOL    HW1 3554  12.636  11.737  13.685
67260SOL    HW2 3555  12.514  11.647  13.677
67261SOL     OW 3556   5.836   9.832  11.920
67261SOL    HW1 3557   5.762   9.804  11.974
67261SOL    HW2 3558   5.831   9.778  11.841
67262SOL     OW 3559   4.701   0.591  12.551
67262SOL    HW1 3560   4.690   0.664  12.612
67262SOL    HW2 3561   4.791   0.563  12.564
67263SOL     OW 3562  14.359  10.889   0.489
67263SOL    HW1 3563  14.414  10.874   0.567
67263SOL    HW2 3564  14.276  10.847   0.510
67264SOL     OW 3565   0.923   5.018   6.084
67264SOL    HW1 3566   0.971   5.092   6.047
67264SOL    HW2 3567   0.863   4.990   6.015
67265SOL     OW 3568   3.857   8.575   3.860
67265SOL    HW1 3569   3.781   8.580   3.918
67265SOL    HW2 3570   3.851   8.654   3.806
67266SOL     OW 3571  14.667  10.673   7.849
67266SOL    HW1 3572  14.732  10.652   7.783
67266SOL    HW2 3573  14.678  10.606   7.916
67267SOL     OW 3574  14.352   7.773   4.554
67267SOL    HW1 3575  14.424   7.711   4.550
67267SOL    HW2 3576  14.310   7.767   4.468
67268SOL     OW 3577   4.088   6.596   4.113
67268SOL    HW1 3578   4.075   6.519   4.168
67268SOL    HW2 3579   4.150   6.568   4.046
67269SOL     OW 3580   5.744  10.992  13.758
67269SOL    HW1 3581   5.649  10.979  13.770
67269SOL    HW2 3582   5.778  10.995  13.848
67270SOL     OW 3583   2.527  13.789   5.387
67270SOL    HW1 3584   2.441  13.755   5.411
67270SOL    HW2 3585   2.588  13.746   5.446
67271SOL     OW 3586  13.435   5.823   3.030
67271SOL    HW1 3587  13.502   5.888   3.007
67271SOL    HW2 3588  13.465   5.787   3.114
67272SOL     OW 3589   8.851   9.108  10.493
67272SOL    HW1 3590   8.756   9.111  10.484
67272SOL    HW2 3591   8.877   9.028  10.447
67273SOL     OW 3592   2.866   7.640   2.470
67273SOL    HW1 3593   2.884   7.557   2.514
67273SOL    HW2 3594   2.952   7.682   2.465
67274SOL     OW 3595   3.490   2.076   3.196
67274SOL    HW1 3596   3.403   2.098   3.163
67274SOL    HW2 3597   3.536   2.040   3.121
67275SOL     OW 3598  12.209  12.435   4.158
67275SOL    HW1 3599  12.234  12.417   4.248
67275SOL    HW2 3600  12.125  12.480   4.164
67276SOL     OW 3601   7.814   2.031   6.607
67276SOL    HW1 3602   7.763   1.976   6.548
67276SOL    HW2 3603   7.892   1.980   6.626
67277SOL     OW 3604   6.303   0.923  11.692
67277SOL    HW1 3605   6.303   1.008  11.648
67277SOL    HW2 3606   6.370   0.872  11.645
67278SOL     OW 3607  10.319   9.075   4.232
67278SOL    HW1 3608  10.393   9.088   4.292
67278SOL    HW2 3609  10.262   9.014   4.279
67279SOL     OW 3610   9.417   6.160   4.731
67279SOL    HW1 3611   9.460   6.208   4.661
67279SOL    HW2 3612   9.466   6.078   4.738
67280SOL     OW 3613  12.798  12.914   2.721
67280SOL    HW1 3614  12.799  12.880   2.810
67280SOL    HW2 3615  12.882  12.960   2.711
67281SOL     OW 3616   1.458   8.809   5.663
67281SOL    HW1 3617   1.545   8.789   5.698
67281SOL    HW2 3618   1.410   8.843   5.738
67282SOL     OW 3619  10.150   0.934   3.855
67282SOL    HW1 3620  10.225   0.887   3.890
67282SOL    HW2 3621  10.186   0.993   3.789
67283SOL     OW 3622   8.930   5.646  10.913
67283SOL    HW1 3623   8.944   5.705  10.838
67283SOL    HW2 3624   8.869   5.580  10.880
67284SOL     OW 3625   9.932  11.527  12.376
67284SOL    HW1 3626   9.914  11.617  12.348
67284SOL    HW2 3627  10.000  11.496  12.317
67285SOL     OW 3628   9.244  11.451   2.475
67285SOL    HW1 3629   9.263  11.387   2.543
67285SOL    HW2 3630   9.162  11.421   2.435
67286SOL     OW 3631   9.993   2.749  12.202
67286SOL    HW1 3632   9.934   2.818  12.172
67286SOL    HW2 3633   9.935   2.680  12.233
67287SOL     OW 3634   9.694  10.997   8.212
67287SOL    HW1 3635   9.666  11.005   8.303
67287SOL    HW2 3636   9.731  10.909   8.206
67288SOL     OW 3637   5.326   4.271  11.397
67288SOL    HW1 3638   5.291   4.306  11.479
67288SOL    HW2 3639   5.412   4.312  11.389
67289SOL     OW 3640   2.004   6.856   1.359
67289SOL    HW1 3641   2.010   6.777   1.304
67289SOL    HW2 3642   1.937   6.910   1.316
67290SOL     OW 3643  13.522   2.997   7.890
67290SOL    HW1 3644  13.463   3.067   7.917
67290SOL    HW2 3645  13.609   3.030   7.909
67291SOL     OW 3646   6.703   9.451  11.546
67291SOL    HW1 3647   6.769   9.494  11.601
67291SOL    HW2 3648   6.752   9.415  11.473
67292SOL     OW 3649   0.303  14.377   1.969
67292SOL    HW1 3650   0.395  14.397   1.949
67292SOL    HW2 3651   0.307  14.323   2.047
67293SOL     OW 3652  10.075  11.585   6.312
67293SOL    HW1 3653  10.123  11.596   6.230
67293SOL    HW2 3654   9.986  11.613   6.292
67294SOL     OW 3655  14.001  13.005  14.644
67294SOL    HW1 3656  13.976  13.090  14.679
67294SOL    HW2 3657  14.091  12.992  14.674
67295SOL     OW 3658   8.888  13.284  12.627
67295SOL    HW1 3659   8.978  13.252  12.618
67295SOL    HW2 3660   8.864  13.262  12.716
67296SOL     OW 3661   5.078   3.398   2.611
67296SOL    HW1 3662   4.999   3.399   2.557
67296SOL    HW2 3663   5.138   3.339   2.566
67297SOL     OW 3664  10.344  14.869   5.157
67297SOL    HW1 3665  10.412   0.047   5.194
67297SOL    HW2 3666  10.262   0.027   5.192
67298SOL     OW 3667   7.290   4.084   0.870
67298SOL    HW1 3668   7.223   4.151   0.855
67298SOL    HW2 3669   7.254   4.005   0.829
67299SOL     OW 3670   1.339  14.229   2.995
67299SOL    HW1 3671   1.324  14.252   2.903
67299SOL    HW2 3672   1.285  14.291   3.044
67300SOL     OW 3673   6.041   5.122   5.611
67300SOL    HW1 3674   6.132   5.109   5.584
67300SOL    HW2 3675   5.990   5.076   5.544
67301SOL     OW 3676   8.604   8.884  12.307
67301SOL    HW1 3677   8.648   8.848  12.230
67301SOL    HW2 3678   8.524   8.832  12.316
67302SOL     OW 3679   5.627   0.034   5.156
67302SOL    HW1 3680   5.612  14.860   5.235
67302SOL    HW2 3681   5.637  14.847   5.086
67303SOL     OW 3682  12.667   0.065   6.105
67303SOL    HW1 3683  12.756   0.097   6.120
67303SOL    HW2 3684  12.613   0.144   6.105
67304SOL     OW 3685   2.592  14.204   6.835
67304SOL    HW1 3686   2.585  14.171   6.746
67304SOL    HW2 3687   2.594  14.299   6.826
67305SOL     OW 3688  13.211  12.019   1.008
67305SOL    HW1 3689  13.211  12.105   0.965
67305SOL    HW2 3690  13.289  12.019   1.063
67306SOL     OW 3691  14.007   3.641  13.932
67306SOL    HW1 3692  14.014   3.693  13.852
67306SOL    HW2 3693  13.976   3.704  13.998
67307SOL     OW 3694   0.593   2.440   8.682
67307SOL    HW1 3695   0.526   2.394   8.733
67307SOL    HW2 3696   0.568   2.532   8.688
67308SOL     OW 3697   0.816   4.706   7.211
67308SOL    HW1 3698   0.849   4.763   7.142
67308SOL    HW2 3699   0.810   4.762   7.288
67309SOL     OW 3700  13.046   8.559   4.874
67309SOL    HW1 3701  13.000   8.601   4.801
67309SOL    HW2 3702  13.139   8.563   4.849
67310SOL     OW 3703   6.200   5.307  14.637
67310SOL    HW1 3704   6.121   5.361  14.626
67310SOL    HW2 3705   6.231   5.327  14.725
67311SOL     OW 3706  10.646  10.859   4.822
67311SOL    HW1 3707  10.604  10.774   4.839
67311SOL    HW2 3708  10.727  10.836   4.776
67312SOL     OW 3709   2.268   9.044   2.391
67312SOL    HW1 3710   2.353   9.084   2.407
67312SOL    HW2 3711   2.222   9.049   2.475
67313SOL     OW 3712  10.451   4.502   8.810
67313SOL    HW1 3713  10.495   4.442   8.750
67313SOL    HW2 3714  10.358   4.479   8.802
67314SOL     OW 3715   9.790  13.763   0.042
67314SOL    HW1 3716   9.801  13.702  14.846
67314SOL    HW2 3717   9.697  13.758   0.063
67315SOL     OW 3718   7.819   5.903  13.534
67315SOL    HW1 3719   7.852   5.857  13.457
67315SOL    HW2 3720   7.724   5.895  13.528
67316SOL     OW 3721  14.381   4.440  13.920
67316SOL    HW1 3722  14.336   4.516  13.955
67316SOL    HW2 3723  14.377   4.452  13.825
67317SOL     OW 3724  10.840   0.152   1.565
67317SOL    HW1 3725  10.909   0.149   1.498
67317SOL    HW2 3726  10.866   0.085   1.628
67318SOL     OW 3727   5.812  11.543   3.232
67318SOL    HW1 3728   5.903  11.570   3.246
67318SOL    HW2 3729   5.798  11.472   3.295
67319SOL     OW 3730   8.910   4.106   1.266
67319SOL    HW1 3731   8.943   4.026   1.308
67319SOL    HW2 3732   8.863   4.152   1.336
67320SOL     OW 3733  14.339  10.826   4.975
67320SOL    HW1 3734  14.335  10.879   5.054
67320SOL    HW2 3735  14.414  10.862   4.926
67321SOL     OW 3736  10.993  12.479   3.488
67321SOL    HW1 3737  10.992  12.524   3.403
67321SOL    HW2 3738  10.995  12.386   3.465
67322SOL     OW 3739   2.411   6.639   1.723
67322SOL    HW1 3740   2.429   6.730   1.746
67322SOL    HW2 3741   2.316   6.630   1.733
67323SOL     OW 3742   4.908   8.697  13.079
67323SOL    HW1 3743   4.821   8.737  13.077
67323SOL    HW2 3744   4.954   8.742  13.150
67324SOL     OW 3745  11.949   6.748   1.333
67324SOL    HW1 3746  11.909   6.816   1.278
67324SOL    HW2 3747  12.007   6.700   1.274
67325SOL     OW 3748   9.728   6.825  12.379
67325SOL    HW1 3749   9.781   6.821  12.459
67325SOL    HW2 3750   9.791   6.840  12.309
67326SOL     OW 3751  12.999  10.616   9.204
67326SOL    HW1 3752  13.061  10.688   9.192
67326SOL    HW2 3753  12.958  10.606   9.119
67327SOL     OW 3754   5.618   8.762  10.928
67327SOL    HW1 3755   5.643   8.773  10.836
67327SOL    HW2 3756   5.560   8.686  10.929
67328SOL     OW 3757   6.481  11.748   7.360
67328SOL    HW1 3758   6.532  11.828   7.370
67328SOL    HW2 3759   6.546  11.679   7.353
67329SOL     OW 3760   2.010   2.596   6.093
67329SOL    HW1 3761   2.069   2.558   6.028
67329SOL    HW2 3762   2.038   2.687   6.100
67330SOL     OW 3763   9.646   7.108   4.394
67330SOL    HW1 3764   9.602   7.190   4.374
67330SOL    HW2 3765   9.638   7.099   4.489
67331SOL     OW 3766   8.932  11.366  11.352
67331SOL    HW1 3767   8.933  11.274  11.380
67331SOL    HW2 3768   9.024  11.393  11.358
67332SOL     OW 3769   9.325   5.203  10.482
67332SOL    HW1 3770   9.280   5.145  10.543
67332SOL    HW2 3771   9.390   5.248  10.535
67333SOL     OW 3772   4.019  13.765  12.169
67333SOL    HW1 3773   4.114  13.752  12.163
67333SOL    HW2 3774   3.992  13.788  12.080
67334SOL     OW 3775   5.191   5.287  10.026
67334SOL    HW1 3776   5.259   5.275   9.960
67334SOL    HW2 3777   5.110   5.292   9.976
67335SOL     OW 3778   4.518   8.064  11.233
67335SOL    HW1 3779   4.504   8.007  11.308
67335SOL    HW2 3780   4.609   8.093  11.241
67336SOL     OW 3781   9.428  13.114  12.797
67336SOL    HW1 3782   9.471  13.029  12.806
67336SOL    HW2 3783   9.389  13.111  12.710
67337SOL     OW 3784  13.870   0.674   8.687
67337SOL    HW1 3785  13.876   0.630   8.772
67337SOL    HW2 3786  13.892   0.607   8.623
67338SOL     OW 3787   2.349   3.319   0.278
67338SOL    HW1 3788   2.317   3.254   0.341
67338SOL    HW2 3789   2.282   3.387   0.276
67339SOL     OW 3790   7.408   8.043   7.627
67339SOL    HW1 3791   7.407   7.983   7.552
67339SOL    HW2 3792   7.501   8.052   7.649
67340SOL     OW 3793   2.507  12.772  14.174
67340SOL    HW1 3794   2.555  12.851  14.197
67340SOL    HW2 3795   2.560  12.700  14.208
67341SOL     OW 3796  10.178  13.023  10.498
67341SOL    HW1 3797  10.142  13.027  10.587
67341SOL    HW2 3798  10.136  12.947  10.459
67342SOL     OW 3799   2.338   6.255   5.062
67342SOL    HW1 3800   2.244   6.243   5.048
67342SOL    HW2 3801   2.344   6.324   5.128
67343SOL     OW 3802   3.111   3.735  13.391
67343SOL    HW1 3803   3.157   3.815  13.366
67343SOL    HW2 3804   3.138   3.718  13.481
67344SOL     OW 3805  12.295   4.435   6.631
67344SOL    HW1 3806  12.205   4.405   6.626
67344SOL    HW2 3807  12.319   4.422   6.723
67345SOL     OW 3808   7.415   5.659   3.083
67345SOL    HW1 3809   7.474   5.717   3.035
67345SOL    HW2 3810   7.439   5.571   3.054
67346SOL     OW 3811   2.224   6.458   4.409
67346SOL    HW1 3812   2.301   6.443   4.354
67346SOL    HW2 3813   2.210   6.553   4.405
67347SOL     OW 3814  10.072   4.885   3.530
67347SOL    HW1 3815  10.108   4.811   3.482
67347SOL    HW2 3816  10.101   4.962   3.481
67348SOL     OW 3817  13.905   8.902   4.377
67348SOL    HW1 3818  13.878   8.992   4.358
67348SOL    HW2 3819  13.830   8.863   4.421
67349SOL     OW 3820   6.558   1.711   7.667
67349SOL    HW1 3821   6.557   1.804   7.644
67349SOL    HW2 3822   6.465   1.686   7.669
67350SOL     OW 3823  11.461  12.238  12.881
67350SOL    HW1 3824  11.384  12.275  12.837
67350SOL    HW2 3825  11.440  12.146  12.893
67351SOL     OW 3826  10.855   2.882   7.818
67351SOL    HW1 3827  10.943   2.872   7.780
67351SOL    HW2 3828  10.867   2.947   7.887
67352SOL     OW 3829   4.075   0.718   0.219
67352SOL    HW1 3830   4.085   0.623   0.222
67352SOL    HW2 3831   4.120   0.749   0.297
67353SOL     OW 3832   5.257   4.667   6.119
67353SOL    HW1 3833   5.194   4.596   6.102
67353SOL    HW2 3834   5.330   4.624   6.164
67354SOL     OW 3835   6.129  10.525   7.823
67354SOL    HW1 3836   6.176  10.445   7.846
67354SOL    HW2 3837   6.122  10.574   7.905
67355SOL     OW 3838   9.844   5.698   7.063
67355SOL    HW1 3839   9.932   5.732   7.081
67355SOL    HW2 3840   9.835   5.705   6.968
67356SOL     OW 3841   9.453  10.492   3.716
67356SOL    HW1 3842   9.518  10.464   3.651
67356SOL    HW2 3843   9.476  10.444   3.795
67357SOL     OW 3844   4.446   8.589  14.118
67357SOL    HW1 3845   4.388   8.664  14.126
67357SOL    HW2 3846   4.512   8.602  14.185
67358SOL     OW 3847   8.740  10.497   3.284
67358SOL    HW1 3848   8.738  10.435   3.211
67358SOL    HW2 3849   8.774  10.447   3.358
67359SOL     OW 3850   3.670   6.978   2.895
67359SOL    HW1 3851   3.637   7.044   2.835
67359SOL    HW2 3852   3.607   6.978   2.968
67360SOL     OW 3853   3.942   7.973   0.271
67360SOL    HW1 3854   4.030   7.977   0.233
67360SOL    HW2 3855   3.924   7.879   0.281
67361SOL     OW 3856  13.021  10.199  11.048
67361SOL    HW1 3857  12.991  10.239  10.966
67361SOL    HW2 3858  13.001  10.106  11.038
67362SOL     OW 3859  13.203   1.708   7.421
67362SOL    HW1 3860  13.164   1.768   7.484
67362SOL    HW2 3861  13.243   1.764   7.355
67363SOL     OW 3862  13.452   3.363  10.144
67363SOL    HW1 3863  13.528   3.397  10.191
67363SOL    HW2 3864  13.420   3.438  10.094
67364SOL     OW 3865  12.730   6.853   4.184
67364SOL    HW1 3866  12.700   6.875   4.096
67364SOL    HW2 3867  12.700   6.927   4.238
67365SOL     OW 3868  14.821  12.114   0.608
67365SOL    HW1 3869  14.859  12.041   0.657
67365SOL    HW2 3870  14.838  12.191   0.662
67366SOL     OW 3871  12.491   7.838   3.084
67366SOL    HW1 3872  12.516   7.757   3.039
67366SOL    HW2 3873  12.396   7.842   3.074
67367SOL     OW 3874   1.265   0.341  10.412
67367SOL    HW1 3875   1.217   0.408  10.363
67367SOL    HW2 3876   1.275   0.268  10.351
67368SOL     OW 3877   1.748   5.504   3.887
67368SOL    HW1 3878   1.736   5.450   3.966
67368SOL    HW2 3879   1.768   5.591   3.921
67369SOL     OW 3880  13.538  12.002   6.498
67369SOL    HW1 3881  13.514  11.911   6.517
67369SOL    HW2 3882  13.632  12.006   6.517
67370SOL     OW 3883   4.186  11.731   0.824
67370SOL    HW1 3884   4.251  11.681   0.775
67370SOL    HW2 3885   4.233  11.808   0.855
67371SOL     OW 3886   7.535   5.431   2.984
67371SOL    HW1 3887   7.623   5.395   2.968
67371SOL    HW2 3888   7.514   5.479   2.904
67372SOL     OW 3889  13.791   9.356  10.471
67372SOL    HW1 3890  13.843   9.396  10.541
67372SOL    HW2 3891  13.702   9.355  10.505
67373SOL     OW 3892  12.274  11.026   2.229
67373SOL    HW1 3893  12.226  10.945   2.252
67373SOL    HW2 3894  12.339  10.997   2.165
67374SOL     OW 3895  10.580  11.253   9.418
67374SOL    HW1 3896  10.601  11.164   9.393
67374SOL    HW2 3897  10.488  11.249   9.447
67375SOL     OW 3898   6.445   2.073  13.195
67375SOL    HW1 3899   6.428   2.161  13.161
67375SOL    HW2 3900   6.540   2.065  13.194
67376SOL     OW 3901   8.262   7.953  10.128
67376SOL    HW1 3902   8.306   8.004  10.060
67376SOL    HW2 3903   8.185   7.917  10.084
67377SOL     OW 3904   7.820   6.118   5.364
67377SOL    HW1 3905   7.794   6.150   5.278
67377SOL    HW2 3906   7.757   6.049   5.384
67378SOL     OW 3907  14.301   8.601   0.959
67378SOL    HW1 3908  14.260   8.520   0.932
67378SOL    HW2 3909  14.385   8.602   0.913
67379SOL     OW 3910  10.967   5.711  14.009
67379SOL    HW1 3911  11.042   5.712  14.069
67379SOL    HW2 3912  10.896   5.751  14.058
67380SOL     OW 3913   4.472   6.490  13.681
67380SOL    HW1 3914   4.391   6.520  13.724
67380SOL    HW2 3915   4.446   6.473  13.591
67381SOL     OW 3916   3.317  11.800   2.764
67381SOL    HW1 3917   3.268  11.814   2.683
67381SOL    HW2 3918   3.294  11.875   2.820
67382SOL     OW 3919   9.988   9.514  12.606
67382SOL    HW1 3920  10.035   9.503  12.523
67382SOL    HW2 3921   9.999   9.606  12.628
67383SOL     OW 3922   5.831   9.805   8.671
67383SOL    HW1 3923   5.908   9.791   8.727
67383SOL    HW2 3924   5.862   9.784   8.583
67384SOL     OW 3925  13.614   4.424   7.007
67384SOL    HW1 3926  13.582   4.348   7.055
67384SOL    HW2 3927  13.709   4.416   7.011
67385SOL     OW 3928   2.548   1.916   2.421
67385SOL    HW1 3929   2.522   1.838   2.372
67385SOL    HW2 3930   2.475   1.976   2.411
67386SOL     OW 3931   0.285   9.651  10.855
67386SOL    HW1 3932   0.376   9.674  10.872
67386SOL    HW2 3933   0.288   9.561  10.825
67387SOL     OW 3934  14.819   4.054   0.735
67387SOL    HW1 3935  14.733   4.023   0.766
67387SOL    HW2 3936   0.003   3.991   0.771
67388SOL     OW 3937  13.575   6.421   7.999
67388SOL    HW1 3938  13.497   6.373   7.971
67388SOL    HW2 3939  13.641   6.353   8.013
67389SOL     OW 3940  11.665  11.844   5.696
67389SOL    HW1 3941  11.704  11.810   5.615
67389SOL    HW2 3942  11.619  11.923   5.669
67390SOL     OW 3943   4.645  11.142  13.499
67390SOL    HW1 3944   4.660  11.229  13.536
67390SOL    HW2 3945   4.728  11.119  13.458
67391SOL     OW 3946  10.077  11.933   1.282
67391SOL    HW1 3947  10.120  11.890   1.355
67391SOL    HW2 3948  10.039  11.862   1.230
67392SOL     OW 3949  11.113   7.322  12.962
67392SOL    HW1 3950  11.199   7.334  12.923
67392SOL    HW2 3951  11.119   7.238  13.008
67393SOL     OW 3952   5.260   6.678   3.329
67393SOL    HW1 3953   5.291   6.613   3.266
67393SOL    HW2 3954   5.259   6.760   3.279
67394SOL     OW 3955   4.676   0.475  14.334
67394SOL    HW1 3956   4.634   0.551  14.375
67394SOL    HW2 3957   4.640   0.400  14.381
67395SOL     OW 3958   6.451   4.584  12.113
67395SOL    HW1 3959   6.475   4.671  12.079
67395SOL    HW2 3960   6.482   4.585  12.204
67396SOL     OW 3961  10.507   7.412  10.605
67396SOL    HW1 3962  10.565   7.459  10.545
67396SOL    HW2 3963  10.520   7.320  10.583
67397SOL     OW 3964   1.353   4.817  13.717
67397SOL    HW1 3965   1.380   4.727  13.736
67397SOL    HW2 3966   1.351   4.822  13.621
67398SOL     OW 3967   5.163   2.359   6.599
67398SOL    HW1 3968   5.150   2.449   6.628
67398SOL    HW2 3969   5.171   2.309   6.680
67399SOL     OW 3970   9.247   3.359  11.231
67399SOL    HW1 3971   9.164   3.356  11.183
67399SOL    HW2 3972   9.251   3.275  11.277
67400SOL     OW 3973  11.087   9.651   1.260
67400SOL    HW1 3974  11.151   9.587   1.293
67400SOL    HW2 3975  11.139   9.710   1.205
67401SOL     OW 3976   1.960   4.792   9.705
67401SOL    HW1 3977   1.915   4.825   9.628
67401SOL    HW2 3978   1.895   4.738   9.749
67402SOL     OW 3979   6.147   8.510   3.926
67402SOL    HW1 3980   6.141   8.605   3.923
67402SOL    HW2 3981   6.240   8.492   3.913
67403SOL     OW 3982  12.737   3.238   7.903
67403SOL    HW1 3983  12.793   3.217   7.828
67403SOL    HW2 3984  12.795   3.283   7.964
67404SOL     OW 3985   5.853  10.996   9.932
67404SOL    HW1 3986   5.937  10.977   9.972
67404SOL    HW2 3987   5.866  11.078   9.885
67405SOL     OW 3988   4.773  11.541   5.981
67405SOL    HW1 3989   4.693  11.527   5.931
67405SOL    HW2 3990   4.757  11.495   6.064
67406SOL     OW 3991   6.577   8.801   3.571
67406SOL    HW1 3992   6.662   8.763   3.591
67406SOL    HW2 3993   6.596   8.888   3.537
67407SOL     OW 3994   3.623  13.470   8.966
67407SOL    HW1 3995   3.594  13.456   9.056
67407SOL    HW2 3996   3.643  13.564   8.962
67408SOL     OW 3997  10.960  10.061   9.607
67408SOL    HW1 3998  10.994  10.149   9.625
67408SOL    HW2 3999  10.987  10.009   9.683
67409SOL     OW 4000   1.688  10.130  14.672
67409SOL    HW1 4001   1.705  10.072  14.746
67409SOL    HW2 4002   1.593  10.127  14.660
67410SOL     OW 4003   7.686  11.633   3.095
67410SOL    HW1 4004   7.691  11.607   3.187
67410SOL    HW2 4005   7.708  11.726   3.095
67411SOL     OW 4006  12.671   5.150  14.293
67411SOL    HW1 4007  12.758   5.177  14.321
67411SOL    HW2 4008  12.684   5.065  14.252
67412SOL     OW 4009   9.318   9.651   6.819
67412SOL    HW1 4010   9.396   9.646   6.765
67412SOL    HW2 4011   9.274   9.567   6.805
67413SOL     OW 4012   4.774  14.041   0.731
67413SOL    HW1 4013   4.863  14.046   0.697
67413SOL    HW2 4014   4.721  14.089   0.667
67414SOL     OW 4015  12.414   6.696   4.437
67414SOL    HW1 4016  12.325   6.720   4.410
67414SOL    HW2 4017  12.456   6.779   4.459
67415SOL     OW 4018   7.113   8.676   2.551
67415SOL    HW1 4019   7.155   8.762   2.547
67415SOL    HW2 4020   7.065   8.669   2.469
67416SOL     OW 4021   2.662  11.827   6.378
67416SOL    HW1 4022   2.676  11.736   6.404
67416SOL    HW2 4023   2.569  11.831   6.356
67417SOL     OW 4024   8.799  14.010  13.875
67417SOL    HW1 4025   8.882  14.057  13.865
67417SOL    HW2 4026   8.743  14.046  13.807
67418SOL     OW 4027  11.198  13.872   0.638
67418SOL    HW1 4028  11.127  13.825   0.681
67418SOL    HW2 4029  11.278  13.828   0.667
67419SOL     OW 4030   2.875  12.726   6.831
67419SOL    HW1 4031   2.930  12.751   6.757
67419SOL    HW2 4032   2.876  12.803   6.888
67420SOL     OW 4033   9.402   4.112  14.349
67420SOL    HW1 4034   9.348   4.167  14.291
67420SOL    HW2 4035   9.448   4.175  14.405
67421SOL     OW 4036   2.307  14.309   0.346
67421SOL    HW1 4037   2.213  14.322   0.332
67421SOL    HW2 4038   2.321  14.337   0.437
67422SOL     OW 4039   7.124   4.144   4.043
67422SOL    HW1 4040   7.054   4.093   4.082
67422SOL    HW2 4041   7.134   4.108   3.955
67423SOL     OW 4042   3.419  14.376  11.444
67423SOL    HW1 4043   3.473  14.399  11.368
67423SOL    HW2 4044   3.460  14.298  11.480
67424SOL     OW 4045   9.311   3.482  13.980
67424SOL    HW1 4046   9.286   3.485  13.887
67424SOL    HW2 4047   9.398   3.442  13.980
67425SOL     OW 4048  10.271   5.173  13.015
67425SOL    HW1 4049  10.229   5.094  12.980
67425SOL    HW2 4050  10.227   5.188  13.098
67426SOL     OW 4051   3.327  12.916  13.569
67426SOL    HW1 4052   3.243  12.890  13.606
67426SOL    HW2 4053   3.320  12.892  13.476
67427SOL     OW 4054  11.830   8.034   2.404
67427SOL    HW1 4055  11.914   8.081   2.403
67427SOL    HW2 4056  11.848   7.954   2.453
67428SOL     OW 4057  11.771   2.739   3.889
67428SOL    HW1 4058  11.793   2.650   3.914
67428SOL    HW2 4059  11.706   2.730   3.819
67429SOL     OW 4060   2.398   9.949   2.918
67429SOL    HW1 4061   2.398   9.895   2.997
67429SOL    HW2 4062   2.490   9.963   2.899
67430SOL     OW 4063  13.396   6.601   2.953
67430SOL    HW1 4064  13.363   6.530   2.898
67430SOL    HW2 4065  13.335   6.603   3.027
67431SOL     OW 4066   0.687   9.041   1.585
67431SOL    HW1 4067   0.768   8.995   1.563
67431SOL    HW2 4068   0.674   9.023   1.678
67432SOL     OW 4069  13.441  14.628   8.320
67432SOL    HW1 4070  13.365  14.655   8.267
67432SOL    HW2 4071  13.426  14.668   8.405
67433SOL     OW 4072   5.751   5.996   2.291
67433SOL    HW1 4073   5.705   5.918   2.321
67433SOL    HW2 4074   5.682   6.059   2.272
67434SOL     OW 4075   8.991  10.376   4.279
67434SOL    HW1 4076   8.905  10.368   4.320
67434SOL    HW2 4077   8.979  10.444   4.212
67435SOL     OW 4078  10.313  11.378   7.342
67435SOL    HW1 4079  10.295  11.376   7.249
67435SOL    HW2 4080  10.264  11.304   7.378
67436SOL     OW 4081   6.748  14.824  11.738
67436SOL    HW1 4082   6.764   0.010  11.669
67436SOL    HW2 4083   6.808  14.752  11.718
67437SOL     OW 4084  14.060   8.944   4.617
67437SOL    HW1 4085  14.060   8.954   4.521
67437SOL    HW2 4086  14.044   8.851   4.631
67438SOL     OW 4087   8.229   0.926  10.579
67438SOL    HW1 4088   8.150   0.897  10.534
67438SOL    HW2 4089   8.283   0.965  10.510
67439SOL     OW 4090   2.703   5.992   5.193
67439SOL    HW1 4091   2.712   6.027   5.104
67439SOL    HW2 4092   2.786   5.948   5.210
67440SOL     OW 4093   7.076  10.077   4.181
67440SOL    HW1 4094   7.059  10.122   4.264
67440SOL    HW2 4095   7.060   9.985   4.200
67441SOL     OW 4096   4.610   4.378   6.349
67441SOL    HW1 4097   4.667   4.397   6.424
67441SOL    HW2 4098   4.635   4.442   6.283
67442SOL     OW 4099   5.683   6.899   3.995
67442SOL    HW1 4100   5.648   6.847   3.923
67442SOL    HW2 4101   5.607   6.946   4.029
67443SOL     OW 4102   9.776   4.430   1.247
67443SOL    HW1 4103   9.734   4.344   1.243
67443SOL    HW2 4104   9.761   4.460   1.336
67444SOL     OW 4105   3.097   3.528   6.020
67444SOL    HW1 4106   3.096   3.562   6.110
67444SOL    HW2 4107   3.087   3.433   6.030
67445SOL     OW 4108   6.875   9.630  14.496
67445SOL    HW1 4109   6.838   9.715  14.521
67445SOL    HW2 4110   6.832   9.607  14.414
67446SOL     OW 4111  11.237  12.518   7.311
67446SOL    HW1 4112  11.230  12.424   7.294
67446SOL    HW2 4113  11.256  12.524   7.405
67447SOL     OW 4114   6.653   4.467   6.730
67447SOL    HW1 4115   6.645   4.517   6.811
67447SOL    HW2 4116   6.581   4.498   6.675
67448SOL     OW 4117   0.018   2.912   7.594
67448SOL    HW1 4118   0.058   2.912   7.681
67448SOL    HW2 4119  14.849   2.996   7.589
67449SOL     OW 4120   7.311   3.651   3.194
67449SOL    HW1 4121   7.381   3.590   3.217
67449SOL    HW2 4122   7.238   3.627   3.250
67450SOL     OW 4123   2.124  12.679   8.262
67450SOL    HW1 4124   2.190  12.748   8.271
67450SOL    HW2 4125   2.172  12.605   8.224
67451SOL     OW 4126   6.045   9.261   8.978
67451SOL    HW1 4127   6.057   9.355   8.963
67451SOL    HW2 4128   6.112   9.219   8.924
67452SOL     OW 4129   3.139   4.226  12.851
67452SOL    HW1 4130   3.195   4.300  12.873
67452SOL    HW2 4131   3.085   4.257  12.778
67453SOL     OW 4132   4.489  11.388   6.967
67453SOL    HW1 4133   4.479  11.482   6.981
67453SOL    HW2 4134   4.581  11.378   6.941
67454SOL     OW 4135   2.565   5.535  14.507
67454SOL    HW1 4136   2.620   5.464  14.474
67454SOL    HW2 4137   2.575   5.532  14.602
67455SOL     OW 4138   6.927  11.072   9.267
67455SOL    HW1 4139   6.975  10.991   9.250
67455SOL    HW2 4140   6.896  11.064   9.358
67456SOL     OW 4141  11.144   9.337   2.273
67456SOL    HW1 4142  11.079   9.373   2.212
67456SOL    HW2 4143  11.209   9.295   2.216
67457SOL     OW 4144  14.791   3.698   6.750
67457SOL    HW1 4145  14.860   3.655   6.801
67457SOL    HW2 4146  14.738   3.743   6.816
67458SOL     OW 4147  13.989   1.847   8.865
67458SOL    HW1 4148  13.925   1.887   8.924
67458SOL    HW2 4149  13.956   1.867   8.777
67459SOL     OW 4150   4.775   6.229  11.062
67459SOL    HW1 4151   4.717   6.306  11.065
67459SOL    HW2 4152   4.841   6.252  10.997
67460SOL     OW 4153   4.773   1.275  14.826
67460SOL    HW1 4154   4.715   1.306   0.017
67460SOL    HW2 4155   4.841   1.226  14.872
67461SOL     OW 4156  10.615  11.906   8.306
67461SOL    HW1 4157  10.550  11.941   8.367
67461SOL    HW2 4158  10.615  11.812   8.321
67462SOL     OW 4159   3.855   2.615  13.030
67462SOL    HW1 4160   3.940   2.613  13.074
67462SOL    HW2 4161   3.874   2.642  12.941
67463SOL     OW 4162   4.172  12.413  11.571
67463SOL    HW1 4163   4.146  12.472  11.641
67463SOL    HW2 4164   4.091  12.400  11.520
67464SOL     OW 4165   0.614   1.547   9.410
67464SOL    HW1 4166   0.519   1.543   9.404
67464SOL    HW2 4167   0.632   1.569   9.501
67465SOL     OW 4168   2.257  12.327   8.353
67465SOL    HW1 4169   2.194  12.322   8.425
67465SOL    HW2 4170   2.342  12.340   8.395
67466SOL     OW 4171   6.753   9.642   3.435
67466SOL    HW1 4172   6.813   9.583   3.390
67466SOL    HW2 4173   6.809   9.695   3.492
67467SOL     OW 4174  11.282   8.629  11.466
67467SOL    HW1 4175  11.363   8.581  11.451
67467SOL    HW2 4176  11.276   8.638  11.561
67468SOL     OW 4177  13.629  13.486   9.629
67468SOL    HW1 4178  13.723  13.500   9.620
67468SOL    HW2 4179  13.616  13.466   9.722
67469SOL     OW 4180   2.541   5.872   7.703
67469SOL    HW1 4181   2.590   5.800   7.742
67469SOL    HW2 4182   2.450   5.852   7.722
67470SOL     OW 4183  14.666   8.969  14.325
67470SOL    HW1 4184  14.627   8.951  14.240
67470SOL    HW2 4185  14.760   8.981  14.307
67471SOL     OW 4186  11.246   7.322   9.861
67471SOL    HW1 4187  11.249   7.379   9.785
67471SOL    HW2 4188  11.249   7.382   9.936
67472SOL     OW 4189   7.178   9.745   9.419
67472SOL    HW1 4190   7.189   9.722   9.327
67472SOL    HW2 4191   7.168   9.840   9.418
67473SOL     OW 4192   5.051  11.119  11.651
67473SOL    HW1 4193   5.092  11.041  11.688
67473SOL    HW2 4194   5.116  11.189  11.665
67474SOL     OW 4195  13.819   8.853   6.015
67474SOL    HW1 4196  13.766   8.917   5.968
67474SOL    HW2 4197  13.775   8.769   5.997
67475SOL     OW 4198  14.717  13.801  12.230
67475SOL    HW1 4199  14.748  13.712  12.248
67475SOL    HW2 4200  14.776  13.834  12.162
67476SOL     OW 4201  11.760  12.695   3.102
67476SOL    HW1 4202  11.693  12.685   3.170
67476SOL    HW2 4203  11.711  12.710   3.021
67477SOL     OW 4204  14.239   3.650   8.547
67477SOL    HW1 4205  14.266   3.634   8.638
67477SOL    HW2 4206  14.321   3.671   8.501
67478SOL     OW 4207   0.928   5.419   0.508
67478SOL    HW1 4208   1.007   5.442   0.459
67478SOL    HW2 4209   0.878   5.364   0.449
67479SOL     OW 4210  11.258   2.951   8.808
67479SOL    HW1 4211  11.194   3.022   8.812
67479SOL    HW2 4212  11.281   2.934   8.899
67480SOL     OW 4213   6.380   1.620  10.264
67480SOL    HW1 4214   6.369   1.594  10.172
67480SOL    HW2 4215   6.465   1.664  10.266
67481SOL     OW 4216   2.430   3.488  12.253
67481SOL    HW1 4217   2.426   3.431  12.329
67481SOL    HW2 4218   2.502   3.454  12.200
67482SOL     OW 4219   8.929  12.356   5.082
67482SOL    HW1 4220   8.868  12.376   5.011
67482SOL    HW2 4221   8.998  12.422   5.073
67483SOL     OW 4222   2.305  10.493  10.433
67483SOL    HW1 4223   2.228  10.503  10.377
67483SOL    HW2 4224   2.294  10.408  10.475
67484SOL     OW 4225   2.568  11.530   8.774
67484SOL    HW1 4226   2.633  11.523   8.844
67484SOL    HW2 4227   2.484  11.538   8.820
67485SOL     OW 4228   5.451   1.488   5.384
67485SOL    HW1 4229   5.405   1.559   5.428
67485SOL    HW2 4230   5.533   1.526   5.355
67486SOL     OW 4231   1.402   6.813   8.912
67486SOL    HW1 4232   1.491   6.792   8.941
67486SOL    HW2 4233   1.391   6.906   8.934
67487SOL     OW 4234   1.772  10.417   7.731
67487SOL    HW1 4235   1.769  10.341   7.673
67487SOL    HW2 4236   1.848  10.466   7.703
67488SOL     OW 4237   9.800   0.041   9.007
67488SOL    HW1 4238   9.819   0.091   8.928
67488SOL    HW2 4239   9.863  14.847   9.006
67489SOL     OW 4240  12.818   0.009   5.857
67489SOL    HW1 4241  12.885   0.077   5.857
67489SOL    HW2 4242  12.763   0.028   5.933
67490SOL     OW 4243   5.272   1.015   0.030
67490SOL    HW1 4244   5.284   1.110   0.029
67490SOL    HW2 4245   5.329   0.984   0.100
67491SOL     OW 4246  10.041  12.756   2.267
67491SOL    HW1 4247   9.970  12.691   2.262
67491SOL    HW2 4248  10.040  12.786   2.358
67492SOL     OW 4249   0.059   8.851  13.938
67492SOL    HW1 4250   0.074   8.813  14.024
67492SOL    HW2 4251   0.009   8.931  13.955
67493SOL     OW 4252  13.060   2.290  10.376
67493SOL    HW1 4253  13.073   2.365  10.434
67493SOL    HW2 4254  13.145   2.278  10.334
67494SOL     OW 4255  14.502   8.446   4.783
67494SOL    HW1 4256  14.555   8.367   4.775
67494SOL    HW2 4257  14.544   8.496   4.853
67495SOL     OW 4258   0.402   2.832   9.971
67495SOL    HW1 4259   0.462   2.758   9.983
67495SOL    HW2 4260   0.320   2.802  10.011
67496SOL     OW 4261   8.876  12.038  12.698
67496SOL    HW1 4262   8.824  11.983  12.758
67496SOL    HW2 4263   8.823  12.044  12.619
67497SOL     OW 4264  10.862   9.112   4.794
67497SOL    HW1 4265  10.822   9.135   4.878
67497SOL    HW2 4266  10.789   9.112   4.733
67498SOL     OW 4267  13.548  12.125   2.457
67498SOL    HW1 4268  13.532  12.090   2.545
67498SOL    HW2 4269  13.467  12.108   2.409
67499SOL     OW 4270   4.577   3.654  13.231
67499SOL    HW1 4271   4.486   3.625  13.233
67499SOL    HW2 4272   4.589   3.701  13.313
67500SOL     OW 4273  12.478   8.158   7.858
67500SOL    HW1 4274  12.532   8.219   7.807
67500SOL    HW2 4275  12.453   8.090   7.795
67501SOL     OW 4276   1.828   4.147   8.328
67501SOL    HW1 4277   1.906   4.114   8.374
67501SOL    HW2 4278   1.778   4.069   8.306
67502SOL     OW 4279   0.220  12.269  10.061
67502SOL    HW1 4280   0.218  12.333  10.132
67502SOL    HW2 4281   0.130  12.235  10.057
67503SOL     OW 4282   1.344  13.088   7.267
67503SOL    HW1 4283   1.267  13.092   7.210
67503SOL    HW2 4284   1.411  13.137   7.219
67504SOL     OW 4285   7.117   0.465   9.901
67504SOL    HW1 4286   7.127   0.381   9.857
67504SOL    HW2 4287   7.109   0.528   9.829
67505SOL     OW 4288   5.811   5.340   4.167
67505SOL    HW1 4289   5.816   5.302   4.255
67505SOL    HW2 4290   5.864   5.281   4.113
67506SOL     OW 4291   8.272  10.967  12.752
67506SOL    HW1 4292   8.365  10.986  12.740
67506SOL    HW2 4293   8.241  10.942  12.665
67507SOL     OW 4294   0.462   7.638   6.404
67507SOL    HW1 4295   0.544   7.680   6.432
67507SOL    HW2 4296   0.393   7.698   6.433
67508SOL     OW 4297  11.089   1.483  11.398
67508SOL    HW1 4298  11.008   1.534  11.407
67508SOL    HW2 4299  11.076   1.407  11.454
67509SOL     OW 4300   6.210   3.860  14.429
67509SOL    HW1 4301   6.265   3.788  14.461
67509SOL    HW2 4302   6.240   3.937  14.479
67510SOL     OW 4303  10.424   9.406  12.341
67510SOL    HW1 4304  10.419   9.312  12.324
67510SOL    HW2 4305  10.365   9.420  12.415
67511SOL     OW 4306  10.378   0.081   3.704
67511SOL    HW1 4307  10.392   0.174   3.692
67511SOL    HW2 4308  10.392   0.043   3.617
67512SOL     OW 4309   6.541   3.419   8.530
67512SOL    HW1 4310   6.605   3.464   8.475
67512SOL    HW2 4311   6.515   3.485   8.595
67513SOL     OW 4312   0.179   7.823   2.652
67513SOL    HW1 4313   0.103   7.766   2.639
67513SOL    HW2 4314   0.149   7.910   2.629
67514SOL     OW 4315   5.051   5.428   7.306
67514SOL    HW1 4316   4.998   5.507   7.297
67514SOL    HW2 4317   4.996   5.358   7.273
67515SOL     OW 4318   8.271  11.577  11.646
67515SOL    HW1 4319   8.186  11.556  11.685
67515SOL    HW2 4320   8.261  11.557  11.553
67516SOL     OW 4321  12.702   9.843   2.722
67516SOL    HW1 4322  12.686   9.897   2.800
67516SOL    HW2 4323  12.624   9.788   2.715
67517SOL     OW 4324   2.911   2.114   9.260
67517SOL    HW1 4325   2.948   2.155   9.181
67517SOL    HW2 4326   2.819   2.098   9.238
67518SOL     OW 4327   5.690   1.299   3.646
67518SOL    HW1 4328   5.626   1.357   3.604
67518SOL    HW2 4329   5.690   1.220   3.591
67519SOL     OW 4330   9.902   4.333  13.499
67519SOL    HW1 4331   9.858   4.367  13.420
67519SOL    HW2 4332   9.857   4.377  13.571
67520SOL     OW 4333  11.330  10.961  10.623
67520SOL    HW1 4334  11.238  10.936  10.634
67520SOL    HW2 4335  11.368  10.889  10.572
67521SOL     OW 4336   8.323   6.462  13.202
67521SOL    HW1 4337   8.231   6.448  13.224
67521SOL    HW2 4338   8.361   6.500  13.282
67522SOL     OW 4339  11.528   3.863  12.505
67522SOL    HW1 4340  11.496   3.928  12.569
67522SOL    HW2 4341  11.592   3.911  12.453
67523SOL     OW 4342   8.749  12.484   1.368
67523SOL    HW1 4343   8.830  12.486   1.318
67523SOL    HW2 4344   8.747  12.567   1.415
67524SOL     OW 4345   5.739   9.532   5.021
67524SOL    HW1 4346   5.819   9.560   4.977
67524SOL    HW2 4347   5.711   9.609   5.072
67525SOL     OW 4348   9.393   0.561  10.579
67525SOL    HW1 4349   9.312   0.531  10.621
67525SOL    HW2 4350   9.445   0.481  10.569
67526SOL     OW 4351   7.541   0.532  14.167
67526SOL    HW1 4352   7.497   0.607  14.128
67526SOL    HW2 4353   7.507   0.527  14.256
67527SOL     OW 4354   2.475   4.392  11.835
67527SOL    HW1 4355   2.399   4.352  11.795
67527SOL    HW2 4356   2.476   4.359  11.925
67528SOL     OW 4357  10.580   4.833  11.374
67528SOL    HW1 4358  10.638   4.788  11.312
67528SOL    HW2 4359  10.493   4.799  11.354
67529SOL     OW 4360   3.174  10.131   3.192
67529SOL    HW1 4361   3.209  10.193   3.256
67529SOL    HW2 4362   3.145  10.186   3.119
67530SOL     OW 4363  14.294   5.386   1.085
67530SOL    HW1 4364  14.358   5.316   1.076
67530SOL    HW2 4365  14.344   5.467   1.072
67531SOL     OW 4366   2.518  13.207  12.831
67531SOL    HW1 4367   2.481  13.148  12.766
67531SOL    HW2 4368   2.512  13.294  12.791
67532SOL     OW 4369   5.688  10.316  14.394
67532SOL    HW1 4370   5.594  10.323  14.376
67532SOL    HW2 4371   5.715  10.236  14.349
67533SOL     OW 4372   2.397   8.674   6.768
67533SOL    HW1 4373   2.420   8.618   6.842
67533SOL    HW2 4374   2.449   8.753   6.781
67534SOL     OW 4375   7.840   8.300   5.755
67534SOL    HW1 4376   7.832   8.394   5.775
67534SOL    HW2 4377   7.917   8.294   5.699
67535SOL     OW 4378   3.485   5.497   0.165
67535SOL    HW1 4379   3.415   5.559   0.186
67535SOL    HW2 4380   3.476   5.429   0.231
67536SOL     OW 4381   7.700  12.054  10.474
67536SOL    HW1 4382   7.776  11.996  10.474
67536SOL    HW2 4383   7.704  12.099  10.558
67537SOL     OW 4384   4.079   8.945  10.789
67537SOL    HW1 4385   4.133   8.868  10.770
67537SOL    HW2 4386   3.995   8.927  10.748
67538SOL     OW 4387  12.188   1.371  11.085
67538SOL    HW1 4388  12.277   1.391  11.114
67538SOL    HW2 4389  12.158   1.452  11.042
67539SOL     OW 4390   1.581   9.970   4.950
67539SOL    HW1 4391   1.647  10.020   4.901
67539SOL    HW2 4392   1.624   9.886   4.968
67540SOL     OW 4393  10.413   6.399   6.037
67540SOL    HW1 4394  10.430   6.491   6.056
67540SOL    HW2 4395  10.341   6.375   6.095
67541SOL     OW 4396   4.063  11.505   0.362
67541SOL    HW1 4397   4.020  11.586   0.390
67541SOL    HW2 4398   4.015  11.436   0.407
67542SOL     OW 4399  12.579  13.968   8.040
67542SOL    HW1 4400  12.647  14.034   8.054
67542SOL    HW2 4401  12.585  13.947   7.947
67543SOL     OW 4402  14.629   4.578   5.564
67543SOL    HW1 4403  14.662   4.666   5.545
67543SOL    HW2 4404  14.642   4.530   5.482
67544SOL     OW 4405   7.667  11.339   1.831
67544SOL    HW1 4406   7.647  11.359   1.739
67544SOL    HW2 4407   7.587  11.361   1.878
67545SOL     OW 4408   0.671   7.531   5.237
67545SOL    HW1 4409   0.703   7.598   5.176
67545SOL    HW2 4410   0.596   7.492   5.192
67546SOL     OW 4411   0.379  11.596   3.883
67546SOL    HW1 4412   0.388  11.620   3.790
67546SOL    HW2 4413   0.367  11.680   3.928
67547SOL     OW 4414  12.509  10.199  14.136
67547SOL    HW1 4415  12.463  10.181  14.218
67547SOL    HW2 4416  12.485  10.126  14.079
67548SOL     OW 4417   7.681   6.531   8.375
67548SOL    HW1 4418   7.745   6.470   8.411
67548SOL    HW2 4419   7.598   6.484   8.379
67549SOL     OW 4420   4.040  10.628   1.281
67549SOL    HW1 4421   3.958  10.581   1.263
67549SOL    HW2 4422   4.058  10.677   1.200
67550SOL     OW 4423  12.584  11.616   6.055
67550SOL    HW1 4424  12.539  11.537   6.085
67550SOL    HW2 4425  12.601  11.665   6.136
67551SOL     OW 4426  13.697   3.844   8.339
67551SOL    HW1 4427  13.611   3.860   8.299
67551SOL    HW2 4428  13.760   3.857   8.268
67552SOL     OW 4429   1.588  12.763   2.443
67552SOL    HW1 4430   1.572  12.672   2.415
67552SOL    HW2 4431   1.547  12.816   2.375
67553SOL     OW 4432  14.543   2.745  12.031
67553SOL    HW1 4433  14.495   2.672  11.993
67553SOL    HW2 4434  14.634   2.717  12.032
67554SOL     OW 4435   5.125  13.217  14.859
67554SOL    HW1 4436   5.085  13.228  14.772
67554SOL    HW2 4437   5.168  13.132  14.855
67555SOL     OW 4438   5.255   8.479   7.488
67555SOL    HW1 4439   5.329   8.535   7.463
67555SOL    HW2 4440   5.264   8.401   7.434
67556SOL     OW 4441  14.829   7.641   2.666
67556SOL    HW1 4442  14.778   7.639   2.585
67556SOL    HW2 4443  14.791   7.571   2.720
67557SOL     OW 4444   6.869   9.229  14.593
67557SOL    HW1 4445   6.880   9.259  14.684
67557SOL    HW2 4446   6.798   9.284  14.558
67558SOL     OW 4447  14.531  12.932   5.443
67558SOL    HW1 4448  14.489  12.970   5.521
67558SOL    HW2 4449  14.568  13.008   5.397
67559SOL     OW 4450  10.984  13.797   3.615
67559SOL    HW1 4451  10.903  13.759   3.649
67559SOL    HW2 4452  11.046  13.791   3.687
67560SOL     OW 4453   8.535   9.979   1.667
67560SOL    HW1 4454   8.454   9.975   1.717
67560SOL    HW2 4455   8.598   9.928   1.718
67561SOL     OW 4456   3.256   4.189   7.024
67561SOL    HW1 4457   3.206   4.270   7.036
67561SOL    HW2 4458   3.219   4.129   7.088
67562SOL     OW 4459   4.281   7.490   7.281
67562SOL    HW1 4460   4.338   7.534   7.344
67562SOL    HW2 4461   4.211   7.553   7.264
67563SOL     OW 4462   5.808   0.077   0.841
67563SOL    HW1 4463   5.752   0.127   0.782
67563SOL    HW2 4464   5.896   0.084   0.803
67564SOL     OW 4465   2.990   7.175   5.133
67564SOL    HW1 4466   3.016   7.084   5.116
67564SOL    HW2 4467   3.003   7.187   5.227
67565SOL     OW 4468   7.450   8.141   3.487
67565SOL    HW1 4469   7.511   8.162   3.417
67565SOL    HW2 4470   7.376   8.200   3.474
67566SOL     OW 4471   1.412   4.568   2.699
67566SOL    HW1 4472   1.501   4.547   2.726
67566SOL    HW2 4473   1.422   4.639   2.635
67567SOL     OW 4474  14.529   4.661   9.303
67567SOL    HW1 4475  14.537   4.628   9.393
67567SOL    HW2 4476  14.439   4.642   9.279
67568SOL     OW 4477   7.430   2.705  11.809
67568SOL    HW1 4478   7.513   2.703  11.761
67568SOL    HW2 4479   7.369   2.655  11.755
67569SOL     OW 4480   7.001   4.799   4.924
67569SOL    HW1 4481   7.096   4.797   4.922
67569SOL    HW2 4482   6.974   4.750   4.846
67570SOL     OW 4483   2.043   5.512   5.817
67570SOL    HW1 4484   2.087   5.492   5.900
67570SOL    HW2 4485   2.100   5.474   5.750
67571SOL     OW 4486   7.267  11.200   4.148
67571SOL    HW1 4487   7.261  11.184   4.054
67571SOL    HW2 4488   7.195  11.261   4.167
67572SOL     OW 4489  10.638   7.731   9.792
67572SOL    HW1 4490  10.602   7.800   9.736
67572SOL    HW2 4491  10.640   7.654   9.736
67573SOL     OW 4492   6.930   3.119   3.230
67573SOL    HW1 4493   6.887   3.077   3.155
67573SOL    HW2 4494   6.952   3.047   3.288
67574SOL     OW 4495   6.190   8.914   9.818
67574SOL    HW1 4496   6.167   8.839   9.873
67574SOL    HW2 4497   6.125   8.980   9.841
67575SOL     OW 4498   1.536   6.257   2.167
67575SOL    HW1 4499   1.542   6.282   2.259
67575SOL    HW2 4500   1.578   6.329   2.120
67576SOL     OW 4501  10.713  12.463   3.248
67576SOL    HW1 4502  10.793  12.513   3.263
67576SOL    HW2 4503  10.739  12.372   3.258
67577SOL     OW 4504   9.693   3.888  12.301
67577SOL    HW1 4505   9.726   3.957  12.243
67577SOL    HW2 4506   9.757   3.885  12.373
67578SOL     OW 4507   7.260  10.212   7.931
67578SOL    HW1 4508   7.327  10.214   7.999
67578SOL    HW2 4509   7.304  10.245   7.853
67579SOL     OW 4510   1.789  13.021   4.669
67579SOL    HW1 4511   1.819  13.103   4.708
67579SOL    HW2 4512   1.780  12.960   4.742
67580SOL     OW 4513   4.489  10.732   0.552
67580SOL    HW1 4514   4.552  10.788   0.508
67580SOL    HW2 4515   4.474  10.660   0.490
67581SOL     OW 4516   4.199  11.886   8.689
67581SOL    HW1 4517   4.207  11.974   8.651
67581SOL    HW2 4518   4.203  11.900   8.783
67582SOL     OW 4519  12.886   1.651   8.516
67582SOL    HW1 4520  12.820   1.719   8.500
67582SOL    HW2 4521  12.969   1.696   8.504
67583SOL     OW 4522  14.170   4.203  10.719
67583SOL    HW1 4523  14.231   4.146  10.765
67583SOL    HW2 4524  14.186   4.186  10.627
67584SOL     OW 4525   5.016   5.757   3.096
67584SOL    HW1 4526   4.985   5.802   3.018
67584SOL    HW2 4527   5.105   5.791   3.110
67585SOL     OW 4528   9.237  11.984   5.535
67585SOL    HW1 4529   9.255  11.933   5.456
67585SOL    HW2 4530   9.182  11.928   5.589
67586SOL     OW 4531  13.303   4.718  10.037
67586SOL    HW1 4532  13.361   4.675  10.099
67586SOL    HW2 4533  13.361   4.769   9.980
67587SOL     OW 4534  13.774  14.071   1.494
67587SOL    HW1 4535  13.689  14.092   1.456
67587SOL    HW2 4536  13.836  14.127   1.446
67588SOL     OW 4537  14.123  13.129   4.578
67588SOL    HW1 4538  14.086  13.041   4.567
67588SOL    HW2 4539  14.078  13.182   4.512
67589SOL     OW 4540   0.155  14.402   6.284
67589SOL    HW1 4541   0.092  14.335   6.258
67589SOL    HW2 4542   0.153  14.466   6.213
67590SOL     OW 4543  14.391   8.438  11.896
67590SOL    HW1 4544  14.376   8.532  11.903
67590SOL    HW2 4545  14.482   8.429  11.870
67591SOL     OW 4546  10.380   9.469  12.683
67591SOL    HW1 4547  10.323   9.412  12.735
67591SOL    HW2 4548  10.331   9.550  12.674
67592SOL     OW 4549   9.970   1.727   0.468
67592SOL    HW1 4550   9.915   1.744   0.392
67592SOL    HW2 4551   9.916   1.753   0.543
67593SOL     OW 4552   7.639   2.813  10.954
67593SOL    HW1 4553   7.699   2.874  10.996
67593SOL    HW2 4554   7.655   2.823  10.860
67594SOL     OW 4555   2.417   7.140   9.872
67594SOL    HW1 4556   2.393   7.048   9.860
67594SOL    HW2 4557   2.507   7.146   9.839
67595SOL     OW 4558   3.325   3.917   3.110
67595SOL    HW1 4559   3.380   3.960   3.044
67595SOL    HW2 4560   3.246   3.892   3.063
67596SOL     OW 4561   9.942   4.571  12.294
67596SOL    HW1 4562   9.867   4.630  12.301
67596SOL    HW2 4563  10.012   4.624  12.257
67597SOL     OW 4564   4.658   4.005   2.914
67597SOL    HW1 4565   4.650   4.044   2.827
67597SOL    HW2 4566   4.658   3.911   2.898
67598SOL     OW 4567  12.091   9.685  10.211
67598SOL    HW1 4568  12.149   9.725  10.276
67598SOL    HW2 4569  12.078   9.596  10.241
67599SOL     OW 4570   5.636   5.624   3.182
67599SOL    HW1 4571   5.617   5.543   3.228
67599SOL    HW2 4572   5.572   5.627   3.111
67600SOL     OW 4573   2.313  11.933  13.309
67600SOL    HW1 4574   2.249  11.921  13.238
67600SOL    HW2 4575   2.353  12.017  13.290
67601SOL     OW 4576   9.654   3.463   8.749
67601SOL    HW1 4577   9.690   3.375   8.735
67601SOL    HW2 4578   9.647   3.471   8.844
67602SOL     OW 4579  10.581   5.341  11.079
67602SOL    HW1 4580  10.630   5.267  11.116
67602SOL    HW2 4581  10.525   5.370  11.151
67603SOL     OW 4582   6.890   3.207  10.186
67603SOL    HW1 4583   6.925   3.138  10.243
67603SOL    HW2 4584   6.800   3.220  10.216
67604SOL     OW 4585  11.233   0.482  10.306
67604SOL    HW1 4586  11.287   0.491  10.384
67604SOL    HW2 4587  11.187   0.398  10.318
67605SOL     OW 4588   6.618  11.026   9.875
67605SOL    HW1 4589   6.614  11.083   9.951
67605SOL    HW2 4590   6.529  10.990   9.867
67606SOL     OW 4591   2.016   7.139   2.946
67606SOL    HW1 4592   2.021   7.215   3.004
67606SOL    HW2 4593   2.009   7.176   2.858
67607SOL     OW 4594   2.873  13.129   0.479
67607SOL    HW1 4595   2.879  13.217   0.442
67607SOL    HW2 4596   2.791  13.094   0.444
67608SOL     OW 4597   6.612   8.989  13.714
67608SOL    HW1 4598   6.612   9.084  13.727
67608SOL    HW2 4599   6.552   8.974  13.641
67609SOL     OW 4600   8.191  11.067   8.688
67609SOL    HW1 4601   8.260  11.090   8.750
67609SOL    HW2 4602   8.237  11.051   8.605
67610SOL     OW 4603   7.868   4.290  12.971
67610SOL    HW1 4604   7.916   4.371  12.988
67610SOL    HW2 4605   7.902   4.260  12.887
67611SOL     OW 4606   6.173  11.001  12.672
67611SOL    HW1 4607   6.095  11.057  12.675
67611SOL    HW2 4608   6.141  10.918  12.638
67612SOL     OW 4609  13.183   7.459   9.024
67612SOL    HW1 4610  13.246   7.433   8.958
67612SOL    HW2 4611  13.146   7.541   8.991
67613SOL     OW 4612   1.359   4.939   6.267
67613SOL    HW1 4613   1.351   5.034   6.270
67613SOL    HW2 4614   1.293   4.912   6.203
67614SOL     OW 4615   7.454  11.490   9.121
67614SOL    HW1 4616   7.430  11.410   9.167
67614SOL    HW2 4617   7.466  11.555   9.191
67615SOL     OW 4618  14.286   7.136  14.303
67615SOL    HW1 4619  14.323   7.119  14.216
67615SOL    HW2 4620  14.352   7.190  14.347
67616SOL     OW 4621   0.879   5.086  12.426
67616SOL    HW1 4622   0.938   5.048  12.491
67616SOL    HW2 4623   0.875   5.019  12.357
67617SOL     OW 4624   5.861   0.732  12.192
67617SOL    HW1 4625   5.955   0.716  12.201
67617SOL    HW2 4626   5.820   0.659  12.239
67618SOL     OW 4627   8.578   1.478   7.754
67618SOL    HW1 4628   8.566   1.540   7.682
67618SOL    HW2 4629   8.619   1.529   7.823
67619SOL     OW 4630   2.430  11.876  12.270
67619SOL    HW1 4631   2.417  11.854  12.362
67619SOL    HW2 4632   2.416  11.971  12.266
67620SOL     OW 4633  11.454   6.379   9.146
67620SOL    HW1 4634  11.521   6.358   9.211
67620SOL    HW2 4635  11.411   6.295   9.129
67621SOL     OW 4636   2.342  10.834   5.381
67621SOL    HW1 4637   2.275  10.902   5.377
67621SOL    HW2 4638   2.333  10.795   5.468
67622SOL     OW 4639   2.679   8.577   1.906
67622SOL    HW1 4640   2.726   8.650   1.866
67622SOL    HW2 4641   2.607   8.619   1.955
67623SOL     OW 4642   0.482   3.097  13.931
67623SOL    HW1 4643   0.458   3.086  14.023
67623SOL    HW2 4644   0.401   3.079  13.883
67624SOL     OW 4645  11.045   8.888   2.884
67624SOL    HW1 4646  10.981   8.946   2.925
67624SOL    HW2 4647  11.013   8.800   2.903
67625SOL     OW 4648  10.584   0.463  12.039
67625SOL    HW1 4649  10.587   0.412  12.120
67625SOL    HW2 4650  10.496   0.501  12.039
67626SOL     OW 4651  10.755   4.413   0.513
67626SOL    HW1 4652  10.827   4.475   0.506
67626SOL    HW2 4653  10.710   4.417   0.429
67627SOL     OW 4654  13.566  11.481   4.674
67627SOL    HW1 4655  13.568  11.531   4.756
67627SOL    HW2 4656  13.474  11.475   4.652
67628SOL     OW 4657   6.413   6.549   3.005
67628SOL    HW1 4658   6.481   6.491   2.969
67628SOL    HW2 4659   6.367   6.583   2.928
67629SOL     OW 4660   4.105  13.014   5.600
67629SOL    HW1 4661   4.030  12.997   5.544
67629SOL    HW2 4662   4.178  13.030   5.539
67630SOL     OW 4663   0.201  11.273   7.157
67630SOL    HW1 4664   0.176  11.286   7.248
67630SOL    HW2 4665   0.295  11.256   7.159
67631SOL     OW 4666   7.845  11.406  12.218
67631SOL    HW1 4667   7.798  11.395  12.135
67631SOL    HW2 4668   7.811  11.488  12.254
67632SOL     OW 4669   6.496   0.354   1.095
67632SOL    HW1 4670   6.462   0.267   1.075
67632SOL    HW2 4671   6.487   0.403   1.013
67633SOL     OW 4672   0.586   6.628   4.682
67633SOL    HW1 4673   0.573   6.719   4.711
67633SOL    HW2 4674   0.676   6.608   4.707
67634SOL     OW 4675   6.070  14.783  10.224
67634SOL    HW1 4676   6.065  14.723  10.298
67634SOL    HW2 4677   6.044  14.868  10.260
67635SOL     OW 4678   8.946   0.870  10.650
67635SOL    HW1 4679   9.012   0.859  10.581
67635SOL    HW2 4680   8.921   0.962  10.644
67636SOL     OW 4681   5.670  11.304   8.212
67636SOL    HW1 4682   5.627  11.351   8.284
67636SOL    HW2 4683   5.624  11.332   8.133
67637SOL     OW 4684   6.417   8.971  13.507
67637SOL    HW1 4685   6.397   9.023  13.429
67637SOL    HW2 4686   6.344   8.989  13.566
67638SOL     OW 4687  13.567   9.842  12.667
67638SOL    HW1 4688  13.570   9.749  12.645
67638SOL    HW2 4689  13.567   9.844  12.762
67639SOL     OW 4690   3.269   4.263  11.619
67639SOL    HW1 4691   3.275   4.177  11.661
67639SOL    HW2 4692   3.219   4.317  11.681
67640SOL     OW 4693   6.450  11.190   1.697
67640SOL    HW1 4694   6.369  11.204   1.648
67640SOL    HW2 4695   6.423  11.191   1.789
67641SOL     OW 4696   0.726  11.794   1.697
67641SOL    HW1 4697   0.733  11.826   1.607
67641SOL    HW2 4698   0.721  11.699   1.688
67642SOL     OW 4699   8.241   2.349  13.133
67642SOL    HW1 4700   8.171   2.387  13.186
67642SOL    HW2 4701   8.289   2.293  13.194
67643SOL     OW 4702   1.243   6.682  11.685
67643SOL    HW1 4703   1.247   6.719  11.774
67643SOL    HW2 4704   1.290   6.598  11.693
67644SOL     OW 4705   8.673   6.103   4.023
67644SOL    HW1 4706   8.654   6.197   4.023
67644SOL    HW2 4707   8.708   6.085   4.110
67645SOL     OW 4708  10.640   4.863  10.762
67645SOL    HW1 4709  10.593   4.843  10.843
67645SOL    HW2 4710  10.695   4.938  10.784
67646SOL     OW 4711   6.123   9.825   0.321
67646SOL    HW1 4712   6.204   9.817   0.272
67646SOL    HW2 4713   6.148   9.807   0.412
67647SOL     OW 4714   6.048   4.914  14.286
67647SOL    HW1 4715   5.996   4.981  14.329
67647SOL    HW2 4716   6.137   4.950  14.285
67648SOL     OW 4717   6.510  12.530   4.523
67648SOL    HW1 4718   6.547  12.605   4.477
67648SOL    HW2 4719   6.564  12.455   4.497
67649SOL     OW 4720   4.671  14.707   9.394
67649SOL    HW1 4721   4.746  14.752   9.354
67649SOL    HW2 4722   4.653  14.634   9.335
67650SOL     OW 4723   7.559  11.085   3.980
67650SOL    HW1 4724   7.467  11.101   3.963
67650SOL    HW2 4725   7.592  11.169   4.013
67651SOL     OW 4726   4.159   4.381   8.083
67651SOL    HW1 4727   4.207   4.452   8.040
67651SOL    HW2 4728   4.070   4.387   8.046
67652SOL     OW 4729   7.186  14.103   3.212
67652SOL    HW1 4730   7.115  14.102   3.148
67652SOL    HW2 4731   7.211  14.011   3.223
67653SOL     OW 4732   5.795   5.763   7.224
67653SOL    HW1 4733   5.703   5.758   7.199
67653SOL    HW2 4734   5.794   5.792   7.315
67654SOL     OW 4735   1.680   4.625  12.710
67654SOL    HW1 4736   1.663   4.650  12.801
67654SOL    HW2 4737   1.594   4.626  12.668
67655SOL     OW 4738  12.425  12.833   0.496
67655SOL    HW1 4739  12.453  12.901   0.435
67655SOL    HW2 4740  12.395  12.881   0.573
67656SOL     OW 4741   2.559   3.770   7.211
67656SOL    HW1 4742   2.575   3.850   7.161
67656SOL    HW2 4743   2.583   3.699   7.152
67657SOL     OW 4744   6.692  12.112   7.092
67657SOL    HW1 4745   6.747  12.054   7.040
67657SOL    HW2 4746   6.696  12.196   7.047
67658SOL     OW 4747  13.402   5.315   9.103
67658SOL    HW1 4748  13.397   5.406   9.073
67658SOL    HW2 4749  13.381   5.263   9.025
67659SOL     OW 4750   4.413  12.884   6.227
67659SOL    HW1 4751   4.367  12.829   6.163
67659SOL    HW2 4752   4.506  12.868   6.209
67660SOL     OW 4753  10.228   9.365  11.672
67660SOL    HW1 4754  10.246   9.288  11.726
67660SOL    HW2 4755  10.305   9.374  11.616
67661SOL     OW 4756   2.940   0.892   1.669
67661SOL    HW1 4757   2.856   0.926   1.638
67661SOL    HW2 4758   2.921   0.850   1.752
67662SOL     OW 4759   0.544   8.160   5.703
67662SOL    HW1 4760   0.571   8.212   5.778
67662SOL    HW2 4761   0.490   8.090   5.740
67663SOL     OW 4762   6.258   0.053   2.128
67663SOL    HW1 4763   6.221  14.863   2.072
67663SOL    HW2 4764   6.182   0.102   2.160
67664SOL     OW 4765  12.425  13.318   0.640
67664SOL    HW1 4766  12.378  13.293   0.720
67664SOL    HW2 4767  12.518  13.303   0.661
67665SOL     OW 4768   5.009   4.581   9.873
67665SOL    HW1 4769   4.946   4.555   9.806
67665SOL    HW2 4770   5.021   4.503   9.926
67666SOL     OW 4771   2.073  14.510   3.114
67666SOL    HW1 4772   2.017  14.568   3.062
67666SOL    HW2 4773   2.152  14.498   3.061
67667SOL     OW 4774   2.609  11.009   5.403
67667SOL    HW1 4775   2.703  10.988   5.406
67667SOL    HW2 4776   2.570  10.938   5.351
67668SOL     OW 4777   4.002   0.492   5.978
67668SOL    HW1 4778   4.008   0.429   5.906
67668SOL    HW2 4779   3.916   0.475   6.017
67669SOL     OW 4780   0.808   7.641  10.782
67669SOL    HW1 4781   0.778   7.692  10.857
67669SOL    HW2 4782   0.900   7.623  10.802
67670SOL     OW 4783  10.177   7.203   6.402
67670SOL    HW1 4784  10.188   7.108   6.399
67670SOL    HW2 4785  10.099   7.219   6.348
67671SOL     OW 4786   6.669   1.986   0.331
67671SOL    HW1 4787   6.763   1.993   0.351
67671SOL    HW2 4788   6.662   1.907   0.277
67672SOL     OW 4789   6.898  12.140   2.583
67672SOL    HW1 4790   6.831  12.112   2.520
67672SOL    HW2 4791   6.948  12.061   2.602
67673SOL     OW 4792   0.552   1.376   0.075
67673SOL    HW1 4793   0.622   1.378   0.140
67673SOL    HW2 4794   0.546   1.466   0.043
67674SOL     OW 4795  10.134   8.158  14.118
67674SOL    HW1 4796  10.172   8.086  14.168
67674SOL    HW2 4797  10.112   8.119  14.033
67675SOL     OW 4798   2.116  12.240   2.171
67675SOL    HW1 4799   2.144  12.171   2.232
67675SOL    HW2 4800   2.025  12.258   2.195
67676SOL     OW 4801  12.946   7.658   5.772
67676SOL    HW1 4802  13.027   7.612   5.792
67676SOL    HW2 4803  12.898   7.599   5.715
67677SOL     OW 4804   4.541  12.083  11.559
67677SOL    HW1 4805   4.456  12.040  11.567
67677SOL    HW2 4806   4.572  12.060  11.472
67678SOL     OW 4807   1.116   8.964   1.237
67678SOL    HW1 4808   1.058   8.889   1.251
67678SOL    HW2 4809   1.178   8.935   1.171
67679SOL     OW 4810   2.206  14.779   1.109
67679SOL    HW1 4811   2.141  14.840   1.143
67679SOL    HW2 4812   2.272  14.773   1.178
67680SOL     OW 4813   5.124  10.507   2.759
67680SOL    HW1 4814   5.111  10.591   2.803
67680SOL    HW2 4815   5.040  10.461   2.769
67681SOL     OW 4816   9.089   0.201   0.171
67681SOL    HW1 4817   9.119   0.137   0.106
67681SOL    HW2 4818   9.046   0.148   0.238
67682SOL     OW 4819  12.741   3.361   7.207
67682SOL    HW1 4820  12.837   3.364   7.211
67682SOL    HW2 4821  12.717   3.449   7.179
67683SOL     OW 4822   3.047   0.860   9.609
67683SOL    HW1 4823   3.118   0.878   9.670
67683SOL    HW2 4824   2.968   0.892   9.653
67684SOL     OW 4825   7.896  14.683  12.526
67684SOL    HW1 4826   7.823  14.733  12.488
67684SOL    HW2 4827   7.899  14.712  12.618
67685SOL     OW 4828  10.669  10.964   8.252
67685SOL    HW1 4829  10.753  10.938   8.291
67685SOL    HW2 4830  10.678  10.941   8.159
67686SOL     OW 4831   6.152  11.256   7.593
67686SOL    HW1 4832   6.112  11.201   7.526
67686SOL    HW2 4833   6.234  11.212   7.615
67687SOL     OW 4834   6.493   8.924  11.428
67687SOL    HW1 4835   6.488   9.005  11.479
67687SOL    HW2 4836   6.554   8.944  11.357
67688SOL     OW 4837  14.783   2.997   6.796
67688SOL    HW1 4838  14.736   2.915   6.812
67688SOL    HW2 4839  14.778   3.044   6.880
67689SOL     OW 4840   4.671   1.350   3.359
67689SOL    HW1 4841   4.739   1.282   3.357
67689SOL    HW2 4842   4.643   1.352   3.450
67690SOL     OW 4843   5.099   4.964   5.197
67690SOL    HW1 4844   5.030   4.983   5.261
67690SOL    HW2 4845   5.112   5.047   5.150
67691SOL     OW 4846   4.039   3.059   2.530
67691SOL    HW1 4847   4.024   3.152   2.546
67691SOL    HW2 4848   4.054   3.021   2.617
67692SOL     OW 4849   9.219   0.083  14.316
67692SOL    HW1 4850   9.204   0.176  14.302
67692SOL    HW2 4851   9.131   0.044  14.311
67693SOL     OW 4852   8.657   5.339  12.086
67693SOL    HW1 4853   8.587   5.347  12.021
67693SOL    HW2 4854   8.669   5.428  12.119
67694SOL     OW 4855   6.858   4.417   5.642
67694SOL    HW1 4856   6.917   4.403   5.717
67694SOL    HW2 4857   6.884   4.502   5.607
67695SOL     OW 4858   5.103   6.555   3.824
67695SOL    HW1 4859   5.082   6.573   3.732
67695SOL    HW2 4860   5.161   6.627   3.850
67696SOL     OW 4861   1.841   1.017   3.805
67696SOL    HW1 4862   1.827   1.100   3.759
67696SOL    HW2 4863   1.792   0.953   3.754
67697SOL     OW 4864  13.888   9.654   1.057
67697SOL    HW1 4865  13.931   9.736   1.080
67697SOL    HW2 4866  13.894   9.649   0.962
67698SOL     OW 4867  10.416  12.310   8.812
67698SOL    HW1 4868  10.324  12.315   8.837
67698SOL    HW2 4869  10.415  12.273   8.724
67699SOL     OW 4870   5.054  11.650  12.539
67699SOL    HW1 4871   4.987  11.692  12.485
67699SOL    HW2 4872   5.048  11.694  12.624
67700SOL     OW 4873   5.344   9.356   6.696
67700SOL    HW1 4874   5.383   9.438   6.728
67700SOL    HW2 4875   5.299   9.320   6.772
67701SOL     OW 4876   7.502  12.713   3.448
67701SOL    HW1 4877   7.440  12.754   3.388
67701SOL    HW2 4878   7.504  12.770   3.525
67702SOL     OW 4879   8.027   9.146  11.190
67702SOL    HW1 4880   8.067   9.060  11.203
67702SOL    HW2 4881   8.064   9.200  11.261
67703SOL     OW 4882  11.050  14.761   3.754
67703SOL    HW1 4883  10.994  14.783   3.680
67703SOL    HW2 4884  11.130  14.726   3.715
67704SOL     OW 4885   1.491   3.572   7.809
67704SOL    HW1 4886   1.565   3.516   7.830
67704SOL    HW2 4887   1.435   3.568   7.887
67705SOL     OW 4888   0.675   5.177  10.128
67705SOL    HW1 4889   0.636   5.247  10.180
67705SOL    HW2 4890   0.654   5.097  10.176
67706SOL     OW 4891  12.266  13.296  10.211
67706SOL    HW1 4892  12.175  13.277  10.192
67706SOL    HW2 4893  12.312  13.213  10.198
67707SOL     OW 4894   5.610   8.288   8.011
67707SOL    HW1 4895   5.516   8.304   8.017
67707SOL    HW2 4896   5.640   8.345   7.941
67708SOL     OW 4897  14.087  13.885  10.116
67708SOL    HW1 4898  14.075  13.855  10.025
67708SOL    HW2 4899  14.103  13.979  10.108
67709SOL     OW 4900   6.646   3.729  10.857
67709SOL    HW1 4901   6.738   3.751  10.846
67709SOL    HW2 4902   6.631   3.657  10.797
67710SOL     OW 4903   0.250   1.910  10.906
67710SOL    HW1 4904   0.265   1.822  10.871
67710SOL    HW2 4905   0.295   1.909  10.991
67711SOL     OW 4906   0.143  10.629   1.247
67711SOL    HW1 4907   0.061  10.662   1.212
67711SOL    HW2 4908   0.126  10.613   1.340
67712SOL     OW 4909  12.925   8.292   1.602
67712SOL    HW1 4910  12.898   8.356   1.669
67712SOL    HW2 4911  12.845   8.243   1.584
67713SOL     OW 4912  11.636   7.026   8.538
67713SOL    HW1 4913  11.644   6.933   8.516
67713SOL    HW2 4914  11.707   7.068   8.490
67714SOL     OW 4915   9.755  14.446  13.025
67714SOL    HW1 4916   9.661  14.463  13.019
67714SOL    HW2 4917   9.770  14.425  13.117
67715SOL     OW 4918   5.437   7.784   3.470
67715SOL    HW1 4919   5.465   7.852   3.410
67715SOL    HW2 4920   5.342   7.776   3.456
67716SOL     OW 4921   6.402   3.437   0.840
67716SOL    HW1 4922   6.425   3.463   0.929
67716SOL    HW2 4923   6.486   3.419   0.798
67717SOL     OW 4924   7.913   7.977   5.214
67717SOL    HW1 4925   7.928   8.024   5.132
67717SOL    HW2 4926   7.961   7.895   5.203
67718SOL     OW 4927  14.166  10.927   7.036
67718SOL    HW1 4928  14.219  11.002   7.010
67718SOL    HW2 4929  14.158  10.875   6.956
67719SOL     OW 4930   4.557   2.765  11.721
67719SOL    HW1 4931   4.526   2.697  11.780
67719SOL    HW2 4932   4.573   2.720  11.638
67720SOL     OW 4933   4.223   2.077   5.945
67720SOL    HW1 4934   4.247   2.009   5.883
67720SOL    HW2 4935   4.255   2.045   6.030
67721SOL     OW 4936   0.267   1.188  10.504
67721SOL    HW1 4937   0.280   1.095  10.521
67721SOL    HW2 4938   0.339   1.231  10.550
67722SOL     OW 4939   6.907   7.324   0.405
67722SOL    HW1 4940   6.934   7.415   0.394
67722SOL    HW2 4941   6.932   7.302   0.495
67723SOL     OW 4942  12.068   3.992   4.251
67723SOL    HW1 4943  12.116   3.914   4.222
67723SOL    HW2 4944  12.033   4.030   4.171
67724SOL     OW 4945   9.371   4.250   7.189
67724SOL    HW1 4946   9.404   4.334   7.158
67724SOL    HW2 4947   9.449   4.195   7.197
67725SOL     OW 4948   3.890   1.365  13.689
67725SOL    HW1 4949   3.919   1.404  13.606
67725SOL    HW2 4950   3.797   1.386  13.694
67726SOL     OW 4951  14.757  13.278   0.010
67726SOL    HW1 4952  14.829  13.214   0.012
67726SOL    HW2 4953  14.680  13.228   0.037
67727SOL     OW 4954   5.724  10.545   1.760
67727SOL    HW1 4955   5.778  10.575   1.834
67727SOL    HW2 4956   5.693  10.626   1.719
67728SOL     OW 4957  13.278   0.552  10.222
67728SOL    HW1 4958  13.342   0.572  10.290
67728SOL    HW2 4959  13.245   0.638  10.195
67729SOL     OW 4960   9.062  11.532   6.794
67729SOL    HW1 4961   9.059  11.609   6.850
67729SOL    HW2 4962   8.998  11.472   6.833
67730SOL     OW 4963  10.265   9.943   3.901
67730SOL    HW1 4964  10.272   9.996   3.822
67730SOL    HW2 4965  10.334   9.878   3.893
67731SOL     OW 4966   1.793  10.719   0.088
67731SOL    HW1 4967   1.829  10.631   0.100
67731SOL    HW2 4968   1.739  10.712   0.009
67732SOL     OW 4969   3.464  12.500   8.940
67732SOL    HW1 4970   3.551  12.502   8.900
67732SOL    HW2 4971   3.465  12.423   8.996
67733SOL     OW 4972   9.643   2.013  14.288
67733SOL    HW1 4973   9.624   1.958  14.364
67733SOL    HW2 4974   9.573   2.078  14.287
67734SOL     OW 4975   3.863   0.423   3.320
67734SOL    HW1 4976   3.920   0.485   3.274
67734SOL    HW2 4977   3.836   0.360   3.253
67735SOL     OW 4978   6.355   8.761   4.151
67735SOL    HW1 4979   6.423   8.828   4.162
67735SOL    HW2 4980   6.281   8.807   4.111
67736SOL     OW 4981  10.545  14.718  12.631
67736SOL    HW1 4982  10.584  14.680  12.709
67736SOL    HW2 4983  10.470  14.661  12.611
67737SOL     OW 4984   5.273  11.780  11.384
67737SOL    HW1 4985   5.234  11.707  11.432
67737SOL    HW2 4986   5.358  11.794  11.427
67738SOL     OW 4987   0.300   4.505   0.153
67738SOL    HW1 4988   0.208   4.483   0.137
67738SOL    HW2 4989   0.314   4.587   0.107
67739SOL     OW 4990   9.263   7.168   5.383
67739SOL    HW1 4991   9.180   7.206   5.353
67739SOL    HW2 4992   9.244   7.133   5.470
67740SOL     OW 4993   9.155   1.354   5.985
67740SOL    HW1 4994   9.177   1.283   5.925
67740SOL    HW2 4995   9.214   1.425   5.961
67741SOL     OW 4996   9.097  13.549  13.588
67741SOL    HW1 4997   9.121  13.584  13.503
67741SOL    HW2 4998   9.144  13.466  13.594
67742SOL     OW 4999  12.100   0.608   5.037
67742SOL    HW1 5000  12.103   0.542   5.107
67742SOL    HW2 5001  12.106   0.692   5.083
67743SOL     OW 5002   4.717   6.442  14.323
67743SOL    HW1 5003   4.656   6.371  14.307
67743SOL    HW2 5004   4.796   6.418  14.274
67744SOL     OW 5005  10.052  13.761   8.251
67744SOL    HW1 5006   9.963  13.754   8.286
67744SOL    HW2 5007  10.088  13.841   8.291
67745SOL     OW 5008   7.243   1.865   7.563
67745SOL    HW1 5009   7.245   1.918   7.642
67745SOL    HW2 5010   7.168   1.899   7.513
67746SOL     OW 5011  13.621  11.917  13.374
67746SOL    HW1 5012  13.649  11.869  13.295
67746SOL    HW2 5013  13.541  11.872  13.401
67747SOL     OW 5014   5.920   7.977  10.542
67747SOL    HW1 5015   6.003   7.991  10.497
67747SOL    HW2 5016   5.881   8.064  10.548
67748SOL     OW 5017  14.207   2.061  13.953
67748SOL    HW1 5018  14.293   2.048  13.992
67748SOL    HW2 5019  14.147   2.017  14.013
67749SOL     OW 5020   5.509  10.872   7.824
67749SOL    HW1 5021   5.485  10.932   7.753
67749SOL    HW2 5022   5.537  10.929   7.895
67750SOL     OW 5023  10.200   8.978   6.788
67750SOL    HW1 5024  10.226   8.978   6.880
67750SOL    HW2 5025  10.116   8.934   6.786
67751SOL     OW 5026   2.978  10.267   2.104
67751SOL    HW1 5027   3.008  10.200   2.166
67751SOL    HW2 5028   2.951  10.341   2.159
67752SOL     OW 5029  14.484   1.087   6.624
67752SOL    HW1 5030  14.413   1.118   6.681
67752SOL    HW2 5031  14.561   1.136   6.651
67753SOL     OW 5032  11.996   6.136  14.875
67753SOL    HW1 5033  12.046   6.169  14.800
67753SOL    HW2 5034  11.967   6.215   0.043
67754SOL     OW 5035   0.952   7.778   2.907
67754SOL    HW1 5036   1.043   7.795   2.931
67754SOL    HW2 5037   0.939   7.825   2.824
67755SOL     OW 5038   9.375  10.513   4.819
67755SOL    HW1 5039   9.411  10.594   4.781
67755SOL    HW2 5040   9.452  10.466   4.852
67756SOL     OW 5041   0.351   4.415  11.453
67756SOL    HW1 5042   0.439   4.433  11.421
67756SOL    HW2 5043   0.305   4.380  11.376
67757SOL     OW 5044   5.798   3.228   0.496
67757SOL    HW1 5045   5.707   3.203   0.477
67757SOL    HW2 5046   5.807   3.216   0.591
67758SOL     OW 5047   5.351   1.046   6.517
67758SOL    HW1 5048   5.379   1.086   6.434
67758SOL    HW2 5049   5.276   1.100   6.545
67759SOL     OW 5050   6.259  12.156  14.813
67759SOL    HW1 5051   6.246  12.209  14.734
67759SOL    HW2 5052   6.201  12.081  14.801
67760SOL     OW 5053   8.880  11.526   1.859
67760SOL    HW1 5054   8.852  11.506   1.948
67760SOL    HW2 5055   8.968  11.563   1.870
67761SOL     OW 5056   0.182   7.432  10.383
67761SOL    HW1 5057   0.102   7.460  10.426
67761SOL    HW2 5058   0.251   7.450  10.446
67762SOL     OW 5059   1.137   6.017  14.697
67762SOL    HW1 5060   1.188   5.966  14.761
67762SOL    HW2 5061   1.148   5.969  14.615
67763SOL     OW 5062   3.858   5.648   6.961
67763SOL    HW1 5063   3.897   5.567   6.993
67763SOL    HW2 5064   3.857   5.706   7.038
67764SOL     OW 5065  13.679   3.930   0.499
67764SOL    HW1 5066  13.737   3.953   0.427
67764SOL    HW2 5067  13.670   4.011   0.550
67765SOL     OW 5068  12.902   4.714   0.772
67765SOL    HW1 5069  12.933   4.748   0.857
67765SOL    HW2 5070  12.813   4.750   0.763
67766SOL     OW 5071   2.423   7.773  11.084
67766SOL    HW1 5072   2.392   7.704  11.026
67766SOL    HW2 5073   2.368   7.765  11.162
67767SOL     OW 5074   5.307   3.341   9.422
67767SOL    HW1 5075   5.280   3.353   9.513
67767SOL    HW2 5076   5.380   3.279   9.426
67768SOL     OW 5077  13.002   9.966  13.764
67768SOL    HW1 5078  13.043   9.991  13.846
67768SOL    HW2 5079  12.908   9.977  13.780
67769SOL     OW 5080   9.483   0.003   3.052
67769SOL    HW1 5081   9.419   0.050   3.106
67769SOL    HW2 5082   9.442  14.877   2.965
67770SOL     OW 5083   9.365   9.802   5.591
67770SOL    HW1 5084   9.422   9.878   5.585
67770SOL    HW2 5085   9.330   9.804   5.680
67771SOL     OW 5086   9.571   4.836  12.149
67771SOL    HW1 5087   9.586   4.794  12.064
67771SOL    HW2 5088   9.490   4.885  12.137
67772SOL     OW 5089  10.678   8.321  14.252
67772SOL    HW1 5090  10.733   8.248  14.283
67772SOL    HW2 5091  10.733   8.399  14.264
67773SOL     OW 5092   8.403   4.478   6.852
67773SOL    HW1 5093   8.339   4.521   6.795
67773SOL    HW2 5094   8.364   4.392   6.871
67774SOL     OW 5095   0.113  12.077  13.915
67774SOL    HW1 5096   0.105  12.073  13.820
67774SOL    HW2 5097   0.054  12.147  13.942
67775SOL     OW 5098   4.216   9.216   1.190
67775SOL    HW1 5099   4.236   9.180   1.104
67775SOL    HW2 5100   4.272   9.167   1.250
67776SOL     OW 5101   7.662   3.619   0.665
67776SOL    HW1 5102   7.744   3.587   0.628
67776SOL    HW2 5103   7.594   3.562   0.629
67777SOL     OW 5104   2.338   3.894   5.324
67777SOL    HW1 5105   2.427   3.923   5.345
67777SOL    HW2 5106   2.293   3.975   5.300
67778SOL     OW 5107   9.899  13.584   1.130
67778SOL    HW1 5108   9.912  13.531   1.051
67778SOL    HW2 5109   9.972  13.647   1.129
67779SOL     OW 5110   0.979  12.485   8.079
67779SOL    HW1 5111   1.047  12.545   8.110
67779SOL    HW2 5112   1.028  12.408   8.050
67780SOL     OW 5113  11.317   8.921  14.791
67780SOL    HW1 5114  11.306   8.909  14.696
67780SOL    HW2 5115  11.352   9.009  14.800
67781SOL     OW 5116   4.078   7.506  11.575
67781SOL    HW1 5117   4.078   7.455  11.495
67781SOL    HW2 5118   3.988   7.502  11.607
67782SOL     OW 5119   6.505   8.753   0.281
67782SOL    HW1 5120   6.417   8.781   0.308
67782SOL    HW2 5121   6.561   8.828   0.299
67783SOL     OW 5122   9.234  10.562  11.227
67783SOL    HW1 5123   9.298  10.496  11.253
67783SOL    HW2 5124   9.274  10.645  11.249
67784SOL     OW 5125   6.619   2.141   8.959
67784SOL    HW1 5126   6.619   2.057   8.915
67784SOL    HW2 5127   6.687   2.134   9.026
67785SOL     OW 5128   4.981   6.792   9.471
67785SOL    HW1 5129   5.009   6.752   9.554
67785SOL    HW2 5130   4.886   6.798   9.479
67786SOL     OW 5131  14.808  11.749   0.638
67786SOL    HW1 5132  14.859  11.747   0.719
67786SOL    HW2 5133  14.822  11.664   0.598
67787SOL     OW 5134   0.641   1.002  14.355
67787SOL    HW1 5135   0.679   0.921  14.321
67787SOL    HW2 5136   0.705   1.070  14.335
67788SOL     OW 5137   3.314  11.229   3.916
67788SOL    HW1 5138   3.331  11.316   3.880
67788SOL    HW2 5139   3.313  11.241   4.010
67789SOL     OW 5140  13.867  10.931   9.145
67789SOL    HW1 5141  13.891  11.017   9.178
67789SOL    HW2 5142  13.925  10.871   9.192
67790SOL     OW 5143  11.585   7.008  12.706
67790SOL    HW1 5144  11.539   7.092  12.697
67790SOL    HW2 5145  11.526   6.954  12.758
67791SOL     OW 5146  14.528   5.957  12.187
67791SOL    HW1 5147  14.448   6.009  12.175
67791SOL    HW2 5148  14.568   5.955  12.100
67792SOL     OW 5149   9.195  11.709  13.978
67792SOL    HW1 5150   9.187  11.669  14.065
67792SOL    HW2 5151   9.202  11.635  13.918
67793SOL     OW 5152  12.143   7.701   4.862
67793SOL    HW1 5153  12.109   7.693   4.951
67793SOL    HW2 5154  12.136   7.794   4.842
67794SOL     OW 5155  12.115   2.855  11.018
67794SOL    HW1 5156  12.185   2.791  11.006
67794SOL    HW2 5157  12.039   2.815  10.975
67795SOL     OW 5158   6.379   7.604   2.948
67795SOL    HW1 5159   6.305   7.545   2.962
67795SOL    HW2 5160   6.356   7.684   2.996
67796SOL     OW 5161  14.145  14.601   0.098
67796SOL    HW1 5162  14.088  14.601   0.021
67796SOL    HW2 5163  14.214  14.537   0.077
67797SOL     OW 5164   3.163   3.139   7.768
67797SOL    HW1 5165   3.167   3.107   7.859
67797SOL    HW2 5166   3.250   3.176   7.752
67798SOL     OW 5167   5.080   4.524   5.985
67798SOL    HW1 5168   4.991   4.530   6.020
67798SOL    HW2 5169   5.072   4.557   5.895
67799SOL     OW 5170   6.440  13.238   3.306
67799SOL    HW1 5171   6.529  13.272   3.297
67799SOL    HW2 5172   6.448  13.168   3.371
67800SOL     OW 5173   8.248   4.067   2.009
67800SOL    HW1 5174   8.156   4.076   2.032
67800SOL    HW2 5175   8.280   4.157   2.001
67801SOL     OW 5176   7.015  11.186   3.274
67801SOL    HW1 5177   6.977  11.100   3.261
67801SOL    HW2 5178   7.034  11.190   3.368
67802SOL     OW 5179   9.539   0.135   3.632
67802SOL    HW1 5180   9.626   0.152   3.668
67802SOL    HW2 5181   9.553   0.128   3.538
67803SOL     OW 5182   8.583   3.691  14.264
67803SOL    HW1 5183   8.622   3.619  14.215
67803SOL    HW2 5184   8.624   3.770  14.228
67804SOL     OW 5185  12.128   2.946  13.133
67804SOL    HW1 5186  12.124   2.850  13.140
67804SOL    HW2 5187  12.037   2.972  13.118
67805SOL     OW 5188   5.377   5.188  10.200
67805SOL    HW1 5189   5.343   5.114  10.249
67805SOL    HW2 5190   5.307   5.212  10.140
67806SOL     OW 5191  11.225   0.339  10.031
67806SOL    HW1 5192  11.279   0.356   9.953
67806SOL    HW2 5193  11.257   0.401  10.096
67807SOL     OW 5194   4.239   4.540   4.075
67807SOL    HW1 5195   4.239   4.605   4.005
67807SOL    HW2 5196   4.293   4.579   4.144
67808SOL     OW 5197   5.067   7.512   4.861
67808SOL    HW1 5198   4.992   7.452   4.864
67808SOL    HW2 5199   5.048   7.578   4.928
67809SOL     OW 5200   0.873   5.387  10.401
67809SOL    HW1 5201   0.796   5.351  10.357
67809SOL    HW2 5202   0.854   5.480  10.411
67810SOL     OW 5203   1.216   9.426   2.721
67810SOL    HW1 5204   1.216   9.447   2.628
67810SOL    HW2 5205   1.125   9.405   2.742
67811SOL     OW 5206   4.269   8.635   9.499
67811SOL    HW1 5207   4.308   8.722   9.503
67811SOL    HW2 5208   4.344   8.576   9.494
67812SOL     OW 5209   1.844  10.265   4.143
67812SOL    HW1 5210   1.917  10.225   4.095
67812SOL    HW2 5211   1.851  10.359   4.122
67813SOL     OW 5212  12.971   5.467  11.553
67813SOL    HW1 5213  13.062   5.477  11.580
67813SOL    HW2 5214  12.926   5.436  11.631
67814SOL     OW 5215   2.159   5.061   6.191
67814SOL    HW1 5216   2.253   5.041   6.191
67814SOL    HW2 5217   2.142   5.098   6.104
67815SOL     OW 5218   6.327  13.168   5.204
67815SOL    HW1 5219   6.267  13.204   5.269
67815SOL    HW2 5220   6.318  13.073   5.214
67816SOL     OW 5221  11.343   9.139  11.783
67816SOL    HW1 5222  11.433   9.109  11.798
67816SOL    HW2 5223  11.353   9.221  11.736
67817SOL     OW 5224   3.067   9.454  14.211
67817SOL    HW1 5225   3.031   9.470  14.124
67817SOL    HW2 5226   3.140   9.516  14.219
67818SOL     OW 5227  13.100   2.466   1.712
67818SOL    HW1 5228  13.075   2.504   1.628
67818SOL    HW2 5229  13.017   2.441   1.752
67819SOL     OW 5230  12.453  11.431   5.139
67819SOL    HW1 5231  12.538  11.396   5.111
67819SOL    HW2 5232  12.465  11.526   5.141
67820SOL     OW 5233  11.651   2.630   2.855
67820SOL    HW1 5234  11.638   2.712   2.902
67820SOL    HW2 5235  11.587   2.634   2.783
67821SOL     OW 5236   9.949   1.498   5.183
67821SOL    HW1 5237   9.859   1.494   5.150
67821SOL    HW2 5238   9.960   1.588   5.213
67822SOL     OW 5239   4.784   6.209  12.595
67822SOL    HW1 5240   4.862   6.184  12.545
67822SOL    HW2 5241   4.714   6.208  12.530
67823SOL     OW 5242   1.417   3.733  12.068
67823SOL    HW1 5243   1.375   3.671  12.128
67823SOL    HW2 5244   1.349   3.753  12.003
67824SOL     OW 5245   9.914   9.183   3.346
67824SOL    HW1 5246   9.990   9.205   3.292
67824SOL    HW2 5247   9.940   9.102   3.391
67825SOL     OW 5248   7.818   6.419   6.528
67825SOL    HW1 5249   7.789   6.328   6.532
67825SOL    HW2 5250   7.755   6.467   6.583
67826SOL     OW 5251   2.232  12.136  11.478
67826SOL    HW1 5252   2.286  12.183  11.414
67826SOL    HW2 5253   2.151  12.187  11.484
67827SOL     OW 5254   8.266   9.458  11.082
67827SOL    HW1 5255   8.316   9.436  11.160
67827SOL    HW2 5256   8.174   9.459  11.111
67828SOL     OW 5257  10.939  14.276   2.398
67828SOL    HW1 5258  10.946  14.218   2.474
67828SOL    HW2 5259  11.008  14.246   2.338
67829SOL     OW 5260   8.658  14.122   0.571
67829SOL    HW1 5261   8.666  14.106   0.477
67829SOL    HW2 5262   8.563  14.122   0.587
67830SOL     OW 5263  10.540   1.820  10.023
67830SOL    HW1 5264  10.540   1.729  10.050
67830SOL    HW2 5265  10.447   1.842  10.013
67831SOL     OW 5266  11.136  12.154  13.351
67831SOL    HW1 5267  11.055  12.180  13.394
67831SOL    HW2 5268  11.198  12.141  13.424
67832SOL     OW 5269   8.414  12.265   3.475
67832SOL    HW1 5270   8.369  12.183   3.454
67832SOL    HW2 5271   8.412  12.315   3.393
67833SOL     OW 5272  11.229   8.274   5.093
67833SOL    HW1 5273  11.220   8.189   5.049
67833SOL    HW2 5274  11.251   8.335   5.022
67834SOL     OW 5275   8.985  13.270   8.450
67834SOL    HW1 5276   8.931  13.245   8.525
67834SOL    HW2 5277   9.016  13.358   8.471
67835SOL     OW 5278   2.011   2.412   6.914
67835SOL    HW1 5279   1.997   2.435   6.823
67835SOL    HW2 5280   1.929   2.434   6.958
67836SOL     OW 5281   6.410  12.530  13.629
67836SOL    HW1 5282   6.437  12.490  13.712
67836SOL    HW2 5283   6.365  12.610  13.655
67837SOL     OW 5284   5.899   4.251   0.430
67837SOL    HW1 5285   5.991   4.246   0.404
67837SOL    HW2 5286   5.878   4.163   0.463
67838SOL     OW 5287   3.300   7.180   5.403
67838SOL    HW1 5288   3.307   7.275   5.410
67838SOL    HW2 5289   3.296   7.149   5.493
67839SOL     OW 5290   8.620  10.445   8.554
67839SOL    HW1 5291   8.708  10.483   8.562
67839SOL    HW2 5292   8.566  10.517   8.521
67840SOL     OW 5293   4.509  10.460  14.616
67840SOL    HW1 5294   4.495  10.511  14.536
67840SOL    HW2 5295   4.603  10.466  14.633
67841SOL     OW 5296  10.988   4.021   2.728
67841SOL    HW1 5297  11.028   4.036   2.642
67841SOL    HW2 5298  10.907   4.071   2.726
67842SOL     OW 5299   5.388   8.194  12.675
67842SOL    HW1 5300   5.446   8.270  12.684
67842SOL    HW2 5301   5.312   8.227  12.627
67843SOL     OW 5302   0.575  10.942   8.984
67843SOL    HW1 5303   0.495  10.932   9.035
67843SOL    HW2 5304   0.635  10.877   9.020
67844SOL     OW 5305  13.438   3.653  13.700
67844SOL    HW1 5306  13.401   3.703  13.773
67844SOL    HW2 5307  13.509   3.708  13.667
67845SOL     OW 5308   7.725   6.355   0.781
67845SOL    HW1 5309   7.638   6.316   0.792
67845SOL    HW2 5310   7.767   6.302   0.713
67846SOL     OW 5311   8.170   3.556   5.023
67846SOL    HW1 5312   8.203   3.548   5.113
67846SOL    HW2 5313   8.075   3.554   5.032
67847SOL     OW 5314   0.492   3.170   1.195
67847SOL    HW1 5315   0.403   3.181   1.228
67847SOL    HW2 5316   0.482   3.118   1.115
67848SOL     OW 5317  13.158   3.612   1.356
67848SOL    HW1 5318  13.221   3.576   1.294
67848SOL    HW2 5319  13.208   3.676   1.406
67849SOL     OW 5320   7.565  14.480  10.564
67849SOL    HW1 5321   7.479  14.482  10.604
67849SOL    HW2 5322   7.561  14.408  10.500
67850SOL     OW 5323   1.367   4.224  12.896
67850SOL    HW1 5324   1.424   4.200  12.823
67850SOL    HW2 5325   1.281   4.238  12.856
67851SOL     OW 5326  12.473   0.015   0.825
67851SOL    HW1 5327  12.407   0.006   0.893
67851SOL    HW2 5328  12.556  14.869   0.868
67852SOL     OW 5329   4.266   1.096  13.237
67852SOL    HW1 5330   4.300   1.072  13.151
67852SOL    HW2 5331   4.172   1.078  13.231
67853SOL     OW 5332   2.540  11.736   8.538
67853SOL    HW1 5333   2.599  11.811   8.534
67853SOL    HW2 5334   2.560  11.694   8.622
67854SOL     OW 5335  14.336   6.082  13.246
67854SOL    HW1 5336  14.428   6.071  13.221
67854SOL    HW2 5337  14.325   6.177  13.254
67855SOL     OW 5338   8.154   3.284  12.105
67855SOL    HW1 5339   8.123   3.233  12.180
67855SOL    HW2 5340   8.078   3.292  12.049
67856SOL     OW 5341   0.622   9.216   9.176
67856SOL    HW1 5342   0.688   9.182   9.237
67856SOL    HW2 5343   0.653   9.303   9.152
67857SOL     OW 5344  13.786   2.837   9.878
67857SOL    HW1 5345  13.840   2.847   9.956
67857SOL    HW2 5346  13.700   2.868   9.903
67858SOL     OW 5347   1.781  12.751   3.722
67858SOL    HW1 5348   1.851  12.702   3.766
67858SOL    HW2 5349   1.761  12.823   3.781
67859SOL     OW 5350   4.483   2.901   4.086
67859SOL    HW1 5351   4.445   2.927   4.002
67859SOL    HW2 5352   4.542   2.973   4.109
67860SOL     OW 5353  12.447   7.425   5.179
67860SOL    HW1 5354  12.531   7.470   5.187
67860SOL    HW2 5355  12.392   7.464   5.247
67861SOL     OW 5356   8.880   1.911  10.722
67861SOL    HW1 5357   8.924   1.983  10.676
67861SOL    HW2 5358   8.870   1.843  10.655
67862SOL     OW 5359  10.082   3.690   7.131
67862SOL    HW1 5360  10.026   3.627   7.086
67862SOL    HW2 5361  10.128   3.736   7.060
67863SOL     OW 5362   0.698   5.107   0.220
67863SOL    HW1 5363   0.668   5.196   0.203
67863SOL    HW2 5364   0.617   5.057   0.231
67864SOL     OW 5365   7.998   1.935   1.582
67864SOL    HW1 5366   8.003   2.027   1.607
67864SOL    HW2 5367   7.937   1.934   1.507
67865SOL     OW 5368   2.082  12.179   4.518
67865SOL    HW1 5369   2.080  12.113   4.448
67865SOL    HW2 5370   2.009  12.155   4.576
67866SOL     OW 5371  13.560   1.628   5.575
67866SOL    HW1 5372  13.479   1.591   5.611
67866SOL    HW2 5373  13.604   1.667   5.651
67867SOL     OW 5374   0.571  14.508   9.489
67867SOL    HW1 5375   0.503  14.440   9.480
67867SOL    HW2 5376   0.533  14.572   9.549
67868SOL     OW 5377   0.303  14.271  11.079
67868SOL    HW1 5378   0.387  14.317  11.082
67868SOL    HW2 5379   0.308  14.218  11.000
67869SOL     OW 5380  11.664   3.439   1.538
67869SOL    HW1 5381  11.595   3.404   1.595
67869SOL    HW2 5382  11.631   3.525   1.510
67870SOL     OW 5383   1.804   8.722   3.900
67870SOL    HW1 5384   1.804   8.693   3.991
67870SOL    HW2 5385   1.722   8.688   3.864
67871SOL     OW 5386   6.863   3.759  12.765
67871SOL    HW1 5387   6.804   3.741  12.838
67871SOL    HW2 5388   6.924   3.685  12.765
67872SOL     OW 5389   7.059   1.292   3.449
67872SOL    HW1 5390   7.106   1.224   3.498
67872SOL    HW2 5391   6.991   1.322   3.509
67873SOL     OW 5392  10.393  10.357  10.089
67873SOL    HW1 5393  10.363  10.267  10.104
67873SOL    HW2 5394  10.458  10.349  10.019
67874SOL     OW 5395   2.496   4.947   2.632
67874SOL    HW1 5396   2.410   4.950   2.591
67874SOL    HW2 5397   2.492   5.010   2.703
67875SOL     OW 5398   7.108   1.079   9.659
67875SOL    HW1 5399   7.107   1.140   9.586
67875SOL    HW2 5400   7.114   1.135   9.737
67876SOL     OW 5401   2.684  10.170   2.484
67876SOL    HW1 5402   2.610  10.184   2.543
67876SOL    HW2 5403   2.644  10.154   2.399
67877SOL     OW 5404   4.275   3.271   2.430
67877SOL    HW1 5405   4.280   3.235   2.518
67877SOL    HW2 5406   4.354   3.240   2.387
67878SOL     OW 5407   7.521  12.893  12.272
67878SOL    HW1 5408   7.606  12.849  12.277
67878SOL    HW2 5409   7.492  12.878  12.182
67879SOL     OW 5410   9.351   8.593  13.432
67879SOL    HW1 5411   9.383   8.668  13.482
67879SOL    HW2 5412   9.370   8.615  13.340
67880SOL     OW 5413   0.550  10.241   6.837
67880SOL    HW1 5414   0.573  10.214   6.926
67880SOL    HW2 5415   0.503  10.166   6.801
67881SOL     OW 5416   3.294  14.489   7.466
67881SOL    HW1 5417   3.252  14.574   7.479
67881SOL    HW2 5418   3.242  14.429   7.519
67882SOL     OW 5419   7.232  13.811   9.401
67882SOL    HW1 5420   7.203  13.893   9.361
67882SOL    HW2 5421   7.213  13.744   9.335
67883SOL     OW 5422  14.457   8.069   9.041
67883SOL    HW1 5423  14.366   8.085   9.068
67883SOL    HW2 5424  14.455   8.079   8.946
67884SOL     OW 5425  12.289   7.391   2.653
67884SOL    HW1 5426  12.264   7.324   2.589
67884SOL    HW2 5427  12.225   7.461   2.642
67885SOL     OW 5428   7.275  12.188  14.427
67885SOL    HW1 5429   7.314  12.170  14.513
67885SOL    HW2 5430   7.181  12.196  14.444
67886SOL     OW 5431   9.949  14.666   6.140
67886SOL    HW1 5432   9.955  14.581   6.184
67886SOL    HW2 5433   9.855  14.684   6.137
67887SOL     OW 5434  10.257   1.865   7.483
67887SOL    HW1 5435  10.235   1.776   7.507
67887SOL    HW2 5436  10.178   1.900   7.442
67888SOL     OW 5437   4.663  13.054  14.319
67888SOL    HW1 5438   4.652  13.098  14.235
67888SOL    HW2 5439   4.576  13.016  14.337
67889SOL     OW 5440   4.145   3.532   7.413
67889SOL    HW1 5441   4.189   3.474   7.351
67889SOL    HW2 5442   4.194   3.614   7.408
67890SOL     OW 5443   9.939  10.679  10.034
67890SOL    HW1 5444   9.958  10.773  10.034
67890SOL    HW2 5445   9.924  10.658  10.126
67891SOL     OW 5446  11.309   9.656   8.317
67891SOL    HW1 5447  11.346   9.588   8.373
67891SOL    HW2 5448  11.301   9.733   8.373
67892SOL     OW 5449   7.953  13.258   0.242
67892SOL    HW1 5450   8.002  13.195   0.189
67892SOL    HW2 5451   7.870  13.268   0.196
67893SOL     OW 5452   0.594  11.606   0.126
67893SOL    HW1 5453   0.605  11.526   0.177
67893SOL    HW2 5454   0.545  11.579   0.048
67894SOL     OW 5455   2.667   5.621  13.859
67894SOL    HW1 5456   2.599   5.629  13.793
67894SOL    HW2 5457   2.680   5.711  13.891
67895SOL     OW 5458   1.338   2.713  10.820
67895SOL    HW1 5459   1.327   2.774  10.747
67895SOL    HW2 5460   1.409   2.655  10.792
67896SOL     OW 5461  12.086   2.773   7.721
67896SOL    HW1 5462  12.018   2.788   7.786
67896SOL    HW2 5463  12.068   2.686   7.686
67897SOL     OW 5464  12.189  10.683   5.277
67897SOL    HW1 5465  12.134  10.628   5.332
67897SOL    HW2 5466  12.127  10.744   5.235
67898SOL     OW 5467   3.243  13.093   4.668
67898SOL    HW1 5468   3.179  13.064   4.603
67898SOL    HW2 5469   3.227  13.187   4.678
67899SOL     OW 5470   0.453  10.934  10.586
67899SOL    HW1 5471   0.541  10.937  10.623
67899SOL    HW2 5472   0.425  11.025  10.580
67900SOL     OW 5473  14.722   6.853  10.148
67900SOL    HW1 5474  14.803   6.890  10.183
67900SOL    HW2 5475  14.669   6.833  10.225
67901SOL     OW 5476   9.895   2.888  14.873
67901SOL    HW1 5477   9.887   2.855  14.784
67901SOL    HW2 5478   9.939   2.818   0.043
67902SOL     OW 5479  13.195   4.702   7.004
67902SOL    HW1 5480  13.223   4.785   7.043
67902SOL    HW2 5481  13.277   4.659   6.980
67903SOL     OW 5482   7.223  14.432   3.705
67903SOL    HW1 5483   7.273  14.398   3.779
67903SOL    HW2 5484   7.275  14.409   3.628
67904SOL     OW 5485   6.426   9.700   8.923
67904SOL    HW1 5486   6.433   9.775   8.864
67904SOL    HW2 5487   6.467   9.729   9.004
67905SOL     OW 5488   2.736  10.492   6.661
67905SOL    HW1 5489   2.674  10.531   6.722
67905SOL    HW2 5490   2.812  10.550   6.663
67906SOL     OW 5491   1.609   3.648   4.996
67906SOL    HW1 5492   1.618   3.742   4.981
67906SOL    HW2 5493   1.667   3.607   4.931
67907SOL     OW 5494   5.746  13.848   0.151
67907SOL    HW1 5495   5.736  13.774   0.091
67907SOL    HW2 5496   5.796  13.912   0.100
67908SOL     OW 5497   1.968   1.605   9.943
67908SOL    HW1 5498   1.893   1.629   9.998
67908SOL    HW2 5499   2.036   1.667   9.967
67909SOL     OW 5500   4.598   0.460  13.872
67909SOL    HW1 5501   4.531   0.479  13.937
67909SOL    HW2 5502   4.575   0.373  13.838
67910SOL     OW 5503  14.760  12.960   1.051
67910SOL    HW1 5504  14.753  12.921   1.138
67910SOL    HW2 5505  14.854  12.977   1.041
67911SOL     OW 5506  13.672   1.583  14.378
67911SOL    HW1 5507  13.621   1.646  14.328
67911SOL    HW2 5508  13.668   1.615  14.468
67912SOL     OW 5509  13.021   3.207   6.342
67912SOL    HW1 5510  13.090   3.251   6.392
67912SOL    HW2 5511  13.068   3.140   6.291
67913SOL     OW 5512   7.769  13.147   1.902
67913SOL    HW1 5513   7.682  13.110   1.893
67913SOL    HW2 5514   7.755  13.242   1.902
67914SOL     OW 5515  10.500  10.361   1.835
67914SOL    HW1 5516  10.440  10.367   1.910
67914SOL    HW2 5517  10.529  10.451   1.820
67915SOL     OW 5518   1.530   9.634  10.973
67915SOL    HW1 5519   1.606   9.637  10.915
67915SOL    HW2 5520   1.494   9.546  10.962
67916SOL     OW 5521  10.880   2.641   3.915
67916SOL    HW1 5522  10.878   2.724   3.963
67916SOL    HW2 5523  10.910   2.665   3.827
67917SOL     OW 5524   5.120   3.769   5.464
67917SOL    HW1 5525   5.136   3.705   5.534
67917SOL    HW2 5526   5.099   3.850   5.510
67918SOL     OW 5527  11.416  13.119   4.271
67918SOL    HW1 5528  11.326  13.137   4.247
67918SOL    HW2 5529  11.422  13.023   4.273
67919SOL     OW 5530   2.392   2.245   1.360
67919SOL    HW1 5531   2.401   2.187   1.436
67919SOL    HW2 5532   2.399   2.186   1.285
67920SOL     OW 5533   1.135   0.094  12.932
67920SOL    HW1 5534   1.194   0.044  12.988
67920SOL    HW2 5535   1.081   0.145  12.994
67921SOL     OW 5536   3.063  14.270  10.993
67921SOL    HW1 5537   2.987  14.312  10.954
67921SOL    HW2 5538   3.137  14.295  10.937
67922SOL     OW 5539   7.877   9.336   2.160
67922SOL    HW1 5540   7.925   9.388   2.096
67922SOL    HW2 5541   7.831   9.401   2.214
67923SOL     OW 5542   1.390   7.175  13.213
67923SOL    HW1 5543   1.426   7.140  13.132
67923SOL    HW2 5544   1.316   7.229  13.186
67924SOL     OW 5545  11.637   7.609  12.708
67924SOL    HW1 5546  11.702   7.674  12.682
67924SOL    HW2 5547  11.558   7.633  12.658
67925SOL     OW 5548  14.144  14.159   4.922
67925SOL    HW1 5549  14.172  14.224   4.857
67925SOL    HW2 5550  14.054  14.137   4.896
67926SOL     OW 5551   8.802   6.306   4.502
67926SOL    HW1 5552   8.885   6.304   4.455
67926SOL    HW2 5553   8.826   6.328   4.592
67927SOL     OW 5554  10.416   0.834  13.775
67927SOL    HW1 5555  10.325   0.805  13.780
67927SOL    HW2 5556  10.467   0.760  13.808
67928SOL     OW 5557   2.660   7.180  13.585
67928SOL    HW1 5558   2.587   7.228  13.625
67928SOL    HW2 5559   2.643   7.088  13.607
67929SOL     OW 5560  12.808  12.359   9.784
67929SOL    HW1 5561  12.879  12.401   9.737
67929SOL    HW2 5562  12.732  12.416   9.768
67930SOL     OW 5563   8.838   4.654  13.075
67930SOL    HW1 5564   8.832   4.619  13.164
67930SOL    HW2 5565   8.913   4.610  13.037
67931SOL     OW 5566   7.893   3.367   5.670
67931SOL    HW1 5567   7.939   3.421   5.606
67931SOL    HW2 5568   7.922   3.278   5.652
67932SOL     OW 5569   7.453   3.911   5.856
67932SOL    HW1 5570   7.548   3.899   5.861
67932SOL    HW2 5571   7.442   4.000   5.824
67933SOL     OW 5572   4.058   9.515  10.493
67933SOL    HW1 5573   4.093   9.570  10.422
67933SOL    HW2 5574   4.129   9.510  10.556
67934SOL     OW 5575   9.707   2.593   6.342
67934SOL    HW1 5576   9.802   2.580   6.336
67934SOL    HW2 5577   9.697   2.670   6.398
67935SOL     OW 5578  14.424  13.871   2.564
67935SOL    HW1 5579  14.331  13.887   2.547
67935SOL    HW2 5580  14.425  13.804   2.631
67936SOL     OW 5581   2.017  12.998   3.873
67936SOL    HW1 5582   2.053  13.003   3.784
67936SOL    HW2 5583   1.922  12.995   3.860
67937SOL     OW 5584   5.407   2.028   6.841
67937SOL    HW1 5585   5.468   2.075   6.898
67937SOL    HW2 5586   5.441   2.039   6.753
67938SOL     OW 5587   3.346   8.503   8.240
67938SOL    HW1 5588   3.272   8.446   8.215
67938SOL    HW2 5589   3.376   8.466   8.323
67939SOL     OW 5590   2.666   1.460  10.469
67939SOL    HW1 5591   2.600   1.454  10.539
67939SOL    HW2 5592   2.639   1.536  10.417
67940SOL     OW 5593   8.907  10.089   4.584
67940SOL    HW1 5594   8.890   9.995   4.591
67940SOL    HW2 5595   8.864  10.115   4.502
67941SOL     OW 5596  13.953   9.935   5.229
67941SOL    HW1 5597  13.871   9.886   5.229
67941SOL    HW2 5598  13.981   9.934   5.137
67942SOL     OW 5599   8.603   2.018   3.650
67942SOL    HW1 5600   8.587   1.978   3.565
67942SOL    HW2 5601   8.608   1.943   3.711
67943SOL     OW 5602  12.948   6.853  10.754
67943SOL    HW1 5603  12.924   6.802  10.677
67943SOL    HW2 5604  13.028   6.811  10.787
67944SOL     OW 5605  13.818   4.316  10.052
67944SOL    HW1 5606  13.877   4.297   9.979
67944SOL    HW2 5607  13.875   4.326  10.128
67945SOL     OW 5608   8.377  13.726   8.762
67945SOL    HW1 5609   8.317  13.657   8.733
67945SOL    HW2 5610   8.359  13.799   8.704
67946SOL     OW 5611   3.220   5.382   8.235
67946SOL    HW1 5612   3.245   5.354   8.324
67946SOL    HW2 5613   3.150   5.322   8.211
67947SOL     OW 5614  13.321  12.013  14.181
67947SOL    HW1 5615  13.233  11.983  14.206
67947SOL    HW2 5616  13.377  11.936  14.191
67948SOL     OW 5617   4.513  14.090  11.828
67948SOL    HW1 5618   4.607  14.107  11.819
67948SOL    HW2 5619   4.508  14.015  11.888
67949SOL     OW 5620   1.501   6.185   0.018
67949SOL    HW1 5621   1.568   6.138   0.068
67949SOL    HW2 5622   1.448   6.228   0.084
67950SOL     OW 5623   8.687   2.539   5.412
67950SOL    HW1 5624   8.764   2.559   5.358
67950SOL    HW2 5625   8.717   2.551   5.502
67951SOL     OW 5626  14.858   0.858   9.243
67951SOL    HW1 5627  14.789   0.800   9.209
67951SOL    HW2 5628   0.004   0.820   9.328
67952SOL     OW 5629   7.929   7.253   9.894
67952SOL    HW1 5630   7.923   7.272   9.800
67952SOL    HW2 5631   7.951   7.160   9.898
67953SOL     OW 5632  12.487   3.723   8.401
67953SOL    HW1 5633  12.425   3.797   8.399
67953SOL    HW2 5634  12.497   3.698   8.309
67954SOL     OW 5635   9.291   9.342  11.689
67954SOL    HW1 5636   9.365   9.403  11.682
67954SOL    HW2 5637   9.332   9.255  11.693
67955SOL     OW 5638   2.054   4.337   0.200
67955SOL    HW1 5639   2.056   4.269   0.268
67955SOL    HW2 5640   1.979   4.314   0.145
67956SOL     OW 5641   1.115   8.499   9.156
67956SOL    HW1 5642   1.092   8.500   9.063
67956SOL    HW2 5643   1.096   8.410   9.185
67957SOL     OW 5644  10.131   3.863   3.770
67957SOL    HW1 5645  10.093   3.933   3.823
67957SOL    HW2 5646  10.056   3.822   3.727
67958SOL     OW 5647   9.572   7.250  11.580
67958SOL    HW1 5648   9.494   7.296  11.547
67958SOL    HW2 5649   9.640   7.269  11.515
67959SOL     OW 5650   0.276   9.723  11.607
67959SOL    HW1 5651   0.298   9.813  11.582
67959SOL    HW2 5652   0.343   9.699  11.671
67960SOL     OW 5653   1.066  14.159   1.966
67960SOL    HW1 5654   1.124  14.141   2.040
67960SOL    HW2 5655   1.107  14.116   1.891
67961SOL     OW 5656   0.759  13.779   1.708
67961SOL    HW1 5657   0.752  13.737   1.794
67961SOL    HW2 5658   0.765  13.705   1.647
67962SOL     OW 5659   0.456   1.665  10.348
67962SOL    HW1 5660   0.543   1.662  10.388
67962SOL    HW2 5661   0.396   1.661  10.423
67963SOL     OW 5662   6.376   0.018   6.535
67963SOL    HW1 5663   6.430   0.096   6.521
67963SOL    HW2 5664   6.381  14.847   6.453
67964SOL     OW 5665   4.950   5.837   9.703
67964SOL    HW1 5666   4.921   5.746   9.692
67964SOL    HW2 5667   4.943   5.853   9.798
67965SOL     OW 5668   5.387   1.472   4.068
67965SOL    HW1 5669   5.451   1.463   3.996
67965SOL    HW2 5670   5.304   1.487   4.023
67966SOL     OW 5671  12.561  12.964   2.618
67966SOL    HW1 5672  12.648  12.959   2.658
67966SOL    HW2 5673  12.558  13.050   2.576
67967SOL     OW 5674  11.400   7.077  10.560
67967SOL    HW1 5675  11.358   7.155  10.524
67967SOL    HW2 5676  11.362   7.004  10.512
67968SOL     OW 5677   5.972  10.397   6.262
67968SOL    HW1 5678   5.938  10.323   6.312
67968SOL    HW2 5679   5.926  10.473   6.297
67969SOL     OW 5680  14.332   2.170   9.275
67969SOL    HW1 5681  14.294   2.165   9.187
67969SOL    HW2 5682  14.265   2.215   9.327
67970SOL     OW 5683   1.917  12.187   6.954
67970SOL    HW1 5684   1.916  12.159   7.045
67970SOL    HW2 5685   1.999  12.151   6.919
67971SOL     OW 5686   8.602  10.260   7.046
67971SOL    HW1 5687   8.696  10.275   7.044
67971SOL    HW2 5688   8.592  10.169   7.075
67972SOL     OW 5689   5.212  11.660   4.407
67972SOL    HW1 5690   5.294  11.700   4.434
67972SOL    HW2 5691   5.211  11.575   4.452
67973SOL     OW 5692   6.485   8.354  13.050
67973SOL    HW1 5693   6.396   8.320  13.059
67973SOL    HW2 5694   6.540   8.289  13.094
67974SOL     OW 5695   5.669   4.801   8.440
67974SOL    HW1 5696   5.675   4.826   8.348
67974SOL    HW2 5697   5.742   4.847   8.482
67975SOL     OW 5698  11.886   0.529   9.811
67975SOL    HW1 5699  11.897   0.623   9.825
67975SOL    HW2 5700  11.974   0.493   9.816
67976SOL     OW 5701   7.299   4.754   7.987
67976SOL    HW1 5702   7.241   4.738   8.062
67976SOL    HW2 5703   7.374   4.800   8.023
67977SOL     OW 5704   6.121   4.223   2.091
67977SOL    HW1 5705   6.032   4.246   2.121
67977SOL    HW2 5706   6.177   4.247   2.165
67978SOL     OW 5707   3.273   7.793  13.614
67978SOL    HW1 5708   3.308   7.843  13.688
67978SOL    HW2 5709   3.329   7.716  13.608
67979SOL     OW 5710  14.509   8.479   5.122
67979SOL    HW1 5711  14.563   8.523   5.056
67979SOL    HW2 5712  14.508   8.540   5.196
67980SOL     OW 5713   9.179   1.316   9.439
67980SOL    HW1 5714   9.225   1.303   9.357
67980SOL    HW2 5715   9.086   1.317   9.415
67981SOL     OW 5716  11.647   3.388   8.405
67981SOL    HW1 5717  11.620   3.339   8.483
67981SOL    HW2 5718  11.690   3.323   8.350
67982SOL     OW 5719   4.019   2.505   0.301
67982SOL    HW1 5720   4.042   2.543   0.216
67982SOL    HW2 5721   4.051   2.415   0.296
67983SOL     OW 5722  11.720   3.432   9.694
67983SOL    HW1 5723  11.768   3.349   9.691
67983SOL    HW2 5724  11.751   3.481   9.617
67984SOL     OW 5725   2.595   6.784   8.624
67984SOL    HW1 5726   2.555   6.698   8.618
67984SOL    HW2 5727   2.688   6.769   8.604
67985SOL     OW 5728   9.352  14.459  12.325
67985SOL    HW1 5729   9.288  14.530  12.314
67985SOL    HW2 5730   9.369  14.458  12.419
67986SOL     OW 5731   4.957  14.810   6.506
67986SOL    HW1 5732   4.964   0.005   6.567
67986SOL    HW2 5733   4.871  14.772   6.523
67987SOL     OW 5734   7.635   8.418   6.549
67987SOL    HW1 5735   7.609   8.384   6.463
67987SOL    HW2 5736   7.619   8.346   6.609
67988SOL     OW 5737   7.255   5.368   1.331
67988SOL    HW1 5738   7.181   5.308   1.328
67988SOL    HW2 5739   7.227   5.437   1.392
67989SOL     OW 5740   5.285   3.121   8.314
67989SOL    HW1 5741   5.298   3.116   8.220
67989SOL    HW2 5742   5.339   3.195   8.342
67990SOL     OW 5743   4.919   9.095   3.602
67990SOL    HW1 5744   4.875   9.143   3.532
67990SOL    HW2 5745   4.850   9.077   3.666
67991SOL     OW 5746   7.205   9.070  11.717
67991SOL    HW1 5747   7.231   9.063  11.625
67991SOL    HW2 5748   7.112   9.093  11.713
67992SOL     OW 5749  14.087   9.627   9.142
67992SOL    HW1 5750  14.008   9.660   9.185
67992SOL    HW2 5751  14.137   9.585   9.212
67993SOL     OW 5752  14.503  14.638   8.416
67993SOL    HW1 5753  14.533  14.547   8.415
67993SOL    HW2 5754  14.481  14.657   8.325
67994SOL     OW 5755  11.169   7.310   6.844
67994SOL    HW1 5756  11.076   7.315   6.868
67994SOL    HW2 5757  11.170   7.262   6.761
67995SOL     OW 5758  12.926   1.511   7.308
67995SOL    HW1 5759  12.858   1.466   7.359
67995SOL    HW2 5760  12.995   1.529   7.371
67996SOL     OW 5761   3.508   1.737   5.894
67996SOL    HW1 5762   3.438   1.692   5.941
67996SOL    HW2 5763   3.531   1.811   5.950
67997SOL     OW 5764   0.598   4.119   4.157
67997SOL    HW1 5765   0.567   4.147   4.242
67997SOL    HW2 5766   0.577   4.025   4.154
67998SOL     OW 5767   6.119  13.361   6.083
67998SOL    HW1 5768   6.028  13.372   6.054
67998SOL    HW2 5769   6.123  13.409   6.166
67999SOL     OW 5770   5.718   7.482   9.057
67999SOL    HW1 5771   5.706   7.398   9.012
67999SOL    HW2 5772   5.813   7.494   9.059
68000SOL     OW 5773   0.168  10.973   8.520
68000SOL    HW1 5774   0.075  10.996   8.530
68000SOL    HW2 5775   0.205  11.045   8.468
68001SOL     OW 5776  13.617   5.347   6.323
68001SOL    HW1 5777  13.536   5.341   6.373
68001SOL    HW2 5778  13.658   5.261   6.334
68002SOL     OW 5779   5.400   5.735   4.135
68002SOL    HW1 5780   5.317   5.777   4.112
68002SOL    HW2 5781   5.464   5.774   4.075
68003SOL     OW 5782   8.056   8.245   0.552
68003SOL    HW1 5783   8.104   8.222   0.631
68003SOL    HW2 5784   8.121   8.242   0.482
68004SOL     OW 5785  14.728  12.476   0.625
68004SOL    HW1 5786  14.768  12.515   0.548
68004SOL    HW2 5787  14.802  12.436   0.672
68005SOL     OW 5788   4.063  14.525   6.717
68005SOL    HW1 5789   3.989  14.530   6.657
68005SOL    HW2 5790   4.117  14.454   6.683
68006SOL     OW 5791  10.786  12.632   0.360
68006SOL    HW1 5792  10.798  12.567   0.291
68006SOL    HW2 5793  10.848  12.606   0.428
68007SOL     OW 5794   2.774   1.787   3.031
68007SOL    HW1 5795   2.806   1.812   3.118
68007SOL    HW2 5796   2.771   1.868   2.982
68008SOL     OW 5797   9.548  10.215   5.222
68008SOL    HW1 5798   9.583  10.172   5.145
68008SOL    HW2 5799   9.493  10.286   5.188
68009SOL     OW 5800   8.218  14.842   3.516
68009SOL    HW1 5801   8.230  14.838   3.421
68009SOL    HW2 5802   8.126  14.869   3.527
68010SOL     OW 5803  13.283  12.489  10.996
68010SOL    HW1 5804  13.302  12.440  11.076
68010SOL    HW2 5805  13.270  12.421  10.929
68011SOL     OW 5806   7.396   5.232   3.884
68011SOL    HW1 5807   7.346   5.155   3.859
68011SOL    HW2 5808   7.338   5.306   3.866
68012SOL     OW 5809  12.734   8.988  14.108
68012SOL    HW1 5810  12.663   9.049  14.126
68012SOL    HW2 5811  12.781   9.027  14.034
68013SOL     OW 5812   9.773   3.444   0.412
68013SOL    HW1 5813   9.798   3.515   0.353
68013SOL    HW2 5814   9.687   3.416   0.380
68014SOL     OW 5815   0.864  14.535   0.178
68014SOL    HW1 5816   0.780  14.570   0.149
68014SOL    HW2 5817   0.891  14.476   0.108
68015SOL     OW 5818   9.792   8.881   3.338
68015SOL    HW1 5819   9.733   8.819   3.380
68015SOL    HW2 5820   9.784   8.863   3.244
68016SOL     OW 5821   0.774   0.473  12.438
68016SOL    HW1 5822   0.778   0.462  12.533
68016SOL    HW2 5823   0.789   0.567  12.424
68017SOL     OW 5824   7.262   2.059   3.808
68017SOL    HW1 5825   7.318   2.134   3.790
68017SOL    HW2 5826   7.173   2.095   3.804
68018SOL     OW 5827   9.241   6.280  14.028
68018SOL    HW1 5828   9.248   6.251  13.937
68018SOL    HW2 5829   9.325   6.323  14.046
68019SOL     OW 5830   6.505  11.543   2.201
68019SOL    HW1 5831   6.529  11.566   2.290
68019SOL    HW2 5832   6.439  11.474   2.210
68020SOL     OW 5833  13.399   0.380   9.183
68020SOL    HW1 5834  13.445   0.370   9.267
68020SOL    HW2 5835  13.460   0.344   9.118
68021SOL     OW 5836   1.119  12.375   3.364
68021SOL    HW1 5837   1.103  12.305   3.428
68021SOL    HW2 5838   1.036  12.424   3.361
68022SOL     OW 5839   0.082  12.680  14.690
68022SOL    HW1 5840   0.062  12.605  14.746
68022SOL    HW2 5841   0.137  12.736  14.744
68023SOL     OW 5842   1.461   5.053   1.965
68023SOL    HW1 5843   1.500   5.138   1.945
68023SOL    HW2 5844   1.452   5.052   2.060
68024SOL     OW 5845  11.814   0.204  14.742
68024SOL    HW1 5846  11.752   0.132  14.746
68024SOL    HW2 5847  11.799   0.252  14.824
68025SOL     OW 5848  10.652   3.368  10.791
68025SOL    HW1 5849  10.716   3.422  10.746
68025SOL    HW2 5850  10.705   3.310  10.846
68026SOL     OW 5851  10.487   4.675  14.215
68026SOL    HW1 5852  10.484   4.730  14.294
68026SOL    HW2 5853  10.400   4.684  14.177
68027SOL     OW 5854  10.826   6.799   0.616
68027SOL    HW1 5855  10.806   6.707   0.628
68027SOL    HW2 5856  10.916   6.800   0.582
68028SOL     OW 5857  11.647   3.663  11.612
68028SOL    HW1 5858  11.676   3.588  11.561
68028SOL    HW2 5859  11.613   3.625  11.693
68029SOL     OW 5860  14.139   1.258  10.492
68029SOL    HW1 5861  14.046   1.261  10.514
68029SOL    HW2 5862  14.154   1.335  10.438
68030SOL     OW 5863  10.385   9.868   8.315
68030SOL    HW1 5864  10.371   9.891   8.224
68030SOL    HW2 5865  10.372   9.949   8.363
68031SOL     OW 5866   5.430   8.489   9.729
68031SOL    HW1 5867   5.514   8.526   9.756
68031SOL    HW2 5868   5.368   8.562   9.738
68032SOL     OW 5869   6.453  10.619   5.848
68032SOL    HW1 5870   6.360  10.605   5.833
68032SOL    HW2 5871   6.497  10.550   5.798
68033SOL     OW 5872  12.095   2.226   4.954
68033SOL    HW1 5873  12.160   2.256   5.018
68033SOL    HW2 5874  12.138   2.154   4.908
68034SOL     OW 5875   9.865  10.649   5.066
68034SOL    HW1 5876   9.845  10.731   5.021
68034SOL    HW2 5877   9.927  10.604   5.009
68035SOL     OW 5878   2.516   7.281  10.809
68035SOL    HW1 5879   2.498   7.238  10.725
68035SOL    HW2 5880   2.554   7.365  10.785
68036SOL     OW 5881   8.347  14.809   1.639
68036SOL    HW1 5882   8.301  14.741   1.689
68036SOL    HW2 5883   8.334   0.011   1.690
68037SOL     OW 5884  12.693  13.259  10.028
68037SOL    HW1 5885  12.759  13.320  10.061
68037SOL    HW2 5886  12.686  13.192  10.096
68038SOL     OW 5887   9.594   9.462  13.675
68038SOL    HW1 5888   9.681   9.423  13.672
68038SOL    HW2 5889   9.592   9.509  13.758
68039SOL     OW 5890   5.043  13.204  10.543
68039SOL    HW1 5891   4.980  13.231  10.611
68039SOL    HW2 5892   5.116  13.166  10.592
68040SOL     OW 5893  12.375  10.247   4.690
68040SOL    HW1 5894  12.320  10.226   4.615
68040SOL    HW2 5895  12.460  10.271   4.653
68041SOL     OW 5896   7.786  10.902  11.116
68041SOL    HW1 5897   7.828  10.833  11.167
68041SOL    HW2 5898   7.702  10.865  11.090
68042SOL     OW 5899  13.585  10.223  11.445
68042SOL    HW1 5900  13.541  10.138  11.437
68042SOL    HW2 5901  13.662  10.204  11.499
68043SOL     OW 5902   2.885  11.728   9.320
68043SOL    HW1 5903   2.928  11.646   9.342
68043SOL    HW2 5904   2.894  11.782   9.398
68044SOL     OW 5905   4.166  10.784   1.479
68044SOL    HW1 5906   4.198  10.732   1.552
68044SOL    HW2 5907   4.131  10.720   1.417
68045SOL     OW 5908   3.421   3.682   2.508
68045SOL    HW1 5909   3.390   3.632   2.583
68045SOL    HW2 5910   3.348   3.740   2.485
68046SOL     OW 5911  13.570   1.102   8.313
68046SOL    HW1 5912  13.655   1.145   8.328
68046SOL    HW2 5913  13.540   1.138   8.230
68047SOL     OW 5914   1.347   6.888  11.873
68047SOL    HW1 5915   1.355   6.979  11.844
68047SOL    HW2 5916   1.255   6.877  11.894
68048SOL     OW 5917   4.152   4.618   9.997
68048SOL    HW1 5918   4.098   4.694  10.020
68048SOL    HW2 5919   4.134   4.554  10.066
68049SOL     OW 5920  10.127   5.282  10.411
68049SOL    HW1 5921  10.133   5.375  10.388
68049SOL    HW2 5922  10.214   5.248  10.394
68050SOL     OW 5923   4.453  14.638   7.320
68050SOL    HW1 5924   4.376  14.650   7.265
68050SOL    HW2 5925   4.526  14.634   7.258
68051SOL     OW 5926   4.480   6.757   5.330
68051SOL    HW1 5927   4.542   6.821   5.294
68051SOL    HW2 5928   4.460   6.699   5.257
68052SOL     OW 5929  13.158   0.331  12.136
68052SOL    HW1 5930  13.111   0.406  12.174
68052SOL    HW2 5931  13.214   0.369  12.069
68053SOL     OW 5932   3.191   2.165   0.588
68053SOL    HW1 5933   3.246   2.123   0.654
68053SOL    HW2 5934   3.141   2.094   0.548
68054SOL     OW 5935   3.374   0.238   0.160
68054SOL    HW1 5936   3.428   0.315   0.182
68054SOL    HW2 5937   3.434   0.164   0.169
68055SOL     OW 5938   5.951   3.991   7.099
68055SOL    HW1 5939   6.022   3.949   7.052
68055SOL    HW2 5940   5.887   4.015   7.032
68056SOL     OW 5941  14.701  10.984   0.259
68056SOL    HW1 5942  14.760  11.016   0.190
68056SOL    HW2 5943  14.624  11.040   0.253
68057SOL     OW 5944   1.288   7.983  11.213
68057SOL    HW1 5945   1.313   7.951  11.300
68057SOL    HW2 5946   1.252   7.906  11.169
68058SOL     OW 5947   8.618   9.674   8.670
68058SOL    HW1 5948   8.553   9.610   8.640
68058SOL    HW2 5949   8.632   9.731   8.594
68059SOL     OW 5950   5.561   0.333   6.518
68059SOL    HW1 5951   5.653   0.316   6.539
68059SOL    HW2 5952   5.529   0.251   6.483
68060SOL     OW 5953  11.366   6.868   8.034
68060SOL    HW1 5954  11.295   6.922   8.000
68060SOL    HW2 5955  11.443   6.925   8.035
68061SOL     OW 5956   3.577  12.727   3.573
68061SOL    HW1 5957   3.662  12.720   3.617
68061SOL    HW2 5958   3.561  12.639   3.539
68062SOL     OW 5959  11.256  11.465  12.224
68062SOL    HW1 5960  11.217  11.413  12.154
68062SOL    HW2 5961  11.289  11.544  12.179
68063SOL     OW 5962   4.001  10.178   3.471
68063SOL    HW1 5963   4.097  10.182   3.464
68063SOL    HW2 5964   3.984  10.097   3.520
68064SOL     OW 5965   6.017   0.758   3.269
68064SOL    HW1 5966   6.005   0.664   3.257
68064SOL    HW2 5967   6.090   0.765   3.331
68065SOL     OW 5968  14.469   2.622   0.515
68065SOL    HW1 5969  14.376   2.611   0.534
68065SOL    HW2 5970  14.507   2.534   0.524
68066SOL     OW 5971   0.415   0.510  11.795
68066SOL    HW1 5972   0.440   0.468  11.878
68066SOL    HW2 5973   0.440   0.447  11.728
68067SOL     OW 5974   0.101   5.917   3.444
68067SOL    HW1 5975   0.108   5.861   3.366
68067SOL    HW2 5976   0.008   5.917   3.465
68068SOL     OW 5977  12.317   1.608  14.497
68068SOL    HW1 5978  12.368   1.672  14.547
68068SOL    HW2 5979  12.227   1.639  14.502
68069SOL     OW 5980   3.627   2.437   3.675
68069SOL    HW1 5981   3.635   2.532   3.689
68069SOL    HW2 5982   3.622   2.401   3.764
68070SOL     OW 5983   0.483  14.007   1.877
68070SOL    HW1 5984   0.491  13.999   1.782
68070SOL    HW2 5985   0.496  14.100   1.895
68071SOL     OW 5986   3.693  14.110   1.783
68071SOL    HW1 5987   3.748  14.188   1.791
68071SOL    HW2 5988   3.625  14.134   1.720
68072SOL     OW 5989  10.604   5.613  12.903
68072SOL    HW1 5990  10.597   5.570  12.988
68072SOL    HW2 5991  10.693   5.595  12.874
68073SOL     OW 5992  13.192   0.693   5.267
68073SOL    HW1 5993  13.248   0.721   5.339
68073SOL    HW2 5994  13.114   0.748   5.275
68074SOL     OW 5995   7.064  14.153   8.686
68074SOL    HW1 5996   7.108  14.135   8.603
68074SOL    HW2 5997   7.076  14.247   8.699
68075SOL     OW 5998  14.340   7.128  13.190
68075SOL    HW1 5999  14.398   7.203  13.178
68075SOL    HW2 6000  14.331   7.090  13.102
68076SOL     OW 6001   1.571  10.663   8.142
68076SOL    HW1 6002   1.555  10.741   8.089
68076SOL    HW2 6003   1.603  10.597   8.081
68077SOL     OW 6004   9.165   2.357   7.300
68077SOL    HW1 6005   9.121   2.442   7.297
68077SOL    HW2 6006   9.244   2.373   7.351
68078SOL     OW 6007   3.119   0.313  11.572
68078SOL    HW1 6008   3.193   0.278  11.523
68078SOL    HW2 6009   3.042   0.280  11.526
68079SOL     OW 6010   4.548   8.181   9.980
68079SOL    HW1 6011   4.504   8.253   9.935
68079SOL    HW2 6012   4.487   8.107   9.973
68080SOL     OW 6013  10.838   1.884  10.311
68080SOL    HW1 6014  10.878   1.911  10.228
68080SOL    HW2 6015  10.752   1.926  10.311
68081SOL     OW 6016  12.798  13.112   5.003
68081SOL    HW1 6017  12.781  13.018   5.012
68081SOL    HW2 6018  12.830  13.122   4.913
68082SOL     OW 6019  14.418   7.323   0.506
68082SOL    HW1 6020  14.504   7.281   0.511
68082SOL    HW2 6021  14.390   7.310   0.416
68083SOL     OW 6022   5.395   0.866  11.243
68083SOL    HW1 6023   5.484   0.832  11.246
68083SOL    HW2 6024   5.366   0.851  11.153
68084SOL     OW 6025   6.500   2.313  12.586
68084SOL    HW1 6026   6.509   2.365  12.665
68084SOL    HW2 6027   6.456   2.372  12.524
68085SOL     OW 6028   3.354   2.771  10.272
68085SOL    HW1 6029   3.271   2.723  10.273
68085SOL    HW2 6030   3.398   2.740  10.193
68086SOL     OW 6031  12.722  10.221   1.095
68086SOL    HW1 6032  12.639  10.263   1.071
68086SOL    HW2 6033  12.788  10.268   1.045
68087SOL     OW 6034   3.141   8.114   1.583
68087SOL    HW1 6035   3.227   8.153   1.565
68087SOL    HW2 6036   3.081   8.189   1.585
68088SOL     OW 6037   5.604  13.206   7.903
68088SOL    HW1 6038   5.653  13.155   7.838
68088SOL    HW2 6039   5.672  13.254   7.951
68089SOL     OW 6040   7.971  14.541   3.852
68089SOL    HW1 6041   8.048  14.496   3.887
68089SOL    HW2 6042   7.906  14.534   3.921
68090SOL     OW 6043   4.595   1.678   6.933
68090SOL    HW1 6044   4.542   1.610   6.890
68090SOL    HW2 6045   4.658   1.629   6.986
68091SOL     OW 6046  12.816  11.356   7.485
68091SOL    HW1 6047  12.865  11.309   7.417
68091SOL    HW2 6048  12.810  11.446   7.452
68092SOL     OW 6049  12.840   9.289  13.061
68092SOL    HW1 6050  12.834   9.287  13.157
68092SOL    HW2 6051  12.795   9.370  13.036
68093SOL     OW 6052   2.236  14.153  13.170
68093SOL    HW1 6053   2.224  14.200  13.087
68093SOL    HW2 6054   2.166  14.186  13.227
68094SOL     OW 6055  12.001   3.122   0.849
68094SOL    HW1 6056  11.950   3.106   0.770
68094SOL    HW2 6057  12.058   3.045   0.856
68095SOL     OW 6058   0.876   5.686   6.702
68095SOL    HW1 6059   0.879   5.611   6.762
68095SOL    HW2 6060   0.964   5.692   6.666
68096SOL     OW 6061   1.827   4.443   7.957
68096SOL    HW1 6062   1.897   4.463   7.895
68096SOL    HW2 6063   1.748   4.435   7.903
68097SOL     OW 6064   2.379   6.674  14.431
68097SOL    HW1 6065   2.358   6.581  14.417
68097SOL    HW2 6066   2.294   6.716  14.444
68098SOL     OW 6067   4.924   3.570   5.729
68098SOL    HW1 6068   4.972   3.526   5.799
68098SOL    HW2 6069   4.946   3.521   5.650
68099SOL     OW 6070  14.432   9.128   5.362
68099SOL    HW1 6071  14.452   9.058   5.424
68099SOL    HW2 6072  14.518   9.155   5.328
68100SOL     OW 6073   9.601   7.037   4.688
68100SOL    HW1 6074   9.668   7.094   4.727
68100SOL    HW2 6075   9.589   6.967   4.751
68101SOL     OW 6076   1.390  12.943   7.817
68101SOL    HW1 6077   1.349  12.957   7.732
68101SOL    HW2 6078   1.483  12.930   7.797
68102SOL     OW 6079   0.368   8.622   1.688
68102SOL    HW1 6080   0.379   8.633   1.783
68102SOL    HW2 6081   0.429   8.552   1.666
68103SOL     OW 6082   3.316   7.377   3.552
68103SOL    HW1 6083   3.277   7.333   3.476
68103SOL    HW2 6084   3.410   7.360   3.545
68104SOL     OW 6085   9.239   1.373   5.215
68104SOL    HW1 6086   9.264   1.285   5.188
68104SOL    HW2 6087   9.179   1.360   5.288
68105SOL     OW 6088  14.704   1.701   7.053
68105SOL    HW1 6089  14.694   1.753   6.973
68105SOL    HW2 6090  14.614   1.685   7.082
68106SOL     OW 6091   1.811   7.984   8.610
68106SOL    HW1 6092   1.836   7.892   8.598
68106SOL    HW2 6093   1.745   7.981   8.679
68107SOL     OW 6094  13.692  12.654   7.743
68107SOL    HW1 6095  13.671  12.740   7.778
68107SOL    HW2 6096  13.646  12.593   7.801
68108SOL     OW 6097   5.549  11.148   9.647
68108SOL    HW1 6098   5.520  11.237   9.666
68108SOL    HW2 6099   5.632  11.159   9.600
68109SOL     OW 6100   9.742  14.365   7.079
68109SOL    HW1 6101   9.721  14.307   7.152
68109SOL    HW2 6102   9.838  14.370   7.080
68110SOL     OW 6103   1.561   5.469   4.147
68110SOL    HW1 6104   1.468   5.446   4.153
68110SOL    HW2 6105   1.580   5.514   4.229
68111SOL     OW 6106  14.095   2.867  12.568
68111SOL    HW1 6107  14.098   2.929  12.640
68111SOL    HW2 6108  14.006   2.874  12.534
68112SOL     OW 6109   1.534  13.874   1.896
68112SOL    HW1 6110   1.483  13.911   1.969
68112SOL    HW2 6111   1.522  13.779   1.905
68113SOL     OW 6112   6.491  10.029   1.480
68113SOL    HW1 6113   6.537  10.093   1.426
68113SOL    HW2 6114   6.417  10.077   1.517
68114SOL     OW 6115   0.077  13.479  10.846
68114SOL    HW1 6116   0.103  13.485  10.754
68114SOL    HW2 6117   0.115  13.396  10.876
68115SOL     OW 6118   7.841   8.818   2.093
68115SOL    HW1 6119   7.798   8.904   2.088
68115SOL    HW2 6120   7.886   8.808   2.009
68116SOL     OW 6121   6.941  11.754  10.724
68116SOL    HW1 6122   6.963  11.844  10.701
68116SOL    HW2 6123   7.021  11.704  10.706
68117SOL     OW 6124   6.853  13.031   2.954
68117SOL    HW1 6125   6.945  13.058   2.952
68117SOL    HW2 6126   6.856  12.935   2.961
68118SOL     OW 6127   8.657   3.757   0.830
68118SOL    HW1 6128   8.669   3.761   0.925
68118SOL    HW2 6129   8.563   3.741   0.818
68119SOL     OW 6130  11.743  10.910   5.992
68119SOL    HW1 6131  11.775  10.946   5.909
68119SOL    HW2 6132  11.650  10.932   5.993
68120SOL     OW 6133   2.083   4.699   7.791
68120SOL    HW1 6134   2.042   4.615   7.769
68120SOL    HW2 6135   2.019   4.765   7.765
68121SOL     OW 6136  11.700   4.339  12.851
68121SOL    HW1 6137  11.707   4.261  12.906
68121SOL    HW2 6138  11.722   4.308  12.763
68122SOL     OW 6139  10.672   6.019   0.914
68122SOL    HW1 6140  10.677   5.958   0.840
68122SOL    HW2 6141  10.716   6.099   0.882
68123SOL     OW 6142  11.405   4.213   0.065
68123SOL    HW1 6143  11.359   4.175   0.140
68123SOL    HW2 6144  11.430   4.138   0.012
68124SOL     OW 6145   8.661   7.415  12.942
68124SOL    HW1 6146   8.698   7.487  12.994
68124SOL    HW2 6147   8.735   7.384  12.889
68125SOL     OW 6148   1.054   3.234   1.939
68125SOL    HW1 6149   1.082   3.143   1.949
68125SOL    HW2 6150   1.128   3.279   1.898
68126SOL     OW 6151  10.814   6.169   0.679
68126SOL    HW1 6152  10.759   6.096   0.651
68126SOL    HW2 6153  10.779   6.245   0.632
68127SOL     OW 6154  13.002   8.256   8.861
68127SOL    HW1 6155  12.913   8.221   8.862
68127SOL    HW2 6156  13.005   8.317   8.935
68128SOL     OW 6157  12.574  14.760   4.406
68128SOL    HW1 6158  12.635  14.687   4.392
68128SOL    HW2 6159  12.494  14.734   4.360
68129SOL     OW 6160   8.322  12.036   7.538
68129SOL    HW1 6161   8.259  12.096   7.497
68129SOL    HW2 6162   8.406  12.082   7.533
68130SOL     OW 6163   5.067   7.761   1.252
68130SOL    HW1 6164   5.119   7.833   1.218
68130SOL    HW2 6165   5.117   7.682   1.227
68131SOL     OW 6166   3.831   7.935  11.619
68131SOL    HW1 6167   3.834   7.871  11.690
68131SOL    HW2 6168   3.861   8.016  11.660
68132SOL     OW 6169  13.625   3.574   8.381
68132SOL    HW1 6170  13.660   3.553   8.295
68132SOL    HW2 6171  13.659   3.661   8.400
68133SOL     OW 6172  12.596   7.251   8.354
68133SOL    HW1 6173  12.665   7.314   8.376
68133SOL    HW2 6174  12.609   7.234   8.260
68134SOL     OW 6175   3.743  14.728   0.265
68134SOL    HW1 6176   3.808  14.682   0.318
68134SOL    HW2 6177   3.722  14.668   0.194
68135SOL     OW 6178   7.569   1.399  10.135
68135SOL    HW1 6179   7.532   1.486  10.126
68135SOL    HW2 6180   7.662   1.410  10.115
68136SOL     OW 6181   6.009   5.276   7.365
68136SOL    HW1 6182   5.931   5.332   7.373
68136SOL    HW2 6183   6.011   5.226   7.446
68137SOL     OW 6184   4.715  11.681   1.114
68137SOL    HW1 6185   4.736  11.762   1.161
68137SOL    HW2 6186   4.789  11.622   1.133
68138SOL     OW 6187  11.140   4.346   2.867
68138SOL    HW1 6188  11.213   4.340   2.806
68138SOL    HW2 6189  11.062   4.328   2.814
68139SOL     OW 6190   3.072  12.060   7.603
68139SOL    HW1 6191   3.080  12.150   7.570
68139SOL    HW2 6192   3.042  12.010   7.528
68140SOL     OW 6193  14.635  13.188  10.326
68140SOL    HW1 6194  14.629  13.279  10.355
68140SOL    HW2 6195  14.564  13.144  10.372
68141SOL     OW 6196   5.183   2.481   0.137
68141SOL    HW1 6197   5.168   2.410   0.199
68141SOL    HW2 6198   5.240   2.542   0.184
68142SOL     OW 6199   1.665   0.812   3.426
68142SOL    HW1 6200   1.601   0.865   3.473
68142SOL    HW2 6201   1.701   0.753   3.492
68143SOL     OW 6202   7.524  10.299  12.042
68143SOL    HW1 6203   7.516  10.274  12.134
68143SOL    HW2 6204   7.433  10.306  12.011
68144SOL     OW 6205   5.634   1.438   6.283
68144SOL    HW1 6206   5.541   1.422   6.271
68144SOL    HW2 6207   5.674   1.402   6.203
68145SOL     OW 6208  14.208   5.887  11.365
68145SOL    HW1 6209  14.269   5.924  11.429
68145SOL    HW2 6210  14.249   5.805  11.338
68146SOL     OW 6211   0.975   7.643  10.429
68146SOL    HW1 6212   0.965   7.732  10.463
68146SOL    HW2 6213   1.065   7.618  10.453
68147SOL     OW 6214  10.510   7.371   1.210
68147SOL    HW1 6215  10.503   7.326   1.294
68147SOL    HW2 6216  10.536   7.303   1.148
68148SOL     OW 6217   2.286   2.718   8.748
68148SOL    HW1 6218   2.371   2.673   8.742
68148SOL    HW2 6219   2.307   2.810   8.728
68149SOL     OW 6220   2.230  11.814   5.736
68149SOL    HW1 6221   2.216  11.729   5.694
68149SOL    HW2 6222   2.166  11.872   5.695
68150SOL     OW 6223   5.773   1.511   8.511
68150SOL    HW1 6224   5.750   1.552   8.594
68150SOL    HW2 6225   5.692   1.510   8.461
68151SOL     OW 6226   6.072   9.081  13.977
68151SOL    HW1 6227   6.101   9.147  14.040
68151SOL    HW2 6228   6.076   8.998  14.025
68152SOL     OW 6229  14.643   8.213   4.732
68152SOL    HW1 6230  14.738   8.224   4.733
68152SOL    HW2 6231  14.627   8.135   4.785
68153SOL     OW 6232  10.268   5.948   0.343
68153SOL    HW1 6233  10.185   5.903   0.356
68153SOL    HW2 6234  10.261   5.986   0.255
68154SOL     OW 6235  12.537   0.501  10.951
68154SOL    HW1 6236  12.443   0.518  10.960
68154SOL    HW2 6237  12.569   0.572  10.896
68155SOL     OW 6238   4.248   7.621   2.030
68155SOL    HW1 6239   4.287   7.547   1.983
68155SOL    HW2 6240   4.252   7.595   2.122
68156SOL     OW 6241   6.572  13.909   5.264
68156SOL    HW1 6242   6.555  13.950   5.349
68156SOL    HW2 6243   6.522  13.962   5.202
68157SOL     OW 6244   2.444   3.394   7.438
68157SOL    HW1 6245   2.515   3.346   7.396
68157SOL    HW2 6246   2.445   3.480   7.395
68158SOL     OW 6247   7.807   5.281  13.205
68158SOL    HW1 6248   7.849   5.195  13.204
68158SOL    HW2 6249   7.870   5.339  13.161
68159SOL     OW 6250   0.950   3.981  11.989
68159SOL    HW1 6251   0.998   3.899  11.999
68159SOL    HW2 6252   0.962   4.026  12.072
68160SOL     OW 6253   9.921   0.461  13.125
68160SOL    HW1 6254   9.926   0.366  13.133
68160SOL    HW2 6255   9.827   0.480  13.120
68161SOL     OW 6256   5.883   9.066   6.389
68161SOL    HW1 6257   5.840   8.984   6.367
68161SOL    HW2 6258   5.941   9.084   6.315
68162SOL     OW 6259   2.366  14.282   5.810
68162SOL    HW1 6260   2.418  14.334   5.871
68162SOL    HW2 6261   2.427  14.258   5.740
68163SOL     OW 6262  11.733   9.241   2.022
68163SOL    HW1 6263  11.738   9.146   2.017
68163SOL    HW2 6264  11.676   9.266   1.950
68164SOL     OW 6265  11.745   3.661  10.187
68164SOL    HW1 6266  11.834   3.626  10.194
68164SOL    HW2 6267  11.727   3.663  10.093
68165SOL     OW 6268   0.175  12.255  10.599
68165SOL    HW1 6269   0.085  12.260  10.568
68165SOL    HW2 6270   0.193  12.161  10.605
68166SOL     OW 6271   0.753   6.839  13.500
68166SOL    HW1 6272   0.797   6.923  13.493
68166SOL    HW2 6273   0.678   6.855  13.557
68167SOL     OW 6274   9.257  13.312   2.978
68167SOL    HW1 6275   9.173  13.344   2.946
68167SOL    HW2 6276   9.244  13.299   3.072
68168SOL     OW 6277   9.254  10.285  13.391
68168SOL    HW1 6278   9.179  10.239  13.428
68168SOL    HW2 6279   9.327  10.223  13.398
68169SOL     OW 6280  10.969   6.399  10.840
68169SOL    HW1 6281  10.975   6.443  10.925
68169SOL    HW2 6282  10.882   6.421  10.807
68170SOL     OW 6283   0.233   7.672   1.627
68170SOL    HW1 6284   0.206   7.743   1.569
68170SOL    HW2 6285   0.328   7.683   1.635
68171SOL     OW 6286   9.870   3.015   1.018
68171SOL    HW1 6287   9.776   3.013   1.032
68171SOL    HW2 6288   9.890   2.931   0.976
68172SOL     OW 6289   0.753  13.539  12.172
68172SOL    HW1 6290   0.777  13.471  12.235
68172SOL    HW2 6291   0.762  13.497  12.086
68173SOL     OW 6292   7.210  12.754   6.190
68173SOL    HW1 6293   7.280  12.756   6.255
68173SOL    HW2 6294   7.154  12.681   6.216
68174SOL     OW 6295   0.181  13.543   6.074
68174SOL    HW1 6296   0.189  13.509   6.164
68174SOL    HW2 6297   0.271  13.562   6.047
68175SOL     OW 6298   4.314   6.250   4.777
68175SOL    HW1 6299   4.254   6.247   4.703
68175SOL    HW2 6300   4.265   6.297   4.845
68176SOL     OW 6301   1.921   6.811   6.391
68176SOL    HW1 6302   1.981   6.873   6.433
68176SOL    HW2 6303   1.837   6.857   6.389
68177SOL     OW 6304   2.201   6.747   3.547
68177SOL    HW1 6305   2.235   6.767   3.635
68177SOL    HW2 6306   2.256   6.799   3.488
68178SOL     OW 6307  13.355   0.521  14.730
68178SOL    HW1 6308  13.342   0.615  14.716
68178SOL    HW2 6309  13.439   0.515  14.775
68179SOL     OW 6310   9.746  11.625   3.905
68179SOL    HW1 6311   9.676  11.691   3.899
68179SOL    HW2 6312   9.743  11.579   3.821
68180SOL     OW 6313  14.292   3.908  12.476
68180SOL    HW1 6314  14.227   3.862  12.424
68180SOL    HW2 6315  14.247   3.932  12.556
68181SOL     OW 6316  11.788  12.491  13.322
68181SOL    HW1 6317  11.837  12.458  13.398
68181SOL    HW2 6318  11.703  12.447  13.327
68182SOL     OW 6319   3.307  12.226   7.801
68182SOL    HW1 6320   3.316  12.136   7.770
68182SOL    HW2 6321   3.274  12.274   7.726
68183SOL     OW 6322   3.376   7.988   6.864
68183SOL    HW1 6323   3.398   7.899   6.890
68183SOL    HW2 6324   3.456   8.038   6.881
68184SOL     OW 6325   3.364  14.707   7.768
68184SOL    HW1 6326   3.288  14.749   7.728
68184SOL    HW2 6327   3.329  14.631   7.814
68185SOL     OW 6328   6.605   2.767  13.941
68185SOL    HW1 6329   6.560   2.831  13.996
68185SOL    HW2 6330   6.696   2.796  13.940
68186SOL     OW 6331   6.451  12.600   6.298
68186SOL    HW1 6332   6.447  12.577   6.391
68186SOL    HW2 6333   6.516  12.671   6.295
68187SOL     OW 6334   3.326  10.196  14.295
68187SOL    HW1 6335   3.338  10.114  14.246
68187SOL    HW2 6336   3.286  10.169  14.377
68188SOL     OW 6337  10.113   9.094  12.655
68188SOL    HW1 6338  10.123   9.123  12.565
68188SOL    HW2 6339  10.176   9.147  12.705
68189SOL     OW 6340   6.030   4.027   0.643
68189SOL    HW1 6341   6.049   3.953   0.585
68189SOL    HW2 6342   6.037   4.104   0.587
68190SOL     OW 6343  10.843   0.650   9.946
68190SOL    HW1 6344  10.886   0.735   9.959
68190SOL    HW2 6345  10.911   0.586   9.967
68191SOL     OW 6346   0.356   3.991   0.070
68191SOL    HW1 6347   0.387   3.902   0.051
68191SOL    HW2 6348   0.323   3.986   0.160
68192SOL     OW 6349   6.286   1.882   0.873
68192SOL    HW1 6350   6.355   1.931   0.917
68192SOL    HW2 6351   6.329   1.840   0.799
68193SOL     OW 6352   6.912   4.618   6.331
68193SOL    HW1 6353   6.982   4.678   6.358
68193SOL    HW2 6354   6.915   4.547   6.396
68194SOL     OW 6355  14.320   7.715   0.772
68194SOL    HW1 6356  14.261   7.787   0.750
68194SOL    HW2 6357  14.339   7.673   0.688
68195SOL     OW 6358  14.185   6.514  12.660
68195SOL    HW1 6359  14.173   6.427  12.697
68195SOL    HW2 6360  14.177   6.573  12.735
68196SOL     OW 6361   1.764   1.873   3.827
68196SOL    HW1 6362   1.849   1.833   3.807
68196SOL    HW2 6363   1.700   1.809   3.796
68197SOL     OW 6364  10.226  11.167  13.167
68197SOL    HW1 6365  10.205  11.148  13.258
68197SOL    HW2 6366  10.172  11.243  13.145
68198SOL     OW 6367  10.245  10.737   8.441
68198SOL    HW1 6368  10.192  10.776   8.511
68198SOL    HW2 6369  10.230  10.643   8.449
68199SOL     OW 6370  10.268  10.294  11.948
68199SOL    HW1 6371  10.335  10.361  11.965
68199SOL    HW2 6372  10.275  10.277  11.854
68200SOL     OW 6373   0.637   6.469   2.718
68200SOL    HW1 6374   0.640   6.390   2.663
68200SOL    HW2 6375   0.629   6.436   2.807
68201SOL     OW 6376  13.045   7.939   1.833
68201SOL    HW1 6377  13.133   7.908   1.811
68201SOL    HW2 6378  13.013   7.978   1.752
68202SOL     OW 6379   1.963  11.727   8.224
68202SOL    HW1 6380   1.971  11.816   8.260
68202SOL    HW2 6381   2.024  11.726   8.150
68203SOL     OW 6382   8.882  14.876   3.179
68203SOL    HW1 6383   8.879  14.824   3.099
68203SOL    HW2 6384   8.902  14.814   3.248
68204SOL     OW 6385   6.510   9.040   1.874
68204SOL    HW1 6386   6.559   8.982   1.816
68204SOL    HW2 6387   6.422   9.003   1.878
68205SOL     OW 6388   5.806   1.075   5.137
68205SOL    HW1 6389   5.863   1.012   5.092
68205SOL    HW2 6390   5.843   1.160   5.113
68206SOL     OW 6391   4.877  10.269   1.920
68206SOL    HW1 6392   4.799  10.228   1.883
68206SOL    HW2 6393   4.904  10.333   1.854
68207SOL     OW 6394  10.913  11.256  12.215
68207SOL    HW1 6395  10.847  11.188  12.200
68207SOL    HW2 6396  10.988  11.230  12.161
68208SOL     OW 6397   4.779   4.361   4.039
68208SOL    HW1 6398   4.729   4.433   4.003
68208SOL    HW2 6399   4.855   4.352   3.981
68209SOL     OW 6400   8.746  10.858  10.344
68209SOL    HW1 6401   8.701  10.777  10.369
68209SOL    HW2 6402   8.677  10.924  10.342
68210SOL     OW 6403   7.764  11.313   9.526
68210SOL    HW1 6404   7.842  11.260   9.506
68210SOL    HW2 6405   7.749  11.300   9.619
68211SOL     OW 6406  13.982  12.030   7.931
68211SOL    HW1 6407  13.931  12.073   7.999
68211SOL    HW2 6408  13.960  11.937   7.939
68212SOL     OW 6409   2.036   2.487   1.431
68212SOL    HW1 6410   2.107   2.552   1.430
68212SOL    HW2 6411   1.976   2.518   1.499
68213SOL     OW 6412   9.158   3.863   9.882
68213SOL    HW1 6413   9.221   3.881   9.811
68213SOL    HW2 6414   9.130   3.773   9.867
68214SOL     OW 6415   6.269   8.588   4.822
68214SOL    HW1 6416   6.315   8.628   4.748
68214SOL    HW2 6417   6.184   8.632   4.824
68215SOL     OW 6418   4.738   0.219  13.546
68215SOL    HW1 6419   4.805   0.201  13.481
68215SOL    HW2 6420   4.678   0.280  13.502
68216SOL     OW 6421   2.140  10.668  13.753
68216SOL    HW1 6422   2.129  10.703  13.841
68216SOL    HW2 6423   2.222  10.706  13.722
68217SOL     OW 6424   1.236   0.111   5.389
68217SOL    HW1 6425   1.264   0.180   5.449
68217SOL    HW2 6426   1.293   0.121   5.312
68218SOL     OW 6427   1.991   7.738   5.177
68218SOL    HW1 6428   1.934   7.814   5.165
68218SOL    HW2 6429   1.952   7.669   5.123
68219SOL     OW 6430   1.535   9.519   1.801
68219SOL    HW1 6431   1.586   9.452   1.756
68219SOL    HW2 6432   1.580   9.531   1.885
68220SOL     OW 6433   1.788   0.416   0.386
68220SOL    HW1 6434   1.866   0.373   0.351
68220SOL    HW2 6435   1.760   0.474   0.316
68221SOL     OW 6436   7.310   5.025   0.168
68221SOL    HW1 6437   7.398   5.042   0.199
68221SOL    HW2 6438   7.272   4.968   0.234
68222SOL     OW 6439   9.462  11.644   5.134
68222SOL    HW1 6440   9.371  11.665   5.155
68222SOL    HW2 6441   9.459  11.554   5.101
68223SOL     OW 6442   0.869  14.645   9.891
68223SOL    HW1 6443   0.780  14.667   9.918
68223SOL    HW2 6444   0.906  14.601   9.968
68224SOL     OW 6445   7.282  14.286   5.741
68224SOL    HW1 6446   7.304  14.245   5.657
68224SOL    HW2 6447   7.287  14.380   5.723
68225SOL     OW 6448   0.895   3.100   9.252
68225SOL    HW1 6449   0.824   3.121   9.313
68225SOL    HW2 6450   0.920   3.010   9.275
68226SOL     OW 6451   1.799   8.928   1.981
68226SOL    HW1 6452   1.862   8.876   2.031
68226SOL    HW2 6453   1.808   9.017   2.016
68227SOL     OW 6454  13.859   8.383  11.167
68227SOL    HW1 6455  13.841   8.296  11.203
68227SOL    HW2 6456  13.810   8.385  11.084
68228SOL     OW 6457  12.553  10.100  12.572
68228SOL    HW1 6458  12.602  10.022  12.545
68228SOL    HW2 6459  12.468  10.092  12.528
68229SOL     OW 6460   2.672  11.772   1.462
68229SOL    HW1 6461   2.699  11.680   1.453
68229SOL    HW2 6462   2.744  11.814   1.510
68230SOL     OW 6463   7.570  10.772   0.575
68230SOL    HW1 6464   7.562  10.704   0.508
68230SOL    HW2 6465   7.546  10.853   0.529
68231SOL     OW 6466   5.563   6.136   2.576
68231SOL    HW1 6467   5.558   6.215   2.522
68231SOL    HW2 6468   5.524   6.161   2.660
68232SOL     OW 6469  12.497  12.505   3.102
68232SOL    HW1 6470  12.585  12.471   3.090
68232SOL    HW2 6471  12.452  12.485   3.020
68233SOL     OW 6472   6.061   9.495  12.172
68233SOL    HW1 6473   6.088   9.587  12.171
68233SOL    HW2 6474   5.975   9.495  12.131
68234SOL     OW 6475   5.955   2.682   7.055
68234SOL    HW1 6476   5.870   2.669   7.096
68234SOL    HW2 6477   5.934   2.718   6.969
68235SOL     OW 6478   0.040   8.785  11.012
68235SOL    HW1 6479   0.098   8.827  10.949
68235SOL    HW2 6480  14.872   8.718  10.961
68236SOL     OW 6481   0.293  13.619   4.260
68236SOL    HW1 6482   0.301  13.714   4.254
68236SOL    HW2 6483   0.356  13.593   4.327
68237SOL     OW 6484   2.700   6.178  12.515
68237SOL    HW1 6485   2.741   6.192  12.600
68237SOL    HW2 6486   2.608   6.204  12.527
68238SOL     OW 6487  13.196  11.833   9.168
68238SOL    HW1 6488  13.135  11.792   9.107
68238SOL    HW2 6489  13.277  11.782   9.159
68239SOL     OW 6490  13.060   2.715   8.311
68239SOL    HW1 6491  13.148   2.676   8.311
68239SOL    HW2 6492  13.057   2.768   8.391
68240SOL     OW 6493   3.727   7.201   0.817
68240SOL    HW1 6494   3.804   7.198   0.875
68240SOL    HW2 6495   3.652   7.193   0.876
68241SOL     OW 6496  10.543   5.020   1.212
68241SOL    HW1 6497  10.582   4.969   1.141
68241SOL    HW2 6498  10.448   5.013   1.197
68242SOL     OW 6499   3.372   6.942  10.555
68242SOL    HW1 6500   3.301   6.880  10.570
68242SOL    HW2 6501   3.336   7.027  10.584
68243SOL     OW 6502   8.196  13.063  13.672
68243SOL    HW1 6503   8.201  13.141  13.727
68243SOL    HW2 6504   8.288  13.041  13.655
68244SOL     OW 6505   3.886   4.865   3.338
68244SOL    HW1 6506   3.872   4.816   3.258
68244SOL    HW2 6507   3.861   4.804   3.408
68245SOL     OW 6508   0.021   0.866   3.779
68245SOL    HW1 6509   0.035   0.920   3.857
68245SOL    HW2 6510  14.807   0.881   3.755
68246SOL     OW 6511   2.796   7.033   7.288
68246SOL    HW1 6512   2.860   7.102   7.271
68246SOL    HW2 6513   2.798   7.022   7.383
68247SOL     OW 6514   4.761   0.985   6.038
68247SOL    HW1 6515   4.717   0.922   6.094
68247SOL    HW2 6516   4.690   1.030   5.991
68248SOL     OW 6517   9.293   2.357   5.473
68248SOL    HW1 6518   9.270   2.406   5.552
68248SOL    HW2 6519   9.376   2.396   5.444
68249SOL     OW 6520   6.537   9.282  13.417
68249SOL    HW1 6521   6.531   9.320  13.505
68249SOL    HW2 6522   6.628   9.253  13.409
68250SOL     OW 6523  11.939  13.615   8.938
68250SOL    HW1 6524  11.906  13.553   9.003
68250SOL    HW2 6525  11.882  13.692   8.948
68251SOL     OW 6526   9.303   4.761   5.634
68251SOL    HW1 6527   9.241   4.750   5.561
68251SOL    HW2 6528   9.266   4.833   5.686
68252SOL     OW 6529   3.139  13.026   5.787
68252SOL    HW1 6530   3.173  13.115   5.783
68252SOL    HW2 6531   3.162  12.987   5.703
68253SOL     OW 6532   0.047   5.122  14.795
68253SOL    HW1 6533   0.010   5.210  14.790
68253SOL    HW2 6534  14.873   5.079  14.863
68254SOL     OW 6535  12.170  14.501   3.903
68254SOL    HW1 6536  12.135  14.574   3.954
68254SOL    HW2 6537  12.168  14.532   3.812
68255SOL     OW 6538   1.023   2.185   0.717
68255SOL    HW1 6539   0.935   2.149   0.718
68255SOL    HW2 6540   1.081   2.108   0.712
68256SOL     OW 6541   3.702  11.737   8.847
68256SOL    HW1 6542   3.691  11.828   8.873
68256SOL    HW2 6543   3.614  11.701   8.846
68257SOL     OW 6544  13.129  12.843  12.633
68257SOL    HW1 6545  13.142  12.912  12.568
68257SOL    HW2 6546  13.186  12.868  12.706
68258SOL     OW 6547   9.853   4.792   1.166
68258SOL    HW1 6548   9.878   4.717   1.111
68258SOL    HW2 6549   9.873   4.764   1.255
68259SOL     OW 6550   8.611  12.265   5.353
68259SOL    HW1 6551   8.554  12.292   5.281
68259SOL    HW2 6552   8.628  12.172   5.338
68260SOL     OW 6553   8.355   2.107  10.131
68260SOL    HW1 6554   8.360   2.019  10.167
68260SOL    HW2 6555   8.265   2.135  10.148
68261SOL     OW 6556  13.239   2.932   2.271
68261SOL    HW1 6557  13.191   2.851   2.257
68261SOL    HW2 6558  13.248   2.970   2.183
68262SOL     OW 6559   3.931   8.781   6.469
68262SOL    HW1 6560   3.894   8.767   6.556
68262SOL    HW2 6561   3.878   8.851   6.430
68263SOL     OW 6562   0.328   4.392  11.718
68263SOL    HW1 6563   0.396   4.334  11.752
68263SOL    HW2 6564   0.356   4.414  11.630
68264SOL     OW 6565  13.131   8.232  11.582
68264SOL    HW1 6566  13.213   8.269  11.615
68264SOL    HW2 6567  13.134   8.248  11.488
68265SOL     OW 6568  11.638   0.234  10.592
68265SOL    HW1 6569  11.551   0.198  10.610
68265SOL    HW2 6570  11.663   0.195  10.508
68266SOL     OW 6571   3.758   2.336   1.858
68266SOL    HW1 6572   3.732   2.429   1.859
68266SOL    HW2 6573   3.697   2.295   1.920
68267SOL     OW 6574   7.659   6.724  10.091
68267SOL    HW1 6575   7.701   6.755  10.010
68267SOL    HW2 6576   7.724   6.667  10.131
68268SOL     OW 6577   8.416   5.502   9.327
68268SOL    HW1 6578   8.341   5.451   9.357
68268SOL    HW2 6579   8.389   5.537   9.242
68269SOL     OW 6580  13.577  13.737   2.533
68269SOL    HW1 6581  13.667  13.752   2.505
68269SOL    HW2 6582  13.565  13.797   2.607
68270SOL     OW 6583  11.865   3.576   8.413
68270SOL    HW1 6584  11.880   3.597   8.505
68270SOL    HW2 6585  11.774   3.547   8.409
68271SOL     OW 6586  12.067  14.229  12.582
68271SOL    HW1 6587  12.098  14.279  12.657
68271SOL    HW2 6588  12.080  14.137  12.607
68272SOL     OW 6589  12.749   0.985   8.205
68272SOL    HW1 6590  12.764   1.073   8.170
68272SOL    HW2 6591  12.809   0.929   8.154
68273SOL     OW 6592   2.850   8.332  10.482
68273SOL    HW1 6593   2.807   8.269  10.539
68273SOL    HW2 6594   2.792   8.408  10.481
68274SOL     OW 6595  11.657   1.446   2.803
68274SOL    HW1 6596  11.651   1.534   2.841
68274SOL    HW2 6597  11.672   1.389   2.878
68275SOL     OW 6598   1.100   5.746   2.835
68275SOL    HW1 6599   1.074   5.828   2.794
68275SOL    HW2 6600   1.047   5.679   2.792
68276SOL     OW 6601   2.116   6.027  12.208
68276SOL    HW1 6602   2.079   5.988  12.128
68276SOL    HW2 6603   2.143   6.115  12.181
68277SOL     OW 6604   4.093   8.925  12.744
68277SOL    HW1 6605   4.110   8.857  12.808
68277SOL    HW2 6606   4.150   8.998  12.770
68278SOL     OW 6607  13.455   9.232  10.268
68278SOL    HW1 6608  13.432   9.226  10.361
68278SOL    HW2 6609  13.428   9.320  10.242
68279SOL     OW 6610   2.660  12.951   8.223
68279SOL    HW1 6611   2.651  13.010   8.298
68279SOL    HW2 6612   2.751  12.960   8.197
68280SOL     OW 6613   6.850  10.029   7.717
68280SOL    HW1 6614   6.941  10.015   7.693
68280SOL    HW2 6615   6.804   9.954   7.680
68281SOL     OW 6616  10.791   1.784   0.869
68281SOL    HW1 6617  10.738   1.762   0.793
68281SOL    HW2 6618  10.731   1.830   0.928
68282SOL     OW 6619  14.657   0.860   9.575
68282SOL    HW1 6620  14.653   0.812   9.658
68282SOL    HW2 6621  14.747   0.851   9.546
68283SOL     OW 6622   5.079   2.155   7.756
68283SOL    HW1 6623   5.035   2.125   7.836
68283SOL    HW2 6624   5.010   2.154   7.690
68284SOL     OW 6625  12.252   5.272  11.871
68284SOL    HW1 6626  12.241   5.219  11.793
68284SOL    HW2 6627  12.265   5.209  11.942
68285SOL     OW 6628  14.444   2.982   0.758
68285SOL    HW1 6629  14.491   2.899   0.759
68285SOL    HW2 6630  14.471   3.024   0.676
68286SOL     OW 6631   8.602   0.564   4.508
68286SOL    HW1 6632   8.568   0.636   4.455
68286SOL    HW2 6633   8.574   0.584   4.597
68287SOL     OW 6634  12.289  10.284   1.403
68287SOL    HW1 6635  12.197  10.266   1.384
68287SOL    HW2 6636  12.310  10.360   1.348
68288SOL     OW 6637  13.565   2.873   4.183
68288SOL    HW1 6638  13.568   2.928   4.105
68288SOL    HW2 6639  13.653   2.877   4.219
68289SOL     OW 6640   2.800   1.567  14.059
68289SOL    HW1 6641   2.875   1.530  14.011
68289SOL    HW2 6642   2.824   1.557  14.151
68290SOL     OW 6643   1.110  12.651   5.402
68290SOL    HW1 6644   1.052  12.604   5.342
68290SOL    HW2 6645   1.195  12.610   5.389
68291SOL     OW 6646  14.318   1.895   7.356
68291SOL    HW1 6647  14.410   1.921   7.356
68291SOL    HW2 6648  14.289   1.907   7.266
68292SOL     OW 6649   2.036   0.717   8.569
68292SOL    HW1 6650   2.073   0.802   8.590
68292SOL    HW2 6651   1.990   0.690   8.649
68293SOL     OW 6652   1.156  11.320   3.878
68293SOL    HW1 6653   1.078  11.313   3.824
68293SOL    HW2 6654   1.152  11.408   3.916
68294SOL     OW 6655   3.765   9.524   4.817
68294SOL    HW1 6656   3.740   9.489   4.903
68294SOL    HW2 6657   3.845   9.476   4.794
68295SOL     OW 6658   9.051   4.051   0.933
68295SOL    HW1 6659   9.143   4.036   0.913
68295SOL    HW2 6660   9.049   4.066   1.028
68296SOL     OW 6661  14.740   7.498  14.391
68296SOL    HW1 6662  14.660   7.445  14.384
68296SOL    HW2 6663  14.776   7.476  14.476
68297SOL     OW 6664  12.251  12.744  11.516
68297SOL    HW1 6665  12.215  12.829  11.539
68297SOL    HW2 6666  12.311  12.723  11.588
68298SOL     OW 6667   3.437  14.293   1.813
68298SOL    HW1 6668   3.493  14.335   1.878
68298SOL    HW2 6669   3.428  14.203   1.844
68299SOL     OW 6670   8.644   0.061   2.449
68299SOL    HW1 6671   8.695   0.142   2.445
68299SOL    HW2 6672   8.564   0.081   2.400
68300SOL     OW 6673  13.311   3.679   4.133
68300SOL    HW1 6674  13.257   3.653   4.208
68300SOL    HW2 6675  13.391   3.712   4.172
68301SOL     OW 6676   0.888   3.877   4.609
68301SOL    HW1 6677   0.892   3.829   4.692
68301SOL    HW2 6678   0.799   3.913   4.607
68302SOL     OW 6679   5.762   3.993   1.758
68302SOL    HW1 6680   5.845   4.038   1.766
68302SOL    HW2 6681   5.772   3.914   1.811
68303SOL     OW 6682  13.089   4.023   2.220
68303SOL    HW1 6683  13.157   4.036   2.154
68303SOL    HW2 6684  13.022   3.971   2.176
68304SOL     OW 6685   9.175  13.071  14.235
68304SOL    HW1 6686   9.167  13.008  14.164
68304SOL    HW2 6687   9.085  13.095  14.257
68305SOL     OW 6688  13.056  11.550   3.350
68305SOL    HW1 6689  12.986  11.542   3.286
68305SOL    HW2 6690  13.133  11.512   3.307
68306SOL     OW 6691   7.439   1.427  14.144
68306SOL    HW1 6692   7.398   1.413  14.059
68306SOL    HW2 6693   7.502   1.498  14.128
68307SOL     OW 6694   1.072   8.585   3.306
68307SOL    HW1 6695   1.002   8.632   3.351
68307SOL    HW2 6696   1.071   8.497   3.343
68308SOL     OW 6697   7.899   9.524  11.641
68308SOL    HW1 6698   7.915   9.454  11.704
68308SOL    HW2 6699   7.972   9.518  11.580
68309SOL     OW 6700   7.021   8.902  10.559
68309SOL    HW1 6701   7.043   8.828  10.616
68309SOL    HW2 6702   6.995   8.972  10.620
68310SOL     OW 6703   7.760   5.939   0.471
68310SOL    HW1 6704   7.794   5.854   0.498
68310SOL    HW2 6705   7.808   5.961   0.391
68311SOL     OW 6706  13.043   9.386  12.203
68311SOL    HW1 6707  12.962   9.426  12.234
68311SOL    HW2 6708  13.014   9.307  12.157
68312SOL     OW 6709   7.192   3.314  10.728
68312SOL    HW1 6710   7.229   3.265  10.655
68312SOL    HW2 6711   7.215   3.405  10.711
68313SOL     OW 6712   9.910   8.977   3.545
68313SOL    HW1 6713   9.982   8.916   3.561
68313SOL    HW2 6714   9.859   8.937   3.475
68314SOL     OW 6715   4.208   7.465  12.499
68314SOL    HW1 6716   4.216   7.515  12.580
68314SOL    HW2 6717   4.268   7.391  12.510
68315SOL     OW 6718   3.436   1.946  11.299
68315SOL    HW1 6719   3.515   1.967  11.348
68315SOL    HW2 6720   3.384   1.892  11.359
68316SOL     OW 6721   1.669   1.369  12.971
68316SOL    HW1 6722   1.668   1.447  13.026
68316SOL    HW2 6723   1.579   1.360  12.940
68317SOL     OW 6724  11.845   5.095   4.646
68317SOL    HW1 6725  11.759   5.124   4.614
68317SOL    HW2 6726  11.857   5.142   4.729
68318SOL     OW 6727   4.966  11.485   7.072
68318SOL    HW1 6728   4.930  11.561   7.026
68318SOL    HW2 6729   5.054  11.475   7.037
68319SOL     OW 6730   5.080   9.672   5.790
68319SOL    HW1 6731   5.129   9.639   5.715
68319SOL    HW2 6732   4.993   9.632   5.781
68320SOL     OW 6733   9.113   8.552  13.555
68320SOL    HW1 6734   9.206   8.569  13.538
68320SOL    HW2 6735   9.068   8.625  13.513
68321SOL     OW 6736   3.945  11.781  10.402
68321SOL    HW1 6737   3.950  11.783  10.306
68321SOL    HW2 6738   4.026  11.738  10.429
68322SOL     OW 6739   7.464  10.744   4.566
68322SOL    HW1 6740   7.536  10.689   4.534
68322SOL    HW2 6741   7.439  10.705   4.649
68323SOL     OW 6742   0.439   6.272   8.594
68323SOL    HW1 6743   0.403   6.278   8.682
68323SOL    HW2 6744   0.523   6.228   8.605
68324SOL     OW 6745   8.046  14.718   7.810
68324SOL    HW1 6746   7.986  14.660   7.763
68324SOL    HW2 6747   8.085  14.662   7.878
68325SOL     OW 6748   5.061   6.147  14.450
68325SOL    HW1 6749   5.153   6.154  14.476
68325SOL    HW2 6750   5.060   6.078  14.384
68326SOL     OW 6751   3.314   0.913   9.755
68326SOL    HW1 6752   3.310   0.817   9.759
68326SOL    HW2 6753   3.407   0.933   9.749
68327SOL     OW 6754   5.716   5.144   9.472
68327SOL    HW1 6755   5.767   5.129   9.393
68327SOL    HW2 6756   5.628   5.112   9.451
68328SOL     OW 6757   7.846  11.328  11.400
68328SOL    HW1 6758   7.753  11.310  11.412
68328SOL    HW2 6759   7.852  11.358  11.309
68329SOL     OW 6760   5.330  10.463   0.835
68329SOL    HW1 6761   5.407  10.462   0.892
68329SOL    HW2 6762   5.267  10.405   0.878
68330SOL     OW 6763   8.918  11.466  12.453
68330SOL    HW1 6764   8.882  11.381  12.481
68330SOL    HW2 6765   8.886  11.528  12.518
68331SOL     OW 6766  13.427   1.178  14.187
68331SOL    HW1 6767  13.448   1.085  14.175
68331SOL    HW2 6768  13.512   1.222  14.183
68332SOL     OW 6769  13.456   1.234   1.634
68332SOL    HW1 6770  13.410   1.317   1.647
68332SOL    HW2 6771  13.548   1.259   1.622
68333SOL     OW 6772   4.044   1.083   6.529
68333SOL    HW1 6773   4.071   1.029   6.603
68333SOL    HW2 6774   3.976   1.033   6.486
68334SOL     OW 6775  12.527   4.891   8.426
68334SOL    HW1 6776  12.602   4.905   8.369
68334SOL    HW2 6777  12.553   4.817   8.482
68335SOL     OW 6778   1.069  11.084   3.203
68335SOL    HW1 6779   1.148  11.138   3.194
68335SOL    HW2 6780   1.095  11.014   3.262
68336SOL     OW 6781   8.852   2.605  11.428
68336SOL    HW1 6782   8.813   2.668  11.488
68336SOL    HW2 6783   8.828   2.636  11.341
68337SOL     OW 6784  11.524  14.537   2.899
68337SOL    HW1 6785  11.495  14.621   2.865
68337SOL    HW2 6786  11.571  14.495   2.827
68338SOL     OW 6787   7.632   1.392   5.302
68338SOL    HW1 6788   7.721   1.383   5.268
68338SOL    HW2 6789   7.581   1.426   5.228
68339SOL     OW 6790   4.576  10.189   7.307
68339SOL    HW1 6791   4.647  10.141   7.263
68339SOL    HW2 6792   4.621  10.244   7.372
68340SOL     OW 6793   0.292  12.831   3.767
68340SOL    HW1 6794   0.208  12.790   3.789
68340SOL    HW2 6795   0.281  12.863   3.678
68341SOL     OW 6796   2.734   8.392  10.004
68341SOL    HW1 6797   2.720   8.448  10.080
68341SOL    HW2 6798   2.736   8.453   9.930
68342SOL     OW 6799   4.283   4.589  13.742
68342SOL    HW1 6800   4.349   4.592  13.811
68342SOL    HW2 6801   4.307   4.660  13.682
68343SOL     OW 6802  12.739  13.441  14.085
68343SOL    HW1 6803  12.832  13.461  14.069
68343SOL    HW2 6804  12.691  13.502  14.029
68344SOL     OW 6805   0.453   1.287   6.461
68344SOL    HW1 6806   0.385   1.338   6.419
68344SOL    HW2 6807   0.406   1.219   6.510
68345SOL     OW 6808  10.761   9.136   1.760
68345SOL    HW1 6809  10.677   9.149   1.716
68345SOL    HW2 6810  10.826   9.172   1.699
68346SOL     OW 6811   0.613   2.399   1.585
68346SOL    HW1 6812   0.634   2.341   1.511
68346SOL    HW2 6813   0.547   2.459   1.550
68347SOL     OW 6814  10.459   6.453  12.279
68347SOL    HW1 6815  10.393   6.404  12.231
68347SOL    HW2 6816  10.481   6.527  12.222
68348SOL     OW 6817   0.994  13.465  12.834
68348SOL    HW1 6818   1.033  13.431  12.914
68348SOL    HW2 6819   1.069  13.491  12.779
68349SOL     OW 6820  13.402   5.506   6.116
68349SOL    HW1 6821  13.397   5.561   6.038
68349SOL    HW2 6822  13.368   5.562   6.187
68350SOL     OW 6823  11.390   7.473   6.766
68350SOL    HW1 6824  11.316   7.453   6.823
68350SOL    HW2 6825  11.414   7.389   6.726
68351SOL     OW 6826   9.511   7.417   1.208
68351SOL    HW1 6827   9.589   7.366   1.227
68351SOL    HW2 6828   9.532   7.506   1.238
68352SOL     OW 6829   1.360   9.312  10.518
68352SOL    HW1 6830   1.375   9.254  10.592
68352SOL    HW2 6831   1.400   9.395  10.543
68353SOL     OW 6832  13.693  10.317  14.707
68353SOL    HW1 6833  13.779  10.283  14.683
68353SOL    HW2 6834  13.633  10.280  14.642
68354SOL     OW 6835  11.686   5.210   5.360
68354SOL    HW1 6836  11.709   5.301   5.381
68354SOL    HW2 6837  11.593   5.204   5.383
68355SOL     OW 6838   0.530  12.125   6.581
68355SOL    HW1 6839   0.491  12.213   6.576
68355SOL    HW2 6840   0.589  12.121   6.506
68356SOL     OW 6841   9.322   5.865  10.740
68356SOL    HW1 6842   9.402   5.903  10.777
68356SOL    HW2 6843   9.297   5.797  10.801
68357SOL     OW 6844   5.586   1.013   7.748
68357SOL    HW1 6845   5.524   0.947   7.716
68357SOL    HW2 6846   5.666   0.965   7.764
68358SOL     OW 6847   5.809   4.083   2.736
68358SOL    HW1 6848   5.766   4.005   2.702
68358SOL    HW2 6849   5.755   4.156   2.704
68359SOL     OW 6850   5.028  10.934  14.146
68359SOL    HW1 6851   5.121  10.926  14.167
68359SOL    HW2 6852   5.019  11.023  14.111
68360SOL     OW 6853   9.831   2.110  13.741
68360SOL    HW1 6854   9.819   2.081  13.831
68360SOL    HW2 6855   9.742   2.127  13.709
68361SOL     OW 6856   4.608  11.737   3.933
68361SOL    HW1 6857   4.529  11.710   3.887
68361SOL    HW2 6858   4.677  11.682   3.896
68362SOL     OW 6859  11.801  12.820   7.524
68362SOL    HW1 6860  11.870  12.839   7.587
68362SOL    HW2 6861  11.746  12.755   7.566
68363SOL     OW 6862  10.774  10.330   5.127
68363SOL    HW1 6863  10.838  10.377   5.075
68363SOL    HW2 6864  10.712  10.295   5.063
68364SOL     OW 6865   6.291   9.381   3.588
68364SOL    HW1 6866   6.216   9.365   3.645
68364SOL    HW2 6867   6.357   9.317   3.616
68365SOL     OW 6868  12.340   7.180   3.154
68365SOL    HW1 6869  12.434   7.163   3.146
68365SOL    HW2 6870  12.299   7.103   3.115
68366SOL     OW 6871  11.574  12.466   2.421
68366SOL    HW1 6872  11.488  12.464   2.380
68366SOL    HW2 6873  11.561  12.426   2.507
68367SOL     OW 6874   3.831  10.050   7.119
68367SOL    HW1 6875   3.861   9.985   7.183
68367SOL    HW2 6876   3.785   9.999   7.053
68368SOL     OW 6877   7.538   4.126   0.692
68368SOL    HW1 6878   7.493   4.045   0.715
68368SOL    HW2 6879   7.624   4.118   0.733
68369SOL     OW 6880   8.794   6.067   8.986
68369SOL    HW1 6881   8.823   6.157   8.966
68369SOL    HW2 6882   8.712   6.079   9.034
68370SOL     OW 6883   7.866   0.546  14.175
68370SOL    HW1 6884   7.900   0.567  14.088
68370SOL    HW2 6885   7.772   0.535  14.162
68371SOL     OW 6886  13.643  11.259  11.462
68371SOL    HW1 6887  13.617  11.191  11.399
68371SOL    HW2 6888  13.650  11.212  11.545
68372SOL     OW 6889  13.973   2.725   2.697
68372SOL    HW1 6890  13.984   2.722   2.792
68372SOL    HW2 6891  14.003   2.812   2.672
68373SOL     OW 6892  10.414   4.015   8.525
68373SOL    HW1 6893  10.440   4.025   8.433
68373SOL    HW2 6894  10.488   4.048   8.575
68374SOL     OW 6895  12.039   7.192   2.050
68374SOL    HW1 6896  12.059   7.286   2.056
68374SOL    HW2 6897  11.944   7.187   2.064
68375SOL     OW 6898   7.079   2.033   5.005
68375SOL    HW1 6899   7.054   2.119   4.972
68375SOL    HW2 6900   7.015   2.014   5.074
68376SOL     OW 6901   9.794  11.776   5.799
68376SOL    HW1 6902   9.762  11.756   5.711
68376SOL    HW2 6903   9.873  11.723   5.808
68377SOL     OW 6904   2.597  14.441  14.859
68377SOL    HW1 6905   2.655  14.473  14.790
68377SOL    HW2 6906   2.591  14.514   0.043
68378SOL     OW 6907  14.645  12.007   4.665
68378SOL    HW1 6908  14.615  11.919   4.687
68378SOL    HW2 6909  14.565  12.059   4.657
68379SOL     OW 6910   8.645   5.251   7.102
68379SOL    HW1 6911   8.711   5.185   7.119
68379SOL    HW2 6912   8.689   5.335   7.118
68380SOL     OW 6913   5.200   8.520   9.988
68380SOL    HW1 6914   5.108   8.525   9.964
68380SOL    HW2 6915   5.242   8.586   9.932
68381SOL     OW 6916  13.008   5.532   5.741
68381SOL    HW1 6917  12.959   5.489   5.811
68381SOL    HW2 6918  12.940   5.573   5.686
68382SOL     OW 6919   6.200   1.919  11.517
68382SOL    HW1 6920   6.140   1.952  11.584
68382SOL    HW2 6921   6.173   1.829  11.503
68383SOL     OW 6922   1.962   2.752   7.110
68383SOL    HW1 6923   2.047   2.739   7.152
68383SOL    HW2 6924   1.978   2.819   7.043
68384SOL     OW 6925   4.149  10.601  14.604
68384SOL    HW1 6926   4.139  10.527  14.664
68384SOL    HW2 6927   4.061  10.641  14.602
68385SOL     OW 6928  11.135  10.666   5.251
68385SOL    HW1 6929  11.160  10.574   5.242
68385SOL    HW2 6930  11.087  10.686   5.170
68386SOL     OW 6931   9.213  13.694   3.966
68386SOL    HW1 6932   9.135  13.737   4.001
68386SOL    HW2 6933   9.285  13.749   3.998
68387SOL     OW 6934   0.279   0.233   6.083
68387SOL    HW1 6935   0.240   0.321   6.089
68387SOL    HW2 6936   0.371   0.246   6.107
68388SOL     OW 6937   3.500   0.438   1.042
68388SOL    HW1 6938   3.537   0.441   0.954
68388SOL    HW2 6939   3.412   0.405   1.030
68389SOL     OW 6940   2.781   5.347   5.665
68389SOL    HW1 6941   2.761   5.325   5.574
68389SOL    HW2 6942   2.783   5.442   5.667
68390SOL     OW 6943  13.838  11.956   6.276
68390SOL    HW1 6944  13.770  11.996   6.222
68390SOL    HW2 6945  13.818  11.985   6.365
68391SOL     OW 6946   6.870   4.901  13.705
68391SOL    HW1 6947   6.791   4.942  13.671
68391SOL    HW2 6948   6.905   4.963  13.769
68392SOL     OW 6949  12.000   5.883   4.273
68392SOL    HW1 6950  11.931   5.945   4.254
68392SOL    HW2 6951  12.034   5.909   4.359
68393SOL     OW 6952  10.335   8.403  11.700
68393SOL    HW1 6953  10.390   8.481  11.688
68393SOL    HW2 6954  10.388   8.331  11.664
68394SOL     OW 6955   4.305   8.861  12.053
68394SOL    HW1 6956   4.263   8.899  11.976
68394SOL    HW2 6957   4.240   8.869  12.123
68395SOL     OW 6958   6.622  13.091   0.093
68395SOL    HW1 6959   6.576  13.144   0.158
68395SOL    HW2 6960   6.668  13.155   0.039
68396SOL     OW 6961  14.822   5.663   4.894
68396SOL    HW1 6962   0.015   5.671   4.958
68396SOL    HW2 6963  14.866   5.647   4.810
68397SOL     OW 6964   8.797   5.022   7.614
68397SOL    HW1 6965   8.873   5.033   7.672
68397SOL    HW2 6966   8.742   5.098   7.632
68398SOL     OW 6967   1.286   7.716  13.432
68398SOL    HW1 6968   1.281   7.801  13.477
68398SOL    HW2 6969   1.195   7.688  13.421
68399SOL     OW 6970   0.026  10.003  12.416
68399SOL    HW1 6971   0.082  10.058  12.361
68399SOL    HW2 6972   0.010  10.056  12.494
68400SOL     OW 6973   4.510   3.656  12.795
68400SOL    HW1 6974   4.588   3.698  12.758
68400SOL    HW2 6975   4.442   3.723  12.787
68401SOL     OW 6976  14.812   6.241  11.757
68401SOL    HW1 6977  14.749   6.238  11.829
68401SOL    HW2 6978  14.804   6.329  11.721
68402SOL     OW 6979  14.645   5.741   5.874
68402SOL    HW1 6980  14.694   5.668   5.912
68402SOL    HW2 6981  14.696   5.819   5.896
68403SOL     OW 6982   1.215  11.203   5.057
68403SOL    HW1 6983   1.214  11.157   5.141
68403SOL    HW2 6984   1.146  11.161   5.006
68404SOL     OW 6985  12.286   2.293  11.422
68404SOL    HW1 6986  12.264   2.383  11.446
68404SOL    HW2 6987  12.380   2.286  11.433
68405SOL     OW 6988   2.369   4.548   9.188
68405SOL    HW1 6989   2.451   4.571   9.233
68405SOL    HW2 6990   2.338   4.631   9.152
68406SOL     OW 6991   4.758   4.462   2.379
68406SOL    HW1 6992   4.697   4.397   2.343
68406SOL    HW2 6993   4.730   4.473   2.470
68407SOL     OW 6994  11.822   6.104   2.481
68407SOL    HW1 6995  11.897   6.152   2.444
68407SOL    HW2 6996  11.745   6.144   2.439
68408SOL     OW 6997  11.670   7.542   9.672
68408SOL    HW1 6998  11.714   7.471   9.625
68408SOL    HW2 6999  11.683   7.619   9.617
68409SOL     OW 7000  11.026  10.505   5.550
68409SOL    HW1 7001  10.984  10.458   5.477
68409SOL    HW2 7002  10.971  10.484   5.626
68410SOL     OW 7003   4.569   6.361   0.425
68410SOL    HW1 7004   4.569   6.350   0.520
68410SOL    HW2 7005   4.480   6.342   0.397
68411SOL     OW 7006  11.903  12.135  14.416
68411SOL    HW1 7007  11.929  12.225  14.434
68411SOL    HW2 7008  11.810  12.133  14.437
68412SOL     OW 7009   1.335   4.027  11.886
68412SOL    HW1 7010   1.309   4.025  11.978
68412SOL    HW2 7011   1.426   4.057  11.886
68413SOL     OW 7012   1.827   5.088   2.346
68413SOL    HW1 7013   1.919   5.110   2.356
68413SOL    HW2 7014   1.809   5.102   2.252
68414SOL     OW 7015   8.546  13.354   6.067
68414SOL    HW1 7016   8.592  13.438   6.063
68414SOL    HW2 7017   8.547  13.331   6.160
68415SOL     OW 7018  11.836   1.436   2.574
68415SOL    HW1 7019  11.777   1.434   2.648
68415SOL    HW2 7020  11.901   1.368   2.593
68416SOL     OW 7021   9.226   4.335   8.819
68416SOL    HW1 7022   9.226   4.411   8.761
68416SOL    HW2 7023   9.225   4.372   8.907
68417SOL     OW 7024   1.357   3.903   6.350
68417SOL    HW1 7025   1.372   3.957   6.428
68417SOL    HW2 7026   1.388   3.957   6.277
68418SOL     OW 7027  12.274   7.088   6.414
68418SOL    HW1 7028  12.276   6.994   6.394
68418SOL    HW2 7029  12.330   7.128   6.347
68419SOL     OW 7030   5.508   1.703   7.302
68419SOL    HW1 7031   5.428   1.654   7.281
68419SOL    HW2 7032   5.482   1.795   7.296
68420SOL     OW 7033  13.738   2.495   6.599
68420SOL    HW1 7034  13.701   2.507   6.512
68420SOL    HW2 7035  13.752   2.401   6.607
68421SOL     OW 7036   2.955   8.942   6.292
68421SOL    HW1 7037   2.920   8.932   6.381
68421SOL    HW2 7038   3.002   8.860   6.275
68422SOL     OW 7039  11.739  10.330   6.738
68422SOL    HW1 7040  11.814  10.388   6.734
68422SOL    HW2 7041  11.733  10.304   6.830
68423SOL     OW 7042   1.800   0.887   9.279
68423SOL    HW1 7043   1.712   0.886   9.242
68423SOL    HW2 7044   1.834   0.975   9.259
68424SOL     OW 7045  10.329   6.429   2.035
68424SOL    HW1 7046  10.396   6.360   2.040
68424SOL    HW2 7047  10.338   6.465   1.947
68425SOL     OW 7048  11.424  11.368   5.543
68425SOL    HW1 7049  11.399  11.356   5.451
68425SOL    HW2 7050  11.514  11.400   5.539
68426SOL     OW 7051  10.620   9.831   0.902
68426SOL    HW1 7052  10.672   9.809   0.979
68426SOL    HW2 7053  10.535   9.790   0.917
68427SOL     OW 7054   1.602   7.436  12.136
68427SOL    HW1 7055   1.694   7.419  12.157
68427SOL    HW2 7056   1.603   7.457  12.042
68428SOL     OW 7057   2.246  11.998   2.320
68428SOL    HW1 7058   2.249  11.980   2.414
68428SOL    HW2 7059   2.173  11.945   2.287
68429SOL     OW 7060   8.040  12.143   0.686
68429SOL    HW1 7061   7.982  12.121   0.759
68429SOL    HW2 7062   7.983  12.149   0.610
68430SOL     OW 7063   9.948   3.059   4.740
68430SOL    HW1 7064   9.935   3.020   4.653
68430SOL    HW2 7065  10.043   3.057   4.753
68431SOL     OW 7066  14.808   5.297  13.459
68431SOL    HW1 7067  14.863   5.220  13.448
68431SOL    HW2 7068  14.766   5.309  13.373
68432SOL     OW 7069   0.552   6.251  12.237
68432SOL    HW1 7070   0.512   6.166  12.255
68432SOL    HW2 7071   0.641   6.230  12.208
68433SOL     OW 7072   0.846   9.422  12.785
68433SOL    HW1 7073   0.911   9.370  12.832
68433SOL    HW2 7074   0.893   9.456  12.709
68434SOL     OW 7075  11.469   0.657  13.491
68434SOL    HW1 7076  11.477   0.750  13.468
68434SOL    HW2 7077  11.401   0.655  13.558
68435SOL     OW 7078   2.065  14.146   7.292
68435SOL    HW1 7079   2.010  14.181   7.222
68435SOL    HW2 7080   2.141  14.204   7.293
68436SOL     OW 7081   8.222   4.903   8.573
68436SOL    HW1 7082   8.287   4.959   8.615
68436SOL    HW2 7083   8.243   4.905   8.480
68437SOL     OW 7084  11.934   9.250  10.017
68437SOL    HW1 7085  11.867   9.219   9.956
68437SOL    HW2 7086  11.959   9.337   9.984
68438SOL     OW 7087   1.775  14.733   8.021
68438SOL    HW1 7088   1.846  14.796   8.011
68438SOL    HW2 7089   1.781  14.676   7.944
68439SOL     OW 7090   2.674   9.250  10.338
68439SOL    HW1 7091   2.707   9.333  10.372
68439SOL    HW2 7092   2.708   9.246  10.248
68440SOL     OW 7093  11.433   2.383  10.966
68440SOL    HW1 7094  11.486   2.303  10.966
68440SOL    HW2 7095  11.373   2.371  10.893
68441SOL     OW 7096   3.568   3.539   6.344
68441SOL    HW1 7097   3.589   3.624   6.307
68441SOL    HW2 7098   3.589   3.547   6.437
68442SOL     OW 7099   6.640   6.551  13.801
68442SOL    HW1 7100   6.610   6.476  13.853
68442SOL    HW2 7101   6.599   6.627  13.842
68443SOL     OW 7102   3.625   8.669  12.037
68443SOL    HW1 7103   3.702   8.703  12.083
68443SOL    HW2 7104   3.596   8.594  12.091
68444SOL     OW 7105  14.510   6.888   5.471
68444SOL    HW1 7106  14.598   6.918   5.452
68444SOL    HW2 7107  14.522   6.821   5.539
68445SOL     OW 7108   1.288   5.813   0.273
68445SOL    HW1 7109   1.249   5.847   0.192
68445SOL    HW2 7110   1.214   5.774   0.320
68446SOL     OW 7111   2.859   1.861   4.331
68446SOL    HW1 7112   2.779   1.861   4.279
68446SOL    HW2 7113   2.921   1.914   4.279
68447SOL     OW 7114   3.012   9.989   7.954
68447SOL    HW1 7115   2.918   9.994   7.935
68447SOL    HW2 7116   3.043  10.079   7.944
68448SOL     OW 7117   1.359   6.181   4.548
68448SOL    HW1 7118   1.388   6.154   4.635
68448SOL    HW2 7119   1.368   6.276   4.547
68449SOL     OW 7120  10.392   1.313   8.135
68449SOL    HW1 7121  10.299   1.292   8.136
68449SOL    HW2 7122  10.395   1.408   8.149
68450SOL     OW 7123   1.478  12.458   2.277
68450SOL    HW1 7124   1.440  12.376   2.308
68450SOL    HW2 7125   1.403  12.510   2.248
68451SOL     OW 7126   7.501   0.525   2.756
68451SOL    HW1 7127   7.537   0.608   2.727
68451SOL    HW2 7128   7.425   0.548   2.809
68452SOL     OW 7129  13.885  10.315   7.334
68452SOL    HW1 7130  13.886  10.386   7.398
68452SOL    HW2 7131  13.977  10.299   7.314
68453SOL     OW 7132   7.050   4.373   2.176
68453SOL    HW1 7133   6.993   4.297   2.182
68453SOL    HW2 7134   6.995   4.447   2.201
68454SOL     OW 7135   7.466   6.368   1.736
68454SOL    HW1 7136   7.529   6.440   1.732
68454SOL    HW2 7137   7.499   6.304   1.673
68455SOL     OW 7138   5.372  11.773   7.881
68455SOL    HW1 7139   5.372  11.705   7.949
68455SOL    HW2 7140   5.409  11.730   7.804
68456SOL     OW 7141  11.980   7.741  12.412
68456SOL    HW1 7142  12.037   7.811  12.381
68456SOL    HW2 7143  12.012   7.662  12.368
68457SOL     OW 7144   1.610  11.659  10.859
68457SOL    HW1 7145   1.565  11.683  10.778
68457SOL    HW2 7146   1.633  11.742  10.900
68458SOL     OW 7147   3.643   7.209  10.350
68458SOL    HW1 7148   3.693   7.145  10.400
68458SOL    HW2 7149   3.687   7.292  10.365
68459SOL     OW 7150   8.027  12.961   7.115
68459SOL    HW1 7151   8.099  12.915   7.159
68459SOL    HW2 7152   7.992  13.019   7.183
68460SOL     OW 7153   5.299   0.956  12.723
68460SOL    HW1 7154   5.323   0.876  12.675
68460SOL    HW2 7155   5.380   0.983  12.765
68461SOL     OW 7156   7.392   4.482   7.231
68461SOL    HW1 7157   7.325   4.493   7.298
68461SOL    HW2 7158   7.374   4.552   7.168
68462SOL     OW 7159  13.283   4.074   1.569
68462SOL    HW1 7160  13.256   3.986   1.544
68462SOL    HW2 7161  13.307   4.067   1.662
68463SOL     OW 7162   6.362   1.843   9.834
68463SOL    HW1 7163   6.336   1.752   9.837
68463SOL    HW2 7164   6.283   1.892   9.856
68464SOL     OW 7165  13.126  12.864  12.007
68464SOL    HW1 7166  13.083  12.821  12.081
68464SOL    HW2 7167  13.054  12.889  11.948
68465SOL     OW 7168   7.216   8.780   1.573
68465SOL    HW1 7169   7.187   8.734   1.652
68465SOL    HW2 7170   7.181   8.868   1.583
68466SOL     OW 7171   3.011   4.469   5.877
68466SOL    HW1 7172   3.056   4.547   5.910
68466SOL    HW2 7173   3.060   4.445   5.798
68467SOL     OW 7174  12.810   8.823   6.528
68467SOL    HW1 7175  12.736   8.789   6.477
68467SOL    HW2 7176  12.778   8.823   6.618
68468SOL     OW 7177   7.447   6.766   0.076
68468SOL    HW1 7178   7.519   6.788   0.134
68468SOL    HW2 7179   7.373   6.816   0.111
68469SOL     OW 7180  13.401  13.954   5.149
68469SOL    HW1 7181  13.432  13.907   5.226
68469SOL    HW2 7182  13.313  13.920   5.134
68470SOL     OW 7183   3.712   1.244   3.688
68470SOL    HW1 7184   3.686   1.305   3.756
68470SOL    HW2 7185   3.804   1.224   3.708
68471SOL     OW 7186   4.237   0.640   7.944
68471SOL    HW1 7187   4.148   0.671   7.957
68471SOL    HW2 7188   4.255   0.653   7.851
68472SOL     OW 7189   5.031   7.038   0.666
68472SOL    HW1 7190   4.963   7.047   0.599
68472SOL    HW2 7191   5.103   6.995   0.621
68473SOL     OW 7192   4.799   4.003   0.563
68473SOL    HW1 7193   4.771   4.026   0.475
68473SOL    HW2 7194   4.846   3.920   0.552
68474SOL     OW 7195   9.380   1.562  14.349
68474SOL    HW1 7196   9.313   1.496  14.330
68474SOL    HW2 7197   9.419   1.582  14.264
68475SOL     OW 7198   8.176   4.072   7.538
68475SOL    HW1 7199   8.223   4.136   7.485
68475SOL    HW2 7200   8.087   4.106   7.543
68476SOL     OW 7201   0.173  13.538   4.015
68476SOL    HW1 7202   0.104  13.477   4.042
68476SOL    HW2 7203   0.216  13.563   4.097
68477SOL     OW 7204  13.831  14.515   2.827
68477SOL    HW1 7205  13.799  14.450   2.765
68477SOL    HW2 7206  13.904  14.557   2.782
68478SOL     OW 7207  12.314   5.393   8.712
68478SOL    HW1 7208  12.232   5.418   8.669
68478SOL    HW2 7209  12.366   5.473   8.712
68479SOL     OW 7210   9.401  14.460  13.672
68479SOL    HW1 7211   9.453  14.477  13.751
68479SOL    HW2 7212   9.334  14.397  13.701
68480SOL     OW 7213  11.999   4.339  10.986
68480SOL    HW1 7214  12.075   4.387  10.954
68480SOL    HW2 7215  11.924   4.395  10.966
68481SOL     OW 7216  11.984  11.079  13.914
68481SOL    HW1 7217  12.017  11.046  13.830
68481SOL    HW2 7218  11.931  11.007  13.948
68482SOL     OW 7219   5.590  11.993  13.088
68482SOL    HW1 7220   5.588  12.060  13.156
68482SOL    HW2 7221   5.530  11.925  13.118
68483SOL     OW 7222   1.149   2.081   8.939
68483SOL    HW1 7223   1.182   2.007   8.888
68483SOL    HW2 7224   1.136   2.151   8.874
68484SOL     OW 7225   1.610  13.314   8.100
68484SOL    HW1 7226   1.611  13.258   8.022
68484SOL    HW2 7227   1.643  13.258   8.170
68485SOL     OW 7228   8.755   4.834   1.617
68485SOL    HW1 7229   8.694   4.906   1.598
68485SOL    HW2 7230   8.723   4.797   1.700
68486SOL     OW 7231   1.045   9.109   6.415
68486SOL    HW1 7232   0.975   9.045   6.402
68486SOL    HW2 7233   1.117   9.058   6.453
68487SOL     OW 7234  13.044   2.152   1.067
68487SOL    HW1 7235  13.089   2.078   1.109
68487SOL    HW2 7236  12.974   2.175   1.129
68488SOL     OW 7237  10.698   9.881   5.991
68488SOL    HW1 7238  10.647   9.899   5.912
68488SOL    HW2 7239  10.683   9.958   6.047
68489SOL     OW 7240   4.505   5.900   9.786
68489SOL    HW1 7241   4.512   5.837   9.713
68489SOL    HW2 7242   4.584   5.953   9.778
68490SOL     OW 7243  12.334   4.375   0.641
68490SOL    HW1 7244  12.307   4.396   0.552
68490SOL    HW2 7245  12.305   4.285   0.655
68491SOL     OW 7246   0.758   6.028  12.812
68491SOL    HW1 7247   0.675   6.031  12.766
68491SOL    HW2 7248   0.737   6.054  12.902
68492SOL     OW 7249   0.516   1.363   4.848
68492SOL    HW1 7250   0.434   1.315   4.852
68492SOL    HW2 7251   0.523   1.391   4.757
68493SOL     OW 7252  13.152   2.569   6.040
68493SOL    HW1 7253  13.237   2.612   6.029
68493SOL    HW2 7254  13.089   2.631   6.003
68494SOL     OW 7255  14.411   7.818  12.900
68494SOL    HW1 7256  14.430   7.747  12.960
68494SOL    HW2 7257  14.473   7.806  12.828
68495SOL     OW 7258   7.455   7.008  13.982
68495SOL    HW1 7259   7.419   7.002  14.070
68495SOL    HW2 7260   7.509   6.930  13.972
68496SOL     OW 7261   1.797  11.572  14.406
68496SOL    HW1 7262   1.741  11.596  14.480
68496SOL    HW2 7263   1.829  11.656  14.372
68497SOL     OW 7264   3.528  13.410   5.221
68497SOL    HW1 7265   3.481  13.365   5.291
68497SOL    HW2 7266   3.561  13.340   5.165
68498SOL     OW 7267   7.632   0.145   4.535
68498SOL    HW1 7268   7.554   0.151   4.481
68498SOL    HW2 7269   7.664   0.055   4.521
68499SOL     OW 7270  12.669   9.606   0.539
68499SOL    HW1 7271  12.745   9.594   0.597
68499SOL    HW2 7272  12.602   9.549   0.576
68500SOL     OW 7273  14.514   1.979   8.294
68500SOL    HW1 7274  14.478   1.912   8.353
68500SOL    HW2 7275  14.532   1.932   8.213
68501SOL     OW 7276  10.647  13.978   6.626
68501SOL    HW1 7277  10.638  13.942   6.714
68501SOL    HW2 7278  10.558  13.980   6.591
68502SOL     OW 7279  11.182  11.725   2.481
68502SOL    HW1 7280  11.224  11.733   2.567
68502SOL    HW2 7281  11.115  11.794   2.481
68503SOL     OW 7282   7.440   3.538  10.563
68503SOL    HW1 7283   7.407   3.621  10.529
68503SOL    HW2 7284   7.441   3.549  10.658
68504SOL     OW 7285   8.533   0.519   8.250
68504SOL    HW1 7286   8.484   0.515   8.168
68504SOL    HW2 7287   8.619   0.483   8.228
68505SOL     OW 7288  13.225   4.969   2.232
68505SOL    HW1 7289  13.273   5.027   2.291
68505SOL    HW2 7290  13.149   4.941   2.284
68506SOL     OW 7291  10.210   7.917   4.475
68506SOL    HW1 7292  10.253   8.001   4.456
68506SOL    HW2 7293  10.151   7.904   4.401
68507SOL     OW 7294  13.972  13.083   8.909
68507SOL    HW1 7295  13.886  13.052   8.936
68507SOL    HW2 7296  13.959  13.115   8.820
68508SOL     OW 7297   5.631  11.329  14.712
68508SOL    HW1 7298   5.604  11.299  14.625
68508SOL    HW2 7299   5.678  11.255  14.749
68509SOL     OW 7300   7.737   0.768   3.637
68509SOL    HW1 7301   7.701   0.722   3.561
68509SOL    HW2 7302   7.802   0.707   3.673
68510SOL     OW 7303  14.635   9.341   1.069
68510SOL    HW1 7304  14.560   9.389   1.035
68510SOL    HW2 7305  14.624   9.341   1.164
68511SOL     OW 7306   6.231  10.651   3.844
68511SOL    HW1 7307   6.312  10.690   3.879
68511SOL    HW2 7308   6.255  10.623   3.756
68512SOL     OW 7309  12.816   5.391  10.695
68512SOL    HW1 7310  12.775   5.347  10.620
68512SOL    HW2 7311  12.749   5.453  10.725
68513SOL     OW 7312  13.163   2.706   3.251
68513SOL    HW1 7313  13.148   2.665   3.336
68513SOL    HW2 7314  13.256   2.730   3.252
68514SOL     OW 7315  12.560   5.236   7.771
68514SOL    HW1 7316  12.620   5.310   7.764
68514SOL    HW2 7317  12.507   5.240   7.692
68515SOL     OW 7318   7.302  14.783  14.471
68515SOL    HW1 7319   7.263  14.812  14.553
68515SOL    HW2 7320   7.381  14.838  14.462
68516SOL     OW 7321   1.141  10.124   7.829
68516SOL    HW1 7322   1.142  10.214   7.795
68516SOL    HW2 7323   1.230  10.110   7.860
68517SOL     OW 7324  12.824  10.524  14.863
68517SOL    HW1 7325  12.888  10.463   0.021
68517SOL    HW2 7326  12.865  10.610  14.873
68518SOL     OW 7327   1.774   0.905  11.096
68518SOL    HW1 7328   1.769   0.940  11.185
68518SOL    HW2 7329   1.842   0.837  11.100
68519SOL     OW 7330   1.137  11.728  13.010
68519SOL    HW1 7331   1.079  11.676  12.955
68519SOL    HW2 7332   1.222  11.685  13.003
68520SOL     OW 7333  11.834  13.920   6.932
68520SOL    HW1 7334  11.818  13.848   6.994
68520SOL    HW2 7335  11.797  13.997   6.974
68521SOL     OW 7336   0.049  14.383   2.598
68521SOL    HW1 7337  14.863  14.341   2.541
68521SOL    HW2 7338   0.014  14.369   2.686
68522SOL     OW 7339  10.769   2.746  14.279
68522SOL    HW1 7340  10.692   2.801  14.297
68522SOL    HW2 7341  10.746   2.660  14.314
68523SOL     OW 7342   5.675   9.458   3.739
68523SOL    HW1 7343   5.654   9.548   3.715
68523SOL    HW2 7344   5.769   9.459   3.757
68524SOL     OW 7345   8.808  10.845   8.449
68524SOL    HW1 7346   8.835  10.772   8.393
68524SOL    HW2 7347   8.885  10.902   8.454
68525SOL     OW 7348   4.429  12.249  13.124
68525SOL    HW1 7349   4.400  12.317  13.063
68525SOL    HW2 7350   4.384  12.270  13.206
68526SOL     OW 7351   5.604  12.634   0.416
68526SOL    HW1 7352   5.638  12.703   0.472
68526SOL    HW2 7353   5.532  12.595   0.466
68527SOL     OW 7354   5.363   5.327  13.432
68527SOL    HW1 7355   5.403   5.289  13.353
68527SOL    HW2 7356   5.356   5.253  13.492
68528SOL     OW 7357   6.426   8.203   1.402
68528SOL    HW1 7358   6.511   8.180   1.437
68528SOL    HW2 7359   6.441   8.284   1.352
68529SOL     OW 7360   1.364  14.820   9.746
68529SOL    HW1 7361   1.436  14.798   9.687
68529SOL    HW2 7362   1.375   0.036   9.763
68530SOL     OW 7363   7.338   2.195   0.591
68530SOL    HW1 7364   7.391   2.232   0.520
68530SOL    HW2 7365   7.399   2.185   0.663
68531SOL     OW 7366   1.606   5.634  13.886
68531SOL    HW1 7367   1.513   5.650  13.870
68531SOL    HW2 7368   1.608   5.555  13.941
68532SOL     OW 7369   1.233  10.413   0.621
68532SOL    HW1 7370   1.182  10.403   0.702
68532SOL    HW2 7371   1.310  10.357   0.635
68533SOL     OW 7372  11.606   3.497  10.980
68533SOL    HW1 7373  11.536   3.545  11.025
68533SOL    HW2 7374  11.611   3.538  10.894
68534SOL     OW 7375   1.197   4.751   7.473
68534SOL    HW1 7376   1.222   4.709   7.391
68534SOL    HW2 7377   1.191   4.680   7.536
68535SOL     OW 7378  10.084   2.178   4.116
68535SOL    HW1 7379  10.108   2.205   4.027
68535SOL    HW2 7380  10.009   2.120   4.104
68536SOL     OW 7381  11.538  10.622   1.157
68536SOL    HW1 7382  11.445  10.617   1.179
68536SOL    HW2 7383  11.568  10.704   1.194
68537SOL     OW 7384   4.506  12.134   2.050
68537SOL    HW1 7385   4.446  12.170   2.116
68537SOL    HW2 7386   4.569  12.204   2.034
68538SOL     OW 7387   0.431  11.207  10.183
68538SOL    HW1 7388   0.381  11.288  10.181
68538SOL    HW2 7389   0.489  11.216  10.259
68539SOL     OW 7390   8.242   9.276   4.693
68539SOL    HW1 7391   8.314   9.315   4.644
68539SOL    HW2 7392   8.253   9.182   4.682
68540SOL     OW 7393   9.065   1.153   1.380
68540SOL    HW1 7394   9.031   1.148   1.290
68540SOL    HW2 7395   9.032   1.074   1.423
68541SOL     OW 7396   5.365   1.777  13.262
68541SOL    HW1 7397   5.318   1.853  13.229
68541SOL    HW2 7398   5.368   1.716  13.189
68542SOL     OW 7399   2.262   5.135   1.349
68542SOL    HW1 7400   2.340   5.185   1.372
68542SOL    HW2 7401   2.245   5.159   1.258
68543SOL     OW 7402   9.066  11.592   8.927
68543SOL    HW1 7403   9.062  11.520   8.991
68543SOL    HW2 7404   8.988  11.644   8.945
68544SOL     OW 7405   8.921  12.179   8.113
68544SOL    HW1 7406   8.944  12.201   8.203
68544SOL    HW2 7407   8.984  12.112   8.086
68545SOL     OW 7408  10.148   6.618   8.847
68545SOL    HW1 7409  10.150   6.698   8.900
68545SOL    HW2 7410  10.112   6.646   8.763
68546SOL     OW 7411   2.513   1.482  10.181
68546SOL    HW1 7412   2.579   1.420  10.150
68546SOL    HW2 7413   2.430   1.437  10.167
68547SOL     OW 7414  13.853   2.383  10.748
68547SOL    HW1 7415  13.768   2.385  10.792
68547SOL    HW2 7416  13.859   2.294  10.713
68548SOL     OW 7417  13.542   4.624   0.180
68548SOL    HW1 7418  13.509   4.699   0.229
68548SOL    HW2 7419  13.465   4.569   0.165
68549SOL     OW 7420  10.424  10.949   9.799
68549SOL    HW1 7421  10.363  10.879   9.822
68549SOL    HW2 7422  10.392  11.025   9.848
68550SOL     OW 7423   2.695   4.789   9.176
68550SOL    HW1 7424   2.787   4.812   9.161
68550SOL    HW2 7425   2.696   4.695   9.194
68551SOL     OW 7426   5.695  14.118   8.405
68551SOL    HW1 7427   5.636  14.181   8.446
68551SOL    HW2 7428   5.771  14.171   8.379
68552SOL     OW 7429   8.770  12.039  11.215
68552SOL    HW1 7430   8.850  12.024  11.165
68552SOL    HW2 7431   8.800  12.080  11.297
68553SOL     OW 7432  13.342   8.899   3.411
68553SOL    HW1 7433  13.300   8.933   3.491
68553SOL    HW2 7434  13.435   8.898   3.432
68554SOL     OW 7435   5.572  10.664   4.463
68554SOL    HW1 7436   5.668  10.669   4.460
68554SOL    HW2 7437   5.551  10.654   4.555
68555SOL     OW 7438  12.172   8.496   2.460
68555SOL    HW1 7439  12.208   8.565   2.405
68555SOL    HW2 7440  12.248   8.449   2.493
68556SOL     OW 7441  10.513   4.640   7.703
68556SOL    HW1 7442  10.481   4.596   7.624
68556SOL    HW2 7443  10.576   4.704   7.671
68557SOL     OW 7444  14.119  13.750  10.589
68557SOL    HW1 7445  14.078  13.664  10.593
68557SOL    HW2 7446  14.054  13.809  10.627
68558SOL     OW 7447   9.206  10.497   3.651
68558SOL    HW1 7448   9.213  10.567   3.586
68558SOL    HW2 7449   9.293  10.493   3.691
68559SOL     OW 7450   6.175  10.110   2.875
68559SOL    HW1 7451   6.116  10.185   2.872
68559SOL    HW2 7452   6.190  10.094   2.968
68560SOL     OW 7453   6.764   1.102  13.954
68560SOL    HW1 7454   6.808   1.021  13.982
68560SOL    HW2 7455   6.833   1.155  13.915
68561SOL     OW 7456  12.930   4.934   7.684
68561SOL    HW1 7457  12.997   4.998   7.658
68561SOL    HW2 7458  12.977   4.872   7.740
68562SOL     OW 7459   6.680   3.306   2.639
68562SOL    HW1 7460   6.740   3.283   2.710
68562SOL    HW2 7461   6.599   3.261   2.661
68563SOL     OW 7462  10.150   8.756   1.563
68563SOL    HW1 7463  10.091   8.776   1.635
68563SOL    HW2 7464  10.197   8.678   1.590
68564SOL     OW 7465   5.819   7.989  11.181
68564SOL    HW1 7466   5.796   7.932  11.255
68564SOL    HW2 7467   5.823   7.930  11.106
68565SOL     OW 7468  14.801  13.021   1.518
68565SOL    HW1 7469  14.857  13.096   1.497
68565SOL    HW2 7470  14.817  13.005   1.611
68566SOL     OW 7471   8.557   6.319   1.569
68566SOL    HW1 7472   8.496   6.355   1.505
68566SOL    HW2 7473   8.600   6.246   1.523
68567SOL     OW 7474  14.034  13.280   0.179
68567SOL    HW1 7475  14.030  13.361   0.130
68567SOL    HW2 7476  14.122  13.245   0.161
68568SOL     OW 7477   0.572   3.008  14.795
68568SOL    HW1 7478   0.542   2.994  14.705
68568SOL    HW2 7479   0.607   2.923  14.822
68569SOL     OW 7480   9.250   1.263  10.114
68569SOL    HW1 7481   9.282   1.226  10.032
68569SOL    HW2 7482   9.316   1.239  10.179
68570SOL     OW 7483   1.755  10.846   5.452
68570SOL    HW1 7484   1.663  10.860   5.475
68570SOL    HW2 7485   1.753  10.781   5.382
68571SOL     OW 7486   8.812  12.186   1.433
68571SOL    HW1 7487   8.810  12.157   1.341
68571SOL    HW2 7488   8.869  12.263   1.432
68572SOL     OW 7489   1.871  11.845  10.764
68572SOL    HW1 7490   1.885  11.758  10.801
68572SOL    HW2 7491   1.952  11.893  10.782
68573SOL     OW 7492   3.328  14.305   5.241
68573SOL    HW1 7493   3.368  14.235   5.293
68573SOL    HW2 7494   3.245  14.323   5.285
68574SOL     OW 7495   8.215   4.417   7.138
68574SOL    HW1 7496   8.157   4.488   7.109
68574SOL    HW2 7497   8.207   4.350   7.070
68575SOL     OW 7498  12.147   5.996  11.734
68575SOL    HW1 7499  12.092   5.969  11.807
68575SOL    HW2 7500  12.139   5.925  11.670
68576SOL     OW 7501  14.469   9.083   1.905
68576SOL    HW1 7502  14.411   9.020   1.862
68576SOL    HW2 7503  14.472   9.054   1.996
68577SOL     OW 7504   6.184   6.492   1.546
68577SOL    HW1 7505   6.228   6.408   1.561
68577SOL    HW2 7506   6.249   6.558   1.568
68578SOL     OW 7507   3.610   8.201  12.011
68578SOL    HW1 7508   3.534   8.229  11.961
68578SOL    HW2 7509   3.616   8.263  12.083
68579SOL     OW 7510  12.745   2.265  12.478
68579SOL    HW1 7511  12.651   2.262  12.457
68579SOL    HW2 7512  12.787   2.219  12.405
68580SOL     OW 7513  12.396  12.448   8.369
68580SOL    HW1 7514  12.441  12.419   8.289
68580SOL    HW2 7515  12.321  12.499   8.337
68581SOL     OW 7516   4.135   5.551   2.786
68581SOL    HW1 7517   4.222   5.574   2.819
68581SOL    HW2 7518   4.148   5.467   2.742
68582SOL     OW 7519  13.648   5.635   6.589
68582SOL    HW1 7520  13.646   5.544   6.617
68582SOL    HW2 7521  13.665   5.685   6.669
68583SOL     OW 7522  13.063   7.477  13.875
68583SOL    HW1 7523  13.116   7.489  13.795
68583SOL    HW2 7524  13.059   7.383  13.886
68584SOL     OW 7525   6.568  11.396  14.611
68584SOL    HW1 7526   6.490  11.363  14.566
68584SOL    HW2 7527   6.588  11.479  14.567
68585SOL     OW 7528   4.010   1.257   3.382
68585SOL    HW1 7529   4.090   1.288   3.340
68585SOL    HW2 7530   4.018   1.284   3.473
68586SOL     OW 7531   2.317  12.307  10.877
68586SOL    HW1 7532   2.333  12.395  10.911
68586SOL    HW2 7533   2.333  12.314  10.783
68587SOL     OW 7534   5.303   5.682   5.049
68587SOL    HW1 7535   5.322   5.769   5.084
68587SOL    HW2 7536   5.286   5.697   4.956
68588SOL     OW 7537   1.874   6.360  12.880
68588SOL    HW1 7538   1.845   6.388  12.793
68588SOL    HW2 7539   1.967   6.339  12.867
68589SOL     OW 7540   5.362   9.314   9.727
68589SOL    HW1 7541   5.281   9.330   9.776
68589SOL    HW2 7542   5.354   9.224   9.696
68590SOL     OW 7543  14.785  13.136   8.408
68590SOL    HW1 7544  14.830  13.109   8.327
68590SOL    HW2 7545  14.704  13.177   8.378
68591SOL     OW 7546  11.934   2.676   5.952
68591SOL    HW1 7547  11.980   2.725   5.884
68591SOL    HW2 7548  11.843   2.705   5.946
68592SOL     OW 7549   9.674  11.866   7.753
68592SOL    HW1 7550   9.664  11.885   7.660
68592SOL    HW2 7551   9.734  11.792   7.756
68593SOL     OW 7552   1.176   5.589   5.737
68593SOL    HW1 7553   1.180   5.681   5.765
68593SOL    HW2 7554   1.266   5.568   5.712
68594SOL     OW 7555  11.258   9.628  12.895
68594SOL    HW1 7556  11.219   9.594  12.814
68594SOL    HW2 7557  11.211   9.710  12.912
68595SOL     OW 7558  14.194  11.707   6.371
68595SOL    HW1 7559  14.247  11.776   6.331
68595SOL    HW2 7560  14.135  11.680   6.301
68596SOL     OW 7561   7.142   9.592  10.334
68596SOL    HW1 7562   7.112   9.592  10.243
68596SOL    HW2 7563   7.204   9.665  10.339
68597SOL     OW 7564   5.494   0.194  12.845
68597SOL    HW1 7565   5.509   0.100  12.857
68597SOL    HW2 7566   5.524   0.212  12.756
68598SOL     OW 7567   9.777   6.142   1.247
68598SOL    HW1 7568   9.837   6.099   1.308
68598SOL    HW2 7569   9.695   6.150   1.296
68599SOL     OW 7570  13.697   8.024   7.293
68599SOL    HW1 7571  13.724   7.988   7.377
68599SOL    HW2 7572  13.645   7.954   7.252
68600SOL     OW 7573  12.579   9.226   0.049
68600SOL    HW1 7574  12.581   9.153  14.866
68600SOL    HW2 7575  12.566   9.303  14.872
68601SOL     OW 7576   5.873   1.295   3.835
68601SOL    HW1 7577   5.819   1.278   3.758
68601SOL    HW2 7578   5.955   1.247   3.818
68602SOL     OW 7579  12.342   3.843   3.907
68602SOL    HW1 7580  12.416   3.853   3.847
68602SOL    HW2 7581  12.318   3.932   3.930
68603SOL     OW 7582   6.901   1.327   0.917
68603SOL    HW1 7583   6.984   1.361   0.950
68603SOL    HW2 7584   6.855   1.404   0.884
68604SOL     OW 7585  13.179   0.921   3.484
68604SOL    HW1 7586  13.184   1.000   3.431
68604SOL    HW2 7587  13.108   0.870   3.445
68605SOL     OW 7588  12.226   3.295  11.120
68605SOL    HW1 7589  12.151   3.301  11.179
68605SOL    HW2 7590  12.191   3.316  11.033
68606SOL     OW 7591   8.375   5.941   8.560
68606SOL    HW1 7592   8.418   5.859   8.534
68606SOL    HW2 7593   8.427   5.971   8.635
68607SOL     OW 7594   4.669  13.148   9.665
68607SOL    HW1 7595   4.651  13.173   9.574
68607SOL    HW2 7596   4.760  13.173   9.679
68608SOL     OW 7597  13.726  12.486  12.586
68608SOL    HW1 7598  13.782  12.542  12.532
68608SOL    HW2 7599  13.787  12.437  12.641
68609SOL     OW 7600   3.096  12.035   9.641
68609SOL    HW1 7601   3.018  12.064   9.689
68609SOL    HW2 7602   3.072  12.042   9.549
68610SOL     OW 7603   0.385  10.813  13.728
68610SOL    HW1 7604   0.419  10.841  13.813
68610SOL    HW2 7605   0.434  10.733  13.707
68611SOL     OW 7606   3.360   6.031   3.811
68611SOL    HW1 7607   3.430   6.015   3.873
68611SOL    HW2 7608   3.346   5.946   3.768
68612SOL     OW 7609   2.348   9.558   2.167
68612SOL    HW1 7610   2.395   9.575   2.085
68612SOL    HW2 7611   2.330   9.464   2.165
68613SOL     OW 7612   9.283   3.745  10.621
68613SOL    HW1 7613   9.208   3.802  10.641
68613SOL    HW2 7614   9.298   3.757  10.528
68614SOL     OW 7615   9.413   3.715   3.416
68614SOL    HW1 7616   9.327   3.755   3.404
68614SOL    HW2 7617   9.446   3.699   3.328
68615SOL     OW 7618  11.785   2.092  13.261
68615SOL    HW1 7619  11.820   2.042  13.187
68615SOL    HW2 7620  11.727   2.030  13.306
68616SOL     OW 7621  12.750   3.923  13.626
68616SOL    HW1 7622  12.673   3.972  13.599
68616SOL    HW2 7623  12.805   3.987  13.672
68617SOL     OW 7624   5.643  14.273   5.365
68617SOL    HW1 7625   5.707  14.344   5.367
68617SOL    HW2 7626   5.636  14.244   5.456
68618SOL     OW 7627   6.537   3.075  12.219
68618SOL    HW1 7628   6.599   3.147  12.231
68618SOL    HW2 7629   6.593   2.997  12.211
68619SOL     OW 7630  11.818   5.082  10.218
68619SOL    HW1 7631  11.910   5.097  10.237
68619SOL    HW2 7632  11.804   5.120  10.132
68620SOL     OW 7633   2.515  12.081   7.955
68620SOL    HW1 7634   2.554  12.074   7.868
68620SOL    HW2 7635   2.474  12.167   7.956
68621SOL     OW 7636   6.364   4.305   2.248
68621SOL    HW1 7637   6.355   4.213   2.273
68621SOL    HW2 7638   6.458   4.318   2.237
68622SOL     OW 7639  11.945  12.683   7.134
68622SOL    HW1 7640  12.021  12.638   7.096
68622SOL    HW2 7641  11.983  12.750   7.191
68623SOL     OW 7642   0.644  11.499  10.647
68623SOL    HW1 7643   0.564  11.532  10.688
68623SOL    HW2 7644   0.672  11.428  10.703
68624SOL     OW 7645   7.921  11.143   5.849
68624SOL    HW1 7646   7.976  11.085   5.796
68624SOL    HW2 7647   7.972  11.158   5.929
68625SOL     OW 7648  11.925   1.961   4.694
68625SOL    HW1 7649  11.954   1.991   4.780
68625SOL    HW2 7650  11.901   1.870   4.707
68626SOL     OW 7651   3.059  10.375   1.688
68626SOL    HW1 7652   2.983  10.349   1.635
68626SOL    HW2 7653   3.053  10.470   1.692
68627SOL     OW 7654   3.051   2.405   7.919
68627SOL    HW1 7655   3.034   2.498   7.930
68627SOL    HW2 7656   3.098   2.399   7.836
68628SOL     OW 7657   6.923  14.433   2.406
68628SOL    HW1 7658   6.851  14.370   2.408
68628SOL    HW2 7659   6.937  14.450   2.313
68629SOL     OW 7660   3.403  13.113   0.825
68629SOL    HW1 7661   3.384  13.060   0.748
68629SOL    HW2 7662   3.498  13.111   0.834
68630SOL     OW 7663   4.486   4.983   4.622
68630SOL    HW1 7664   4.460   4.934   4.700
68630SOL    HW2 7665   4.423   5.054   4.615
68631SOL     OW 7666   3.856  11.367  10.962
68631SOL    HW1 7667   3.864  11.278  10.996
68631SOL    HW2 7668   3.780  11.403  11.008
68632SOL     OW 7669   4.560   1.392   5.979
68632SOL    HW1 7670   4.617   1.324   6.016
68632SOL    HW2 7671   4.619   1.447   5.926
68633SOL     OW 7672  13.410   4.458  11.723
68633SOL    HW1 7673  13.407   4.463  11.818
68633SOL    HW2 7674  13.437   4.368  11.704
68634SOL     OW 7675   3.429   4.999  11.201
68634SOL    HW1 7676   3.401   5.050  11.125
68634SOL    HW2 7677   3.471   4.921  11.164
68635SOL     OW 7678  11.789   2.976  12.467
68635SOL    HW1 7679  11.883   2.974  12.486
68635SOL    HW2 7680  11.749   2.933  12.543
68636SOL     OW 7681   2.170  10.487   2.332
68636SOL    HW1 7682   2.158  10.582   2.338
68636SOL    HW2 7683   2.255  10.472   2.374
68637SOL     OW 7684   4.150   3.601   4.116
68637SOL    HW1 7685   4.161   3.517   4.161
68637SOL    HW2 7686   4.082   3.646   4.167
68638SOL     OW 7687   1.375  10.595  12.231
68638SOL    HW1 7688   1.462  10.635  12.223
68638SOL    HW2 7689   1.350  10.574  12.141
68639SOL     OW 7690  13.478   9.735   6.333
68639SOL    HW1 7691  13.521   9.751   6.249
68639SOL    HW2 7692  13.408   9.799   6.337
68640SOL     OW 7693  10.508   4.815  11.642
68640SOL    HW1 7694  10.510   4.721  11.627
68640SOL    HW2 7695  10.528   4.853  11.556
68641SOL     OW 7696   4.192   0.127  12.361
68641SOL    HW1 7697   4.200   0.222  12.368
68641SOL    HW2 7698   4.254   0.102  12.292
68642SOL     OW 7699   2.928   9.411   2.478
68642SOL    HW1 7700   2.874   9.481   2.440
68642SOL    HW2 7701   3.018   9.441   2.467
68643SOL     OW 7702  12.801   6.410  10.892
68643SOL    HW1 7703  12.769   6.423  10.803
68643SOL    HW2 7704  12.722   6.400  10.946
68644SOL     OW 7705   2.100   5.675   0.732
68644SOL    HW1 7706   2.123   5.728   0.809
68644SOL    HW2 7707   2.035   5.613   0.764
68645SOL     OW 7708   2.362   1.665   0.245
68645SOL    HW1 7709   2.352   1.759   0.262
68645SOL    HW2 7710   2.337   1.655   0.153
68646SOL     OW 7711   5.662   9.021   4.231
68646SOL    HW1 7712   5.643   9.113   4.248
68646SOL    HW2 7713   5.655   9.012   4.136
68647SOL     OW 7714  14.853   2.629   7.380
68647SOL    HW1 7715  14.829   2.565   7.313
68647SOL    HW2 7716  14.819   2.592   7.461
68648SOL     OW 7717  14.690   1.769  13.473
68648SOL    HW1 7718  14.683   1.841  13.536
68648SOL    HW2 7719  14.771   1.724  13.498
68649SOL     OW 7720   9.199   2.658  14.401
68649SOL    HW1 7721   9.265   2.639  14.334
68649SOL    HW2 7722   9.218   2.747  14.429
68650SOL     OW 7723   4.114  12.409   7.559
68650SOL    HW1 7724   4.136  12.347   7.488
68650SOL    HW2 7725   4.127  12.359   7.639
68651SOL     OW 7726  10.230  14.643   3.787
68651SOL    HW1 7727  10.296  14.696   3.832
68651SOL    HW2 7728  10.171  14.707   3.747
68652SOL     OW 7729   2.450   3.245  11.699
68652SOL    HW1 7730   2.512   3.176  11.674
68652SOL    HW2 7731   2.448   3.243  11.795
68653SOL     OW 7732   1.952   5.291   6.279
68653SOL    HW1 7733   1.990   5.216   6.233
68653SOL    HW2 7734   1.991   5.288   6.366
68654SOL     OW 7735  14.083   1.126   8.325
68654SOL    HW1 7736  14.148   1.059   8.345
68654SOL    HW2 7737  14.131   1.191   8.273
68655SOL     OW 7738  12.567  10.648   4.773
68655SOL    HW1 7739  12.629  10.597   4.825
68655SOL    HW2 7740  12.501  10.678   4.835
68656SOL     OW 7741   4.893  11.967   2.171
68656SOL    HW1 7742   4.855  11.984   2.085
68656SOL    HW2 7743   4.823  11.922   2.219
68657SOL     OW 7744   9.079   9.443   5.906
68657SOL    HW1 7745   9.149   9.383   5.884
68657SOL    HW2 7746   9.111   9.490   5.984
68658SOL     OW 7747   1.406  10.591   9.522
68658SOL    HW1 7748   1.339  10.540   9.568
68658SOL    HW2 7749   1.358  10.637   9.454
68659SOL     OW 7750   0.961   7.407   0.466
68659SOL    HW1 7751   0.996   7.494   0.448
68659SOL    HW2 7752   0.976   7.393   0.559
68660SOL     OW 7753   8.391   5.194  10.941
68660SOL    HW1 7754   8.324   5.153  10.887
68660SOL    HW2 7755   8.442   5.247  10.881
68661SOL     OW 7756  10.561   8.848   8.597
68661SOL    HW1 7757  10.563   8.944   8.593
68661SOL    HW2 7758  10.551   8.829   8.690
68662SOL     OW 7759   2.504   5.595   8.231
68662SOL    HW1 7760   2.463   5.637   8.155
68662SOL    HW2 7761   2.545   5.667   8.279
68663SOL     OW 7762   0.872   3.971   3.881
68663SOL    HW1 7763   0.895   4.060   3.908
68663SOL    HW2 7764   0.802   3.945   3.940
68664SOL     OW 7765  14.231   0.557  11.270
68664SOL    HW1 7766  14.276   0.578  11.351
68664SOL    HW2 7767  14.219   0.641  11.226
68665SOL     OW 7768   4.951   2.349   1.775
68665SOL    HW1 7769   4.994   2.400   1.843
68665SOL    HW2 7770   4.983   2.260   1.787
68666SOL     OW 7771   8.569  11.956   8.965
68666SOL    HW1 7772   8.475  11.942   8.979
68666SOL    HW2 7773   8.605  11.960   9.053
68667SOL     OW 7774   0.114   1.376   6.526
68667SOL    HW1 7775   0.195   1.401   6.481
68667SOL    HW2 7776   0.125   1.283   6.545
68668SOL     OW 7777   7.225   1.483   5.683
68668SOL    HW1 7778   7.246   1.571   5.650
68668SOL    HW2 7779   7.139   1.464   5.647
68669SOL     OW 7780   3.091   7.888   4.125
68669SOL    HW1 7781   3.140   7.909   4.045
68669SOL    HW2 7782   3.001   7.914   4.105
68670SOL     OW 7783   8.274   1.398   6.212
68670SOL    HW1 7784   8.364   1.395   6.247
68670SOL    HW2 7785   8.268   1.321   6.156
68671SOL     OW 7786   6.060   9.744   5.381
68671SOL    HW1 7787   6.094   9.661   5.414
68671SOL    HW2 7788   6.030   9.790   5.459
68672SOL     OW 7789   7.560  11.678   5.358
68672SOL    HW1 7790   7.566  11.600   5.302
68672SOL    HW2 7791   7.648  11.687   5.395
68673SOL     OW 7792   4.395   5.025   8.581
68673SOL    HW1 7793   4.354   4.951   8.537
68673SOL    HW2 7794   4.341   5.100   8.556
68674SOL     OW 7795   9.160   8.351  11.574
68674SOL    HW1 7796   9.235   8.328  11.519
68674SOL    HW2 7797   9.085   8.342  11.516
68675SOL     OW 7798   8.317   4.770   7.265
68675SOL    HW1 7799   8.349   4.732   7.183
68675SOL    HW2 7800   8.386   4.753   7.328
68676SOL     OW 7801  12.734  14.027   2.654
68676SOL    HW1 7802  12.712  13.941   2.618
68676SOL    HW2 7803  12.824  14.043   2.624
68677SOL     OW 7804  11.060  11.545  13.884
68677SOL    HW1 7805  11.008  11.473  13.917
68677SOL    HW2 7806  11.056  11.536  13.789
68678SOL     OW 7807   4.597  13.035  11.463
68678SOL    HW1 7808   4.577  12.942  11.460
68678SOL    HW2 7809   4.590  13.064  11.372
68679SOL     OW 7810   2.849  12.613   3.326
68679SOL    HW1 7811   2.927  12.561   3.307
68679SOL    HW2 7812   2.882  12.694   3.364
68680SOL     OW 7813   1.694   6.710   7.719
68680SOL    HW1 7814   1.760   6.644   7.740
68680SOL    HW2 7815   1.664   6.742   7.804
68681SOL     OW 7816   0.024   8.347   9.123
68681SOL    HW1 7817  14.826   8.293   9.097
68681SOL    HW2 7818  14.864   8.416   9.177
68682SOL     OW 7819  11.803  14.381   5.619
68682SOL    HW1 7820  11.787  14.287   5.615
68682SOL    HW2 7821  11.896  14.389   5.640
68683SOL     OW 7822   5.194   0.069   8.649
68683SOL    HW1 7823   5.274   0.090   8.600
68683SOL    HW2 7824   5.144   0.151   8.650
68684SOL     OW 7825   6.789   4.348   3.632
68684SOL    HW1 7826   6.766   4.436   3.662
68684SOL    HW2 7827   6.877   4.333   3.666
68685SOL     OW 7828   6.681   3.172  14.240
68685SOL    HW1 7829   6.727   3.203  14.163
68685SOL    HW2 7830   6.682   3.245  14.301
68686SOL     OW 7831   0.766  12.699   0.905
68686SOL    HW1 7832   0.809  12.782   0.885
68686SOL    HW2 7833   0.802  12.673   0.990
68687SOL     OW 7834   0.226   6.064  14.717
68687SOL    HW1 7835   0.277   6.128  14.767
68687SOL    HW2 7836   0.262   5.979  14.742
68688SOL     OW 7837   9.154   3.921   9.202
68688SOL    HW1 7838   9.130   4.003   9.158
68688SOL    HW2 7839   9.167   3.859   9.130
68689SOL     OW 7840  13.261   2.203   6.185
68689SOL    HW1 7841  13.192   2.254   6.142
68689SOL    HW2 7842  13.286   2.139   6.119
68690SOL     OW 7843   8.775   2.247   3.990
68690SOL    HW1 7844   8.829   2.182   3.945
68690SOL    HW2 7845   8.739   2.201   4.065
68691SOL     OW 7846   4.568   0.973   1.473
68691SOL    HW1 7847   4.575   1.068   1.477
68691SOL    HW2 7848   4.559   0.946   1.564
68692SOL     OW 7849  13.077  12.696  13.068
68692SOL    HW1 7850  13.168  12.673  13.085
68692SOL    HW2 7851  13.027  12.648  13.134
68693SOL     OW 7852   4.709   9.273   7.534
68693SOL    HW1 7853   4.658   9.353   7.550
68693SOL    HW2 7854   4.799   9.303   7.529
68694SOL     OW 7855   4.632   1.850   9.081
68694SOL    HW1 7856   4.725   1.844   9.105
68694SOL    HW2 7857   4.596   1.915   9.141
68695SOL     OW 7858   2.193   3.158  14.236
68695SOL    HW1 7859   2.205   3.132  14.144
68695SOL    HW2 7860   2.180   3.252  14.233
68696SOL     OW 7861   6.447  11.743  13.615
68696SOL    HW1 7862   6.421  11.653  13.636
68696SOL    HW2 7863   6.522  11.734  13.556
68697SOL     OW 7864   7.827  11.298  14.856
68697SOL    HW1 7865   7.905  11.352  14.873
68697SOL    HW2 7866   7.772  11.310   0.056
68698SOL     OW 7867   0.765   1.213   2.439
68698SOL    HW1 7868   0.745   1.240   2.349
68698SOL    HW2 7869   0.847   1.258   2.459
68699SOL     OW 7870   5.772  14.366  11.120
68699SOL    HW1 7871   5.850  14.402  11.078
68699SOL    HW2 7872   5.779  14.271  11.107
68700SOL     OW 7873   1.494  13.879   2.261
68700SOL    HW1 7874   1.420  13.831   2.225
68700SOL    HW2 7875   1.553  13.811   2.294
68701SOL     OW 7876   1.088   3.242   2.981
68701SOL    HW1 7877   1.104   3.265   2.889
68701SOL    HW2 7878   1.083   3.146   2.981
68702SOL     OW 7879  13.854  10.048   1.431
68702SOL    HW1 7880  13.928   9.987   1.425
68702SOL    HW2 7881  13.891  10.127   1.470
68703SOL     OW 7882   6.180   1.807   4.639
68703SOL    HW1 7883   6.121   1.781   4.710
68703SOL    HW2 7884   6.259   1.755   4.653
68704SOL     OW 7885   8.297   6.901   5.493
68704SOL    HW1 7886   8.289   6.963   5.421
68704SOL    HW2 7887   8.376   6.850   5.472
68705SOL     OW 7888   4.978  10.811  11.271
68705SOL    HW1 7889   4.902  10.806  11.329
68705SOL    HW2 7890   5.020  10.894  11.294
68706SOL     OW 7891  10.374  11.676   0.535
68706SOL    HW1 7892  10.325  11.606   0.578
68706SOL    HW2 7893  10.358  11.662   0.441
68707SOL     OW 7894   2.273  10.050   0.002
68707SOL    HW1 7895   2.246  10.120   0.061
68707SOL    HW2 7896   2.354  10.081  14.840
68708SOL     OW 7897   2.933   4.772   0.641
68708SOL    HW1 7898   3.005   4.759   0.703
68708SOL    HW2 7899   2.928   4.689   0.592
68709SOL     OW 7900   7.081   2.828  10.813
68709SOL    HW1 7901   7.155   2.789  10.860
68709SOL    HW2 7902   7.122   2.873  10.739
68710SOL     OW 7903   9.868   3.969   5.624
68710SOL    HW1 7904   9.878   3.908   5.551
68710SOL    HW2 7905   9.823   4.045   5.586
68711SOL     OW 7906   1.468   8.762  12.018
68711SOL    HW1 7907   1.403   8.745  12.087
68711SOL    HW2 7908   1.524   8.685  12.019
68712SOL     OW 7909   7.184   7.466   9.693
68712SOL    HW1 7910   7.162   7.420   9.611
68712SOL    HW2 7911   7.240   7.539   9.666
68713SOL     OW 7912  10.086  14.862  14.351
68713SOL    HW1 7913  10.095  14.812  14.432
68713SOL    HW2 7914  10.038  14.803  14.293
68714SOL     OW 7915  12.297   2.348   5.894
68714SOL    HW1 7916  12.307   2.253   5.896
68714SOL    HW2 7917  12.203   2.363   5.901
68715SOL     OW 7918   3.684  14.478   4.740
68715SOL    HW1 7919   3.683  14.560   4.691
68715SOL    HW2 7920   3.731  14.499   4.821
68716SOL     OW 7921   7.865   1.375   9.142
68716SOL    HW1 7922   7.921   1.452   9.125
68716SOL    HW2 7923   7.914   1.302   9.105
68717SOL     OW 7924   4.650  14.038   9.319
68717SOL    HW1 7925   4.662  13.945   9.304
68717SOL    HW2 7926   4.555  14.050   9.325
68718SOL     OW 7927  10.438   1.564   9.054
68718SOL    HW1 7928  10.455   1.477   9.018
68718SOL    HW2 7929  10.496   1.570   9.130
68719SOL     OW 7930   5.192   0.673   6.348
68719SOL    HW1 7931   5.117   0.699   6.295
68719SOL    HW2 7932   5.258   0.740   6.330
68720SOL     OW 7933   7.938  14.632   2.975
68720SOL    HW1 7934   8.005  14.668   3.033
68720SOL    HW2 7935   7.924  14.543   3.008
68721SOL     OW 7936  11.810   3.250   1.683
68721SOL    HW1 7937  11.826   3.339   1.651
68721SOL    HW2 7938  11.795   3.198   1.604
68722SOL     OW 7939   0.153  13.651   4.570
68722SOL    HW1 7940   0.185  13.741   4.567
68722SOL    HW2 7941   0.082  13.652   4.633
68723SOL     OW 7942  11.189   6.275   8.691
68723SOL    HW1 7943  11.224   6.357   8.656
68723SOL    HW2 7944  11.131   6.303   8.762
68724SOL     OW 7945   7.804  12.657   9.411
68724SOL    HW1 7946   7.713  12.652   9.442
68724SOL    HW2 7947   7.847  12.583   9.452
68725SOL     OW 7948   8.921   6.474  11.188
68725SOL    HW1 7949   8.850   6.489  11.125
68725SOL    HW2 7950   8.879   6.485  11.273
68726SOL     OW 7951  11.321   8.361  12.294
68726SOL    HW1 7952  11.372   8.423  12.243
68726SOL    HW2 7953  11.386   8.314  12.346
68727SOL     OW 7954  10.781   8.819   4.808
68727SOL    HW1 7955  10.777   8.725   4.791
68727SOL    HW2 7956  10.754   8.829   4.899
68728SOL     OW 7957  10.242   5.518  10.044
68728SOL    HW1 7958  10.209   5.452   9.983
68728SOL    HW2 7959  10.163   5.557  10.082
68729SOL     OW 7960   4.332   9.305  12.482
68729SOL    HW1 7961   4.423   9.313  12.455
68729SOL    HW2 7962   4.336   9.299  12.577
68730SOL     OW 7963  13.105  12.880   3.227
68730SOL    HW1 7964  13.145  12.896   3.313
68730SOL    HW2 7965  13.130  12.790   3.206
68731SOL     OW 7966   6.708  11.805   4.078
68731SOL    HW1 7967   6.633  11.842   4.031
68731SOL    HW2 7968   6.669  11.743   4.140
68732SOL     OW 7969   9.149   1.508   7.306
68732SOL    HW1 7970   9.213   1.572   7.275
68732SOL    HW2 7971   9.201   1.445   7.357
68733SOL     OW 7972   0.515   2.638  12.843
68733SOL    HW1 7973   0.597   2.666  12.803
68733SOL    HW2 7974   0.533   2.550  12.877
68734SOL     OW 7975   6.665   2.881  13.631
68734SOL    HW1 7976   6.737   2.818  13.633
68734SOL    HW2 7977   6.699   2.955  13.581
68735SOL     OW 7978  12.456  11.023  14.878
68735SOL    HW1 7979  12.474  11.008  14.785
68735SOL    HW2 7980  12.459  10.936   0.039
68736SOL     OW 7981   9.886   0.430  11.273
68736SOL    HW1 7982   9.887   0.367  11.201
68736SOL    HW2 7983   9.822   0.395  11.335
68737SOL     OW 7984   3.545  12.565   4.092
68737SOL    HW1 7985   3.510  12.654   4.095
68737SOL    HW2 7986   3.631  12.571   4.133
68738SOL     OW 7987  10.255   4.031  10.785
68738SOL    HW1 7988  10.333   4.070  10.744
68738SOL    HW2 7989  10.275   3.938  10.792
68739SOL     OW 7990  13.523   0.923   5.618
68739SOL    HW1 7991  13.587   0.912   5.548
68739SOL    HW2 7992  13.500   1.015   5.616
68740SOL     OW 7993   4.617   9.809  12.685
68740SOL    HW1 7994   4.644   9.778  12.598
68740SOL    HW2 7995   4.695   9.801  12.739
68741SOL     OW 7996  10.340   8.186  13.408
68741SOL    HW1 7997  10.379   8.268  13.377
68741SOL    HW2 7998  10.327   8.200  13.502
68742SOL     OW 7999  14.022   9.613  14.516
68742SOL    HW1 8000  13.944   9.643  14.563
68742SOL    HW2 8001  14.092   9.618  14.581
68743SOL     OW 8002   4.975   8.365  11.534
68743SOL    HW1 8003   4.975   8.414  11.617
68743SOL    HW2 8004   4.932   8.282  11.555
68744SOL     OW 8005   9.821   7.927   5.696
68744SOL    HW1 8006   9.752   7.879   5.650
68744SOL    HW2 8007   9.879   7.957   5.626
68745SOL     OW 8008  13.379  14.424  13.159
68745SOL    HW1 8009  13.322  14.498  13.177
68745SOL    HW2 8010  13.324  14.362  13.111
68746SOL     OW 8011   0.472   1.601  12.060
68746SOL    HW1 8012   0.410   1.673  12.069
68746SOL    HW2 8013   0.455   1.545  12.136
68747SOL     OW 8014   9.782  12.829  10.791
68747SOL    HW1 8015   9.748  12.905  10.839
68747SOL    HW2 8016   9.704  12.790  10.751
68748SOL     OW 8017  10.424   3.483   3.831
68748SOL    HW1 8018  10.482   3.559   3.839
68748SOL    HW2 8019  10.341   3.512   3.869
68749SOL     OW 8020   5.371   6.189   3.648
68749SOL    HW1 8021   5.453   6.231   3.624
68749SOL    HW2 8022   5.396   6.099   3.668
68750SOL     OW 8023  13.432   3.812   1.705
68750SOL    HW1 8024  13.366   3.791   1.639
68750SOL    HW2 8025  13.394   3.885   1.754
68751SOL     OW 8026   3.963   5.403   8.034
68751SOL    HW1 8027   3.899   5.430   8.100
68751SOL    HW2 8028   4.044   5.447   8.059
68752SOL     OW 8029   7.593  13.853   8.055
68752SOL    HW1 8030   7.593  13.898   8.140
68752SOL    HW2 8031   7.590  13.760   8.077
68753SOL     OW 8032   7.212   9.241   3.564
68753SOL    HW1 8033   7.200   9.147   3.552
68753SOL    HW2 8034   7.254   9.271   3.483
68754SOL     OW 8035  14.406  12.156  13.324
68754SOL    HW1 8036  14.320  12.168  13.366
68754SOL    HW2 8037  14.453  12.097  13.382
68755SOL     OW 8038   3.884   3.110   6.067
68755SOL    HW1 8039   3.903   3.191   6.020
68755SOL    HW2 8040   3.916   3.125   6.156
68756SOL     OW 8041   2.125   5.914   8.702
68756SOL    HW1 8042   2.095   5.835   8.747
68756SOL    HW2 8043   2.213   5.929   8.737
68757SOL     OW 8044   2.882   0.701   6.543
68757SOL    HW1 8045   2.905   0.717   6.635
68757SOL    HW2 8046   2.898   0.785   6.500
68758SOL     OW 8047   5.891   7.694  14.362
68758SOL    HW1 8048   5.854   7.626  14.418
68758SOL    HW2 8049   5.958   7.648  14.310
68759SOL     OW 8050   3.504   9.635  10.546
68759SOL    HW1 8051   3.521   9.669  10.635
68759SOL    HW2 8052   3.483   9.713  10.495
68760SOL     OW 8053   3.218   3.444   5.080
68760SOL    HW1 8054   3.230   3.351   5.059
68760SOL    HW2 8055   3.147   3.444   5.144
68761SOL     OW 8056   4.294   7.871   1.289
68761SOL    HW1 8057   4.246   7.793   1.263
68761SOL    HW2 8058   4.385   7.852   1.266
68762SOL     OW 8059  10.489   0.732   6.819
68762SOL    HW1 8060  10.531   0.711   6.902
68762SOL    HW2 8061  10.540   0.685   6.753
68763SOL     OW 8062   9.679   2.028  13.175
68763SOL    HW1 8063   9.637   2.008  13.091
68763SOL    HW2 8064   9.606   2.049  13.234
68764SOL     OW 8065   7.355   6.827  12.397
68764SOL    HW1 8066   7.377   6.816  12.489
68764SOL    HW2 8067   7.337   6.739  12.366
68765SOL     OW 8068   5.359  13.466   8.537
68765SOL    HW1 8069   5.330  13.540   8.590
68765SOL    HW2 8070   5.371  13.502   8.449
68766SOL     OW 8071  14.255   6.798  14.270
68766SOL    HW1 8072  14.326   6.861  14.282
68766SOL    HW2 8073  14.214   6.823  14.187
68767SOL     OW 8074   3.759   1.421   0.413
68767SOL    HW1 8075   3.691   1.406   0.346
68767SOL    HW2 8076   3.736   1.506   0.451
68768SOL     OW 8077  11.027   9.780   7.587
68768SOL    HW1 8078  11.104   9.741   7.629
68768SOL    HW2 8079  11.003   9.853   7.644
68769SOL     OW 8080  12.067   0.784   8.513
68769SOL    HW1 8081  12.077   0.689   8.512
68769SOL    HW2 8082  12.110   0.813   8.433
68770SOL     OW 8083   6.613   7.002   9.960
68770SOL    HW1 8084   6.692   6.963   9.998
68770SOL    HW2 8085   6.644   7.084   9.921
68771SOL     OW 8086   3.221  12.279  13.785
68771SOL    HW1 8087   3.198  12.202  13.734
68771SOL    HW2 8088   3.232  12.246  13.875
68772SOL     OW 8089   1.714  12.501  13.079
68772SOL    HW1 8090   1.797  12.546  13.093
68772SOL    HW2 8091   1.676  12.543  13.002
68773SOL     OW 8092  10.941   8.453   4.270
68773SOL    HW1 8093  11.025   8.455   4.315
68773SOL    HW2 8094  10.958   8.407   4.188
68774SOL     OW 8095   2.299   3.116  12.481
68774SOL    HW1 8096   2.362   3.137  12.550
68774SOL    HW2 8097   2.257   3.199  12.460
68775SOL     OW 8098  12.899   5.920  12.053
68775SOL    HW1 8099  12.891   5.920  12.148
68775SOL    HW2 8100  12.812   5.941  12.021
68776SOL     OW 8101   4.937   1.254  12.149
68776SOL    HW1 8102   5.009   1.234  12.089
68776SOL    HW2 8103   4.911   1.343  12.125
68777SOL     OW 8104   3.657   3.909   8.833
68777SOL    HW1 8105   3.663   3.815   8.820
68777SOL    HW2 8106   3.594   3.920   8.905
68778SOL     OW 8107  12.598  11.532   9.603
68778SOL    HW1 8108  12.616  11.448   9.562
68778SOL    HW2 8109  12.684  11.568   9.625
68779SOL     OW 8110   2.147   4.118   3.243
68779SOL    HW1 8111   2.096   4.046   3.281
68779SOL    HW2 8112   2.092   4.153   3.173
68780SOL     OW 8113   0.740   4.141   7.207
68780SOL    HW1 8114   0.762   4.212   7.267
68780SOL    HW2 8115   0.654   4.110   7.237
68781SOL     OW 8116   3.734  13.446  10.451
68781SOL    HW1 8117   3.678  13.402  10.388
68781SOL    HW2 8118   3.823  13.416  10.430
68782SOL     OW 8119  11.431   7.662   3.865
68782SOL    HW1 8120  11.419   7.707   3.948
68782SOL    HW2 8121  11.504   7.707   3.823
68783SOL     OW 8122  12.804   1.239  12.772
68783SOL    HW1 8123  12.730   1.299  12.772
68783SOL    HW2 8124  12.877   1.291  12.806
68784SOL     OW 8125   1.466   0.121   6.646
68784SOL    HW1 8126   1.415   0.154   6.720
68784SOL    HW2 8127   1.420   0.151   6.568
68785SOL     OW 8128   4.423   8.813   5.297
68785SOL    HW1 8129   4.400   8.759   5.372
68785SOL    HW2 8130   4.348   8.872   5.287
68786SOL     OW 8131   5.637   0.042   9.431
68786SOL    HW1 8132   5.546   0.055   9.406
68786SOL    HW2 8133   5.653  14.827   9.421
68787SOL     OW 8134  11.443   8.600   2.739
68787SOL    HW1 8135  11.452   8.696   2.745
68787SOL    HW2 8136  11.519   8.572   2.689
68788SOL     OW 8137  14.388   3.403   4.779
68788SOL    HW1 8138  14.422   3.327   4.732
68788SOL    HW2 8139  14.427   3.398   4.866
68789SOL     OW 8140  14.584   5.516   7.620
68789SOL    HW1 8141  14.593   5.517   7.715
68789SOL    HW2 8142  14.543   5.600   7.598
68790SOL     OW 8143   5.050   7.096  12.657
68790SOL    HW1 8144   5.122   7.153  12.685
68790SOL    HW2 8145   5.036   7.037  12.731
68791SOL     OW 8146  12.871   2.486   9.800
68791SOL    HW1 8147  12.906   2.460   9.715
68791SOL    HW2 8148  12.828   2.407   9.833
68792SOL     OW 8149   6.689   7.796  14.170
68792SOL    HW1 8150   6.660   7.872  14.220
68792SOL    HW2 8151   6.723   7.833  14.088
68793SOL     OW 8152   8.096   2.320  12.596
68793SOL    HW1 8153   8.056   2.301  12.511
68793SOL    HW2 8154   8.154   2.246  12.613
68794SOL     OW 8155   0.780   1.348   9.492
68794SOL    HW1 8156   0.866   1.347   9.451
68794SOL    HW2 8157   0.727   1.406   9.437
68795SOL     OW 8158   5.985   4.332  13.058
68795SOL    HW1 8159   5.915   4.395  13.039
68795SOL    HW2 8160   5.950   4.278  13.129
68796SOL     OW 8161  10.645   0.901  13.625
68796SOL    HW1 8162  10.558   0.880  13.659
68796SOL    HW2 8163  10.688   0.949  13.696
68797SOL     OW 8164  13.161  14.761   0.057
68797SOL    HW1 8165  13.238  14.809   0.025
68797SOL    HW2 8166  13.138  14.805   0.139
68798SOL     OW 8167  14.275   0.676   5.350
68798SOL    HW1 8168  14.316   0.591   5.334
68798SOL    HW2 8169  14.243   0.703   5.264
68799SOL     OW 8170  10.651   8.542   8.510
68799SOL    HW1 8171  10.611   8.582   8.433
68799SOL    HW2 8172  10.662   8.450   8.486
68800SOL     OW 8173  10.946   3.363  11.818
68800SOL    HW1 8174  10.956   3.369  11.723
68800SOL    HW2 8175  10.893   3.439  11.841
68801SOL     OW 8176  13.386   4.597   8.623
68801SOL    HW1 8177  13.294   4.617   8.639
68801SOL    HW2 8178  13.431   4.631   8.701
68802SOL     OW 8179   9.329  10.051  11.427
68802SOL    HW1 8180   9.253  10.099  11.460
68802SOL    HW2 8181   9.399  10.116  11.424
68803SOL     OW 8182   5.638   3.778  12.799
68803SOL    HW1 8183   5.720   3.786  12.849
68803SOL    HW2 8184   5.665   3.736  12.717
68804SOL     OW 8185   3.240  14.658  14.392
68804SOL    HW1 8186   3.186  14.732  14.421
68804SOL    HW2 8187   3.224  14.590  14.457
68805SOL     OW 8188  12.389  13.588   1.242
68805SOL    HW1 8189  12.414  13.511   1.292
68805SOL    HW2 8190  12.332  13.555   1.173
68806SOL     OW 8191   4.472   2.555   2.339
68806SOL    HW1 8192   4.480   2.551   2.244
68806SOL    HW2 8193   4.438   2.643   2.357
68807SOL     OW 8194   0.406   9.893   6.823
68807SOL    HW1 8195   0.418   9.963   6.758
68807SOL    HW2 8196   0.363   9.823   6.774
68808SOL     OW 8197   1.939  13.682  12.331
68808SOL    HW1 8198   2.012  13.621  12.337
68808SOL    HW2 8199   1.893  13.673  12.414
68809SOL     OW 8200  11.462   3.948   6.639
68809SOL    HW1 8201  11.499   3.999   6.567
68809SOL    HW2 8202  11.456   3.859   6.606
68810SOL     OW 8203   3.555   0.824  12.128
68810SOL    HW1 8204   3.538   0.839  12.034
68810SOL    HW2 8205   3.516   0.739  12.146
68811SOL     OW 8206   9.223   0.196   5.992
68811SOL    HW1 8207   9.269   0.277   6.014
68811SOL    HW2 8208   9.194   0.208   5.902
68812SOL     OW 8209  12.552   8.657   5.193
68812SOL    HW1 8210  12.546   8.670   5.288
68812SOL    HW2 8211  12.560   8.745   5.157
68813SOL     OW 8212   4.906   5.401   8.604
68813SOL    HW1 8213   4.867   5.410   8.691
68813SOL    HW2 8214   4.832   5.385   8.546
68814SOL     OW 8215  13.293  13.582   1.377
68814SOL    HW1 8216  13.290  13.665   1.425
68814SOL    HW2 8217  13.203  13.551   1.377
68815SOL     OW 8218   3.152   0.973   1.257
68815SOL    HW1 8219   3.135   0.906   1.324
68815SOL    HW2 8220   3.224   0.937   1.206
68816SOL     OW 8221   4.725  10.617   7.466
68816SOL    HW1 8222   4.764  10.702   7.444
68816SOL    HW2 8223   4.794  10.553   7.449
68817SOL     OW 8224  10.069   9.120  10.976
68817SOL    HW1 8225  10.062   9.100  11.069
68817SOL    HW2 8226  10.117   9.202  10.973
68818SOL     OW 8227  11.167   8.209   2.376
68818SOL    HW1 8228  11.199   8.130   2.333
68818SOL    HW2 8229  11.235   8.231   2.439
68819SOL     OW 8230  13.441  13.721   5.293
68819SOL    HW1 8231  13.433  13.673   5.211
68819SOL    HW2 8232  13.509  13.674   5.342
68820SOL     OW 8233   1.298   3.565   3.595
68820SOL    HW1 8234   1.357   3.524   3.659
68820SOL    HW2 8235   1.218   3.583   3.645
68821SOL     OW 8236  10.792   8.355   3.794
68821SOL    HW1 8237  10.866   8.387   3.742
68821SOL    HW2 8238  10.716   8.365   3.736
68822SOL     OW 8239   0.663  11.484   4.834
68822SOL    HW1 8240   0.734  11.466   4.897
68822SOL    HW2 8241   0.597  11.530   4.886
68823SOL     OW 8242   7.857  14.376   8.908
68823SOL    HW1 8243   7.880  14.468   8.925
68823SOL    HW2 8244   7.795  14.354   8.978
68824SOL     OW 8245   8.177  13.828   7.929
68824SOL    HW1 8246   8.154  13.897   7.992
68824SOL    HW2 8247   8.218  13.760   7.982
68825SOL     OW 8248  12.432  14.022  11.348
68825SOL    HW1 8249  12.500  14.030  11.415
68825SOL    HW2 8250  12.462  14.078  11.277
68826SOL     OW 8251   0.151  13.620  11.932
68826SOL    HW1 8252   0.170  13.531  11.904
68826SOL    HW2 8253   0.184  13.675  11.861
68827SOL     OW 8254  12.042   2.130   7.207
68827SOL    HW1 8255  12.021   2.109   7.298
68827SOL    HW2 8256  11.962   2.110   7.159
68828SOL     OW 8257   7.434   7.802   9.922
68828SOL    HW1 8258   7.523   7.837   9.932
68828SOL    HW2 8259   7.447   7.715   9.883
68829SOL     OW 8260  10.615   1.845  13.249
68829SOL    HW1 8261  10.548   1.913  13.240
68829SOL    HW2 8262  10.642   1.849  13.341
68830SOL     OW 8263  12.838   9.529   0.731
68830SOL    HW1 8264  12.787   9.492   0.803
68830SOL    HW2 8265  12.923   9.549   0.769
68831SOL     OW 8266  10.925   9.428  12.758
68831SOL    HW1 8267  10.938   9.432  12.852
68831SOL    HW2 8268  10.844   9.476  12.742
68832SOL     OW 8269  13.581   4.004  14.631
68832SOL    HW1 8270  13.655   4.063  14.648
68832SOL    HW2 8271  13.620   3.916  14.633
68833SOL     OW 8272   6.090   6.722  14.207
68833SOL    HW1 8273   6.159   6.789  14.212
68833SOL    HW2 8274   6.046   6.741  14.124
68834SOL     OW 8275   4.638   7.333   9.906
68834SOL    HW1 8276   4.581   7.331   9.983
68834SOL    HW2 8277   4.726   7.317   9.941
68835SOL     OW 8278   4.405   1.720   3.177
68835SOL    HW1 8279   4.449   1.755   3.100
68835SOL    HW2 8280   4.439   1.630   3.185
68836SOL     OW 8281  13.071  10.297   9.910
68836SOL    HW1 8282  12.987  10.280   9.953
68836SOL    HW2 8283  13.048  10.337   9.826
68837SOL     OW 8284   8.596  13.008  10.595
68837SOL    HW1 8285   8.628  12.967  10.675
68837SOL    HW2 8286   8.616  12.945  10.526
68838SOL     OW 8287   5.274   3.047  14.272
68838SOL    HW1 8288   5.204   2.987  14.299
68838SOL    HW2 8289   5.240   3.090  14.194
68839SOL     OW 8290  10.818   1.859   1.792
68839SOL    HW1 8291  10.864   1.781   1.824
68839SOL    HW2 8292  10.814   1.847   1.697
68840SOL     OW 8293   3.333  13.634   1.281
68840SOL    HW1 8294   3.415  13.587   1.294
68840SOL    HW2 8295   3.353  13.701   1.216
68841SOL     OW 8296   8.099  13.393   3.073
68841SOL    HW1 8297   8.029  13.435   3.123
68841SOL    HW2 8298   8.166  13.374   3.138
68842SOL     OW 8299   6.034   6.224  14.120
68842SOL    HW1 8300   6.130   6.226  14.125
68842SOL    HW2 8301   6.011   6.134  14.143
68843SOL     OW 8302   4.241   4.546  11.244
68843SOL    HW1 8303   4.317   4.567  11.190
68843SOL    HW2 8304   4.172   4.527  11.180
68844SOL     OW 8305   0.497   9.822  14.645
68844SOL    HW1 8306   0.578   9.797  14.688
68844SOL    HW2 8307   0.448   9.740  14.636
68845SOL     OW 8308  10.884   7.386   6.513
68845SOL    HW1 8309  10.828   7.446   6.464
68845SOL    HW2 8310  10.830   7.360   6.588
68846SOL     OW 8311   5.105   2.898   0.333
68846SOL    HW1 8312   5.153   2.962   0.283
68846SOL    HW2 8313   5.024   2.885   0.284
68847SOL     OW 8314  11.530  13.302   7.956
68847SOL    HW1 8315  11.576  13.225   7.988
68847SOL    HW2 8316  11.438  13.275   7.949
68848SOL     OW 8317  14.146   0.682   7.183
68848SOL    HW1 8318  14.103   0.672   7.098
68848SOL    HW2 8319  14.234   0.714   7.162
68849SOL     OW 8320   1.601   8.194   3.833
68849SOL    HW1 8321   1.514   8.185   3.872
68849SOL    HW2 8322   1.645   8.259   3.888
68850SOL     OW 8323   5.863  14.164   1.574
68850SOL    HW1 8324   5.884  14.211   1.493
68850SOL    HW2 8325   5.783  14.116   1.555
68851SOL     OW 8326  14.204   6.162   5.054
68851SOL    HW1 8327  14.193   6.256   5.069
68851SOL    HW2 8328  14.230   6.156   4.962
68852SOL     OW 8329   9.978   3.571   1.854
68852SOL    HW1 8330  10.038   3.499   1.876
68852SOL    HW2 8331   9.963   3.615   1.938
68853SOL     OW 8332  11.462   5.599   4.058
68853SOL    HW1 8333  11.496   5.519   4.098
68853SOL    HW2 8334  11.367   5.586   4.054
68854SOL     OW 8335   1.141   6.935   2.599
68854SOL    HW1 8336   1.159   6.966   2.688
68854SOL    HW2 8337   1.221   6.955   2.550
68855SOL     OW 8338  12.532  13.549  12.616
68855SOL    HW1 8339  12.496  13.634  12.592
68855SOL    HW2 8340  12.624  13.566  12.634
68856SOL     OW 8341   3.332  12.126  10.057
68856SOL    HW1 8342   3.303  12.056   9.998
68856SOL    HW2 8343   3.306  12.096  10.144
68857SOL     OW 8344   9.266  14.797   8.533
68857SOL    HW1 8345   9.253  14.760   8.620
68857SOL    HW2 8346   9.319  14.733   8.486
68858SOL     OW 8347   0.144   3.924  10.625
68858SOL    HW1 8348   0.236   3.898  10.626
68858SOL    HW2 8349   0.102   3.861  10.566
68859SOL     OW 8350   6.110   0.541   8.722
68859SOL    HW1 8351   6.047   0.609   8.747
68859SOL    HW2 8352   6.160   0.580   8.651
68860SOL     OW 8353  11.402  13.738   0.323
68860SOL    HW1 8354  11.446  13.745   0.408
68860SOL    HW2 8355  11.367  13.825   0.307
68861SOL     OW 8356  10.169   4.901   8.213
68861SOL    HW1 8357  10.258   4.923   8.240
68861SOL    HW2 8358  10.113   4.940   8.280
68862SOL     OW 8359   3.771  10.718   0.962
68862SOL    HW1 8360   3.690  10.737   1.009
68862SOL    HW2 8361   3.815  10.651   1.014
68863SOL     OW 8362   3.247   1.998  12.633
68863SOL    HW1 8363   3.259   1.939  12.707
68863SOL    HW2 8364   3.153   2.012  12.628
68864SOL     OW 8365   7.780  13.996   2.868
68864SOL    HW1 8366   7.766  14.074   2.923
68864SOL    HW2 8367   7.812  14.031   2.785
68865SOL     OW 8368   9.290   3.619   2.168
68865SOL    HW1 8369   9.374   3.590   2.133
68865SOL    HW2 8370   9.270   3.699   2.118
68866SOL     OW 8371   6.891   6.563   0.062
68866SOL    HW1 8372   6.915   6.478   0.099
68866SOL    HW2 8373   6.806   6.547   0.021
68867SOL     OW 8374   1.452  13.809   1.642
68867SOL    HW1 8375   1.432  13.895   1.603
68867SOL    HW2 8376   1.471  13.828   1.734
68868SOL     OW 8377  12.699   7.540   5.180
68868SOL    HW1 8378  12.786   7.565   5.147
68868SOL    HW2 8379  12.681   7.603   5.249
68869SOL     OW 8380   4.232   8.469  14.325
68869SOL    HW1 8381   4.279   8.499  14.403
68869SOL    HW2 8382   4.292   8.488  14.253
68870SOL     OW 8383   3.957  10.178  10.472
68870SOL    HW1 8384   3.878  10.142  10.433
68870SOL    HW2 8385   4.010  10.207  10.398
68871SOL     OW 8386   5.631   5.539  13.949
68871SOL    HW1 8387   5.652   5.527  14.041
68871SOL    HW2 8388   5.646   5.453  13.909
68872SOL     OW 8389   2.486   8.634   2.073
68872SOL    HW1 8390   2.475   8.705   2.136
68872SOL    HW2 8391   2.523   8.562   2.124
68873SOL     OW 8392  12.280   6.470   8.923
68873SOL    HW1 8393  12.185   6.460   8.912
68873SOL    HW2 8394  12.294   6.565   8.920
68874SOL     OW 8395   4.413  12.271   1.060
68874SOL    HW1 8396   4.428  12.296   0.968
68874SOL    HW2 8397   4.496  12.233   1.088
68875SOL     OW 8398   8.907   2.621   5.279
68875SOL    HW1 8399   8.983   2.677   5.268
68875SOL    HW2 8400   8.942   2.532   5.276
68876SOL     OW 8401   1.475  14.818   4.133
68876SOL    HW1 8402   1.512   0.027   4.148
68876SOL    HW2 8403   1.491  14.770   4.215
68877SOL     OW 8404   9.688  12.516   8.223
68877SOL    HW1 8405   9.734  12.511   8.140
68877SOL    HW2 8406   9.595  12.517   8.199
68878SOL     OW 8407   5.810  12.518  10.082
68878SOL    HW1 8408   5.849  12.606  10.080
68878SOL    HW2 8409   5.872  12.463  10.034
68879SOL     OW 8410  12.802  13.266   8.133
68879SOL    HW1 8411  12.816  13.313   8.051
68879SOL    HW2 8412  12.764  13.182   8.106
68880SOL     OW 8413  14.663   2.027   2.145
68880SOL    HW1 8414  14.735   2.015   2.083
68880SOL    HW2 8415  14.623   1.940   2.152
68881SOL     OW 8416   8.387  14.056  13.124
68881SOL    HW1 8417   8.477  14.023  13.123
68881SOL    HW2 8418   8.380  14.104  13.206
68882SOL     OW 8419   4.878  13.934  14.214
68882SOL    HW1 8420   4.879  14.002  14.147
68882SOL    HW2 8421   4.786  13.910  14.222
68883SOL     OW 8422   4.719   9.544  13.818
68883SOL    HW1 8423   4.689   9.594  13.742
68883SOL    HW2 8424   4.746   9.459  13.782
68884SOL     OW 8425  10.671  12.566  13.670
68884SOL    HW1 8426  10.658  12.643  13.725
68884SOL    HW2 8427  10.762  12.543  13.682
68885SOL     OW 8428  10.404   6.817   9.457
68885SOL    HW1 8429  10.363   6.760   9.522
68885SOL    HW2 8430  10.497   6.800   9.465
68886SOL     OW 8431   5.156   3.914  12.465
68886SOL    HW1 8432   5.250   3.931  12.458
68886SOL    HW2 8433   5.120   3.945  12.382
68887SOL     OW 8434   8.606   7.380   9.725
68887SOL    HW1 8435   8.513   7.374   9.703
68887SOL    HW2 8436   8.649   7.326   9.659
68888SOL     OW 8437  10.580   3.291   9.431
68888SOL    HW1 8438  10.649   3.228   9.413
68888SOL    HW2 8439  10.615   3.375   9.401
68889SOL     OW 8440  12.268  11.126   9.059
68889SOL    HW1 8441  12.186  11.121   9.010
68889SOL    HW2 8442  12.326  11.179   9.005
68890SOL     OW 8443  10.620   6.903  13.933
68890SOL    HW1 8444  10.693   6.892  13.995
68890SOL    HW2 8445  10.650   6.861  13.853
68891SOL     OW 8446   0.169   7.896   4.906
68891SOL    HW1 8447   0.144   7.828   4.968
68891SOL    HW2 8448   0.232   7.854   4.848
68892SOL     OW 8449  11.297  11.817   8.846
68892SOL    HW1 8450  11.221  11.859   8.806
68892SOL    HW2 8451  11.305  11.733   8.801
68893SOL     OW 8452  12.516   5.871  13.474
68893SOL    HW1 8453  12.559   5.913  13.400
68893SOL    HW2 8454  12.494   5.783  13.444
68894SOL     OW 8455   8.918  12.356   0.051
68894SOL    HW1 8456   9.002  12.377   0.092
68894SOL    HW2 8457   8.883  12.284   0.104
68895SOL     OW 8458   4.037   2.023  13.132
68895SOL    HW1 8459   4.031   2.115  13.159
68895SOL    HW2 8460   3.949   1.989  13.142
68896SOL     OW 8461   1.067   8.107   8.174
68896SOL    HW1 8462   1.035   8.197   8.187
68896SOL    HW2 8463   0.994   8.052   8.201
68897SOL     OW 8464   8.554  11.745  10.714
68897SOL    HW1 8465   8.517  11.804  10.779
68897SOL    HW2 8466   8.531  11.657  10.745
68898SOL     OW 8467   8.026   6.992   6.421
68898SOL    HW1 8468   7.964   7.016   6.352
68898SOL    HW2 8469   8.032   7.070   6.476
68899SOL     OW 8470   5.150  11.892   2.127
68899SOL    HW1 8471   5.164  11.837   2.204
68899SOL    HW2 8472   5.062  11.927   2.138
68900SOL     OW 8473   0.025  13.045  13.664
68900SOL    HW1 8474   0.107  12.997  13.673
68900SOL    HW2 8475   0.047  13.135  13.685
68901SOL     OW 8476   5.479  11.449  14.293
68901SOL    HW1 8477   5.458  11.384  14.226
68901SOL    HW2 8478   5.397  11.461  14.341
68902SOL     OW 8479   4.146  14.805   1.864
68902SOL    HW1 8480   4.134   0.019   1.843
68902SOL    HW2 8481   4.220  14.777   1.810
68903SOL     OW 8482   8.903   8.202   0.656
68903SOL    HW1 8483   8.859   8.169   0.734
68903SOL    HW2 8484   8.910   8.297   0.671
68904SOL     OW 8485   0.565  12.842   3.466
68904SOL    HW1 8486   0.656  12.866   3.486
68904SOL    HW2 8487   0.522  12.836   3.551
68905SOL     OW 8488   3.932   7.892  13.089
68905SOL    HW1 8489   3.890   7.885  13.003
68905SOL    HW2 8490   3.951   7.986  13.098
68906SOL     OW 8491   8.891   8.308   2.216
68906SOL    HW1 8492   8.890   8.363   2.295
68906SOL    HW2 8493   8.798   8.298   2.194
68907SOL     OW 8494  12.302   6.539   1.667
68907SOL    HW1 8495  12.395   6.558   1.654
68907SOL    HW2 8496  12.269   6.616   1.714
68908SOL     OW 8497   8.367   1.665   2.862
68908SOL    HW1 8498   8.383   1.639   2.953
68908SOL    HW2 8499   8.274   1.651   2.849
68909SOL     OW 8500   8.803   1.025   8.945
68909SOL    HW1 8501   8.786   0.987   9.031
68909SOL    HW2 8502   8.803   0.949   8.886
68910SOL     OW 8503   5.787   2.263  10.232
68910SOL    HW1 8504   5.727   2.281  10.160
68910SOL    HW2 8505   5.830   2.346  10.249
68911SOL     OW 8506  14.087   3.397   5.689
68911SOL    HW1 8507  14.066   3.467   5.751
68911SOL    HW2 8508  14.006   3.384   5.639
68912SOL     OW 8509   0.404   3.998  11.324
68912SOL    HW1 8510   0.417   4.048  11.244
68912SOL    HW2 8511   0.318   4.026  11.357
68913SOL     OW 8512  13.052  10.440   3.234
68913SOL    HW1 8513  13.136  10.412   3.199
68913SOL    HW2 8514  13.072  10.469   3.324
68914SOL     OW 8515  14.342  13.218   9.869
68914SOL    HW1 8516  14.253  13.213   9.904
68914SOL    HW2 8517  14.387  13.280   9.927
68915SOL     OW 8518  14.863   2.145   4.612
68915SOL    HW1 8519  14.789   2.151   4.672
68915SOL    HW2 8520   0.035   2.070   4.643
68916SOL     OW 8521   7.673   7.964  10.863
68916SOL    HW1 8522   7.705   7.881  10.899
68916SOL    HW2 8523   7.737   7.986  10.795
68917SOL     OW 8524   4.109   7.709   7.253
68917SOL    HW1 8525   4.079   7.738   7.339
68917SOL    HW2 8526   4.162   7.782   7.221
68918SOL     OW 8527  10.533   5.188  11.707
68918SOL    HW1 8528  10.538   5.106  11.757
68918SOL    HW2 8529  10.607   5.182  11.646
68919SOL     OW 8530   6.547   6.187   5.304
68919SOL    HW1 8531   6.526   6.233   5.386
68919SOL    HW2 8532   6.619   6.238   5.266
68920SOL     OW 8533   0.650   3.293  14.214
68920SOL    HW1 8534   0.637   3.376  14.260
68920SOL    HW2 8535   0.675   3.318  14.125
68921SOL     OW 8536   5.438   2.999   8.496
68921SOL    HW1 8537   5.398   3.057   8.431
68921SOL    HW2 8538   5.532   3.019   8.491
68922SOL     OW 8539   2.114   7.317  14.381
68922SOL    HW1 8540   2.204   7.285  14.375
68922SOL    HW2 8541   2.067   7.248  14.427
68923SOL     OW 8542   0.346  10.337   1.671
68923SOL    HW1 8543   0.340  10.243   1.686
68923SOL    HW2 8544   0.306  10.376   1.749
68924SOL     OW 8545   9.531  11.201   2.742
68924SOL    HW1 8546   9.438  11.184   2.757
68924SOL    HW2 8547   9.544  11.292   2.770
68925SOL     OW 8548  11.285   0.980   5.019
68925SOL    HW1 8549  11.214   0.918   5.002
68925SOL    HW2 8550  11.254   1.032   5.093
68926SOL     OW 8551  10.891   6.492  13.967
68926SOL    HW1 8552  10.959   6.445  14.015
68926SOL    HW2 8553  10.809   6.454  13.998
68927SOL     OW 8554  12.146   3.433   6.979
68927SOL    HW1 8555  12.169   3.370   6.910
68927SOL    HW2 8556  12.071   3.481   6.944
68928SOL     OW 8557   0.464   0.093   2.567
68928SOL    HW1 8558   0.447  14.877   2.559
68928SOL    HW2 8559   0.380   0.131   2.591
68929SOL     OW 8560   0.582   0.480   5.244
68929SOL    HW1 8561   0.643   0.552   5.230
68929SOL    HW2 8562   0.637   0.403   5.256
68930SOL     OW 8563   2.032   0.401   2.309
68930SOL    HW1 8564   2.042   0.376   2.401
68930SOL    HW2 8565   2.103   0.463   2.293
68931SOL     OW 8566   1.577  13.649   2.363
68931SOL    HW1 8567   1.649  13.597   2.399
68931SOL    HW2 8568   1.593  13.648   2.268
68932SOL     OW 8569   1.682  12.319   9.388
68932SOL    HW1 8570   1.630  12.239   9.376
68932SOL    HW2 8571   1.643  12.361   9.465
68933SOL     OW 8572   6.143   2.740   1.090
68933SOL    HW1 8573   6.093   2.683   1.032
68933SOL    HW2 8574   6.224   2.758   1.042
68934SOL     OW 8575   5.062  14.011   5.257
68934SOL    HW1 8576   5.157  14.008   5.246
68934SOL    HW2 8577   5.040  13.931   5.304
68935SOL     OW 8578  14.538   2.253  13.232
68935SOL    HW1 8579  14.587   2.225  13.154
68935SOL    HW2 8580  14.464   2.192  13.237
68936SOL     OW 8581   8.282  11.747   4.503
68936SOL    HW1 8582   8.317  11.762   4.591
68936SOL    HW2 8583   8.207  11.689   4.518
68937SOL     OW 8584   5.654   7.205  14.428
68937SOL    HW1 8585   5.694   7.291  14.413
68937SOL    HW2 8586   5.726   7.149  14.454
68938SOL     OW 8587   9.994   5.648   2.005
68938SOL    HW1 8588   9.961   5.561   1.986
68938SOL    HW2 8589   9.927   5.708   1.972
68939SOL     OW 8590   4.746   5.369   5.186
68939SOL    HW1 8591   4.689   5.336   5.116
68939SOL    HW2 8592   4.688   5.420   5.242
68940SOL     OW 8593   0.740   2.208   1.167
68940SOL    HW1 8594   0.686   2.189   1.090
68940SOL    HW2 8595   0.785   2.290   1.145
68941SOL     OW 8596   3.884   6.224   9.653
68941SOL    HW1 8597   3.942   6.285   9.607
68941SOL    HW2 8598   3.825   6.192   9.584
68942SOL     OW 8599   6.030   2.924  12.508
68942SOL    HW1 8600   5.987   2.860  12.563
68942SOL    HW2 8601   6.049   2.997  12.566
68943SOL     OW 8602   7.360   5.395  10.962
68943SOL    HW1 8603   7.414   5.362  10.891
68943SOL    HW2 8604   7.284   5.337  10.964
68944SOL     OW 8605  12.091   4.016  12.566
68944SOL    HW1 8606  12.054   4.003  12.654
68944SOL    HW2 8607  12.120   3.928  12.539
68945SOL     OW 8608   6.442   2.632   6.837
68945SOL    HW1 8609   6.449   2.666   6.747
68945SOL    HW2 8610   6.454   2.709   6.892
68946SOL     OW 8611   4.640   4.522   4.353
68946SOL    HW1 8612   4.687   4.439   4.349
68946SOL    HW2 8613   4.686   4.573   4.419
68947SOL     OW 8614   3.185  10.616   4.820
68947SOL    HW1 8615   3.189  10.520   4.816
68947SOL    HW2 8616   3.273  10.644   4.795
68948SOL     OW 8617   6.683   3.576   5.183
68948SOL    HW1 8618   6.619   3.508   5.160
68948SOL    HW2 8619   6.686   3.574   5.279
68949SOL     OW 8620  13.934  10.369   5.740
68949SOL    HW1 8621  13.919  10.283   5.700
68949SOL    HW2 8622  14.029  10.378   5.742
68950SOL     OW 8623  12.776   6.724   9.972
68950SOL    HW1 8624  12.804   6.755   9.885
68950SOL    HW2 8625  12.715   6.791  10.002
68951SOL     OW 8626   9.591   4.734   2.802
68951SOL    HW1 8627   9.639   4.681   2.865
68951SOL    HW2 8628   9.597   4.823   2.836
68952SOL     OW 8629   6.113   5.722  10.024
68952SOL    HW1 8630   6.123   5.647   9.964
68952SOL    HW2 8631   6.022   5.716  10.054
68953SOL     OW 8632   8.882   2.254   8.710
68953SOL    HW1 8633   8.868   2.336   8.758
68953SOL    HW2 8634   8.798   2.210   8.713
68954SOL     OW 8635   2.288   4.430   8.548
68954SOL    HW1 8636   2.349   4.357   8.546
68954SOL    HW2 8637   2.217   4.405   8.489
68955SOL     OW 8638  11.555   5.071  14.535
68955SOL    HW1 8639  11.469   5.087  14.496
68955SOL    HW2 8640  11.608   5.040  14.462
68956SOL     OW 8641   9.432   1.931   8.984
68956SOL    HW1 8642   9.374   1.998   8.949
68956SOL    HW2 8643   9.399   1.849   8.948
68957SOL     OW 8644  10.492   7.511   2.954
68957SOL    HW1 8645  10.571   7.510   3.007
68957SOL    HW2 8646  10.430   7.455   3.002
68958SOL     OW 8647   4.759  14.311   6.828
68958SOL    HW1 8648   4.784  14.274   6.913
68958SOL    HW2 8649   4.778  14.405   6.836
68959SOL     OW 8650   2.657   2.506   4.273
68959SOL    HW1 8651   2.655   2.578   4.337
68959SOL    HW2 8652   2.725   2.530   4.211
68960SOL     OW 8653  14.084  11.339  11.694
68960SOL    HW1 8654  14.109  11.429  11.717
68960SOL    HW2 8655  13.988  11.343  11.686
68961SOL     OW 8656   2.295  13.684   7.650
68961SOL    HW1 8657   2.245  13.712   7.727
68961SOL    HW2 8658   2.293  13.588   7.653
68962SOL     OW 8659   9.954   1.240   9.149
68962SOL    HW1 8660   9.961   1.325   9.104
68962SOL    HW2 8661   9.897   1.257   9.224
68963SOL     OW 8662   0.612   3.636  11.783
68963SOL    HW1 8663   0.663   3.587  11.848
68963SOL    HW2 8664   0.612   3.580  11.705
68964SOL     OW 8665   4.176  11.817   9.507
68964SOL    HW1 8666   4.081  11.810   9.497
68964SOL    HW2 8667   4.211  11.741   9.461
68965SOL     OW 8668   8.654  10.066  11.323
68965SOL    HW1 8669   8.665   9.997  11.389
68965SOL    HW2 8670   8.671  10.022  11.240
68966SOL     OW 8671   2.667   5.533   5.448
68966SOL    HW1 8672   2.662   5.581   5.365
68966SOL    HW2 8673   2.575   5.520   5.473
68967SOL     OW 8674  12.055  14.058   7.042
68967SOL    HW1 8675  11.960  14.067   7.040
68967SOL    HW2 8676  12.076  14.000   6.968
68968SOL     OW 8677   9.447  12.209   8.352
68968SOL    HW1 8678   9.389  12.281   8.330
68968SOL    HW2 8679   9.511  12.248   8.413
68969SOL     OW 8680   9.662   3.231  12.189
68969SOL    HW1 8681   9.608   3.181  12.250
68969SOL    HW2 8682   9.717   3.286  12.245
68970SOL     OW 8683   9.823   5.317   1.593
68970SOL    HW1 8684   9.901   5.267   1.568
68970SOL    HW2 8685   9.788   5.270   1.669
68971SOL     OW 8686   8.493  14.112  11.980
68971SOL    HW1 8687   8.466  14.108  11.889
68971SOL    HW2 8688   8.487  14.022  12.011
68972SOL     OW 8689   4.207   3.463  11.695
68972SOL    HW1 8690   4.264   3.539  11.686
68972SOL    HW2 8691   4.136   3.478  11.632
68973SOL     OW 8692  12.068   7.643  14.121
68973SOL    HW1 8693  12.140   7.637  14.058
68973SOL    HW2 8694  12.041   7.552  14.135
68974SOL     OW 8695  11.577  13.149   6.474
68974SOL    HW1 8696  11.493  13.195   6.467
68974SOL    HW2 8697  11.609  13.143   6.384
68975SOL     OW 8698   1.352  13.170  10.332
68975SOL    HW1 8699   1.325  13.103  10.395
68975SOL    HW2 8700   1.440  13.143  10.304
68976SOL     OW 8701   8.789  14.376   8.675
68976SOL    HW1 8702   8.824  14.290   8.651
68976SOL    HW2 8703   8.710  14.356   8.725
68977SOL     OW 8704   4.063   7.899   3.848
68977SOL    HW1 8705   3.990   7.839   3.834
68977SOL    HW2 8706   4.137   7.856   3.806
68978SOL     OW 8707   3.554  10.719   5.161
68978SOL    HW1 8708   3.491  10.650   5.142
68978SOL    HW2 8709   3.632  10.673   5.193
68979SOL     OW 8710  12.434  12.252  12.037
68979SOL    HW1 8711  12.473  12.189  12.097
68979SOL    HW2 8712  12.488  12.248  11.958
68980SOL     OW 8713   6.051   5.454  13.306
68980SOL    HW1 8714   5.985   5.520  13.284
68980SOL    HW2 8715   6.007   5.370  13.292
68981SOL     OW 8716   2.656  14.071   8.191
68981SOL    HW1 8717   2.585  14.115   8.143
68981SOL    HW2 8718   2.714  14.141   8.218
68982SOL     OW 8719   8.440  10.276  12.138
68982SOL    HW1 8720   8.379  10.304  12.206
68982SOL    HW2 8721   8.482  10.197  12.173
68983SOL     OW 8722   3.254  12.634  12.340
68983SOL    HW1 8723   3.292  12.687  12.410
68983SOL    HW2 8724   3.306  12.657  12.263
68984SOL     OW 8725  14.727  13.991   6.303
68984SOL    HW1 8726  14.643  13.949   6.285
68984SOL    HW2 8727  14.721  14.076   6.259
68985SOL     OW 8728   5.187  11.673   9.564
68985SOL    HW1 8729   5.161  11.737   9.498
68985SOL    HW2 8730   5.153  11.708   9.646
68986SOL     OW 8731   4.335  10.953   8.545
68986SOL    HW1 8732   4.341  10.919   8.635
68986SOL    HW2 8733   4.426  10.970   8.520
68987SOL     OW 8734  12.576   2.325  13.610
68987SOL    HW1 8735  12.574   2.272  13.530
68987SOL    HW2 8736  12.655   2.297  13.656
68988SOL     OW 8737   8.926   0.032   0.319
68988SOL    HW1 8738   8.903   0.026   0.412
68988SOL    HW2 8739   8.906  14.823   0.284
68989SOL     OW 8740  13.520   0.649   9.312
68989SOL    HW1 8741  13.612   0.646   9.338
68989SOL    HW2 8742  13.522   0.677   9.220
68990SOL     OW 8743   0.289  13.985   5.414
68990SOL    HW1 8744   0.266  13.948   5.329
68990SOL    HW2 8745   0.209  14.028   5.443
68991SOL     OW 8746  10.794  11.002  13.897
68991SOL    HW1 8747  10.757  11.058  13.829
68991SOL    HW2 8748  10.831  10.928  13.849
68992SOL     OW 8749  10.940  13.610   1.651
68992SOL    HW1 8750  10.911  13.528   1.611
68992SOL    HW2 8751  10.950  13.671   1.578
68993SOL     OW 8752   0.447   0.887   9.773
68993SOL    HW1 8753   0.395   0.928   9.842
68993SOL    HW2 8754   0.535   0.882   9.809
68994SOL     OW 8755   7.858   0.857   8.484
68994SOL    HW1 8756   7.874   0.932   8.428
68994SOL    HW2 8757   7.817   0.792   8.427
68995SOL     OW 8758  10.017  10.268  11.144
68995SOL    HW1 8759  10.099  10.313  11.161
68995SOL    HW2 8760   9.975  10.320  11.075
68996SOL     OW 8761  13.030  14.729  14.617
68996SOL    HW1 8762  13.110  14.734  14.565
68996SOL    HW2 8763  13.045  14.656  14.677
68997SOL     OW 8764  11.094  10.646  13.950
68997SOL    HW1 8765  11.009  10.681  13.923
68997SOL    HW2 8766  11.122  10.594  13.875
68998SOL     OW 8767   0.169  14.478   5.152
68998SOL    HW1 8768   0.108  14.508   5.084
68998SOL    HW2 8769   0.170  14.550   5.216
68999SOL     OW 8770   9.871   5.612  11.114
68999SOL    HW1 8771   9.891   5.584  11.203
68999SOL    HW2 8772   9.912   5.546  11.058
69000SOL     OW 8773   3.542   6.563   6.309
69000SOL    HW1 8774   3.470   6.611   6.350
69000SOL    HW2 8775   3.620   6.589   6.359
69001SOL     OW 8776   4.756  12.178   9.380
69001SOL    HW1 8777   4.667  12.190   9.415
69001SOL    HW2 8778   4.807  12.247   9.423
69002SOL     OW 8779   6.324  10.767  13.614
69002SOL    HW1 8780   6.234  10.764  13.583
69002SOL    HW2 8781   6.364  10.686  13.582
69003SOL     OW 8782  10.973   6.955   4.191
69003SOL    HW1 8783  10.901   6.988   4.245
69003SOL    HW2 8784  11.051   6.969   4.244
69004SOL     OW 8785  13.256   9.647  11.032
69004SOL    HW1 8786  13.262   9.742  11.026
69004SOL    HW2 8787  13.261   9.629  11.126
69005SOL     OW 8788   3.739  12.817   4.846
69005SOL    HW1 8789   3.653  12.803   4.806
69005SOL    HW2 8790   3.769  12.899   4.809
69006SOL     OW 8791   8.549   3.002   8.057
69006SOL    HW1 8792   8.608   3.074   8.038
69006SOL    HW2 8793   8.478   3.041   8.108
69007SOL     OW 8794   5.039   8.905   3.448
69007SOL    HW1 8795   5.007   8.985   3.489
69007SOL    HW2 8796   5.065   8.850   3.522
69008SOL     OW 8797  12.434   3.478   7.417
69008SOL    HW1 8798  12.520   3.519   7.402
69008SOL    HW2 8799  12.401   3.458   7.329
69009SOL     OW 8800   3.285   8.294   3.386
69009SOL    HW1 8801   3.255   8.251   3.305
69009SOL    HW2 8802   3.348   8.233   3.424
69010SOL     OW 8803   8.164  12.043  11.824
69010SOL    HW1 8804   8.070  12.037  11.810
69010SOL    HW2 8805   8.194  11.952  11.823
69011SOL     OW 8806   9.381   0.708   0.250
69011SOL    HW1 8807   9.294   0.730   0.282
69011SOL    HW2 8808   9.427   0.673   0.326
69012SOL     OW 8809  11.561   5.608  12.739
69012SOL    HW1 8810  11.484   5.623  12.794
69012SOL    HW2 8811  11.529   5.551  12.668
69013SOL     OW 8812  11.034  11.650   8.602
69013SOL    HW1 8813  10.996  11.737   8.595
69013SOL    HW2 8814  10.989  11.599   8.535
69014SOL     OW 8815   2.020  10.166   7.406
69014SOL    HW1 8816   1.993  10.255   7.431
69014SOL    HW2 8817   1.961  10.142   7.335
69015SOL     OW 8818   1.165  11.244   7.804
69015SOL    HW1 8819   1.197  11.161   7.767
69015SOL    HW2 8820   1.087  11.220   7.853
69016SOL     OW 8821   1.280   0.837   1.503
69016SOL    HW1 8822   1.235   0.783   1.438
69016SOL    HW2 8823   1.269   0.790   1.585
69017SOL     OW 8824   0.293   5.050  14.263
69017SOL    HW1 8825   0.320   4.998  14.188
69017SOL    HW2 8826   0.372   5.062  14.315
69018SOL     OW 8827   0.895  13.662  13.333
69018SOL    HW1 8828   0.833  13.604  13.376
69018SOL    HW2 8829   0.981  13.624  13.352
69019SOL     OW 8830   6.200   1.096   2.607
69019SOL    HW1 8831   6.190   1.070   2.515
69019SOL    HW2 8832   6.292   1.079   2.626
69020SOL     OW 8833   3.647   4.969  12.335
69020SOL    HW1 8834   3.560   4.993  12.305
69020SOL    HW2 8835   3.635   4.884  12.379
69021SOL     OW 8836  12.370   0.764  14.008
69021SOL    HW1 8837  12.395   0.826  13.939
69021SOL    HW2 8838  12.451   0.750  14.058
69022SOL     OW 8839   8.588  12.872  14.093
69022SOL    HW1 8840   8.566  12.841  14.005
69022SOL    HW2 8841   8.524  12.941  14.111
69023SOL     OW 8842   0.636   8.883  10.570
69023SOL    HW1 8843   0.622   8.863  10.477
69023SOL    HW2 8844   0.647   8.978  10.572
69024SOL     OW 8845   8.854   5.382   6.272
69024SOL    HW1 8846   8.906   5.438   6.214
69024SOL    HW2 8847   8.783   5.439   6.303
69025SOL     OW 8848   1.430   5.874   8.558
69025SOL    HW1 8849   1.395   5.857   8.645
69025SOL    HW2 8850   1.508   5.926   8.572
69026SOL     OW 8851  10.640   1.285  13.965
69026SOL    HW1 8852  10.564   1.232  13.941
69026SOL    HW2 8853  10.605   1.374  13.972
69027SOL     OW 8854   1.853   1.931  12.788
69027SOL    HW1 8855   1.881   1.976  12.708
69027SOL    HW2 8856   1.931   1.929  12.843
69028SOL     OW 8857  13.863   1.526   9.711
69028SOL    HW1 8858  13.904   1.577   9.781
69028SOL    HW2 8859  13.926   1.530   9.639
69029SOL     OW 8860   7.291   0.403  13.682
69029SOL    HW1 8861   7.342   0.324  13.662
69029SOL    HW2 8862   7.246   0.382  13.763
69030SOL     OW 8863   8.255   6.444  10.950
69030SOL    HW1 8864   8.213   6.419  11.032
69030SOL    HW2 8865   8.197   6.509  10.911
69031SOL     OW 8866   5.501  13.320  11.070
69031SOL    HW1 8867   5.591  13.305  11.041
69031SOL    HW2 8868   5.456  13.356  10.994
69032SOL     OW 8869  11.894   7.548   6.332
69032SOL    HW1 8870  11.874   7.553   6.425
69032SOL    HW2 8871  11.826   7.491   6.296
69033SOL     OW 8872  11.372   9.341   1.166
69033SOL    HW1 8873  11.355   9.403   1.095
69033SOL    HW2 8874  11.321   9.374   1.239
69034SOL     OW 8875  12.277   0.930   5.352
69034SOL    HW1 8876  12.297   1.011   5.306
69034SOL    HW2 8877  12.361   0.903   5.390
69035SOL     OW 8878   4.086  10.764   2.184
69035SOL    HW1 8879   4.019  10.700   2.207
69035SOL    HW2 8880   4.083  10.769   2.089
69036SOL     OW 8881   7.079   8.791   6.899
69036SOL    HW1 8882   7.117   8.743   6.973
69036SOL    HW2 8883   7.094   8.734   6.824
69037SOL     OW 8884   7.651   8.293   4.410
69037SOL    HW1 8885   7.703   8.230   4.361
69037SOL    HW2 8886   7.702   8.374   4.407
69038SOL     OW 8887   6.688   1.573   8.808
69038SOL    HW1 8888   6.658   1.659   8.778
69038SOL    HW2 8889   6.775   1.590   8.845
69039SOL     OW 8890  14.079  10.817   6.184
69039SOL    HW1 8891  14.020  10.874   6.234
69039SOL    HW2 8892  14.116  10.757   6.249
69040SOL     OW 8893   1.925  14.069  14.800
69040SOL    HW1 8894   1.986  14.128  14.842
69040SOL    HW2 8895   1.899  14.007  14.868
69041SOL     OW 8896  12.652   4.059  11.421
69041SOL    HW1 8897  12.672   4.080  11.512
69041SOL    HW2 8898  12.564   4.022  11.424
69042SOL     OW 8899   4.203   6.465  12.351
69042SOL    HW1 8900   4.255   6.385  12.349
69042SOL    HW2 8901   4.124   6.442  12.400
69043SOL     OW 8902  11.992   1.410   6.705
69043SOL    HW1 8903  11.970   1.386   6.795
69043SOL    HW2 8904  11.961   1.500   6.695
69044SOL     OW 8905   5.708  11.356  12.676
69044SOL    HW1 8906   5.685  11.392  12.591
69044SOL    HW2 8907   5.625  11.321  12.710
69045SOL     OW 8908  11.987   2.250   9.566
69045SOL    HW1 8909  11.945   2.277   9.648
69045SOL    HW2 8910  11.984   2.154   9.568
69046SOL     OW 8911   3.800   0.483   8.410
69046SOL    HW1 8912   3.868   0.493   8.477
69046SOL    HW2 8913   3.749   0.407   8.438
69047SOL     OW 8914   9.087   0.936   1.790
69047SOL    HW1 8915   9.096   0.921   1.696
69047SOL    HW2 8916   8.992   0.932   1.806
69048SOL     OW 8917   2.904   9.594   9.356
69048SOL    HW1 8918   2.895   9.677   9.403
69048SOL    HW2 8919   2.943   9.618   9.272
69049SOL     OW 8920   4.218   8.749  10.688
69049SOL    HW1 8921   4.275   8.757  10.611
69049SOL    HW2 8922   4.267   8.696  10.750
69050SOL     OW 8923   1.430  14.335   5.205
69050SOL    HW1 8924   1.516  14.351   5.167
69050SOL    HW2 8925   1.411  14.413   5.257
69051SOL     OW 8926   2.046   8.260   4.535
69051SOL    HW1 8927   2.033   8.327   4.602
69051SOL    HW2 8928   1.965   8.208   4.538
69052SOL     OW 8929  14.872  11.449   4.132
69052SOL    HW1 8930  14.840  11.449   4.223
69052SOL    HW2 8931  14.810  11.393   4.085
69053SOL     OW 8932   8.854  10.150   5.021
69053SOL    HW1 8933   8.885  10.181   4.936
69053SOL    HW2 8934   8.780  10.206   5.042
69054SOL     OW 8935   9.330  10.059  12.277
69054SOL    HW1 8936   9.251  10.006  12.288
69054SOL    HW2 8937   9.325  10.125  12.347
69055SOL     OW 8938  11.308   6.666   5.624
69055SOL    HW1 8939  11.254   6.675   5.545
69055SOL    HW2 8940  11.301   6.751   5.667
69056SOL     OW 8941   1.305   9.298   6.059
69056SOL    HW1 8942   1.360   9.264   5.988
69056SOL    HW2 8943   1.260   9.373   6.020
69057SOL     OW 8944   8.796   9.041   1.474
69057SOL    HW1 8945   8.729   8.973   1.463
69057SOL    HW2 8946   8.805   9.079   1.387
69058SOL     OW 8947   7.038   3.703  11.395
69058SOL    HW1 8948   7.030   3.621  11.346
69058SOL    HW2 8949   7.128   3.733  11.379
69059SOL     OW 8950   7.071   3.757   4.155
69059SOL    HW1 8951   7.164   3.780   4.146
69059SOL    HW2 8952   7.065   3.669   4.119
69060SOL     OW 8953   4.536   2.249   1.933
69060SOL    HW1 8954   4.448   2.212   1.926
69060SOL    HW2 8955   4.551   2.291   1.848
69061SOL     OW 8956  12.707   3.200   0.648
69061SOL    HW1 8957  12.671   3.265   0.707
69061SOL    HW2 8958  12.726   3.248   0.567
69062SOL     OW 8959   8.592   8.964   6.379
69062SOL    HW1 8960   8.687   8.950   6.381
69062SOL    HW2 8961   8.569   8.954   6.287
69063SOL     OW 8962   5.489  13.961   3.389
69063SOL    HW1 8963   5.477  13.867   3.375
69063SOL    HW2 8964   5.523  13.967   3.479
69064SOL     OW 8965   6.380  12.426   7.589
69064SOL    HW1 8966   6.435  12.368   7.536
69064SOL    HW2 8967   6.348  12.371   7.660
69065SOL     OW 8968   7.459   1.647  11.351
69065SOL    HW1 8969   7.530   1.687  11.302
69065SOL    HW2 8970   7.390   1.712  11.353
69066SOL     OW 8971   0.427   1.154  12.514
69066SOL    HW1 8972   0.415   1.110  12.598
69066SOL    HW2 8973   0.366   1.110  12.455
69067SOL     OW 8974  10.444   2.641   6.437
69067SOL    HW1 8975  10.472   2.684   6.357
69067SOL    HW2 8976  10.507   2.669   6.503
69068SOL     OW 8977  13.821   4.127  12.716
69068SOL    HW1 8978  13.796   4.205  12.666
69068SOL    HW2 8979  13.788   4.144  12.804
69069SOL     OW 8980   6.947   5.626  14.857
69069SOL    HW1 8981   6.961   5.599   0.070
69069SOL    HW2 8982   7.034   5.648  14.825
69070SOL     OW 8983   8.715   9.249   0.897
69070SOL    HW1 8984   8.656   9.259   0.972
69070SOL    HW2 8985   8.667   9.286   0.823
69071SOL     OW 8986  12.466   7.666  12.477
69071SOL    HW1 8987  12.453   7.697  12.388
69071SOL    HW2 8988  12.527   7.592  12.469
69072SOL     OW 8989  14.591   2.369   2.924
69072SOL    HW1 8990  14.624   2.341   2.838
69072SOL    HW2 8991  14.574   2.462   2.913
69073SOL     OW 8992  13.303  11.496  13.856
69073SOL    HW1 8993  13.326  11.492  13.763
69073SOL    HW2 8994  13.315  11.588  13.880
69074SOL     OW 8995   8.868   0.744  14.152
69074SOL    HW1 8996   8.888   0.783  14.238
69074SOL    HW2 8997   8.948   0.699  14.126
69075SOL     OW 8998  10.743   7.954   9.016
69075SOL    HW1 8999  10.779   7.890   8.956
69075SOL    HW2 9000  10.706   8.022   8.960
69076SOL     OW 9001   2.307   4.007   7.646
69076SOL    HW1 9002   2.288   3.985   7.555
69076SOL    HW2 9003   2.398   3.980   7.658
69077SOL     OW 9004   1.926   6.194   9.414
69077SOL    HW1 9005   1.976   6.250   9.354
69077SOL    HW2 9006   1.991   6.161   9.476
69078SOL     OW 9007   2.493  11.415   9.682
69078SOL    HW1 9008   2.556  11.422   9.755
69078SOL    HW2 9009   2.430  11.485   9.699
69079SOL     OW 9010  11.871   5.896   3.972
69079SOL    HW1 9011  11.945   5.942   3.931
69079SOL    HW2 9012  11.891   5.899   4.065
69080SOL     OW 9013   4.177  12.978   0.078
69080SOL    HW1 9014   4.252  13.036   0.066
69080SOL    HW2 9015   4.161  12.980   0.172
69081SOL     OW 9016  11.487  11.502  14.254
69081SOL    HW1 9017  11.543  11.505  14.331
69081SOL    HW2 9018  11.401  11.531  14.286
69082SOL     OW 9019  11.764   8.370   4.401
69082SOL    HW1 9020  11.777   8.362   4.495
69082SOL    HW2 9021  11.852   8.372   4.363
69083SOL     OW 9022   0.257   3.495   2.326
69083SOL    HW1 9023   0.284   3.444   2.403
69083SOL    HW2 9024   0.216   3.432   2.268
69084SOL     OW 9025   2.374   3.772   0.069
69084SOL    HW1 9026   2.468   3.790   0.063
69084SOL    HW2 9027   2.366   3.707   0.139
69085SOL     OW 9028   3.180   1.675  10.280
69085SOL    HW1 9029   3.190   1.721  10.363
69085SOL    HW2 9030   3.092   1.637  10.284
69086SOL     OW 9031   7.821  13.014   1.669
69086SOL    HW1 9032   7.726  13.021   1.655
69086SOL    HW2 9033   7.836  13.063   1.750
69087SOL     OW 9034   4.239  10.328  12.321
69087SOL    HW1 9035   4.297  10.286  12.385
69087SOL    HW2 9036   4.164  10.358  12.372
69088SOL     OW 9037   3.144   2.705  10.850
69088SOL    HW1 9038   3.100   2.691  10.767
69088SOL    HW2 9039   3.232   2.670  10.837
69089SOL     OW 9040  12.306   0.164   0.658
69089SOL    HW1 9041  12.356   0.133   0.734
69089SOL    HW2 9042  12.291   0.086   0.606
69090SOL     OW 9043  12.132  10.586  13.592
69090SOL    HW1 9044  12.165  10.500  13.568
69090SOL    HW2 9045  12.044  10.590  13.556
69091SOL     OW 9046  12.344  13.795   8.015
69091SOL    HW1 9047  12.332  13.734   7.942
69091SOL    HW2 9048  12.438  13.809   8.020
69092SOL     OW 9049  11.178  10.857  10.056
69092SOL    HW1 9050  11.137  10.883   9.974
69092SOL    HW2 9051  11.261  10.816  10.030
69093SOL     OW 9052   9.189  11.734  11.803
69093SOL    HW1 9053   9.143  11.743  11.720
69093SOL    HW2 9054   9.206  11.640  11.811
69094SOL     OW 9055   4.938   3.758   6.243
69094SOL    HW1 9056   4.963   3.669   6.215
69094SOL    HW2 9057   4.952   3.758   6.338
69095SOL     OW 9058  11.651  14.650  12.637
69095SOL    HW1 9059  11.579  14.712  12.623
69095SOL    HW2 9060  11.717  14.674  12.571
69096SOL     OW 9061   3.198   9.005   1.992
69096SOL    HW1 9062   3.124   8.993   1.932
69096SOL    HW2 9063   3.178   9.086   2.039
69097SOL     OW 9064  13.480   1.220   8.094
69097SOL    HW1 9065  13.432   1.302   8.102
69097SOL    HW2 9066  13.435   1.172   8.024
69098SOL     OW 9067  11.357   3.589   2.730
69098SOL    HW1 9068  11.280   3.539   2.756
69098SOL    HW2 9069  11.335   3.680   2.751
69099SOL     OW 9070   2.024  11.232   4.980
69099SOL    HW1 9071   1.965  11.219   5.055
69099SOL    HW2 9072   1.966  11.235   4.904
69100SOL     OW 9073   8.427   0.534  14.777
69100SOL    HW1 9074   8.434   0.604  14.842
69100SOL    HW2 9075   8.340   0.545  14.739
69101SOL     OW 9076   3.130   5.501  10.571
69101SOL    HW1 9077   3.120   5.543  10.656
69101SOL    HW2 9078   3.203   5.547  10.530
69102SOL     OW 9079   5.080  13.303   9.965
69102SOL    HW1 9080   4.994  13.261   9.965
69102SOL    HW2 9081   5.134  13.248  10.021
69103SOL     OW 9082   1.501   5.320   9.811
69103SOL    HW1 9083   1.411   5.351   9.821
69103SOL    HW2 9084   1.540   5.379   9.747
69104SOL     OW 9085  12.437   4.938   5.510
69104SOL    HW1 9086  12.441   4.906   5.601
69104SOL    HW2 9087  12.422   5.032   5.518
69105SOL     OW 9088   6.529  10.116   8.356
69105SOL    HW1 9089   6.491  10.036   8.390
69105SOL    HW2 9090   6.555  10.166   8.433
69106SOL     OW 9091   2.965   0.670   8.135
69106SOL    HW1 9092   2.886   0.648   8.185
69106SOL    HW2 9093   2.941   0.655   8.044
69107SOL     OW 9094   7.613   9.626   4.715
69107SOL    HW1 9095   7.578   9.702   4.760
69107SOL    HW2 9096   7.676   9.588   4.777
69108SOL     OW 9097   8.939  12.543  14.476
69108SOL    HW1 9098   8.927  12.490  14.398
69108SOL    HW2 9099   9.031  12.569  14.474
69109SOL     OW 9100   9.310   2.102   7.483
69109SOL    HW1 9101   9.303   2.176   7.423
69109SOL    HW2 9102   9.312   2.025   7.426
69110SOL     OW 9103   1.539   1.337  10.158
69110SOL    HW1 9104   1.559   1.425  10.191
69110SOL    HW2 9105   1.443   1.332  10.163
69111SOL     OW 9106   9.227  12.827   5.166
69111SOL    HW1 9107   9.237  12.803   5.258
69111SOL    HW2 9108   9.176  12.908   5.168
69112SOL     OW 9109   8.473   5.387   2.027
69112SOL    HW1 9110   8.483   5.445   2.102
69112SOL    HW2 9111   8.558   5.344   2.018
69113SOL     OW 9112   2.224   8.032   8.377
69113SOL    HW1 9113   2.159   8.024   8.308
69113SOL    HW2 9114   2.307   8.014   8.334
69114SOL     OW 9115   7.524  11.753   7.581
69114SOL    HW1 9116   7.492  11.672   7.542
69114SOL    HW2 9117   7.470  11.822   7.543
69115SOL     OW 9118  13.729   6.229   8.906
69115SOL    HW1 9119  13.815   6.194   8.927
69115SOL    HW2 9120  13.699   6.269   8.987
69116SOL     OW 9121  13.199   8.848   8.367
69116SOL    HW1 9122  13.127   8.844   8.431
69116SOL    HW2 9123  13.162   8.812   8.287
69117SOL     OW 9124   8.366   6.708  13.770
69117SOL    HW1 9125   8.340   6.731  13.859
69117SOL    HW2 9126   8.295   6.741  13.715
69118SOL     OW 9127  14.790  10.378  10.479
69118SOL    HW1 9128  14.843  10.435  10.535
69118SOL    HW2 9129  14.830  10.292  10.488
69119SOL     OW 9130   7.576  11.057   2.022
69119SOL    HW1 9131   7.653  11.003   2.042
69119SOL    HW2 9132   7.612  11.140   1.992
69120SOL     OW 9133   1.905   1.875  10.319
69120SOL    HW1 9134   1.830   1.868  10.377
69120SOL    HW2 9135   1.974   1.915  10.373
69121SOL     OW 9136   7.518   3.977   5.555
69121SOL    HW1 9137   7.481   4.052   5.603
69121SOL    HW2 9138   7.589   4.015   5.503
69122SOL     OW 9139   7.742   3.078  14.100
69122SOL    HW1 9140   7.784   3.071  14.015
69122SOL    HW2 9141   7.811   3.059  14.163
69123SOL     OW 9142  12.558  13.037   8.859
69123SOL    HW1 9143  12.630  13.100   8.848
69123SOL    HW2 9144  12.543  13.035   8.954
69124SOL     OW 9145  11.168   4.911   3.711
69124SOL    HW1 9146  11.169   4.817   3.728
69124SOL    HW2 9147  11.255   4.941   3.739
69125SOL     OW 9148   2.803   3.412   2.817
69125SOL    HW1 9149   2.724   3.358   2.816
69125SOL    HW2 9150   2.836   3.405   2.906
69126SOL     OW 9151   4.401   0.401   7.908
69126SOL    HW1 9152   4.423   0.468   7.843
69126SOL    HW2 9153   4.331   0.440   7.961
69127SOL     OW 9154   2.982  10.869  10.866
69127SOL    HW1 9155   3.068  10.854  10.827
69127SOL    HW2 9156   2.935  10.922  10.802
69128SOL     OW 9157   5.707   8.761   2.421
69128SOL    HW1 9158   5.676   8.693   2.361
69128SOL    HW2 9159   5.638   8.827   2.421
69129SOL     OW 9160  10.725   3.153   6.971
69129SOL    HW1 9161  10.791   3.191   7.029
69129SOL    HW2 9162  10.766   3.153   6.884
69130SOL     OW 9163  13.247   6.762  14.515
69130SOL    HW1 9164  13.337   6.792  14.507
69130SOL    HW2 9165  13.195   6.832  14.475
69131SOL     OW 9166   3.997   7.149   8.944
69131SOL    HW1 9167   3.982   7.132   8.851
69131SOL    HW2 9168   3.993   7.244   8.953
69132SOL     OW 9169   2.531   7.712   9.071
69132SOL    HW1 9170   2.585   7.665   9.135
69132SOL    HW2 9171   2.582   7.708   8.990
69133SOL     OW 9172   9.506   6.402   0.484
69133SOL    HW1 9173   9.545   6.363   0.406
69133SOL    HW2 9174   9.580   6.436   0.534
69134SOL     OW 9175  11.161  13.621   6.490
69134SOL    HW1 9176  11.242  13.666   6.466
69134SOL    HW2 9177  11.115  13.684   6.545
69135SOL     OW 9178   5.149  10.152   5.878
69135SOL    HW1 9179   5.112  10.228   5.922
69135SOL    HW2 9180   5.215  10.188   5.819
69136SOL     OW 9181  12.178  12.703   2.810
69136SOL    HW1 9182  12.108  12.686   2.873
69136SOL    HW2 9183  12.206  12.792   2.830
69137SOL     OW 9184   7.048   4.375  10.670
69137SOL    HW1 9185   7.065   4.466  10.645
69137SOL    HW2 9186   6.954   4.375  10.692
69138SOL     OW 9187  14.764   5.694   9.758
69138SOL    HW1 9188  14.781   5.788   9.751
69138SOL    HW2 9189  14.794   5.658   9.675
69139SOL     OW 9190   4.980   1.027   7.006
69139SOL    HW1 9191   5.047   0.959   7.012
69139SOL    HW2 9192   5.027   1.108   7.027
69140SOL     OW 9193  11.833   3.099  14.372
69140SOL    HW1 9194  11.895   3.144  14.430
69140SOL    HW2 9195  11.823   3.012  14.409
69141SOL     OW 9196  12.312  11.251  10.241
69141SOL    HW1 9197  12.392  11.254  10.189
69141SOL    HW2 9198  12.342  11.257  10.332
69142SOL     OW 9199   3.572  13.860   7.694
69142SOL    HW1 9200   3.651  13.825   7.737
69142SOL    HW2 9201   3.591  13.854   7.601
69143SOL     OW 9202  14.531   3.207  13.861
69143SOL    HW1 9203  14.489   3.145  13.920
69143SOL    HW2 9204  14.490   3.191  13.776
69144SOL     OW 9205  12.961  12.624  11.270
69144SOL    HW1 9206  12.894  12.572  11.313
69144SOL    HW2 9207  12.951  12.712  11.307
69145SOL     OW 9208   0.124   4.087  10.032
69145SOL    HW1 9209   0.214   4.118  10.025
69145SOL    HW2 9210   0.091   4.125  10.113
69146SOL     OW 9211  10.771  10.298   1.078
69146SOL    HW1 9212  10.815  10.215   1.059
69146SOL    HW2 9213  10.736  10.287   1.166
69147SOL     OW 9214   9.409  10.477   5.649
69147SOL    HW1 9215   9.355  10.419   5.596
69147SOL    HW2 9216   9.488  10.490   5.597
69148SOL     OW 9217   6.182  11.177   3.160
69148SOL    HW1 9218   6.193  11.240   3.232
69148SOL    HW2 9219   6.264  11.182   3.111
69149SOL     OW 9220   5.532  14.265   4.966
69149SOL    HW1 9221   5.445  14.304   4.962
69149SOL    HW2 9222   5.520  14.176   4.933
69150SOL     OW 9223  10.402   3.439  12.143
69150SOL    HW1 9224  10.403   3.344  12.152
69150SOL    HW2 9225  10.322   3.467  12.187
69151SOL     OW 9226  11.673   6.469  10.249
69151SOL    HW1 9227  11.736   6.405  10.282
69151SOL    HW2 9228  11.592   6.420  10.236
69152SOL     OW 9229  11.362   9.446  13.800
69152SOL    HW1 9230  11.268   9.464  13.807
69152SOL    HW2 9231  11.388   9.419  13.889
69153SOL     OW 9232  14.144   2.026   6.418
69153SOL    HW1 9233  14.061   2.072   6.423
69153SOL    HW2 9234  14.121   1.936   6.393
69154SOL     OW 9235  14.058  11.612   2.335
69154SOL    HW1 9236  14.051  11.540   2.272
69154SOL    HW2 9237  14.086  11.569   2.416
69155SOL     OW 9238  13.108  11.673   5.594
69155SOL    HW1 9239  13.139  11.595   5.548
69155SOL    HW2 9240  13.175  11.690   5.659
69156SOL     OW 9241  12.314   4.666   4.186
69156SOL    HW1 9242  12.275   4.748   4.217
69156SOL    HW2 9243  12.278   4.600   4.245
69157SOL     OW 9244  14.501   9.382  11.881
69157SOL    HW1 9245  14.577   9.439  11.892
69157SOL    HW2 9246  14.523   9.326  11.807
69158SOL     OW 9247  10.432   0.398   5.849
69158SOL    HW1 9248  10.517   0.359   5.830
69158SOL    HW2 9249  10.429   0.477   5.795
69159SOL     OW 9250   2.006   3.140  10.772
69159SOL    HW1 9251   2.022   3.107  10.684
69159SOL    HW2 9252   1.980   3.232  10.759
69160SOL     OW 9253   6.405   2.747  12.111
69160SOL    HW1 9254   6.407   2.814  12.044
69160SOL    HW2 9255   6.321   2.704  12.100
69161SOL     OW 9256  11.721  10.297   6.333
69161SOL    HW1 9257  11.691  10.334   6.250
69161SOL    HW2 9258  11.797  10.349   6.358
69162SOL     OW 9259   0.030  13.548   1.309
69162SOL    HW1 9260   0.098  13.491   1.273
69162SOL    HW2 9261   0.016  13.515   1.398
69163SOL     OW 9262   4.335   8.841   3.895
69163SOL    HW1 9263   4.326   8.746   3.891
69163SOL    HW2 9264   4.428   8.856   3.912
69164SOL     OW 9265   8.381   6.453  13.711
69164SOL    HW1 9266   8.396   6.542  13.743
69164SOL    HW2 9267   8.290   6.453  13.680
69165SOL     OW 9268  10.853   8.396   0.502
69165SOL    HW1 9269  10.880   8.374   0.413
69165SOL    HW2 9270  10.901   8.477   0.522
69166SOL     OW 9271   0.479   3.264   3.081
69166SOL    HW1 9272   0.440   3.327   3.020
69166SOL    HW2 9273   0.573   3.284   3.079
69167SOL     OW 9274   3.507  12.997   1.257
69167SOL    HW1 9275   3.427  12.974   1.304
69167SOL    HW2 9276   3.483  13.073   1.204
69168SOL     OW 9277   2.173  12.229   1.321
69168SOL    HW1 9278   2.110  12.245   1.391
69168SOL    HW2 9279   2.220  12.312   1.311
69169SOL     OW 9280   4.708   1.134  10.385
69169SOL    HW1 9281   4.756   1.210  10.419
69169SOL    HW2 9282   4.670   1.094  10.463
69170SOL     OW 9283   6.302   4.343   6.792
69170SOL    HW1 9284   6.241   4.376   6.857
69170SOL    HW2 9285   6.261   4.364   6.708
69171SOL     OW 9286   9.340  13.617  14.875
69171SOL    HW1 9287   9.263  13.574  14.839
69171SOL    HW2 9288   9.406  13.547   0.000
69172SOL     OW 9289   9.151   2.198   7.882
69172SOL    HW1 9290   9.144   2.288   7.850
69172SOL    HW2 9291   9.107   2.145   7.816
69173SOL     OW 9292  14.567   1.578  13.880
69173SOL    HW1 9293  14.551   1.485  13.899
69173SOL    HW2 9294  14.483   1.611  13.850
69174SOL     OW 9295   6.397   5.081  13.378
69174SOL    HW1 9296   6.354   5.123  13.452
69174SOL    HW2 9297   6.326   5.044  13.326
69175SOL     OW 9298   7.759   5.332  13.471
69175SOL    HW1 9299   7.716   5.250  13.494
69175SOL    HW2 9300   7.797   5.316  13.385
69176SOL     OW 9301  13.847  13.912   3.098
69176SOL    HW1 9302  13.799  13.970   3.158
69176SOL    HW2 9303  13.880  13.971   3.030
69177SOL     OW 9304   4.392   2.878  13.586
69177SOL    HW1 9305   4.429   2.790  13.580
69177SOL    HW2 9306   4.427   2.913  13.667
69178SOL     OW 9307   5.173  11.152   1.439
69178SOL    HW1 9308   5.180  11.092   1.513
69178SOL    HW2 9309   5.264  11.173   1.417
69179SOL     OW 9310  10.222   0.021   2.694
69179SOL    HW1 9311  10.316   0.002   2.690
69179SOL    HW2 9312  10.204   0.073   2.616
69180SOL     OW 9313   7.439  14.368  10.906
69180SOL    HW1 9314   7.408  14.353  10.817
69180SOL    HW2 9315   7.424  14.284  10.951
69181SOL     OW 9316   3.606  13.227  12.261
69181SOL    HW1 9317   3.664  13.299  12.236
69181SOL    HW2 9318   3.606  13.168  12.186
69182SOL     OW 9319   1.219  13.715   5.809
69182SOL    HW1 9320   1.168  13.680   5.882
69182SOL    HW2 9321   1.273  13.783   5.848
69183SOL     OW 9322   0.922  13.804   7.385
69183SOL    HW1 9323   1.004  13.758   7.370
69183SOL    HW2 9324   0.877  13.801   7.301
69184SOL     OW 9325   2.897   5.586   7.448
69184SOL    HW1 9326   2.804   5.567   7.440
69184SOL    HW2 9327   2.923   5.544   7.531
69185SOL     OW 9328   2.855   7.787   4.385
69185SOL    HW1 9329   2.863   7.870   4.433
69185SOL    HW2 9330   2.936   7.782   4.334
69186SOL     OW 9331   3.223   8.211   0.733
69186SOL    HW1 9332   3.235   8.125   0.694
69186SOL    HW2 9333   3.130   8.216   0.754
69187SOL     OW 9334  14.197  12.127  13.492
69187SOL    HW1 9335  14.197  12.174  13.576
69187SOL    HW2 9336  14.112  12.083  13.489
69188SOL     OW 9337   9.125   1.753   8.481
69188SOL    HW1 9338   9.192   1.728   8.545
69188SOL    HW2 9339   9.125   1.848   8.482
69189SOL     OW 9340   7.363   2.929   6.862
69189SOL    HW1 9341   7.325   3.003   6.814
69189SOL    HW2 9342   7.457   2.946   6.863
69190SOL     OW 9343   5.347   5.141  13.616
69190SOL    HW1 9344   5.296   5.157  13.695
69190SOL    HW2 9345   5.430   5.104  13.648
69191SOL     OW 9346  11.852   2.319  12.299
69191SOL    HW1 9347  11.852   2.311  12.203
69191SOL    HW2 9348  11.829   2.410  12.315
69192SOL     OW 9349   4.037   5.391  12.837
69192SOL    HW1 9350   4.094   5.420  12.766
69192SOL    HW2 9351   4.039   5.464  12.900
69193SOL     OW 9352  14.204  13.445   7.523
69193SOL    HW1 9353  14.192  13.534   7.490
69193SOL    HW2 9354  14.298  13.429   7.515
69194SOL     OW 9355   1.027   7.494  14.135
69194SOL    HW1 9356   1.119   7.498  14.106
69194SOL    HW2 9357   1.017   7.404  14.167
69195SOL     OW 9358  10.914   9.966  11.664
69195SOL    HW1 9359  10.995   9.988  11.711
69195SOL    HW2 9360  10.856   9.931  11.731
69196SOL     OW 9361   0.509   1.752  10.100
69196SOL    HW1 9362   0.425   1.760  10.054
69196SOL    HW2 9363   0.485   1.736  10.191
69197SOL     OW 9364  13.717  14.486  11.628
69197SOL    HW1 9365  13.630  14.526  11.620
69197SOL    HW2 9366  13.719  14.451  11.717
69198SOL     OW 9367   3.990   4.148   6.509
69198SOL    HW1 9368   4.067   4.205   6.513
69198SOL    HW2 9369   3.916   4.208   6.511
69199SOL     OW 9370   6.498  11.327   7.077
69199SOL    HW1 9371   6.480  11.249   7.024
69199SOL    HW2 9372   6.592  11.325   7.091
69200SOL     OW 9373   7.198   5.631   9.231
69200SOL    HW1 9374   7.245   5.629   9.314
69200SOL    HW2 9375   7.121   5.575   9.246
69201SOL     OW 9376  13.999  13.537   5.875
69201SOL    HW1 9377  13.960  13.624   5.885
69201SOL    HW2 9378  13.937  13.490   5.819
69202SOL     OW 9379  12.835   3.260  11.854
69202SOL    HW1 9380  12.855   3.186  11.796
69202SOL    HW2 9381  12.855   3.229  11.942
69203SOL     OW 9382   3.257  13.267   7.479
69203SOL    HW1 9383   3.162  13.276   7.474
69203SOL    HW2 9384   3.278  13.199   7.416
69204SOL     OW 9385   2.117   1.686  14.505
69204SOL    HW1 9386   2.097   1.689  14.412
69204SOL    HW2 9387   2.035   1.656  14.546
69205SOL     OW 9388  10.831  14.728   3.101
69205SOL    HW1 9389  10.836  14.824   3.100
69205SOL    HW2 9390  10.885  14.702   3.176
69206SOL     OW 9391   0.527   5.667   6.014
69206SOL    HW1 9392   0.545   5.756   6.043
69206SOL    HW2 9393   0.586   5.612   6.066
69207SOL     OW 9394   0.849   0.833   3.370
69207SOL    HW1 9395   0.901   0.913   3.372
69207SOL    HW2 9396   0.857   0.802   3.279
69208SOL     OW 9397   3.618   4.801   6.120
69208SOL    HW1 9398   3.571   4.885   6.114
69208SOL    HW2 9399   3.590   4.764   6.203
69209SOL     OW 9400   9.787  14.422   0.146
69209SOL    HW1 9401   9.744  14.338   0.125
69209SOL    HW2 9402   9.750  14.484   0.083
69210SOL     OW 9403   7.324  10.965   7.203
69210SOL    HW1 9404   7.275  11.032   7.249
69210SOL    HW2 9405   7.273  10.885   7.216
69211SOL     OW 9406  13.284  12.734   9.958
69211SOL    HW1 9407  13.330  12.796  10.014
69211SOL    HW2 9408  13.353  12.688   9.911
69212SOL     OW 9409   9.378   2.467   9.545
69212SOL    HW1 9410   9.452   2.526   9.528
69212SOL    HW2 9411   9.348   2.491   9.633
69213SOL     OW 9412  12.231   0.183   2.037
69213SOL    HW1 9413  12.299   0.240   2.001
69213SOL    HW2 9414  12.263   0.094   2.020
69214SOL     OW 9415   3.940   0.897  10.015
69214SOL    HW1 9416   3.913   0.832  10.080
69214SOL    HW2 9417   3.958   0.846   9.936
69215SOL     OW 9418   2.724  12.418   0.120
69215SOL    HW1 9419   2.755  12.450   0.205
69215SOL    HW2 9420   2.786  12.350   0.096
69216SOL     OW 9421   2.173   5.018  14.551
69216SOL    HW1 9422   2.153   5.007  14.458
69216SOL    HW2 9423   2.254   4.969  14.563
69217SOL     OW 9424  11.145   7.132  11.974
69217SOL    HW1 9425  11.101   7.215  11.992
69217SOL    HW2 9426  11.213   7.126  12.041
69218SOL     OW 9427   5.832  12.834  13.101
69218SOL    HW1 9428   5.881  12.757  13.072
69218SOL    HW2 9429   5.780  12.860  13.025
69219SOL     OW 9430   0.095  14.110   1.333
69219SOL    HW1 9431   0.074  14.060   1.412
69219SOL    HW2 9432   0.160  14.057   1.288
69220SOL     OW 9433   7.563  10.795   7.029
69220SOL    HW1 9434   7.542  10.889   7.023
69220SOL    HW2 9435   7.541  10.772   7.119
69221SOL     OW 9436   2.634   7.203   3.130
69221SOL    HW1 9437   2.550   7.225   3.090
69221SOL    HW2 9438   2.696   7.265   3.092
69222SOL     OW 9439   3.786   5.361   5.622
69222SOL    HW1 9440   3.763   5.294   5.686
69222SOL    HW2 9441   3.739   5.439   5.652
69223SOL     OW 9442   9.619   5.271   2.034
69223SOL    HW1 9443   9.531   5.307   2.022
69223SOL    HW2 9444   9.674   5.347   2.053
69224SOL     OW 9445   9.617   5.406  14.323
69224SOL    HW1 9446   9.550   5.341  14.342
69224SOL    HW2 9447   9.581   5.458  14.251
69225SOL     OW 9448   1.154   5.727   0.711
69225SOL    HW1 9449   1.228   5.788   0.707
69225SOL    HW2 9450   1.134   5.720   0.805
69226SOL     OW 9451   5.013  12.002   6.974
69226SOL    HW1 9452   5.004  12.017   6.880
69226SOL    HW2 9453   4.923  12.003   7.007
69227SOL     OW 9454  13.180   8.641   9.397
69227SOL    HW1 9455  13.158   8.658   9.305
69227SOL    HW2 9456  13.218   8.723   9.428
69228SOL     OW 9457   8.059  13.585  14.433
69228SOL    HW1 9458   8.025  13.670  14.406
69228SOL    HW2 9459   8.036  13.578  14.525
69229SOL     OW 9460  10.727  11.652  12.411
69229SOL    HW1 9461  10.657  11.712  12.387
69229SOL    HW2 9462  10.772  11.633  12.329
69230SOL     OW 9463  11.552  13.359   1.029
69230SOL    HW1 9464  11.565  13.437   0.975
69230SOL    HW2 9465  11.523  13.292   0.967
69231SOL     OW 9466  11.974   8.034   1.183
69231SOL    HW1 9467  11.889   8.077   1.198
69231SOL    HW2 9468  12.002   8.066   1.097
69232SOL     OW 9469  14.273  11.478   6.486
69232SOL    HW1 9470  14.359  11.458   6.448
69232SOL    HW2 9471  14.248  11.561   6.446
69233SOL     OW 9472   1.072   4.306   9.667
69233SOL    HW1 9473   1.022   4.244   9.720
69233SOL    HW2 9474   1.090   4.379   9.726
69234SOL     OW 9475   9.395  10.596   8.083
69234SOL    HW1 9476   9.382  10.684   8.119
69234SOL    HW2 9477   9.345  10.596   8.001
69235SOL     OW 9478   1.368   9.286   3.892
69235SOL    HW1 9479   1.398   9.364   3.846
69235SOL    HW2 9480   1.431   9.273   3.963
69236SOL     OW 9481   8.385   3.628   1.809
69236SOL    HW1 9482   8.329   3.630   1.731
69236SOL    HW2 9483   8.374   3.539   1.844
69237SOL     OW 9484  13.631   1.824   6.819
69237SOL    HW1 9485  13.570   1.777   6.762
69237SOL    HW2 9486  13.609   1.793   6.907
69238SOL     OW 9487   5.582   9.738   8.835
69238SOL    HW1 9488   5.587   9.674   8.764
69238SOL    HW2 9489   5.611   9.820   8.795
69239SOL     OW 9490  11.526  14.765  14.872
69239SOL    HW1 9491  11.533  14.859  14.856
69239SOL    HW2 9492  11.452  14.737  14.818
69240SOL     OW 9493   8.738  12.432   2.201
69240SOL    HW1 9494   8.828  12.442   2.231
69240SOL    HW2 9495   8.713  12.344   2.231
69241SOL     OW 9496  10.597   4.200   6.027
69241SOL    HW1 9497  10.577   4.236   6.114
69241SOL    HW2 9498  10.680   4.154   6.038
69242SOL     OW 9499  11.035  14.337  10.117
69242SOL    HW1 9500  11.120  14.327  10.073
69242SOL    HW2 9501  11.051  14.402  10.185
69243SOL     OW 9502   6.372   8.406   1.880
69243SOL    HW1 9503   6.434   8.335   1.894
69243SOL    HW2 9504   6.407   8.455   1.805
69244SOL     OW 9505   0.642  14.360  11.850
69244SOL    HW1 9506   0.648  14.382  11.757
69244SOL    HW2 9507   0.667  14.268  11.855
69245SOL     OW 9508  11.975   6.184  10.968
69245SOL    HW1 9509  11.971   6.278  10.947
69245SOL    HW2 9510  11.960   6.141  10.884
69246SOL     OW 9511   2.514   4.712   7.752
69246SOL    HW1 9512   2.442   4.749   7.804
69246SOL    HW2 9513   2.554   4.787   7.710
69247SOL     OW 9514   9.013   8.159  14.223
69247SOL    HW1 9515   8.974   8.237  14.183
69247SOL    HW2 9516   9.043   8.188  14.309
69248SOL     OW 9517   2.173   6.255   9.884
69248SOL    HW1 9518   2.157   6.167   9.919
69248SOL    HW2 9519   2.226   6.297   9.951
69249SOL     OW 9520   0.410   3.938   2.803
69249SOL    HW1 9521   0.443   4.026   2.787
69249SOL    HW2 9522   0.327   3.934   2.755
69250SOL     OW 9523  14.363   8.885  14.732
69250SOL    HW1 9524  14.402   8.899  14.645
69250SOL    HW2 9525  14.333   8.794  14.730
69251SOL     OW 9526   5.406   3.363   7.908
69251SOL    HW1 9527   5.417   3.409   7.825
69251SOL    HW2 9528   5.363   3.281   7.886
69252SOL     OW 9529   8.104   6.990  11.325
69252SOL    HW1 9530   8.029   6.933  11.308
69252SOL    HW2 9531   8.180   6.939  11.298
69253SOL     OW 9532  11.247   2.614  11.265
69253SOL    HW1 9533  11.160   2.611  11.306
69253SOL    HW2 9534  11.298   2.674  11.320
69254SOL     OW 9535  10.470  11.282   2.676
69254SOL    HW1 9536  10.534  11.346   2.708
69254SOL    HW2 9537  10.431  11.245   2.756
69255SOL     OW 9538   4.284   3.889   9.627
69255SOL    HW1 9539   4.207   3.942   9.608
69255SOL    HW2 9540   4.355   3.953   9.636
69256SOL     OW 9541  13.029   8.446   9.065
69256SOL    HW1 9542  13.116   8.476   9.092
69256SOL    HW2 9543  12.970   8.517   9.091
69257SOL     OW 9544   6.372   2.252  10.144
69257SOL    HW1 9545   6.441   2.191  10.118
69257SOL    HW2 9546   6.347   2.223  10.232
69258SOL     OW 9547  13.150  13.073   0.856
69258SOL    HW1 9548  13.083  13.048   0.920
69258SOL    HW2 9549  13.230  13.082   0.908
69259SOL     OW 9550   3.792   8.063  10.627
69259SOL    HW1 9551   3.743   8.032  10.551
69259SOL    HW2 9552   3.830   8.146  10.599
69260SOL     OW 9553  11.772  14.443   7.036
69260SOL    HW1 9554  11.755  14.515   6.975
69260SOL    HW2 9555  11.866  14.445   7.050
69261SOL     OW 9556  14.798   5.757  11.938
69261SOL    HW1 9557  14.772   5.834  11.888
69261SOL    HW2 9558  14.774   5.683  11.882
69262SOL     OW 9559  10.612   2.629   9.002
69262SOL    HW1 9560  10.680   2.605   8.939
69262SOL    HW2 9561  10.578   2.712   8.969
69263SOL     OW 9562   3.790  13.170   6.214
69263SOL    HW1 9563   3.855  13.190   6.146
69263SOL    HW2 9564   3.832  13.197   6.296
69264SOL     OW 9565  12.175   1.822   2.271
69264SOL    HW1 9566  12.107   1.760   2.247
69264SOL    HW2 9567  12.142   1.865   2.351
69265SOL     OW 9568  12.309   3.459   9.640
69265SOL    HW1 9569  12.258   3.471   9.560
69265SOL    HW2 9570  12.400   3.464   9.612
69266SOL     OW 9571   8.772  13.601   1.829
69266SOL    HW1 9572   8.809  13.527   1.875
69266SOL    HW2 9573   8.827  13.675   1.853
69267SOL     OW 9574   5.734   6.860   2.147
69267SOL    HW1 9575   5.820   6.892   2.119
69267SOL    HW2 9576   5.719   6.901   2.232
69268SOL     OW 9577   7.865   2.045   8.962
69268SOL    HW1 9578   7.874   2.072   8.871
69268SOL    HW2 9579   7.917   1.965   8.969
69269SOL     OW 9580   8.262   4.934   3.527
69269SOL    HW1 9581   8.293   4.860   3.579
69269SOL    HW2 9582   8.283   5.011   3.579
69270SOL     OW 9583   1.412   1.884  10.173
69270SOL    HW1 9584   1.506   1.894  10.156
69270SOL    HW2 9585   1.373   1.962  10.134
69271SOL     OW 9586   2.671  11.742   3.618
69271SOL    HW1 9587   2.729  11.811   3.586
69271SOL    HW2 9588   2.717  11.660   3.599
69272SOL     OW 9589  12.180   3.281  10.010
69272SOL    HW1 9590  12.181   3.191   9.976
69272SOL    HW2 9591  12.090   3.295  10.038
69273SOL     OW 9592   8.350   8.837  10.266
69273SOL    HW1 9593   8.288   8.905  10.292
69273SOL    HW2 9594   8.433   8.883  10.258
69274SOL     OW 9595  14.431   6.189  14.788
69274SOL    HW1 9596  14.491   6.118  14.766
69274SOL    HW2 9597  14.433   6.246  14.711
69275SOL     OW 9598   7.772   6.712   5.178
69275SOL    HW1 9599   7.787   6.719   5.083
69275SOL    HW2 9600   7.838   6.651   5.209
69276SOL     OW 9601   3.205  13.720   9.701
69276SOL    HW1 9602   3.288  13.766   9.707
69276SOL    HW2 9603   3.219  13.638   9.748
69277SOL     OW 9604   1.839   6.000   1.972
69277SOL    HW1 9605   1.757   5.962   1.942
69277SOL    HW2 9606   1.860   5.954   2.053
69278SOL     OW 9607   5.194   5.791   9.560
69278SOL    HW1 9608   5.246   5.852   9.614
69278SOL    HW2 9609   5.119   5.769   9.615
69279SOL     OW 9610   5.163  10.572   9.404
69279SOL    HW1 9611   5.110  10.643   9.440
69279SOL    HW2 9612   5.106  10.495   9.409
69280SOL     OW 9613   5.805   6.463   6.892
69280SOL    HW1 9614   5.893   6.442   6.861
69280SOL    HW2 9615   5.761   6.502   6.815
69281SOL     OW 9616  14.463   3.008   4.942
69281SOL    HW1 9617  14.511   3.037   5.019
69281SOL    HW2 9618  14.398   3.077   4.927
69282SOL     OW 9619  11.693  12.861  11.051
69282SOL    HW1 9620  11.775  12.814  11.059
69282SOL    HW2 9621  11.713  12.950  11.077
69283SOL     OW 9622  12.405  12.092  13.333
69283SOL    HW1 9623  12.426  12.177  13.372
69283SOL    HW2 9624  12.309  12.088  13.336
69284SOL     OW 9625   5.047  10.726   3.955
69284SOL    HW1 9626   5.084  10.707   4.041
69284SOL    HW2 9627   4.996  10.648   3.933
69285SOL     OW 9628   7.778   2.509   0.330
69285SOL    HW1 9629   7.853   2.511   0.390
69285SOL    HW2 9630   7.712   2.564   0.371
69286SOL     OW 9631  12.157  12.908   3.423
69286SOL    HW1 9632  12.098  12.834   3.406
69286SOL    HW2 9633  12.234  12.890   3.369
69287SOL     OW 9634   4.461   4.539   8.815
69287SOL    HW1 9635   4.391   4.496   8.864
69287SOL    HW2 9636   4.454   4.504   8.727
69288SOL     OW 9637   9.687   3.636  11.393
69288SOL    HW1 9638   9.716   3.546  11.386
69288SOL    HW2 9639   9.668   3.663  11.303
69289SOL     OW 9640   1.538   2.569   9.584
69289SOL    HW1 9641   1.553   2.590   9.492
69289SOL    HW2 9642   1.443   2.567   9.593
69290SOL     OW 9643   0.818  11.719  11.786
69290SOL    HW1 9644   0.741  11.763  11.750
69290SOL    HW2 9645   0.782  11.661  11.853
69291SOL     OW 9646   0.715  12.508   6.504
69291SOL    HW1 9647   0.729  12.521   6.410
69291SOL    HW2 9648   0.637  12.453   6.509
69292SOL     OW 9649   9.049  11.824   3.657
69292SOL    HW1 9650   8.977  11.799   3.716
69292SOL    HW2 9651   9.006  11.872   3.586
69293SOL     OW 9652   3.029   7.757   1.073
69293SOL    HW1 9653   3.116   7.788   1.095
69293SOL    HW2 9654   2.983   7.753   1.157
69294SOL     OW 9655   9.840   6.710   0.539
69294SOL    HW1 9656   9.924   6.676   0.570
69294SOL    HW2 9657   9.836   6.686   0.447
69295SOL     OW 9658   6.948  12.936   1.005
69295SOL    HW1 9659   6.995  12.919   0.923
69295SOL    HW2 9660   6.927  12.849   1.038
69296SOL     OW 9661  12.412   1.022   6.845
69296SOL    HW1 9662  12.440   1.079   6.917
69296SOL    HW2 9663  12.450   0.937   6.866
69297SOL     OW 9664   3.975   0.571   1.677
69297SOL    HW1 9665   4.014   0.614   1.753
69297SOL    HW2 9666   3.886   0.548   1.705
69298SOL     OW 9667  11.372   8.211   3.995
69298SOL    HW1 9668  11.357   8.153   4.070
69298SOL    HW2 9669  11.410   8.154   3.928
69299SOL     OW 9670  14.634   9.797   2.413
69299SOL    HW1 9671  14.702   9.824   2.353
69299SOL    HW2 9672  14.552   9.815   2.367
69300SOL     OW 9673  14.596  12.692   0.750
69300SOL    HW1 9674  14.657  12.620   0.736
69300SOL    HW2 9675  14.623  12.730   0.834
69301SOL     OW 9676  14.828   9.398   0.240
69301SOL    HW1 9677   0.019   9.436   0.294
69301SOL    HW2 9678  14.747   9.415   0.289
69302SOL     OW 9679  10.076  13.540   4.541
69302SOL    HW1 9680  10.104  13.619   4.495
69302SOL    HW2 9681  10.154  13.484   4.542
69303SOL     OW 9682   8.943   9.537  13.397
69303SOL    HW1 9683   8.897   9.497  13.323
69303SOL    HW2 9684   9.029   9.495  13.397
69304SOL     OW 9685   4.600  10.445   4.260
69304SOL    HW1 9686   4.606  10.359   4.301
69304SOL    HW2 9687   4.511  10.475   4.280
69305SOL     OW 9688  13.631   3.623  13.173
69305SOL    HW1 9689  13.700   3.565  13.142
69305SOL    HW2 9690  13.594   3.578  13.249
69306SOL     OW 9691   6.012  10.916   2.070
69306SOL    HW1 9692   6.006  10.891   2.162
69306SOL    HW2 9693   6.081  10.983   2.068
69307SOL     OW 9694   7.204   7.050  13.201
69307SOL    HW1 9695   7.185   7.023  13.111
69307SOL    HW2 9696   7.250   6.975  13.239
69308SOL     OW 9697  13.767   9.101   4.701
69308SOL    HW1 9698  13.776   9.176   4.760
69308SOL    HW2 9699  13.709   9.132   4.632
69309SOL     OW 9700  11.581   1.620  11.239
69309SOL    HW1 9701  11.647   1.564  11.279
69309SOL    HW2 9702  11.558   1.575  11.158
69310SOL     OW 9703   4.593   8.962   0.296
69310SOL    HW1 9704   4.525   8.936   0.358
69310SOL    HW2 9705   4.650   9.020   0.346
69311SOL     OW 9706   4.088   6.224  12.750
69311SOL    HW1 9707   4.091   6.129  12.738
69311SOL    HW2 9708   4.052   6.257  12.668
69312SOL     OW 9709   6.883   4.788   8.184
69312SOL    HW1 9710   6.910   4.842   8.109
69312SOL    HW2 9711   6.935   4.709   8.176
69313SOL     OW 9712   0.173   3.003   0.639
69313SOL    HW1 9713   0.199   2.929   0.693
69313SOL    HW2 9714   0.249   3.021   0.584
69314SOL     OW 9715  13.250   7.537   2.362
69314SOL    HW1 9716  13.189   7.599   2.401
69314SOL    HW2 9717  13.322   7.531   2.425
69315SOL     OW 9718   3.415  14.151  14.775
69315SOL    HW1 9719   3.434  14.066  14.734
69315SOL    HW2 9720   3.412  14.132  14.869
69316SOL     OW 9721   7.954   4.466   7.502
69316SOL    HW1 9722   7.964   4.549   7.548
69316SOL    HW2 9723   7.879   4.479   7.444
69317SOL     OW 9724  11.209   7.737   2.290
69317SOL    HW1 9725  11.126   7.707   2.327
69317SOL    HW2 9726  11.260   7.764   2.366
69318SOL     OW 9727  12.080  12.987   6.241
69318SOL    HW1 9728  12.047  12.905   6.204
69318SOL    HW2 9729  12.056  12.983   6.334
69319SOL     OW 9730  10.751   3.321   5.607
69319SOL    HW1 9731  10.805   3.290   5.680
69319SOL    HW2 9732  10.739   3.414   5.625
69320SOL     OW 9733  10.648   5.230   8.720
69320SOL    HW1 9734  10.688   5.196   8.640
69320SOL    HW2 9735  10.628   5.153   8.772
69321SOL     OW 9736  12.596  11.564   2.406
69321SOL    HW1 9737  12.575  11.600   2.320
69321SOL    HW2 9738  12.528  11.498   2.421
69322SOL     OW 9739  10.817   7.905  11.824
69322SOL    HW1 9740  10.909   7.927  11.836
69322SOL    HW2 9741  10.811   7.813  11.851
69323SOL     OW 9742   9.167   3.626  13.453
69323SOL    HW1 9743   9.108   3.678  13.399
69323SOL    HW2 9744   9.229   3.689  13.490
69324SOL     OW 9745   1.990  14.383   5.030
69324SOL    HW1 9746   1.995  14.292   4.999
69324SOL    HW2 9747   2.005  14.377   5.124
69325SOL     OW 9748   6.329  11.605  12.795
69325SOL    HW1 9749   6.400  11.623  12.734
69325SOL    HW2 9750   6.283  11.688  12.804
69326SOL     OW 9751   3.589  10.649   1.888
69326SOL    HW1 9752   3.647  10.582   1.851
69326SOL    HW2 9753   3.534  10.602   1.951
69327SOL     OW 9754   6.779  12.317   2.145
69327SOL    HW1 9755   6.702  12.353   2.190
69327SOL    HW2 9756   6.845  12.307   2.215
69328SOL     OW 9757  11.180   4.827   7.921
69328SOL    HW1 9758  11.259   4.843   7.870
69328SOL    HW2 9759  11.206   4.842   8.012
69329SOL     OW 9760   2.117   2.785   4.478
69329SOL    HW1 9761   2.055   2.758   4.410
69329SOL    HW2 9762   2.097   2.728   4.553
69330SOL     OW 9763  12.819   6.239   1.257
69330SOL    HW1 9764  12.774   6.308   1.306
69330SOL    HW2 9765  12.912   6.261   1.264
69331SOL     OW 9766  10.540  14.822   5.704
69331SOL    HW1 9767  10.621  14.848   5.748
69331SOL    HW2 9768  10.532  14.728   5.722
69332SOL     OW 9769   1.516   6.435   1.463
69332SOL    HW1 9770   1.531   6.486   1.383
69332SOL    HW2 9771   1.603   6.424   1.501
69333SOL     OW 9772   6.118   3.258  11.259
69333SOL    HW1 9773   6.167   3.258  11.341
69333SOL    HW2 9774   6.047   3.196  11.274
69334SOL     OW 9775   9.389  14.717   4.519
69334SOL    HW1 9776   9.416  14.656   4.450
69334SOL    HW2 9777   9.405  14.668   4.601
69335SOL     OW 9778  13.167  10.199  10.332
69335SOL    HW1 9779  13.222  10.131  10.372
69335SOL    HW2 9780  13.208  10.215  10.247
69336SOL     OW 9781  12.627  13.186  14.068
69336SOL    HW1 9782  12.669  13.272  14.060
69336SOL    HW2 9783  12.696  13.124  14.044
69337SOL     OW 9784   0.518   7.369   6.808
69337SOL    HW1 9785   0.614   7.377   6.811
69337SOL    HW2 9786   0.503   7.281   6.773
69338SOL     OW 9787   3.389   1.508  13.486
69338SOL    HW1 9788   3.453   1.578  13.498
69338SOL    HW2 9789   3.421   1.459  13.410
69339SOL     OW 9790  11.590  14.139   1.753
69339SOL    HW1 9791  11.621  14.181   1.834
69339SOL    HW2 9792  11.512  14.090   1.780
69340SOL     OW 9793   5.728   2.497  12.057
69340SOL    HW1 9794   5.800   2.473  11.998
69340SOL    HW2 9795   5.766   2.560  12.118
69341SOL     OW 9796  10.785  11.557   1.532
69341SOL    HW1 9797  10.876  11.555   1.561
69341SOL    HW2 9798  10.735  11.564   1.613
69342SOL     OW 9799   2.760   0.490   7.256
69342SOL    HW1 9800   2.736   0.401   7.284
69342SOL    HW2 9801   2.726   0.497   7.167
69343SOL     OW 9802   5.786   9.949  11.547
69343SOL    HW1 9803   5.742   9.930  11.464
69343SOL    HW2 9804   5.749   9.885  11.609
69344SOL     OW 9805   6.681   4.206  11.143
69344SOL    HW1 9806   6.762   4.180  11.187
69344SOL    HW2 9807   6.623   4.233  11.214
69345SOL     OW 9808   3.373   6.907  14.436
69345SOL    HW1 9809   3.342   6.861  14.358
69345SOL    HW2 9810   3.320   6.872  14.507
69346SOL     OW 9811  11.577   1.293   7.371
69346SOL    HW1 9812  11.548   1.215   7.323
69346SOL    HW2 9813  11.496   1.337   7.396
69347SOL     OW 9814   4.663  14.091   6.033
69347SOL    HW1 9815   4.632  14.037   6.106
69347SOL    HW2 9816   4.584  14.105   5.980
69348SOL     OW 9817   5.653  10.499  13.755
69348SOL    HW1 9818   5.678  10.433  13.690
69348SOL    HW2 9819   5.654  10.451  13.838
69349SOL     OW 9820   1.478   2.670   3.236
69349SOL    HW1 9821   1.412   2.739   3.242
69349SOL    HW2 9822   1.465   2.617   3.315
69350SOL     OW 9823   2.411   9.348   5.885
69350SOL    HW1 9824   2.426   9.423   5.827
69350SOL    HW2 9825   2.446   9.273   5.836
69351SOL     OW 9826   1.489   6.731  11.158
69351SOL    HW1 9827   1.435   6.757  11.233
69351SOL    HW2 9828   1.564   6.685  11.197
69352SOL     OW 9829   3.870   0.442   5.635
69352SOL    HW1 9830   3.925   0.418   5.709
69352SOL    HW2 9831   3.905   0.526   5.605
69353SOL     OW 9832   4.721  11.383   9.431
69353SOL    HW1 9833   4.630  11.371   9.456
69353SOL    HW2 9834   4.766  11.307   9.469
69354SOL     OW 9835   7.624  12.883   1.094
69354SOL    HW1 9836   7.668  12.808   1.134
69354SOL    HW2 9837   7.576  12.846   1.020
69355SOL     OW 9838   2.994   9.296  12.890
69355SOL    HW1 9839   3.063   9.337  12.838
69355SOL    HW2 9840   3.041   9.253  12.962
69356SOL     OW 9841  12.133   1.803   0.399
69356SOL    HW1 9842  12.081   1.879   0.424
69356SOL    HW2 9843  12.130   1.802   0.304
69357SOL     OW 9844   0.308   7.061   4.964
69357SOL    HW1 9845   0.224   7.091   4.929
69357SOL    HW2 9846   0.287   6.980   5.010
69358SOL     OW 9847   5.307   4.230   1.828
69358SOL    HW1 9848   5.359   4.171   1.774
69358SOL    HW2 9849   5.329   4.207   1.918
69359SOL     OW 9850   4.652   2.754   0.734
69359SOL    HW1 9851   4.692   2.737   0.819
69359SOL    HW2 9852   4.672   2.845   0.715
69360SOL     OW 9853  13.585   4.802   5.296
69360SOL    HW1 9854  13.608   4.888   5.330
69360SOL    HW2 9855  13.492   4.809   5.274
69361SOL     OW 9856  14.091   0.468   7.676
69361SOL    HW1 9857  14.182   0.450   7.653
69361SOL    HW2 9858  14.096   0.541   7.738
69362SOL     OW 9859   1.344  10.197  10.437
69362SOL    HW1 9860   1.399  10.246  10.498
69362SOL    HW2 9861   1.254  10.218  10.464
69363SOL     OW 9862  10.563  11.514   9.330
69363SOL    HW1 9863  10.613  11.564   9.394
69363SOL    HW2 9864  10.575  11.423   9.356
69364SOL     OW 9865   3.178  13.323   5.769
69364SOL    HW1 9866   3.226  13.391   5.816
69364SOL    HW2 9867   3.197  13.338   5.677
69365SOL     OW 9868  11.225   3.829  10.887
69365SOL    HW1 9869  11.185   3.866  10.966
69365SOL    HW2 9870  11.189   3.882  10.816
69366SOL     OW 9871   5.673  10.390   6.601
69366SOL    HW1 9872   5.580  10.404   6.616
69366SOL    HW2 9873   5.678  10.334   6.524
69367SOL     OW 9874  12.750  10.989  11.788
69367SOL    HW1 9875  12.773  11.064  11.734
69367SOL    HW2 9876  12.832  10.963  11.830
69368SOL     OW 9877  13.135   9.562   3.160
69368SOL    HW1 9878  13.209   9.519   3.202
69368SOL    HW2 9879  13.173   9.640   3.118
69369SOL     OW 9880   5.142   8.229   3.358
69369SOL    HW1 9881   5.067   8.246   3.416
69369SOL    HW2 9882   5.102   8.203   3.275
69370SOL     OW 9883   1.353   5.746  10.918
69370SOL    HW1 9884   1.442   5.726  10.890
69370SOL    HW2 9885   1.331   5.827  10.873
69371SOL     OW 9886  14.664   6.662   3.891
69371SOL    HW1 9887  14.625   6.623   3.813
69371SOL    HW2 9888  14.593   6.663   3.956
69372SOL     OW 9889   7.354  13.321   2.312
69372SOL    HW1 9890   7.388  13.235   2.286
69372SOL    HW2 9891   7.267  13.326   2.272
69373SOL     OW 9892  13.210   3.364   8.206
69373SOL    HW1 9893  13.272   3.307   8.253
69373SOL    HW2 9894  13.210   3.446   8.256
69374SOL     OW 9895   4.585  13.088  12.941
69374SOL    HW1 9896   4.498  13.060  12.913
69374SOL    HW2 9897   4.643  13.061  12.870
69375SOL     OW 9898   8.610  11.249   9.793
69375SOL    HW1 9899   8.601  11.162   9.753
69375SOL    HW2 9900   8.693  11.244   9.842
69376SOL     OW 9901  14.321   9.479   1.820
69376SOL    HW1 9902  14.238   9.518   1.794
69376SOL    HW2 9903  14.362   9.451   1.738
69377SOL     OW 9904   7.475  14.348  12.346
69377SOL    HW1 9905   7.430  14.412  12.291
69377SOL    HW2 9906   7.555  14.392  12.373
69378SOL     OW 9907   1.792   9.002   5.643
69378SOL    HW1 9908   1.741   9.033   5.568
69378SOL    HW2 9909   1.863   8.951   5.606
69379SOL     OW 9910   6.119   3.365  11.745
69379SOL    HW1 9911   6.193   3.305  11.752
69379SOL    HW2 9912   6.056   3.332  11.809
69380SOL     OW 9913   3.520   0.433  11.429
69380SOL    HW1 9914   3.493   0.343  11.411
69380SOL    HW2 9915   3.612   0.437  11.401
69381SOL     OW 9916   8.206   5.360   3.933
69381SOL    HW1 9917   8.141   5.430   3.924
69381SOL    HW2 9918   8.243   5.372   4.020
69382SOL     OW 9919  11.949   2.292   1.431
69382SOL    HW1 9920  11.944   2.277   1.337
69382SOL    HW2 9921  12.015   2.230   1.462
69383SOL     OW 9922   7.691   3.666   8.769
69383SOL    HW1 9923   7.626   3.606   8.806
69383SOL    HW2 9924   7.692   3.740   8.830
69384SOL     OW 9925   5.362   9.511  14.613
69384SOL    HW1 9926   5.302   9.570  14.659
69384SOL    HW2 9927   5.431   9.568  14.580
69385SOL     OW 9928  14.101   1.436   6.907
69385SOL    HW1 9929  14.046   1.374   6.859
69385SOL    HW2 9930  14.184   1.434   6.861
69386SOL     OW 9931   0.906   6.679   5.475
69386SOL    HW1 9932   0.878   6.690   5.566
69386SOL    HW2 9933   1.001   6.690   5.479
69387SOL     OW 9934  13.917   9.292   6.724
69387SOL    HW1 9935  13.893   9.343   6.647
69387SOL    HW2 9936  13.930   9.358   6.793
69388SOL     OW 9937   2.185   1.247  11.631
69388SOL    HW1 9938   2.124   1.314  11.663
69388SOL    HW2 9939   2.236   1.223  11.708
69389SOL     OW 9940   0.117   0.556   0.006
69389SOL    HW1 9941   0.199   0.553   0.055
69389SOL    HW2 9942   0.049   0.540   0.072
69390SOL     OW 9943   2.847   1.686   7.460
69390SOL    HW1 9944   2.923   1.629   7.452
69390SOL    HW2 9945   2.842   1.732   7.376
69391SOL     OW 9946   0.659   6.284   3.509
69391SOL    HW1 9947   0.637   6.201   3.550
69391SOL    HW2 9948   0.582   6.306   3.456
69392SOL     OW 9949   2.319  11.870   2.628
69392SOL    HW1 9950   2.340  11.859   2.721
69392SOL    HW2 9951   2.402  11.855   2.583
69393SOL     OW 9952   5.190   7.294   9.744
69393SOL    HW1 9953   5.129   7.364   9.767
69393SOL    HW2 9954   5.152   7.255   9.665
69394SOL     OW 9955   4.375  10.369  10.821
69394SOL    HW1 9956   4.444  10.383  10.886
69394SOL    HW2 9957   4.301  10.334  10.870
69395SOL     OW 9958   6.657   5.279  12.029
69395SOL    HW1 9959   6.745   5.302  11.999
69395SOL    HW2 9960   6.643   5.189  11.998
69396SOL     OW 9961   1.536   8.742  10.093
69396SOL    HW1 9962   1.484   8.822  10.084
69396SOL    HW2 9963   1.482   8.683  10.146
69397SOL     OW 9964  10.827  10.370   3.471
69397SOL    HW1 9965  10.800  10.279   3.462
69397SOL    HW2 9966  10.811  10.409   3.385
69398SOL     OW 9967  11.469   1.919   6.410
69398SOL    HW1 9968  11.544   1.924   6.469
69398SOL    HW2 9969  11.398   1.962   6.457
69399SOL     OW 9970  13.648   2.331   3.019
69399SOL    HW1 9971  13.648   2.267   3.090
69399SOL    HW2 9972  13.733   2.320   2.977
69400SOL     OW 9973  14.759   9.506  11.869
69400SOL    HW1 9974  14.754   9.573  11.937
69400SOL    HW2 9975  14.761   9.555  11.787
69401SOL     OW 9976  11.462   8.960   6.196
69401SOL    HW1 9977  11.505   8.930   6.116
69401SOL    HW2 9978  11.390   9.015   6.166
69402SOL     OW 9979  10.711   1.467   8.335
69402SOL    HW1 9980  10.789   1.463   8.391
69402SOL    HW2 9981  10.715   1.386   8.285
69403SOL     OW 9982   9.014   2.129   7.204
69403SOL    HW1 9983   9.004   2.142   7.110
69403SOL    HW2 9984   9.067   2.203   7.233
69404SOL     OW 9985  13.426  10.745   2.188
69404SOL    HW1 9986  13.458  10.821   2.237
69404SOL    HW2 9987  13.499  10.682   2.191
69405SOL     OW 9988   5.013   5.420   8.891
69405SOL    HW1 9989   5.054   5.425   8.978
69405SOL    HW2 9990   5.060   5.485   8.839
69406SOL     OW 9991  13.948  10.320  14.495
69406SOL    HW1 9992  14.030  10.355  14.459
69406SOL    HW2 9993  13.893  10.304  14.419
69407SOL     OW 9994   3.948   3.655   6.041
69407SOL    HW1 9995   3.973   3.700   6.122
69407SOL    HW2 9996   3.861   3.619   6.059
69408SOL     OW 9997  12.268  12.091  12.925
69408SOL    HW1 9998  12.262  12.047  12.841
69408SOL    HW2 9999  12.335  12.042  12.973
69409SOL     OW10000   9.298   7.295   6.875
69409SOL    HW110001   9.269   7.220   6.926
69409SOL    HW210002   9.373   7.330   6.924
69410SOL     OW10003   9.783   9.262   0.000
69410SOL    HW110004   9.705   9.241   0.051
69410SOL    HW210005   9.839   9.311   0.061
69411SOL     OW10006  12.788  12.576   3.389
69411SOL    HW110007  12.867  12.556   3.338
69411SOL    HW210008  12.724  12.510   3.361
69412SOL     OW10009  13.084   6.738   2.014
69412SOL    HW110010  13.025   6.798   2.059
69412SOL    HW210011  13.147   6.794   1.970
69413SOL     OW10012  12.306  11.626   5.007
69413SOL    HW110013  12.261  11.542   5.018
69413SOL    HW210014  12.317  11.658   5.096
69414SOL     OW10015   8.764  14.211   3.501
69414SOL    HW110016   8.759  14.121   3.533
69414SOL    HW210017   8.684  14.224   3.451
69415SOL     OW10018   0.831   5.637  11.165
69415SOL    HW110019   0.925   5.620  11.165
69415SOL    HW210020   0.801   5.605  11.251
69416SOL     OW10021   4.223  11.376   0.896
69416SOL    HW110022   4.307  11.421   0.885
69416SOL    HW210023   4.247  11.287   0.922
69417SOL     OW10024   6.832  11.356   6.158
69417SOL    HW110025   6.784  11.279   6.128
69417SOL    HW210026   6.787  11.429   6.116
69418SOL     OW10027  11.714   3.987  12.337
69418SOL    HW110028  11.738   3.943  12.256
69418SOL    HW210029  11.790   3.975  12.394
69419SOL     OW10030   7.140  14.306   1.038
69419SOL    HW110031   7.185  14.233   0.996
69419SOL    HW210032   7.070  14.266   1.089
69420SOL     OW10033   9.809  14.046   5.114
69420SOL    HW110034   9.719  14.028   5.143
69420SOL    HW210035   9.843  13.961   5.087
69421SOL     OW10036  13.700  12.289   2.847
69421SOL    HW110037  13.709  12.369   2.796
69421SOL    HW210038  13.770  12.232   2.816
69422SOL     OW10039   6.410   6.954  10.863
69422SOL    HW110040   6.505   6.952  10.852
69422SOL    HW210041   6.398   6.963  10.958
69423SOL     OW10042  12.788   9.789   3.548
69423SOL    HW110043  12.754   9.700   3.557
69423SOL    HW210044  12.723   9.835   3.496
69424SOL     OW10045   4.420  13.233   9.325
69424SOL    HW110046   4.404  13.154   9.377
69424SOL    HW210047   4.337  13.251   9.282
69425SOL     OW10048   1.329   0.804   8.110
69425SOL    HW110049   1.260   0.758   8.159
69425SOL    HW210050   1.326   0.765   8.023
69426SOL     OW10051  14.425   6.209   2.327
69426SOL    HW110052  14.432   6.193   2.233
69426SOL    HW210053  14.355   6.151   2.357
69427SOL     OW10054  11.763   8.393   7.302
69427SOL    HW110055  11.688   8.387   7.243
69427SOL    HW210056  11.794   8.482   7.293
69428SOL     OW10057  13.059   5.629   0.414
69428SOL    HW110058  13.028   5.671   0.494
69428SOL    HW210059  13.155   5.631   0.422
69429SOL     OW10060   7.983   3.680   8.030
69429SOL    HW110061   7.898   3.635   8.034
69429SOL    HW210062   7.972   3.746   7.961
69430SOL     OW10063   0.439   0.394  12.284
69430SOL    HW110064   0.530   0.387  12.255
69430SOL    HW210065   0.403   0.306  12.271
69431SOL     OW10066  13.915   1.024  12.960
69431SOL    HW110067  13.847   0.961  12.936
69431SOL    HW210068  13.987   0.971  12.994
69432SOL     OW10069   8.557   9.390  10.375
69432SOL    HW110070   8.476   9.423  10.413
69432SOL    HW210071   8.556   9.296  10.396
69433SOL     OW10072   0.019   5.175   2.414
69433SOL    HW110073  14.867   5.258   2.376
69433SOL    HW210074   0.085   5.143   2.352
69434SOL     OW10075  14.024  14.160   9.209
69434SOL    HW110076  14.069  14.204   9.281
69434SOL    HW210077  14.095  14.121   9.157
69435SOL     OW10078   2.237  11.463   7.081
69435SOL    HW110079   2.327  11.481   7.109
69435SOL    HW210080   2.246  11.437   6.989
69436SOL     OW10081   9.376   1.498   8.419
69436SOL    HW110082   9.309   1.440   8.381
69436SOL    HW210083   9.354   1.585   8.387
69437SOL     OW10084  14.574   2.072   4.415
69437SOL    HW110085  14.646   2.134   4.422
69437SOL    HW210086  14.615   1.989   4.390
69438SOL     OW10087   1.289   9.490  14.798
69438SOL    HW110088   1.253   9.563  14.849
69438SOL    HW210089   1.233   9.416  14.821
69439SOL     OW10090   0.520  11.593   9.186
69439SOL    HW110091   0.568  11.530   9.240
69439SOL    HW210092   0.523  11.674   9.236
69440SOL     OW10093   8.530   6.701   6.460
69440SOL    HW110094   8.482   6.766   6.409
69440SOL    HW210095   8.612   6.688   6.412
69441SOL     OW10096  12.221   1.641   8.693
69441SOL    HW110097  12.209   1.733   8.669
69441SOL    HW210098  12.141   1.618   8.740
69442SOL     OW10099   8.307   2.915   5.913
69442SOL    HW110100   8.214   2.918   5.891
69442SOL    HW210101   8.345   2.988   5.865
69443SOL     OW10102  11.803   5.887  14.159
69443SOL    HW110103  11.765   5.835  14.088
69443SOL    HW210104  11.751   5.967  14.161
69444SOL     OW10105   0.678   4.020   7.731
69444SOL    HW110106   0.653   4.089   7.793
69444SOL    HW210107   0.759   4.053   7.690
69445SOL     OW10108  11.037   7.343   1.942
69445SOL    HW110109  10.966   7.368   1.882
69445SOL    HW210110  10.992   7.318   2.023
69446SOL     OW10111  13.296  10.695   5.146
69446SOL    HW110112  13.300  10.780   5.189
69446SOL    HW210113  13.324  10.633   5.214
69447SOL     OW10114   5.355   1.291  11.424
69447SOL    HW110115   5.376   1.206  11.462
69447SOL    HW210116   5.428   1.311  11.365
69448SOL     OW10117   3.029   8.306   8.914
69448SOL    HW110118   3.069   8.227   8.878
69448SOL    HW210119   3.095   8.342   8.974
69449SOL     OW10120   2.151   9.193   4.283
69449SOL    HW110121   2.138   9.135   4.358
69449SOL    HW210122   2.138   9.137   4.207
69450SOL     OW10123   8.133   2.766  14.717
69450SOL    HW110124   8.044   2.734  14.704
69450SOL    HW210125   8.134   2.799  14.807
69451SOL     OW10126   7.915   2.143   8.710
69451SOL    HW110127   7.875   2.160   8.625
69451SOL    HW210128   7.978   2.214   8.722
69452SOL     OW10129  14.517  12.499  10.862
69452SOL    HW110130  14.426  12.500  10.833
69452SOL    HW210131  14.553  12.581  10.829
69453SOL     OW10132  14.792  12.940  12.295
69453SOL    HW110133  14.756  13.027  12.279
69453SOL    HW210134  14.870  12.956  12.347
69454SOL     OW10135  11.305   7.681   6.604
69454SOL    HW110136  11.333   7.600   6.647
69454SOL    HW210137  11.350   7.751   6.653
69455SOL     OW10138   4.135   1.737  13.488
69455SOL    HW110139   4.064   1.708  13.430
69455SOL    HW210140   4.215   1.719  13.439
69456SOL     OW10141  13.570   0.276  11.114
69456SOL    HW110142  13.492   0.225  11.134
69456SOL    HW210143  13.577   0.272  11.018
69457SOL     OW10144   5.181   9.943  14.763
69457SOL    HW110145   5.264   9.978  14.794
69457SOL    HW210146   5.184   9.953  14.668
69458SOL     OW10147   9.701  13.226   4.146
69458SOL    HW110148   9.743  13.156   4.097
69458SOL    HW210149   9.657  13.181   4.219
69459SOL     OW10150   0.827   4.942  10.352
69459SOL    HW110151   0.763   4.934  10.423
69459SOL    HW210152   0.868   4.855  10.348
69460SOL     OW10153   8.826   3.704   6.622
69460SOL    HW110154   8.826   3.638   6.553
69460SOL    HW210155   8.772   3.775   6.587
69461SOL     OW10156  13.867  13.254   6.310
69461SOL    HW110157  13.921  13.279   6.235
69461SOL    HW210158  13.777  13.258   6.277
69462SOL     OW10159  10.578   2.013  13.625
69462SOL    HW110160  10.560   2.080  13.559
69462SOL    HW210161  10.494   1.968  13.635
69463SOL     OW10162   3.677  12.053   8.193
69463SOL    HW110163   3.610  11.998   8.153
69463SOL    HW210164   3.661  12.046   8.287
69464SOL     OW10165  11.106  14.051   4.582
69464SOL    HW110166  11.069  14.003   4.656
69464SOL    HW210167  11.070  14.139   4.589
69465SOL     OW10168   4.501   8.765   7.694
69465SOL    HW110169   4.423   8.720   7.728
69465SOL    HW210170   4.466   8.845   7.654
69466SOL     OW10171   8.621   8.916  14.371
69466SOL    HW110172   8.540   8.947  14.411
69466SOL    HW210173   8.594   8.846  14.312
69467SOL     OW10174   8.531   4.756   7.437
69467SOL    HW110175   8.506   4.802   7.517
69467SOL    HW210176   8.613   4.798   7.411
69468SOL     OW10177   7.136   8.312   3.862
69468SOL    HW110178   7.076   8.278   3.796
69468SOL    HW210179   7.083   8.369   3.918
69469SOL     OW10180  13.185   2.459   9.710
69469SOL    HW110181  13.253   2.397   9.737
69469SOL    HW210182  13.181   2.524   9.780
69470SOL     OW10183  14.561  12.218   0.621
69470SOL    HW110184  14.644  12.176   0.599
69470SOL    HW210185  14.586  12.295   0.673
69471SOL     OW10186   0.728  12.878   2.153
69471SOL    HW110187   0.787  12.909   2.084
69471SOL    HW210188   0.749  12.786   2.163
69472SOL     OW10189   2.670  10.407  11.067
69472SOL    HW110190   2.659  10.468  10.994
69472SOL    HW210191   2.764  10.387  11.066
69473SOL     OW10192   9.947  14.115   9.985
69473SOL    HW110193   9.895  14.092  10.062
69473SOL    HW210194   9.933  14.210   9.974
69474SOL     OW10195   5.089  11.236   4.973
69474SOL    HW110196   5.177  11.197   4.979
69474SOL    HW210197   5.083  11.293   5.049
69475SOL     OW10198   5.579  14.215   7.056
69475SOL    HW110199   5.540  14.137   7.095
69475SOL    HW210200   5.670  14.213   7.084
69476SOL     OW10201  13.617   3.068  10.224
69476SOL    HW110202  13.571   3.008  10.165
69476SOL    HW210203  13.607   3.154  10.183
69477SOL     OW10204   7.462   5.746   4.582
69477SOL    HW110205   7.386   5.788   4.621
69477SOL    HW210206   7.518   5.818   4.556
69478SOL     OW10207  14.211   9.368   1.343
69478SOL    HW110208  14.184   9.354   1.252
69478SOL    HW210209  14.168   9.296   1.391
69479SOL     OW10210   5.435   7.451   4.916
69479SOL    HW110211   5.470   7.383   4.974
69479SOL    HW210212   5.419   7.526   4.974
69480SOL     OW10213  12.441  11.474   1.576
69480SOL    HW110214  12.482  11.444   1.494
69480SOL    HW210215  12.361  11.518   1.547
69481SOL     OW10216  13.087   6.324   1.359
69481SOL    HW110217  13.132   6.282   1.286
69481SOL    HW210218  13.151   6.388   1.391
69482SOL     OW10219   7.993   3.164   9.885
69482SOL    HW110220   7.961   3.117   9.808
69482SOL    HW210221   8.019   3.095   9.946
69483SOL     OW10222  11.152   1.925   3.159
69483SOL    HW110223  11.146   1.928   3.063
69483SOL    HW210224  11.062   1.925   3.189
69484SOL     OW10225   3.312   5.558   6.184
69484SOL    HW110226   3.396   5.520   6.210
69484SOL    HW210227   3.292   5.621   6.253
69485SOL     OW10228   7.540   2.558   2.116
69485SOL    HW110229   7.549   2.477   2.065
69485SOL    HW210230   7.493   2.532   2.195
69486SOL     OW10231   3.758  13.275  10.832
69486SOL    HW110232   3.736  13.290  10.923
69486SOL    HW210233   3.690  13.215  10.800
69487SOL     OW10234   3.052   1.397  13.320
69487SOL    HW110235   3.021   1.349  13.243
69487SOL    HW210236   3.140   1.363  13.337
69488SOL     OW10237   0.386   4.242  14.150
69488SOL    HW110238   0.428   4.158  14.171
69488SOL    HW210239   0.450   4.308  14.178
69489SOL     OW10240  14.579   7.538  10.984
69489SOL    HW110241  14.499   7.532  10.932
69489SOL    HW210242  14.574   7.464  11.044
69490SOL     OW10243  14.587   3.343   1.508
69490SOL    HW110244  14.636   3.261   1.516
69490SOL    HW210245  14.612   3.394   1.585
69491SOL     OW10246   6.251   4.694   1.165
69491SOL    HW110247   6.254   4.778   1.118
69491SOL    HW210248   6.158   4.679   1.180
69492SOL     OW10249   9.695   5.064   9.819
69492SOL    HW110250   9.761   5.045   9.752
69492SOL    HW210251   9.730   5.139   9.867
69493SOL     OW10252   2.516   1.105  12.618
69493SOL    HW110253   2.424   1.084  12.604
69493SOL    HW210254   2.561   1.067  12.543
69494SOL     OW10255  11.319   8.970   8.985
69494SOL    HW110256  11.228   8.995   8.999
69494SOL    HW210257  11.370   9.043   9.021
69495SOL     OW10258  10.748  13.112  10.126
69495SOL    HW110259  10.756  13.183  10.062
69495SOL    HW210260  10.654  13.109  10.147
69496SOL     OW10261  13.514   4.466   4.000
69496SOL    HW110262  13.536   4.548   3.957
69496SOL    HW210263  13.501   4.489   4.092
69497SOL     OW10264  14.041   1.482   8.627
69497SOL    HW110265  14.025   1.507   8.536
69497SOL    HW210266  14.120   1.428   8.623
69498SOL     OW10267   7.141   8.678   2.917
69498SOL    HW110268   7.233   8.661   2.936
69498SOL    HW210269   7.124   8.631   2.835
69499SOL     OW10270   7.847   8.732  10.335
69499SOL    HW110271   7.816   8.822  10.325
69499SOL    HW210272   7.807   8.701  10.416
69500SOL     OW10273  13.717   6.038  10.836
69500SOL    HW110274  13.759   5.962  10.796
69500SOL    HW210275  13.627   6.037  10.802
69501SOL     OW10276   9.450   9.988   2.637
69501SOL    HW110277   9.418  10.029   2.718
69501SOL    HW210278   9.469  10.062   2.579
69502SOL     OW10279  12.388   7.407  13.070
69502SOL    HW110280  12.391   7.492  13.114
69502SOL    HW210281  12.410   7.425  12.979
69503SOL     OW10282   2.710   7.240   1.250
69503SOL    HW110283   2.697   7.191   1.170
69503SOL    HW210284   2.678   7.182   1.320
69504SOL     OW10285   2.880  12.536   2.761
69504SOL    HW110286   2.852  12.621   2.794
69504SOL    HW210287   2.893  12.549   2.667
69505SOL     OW10288  14.676   7.672   0.776
69505SOL    HW110289  14.614   7.600   0.785
69505SOL    HW210290  14.760   7.635   0.806
69506SOL     OW10291   3.675   4.028  10.018
69506SOL    HW110292   3.716   4.069  10.094
69506SOL    HW210293   3.647   3.942  10.049
69507SOL     OW10294  14.273  10.201   5.498
69507SOL    HW110295  14.199  10.232   5.447
69507SOL    HW210296  14.342  10.185   5.433
69508SOL     OW10297  14.060  12.650  14.246
69508SOL    HW110298  14.014  12.649  14.330
69508SOL    HW210299  14.151  12.665  14.269
69509SOL     OW10300   8.559   0.936   2.340
69509SOL    HW110301   8.646   0.955   2.305
69509SOL    HW210302   8.523   1.021   2.364
69510SOL     OW10303   0.771   4.582   9.221
69510SOL    HW110304   0.771   4.516   9.152
69510SOL    HW210305   0.861   4.615   9.223
69511SOL     OW10306   1.813   1.833   3.482
69511SOL    HW110307   1.897   1.879   3.493
69511SOL    HW210308   1.753   1.877   3.541
69512SOL     OW10309  14.693   0.538  13.326
69512SOL    HW110310  14.633   0.547  13.400
69512SOL    HW210311  14.661   0.461  13.278
69513SOL     OW10312  14.575  13.211  11.546
69513SOL    HW110313  14.591  13.256  11.463
69513SOL    HW210314  14.559  13.281  11.609
69514SOL     OW10315  10.945   6.053   7.125
69514SOL    HW110316  10.855   6.050   7.092
69514SOL    HW210317  10.956   6.143   7.156
69515SOL     OW10318   4.493   3.127  10.232
69515SOL    HW110319   4.524   3.124  10.322
69515SOL    HW210320   4.547   3.193  10.189
69516SOL     OW10321   7.485   1.033   3.993
69516SOL    HW110322   7.551   1.055   4.058
69516SOL    HW210323   7.410   1.003   4.044
69517SOL     OW10324   1.656   1.139   3.986
69517SOL    HW110325   1.731   1.133   3.928
69517SOL    HW210326   1.649   1.232   4.008
69518SOL     OW10327   9.493   2.129  13.349
69518SOL    HW110328   9.437   2.052  13.350
69518SOL    HW210329   9.432   2.203  13.340
69519SOL     OW10330   8.644   8.594  12.069
69519SOL    HW110331   8.737   8.574  12.081
69519SOL    HW210332   8.635   8.613  11.976
69520SOL     OW10333   6.332  11.157   9.888
69520SOL    HW110334   6.400  11.181   9.825
69520SOL    HW210335   6.285  11.084   9.847
69521SOL     OW10336   1.666   9.866   7.827
69521SOL    HW110337   1.662   9.920   7.906
69521SOL    HW210338   1.602   9.797   7.841
69522SOL     OW10339   7.712   3.943   6.665
69522SOL    HW110340   7.626   3.935   6.706
69522SOL    HW210341   7.756   4.012   6.716
69523SOL     OW10342   7.089  13.955   2.976
69523SOL    HW110343   7.106  14.007   2.898
69523SOL    HW210344   7.001  13.919   2.962
69524SOL     OW10345  14.272   6.641   0.455
69524SOL    HW110346  14.224   6.722   0.434
69524SOL    HW210347  14.240   6.616   0.541
69525SOL     OW10348  14.072   2.372   2.508
69525SOL    HW110349  14.013   2.437   2.546
69525SOL    HW210350  14.084   2.401   2.418
69526SOL     OW10351   4.065   7.683   0.559
69526SOL    HW110352   3.984   7.705   0.514
69526SOL    HW210353   4.122   7.648   0.491
69527SOL     OW10354   8.975  12.128   8.835
69527SOL    HW110355   9.051  12.073   8.854
69527SOL    HW210356   9.001  12.216   8.865
69528SOL     OW10357   2.615   7.642   4.353
69528SOL    HW110358   2.699   7.617   4.315
69528SOL    HW210359   2.611   7.737   4.344
69529SOL     OW10360   6.799   9.010   7.184
69529SOL    HW110361   6.873   9.019   7.243
69529SOL    HW210362   6.838   8.993   7.098
69530SOL     OW10363   5.916  11.391   4.254
69530SOL    HW110364   5.954  11.470   4.216
69530SOL    HW210365   5.959  11.319   4.208
69531SOL     OW10366  11.678  12.411   2.946
69531SOL    HW110367  11.761  12.375   2.916
69531SOL    HW210368  11.667  12.378   3.035
69532SOL     OW10369   4.403   0.758   6.022
69532SOL    HW110370   4.444   0.811   5.953
69532SOL    HW210371   4.456   0.775   6.100
69533SOL     OW10372  14.262   9.217   9.454
69533SOL    HW110373  14.285   9.124   9.460
69533SOL    HW210374  14.323   9.252   9.389
69534SOL     OW10375   5.502   2.617  10.157
69534SOL    HW110376   5.499   2.680  10.229
69534SOL    HW210377   5.462   2.662  10.083
69535SOL     OW10378   9.683   6.555   8.462
69535SOL    HW110379   9.659   6.641   8.427
69535SOL    HW210380   9.636   6.548   8.545
69536SOL     OW10381   8.082  10.056  13.632
69536SOL    HW110382   8.173  10.029  13.639
69536SOL    HW210383   8.058  10.083  13.721
69537SOL     OW10384   5.961  14.613   9.735
69537SOL    HW110385   6.010  14.654   9.806
69537SOL    HW210386   5.869  14.616   9.764
69538SOL     OW10387  11.208   6.927  14.345
69538SOL    HW110388  11.200   6.900  14.437
69538SOL    HW210389  11.119   6.953  14.320
69539SOL     OW10390  12.017   0.188  13.766
69539SOL    HW110391  11.954   0.125  13.801
69539SOL    HW210392  11.994   0.271  13.808
69540SOL     OW10393  12.529   0.258  14.504
69540SOL    HW110394  12.435   0.267  14.484
69540SOL    HW210395  12.543   0.164  14.507
69541SOL     OW10396  12.051   5.572  12.569
69541SOL    HW110397  12.026   5.481  12.556
69541SOL    HW210398  11.976   5.623  12.538
69542SOL     OW10399   5.856   5.203   0.985
69542SOL    HW110400   5.943   5.241   1.000
69542SOL    HW210401   5.865   5.153   0.904
69543SOL     OW10402   6.324   8.607   7.617
69543SOL    HW110403   6.390   8.538   7.621
69543SOL    HW210404   6.282   8.596   7.532
69544SOL     OW10405   9.125  11.931   1.189
69544SOL    HW110406   9.085  11.933   1.101
69544SOL    HW210407   9.065  11.876   1.240
69545SOL     OW10408   2.702   5.691   0.396
69545SOL    HW110409   2.712   5.703   0.302
69545SOL    HW210410   2.708   5.779   0.433
69546SOL     OW10411   3.384  14.802   2.161
69546SOL    HW110412   3.302  14.775   2.202
69546SOL    HW210413   3.431  14.721   2.146
69547SOL     OW10414   0.615   5.357  10.314
69547SOL    HW110415   0.549   5.409  10.269
69547SOL    HW210416   0.573   5.333  10.397
69548SOL     OW10417  13.256  14.011  10.171
69548SOL    HW110418  13.332  13.957  10.151
69548SOL    HW210419  13.290  14.083  10.224
69549SOL     OW10420  14.167   8.612   6.430
69549SOL    HW110421  14.187   8.539   6.489
69549SOL    HW210422  14.190   8.690   6.481
69550SOL     OW10423  11.216   4.160  12.262
69550SOL    HW110424  11.294   4.108  12.244
69550SOL    HW210425  11.211   4.222  12.189
69551SOL     OW10426   9.941  12.384   4.205
69551SOL    HW110427  10.024  12.420   4.237
69551SOL    HW210428   9.919  12.314   4.266
69552SOL     OW10429   2.201   0.361   0.487
69552SOL    HW110430   2.246   0.322   0.562
69552SOL    HW210431   2.177   0.287   0.432
69553SOL     OW10432   6.514   1.978   5.217
69553SOL    HW110433   6.445   2.019   5.165
69553SOL    HW210434   6.572   2.050   5.240
69554SOL     OW10435   6.840   0.722   2.803
69554SOL    HW110436   6.906   0.652   2.801
69554SOL    HW210437   6.787   0.702   2.881
69555SOL     OW10438  13.251   6.021   7.904
69555SOL    HW110439  13.246   5.940   7.854
69555SOL    HW210440  13.319   6.005   7.970
69556SOL     OW10441   5.640  10.126   3.223
69556SOL    HW110442   5.585  10.187   3.173
69556SOL    HW210443   5.641  10.046   3.171
69557SOL     OW10444   5.863   7.916   9.156
69557SOL    HW110445   5.832   7.839   9.108
69557SOL    HW210446   5.805   7.987   9.128
69558SOL     OW10447   6.229   8.812   0.309
69558SOL    HW110448   6.179   8.776   0.236
69558SOL    HW210449   6.163   8.852   0.365
69559SOL     OW10450   7.928  14.242   0.133
69559SOL    HW110451   7.843  14.212   0.099
69559SOL    HW210452   7.906  14.315   0.191
69560SOL     OW10453  14.046   1.244   7.621
69560SOL    HW110454  13.972   1.298   7.592
69560SOL    HW210455  14.120   1.277   7.571
69561SOL     OW10456   5.340   6.020   1.526
69561SOL    HW110457   5.244   6.023   1.521
69561SOL    HW210458   5.358   5.966   1.603
69562SOL     OW10459   5.347  14.581  13.047
69562SOL    HW110460   5.394  14.498  13.038
69562SOL    HW210461   5.354  14.602  13.140
69563SOL     OW10462   3.350   5.051   9.590
69563SOL    HW110463   3.274   5.109   9.585
69563SOL    HW210464   3.412   5.086   9.526
69564SOL     OW10465   4.917   1.784   0.644
69564SOL    HW110466   4.837   1.777   0.592
69564SOL    HW210467   4.988   1.767   0.582
69565SOL     OW10468   5.645  12.625   7.436
69565SOL    HW110469   5.712  12.557   7.443
69565SOL    HW210470   5.585  12.607   7.508
69566SOL     OW10471   5.324   9.760   8.549
69566SOL    HW110472   5.282   9.797   8.626
69566SOL    HW210473   5.378   9.689   8.584
69567SOL     OW10474   9.279   5.798   7.368
69567SOL    HW110475   9.374   5.802   7.362
69567SOL    HW210476   9.249   5.881   7.329
69568SOL     OW10477  13.417   6.301   1.597
69568SOL    HW110478  13.421   6.344   1.683
69568SOL    HW210479  13.401   6.209   1.617
69569SOL     OW10480  10.091   4.255   9.436
69569SOL    HW110481  10.171   4.304   9.420
69569SOL    HW210482  10.104   4.215   9.523
69570SOL     OW10483   8.689   2.527   8.712
69570SOL    HW110484   8.681   2.521   8.616
69570SOL    HW210485   8.599   2.514   8.744
69571SOL     OW10486   6.965   5.568   5.159
69571SOL    HW110487   6.961   5.523   5.074
69571SOL    HW210488   6.876   5.566   5.192
69572SOL     OW10489   7.487   8.746   5.194
69572SOL    HW110490   7.527   8.832   5.182
69572SOL    HW210491   7.518   8.695   5.119
69573SOL     OW10492   8.311   3.806   2.618
69573SOL    HW110493   8.335   3.781   2.529
69573SOL    HW210494   8.216   3.812   2.617
69574SOL     OW10495  12.868   2.154   0.322
69574SOL    HW110496  12.803   2.223   0.323
69574SOL    HW210497  12.879   2.129   0.414
69575SOL     OW10498  11.643  13.617   0.898
69575SOL    HW110499  11.550  13.640   0.887
69575SOL    HW210500  11.674  13.675   0.967
69576SOL     OW10501   0.316  14.141  10.800
69576SOL    HW110502   0.396  14.156  10.750
69576SOL    HW210503   0.279  14.061  10.762
69577SOL     OW10504  10.310   5.040  12.257
69577SOL    HW110505  10.313   5.136  12.251
69577SOL    HW210506  10.333   5.021  12.347
69578SOL     OW10507   4.460   8.961   8.122
69578SOL    HW110508   4.448   8.980   8.215
69578SOL    HW210509   4.393   8.896   8.102
69579SOL     OW10510  13.634   2.931   1.557
69579SOL    HW110511  13.707   2.963   1.610
69579SOL    HW210512  13.591   3.011   1.524
69580SOL     OW10513  10.636   6.057  14.685
69580SOL    HW110514  10.684   6.015  14.613
69580SOL    HW210515  10.563   5.998  14.703
69581SOL     OW10516  12.968  14.725   1.035
69581SOL    HW110517  13.031  14.766   0.976
69581SOL    HW210518  12.983  14.767   1.119
69582SOL     OW10519   6.131   1.835  10.680
69582SOL    HW110520   6.222   1.820  10.654
69582SOL    HW210521   6.138   1.893  10.757
69583SOL     OW10522   9.149   5.671   7.813
69583SOL    HW110523   9.104   5.753   7.835
69583SOL    HW210524   9.242   5.692   7.820
69584SOL     OW10525   0.285   0.093   6.657
69584SOL    HW110526   0.263   0.010   6.699
69584SOL    HW210527   0.359   0.126   6.707
69585SOL     OW10528   6.676  11.532  14.841
69585SOL    HW110529   6.590  11.558  14.808
69585SOL    HW210530   6.660  11.450   0.010
69586SOL     OW10531   1.884   2.168   2.191
69586SOL    HW110532   1.905   2.091   2.138
69586SOL    HW210533   1.968   2.200   2.221
69587SOL     OW10534   9.750  10.369   4.400
69587SOL    HW110535   9.670  10.338   4.443
69587SOL    HW210536   9.744  10.335   4.311
69588SOL     OW10537   4.613  12.047   7.926
69588SOL    HW110538   4.647  11.996   7.852
69588SOL    HW210539   4.685  12.049   7.988
69589SOL     OW10540  10.411   0.352   9.419
69589SOL    HW110541  10.495   0.305   9.425
69589SOL    HW210542  10.409   0.385   9.329
69590SOL     OW10543  12.237   6.658   0.969
69590SOL    HW110544  12.187   6.632   1.047
69590SOL    HW210545  12.248   6.577   0.919
69591SOL     OW10546   5.616  14.554   3.286
69591SOL    HW110547   5.587  14.499   3.359
69591SOL    HW210548   5.656  14.630   3.328
69592SOL     OW10549  13.093  13.956  11.193
69592SOL    HW110550  13.054  13.874  11.223
69592SOL    HW210551  13.083  13.955  11.098
69593SOL     OW10552   6.496   5.861   4.807
69593SOL    HW110553   6.482   5.797   4.877
69593SOL    HW210554   6.589   5.882   4.811
69594SOL     OW10555  13.122  13.344  13.683
69594SOL    HW110556  13.181  13.389  13.743
69594SOL    HW210557  13.072  13.414  13.641
69595SOL     OW10558  12.070  14.709   4.619
69595SOL    HW110559  12.144  14.733   4.563
69595SOL    HW210560  12.106  14.644   4.680
69596SOL     OW10561   0.522   4.027  12.545
69596SOL    HW110562   0.457   3.992  12.484
69596SOL    HW210563   0.502   3.984  12.628
69597SOL     OW10564   8.424   6.787  12.026
69597SOL    HW110565   8.448   6.702  12.063
69597SOL    HW210566   8.387   6.835  12.101
69598SOL     OW10567   5.562   1.340   8.747
69598SOL    HW110568   5.639   1.304   8.702
69598SOL    HW210569   5.598   1.408   8.803
69599SOL     OW10570  14.224   0.644  12.540
69599SOL    HW110571  14.286   0.715  12.520
69599SOL    HW210572  14.168   0.679  12.609
69600SOL     OW10573  14.128  14.233   1.119
69600SOL    HW110574  14.136  14.153   1.067
69600SOL    HW210575  14.088  14.297   1.060
69601SOL     OW10576   5.445   7.080   0.571
69601SOL    HW110577   5.527   7.121   0.599
69601SOL    HW210578   5.462   7.050   0.482
69602SOL     OW10579   7.287   0.854  14.776
69602SOL    HW110580   7.224   0.879  14.709
69602SOL    HW210581   7.235   0.844  14.856
69603SOL     OW10582  11.067  11.130   0.938
69603SOL    HW110583  10.980  11.129   0.977
69603SOL    HW210584  11.095  11.222   0.945
69604SOL     OW10585  12.833  10.895   6.806
69604SOL    HW110586  12.875  10.814   6.835
69604SOL    HW210587  12.879  10.919   6.726
69605SOL     OW10588   5.146   0.959   2.830
69605SOL    HW110589   5.147   1.038   2.883
69605SOL    HW210590   5.055   0.951   2.800
69606SOL     OW10591  14.203   7.367   6.730
69606SOL    HW110592  14.288   7.411   6.727
69606SOL    HW210593  14.151   7.419   6.791
69607SOL     OW10594   2.371   9.101  12.798
69607SOL    HW110595   2.342   9.193  12.802
69607SOL    HW210596   2.466   9.106  12.809
69608SOL     OW10597  13.888   3.264   7.097
69608SOL    HW110598  13.933   3.259   7.181
69608SOL    HW210599  13.841   3.347   7.100
69609SOL     OW10600   3.839   2.279   8.605
69609SOL    HW110601   3.916   2.224   8.591
69609SOL    HW210602   3.800   2.286   8.518
69610SOL     OW10603  11.651   3.645   9.003
69610SOL    HW110604  11.673   3.695   8.925
69610SOL    HW210605  11.563   3.673   9.026
69611SOL     OW10606   3.209   4.442   8.055
69611SOL    HW110607   3.150   4.447   7.980
69611SOL    HW210608   3.209   4.530   8.092
69612SOL     OW10609   6.702   3.487   8.847
69612SOL    HW110610   6.655   3.409   8.877
69612SOL    HW210611   6.771   3.454   8.790
69613SOL     OW10612   0.798  13.714   9.349
69613SOL    HW110613   0.878  13.759   9.322
69613SOL    HW210614   0.791  13.732   9.443
69614SOL     OW10615   1.848   4.376   6.665
69614SOL    HW110616   1.910   4.319   6.619
69614SOL    HW210617   1.778   4.390   6.601
69615SOL     OW10618   9.420   2.731   3.330
69615SOL    HW110619   9.499   2.783   3.316
69615SOL    HW210620   9.362   2.754   3.257
69616SOL     OW10621  10.399   2.164   4.525
69616SOL    HW110622  10.331   2.191   4.588
69616SOL    HW210623  10.350   2.144   4.446
69617SOL     OW10624   0.758   2.048   8.371
69617SOL    HW110625   0.813   2.019   8.445
69617SOL    HW210626   0.725   2.133   8.399
69618SOL     OW10627  11.097  11.467   7.924
69618SOL    HW110628  11.046  11.420   7.858
69618SOL    HW210629  11.055  11.553   7.930
69619SOL     OW10630   4.484  14.216   1.534
69619SOL    HW110631   4.462  14.127   1.506
69619SOL    HW210632   4.539  14.250   1.464
69620SOL     OW10633  14.646   6.669  13.099
69620SOL    HW110634  14.615   6.749  13.143
69620SOL    HW210635  14.657   6.606  13.170
69621SOL     OW10636   8.892  10.598   8.322
69621SOL    HW110637   8.985  10.579   8.314
69621SOL    HW210638   8.849  10.534   8.265
69622SOL     OW10639   6.407   9.221   1.447
69622SOL    HW110640   6.429   9.308   1.413
69622SOL    HW210641   6.324   9.200   1.406
69623SOL     OW10642  14.690   4.107   8.850
69623SOL    HW110643  14.749   4.176   8.883
69623SOL    HW210644  14.648   4.073   8.929
69624SOL     OW10645   5.359   5.822   1.721
69624SOL    HW110646   5.267   5.843   1.740
69624SOL    HW210647   5.368   5.731   1.749
69625SOL     OW10648   7.918   1.918   3.538
69625SOL    HW110649   7.872   1.962   3.610
69625SOL    HW210650   7.892   1.827   3.545
69626SOL     OW10651   0.550  13.667  13.862
69626SOL    HW110652   0.550  13.601  13.793
69626SOL    HW210653   0.457  13.689  13.873
69627SOL     OW10654   3.204  13.194   4.160
69627SOL    HW110655   3.225  13.286   4.146
69627SOL    HW210656   3.168  13.164   4.077
69628SOL     OW10657   4.804   4.303   4.951
69628SOL    HW110658   4.809   4.212   4.920
69628SOL    HW210659   4.718   4.310   4.991
69629SOL     OW10660   1.409   5.045   8.414
69629SOL    HW110661   1.444   5.116   8.466
69629SOL    HW210662   1.323   5.076   8.385
69630SOL     OW10663   6.081   5.709   3.478
69630SOL    HW110664   6.080   5.671   3.391
69630SOL    HW210665   6.151   5.774   3.475
69631SOL     OW10666  12.393  10.023  11.505
69631SOL    HW110667  12.376   9.931  11.527
69631SOL    HW210668  12.468  10.021  11.447
69632SOL     OW10669   9.408   6.950   0.580
69632SOL    HW110670   9.449   6.917   0.659
69632SOL    HW210671   9.331   6.895   0.567
69633SOL     OW10672  13.335   4.902   1.224
69633SOL    HW110673  13.424   4.924   1.197
69633SOL    HW210674  13.296   4.861   1.146
69634SOL     OW10675   5.568  13.988   4.932
69634SOL    HW110676   5.651  14.002   4.978
69634SOL    HW210677   5.532  13.909   4.972
69635SOL     OW10678   3.266  12.969  11.503
69635SOL    HW110679   3.354  12.977  11.540
69635SOL    HW210680   3.264  13.033  11.432
69636SOL     OW10681   9.722  14.385  13.313
69636SOL    HW110682   9.772  14.409  13.391
69636SOL    HW210683   9.679  14.303  13.336
69637SOL     OW10684   2.123   5.169  10.311
69637SOL    HW110685   2.032   5.196  10.323
69637SOL    HW210686   2.157   5.156  10.399
69638SOL     OW10687  13.258   3.788   2.377
69638SOL    HW110688  13.166   3.773   2.400
69638SOL    HW210689  13.261   3.881   2.352
69639SOL     OW10690   0.450  12.229   3.225
69639SOL    HW110691   0.361  12.194   3.222
69639SOL    HW210692   0.439  12.320   3.254
69640SOL     OW10693   2.271   5.877   0.646
69640SOL    HW110694   2.228   5.910   0.567
69640SOL    HW210695   2.225   5.796   0.666
69641SOL     OW10696   7.041   5.678   8.051
69641SOL    HW110697   7.001   5.738   7.989
69641SOL    HW210698   6.989   5.689   8.131
69642SOL     OW10699  14.661   8.103   7.606
69642SOL    HW110700  14.653   8.050   7.526
69642SOL    HW210701  14.755   8.118   7.614
69643SOL     OW10702  10.736  10.038  14.849
69643SOL    HW110703  10.760   9.987  14.772
69643SOL    HW210704  10.779  10.122  14.837
69644SOL     OW10705   3.897   0.894   6.432
69644SOL    HW110706   3.877   0.818   6.378
69644SOL    HW210707   3.819   0.905   6.488
69645SOL     OW10708   0.111  14.505  10.015
69645SOL    HW110709   0.065  14.460   9.944
69645SOL    HW210710   0.062  14.586  10.028
69646SOL     OW10711  10.592  12.767   7.651
69646SOL    HW110712  10.684  12.786   7.666
69646SOL    HW210713  10.548  12.789   7.733
69647SOL     OW10714   8.356   0.521   4.218
69647SOL    HW110715   8.385   0.438   4.255
69647SOL    HW210716   8.267   0.504   4.187
69648SOL     OW10717  13.744   8.722   3.613
69648SOL    HW110718  13.677   8.660   3.643
69648SOL    HW210719  13.722   8.738   3.521
69649SOL     OW10720   6.474   9.783   4.285
69649SOL    HW110721   6.499   9.851   4.348
69649SOL    HW210722   6.492   9.822   4.200
69650SOL     OW10723   1.909  12.571   8.409
69650SOL    HW110724   1.972  12.617   8.353
69650SOL    HW210725   1.928  12.603   8.498
69651SOL     OW10726  13.617  14.195   8.642
69651SOL    HW110727  13.566  14.253   8.585
69651SOL    HW210728  13.704  14.193   8.603
69652SOL     OW10729  12.740   1.179  11.656
69652SOL    HW110730  12.679   1.205  11.725
69652SOL    HW210731  12.761   1.088  11.675
69653SOL     OW10732   6.760   2.843   9.524
69653SOL    HW110733   6.812   2.857   9.603
69653SOL    HW210734   6.679   2.801   9.555
69654SOL     OW10735  12.093  11.513  10.849
69654SOL    HW110736  12.090  11.550  10.761
69654SOL    HW210737  12.185  11.515  10.873
69655SOL     OW10738   1.048  12.229  13.355
69655SOL    HW110739   1.088  12.240  13.269
69655SOL    HW210740   0.983  12.299  13.360
69656SOL     OW10741   2.296   1.279  12.897
69656SOL    HW110742   2.240   1.269  12.974
69656SOL    HW210743   2.383   1.298  12.933
69657SOL     OW10744  14.077  11.181   2.993
69657SOL    HW110745  14.080  11.101   3.046
69657SOL    HW210746  14.075  11.252   3.057
69658SOL     OW10747   2.631   0.355  11.680
69658SOL    HW110748   2.598   0.348  11.770
69658SOL    HW210749   2.583   0.289  11.631
69659SOL     OW10750  12.855   9.667   3.061
69659SOL    HW110751  12.922   9.655   2.994
69659SOL    HW210752  12.857   9.761   3.081
69660SOL     OW10753   4.914   7.377  14.858
69660SOL    HW110754   4.885   7.401   0.068
69660SOL    HW210755   4.852   7.420  14.800
69661SOL     OW10756  11.001   1.347   7.447
69661SOL    HW110757  11.043   1.273   7.491
69661SOL    HW210758  10.923   1.365   7.500
69662SOL     OW10759  11.808   6.629   1.019
69662SOL    HW110760  11.891   6.637   0.972
69662SOL    HW210761  11.749   6.589   0.955
69663SOL     OW10762   3.990  14.585   4.656
69663SOL    HW110763   3.904  14.599   4.616
69663SOL    HW210764   4.000  14.657   4.717
69664SOL     OW10765   7.128   8.907   9.608
69664SOL    HW110766   7.200   8.843   9.609
69664SOL    HW210767   7.161   8.979   9.662
69665SOL     OW10768   8.634   6.897   2.010
69665SOL    HW110769   8.720   6.904   2.053
69665SOL    HW210770   8.626   6.979   1.960
69666SOL     OW10771   9.361  14.250   9.659
69666SOL    HW110772   9.426  14.187   9.689
69666SOL    HW210773   9.403  14.296   9.586
69667SOL     OW10774   9.119   4.799  13.203
69667SOL    HW110775   9.042   4.774  13.253
69667SOL    HW210776   9.153   4.716  13.169
69668SOL     OW10777   5.635   9.409  10.862
69668SOL    HW110778   5.549   9.430  10.899
69668SOL    HW210779   5.615   9.372  10.776
69669SOL     OW10780   4.088   2.112   8.923
69669SOL    HW110781   4.019   2.126   8.989
69669SOL    HW210782   4.068   2.026   8.885
69670SOL     OW10783   9.979   5.601   3.635
69670SOL    HW110784  10.043   5.670   3.614
69670SOL    HW210785  10.012   5.561   3.715
69671SOL     OW10786  13.899  13.551  10.596
69671SOL    HW110787  13.827  13.594  10.550
69671SOL    HW210788  13.898  13.461  10.563
69672SOL     OW10789  14.526  13.738   9.059
69672SOL    HW110790  14.537  13.643   9.056
69672SOL    HW210791  14.482  13.755   9.142
69673SOL     OW10792  10.320   9.045   8.747
69673SOL    HW110793  10.347   9.089   8.828
69673SOL    HW210794  10.367   9.092   8.678
69674SOL     OW10795  12.832  11.892   5.291
69674SOL    HW110796  12.747  11.858   5.263
69674SOL    HW210797  12.850  11.846   5.373
69675SOL     OW10798   5.769   3.243   9.002
69675SOL    HW110799   5.855   3.283   8.988
69675SOL    HW210800   5.785   3.149   8.991
69676SOL     OW10801   1.946  13.113  12.271
69676SOL    HW110802   2.039  13.105  12.250
69676SOL    HW210803   1.900  13.074  12.197
69677SOL     OW10804   5.290   9.309  13.510
69677SOL    HW110805   5.259   9.398  13.495
69677SOL    HW210806   5.210   9.257  13.519
69678SOL     OW10807   9.769  12.026   1.219
69678SOL    HW110808   9.675  12.043   1.220
69678SOL    HW210809   9.807  12.104   1.180
69679SOL     OW10810   4.835   0.279  10.491
69679SOL    HW110811   4.766   0.346  10.502
69679SOL    HW210812   4.879   0.277  10.576
69680SOL     OW10813  11.617   4.587  11.743
69680SOL    HW110814  11.642   4.495  11.744
69680SOL    HW210815  11.638   4.617  11.655
69681SOL     OW10816   9.085   2.458   9.202
69681SOL    HW110817   9.049   2.390   9.145
69681SOL    HW210818   9.013   2.520   9.214
69682SOL     OW10819   5.453  13.378   6.456
69682SOL    HW110820   5.381  13.421   6.410
69682SOL    HW210821   5.524  13.442   6.455
69683SOL     OW10822  13.482   3.286   4.523
69683SOL    HW110823  13.445   3.206   4.487
69683SOL    HW210824  13.530   3.326   4.450
69684SOL     OW10825   0.996  12.574  11.826
69684SOL    HW110826   1.040  12.489  11.836
69684SOL    HW210827   0.911  12.553  11.786
69685SOL     OW10828   3.324   3.173  10.352
69685SOL    HW110829   3.259   3.228  10.396
69685SOL    HW210830   3.342   3.103  10.414
69686SOL     OW10831   0.173   1.606   4.146
69686SOL    HW110832   0.079   1.592   4.159
69686SOL    HW210833   0.196   1.549   4.073
69687SOL     OW10834   1.787  13.890   1.097
69687SOL    HW110835   1.703  13.844   1.097
69687SOL    HW210836   1.767  13.975   1.057
69688SOL     OW10837   6.592  13.866  10.498
69688SOL    HW110838   6.505  13.825  10.498
69688SOL    HW210839   6.612  13.878  10.406
69689SOL     OW10840   7.042   5.185   9.649
69689SOL    HW110841   7.130   5.199   9.613
69689SOL    HW210842   7.026   5.261   9.705
69690SOL     OW10843  11.041   6.417   9.213
69690SOL    HW110844  11.098   6.352   9.255
69690SOL    HW210845  11.100   6.467   9.156
69691SOL     OW10846   5.676   4.353   1.218
69691SOL    HW110847   5.687   4.267   1.259
69691SOL    HW210848   5.763   4.375   1.185
69692SOL     OW10849   7.735  11.077   2.699
69692SOL    HW110850   7.643  11.070   2.675
69692SOL    HW210851   7.779  11.101   2.618
69693SOL     OW10852   3.187   7.613  14.130
69693SOL    HW110853   3.158   7.522  14.128
69693SOL    HW210854   3.125   7.660  14.075
69694SOL     OW10855  13.421   6.852   2.167
69694SOL    HW110856  13.393   6.912   2.236
69694SOL    HW210857  13.358   6.864   2.096
69695SOL     OW10858   8.265  14.014  11.555
69695SOL    HW110859   8.225  13.928  11.551
69695SOL    HW210860   8.318  14.020  11.475
69696SOL     OW10861   0.725   0.244   1.103
69696SOL    HW110862   0.724   0.149   1.093
69696SOL    HW210863   0.817   0.268   1.089
69697SOL     OW10864   7.877   6.652   2.473
69697SOL    HW110865   7.969   6.669   2.494
69697SOL    HW210866   7.835   6.639   2.558
69698SOL     OW10867   6.529  13.378  14.287
69698SOL    HW110868   6.477  13.316  14.338
69698SOL    HW210869   6.499  13.366  14.197
69699SOL     OW10870   5.924  12.374   4.829
69699SOL    HW110871   5.942  12.467   4.842
69699SOL    HW210872   5.887  12.369   4.741
69700SOL     OW10873   2.631   9.183  11.009
69700SOL    HW110874   2.718   9.210  11.038
69700SOL    HW210875   2.627   9.089  11.029
69701SOL     OW10876   8.438   7.872   2.471
69701SOL    HW110877   8.522   7.869   2.424
69701SOL    HW210878   8.386   7.803   2.431
69702SOL     OW10879   4.526  13.957  14.817
69702SOL    HW110880   4.561  13.869  14.799
69702SOL    HW210881   4.520  13.998  14.731
69703SOL     OW10882   2.395  14.252  10.185
69703SOL    HW110883   2.383  14.302  10.105
69703SOL    HW210884   2.463  14.188  10.164
69704SOL     OW10885   2.044   5.309   6.836
69704SOL    HW110886   2.032   5.278   6.925
69704SOL    HW210887   2.011   5.399   6.837
69705SOL     OW10888   0.268   8.393   0.315
69705SOL    HW110889   0.361   8.370   0.321
69705SOL    HW210890   0.258   8.471   0.370
69706SOL     OW10891   1.581  12.644   8.689
69706SOL    HW110892   1.646  12.598   8.636
69706SOL    HW210893   1.605  12.624   8.779
69707SOL     OW10894   5.683   5.879   4.534
69707SOL    HW110895   5.734   5.895   4.613
69707SOL    HW210896   5.701   5.954   4.477
69708SOL     OW10897   8.830   0.106  10.241
69708SOL    HW110898   8.762   0.137  10.301
69708SOL    HW210899   8.887   0.182  10.228
69709SOL     OW10900  11.861   6.685   4.548
69709SOL    HW110901  11.944   6.637   4.541
69709SOL    HW210902  11.794   6.616   4.554
69710SOL     OW10903   2.427  14.857   5.654
69710SOL    HW110904   2.521  14.874   5.647
69710SOL    HW210905   2.393   0.050   5.707
69711SOL     OW10906   9.105   2.067   1.620
69711SOL    HW110907   9.130   1.979   1.589
69711SOL    HW210908   9.151   2.127   1.561
69712SOL     OW10909   4.043   1.676  10.538
69712SOL    HW110910   4.001   1.640  10.460
69712SOL    HW210911   4.071   1.764  10.512
69713SOL     OW10912   2.143   3.640  10.409
69713SOL    HW110913   2.072   3.690  10.370
69713SOL    HW210914   2.221   3.695  10.395
69714SOL     OW10915   1.805  13.783  14.871
69714SOL    HW110916   1.718  13.814  14.847
69714SOL    HW210917   1.822  13.710  14.811
69715SOL     OW10918   8.331  12.493   3.172
69715SOL    HW110919   8.316  12.585   3.150
69715SOL    HW210920   8.426  12.483   3.169
69716SOL     OW10921   0.231   3.570   7.820
69716SOL    HW110922   0.247   3.603   7.732
69716SOL    HW210923   0.185   3.642   7.864
69717SOL     OW10924   0.373   9.651  12.849
69717SOL    HW110925   0.418   9.676  12.930
69717SOL    HW210926   0.298   9.711  12.845
69718SOL     OW10927   9.401  13.352  10.124
69718SOL    HW110928   9.389  13.287  10.193
69718SOL    HW210929   9.401  13.436  10.170
69719SOL     OW10930  11.217   6.553  13.508
69719SOL    HW110931  11.150   6.607  13.464
69719SOL    HW210932  11.177   6.528  13.591
69720SOL     OW10933  13.257   6.798   1.016
69720SOL    HW110934  13.262   6.887   0.982
69720SOL    HW210935  13.331   6.753   0.977
69721SOL     OW10936   1.984   8.324   1.523
69721SOL    HW110937   2.042   8.400   1.527
69721SOL    HW210938   2.025   8.260   1.583
69722SOL     OW10939   1.801   3.965  14.170
69722SOL    HW110940   1.740   4.028  14.131
69722SOL    HW210941   1.766   3.949  14.258
69723SOL     OW10942   5.265   1.993   2.551
69723SOL    HW110943   5.305   1.975   2.636
69723SOL    HW210944   5.332   2.042   2.503
69724SOL     OW10945  12.744   1.809   7.951
69724SOL    HW110946  12.748   1.756   7.871
69724SOL    HW210947  12.749   1.900   7.920
69725SOL     OW10948  14.108  12.058  11.626
69725SOL    HW110949  14.095  12.099  11.540
69725SOL    HW210950  14.200  12.077  11.647
69726SOL     OW10951   4.868  11.161   7.416
69726SOL    HW110952   4.832  11.210   7.490
69726SOL    HW210953   4.899  11.229   7.356
69727SOL     OW10954   6.670   0.963   2.500
69727SOL    HW110955   6.634   0.950   2.412
69727SOL    HW210956   6.741   1.026   2.487
69728SOL     OW10957  12.727   8.115  13.324
69728SOL    HW110958  12.762   8.179  13.262
69728SOL    HW210959  12.803   8.063  13.351
69729SOL     OW10960   1.756   3.022  14.775
69729SOL    HW110961   1.802   3.051  14.696
69729SOL    HW210962   1.746   2.928  14.765
69730SOL     OW10963  11.600  14.214  11.630
69730SOL    HW110964  11.674  14.205  11.570
69730SOL    HW210965  11.558  14.296  11.605
69731SOL     OW10966   8.583   6.818   1.147
69731SOL    HW110967   8.597   6.875   1.071
69731SOL    HW210968   8.576   6.730   1.109
69732SOL     OW10969   2.790   9.687   4.174
69732SOL    HW110970   2.799   9.775   4.136
69732SOL    HW210971   2.865   9.680   4.233
69733SOL     OW10972   7.652   7.537   2.384
69733SOL    HW110973   7.740   7.559   2.413
69733SOL    HW210974   7.601   7.617   2.399
69734SOL     OW10975   2.140   0.371   7.150
69734SOL    HW110976   2.222   0.371   7.100
69734SOL    HW210977   2.100   0.455   7.129
69735SOL     OW10978   8.752  10.987   5.886
69735SOL    HW110979   8.697  11.061   5.910
69735SOL    HW210980   8.841  11.014   5.909
69736SOL     OW10981   0.495   3.708   1.134
69736SOL    HW110982   0.512   3.620   1.101
69736SOL    HW210983   0.570   3.727   1.190
69737SOL     OW10984   3.122  12.781   8.731
69737SOL    HW110985   3.188  12.830   8.682
69737SOL    HW210986   3.168  12.706   8.767
69738SOL     OW10987   5.782   9.739   0.040
69738SOL    HW110988   5.743   9.667  14.869
69738SOL    HW210989   5.792   9.809  14.854
69739SOL     OW10990   7.168   3.963   3.108
69739SOL    HW110991   7.134   3.915   3.032
69739SOL    HW210992   7.222   4.033   3.069
69740SOL     OW10993   1.062   1.770  13.109
69740SOL    HW110994   1.049   1.678  13.132
69740SOL    HW210995   1.017   1.818  13.179
69741SOL     OW10996  14.049  12.325  11.909
69741SOL    HW110997  14.076  12.410  11.943
69741SOL    HW210998  14.130  12.275  11.900
69742SOL     OW10999  13.564  13.972  12.282
69742SOL    HW111000  13.535  14.053  12.239
69742SOL    HW211001  13.543  13.985  12.374
69743SOL     OW11002   1.477   4.187   6.876
69743SOL    HW111003   1.397   4.238   6.868
69743SOL    HW211004   1.529   4.212   6.800
69744SOL     OW11005  10.875   8.233  11.958
69744SOL    HW111006  10.930   8.252  12.034
69744SOL    HW211007  10.863   8.318  11.915
69745SOL     OW11008   1.583  13.235  12.815
69745SOL    HW111009   1.555  13.260  12.727
69745SOL    HW211010   1.570  13.314  12.867
69746SOL     OW11011   3.579   9.351   4.508
69746SOL    HW111012   3.527   9.276   4.479
69746SOL    HW211013   3.542   9.374   4.593
69747SOL     OW11014   6.031   3.655   2.527
69747SOL    HW111015   6.110   3.616   2.488
69747SOL    HW211016   6.060   3.686   2.612
69748SOL     OW11017   6.514   9.627   0.745
69748SOL    HW111018   6.422   9.638   0.769
69748SOL    HW211019   6.512   9.601   0.653
69749SOL     OW11020  13.853   9.514   6.545
69749SOL    HW111021  13.869   9.599   6.503
69749SOL    HW211022  13.840   9.454   6.472
69750SOL     OW11023   2.322   5.184   6.969
69750SOL    HW111024   2.263   5.148   6.903
69750SOL    HW211025   2.264   5.216   7.038
69751SOL     OW11026   0.722  14.442  12.104
69751SOL    HW111027   0.746  14.388  12.179
69751SOL    HW211028   0.661  14.388  12.054
69752SOL     OW11029  10.423   7.956   5.308
69752SOL    HW111030  10.389   8.045   5.298
69752SOL    HW211031  10.421   7.919   5.220
69753SOL     OW11032   7.910   1.605  12.582
69753SOL    HW111033   7.877   1.547  12.514
69753SOL    HW211034   7.853   1.681  12.579
69754SOL     OW11035   2.731   0.864  11.958
69754SOL    HW111036   2.714   0.900  11.871
69754SOL    HW211037   2.660   0.898  12.013
69755SOL     OW11038   7.274  10.967   0.829
69755SOL    HW111039   7.367  10.986   0.823
69755SOL    HW211040   7.231  11.050   0.808
69756SOL     OW11041  10.976   1.873   7.023
69756SOL    HW111042  10.929   1.915   6.951
69756SOL    HW211043  11.050   1.930   7.040
69757SOL     OW11044   0.336  11.898   7.586
69757SOL    HW111045   0.251  11.906   7.629
69757SOL    HW211046   0.321  11.926   7.496
69758SOL     OW11047   8.977   2.046   1.113
69758SOL    HW111048   9.002   1.963   1.153
69758SOL    HW211049   9.042   2.109   1.145
69759SOL     OW11050   8.496   9.384  10.749
69759SOL    HW111051   8.425   9.337  10.793
69759SOL    HW211052   8.453   9.428  10.676
69760SOL     OW11053   2.635   5.977   5.608
69760SOL    HW111054   2.597   6.037   5.673
69760SOL    HW211055   2.670   6.034   5.540
69761SOL     OW11056   3.105  13.795   0.332
69761SOL    HW111057   3.078  13.703   0.339
69761SOL    HW211058   3.170  13.796   0.261
69762SOL     OW11059   9.424  11.052   7.050
69762SOL    HW111060   9.485  11.004   6.993
69762SOL    HW211061   9.340  11.049   7.003
69763SOL     OW11062   7.904   4.886   0.936
69763SOL    HW111063   7.867   4.859   1.020
69763SOL    HW211064   7.875   4.977   0.925
69764SOL     OW11065   5.740  14.386  14.240
69764SOL    HW111066   5.733  14.292  14.254
69764SOL    HW211067   5.702  14.425  14.319
69765SOL     OW11068   7.229  10.932  12.337
69765SOL    HW111069   7.229  11.027  12.332
69765SOL    HW211070   7.319  10.909  12.362
69766SOL     OW11071   6.112   0.383  10.489
69766SOL    HW111072   6.096   0.292  10.514
69766SOL    HW211073   6.194   0.406  10.531
69767SOL     OW11074   6.507   8.249  13.425
69767SOL    HW111075   6.449   8.286  13.492
69767SOL    HW211076   6.592   8.241  13.468
69768SOL     OW11077   1.462   2.137  10.830
69768SOL    HW111078   1.472   2.203  10.761
69768SOL    HW211079   1.492   2.181  10.910
69769SOL     OW11080  13.136   3.585   8.321
69769SOL    HW111081  13.063   3.633   8.282
69769SOL    HW211082  13.189   3.652   8.364
69770SOL     OW11083  12.015   5.747   0.608
69770SOL    HW111084  12.073   5.822   0.596
69770SOL    HW211085  12.044   5.684   0.543
69771SOL     OW11086   0.122   9.005  12.220
69771SOL    HW111087   0.038   9.045  12.199
69771SOL    HW211088   0.181   9.078  12.236
69772SOL     OW11089   5.765  14.593   8.340
69772SOL    HW111090   5.763  14.648   8.262
69772SOL    HW211091   5.810  14.514   8.312
69773SOL     OW11092   1.199  12.210   1.212
69773SOL    HW111093   1.207  12.115   1.225
69773SOL    HW211094   1.229  12.249   1.294
69774SOL     OW11095  11.822  14.059   0.109
69774SOL    HW111096  11.837  13.977   0.062
69774SOL    HW211097  11.729  14.078   0.096
69775SOL     OW11098   5.286   3.158   2.749
69775SOL    HW111099   5.350   3.105   2.796
69775SOL    HW211100   5.201   3.123   2.777
69776SOL     OW11101  10.957   4.893   6.941
69776SOL    HW111102  10.919   4.981   6.940
69776SOL    HW211103  10.888   4.837   6.906
69777SOL     OW11104   8.738   9.845   0.607
69777SOL    HW111105   8.731   9.896   0.687
69777SOL    HW211106   8.647   9.831   0.579
69778SOL     OW11107   0.278   1.497  10.201
69778SOL    HW111108   0.193   1.542  10.207
69778SOL    HW211109   0.342   1.565  10.218
69779SOL     OW11110   0.146  13.318   9.654
69779SOL    HW111111   0.130  13.382   9.586
69779SOL    HW211112   0.157  13.370   9.734
69780SOL     OW11113   1.863  13.759   3.040
69780SOL    HW111114   1.784  13.708   3.024
69780SOL    HW211115   1.935  13.696   3.035
69781SOL     OW11116  11.783   8.474  14.309
69781SOL    HW111117  11.819   8.563  14.313
69781SOL    HW211118  11.858   8.417  14.325
69782SOL     OW11119  13.852   9.483   9.921
69782SOL    HW111120  13.871   9.454   9.832
69782SOL    HW211121  13.758   9.469   9.931
69783SOL     OW11122   8.933   6.713   8.687
69783SOL    HW111123   8.997   6.700   8.617
69783SOL    HW211124   8.880   6.787   8.659
69784SOL     OW11125   2.742  12.071   6.815
69784SOL    HW111126   2.752  11.985   6.775
69784SOL    HW211127   2.664  12.063   6.871
69785SOL     OW11128   2.671   6.080   4.934
69785SOL    HW111129   2.703   6.146   4.873
69785SOL    HW211130   2.602   6.035   4.885
69786SOL     OW11131   8.051   7.686  13.342
69786SOL    HW111132   7.975   7.744  13.353
69786SOL    HW211133   8.017   7.599  13.362
69787SOL     OW11134  12.610   5.355   6.095
69787SOL    HW111135  12.613   5.444   6.130
69787SOL    HW211136  12.518   5.342   6.070
69788SOL     OW11137   0.224  13.943  13.797
69788SOL    HW111138   0.316  13.963  13.811
69788SOL    HW211139   0.178  14.024  13.818
69789SOL     OW11140   8.984  11.402   3.440
69789SOL    HW111141   8.946  11.471   3.386
69789SOL    HW211142   9.023  11.448   3.515
69790SOL     OW11143  14.291   3.978   0.608
69790SOL    HW111144  14.308   4.065   0.645
69790SOL    HW211145  14.298   3.919   0.683
69791SOL     OW11146   7.130  13.985  14.009
69791SOL    HW111147   7.122  13.916  13.943
69791SOL    HW211148   7.180  14.054  13.966
69792SOL     OW11149   8.357  10.336   5.013
69792SOL    HW111150   8.342  10.379   4.929
69792SOL    HW211151   8.327  10.246   5.000
69793SOL     OW11152  14.094   3.986  13.300
69793SOL    HW111153  14.135   4.063  13.260
69793SOL    HW211154  14.135   3.980  13.386
69794SOL     OW11155   4.756   9.163   8.561
69794SOL    HW111156   4.716   9.166   8.475
69794SOL    HW211157   4.752   9.070   8.586
69795SOL     OW11158   6.332   1.704  14.121
69795SOL    HW111159   6.349   1.699  14.216
69795SOL    HW211160   6.239   1.724  14.114
69796SOL     OW11161   0.809   1.628  14.618
69796SOL    HW111162   0.897   1.649  14.586
69796SOL    HW211163   0.777   1.561  14.558
69797SOL     OW11164   5.234   2.324   8.877
69797SOL    HW111165   5.204   2.311   8.787
69797SOL    HW211166   5.155   2.350   8.925
69798SOL     OW11167   4.340   4.806   9.924
69798SOL    HW111168   4.378   4.800   9.837
69798SOL    HW211169   4.275   4.735   9.928
69799SOL     OW11170  10.964   7.191   2.157
69799SOL    HW111171  10.950   7.103   2.120
69799SOL    HW211172  11.010   7.176   2.239
69800SOL     OW11173  13.978   0.197   1.095
69800SOL    HW111174  14.044   0.175   1.161
69800SOL    HW211175  14.023   0.189   1.011
69801SOL     OW11176   1.936   1.616  10.583
69801SOL    HW111177   2.006   1.602  10.519
69801SOL    HW211178   1.855   1.608  10.533
69802SOL     OW11179   0.892   5.348   9.628
69802SOL    HW111180   0.926   5.348   9.718
69802SOL    HW211181   0.838   5.427   9.622
69803SOL     OW11182  11.312  10.078   8.621
69803SOL    HW111183  11.303  10.164   8.662
69803SOL    HW211184  11.401  10.078   8.585
69804SOL     OW11185   0.894  13.638   4.857
69804SOL    HW111186   0.877  13.559   4.907
69804SOL    HW211187   0.807  13.675   4.839
69805SOL     OW11188  14.016   1.489  12.047
69805SOL    HW111189  14.023   1.482  12.142
69805SOL    HW211190  13.959   1.564  12.032
69806SOL     OW11191   7.963  13.500   0.954
69806SOL    HW111192   7.995  13.586   0.981
69806SOL    HW211193   8.042  13.453   0.925
69807SOL     OW11194  12.657   5.127  11.224
69807SOL    HW111195  12.626   5.191  11.160
69807SOL    HW211196  12.731   5.170  11.268
69808SOL     OW11197   1.173   4.874   6.089
69808SOL    HW111198   1.089   4.919   6.098
69808SOL    HW211199   1.196   4.883   5.997
69809SOL     OW11200   5.164   5.342  14.212
69809SOL    HW111201   5.237   5.307  14.264
69809SOL    HW211202   5.168   5.437  14.225
69810SOL     OW11203   6.670   4.089   1.949
69810SOL    HW111204   6.763   4.110   1.947
69810SOL    HW211205   6.664   3.998   1.922
69811SOL     OW11206  14.815  10.446   5.714
69811SOL    HW111207  14.759  10.384   5.760
69811SOL    HW211208  14.818  10.415   5.624
69812SOL     OW11209   0.465   2.257   7.646
69812SOL    HW111210   0.481   2.174   7.601
69812SOL    HW211211   0.544   2.270   7.699
69813SOL     OW11212  11.295   8.726   4.770
69813SOL    HW111213  11.208   8.758   4.746
69813SOL    HW211214  11.355   8.794   4.739
69814SOL     OW11215  10.293   3.816   6.337
69814SOL    HW111216  10.308   3.886   6.274
69814SOL    HW211217  10.228   3.760   6.296
69815SOL     OW11218  14.407   0.778   7.075
69815SOL    HW111219  14.427   0.871   7.068
69815SOL    HW211220  14.430   0.742   6.990
69816SOL     OW11221   7.065   8.057   7.941
69816SOL    HW111222   7.148   8.067   7.895
69816SOL    HW211223   7.073   8.113   8.018
69817SOL     OW11224   9.303   1.754  12.676
69817SOL    HW111225   9.296   1.849  12.680
69817SOL    HW211226   9.225   1.726  12.629
69818SOL     OW11227   0.666   3.890   0.032
69818SOL    HW111228   0.632   3.824   0.092
69818SOL    HW211229   0.751   3.914   0.069
69819SOL     OW11230   2.720   9.324   5.061
69819SOL    HW111231   2.755   9.376   4.988
69819SOL    HW211232   2.759   9.364   5.139
69820SOL     OW11233   5.685   6.374  13.204
69820SOL    HW111234   5.671   6.342  13.293
69820SOL    HW211235   5.597   6.396  13.173
69821SOL     OW11236   8.956   2.690   1.686
69821SOL    HW111237   8.862   2.672   1.690
69821SOL    HW211238   8.996   2.605   1.666
69822SOL     OW11239   1.264   6.764   3.803
69822SOL    HW111240   1.279   6.670   3.790
69822SOL    HW211241   1.268   6.776   3.897
69823SOL     OW11242  12.340   3.492  11.659
69823SOL    HW111243  12.405   3.422  11.658
69823SOL    HW211244  12.370   3.553  11.727
69824SOL     OW11245   8.033   1.229   1.627
69824SOL    HW111246   8.091   1.188   1.691
69824SOL    HW211247   8.022   1.319   1.659
69825SOL     OW11248   3.996  14.195   5.055
69825SOL    HW111249   3.919  14.240   5.090
69825SOL    HW211250   4.020  14.245   4.978
69826SOL     OW11251   2.753   5.380   2.981
69826SOL    HW111252   2.728   5.320   2.910
69826SOL    HW211253   2.805   5.326   3.041
69827SOL     OW11254   4.078  11.060   7.758
69827SOL    HW111255   4.092  10.997   7.687
69827SOL    HW211256   4.166  11.081   7.788
69828SOL     OW11257  14.713   9.818   3.959
69828SOL    HW111258  14.663   9.770   3.893
69828SOL    HW211259  14.800   9.828   3.920
69829SOL     OW11260   7.282   5.486  14.627
69829SOL    HW111261   7.239   5.539  14.559
69829SOL    HW211262   7.262   5.532  14.709
69830SOL     OW11263  14.812   5.975   2.958
69830SOL    HW111264  14.873   6.002   3.026
69830SOL    HW211265  14.797   5.882   2.975
69831SOL     OW11266   6.547  11.906   4.294
69831SOL    HW111267   6.587  11.893   4.381
69831SOL    HW211268   6.586  11.987   4.262
69832SOL     OW11269  11.551  12.196   8.508
69832SOL    HW111270  11.484  12.158   8.566
69832SOL    HW211271  11.603  12.253   8.564
69833SOL     OW11272  13.890   3.527   9.325
69833SOL    HW111273  13.959   3.584   9.290
69833SOL    HW211274  13.867   3.567   9.409
69834SOL     OW11275   0.986   3.922   9.433
69834SOL    HW111276   0.930   3.969   9.495
69834SOL    HW211277   0.925   3.893   9.365
69835SOL     OW11278   8.140   8.894  11.188
69835SOL    HW111279   8.121   8.839  11.111
69835SOL    HW211280   8.148   8.832  11.260
69836SOL     OW11281  11.623   6.417   6.338
69836SOL    HW111282  11.537   6.386   6.309
69836SOL    HW211283  11.605   6.460   6.422
69837SOL     OW11284   7.328   2.618   6.119
69837SOL    HW111285   7.359   2.679   6.052
69837SOL    HW211286   7.346   2.662   6.202
69838SOL     OW11287   4.096   3.537   9.689
69838SOL    HW111288   4.103   3.443   9.706
69838SOL    HW211289   4.108   3.546   9.594
69839SOL     OW11290   4.100   6.907   8.789
69839SOL    HW111291   4.136   6.841   8.849
69839SOL    HW211292   4.146   6.892   8.706
69840SOL     OW11293   8.565   5.295   6.130
69840SOL    HW111294   8.536   5.364   6.070
69840SOL    HW211295   8.617   5.341   6.196
69841SOL     OW11296   7.698   5.333   8.404
69841SOL    HW111297   7.605   5.325   8.422
69841SOL    HW211298   7.740   5.311   8.487
69842SOL     OW11299  13.604  13.436   0.196
69842SOL    HW111300  13.508  13.431   0.206
69842SOL    HW211301  13.628  13.352   0.159
69843SOL     OW11302   7.479   9.177  10.102
69843SOL    HW111303   7.516   9.164  10.015
69843SOL    HW211304   7.510   9.263  10.129
69844SOL     OW11305   8.217  11.261   5.872
69844SOL    HW111306   8.166  11.248   5.952
69844SOL    HW211307   8.241  11.354   5.875
69845SOL     OW11308   9.855   9.123   0.444
69845SOL    HW111309   9.802   9.052   0.408
69845SOL    HW211310   9.936   9.081   0.472
69846SOL     OW11311   2.645   4.201  10.766
69846SOL    HW111312   2.589   4.132  10.731
69846SOL    HW211313   2.715   4.154  10.812
69847SOL     OW11314   1.596  12.742   8.060
69847SOL    HW111315   1.566  12.658   8.027
69847SOL    HW211316   1.684  12.752   8.023
69848SOL     OW11317   5.152   5.582  13.209
69848SOL    HW111318   5.246   5.573  13.196
69848SOL    HW211319   5.113   5.552  13.126
69849SOL     OW11320  11.116   2.808   3.148
69849SOL    HW111321  11.107   2.893   3.191
69849SOL    HW211322  11.140   2.830   3.057
69850SOL     OW11323   0.909   0.700   0.343
69850SOL    HW111324   0.973   0.640   0.307
69850SOL    HW211325   0.855   0.647   0.401
69851SOL     OW11326   1.956   7.471   3.674
69851SOL    HW111327   2.035   7.437   3.630
69851SOL    HW211328   1.989   7.523   3.747
69852SOL     OW11329   6.671   6.416  12.407
69852SOL    HW111330   6.643   6.389  12.319
69852SOL    HW211331   6.690   6.509  12.399
69853SOL     OW11332   1.608  14.799   9.582
69853SOL    HW111333   1.685  14.744   9.567
69853SOL    HW211334   1.608  14.861   9.509
69854SOL     OW11335   4.771  11.858  13.147
69854SOL    HW111336   4.772  11.835  13.240
69854SOL    HW211337   4.683  11.835  13.118
69855SOL     OW11338  10.992   5.097  13.099
69855SOL    HW111339  10.947   5.031  13.047
69855SOL    HW211340  10.957   5.180  13.067
69856SOL     OW11341  13.128  10.745   0.759
69856SOL    HW111342  13.177  10.819   0.796
69856SOL    HW211343  13.190  10.673   0.759
69857SOL     OW11344   4.229  10.575  14.016
69857SOL    HW111345   4.278  10.552  14.096
69857SOL    HW211346   4.277  10.532  13.946
69858SOL     OW11347  10.729  11.692   9.449
69858SOL    HW111348  10.710  11.768   9.504
69858SOL    HW211349  10.717  11.723   9.359
69859SOL     OW11350   9.433   4.913   6.189
69859SOL    HW111351   9.478   4.929   6.106
69859SOL    HW211352   9.380   4.991   6.203
69860SOL     OW11353   7.787   3.707   1.034
69860SOL    HW111354   7.764   3.800   1.024
69860SOL    HW211355   7.851   3.691   0.964
69861SOL     OW11356   9.399   3.860   3.138
69861SOL    HW111357   9.354   3.925   3.193
69861SOL    HW211358   9.401   3.899   3.051
69862SOL     OW11359   3.979  11.146   8.988
69862SOL    HW111360   3.954  11.235   9.014
69862SOL    HW211361   4.072  11.153   8.966
69863SOL     OW11362   4.729   5.446  13.346
69863SOL    HW111363   4.704   5.499  13.421
69863SOL    HW211364   4.808   5.400  13.374
69864SOL     OW11365   7.879   6.759   6.698
69864SOL    HW111366   7.868   6.854   6.692
69864SOL    HW211367   7.790   6.725   6.693
69865SOL     OW11368   5.191   7.090   9.096
69865SOL    HW111369   5.119   7.037   9.062
69865SOL    HW211370   5.192   7.071   9.190
69866SOL     OW11371  10.326   8.471  13.273
69866SOL    HW111372  10.287   8.559  13.282
69866SOL    HW211373  10.286   8.435  13.194
69867SOL     OW11374  11.930   5.543   6.160
69867SOL    HW111375  11.940   5.573   6.250
69867SOL    HW211376  11.864   5.474   6.165
69868SOL     OW11377   6.783  14.662   5.268
69868SOL    HW111378   6.701  14.694   5.229
69868SOL    HW211379   6.784  14.569   5.246
69869SOL     OW11380  12.526  14.581  14.589
69869SOL    HW111381  12.612  14.595  14.629
69869SOL    HW211382  12.497  14.496  14.623
69870SOL     OW11383   7.152   3.619   9.010
69870SOL    HW111384   7.217   3.628   9.080
69870SOL    HW211385   7.201   3.579   8.938
69871SOL     OW11386  12.366   2.326   7.242
69871SOL    HW111387  12.317   2.274   7.305
69871SOL    HW211388  12.312   2.325   7.163
69872SOL     OW11389   6.651  13.185   2.954
69872SOL    HW111390   6.731  13.132   2.960
69872SOL    HW211391   6.582  13.123   2.934
69873SOL     OW11392   2.890   6.828  13.156
69873SOL    HW111393   2.915   6.899  13.097
69873SOL    HW211394   2.795   6.827  13.153
69874SOL     OW11395  11.187  12.769   3.269
69874SOL    HW111396  11.274  12.732   3.253
69874SOL    HW211397  11.203  12.838   3.334
69875SOL     OW11398   0.981   7.184   4.083
69875SOL    HW111399   0.986   7.125   4.008
69875SOL    HW211400   0.893   7.170   4.119
69876SOL     OW11401   0.222   3.861   1.666
69876SOL    HW111402   0.223   3.811   1.585
69876SOL    HW211403   0.297   3.919   1.659
69877SOL     OW11404   9.614   1.671   4.908
69877SOL    HW111405   9.652   1.611   4.973
69877SOL    HW211406   9.562   1.732   4.960
69878SOL     OW11407   8.320   4.200   1.583
69878SOL    HW111408   8.373   4.201   1.503
69878SOL    HW211409   8.321   4.109   1.612
69879SOL     OW11410  10.285   2.562  10.870
69879SOL    HW111411  10.310   2.573  10.962
69879SOL    HW211412  10.314   2.643  10.828
69880SOL     OW11413   2.074   8.705   9.114
69880SOL    HW111414   2.132   8.708   9.038
69880SOL    HW211415   2.094   8.785   9.163
69881SOL     OW11416  13.703   7.346   7.358
69881SOL    HW111417  13.639   7.276   7.351
69881SOL    HW211418  13.755   7.324   7.436
69882SOL     OW11419   7.946   8.554  11.336
69882SOL    HW111420   7.891   8.547  11.258
69882SOL    HW211421   7.898   8.613  11.394
69883SOL     OW11422  14.427   1.529   2.015
69883SOL    HW111423  14.389   1.482   1.940
69883SOL    HW211424  14.420   1.467   2.087
69884SOL     OW11425   5.167   4.891   6.299
69884SOL    HW111426   5.170   4.870   6.393
69884SOL    HW211427   5.200   4.812   6.256
69885SOL     OW11428   9.856   6.081  14.048
69885SOL    HW111429   9.799   6.142  14.095
69885SOL    HW211430   9.894   6.134  13.978
69886SOL     OW11431  10.389   0.946   1.010
69886SOL    HW111432  10.341   0.885   1.066
69886SOL    HW211433  10.473   0.958   1.054
69887SOL     OW11434  13.009  13.034   0.229
69887SOL    HW111435  12.975  12.996   0.310
69887SOL    HW211436  12.956  13.112   0.215
69888SOL     OW11437   5.681   0.668   6.667
69888SOL    HW111438   5.597   0.630   6.692
69888SOL    HW211439   5.662   0.761   6.653
69889SOL     OW11440   3.901   8.864  11.010
69889SOL    HW111441   3.832   8.922  11.040
69889SOL    HW211442   3.981   8.900  11.047
69890SOL     OW11443   8.643   9.627   4.308
69890SOL    HW111444   8.603   9.540   4.307
69890SOL    HW211445   8.737   9.609   4.306
69891SOL     OW11446  12.384   4.180  13.048
69891SOL    HW111447  12.418   4.121  12.980
69891SOL    HW211448  12.360   4.122  13.120
69892SOL     OW11449   2.502  10.272  10.018
69892SOL    HW111450   2.558  10.349  10.009
69892SOL    HW211451   2.521  10.220   9.941
69893SOL     OW11452   5.584  10.490   0.958
69893SOL    HW111453   5.616  10.488   1.048
69893SOL    HW211454   5.607  10.577   0.926
69894SOL     OW11455   2.175   9.046   4.534
69894SOL    HW111456   2.262   9.005   4.529
69894SOL    HW211457   2.183   9.110   4.605
69895SOL     OW11458   9.432  13.467   2.013
69895SOL    HW111459   9.360  13.434   2.067
69895SOL    HW211460   9.509  13.421   2.046
69896SOL     OW11461  11.496   4.663   8.105
69896SOL    HW111462  11.410   4.703   8.113
69896SOL    HW211463  11.558   4.736   8.105
69897SOL     OW11464  12.619  13.245  13.556
69897SOL    HW111465  12.674  13.311  13.515
69897SOL    HW211466  12.589  13.190  13.484
69898SOL     OW11467   1.727   8.283  14.534
69898SOL    HW111468   1.815   8.281  14.496
69898SOL    HW211469   1.735   8.343  14.608
69899SOL     OW11470   8.495   7.226   1.210
69899SOL    HW111471   8.464   7.144   1.248
69899SOL    HW211472   8.448   7.294   1.258
69900SOL     OW11473   5.578   4.490  13.928
69900SOL    HW111474   5.599   4.534  13.845
69900SOL    HW211475   5.663   4.479  13.971
69901SOL     OW11476   7.458   9.764   6.617
69901SOL    HW111477   7.530   9.752   6.555
69901SOL    HW211478   7.495   9.741   6.702
69902SOL     OW11479   9.325   6.269  10.731
69902SOL    HW111480   9.235   6.297  10.712
69902SOL    HW211481   9.343   6.202  10.665
69903SOL     OW11482   4.384   4.169   7.331
69903SOL    HW111483   4.442   4.108   7.286
69903SOL    HW211484   4.374   4.132   7.419
69904SOL     OW11485   8.621   6.989   7.263
69904SOL    HW111486   8.630   6.899   7.232
69904SOL    HW211487   8.704   7.008   7.307
69905SOL     OW11488   7.678  13.193  13.407
69905SOL    HW111489   7.734  13.237  13.470
69905SOL    HW211490   7.679  13.101  13.435
69906SOL     OW11491   8.102   1.727  12.844
69906SOL    HW111492   8.065   1.748  12.930
69906SOL    HW211493   8.185   1.683  12.865
69907SOL     OW11494   8.333  14.789   5.138
69907SOL    HW111495   8.391  14.801   5.063
69907SOL    HW211496   8.365  14.851   5.203
69908SOL     OW11497   2.721  11.984   2.897
69908SOL    HW111498   2.775  11.912   2.865
69908SOL    HW211499   2.748  11.996   2.988
69909SOL     OW11500   7.349   5.394   8.075
69909SOL    HW111501   7.424   5.360   8.026
69909SOL    HW211502   7.273   5.370   8.021
69910SOL     OW11503  12.166   8.484   8.919
69910SOL    HW111504  12.149   8.426   8.845
69910SOL    HW211505  12.200   8.427   8.988
69911SOL     OW11506   3.763   0.411   6.042
69911SOL    HW111507   3.708   0.342   6.078
69911SOL    HW211508   3.706   0.488   6.040
69912SOL     OW11509   6.119   7.615   8.883
69912SOL    HW111510   6.063   7.682   8.844
69912SOL    HW211511   6.068   7.582   8.958
69913SOL     OW11512   3.000   5.747  12.003
69913SOL    HW111513   2.995   5.780  11.914
69913SOL    HW211514   3.085   5.703  12.008
69914SOL     OW11515   4.318   7.505   9.375
69914SOL    HW111516   4.397   7.539   9.417
69914SOL    HW211517   4.340   7.501   9.282
69915SOL     OW11518   5.048   8.866   8.109
69915SOL    HW111519   5.073   8.910   8.029
69915SOL    HW211520   4.967   8.909   8.137
69916SOL     OW11521   6.070   9.257   3.767
69916SOL    HW111522   6.079   9.225   3.857
69916SOL    HW211523   6.017   9.336   3.775
69917SOL     OW11524   0.271  10.459  10.499
69917SOL    HW111525   0.271  10.554  10.510
69917SOL    HW211526   0.238  10.444  10.410
69918SOL     OW11527  11.304   7.580  14.343
69918SOL    HW111528  11.361   7.573  14.420
69918SOL    HW211529  11.284   7.673  14.337
69919SOL     OW11530   6.348   9.782   3.921
69919SOL    HW111531   6.320   9.717   3.987
69919SOL    HW211532   6.437   9.806   3.947
69920SOL     OW11533   6.936   5.367   8.961
69920SOL    HW111534   6.957   5.398   9.049
69920SOL    HW211535   7.014   5.389   8.909
69921SOL     OW11536  10.159  13.153   1.750
69921SOL    HW111537  10.067  13.174   1.732
69921SOL    HW211538  10.160  13.131   1.843
69922SOL     OW11539   3.672   8.212   4.460
69922SOL    HW111540   3.644   8.297   4.427
69922SOL    HW211541   3.664   8.220   4.555
69923SOL     OW11542   6.037   4.605   9.826
69923SOL    HW111543   5.994   4.521   9.810
69923SOL    HW211544   6.048   4.642   9.739
69924SOL     OW11545   6.850   3.694   8.563
69924SOL    HW111546   6.823   3.611   8.602
69924SOL    HW211547   6.944   3.700   8.582
69925SOL     OW11548   5.157   1.588   3.931
69925SOL    HW111549   5.071   1.579   3.972
69925SOL    HW211550   5.153   1.532   3.854
69926SOL     OW11551   4.770   8.351   1.340
69926SOL    HW111552   4.690   8.393   1.309
69926SOL    HW211553   4.755   8.258   1.327
69927SOL     OW11554  12.459  12.248   8.570
69927SOL    HW111555  12.548  12.281   8.579
69927SOL    HW211556  12.415  12.313   8.515
69928SOL     OW11557   1.013   4.740  10.853
69928SOL    HW111558   1.033   4.832  10.837
69928SOL    HW211559   0.940   4.722  10.795
69929SOL     OW11560   2.171  14.685   0.728
69929SOL    HW111561   2.107  14.707   0.796
69929SOL    HW211562   2.199  14.770   0.694
69930SOL     OW11563  12.441   4.350   5.394
69930SOL    HW111564  12.476   4.426   5.347
69930SOL    HW211565  12.511   4.285   5.391
69931SOL     OW11566   7.306  13.576   4.313
69931SOL    HW111567   7.339  13.648   4.260
69931SOL    HW211568   7.345  13.590   4.400
69932SOL     OW11569   5.112   8.888   4.394
69932SOL    HW111570   5.164   8.968   4.396
69932SOL    HW211571   5.024   8.917   4.367
69933SOL     OW11572  12.675  10.901   9.747
69933SOL    HW111573  12.758  10.947   9.750
69933SOL    HW211574  12.666  10.862   9.834
69934SOL     OW11575   9.583   9.549  11.936
69934SOL    HW111576   9.490   9.543  11.915
69934SOL    HW211577   9.587   9.607  12.012
69935SOL     OW11578   4.953   2.535   2.143
69935SOL    HW111579   5.009   2.465   2.109
69935SOL    HW211580   4.894   2.491   2.204
69936SOL     OW11581  10.549   2.101   5.118
69936SOL    HW111582  10.503   2.174   5.076
69936SOL    HW211583  10.641   2.126   5.116
69937SOL     OW11584  14.157   3.352   6.109
69937SOL    HW111585  14.072   3.389   6.085
69937SOL    HW211586  14.142   3.257   6.113
69938SOL     OW11587  10.056  14.003  13.067
69938SOL    HW111588  10.011  14.042  12.993
69938SOL    HW211589   9.990  13.949  13.110
69939SOL     OW11590  13.969   6.249   8.163
69939SOL    HW111591  13.934   6.201   8.238
69939SOL    HW211592  13.990   6.336   8.198
69940SOL     OW11593   5.373   7.329   9.238
69940SOL    HW111594   5.376   7.292   9.149
69940SOL    HW211595   5.425   7.268   9.291
69941SOL     OW11596   6.821  11.201   1.526
69941SOL    HW111597   6.847  11.292   1.533
69941SOL    HW211598   6.736  11.203   1.481
69942SOL     OW11599  11.959   3.309  11.532
69942SOL    HW111600  11.995   3.381  11.480
69942SOL    HW211601  12.001   3.317  11.618
69943SOL     OW11602   8.510   1.597   8.947
69943SOL    HW111603   8.559   1.602   8.865
69943SOL    HW211604   8.578   1.594   9.015
69944SOL     OW11605   5.421   7.765   0.968
69944SOL    HW111606   5.430   7.845   1.020
69944SOL    HW211607   5.358   7.712   1.016
69945SOL     OW11608   7.912  14.719  12.104
69945SOL    HW111609   7.918  14.807  12.139
69945SOL    HW211610   8.002  14.689  12.097
69946SOL     OW11611   2.842   6.612   7.194
69946SOL    HW111612   2.836   6.518   7.179
69946SOL    HW211613   2.780   6.651   7.132
69947SOL     OW11614   0.286   4.096   3.696
69947SOL    HW111615   0.316   4.033   3.761
69947SOL    HW211616   0.216   4.051   3.650
69948SOL     OW11617  14.583   5.881  10.084
69948SOL    HW111618  14.653   5.831  10.042
69948SOL    HW211619  14.627   5.952  10.128
69949SOL     OW11620  13.613   8.368   4.313
69949SOL    HW111621  13.704   8.365   4.282
69949SOL    HW211622  13.572   8.290   4.275
69950SOL     OW11623  13.844   5.807  10.167
69950SOL    HW111624  13.753   5.835  10.165
69950SOL    HW211625  13.893   5.885  10.195
69951SOL     OW11626   0.116   7.421   7.646
69951SOL    HW111627   0.075   7.473   7.715
69951SOL    HW211628   0.129   7.335   7.685
69952SOL     OW11629   9.129   7.646   6.108
69952SOL    HW111630   9.107   7.719   6.050
69952SOL    HW211631   9.158   7.687   6.189
69953SOL     OW11632   3.701  10.601  10.923
69953SOL    HW111633   3.785  10.606  10.877
69953SOL    HW211634   3.718  10.544  10.998
69954SOL     OW11635   4.207   9.839   7.925
69954SOL    HW111636   4.118   9.808   7.945
69954SOL    HW211637   4.234   9.785   7.851
69955SOL     OW11638  14.222  14.393   6.929
69955SOL    HW111639  14.247  14.302   6.944
69955SOL    HW211640  14.301  14.435   6.896
69956SOL     OW11641  12.614   2.421   2.884
69956SOL    HW111642  12.558   2.465   2.947
69956SOL    HW211643  12.644   2.492   2.826
69957SOL     OW11644  11.438   9.735   0.195
69957SOL    HW111645  11.362   9.679   0.175
69957SOL    HW211646  11.513   9.685   0.165
69958SOL     OW11647   9.697   1.613   7.275
69958SOL    HW111648   9.758   1.594   7.203
69958SOL    HW211649   9.736   1.688   7.319
69959SOL     OW11650   8.904   5.817  13.035
69959SOL    HW111651   8.896   5.885  12.969
69959SOL    HW211652   8.820   5.772  13.035
69960SOL     OW11653   6.505   5.664  11.149
69960SOL    HW111654   6.429   5.613  11.175
69960SOL    HW211655   6.575   5.633  11.206
69961SOL     OW11656   4.306   6.956   1.499
69961SOL    HW111657   4.335   7.023   1.437
69961SOL    HW211658   4.330   6.873   1.457
69962SOL     OW11659   1.338  10.773   1.338
69962SOL    HW111660   1.385  10.691   1.327
69962SOL    HW211661   1.405  10.841   1.329
69963SOL     OW11662  13.322   0.630   9.487
69963SOL    HW111663  13.395   0.647   9.427
69963SOL    HW211664  13.249   0.607   9.430
69964SOL     OW11665  12.234   9.033   4.898
69964SOL    HW111666  12.197   8.970   4.836
69964SOL    HW211667  12.324   9.004   4.910
69965SOL     OW11668  12.426   0.299   1.884
69965SOL    HW111669  12.485   0.240   1.838
69965SOL    HW211670  12.484   0.356   1.936
69966SOL     OW11671  13.039  14.030  10.932
69966SOL    HW111672  13.082  14.109  10.898
69966SOL    HW211673  13.061  13.962  10.869
69967SOL     OW11674  11.390   2.648  11.035
69967SOL    HW111675  11.403   2.562  10.994
69967SOL    HW211676  11.335   2.629  11.112
69968SOL     OW11677   2.980   1.740   9.384
69968SOL    HW111678   3.067   1.729   9.345
69968SOL    HW211679   2.996   1.748   9.478
69969SOL     OW11680   4.539   2.151   5.806
69969SOL    HW111681   4.464   2.171   5.862
69969SOL    HW211682   4.524   2.202   5.727
69970SOL     OW11683   2.084   5.474   3.669
69970SOL    HW111684   2.173   5.495   3.641
69970SOL    HW211685   2.084   5.380   3.683
69971SOL     OW11686   1.855   9.151   4.962
69971SOL    HW111687   1.809   9.069   4.940
69971SOL    HW211688   1.947   9.128   4.959
69972SOL     OW11689   1.001   1.445   3.407
69972SOL    HW111690   1.044   1.466   3.324
69972SOL    HW211691   0.913   1.416   3.382
69973SOL     OW11692  11.239   6.612  12.095
69973SOL    HW111693  11.156   6.579  12.059
69973SOL    HW211694  11.283   6.535  12.130
69974SOL     OW11695   2.334   4.707  13.396
69974SOL    HW111696   2.376   4.789  13.422
69974SOL    HW211697   2.406   4.648  13.375
69975SOL     OW11698   3.592   2.527  11.183
69975SOL    HW111699   3.668   2.517  11.126
69975SOL    HW211700   3.564   2.618  11.170
69976SOL     OW11701   8.352   0.275   5.060
69976SOL    HW111702   8.277   0.228   5.025
69976SOL    HW211703   8.404   0.299   4.983
69977SOL     OW11704   4.023   0.389  10.387
69977SOL    HW111705   4.105   0.372  10.341
69977SOL    HW211706   3.960   0.409  10.318
69978SOL     OW11707   7.090   3.098   6.946
69978SOL    HW111708   7.183   3.107   6.966
69978SOL    HW211709   7.073   3.004   6.952
69979SOL     OW11710   3.692   2.705   9.401
69979SOL    HW111711   3.737   2.771   9.348
69979SOL    HW211712   3.746   2.696   9.479
69980SOL     OW11713   8.386   5.433   1.611
69980SOL    HW111714   8.381   5.512   1.558
69980SOL    HW211715   8.382   5.361   1.548
69981SOL     OW11716  14.419   1.440  12.860
69981SOL    HW111717  14.331   1.458  12.827
69981SOL    HW211718  14.405   1.399  12.945
69982SOL     OW11719   7.698   0.736  10.099
69982SOL    HW111720   7.668   0.767  10.013
69982SOL    HW211721   7.619   0.703  10.142
69983SOL     OW11722  13.819   2.713  12.597
69983SOL    HW111723  13.737   2.743  12.636
69983SOL    HW211724  13.870   2.680  12.671
69984SOL     OW11725   4.143   0.338   9.281
69984SOL    HW111726   4.094   0.258   9.263
69984SOL    HW211727   4.077   0.408   9.275
69985SOL     OW11728  11.508   6.292  11.012
69985SOL    HW111729  11.417   6.311  11.035
69985SOL    HW211730  11.557   6.307  11.093
69986SOL     OW11731   7.099   7.189  10.824
69986SOL    HW111732   7.018   7.218  10.781
69986SOL    HW211733   7.118   7.257  10.888
69987SOL     OW11734   7.734   6.841   3.322
69987SOL    HW111735   7.794   6.906   3.286
69987SOL    HW211736   7.781   6.803   3.396
69988SOL     OW11737   0.708   8.500   4.500
69988SOL    HW111738   0.679   8.433   4.438
69988SOL    HW211739   0.664   8.477   4.582
69989SOL     OW11740  12.322   2.027  14.141
69989SOL    HW111741  12.407   1.994  14.169
69989SOL    HW211742  12.292   1.964  14.075
69990SOL     OW11743  14.426   8.097   7.732
69990SOL    HW111744  14.402   8.011   7.766
69990SOL    HW211745  14.507   8.082   7.684
69991SOL     OW11746  10.235   4.704   9.879
69991SOL    HW111747  10.211   4.672   9.792
69991SOL    HW211748  10.245   4.625   9.932
69992SOL     OW11749  14.250   3.755   5.297
69992SOL    HW111750  14.189   3.686   5.322
69992SOL    HW211751  14.324   3.708   5.259
69993SOL     OW11752   0.939  12.555  10.358
69993SOL    HW111753   0.980  12.566  10.444
69993SOL    HW211754   0.926  12.645  10.326
69994SOL     OW11755   3.357   0.097  12.586
69994SOL    HW111756   3.431   0.038  12.603
69994SOL    HW211757   3.353   0.153  12.664
69995SOL     OW11758  14.213   2.420   8.577
69995SOL    HW111759  14.218   2.330   8.546
69995SOL    HW211760  14.210   2.473   8.497
69996SOL     OW11761   4.559   0.877   3.510
69996SOL    HW111762   4.648   0.846   3.496
69996SOL    HW211763   4.506   0.797   3.506
69997SOL     OW11764   7.754  10.708   1.311
69997SOL    HW111765   7.836  10.755   1.328
69997SOL    HW211766   7.781  10.627   1.268
69998SOL     OW11767  10.625   0.573   0.056
69998SOL    HW111768  10.569   0.631   0.106
69998SOL    HW211769  10.708   0.620   0.048
69999SOL     OW11770   8.689   1.360   8.287
69999SOL    HW111771   8.666   1.449   8.258
69999SOL    HW211772   8.739   1.374   8.368
70000SOL     OW11773  14.359   7.086   6.849
70000SOL    HW111774  14.291   7.154   6.850
70000SOL    HW211775  14.357   7.051   6.760
70001SOL     OW11776   1.764   3.665   2.401
70001SOL    HW111777   1.682   3.713   2.405
70001SOL    HW211778   1.808   3.698   2.323
70002SOL     OW11779   0.060   5.135   0.986
70002SOL    HW111780   0.122   5.069   0.956
70002SOL    HW211781   0.108   5.186   1.051
70003SOL     OW11782   2.914   1.218   1.675
70003SOL    HW111783   3.005   1.213   1.705
70003SOL    HW211784   2.872   1.140   1.713
70004SOL     OW11785   2.258   2.257  10.592
70004SOL    HW111786   2.244   2.349  10.616
70004SOL    HW211787   2.351   2.252  10.570
70005SOL     OW11788   8.857   3.893   3.899
70005SOL    HW111789   8.877   3.952   3.826
70005SOL    HW211790   8.781   3.842   3.869
70006SOL     OW11791   8.214   4.718   0.094
70006SOL    HW111792   8.266   4.780   0.146
70006SOL    HW211793   8.243   4.632   0.124
70007SOL     OW11794   7.607  10.162  11.786
70007SOL    HW111795   7.611  10.202  11.873
70007SOL    HW211796   7.536  10.099  11.792
70008SOL     OW11797   7.919   7.745   6.149
70008SOL    HW111798   7.910   7.723   6.057
70008SOL    HW211799   7.871   7.827   6.160
70009SOL     OW11800   5.219   5.501   9.304
70009SOL    HW111801   5.238   5.439   9.234
70009SOL    HW211802   5.125   5.490   9.321
70010SOL     OW11803   2.424  11.777   5.927
70010SOL    HW111804   2.351  11.793   5.867
70010SOL    HW211805   2.403  11.692   5.967
70011SOL     OW11806   6.734   5.567  11.371
70011SOL    HW111807   6.736   5.511  11.449
70011SOL    HW211808   6.777   5.515  11.303
70012SOL     OW11809  11.113   8.573   2.508
70012SOL    HW111810  11.130   8.525   2.589
70012SOL    HW211811  11.048   8.639   2.532
70013SOL     OW11812   4.068   1.673  14.098
70013SOL    HW111813   4.061   1.638  14.009
70013SOL    HW211814   4.137   1.621  14.139
70014SOL     OW11815  13.912  12.114   1.723
70014SOL    HW111816  13.920  12.034   1.775
70014SOL    HW211817  13.865  12.175   1.780
70015SOL     OW11818   0.671   2.655   2.963
70015SOL    HW111819   0.656   2.724   3.028
70015SOL    HW211820   0.743   2.688   2.909
70016SOL     OW11821   3.532  13.924  10.869
70016SOL    HW111822   3.608  13.977  10.893
70016SOL    HW211823   3.485  13.976  10.804
70017SOL     OW11824   1.538   3.925  11.332
70017SOL    HW111825   1.569   3.847  11.376
70017SOL    HW211826   1.452   3.943  11.371
70018SOL     OW11827  10.421   1.708   3.569
70018SOL    HW111828  10.483   1.697   3.497
70018SOL    HW211829  10.462   1.664   3.644
70019SOL     OW11830   9.877  11.009  14.451
70019SOL    HW111831   9.879  10.924  14.407
70019SOL    HW211832   9.917  11.069  14.389
70020SOL     OW11833  11.334   1.377   7.113
70020SOL    HW111834  11.252   1.369   7.162
70020SOL    HW211835  11.373   1.290   7.118
70021SOL     OW11836  12.125  10.958   8.408
70021SOL    HW111837  12.070  10.994   8.337
70021SOL    HW211838  12.120  11.023   8.477
70022SOL     OW11839   4.743   6.376   3.921
70022SOL    HW111840   4.744   6.471   3.916
70022SOL    HW211841   4.744   6.357   4.015
70023SOL     OW11842   6.855  14.852   3.782
70023SOL    HW111843   6.934  14.800   3.796
70023SOL    HW211844   6.873   0.057   3.826
70024SOL     OW11845   9.558   9.679  10.726
70024SOL    HW111846   9.493   9.736  10.685
70024SOL    HW211847   9.584   9.619  10.656
70025SOL     OW11848   9.133  14.097  13.974
70025SOL    HW111849   9.149  14.008  14.005
70025SOL    HW211850   9.158  14.153  14.047
70026SOL     OW11851   7.270   3.806  11.151
70026SOL    HW111852   7.243   3.878  11.095
70026SOL    HW211853   7.264   3.841  11.240
70027SOL     OW11854   6.850   6.389  10.971
70027SOL    HW111855   6.810   6.328  11.032
70027SOL    HW211856   6.780   6.414  10.911
70028SOL     OW11857  11.901   1.992   8.614
70028SOL    HW111858  11.835   1.950   8.558
70028SOL    HW211859  11.873   2.083   8.618
70029SOL     OW11860   1.024   7.951  12.019
70029SOL    HW111861   1.109   7.947  12.063
70029SOL    HW211862   0.981   7.870  12.044
70030SOL     OW11863   9.267   5.915   7.617
70030SOL    HW111864   9.266   5.882   7.527
70030SOL    HW211865   9.188   5.878   7.656
70031SOL     OW11866  14.443   4.296   9.359
70031SOL    HW111867  14.416   4.330   9.274
70031SOL    HW211868  14.534   4.325   9.368
70032SOL     OW11869   4.478   6.240  12.718
70032SOL    HW111870   4.570   6.215  12.730
70032SOL    HW211871   4.430   6.187  12.781
70033SOL     OW11872   0.777   2.339   8.212
70033SOL    HW111873   0.782   2.294   8.128
70033SOL    HW211874   0.840   2.294   8.268
70034SOL     OW11875   8.495  11.545   6.885
70034SOL    HW111876   8.479  11.482   6.956
70034SOL    HW211877   8.424  11.529   6.823
70035SOL     OW11878  12.662  11.661   5.099
70035SOL    HW111879  12.686  11.584   5.047
70035SOL    HW211880  12.677  11.635   5.189
70036SOL     OW11881   2.919   5.354  14.209
70036SOL    HW111882   2.967   5.309  14.141
70036SOL    HW211883   2.986   5.394  14.264
70037SOL     OW11884  11.567   2.371   2.083
70037SOL    HW111885  11.611   2.352   2.000
70037SOL    HW211886  11.483   2.409   2.058
70038SOL     OW11887   1.100   8.617  11.530
70038SOL    HW111888   1.116   8.614  11.435
70038SOL    HW211889   1.017   8.570  11.541
70039SOL     OW11890   3.264   5.489   0.858
70039SOL    HW111891   3.325   5.559   0.884
70039SOL    HW211892   3.320   5.415   0.837
70040SOL     OW11893   0.272   6.188   2.199
70040SOL    HW111894   0.190   6.140   2.202
70040SOL    HW211895   0.267   6.249   2.272
70041SOL     OW11896  14.667   9.509  10.435
70041SOL    HW111897  14.586   9.477  10.474
70041SOL    HW211898  14.649   9.600  10.414
70042SOL     OW11899  14.085   7.145   7.024
70042SOL    HW111900  14.053   7.223   6.978
70042SOL    HW211901  14.066   7.162   7.117
70043SOL     OW11902   3.156   1.645   8.813
70043SOL    HW111903   3.238   1.607   8.781
70043SOL    HW211904   3.135   1.714   8.749
70044SOL     OW11905   6.028   1.574   6.010
70044SOL    HW111906   5.988   1.627   6.079
70044SOL    HW211907   5.954   1.532   5.966
70045SOL     OW11908   2.968   0.626  13.437
70045SOL    HW111909   2.978   0.696  13.373
70045SOL    HW211910   3.057   0.609  13.468
70046SOL     OW11911  10.755  10.281   9.541
70046SOL    HW111912  10.702  10.338   9.486
70046SOL    HW211913  10.837  10.328   9.552
70047SOL     OW11914  11.431   4.591   0.557
70047SOL    HW111915  11.482   4.658   0.512
70047SOL    HW211916  11.366   4.640   0.607
70048SOL     OW11917  10.917   0.374  12.711
70048SOL    HW111918  10.878   0.381  12.624
70048SOL    HW211919  10.844   0.360  12.770
70049SOL     OW11920   2.464   8.852   5.165
70049SOL    HW111921   2.390   8.840   5.225
70049SOL    HW211922   2.530   8.789   5.195
70050SOL     OW11923   8.608   3.604   3.078
70050SOL    HW111924   8.612   3.697   3.103
70050SOL    HW211925   8.670   3.561   3.137
70051SOL     OW11926   5.227   7.530   0.547
70051SOL    HW111927   5.265   7.612   0.579
70051SOL    HW211928   5.201   7.548   0.457
70052SOL     OW11929   7.294   7.015   4.753
70052SOL    HW111930   7.380   6.999   4.791
70052SOL    HW211931   7.288   7.110   4.746
70053SOL     OW11932   1.475  10.931   4.388
70053SOL    HW111933   1.503  11.008   4.338
70053SOL    HW211934   1.397  10.900   4.342
70054SOL     OW11935   9.419  12.603   4.530
70054SOL    HW111936   9.499  12.557   4.503
70054SOL    HW211937   9.449  12.670   4.591
70055SOL     OW11938   8.820   7.816   1.759
70055SOL    HW111939   8.891   7.764   1.797
70055SOL    HW211940   8.847   7.829   1.668
70056SOL     OW11941  12.532   0.561   4.684
70056SOL    HW111942  12.556   0.494   4.748
70056SOL    HW211943  12.451   0.600   4.719
70057SOL     OW11944  12.270   0.129  14.851
70057SOL    HW111945  12.191   0.170  14.816
70057SOL    HW211946  12.341   0.189  14.830
70058SOL     OW11947   9.732   1.712   2.075
70058SOL    HW111948   9.654   1.657   2.082
70058SOL    HW211949   9.805   1.651   2.072
70059SOL     OW11950   0.209   2.134   8.761
70059SOL    HW111951   0.229   2.041   8.761
70059SOL    HW211952   0.114   2.138   8.750
70060SOL     OW11953  10.453   8.205   8.005
70060SOL    HW111954  10.473   8.233   8.094
70060SOL    HW211955  10.483   8.277   7.949
70061SOL     OW11956  13.343  11.343   3.689
70061SOL    HW111957  13.259  11.387   3.696
70061SOL    HW211958  13.402  11.395   3.744
70062SOL     OW11959  13.875   7.127   5.912
70062SOL    HW111960  13.888   7.213   5.953
70062SOL    HW211961  13.954   7.114   5.859
70063SOL     OW11962   1.095   3.076   0.530
70063SOL    HW111963   1.093   3.030   0.614
70063SOL    HW211964   1.085   3.168   0.553
70064SOL     OW11965  14.767   8.122  10.226
70064SOL    HW111966  14.684   8.154  10.260
70064SOL    HW211967  14.791   8.185  10.158
70065SOL     OW11968  10.020   0.845  10.778
70065SOL    HW111969  10.079   0.812  10.846
70065SOL    HW211970   9.938   0.862  10.824
70066SOL     OW11971  14.133  14.316   2.648
70066SOL    HW111972  14.168  14.329   2.560
70066SOL    HW211973  14.047  14.277   2.634
70067SOL     OW11974  12.057   3.503   2.922
70067SOL    HW111975  12.120   3.481   2.991
70067SOL    HW211976  12.107   3.555   2.859
70068SOL     OW11977   8.027   0.193   8.386
70068SOL    HW111978   8.030   0.288   8.381
70068SOL    HW211979   8.116   0.167   8.409
70069SOL     OW11980   1.194  10.922  12.310
70069SOL    HW111981   1.186  11.008  12.268
70069SOL    HW211982   1.266  10.932  12.372
70070SOL     OW11983  12.875  13.686   5.845
70070SOL    HW111984  12.802  13.712   5.789
70070SOL    HW211985  12.916  13.769   5.870
70071SOL     OW11986  11.421  12.540   1.147
70071SOL    HW111987  11.437  12.454   1.107
70071SOL    HW211988  11.352  12.524   1.211
70072SOL     OW11989   9.267   1.798  13.135
70072SOL    HW111990   9.325   1.800  13.211
70072SOL    HW211991   9.219   1.881  13.138
70073SOL     OW11992  14.478   8.787  13.082
70073SOL    HW111993  14.383   8.790  13.084
70073SOL    HW211994  14.500   8.760  12.993
70074SOL     OW11995   7.066   3.589   3.310
70074SOL    HW111996   7.022   3.672   3.332
70074SOL    HW211997   6.998   3.538   3.264
70075SOL     OW11998   0.129   2.004  13.307
70075SOL    HW111999   0.037   2.031  13.296
70075SOL    HW212000   0.162   2.062  13.376
70076SOL     OW12001   3.826   5.457   1.755
70076SOL    HW112002   3.915   5.428   1.736
70076SOL    HW212003   3.820   5.456   1.850
70077SOL     OW12004  12.162  11.392   8.313
70077SOL    HW112005  12.161  11.433   8.226
70077SOL    HW212006  12.169  11.466   8.374
70078SOL     OW12007   5.524   0.934   9.718
70078SOL    HW112008   5.612   0.897   9.710
70078SOL    HW212009   5.519   0.999   9.648
70079SOL     OW12010  10.409   4.501   7.474
70079SOL    HW112011  10.457   4.418   7.474
70079SOL    HW212012  10.321   4.477   7.443
70080SOL     OW12013   3.430  13.630  12.836
70080SOL    HW112014   3.401  13.545  12.805
70080SOL    HW212015   3.503  13.611  12.895
70081SOL     OW12016   3.664   8.588   2.060
70081SOL    HW112017   3.717   8.510   2.077
70081SOL    HW212018   3.715   8.661   2.097
70082SOL     OW12019  10.567  12.178  12.062
70082SOL    HW112020  10.499  12.182  12.129
70082SOL    HW212021  10.532  12.232  11.991
70083SOL     OW12022  14.323   3.088  14.232
70083SOL    HW112023  14.270   3.143  14.290
70083SOL    HW212024  14.368   3.150  14.174
70084SOL     OW12025   1.771   1.843  12.010
70084SOL    HW112026   1.865   1.862  12.015
70084SOL    HW212027   1.734   1.891  12.084
70085SOL     OW12028   4.154   5.179  10.046
70085SOL    HW112029   4.111   5.264  10.033
70085SOL    HW212030   4.173   5.176  10.140
70086SOL     OW12031   3.640   7.512   0.700
70086SOL    HW112032   3.663   7.423   0.725
70086SOL    HW212033   3.703   7.567   0.746
70087SOL     OW12034   1.760   5.686  10.199
70087SOL    HW112035   1.852   5.664  10.206
70087SOL    HW212036   1.756   5.753  10.131
70088SOL     OW12037  10.229   6.964   9.709
70088SOL    HW112038  10.322   6.979   9.692
70088SOL    HW212039  10.186   7.045   9.683
70089SOL     OW12040   7.921   8.850  13.971
70089SOL    HW112041   7.883   8.805  13.896
70089SOL    HW212042   7.848   8.897  14.011
70090SOL     OW12043   5.918  11.056  12.063
70090SOL    HW112044   5.953  11.011  11.986
70090SOL    HW212045   5.845  11.001  12.091
70091SOL     OW12046   4.369  12.635   5.176
70091SOL    HW112047   4.303  12.669   5.237
70091SOL    HW212048   4.323  12.569   5.125
70092SOL     OW12049   4.552   1.627   2.182
70092SOL    HW112050   4.507   1.542   2.187
70092SOL    HW212051   4.620   1.613   2.116
70093SOL     OW12052   9.805  13.147   0.472
70093SOL    HW112053   9.742  13.128   0.541
70093SOL    HW212054   9.885  13.172   0.518
70094SOL     OW12055   1.239   3.157   8.012
70094SOL    HW112056   1.315   3.185   7.961
70094SOL    HW212057   1.177   3.124   7.947
70095SOL     OW12058  14.492   1.484   4.298
70095SOL    HW112059  14.558   1.496   4.365
70095SOL    HW212060  14.535   1.432   4.231
70096SOL     OW12061   0.397   3.009   0.182
70096SOL    HW112062   0.475   2.959   0.209
70096SOL    HW212063   0.418   3.041   0.094
70097SOL     OW12064   7.049  12.248   9.112
70097SOL    HW112065   7.053  12.219   9.203
70097SOL    HW212066   7.135  12.226   9.076
70098SOL     OW12067   4.426  11.667   1.441
70098SOL    HW112068   4.401  11.754   1.471
70098SOL    HW212069   4.500  11.643   1.497
70099SOL     OW12070   0.422   2.366   0.307
70099SOL    HW112071   0.420   2.460   0.324
70099SOL    HW212072   0.511   2.339   0.330
70100SOL     OW12073   5.187   5.214  12.972
70100SOL    HW112074   5.249   5.148  12.943
70100SOL    HW212075   5.236   5.270  13.032
70101SOL     OW12076   8.642   7.007   1.468
70101SOL    HW112077   8.699   6.982   1.540
70101SOL    HW212078   8.697   6.999   1.390
70102SOL     OW12079  13.915  14.280   8.492
70102SOL    HW112080  13.970  14.201   8.492
70102SOL    HW212081  13.891  14.293   8.400
70103SOL     OW12082   1.544   5.576   1.536
70103SOL    HW112083   1.451   5.559   1.524
70103SOL    HW212084   1.558   5.662   1.497
70104SOL     OW12085  13.001   2.721   9.589
70104SOL    HW112086  12.949   2.649   9.625
70104SOL    HW212087  13.036   2.766   9.665
70105SOL     OW12088   8.126   9.548  11.459
70105SOL    HW112089   8.140   9.606  11.384
70105SOL    HW212090   8.146   9.603  11.535
70106SOL     OW12091   7.214  14.225  10.013
70106SOL    HW112092   7.221  14.133  10.038
70106SOL    HW212093   7.191  14.271  10.094
70107SOL     OW12094   1.198   7.099   8.951
70107SOL    HW112095   1.257   7.155   9.001
70107SOL    HW212096   1.139   7.062   9.017
70108SOL     OW12097   9.660   1.407   3.955
70108SOL    HW112098   9.645   1.347   4.028
70108SOL    HW212099   9.648   1.494   3.993
70109SOL     OW12100   6.910  14.857   0.189
70109SOL    HW112101   6.856  14.861   0.268
70109SOL    HW212102   6.983   0.039   0.207
70110SOL     OW12103   9.480  13.329  12.926
70110SOL    HW112104   9.460  13.403  12.869
70110SOL    HW212105   9.475  13.252  12.869
70111SOL     OW12106  10.086   3.956   0.107
70111SOL    HW112107  10.130   3.993   0.183
70111SOL    HW212108  10.106   4.017   0.035
70112SOL     OW12109   3.994  10.270   1.016
70112SOL    HW112110   3.993  10.177   0.994
70112SOL    HW212111   4.072  10.304   0.972
70113SOL     OW12112   6.242  12.443   1.260
70113SOL    HW112113   6.246  12.367   1.317
70113SOL    HW212114   6.333  12.457   1.234
70114SOL     OW12115   5.796  12.234   8.552
70114SOL    HW112116   5.713  12.280   8.562
70114SOL    HW212117   5.832  12.230   8.641
70115SOL     OW12118  10.566   6.889   6.405
70115SOL    HW112119  10.520   6.965   6.369
70115SOL    HW212120  10.550   6.893   6.499
70116SOL     OW12121   3.915  11.807  10.121
70116SOL    HW112122   3.962  11.741  10.070
70116SOL    HW212123   3.828  11.811  10.081
70117SOL     OW12124  14.415   6.399  11.224
70117SOL    HW112125  14.344   6.344  11.256
70117SOL    HW212126  14.397   6.486  11.262
70118SOL     OW12127  14.272  14.060   9.788
70118SOL    HW112128  14.252  14.153   9.783
70118SOL    HW212129  14.190  14.016   9.767
70119SOL     OW12130   6.585   5.188   4.764
70119SOL    HW112131   6.602   5.173   4.857
70119SOL    HW212132   6.573   5.283   4.757
70120SOL     OW12133  10.344  12.187   4.587
70120SOL    HW112134  10.384  12.113   4.541
70120SOL    HW212135  10.304  12.240   4.519
70121SOL     OW12136  13.680  11.938  13.693
70121SOL    HW112137  13.693  11.922  13.600
70121SOL    HW212138  13.711  12.027  13.707
70122SOL     OW12139   3.318  11.722   3.199
70122SOL    HW112140   3.392  11.717   3.260
70122SOL    HW212141   3.356  11.700   3.114
70123SOL     OW12142   0.164   6.048  10.479
70123SOL    HW112143   0.075   6.067  10.508
70123SOL    HW212144   0.194   6.130  10.439
70124SOL     OW12145   5.911  13.688  11.399
70124SOL    HW112146   5.862  13.643  11.330
70124SOL    HW212147   5.854  13.683  11.475
70125SOL     OW12148   6.229   8.367   7.809
70125SOL    HW112149   6.140   8.357   7.842
70125SOL    HW212150   6.272   8.284   7.829
70126SOL     OW12151  12.975   4.646   9.494
70126SOL    HW112152  12.990   4.677   9.405
70126SOL    HW212153  12.881   4.633   9.501
70127SOL     OW12154   3.389   7.006   7.932
70127SOL    HW112155   3.314   7.042   7.979
70127SOL    HW212156   3.456   7.074   7.939
70128SOL     OW12157   0.204   0.397  13.580
70128SOL    HW112158   0.214   0.489  13.554
70128SOL    HW212159   0.288   0.375  13.621
70129SOL     OW12160   3.457   9.186  13.789
70129SOL    HW112161   3.523   9.146  13.846
70129SOL    HW212162   3.374   9.147  13.817
70130SOL     OW12163   8.462   4.999   2.465
70130SOL    HW112164   8.553   5.007   2.491
70130SOL    HW212165   8.434   5.089   2.448
70131SOL     OW12166   1.930   3.730   8.462
70131SOL    HW112167   1.960   3.811   8.504
70131SOL    HW212168   1.963   3.736   8.372
70132SOL     OW12169   8.592  10.661  10.718
70132SOL    HW112170   8.582  10.685  10.626
70132SOL    HW212171   8.507  10.627  10.745
70133SOL     OW12172   8.881   5.081   8.471
70133SOL    HW112173   8.898   5.161   8.422
70133SOL    HW212174   8.798   5.097   8.516
70134SOL     OW12175   2.988  13.118   7.153
70134SOL    HW112176   2.920  13.156   7.098
70134SOL    HW212177   3.029  13.193   7.197
70135SOL     OW12178   9.403   4.553   3.978
70135SOL    HW112179   9.341   4.482   3.997
70135SOL    HW212180   9.359   4.607   3.912
70136SOL     OW12181   6.229  12.375   6.539
70136SOL    HW112182   6.150  12.408   6.583
70136SOL    HW212183   6.267  12.313   6.601
70137SOL     OW12184   7.002  13.353   4.914
70137SOL    HW112185   6.951  13.427   4.948
70137SOL    HW212186   6.991  13.360   4.819
70138SOL     OW12187   7.532   8.373   7.411
70138SOL    HW112188   7.533   8.367   7.507
70138SOL    HW212189   7.623   8.357   7.385
70139SOL     OW12190   1.881   2.093   3.103
70139SOL    HW112191   1.890   2.001   3.128
70139SOL    HW212192   1.942   2.104   3.030
70140SOL     OW12193  11.701   1.958  14.078
70140SOL    HW112194  11.789   1.989  14.058
70140SOL    HW212195  11.658   1.951  13.993
70141SOL     OW12196   1.853   0.957   5.553
70141SOL    HW112197   1.848   0.911   5.637
70141SOL    HW212198   1.796   1.033   5.564
70142SOL     OW12199  11.079   3.615   3.411
70142SOL    HW112200  11.028   3.598   3.490
70142SOL    HW212201  11.123   3.698   3.429
70143SOL     OW12202  10.650   8.883   9.969
70143SOL    HW112203  10.691   8.807   9.925
70143SOL    HW212204  10.559   8.857   9.981
70144SOL     OW12205  10.936  13.632  10.416
70144SOL    HW112206  10.925  13.726  10.406
70144SOL    HW212207  10.847  13.597  10.406
70145SOL     OW12208   0.093  12.077   1.355
70145SOL    HW112209   0.101  12.045   1.265
70145SOL    HW212210  14.876  12.086   1.369
70146SOL     OW12211  10.543   2.440   6.794
70146SOL    HW112212  10.600   2.382   6.744
70146SOL    HW212213  10.509   2.502   6.730
70147SOL     OW12214  14.456  10.054   9.548
70147SOL    HW112215  14.495  10.049   9.461
70147SOL    HW212216  14.528  10.035   9.608
70148SOL     OW12217  14.238   9.592   7.820
70148SOL    HW112218  14.218   9.519   7.762
70148SOL    HW212219  14.238   9.554   7.907
70149SOL     OW12220   4.623   1.055   9.308
70149SOL    HW112221   4.544   1.002   9.299
70149SOL    HW212222   4.678   1.030   9.234
70150SOL     OW12223   0.469   8.393  12.297
70150SOL    HW112224   0.457   8.479  12.339
70150SOL    HW212225   0.392   8.383  12.241
70151SOL     OW12226   8.771   3.623  10.134
70151SOL    HW112227   8.678   3.640  10.120
70151SOL    HW212228   8.815   3.704  10.109
70152SOL     OW12229   7.930  11.416  12.479
70152SOL    HW112230   7.897  11.364  12.552
70152SOL    HW212231   7.863  11.408  12.412
70153SOL     OW12232   6.194   4.495   3.736
70153SOL    HW112233   6.144   4.572   3.709
70153SOL    HW212234   6.129   4.438   3.777
70154SOL     OW12235  10.748   3.218  14.059
70154SOL    HW112236  10.795   3.197  14.139
70154SOL    HW212237  10.680   3.151  14.052
70155SOL     OW12238  14.797   2.474   1.237
70155SOL    HW112239  14.704   2.459   1.220
70155SOL    HW212240  14.803   2.568   1.252
70156SOL     OW12241   5.133   8.706   9.082
70156SOL    HW112242   5.225   8.692   9.106
70156SOL    HW212243   5.133   8.790   9.036
70157SOL     OW12244   8.220  10.132  13.314
70157SOL    HW112245   8.188  10.174  13.394
70157SOL    HW212246   8.313  10.115  13.331
70158SOL     OW12247   9.670   6.407  10.479
70158SOL    HW112248   9.628   6.456  10.550
70158SOL    HW212249   9.645   6.316  10.495
70159SOL     OW12250   7.194   5.877   4.709
70159SOL    HW112251   7.208   5.924   4.791
70159SOL    HW212252   7.140   5.936   4.656
70160SOL     OW12253   2.587   6.735   9.420
70160SOL    HW112254   2.612   6.779   9.339
70160SOL    HW212255   2.669   6.709   9.460
70161SOL     OW12256   6.045   2.572   1.298
70161SOL    HW112257   6.063   2.649   1.244
70161SOL    HW212258   5.966   2.596   1.348
70162SOL     OW12259   7.528   5.130  12.881
70162SOL    HW112260   7.526   5.065  12.951
70162SOL    HW212261   7.529   5.214  12.926
70163SOL     OW12262   9.325  13.258   8.461
70163SOL    HW112263   9.264  13.322   8.425
70163SOL    HW212264   9.408  13.306   8.470
70164SOL     OW12265  12.166  11.600  12.788
70164SOL    HW112266  12.178  11.550  12.708
70164SOL    HW212267  12.105  11.548  12.840
70165SOL     OW12268   1.146  14.689   7.060
70165SOL    HW112269   1.220  14.747   7.077
70165SOL    HW212270   1.085  14.707   7.133
70166SOL     OW12271   4.199   1.327   8.940
70166SOL    HW112272   4.167   1.294   8.856
70166SOL    HW212273   4.264   1.263   8.968
70167SOL     OW12274  12.211   8.238   4.435
70167SOL    HW112275  12.200   8.220   4.529
70167SOL    HW212276  12.300   8.274   4.428
70168SOL     OW12277  13.729   0.615  13.801
70168SOL    HW112278  13.764   0.673  13.734
70168SOL    HW212279  13.735   0.666  13.882
70169SOL     OW12280   9.773  12.781  13.774
70169SOL    HW112281   9.770  12.765  13.680
70169SOL    HW212282   9.682  12.770  13.803
70170SOL     OW12283   8.362   8.944   9.765
70170SOL    HW112284   8.327   8.868   9.812
70170SOL    HW212285   8.392   8.909   9.682
70171SOL     OW12286  13.800  13.071  12.065
70171SOL    HW112287  13.738  13.114  12.006
70171SOL    HW212288  13.879  13.126  12.062
70172SOL     OW12289   1.606   9.234   2.075
70172SOL    HW112290   1.646   9.185   2.147
70172SOL    HW212291   1.544   9.173   2.035
70173SOL     OW12292   7.278   6.566   3.081
70173SOL    HW112293   7.211   6.616   3.034
70173SOL    HW212294   7.310   6.625   3.148
70174SOL     OW12295   9.127   0.845   2.045
70174SOL    HW112296   9.171   0.927   2.069
70174SOL    HW212297   9.160   0.825   1.958
70175SOL     OW12298   2.704   6.891   6.186
70175SOL    HW112299   2.799   6.882   6.183
70175SOL    HW212300   2.676   6.865   6.098
70176SOL     OW12301   0.687   4.019   0.318
70176SOL    HW112302   0.634   4.021   0.238
70176SOL    HW212303   0.678   4.108   0.354
70177SOL     OW12304   8.908   4.361   9.298
70177SOL    HW112305   8.936   4.410   9.221
70177SOL    HW212306   8.860   4.286   9.263
70178SOL     OW12307   0.711   5.218   5.538
70178SOL    HW112308   0.691   5.207   5.631
70178SOL    HW212309   0.660   5.295   5.512
70179SOL     OW12310   2.331   7.454   0.506
70179SOL    HW112311   2.386   7.420   0.576
70179SOL    HW212312   2.344   7.549   0.509
70180SOL     OW12313  13.187   0.922   9.528
70180SOL    HW112314  13.226   1.010   9.519
70180SOL    HW212315  13.234   0.882   9.601
70181SOL     OW12316  11.489   7.939   4.439
70181SOL    HW112317  11.428   7.866   4.449
70181SOL    HW212318  11.464   8.002   4.507
70182SOL     OW12319  13.071  14.326   6.704
70182SOL    HW112320  12.977  14.309   6.700
70182SOL    HW212321  13.079  14.421   6.701
70183SOL     OW12322   1.932   1.854  11.481
70183SOL    HW112323   1.899   1.861  11.570
70183SOL    HW212324   1.855   1.869  11.425
70184SOL     OW12325   2.196   0.578   0.972
70184SOL    HW112326   2.195   0.487   0.943
70184SOL    HW212327   2.126   0.620   0.922
70185SOL     OW12328   0.132  12.860   4.386
70185SOL    HW112329   0.151  12.896   4.299
70185SOL    HW212330   0.196  12.900   4.444
70186SOL     OW12331   2.227  13.130   0.715
70186SOL    HW112332   2.189  13.142   0.627
70186SOL    HW212333   2.183  13.051   0.748
70187SOL     OW12334   1.613   6.731  12.686
70187SOL    HW112335   1.599   6.666  12.617
70187SOL    HW212336   1.533   6.727  12.739
70188SOL     OW12337   5.796   6.121  12.355
70188SOL    HW112338   5.828   6.054  12.415
70188SOL    HW212339   5.811   6.085  12.268
70189SOL     OW12340   7.583  13.106  10.563
70189SOL    HW112341   7.571  13.177  10.500
70189SOL    HW212342   7.677  13.109  10.584
70190SOL     OW12343   0.263   7.182  12.231
70190SOL    HW112344   0.291   7.211  12.318
70190SOL    HW212345   0.318   7.107  12.212
70191SOL     OW12346   8.841   3.280   7.466
70191SOL    HW112347   8.866   3.318   7.550
70191SOL    HW212348   8.750   3.254   7.478
70192SOL     OW12349   1.753  10.174   0.236
70192SOL    HW112350   1.678  10.117   0.255
70192SOL    HW212351   1.801  10.179   0.319
70193SOL     OW12352   9.935  12.417  10.923
70193SOL    HW112353   9.924  12.501  10.877
70193SOL    HW212354  10.022  12.387  10.898
70194SOL     OW12355   9.813  12.988   5.252
70194SOL    HW112356   9.773  13.005   5.167
70194SOL    HW212357   9.833  13.075   5.287
70195SOL     OW12358   4.104   5.464   1.688
70195SOL    HW112359   4.131   5.553   1.668
70195SOL    HW212360   4.179   5.410   1.665
70196SOL     OW12361  10.976  11.057  12.473
70196SOL    HW112362  10.918  11.132  12.486
70196SOL    HW212363  11.063  11.095  12.462
70197SOL     OW12364   0.613  14.035   2.236
70197SOL    HW112365   0.666  14.064   2.310
70197SOL    HW212366   0.669  14.046   2.159
70198SOL     OW12367   2.001   9.426   7.267
70198SOL    HW112368   1.943   9.493   7.303
70198SOL    HW212369   1.943   9.354   7.243
70199SOL     OW12370   4.387   6.702   1.368
70199SOL    HW112371   4.322   6.652   1.319
70199SOL    HW212372   4.469   6.655   1.354
70200SOL     OW12373   3.260   9.253  11.113
70200SOL    HW112374   3.171   9.289  11.111
70200SOL    HW212375   3.313   9.316  11.064
70201SOL     OW12376   0.273  11.937   2.463
70201SOL    HW112377   0.283  12.009   2.526
70201SOL    HW212378   0.190  11.955   2.419
70202SOL     OW12379   7.474   4.748   2.293
70202SOL    HW112380   7.413   4.704   2.353
70202SOL    HW212381   7.560   4.735   2.333
70203SOL     OW12382  13.390   2.952   8.313
70203SOL    HW112383  13.406   2.859   8.301
70203SOL    HW212384  13.319   2.957   8.377
70204SOL     OW12385  13.098   4.152   0.627
70204SOL    HW112386  13.172   4.135   0.686
70204SOL    HW212387  13.034   4.085   0.650
70205SOL     OW12388   8.598  12.435  11.418
70205SOL    HW112389   8.592  12.343  11.392
70205SOL    HW212390   8.618  12.433  11.511
70206SOL     OW12391   8.093  12.234   5.790
70206SOL    HW112392   8.100  12.241   5.694
70206SOL    HW212393   8.079  12.141   5.806
70207SOL     OW12394   1.938  11.667   0.088
70207SOL    HW112395   1.939  11.762   0.078
70207SOL    HW212396   1.866  11.651   0.149
70208SOL     OW12397  13.402   4.680   2.358
70208SOL    HW112398  13.493   4.682   2.389
70208SOL    HW212399  13.372   4.771   2.369
70209SOL     OW12400  13.868  11.418   5.664
70209SOL    HW112401  13.894  11.414   5.756
70209SOL    HW212402  13.925  11.485   5.626
70210SOL     OW12403   5.471   3.217   0.108
70210SOL    HW112404   5.526   3.217   0.029
70210SOL    HW212405   5.382   3.230   0.075
70211SOL     OW12406  14.293   5.432   3.989
70211SOL    HW112407  14.328   5.351   3.952
70211SOL    HW212408  14.302   5.421   4.084
70212SOL     OW12409  12.072   8.535  13.386
70212SOL    HW112410  12.072   8.443  13.362
70212SOL    HW212411  12.051   8.535  13.480
70213SOL     OW12412  10.284  11.941   3.491
70213SOL    HW112413  10.332  12.019   3.465
70213SOL    HW212414  10.192  11.963   3.476
70214SOL     OW12415   2.562  13.206   2.190
70214SOL    HW112416   2.597  13.211   2.279
70214SOL    HW212417   2.532  13.116   2.181
70215SOL     OW12418  13.277   2.100   6.446
70215SOL    HW112419  13.190   2.060   6.441
70215SOL    HW212420  13.290   2.140   6.360
70216SOL     OW12421   2.663  10.537   7.594
70216SOL    HW112422   2.709  10.516   7.512
70216SOL    HW212423   2.625  10.623   7.579
70217SOL     OW12424   0.580   2.507   3.341
70217SOL    HW112425   0.634   2.438   3.301
70217SOL    HW212426   0.493   2.468   3.347
70218SOL     OW12427  11.214   4.800   2.580
70218SOL    HW112428  11.268   4.740   2.528
70218SOL    HW212429  11.224   4.770   2.670
70219SOL     OW12430  14.585   3.665   2.372
70219SOL    HW112431  14.612   3.573   2.372
70219SOL    HW212432  14.586   3.690   2.280
70220SOL     OW12433   7.699  13.132   3.481
70220SOL    HW112434   7.666  13.147   3.570
70220SOL    HW212435   7.626  13.153   3.424
70221SOL     OW12436  12.840  10.228  11.506
70221SOL    HW112437  12.867  10.312  11.544
70221SOL    HW212438  12.745  10.237  11.493
70222SOL     OW12439  14.857  10.092   0.581
70222SOL    HW112440  14.860  10.066   0.673
70222SOL    HW212441   0.067  10.126   0.564
70223SOL     OW12442   4.345   2.747   0.618
70223SOL    HW112443   4.439   2.758   0.633
70223SOL    HW212444   4.335   2.743   0.523
70224SOL     OW12445  11.636   2.711   4.323
70224SOL    HW112446  11.586   2.790   4.304
70224SOL    HW212447  11.726   2.733   4.302
70225SOL     OW12448   8.380   5.777  11.530
70225SOL    HW112449   8.355   5.863  11.497
70225SOL    HW212450   8.424   5.794  11.613
70226SOL     OW12451   7.059   6.322   9.322
70226SOL    HW112452   7.036   6.233   9.295
70226SOL    HW212453   7.140   6.342   9.275
70227SOL     OW12454   8.032   7.431   1.958
70227SOL    HW112455   7.969   7.488   1.916
70227SOL    HW212456   8.096   7.491   1.997
70228SOL     OW12457   2.756   2.818  11.844
70228SOL    HW112458   2.825   2.883  11.849
70228SOL    HW212459   2.688   2.850  11.903
70229SOL     OW12460   7.155  11.159   3.014
70229SOL    HW112461   7.104  11.116   2.946
70229SOL    HW212462   7.099  11.159   3.091
70230SOL     OW12463   7.883  14.236   1.889
70230SOL    HW112464   7.888  14.143   1.908
70230SOL    HW212465   7.799  14.247   1.845
70231SOL     OW12466   2.864  12.365   3.562
70231SOL    HW112467   2.891  12.379   3.471
70231SOL    HW212468   2.924  12.298   3.595
70232SOL     OW12469   1.610  14.733   4.603
70232SOL    HW112470   1.679  14.667   4.592
70232SOL    HW212471   1.653  14.816   4.580
70233SOL     OW12472   5.211   3.664   2.264
70233SOL    HW112473   5.144   3.616   2.216
70233SOL    HW212474   5.187   3.652   2.356
70234SOL     OW12475   0.150   5.591   4.668
70234SOL    HW112476   0.204   5.545   4.731
70234SOL    HW212477   0.212   5.634   4.609
70235SOL     OW12478   4.518   7.046   5.327
70235SOL    HW112479   4.485   7.013   5.244
70235SOL    HW212480   4.506   7.141   5.322
70236SOL     OW12481   1.004   3.896  12.275
70236SOL    HW112482   1.028   3.837  12.347
70236SOL    HW212483   0.961   3.970  12.319
70237SOL     OW12484   4.363   5.854   2.835
70237SOL    HW112485   4.274   5.859   2.800
70237SOL    HW212486   4.391   5.765   2.817
70238SOL     OW12487   1.341   4.821   0.414
70238SOL    HW112488   1.419   4.771   0.389
70238SOL    HW212489   1.335   4.890   0.348
70239SOL     OW12490   7.514   5.275   6.704
70239SOL    HW112491   7.592   5.281   6.650
70239SOL    HW212492   7.541   5.307   6.789
70240SOL     OW12493   9.252   2.275  13.459
70240SOL    HW112494   9.167   2.272  13.414
70240SOL    HW212495   9.271   2.183  13.478
70241SOL     OW12496   4.962   4.757   3.774
70241SOL    HW112497   5.056   4.743   3.781
70241SOL    HW212498   4.951   4.852   3.768
70242SOL     OW12499   7.221  13.442  10.637
70242SOL    HW112500   7.294  13.458  10.697
70242SOL    HW212501   7.262  13.439  10.550
70243SOL     OW12502  12.309   9.894   2.585
70243SOL    HW112503  12.352   9.808   2.581
70243SOL    HW212504  12.237   9.882   2.647
70244SOL     OW12505   3.337  14.176  13.472
70244SOL    HW112506   3.406  14.222  13.521
70244SOL    HW212507   3.303  14.242  13.412
70245SOL     OW12508  13.265   6.979   8.470
70245SOL    HW112509  13.261   6.929   8.551
70245SOL    HW212510  13.174   6.985   8.440
70246SOL     OW12511  13.466   9.041   7.345
70246SOL    HW112512  13.413   8.968   7.376
70246SOL    HW212513  13.416   9.079   7.273
70247SOL     OW12514   7.834  11.481  12.946
70247SOL    HW112515   7.879  11.424  12.884
70247SOL    HW212516   7.888  11.478  13.025
70248SOL     OW12517  11.072   9.169   7.645
70248SOL    HW112518  11.080   9.075   7.661
70248SOL    HW212519  11.162   9.199   7.632
70249SOL     OW12520  10.571   9.150  13.884
70249SOL    HW112521  10.569   9.106  13.799
70249SOL    HW212522  10.481   9.144  13.916
70250SOL     OW12523   2.597  14.192  11.813
70250SOL    HW112524   2.615  14.202  11.907
70250SOL    HW212525   2.509  14.156  11.810
70251SOL     OW12526  14.257   4.821  11.741
70251SOL    HW112527  14.307   4.746  11.711
70251SOL    HW212528  14.313   4.863  11.806
70252SOL     OW12529  11.965  10.097   0.796
70252SOL    HW112530  11.948  10.004   0.785
70252SOL    HW212531  12.030  10.117   0.728
70253SOL     OW12532   3.675  11.951   2.539
70253SOL    HW112533   3.721  11.888   2.483
70253SOL    HW212534   3.677  11.912   2.626
70254SOL     OW12535   3.282  12.608  11.210
70254SOL    HW112536   3.232  12.654  11.277
70254SOL    HW212537   3.276  12.664  11.132
70255SOL     OW12538   9.583  10.955  11.317
70255SOL    HW112539   9.631  10.909  11.386
70255SOL    HW212540   9.643  10.955  11.242
70256SOL     OW12541   2.888   0.423   3.514
70256SOL    HW112542   2.852   0.478   3.583
70256SOL    HW212543   2.932   0.352   3.560
70257SOL     OW12544   8.803   7.351   3.050
70257SOL    HW112545   8.747   7.364   3.127
70257SOL    HW212546   8.843   7.436   3.035
70258SOL     OW12547   6.656   8.577  13.064
70258SOL    HW112548   6.607   8.626  13.129
70258SOL    HW212549   6.611   8.493  13.057
70259SOL     OW12550  13.073  14.526  14.355
70259SOL    HW112551  13.042  14.462  14.418
70259SOL    HW212552  13.039  14.610  14.387
70260SOL     OW12553  10.346   0.984   4.531
70260SOL    HW112554  10.406   0.925   4.487
70260SOL    HW212555  10.371   0.979   4.624
70261SOL     OW12556   0.460  10.481   4.646
70261SOL    HW112557   0.365  10.475   4.642
70261SOL    HW212558   0.489  10.473   4.555
70262SOL     OW12559   6.796   3.908   9.694
70262SOL    HW112560   6.800   3.838   9.629
70262SOL    HW212561   6.743   3.976   9.654
70263SOL     OW12562  13.909   1.203   8.718
70263SOL    HW112563  13.839   1.229   8.658
70263SOL    HW212564  13.951   1.286   8.742
70264SOL     OW12565   8.643  12.066   3.147
70264SOL    HW112566   8.625  12.044   3.056
70264SOL    HW212567   8.556  12.081   3.186
70265SOL     OW12568  10.869  12.829   9.561
70265SOL    HW112569  10.835  12.913   9.591
70265SOL    HW212570  10.810  12.803   9.490
70266SOL     OW12571  11.542   4.278   2.060
70266SOL    HW112572  11.574   4.244   1.977
70266SOL    HW212573  11.514   4.367   2.040
70267SOL     OW12574   6.880   9.708   9.758
70267SOL    HW112575   6.931   9.671   9.686
70267SOL    HW212576   6.894   9.648   9.831
70268SOL     OW12577   7.479   3.275   8.011
70268SOL    HW112578   7.417   3.271   7.938
70268SOL    HW212579   7.563   3.254   7.972
70269SOL     OW12580  13.856   3.563   3.150
70269SOL    HW112581  13.853   3.655   3.125
70269SOL    HW212582  13.851   3.515   3.067
70270SOL     OW12583   2.605   7.139  14.420
70270SOL    HW112584   2.571   7.057  14.384
70270SOL    HW212585   2.673   7.113  14.482
70271SOL     OW12586   6.551  12.740  11.218
70271SOL    HW112587   6.603  12.820  11.224
70271SOL    HW212588   6.616  12.670  11.208
70272SOL     OW12589  13.602   1.460   9.646
70272SOL    HW112590  13.685   1.476   9.690
70272SOL    HW212591  13.605   1.368   9.619
70273SOL     OW12592  13.067   5.003   6.529
70273SOL    HW112593  13.107   4.940   6.588
70273SOL    HW212594  13.136   5.025   6.467
70274SOL     OW12595   4.394   9.910   3.700
70274SOL    HW112596   4.383   9.988   3.647
70274SOL    HW212597   4.485   9.883   3.685
70275SOL     OW12598  10.787   4.538   2.651
70275SOL    HW112599  10.772   4.627   2.683
70275SOL    HW212600  10.811   4.549   2.559
70276SOL     OW12601   3.344   3.161   4.816
70276SOL    HW112602   3.287   3.205   4.879
70276SOL    HW212603   3.429   3.203   4.827
70277SOL     OW12604   0.277  12.804  12.937
70277SOL    HW112605   0.275  12.714  12.970
70277SOL    HW212606   0.355  12.808  12.882
70278SOL     OW12607   9.671   0.486   4.946
70278SOL    HW112608   9.588   0.503   4.902
70278SOL    HW212609   9.728   0.452   4.877
70279SOL     OW12610  11.446  12.860  10.026
70279SOL    HW112611  11.502  12.886   9.953
70279SOL    HW212612  11.506  12.820  10.089
70280SOL     OW12613   6.277   9.493   5.255
70280SOL    HW112614   6.188   9.518   5.229
70280SOL    HW212615   6.264   9.436   5.331
70281SOL     OW12616  10.212  11.118   6.409
70281SOL    HW112617  10.206  11.193   6.468
70281SOL    HW212618  10.304  11.091   6.415
70282SOL     OW12619   5.629   2.131   9.403
70282SOL    HW112620   5.717   2.104   9.432
70282SOL    HW212621   5.577   2.051   9.410
70283SOL     OW12622  13.189   3.382   2.111
70283SOL    HW112623  13.167   3.470   2.142
70283SOL    HW212624  13.146   3.375   2.026
70284SOL     OW12625   9.284  13.307  14.304
70284SOL    HW112626   9.346  13.279  14.371
70284SOL    HW212627   9.225  13.233  14.293
70285SOL     OW12628   1.303  13.210   2.548
70285SOL    HW112629   1.217  13.191   2.509
70285SOL    HW212630   1.292  13.188   2.641
70286SOL     OW12631  10.279  10.072   0.707
70286SOL    HW112632  10.260  10.004   0.771
70286SOL    HW212633  10.375  10.072   0.701
70287SOL     OW12634   3.019   8.976  13.381
70287SOL    HW112635   3.047   8.949  13.293
70287SOL    HW212636   3.055   8.909  13.439
70288SOL     OW12637   6.011  11.591  11.965
70288SOL    HW112638   6.071  11.606  11.892
70288SOL    HW212639   5.966  11.509  11.944
70289SOL     OW12640   6.129   4.229  10.196
70289SOL    HW112641   6.086   4.313  10.178
70289SOL    HW212642   6.114   4.214  10.289
70290SOL     OW12643   9.513   2.661   1.401
70290SOL    HW112644   9.429   2.677   1.358
70290SOL    HW212645   9.569   2.626   1.333
70291SOL     OW12646   9.000   7.499   0.480
70291SOL    HW112647   8.951   7.580   0.472
70291SOL    HW212648   8.939   7.431   0.449
70292SOL     OW12649   6.235   8.874   3.634
70292SOL    HW112650   6.315   8.926   3.628
70292SOL    HW212651   6.261   8.787   3.603
70293SOL     OW12652   0.583  10.902   9.877
70293SOL    HW112653   0.628  10.918   9.959
70293SOL    HW212654   0.497  10.943   9.888
70294SOL     OW12655   2.487   8.356  13.302
70294SOL    HW112656   2.568   8.305  13.305
70294SOL    HW212657   2.427   8.303  13.248
70295SOL     OW12658   8.075  14.571   5.360
70295SOL    HW112659   8.093  14.478   5.346
70295SOL    HW212660   8.106  14.613   5.280
70296SOL     OW12661   3.538   3.164  11.388
70296SOL    HW112662   3.461   3.210  11.422
70296SOL    HW212663   3.566   3.108  11.460
70297SOL     OW12664  13.595  11.537  13.929
70297SOL    HW112665  13.617  11.468  13.992
70297SOL    HW212666  13.499  11.541  13.931
70298SOL     OW12667  10.012   1.733  11.964
70298SOL    HW112668   9.932   1.785  11.964
70298SOL    HW212669   9.992   1.657  11.909
70299SOL     OW12670   5.602  14.165  11.785
70299SOL    HW112671   5.551  14.109  11.726
70299SOL    HW212672   5.561  14.152  11.870
70300SOL     OW12673   6.148   2.465   7.620
70300SOL    HW112674   6.063   2.448   7.580
70300SOL    HW212675   6.163   2.558   7.603
70301SOL     OW12676  12.870   9.684   4.333
70301SOL    HW112677  12.828   9.601   4.350
70301SOL    HW212678  12.931   9.697   4.406
70302SOL     OW12679   8.380   3.273   0.948
70302SOL    HW112680   8.342   3.245   1.032
70302SOL    HW212681   8.393   3.191   0.900
70303SOL     OW12682   0.151   2.305   3.106
70303SOL    HW112683   0.237   2.345   3.120
70303SOL    HW212684   0.143   2.241   3.176
70304SOL     OW12685   3.446   6.948   3.052
70304SOL    HW112686   3.424   7.019   3.114
70304SOL    HW212687   3.362   6.908   3.032
70305SOL     OW12688   6.838   7.826  11.646
70305SOL    HW112689   6.749   7.826  11.610
70305SOL    HW212690   6.852   7.916  11.676
70306SOL     OW12691  10.210   5.061  14.133
70306SOL    HW112692  10.164   5.009  14.067
70306SOL    HW212693  10.205   5.008  14.213
70307SOL     OW12694  12.445   7.960   9.402
70307SOL    HW112695  12.386   8.024   9.441
70307SOL    HW212696  12.408   7.943   9.315
70308SOL     OW12697  13.696   6.576  10.934
70308SOL    HW112698  13.601   6.586  10.925
70308SOL    HW212699  13.726   6.558  10.845
70309SOL     OW12700   3.213   2.514   8.584
70309SOL    HW112701   3.235   2.426   8.553
70309SOL    HW212702   3.167   2.555   8.511
70310SOL     OW12703   0.664  12.533   4.707
70310SOL    HW112704   0.727  12.463   4.724
70310SOL    HW212705   0.718  12.612   4.700
70311SOL     OW12706  13.156   7.846   9.402
70311SOL    HW112707  13.153   7.754   9.429
70311SOL    HW212708  13.160   7.895   9.483
70312SOL     OW12709   6.432   2.865  10.326
70312SOL    HW112710   6.345   2.834  10.351
70312SOL    HW212711   6.437   2.953  10.363
70313SOL     OW12712   2.767   9.985  14.237
70313SOL    HW112713   2.808   9.918  14.182
70313SOL    HW212714   2.688  10.009  14.189
70314SOL     OW12715  10.467   2.515  13.059
70314SOL    HW112716  10.449   2.429  13.022
70314SOL    HW212717  10.387   2.539  13.105
70315SOL     OW12718   5.131  10.983   9.906
70315SOL    HW112719   5.202  11.047   9.899
70315SOL    HW212720   5.078  11.014   9.980
70316SOL     OW12721   5.988  10.924   0.355
70316SOL    HW112722   5.992  10.892   0.445
70316SOL    HW212723   5.899  10.958   0.346
70317SOL     OW12724  14.485  14.776   6.637
70317SOL    HW112725  14.483  14.822   6.553
70317SOL    HW212726  14.565  14.723   6.633
70318SOL     OW12727   8.038   7.730  12.218
70318SOL    HW112728   8.054   7.644  12.178
70318SOL    HW212729   8.080   7.725  12.304
70319SOL     OW12730   0.192   8.749   4.961
70319SOL    HW112731   0.156   8.828   4.920
70319SOL    HW212732   0.197   8.772   5.054
70320SOL     OW12733   8.092   0.865   6.193
70320SOL    HW112734   8.139   0.909   6.264
70320SOL    HW212735   8.158   0.849   6.126
70321SOL     OW12736   6.697   7.359   0.851
70321SOL    HW112737   6.696   7.342   0.757
70321SOL    HW212738   6.751   7.437   0.861
70322SOL     OW12739  11.028   1.608  14.259
70322SOL    HW112740  11.071   1.693  14.248
70322SOL    HW212741  11.040   1.587  14.352
70323SOL     OW12742   4.644   1.457   0.159
70323SOL    HW112743   4.608   1.531   0.109
70323SOL    HW212744   4.658   1.493   0.246
70324SOL     OW12745  13.379   4.750   8.379
70324SOL    HW112746  13.392   4.683   8.447
70324SOL    HW212747  13.376   4.701   8.297
70325SOL     OW12748  12.327   1.998   1.340
70325SOL    HW112749  12.299   2.010   1.431
70325SOL    HW212750  12.420   1.980   1.346
70326SOL     OW12751   9.566   3.308   9.447
70326SOL    HW112752   9.501   3.349   9.390
70326SOL    HW212753   9.649   3.347   9.421
70327SOL     OW12754  10.451   8.676  10.140
70327SOL    HW112755  10.367   8.687  10.184
70327SOL    HW212756  10.428   8.647  10.052
70328SOL     OW12757   3.575   0.261   9.398
70328SOL    HW112758   3.519   0.241   9.473
70328SOL    HW212759   3.653   0.301   9.436
70329SOL     OW12760   2.602  14.805  13.972
70329SOL    HW112761   2.571  14.730  14.022
70329SOL    HW212762   2.665  14.769  13.911
70330SOL     OW12763   3.974  11.592   9.943
70330SOL    HW112764   3.989  11.594   9.848
70330SOL    HW212765   4.037  11.527   9.976
70331SOL     OW12766   9.027   7.408   6.080
70331SOL    HW112767   9.077   7.488   6.091
70331SOL    HW212768   9.032   7.364   6.165
70332SOL     OW12769   8.472  12.138   2.840
70332SOL    HW112770   8.417  12.208   2.805
70332SOL    HW212771   8.529  12.113   2.768
70333SOL     OW12772  10.368   1.162   8.474
70333SOL    HW112773  10.436   1.139   8.412
70333SOL    HW212774  10.314   1.084   8.482
70334SOL     OW12775   7.335   5.821  12.241
70334SOL    HW112776   7.330   5.726  12.246
70334SOL    HW212777   7.312   5.841  12.150
70335SOL     OW12778  11.259  12.964   5.275
70335SOL    HW112779  11.165  12.966   5.256
70335SOL    HW212780  11.291  13.051   5.253
70336SOL     OW12781   7.537   1.268   8.563
70336SOL    HW112782   7.493   1.301   8.642
70336SOL    HW212783   7.471   1.214   8.520
70337SOL     OW12784   6.922  12.430   1.938
70337SOL    HW112785   6.950  12.515   1.974
70337SOL    HW212786   6.867  12.392   2.006
70338SOL     OW12787   3.746   8.322  13.143
70338SOL    HW112788   3.678   8.255  13.136
70338SOL    HW212789   3.760   8.333  13.237
70339SOL     OW12790   3.328  13.575   5.123
70339SOL    HW112791   3.298  13.609   5.208
70339SOL    HW212792   3.415  13.539   5.142
70340SOL     OW12793   7.509   7.728   5.518
70340SOL    HW112794   7.462   7.779   5.583
70340SOL    HW212795   7.578   7.684   5.567
70341SOL     OW12796  11.150  12.917   6.762
70341SOL    HW112797  11.078  12.912   6.699
70341SOL    HW212798  11.112  12.888   6.845
70342SOL     OW12799  13.232  13.653  13.611
70342SOL    HW112800  13.316  13.624  13.574
70342SOL    HW212801  13.166  13.605  13.560
70343SOL     OW12802   9.226   6.884   7.957
70343SOL    HW112803   9.132   6.890   7.973
70343SOL    HW212804   9.250   6.972   7.926
70344SOL     OW12805  14.216   1.943  13.669
70344SOL    HW112806  14.261   2.016  13.627
70344SOL    HW212807  14.206   1.969  13.761
70345SOL     OW12808  11.255   7.462   0.126
70345SOL    HW112809  11.224   7.477   0.037
70345SOL    HW212810  11.302   7.379   0.122
70346SOL     OW12811  13.546  13.023   8.044
70346SOL    HW112812  13.537  12.928   8.052
70346SOL    HW212813  13.479  13.058   8.103
70347SOL     OW12814   4.736   2.222   9.033
70347SOL    HW112815   4.743   2.263   9.119
70347SOL    HW212816   4.643   2.228   9.011
70348SOL     OW12817  12.122   8.869   9.449
70348SOL    HW112818  12.122   8.795   9.389
70348SOL    HW212819  12.190   8.848   9.513
70349SOL     OW12820   6.846   2.776   9.990
70349SOL    HW112821   6.792   2.726   9.929
70349SOL    HW212822   6.860   2.860   9.946
70350SOL     OW12823   4.658  12.246   9.025
70350SOL    HW112824   4.639  12.238   8.932
70350SOL    HW212825   4.726  12.314   9.029
70351SOL     OW12826  13.626   3.066   5.656
70351SOL    HW112827  13.587   2.988   5.615
70351SOL    HW212828  13.630   3.044   5.749
70352SOL     OW12829   1.366   1.410   3.307
70352SOL    HW112830   1.352   1.319   3.282
70352SOL    HW212831   1.408   1.450   3.231
70353SOL     OW12832   9.230   3.132   6.392
70353SOL    HW112833   9.191   3.082   6.463
70353SOL    HW212834   9.157   3.154   6.335
70354SOL     OW12835   9.840  10.875   4.325
70354SOL    HW112836   9.846  10.939   4.395
70354SOL    HW212837   9.882  10.796   4.359
70355SOL     OW12838   7.859   2.174   4.072
70355SOL    HW112839   7.840   2.122   4.150
70355SOL    HW212840   7.903   2.252   4.105
70356SOL     OW12841   1.557   1.213   2.424
70356SOL    HW112842   1.520   1.139   2.471
70356SOL    HW212843   1.624   1.248   2.482
70357SOL     OW12844   6.848  11.195  13.671
70357SOL    HW112845   6.867  11.111  13.712
70357SOL    HW212846   6.754  11.194  13.655
70358SOL     OW12847   7.323   1.558  10.214
70358SOL    HW112848   7.320   1.648  10.184
70358SOL    HW212849   7.354   1.564  10.304
70359SOL     OW12850  12.932  11.963   4.816
70359SOL    HW112851  12.868  11.954   4.886
70359SOL    HW212852  12.943  12.058   4.806
70360SOL     OW12853   2.158   9.245   8.122
70360SOL    HW112854   2.207   9.203   8.193
70360SOL    HW212855   2.069   9.253   8.157
70361SOL     OW12856  13.239   5.546   5.134
70361SOL    HW112857  13.172   5.591   5.185
70361SOL    HW212858  13.264   5.609   5.067
70362SOL     OW12859  11.486  12.614   5.351
70362SOL    HW112860  11.512  12.526   5.375
70362SOL    HW212861  11.545  12.639   5.280
70363SOL     OW12862   5.779   4.895   1.158
70363SOL    HW112863   5.711   4.925   1.097
70363SOL    HW212864   5.812   4.974   1.198
70364SOL     OW12865   5.252  14.125   3.708
70364SOL    HW112866   5.167  14.140   3.666
70364SOL    HW212867   5.267  14.204   3.760
70365SOL     OW12868  11.833  10.219  14.671
70365SOL    HW112869  11.766  10.273  14.629
70365SOL    HW212870  11.792  10.188  14.751
70366SOL     OW12871  13.478   9.085   6.267
70366SOL    HW112872  13.570   9.090   6.293
70366SOL    HW212873  13.481   9.074   6.172
70367SOL     OW12874   9.863  14.749  10.792
70367SOL    HW112875   9.800  14.743  10.864
70367SOL    HW212876   9.823  14.811  10.731
70368SOL     OW12877   8.126   6.160   0.430
70368SOL    HW112878   8.083   6.240   0.397
70368SOL    HW212879   8.218   6.186   0.441
70369SOL     OW12880   9.851  10.203   2.465
70369SOL    HW112881   9.919  10.157   2.415
70369SOL    HW212882   9.821  10.272   2.406
70370SOL     OW12883  10.063   1.236   1.822
70370SOL    HW112884  10.107   1.227   1.738
70370SOL    HW212885  10.002   1.308   1.810
70371SOL     OW12886   5.036   5.515  14.567
70371SOL    HW112887   4.951   5.509  14.610
70371SOL    HW212888   5.029   5.454  14.493
70372SOL     OW12889   6.065  12.718   1.022
70372SOL    HW112890   6.113  12.740   1.102
70372SOL    HW212891   5.974  12.742   1.042
70373SOL     OW12892   6.288   0.754   3.942
70373SOL    HW112893   6.251   0.679   3.988
70373SOL    HW212894   6.278   0.827   4.003
70374SOL     OW12895   5.504   5.733  11.454
70374SOL    HW112896   5.569   5.698  11.393
70374SOL    HW212897   5.555   5.781  11.519
70375SOL     OW12898   4.366  14.167   8.329
70375SOL    HW112899   4.294  14.169   8.391
70375SOL    HW212900   4.334  14.114   8.256
70376SOL     OW12901   7.402  13.489   7.728
70376SOL    HW112902   7.414  13.579   7.696
70376SOL    HW212903   7.490  13.450   7.723
70377SOL     OW12904   6.557   8.945   8.129
70377SOL    HW112905   6.565   8.885   8.203
70377SOL    HW212906   6.463   8.948   8.110
70378SOL     OW12907   8.926   4.174  14.741
70378SOL    HW112908   8.900   4.096  14.791
70378SOL    HW212909   9.020   4.165  14.728
70379SOL     OW12910   3.531   8.286  14.312
70379SOL    HW112911   3.437   8.297  14.295
70379SOL    HW212912   3.561   8.374  14.335
70380SOL     OW12913   5.236   1.233   7.081
70380SOL    HW112914   5.214   1.239   7.175
70380SOL    HW212915   5.305   1.167   7.077
70381SOL     OW12916   8.357   9.506  12.715
70381SOL    HW112917   8.429   9.558  12.751
70381SOL    HW212918   8.280   9.563  12.723
70382SOL     OW12919   0.895   7.127   9.589
70382SOL    HW112920   0.920   7.165   9.505
70382SOL    HW212921   0.894   7.033   9.574
70383SOL     OW12922  10.901  13.046  12.429
70383SOL    HW112923  10.899  12.952  12.446
70383SOL    HW212924  10.817  13.078  12.463
70384SOL     OW12925   0.738  14.213   6.800
70384SOL    HW112926   0.807  14.156   6.766
70384SOL    HW212927   0.756  14.216   6.895
70385SOL     OW12928   4.709   8.763   2.396
70385SOL    HW112929   4.652   8.812   2.455
70385SOL    HW212930   4.697   8.806   2.311
70386SOL     OW12931  12.231   7.941  11.220
70386SOL    HW112932  12.178   7.957  11.298
70386SOL    HW212933  12.170   7.953  11.147
70387SOL     OW12934  11.301  12.194   9.121
70387SOL    HW112935  11.246  12.117   9.107
70387SOL    HW212936  11.243  12.268   9.101
70388SOL     OW12937   7.939   6.228   8.287
70388SOL    HW112938   7.999   6.172   8.238
70388SOL    HW212939   7.987   6.311   8.297
70389SOL     OW12940  13.153  11.744   4.550
70389SOL    HW112941  13.159  11.836   4.524
70389SOL    HW212942  13.069  11.714   4.515
70390SOL     OW12943  10.142   0.790  12.890
70390SOL    HW112944  10.201   0.865  12.898
70390SOL    HW212945  10.143   0.750  12.977
70391SOL     OW12946   7.251  10.733  11.024
70391SOL    HW112947   7.325  10.673  11.019
70391SOL    HW212948   7.231  10.740  11.117
70392SOL     OW12949   1.897   9.169   3.394
70392SOL    HW112950   1.812   9.145   3.358
70392SOL    HW212951   1.957   9.166   3.319
70393SOL     OW12952   6.608  13.627   1.226
70393SOL    HW112953   6.695  13.590   1.211
70393SOL    HW212954   6.548  13.565   1.185
70394SOL     OW12955  11.596  13.909   4.602
70394SOL    HW112956  11.655  13.983   4.615
70394SOL    HW212957  11.564  13.919   4.513
70395SOL     OW12958  10.661   6.388   0.051
70395SOL    HW112959  10.605   6.362  14.856
70395SOL    HW212960  10.642   6.326   0.120
70396SOL     OW12961   3.521   6.352   4.902
70396SOL    HW112962   3.579   6.287   4.864
70396SOL    HW212963   3.533   6.343   4.997
70397SOL     OW12964   5.119  12.961   9.013
70397SOL    HW112965   5.178  13.036   9.017
70397SOL    HW212966   5.174  12.885   9.034
70398SOL     OW12967   0.525   0.638   0.338
70398SOL    HW112968   0.521   0.625   0.433
70398SOL    HW212969   0.558   0.728   0.328
70399SOL     OW12970   7.319   9.034   0.474
70399SOL    HW112971   7.240   8.983   0.489
70399SOL    HW212972   7.303   9.080   0.392
70400SOL     OW12973   0.873  12.998  11.572
70400SOL    HW112974   0.816  13.065  11.609
70400SOL    HW212975   0.952  13.001  11.625
70401SOL     OW12976  13.820   6.532   4.695
70401SOL    HW112977  13.882   6.491   4.756
70401SOL    HW212978  13.735   6.523   4.738
70402SOL     OW12979   8.730   4.186  13.636
70402SOL    HW112980   8.789   4.251  13.599
70402SOL    HW212981   8.786   4.131  13.691
70403SOL     OW12982   8.720   0.080   4.800
70403SOL    HW112983   8.680  14.871   4.793
70403SOL    HW212984   8.698   0.123   4.718
70404SOL     OW12985   4.757  13.795   8.535
70404SOL    HW112986   4.807  13.730   8.485
70404SOL    HW212987   4.738  13.752   8.618
70405SOL     OW12988  12.408   4.906   1.637
70405SOL    HW112989  12.410   4.956   1.719
70405SOL    HW212990  12.457   4.959   1.575
70406SOL     OW12991   8.932   3.780   7.967
70406SOL    HW112992   8.947   3.712   8.033
70406SOL    HW212993   8.897   3.733   7.892
70407SOL     OW12994   8.368   3.150  12.784
70407SOL    HW112995   8.454   3.123  12.816
70407SOL    HW212996   8.363   3.114  12.696
70408SOL     OW12997  10.512   0.090   8.294
70408SOL    HW112998  10.455   0.123   8.224
70408SOL    HW212999  10.454   0.081   8.370
70409SOL     OW13000   5.529   1.944   9.144
70409SOL    HW113001   5.491   1.938   9.232
70409SOL    HW213002   5.479   2.012   9.100
70410SOL     OW13003  13.597   0.200   2.171
70410SOL    HW113004  13.651   0.265   2.126
70410SOL    HW213005  13.584   0.131   2.106
70411SOL     OW13006   3.334  10.134   7.796
70411SOL    HW113007   3.252  10.166   7.759
70411SOL    HW213008   3.309  10.101   7.883
70412SOL     OW13009  13.193   0.179  11.648
70412SOL    HW113010  13.189   0.154  11.556
70412SOL    HW213011  13.219   0.272  11.647
70413SOL     OW13012  14.723   4.453   0.382
70413SOL    HW113013  14.699   4.534   0.426
70413SOL    HW213014  14.681   4.384   0.433
70414SOL     OW13015  14.622  10.705   2.109
70414SOL    HW113016  14.589  10.756   2.183
70414SOL    HW213017  14.598  10.756   2.031
70415SOL     OW13018  11.311   1.890   2.670
70415SOL    HW113019  11.245   1.935   2.617
70415SOL    HW213020  11.348   1.825   2.611
70416SOL     OW13021   1.312  12.045  12.152
70416SOL    HW113022   1.389  12.043  12.209
70416SOL    HW213023   1.347  12.037  12.063
70417SOL     OW13024   0.291   3.138   5.535
70417SOL    HW113025   0.220   3.193   5.502
70417SOL    HW213026   0.247   3.071   5.587
70418SOL     OW13027   1.714   5.683   8.700
70418SOL    HW113028   1.640   5.622   8.706
70418SOL    HW213029   1.763   5.653   8.624
70419SOL     OW13030   5.214   8.304   1.199
70419SOL    HW113031   5.294   8.266   1.161
70419SOL    HW213032   5.187   8.241   1.266
70420SOL     OW13033   7.649   1.939  13.958
70420SOL    HW113034   7.591   1.873  13.921
70420SOL    HW213035   7.673   1.905  14.045
70421SOL     OW13036   9.463   0.144   0.955
70421SOL    HW113037   9.459   0.084   0.880
70421SOL    HW213038   9.440   0.090   1.031
70422SOL     OW13039  10.795   6.071   4.479
70422SOL    HW113040  10.712   6.041   4.516
70422SOL    HW213041  10.819   6.003   4.416
70423SOL     OW13042  12.724   6.980   5.335
70423SOL    HW113043  12.725   7.073   5.311
70423SOL    HW213044  12.809   6.946   5.308
70424SOL     OW13045  12.512  14.721   0.245
70424SOL    HW113046  12.488  14.744   0.155
70424SOL    HW213047  12.488  14.629   0.254
70425SOL     OW13048   1.422  10.318   8.504
70425SOL    HW113049   1.352  10.354   8.559
70425SOL    HW213050   1.454  10.393   8.454
70426SOL     OW13051  13.248   6.772   5.478
70426SOL    HW113052  13.262   6.767   5.383
70426SOL    HW213053  13.275   6.860   5.502
70427SOL     OW13054  14.019  10.794  11.322
70427SOL    HW113055  14.067  10.724  11.278
70427SOL    HW213056  14.069  10.873  11.302
70428SOL     OW13057  12.293   9.711   9.990
70428SOL    HW113058  12.204   9.703  10.024
70428SOL    HW213059  12.345   9.732  10.068
70429SOL     OW13060   9.589   1.824   9.762
70429SOL    HW113061   9.650   1.766   9.808
70429SOL    HW213062   9.532   1.858   9.831
70430SOL     OW13063   9.795   0.141   4.343
70430SOL    HW113064   9.869   0.187   4.302
70430SOL    HW213065   9.823   0.049   4.346
70431SOL     OW13066  10.597   6.203   0.249
70431SOL    HW113067  10.676   6.170   0.293
70431SOL    HW213068  10.567   6.129   0.196
70432SOL     OW13069  11.267   8.977   7.247
70432SOL    HW113070  11.235   8.998   7.159
70432SOL    HW213071  11.196   8.928   7.288
70433SOL     OW13072   3.836   6.832  12.062
70433SOL    HW113073   3.784   6.910  12.041
70433SOL    HW213074   3.772   6.762  12.073
70434SOL     OW13075   7.264   7.077   8.620
70434SOL    HW113076   7.327   7.119   8.679
70434SOL    HW213077   7.302   6.992   8.601
70435SOL     OW13078   2.887   1.040  14.080
70435SOL    HW113079   2.829   1.089  14.022
70435SOL    HW213080   2.974   1.076  14.063
70436SOL     OW13081   7.879   8.381  11.904
70436SOL    HW113082   7.956   8.360  11.958
70436SOL    HW213083   7.901   8.348  11.817
70437SOL     OW13084  13.887   7.323   9.070
70437SOL    HW113085  13.858   7.297   9.158
70437SOL    HW213086  13.954   7.390   9.086
70438SOL     OW13087   4.433   9.474  10.399
70438SOL    HW113088   4.365   9.435  10.344
70438SOL    HW213089   4.386   9.538  10.452
70439SOL     OW13090   4.567   0.256   0.362
70439SOL    HW113091   4.561   0.272   0.268
70439SOL    HW213092   4.550   0.162   0.371
70440SOL     OW13093  13.145  10.870  13.625
70440SOL    HW113094  13.186  10.920  13.696
70440SOL    HW213095  13.086  10.810  13.669
70441SOL     OW13096   2.626  11.529  10.154
70441SOL    HW113097   2.594  11.519  10.244
70441SOL    HW213098   2.569  11.472  10.102
70442SOL     OW13099  13.430  10.189   4.440
70442SOL    HW113100  13.460  10.239   4.364
70442SOL    HW213101  13.510  10.151   4.476
70443SOL     OW13102   9.720  12.952   2.721
70443SOL    HW113103   9.746  12.917   2.636
70443SOL    HW213104   9.748  13.044   2.718
70444SOL     OW13105  10.562   7.573   8.177
70444SOL    HW113106  10.490   7.601   8.120
70444SOL    HW213107  10.522   7.509   8.236
70445SOL     OW13108  13.954   8.020   1.723
70445SOL    HW113109  13.930   8.108   1.751
70445SOL    HW213110  14.048   8.024   1.708
70446SOL     OW13111   0.875  13.903   7.675
70446SOL    HW113112   0.901  13.832   7.617
70446SOL    HW213113   0.830  13.859   7.748
70447SOL     OW13114   9.177   0.307   2.903
70447SOL    HW113115   9.198   0.378   2.843
70447SOL    HW213116   9.241   0.315   2.974
70448SOL     OW13117  13.776   3.260  12.439
70448SOL    HW113118  13.853   3.257  12.382
70448SOL    HW213119  13.702   3.261  12.378
70449SOL     OW13120  14.099   9.704   2.553
70449SOL    HW113121  14.168   9.693   2.618
70449SOL    HW213122  14.059   9.618   2.544
70450SOL     OW13123  10.775   7.415   2.167
70450SOL    HW113124  10.722   7.340   2.139
70450SOL    HW213125  10.856   7.376   2.200
70451SOL     OW13126   5.347  13.234   7.142
70451SOL    HW113127   5.354  13.169   7.212
70451SOL    HW213128   5.435  13.239   7.105
70452SOL     OW13129   7.525   5.051   5.526
70452SOL    HW113130   7.501   5.102   5.449
70452SOL    HW213131   7.444   5.042   5.575
70453SOL     OW13132   1.841   6.759  14.707
70453SOL    HW113133   1.832   6.790  14.616
70453SOL    HW213134   1.935   6.761  14.724
70454SOL     OW13135   6.123   2.486   7.208
70454SOL    HW113136   6.179   2.469   7.132
70454SOL    HW213137   6.041   2.518   7.170
70455SOL     OW13138   0.674  10.770   1.112
70455SOL    HW113139   0.699  10.756   1.204
70455SOL    HW213140   0.579  10.779   1.114
70456SOL     OW13141   2.312  10.040  10.241
70456SOL    HW113142   2.405  10.019  10.247
70456SOL    HW213143   2.309  10.132  10.217
70457SOL     OW13144  12.613   6.561   0.052
70457SOL    HW113145  12.577   6.551   0.140
70457SOL    HW213146  12.536   6.565  14.873
70458SOL     OW13147  11.455   6.016   7.096
70458SOL    HW113148  11.382   6.054   7.144
70458SOL    HW213149  11.469   5.930   7.138
70459SOL     OW13150   0.702   2.946   1.959
70459SOL    HW113151   0.751   2.986   1.887
70459SOL    HW213152   0.718   3.004   2.033
70460SOL     OW13153   8.852   2.774   5.002
70460SOL    HW113154   8.811   2.840   5.058
70460SOL    HW213155   8.815   2.691   5.030
70461SOL     OW13156   2.319   7.355  14.129
70461SOL    HW113157   2.337   7.317  14.215
70461SOL    HW213158   2.332   7.282  14.068
70462SOL     OW13159  13.731   7.221   1.538
70462SOL    HW113160  13.714   7.315   1.538
70462SOL    HW213161  13.651   7.182   1.572
70463SOL     OW13162   3.797  12.402   8.018
70463SOL    HW113163   3.716  12.384   7.970
70463SOL    HW213164   3.798  12.336   8.088
70464SOL     OW13165   3.147  11.355   3.020
70464SOL    HW113166   3.147  11.443   2.983
70464SOL    HW213167   3.207  11.359   3.094
70465SOL     OW13168  12.426  11.778  10.054
70465SOL    HW113169  12.438  11.763  10.148
70465SOL    HW213170  12.466  11.702  10.012
70466SOL     OW13171  11.667   0.481  13.392
70466SOL    HW113172  11.668   0.501  13.298
70466SOL    HW213173  11.596   0.535  13.427
70467SOL     OW13174   8.955   9.358   4.836
70467SOL    HW113175   8.913   9.438   4.803
70467SOL    HW213176   8.992   9.317   4.759
70468SOL     OW13177   0.154   6.803   0.564
70468SOL    HW113178   0.246   6.823   0.544
70468SOL    HW213179   0.139   6.717   0.525
70469SOL     OW13180  12.977  11.923  12.044
70469SOL    HW113181  12.911  11.968  11.991
70469SOL    HW213182  12.931  11.900  12.125
70470SOL     OW13183   2.497  14.795  12.219
70470SOL    HW113184   2.517  14.785  12.312
70470SOL    HW213185   2.577  14.833  12.182
70471SOL     OW13186   3.339   0.904   5.972
70471SOL    HW113187   3.412   0.928   5.915
70471SOL    HW213188   3.333   0.976   6.035
70472SOL     OW13189   6.153  11.875   1.671
70472SOL    HW113190   6.063  11.870   1.640
70472SOL    HW213191   6.206  11.888   1.593
70473SOL     OW13192  10.130  11.372  10.968
70473SOL    HW113193  10.112  11.439  10.902
70473SOL    HW213194  10.056  11.376  11.028
70474SOL     OW13195   2.044   1.533   6.422
70474SOL    HW113196   1.972   1.592   6.444
70474SOL    HW213197   2.113   1.590   6.389
70475SOL     OW13198  11.357   7.116   6.003
70475SOL    HW113199  11.400   7.031   5.998
70475SOL    HW213200  11.424   7.175   6.038
70476SOL     OW13201   8.858  14.748  12.919
70476SOL    HW113202   8.840  14.707  12.835
70476SOL    HW213203   8.864  14.842  12.899
70477SOL     OW13204   5.823   5.702   6.486
70477SOL    HW113205   5.865   5.696   6.572
70477SOL    HW213206   5.841   5.792   6.457
70478SOL     OW13207   6.184   3.560  12.933
70478SOL    HW113208   6.247   3.611  12.984
70478SOL    HW213209   6.130   3.516  12.998
70479SOL     OW13210   6.081   7.898   9.481
70479SOL    HW113211   6.044   7.933   9.562
70479SOL    HW213212   6.053   7.960   9.414
70480SOL     OW13213  14.340   7.877   8.263
70480SOL    HW113214  14.291   7.957   8.246
70480SOL    HW213215  14.415   7.881   8.204
70481SOL     OW13216   5.267  13.391   5.436
70481SOL    HW113217   5.266  13.303   5.400
70481SOL    HW213218   5.336  13.390   5.502
70482SOL     OW13219   0.201   3.247   2.181
70482SOL    HW113220   0.153   3.234   2.099
70482SOL    HW213221   0.227   3.160   2.208
70483SOL     OW13222   1.003  10.125   6.321
70483SOL    HW113223   0.980  10.184   6.394
70483SOL    HW213224   1.095  10.145   6.304
70484SOL     OW13225   1.763   2.938   4.912
70484SOL    HW113226   1.771   2.858   4.859
70484SOL    HW213227   1.685   2.923   4.965
70485SOL     OW13228  12.398  10.208  10.082
70485SOL    HW113229  12.355  10.293  10.086
70485SOL    HW213230  12.383  10.177   9.993
70486SOL     OW13231   2.755   8.942   8.051
70486SOL    HW113232   2.847   8.928   8.029
70486SOL    HW213233   2.709   8.933   7.967
70487SOL     OW13234   1.450   2.166   6.278
70487SOL    HW113235   1.526   2.163   6.219
70487SOL    HW213236   1.486   2.192   6.362
70488SOL     OW13237  12.307  10.033   3.202
70488SOL    HW113238  12.215  10.029   3.226
70488SOL    HW213239  12.320  10.122   3.170
70489SOL     OW13240  13.842   9.786   7.740
70489SOL    HW113241  13.903   9.843   7.785
70489SOL    HW213242  13.769   9.775   7.802
70490SOL     OW13243   2.530   5.008   5.558
70490SOL    HW113244   2.477   4.933   5.531
70490SOL    HW213245   2.616   4.971   5.579
70491SOL     OW13246   8.648   3.363   3.937
70491SOL    HW113247   8.572   3.368   3.879
70491SOL    HW213248   8.718   3.404   3.887
70492SOL     OW13249   4.186   9.351  11.769
70492SOL    HW113250   4.235   9.293  11.826
70492SOL    HW213251   4.171   9.430  11.821
70493SOL     OW13252  11.529   1.827   4.188
70493SOL    HW113253  11.600   1.888   4.208
70493SOL    HW213254  11.452   1.883   4.179
70494SOL     OW13255   3.406   6.784  13.440
70494SOL    HW113256   3.345   6.761  13.510
70494SOL    HW213257   3.352   6.783  13.360
70495SOL     OW13258  12.038  10.023  10.016
70495SOL    HW113259  12.111   9.986   9.966
70495SOL    HW213260  12.013  10.101   9.967
70496SOL     OW13261   9.097  12.417   7.246
70496SOL    HW113262   9.066  12.327   7.237
70496SOL    HW213263   9.088  12.437   7.339
70497SOL     OW13264  11.111   0.459   5.368
70497SOL    HW113265  11.127   0.369   5.338
70497SOL    HW213266  11.135   0.514   5.293
70498SOL     OW13267   3.739   1.038   5.419
70498SOL    HW113268   3.688   1.108   5.380
70498SOL    HW213269   3.674   0.973   5.448
70499SOL     OW13270   4.066  12.171   9.918
70499SOL    HW113271   4.135  12.105   9.917
70499SOL    HW213272   4.031  12.170   9.828
70500SOL     OW13273   2.619  11.941   9.059
70500SOL    HW113274   2.676  11.866   9.076
70500SOL    HW213275   2.548  11.906   9.006
70501SOL     OW13276   3.326   0.719  12.898
70501SOL    HW113277   3.264   0.784  12.865
70501SOL    HW213278   3.337   0.658  12.825
70502SOL     OW13279   5.891  11.075  11.355
70502SOL    HW113280   5.874  11.048  11.265
70502SOL    HW213281   5.928  11.163  11.348
70503SOL     OW13282  14.077   5.934   5.082
70503SOL    HW113283  14.033   5.945   5.166
70503SOL    HW213284  14.123   6.017   5.068
70504SOL     OW13285  11.930   0.641   8.907
70504SOL    HW113286  11.905   0.566   8.960
70504SOL    HW213287  11.939   0.607   8.819
70505SOL     OW13288   8.584   2.266  11.438
70505SOL    HW113289   8.652   2.284  11.503
70505SOL    HW213290   8.502   2.271  11.488
70506SOL     OW13291  11.063   1.336   4.890
70506SOL    HW113292  11.135   1.331   4.952
70506SOL    HW213293  10.984   1.332   4.944
70507SOL     OW13294   0.357   5.676  11.899
70507SOL    HW113295   0.361   5.587  11.935
70507SOL    HW213296   0.311   5.665  11.815
70508SOL     OW13297   2.221   9.955   9.050
70508SOL    HW113298   2.293   9.910   9.094
70508SOL    HW213299   2.157   9.972   9.119
70509SOL     OW13300   1.838  11.309   8.526
70509SOL    HW113301   1.927  11.275   8.520
70509SOL    HW213302   1.787  11.255   8.466
70510SOL     OW13303   6.538  14.839   6.301
70510SOL    HW113304   6.605  14.787   6.255
70510SOL    HW213305   6.489   0.004   6.231
70511SOL     OW13306  10.067   6.511   9.707
70511SOL    HW113307  10.023   6.551   9.632
70511SOL    HW213308  10.058   6.575   9.778
70512SOL     OW13309   1.806   5.835   9.967
70512SOL    HW113310   1.788   5.916   9.918
70512SOL    HW213311   1.770   5.766   9.913
70513SOL     OW13312   2.574   8.932   8.557
70513SOL    HW113313   2.583   8.990   8.632
70513SOL    HW213314   2.606   8.983   8.483
70514SOL     OW13315   9.969  13.779   3.274
70514SOL    HW113316   9.940  13.870   3.279
70514SOL    HW213317  10.047  13.782   3.217
70515SOL     OW13318  11.668   8.277  13.031
70515SOL    HW113319  11.592   8.331  13.051
70515SOL    HW213320  11.721   8.281  13.111
70516SOL     OW13321   6.542   2.660   9.632
70516SOL    HW113322   6.486   2.642   9.708
70516SOL    HW213323   6.486   2.643   9.557
70517SOL     OW13324   1.828   7.955   5.139
70517SOL    HW113325   1.797   8.002   5.216
70517SOL    HW213326   1.812   8.014   5.066
70518SOL     OW13327   4.987   1.290   0.949
70518SOL    HW113328   4.996   1.385   0.946
70518SOL    HW213329   4.898   1.275   0.980
70519SOL     OW13330  11.631   8.867  14.485
70519SOL    HW113331  11.623   8.783  14.530
70519SOL    HW213332  11.676   8.847  14.403
70520SOL     OW13333   2.783   3.247  11.149
70520SOL    HW113334   2.726   3.192  11.096
70520SOL    HW213335   2.724   3.312  11.188
70521SOL     OW13336   3.015  11.221   7.548
70521SOL    HW113337   2.929  11.201   7.585
70521SOL    HW213338   3.076  11.209   7.621
70522SOL     OW13339   5.730  10.126   6.802
70522SOL    HW113340   5.657  10.172   6.760
70522SOL    HW213341   5.806  10.184   6.788
70523SOL     OW13342   9.639   1.249  11.086
70523SOL    HW113343   9.683   1.225  11.005
70523SOL    HW213344   9.708   1.285  11.142
70524SOL     OW13345  14.222   6.966  11.487
70524SOL    HW113346  14.279   6.935  11.558
70524SOL    HW213347  14.218   6.894  11.425
70525SOL     OW13348   5.688   7.462   6.860
70525SOL    HW113349   5.694   7.366   6.859
70525SOL    HW213350   5.748   7.489   6.929
70526SOL     OW13351   2.854   7.165   9.580
70526SOL    HW113352   2.783   7.206   9.532
70526SOL    HW213353   2.933   7.200   9.541
70527SOL     OW13354   8.567  14.327   5.517
70527SOL    HW113355   8.631  14.279   5.464
70527SOL    HW213356   8.562  14.413   5.477
70528SOL     OW13357  14.474   8.686   4.643
70528SOL    HW113358  14.558   8.730   4.656
70528SOL    HW213359  14.488   8.597   4.674
70529SOL     OW13360   9.772   4.378   9.776
70529SOL    HW113361   9.794   4.285   9.779
70529SOL    HW213362   9.836   4.420   9.834
70530SOL     OW13363  13.475  10.724   3.732
70530SOL    HW113364  13.439  10.704   3.645
70530SOL    HW213365  13.569  10.708   3.723
70531SOL     OW13366   3.492   5.119   7.219
70531SOL    HW113367   3.463   5.091   7.306
70531SOL    HW213368   3.413   5.154   7.178
70532SOL     OW13369   4.003   7.225  13.356
70532SOL    HW113370   4.095   7.207  13.379
70532SOL    HW213371   3.955   7.207  13.437
70533SOL     OW13372  12.945  11.076   6.061
70533SOL    HW113373  12.934  10.981   6.058
70533SOL    HW213374  12.944  11.104   5.970
70534SOL     OW13375   4.376   9.996   0.727
70534SOL    HW113376   4.471   9.986   0.719
70534SOL    HW213377   4.364  10.051   0.805
70535SOL     OW13378   5.421   7.482   7.235
70535SOL    HW113379   5.363   7.533   7.292
70535SOL    HW213380   5.509   7.503   7.265
70536SOL     OW13381  11.107   3.462  13.624
70536SOL    HW113382  11.151   3.540  13.591
70536SOL    HW213383  11.032   3.496  13.673
70537SOL     OW13384   9.009   4.720   0.049
70537SOL    HW113385   9.001   4.647  14.866
70537SOL    HW213386   9.029   4.795  14.872
70538SOL     OW13387   8.538  14.695   4.895
70538SOL    HW113388   8.495  14.615   4.923
70538SOL    HW213389   8.468  14.747   4.855
70539SOL     OW13390   5.201  10.470  14.283
70539SOL    HW113391   5.288  10.504  14.265
70539SOL    HW213392   5.142  10.543  14.266
70540SOL     OW13393   2.146   2.315   5.999
70540SOL    HW113394   2.123   2.239   5.946
70540SOL    HW213395   2.111   2.390   5.951
70541SOL     OW13396   4.021   4.317   0.047
70541SOL    HW113397   3.975   4.326   0.130
70541SOL    HW213398   3.976   4.246   0.002
70542SOL     OW13399  12.879  12.046   8.756
70542SOL    HW113400  12.964  12.004   8.748
70542SOL    HW213401  12.860  12.079   8.668
70543SOL     OW13402  13.161   4.085   7.960
70543SOL    HW113403  13.082   4.073   7.908
70543SOL    HW213404  13.233   4.076   7.896
70544SOL     OW13405   3.949   9.650   7.802
70544SOL    HW113406   3.945   9.695   7.886
70544SOL    HW213407   3.858   9.628   7.783
70545SOL     OW13408   2.976   6.189  14.842
70545SOL    HW113409   2.942   6.221   0.047
70545SOL    HW213410   2.899   6.176  14.787
70546SOL     OW13411  13.529   7.156  13.568
70546SOL    HW113412  13.613   7.112  13.554
70546SOL    HW213413  13.553   7.242  13.604
70547SOL     OW13414   2.132  12.078   8.841
70547SOL    HW113415   2.086  12.111   8.918
70547SOL    HW213416   2.122  11.983   8.846
70548SOL     OW13417   2.573   8.226   1.664
70548SOL    HW113418   2.623   8.256   1.740
70548SOL    HW213419   2.482   8.246   1.686
70549SOL     OW13420   1.814  10.684   7.525
70549SOL    HW113421   1.788  10.593   7.507
70549SOL    HW213422   1.888  10.676   7.585
70550SOL     OW13423  12.728  12.941   9.965
70550SOL    HW113424  12.672  12.922   9.890
70550SOL    HW213425  12.751  13.033   9.955
70551SOL     OW13426   0.064   0.448   1.486
70551SOL    HW113427   0.051   0.399   1.567
70551SOL    HW213428   0.108   0.528   1.514
70552SOL     OW13429  10.876   5.323  14.286
70552SOL    HW113430  10.807   5.328  14.221
70552SOL    HW213431  10.830   5.316  14.370
70553SOL     OW13432   0.279  13.609   1.502
70553SOL    HW113433   0.278  13.681   1.565
70553SOL    HW213434   0.311  13.648   1.421
70554SOL     OW13435   7.743   0.641   7.084
70554SOL    HW113436   7.781   0.593   7.010
70554SOL    HW213437   7.740   0.577   7.155
70555SOL     OW13438   5.799   8.359   7.760
70555SOL    HW113439   5.847   8.282   7.731
70555SOL    HW213440   5.727   8.367   7.698
70556SOL     OW13441  13.433  12.799   7.943
70556SOL    HW113442  13.384  12.881   7.939
70556SOL    HW213443  13.411  12.753   7.862
70557SOL     OW13444   0.087   4.120  14.744
70557SOL    HW113445   0.052   4.138  14.656
70557SOL    HW213446   0.177   4.093  14.728
70558SOL     OW13447  14.180   3.501  11.131
70558SOL    HW113448  14.206   3.419  11.089
70558SOL    HW213449  14.261   3.553  11.134
70559SOL     OW13450   8.044   1.582   7.491
70559SOL    HW113451   8.131   1.555   7.463
70559SOL    HW213452   7.996   1.598   7.409
70560SOL     OW13453   8.658   1.778  14.144
70560SOL    HW113454   8.621   1.799  14.059
70560SOL    HW213455   8.698   1.691  14.133
70561SOL     OW13456   8.268  13.210  11.013
70561SOL    HW113457   8.178  13.243  11.012
70561SOL    HW213458   8.262  13.121  10.977
70562SOL     OW13459  12.528   1.650  14.299
70562SOL    HW113460  12.436   1.656  14.322
70562SOL    HW213461  12.571   1.618  14.379
70563SOL     OW13462   9.157   9.947  14.088
70563SOL    HW113463   9.091   9.966  14.021
70563SOL    HW213464   9.225  10.013  14.075
70564SOL     OW13465  13.309   8.672   1.402
70564SOL    HW113466  13.369   8.745   1.421
70564SOL    HW213467  13.314   8.661   1.308
70565SOL     OW13468   0.476  13.485   5.900
70565SOL    HW113469   0.550  13.546   5.905
70565SOL    HW213470   0.511  13.403   5.935
70566SOL     OW13471   1.060  10.327   7.222
70566SOL    HW113472   1.128  10.390   7.201
70566SOL    HW213473   0.991  10.378   7.263
70567SOL     OW13474   9.482   8.509   7.611
70567SOL    HW113475   9.420   8.516   7.538
70567SOL    HW213476   9.562   8.473   7.571
70568SOL     OW13477  11.270  14.546   2.112
70568SOL    HW113478  11.315  14.495   2.044
70568SOL    HW213479  11.242  14.480   2.176
70569SOL     OW13480  12.447   8.882   4.921
70569SOL    HW113481  12.494   8.808   4.883
70569SOL    HW213482  12.496   8.903   5.000
70570SOL     OW13483  13.088  13.855   5.695
70570SOL    HW113484  13.050  13.927   5.645
70570SOL    HW213485  13.154  13.818   5.637
70571SOL     OW13486  12.980  10.930  11.419
70571SOL    HW113487  12.999  10.894  11.333
70571SOL    HW213488  12.947  11.018  11.402
70572SOL     OW13489   3.863   5.771   1.923
70572SOL    HW113490   3.837   5.682   1.944
70572SOL    HW213491   3.835   5.823   1.998
70573SOL     OW13492   2.582  11.370   5.682
70573SOL    HW113493   2.548  11.450   5.720
70573SOL    HW213494   2.573  11.383   5.587
70574SOL     OW13495   1.411   9.687   8.764
70574SOL    HW113496   1.398   9.605   8.717
70574SOL    HW213497   1.503   9.688   8.788
70575SOL     OW13498   1.429   0.218  13.643
70575SOL    HW113499   1.458   0.127  13.645
70575SOL    HW213500   1.422   0.239  13.550
70576SOL     OW13501   7.911   4.183   7.631
70576SOL    HW113502   7.914   4.269   7.589
70576SOL    HW213503   7.910   4.202   7.725
70577SOL     OW13504   9.952  11.799   4.011
70577SOL    HW113505   9.894  11.731   3.977
70577SOL    HW213506   9.900  11.879   4.007
70578SOL     OW13507  11.632  11.478   1.435
70578SOL    HW113508  11.696  11.543   1.406
70578SOL    HW213509  11.592  11.446   1.354
70579SOL     OW13510   5.813  11.970   8.453
70579SOL    HW113511   5.783  12.055   8.423
70579SOL    HW213512   5.906  11.982   8.472
70580SOL     OW13513   3.815   4.055   5.720
70580SOL    HW113514   3.794   4.147   5.705
70580SOL    HW213515   3.894   4.039   5.668
70581SOL     OW13516  13.677  13.241   3.857
70581SOL    HW113517  13.598  13.190   3.838
70581SOL    HW213518  13.643  13.325   3.889
70582SOL     OW13519   0.363   9.435   7.610
70582SOL    HW113520   0.306   9.373   7.565
70582SOL    HW213521   0.309   9.512   7.623
70583SOL     OW13522   3.478  14.131   3.843
70583SOL    HW113523   3.497  14.150   3.751
70583SOL    HW213524   3.435  14.211   3.875
70584SOL     OW13525   3.981  13.446   3.896
70584SOL    HW113526   4.071  13.420   3.917
70584SOL    HW213527   3.945  13.370   3.850
70585SOL     OW13528  14.570   7.712  10.692
70585SOL    HW113529  14.508   7.730  10.762
70585SOL    HW213530  14.574   7.617  10.686
70586SOL     OW13531   4.490   7.122  14.069
70586SOL    HW113532   4.558   7.065  14.034
70586SOL    HW213533   4.453   7.166  13.993
70587SOL     OW13534   3.854  14.669   3.319
70587SOL    HW113535   3.886  14.754   3.351
70587SOL    HW213536   3.849  14.615   3.398
70588SOL     OW13537   8.538  11.352   8.645
70588SOL    HW113538   8.536  11.258   8.627
70588SOL    HW213539   8.462  11.387   8.598
70589SOL     OW13540   4.091  13.665  13.274
70589SOL    HW113541   4.010  13.714  13.286
70589SOL    HW213542   4.156  13.731  13.251
70590SOL     OW13543  12.194   1.708  10.744
70590SOL    HW113544  12.284   1.682  10.724
70590SOL    HW213545  12.141   1.663  10.678
70591SOL     OW13546   2.252   9.657   2.798
70591SOL    HW113547   2.183   9.724   2.800
70591SOL    HW213548   2.325   9.699   2.752
70592SOL     OW13549   4.450   7.560   8.044
70592SOL    HW113550   4.458   7.628   8.111
70592SOL    HW213551   4.365   7.520   8.062
70593SOL     OW13552   0.725  11.081   7.239
70593SOL    HW113553   0.702  11.002   7.288
70593SOL    HW213554   0.698  11.154   7.296
70594SOL     OW13555   7.401   5.119   5.074
70594SOL    HW113556   7.392   5.083   5.162
70594SOL    HW213557   7.494   5.137   5.064
70595SOL     OW13558   0.934   2.043   1.057
70595SOL    HW113559   0.980   2.084   1.130
70595SOL    HW213560   0.850   2.089   1.052
70596SOL     OW13561   6.144   8.098  13.589
70596SOL    HW113562   6.198   8.166  13.630
70596SOL    HW213563   6.195   8.067  13.515
70597SOL     OW13564   5.394   6.898   6.057
70597SOL    HW113565   5.479   6.872   6.024
70597SOL    HW213566   5.373   6.979   6.010
70598SOL     OW13567   7.049  11.938   0.787
70598SOL    HW113568   7.042  11.994   0.864
70598SOL    HW213569   7.140  11.948   0.758
70599SOL     OW13570  14.626  11.531   6.036
70599SOL    HW113571  14.605  11.470   6.106
70599SOL    HW213572  14.712  11.503   6.005
70600SOL     OW13573   8.532  12.251   9.191
70600SOL    HW113574   8.440  12.244   9.167
70600SOL    HW213575   8.579  12.261   9.108
70601SOL     OW13576  13.646   8.612  12.130
70601SOL    HW113577  13.711   8.557  12.086
70601SOL    HW213578  13.589   8.550  12.176
70602SOL     OW13579   3.005  12.465   9.461
70602SOL    HW113580   3.014  12.486   9.554
70602SOL    HW213581   2.998  12.550   9.418
70603SOL     OW13582   0.548   3.849  14.091
70603SOL    HW113583   0.591   3.929  14.121
70603SOL    HW213584   0.456   3.873  14.083
70604SOL     OW13585   9.454   1.570  12.469
70604SOL    HW113586   9.369   1.570  12.513
70604SOL    HW213587   9.454   1.491  12.415
70605SOL     OW13588   6.729  12.744   1.812
70605SOL    HW113589   6.806  12.717   1.861
70605SOL    HW213590   6.686  12.662   1.787
70606SOL     OW13591   3.913   8.993   7.713
70606SOL    HW113592   3.913   9.037   7.799
70606SOL    HW213593   3.821   8.979   7.693
70607SOL     OW13594   9.698  10.443  12.845
70607SOL    HW113595   9.702  10.440  12.941
70607SOL    HW213596   9.772  10.390  12.817
70608SOL     OW13597  11.212   8.303  14.053
70608SOL    HW113598  11.139   8.302  14.115
70608SOL    HW213599  11.238   8.211  14.045
70609SOL     OW13600   7.973   6.566   5.271
70609SOL    HW113601   8.017   6.624   5.209
70609SOL    HW213602   8.024   6.574   5.351
70610SOL     OW13603   8.670   3.099   8.905
70610SOL    HW113604   8.742   3.121   8.965
70610SOL    HW213605   8.703   3.124   8.819
70611SOL     OW13606   2.012   3.983   5.689
70611SOL    HW113607   1.997   4.036   5.767
70611SOL    HW213608   1.926   3.943   5.671
70612SOL     OW13609   0.540   6.161  10.783
70612SOL    HW113610   0.514   6.112  10.705
70612SOL    HW213611   0.587   6.237  10.750
70613SOL     OW13612  10.473  13.894   0.594
70613SOL    HW113613  10.442  13.973   0.549
70613SOL    HW213614  10.394  13.844   0.612
70614SOL     OW13615  13.855   4.874  13.621
70614SOL    HW113616  13.925   4.926  13.582
70614SOL    HW213617  13.876   4.871  13.715
70615SOL     OW13618  10.044   5.466  10.953
70615SOL    HW113619  10.091   5.391  10.991
70615SOL    HW213620  10.090   5.484  10.871
70616SOL     OW13621  10.878   3.177   0.792
70616SOL    HW113622  10.927   3.095   0.782
70616SOL    HW213623  10.877   3.193   0.886
70617SOL     OW13624  14.404   0.500   9.056
70617SOL    HW113625  14.361   0.438   8.997
70617SOL    HW213626  14.414   0.580   9.004
70618SOL     OW13627   2.400   2.285   8.841
70618SOL    HW113628   2.446   2.366   8.817
70618SOL    HW213629   2.317   2.289   8.794
70619SOL     OW13630   5.537   8.048   9.546
70619SOL    HW113631   5.549   8.141   9.528
70619SOL    HW213632   5.507   8.011   9.464
70620SOL     OW13633   0.876   9.014   4.129
70620SOL    HW113634   0.802   9.058   4.169
70620SOL    HW213635   0.949   9.076   4.138
70621SOL     OW13636   3.460   2.759  11.031
70621SOL    HW113637   3.434   2.826  11.094
70621SOL    HW213638   3.443   2.799  10.946
70622SOL     OW13639   0.838   6.542  11.283
70622SOL    HW113640   0.813   6.521  11.374
70622SOL    HW213641   0.908   6.607  11.292
70623SOL     OW13642  13.440   2.856   0.367
70623SOL    HW113643  13.503   2.788   0.342
70623SOL    HW213644  13.372   2.852   0.301
70624SOL     OW13645  11.004   6.074   0.346
70624SOL    HW113646  11.029   6.134   0.416
70624SOL    HW213647  11.015   6.125   0.265
70625SOL     OW13648   3.453  10.379  12.831
70625SOL    HW113649   3.537  10.414  12.802
70625SOL    HW213650   3.470  10.287  12.851
70626SOL     OW13651  12.179   4.687   4.514
70626SOL    HW113652  12.121   4.615   4.539
70626SOL    HW213653  12.235   4.701   4.590
70627SOL     OW13654  10.739   1.331   7.497
70627SOL    HW113655  10.685   1.252   7.502
70627SOL    HW213656  10.692   1.396   7.548
70628SOL     OW13657   6.594   3.390   3.706
70628SOL    HW113658   6.526   3.350   3.651
70628SOL    HW213659   6.668   3.403   3.647
70629SOL     OW13660   3.923  11.745   0.434
70629SOL    HW113661   3.852  11.695   0.474
70629SOL    HW213662   3.880  11.799   0.368
70630SOL     OW13663   3.135  10.854  14.547
70630SOL    HW113664   3.179  10.859  14.632
70630SOL    HW213665   3.200  10.812  14.490
70631SOL     OW13666   5.898  10.975   4.771
70631SOL    HW113667   5.829  10.911   4.790
70631SOL    HW213668   5.865  11.058   4.807
70632SOL     OW13669   9.338   1.362   0.658
70632SOL    HW113670   9.405   1.427   0.682
70632SOL    HW213671   9.375   1.318   0.581
70633SOL     OW13672   0.302  11.428   6.802
70633SOL    HW113673   0.240  11.408   6.731
70633SOL    HW213674   0.249  11.472   6.868
70634SOL     OW13675   8.756   3.853   7.339
70634SOL    HW113676   8.753   3.854   7.435
70634SOL    HW213677   8.742   3.762   7.315
70635SOL     OW13678   1.708  12.326   0.951
70635SOL    HW113679   1.673  12.415   0.951
70635SOL    HW213680   1.763  12.321   1.029
70636SOL     OW13681   8.219   2.619   0.841
70636SOL    HW113682   8.301   2.578   0.868
70636SOL    HW213683   8.232   2.713   0.854
70637SOL     OW13684   5.698  12.737   2.336
70637SOL    HW113685   5.770  12.741   2.274
70637SOL    HW213686   5.720  12.802   2.403
70638SOL     OW13687  11.645   3.876   6.407
70638SOL    HW113688  11.692   3.796   6.431
70638SOL    HW213689  11.571   3.845   6.354
70639SOL     OW13690   3.367  11.336   9.471
70639SOL    HW113691   3.334  11.422   9.495
70639SOL    HW213692   3.462  11.344   9.477
70640SOL     OW13693  12.671   6.109   7.160
70640SOL    HW113694  12.682   6.123   7.254
70640SOL    HW213695  12.759   6.087   7.128
70641SOL     OW13696   8.553   1.615   1.970
70641SOL    HW113697   8.457   1.615   1.971
70641SOL    HW213698   8.577   1.534   2.015
70642SOL     OW13699   9.998   0.215   6.046
70642SOL    HW113700  10.064   0.158   6.084
70642SOL    HW213701  10.019   0.219   5.953
70643SOL     OW13702   0.018  12.453  12.819
70643SOL    HW113703   0.098  12.400  12.813
70643SOL    HW213704   0.047  12.536  12.856
70644SOL     OW13705  11.096  10.416  11.464
70644SOL    HW113706  11.082  10.391  11.555
70644SOL    HW213707  11.149  10.495  11.469
70645SOL     OW13708   7.637   6.721   9.101
70645SOL    HW113709   7.652   6.776   9.024
70645SOL    HW213710   7.560   6.759   9.142
70646SOL     OW13711   6.696  13.730   4.722
70646SOL    HW113712   6.745  13.709   4.643
70646SOL    HW213713   6.612  13.684   4.711
70647SOL     OW13714  10.869  11.240   2.257
70647SOL    HW113715  10.866  11.235   2.352
70647SOL    HW213716  10.777  11.252   2.231
70648SOL     OW13717   9.404   9.419   1.923
70648SOL    HW113718   9.331   9.402   1.982
70648SOL    HW213719   9.481   9.421   1.980
70649SOL     OW13720  12.173  10.004   8.766
70649SOL    HW113721  12.207  10.078   8.817
70649SOL    HW213722  12.204  10.021   8.676
70650SOL     OW13723  13.279   0.148   1.281
70650SOL    HW113724  13.328   0.067   1.275
70650SOL    HW213725  13.249   0.152   1.372
70651SOL     OW13726  12.158  10.703   0.496
70651SOL    HW113727  12.227  10.696   0.429
70651SOL    HW213728  12.086  10.651   0.461
70652SOL     OW13729   1.267   2.759  14.593
70652SOL    HW113730   1.239   2.851  14.588
70652SOL    HW213731   1.359   2.762  14.564
70653SOL     OW13732  11.480   2.879   7.659
70653SOL    HW113733  11.471   2.922   7.574
70653SOL    HW213734  11.390   2.877   7.694
70654SOL     OW13735   5.631   7.015   8.210
70654SOL    HW113736   5.711   7.012   8.157
70654SOL    HW213737   5.610   6.922   8.225
70655SOL     OW13738   9.410   6.375   1.706
70655SOL    HW113739   9.452   6.392   1.790
70655SOL    HW213740   9.403   6.280   1.701
70656SOL     OW13741   3.919   1.582   4.658
70656SOL    HW113742   4.006   1.548   4.682
70656SOL    HW213743   3.905   1.654   4.719
70657SOL     OW13744   6.112   1.341   4.789
70657SOL    HW113745   6.155   1.408   4.841
70657SOL    HW213746   6.143   1.354   4.700
70658SOL     OW13747  10.359   6.260   9.875
70658SOL    HW113748  10.401   6.345   9.890
70658SOL    HW213749  10.429   6.196   9.890
70659SOL     OW13750   4.983   0.761   0.612
70659SOL    HW113751   4.913   0.770   0.547
70659SOL    HW213752   4.972   0.836   0.671
70660SOL     OW13753   2.525   8.868   0.976
70660SOL    HW113754   2.584   8.942   0.964
70660SOL    HW213755   2.439   8.901   0.951
70661SOL     OW13756   6.410  10.257   5.203
70661SOL    HW113757   6.445  10.316   5.270
70661SOL    HW213758   6.331  10.221   5.243
70662SOL     OW13759   6.180  13.946   4.465
70662SOL    HW113760   6.207  13.876   4.525
70662SOL    HW213761   6.145  13.900   4.388
70663SOL     OW13762   9.168  10.272  10.871
70663SOL    HW113763   9.210  10.228  10.946
70663SOL    HW213764   9.240  10.290  10.811
70664SOL     OW13765  13.018   0.527   2.138
70664SOL    HW113766  13.055   0.611   2.109
70664SOL    HW213767  12.984   0.487   2.059
70665SOL     OW13768  13.486  13.148  10.730
70665SOL    HW113769  13.457  13.083  10.794
70665SOL    HW213770  13.528  13.216  10.782
70666SOL     OW13771   0.952   9.531   6.212
70666SOL    HW113772   1.016   9.534   6.141
70666SOL    HW213773   0.998   9.486   6.283
70667SOL     OW13774   7.569   5.719  11.808
70667SOL    HW113775   7.590   5.803  11.849
70667SOL    HW213776   7.526   5.743  11.726
70668SOL     OW13777   9.345  10.642   7.606
70668SOL    HW113778   9.309  10.702   7.541
70668SOL    HW213779   9.420  10.603   7.563
70669SOL     OW13780   1.615   6.538  10.705
70669SOL    HW113781   1.575   6.623  10.725
70669SOL    HW213782   1.547   6.490  10.658
70670SOL     OW13783   2.598  14.292   1.881
70670SOL    HW113784   2.659  14.333   1.821
70670SOL    HW213785   2.534  14.361   1.900
70671SOL     OW13786   4.922   1.873   9.155
70671SOL    HW113787   4.930   1.961   9.117
70671SOL    HW213788   4.977   1.876   9.233
70672SOL     OW13789  14.274   2.816  13.626
70672SOL    HW113790  14.206   2.785  13.566
70672SOL    HW213791  14.235   2.807  13.713
70673SOL     OW13792  10.589  13.324   0.089
70673SOL    HW113793  10.614  13.332   0.182
70673SOL    HW213794  10.663  13.363   0.042
70674SOL     OW13795  14.278   1.183   6.382
70674SOL    HW113796  14.319   1.097   6.392
70674SOL    HW213797  14.234   1.179   6.297
70675SOL     OW13798   8.118   9.403  10.318
70675SOL    HW113799   8.095   9.321  10.361
70675SOL    HW213800   8.073   9.399  10.234
70676SOL     OW13801   8.180  11.344  12.364
70676SOL    HW113802   8.086  11.352  12.380
70676SOL    HW213803   8.215  11.431  12.382
70677SOL     OW13804  14.186   1.903  13.098
70677SOL    HW113805  14.187   1.936  13.008
70677SOL    HW213806  14.213   1.977  13.152
70678SOL     OW13807   2.863   9.775   9.865
70678SOL    HW113808   2.810   9.710   9.818
70678SOL    HW213809   2.826   9.859   9.839
70679SOL     OW13810   3.036  11.684   9.842
70679SOL    HW113811   3.083  11.734   9.908
70679SOL    HW213812   2.954  11.659   9.885
70680SOL     OW13813   2.536  10.589  11.258
70680SOL    HW113814   2.556  10.526  11.328
70680SOL    HW213815   2.601  10.571  11.191
70681SOL     OW13816  13.547  11.752   6.133
70681SOL    HW113817  13.562  11.846   6.136
70681SOL    HW213818  13.462  11.742   6.091
70682SOL     OW13819   0.691   7.826  10.157
70682SOL    HW113820   0.637   7.828  10.236
70682SOL    HW213821   0.629   7.819  10.085
70683SOL     OW13822   6.347   3.744  11.189
70683SOL    HW113823   6.291   3.821  11.186
70683SOL    HW213824   6.389   3.747  11.275
70684SOL     OW13825   9.317   7.787  14.325
70684SOL    HW113826   9.226   7.761  14.341
70684SOL    HW213827   9.366   7.748  14.397
70685SOL     OW13828  14.772   7.421   5.998
70685SOL    HW113829  14.747   7.372   6.076
70685SOL    HW213830  14.710   7.495   5.995
70686SOL     OW13831   7.705  10.020   9.419
70686SOL    HW113832   7.794   9.995   9.392
70686SOL    HW213833   7.663  10.048   9.337
70687SOL     OW13834  13.823  12.707   2.107
70687SOL    HW113835  13.802  12.617   2.129
70687SOL    HW213836  13.841  12.706   2.013
70688SOL     OW13837   0.902   1.280   2.924
70688SOL    HW113838   0.825   1.224   2.914
70688SOL    HW213839   0.886   1.355   2.866
70689SOL     OW13840   9.121  10.161   0.117
70689SOL    HW113841   9.192  10.214   0.152
70689SOL    HW213842   9.105  10.095   0.184
70690SOL     OW13843   3.306  11.735   5.838
70690SOL    HW113844   3.339  11.822   5.815
70690SOL    HW213845   3.219  11.730   5.799
70691SOL     OW13846   6.353   5.301  10.854
70691SOL    HW113847   6.293   5.332  10.786
70691SOL    HW213848   6.411   5.239  10.809
70692SOL     OW13849   2.325   9.409  12.903
70692SOL    HW113850   2.323   9.489  12.851
70692SOL    HW213851   2.348   9.438  12.991
70693SOL     OW13852   3.195  12.880   6.375
70693SOL    HW113853   3.246  12.814   6.423
70693SOL    HW213854   3.258  12.949   6.355
70694SOL     OW13855  10.316   6.595   9.610
70694SOL    HW113856  10.233   6.567   9.650
70694SOL    HW213857  10.311   6.562   9.521
70695SOL     OW13858   1.152   1.489  14.498
70695SOL    HW113859   1.149   1.584  14.501
70695SOL    HW213860   1.159   1.468  14.404
70696SOL     OW13861   0.081   7.814  12.845
70696SOL    HW113862   0.159   7.760  12.831
70696SOL    HW213863   0.093   7.888  12.785
70697SOL     OW13864  14.269   4.826   3.642
70697SOL    HW113865  14.338   4.891   3.653
70697SOL    HW213866  14.294   4.753   3.698
70698SOL     OW13867   3.895  11.403   7.619
70698SOL    HW113868   3.843  11.329   7.651
70698SOL    HW213869   3.886  11.399   7.524
70699SOL     OW13870   0.202   3.234   4.808
70699SOL    HW113871   0.200   3.147   4.769
70699SOL    HW213872   0.138   3.284   4.757
70700SOL     OW13873  13.116   1.613   3.115
70700SOL    HW113874  13.098   1.536   3.061
70700SOL    HW213875  13.180   1.582   3.179
70701SOL     OW13876   3.481  11.537   7.053
70701SOL    HW113877   3.521  11.601   7.111
70701SOL    HW213878   3.553  11.508   6.997
70702SOL     OW13879   2.338   3.986   6.172
70702SOL    HW113880   2.348   3.950   6.084
70702SOL    HW213881   2.371   4.076   6.165
70703SOL     OW13882  10.666   9.173   6.944
70703SOL    HW113883  10.729   9.226   6.992
70703SOL    HW213884  10.689   9.186   6.852
70704SOL     OW13885   5.832   3.076   2.206
70704SOL    HW113886   5.790   3.156   2.174
70704SOL    HW213887   5.926   3.090   2.191
70705SOL     OW13888   1.147  11.361  14.224
70705SOL    HW113889   1.238  11.338  14.245
70705SOL    HW213890   1.134  11.328  14.135
70706SOL     OW13891   0.444  13.863   4.641
70706SOL    HW113892   0.384  13.874   4.568
70706SOL    HW213893   0.398  13.901   4.716
70707SOL     OW13894  10.743   3.305   4.259
70707SOL    HW113895  10.707   3.320   4.172
70707SOL    HW213896  10.716   3.216   4.282
70708SOL     OW13897  11.521   9.142  11.516
70708SOL    HW113898  11.447   9.093  11.481
70708SOL    HW213899  11.484   9.190  11.590
70709SOL     OW13900   3.889  10.311   4.093
70709SOL    HW113901   3.871  10.228   4.138
70709SOL    HW213902   3.977  10.335   4.121
70710SOL     OW13903  13.010  11.900  13.486
70710SOL    HW113904  12.919  11.890  13.459
70710SOL    HW213905  13.053  11.819  13.459
70711SOL     OW13906  14.374   3.964   9.012
70711SOL    HW113907  14.455   4.005   9.040
70711SOL    HW213908  14.305   4.014   9.057
70712SOL     OW13909  12.505   0.350   6.739
70712SOL    HW113910  12.441   0.319   6.675
70712SOL    HW213911  12.517   0.443   6.718
70713SOL     OW13912   9.012   8.498  10.940
70713SOL    HW113913   9.078   8.509  10.872
70713SOL    HW213914   8.964   8.581  10.941
70714SOL     OW13915   2.262  10.648   6.589
70714SOL    HW113916   2.267  10.554   6.573
70714SOL    HW213917   2.193  10.657   6.655
70715SOL     OW13918   5.674   0.001  14.600
70715SOL    HW113919   5.633   0.045  14.525
70715SOL    HW213920   5.623  14.799  14.611
70716SOL     OW13921   4.951  13.376   0.242
70716SOL    HW113922   4.986  13.420   0.165
70716SOL    HW213923   4.946  13.283   0.216
70717SOL     OW13924   7.087   3.274   8.095
70717SOL    HW113925   7.144   3.260   8.171
70717SOL    HW213926   7.067   3.367   8.097
70718SOL     OW13927   7.672  10.364   3.566
70718SOL    HW113928   7.670  10.366   3.470
70718SOL    HW213929   7.582  10.348   3.592
70719SOL     OW13930  12.551   5.751   4.714
70719SOL    HW113931  12.489   5.678   4.709
70719SOL    HW213932  12.560   5.769   4.808
70720SOL     OW13933  14.138   3.064   8.170
70720SOL    HW113934  14.074   3.006   8.129
70720SOL    HW213935  14.217   3.010   8.179
70721SOL     OW13936   9.820   1.078   6.455
70721SOL    HW113937   9.774   1.104   6.375
70721SOL    HW213938   9.859   0.993   6.434
70722SOL     OW13939   0.570   3.645  10.560
70722SOL    HW113940   0.646   3.588  10.572
70722SOL    HW213941   0.550   3.640  10.467
70723SOL     OW13942   2.615   7.573   5.540
70723SOL    HW113943   2.618   7.500   5.477
70723SOL    HW213944   2.679   7.636   5.507
70724SOL     OW13945   1.357   6.541  14.282
70724SOL    HW113946   1.335   6.478  14.214
70724SOL    HW213947   1.280   6.544  14.339
70725SOL     OW13948   6.352  10.792  14.725
70725SOL    HW113949   6.324  10.746  14.646
70725SOL    HW213950   6.277  10.847  14.749
70726SOL     OW13951   8.375   6.064  12.241
70726SOL    HW113952   8.390   6.138  12.182
70726SOL    HW213953   8.356   5.991  12.183
70727SOL     OW13954  11.861   4.744   3.738
70727SOL    HW113955  11.776   4.772   3.706
70727SOL    HW213956  11.923   4.802   3.694
70728SOL     OW13957   1.298   2.518   9.915
70728SOL    HW113958   1.290   2.435   9.869
70728SOL    HW213959   1.324   2.495  10.004
70729SOL     OW13960   8.432  11.860   2.280
70729SOL    HW113961   8.496  11.919   2.319
70729SOL    HW213962   8.473  11.830   2.199
70730SOL     OW13963   7.472   1.544   5.109
70730SOL    HW113964   7.394   1.514   5.063
70730SOL    HW213965   7.469   1.640   5.102
70731SOL     OW13966  12.413  14.082   4.744
70731SOL    HW113967  12.407  14.058   4.651
70731SOL    HW213968  12.428  13.999   4.789
70732SOL     OW13969  13.715   0.986   9.477
70732SOL    HW113970  13.797   0.952   9.441
70732SOL    HW213971  13.687   0.921   9.541
70733SOL     OW13972   4.064  14.299   7.432
70733SOL    HW113973   4.107  14.228   7.385
70733SOL    HW213974   4.135  14.359   7.455
70734SOL     OW13975   0.284  13.418  13.510
70734SOL    HW113976   0.230  13.493  13.484
70734SOL    HW213977   0.270  13.353  13.442
70735SOL     OW13978  10.161   6.079   4.117
70735SOL    HW113979  10.230   6.134   4.155
70735SOL    HW213980  10.121   6.133   4.049
70736SOL     OW13981  10.943  10.405   4.815
70736SOL    HW113982  11.009  10.469   4.787
70736SOL    HW213983  10.876  10.410   4.747
70737SOL     OW13984  12.709   9.611   9.957
70737SOL    HW113985  12.739   9.599   9.867
70737SOL    HW213986  12.620   9.576   9.957
70738SOL     OW13987   7.712  10.967   7.942
70738SOL    HW113988   7.637  10.968   7.883
70738SOL    HW213989   7.739  11.058   7.949
70739SOL     OW13990   7.048  10.825  14.103
70739SOL    HW113991   7.010  10.802  14.018
70739SOL    HW213992   7.143  10.822  14.088
70740SOL     OW13993   7.655   2.106   1.956
70740SOL    HW113994   7.690   2.103   2.045
70740SOL    HW213995   7.590   2.036   1.952
70741SOL     OW13996   7.547  13.743  14.041
70741SOL    HW113997   7.470  13.752  14.098
70741SOL    HW213998   7.522  13.674  13.979
70742SOL     OW13999   1.255   4.213   5.842
70742SOL    HW114000   1.178   4.186   5.793
70742SOL    HW214001   1.301   4.131   5.861
70743SOL     OW14002   3.760   7.019   1.736
70743SOL    HW114003   3.829   7.075   1.701
70743SOL    HW214004   3.765   6.940   1.683
70744SOL     OW14005   3.818  13.870   0.224
70744SOL    HW114006   3.806  13.812   0.149
70744SOL    HW214007   3.729  13.898   0.247
70745SOL     OW14008  12.671   5.999  14.202
70745SOL    HW114009  12.701   5.971  14.116
70745SOL    HW214010  12.617   6.076  14.184
70746SOL     OW14011   7.361  10.827   3.958
70746SOL    HW114012   7.385  10.917   3.934
70746SOL    HW214013   7.332  10.787   3.876
70747SOL     OW14014  13.600   1.049   2.138
70747SOL    HW114015  13.568   1.104   2.066
70747SOL    HW214016  13.589   0.960   2.107
70748SOL     OW14017   3.406   1.372  11.082
70748SOL    HW114018   3.416   1.325  11.165
70748SOL    HW214019   3.494   1.374  11.044
70749SOL     OW14020  13.444  11.508  10.198
70749SOL    HW114021  13.523  11.561  10.196
70749SOL    HW214022  13.471  11.426  10.240
70750SOL     OW14023  11.186   8.905  13.405
70750SOL    HW114024  11.262   8.954  13.439
70750SOL    HW214025  11.160   8.953  13.327
70751SOL     OW14026   7.952  11.945   8.163
70751SOL    HW114027   7.935  11.870   8.106
70751SOL    HW214028   7.868  11.990   8.170
70752SOL     OW14029   9.844  10.377  10.439
70752SOL    HW114030   9.934  10.354  10.417
70752SOL    HW214031   9.797  10.293  10.440
70753SOL     OW14032   3.784   2.902  13.369
70753SOL    HW114033   3.851   2.871  13.308
70753SOL    HW214034   3.701   2.885  13.324
70754SOL     OW14035  12.545   4.938   7.664
70754SOL    HW114036  12.586   4.945   7.578
70754SOL    HW214037  12.542   5.028   7.696
70755SOL     OW14038   8.003   3.470   2.080
70755SOL    HW114039   8.073   3.489   2.017
70755SOL    HW214040   7.929   3.443   2.026
70756SOL     OW14041   0.625   2.695  14.819
70756SOL    HW114042   0.681   2.660   0.010
70756SOL    HW214043   0.686   2.718  14.748
70757SOL     OW14044   8.865   0.535  10.415
70757SOL    HW114045   8.927   0.607  10.407
70757SOL    HW214046   8.918   0.456  10.405
70758SOL     OW14047   4.790   0.741   3.530
70758SOL    HW114048   4.754   0.655   3.552
70758SOL    HW214049   4.882   0.736   3.555
70759SOL     OW14050   5.916  12.272   6.283
70759SOL    HW114051   5.933  12.365   6.270
70759SOL    HW214052   5.911  12.236   6.194
70760SOL     OW14053  12.679   7.428   4.944
70760SOL    HW114054  12.662   7.467   5.029
70760SOL    HW214055  12.732   7.493   4.898
70761SOL     OW14056   4.251   7.323   1.595
70761SOL    HW114057   4.286   7.410   1.574
70761SOL    HW214058   4.310   7.262   1.550
70762SOL     OW14059   8.890  14.543  14.443
70762SOL    HW114060   8.916  14.590  14.522
70762SOL    HW214061   8.820  14.596  14.405
70763SOL     OW14062   9.061   4.352   8.347
70763SOL    HW114063   9.092   4.306   8.269
70763SOL    HW214064   8.967   4.338   8.346
70764SOL     OW14065   1.249   7.395   6.542
70764SOL    HW114066   1.216   7.424   6.457
70764SOL    HW214067   1.262   7.300   6.532
70765SOL     OW14068   4.576   0.414   6.747
70765SOL    HW114069   4.524   0.347   6.704
70765SOL    HW214070   4.598   0.476   6.678
70766SOL     OW14071  11.767   4.578  10.354
70766SOL    HW114072  11.809   4.548  10.273
70766SOL    HW214073  11.757   4.498  10.406
70767SOL     OW14074  10.158   6.073   2.266
70767SOL    HW114075  10.190   6.152   2.309
70767SOL    HW214076  10.206   6.069   2.183
70768SOL     OW14077   2.285   7.910   6.770
70768SOL    HW114078   2.269   7.816   6.779
70768SOL    HW214079   2.218   7.940   6.708
70769SOL     OW14080   0.741  11.296  11.179
70769SOL    HW114081   0.666  11.331  11.130
70769SOL    HW214082   0.722  11.203  11.190
70770SOL     OW14083   5.464  10.218  14.222
70770SOL    HW114084   5.445  10.242  14.132
70770SOL    HW214085   5.488  10.125  14.217
70771SOL     OW14086   9.135  11.277   9.051
70771SOL    HW114087   9.152  11.357   9.101
70771SOL    HW214088   9.221  11.238   9.038
70772SOL     OW14089  14.401   0.946   5.893
70772SOL    HW114090  14.407   0.948   5.989
70772SOL    HW214091  14.411   1.038   5.867
70773SOL     OW14092   3.418   8.772  11.539
70773SOL    HW114093   3.508   8.769  11.508
70773SOL    HW214094   3.422   8.824  11.619
70774SOL     OW14095  11.545  13.774  10.568
70774SOL    HW114096  11.641  13.769  10.561
70774SOL    HW214097  11.528  13.769  10.662
70775SOL     OW14098   9.963   6.666   9.513
70775SOL    HW114099  10.019   6.730   9.470
70775SOL    HW214100   9.881   6.668   9.464
70776SOL     OW14101   7.962  11.090  10.955
70776SOL    HW114102   7.873  11.056  10.969
70776SOL    HW214103   8.019  11.015  10.970
70777SOL     OW14104  14.667   5.219   9.580
70777SOL    HW114105  14.632   5.251   9.497
70777SOL    HW214106  14.761   5.205   9.563
70778SOL     OW14107  13.789  14.116   0.646
70778SOL    HW114108  13.866  14.162   0.679
70778SOL    HW214109  13.716  14.176   0.664
70779SOL     OW14110   7.034   2.471   2.065
70779SOL    HW114111   6.939   2.480   2.076
70779SOL    HW214112   7.068   2.560   2.074
70780SOL     OW14113  11.316   7.076  10.822
70780SOL    HW114114  11.357   7.066  10.736
70780SOL    HW214115  11.296   6.986  10.849
70781SOL     OW14116   7.002   7.432   3.384
70781SOL    HW114117   7.062   7.504   3.363
70781SOL    HW214118   6.915   7.468   3.366
70782SOL     OW14119   6.757   3.928   7.134
70782SOL    HW114120   6.692   3.859   7.124
70782SOL    HW214121   6.755   3.975   7.050
70783SOL     OW14122  14.791   0.492   0.182
70783SOL    HW114123  14.810   0.454   0.267
70783SOL    HW214124  14.730   0.563   0.201
70784SOL     OW14125  10.452   6.516   9.888
70784SOL    HW114126  10.536   6.489   9.850
70784SOL    HW214127  10.402   6.547   9.813
70785SOL     OW14128   9.030   8.286   4.380
70785SOL    HW114129   9.112   8.336   4.377
70785SOL    HW214130   8.965   8.347   4.414
70786SOL     OW14131   0.008   0.049  11.022
70786SOL    HW114132   0.004  14.832  11.011
70786SOL    HW214133   0.102   0.068  11.027
70787SOL     OW14134   4.037   4.897   7.924
70787SOL    HW114135   4.112   4.900   7.984
70787SOL    HW214136   3.989   4.978   7.942
70788SOL     OW14137  10.573   9.944   2.100
70788SOL    HW114138  10.509  10.005   2.136
70788SOL    HW214139  10.619   9.909   2.177
70789SOL     OW14140  13.654  10.723  12.613
70789SOL    HW114141  13.677  10.636  12.579
70789SOL    HW214142  13.562  10.733  12.592
70790SOL     OW14143  14.282   5.321   9.600
70790SOL    HW114144  14.228   5.243   9.611
70790SOL    HW214145  14.325   5.333   9.684
70791SOL     OW14146   5.533   6.966  11.643
70791SOL    HW114147   5.578   7.014  11.713
70791SOL    HW214148   5.591   6.893  11.622
70792SOL     OW14149   4.441  11.399  14.054
70792SOL    HW114150   4.432  11.324  14.113
70792SOL    HW214151   4.513  11.450  14.090
70793SOL     OW14152   6.256  13.780  11.877
70793SOL    HW114153   6.208  13.797  11.796
70793SOL    HW214154   6.190  13.782  11.946
70794SOL     OW14155  14.042   2.078   0.752
70794SOL    HW114156  13.964   2.074   0.696
70794SOL    HW214157  14.019   2.142   0.820
70795SOL     OW14158  13.423  14.347   7.179
70795SOL    HW114159  13.396  14.325   7.090
70795SOL    HW214160  13.440  14.262   7.221
70796SOL     OW14161   7.677   6.182   3.385
70796SOL    HW114162   7.773   6.189   3.384
70796SOL    HW214163   7.648   6.253   3.327
70797SOL     OW14164  11.009   6.795   5.868
70797SOL    HW114165  10.997   6.843   5.786
70797SOL    HW214166  11.103   6.801   5.886
70798SOL     OW14167   4.514   3.273   2.078
70798SOL    HW114168   4.470   3.350   2.114
70798SOL    HW214169   4.448   3.203   2.085
70799SOL     OW14170   9.540   2.647   8.865
70799SOL    HW114171   9.509   2.569   8.911
70799SOL    HW214172   9.603   2.686   8.925
70800SOL     OW14173  12.841   2.688  12.005
70800SOL    HW114174  12.866   2.601  11.973
70800SOL    HW214175  12.775   2.719  11.943
70801SOL     OW14176  13.096   9.972   4.276
70801SOL    HW114177  13.152   9.914   4.328
70801SOL    HW214178  13.010   9.968   4.318
70802SOL     OW14179   8.565   4.060  13.321
70802SOL    HW114180   8.480   4.019  13.304
70802SOL    HW214181   8.616   3.991  13.364
70803SOL     OW14182  14.009  12.921   1.736
70803SOL    HW114183  13.970  12.931   1.649
70803SOL    HW214184  13.972  12.838   1.768
70804SOL     OW14185   3.038   7.075   1.719
70804SOL    HW114186   3.031   7.168   1.738
70804SOL    HW214187   3.007   7.032   1.799
70805SOL     OW14188   0.108  12.787   3.001
70805SOL    HW114189   0.019  12.759   2.980
70805SOL    HW214190   0.164  12.717   2.967
70806SOL     OW14191  13.504   3.286   6.844
70806SOL    HW114192  13.557   3.251   6.915
70806SOL    HW214193  13.543   3.251   6.764
70807SOL     OW14194  12.176   6.926   0.410
70807SOL    HW114195  12.144   6.992   0.472
70807SOL    HW214196  12.271   6.938   0.411
70808SOL     OW14197   8.053  11.080   9.041
70808SOL    HW114198   8.073  11.010   8.979
70808SOL    HW214199   7.960  11.068   9.062
70809SOL     OW14200   3.136   6.096  12.849
70809SOL    HW114201   3.140   6.148  12.769
70809SOL    HW214202   3.056   6.044  12.841
70810SOL     OW14203   2.502   8.804  13.946
70810SOL    HW114204   2.570   8.830  13.884
70810SOL    HW214205   2.432   8.868  13.934
70811SOL     OW14206   9.832   1.634  10.522
70811SOL    HW114207   9.913   1.685  10.517
70811SOL    HW214208   9.860   1.543  10.520
70812SOL     OW14209   4.741   4.199   1.221
70812SOL    HW114210   4.721   4.105   1.224
70812SOL    HW214211   4.791   4.215   1.302
70813SOL     OW14212   4.212   9.890   2.010
70813SOL    HW114213   4.287   9.831   2.002
70813SOL    HW214214   4.205   9.906   2.104
70814SOL     OW14215   7.965  11.793   4.644
70814SOL    HW114216   7.971  11.750   4.730
70814SOL    HW214217   7.959  11.721   4.582
70815SOL     OW14218   5.437   0.478  12.075
70815SOL    HW114219   5.494   0.536  12.125
70815SOL    HW214220   5.495   0.411  12.039
70816SOL     OW14221  11.249  13.955  13.669
70816SOL    HW114222  11.202  14.038  13.665
70816SOL    HW214223  11.266  13.933  13.577
70817SOL     OW14224   9.361  12.123   2.725
70817SOL    HW114225   9.345  12.191   2.659
70817SOL    HW214226   9.360  12.171   2.808
70818SOL     OW14227  12.056  13.313  11.877
70818SOL    HW114228  12.141  13.348  11.904
70818SOL    HW214229  12.065  13.218  11.885
70819SOL     OW14230   9.434   8.606   1.470
70819SOL    HW114231   9.491   8.532   1.449
70819SOL    HW214232   9.399   8.634   1.386
70820SOL     OW14233   7.054   6.132   3.552
70820SOL    HW114234   7.036   6.146   3.458
70820SOL    HW214235   7.132   6.184   3.569
70821SOL     OW14236   0.956   8.023  12.897
70821SOL    HW114237   1.036   8.012  12.846
70821SOL    HW214238   0.964   8.109  12.938
70822SOL     OW14239   8.059   2.330  10.785
70822SOL    HW114240   8.080   2.396  10.852
70822SOL    HW214241   8.126   2.263  10.796
70823SOL     OW14242  14.256   6.527   1.206
70823SOL    HW114243  14.282   6.599   1.147
70823SOL    HW214244  14.211   6.465   1.149
70824SOL     OW14245   8.856  10.713   2.056
70824SOL    HW114246   8.895  10.631   2.025
70824SOL    HW214247   8.930  10.773   2.063
70825SOL     OW14248  14.214   8.186  14.853
70825SOL    HW114249  14.162   8.245  14.799
70825SOL    HW214250  14.160   8.170   0.052
70826SOL     OW14251   0.496   2.647  13.869
70826SOL    HW114252   0.539   2.665  13.953
70826SOL    HW214253   0.529   2.716  13.810
70827SOL     OW14254   6.422   3.014   8.554
70827SOL    HW114255   6.358   3.014   8.625
70827SOL    HW214256   6.416   2.927   8.515
70828SOL     OW14257  13.031   4.255  14.866
70828SOL    HW114258  13.080   4.182  14.828
70828SOL    HW214259  13.063   4.261   0.078
70829SOL     OW14260   8.253   2.326  14.146
70829SOL    HW114261   8.306   2.402  14.170
70829SOL    HW214262   8.283   2.256  14.204
70830SOL     OW14263   9.182  11.269  13.683
70830SOL    HW114264   9.134  11.189  13.702
70830SOL    HW214265   9.254  11.270  13.747
70831SOL     OW14266   6.760   7.340   7.594
70831SOL    HW114267   6.748   7.290   7.513
70831SOL    HW214268   6.719   7.286   7.661
70832SOL     OW14269   3.665   8.037   4.240
70832SOL    HW114270   3.679   8.095   4.315
70832SOL    HW214271   3.751   8.032   4.197
70833SOL     OW14272   8.502   9.138   8.095
70833SOL    HW114273   8.505   9.135   8.000
70833SOL    HW214274   8.562   9.209   8.119
70834SOL     OW14275   8.620   5.962   9.650
70834SOL    HW114276   8.627   6.042   9.702
70834SOL    HW214277   8.640   5.892   9.712
70835SOL     OW14278   4.743   2.885   5.232
70835SOL    HW114279   4.717   2.809   5.284
70835SOL    HW214280   4.837   2.875   5.220
70836SOL     OW14281   1.481   5.271   0.511
70836SOL    HW114282   1.557   5.315   0.551
70836SOL    HW214283   1.474   5.189   0.558
70837SOL     OW14284   4.810  12.913  13.006
70837SOL    HW114285   4.829  12.864  12.926
70837SOL    HW214286   4.716  12.900  13.021
70838SOL     OW14287   8.473   0.954   1.159
70838SOL    HW114288   8.483   0.948   1.064
70838SOL    HW214289   8.521   0.879   1.193
70839SOL     OW14290  12.447   9.143   6.524
70839SOL    HW114291  12.420   9.224   6.567
70839SOL    HW214292  12.499   9.172   6.449
70840SOL     OW14293  10.084   1.144  10.947
70840SOL    HW114294  10.025   1.114  11.016
70840SOL    HW214295  10.108   1.233  10.973
70841SOL     OW14296   1.774  13.570  13.479
70841SOL    HW114297   1.788  13.480  13.508
70841SOL    HW214298   1.734  13.614  13.553
70842SOL     OW14299  10.610   3.068   2.282
70842SOL    HW114300  10.622   2.973   2.281
70842SOL    HW214301  10.527   3.083   2.237
70843SOL     OW14302   7.121  14.141   6.565
70843SOL    HW114303   7.198  14.112   6.515
70843SOL    HW214304   7.159  14.184   6.642
70844SOL     OW14305   0.360   7.870   8.782
70844SOL    HW114306   0.320   7.858   8.696
70844SOL    HW214307   0.442   7.819   8.777
70845SOL     OW14308   2.977   8.617   3.161
70845SOL    HW114309   3.005   8.527   3.178
70845SOL    HW214310   2.940   8.646   3.244
70846SOL     OW14311  13.686   7.078   8.197
70846SOL    HW114312  13.772   7.036   8.194
70846SOL    HW214313  13.623   7.006   8.195
70847SOL     OW14314   5.267   2.473   1.197
70847SOL    HW114315   5.339   2.518   1.242
70847SOL    HW214316   5.235   2.409   1.261
70848SOL     OW14317  10.447  12.322  11.871
70848SOL    HW114318  10.390  12.396  11.889
70848SOL    HW214319  10.428  12.298  11.780
70849SOL     OW14320   0.085   3.640   3.316
70849SOL    HW114321   0.005   3.593   3.335
70849SOL    HW214322   0.056   3.724   3.281
70850SOL     OW14323  14.715   8.817   8.755
70850SOL    HW114324  14.650   8.774   8.812
70850SOL    HW214325  14.710   8.768   8.673
70851SOL     OW14326   3.117   5.430   3.806
70851SOL    HW114327   3.193   5.384   3.839
70851SOL    HW214328   3.085   5.481   3.880
70852SOL     OW14329  13.486   2.589  12.899
70852SOL    HW114330  13.496   2.512  12.844
70852SOL    HW214331  13.507   2.558  12.987
70853SOL     OW14332   2.994   0.111   9.924
70853SOL    HW114333   3.044   0.047   9.975
70853SOL    HW214334   2.903   0.091   9.946
70854SOL     OW14335   5.792  11.734   8.301
70854SOL    HW114336   5.882  11.702   8.291
70854SOL    HW214337   5.801  11.815   8.351
70855SOL     OW14338   5.359   7.754   0.320
70855SOL    HW114339   5.338   7.714   0.235
70855SOL    HW214340   5.421   7.823   0.298
70856SOL     OW14341   9.883   4.204   4.329
70856SOL    HW114342   9.821   4.140   4.365
70856SOL    HW214343   9.904   4.171   4.242
70857SOL     OW14344  12.701   5.311   2.938
70857SOL    HW114345  12.696   5.397   2.896
70857SOL    HW214346  12.727   5.330   3.028
70858SOL     OW14347  11.103  10.477   7.881
70858SOL    HW114348  11.178  10.535   7.891
70858SOL    HW214349  11.035  10.515   7.937
70859SOL     OW14350   1.734   5.355   0.546
70859SOL    HW114351   1.794   5.299   0.498
70859SOL    HW214352   1.758   5.444   0.520
70860SOL     OW14353  11.566   7.912  12.563
70860SOL    HW114354  11.512   7.844  12.525
70860SOL    HW214355  11.656   7.882  12.548
70861SOL     OW14356   1.045   8.008   2.705
70861SOL    HW114357   1.073   8.098   2.722
70861SOL    HW214358   1.116   7.971   2.652
70862SOL     OW14359  11.872   1.682   1.473
70862SOL    HW114360  11.939   1.640   1.526
70862SOL    HW214361  11.900   1.774   1.467
70863SOL     OW14362  10.946  14.210   0.172
70863SOL    HW114363  10.893  14.290   0.170
70863SOL    HW214364  10.883  14.140   0.190
70864SOL     OW14365   7.345   8.009   5.669
70864SOL    HW114366   7.381   8.098   5.672
70864SOL    HW214367   7.250   8.022   5.682
70865SOL     OW14368   7.632   0.857   8.179
70865SOL    HW114369   7.721   0.828   8.158
70865SOL    HW214370   7.578   0.821   8.109
70866SOL     OW14371   8.288   0.331   2.891
70866SOL    HW114372   8.299   0.282   2.973
70866SOL    HW214373   8.206   0.379   2.902
70867SOL     OW14374   6.215   6.636  12.137
70867SOL    HW114375   6.251   6.577  12.070
70867SOL    HW214376   6.141   6.679  12.094
70868SOL     OW14377  10.770   3.675  12.422
70868SOL    HW114378  10.705   3.649  12.357
70868SOL    HW214379  10.726   3.742  12.474
70869SOL     OW14380   2.613   8.909   4.151
70869SOL    HW114381   2.603   8.990   4.103
70869SOL    HW214382   2.624   8.842   4.084
70870SOL     OW14383   3.660  14.702  12.723
70870SOL    HW114384   3.686  14.765  12.790
70870SOL    HW214385   3.731  14.638  12.722
70871SOL     OW14386   8.293   2.826   5.280
70871SOL    HW114387   8.379   2.785   5.295
70871SOL    HW214388   8.265   2.855   5.367
70872SOL     OW14389   5.434   3.783   2.227
70872SOL    HW114390   5.350   3.738   2.233
70872SOL    HW214391   5.488   3.743   2.294
70873SOL     OW14392   8.067   3.786   3.910
70873SOL    HW114393   7.978   3.821   3.916
70873SOL    HW214394   8.114   3.827   3.982
70874SOL     OW14395   1.906  14.478   2.068
70874SOL    HW114396   1.972  14.485   2.137
70874SOL    HW214397   1.847  14.409   2.098
70875SOL     OW14398   9.070   0.522  10.674
70875SOL    HW114399   9.111   0.600  10.638
70875SOL    HW214400   9.068   0.460  10.602
70876SOL     OW14401   1.992   5.552   6.201
70876SOL    HW114402   1.960   5.561   6.291
70876SOL    HW214403   2.026   5.462   6.197
70877SOL     OW14404   8.035   0.975  14.173
70877SOL    HW114405   8.120   0.974  14.217
70877SOL    HW214406   8.044   1.043  14.106
70878SOL     OW14407  14.475   0.207   0.562
70878SOL    HW114408  14.421   0.284   0.546
70878SOL    HW214409  14.490   0.169   0.476
70879SOL     OW14410   9.022   0.742   2.623
70879SOL    HW114411   9.053   0.759   2.534
70879SOL    HW214412   9.076   0.799   2.678
70880SOL     OW14413  10.458   1.849   4.186
70880SOL    HW114414  10.366   1.853   4.160
70880SOL    HW214415  10.495   1.933   4.160
70881SOL     OW14416   1.390   4.003   9.275
70881SOL    HW114417   1.411   3.999   9.369
70881SOL    HW214418   1.471   4.032   9.234
70882SOL     OW14419  12.728  14.633   4.048
70882SOL    HW114420  12.748  14.603   3.959
70882SOL    HW214421  12.638  14.606   4.063
70883SOL     OW14422  13.223   3.040   9.583
70883SOL    HW114423  13.246   3.087   9.503
70883SOL    HW214424  13.130   3.055   9.594
70884SOL     OW14425   3.834  12.852  12.502
70884SOL    HW114426   3.914  12.803  12.483
70884SOL    HW214427   3.812  12.828  12.592
70885SOL     OW14428   3.339   1.685  12.365
70885SOL    HW114429   3.398   1.745  12.410
70885SOL    HW214430   3.271   1.667  12.429
70886SOL     OW14431   0.713   9.966   6.333
70886SOL    HW114432   0.711   9.967   6.237
70886SOL    HW214433   0.728  10.057   6.358
70887SOL     OW14434   0.306   1.745  13.435
70887SOL    HW114435   0.390   1.738  13.391
70887SOL    HW214436   0.323   1.801  13.511
70888SOL     OW14437   3.646   8.355  10.208
70888SOL    HW114438   3.703   8.431  10.221
70888SOL    HW214439   3.566   8.391  10.171
70889SOL     OW14440   4.696   8.719  14.782
70889SOL    HW114441   4.694   8.633  14.825
70889SOL    HW214442   4.770   8.764  14.823
70890SOL     OW14443   1.315   1.438   9.529
70890SOL    HW114444   1.323   1.504   9.599
70890SOL    HW214445   1.378   1.465   9.463
70891SOL     OW14446   3.673   9.546   9.029
70891SOL    HW114447   3.753   9.534   8.979
70891SOL    HW214448   3.679   9.481   9.100
70892SOL     OW14449   5.885   4.497  13.542
70892SOL    HW114450   5.890   4.562  13.612
70892SOL    HW214451   5.920   4.417  13.581
70893SOL     OW14452   7.684  14.582   1.007
70893SOL    HW114453   7.767  14.572   0.961
70893SOL    HW214454   7.690  14.669   1.048
70894SOL     OW14455   9.037   0.363   2.310
70894SOL    HW114456   9.005   0.453   2.302
70894SOL    HW214457   9.058   0.337   2.221
70895SOL     OW14458  11.317  14.517   0.428
70895SOL    HW114459  11.284  14.431   0.453
70895SOL    HW214460  11.239  14.569   0.410
70896SOL     OW14461   0.000   4.603  14.466
70896SOL    HW114462  14.862   4.559  14.549
70896SOL    HW214463  14.791   4.618  14.429
70897SOL     OW14464  12.054   1.042   7.773
70897SOL    HW114465  11.992   1.093   7.825
70897SOL    HW214466  12.065   0.961   7.821
70898SOL     OW14467   0.070   0.354   3.290
70898SOL    HW114468   0.053   0.266   3.255
70898SOL    HW214469   0.152   0.345   3.338
70899SOL     OW14470   8.572   3.052   1.624
70899SOL    HW114471   8.655   3.011   1.601
70899SOL    HW214472   8.584   3.083   1.714
70900SOL     OW14473   1.761   3.439   7.620
70900SOL    HW114474   1.801   3.355   7.597
70900SOL    HW214475   1.674   3.436   7.581
70901SOL     OW14476  10.680   6.068   9.062
70901SOL    HW114477  10.744   6.139   9.061
70901SOL    HW214478  10.685   6.034   9.152
70902SOL     OW14479  10.144   7.481   3.538
70902SOL    HW114480  10.102   7.560   3.503
70902SOL    HW214481  10.081   7.411   3.522
70903SOL     OW14482  13.450  12.756   5.080
70903SOL    HW114483  13.425  12.708   5.001
70903SOL    HW214484  13.516  12.819   5.051
70904SOL     OW14485  11.016   2.919   2.891
70904SOL    HW114486  10.941   2.869   2.923
70904SOL    HW214487  11.044   2.872   2.812
70905SOL     OW14488   8.212   7.128   3.761
70905SOL    HW114489   8.278   7.059   3.760
70905SOL    HW214490   8.236   7.183   3.836
70906SOL     OW14491  12.286  11.822   0.022
70906SOL    HW114492  12.307  11.876  14.823
70906SOL    HW214493  12.263  11.736  14.863
70907SOL     OW14494   1.101   7.876  13.110
70907SOL    HW114495   1.025   7.912  13.064
70907SOL    HW214496   1.066   7.845  13.194
70908SOL     OW14497  10.307   6.262   7.324
70908SOL    HW114498  10.269   6.198   7.384
70908SOL    HW214499  10.335   6.210   7.249
70909SOL     OW14500  10.733   1.916   6.879
70909SOL    HW114501  10.699   2.005   6.890
70909SOL    HW214502  10.655   1.862   6.865
70910SOL     OW14503  13.108   8.822  13.428
70910SOL    HW114504  13.080   8.756  13.365
70910SOL    HW214505  13.116   8.903  13.378
70911SOL     OW14506   9.111   4.028   2.349
70911SOL    HW114507   9.079   3.945   2.315
70911SOL    HW214508   9.163   4.065   2.277
70912SOL     OW14509   5.636   3.892  12.477
70912SOL    HW114510   5.707   3.906  12.539
70912SOL    HW214511   5.605   3.804  12.495
70913SOL     OW14512   4.874   7.517   0.217
70913SOL    HW114513   4.969   7.504   0.218
70913SOL    HW214514   4.862   7.605   0.182
70914SOL     OW14515  10.934  14.283  11.432
70914SOL    HW114516  10.859  14.261  11.377
70914SOL    HW214517  10.974  14.198  11.453
70915SOL     OW14518   6.133   5.794   6.379
70915SOL    HW114519   6.096   5.811   6.466
70915SOL    HW214520   6.124   5.700   6.367
70916SOL     OW14521   3.512   3.645   7.081
70916SOL    HW114522   3.568   3.606   7.149
70916SOL    HW214523   3.561   3.633   7.000
70917SOL     OW14524   5.170  10.559  13.930
70917SOL    HW114525   5.159  10.594  13.842
70917SOL    HW214526   5.171  10.636  13.987
70918SOL     OW14527   2.791   9.375   5.312
70918SOL    HW114528   2.749   9.384   5.398
70918SOL    HW214529   2.874   9.332   5.331
70919SOL     OW14530   1.859   8.854   7.240
70919SOL    HW114531   1.948   8.833   7.267
70919SOL    HW214532   1.869   8.894   7.153
70920SOL     OW14533   4.190   6.620  14.379
70920SOL    HW114534   4.095   6.617  14.390
70920SOL    HW214535   4.224   6.642  14.465
70921SOL     OW14536   3.577   6.233   7.342
70921SOL    HW114537   3.615   6.278   7.267
70921SOL    HW214538   3.566   6.301   7.408
70922SOL     OW14539  12.676  11.065  10.530
70922SOL    HW114540  12.622  11.008  10.585
70922SOL    HW214541  12.759  11.018  10.521
70923SOL     OW14542  11.167   1.622   5.796
70923SOL    HW114543  11.209   1.690   5.743
70923SOL    HW214544  11.162   1.546   5.738
70924SOL     OW14545   0.492   3.476   8.718
70924SOL    HW114546   0.432   3.549   8.702
70924SOL    HW214547   0.499   3.471   8.813
70925SOL     OW14548   6.187  12.853   1.804
70925SOL    HW114549   6.273  12.826   1.833
70925SOL    HW214550   6.203  12.924   1.742
70926SOL     OW14551  12.477   8.662   1.111
70926SOL    HW114552  12.535   8.738   1.121
70926SOL    HW214553  12.395   8.700   1.079
70927SOL     OW14554   3.949   1.943   2.839
70927SOL    HW114555   3.909   1.878   2.896
70927SOL    HW214556   4.019   1.981   2.891
70928SOL     OW14557   9.711   2.618   2.611
70928SOL    HW114558   9.735   2.702   2.650
70928SOL    HW214559   9.684   2.641   2.522
70929SOL     OW14560   2.795   4.421   1.926
70929SOL    HW114561   2.808   4.497   1.984
70929SOL    HW214562   2.868   4.425   1.864
70930SOL     OW14563   3.627   4.041   8.001
70930SOL    HW114564   3.676   4.089   8.068
70930SOL    HW214565   3.558   3.996   8.050
70931SOL     OW14566   4.762   7.462   5.263
70931SOL    HW114567   4.777   7.547   5.223
70931SOL    HW214568   4.827   7.404   5.223
70932SOL     OW14569   6.452  14.620   5.770
70932SOL    HW114570   6.382  14.622   5.836
70932SOL    HW214571   6.406  14.606   5.687
70933SOL     OW14572  10.086  14.109   3.149
70933SOL    HW114573  10.139  14.188   3.137
70933SOL    HW214574  10.085  14.094   3.243
70934SOL     OW14575   2.560   0.817   9.826
70934SOL    HW114576   2.550   0.856   9.739
70934SOL    HW214577   2.549   0.723   9.811
70935SOL     OW14578  13.997   0.070   4.574
70935SOL    HW114579  13.976   0.037   4.487
70935SOL    HW214580  14.038  14.874   4.619
70936SOL     OW14581   2.019   6.985   1.770
70936SOL    HW114582   1.938   7.032   1.788
70936SOL    HW214583   2.087   7.053   1.773
70937SOL     OW14584   6.393   4.151   0.968
70937SOL    HW114585   6.360   4.215   0.905
70937SOL    HW214586   6.488   4.166   0.970
70938SOL     OW14587   6.423   7.751   6.875
70938SOL    HW114588   6.426   7.767   6.969
70938SOL    HW214589   6.432   7.656   6.867
70939SOL     OW14590   1.206   1.958   0.692
70939SOL    HW114591   1.299   1.952   0.715
70939SOL    HW214592   1.162   1.903   0.756
70940SOL     OW14593  12.855   7.311  10.601
70940SOL    HW114594  12.897   7.264  10.673
70940SOL    HW214595  12.882   7.402  10.613
70941SOL     OW14596  10.737  10.920  13.592
70941SOL    HW114597  10.750  10.890  13.502
70941SOL    HW214598  10.722  11.014  13.584
70942SOL     OW14599  11.821   7.184   8.398
70942SOL    HW114600  11.788   7.274   8.398
70942SOL    HW214601  11.882   7.180   8.325
70943SOL     OW14602  12.271   2.733   2.732
70943SOL    HW114603  12.235   2.766   2.650
70943SOL    HW214604  12.219   2.775   2.800
70944SOL     OW14605   3.165  13.166   5.005
70944SOL    HW114606   3.248  13.135   5.040
70944SOL    HW214607   3.122  13.087   4.972
70945SOL     OW14608   0.142   1.382  13.525
70945SOL    HW114609   0.103   1.302  13.490
70945SOL    HW214610   0.154   1.439  13.449
70946SOL     OW14611  11.789   8.128   2.082
70946SOL    HW114612  11.708   8.179   2.084
70946SOL    HW214613  11.770   8.049   2.132
70947SOL     OW14614  10.106   8.469   5.738
70947SOL    HW114615  10.017   8.481   5.704
70947SOL    HW214616  10.114   8.375   5.754
70948SOL     OW14617  11.584   8.085   2.369
70948SOL    HW114618  11.676   8.063   2.358
70948SOL    HW214619  11.581   8.180   2.372
70949SOL     OW14620   1.940   0.291   3.171
70949SOL    HW114621   1.849   0.275   3.151
70949SOL    HW214622   1.985   0.289   3.087
70950SOL     OW14623   4.203   9.310  13.443
70950SOL    HW114624   4.142   9.239  13.422
70950SOL    HW214625   4.195   9.371  13.370
70951SOL     OW14626  10.521  11.752   2.398
70951SOL    HW114627  10.449  11.815   2.405
70951SOL    HW214628  10.583  11.793   2.337
70952SOL     OW14629   5.133  13.229   1.005
70952SOL    HW114630   5.226  13.249   1.002
70952SOL    HW214631   5.127  13.137   0.979
70953SOL     OW14632   4.788   3.426  10.559
70953SOL    HW114633   4.695   3.430  10.537
70953SOL    HW214634   4.809   3.514  10.591
70954SOL     OW14635  13.775   9.542   2.272
70954SOL    HW114636  13.797   9.615   2.329
70954SOL    HW214637  13.791   9.464   2.326
70955SOL     OW14638  13.809  10.076  13.431
70955SOL    HW114639  13.875  10.062  13.364
70955SOL    HW214640  13.727  10.084  13.383
70956SOL     OW14641   1.191   9.787   3.361
70956SOL    HW114642   1.275   9.770   3.319
70956SOL    HW214643   1.212   9.843   3.435
70957SOL     OW14644   3.059   4.528   6.285
70957SOL    HW114645   3.115   4.485   6.348
70957SOL    HW214646   3.102   4.515   6.201
70958SOL     OW14647   2.644   1.830  12.271
70958SOL    HW114648   2.703   1.785  12.331
70958SOL    HW214649   2.556   1.807  12.301
70959SOL     OW14650  12.012   2.541   0.678
70959SOL    HW114651  12.036   2.512   0.590
70959SOL    HW214652  12.068   2.489   0.736
70960SOL     OW14653  12.386   5.254  13.134
70960SOL    HW114654  12.388   5.198  13.212
70960SOL    HW214655  12.333   5.329  13.159
70961SOL     OW14656  10.033  10.952   8.770
70961SOL    HW114657  10.124  10.928   8.787
70961SOL    HW214658  10.023  11.038   8.811
70962SOL     OW14659   4.388   1.639  10.653
70962SOL    HW114660   4.428   1.552  10.653
70962SOL    HW214661   4.452   1.695  10.697
70963SOL     OW14662   1.218   5.095   4.825
70963SOL    HW114663   1.265   5.059   4.749
70963SOL    HW214664   1.131   5.056   4.819
70964SOL     OW14665  13.232   7.000   0.370
70964SOL    HW114666  13.164   6.999   0.438
70964SOL    HW214667  13.195   7.051   0.299
70965SOL     OW14668  12.144  12.975   5.186
70965SOL    HW114669  12.182  12.934   5.108
70965SOL    HW214670  12.073  13.029   5.153
70966SOL     OW14671   9.350   7.523  12.566
70966SOL    HW114672   9.321   7.440  12.528
70966SOL    HW214673   9.296   7.535  12.643
70967SOL     OW14674   7.833   1.212  13.288
70967SOL    HW114675   7.851   1.289  13.234
70967SOL    HW214676   7.741   1.192  13.271
70968SOL     OW14677  10.372   5.020   6.666
70968SOL    HW114678  10.297   5.075   6.644
70968SOL    HW214679  10.436   5.038   6.597
70969SOL     OW14680   8.148   3.403  13.643
70969SOL    HW114681   8.098   3.478  13.611
70969SOL    HW214682   8.108   3.383  13.728
70970SOL     OW14683   7.488   9.148   9.736
70970SOL    HW114684   7.527   9.208   9.673
70970SOL    HW214685   7.465   9.070   9.685
70971SOL     OW14686   4.503   0.293  14.401
70971SOL    HW114687   4.437   0.347  14.445
70971SOL    HW214688   4.475   0.203  14.417
70972SOL     OW14689   8.029   6.404  11.763
70972SOL    HW114690   8.085   6.433  11.835
70972SOL    HW214691   7.951   6.368  11.806
70973SOL     OW14692   4.728   2.141  10.775
70973SOL    HW114693   4.742   2.064  10.719
70973SOL    HW214694   4.729   2.105  10.864
70974SOL     OW14695  11.309   7.992   4.698
70974SOL    HW114696  11.295   8.048   4.622
70974SOL    HW214697  11.318   7.904   4.661
70975SOL     OW14698  14.091  11.445   2.130
70975SOL    HW114699  14.109  11.409   2.043
70975SOL    HW214700  14.031  11.382   2.170
70976SOL     OW14701  12.335   4.480   6.990
70976SOL    HW114702  12.265   4.523   6.942
70976SOL    HW214703  12.292   4.439   7.065
70977SOL     OW14704  10.088  12.298   2.332
70977SOL    HW114705  10.129  12.382   2.310
70977SOL    HW214706  10.080  12.253   2.248
70978SOL     OW14707   5.507  13.039   7.300
70978SOL    HW114708   5.507  13.038   7.395
70978SOL    HW214709   5.507  12.947   7.275
70979SOL     OW14710   3.316   0.570   0.482
70979SOL    HW114711   3.381   0.624   0.435
70979SOL    HW214712   3.330   0.592   0.574
70980SOL     OW14713   2.436   6.774   1.440
70980SOL    HW114714   2.487   6.773   1.522
70980SOL    HW214715   2.353   6.732   1.463
70981SOL     OW14716  11.146   5.830   1.067
70981SOL    HW114717  11.172   5.915   1.031
70981SOL    HW214718  11.050   5.836   1.074
70982SOL     OW14719  12.257   6.218  10.825
70982SOL    HW114720  12.181   6.241  10.878
70982SOL    HW214721  12.325   6.281  10.852
70983SOL     OW14722   7.675   7.489  11.288
70983SOL    HW114723   7.588   7.449  11.292
70983SOL    HW214724   7.697   7.490  11.195
70984SOL     OW14725  10.409   5.116   8.484
70984SOL    HW114726  10.428   5.186   8.547
70984SOL    HW214727  10.430   5.035   8.532
70985SOL     OW14728   1.348   8.009   2.962
70985SOL    HW114729   1.344   8.063   2.883
70985SOL    HW214730   1.334   8.070   3.034
70986SOL     OW14731   4.579   5.140   9.257
70986SOL    HW114732   4.578   5.234   9.240
70986SOL    HW214733   4.519   5.103   9.192
70987SOL     OW14734   5.011   7.157  11.073
70987SOL    HW114735   5.020   7.184  11.164
70987SOL    HW214736   4.923   7.184  11.048
70988SOL     OW14737  14.456   6.653   4.482
70988SOL    HW114738  14.543   6.614   4.483
70988SOL    HW214739  14.404   6.594   4.427
70989SOL     OW14740   3.621   6.081  10.010
70989SOL    HW114741   3.672   6.036  10.077
70989SOL    HW214742   3.545   6.024   9.996
70990SOL     OW14743  12.015  11.036   7.026
70990SOL    HW114744  12.066  10.962   6.993
70990SOL    HW214745  12.007  11.095   6.951
70991SOL     OW14746   9.958   7.475   4.556
70991SOL    HW114747   9.893   7.486   4.486
70991SOL    HW214748   9.990   7.564   4.572
70992SOL     OW14749  14.577   1.497  12.375
70992SOL    HW114750  14.562   1.522  12.466
70992SOL    HW214751  14.672   1.494  12.366
70993SOL     OW14752  10.488   3.734   0.367
70993SOL    HW114753  10.412   3.762   0.316
70993SOL    HW214754  10.476   3.774   0.453
70994SOL     OW14755   6.208   3.561  11.485
70994SOL    HW114756   6.249   3.475  11.498
70994SOL    HW214757   6.185   3.563  11.392
70995SOL     OW14758   7.928   9.458  14.807
70995SOL    HW114759   7.967   9.443   0.015
70995SOL    HW214760   7.852   9.514  14.825
70996SOL     OW14761  13.602   3.093  14.077
70996SOL    HW114762  13.549   3.015  14.096
70996SOL    HW214763  13.669   3.062  14.016
70997SOL     OW14764   2.481   8.493  10.319
70997SOL    HW114765   2.569   8.518  10.346
70997SOL    HW214766   2.423   8.543  10.376
70998SOL     OW14767  13.129  13.380   1.169
70998SOL    HW114768  13.151  13.468   1.138
70998SOL    HW214769  13.069  13.395   1.242
70999SOL     OW14770   7.088   7.735   8.476
70999SOL    HW114771   7.149   7.729   8.402
70999SOL    HW214772   7.042   7.652   8.477
71000SOL     OW14773   4.344  12.162  11.042
71000SOL    HW114774   4.313  12.245  11.078
71000SOL    HW214775   4.266  12.121  11.005
71001SOL     OW14776   6.171  11.950   8.777
71001SOL    HW114777   6.240  11.916   8.719
71001SOL    HW214778   6.109  11.993   8.718
71002SOL     OW14779   2.991   6.770   9.302
71002SOL    HW114780   2.986   6.851   9.250
71002SOL    HW214781   3.083   6.743   9.295
71003SOL     OW14782   1.841  12.945  10.418
71003SOL    HW114783   1.775  13.015  10.422
71003SOL    HW214784   1.810  12.888  10.347
71004SOL     OW14785  13.193   2.876  10.757
71004SOL    HW114786  13.276   2.849  10.718
71004SOL    HW214787  13.148   2.794  10.775
71005SOL     OW14788   9.947   6.120  10.211
71005SOL    HW114789   9.856   6.139  10.186
71005SOL    HW214790   9.999   6.160  10.142
71006SOL     OW14791   9.484  11.187   7.835
71006SOL    HW114792   9.389  11.185   7.839
71006SOL    HW214793   9.509  11.102   7.797
71007SOL     OW14794   5.367   3.298   5.256
71007SOL    HW114795   5.359   3.317   5.162
71007SOL    HW214796   5.376   3.203   5.261
71008SOL     OW14797   6.753   0.124   1.551
71008SOL    HW114798   6.671   0.114   1.503
71008SOL    HW214799   6.731   0.099   1.640
71009SOL     OW14800   4.481   4.637  11.154
71009SOL    HW114801   4.561   4.586  11.169
71009SOL    HW214802   4.511   4.717  11.111
71010SOL     OW14803   0.319   7.853  13.644
71010SOL    HW114804   0.330   7.878  13.552
71010SOL    HW214805   0.247   7.907  13.676
71011SOL     OW14806   1.731   8.229   8.521
71011SOL    HW114807   1.694   8.195   8.439
71011SOL    HW214808   1.762   8.152   8.568
71012SOL     OW14809   5.877   8.456   6.507
71012SOL    HW114810   5.838   8.396   6.570
71012SOL    HW214811   5.803   8.507   6.474
71013SOL     OW14812   9.900  14.588  12.103
71013SOL    HW114813   9.879  14.495  12.101
71013SOL    HW214814   9.816  14.633  12.092
71014SOL     OW14815   1.871  11.494  13.806
71014SOL    HW114816   1.941  11.559  13.810
71014SOL    HW214817   1.890  11.442  13.728
71015SOL     OW14818   7.622   0.773  14.359
71015SOL    HW114819   7.679   0.794  14.285
71015SOL    HW214820   7.577   0.856  14.379
71016SOL     OW14821   9.809  11.456   8.797
71016SOL    HW114822   9.849  11.419   8.718
71016SOL    HW214823   9.749  11.389   8.828
71017SOL     OW14824  14.016   6.043  11.540
71017SOL    HW114825  14.079   5.987  11.494
71017SOL    HW214826  13.931   6.006  11.518
71018SOL     OW14827  14.472   8.735   3.390
71018SOL    HW114828  14.428   8.783   3.459
71018SOL    HW214829  14.565   8.739   3.413
71019SOL     OW14830   8.499  13.670  14.180
71019SOL    HW114831   8.595  13.674  14.175
71019SOL    HW214832   8.481  13.613  14.254
71020SOL     OW14833  11.081  14.823  10.314
71020SOL    HW114834  11.085  14.754  10.247
71020SOL    HW214835  11.011  14.795  10.373
71021SOL     OW14836   7.576   3.902  12.075
71021SOL    HW114837   7.493   3.859  12.055
71021SOL    HW214838   7.579   3.905  12.171
71022SOL     OW14839   6.453   6.161   4.107
71022SOL    HW114840   6.426   6.224   4.174
71022SOL    HW214841   6.544   6.140   4.130
71023SOL     OW14842   1.483  14.200  10.615
71023SOL    HW114843   1.434  14.227  10.693
71023SOL    HW214844   1.416  14.164  10.556
71024SOL     OW14845  10.530  10.927  12.617
71024SOL    HW114846  10.476  10.893  12.688
71024SOL    HW214847  10.491  10.892  12.537
71025SOL     OW14848  10.997   5.585   1.287
71025SOL    HW114849  10.918   5.532   1.298
71025SOL    HW214850  11.022   5.572   1.196
71026SOL     OW14851  10.273   6.388   3.279
71026SOL    HW114852  10.193   6.390   3.332
71026SOL    HW214853  10.338   6.434   3.333
71027SOL     OW14854   3.914   3.532   3.195
71027SOL    HW114855   3.869   3.514   3.113
71027SOL    HW214856   3.986   3.590   3.172
71028SOL     OW14857   8.695   3.891  13.988
71028SOL    HW114858   8.624   3.943  13.950
71028SOL    HW214859   8.668   3.800  13.975
71029SOL     OW14860   9.521  12.294  13.166
71029SOL    HW114861   9.536  12.388  13.177
71029SOL    HW214862   9.486  12.266  13.251
71030SOL     OW14863   0.667   3.878  14.366
71030SOL    HW114864   0.699   3.899  14.453
71030SOL    HW214865   0.595   3.940  14.352
71031SOL     OW14866   9.183   1.544   1.610
71031SOL    HW114867   9.144   1.464   1.647
71031SOL    HW214868   9.273   1.544   1.641
71032SOL     OW14869   7.943   8.558   5.117
71032SOL    HW114870   7.886   8.634   5.121
71032SOL    HW214871   8.002   8.569   5.192
71033SOL     OW14872   3.778  11.948  13.149
71033SOL    HW114873   3.803  11.905  13.231
71033SOL    HW214874   3.804  11.887  13.080
71034SOL     OW14875   9.976   4.491   4.084
71034SOL    HW114876   9.959   4.482   4.178
71034SOL    HW214877  10.039   4.562   4.077
71035SOL     OW14878   9.271   0.141  11.650
71035SOL    HW114879   9.303   0.231  11.659
71035SOL    HW214880   9.191   0.149  11.597
71036SOL     OW14881  12.593   6.523  12.552
71036SOL    HW114882  12.590   6.508  12.457
71036SOL    HW214883  12.537   6.599  12.566
71037SOL     OW14884   1.303  10.591  13.670
71037SOL    HW114885   1.294  10.651  13.745
71037SOL    HW214886   1.348  10.643  13.603
71038SOL     OW14887  11.298   0.721  14.177
71038SOL    HW114888  11.384   0.706  14.139
71038SOL    HW214889  11.249   0.768  14.109
71039SOL     OW14890   7.167   3.169   5.317
71039SOL    HW114891   7.255   3.146   5.288
71039SOL    HW214892   7.111   3.149   5.242
71040SOL     OW14893   5.898  11.969   2.795
71040SOL    HW114894   5.890  11.915   2.717
71040SOL    HW214895   5.898  11.907   2.868
71041SOL     OW14896   0.618   0.349   4.136
71041SOL    HW114897   0.682   0.420   4.141
71041SOL    HW214898   0.621   0.320   4.045
71042SOL     OW14899   3.318  10.704   7.246
71042SOL    HW114900   3.336  10.652   7.325
71042SOL    HW214901   3.234  10.746   7.263
71043SOL     OW14902  11.818   8.251   3.865
71043SOL    HW114903  11.766   8.253   3.945
71043SOL    HW214904  11.830   8.343   3.841
71044SOL     OW14905  11.189   4.932  14.265
71044SOL    HW114906  11.165   4.851  14.309
71044SOL    HW214907  11.236   4.983  14.331
71045SOL     OW14908  14.352  11.057   9.968
71045SOL    HW114909  14.410  11.008   9.910
71045SOL    HW214910  14.407  11.080  10.043
71046SOL     OW14911   6.529  13.568   5.962
71046SOL    HW114912   6.575  13.626   5.900
71046SOL    HW214913   6.457  13.531   5.911
71047SOL     OW14914   2.187  14.321   4.114
71047SOL    HW114915   2.215  14.236   4.080
71047SOL    HW214916   2.127  14.355   4.047
71048SOL     OW14917   3.828  14.558   6.072
71048SOL    HW114918   3.869  14.550   5.985
71048SOL    HW214919   3.897  14.532   6.133
71049SOL     OW14920   9.804   6.412   6.037
71049SOL    HW114921   9.895   6.434   6.018
71049SOL    HW214922   9.757   6.495   6.028
71050SOL     OW14923   2.821  11.340   9.625
71050SOL    HW114924   2.817  11.268   9.689
71050SOL    HW214925   2.748  11.323   9.566
71051SOL     OW14926   2.310   0.344   8.703
71051SOL    HW114927   2.274   0.364   8.789
71051SOL    HW214928   2.237   0.305   8.655
71052SOL     OW14929   6.615  11.235  10.092
71052SOL    HW114930   6.639  11.161  10.148
71052SOL    HW214931   6.544  11.279  10.138
71053SOL     OW14932   7.143  13.957   8.947
71053SOL    HW114933   7.197  14.025   8.907
71053SOL    HW214934   7.102  13.912   8.873
71054SOL     OW14935   9.696  10.574   3.996
71054SOL    HW114936   9.719  10.505   3.934
71054SOL    HW214937   9.648  10.638   3.944
71055SOL     OW14938  14.617  13.634   0.141
71055SOL    HW114939  14.548  13.699   0.137
71055SOL    HW214940  14.600  13.585   0.221
71056SOL     OW14941   7.842   1.786   7.540
71056SOL    HW114942   7.905   1.714   7.531
71056SOL    HW214943   7.873   1.854   7.481
71057SOL     OW14944   3.944  11.133  11.096
71057SOL    HW114945   4.024  11.145  11.147
71057SOL    HW214946   3.873  11.148  11.158
71058SOL     OW14947  14.863   3.986  13.970
71058SOL    HW114948  14.834   3.910  13.920
71058SOL    HW214949  14.862   3.956  14.061
71059SOL     OW14950  13.700  14.100  11.903
71059SOL    HW114951  13.632  14.068  11.844
71059SOL    HW214952  13.706  14.033  11.971
71060SOL     OW14953   1.694   7.045   7.768
71060SOL    HW114954   1.630   6.994   7.817
71060SOL    HW214955   1.761   6.980   7.742
71061SOL     OW14956   9.671   4.564  12.626
71061SOL    HW114957   9.700   4.596  12.540
71061SOL    HW214958   9.682   4.469  12.621
71062SOL     OW14959  12.318   6.398   4.206
71062SOL    HW114960  12.311   6.311   4.246
71062SOL    HW214961  12.407   6.426   4.226
71063SOL     OW14962   2.223   6.913   8.590
71063SOL    HW114963   2.220   7.000   8.551
71063SOL    HW214964   2.288   6.919   8.659
71064SOL     OW14965  12.120  11.239  10.028
71064SOL    HW114966  12.190  11.233  10.093
71064SOL    HW214967  12.097  11.148  10.008
71065SOL     OW14968   7.772  13.444   9.384
71065SOL    HW114969   7.756  13.413   9.474
71065SOL    HW214970   7.688  13.481   9.357
71066SOL     OW14971   5.282   7.689   6.083
71066SOL    HW114972   5.284   7.780   6.113
71066SOL    HW214973   5.188   7.668   6.079
71067SOL     OW14974  13.277   4.437   3.655
71067SOL    HW114975  13.218   4.424   3.729
71067SOL    HW214976  13.360   4.399   3.684
71068SOL     OW14977   4.842  13.911  11.139
71068SOL    HW114978   4.870  13.902  11.229
71068SOL    HW214979   4.839  13.821  11.105
71069SOL     OW14980   1.564   9.686  14.543
71069SOL    HW114981   1.653   9.670  14.512
71069SOL    HW214982   1.555   9.628  14.619
71070SOL     OW14983   6.417  11.094   9.565
71070SOL    HW114984   6.392  11.114   9.475
71070SOL    HW214985   6.408  10.999   9.571
71071SOL     OW14986   1.840   0.543   9.248
71071SOL    HW114987   1.770   0.596   9.211
71071SOL    HW214988   1.909   0.606   9.270
71072SOL     OW14989   9.185   4.060  10.953
71072SOL    HW114990   9.276   4.089  10.961
71072SOL    HW214991   9.151   4.062  11.042
71073SOL     OW14992  14.041   2.745  11.729
71073SOL    HW114993  14.127   2.782  11.709
71073SOL    HW214994  13.984   2.774  11.658
71074SOL     OW14995   3.391  14.470   6.174
71074SOL    HW114996   3.467  14.464   6.115
71074SOL    HW214997   3.355  14.382   6.175
71075SOL     OW14998   9.492   4.203   5.700
71075SOL    HW114999   9.409   4.197   5.747
71075SOL    HW215000   9.476   4.156   5.618
71076SOL     OW15001   9.841   8.114  13.466
71076SOL    HW115002   9.824   8.090  13.375
71076SOL    HW215003   9.755   8.132  13.503
71077SOL     OW15004   2.674   3.170   5.554
71077SOL    HW115005   2.694   3.127   5.471
71077SOL    HW215006   2.599   3.226   5.535
71078SOL     OW15007   4.732   1.370   1.177
71078SOL    HW115008   4.745   1.346   1.086
71078SOL    HW215009   4.638   1.390   1.184
71079SOL     OW15010  10.957   1.911  14.596
71079SOL    HW115011  11.051   1.924  14.613
71079SOL    HW215012  10.933   1.984  14.540
71080SOL     OW15013   1.144  12.132   3.225
71080SOL    HW115014   1.073  12.088   3.178
71080SOL    HW215015   1.122  12.225   3.220
71081SOL     OW15016   0.703   0.038   4.521
71081SOL    HW115017   0.674  14.832   4.557
71081SOL    HW215018   0.759   0.075   4.589
71082SOL     OW15019   6.944  14.370  10.684
71082SOL    HW115020   6.852  14.350  10.701
71082SOL    HW215021   6.989  14.350  10.766
71083SOL     OW15022  13.044   1.598  10.357
71083SOL    HW115023  12.987   1.548  10.415
71083SOL    HW215024  13.061   1.679  10.405
71084SOL     OW15025  12.728  13.356   7.187
71084SOL    HW115026  12.708  13.413   7.112
71084SOL    HW215027  12.716  13.412   7.264
71085SOL     OW15028   0.813  14.772   0.435
71085SOL    HW115029   0.786  14.806   0.350
71085SOL    HW215030   0.885  14.711   0.415
71086SOL     OW15031   7.578   0.967   3.459
71086SOL    HW115032   7.527   1.047   3.473
71086SOL    HW215033   7.651   0.973   3.520
71087SOL     OW15034   0.190  10.319  11.682
71087SOL    HW115035   0.266  10.329  11.625
71087SOL    HW215036   0.226  10.318  11.770
71088SOL     OW15037   1.906  13.952   2.698
71088SOL    HW115038   1.814  13.967   2.675
71088SOL    HW215039   1.920  14.005   2.776
71089SOL     OW15040   3.475   5.915   9.838
71089SOL    HW115041   3.529   5.861   9.780
71089SOL    HW215042   3.452   5.992   9.785
71090SOL     OW15043  10.186   8.587  13.537
71090SOL    HW115044  10.146   8.649  13.598
71090SOL    HW215045  10.113   8.559  13.481
71091SOL     OW15046  10.881   9.918   6.351
71091SOL    HW115047  10.821   9.967   6.296
71091SOL    HW215048  10.894   9.835   6.305
71092SOL     OW15049   6.448   9.144  10.202
71092SOL    HW115050   6.519   9.088  10.233
71092SOL    HW215051   6.403   9.173  10.281
71093SOL     OW15052   3.383   8.090  12.911
71093SOL    HW115053   3.326   8.013  12.921
71093SOL    HW215054   3.323   8.160  12.885
71094SOL     OW15055   8.283  14.213   2.776
71094SOL    HW115056   8.332  14.282   2.731
71094SOL    HW215057   8.316  14.132   2.738
71095SOL     OW15058   8.497  14.060   4.510
71095SOL    HW115059   8.444  14.022   4.580
71095SOL    HW215060   8.582  14.016   4.518
71096SOL     OW15061   0.294   7.970  10.260
71096SOL    HW115062   0.237   7.893  10.261
71096SOL    HW215063   0.355   7.956  10.332
71097SOL     OW15064   7.902   0.364  12.221
71097SOL    HW115065   7.963   0.437  12.229
71097SOL    HW215066   7.816   0.403  12.232
71098SOL     OW15067   2.894   6.321  13.800
71098SOL    HW115068   2.928   6.264  13.869
71098SOL    HW215069   2.825   6.371  13.842
71099SOL     OW15070   1.801  12.047   4.051
71099SOL    HW115071   1.726  11.993   4.028
71099SOL    HW215072   1.789  12.128   4.001
71100SOL     OW15073  10.990   6.722  10.283
71100SOL    HW115074  11.007   6.701  10.191
71100SOL    HW215075  10.928   6.655  10.312
71101SOL     OW15076   0.859   6.870   1.674
71101SOL    HW115077   0.787   6.829   1.723
71101SOL    HW215078   0.888   6.803   1.613
71102SOL     OW15079   2.549   1.377  12.699
71102SOL    HW115080   2.511   1.290  12.694
71102SOL    HW215081   2.572   1.389  12.791
71103SOL     OW15082   1.332   3.739   6.585
71103SOL    HW115083   1.278   3.791   6.645
71103SOL    HW215084   1.392   3.803   6.546
71104SOL     OW15085   4.648  12.029  10.358
71104SOL    HW115086   4.671  11.943  10.393
71104SOL    HW215087   4.578  12.061  10.414
71105SOL     OW15088   9.829   4.238   5.410
71105SOL    HW115089   9.785   4.321   5.428
71105SOL    HW215090   9.761   4.183   5.370
71106SOL     OW15091   9.952   9.002   1.850
71106SOL    HW115092   9.907   9.081   1.879
71106SOL    HW215093  10.008   9.031   1.778
71107SOL     OW15094   8.027   7.696   3.525
71107SOL    HW115095   8.056   7.786   3.537
71107SOL    HW215096   7.973   7.698   3.446
71108SOL     OW15097  14.689   3.747   4.454
71108SOL    HW115098  14.738   3.762   4.373
71108SOL    HW215099  14.649   3.832   4.473
71109SOL     OW15100   4.289   5.701  12.854
71109SOL    HW115101   4.363   5.695  12.913
71109SOL    HW215102   4.322   5.668  12.770
71110SOL     OW15103  12.333  13.478   7.839
71110SOL    HW115104  12.261  13.425   7.804
71110SOL    HW215105  12.368  13.426   7.911
71111SOL     OW15106   0.381   8.803   4.181
71111SOL    HW115107   0.453   8.856   4.148
71111SOL    HW215108   0.416   8.763   4.261
71112SOL     OW15109  12.155   1.675   5.204
71112SOL    HW115110  12.185   1.698   5.292
71112SOL    HW215111  12.234   1.673   5.151
71113SOL     OW15112  13.773   9.722   7.035
71113SOL    HW115113  13.715   9.723   6.959
71113SOL    HW215114  13.718   9.690   7.107
71114SOL     OW15115   5.836   4.879  12.454
71114SOL    HW115116   5.758   4.921  12.493
71114SOL    HW215117   5.888   4.953  12.421
71115SOL     OW15118   2.761   2.790   7.578
71115SOL    HW115119   2.804   2.798   7.492
71115SOL    HW215120   2.668   2.804   7.559
71116SOL     OW15121   2.226  13.996   1.445
71116SOL    HW115122   2.151  13.991   1.503
71116SOL    HW215123   2.265  13.909   1.447
71117SOL     OW15124   6.885   5.450  10.517
71117SOL    HW115125   6.795   5.463  10.488
71117SOL    HW215126   6.887   5.484  10.606
71118SOL     OW15127  13.437   3.926   9.839
71118SOL    HW115128  13.435   3.953   9.747
71118SOL    HW215129  13.350   3.889   9.855
71119SOL     OW15130   4.383   4.811   0.726
71119SOL    HW115131   4.295   4.783   0.750
71119SOL    HW215132   4.440   4.739   0.756
71120SOL     OW15133   5.319   8.687   3.970
71120SOL    HW115134   5.256   8.702   4.040
71120SOL    HW215135   5.334   8.774   3.932
71121SOL     OW15136  13.774   6.229   7.975
71121SOL    HW115137  13.820   6.216   7.892
71121SOL    HW215138  13.843   6.243   8.039
71122SOL     OW15139  11.861   1.031  11.499
71122SOL    HW115140  11.942   1.075  11.473
71122SOL    HW215141  11.889   0.952  11.545
71123SOL     OW15142   4.982   5.910   8.278
71123SOL    HW115143   4.962   5.865   8.359
71123SOL    HW215144   5.077   5.902   8.268
71124SOL     OW15145   3.820   7.258   0.187
71124SOL    HW115146   3.869   7.325   0.139
71124SOL    HW215147   3.885   7.217   0.243
71125SOL     OW15148  11.469   0.037  12.959
71125SOL    HW115149  11.535   0.097  12.994
71125SOL    HW215150  11.393   0.092  12.942
71126SOL     OW15151  13.186   1.428   1.597
71126SOL    HW115152  13.107   1.375   1.589
71126SOL    HW215153  13.162   1.513   1.561
71127SOL     OW15154  12.301   9.285  11.706
71127SOL    HW115155  12.378   9.289  11.763
71127SOL    HW215156  12.227   9.291  11.766
71128SOL     OW15157   1.048   5.979   6.602
71128SOL    HW115158   1.136   5.960   6.570
71128SOL    HW215159   0.996   5.988   6.522
71129SOL     OW15160   1.756   4.560  14.125
71129SOL    HW115161   1.723   4.550  14.036
71129SOL    HW215162   1.742   4.653  14.145
71130SOL     OW15163  11.021  14.703   1.410
71130SOL    HW115164  10.947  14.647   1.388
71130SOL    HW215165  11.031  14.694   1.504
71131SOL     OW15166   2.006   2.572  14.330
71131SOL    HW115167   1.976   2.656  14.365
71131SOL    HW215168   1.944   2.552  14.260
71132SOL     OW15169   1.119   3.544   8.195
71132SOL    HW115170   1.024   3.547   8.198
71132SOL    HW215171   1.140   3.452   8.212
71133SOL     OW15172  11.627   2.565  12.004
71133SOL    HW115173  11.677   2.537  12.080
71133SOL    HW215174  11.656   2.654  11.987
71134SOL     OW15175   4.809  13.480  13.800
71134SOL    HW115176   4.788  13.428  13.723
71134SOL    HW215177   4.904  13.470  13.811
71135SOL     OW15178   7.914  11.212   1.480
71135SOL    HW115179   7.908  11.298   1.522
71135SOL    HW215180   8.002  11.180   1.501
71136SOL     OW15181   0.122  14.116   9.254
71136SOL    HW115182   0.123  14.030   9.211
71136SOL    HW215183   0.106  14.096   9.346
71137SOL     OW15184   4.292  12.751  10.927
71137SOL    HW115185   4.278  12.776  10.836
71137SOL    HW215186   4.241  12.671  10.939
71138SOL     OW15187  13.518  13.192  14.402
71138SOL    HW115188  13.464  13.268  14.379
71138SOL    HW215189  13.563  13.219  14.482
71139SOL     OW15190   4.662  11.611   7.664
71139SOL    HW115191   4.637  11.657   7.585
71139SOL    HW215192   4.580  11.575   7.698
71140SOL     OW15193   5.982   7.620  12.745
71140SOL    HW115194   5.970   7.600  12.838
71140SOL    HW215195   5.906   7.580  12.702
71141SOL     OW15196   2.805   4.171   5.262
71141SOL    HW115197   2.831   4.193   5.351
71141SOL    HW215198   2.730   4.228   5.244
71142SOL     OW15199  11.187   1.136   8.144
71142SOL    HW115200  11.173   1.087   8.063
71142SOL    HW215201  11.124   1.208   8.140
71143SOL     OW15202   8.925   4.020   2.924
71143SOL    HW115203   9.010   4.035   2.965
71143SOL    HW215204   8.863   4.068   2.979
71144SOL     OW15205  13.920  12.998   2.084
71144SOL    HW115206  13.898  12.922   2.137
71144SOL    HW215207  13.981  13.048   2.138
71145SOL     OW15208   8.953   3.073   0.631
71145SOL    HW115209   9.017   3.140   0.609
71145SOL    HW215210   8.898   3.065   0.553
71146SOL     OW15211  12.882   1.380   0.733
71146SOL    HW115212  12.881   1.415   0.644
71146SOL    HW215213  12.862   1.455   0.789
71147SOL     OW15214   7.920   2.355   1.632
71147SOL    HW115215   7.927   2.384   1.541
71147SOL    HW215216   7.922   2.435   1.683
71148SOL     OW15217   2.596  14.488   6.834
71148SOL    HW115218   2.523  14.546   6.853
71148SOL    HW215219   2.662  14.509   6.900
71149SOL     OW15220  11.961  13.244  10.155
71149SOL    HW115221  11.909  13.177  10.111
71149SOL    HW215222  11.927  13.247  10.244
71150SOL     OW15223   6.347   8.885   8.792
71150SOL    HW115224   6.332   8.824   8.720
71150SOL    HW215225   6.320   8.837   8.871
71151SOL     OW15226   8.127   1.093   6.664
71151SOL    HW115227   8.194   1.117   6.600
71151SOL    HW215228   8.052   1.149   6.643
71152SOL     OW15229   3.025   4.911   0.415
71152SOL    HW115230   3.015   4.896   0.509
71152SOL    HW215231   2.936   4.930   0.385
71153SOL     OW15232  12.393  12.922  11.772
71153SOL    HW115233  12.430  12.836  11.751
71153SOL    HW215234  12.455  12.960  11.833
71154SOL     OW15235   7.234   4.020   7.796
71154SOL    HW115236   7.318   3.997   7.755
71154SOL    HW215237   7.255   4.095   7.852
71155SOL     OW15238  11.231  13.809   4.064
71155SOL    HW115239  11.190  13.723   4.056
71155SOL    HW215240  11.199  13.843   4.147
71156SOL     OW15241   1.528  14.705   6.983
71156SOL    HW115242   1.565  14.740   6.902
71156SOL    HW215243   1.471  14.633   6.954
71157SOL     OW15244   3.787   7.897   6.662
71157SOL    HW115245   3.752   7.808   6.666
71157SOL    HW215246   3.858   7.897   6.727
71158SOL     OW15247   3.207   6.343  10.102
71158SOL    HW115248   3.283   6.399  10.088
71158SOL    HW215249   3.243   6.254  10.101
71159SOL     OW15250   7.700   1.622   5.790
71159SOL    HW115251   7.653   1.545   5.822
71159SOL    HW215252   7.643   1.658   5.722
71160SOL     OW15253   6.578   6.440   9.406
71160SOL    HW115254   6.520   6.376   9.446
71160SOL    HW215255   6.565   6.520   9.456
71161SOL     OW15256  10.203   1.219  13.466
71161SOL    HW115257  10.273   1.213  13.402
71161SOL    HW215258  10.182   1.312  13.472
71162SOL     OW15259  14.045   7.119   4.765
71162SOL    HW115260  14.041   7.024   4.780
71162SOL    HW215261  14.115   7.130   4.701
71163SOL     OW15262   7.101   5.860   3.665
71163SOL    HW115263   7.080   5.931   3.603
71163SOL    HW215264   7.057   5.886   3.746
71164SOL     OW15265   4.049   5.953   5.619
71164SOL    HW115266   4.061   5.981   5.710
71164SOL    HW215267   3.973   5.894   5.622
71165SOL     OW15268   2.355  11.102   5.455
71165SOL    HW115269   2.434  11.048   5.459
71165SOL    HW215270   2.313  11.089   5.540
71166SOL     OW15271   2.429   0.716   4.280
71166SOL    HW115272   2.454   0.769   4.356
71166SOL    HW215273   2.448   0.771   4.205
71167SOL     OW15274   9.133  12.189   2.168
71167SOL    HW115275   9.206  12.149   2.215
71167SOL    HW215276   9.165  12.200   2.079
71168SOL     OW15277  14.739   4.734  11.108
71168SOL    HW115278  14.801   4.750  11.036
71168SOL    HW215279  14.749   4.810  11.165
71169SOL     OW15280   0.062   6.204   3.961
71169SOL    HW115281   0.106   6.285   3.986
71169SOL    HW215282   0.127   6.156   3.910
71170SOL     OW15283   3.453  11.866   1.240
71170SOL    HW115284   3.494  11.826   1.164
71170SOL    HW215285   3.464  11.960   1.227
71171SOL     OW15286  13.620   9.656   4.965
71171SOL    HW115287  13.559   9.587   4.990
71171SOL    HW215288  13.571   9.713   4.906
71172SOL     OW15289   2.123   8.184  12.050
71172SOL    HW115290   2.189   8.117  12.071
71172SOL    HW215291   2.090   8.213  12.135
71173SOL     OW15292   7.993  14.630   6.360
71173SOL    HW115293   8.002  14.614   6.267
71173SOL    HW215294   7.911  14.679   6.368
71174SOL     OW15295   1.621  10.883   6.205
71174SOL    HW115296   1.654  10.833   6.131
71174SOL    HW215297   1.527  10.894   6.186
71175SOL     OW15298  13.213   7.366  13.385
71175SOL    HW115299  13.193   7.302  13.453
71175SOL    HW215300  13.239   7.444  13.433
71176SOL     OW15301  14.478   5.864   4.697
71176SOL    HW115302  14.427   5.784   4.708
71176SOL    HW215303  14.532   5.869   4.775
71177SOL     OW15304   3.451   2.509   0.523
71177SOL    HW115305   3.389   2.560   0.576
71177SOL    HW215306   3.525   2.493   0.582
71178SOL     OW15307  12.120   5.662   4.453
71178SOL    HW115308  12.113   5.722   4.527
71178SOL    HW215309  12.194   5.695   4.402
71179SOL     OW15310   0.237   6.987  12.603
71179SOL    HW115311   0.272   6.929  12.671
71179SOL    HW215312   0.147   7.002  12.629
71180SOL     OW15313   6.881   1.657   8.258
71180SOL    HW115314   6.906   1.749   8.250
71180SOL    HW215315   6.798   1.659   8.305
71181SOL     OW15316  11.561   7.818   5.540
71181SOL    HW115317  11.594   7.806   5.629
71181SOL    HW215318  11.530   7.731   5.514
71182SOL     OW15319   5.615   3.087   1.216
71182SOL    HW115320   5.642   3.160   1.160
71182SOL    HW215321   5.663   3.012   1.181
71183SOL     OW15322  14.869   7.612  11.532
71183SOL    HW115323  14.837   7.524  11.553
71183SOL    HW215324  14.805   7.671  11.571
71184SOL     OW15325  14.292   5.158   9.252
71184SOL    HW115326  14.260   5.145   9.162
71184SOL    HW215327  14.367   5.100   9.259
71185SOL     OW15328   4.622   6.990   2.172
71185SOL    HW115329   4.599   7.060   2.111
71185SOL    HW215330   4.666   6.924   2.119
71186SOL     OW15331  11.548   2.582  13.900
71186SOL    HW115332  11.564   2.524  13.975
71186SOL    HW215333  11.629   2.631  13.889
71187SOL     OW15334   7.555  13.969   1.350
71187SOL    HW115335   7.493  13.914   1.398
71187SOL    HW215336   7.501  14.040   1.316
71188SOL     OW15337   2.158   3.510  10.668
71188SOL    HW115338   2.092   3.564  10.711
71188SOL    HW215339   2.154   3.537  10.576
71189SOL     OW15340   0.521   4.863  10.438
71189SOL    HW115341   0.481   4.784  10.474
71189SOL    HW215342   0.565   4.904  10.512
71190SOL     OW15343   9.374   3.850  14.233
71190SOL    HW115344   9.394   3.939  14.262
71190SOL    HW215345   9.333   3.862  14.147
71191SOL     OW15346  11.229   8.356   1.949
71191SOL    HW115347  11.240   8.373   2.043
71191SOL    HW215348  11.154   8.410   1.924
71192SOL     OW15349   1.810   3.949   8.034
71192SOL    HW115350   1.744   3.928   8.099
71192SOL    HW215351   1.762   3.950   7.951
71193SOL     OW15352   2.423   3.310   5.190
71193SOL    HW115353   2.467   3.264   5.261
71193SOL    HW215354   2.336   3.270   5.185
71194SOL     OW15355   4.014  11.191   8.287
71194SOL    HW115356   3.919  11.193   8.302
71194SOL    HW215357   4.023  11.154   8.199
71195SOL     OW15358  11.028   2.966  13.499
71195SOL    HW115359  10.947   2.916  13.491
71195SOL    HW215360  11.096   2.900  13.509
71196SOL     OW15361  11.630   7.271   4.946
71196SOL    HW115362  11.665   7.319   4.871
71196SOL    HW215363  11.535   7.282   4.939
71197SOL     OW15364   0.707   9.206  11.365
71197SOL    HW115365   0.766   9.275  11.393
71197SOL    HW215366   0.746   9.173  11.284
71198SOL     OW15367   6.006  14.519   0.666
71198SOL    HW115368   5.924  14.568   0.660
71198SOL    HW215369   6.074  14.583   0.644
71199SOL     OW15370  10.223   0.922   8.172
71199SOL    HW115371  10.130   0.940   8.160
71199SOL    HW215372  10.235   0.920   8.267
71200SOL     OW15373  10.179   5.671  12.877
71200SOL    HW115374  10.204   5.586  12.840
71200SOL    HW215375  10.262   5.718  12.888
71201SOL     OW15376  13.986   1.264   7.204
71201SOL    HW115377  14.068   1.214   7.201
71201SOL    HW215378  13.925   1.213   7.152
71202SOL     OW15379  11.671  13.916   0.737
71202SOL    HW115380  11.710  14.002   0.727
71202SOL    HW215381  11.725  13.873   0.804
71203SOL     OW15382   7.961  11.309  13.385
71203SOL    HW115383   7.955  11.214  13.394
71203SOL    HW215384   7.893  11.343  13.443
71204SOL     OW15385  12.205  13.682   4.629
71204SOL    HW115386  12.219  13.697   4.535
71204SOL    HW215387  12.116  13.714   4.645
71205SOL     OW15388   3.630   2.992  11.564
71205SOL    HW115389   3.654   2.936  11.490
71205SOL    HW215390   3.712   3.002  11.614
71206SOL     OW15391  13.048   9.727   2.280
71206SOL    HW115392  13.088   9.757   2.362
71206SOL    HW215393  13.120   9.688   2.231
71207SOL     OW15394   6.269   0.003   7.897
71207SOL    HW115395   6.313  14.818   7.955
71207SOL    HW215396   6.176  14.855   7.900
71208SOL     OW15397  11.284  10.126  14.465
71208SOL    HW115398  11.300  10.072  14.388
71208SOL    HW215399  11.281  10.216  14.431
71209SOL     OW15400   3.756   5.807   4.998
71209SOL    HW115401   3.746   5.813   4.903
71209SOL    HW215402   3.789   5.719   5.013
71210SOL     OW15403   0.862   0.287   4.388
71210SOL    HW115404   0.879   0.377   4.359
71210SOL    HW215405   0.839   0.240   4.308
71211SOL     OW15406   5.130  12.462  13.271
71211SOL    HW115407   5.148  12.405  13.196
71211SOL    HW215408   5.090  12.404  13.336
71212SOL     OW15409   0.572   9.952  12.841
71212SOL    HW115410   0.512   9.942  12.768
71212SOL    HW215411   0.538   9.894  12.909
71213SOL     OW15412   0.905   4.997  10.099
71213SOL    HW115413   0.898   4.982  10.193
71213SOL    HW215414   0.824   5.042  10.076
71214SOL     OW15415  10.193   2.043   0.379
71214SOL    HW115416  10.284   2.067   0.396
71214SOL    HW215417  10.182   1.960   0.425
71215SOL     OW15418   2.408   2.974   0.931
71215SOL    HW115419   2.408   2.938   0.842
71215SOL    HW215420   2.386   2.900   0.987
71216SOL     OW15421  13.716   6.900  13.605
71216SOL    HW115422  13.783   6.835  13.583
71216SOL    HW215423  13.728   6.916  13.699
71217SOL     OW15424   8.625   7.379   4.032
71217SOL    HW115425   8.545   7.431   4.039
71217SOL    HW215426   8.655   7.369   4.122
71218SOL     OW15427   0.391   2.081   0.071
71218SOL    HW115428   0.437   2.164   0.056
71218SOL    HW215429   0.325   2.102   0.137
71219SOL     OW15430  10.827   5.835   8.931
71219SOL    HW115431  10.827   5.917   8.980
71219SOL    HW215432  10.827   5.766   8.998
71220SOL     OW15433   3.724  12.593  11.793
71220SOL    HW115434   3.653  12.532  11.778
71220SOL    HW215435   3.789  12.572  11.726
71221SOL     OW15436   7.671   1.698   2.792
71221SOL    HW115437   7.693   1.613   2.831
71221SOL    HW215438   7.694   1.762   2.860
71222SOL     OW15439   6.062   5.206   8.502
71222SOL    HW115440   6.024   5.280   8.550
71222SOL    HW215441   6.116   5.247   8.435
71223SOL     OW15442   3.464   9.564  12.428
71223SOL    HW115443   3.451   9.553  12.334
71223SOL    HW215444   3.411   9.640  12.452
71224SOL     OW15445   4.196  13.624   6.255
71224SOL    HW115446   4.181  13.623   6.349
71224SOL    HW215447   4.110  13.608   6.217
71225SOL     OW15448   8.761  11.521   6.834
71225SOL    HW115449   8.785  11.608   6.801
71225SOL    HW215450   8.666  11.524   6.843
71226SOL     OW15451   9.059   3.330   4.563
71226SOL    HW115452   9.071   3.301   4.654
71226SOL    HW215453   9.142   3.375   4.542
71227SOL     OW15454   5.484   2.741  11.060
71227SOL    HW115455   5.399   2.784  11.070
71227SOL    HW215456   5.542   2.810  11.028
71228SOL     OW15457   4.636   0.428  13.017
71228SOL    HW115458   4.623   0.523  13.027
71228SOL    HW215459   4.579   0.389  13.083
71229SOL     OW15460   3.331   0.320   4.634
71229SOL    HW115461   3.292   0.233   4.627
71229SOL    HW215462   3.349   0.347   4.544
71230SOL     OW15463   4.834  12.610   9.609
71230SOL    HW115464   4.760  12.671   9.608
71230SOL    HW215465   4.810  12.544   9.674
71231SOL     OW15466   1.684  13.387   0.452
71231SOL    HW115467   1.633  13.322   0.402
71231SOL    HW215468   1.775  13.363   0.436
71232SOL     OW15469   8.503   9.174   7.839
71232SOL    HW115470   8.519   9.102   7.779
71232SOL    HW215471   8.568   9.240   7.816
71233SOL     OW15472  13.429  14.191   5.014
71233SOL    HW115473  13.432  14.101   5.046
71233SOL    HW215474  13.463  14.187   4.925
71234SOL     OW15475  12.829  10.539   8.698
71234SOL    HW115476  12.903  10.581   8.656
71234SOL    HW215477  12.759  10.605   8.696
71235SOL     OW15478  11.632  12.842   8.612
71235SOL    HW115479  11.696  12.785   8.656
71235SOL    HW215480  11.676  12.927   8.606
71236SOL     OW15481  14.782   6.915   0.575
71236SOL    HW115482  14.872   6.887   0.595
71236SOL    HW215483  14.751   6.851   0.510
71237SOL     OW15484  13.659   1.204   7.291
71237SOL    HW115485  13.717   1.145   7.339
71237SOL    HW215486  13.658   1.284   7.343
71238SOL     OW15487   2.650   1.735   4.771
71238SOL    HW115488   2.560   1.755   4.746
71238SOL    HW215489   2.697   1.725   4.688
71239SOL     OW15490   1.048  13.212   8.078
71239SOL    HW115491   0.972  13.256   8.115
71239SOL    HW215492   1.018  13.182   7.992
71240SOL     OW15493   3.904  10.274   0.388
71240SOL    HW115494   3.817  10.296   0.355
71240SOL    HW215495   3.890  10.197   0.443
71241SOL     OW15496   7.078   9.505   2.668
71241SOL    HW115497   7.060   9.440   2.736
71241SOL    HW215498   7.169   9.488   2.642
71242SOL     OW15499   6.592   4.920   4.970
71242SOL    HW115500   6.669   4.947   5.020
71242SOL    HW215501   6.520   4.972   5.005
71243SOL     OW15502   8.229   0.479   0.669
71243SOL    HW115503   8.300   0.484   0.605
71243SOL    HW215504   8.153   0.515   0.623
71244SOL     OW15505   0.196  11.442  12.182
71244SOL    HW115506   0.214  11.536  12.180
71244SOL    HW215507   0.101  11.436  12.178
71245SOL     OW15508  13.801   9.028   8.522
71245SOL    HW115509  13.776   8.955   8.465
71245SOL    HW215510  13.724   9.085   8.522
71246SOL     OW15511   5.692   7.125   3.167
71246SOL    HW115512   5.735   7.077   3.096
71246SOL    HW215513   5.621   7.067   3.196
71247SOL     OW15514   6.963   8.606  11.031
71247SOL    HW115515   6.999   8.625  10.945
71247SOL    HW215516   6.918   8.522  11.020
71248SOL     OW15517  14.711  14.393  10.899
71248SOL    HW115518  14.791  14.381  10.950
71248SOL    HW215519  14.650  14.438  10.959
71249SOL     OW15520   5.385   3.417   6.976
71249SOL    HW115521   5.334   3.483   6.930
71249SOL    HW215522   5.321   3.368   7.028
71250SOL     OW15523  12.697  11.725   5.803
71250SOL    HW115524  12.622  11.760   5.754
71250SOL    HW215525  12.657  11.672   5.873
71251SOL     OW15526  14.119   1.006   5.184
71251SOL    HW115527  14.113   0.975   5.275
71251SOL    HW215528  14.028   1.015   5.156
71252SOL     OW15529  10.648   6.759  10.507
71252SOL    HW115530  10.651   6.822  10.435
71252SOL    HW215531  10.634   6.813  10.585
71253SOL     OW15532   5.079   8.901  11.180
71253SOL    HW115533   5.000   8.954  11.188
71253SOL    HW215534   5.111   8.920  11.091
71254SOL     OW15535   1.465   6.757   5.511
71254SOL    HW115536   1.375   6.786   5.501
71254SOL    HW215537   1.463   6.698   5.587
71255SOL     OW15538   9.478   9.977  10.155
71255SOL    HW115539   9.554   9.931  10.189
71255SOL    HW215540   9.461  10.046  10.220
71256SOL     OW15541   8.434   3.505   1.276
71256SOL    HW115542   8.348   3.464   1.275
71256SOL    HW215543   8.455   3.522   1.185
71257SOL     OW15544   8.071   4.781  12.783
71257SOL    HW115545   8.043   4.713  12.722
71257SOL    HW215546   8.167   4.778  12.780
71258SOL     OW15547  11.092   1.556  12.566
71258SOL    HW115548  11.039   1.561  12.486
71258SOL    HW215549  11.029   1.561  12.637
71259SOL     OW15550   6.075  10.404   8.696
71259SOL    HW115551   6.109  10.489   8.722
71259SOL    HW215552   6.000  10.390   8.753
71260SOL     OW15553  10.723   4.022   0.820
71260SOL    HW115554  10.690   3.948   0.769
71260SOL    HW215555  10.707   4.098   0.765
71261SOL     OW15556   2.388   7.958   2.795
71261SOL    HW115557   2.412   7.871   2.824
71261SOL    HW215558   2.307   7.978   2.843
71262SOL     OW15559   4.718  12.658  14.797
71262SOL    HW115560   4.664  12.601  14.852
71262SOL    HW215561   4.654  12.714  14.752
71263SOL     OW15562  14.779   7.842  12.503
71263SOL    HW115563  14.766   7.916  12.563
71263SOL    HW215564  14.866   7.856  12.466
71264SOL     OW15565  13.112  14.078   1.224
71264SOL    HW115566  13.071  14.161   1.202
71264SOL    HW215567  13.063  14.046   1.300
71265SOL     OW15568   4.858   7.663   6.951
71265SOL    HW115569   4.889   7.580   6.988
71265SOL    HW215570   4.855   7.647   6.857
71266SOL     OW15571   5.002  13.208  10.278
71266SOL    HW115572   5.023  13.125  10.236
71266SOL    HW215573   5.021  13.193  10.371
71267SOL     OW15574   2.917   0.251   7.449
71267SOL    HW115575   2.834   0.207   7.433
71267SOL    HW215576   2.968   0.189   7.502
71268SOL     OW15577  13.046   6.657   9.547
71268SOL    HW115578  12.958   6.642   9.582
71268SOL    HW215579  13.032   6.714   9.472
71269SOL     OW15580  11.762   3.545   7.580
71269SOL    HW115581  11.705   3.578   7.511
71269SOL    HW215582  11.847   3.533   7.537
71270SOL     OW15583   5.804   6.655   8.587
71270SOL    HW115584   5.795   6.705   8.667
71270SOL    HW215585   5.828   6.719   8.520
71271SOL     OW15586  11.219  12.405  10.198
71271SOL    HW115587  11.136  12.449  10.181
71271SOL    HW215588  11.283  12.477  10.202
71272SOL     OW15589   7.776   1.656   2.548
71272SOL    HW115590   7.739   1.665   2.636
71272SOL    HW215591   7.770   1.563   2.529
71273SOL     OW15592   0.412   2.797  13.061
71273SOL    HW115593   0.435   2.739  12.989
71273SOL    HW215594   0.494   2.839  13.086
71274SOL     OW15595  14.123   5.517   2.918
71274SOL    HW115596  14.146   5.434   2.878
71274SOL    HW215597  14.153   5.583   2.855
71275SOL     OW15598  14.297   8.649   9.935
71275SOL    HW115599  14.392   8.658   9.926
71275SOL    HW215600  14.276   8.696  10.016
71276SOL     OW15601   8.947   9.364  10.497
71276SOL    HW115602   8.882   9.432  10.477
71276SOL    HW215603   8.895   9.285  10.514
71277SOL     OW15604  11.755   5.014   8.665
71277SOL    HW115605  11.749   4.932   8.713
71277SOL    HW215606  11.848   5.022   8.643
71278SOL     OW15607   9.386  14.783  13.566
71278SOL    HW115608   9.372  14.849  13.498
71278SOL    HW215609   9.457  14.728  13.532
71279SOL     OW15610   6.815   4.011   7.788
71279SOL    HW115611   6.728   4.037   7.757
71279SOL    HW215612   6.850   4.090   7.831
71280SOL     OW15613  13.278   6.493   1.465
71280SOL    HW115614  13.354   6.449   1.504
71280SOL    HW215615  13.314   6.573   1.426
71281SOL     OW15616   4.894  10.939   3.520
71281SOL    HW115617   4.940  10.958   3.602
71281SOL    HW215618   4.850  11.021   3.498
71282SOL     OW15619   0.871   5.711   7.698
71282SOL    HW115620   0.889   5.690   7.789
71282SOL    HW215621   0.782   5.745   7.698
71283SOL     OW15622   7.738   4.173   8.118
71283SOL    HW115623   7.699   4.226   8.048
71283SOL    HW215624   7.832   4.177   8.100
71284SOL     OW15625   4.183  12.215   0.165
71284SOL    HW115626   4.236  12.207   0.245
71284SOL    HW215627   4.154  12.126   0.147
71285SOL     OW15628   1.997   3.199   3.392
71285SOL    HW115629   2.034   3.122   3.434
71285SOL    HW215630   1.988   3.175   3.300
71286SOL     OW15631  10.998  13.315   0.671
71286SOL    HW115632  11.015  13.353   0.585
71286SOL    HW215633  10.953  13.233   0.653
71287SOL     OW15634   4.873  11.072  13.368
71287SOL    HW115635   4.934  11.018  13.317
71287SOL    HW215636   4.836  11.133  13.304
71288SOL     OW15637   6.349   4.501   2.426
71288SOL    HW115638   6.391   4.460   2.502
71288SOL    HW215639   6.358   4.436   2.356
71289SOL     OW15640   4.397   7.246  11.847
71289SOL    HW115641   4.400   7.215  11.937
71289SOL    HW215642   4.338   7.185  11.803
71290SOL     OW15643  11.603   0.260  14.311
71290SOL    HW115644  11.516   0.225  14.292
71290SOL    HW215645  11.605   0.345  14.268
71291SOL     OW15646  12.809   3.371  14.428
71291SOL    HW115647  12.799   3.453  14.477
71291SOL    HW215648  12.797   3.397  14.337
71292SOL     OW15649   2.327   5.980   6.526
71292SOL    HW115650   2.310   6.049   6.590
71292SOL    HW215651   2.290   5.901   6.565
71293SOL     OW15652   5.697   6.698   2.588
71293SOL    HW115653   5.641   6.638   2.638
71293SOL    HW215654   5.772   6.713   2.645
71294SOL     OW15655   9.172   9.205   1.855
71294SOL    HW115656   9.197   9.297   1.862
71294SOL    HW215657   9.078   9.204   1.868
71295SOL     OW15658   2.127   5.490  12.379
71295SOL    HW115659   2.189   5.522  12.445
71295SOL    HW215660   2.105   5.568  12.328
71296SOL     OW15661   8.512   4.470   7.380
71296SOL    HW115662   8.434   4.480   7.326
71296SOL    HW215663   8.534   4.559   7.408
71297SOL     OW15664  10.638  11.386   9.744
71297SOL    HW115665  10.559  11.334   9.756
71297SOL    HW215666  10.609  11.476   9.740
71298SOL     OW15667   9.795   5.552  12.174
71298SOL    HW115668   9.882   5.567  12.138
71298SOL    HW215669   9.776   5.460  12.155
71299SOL     OW15670  14.096   9.445   5.344
71299SOL    HW115671  14.132   9.359   5.321
71299SOL    HW215672  14.157   9.481   5.407
71300SOL     OW15673   3.844   8.790   2.137
71300SOL    HW115674   3.924   8.785   2.189
71300SOL    HW215675   3.868   8.845   2.062
71301SOL     OW15676   0.146   8.142   4.184
71301SOL    HW115677   0.236   8.115   4.164
71301SOL    HW215678   0.114   8.181   4.102
71302SOL     OW15679  14.642   4.543   4.017
71302SOL    HW115680  14.575   4.539   4.085
71302SOL    HW215681  14.681   4.629   4.026
71303SOL     OW15682   5.363  13.278   8.731
71303SOL    HW115683   5.433  13.323   8.778
71303SOL    HW215684   5.342  13.337   8.658
71304SOL     OW15685   7.870  14.367   9.935
71304SOL    HW115686   7.863  14.418  10.016
71304SOL    HW215687   7.782  14.335   9.919
71305SOL     OW15688   1.105  10.176  12.193
71305SOL    HW115689   1.062  10.173  12.279
71305SOL    HW215690   1.084  10.263  12.159
71306SOL     OW15691  14.665  12.763   8.997
71306SOL    HW115692  14.665  12.668   8.981
71306SOL    HW215693  14.752  12.792   8.970
71307SOL     OW15694   9.990   9.392   5.556
71307SOL    HW115695   9.944   9.365   5.635
71307SOL    HW215696   9.942   9.351   5.485
71308SOL     OW15697  10.844   2.220   3.700
71308SOL    HW115698  10.804   2.135   3.683
71308SOL    HW215699  10.771   2.283   3.694
71309SOL     OW15700  13.678   9.856   3.637
71309SOL    HW115701  13.611   9.860   3.705
71309SOL    HW215702  13.736   9.929   3.658
71310SOL     OW15703   3.946   4.150   2.404
71310SOL    HW115704   4.023   4.093   2.413
71310SOL    HW215705   3.898   4.114   2.330
71311SOL     OW15706  11.037  12.923   1.541
71311SOL    HW115707  11.104  12.860   1.568
71311SOL    HW215708  10.987  12.941   1.621
71312SOL     OW15709   6.203  13.919   2.147
71312SOL    HW115710   6.222  13.826   2.154
71312SOL    HW215711   6.261  13.950   2.077
71313SOL     OW15712   9.792   7.426   9.903
71313SOL    HW115713   9.813   7.454   9.814
71313SOL    HW215714   9.701   7.452   9.916
71314SOL     OW15715  10.036  11.171   5.587
71314SOL    HW115716  10.026  11.112   5.662
71314SOL    HW215717  10.096  11.125   5.529
71315SOL     OW15718  11.739  14.668   9.872
71315SOL    HW115719  11.779  14.628   9.950
71315SOL    HW215720  11.702  14.594   9.824
71316SOL     OW15721   6.570   8.780   5.333
71316SOL    HW115722   6.538   8.785   5.423
71316SOL    HW215723   6.666   8.781   5.342
71317SOL     OW15724   3.553  10.874  13.609
71317SOL    HW115725   3.624  10.938  13.597
71317SOL    HW215726   3.521  10.890  13.698
71318SOL     OW15727  14.183  14.118   0.541
71318SOL    HW115728  14.211  14.145   0.629
71318SOL    HW215729  14.217  14.186   0.484
71319SOL     OW15730   3.233   8.984  13.896
71319SOL    HW115731   3.144   8.988  13.861
71319SOL    HW215732   3.268   8.900  13.865
71320SOL     OW15733   8.066  13.869  13.595
71320SOL    HW115734   8.018  13.885  13.677
71320SOL    HW215735   7.999  13.843  13.532
71321SOL     OW15736   9.669   2.733   9.087
71321SOL    HW115737   9.723   2.794   9.138
71321SOL    HW215738   9.708   2.648   9.104
71322SOL     OW15739   6.248  12.508  11.073
71322SOL    HW115740   6.161  12.513  11.035
71322SOL    HW215741   6.306  12.488  11.000
71323SOL     OW15742   6.326   4.841   3.457
71323SOL    HW115743   6.373   4.762   3.482
71323SOL    HW215744   6.240   4.832   3.498
71324SOL     OW15745   7.537   9.706   9.185
71324SOL    HW115746   7.471   9.688   9.119
71324SOL    HW215747   7.565   9.795   9.167
71325SOL     OW15748   7.170   6.007   4.139
71325SOL    HW115749   7.244   6.034   4.085
71325SOL    HW215750   7.199   6.025   4.229
71326SOL     OW15751   7.943  10.882   0.080
71326SOL    HW115752   7.995  10.917   0.153
71326SOL    HW215753   7.882  10.821   0.121
71327SOL     OW15754   0.800   1.698   8.523
71327SOL    HW115755   0.851   1.624   8.557
71327SOL    HW215756   0.710   1.680   8.552
71328SOL     OW15757   0.123   2.626  10.335
71328SOL    HW115758   0.147   2.708  10.290
71328SOL    HW215759   0.201   2.602  10.385
71329SOL     OW15760  11.929  12.726   6.003
71329SOL    HW115761  11.968  12.754   6.086
71329SOL    HW215762  11.847  12.683   6.028
71330SOL     OW15763   2.768   0.630   9.613
71330SOL    HW115764   2.705   0.595   9.676
71330SOL    HW215765   2.795   0.713   9.651
71331SOL     OW15766   8.030  13.025   1.292
71331SOL    HW115767   8.075  13.093   1.242
71331SOL    HW215768   8.036  12.946   1.238
71332SOL     OW15769   9.878   3.886   9.201
71332SOL    HW115770   9.861   3.856   9.111
71332SOL    HW215771   9.852   3.812   9.256
71333SOL     OW15772   0.869   5.235  14.085
71333SOL    HW115773   0.919   5.234  14.167
71333SOL    HW215774   0.918   5.177  14.026
71334SOL     OW15775   9.170   0.252  13.468
71334SOL    HW115776   9.129   0.295  13.393
71334SOL    HW215777   9.218   0.179  13.430
71335SOL     OW15778   8.274   7.069   5.933
71335SOL    HW115779   8.287   7.048   6.025
71335SOL    HW215780   8.205   7.135   5.933
71336SOL     OW15781  13.183   6.478  10.866
71336SOL    HW115782  13.114   6.444  10.922
71336SOL    HW215783  13.138   6.505  10.786
71337SOL     OW15784   0.761   0.018   5.547
71337SOL    HW115785   0.825  14.830   5.573
71337SOL    HW215786   0.721  14.860   5.468
71338SOL     OW15787   3.089   7.612   1.796
71338SOL    HW115788   3.182   7.626   1.814
71338SOL    HW215789   3.044   7.654   1.869
71339SOL     OW15790   4.567   3.136   0.092
71339SOL    HW115791   4.556   3.086   0.173
71339SOL    HW215792   4.603   3.220   0.121
71340SOL     OW15793  13.245   4.751  11.438
71340SOL    HW115794  13.235   4.681  11.503
71340SOL    HW215795  13.327   4.730  11.393
71341SOL     OW15796  12.160  11.858  10.077
71341SOL    HW115797  12.150  11.763  10.085
71341SOL    HW215798  12.254  11.871  10.070
71342SOL     OW15799   2.474  14.362   2.471
71342SOL    HW115800   2.450  14.312   2.550
71342SOL    HW215801   2.570  14.359   2.470
71343SOL     OW15802   7.497  14.545  11.927
71343SOL    HW115803   7.534  14.468  11.971
71343SOL    HW215804   7.554  14.617  11.955
71344SOL     OW15805   3.228  10.571   4.285
71344SOL    HW115806   3.278  10.639   4.331
71344SOL    HW215807   3.148  10.616   4.257
71345SOL     OW15808  10.323  13.676  14.317
71345SOL    HW115809  10.402  13.708  14.360
71345SOL    HW215810  10.319  13.726  14.235
71346SOL     OW15811   7.367   6.168   7.649
71346SOL    HW115812   7.281   6.163   7.607
71346SOL    HW215813   7.355   6.231   7.721
71347SOL     OW15814  11.950   0.565  12.244
71347SOL    HW115815  11.893   0.637  12.219
71347SOL    HW215816  11.901   0.486  12.220
71348SOL     OW15817   1.603   4.270  14.447
71348SOL    HW115818   1.686   4.315  14.464
71348SOL    HW215819   1.564   4.318  14.374
71349SOL     OW15820  11.588   7.616   3.185
71349SOL    HW115821  11.678   7.631   3.155
71349SOL    HW215822  11.596   7.548   3.251
71350SOL     OW15823  12.128   7.324  12.366
71350SOL    HW115824  12.192   7.344  12.434
71350SOL    HW215825  12.049   7.370  12.393
71351SOL     OW15826   2.108   0.438  10.732
71351SOL    HW115827   2.095   0.401  10.819
71351SOL    HW215828   2.022   0.430  10.690
71352SOL     OW15829   8.759   1.633   6.001
71352SOL    HW115830   8.838   1.684   5.987
71352SOL    HW215831   8.727   1.612   5.913
71353SOL     OW15832  13.804  13.366  12.651
71353SOL    HW115833  13.754  13.420  12.590
71353SOL    HW215834  13.889  13.409  12.657
71354SOL     OW15835   0.147  14.493   8.598
71354SOL    HW115836   0.128  14.427   8.531
71354SOL    HW215837   0.212  14.453   8.655
71355SOL     OW15838   1.325   0.330  13.873
71355SOL    HW115839   1.332   0.296  13.784
71355SOL    HW215840   1.392   0.399  13.878
71356SOL     OW15841   5.052   0.977   5.913
71356SOL    HW115842   5.146   0.964   5.899
71356SOL    HW215843   5.011   0.905   5.865
71357SOL     OW15844  11.930   5.472   1.343
71357SOL    HW115845  11.974   5.423   1.413
71357SOL    HW215846  11.880   5.540   1.389
71358SOL     OW15847   8.145   8.211   3.657
71358SOL    HW115848   8.151   8.295   3.702
71358SOL    HW215849   8.059   8.177   3.681
71359SOL     OW15850   4.001   2.408   6.631
71359SOL    HW115851   4.040   2.419   6.544
71359SOL    HW215852   4.026   2.319   6.657
71360SOL     OW15853   7.186  11.469   5.361
71360SOL    HW115854   7.206  11.501   5.449
71360SOL    HW215855   7.111  11.410   5.373
71361SOL     OW15856   9.988   3.969   1.473
71361SOL    HW115857  10.065   3.914   1.458
71361SOL    HW215858   9.961   3.997   1.386
71362SOL     OW15859   1.701  10.493   9.802
71362SOL    HW115860   1.765  10.423   9.800
71362SOL    HW215861   1.652  10.479   9.884
71363SOL     OW15862  14.056   3.903  11.900
71363SOL    HW115863  14.083   3.838  11.836
71363SOL    HW215864  14.008   3.853  11.966
71364SOL     OW15865   6.935   9.959   1.911
71364SOL    HW115866   6.967   9.982   1.824
71364SOL    HW215867   6.952   9.866   1.920
71365SOL     OW15868   1.527   4.678   5.683
71365SOL    HW115869   1.500   4.722   5.764
71365SOL    HW215870   1.504   4.586   5.697
71366SOL     OW15871   0.705   0.391  10.115
71366SOL    HW115872   0.645   0.320  10.137
71366SOL    HW215873   0.735   0.371  10.026
71367SOL     OW15874   5.846  11.029  14.108
71367SOL    HW115875   5.920  11.084  14.134
71367SOL    HW215876   5.874  10.940  14.128
71368SOL     OW15877   8.668  13.858   9.757
71368SOL    HW115878   8.581  13.896   9.751
71368SOL    HW215879   8.654  13.764   9.747
71369SOL     OW15880  14.859  11.435  13.646
71369SOL    HW115881  14.862  11.426  13.551
71369SOL    HW215882   0.017  11.352  13.679
71370SOL     OW15883   3.711   4.869  13.917
71370SOL    HW115884   3.766   4.819  13.856
71370SOL    HW215885   3.752   4.955  13.920
71371SOL     OW15886   1.927   1.913   4.237
71371SOL    HW115887   1.909   1.828   4.198
71371SOL    HW215888   1.897   1.976   4.172
71372SOL     OW15889   7.911   3.105  10.571
71372SOL    HW115890   7.820   3.078  10.554
71372SOL    HW215891   7.917   3.110  10.666
71373SOL     OW15892  14.768  13.228   1.278
71373SOL    HW115893  14.811  13.267   1.354
71373SOL    HW215894  14.680  13.206   1.309
71374SOL     OW15895   3.391   8.790  13.729
71374SOL    HW115896   3.442   8.759  13.804
71374SOL    HW215897   3.441   8.761  13.653
71375SOL     OW15898   9.109   3.714   8.389
71375SOL    HW115899   9.191   3.721   8.438
71375SOL    HW215900   9.135   3.679   8.304
71376SOL     OW15901  10.671   2.436   3.279
71376SOL    HW115902  10.586   2.395   3.294
71376SOL    HW215903  10.662   2.484   3.197
71377SOL     OW15904   8.484  14.300   1.272
71377SOL    HW115905   8.451  14.324   1.358
71377SOL    HW215906   8.414  14.246   1.234
71378SOL     OW15907   7.942   6.971   1.900
71378SOL    HW115908   7.982   6.884   1.900
71378SOL    HW215909   7.950   7.000   1.991
71379SOL     OW15910   9.748   0.004  10.282
71379SOL    HW115911   9.837   0.032  10.260
71379SOL    HW215912   9.701   0.005  10.199
71380SOL     OW15913   0.043   8.979   4.874
71380SOL    HW115914   0.014   8.956   4.963
71380SOL    HW215915   0.097   9.057   4.886
71381SOL     OW15916  10.042   1.228  10.668
71381SOL    HW115917  10.085   1.165  10.610
71381SOL    HW215918  10.050   1.189  10.755
71382SOL     OW15919   4.214   6.388   1.424
71382SOL    HW115920   4.180   6.380   1.513
71382SOL    HW215921   4.174   6.315   1.376
71383SOL     OW15922   4.464   7.578  12.252
71383SOL    HW115923   4.445   7.647  12.315
71383SOL    HW215924   4.494   7.625  12.173
71384SOL     OW15925   9.277   1.358   3.194
71384SOL    HW115926   9.233   1.399   3.269
71384SOL    HW215927   9.327   1.428   3.154
71385SOL     OW15928   2.830   2.590   1.794
71385SOL    HW115929   2.915   2.633   1.780
71385SOL    HW215930   2.846   2.499   1.769
71386SOL     OW15931   3.168   1.630   5.240
71386SOL    HW115932   3.110   1.597   5.172
71386SOL    HW215933   3.253   1.591   5.221
71387SOL     OW15934   7.024   3.516   4.846
71387SOL    HW115935   7.026   3.452   4.776
71387SOL    HW215936   6.994   3.467   4.923
71388SOL     OW15937   1.600   2.361   4.342
71388SOL    HW115938   1.680   2.350   4.291
71388SOL    HW215939   1.597   2.284   4.399
71389SOL     OW15940   2.775  11.478  14.287
71389SOL    HW115941   2.798  11.415  14.356
71389SOL    HW215942   2.700  11.438  14.243
71390SOL     OW15943   6.685  10.665  10.165
71390SOL    HW115944   6.594  10.697  10.163
71390SOL    HW215945   6.681  10.586  10.219
71391SOL     OW15946   9.831  14.844   7.288
71391SOL    HW115947   9.737  14.844   7.271
71391SOL    HW215948   9.845   0.037   7.351
71392SOL     OW15949  12.247   7.324   8.648
71392SOL    HW115950  12.164   7.296   8.686
71392SOL    HW215951  12.313   7.297   8.711
71393SOL     OW15952  14.497   2.954  12.223
71393SOL    HW115953  14.532   2.873  12.187
71393SOL    HW215954  14.402   2.945  12.214
71394SOL     OW15955   2.039  11.877   3.217
71394SOL    HW115956   2.045  11.782   3.217
71394SOL    HW215957   2.130  11.907   3.222
71395SOL     OW15958  13.200   1.904   1.149
71395SOL    HW115959  13.290   1.936   1.141
71395SOL    HW215960  13.210   1.810   1.168
71396SOL     OW15961  10.661   1.590   3.081
71396SOL    HW115962  10.605   1.513   3.076
71396SOL    HW215963  10.630   1.637   3.158
71397SOL     OW15964  11.836   6.155  10.079
71397SOL    HW115965  11.824   6.206  10.159
71397SOL    HW215966  11.913   6.101  10.096
71398SOL     OW15967  12.868   8.845   5.313
71398SOL    HW115968  12.879   8.937   5.339
71398SOL    HW215969  12.795   8.814   5.366
71399SOL     OW15970   9.243  10.259  11.896
71399SOL    HW115971   9.315  10.197  11.911
71399SOL    HW215972   9.187  10.250  11.973
71400SOL     OW15973   8.113   2.685  13.085
71400SOL    HW115974   8.204   2.706  13.063
71400SOL    HW215975   8.068   2.770  13.084
71401SOL     OW15976   1.320  14.857  11.448
71401SOL    HW115977   1.376  14.815  11.513
71401SOL    HW215978   1.309  14.791  11.380
71402SOL     OW15979  13.860  13.268   7.568
71402SOL    HW115980  13.942  13.232   7.536
71402SOL    HW215981  13.879  13.361   7.582
71403SOL     OW15982   2.445   5.214  10.822
71403SOL    HW115983   2.519   5.274  10.813
71403SOL    HW215984   2.392   5.252  10.892
71404SOL     OW15985   4.421   3.948   9.327
71404SOL    HW115986   4.440   3.915   9.415
71404SOL    HW215987   4.488   3.908   9.272
71405SOL     OW15988   6.024   6.775  10.283
71405SOL    HW115989   6.094   6.738  10.337
71405SOL    HW215990   6.069   6.811  10.207
71406SOL     OW15991  13.213   3.267   0.766
71406SOL    HW115992  13.121   3.254   0.746
71406SOL    HW215993  13.255   3.275   0.680
71407SOL     OW15994   4.780   0.067   4.377
71407SOL    HW115995   4.831   0.113   4.311
71407SOL    HW215996   4.703   0.122   4.391
71408SOL     OW15997   4.455   2.662   3.292
71408SOL    HW115998   4.502   2.723   3.348
71408SOL    HW215999   4.431   2.590   3.351
71409SOL     OW16000  14.830   4.257   7.325
71409SOL    HW116001  14.787   4.238   7.408
71409SOL    HW216002   0.027   4.198   7.323
71410SOL     OW16003  12.768   1.706  12.364
71410SOL    HW116004  12.704   1.635  12.373
71410SOL    HW216005  12.836   1.686  12.428
71411SOL     OW16006  13.867   1.881  10.747
71411SOL    HW116007  13.858   1.798  10.701
71411SOL    HW216008  13.927   1.861  10.819
71412SOL     OW16009  14.707  10.726  11.960
71412SOL    HW116010  14.654  10.786  11.908
71412SOL    HW216011  14.762  10.680  11.896
71413SOL     OW16012   4.486   9.465   2.738
71413SOL    HW116013   4.509   9.557   2.736
71413SOL    HW216014   4.565   9.419   2.710
71414SOL     OW16015   2.792  13.262  12.619
71414SOL    HW116016   2.818  13.205  12.547
71414SOL    HW216017   2.828  13.221  12.698
71415SOL     OW16018   7.834   3.868  10.199
71415SOL    HW116019   7.785   3.950  10.199
71415SOL    HW216020   7.910   3.885  10.143
71416SOL     OW16021   7.966  14.716   9.273
71416SOL    HW116022   7.996  14.799   9.309
71416SOL    HW216023   8.024  14.700   9.198
71417SOL     OW16024   3.910   5.856   2.909
71417SOL    HW116025   3.918   5.819   2.997
71417SOL    HW216026   3.964   5.935   2.911
71418SOL     OW16027   3.069   0.794  13.659
71418SOL    HW116028   3.057   0.864  13.595
71418SOL    HW216029   2.982   0.781  13.697
71419SOL     OW16030   8.251  11.402   6.784
71419SOL    HW116031   8.173  11.401   6.728
71419SOL    HW216032   8.237  11.332   6.847
71420SOL     OW16033   4.392   6.712   7.483
71420SOL    HW116034   4.321   6.731   7.545
71420SOL    HW216035   4.350   6.713   7.397
71421SOL     OW16036   8.916   0.523   3.473
71421SOL    HW116037   8.935   0.430   3.471
71421SOL    HW216038   8.833   0.529   3.521
71422SOL     OW16039   1.654   3.246   5.191
71422SOL    HW116040   1.604   3.257   5.111
71422SOL    HW216041   1.652   3.332   5.233
71423SOL     OW16042  10.967   4.803  10.623
71423SOL    HW116043  10.917   4.883  10.606
71423SOL    HW216044  10.941   4.742  10.554
71424SOL     OW16045   3.856  12.693   2.071
71424SOL    HW116046   3.760  12.686   2.066
71424SOL    HW216047   3.888  12.626   2.012
71425SOL     OW16048   9.388   4.056  12.600
71425SOL    HW116049   9.395   4.070  12.506
71425SOL    HW216050   9.450   3.985  12.619
71426SOL     OW16051  12.084  14.425   0.772
71426SOL    HW116052  12.089  14.519   0.757
71426SOL    HW216053  12.013  14.395   0.715
71427SOL     OW16054  10.909   9.303  10.865
71427SOL    HW116055  10.907   9.230  10.926
71427SOL    HW216056  10.891   9.380  10.919
71428SOL     OW16057   5.831   0.565   6.468
71428SOL    HW116058   5.778   0.608   6.535
71428SOL    HW216059   5.921   0.584   6.493
71429SOL     OW16060   3.973  13.382   7.953
71429SOL    HW116061   3.954  13.476   7.949
71429SOL    HW216062   4.006  13.368   8.042
71430SOL     OW16063   9.402   5.837   2.283
71430SOL    HW116064   9.436   5.831   2.194
71430SOL    HW216065   9.449   5.910   2.322
71431SOL     OW16066   4.505   9.561   9.293
71431SOL    HW116067   4.461   9.494   9.240
71431SOL    HW216068   4.596   9.534   9.295
71432SOL     OW16069  11.534  12.275  13.455
71432SOL    HW116070  11.494  12.272  13.368
71432SOL    HW216071  11.479  12.218  13.509
71433SOL     OW16072   3.662   8.543   1.330
71433SOL    HW116073   3.749   8.506   1.339
71433SOL    HW216074   3.665   8.594   1.249
71434SOL     OW16075  11.723   7.529  11.403
71434SOL    HW116076  11.724   7.624  11.412
71434SOL    HW216077  11.673   7.513  11.323
71435SOL     OW16078  11.558  13.003   6.724
71435SOL    HW116079  11.520  13.053   6.796
71435SOL    HW216080  11.559  13.064   6.650
71436SOL     OW16081  14.827   4.787   7.300
71436SOL    HW116082  14.834   4.691   7.300
71436SOL    HW216083  14.852   4.813   7.212
71437SOL     OW16084   3.020  11.864   1.383
71437SOL    HW116085   2.981  11.864   1.470
71437SOL    HW216086   2.954  11.825   1.327
71438SOL     OW16087  10.168   3.486   4.410
71438SOL    HW116088  10.115   3.565   4.424
71438SOL    HW216089  10.212   3.502   4.327
71439SOL     OW16090  10.895   0.720   6.503
71439SOL    HW116091  10.951   0.659   6.454
71439SOL    HW216092  10.946   0.802   6.505
71440SOL     OW16093   4.439   5.023  10.550
71440SOL    HW116094   4.443   4.928  10.561
71440SOL    HW216095   4.413   5.056  10.636
71441SOL     OW16096  14.258   0.561   0.206
71441SOL    HW116097  14.247   0.479   0.159
71441SOL    HW216098  14.290   0.622   0.140
71442SOL     OW16099   1.557  10.520  13.792
71442SOL    HW116100   1.526  10.518  13.882
71442SOL    HW216101   1.491  10.571  13.745
71443SOL     OW16102   8.129   3.310  14.356
71443SOL    HW116103   8.180   3.233  14.382
71443SOL    HW216104   8.156   3.327  14.266
71444SOL     OW16105   9.281   2.552   3.691
71444SOL    HW116106   9.240   2.475   3.731
71444SOL    HW216107   9.351   2.516   3.637
71445SOL     OW16108  12.245   7.941  13.014
71445SOL    HW116109  12.334   7.941  13.050
71445SOL    HW216110  12.206   7.860  13.048
71446SOL     OW16111  14.697   7.166  10.802
71446SOL    HW116112  14.628   7.112  10.764
71446SOL    HW216113  14.757   7.104  10.843
71447SOL     OW16114   8.871  11.436  13.229
71447SOL    HW116115   8.922  11.433  13.310
71447SOL    HW216116   8.870  11.528  13.204
71448SOL     OW16117   4.371  11.947   2.896
71448SOL    HW116118   4.426  11.977   2.824
71448SOL    HW216119   4.354  12.025   2.948
71449SOL     OW16120  13.483   1.369   4.956
71449SOL    HW116121  13.407   1.424   4.939
71449SOL    HW216122  13.459   1.317   5.033
71450SOL     OW16123   2.404  11.063  14.764
71450SOL    HW116124   2.362  11.082  14.680
71450SOL    HW216125   2.379  11.137  14.820
71451SOL     OW16126  14.456   4.239   1.028
71451SOL    HW116127  14.546   4.211   1.046
71451SOL    HW216128  14.463   4.333   1.013
71452SOL     OW16129   4.956  14.087   1.511
71452SOL    HW116130   4.905  14.151   1.561
71452SOL    HW216131   4.895  14.054   1.445
71453SOL     OW16132  11.226  14.642   3.564
71453SOL    HW116133  11.226  14.561   3.512
71453SOL    HW216134  11.280  14.703   3.514
71454SOL     OW16135   5.200   7.634  12.117
71454SOL    HW116136   5.136   7.611  12.050
71454SOL    HW216137   5.219   7.551  12.161
71455SOL     OW16138   8.720   2.600  14.069
71455SOL    HW116139   8.812   2.574  14.059
71455SOL    HW216140   8.724   2.690  14.100
71456SOL     OW16141   7.254   3.455   8.838
71456SOL    HW116142   7.259   3.431   8.745
71456SOL    HW216143   7.296   3.382   8.883
71457SOL     OW16144   7.095   3.784   1.163
71457SOL    HW116145   7.179   3.740   1.168
71457SOL    HW216146   7.111   3.871   1.200
71458SOL     OW16147   4.906  10.715  14.774
71458SOL    HW116148   4.829  10.695  14.827
71458SOL    HW216149   4.978  10.670  14.818
71459SOL     OW16150   6.864  12.982   7.668
71459SOL    HW116151   6.929  13.036   7.713
71459SOL    HW216152   6.834  13.037   7.596
71460SOL     OW16153   5.433  13.229   6.104
71460SOL    HW116154   5.523  13.214   6.075
71460SOL    HW216155   5.438  13.227   6.199
71461SOL     OW16156  11.207   9.926   2.358
71461SOL    HW116157  11.301   9.917   2.344
71461SOL    HW216158  11.187  10.015   2.331
71462SOL     OW16159  10.660   6.149  10.528
71462SOL    HW116160  10.677   6.062  10.562
71462SOL    HW216161  10.572   6.171  10.560
71463SOL     OW16162   6.972   1.325   4.716
71463SOL    HW116163   7.053   1.283   4.747
71463SOL    HW216164   7.000   1.377   4.641
71464SOL     OW16165  10.990  13.281   6.889
71464SOL    HW116166  11.041  13.327   6.823
71464SOL    HW216167  11.055  13.246   6.949
71465SOL     OW16168  12.468  10.990  10.000
71465SOL    HW116169  12.527  11.065  10.001
71465SOL    HW216170  12.432  10.986  10.089
71466SOL     OW16171   2.006   9.719   2.049
71466SOL    HW116172   1.966   9.702   1.964
71466SOL    HW216173   1.944   9.684   2.113
71467SOL     OW16174   9.376   0.744   2.297
71467SOL    HW116175   9.415   0.819   2.251
71467SOL    HW216176   9.435   0.728   2.371
71468SOL     OW16177  12.710   4.282  13.614
71468SOL    HW116178  12.654   4.211  13.646
71468SOL    HW216179  12.794   4.267  13.657
71469SOL     OW16180   9.190   3.217  10.297
71469SOL    HW116181   9.246   3.146  10.266
71469SOL    HW216182   9.129   3.233  10.224
71470SOL     OW16183   1.258   0.715  14.570
71470SOL    HW116184   1.279   0.796  14.617
71470SOL    HW216185   1.251   0.649  14.638
71471SOL     OW16186   3.324   1.060   8.394
71471SOL    HW116187   3.281   0.983   8.357
71471SOL    HW216188   3.410   1.062   8.351
71472SOL     OW16189   2.490   8.162  11.851
71472SOL    HW116190   2.472   8.174  11.944
71472SOL    HW216191   2.560   8.096  11.848
71473SOL     OW16192   2.168   6.372  11.783
71473SOL    HW116193   2.082   6.386  11.822
71473SOL    HW216194   2.224   6.438  11.825
71474SOL     OW16195   2.449   0.649  14.231
71474SOL    HW116196   2.518   0.586  14.211
71474SOL    HW216197   2.490   0.734  14.215
71475SOL     OW16198   3.398   5.071   3.673
71475SOL    HW116199   3.311   5.052   3.639
71475SOL    HW216200   3.457   5.053   3.600
71476SOL     OW16201   5.253  10.713  13.144
71476SOL    HW116202   5.320  10.777  13.166
71476SOL    HW216203   5.279  10.679  13.059
71477SOL     OW16204  14.102  12.199   3.343
71477SOL    HW116205  14.110  12.289   3.311
71477SOL    HW216206  14.029  12.162   3.294
71478SOL     OW16207  13.647  11.954   8.070
71478SOL    HW116208  13.681  11.946   7.981
71478SOL    HW216209  13.644  11.864   8.102
71479SOL     OW16210   6.280   0.659  13.420
71479SOL    HW116211   6.314   0.734  13.370
71479SOL    HW216212   6.280   0.587  13.357
71480SOL     OW16213   5.022  11.044   7.203
71480SOL    HW116214   5.118  11.042   7.209
71480SOL    HW216215   4.993  11.079   7.287
71481SOL     OW16216  12.677   7.448  12.918
71481SOL    HW116217  12.717   7.503  12.850
71481SOL    HW216218  12.699   7.491  13.000
71482SOL     OW16219  12.254   5.736  12.851
71482SOL    HW116220  12.172   5.695  12.825
71482SOL    HW216221  12.320   5.668  12.838
71483SOL     OW16222  11.963   9.823  12.769
71483SOL    HW116223  11.971   9.905  12.721
71483SOL    HW216224  12.045   9.815  12.817
71484SOL     OW16225   9.692  12.047  13.627
71484SOL    HW116226   9.636  11.978  13.661
71484SOL    HW216227   9.769  12.046  13.684
71485SOL     OW16228   7.830   0.302   6.531
71485SOL    HW116229   7.784   0.350   6.599
71485SOL    HW216230   7.870   0.228   6.577
71486SOL     OW16231   2.074  13.929  13.905
71486SOL    HW116232   2.055  13.837  13.923
71486SOL    HW216233   2.034  13.977  13.978
71487SOL     OW16234   2.254   9.074  10.233
71487SOL    HW116235   2.193   9.019  10.283
71487SOL    HW216236   2.220   9.073  10.144
71488SOL     OW16237  13.879   6.948   1.565
71488SOL    HW116238  13.961   6.991   1.590
71488SOL    HW216239  13.822   7.019   1.537
71489SOL     OW16240   9.496  13.342   6.690
71489SOL    HW116241   9.434  13.298   6.632
71489SOL    HW216242   9.493  13.291   6.771
71490SOL     OW16243   1.868   7.716  12.630
71490SOL    HW116244   1.792   7.768  12.604
71490SOL    HW216245   1.862   7.709  12.725
71491SOL     OW16246   9.743  10.404   1.618
71491SOL    HW116247   9.791  10.321   1.614
71491SOL    HW216248   9.743  10.436   1.528
71492SOL     OW16249  10.781  11.622   3.443
71492SOL    HW116250  10.830  11.574   3.510
71492SOL    HW216251  10.804  11.578   3.361
71493SOL     OW16252  10.430   4.903  13.792
71493SOL    HW116253  10.513   4.857  13.803
71493SOL    HW216254  10.454   4.995  13.778
71494SOL     OW16255   5.776   2.086  13.594
71494SOL    HW116256   5.708   2.119  13.653
71494SOL    HW216257   5.850   2.065  13.651
71495SOL     OW16258   7.960   2.304   1.084
71495SOL    HW116259   8.035   2.277   1.031
71495SOL    HW216260   7.890   2.319   1.021
71496SOL     OW16261  14.867  13.551   5.057
71496SOL    HW116262  14.774  13.527   5.048
71496SOL    HW216263   0.019  13.503   5.134
71497SOL     OW16264   1.260   0.813   9.210
71497SOL    HW116265   1.193   0.861   9.258
71497SOL    HW216266   1.244   0.721   9.232
71498SOL     OW16267   9.346   0.780  13.911
71498SOL    HW116268   9.271   0.793  13.853
71498SOL    HW216269   9.315   0.807  13.997
71499SOL     OW16270   5.606   5.117   5.471
71499SOL    HW116271   5.635   5.135   5.560
71499SOL    HW216272   5.639   5.190   5.419
71500SOL     OW16273   5.490   2.753  10.391
71500SOL    HW116274   5.544   2.735  10.468
71500SOL    HW216275   5.409   2.789  10.425
71501SOL     OW16276   8.341   7.834  13.416
71501SOL    HW116277   8.308   7.913  13.459
71501SOL    HW216278   8.265   7.775  13.413
71502SOL     OW16279  12.411   8.860  10.908
71502SOL    HW116280  12.448   8.784  10.952
71502SOL    HW216281  12.346   8.894  10.969
71503SOL     OW16282  11.780   0.945  13.652
71503SOL    HW116283  11.695   0.990  13.646
71503SOL    HW216284  11.825   0.968  13.570
71504SOL     OW16285   1.066   4.407   3.677
71504SOL    HW116286   0.985   4.455   3.692
71504SOL    HW216287   1.045   4.345   3.607
71505SOL     OW16288   1.175   7.955   2.268
71505SOL    HW116289   1.085   7.932   2.288
71505SOL    HW216290   1.223   7.943   2.350
71506SOL     OW16291  10.826  12.360   0.304
71506SOL    HW116292  10.921  12.348   0.297
71506SOL    HW216293  10.790  12.293   0.246
71507SOL     OW16294  11.433  13.423   3.644
71507SOL    HW116295  11.477  13.429   3.560
71507SOL    HW216296  11.503  13.405   3.707
71508SOL     OW16297   3.848   8.249   0.013
71508SOL    HW116298   3.778   8.186  14.875
71508SOL    HW216299   3.896   8.253  14.808
71509SOL     OW16300   7.822   7.483   7.273
71509SOL    HW116301   7.865   7.541   7.211
71509SOL    HW216302   7.735   7.469   7.237
71510SOL     OW16303   7.781   2.708  13.413
71510SOL    HW116304   7.716   2.669  13.354
71510SOL    HW216305   7.830   2.770  13.359
71511SOL     OW16306  10.294   4.372   2.167
71511SOL    HW116307  10.351   4.440   2.130
71511SOL    HW216308  10.337   4.290   2.145
71512SOL     OW16309   9.217  10.500  10.002
71512SOL    HW116310   9.289  10.468   9.948
71512SOL    HW216311   9.247  10.486  10.092
71513SOL     OW16312  14.664   4.977   7.638
71513SOL    HW116313  14.687   4.891   7.673
71513SOL    HW216314  14.570   4.972   7.620
71514SOL     OW16315   3.789   4.891   5.634
71514SOL    HW116316   3.711   4.940   5.659
71514SOL    HW216317   3.831   4.947   5.568
71515SOL     OW16318  12.145  10.030  13.047
71515SOL    HW116319  12.112  10.118  13.025
71515SOL    HW216320  12.197  10.005  12.971
71516SOL     OW16321   3.382   6.839  12.832
71516SOL    HW116322   3.302   6.807  12.875
71516SOL    HW216323   3.389   6.785  12.753
71517SOL     OW16324  12.178  13.073   3.642
71517SOL    HW116325  12.091  13.109   3.658
71517SOL    HW216326  12.167  13.018   3.565
71518SOL     OW16327  11.703   7.202   2.144
71518SOL    HW116328  11.623   7.249   2.167
71518SOL    HW216329  11.697   7.120   2.193
71519SOL     OW16330   4.372   2.472  10.061
71519SOL    HW116331   4.355   2.504   9.973
71519SOL    HW216332   4.349   2.379  10.058
71520SOL     OW16333  13.703   0.933   7.933
71520SOL    HW116334  13.705   0.842   7.902
71520SOL    HW216335  13.654   0.929   8.014
71521SOL     OW16336  11.023   3.426   1.334
71521SOL    HW116337  10.977   3.505   1.364
71521SOL    HW216338  10.999   3.359   1.397
71522SOL     OW16339  10.368  12.848  12.850
71522SOL    HW116340  10.447  12.890  12.885
71522SOL    HW216341  10.397  12.760  12.824
71523SOL     OW16342  10.882  14.561  10.477
71523SOL    HW116343  10.796  14.598  10.499
71523SOL    HW216344  10.871  14.466  10.489
71524SOL     OW16345   3.857   1.456  11.712
71524SOL    HW116346   3.929   1.515  11.735
71524SOL    HW216347   3.899   1.372  11.696
71525SOL     OW16348   4.333  10.092  12.047
71525SOL    HW116349   4.332  10.009  12.095
71525SOL    HW216350   4.420  10.094  12.006
71526SOL     OW16351   3.804   4.851   7.738
71526SOL    HW116352   3.861   4.901   7.796
71526SOL    HW216353   3.823   4.885   7.650
71527SOL     OW16354  13.712   8.029  12.975
71527SOL    HW116355  13.637   8.067  12.929
71527SOL    HW216356  13.768   8.104  12.996
71528SOL     OW16357   1.350   9.993   4.834
71528SOL    HW116358   1.438  10.003   4.868
71528SOL    HW216359   1.302   9.947   4.903
71529SOL     OW16360   4.108   1.281   9.436
71529SOL    HW116361   4.148   1.254   9.519
71529SOL    HW216362   4.014   1.270   9.450
71530SOL     OW16363  10.748  10.216   4.004
71530SOL    HW116364  10.726  10.255   4.088
71530SOL    HW216365  10.670  10.166   3.978
71531SOL     OW16366  12.668  11.389   8.958
71531SOL    HW116367  12.598  11.336   8.921
71531SOL    HW216368  12.629  11.432   9.034
71532SOL     OW16369   5.936  12.219  11.155
71532SOL    HW116370   5.889  12.154  11.103
71532SOL    HW216371   6.024  12.183  11.163
71533SOL     OW16372   0.785   3.362   9.480
71533SOL    HW116373   0.730   3.283   9.475
71533SOL    HW216374   0.733   3.424   9.532
71534SOL     OW16375   9.320  14.771  12.958
71534SOL    HW116376   9.258  14.820  13.012
71534SOL    HW216377   9.299  14.796  12.868
71535SOL     OW16378  11.394   3.505   6.726
71535SOL    HW116379  11.358   3.587   6.759
71535SOL    HW216380  11.334   3.437   6.758
71536SOL     OW16381   4.067   6.758  13.565
71536SOL    HW116382   4.025   6.696  13.505
71536SOL    HW216383   4.118   6.816  13.508
71537SOL     OW16384  14.165  12.151   1.632
71537SOL    HW116385  14.147  12.133   1.540
71537SOL    HW216386  14.081  12.140   1.675
71538SOL     OW16387   4.450   5.574   6.500
71538SOL    HW116388   4.370   5.553   6.548
71538SOL    HW216389   4.427   5.653   6.450
71539SOL     OW16390   9.202   9.767   8.765
71539SOL    HW116391   9.188   9.781   8.671
71539SOL    HW216392   9.177   9.675   8.779
71540SOL     OW16393   1.251   7.751   2.893
71540SOL    HW116394   1.270   7.696   2.969
71540SOL    HW216395   1.250   7.840   2.928
71541SOL     OW16396   0.537   8.392  14.170
71541SOL    HW116397   0.521   8.376  14.263
71541SOL    HW216398   0.577   8.479  14.167
71542SOL     OW16399  11.092   7.207   9.557
71542SOL    HW116400  11.011   7.235   9.599
71542SOL    HW216401  11.142   7.288   9.544
71543SOL     OW16402   9.458   0.183   5.666
71543SOL    HW116403   9.510   0.108   5.637
71543SOL    HW216404   9.517   0.235   5.720
71544SOL     OW16405   2.811  12.062  12.859
71544SOL    HW116406   2.741  12.061  12.924
71544SOL    HW216407   2.810  11.974  12.820
71545SOL     OW16408  11.429   4.593   6.109
71545SOL    HW116409  11.421   4.606   6.204
71545SOL    HW216410  11.456   4.679   6.076
71546SOL     OW16411   3.638   0.665   5.203
71546SOL    HW116412   3.727   0.699   5.208
71546SOL    HW216413   3.623   0.623   5.287
71547SOL     OW16414   9.076   3.965  10.452
71547SOL    HW116415   9.083   3.959  10.547
71547SOL    HW216416   9.022   4.042  10.436
71548SOL     OW16417   6.608   8.332  10.386
71548SOL    HW116418   6.516   8.306  10.393
71548SOL    HW216419   6.646   8.307  10.470
71549SOL     OW16420   4.844   4.328  12.521
71549SOL    HW116421   4.853   4.274  12.599
71549SOL    HW216422   4.910   4.396  12.531
71550SOL     OW16423   4.144   8.462   5.272
71550SOL    HW116424   4.076   8.395   5.277
71550SOL    HW216425   4.108   8.536   5.320
71551SOL     OW16426  14.370   0.308  11.718
71551SOL    HW116427  14.308   0.339  11.651
71551SOL    HW216428  14.315   0.268  11.785
71552SOL     OW16429   7.119   1.099   5.294
71552SOL    HW116430   7.124   1.194   5.307
71552SOL    HW216431   7.030   1.084   5.262
71553SOL     OW16432  13.105  14.620   0.575
71553SOL    HW116433  13.066  14.534   0.586
71553SOL    HW216434  13.178  14.606   0.515
71554SOL     OW16435  10.652   2.251   4.570
71554SOL    HW116436  10.561   2.232   4.547
71554SOL    HW216437  10.692   2.281   4.489
71555SOL     OW16438   0.321  10.447  13.773
71555SOL    HW116439   0.265  10.485  13.705
71555SOL    HW216440   0.410  10.472  13.748
71556SOL     OW16441  13.797  13.730   0.056
71556SOL    HW116442  13.747  13.811   0.064
71556SOL    HW216443  13.837  13.717   0.142
71557SOL     OW16444  12.870   2.530   8.603
71557SOL    HW116445  12.934   2.459   8.593
71557SOL    HW216446  12.792   2.499   8.557
71558SOL     OW16447   1.233   0.386   3.135
71558SOL    HW116448   1.224   0.419   3.224
71558SOL    HW216449   1.232   0.290   3.144
71559SOL     OW16450  13.970  11.740  12.631
71559SOL    HW116451  13.932  11.815  12.584
71559SOL    HW216452  13.962  11.763  12.723
71560SOL     OW16453   9.636  10.927   6.923
71560SOL    HW116454   9.707  10.977   6.963
71560SOL    HW216455   9.680  10.864   6.866
71561SOL     OW16456   3.577   8.219  11.457
71561SOL    HW116457   3.665   8.201  11.424
71561SOL    HW216458   3.578   8.313  11.477
71562SOL     OW16459  13.739   3.241   9.444
71562SOL    HW116460  13.686   3.171   9.481
71562SOL    HW216461  13.828   3.224   9.474
71563SOL     OW16462   6.351   1.176   6.722
71563SOL    HW116463   6.389   1.263   6.709
71563SOL    HW216464   6.359   1.161   6.816
71564SOL     OW16465   1.216   0.732   0.304
71564SOL    HW116466   1.197   0.702   0.215
71564SOL    HW216467   1.273   0.807   0.293
71565SOL     OW16468   9.444   6.101  13.730
71565SOL    HW116469   9.357   6.140  13.719
71565SOL    HW216470   9.473   6.081  13.641
71566SOL     OW16471  14.501   7.686   8.620
71566SOL    HW116472  14.448   7.674   8.699
71566SOL    HW216473  14.436   7.699   8.550
71567SOL     OW16474  11.863   1.296   9.826
71567SOL    HW116475  11.886   1.203   9.819
71567SOL    HW216476  11.777   1.303   9.785
71568SOL     OW16477  10.595   6.086   1.656
71568SOL    HW116478  10.587   6.032   1.577
71568SOL    HW216479  10.649   6.034   1.715
71569SOL     OW16480   2.096   3.978   2.235
71569SOL    HW116481   2.002   3.960   2.235
71569SOL    HW216482   2.137   3.893   2.251
71570SOL     OW16483  13.498   3.650   6.923
71570SOL    HW116484  13.425   3.589   6.910
71570SOL    HW216485  13.569   3.615   6.870
71571SOL     OW16486   4.656  12.197   3.317
71571SOL    HW116487   4.626  12.288   3.318
71571SOL    HW216488   4.575  12.146   3.311
71572SOL     OW16489   8.221  14.704   8.871
71572SOL    HW116490   8.225  14.701   8.775
71572SOL    HW216491   8.287  14.769   8.895
71573SOL     OW16492   3.330  14.791   8.054
71573SOL    HW116493   3.283  14.712   8.028
71573SOL    HW216494   3.400  14.760   8.110
71574SOL     OW16495   7.059   3.383  12.472
71574SOL    HW116496   7.099   3.396  12.386
71574SOL    HW216497   7.107   3.442  12.530
71575SOL     OW16498   8.075   7.837   9.977
71575SOL    HW116499   8.016   7.763   9.992
71575SOL    HW216500   8.157   7.796   9.950
71576SOL     OW16501   5.676   9.340  13.294
71576SOL    HW116502   5.670   9.358  13.200
71576SOL    HW216503   5.769   9.319  13.308
71577SOL     OW16504   5.076   0.794  14.144
71577SOL    HW116505   5.163   0.824  14.119
71577SOL    HW216506   5.059   0.838  14.228
71578SOL     OW16507   4.113  12.153   5.022
71578SOL    HW116508   4.083  12.115   5.104
71578SOL    HW216509   4.052  12.119   4.956
71579SOL     OW16510  12.073   4.441   5.837
71579SOL    HW116511  12.134   4.505   5.875
71579SOL    HW216512  12.090   4.361   5.885
71580SOL     OW16513   4.993   1.991   3.987
71580SOL    HW116514   4.946   2.054   3.932
71580SOL    HW216515   4.924   1.940   4.029
71581SOL     OW16516   0.449  13.008  14.763
71581SOL    HW116517   0.454  12.963  14.679
71581SOL    HW216518   0.533  12.989  14.805
71582SOL     OW16519  12.728  13.740  12.107
71582SOL    HW116520  12.650  13.777  12.147
71582SOL    HW216521  12.780  13.817  12.081
71583SOL     OW16522  13.026   3.618  11.656
71583SOL    HW116523  12.937   3.598  11.687
71583SOL    HW216524  13.013   3.678  11.583
71584SOL     OW16525  12.594  11.552  12.928
71584SOL    HW116526  12.562  11.488  12.864
71584SOL    HW216527  12.518  11.606  12.949
71585SOL     OW16528   2.485  14.056  12.747
71585SOL    HW116529   2.573  14.049  12.784
71585SOL    HW216530   2.431  13.998  12.800
71586SOL     OW16531  13.551   4.436   7.603
71586SOL    HW116532  13.500   4.369   7.650
71586SOL    HW216533  13.513   4.519   7.632
71587SOL     OW16534   3.034   9.341   3.082
71587SOL    HW116535   3.084   9.309   3.158
71587SOL    HW216536   2.971   9.403   3.119
71588SOL     OW16537   3.896   8.070   7.235
71588SOL    HW116538   3.989   8.090   7.224
71588SOL    HW216539   3.874   8.015   7.159
71589SOL     OW16540   1.187   8.942   1.883
71589SOL    HW116541   1.131   8.990   1.822
71589SOL    HW216542   1.145   8.856   1.892
71590SOL     OW16543   2.946  11.715   0.153
71590SOL    HW116544   2.858  11.679   0.160
71590SOL    HW216545   2.933  11.802   0.115
71591SOL     OW16546   9.064  10.310   0.967
71591SOL    HW116547   8.971  10.293   0.978
71591SOL    HW216548   9.075  10.329   0.874
71592SOL     OW16549   8.194  10.354   5.231
71592SOL    HW116550   8.258  10.349   5.160
71592SOL    HW216551   8.109  10.358   5.187
71593SOL     OW16552   9.675  13.231   5.952
71593SOL    HW116553   9.687  13.267   6.040
71593SOL    HW216554   9.733  13.283   5.897
71594SOL     OW16555   8.718   6.563   8.278
71594SOL    HW116556   8.677   6.558   8.365
71594SOL    HW216557   8.783   6.634   8.287
71595SOL     OW16558   8.079   4.937   2.199
71595SOL    HW116559   8.057   4.881   2.273
71595SOL    HW216560   8.175   4.943   2.201
71596SOL     OW16561   4.433   6.328   2.017
71596SOL    HW116562   4.471   6.316   1.930
71596SOL    HW216563   4.508   6.321   2.077
71597SOL     OW16564   2.990  11.735  11.050
71597SOL    HW116565   2.950  11.655  11.084
71597SOL    HW216566   2.965  11.802  11.114
71598SOL     OW16567   6.078  11.345   1.046
71598SOL    HW116568   6.035  11.422   1.082
71598SOL    HW216569   6.154  11.379   0.998
71599SOL     OW16570   3.709   6.641   4.127
71599SOL    HW116571   3.624   6.616   4.162
71599SOL    HW216572   3.741   6.562   4.083
71600SOL     OW16573  11.517   7.275   8.560
71600SOL    HW116574  11.524   7.308   8.471
71600SOL    HW216575  11.564   7.192   8.559
71601SOL     OW16576  14.520  14.573   9.983
71601SOL    HW116577  14.468  14.499  10.014
71601SOL    HW216578  14.522  14.634  10.056
71602SOL     OW16579   2.681   5.312   3.563
71602SOL    HW116580   2.657   5.303   3.655
71602SOL    HW216581   2.634   5.242   3.519
71603SOL     OW16582  11.187   5.712   8.389
71603SOL    HW116583  11.212   5.774   8.457
71603SOL    HW216584  11.221   5.628   8.420
71604SOL     OW16585   6.305   4.467   7.364
71604SOL    HW116586   6.380   4.413   7.389
71604SOL    HW216587   6.328   4.502   7.278
71605SOL     OW16588   0.704   9.440   7.034
71605SOL    HW116589   0.723   9.432   7.127
71605SOL    HW216590   0.767   9.503   7.001
71606SOL     OW16591   8.152   4.377   1.697
71606SOL    HW116592   8.202   4.303   1.662
71606SOL    HW216593   8.159   4.445   1.631
71607SOL     OW16594   3.201   2.951   5.527
71607SOL    HW116595   3.271   2.898   5.490
71607SOL    HW216596   3.134   2.887   5.552
71608SOL     OW16597   5.525  14.284  10.920
71608SOL    HW116598   5.461  14.326  10.978
71608SOL    HW216599   5.541  14.199  10.960
71609SOL     OW16600   0.445   8.169  14.009
71609SOL    HW116601   0.489   8.210  14.083
71609SOL    HW216602   0.352   8.171  14.031
71610SOL     OW16603   6.095  14.650   7.940
71610SOL    HW116604   6.125  14.559   7.945
71610SOL    HW216605   6.128  14.691   8.019
71611SOL     OW16606  13.042  12.757   0.192
71611SOL    HW116607  13.091  12.839   0.194
71611SOL    HW216608  12.960  12.778   0.148
71612SOL     OW16609   7.057   1.459   7.161
71612SOL    HW116610   7.122   1.440   7.093
71612SOL    HW216611   7.095   1.424   7.241
71613SOL     OW16612  13.545   0.076   9.144
71613SOL    HW116613  13.508   0.118   9.066
71613SOL    HW216614  13.569  14.866   9.116
71614SOL     OW16615   4.284   7.038   7.325
71614SOL    HW116616   4.201   7.030   7.277
71614SOL    HW216617   4.258   7.030   7.417
71615SOL     OW16618   0.125  11.690   4.126
71615SOL    HW116619   0.093  11.730   4.207
71615SOL    HW216620   0.079  11.606   4.120
71616SOL     OW16621  11.867  11.498   5.859
71616SOL    HW116622  11.843  11.588   5.882
71616SOL    HW216623  11.924  11.469   5.930
71617SOL     OW16624   5.865   2.428   5.965
71617SOL    HW116625   5.874   2.524   5.964
71617SOL    HW216626   5.784   2.411   5.918
71618SOL     OW16627   5.786   4.929  10.815
71618SOL    HW116628   5.709   4.875  10.799
71618SOL    HW216629   5.774   5.005  10.759
71619SOL     OW16630   1.213   2.542  12.127
71619SOL    HW116631   1.185   2.490  12.052
71619SOL    HW216632   1.278   2.488  12.172
71620SOL     OW16633   9.540   4.457  13.804
71620SOL    HW116634   9.509   4.382  13.753
71620SOL    HW216635   9.462   4.512  13.815
71621SOL     OW16636  12.851  10.534   7.668
71621SOL    HW116637  12.817  10.577   7.746
71621SOL    HW216638  12.922  10.591   7.638
71622SOL     OW16639   4.939   9.561   1.274
71622SOL    HW116640   4.977   9.474   1.280
71622SOL    HW216641   4.855   9.553   1.319
71623SOL     OW16642  14.088   1.682  11.806
71623SOL    HW116643  14.098   1.593  11.840
71623SOL    HW216644  13.997   1.686  11.778
71624SOL     OW16645   6.947  12.894  10.504
71624SOL    HW116646   7.002  12.830  10.548
71624SOL    HW216647   6.950  12.971  10.561
71625SOL     OW16648   5.842  12.947  13.657
71625SOL    HW116649   5.793  12.866  13.639
71625SOL    HW216650   5.921  12.917  13.702
71626SOL     OW16651   7.758   9.846  13.122
71626SOL    HW116652   7.732   9.756  13.102
71626SOL    HW216653   7.852   9.849  13.104
71627SOL     OW16654   0.441  11.187   3.607
71627SOL    HW116655   0.474  11.228   3.527
71627SOL    HW216656   0.417  11.098   3.581
71628SOL     OW16657   7.073  14.220   5.513
71628SOL    HW116658   7.067  14.161   5.588
71628SOL    HW216659   7.085  14.162   5.438
71629SOL     OW16660   5.245   3.280   0.477
71629SOL    HW116661   5.196   3.269   0.558
71629SOL    HW216662   5.184   3.255   0.408
71630SOL     OW16663  13.839  10.843   0.636
71630SOL    HW116664  13.843  10.877   0.547
71630SOL    HW216665  13.929  10.847   0.668
71631SOL     OW16666   6.280  10.511  10.864
71631SOL    HW116667   6.310  10.427  10.830
71631SOL    HW216668   6.197  10.491  10.907
71632SOL     OW16669   4.399   5.219  14.004
71632SOL    HW116670   4.345   5.246  14.079
71632SOL    HW216671   4.348   5.150  13.962
71633SOL     OW16672   6.652   0.675  12.865
71633SOL    HW116673   6.598   0.629  12.801
71633SOL    HW216674   6.592   0.695  12.937
71634SOL     OW16675   0.765   9.218   4.289
71634SOL    HW116676   0.803   9.188   4.372
71634SOL    HW216677   0.747   9.311   4.303
71635SOL     OW16678  14.617  11.583  12.955
71635SOL    HW116679  14.689  11.642  12.981
71635SOL    HW216680  14.601  11.530  13.033
71636SOL     OW16681  12.050   2.552  14.090
71636SOL    HW116682  12.122   2.515  14.039
71636SOL    HW216683  12.093   2.610  14.153
71637SOL     OW16684   3.241   3.439   5.450
71637SOL    HW116685   3.307   3.372   5.470
71637SOL    HW216686   3.179   3.433   5.523
71638SOL     OW16687   6.459   9.452   5.758
71638SOL    HW116688   6.489   9.455   5.849
71638SOL    HW216689   6.458   9.359   5.737
71639SOL     OW16690   5.354  12.882  11.648
71639SOL    HW116691   5.269  12.921  11.625
71639SOL    HW216692   5.416  12.923  11.588
71640SOL     OW16693   0.556   7.652   2.751
71640SOL    HW116694   0.594   7.720   2.807
71640SOL    HW216695   0.631   7.607   2.713
71641SOL     OW16696   9.217  11.488   9.516
71641SOL    HW116697   9.204  11.395   9.500
71641SOL    HW216698   9.138  11.530   9.482
71642SOL     OW16699  14.411  14.742   4.780
71642SOL    HW116700  14.322  14.769   4.802
71642SOL    HW216701  14.457  14.742   4.864
71643SOL     OW16702   7.955   4.442  12.045
71643SOL    HW116703   8.040   4.402  12.068
71643SOL    HW216704   7.908   4.447  12.128
71644SOL     OW16705  13.097   8.027   5.905
71644SOL    HW116706  13.045   8.023   5.824
71644SOL    HW216707  13.031   8.031   5.975
71645SOL     OW16708  14.713   0.975   2.498
71645SOL    HW116709  14.710   0.968   2.402
71645SOL    HW216710  14.652   0.908   2.529
71646SOL     OW16711   1.368   6.867   7.674
71646SOL    HW116712   1.407   6.889   7.759
71646SOL    HW216713   1.334   6.950   7.641
71647SOL     OW16714   2.840   6.183  12.283
71647SOL    HW116715   2.912   6.121  12.285
71647SOL    HW216716   2.784   6.159  12.357
71648SOL     OW16717   0.496   8.777   4.605
71648SOL    HW116718   0.550   8.731   4.669
71648SOL    HW216719   0.547   8.855   4.582
71649SOL     OW16720   7.135   9.085  11.444
71649SOL    HW116721   7.194   9.026  11.397
71649SOL    HW216722   7.053   9.083  11.394
71650SOL     OW16723   2.589  11.604   0.370
71650SOL    HW116724   2.629  11.684   0.404
71650SOL    HW216725   2.499  11.606   0.402
71651SOL     OW16726   2.356   1.392   0.348
71651SOL    HW116727   2.265   1.399   0.377
71651SOL    HW216728   2.377   1.480   0.315
71652SOL     OW16729   5.361  10.492  11.791
71652SOL    HW116730   5.404  10.419  11.835
71652SOL    HW216731   5.268  10.480  11.810
71653SOL     OW16732   2.355   0.121   1.018
71653SOL    HW116733   2.408   0.051   0.981
71653SOL    HW216734   2.282   0.077   1.060
71654SOL     OW16735   2.561   4.861  13.894
71654SOL    HW116736   2.594   4.951  13.892
71654SOL    HW216737   2.466   4.869  13.903
71655SOL     OW16738   3.512   4.016   6.349
71655SOL    HW116739   3.564   4.019   6.429
71655SOL    HW216740   3.556   3.951   6.295
71656SOL     OW16741   7.643   1.473   1.487
71656SOL    HW116742   7.632   1.563   1.455
71656SOL    HW216743   7.730   1.448   1.457
71657SOL     OW16744  11.374   0.887  13.860
71657SOL    HW116745  11.344   0.880  13.769
71657SOL    HW216746  11.323   0.959  13.896
71658SOL     OW16747   8.440   1.478   5.282
71658SOL    HW116748   8.482   1.490   5.367
71658SOL    HW216749   8.429   1.566   5.248
71659SOL     OW16750   9.423   4.067  11.759
71659SOL    HW116751   9.372   4.075  11.840
71659SOL    HW216752   9.358   4.048  11.691
71660SOL     OW16753   3.761  13.451   4.149
71660SOL    HW116754   3.792  13.360   4.152
71660SOL    HW216755   3.813  13.492   4.080
71661SOL     OW16756   1.546   7.127  12.066
71661SOL    HW116757   1.496   7.076  12.002
71661SOL    HW216758   1.524   7.218  12.047
71662SOL     OW16759   8.824   2.811  14.239
71662SOL    HW116760   8.799   2.842  14.326
71662SOL    HW216761   8.870   2.728  14.255
71663SOL     OW16762   8.873  12.174   1.159
71663SOL    HW116763   8.888  12.102   1.098
71663SOL    HW216764   8.900  12.252   1.110
71664SOL     OW16765  14.024  10.868  13.921
71664SOL    HW116766  13.950  10.810  13.938
71664SOL    HW216767  14.088  10.812  13.877
71665SOL     OW16768  13.671   8.752   3.355
71665SOL    HW116769  13.706   8.839   3.334
71665SOL    HW216770  13.596   8.741   3.297
71666SOL     OW16771  10.118   6.808   2.378
71666SOL    HW116772  10.208   6.779   2.390
71666SOL    HW216773  10.082   6.747   2.313
71667SOL     OW16774   6.641   7.292   3.946
71667SOL    HW116775   6.599   7.377   3.933
71667SOL    HW216776   6.731   7.305   3.916
71668SOL     OW16777   3.445   1.311  11.340
71668SOL    HW116778   3.453   1.260  11.420
71668SOL    HW216779   3.379   1.378  11.359
71669SOL     OW16780   7.467   2.428   5.969
71669SOL    HW116781   7.427   2.489   6.031
71669SOL    HW216782   7.446   2.463   5.883
71670SOL     OW16783  14.775  13.413  10.142
71670SOL    HW116784  14.743  13.467  10.070
71670SOL    HW216785  14.851  13.367  10.107
71671SOL     OW16786   2.033   6.951   2.198
71671SOL    HW116787   1.985   6.868   2.190
71671SOL    HW216788   2.124   6.927   2.181
71672SOL     OW16789  10.845   7.977   1.539
71672SOL    HW116790  10.913   8.026   1.586
71672SOL    HW216791  10.810   7.917   1.604
71673SOL     OW16792   6.631  13.436   6.552
71673SOL    HW116793   6.716  13.447   6.510
71673SOL    HW216794   6.648  13.377   6.626
71674SOL     OW16795   3.037   0.670   5.632
71674SOL    HW116796   3.130   0.678   5.654
71674SOL    HW216797   3.004   0.605   5.694
71675SOL     OW16798   5.071   9.740  11.601
71675SOL    HW116799   5.099   9.679  11.532
71675SOL    HW216800   5.087   9.694  11.683
71676SOL     OW16801   7.431  11.834   6.359
71676SOL    HW116802   7.447  11.756   6.306
71676SOL    HW216803   7.513  11.848   6.407
71677SOL     OW16804   6.351   1.202  10.366
71677SOL    HW116805   6.271   1.253  10.359
71677SOL    HW216806   6.388   1.226  10.451
71678SOL     OW16807   2.793   8.959  14.190
71678SOL    HW116808   2.783   9.025  14.121
71678SOL    HW216809   2.705   8.928  14.206
71679SOL     OW16810   9.421  12.846  11.585
71679SOL    HW116811   9.386  12.929  11.553
71679SOL    HW216812   9.347  12.786  11.582
71680SOL     OW16813   8.959  11.740  12.017
71680SOL    HW116814   9.044  11.696  12.012
71680SOL    HW216815   8.924  11.716  12.103
71681SOL     OW16816  13.145   4.779   6.675
71681SOL    HW116817  13.106   4.787   6.761
71681SOL    HW216818  13.162   4.686   6.664
71682SOL     OW16819  11.056  12.966   0.346
71682SOL    HW116820  11.075  12.880   0.310
71682SOL    HW216821  11.114  12.974   0.421
71683SOL     OW16822   9.153   7.783  11.678
71683SOL    HW116823   9.161   7.864  11.627
71683SOL    HW216824   9.201   7.801  11.759
71684SOL     OW16825   3.182  12.700   5.442
71684SOL    HW116826   3.193  12.792   5.465
71684SOL    HW216827   3.095  12.677   5.475
71685SOL     OW16828   6.515  11.113   4.805
71685SOL    HW116829   6.425  11.099   4.834
71685SOL    HW216830   6.506  11.154   4.719
71686SOL     OW16831   0.212   8.905   2.929
71686SOL    HW116832   0.186   8.995   2.947
71686SOL    HW216833   0.280   8.886   2.994
71687SOL     OW16834   1.638   4.318   7.694
71687SOL    HW116835   1.589   4.239   7.715
71687SOL    HW216836   1.578   4.390   7.714
71688SOL     OW16837   6.474   0.874   4.300
71688SOL    HW116838   6.505   0.816   4.231
71688SOL    HW216839   6.553   0.901   4.347
71689SOL     OW16840   9.166   8.397  13.972
71689SOL    HW116841   9.203   8.406  14.060
71689SOL    HW216842   9.167   8.487  13.938
71690SOL     OW16843   9.213  11.081   1.560
71690SOL    HW116844   9.279  11.097   1.492
71690SOL    HW216845   9.241  11.134   1.634
71691SOL     OW16846   1.373  13.133   4.372
71691SOL    HW116847   1.465  13.113   4.391
71691SOL    HW216848   1.347  13.193   4.441
71692SOL     OW16849   7.328   4.877   2.107
71692SOL    HW116850   7.381   4.950   2.076
71692SOL    HW216851   7.379   4.839   2.179
71693SOL     OW16852   2.030  11.036   6.064
71693SOL    HW116853   1.950  11.054   6.016
71693SOL    HW216854   2.008  10.964   6.123
71694SOL     OW16855   8.573   4.756   1.826
71694SOL    HW116856   8.606   4.677   1.869
71694SOL    HW216857   8.478   4.747   1.831
71695SOL     OW16858   4.373   8.457  12.801
71695SOL    HW116859   4.373   8.361  12.807
71695SOL    HW216860   4.465   8.481  12.798
71696SOL     OW16861   3.844   3.834   7.347
71696SOL    HW116862   3.790   3.864   7.419
71696SOL    HW216863   3.891   3.912   7.317
71697SOL     OW16864   6.663   1.355   5.660
71697SOL    HW116865   6.667   1.450   5.670
71697SOL    HW216866   6.660   1.322   5.750
71698SOL     OW16867   4.261   5.655   5.890
71698SOL    HW116868   4.215   5.645   5.807
71698SOL    HW216869   4.332   5.590   5.886
71699SOL     OW16870  10.237   7.754   2.023
71699SOL    HW116871  10.240   7.703   2.104
71699SOL    HW216872  10.329   7.766   1.999
71700SOL     OW16873   1.317  10.994   6.116
71700SOL    HW116874   1.273  10.984   6.032
71700SOL    HW216875   1.354  11.083   6.113
71701SOL     OW16876  13.445  13.801  10.030
71701SOL    HW116877  13.485  13.718  10.058
71701SOL    HW216878  13.519  13.861  10.020
71702SOL     OW16879  12.920   6.995   1.711
71702SOL    HW116880  12.947   6.978   1.620
71702SOL    HW216881  12.995   7.040   1.750
71703SOL     OW16882   4.979   7.285   2.429
71703SOL    HW116883   5.070   7.264   2.412
71703SOL    HW216884   4.933   7.201   2.423
71704SOL     OW16885   3.223  13.322  12.401
71704SOL    HW116886   3.215  13.257  12.471
71704SOL    HW216887   3.200  13.274  12.321
71705SOL     OW16888  11.989   3.423   7.846
71705SOL    HW116889  11.961   3.456   7.932
71705SOL    HW216890  12.051   3.489   7.815
71706SOL     OW16891   7.174  12.454   6.430
71706SOL    HW116892   7.253  12.505   6.445
71706SOL    HW216893   7.115  12.515   6.385
71707SOL     OW16894   1.063   2.794  10.624
71707SOL    HW116895   0.983   2.809  10.674
71707SOL    HW216896   1.040   2.727  10.560
71708SOL     OW16897   6.517  11.223   4.109
71708SOL    HW116898   6.478  11.155   4.163
71708SOL    HW216899   6.450  11.292   4.104
71709SOL     OW16900  14.030  12.941   4.152
71709SOL    HW116901  14.052  12.996   4.076
71709SOL    HW216902  14.114  12.923   4.194
71710SOL     OW16903  11.707   6.482   6.076
71710SOL    HW116904  11.669   6.464   6.162
71710SOL    HW216905  11.668   6.416   6.018
71711SOL     OW16906   1.327   0.710   7.066
71711SOL    HW116907   1.311   0.629   7.016
71711SOL    HW216908   1.387   0.761   7.010
71712SOL     OW16909   6.714   2.134   9.907
71712SOL    HW116910   6.663   2.143   9.827
71712SOL    HW216911   6.755   2.220   9.918
71713SOL     OW16912  12.182   1.806  14.030
71713SOL    HW116913  12.253   1.751  14.062
71713SOL    HW216914  12.115   1.802  14.098
71714SOL     OW16915   3.790  13.673  13.254
71714SOL    HW116916   3.802  13.584  13.285
71714SOL    HW216917   3.698  13.693  13.272
71715SOL     OW16918  13.056   6.401  12.497
71715SOL    HW116919  13.107   6.336  12.448
71715SOL    HW216920  12.965   6.383  12.474
71716SOL     OW16921  13.410   7.992   2.700
71716SOL    HW116922  13.359   8.002   2.620
71716SOL    HW216923  13.491   7.949   2.672
71717SOL     OW16924   3.709   2.361  13.273
71717SOL    HW116925   3.802   2.379  13.267
71717SOL    HW216926   3.703   2.283  13.329
71718SOL     OW16927   5.487   6.502   3.603
71718SOL    HW116928   5.532   6.574   3.559
71718SOL    HW216929   5.552   6.432   3.608
71719SOL     OW16930   9.849   6.519   2.487
71719SOL    HW116931   9.905   6.499   2.562
71719SOL    HW216932   9.824   6.611   2.499
71720SOL     OW16933  12.202  13.234   9.890
71720SOL    HW116934  12.146  13.230   9.812
71720SOL    HW216935  12.289  13.252   9.857
71721SOL     OW16936   2.681  11.370   9.927
71721SOL    HW116937   2.719  11.440   9.980
71721SOL    HW216938   2.753  11.340   9.871
71722SOL     OW16939   9.742   6.387   4.196
71722SOL    HW116940   9.697   6.306   4.173
71722SOL    HW216941   9.678   6.437   4.246
71723SOL     OW16942  11.824   8.326  14.686
71723SOL    HW116943  11.907   8.351  14.646
71723SOL    HW216944  11.839   8.238  14.721
71724SOL     OW16945   3.383   9.941   0.722
71724SOL    HW116946   3.361   9.887   0.646
71724SOL    HW216947   3.387   9.879   0.795
71725SOL     OW16948   7.554   6.617   1.319
71725SOL    HW116949   7.469   6.650   1.347
71725SOL    HW216950   7.545   6.603   1.225
71726SOL     OW16951  11.004   7.269  12.344
71726SOL    HW116952  11.080   7.210  12.352
71726SOL    HW216953  10.934   7.222  12.389
71727SOL     OW16954  11.859   1.860   5.425
71727SOL    HW116955  11.799   1.918   5.472
71727SOL    HW216956  11.913   1.821   5.494
71728SOL     OW16957   3.604  12.323   1.028
71728SOL    HW116958   3.650  12.407   1.020
71728SOL    HW216959   3.518  12.340   0.990
71729SOL     OW16960   4.424   1.445  14.723
71729SOL    HW116961   4.516   1.446  14.751
71729SOL    HW216962   4.376   1.479  14.799
71730SOL     OW16963  11.027   0.867  13.622
71730SOL    HW116964  10.981   0.811  13.685
71730SOL    HW216965  10.960   0.928  13.591
71731SOL     OW16966  10.935  10.827  11.922
71731SOL    HW116967  11.016  10.824  11.871
71731SOL    HW216968  10.960  10.796  12.009
71732SOL     OW16969   6.789   7.070   5.572
71732SOL    HW116970   6.839   7.149   5.596
71732SOL    HW216971   6.734   7.053   5.648
71733SOL     OW16972   4.174   1.207   4.373
71733SOL    HW116973   4.089   1.188   4.333
71733SOL    HW216974   4.163   1.183   4.465
71734SOL     OW16975  10.639  13.565  13.496
71734SOL    HW116976  10.647  13.661  13.498
71734SOL    HW216977  10.662  13.541  13.407
71735SOL     OW16978   5.937   5.237   6.021
71735SOL    HW116979   5.930   5.188   5.939
71735SOL    HW216980   6.023   5.213   6.057
71736SOL     OW16981  10.480  12.681   4.300
71736SOL    HW116982  10.424  12.718   4.369
71736SOL    HW216983  10.442  12.595   4.281
71737SOL     OW16984   9.700   8.291   4.559
71737SOL    HW116985   9.682   8.347   4.484
71737SOL    HW216986   9.746   8.216   4.522
71738SOL     OW16987  10.951  11.243   9.351
71738SOL    HW116988  11.037  11.218   9.385
71738SOL    HW216989  10.900  11.162   9.352
71739SOL     OW16990   4.855   6.493   0.465
71739SOL    HW116991   4.778   6.443   0.495
71739SOL    HW216992   4.821   6.580   0.447
71740SOL     OW16993   0.737  14.387   1.257
71740SOL    HW116994   0.818  14.405   1.209
71740SOL    HW216995   0.679  14.461   1.235
71741SOL     OW16996   5.778   3.040   4.791
71741SOL    HW116997   5.683   3.049   4.786
71741SOL    HW216998   5.804   3.006   4.706
71742SOL     OW16999   2.001   4.710   1.915
71742SOL    HW117000   1.991   4.778   1.848
71742SOL    HW217001   2.045   4.638   1.869
71743SOL     OW17002  13.024   1.361   3.033
71743SOL    HW117003  13.075   1.283   3.055
71743SOL    HW217004  12.972   1.335   2.958
71744SOL     OW17005  10.772  10.655  12.392
71744SOL    HW117006  10.785  10.596  12.466
71744SOL    HW217007  10.839  10.722  12.402
71745SOL     OW17008   3.913   2.825  14.336
71745SOL    HW117009   3.922   2.827  14.241
71745SOL    HW217010   3.824   2.792  14.350
71746SOL     OW17011   0.706   0.633   2.622
71746SOL    HW117012   0.742   0.720   2.639
71746SOL    HW217013   0.778   0.585   2.581
71747SOL     OW17014   6.116  11.817   7.255
71747SOL    HW117015   6.104  11.822   7.350
71747SOL    HW217016   6.088  11.729   7.232
71748SOL     OW17017   0.221   8.594   0.540
71748SOL    HW117018   0.206   8.667   0.600
71748SOL    HW217019   0.170   8.522   0.577
71749SOL     OW17020  10.423   7.240  10.032
71749SOL    HW117021  10.362   7.314  10.040
71749SOL    HW217022  10.501   7.269  10.080
71750SOL     OW17023   6.678  11.738   9.690
71750SOL    HW117024   6.750  11.799   9.676
71750SOL    HW217025   6.712  11.675   9.753
71751SOL     OW17026  12.815   8.518   0.385
71751SOL    HW117027  12.738   8.484   0.340
71751SOL    HW217028  12.825   8.607   0.352
71752SOL     OW17029  13.472   0.522  10.429
71752SOL    HW117030  13.524   0.482  10.500
71752SOL    HW217031  13.536   0.539  10.360
71753SOL     OW17032   7.832   1.943  10.345
71753SOL    HW117033   7.902   1.915  10.404
71753SOL    HW217034   7.835   2.039  10.349
71754SOL     OW17035   6.522   3.149   4.923
71754SOL    HW117036   6.466   3.073   4.911
71754SOL    HW217037   6.479   3.219   4.876
71755SOL     OW17038   2.624   5.252   0.723
71755SOL    HW117039   2.593   5.176   0.673
71755SOL    HW217040   2.579   5.327   0.684
71756SOL     OW17041   5.058  12.555   0.969
71756SOL    HW117042   5.014  12.631   1.006
71756SOL    HW217043   5.119  12.527   1.037
71757SOL     OW17044   8.896   8.376  14.095
71757SOL    HW117045   8.925   8.373  14.004
71757SOL    HW217046   8.932   8.458  14.128
71758SOL     OW17047  10.683  10.534   3.661
71758SOL    HW117048  10.706  10.457   3.610
71758SOL    HW217049  10.669  10.603   3.597
71759SOL     OW17050   1.520   1.546   4.512
71759SOL    HW117051   1.569   1.468   4.537
71759SOL    HW217052   1.436   1.536   4.556
71760SOL     OW17053   3.687  14.195   5.527
71760SOL    HW117054   3.742  14.142   5.470
71760SOL    HW217055   3.598  14.183   5.492
71761SOL     OW17056   2.586   5.284   0.046
71761SOL    HW117057   2.519   5.269  14.858
71761SOL    HW217058   2.642   5.352   0.009
71762SOL     OW17059   0.996   2.524   4.728
71762SOL    HW117060   0.968   2.505   4.818
71762SOL    HW217061   1.087   2.495   4.725
71763SOL     OW17062   0.609   6.788   2.963
71763SOL    HW117063   0.565   6.852   3.019
71763SOL    HW217064   0.564   6.796   2.878
71764SOL     OW17065   7.167  11.444  11.361
71764SOL    HW117066   7.074  11.422  11.355
71764SOL    HW217067   7.187  11.489  11.279
71765SOL     OW17068   5.734   0.658   2.214
71765SOL    HW117069   5.645   0.678   2.241
71765SOL    HW217070   5.735   0.564   2.200
71766SOL     OW17071   8.638   5.769   7.765
71766SOL    HW117072   8.717   5.731   7.727
71766SOL    HW217073   8.586   5.796   7.689
71767SOL     OW17074   2.149  11.609  11.378
71767SOL    HW117075   2.200  11.579  11.452
71767SOL    HW217076   2.068  11.642  11.416
71768SOL     OW17077   8.467   1.020   2.048
71768SOL    HW117078   8.462   1.081   1.975
71768SOL    HW217079   8.467   1.076   2.126
71769SOL     OW17080   2.377  10.182   4.838
71769SOL    HW117081   2.378  10.107   4.898
71769SOL    HW217082   2.286  10.210   4.835
71770SOL     OW17083  10.104   3.895   8.848
71770SOL    HW117084  10.149   3.844   8.781
71770SOL    HW217085  10.012   3.867   8.841
71771SOL     OW17086  14.029  13.041  10.823
71771SOL    HW117087  13.942  13.037  10.861
71771SOL    HW217088  14.083  13.083  10.890
71772SOL     OW17089  12.306  14.350  11.851
71772SOL    HW117090  12.312  14.350  11.946
71772SOL    HW217091  12.290  14.442  11.828
71773SOL     OW17092   7.017   4.585   3.100
71773SOL    HW117093   7.060   4.671   3.100
71773SOL    HW217094   7.080   4.527   3.056
71774SOL     OW17095  13.626   6.311   9.980
71774SOL    HW117096  13.712   6.340  10.012
71774SOL    HW217097  13.602   6.374   9.913
71775SOL     OW17098  11.487   5.644   3.485
71775SOL    HW117099  11.447   5.568   3.528
71775SOL    HW217100  11.532   5.609   3.409
71776SOL     OW17101  10.366   2.048   6.400
71776SOL    HW117102  10.341   1.972   6.347
71776SOL    HW217103  10.435   2.016   6.457
71777SOL     OW17104   6.699   9.119  10.068
71777SOL    HW117105   6.679   9.032  10.033
71777SOL    HW217106   6.641   9.178  10.019
71778SOL     OW17107   1.444  11.922   4.247
71778SOL    HW117108   1.470  11.946   4.158
71778SOL    HW217109   1.358  11.962   4.259
71779SOL     OW17110   7.869   3.062   6.765
71779SOL    HW117111   7.879   3.153   6.792
71779SOL    HW217112   7.837   3.066   6.675
71780SOL     OW17113   5.281   3.141   3.934
71780SOL    HW117114   5.281   3.046   3.948
71780SOL    HW217115   5.370   3.161   3.904
71781SOL     OW17116   0.953   8.542   4.618
71781SOL    HW117117   0.974   8.449   4.625
71781SOL    HW217118   0.871   8.545   4.570
71782SOL     OW17119  12.067   1.364   1.411
71782SOL    HW117120  11.982   1.367   1.456
71782SOL    HW217121  12.129   1.397   1.476
71783SOL     OW17122   7.895   8.443   2.430
71783SOL    HW117123   7.959   8.499   2.473
71783SOL    HW217124   7.893   8.473   2.339
71784SOL     OW17125  14.382  13.942   0.708
71784SOL    HW117126  14.460  13.891   0.731
71784SOL    HW217127  14.350  13.902   0.627
71785SOL     OW17128   8.256  13.861  12.997
71785SOL    HW117129   8.329  13.799  12.997
71785SOL    HW217130   8.290  13.938  13.043
71786SOL     OW17131   3.325   2.128   2.746
71786SOL    HW117132   3.269   2.067   2.795
71786SOL    HW217133   3.399   2.074   2.718
71787SOL     OW17134  13.779  10.307  11.179
71787SOL    HW117135  13.831  10.268  11.109
71787SOL    HW217136  13.699  10.338  11.136
71788SOL     OW17137   7.081  14.523  12.969
71788SOL    HW117138   7.059  14.466  12.895
71788SOL    HW217139   7.088  14.464  13.044
71789SOL     OW17140   5.635   0.603   5.987
71789SOL    HW117141   5.655   0.581   6.078
71789SOL    HW217142   5.548   0.566   5.971
71790SOL     OW17143   6.713  13.157  11.577
71790SOL    HW117144   6.634  13.141  11.628
71790SOL    HW217145   6.683  13.206  11.500
71791SOL     OW17146   1.488  11.681   3.265
71791SOL    HW117147   1.403  11.726   3.275
71791SOL    HW217148   1.500  11.674   3.171
71792SOL     OW17149  12.871   4.667  12.821
71792SOL    HW117150  12.854   4.573  12.811
71792SOL    HW217151  12.903   4.675  12.911
71793SOL     OW17152   9.659   6.108   9.246
71793SOL    HW117153   9.626   6.044   9.183
71793SOL    HW217154   9.625   6.192   9.215
71794SOL     OW17155   4.518   6.144   8.948
71794SOL    HW117156   4.503   6.052   8.927
71794SOL    HW217157   4.591   6.169   8.891
71795SOL     OW17158  10.981  12.392   8.225
71795SOL    HW117159  11.073  12.394   8.252
71795SOL    HW217160  10.943  12.470   8.264
71796SOL     OW17161   7.677   9.537   0.745
71796SOL    HW117162   7.646   9.452   0.775
71796SOL    HW217163   7.771   9.524   0.728
71797SOL     OW17164   8.178   6.971   3.065
71797SOL    HW117165   8.243   6.910   3.100
71797SOL    HW217166   8.225   7.054   3.057
71798SOL     OW17167   4.916   5.906   8.820
71798SOL    HW117168   4.954   5.978   8.870
71798SOL    HW217169   4.870   5.854   8.885
71799SOL     OW17170   7.523  14.872   3.575
71799SOL    HW117171   7.519   0.037   3.660
71799SOL    HW217172   7.608  14.828   3.573
71800SOL     OW17173  10.157   1.587   4.269
71800SOL    HW117174  10.137   1.494   4.284
71800SOL    HW217175  10.071   1.628   4.258
71801SOL     OW17176   2.320   5.940   5.318
71801SOL    HW117177   2.240   5.889   5.322
71801SOL    HW217178   2.293   6.024   5.280
71802SOL     OW17179  10.243   8.921  12.820
71802SOL    HW117180  10.314   8.981  12.799
71802SOL    HW217181  10.175   8.942  12.756
71803SOL     OW17182  14.024  10.643   2.488
71803SOL    HW117183  14.044  10.727   2.446
71803SOL    HW217184  14.095  10.631   2.550
71804SOL     OW17185   8.047  11.960   5.891
71804SOL    HW117186   8.051  11.880   5.838
71804SOL    HW217187   8.137  11.973   5.922
71805SOL     OW17188   7.722  13.135   6.382
71805SOL    HW117189   7.631  13.113   6.360
71805SOL    HW217190   7.754  13.180   6.304
71806SOL     OW17191   8.724   5.202   0.960
71806SOL    HW117192   8.800   5.258   0.942
71806SOL    HW217193   8.735   5.128   0.901
71807SOL     OW17194   4.524  13.948   8.703
71807SOL    HW117195   4.516  13.883   8.633
71807SOL    HW217196   4.515  14.032   8.658
71808SOL     OW17197   1.567   6.095  14.322
71808SOL    HW117198   1.505   6.138  14.265
71808SOL    HW217199   1.620   6.166  14.358
71809SOL     OW17200  12.872   3.062   5.684
71809SOL    HW117201  12.884   3.156   5.672
71809SOL    HW217202  12.877   3.026   5.595
71810SOL     OW17203  10.102   9.377   2.546
71810SOL    HW117204  10.102   9.284   2.523
71810SOL    HW217205  10.016   9.409   2.519
71811SOL     OW17206   3.457   3.606   0.046
71811SOL    HW117207   3.461   3.635  14.833
71811SOL    HW217208   3.371   3.634   0.077
71812SOL     OW17209  13.820   1.555   3.332
71812SOL    HW117210  13.819   1.513   3.246
71812SOL    HW217211  13.849   1.486   3.392
71813SOL     OW17212  12.959   7.175   3.019
71813SOL    HW117213  12.999   7.255   3.055
71813SOL    HW217214  12.975   7.108   3.086
71814SOL     OW17215  12.044   2.299   8.096
71814SOL    HW117216  12.049   2.209   8.065
71814SOL    HW217217  11.965   2.334   8.054
71815SOL     OW17218  12.420   6.876  12.563
71815SOL    HW117219  12.375   6.954  12.595
71815SOL    HW217220  12.444   6.897  12.473
71816SOL     OW17221  10.570  12.116  13.447
71816SOL    HW117222  10.491  12.154  13.487
71816SOL    HW217223  10.539  12.078  13.365
71817SOL     OW17224  12.992  12.132   5.663
71817SOL    HW117225  12.928  12.070   5.629
71817SOL    HW217226  12.945  12.180   5.731
71818SOL     OW17227  12.530   1.982   8.624
71818SOL    HW117228  12.593   1.928   8.672
71818SOL    HW217229  12.446   1.938   8.638
71819SOL     OW17230  12.530   1.652   4.076
71819SOL    HW117231  12.494   1.693   4.155
71819SOL    HW217232  12.469   1.581   4.056
71820SOL     OW17233  12.954   2.582   7.212
71820SOL    HW117234  13.006   2.553   7.137
71820SOL    HW217235  12.983   2.672   7.229
71821SOL     OW17236   4.092   4.580   0.488
71821SOL    HW117237   4.146   4.505   0.464
71821SOL    HW217238   4.011   4.568   0.438
71822SOL     OW17239   2.513   1.280  14.626
71822SOL    HW117240   2.442   1.336  14.596
71822SOL    HW217241   2.485   1.192  14.604
71823SOL     OW17242   7.484  10.840   5.113
71823SOL    HW117243   7.490  10.906   5.183
71823SOL    HW217244   7.435  10.768   5.153
71824SOL     OW17245   0.693   2.545   7.914
71824SOL    HW117246   0.743   2.491   7.854
71824SOL    HW217247   0.697   2.633   7.877
71825SOL     OW17248  11.545   1.204   9.845
71825SOL    HW117249  11.565   1.211   9.752
71825SOL    HW217250  11.452   1.228   9.851
71826SOL     OW17251   0.224   5.249  10.914
71826SOL    HW117252   0.223   5.241  11.010
71826SOL    HW217253   0.142   5.295  10.894
71827SOL     OW17254   7.291   3.950   5.221
71827SOL    HW117255   7.327   3.929   5.135
71827SOL    HW217256   7.243   4.032   5.208
71828SOL     OW17257  12.802  10.339   3.285
71828SOL    HW117258  12.767  10.390   3.358
71828SOL    HW217259  12.889  10.376   3.270
71829SOL     OW17260   6.887   5.868   9.735
71829SOL    HW117261   6.911   5.948   9.783
71829SOL    HW217262   6.838   5.899   9.659
71830SOL     OW17263   0.346  13.536   4.732
71830SOL    HW117264   0.295  13.463   4.769
71830SOL    HW217265   0.281  13.589   4.687
71831SOL     OW17266   0.573  11.595   9.804
71831SOL    HW117267   0.616  11.672   9.766
71831SOL    HW217268   0.567  11.616   9.898
71832SOL     OW17269   2.397   9.190   3.400
71832SOL    HW117270   2.414   9.284   3.404
71832SOL    HW217271   2.428   9.157   3.484
71833SOL     OW17272   0.001   9.507   6.786
71833SOL    HW117273   0.014   9.417   6.814
71833SOL    HW217274   0.087   9.547   6.792
71834SOL     OW17275   1.678   8.517   5.077
71834SOL    HW117276   1.599   8.491   5.029
71834SOL    HW217277   1.679   8.612   5.070
71835SOL     OW17278  10.432   7.998  11.371
71835SOL    HW117279  10.428   7.984  11.277
71835SOL    HW217280  10.517   7.963  11.397
71836SOL     OW17281   4.252  11.868   0.303
71836SOL    HW117282   4.181  11.844   0.362
71836SOL    HW217283   4.324  11.810   0.328
71837SOL     OW17284   3.134  11.459   3.997
71837SOL    HW117285   3.202  11.468   4.064
71837SOL    HW217286   3.055  11.436   4.047
71838SOL     OW17287  12.468  10.203  14.630
71838SOL    HW117288  12.503  10.142  14.695
71838SOL    HW217289  12.506  10.288  14.654
71839SOL     OW17290   4.397   3.248  12.296
71839SOL    HW117291   4.403   3.336  12.260
71839SOL    HW217292   4.356   3.197  12.226
71840SOL     OW17293  13.318  12.590  14.507
71840SOL    HW117294  13.254  12.656  14.534
71840SOL    HW217295  13.265  12.517  14.475
71841SOL     OW17296   5.091  12.233   8.156
71841SOL    HW117297   5.106  12.307   8.097
71841SOL    HW217298   5.107  12.155   8.103
71842SOL     OW17299   3.742   1.430   8.015
71842SOL    HW117300   3.705   1.348   8.048
71842SOL    HW217301   3.666   1.484   7.993
71843SOL     OW17302  13.561  13.037  11.504
71843SOL    HW117303  13.466  13.042  11.518
71843SOL    HW217304  13.589  12.962  11.557
71844SOL     OW17305   2.717   3.723   8.172
71844SOL    HW117306   2.633   3.755   8.139
71844SOL    HW217307   2.742   3.786   8.239
71845SOL     OW17308   2.289   4.896  13.970
71845SOL    HW117309   2.239   4.962  13.921
71845SOL    HW217310   2.223   4.833  14.000
71846SOL     OW17311   0.351   0.854   6.827
71846SOL    HW117312   0.406   0.868   6.904
71846SOL    HW217313   0.264   0.885   6.853
71847SOL     OW17314  10.616  10.478   9.433
71847SOL    HW117315  10.524  10.502   9.425
71847SOL    HW217316  10.639  10.441   9.348
71848SOL     OW17317  12.924   3.778   8.821
71848SOL    HW117318  12.834   3.756   8.794
71848SOL    HW217319  12.977   3.707   8.786
71849SOL     OW17320   7.164   2.074  10.234
71849SOL    HW117321   7.079   2.112  10.256
71849SOL    HW217322   7.143   1.985  10.204
71850SOL     OW17323  10.534   9.757   5.433
71850SOL    HW117324  10.465   9.694   5.413
71850SOL    HW217325  10.534   9.818   5.360
71851SOL     OW17326   6.405  10.619   5.180
71851SOL    HW117327   6.374  10.569   5.104
71851SOL    HW217328   6.369  10.707   5.167
71852SOL     OW17329  12.890   2.021  14.218
71852SOL    HW117330  12.970   2.008  14.269
71852SOL    HW217331  12.833   1.949  14.246
71853SOL     OW17332  10.261  10.395  12.559
71853SOL    HW117333  10.220  10.337  12.496
71853SOL    HW217334  10.320  10.338  12.609
71854SOL     OW17335   4.601   7.270   8.179
71854SOL    HW117336   4.650   7.344   8.144
71854SOL    HW217337   4.604   7.281   8.274
71855SOL     OW17338  12.561  14.761   9.224
71855SOL    HW117339  12.634  14.727   9.173
71855SOL    HW217340  12.593  14.843   9.261
71856SOL     OW17341   6.096   7.341   0.736
71856SOL    HW117342   6.033   7.296   0.680
71856SOL    HW217343   6.049   7.419   0.767
71857SOL     OW17344  14.086   9.665   6.170
71857SOL    HW117345  14.173   9.689   6.138
71857SOL    HW217346  14.060   9.591   6.116
71858SOL     OW17347  12.329   4.783   5.308
71858SOL    HW117348  12.396   4.827   5.360
71858SOL    HW217349  12.294   4.851   5.251
71859SOL     OW17350   1.074  14.654  13.264
71859SOL    HW117351   1.004  14.668  13.328
71859SOL    HW217352   1.141  14.718  13.287
71860SOL     OW17353  11.488   4.968  11.525
71860SOL    HW117354  11.484   4.947  11.432
71860SOL    HW217355  11.426   5.040  11.536
71861SOL     OW17356  12.743   6.397   5.876
71861SOL    HW117357  12.768   6.326   5.935
71861SOL    HW217358  12.813   6.462   5.885
71862SOL     OW17359   0.240   6.798   4.503
71862SOL    HW117360   0.161   6.820   4.453
71862SOL    HW217361   0.217   6.718   4.551
71863SOL     OW17362   0.018   0.946   4.157
71863SOL    HW117363  14.841   1.022   4.175
71863SOL    HW217364   0.107   0.976   4.179
71864SOL     OW17365   2.891   7.908   4.912
71864SOL    HW117366   2.910   7.894   5.005
71864SOL    HW217367   2.823   7.844   4.891
71865SOL     OW17368  11.702  10.097   4.513
71865SOL    HW117369  11.675  10.122   4.602
71865SOL    HW217370  11.636  10.137   4.457
71866SOL     OW17371   8.972   4.928   5.751
71866SOL    HW117372   8.996   5.000   5.692
71866SOL    HW217373   8.888   4.897   5.716
71867SOL     OW17374  14.152   8.824  13.079
71867SOL    HW117375  14.147   8.736  13.117
71867SOL    HW217376  14.142   8.810  12.985
71868SOL     OW17377   5.855   7.251   3.333
71868SOL    HW117378   5.804   7.187   3.283
71868SOL    HW217379   5.819   7.336   3.306
71869SOL     OW17380   7.298  11.048  14.047
71869SOL    HW117381   7.337  10.997  14.118
71869SOL    HW217382   7.309  11.139  14.074
71870SOL     OW17383  14.034  12.596  12.160
71870SOL    HW117384  13.975  12.577  12.087
71870SOL    HW217385  14.077  12.678  12.136
71871SOL     OW17386  10.062  14.690   0.547
71871SOL    HW117387   9.968  14.677   0.559
71871SOL    HW217388  10.071  14.724   0.458
71872SOL     OW17389  12.973  12.606   4.820
71872SOL    HW117390  12.962  12.539   4.887
71872SOL    HW217391  12.905  12.587   4.756
71873SOL     OW17392  10.737   5.124   4.856
71873SOL    HW117393  10.705   5.056   4.915
71873SOL    HW217394  10.671   5.128   4.787
71874SOL     OW17395  11.511  12.921   9.072
71874SOL    HW117396  11.454  12.970   9.012
71874SOL    HW217397  11.594  12.914   9.026
71875SOL     OW17398   7.345   6.100  10.213
71875SOL    HW117399   7.376   6.160  10.146
71875SOL    HW217400   7.328   6.155  10.289
71876SOL     OW17401   8.877  11.834   5.779
71876SOL    HW117402   8.908  11.924   5.790
71876SOL    HW217403   8.798  11.843   5.727
71877SOL     OW17404   6.986   6.924   2.603
71877SOL    HW117405   6.984   6.915   2.508
71877SOL    HW217406   7.008   7.016   2.619
71878SOL     OW17407  11.529   2.062   6.134
71878SOL    HW117408  11.622   2.051   6.156
71878SOL    HW217409  11.482   2.027   6.209
71879SOL     OW17410   1.878   3.877  12.696
71879SOL    HW117411   1.813   3.851  12.761
71879SOL    HW217412   1.837   3.949  12.648
71880SOL     OW17413   0.242   2.808   3.018
71880SOL    HW117414   0.246   2.891   3.065
71880SOL    HW217415   0.242   2.833   2.925
71881SOL     OW17416  10.572   2.775   8.018
71881SOL    HW117417  10.516   2.748   7.945
71881SOL    HW217418  10.542   2.723   8.092
71882SOL     OW17419   3.397   3.488  13.691
71882SOL    HW117420   3.436   3.539  13.761
71882SOL    HW217421   3.396   3.398  13.724
71883SOL     OW17422   7.285  11.678   1.803
71883SOL    HW117423   7.302  11.681   1.897
71883SOL    HW217424   7.227  11.603   1.792
71884SOL     OW17425   8.631  10.791  14.528
71884SOL    HW117426   8.615  10.761  14.617
71884SOL    HW217427   8.544  10.803  14.490
71885SOL     OW17428   1.566  14.179   3.192
71885SOL    HW117429   1.494  14.188   3.130
71885SOL    HW217430   1.645  14.191   3.140
71886SOL     OW17431   3.079  11.342  10.329
71886SOL    HW117432   3.092  11.433  10.303
71886SOL    HW217433   3.034  11.302  10.255
71887SOL     OW17434  12.409   0.717   9.272
71887SOL    HW117435  12.469   0.763   9.214
71887SOL    HW217436  12.452   0.634   9.291
71888SOL     OW17437   5.366   5.157  14.340
71888SOL    HW117438   5.431   5.094  14.370
71888SOL    HW217439   5.367   5.225  14.407
71889SOL     OW17440   2.633  14.236  12.076
71889SOL    HW117441   2.631  14.325  12.110
71889SOL    HW217442   2.555  14.194  12.113
71890SOL     OW17443   3.213   0.760   2.585
71890SOL    HW117444   3.193   0.666   2.589
71890SOL    HW217445   3.306   0.764   2.566
71891SOL     OW17446  11.436  14.434   1.889
71891SOL    HW117447  11.482  14.439   1.805
71891SOL    HW217448  11.350  14.399   1.867
71892SOL     OW17449   7.686   1.231  11.396
71892SOL    HW117450   7.724   1.292  11.333
71892SOL    HW217451   7.596   1.262  11.407
71893SOL     OW17452   7.819   9.079  13.319
71893SOL    HW117453   7.915   9.075  13.325
71893SOL    HW217454   7.795   9.000  13.272
71894SOL     OW17455   0.807  10.936   3.401
71894SOL    HW117456   0.781  10.982   3.481
71894SOL    HW217457   0.732  10.943   3.343
71895SOL     OW17458  14.552   2.135  14.072
71895SOL    HW117459  14.474   2.176  14.109
71895SOL    HW217460  14.625   2.187  14.104
71896SOL     OW17461   7.477  12.615   1.310
71896SOL    HW117462   7.509  12.587   1.224
71896SOL    HW217463   7.481  12.536   1.364
71897SOL     OW17464   4.848   6.392   1.433
71897SOL    HW117465   4.847   6.341   1.353
71897SOL    HW217466   4.862   6.328   1.503
71898SOL     OW17467   5.333  13.038  12.355
71898SOL    HW117468   5.373  13.096  12.419
71898SOL    HW217469   5.368  13.068  12.271
71899SOL     OW17470   2.494   1.460  11.774
71899SOL    HW117471   2.455   1.402  11.709
71899SOL    HW217472   2.576   1.490  11.735
71900SOL     OW17473   0.985   5.185  11.226
71900SOL    HW117474   1.032   5.229  11.297
71900SOL    HW217475   0.915   5.137  11.270
71901SOL     OW17476  12.829  13.984   8.886
71901SOL    HW117477  12.817  14.053   8.821
71901SOL    HW217478  12.875  13.914   8.839
71902SOL     OW17479  12.156   2.622  13.561
71902SOL    HW117480  12.250   2.614  13.546
71902SOL    HW217481  12.149   2.679  13.637
71903SOL     OW17482   2.106   4.176  12.229
71903SOL    HW117483   2.138   4.231  12.300
71903SOL    HW217484   2.152   4.207  12.151
71904SOL     OW17485  13.350  10.350   9.308
71904SOL    HW117486  13.358  10.440   9.276
71904SOL    HW217487  13.369  10.356   9.402
71905SOL     OW17488   2.006   5.541   4.665
71905SOL    HW117489   1.992   5.448   4.682
71905SOL    HW217490   1.951   5.561   4.590
71906SOL     OW17491   5.856  10.719  10.692
71906SOL    HW117492   5.814  10.778  10.630
71906SOL    HW217493   5.923  10.673  10.641
71907SOL     OW17494   7.824   2.141  13.900
71907SOL    HW117495   7.808   2.172  13.989
71907SOL    HW217496   7.783   2.054  13.897
71908SOL     OW17497   5.009  11.233   6.258
71908SOL    HW117498   4.917  11.247   6.236
71908SOL    HW217499   5.017  11.266   6.348
71909SOL     OW17500   6.654   0.003   7.925
71909SOL    HW117501   6.669   0.094   7.952
71909SOL    HW217502   6.632   0.009   7.832
71910SOL     OW17503  13.986   0.893   6.667
71910SOL    HW117504  14.019   0.854   6.586
71910SOL    HW217505  13.893   0.909   6.649
71911SOL     OW17506   4.478  13.284   6.198
71911SOL    HW117507   4.510  13.323   6.116
71911SOL    HW217508   4.385  13.305   6.200
71912SOL     OW17509  13.759   6.231  14.200
71912SOL    HW117510  13.675   6.274  14.217
71912SOL    HW217511  13.817   6.265  14.269
71913SOL     OW17512   6.366   7.248   0.820
71913SOL    HW117513   6.279   7.262   0.782
71913SOL    HW217514   6.408   7.334   0.816
71914SOL     OW17515  11.918   2.864  12.106
71914SOL    HW117516  11.956   2.951  12.117
71914SOL    HW217517  11.951   2.833  12.022
71915SOL     OW17518   7.058  13.386  12.343
71915SOL    HW117519   7.043  13.292  12.355
71915SOL    HW217520   6.979  13.428  12.377
71916SOL     OW17521  11.080   5.931   7.346
71916SOL    HW117522  11.132   5.989   7.291
71916SOL    HW217523  10.989   5.954   7.325
71917SOL     OW17524  11.116   0.632   8.361
71917SOL    HW117525  11.035   0.684   8.362
71917SOL    HW217526  11.181   0.689   8.402
71918SOL     OW17527  12.439  14.819   9.573
71918SOL    HW117528  12.457  14.809   9.666
71918SOL    HW217529  12.526  14.817   9.532
71919SOL     OW17530   8.535   1.009   0.898
71919SOL    HW117531   8.504   1.084   0.846
71919SOL    HW217532   8.622   1.035   0.927
71920SOL     OW17533   2.880   4.090   8.929
71920SOL    HW117534   2.873   4.121   8.838
71920SOL    HW217535   2.876   4.170   8.982
71921SOL     OW17536  12.135   3.896   7.269
71921SOL    HW117537  12.213   3.943   7.243
71921SOL    HW217538  12.069   3.964   7.283
71922SOL     OW17539   6.238   9.104  11.341
71922SOL    HW117540   6.166   9.063  11.293
71922SOL    HW217541   6.277   9.032  11.391
71923SOL     OW17542   8.218   4.207   4.811
71923SOL    HW117543   8.175   4.179   4.731
71923SOL    HW217544   8.201   4.137   4.874
71924SOL     OW17545   8.559   0.770   8.790
71924SOL    HW117546   8.653   0.786   8.780
71924SOL    HW217547   8.520   0.857   8.798
71925SOL     OW17548   3.794   0.794   1.988
71925SOL    HW117549   3.722   0.745   1.948
71925SOL    HW217550   3.871   0.770   1.936
71926SOL     OW17551  14.217   2.895   6.909
71926SOL    HW117552  14.122   2.910   6.913
71926SOL    HW217553  14.247   2.954   6.839
71927SOL     OW17554   9.130  14.807   4.712
71927SOL    HW117555   9.082  14.725   4.710
71927SOL    HW217556   9.218  14.785   4.681
71928SOL     OW17557   8.180   8.143   1.741
71928SOL    HW117558   8.089   8.115   1.728
71928SOL    HW217559   8.230   8.091   1.678
71929SOL     OW17560   7.373  13.450   1.907
71929SOL    HW117561   7.291  13.407   1.931
71929SOL    HW217562   7.401  13.496   1.986
71930SOL     OW17563   0.974   3.956   3.479
71930SOL    HW117564   0.971   3.894   3.552
71930SOL    HW217565   1.040   3.920   3.420
71931SOL     OW17566   4.671   7.397  14.721
71931SOL    HW117567   4.698   7.346  14.645
71931SOL    HW217568   4.618   7.336  14.773
71932SOL     OW17569  13.412   6.341  12.207
71932SOL    HW117570  13.424   6.268  12.146
71932SOL    HW217571  13.493   6.391  12.202
71933SOL     OW17572   6.775   2.974   0.883
71933SOL    HW117573   6.841   2.966   0.952
71933SOL    HW217574   6.786   2.896   0.829
71934SOL     OW17575  12.533   0.938  13.534
71934SOL    HW117576  12.613   0.986  13.554
71934SOL    HW217577  12.503   0.903  13.618
71935SOL     OW17578   9.659   3.868   3.285
71935SOL    HW117579   9.576   3.869   3.238
71935SOL    HW217580   9.645   3.926   3.360
71936SOL     OW17581   0.486  14.284   0.562
71936SOL    HW117582   0.396  14.286   0.530
71936SOL    HW217583   0.540  14.297   0.484
71937SOL     OW17584   7.288   4.758   4.451
71937SOL    HW117585   7.342   4.832   4.478
71937SOL    HW217586   7.198   4.785   4.470
71938SOL     OW17587   1.305   3.057  12.315
71938SOL    HW117588   1.232   3.068  12.255
71938SOL    HW217589   1.339   3.146  12.327
71939SOL     OW17590   0.010  11.925   4.626
71939SOL    HW117591  14.800  11.963   4.635
71939SOL    HW217592   0.065  11.999   4.599
71940SOL     OW17593   8.234   5.932   4.430
71940SOL    HW117594   8.153   5.888   4.456
71940SOL    HW217595   8.288   5.930   4.509
71941SOL     OW17596   8.342   2.837  13.827
71941SOL    HW117597   8.263   2.807  13.873
71941SOL    HW217598   8.395   2.758  13.816
71942SOL     OW17599   1.157   0.077   0.439
71942SOL    HW117600   1.127   0.164   0.466
71942SOL    HW217601   1.236   0.093   0.388
71943SOL     OW17602   7.839  12.865  14.616
71943SOL    HW117603   7.790  12.902  14.543
71943SOL    HW217604   7.914  12.923  14.627
71944SOL     OW17605   3.363  14.522  10.659
71944SOL    HW117606   3.381  14.527  10.753
71944SOL    HW217607   3.273  14.491  10.653
71945SOL     OW17608   1.736   6.277   7.003
71945SOL    HW117609   1.782   6.354   6.970
71945SOL    HW217610   1.675   6.312   7.068
71946SOL     OW17611   2.498  11.097  12.921
71946SOL    HW117612   2.502  11.002  12.910
71946SOL    HW217613   2.405  11.117  12.923
71947SOL     OW17614   2.600  10.842  14.389
71947SOL    HW117615   2.627  10.799  14.308
71947SOL    HW217616   2.526  10.790  14.421
71948SOL     OW17617   0.487   7.209  10.227
71948SOL    HW117618   0.505   7.261  10.306
71948SOL    HW217619   0.451   7.271  10.165
71949SOL     OW17620   5.093   0.831  11.316
71949SOL    HW117621   5.142   0.905  11.280
71949SOL    HW217622   5.104   0.761  11.252
71950SOL     OW17623   0.043   1.088   4.784
71950SOL    HW117624   0.029   1.177   4.816
71950SOL    HW217625  14.859   1.035   4.834
71951SOL     OW17626  13.771  11.670  13.485
71951SOL    HW117627  13.843  11.608  13.474
71951SOL    HW217628  13.778  11.699  13.576
71952SOL     OW17629   4.764  13.718   5.801
71952SOL    HW117630   4.721  13.654   5.857
71952SOL    HW217631   4.713  13.718   5.720
71953SOL     OW17632   0.143   4.758   3.967
71953SOL    HW117633   0.049   4.742   3.958
71953SOL    HW217634   0.184   4.673   3.951
71954SOL     OW17635   1.734   8.032  14.695
71954SOL    HW117636   1.799   8.080  14.747
71954SOL    HW217637   1.728   8.081  14.613
71955SOL     OW17638   5.663   4.899   4.491
71955SOL    HW117639   5.747   4.911   4.448
71955SOL    HW217640   5.599   4.941   4.433
71956SOL     OW17641   1.393   9.845   3.120
71956SOL    HW117642   1.322   9.841   3.057
71956SOL    HW217643   1.438   9.761   3.112
71957SOL     OW17644  14.007   8.442  14.175
71957SOL    HW117645  14.025   8.493  14.254
71957SOL    HW217646  13.988   8.509  14.108
71958SOL     OW17647   5.291   7.502  13.521
71958SOL    HW117648   5.346   7.580  13.529
71958SOL    HW217649   5.224   7.513  13.588
71959SOL     OW17650   4.967  12.149   4.858
71959SOL    HW117651   4.945  12.056   4.864
71959SOL    HW217652   5.045  12.159   4.912
71960SOL     OW17653   4.631   7.470   4.999
71960SOL    HW117654   4.551   7.473   4.946
71960SOL    HW217655   4.601   7.440   5.085
71961SOL     OW17656  11.036  11.286  10.991
71961SOL    HW117657  11.067  11.285  11.081
71961SOL    HW217658  10.952  11.241  10.994
71962SOL     OW17659   7.130   3.816   2.002
71962SOL    HW117660   7.173   3.889   2.046
71962SOL    HW217661   7.172   3.812   1.916
71963SOL     OW17662   7.807   5.425  10.039
71963SOL    HW117663   7.739   5.477  10.082
71963SOL    HW217664   7.795   5.442   9.945
71964SOL     OW17665   1.421   1.024  13.083
71964SOL    HW117666   1.491   0.995  13.024
71964SOL    HW217667   1.343   1.028  13.027
71965SOL     OW17668  12.964   3.801   3.269
71965SOL    HW117669  12.951   3.896   3.267
71965SOL    HW217670  12.876   3.765   3.261
71966SOL     OW17671  10.171   9.453   1.213
71966SOL    HW117672  10.083   9.420   1.199
71966SOL    HW217673  10.220   9.425   1.136
71967SOL     OW17674   4.343  14.456  14.388
71967SOL    HW117675   4.390  14.492  14.464
71967SOL    HW217676   4.292  14.530  14.354
71968SOL     OW17677   5.447  12.029   2.678
71968SOL    HW117678   5.497  11.957   2.716
71968SOL    HW217679   5.366  11.987   2.647
71969SOL     OW17680   4.047  14.226   7.720
71969SOL    HW117681   4.109  14.180   7.663
71969SOL    HW217682   3.981  14.261   7.660
71970SOL     OW17683   1.606   4.588   1.113
71970SOL    HW117684   1.559   4.510   1.141
71970SOL    HW217685   1.537   4.646   1.079
71971SOL     OW17686  12.107   1.241  14.618
71971SOL    HW117687  12.022   1.227  14.660
71971SOL    HW217688  12.166   1.179  14.661
71972SOL     OW17689  14.464  14.445   8.043
71972SOL    HW117690  14.499  14.534   8.040
71972SOL    HW217691  14.443  14.424   7.953
71973SOL     OW17692  13.216   2.058  13.240
71973SOL    HW117693  13.201   2.132  13.182
71973SOL    HW217694  13.170   2.081  13.321
71974SOL     OW17695  10.616   8.173   5.093
71974SOL    HW117696  10.694   8.229   5.097
71974SOL    HW217697  10.645   8.096   5.043
71975SOL     OW17698  13.514   4.109   4.316
71975SOL    HW117699  13.466   4.189   4.339
71975SOL    HW217700  13.524   4.113   4.221
71976SOL     OW17701  10.134  10.479   9.547
71976SOL    HW117702  10.189  10.468   9.470
71976SOL    HW217703  10.091  10.394   9.558
71977SOL     OW17704  14.356   7.400   5.488
71977SOL    HW117705  14.371   7.436   5.401
71977SOL    HW217706  14.397   7.313   5.485
71978SOL     OW17707   0.935   6.525   2.696
71978SOL    HW117708   0.843   6.525   2.720
71978SOL    HW217709   0.946   6.606   2.645
71979SOL     OW17710  14.130  12.210  12.663
71979SOL    HW117711  14.111  12.199  12.570
71979SOL    HW217712  14.151  12.122  12.694
71980SOL     OW17713   2.129  11.901  11.564
71980SOL    HW117714   2.055  11.881  11.506
71980SOL    HW217715   2.181  11.964  11.515
71981SOL     OW17716   5.419   2.330   9.595
71981SOL    HW117717   5.399   2.405   9.651
71981SOL    HW217718   5.404   2.362   9.506
71982SOL     OW17719   1.380   0.155   0.294
71982SOL    HW117720   1.398   0.247   0.311
71982SOL    HW217721   1.434   0.108   0.357
71983SOL     OW17722   3.678   6.368   6.863
71983SOL    HW117723   3.621   6.443   6.847
71983SOL    HW217724   3.647   6.301   6.801
71984SOL     OW17725   4.774   4.553  12.119
71984SOL    HW117726   4.852   4.571  12.067
71984SOL    HW217727   4.711   4.621  12.093
71985SOL     OW17728   2.156  13.066   9.099
71985SOL    HW117729   2.083  13.125   9.121
71985SOL    HW217730   2.114  12.987   9.067
71986SOL     OW17731   9.261  11.734   9.150
71986SOL    HW117732   9.311  11.713   9.072
71986SOL    HW217733   9.291  11.822   9.175
71987SOL     OW17734   5.061  12.330  10.671
71987SOL    HW117735   4.992  12.387  10.637
71987SOL    HW217736   5.017  12.248  10.692
71988SOL     OW17737  14.776   5.288   7.252
71988SOL    HW117738  14.789   5.211   7.307
71988SOL    HW217739  14.697   5.269   7.202
71989SOL     OW17740   8.809  11.972   7.536
71989SOL    HW117741   8.867  12.048   7.529
71989SOL    HW217742   8.840  11.925   7.614
71990SOL     OW17743  11.122   2.462  10.773
71990SOL    HW117744  11.110   2.371  10.801
71990SOL    HW217745  11.101   2.514  10.851
71991SOL     OW17746  14.348   2.317  11.906
71991SOL    HW117747  14.328   2.409  11.891
71991SOL    HW217748  14.295   2.270  11.841
71992SOL     OW17749  14.653   7.575   6.977
71992SOL    HW117750  14.651   7.479   6.968
71992SOL    HW217751  14.745   7.597   6.971
71993SOL     OW17752   7.683   8.344  14.237
71993SOL    HW117753   7.604   8.300  14.268
71993SOL    HW217754   7.653   8.427  14.202
71994SOL     OW17755   3.102   6.070   8.137
71994SOL    HW117756   3.019   6.039   8.101
71994SOL    HW217757   3.081   6.156   8.174
71995SOL     OW17758   4.645   7.360   4.052
71995SOL    HW117759   4.687   7.324   3.975
71995SOL    HW217760   4.686   7.445   4.065
71996SOL     OW17761   8.888   4.151   6.826
71996SOL    HW117762   8.831   4.164   6.901
71996SOL    HW217763   8.974   4.183   6.855
71997SOL     OW17764   0.445  14.876  12.856
71997SOL    HW117765   0.352   0.015  12.874
71997SOL    HW217766   0.454  14.781  12.865
71998SOL     OW17767  11.124   5.044  14.725
71998SOL    HW117768  11.161   4.964  14.762
71998SOL    HW217769  11.121   5.105  14.799
71999SOL     OW17770   1.937   1.767  13.978
71999SOL    HW117771   1.965   1.826  13.908
71999SOL    HW217772   1.844   1.750  13.959
72000SOL     OW17773   4.572   0.251   3.672
72000SOL    HW117774   4.630   0.176   3.657
72000SOL    HW217775   4.504   0.218   3.730
72001SOL     OW17776   9.068   6.364   7.680
72001SOL    HW117777   9.060   6.399   7.769
72001SOL    HW217778   9.003   6.412   7.629
72002SOL     OW17779   2.747  11.733   6.970
72002SOL    HW117780   2.788  11.662   6.921
72002SOL    HW217781   2.656  11.733   6.940
72003SOL     OW17782   7.781   2.980  11.796
72003SOL    HW117783   7.813   2.904  11.843
72003SOL    HW217784   7.721   2.944  11.731
72004SOL     OW17785  14.329   8.529  10.558
72004SOL    HW117786  14.261   8.486  10.608
72004SOL    HW217787  14.283   8.596  10.506
72005SOL     OW17788   2.561   0.738   6.437
72005SOL    HW117789   2.545   0.823   6.477
72005SOL    HW217790   2.633   0.701   6.487
72006SOL     OW17791   0.095  10.007   2.044
72006SOL    HW117792   0.091  10.035   1.952
72006SOL    HW217793   0.181  10.035   2.074
72007SOL     OW17794   3.992  10.456  12.442
72007SOL    HW117795   3.971  10.549  12.439
72007SOL    HW217796   3.931  10.419  12.505
72008SOL     OW17797   8.614   5.191   0.422
72008SOL    HW117798   8.667   5.232   0.490
72008SOL    HW217799   8.549   5.257   0.398
72009SOL     OW17800   6.779   2.293   6.170
72009SOL    HW117801   6.807   2.359   6.233
72009SOL    HW217802   6.773   2.340   6.086
72010SOL     OW17803   0.159   9.015   6.736
72010SOL    HW117804   0.140   9.000   6.829
72010SOL    HW217805   0.199   8.934   6.706
72011SOL     OW17806   8.489   1.338  12.344
72011SOL    HW117807   8.478   1.361  12.436
72011SOL    HW217808   8.568   1.282  12.343
72012SOL     OW17809   0.898   4.607   9.868
72012SOL    HW117810   0.807   4.599   9.896
72012SOL    HW217811   0.893   4.615   9.772
72013SOL     OW17812   0.793   7.101   3.306
72013SOL    HW117813   0.854   7.049   3.358
72013SOL    HW217814   0.848   7.163   3.258
72014SOL     OW17815   0.830   6.495   5.999
72014SOL    HW117816   0.804   6.417   6.050
72014SOL    HW217817   0.749   6.544   5.987
72015SOL     OW17818   7.627   4.194  11.328
72015SOL    HW117819   7.589   4.219  11.245
72015SOL    HW217820   7.599   4.261  11.390
72016SOL     OW17821   7.098   9.367  12.248
72016SOL    HW117822   7.115   9.289  12.195
72016SOL    HW217823   7.153   9.354  12.326
72017SOL     OW17824   7.157   3.150  10.935
72017SOL    HW117825   7.176   3.206  10.860
72017SOL    HW217826   7.239   3.102  10.951
72018SOL     OW17827   4.840   1.389  10.235
72018SOL    HW117828   4.861   1.408  10.326
72018SOL    HW217829   4.925   1.378  10.192
72019SOL     OW17830   7.773   8.591  13.476
72019SOL    HW117831   7.783   8.678  13.513
72019SOL    HW217832   7.863   8.559  13.466
72020SOL     OW17833  10.790  10.365   4.585
72020SOL    HW117834  10.709  10.319   4.610
72020SOL    HW217835  10.760  10.449   4.552
72021SOL     OW17836   7.542   1.665   4.146
72021SOL    HW117837   7.593   1.626   4.074
72021SOL    HW217838   7.462   1.613   4.149
72022SOL     OW17839  11.470   4.811   1.074
72022SOL    HW117840  11.403   4.786   1.138
72022SOL    HW217841  11.500   4.728   1.038
72023SOL     OW17842   5.504   6.289   9.791
72023SOL    HW117843   5.537   6.378   9.795
72023SOL    HW217844   5.434   6.286   9.855
72024SOL     OW17845  13.103   4.996   9.441
72024SOL    HW117846  13.109   5.076   9.494
72024SOL    HW217847  13.188   4.954   9.451
72025SOL     OW17848   2.404   0.514   5.141
72025SOL    HW117849   2.417   0.455   5.215
72025SOL    HW217850   2.310   0.533   5.142
72026SOL     OW17851   6.332   5.567   6.437
72026SOL    HW117852   6.312   5.608   6.521
72026SOL    HW217853   6.372   5.636   6.385
72027SOL     OW17854   8.146  13.721   1.041
72027SOL    HW117855   8.117  13.789   0.980
72027SOL    HW217856   8.238  13.706   1.018
72028SOL     OW17857  11.147   7.996   8.798
72028SOL    HW117858  11.222   8.052   8.783
72028SOL    HW217859  11.118   7.970   8.710
72029SOL     OW17860  12.416   6.997  14.359
72029SOL    HW117861  12.484   6.939  14.392
72029SOL    HW217862  12.340   6.979  14.415
72030SOL     OW17863   4.845   0.203   1.122
72030SOL    HW117864   4.914   0.178   1.183
72030SOL    HW217865   4.764   0.171   1.162
72031SOL     OW17866   0.200   9.064   1.658
72031SOL    HW117867   0.267   8.997   1.644
72031SOL    HW217868   0.142   9.055   1.582
72032SOL     OW17869  11.321   6.727   6.235
72032SOL    HW117870  11.247   6.782   6.262
72032SOL    HW217871  11.282   6.640   6.222
72033SOL     OW17872  13.759   4.299  14.195
72033SOL    HW117873  13.674   4.255  14.184
72033SOL    HW217874  13.740   4.391  14.177
72034SOL     OW17875   6.747   7.390  14.372
72034SOL    HW117876   6.749   7.329  14.298
72034SOL    HW217877   6.655   7.394  14.398
72035SOL     OW17878   7.450   3.044   3.331
72035SOL    HW117879   7.426   3.038   3.424
72035SOL    HW217880   7.383   3.101   3.294
72036SOL     OW17881   9.910  12.105   8.833
72036SOL    HW117882   9.854  12.080   8.906
72036SOL    HW217883   9.918  12.024   8.781
72037SOL     OW17884  14.004   9.787   2.991
72037SOL    HW117885  13.928   9.846   2.984
72037SOL    HW217886  13.982   9.713   2.935
72038SOL     OW17887  10.518   9.623   4.020
72038SOL    HW117888  10.533   9.529   4.020
72038SOL    HW217889  10.423   9.632   4.014
72039SOL     OW17890   9.350  10.101   2.870
72039SOL    HW117891   9.261  10.088   2.903
72039SOL    HW217892   9.359  10.196   2.863
72040SOL     OW17893  10.454  10.188   8.872
72040SOL    HW117894  10.463  10.269   8.821
72040SOL    HW217895  10.363  10.162   8.859
72041SOL     OW17896  10.430   5.927   4.828
72041SOL    HW117897  10.398   5.956   4.913
72041SOL    HW217898  10.355   5.883   4.788
72042SOL     OW17899   8.720  12.796   0.541
72042SOL    HW117900   8.693  12.761   0.626
72042SOL    HW217901   8.764  12.879   0.562
72043SOL     OW17902   8.313   2.139   8.225
72043SOL    HW117903   8.354   2.131   8.139
72043SOL    HW217904   8.367   2.201   8.273
72044SOL     OW17905  10.330   6.430   2.360
72044SOL    HW117906  10.419   6.463   2.370
72044SOL    HW217907  10.291   6.485   2.292
72045SOL     OW17908   3.662   2.489   7.174
72045SOL    HW117909   3.720   2.476   7.250
72045SOL    HW217910   3.574   2.470   7.208
72046SOL     OW17911   7.037   4.841  14.694
72046SOL    HW117912   7.004   4.908  14.753
72046SOL    HW217913   6.998   4.863  14.609
72047SOL     OW17914  10.370   6.225   4.221
72047SOL    HW117915  10.406   6.224   4.310
72047SOL    HW217916  10.440   6.188   4.167
72048SOL     OW17917  12.561   0.918   7.201
72048SOL    HW117918  12.565   0.886   7.111
72048SOL    HW217919  12.468   0.916   7.222
72049SOL     OW17920   4.085  13.938   3.916
72049SOL    HW117921   4.010  13.988   3.947
72049SOL    HW217922   4.138  14.002   3.867
72050SOL     OW17923   9.391  14.716   7.863
72050SOL    HW117924   9.476  14.677   7.842
72050SOL    HW217925   9.412  14.803   7.897
72051SOL     OW17926  11.748   3.688   9.319
72051SOL    HW117927  11.809   3.627   9.360
72051SOL    HW217928  11.803   3.749   9.271
72052SOL     OW17929   5.130   8.755   3.658
72052SOL    HW117930   5.110   8.764   3.751
72052SOL    HW217931   5.224   8.768   3.652
72053SOL     OW17932  14.641  12.484   9.677
72053SOL    HW117933  14.735  12.478   9.661
72053SOL    HW217934  14.634  12.502   9.771
72054SOL     OW17935   5.413   6.251  10.561
72054SOL    HW117936   5.437   6.158  10.572
72054SOL    HW217937   5.477   6.285  10.499
72055SOL     OW17938   5.941   8.803  11.161
72055SOL    HW117939   5.908   8.865  11.227
72055SOL    HW217940   5.953   8.856  11.082
72056SOL     OW17941   7.206   5.667   0.825
72056SOL    HW117942   7.127   5.717   0.845
72056SOL    HW217943   7.180   5.607   0.755
72057SOL     OW17944   2.752  11.072   9.132
72057SOL    HW117945   2.756  11.165   9.109
72057SOL    HW217946   2.843  11.049   9.154
72058SOL     OW17947   3.632   2.202   1.261
72058SOL    HW117948   3.603   2.175   1.349
72058SOL    HW217949   3.717   2.160   1.250
72059SOL     OW17950   4.585   1.722   0.034
72059SOL    HW117951   4.624   1.809   0.026
72059SOL    HW217952   4.497   1.738   0.068
72060SOL     OW17953   2.972  13.718   9.970
72060SOL    HW117954   2.936  13.763  10.047
72060SOL    HW217955   3.066  13.740   9.972
72061SOL     OW17956   3.094   9.703  10.186
72061SOL    HW117957   3.076   9.758  10.110
72061SOL    HW217958   3.009   9.691  10.227
72062SOL     OW17959   4.297  10.118   2.679
72062SOL    HW117960   4.281  10.202   2.636
72062SOL    HW217961   4.210  10.085   2.701
72063SOL     OW17962   9.088   6.461  11.681
72063SOL    HW117963   9.053   6.545  11.654
72063SOL    HW217964   9.142   6.481  11.758
72064SOL     OW17965   5.071   1.319  10.110
72064SOL    HW117966   5.100   1.349  10.197
72064SOL    HW217967   5.131   1.248  10.088
72065SOL     OW17968   5.592   1.403   3.896
72065SOL    HW117969   5.656   1.351   3.945
72065SOL    HW217970   5.645   1.453   3.833
72066SOL     OW17971  11.560  12.520  13.579
72066SOL    HW117972  11.535  12.435  13.542
72066SOL    HW217973  11.633  12.500  13.637
72067SOL     OW17974   2.413   8.600  13.439
72067SOL    HW117975   2.491   8.650  13.417
72067SOL    HW217976   2.418   8.522  13.383
72068SOL     OW17977  11.814  10.731   4.447
72068SOL    HW117978  11.906  10.736   4.473
72068SOL    HW217979  11.817  10.722   4.351
72069SOL     OW17980   1.907  12.755   4.763
72069SOL    HW117981   1.948  12.823   4.817
72069SOL    HW217982   1.845  12.711   4.822
72070SOL     OW17983   4.736  13.605   2.605
72070SOL    HW117984   4.819  13.576   2.567
72070SOL    HW217985   4.720  13.691   2.565
72071SOL     OW17986   6.806  11.740   5.001
72071SOL    HW117987   6.753  11.661   5.014
72071SOL    HW217988   6.804  11.783   5.086
72072SOL     OW17989  12.345   7.173   6.680
72072SOL    HW117990  12.315   7.143   6.594
72072SOL    HW217991  12.372   7.264   6.666
72073SOL     OW17992   7.125  10.061   0.561
72073SOL    HW117993   7.193  10.036   0.499
72073SOL    HW217994   7.076  10.129   0.516
72074SOL     OW17995   7.300   7.987   4.432
72074SOL    HW117996   7.303   7.936   4.512
72074SOL    HW217997   7.334   7.928   4.364
72075SOL     OW17998   9.860  10.767   4.616
72075SOL    HW117999   9.915  10.689   4.609
72075SOL    HW218000   9.777  10.741   4.577
72076SOL     OW18001  14.054   5.327  13.517
72076SOL    HW118002  14.133   5.301  13.470
72076SOL    HW218003  14.042   5.420  13.494
72077SOL     OW18004   8.131   5.014   5.570
72077SOL    HW118005   8.185   5.094   5.568
72077SOL    HW218006   8.184   4.949   5.524
72078SOL     OW18007   6.353  10.727  11.398
72078SOL    HW118008   6.418  10.795  11.417
72078SOL    HW218009   6.396  10.645  11.423
72079SOL     OW18010  10.240   8.975   7.845
72079SOL    HW118011  10.203   8.898   7.801
72079SOL    HW218012  10.178   8.994   7.916
72080SOL     OW18013  13.084  12.855   7.799
72080SOL    HW118014  13.072  12.948   7.782
72080SOL    HW218015  13.095  12.848   7.894
72081SOL     OW18016  12.821   2.176   4.165
72081SOL    HW118017  12.802   2.137   4.080
72081SOL    HW218018  12.787   2.113   4.229
72082SOL     OW18019   7.889   1.596   8.139
72082SOL    HW118020   7.957   1.537   8.172
72082SOL    HW218021   7.937   1.663   8.090
72083SOL     OW18022   8.083  10.046   6.779
72083SOL    HW118023   8.092  10.010   6.691
72083SOL    HW218024   8.114   9.977   6.837
72084SOL     OW18025   0.112   3.893   5.318
72084SOL    HW118026   0.106   3.837   5.396
72084SOL    HW218027   0.164   3.842   5.256
72085SOL     OW18028  11.385   9.779   5.151
72085SOL    HW118029  11.291   9.787   5.168
72085SOL    HW218030  11.411   9.699   5.196
72086SOL     OW18031  12.021  13.264   2.622
72086SOL    HW118032  12.111  13.283   2.646
72086SOL    HW218033  12.015  13.286   2.529
72087SOL     OW18034  13.271   6.970  10.820
72087SOL    HW118035  13.182   7.005  10.813
72087SOL    HW218036  13.315   7.028  10.882
72088SOL     OW18037   9.633   3.441  10.749
72088SOL    HW118038   9.598   3.474  10.832
72088SOL    HW218039   9.560   3.446  10.688
72089SOL     OW18040   1.453   4.986   5.341
72089SOL    HW118041   1.438   5.031   5.425
72089SOL    HW218042   1.502   4.907   5.365
72090SOL     OW18043   6.978  12.498   3.393
72090SOL    HW118044   7.062  12.501   3.347
72090SOL    HW218045   6.976  12.412   3.435
72091SOL     OW18046   7.324   9.475   3.937
72091SOL    HW118047   7.356   9.464   4.026
72091SOL    HW218048   7.234   9.442   3.939
72092SOL     OW18049   5.214   2.036  13.442
72092SOL    HW118050   5.272   1.981  13.494
72092SOL    HW218051   5.254   2.036  13.355
72093SOL     OW18052  12.636  10.151  13.269
72093SOL    HW118053  12.645  10.218  13.202
72093SOL    HW218054  12.697  10.177  13.338
72094SOL     OW18055  11.928   4.855   7.654
72094SOL    HW118056  12.001   4.885   7.709
72094SOL    HW218057  11.962   4.777   7.611
72095SOL     OW18058   4.424   8.722   4.918
72095SOL    HW118059   4.458   8.714   5.007
72095SOL    HW218060   4.428   8.816   4.900
72096SOL     OW18061   5.706  13.588   3.744
72096SOL    HW118062   5.618  13.569   3.776
72096SOL    HW218063   5.733  13.665   3.795
72097SOL     OW18064   1.808  10.371  11.906
72097SOL    HW118065   1.752  10.325  11.968
72097SOL    HW218066   1.887  10.393  11.957
72098SOL     OW18067  10.883   7.507  11.551
72098SOL    HW118068  10.925   7.467  11.475
72098SOL    HW218069  10.794   7.526  11.522
72099SOL     OW18070  14.791  10.105  11.249
72099SOL    HW118071  14.708  10.127  11.292
72099SOL    HW218072  14.792  10.009  11.246
72100SOL     OW18073   3.607  10.480   3.589
72100SOL    HW118074   3.587  10.505   3.680
72100SOL    HW218075   3.671  10.410   3.597
72101SOL     OW18076   4.037  12.792   3.396
72101SOL    HW118077   3.943  12.811   3.402
72101SOL    HW218078   4.060  12.811   3.305
72102SOL     OW18079   0.036   1.883   7.411
72102SOL    HW118080   0.045   1.941   7.486
72102SOL    HW218081   0.100   1.913   7.348
72103SOL     OW18082   8.049   4.323   5.110
72103SOL    HW118083   8.095   4.326   5.194
72103SOL    HW218084   8.065   4.234   5.078
72104SOL     OW18085   3.802   2.150   6.399
72104SOL    HW118086   3.808   2.245   6.385
72104SOL    HW218087   3.862   2.112   6.334
72105SOL     OW18088  12.980   2.271  14.582
72105SOL    HW118089  12.978   2.224  14.665
72105SOL    HW218090  12.890   2.269  14.551
72106SOL     OW18091  11.193   0.132   6.142
72106SOL    HW118092  11.255   0.097   6.077
72106SOL    HW218093  11.153   0.055   6.181
72107SOL     OW18094   8.037   2.609   9.734
72107SOL    HW118095   8.022   2.529   9.784
72107SOL    HW218096   7.965   2.612   9.671
72108SOL     OW18097   9.370  12.463  12.837
72108SOL    HW118098   9.451  12.447  12.884
72108SOL    HW218099   9.395  12.462  12.744
72109SOL     OW18100   2.245  14.512   1.022
72109SOL    HW118101   2.257  14.607   1.031
72109SOL    HW218102   2.150  14.499   1.030
72110SOL     OW18103   4.544   8.293   3.143
72110SOL    HW118104   4.534   8.388   3.140
72110SOL    HW218105   4.459   8.259   3.117
72111SOL     OW18106  12.803   7.649   1.425
72111SOL    HW118107  12.814   7.661   1.331
72111SOL    HW218108  12.729   7.706   1.447
72112SOL     OW18109   8.135   1.004   1.872
72112SOL    HW118110   8.169   1.083   1.914
72112SOL    HW218111   8.079   0.964   1.939
72113SOL     OW18112   5.723   7.203   4.904
72113SOL    HW118113   5.644   7.208   4.957
72113SOL    HW218114   5.697   7.242   4.820
72114SOL     OW18115   7.358  14.641   8.386
72114SOL    HW118116   7.348  14.550   8.414
72114SOL    HW218117   7.322  14.643   8.297
72115SOL     OW18118   0.899   2.599   1.583
72115SOL    HW118119   0.820   2.546   1.592
72115SOL    HW218120   0.971   2.537   1.597
72116SOL     OW18121   4.212   9.055  14.855
72116SOL    HW118122   4.201   9.100  14.772
72116SOL    HW218123   4.306   9.035  14.859
72117SOL     OW18124   5.913  13.080  14.796
72117SOL    HW118125   5.962  13.145  14.745
72117SOL    HW218126   5.979  13.019  14.828
72118SOL     OW18127  10.166   5.927  14.410
72118SOL    HW118128  10.080   5.904  14.445
72118SOL    HW218129  10.147   5.988  14.339
72119SOL     OW18130  10.850   6.342  14.258
72119SOL    HW118131  10.774   6.377  14.212
72119SOL    HW218132  10.816   6.266  14.305
72120SOL     OW18133   6.968   0.129   2.641
72120SOL    HW118134   6.888   0.076   2.637
72120SOL    HW218135   7.027   0.079   2.698
72121SOL     OW18136   8.824  11.587   5.913
72121SOL    HW118137   8.913  11.612   5.937
72121SOL    HW218138   8.783  11.668   5.884
72122SOL     OW18139  12.720  14.112   0.326
72122SOL    HW118140  12.792  14.076   0.377
72122SOL    HW218141  12.720  14.060   0.246
72123SOL     OW18142   6.178   9.232   4.457
72123SOL    HW118143   6.131   9.267   4.532
72123SOL    HW218144   6.256   9.287   4.450
72124SOL     OW18145   2.569   8.104   5.974
72124SOL    HW118146   2.656   8.083   6.007
72124SOL    HW218147   2.558   8.046   5.898
72125SOL     OW18148  11.987   9.909  13.216
72125SOL    HW118149  12.036   9.880  13.293
72125SOL    HW218150  12.052   9.956  13.163
72126SOL     OW18151   5.976   1.591   9.777
72126SOL    HW118152   5.898   1.642   9.754
72126SOL    HW218153   5.941   1.508   9.810
72127SOL     OW18154   5.149   7.819   5.298
72127SOL    HW118155   5.164   7.907   5.263
72127SOL    HW218156   5.077   7.829   5.359
72128SOL     OW18157   8.165   4.925   9.403
72128SOL    HW118158   8.110   4.885   9.470
72128SOL    HW218159   8.180   4.855   9.340
72129SOL     OW18160   0.670  11.253   5.160
72129SOL    HW118161   0.686  11.345   5.141
72129SOL    HW218162   0.678  11.210   5.074
72130SOL     OW18163   8.680   4.130   4.826
72130SOL    HW118164   8.663   4.199   4.762
72130SOL    HW218165   8.606   4.134   4.886
72131SOL     OW18166   8.622   5.936  14.247
72131SOL    HW118167   8.568   5.860  14.270
72131SOL    HW218168   8.609   5.997  14.320
72132SOL     OW18169  10.788   9.263  10.384
72132SOL    HW118170  10.780   9.359  10.388
72132SOL    HW218171  10.875   9.245  10.421
72133SOL     OW18172   1.390   4.806   1.877
72133SOL    HW118173   1.430   4.889   1.903
72133SOL    HW218174   1.463   4.745   1.870
72134SOL     OW18175   8.041  10.747   1.135
72134SOL    HW118176   7.967  10.690   1.156
72134SOL    HW218177   8.118  10.690   1.139
72135SOL     OW18178   8.232  10.226  10.723
72135SOL    HW118179   8.281  10.191  10.797
72135SOL    HW218180   8.251  10.167  10.651
72136SOL     OW18181   7.521   9.534  14.333
72136SOL    HW118182   7.615   9.547  14.347
72136SOL    HW218183   7.499   9.458  14.386
72137SOL     OW18184   0.514   4.635   9.297
72137SOL    HW118185   0.467   4.552   9.304
72137SOL    HW218186   0.606   4.610   9.291
72138SOL     OW18187  12.864   6.529   3.527
72138SOL    HW118188  12.781   6.533   3.481
72138SOL    HW218189  12.844   6.484   3.609
72139SOL     OW18190  14.571   8.220   6.645
72139SOL    HW118191  14.578   8.315   6.646
72139SOL    HW218192  14.502   8.201   6.582
72140SOL     OW18193   8.126   2.807   2.190
72140SOL    HW118194   8.190   2.756   2.238
72140SOL    HW218195   8.069   2.845   2.257
72141SOL     OW18196   9.393  14.352   1.443
72141SOL    HW118197   9.341  14.315   1.372
72141SOL    HW218198   9.462  14.401   1.399
72142SOL     OW18199   8.635   1.054  10.708
72142SOL    HW118200   8.695   1.052  10.633
72142SOL    HW218201   8.568   1.117  10.682
72143SOL     OW18202   1.110   6.169   3.017
72143SOL    HW118203   1.108   6.260   2.989
72143SOL    HW218204   1.080   6.170   3.108
72144SOL     OW18205   3.884  14.492   5.249
72144SOL    HW118206   3.812  14.519   5.306
72144SOL    HW218207   3.962  14.504   5.303
72145SOL     OW18208  12.149   1.527  13.900
72145SOL    HW118209  12.100   1.454  13.939
72145SOL    HW218210  12.108   1.606  13.937
72146SOL     OW18211   7.164   6.848   6.458
72146SOL    HW118212   7.237   6.831   6.517
72146SOL    HW218213   7.170   6.778   6.393
72147SOL     OW18214   4.787   9.752   5.695
72147SOL    HW118215   4.807   9.842   5.722
72147SOL    HW218216   4.781   9.702   5.776
72148SOL     OW18217   1.751   4.796   0.803
72148SOL    HW118218   1.717   4.845   0.877
72148SOL    HW218219   1.842   4.777   0.826
72149SOL     OW18220   7.285  12.026   2.558
72149SOL    HW118221   7.376  12.006   2.577
72149SOL    HW218222   7.235  11.957   2.602
72150SOL     OW18223  13.277  12.825   7.227
72150SOL    HW118224  13.271  12.903   7.173
72150SOL    HW218225  13.295  12.858   7.315
72151SOL     OW18226   5.959   4.905   9.697
72151SOL    HW118227   5.916   4.845   9.758
72151SOL    HW218228   5.896   4.917   9.626
72152SOL     OW18229   2.779   3.068  13.640
72152SOL    HW118230   2.724   3.003  13.596
72152SOL    HW218231   2.867   3.033  13.634
72153SOL     OW18232   5.693   3.356   5.543
72153SOL    HW118233   5.684   3.262   5.526
72153SOL    HW218234   5.787   3.373   5.531
72154SOL     OW18235  12.940   9.164  12.078
72154SOL    HW118236  12.879   9.101  12.039
72154SOL    HW218237  13.015   9.164  12.019
72155SOL     OW18238   1.858   0.065   5.757
72155SOL    HW118239   1.855   0.046   5.851
72155SOL    HW218240   1.826  14.863   5.716
72156SOL     OW18241   7.513   6.348  10.988
72156SOL    HW118242   7.477   6.350  11.077
72156SOL    HW218243   7.512   6.439  10.960
72157SOL     OW18244   1.631  14.664  12.965
72157SOL    HW118245   1.668  14.744  13.002
72157SOL    HW218246   1.688  14.594  12.997
72158SOL     OW18247   8.948  11.633   6.463
72158SOL    HW118248   9.012  11.665   6.527
72158SOL    HW218249   8.967  11.540   6.454
72159SOL     OW18250   7.770   9.433   9.765
72159SOL    HW118251   7.693   9.415   9.712
72159SOL    HW218252   7.793   9.523   9.745
72160SOL     OW18253  10.247   7.901  13.441
72160SOL    HW118254  10.280   7.975  13.391
72160SOL    HW218255  10.303   7.896  13.518
72161SOL     OW18256   1.737   6.686   8.011
72161SOL    HW118257   1.781   6.750   8.065
72161SOL    HW218258   1.674   6.644   8.069
72162SOL     OW18259  14.161  14.791   2.468
72162SOL    HW118260  14.116  14.844   2.402
72162SOL    HW218261  14.133  14.701   2.449
72163SOL     OW18262  14.486   9.870   5.054
72163SOL    HW118263  14.415   9.887   5.115
72163SOL    HW218264  14.565   9.896   5.101
72164SOL     OW18265   4.754   7.686  12.817
72164SOL    HW118266   4.795   7.675  12.903
72164SOL    HW218267   4.782   7.610  12.767
72165SOL     OW18268  11.590   1.337   6.967
72165SOL    HW118269  11.516   1.378   6.923
72165SOL    HW218270  11.614   1.399   7.036
72166SOL     OW18271   3.682   2.274  11.111
72166SOL    HW118272   3.618   2.333  11.152
72166SOL    HW218273   3.635   2.191  11.103
72167SOL     OW18274  10.928   2.255   1.361
72167SOL    HW118275  10.988   2.308   1.310
72167SOL    HW218276  10.979   2.177   1.385
72168SOL     OW18277   2.278   5.238   4.798
72168SOL    HW118278   2.314   5.194   4.876
72168SOL    HW218279   2.193   5.271   4.827
72169SOL     OW18280  14.147   8.432   2.904
72169SOL    HW118281  14.075   8.494   2.917
72169SOL    HW218282  14.160   8.431   2.809
72170SOL     OW18283  14.562  13.801   3.000
72170SOL    HW118284  14.488  13.751   3.034
72170SOL    HW218285  14.569  13.876   3.060
72171SOL     OW18286   3.780   6.957  10.853
72171SOL    HW118287   3.776   6.862  10.867
72171SOL    HW218288   3.735   6.994  10.929
72172SOL     OW18289   7.771   2.930   5.668
72172SOL    HW118290   7.707   2.991   5.704
72172SOL    HW218291   7.731   2.899   5.587
72173SOL     OW18292  12.277   6.016  11.163
72173SOL    HW118293  12.293   5.941  11.106
72173SOL    HW218294  12.347   6.012  11.228
72174SOL     OW18295  13.313   6.892   0.115
72174SOL    HW118296  13.318   6.940   0.197
72174SOL    HW218297  13.222   6.864   0.108
72175SOL     OW18298   4.203  12.264   6.153
72175SOL    HW118299   4.123  12.259   6.206
72175SOL    HW218300   4.172  12.251   6.063
72176SOL     OW18301   0.843   0.570   3.064
72176SOL    HW118302   0.769   0.593   3.008
72176SOL    HW218303   0.920   0.585   3.009
72177SOL     OW18304  10.829  11.686  12.664
72177SOL    HW118305  10.776  11.639  12.600
72177SOL    HW218306  10.856  11.619  12.727
72178SOL     OW18307   6.398   4.059   6.269
72178SOL    HW118308   6.370   4.103   6.188
72178SOL    HW218309   6.428   4.131   6.325
72179SOL     OW18310   4.945   7.969   7.721
72179SOL    HW118311   5.004   7.906   7.679
72179SOL    HW218312   4.990   7.993   7.802
72180SOL     OW18313   6.031   2.554   2.256
72180SOL    HW118314   6.120   2.522   2.241
72180SOL    HW218315   6.031   2.585   2.346
72181SOL     OW18316   5.437  10.024  13.072
72181SOL    HW118317   5.524  10.058  13.050
72181SOL    HW218318   5.422   9.954  13.008
72182SOL     OW18319   0.430   3.672  12.004
72182SOL    HW118320   0.490   3.680  11.929
72182SOL    HW218321   0.481   3.704  12.078
72183SOL     OW18322  11.930   2.887   8.723
72183SOL    HW118323  11.974   2.845   8.649
72183SOL    HW218324  11.854   2.831   8.740
72184SOL     OW18325  13.433   0.266  13.337
72184SOL    HW118326  13.521   0.282  13.303
72184SOL    HW218327  13.387   0.349  13.324
72185SOL     OW18328   1.294   3.368   1.806
72185SOL    HW118329   1.297   3.388   1.713
72185SOL    HW218330   1.296   3.454   1.849
72186SOL     OW18331   4.445  11.189   8.269
72186SOL    HW118332   4.506  11.257   8.297
72186SOL    HW218333   4.369  11.238   8.237
72187SOL     OW18334   2.436   6.823   3.372
72187SOL    HW118335   2.528   6.847   3.357
72187SOL    HW218336   2.440   6.736   3.411
72188SOL     OW18337  14.150  10.870   7.815
72188SOL    HW118338  14.207  10.843   7.744
72188SOL    HW218339  14.144  10.793   7.872
72189SOL     OW18340   5.871  13.730   7.309
72189SOL    HW118341   5.862  13.655   7.249
72189SOL    HW218342   5.910  13.799   7.257
72190SOL     OW18343   2.935  11.316   2.409
72190SOL    HW118344   2.996  11.332   2.338
72190SOL    HW218345   2.981  11.347   2.488
72191SOL     OW18346   6.502  11.203  14.810
72191SOL    HW118347   6.476  11.149  14.735
72191SOL    HW218348   6.541  11.281  14.771
72192SOL     OW18349   6.888   1.956   9.698
72192SOL    HW118350   6.822   1.905   9.745
72192SOL    HW218351   6.927   2.012   9.765
72193SOL     OW18352   0.920   9.464  10.992
72193SOL    HW118353   0.859   9.499  11.057
72193SOL    HW218354   0.864   9.428  10.923
72194SOL     OW18355   8.974   8.092   0.208
72194SOL    HW118356   9.035   8.019   0.213
72194SOL    HW218357   8.993   8.133   0.123
72195SOL     OW18358  11.470  14.380  11.924
72195SOL    HW118359  11.564  14.397  11.926
72195SOL    HW218360  11.463  14.285  11.925
72196SOL     OW18361   8.362   8.950  14.570
72196SOL    HW118362   8.284   8.899  14.552
72196SOL    HW218363   8.413   8.896  14.630
72197SOL     OW18364  10.183  14.370  12.612
72197SOL    HW118365  10.211  14.426  12.684
72197SOL    HW218366  10.263  14.328  12.582
72198SOL     OW18367  10.475   0.139   2.418
72198SOL    HW118368  10.514   0.162   2.334
72198SOL    HW218369  10.409   0.207   2.433
72199SOL     OW18370  11.368   3.799   9.939
72199SOL    HW118371  11.398   3.868   9.881
72199SOL    HW218372  11.379   3.718   9.889
72200SOL     OW18373   8.797  13.713   0.263
72200SOL    HW118374   8.707  13.688   0.245
72200SOL    HW218375   8.799  13.807   0.248
72201SOL     OW18376   3.979   7.574   3.520
72201SOL    HW118377   3.992   7.642   3.454
72201SOL    HW218378   3.898   7.531   3.495
72202SOL     OW18379   0.132   5.763   5.735
72202SOL    HW118380   0.095   5.675   5.735
72202SOL    HW218381   0.193   5.764   5.809
72203SOL     OW18382  13.423   4.429  13.176
72203SOL    HW118383  13.432   4.474  13.092
72203SOL    HW218384  13.499   4.371  13.180
72204SOL     OW18385   8.417   3.076   6.804
72204SOL    HW118386   8.446   3.056   6.715
72204SOL    HW218387   8.328   3.042   6.809
72205SOL     OW18388   6.786  11.734   5.780
72205SOL    HW118389   6.751  11.804   5.726
72205SOL    HW218390   6.856  11.696   5.728
72206SOL     OW18391  11.156  14.412   0.782
72206SOL    HW118392  11.184  14.416   0.874
72206SOL    HW218393  11.122  14.323   0.772
72207SOL     OW18394   6.661  10.165  10.803
72207SOL    HW118395   6.609  10.145  10.880
72207SOL    HW218396   6.598  10.170  10.732
72208SOL     OW18397  11.575  13.566  10.274
72208SOL    HW118398  11.595  13.481  10.313
72208SOL    HW218399  11.627  13.628  10.326
72209SOL     OW18400  12.530   5.194   4.477
72209SOL    HW118401  12.521   5.197   4.382
72209SOL    HW218402  12.506   5.104   4.501
72210SOL     OW18403   3.335   8.591   2.571
72210SOL    HW118404   3.416   8.549   2.540
72210SOL    HW218405   3.355   8.618   2.661
72211SOL     OW18406   8.095  10.974   0.308
72211SOL    HW118407   8.141  10.893   0.331
72211SOL    HW218408   8.041  10.993   0.385
72212SOL     OW18409   9.271   0.712   6.990
72212SOL    HW118410   9.255   0.806   6.980
72212SOL    HW218411   9.192   0.679   7.033
72213SOL     OW18412   5.875   4.239   0.831
72213SOL    HW118413   5.923   4.181   0.771
72213SOL    HW218414   5.931   4.247   0.908
72214SOL     OW18415  11.610   8.156  14.125
72214SOL    HW118416  11.574   8.078  14.166
72214SOL    HW218417  11.699   8.162  14.158
72215SOL     OW18418   8.274   5.305   9.951
72215SOL    HW118419   8.198   5.359   9.974
72215SOL    HW218420   8.315   5.350   9.878
72216SOL     OW18421   9.706   9.075  13.685
72216SOL    HW118422   9.754   9.159  13.684
72216SOL    HW218423   9.698   9.050  13.593
72217SOL     OW18424   7.995   2.758  13.598
72217SOL    HW118425   7.915   2.729  13.553
72217SOL    HW218426   7.982   2.732  13.689
72218SOL     OW18427  10.772  11.074   4.108
72218SOL    HW118428  10.773  11.148   4.047
72218SOL    HW218429  10.736  11.002   4.057
72219SOL     OW18430   8.875   5.962  13.739
72219SOL    HW118431   8.906   6.047  13.708
72219SOL    HW218432   8.829   5.981  13.821
72220SOL     OW18433   6.543  14.351   9.176
72220SOL    HW118434   6.593  14.431   9.196
72220SOL    HW218435   6.498  14.330   9.258
72221SOL     OW18436   8.186  12.919  13.002
72221SOL    HW118437   8.224  12.947  12.919
72221SOL    HW218438   8.202  12.992  13.062
72222SOL     OW18439   0.665   8.960   2.954
72222SOL    HW118440   0.678   9.025   2.885
72222SOL    HW218441   0.689   8.877   2.914
72223SOL     OW18442   1.107  11.251  10.720
72223SOL    HW118443   1.097  11.230  10.627
72223SOL    HW218444   1.198  11.278  10.729
72224SOL     OW18445   1.015   9.390   5.576
72224SOL    HW118446   1.094   9.432   5.543
72224SOL    HW218447   0.949   9.459   5.576
72225SOL     OW18448   6.651  13.349  11.105
72225SOL    HW118449   6.586  13.295  11.060
72225SOL    HW218450   6.692  13.400  11.035
72226SOL     OW18451  10.032  12.036  14.015
72226SOL    HW118452  10.101  11.979  13.980
72226SOL    HW218453   9.971  11.976  14.057
72227SOL     OW18454   7.234   7.990   1.957
72227SOL    HW118455   7.306   7.942   1.916
72227SOL    HW218456   7.271   8.021   2.040
72228SOL     OW18457   7.943   1.572   8.523
72228SOL    HW118458   7.946   1.668   8.514
72228SOL    HW218459   7.853   1.548   8.500
72229SOL     OW18460   1.883   3.169   7.537
72229SOL    HW118461   1.938   3.094   7.516
72229SOL    HW218462   1.857   3.205   7.452
72230SOL     OW18463   3.475   8.605  14.553
72230SOL    HW118464   3.486   8.570  14.641
72230SOL    HW218465   3.553   8.575  14.506
72231SOL     OW18466   6.437   3.239  11.265
72231SOL    HW118467   6.528   3.218  11.283
72231SOL    HW218468   6.405   3.280  11.346
72232SOL     OW18469  11.149  10.969   6.116
72232SOL    HW118470  11.084  10.962   6.186
72232SOL    HW218471  11.178  10.879   6.102
72233SOL     OW18472  14.230   9.089   7.819
72233SOL    HW118473  14.271   9.121   7.900
72233SOL    HW218474  14.161   9.030   7.849
72234SOL     OW18475  14.315   0.653   8.846
72234SOL    HW118476  14.263   0.729   8.820
72234SOL    HW218477  14.362   0.628   8.766
72235SOL     OW18478   7.319  14.529   5.239
72235SOL    HW118479   7.294  14.450   5.192
72235SOL    HW218480   7.282  14.517   5.327
72236SOL     OW18481  13.117   6.355  13.690
72236SOL    HW118482  13.189   6.393  13.741
72236SOL    HW218483  13.086   6.282  13.743
72237SOL     OW18484   4.485   9.903   3.060
72237SOL    HW118485   4.548   9.903   2.989
72237SOL    HW218486   4.406   9.942   3.022
72238SOL     OW18487   0.690   6.775  10.988
72238SOL    HW118488   0.612   6.738  11.029
72238SOL    HW218489   0.734   6.822  11.059
72239SOL     OW18490   3.935  10.743   5.116
72239SOL    HW118491   3.918  10.694   5.036
72239SOL    HW218492   3.863  10.807   5.121
72240SOL     OW18493   0.616   6.183   0.082
72240SOL    HW118494   0.702   6.180   0.041
72240SOL    HW218495   0.609   6.098   0.127
72241SOL     OW18496   2.366  12.878   2.636
72241SOL    HW118497   2.271  12.875   2.633
72241SOL    HW218498   2.389  12.835   2.719
72242SOL     OW18499   3.666   8.231  10.828
72242SOL    HW118500   3.572   8.218  10.829
72242SOL    HW218501   3.698   8.173  10.758
72243SOL     OW18502   3.766   0.370   8.969
72243SOL    HW118503   3.696   0.347   9.030
72243SOL    HW218504   3.721   0.407   8.893
72244SOL     OW18505   9.905  13.913   4.460
72244SOL    HW118506   9.811  13.914   4.444
72244SOL    HW218507   9.937  13.996   4.424
72245SOL     OW18508   8.244  13.077   5.895
72245SOL    HW118509   8.332  13.094   5.863
72245SOL    HW218510   8.211  13.007   5.840
72246SOL     OW18511   0.082   5.930  12.063
72246SOL    HW118512   0.020   5.857  12.062
72246SOL    HW218513   0.134   5.918  11.984
72247SOL     OW18514   8.940   5.119  10.722
72247SOL    HW118515   8.882   5.138  10.649
72247SOL    HW218516   8.884   5.125  10.800
72248SOL     OW18517  13.303   9.352   7.958
72248SOL    HW118518  13.369   9.293   7.923
72248SOL    HW218519  13.225   9.298   7.970
72249SOL     OW18520   4.495   1.025   2.525
72249SOL    HW118521   4.508   1.007   2.618
72249SOL    HW218522   4.581   1.008   2.485
72250SOL     OW18523   6.917   4.161   2.236
72250SOL    HW118524   6.847   4.102   2.261
72250SOL    HW218525   6.977   4.160   2.311
72251SOL     OW18526   8.511   8.800  14.744
72251SOL    HW118527   8.493   8.733  14.809
72251SOL    HW218528   8.524   8.880  14.794
72252SOL     OW18529   5.070   7.966   3.733
72252SOL    HW118530   5.090   8.050   3.773
72252SOL    HW218531   5.155   7.931   3.706
72253SOL     OW18532  14.321  12.038   0.628
72253SOL    HW118533  14.378  12.113   0.645
72253SOL    HW218534  14.244  12.076   0.586
72254SOL     OW18535   0.910   6.014   9.334
72254SOL    HW118536   0.824   6.025   9.374
72254SOL    HW218537   0.969   5.997   9.408
72255SOL     OW18538   2.959  10.976   7.699
72255SOL    HW118539   2.942  10.882   7.701
72255SOL    HW218540   3.047  10.985   7.735
72256SOL     OW18541  12.815  13.869   5.369
72256SOL    HW118542  12.910  13.862   5.380
72256SOL    HW218543  12.790  13.787   5.327
72257SOL     OW18544   6.794   5.331   0.983
72257SOL    HW118545   6.806   5.374   1.068
72257SOL    HW218546   6.756   5.246   1.005
72258SOL     OW18547   2.674   7.431   6.267
72258SOL    HW118548   2.611   7.474   6.209
72258SOL    HW218549   2.705   7.356   6.216
72259SOL     OW18550   0.439  14.370  11.558
72259SOL    HW118551   0.437  14.428  11.481
72259SOL    HW218552   0.523  14.389  11.600
72260SOL     OW18553   1.115   2.985   7.842
72260SOL    HW118554   1.141   2.910   7.789
72260SOL    HW218555   1.058   3.036   7.784
72261SOL     OW18556   7.195   8.618   1.296
72261SOL    HW118557   7.194   8.666   1.379
72261SOL    HW218558   7.194   8.526   1.321
72262SOL     OW18559   4.347   5.790  10.283
72262SOL    HW118560   4.368   5.824  10.370
72262SOL    HW218561   4.410   5.832  10.225
72263SOL     OW18562   0.560  14.588  11.321
72263SOL    HW118563   0.506  14.610  11.398
72263SOL    HW218564   0.600  14.671  11.296
72264SOL     OW18565  13.134  10.994   5.768
72264SOL    HW118566  13.197  10.993   5.840
72264SOL    HW218567  13.069  11.059   5.795
72265SOL     OW18568  12.722   1.450  10.790
72265SOL    HW118569  12.720   1.357  10.811
72265SOL    HW218570  12.767   1.455  10.705
72266SOL     OW18571   8.423   2.848  10.197
72266SOL    HW118572   8.350   2.911  10.205
72266SOL    HW218573   8.385   2.764  10.223
72267SOL     OW18574   4.919  10.957   5.196
72267SOL    HW118575   4.938  10.926   5.107
72267SOL    HW218576   4.871  11.039   5.183
72268SOL     OW18577   6.756   4.888   0.284
72268SOL    HW118578   6.814   4.954   0.323
72268SOL    HW218579   6.729   4.927   0.200
72269SOL     OW18580  12.447   6.969   7.662
72269SOL    HW118581  12.399   6.926   7.591
72269SOL    HW218582  12.521   7.010   7.618
72270SOL     OW18583   2.801  13.139  12.873
72270SOL    HW118584   2.714  13.119  12.910
72270SOL    HW218585   2.824  13.061  12.823
72271SOL     OW18586   4.449   9.060  10.815
72271SOL    HW118587   4.368   9.106  10.791
72271SOL    HW218588   4.425   9.007  10.891
72272SOL     OW18589   3.575   1.973   4.824
72272SOL    HW118590   3.602   1.900   4.880
72272SOL    HW218591   3.654   2.027   4.815
72273SOL     OW18592   5.268   0.672  11.723
72273SOL    HW118593   5.190   0.630  11.686
72273SOL    HW218594   5.267   0.760  11.686
72274SOL     OW18595   5.962   5.993   8.254
72274SOL    HW118596   5.924   6.070   8.297
72274SOL    HW218597   6.043   5.976   8.302
72275SOL     OW18598   5.905   5.015   5.381
72275SOL    HW118599   5.837   5.077   5.357
72275SOL    HW218600   5.959   5.006   5.303
72276SOL     OW18601   0.991  11.584  12.830
72276SOL    HW118602   0.934  11.631  12.769
72276SOL    HW218603   1.080  11.606  12.801
72277SOL     OW18604   4.896   1.409   4.300
72277SOL    HW118605   4.807   1.416   4.336
72277SOL    HW218606   4.928   1.324   4.332
72278SOL     OW18607  10.003  13.457   1.823
72278SOL    HW118608  10.073  13.516   1.795
72278SOL    HW218609   9.986  13.403   1.746
72279SOL     OW18610   0.039   0.149   9.106
72279SOL    HW118611  14.837   0.098   9.117
72279SOL    HW218612   0.060   0.180   9.194
72280SOL     OW18613   8.596   9.380   0.694
72280SOL    HW118614   8.642   9.389   0.610
72280SOL    HW218615   8.539   9.457   0.698
72281SOL     OW18616  10.743   0.315   6.091
72281SOL    HW118617  10.736   0.407   6.065
72281SOL    HW218618  10.656   0.294   6.126
72282SOL     OW18619   2.647   8.472   5.831
72282SOL    HW118620   2.714   8.529   5.793
72282SOL    HW218621   2.696   8.408   5.883
72283SOL     OW18622   6.464   0.348   0.579
72283SOL    HW118623   6.541   0.293   0.564
72283SOL    HW218624   6.395   0.309   0.525
72284SOL     OW18625   1.120  14.125   9.563
72284SOL    HW118626   1.081  14.148   9.478
72284SOL    HW218627   1.058  14.064   9.602
72285SOL     OW18628   7.419  14.530   9.455
72285SOL    HW118629   7.389  14.489   9.375
72285SOL    HW218630   7.368  14.611   9.462
72286SOL     OW18631   8.924   4.812  11.205
72286SOL    HW118632   8.855   4.872  11.178
72286SOL    HW218633   8.988   4.867  11.250
72287SOL     OW18634  10.219   7.557  12.291
72287SOL    HW118635  10.304   7.588  12.260
72287SOL    HW218636  10.176   7.635  12.325
72288SOL     OW18637   0.488  12.389   6.594
72288SOL    HW118638   0.407  12.394   6.644
72288SOL    HW218639   0.554  12.431   6.649
72289SOL     OW18640  11.029   5.143   8.723
72289SOL    HW118641  11.012   5.117   8.814
72289SOL    HW218642  10.989   5.230   8.715
72290SOL     OW18643   1.441   0.022   3.819
72290SOL    HW118644   1.509  14.860   3.873
72290SOL    HW218645   1.458   0.116   3.824
72291SOL     OW18646   9.500  13.424  13.242
72291SOL    HW118647   9.508  13.393  13.152
72291SOL    HW218648   9.486  13.344  13.293
72292SOL     OW18649   9.569   5.404  12.477
72292SOL    HW118650   9.544   5.371  12.563
72292SOL    HW218651   9.665   5.395  12.475
72293SOL     OW18652   2.830  13.816   6.657
72293SOL    HW118653   2.861  13.826   6.747
72293SOL    HW218654   2.798  13.726   6.652
72294SOL     OW18655  13.663   6.532   4.178
72294SOL    HW118656  13.608   6.547   4.255
72294SOL    HW218657  13.705   6.448   4.194
72295SOL     OW18658   5.740   9.459   0.004
72295SOL    HW118659   5.672   9.404   0.044
72295SOL    HW218660   5.812   9.458   0.066
72296SOL     OW18661  10.895   0.128   9.623
72296SOL    HW118662  10.932   0.050   9.664
72296SOL    HW218663  10.956   0.198   9.644
72297SOL     OW18664  12.283   5.936   7.642
72297SOL    HW118665  12.308   5.879   7.715
72297SOL    HW218666  12.189   5.949   7.652
72298SOL     OW18667   2.649  14.256   4.057
72298SOL    HW118668   2.616  14.299   4.136
72298SOL    HW218669   2.733  14.299   4.040
72299SOL     OW18670   1.261  13.860  10.916
72299SOL    HW118671   1.201  13.921  10.873
72299SOL    HW218672   1.314  13.824  10.844
72300SOL     OW18673   6.450  10.561  13.441
72300SOL    HW118674   6.516  10.591  13.379
72300SOL    HW218675   6.484  10.478  13.475
72301SOL     OW18676   3.353   2.725   4.270
72301SOL    HW118677   3.299   2.655   4.234
72301SOL    HW218678   3.338   2.720   4.365
72302SOL     OW18679  13.980  12.976   7.623
72302SOL    HW118680  14.021  13.056   7.656
72302SOL    HW218681  14.015  12.907   7.679
72303SOL     OW18682   5.972   5.477  14.686
72303SOL    HW118683   5.945   5.495  14.776
72303SOL    HW218684   5.983   5.564  14.647
72304SOL     OW18685   7.621   6.663   4.366
72304SOL    HW118686   7.682   6.621   4.306
72304SOL    HW218687   7.646   6.631   4.452
72305SOL     OW18688   1.539   2.534   2.986
72305SOL    HW118689   1.518   2.580   3.067
72305SOL    HW218690   1.587   2.456   3.015
72306SOL     OW18691   8.486   9.543   8.479
72306SOL    HW118692   8.529   9.606   8.420
72306SOL    HW218693   8.400   9.529   8.440
72307SOL     OW18694  10.732  11.963   3.725
72307SOL    HW118695  10.701  12.048   3.694
72307SOL    HW218696  10.755  11.916   3.645
72308SOL     OW18697  14.746   3.777   9.272
72308SOL    HW118698  14.785   3.697   9.237
72308SOL    HW218699  14.657   3.753   9.295
72309SOL     OW18700   8.106   4.638   6.747
72309SOL    HW118701   8.086   4.725   6.714
72309SOL    HW218702   8.172   4.604   6.688
72310SOL     OW18703   1.505  12.000  10.100
72310SOL    HW118704   1.523  12.062  10.030
72310SOL    HW218705   1.569  12.022  10.168
72311SOL     OW18706   7.132   6.787   3.323
72311SOL    HW118707   7.094   6.704   3.295
72311SOL    HW218708   7.194   6.763   3.392
72312SOL     OW18709  11.352   2.050   1.935
72312SOL    HW118710  11.399   2.071   1.855
72312SOL    HW218711  11.274   2.106   1.932
72313SOL     OW18712   2.515   8.714   2.546
72313SOL    HW118713   2.450   8.758   2.491
72313SOL    HW218714   2.510   8.759   2.630
72314SOL     OW18715   2.111   1.345  11.372
72314SOL    HW118716   2.127   1.317  11.462
72314SOL    HW218717   2.077   1.434  11.380
72315SOL     OW18718   6.522  12.412   1.274
72315SOL    HW118719   6.574  12.331   1.281
72315SOL    HW218720   6.534  12.455   1.359
72316SOL     OW18721   2.927   4.886   6.161
72316SOL    HW118722   2.929   4.843   6.247
72316SOL    HW218723   2.834   4.899   6.143
72317SOL     OW18724   4.558   6.722   8.796
72317SOL    HW118725   4.537   6.725   8.889
72317SOL    HW218726   4.473   6.727   8.752
72318SOL     OW18727   3.503  13.438   9.756
72318SOL    HW118728   3.409  13.428   9.772
72318SOL    HW218729   3.543  13.423   9.842
72319SOL     OW18730   4.645   1.664   5.372
72319SOL    HW118731   4.556   1.696   5.360
72319SOL    HW218732   4.690   1.734   5.419
72320SOL     OW18733   6.823  10.402   7.141
72320SOL    HW118734   6.853  10.332   7.199
72320SOL    HW218735   6.772  10.357   7.074
72321SOL     OW18736   2.518   9.763   6.385
72321SOL    HW118737   2.583   9.716   6.331
72321SOL    HW218738   2.437   9.756   6.335
72322SOL     OW18739   1.659  10.279  14.082
72322SOL    HW118740   1.580  10.242  14.121
72322SOL    HW218741   1.689  10.344  14.146
72323SOL     OW18742  13.491   8.014   5.520
72323SOL    HW118743  13.399   7.994   5.499
72323SOL    HW218744  13.485   8.088   5.581
72324SOL     OW18745   9.020  10.877   3.726
72324SOL    HW118746   9.003  10.811   3.794
72324SOL    HW218747   9.087  10.934   3.764
72325SOL     OW18748  10.679  14.246  11.334
72325SOL    HW118749  10.669  14.270  11.427
72325SOL    HW218750  10.642  14.320  11.286
72326SOL     OW18751   4.855   7.797   9.863
72326SOL    HW118752   4.776   7.852   9.866
72326SOL    HW218753   4.902   7.818   9.944
72327SOL     OW18754  11.662  10.724   9.977
72327SOL    HW118755  11.666  10.638  10.018
72327SOL    HW218756  11.749  10.761   9.988
72328SOL     OW18757   3.422   2.725   9.582
72328SOL    HW118758   3.326   2.732   9.574
72328SOL    HW218759   3.447   2.665   9.512
72329SOL     OW18760  14.700  14.275   2.147
72329SOL    HW118761  14.774  14.305   2.095
72329SOL    HW218762  14.684  14.185   2.116
72330SOL     OW18763   2.229   1.567   2.885
72330SOL    HW118764   2.288   1.636   2.854
72330SOL    HW218765   2.187   1.605   2.962
72331SOL     OW18766  10.105  14.224   7.286
72331SOL    HW118767  10.176  14.172   7.323
72331SOL    HW218768  10.031  14.209   7.346
72332SOL     OW18769   4.898  11.570   9.450
72332SOL    HW118770   4.834  11.498   9.449
72332SOL    HW218771   4.955  11.552   9.376
72333SOL     OW18772  11.514   6.551   7.792
72333SOL    HW118773  11.470   6.485   7.739
72333SOL    HW218774  11.550   6.613   7.728
72334SOL     OW18775  10.504   2.204   1.079
72334SOL    HW118776  10.577   2.266   1.070
72334SOL    HW218777  10.523   2.158   1.160
72335SOL     OW18778  12.099  10.048   9.472
72335SOL    HW118779  12.170  10.105   9.442
72335SOL    HW218780  12.067  10.005   9.393
72336SOL     OW18781   4.041   9.378   6.268
72336SOL    HW118782   4.065   9.293   6.305
72336SOL    HW218783   4.125   9.421   6.250
72337SOL     OW18784  11.044   5.541   2.350
72337SOL    HW118785  11.079   5.497   2.272
72337SOL    HW218786  11.119   5.546   2.409
72338SOL     OW18787   7.834   2.441   3.654
72338SOL    HW118788   7.872   2.462   3.739
72338SOL    HW218789   7.886   2.367   3.623
72339SOL     OW18790   6.493   0.525   9.559
72339SOL    HW118791   6.476   0.468   9.635
72339SOL    HW218792   6.540   0.469   9.497
72340SOL     OW18793   4.342   3.397   8.374
72340SOL    HW118794   4.324   3.343   8.298
72340SOL    HW218795   4.261   3.394   8.425
72341SOL     OW18796   6.085  14.204   6.693
72341SOL    HW118797   6.070  14.109   6.699
72341SOL    HW218798   6.152  14.221   6.759
72342SOL     OW18799   7.989   2.464  10.288
72342SOL    HW118800   7.900   2.489  10.315
72342SOL    HW218801   8.023   2.414  10.363
72343SOL     OW18802   8.167   4.886   0.959
72343SOL    HW118803   8.072   4.886   0.949
72343SOL    HW218804   8.185   4.954   1.024
72344SOL     OW18805   2.650   8.318   1.970
72344SOL    HW118806   2.662   8.318   2.065
72344SOL    HW218807   2.677   8.406   1.943
72345SOL     OW18808  10.273   4.376   8.328
72345SOL    HW118809  10.220   4.324   8.388
72345SOL    HW218810  10.307   4.447   8.382
72346SOL     OW18811   2.525   4.169   2.091
72346SOL    HW118812   2.550   4.081   2.062
72346SOL    HW218813   2.509   4.160   2.185
72347SOL     OW18814   4.490  14.107  12.480
72347SOL    HW118815   4.452  14.185  12.519
72347SOL    HW218816   4.519  14.054  12.554
72348SOL     OW18817   3.392   6.557   8.180
72348SOL    HW118818   3.383   6.540   8.274
72348SOL    HW218819   3.487   6.549   8.164
72349SOL     OW18820   3.759  14.298   3.454
72349SOL    HW118821   3.815  14.359   3.502
72349SOL    HW218822   3.820  14.242   3.406
72350SOL     OW18823  10.239  11.586   8.771
72350SOL    HW118824  10.187  11.542   8.838
72350SOL    HW218825  10.326  11.548   8.779
72351SOL     OW18826   5.006   9.661   0.237
72351SOL    HW118827   4.941   9.640   0.170
72351SOL    HW218828   5.090   9.656   0.191
72352SOL     OW18829   5.387   5.422   3.006
72352SOL    HW118830   5.428   5.508   2.992
72352SOL    HW218831   5.368   5.421   3.100
72353SOL     OW18832   6.179   1.695   6.935
72353SOL    HW118833   6.160   1.789   6.939
72353SOL    HW218834   6.099   1.654   6.971
72354SOL     OW18835   1.704  14.527   9.873
72354SOL    HW118836   1.746  14.612   9.861
72354SOL    HW218837   1.765  14.463   9.837
72355SOL     OW18838  12.256  10.167   1.016
72355SOL    HW118839  12.289  10.257   1.025
72355SOL    HW218840  12.306  10.131   0.943
72356SOL     OW18841  11.545  10.548   8.737
72356SOL    HW118842  11.546  10.590   8.823
72356SOL    HW218843  11.630  10.571   8.699
72357SOL     OW18844  12.152   9.108   2.490
72357SOL    HW118845  12.162   9.071   2.403
72357SOL    HW218846  12.089   9.179   2.479
72358SOL     OW18847   5.928  11.310  11.953
72358SOL    HW118848   5.936  11.227  12.001
72358SOL    HW218849   5.938  11.285  11.861
72359SOL     OW18850   7.331   2.960  14.389
72359SOL    HW118851   7.334   3.049  14.424
72359SOL    HW218852   7.423   2.931  14.389
72360SOL     OW18853   5.499   7.593  10.554
72360SOL    HW118854   5.519   7.586  10.461
72360SOL    HW218855   5.406   7.572  10.561
72361SOL     OW18856  13.816   7.769   4.570
72361SOL    HW118857  13.768   7.851   4.587
72361SOL    HW218858  13.907   7.791   4.588
72362SOL     OW18859   3.910  12.968  11.771
72362SOL    HW118860   3.880  13.006  11.854
72362SOL    HW218861   3.830  12.952  11.722
72363SOL     OW18862   1.619   5.969  13.433
72363SOL    HW118863   1.615   6.055  13.475
72363SOL    HW218864   1.558   5.976  13.359
72364SOL     OW18865   1.876   2.009   8.455
72364SOL    HW118866   1.920   1.931   8.488
72364SOL    HW218867   1.934   2.042   8.386
72365SOL     OW18868  10.269   5.852   2.826
72365SOL    HW118869  10.329   5.784   2.795
72365SOL    HW218870  10.317   5.934   2.815
72366SOL     OW18871   6.727   9.051   2.039
72366SOL    HW118872   6.651   9.048   1.982
72366SOL    HW218873   6.725   9.139   2.077
72367SOL     OW18874  14.075  14.565  14.235
72367SOL    HW118875  13.988  14.525  14.242
72367SOL    HW218876  14.083  14.619  14.313
72368SOL     OW18877   5.158  14.194   1.854
72368SOL    HW118878   5.063  14.210   1.856
72368SOL    HW218879   5.174  14.160   1.766
72369SOL     OW18880   9.493  12.672   9.426
72369SOL    HW118881   9.450  12.709   9.350
72369SOL    HW218882   9.587  12.678   9.405
72370SOL     OW18883  10.246   6.358   3.838
72370SOL    HW118884  10.249   6.453   3.828
72370SOL    HW218885  10.293   6.324   3.762
72371SOL     OW18886   6.818   6.214   4.823
72371SOL    HW118887   6.891   6.153   4.831
72371SOL    HW218888   6.753   6.181   4.884
72372SOL     OW18889   3.171   9.425   2.402
72372SOL    HW118890   3.148   9.416   2.310
72372SOL    HW218891   3.262   9.453   2.402
72373SOL     OW18892   6.778   6.489   8.788
72373SOL    HW118893   6.767   6.550   8.715
72373SOL    HW218894   6.793   6.544   8.864
72374SOL     OW18895  13.345   0.840   2.047
72374SOL    HW118896  13.301   0.870   1.968
72374SOL    HW218897  13.426   0.801   2.017
72375SOL     OW18898  14.152   3.469   3.627
72375SOL    HW118899  14.097   3.531   3.675
72375SOL    HW218900  14.093   3.433   3.560
72376SOL     OW18901   3.016  10.804  11.536
72376SOL    HW118902   3.079  10.873  11.517
72376SOL    HW218903   2.939  10.827  11.485
72377SOL     OW18904   5.055  14.121   7.384
72377SOL    HW118905   4.966  14.100   7.356
72377SOL    HW218906   5.073  14.207   7.346
72378SOL     OW18907   6.732   9.943   9.777
72378SOL    HW118908   6.810   9.893   9.754
72378SOL    HW218909   6.708   9.911   9.864
72379SOL     OW18910  11.667   2.611   8.018
72379SOL    HW118911  11.643   2.650   8.103
72379SOL    HW218912  11.586   2.571   7.987
72380SOL     OW18913  10.412   9.119  10.912
72380SOL    HW118914  10.419   9.024  10.908
72380SOL    HW218915  10.387   9.145  10.823
72381SOL     OW18916   0.961  10.741   2.755
72381SOL    HW118917   1.006  10.739   2.839
72381SOL    HW218918   0.940  10.649   2.737
72382SOL     OW18919   1.403  10.687   7.613
72382SOL    HW118920   1.408  10.628   7.688
72382SOL    HW218921   1.442  10.769   7.644
72383SOL     OW18922   6.373   3.021   3.282
72383SOL    HW118923   6.374   2.969   3.202
72383SOL    HW218924   6.284   3.054   3.289
72384SOL     OW18925  14.756   3.603   7.281
72384SOL    HW118926  14.801   3.670   7.331
72384SOL    HW218927  14.716   3.546   7.347
72385SOL     OW18928   0.696   9.759   4.496
72385SOL    HW118929   0.726   9.846   4.523
72385SOL    HW218930   0.776   9.710   4.478
72386SOL     OW18931  12.361   9.296   7.066
72386SOL    HW118932  12.302   9.371   7.058
72386SOL    HW218933  12.359   9.275   7.160
72387SOL     OW18934   6.130   4.788   6.461
72387SOL    HW118935   6.057   4.833   6.504
72387SOL    HW218936   6.089   4.742   6.388
72388SOL     OW18937  11.289   1.659   1.793
72388SOL    HW118938  11.332   1.577   1.819
72388SOL    HW218939  11.317   1.723   1.858
72389SOL     OW18940  10.492   8.163   9.184
72389SOL    HW118941  10.483   8.071   9.159
72389SOL    HW218942  10.467   8.211   9.105
72390SOL     OW18943   5.273  11.135  13.523
72390SOL    HW118944   5.259  11.194  13.449
72390SOL    HW218945   5.189  11.134  13.569
72391SOL     OW18946   4.671   3.056   5.582
72391SOL    HW118947   4.748   3.110   5.597
72391SOL    HW218948   4.687   2.977   5.634
72392SOL     OW18949   2.611   0.320  10.691
72392SOL    HW118950   2.548   0.250  10.672
72392SOL    HW218951   2.578   0.396  10.642
72393SOL     OW18952  10.328   4.497   4.056
72393SOL    HW118953  10.262   4.523   3.992
72393SOL    HW218954  10.412   4.519   4.015
72394SOL     OW18955   3.871   2.257   9.903
72394SOL    HW118956   3.963   2.244   9.881
72394SOL    HW218957   3.872   2.280   9.996
72395SOL     OW18958   3.830   4.854   3.901
72395SOL    HW118959   3.753   4.828   3.951
72395SOL    HW218960   3.866   4.928   3.951
72396SOL     OW18961  12.800  12.338   7.972
72396SOL    HW118962  12.882  12.348   8.020
72396SOL    HW218963  12.822  12.283   7.897
72397SOL     OW18964   6.986   1.376   3.836
72397SOL    HW118965   7.080   1.362   3.823
72397SOL    HW218966   6.980   1.418   3.922
72398SOL     OW18967  13.826  10.878  12.452
72398SOL    HW118968  13.780  10.806  12.495
72398SOL    HW218969  13.913  10.879  12.493
72399SOL     OW18970   7.716   9.969  13.878
72399SOL    HW118971   7.624   9.973  13.905
72399SOL    HW218972   7.740   9.877  13.888
72400SOL     OW18973   8.787   3.073   6.465
72400SOL    HW118974   8.800   3.029   6.381
72400SOL    HW218975   8.806   3.005   6.530
72401SOL     OW18976   2.094   5.532  11.335
72401SOL    HW118977   2.039   5.595  11.290
72401SOL    HW218978   2.033   5.469  11.373
72402SOL     OW18979   5.641   2.596   0.411
72402SOL    HW118980   5.577   2.525   0.401
72402SOL    HW218981   5.614   2.661   0.346
72403SOL     OW18982  10.810   3.240  10.503
72403SOL    HW118983  10.872   3.295  10.456
72403SOL    HW218984  10.862   3.198  10.571
72404SOL     OW18985   1.310   6.825   2.199
72404SOL    HW118986   1.326   6.904   2.251
72404SOL    HW218987   1.221   6.834   2.168
72405SOL     OW18988   3.836   8.168  11.384
72405SOL    HW118989   3.906   8.216  11.428
72405SOL    HW218990   3.817   8.094  11.442
72406SOL     OW18991   8.913   8.803   7.701
72406SOL    HW118992   8.828   8.834   7.732
72406SOL    HW218993   8.951   8.756   7.775
72407SOL     OW18994   9.105   4.212   7.794
72407SOL    HW118995   9.054   4.152   7.848
72407SOL    HW218996   9.048   4.288   7.781
72408SOL     OW18997   2.827  12.548   8.544
72408SOL    HW118998   2.865  12.461   8.533
72408SOL    HW218999   2.745  12.545   8.494
72409SOL     OW19000  12.506   4.693   7.118
72409SOL    HW119001  12.526   4.739   7.199
72409SOL    HW219002  12.481   4.605   7.145
72410SOL     OW19003  12.361   0.546  10.140
72410SOL    HW119004  12.358   0.597  10.060
72410SOL    HW219005  12.316   0.464  10.118
72411SOL     OW19006   9.186   2.420   5.035
72411SOL    HW119007   9.169   2.512   5.012
72411SOL    HW219008   9.281   2.417   5.050
72412SOL     OW19009   4.411   2.734  12.382
72412SOL    HW119010   4.412   2.828  12.398
72412SOL    HW219011   4.414   2.694  12.469
72413SOL     OW19012   1.105   4.242   0.878
72413SOL    HW119013   1.049   4.302   0.928
72413SOL    HW219014   1.083   4.259   0.787
72414SOL     OW19015  10.651   4.372   0.267
72414SOL    HW119016  10.642   4.428   0.190
72414SOL    HW219017  10.678   4.287   0.233
72415SOL     OW19018  11.715   5.891  11.744
72415SOL    HW119019  11.731   5.977  11.706
72415SOL    HW219020  11.620   5.888  11.758
72416SOL     OW19021   4.851   5.051   0.907
72416SOL    HW119022   4.756   5.055   0.914
72416SOL    HW219023   4.881   5.137   0.936
72417SOL     OW19024   2.707  11.961  13.735
72417SOL    HW119025   2.644  11.891  13.720
72417SOL    HW219026   2.674  12.008  13.811
72418SOL     OW19027   4.274   2.365   0.905
72418SOL    HW119028   4.264   2.386   0.812
72418SOL    HW219029   4.292   2.450   0.946
72419SOL     OW19030   5.394   1.146  10.317
72419SOL    HW119031   5.410   1.207  10.389
72419SOL    HW219032   5.466   1.084  10.323
72420SOL     OW19033  13.877   7.865  10.347
72420SOL    HW119034  13.925   7.926  10.291
72420SOL    HW219035  13.917   7.874  10.433
72421SOL     OW19036  11.372  14.803  13.349
72421SOL    HW119037  11.369   0.016  13.377
72421SOL    HW219038  11.449  14.766  13.393
72422SOL     OW19039  10.632   4.748   5.167
72422SOL    HW119040  10.622   4.685   5.237
72422SOL    HW219041  10.620   4.833   5.209
72423SOL     OW19042  11.850   8.169   8.190
72423SOL    HW119043  11.780   8.105   8.180
72423SOL    HW219044  11.930   8.122   8.165
72424SOL     OW19045   8.250   5.377  12.362
72424SOL    HW119046   8.332   5.423  12.382
72424SOL    HW219047   8.183   5.445  12.361
72425SOL     OW19048   8.334   1.545  12.192
72425SOL    HW119049   8.385   1.484  12.245
72425SOL    HW219050   8.297   1.492  12.122
72426SOL     OW19051  11.518   9.832   7.639
72426SOL    HW119052  11.473   9.879   7.709
72426SOL    HW219053  11.586   9.782   7.683
72427SOL     OW19054  12.809   7.852   9.104
72427SOL    HW119055  12.888   7.903   9.088
72427SOL    HW219056  12.760   7.904   9.168
72428SOL     OW19057  14.105  13.366  11.064
72428SOL    HW119058  14.131  13.434  11.003
72428SOL    HW219059  14.104  13.409  11.150
72429SOL     OW19060   6.023  12.645   2.457
72429SOL    HW119061   6.050  12.679   2.542
72429SOL    HW219062   6.067  12.701   2.393
72430SOL     OW19063  10.253   5.796   3.528
72430SOL    HW119064  10.290   5.879   3.497
72430SOL    HW219065  10.218   5.816   3.615
72431SOL     OW19066   8.127   4.419   2.301
72431SOL    HW119067   8.055   4.372   2.342
72431SOL    HW219068   8.131   4.502   2.348
72432SOL     OW19069   8.523   7.600   8.880
72432SOL    HW119070   8.615   7.612   8.903
72432SOL    HW219071   8.522   7.593   8.785
72433SOL     OW19072   8.650  14.102   2.892
72433SOL    HW119073   8.722  14.055   2.934
72433SOL    HW219074   8.693  14.163   2.833
72434SOL     OW19075  14.398   5.177  11.696
72434SOL    HW119076  14.384   5.128  11.615
72434SOL    HW219077  14.310   5.196  11.729
72435SOL     OW19078   2.584  13.434   5.476
72435SOL    HW119079   2.498  13.431   5.433
72435SOL    HW219080   2.644  13.463   5.407
72436SOL     OW19081   9.805  12.462   5.102
72436SOL    HW119082   9.857  12.407   5.161
72436SOL    HW219083   9.864  12.533   5.077
72437SOL     OW19084   0.903   8.784   3.391
72437SOL    HW119085   0.859   8.832   3.321
72437SOL    HW219086   0.960   8.849   3.433
72438SOL     OW19087  10.380   4.662   6.563
72438SOL    HW119088  10.411   4.571   6.569
72438SOL    HW219089  10.387   4.684   6.470
72439SOL     OW19090   4.979  10.046   9.957
72439SOL    HW119091   5.074  10.049   9.971
72439SOL    HW219092   4.960  10.126   9.908
72440SOL     OW19093   0.781  11.727   3.647
72440SOL    HW119094   0.862  11.771   3.675
72440SOL    HW219095   0.768  11.658   3.711
72441SOL     OW19096  14.703   2.897   7.363
72441SOL    HW119097  14.743   2.901   7.276
72441SOL    HW219098  14.764   2.844   7.414
72442SOL     OW19099   9.612  12.618   7.574
72442SOL    HW119100   9.622  12.526   7.550
72442SOL    HW219101   9.599  12.617   7.669
72443SOL     OW19102   3.561  11.085   6.109
72443SOL    HW119103   3.467  11.103   6.109
72443SOL    HW219104   3.570  11.002   6.063
72444SOL     OW19105   9.489   0.067  14.210
72444SOL    HW119106   9.395   0.076  14.226
72444SOL    HW219107   9.495  14.877  14.143
72445SOL     OW19108   5.522   7.631   5.958
72445SOL    HW119109   5.439   7.665   5.990
72445SOL    HW219110   5.583   7.704   5.967
72446SOL     OW19111   8.099   4.077   9.718
72446SOL    HW119112   8.003   4.072   9.708
72446SOL    HW219113   8.132   4.078   9.628
72447SOL     OW19114   2.290  13.117   8.593
72447SOL    HW119115   2.283  13.206   8.559
72447SOL    HW219116   2.340  13.127   8.674
72448SOL     OW19117   6.980   4.916   9.689
72448SOL    HW119118   6.964   5.007   9.664
72448SOL    HW219119   7.003   4.872   9.607
72449SOL     OW19120  14.043   3.517   0.677
72449SOL    HW119121  13.989   3.596   0.677
72449SOL    HW219122  13.981   3.445   0.690
72450SOL     OW19123   8.904   0.840   7.491
72450SOL    HW119124   8.938   0.868   7.406
72450SOL    HW219125   8.859   0.918   7.525
72451SOL     OW19126  12.864   6.309   0.962
72451SOL    HW119127  12.830   6.313   1.051
72451SOL    HW219128  12.791   6.335   0.907
72452SOL     OW19129   2.884   7.509   9.761
72452SOL    HW119130   2.956   7.541   9.706
72452SOL    HW219131   2.827   7.461   9.701
72453SOL     OW19132   2.804  10.195   4.510
72453SOL    HW119133   2.883  10.249   4.514
72453SOL    HW219134   2.824  10.129   4.444
72454SOL     OW19135   8.456   3.736   5.984
72454SOL    HW119136   8.429   3.700   6.068
72454SOL    HW219137   8.533   3.686   5.960
72455SOL     OW19138   4.136  11.344  13.049
72455SOL    HW119139   4.041  11.356  13.054
72455SOL    HW219140   4.171  11.431  13.069
72456SOL     OW19141  11.010   5.303  12.040
72456SOL    HW119142  11.028   5.338  12.127
72456SOL    HW219143  11.062   5.357  11.980
72457SOL     OW19144   1.035   3.716   3.242
72457SOL    HW119145   1.047   3.646   3.178
72457SOL    HW219146   1.114   3.770   3.234
72458SOL     OW19147   4.818   3.995   3.145
72458SOL    HW119148   4.734   4.024   3.109
72458SOL    HW219149   4.877   3.989   3.070
72459SOL     OW19150   0.457   1.723   7.792
72459SOL    HW119151   0.494   1.638   7.771
72459SOL    HW219152   0.489   1.741   7.881
72460SOL     OW19153   9.144  10.894   0.256
72460SOL    HW119154   9.226  10.846   0.259
72460SOL    HW219155   9.134  10.932   0.343
72461SOL     OW19156   2.690  13.826   0.516
72461SOL    HW119157   2.726  13.740   0.541
72461SOL    HW219158   2.767  13.880   0.501
72462SOL     OW19159  13.089   0.048  10.880
72462SOL    HW119160  13.107  14.836  10.907
72462SOL    HW219161  13.175   0.090  10.876
72463SOL     OW19162  10.212  10.256   6.298
72463SOL    HW119163  10.171  10.267   6.213
72463SOL    HW219164  10.214  10.161   6.311
72464SOL     OW19165   7.897   1.164   6.263
72464SOL    HW119166   7.810   1.200   6.246
72464SOL    HW219167   7.880   1.078   6.302
72465SOL     OW19168  11.073   3.088  13.159
72465SOL    HW119169  11.088   3.010  13.106
72465SOL    HW219170  10.980   3.085  13.182
72466SOL     OW19171   1.264   4.413   6.787
72466SOL    HW119172   1.292   4.498   6.754
72466SOL    HW219173   1.186   4.432   6.841
72467SOL     OW19174  11.362   1.973   6.896
72467SOL    HW119175  11.311   2.022   6.832
72467SOL    HW219176  11.359   2.028   6.975
72468SOL     OW19177   0.480  12.831  14.572
72468SOL    HW119178   0.453  12.881  14.495
72468SOL    HW219179   0.458  12.740  14.551
72469SOL     OW19180   4.771   5.058   2.896
72469SOL    HW119181   4.859   5.082   2.923
72469SOL    HW219182   4.784   4.986   2.834
72470SOL     OW19183   7.279   9.393   3.363
72470SOL    HW119184   7.326   9.476   3.375
72470SOL    HW219185   7.207   9.415   3.303
72471SOL     OW19186   8.704   8.655   0.936
72471SOL    HW119187   8.618   8.615   0.948
72471SOL    HW219188   8.686   8.745   0.909
72472SOL     OW19189  12.289  14.686   2.046
72472SOL    HW119190  12.211  14.631   2.050
72472SOL    HW219191  12.334  14.671   2.129
72473SOL     OW19192   3.167  10.242   5.561
72473SOL    HW119193   3.085  10.194   5.569
72473SOL    HW219194   3.164  10.306   5.632
72474SOL     OW19195   0.091   4.763   3.267
72474SOL    HW119196   0.183   4.778   3.245
72474SOL    HW219197   0.065   4.687   3.215
72475SOL     OW19198   4.625   4.447   2.925
72475SOL    HW119199   4.592   4.402   3.002
72475SOL    HW219200   4.571   4.415   2.853
72476SOL     OW19201   5.767   5.508  10.755
72476SOL    HW119202   5.835   5.450  10.720
72476SOL    HW219203   5.698   5.448  10.785
72477SOL     OW19204   7.947   7.088   7.814
72477SOL    HW119205   7.973   7.098   7.906
72477SOL    HW219206   8.001   7.151   7.767
72478SOL     OW19207   2.347   2.377  11.084
72478SOL    HW119208   2.417   2.438  11.105
72478SOL    HW219209   2.375   2.294  11.121
72479SOL     OW19210  13.143   1.540   6.190
72479SOL    HW119211  13.160   1.634   6.196
72479SOL    HW219212  13.108   1.528   6.102
72480SOL     OW19213   8.653  13.346   7.678
72480SOL    HW119214   8.666  13.431   7.720
72480SOL    HW219215   8.623  13.288   7.748
72481SOL     OW19216  13.254   7.620   4.185
72481SOL    HW119217  13.323   7.671   4.228
72481SOL    HW219218  13.258   7.534   4.227
72482SOL     OW19219   8.201  10.388   2.241
72482SOL    HW119220   8.244  10.337   2.310
72482SOL    HW219221   8.134  10.330   2.206
72483SOL     OW19222   7.087   4.650  12.798
72483SOL    HW119223   7.001   4.684  12.823
72483SOL    HW219224   7.110   4.589  12.868
72484SOL     OW19225   1.486  13.380  10.952
72484SOL    HW119226   1.469  13.293  10.988
72484SOL    HW219227   1.468  13.440  11.024
72485SOL     OW19228   0.734   1.421   1.026
72485SOL    HW119229   0.812   1.476   1.025
72485SOL    HW219230   0.725   1.395   1.118
72486SOL     OW19231   1.426  11.606  13.115
72486SOL    HW119232   1.384  11.685  13.150
72486SOL    HW219233   1.455  11.558  13.193
72487SOL     OW19234   1.852  13.669  12.600
72487SOL    HW119235   1.903  13.728  12.656
72487SOL    HW219236   1.763  13.703  12.605
72488SOL     OW19237   1.305   4.723   4.579
72488SOL    HW119238   1.279   4.719   4.487
72488SOL    HW219239   1.281   4.638   4.615
72489SOL     OW19240  13.965   8.236   2.677
72489SOL    HW119241  13.964   8.187   2.760
72489SOL    HW219242  14.054   8.271   2.670
72490SOL     OW19243   7.527  11.478   7.830
72490SOL    HW119244   7.516  11.402   7.772
72490SOL    HW219245   7.438  11.503   7.854
72491SOL     OW19246   0.635  13.085   3.721
72491SOL    HW119247   0.595  13.168   3.695
72491SOL    HW219248   0.568  13.041   3.774
72492SOL     OW19249  10.395  10.149  14.418
72492SOL    HW119250  10.359  10.084  14.479
72492SOL    HW219251  10.489  10.145  14.433
72493SOL     OW19252   9.352   8.390  14.478
72493SOL    HW119253   9.388   8.340  14.405
72493SOL    HW219254   9.402   8.362  14.554
72494SOL     OW19255  14.551  12.295  12.728
72494SOL    HW119256  14.611  12.264  12.659
72494SOL    HW219257  14.562  12.390  12.727
72495SOL     OW19258  11.991  11.107   5.519
72495SOL    HW119259  11.958  11.018   5.513
72495SOL    HW219260  11.920  11.161   5.483
72496SOL     OW19261   5.727  11.570  14.765
72496SOL    HW119262   5.695  11.481  14.751
72496SOL    HW219263   5.654  11.626  14.737
72497SOL     OW19264   2.697   7.124   5.422
72497SOL    HW119265   2.629   7.077   5.373
72497SOL    HW219266   2.684   7.216   5.399
72498SOL     OW19267   6.307   2.839  10.024
72498SOL    HW119268   6.285   2.921   9.979
72498SOL    HW219269   6.384   2.860  10.076
72499SOL     OW19270  10.686   6.646   9.625
72499SOL    HW119271  10.729   6.605   9.700
72499SOL    HW219272  10.726   6.605   9.549
72500SOL     OW19273   7.812   5.953   4.143
72500SOL    HW119274   7.741   5.903   4.181
72500SOL    HW219275   7.857   5.892   4.085
72501SOL     OW19276   7.812  14.241  10.891
72501SOL    HW119277   7.765  14.202  10.964
72501SOL    HW219278   7.823  14.333  10.916
72502SOL     OW19279   8.497   1.114   3.311
72502SOL    HW119280   8.490   1.210   3.309
72502SOL    HW219281   8.450   1.085   3.233
72503SOL     OW19282   8.230   3.913  14.442
72503SOL    HW119283   8.139   3.908  14.473
72503SOL    HW219284   8.241   4.005  14.417
72504SOL     OW19285   9.461   5.741   9.951
72504SOL    HW119286   9.392   5.683   9.981
72504SOL    HW219287   9.530   5.682   9.919
72505SOL     OW19288   4.599   4.757   6.363
72505SOL    HW119289   4.664   4.823   6.383
72505SOL    HW219290   4.649   4.683   6.329
72506SOL     OW19291   7.997  10.823  13.653
72506SOL    HW119292   8.026  10.749  13.600
72506SOL    HW219293   7.939  10.785  13.719
72507SOL     OW19294   2.039   0.092   9.830
72507SOL    HW119295   2.054   0.181   9.797
72507SOL    HW219296   2.040   0.037   9.752
72508SOL     OW19297   6.400  14.421   7.778
72508SOL    HW119298   6.338  14.453   7.844
72508SOL    HW219299   6.453  14.497   7.756
72509SOL     OW19300   7.117  12.002   3.307
72509SOL    HW119301   7.194  11.965   3.263
72509SOL    HW219302   7.043  11.950   3.274
72510SOL     OW19303   7.216  10.152   9.657
72510SOL    HW119304   7.309  10.168   9.672
72510SOL    HW219305   7.186  10.106   9.736
72511SOL     OW19306  10.433  12.511   0.252
72511SOL    HW119307  10.395  12.438   0.203
72511SOL    HW219308  10.509  12.537   0.201
72512SOL     OW19309   2.399  10.573  12.634
72512SOL    HW119310   2.365  10.662  12.634
72512SOL    HW219311   2.494  10.584  12.632
72513SOL     OW19312   0.069   6.612   5.042
72513SOL    HW119313   0.084   6.518   5.052
72513SOL    HW219314  14.871   6.631   5.097
72514SOL     OW19315   4.930   7.368   1.018
72514SOL    HW119316   5.021   7.384   1.043
72514SOL    HW219317   4.934   7.354   0.923
72515SOL     OW19318  11.783  13.832   5.867
72515SOL    HW119319  11.773  13.789   5.951
72515SOL    HW219320  11.860  13.888   5.877
72516SOL     OW19321  10.598   6.523  13.075
72516SOL    HW119322  10.606   6.463  13.149
72516SOL    HW219323  10.665   6.494  13.013
72517SOL     OW19324   9.835   3.265  10.751
72517SOL    HW119325   9.849   3.284  10.658
72517SOL    HW219326   9.755   3.314  10.773
72518SOL     OW19327   0.871   0.905   2.744
72518SOL    HW119328   0.790   0.930   2.789
72518SOL    HW219329   0.855   0.926   2.652
72519SOL     OW19330  12.013  10.056  13.750
72519SOL    HW119331  12.014  10.040  13.844
72519SOL    HW219332  11.921  10.052  13.726
72520SOL     OW19333   9.143   7.971  14.083
72520SOL    HW119334   9.126   8.029  14.157
72520SOL    HW219335   9.079   7.997  14.017
72521SOL     OW19336  13.862   0.884  11.879
72521SOL    HW119337  13.951   0.853  11.858
72521SOL    HW219338  13.817   0.806  11.912
72522SOL     OW19339   3.474   4.882  13.802
72522SOL    HW119340   3.554   4.889  13.854
72522SOL    HW219341   3.481   4.952  13.737
72523SOL     OW19342   9.398  13.887   9.919
72523SOL    HW119343   9.322  13.897   9.861
72523SOL    HW219344   9.465  13.847   9.864
72524SOL     OW19345   1.251  12.319   6.711
72524SOL    HW119346   1.282  12.372   6.785
72524SOL    HW219347   1.236  12.232   6.748
72525SOL     OW19348   4.726   5.531   4.051
72525SOL    HW119349   4.798   5.578   4.094
72525SOL    HW219350   4.647   5.568   4.089
72526SOL     OW19351   9.068   7.741   2.820
72526SOL    HW119352   9.144   7.734   2.877
72526SOL    HW219353   9.076   7.828   2.780
72527SOL     OW19354   7.025   6.049   3.286
72527SOL    HW119355   6.942   6.023   3.246
72527SOL    HW219356   7.090   6.036   3.217
72528SOL     OW19357   3.960   8.128  12.773
72528SOL    HW119358   3.879   8.078  12.779
72528SOL    HW219359   4.012   8.082  12.707
72529SOL     OW19360   4.687   9.372   1.897
72529SOL    HW119361   4.716   9.429   1.968
72529SOL    HW219362   4.654   9.294   1.943
72530SOL     OW19363   7.162  13.814   7.567
72530SOL    HW119364   7.193  13.853   7.649
72530SOL    HW219365   7.239  13.773   7.529
72531SOL     OW19366   8.508  11.384   3.368
72531SOL    HW119367   8.594  11.373   3.407
72531SOL    HW219368   8.513  11.339   3.284
72532SOL     OW19369   6.421  12.348   9.861
72532SOL    HW119370   6.510  12.380   9.848
72532SOL    HW219371   6.392  12.390   9.942
72533SOL     OW19372   0.687  13.679   0.500
72533SOL    HW119373   0.748  13.664   0.428
72533SOL    HW219374   0.608  13.632   0.476
72534SOL     OW19375   9.007   0.490  13.668
72534SOL    HW119376   9.086   0.495  13.722
72534SOL    HW219377   8.946   0.551  13.709
72535SOL     OW19378  14.354   9.225  12.636
72535SOL    HW119379  14.282   9.235  12.698
72535SOL    HW219380  14.315   9.179  12.561
72536SOL     OW19381  14.675   8.758   3.608
72536SOL    HW119382  14.714   8.845   3.607
72536SOL    HW219383  14.666   8.737   3.701
72537SOL     OW19384   7.666  11.274   9.766
72537SOL    HW119385   7.578  11.302   9.790
72537SOL    HW219386   7.667  11.180   9.781
72538SOL     OW19387   8.243  12.800  10.105
72538SOL    HW119388   8.258  12.762  10.191
72538SOL    HW219389   8.257  12.894  10.118
72539SOL     OW19390   5.594   9.183  12.951
72539SOL    HW119391   5.617   9.265  12.995
72539SOL    HW219392   5.565   9.211  12.864
72540SOL     OW19393  10.218   4.116   6.461
72540SOL    HW119394  10.255   4.060   6.530
72540SOL    HW219395  10.149   4.165   6.505
72541SOL     OW19396   9.913  10.812  13.631
72541SOL    HW119397   9.999  10.791  13.595
72541SOL    HW219398   9.871  10.727  13.644
72542SOL     OW19399   6.340   4.883   9.860
72542SOL    HW119400   6.406   4.870   9.928
72542SOL    HW219401   6.258   4.852   9.899
72543SOL     OW19402  14.688  10.129  12.611
72543SOL    HW119403  14.719  10.051  12.657
72543SOL    HW219404  14.710  10.201  12.670
72544SOL     OW19405   1.741   5.183   4.254
72544SOL    HW119406   1.811   5.207   4.314
72544SOL    HW219407   1.713   5.266   4.216
72545SOL     OW19408  13.221   9.207   5.731
72545SOL    HW119409  13.225   9.286   5.677
72545SOL    HW219410  13.209   9.136   5.668
72546SOL     OW19411   5.996   8.573   9.385
72546SOL    HW119412   6.054   8.516   9.336
72546SOL    HW219413   5.908   8.544   9.361
72547SOL     OW19414  11.235  12.318   5.507
72547SOL    HW119415  11.287  12.390   5.542
72547SOL    HW219416  11.181  12.289   5.581
72548SOL     OW19417   2.928  10.738   6.598
72548SOL    HW119418   2.952  10.765   6.687
72548SOL    HW219419   3.010  10.747   6.548
72549SOL     OW19420   9.238   5.110   7.458
72549SOL    HW119421   9.229   5.064   7.374
72549SOL    HW219422   9.151   5.144   7.477
72550SOL     OW19423  12.874  14.750   2.602
72550SOL    HW119424  12.958  14.757   2.556
72550SOL    HW219425  12.873  14.827   2.659
72551SOL     OW19426   5.370   5.703   0.929
72551SOL    HW119427   5.287   5.747   0.912
72551SOL    HW219428   5.434   5.774   0.937
72552SOL     OW19429   7.014  10.675   4.327
72552SOL    HW119430   6.944  10.726   4.368
72552SOL    HW219431   7.093  10.726   4.341
72553SOL     OW19432  10.156  11.014   2.266
72553SOL    HW119433  10.095  11.038   2.195
72553SOL    HW219434  10.236  11.062   2.245
72554SOL     OW19435   3.299  11.396   5.304
72554SOL    HW119436   3.296  11.307   5.340
72554SOL    HW219437   3.390  11.407   5.277
72555SOL     OW19438   4.084  10.960   4.975
72555SOL    HW119439   4.005  10.905   4.983
72555SOL    HW219440   4.089  10.982   4.882
72556SOL     OW19441   8.773  11.679  11.799
72556SOL    HW119442   8.721  11.599  11.811
72556SOL    HW219443   8.809  11.697  11.886
72557SOL     OW19444   0.997  14.432   1.989
72557SOL    HW119445   1.025  14.344   2.013
72557SOL    HW219446   0.902  14.430   2.001
72558SOL     OW19447   6.820   2.669   4.603
72558SOL    HW119448   6.901   2.699   4.644
72558SOL    HW219449   6.840   2.665   4.509
72559SOL     OW19450  13.036  14.104  12.702
72559SOL    HW119451  13.000  14.034  12.647
72559SOL    HW219452  13.118  14.069  12.735
72560SOL     OW19453   1.177  13.007  12.077
72560SOL    HW119454   1.219  12.984  12.160
72560SOL    HW219455   1.108  13.068  12.102
72561SOL     OW19456   6.300   7.685   3.527
72561SOL    HW119457   6.237   7.625   3.567
72561SOL    HW219458   6.248   7.760   3.500
72562SOL     OW19459   8.811   0.079  11.808
72562SOL    HW119460   8.847   0.092  11.720
72562SOL    HW219461   8.886   0.090  11.867
72563SOL     OW19462   9.768   0.898  13.647
72563SOL    HW119463   9.830   0.964  13.680
72563SOL    HW219464   9.792   0.818  13.693
72564SOL     OW19465  13.482  11.839   9.571
72564SOL    HW119466  13.532  11.758   9.569
72564SOL    HW219467  13.526  11.896   9.508
72565SOL     OW19468  13.397   7.641   5.898
72565SOL    HW119469  13.429   7.645   5.807
72565SOL    HW219470  13.461   7.692   5.948
72566SOL     OW19471  11.933   4.355   3.966
72566SOL    HW119472  11.912   4.353   3.872
72566SOL    HW219473  11.935   4.448   3.988
72567SOL     OW19474  13.673   2.428   9.635
72567SOL    HW119475  13.677   2.475   9.718
72567SOL    HW219476  13.704   2.340   9.656
72568SOL     OW19477   5.050  10.280   9.827
72568SOL    HW119478   5.145  10.283   9.835
72568SOL    HW219479   5.023  10.372   9.827
72569SOL     OW19480  13.606  10.984   6.713
72569SOL    HW119481  13.515  10.987   6.743
72569SOL    HW219482  13.630  11.076   6.701
72570SOL     OW19483  14.049   3.863   8.367
72570SOL    HW119484  14.029   3.842   8.458
72570SOL    HW219485  14.014   3.789   8.317
72571SOL     OW19486   3.805  10.405   5.669
72571SOL    HW119487   3.854  10.421   5.749
72571SOL    HW219488   3.769  10.317   5.681
72572SOL     OW19489   9.338   5.404   7.316
72572SOL    HW119490   9.311   5.356   7.237
72572SOL    HW219491   9.365   5.336   7.378
72573SOL     OW19492   4.178   5.224  14.820
72573SOL    HW119493   4.087   5.246  14.838
72573SOL    HW219494   4.174   5.140  14.775
72574SOL     OW19495   8.441   5.094   2.974
72574SOL    HW119496   8.411   5.063   3.060
72574SOL    HW219497   8.517   5.038   2.954
72575SOL     OW19498   1.169   8.450   1.789
72575SOL    HW119499   1.103   8.388   1.818
72575SOL    HW219500   1.191   8.500   1.868
72576SOL     OW19501   3.951  10.909  10.432
72576SOL    HW119502   3.952  10.816  10.408
72576SOL    HW219503   4.015  10.949  10.373
72577SOL     OW19504   7.541   6.725   5.862
72577SOL    HW119505   7.549   6.689   5.774
72577SOL    HW219506   7.597   6.669   5.916
72578SOL     OW19507   4.610   5.713   5.248
72578SOL    HW119508   4.596   5.806   5.268
72578SOL    HW219509   4.599   5.708   5.153
72579SOL     OW19510  12.986   5.918   5.007
72579SOL    HW119511  12.938   6.000   4.996
72579SOL    HW219512  13.016   5.920   5.098
72580SOL     OW19513   9.064   1.600   9.215
72580SOL    HW119514   9.033   1.535   9.278
72580SOL    HW219515   8.988   1.619   9.160
72581SOL     OW19516  11.745  13.129  11.097
72581SOL    HW119517  11.798  13.159  11.171
72581SOL    HW219518  11.669  13.187  11.097
72582SOL     OW19519   8.979   4.769   8.286
72582SOL    HW119520   8.887   4.745   8.281
72582SOL    HW219521   8.993   4.794   8.377
72583SOL     OW19522  11.785   4.810  13.896
72583SOL    HW119523  11.778   4.750  13.822
72583SOL    HW219524  11.864   4.781  13.942
72584SOL     OW19525  11.888   1.049  14.212
72584SOL    HW119526  11.797   1.022  14.224
72584SOL    HW219527  11.905   1.107  14.286
72585SOL     OW19528   4.372  14.431   0.473
72585SOL    HW119529   4.433  14.497   0.505
72585SOL    HW219530   4.427  14.367   0.427
72586SOL     OW19531   6.151   7.594   4.746
72586SOL    HW119532   6.130   7.672   4.797
72586SOL    HW219533   6.072   7.541   4.747
72587SOL     OW19534   6.896  14.398   6.176
72587SOL    HW119535   6.940  14.313   6.178
72587SOL    HW219536   6.826  14.387   6.111
72588SOL     OW19537  13.073   0.730   5.636
72588SOL    HW119538  12.985   0.767   5.636
72588SOL    HW219539  13.065   0.649   5.587
72589SOL     OW19540   8.119  11.484   7.198
72589SOL    HW119541   8.031  11.462   7.229
72589SOL    HW219542   8.116  11.579   7.183
72590SOL     OW19543  14.128  12.953  11.358
72590SOL    HW119544  14.136  12.895  11.283
72590SOL    HW219545  14.033  12.960  11.372
72591SOL     OW19546   5.599  11.842   7.691
72591SOL    HW119547   5.637  11.756   7.706
72591SOL    HW219548   5.672  11.903   7.706
72592SOL     OW19549   5.001   9.152   6.303
72592SOL    HW119550   5.071   9.153   6.368
72592SOL    HW219551   4.986   9.060   6.285
72593SOL     OW19552   1.887  14.257  13.400
72593SOL    HW119553   1.961  14.245  13.459
72593SOL    HW219554   1.841  14.334  13.433
72594SOL     OW19555   5.508   7.712   2.550
72594SOL    HW119556   5.510   7.763   2.469
72594SOL    HW219557   5.600   7.695   2.570
72595SOL     OW19558  13.128  14.541   3.772
72595SOL    HW119559  13.132  14.454   3.814
72595SOL    HW219560  13.042  14.545   3.732
72596SOL     OW19561   5.253   6.934  13.701
72596SOL    HW119562   5.170   6.979  13.717
72596SOL    HW219563   5.310   7.000  13.663
72597SOL     OW19564   1.978   7.762  10.073
72597SOL    HW119565   1.910   7.803  10.127
72597SOL    HW219566   1.949   7.777   9.983
72598SOL     OW19567   4.303   9.791   1.550
72598SOL    HW119568   4.292   9.697   1.564
72598SOL    HW219569   4.237   9.832   1.606
72599SOL     OW19570   5.269  13.756   3.542
72599SOL    HW119571   5.330  13.713   3.483
72599SOL    HW219572   5.322  13.821   3.589
72600SOL     OW19573  13.846  14.338   8.237
72600SOL    HW119574  13.758  14.374   8.245
72600SOL    HW219575  13.892  14.399   8.180
72601SOL     OW19576  11.058   4.261   0.257
72601SOL    HW119577  10.973   4.249   0.300
72601SOL    HW219578  11.070   4.182   0.204
72602SOL     OW19579   6.814   6.834   0.085
72602SOL    HW119580   6.840   6.742   0.094
72602SOL    HW219581   6.719   6.831   0.078
72603SOL     OW19582   8.874  10.972   5.007
72603SOL    HW119583   8.920  10.893   5.034
72603SOL    HW219584   8.893  11.037   5.074
72604SOL     OW19585   6.372   0.470  13.235
72604SOL    HW119586   6.381   0.406  13.165
72604SOL    HW219587   6.442   0.534  13.220
72605SOL     OW19588  12.158   3.804  14.117
72605SOL    HW119589  12.067   3.797  14.145
72605SOL    HW219590  12.153   3.820  14.022
72606SOL     OW19591  12.909  13.733  11.344
72606SOL    HW119592  12.951  13.662  11.294
72606SOL    HW219593  12.847  13.688  11.401
72607SOL     OW19594   1.003   2.923   8.092
72607SOL    HW119595   1.020   2.924   7.998
72607SOL    HW219596   0.992   3.015   8.116
72608SOL     OW19597   8.009   1.909  12.664
72608SOL    HW119598   7.929   1.869  12.630
72608SOL    HW219599   8.048   1.840  12.719
72609SOL     OW19600  12.327   6.671   9.554
72609SOL    HW119601  12.285   6.608   9.613
72609SOL    HW219602  12.254   6.722   9.518
72610SOL     OW19603  12.248   7.837   6.369
72610SOL    HW119604  12.169   7.839   6.315
72610SOL    HW219605  12.296   7.760   6.339
72611SOL     OW19606   1.023  13.497  14.095
72611SOL    HW119607   0.937  13.537  14.085
72611SOL    HW219608   1.027  13.432  14.025
72612SOL     OW19609   9.166  13.630   4.346
72612SOL    HW119610   9.127  13.573   4.280
72612SOL    HW219611   9.097  13.641   4.411
72613SOL     OW19612  12.419   7.052  10.144
72613SOL    HW119613  12.415   7.095  10.058
72613SOL    HW219614  12.362   7.104  10.200
72614SOL     OW19615  10.510  13.743   9.885
72614SOL    HW119616  10.586  13.790   9.921
72614SOL    HW219617  10.490  13.677   9.951
72615SOL     OW19618   3.976   3.304  11.928
72615SOL    HW119619   3.963   3.353  11.847
72615SOL    HW219620   4.058   3.257  11.916
72616SOL     OW19621   4.762   0.881   5.063
72616SOL    HW119622   4.832   0.937   5.095
72616SOL    HW219623   4.754   0.904   4.970
72617SOL     OW19624  10.132  11.127  10.449
72617SOL    HW119625  10.077  11.048  10.445
72617SOL    HW219626  10.219  11.096  10.424
72618SOL     OW19627   4.126  13.931  11.527
72618SOL    HW119628   4.139  13.927  11.432
72618SOL    HW219629   4.160  13.847  11.559
72619SOL     OW19630   5.228  10.798   0.861
72619SOL    HW119631   5.271  10.724   0.820
72619SOL    HW219632   5.136  10.788   0.840
72620SOL     OW19633  10.143   9.470   3.528
72620SOL    HW119634  10.130   9.554   3.485
72620SOL    HW219635  10.055   9.432   3.533
72621SOL     OW19636   8.749   4.188  10.823
72621SOL    HW119637   8.676   4.244  10.849
72621SOL    HW219638   8.818   4.249  10.798
72622SOL     OW19639  10.827   0.248  10.173
72622SOL    HW119640  10.840   0.159  10.139
72622SOL    HW219641  10.798   0.235  10.263
72623SOL     OW19642   1.446   0.391   0.072
72623SOL    HW119643   1.536   0.402   0.103
72623SOL    HW219644   1.451   0.317   0.012
72624SOL     OW19645   8.907   5.364   0.873
72624SOL    HW119646   8.889   5.391   0.783
72624SOL    HW219647   8.953   5.438   0.912
72625SOL     OW19648   1.319  14.268   6.553
72625SOL    HW119649   1.378  14.319   6.498
72625SOL    HW219650   1.249  14.240   6.494
72626SOL     OW19651   6.695   2.842   2.761
72626SOL    HW119652   6.643   2.875   2.688
72626SOL    HW219653   6.774   2.807   2.720
72627SOL     OW19654  10.019  11.283  12.044
72627SOL    HW119655   9.928  11.253  12.046
72627SOL    HW219656  10.070  11.207  12.072
72628SOL     OW19657   3.222   8.430  11.651
72628SOL    HW119658   3.201   8.521  11.629
72628SOL    HW219659   3.240   8.389  11.566
72629SOL     OW19660   9.710  13.004   6.205
72629SOL    HW119661   9.697  13.076   6.267
72629SOL    HW219662   9.792  13.025   6.161
72630SOL     OW19663  11.903   4.992   9.145
72630SOL    HW119664  11.944   5.070   9.108
72630SOL    HW219665  11.854   4.954   9.072
72631SOL     OW19666   3.854  14.848   5.102
72631SOL    HW119667   3.840   0.063   5.124
72631SOL    HW219668   3.923  14.820   5.162
72632SOL     OW19669   3.605   4.942  11.431
72632SOL    HW119670   3.595   4.847  11.419
72632SOL    HW219671   3.585   4.979  11.345
72633SOL     OW19672  12.876   8.925  13.513
72633SOL    HW119673  12.830   8.845  13.540
72633SOL    HW219674  12.964   8.896  13.491
72634SOL     OW19675   3.378  13.718  10.692
72634SOL    HW119676   3.444  13.784  10.714
72634SOL    HW219677   3.300  13.745  10.741
72635SOL     OW19678   5.451   4.733   8.142
72635SOL    HW119679   5.429   4.825   8.125
72635SOL    HW219680   5.546   4.730   8.138
72636SOL     OW19681  11.467   6.665  11.517
72636SOL    HW119682  11.498   6.579  11.490
72636SOL    HW219683  11.427   6.650  11.603
72637SOL     OW19684  11.696   9.638   3.620
72637SOL    HW119685  11.657   9.678   3.698
72637SOL    HW219686  11.692   9.706   3.553
72638SOL     OW19687  10.265   3.726   5.165
72638SOL    HW119688  10.269   3.812   5.207
72638SOL    HW219689  10.181   3.690   5.192
72639SOL     OW19690   3.740   0.039   7.272
72639SOL    HW119691   3.772   0.079   7.353
72639SOL    HW219692   3.786  14.833   7.267
72640SOL     OW19693   6.488   2.929   7.997
72640SOL    HW119694   6.565   2.943   7.941
72640SOL    HW219695   6.460   3.017   8.022
72641SOL     OW19696   1.229   0.841  13.219
72641SOL    HW119697   1.222   0.804  13.131
72641SOL    HW219698   1.319   0.872  13.226
72642SOL     OW19699   4.193   6.966  11.024
72642SOL    HW119700   4.203   6.971  10.929
72642SOL    HW219701   4.234   7.047  11.057
72643SOL     OW19702   1.762   8.141   8.902
72643SOL    HW119703   1.777   8.047   8.894
72643SOL    HW219704   1.679   8.147   8.950
72644SOL     OW19705  14.125   8.255  10.803
72644SOL    HW119706  14.147   8.180  10.747
72644SOL    HW219707  14.049   8.227  10.853
72645SOL     OW19708  10.764  10.091   0.506
72645SOL    HW119709  10.847  10.044   0.520
72645SOL    HW219710  10.698  10.034   0.546
72646SOL     OW19711  14.280   4.026   9.432
72646SOL    HW119712  14.297   3.941   9.391
72646SOL    HW219713  14.365   4.052   9.467
72647SOL     OW19714   6.010  10.429  10.245
72647SOL    HW119715   6.070  10.497  10.277
72647SOL    HW219716   5.938  10.477  10.205
72648SOL     OW19717   3.409  11.815  13.370
72648SOL    HW119718   3.395  11.769  13.452
72648SOL    HW219719   3.501  11.841  13.372
72649SOL     OW19720   8.306  11.963   3.182
72649SOL    HW119721   8.323  12.054   3.157
72649SOL    HW219722   8.286  11.967   3.276
72650SOL     OW19723   3.777   2.670   5.201
72650SOL    HW119724   3.745   2.737   5.261
72650SOL    HW219725   3.762   2.707   5.114
72651SOL     OW19726   7.174  13.756   2.504
72651SOL    HW119727   7.087  13.776   2.538
72651SOL    HW219728   7.177  13.661   2.500
72652SOL     OW19729   6.530   2.815  11.226
72652SOL    HW119730   6.488   2.740  11.268
72652SOL    HW219731   6.464   2.884  11.229
72653SOL     OW19732  10.916   0.692   5.690
72653SOL    HW119733  10.878   0.608   5.664
72653SOL    HW219734  10.840   0.743   5.720
72654SOL     OW19735   0.491   4.015  13.487
72654SOL    HW119736   0.583   4.037  13.495
72654SOL    HW219737   0.486   3.958  13.411
72655SOL     OW19738  12.586   7.385   6.441
72655SOL    HW119739  12.606   7.293   6.457
72655SOL    HW219740  12.494   7.386   6.415
72656SOL     OW19741   7.026   2.185   2.830
72656SOL    HW119742   7.026   2.099   2.873
72656SOL    HW219743   6.935   2.201   2.807
72657SOL     OW19744   6.166   4.640  12.151
72657SOL    HW119745   6.258   4.618  12.137
72657SOL    HW219746   6.164   4.686  12.234
72658SOL     OW19747  12.615   1.978   4.708
72658SOL    HW119748  12.643   1.960   4.798
72658SOL    HW219749  12.693   1.966   4.655
72659SOL     OW19750   9.461   6.900  12.712
72659SOL    HW119751   9.550   6.924  12.686
72659SOL    HW219752   9.450   6.810  12.682
72660SOL     OW19753   0.032   4.362   7.010
72660SOL    HW119754   0.091   4.428   6.974
72660SOL    HW219755  14.829   4.372   6.958
72661SOL     OW19756   4.578  14.595  11.324
72661SOL    HW119757   4.563  14.501  11.323
72661SOL    HW219758   4.669  14.605  11.350
72662SOL     OW19759   3.066   3.569   1.062
72662SOL    HW119760   3.056   3.548   1.155
72662SOL    HW219761   3.090   3.661   1.061
72663SOL     OW19762  12.503   6.881   6.874
72663SOL    HW119763  12.431   6.842   6.925
72663SOL    HW219764  12.465   6.961   6.837
72664SOL     OW19765   5.680   1.133  13.945
72664SOL    HW119766   5.685   1.115  13.851
72664SOL    HW219767   5.668   1.228  13.950
72665SOL     OW19768   3.259  14.531   4.222
72665SOL    HW119769   3.331  14.498   4.276
72665SOL    HW219770   3.270  14.485   4.138
72666SOL     OW19771   4.999  10.480   5.686
72666SOL    HW119772   5.006  10.417   5.614
72666SOL    HW219773   5.067  10.545   5.668
72667SOL     OW19774   6.716   7.453  10.511
72667SOL    HW119775   6.655   7.453  10.585
72667SOL    HW219776   6.659   7.460  10.434
72668SOL     OW19777  11.092   1.835   0.972
72668SOL    HW119778  11.095   1.826   0.876
72668SOL    HW219779  11.046   1.757   1.002
72669SOL     OW19780   6.289   9.547   2.681
72669SOL    HW119781   6.381   9.523   2.680
72669SOL    HW219782   6.275   9.588   2.766
72670SOL     OW19783  11.296   1.054   6.030
72670SOL    HW119784  11.317   0.990   6.098
72670SOL    HW219785  11.212   1.023   5.995
72671SOL     OW19786   1.496   6.196  14.614
72671SOL    HW119787   1.533   6.174  14.699
72671SOL    HW219788   1.534   6.131  14.554
72672SOL     OW19789   3.549  12.322   7.923
72672SOL    HW119790   3.521  12.230   7.923
72672SOL    HW219791   3.470  12.371   7.900
72673SOL     OW19792   7.947   8.379   2.007
72673SOL    HW119793   8.011   8.394   1.938
72673SOL    HW219794   7.980   8.302   2.053
72674SOL     OW19795   1.967  13.411   4.290
72674SOL    HW119796   1.956  13.407   4.385
72674SOL    HW219797   2.035  13.477   4.276
72675SOL     OW19798   9.932  14.086  12.845
72675SOL    HW119799   9.930  14.172  12.804
72675SOL    HW219800   9.842  14.072  12.876
72676SOL     OW19801  10.820   6.376   7.036
72676SOL    HW119802  10.751   6.387   6.970
72676SOL    HW219803  10.783   6.313   7.098
72677SOL     OW19804   4.832   8.927   0.757
72677SOL    HW119805   4.782   8.847   0.768
72677SOL    HW219806   4.914   8.912   0.803
72678SOL     OW19807   4.630   3.947   1.446
72678SOL    HW119808   4.538   3.944   1.471
72678SOL    HW219809   4.660   4.033   1.477
72679SOL     OW19810  10.988   2.153   6.924
72679SOL    HW119811  11.058   2.206   6.961
72679SOL    HW219812  10.913   2.212   6.921
72680SOL     OW19813   4.832   1.313   9.920
72680SOL    HW119814   4.804   1.243   9.861
72680SOL    HW219815   4.928   1.314   9.912
72681SOL     OW19816   7.596  13.183   5.235
72681SOL    HW119817   7.690  13.178   5.218
72681SOL    HW219818   7.561  13.230   5.159
72682SOL     OW19819   9.490   1.127   2.864
72682SOL    HW119820   9.498   1.043   2.910
72682SOL    HW219821   9.442   1.106   2.784
72683SOL     OW19822   6.632   4.077   9.299
72683SOL    HW119823   6.629   4.158   9.350
72683SOL    HW219824   6.669   4.103   9.214
72684SOL     OW19825  12.034   2.607   7.059
72684SOL    HW119826  11.993   2.649   6.984
72684SOL    HW219827  12.061   2.521   7.027
72685SOL     OW19828  14.116   4.309   5.439
72685SOL    HW119829  14.159   4.308   5.525
72685SOL    HW219830  14.039   4.254   5.450
72686SOL     OW19831  10.148   6.572   7.258
72686SOL    HW119832  10.097   6.617   7.190
72686SOL    HW219833  10.160   6.483   7.224
72687SOL     OW19834  10.640  13.218   1.271
72687SOL    HW119835  10.604  13.298   1.235
72687SOL    HW219836  10.719  13.245   1.317
72688SOL     OW19837   9.816   1.354   8.076
72688SOL    HW119838   9.834   1.368   8.169
72688SOL    HW219839   9.749   1.285   8.075
72689SOL     OW19840  11.923   5.808   2.045
72689SOL    HW119841  11.951   5.885   2.094
72689SOL    HW219842  11.869   5.844   1.974
72690SOL     OW19843   9.134  10.098   0.796
72690SOL    HW119844   9.225  10.125   0.785
72690SOL    HW219845   9.098  10.158   0.861
72691SOL     OW19846  11.438  10.335   8.410
72691SOL    HW119847  11.351  10.312   8.376
72691SOL    HW219848  11.428  10.426   8.440
72692SOL     OW19849   0.296   3.398   9.746
72692SOL    HW119850   0.332   3.309   9.753
72692SOL    HW219851   0.253   3.413   9.830
72693SOL     OW19852  14.388   6.583  10.010
72693SOL    HW119853  14.352   6.655  10.063
72693SOL    HW219854  14.455   6.543  10.065
72694SOL     OW19855   6.194   5.373  14.236
72694SOL    HW119856   6.209   5.447  14.294
72694SOL    HW219857   6.121   5.325  14.277
72695SOL     OW19858   7.948  14.823   8.330
72695SOL    HW119859   7.954  14.783   8.416
72695SOL    HW219860   7.985   0.033   8.341
72696SOL     OW19861  14.657  14.110  13.324
72696SOL    HW119862  14.697  14.196  13.334
72696SOL    HW219863  14.651  14.075  13.413
72697SOL     OW19864  10.233   0.964   9.082
72697SOL    HW119865  10.228   1.055   9.051
72697SOL    HW219866  10.173   0.961   9.157
72698SOL     OW19867   7.884  11.115  12.206
72698SOL    HW119868   7.925  11.114  12.120
72698SOL    HW219869   7.880  11.208  12.230
72699SOL     OW19870   7.221  12.853   4.103
72699SOL    HW119871   7.225  12.948   4.098
72699SOL    HW219872   7.253  12.831   4.190
72700SOL     OW19873  12.045   8.336   7.678
72700SOL    HW119874  11.997   8.277   7.736
72700SOL    HW219875  12.060   8.284   7.599
72701SOL     OW19876   4.932   8.218   7.869
72701SOL    HW119877   4.952   8.214   7.776
72701SOL    HW219878   4.844   8.181   7.877
72702SOL     OW19879  13.472   5.527   7.253
72702SOL    HW119880  13.466   5.608   7.304
72702SOL    HW219881  13.549   5.482   7.288
72703SOL     OW19882   5.003   9.821  13.673
72703SOL    HW119883   5.045   9.906  13.687
72703SOL    HW219884   4.965   9.828  13.585
72704SOL     OW19885  12.089   7.363   9.477
72704SOL    HW119886  12.099   7.442   9.424
72704SOL    HW219887  12.067   7.396   9.564
72705SOL     OW19888   5.738  13.653   4.994
72705SOL    HW119889   5.695  13.673   5.077
72705SOL    HW219890   5.676  13.596   4.948
72706SOL     OW19891   7.572   9.087   7.582
72706SOL    HW119892   7.579   9.059   7.491
72706SOL    HW219893   7.662   9.111   7.606
72707SOL     OW19894   5.020   8.519  11.794
72707SOL    HW119895   5.055   8.566  11.870
72707SOL    HW219896   4.927   8.511  11.811
72708SOL     OW19897   3.930   8.286  10.571
72708SOL    HW119898   4.003   8.224  10.581
72708SOL    HW219899   3.957   8.363  10.623
72709SOL     OW19900  10.620   5.428  14.242
72709SOL    HW119901  10.543   5.391  14.286
72709SOL    HW219902  10.636   5.511  14.287
72710SOL     OW19903  12.507  10.096   3.417
72710SOL    HW119904  12.451  10.100   3.339
72710SOL    HW219905  12.451  10.126   3.489
72711SOL     OW19906   6.466   8.209   5.900
72711SOL    HW119907   6.540   8.267   5.882
72711SOL    HW219908   6.465   8.200   5.995
72712SOL     OW19909  14.386   7.319  11.116
72712SOL    HW119910  14.475   7.301  11.085
72712SOL    HW219911  14.329   7.296  11.043
72713SOL     OW19912   9.522   3.575  13.457
72713SOL    HW119913   9.540   3.624  13.377
72713SOL    HW219914   9.571   3.493  13.446
72714SOL     OW19915   7.128   2.150   4.078
72714SOL    HW119916   7.190   2.203   4.128
72714SOL    HW219917   7.177   2.070   4.057
72715SOL     OW19918   6.867   9.265   7.969
72715SOL    HW119919   6.843   9.222   8.051
72715SOL    HW219920   6.785   9.277   7.922
72716SOL     OW19921  11.476   4.094   7.436
72716SOL    HW119922  11.571   4.105   7.436
72716SOL    HW219923  11.460   4.023   7.499
72717SOL     OW19924   8.107   6.077   9.062
72717SOL    HW119925   8.133   6.092   9.153
72717SOL    HW219926   8.186   6.047   9.018
72718SOL     OW19927   0.954   7.305  13.934
72718SOL    HW119928   0.897   7.229  13.924
72718SOL    HW219929   0.895   7.380  13.938
72719SOL     OW19930   8.059   2.498   6.621
72719SOL    HW119931   8.144   2.458   6.599
72719SOL    HW219932   8.068   2.589   6.594
72720SOL     OW19933   0.545   5.102   1.068
72720SOL    HW119934   0.560   5.177   1.010
72720SOL    HW219935   0.544   5.140   1.156
72721SOL     OW19936   8.004  10.515   3.112
72721SOL    HW119937   7.952  10.512   3.192
72721SOL    HW219938   7.956  10.460   3.050
72722SOL     OW19939  10.565   2.801  10.743
72722SOL    HW119940  10.621   2.853  10.685
72722SOL    HW219941  10.604   2.714  10.744
72723SOL     OW19942   2.557  11.945  10.256
72723SOL    HW119943   2.652  11.949  10.263
72723SOL    HW219944   2.529  12.036  10.245
72724SOL     OW19945   3.179  12.221  11.215
72724SOL    HW119946   3.157  12.149  11.155
72724SOL    HW219947   3.220  12.287  11.159
72725SOL     OW19948   5.035   4.864   8.914
72725SOL    HW119949   5.019   4.781   8.958
72725SOL    HW219950   4.950   4.888   8.876
72726SOL     OW19951   5.013   0.135   9.784
72726SOL    HW119952   5.061   0.217   9.795
72726SOL    HW219953   4.990   0.109   9.873
72727SOL     OW19954   8.448   4.146   4.977
72727SOL    HW119955   8.447   4.197   5.058
72727SOL    HW219956   8.364   4.165   4.936
72728SOL     OW19957   2.127   2.333   4.712
72728SOL    HW119958   2.083   2.318   4.795
72728SOL    HW219959   2.059   2.323   4.646
72729SOL     OW19960  11.430   7.865   4.940
72729SOL    HW119961  11.342   7.831   4.924
72729SOL    HW219962  11.434   7.946   4.889
72730SOL     OW19963   8.940   3.603   2.646
72730SOL    HW119964   8.923   3.696   2.632
72730SOL    HW219965   8.914   3.588   2.737
72731SOL     OW19966   7.257   6.735   5.884
72731SOL    HW119967   7.351   6.719   5.888
72731SOL    HW219968   7.218   6.654   5.917
72732SOL     OW19969   9.764   9.090   5.420
72732SOL    HW119970   9.688   9.068   5.474
72732SOL    HW219971   9.839   9.061   5.471
72733SOL     OW19972  12.368  13.180   0.869
72733SOL    HW119973  12.427  13.174   0.945
72733SOL    HW219974  12.283  13.205   0.906
72734SOL     OW19975   5.078   5.177   1.505
72734SOL    HW119976   5.125   5.093   1.502
72734SOL    HW219977   4.985   5.152   1.505
72735SOL     OW19978  10.156   8.786  12.521
72735SOL    HW119979  10.191   8.875  12.513
72735SOL    HW219980  10.225   8.730  12.485
72736SOL     OW19981   4.562   9.558   3.660
72736SOL    HW119982   4.528   9.519   3.741
72736SOL    HW219983   4.557   9.487   3.596
72737SOL     OW19984  13.914  13.210   4.346
72737SOL    HW119985  13.828  13.201   4.306
72737SOL    HW219986  13.906  13.285   4.404
72738SOL     OW19987   1.773   5.883  11.560
72738SOL    HW119988   1.861   5.915  11.580
72738SOL    HW219989   1.720   5.908  11.636
72739SOL     OW19990   4.883   9.558   4.740
72739SOL    HW119991   4.903   9.632   4.682
72739SOL    HW219992   4.820   9.594   4.803
72740SOL     OW19993   6.367   1.906   8.627
72740SOL    HW119994   6.363   1.991   8.671
72740SOL    HW219995   6.280   1.868   8.641
72741SOL     OW19996   2.775  11.654  10.458
72741SOL    HW119997   2.742  11.744  10.459
72741SOL    HW219998   2.739  11.614  10.536
72742SOL     OW19999  14.135   4.657   7.688
72742SOL    HW120000  14.226   4.628   7.684
72742SOL    HW220001  14.085   4.575   7.688
72743SOL     OW20002   6.046  12.400  11.561
72743SOL    HW120003   6.111  12.367  11.623
72743SOL    HW220004   6.098  12.440  11.491
72744SOL     OW20005   3.211   6.720  13.203
72744SOL    HW120006   3.121   6.695  13.226
72744SOL    HW220007   3.203   6.758  13.116
72745SOL     OW20008   8.642  13.986  10.266
72745SOL    HW120009   8.719  14.043  10.272
72745SOL    HW220010   8.678  13.900  10.244
72746SOL     OW20011   7.353  13.647   1.695
72746SOL    HW120012   7.263  13.614   1.683
72746SOL    HW220013   7.393  13.583   1.754
72747SOL     OW20014   7.231   2.929   9.787
72747SOL    HW120015   7.233   2.997   9.854
72747SOL    HW220016   7.191   2.854   9.831
72748SOL     OW20017   0.910   3.381  10.216
72748SOL    HW120018   0.898   3.295  10.257
72748SOL    HW220019   0.822   3.409  10.193
72749SOL     OW20020   3.420   6.361   9.327
72749SOL    HW120021   3.405   6.386   9.418
72749SOL    HW220022   3.345   6.305   9.305
72750SOL     OW20023   9.372  12.331   4.506
72750SOL    HW120024   9.450  12.307   4.556
72750SOL    HW220025   9.375  12.426   4.502
72751SOL     OW20026  14.320  14.484   2.709
72751SOL    HW120027  14.254  14.418   2.687
72751SOL    HW220028  14.272  14.550   2.759
72752SOL     OW20029   5.393   1.492  11.171
72752SOL    HW120030   5.307   1.483  11.129
72752SOL    HW220031   5.455   1.455  11.108
72753SOL     OW20032   5.708   7.678   2.262
72753SOL    HW120033   5.764   7.639   2.195
72753SOL    HW220034   5.768   7.698   2.334
72754SOL     OW20035  12.110  12.059  14.263
72754SOL    HW120036  12.097  11.964  14.262
72754SOL    HW220037  12.026  12.095  14.289
72755SOL     OW20038   8.083  14.276  11.469
72755SOL    HW120039   8.078  14.372  11.471
72755SOL    HW220040   8.079  14.249  11.561
72756SOL     OW20041   5.934  11.158  12.724
72756SOL    HW120042   5.933  11.153  12.819
72756SOL    HW220043   5.865  11.220  12.702
72757SOL     OW20044   3.282   8.317   9.284
72757SOL    HW120045   3.231   8.278   9.356
72757SOL    HW220046   3.370   8.328   9.319
72758SOL     OW20047   1.058   5.227  14.280
72758SOL    HW120048   1.106   5.309  14.288
72758SOL    HW220049   1.121   5.159  14.305
72759SOL     OW20050   5.015  11.258   4.467
72759SOL    HW120051   4.984  11.348   4.474
72759SOL    HW220052   4.960  11.209   4.528
72760SOL     OW20053  13.642   8.602   0.052
72760SOL    HW120054  13.607   8.685   0.020
72760SOL    HW220055  13.717   8.584  14.873
72761SOL     OW20056   0.325  13.119   1.326
72761SOL    HW120057   0.259  13.050   1.319
72761SOL    HW220058   0.367  13.104   1.410
72762SOL     OW20059   2.809   7.948   4.126
72762SOL    HW120060   2.804   7.901   4.210
72762SOL    HW220061   2.815   8.040   4.150
72763SOL     OW20062   9.799   1.771   2.703
72763SOL    HW120063   9.824   1.809   2.787
72763SOL    HW220064   9.756   1.842   2.656
72764SOL     OW20065  12.748   6.487  10.273
72764SOL    HW120066  12.700   6.567  10.296
72764SOL    HW220067  12.758   6.492  10.178
72765SOL     OW20068  12.504   5.166  10.680
72765SOL    HW120069  12.518   5.073  10.662
72765SOL    HW220070  12.570   5.211  10.628
72766SOL     OW20071  13.699  14.660   6.441
72766SOL    HW120072  13.667  14.699   6.360
72766SOL    HW220073  13.727  14.572   6.416
72767SOL     OW20074  13.291   7.051  13.423
72767SOL    HW120075  13.365   7.080  13.474
72767SOL    HW220076  13.294   7.104  13.343
72768SOL     OW20077  10.661  11.143   8.886
72768SOL    HW120078  10.697  11.054   8.880
72768SOL    HW220079  10.566  11.131   8.885
72769SOL     OW20080   4.838   1.111  11.183
72769SOL    HW120081   4.817   1.018  11.178
72769SOL    HW220082   4.813   1.136  11.272
72770SOL     OW20083   4.378   6.241   7.878
72770SOL    HW120084   4.395   6.269   7.788
72770SOL    HW220085   4.462   6.253   7.923
72771SOL     OW20086  11.187  12.917   5.812
72771SOL    HW120087  11.116  12.913   5.748
72771SOL    HW220088  11.143  12.914   5.897
72772SOL     OW20089   7.258   7.200  14.000
72772SOL    HW120090   7.331   7.139  13.997
72772SOL    HW220091   7.199   7.171  13.930
72773SOL     OW20092  14.860  10.063   4.074
72773SOL    HW120093  14.834  10.025   4.158
72773SOL    HW220094   0.069  10.098   4.090
72774SOL     OW20095   6.334   5.285   6.692
72774SOL    HW120096   6.419   5.242   6.679
72774SOL    HW220097   6.343   5.331   6.775
72775SOL     OW20098  10.432   4.948   7.076
72775SOL    HW120099  10.444   4.884   7.145
72775SOL    HW220100  10.415   4.895   6.997
72776SOL     OW20101  14.369   7.403   4.925
72776SOL    HW120102  14.426   7.431   4.853
72776SOL    HW220103  14.292   7.366   4.882
72777SOL     OW20104  14.674   5.975   8.287
72777SOL    HW120105  14.630   5.972   8.202
72777SOL    HW220106  14.763   5.945   8.268
72778SOL     OW20107   6.137   2.429  11.140
72778SOL    HW120108   6.207   2.382  11.186
72778SOL    HW220109   6.155   2.521  11.159
72779SOL     OW20110  11.878   9.267   0.163
72779SOL    HW120111  11.805   9.243   0.107
72779SOL    HW220112  11.933   9.189   0.167
72780SOL     OW20113   6.464   0.181   9.586
72780SOL    HW120114   6.427   0.185   9.674
72780SOL    HW220115   6.532   0.114   9.592
72781SOL     OW20116  13.289   9.761   5.012
72781SOL    HW120117  13.332   9.847   5.016
72781SOL    HW220118  13.338   9.707   5.074
72782SOL     OW20119  12.099   1.118   9.208
72782SOL    HW120120  12.057   1.079   9.132
72782SOL    HW220121  12.160   1.051   9.239
72783SOL     OW20122   5.629   6.980  10.840
72783SOL    HW120123   5.613   7.072  10.863
72783SOL    HW220124   5.612   6.932  10.921
72784SOL     OW20125  13.357  12.054  10.476
72784SOL    HW120126  13.352  12.104  10.394
72784SOL    HW220127  13.347  12.120  10.545
72785SOL     OW20128  14.532   5.541   0.880
72785SOL    HW120129  14.502   5.596   0.953
72785SOL    HW220130  14.480   5.571   0.805
72786SOL     OW20131  14.226   2.466   4.335
72786SOL    HW120132  14.232   2.371   4.344
72786SOL    HW220133  14.171   2.493   4.409
72787SOL     OW20134  11.510   3.011   5.605
72787SOL    HW120135  11.591   3.048   5.569
72787SOL    HW220136  11.478   2.953   5.536
72788SOL     OW20137   6.170   2.330   9.326
72788SOL    HW120138   6.163   2.349   9.419
72788SOL    HW220139   6.225   2.252   9.320
72789SOL     OW20140   1.548   3.139   0.679
72789SOL    HW120141   1.558   3.107   0.769
72789SOL    HW220142   1.489   3.076   0.637
72790SOL     OW20143  12.813   2.896   4.546
72790SOL    HW120144  12.755   2.972   4.549
72790SOL    HW220145  12.768   2.830   4.598
72791SOL     OW20146   3.784   9.885   8.630
72791SOL    HW120147   3.776   9.869   8.724
72791SOL    HW220148   3.820   9.974   8.624
72792SOL     OW20149   7.600  12.965   5.711
72792SOL    HW120150   7.536  13.011   5.656
72792SOL    HW220151   7.547  12.910   5.769
72793SOL     OW20152   7.520   4.151   8.506
72793SOL    HW120153   7.457   4.206   8.552
72793SOL    HW220154   7.576   4.116   8.575
72794SOL     OW20155   2.314   1.646   8.275
72794SOL    HW120156   2.229   1.634   8.232
72794SOL    HW220157   2.293   1.648   8.369
72795SOL     OW20158   9.991  11.304   2.791
72795SOL    HW120159  10.048  11.293   2.714
72795SOL    HW220160  10.025  11.242   2.855
72796SOL     OW20161   3.229   0.103   7.867
72796SOL    HW120162   3.134   0.096   7.865
72796SOL    HW220163   3.259   0.020   7.903
72797SOL     OW20164   0.444  12.125  14.106
72797SOL    HW120165   0.434  12.219  14.088
72797SOL    HW220166   0.532  12.104  14.074
72798SOL     OW20167   9.594  11.312   2.275
72798SOL    HW120168   9.663  11.282   2.335
72798SOL    HW220169   9.590  11.244   2.207
72799SOL     OW20170   3.588   2.303   2.667
72799SOL    HW120171   3.632   2.286   2.751
72799SOL    HW220172   3.659   2.314   2.604
72800SOL     OW20173   4.542   6.226   2.360
72800SOL    HW120174   4.534   6.193   2.449
72800SOL    HW220175   4.628   6.197   2.331
72801SOL     OW20176   8.234   9.675  11.688
72801SOL    HW120177   8.277   9.760  11.676
72801SOL    HW220178   8.306   9.614  11.703
72802SOL     OW20179   2.032   6.432   8.552
72802SOL    HW120180   1.947   6.467   8.579
72802SOL    HW220181   2.089   6.447   8.627
72803SOL     OW20182  12.145  12.293   8.914
72803SOL    HW120183  12.209  12.231   8.948
72803SOL    HW220184  12.060  12.256   8.940
72804SOL     OW20185   6.555   4.608  10.173
72804SOL    HW120186   6.606   4.640  10.247
72804SOL    HW220187   6.577   4.514  10.168
72805SOL     OW20188   9.058   8.820  12.381
72805SOL    HW120189   9.080   8.874  12.305
72805SOL    HW220190   9.139   8.820  12.433
72806SOL     OW20191   5.265  10.933   8.660
72806SOL    HW120192   5.227  10.887   8.735
72806SOL    HW220193   5.329  10.993   8.699
72807SOL     OW20194  10.407   7.561  11.309
72807SOL    HW120195  10.319   7.594  11.291
72807SOL    HW220196  10.461   7.594  11.237
72808SOL     OW20197   3.607   7.954   0.639
72808SOL    HW120198   3.565   7.873   0.607
72808SOL    HW220199   3.642   7.930   0.725
72809SOL     OW20200   9.967   8.660   0.403
72809SOL    HW120201  10.041   8.704   0.444
72809SOL    HW220202  10.005   8.582   0.362
72810SOL     OW20203   8.786   2.547   9.198
72810SOL    HW120204   8.721   2.606   9.236
72810SOL    HW220205   8.745   2.461   9.202
72811SOL     OW20206  13.926   9.629   3.733
72811SOL    HW120207  13.996   9.689   3.707
72811SOL    HW220208  13.864   9.633   3.661
72812SOL     OW20209  10.160  11.884   9.461
72812SOL    HW120210  10.170  11.823   9.534
72812SOL    HW220211  10.075  11.863   9.423
72813SOL     OW20212   6.158   9.525   2.442
72813SOL    HW120213   6.218   9.548   2.372
72813SOL    HW220214   6.209   9.534   2.522
72814SOL     OW20215   4.203  14.694  14.301
72814SOL    HW120216   4.109  14.712  14.295
72814SOL    HW220217   4.232  14.690  14.210
72815SOL     OW20218   8.497  14.696  10.935
72815SOL    HW120219   8.408  14.717  10.962
72815SOL    HW220220   8.487  14.649  10.852
72816SOL     OW20221   6.597   1.108   0.351
72816SOL    HW120222   6.503   1.123   0.353
72816SOL    HW220223   6.607   1.021   0.311
72817SOL     OW20224   2.544   1.940   0.008
72817SOL    HW120225   2.561   1.859  14.839
72817SOL    HW220226   2.472   1.981  14.838
72818SOL     OW20227   7.763   4.654   3.472
72818SOL    HW120228   7.841   4.613   3.510
72818SOL    HW220229   7.751   4.734   3.522
72819SOL     OW20230  14.042   9.839   0.648
72819SOL    HW120231  14.135   9.839   0.623
72819SOL    HW220232  14.022   9.930   0.670
72820SOL     OW20233   4.121  12.003   7.901
72820SOL    HW120234   4.214  11.982   7.907
72820SOL    HW220235   4.077  11.932   7.949
72821SOL     OW20236   3.228   9.295   3.265
72821SOL    HW120237   3.296   9.360   3.284
72821SOL    HW220238   3.177   9.290   3.345
72822SOL     OW20239  10.667   3.476   7.259
72822SOL    HW120240  10.682   3.520   7.342
72822SOL    HW220241  10.698   3.386   7.274
72823SOL     OW20242   2.026  11.058   3.307
72823SOL    HW120243   2.038  11.152   3.294
72823SOL    HW220244   2.089  11.035   3.376
72824SOL     OW20245  11.933  10.896   2.879
72824SOL    HW120246  11.846  10.928   2.857
72824SOL    HW220247  11.917  10.813   2.925
72825SOL     OW20248   5.537  10.027   1.760
72825SOL    HW120249   5.460   9.985   1.799
72825SOL    HW220250   5.529  10.119   1.786
72826SOL     OW20251   7.785   7.618   3.339
72826SOL    HW120252   7.790   7.681   3.268
72826SOL    HW220253   7.773   7.533   3.296
72827SOL     OW20254   2.984  14.615   2.116
72827SOL    HW120255   3.043  14.642   2.187
72827SOL    HW220256   3.029  14.542   2.073
72828SOL     OW20257   0.432   5.491   7.840
72828SOL    HW120258   0.397   5.427   7.778
72828SOL    HW220259   0.389   5.470   7.923
72829SOL     OW20260   8.494   2.520   0.863
72829SOL    HW120261   8.501   2.534   0.768
72829SOL    HW220262   8.561   2.454   0.883
72830SOL     OW20263  13.590   9.886   6.551
72830SOL    HW120264  13.546   9.817   6.502
72830SOL    HW220265  13.562   9.872   6.642
72831SOL     OW20266   7.516   2.284  12.644
72831SOL    HW120267   7.455   2.265  12.716
72831SOL    HW220268   7.519   2.380  12.640
72832SOL     OW20269   8.615   5.421  10.895
72832SOL    HW120270   8.627   5.445  10.987
72832SOL    HW220271   8.656   5.335  10.886
72833SOL     OW20272  10.605   8.129   6.899
72833SOL    HW120273  10.562   8.090   6.823
72833SOL    HW220274  10.586   8.222   6.893
72834SOL     OW20275   0.592  11.364   1.754
72834SOL    HW120276   0.639  11.407   1.825
72834SOL    HW220277   0.571  11.434   1.692
72835SOL     OW20278   7.343   1.614   8.564
72835SOL    HW120279   7.411   1.633   8.628
72835SOL    HW220280   7.376   1.648   8.481
72836SOL     OW20281   6.694   1.254  14.659
72836SOL    HW120282   6.682   1.239  14.753
72836SOL    HW220283   6.706   1.349  14.651
72837SOL     OW20284   2.053   6.140   2.829
72837SOL    HW120285   2.070   6.087   2.907
72837SOL    HW220286   2.131   6.195   2.820
72838SOL     OW20287   0.380  14.049  14.485
72838SOL    HW120288   0.438  13.980  14.453
72838SOL    HW220289   0.310  14.053  14.419
72839SOL     OW20290   5.954   8.421   8.142
72839SOL    HW120291   5.988   8.353   8.083
72839SOL    HW220292   6.031   8.450   8.192
72840SOL     OW20293   1.825   9.405   6.974
72840SOL    HW120294   1.822   9.340   7.044
72840SOL    HW220295   1.849   9.486   7.018
72841SOL     OW20296   8.594   7.009  10.426
72841SOL    HW120297   8.593   7.103  10.412
72841SOL    HW220298   8.678   6.992  10.470
72842SOL     OW20299   4.361  14.157   7.847
72842SOL    HW120300   4.441  14.205   7.823
72842SOL    HW220301   4.369  14.073   7.802
72843SOL     OW20302   6.078  13.098  12.781
72843SOL    HW120303   6.015  13.034  12.749
72843SOL    HW220304   6.163  13.060  12.757
72844SOL     OW20305   9.442   7.683  12.237
72844SOL    HW120306   9.487   7.724  12.163
72844SOL    HW220307   9.462   7.740  12.311
72845SOL     OW20308   1.696   8.182  13.150
72845SOL    HW120309   1.773   8.137  13.115
72845SOL    HW220310   1.684   8.144  13.237
72846SOL     OW20311   2.098  10.732   8.070
72846SOL    HW120312   2.157  10.780   8.012
72846SOL    HW220313   2.010  10.760   8.044
72847SOL     OW20314  13.578  10.099   0.191
72847SOL    HW120315  13.578  10.037   0.265
72847SOL    HW220316  13.628  10.054   0.123
72848SOL     OW20317   7.943  10.171   6.528
72848SOL    HW120318   7.921  10.105   6.462
72848SOL    HW220319   8.031  10.148   6.558
72849SOL     OW20320  11.047   5.875   4.936
72849SOL    HW120321  11.081   5.929   5.007
72849SOL    HW220322  10.953   5.896   4.932
72850SOL     OW20323   7.246   5.423  11.935
72850SOL    HW120324   7.336   5.396  11.921
72850SOL    HW220325   7.203   5.345  11.972
72851SOL     OW20326   6.315   0.729   0.710
72851SOL    HW120327   6.360   0.685   0.783
72851SOL    HW220328   6.246   0.780   0.752
72852SOL     OW20329   9.830   3.961   0.138
72852SOL    HW120330   9.911   3.910   0.138
72852SOL    HW220331   9.784   3.933   0.217
72853SOL     OW20332  10.947   3.255   3.547
72853SOL    HW120333  10.974   3.337   3.588
72853SOL    HW220334  10.877   3.281   3.487
72854SOL     OW20335   3.756   3.241   8.281
72854SOL    HW120336   3.693   3.170   8.297
72854SOL    HW220337   3.736   3.305   8.349
72855SOL     OW20338   7.786  10.225  13.835
72855SOL    HW120339   7.788  10.222  13.739
72855SOL    HW220340   7.771  10.134  13.861
72856SOL     OW20341   9.377   4.110   5.238
72856SOL    HW120342   9.335   4.175   5.295
72856SOL    HW220343   9.305   4.072   5.188
72857SOL     OW20344   5.431   7.193   7.522
72857SOL    HW120345   5.396   7.131   7.586
72857SOL    HW220346   5.388   7.168   7.440
72858SOL     OW20347   1.084  12.674   4.822
72858SOL    HW120348   1.141  12.731   4.770
72858SOL    HW220349   1.126  12.588   4.818
72859SOL     OW20350   4.325   2.927   1.938
72859SOL    HW120351   4.336   2.978   2.018
72859SOL    HW220352   4.414   2.913   1.906
72860SOL     OW20353  11.782   1.633  13.946
72860SOL    HW120354  11.832   1.553  13.927
72860SOL    HW220355  11.829   1.674  14.019
72861SOL     OW20356   1.208   1.076   7.802
72861SOL    HW120357   1.165   1.099   7.885
72861SOL    HW220358   1.143   1.094   7.735
72862SOL     OW20359   7.820   8.771  11.416
72862SOL    HW120360   7.766   8.789  11.493
72862SOL    HW220361   7.798   8.840  11.354
72863SOL     OW20362   8.295  11.866   7.003
72863SOL    HW120363   8.391  11.863   6.996
72863SOL    HW220364   8.270  11.778   7.030
72864SOL     OW20365  13.731   7.166   7.081
72864SOL    HW120366  13.727   7.071   7.088
72864SOL    HW220367  13.822   7.186   7.062
72865SOL     OW20368  14.306   5.553  14.202
72865SOL    HW120369  14.260   5.527  14.122
72865SOL    HW220370  14.349   5.474  14.232
72866SOL     OW20371   0.659  13.527  12.455
72866SOL    HW120372   0.650  13.533  12.550
72866SOL    HW220373   0.708  13.605  12.430
72867SOL     OW20374  11.839  13.641   7.007
72867SOL    HW120375  11.805  13.674   7.090
72867SOL    HW220376  11.809  13.550   7.003
72868SOL     OW20377   5.986   6.876   6.196
72868SOL    HW120378   5.929   6.899   6.270
72868SOL    HW220379   6.034   6.956   6.176
72869SOL     OW20380   7.163  14.647   1.799
72869SOL    HW120381   7.226  14.690   1.857
72869SOL    HW220382   7.128  14.574   1.851
72870SOL     OW20383   3.174   7.075   0.899
72870SOL    HW120384   3.112   7.003   0.914
72870SOL    HW220385   3.182   7.118   0.984
72871SOL     OW20386   4.118   6.890   1.750
72871SOL    HW120387   4.108   6.823   1.683
72871SOL    HW220388   4.210   6.914   1.748
72872SOL     OW20389   2.368  10.828   8.261
72872SOL    HW120390   2.296  10.879   8.298
72872SOL    HW220391   2.389  10.872   8.179
72873SOL     OW20392   8.689  10.789   6.348
72873SOL    HW120393   8.726  10.737   6.276
72873SOL    HW220394   8.595  10.790   6.331
72874SOL     OW20395   4.602   7.297  14.265
72874SOL    HW120396   4.567   7.219  14.223
72874SOL    HW220397   4.566   7.370  14.215
72875SOL     OW20398   5.586   3.265  11.515
72875SOL    HW120399   5.581   3.296  11.606
72875SOL    HW220400   5.518   3.198  11.510
72876SOL     OW20401   6.370   1.322   3.912
72876SOL    HW120402   6.454   1.314   3.865
72876SOL    HW220403   6.372   1.251   3.976
72877SOL     OW20404   3.943   5.954   7.331
72877SOL    HW120405   4.022   5.987   7.374
72877SOL    HW220406   3.934   6.008   7.253
72878SOL     OW20407  11.819   0.761  13.863
72878SOL    HW120408  11.786   0.817  13.792
72878SOL    HW220409  11.900   0.723  13.829
72879SOL     OW20410  12.778  14.120   6.756
72879SOL    HW120411  12.786  14.215   6.749
72879SOL    HW220412  12.795  14.100   6.848
72880SOL     OW20413  11.898   8.004   6.824
72880SOL    HW120414  11.851   8.027   6.744
72880SOL    HW220415  11.832   7.964   6.881
72881SOL     OW20416   8.948  11.070   5.662
72881SOL    HW120417   9.036  11.034   5.647
72881SOL    HW220418   8.906  11.007   5.720
72882SOL     OW20419   8.405   8.014   2.745
72882SOL    HW120420   8.455   7.973   2.674
72882SOL    HW220421   8.454   7.991   2.825
72883SOL     OW20422   1.311   8.166  11.892
72883SOL    HW120423   1.309   8.079  11.852
72883SOL    HW220424   1.312   8.149  11.986
72884SOL     OW20425  11.617  14.854  10.035
72884SOL    HW120426  11.551   0.012   9.977
72884SOL    HW220427  11.661  14.787   9.983
72885SOL     OW20428   4.387  10.967   5.498
72885SOL    HW120429   4.373  10.873   5.498
72885SOL    HW220430   4.426  10.986   5.583
72886SOL     OW20431  13.471  13.933   2.169
72886SOL    HW120432  13.527  13.877   2.116
72886SOL    HW220433  13.487  14.022   2.135
72887SOL     OW20434   8.293   5.049   9.589
72887SOL    HW120435   8.232   5.121   9.605
72887SOL    HW220436   8.257   5.004   9.512
72888SOL     OW20437   4.110   1.109   4.605
72888SOL    HW120438   4.106   1.013   4.610
72888SOL    HW220439   4.141   1.136   4.692
72889SOL     OW20440  10.335  10.521   3.406
72889SOL    HW120441  10.304  10.607   3.434
72889SOL    HW220442  10.256  10.467   3.403
72890SOL     OW20443   1.762   9.074   7.518
72890SOL    HW120444   1.803   9.140   7.574
72890SOL    HW220445   1.824   9.001   7.517
72891SOL     OW20446   7.460   6.523   9.773
72891SOL    HW120447   7.433   6.554   9.860
72891SOL    HW220448   7.425   6.588   9.713
72892SOL     OW20449  11.611   7.340  14.814
72892SOL    HW120450  11.550   7.276  14.851
72892SOL    HW220451  11.629   7.401   0.007
72893SOL     OW20452   6.992   7.737   5.789
72893SOL    HW120453   7.082   7.705   5.794
72893SOL    HW220454   6.997   7.814   5.731
72894SOL     OW20455   0.202   2.114  11.649
72894SOL    HW120456   0.262   2.039  11.652
72894SOL    HW220457   0.137   2.095  11.716
72895SOL     OW20458  14.010  10.607  13.409
72895SOL    HW120459  14.027  10.678  13.346
72895SOL    HW220460  14.001  10.529  13.355
72896SOL     OW20461   4.771   1.211  11.454
72896SOL    HW120462   4.680   1.202  11.482
72896SOL    HW220463   4.816   1.137  11.495
72897SOL     OW20464   3.524   3.362   1.921
72897SOL    HW120465   3.548   3.451   1.895
72897SOL    HW220466   3.467   3.374   1.997
72898SOL     OW20467   4.245   4.765   5.309
72898SOL    HW120468   4.223   4.856   5.329
72898SOL    HW220469   4.313   4.742   5.373
72899SOL     OW20470  14.006   2.006   4.419
72899SOL    HW120471  13.946   2.061   4.369
72899SOL    HW220472  14.079   2.063   4.441
72900SOL     OW20473   0.251   2.782   0.280
72900SOL    HW120474   0.306   2.859   0.266
72900SOL    HW220475   0.295   2.733   0.350
72901SOL     OW20476   5.180   2.208  12.605
72901SOL    HW120477   5.239   2.159  12.662
72901SOL    HW220478   5.211   2.190  12.516
72902SOL     OW20479   7.872  13.983   1.964
72902SOL    HW120480   7.967  13.971   1.972
72902SOL    HW220481   7.837  13.945   2.044
72903SOL     OW20482   5.846  12.439   3.220
72903SOL    HW120483   5.831  12.438   3.125
72903SOL    HW220484   5.888  12.355   3.238
72904SOL     OW20485  13.281   4.310   7.314
72904SOL    HW120486  13.287   4.403   7.292
72904SOL    HW220487  13.194   4.284   7.284
72905SOL     OW20488  13.706   8.629   0.627
72905SOL    HW120489  13.796   8.640   0.657
72905SOL    HW220490  13.709   8.652   0.534
72906SOL     OW20491   1.722  14.228   8.061
72906SOL    HW120492   1.646  14.272   8.021
72906SOL    HW220493   1.731  14.270   8.146
72907SOL     OW20494   8.805   5.606   4.340
72907SOL    HW120495   8.758   5.682   4.306
72907SOL    HW220496   8.877   5.594   4.278
72908SOL     OW20497   1.095   4.541  11.746
72908SOL    HW120498   1.034   4.543  11.819
72908SOL    HW220499   1.131   4.629  11.742
72909SOL     OW20500   3.098   4.540   7.823
72909SOL    HW120501   3.041   4.463   7.825
72909SOL    HW220502   3.041   4.613   7.849
72910SOL     OW20503   5.021   4.307   0.008
72910SOL    HW120504   5.033   4.353  14.803
72910SOL    HW220505   5.105   4.264   0.024
72911SOL     OW20506   4.450  13.015   2.668
72911SOL    HW120507   4.395  13.048   2.597
72911SOL    HW220508   4.537  13.009   2.629
72912SOL     OW20509  11.079  13.084  13.309
72912SOL    HW120510  11.014  13.095  13.239
72912SOL    HW220511  11.149  13.033  13.268
72913SOL     OW20512   1.580  12.642   8.978
72913SOL    HW120513   1.640  12.610   9.046
72913SOL    HW220514   1.494  12.609   9.006
72914SOL     OW20515   9.056   3.869  10.690
72914SOL    HW120516   9.069   3.908  10.777
72914SOL    HW220517   8.962   3.881  10.672
72915SOL     OW20518  13.314   3.909  12.386
72915SOL    HW120519  13.327   3.821  12.350
72915SOL    HW220520  13.248   3.949  12.328
72916SOL     OW20521  12.379   6.647   6.998
72916SOL    HW120522  12.422   6.569   6.962
72916SOL    HW220523  12.299   6.656   6.945
72917SOL     OW20524   5.605  11.733   7.352
72917SOL    HW120525   5.680  11.747   7.410
72917SOL    HW220526   5.534  11.784   7.391
72918SOL     OW20527  14.422   2.922   8.936
72918SOL    HW120528  14.331   2.896   8.949
72918SOL    HW220529  14.437   2.993   8.999
72919SOL     OW20530   2.136  13.398   9.773
72919SOL    HW120531   2.189  13.421   9.696
72919SOL    HW220532   2.178  13.446   9.845
72920SOL     OW20533  11.176  11.470   3.301
72920SOL    HW120534  11.090  11.448   3.267
72920SOL    HW220535  11.233  11.469   3.224
72921SOL     OW20536   5.966  13.856   3.010
72921SOL    HW120537   6.046  13.818   3.045
72921SOL    HW220538   5.898  13.832   3.073
72922SOL     OW20539  11.371   6.055   7.761
72922SOL    HW120540  11.289   6.026   7.800
72922SOL    HW220541  11.390   6.139   7.805
72923SOL     OW20542   1.903   3.977   7.650
72923SOL    HW120543   1.884   3.916   7.579
72923SOL    HW220544   1.978   3.939   7.696
72924SOL     OW20545   5.929  13.906   3.313
72924SOL    HW120546   6.001  13.929   3.256
72924SOL    HW220547   5.969  13.896   3.400
72925SOL     OW20548  12.885   6.369   2.823
72925SOL    HW120549  12.950   6.432   2.792
72925SOL    HW220550  12.909   6.287   2.778
72926SOL     OW20551  10.048   2.985  13.037
72926SOL    HW120552  10.052   3.026  12.950
72926SOL    HW220553  10.092   3.048  13.095
72927SOL     OW20554  11.780   3.495   6.375
72927SOL    HW120555  11.816   3.519   6.290
72927SOL    HW220556  11.693   3.461   6.356
72928SOL     OW20557   2.215   0.576   6.823
72928SOL    HW120558   2.188   0.644   6.884
72928SOL    HW220559   2.308   0.562   6.842
72929SOL     OW20560   4.122   4.099  10.780
72929SOL    HW120561   4.087   4.112  10.692
72929SOL    HW220562   4.109   4.006  10.798
72930SOL     OW20563  14.830   7.736  12.221
72930SOL    HW120564  14.791   7.686  12.150
72930SOL    HW220565   0.016   7.793  12.179
72931SOL     OW20566   7.004  11.492  12.515
72931SOL    HW120567   7.091  11.496  12.475
72931SOL    HW220568   6.975  11.402  12.499
72932SOL     OW20569   8.974   6.246  11.772
72932SOL    HW120570   9.005   6.335  11.751
72932SOL    HW220571   9.020   6.190  11.709
72933SOL     OW20572   2.481   3.595  11.807
72933SOL    HW120573   2.450   3.553  11.726
72933SOL    HW220574   2.575   3.577  11.808
72934SOL     OW20575   9.144   5.381   1.585
72934SOL    HW120576   9.230   5.407   1.554
72934SOL    HW220577   9.160   5.329   1.663
72935SOL     OW20578   1.661  11.488  11.852
72935SOL    HW120579   1.685  11.564  11.906
72935SOL    HW220580   1.705  11.414  11.894
72936SOL     OW20581  13.419  13.670  11.195
72936SOL    HW120582  13.363  13.632  11.263
72936SOL    HW220583  13.446  13.754  11.230
72937SOL     OW20584  12.950   2.058  10.429
72937SOL    HW120585  12.977   2.149  10.433
72937SOL    HW220586  12.982   2.027  10.344
72938SOL     OW20587  10.588   3.694  14.199
72938SOL    HW120588  10.673   3.727  14.170
72938SOL    HW220589  10.528   3.717  14.128
72939SOL     OW20590   7.248   7.747  12.734
72939SOL    HW120591   7.330   7.698  12.732
72939SOL    HW220592   7.208   7.724  12.817
72940SOL     OW20593   7.689   7.877  13.905
72940SOL    HW120594   7.717   7.932  13.978
72940SOL    HW220595   7.731   7.793  13.921
72941SOL     OW20596   8.241  14.283  12.961
72941SOL    HW120597   8.262  14.372  12.990
72941SOL    HW220598   8.323  14.235  12.971
72942SOL     OW20599   9.766  12.948  12.939
72942SOL    HW120600   9.827  12.984  12.875
72942SOL    HW220601   9.697  12.907  12.887
72943SOL     OW20602  13.097   8.377   0.201
72943SOL    HW120603  13.039   8.348   0.271
72943SOL    HW220604  13.170   8.418   0.246
72944SOL     OW20605   1.862   1.257  14.626
72944SOL    HW120606   1.839   1.273  14.718
72944SOL    HW220607   1.957   1.248  14.627
72945SOL     OW20608  14.428  10.273  13.799
72945SOL    HW120609  14.487  10.283  13.874
72945SOL    HW220610  14.361  10.212  13.829
72946SOL     OW20611   5.220  11.773  14.446
72946SOL    HW120612   5.273  11.790  14.367
72946SOL    HW220613   5.285  11.764  14.516
72947SOL     OW20614   3.400   9.575  13.957
72947SOL    HW120615   3.405   9.523  14.037
72947SOL    HW220616   3.439   9.520  13.889
72948SOL     OW20617   5.627   4.531   1.030
72948SOL    HW120618   5.634   4.475   1.107
72948SOL    HW220619   5.552   4.588   1.048
72949SOL     OW20620   5.515  11.768  10.648
72949SOL    HW120621   5.526  11.675  10.665
72949SOL    HW220622   5.452  11.797  10.714
72950SOL     OW20623   8.384  14.047   3.825
72950SOL    HW120624   8.291  14.049   3.850
72950SOL    HW220625   8.413  14.138   3.832
72951SOL     OW20626  11.472   7.096   3.578
72951SOL    HW120627  11.434   7.069   3.662
72951SOL    HW220628  11.492   7.189   3.589
72952SOL     OW20629  11.007  11.274  14.213
72952SOL    HW120630  11.060  11.288  14.134
72952SOL    HW220631  10.970  11.186  14.202
72953SOL     OW20632   5.492   8.834   2.662
72953SOL    HW120633   5.460   8.799   2.745
72953SOL    HW220634   5.585   8.808   2.660
72954SOL     OW20635  14.680   6.130   2.364
72954SOL    HW120636  14.597   6.178   2.364
72954SOL    HW220637  14.662   6.050   2.314
72955SOL     OW20638   1.813  10.806  14.195
72955SOL    HW120639   1.891  10.777  14.242
72955SOL    HW220640   1.748  10.819  14.263
72956SOL     OW20641  12.761   7.459  11.619
72956SOL    HW120642  12.709   7.534  11.649
72956SOL    HW220643  12.839   7.460  11.675
72957SOL     OW20644   6.151   2.643  14.650
72957SOL    HW120645   6.193   2.566  14.688
72957SOL    HW220646   6.081   2.665  14.711
72958SOL     OW20647   2.493   4.365  14.224
72958SOL    HW120648   2.515   4.346  14.133
72958SOL    HW220649   2.525   4.454  14.238
72959SOL     OW20650   1.953   8.214   6.051
72959SOL    HW120651   1.893   8.153   6.093
72959SOL    HW220652   2.038   8.194   6.088
72960SOL     OW20653   0.540   0.204  14.527
72960SOL    HW120654   0.484   0.137  14.489
72960SOL    HW220655   0.480   0.269  14.564
72961SOL     OW20656   0.160   5.850   1.487
72961SOL    HW120657   0.202   5.923   1.533
72961SOL    HW220658   0.159   5.878   1.395
72962SOL     OW20659   6.024   3.873   5.770
72962SOL    HW120660   6.046   3.899   5.680
72962SOL    HW220661   6.074   3.793   5.785
72963SOL     OW20662   2.049  12.824  10.855
72963SOL    HW120663   2.064  12.745  10.909
72963SOL    HW220664   2.130  12.873  10.862
72964SOL     OW20665  12.383   5.186   5.764
72964SOL    HW120666  12.294   5.160   5.783
72964SOL    HW220667  12.389   5.277   5.794
72965SOL     OW20668   5.880  10.906   6.684
72965SOL    HW120669   5.922  10.927   6.767
72965SOL    HW220670   5.811  10.844   6.708
72966SOL     OW20671   9.135   9.162  14.685
72966SOL    HW120672   9.051   9.150  14.731
72966SOL    HW220673   9.111   9.194  14.598
72967SOL     OW20674   4.031  11.068   0.390
72967SOL    HW120675   3.936  11.056   0.389
72967SOL    HW220676   4.064  10.996   0.444
72968SOL     OW20677   7.095   8.641   0.776
72968SOL    HW120678   7.139   8.631   0.860
72968SOL    HW220679   7.054   8.727   0.780
72969SOL     OW20680   3.899  14.219   5.691
72969SOL    HW120681   3.818  14.234   5.641
72969SOL    HW220682   3.966  14.206   5.624
72970SOL     OW20683  12.320   6.081   8.599
72970SOL    HW120684  12.302   6.063   8.691
72970SOL    HW220685  12.333   6.176   8.596
72971SOL     OW20686   3.884  12.890   4.160
72971SOL    HW120687   3.947  12.963   4.156
72971SOL    HW220688   3.855  12.878   4.070
72972SOL     OW20689   3.626   7.226   8.983
72972SOL    HW120690   3.660   7.237   9.072
72972SOL    HW220691   3.555   7.290   8.977
72973SOL     OW20692   3.460  14.576  11.640
72973SOL    HW120693   3.553  14.568  11.662
72973SOL    HW220694   3.444  14.507  11.576
72974SOL     OW20695   9.539   6.562   1.554
72974SOL    HW120696   9.502   6.632   1.608
72974SOL    HW220697   9.504   6.481   1.593
72975SOL     OW20698  12.388   8.399  12.488
72975SOL    HW120699  12.354   8.383  12.576
72975SOL    HW220700  12.321   8.361  12.430
72976SOL     OW20701   3.412  10.842  12.468
72976SOL    HW120702   3.333  10.788  12.475
72976SOL    HW220703   3.484  10.783  12.486
72977SOL     OW20704   9.815  11.742   3.050
72977SOL    HW120705   9.835  11.659   3.006
72977SOL    HW220706   9.894  11.762   3.100
72978SOL     OW20707   1.802   6.260   6.572
72978SOL    HW120708   1.804   6.166   6.560
72978SOL    HW220709   1.891   6.283   6.600
72979SOL     OW20710   3.636   8.329   9.116
72979SOL    HW120711   3.720   8.357   9.082
72979SOL    HW220712   3.572   8.359   9.052
72980SOL     OW20713   2.753   1.999   2.280
72980SOL    HW120714   2.785   1.927   2.225
72980SOL    HW220715   2.669   1.969   2.314
72981SOL     OW20716   1.605   0.624  12.192
72981SOL    HW120717   1.552   0.555  12.232
72981SOL    HW220718   1.684   0.579  12.161
72982SOL     OW20719   5.993   6.089   2.282
72982SOL    HW120720   6.034   6.014   2.324
72982SOL    HW220721   5.900   6.066   2.275
72983SOL     OW20722  13.178  14.834   5.329
72983SOL    HW120723  13.249   0.019   5.341
72983SOL    HW220724  13.212  14.752   5.364
72984SOL     OW20725  11.397   9.935  13.461
72984SOL    HW120726  11.384  10.017  13.509
72984SOL    HW220727  11.469   9.954  13.401
72985SOL     OW20728  14.435   6.685   8.534
72985SOL    HW120729  14.380   6.661   8.609
72985SOL    HW220730  14.451   6.602   8.489
72986SOL     OW20731   9.322   6.076  12.496
72986SOL    HW120732   9.403   6.026  12.481
72986SOL    HW220733   9.339   6.162  12.457
72987SOL     OW20734   8.768   7.027   1.709
72987SOL    HW120735   8.786   7.091   1.778
72987SOL    HW220736   8.683   6.990   1.731
72988SOL     OW20737  13.503   8.769   6.590
72988SOL    HW120738  13.495   8.752   6.496
72988SOL    HW220739  13.590   8.735   6.613
72989SOL     OW20740  11.939   1.856  12.729
72989SOL    HW120741  12.013   1.846  12.789
72989SOL    HW220742  11.937   1.950  12.710
72990SOL     OW20743   8.435   7.780  10.724
72990SOL    HW120744   8.490   7.747  10.795
72990SOL    HW220745   8.493   7.780  10.647
72991SOL     OW20746   3.311   1.125   2.919
72991SOL    HW120747   3.252   1.195   2.946
72991SOL    HW220748   3.397   1.166   2.915
72992SOL     OW20749   5.759  12.027   4.810
72992SOL    HW120750   5.749  12.065   4.723
72992SOL    HW220751   5.676  11.983   4.827
72993SOL     OW20752   8.021  14.047  11.345
72993SOL    HW120753   7.957  14.015  11.410
72993SOL    HW220754   8.040  14.137  11.373
72994SOL     OW20755   1.364   9.784   7.915
72994SOL    HW120756   1.404   9.759   7.998
72994SOL    HW220757   1.298   9.717   7.898
72995SOL     OW20758   8.002   3.927   3.468
72995SOL    HW120759   7.986   3.832   3.472
72995SOL    HW220760   7.962   3.954   3.385
72996SOL     OW20761  11.986   2.185   5.209
72996SOL    HW120762  12.001   2.201   5.116
72996SOL    HW220763  12.070   2.152   5.242
72997SOL     OW20764  13.502   1.386   6.085
72997SOL    HW120765  13.425   1.344   6.124
72997SOL    HW220766  13.575   1.328   6.107
72998SOL     OW20767  12.814  11.762  11.101
72998SOL    HW120768  12.778  11.828  11.043
72998SOL    HW220769  12.906  11.754  11.075
72999SOL     OW20770   2.264   1.680   9.659
72999SOL    HW120771   2.181   1.709   9.697
72999SOL    HW220772   2.238   1.633   9.579
73000SOL     OW20773  13.965   5.953   9.193
73000SOL    HW120774  14.049   5.913   9.215
73000SOL    HW220775  13.948   6.014   9.264
73001SOL     OW20776   8.462  13.765   5.680
73001SOL    HW120777   8.384  13.734   5.725
73001SOL    HW220778   8.534  13.713   5.716
73002SOL     OW20779   9.056  14.152  12.922
73002SOL    HW120780   9.030  14.118  13.008
73002SOL    HW220781   9.033  14.083  12.860
73003SOL     OW20782  10.259  11.578  14.522
73003SOL    HW120783  10.236  11.628  14.444
73003SOL    HW220784  10.207  11.498  14.516
73004SOL     OW20785   2.326  12.998   1.554
73004SOL    HW120786   2.338  12.932   1.621
73004SOL    HW220787   2.345  12.953   1.472
73005SOL     OW20788  10.001   7.319   9.162
73005SOL    HW120789   9.923   7.266   9.181
73005SOL    HW220790   9.978   7.365   9.081
73006SOL     OW20791   0.404   6.044   1.384
73006SOL    HW120792   0.491   6.040   1.343
73006SOL    HW220793   0.348   5.994   1.325
73007SOL     OW20794   0.770  10.694  10.536
73007SOL    HW120795   0.689  10.652  10.508
73007SOL    HW220796   0.750  10.787  10.537
73008SOL     OW20797   3.718   4.116  13.684
73008SOL    HW120798   3.690   4.119  13.775
73008SOL    HW220799   3.685   4.198  13.647
73009SOL     OW20800  12.870   9.244  14.399
73009SOL    HW120801  12.906   9.164  14.436
73009SOL    HW220802  12.932   9.270  14.331
73010SOL     OW20803   7.940   8.428  14.128
73010SOL    HW120804   7.917   8.435  14.036
73010SOL    HW220805   7.863   8.387  14.169
73011SOL     OW20806   9.591   9.951   7.493
73011SOL    HW120807   9.508   9.965   7.538
73011SOL    HW220808   9.632  10.038   7.492
73012SOL     OW20809   8.470   9.021   4.639
73012SOL    HW120810   8.407   9.064   4.582
73012SOL    HW220811   8.419   8.993   4.715
73013SOL     OW20812   3.273  10.124   8.076
73013SOL    HW120813   3.258  10.033   8.100
73013SOL    HW220814   3.366  10.138   8.091
73014SOL     OW20815   1.335  14.386   8.756
73014SOL    HW120816   1.313  14.325   8.827
73014SOL    HW220817   1.332  14.472   8.797
73015SOL     OW20818  12.352   0.447  13.574
73015SOL    HW120819  12.261   0.476  13.568
73015SOL    HW220820  12.385   0.452  13.485
73016SOL     OW20821   3.503   6.441  10.801
73016SOL    HW120822   3.438   6.374  10.823
73016SOL    HW220823   3.540   6.411  10.718
73017SOL     OW20824   8.887   5.791   9.011
73017SOL    HW120825   8.864   5.884   9.018
73017SOL    HW220826   8.901   5.777   8.918
73018SOL     OW20827  11.254  14.575   8.379
73018SOL    HW120828  11.284  14.504   8.436
73018SOL    HW220829  11.331  14.599   8.328
73019SOL     OW20830   6.971   1.316   7.716
73019SOL    HW120831   6.918   1.310   7.637
73019SOL    HW220832   7.013   1.401   7.711
73020SOL     OW20833   0.576   8.140  10.285
73020SOL    HW120834   0.602   8.059  10.328
73020SOL    HW220835   0.633   8.207  10.323
73021SOL     OW20836   5.938   0.754   2.991
73021SOL    HW120837   6.027   0.719   2.989
73021SOL    HW220838   5.927   0.786   3.080
73022SOL     OW20839   1.848   4.131  12.172
73022SOL    HW120840   1.943   4.141  12.181
73022SOL    HW220841   1.812   4.170  12.252
73023SOL     OW20842   9.571  10.444   3.040
73023SOL    HW120843   9.550  10.352   3.026
73023SOL    HW220844   9.492  10.491   3.016
73024SOL     OW20845  11.086   6.685   7.645
73024SOL    HW120846  11.015   6.642   7.691
73024SOL    HW220847  11.073   6.778   7.660
73025SOL     OW20848   0.447  13.927  11.278
73025SOL    HW120849   0.478  13.887  11.360
73025SOL    HW220850   0.389  13.997  11.306
73026SOL     OW20851  10.420   5.100  14.831
73026SOL    HW120852  10.477   5.132   0.022
73026SOL    HW220853  10.448   5.146  14.752
73027SOL     OW20854   9.192  10.504  12.153
73027SOL    HW120855   9.188  10.412  12.128
73027SOL    HW220856   9.107  10.540  12.126
73028SOL     OW20857  14.217   2.098   9.783
73028SOL    HW120858  14.184   2.028   9.838
73028SOL    HW220859  14.238   2.054   9.700
73029SOL     OW20860  11.205   8.717   7.932
73029SOL    HW120861  11.120   8.725   7.889
73029SOL    HW220862  11.190   8.747   8.022
73030SOL     OW20863   1.742   8.838  14.003
73030SOL    HW120864   1.825   8.853  13.958
73030SOL    HW220865   1.688   8.791  13.940
73031SOL     OW20866   9.718  12.517   7.057
73031SOL    HW120867   9.706  12.426   7.085
73031SOL    HW220868   9.643  12.563   7.094
73032SOL     OW20869   6.890  14.372   0.787
73032SOL    HW120870   6.935  14.432   0.847
73032SOL    HW220871   6.888  14.289   0.833
73033SOL     OW20872  11.804  11.976  11.055
73033SOL    HW120873  11.780  12.065  11.080
73033SOL    HW220874  11.835  11.984  10.965
73034SOL     OW20875   1.994  11.075  12.391
73034SOL    HW120876   1.925  11.137  12.367
73034SOL    HW220877   1.956  10.989  12.375
73035SOL     OW20878  10.680   6.301  10.299
73035SOL    HW120879  10.585   6.297  10.285
73035SOL    HW220880  10.694   6.254  10.381
73036SOL     OW20881   8.705   6.169   2.805
73036SOL    HW120882   8.715   6.239   2.870
73036SOL    HW220883   8.789   6.122   2.809
73037SOL     OW20884   5.181   3.087  10.158
73037SOL    HW120885   5.238   3.136  10.099
73037SOL    HW220886   5.180   3.138  10.239
73038SOL     OW20887  13.065   6.598   2.839
73038SOL    HW120888  13.033   6.687   2.824
73038SOL    HW220889  13.097   6.599   2.929
73039SOL     OW20890   5.779  12.510   8.209
73039SOL    HW120891   5.804  12.584   8.154
73039SOL    HW220892   5.719  12.458   8.155
73040SOL     OW20893   7.906   1.003   4.859
73040SOL    HW120894   7.912   0.908   4.846
73040SOL    HW220895   7.956   1.021   4.938
73041SOL     OW20896  14.581   1.689   8.841
73041SOL    HW120897  14.487   1.683   8.822
73041SOL    HW220898  14.593   1.778   8.875
73042SOL     OW20899   0.452   9.788   4.631
73042SOL    HW120900   0.521   9.811   4.570
73042SOL    HW220901   0.372   9.824   4.592
73043SOL     OW20902   6.412   2.151   2.180
73043SOL    HW120903   6.459   2.177   2.259
73043SOL    HW220904   6.454   2.200   2.109
73044SOL     OW20905   6.944   0.410   6.398
73044SOL    HW120906   6.953   0.495   6.356
73044SOL    HW220907   6.969   0.426   6.489
73045SOL     OW20908  14.521   3.926   9.742
73045SOL    HW120909  14.507   3.975   9.661
73045SOL    HW220910  14.543   3.837   9.713
73046SOL     OW20911  11.735   0.036   9.709
73046SOL    HW120912  11.747  14.825   9.742
73046SOL    HW220913  11.821   0.077   9.721
73047SOL     OW20914  11.585  11.374   0.886
73047SOL    HW120915  11.510  11.416   0.842
73047SOL    HW220916  11.554  11.286   0.906
73048SOL     OW20917  10.124   8.966  10.433
73048SOL    HW120918  10.031   8.957  10.413
73048SOL    HW220919  10.127   8.999  10.522
73049SOL     OW20920  14.010  13.890  11.911
73049SOL    HW120921  14.055  13.891  11.996
73049SOL    HW220922  13.938  13.952  11.921
73050SOL     OW20923   7.784  14.392   0.340
73050SOL    HW120924   7.752  14.472   0.298
73050SOL    HW220925   7.726  14.379   0.415
73051SOL     OW20926  12.111   1.334  14.187
73051SOL    HW120927  12.172   1.264  14.207
73051SOL    HW220928  12.041   1.324  14.253
73052SOL     OW20929   5.945   0.638  14.849
73052SOL    HW120930   5.927   0.582  14.773
73052SOL    HW220931   5.896   0.598   0.043
73053SOL     OW20932   5.987   9.845  12.144
73053SOL    HW120933   5.931   9.846  12.066
73053SOL    HW220934   6.071   9.814  12.112
73054SOL     OW20935   8.114   7.849   1.254
73054SOL    HW120936   8.122   7.800   1.336
73054SOL    HW220937   8.185   7.816   1.199
73055SOL     OW20938  11.560   6.542   5.285
73055SOL    HW120939  11.490   6.605   5.267
73055SOL    HW220940  11.597   6.570   5.369
73056SOL     OW20941   0.806  10.023   1.045
73056SOL    HW120942   0.897  10.046   1.029
73056SOL    HW220943   0.760  10.044   0.963
73057SOL     OW20944   2.699  10.915  10.456
73057SOL    HW120945   2.639  10.846  10.427
73057SOL    HW220946   2.749  10.874  10.526
73058SOL     OW20947   4.682   4.053   4.836
73058SOL    HW120948   4.655   4.134   4.792
73058SOL    HW220949   4.609   3.992   4.822
73059SOL     OW20950   6.270   7.215  12.853
73059SOL    HW120951   6.359   7.201  12.819
73059SOL    HW220952   6.214   7.205  12.776
73060SOL     OW20953   9.244   6.329  13.725
73060SOL    HW120954   9.185   6.402  13.744
73060SOL    HW220955   9.319   6.369  13.680
73061SOL     OW20956   3.604   3.192   4.990
73061SOL    HW120957   3.698   3.198   4.970
73061SOL    HW220958   3.593   3.239   5.072
73062SOL     OW20959   1.703   6.362  12.650
73062SOL    HW120960   1.624   6.414  12.635
73062SOL    HW220961   1.680   6.274  12.620
73063SOL     OW20962  10.393   5.421  13.830
73063SOL    HW120963  10.337   5.343  13.834
73063SOL    HW220964  10.420   5.426  13.739
73064SOL     OW20965  11.858   0.617  10.447
73064SOL    HW120966  11.928   0.656  10.394
73064SOL    HW220967  11.852   0.674  10.524
73065SOL     OW20968  14.386   6.481   2.610
73065SOL    HW120969  14.439   6.485   2.531
73065SOL    HW220970  14.328   6.406   2.597
73066SOL     OW20971  11.484  13.924   9.815
73066SOL    HW120972  11.418  13.860   9.842
73066SOL    HW220973  11.568  13.881   9.831
73067SOL     OW20974   9.809   1.101   5.820
73067SOL    HW120975   9.816   1.036   5.890
73067SOL    HW220976   9.837   1.055   5.741
73068SOL     OW20977   4.613  13.147   7.525
73068SOL    HW120978   4.664  13.227   7.534
73068SOL    HW220979   4.654  13.085   7.585
73069SOL     OW20980   9.310   9.870   7.506
73069SOL    HW120981   9.374   9.804   7.532
73069SOL    HW220982   9.300   9.926   7.584
73070SOL     OW20983  13.525   9.986  14.317
73070SOL    HW120984  13.529   9.908  14.261
73070SOL    HW220985  13.482  10.052  14.264
73071SOL     OW20986   8.054  14.796   4.246
73071SOL    HW120987   8.091  14.734   4.184
73071SOL    HW220988   7.967  14.763   4.265
73072SOL     OW20989  13.969   2.197  13.165
73072SOL    HW120990  14.007   2.164  13.084
73072SOL    HW220991  13.900   2.257  13.137
73073SOL     OW20992   5.623  10.621  13.403
73073SOL    HW120993   5.657  10.603  13.315
73073SOL    HW220994   5.648  10.712  13.419
73074SOL     OW20995   4.906   5.018   3.707
73074SOL    HW120996   4.945   5.081   3.646
73074SOL    HW220997   4.881   5.072   3.783
73075SOL     OW20998  12.025  12.965   8.964
73075SOL    HW120999  12.119  12.945   8.960
73075SOL    HW221000  12.006  12.967   9.058
73076SOL     OW21001   8.153   8.922   6.270
73076SOL    HW121002   8.089   8.886   6.332
73076SOL    HW221003   8.211   8.849   6.250
73077SOL     OW21004  13.731   6.269  11.494
73077SOL    HW121005  13.640   6.239  11.491
73077SOL    HW221006  13.766   6.248  11.408
73078SOL     OW21007  11.010  14.600   8.257
73078SOL    HW121008  11.104  14.614   8.245
73078SOL    HW221009  10.992  14.637   8.344
73079SOL     OW21010   2.524   3.709  11.489
73079SOL    HW121011   2.450   3.768  11.503
73079SOL    HW221012   2.489   3.622  11.512
73080SOL     OW21013  12.456   0.204   8.581
73080SOL    HW121014  12.438   0.142   8.652
73080SOL    HW221015  12.546   0.186   8.554
73081SOL     OW21016   4.947   0.424  12.255
73081SOL    HW121017   4.900   0.396  12.334
73081SOL    HW221018   4.910   0.510  12.235
73082SOL     OW21019   3.151  14.652  14.781
73082SOL    HW121020   3.079  14.594  14.804
73082SOL    HW221021   3.221  14.593  14.751
73083SOL     OW21022   4.429   4.821  14.411
73083SOL    HW121023   4.368   4.853  14.478
73083SOL    HW221024   4.427   4.888  14.343
73084SOL     OW21025   4.048   8.516  11.034
73084SOL    HW121026   4.018   8.493  11.122
73084SOL    HW221027   3.982   8.577  11.001
73085SOL     OW21028   9.756   2.787  14.639
73085SOL    HW121029   9.711   2.860  14.681
73085SOL    HW221030   9.724   2.788  14.549
73086SOL     OW21031  14.529   0.467  12.138
73086SOL    HW121032  14.567   0.549  12.106
73086SOL    HW221033  14.439   0.490  12.160
73087SOL     OW21034   7.475   3.393   5.040
73087SOL    HW121035   7.569   3.380   5.027
73087SOL    HW221036   7.447   3.444   4.964
73088SOL     OW21037   0.321  14.525   3.782
73088SOL    HW121038   0.311  14.617   3.758
73088SOL    HW221039   0.389  14.492   3.724
73089SOL     OW21040   5.290   6.463   5.193
73089SOL    HW121041   5.362   6.409   5.162
73089SOL    HW221042   5.227   6.401   5.230
73090SOL     OW21043   6.644  14.209   6.500
73090SOL    HW121044   6.734  14.176   6.496
73090SOL    HW221045   6.593  14.135   6.532
73091SOL     OW21046  13.359   4.882   0.199
73091SOL    HW121047  13.346   4.905   0.291
73091SOL    HW221048  13.355   4.965   0.152
73092SOL     OW21049   3.697   1.769  12.914
73092SOL    HW121050   3.742   1.846  12.880
73092SOL    HW221051   3.613   1.768  12.868
73093SOL     OW21052  14.334   0.741  10.420
73093SOL    HW121053  14.276   0.667  10.440
73093SOL    HW221054  14.422   0.703  10.417
73094SOL     OW21055  10.803   8.726   6.936
73094SOL    HW121056  10.855   8.654   6.900
73094SOL    HW221057  10.803   8.792   6.867
73095SOL     OW21058   8.188  11.953   6.553
73095SOL    HW121059   8.203  12.047   6.559
73095SOL    HW221060   8.149  11.929   6.637
73096SOL     OW21061  10.966   1.243   6.184
73096SOL    HW121062  10.873   1.264   6.196
73096SOL    HW221063  10.995   1.302   6.115
73097SOL     OW21064  13.522   4.092   5.519
73097SOL    HW121065  13.534   4.110   5.612
73097SOL    HW221066  13.452   4.027   5.517
73098SOL     OW21067   2.305  14.006  11.009
73098SOL    HW121068   2.318  14.083  11.065
73098SOL    HW221069   2.392  13.988  10.974
73099SOL     OW21070   0.536   3.870   5.564
73099SOL    HW121071   0.599   3.906   5.627
73099SOL    HW221072   0.565   3.905   5.479
73100SOL     OW21073   9.990  14.441  12.393
73100SOL    HW121074  10.043  14.428  12.470
73100SOL    HW221075  10.051  14.472  12.326
73101SOL     OW21076   9.535   7.160  11.841
73101SOL    HW121077   9.543   7.213  11.762
73101SOL    HW221078   9.476   7.088  11.816
73102SOL     OW21079   8.557   3.847   6.348
73102SOL    HW121080   8.591   3.872   6.433
73102SOL    HW221081   8.462   3.856   6.356
73103SOL     OW21082   0.494  13.031   9.066
73103SOL    HW121083   0.505  13.112   9.115
73103SOL    HW221084   0.560  12.972   9.102
73104SOL     OW21085   8.839  12.165   9.158
73104SOL    HW121086   8.803  12.107   9.226
73104SOL    HW221087   8.763  12.192   9.107
73105SOL     OW21088   1.718   8.843   9.179
73105SOL    HW121089   1.790   8.791   9.142
73105SOL    HW221090   1.731   8.930   9.142
73106SOL     OW21091  10.901   1.139   8.810
73106SOL    HW121092  10.823   1.183   8.775
73106SOL    HW221093  10.867   1.073   8.870
73107SOL     OW21094  11.033  14.608   7.987
73107SOL    HW121095  11.039  14.516   7.963
73107SOL    HW221096  11.003  14.608   8.078
73108SOL     OW21097   5.904   2.829  14.407
73108SOL    HW121098   5.823   2.787  14.437
73108SOL    HW221099   5.882   2.866  14.322
73109SOL     OW21100   8.375  11.340   5.415
73109SOL    HW121101   8.386  11.287   5.493
73109SOL    HW221102   8.302  11.399   5.436
73110SOL     OW21103   2.296   7.058   4.806
73110SOL    HW121104   2.347   7.120   4.754
73110SOL    HW221105   2.354   7.035   4.879
73111SOL     OW21106  13.165  10.314  14.363
73111SOL    HW121107  13.090  10.369  14.384
73111SOL    HW221108  13.129  10.241  14.313
73112SOL     OW21109   1.698  10.637   3.740
73112SOL    HW121110   1.750  10.700   3.690
73112SOL    HW221111   1.713  10.660   3.832
73113SOL     OW21112  11.687   4.488   7.932
73113SOL    HW121113  11.753   4.506   7.999
73113SOL    HW221114  11.603   4.492   7.979
73114SOL     OW21115   9.304   6.045   3.875
73114SOL    HW121116   9.275   6.072   3.787
73114SOL    HW221117   9.247   5.971   3.897
73115SOL     OW21118   0.693   2.100   6.967
73115SOL    HW121119   0.772   2.148   6.941
73115SOL    HW221120   0.666   2.140   7.049
73116SOL     OW21121   2.244  13.090   6.836
73116SOL    HW121122   2.184  13.016   6.847
73116SOL    HW221123   2.223  13.125   6.750
73117SOL     OW21124   3.320  11.379   4.754
73117SOL    HW121125   3.275  11.463   4.758
73117SOL    HW221126   3.251  11.314   4.743
73118SOL     OW21127  11.455  13.049   4.691
73118SOL    HW121128  11.504  13.035   4.609
73118SOL    HW221129  11.451  13.144   4.700
73119SOL     OW21130   2.194  12.912  13.309
73119SOL    HW121131   2.129  12.939  13.245
73119SOL    HW221132   2.259  12.982  13.308
73120SOL     OW21133   7.826   0.521   2.723
73120SOL    HW121134   7.918   0.528   2.697
73120SOL    HW221135   7.777   0.531   2.642
73121SOL     OW21136   8.118   9.398   8.096
73121SOL    HW121137   8.209   9.401   8.065
73121SOL    HW221138   8.075   9.335   8.039
73122SOL     OW21139   2.574   3.939  11.817
73122SOL    HW121140   2.624   3.881  11.761
73122SOL    HW221141   2.489   3.947  11.774
73123SOL     OW21142   3.378   0.311   0.767
73123SOL    HW121143   3.390   0.404   0.786
73123SOL    HW221144   3.399   0.302   0.674
73124SOL     OW21145   0.977   4.961   4.717
73124SOL    HW121146   0.967   4.949   4.622
73124SOL    HW221147   0.979   4.872   4.752
73125SOL     OW21148   6.477  14.345   3.121
73125SOL    HW121149   6.498  14.307   3.206
73125SOL    HW221150   6.546  14.409   3.106
73126SOL     OW21151  10.312   6.755   1.212
73126SOL    HW121152  10.328   6.835   1.262
73126SOL    HW221153  10.299   6.786   1.122
73127SOL     OW21154  13.169  13.856   2.424
73127SOL    HW121155  13.151  13.762   2.432
73127SOL    HW221156  13.240  13.861   2.360
73128SOL     OW21157   1.946  12.419  12.026
73128SOL    HW121158   1.908  12.499  11.991
73128SOL    HW221159   1.982  12.374  11.949
73129SOL     OW21160   7.828   1.969   1.356
73129SOL    HW121161   7.772   2.046   1.360
73129SOL    HW221162   7.769   1.895   1.372
73130SOL     OW21163  11.429   2.650   1.825
73130SOL    HW121164  11.463   2.660   1.736
73130SOL    HW221165  11.494   2.692   1.881
73131SOL     OW21166   7.658  12.078   4.155
73131SOL    HW121167   7.574  12.046   4.188
73131SOL    HW221168   7.712  12.087   4.233
73132SOL     OW21169   9.366   3.293  14.357
73132SOL    HW121170   9.308   3.350  14.307
73132SOL    HW221171   9.444   3.284  14.302
73133SOL     OW21172   9.574   9.585  10.168
73133SOL    HW121173   9.581   9.503  10.217
73133SOL    HW221174   9.480   9.604  10.168
73134SOL     OW21175  11.235   3.413   9.439
73134SOL    HW121176  11.212   3.506   9.451
73134SOL    HW221177  11.307   3.399   9.501
73135SOL     OW21178   3.545  10.651   8.629
73135SOL    HW121179   3.572  10.579   8.572
73135SOL    HW221180   3.549  10.728   8.573
73136SOL     OW21181  10.057   0.406   4.588
73136SOL    HW121182  10.001   0.332   4.567
73136SOL    HW221183  10.130   0.367   4.637
73137SOL     OW21184   2.287   7.820   1.202
73137SOL    HW121185   2.346   7.869   1.144
73137SOL    HW221186   2.214   7.796   1.146
73138SOL     OW21187  10.303   6.991   8.129
73138SOL    HW121188  10.209   6.982   8.145
73138SOL    HW221189  10.309   7.032   8.043
73139SOL     OW21190   9.261  11.921   5.280
73139SOL    HW121191   9.236  11.970   5.202
73139SOL    HW221192   9.245  11.830   5.257
73140SOL     OW21193   9.760  11.366   0.279
73140SOL    HW121194   9.732  11.361   0.188
73140SOL    HW221195   9.681  11.346   0.330
73141SOL     OW21196   8.552   7.176   5.382
73141SOL    HW121197   8.538   7.137   5.296
73141SOL    HW221198   8.583   7.103   5.437
73142SOL     OW21199   9.625  12.940   7.139
73142SOL    HW121200   9.677  12.943   7.059
73142SOL    HW221201   9.588  12.852   7.140
73143SOL     OW21202   5.889   4.584   5.656
73143SOL    HW121203   5.808   4.543   5.626
73143SOL    HW221204   5.899   4.661   5.601
73144SOL     OW21205   9.855  11.273  10.540
73144SOL    HW121206   9.917  11.268  10.467
73144SOL    HW221207   9.909  11.261  10.618
73145SOL     OW21208   7.450   6.193   9.486
73145SOL    HW121209   7.423   6.235   9.568
73145SOL    HW221210   7.427   6.257   9.418
73146SOL     OW21211   6.659  13.599   2.701
73146SOL    HW121212   6.640  13.552   2.620
73146SOL    HW221213   6.654  13.532   2.769
73147SOL     OW21214  10.894   4.862   3.773
73147SOL    HW121215  10.948   4.805   3.828
73147SOL    HW221216  10.956   4.917   3.725
73148SOL     OW21217   6.078   7.424   6.977
73148SOL    HW121218   6.067   7.390   6.889
73148SOL    HW221219   6.173   7.418   6.994
73149SOL     OW21220   0.242   6.316   0.534
73149SOL    HW121221   0.333   6.339   0.552
73149SOL    HW221222   0.235   6.224   0.560
73150SOL     OW21223   1.777   9.444   5.770
73150SOL    HW121224   1.853   9.412   5.720
73150SOL    HW221225   1.701   9.412   5.721
73151SOL     OW21226   3.935   3.465  10.583
73151SOL    HW121227   3.887   3.512  10.651
73151SOL    HW221228   3.905   3.505  10.501
73152SOL     OW21229   3.807  10.309   3.591
73152SOL    HW121230   3.832  10.294   3.682
73152SOL    HW221231   3.876  10.267   3.540
73153SOL     OW21232   6.201   6.891   2.186
73153SOL    HW121233   6.246   6.962   2.140
73153SOL    HW221234   6.259   6.869   2.259
73154SOL     OW21235  10.196  10.754  11.438
73154SOL    HW121236  10.197  10.661  11.460
73154SOL    HW221237  10.256  10.794  11.502
73155SOL     OW21238   8.752  12.793   0.250
73155SOL    HW121239   8.740  12.804   0.344
73155SOL    HW221240   8.761  12.882   0.216
73156SOL     OW21241   2.749   5.423  13.095
73156SOL    HW121242   2.746   5.459  13.007
73156SOL    HW221243   2.841   5.400  13.109
73157SOL     OW21244  12.507  11.788   4.844
73157SOL    HW121245  12.596  11.821   4.836
73157SOL    HW221246  12.513  11.720   4.912
73158SOL     OW21247  12.374   4.403   3.961
73158SOL    HW121248  12.463   4.402   3.999
73158SOL    HW221249  12.323   4.346   4.019
73159SOL     OW21250   2.392   9.475   4.908
73159SOL    HW121251   2.339   9.459   4.985
73159SOL    HW221252   2.334   9.459   4.834
73160SOL     OW21253   2.614  12.211   7.678
73160SOL    HW121254   2.689  12.166   7.637
73160SOL    HW221255   2.650  12.293   7.710
73161SOL     OW21256   1.644   6.645   6.714
73161SOL    HW121257   1.640   6.681   6.626
73161SOL    HW221258   1.553   6.636   6.741
73162SOL     OW21259  14.212   9.054   3.186
73162SOL    HW121260  14.299   9.013   3.180
73162SOL    HW221261  14.216   9.125   3.122
73163SOL     OW21262   7.973   2.913   1.081
73163SOL    HW121263   8.031   2.933   1.155
73163SOL    HW221264   7.988   2.985   1.019
73164SOL     OW21265   7.361   4.731   5.490
73164SOL    HW121266   7.316   4.690   5.416
73164SOL    HW221267   7.451   4.699   5.484
73165SOL     OW21268  11.697  13.643   4.990
73165SOL    HW121269  11.740  13.706   5.047
73165SOL    HW221270  11.608  13.636   5.024
73166SOL     OW21271   2.217   2.063   7.254
73166SOL    HW121272   2.178   2.088   7.337
73166SOL    HW221273   2.146   2.020   7.206
73167SOL     OW21274   0.369   2.558   5.581
73167SOL    HW121275   0.397   2.469   5.559
73167SOL    HW221276   0.387   2.608   5.501
73168SOL     OW21277  14.221  12.795   5.965
73168SOL    HW121278  14.186  12.708   5.982
73168SOL    HW221279  14.316  12.781   5.955
73169SOL     OW21280  11.615   6.994   0.245
73169SOL    HW121281  11.597   6.901   0.229
73169SOL    HW221282  11.709   6.998   0.261
73170SOL     OW21283   2.376   0.315   2.391
73170SOL    HW121284   2.317   0.250   2.428
73170SOL    HW221285   2.463   0.290   2.423
73171SOL     OW21286  11.292   8.180  14.356
73171SOL    HW121287  11.311   8.273  14.372
73171SOL    HW221288  11.208   8.166  14.398
73172SOL     OW21289   5.767   5.725   0.667
73172SOL    HW121290   5.792   5.653   0.724
73172SOL    HW221291   5.675   5.710   0.647
73173SOL     OW21292   9.899  12.809   3.689
73173SOL    HW121293   9.961  12.881   3.703
73173SOL    HW221294   9.953  12.736   3.662
73174SOL     OW21295   4.456   5.383   6.296
73174SOL    HW121296   4.440   5.450   6.363
73174SOL    HW221297   4.407   5.414   6.220
73175SOL     OW21298   1.072   8.232   7.493
73175SOL    HW121299   1.026   8.197   7.569
73175SOL    HW221300   1.161   8.200   7.502
73176SOL     OW21301   9.670   2.241  11.777
73176SOL    HW121302   9.709   2.328  11.776
73176SOL    HW221303   9.689   2.207  11.865
73177SOL     OW21304  14.819   0.463   4.920
73177SOL    HW121305  14.749   0.439   4.981
73177SOL    HW221306  14.876   0.387   4.916
73178SOL     OW21307  13.227  14.437   0.196
73178SOL    HW121308  13.222  14.442   0.101
73178SOL    HW221309  13.137  14.427   0.225
73179SOL     OW21310   1.387   2.361   9.347
73179SOL    HW121311   1.366   2.356   9.254
73179SOL    HW221312   1.453   2.430   9.353
73180SOL     OW21313   8.206   0.619  14.597
73180SOL    HW121314   8.234   0.551  14.537
73180SOL    HW221315   8.114   0.599  14.615
73181SOL     OW21316  12.548   6.963   8.759
73181SOL    HW121317  12.521   7.043   8.804
73181SOL    HW221318  12.613   6.924   8.817
73182SOL     OW21319  12.529   0.576   4.149
73182SOL    HW121320  12.533   0.501   4.090
73182SOL    HW221321  12.517   0.538   4.236
73183SOL     OW21322   8.776   6.729   7.922
73183SOL    HW121323   8.747   6.638   7.930
73183SOL    HW221324   8.714   6.769   7.861
73184SOL     OW21325  11.530   6.960   1.229
73184SOL    HW121326  11.552   7.042   1.183
73184SOL    HW221327  11.449   6.980   1.277
73185SOL     OW21328   8.986  14.115  14.610
73185SOL    HW121329   8.953  14.025  14.611
73185SOL    HW221330   8.916  14.165  14.568
73186SOL     OW21331   1.283  12.824   3.687
73186SOL    HW121332   1.280  12.772   3.767
73186SOL    HW221333   1.290  12.915   3.717
73187SOL     OW21334  10.013   6.037   1.394
73187SOL    HW121335  10.019   5.991   1.478
73187SOL    HW221336  10.098   6.079   1.383
73188SOL     OW21337   2.873   5.455   7.888
73188SOL    HW121338   2.847   5.365   7.910
73188SOL    HW221339   2.906   5.491   7.970
73189SOL     OW21340  12.771   5.535  14.379
73189SOL    HW121341  12.717   5.590  14.437
73189SOL    HW221342  12.744   5.560  14.291
73190SOL     OW21343  10.124  13.462   8.207
73190SOL    HW121344  10.082  13.548   8.204
73190SOL    HW221345  10.199  13.474   8.265
73191SOL     OW21346  12.371   4.744  12.183
73191SOL    HW121347  12.449   4.729  12.130
73191SOL    HW221348  12.356   4.660  12.227
73192SOL     OW21349  14.247   4.740   7.262
73192SOL    HW121350  14.294   4.711   7.184
73192SOL    HW221351  14.193   4.664   7.286
73193SOL     OW21352  13.085   5.469   7.729
73193SOL    HW121353  13.047   5.381   7.732
73193SOL    HW221354  13.030   5.517   7.668
73194SOL     OW21355   2.300  14.625   4.045
73194SOL    HW121356   2.368  14.689   4.066
73194SOL    HW221357   2.287  14.575   4.126
73195SOL     OW21358   8.098   1.892  11.712
73195SOL    HW121359   8.101   1.916  11.805
73195SOL    HW221360   8.007   1.908  11.686
73196SOL     OW21361   9.212   7.282  12.462
73196SOL    HW121362   9.134   7.228  12.481
73196SOL    HW221363   9.283   7.237  12.507
73197SOL     OW21364  10.862   2.724  14.011
73197SOL    HW121365  10.938   2.775  13.985
73197SOL    HW221366  10.862   2.728  14.107
73198SOL     OW21367  12.560   4.127  13.774
73198SOL    HW121368  12.509   4.047  13.761
73198SOL    HW221369  12.567   4.137  13.869
73199SOL     OW21370   4.889   4.017   8.027
73199SOL    HW121371   4.943   4.019   7.948
73199SOL    HW221372   4.896   3.927   8.059
73200SOL     OW21373  14.537  14.440  12.279
73200SOL    HW121374  14.475  14.470  12.213
73200SOL    HW221375  14.591  14.516  12.298
73201SOL     OW21376   8.940   9.850   8.831
73201SOL    HW121377   8.944   9.945   8.825
73201SOL    HW221378   9.023   9.820   8.796
73202SOL     OW21379   2.206   4.858   7.617
73202SOL    HW121380   2.179   4.805   7.692
73202SOL    HW221381   2.279   4.808   7.579
73203SOL     OW21382   8.238   2.791   8.903
73203SOL    HW121383   8.209   2.875   8.940
73203SOL    HW221384   8.329   2.782   8.933
73204SOL     OW21385  12.339  12.260  10.289
73204SOL    HW121386  12.297  12.183  10.327
73204SOL    HW221387  12.413  12.225  10.239
73205SOL     OW21388   5.735   9.489  11.101
73205SOL    HW121389   5.695   9.452  11.022
73205SOL    HW221390   5.707   9.431  11.171
73206SOL     OW21391   6.706   2.965   2.507
73206SOL    HW121392   6.704   3.007   2.421
73206SOL    HW221393   6.716   2.872   2.487
73207SOL     OW21394   6.023   4.554   7.527
73207SOL    HW121395   6.093   4.492   7.509
73207SOL    HW221396   5.950   4.524   7.472
73208SOL     OW21397   7.758  12.140   1.126
73208SOL    HW121398   7.818  12.212   1.148
73208SOL    HW221399   7.680  12.157   1.179
73209SOL     OW21400  11.384  14.067  14.176
73209SOL    HW121401  11.335  14.003  14.229
73209SOL    HW221402  11.373  14.149  14.223
73210SOL     OW21403   2.620   5.840  11.071
73210SOL    HW121404   2.618   5.813  10.979
73210SOL    HW221405   2.708   5.815  11.100
73211SOL     OW21406  14.138   1.174   4.951
73211SOL    HW121407  14.127   1.099   5.010
73211SOL    HW221408  14.071   1.162   4.884
73212SOL     OW21409   6.242  14.286   6.919
73212SOL    HW121410   6.293  14.367   6.932
73212SOL    HW221411   6.240  14.245   7.005
73213SOL     OW21412   5.015   7.262   5.632
73213SOL    HW121413   4.978   7.349   5.650
73213SOL    HW221414   5.043   7.230   5.718
73214SOL     OW21415  12.160  13.174  13.546
73214SOL    HW121416  12.153  13.223  13.628
73214SOL    HW221417  12.192  13.088  13.572
73215SOL     OW21418   5.144  13.157  11.365
73215SOL    HW121419   5.217  13.114  11.321
73215SOL    HW221420   5.066  13.111  11.333
73216SOL     OW21421   4.085   5.817   2.706
73216SOL    HW121422   4.105   5.727   2.731
73216SOL    HW221423   4.000   5.835   2.747
73217SOL     OW21424  14.102   8.052  13.767
73217SOL    HW121425  14.149   7.972  13.789
73217SOL    HW221426  14.126   8.114  13.836
73218SOL     OW21427   3.106  11.679  12.244
73218SOL    HW121428   3.143  11.594  12.219
73218SOL    HW221429   3.082  11.720  12.161
73219SOL     OW21430   1.933   7.445   2.298
73219SOL    HW121431   1.860   7.429   2.239
73219SOL    HW221432   1.895   7.494   2.371
73220SOL     OW21433   6.985   1.405   5.839
73220SOL    HW121434   7.046   1.405   5.913
73220SOL    HW221435   6.980   1.497   5.813
73221SOL     OW21436   2.987   3.390  13.713
73221SOL    HW121437   2.973   3.476  13.753
73221SOL    HW221438   2.939   3.393  13.631
73222SOL     OW21439  11.855  11.461   0.894
73222SOL    HW121440  11.872  11.530   0.958
73222SOL    HW221441  11.764  11.435   0.909
73223SOL     OW21442   9.654  13.056   4.636
73223SOL    HW121443   9.740  13.087   4.606
73223SOL    HW221444   9.603  13.044   4.555
73224SOL     OW21445   2.955   5.866   7.774
73224SOL    HW121446   3.024   5.805   7.749
73224SOL    HW221447   2.893   5.864   7.701
73225SOL     OW21448   4.047   4.333   1.313
73225SOL    HW121449   3.955   4.311   1.330
73225SOL    HW221450   4.083   4.353   1.399
73226SOL     OW21451   7.167  11.480   0.129
73226SOL    HW121452   7.231  11.409   0.118
73226SOL    HW221453   7.126  11.488   0.043
73227SOL     OW21454   5.775  14.082  11.072
73227SOL    HW121455   5.816  14.067  10.987
73227SOL    HW221456   5.737  13.998  11.096
73228SOL     OW21457   4.157   5.673   5.184
73228SOL    HW121458   4.187   5.622   5.109
73228SOL    HW221459   4.232   5.674   5.244
73229SOL     OW21460  14.523   8.751  11.505
73229SOL    HW121461  14.601   8.806  11.501
73229SOL    HW221462  14.556   8.661  11.497
73230SOL     OW21463  12.839  12.033  11.827
73230SOL    HW121464  12.762  12.070  11.785
73230SOL    HW221465  12.882  11.982  11.759
73231SOL     OW21466   1.864   3.683   0.799
73231SOL    HW121467   1.791   3.697   0.859
73231SOL    HW221468   1.933   3.644   0.852
73232SOL     OW21469  13.828   8.610   6.277
73232SOL    HW121470  13.914   8.640   6.245
73232SOL    HW221471  13.846   8.525   6.317
73233SOL     OW21472  11.701  11.234   6.517
73233SOL    HW121473  11.685  11.190   6.434
73233SOL    HW221474  11.701  11.165   6.582
73234SOL     OW21475   2.203   2.894  13.285
73234SOL    HW121476   2.194   2.859  13.196
73234SOL    HW221477   2.113   2.912  13.312
73235SOL     OW21478   4.415   1.938   4.550
73235SOL    HW121479   4.508   1.953   4.567
73235SOL    HW221480   4.370   1.991   4.615
73236SOL     OW21481  13.759   9.065   5.842
73236SOL    HW121482  13.824   9.118   5.888
73236SOL    HW221483  13.729   9.120   5.770
73237SOL     OW21484  11.648   0.877   4.011
73237SOL    HW121485  11.671   0.855   4.101
73237SOL    HW221486  11.694   0.812   3.958
73238SOL     OW21487   5.168   0.558   3.117
73238SOL    HW121488   5.198   0.516   3.197
73238SOL    HW221489   5.246   0.563   3.061
73239SOL     OW21490  11.271   4.949   8.837
73239SOL    HW121491  11.204   5.000   8.791
73239SOL    HW221492  11.270   4.983   8.926
73240SOL     OW21493   9.629   9.917   0.180
73240SOL    HW121494   9.667   9.976   0.116
73240SOL    HW221495   9.607   9.838   0.130
73241SOL     OW21496   3.919   4.442   8.614
73241SOL    HW121497   3.870   4.525   8.606
73241SOL    HW221498   3.945   4.422   8.524
73242SOL     OW21499  11.170   7.765  13.771
73242SOL    HW121500  11.158   7.724  13.685
73242SOL    HW221501  11.246   7.821  13.762
73243SOL     OW21502   2.197   7.082  11.071
73243SOL    HW121503   2.250   7.082  10.991
73243SOL    HW221504   2.143   7.161  11.064
73244SOL     OW21505  11.199   5.045   2.492
73244SOL    HW121506  11.180   4.997   2.412
73244SOL    HW221507  11.213   4.978   2.558
73245SOL     OW21508   8.835   5.120  14.001
73245SOL    HW121509   8.791   5.078  14.075
73245SOL    HW221510   8.877   5.049  13.954
73246SOL     OW21511  10.121   8.861  13.821
73246SOL    HW121512  10.163   8.779  13.848
73246SOL    HW221513  10.089   8.900  13.903
73247SOL     OW21514   3.877   5.649   1.544
73247SOL    HW121515   3.943   5.595   1.501
73247SOL    HW221516   3.841   5.594   1.613
73248SOL     OW21517  10.913   1.106  14.326
73248SOL    HW121518  10.945   1.095  14.415
73248SOL    HW221519  10.990   1.095  14.271
73249SOL     OW21520   4.886   8.101  14.793
73249SOL    HW121521   4.894   8.078   0.007
73249SOL    HW221522   4.840   8.186  14.793
73250SOL     OW21523  11.976   9.288  10.565
73250SOL    HW121524  12.055   9.237  10.544
73250SOL    HW221525  11.956   9.265  10.656
73251SOL     OW21526  11.438   8.275   9.009
73251SOL    HW121527  11.347   8.280   9.039
73251SOL    HW221528  11.431   8.244   8.919
73252SOL     OW21529   3.201   7.496   0.237
73252SOL    HW121530   3.205   7.583   0.197
73252SOL    HW221531   3.191   7.436   0.164
73253SOL     OW21532   9.033   1.683   6.376
73253SOL    HW121533   9.027   1.601   6.327
73253SOL    HW221534   9.127   1.700   6.382
73254SOL     OW21535   0.658  13.445  10.477
73254SOL    HW121536   0.666  13.489  10.562
73254SOL    HW221537   0.649  13.352  10.499
73255SOL     OW21538   7.959   2.065   0.886
73255SOL    HW121539   7.916   2.144   0.853
73255SOL    HW221540   7.890   2.020   0.936
73256SOL     OW21541   5.565   1.719   9.885
73256SOL    HW121542   5.596   1.646   9.938
73256SOL    HW221543   5.473   1.700   9.869
73257SOL     OW21544  13.394  13.021   5.748
73257SOL    HW121545  13.392  12.958   5.820
73257SOL    HW221546  13.339  13.093   5.778
73258SOL     OW21547   9.045   2.554   1.123
73258SOL    HW121548   8.985   2.512   1.185
73258SOL    HW221549   8.990   2.610   1.070
73259SOL     OW21550   1.336  12.596  14.297
73259SOL    HW121551   1.310  12.600  14.389
73259SOL    HW221552   1.260  12.558  14.253
73260SOL     OW21553   8.843   8.399   1.229
73260SOL    HW121554   8.862   8.471   1.169
73260SOL    HW221555   8.924   8.349   1.233
73261SOL     OW21556  14.469   6.179   3.893
73261SOL    HW121557  14.450   6.225   3.974
73261SOL    HW221558  14.552   6.134   3.909
73262SOL     OW21559  10.821   9.626   2.207
73262SOL    HW121560  10.803   9.657   2.118
73262SOL    HW221561  10.784   9.694   2.264
73263SOL     OW21562   2.364   5.348  14.154
73263SOL    HW121563   2.355   5.253  14.145
73263SOL    HW221564   2.458   5.364  14.150
73264SOL     OW21565  12.725  11.651  14.215
73264SOL    HW121566  12.783  11.585  14.179
73264SOL    HW221567  12.659  11.665  14.146
73265SOL     OW21568   2.078   2.510   0.249
73265SOL    HW121569   2.023   2.588   0.245
73265SOL    HW221570   2.016   2.437   0.257
73266SOL     OW21571  10.322   9.651   7.136
73266SOL    HW121572  10.403   9.694   7.107
73266SOL    HW221573  10.267   9.650   7.057
73267SOL     OW21574   1.628  11.235   2.449
73267SOL    HW121575   1.717  11.210   2.425
73267SOL    HW221576   1.630  11.331   2.450
73268SOL     OW21577  11.141  13.468   4.977
73268SOL    HW121578  11.049  13.466   5.002
73268SOL    HW221579  11.171  13.378   4.991
73269SOL     OW21580   9.859   7.271   0.941
73269SOL    HW121581   9.789   7.337   0.946
73269SOL    HW221582   9.938   7.321   0.924
73270SOL     OW21583   8.323   8.411   6.818
73270SOL    HW121584   8.408   8.456   6.823
73270SOL    HW221585   8.283   8.427   6.904
73271SOL     OW21586  11.958   9.547   3.619
73271SOL    HW121587  11.864   9.529   3.621
73271SOL    HW221588  11.963   9.643   3.620
73272SOL     OW21589  11.559   1.076  13.310
73272SOL    HW121590  11.646   1.045  13.282
73272SOL    HW221591  11.512   1.091  13.228
73273SOL     OW21592   7.998   9.542   7.737
73273SOL    HW121593   8.092   9.561   7.734
73273SOL    HW221594   7.989   9.481   7.810
73274SOL     OW21595   9.989   8.670   6.488
73274SOL    HW121596  10.076   8.637   6.510
73274SOL    HW221597  10.006   8.742   6.428
73275SOL     OW21598  12.672  13.689   8.288
73275SOL    HW121599  12.642  13.696   8.197
73275SOL    HW221600  12.764  13.716   8.286
73276SOL     OW21601  14.225   4.471   0.942
73276SOL    HW121602  14.145   4.484   0.891
73276SOL    HW221603  14.222   4.379   0.969
73277SOL     OW21604   7.228   2.093   6.587
73277SOL    HW121605   7.214   2.034   6.514
73277SOL    HW221606   7.257   2.175   6.547
73278SOL     OW21607   0.758   8.373   3.313
73278SOL    HW121608   0.702   8.395   3.387
73278SOL    HW221609   0.844   8.354   3.351
73279SOL     OW21610  13.337  12.502   3.422
73279SOL    HW121611  13.403  12.438   3.393
73279SOL    HW221612  13.253  12.459   3.404
73280SOL     OW21613   2.812   2.783   8.677
73280SOL    HW121614   2.742   2.826   8.725
73280SOL    HW221615   2.892   2.827   8.706
73281SOL     OW21616   3.679  11.035   7.924
73281SOL    HW121617   3.620  10.972   7.965
73281SOL    HW221618   3.766  10.999   7.937
73282SOL     OW21619   3.475  14.452   9.767
73282SOL    HW121620   3.537  14.385   9.740
73282SOL    HW221621   3.521  14.535   9.754
73283SOL     OW21622  14.643   4.501  10.967
73283SOL    HW121623  14.688   4.565  11.023
73283SOL    HW221624  14.557   4.539  10.952
73284SOL     OW21625  11.703   6.785  14.662
73284SOL    HW121626  11.768   6.760  14.597
73284SOL    HW221627  11.741   6.761  14.746
73285SOL     OW21628  11.386  12.858   0.305
73285SOL    HW121629  11.321  12.892   0.243
73285SOL    HW221630  11.337  12.844   0.386
73286SOL     OW21631   0.284   1.800  12.095
73286SOL    HW121632   0.252   1.881  12.134
73286SOL    HW221633   0.206   1.759  12.058
73287SOL     OW21634  11.224   6.229   9.291
73287SOL    HW121635  11.228   6.194   9.380
73287SOL    HW221636  11.290   6.180   9.243
73288SOL     OW21637   7.265   1.265   5.818
73288SOL    HW121638   7.210   1.231   5.748
73288SOL    HW221639   7.275   1.359   5.798
73289SOL     OW21640   4.172  13.424  11.240
73289SOL    HW121641   4.106  13.361  11.210
73289SOL    HW221642   4.170  13.494  11.174
73290SOL     OW21643  14.459   0.826   1.072
73290SOL    HW121644  14.457   0.775   0.991
73290SOL    HW221645  14.482   0.914   1.044
73291SOL     OW21646   4.412  12.357  12.403
73291SOL    HW121647   4.409  12.419  12.330
73291SOL    HW221648   4.346  12.291  12.381
73292SOL     OW21649   2.668  12.550   0.686
73292SOL    HW121650   2.627  12.635   0.702
73292SOL    HW221651   2.602  12.500   0.637
73293SOL     OW21652  11.427   8.409  14.176
73293SOL    HW121653  11.469   8.339  14.226
73293SOL    HW221654  11.358   8.365  14.126
73294SOL     OW21655  14.065   8.021   7.602
73294SOL    HW121656  14.058   8.025   7.698
73294SOL    HW221657  14.118   8.098   7.580
73295SOL     OW21658   0.383  14.273   3.978
73295SOL    HW121659   0.471  14.292   3.946
73295SOL    HW221660   0.388  14.183   4.011
73296SOL     OW21661   2.641   0.511   3.293
73296SOL    HW121662   2.632   0.428   3.340
73296SOL    HW221663   2.676   0.571   3.358
73297SOL     OW21664   7.212   6.165   6.087
73297SOL    HW121665   7.249   6.103   6.024
73297SOL    HW221666   7.226   6.124   6.172
73298SOL     OW21667  14.358   9.957   6.456
73298SOL    HW121668  14.430  10.021   6.455
73298SOL    HW221669  14.291   9.995   6.400
73299SOL     OW21670   6.523   2.001   7.542
73299SOL    HW121671   6.562   2.062   7.605
73299SOL    HW221672   6.430   2.027   7.539
73300SOL     OW21673   7.798   4.908   2.945
73300SOL    HW121674   7.797   4.841   3.014
73300SOL    HW221675   7.724   4.965   2.967
73301SOL     OW21676   9.531   5.209   6.137
73301SOL    HW121677   9.556   5.122   6.107
73301SOL    HW221678   9.608   5.263   6.119
73302SOL     OW21679   9.754   2.196  12.054
73302SOL    HW121680   9.824   2.150  12.100
73302SOL    HW221681   9.674   2.168  12.098
73303SOL     OW21682   1.636   7.364  11.050
73303SOL    HW121683   1.703   7.300  11.027
73303SOL    HW221684   1.619   7.412  10.969
73304SOL     OW21685   2.490   9.987   1.089
73304SOL    HW121686   2.556   9.931   1.130
73304SOL    HW221687   2.487   9.957   0.998
73305SOL     OW21688   1.624   1.521   6.765
73305SOL    HW121689   1.563   1.471   6.820
73305SOL    HW221690   1.570   1.589   6.725
73306SOL     OW21691  11.215   9.835  10.249
73306SOL    HW121692  11.134   9.822  10.298
73306SOL    HW221693  11.192   9.896  10.180
73307SOL     OW21694   4.485   0.788   5.701
73307SOL    HW121695   4.432   0.713   5.676
73307SOL    HW221696   4.423   0.848   5.742
73308SOL     OW21697   3.707   9.233   7.464
73308SOL    HW121698   3.728   9.158   7.408
73308SOL    HW221699   3.684   9.194   7.549
73309SOL     OW21700  11.110  12.893  10.827
73309SOL    HW121701  11.051  12.959  10.864
73309SOL    HW221702  11.066  12.810  10.843
73310SOL     OW21703   5.456   2.210   7.355
73310SOL    HW121704   5.420   2.282   7.407
73310SOL    HW221705   5.547   2.236   7.340
73311SOL     OW21706   5.921   3.307  14.214
73311SOL    HW121707   5.908   3.391  14.171
73311SOL    HW221708   5.966   3.329  14.296
73312SOL     OW21709   7.718   4.792  12.146
73312SOL    HW121710   7.750   4.873  12.185
73312SOL    HW221711   7.624   4.806  12.136
73313SOL     OW21712  10.473   7.536   2.030
73313SOL    HW121713  10.546   7.590   2.062
73313SOL    HW221714  10.495   7.517   1.939
73314SOL     OW21715   1.305  14.864   5.061
73314SOL    HW121716   1.240   0.057   5.060
73314SOL    HW221717   1.389   0.032   5.064
73315SOL     OW21718  14.549   1.194   9.697
73315SOL    HW121719  14.533   1.175   9.605
73315SOL    HW221720  14.585   1.282   9.697
73316SOL     OW21721   8.689   6.427   2.029
73316SOL    HW121722   8.678   6.372   1.951
73316SOL    HW221723   8.692   6.516   1.996
73317SOL     OW21724   1.508   4.101   6.179
73317SOL    HW121725   1.523   4.102   6.084
73317SOL    HW221726   1.465   4.184   6.198
73318SOL     OW21727  11.211   5.628   9.199
73318SOL    HW121728  11.264   5.552   9.175
73318SOL    HW221729  11.133   5.591   9.240
73319SOL     OW21730   9.835   6.265   6.878
73319SOL    HW121731   9.891   6.330   6.836
73319SOL    HW221732   9.806   6.307   6.959
73320SOL     OW21733   2.886   4.498   0.072
73320SOL    HW121734   2.945   4.439   0.120
73320SOL    HW221735   2.941   4.573   0.049
73321SOL     OW21736   8.628   7.079  13.119
73321SOL    HW121737   8.544   7.061  13.078
73321SOL    HW221738   8.675   7.133  13.056
73322SOL     OW21739   7.972  13.633  12.596
73322SOL    HW121740   7.977  13.568  12.666
73322SOL    HW221741   7.884  13.623  12.560
73323SOL     OW21742   5.401  12.004  13.975
73323SOL    HW121743   5.428  12.027  13.886
73323SOL    HW221744   5.482  11.977  14.018
73324SOL     OW21745   2.912   6.884   2.574
73324SOL    HW121746   2.994   6.904   2.529
73324SOL    HW221747   2.884   6.800   2.537
73325SOL     OW21748   6.659  14.415   4.859
73325SOL    HW121749   6.740  14.431   4.908
73325SOL    HW221750   6.616  14.501   4.856
73326SOL     OW21751  11.204  10.488   1.724
73326SOL    HW121752  11.181  10.440   1.644
73326SOL    HW221753  11.285  10.447   1.754
73327SOL     OW21754  10.074  11.140   3.040
73327SOL    HW121755   9.992  11.092   3.028
73327SOL    HW221756  10.138  11.072   3.062
73328SOL     OW21757   8.756   7.399   6.029
73328SOL    HW121758   8.748   7.401   5.933
73328SOL    HW221759   8.845   7.428   6.047
73329SOL     OW21760  10.983   1.076   1.951
73329SOL    HW121761  10.919   1.043   2.014
73329SOL    HW221762  11.052   1.010   1.950
73330SOL     OW21763   2.520   3.982   2.466
73330SOL    HW121764   2.432   3.979   2.505
73330SOL    HW221765   2.541   4.076   2.463
73331SOL     OW21766   0.962   9.755   9.351
73331SOL    HW121767   0.963   9.783   9.260
73331SOL    HW221768   0.983   9.833   9.401
73332SOL     OW21769   0.178  13.590   3.480
73332SOL    HW121770   0.148  13.551   3.562
73332SOL    HW221771   0.112  13.656   3.460
73333SOL     OW21772   0.942   1.117   2.063
73333SOL    HW121773   0.913   1.035   2.022
73333SOL    HW221774   0.980   1.090   2.146
73334SOL     OW21775  14.564  13.155  11.265
73334SOL    HW121776  14.528  13.215  11.199
73334SOL    HW221777  14.488  13.110  11.300
73335SOL     OW21778   4.890   1.063   8.506
73335SOL    HW121779   4.806   1.026   8.533
73335SOL    HW221780   4.866   1.142   8.456
73336SOL     OW21781   3.815   8.710   7.716
73336SOL    HW121782   3.737   8.687   7.666
73336SOL    HW221783   3.883   8.726   7.651
73337SOL     OW21784   9.659   1.538   1.159
73337SOL    HW121785   9.673   1.546   1.065
73337SOL    HW221786   9.610   1.456   1.169
73338SOL     OW21787   1.551   8.112   5.880
73338SOL    HW121788   1.571   8.030   5.924
73338SOL    HW221789   1.629   8.165   5.891
73339SOL     OW21790  10.612   2.888   7.219
73339SOL    HW121791  10.577   2.856   7.136
73339SOL    HW221792  10.538   2.931   7.262
73340SOL     OW21793  14.020   9.984   8.920
73340SOL    HW121794  13.930  10.006   8.896
73340SOL    HW221795  14.068   9.990   8.837
73341SOL     OW21796   1.471   6.595   4.752
73341SOL    HW121797   1.469   6.535   4.827
73341SOL    HW221798   1.545   6.565   4.699
73342SOL     OW21799   2.791   1.029   9.090
73342SOL    HW121800   2.805   1.014   9.184
73342SOL    HW221801   2.697   1.049   9.083
73343SOL     OW21802   6.190  10.061   9.404
73343SOL    HW121803   6.229  10.005   9.337
73343SOL    HW221804   6.265  10.108   9.443
73344SOL     OW21805  11.694   7.541  10.596
73344SOL    HW121806  11.676   7.542  10.690
73344SOL    HW221807  11.789   7.556  10.590
73345SOL     OW21808   2.653   2.009   7.632
73345SOL    HW121809   2.571   2.004   7.682
73345SOL    HW221810   2.631   1.972   7.546
73346SOL     OW21811   9.678   0.531  12.996
73346SOL    HW121812   9.588   0.562  12.993
73346SOL    HW221813   9.683   0.464  12.927
73347SOL     OW21814  12.565   6.027   1.928
73347SOL    HW121815  12.603   6.065   1.849
73347SOL    HW221816  12.627   6.050   1.997
73348SOL     OW21817  11.028   5.828  13.774
73348SOL    HW121818  10.956   5.793  13.721
73348SOL    HW221819  10.996   5.823  13.864
73349SOL     OW21820   1.992  14.574   9.927
73349SOL    HW121821   2.047  14.650   9.946
73349SOL    HW221822   1.973  14.581   9.833
73350SOL     OW21823  13.986  13.629   7.028
73350SOL    HW121824  14.071  13.665   7.050
73350SOL    HW221825  14.003  13.536   7.010
73351SOL     OW21826  12.971   4.510   4.272
73351SOL    HW121827  12.948   4.420   4.250
73351SOL    HW221828  12.930   4.562   4.203
73352SOL     OW21829  12.302  10.831   3.446
73352SOL    HW121830  12.338  10.859   3.531
73352SOL    HW221831  12.325  10.902   3.386
73353SOL     OW21832   8.030   4.110  14.642
73353SOL    HW121833   8.063   4.165  14.713
73353SOL    HW221834   7.988   4.036  14.686
73354SOL     OW21835   9.416   8.434   4.617
73354SOL    HW121836   9.499   8.425   4.570
73354SOL    HW221837   9.349   8.416   4.551
73355SOL     OW21838   8.119  14.056   8.549
73355SOL    HW121839   8.107  14.137   8.500
73355SOL    HW221840   8.110  14.082   8.641
73356SOL     OW21841   1.771   7.846   7.103
73356SOL    HW121842   1.827   7.912   7.063
73356SOL    HW221843   1.712   7.896   7.159
73357SOL     OW21844  11.853  12.080   5.663
73357SOL    HW121845  11.809  12.158   5.629
73357SOL    HW221846  11.826  12.075   5.754
73358SOL     OW21847  12.508   3.024   0.888
73358SOL    HW121848  12.499   3.112   0.851
73358SOL    HW221849  12.486   3.035   0.981
73359SOL     OW21850  11.650   5.790  13.941
73359SOL    HW121851  11.674   5.698  13.927
73359SOL    HW221852  11.693   5.836  13.868
73360SOL     OW21853  14.351   6.949   4.826
73360SOL    HW121854  14.443   6.941   4.853
73360SOL    HW221855  14.342   7.039   4.794
73361SOL     OW21856  10.149  14.422  14.835
73361SOL    HW121857  10.075  14.457   0.006
73361SOL    HW221858  10.208  14.496  14.825
73362SOL     OW21859   3.734   2.161   4.441
73362SOL    HW121860   3.639   2.168   4.435
73362SOL    HW221861   3.751   2.069   4.460
73363SOL     OW21862  14.303   8.471   7.467
73363SOL    HW121863  14.325   8.533   7.397
73363SOL    HW221864  14.378   8.473   7.526
73364SOL     OW21865  14.519   5.489   7.141
73364SOL    HW121866  14.575   5.509   7.066
73364SOL    HW221867  14.529   5.564   7.200
73365SOL     OW21868  11.744   3.867   7.620
73365SOL    HW121869  11.802   3.937   7.650
73365SOL    HW221870  11.775   3.846   7.532
73366SOL     OW21871   2.897   7.200   1.991
73366SOL    HW121872   2.888   7.188   2.086
73366SOL    HW221873   2.878   7.114   1.954
73367SOL     OW21874   4.248   3.339  10.860
73367SOL    HW121875   4.340   3.358  10.873
73367SOL    HW221876   4.206   3.425  10.851
73368SOL     OW21877   0.219   2.370   7.688
73368SOL    HW121878   0.162   2.371   7.612
73368SOL    HW221879   0.297   2.322   7.658
73369SOL     OW21880   0.187   9.707  10.023
73369SOL    HW121881   0.193   9.630  10.079
73369SOL    HW221882   0.147   9.675   9.942
73370SOL     OW21883   3.395   6.689  10.845
73370SOL    HW121884   3.342   6.718  10.771
73370SOL    HW221885   3.431   6.605  10.817
73371SOL     OW21886  10.278   0.393  13.280
73371SOL    HW121887  10.371   0.391  13.303
73371SOL    HW221888  10.239   0.452  13.345
73372SOL     OW21889   8.170   4.082  12.624
73372SOL    HW121890   8.192   4.028  12.548
73372SOL    HW221891   8.187   4.026  12.699
73373SOL     OW21892   8.600   9.554   3.608
73373SOL    HW121893   8.542   9.480   3.625
73373SOL    HW221894   8.563   9.597   3.531
73374SOL     OW21895  10.833   4.089   0.385
73374SOL    HW121896  10.741   4.088   0.357
73374SOL    HW221897  10.874   4.018   0.336
73375SOL     OW21898  12.999   4.628   0.454
73375SOL    HW121899  12.962   4.700   0.402
73375SOL    HW221900  12.939   4.619   0.528
73376SOL     OW21901  13.602   3.425   0.179
73376SOL    HW121902  13.583   3.433   0.273
73376SOL    HW221903  13.537   3.363   0.146
73377SOL     OW21904  10.275   2.458   4.696
73377SOL    HW121905  10.240   2.371   4.714
73377SOL    HW221906  10.273   2.466   4.600
73378SOL     OW21907   6.436   4.705  13.270
73378SOL    HW121908   6.489   4.698  13.350
73378SOL    HW221909   6.426   4.799  13.256
73379SOL     OW21910   4.425  12.459   9.082
73379SOL    HW121911   4.501  12.514   9.062
73379SOL    HW221912   4.439  12.380   9.030
73380SOL     OW21913   6.350   1.534  10.618
73380SOL    HW121914   6.435   1.514  10.579
73380SOL    HW221915   6.341   1.629  10.608
73381SOL     OW21916   4.506  14.172  14.114
73381SOL    HW121917   4.512  14.166  14.209
73381SOL    HW221918   4.581  14.122  14.082
73382SOL     OW21919  13.395   4.181   6.593
73382SOL    HW121920  13.398   4.120   6.667
73382SOL    HW221921  13.486   4.188   6.564
73383SOL     OW21922   3.889   5.108  13.029
73383SOL    HW121923   3.927   5.067  12.951
73383SOL    HW221924   3.862   5.035  13.084
73384SOL     OW21925  14.239   8.739   3.206
73384SOL    HW121926  14.316   8.734   3.262
73384SOL    HW221927  14.177   8.793   3.256
73385SOL     OW21928   5.882   2.445  13.002
73385SOL    HW121929   5.916   2.356  13.008
73385SOL    HW221930   5.909   2.476  12.916
73386SOL     OW21931   2.870   9.916  14.470
73386SOL    HW121932   2.964   9.923  14.456
73386SOL    HW221933   2.830   9.947  14.388
73387SOL     OW21934   0.153   1.814   3.163
73387SOL    HW121935   0.242   1.827   3.198
73387SOL    HW221936   0.150   1.722   3.138
73388SOL     OW21937   0.316   0.556  10.713
73388SOL    HW121938   0.334   0.481  10.657
73388SOL    HW221939   0.245   0.603  10.669
73389SOL     OW21940   2.391   7.307  14.386
73389SOL    HW121941   2.393   7.382  14.447
73389SOL    HW221942   2.469   7.256  14.408
73390SOL     OW21943   7.979   9.196   6.277
73390SOL    HW121944   7.945   9.126   6.333
73390SOL    HW221945   8.037   9.151   6.215
73391SOL     OW21946   3.883   4.467   0.342
73391SOL    HW121947   3.844   4.381   0.360
73391SOL    HW221948   3.811   4.520   0.310
73392SOL     OW21949   7.367   5.806   2.658
73392SOL    HW121950   7.356   5.853   2.575
73392SOL    HW221951   7.439   5.852   2.701
73393SOL     OW21952   1.621   6.545   4.461
73393SOL    HW121953   1.699   6.506   4.500
73393SOL    HW221954   1.631   6.639   4.476
73394SOL     OW21955   3.799   0.048   8.233
73394SOL    HW121956   3.892   0.039   8.213
73394SOL    HW221957   3.797   0.103   8.311
73395SOL     OW21958   1.212   9.129   8.799
73395SOL    HW121959   1.165   9.049   8.775
73395SOL    HW221960   1.156   9.171   8.864
73396SOL     OW21961   4.874   7.591   9.681
73396SOL    HW121962   4.965   7.600   9.653
73396SOL    HW221963   4.854   7.673   9.726
73397SOL     OW21964   7.202   5.055   9.952
73397SOL    HW121965   7.153   5.030   9.873
73397SOL    HW221966   7.166   5.140   9.977
73398SOL     OW21967   6.617   7.291  12.120
73398SOL    HW121968   6.525   7.267  12.134
73398SOL    HW221969   6.631   7.279  12.026
73399SOL     OW21970   6.456  10.933  12.549
73399SOL    HW121971   6.430  10.937  12.457
73399SOL    HW221972   6.464  11.025  12.575
73400SOL     OW21973   1.675   4.852  11.834
73400SOL    HW121974   1.721   4.776  11.797
73400SOL    HW221975   1.721   4.871  11.916
73401SOL     OW21976   9.936   4.748   5.417
73401SOL    HW121977   9.904   4.710   5.499
73401SOL    HW221978   9.901   4.838   5.417
73402SOL     OW21979   6.502   8.391   3.063
73402SOL    HW121980   6.459   8.331   3.124
73402SOL    HW221981   6.530   8.464   3.118
73403SOL     OW21982  10.212   5.068  14.602
73403SOL    HW121983  10.270   5.021  14.662
73403SOL    HW221984  10.144   5.105  14.658
73404SOL     OW21985  12.804   4.325   8.060
73404SOL    HW121986  12.784   4.394   8.123
73404SOL    HW221987  12.883   4.356   8.015
73405SOL     OW21988   2.019   5.595  10.273
73405SOL    HW121989   1.997   5.511  10.314
73405SOL    HW221990   2.042   5.652  10.346
73406SOL     OW21991   3.379  12.590   7.816
73406SOL    HW121992   3.442  12.661   7.830
73406SOL    HW221993   3.384  12.571   7.723
73407SOL     OW21994   5.157   3.729  12.140
73407SOL    HW121995   5.153   3.816  12.179
73407SOL    HW221996   5.085   3.727  12.077
73408SOL     OW21997   4.236   6.616  13.756
73408SOL    HW121998   4.154   6.646  13.795
73408SOL    HW221999   4.209   6.561  13.683
73409SOL     OW22000   4.302   4.480  11.869
73409SOL    HW122001   4.268   4.563  11.838
73409SOL    HW222002   4.296   4.421  11.793
73410SOL     OW22003   5.850  14.038   4.345
73410SOL    HW122004   5.850  14.006   4.435
73410SOL    HW222005   5.879  14.129   4.353
73411SOL     OW22006  11.139  13.930   4.854
73411SOL    HW122007  11.055  13.895   4.883
73411SOL    HW222008  11.150  14.011   4.904
73412SOL     OW22009   6.074   7.968  13.940
73412SOL    HW122010   6.140   8.012  13.992
73412SOL    HW222011   6.117   7.890  13.906
73413SOL     OW22012   5.347   6.584   4.467
73413SOL    HW122013   5.284   6.626   4.408
73413SOL    HW222014   5.402   6.532   4.408
73414SOL     OW22015  10.013   2.179   1.176
73414SOL    HW122016  10.002   2.084   1.179
73414SOL    HW222017  10.092   2.192   1.124
73415SOL     OW22018  14.397  10.667   3.691
73415SOL    HW122019  14.434  10.717   3.618
73415SOL    HW222020  14.457  10.594   3.704
73416SOL     OW22021  11.599   2.691   2.365
73416SOL    HW122022  11.681   2.654   2.332
73416SOL    HW222023  11.597   2.780   2.331
73417SOL     OW22024   0.306   9.616  13.910
73417SOL    HW122025   0.266   9.539  13.870
73417SOL    HW222026   0.362   9.582  13.979
73418SOL     OW22027   6.088  10.771   0.586
73418SOL    HW122028   6.171  10.739   0.621
73418SOL    HW222029   6.025  10.704   0.610
73419SOL     OW22030   5.926   8.718  12.366
73419SOL    HW122031   5.842   8.732  12.323
73419SOL    HW222032   5.916   8.635  12.413
73420SOL     OW22033   0.535   6.349  12.505
73420SOL    HW122034   0.542   6.317  12.414
73420SOL    HW222035   0.473   6.421  12.500
73421SOL     OW22036   6.477   8.118   8.339
73421SOL    HW122037   6.564   8.156   8.352
73421SOL    HW222038   6.489   8.024   8.350
73422SOL     OW22039  14.684   7.226   4.871
73422SOL    HW122040  14.594   7.217   4.900
73422SOL    HW222041  14.715   7.306   4.914
73423SOL     OW22042  14.256  14.213   2.004
73423SOL    HW122043  14.202  14.221   1.925
73423SOL    HW222044  14.204  14.159   2.063
73424SOL     OW22045   5.592   6.659  10.242
73424SOL    HW122046   5.655   6.713  10.290
73424SOL    HW222047   5.627   6.657  10.153
73425SOL     OW22048   6.650  13.942   9.511
73425SOL    HW122049   6.611  14.026   9.486
73425SOL    HW222050   6.585  13.902   9.569
73426SOL     OW22051  14.355   6.379   7.903
73426SOL    HW122052  14.314   6.447   7.849
73426SOL    HW222053  14.405   6.325   7.842
73427SOL     OW22054  12.202  10.345  13.490
73427SOL    HW122055  12.113  10.312  13.495
73427SOL    HW222056  12.246  10.289  13.426
73428SOL     OW22057   3.387   7.923  13.362
73428SOL    HW122058   3.345   8.008  13.344
73428SOL    HW222059   3.358   7.901  13.451
73429SOL     OW22060   7.762  14.018  12.495
73429SOL    HW122061   7.852  14.033  12.467
73429SOL    HW222062   7.761  14.044  12.587
73430SOL     OW22063   4.022   4.972  14.728
73430SOL    HW122064   3.958   4.915  14.685
73430SOL    HW222065   3.987   4.988  14.815
73431SOL     OW22066  14.343   7.219  12.504
73431SOL    HW122067  14.250   7.201  12.486
73431SOL    HW222068  14.350   7.314  12.504
73432SOL     OW22069   2.268   0.812   5.698
73432SOL    HW122070   2.251   0.905   5.688
73432SOL    HW222071   2.230   0.789   5.783
73433SOL     OW22072   8.007  12.776   9.574
73433SOL    HW122073   7.971  12.736   9.495
73433SOL    HW222074   7.939  12.834   9.606
73434SOL     OW22075  14.037   5.935   8.440
73434SOL    HW122076  14.011   5.886   8.518
73434SOL    HW222077  14.022   5.876   8.367
73435SOL     OW22078   8.056   1.045   7.951
73435SOL    HW122079   8.143   1.084   7.959
73435SOL    HW222080   7.996   1.120   7.949
73436SOL     OW22081   7.832  12.324   2.790
73436SOL    HW122082   7.838  12.343   2.884
73436SOL    HW222083   7.865  12.234   2.782
73437SOL     OW22084  10.456   2.007   7.980
73437SOL    HW122085  10.428   1.920   8.009
73437SOL    HW222086  10.393   2.031   7.912
73438SOL     OW22087   6.150  14.218   1.213
73438SOL    HW122088   6.131  14.220   1.120
73438SOL    HW222089   6.245  14.218   1.218
73439SOL     OW22090  14.676   5.940   4.153
73439SOL    HW122091  14.637   5.858   4.186
73439SOL    HW222092  14.613   6.008   4.179
73440SOL     OW22093  13.561   1.458   3.808
73440SOL    HW122094  13.535   1.539   3.763
73440SOL    HW222095  13.494   1.446   3.875
73441SOL     OW22096   5.756  10.190  12.354
73441SOL    HW122097   5.675  10.237  12.375
73441SOL    HW222098   5.773  10.212  12.262
73442SOL     OW22099   3.307  12.934  12.785
73442SOL    HW122100   3.273  12.945  12.874
73442SOL    HW222101   3.401  12.951  12.794
73443SOL     OW22102   7.158   5.583   0.311
73443SOL    HW122103   7.245   5.595   0.274
73443SOL    HW222104   7.174   5.541   0.396
73444SOL     OW22105  13.659   7.343  14.087
73444SOL    HW122106  13.692   7.372  14.172
73444SOL    HW222107  13.611   7.418  14.053
73445SOL     OW22108   8.443   4.828   8.377
73445SOL    HW122109   8.484   4.914   8.385
73445SOL    HW222110   8.407   4.827   8.288
73446SOL     OW22111   1.310  14.781   8.276
73446SOL    HW122112   1.245  14.737   8.222
73446SOL    HW222113   1.382  14.800   8.216
73447SOL     OW22114   4.521   4.350   4.983
73447SOL    HW122115   4.497   4.430   5.029
73447SOL    HW222116   4.508   4.371   4.890
73448SOL     OW22117   9.169   3.663   9.052
73448SOL    HW122118   9.117   3.618   9.118
73448SOL    HW222119   9.168   3.604   8.976
73449SOL     OW22120   1.012   0.355   3.634
73449SOL    HW122121   1.047   0.271   3.607
73449SOL    HW222122   1.073   0.387   3.700
73450SOL     OW22123   1.455  12.301  12.786
73450SOL    HW122124   1.417  12.389  12.793
73450SOL    HW222125   1.409  12.250  12.853
73451SOL     OW22126  10.147   9.144  12.412
73451SOL    HW122127  10.085   9.115  12.346
73451SOL    HW222128  10.230   9.154  12.364
73452SOL     OW22129   0.343  11.508   2.607
73452SOL    HW122130   0.354  11.415   2.587
73452SOL    HW222131   0.274  11.537   2.548
73453SOL     OW22132  11.626   6.201   5.466
73453SOL    HW122133  11.716   6.213   5.435
73453SOL    HW222134  11.605   6.110   5.444
73454SOL     OW22135   4.635   8.041  11.699
73454SOL    HW122136   4.554   8.023  11.746
73454SOL    HW222137   4.697   8.065  11.768
73455SOL     OW22138  14.043  12.144   0.896
73455SOL    HW122139  13.981  12.075   0.872
73455SOL    HW222140  14.107  12.100   0.952
73456SOL     OW22141   4.531  13.887  11.282
73456SOL    HW122142   4.499  13.942  11.210
73456SOL    HW222143   4.461  13.822  11.295
73457SOL     OW22144  10.423   8.590  10.565
73457SOL    HW122145  10.435   8.667  10.509
73457SOL    HW222146  10.331   8.591  10.589
73458SOL     OW22147   1.194   7.999   6.762
73458SOL    HW122148   1.171   7.980   6.853
73458SOL    HW222149   1.112   7.991   6.714
73459SOL     OW22150  12.963   5.227  14.762
73459SOL    HW122151  12.905   5.238  14.687
73459SOL    HW222152  13.051   5.228  14.725
73460SOL     OW22153  12.107   2.284  10.764
73460SOL    HW122154  12.195   2.320  10.753
73460SOL    HW222155  12.121   2.191  10.783
73461SOL     OW22156   9.624  10.340  12.028
73461SOL    HW122157   9.646  10.264  12.082
73461SOL    HW222158   9.571  10.304  11.957
73462SOL     OW22159  10.704   5.515  11.919
73462SOL    HW122160  10.691   5.423  11.943
73462SOL    HW222161  10.741   5.555  11.998
73463SOL     OW22162   1.433   0.907   7.324
73463SOL    HW122163   1.414   0.814   7.335
73463SOL    HW222164   1.507   0.909   7.263
73464SOL     OW22165   4.886  14.534   1.813
73464SOL    HW122166   4.897  14.569   1.902
73464SOL    HW222167   4.973  14.536   1.775
73465SOL     OW22168   0.140  12.019  12.047
73465SOL    HW122169   0.126  12.039  12.139
73465SOL    HW222170   0.052  12.020  12.009
73466SOL     OW22171  11.256   4.276  10.087
73466SOL    HW122172  11.329   4.278  10.149
73466SOL    HW222173  11.294   4.249  10.004
73467SOL     OW22174   0.520  11.700   4.197
73467SOL    HW122175   0.465  11.740   4.130
73467SOL    HW222176   0.527  11.608   4.171
73468SOL     OW22177   1.661   2.321  14.009
73468SOL    HW122178   1.704   2.235  14.001
73468SOL    HW222179   1.639   2.345  13.919
73469SOL     OW22180   8.127   2.229   7.148
73469SOL    HW122181   8.142   2.274   7.065
73469SOL    HW222182   8.191   2.267   7.208
73470SOL     OW22183  14.209   3.666  10.269
73470SOL    HW122184  14.159   3.709  10.200
73470SOL    HW222185  14.155   3.675  10.347
73471SOL     OW22186   7.197   9.414  13.075
73471SOL    HW122187   7.259   9.464  13.129
73471SOL    HW222188   7.136   9.480  13.042
73472SOL     OW22189   3.159   6.168   6.795
73472SOL    HW122190   3.113   6.141   6.715
73472SOL    HW222191   3.128   6.107   6.862
73473SOL     OW22192   0.803  13.241   9.469
73473SOL    HW122193   0.740  13.183   9.427
73473SOL    HW222194   0.832  13.192   9.546
73474SOL     OW22195  13.817   6.572   2.979
73474SOL    HW122196  13.777   6.618   3.052
73474SOL    HW222197  13.906   6.553   3.008
73475SOL     OW22198   5.497   2.958   3.648
73475SOL    HW122199   5.416   2.945   3.598
73475SOL    HW222200   5.487   3.044   3.688
73476SOL     OW22201  13.704   2.119  12.535
73476SOL    HW122202  13.718   2.039  12.484
73476SOL    HW222203  13.610   2.123  12.549
73477SOL     OW22204   8.926  12.590  12.980
73477SOL    HW122205   9.022  12.596  12.979
73477SOL    HW222206   8.898  12.621  12.894
73478SOL     OW22207   2.058   8.886   4.723
73478SOL    HW122208   2.089   8.951   4.660
73478SOL    HW222209   2.089   8.802   4.689
73479SOL     OW22210   2.462   2.147   9.461
73479SOL    HW122211   2.466   2.237   9.430
73479SOL    HW222212   2.550   2.128   9.495
73480SOL     OW22213   0.184  12.233  12.287
73480SOL    HW122214   0.250  12.266  12.349
73480SOL    HW222215   0.145  12.157  12.332
73481SOL     OW22216   8.944   8.760   0.328
73481SOL    HW122217   8.995   8.826   0.281
73481SOL    HW222218   8.940   8.793   0.418
73482SOL     OW22219   2.753   4.783   4.236
73482SOL    HW122220   2.774   4.863   4.285
73482SOL    HW222221   2.793   4.713   4.287
73483SOL     OW22222   2.003   2.641   8.713
73483SOL    HW122223   1.990   2.647   8.618
73483SOL    HW222224   2.098   2.635   8.724
73484SOL     OW22225   1.117   2.047  13.919
73484SOL    HW122226   1.081   2.065  14.006
73484SOL    HW222227   1.212   2.046  13.933
73485SOL     OW22228   5.410   9.940   0.747
73485SOL    HW122229   5.435   9.936   0.840
73485SOL    HW222230   5.488   9.974   0.703
73486SOL     OW22231   7.302   1.650   9.548
73486SOL    HW122232   7.312   1.560   9.577
73486SOL    HW222233   7.391   1.687   9.552
73487SOL     OW22234  14.843  12.574   6.326
73487SOL    HW122235   0.016  12.627   6.265
73487SOL    HW222236  14.752  12.589   6.300
73488SOL     OW22237  13.164  11.463   9.234
73488SOL    HW122238  13.196  11.383   9.275
73488SOL    HW222239  13.238  11.524   9.238
73489SOL     OW22240  11.719  11.346   3.328
73489SOL    HW122241  11.791  11.307   3.377
73489SOL    HW222242  11.763  11.395   3.257
73490SOL     OW22243  14.795   2.468  14.729
73490SOL    HW122244  14.839   2.486  14.812
73490SOL    HW222245  14.831   2.385  14.700
73491SOL     OW22246   3.866   6.537  11.991
73491SOL    HW122247   3.948   6.503  12.026
73491SOL    HW222248   3.817   6.565  12.069
73492SOL     OW22249  14.758  14.371  11.851
73492SOL    HW122250  14.674  14.326  11.863
73492SOL    HW222251  14.807  14.351  11.931
73493SOL     OW22252   0.794  12.003  13.045
73493SOL    HW122253   0.829  12.093  13.046
73493SOL    HW222254   0.761  11.991  12.957
73494SOL     OW22255   7.112  12.672   9.231
73494SOL    HW122256   7.095  12.617   9.154
73494SOL    HW222257   7.202  12.704   9.219
73495SOL     OW22258   6.598   2.587   7.157
73495SOL    HW122259   6.633   2.499   7.146
73495SOL    HW222260   6.519   2.576   7.210
73496SOL     OW22261   6.820  12.517   0.613
73496SOL    HW122262   6.845  12.430   0.644
73496SOL    HW222263   6.893  12.547   0.560
73497SOL     OW22264   4.981   2.937   3.534
73497SOL    HW122265   4.986   2.851   3.493
73497SOL    HW222266   4.899   2.935   3.583
73498SOL     OW22267  10.799  13.855   2.900
73498SOL    HW122268  10.791  13.907   2.979
73498SOL    HW222269  10.862  13.903   2.846
73499SOL     OW22270   3.615   4.724   1.779
73499SOL    HW122271   3.554   4.684   1.842
73499SOL    HW222272   3.636   4.654   1.717
73500SOL     OW22273  13.492  10.717  13.205
73500SOL    HW122274  13.577  10.728  13.247
73500SOL    HW222275  13.463  10.806  13.185
73501SOL     OW22276   4.750  13.178   0.092
73501SOL    HW122277   4.825  13.131   0.130
73501SOL    HW222278   4.745  13.147   0.002
73502SOL     OW22279   4.246   7.026   0.917
73502SOL    HW122280   4.313   7.070   0.865
73502SOL    HW222281   4.191   6.982   0.852
73503SOL     OW22282  13.875   2.596   0.273
73503SOL    HW122283  13.896   2.539   0.200
73503SOL    HW222284  13.939   2.667   0.268
73504SOL     OW22285   8.112   3.485   6.604
73504SOL    HW122286   8.033   3.477   6.550
73504SOL    HW222287   8.108   3.411   6.664
73505SOL     OW22288  14.203   5.794  14.308
73505SOL    HW122289  14.118   5.763  14.276
73505SOL    HW222290  14.267   5.739  14.263
73506SOL     OW22291  12.261  14.555   5.433
73506SOL    HW122292  12.200  14.628   5.429
73506SOL    HW222293  12.337  14.590   5.479
73507SOL     OW22294  13.170  13.171   4.916
73507SOL    HW122295  13.145  13.078   4.913
73507SOL    HW222296  13.134  13.208   4.836
73508SOL     OW22297   1.294   7.668   9.893
73508SOL    HW122298   1.217   7.686   9.948
73508SOL    HW222299   1.270   7.702   9.807
73509SOL     OW22300  13.098  13.160   3.495
73509SOL    HW122301  13.100  13.212   3.414
73509SOL    HW222302  13.126  13.073   3.468
73510SOL     OW22303   5.214  12.434   9.071
73510SOL    HW122304   5.212  12.475   9.157
73510SOL    HW222305   5.229  12.341   9.088
73511SOL     OW22306   4.802   4.346  10.189
73511SOL    HW122307   4.812   4.314  10.100
73511SOL    HW222308   4.731   4.410  10.184
73512SOL     OW22309   7.251  13.121   4.112
73512SOL    HW122310   7.336  13.137   4.070
73512SOL    HW222311   7.267  13.139   4.204
73513SOL     OW22312  13.973   3.368   6.773
73513SOL    HW122313  13.995   3.385   6.864
73513SOL    HW222314  13.877   3.369   6.771
73514SOL     OW22315  14.703   1.072   6.100
73514SOL    HW122316  14.659   1.080   6.185
73514SOL    HW222317  14.746   0.987   6.103
73515SOL     OW22318   8.589   4.523   8.535
73515SOL    HW122319   8.543   4.598   8.574
73515SOL    HW222320   8.682   4.545   8.543
73516SOL     OW22321   1.675   2.867   6.943
73516SOL    HW122322   1.641   2.954   6.959
73516SOL    HW222323   1.601   2.818   6.907
73517SOL     OW22324  14.817  14.077  14.765
73517SOL    HW122325  14.795  14.100  14.674
73517SOL    HW222326   0.030  14.047  14.761
73518SOL     OW22327  12.364  10.590  11.387
73518SOL    HW122328  12.271  10.570  11.386
73518SOL    HW222329  12.380  10.626  11.474
73519SOL     OW22330   7.704   9.090   4.496
73519SOL    HW122331   7.674   9.174   4.461
73519SOL    HW222332   7.773   9.113   4.559
73520SOL     OW22333  14.538   7.121   4.513
73520SOL    HW122334  14.477   7.054   4.481
73520SOL    HW222335  14.573   7.161   4.433
73521SOL     OW22336  12.731   9.468  14.493
73521SOL    HW122337  12.773   9.387  14.463
73521SOL    HW222338  12.769   9.536  14.436
73522SOL     OW22339   0.016   2.621   7.658
73522SOL    HW122340   0.107   2.643   7.678
73522SOL    HW222341  14.846   2.703   7.672
73523SOL     OW22342   7.882   8.190   3.701
73523SOL    HW122343   7.874   8.284   3.683
73523SOL    HW222344   7.837   8.178   3.784
73524SOL     OW22345  10.524   3.059   4.633
73524SOL    HW122346  10.553   3.116   4.705
73524SOL    HW222347  10.465   3.114   4.581
73525SOL     OW22348   9.163   5.169  10.082
73525SOL    HW122349   9.152   5.075  10.069
73525SOL    HW222350   9.238   5.192  10.028
73526SOL     OW22351   3.928   4.678   2.521
73526SOL    HW122352   3.948   4.671   2.615
73526SOL    HW222353   4.008   4.650   2.477
73527SOL     OW22354  10.299  14.334   5.486
73527SOL    HW122355  10.229  14.329   5.420
73527SOL    HW222356  10.254  14.320   5.570
73528SOL     OW22357  11.753   9.553  11.314
73528SOL    HW122358  11.699   9.632  11.306
73528SOL    HW222359  11.761   9.520  11.225
73529SOL     OW22360   6.251   5.172   3.373
73529SOL    HW122361   6.318   5.105   3.363
73529SOL    HW222362   6.192   5.159   3.298
73530SOL     OW22363   3.754  12.259   7.255
73530SOL    HW122364   3.700  12.333   7.281
73530SOL    HW222365   3.778  12.217   7.338
73531SOL     OW22366   1.525   1.268   6.601
73531SOL    HW122367   1.571   1.186   6.619
73531SOL    HW222368   1.495   1.298   6.687
73532SOL     OW22369  11.487   9.865   2.290
73532SOL    HW122370  11.572   9.907   2.301
73532SOL    HW222371  11.495   9.782   2.337
73533SOL     OW22372   6.366  14.483   1.435
73533SOL    HW122373   6.392  14.396   1.403
73533SOL    HW222374   6.403  14.488   1.523
73534SOL     OW22375  11.307   5.116   6.234
73534SOL    HW122376  11.355   5.144   6.156
73534SOL    HW222377  11.255   5.192   6.259
73535SOL     OW22378  14.337   7.012  12.919
73535SOL    HW122379  14.424   7.054  12.918
73535SOL    HW222380  14.279   7.077  12.878
73536SOL     OW22381   8.055   5.061  12.844
73536SOL    HW122382   8.048   4.966  12.833
73536SOL    HW222383   7.972   5.087  12.885
73537SOL     OW22384   8.601  13.775   5.437
73537SOL    HW122385   8.527  13.722   5.408
73537SOL    HW222386   8.574  13.812   5.521
73538SOL     OW22387  10.589  11.434   5.732
73538SOL    HW122388  10.501  11.410   5.760
73538SOL    HW222389  10.644  11.420   5.809
73539SOL     OW22390   9.262  10.841   9.705
73539SOL    HW122391   9.266  10.814   9.613
73539SOL    HW222392   9.270  10.937   9.702
73540SOL     OW22393   2.547   2.259   6.843
73540SOL    HW122394   2.504   2.269   6.928
73540SOL    HW222395   2.561   2.348   6.812
73541SOL     OW22396   5.359   0.073   2.073
73541SOL    HW122397   5.332   0.063   2.164
73541SOL    HW222398   5.318   0.000   2.027
73542SOL     OW22399  13.682   9.225  14.875
73542SOL    HW122400  13.694   9.147  14.820
73542SOL    HW222401  13.695   9.299  14.815
73543SOL     OW22402  14.856  13.325   4.135
73543SOL    HW122403  14.807  13.281   4.065
73543SOL    HW222404  14.793  13.385   4.174
73544SOL     OW22405  12.611   4.035   0.230
73544SOL    HW122406  12.693   4.054   0.185
73544SOL    HW222407  12.558   4.114   0.217
73545SOL     OW22408   2.781   0.493   2.469
73545SOL    HW122409   2.689   0.493   2.492
73545SOL    HW222410   2.820   0.559   2.525
73546SOL     OW22411  11.166   3.320  13.065
73546SOL    HW122412  11.118   3.243  13.095
73546SOL    HW222413  11.232   3.335  13.133
73547SOL     OW22414   0.247  14.561   9.754
73547SOL    HW122415   0.175  14.582   9.695
73547SOL    HW222416   0.209  14.568   9.842
73548SOL     OW22417   9.294  13.133  11.777
73548SOL    HW122418   9.302  13.112  11.684
73548SOL    HW222419   9.285  13.048  11.819
73549SOL     OW22420  14.699   2.487   2.462
73549SOL    HW122421  14.610   2.464   2.435
73549SOL    HW222422  14.714   2.432   2.540
73550SOL     OW22423   7.361   3.258  11.721
73550SOL    HW122424   7.342   3.185  11.663
73550SOL    HW222425   7.445   3.293  11.690
73551SOL     OW22426   1.070   1.198  14.113
73551SOL    HW122427   1.043   1.240  14.032
73551SOL    HW222428   1.101   1.111  14.086
73552SOL     OW22429   0.754   9.283   6.430
73552SOL    HW122430   0.708   9.245   6.505
73552SOL    HW222431   0.824   9.335   6.469
73553SOL     OW22432   2.288   0.938   6.824
73553SOL    HW122433   2.255   0.990   6.751
73553SOL    HW222434   2.377   0.916   6.798
73554SOL     OW22435  14.030   2.300   6.237
73554SOL    HW122436  14.123   2.288   6.255
73554SOL    HW222437  14.026   2.381   6.186
73555SOL     OW22438  14.484  14.760   7.630
73555SOL    HW122439  14.536  14.839   7.642
73555SOL    HW222440  14.431  14.776   7.552
73556SOL     OW22441  14.586  10.465   3.687
73556SOL    HW122442  14.561  10.419   3.607
73556SOL    HW222443  14.676  10.495   3.670
73557SOL     OW22444   5.039   4.542  10.793
73557SOL    HW122445   4.944   4.556  10.793
73557SOL    HW222446   5.052   4.468  10.733
73558SOL     OW22447   5.910  12.155   7.592
73558SOL    HW122448   5.971  12.223   7.563
73558SOL    HW222449   5.907  12.165   7.688
73559SOL     OW22450   5.172   2.743   9.391
73559SOL    HW122451   5.099   2.692   9.356
73559SOL    HW222452   5.129   2.820   9.430
73560SOL     OW22453   6.088   5.492   0.110
73560SOL    HW122454   6.164   5.465   0.058
73560SOL    HW222455   6.117   5.568   0.159
73561SOL     OW22456  11.478   3.777   8.115
73561SOL    HW122457  11.505   3.764   8.025
73561SOL    HW222458  11.517   3.704   8.163
73562SOL     OW22459   8.683  14.809   1.625
73562SOL    HW122460   8.594  14.825   1.597
73562SOL    HW222461   8.679  14.815   1.721
73563SOL     OW22462   9.056   3.635   9.783
73563SOL    HW122463   8.967   3.601   9.773
73563SOL    HW222464   9.112   3.558   9.778
73564SOL     OW22465   9.188   6.453   0.718
73564SOL    HW122466   9.124   6.419   0.655
73564SOL    HW222467   9.187   6.390   0.790
73565SOL     OW22468   6.007   9.443   5.373
73565SOL    HW122469   5.964   9.427   5.289
73565SOL    HW222470   6.054   9.362   5.392
73566SOL     OW22471   9.797  13.927   2.993
73566SOL    HW122472   9.811  13.844   3.039
73566SOL    HW222473   9.710  13.955   3.021
73567SOL     OW22474   1.332   3.105   3.149
73567SOL    HW122475   1.262   3.094   3.213
73567SOL    HW222476   1.348   3.199   3.147
73568SOL     OW22477  11.055  11.501  12.423
73568SOL    HW122478  11.129  11.496  12.364
73568SOL    HW222479  11.091  11.481  12.510
73569SOL     OW22480  14.433  11.212   6.730
73569SOL    HW122481  14.463  11.124   6.706
73569SOL    HW222482  14.396  11.202   6.818
73570SOL     OW22483   0.617   0.785   5.936
73570SOL    HW122484   0.560   0.847   5.892
73570SOL    HW222485   0.621   0.710   5.876
73571SOL     OW22486  13.476   3.720  10.783
73571SOL    HW122487  13.516   3.649  10.732
73571SOL    HW222488  13.490   3.798  10.730
73572SOL     OW22489  12.285  14.803   3.735
73572SOL    HW122490  12.282  14.767   3.646
73572SOL    HW222491  12.335   0.006   3.726
73573SOL     OW22492  10.900   5.875  11.784
73573SOL    HW122493  10.918   5.922  11.702
73573SOL    HW222494  10.923   5.784  11.765
73574SOL     OW22495   8.757   1.834  10.191
73574SOL    HW122496   8.791   1.921  10.169
73574SOL    HW222497   8.689   1.818  10.125
73575SOL     OW22498   4.562   5.217   2.148
73575SOL    HW122499   4.582   5.297   2.100
73575SOL    HW222500   4.471   5.228   2.175
73576SOL     OW22501  12.201  12.579   6.083
73576SOL    HW122502  12.243  12.497   6.057
73576SOL    HW222503  12.205  12.578   6.179
73577SOL     OW22504   3.728  11.971  11.627
73577SOL    HW122505   3.743  11.905  11.694
73577SOL    HW222506   3.654  12.023  11.661
73578SOL     OW22507   5.671  12.177   5.480
73578SOL    HW122508   5.763  12.176   5.505
73578SOL    HW222509   5.642  12.086   5.491
73579SOL     OW22510  13.930   1.882   0.428
73579SOL    HW122511  13.903   1.929   0.507
73579SOL    HW222512  14.015   1.844   0.451
73580SOL     OW22513   2.417   1.391   6.400
73580SOL    HW122514   2.436   1.444   6.322
73580SOL    HW222515   2.500   1.349   6.421
73581SOL     OW22516   7.498   0.801   5.256
73581SOL    HW122517   7.482   0.707   5.262
73581SOL    HW222518   7.414   0.838   5.228
73582SOL     OW22519  13.748   0.294  11.700
73582SOL    HW122520  13.686   0.222  11.708
73582SOL    HW222521  13.803   0.288  11.779
73583SOL     OW22522   5.638   8.987  10.018
73583SOL    HW122523   5.693   9.059   9.990
73583SOL    HW222524   5.690   8.942  10.085
73584SOL     OW22525   2.208  13.060   4.062
73584SOL    HW122526   2.230  13.152   4.072
73584SOL    HW222527   2.129  13.059   4.007
73585SOL     OW22528  11.724  13.616  11.913
73585SOL    HW122529  11.726  13.543  11.852
73585SOL    HW222530  11.672  13.683  11.868
73586SOL     OW22531  13.759   4.560   9.368
73586SOL    HW122532  13.811   4.637   9.349
73586SOL    HW222533  13.787   4.495   9.303
73587SOL     OW22534  11.688   8.099   9.705
73587SOL    HW122535  11.693   8.118   9.611
73587SOL    HW222536  11.608   8.049   9.715
73588SOL     OW22537   6.248   4.583  14.431
73588SOL    HW122538   6.269   4.489  14.431
73588SOL    HW222539   6.283   4.615  14.348
73589SOL     OW22540  12.383   6.254   0.138
73589SOL    HW122541  12.399   6.307   0.217
73589SOL    HW222542  12.402   6.313   0.065
73590SOL     OW22543   7.549  10.990   0.857
73590SOL    HW122544   7.617  11.004   0.791
73590SOL    HW222545   7.579  10.913   0.906
73591SOL     OW22546  12.444  12.972   3.672
73591SOL    HW122547  12.401  13.033   3.611
73591SOL    HW222548  12.378  12.954   3.738
73592SOL     OW22549  12.482  12.414   0.696
73592SOL    HW122550  12.566  12.418   0.741
73592SOL    HW222551  12.437  12.494   0.724
73593SOL     OW22552  14.198   9.191  11.627
73593SOL    HW122553  14.140   9.184  11.551
73593SOL    HW222554  14.144   9.166  11.701
73594SOL     OW22555   3.822  11.238   5.755
73594SOL    HW122556   3.779  11.293   5.820
73594SOL    HW222557   3.802  11.148   5.783
73595SOL     OW22558  11.823   4.669   9.419
73595SOL    HW122559  11.871   4.667   9.501
73595SOL    HW222560  11.777   4.754   9.421
73596SOL     OW22561  12.664   4.180   8.460
73596SOL    HW122562  12.742   4.234   8.448
73596SOL    HW222563  12.611   4.197   8.382
73597SOL     OW22564   6.575  10.173   3.842
73597SOL    HW122565   6.584  10.268   3.840
73597SOL    HW222566   6.661  10.141   3.868
73598SOL     OW22567   4.325   4.064   7.592
73598SOL    HW122568   4.279   4.063   7.676
73598SOL    HW222569   4.417   4.062   7.616
73599SOL     OW22570  11.071   8.128   6.535
73599SOL    HW122571  11.099   8.179   6.611
73599SOL    HW222572  11.036   8.193   6.474
73600SOL     OW22573  11.970   3.347  13.922
73600SOL    HW122574  11.985   3.427  13.872
73600SOL    HW222575  12.057   3.316  13.945
73601SOL     OW22576   6.517  12.294   7.400
73601SOL    HW122577   6.482  12.229   7.339
73601SOL    HW222578   6.588  12.336   7.352
73602SOL     OW22579  10.177   6.739   5.575
73602SOL    HW122580  10.111   6.744   5.506
73602SOL    HW222581  10.159   6.816   5.630
73603SOL     OW22582   0.900   2.987   4.798
73603SOL    HW122583   0.892   3.035   4.881
73603SOL    HW222584   0.853   2.906   4.813
73604SOL     OW22585  14.535  12.581  12.656
73604SOL    HW122586  14.611  12.618  12.702
73604SOL    HW222587  14.462  12.593  12.717
73605SOL     OW22588   3.104   9.358  10.554
73605SOL    HW122589   3.100   9.404  10.470
73605SOL    HW222590   3.198   9.351  10.573
73606SOL     OW22591   8.567   9.226  11.310
73606SOL    HW122592   8.500   9.159  11.323
73606SOL    HW222593   8.641   9.195  11.362
73607SOL     OW22594   7.970  12.989   3.025
73607SOL    HW122595   7.988  12.997   2.931
73607SOL    HW222596   7.907  12.917   3.031
73608SOL     OW22597   0.978   9.125   7.578
73608SOL    HW122598   0.937   9.064   7.517
73608SOL    HW222599   0.904   9.164   7.625
73609SOL     OW22600   7.129   9.441  14.329
73609SOL    HW122601   7.182   9.519  14.313
73609SOL    HW222602   7.131   9.429  14.423
73610SOL     OW22603   3.891   5.203   9.228
73610SOL    HW122604   3.935   5.152   9.297
73610SOL    HW222605   3.831   5.260   9.276
73611SOL     OW22606  10.979   7.646  14.485
73611SOL    HW122607  11.011   7.695  14.410
73611SOL    HW222608  10.904   7.596  14.451
73612SOL     OW22609   3.058   4.750  12.216
73612SOL    HW122610   2.987   4.696  12.252
73612SOL    HW222611   3.095   4.697  12.146
73613SOL     OW22612  10.402   1.441   8.476
73613SOL    HW122613  10.372   1.350   8.477
73613SOL    HW222614  10.488   1.437   8.434
73614SOL     OW22615   6.742   9.478   1.038
73614SOL    HW122616   6.802   9.536   1.085
73614SOL    HW222617   6.657   9.494   1.079
73615SOL     OW22618   0.212   9.480   4.597
73615SOL    HW122619   0.196   9.515   4.509
73615SOL    HW222620   0.197   9.555   4.655
73616SOL     OW22621  11.854   4.333  13.331
73616SOL    HW122622  11.883   4.337  13.240
73616SOL    HW222623  11.761   4.355  13.328
73617SOL     OW22624  12.669   9.250   6.798
73617SOL    HW122625  12.580   9.215   6.787
73617SOL    HW222626  12.713   9.227   6.716
73618SOL     OW22627   2.724   5.865   9.854
73618SOL    HW122628   2.779   5.788   9.839
73618SOL    HW222629   2.672   5.843   9.931
73619SOL     OW22630  10.351  10.874   5.810
73619SOL    HW122631  10.293  10.917   5.747
73619SOL    HW222632  10.375  10.791   5.768
73620SOL     OW22633   0.775  10.963  14.806
73620SOL    HW122634   0.713  10.960  14.732
73620SOL    HW222635   0.859  10.939  14.767
73621SOL     OW22636   0.772   9.101   2.329
73621SOL    HW122637   0.695   9.113   2.384
73621SOL    HW222638   0.842   9.146   2.376
73622SOL     OW22639  12.010  14.552   4.293
73622SOL    HW122640  12.015  14.646   4.277
73622SOL    HW222641  12.063  14.513   4.223
73623SOL     OW22642   7.379  10.297  14.618
73623SOL    HW122643   7.420  10.211  14.612
73623SOL    HW222644   7.433  10.344  14.682
73624SOL     OW22645  10.589   8.697  14.453
73624SOL    HW122646  10.516   8.650  14.413
73624SOL    HW222647  10.667   8.658  14.414
73625SOL     OW22648   2.988  12.701   0.383
73625SOL    HW122649   3.082  12.715   0.399
73625SOL    HW222650   2.945  12.768   0.436
73626SOL     OW22651  14.088   9.815  13.095
73626SOL    HW122652  14.008   9.790  13.049
73626SOL    HW222653  14.127   9.732  13.122
73627SOL     OW22654   6.281   7.496   0.405
73627SOL    HW122655   6.238   7.411   0.414
73627SOL    HW222656   6.212   7.554   0.373
73628SOL     OW22657  10.387   9.157   8.974
73628SOL    HW122658  10.429   9.139   9.058
73628SOL    HW222659  10.294   9.143   8.990
73629SOL     OW22660  10.545  14.181   5.468
73629SOL    HW122661  10.455  14.213   5.477
73629SOL    HW222662  10.595  14.257   5.439
73630SOL     OW22663   7.787  14.501   4.053
73630SOL    HW122664   7.798  14.441   4.127
73630SOL    HW222665   7.766  14.585   4.093
73631SOL     OW22666   6.618  12.376   5.452
73631SOL    HW122667   6.592  12.349   5.364
73631SOL    HW222668   6.573  12.314   5.510
73632SOL     OW22669   8.075   8.106   9.892
73632SOL    HW122670   8.052   8.019   9.927
73632SOL    HW222671   8.162   8.095   9.854
73633SOL     OW22672   3.570   2.201   2.027
73633SOL    HW122673   3.475   2.197   2.041
73633SOL    HW222674   3.606   2.141   2.093
73634SOL     OW22675  12.755  12.273   4.948
73634SOL    HW122676  12.686  12.329   4.984
73634SOL    HW222677  12.716  12.232   4.872
73635SOL     OW22678   0.042  12.740   8.935
73635SOL    HW122679   0.065  12.651   8.908
73635SOL    HW222680   0.125  12.781   8.957
73636SOL     OW22681   6.383   4.264   6.473
73636SOL    HW122682   6.291   4.240   6.462
73636SOL    HW222683   6.390   4.350   6.430
73637SOL     OW22684   5.120   1.344  10.370
73637SOL    HW122685   5.055   1.391  10.423
73637SOL    HW222686   5.199   1.342  10.424
73638SOL     OW22687   1.462   6.718  14.560
73638SOL    HW122688   1.529   6.752  14.619
73638SOL    HW222689   1.415   6.796  14.530
73639SOL     OW22690  11.242   1.477  11.992
73639SOL    HW122691  11.222   1.471  11.899
73639SOL    HW222692  11.163   1.445  12.036
73640SOL     OW22693   3.756   6.808  12.768
73640SOL    HW122694   3.806   6.889  12.777
73640SOL    HW222695   3.718   6.794  12.855
73641SOL     OW22696   3.749   3.359   4.224
73641SOL    HW122697   3.668   3.364   4.173
73641SOL    HW222698   3.765   3.449   4.252
73642SOL     OW22699   0.159   7.589  11.112
73642SOL    HW122700   0.155   7.648  11.188
73642SOL    HW222701   0.168   7.647  11.037
73643SOL     OW22702   9.366   1.509   7.542
73643SOL    HW122703   9.345   1.601   7.529
73643SOL    HW222704   9.374   1.499   7.636
73644SOL     OW22705   5.777   9.039   5.322
73644SOL    HW122706   5.702   9.068   5.270
73644SOL    HW222707   5.819   8.972   5.268
73645SOL     OW22708   1.173  14.363   4.038
73645SOL    HW122709   1.203  14.344   4.127
73645SOL    HW222710   1.214  14.447   4.017
73646SOL     OW22711  12.376   1.286   3.491
73646SOL    HW122712  12.303   1.275   3.552
73646SOL    HW222713  12.452   1.249   3.536
73647SOL     OW22714   1.947  11.438   0.369
73647SOL    HW122715   1.941  11.524   0.411
73647SOL    HW222716   1.988  11.382   0.434
73648SOL     OW22717  10.099  11.856  14.877
73648SOL    HW122718  10.109  11.836   0.092
73648SOL    HW222719  10.127  11.775  14.833
73649SOL     OW22720  11.561  12.342   9.158
73649SOL    HW122721  11.493  12.298   9.210
73649SOL    HW222722  11.538  12.435   9.162
73650SOL     OW22723  12.390  13.854   1.474
73650SOL    HW122724  12.313  13.859   1.417
73650SOL    HW222725  12.366  13.904   1.551
73651SOL     OW22726  11.814  11.940   1.709
73651SOL    HW122727  11.853  11.880   1.646
73651SOL    HW222728  11.888  11.989   1.745
73652SOL     OW22729  10.282  11.826  13.291
73652SOL    HW122730  10.283  11.918  13.266
73652SOL    HW222731  10.352  11.786  13.239
73653SOL     OW22732  14.558   8.661   9.895
73653SOL    HW122733  14.635   8.604   9.902
73653SOL    HW222734  14.594   8.750   9.898
73654SOL     OW22735   0.639  12.527  10.421
73654SOL    HW122736   0.580  12.596  10.452
73654SOL    HW222737   0.721  12.543  10.467
73655SOL     OW22738   4.184   9.920  13.744
73655SOL    HW122739   4.179   9.833  13.705
73655SOL    HW222740   4.170   9.980  13.671
73656SOL     OW22741   0.525   8.805   2.516
73656SOL    HW122742   0.538   8.722   2.562
73656SOL    HW222743   0.438   8.797   2.476
73657SOL     OW22744   1.890  14.332  10.292
73657SOL    HW122745   1.810  14.326  10.344
73657SOL    HW222746   1.934  14.249  10.307
73658SOL     OW22747   5.687   1.098   3.470
73658SOL    HW122748   5.774   1.061   3.486
73658SOL    HW222749   5.670   1.081   3.378
73659SOL     OW22750   8.798   5.690   3.934
73659SOL    HW122751   8.745   5.732   4.001
73659SOL    HW222752   8.740   5.681   3.858
73660SOL     OW22753   0.551   2.354  13.531
73660SOL    HW122754   0.524   2.443  13.556
73660SOL    HW222755   0.596   2.320  13.608
73661SOL     OW22756  11.701   5.851   8.341
73661SOL    HW122757  11.694   5.763   8.305
73661SOL    HW222758  11.635   5.853   8.411
73662SOL     OW22759  13.894   6.859   2.911
73662SOL    HW122760  13.801   6.860   2.888
73662SOL    HW222761  13.896   6.844   3.005
73663SOL     OW22762   0.905   3.682   3.982
73663SOL    HW122763   0.952   3.758   4.015
73663SOL    HW222764   0.917   3.614   4.048
73664SOL     OW22765   1.598   2.000  12.914
73664SOL    HW122766   1.640   1.968  12.835
73664SOL    HW222767   1.545   2.075  12.884
73665SOL     OW22768   5.244   1.543   6.074
73665SOL    HW122769   5.186   1.570   6.146
73665SOL    HW222770   5.233   1.611   6.008
73666SOL     OW22771   5.085   8.929   6.510
73666SOL    HW122772   5.145   8.854   6.507
73666SOL    HW222773   5.029   8.917   6.433
73667SOL     OW22774   0.334   2.403   0.992
73667SOL    HW122775   0.358   2.358   1.073
73667SOL    HW222776   0.418   2.416   0.947
73668SOL     OW22777  10.326  11.594   7.542
73668SOL    HW122778  10.315  11.528   7.473
73668SOL    HW222779  10.255  11.657   7.526
73669SOL     OW22780   2.574   0.574  13.875
73669SOL    HW122781   2.659   0.535  13.893
73669SOL    HW222782   2.592   0.667  13.861
73670SOL     OW22783  12.380   2.490   2.666
73670SOL    HW122784  12.399   2.446   2.749
73670SOL    HW222785  12.338   2.572   2.692
73671SOL     OW22786   2.597   9.733  13.663
73671SOL    HW122787   2.552   9.757  13.744
73671SOL    HW222788   2.539   9.766  13.593
73672SOL     OW22789  13.734  10.833   2.087
73672SOL    HW122790  13.813  10.801   2.045
73672SOL    HW222791  13.698  10.757   2.132
73673SOL     OW22792   3.473   3.488  12.072
73673SOL    HW122793   3.442   3.459  12.158
73673SOL    HW222794   3.563   3.518  12.088
73674SOL     OW22795   1.072   5.569   0.151
73674SOL    HW122796   1.027   5.611   0.224
73674SOL    HW222797   1.068   5.634   0.080
73675SOL     OW22798   4.066   9.266  14.127
73675SOL    HW122799   4.002   9.295  14.062
73675SOL    HW222800   4.097   9.346  14.168
73676SOL     OW22801  14.599   0.639  13.588
73676SOL    HW122802  14.531   0.706  13.597
73676SOL    HW222803  14.674   0.687  13.551
73677SOL     OW22804   4.212  10.569  11.300
73677SOL    HW122805   4.200  10.620  11.220
73677SOL    HW222806   4.224  10.634  11.369
73678SOL     OW22807  13.207  13.940   1.808
73678SOL    HW122808  13.198  14.028   1.844
73678SOL    HW222809  13.299  13.933   1.784
73679SOL     OW22810  12.034   9.819   2.566
73679SOL    HW122811  11.948   9.797   2.530
73679SOL    HW222812  12.093   9.813   2.492
73680SOL     OW22813   6.417  10.871  13.120
73680SOL    HW122814   6.326  10.885  13.147
73680SOL    HW222815   6.409  10.839  13.030
73681SOL     OW22816  10.224   0.230   6.904
73681SOL    HW122817  10.312   0.202   6.932
73681SOL    HW222818  10.239   0.311   6.855
73682SOL     OW22819   6.274   0.425   2.918
73682SOL    HW122820   6.272   0.519   2.902
73682SOL    HW222821   6.183   0.397   2.906
73683SOL     OW22822   6.983   7.248   2.243
73683SOL    HW122823   6.933   7.227   2.322
73683SOL    HW222824   6.927   7.219   2.171
73684SOL     OW22825  12.400   5.997   9.215
73684SOL    HW122826  12.313   5.969   9.242
73684SOL    HW222827  12.387   6.085   9.179
73685SOL     OW22828   9.354   2.534   6.793
73685SOL    HW122829   9.344   2.605   6.856
73685SOL    HW222830   9.441   2.548   6.755
73686SOL     OW22831   8.908   6.773   8.322
73686SOL    HW122832   8.881   6.864   8.314
73686SOL    HW222833   8.981   6.773   8.383
73687SOL     OW22834   6.516  10.105   4.946
73687SOL    HW122835   6.545  10.196   4.943
73687SOL    HW222836   6.520  10.081   5.038
73688SOL     OW22837  14.309   8.626  14.355
73688SOL    HW122838  14.328   8.544  14.402
73688SOL    HW222839  14.219   8.648  14.379
73689SOL     OW22840   3.069   3.400  14.047
73689SOL    HW122841   3.015   3.324  14.067
73689SOL    HW222842   3.152   3.382  14.091
73690SOL     OW22843   9.139   1.133   9.660
73690SOL    HW122844   9.113   1.048   9.624
73690SOL    HW222845   9.144   1.190   9.583
73691SOL     OW22846  12.056  10.259  12.964
73691SOL    HW122847  12.133  10.315  12.966
73691SOL    HW222848  12.019  10.266  13.052
73692SOL     OW22849   9.898  11.298   8.615
73692SOL    HW122850   9.952  11.228   8.579
73692SOL    HW222851   9.808  11.265   8.612
73693SOL     OW22852  11.448  11.660   9.183
73693SOL    HW122853  11.476  11.723   9.117
73693SOL    HW222854  11.392  11.598   9.135
73694SOL     OW22855  12.442   7.543   3.340
73694SOL    HW122856  12.530   7.536   3.377
73694SOL    HW222857  12.405   7.455   3.351
73695SOL     OW22858  10.921   3.238   1.518
73695SOL    HW122859  10.981   3.192   1.577
73695SOL    HW222860  10.905   3.177   1.447
73696SOL     OW22861   2.239   7.235   0.922
73696SOL    HW122862   2.206   7.210   1.009
73696SOL    HW222863   2.164   7.223   0.864
73697SOL     OW22864  13.378   1.400   6.800
73697SOL    HW122865  13.399   1.377   6.709
73697SOL    HW222866  13.315   1.472   6.792
73698SOL     OW22867   6.528   7.989   4.939
73698SOL    HW122868   6.602   7.985   4.999
73698SOL    HW222869   6.490   7.901   4.942
73699SOL     OW22870  12.765   2.332   9.512
73699SOL    HW122871  12.689   2.343   9.570
73699SOL    HW222872  12.811   2.256   9.548
73700SOL     OW22873   2.205   5.292   5.090
73700SOL    HW122874   2.230   5.382   5.112
73700SOL    HW222875   2.112   5.286   5.112
73701SOL     OW22876   0.633   3.184  11.068
73701SOL    HW122877   0.682   3.216  11.144
73701SOL    HW222878   0.636   3.255  11.005
73702SOL     OW22879  10.300   4.363   7.828
73702SOL    HW122880  10.384   4.408   7.825
73702SOL    HW222881  10.321   4.271   7.819
73703SOL     OW22882  10.552   4.938  10.366
73703SOL    HW122883  10.591   4.926  10.279
73703SOL    HW222884  10.493   5.012  10.356
73704SOL     OW22885   2.188  11.624  10.930
73704SOL    HW122886   2.097  11.644  10.953
73704SOL    HW222887   2.191  11.528  10.929
73705SOL     OW22888   3.517   2.482   6.461
73705SOL    HW122889   3.449   2.475   6.394
73705SOL    HW222890   3.597   2.453   6.418
73706SOL     OW22891   7.577   8.220   4.936
73706SOL    HW122892   7.637   8.288   4.966
73706SOL    HW222893   7.501   8.228   4.993
73707SOL     OW22894   7.635   0.553  13.628
73707SOL    HW122895   7.726   0.524  13.617
73707SOL    HW222896   7.607   0.513  13.710
73708SOL     OW22897  12.961   0.673  14.073
73708SOL    HW122898  13.028   0.653  14.007
73708SOL    HW222899  13.004   0.734  14.133
73709SOL     OW22900   2.497   2.994   7.961
73709SOL    HW122901   2.522   2.967   8.050
73709SOL    HW222902   2.556   3.067   7.941
73710SOL     OW22903  13.087  11.589  14.573
73710SOL    HW122904  13.116  11.672  14.611
73710SOL    HW222905  13.003  11.571  14.615
73711SOL     OW22906   1.508   9.481   1.468
73711SOL    HW122907   1.531   9.426   1.394
73711SOL    HW222908   1.593   9.505   1.507
73712SOL     OW22909   6.306   3.413   0.141
73712SOL    HW122910   6.400   3.421   0.155
73712SOL    HW222911   6.266   3.444   0.222
73713SOL     OW22912   4.901  12.616   4.167
73713SOL    HW122913   4.895  12.532   4.121
73713SOL    HW222914   4.851  12.677   4.112
73714SOL     OW22915   0.053   8.969   6.994
73714SOL    HW122916  14.847   9.001   7.030
73714SOL    HW222917   0.066   8.884   7.036
73715SOL     OW22918   9.079   5.988  12.356
73715SOL    HW122919   9.149   6.039  12.399
73715SOL    HW222920   9.124   5.939  12.287
73716SOL     OW22921  12.508   9.684   9.563
73716SOL    HW122922  12.445   9.656   9.630
73716SOL    HW222923  12.523   9.776   9.582
73717SOL     OW22924   3.511  13.665  13.305
73717SOL    HW122925   3.468  13.749  13.319
73717SOL    HW222926   3.445  13.600  13.328
73718SOL     OW22927  12.515   0.840  10.587
73718SOL    HW122928  12.588   0.900  10.601
73718SOL    HW222929  12.540   0.760  10.634
73719SOL     OW22930  14.548   9.080   0.457
73719SOL    HW122931  14.470   9.055   0.506
73719SOL    HW222932  14.515   9.112   0.373
73720SOL     OW22933  11.749   5.099  13.124
73720SOL    HW122934  11.764   5.035  13.055
73720SOL    HW222935  11.761   5.050  13.206
73721SOL     OW22936  10.926   6.879   9.309
73721SOL    HW122937  10.966   6.833   9.384
73721SOL    HW222938  10.964   6.967   9.312
73722SOL     OW22939  13.388  13.612   9.605
73722SOL    HW122940  13.471  13.568   9.622
73722SOL    HW222941  13.342  13.554   9.544
73723SOL     OW22942   5.207   9.980   6.614
73723SOL    HW122943   5.205   9.967   6.520
73723SOL    HW222944   5.209  10.075   6.625
73724SOL     OW22945  11.630   9.130  13.661
73724SOL    HW122946  11.619   9.120  13.755
73724SOL    HW222947  11.540   9.134  13.627
73725SOL     OW22948   8.438  12.400   0.670
73725SOL    HW122949   8.375  12.334   0.699
73725SOL    HW222950   8.452  12.382   0.577
73726SOL     OW22951  10.559  12.495  14.583
73726SOL    HW122952  10.639  12.547  14.576
73726SOL    HW222953  10.490  12.553  14.549
73727SOL     OW22954   6.193  10.426   4.019
73727SOL    HW122955   6.103  10.440   4.050
73727SOL    HW222956   6.213  10.506   3.970
73728SOL     OW22957   0.499   5.453   2.398
73728SOL    HW122958   0.534   5.468   2.310
73728SOL    HW222959   0.500   5.358   2.408
73729SOL     OW22960   7.585  14.487   5.833
73729SOL    HW122961   7.647  14.455   5.768
73729SOL    HW222962   7.510  14.427   5.826
73730SOL     OW22963   5.657   2.411   7.165
73730SOL    HW122964   5.562   2.417   7.168
73730SOL    HW222965   5.686   2.499   7.140
73731SOL     OW22966   1.133   6.032   7.178
73731SOL    HW122967   1.101   5.945   7.200
73731SOL    HW222968   1.223   6.033   7.211
73732SOL     OW22969   2.551   7.038   2.886
73732SOL    HW122970   2.542   6.954   2.842
73732SOL    HW222971   2.470   7.047   2.936
73733SOL     OW22972   8.746  12.500   9.328
73733SOL    HW122973   8.806  12.571   9.352
73733SOL    HW222974   8.768  12.480   9.237
73734SOL     OW22975  10.936   3.683   0.875
73734SOL    HW122976  11.007   3.661   0.935
73734SOL    HW222977  10.968   3.760   0.827
73735SOL     OW22978  10.518   2.599   4.699
73735SOL    HW122979  10.447   2.539   4.677
73735SOL    HW222980  10.477   2.671   4.746
73736SOL     OW22981  11.626   4.121   5.891
73736SOL    HW122982  11.585   4.208   5.890
73736SOL    HW222983  11.692   4.127   5.960
73737SOL     OW22984   0.314   2.368   1.439
73737SOL    HW122985   0.320   2.426   1.363
73737SOL    HW222986   0.220   2.359   1.455
73738SOL     OW22987   3.404   3.518   9.941
73738SOL    HW122988   3.419   3.501  10.034
73738SOL    HW222989   3.434   3.608   9.928
73739SOL     OW22990   4.757  14.468  10.173
73739SOL    HW122991   4.794  14.538  10.119
73739SOL    HW222992   4.673  14.447  10.130
73740SOL     OW22993   7.200   8.193   7.553
73740SOL    HW122994   7.282   8.146   7.571
73740SOL    HW222995   7.132   8.136   7.590
73741SOL     OW22996   3.394   9.756   4.211
73741SOL    HW122997   3.356   9.798   4.134
73741SOL    HW222998   3.378   9.819   4.282
73742SOL     OW22999   8.215   2.941  12.099
73742SOL    HW123000   8.123   2.962  12.117
73742SOL    HW223001   8.219   2.932  12.003
73743SOL     OW23002  13.494   3.504  10.546
73743SOL    HW123003  13.467   3.575  10.487
73743SOL    HW223004  13.412   3.474  10.586
73744SOL     OW23005  14.341   6.611  11.382
73744SOL    HW123006  14.383   6.669  11.446
73744SOL    HW223007  14.327   6.529  11.430
73745SOL     OW23008   8.189  13.931   4.441
73745SOL    HW123009   8.253  13.944   4.371
73745SOL    HW223010   8.239  13.892   4.512
73746SOL     OW23011  14.359   6.386  10.955
73746SOL    HW123012  14.405   6.390  11.039
73746SOL    HW223013  14.281   6.335  10.973
73747SOL     OW23014  10.900   2.274  10.598
73747SOL    HW123015  10.832   2.338  10.577
73747SOL    HW223016  10.980   2.312  10.563
73748SOL     OW23017   8.367   8.202  10.968
73748SOL    HW123018   8.308   8.147  10.917
73748SOL    HW223019   8.415   8.253  10.902
73749SOL     OW23020   1.412   4.367  10.463
73749SOL    HW123021   1.457   4.451  10.475
73749SOL    HW223022   1.358   4.357  10.542
73750SOL     OW23023   0.839  12.788   6.301
73750SOL    HW123024   0.924  12.784   6.258
73750SOL    HW223025   0.790  12.713   6.266
73751SOL     OW23026   4.374  14.867   3.673
73751SOL    HW123027   4.289   0.032   3.677
73751SOL    HW223028   4.405  14.865   3.763
73752SOL     OW23029   5.309   0.529   4.017
73752SOL    HW123030   5.296   0.452   4.071
73752SOL    HW223031   5.269   0.600   4.067
73753SOL     OW23032   3.018   5.967  13.509
73753SOL    HW123033   3.054   5.983  13.596
73753SOL    HW223034   3.076   6.014  13.449
73754SOL     OW23035   9.828   0.525   8.242
73754SOL    HW123036   9.908   0.547   8.290
73754SOL    HW223037   9.858   0.502   8.155
73755SOL     OW23038   4.939  13.343   3.928
73755SOL    HW123039   4.911  13.251   3.933
73755SOL    HW223040   4.897  13.377   3.849
73756SOL     OW23041   5.298   9.203   2.776
73756SOL    HW123042   5.308   9.143   2.850
73756SOL    HW223043   5.379   9.254   2.775
73757SOL     OW23044   1.834   3.322   4.305
73757SOL    HW123045   1.824   3.405   4.350
73757SOL    HW223046   1.888   3.269   4.364
73758SOL     OW23047  10.325   3.816   4.519
73758SOL    HW123048  10.240   3.813   4.475
73758SOL    HW223049  10.339   3.727   4.551
73759SOL     OW23050   9.322  11.375   3.087
73759SOL    HW123051   9.371  11.435   3.030
73759SOL    HW223052   9.308  11.297   3.033
73760SOL     OW23053  14.027   9.634   6.980
73760SOL    HW123054  13.939   9.672   6.987
73760SOL    HW223055  14.013   9.540   6.985
73761SOL     OW23056   4.104   9.009   6.237
73761SOL    HW123057   4.070   9.017   6.148
73761SOL    HW223058   4.093   8.917   6.259
73762SOL     OW23059  10.512   3.040  13.709
73762SOL    HW123060  10.570   2.991  13.767
73762SOL    HW223061  10.429   2.993  13.714
73763SOL     OW23062  14.383   5.042   6.447
73763SOL    HW123063  14.465   5.060   6.401
73763SOL    HW223064  14.364   5.123   6.494
73764SOL     OW23065  11.149   2.237   6.252
73764SOL    HW123066  11.144   2.263   6.160
73764SOL    HW223067  11.059   2.250   6.285
73765SOL     OW23068   1.158   1.396   6.580
73765SOL    HW123069   1.222   1.423   6.646
73765SOL    HW223070   1.078   1.444   6.603
73766SOL     OW23071   4.843   2.193   3.905
73766SOL    HW123072   4.758   2.233   3.891
73766SOL    HW223073   4.893   2.260   3.952
73767SOL     OW23074   9.611  10.204  11.429
73767SOL    HW123075   9.610  10.254  11.510
73767SOL    HW223076   9.703  10.196  11.407
73768SOL     OW23077  13.303   5.891  10.072
73768SOL    HW123078  13.281   5.813  10.021
73768SOL    HW223079  13.255   5.879  10.154
73769SOL     OW23080  13.217  13.826  12.061
73769SOL    HW123081  13.201  13.766  11.988
73769SOL    HW223082  13.223  13.913  12.021
73770SOL     OW23083  13.986   8.131  12.637
73770SOL    HW123084  13.984   8.085  12.553
73770SOL    HW223085  13.999   8.062  12.702
73771SOL     OW23086   5.804  14.351  10.525
73771SOL    HW123087   5.841  14.438  10.541
73771SOL    HW223088   5.780  14.352  10.433
73772SOL     OW23089  14.144   2.666  11.101
73772SOL    HW123090  14.126   2.623  11.017
73772SOL    HW223091  14.092   2.616  11.165
73773SOL     OW23092   4.302  12.563   8.770
73773SOL    HW123093   4.367  12.541   8.704
73773SOL    HW223094   4.314  12.657   8.785
73774SOL     OW23095  11.638   8.991  14.754
73774SOL    HW123096  11.624   8.958  14.666
73774SOL    HW223097  11.573   9.061  14.764
73775SOL     OW23098   5.682   5.066   6.069
73775SOL    HW123099   5.672   4.975   6.041
73775SOL    HW223100   5.754   5.100   6.016
73776SOL     OW23101   3.583   5.871   6.173
73776SOL    HW123102   3.502   5.901   6.213
73776SOL    HW223103   3.632   5.830   6.244
73777SOL     OW23104   8.117  11.359  10.526
73777SOL    HW123105   8.098  11.315  10.609
73777SOL    HW223106   8.032  11.384  10.492
73778SOL     OW23107   0.326  12.521   8.250
73778SOL    HW123108   0.283  12.499   8.333
73778SOL    HW223109   0.253  12.534   8.188
73779SOL     OW23110  13.497   3.629   3.370
73779SOL    HW123111  13.410   3.646   3.406
73779SOL    HW223112  13.545   3.711   3.381
73780SOL     OW23113   9.296   6.753  13.246
73780SOL    HW123114   9.362   6.687  13.270
73780SOL    HW223115   9.332   6.795  13.168
73781SOL     OW23116   6.618  10.039  12.575
73781SOL    HW123117   6.546  10.041  12.637
73781SOL    HW223118   6.618   9.950  12.540
73782SOL     OW23119  10.136  11.504  12.182
73782SOL    HW123120  10.103  11.432  12.128
73782SOL    HW223121  10.230  11.506  12.164
73783SOL     OW23122   1.667  13.786  11.764
73783SOL    HW123123   1.683  13.703  11.718
73783SOL    HW223124   1.750  13.808  11.805
73784SOL     OW23125   7.154   0.590   1.227
73784SOL    HW123126   7.239   0.560   1.259
73784SOL    HW223127   7.163   0.591   1.132
73785SOL     OW23128   9.511   8.139  13.172
73785SOL    HW123129   9.554   8.094  13.099
73785SOL    HW223130   9.454   8.073  13.211
73786SOL     OW23131  10.355  14.175   9.806
73786SOL    HW123132  10.286  14.217   9.755
73786SOL    HW223133  10.437  14.205   9.767
73787SOL     OW23134  14.339   0.767   7.782
73787SOL    HW123135  14.310   0.746   7.693
73787SOL    HW223136  14.303   0.854   7.799
73788SOL     OW23137   6.721   8.473   3.296
73788SOL    HW123138   6.717   8.430   3.381
73788SOL    HW223139   6.773   8.413   3.241
73789SOL     OW23140   0.377  12.404   6.234
73789SOL    HW123141   0.300  12.379   6.285
73789SOL    HW223142   0.389  12.497   6.254
73790SOL     OW23143   7.761   2.270  11.610
73790SOL    HW123144   7.694   2.202  11.613
73790SOL    HW223145   7.712   2.350  11.592
73791SOL     OW23146  11.139   6.534   1.775
73791SOL    HW123147  11.082   6.598   1.733
73791SOL    HW223148  11.201   6.586   1.826
73792SOL     OW23149   9.571   0.443   6.198
73792SOL    HW123150   9.563   0.503   6.272
73792SOL    HW223151   9.638   0.381   6.225
73793SOL     OW23152   2.371   3.302  10.642
73793SOL    HW123153   2.390   3.393  10.622
73793SOL    HW223154   2.278   3.292  10.622
73794SOL     OW23155   8.803   4.288   5.516
73794SOL    HW123156   8.798   4.342   5.437
73794SOL    HW223157   8.852   4.342   5.578
73795SOL     OW23158   3.653   4.884   6.611
73795SOL    HW123159   3.655   4.890   6.706
73795SOL    HW223160   3.726   4.939   6.582
73796SOL     OW23161   3.829   4.435  11.838
73796SOL    HW123162   3.863   4.520  11.809
73796SOL    HW223163   3.868   4.422  11.924
73797SOL     OW23164  13.735   0.690   4.298
73797SOL    HW123165  13.661   0.714   4.243
73797SOL    HW223166  13.695   0.654   4.377
73798SOL     OW23167   1.037   5.409  10.152
73798SOL    HW123168   0.967   5.402  10.216
73798SOL    HW223169   1.104   5.349  10.183
73799SOL     OW23170  14.661   5.703  10.708
73799SOL    HW123171  14.732   5.670  10.654
73799SOL    HW223172  14.625   5.777  10.659
73800SOL     OW23173   3.478   2.903  12.998
73800SOL    HW123174   3.451   2.987  13.034
73800SOL    HW223175   3.398   2.866  12.961
73801SOL     OW23176   5.843   8.588   7.333
73801SOL    HW123177   5.897   8.650   7.382
73801SOL    HW223178   5.901   8.555   7.264
73802SOL     OW23179   4.926   4.480   1.383
73802SOL    HW123180   4.982   4.437   1.318
73802SOL    HW223181   4.926   4.572   1.358
73803SOL     OW23182  11.981   7.119   6.214
73803SOL    HW123183  11.893   7.104   6.249
73803SOL    HW223184  12.002   7.038   6.168
73804SOL     OW23185   2.485   6.893   2.525
73804SOL    HW123186   2.494   6.836   2.601
73804SOL    HW223187   2.531   6.973   2.549
73805SOL     OW23188  13.928   8.766   1.759
73805SOL    HW123189  13.924   8.681   1.715
73805SOL    HW223190  13.969   8.748   1.844
73806SOL     OW23191   8.403   0.157   4.510
73806SOL    HW123192   8.431   0.211   4.436
73806SOL    HW223193   8.314   0.130   4.488
73807SOL     OW23194   0.011   6.363  14.635
73807SOL    HW123195  14.829   6.310  14.688
73807SOL    HW223196   0.091   6.367  14.687
73808SOL     OW23197  12.318  11.090   1.222
73808SOL    HW123198  12.360  11.159   1.172
73808SOL    HW223199  12.291  11.132   1.304
73809SOL     OW23200  13.332   5.897   0.031
73809SOL    HW123201  13.287   5.820  14.875
73809SOL    HW223202  13.397   5.918  14.843
73810SOL     OW23203   2.848  13.107   5.867
73810SOL    HW123204   2.925  13.055   5.843
73810SOL    HW223205   2.875  13.197   5.852
73811SOL     OW23206  11.290   5.303  13.121
73811SOL    HW123207  11.306   5.212  13.099
73811SOL    HW223208  11.210   5.302  13.174
73812SOL     OW23209   4.644   7.801  13.443
73812SOL    HW123210   4.703   7.726  13.451
73812SOL    HW223211   4.595   7.784  13.362
73813SOL     OW23212   1.798  10.892   4.907
73813SOL    HW123213   1.759  10.848   4.832
73813SOL    HW223214   1.859  10.828   4.945
73814SOL     OW23215   2.917   5.250   1.301
73814SOL    HW123216   2.987   5.289   1.354
73814SOL    HW223217   2.856   5.322   1.285
73815SOL     OW23218   4.572  14.460   3.979
73815SOL    HW123219   4.655  14.416   3.998
73815SOL    HW223220   4.505  14.396   4.004
73816SOL     OW23221  11.287   2.272   5.790
73816SOL    HW123222  11.275   2.202   5.855
73816SOL    HW223223  11.282   2.227   5.706
73817SOL     OW23224   8.461   5.682   3.147
73817SOL    HW123225   8.459   5.757   3.206
73817SOL    HW223226   8.552   5.653   3.147
73818SOL     OW23227  12.777   6.533   5.443
73818SOL    HW123228  12.715   6.605   5.429
73818SOL    HW223229  12.854   6.576   5.480
73819SOL     OW23230   1.898  11.070  11.267
73819SOL    HW123231   1.966  11.003  11.273
73819SOL    HW223232   1.916  11.129  11.340
73820SOL     OW23233   2.829  13.997   3.300
73820SOL    HW123234   2.847  14.086   3.331
73820SOL    HW223235   2.901  13.945   3.336
73821SOL     OW23236  14.258   1.712   5.783
73821SOL    HW123237  14.263   1.787   5.841
73821SOL    HW223238  14.315   1.735   5.709
73822SOL     OW23239  14.290  12.621   3.644
73822SOL    HW123240  14.208  12.586   3.681
73822SOL    HW223241  14.359  12.581   3.698
73823SOL     OW23242  11.067  14.675   8.558
73823SOL    HW123243  11.056  14.604   8.622
73823SOL    HW223244  11.140  14.646   8.503
73824SOL     OW23245  13.402   8.575   8.210
73824SOL    HW123246  13.471   8.514   8.237
73824SOL    HW223247  13.321   8.524   8.219
73825SOL     OW23248   5.616   0.779   1.807
73825SOL    HW123249   5.652   0.849   1.752
73825SOL    HW223250   5.530   0.761   1.769
73826SOL     OW23251   5.280   7.266  11.361
73826SOL    HW123252   5.342   7.210  11.314
73826SOL    HW223253   5.315   7.355  11.349
73827SOL     OW23254   5.787   7.183   3.845
73827SOL    HW123255   5.701   7.152   3.816
73827SOL    HW223256   5.819   7.114   3.903
73828SOL     OW23257   0.876   6.597   7.415
73828SOL    HW123258   0.937   6.596   7.489
73828SOL    HW223259   0.902   6.674   7.364
73829SOL     OW23260   1.398  11.881   5.791
73829SOL    HW123261   1.400  11.813   5.724
73829SOL    HW223262   1.439  11.841   5.867
73830SOL     OW23263   0.998   8.503   5.455
73830SOL    HW123264   0.956   8.560   5.391
73830SOL    HW223265   1.057   8.448   5.404
73831SOL     OW23266  13.469  11.447   2.713
73831SOL    HW123267  13.512  11.436   2.629
73831SOL    HW223268  13.489  11.537   2.739
73832SOL     OW23269  13.618   7.403  11.191
73832SOL    HW123270  13.562   7.430  11.265
73832SOL    HW223271  13.610   7.308  11.188
73833SOL     OW23272   5.511  12.529   7.915
73833SOL    HW123273   5.481  12.440   7.895
73833SOL    HW223274   5.500  12.537   8.010
73834SOL     OW23275   0.753   6.923   6.381
73834SOL    HW123276   0.713   7.006   6.407
73834SOL    HW223277   0.769   6.933   6.287
73835SOL     OW23278   2.117  14.563  11.878
73835SOL    HW123279   2.093  14.646  11.838
73835SOL    HW223280   2.189  14.531  11.825
73836SOL     OW23281   4.587   9.871  10.040
73836SOL    HW123282   4.510   9.883   9.984
73836SOL    HW223283   4.570   9.790  10.087
73837SOL     OW23284   7.192  13.172   8.020
73837SOL    HW123285   7.210  13.141   8.108
73837SOL    HW223286   7.155  13.096   7.975
73838SOL     OW23287   5.222  12.214   6.672
73838SOL    HW123288   5.283  12.287   6.664
73838SOL    HW223289   5.210  12.183   6.583
73839SOL     OW23290  12.947   7.223  12.663
73839SOL    HW123291  12.888   7.216  12.738
73839SOL    HW223292  12.956   7.133  12.631
73840SOL     OW23293   1.520  14.627   2.248
73840SOL    HW123294   1.460  14.564   2.289
73840SOL    HW223295   1.547  14.583   2.167
73841SOL     OW23296   2.417   5.717   8.001
73841SOL    HW123297   2.417   5.650   7.932
73841SOL    HW223298   2.356   5.783   7.969
73842SOL     OW23299   7.373  11.395  13.800
73842SOL    HW123300   7.464  11.420  13.783
73842SOL    HW223301   7.380  11.306  13.835
73843SOL     OW23302  12.118   9.857   7.183
73843SOL    HW123303  12.064   9.899   7.250
73843SOL    HW223304  12.175   9.926   7.150
73844SOL     OW23305  10.188   2.248  13.350
73844SOL    HW123306  10.146   2.223  13.268
73844SOL    HW223307  10.117   2.247  13.414
73845SOL     OW23308  14.720   6.933   3.811
73845SOL    HW123309  14.651   6.981   3.857
73845SOL    HW223310  14.702   6.841   3.832
73846SOL     OW23311   0.541   6.221   0.766
73846SOL    HW123312   0.504   6.284   0.704
73846SOL    HW223313   0.470   6.205   0.829
73847SOL     OW23314   2.818  13.259   5.510
73847SOL    HW123315   2.824  13.267   5.605
73847SOL    HW223316   2.727  13.279   5.490
73848SOL     OW23317  11.014   3.941  14.536
73848SOL    HW123318  10.957   3.944  14.613
73848SOL    HW223319  10.993   3.858  14.494
73849SOL     OW23320   0.038  10.882  12.091
73849SOL    HW123321  14.857  10.822  12.045
73849SOL    HW223322   0.039  10.851  12.181
73850SOL     OW23323  14.739   3.311   6.877
73850SOL    HW123324  14.834   3.304   6.873
73850SOL    HW223325  14.722   3.398   6.912
73851SOL     OW23326   3.375  14.323   0.773
73851SOL    HW123327   3.332  14.376   0.840
73851SOL    HW223328   3.460  14.364   0.761
73852SOL     OW23329  10.616   7.427   4.382
73852SOL    HW123330  10.557   7.352   4.373
73852SOL    HW223331  10.664   7.429   4.299
73853SOL     OW23332   3.310   6.366   2.001
73853SOL    HW123333   3.339   6.448   1.962
73853SOL    HW223334   3.220   6.355   1.971
73854SOL     OW23335  11.813   5.980   9.829
73854SOL    HW123336  11.783   6.071   9.832
73854SOL    HW223337  11.782   5.948   9.744
73855SOL     OW23338  11.336  10.875   7.740
73855SOL    HW123339  11.390  10.859   7.818
73855SOL    HW223340  11.310  10.788   7.711
73856SOL     OW23341   3.973   7.288   5.308
73856SOL    HW123342   4.017   7.350   5.250
73856SOL    HW223343   3.996   7.202   5.273
73857SOL     OW23344   5.167  10.999   2.314
73857SOL    HW123345   5.114  11.071   2.349
73857SOL    HW223346   5.157  10.929   2.379
73858SOL     OW23347   4.375   3.379   1.859
73858SOL    HW123348   4.322   3.304   1.887
73858SOL    HW223349   4.409   3.415   1.941
73859SOL     OW23350  11.673  10.237  13.548
73859SOL    HW123351  11.589  10.202  13.518
73859SOL    HW223352  11.717  10.162  13.588
73860SOL     OW23353   4.718   5.207  14.499
73860SOL    HW123354   4.789   5.251  14.451
73860SOL    HW223355   4.748   5.208  14.590
73861SOL     OW23356  13.556   3.654   1.897
73861SOL    HW123357  13.632   3.609   1.859
73861SOL    HW223358  13.522   3.708   1.826
73862SOL     OW23359  13.885  10.325   8.323
73862SOL    HW123360  13.849  10.258   8.380
73862SOL    HW223361  13.957  10.282   8.277
73863SOL     OW23362  11.698   5.313  13.983
73863SOL    HW123363  11.619   5.264  13.957
73863SOL    HW223364  11.761   5.296  13.913
73864SOL     OW23365  11.366  12.119   3.888
73864SOL    HW123366  11.412  12.035   3.886
73864SOL    HW223367  11.436  12.184   3.888
73865SOL     OW23368   9.376   3.250   1.946
73865SOL    HW123369   9.453   3.197   1.967
73865SOL    HW223370   9.409   3.316   1.885
73866SOL     OW23371   8.962  11.448   7.857
73866SOL    HW123372   8.917  11.364   7.869
73866SOL    HW223373   9.051  11.424   7.830
73867SOL     OW23374   7.523   8.199  10.962
73867SOL    HW123375   7.611   8.217  10.996
73867SOL    HW223376   7.535   8.127  10.900
73868SOL     OW23377   3.297  10.286   3.374
73868SOL    HW123378   3.289  10.205   3.425
73868SOL    HW223379   3.392  10.302   3.372
73869SOL     OW23380   8.577   5.061   8.264
73869SOL    HW123381   8.599   5.135   8.320
73869SOL    HW223382   8.494   5.085   8.223
73870SOL     OW23383   7.776  14.681   3.698
73870SOL    HW123384   7.839  14.633   3.751
73870SOL    HW223385   7.821  14.761   3.673
73871SOL     OW23386  11.405   2.555  12.582
73871SOL    HW123387  11.381   2.466  12.558
73871SOL    HW223388  11.466   2.583  12.514
73872SOL     OW23389   5.364  13.820   9.452
73872SOL    HW123390   5.411  13.751   9.406
73872SOL    HW223391   5.397  13.817   9.541
73873SOL     OW23392   0.465  14.176  12.098
73873SOL    HW123393   0.466  14.247  12.163
73873SOL    HW223394   0.372  14.162  12.079
73874SOL     OW23395   1.132   2.531   6.823
73874SOL    HW123396   1.172   2.563   6.743
73874SOL    HW223397   1.199   2.475   6.863
73875SOL     OW23398   0.348   1.440   6.064
73875SOL    HW123399   0.404   1.365   6.045
73875SOL    HW223400   0.381   1.510   6.006
73876SOL     OW23401   5.880  10.014   0.505
73876SOL    HW123402   5.872  10.003   0.411
73876SOL    HW223403   5.865  10.107   0.520
73877SOL     OW23404  11.771  12.124  11.459
73877SOL    HW123405  11.778  12.032  11.433
73877SOL    HW223406  11.699  12.158  11.405
73878SOL     OW23407   6.324   8.562   6.978
73878SOL    HW123408   6.398   8.610   7.014
73878SOL    HW223409   6.358   8.475   6.958
73879SOL     OW23410  11.743   7.518   5.723
73879SOL    HW123411  11.757   7.537   5.630
73879SOL    HW223412  11.765   7.426   5.733
73880SOL     OW23413   5.994  12.705  12.015
73880SOL    HW123414   5.914  12.653  12.013
73880SOL    HW223415   6.056  12.657  11.960
73881SOL     OW23416   2.250  14.230  11.815
73881SOL    HW123417   2.167  14.238  11.862
73881SOL    HW223418   2.291  14.151  11.852
73882SOL     OW23419   4.187   8.759  13.749
73882SOL    HW123420   4.254   8.827  13.746
73882SOL    HW223421   4.167   8.741  13.657
73883SOL     OW23422   7.894   8.800   2.672
73883SOL    HW123423   7.858   8.713   2.658
73883SOL    HW223424   7.984   8.785   2.700
73884SOL     OW23425   4.013  13.651  14.519
73884SOL    HW123426   4.096  13.624  14.481
73884SOL    HW223427   3.982  13.722  14.463
73885SOL     OW23428   3.029   3.392  13.264
73885SOL    HW123429   2.946   3.344  13.267
73885SOL    HW223430   3.082   3.353  13.333
73886SOL     OW23431  13.983   7.326   3.154
73886SOL    HW123432  13.896   7.305   3.188
73886SOL    HW223433  13.969   7.336   3.059
73887SOL     OW23434   2.701   5.990   6.432
73887SOL    HW123435   2.736   6.019   6.516
73887SOL    HW223436   2.712   5.895   6.433
73888SOL     OW23437   9.635   8.869   4.336
73888SOL    HW123438   9.549   8.894   4.301
73888SOL    HW223439   9.616   8.801   4.401
73889SOL     OW23440  11.766   6.724  11.189
73889SOL    HW123441  11.781   6.813  11.221
73889SOL    HW223442  11.839   6.673  11.224
73890SOL     OW23443  14.257   3.203   4.203
73890SOL    HW123444  14.313   3.201   4.281
73890SOL    HW223445  14.283   3.283   4.157
73891SOL     OW23446   3.664   0.424   5.391
73891SOL    HW123447   3.719   0.358   5.433
73891SOL    HW223448   3.574   0.392   5.404
73892SOL     OW23449   4.286  13.117   6.302
73892SOL    HW123450   4.366  13.161   6.275
73892SOL    HW223451   4.304  13.024   6.287
73893SOL     OW23452   6.990   0.925   4.335
73893SOL    HW123453   7.026   0.851   4.286
73893SOL    HW223454   7.016   0.908   4.426
73894SOL     OW23455   9.727   4.553   6.062
73894SOL    HW123456   9.793   4.500   6.016
73894SOL    HW223457   9.664   4.576   5.994
73895SOL     OW23458  11.119  12.498   2.589
73895SOL    HW123459  11.070  12.417   2.606
73895SOL    HW223460  11.085  12.561   2.652
73896SOL     OW23461   3.857   3.765   6.318
73896SOL    HW123462   3.922   3.835   6.323
73896SOL    HW223463   3.800   3.779   6.394
73897SOL     OW23464   4.906   5.711  11.469
73897SOL    HW123465   4.844   5.695  11.398
73897SOL    HW223466   4.866   5.781  11.521
73898SOL     OW23467   1.121   0.875   6.965
73898SOL    HW123468   1.122   0.793   6.915
73898SOL    HW223469   1.174   0.855   7.043
73899SOL     OW23470   0.622   5.139   3.193
73899SOL    HW123471   0.571   5.159   3.271
73899SOL    HW223472   0.667   5.057   3.215
73900SOL     OW23473   7.560  12.932  13.284
73900SOL    HW123474   7.643  12.891  13.309
73900SOL    HW223475   7.522  12.871  13.221
73901SOL     OW23476  12.795   2.121   6.890
73901SOL    HW123477  12.760   2.041   6.929
73901SOL    HW223478  12.720   2.181   6.887
73902SOL     OW23479   8.126   3.374   8.545
73902SOL    HW123480   8.204   3.321   8.557
73902SOL    HW223481   8.058   3.312   8.520
73903SOL     OW23482  14.773  12.584  13.123
73903SOL    HW123483  14.749  12.493  13.108
73903SOL    HW223484  14.690  12.631  13.125
73904SOL     OW23485  10.750   5.194   3.664
73904SOL    HW123486  10.722   5.164   3.577
73904SOL    HW223487  10.844   5.206   3.656
73905SOL     OW23488  13.001   5.624   7.101
73905SOL    HW123489  13.073   5.672   7.060
73905SOL    HW223490  13.030   5.611   7.192
73906SOL     OW23491   4.927   3.639   2.775
73906SOL    HW123492   4.874   3.567   2.808
73906SOL    HW223493   5.017   3.611   2.790
73907SOL     OW23494  11.846   1.552  14.382
73907SOL    HW123495  11.842   1.606  14.304
73907SOL    HW223496  11.906   1.481  14.360
73908SOL     OW23497   1.037   7.776   0.725
73908SOL    HW123498   1.050   7.686   0.756
73908SOL    HW223499   1.058   7.831   0.800
73909SOL     OW23500   3.864   9.873  11.449
73909SOL    HW123501   3.869   9.905  11.540
73909SOL    HW223502   3.909   9.789  11.451
73910SOL     OW23503  11.750   8.850   7.358
73910SOL    HW123504  11.742   8.780   7.293
73910SOL    HW223505  11.679   8.834   7.420
73911SOL     OW23506  13.956   2.981   1.431
73911SOL    HW123507  13.939   2.894   1.468
73911SOL    HW223508  14.009   3.025   1.498
73912SOL     OW23509   4.381   8.199  12.808
73912SOL    HW123510   4.408   8.174  12.720
73912SOL    HW223511   4.459   8.187  12.862
73913SOL     OW23512   6.833   6.863   5.836
73913SOL    HW123513   6.917   6.909   5.835
73913SOL    HW223514   6.769   6.931   5.813
73914SOL     OW23515  10.246  12.035   5.733
73914SOL    HW123516  10.193  12.012   5.656
73914SOL    HW223517  10.237  12.129   5.741
73915SOL     OW23518   8.979  13.232   2.976
73915SOL    HW123519   8.891  13.251   3.008
73915SOL    HW223520   8.969  13.152   2.925
73916SOL     OW23521   0.852   8.854  11.324
73916SOL    HW123522   0.853   8.939  11.279
73916SOL    HW223523   0.860   8.876  11.417
73917SOL     OW23524  10.159   8.613   8.651
73917SOL    HW123525  10.199   8.689   8.609
73917SOL    HW223526  10.085   8.590   8.595
73918SOL     OW23527   5.089  13.151   2.013
73918SOL    HW123528   5.021  13.126   1.950
73918SOL    HW223529   5.160  13.089   1.997
73919SOL     OW23530   4.092  14.522  12.961
73919SOL    HW123531   4.154  14.474  13.016
73919SOL    HW223532   4.147  14.585  12.913
73920SOL     OW23533  13.398   0.085  11.242
73920SOL    HW123534  13.478   0.086  11.294
73920SOL    HW223535  13.330   0.115  11.303
73921SOL     OW23536   4.081  12.743  11.299
73921SOL    HW123537   4.054  12.823  11.346
73921SOL    HW223538   4.006  12.685  11.308
73922SOL     OW23539  10.776   3.114   0.158
73922SOL    HW123540  10.775   3.187   0.219
73922SOL    HW223541  10.842   3.054   0.194
73923SOL     OW23542   6.831  12.999   5.040
73923SOL    HW123543   6.896  12.936   5.071
73923SOL    HW223544   6.850  13.080   5.086
73924SOL     OW23545   5.481   3.906   5.959
73924SOL    HW123546   5.565   3.861   5.971
73924SOL    HW223547   5.443   3.910   6.047
73925SOL     OW23548  14.219   3.808   8.868
73925SOL    HW123549  14.191   3.856   8.790
73925SOL    HW223550  14.275   3.869   8.915
73926SOL     OW23551   6.697  13.866   8.189
73926SOL    HW123552   6.774  13.922   8.191
73926SOL    HW223553   6.725  13.785   8.230
73927SOL     OW23554   3.820   6.022   9.830
73927SOL    HW123555   3.850   6.087   9.767
73927SOL    HW223556   3.739   6.058   9.865
73928SOL     OW23557  13.662   0.952   0.599
73928SOL    HW123558  13.708   0.951   0.515
73928SOL    HW223559  13.709   0.888   0.652
73929SOL     OW23560   5.956   7.595   1.591
73929SOL    HW123561   6.047   7.582   1.563
73929SOL    HW223562   5.942   7.529   1.659
73930SOL     OW23563   0.391  12.880  11.550
73930SOL    HW123564   0.444  12.820  11.497
73930SOL    HW223565   0.434  12.965  11.540
73931SOL     OW23566   8.664   5.077  14.326
73931SOL    HW123567   8.660   5.003  14.386
73931SOL    HW223568   8.744   5.123  14.350
73932SOL     OW23569  10.572  11.395   8.085
73932SOL    HW123570  10.650  11.413   8.032
73932SOL    HW223571  10.607  11.354   8.165
73933SOL     OW23572   2.820  12.145   2.682
73933SOL    HW123573   2.912  12.140   2.709
73933SOL    HW223574   2.773  12.098   2.751
73934SOL     OW23575  13.518   4.355   3.737
73934SOL    HW123576  13.585   4.287   3.741
73934SOL    HW223577  13.523   4.399   3.822
73935SOL     OW23578   9.786   5.972   9.920
73935SOL    HW123579   9.754   5.966  10.010
73935SOL    HW223580   9.881   5.961   9.928
73936SOL     OW23581   7.550   4.844   8.432
73936SOL    HW123582   7.458   4.866   8.422
73936SOL    HW223583   7.573   4.798   8.351
73937SOL     OW23584   0.657   1.767  11.150
73937SOL    HW123585   0.715   1.831  11.189
73937SOL    HW223586   0.669   1.777  11.055
73938SOL     OW23587   8.311   4.867  13.525
73938SOL    HW123588   8.322   4.889  13.617
73938SOL    HW223589   8.338   4.947  13.478
73939SOL     OW23590  10.321   1.570  10.588
73939SOL    HW123591  10.346   1.478  10.595
73939SOL    HW223592  10.356   1.598  10.503
73940SOL     OW23593   2.715   2.090   9.521
73940SOL    HW123594   2.686   2.050   9.603
73940SOL    HW223595   2.698   2.023   9.455
73941SOL     OW23596  12.515   1.009   2.402
73941SOL    HW123597  12.562   0.938   2.446
73941SOL    HW223598  12.581   1.050   2.346
73942SOL     OW23599   3.403   7.326   4.299
73942SOL    HW123600   3.474   7.388   4.284
73942SOL    HW223601   3.350   7.366   4.368
73943SOL     OW23602   6.003   0.603  13.592
73943SOL    HW123603   6.039   0.609  13.681
73943SOL    HW223604   5.925   0.658  13.593
73944SOL     OW23605   3.465   6.794  11.761
73944SOL    HW123606   3.527   6.724  11.740
73944SOL    HW223607   3.394   6.782  11.699
73945SOL     OW23608   8.623  11.241   7.582
73945SOL    HW123609   8.685  11.293   7.531
73945SOL    HW223610   8.664  11.235   7.669
73946SOL     OW23611   6.278   7.164   3.570
73946SOL    HW123612   6.191   7.198   3.548
73946SOL    HW223613   6.297   7.101   3.501
73947SOL     OW23614  11.352  14.853   5.976
73947SOL    HW123615  11.446  14.847   5.957
73947SOL    HW223616  11.328  14.765   6.002
73948SOL     OW23617  11.648   3.526   0.719
73948SOL    HW123618  11.709   3.591   0.753
73948SOL    HW223619  11.607   3.488   0.797
73949SOL     OW23620   2.094   9.229  14.604
73949SOL    HW123621   2.003   9.259  14.612
73949SOL    HW223622   2.141   9.303  14.566
73950SOL     OW23623   2.273   6.901  13.448
73950SOL    HW123624   2.278   6.944  13.534
73950SOL    HW223625   2.223   6.962  13.394
73951SOL     OW23626  10.440   3.390   0.892
73951SOL    HW123627  10.421   3.299   0.871
73951SOL    HW223628  10.519   3.386   0.946
73952SOL     OW23629  10.562  11.551  13.726
73952SOL    HW123630  10.647  11.537  13.767
73952SOL    HW223631  10.500  11.502  13.780
73953SOL     OW23632   2.633   9.563  12.264
73953SOL    HW123633   2.680   9.508  12.327
73953SOL    HW223634   2.639   9.515  12.181
73954SOL     OW23635   5.053   2.682   6.684
73954SOL    HW123636   5.101   2.761   6.708
73954SOL    HW223637   5.001   2.708   6.607
73955SOL     OW23638  11.579   7.870  11.056
73955SOL    HW123639  11.623   7.862  10.971
73955SOL    HW223640  11.558   7.963  11.064
73956SOL     OW23641   7.487   4.548  13.837
73956SOL    HW123642   7.553   4.578  13.774
73956SOL    HW223643   7.439   4.628  13.860
73957SOL     OW23644   3.009   7.364   0.987
73957SOL    HW123645   2.951   7.427   1.030
73957SOL    HW223646   3.002   7.385   0.894
73958SOL     OW23647   0.091   0.937   5.127
73958SOL    HW123648   0.032   0.867   5.099
73958SOL    HW223649   0.046   0.978   5.201
73959SOL     OW23650   1.803   2.144   9.275
73959SOL    HW123651   1.767   2.222   9.232
73959SOL    HW223652   1.863   2.179   9.341
73960SOL     OW23653  14.562   5.869  13.284
73960SOL    HW123654  14.634   5.858  13.221
73960SOL    HW223655  14.498   5.802  13.260
73961SOL     OW23656   7.656   8.262  12.194
73961SOL    HW123657   7.595   8.208  12.244
73961SOL    HW223658   7.698   8.318  12.259
73962SOL     OW23659  10.591   4.534   6.749
73962SOL    HW123660  10.681   4.557   6.725
73962SOL    HW223661  10.548   4.618   6.766
73963SOL     OW23662   5.410   0.780  10.214
73963SOL    HW123663   5.498   0.809  10.239
73963SOL    HW223664   5.412   0.778  10.119
73964SOL     OW23665   6.556   8.735   5.059
73964SOL    HW123666   6.515   8.810   5.017
73964SOL    HW223667   6.570   8.763   5.149
73965SOL     OW23668   2.810  12.681   9.463
73965SOL    HW123669   2.742  12.614   9.466
73965SOL    HW223670   2.824  12.697   9.369
73966SOL     OW23671   9.384  10.576  12.605
73966SOL    HW123672   9.421  10.509  12.664
73966SOL    HW223673   9.391  10.537  12.518
73967SOL     OW23674  12.992  11.152   8.361
73967SOL    HW123675  12.958  11.073   8.317
73967SOL    HW223676  13.081  11.161   8.327
73968SOL     OW23677   1.107   3.811  10.837
73968SOL    HW123678   1.133   3.721  10.816
73968SOL    HW223679   1.177   3.843  10.894
73969SOL     OW23680  10.734   6.753  13.243
73969SOL    HW123681  10.662   6.746  13.307
73969SOL    HW223682  10.714   6.685  13.178
73970SOL     OW23683   1.845   8.072  10.837
73970SOL    HW123684   1.869   8.065  10.929
73970SOL    HW223685   1.806   8.159  10.828
73971SOL     OW23686   4.363   4.916   5.592
73971SOL    HW123687   4.292   4.968   5.554
73971SOL    HW223688   4.320   4.860   5.656
73972SOL     OW23689   0.021   4.745   4.361
73972SOL    HW123690   0.066   4.703   4.287
73972SOL    HW223691   0.040   4.689   4.436
73973SOL     OW23692  11.530  10.032   3.047
73973SOL    HW123693  11.466  10.037   3.118
73973SOL    HW223694  11.611  10.067   3.085
73974SOL     OW23695   1.166  11.191  12.187
73974SOL    HW123696   1.129  11.275  12.163
73974SOL    HW223697   1.261  11.207  12.192
73975SOL     OW23698  10.478   4.724   4.547
73975SOL    HW123699  10.564   4.695   4.577
73975SOL    HW223700  10.445   4.780   4.618
73976SOL     OW23701   0.238  13.368  11.948
73976SOL    HW123702   0.281  13.293  11.907
73976SOL    HW223703   0.265  13.365  12.039
73977SOL     OW23704   6.277   4.491   4.509
73977SOL    HW123705   6.370   4.494   4.528
73977SOL    HW223706   6.248   4.582   4.511
73978SOL     OW23707   9.892  11.551   5.994
73978SOL    HW123708   9.887  11.625   6.054
73978SOL    HW223709   9.919  11.477   6.050
73979SOL     OW23710   5.576   2.114   9.888
73979SOL    HW123711   5.652   2.055   9.881
73979SOL    HW223712   5.603   2.194   9.844
73980SOL     OW23713   6.532   3.923  13.788
73980SOL    HW123714   6.503   4.006  13.750
73980SOL    HW223715   6.498   3.857  13.729
73981SOL     OW23716   0.901   6.543   6.746
73981SOL    HW123717   0.852   6.614   6.703
73981SOL    HW223718   0.845   6.466   6.735
73982SOL     OW23719   4.152  11.940  12.665
73982SOL    HW123720   4.104  11.859  12.681
73982SOL    HW223721   4.134  11.994  12.742
73983SOL     OW23722  12.766   4.638  10.801
73983SOL    HW123723  12.738   4.547  10.814
73983SOL    HW223724  12.808   4.662  10.883
73984SOL     OW23725  12.876  14.569  13.915
73984SOL    HW123726  12.898  14.628  13.843
73984SOL    HW223727  12.932  14.598  13.987
73985SOL     OW23728   0.898   6.679  13.675
73985SOL    HW123729   0.949   6.612  13.630
73985SOL    HW223730   0.836   6.710  13.609
73986SOL     OW23731   8.004  11.177   9.548
73986SOL    HW123732   8.022  11.262   9.587
73986SOL    HW223733   8.039  11.183   9.459
73987SOL     OW23734   8.772  11.757  10.405
73987SOL    HW123735   8.853  11.735  10.359
73987SOL    HW223736   8.776  11.851  10.418
73988SOL     OW23737  13.671  11.716  12.663
73988SOL    HW123738  13.718  11.695  12.582
73988SOL    HW223739  13.712  11.660  12.729
73989SOL     OW23740  14.362  11.821   0.051
73989SOL    HW123741  14.300  11.887   0.080
73989SOL    HW223742  14.447  11.865   0.054
73990SOL     OW23743   7.069   4.098  14.636
73990SOL    HW123744   7.107   4.154  14.568
73990SOL    HW223745   7.127   4.022  14.641
73991SOL     OW23746  14.094  12.379   8.133
73991SOL    HW123747  14.056  12.315   8.192
73991SOL    HW223748  14.161  12.330   8.084
73992SOL     OW23749   0.853   9.280   9.464
73992SOL    HW123750   0.869   9.197   9.509
73992SOL    HW223751   0.878   9.347   9.527
73993SOL     OW23752   5.328  11.358  14.012
73993SOL    HW123753   5.333  11.450  13.986
73993SOL    HW223754   5.368  11.310  13.940
73994SOL     OW23755   4.968  12.552   6.756
73994SOL    HW123756   4.974  12.634   6.706
73994SOL    HW223757   4.877  12.551   6.787
73995SOL     OW23758  11.228   2.897   1.663
73995SOL    HW123759  11.304   2.843   1.684
73995SOL    HW223760  11.180   2.846   1.598
73996SOL     OW23761  13.873   9.269  11.368
73996SOL    HW123762  13.825   9.290  11.288
73996SOL    HW223763  13.806   9.266  11.436
73997SOL     OW23764   2.097  13.546   7.884
73997SOL    HW123765   2.044  13.612   7.839
73997SOL    HW223766   2.060  13.541   7.972
73998SOL     OW23767   3.402  14.693  11.119
73998SOL    HW123768   3.314  14.714  11.087
73998SOL    HW223769   3.396  14.702  11.214
73999SOL     OW23770   1.896   2.125   1.785
73999SOL    HW123771   1.840   2.106   1.859
73999SOL    HW223772   1.893   2.221   1.777
74000SOL     OW23773   6.900  12.605  11.498
74000SOL    HW123774   6.810  12.599  11.466
74000SOL    HW223775   6.905  12.540  11.568
74001SOL     OW23776  11.893   6.414   6.401
74001SOL    HW123777  11.804   6.437   6.374
74001SOL    HW223778  11.929   6.366   6.326
74002SOL     OW23779  10.945   2.690   1.111
74002SOL    HW123780  10.957   2.618   1.172
74002SOL    HW223781  11.026   2.694   1.061
74003SOL     OW23782  13.843   0.981   8.495
74003SOL    HW123783  13.898   0.997   8.572
74003SOL    HW223784  13.855   1.059   8.441
74004SOL     OW23785   8.440  14.836   2.054
74004SOL    HW123786   8.376   0.025   2.027
74004SOL    HW223787   8.438  14.838   2.150
74005SOL     OW23788   0.654  10.359   5.260
74005SOL    HW123789   0.737  10.397   5.287
74005SOL    HW223790   0.678  10.292   5.196
74006SOL     OW23791  10.600   0.500  12.361
74006SOL    HW123792  10.524   0.496  12.303
74006SOL    HW223793  10.601   0.415  12.404
74007SOL     OW23794  13.346   3.665  11.417
74007SOL    HW123795  13.359   3.754  11.385
74007SOL    HW223796  13.316   3.615  11.341
74008SOL     OW23797   2.336  10.970  12.073
74008SOL    HW123798   2.412  11.028  12.085
74008SOL    HW223799   2.364  10.908  12.006
74009SOL     OW23800   2.866  13.409   0.865
74009SOL    HW123801   2.945  13.440   0.821
74009SOL    HW223802   2.868  13.314   0.855
74010SOL     OW23803   4.030   5.562   3.712
74010SOL    HW123804   4.077   5.628   3.763
74010SOL    HW223805   4.093   5.529   3.649
74011SOL     OW23806   4.217   8.271  10.778
74011SOL    HW123807   4.236   8.299  10.868
74011SOL    HW223808   4.254   8.183  10.772
74012SOL     OW23809   7.364  13.010   2.780
74012SOL    HW123810   7.431  13.068   2.743
74012SOL    HW223811   7.302  13.069   2.822
74013SOL     OW23812  12.236  13.080  11.586
74013SOL    HW123813  12.150  13.054  11.619
74013SOL    HW223814  12.294  13.010  11.614
74014SOL     OW23815   9.265   3.786  10.345
74014SOL    HW123816   9.211   3.853  10.385
74014SOL    HW223817   9.203   3.726  10.303
74015SOL     OW23818   0.298  14.269   2.470
74015SOL    HW123819   0.343  14.258   2.554
74015SOL    HW223820   0.217  14.315   2.493
74016SOL     OW23821   3.066   4.529   9.039
74016SOL    HW123822   3.141   4.589   9.047
74016SOL    HW223823   3.019   4.559   8.961
74017SOL     OW23824  10.860   4.172  14.158
74017SOL    HW123825  10.776   4.146  14.197
74017SOL    HW223826  10.926   4.136  14.216
74018SOL     OW23827  14.507   6.777  12.867
74018SOL    HW123828  14.550   6.741  12.944
74018SOL    HW223829  14.445   6.841  12.902
74019SOL     OW23830  13.491   3.736  14.205
74019SOL    HW123831  13.472   3.657  14.153
74019SOL    HW223832  13.406   3.760  14.242
74020SOL     OW23833   9.512   6.321   5.997
74020SOL    HW123834   9.578   6.390   5.989
74020SOL    HW223835   9.506   6.303   6.091
74021SOL     OW23836   2.352   6.719   2.131
74021SOL    HW123837   2.309   6.748   2.212
74021SOL    HW223838   2.346   6.624   2.134
74022SOL     OW23839   9.148   3.455   7.630
74022SOL    HW123840   9.057   3.459   7.603
74022SOL    HW223841   9.198   3.464   7.548
74023SOL     OW23842   8.809   6.530   9.659
74023SOL    HW123843   8.724   6.494   9.684
74023SOL    HW223844   8.869   6.456   9.664
74024SOL     OW23845  13.355   4.445   0.140
74024SOL    HW123846  13.274   4.481   0.175
74024SOL    HW223847  13.362   4.357   0.179
74025SOL     OW23848   5.100   6.371   1.786
74025SOL    HW123849   5.060   6.428   1.851
74025SOL    HW223850   5.108   6.425   1.707
74026SOL     OW23851   9.784   0.850   5.952
74026SOL    HW123852   9.784   0.793   5.876
74026SOL    HW223853   9.817   0.795   6.023
74027SOL     OW23854   2.578   6.170  13.621
74027SOL    HW123855   2.489   6.207  13.627
74027SOL    HW223856   2.590   6.125  13.705
74028SOL     OW23857   7.207   5.192   4.881
74028SOL    HW123858   7.278   5.150   4.929
74028SOL    HW223859   7.250   5.261   4.830
74029SOL     OW23860  11.321   7.980  11.375
74029SOL    HW123861  11.258   7.966  11.304
74029SOL    HW223862  11.379   7.904  11.370
74030SOL     OW23863   7.358  10.932  13.319
74030SOL    HW123864   7.432  10.938  13.258
74030SOL    HW223865   7.296  10.997  13.287
74031SOL     OW23866   9.219  10.351   5.513
74031SOL    HW123867   9.153  10.416   5.537
74031SOL    HW223868   9.170  10.268   5.506
74032SOL     OW23869  10.582   6.405   6.902
74032SOL    HW123870  10.534   6.410   6.984
74032SOL    HW223871  10.521   6.364   6.841
74033SOL     OW23872   1.441   8.884   0.270
74033SOL    HW123873   1.466   8.948   0.203
74033SOL    HW223874   1.519   8.830   0.282
74034SOL     OW23875  13.987   1.098   5.811
74034SOL    HW123876  13.899   1.114   5.776
74034SOL    HW223877  14.028   1.184   5.816
74035SOL     OW23878   9.057   3.760  13.887
74035SOL    HW123879   9.055   3.694  13.817
74035SOL    HW223880   9.067   3.843  13.841
74036SOL     OW23881  11.856  11.482  12.547
74036SOL    HW123882  11.796  11.418  12.510
74036SOL    HW223883  11.872  11.452  12.636
74037SOL     OW23884  14.459   1.705  13.030
74037SOL    HW123885  14.469   1.738  13.119
74037SOL    HW223886  14.469   1.610  13.039
74038SOL     OW23887   0.198   2.313  14.372
74038SOL    HW123888   0.141   2.239  14.351
74038SOL    HW223889   0.266   2.310  14.305
74039SOL     OW23890  13.878   1.458  13.041
74039SOL    HW123891  13.872   1.529  13.105
74039SOL    HW223892  13.824   1.388  13.077
74040SOL     OW23893   3.359  12.964   6.967
74040SOL    HW123894   3.407  12.956   7.049
74040SOL    HW223895   3.316  12.879   6.956
74041SOL     OW23896  12.589  13.953   9.465
74041SOL    HW123897  12.641  14.030   9.488
74041SOL    HW223898  12.525  13.945   9.536
74042SOL     OW23899   4.346  13.629   7.707
74042SOL    HW123900   4.433  13.657   7.735
74042SOL    HW223901   4.361  13.546   7.662
74043SOL     OW23902   2.150   2.966  12.078
74043SOL    HW123903   2.218   2.969  12.146
74043SOL    HW223904   2.125   3.057  12.066
74044SOL     OW23905   6.777   2.008   5.487
74044SOL    HW123906   6.864   1.968   5.483
74044SOL    HW223907   6.720   1.943   5.446
74045SOL     OW23908   7.850   9.608   5.172
74045SOL    HW123909   7.823   9.680   5.229
74045SOL    HW223910   7.928   9.571   5.215
74046SOL     OW23911   0.168  13.068  14.090
74046SOL    HW123912   0.147  13.154  14.053
74046SOL    HW223913   0.115  13.062  14.169
74047SOL     OW23914   0.839   6.196  13.703
74047SOL    HW123915   0.774   6.127  13.686
74047SOL    HW223916   0.825   6.259  13.632
74048SOL     OW23917   5.789   7.132  12.767
74048SOL    HW123918   5.828   7.054  12.805
74048SOL    HW223919   5.697   7.110  12.754
74049SOL     OW23920   7.695  10.385   5.020
74049SOL    HW123921   7.682  10.465   4.968
74049SOL    HW223922   7.772  10.403   5.073
74050SOL     OW23923   0.446   7.354   7.767
74050SOL    HW123924   0.374   7.387   7.712
74050SOL    HW223925   0.524   7.396   7.731
74051SOL     OW23926   3.454  14.403   4.570
74051SOL    HW123927   3.372  14.418   4.617
74051SOL    HW223928   3.522  14.437   4.628
74052SOL     OW23929  12.135   6.567   0.149
74052SOL    HW123930  12.177   6.512   0.082
74052SOL    HW223931  12.188   6.646   0.151
74053SOL     OW23932   8.696  12.240   0.765
74053SOL    HW123933   8.770  12.259   0.708
74053SOL    HW223934   8.622  12.287   0.724
74054SOL     OW23935   1.123  10.305   1.574
74054SOL    HW123936   1.031  10.303   1.548
74054SOL    HW223937   1.169  10.260   1.504
74055SOL     OW23938   2.211   6.141   8.176
74055SOL    HW123939   2.164   6.075   8.125
74055SOL    HW223940   2.173   6.135   8.264
74056SOL     OW23941  14.491   2.867   5.841
74056SOL    HW123942  14.400   2.893   5.825
74056SOL    HW223943  14.517   2.919   5.918
74057SOL     OW23944   8.765   2.660   0.512
74057SOL    HW123945   8.679   2.698   0.530
74057SOL    HW223946   8.825   2.707   0.569
74058SOL     OW23947   1.320   7.559  13.176
74058SOL    HW123948   1.313   7.618  13.251
74058SOL    HW223949   1.229   7.537  13.154
74059SOL     OW23950  11.186   1.092   5.700
74059SOL    HW123951  11.228   1.103   5.615
74059SOL    HW223952  11.169   0.998   5.706
74060SOL     OW23953   9.698  12.485  13.860
74060SOL    HW123954   9.625  12.434  13.824
74060SOL    HW223955   9.660  12.571  13.878
74061SOL     OW23956  12.553   3.420   4.701
74061SOL    HW123957  12.542   3.403   4.608
74061SOL    HW223958  12.556   3.515   4.709
74062SOL     OW23959   5.995   3.730   1.539
74062SOL    HW123960   6.071   3.684   1.504
74062SOL    HW223961   6.018   3.747   1.631
74063SOL     OW23962   9.964   4.147  12.754
74063SOL    HW123963  10.057   4.165  12.743
74063SOL    HW223964   9.920   4.223  12.717
74064SOL     OW23965   5.188   2.399   3.742
74064SOL    HW123966   5.111   2.450   3.765
74064SOL    HW223967   5.211   2.428   3.653
74065SOL     OW23968  13.714   7.601  11.765
74065SOL    HW123969  13.725   7.644  11.850
74065SOL    HW223970  13.801   7.605  11.726
74066SOL     OW23971   4.327   9.615   7.824
74066SOL    HW123972   4.252   9.621   7.765
74066SOL    HW223973   4.400   9.588   7.768
74067SOL     OW23974  14.514  13.962   8.757
74067SOL    HW123975  14.561  14.022   8.699
74067SOL    HW223976  14.427  13.954   8.719
74068SOL     OW23977   6.135   2.947   4.530
74068SOL    HW123978   6.198   2.875   4.534
74068SOL    HW223979   6.157   3.002   4.606
74069SOL     OW23980   9.649   7.663  13.862
74069SOL    HW123981   9.708   7.716  13.809
74069SOL    HW223982   9.577   7.721  13.883
74070SOL     OW23983  14.038   3.929   9.068
74070SOL    HW123984  13.952   3.938   9.029
74070SOL    HW223985  14.089   3.879   9.003
74071SOL     OW23986   3.372   6.141   3.053
74071SOL    HW123987   3.403   6.230   3.072
74071SOL    HW223988   3.451   6.092   3.031
74072SOL     OW23989   0.770   3.732  12.425
74072SOL    HW123990   0.781   3.656  12.483
74072SOL    HW223991   0.806   3.805  12.474
74073SOL     OW23992  12.968   4.477   9.769
74073SOL    HW123993  13.024   4.512   9.839
74073SOL    HW223994  12.953   4.551   9.711
74074SOL     OW23995   3.674  11.299  13.483
74074SOL    HW123996   3.756  11.322  13.439
74074SOL    HW223997   3.693  11.217  13.528
74075SOL     OW23998  10.065  10.539  13.612
74075SOL    HW123999  10.059  10.542  13.708
74075SOL    HW224000  10.104  10.453  13.594
74076SOL     OW24001   2.063   8.560  13.932
74076SOL    HW124002   2.150   8.529  13.957
74076SOL    HW224003   2.035   8.498  13.865
74077SOL     OW24004  13.331   8.294  10.285
74077SOL    HW124005  13.243   8.331  10.296
74077SOL    HW224006  13.346   8.297  10.190
74078SOL     OW24007   5.669   1.720  13.615
74078SOL    HW124008   5.654   1.625  13.611
74078SOL    HW224009   5.756   1.729  13.652
74079SOL     OW24010   5.267  11.122   9.545
74079SOL    HW124011   5.343  11.079   9.586
74079SOL    HW224012   5.283  11.216   9.558
74080SOL     OW24013  14.703  12.235  12.510
74080SOL    HW124014  14.657  12.179  12.446
74080SOL    HW224015  14.712  12.319  12.465
74081SOL     OW24016   7.065   5.093  10.335
74081SOL    HW124017   7.086   5.186  10.339
74081SOL    HW224018   6.969   5.090  10.332
74082SOL     OW24019  13.898  13.032   0.609
74082SOL    HW124020  13.835  12.965   0.637
74082SOL    HW224021  13.891  13.100   0.677
74083SOL     OW24022   9.865  12.492   8.018
74083SOL    HW124023   9.879  12.572   7.967
74083SOL    HW224024   9.953  12.456   8.029
74084SOL     OW24025  11.658   9.314  12.356
74084SOL    HW124026  11.659   9.258  12.433
74084SOL    HW224027  11.746   9.352  12.352
74085SOL     OW24028   5.575   2.667   5.759
74085SOL    HW124029   5.565   2.592   5.818
74085SOL    HW224030   5.645   2.642   5.699
74086SOL     OW24031   4.697  13.697  11.332
74086SOL    HW124032   4.681  13.773  11.277
74086SOL    HW224033   4.618  13.688  11.385
74087SOL     OW24034   5.108  10.681  10.759
74087SOL    HW124035   5.133  10.735  10.834
74087SOL    HW224036   5.136  10.732  10.683
74088SOL     OW24037   2.707   1.170  14.820
74088SOL    HW124038   2.757   1.240  14.861
74088SOL    HW224039   2.653   1.214  14.754
74089SOL     OW24040   7.883   4.237   7.074
74089SOL    HW124041   7.867   4.321   7.118
74089SOL    HW224042   7.838   4.173   7.129
74090SOL     OW24043  12.451   3.137   6.433
74090SOL    HW124044  12.377   3.195   6.446
74090SOL    HW224045  12.519   3.171   6.491
74091SOL     OW24046   2.403  13.432   2.866
74091SOL    HW124047   2.362  13.500   2.813
74091SOL    HW224048   2.332  13.371   2.886
74092SOL     OW24049   2.075   6.331   6.539
74092SOL    HW124050   2.140   6.289   6.482
74092SOL    HW224051   2.089   6.424   6.526
74093SOL     OW24052   7.536   6.080   6.033
74093SOL    HW124053   7.553   6.139   6.106
74093SOL    HW224054   7.571   5.996   6.062
74094SOL     OW24055   8.463   0.037   8.597
74094SOL    HW124056   8.468   0.131   8.577
74094SOL    HW224057   8.539   0.021   8.654
74095SOL     OW24058   3.194  11.256  12.719
74095SOL    HW124059   3.202  11.163  12.700
74095SOL    HW224060   3.115  11.263  12.773
74096SOL     OW24061   9.578   5.279   5.396
74096SOL    HW124062   9.656   5.240   5.435
74096SOL    HW224063   9.601   5.371   5.383
74097SOL     OW24064   4.192   9.477   9.932
74097SOL    HW124065   4.102   9.507   9.918
74097SOL    HW224066   4.247   9.547   9.897
74098SOL     OW24067   3.570  13.312  13.944
74098SOL    HW124068   3.514  13.259  13.888
74098SOL    HW224069   3.608  13.249  14.006
74099SOL     OW24070   1.127  11.758   9.058
74099SOL    HW124071   1.122  11.747   9.153
74099SOL    HW224072   1.149  11.671   9.025
74100SOL     OW24073   2.175   5.340  12.142
74100SOL    HW124074   2.115   5.396  12.093
74100SOL    HW224075   2.186   5.384  12.226
74101SOL     OW24076   1.088  11.704  14.001
74101SOL    HW124077   1.144  11.638  13.961
74101SOL    HW224078   1.060  11.759  13.928
74102SOL     OW24079   9.410   2.371  12.008
74102SOL    HW124080   9.433   2.284  12.040
74102SOL    HW224081   9.485   2.426  12.029
74103SOL     OW24082  14.731  11.915   7.450
74103SOL    HW124083  14.759  11.931   7.540
74103SOL    HW224084  14.657  11.855   7.458
74104SOL     OW24085   9.306   7.937  14.835
74104SOL    HW124086   9.401   7.945  14.834
74104SOL    HW224087   9.281   7.940  14.742
74105SOL     OW24088   6.279   3.703   1.219
74105SOL    HW124089   6.235   3.665   1.143
74105SOL    HW224090   6.267   3.797   1.208
74106SOL     OW24091   9.217   4.022   1.664
74106SOL    HW124092   9.221   4.086   1.734
74106SOL    HW224093   9.129   3.984   1.670
74107SOL     OW24094   6.064   8.957   7.782
74107SOL    HW124095   6.125   8.900   7.829
74107SOL    HW224096   6.016   8.898   7.724
74108SOL     OW24097   3.671   2.457   9.888
74108SOL    HW124098   3.742   2.398   9.861
74108SOL    HW224099   3.596   2.431   9.834
74109SOL     OW24100  11.366  11.703   7.319
74109SOL    HW124101  11.408  11.762   7.255
74109SOL    HW224102  11.301  11.757   7.363
74110SOL     OW24103   3.669   2.146  12.738
74110SOL    HW124104   3.613   2.224  12.739
74110SOL    HW224105   3.701   2.140  12.648
74111SOL     OW24106  11.774   1.446  11.323
74111SOL    HW124107  11.770   1.456  11.419
74111SOL    HW224108  11.830   1.371  11.309
74112SOL     OW24109  12.683   3.735   3.235
74112SOL    HW124110  12.675   3.646   3.203
74112SOL    HW224111  12.608   3.781   3.198
74113SOL     OW24112  14.831   4.165   9.220
74113SOL    HW124113  14.864   4.095   9.276
74113SOL    HW224114   0.027   4.186   9.162
74114SOL     OW24115  12.820   7.751   2.719
74114SOL    HW124116  12.842   7.668   2.678
74114SOL    HW224117  12.904   7.795   2.730
74115SOL     OW24118  10.180  13.858   2.593
74115SOL    HW124119  10.168  13.863   2.499
74115SOL    HW224120  10.239  13.931   2.613
74116SOL     OW24121   1.635   7.844   9.984
74116SOL    HW124122   1.626   7.775  10.050
74116SOL    HW224123   1.695   7.908  10.025
74117SOL     OW24124  13.054   1.469   3.818
74117SOL    HW124125  13.032   1.534   3.751
74117SOL    HW224126  13.046   1.517   3.901
74118SOL     OW24127   6.061  14.425   1.882
74118SOL    HW124128   6.051  14.403   1.974
74118SOL    HW224129   5.974  14.412   1.844
74119SOL     OW24130   2.485  14.300   0.590
74119SOL    HW124131   2.449  14.369   0.645
74119SOL    HW224132   2.472  14.220   0.640
74120SOL     OW24133  12.930   6.727   4.333
74120SOL    HW124134  12.947   6.634   4.317
74120SOL    HW224135  12.880   6.756   4.257
74121SOL     OW24136  13.889   5.385  12.732
74121SOL    HW124137  13.934   5.330  12.668
74121SOL    HW224138  13.806   5.339  12.748
74122SOL     OW24139   5.410   7.709   1.442
74122SOL    HW124140   5.320   7.683   1.459
74122SOL    HW224141   5.455   7.695   1.526
74123SOL     OW24142   7.434  10.939  10.176
74123SOL    HW124143   7.435  10.844  10.184
74123SOL    HW224144   7.491  10.969  10.248
74124SOL     OW24145   6.229   7.868   9.831
74124SOL    HW124146   6.290   7.859   9.758
74124SOL    HW224147   6.184   7.784   9.835
74125SOL     OW24148   2.567   4.909   4.529
74125SOL    HW124149   2.608   4.822   4.532
74125SOL    HW224150   2.507   4.910   4.604
74126SOL     OW24151   3.141   9.869   8.946
74126SOL    HW124152   3.233   9.865   8.919
74126SOL    HW224153   3.095   9.905   8.870
74127SOL     OW24154   9.263   2.783  13.475
74127SOL    HW124155   9.260   2.701  13.427
74127SOL    HW224156   9.334   2.833  13.434
74128SOL     OW24157   5.688  12.144   1.235
74128SOL    HW124158   5.742  12.217   1.266
74128SOL    HW224159   5.644  12.112   1.314
74129SOL     OW24160  10.841  13.635   1.983
74129SOL    HW124161  10.922  13.585   1.972
74129SOL    HW224162  10.869  13.727   1.980
74130SOL     OW24163   5.142   9.122  13.009
74130SOL    HW124164   5.205   9.074  13.063
74130SOL    HW224165   5.075   9.152  13.071
74131SOL     OW24166   5.824   5.927   4.941
74131SOL    HW124167   5.751   5.881   4.899
74131SOL    HW224168   5.902   5.882   4.909
74132SOL     OW24169   0.324   4.769   1.772
74132SOL    HW124170   0.393   4.756   1.707
74132SOL    HW224171   0.284   4.853   1.748
74133SOL     OW24172   9.351   0.479   0.032
74133SOL    HW124173   9.410   0.412  14.875
74133SOL    HW224174   9.410   0.544   0.071
74134SOL     OW24175   0.719   4.663   4.950
74134SOL    HW124176   0.749   4.751   4.974
74134SOL    HW224177   0.800   4.614   4.936
74135SOL     OW24178   7.858  14.877   9.833
74135SOL    HW124179   7.933  14.835   9.876
74135SOL    HW224180   7.893   0.034   9.751
74136SOL     OW24181   3.987   7.343  14.276
74136SOL    HW124182   3.995   7.420  14.221
74136SOL    HW224183   4.033   7.365  14.357
74137SOL     OW24184   1.050   7.891   0.468
74137SOL    HW124185   1.042   7.874   0.562
74137SOL    HW224186   1.074   7.806   0.430
74138SOL     OW24187   6.009   4.701   3.681
74138SOL    HW124188   5.934   4.753   3.711
74138SOL    HW224189   6.042   4.747   3.604
74139SOL     OW24190   2.978   5.346   8.871
74139SOL    HW124191   3.056   5.383   8.911
74139SOL    HW224192   2.995   5.348   8.777
74140SOL     OW24193   6.555  14.454   6.621
74140SOL    HW124194   6.596  14.371   6.594
74140SOL    HW224195   6.610  14.522   6.582
74141SOL     OW24196   1.925  13.793  14.536
74141SOL    HW124197   1.924  13.705  14.497
74141SOL    HW224198   1.845  13.796  14.588
74142SOL     OW24199  12.373   1.034  10.280
74142SOL    HW124200  12.418   0.971  10.223
74142SOL    HW224201  12.305   0.984  10.324
74143SOL     OW24202  10.697   2.837   1.572
74143SOL    HW124203  10.775   2.796   1.610
74143SOL    HW224204  10.676   2.908   1.633
74144SOL     OW24205   2.646  11.542  10.673
74144SOL    HW124206   2.560  11.584  10.684
74144SOL    HW224207   2.665  11.504  10.759
74145SOL     OW24208   8.387   1.441  13.342
74145SOL    HW124209   8.434   1.423  13.260
74145SOL    HW224210   8.305   1.482  13.314
74146SOL     OW24211  12.201   0.937   6.005
74146SOL    HW124212  12.127   0.879   5.986
74146SOL    HW224213  12.182   0.971   6.093
74147SOL     OW24214   8.425   2.669   5.876
74147SOL    HW124215   8.377   2.592   5.908
74147SOL    HW224216   8.372   2.743   5.903
74148SOL     OW24217   7.039   5.707   1.917
74148SOL    HW124218   7.005   5.720   2.005
74148SOL    HW224219   6.985   5.764   1.862
74149SOL     OW24220   4.860   0.116  13.765
74149SOL    HW124221   4.819   0.109  13.851
74149SOL    HW224222   4.809   0.184  13.720
74150SOL     OW24223   6.618   9.407  10.176
74150SOL    HW124224   6.618   9.400  10.081
74150SOL    HW224225   6.669   9.331  10.206
74151SOL     OW24226  12.787   3.756   6.636
74151SOL    HW124227  12.725   3.710   6.578
74151SOL    HW224228  12.796   3.843   6.597
74152SOL     OW24229  11.567  11.859   8.999
74152SOL    HW124230  11.509  11.928   8.969
74152SOL    HW224231  11.647  11.904   9.027
74153SOL     OW24232  10.680   4.456   3.751
74153SOL    HW124233  10.673   4.385   3.815
74153SOL    HW224234  10.773   4.458   3.728
74154SOL     OW24235  11.268   9.499   8.868
74154SOL    HW124236  11.361   9.494   8.845
74154SOL    HW224237  11.267   9.526   8.959
74155SOL     OW24238  11.763  12.413   8.051
74155SOL    HW124239  11.745  12.487   8.109
74155SOL    HW224240  11.677  12.379   8.028
74156SOL     OW24241   6.361   9.396   2.941
74156SOL    HW124242   6.349   9.483   2.980
74156SOL    HW224243   6.300   9.340   2.988
74157SOL     OW24244   3.957   6.835   3.450
74157SOL    HW124245   3.926   6.904   3.509
74157SOL    HW224246   3.999   6.883   3.378
74158SOL     OW24247   1.959   4.201   5.378
74158SOL    HW124248   2.014   4.201   5.456
74158SOL    HW224249   1.949   4.109   5.355
74159SOL     OW24250  10.619   2.540  10.773
74159SOL    HW124251  10.670   2.514  10.850
74159SOL    HW224252  10.541   2.484  10.777
74160SOL     OW24253   2.716   9.799   4.867
74160SOL    HW124254   2.741   9.879   4.821
74160SOL    HW224255   2.776   9.733   4.833
74161SOL     OW24256  12.305  10.793  13.557
74161SOL    HW124257  12.367  10.773  13.488
74161SOL    HW224258  12.245  10.719  13.559
74162SOL     OW24259   8.514  14.560   0.733
74162SOL    HW124260   8.541  14.508   0.657
74162SOL    HW224261   8.499  14.648   0.698
74163SOL     OW24262   5.300   6.335   7.376
74163SOL    HW124263   5.353   6.414   7.385
74163SOL    HW224264   5.352   6.277   7.321
74164SOL     OW24265  13.677  14.619  12.683
74164SOL    HW124266  13.651  14.545  12.738
74164SOL    HW224267  13.714  14.578  12.604
74165SOL     OW24268   3.769   3.176  14.528
74165SOL    HW124269   3.717   3.255  14.540
74165SOL    HW224270   3.856   3.208  14.504
74166SOL     OW24271   1.236   1.110   8.441
74166SOL    HW124272   1.279   1.186   8.479
74166SOL    HW224273   1.299   1.038   8.454
74167SOL     OW24274   2.149  12.690   3.565
74167SOL    HW124275   2.083  12.700   3.633
74167SOL    HW224276   2.102  12.704   3.483
74168SOL     OW24277   9.476   2.556  10.363
74168SOL    HW124278   9.494   2.650  10.363
74168SOL    HW224279   9.514   2.524  10.282
74169SOL     OW24280   6.439   8.076   8.689
74169SOL    HW124281   6.440   7.981   8.672
74169SOL    HW224282   6.489   8.114   8.617
74170SOL     OW24283   0.398  12.226   6.055
74170SOL    HW124284   0.406  12.293   6.123
74170SOL    HW224285   0.405  12.143   6.102
74171SOL     OW24286   8.230   9.751  14.531
74171SOL    HW124287   8.192   9.835  14.506
74171SOL    HW224288   8.263   9.714  14.449
74172SOL     OW24289  12.240   2.026   8.353
74172SOL    HW124290  12.225   1.932   8.353
74172SOL    HW224291  12.302   2.041   8.282
74173SOL     OW24292  13.652   6.889   2.298
74173SOL    HW124293  13.700   6.926   2.224
74173SOL    HW224294  13.569   6.861   2.262
74174SOL     OW24295  10.526   1.701   1.791
74174SOL    HW124296  10.609   1.660   1.815
74174SOL    HW224297  10.484   1.720   1.875
74175SOL     OW24298  10.870  13.061   5.685
74175SOL    HW124299  10.923  13.139   5.703
74175SOL    HW224300  10.915  13.018   5.613
74176SOL     OW24301  14.876   6.832  12.854
74176SOL    HW124302   0.018   6.914  12.809
74176SOL    HW224303  14.866   6.768  12.783
74177SOL     OW24304   9.759   4.576  11.907
74177SOL    HW124305   9.773   4.496  11.857
74177SOL    HW224306   9.681   4.616  11.867
74178SOL     OW24307   3.989   0.703   0.809
74178SOL    HW124308   3.946   0.787   0.797
74178SOL    HW224309   4.006   0.697   0.903
74179SOL     OW24310  12.934   3.319   5.724
74179SOL    HW124311  12.885   3.312   5.806
74179SOL    HW224312  13.022   3.344   5.752
74180SOL     OW24313  10.435   1.659  13.122
74180SOL    HW124314  10.352   1.702  13.104
74180SOL    HW224315  10.491   1.728  13.156
74181SOL     OW24316  14.033   6.463   1.502
74181SOL    HW124317  13.979   6.542   1.503
74181SOL    HW224318  13.994   6.408   1.435
74182SOL     OW24319  12.865  10.957  13.315
74182SOL    HW124320  12.922  10.943  13.239
74182SOL    HW224321  12.871  10.876  13.365
74183SOL     OW24322   0.041   8.911   5.139
74183SOL    HW124323   0.085   8.954   5.212
74183SOL    HW224324  14.832   8.889   5.174
74184SOL     OW24325   3.383   5.053   7.475
74184SOL    HW124326   3.451   5.011   7.526
74184SOL    HW224327   3.401   5.147   7.484
74185SOL     OW24328   4.895   8.207   3.479
74185SOL    HW124329   4.836   8.207   3.403
74185SOL    HW224330   4.881   8.121   3.520
74186SOL     OW24331   5.209   2.743   2.879
74186SOL    HW124332   5.118   2.714   2.882
74186SOL    HW224333   5.209   2.827   2.927
74187SOL     OW24334  11.008   8.859  10.744
74187SOL    HW124335  11.095   8.899  10.750
74187SOL    HW224336  10.975   8.888  10.658
74188SOL     OW24337  10.620  11.926   9.369
74188SOL    HW124338  10.628  11.945   9.275
74188SOL    HW224339  10.544  11.868   9.375
74189SOL     OW24340  11.028   7.903  10.123
74189SOL    HW124341  10.972   7.832  10.093
74189SOL    HW224342  11.013   7.974  10.060
74190SOL     OW24343   4.059  14.436   2.775
74190SOL    HW124344   4.125  14.465   2.837
74190SOL    HW224345   4.038  14.346   2.802
74191SOL     OW24346   1.492  11.346   9.140
74191SOL    HW124347   1.538  11.387   9.214
74191SOL    HW224348   1.518  11.254   9.144
74192SOL     OW24349  13.012   3.123   8.274
74192SOL    HW124350  13.074   3.056   8.300
74192SOL    HW224351  13.044   3.203   8.315
74193SOL     OW24352   1.007  13.735  11.436
74193SOL    HW124353   1.075  13.797  11.411
74193SOL    HW224354   0.944  13.788  11.486
74194SOL     OW24355  10.368   9.458   2.544
74194SOL    HW124356  10.402   9.536   2.501
74194SOL    HW224357  10.288   9.436   2.495
74195SOL     OW24358   5.949   6.194  12.131
74195SOL    HW124359   6.010   6.268  12.134
74195SOL    HW224360   5.895   6.211  12.054
74196SOL     OW24361   4.725   1.600   5.897
74196SOL    HW124362   4.806   1.613   5.947
74196SOL    HW224363   4.741   1.645   5.814
74197SOL     OW24364   7.387  10.836  12.663
74197SOL    HW124365   7.301  10.878  12.669
74197SOL    HW224366   7.389  10.775  12.737
74198SOL     OW24367   7.330   8.766   9.216
74198SOL    HW124368   7.290   8.693   9.264
74198SOL    HW224369   7.424   8.748   9.220
74199SOL     OW24370  12.922   2.882   7.115
74199SOL    HW124371  12.997   2.941   7.119
74199SOL    HW224372  12.873   2.911   7.038
74200SOL     OW24373  11.032   8.239   9.464
74200SOL    HW124374  10.954   8.238   9.408
74200SOL    HW224375  11.017   8.312   9.524
74201SOL     OW24376  14.796  12.111   3.430
74201SOL    HW124377  14.848  12.071   3.500
74201SOL    HW224378  14.737  12.041   3.402
74202SOL     OW24379   3.368   4.371  12.919
74202SOL    HW124380   3.429   4.328  12.860
74202SOL    HW224381   3.406   4.359  13.006
74203SOL     OW24382   7.593   5.416   6.920
74203SOL    HW124383   7.611   5.508   6.902
74203SOL    HW224384   7.547   5.416   7.004
74204SOL     OW24385   5.571  10.828   5.493
74204SOL    HW124386   5.535  10.888   5.558
74204SOL    HW224387   5.588  10.883   5.417
74205SOL     OW24388   6.432  11.909   4.680
74205SOL    HW124389   6.467  11.882   4.765
74205SOL    HW224390   6.457  12.002   4.672
74206SOL     OW24391  13.096   5.065   0.173
74206SOL    HW124392  13.111   5.017   0.254
74206SOL    HW224393  13.055   5.148   0.200
74207SOL     OW24394  13.276  10.365   1.560
74207SOL    HW124395  13.349  10.319   1.603
74207SOL    HW224396  13.201  10.307   1.573
74208SOL     OW24397   1.123   2.676   7.044
74208SOL    HW124398   1.207   2.718   7.064
74208SOL    HW224399   1.136   2.636   6.958
74209SOL     OW24400   7.102   1.283   9.434
74209SOL    HW124401   7.036   1.217   9.413
74209SOL    HW224402   7.070   1.362   9.392
74210SOL     OW24403   8.023  10.657   5.721
74210SOL    HW124404   8.094  10.609   5.680
74210SOL    HW224405   8.066  10.729   5.767
74211SOL     OW24406  10.004   4.140  11.463
74211SOL    HW124407  10.082   4.130  11.408
74211SOL    HW224408   9.977   4.231  11.450
74212SOL     OW24409  13.412  13.061   1.473
74212SOL    HW124410  13.383  13.143   1.432
74212SOL    HW224411  13.500  13.080   1.505
74213SOL     OW24412   2.630   1.265  10.073
74213SOL    HW124413   2.681   1.237  10.149
74213SOL    HW224414   2.672   1.222   9.999
74214SOL     OW24415   7.309   2.619   6.716
74214SOL    HW124416   7.241   2.605   6.650
74214SOL    HW224417   7.313   2.714   6.726
74215SOL     OW24418   2.687   5.324  10.811
74215SOL    HW124419   2.735   5.312  10.893
74215SOL    HW224420   2.736   5.392  10.765
74216SOL     OW24421   2.910   3.040   4.075
74216SOL    HW124422   2.999   3.058   4.046
74216SOL    HW224423   2.904   2.945   4.080
74217SOL     OW24424  10.913  10.167   7.261
74217SOL    HW124425  10.964  10.091   7.234
74217SOL    HW224426  10.972  10.241   7.247
74218SOL     OW24427   0.765   2.413  14.458
74218SOL    HW124428   0.826   2.484  14.441
74218SOL    HW224429   0.706   2.447  14.526
74219SOL     OW24430   1.983   1.679   4.009
74219SOL    HW124431   1.986   1.647   3.919
74219SOL    HW224432   2.070   1.658   4.044
74220SOL     OW24433   3.544  12.748  11.524
74220SOL    HW124434   3.486  12.743  11.600
74220SOL    HW224435   3.558  12.842  11.511
74221SOL     OW24436   9.803  14.420   2.844
74221SOL    HW124437   9.841  14.494   2.892
74221SOL    HW224438   9.826  14.343   2.896
74222SOL     OW24439   1.402   3.027   2.621
74222SOL    HW124440   1.327   3.082   2.598
74222SOL    HW224441   1.391   3.009   2.714
74223SOL     OW24442   9.058   8.267   0.396
74223SOL    HW124443   9.061   8.206   0.322
74223SOL    HW224444   8.999   8.226   0.459
74224SOL     OW24445   1.355   5.290  11.027
74224SOL    HW124446   1.329   5.281  11.119
74224SOL    HW224447   1.311   5.218  10.982
74225SOL     OW24448   8.916  12.754  13.522
74225SOL    HW124449   8.936  12.679  13.577
74225SOL    HW224450   8.906  12.717  13.434
74226SOL     OW24451  13.681   6.723   9.045
74226SOL    HW124452  13.612   6.661   9.067
74226SOL    HW224453  13.652   6.806   9.082
74227SOL     OW24454  14.063   8.002   2.839
74227SOL    HW124455  14.061   7.944   2.763
74227SOL    HW224456  14.052   7.943   2.914
74228SOL     OW24457  12.144   6.645   8.502
74228SOL    HW124458  12.183   6.558   8.496
74228SOL    HW224459  12.218   6.705   8.495
74229SOL     OW24460  11.404   2.894   7.384
74229SOL    HW124461  11.394   2.989   7.385
74229SOL    HW224462  11.432   2.874   7.295
74230SOL     OW24463   5.133   8.047   5.153
74230SOL    HW124464   5.039   8.062   5.159
74230SOL    HW224465   5.147   8.021   5.062
74231SOL     OW24466   1.722   3.754  13.316
74231SOL    HW124467   1.779   3.826  13.344
74231SOL    HW224468   1.708   3.770  13.223
74232SOL     OW24469  13.739   3.369   8.553
74232SOL    HW124470  13.722   3.358   8.646
74232SOL    HW224471  13.684   3.443   8.527
74233SOL     OW24472   7.246   5.057  13.712
74233SOL    HW124473   7.318   4.996  13.693
74233SOL    HW224474   7.289   5.142  13.722
74234SOL     OW24475   5.900   1.366   3.471
74234SOL    HW124476   5.970   1.424   3.502
74234SOL    HW224477   5.830   1.377   3.536
74235SOL     OW24478  12.995   7.598  14.476
74235SOL    HW124479  12.914   7.553  14.503
74235SOL    HW224480  13.033   7.629  14.558
74236SOL     OW24481   5.077  11.669   1.453
74236SOL    HW124482   5.029  11.590   1.480
74236SOL    HW224483   5.100  11.652   1.362
74237SOL     OW24484  12.140  11.211   5.096
74237SOL    HW124485  12.210  11.221   5.160
74237SOL    HW224486  12.080  11.284   5.114
74238SOL     OW24487  13.015  11.295  11.257
74238SOL    HW124488  12.985  11.282  11.347
74238SOL    HW224489  12.979  11.221  11.208
74239SOL     OW24490   6.563   5.445  14.437
74239SOL    HW124491   6.563   5.519  14.498
74239SOL    HW224492   6.653   5.440  14.405
74240SOL     OW24493   5.433   4.791  12.718
74240SOL    HW124494   5.353   4.768  12.764
74240SOL    HW224495   5.409   4.787  12.625
74241SOL     OW24496   3.406  10.482   9.441
74241SOL    HW124497   3.409  10.425   9.364
74241SOL    HW224498   3.383  10.568   9.407
74242SOL     OW24499   5.021   9.236   0.574
74242SOL    HW124500   4.942   9.263   0.620
74242SOL    HW224501   5.014   9.277   0.488
74243SOL     OW24502   2.089  11.027   2.362
74243SOL    HW124503   2.155  11.031   2.292
74243SOL    HW224504   2.115  10.951   2.415
74244SOL     OW24505  14.041   5.594  12.420
74244SOL    HW124506  14.007   5.531  12.357
74244SOL    HW224507  14.079   5.541  12.490
74245SOL     OW24508   1.847   8.608   6.811
74245SOL    HW124509   1.844   8.544   6.883
74245SOL    HW224510   1.938   8.638   6.810
74246SOL     OW24511   8.177  14.235   0.007
74246SOL    HW124512   8.097  14.223   0.057
74246SOL    HW224513   8.181  14.159  14.827
74247SOL     OW24514   2.447   1.638  10.791
74247SOL    HW124515   2.467   1.564  10.733
74247SOL    HW224516   2.516   1.636  10.857
74248SOL     OW24517   8.382  12.840  12.169
74248SOL    HW124518   8.323  12.908  12.137
74248SOL    HW224519   8.324  12.769  12.197
74249SOL     OW24520   1.840  11.371   9.935
74249SOL    HW124521   1.842  11.435  10.006
74249SOL    HW224522   1.811  11.290   9.977
74250SOL     OW24523  12.189   9.931   0.403
74250SOL    HW124524  12.226  10.015   0.376
74250SOL    HW224525  12.132   9.905   0.330
74251SOL     OW24526  14.244  14.511   5.152
74251SOL    HW124527  14.298  14.434   5.132
74251SOL    HW224528  14.299  14.565   5.210
74252SOL     OW24529   6.420   7.319   6.484
74252SOL    HW124530   6.332   7.292   6.459
74252SOL    HW224531   6.446   7.382   6.418
74253SOL     OW24532   1.221  12.744   9.292
74253SOL    HW124533   1.145  12.797   9.268
74253SOL    HW224534   1.241  12.771   9.382
74254SOL     OW24535   3.078   7.261   9.528
74254SOL    HW124536   3.127   7.279   9.448
74254SOL    HW224537   3.118   7.317   9.594
74255SOL     OW24538  12.147  14.444   6.858
74255SOL    HW124539  12.118  14.499   6.930
74255SOL    HW224540  12.180  14.505   6.792
74256SOL     OW24541   8.977   4.447  14.359
74256SOL    HW124542   9.037   4.427  14.431
74256SOL    HW224543   8.938   4.531  14.383
74257SOL     OW24544  11.111   2.734   7.192
74257SOL    HW124545  11.091   2.645   7.221
74257SOL    HW224546  11.162   2.722   7.111
74258SOL     OW24547   7.646   5.105  13.573
74258SOL    HW124548   7.607   5.130  13.657
74258SOL    HW224549   7.672   5.014  13.585
74259SOL     OW24550  12.988   6.444   6.292
74259SOL    HW124551  13.069   6.397   6.274
74259SOL    HW224552  12.979   6.442   6.387
74260SOL     OW24553   6.157  12.044  10.049
74260SOL    HW124554   6.093  12.086   9.991
74260SOL    HW224555   6.239  12.046   9.999
74261SOL     OW24556   2.517  12.888   1.006
74261SOL    HW124557   2.565  12.806   0.994
74261SOL    HW224558   2.444  12.882   0.944
74262SOL     OW24559  10.561   8.146  13.110
74262SOL    HW124560  10.534   8.232  13.140
74262SOL    HW224561  10.650   8.136  13.144
74263SOL     OW24562  10.046   5.422  12.309
74263SOL    HW124563  10.111   5.465  12.253
74263SOL    HW224564  10.010   5.492  12.363
74264SOL     OW24565   6.058  11.907   0.544
74264SOL    HW124566   6.014  11.924   0.461
74264SOL    HW224567   5.998  11.941   0.611
74265SOL     OW24568   3.367  11.682   8.512
74265SOL    HW124569   3.434  11.618   8.488
74265SOL    HW224570   3.288  11.631   8.525
74266SOL     OW24571   0.308   8.377   5.108
74266SOL    HW124572   0.296   8.377   5.203
74266SOL    HW224573   0.298   8.285   5.083
74267SOL     OW24574  12.400  12.641   6.602
74267SOL    HW124575  12.479  12.682   6.636
74267SOL    HW224576  12.330  12.703   6.620
74268SOL     OW24577  11.071   0.755   8.042
74268SOL    HW124578  10.995   0.708   8.075
74268SOL    HW224579  11.139   0.738   8.108
74269SOL     OW24580   3.480  10.694   6.682
74269SOL    HW124581   3.546  10.681   6.751
74269SOL    HW224582   3.525  10.746   6.616
74270SOL     OW24583   9.196  11.429   4.518
74270SOL    HW124584   9.185  11.461   4.428
74270SOL    HW224585   9.132  11.359   4.526
74271SOL     OW24586   5.935  12.592  13.039
74271SOL    HW124587   5.866  12.543  12.995
74271SOL    HW224588   5.947  12.548  13.123
74272SOL     OW24589   2.719  12.029   6.212
74272SOL    HW124590   2.809  12.014   6.183
74272SOL    HW224591   2.704  11.962   6.279
74273SOL     OW24592   9.067  14.186  10.536
74273SOL    HW124593   9.107  14.153  10.617
74273SOL    HW224594   9.036  14.108  10.491
74274SOL     OW24595   3.592   9.498  10.793
74274SOL    HW124596   3.664   9.531  10.846
74274SOL    HW224597   3.628   9.486  10.706
74275SOL     OW24598   5.034   9.423  11.208
74275SOL    HW124599   5.027   9.501  11.153
74275SOL    HW224600   4.950   9.378  11.197
74276SOL     OW24601   3.909  11.978   5.205
74276SOL    HW124602   3.840  11.916   5.182
74276SOL    HW224603   3.989  11.927   5.205
74277SOL     OW24604   5.157   2.244  10.371
74277SOL    HW124605   5.159   2.323  10.425
74277SOL    HW224606   5.244   2.239  10.332
74278SOL     OW24607   1.057   3.022   6.094
74278SOL    HW124608   1.110   2.981   6.163
74278SOL    HW224609   1.034   3.108   6.130
74279SOL     OW24610   2.688   1.061   0.341
74279SOL    HW124611   2.740   0.999   0.392
74279SOL    HW224612   2.734   1.145   0.352
74280SOL     OW24613   3.075   6.687   2.210
74280SOL    HW124614   3.076   6.666   2.116
74280SOL    HW224615   2.990   6.655   2.240
74281SOL     OW24616  10.236   7.824   3.177
74281SOL    HW124617  10.327   7.841   3.151
74281SOL    HW224618  10.187   7.897   3.140
74282SOL     OW24619   4.928   1.113   1.657
74282SOL    HW124620   4.904   1.021   1.668
74282SOL    HW224621   4.859   1.149   1.601
74283SOL     OW24622  13.632   9.341   7.455
74283SOL    HW124623  13.565   9.373   7.394
74283SOL    HW224624  13.667   9.421   7.495
74284SOL     OW24625   6.085  10.736  13.464
74284SOL    HW124626   6.083  10.689  13.381
74284SOL    HW224627   6.010  10.700  13.514
74285SOL     OW24628  13.214   1.526  14.169
74285SOL    HW124629  13.226   1.451  14.227
74285SOL    HW224630  13.239   1.495  14.082
74286SOL     OW24631   6.321   7.878  10.835
74286SOL    HW124632   6.351   7.917  10.752
74286SOL    HW224633   6.314   7.785  10.816
74287SOL     OW24634   9.014  10.242  11.230
74287SOL    HW124635   9.106  10.226  11.209
74287SOL    HW224636   8.975  10.270  11.147
74288SOL     OW24637  13.159   5.694   9.450
74288SOL    HW124638  13.196   5.774   9.488
74288SOL    HW224639  13.231   5.656   9.400
74289SOL     OW24640  10.004  11.734   5.463
74289SOL    HW124641  10.060  11.677   5.411
74289SOL    HW224642   9.989  11.687   5.545
74290SOL     OW24643   2.562   8.687   3.207
74290SOL    HW124644   2.560   8.750   3.280
74290SOL    HW224645   2.648   8.700   3.168
74291SOL     OW24646   0.130   8.523  10.504
74291SOL    HW124647   0.094   8.584  10.440
74291SOL    HW224648   0.055   8.472  10.534
74292SOL     OW24649  12.942   3.399   7.510
74292SOL    HW124650  12.874   3.460   7.482
74292SOL    HW224651  12.991   3.381   7.430
74293SOL     OW24652  13.201   4.772  10.344
74293SOL    HW124653  13.213   4.697  10.402
74293SOL    HW224654  13.116   4.756  10.302
74294SOL     OW24655  14.488   7.742   6.814
74294SOL    HW124656  14.497   7.799   6.738
74294SOL    HW224657  14.578   7.722   6.841
74295SOL     OW24658  10.056   8.774  12.052
74295SOL    HW124659  10.013   8.798  11.969
74295SOL    HW224660  10.062   8.857  12.100
74296SOL     OW24661   5.922   6.748   4.371
74296SOL    HW124662   5.905   6.841   4.383
74296SOL    HW224663   5.873   6.705   4.441
74297SOL     OW24664   3.335   0.291  12.803
74297SOL    HW124665   3.258   0.315  12.854
74297SOL    HW224666   3.408   0.299  12.865
74298SOL     OW24667   7.993   6.752   2.803
74298SOL    HW124668   7.983   6.662   2.771
74298SOL    HW224669   8.088   6.766   2.806
74299SOL     OW24670   2.042   4.875   2.931
74299SOL    HW124671   1.966   4.846   2.981
74299SOL    HW224672   2.113   4.880   2.995
74300SOL     OW24673   7.074  10.636   7.046
74300SOL    HW124674   7.074  10.725   7.011
74300SOL    HW224675   6.998  10.633   7.104
74301SOL     OW24676   1.420   0.998   3.970
74301SOL    HW124677   1.510   1.029   3.961
74301SOL    HW224678   1.381   1.013   3.883
74302SOL     OW24679   3.796   5.165   5.838
74302SOL    HW124680   3.782   5.085   5.889
74302SOL    HW224681   3.877   5.203   5.873
74303SOL     OW24682  11.457   8.431   4.148
74303SOL    HW124683  11.411   8.376   4.085
74303SOL    HW224684  11.549   8.423   4.124
74304SOL     OW24685   9.399   4.244  10.729
74304SOL    HW124686   9.325   4.235  10.670
74304SOL    HW224687   9.391   4.333  10.764
74305SOL     OW24688   6.650   0.769   1.994
74305SOL    HW124689   6.573   0.822   1.972
74305SOL    HW224690   6.693   0.753   1.910
74306SOL     OW24691   8.896   6.989   9.591
74306SOL    HW124692   8.961   6.963   9.657
74306SOL    HW224693   8.842   6.911   9.579
74307SOL     OW24694  11.397   6.307   0.007
74307SOL    HW124695  11.355   6.393   0.009
74307SOL    HW224696  11.489   6.325   0.027
74308SOL     OW24697   7.255  12.799   1.053
74308SOL    HW124698   7.294  12.886   1.048
74308SOL    HW224699   7.230  12.779   0.962
74309SOL     OW24700  13.711   6.839   8.019
74309SOL    HW124701  13.653   6.915   8.025
74309SOL    HW224702  13.661   6.767   8.057
74310SOL     OW24703   1.816   5.960   3.548
74310SOL    HW124704   1.898   5.950   3.597
74310SOL    HW224705   1.843   5.999   3.465
74311SOL     OW24706   5.782   0.833   9.675
74311SOL    HW124707   5.841   0.825   9.601
74311SOL    HW224708   5.781   0.746   9.715
74312SOL     OW24709   8.258  13.652   6.786
74312SOL    HW124710   8.352  13.638   6.773
74312SOL    HW224711   8.250  13.676   6.878
74313SOL     OW24712   5.130   5.695   8.567
74313SOL    HW124713   5.146   5.613   8.520
74313SOL    HW224714   5.040   5.719   8.544
74314SOL     OW24715  10.429  11.277   5.917
74314SOL    HW124716  10.466  11.189   5.912
74314SOL    HW224717  10.350  11.268   5.969
74315SOL     OW24718   9.216   5.911   1.218
74315SOL    HW124719   9.215   5.820   1.190
74315SOL    HW224720   9.199   5.962   1.139
74316SOL     OW24721  14.326   2.239  12.934
74316SOL    HW124722  14.310   2.317  12.881
74316SOL    HW224723  14.384   2.185  12.880
74317SOL     OW24724  10.127  12.593   3.108
74317SOL    HW124725  10.215  12.598   3.145
74317SOL    HW224726  10.124  12.508   3.063
74318SOL     OW24727  10.604  11.739   1.854
74318SOL    HW124728  10.515  11.716   1.824
74318SOL    HW224729  10.606  11.834   1.852
74319SOL     OW24730   5.331   8.492   7.764
74319SOL    HW124731   5.405   8.554   7.768
74319SOL    HW224732   5.308   8.489   7.671
74320SOL     OW24733   9.856   9.458   2.463
74320SOL    HW124734   9.855   9.396   2.390
74320SOL    HW224735   9.763   9.471   2.485
74321SOL     OW24736   0.783   1.181   4.597
74321SOL    HW124737   0.772   1.112   4.662
74321SOL    HW224738   0.697   1.185   4.553
74322SOL     OW24739  11.866  12.397   8.324
74322SOL    HW124740  11.804  12.364   8.259
74322SOL    HW224741  11.950  12.359   8.299
74323SOL     OW24742   0.010   1.150   3.127
74323SOL    HW124743   0.022   1.240   3.156
74323SOL    HW224744  14.806   1.123   3.167
74324SOL     OW24745   5.955  13.220   3.492
74324SOL    HW124746   5.906  13.254   3.567
74324SOL    HW224747   5.939  13.284   3.423
74325SOL     OW24748   9.489   0.047   5.969
74325SOL    HW124749   9.428   0.118   5.950
74325SOL    HW224750   9.501   0.002   5.885
74326SOL     OW24751   2.783   8.101  10.648
74326SOL    HW124752   2.802   8.070  10.737
74326SOL    HW224753   2.865   8.086  10.600
74327SOL     OW24754  13.258  10.278   2.382
74327SOL    HW124755  13.248  10.271   2.287
74327SOL    HW224756  13.321  10.350   2.394
74328SOL     OW24757   9.639   8.039  11.094
74328SOL    HW124758   9.663   8.037  11.001
74328SOL    HW224759   9.723   8.044  11.140
74329SOL     OW24760   7.085   3.739   4.435
74329SOL    HW124761   7.002   3.700   4.462
74329SOL    HW224762   7.084   3.732   4.339
74330SOL     OW24763   2.074   8.021   8.143
74330SOL    HW124764   2.096   7.930   8.121
74330SOL    HW224765   2.055   8.062   8.059
74331SOL     OW24766   0.444  13.516  10.280
74331SOL    HW124767   0.519  13.501  10.337
74331SOL    HW224768   0.477  13.502  10.191
74332SOL     OW24769   3.306   9.669  14.242
74332SOL    HW124770   3.345   9.676  14.329
74332SOL    HW224771   3.346   9.591  14.204
74333SOL     OW24772  12.634  10.021   0.226
74333SOL    HW124773  12.695  10.077   0.274
74333SOL    HW224774  12.640   9.936   0.270
74334SOL     OW24775   5.335   5.789   9.244
74334SOL    HW124776   5.286   5.813   9.166
74334SOL    HW224777   5.419   5.836   9.236
74335SOL     OW24778   5.268   5.922  14.072
74335SOL    HW124779   5.174   5.916  14.091
74335SOL    HW224780   5.271   5.958  13.983
74336SOL     OW24781  11.292   0.355  11.279
74336SOL    HW124782  11.343   0.427  11.316
74336SOL    HW224783  11.262   0.305  11.354
74337SOL     OW24784   8.003  14.122   0.909
74337SOL    HW124785   7.970  14.044   0.865
74337SOL    HW224786   8.043  14.174   0.840
74338SOL     OW24787   3.986   4.197   6.039
74338SOL    HW124788   3.904   4.179   6.085
74338SOL    HW224789   4.026   4.111   6.026
74339SOL     OW24790   6.124   2.284   9.598
74339SOL    HW124791   6.176   2.204   9.590
74339SOL    HW224792   6.094   2.284   9.689
74340SOL     OW24793   8.903   0.248   7.160
74340SOL    HW124794   8.850   0.168   7.147
74340SOL    HW224795   8.970   0.244   7.092
74341SOL     OW24796   9.258   1.804   9.281
74341SOL    HW124797   9.177   1.753   9.277
74341SOL    HW224798   9.305   1.767   9.356
74342SOL     OW24799   1.588   6.814  10.469
74342SOL    HW124800   1.498   6.797  10.438
74342SOL    HW224801   1.641   6.809  10.390
74343SOL     OW24802   8.169   1.504   5.138
74343SOL    HW124803   8.227   1.558   5.085
74343SOL    HW224804   8.221   1.426   5.159
74344SOL     OW24805   8.004   5.400   3.384
74344SOL    HW124806   7.945   5.471   3.412
74344SOL    HW224807   8.086   5.419   3.429
74345SOL     OW24808  14.548  12.121   1.842
74345SOL    HW124809  14.640  12.140   1.860
74345SOL    HW224810  14.538  12.029   1.866
74346SOL     OW24811   4.541  10.914  10.704
74346SOL    HW124812   4.476  10.983  10.688
74346SOL    HW224813   4.539  10.902  10.799
74347SOL     OW24814   2.272   2.068   4.376
74347SOL    HW124815   2.244   2.053   4.466
74347SOL    HW224816   2.252   2.161   4.361
74348SOL     OW24817   5.867  14.016  11.903
74348SOL    HW124818   5.913  14.089  11.861
74348SOL    HW224819   5.890  14.024  11.996
74349SOL     OW24820   3.679  11.927  14.664
74349SOL    HW124821   3.738  11.999  14.685
74349SOL    HW224822   3.592  11.967  14.660
74350SOL     OW24823   7.486   8.693   3.464
74350SOL    HW124824   7.424   8.683   3.392
74350SOL    HW224825   7.498   8.603   3.497
74351SOL     OW24826   2.177  10.300   1.152
74351SOL    HW124827   2.244  10.328   1.089
74351SOL    HW224828   2.196  10.207   1.167
74352SOL     OW24829  10.109   8.199   5.772
74352SOL    HW124830  10.202   8.201   5.794
74352SOL    HW224831  10.105   8.144   5.693
74353SOL     OW24832   7.793   1.395  13.844
74353SOL    HW124833   7.850   1.328  13.805
74353SOL    HW224834   7.793   1.466  13.780
74354SOL     OW24835  13.580   5.248   5.753
74354SOL    HW124836  13.658   5.295   5.723
74354SOL    HW224837  13.531   5.313   5.803
74355SOL     OW24838   0.575   8.549   7.218
74355SOL    HW124839   0.596   8.457   7.201
74355SOL    HW224840   0.636   8.598   7.162
74356SOL     OW24841   2.752   9.875   6.009
74356SOL    HW124842   2.674   9.844   5.964
74356SOL    HW224843   2.797   9.929   5.943
74357SOL     OW24844   7.350   1.983  11.446
74357SOL    HW124845   7.268   2.029  11.463
74357SOL    HW224846   7.336   1.937  11.363
74358SOL     OW24847   6.891   2.392  13.902
74358SOL    HW124848   6.972   2.440  13.883
74358SOL    HW224849   6.860   2.364  13.815
74359SOL     OW24850   4.164   2.438   4.752
74359SOL    HW124851   4.247   2.443   4.704
74359SOL    HW224852   4.166   2.352   4.794
74360SOL     OW24853  11.094   5.528  11.893
74360SOL    HW124854  11.030   5.554  11.827
74360SOL    HW224855  11.101   5.604  11.951
74361SOL     OW24856   2.599   5.389   1.294
74361SOL    HW124857   2.671   5.445   1.264
74361SOL    HW224858   2.538   5.388   1.221
74362SOL     OW24859   4.166   9.714  13.416
74362SOL    HW124860   4.214   9.632  13.420
74362SOL    HW224861   4.074   9.688  13.419
74363SOL     OW24862   6.556  14.194   9.490
74363SOL    HW124863   6.496  14.256   9.450
74363SOL    HW224864   6.606  14.245   9.554
74364SOL     OW24865   2.946  14.211   6.666
74364SOL    HW124866   3.021  14.168   6.708
74364SOL    HW224867   2.982  14.292   6.630
74365SOL     OW24868   5.566   0.856   5.215
74365SOL    HW124869   5.551   0.880   5.123
74365SOL    HW224870   5.479   0.854   5.254
74366SOL     OW24871   0.960  10.796   5.885
74366SOL    HW124872   0.996  10.710   5.906
74366SOL    HW224873   0.916  10.783   5.801
74367SOL     OW24874   7.910   0.186  14.115
74367SOL    HW124875   7.899   0.111  14.174
74367SOL    HW224876   7.821   0.211  14.091
74368SOL     OW24877   7.747   2.456   0.957
74368SOL    HW124878   7.802   2.531   0.978
74368SOL    HW224879   7.699   2.438   1.038
74369SOL     OW24880  10.914   2.588  12.247
74369SOL    HW124881  10.987   2.526  12.248
74369SOL    HW224882  10.932   2.646  12.173
74370SOL     OW24883   7.160   1.785  10.543
74370SOL    HW124884   7.102   1.797  10.618
74370SOL    HW224885   7.112   1.724  10.486
74371SOL     OW24886   5.713   4.658   0.510
74371SOL    HW124887   5.790   4.624   0.464
74371SOL    HW224888   5.728   4.635   0.602
74372SOL     OW24889   7.988   9.642  13.110
74372SOL    HW124890   8.000   9.590  13.190
74372SOL    HW224891   7.899   9.621  13.081
74373SOL     OW24892   1.881   5.569   2.118
74373SOL    HW124893   1.800   5.590   2.163
74373SOL    HW224894   1.854   5.512   2.046
74374SOL     OW24895  12.667  14.458  14.099
74374SOL    HW124896  12.700  14.372  14.126
74374SOL    HW224897  12.742  14.502  14.060
74375SOL     OW24898   1.585  10.151   7.057
74375SOL    HW124899   1.639  10.212   7.007
74375SOL    HW224900   1.495  10.171   7.032
74376SOL     OW24901  13.860  11.643  11.619
74376SOL    HW124902  13.854  11.548  11.631
74376SOL    HW224903  13.811  11.679  11.693
74377SOL     OW24904   2.951   3.173   9.396
74377SOL    HW124905   3.009   3.208   9.463
74377SOL    HW224906   2.913   3.095   9.434
74378SOL     OW24907   5.801   6.879  13.569
74378SOL    HW124908   5.789   6.957  13.623
74378SOL    HW224909   5.718   6.831  13.576
74379SOL     OW24910  13.381   4.817   5.693
74379SOL    HW124911  13.448   4.881   5.669
74379SOL    HW224912  13.347   4.847   5.777
74380SOL     OW24913   1.316  11.117   8.072
74380SOL    HW124914   1.315  11.110   8.167
74380SOL    HW224915   1.290  11.207   8.054
74381SOL     OW24916   7.855   3.016   0.672
74381SOL    HW124917   7.803   2.973   0.740
74381SOL    HW224918   7.834   3.109   0.681
74382SOL     OW24919   3.567   7.012   6.264
74382SOL    HW124920   3.498   7.052   6.316
74382SOL    HW224921   3.633   6.986   6.328
74383SOL     OW24922   6.207   2.327   1.908
74383SOL    HW124923   6.218   2.364   1.995
74383SOL    HW224924   6.139   2.381   1.867
74384SOL     OW24925   2.320   0.014  13.494
74384SOL    HW124926   2.372   0.009  13.574
74384SOL    HW224927   2.231   0.029  13.525
74385SOL     OW24928  11.632  11.643  14.560
74385SOL    HW124929  11.701  11.676  14.617
74385SOL    HW224930  11.636  11.548  14.569
74386SOL     OW24931   4.918   6.281   5.540
74386SOL    HW124932   4.856   6.332   5.593
74386SOL    HW224933   5.001   6.328   5.548
74387SOL     OW24934   1.502   2.376  14.234
74387SOL    HW124935   1.551   2.331  14.165
74387SOL    HW224936   1.439   2.431  14.187
74388SOL     OW24937   9.186   7.969   3.867
74388SOL    HW124938   9.095   7.975   3.896
74388SOL    HW224939   9.226   8.051   3.895
74389SOL     OW24940   0.903   7.312  13.390
74389SOL    HW124941   0.961   7.361  13.448
74389SOL    HW224942   0.962   7.274  13.324
74390SOL     OW24943   6.778  10.383   9.704
74390SOL    HW124944   6.725  10.444   9.653
74390SOL    HW224945   6.774  10.301   9.654
74391SOL     OW24946   6.974  14.846   5.206
74391SOL    HW124947   7.018  14.847   5.291
74391SOL    HW224948   6.902  14.783   5.217
74392SOL     OW24949   4.380   6.112   5.333
74392SOL    HW124950   4.286   6.114   5.352
74392SOL    HW224951   4.415   6.188   5.381
74393SOL     OW24952   7.066   0.985  11.134
74393SOL    HW124953   7.050   0.905  11.083
74393SOL    HW224954   7.158   1.005  11.120
74394SOL     OW24955  13.874   8.821   8.213
74394SOL    HW124956  13.821   8.757   8.167
74394SOL    HW224957  13.896   8.780   8.296
74395SOL     OW24958   6.701   6.736   6.400
74395SOL    HW124959   6.750   6.688   6.334
74395SOL    HW224960   6.768   6.787   6.447
74396SOL     OW24961   3.987   3.289   8.714
74396SOL    HW124962   3.896   3.317   8.731
74396SOL    HW224963   3.998   3.211   8.767
74397SOL     OW24964   4.753   9.599   6.972
74397SOL    HW124965   4.808   9.524   6.995
74397SOL    HW224966   4.769   9.611   6.878
74398SOL     OW24967  11.091   7.834  11.605
74398SOL    HW124968  11.169   7.785  11.632
74398SOL    HW224969  11.078   7.899  11.675
74399SOL     OW24970   0.053  13.400  12.695
74399SOL    HW124971   0.094  13.478  12.656
74399SOL    HW224972   0.004  13.434  12.770
74400SOL     OW24973   1.541   5.566  11.744
74400SOL    HW124974   1.533   5.660  11.760
74400SOL    HW224975   1.603   5.535  11.810
74401SOL     OW24976   3.661   0.456   3.551
74401SOL    HW124977   3.630   0.391   3.489
74401SOL    HW224978   3.669   0.408   3.634
74402SOL     OW24979   6.220   6.722   6.601
74402SOL    HW124980   6.258   6.808   6.623
74402SOL    HW224981   6.128   6.730   6.623
74403SOL     OW24982  10.927  14.292   4.209
74403SOL    HW124983  10.931  14.197   4.196
74403SOL    HW224984  10.846  14.319   4.166
74404SOL     OW24985  11.417   8.470   3.052
74404SOL    HW124986  11.464   8.543   3.091
74404SOL    HW224987  11.431   8.480   2.958
74405SOL     OW24988   2.335  10.912  12.637
74405SOL    HW124989   2.337  10.930  12.543
74405SOL    HW224990   2.242  10.899  12.657
74406SOL     OW24991   3.538   2.706  14.028
74406SOL    HW124992   3.547   2.769  14.099
74406SOL    HW224993   3.448   2.673  14.036
74407SOL     OW24994   0.126  13.059   2.959
74407SOL    HW124995   0.099  13.124   3.025
74407SOL    HW224996   0.075  12.981   2.980
74408SOL     OW24997   2.182   8.151   0.806
74408SOL    HW124998   2.204   8.240   0.777
74408SOL    HW224999   2.202   8.151   0.900
74409SOL     OW25000   6.826  13.397  11.857
74409SOL    HW125001   6.817  13.472  11.799
74409SOL    HW225002   6.888  13.339  11.812
74410SOL     OW25003   4.639   9.629   1.307
74410SOL    HW125004   4.544   9.628   1.302
74410SOL    HW225005   4.664   9.716   1.275
74411SOL     OW25006   2.529   0.975   4.102
74411SOL    HW125007   2.603   0.916   4.114
74411SOL    HW225008   2.569   1.062   4.093
74412SOL     OW25009  14.215   8.306  10.449
74412SOL    HW125010  14.188   8.366  10.380
74412SOL    HW225011  14.294   8.263  10.415
74413SOL     OW25012   8.653  10.897  13.388
74413SOL    HW125013   8.620  10.827  13.331
74413SOL    HW225014   8.618  10.977  13.349
74414SOL     OW25015   9.631   3.158   4.355
74414SOL    HW125016   9.655   3.101   4.282
74414SOL    HW225017   9.536   3.147   4.362
74415SOL     OW25018   2.953   2.802  11.628
74415SOL    HW125019   3.015   2.792  11.700
74415SOL    HW225020   2.867   2.795  11.669
74416SOL     OW25021   3.613  10.877  10.893
74416SOL    HW125022   3.688  10.933  10.874
74416SOL    HW225023   3.648  10.788  10.891
74417SOL     OW25024   9.532   9.133   3.592
74417SOL    HW125025   9.473   9.205   3.614
74417SOL    HW225026   9.596   9.131   3.663
74418SOL     OW25027  10.039   2.645   7.534
74418SOL    HW125028  10.001   2.731   7.519
74418SOL    HW225029  10.002   2.589   7.466
74419SOL     OW25030   6.775   1.710   0.591
74419SOL    HW125031   6.850   1.769   0.591
74419SOL    HW225032   6.702   1.763   0.622
74420SOL     OW25033   7.707   6.491  13.886
74420SOL    HW125034   7.663   6.428  13.828
74420SOL    HW225035   7.670   6.473  13.972
74421SOL     OW25036   7.516   6.736   3.218
74421SOL    HW125037   7.605   6.749   3.252
74421SOL    HW225038   7.460   6.785   3.278
74422SOL     OW25039   0.146   3.085   0.250
74422SOL    HW125040   0.153   3.166   0.300
74422SOL    HW225041   0.236   3.064   0.224
74423SOL     OW25042  12.401  14.239   9.560
74423SOL    HW125043  12.340  14.190   9.614
74423SOL    HW225044  12.407  14.325   9.602
74424SOL     OW25045  13.782   1.690   9.253
74424SOL    HW125046  13.867   1.733   9.243
74424SOL    HW225047  13.738   1.740   9.322
74425SOL     OW25048  11.383   9.571  11.436
74425SOL    HW125049  11.366   9.493  11.382
74425SOL    HW225050  11.438   9.627  11.381
74426SOL     OW25051  14.716  12.196   8.715
74426SOL    HW125052  14.701  12.200   8.621
74426SOL    HW225053  14.769  12.274   8.733
74427SOL     OW25054  13.920   4.721  10.232
74427SOL    HW125055  13.854   4.665  10.273
74427SOL    HW225056  13.909   4.806  10.274
74428SOL     OW25057   8.756  14.478   5.756
74428SOL    HW125058   8.785  14.484   5.847
74428SOL    HW225059   8.793  14.396   5.725
74429SOL     OW25060  10.681  10.276   1.350
74429SOL    HW125061  10.731  10.354   1.372
74429SOL    HW225062  10.627  10.259   1.427
74430SOL     OW25063  11.960  10.013   7.336
74430SOL    HW125064  11.884   9.981   7.386
74430SOL    HW225065  11.942  10.106   7.323
74431SOL     OW25066   2.555   4.815   1.547
74431SOL    HW125067   2.482   4.838   1.489
74431SOL    HW225068   2.522   4.835   1.635
74432SOL     OW25069   6.343   5.768   2.465
74432SOL    HW125070   6.267   5.745   2.518
74432SOL    HW225071   6.359   5.690   2.412
74433SOL     OW25072  13.456   9.489  12.306
74433SOL    HW125073  13.486   9.570  12.265
74433SOL    HW225074  13.507   9.420  12.265
74434SOL     OW25075   4.216  12.553   8.457
74434SOL    HW125076   4.177  12.512   8.380
74434SOL    HW225077   4.141  12.574   8.513
74435SOL     OW25078  12.102   1.381   8.369
74435SOL    HW125079  12.176   1.426   8.408
74435SOL    HW225080  12.131   1.291   8.356
74436SOL     OW25081  10.493  13.493  11.117
74436SOL    HW125082  10.579  13.455  11.098
74436SOL    HW225083  10.431  13.436  11.072
74437SOL     OW25084  14.813   3.635   5.874
74437SOL    HW125085  14.779   3.724   5.863
74437SOL    HW225086  14.845   3.632   5.964
74438SOL     OW25087   2.607  13.434   6.999
74438SOL    HW125088   2.581  13.469   7.084
74438SOL    HW225089   2.534  13.456   6.941
74439SOL     OW25090  14.396   7.993   9.422
74439SOL    HW125091  14.333   8.055   9.384
74439SOL    HW225092  14.357   7.907   9.405
74440SOL     OW25093   4.492  13.341   8.269
74440SOL    HW125094   4.565  13.367   8.326
74440SOL    HW225095   4.445  13.274   8.319
74441SOL     OW25096  12.321   4.830   2.047
74441SOL    HW125097  12.274   4.779   2.113
74441SOL    HW225098  12.288   4.798   1.963
74442SOL     OW25099   2.810   1.296   0.475
74442SOL    HW125100   2.749   1.319   0.545
74442SOL    HW225101   2.814   1.373   0.419
74443SOL     OW25102   6.317   8.332   6.389
74443SOL    HW125103   6.236   8.291   6.360
74443SOL    HW225104   6.327   8.304   6.480
74444SOL     OW25105   4.284  13.909   2.458
74444SOL    HW125106   4.361  13.947   2.500
74444SOL    HW225107   4.221  13.897   2.529
74445SOL     OW25108   8.629   7.128  13.829
74445SOL    HW125109   8.620   7.164  13.741
74445SOL    HW225110   8.614   7.034  13.819
74446SOL     OW25111   8.619   7.339   3.759
74446SOL    HW125112   8.627   7.259   3.810
74446SOL    HW225113   8.621   7.409   3.824
74447SOL     OW25114  10.448   5.584   3.651
74447SOL    HW125115  10.373   5.632   3.615
74447SOL    HW225116  10.418   5.494   3.657
74448SOL     OW25117  10.404  11.044  10.398
74448SOL    HW125118  10.441  10.958  10.375
74448SOL    HW225119  10.446  11.066  10.481
74449SOL     OW25120   3.872  14.555  11.927
74449SOL    HW125121   3.951  14.556  11.873
74449SOL    HW225122   3.899  14.597  12.009
74450SOL     OW25123  12.562  13.143   6.142
74450SOL    HW125124  12.552  13.063   6.090
74450SOL    HW225125  12.474  13.182   6.144
74451SOL     OW25126   7.360   1.656   6.229
74451SOL    HW125127   7.341   1.625   6.317
74451SOL    HW225128   7.380   1.749   6.240
74452SOL     OW25129   0.464   9.245   4.521
74452SOL    HW125130   0.515   9.261   4.441
74452SOL    HW225131   0.436   9.331   4.550
74453SOL     OW25132   8.088  12.081   3.327
74453SOL    HW125133   8.105  12.176   3.327
74453SOL    HW225134   8.007  12.072   3.378
74454SOL     OW25135   4.268   0.707  13.627
74454SOL    HW125136   4.313   0.623  13.625
74454SOL    HW225137   4.265   0.735  13.535
74455SOL     OW25138   4.272  13.239  13.397
74455SOL    HW125139   4.211  13.304  13.360
74455SOL    HW225140   4.239  13.155  13.365
74456SOL     OW25141   2.022   3.490  12.102
74456SOL    HW125142   1.955   3.536  12.052
74456SOL    HW225143   2.105   3.516  12.061
74457SOL     OW25144  12.265   5.300   0.378
74457SOL    HW125145  12.259   5.298   0.474
74457SOL    HW225146  12.343   5.353   0.360
74458SOL     OW25147  13.519   4.196   4.029
74458SOL    HW125148  13.493   4.287   4.020
74458SOL    HW225149  13.564   4.175   3.947
74459SOL     OW25150   8.212  11.883   0.317
74459SOL    HW125151   8.124  11.858   0.346
74459SOL    HW225152   8.226  11.831   0.237
74460SOL     OW25153   8.312  14.656   6.337
74460SOL    HW125154   8.321  14.745   6.303
74460SOL    HW225155   8.237  14.620   6.290
74461SOL     OW25156   0.574  11.361   2.804
74461SOL    HW125157   0.509  11.428   2.781
74461SOL    HW225158   0.637  11.407   2.859
74462SOL     OW25159  10.438   7.321  13.033
74462SOL    HW125160  10.459   7.354  12.946
74462SOL    HW225161  10.342   7.311  13.032
74463SOL     OW25162   8.337   2.462  13.624
74463SOL    HW125163   8.273   2.526  13.595
74463SOL    HW225164   8.331   2.463  13.720
74464SOL     OW25165   0.083  11.067  13.271
74464SOL    HW125166   0.099  10.977  13.244
74464SOL    HW225167  14.872  11.066  13.306
74465SOL     OW25168  12.359  13.331   2.976
74465SOL    HW125169  12.383  13.368   3.061
74465SOL    HW225170  12.279  13.282   2.993
74466SOL     OW25171   9.166  12.501   6.439
74466SOL    HW125172   9.246  12.547   6.465
74466SOL    HW225173   9.095  12.563   6.455
74467SOL     OW25174  11.054  10.561  10.068
74467SOL    HW125175  11.111  10.638  10.074
74467SOL    HW225176  11.072  10.512  10.148
74468SOL     OW25177   6.937   1.473   0.484
74468SOL    HW125178   6.888   1.488   0.565
74468SOL    HW225179   6.952   1.560   0.449
74469SOL     OW25180   7.528   0.864  11.549
74469SOL    HW125181   7.545   0.895  11.460
74469SOL    HW225182   7.498   0.942  11.596
74470SOL     OW25183   0.652   9.450   1.221
74470SOL    HW125184   0.725   9.468   1.280
74470SOL    HW225185   0.577   9.436   1.278
74471SOL     OW25186  11.611   3.055  10.127
74471SOL    HW125187  11.702   3.074  10.147
74471SOL    HW225188  11.603   2.960  10.136
74472SOL     OW25189   6.466   1.414   4.301
74472SOL    HW125190   6.403   1.466   4.251
74472SOL    HW225191   6.527   1.381   4.236
74473SOL     OW25192   4.149   6.718   5.929
74473SOL    HW125193   4.205   6.705   6.005
74473SOL    HW225194   4.066   6.677   5.953
74474SOL     OW25195  14.308   9.538  12.458
74474SOL    HW125196  14.293   9.630  12.437
74474SOL    HW225197  14.221   9.499  12.459
74475SOL     OW25198  13.501   7.035  10.386
74475SOL    HW125199  13.463   7.099  10.447
74475SOL    HW225200  13.520   7.087  10.307
74476SOL     OW25201   0.452   7.627  10.756
74476SOL    HW125202   0.530   7.600  10.805
74476SOL    HW225203   0.402   7.680  10.819
74477SOL     OW25204   4.905   0.981  11.476
74477SOL    HW125205   4.945   0.919  11.415
74477SOL    HW225206   4.898   0.932  11.558
74478SOL     OW25207   5.327   1.554  12.522
74478SOL    HW125208   5.242   1.586  12.553
74478SOL    HW225209   5.366   1.630  12.478
74479SOL     OW25210   2.027   4.833   4.882
74479SOL    HW125211   2.076   4.844   4.963
74479SOL    HW225212   1.937   4.813   4.911
74480SOL     OW25213   0.462   8.147   3.519
74480SOL    HW125214   0.447   8.241   3.523
74480SOL    HW225215   0.488   8.130   3.428
74481SOL     OW25216  11.659  10.715  12.969
74481SOL    HW125217  11.657  10.664  12.888
74481SOL    HW225218  11.578  10.765  12.968
74482SOL     OW25219   3.709  12.605   0.706
74482SOL    HW125220   3.631  12.648   0.739
74482SOL    HW225221   3.680  12.517   0.682
74483SOL     OW25222  13.083  12.184  11.268
74483SOL    HW125223  13.137  12.117  11.228
74483SOL    HW225224  13.074  12.158  11.359
74484SOL     OW25225   0.816   2.147   9.408
74484SOL    HW125226   0.871   2.220   9.380
74484SOL    HW225227   0.748   2.188   9.462
74485SOL     OW25228   7.036   8.433   8.781
74485SOL    HW125229   6.979   8.508   8.799
74485SOL    HW225230   7.065   8.446   8.691
74486SOL     OW25231   5.389  14.034   5.558
74486SOL    HW125232   5.322  14.003   5.619
74486SOL    HW225233   5.470  14.031   5.608
74487SOL     OW25234   8.520   6.405  10.608
74487SOL    HW125235   8.474   6.423  10.527
74487SOL    HW225236   8.512   6.310  10.619
74488SOL     OW25237  12.727   2.725   1.475
74488SOL    HW125238  12.653   2.779   1.447
74488SOL    HW225239  12.713   2.713   1.569
74489SOL     OW25240  12.854   4.034  14.602
74489SOL    HW125241  12.874   3.967  14.667
74489SOL    HW225242  12.791   3.993  14.543
74490SOL     OW25243   9.960   5.983   9.564
74490SOL    HW125244  10.038   5.931   9.583
74490SOL    HW225245   9.986   6.039   9.490
74491SOL     OW25246   6.805  12.037  10.146
74491SOL    HW125247   6.808  11.942  10.135
74491SOL    HW225248   6.792  12.071  10.057
74492SOL     OW25249   0.736  14.134   8.713
74492SOL    HW125250   0.816  14.172   8.748
74492SOL    HW225251   0.765  14.077   8.642
74493SOL     OW25252   7.421   4.396  13.047
74493SOL    HW125253   7.489   4.411  12.981
74493SOL    HW225254   7.469   4.387  13.129
74494SOL     OW25255   4.319  14.631  12.385
74494SOL    HW125256   4.311  14.694  12.313
74494SOL    HW225257   4.239  14.580  12.381
74495SOL     OW25258   1.450  10.105   3.172
74495SOL    HW125259   1.393  10.154   3.112
74495SOL    HW225260   1.430  10.013   3.155
74496SOL     OW25261   2.277   1.538  12.482
74496SOL    HW125262   2.245   1.454  12.452
74496SOL    HW225263   2.338   1.567  12.414
74497SOL     OW25264   7.567   4.815   7.386
74497SOL    HW125265   7.659   4.837   7.381
74497SOL    HW225266   7.527   4.857   7.310
74498SOL     OW25267  11.921   3.398  14.767
74498SOL    HW125268  11.900   3.486  14.737
74498SOL    HW225269  11.888   3.394  14.857
74499SOL     OW25270   3.267   6.126   0.890
74499SOL    HW125271   3.237   6.201   0.941
74499SOL    HW225272   3.222   6.134   0.806
74500SOL     OW25273   8.964  13.928  12.782
74500SOL    HW125274   8.998  13.856  12.727
74500SOL    HW225275   8.875  13.901  12.805
74501SOL     OW25276   7.690   2.738  12.477
74501SOL    HW125277   7.655   2.818  12.515
74501SOL    HW225278   7.783   2.740  12.497
74502SOL     OW25279  13.606   1.364   2.342
74502SOL    HW125280  13.515   1.380   2.318
74502SOL    HW225281  13.654   1.438   2.305
74503SOL     OW25282  11.112   8.343  14.796
74503SOL    HW125283  11.030   8.294  14.797
74503SOL    HW225284  11.086   8.431  14.767
74504SOL     OW25285  12.697  12.727   6.377
74504SOL    HW125286  12.603  12.733   6.360
74504SOL    HW225287  12.712  12.635   6.398
74505SOL     OW25288   7.438  10.501  11.768
74505SOL    HW125289   7.531  10.482  11.777
74505SOL    HW225290   7.433  10.568  11.700
74506SOL     OW25291   2.620  12.687   1.270
74506SOL    HW125292   2.653  12.677   1.181
74506SOL    HW225293   2.584  12.601   1.292
74507SOL     OW25294   3.934  14.501   3.549
74507SOL    HW125295   3.920  14.571   3.613
74507SOL    HW225296   4.014  14.458   3.578
74508SOL     OW25297  10.538   3.102  14.595
74508SOL    HW125298  10.600   3.062  14.534
74508SOL    HW225299  10.540   3.046  14.673
74509SOL     OW25300   3.737  11.688   8.568
74509SOL    HW125301   3.728  11.680   8.663
74509SOL    HW225302   3.832  11.696   8.554
74510SOL     OW25303   6.054  13.738  12.070
74510SOL    HW125304   6.097  13.739  12.156
74510SOL    HW225305   5.969  13.697  12.086
74511SOL     OW25306   5.162   6.287   3.822
74511SOL    HW125307   5.171   6.382   3.811
74511SOL    HW225308   5.217   6.250   3.754
74512SOL     OW25309   4.577   5.843  12.442
74512SOL    HW125310   4.620   5.813  12.362
74512SOL    HW225311   4.649   5.870  12.499
74513SOL     OW25312  12.793  10.292   0.569
74513SOL    HW125313  12.819  10.223   0.508
74513SOL    HW225314  12.818  10.259   0.655
74514SOL     OW25315   2.888   0.912   2.533
74514SOL    HW125316   2.872   0.979   2.466
74514SOL    HW225317   2.960   0.860   2.497
74515SOL     OW25318   5.879  10.078   2.275
74515SOL    HW125319   5.823  10.149   2.305
74515SOL    HW225320   5.821  10.021   2.224
74516SOL     OW25321   6.162  11.896  11.768
74516SOL    HW125322   6.198  11.891  11.856
74516SOL    HW225323   6.163  11.806  11.736
74517SOL     OW25324   2.186  12.894   3.338
74517SOL    HW125325   2.151  12.834   3.272
74517SOL    HW225326   2.256  12.942   3.293
74518SOL     OW25327   5.488   4.847   1.549
74518SOL    HW125328   5.539   4.814   1.623
74518SOL    HW225329   5.535   4.818   1.472
74519SOL     OW25330   7.623  10.839   6.324
74519SOL    HW125331   7.617  10.816   6.232
74519SOL    HW225332   7.594  10.760   6.371
74520SOL     OW25333   3.730   3.127   3.417
74520SOL    HW125334   3.654   3.184   3.411
74520SOL    HW225335   3.720   3.083   3.502
74521SOL     OW25336   5.738   3.361   3.102
74521SOL    HW125337   5.758   3.276   3.062
74521SOL    HW225338   5.789   3.362   3.183
74522SOL     OW25339   2.489  11.280   6.230
74522SOL    HW125340   2.536  11.245   6.155
74522SOL    HW225341   2.455  11.202   6.276
74523SOL     OW25342  10.023  12.617   2.765
74523SOL    HW125343   9.986  12.662   2.841
74523SOL    HW225344  10.114  12.597   2.790
74524SOL     OW25345   9.721   4.499  11.566
74524SOL    HW125346   9.693   4.474  11.654
74524SOL    HW225347   9.652   4.557  11.535
74525SOL     OW25348  13.639  12.469   7.034
74525SOL    HW125349  13.591  12.502   7.110
74525SOL    HW225350  13.587  12.394   7.005
74526SOL     OW25351   7.334  11.943  12.366
74526SOL    HW125352   7.328  12.027  12.320
74526SOL    HW225353   7.280  11.955  12.445
74527SOL     OW25354   6.880   8.480   4.046
74527SOL    HW125355   6.883   8.467   4.141
74527SOL    HW225356   6.960   8.530   4.026
74528SOL     OW25357   1.702   0.217   4.916
74528SOL    HW125358   1.687   0.123   4.910
74528SOL    HW225359   1.755   0.227   4.996
74529SOL     OW25360   7.649  12.054  13.952
74529SOL    HW125361   7.682  12.131  13.997
74529SOL    HW225362   7.727  12.010  13.919
74530SOL     OW25363   8.546  12.672   2.192
74530SOL    HW125364   8.469  12.617   2.206
74530SOL    HW225365   8.611  12.614   2.154
74531SOL     OW25366  12.469  14.134  14.505
74531SOL    HW125367  12.448  14.048  14.471
74531SOL    HW225368  12.402  14.192  14.467
74532SOL     OW25369   1.530   0.191   8.373
74532SOL    HW125370   1.560   0.120   8.316
74532SOL    HW225371   1.610   0.229   8.409
74533SOL     OW25372   1.671   9.536   6.176
74533SOL    HW125373   1.748   9.505   6.225
74533SOL    HW225374   1.605   9.552   6.243
74534SOL     OW25375   8.802  12.300   9.563
74534SOL    HW125376   8.781  12.218   9.519
74534SOL    HW225377   8.769  12.368   9.504
74535SOL     OW25378   6.689   8.155   1.493
74535SOL    HW125379   6.722   8.087   1.551
74535SOL    HW225380   6.674   8.230   1.550
74536SOL     OW25381   2.773   6.633  13.423
74536SOL    HW125382   2.746   6.548  13.457
74536SOL    HW225383   2.697   6.664  13.375
74537SOL     OW25384  13.250   8.209  13.713
74537SOL    HW125385  13.284   8.121  13.731
74537SOL    HW225386  13.209   8.236  13.794
74538SOL     OW25387   8.576   4.188   9.627
74538SOL    HW125388   8.506   4.144   9.578
74538SOL    HW225389   8.646   4.200   9.563
74539SOL     OW25390  12.073  10.512   1.504
74539SOL    HW125391  12.064  10.575   1.432
74539SOL    HW225392  11.983  10.495   1.532
74540SOL     OW25393   5.617   5.027  10.034
74540SOL    HW125394   5.569   4.969   9.974
74540SOL    HW225395   5.552   5.092  10.061
74541SOL     OW25396  11.307  13.115   1.677
74541SOL    HW125397  11.280  13.041   1.733
74541SOL    HW225398  11.362  13.168   1.734
74542SOL     OW25399   7.656   0.575   6.128
74542SOL    HW125400   7.670   0.585   6.222
74542SOL    HW225401   7.584   0.635   6.108
74543SOL     OW25402  14.561   7.871  14.722
74543SOL    HW125403  14.555   7.776  14.715
74543SOL    HW225404  14.654   7.890  14.728
74544SOL     OW25405   3.778  10.210  12.300
74544SOL    HW125406   3.822  10.291  12.324
74544SOL    HW225407   3.686  10.226  12.319
74545SOL     OW25408  10.570   5.402   0.376
74545SOL    HW125409  10.572   5.489   0.416
74545SOL    HW225410  10.478   5.379   0.373
74546SOL     OW25411   4.827   8.886   6.610
74546SOL    HW125412   4.883   8.902   6.533
74546SOL    HW225413   4.820   8.791   6.614
74547SOL     OW25414   4.797   3.790  10.580
74547SOL    HW125415   4.734   3.826  10.642
74547SOL    HW225416   4.750   3.785  10.497
74548SOL     OW25417  11.211   1.607   6.180
74548SOL    HW125418  11.167   1.579   6.100
74548SOL    HW225419  11.240   1.526   6.222
74549SOL     OW25420   2.608   3.919   1.714
74549SOL    HW125421   2.546   3.852   1.686
74549SOL    HW225422   2.596   3.925   1.809
74550SOL     OW25423   0.836   4.116   2.615
74550SOL    HW125424   0.900   4.187   2.614
74550SOL    HW225425   0.827   4.091   2.523
74551SOL     OW25426   0.983   3.187   7.709
74551SOL    HW125427   0.923   3.251   7.744
74551SOL    HW225428   1.019   3.228   7.630
74552SOL     OW25429   4.817   1.401  10.774
74552SOL    HW125430   4.834   1.495  10.769
74552SOL    HW225431   4.721   1.394  10.774
74553SOL     OW25432   4.327  11.989   0.632
74553SOL    HW125433   4.248  11.999   0.580
74553SOL    HW225434   4.385  12.059   0.603
74554SOL     OW25435  13.385   1.288   5.194
74554SOL    HW125436  13.441   1.312   5.268
74554SOL    HW225437  13.301   1.330   5.213
74555SOL     OW25438   9.983   0.166  13.192
74555SOL    HW125439  10.010   0.160  13.284
74555SOL    HW225440  10.064   0.171  13.142
74556SOL     OW25441  11.672   6.941   2.255
74556SOL    HW125442  11.644   6.894   2.333
74556SOL    HW225443  11.707   6.874   2.197
74557SOL     OW25444  12.951  13.949   5.947
74557SOL    HW125445  13.009  13.967   5.873
74557SOL    HW225446  12.909  14.033   5.965
74558SOL     OW25447  10.139   8.657  10.618
74558SOL    HW125448  10.097   8.595  10.559
74558SOL    HW225449  10.081   8.733  10.619
74559SOL     OW25450  12.245   7.265  11.324
74559SOL    HW125451  12.296   7.191  11.355
74559SOL    HW225452  12.278   7.340  11.373
74560SOL     OW25453   4.178   9.208  14.628
74560SOL    HW125454   4.186   9.303  14.618
74560SOL    HW225455   4.084   9.192  14.629
74561SOL     OW25456  10.613  10.597   9.098
74561SOL    HW125457  10.561  10.565   9.024
74561SOL    HW225458  10.657  10.518   9.132
74562SOL     OW25459   4.042   6.955   5.835
74562SOL    HW125460   4.057   6.870   5.875
74562SOL    HW225461   3.952   6.951   5.802
74563SOL     OW25462  10.389  13.316   2.598
74563SOL    HW125463  10.348  13.349   2.518
74563SOL    HW225464  10.418  13.394   2.644
74564SOL     OW25465  10.027  12.500   7.272
74564SOL    HW125466  10.066  12.586   7.281
74564SOL    HW225467   9.948  12.515   7.220
74565SOL     OW25468   2.019  12.427   5.933
74565SOL    HW125469   2.070  12.355   5.895
74565SOL    HW225470   1.980  12.471   5.857
74566SOL     OW25471  10.137  11.887  10.053
74566SOL    HW125472  10.100  11.968  10.088
74566SOL    HW225473  10.125  11.894   9.958
74567SOL     OW25474  13.551   7.241   2.816
74567SOL    HW125475  13.516   7.207   2.898
74567SOL    HW225476  13.503   7.194   2.748
74568SOL     OW25477   1.154   2.799   1.016
74568SOL    HW125478   1.235   2.750   1.029
74568SOL    HW225479   1.085   2.732   1.014
74569SOL     OW25480   5.036   3.934   2.329
74569SOL    HW125481   5.013   3.887   2.248
74569SOL    HW225482   5.089   3.872   2.379
74570SOL     OW25483   8.897  10.900  10.565
74570SOL    HW125484   8.977  10.942  10.532
74570SOL    HW225485   8.826  10.941  10.515
74571SOL     OW25486  14.503  12.165  13.955
74571SOL    HW125487  14.564  12.171  14.029
74571SOL    HW225488  14.497  12.071  13.937
74572SOL     OW25489   4.938  12.743  10.659
74572SOL    HW125490   4.965  12.698  10.739
74572SOL    HW225491   4.879  12.812  10.689
74573SOL     OW25492   7.748  10.702   5.040
74573SOL    HW125493   7.760  10.719   4.947
74573SOL    HW225494   7.661  10.738   5.060
74574SOL     OW25495  11.309   4.824   3.433
74574SOL    HW125496  11.401   4.849   3.422
74574SOL    HW225497  11.261   4.906   3.428
74575SOL     OW25498   5.715  10.168  13.725
74575SOL    HW125499   5.787  10.219  13.688
74575SOL    HW225500   5.636  10.211  13.693
74576SOL     OW25501   1.106   3.878  12.759
74576SOL    HW125502   1.035   3.917  12.810
74576SOL    HW225503   1.184   3.925  12.787
74577SOL     OW25504  11.006  12.390   9.228
74577SOL    HW125505  11.036  12.414   9.141
74577SOL    HW225506  10.995  12.295   9.225
74578SOL     OW25507   0.111   4.750   0.881
74578SOL    HW125508   0.065   4.792   0.809
74578SOL    HW225509   0.175   4.816   0.910
74579SOL     OW25510  12.273   7.902   8.686
74579SOL    HW125511  12.261   7.940   8.598
74579SOL    HW225512  12.223   7.960   8.744
74580SOL     OW25513  12.563  14.314   7.072
74580SOL    HW125514  12.473  14.312   7.105
74580SOL    HW225515  12.576  14.404   7.042
74581SOL     OW25516  10.360   7.760   6.519
74581SOL    HW125517  10.267   7.783   6.520
74581SOL    HW225518  10.376   7.729   6.430
74582SOL     OW25519   2.709   7.373   8.390
74582SOL    HW125520   2.669   7.444   8.440
74582SOL    HW225521   2.772   7.415   8.333
74583SOL     OW25522  12.732   8.962  12.013
74583SOL    HW125523  12.684   8.880  12.015
74583SOL    HW225524  12.673   9.027  12.052
74584SOL     OW25525   9.637   4.911   0.463
74584SOL    HW125526   9.558   4.967   0.460
74584SOL    HW225527   9.638   4.866   0.378
74585SOL     OW25528   4.575   1.026   6.320
74585SOL    HW125529   4.484   1.011   6.294
74585SOL    HW225530   4.572   1.028   6.416
74586SOL     OW25531   9.741   5.966  14.308
74586SOL    HW125532   9.719   6.044  14.358
74586SOL    HW225533   9.661   5.944  14.260
74587SOL     OW25534   5.979   8.648   2.007
74587SOL    HW125535   5.985   8.645   1.912
74587SOL    HW225536   6.071   8.654   2.036
74588SOL     OW25537  14.754   9.911   2.163
74588SOL    HW125538  14.748   9.817   2.144
74588SOL    HW225539  14.823   9.943   2.105
74589SOL     OW25540  11.334   8.352   6.226
74589SOL    HW125541  11.273   8.328   6.156
74589SOL    HW225542  11.399   8.408   6.183
74590SOL     OW25543   0.831   5.254   2.505
74590SOL    HW125544   0.870   5.191   2.565
74590SOL    HW225545   0.839   5.338   2.550
74591SOL     OW25546   4.916  13.243   9.720
74591SOL    HW125547   4.956  13.330   9.725
74591SOL    HW225548   4.975  13.192   9.665
74592SOL     OW25549  10.320  12.076   6.030
74592SOL    HW125550  10.305  12.105   5.940
74592SOL    HW225551  10.271  11.995   6.038
74593SOL     OW25552   7.701   3.302  10.008
74593SOL    HW125553   7.643   3.336  10.075
74593SOL    HW225554   7.722   3.213  10.037
74594SOL     OW25555  11.625   3.196   1.876
74594SOL    HW125556  11.543   3.149   1.886
74594SOL    HW225557  11.642   3.195   1.782
74595SOL     OW25558  12.470   0.641   5.579
74595SOL    HW125559  12.465   0.729   5.542
74595SOL    HW225560  12.435   0.585   5.510
74596SOL     OW25561   2.002   8.284  11.830
74596SOL    HW125562   1.935   8.349  11.849
74596SOL    HW225563   2.057   8.282  11.908
74597SOL     OW25564   6.164  11.587   9.608
74597SOL    HW125565   6.104  11.641   9.660
74597SOL    HW225566   6.242  11.641   9.598
74598SOL     OW25567   8.217   3.279   5.610
74598SOL    HW125568   8.186   3.259   5.521
74598SOL    HW225569   8.214   3.374   5.615
74599SOL     OW25570  13.799   2.491  14.468
74599SOL    HW125571  13.845   2.538  14.538
74599SOL    HW225572  13.866   2.473  14.403
74600SOL     OW25573   7.415   2.721  12.428
74600SOL    HW125574   7.398   2.628  12.412
74600SOL    HW225575   7.510   2.727  12.439
74601SOL     OW25576  11.469   7.567  13.184
74601SOL    HW125577  11.543   7.586  13.126
74601SOL    HW225578  11.510   7.532  13.264
74602SOL     OW25579   7.746   2.173  12.324
74602SOL    HW125580   7.749   2.217  12.239
74602SOL    HW225581   7.652   2.158  12.340
74603SOL     OW25582  12.598   6.955   9.747
74603SOL    HW125583  12.610   6.988   9.836
74603SOL    HW225584  12.536   7.017   9.707
74604SOL     OW25585   8.836  13.929   7.315
74604SOL    HW125586   8.767  13.902   7.254
74604SOL    HW225587   8.823  13.873   7.392
74605SOL     OW25588   3.259   7.359   9.296
74605SOL    HW125589   3.291   7.444   9.327
74605SOL    HW225590   3.329   7.298   9.318
74606SOL     OW25591   2.744  14.462  13.014
74606SOL    HW125592   2.783  14.538  13.057
74606SOL    HW225593   2.652  14.484  13.005
74607SOL     OW25594   7.978   4.329   6.402
74607SOL    HW125595   7.886   4.336   6.426
74607SOL    HW225596   7.995   4.235   6.398
74608SOL     OW25597  11.286   3.876   2.539
74608SOL    HW125598  11.336   3.946   2.495
74608SOL    HW225599  11.327   3.868   2.625
74609SOL     OW25600   4.818   0.771   4.234
74609SOL    HW125601   4.746   0.826   4.203
74609SOL    HW225602   4.785   0.732   4.315
74610SOL     OW25603   6.284   0.531  14.662
74610SOL    HW125604   6.275   0.626  14.657
74610SOL    HW225605   6.372   0.518  14.696
74611SOL     OW25606  10.869   9.456   3.201
74611SOL    HW125607  10.898   9.489   3.116
74611SOL    HW225608  10.922   9.505   3.265
74612SOL     OW25609   9.579   6.535   7.783
74612SOL    HW125610   9.490   6.561   7.806
74612SOL    HW225611   9.570   6.449   7.742
74613SOL     OW25612   3.371   0.198   4.378
74613SOL    HW125613   3.450   0.251   4.367
74613SOL    HW225614   3.300   0.251   4.344
74614SOL     OW25615   0.149   8.571   8.962
74614SOL    HW125616   0.119   8.560   8.872
74614SOL    HW225617   0.123   8.489   9.005
74615SOL     OW25618  11.013  13.606  11.553
74615SOL    HW125619  11.108  13.594  11.545
74615SOL    HW225620  10.990  13.561  11.634
74616SOL     OW25621  12.988   2.892  13.574
74616SOL    HW125622  13.081   2.872  13.589
74616SOL    HW225623  12.975   2.879  13.480
74617SOL     OW25624   4.511   3.803  14.291
74617SOL    HW125625   4.489   3.888  14.252
74617SOL    HW225626   4.454   3.740  14.246
74618SOL     OW25627   5.748   0.916   5.954
74618SOL    HW125628   5.812   0.853   5.921
74618SOL    HW225629   5.752   0.989   5.893
74619SOL     OW25630  13.570   0.194   7.965
74619SOL    HW125631  13.505   0.198   7.894
74619SOL    HW225632  13.608   0.282   7.968
74620SOL     OW25633   3.340  14.016  12.352
74620SOL    HW125634   3.378  14.086  12.404
74620SOL    HW225635   3.246  14.032  12.354
74621SOL     OW25636   2.268   0.302   5.576
74621SOL    HW125637   2.238   0.232   5.519
74621SOL    HW225638   2.188   0.344   5.608
74622SOL     OW25639   9.742   5.502   3.275
74622SOL    HW125640   9.742   5.444   3.352
74622SOL    HW225641   9.650   5.526   3.265
74623SOL     OW25642   9.295   8.631   9.147
74623SOL    HW125643   9.230   8.573   9.109
74623SOL    HW225644   9.355   8.573   9.195
74624SOL     OW25645  13.233   1.205   3.603
74624SOL    HW125646  13.156   1.194   3.659
74624SOL    HW225647  13.213   1.281   3.548
74625SOL     OW25648  13.001  13.884   9.526
74625SOL    HW125649  13.091  13.911   9.508
74625SOL    HW225650  13.008  13.824   9.599
74626SOL     OW25651  11.685   9.144   9.991
74626SOL    HW125652  11.713   9.054  10.012
74626SOL    HW225653  11.613   9.161  10.052
74627SOL     OW25654  12.138  11.443   6.319
74627SOL    HW125655  12.069  11.469   6.380
74627SOL    HW225656  12.219  11.464   6.365
74628SOL     OW25657   4.158   6.361   1.949
74628SOL    HW125658   4.243   6.318   1.963
74628SOL    HW225659   4.176   6.453   1.967
74629SOL     OW25660   9.507   6.635   0.191
74629SOL    HW125661   9.525   6.676   0.276
74629SOL    HW225662   9.415   6.611   0.195
74630SOL     OW25663   2.351  14.196   1.548
74630SOL    HW125664   2.297  14.119   1.526
74630SOL    HW225665   2.391  14.174   1.632
74631SOL     OW25666   7.744   4.880   5.541
74631SOL    HW125667   7.679   4.950   5.547
74631SOL    HW225668   7.817   4.910   5.596
74632SOL     OW25669   5.663   6.959  14.747
74632SOL    HW125670   5.644   7.023  14.817
74632SOL    HW225671   5.627   6.877  14.779
74633SOL     OW25672   9.522   3.964   7.678
74633SOL    HW125673   9.495   3.874   7.657
74633SOL    HW225674   9.466   4.019   7.624
74634SOL     OW25675  10.324  14.134   0.481
74634SOL    HW125676  10.239  14.090   0.487
74634SOL    HW225677  10.319  14.205   0.545
74635SOL     OW25678   5.040  11.912  14.230
74635SOL    HW125679   5.090  11.977  14.278
74635SOL    HW225680   4.948  11.939  14.240
74636SOL     OW25681  12.153  11.783   3.317
74636SOL    HW125682  12.242  11.816   3.305
74636SOL    HW225683  12.106  11.853   3.362
74637SOL     OW25684   7.934  14.638   7.050
74637SOL    HW125685   7.992  14.654   6.976
74637SOL    HW225686   7.933  14.542   7.059
74638SOL     OW25687  13.406   1.748  11.357
74638SOL    HW125688  13.471   1.780  11.419
74638SOL    HW225689  13.355   1.826  11.334
74639SOL     OW25690   1.399  14.396   8.492
74639SOL    HW125691   1.494  14.399   8.481
74639SOL    HW225692   1.386  14.385   8.586
74640SOL     OW25693  12.949   3.404  10.206
74640SOL    HW125694  13.038   3.369  10.200
74640SOL    HW225695  12.946   3.449  10.290
74641SOL     OW25696  14.463  12.511   5.355
74641SOL    HW125697  14.372  12.527   5.331
74641SOL    HW225698  14.472  12.415   5.349
74642SOL     OW25699  11.784  11.853  11.856
74642SOL    HW125700  11.739  11.844  11.772
74642SOL    HW225701  11.774  11.945  11.880
74643SOL     OW25702   5.850   6.248   8.349
74643SOL    HW125703   5.848   6.326   8.294
74643SOL    HW225704   5.838   6.280   8.438
74644SOL     OW25705   7.500  13.762   9.304
74644SOL    HW125706   7.467  13.808   9.227
74644SOL    HW225707   7.429  13.768   9.368
74645SOL     OW25708   4.445   8.569   4.583
74645SOL    HW125709   4.396   8.646   4.553
74645SOL    HW225710   4.523   8.606   4.625
74646SOL     OW25711   0.160  11.083  10.692
74646SOL    HW125712   0.202  11.087  10.606
74646SOL    HW225713   0.108  11.003  10.689
74647SOL     OW25714   8.405  12.370   8.882
74647SOL    HW125715   8.346  12.295   8.869
74647SOL    HW225716   8.432  12.395   8.794
74648SOL     OW25717  14.046   8.673   3.646
74648SOL    HW125718  14.060   8.685   3.740
74648SOL    HW225719  13.953   8.690   3.633
74649SOL     OW25720  13.364   4.141   0.172
74649SOL    HW125721  13.359   4.063   0.116
74649SOL    HW225722  13.338   4.110   0.259
74650SOL     OW25723  10.372   6.615   4.285
74650SOL    HW125724  10.420   6.554   4.342
74650SOL    HW225725  10.413   6.700   4.301
74651SOL     OW25726   3.812  11.449   0.660
74651SOL    HW125727   3.890  11.400   0.634
74651SOL    HW225728   3.783  11.406   0.740
74652SOL     OW25729  13.591   6.046   7.687
74652SOL    HW125730  13.572   6.047   7.781
74652SOL    HW225731  13.509   6.020   7.646
74653SOL     OW25732   5.482  14.137   6.829
74653SOL    HW125733   5.507  14.202   6.763
74653SOL    HW225734   5.532  14.161   6.907
74654SOL     OW25735  12.446   9.070   9.198
74654SOL    HW125736  12.409   8.990   9.160
74654SOL    HW225737  12.411   9.073   9.287
74655SOL     OW25738  12.910  13.755   6.744
74655SOL    HW125739  12.905  13.683   6.681
74655SOL    HW225740  12.995  13.796   6.726
74656SOL     OW25741   0.363   8.868   1.567
74656SOL    HW125742   0.451   8.905   1.553
74656SOL    HW225743   0.380   8.776   1.589
74657SOL     OW25744   8.981   1.660   6.989
74657SOL    HW125745   8.990   1.662   6.894
74657SOL    HW225746   9.018   1.743   7.018
74658SOL     OW25747   4.352  10.316  14.788
74658SOL    HW125748   4.412  10.250  14.824
74658SOL    HW225749   4.402  10.360  14.719
74659SOL     OW25750  14.826   2.680   9.534
74659SOL    HW125751  14.753   2.636   9.491
74659SOL    HW225752   0.001   2.609   9.570
74660SOL     OW25753   4.003   8.224   4.048
74660SOL    HW125754   4.043   8.207   3.962
74660SOL    HW225755   3.912   8.196   4.038
74661SOL     OW25756   3.142  12.067   8.825
74661SOL    HW125757   3.100  12.115   8.753
74661SOL    HW225758   3.202  12.006   8.782
74662SOL     OW25759   7.567   2.698   9.709
74662SOL    HW125760   7.597   2.783   9.676
74662SOL    HW225761   7.483   2.684   9.666
74663SOL     OW25762   0.436   9.925  10.431
74663SOL    HW125763   0.451   9.944  10.338
74663SOL    HW225764   0.524   9.919  10.468
74664SOL     OW25765  12.348  13.790   6.696
74664SOL    HW125766  12.340  13.711   6.750
74664SOL    HW225767  12.401  13.762   6.621
74665SOL     OW25768   9.229  10.713   2.477
74665SOL    HW125769   9.248  10.775   2.408
74665SOL    HW225770   9.304  10.654   2.479
74666SOL     OW25771   4.267  12.365  10.221
74666SOL    HW125772   4.356  12.332  10.232
74666SOL    HW225773   4.218  12.327  10.294
74667SOL     OW25774   1.218   1.062   1.372
74667SOL    HW125775   1.275   1.139   1.369
74667SOL    HW225776   1.275   0.992   1.405
74668SOL     OW25777   3.959   3.130   6.331
74668SOL    HW125778   4.002   3.167   6.408
74668SOL    HW225779   3.897   3.066   6.366
74669SOL     OW25780  10.385   1.109   0.804
74669SOL    HW125781  10.413   1.193   0.839
74669SOL    HW225782  10.384   1.050   0.880
74670SOL     OW25783   2.956  10.768   4.819
74670SOL    HW125784   3.027  10.704   4.827
74670SOL    HW225785   3.000  10.853   4.817
74671SOL     OW25786  10.156   6.481   0.088
74671SOL    HW125787  10.106   6.563   0.089
74671SOL    HW225788  10.226   6.495   0.152
74672SOL     OW25789   3.047   6.975  10.030
74672SOL    HW125790   3.015   7.047  10.085
74672SOL    HW225791   3.067   7.016   9.945
74673SOL     OW25792   1.247  13.672   4.919
74673SOL    HW125793   1.156  13.699   4.909
74673SOL    HW225794   1.244  13.576   4.911
74674SOL     OW25795  13.919  10.172  10.973
74674SOL    HW125796  13.956  10.089  11.002
74674SOL    HW225797  13.951  10.182  10.883
74675SOL     OW25798  13.144  14.225   5.058
74675SOL    HW125799  13.109  14.205   5.145
74675SOL    HW225800  13.239  14.216   5.068
74676SOL     OW25801  11.356   2.672   9.542
74676SOL    HW125802  11.265   2.691   9.520
74676SOL    HW225803  11.373   2.587   9.501
74677SOL     OW25804   9.282   0.081   7.328
74677SOL    HW125805   9.222   0.019   7.369
74677SOL    HW225806   9.271   0.162   7.378
74678SOL     OW25807  12.531  11.084  11.638
74678SOL    HW125808  12.470  11.148  11.676
74678SOL    HW225809  12.597  11.070  11.706
74679SOL     OW25810   8.995   5.102   9.072
74679SOL    HW125811   8.934   5.176   9.075
74679SOL    HW225812   9.077   5.136   9.107
74680SOL     OW25813   5.404   0.617   6.779
74680SOL    HW125814   5.318   0.655   6.797
74680SOL    HW225815   5.405   0.604   6.684
74681SOL     OW25816  11.825  11.938   0.782
74681SOL    HW125817  11.895  11.957   0.846
74681SOL    HW225818  11.793  11.852   0.807
74682SOL     OW25819   1.907   0.125  12.076
74682SOL    HW125820   1.923   0.035  12.105
74682SOL    HW225821   1.970   0.178  12.125
74683SOL     OW25822  10.313  10.538   4.153
74683SOL    HW125823  10.239  10.477   4.159
74683SOL    HW225824  10.276  10.617   4.113
74684SOL     OW25825   3.164   7.171   8.432
74684SOL    HW125826   3.182   7.260   8.400
74684SOL    HW225827   3.068   7.168   8.441
74685SOL     OW25828   3.848   2.309   7.000
74685SOL    HW125829   3.826   2.219   7.024
74685SOL    HW225830   3.779   2.362   7.039
74686SOL     OW25831  12.006   2.285   1.794
74686SOL    HW125832  11.968   2.370   1.772
74686SOL    HW225833  12.034   2.295   1.885
74687SOL     OW25834   5.712   2.052  11.536
74687SOL    HW125835   5.655   2.124  11.561
74687SOL    HW225836   5.698   2.042  11.442
74688SOL     OW25837  11.567   8.419  14.471
74688SOL    HW125838  11.647   8.413  14.419
74688SOL    HW225839  11.597   8.412  14.562
74689SOL     OW25840   9.381  11.403  10.135
74689SOL    HW125841   9.304  11.371  10.087
74689SOL    HW225842   9.372  11.498  10.135
74690SOL     OW25843  10.031   1.885   1.165
74690SOL    HW125844  10.080   1.836   1.100
74690SOL    HW225845  10.004   1.820   1.229
74691SOL     OW25846  13.803  12.788  14.158
74691SOL    HW125847  13.815  12.856  14.225
74691SOL    HW225848  13.834  12.708  14.199
74692SOL     OW25849   1.109   0.755   9.794
74692SOL    HW125850   1.076   0.787   9.878
74692SOL    HW225851   1.087   0.824   9.732
74693SOL     OW25852   9.083   6.798   5.256
74693SOL    HW125853   9.008   6.794   5.316
74693SOL    HW225854   9.061   6.737   5.186
74694SOL     OW25855   8.469   1.198  13.887
74694SOL    HW125856   8.480   1.234  13.975
74694SOL    HW225857   8.506   1.266  13.829
74695SOL     OW25858   1.532   4.452   9.847
74695SOL    HW125859   1.519   4.438   9.940
74695SOL    HW225860   1.597   4.385   9.821
74696SOL     OW25861   0.637   8.960  11.079
74696SOL    HW125862   0.641   8.973  10.984
74696SOL    HW225863   0.709   9.013  11.113
74697SOL     OW25864   6.302   2.418   6.991
74697SOL    HW125865   6.344   2.498   6.959
74697SOL    HW225866   6.250   2.387   6.917
74698SOL     OW25867   3.846  11.289   3.440
74698SOL    HW125868   3.913  11.293   3.371
74698SOL    HW225869   3.846  11.376   3.479
74699SOL     OW25870   7.876   2.197  10.419
74699SOL    HW125871   7.947   2.253  10.447
74699SOL    HW225872   7.853   2.145  10.496
74700SOL     OW25873   2.269  12.357  13.021
74700SOL    HW125874   2.228  12.419  12.961
74700SOL    HW225875   2.308  12.291  12.964
74701SOL     OW25876  13.734   4.741   9.768
74701SOL    HW125877  13.809   4.712   9.821
74701SOL    HW225878  13.774   4.789   9.696
74702SOL     OW25879  14.688  10.430   1.241
74702SOL    HW125880  14.661  10.376   1.166
74702SOL    HW225881  14.766  10.386   1.275
74703SOL     OW25882   7.930   2.670   0.966
74703SOL    HW125883   7.968   2.685   0.880
74703SOL    HW225884   7.939   2.754   1.011
74704SOL     OW25885   5.166  11.714  11.666
74704SOL    HW125886   5.260  11.728  11.658
74704SOL    HW225887   5.128  11.802  11.668
74705SOL     OW25888   7.000   1.618   6.927
74705SOL    HW125889   6.977   1.590   7.016
74705SOL    HW225890   7.065   1.688   6.940
74706SOL     OW25891   5.323   5.893   3.677
74706SOL    HW125892   5.303   5.806   3.711
74706SOL    HW225893   5.361   5.878   3.591
74707SOL     OW25894  12.612   9.198  10.227
74707SOL    HW125895  12.532   9.229  10.184
74707SOL    HW225896  12.682   9.225  10.169
74708SOL     OW25897  12.792   5.830   6.205
74708SOL    HW125898  12.874   5.853   6.161
74708SOL    HW225899  12.815   5.826   6.298
74709SOL     OW25900   5.855   9.950  12.356
74709SOL    HW125901   5.816  10.037  12.363
74709SOL    HW225902   5.905   9.952  12.274
74710SOL     OW25903   2.288   2.943   9.012
74710SOL    HW125904   2.301   2.957   8.919
74710SOL    HW225905   2.238   3.020   9.041
74711SOL     OW25906  11.234   2.953  12.838
74711SOL    HW125907  11.179   2.890  12.885
74711SOL    HW225908  11.241   2.918  12.750
74712SOL     OW25909   5.558   8.327  11.152
74712SOL    HW125910   5.582   8.379  11.075
74712SOL    HW225911   5.612   8.248  11.144
74713SOL     OW25912  14.053  11.871   3.872
74713SOL    HW125913  14.136  11.919   3.875
74713SOL    HW225914  13.993  11.922   3.925
74714SOL     OW25915   5.052   7.244   7.179
74714SOL    HW125916   5.118   7.187   7.218
74714SOL    HW225917   5.017   7.293   7.253
74715SOL     OW25918   3.510   4.203  12.675
74715SOL    HW125919   3.543   4.141  12.739
74715SOL    HW225920   3.586   4.256  12.652
74716SOL     OW25921   1.366  12.964   9.032
74716SOL    HW125922   1.412  12.938   9.112
74716SOL    HW225923   1.351  13.059   9.042
74717SOL     OW25924   5.511   6.499   4.806
74717SOL    HW125925   5.537   6.591   4.802
74717SOL    HW225926   5.416   6.501   4.792
74718SOL     OW25927   8.922   1.945   7.977
74718SOL    HW125928   8.968   1.987   8.050
74718SOL    HW225929   8.989   1.893   7.933
74719SOL     OW25930   7.464   6.659   7.630
74719SOL    HW125931   7.537   6.627   7.683
74719SOL    HW225932   7.492   6.746   7.601
74720SOL     OW25933   5.657   6.118  14.378
74720SOL    HW125934   5.562   6.116  14.367
74720SOL    HW225935   5.690   6.154  14.296
74721SOL     OW25936   7.107  10.813  12.872
74721SOL    HW125937   7.194  10.772  12.870
74721SOL    HW225938   7.124  10.906  12.881
74722SOL     OW25939   5.257   5.830  14.843
74722SOL    HW125940   5.181   5.796   0.012
74722SOL    HW225941   5.327   5.832   0.031
74723SOL     OW25942   0.388   9.974  12.660
74723SOL    HW125943   0.347   9.917  12.595
74723SOL    HW225944   0.397  10.058  12.616
74724SOL     OW25945  10.271   3.870   0.381
74724SOL    HW125946  10.324   3.890   0.458
74724SOL    HW225947  10.189   3.918   0.395
74725SOL     OW25948   1.380  10.350   3.013
74725SOL    HW125949   1.349  10.426   2.964
74725SOL    HW225950   1.300  10.304   3.039
74726SOL     OW25951   1.649   3.966  13.549
74726SOL    HW125952   1.599   3.944  13.628
74726SOL    HW225953   1.735   3.926  13.563
74727SOL     OW25954   6.706  14.426  14.388
74727SOL    HW125955   6.779  14.364  14.376
74727SOL    HW225956   6.645  14.405  14.318
74728SOL     OW25957   9.565   4.744   3.623
74728SOL    HW125958   9.625   4.745   3.549
74728SOL    HW225959   9.535   4.834   3.632
74729SOL     OW25960  13.950  11.784   9.140
74729SOL    HW125961  13.975  11.860   9.088
74729SOL    HW225962  13.921  11.720   9.076
74730SOL     OW25963   0.324   0.353  14.625
74730SOL    HW125964   0.313   0.425  14.563
74730SOL    HW225965   0.238   0.344  14.667
74731SOL     OW25966   7.766   5.276   4.065
74731SOL    HW125967   7.686   5.297   4.016
74731SOL    HW225968   7.801   5.361   4.091
74732SOL     OW25969   7.814   9.047   8.596
74732SOL    HW125970   7.811   8.964   8.549
74732SOL    HW225971   7.760   9.106   8.543
74733SOL     OW25972  12.868  10.583  13.036
74733SOL    HW125973  12.953  10.595  13.077
74733SOL    HW225974  12.877  10.623  12.949
74734SOL     OW25975   6.660   2.277   3.511
74734SOL    HW125976   6.593   2.219   3.547
74734SOL    HW225977   6.635   2.365   3.540
74735SOL     OW25978   9.761   5.133   1.336
74735SOL    HW125979   9.832   5.171   1.389
74735SOL    HW225980   9.709   5.082   1.398
74736SOL     OW25981   8.123   2.755   8.301
74736SOL    HW125982   8.030   2.739   8.286
74736SOL    HW225983   8.157   2.671   8.334
74737SOL     OW25984   1.619   2.337  11.902
74737SOL    HW125985   1.663   2.317  11.985
74737SOL    HW225986   1.686   2.321  11.835
74738SOL     OW25987   4.377   7.360   4.981
74738SOL    HW125988   4.380   7.270   4.949
74738SOL    HW225989   4.376   7.352   5.076
74739SOL     OW25990   3.163  11.974  14.020
74739SOL    HW125991   3.149  12.042  13.955
74739SOL    HW225992   3.179  11.894  13.970
74740SOL     OW25993  13.128   6.336   9.368
74740SOL    HW125994  13.193   6.342   9.438
74740SOL    HW225995  13.112   6.242   9.358
74741SOL     OW25996   2.016  10.306   2.479
74741SOL    HW125997   1.993  10.301   2.572
74741SOL    HW225998   2.071  10.384   2.473
74742SOL     OW25999  13.280  14.426   2.245
74742SOL    HW126000  13.301  14.410   2.154
74742SOL    HW226001  13.212  14.494   2.242
74743SOL     OW26002  12.332  14.777   8.284
74743SOL    HW126003  12.332  14.692   8.240
74743SOL    HW226004  12.399  14.827   8.238
74744SOL     OW26005  10.622   9.538   7.709
74744SOL    HW126006  10.604   9.528   7.616
74744SOL    HW226007  10.717   9.554   7.714
74745SOL     OW26008  11.340   6.563  11.747
74745SOL    HW126009  11.360   6.495  11.810
74745SOL    HW226010  11.300   6.633  11.798
74746SOL     OW26011  11.488  10.827  14.029
74746SOL    HW126012  11.551  10.843  14.099
74746SOL    HW226013  11.488  10.732  14.018
74747SOL     OW26014   0.265   3.131   8.619
74747SOL    HW126015   0.243   3.210   8.570
74747SOL    HW226016   0.277   3.063   8.552
74748SOL     OW26017   1.658  13.103   0.694
74748SOL    HW126018   1.697  13.048   0.627
74748SOL    HW226019   1.725  13.110   0.762
74749SOL     OW26020   6.676   1.838   9.027
74749SOL    HW126021   6.685   1.777   8.955
74749SOL    HW226022   6.721   1.796   9.100
74750SOL     OW26023   8.819   1.022  10.240
74750SOL    HW126024   8.756   0.983  10.301
74750SOL    HW226025   8.880   1.070  10.295
74751SOL     OW26026   7.849   1.135   9.452
74751SOL    HW126027   7.844   1.084   9.533
74751SOL    HW226028   7.759   1.136   9.419
74752SOL     OW26029   7.569   0.546   0.009
74752SOL    HW126030   7.502   0.538  14.819
74752SOL    HW226031   7.574   0.640   0.027
74753SOL     OW26032  10.817   1.740   5.275
74753SOL    HW126033  10.869   1.723   5.196
74753SOL    HW226034  10.859   1.815   5.316
74754SOL     OW26035   2.271   4.882  11.988
74754SOL    HW126036   2.266   4.972  12.021
74754SOL    HW226037   2.211   4.880  11.914
74755SOL     OW26038  14.565   0.638   0.180
74755SOL    HW126039  14.572   0.711   0.241
74755SOL    HW226040  14.533   0.678   0.099
74756SOL     OW26041   5.289   8.667  11.156
74756SOL    HW126042   5.302   8.658  11.062
74756SOL    HW226043   5.194   8.663  11.168
74757SOL     OW26044   6.225   8.628   0.934
74757SOL    HW126045   6.194   8.668   1.015
74757SOL    HW226046   6.199   8.536   0.941
74758SOL     OW26047  12.538   8.436   3.290
74758SOL    HW126048  12.450   8.468   3.309
74758SOL    HW226049  12.527   8.375   3.217
74759SOL     OW26050  12.281   4.987   0.961
74759SOL    HW126051  12.324   5.056   0.911
74759SOL    HW226052  12.306   4.906   0.917
74760SOL     OW26053   9.169  11.478   5.870
74760SOL    HW126054   9.165  11.558   5.922
74760SOL    HW226055   9.258  11.476   5.835
74761SOL     OW26056   3.052   1.237  13.044
74761SOL    HW126057   3.071   1.313  12.989
74761SOL    HW226058   2.982   1.191  12.996
74762SOL     OW26059   0.594   9.086  14.620
74762SOL    HW126060   0.501   9.090  14.599
74762SOL    HW226061   0.639   9.114  14.540
74763SOL     OW26062  14.699   8.032   3.761
74763SOL    HW126063  14.787   7.995   3.765
74763SOL    HW226064  14.662   8.016   3.848
74764SOL     OW26065  14.077   0.021  13.566
74764SOL    HW126066  13.981   0.028  13.567
74764SOL    HW226067  14.094  14.807  13.588
74765SOL     OW26068   7.367   7.546  10.721
74765SOL    HW126069   7.310   7.620  10.700
74765SOL    HW226070   7.357   7.487  10.647
74766SOL     OW26071   4.169  14.582  13.597
74766SOL    HW126072   4.078  14.571  13.572
74766SOL    HW226073   4.166  14.645  13.669
74767SOL     OW26074   0.972   2.629  11.391
74767SOL    HW126075   0.920   2.661  11.465
74767SOL    HW226076   0.909   2.622  11.319
74768SOL     OW26077   5.163   9.032   9.870
74768SOL    HW126078   5.240   9.028   9.927
74768SOL    HW226079   5.199   9.048   9.783
74769SOL     OW26080   2.905   6.899   1.335
74769SOL    HW126081   2.961   6.822   1.347
74769SOL    HW226082   2.946   6.967   1.388
74770SOL     OW26083   0.191   3.538   0.651
74770SOL    HW126084   0.247   3.465   0.679
74770SOL    HW226085   0.111   3.527   0.702
74771SOL     OW26086   6.290   4.806   4.052
74771SOL    HW126087   6.344   4.846   4.120
74771SOL    HW226088   6.330   4.721   4.037
74772SOL     OW26089   0.627   6.824  12.806
74772SOL    HW126090   0.641   6.916  12.827
74772SOL    HW226091   0.541   6.804  12.842
74773SOL     OW26092   3.753  10.316   8.962
74773SOL    HW126093   3.765  10.346   8.872
74773SOL    HW226094   3.726  10.224   8.954
74774SOL     OW26095  12.743   8.225   1.098
74774SOL    HW126096  12.705   8.183   1.021
74774SOL    HW226097  12.704   8.179   1.172
74775SOL     OW26098  12.393   1.335   6.395
74775SOL    HW126099  12.421   1.261   6.450
74775SOL    HW226100  12.322   1.376   6.444
74776SOL     OW26101  13.640   7.507   2.275
74776SOL    HW126102  13.689   7.458   2.341
74776SOL    HW226103  13.705   7.530   2.209
74777SOL     OW26104   0.594   8.307   5.919
74777SOL    HW126105   0.681   8.281   5.952
74777SOL    HW226106   0.549   8.342   5.996
74778SOL     OW26107   7.148  13.563  13.550
74778SOL    HW126108   7.197  13.490  13.511
74778SOL    HW226109   7.196  13.641  13.523
74779SOL     OW26110  10.543  10.789   2.818
74779SOL    HW126111  10.632  10.754   2.814
74779SOL    HW226112  10.490  10.716   2.848
74780SOL     OW26113   2.052   5.884  12.548
74780SOL    HW126114   1.963   5.864  12.575
74780SOL    HW226115   2.106   5.865  12.625
74781SOL     OW26116   8.388   7.233   4.606
74781SOL    HW126117   8.295   7.257   4.610
74781SOL    HW226118   8.422   7.256   4.693
74782SOL     OW26119  14.775   9.723  10.629
74782SOL    HW126120  14.821   9.799  10.664
74782SOL    HW226121  14.687   9.754  10.609
74783SOL     OW26122   7.722   9.043  12.684
74783SOL    HW126123   7.720   9.027  12.590
74783SOL    HW226124   7.665   9.118  12.697
74784SOL     OW26125   0.070   6.187  11.048
74784SOL    HW126126   0.164   6.203  11.056
74784SOL    HW226127   0.036   6.267  11.009
74785SOL     OW26128   2.179   6.965   0.579
74785SOL    HW126129   2.221   7.020   0.512
74785SOL    HW226130   2.252   6.918   0.620
74786SOL     OW26131  11.672   1.948   8.018
74786SOL    HW126132  11.634   1.984   7.937
74786SOL    HW226133  11.766   1.943   8.000
74787SOL     OW26134   7.942  13.257   6.605
74787SOL    HW126135   8.007  13.218   6.547
74787SOL    HW226136   7.929  13.346   6.571
74788SOL     OW26137   4.227   0.360  10.190
74788SOL    HW126138   4.295   0.379  10.125
74788SOL    HW226139   4.275   0.324  10.264
74789SOL     OW26140   0.095   2.137  10.876
74789SOL    HW126141   0.102   2.197  10.950
74789SOL    HW226142   0.158   2.068  10.895
74790SOL     OW26143   2.312   3.226   2.397
74790SOL    HW126144   2.246   3.289   2.425
74790SOL    HW226145   2.330   3.173   2.475
74791SOL     OW26146   8.261   4.177   6.296
74791SOL    HW126147   8.283   4.206   6.385
74791SOL    HW226148   8.254   4.258   6.246
74792SOL     OW26149  13.704   1.232   6.189
74792SOL    HW126150  13.770   1.173   6.153
74792SOL    HW226151  13.751   1.313   6.208
74793SOL     OW26152   6.495   8.337  14.695
74793SOL    HW126153   6.448   8.406  14.648
74793SOL    HW226154   6.428   8.295  14.749
74794SOL     OW26155   4.787   2.244  10.394
74794SOL    HW126156   4.849   2.227  10.323
74794SOL    HW226157   4.706   2.203  10.364
74795SOL     OW26158  12.567   0.908  14.209
74795SOL    HW126159  12.638   0.874  14.154
74795SOL    HW226160  12.531   0.981  14.158
74796SOL     OW26161   3.202  10.008   1.629
74796SOL    HW126162   3.202  10.089   1.680
74796SOL    HW226163   3.188  10.037   1.539
74797SOL     OW26164  14.734   3.324   1.011
74797SOL    HW126165  14.649   3.341   1.049
74797SOL    HW226166  14.738   3.229   1.001
74798SOL     OW26167   6.432   7.428  10.597
74798SOL    HW126168   6.474   7.463  10.675
74798SOL    HW226169   6.359   7.376  10.631
74799SOL     OW26170   7.616   0.737   7.747
74799SOL    HW126171   7.620   0.831   7.727
74799SOL    HW226172   7.703   0.717   7.782
74800SOL     OW26173   4.361   8.497   2.659
74800SOL    HW126174   4.375   8.406   2.682
74800SOL    HW226175   4.442   8.524   2.617
74801SOL     OW26176   2.185  14.766   1.683
74801SOL    HW126177   2.268  14.765   1.731
74801SOL    HW226178   2.127  14.821   1.737
74802SOL     OW26179  12.575  11.773   3.671
74802SOL    HW126180  12.496  11.738   3.631
74802SOL    HW226181  12.577  11.734   3.758
74803SOL     OW26182   6.357   3.976   2.220
74803SOL    HW126183   6.275   3.998   2.265
74803SOL    HW226184   6.336   3.984   2.127
74804SOL     OW26185   7.016   2.160  11.159
74804SOL    HW126186   6.969   2.095  11.107
74804SOL    HW226187   7.090   2.187  11.104
74805SOL     OW26188  12.080   2.241  11.842
74805SOL    HW126189  12.084   2.151  11.871
74805SOL    HW226190  12.172   2.265  11.826
74806SOL     OW26191   0.646   8.602  13.559
74806SOL    HW126192   0.709   8.657  13.604
74806SOL    HW226193   0.571   8.659  13.543
74807SOL     OW26194  14.525  12.381   8.765
74807SOL    HW126195  14.580  12.441   8.715
74807SOL    HW226196  14.584  12.308   8.787
74808SOL     OW26197  13.492   1.991   0.598
74808SOL    HW126198  13.446   1.913   0.628
74808SOL    HW226199  13.532   1.964   0.515
74809SOL     OW26200   2.223  13.357  11.975
74809SOL    HW126201   2.219  13.402  11.890
74809SOL    HW226202   2.255  13.424  12.035
74810SOL     OW26203  14.556   9.078   7.828
74810SOL    HW126204  14.573   9.172   7.826
74810SOL    HW226205  14.462   9.071   7.843
74811SOL     OW26206  10.996   9.391   0.725
74811SOL    HW126207  10.939   9.320   0.755
74811SOL    HW226208  10.959   9.470   0.765
74812SOL     OW26209  14.764   2.908   5.712
74812SOL    HW126210  14.681   2.907   5.759
74812SOL    HW226211  14.762   2.830   5.658
74813SOL     OW26212   1.196   0.522  12.639
74813SOL    HW126213   1.198   0.476  12.723
74813SOL    HW226214   1.169   0.456  12.576
74814SOL     OW26215   2.799   7.618  11.257
74814SOL    HW126216   2.820   7.614  11.350
74814SOL    HW226217   2.848   7.545  11.218
74815SOL     OW26218   1.208   2.650  14.354
74815SOL    HW126219   1.208   2.745  14.340
74815SOL    HW226220   1.250   2.638  14.439
74816SOL     OW26221   4.345   9.750   9.001
74816SOL    HW126222   4.405   9.676   8.993
74816SOL    HW226223   4.398   9.819   9.043
74817SOL     OW26224   0.827  11.703   0.963
74817SOL    HW126225   0.768  11.758   0.912
74817SOL    HW226226   0.791  11.704   1.052
74818SOL     OW26227  12.971   9.207   5.975
74818SOL    HW126228  12.924   9.290   5.967
74818SOL    HW226229  13.049   9.218   5.920
74819SOL     OW26230  12.119   4.965  11.350
74819SOL    HW126231  12.085   5.031  11.411
74819SOL    HW226232  12.183   5.012  11.296
74820SOL     OW26233   1.136  12.184   7.187
74820SOL    HW126234   1.080  12.167   7.111
74820SOL    HW226235   1.077  12.221   7.253
74821SOL     OW26236   8.082   0.527   6.742
74821SOL    HW126237   8.063   0.437   6.770
74821SOL    HW226238   8.098   0.575   6.823
74822SOL     OW26239   8.485   2.332   8.385
74822SOL    HW126240   8.562   2.388   8.392
74822SOL    HW226241   8.470   2.301   8.475
74823SOL     OW26242   4.070   1.622   3.964
74823SOL    HW126243   4.132   1.554   3.937
74823SOL    HW226244   3.985   1.579   3.961
74824SOL     OW26245   0.417   5.289  11.313
74824SOL    HW126246   0.329   5.298  11.277
74824SOL    HW226247   0.463   5.234  11.250
74825SOL     OW26248  12.094   2.844   1.913
74825SOL    HW126249  12.019   2.903   1.904
74825SOL    HW226250  12.081   2.778   1.844
74826SOL     OW26251  13.133   5.616   6.034
74826SOL    HW126252  13.071   5.589   6.102
74826SOL    HW226253  13.145   5.537   5.980
74827SOL     OW26254   4.715   6.492  11.511
74827SOL    HW126255   4.684   6.448  11.590
74827SOL    HW226256   4.744   6.578  11.540
74828SOL     OW26257   8.449   2.702  12.756
74828SOL    HW126258   8.433   2.790  12.722
74828SOL    HW226259   8.529   2.673  12.711
74829SOL     OW26260  10.728  11.092   9.206
74829SOL    HW126261  10.797  11.031   9.232
74829SOL    HW226262  10.677  11.044   9.140
74830SOL     OW26263  11.169   6.994   1.063
74830SOL    HW126264  11.075   7.000   1.081
74830SOL    HW226265  11.211   7.036   1.138
74831SOL     OW26266  12.482  10.521   6.475
74831SOL    HW126267  12.552  10.566   6.523
74831SOL    HW226268  12.463  10.578   6.401
74832SOL     OW26269   4.882  10.035  10.706
74832SOL    HW126270   4.856  10.107  10.648
74832SOL    HW226271   4.918   9.968  10.647
74833SOL     OW26272  13.947   9.465   3.272
74833SOL    HW126273  14.014   9.473   3.204
74833SOL    HW226274  13.980   9.398   3.331
74834SOL     OW26275   5.132  13.823   3.287
74834SOL    HW126276   5.217  13.840   3.246
74834SOL    HW226277   5.154  13.791   3.374
74835SOL     OW26278  13.541   1.486   7.024
74835SOL    HW126279  13.629   1.487   6.987
74835SOL    HW226280  13.484   1.463   6.951
74836SOL     OW26281   0.543  13.610   9.333
74836SOL    HW126282   0.514  13.676   9.270
74836SOL    HW226283   0.628  13.641   9.364
74837SOL     OW26284  13.901   6.001  13.232
74837SOL    HW126285  13.882   6.054  13.154
74837SOL    HW226286  13.814   5.984  13.270
74838SOL     OW26287  14.383   9.894   1.656
74838SOL    HW126288  14.477   9.894   1.639
74838SOL    HW226289  14.352   9.811   1.619
74839SOL     OW26290   2.611   8.930   2.057
74839SOL    HW126291   2.563   9.008   2.086
74839SOL    HW226292   2.665   8.907   2.133
74840SOL     OW26293   9.053  13.378   6.895
74840SOL    HW126294   9.058  13.397   6.989
74840SOL    HW226295   8.962  13.394   6.872
74841SOL     OW26296   7.729   9.297  14.166
74841SOL    HW126297   7.707   9.317  14.257
74841SOL    HW226298   7.799   9.360  14.144
74842SOL     OW26299   4.989   7.478   8.926
74842SOL    HW126300   4.971   7.389   8.954
74842SOL    HW226301   5.071   7.472   8.876
74843SOL     OW26302   1.368   3.995   9.555
74843SOL    HW126303   1.275   3.993   9.531
74843SOL    HW226304   1.382   4.085   9.585
74844SOL     OW26305  14.010   8.386   7.793
74844SOL    HW126306  14.103   8.364   7.788
74844SOL    HW226307  13.975   8.329   7.861
74845SOL     OW26308   4.881   9.060  11.472
74845SOL    HW126309   4.842   9.046  11.386
74845SOL    HW226310   4.870   9.153  11.489
74846SOL     OW26311   9.116   4.280   9.456
74846SOL    HW126312   9.190   4.338   9.438
74846SOL    HW226313   9.057   4.293   9.381
74847SOL     OW26314  11.075  13.677   8.597
74847SOL    HW126315  11.012  13.732   8.550
74847SOL    HW226316  11.052  13.686   8.689
74848SOL     OW26317   6.323   5.232   2.158
74848SOL    HW126318   6.414   5.245   2.186
74848SOL    HW226319   6.298   5.315   2.117
74849SOL     OW26320   9.923   0.439  12.738
74849SOL    HW126321   9.859   0.404  12.799
74849SOL    HW226322   9.918   0.382  12.661
74850SOL     OW26323   0.055   6.994   9.100
74850SOL    HW126324   0.149   6.987   9.083
74850SOL    HW226325   0.033   7.084   9.077
74851SOL     OW26326  14.656   0.644   9.152
74851SOL    HW126327  14.637   0.602   9.068
74851SOL    HW226328  14.589   0.711   9.162
74852SOL     OW26329   6.916   5.856   8.573
74852SOL    HW126330   7.010   5.841   8.562
74852SOL    HW226331   6.901   5.943   8.536
74853SOL     OW26332  10.750  13.750   3.794
74853SOL    HW126333  10.670  13.782   3.753
74853SOL    HW226334  10.725  13.669   3.837
74854SOL     OW26335  11.901  13.051   1.768
74854SOL    HW126336  11.823  12.996   1.771
74854SOL    HW226337  11.870  13.135   1.736
74855SOL     OW26338  11.618   9.062  14.216
74855SOL    HW126339  11.625   8.970  14.241
74855SOL    HW226340  11.524   9.081  14.221
74856SOL     OW26341  11.024  11.897  10.143
74856SOL    HW126342  11.080  11.837  10.191
74856SOL    HW226343  11.027  11.978  10.193
74857SOL     OW26344   0.853   5.324  11.822
74857SOL    HW126345   0.845   5.251  11.883
74857SOL    HW226346   0.833   5.286  11.736
74858SOL     OW26347   3.137   9.082   6.629
74858SOL    HW126348   3.140   8.988   6.613
74858SOL    HW226349   3.071   9.092   6.697
74859SOL     OW26350   5.827   4.858   8.932
74859SOL    HW126351   5.781   4.776   8.916
74859SOL    HW226352   5.919   4.833   8.942
74860SOL     OW26353   1.517   0.979   0.753
74860SOL    HW126354   1.424   1.000   0.743
74860SOL    HW226355   1.556   1.002   0.669
74861SOL     OW26356   8.844  12.491  14.213
74861SOL    HW126357   8.765  12.545  14.213
74861SOL    HW226358   8.812  12.401  14.203
74862SOL     OW26359   6.318   7.556   9.764
74862SOL    HW126360   6.383   7.505   9.813
74862SOL    HW226361   6.351   7.555   9.674
74863SOL     OW26362  10.674  12.612   2.500
74863SOL    HW126363  10.632  12.556   2.565
74863SOL    HW226364  10.689  12.554   2.425
74864SOL     OW26365   1.981   6.651  13.499
74864SOL    HW126366   1.953   6.724  13.443
74864SOL    HW226367   2.007   6.583  13.437
74865SOL     OW26368   6.672   6.859   4.652
74865SOL    HW126369   6.581   6.859   4.621
74865SOL    HW226370   6.665   6.878   4.746
74866SOL     OW26371   7.600  14.707   3.932
74866SOL    HW126372   7.609  14.801   3.913
74866SOL    HW226373   7.632  14.663   3.853
74867SOL     OW26374   6.551  13.559  10.187
74867SOL    HW126375   6.465  13.519  10.181
74867SOL    HW226376   6.590  13.522  10.267
74868SOL     OW26377   9.005  13.942   8.725
74868SOL    HW126378   9.077  14.000   8.697
74868SOL    HW226379   8.993  13.962   8.817
74869SOL     OW26380  11.920  13.286   0.734
74869SOL    HW126381  11.856  13.258   0.800
74869SOL    HW226382  11.905  13.380   0.725
74870SOL     OW26383   9.217  13.207   5.049
74870SOL    HW126384   9.250  13.262   5.119
74870SOL    HW226385   9.161  13.143   5.092
74871SOL     OW26386   1.549  11.052  13.002
74871SOL    HW126387   1.489  11.118  13.038
74871SOL    HW226388   1.575  11.000  13.078
74872SOL     OW26389   9.104   7.612  13.180
74872SOL    HW126390   9.154   7.642  13.256
74872SOL    HW226391   9.061   7.532  13.210
74873SOL     OW26392  13.401   7.607  14.563
74873SOL    HW126393  13.309   7.582  14.571
74873SOL    HW226394  13.429   7.626  14.653
74874SOL     OW26395   2.098  10.870   9.074
74874SOL    HW126396   2.118  10.941   9.135
74874SOL    HW226397   2.173  10.811   9.081
74875SOL     OW26398  10.313  12.507   9.142
74875SOL    HW126399  10.374  12.445   9.181
74875SOL    HW226400  10.337  12.511   9.050
74876SOL     OW26401  10.162  10.509   8.584
74876SOL    HW126402  10.186  10.417   8.573
74876SOL    HW226403  10.108  10.511   8.663
74877SOL     OW26404   8.637   1.735   6.566
74877SOL    HW126405   8.673   1.710   6.481
74877SOL    HW226406   8.585   1.659   6.593
74878SOL     OW26407   2.989  13.565  13.676
74878SOL    HW126408   2.911  13.580  13.622
74878SOL    HW226409   2.965  13.599  13.762
74879SOL     OW26410   5.425   8.354   1.505
74879SOL    HW126411   5.460   8.436   1.541
74879SOL    HW226412   5.360   8.382   1.440
74880SOL     OW26413   2.156   4.817   4.032
74880SOL    HW126414   2.108   4.854   3.959
74880SOL    HW226415   2.090   4.768   4.082
74881SOL     OW26416   4.297   4.915  10.170
74881SOL    HW126417   4.379   4.937  10.216
74881SOL    HW226418   4.326   4.883  10.084
74882SOL     OW26419  13.274   1.983  11.336
74882SOL    HW126420  13.353   2.028  11.366
74882SOL    HW226421  13.249   2.028  11.256
74883SOL     OW26422   5.931   6.924  12.862
74883SOL    HW126423   6.020   6.888  12.857
74883SOL    HW226424   5.874   6.847  12.855
74884SOL     OW26425   3.096   6.401   5.491
74884SOL    HW126426   3.181   6.425   5.453
74884SOL    HW226427   3.091   6.306   5.482
74885SOL     OW26428  13.599  13.768   3.517
74885SOL    HW126429  13.560  13.681   3.507
74885SOL    HW226430  13.679  13.752   3.567
74886SOL     OW26431  10.696   7.115  11.135
74886SOL    HW126432  10.741   7.178  11.079
74886SOL    HW226433  10.631   7.167  11.182
74887SOL     OW26434   8.526  10.017  12.289
74887SOL    HW126435   8.615  10.036  12.319
74887SOL    HW226436   8.532   9.930  12.250
74888SOL     OW26437   9.777   1.157   3.803
74888SOL    HW126438   9.762   1.226   3.869
74888SOL    HW226439   9.787   1.077   3.855
74889SOL     OW26440   9.644  10.857  13.420
74889SOL    HW126441   9.579  10.869  13.351
74889SOL    HW226442   9.691  10.777  13.395
74890SOL     OW26443   8.448   8.027   3.460
74890SOL    HW126444   8.499   8.078   3.398
74890SOL    HW226445   8.426   7.947   3.413
74891SOL     OW26446   6.289   5.306   5.453
74891SOL    HW126447   6.205   5.333   5.491
74891SOL    HW226448   6.279   5.211   5.439
74892SOL     OW26449   1.999   7.337  10.336
74892SOL    HW126450   1.916   7.307  10.374
74892SOL    HW226451   1.990   7.432  10.332
74893SOL     OW26452   9.161   5.846   3.919
74893SOL    HW126453   9.158   5.752   3.902
74893SOL    HW226454   9.129   5.855   4.009
74894SOL     OW26455   9.668   4.698   6.647
74894SOL    HW126456   9.645   4.605   6.650
74894SOL    HW226457   9.650   4.724   6.557
74895SOL     OW26458  10.994   4.582  14.598
74895SOL    HW126459  10.946   4.653  14.555
74895SOL    HW226460  10.993   4.607  14.691
74896SOL     OW26461  11.694   9.568  12.570
74896SOL    HW126462  11.761   9.587  12.504
74896SOL    HW226463  11.695   9.473  12.579
74897SOL     OW26464   4.725   5.875   0.862
74897SOL    HW126465   4.789   5.806   0.845
74897SOL    HW226466   4.768   5.955   0.833
74898SOL     OW26467   3.281  12.930   8.583
74898SOL    HW126468   3.299  13.021   8.561
74898SOL    HW226469   3.367  12.890   8.595
74899SOL     OW26470  11.877   8.557  13.198
74899SOL    HW126471  11.852   8.465  13.211
74899SOL    HW226472  11.943   8.574  13.265
74900SOL     OW26473   8.554   4.434   3.716
74900SOL    HW126474   8.478   4.376   3.710
74900SOL    HW226475   8.557   4.461   3.808
74901SOL     OW26476   6.965  11.334   8.601
74901SOL    HW126477   6.935  11.363   8.687
74901SOL    HW226478   7.060  11.326   8.610
74902SOL     OW26479   2.991  13.338   5.151
74902SOL    HW126480   2.952  13.392   5.082
74902SOL    HW226481   3.067  13.298   5.109
74903SOL     OW26482   7.230   1.297   3.925
74903SOL    HW126483   7.242   1.391   3.935
74903SOL    HW226484   7.205   1.266   4.012
74904SOL     OW26485   5.899   9.324   5.137
74904SOL    HW126486   5.907   9.396   5.073
74904SOL    HW226487   5.808   9.296   5.131
74905SOL     OW26488   8.479   9.878   0.267
74905SOL    HW126489   8.475   9.901   0.360
74905SOL    HW226490   8.571   9.856   0.252
74906SOL     OW26491  10.362   7.366  13.530
74906SOL    HW126492  10.342   7.434  13.595
74906SOL    HW226493  10.372   7.286  13.581
74907SOL     OW26494   9.622   2.814   9.714
74907SOL    HW126495   9.583   2.806   9.801
74907SOL    HW226496   9.676   2.893   9.719
74908SOL     OW26497   9.427   7.742   8.003
74908SOL    HW126498   9.434   7.719   8.096
74908SOL    HW226499   9.398   7.833   8.004
74909SOL     OW26500   1.647  11.465   9.387
74909SOL    HW126501   1.738  11.452   9.412
74909SOL    HW226502   1.638  11.560   9.377
74910SOL     OW26503  11.850   1.028   7.424
74910SOL    HW126504  11.834   1.046   7.332
74910SOL    HW226505  11.922   0.965   7.425
74911SOL     OW26506  13.550  11.696  14.829
74911SOL    HW126507  13.460  11.729  14.829
74911SOL    HW226508  13.552  11.633   0.023
74912SOL     OW26509   5.365   5.345  13.111
74912SOL    HW126510   5.399   5.347  13.021
74912SOL    HW226511   5.406   5.421  13.153
74913SOL     OW26512   3.768   6.381  14.090
74913SOL    HW126513   3.839   6.377  14.154
74913SOL    HW226514   3.714   6.455  14.119
74914SOL     OW26515  12.484   2.203  12.410
74914SOL    HW126516  12.422   2.205  12.337
74914SOL    HW226517  12.525   2.117  12.404
74915SOL     OW26518  10.026   4.631   1.389
74915SOL    HW126519   9.955   4.606   1.448
74915SOL    HW226520  10.086   4.556   1.390
74916SOL     OW26521   7.578  14.546   1.982
74916SOL    HW126522   7.562  14.484   2.053
74916SOL    HW226523   7.497  14.597   1.975
74917SOL     OW26524   4.342   8.622  11.157
74917SOL    HW126525   4.279   8.692  11.141
74917SOL    HW226526   4.318   8.586  11.243
74918SOL     OW26527   3.758  13.083   4.377
74918SOL    HW126528   3.709  13.004   4.398
74918SOL    HW226529   3.814  13.057   4.303
74919SOL     OW26530   5.637   5.803  14.656
74919SOL    HW126531   5.564   5.840  14.606
74919SOL    HW226532   5.673   5.877  14.704
74920SOL     OW26533  10.068   3.620  13.148
74920SOL    HW126534  10.127   3.560  13.103
74920SOL    HW226535  10.121   3.697  13.168
74921SOL     OW26536   9.891   1.768   5.961
74921SOL    HW126537   9.867   1.844   6.014
74921SOL    HW226538   9.808   1.734   5.928
74922SOL     OW26539   1.892  12.482   4.384
74922SOL    HW126540   1.905  12.454   4.475
74922SOL    HW226541   1.978  12.476   4.344
74923SOL     OW26542  12.846   9.392   8.413
74923SOL    HW126543  12.816   9.475   8.449
74923SOL    HW226544  12.939   9.405   8.395
74924SOL     OW26545  14.388   5.668   3.051
74924SOL    HW126546  14.328   5.741   3.060
74924SOL    HW226547  14.387   5.625   3.136
74925SOL     OW26548   8.783   9.089  14.486
74925SOL    HW126549   8.756   9.029  14.417
74925SOL    HW226550   8.805   9.031  14.560
74926SOL     OW26551   4.048   6.423   9.532
74926SOL    HW126552   4.129   6.375   9.514
74926SOL    HW226553   4.025   6.463   9.448
74927SOL     OW26554   4.375   0.404   9.978
74927SOL    HW126555   4.405   0.325   9.932
74927SOL    HW226556   4.418   0.475   9.932
74928SOL     OW26557   9.962   4.975   2.119
74928SOL    HW126558   9.935   4.887   2.146
74928SOL    HW226559   9.890   5.031   2.146
74929SOL     OW26560  12.648   0.737   3.450
74929SOL    HW126561  12.658   0.696   3.364
74929SOL    HW226562  12.668   0.830   3.434
74930SOL     OW26563   5.895  13.861   0.862
74930SOL    HW126564   5.829  13.929   0.845
74930SOL    HW226565   5.969  13.908   0.900
74931SOL     OW26566  13.903   2.306  12.548
74931SOL    HW126567  13.846   2.233  12.523
74931SOL    HW226568  13.991   2.277  12.521
74932SOL     OW26569  12.262   9.654  14.315
74932SOL    HW126570  12.214   9.623  14.392
74932SOL    HW226571  12.197   9.652  14.245
74933SOL     OW26572   0.366   1.491   6.681
74933SOL    HW126573   0.432   1.501   6.750
74933SOL    HW226574   0.355   1.396   6.672
74934SOL     OW26575   0.467  13.430   8.909
74934SOL    HW126576   0.435  13.519   8.921
74934SOL    HW226577   0.389  13.375   8.922
74935SOL     OW26578  12.312  10.007   8.500
74935SOL    HW126579  12.285  10.097   8.521
74935SOL    HW226580  12.284   9.995   8.409
74936SOL     OW26581   0.005   9.620  14.546
74936SOL    HW126582   0.053   9.699  14.519
74936SOL    HW226583   0.005   9.623  14.642
74937SOL     OW26584  13.697  14.787   7.067
74937SOL    HW126585  13.692  14.708   7.013
74937SOL    HW226586  13.606  14.804   7.091
74938SOL     OW26587   0.016   7.159  10.455
74938SOL    HW126588   0.072   7.224  10.413
74938SOL    HW226589   0.045   7.157  10.546
74939SOL     OW26590   1.684   3.643   2.901
74939SOL    HW126591   1.756   3.652   2.839
74939SOL    HW226592   1.605   3.654   2.848
74940SOL     OW26593  13.202  10.159   5.210
74940SOL    HW126594  13.245  10.119   5.285
74940SOL    HW226595  13.260  10.231   5.184
74941SOL     OW26596   1.159   5.968  11.033
74941SOL    HW126597   1.166   6.058  11.003
74941SOL    HW226598   1.091   5.970  11.101
74942SOL     OW26599   1.618   5.401  14.029
74942SOL    HW126600   1.577   5.384  14.113
74942SOL    HW226601   1.601   5.322  13.977
74943SOL     OW26602   9.290   0.816   2.790
74943SOL    HW126603   9.332   0.812   2.876
74943SOL    HW226604   9.308   0.905   2.759
74944SOL     OW26605   2.610   0.903  14.191
74944SOL    HW126606   2.693   0.933  14.228
74944SOL    HW226607   2.625   0.899  14.096
74945SOL     OW26608  12.897   9.245   4.104
74945SOL    HW126609  12.841   9.313   4.065
74945SOL    HW226610  12.911   9.273   4.194
74946SOL     OW26611   5.452   9.250  14.662
74946SOL    HW126612   5.472   9.248  14.755
74946SOL    HW226613   5.413   9.337  14.647
74947SOL     OW26614   7.974   9.460   6.132
74947SOL    HW126615   7.885   9.475   6.163
74947SOL    HW226616   7.999   9.376   6.172
74948SOL     OW26617   5.632  10.414   9.555
74948SOL    HW126618   5.540  10.412   9.529
74948SOL    HW226619   5.635  10.361   9.635
74949SOL     OW26620  11.512   8.148   3.240
74949SOL    HW126621  11.513   8.052   3.241
74949SOL    HW226622  11.431   8.171   3.196
74950SOL     OW26623   9.706   0.889   2.470
74950SOL    HW126624   9.715   0.956   2.537
74950SOL    HW226625   9.620   0.851   2.486
74951SOL     OW26626  12.730  12.524   4.726
74951SOL    HW126627  12.749  12.454   4.663
74951SOL    HW226628  12.660  12.488   4.781
74952SOL     OW26629   0.386   7.342   0.262
74952SOL    HW126630   0.358   7.251   0.275
74952SOL    HW226631   0.385   7.354   0.167
74953SOL     OW26632  11.663   6.611  13.998
74953SOL    HW126633  11.707   6.696  14.000
74953SOL    HW226634  11.573   6.630  14.025
74954SOL     OW26635   4.202  11.028  11.255
74954SOL    HW126636   4.119  11.038  11.300
74954SOL    HW226637   4.245  11.113  11.264
74955SOL     OW26638   2.984   0.983   2.074
74955SOL    HW126639   2.959   0.896   2.043
74955SOL    HW226640   2.995   0.974   2.168
74956SOL     OW26641   1.470   4.636  11.946
74956SOL    HW126642   1.472   4.648  11.851
74956SOL    HW226643   1.498   4.545  11.959
74957SOL     OW26644   5.405  10.946  14.438
74957SOL    HW126645   5.440  10.857  14.434
74957SOL    HW226646   5.377  10.957  14.529
74958SOL     OW26647   9.798   0.121  12.764
74958SOL    HW126648   9.889   0.099  12.785
74958SOL    HW226649   9.757   0.037  12.744
74959SOL     OW26650   9.029   3.823   0.249
74959SOL    HW126651   9.010   3.830   0.155
74959SOL    HW226652   9.019   3.913   0.282
74960SOL     OW26653  12.458  14.479   4.446
74960SOL    HW126654  12.385  14.520   4.400
74960SOL    HW226655  12.485  14.408   4.389
74961SOL     OW26656  10.311  13.576   6.054
74961SOL    HW126657  10.278  13.488   6.076
74961SOL    HW226658  10.236  13.634   6.068
74962SOL     OW26659  10.512   3.987   6.954
74962SOL    HW126660  10.578   3.956   6.893
74962SOL    HW226661  10.495   3.912   7.012
74963SOL     OW26662   5.273   5.521   1.784
74963SOL    HW126663   5.230   5.479   1.709
74963SOL    HW226664   5.202   5.567   1.830
74964SOL     OW26665   7.591   4.361   7.890
74964SOL    HW126666   7.687   4.364   7.880
74964SOL    HW226667   7.558   4.423   7.825
74965SOL     OW26668   5.670   7.015   6.203
74965SOL    HW126669   5.604   7.081   6.186
74965SOL    HW226670   5.678   6.967   6.121
74966SOL     OW26671  11.059   0.476   8.602
74966SOL    HW126672  11.075   0.514   8.515
74966SOL    HW226673  11.057   0.381   8.586
74967SOL     OW26674   2.129   7.627  10.981
74967SOL    HW126675   2.092   7.697  10.927
74967SOL    HW226676   2.198   7.589  10.926
74968SOL     OW26677  14.047  11.785  13.693
74968SOL    HW126678  14.045  11.879  13.674
74968SOL    HW226679  13.960  11.765  13.726
74969SOL     OW26680  14.393   7.432   2.248
74969SOL    HW126681  14.384   7.363   2.314
74969SOL    HW226682  14.455   7.397   2.185
74970SOL     OW26683   1.382  10.374   6.538
74970SOL    HW126684   1.396  10.457   6.584
74970SOL    HW226685   1.373  10.309   6.608
74971SOL     OW26686   5.896   1.882   1.076
74971SOL    HW126687   5.909   1.898   1.169
74971SOL    HW226688   5.910   1.968   1.035
74972SOL     OW26689   2.785   9.215  14.739
74972SOL    HW126690   2.851   9.212  14.670
74972SOL    HW226691   2.701   9.210  14.694
74973SOL     OW26692   0.723  12.214   9.835
74973SOL    HW126693   0.660  12.254   9.774
74973SOL    HW226694   0.688  12.235   9.922
74974SOL     OW26695  11.082   1.287  11.613
74974SOL    HW126696  11.055   1.284  11.704
74974SOL    HW226697  11.066   1.199  11.580
74975SOL     OW26698   3.460   3.206  13.335
74975SOL    HW126699   3.412   3.167  13.408
74975SOL    HW226700   3.459   3.300  13.353
74976SOL     OW26701   8.802   0.475   4.736
74976SOL    HW126702   8.722   0.471   4.684
74976SOL    HW226703   8.866   0.515   4.678
74977SOL     OW26704  13.941  13.509  14.837
74977SOL    HW126705  14.003  13.580  14.819
74977SOL    HW226706  13.864  13.553  14.871
74978SOL     OW26707   4.298   9.068   9.351
74978SOL    HW126708   4.288   9.016   9.271
74978SOL    HW226709   4.387   9.102   9.347
74979SOL     OW26710   0.749   1.213   7.675
74979SOL    HW126711   0.747   1.296   7.722
74979SOL    HW226712   0.840   1.200   7.651
74980SOL     OW26713  10.463   4.940   9.198
74980SOL    HW126714  10.441   4.999   9.127
74980SOL    HW226715  10.498   4.862   9.154
74981SOL     OW26716   3.265   0.441   8.420
74981SOL    HW126717   3.195   0.380   8.399
74981SOL    HW226718   3.233   0.526   8.391
74982SOL     OW26719  11.037   1.614  14.533
74982SOL    HW126720  11.045   1.684  14.598
74982SOL    HW226721  10.950   1.577  14.547
74983SOL     OW26722   6.324  13.037   2.381
74983SOL    HW126723   6.293  13.047   2.471
74983SOL    HW226724   6.416  13.061   2.384
74984SOL     OW26725   4.179  10.082   7.577
74984SOL    HW126726   4.242  10.012   7.558
74984SOL    HW226727   4.119  10.044   7.641
74985SOL     OW26728   4.390   6.105   6.831
74985SOL    HW126729   4.459   6.040   6.820
74985SOL    HW226730   4.331   6.090   6.757
74986SOL     OW26731   0.464  10.218  13.195
74986SOL    HW126732   0.386  10.163  13.201
74986SOL    HW226733   0.536  10.160  13.221
74987SOL     OW26734  11.157   4.661   4.734
74987SOL    HW126735  11.192   4.713   4.807
74987SOL    HW226736  11.161   4.720   4.659
74988SOL     OW26737  12.928   9.712  10.379
74988SOL    HW126738  12.858   9.664  10.335
74988SOL    HW226739  13.009   9.673  10.345
74989SOL     OW26740  12.563   7.399  12.451
74989SOL    HW126741  12.602   7.312  12.455
74989SOL    HW226742  12.473   7.384  12.420
74990SOL     OW26743   4.524   1.850  11.197
74990SOL    HW126744   4.585   1.837  11.269
74990SOL    HW226745   4.444   1.883  11.239
74991SOL     OW26746   2.968   2.441   5.226
74991SOL    HW126747   2.952   2.347   5.236
74991SOL    HW226748   2.995   2.451   5.134
74992SOL     OW26749  12.646  13.550   0.572
74992SOL    HW126750  12.552  13.558   0.589
74992SOL    HW226751  12.653  13.475   0.512
74993SOL     OW26752   9.068   0.855   1.530
74993SOL    HW126753   8.984   0.886   1.498
74993SOL    HW226754   9.129   0.870   1.458
74994SOL     OW26755   4.694  14.384  13.201
74994SOL    HW126756   4.771  14.366  13.147
74994SOL    HW226757   4.659  14.297  13.222
74995SOL     OW26758   4.788   8.594   5.348
74995SOL    HW126759   4.727   8.644   5.403
74995SOL    HW226760   4.875   8.622   5.377
74996SOL     OW26761   2.569   9.562  13.315
74996SOL    HW126762   2.633   9.494  13.336
74996SOL    HW226763   2.615   9.644  13.331
74997SOL     OW26764  10.937   6.000   8.485
74997SOL    HW126765  11.025   6.001   8.524
74997SOL    HW226766  10.878   6.003   8.560
74998SOL     OW26767   1.230   3.047  14.631
74998SOL    HW126768   1.297   3.030  14.697
74998SOL    HW226769   1.236   3.141  14.615
74999SOL     OW26770   3.015  12.185   2.175
74999SOL    HW126771   3.026  12.092   2.158
74999SOL    HW226772   2.938  12.191   2.231
75000SOL     OW26773  13.164  10.450   3.933
75000SOL    HW126774  13.136  10.482   3.847
75000SOL    HW226775  13.248  10.494   3.948
75001SOL     OW26776  13.519   3.257  13.216
75001SOL    HW126777  13.612   3.233  13.212
75001SOL    HW226778  13.487   3.244  13.127
75002SOL     OW26779   5.291  12.658   4.828
75002SOL    HW126780   5.287  12.754   4.824
75002SOL    HW226781   5.224  12.629   4.767
75003SOL     OW26782   7.881  14.458   1.589
75003SOL    HW126783   7.931  14.443   1.508
75003SOL    HW226784   7.816  14.388   1.591
75004SOL     OW26785   8.184   7.881   9.633
75004SOL    HW126786   8.251   7.926   9.685
75004SOL    HW226787   8.219   7.793   9.620
75005SOL     OW26788  13.880   8.297   5.111
75005SOL    HW126789  13.964   8.264   5.080
75005SOL    HW226790  13.869   8.257   5.198
75006SOL     OW26791   5.268   9.768   1.806
75006SOL    HW126792   5.307   9.851   1.834
75006SOL    HW226793   5.197   9.753   1.868
75007SOL     OW26794   2.049  14.408   0.344
75007SOL    HW126795   2.003  14.428   0.425
75007SOL    HW226796   2.086  14.492   0.316
75008SOL     OW26797   6.192   3.798  13.410
75008SOL    HW126798   6.226   3.710  13.424
75008SOL    HW226799   6.110   3.785  13.364
75009SOL     OW26800  12.411   4.387   7.835
75009SOL    HW126801  12.367   4.431   7.909
75009SOL    HW226802  12.417   4.455   7.768
75010SOL     OW26803   4.747   1.811   3.629
75010SOL    HW126804   4.793   1.894   3.638
75010SOL    HW226805   4.802   1.747   3.674
75011SOL     OW26806  10.663   4.596   0.077
75011SOL    HW126807  10.690   4.656   0.007
75011SOL    HW226808  10.724   4.613   0.149
75012SOL     OW26809  14.179   8.975   0.033
75012SOL    HW126810  14.233   8.941  14.839
75012SOL    HW226811  14.090   8.976  14.876
75013SOL     OW26812   1.325   9.581  11.432
75013SOL    HW126813   1.299   9.489  11.431
75013SOL    HW226814   1.405   9.584  11.379
75014SOL     OW26815  12.040   6.582  11.872
75014SOL    HW126816  12.027   6.607  11.781
75014SOL    HW226817  11.992   6.648  11.922
75015SOL     OW26818  12.113   3.228   6.287
75015SOL    HW126819  12.196   3.275   6.283
75015SOL    HW226820  12.054   3.279   6.231
75016SOL     OW26821   0.764  12.165  10.690
75016SOL    HW126822   0.825  12.125  10.628
75016SOL    HW226823   0.803  12.149  10.776
75017SOL     OW26824   0.587   6.484   8.003
75017SOL    HW126825   0.495   6.470   8.027
75017SOL    HW226826   0.584   6.502   7.909
75018SOL     OW26827   5.966  12.833   0.760
75018SOL    HW126828   5.881  12.869   0.785
75018SOL    HW226829   6.016  12.832   0.842
75019SOL     OW26830   2.025   2.822   3.924
75019SOL    HW126831   1.970   2.820   4.003
75019SOL    HW226832   1.964   2.805   3.852
75020SOL     OW26833   6.678   1.117   8.174
75020SOL    HW126834   6.669   1.204   8.136
75020SOL    HW226835   6.589   1.090   8.195
75021SOL     OW26836  13.126   5.749   5.583
75021SOL    HW126837  13.079   5.669   5.606
75021SOL    HW226838  13.163   5.780   5.666
75022SOL     OW26839  11.969   3.362   6.099
75022SOL    HW126840  11.914   3.296   6.059
75022SOL    HW226841  11.915   3.441   6.101
75023SOL     OW26842   7.805   9.387   7.093
75023SOL    HW126843   7.872   9.446   7.128
75023SOL    HW226844   7.848   9.301   7.090
75024SOL     OW26845  11.980  10.408   6.393
75024SOL    HW126846  12.023  10.412   6.478
75024SOL    HW226847  12.001  10.492   6.352
75025SOL     OW26848   5.729   8.923   9.279
75025SOL    HW126849   5.812   8.971   9.276
75025SOL    HW226850   5.678   8.958   9.206
75026SOL     OW26851  12.192  14.316  11.555
75026SOL    HW126852  12.192  14.295  11.648
75026SOL    HW226853  12.282  14.340  11.535
75027SOL     OW26854   0.058  13.235   6.308
75027SOL    HW126855   0.006  13.310   6.338
75027SOL    HW226856   0.000  13.160   6.319
75028SOL     OW26857   4.607   5.455   0.761
75028SOL    HW126858   4.620   5.417   0.848
75028SOL    HW226859   4.652   5.395   0.702
75029SOL     OW26860  12.401   2.404  12.172
75029SOL    HW126861  12.408   2.446  12.258
75029SOL    HW226862  12.362   2.319  12.190
75030SOL     OW26863  14.229  12.391   8.794
75030SOL    HW126864  14.318  12.388   8.761
75030SOL    HW226865  14.238  12.430   8.882
75031SOL     OW26866   1.633   4.690   6.708
75031SOL    HW126867   1.722   4.677   6.674
75031SOL    HW226868   1.612   4.780   6.685
75032SOL     OW26869   0.989  11.542   1.501
75032SOL    HW126870   0.918  11.531   1.438
75032SOL    HW226871   1.009  11.636   1.499
75033SOL     OW26872  12.543   5.626   8.769
75033SOL    HW126873  12.575   5.682   8.839
75033SOL    HW226874  12.483   5.682   8.719
75034SOL     OW26875  13.494  10.230  13.067
75034SOL    HW126876  13.434  10.262  13.000
75034SOL    HW226877  13.548  10.305  13.089
75035SOL     OW26878  12.143   4.107   2.314
75035SOL    HW126879  12.156   4.068   2.400
75035SOL    HW226880  12.174   4.198   2.323
75036SOL     OW26881  10.444  13.646   4.753
75036SOL    HW126882  10.432  13.730   4.798
75036SOL    HW226883  10.411  13.581   4.814
75037SOL     OW26884   0.194   8.757   9.855
75037SOL    HW126885   0.242   8.680   9.884
75037SOL    HW226886   0.169   8.738   9.764
75038SOL     OW26887   1.227   3.642   5.570
75038SOL    HW126888   1.166   3.586   5.618
75038SOL    HW226889   1.207   3.731   5.601
75039SOL     OW26890  13.514   9.131   7.879
75039SOL    HW126891  13.570   9.208   7.886
75039SOL    HW226892  13.496   9.123   7.785
75040SOL     OW26893   5.363  13.520  12.799
75040SOL    HW126894   5.315  13.509  12.881
75040SOL    HW226895   5.296  13.526  12.732
75041SOL     OW26896  12.733   5.772   4.934
75041SOL    HW126897  12.685   5.705   4.982
75041SOL    HW226898  12.808   5.792   4.990
75042SOL     OW26899   1.330   0.453  11.499
75042SOL    HW126900   1.334   0.388  11.429
75042SOL    HW226901   1.391   0.521  11.472
75043SOL     OW26902   5.863   2.002   8.460
75043SOL    HW126903   5.844   2.074   8.520
75043SOL    HW226904   5.937   1.956   8.500
75044SOL     OW26905   7.695   4.158   1.806
75044SOL    HW126906   7.763   4.210   1.762
75044SOL    HW226907   7.724   4.067   1.796
75045SOL     OW26908   8.890   1.716   0.054
75045SOL    HW126909   8.959   1.781   0.070
75045SOL    HW226910   8.854   1.740  14.846
75046SOL     OW26911   5.822   5.450   6.405
75046SOL    HW126912   5.837   5.415   6.493
75046SOL    HW226913   5.790   5.539   6.420
75047SOL     OW26914  12.935   1.726   5.570
75047SOL    HW126915  12.927   1.680   5.653
75047SOL    HW226916  12.844   1.743   5.543
75048SOL     OW26917   1.852  11.927   9.411
75048SOL    HW126918   1.922  11.894   9.468
75048SOL    HW226919   1.880  12.015   9.387
75049SOL     OW26920   4.331   1.988  12.539
75049SOL    HW126921   4.387   1.911  12.547
75049SOL    HW226922   4.244   1.951  12.521
75050SOL     OW26923   6.371  13.872  10.192
75050SOL    HW126924   6.372  13.822  10.111
75050SOL    HW226925   6.462  13.902  10.203
75051SOL     OW26926  14.809  12.288   9.926
75051SOL    HW126927  14.846  12.376   9.936
75051SOL    HW226928  14.784  12.263  10.015
75052SOL     OW26929  12.917   2.593   0.055
75052SOL    HW126930  12.957   2.508   0.073
75052SOL    HW226931  12.946   2.614  14.844
75053SOL     OW26932  10.369   2.876   5.318
75053SOL    HW126933  10.361   2.845   5.228
75053SOL    HW226934  10.433   2.817   5.358
75054SOL     OW26935   4.491   3.889  10.977
75054SOL    HW126936   4.580   3.926  10.977
75054SOL    HW226937   4.475   3.867  10.885
75055SOL     OW26938  12.649   5.090   5.772
75055SOL    HW126939  12.664   5.016   5.830
75055SOL    HW226940  12.572   5.134   5.808
75056SOL     OW26941   1.296  10.483   9.244
75056SOL    HW126942   1.311  10.577   9.240
75056SOL    HW226943   1.219  10.468   9.189
75057SOL     OW26944   4.140   1.250  12.660
75057SOL    HW126945   4.050   1.274  12.683
75057SOL    HW226946   4.183   1.233  12.744
75058SOL     OW26947   0.469   6.803   2.014
75058SOL    HW126948   0.432   6.737   2.072
75058SOL    HW226949   0.559   6.814   2.043
75059SOL     OW26950   0.344   8.477  10.680
75059SOL    HW126951   0.404   8.550  10.698
75059SOL    HW226952   0.277   8.515  10.624
75060SOL     OW26953  14.684   5.237  10.539
75060SOL    HW126954  14.652   5.274  10.621
75060SOL    HW226955  14.604   5.213  10.491
75061SOL     OW26956  13.849  14.865   9.039
75061SOL    HW126957  13.829   0.030   8.956
75061SOL    HW226958  13.767  14.824   9.065
75062SOL     OW26959   8.955  13.930   4.402
75062SOL    HW126960   8.989  13.896   4.485
75062SOL    HW226961   9.033  13.941   4.347
75063SOL     OW26962   2.402   6.867   5.770
75063SOL    HW126963   2.365   6.779   5.776
75063SOL    HW226964   2.417   6.880   5.677
75064SOL     OW26965   0.230  12.009   6.875
75064SOL    HW126966   0.161  11.951   6.846
75064SOL    HW226967   0.270  12.042   6.795
75065SOL     OW26968  10.218  11.590   6.086
75065SOL    HW126969  10.223  11.640   6.004
75065SOL    HW226970  10.239  11.500   6.060
75066SOL     OW26971   0.966   1.608   5.514
75066SOL    HW126972   0.947   1.661   5.592
75066SOL    HW226973   0.925   1.657   5.442
75067SOL     OW26974   4.384  14.327  12.582
75067SOL    HW126975   4.397  14.411  12.625
75067SOL    HW226976   4.315  14.343  12.517
75068SOL     OW26977   0.894   1.239   5.661
75068SOL    HW126978   0.848   1.245   5.577
75068SOL    HW226979   0.859   1.159   5.701
75069SOL     OW26980   9.979  11.387   1.182
75069SOL    HW126981   9.964  11.367   1.090
75069SOL    HW226982   9.896  11.365   1.224
75070SOL     OW26983   6.101   0.655   3.573
75070SOL    HW126984   6.149   0.731   3.542
75070SOL    HW226985   6.159   0.614   3.637
75071SOL     OW26986   1.145  14.596   6.283
75071SOL    HW126987   1.067  14.555   6.320
75071SOL    HW226988   1.115  14.633   6.200
75072SOL     OW26989   1.016  10.898   9.097
75072SOL    HW126990   0.973  10.918   9.180
75072SOL    HW226991   0.961  10.830   9.058
75073SOL     OW26992  12.094   9.803   4.380
75073SOL    HW126993  12.052   9.885   4.409
75073SOL    HW226994  12.172   9.832   4.333
75074SOL     OW26995   0.590   9.683   8.365
75074SOL    HW126996   0.582   9.726   8.280
75074SOL    HW226997   0.544   9.741   8.426
75075SOL     OW26998  12.989  13.885  14.648
75075SOL    HW126999  13.078  13.882  14.613
75075SOL    HW227000  12.993  13.833  14.728
75076SOL     OW27001  11.176  11.245   3.894
75076SOL    HW127002  11.159  11.329   3.937
75076SOL    HW227003  11.194  11.268   3.803
75077SOL     OW27004  10.675   5.275   1.182
75077SOL    HW127005  10.630   5.193   1.163
75077SOL    HW227006  10.635   5.339   1.124
75078SOL     OW27007   2.105  10.041   7.893
75078SOL    HW127008   2.073   9.998   7.814
75078SOL    HW227009   2.163  10.110   7.861
75079SOL     OW27010   4.664   5.382  12.736
75079SOL    HW127011   4.692   5.458  12.787
75079SOL    HW227012   4.715   5.388  12.655
75080SOL     OW27013   5.348   3.263   1.487
75080SOL    HW127014   5.386   3.179   1.464
75080SOL    HW227015   5.255   3.245   1.501
75081SOL     OW27016   2.124  10.662   1.289
75081SOL    HW127017   2.199  10.670   1.231
75081SOL    HW227018   2.159  10.679   1.376
75082SOL     OW27019  11.381   3.648   7.582
75082SOL    HW127020  11.390   3.621   7.673
75082SOL    HW227021  11.382   3.743   7.585
75083SOL     OW27022   5.755   7.792   5.852
75083SOL    HW127023   5.740   7.824   5.763
75083SOL    HW227024   5.805   7.712   5.841
75084SOL     OW27025  11.210   5.513   0.717
75084SOL    HW127026  11.192   5.421   0.734
75084SOL    HW227027  11.296   5.529   0.756
75085SOL     OW27028  11.281  14.225   6.584
75085SOL    HW127029  11.368  14.255   6.558
75085SOL    HW227030  11.261  14.155   6.522
75086SOL     OW27031  12.901  12.837   6.900
75086SOL    HW127032  12.828  12.777   6.916
75086SOL    HW227033  12.858  12.919   6.874
75087SOL     OW27034   4.491   2.526  10.301
75087SOL    HW127035   4.494   2.619  10.323
75087SOL    HW227036   4.471   2.525  10.207
75088SOL     OW27037   8.646   9.617  12.555
75088SOL    HW127038   8.635   9.562  12.478
75088SOL    HW227039   8.731   9.592  12.590
75089SOL     OW27040  13.990   4.633  12.251
75089SOL    HW127041  14.011   4.591  12.168
75089SOL    HW227042  14.035   4.717  12.247
75090SOL     OW27043  10.605  10.530   4.818
75090SOL    HW127044  10.589  10.454   4.874
75090SOL    HW227045  10.526  10.537   4.764
75091SOL     OW27046   3.542   5.080  13.625
75091SOL    HW127047   3.594   5.154  13.595
75091SOL    HW227048   3.578   5.004  13.580
75092SOL     OW27049  10.602   8.706   6.150
75092SOL    HW127050  10.602   8.633   6.211
75092SOL    HW227051  10.579   8.782   6.204
75093SOL     OW27052  13.174   9.723  14.843
75093SOL    HW127053  13.185   9.763   0.051
75093SOL    HW227054  13.080   9.708  14.835
75094SOL     OW27055   9.120   4.904   2.639
75094SOL    HW127056   9.091   4.973   2.580
75094SOL    HW227057   9.072   4.826   2.610
75095SOL     OW27058   7.347   5.439  11.272
75095SOL    HW127059   7.315   5.349  11.280
75095SOL    HW227060   7.392   5.441  11.187
75096SOL     OW27061  10.599   9.548  14.228
75096SOL    HW127062  10.626   9.548  14.320
75096SOL    HW227063  10.505   9.565  14.231
75097SOL     OW27064   7.137   1.941   9.385
75097SOL    HW127065   7.196   2.016   9.393
75097SOL    HW227066   7.190   1.867   9.414
75098SOL     OW27067  14.359  11.646   0.868
75098SOL    HW127068  14.306  11.713   0.823
75098SOL    HW227069  14.297  11.575   0.885
75099SOL     OW27070   3.671  12.918   3.008
75099SOL    HW127071   3.601  12.859   2.980
75099SOL    HW227072   3.681  12.979   2.935
75100SOL     OW27073  12.495   1.609   9.673
75100SOL    HW127074  12.500   1.652   9.588
75100SOL    HW227075  12.487   1.516   9.652
75101SOL     OW27076  14.028  12.114  12.432
75101SOL    HW127077  13.942  12.078  12.454
75101SOL    HW227078  14.009  12.186  12.371
75102SOL     OW27079  10.563   3.939  10.729
75102SOL    HW127080  10.572   3.989  10.649
75102SOL    HW227081  10.556   3.848  10.700
75103SOL     OW27082   0.073   9.461   7.454
75103SOL    HW127083   0.073   9.544   7.502
75103SOL    HW227084   0.005   9.409   7.497
75104SOL     OW27085   6.945   2.376   2.502
75104SOL    HW127086   6.964   2.298   2.450
75104SOL    HW227087   7.030   2.405   2.534
75105SOL     OW27088   9.130  10.998  12.806
75105SOL    HW127089   9.196  10.953  12.753
75105SOL    HW227090   9.158  11.090  12.807
75106SOL     OW27091   2.975   7.399   0.699
75106SOL    HW127092   2.989   7.370   0.609
75106SOL    HW227093   2.988   7.494   0.696
75107SOL     OW27094  10.408   0.185  10.015
75107SOL    HW127095  10.468   0.125  10.060
75107SOL    HW227096  10.422   0.270  10.057
75108SOL     OW27097  12.952   6.235   5.385
75108SOL    HW127098  13.047   6.239   5.397
75108SOL    HW227099  12.917   6.226   5.473
75109SOL     OW27100   6.296   8.303   0.025
75109SOL    HW127101   6.296   8.216   0.065
75109SOL    HW227102   6.383   8.338   0.044
75110SOL     OW27103   8.048  14.197   4.872
75110SOL    HW127104   8.066  14.131   4.940
75110SOL    HW227105   7.979  14.251   4.909
75111SOL     OW27106   0.054  13.325   1.084
75111SOL    HW127107   0.006  13.277   1.151
75111SOL    HW227108  14.864  13.367   1.031
75112SOL     OW27109  12.672   7.147   6.522
75112SOL    HW127110  12.690   7.115   6.433
75112SOL    HW227111  12.655   7.068   6.572
75113SOL     OW27112  10.408   5.161   2.077
75113SOL    HW127113  10.442   5.225   2.139
75113SOL    HW227114  10.324   5.134   2.114
75114SOL     OW27115   1.072  11.253   5.845
75114SOL    HW127116   1.002  11.301   5.801
75114SOL    HW227117   1.048  11.256   5.938
75115SOL     OW27118   9.439  12.399   8.880
75115SOL    HW127119   9.396  12.475   8.918
75115SOL    HW227120   9.497  12.366   8.949
75116SOL     OW27121  13.590  12.704   8.219
75116SOL    HW127122  13.661  12.759   8.184
75116SOL    HW227123  13.635  12.638   8.271
75117SOL     OW27124  12.091  14.053  10.160
75117SOL    HW127125  12.136  14.063  10.076
75117SOL    HW227126  12.079  13.959  10.170
75118SOL     OW27127   4.977  14.346  13.073
75118SOL    HW127128   4.948  14.275  13.017
75118SOL    HW227129   5.061  14.318  13.107
75119SOL     OW27130  11.536   8.016  10.380
75119SOL    HW127131  11.441   8.005  10.383
75119SOL    HW227132  11.565   8.003  10.470
75120SOL     OW27133   9.355  11.549   3.994
75120SOL    HW127134   9.288  11.616   3.984
75120SOL    HW227135   9.408  11.555   3.915
75121SOL     OW27136  14.655  13.653   9.352
75121SOL    HW127137  14.734  13.691   9.314
75121SOL    HW227138  14.687  13.581   9.406
75122SOL     OW27139  12.785   3.052   6.940
75122SOL    HW127140  12.716   3.022   6.879
75122SOL    HW227141  12.836   3.115   6.889
75123SOL     OW27142   1.627   5.482  11.492
75123SOL    HW127143   1.664   5.396  11.510
75123SOL    HW227144   1.601   5.515  11.579
75124SOL     OW27145   1.053  13.654   5.591
75124SOL    HW127146   1.140  13.657   5.632
75124SOL    HW227147   1.053  13.572   5.543
75125SOL     OW27148   8.082   2.620   7.306
75125SOL    HW127149   8.031   2.646   7.383
75125SOL    HW227150   8.016   2.607   7.237
75126SOL     OW27151   1.266  10.177   6.365
75126SOL    HW127152   1.346  10.127   6.379
75126SOL    HW227153   1.288  10.266   6.392
75127SOL     OW27154   1.855   3.011   9.795
75127SOL    HW127155   1.781   3.016   9.854
75127SOL    HW227156   1.828   2.948   9.728
75128SOL     OW27157   6.525  10.554  11.743
75128SOL    HW127158   6.564  10.588  11.662
75128SOL    HW227159   6.582  10.587  11.812
75129SOL     OW27160  14.490   9.741   0.387
75129SOL    HW127161  14.501   9.647   0.400
75129SOL    HW227162  14.562   9.766   0.328
75130SOL     OW27163  13.547  11.653  11.911
75130SOL    HW127164  13.555  11.574  11.858
75130SOL    HW227165  13.633  11.695  11.905
75131SOL     OW27166  11.570   1.588   5.602
75131SOL    HW127167  11.644   1.558   5.549
75131SOL    HW227168  11.541   1.510   5.648
75132SOL     OW27169  13.906   2.192   6.453
75132SOL    HW127170  13.862   2.134   6.392
75132SOL    HW227171  13.931   2.268   6.401
75133SOL     OW27172   4.127   9.837  13.185
75133SOL    HW127173   4.146   9.783  13.262
75133SOL    HW227174   4.032   9.843  13.183
75134SOL     OW27175   7.523   1.473   6.078
75134SOL    HW127176   7.465   1.471   6.001
75134SOL    HW227177   7.496   1.552   6.125
75135SOL     OW27178   5.060   7.823  12.766
75135SOL    HW127179   5.155   7.832  12.773
75135SOL    HW227180   5.045   7.730  12.751
75136SOL     OW27181   9.064   9.257  14.414
75136SOL    HW127182   9.078   9.297  14.328
75136SOL    HW227183   9.028   9.170  14.394
75137SOL     OW27184   1.688   3.240  10.964
75137SOL    HW127185   1.750   3.168  10.957
75137SOL    HW227186   1.712   3.286  11.044
75138SOL     OW27187   0.861   8.051   9.012
75138SOL    HW127188   0.947   8.051   9.053
75138SOL    HW227189   0.804   8.095   9.076
75139SOL     OW27190  11.231  11.758   2.797
75139SOL    HW127191  11.218  11.664   2.782
75139SOL    HW227192  11.307  11.763   2.855
75140SOL     OW27193  13.412  11.770  12.598
75140SOL    HW127194  13.506  11.771  12.578
75140SOL    HW227195  13.370  11.775  12.513
75141SOL     OW27196   3.897   6.193  13.550
75141SOL    HW127197   3.904   6.174  13.456
75141SOL    HW227198   3.959   6.132  13.591
75142SOL     OW27199   2.064   2.183   8.309
75142SOL    HW127200   2.043   2.191   8.216
75142SOL    HW227201   2.123   2.257   8.326
75143SOL     OW27202   4.315  13.661   1.815
75143SOL    HW127203   4.375  13.684   1.743
75143SOL    HW227204   4.248  13.729   1.811
75144SOL     OW27205  14.041  14.383  12.814
75144SOL    HW127206  14.056  14.476  12.833
75144SOL    HW227207  14.056  14.376  12.719
75145SOL     OW27208  12.594   4.205   2.340
75145SOL    HW127209  12.551   4.288   2.359
75145SOL    HW227210  12.667   4.202   2.402
75146SOL     OW27211   2.155   3.849   6.928
75146SOL    HW127212   2.149   3.863   6.833
75146SOL    HW227213   2.121   3.930   6.966
75147SOL     OW27214   6.822   3.716  13.053
75147SOL    HW127215   6.746   3.766  13.085
75147SOL    HW227216   6.897   3.767  13.083
75148SOL     OW27217   1.483   6.218   9.671
75148SOL    HW127218   1.545   6.265   9.615
75148SOL    HW227219   1.518   6.229   9.759
75149SOL     OW27220  13.116  10.918  14.007
75149SOL    HW127221  13.069  10.986  13.959
75149SOL    HW227222  13.164  10.966  14.075
75150SOL     OW27223   2.739   0.087   8.922
75150SOL    HW127224   2.833   0.104   8.926
75150SOL    HW227225   2.707   0.147   8.855
75151SOL     OW27226   4.885  11.104   1.464
75151SOL    HW127227   4.959  11.091   1.404
75151SOL    HW227228   4.911  11.058   1.544
75152SOL     OW27229  14.119   7.743   0.071
75152SOL    HW127230  14.163   7.827   0.081
75152SOL    HW227231  14.159   7.686   0.137
75153SOL     OW27232  10.206   4.211  10.983
75153SOL    HW127233  10.297   4.239  10.997
75153SOL    HW227234  10.212   4.146  10.913
75154SOL     OW27235   2.192   0.761   1.215
75154SOL    HW127236   2.135   0.696   1.174
75154SOL    HW227237   2.280   0.723   1.211
75155SOL     OW27238  12.290  12.959  14.702
75155SOL    HW127239  12.239  12.962  14.621
75155SOL    HW227240  12.340  13.041  14.701
75156SOL     OW27241  10.671   2.751   9.906
75156SOL    HW127242  10.713   2.804   9.974
75156SOL    HW227243  10.586   2.727   9.943
75157SOL     OW27244  12.039   4.232   1.282
75157SOL    HW127245  11.989   4.184   1.348
75157SOL    HW227246  12.112   4.271   1.331
75158SOL     OW27247   3.888   1.486   2.176
75158SOL    HW127248   3.921   1.532   2.253
75158SOL    HW227249   3.906   1.394   2.195
75159SOL     OW27250  12.018   4.629   0.424
75159SOL    HW127251  12.097   4.575   0.411
75159SOL    HW227252  11.946   4.567   0.420
75160SOL     OW27253  14.169   4.015   5.316
75160SOL    HW127254  14.195   3.926   5.291
75160SOL    HW227255  14.145   4.008   5.408
75161SOL     OW27256   1.351  12.023   7.304
75161SOL    HW127257   1.291  12.086   7.263
75161SOL    HW227258   1.312  12.007   7.391
75162SOL     OW27259   6.438   7.316   2.099
75162SOL    HW127260   6.407   7.401   2.066
75162SOL    HW227261   6.477   7.336   2.184
75163SOL     OW27262   3.183   3.533   1.870
75163SOL    HW127263   3.254   3.583   1.830
75163SOL    HW227264   3.122   3.516   1.798
75164SOL     OW27265   9.301   7.330  13.437
75164SOL    HW127266   9.230   7.358  13.494
75164SOL    HW227267   9.334   7.411  13.399
75165SOL     OW27268  14.856   1.915  12.109
75165SOL    HW127269  14.777   1.866  12.085
75165SOL    HW227270  14.857   1.914  12.205
75166SOL     OW27271   7.812   6.590   1.871
75166SOL    HW127272   7.867   6.643   1.928
75166SOL    HW227273   7.872   6.529   1.828
75167SOL     OW27274   8.223  10.429   5.618
75167SOL    HW127275   8.290  10.374   5.578
75167SOL    HW227276   8.141  10.382   5.603
75168SOL     OW27277  10.147  11.062   9.837
75168SOL    HW127278  10.132  11.154   9.858
75168SOL    HW227279  10.111  11.015   9.912
75169SOL     OW27280  13.094   7.196  10.141
75169SOL    HW127281  13.045   7.202  10.223
75169SOL    HW227282  13.170   7.142  10.162
75170SOL     OW27283   0.338  11.584   7.460
75170SOL    HW127284   0.354  11.623   7.374
75170SOL    HW227285   0.259  11.628   7.491
75171SOL     OW27286  13.316  12.948  13.427
75171SOL    HW127287  13.278  12.860  13.427
75171SOL    HW227288  13.270  12.994  13.498
75172SOL     OW27289  14.380  13.326   3.126
75172SOL    HW127290  14.306  13.308   3.068
75172SOL    HW227291  14.407  13.415   3.104
75173SOL     OW27292   7.580  11.967   8.020
75173SOL    HW127293   7.625  12.010   8.092
75173SOL    HW227294   7.629  11.994   7.941
75174SOL     OW27295   7.822   1.632   7.779
75174SOL    HW127296   7.873   1.675   7.847
75174SOL    HW227297   7.823   1.694   7.706
75175SOL     OW27298   5.757   6.676   0.946
75175SOL    HW127299   5.841   6.642   0.915
75175SOL    HW227300   5.779   6.733   1.019
75176SOL     OW27301   0.786   3.853   3.299
75176SOL    HW127302   0.879   3.843   3.319
75176SOL    HW227303   0.764   3.777   3.245
75177SOL     OW27304   4.262   0.377  14.244
75177SOL    HW127305   4.232   0.322  14.172
75177SOL    HW227306   4.343   0.417  14.212
75178SOL     OW27307  12.816  12.691   2.553
75178SOL    HW127308  12.748  12.635   2.590
75178SOL    HW227309  12.832  12.757   2.621
75179SOL     OW27310   0.176   2.969   5.194
75179SOL    HW127311   0.212   2.903   5.135
75179SOL    HW227312   0.167   2.924   5.278
75180SOL     OW27313   2.546  12.171   5.545
75180SOL    HW127314   2.503  12.088   5.522
75180SOL    HW227315   2.597  12.194   5.468
75181SOL     OW27316  12.588  13.440   5.437
75181SOL    HW127317  12.643  13.509   5.399
75181SOL    HW227318  12.564  13.385   5.362
75182SOL     OW27319  12.535   2.358   8.137
75182SOL    HW127320  12.456   2.398   8.102
75182SOL    HW227321  12.526   2.264   8.118
75183SOL     OW27322   3.816   8.161   3.454
75183SOL    HW127323   3.740   8.170   3.396
75183SOL    HW227324   3.814   8.240   3.508
75184SOL     OW27325   9.434   6.059   5.994
75184SOL    HW127326   9.344   6.083   5.971
75184SOL    HW227327   9.485   6.138   5.978
75185SOL     OW27328   0.154   4.238  12.171
75185SOL    HW127329   0.248   4.219  12.168
75185SOL    HW227330   0.146   4.309  12.234
75186SOL     OW27331   2.629   0.030   1.576
75186SOL    HW127332   2.681   0.105   1.605
75186SOL    HW227333   2.630   0.036   1.480
75187SOL     OW27334  11.619   3.072   7.792
75187SOL    HW127335  11.605   3.088   7.885
75187SOL    HW227336  11.577   2.988   7.775
75188SOL     OW27337  11.070   8.539   7.695
75188SOL    HW127338  11.075   8.529   7.790
75188SOL    HW227339  11.159   8.560   7.668
75189SOL     OW27340  10.290   4.233  10.527
75189SOL    HW127341  10.265   4.231  10.619
75189SOL    HW227342  10.380   4.199  10.525
75190SOL     OW27343   6.039   2.160  10.115
75190SOL    HW127344   6.099   2.183  10.185
75190SOL    HW227345   5.954   2.194  10.144
75191SOL     OW27346  11.605   1.429  10.062
75191SOL    HW127347  11.646   1.344  10.075
75191SOL    HW227348  11.541   1.414   9.992
75192SOL     OW27349   1.313  10.896  10.853
75192SOL    HW127350   1.364  10.942  10.920
75192SOL    HW227351   1.229  10.943  10.850
75193SOL     OW27352   0.634  13.046   4.725
75193SOL    HW127353   0.662  12.975   4.667
75193SOL    HW227354   0.558  13.010   4.771
75194SOL     OW27355  10.505   9.120  10.099
75194SOL    HW127356  10.514   9.090  10.009
75194SOL    HW227357  10.410   9.127  10.112
75195SOL     OW27358   6.711   0.549   4.913
75195SOL    HW127359   6.750   0.635   4.931
75195SOL    HW227360   6.783   0.496   4.880
75196SOL     OW27361   1.251   1.832   2.947
75196SOL    HW127362   1.276   1.819   2.856
75196SOL    HW227363   1.283   1.919   2.969
75197SOL     OW27364   8.296   5.722   6.479
75197SOL    HW127365   8.377   5.767   6.456
75197SOL    HW227366   8.323   5.631   6.495
75198SOL     OW27367   3.986   6.869   8.000
75198SOL    HW127368   3.930   6.945   8.013
75198SOL    HW227369   3.964   6.810   8.072
75199SOL     OW27370   8.260   0.312   9.351
75199SOL    HW127371   8.296   0.330   9.264
75199SOL    HW227372   8.249   0.399   9.390
75200SOL     OW27373  12.804   2.714   1.769
75200SOL    HW127374  12.762   2.727   1.854
75200SOL    HW227375  12.896   2.736   1.784
75201SOL     OW27376   7.243   1.350  10.960
75201SOL    HW127377   7.149   1.363  10.953
75201SOL    HW227378   7.264   1.374  11.050
75202SOL     OW27379   3.868   7.645   2.326
75202SOL    HW127380   3.872   7.554   2.298
75202SOL    HW227381   3.955   7.662   2.363
75203SOL     OW27382   4.009  14.002   7.518
75203SOL    HW127383   3.919  14.006   7.550
75203SOL    HW227384   4.019  13.913   7.485
75204SOL     OW27385   3.860   7.123  13.899
75204SOL    HW127386   3.952   7.146  13.914
75204SOL    HW227387   3.833   7.179  13.826
75205SOL     OW27388   0.136  12.391   4.308
75205SOL    HW127389   0.177  12.305   4.305
75205SOL    HW227390   0.165  12.435   4.229
75206SOL     OW27391  11.326   6.878  12.718
75206SOL    HW127392  11.257   6.935  12.752
75206SOL    HW227393  11.309   6.873  12.624
75207SOL     OW27394   0.118   4.404   2.529
75207SOL    HW127395   0.065   4.388   2.451
75207SOL    HW227396   0.067   4.467   2.580
75208SOL     OW27397   9.928  14.451  11.054
75208SOL    HW127398   9.864  14.499  11.001
75208SOL    HW227399   9.952  14.513  11.123
75209SOL     OW27400  12.244   3.236  14.419
75209SOL    HW127401  12.219   3.191  14.339
75209SOL    HW227402  12.255   3.328  14.394
75210SOL     OW27403   5.146   6.074   0.104
75210SOL    HW127404   5.234   6.037   0.092
75210SOL    HW227405   5.128   6.063   0.198
75211SOL     OW27406   3.997   4.936   1.167
75211SOL    HW127407   4.041   4.852   1.154
75211SOL    HW227408   3.935   4.942   1.094
75212SOL     OW27409  11.458   5.466   9.029
75212SOL    HW127410  11.373   5.477   8.986
75212SOL    HW227411  11.521   5.458   8.957
75213SOL     OW27412   4.345  11.263  11.266
75213SOL    HW127413   4.359  11.263  11.172
75213SOL    HW227414   4.391  11.340  11.298
75214SOL     OW27415   2.294  13.253   1.449
75214SOL    HW127416   2.309  13.173   1.499
75214SOL    HW227417   2.357  13.249   1.377
75215SOL     OW27418   1.354   3.531   5.045
75215SOL    HW127419   1.330   3.470   5.114
75215SOL    HW227420   1.450   3.529   5.043
75216SOL     OW27421   0.627   0.021   4.868
75216SOL    HW127422   0.616   0.110   4.903
75216SOL    HW227423   0.660  14.848   4.942
75217SOL     OW27424  11.144   4.681   7.584
75217SOL    HW127425  11.049   4.675   7.580
75217SOL    HW227426  11.166   4.750   7.521
75218SOL     OW27427   6.868   8.112  13.285
75218SOL    HW127428   6.924   8.181  13.320
75218SOL    HW227429   6.906   8.031  13.319
75219SOL     OW27430  13.489   7.277  14.418
75219SOL    HW127431  13.403   7.274  14.459
75219SOL    HW227432  13.478   7.236  14.333
75220SOL     OW27433  10.652   3.931   5.563
75220SOL    HW127434  10.612   3.851   5.530
75220SOL    HW227435  10.607   3.949   5.645
75221SOL     OW27436   8.124  12.860   1.815
75221SOL    HW127437   8.151  12.774   1.783
75221SOL    HW227438   8.135  12.918   1.740
75222SOL     OW27439  13.881  11.011  12.011
75222SOL    HW127440  13.888  11.006  11.915
75222SOL    HW227441  13.971  11.025  12.040
75223SOL     OW27442   7.627   4.386   9.887
75223SOL    HW127443   7.577   4.312   9.922
75223SOL    HW227444   7.658   4.432   9.965
75224SOL     OW27445   6.333  13.320   5.630
75224SOL    HW127446   6.427  13.309   5.649
75224SOL    HW227447   6.300  13.376   5.700
75225SOL     OW27448  13.816   0.225   8.526
75225SOL    HW127449  13.892   0.167   8.515
75225SOL    HW227450  13.761   0.208   8.450
75226SOL     OW27451   7.655   0.287  14.110
75226SOL    HW127452   7.587   0.242  14.159
75226SOL    HW227453   7.643   0.380  14.131
75227SOL     OW27454   0.766  12.021  13.543
75227SOL    HW127455   0.701  11.989  13.606
75227SOL    HW227456   0.715  12.074  13.481
75228SOL     OW27457  10.769   7.938   2.908
75228SOL    HW127458  10.810   7.852   2.905
75228SOL    HW227459  10.688   7.928   2.858
75229SOL     OW27460   0.817  12.947  12.770
75229SOL    HW127461   0.869  12.966  12.848
75229SOL    HW227462   0.876  12.967  12.697
75230SOL     OW27463  14.845   6.235   9.848
75230SOL    HW127464  14.874   6.288   9.774
75230SOL    HW227465  14.750   6.246   9.849
75231SOL     OW27466  10.914  11.487  12.839
75231SOL    HW127467  10.972  11.503  12.914
75231SOL    HW227468  10.837  11.444  12.877
75232SOL     OW27469   8.477   5.343   4.639
75232SOL    HW127470   8.527   5.414   4.680
75232SOL    HW227471   8.460   5.374   4.550
75233SOL     OW27472   9.751   5.825   3.987
75233SOL    HW127473   9.701   5.897   4.025
75233SOL    HW227474   9.685   5.763   3.957
75234SOL     OW27475  12.706  11.597  13.167
75234SOL    HW127476  12.694  11.692  13.172
75234SOL    HW227477  12.659  11.572  13.087
75235SOL     OW27478   7.377   2.129   8.015
75235SOL    HW127479   7.378   2.199   8.080
75235SOL    HW227480   7.419   2.055   8.059
75236SOL     OW27481   7.529   3.648   9.948
75236SOL    HW127482   7.485   3.594   9.883
75236SOL    HW227483   7.531   3.735   9.910
75237SOL     OW27484   4.885  12.625  13.848
75237SOL    HW127485   4.816  12.567  13.817
75237SOL    HW227486   4.863  12.710  13.810
75238SOL     OW27487  11.005   1.055  10.956
75238SOL    HW127488  11.053   1.076  11.036
75238SOL    HW227489  10.920   1.096  10.967
75239SOL     OW27490   2.213  13.300   5.110
75239SOL    HW127491   2.141  13.362   5.108
75239SOL    HW227492   2.276  13.333   5.046
75240SOL     OW27493  12.115   7.604   9.332
75240SOL    HW127494  12.028   7.617   9.294
75240SOL    HW227495  12.156   7.690   9.328
75241SOL     OW27496   7.023   5.700  13.836
75241SOL    HW127497   6.941   5.701  13.787
75241SOL    HW227498   7.053   5.791  13.834
75242SOL     OW27499   0.287  14.580  11.178
75242SOL    HW127500   0.286  14.499  11.230
75242SOL    HW227501   0.260  14.553  11.091
75243SOL     OW27502   4.167  11.535  13.740
75243SOL    HW127503   4.151  11.441  13.753
75243SOL    HW227504   4.158  11.573  13.828
75244SOL     OW27505   5.894  13.773  14.667
75244SOL    HW127506   5.949  13.703  14.703
75244SOL    HW227507   5.879  13.748  14.576
75245SOL     OW27508   1.238  10.155   7.371
75245SOL    HW127509   1.161  10.170   7.316
75245SOL    HW227510   1.259  10.240   7.408
75246SOL     OW27511   2.067   7.323  11.056
75246SOL    HW127512   2.027   7.326  11.142
75246SOL    HW227513   2.079   7.415  11.032
75247SOL     OW27514  13.131   7.552   0.782
75247SOL    HW127515  13.170   7.509   0.858
75247SOL    HW227516  13.127   7.645   0.806
75248SOL     OW27517   1.008   0.962  11.775
75248SOL    HW127518   1.028   0.941  11.866
75248SOL    HW227519   0.922   0.922  11.760
75249SOL     OW27520   1.709  11.749   9.096
75249SOL    HW127521   1.688  11.684   9.029
75249SOL    HW227522   1.788  11.793   9.063
75250SOL     OW27523  11.311   0.940   9.955
75250SOL    HW127524  11.318   0.946  10.050
75250SOL    HW227525  11.399   0.960   9.923
75251SOL     OW27526   5.385  10.811  12.079
75251SOL    HW127527   5.322  10.753  12.037
75251SOL    HW227528   5.432  10.853  12.007
75252SOL     OW27529  11.014  13.021  14.779
75252SOL    HW127530  10.943  13.070  14.820
75252SOL    HW227531  11.011  13.046  14.687
75253SOL     OW27532   4.566   5.347   1.190
75253SOL    HW127533   4.504   5.275   1.180
75253SOL    HW227534   4.512   5.426   1.181
75254SOL     OW27535   5.712  10.020   1.522
75254SOL    HW127536   5.642  10.022   1.588
75254SOL    HW227537   5.698   9.939   1.474
75255SOL     OW27538   2.872   4.853  10.339
75255SOL    HW127539   2.787   4.892  10.319
75255SOL    HW227540   2.859   4.808  10.422
75256SOL     OW27541  10.039  13.894   7.247
75256SOL    HW127542   9.985  13.970   7.269
75256SOL    HW227543  10.114  13.931   7.200
75257SOL     OW27544  11.641   9.889   0.851
75257SOL    HW127545  11.648   9.985   0.848
75257SOL    HW227546  11.549   9.873   0.874
75258SOL     OW27547  10.090   4.001  10.569
75258SOL    HW127548  10.000   4.010  10.602
75258SOL    HW227549  10.145   4.012  10.647
75259SOL     OW27550  13.761  14.516   0.828
75259SOL    HW127551  13.683  14.488   0.780
75259SOL    HW227552  13.820  14.551   0.761
75260SOL     OW27553   3.249   8.250  14.330
75260SOL    HW127554   3.220   8.288  14.413
75260SOL    HW227555   3.169   8.239  14.279
75261SOL     OW27556  12.226   6.919   3.090
75261SOL    HW127557  12.279   6.851   3.049
75261SOL    HW227558  12.222   6.894   3.183
75262SOL     OW27559   0.943   0.727   2.427
75262SOL    HW127560   1.017   0.692   2.378
75262SOL    HW227561   0.892   0.775   2.362
75263SOL     OW27562   5.690   9.656   8.111
75263SOL    HW127563   5.626   9.649   8.040
75263SOL    HW227564   5.640   9.689   8.185
75264SOL     OW27565   7.209   7.357   5.156
75264SOL    HW127566   7.297   7.365   5.118
75264SOL    HW227567   7.182   7.268   5.137
75265SOL     OW27568   4.660   2.129  13.430
75265SOL    HW127569   4.719   2.182  13.484
75265SOL    HW227570   4.705   2.121  13.346
75266SOL     OW27571   3.198   7.504  13.300
75266SOL    HW127572   3.170   7.413  13.302
75266SOL    HW227573   3.119   7.554  13.280
75267SOL     OW27574   4.008  13.057   8.227
75267SOL    HW127575   3.964  13.070   8.310
75267SOL    HW227576   4.054  13.139   8.210
75268SOL     OW27577   3.025   7.115   5.862
75268SOL    HW127578   2.999   7.204   5.884
75268SOL    HW227579   2.944   7.065   5.864
75269SOL     OW27580   5.036  10.444  11.839
75269SOL    HW127581   4.956  10.397  11.863
75269SOL    HW227582   5.022  10.471  11.748
75270SOL     OW27583   4.116  13.407   4.942
75270SOL    HW127584   4.060  13.363   5.006
75270SOL    HW227585   4.058  13.424   4.867
75271SOL     OW27586   4.209   5.823   9.549
75271SOL    HW127587   4.242   5.870   9.472
75271SOL    HW227588   4.252   5.737   9.545
75272SOL     OW27589   0.431   8.721  13.894
75272SOL    HW127590   0.524   8.731  13.873
75272SOL    HW227591   0.420   8.628  13.913
75273SOL     OW27592  12.441   0.477   3.639
75273SOL    HW127593  12.405   0.559   3.607
75273SOL    HW227594  12.522   0.502   3.683
75274SOL     OW27595   3.540   1.328  12.483
75274SOL    HW127596   3.590   1.353  12.406
75274SOL    HW227597   3.552   1.400  12.545
75275SOL     OW27598  12.088   2.872   6.944
75275SOL    HW127599  12.020   2.870   7.011
75275SOL    HW227600  12.050   2.825   6.870
75276SOL     OW27601   7.014   8.374   3.311
75276SOL    HW127602   6.944   8.321   3.273
75276SOL    HW227603   7.035   8.438   3.244
75277SOL     OW27604   9.297   9.472  12.888
75277SOL    HW127605   9.268   9.446  12.801
75277SOL    HW227606   9.227   9.528  12.921
75278SOL     OW27607  12.036  13.562   2.597
75278SOL    HW127608  11.979  13.561   2.520
75278SOL    HW227609  12.102  13.629   2.577
75279SOL     OW27610   8.466  11.351  10.208
75279SOL    HW127611   8.516  11.418  10.255
75279SOL    HW227612   8.381  11.350  10.252
75280SOL     OW27613   2.273   8.577  13.713
75280SOL    HW127614   2.341   8.559  13.649
75280SOL    HW227615   2.320   8.603  13.792
75281SOL     OW27616   7.495  11.267   5.536
75281SOL    HW127617   7.515  11.181   5.573
75281SOL    HW227618   7.425  11.251   5.473
75282SOL     OW27619   1.441   5.504   4.796
75282SOL    HW127620   1.347   5.498   4.810
75282SOL    HW227621   1.476   5.429   4.844
75283SOL     OW27622  12.878  14.366  12.291
75283SOL    HW127623  12.887  14.271  12.300
75283SOL    HW227624  12.826  14.378  12.212
75284SOL     OW27625   6.263   1.239   3.529
75284SOL    HW127626   6.280   1.200   3.443
75284SOL    HW227627   6.334   1.301   3.542
75285SOL     OW27628   2.024  10.095   3.721
75285SOL    HW127629   1.938  10.137   3.721
75285SOL    HW227630   2.073  10.142   3.654
75286SOL     OW27631   5.687   3.405   7.046
75286SOL    HW127632   5.686   3.373   7.137
75286SOL    HW227633   5.596   3.394   7.017
75287SOL     OW27634   2.133   2.002  10.416
75287SOL    HW127635   2.070   2.038  10.478
75287SOL    HW227636   2.160   2.076  10.362
75288SOL     OW27637   3.039  12.743  10.072
75288SOL    HW127638   2.993  12.756   9.989
75288SOL    HW227639   3.090  12.823  10.083
75289SOL     OW27640   9.037   2.049  11.280
75289SOL    HW127641   8.952   2.070  11.319
75289SOL    HW227642   9.051   2.116  11.214
75290SOL     OW27643   7.016  14.012  13.671
75290SOL    HW127644   7.069  13.954  13.726
75290SOL    HW227645   6.940  14.034  13.725
75291SOL     OW27646   6.525   8.793   0.676
75291SOL    HW127647   6.536   8.745   0.758
75291SOL    HW227648   6.472   8.735   0.621
75292SOL     OW27649   8.985  11.596   9.432
75292SOL    HW127650   8.991  11.681   9.475
75292SOL    HW227651   8.900  11.561   9.460
75293SOL     OW27652   5.597   9.661  11.827
75293SOL    HW127653   5.556   9.574  11.832
75293SOL    HW227654   5.681   9.645  11.785
75294SOL     OW27655   2.348   7.163   9.534
75294SOL    HW127656   2.305   7.189   9.615
75294SOL    HW227657   2.339   7.068   9.531
75295SOL     OW27658   6.333   3.953   1.947
75295SOL    HW127659   6.264   3.995   1.896
75295SOL    HW227660   6.405   3.942   1.885
75296SOL     OW27661   8.326   5.020  10.317
75296SOL    HW127662   8.274   4.939  10.319
75296SOL    HW227663   8.277   5.078  10.258
75297SOL     OW27664   1.043   9.949   5.157
75297SOL    HW127665   0.952   9.929   5.135
75297SOL    HW227666   1.039  10.031   5.205
75298SOL     OW27667   4.985   0.089  10.075
75298SOL    HW127668   5.072   0.048  10.070
75298SOL    HW227669   5.003   0.180  10.096
75299SOL     OW27670   4.214   1.233   0.085
75299SOL    HW127671   4.241   1.185   0.007
75299SOL    HW227672   4.123   1.207   0.100
75300SOL     OW27673  11.186   2.518   2.817
75300SOL    HW127674  11.206   2.608   2.793
75300SOL    HW227675  11.261   2.489   2.868
75301SOL     OW27676   4.411   2.173   9.436
75301SOL    HW127677   4.327   2.127   9.436
75301SOL    HW227678   4.422   2.203   9.526
75302SOL     OW27679   3.769  12.521   2.898
75302SOL    HW127680   3.688  12.562   2.928
75302SOL    HW227681   3.750  12.492   2.809
75303SOL     OW27682   1.804  12.992   2.575
75303SOL    HW127683   1.771  13.082   2.567
75303SOL    HW227684   1.776  12.950   2.493
75304SOL     OW27685   7.296   9.645  14.228
75304SOL    HW127686   7.281   9.694  14.147
75304SOL    HW227687   7.387   9.616  14.223
75305SOL     OW27688   6.515   6.261   5.569
75305SOL    HW127689   6.433   6.309   5.581
75305SOL    HW227690   6.555   6.260   5.656
75306SOL     OW27691   2.529  11.010  10.807
75306SOL    HW127692   2.521  10.954  10.884
75306SOL    HW227693   2.457  10.983  10.750
75307SOL     OW27694   9.271  10.222  13.790
75307SOL    HW127695   9.255  10.286  13.720
75307SOL    HW227696   9.292  10.141  13.744
75308SOL     OW27697   4.561   4.242   3.785
75308SOL    HW127698   4.620   4.279   3.850
75308SOL    HW227699   4.515   4.172   3.832
75309SOL     OW27700   4.814  10.810   2.984
75309SOL    HW127701   4.820  10.823   2.889
75309SOL    HW227702   4.723  10.784   2.999
75310SOL     OW27703  10.837   4.172  10.503
75310SOL    HW127704  10.923   4.174  10.545
75310SOL    HW227705  10.839   4.247  10.443
75311SOL     OW27706   8.986   8.139   1.737
75311SOL    HW127707   9.050   8.201   1.702
75311SOL    HW227708   8.930   8.191   1.794
75312SOL     OW27709  14.654   3.264   4.356
75312SOL    HW127710  14.745   3.292   4.363
75312SOL    HW227711  14.606   3.345   4.336
75313SOL     OW27712   4.742  13.413   2.202
75313SOL    HW127713   4.836  13.395   2.199
75313SOL    HW227714   4.726  13.474   2.131
75314SOL     OW27715   0.472   4.614   2.548
75314SOL    HW127716   0.509   4.662   2.622
75314SOL    HW227717   0.547   4.570   2.508
75315SOL     OW27718   2.463  10.988   8.083
75315SOL    HW127719   2.482  11.071   8.126
75315SOL    HW227720   2.467  11.008   7.989
75316SOL     OW27721   7.101   1.166   7.446
75316SOL    HW127722   7.019   1.117   7.440
75316SOL    HW227723   7.075   1.258   7.447
75317SOL     OW27724   2.483   0.992  10.005
75317SOL    HW127725   2.409   1.034   9.960
75317SOL    HW227726   2.519   0.931   9.941
75318SOL     OW27727  11.821  13.573  14.336
75318SOL    HW127728  11.786  13.539  14.418
75318SOL    HW227729  11.779  13.659  14.326
75319SOL     OW27730   8.103   5.703   8.112
75319SOL    HW127731   8.101   5.761   8.189
75319SOL    HW227732   8.130   5.760   8.040
75320SOL     OW27733   6.581   7.971   2.553
75320SOL    HW127734   6.636   8.042   2.521
75320SOL    HW227735   6.514   7.959   2.485
75321SOL     OW27736   9.038   5.667   9.189
75321SOL    HW127737   9.090   5.729   9.239
75321SOL    HW227738   8.985   5.721   9.130
75322SOL     OW27739  11.762   1.703  10.972
75322SOL    HW127740  11.794   1.613  10.978
75322SOL    HW227741  11.697   1.711  11.042
75323SOL     OW27742  10.597  14.308   9.467
75323SOL    HW127743  10.516  14.358   9.453
75323SOL    HW227744  10.636  14.302   9.379
75324SOL     OW27745   3.306   5.813   8.057
75324SOL    HW127746   3.399   5.797   8.040
75324SOL    HW227747   3.292   5.903   8.029
75325SOL     OW27748  11.190   3.017  14.840
75325SOL    HW127749  11.140   3.099  14.835
75325SOL    HW227750  11.281   3.044  14.845
75326SOL     OW27751   6.870   4.232   6.104
75326SOL    HW127752   6.908   4.157   6.058
75326SOL    HW227753   6.899   4.222   6.195
75327SOL     OW27754   3.900   9.956  10.029
75327SOL    HW127755   3.975  10.011  10.003
75327SOL    HW227756   3.940   9.881  10.072
75328SOL     OW27757  12.250  11.828   8.647
75328SOL    HW127758  12.181  11.804   8.709
75328SOL    HW227759  12.291  11.906   8.684
75329SOL     OW27760   0.805   0.049  12.272
75329SOL    HW127761   0.842   0.038  12.359
75329SOL    HW227762   0.799  14.838  12.237
75330SOL     OW27763  11.581  12.594   6.296
75330SOL    HW127764  11.585  12.639   6.380
75330SOL    HW227765  11.540  12.657   6.237
75331SOL     OW27766   5.977   6.026   6.493
75331SOL    HW127767   6.061   6.010   6.536
75331SOL    HW227768   5.920   6.056   6.564
75332SOL     OW27769  11.588   8.822   0.104
75332SOL    HW127770  11.606   8.879   0.029
75332SOL    HW227771  11.522   8.761   0.072
75333SOL     OW27772  10.502   9.021  13.184
75333SOL    HW127773  10.411   9.007  13.158
75333SOL    HW227774  10.543   8.935  13.176
75334SOL     OW27775   9.720  11.004   2.187
75334SOL    HW127776   9.666  11.060   2.131
75334SOL    HW227777   9.656  10.951   2.236
75335SOL     OW27778   6.308  11.508  11.540
75335SOL    HW127779   6.305  11.556  11.457
75335SOL    HW227780   6.401  11.505  11.562
75336SOL     OW27781  12.378   2.491  11.896
75336SOL    HW127782  12.384   2.482  11.991
75336SOL    HW227783  12.385   2.401  11.864
75337SOL     OW27784   6.250  10.446   6.317
75337SOL    HW127785   6.296  10.502   6.254
75337SOL    HW227786   6.161  10.439   6.282
75338SOL     OW27787  12.817   5.026   4.447
75338SOL    HW127788  12.844   5.098   4.389
75338SOL    HW227789  12.845   4.947   4.402
75339SOL     OW27790   4.802  10.610  11.091
75339SOL    HW127791   4.896  10.627  11.093
75339SOL    HW227792   4.794  10.521  11.057
75340SOL     OW27793  12.395   9.338  10.143
75340SOL    HW127794  12.315   9.287  10.137
75340SOL    HW227795  12.401   9.384  10.060
75341SOL     OW27796  10.179   1.551   8.144
75341SOL    HW127797  10.092   1.589   8.146
75341SOL    HW227798  10.179   1.494   8.068
75342SOL     OW27799  13.773   8.107   5.929
75342SOL    HW127800  13.844   8.167   5.948
75342SOL    HW227801  13.731   8.090   6.013
75343SOL     OW27802   9.075   6.345   1.827
75343SOL    HW127803   9.003   6.283   1.817
75343SOL    HW227804   9.148   6.307   1.779
75344SOL     OW27805   5.945  14.103  11.584
75344SOL    HW127806   5.982  14.055  11.509
75344SOL    HW227807   5.863  14.058  11.603
75345SOL     OW27808   3.757  10.933  14.650
75345SOL    HW127809   3.726  11.024  14.651
75345SOL    HW227810   3.849  10.940  14.622
75346SOL     OW27811   5.768   8.076   6.940
75346SOL    HW127812   5.832   8.140   6.909
75346SOL    HW227813   5.685   8.123   6.936
75347SOL     OW27814   7.519   2.123  11.633
75347SOL    HW127815   7.426   2.136  11.651
75347SOL    HW227816   7.523   2.099  11.540
75348SOL     OW27817   6.622   1.761  14.771
75348SOL    HW127818   6.656   1.680  14.733
75348SOL    HW227819   6.649   1.756  14.863
75349SOL     OW27820   5.475   2.253   2.617
75349SOL    HW127821   5.486   2.183   2.552
75349SOL    HW227822   5.412   2.313   2.577
75350SOL     OW27823   3.827  10.545  13.510
75350SOL    HW127824   3.874  10.597  13.576
75350SOL    HW227825   3.891  10.534  13.439
75351SOL     OW27826   7.980   9.504   5.885
75351SOL    HW127827   7.956   9.492   5.977
75351SOL    HW227828   8.032   9.426   5.864
75352SOL     OW27829   7.554   6.419   3.866
75352SOL    HW127830   7.562   6.514   3.865
75352SOL    HW227831   7.555   6.394   3.773
75353SOL     OW27832   5.550  12.002   3.609
75353SOL    HW127833   5.587  11.976   3.693
75353SOL    HW227834   5.473  12.053   3.631
75354SOL     OW27835   0.943  13.943  14.630
75354SOL    HW127836   0.888  13.957  14.707
75354SOL    HW227837   0.991  14.024  14.619
75355SOL     OW27838   3.206   0.363   8.021
75355SOL    HW127839   3.237   0.277   8.047
75355SOL    HW227840   3.145   0.347   7.950
75356SOL     OW27841   7.632  11.534  14.608
75356SOL    HW127842   7.549  11.557  14.650
75356SOL    HW227843   7.607  11.489  14.528
75357SOL     OW27844   8.925   1.341   0.986
75357SOL    HW127845   8.916   1.426   1.029
75357SOL    HW227846   8.907   1.277   1.056
75358SOL     OW27847   9.855   9.805  14.864
75358SOL    HW127848   9.814   9.884   0.022
75358SOL    HW227849   9.900   9.765   0.061
75359SOL     OW27850  10.382  10.767   1.737
75359SOL    HW127851  10.344  10.741   1.653
75359SOL    HW227852  10.307  10.796   1.789
75360SOL     OW27853   0.194  14.794   9.406
75360SOL    HW127854   0.247  14.719   9.430
75360SOL    HW227855   0.239  14.833   9.331
75361SOL     OW27856   1.345   7.778   7.710
75361SOL    HW127857   1.339   7.862   7.757
75361SOL    HW227858   1.415   7.731   7.755
75362SOL     OW27859  12.149   7.475   7.083
75362SOL    HW127860  12.200   7.554   7.099
75362SOL    HW227861  12.155   7.462   6.988
75363SOL     OW27862   0.618   3.668  13.363
75363SOL    HW127863   0.628   3.659  13.457
75363SOL    HW227864   0.590   3.582  13.333
75364SOL     OW27865   3.372   6.808   5.558
75364SOL    HW127866   3.320   6.820   5.479
75364SOL    HW227867   3.462   6.803   5.526
75365SOL     OW27868   2.482  13.221   3.481
75365SOL    HW127869   2.466  13.303   3.529
75365SOL    HW227870   2.495  13.156   3.550
75366SOL     OW27871   3.256   9.556   7.271
75366SOL    HW127872   3.236   9.463   7.272
75366SOL    HW227873   3.325   9.565   7.205
75367SOL     OW27874   0.270   9.111   0.814
75367SOL    HW127875   0.177   9.098   0.795
75367SOL    HW227876   0.293   9.191   0.766
75368SOL     OW27877   0.130   4.877  11.458
75368SOL    HW127878   0.185   4.951  11.480
75368SOL    HW227879   0.168   4.803  11.505
75369SOL     OW27880   7.265   0.679   8.853
75369SOL    HW127881   7.252   0.622   8.928
75369SOL    HW227882   7.198   0.747   8.861
75370SOL     OW27883   0.355   5.990   6.579
75370SOL    HW127884   0.340   5.899   6.601
75370SOL    HW227885   0.272   6.034   6.596
75371SOL     OW27886   3.368   4.415   1.355
75371SOL    HW127887   3.277   4.410   1.325
75371SOL    HW227888   3.419   4.423   1.274
75372SOL     OW27889   4.026   0.386   8.889
75372SOL    HW127890   3.939   0.397   8.926
75372SOL    HW227891   4.084   0.436   8.946
75373SOL     OW27892  13.216   2.203   9.482
75373SOL    HW127893  13.155   2.277   9.480
75373SOL    HW227894  13.174   2.136   9.428
75374SOL     OW27895   0.056   6.049  11.333
75374SOL    HW127896   0.069   6.100  11.254
75374SOL    HW227897  14.844   6.068  11.360
75375SOL     OW27898   0.542   9.142   1.965
75375SOL    HW127899   0.448   9.128   1.981
75375SOL    HW227900   0.568   9.067   1.911
75376SOL     OW27901   3.063   4.099  13.512
75376SOL    HW127902   3.061   4.107  13.417
75376SOL    HW227903   3.013   4.174  13.544
75377SOL     OW27904   9.292   9.767   2.557
75377SOL    HW127905   9.352   9.837   2.584
75377SOL    HW227906   9.206   9.808   2.558
75378SOL     OW27907   2.986  10.930   5.097
75378SOL    HW127908   3.055  10.887   5.046
75378SOL    HW227909   3.008  11.023   5.095
75379SOL     OW27910   6.662   9.814  13.863
75379SOL    HW127911   6.596   9.766  13.913
75379SOL    HW227912   6.657   9.903  13.896
75380SOL     OW27913   0.982  12.099  12.416
75380SOL    HW127914   0.992  12.018  12.366
75380SOL    HW227915   1.072  12.125  12.439
75381SOL     OW27916   0.538   3.324   0.405
75381SOL    HW127917   0.616   3.352   0.358
75381SOL    HW227918   0.469   3.323   0.339
75382SOL     OW27919   9.720   3.476   4.931
75382SOL    HW127920   9.794   3.495   4.873
75382SOL    HW227921   9.657   3.546   4.913
75383SOL     OW27922   2.994   7.661  12.604
75383SOL    HW127923   2.924   7.720  12.630
75383SOL    HW227924   3.024   7.620  12.686
75384SOL     OW27925   5.536   1.201   7.225
75384SOL    HW127926   5.582   1.136   7.171
75384SOL    HW227927   5.517   1.272   7.164
75385SOL     OW27928  11.586   0.601   5.406
75385SOL    HW127929  11.495   0.631   5.405
75385SOL    HW227930  11.582   0.511   5.372
75386SOL     OW27931   0.087   2.500  13.241
75386SOL    HW127932   0.057   2.519  13.330
75386SOL    HW227933   0.102   2.587  13.202
75387SOL     OW27934  13.421   8.589   3.970
75387SOL    HW127935  13.420   8.684   3.983
75387SOL    HW227936  13.512   8.564   3.980
75388SOL     OW27937  11.186  14.162   0.010
75388SOL    HW127938  11.110  14.160   0.069
75388SOL    HW227939  11.221  14.251   0.021
75389SOL     OW27940   2.670   2.650  12.074
75389SOL    HW127941   2.717   2.605  12.005
75389SOL    HW227942   2.596   2.692  12.030
75390SOL     OW27943  10.575   4.349   8.618
75390SOL    HW127944  10.633   4.404   8.565
75390SOL    HW227945  10.623   4.267   8.629
75391SOL     OW27946   8.866   1.847   6.216
75391SOL    HW127947   8.898   1.792   6.287
75391SOL    HW227948   8.879   1.936   6.247
75392SOL     OW27949   9.812   2.993  10.608
75392SOL    HW127950   9.811   2.900  10.629
75392SOL    HW227951   9.893   3.025  10.649
75393SOL     OW27952   0.811  13.317   2.997
75393SOL    HW127953   0.898  13.327   2.958
75393SOL    HW227954   0.760  13.273   2.929
75394SOL     OW27955  13.258   8.365   8.794
75394SOL    HW127956  13.199   8.405   8.731
75394SOL    HW227957  13.203   8.305   8.844
75395SOL     OW27958  11.752   9.994   3.711
75395SOL    HW127959  11.677   9.970   3.658
75395SOL    HW227960  11.794  10.066   3.664
75396SOL     OW27961  12.118  12.555   7.585
75396SOL    HW127962  12.034  12.561   7.539
75396SOL    HW227963  12.170  12.627   7.550
75397SOL     OW27964   8.226  13.696   5.811
75397SOL    HW127965   8.189  13.784   5.806
75397SOL    HW227966   8.207  13.667   5.900
75398SOL     OW27967  11.401  14.108  12.444
75398SOL    HW127968  11.457  14.035  12.470
75398SOL    HW227969  11.370  14.145  12.527
75399SOL     OW27970   4.077   8.165   1.167
75399SOL    HW127971   3.994   8.201   1.199
75399SOL    HW227972   4.099   8.219   1.091
75400SOL     OW27973   8.624   4.034  14.318
75400SOL    HW127974   8.715   4.044  14.291
75400SOL    HW227975   8.628   4.020  14.413
75401SOL     OW27976   8.580   9.317   6.203
75401SOL    HW127977   8.663   9.271   6.188
75401SOL    HW227978   8.604   9.410   6.202
75402SOL     OW27979   6.206   8.330   0.925
75402SOL    HW127980   6.120   8.340   0.885
75402SOL    HW227981   6.189   8.282   1.007
75403SOL     OW27982  12.822  13.525   2.418
75403SOL    HW127983  12.777  13.547   2.336
75403SOL    HW227984  12.858  13.437   2.402
75404SOL     OW27985  14.040  14.732  10.253
75404SOL    HW127986  14.025  14.773  10.339
75404SOL    HW227987  14.006  14.643  10.264
75405SOL     OW27988   1.058   0.748  10.099
75405SOL    HW127989   1.070   0.789  10.185
75405SOL    HW227990   1.143   0.757  10.056
75406SOL     OW27991   2.363   0.982   6.109
75406SOL    HW127992   2.294   1.043   6.083
75406SOL    HW227993   2.424   1.035   6.160
75407SOL     OW27994   4.201  10.018   8.129
75407SOL    HW127995   4.269  10.083   8.109
75407SOL    HW227996   4.187   9.972   8.046
75408SOL     OW27997  14.529  12.840  13.994
75408SOL    HW127998  14.478  12.901  14.047
75408SOL    HW227999  14.568  12.894  13.926
75409SOL     OW28000   6.973  14.680   9.399
75409SOL    HW128001   6.927  14.758   9.369
75409SOL    HW228002   6.922  14.648   9.473
75410SOL     OW28003   7.525  10.575   6.069
75410SOL    HW128004   7.532  10.569   5.974
75410SOL    HW228005   7.488  10.662   6.085
75411SOL     OW28006  11.249   9.925   3.014
75411SOL    HW128007  11.242  10.016   3.043
75411SOL    HW228008  11.193   9.920   2.937
75412SOL     OW28009   0.852   4.230   8.520
75412SOL    HW128010   0.851   4.201   8.429
75412SOL    HW228011   0.927   4.186   8.559
75413SOL     OW28012  13.096   5.564  13.575
75413SOL    HW128013  13.101   5.655  13.548
75413SOL    HW228014  13.127   5.563  13.665
75414SOL     OW28015   8.060  13.535   1.895
75414SOL    HW128016   8.085  13.446   1.923
75414SOL    HW228017   7.965  13.535   1.900
75415SOL     OW28018   6.712   0.912   9.438
75415SOL    HW128019   6.624   0.943   9.419
75415SOL    HW228020   6.703   0.864   9.521
75416SOL     OW28021  12.734   4.721   9.680
75416SOL    HW128022  12.651   4.724   9.632
75416SOL    HW228023  12.710   4.683   9.765
75417SOL     OW28024   2.457   3.616   8.449
75417SOL    HW128025   2.470   3.687   8.512
75417SOL    HW228026   2.505   3.542   8.486
75418SOL     OW28027  10.723   5.841  13.166
75418SOL    HW128028  10.813   5.824  13.137
75418SOL    HW228029  10.685   5.754  13.178
75419SOL     OW28030   5.647  10.209   2.358
75419SOL    HW128031   5.558  10.178   2.374
75419SOL    HW228032   5.671  10.256   2.438
75420SOL     OW28033   2.430   0.392   1.484
75420SOL    HW128034   2.416   0.333   1.411
75420SOL    HW228035   2.409   0.341   1.562
75421SOL     OW28036  13.715   6.959  11.816
75421SOL    HW128037  13.730   6.999  11.731
75421SOL    HW228038  13.690   7.031  11.873
75422SOL     OW28039  11.633   5.750   1.545
75422SOL    HW128040  11.590   5.695   1.611
75422SOL    HW228041  11.726   5.740   1.563
75423SOL     OW28042   6.290  14.599   7.272
75423SOL    HW128043   6.206  14.639   7.294
75423SOL    HW228044   6.332  14.663   7.214
75424SOL     OW28045   4.919  11.060   1.087
75424SOL    HW128046   4.995  11.006   1.107
75424SOL    HW228047   4.845  10.999   1.088
75425SOL     OW28048  14.138   4.334   0.288
75425SOL    HW128049  14.221   4.308   0.327
75425SOL    HW228050  14.153   4.327   0.193
75426SOL     OW28051  11.978   5.097   3.659
75426SOL    HW128052  11.934   5.059   3.583
75426SOL    HW228053  12.051   5.037   3.676
75427SOL     OW28054  10.628   9.421   8.781
75427SOL    HW128055  10.678   9.405   8.701
75427SOL    HW228056  10.540   9.390   8.761
75428SOL     OW28057   2.180  10.505   4.347
75428SOL    HW128058   2.219  10.445   4.410
75428SOL    HW228059   2.102  10.539   4.390
75429SOL     OW28060   1.817   3.749   2.685
75429SOL    HW128061   1.784   3.693   2.615
75429SOL    HW228062   1.910   3.759   2.666
75430SOL     OW28063  10.266   1.336  14.126
75430SOL    HW128064  10.314   1.268  14.080
75430SOL    HW228065  10.231   1.392  14.056
75431SOL     OW28066  14.213  12.420   1.548
75431SOL    HW128067  14.226  12.406   1.454
75431SOL    HW228068  14.229  12.334   1.586
75432SOL     OW28069   3.044   2.239   2.905
75432SOL    HW128070   3.072   2.281   2.824
75432SOL    HW228071   3.046   2.309   2.970
75433SOL     OW28072  13.230   4.771   6.408
75433SOL    HW128073  13.185   4.786   6.491
75433SOL    HW228074  13.163   4.730   6.353
75434SOL     OW28075   5.086  13.174   3.528
75434SOL    HW128076   5.119  13.088   3.556
75434SOL    HW228077   4.996  13.176   3.560
75435SOL     OW28078  12.151   0.316   0.491
75435SOL    HW128079  12.207   0.254   0.538
75435SOL    HW228080  12.074   0.325   0.547
75436SOL     OW28081   8.218   0.361  12.691
75436SOL    HW128082   8.192   0.353  12.599
75436SOL    HW228083   8.154   0.308  12.738
75437SOL     OW28084   1.836   1.804   1.245
75437SOL    HW128085   1.791   1.758   1.316
75437SOL    HW228086   1.765   1.837   1.189
75438SOL     OW28087  10.752   3.527  14.494
75438SOL    HW128088  10.735   3.503  14.585
75438SOL    HW228089  10.679   3.486  14.445
75439SOL     OW28090  11.271   8.931   6.373
75439SOL    HW128091  11.350   8.938   6.319
75439SOL    HW228092  11.266   8.838   6.396
75440SOL     OW28093  10.314   5.739  11.066
75440SOL    HW128094  10.301   5.829  11.096
75440SOL    HW228095  10.253   5.688  11.119
75441SOL     OW28096   8.725  12.312  12.422
75441SOL    HW128097   8.744  12.280  12.334
75441SOL    HW228098   8.811  12.315  12.465
75442SOL     OW28099   4.651   8.068   3.789
75442SOL    HW128100   4.636   7.976   3.811
75442SOL    HW228101   4.683   8.067   3.699
75443SOL     OW28102   5.438  14.554   6.735
75443SOL    HW128103   5.372  14.615   6.767
75443SOL    HW228104   5.487  14.603   6.669
75444SOL     OW28105   0.022   1.593   5.482
75444SOL    HW128106   0.001   1.519   5.540
75444SOL    HW228107  14.828   1.655   5.494
75445SOL     OW28108   2.689  10.178   1.116
75445SOL    HW128109   2.616  10.129   1.155
75445SOL    HW228110   2.659  10.199   1.027
75446SOL     OW28111  13.122  13.081  13.594
75446SOL    HW128112  13.035  13.040  13.595
75446SOL    HW228113  13.103  13.175  13.603
75447SOL     OW28114   7.936   9.625   6.482
75447SOL    HW128115   7.964   9.657   6.568
75447SOL    HW228116   7.961   9.533   6.481
75448SOL     OW28117   8.175   7.541   2.676
75448SOL    HW128118   8.207   7.564   2.764
75448SOL    HW228119   8.203   7.614   2.621
75449SOL     OW28120   1.040   0.382   2.932
75449SOL    HW128121   1.021   0.473   2.907
75449SOL    HW228122   1.116   0.389   2.990
75450SOL     OW28123  10.652  11.796   4.856
75450SOL    HW128124  10.577  11.775   4.801
75450SOL    HW228125  10.700  11.713   4.863
75451SOL     OW28126  13.706   9.856   4.652
75451SOL    HW128127  13.724   9.938   4.606
75451SOL    HW228128  13.669   9.799   4.585
75452SOL     OW28129   9.978   0.695  12.650
75452SOL    HW128130  10.036   0.706  12.726
75452SOL    HW228131   9.939   0.609  12.662
75453SOL     OW28132   6.016   2.041  14.508
75453SOL    HW128133   5.957   1.968  14.528
75453SOL    HW228134   6.062   2.059  14.590
75454SOL     OW28135   0.803   3.657   5.723
75454SOL    HW128136   0.826   3.718   5.652
75454SOL    HW228137   0.726   3.610   5.690
75455SOL     OW28138   0.583   4.529   9.587
75455SOL    HW128139   0.562   4.435   9.583
75455SOL    HW228140   0.517   4.571   9.533
75456SOL     OW28141   1.070   2.760   4.490
75456SOL    HW128142   1.015   2.827   4.451
75456SOL    HW228143   1.018   2.680   4.485
75457SOL     OW28144   6.648   7.486   2.987
75457SOL    HW128145   6.556   7.510   2.978
75457SOL    HW228146   6.692   7.529   2.914
75458SOL     OW28147  12.583  10.404   4.239
75458SOL    HW128148  12.509  10.457   4.267
75458SOL    HW228149  12.546  10.318   4.220
75459SOL     OW28150  12.783   0.183  10.608
75459SOL    HW128151  12.721   0.247  10.575
75459SOL    HW228152  12.766   0.178  10.701
75460SOL     OW28153  10.314   0.652  14.552
75460SOL    HW128154  10.398   0.650  14.599
75460SOL    HW228155  10.308   0.565  14.512
75461SOL     OW28156   9.890   3.480   0.665
75461SOL    HW128157   9.951   3.554   0.664
75461SOL    HW228158   9.891   3.447   0.575
75462SOL     OW28159   9.009   9.673   0.204
75462SOL    HW128160   8.979   9.608   0.141
75462SOL    HW228161   9.050   9.622   0.274
75463SOL     OW28162   0.198   2.760   7.477
75463SOL    HW128163   0.141   2.830   7.509
75463SOL    HW228164   0.139   2.703   7.427
75464SOL     OW28165   1.280   7.152   9.596
75464SOL    HW128166   1.296   7.219   9.529
75464SOL    HW228167   1.260   7.073   9.547
75465SOL     OW28168   1.950   8.815   2.211
75465SOL    HW128169   2.018   8.880   2.193
75465SOL    HW228170   1.922   8.834   2.301
75466SOL     OW28171   1.781   3.577   4.410
75466SOL    HW128172   1.822   3.619   4.485
75466SOL    HW228173   1.805   3.632   4.335
75467SOL     OW28174   1.460  10.024   6.132
75467SOL    HW128175   1.403   9.948   6.142
75467SOL    HW228176   1.490  10.043   6.221
75468SOL     OW28177  13.002  10.145  14.772
75468SOL    HW128178  12.939  10.202  14.728
75468SOL    HW228179  13.057  10.110  14.702
75469SOL     OW28180   7.682   3.524   8.083
75469SOL    HW128181   7.615   3.564   8.138
75469SOL    HW228182   7.722   3.457   8.139
75470SOL     OW28183   6.146   4.216   5.167
75470SOL    HW128184   6.087   4.244   5.237
75470SOL    HW228185   6.219   4.277   5.171
75471SOL     OW28186   1.632   2.204   5.620
75471SOL    HW128187   1.726   2.211   5.635
75471SOL    HW228188   1.603   2.137   5.682
75472SOL     OW28189  11.119   5.868   9.072
75472SOL    HW128190  11.139   5.800   9.137
75472SOL    HW228191  11.191   5.862   9.009
75473SOL     OW28192   3.116   9.471  14.831
75473SOL    HW128193   3.021   9.484  14.838
75473SOL    HW228194   3.128   9.377  14.845
75474SOL     OW28195   4.298   8.513  13.059
75474SOL    HW128196   4.373   8.457  13.079
75474SOL    HW228197   4.289   8.507  12.964
75475SOL     OW28198   6.992   1.668   4.593
75475SOL    HW128199   7.020   1.744   4.644
75475SOL    HW228200   6.912   1.696   4.550
75476SOL     OW28201  12.557   8.950  13.664
75476SOL    HW128202  12.543   8.866  13.620
75476SOL    HW228203  12.524   8.936  13.753
75477SOL     OW28204   3.968  13.688  12.549
75477SOL    HW128205   3.988  13.598  12.576
75477SOL    HW228206   3.934  13.730  12.627
75478SOL     OW28207   9.915   1.035   7.071
75478SOL    HW128208   9.919   1.035   7.167
75478SOL    HW228209   9.834   1.083   7.051
75479SOL     OW28210  11.351   4.290  13.415
75479SOL    HW128211  11.303   4.357  13.463
75479SOL    HW228212  11.291   4.216  13.410
75480SOL     OW28213   6.998   7.645  10.642
75480SOL    HW128214   7.031   7.589  10.712
75480SOL    HW228215   7.071   7.703  10.621
75481SOL     OW28216   7.646  14.173  11.647
75481SOL    HW128217   7.681  14.254  11.609
75481SOL    HW228218   7.552  14.178  11.631
75482SOL     OW28219  10.072   3.167   7.139
75482SOL    HW128220   9.977   3.178   7.143
75482SOL    HW228221  10.107   3.255   7.131
75483SOL     OW28222   2.850   6.498  11.024
75483SOL    HW128223   2.840   6.403  11.024
75483SOL    HW228224   2.768   6.532  11.058
75484SOL     OW28225   2.596   7.593   8.526
75484SOL    HW128226   2.534   7.660   8.498
75484SOL    HW228227   2.682   7.633   8.514
75485SOL     OW28228   8.576  13.286   5.221
75485SOL    HW128229   8.571  13.194   5.244
75485SOL    HW228230   8.609  13.329   5.300
75486SOL     OW28231   8.773  13.910   6.925
75486SOL    HW128232   8.855  13.938   6.885
75486SOL    HW228233   8.800  13.849   6.994
75487SOL     OW28234   0.489   0.321   1.176
75487SOL    HW128235   0.441   0.309   1.095
75487SOL    HW228236   0.574   0.280   1.160
75488SOL     OW28237   9.970  11.788   4.968
75488SOL    HW128238   9.878  11.783   4.942
75488SOL    HW228239   9.976  11.871   5.017
75489SOL     OW28240  14.675   6.462   9.778
75489SOL    HW128241  14.646   6.502   9.696
75489SOL    HW228242  14.743   6.520   9.811
75490SOL     OW28243   0.902   9.971   7.507
75490SOL    HW128244   0.916  10.065   7.497
75490SOL    HW228245   0.989   9.932   7.495
75491SOL     OW28246   8.186  14.444   2.473
75491SOL    HW128247   8.153  14.517   2.525
75491SOL    HW228248   8.276  14.469   2.451
75492SOL     OW28249   6.450  11.709   2.577
75492SOL    HW128250   6.401  11.738   2.500
75492SOL    HW228251   6.383  11.679   2.639
75493SOL     OW28252   3.290   3.940   2.548
75493SOL    HW128253   3.220   3.891   2.590
75493SOL    HW228254   3.265   3.944   2.455
75494SOL     OW28255   5.527  14.531   4.161
75494SOL    HW128256   5.524  14.438   4.181
75494SOL    HW228257   5.579  14.570   4.232
75495SOL     OW28258   1.587   6.325   6.745
75495SOL    HW128259   1.613   6.265   6.816
75495SOL    HW228260   1.656   6.316   6.680
75496SOL     OW28261   3.577  14.483  14.218
75496SOL    HW128262   3.564  14.509  14.309
75496SOL    HW228263   3.664  14.444  14.216
75497SOL     OW28264   3.583   3.995   1.746
75497SOL    HW128265   3.556   3.917   1.794
75497SOL    HW228266   3.600   3.964   1.657
75498SOL     OW28267   8.437  14.147   5.277
75498SOL    HW128268   8.389  14.120   5.355
75498SOL    HW228269   8.520  14.098   5.281
75499SOL     OW28270   3.832  12.242   7.518
75499SOL    HW128271   3.857  12.233   7.610
75499SOL    HW228272   3.906  12.205   7.470
75500SOL     OW28273   3.282   5.608   6.784
75500SOL    HW128274   3.198   5.568   6.762
75500SOL    HW228275   3.286   5.603   6.880
75501SOL     OW28276  12.546  10.702   3.008
75501SOL    HW128277  12.479  10.713   3.075
75501SOL    HW228278  12.556  10.788   2.969
75502SOL     OW28279   9.671   8.198  11.417
75502SOL    HW128280   9.721   8.137  11.364
75502SOL    HW228281   9.648   8.269  11.358
75503SOL     OW28282  10.707   2.722   1.251
75503SOL    HW128283  10.792   2.718   1.206
75503SOL    HW228284  10.688   2.815   1.259
75504SOL     OW28285  11.565   0.718  10.557
75504SOL    HW128286  11.595   0.719  10.648
75504SOL    HW228287  11.480   0.762  10.559
75505SOL     OW28288   1.039  10.533   5.936
75505SOL    HW128289   1.071  10.556   5.849
75505SOL    HW228290   1.055  10.439   5.944
75506SOL     OW28291   6.449   7.271   2.631
75506SOL    HW128292   6.467   7.180   2.655
75506SOL    HW228293   6.419   7.311   2.713
75507SOL     OW28294   6.563   8.705   6.251
75507SOL    HW128295   6.571   8.790   6.294
75507SOL    HW228296   6.604   8.717   6.165
75508SOL     OW28297   8.723  12.156   0.488
75508SOL    HW128298   8.666  12.081   0.478
75508SOL    HW228299   8.667  12.232   0.471
75509SOL     OW28300   2.642   9.658   3.498
75509SOL    HW128301   2.594   9.678   3.578
75509SOL    HW228302   2.657   9.743   3.457
75510SOL     OW28303  12.825  14.041   3.452
75510SOL    HW128304  12.763  14.079   3.390
75510SOL    HW228305  12.797  13.950   3.460
75511SOL     OW28306   7.186   5.643   2.947
75511SOL    HW128307   7.128   5.591   3.003
75511SOL    HW228308   7.266   5.654   2.999
75512SOL     OW28309  13.731   9.981  14.870
75512SOL    HW128310  13.658   9.950  14.816
75512SOL    HW228311  13.784  10.033  14.811
75513SOL     OW28312   7.296   7.956   2.779
75513SOL    HW128313   7.368   7.933   2.838
75513SOL    HW228314   7.254   8.031   2.821
75514SOL     OW28315   6.620   8.240   5.345
75514SOL    HW128316   6.636   8.205   5.433
75514SOL    HW228317   6.525   8.254   5.342
75515SOL     OW28318  11.079   2.180   4.898
75515SOL    HW128319  11.061   2.266   4.861
75515SOL    HW228320  11.024   2.120   4.848
75516SOL     OW28321   4.331   5.933   0.143
75516SOL    HW128322   4.395   6.001   0.123
75516SOL    HW228323   4.247   5.972   0.119
75517SOL     OW28324  11.429   8.838  13.677
75517SOL    HW128325  11.388   8.813  13.760
75517SOL    HW228326  11.440   8.756  13.630
75518SOL     OW28327   9.461   5.634  12.365
75518SOL    HW128328   9.511   5.563  12.405
75518SOL    HW228329   9.396   5.589  12.310
75519SOL     OW28330   3.353   2.261   8.490
75519SOL    HW128331   3.392   2.237   8.407
75519SOL    HW228332   3.427   2.275   8.549
75520SOL     OW28333   4.405  12.787  12.745
75520SOL    HW128334   4.461  12.729  12.692
75520SOL    HW228335   4.401  12.868  12.696
75521SOL     OW28336   1.057   1.058  10.097
75521SOL    HW128337   1.130   1.069  10.035
75521SOL    HW228338   0.978   1.065  10.043
75522SOL     OW28339  11.266   9.345   0.829
75522SOL    HW128340  11.187   9.394   0.807
75522SOL    HW228341  11.248   9.255   0.801
75523SOL     OW28342  14.049   6.027  11.175
75523SOL    HW128343  14.092   5.958  11.226
75523SOL    HW228344  14.001   5.980  11.107
75524SOL     OW28345   0.321  11.275  14.522
75524SOL    HW128346   0.385  11.339  14.553
75524SOL    HW228347   0.304  11.300  14.432
75525SOL     OW28348   3.545   1.169   2.243
75525SOL    HW128349   3.485   1.131   2.307
75525SOL    HW228350   3.528   1.263   2.248
75526SOL     OW28351  14.111   0.102  13.086
75526SOL    HW128352  14.090   0.163  13.157
75526SOL    HW228353  14.177   0.044  13.123
75527SOL     OW28354   2.131  11.951  10.882
75527SOL    HW128355   2.221  11.962  10.850
75527SOL    HW228356   2.142  11.927  10.974
75528SOL     OW28357  11.470   4.663  10.735
75528SOL    HW128358  11.549   4.694  10.692
75528SOL    HW228359  11.399   4.713  10.694
75529SOL     OW28360  10.373  14.813   7.828
75529SOL    HW128361  10.352  14.828   7.736
75529SOL    HW228362  10.448  14.869   7.845
75530SOL     OW28363  12.409   1.378   4.875
75530SOL    HW128364  12.332   1.325   4.895
75530SOL    HW228365  12.479   1.315   4.860
75531SOL     OW28366  14.316  13.906  10.446
75531SOL    HW128367  14.239  13.958  10.426
75531SOL    HW228368  14.292  13.816  10.422
75532SOL     OW28369   6.066   7.303   3.483
75532SOL    HW128370   6.060   7.398   3.494
75532SOL    HW228371   5.983   7.279   3.442
75533SOL     OW28372   3.786   5.583   6.593
75533SOL    HW128373   3.720   5.525   6.556
75533SOL    HW228374   3.737   5.640   6.652
75534SOL     OW28375   0.122  12.941   3.270
75534SOL    HW128376   0.215  12.951   3.249
75534SOL    HW228377   0.101  12.852   3.242
75535SOL     OW28378  12.748   1.689  13.705
75535SOL    HW128379  12.711   1.727  13.785
75535SOL    HW228380  12.842   1.702  13.714
75536SOL     OW28381   9.346  11.812  14.724
75536SOL    HW128382   9.318  11.785  14.812
75536SOL    HW228383   9.436  11.842  14.735
75537SOL     OW28384   5.404   3.697   4.878
75537SOL    HW128385   5.346   3.660   4.944
75537SOL    HW228386   5.359   3.681   4.794
75538SOL     OW28387  13.909  14.480   1.778
75538SOL    HW128388  14.002  14.496   1.766
75538SOL    HW228389  13.877  14.458   1.690
75539SOL     OW28390   9.694  11.091   3.587
75539SOL    HW128391   9.732  11.155   3.647
75539SOL    HW228392   9.651  11.145   3.520
75540SOL     OW28393  14.639   0.238   1.416
75540SOL    HW128394  14.674   0.188   1.490
75540SOL    HW228395  14.709   0.234   1.350
75541SOL     OW28396  12.182   0.584   8.360
75541SOL    HW128397  12.231   0.601   8.279
75541SOL    HW228398  12.249   0.563   8.424
75542SOL     OW28399   2.273   6.559  12.513
75542SOL    HW128400   2.316   6.526  12.433
75542SOL    HW228401   2.346   6.581  12.571
75543SOL     OW28402  11.667   9.650   5.459
75543SOL    HW128403  11.670   9.711   5.533
75543SOL    HW228404  11.729   9.685   5.396
75544SOL     OW28405   9.776   5.796   1.881
75544SOL    HW128406   9.800   5.798   1.788
75544SOL    HW228407   9.709   5.728   1.887
75545SOL     OW28408   3.344   1.185   6.900
75545SOL    HW128409   3.434   1.190   6.932
75545SOL    HW228410   3.313   1.099   6.928
75546SOL     OW28411   6.340  14.863   0.252
75546SOL    HW128412   6.401  14.801   0.213
75546SOL    HW228413   6.279   0.007   0.180
75547SOL     OW28414   0.697   1.274   3.123
75547SOL    HW128415   0.690   1.189   3.167
75547SOL    HW228416   0.775   1.267   3.069
75548SOL     OW28417   8.553   2.711  14.336
75548SOL    HW128418   8.563   2.714  14.431
75548SOL    HW228419   8.632   2.753  14.303
75549SOL     OW28420   7.185   4.390   2.986
75549SOL    HW128421   7.212   4.375   2.896
75549SOL    HW228422   7.257   4.355   3.039
75550SOL     OW28423  12.394   3.783   5.782
75550SOL    HW128424  12.413   3.790   5.688
75550SOL    HW228425  12.462   3.724   5.815
75551SOL     OW28426  11.268   8.112   1.823
75551SOL    HW128427  11.240   8.181   1.883
75551SOL    HW228428  11.312   8.159   1.752
75552SOL     OW28429   1.926   2.809  14.459
75552SOL    HW128430   1.968   2.827  14.544
75552SOL    HW228431   1.931   2.892  14.412
75553SOL     OW28432   0.285  13.386   5.388
75553SOL    HW128433   0.275  13.345   5.474
75553SOL    HW228434   0.284  13.313   5.326
75554SOL     OW28435   9.009   0.879  10.124
75554SOL    HW128436   9.070   0.933  10.074
75554SOL    HW228437   8.947   0.942  10.161
75555SOL     OW28438   4.995  12.982  10.101
75555SOL    HW128439   4.935  12.996  10.028
75555SOL    HW228440   5.051  12.909  10.073
75556SOL     OW28441   5.257  10.439  13.659
75556SOL    HW128442   5.171  10.399  13.644
75556SOL    HW228443   5.259  10.513  13.599
75557SOL     OW28444   9.030   5.915   7.786
75557SOL    HW128445   9.079   5.956   7.857
75557SOL    HW228446   8.989   5.988   7.739
75558SOL     OW28447   2.877   3.436   3.102
75558SOL    HW128448   2.951   3.488   3.134
75558SOL    HW228449   2.858   3.375   3.174
75559SOL     OW28450   6.122  14.577  14.809
75559SOL    HW128451   6.151  14.568  14.719
75559SOL    HW228452   6.034  14.614  14.802
75560SOL     OW28453  14.272   7.163   5.307
75560SOL    HW128454  14.309   7.155   5.395
75560SOL    HW228455  14.188   7.116   5.312
75561SOL     OW28456   8.810  14.410  13.224
75561SOL    HW128457   8.891  14.433  13.177
75561SOL    HW228458   8.820  14.318  13.246
75562SOL     OW28459   9.227  12.664  11.583
75562SOL    HW128460   9.145  12.639  11.540
75562SOL    HW228461   9.214  12.640  11.675
75563SOL     OW28462   6.234   0.109   7.581
75563SOL    HW128463   6.153   0.160   7.577
75563SOL    HW228464   6.216   0.039   7.643
75564SOL     OW28465  12.459   1.360   5.704
75564SOL    HW128466  12.550   1.384   5.720
75564SOL    HW228467  12.411   1.403   5.775
75565SOL     OW28468  10.226   9.901  14.570
75565SOL    HW128469  10.209   9.807  14.574
75565SOL    HW228470  10.276   9.920  14.650
75566SOL     OW28471   1.839   3.599   3.624
75566SOL    HW128472   1.827   3.673   3.565
75566SOL    HW228473   1.926   3.564   3.601
75567SOL     OW28474  13.404   1.098   1.105
75567SOL    HW128475  13.315   1.067   1.092
75567SOL    HW228476  13.450   1.074   1.025
75568SOL     OW28477  12.725   1.504   3.921
75568SOL    HW128478  12.668   1.570   3.960
75568SOL    HW228479  12.789   1.484   3.990
75569SOL     OW28480   4.352   2.757   2.521
75569SOL    HW128481   4.297   2.683   2.495
75569SOL    HW228482   4.411   2.722   2.587
75570SOL     OW28483   1.615  13.139   6.021
75570SOL    HW128484   1.693  13.083   6.020
75570SOL    HW228485   1.599  13.155   6.114
75571SOL     OW28486   5.255   0.378   6.761
75571SOL    HW128487   5.230   0.316   6.693
75571SOL    HW228488   5.320   0.434   6.718
75572SOL     OW28489   2.259   9.622   0.156
75572SOL    HW128490   2.286   9.680   0.084
75572SOL    HW228491   2.230   9.682   0.225
75573SOL     OW28492   5.986   9.150   7.946
75573SOL    HW128493   6.061   9.196   7.986
75573SOL    HW228494   6.022   9.107   7.869
75574SOL     OW28495  12.223   5.856   5.736
75574SOL    HW128496  12.306   5.894   5.766
75574SOL    HW228497  12.205   5.900   5.653
75575SOL     OW28498  10.095   1.806   8.818
75575SOL    HW128499  10.185   1.779   8.800
75575SOL    HW228500  10.099   1.843   8.907
75576SOL     OW28501   6.069   4.978   5.154
75576SOL    HW128502   6.157   4.958   5.187
75576SOL    HW228503   6.032   4.893   5.131
75577SOL     OW28504  12.311   0.447   9.525
75577SOL    HW128505  12.327   0.353   9.515
75577SOL    HW228506  12.387   0.479   9.574
75578SOL     OW28507   6.821   4.092  11.859
75578SOL    HW128508   6.874   4.161  11.899
75578SOL    HW228509   6.864   4.074  11.776
75579SOL     OW28510  12.289   7.382   3.892
75579SOL    HW128511  12.279   7.287   3.883
75579SOL    HW228512  12.240   7.418   3.818
75580SOL     OW28513   5.198   1.824  11.528
75580SOL    HW128514   5.191   1.919  11.521
75580SOL    HW228515   5.206   1.794  11.437
75581SOL     OW28516   8.421   2.831   1.569
75581SOL    HW128517   8.467   2.801   1.490
75581SOL    HW228518   8.471   2.908   1.597
75582SOL     OW28519   9.265   8.689  11.997
75582SOL    HW128520   9.277   8.782  11.979
75582SOL    HW228521   9.252   8.650  11.911
75583SOL     OW28522   9.373   2.556   2.412
75583SOL    HW128523   9.408   2.616   2.345
75583SOL    HW228524   9.449   2.505   2.441
75584SOL     OW28525   4.779   4.087   0.318
75584SOL    HW128526   4.765   4.182   0.318
75584SOL    HW228527   4.834   4.071   0.241
75585SOL     OW28528   7.151  12.364  13.441
75585SOL    HW128529   7.147  12.288  13.498
75585SOL    HW228530   7.228  12.348  13.385
75586SOL     OW28531  11.623   1.256   4.095
75586SOL    HW128532  11.547   1.220   4.140
75586SOL    HW228533  11.603   1.350   4.087
75587SOL     OW28534  11.526   2.432   6.559
75587SOL    HW128535  11.494   2.515   6.593
75587SOL    HW228536  11.502   2.368   6.626
75588SOL     OW28537   5.260  13.629  11.626
75588SOL    HW128538   5.347  13.619  11.665
75588SOL    HW228539   5.200  13.595  11.692
75589SOL     OW28540  11.568   1.412   6.672
75589SOL    HW128541  11.536   1.472   6.604
75589SOL    HW228542  11.519   1.437   6.750
75590SOL     OW28543   5.037   0.377   7.498
75590SOL    HW128544   4.987   0.411   7.424
75590SOL    HW228545   5.044   0.283   7.481
75591SOL     OW28546   6.840  12.620   5.854
75591SOL    HW128547   6.911  12.615   5.919
75591SOL    HW228548   6.763  12.645   5.905
75592SOL     OW28549  10.793   2.900   8.299
75592SOL    HW128550  10.864   2.957   8.270
75592SOL    HW228551  10.762   2.857   8.220
75593SOL     OW28552  11.500  11.708   2.906
75593SOL    HW128553  11.535  11.627   2.870
75593SOL    HW228554  11.496  11.768   2.831
75594SOL     OW28555   9.798   8.333   4.128
75594SOL    HW128556   9.840   8.351   4.044
75594SOL    HW228557   9.843   8.255   4.161
75595SOL     OW28558   0.557   8.429  11.575
75595SOL    HW128559   0.534   8.494  11.641
75595SOL    HW228560   0.529   8.345  11.612
75596SOL     OW28561  13.467  11.662  13.178
75596SOL    HW128562  13.481  11.673  13.084
75596SOL    HW228563  13.377  11.688  13.192
75597SOL     OW28564   0.234   1.682  14.185
75597SOL    HW128565   0.245   1.762  14.135
75597SOL    HW228566   0.316   1.634  14.173
75598SOL     OW28567   1.487  13.090   8.654
75598SOL    HW128568   1.477  13.185   8.643
75598SOL    HW228569   1.541  13.080   8.732
75599SOL     OW28570   8.936  14.650   3.351
75599SOL    HW128571   8.872  14.578   3.359
75599SOL    HW228572   9.019  14.606   3.334
75600SOL     OW28573  13.646  10.253   6.763
75600SOL    HW128574  13.613  10.186   6.703
75600SOL    HW228575  13.680  10.203   6.838
75601SOL     OW28576   1.276   2.496  12.947
75601SOL    HW128577   1.232   2.413  12.967
75601SOL    HW228578   1.209   2.563  12.961
75602SOL     OW28579   5.871   7.242   6.714
75602SOL    HW128580   5.935   7.180   6.680
75602SOL    HW228581   5.894   7.326   6.674
75603SOL     OW28582   1.491   3.887   1.277
75603SOL    HW128583   1.436   3.809   1.272
75603SOL    HW228584   1.429   3.959   1.288
75604SOL     OW28585   8.520   4.382   1.639
75604SOL    HW128586   8.430   4.354   1.621
75604SOL    HW228587   8.516   4.420   1.727
75605SOL     OW28588  11.286   1.082   9.563
75605SOL    HW128589  11.366   1.033   9.545
75605SOL    HW228590  11.316   1.163   9.604
75606SOL     OW28591   8.164  13.129   6.913
75606SOL    HW128592   8.123  13.128   7.000
75606SOL    HW228593   8.130  13.208   6.872
75607SOL     OW28594  12.451  14.155   0.351
75607SOL    HW128595  12.543  14.131   0.345
75607SOL    HW228596  12.408  14.077   0.386
75608SOL     OW28597   7.015   9.433   4.660
75608SOL    HW128598   6.948   9.413   4.726
75608SOL    HW228599   7.077   9.361   4.665
75609SOL     OW28600   2.566   5.427  11.674
75609SOL    HW128601   2.596   5.431  11.583
75609SOL    HW228602   2.510   5.504  11.684
75610SOL     OW28603  14.010   5.200   5.587
75610SOL    HW128604  13.948   5.137   5.551
75610SOL    HW228605  14.090   5.148   5.601
75611SOL     OW28606   2.833  11.073  14.317
75611SOL    HW128607   2.824  11.162  14.351
75611SOL    HW228608   2.755  11.028  14.347
75612SOL     OW28609  14.055  12.812   7.154
75612SOL    HW128610  14.067  12.865   7.233
75612SOL    HW228611  14.108  12.856   7.087
75613SOL     OW28612   1.722   4.203   2.514
75613SOL    HW128613   1.777   4.222   2.438
75613SOL    HW228614   1.784   4.189   2.585
75614SOL     OW28615   3.107   9.948   9.836
75614SOL    HW128616   3.019   9.909   9.830
75614SOL    HW228617   3.104  10.022   9.775
75615SOL     OW28618   9.157  14.355  12.756
75615SOL    HW128619   9.102  14.298  12.809
75615SOL    HW228620   9.189  14.422  12.817
75616SOL     OW28621  11.526  12.079   9.885
75616SOL    HW128622  11.528  12.097   9.791
75616SOL    HW228623  11.439  12.107   9.913
75617SOL     OW28624   1.210   4.954   0.855
75617SOL    HW128625   1.231   4.902   0.777
75617SOL    HW228626   1.283   5.015   0.863
75618SOL     OW28627   5.411   5.321   1.279
75618SOL    HW128628   5.401   5.294   1.188
75618SOL    HW228629   5.489   5.275   1.310
75619SOL     OW28630   5.029  12.422   0.556
75619SOL    HW128631   5.063  12.481   0.623
75619SOL    HW228632   4.934  12.423   0.569
75620SOL     OW28633  12.140   2.180   4.014
75620SOL    HW128634  12.091   2.242   4.069
75620SOL    HW228635  12.074   2.119   3.981
75621SOL     OW28636   4.677   5.408   9.439
75621SOL    HW128637   4.763   5.371   9.455
75621SOL    HW228638   4.620   5.365   9.503
75622SOL     OW28639   7.022  13.487   6.888
75622SOL    HW128640   7.089  13.522   6.946
75622SOL    HW228641   6.961  13.441   6.946
75623SOL     OW28642   7.112  13.408   3.315
75623SOL    HW128643   7.197  13.444   3.289
75623SOL    HW228644   7.085  13.462   3.389
75624SOL     OW28645   3.347   4.063   7.543
75624SOL    HW128646   3.394   4.104   7.615
75624SOL    HW228647   3.255   4.064   7.570
75625SOL     OW28648  14.821   0.668   0.516
75625SOL    HW128649  14.821   0.573   0.513
75625SOL    HW228650  14.741   0.690   0.565
75626SOL     OW28651   9.173   8.254   6.491
75626SOL    HW128652   9.100   8.261   6.428
75626SOL    HW228653   9.176   8.340   6.533
75627SOL     OW28654  10.083   0.386  10.241
75627SOL    HW128655  10.164   0.394  10.291
75627SOL    HW228656  10.053   0.477  10.230
75628SOL     OW28657   7.128   2.425  10.109
75628SOL    HW128658   7.098   2.512  10.137
75628SOL    HW228659   7.198   2.403  10.170
75629SOL     OW28660  11.507  11.925   5.948
75629SOL    HW128661  11.532  11.833   5.944
75629SOL    HW228662  11.503  11.945   6.042
75630SOL     OW28663  11.687  12.278   5.597
75630SOL    HW128664  11.673  12.365   5.634
75630SOL    HW228665  11.613  12.265   5.538
75631SOL     OW28666   1.609   9.725  10.287
75631SOL    HW128667   1.539   9.675  10.246
75631SOL    HW228668   1.577   9.745  10.375
75632SOL     OW28669   2.061  11.981   8.272
75632SOL    HW128670   2.038  11.983   8.365
75632SOL    HW228671   2.070  12.072   8.247
75633SOL     OW28672   2.657  10.637  14.789
75633SOL    HW128673   2.719  10.575  14.827
75633SOL    HW228674   2.712  10.704  14.748
75634SOL     OW28675   0.931   9.173  10.928
75634SOL    HW128676   0.956   9.261  10.899
75634SOL    HW228677   0.855   9.151  10.874
75635SOL     OW28678   5.884   1.650   4.041
75635SOL    HW128679   5.957   1.707   4.063
75635SOL    HW228680   5.877   1.656   3.946
75636SOL     OW28681  11.104  14.282  12.577
75636SOL    HW128682  11.055  14.205  12.547
75636SOL    HW228683  11.043  14.328  12.635
75637SOL     OW28684   4.359   7.726   3.520
75637SOL    HW128685   4.315   7.652   3.478
75637SOL    HW228686   4.418   7.686   3.584
75638SOL     OW28687   1.304   6.547   4.225
75638SOL    HW128688   1.236   6.567   4.289
75638SOL    HW228689   1.325   6.455   4.241
75639SOL     OW28690  13.718  14.416  11.145
75639SOL    HW128691  13.695  14.390  11.234
75639SOL    HW228692  13.791  14.476  11.156
75640SOL     OW28693   9.641   2.072   9.063
75640SOL    HW128694   9.696   1.997   9.087
75640SOL    HW228695   9.560   2.032   9.030
75641SOL     OW28696   8.238   8.697   2.257
75641SOL    HW128697   8.225   8.748   2.177
75641SOL    HW228698   8.326   8.719   2.286
75642SOL     OW28699   8.741   8.251  12.324
75642SOL    HW128700   8.789   8.320  12.277
75642SOL    HW228701   8.702   8.297  12.399
75643SOL     OW28702  10.696  11.193  13.726
75643SOL    HW128703  10.740  11.268  13.686
75643SOL    HW228704  10.605  11.199  13.697
75644SOL     OW28705   5.109   1.668   8.384
75644SOL    HW128706   5.202   1.651   8.372
75644SOL    HW228707   5.093   1.652   8.477
75645SOL     OW28708   6.067   3.561   2.184
75645SOL    HW128709   6.141   3.583   2.241
75645SOL    HW228710   6.099   3.489   2.130
75646SOL     OW28711  14.390   2.883   3.835
75646SOL    HW128712  14.313   2.938   3.821
75646SOL    HW228713  14.457   2.921   3.778
75647SOL     OW28714  11.338  13.564  12.888
75647SOL    HW128715  11.427  13.532  12.903
75647SOL    HW228716  11.345  13.619  12.810
75648SOL     OW28717  11.798   7.333   1.909
75648SOL    HW128718  11.746   7.413   1.897
75648SOL    HW228719  11.760   7.291   1.986
75649SOL     OW28720   0.341   8.915   3.888
75649SOL    HW128721   0.332   8.834   3.837
75649SOL    HW228722   0.250   8.942   3.904
75650SOL     OW28723   1.975   3.438   5.233
75650SOL    HW128724   1.879   3.443   5.227
75650SOL    HW228725   2.004   3.440   5.142
75651SOL     OW28726   3.643   5.805  14.005
75651SOL    HW128727   3.627   5.711  13.993
75651SOL    HW228728   3.574   5.833  14.065
75652SOL     OW28729  13.253  12.261   0.819
75652SOL    HW128730  13.190  12.332   0.822
75652SOL    HW228731  13.331  12.297   0.862
75653SOL     OW28732  12.357   0.531  12.703
75653SOL    HW128733  12.391   0.617  12.679
75653SOL    HW228734  12.390   0.473  12.634
75654SOL     OW28735   0.816   4.620  14.447
75654SOL    HW128736   0.809   4.714  14.459
75654SOL    HW228737   0.900   4.607  14.404
75655SOL     OW28738   9.241   6.551   1.627
75655SOL    HW128739   9.202   6.587   1.706
75655SOL    HW228740   9.298   6.481   1.659
75656SOL     OW28741  11.796   6.595   3.249
75656SOL    HW128742  11.771   6.554   3.166
75656SOL    HW228743  11.716   6.637   3.280
75657SOL     OW28744  12.567   0.892   5.800
75657SOL    HW128745  12.617   0.956   5.850
75657SOL    HW228746  12.500   0.943   5.754
75658SOL     OW28747   8.743   2.471   4.531
75658SOL    HW128748   8.810   2.489   4.466
75658SOL    HW228749   8.663   2.457   4.481
75659SOL     OW28750   4.578  14.027   7.602
75659SOL    HW128751   4.592  14.113   7.640
75659SOL    HW228752   4.665  14.002   7.569
75660SOL     OW28753   1.185   6.451   8.331
75660SOL    HW128754   1.213   6.513   8.399
75660SOL    HW228755   1.216   6.366   8.361
75661SOL     OW28756  13.691  13.885   8.541
75661SOL    HW128757  13.596  13.885   8.528
75661SOL    HW228758  13.701  13.890   8.636
75662SOL     OW28759   9.999  14.427   3.307
75662SOL    HW128760  10.032  14.477   3.232
75662SOL    HW228761  10.071  14.428   3.370
75663SOL     OW28762   2.390  12.102   1.912
75663SOL    HW128763   2.295  12.101   1.918
75663SOL    HW228764   2.420  12.138   1.996
75664SOL     OW28765   7.481  10.259   6.625
75664SOL    HW128766   7.533  10.332   6.659
75664SOL    HW228767   7.490  10.190   6.690
75665SOL     OW28768   8.089   0.642   2.382
75665SOL    HW128769   8.184   0.646   2.367
75665SOL    HW228770   8.053   0.607   2.300
75666SOL     OW28771  14.220  10.773   1.223
75666SOL    HW128772  14.266  10.785   1.306
75666SOL    HW228773  14.262  10.696   1.183
75667SOL     OW28774   8.590  13.230   3.868
75667SOL    HW128775   8.515  13.174   3.889
75667SOL    HW228776   8.619  13.200   3.782
75668SOL     OW28777   4.837   2.125   6.693
75668SOL    HW128778   4.815   2.098   6.782
75668SOL    HW228779   4.786   2.204   6.678
75669SOL     OW28780   5.714  13.430   9.251
75669SOL    HW128781   5.726  13.438   9.346
75669SOL    HW228782   5.730  13.519   9.218
75670SOL     OW28783  12.110   1.094  12.798
75670SOL    HW128784  12.038   1.075  12.738
75670SOL    HW228785  12.180   1.127  12.742
75671SOL     OW28786   4.507  14.089   5.655
75671SOL    HW128787   4.471  14.002   5.666
75671SOL    HW228788   4.431  14.144   5.632
75672SOL     OW28789   6.106   4.927   4.238
75672SOL    HW128790   6.159   5.005   4.252
75672SOL    HW228791   6.134   4.893   4.153
75673SOL     OW28792   2.911   5.954   4.497
75673SOL    HW128793   2.960   5.886   4.452
75673SOL    HW228794   2.822   5.947   4.462
75674SOL     OW28795   9.777   1.032  11.567
75674SOL    HW128796   9.700   1.061  11.518
75674SOL    HW228797   9.803   1.108  11.619
75675SOL     OW28798  13.306  12.637   8.835
75675SOL    HW128799  13.233  12.584   8.803
75675SOL    HW228800  13.334  12.688   8.760
75676SOL     OW28801   7.873   0.952   4.395
75676SOL    HW128802   7.882   1.034   4.346
75676SOL    HW228803   7.948   0.900   4.367
75677SOL     OW28804  11.867   1.325   5.319
75677SOL    HW128805  11.849   1.305   5.227
75677SOL    HW228806  11.830   1.412   5.333
75678SOL     OW28807   8.592  10.910  14.203
75678SOL    HW128808   8.612  10.999  14.235
75678SOL    HW228809   8.548  10.867  14.276
75679SOL     OW28810  11.246  12.770  13.256
75679SOL    HW128811  11.176  12.706  13.266
75679SOL    HW228812  11.230  12.834  13.326
75680SOL     OW28813   5.392  11.347  13.021
75680SOL    HW128814   5.384  11.328  12.928
75680SOL    HW228815   5.330  11.419  13.036
75681SOL     OW28816   2.270   8.814   7.795
75681SOL    HW128817   2.328   8.863   7.737
75681SOL    HW228818   2.203   8.877   7.822
75682SOL     OW28819   6.743   0.513   8.369
75682SOL    HW128820   6.784   0.532   8.284
75682SOL    HW228821   6.800   0.445   8.407
75683SOL     OW28822   8.793   7.846   9.386
75683SOL    HW128823   8.822   7.910   9.451
75683SOL    HW228824   8.780   7.765   9.435
75684SOL     OW28825   4.788  13.898  14.595
75684SOL    HW128826   4.752  13.881  14.509
75684SOL    HW228827   4.883  13.897  14.582
75685SOL     OW28828   9.612   0.882   6.736
75685SOL    HW128829   9.523   0.905   6.712
75685SOL    HW228830   9.657   0.869   6.652
75686SOL     OW28831   5.870   3.815   4.756
75686SOL    HW128832   5.958   3.849   4.771
75686SOL    HW228833   5.813   3.893   4.756
75687SOL     OW28834   0.875  12.426  13.388
75687SOL    HW128835   0.792  12.444  13.344
75687SOL    HW228836   0.852  12.416  13.480
75688SOL     OW28837   2.446  10.732  13.959
75688SOL    HW128838   2.530  10.757  13.998
75688SOL    HW228839   2.383  10.743  14.030
75689SOL     OW28840   2.804   8.786   9.583
75689SOL    HW128841   2.872   8.797   9.650
75689SOL    HW228842   2.812   8.695   9.555
75690SOL     OW28843  10.591   1.047   2.085
75690SOL    HW128844  10.597   0.951   2.084
75690SOL    HW228845  10.589   1.070   2.178
75691SOL     OW28846  12.290  10.794   3.913
75691SOL    HW128847  12.342  10.746   3.978
75691SOL    HW228848  12.325  10.765   3.829
75692SOL     OW28849  12.904  11.106   4.916
75692SOL    HW128850  12.953  11.124   4.836
75692SOL    HW228851  12.827  11.058   4.886
75693SOL     OW28852   3.997   3.093  12.187
75693SOL    HW128853   3.922   3.045  12.153
75693SOL    HW228854   3.981   3.184  12.161
75694SOL     OW28855  10.969   1.958  13.127
75694SOL    HW128856  10.912   1.908  13.069
75694SOL    HW228857  11.058   1.930  13.103
75695SOL     OW28858  12.201   3.804  10.968
75695SOL    HW128859  12.173   3.715  10.948
75695SOL    HW228860  12.120   3.852  10.983
75696SOL     OW28861   0.933   8.600   7.468
75696SOL    HW128862   1.007   8.603   7.527
75696SOL    HW228863   0.966   8.634   7.385
75697SOL     OW28864   6.817  11.934   6.938
75697SOL    HW128865   6.751  11.913   6.872
75697SOL    HW228866   6.830  11.853   6.986
75698SOL     OW28867  12.753  13.997   2.943
75698SOL    HW128868  12.795  14.056   3.005
75698SOL    HW228869  12.745  14.048   2.862
75699SOL     OW28870  14.167   1.156  14.527
75699SOL    HW128871  14.079   1.124  14.548
75699SOL    HW228872  14.174   1.146  14.432
75700SOL     OW28873  10.167   2.421  14.412
75700SOL    HW128874  10.085   2.464  14.436
75700SOL    HW228875  10.215   2.414  14.494
75701SOL     OW28876   4.826   8.480   1.577
75701SOL    HW128877   4.839   8.429   1.496
75701SOL    HW228878   4.874   8.431   1.644
75702SOL     OW28879   3.142  14.182   8.541
75702SOL    HW128880   3.112  14.259   8.590
75702SOL    HW228881   3.061  14.139   8.513
75703SOL     OW28882  10.921   2.055   6.660
75703SOL    HW128883  10.899   2.007   6.740
75703SOL    HW228884  10.896   1.996   6.589
75704SOL     OW28885   7.410   2.477   2.359
75704SOL    HW128886   7.485   2.503   2.412
75704SOL    HW228887   7.409   2.382   2.364
75705SOL     OW28888   8.569   1.593  11.172
75705SOL    HW128889   8.534   1.542  11.098
75705SOL    HW228890   8.569   1.683  11.139
75706SOL     OW28891   9.305   1.755   4.178
75706SOL    HW128892   9.392   1.758   4.217
75706SOL    HW228893   9.285   1.661   4.171
75707SOL     OW28894   4.140   7.898   6.220
75707SOL    HW128895   4.142   7.873   6.312
75707SOL    HW228896   4.219   7.858   6.183
75708SOL     OW28897   5.288  13.675   5.831
75708SOL    HW128898   5.300  13.583   5.856
75708SOL    HW228899   5.198  13.680   5.800
75709SOL     OW28900   1.278   1.821   6.643
75709SOL    HW128901   1.240   1.829   6.731
75709SOL    HW228902   1.224   1.879   6.589
75710SOL     OW28903   5.802   3.576  14.222
75710SOL    HW128904   5.800   3.630  14.301
75710SOL    HW228905   5.710   3.566  14.198
75711SOL     OW28906   9.176  12.878  12.232
75711SOL    HW128907   9.166  12.801  12.288
75711SOL    HW228908   9.269  12.882  12.213
75712SOL     OW28909  10.480   6.275  14.702
75712SOL    HW128910  10.502   6.339  14.635
75712SOL    HW228911  10.545   6.205  14.691
75713SOL     OW28912   5.603  14.436   9.991
75713SOL    HW128913   5.675  14.475   9.943
75713SOL    HW228914   5.530  14.496   9.978
75714SOL     OW28915   6.021   7.115  10.500
75714SOL    HW128916   5.934   7.082  10.521
75714SOL    HW228917   6.030   7.101  10.406
75715SOL     OW28918  14.707  10.175   6.048
75715SOL    HW128919  14.737  10.145   5.962
75715SOL    HW228920  14.773  10.238   6.076
75716SOL     OW28921  13.630  11.494  13.316
75716SOL    HW128922  13.569  11.544  13.261
75716SOL    HW228923  13.687  11.561  13.354
75717SOL     OW28924   5.044   3.101  12.308
75717SOL    HW128925   5.055   3.159  12.383
75717SOL    HW228926   5.084   3.148  12.235
75718SOL     OW28927   9.048  14.861   7.022
75718SOL    HW128928   9.035  14.835   6.931
75718SOL    HW228929   9.115   0.052   7.017
75719SOL     OW28930  11.006   3.013   3.636
75719SOL    HW128931  11.033   2.957   3.563
75719SOL    HW228932  10.991   3.099   3.596
75720SOL     OW28933   6.278   5.954  11.827
75720SOL    HW128934   6.283   5.924  11.917
75720SOL    HW228935   6.367   5.979  11.804
75721SOL     OW28936  14.374   2.886  13.123
75721SOL    HW128937  14.370   2.876  13.218
75721SOL    HW228938  14.382   2.797  13.090
75722SOL     OW28939   7.256   8.320  10.835
75722SOL    HW128940   7.320   8.283  10.895
75722SOL    HW228941   7.260   8.265  10.757
75723SOL     OW28942  14.110   9.957   0.027
75723SOL    HW128943  14.130  10.045   0.057
75723SOL    HW228944  14.178   9.902   0.067
75724SOL     OW28945   9.314  12.738   3.501
75724SOL    HW128946   9.262  12.657   3.504
75724SOL    HW228947   9.404  12.708   3.494
75725SOL     OW28948  11.019  13.869   9.452
75725SOL    HW128949  11.004  13.777   9.473
75725SOL    HW228950  11.060  13.868   9.366
75726SOL     OW28951  10.384   8.119  12.411
75726SOL    HW128952  10.422   8.130  12.324
75726SOL    HW228953  10.290   8.132  12.399
75727SOL     OW28954  10.980   2.029  13.537
75727SOL    HW128955  10.920   2.062  13.604
75727SOL    HW228956  11.062   2.015  13.585
75728SOL     OW28957   3.338   1.080   2.421
75728SOL    HW128958   3.245   1.094   2.441
75728SOL    HW228959   3.377   1.057   2.506
75729SOL     OW28960  10.389  12.254  14.492
75729SOL    HW128961  10.456  12.296  14.545
75729SOL    HW228962  10.428  12.170  14.468
75730SOL     OW28963   0.762   8.324  12.030
75730SOL    HW128964   0.773   8.256  11.963
75730SOL    HW228965   0.669   8.343  12.029
75731SOL     OW28966   5.422   4.255   4.126
75731SOL    HW128967   5.427   4.164   4.096
75731SOL    HW228968   5.475   4.304   4.063
75732SOL     OW28969   4.997  10.115   6.168
75732SOL    HW128970   4.951  10.105   6.251
75732SOL    HW228971   4.951  10.056   6.108
75733SOL     OW28972   4.582   7.587   9.903
75733SOL    HW128973   4.668   7.625   9.889
75733SOL    HW228974   4.582   7.506   9.852
75734SOL     OW28975   0.791   5.502  11.453
75734SOL    HW128976   0.826   5.550  11.528
75734SOL    HW228977   0.697   5.521  11.455
75735SOL     OW28978   1.283  13.602   7.827
75735SOL    HW128979   1.376  13.579   7.820
75735SOL    HW228980   1.241  13.524   7.863
75736SOL     OW28981  10.719   3.552  10.419
75736SOL    HW128982  10.803   3.506  10.417
75736SOL    HW228983  10.654   3.484  10.404
75737SOL     OW28984  14.108  10.053  14.328
75737SOL    HW128985  14.083  10.139  14.361
75737SOL    HW228986  14.154  10.012  14.401
75738SOL     OW28987   3.702   0.008  10.800
75738SOL    HW128988   3.626  14.853  10.753
75738SOL    HW228989   3.777  14.860  10.746
75739SOL     OW28990   6.756  13.636   3.053
75739SOL    HW128991   6.751  13.567   3.119
75739SOL    HW228992   6.701  13.603   2.981
75740SOL     OW28993   8.767   2.191   7.772
75740SOL    HW128994   8.805   2.244   7.702
75740SOL    HW228995   8.800   2.103   7.758
75741SOL     OW28996   2.724   8.222   3.951
75741SOL    HW128997   2.817   8.212   3.930
75741SOL    HW228998   2.720   8.303   4.002
75742SOL     OW28999   8.309   3.028   2.391
75742SOL    HW129000   8.353   2.948   2.362
75742SOL    HW229001   8.218   3.017   2.363
75743SOL     OW29002   0.856   0.363   2.265
75743SOL    HW129003   0.877   0.391   2.176
75743SOL    HW229004   0.920   0.294   2.283
75744SOL     OW29005   8.303   6.615   0.285
75744SOL    HW129006   8.259   6.619   0.200
75744SOL    HW229007   8.307   6.706   0.314
75745SOL     OW29008   2.745   2.156   4.812
75745SOL    HW129009   2.788   2.205   4.742
75745SOL    HW229010   2.667   2.208   4.832
75746SOL     OW29011   5.074  13.435   6.164
75746SOL    HW129012   5.015  13.445   6.088
75746SOL    HW229013   5.022  13.386   6.228
75747SOL     OW29014   5.897  10.652   3.578
75747SOL    HW129015   5.868  10.654   3.487
75747SOL    HW229016   5.961  10.724   3.584
75748SOL     OW29017  13.543   4.729   2.975
75748SOL    HW129018  13.545   4.736   2.880
75748SOL    HW229019  13.630   4.699   2.999
75749SOL     OW29020  10.383   7.265   0.122
75749SOL    HW129021  10.382   7.207   0.198
75749SOL    HW229022  10.460   7.238   0.072
75750SOL     OW29023  10.031   1.333  11.899
75750SOL    HW129024   9.971   1.317  11.826
75750SOL    HW229025  10.022   1.256  11.955
75751SOL     OW29026  14.283   8.766  13.455
75751SOL    HW129027  14.236   8.742  13.535
75751SOL    HW229028  14.328   8.686  13.429
75752SOL     OW29029   8.819   1.024  14.273
75752SOL    HW129030   8.725   1.037  14.257
75752SOL    HW229031   8.862   1.076  14.205
75753SOL     OW29032   9.400   2.247   6.450
75753SOL    HW129033   9.334   2.264   6.383
75753SOL    HW229034   9.483   2.271   6.408
75754SOL     OW29035  12.309   3.373   6.416
75754SOL    HW129036  12.259   3.420   6.483
75754SOL    HW229037  12.389   3.425   6.406
75755SOL     OW29038  10.576   5.222   4.600
75755SOL    HW129039  10.533   5.146   4.562
75755SOL    HW229040  10.573   5.288   4.531
75756SOL     OW29041   0.389  13.824   5.703
75756SOL    HW129042   0.414  13.911   5.674
75756SOL    HW229043   0.299  13.834   5.735
75757SOL     OW29044  10.809  14.828   9.118
75757SOL    HW129045  10.840  14.812   9.207
75757SOL    HW229046  10.877   0.005   9.079
75758SOL     OW29047   9.219  10.069   5.095
75758SOL    HW129048   9.154  10.077   5.165
75758SOL    HW229049   9.254  10.157   5.085
75759SOL     OW29050   3.534   6.500   3.531
75759SOL    HW129051   3.595   6.536   3.595
75759SOL    HW229052   3.537   6.563   3.458
75760SOL     OW29053   2.265   2.870   3.758
75760SOL    HW129054   2.220   2.920   3.825
75760SOL    HW229055   2.241   2.779   3.776
75761SOL     OW29056   7.137   0.976   8.839
75761SOL    HW129057   7.160   0.954   8.748
75761SOL    HW229058   7.042   0.973   8.841
75762SOL     OW29059   9.024  11.403   7.215
75762SOL    HW129060   8.954  11.379   7.154
75762SOL    HW229061   8.993  11.485   7.255
75763SOL     OW29062   0.873  14.143  10.580
75763SOL    HW129063   0.815  14.210  10.545
75763SOL    HW229064   0.827  14.061  10.566
75764SOL     OW29065   5.273   8.031   5.981
75764SOL    HW129066   5.243   8.078   6.059
75764SOL    HW229067   5.363   8.006   6.001
75765SOL     OW29068   7.030   0.671  13.451
75765SOL    HW129069   6.999   0.611  13.518
75765SOL    HW229070   7.100   0.720  13.494
75766SOL     OW29071  12.241   5.040   7.160
75766SOL    HW129072  12.228   4.960   7.109
75766SOL    HW229073  12.336   5.047   7.169
75767SOL     OW29074   5.501  13.970   0.987
75767SOL    HW129075   5.426  13.912   1.000
75767SOL    HW229076   5.494  13.999   0.897
75768SOL     OW29077  13.019  13.964  14.323
75768SOL    HW129078  13.081  13.890  14.324
75768SOL    HW229079  12.934  13.923  14.305
75769SOL     OW29080   7.539   3.237  12.503
75769SOL    HW129081   7.509   3.281  12.582
75769SOL    HW229082   7.631   3.218  12.520
75770SOL     OW29083  13.552  11.160   3.057
75770SOL    HW129084  13.460  11.179   3.077
75770SOL    HW229085  13.562  11.187   2.965
75771SOL     OW29086   1.178   9.954  10.727
75771SOL    HW129087   1.272   9.939  10.732
75771SOL    HW229088   1.166  10.046  10.752
75772SOL     OW29089   7.481  11.649   8.918
75772SOL    HW129090   7.454  11.570   8.964
75772SOL    HW229091   7.577  11.644   8.917
75773SOL     OW29092   7.576   4.805   8.072
75773SOL    HW129093   7.638   4.734   8.089
75773SOL    HW229094   7.614   4.881   8.116
75774SOL     OW29095   2.340  11.522   6.048
75774SOL    HW129096   2.307  11.459   6.112
75774SOL    HW229097   2.372  11.469   5.975
75775SOL     OW29098   4.962  14.329   2.140
75775SOL    HW129099   4.920  14.332   2.226
75775SOL    HW229100   4.934  14.410   2.097
75776SOL     OW29101   7.760  13.483   6.405
75776SOL    HW129102   7.720  13.554   6.455
75776SOL    HW229103   7.721  13.403   6.441
75777SOL     OW29104  14.652   1.775  12.279
75777SOL    HW129105  14.680   1.731  12.359
75777SOL    HW229106  14.568   1.735  12.257
75778SOL     OW29107   0.038   8.286   5.740
75778SOL    HW129108   0.081   8.202   5.726
75778SOL    HW229109   0.102   8.351   5.712
75779SOL     OW29110  11.362   7.065   2.294
75779SOL    HW129111  11.347   7.119   2.216
75779SOL    HW229112  11.383   6.979   2.259
75780SOL     OW29113   6.643   7.954  14.637
75780SOL    HW129114   6.632   7.985  14.726
75780SOL    HW229115   6.720   7.897  14.641
75781SOL     OW29116   6.734   4.882   1.032
75781SOL    HW129117   6.709   4.935   1.108
75781SOL    HW229118   6.802   4.824   1.065
75782SOL     OW29119   8.057  14.126  11.768
75782SOL    HW129120   8.151  14.115  11.755
75782SOL    HW229121   8.019  14.044  11.737
75783SOL     OW29122   0.576   5.162  14.531
75783SOL    HW129123   0.656   5.203  14.499
75783SOL    HW229124   0.507   5.197  14.474
75784SOL     OW29125   4.277  11.263  10.284
75784SOL    HW129126   4.364  11.233  10.257
75784SOL    HW229127   4.256  11.211  10.361
75785SOL     OW29128  14.645  13.058   6.067
75785SOL    HW129129  14.626  13.052   5.974
75785SOL    HW229130  14.621  13.148   6.090
75786SOL     OW29131  14.435   1.092   2.889
75786SOL    HW129132  14.397   1.106   2.976
75786SOL    HW229133  14.458   0.999   2.889
75787SOL     OW29134   0.731  13.695   2.077
75787SOL    HW129135   0.804  13.756   2.090
75787SOL    HW229136   0.753  13.619   2.131
75788SOL     OW29137  13.976   8.695  13.523
75788SOL    HW129138  13.994   8.742  13.605
75788SOL    HW229139  14.002   8.757  13.454
75789SOL     OW29140  11.624   0.854   8.287
75789SOL    HW129141  11.715   0.840   8.264
75789SOL    HW229142  11.576   0.786   8.240
75790SOL     OW29143   5.002   3.594   3.276
75790SOL    HW129144   4.999   3.550   3.361
75790SOL    HW229145   5.013   3.522   3.213
75791SOL     OW29146   3.563   3.264  10.552
75791SOL    HW129147   3.521   3.324  10.491
75791SOL    HW229148   3.539   3.298  10.639
75792SOL     OW29149   7.629  13.798   3.048
75792SOL    HW129150   7.707  13.814   2.994
75792SOL    HW229151   7.581  13.881   3.045
75793SOL     OW29152   6.734  10.275  10.317
75793SOL    HW129153   6.715  10.279  10.223
75793SOL    HW229154   6.825  10.306  10.324
75794SOL     OW29155   4.688  13.334   2.675
75794SOL    HW129156   4.694  13.430   2.673
75794SOL    HW229157   4.754  13.305   2.612
75795SOL     OW29158  13.465  13.880  13.695
75795SOL    HW129159  13.392  13.851  13.641
75795SOL    HW229160  13.543  13.844  13.653
75796SOL     OW29161  14.577   5.130  14.550
75796SOL    HW129162  14.597   5.213  14.593
75796SOL    HW229163  14.532   5.078  14.617
75797SOL     OW29164  11.682   2.351   5.408
75797SOL    HW129165  11.648   2.389   5.489
75797SOL    HW229166  11.777   2.352   5.419
75798SOL     OW29167   1.844   5.935   4.431
75798SOL    HW129168   1.824   6.008   4.372
75798SOL    HW229169   1.792   5.952   4.509
75799SOL     OW29170  14.609   8.193   1.043
75799SOL    HW129171  14.626   8.106   1.079
75799SOL    HW229172  14.610   8.181   0.948
75800SOL     OW29173   6.179   4.347  10.669
75800SOL    HW129174   6.146   4.265  10.703
75800SOL    HW229175   6.169   4.409  10.741
75801SOL     OW29176  10.925   3.065   1.289
75801SOL    HW129177  10.842   3.044   1.333
75801SOL    HW229178  10.902   3.068   1.196
75802SOL     OW29179   2.144   0.181   3.337
75802SOL    HW129180   2.214   0.244   3.317
75802SOL    HW229181   2.068   0.214   3.290
75803SOL     OW29182   5.655   9.729  12.571
75803SOL    HW129183   5.566   9.762  12.583
75803SOL    HW229184   5.682   9.701  12.659
75804SOL     OW29185  12.631  13.037  12.984
75804SOL    HW129186  12.666  12.977  12.918
75804SOL    HW229187  12.569  13.092  12.937
75805SOL     OW29188   7.612   5.395   8.829
75805SOL    HW129189   7.593   5.480   8.869
75805SOL    HW229190   7.707   5.386   8.838
75806SOL     OW29191   5.976   6.517  14.506
75806SOL    HW129192   5.992   6.491  14.416
75806SOL    HW229193   5.900   6.464  14.533
75807SOL     OW29194   0.337  10.265   3.165
75807SOL    HW129195   0.368  10.177   3.144
75807SOL    HW229196   0.401  10.324   3.125
75808SOL     OW29197  11.507   2.091   1.721
75808SOL    HW129198  11.480   2.182   1.724
75808SOL    HW229199  11.596   2.091   1.757
75809SOL     OW29200   6.105  11.426   5.719
75809SOL    HW129201   6.184  11.449   5.670
75809SOL    HW229202   6.127  11.342   5.760
75810SOL     OW29203   0.275   1.608   1.008
75810SOL    HW129204   0.243   1.647   0.927
75810SOL    HW229205   0.228   1.653   1.078
75811SOL     OW29206   3.880   0.342  13.897
75811SOL    HW129207   3.925   0.326  13.814
75811SOL    HW229208   3.823   0.417  13.880
75812SOL     OW29209  12.876  10.151   2.950
75812SOL    HW129210  12.784  10.173   2.940
75812SOL    HW229211  12.922  10.234   2.941
75813SOL     OW29212   8.475   8.429   0.970
75813SOL    HW129213   8.379   8.427   0.975
75813SOL    HW229214   8.504   8.390   1.053
75814SOL     OW29215  13.776  13.704   6.868
75814SOL    HW129216  13.735  13.635   6.815
75814SOL    HW229217  13.849  13.661   6.912
75815SOL     OW29218  13.523   9.964   5.209
75815SOL    HW129219  13.522  10.049   5.165
75815SOL    HW229220  13.434   9.954   5.244
75816SOL     OW29221   4.453   0.791  14.035
75816SOL    HW129222   4.469   0.798  13.940
75816SOL    HW229223   4.434   0.881  14.062
75817SOL     OW29224  14.120   7.222   9.008
75817SOL    HW129225  14.043   7.204   9.061
75817SOL    HW229226  14.085   7.243   8.921
75818SOL     OW29227   6.935   0.438   5.737
75818SOL    HW129228   6.985   0.360   5.711
75818SOL    HW229229   6.845   0.407   5.747
75819SOL     OW29230  14.426  11.210   1.294
75819SOL    HW129231  14.446  11.135   1.349
75819SOL    HW229232  14.383  11.173   1.217
75820SOL     OW29233  14.194   2.017   4.018
75820SOL    HW129234  14.215   1.952   4.085
75820SOL    HW229235  14.255   2.089   4.033
75821SOL     OW29236   2.913   8.415   8.638
75821SOL    HW129237   2.882   8.481   8.576
75821SOL    HW229238   2.932   8.464   8.718
75822SOL     OW29239   9.906  14.580   1.975
75822SOL    HW129240   9.916  14.639   2.050
75822SOL    HW229241   9.816  14.547   1.982
75823SOL     OW29242   7.883  12.995   9.648
75823SOL    HW129243   7.821  13.059   9.683
75823SOL    HW229244   7.962  13.046   9.632
75824SOL     OW29245   3.058   9.959   4.696
75824SOL    HW129246   2.993   9.896   4.666
75824SOL    HW229247   3.018  10.044   4.680
75825SOL     OW29248  12.832   1.189  10.585
75825SOL    HW129249  12.921   1.222  10.599
75825SOL    HW229250  12.815   1.202  10.492
75826SOL     OW29251  12.808   5.180  10.323
75826SOL    HW129252  12.811   5.267  10.284
75826SOL    HW229253  12.899   5.159  10.342
75827SOL     OW29254   7.956   0.807  11.057
75827SOL    HW129255   7.942   0.881  10.999
75827SOL    HW229256   7.944   0.844  11.145
75828SOL     OW29257  10.238   1.541   5.927
75828SOL    HW129258  10.150   1.538   5.967
75828SOL    HW229259  10.224   1.511   5.837
75829SOL     OW29260  11.654   4.420   3.436
75829SOL    HW129261  11.593   4.411   3.509
75829SOL    HW229262  11.703   4.338   3.436
75830SOL     OW29263   0.936   1.613   6.055
75830SOL    HW129264   1.027   1.627   6.027
75830SOL    HW229265   0.921   1.682   6.120
75831SOL     OW29266   2.780  11.033   0.749
75831SOL    HW129267   2.839  11.104   0.774
75831SOL    HW229268   2.767  11.044   0.655
75832SOL     OW29269   9.649  14.622   5.381
75832SOL    HW129270   9.554  14.628   5.389
75832SOL    HW229271   9.663  14.551   5.318
75833SOL     OW29272   8.897  11.981   6.093
75833SOL    HW129273   8.957  11.937   6.033
75833SOL    HW229274   8.917  11.944   6.179
75834SOL     OW29275   8.187   1.068   2.862
75834SOL    HW129276   8.179   1.136   2.795
75834SOL    HW229277   8.210   0.989   2.813
75835SOL     OW29278   2.440   6.473   8.822
75835SOL    HW129279   2.452   6.553   8.873
75835SOL    HW229280   2.425   6.504   8.732
75836SOL     OW29281   3.196   0.763   4.526
75836SOL    HW129282   3.281   0.774   4.568
75836SOL    HW229283   3.210   0.694   4.461
75837SOL     OW29284  12.541  11.203  13.352
75837SOL    HW129285  12.525  11.150  13.274
75837SOL    HW229286  12.636  11.210  13.357
75838SOL     OW29287   6.926   3.812   2.763
75838SOL    HW129288   6.920   3.787   2.856
75838SOL    HW229289   6.877   3.894   2.758
75839SOL     OW29290  11.736   6.172  12.063
75839SOL    HW129291  11.652   6.218  12.070
75839SOL    HW229292  11.795   6.237  12.025
75840SOL     OW29293   5.734  11.076   0.286
75840SOL    HW129294   5.787  11.156   0.278
75840SOL    HW229295   5.644  11.106   0.270
75841SOL     OW29296  10.476   0.899   8.041
75841SOL    HW129297  10.387   0.918   8.070
75841SOL    HW229298  10.502   0.822   8.090
75842SOL     OW29299   7.041   8.252   5.229
75842SOL    HW129300   7.031   8.323   5.291
75842SOL    HW229301   7.128   8.216   5.247
75843SOL     OW29302   5.069  12.165  11.016
75843SOL    HW129303   5.108  12.105  11.079
75843SOL    HW229304   5.120  12.152  10.936
75844SOL     OW29305   1.694   0.685  14.827
75844SOL    HW129306   1.761   0.626  14.792
75844SOL    HW229307   1.684   0.753  14.761
75845SOL     OW29308  11.157  10.174   6.418
75845SOL    HW129309  11.162  10.083   6.389
75845SOL    HW229310  11.079  10.208   6.375
75846SOL     OW29311   0.711   9.769  10.749
75846SOL    HW129312   0.700   9.674  10.755
75846SOL    HW229313   0.806   9.782  10.747
75847SOL     OW29314   8.935   3.820   1.245
75847SOL    HW129315   8.907   3.818   1.336
75847SOL    HW229316   8.863   3.780   1.197
75848SOL     OW29317  10.504   8.601   5.088
75848SOL    HW129318  10.448   8.540   5.135
75848SOL    HW229319  10.452   8.629   5.012
75849SOL     OW29320   1.931   2.150  14.532
75849SOL    HW129321   2.013   2.146  14.481
75849SOL    HW229322   1.873   2.206  14.480
75850SOL     OW29323   4.401   1.216   6.827
75850SOL    HW129324   4.413   1.301   6.868
75850SOL    HW229325   4.460   1.157   6.874
75851SOL     OW29326  12.910   9.334   1.865
75851SOL    HW129327  12.815   9.349   1.862
75851SOL    HW229328  12.920   9.239   1.861
75852SOL     OW29329   0.286  10.945   2.186
75852SOL    HW129330   0.203  10.900   2.170
75852SOL    HW229331   0.292  11.010   2.117
75853SOL     OW29332   6.487   4.440   0.216
75853SOL    HW129333   6.522   4.445   0.305
75853SOL    HW229334   6.393   4.459   0.226
75854SOL     OW29335   7.262   2.188  11.627
75854SOL    HW129336   7.197   2.123  11.652
75854SOL    HW229337   7.253   2.258  11.691
75855SOL     OW29338  14.586   6.225   9.961
75855SOL    HW129339  14.596   6.320   9.973
75855SOL    HW229340  14.603   6.187  10.047
75856SOL     OW29341  10.157   4.592   3.832
75856SOL    HW129342  10.217   4.632   3.769
75856SOL    HW229343  10.076   4.640   3.822
75857SOL     OW29344   4.159   3.203  10.558
75857SOL    HW129345   4.122   3.290  10.550
75857SOL    HW229346   4.175   3.174  10.468
75858SOL     OW29347  14.241  11.404   5.754
75858SOL    HW129348  14.282  11.438   5.675
75858SOL    HW229349  14.198  11.323   5.726
75859SOL     OW29350   3.948   9.867  12.676
75859SOL    HW129351   3.914   9.935  12.618
75859SOL    HW229352   3.995   9.915  12.745
75860SOL     OW29353  11.798  13.749  13.078
75860SOL    HW129354  11.849  13.758  13.158
75860SOL    HW229355  11.855  13.701  13.018
75861SOL     OW29356   4.671   3.361   1.491
75861SOL    HW129357   4.732   3.427   1.524
75861SOL    HW229358   4.650   3.390   1.402
75862SOL     OW29359  10.971   1.576  10.475
75862SOL    HW129360  10.934   1.662  10.494
75862SOL    HW229361  10.952   1.524  10.553
75863SOL     OW29362   5.785   9.230  10.452
75863SOL    HW129363   5.814   9.156  10.505
75863SOL    HW229364   5.838   9.225  10.372
75864SOL     OW29365   2.761   2.423  11.840
75864SOL    HW129366   2.846   2.451  11.873
75864SOL    HW229367   2.726   2.367  11.909
75865SOL     OW29368   0.962  10.018  11.529
75865SOL    HW129369   1.049  10.058  11.530
75865SOL    HW229370   0.951   9.987  11.439
75866SOL     OW29371  13.897  13.329   9.787
75866SOL    HW129372  13.803  13.346   9.787
75866SOL    HW229373  13.933  13.397   9.844
75867SOL     OW29374  14.677   5.635  13.981
75867SOL    HW129375  14.680   5.568  13.913
75867SOL    HW229376  14.768   5.645  14.009
75868SOL     OW29377  10.931   4.351  11.753
75868SOL    HW129378  10.881   4.429  11.778
75868SOL    HW229379  10.879   4.311  11.683
75869SOL     OW29380   8.487   9.653  12.998
75869SOL    HW129381   8.398   9.669  12.965
75869SOL    HW229382   8.543   9.707  12.943
75870SOL     OW29383   6.267   2.929   6.652
75870SOL    HW129384   6.312   2.943   6.569
75870SOL    HW229385   6.309   2.990   6.713
75871SOL     OW29386   8.310  11.791   3.624
75871SOL    HW129387   8.313  11.806   3.718
75871SOL    HW229388   8.329  11.697   3.614
75872SOL     OW29389   9.258   0.047  11.914
75872SOL    HW129390   9.305   0.116  11.960
75872SOL    HW229391   9.259   0.074  11.822
75873SOL     OW29392  11.008   2.422   2.032
75873SOL    HW129393  11.058   2.411   2.113
75873SOL    HW229394  11.040   2.354   1.973
75874SOL     OW29395   7.055   5.091   6.031
75874SOL    HW129396   6.979   5.138   6.066
75874SOL    HW229397   7.093   5.048   6.108
75875SOL     OW29398   3.646   4.128  13.951
75875SOL    HW129399   3.699   4.048  13.948
75875SOL    HW229400   3.636   4.147  14.045
75876SOL     OW29401  12.930  13.601   1.645
75876SOL    HW129402  12.959  13.649   1.722
75876SOL    HW229403  12.886  13.667   1.591
75877SOL     OW29404  11.782  14.194   4.585
75877SOL    HW129405  11.749  14.266   4.531
75877SOL    HW229406  11.819  14.132   4.521
75878SOL     OW29407   7.756   4.753   4.490
75878SOL    HW129408   7.764   4.843   4.522
75878SOL    HW229409   7.831   4.707   4.529
75879SOL     OW29410   3.293  12.630   0.772
75879SOL    HW129411   3.207  12.613   0.735
75879SOL    HW229412   3.275  12.669   0.857
75880SOL     OW29413  11.995   3.291   2.658
75880SOL    HW129414  12.027   3.378   2.635
75880SOL    HW229415  11.918   3.278   2.601
75881SOL     OW29416   8.949  14.264   7.433
75881SOL    HW129417   8.899  14.286   7.512
75881SOL    HW229418   8.989  14.179   7.453
75882SOL     OW29419   1.078   1.224  14.528
75882SOL    HW129420   1.107   1.315  14.524
75882SOL    HW229421   1.158   1.173  14.520
75883SOL     OW29422   6.332  14.263   2.016
75883SOL    HW129423   6.350  14.344   1.969
75883SOL    HW229424   6.291  14.292   2.098
75884SOL     OW29425   3.778   5.280  12.828
75884SOL    HW129426   3.795   5.204  12.884
75884SOL    HW229427   3.845   5.344  12.853
75885SOL     OW29428  13.291  14.380   6.082
75885SOL    HW129429  13.231  14.392   6.156
75885SOL    HW229430  13.333  14.296   6.098
75886SOL     OW29431   1.025   3.797   9.746
75886SOL    HW129432   0.943   3.774   9.702
75886SOL    HW229433   1.068   3.713   9.761
75887SOL     OW29434   8.593   5.374  10.388
75887SOL    HW129435   8.647   5.351  10.312
75887SOL    HW229436   8.504   5.382  10.353
75888SOL     OW29437   1.744   4.893   7.084
75888SOL    HW129438   1.725   4.802   7.061
75888SOL    HW229439   1.815   4.918   7.025
75889SOL     OW29440   0.563  10.379  10.192
75889SOL    HW129441   0.629  10.318  10.226
75889SOL    HW229442   0.484  10.326  10.183
75890SOL     OW29443   4.840   8.324   4.280
75890SOL    HW129444   4.820   8.307   4.373
75890SOL    HW229445   4.788   8.258   4.233
75891SOL     OW29446   2.831   6.045   2.025
75891SOL    HW129447   2.830   5.957   1.986
75891SOL    HW229448   2.748   6.084   1.998
75892SOL     OW29449   2.934   6.222   9.148
75892SOL    HW129450   2.844   6.227   9.180
75892SOL    HW229451   2.930   6.253   9.058
75893SOL     OW29452  11.075  14.584  13.696
75893SOL    HW129453  11.113  14.625  13.618
75893SOL    HW229454  10.980  14.595  13.686
75894SOL     OW29455   5.271   2.953  10.522
75894SOL    HW129456   5.357   2.994  10.516
75894SOL    HW229457   5.251   2.952  10.616
75895SOL     OW29458   4.065   7.101   8.448
75895SOL    HW129459   4.089   7.173   8.390
75895SOL    HW229460   4.134   7.100   8.515
75896SOL     OW29461   1.238   1.847  11.450
75896SOL    HW129462   1.272   1.859  11.539
75896SOL    HW229463   1.286   1.910  11.397
75897SOL     OW29464   4.526  14.676   0.010
75897SOL    HW129465   4.486  14.761   0.026
75897SOL    HW229466   4.520  14.630   0.093
75898SOL     OW29467  13.313   9.239   4.392
75898SOL    HW129468  13.270   9.269   4.312
75898SOL    HW229469  13.260   9.164   4.420
75899SOL     OW29470   0.439  12.693   0.587
75899SOL    HW129471   0.498  12.702   0.512
75899SOL    HW229472   0.453  12.604   0.618
75900SOL     OW29473  11.160   1.725   3.740
75900SOL    HW129474  11.108   1.767   3.672
75900SOL    HW229475  11.251   1.746   3.717
75901SOL     OW29476   7.239  10.192   1.815
75901SOL    HW129477   7.306  10.179   1.882
75901SOL    HW229478   7.157  10.197   1.863
75902SOL     OW29479   8.315  12.731   0.187
75902SOL    HW129480   8.374  12.731   0.263
75902SOL    HW229481   8.257  12.656   0.202
75903SOL     OW29482  13.903   4.303   8.195
75903SOL    HW129483  13.893   4.247   8.118
75903SOL    HW229484  13.884   4.247   8.270
75904SOL     OW29485   9.678   3.062   9.865
75904SOL    HW129486   9.714   3.142   9.904
75904SOL    HW229487   9.713   3.062   9.776
75905SOL     OW29488  14.874   7.258  12.383
75905SOL    HW129489   0.088   7.272  12.404
75905SOL    HW229490  14.835   7.345  12.387
75906SOL     OW29491   3.684  13.774   6.334
75906SOL    HW129492   3.599  13.779   6.291
75906SOL    HW229493   3.664  13.753   6.425
75907SOL     OW29494   0.932   6.404   1.092
75907SOL    HW129495   1.004   6.357   1.050
75907SOL    HW229496   0.854   6.377   1.044
75908SOL     OW29497  14.041  10.476   7.100
75908SOL    HW129498  14.106  10.433   7.155
75908SOL    HW229499  14.064  10.450   7.010
75909SOL     OW29500   3.689   3.587   4.708
75909SOL    HW129501   3.678   3.603   4.802
75909SOL    HW229502   3.601   3.567   4.677
75910SOL     OW29503  14.357  14.212   3.197
75910SOL    HW129504  14.292  14.227   3.128
75910SOL    HW229505  14.408  14.293   3.199
75911SOL     OW29506   9.984   3.203   8.320
75911SOL    HW129507   9.930   3.276   8.288
75911SOL    HW229508   9.987   3.141   8.247
75912SOL     OW29509  12.981   4.127   8.633
75912SOL    HW129510  12.996   4.049   8.580
75912SOL    HW229511  12.908   4.171   8.589
75913SOL     OW29512  10.471  12.599  12.749
75913SOL    HW129513  10.565  12.612  12.734
75913SOL    HW229514  10.465  12.514  12.792
75914SOL     OW29515   6.200  13.355   2.017
75914SOL    HW129516   6.228  13.411   2.089
75914SOL    HW229517   6.203  13.266   2.052
75915SOL     OW29518  12.694   2.661   3.323
75915SOL    HW129519  12.728   2.652   3.412
75915SOL    HW229520  12.751   2.605   3.270
75916SOL     OW29521   0.727   2.701   3.510
75916SOL    HW129522   0.703   2.646   3.436
75916SOL    HW229523   0.664   2.678   3.579
75917SOL     OW29524  12.246   8.031   6.845
75917SOL    HW129525  12.208   8.076   6.921
75917SOL    HW229526  12.169   8.001   6.795
75918SOL     OW29527   5.361  14.418   6.284
75918SOL    HW129528   5.274  14.423   6.245
75918SOL    HW229529   5.355  14.473   6.363
75919SOL     OW29530  12.223   1.425  10.772
75919SOL    HW129531  12.191   1.515  10.778
75919SOL    HW229532  12.250   1.403  10.861
75920SOL     OW29533   8.535   0.738   5.554
75920SOL    HW129534   8.481   0.809   5.517
75920SOL    HW229535   8.562   0.770   5.640
75921SOL     OW29536   1.912  12.427   4.685
75921SOL    HW129537   1.888  12.335   4.696
75921SOL    HW229538   1.915  12.462   4.774
75922SOL     OW29539   5.875   4.450  14.099
75922SOL    HW129540   5.853   4.372  14.150
75922SOL    HW229541   5.870   4.522  14.162
75923SOL     OW29542   9.138   2.049   9.200
75923SOL    HW129543   9.091   2.081   9.277
75923SOL    HW229544   9.178   1.966   9.229
75924SOL     OW29545   8.994  12.654   1.103
75924SOL    HW129546   8.976  12.713   1.177
75924SOL    HW229547   8.954  12.699   1.028
75925SOL     OW29548   8.098   8.501   1.451
75925SOL    HW129549   8.077   8.587   1.487
75925SOL    HW229550   8.013   8.462   1.432
75926SOL     OW29551   6.017   2.488   1.752
75926SOL    HW129552   5.958   2.475   1.826
75926SOL    HW229553   5.963   2.471   1.675
75927SOL     OW29554  12.976  13.080   1.046
75927SOL    HW129555  12.929  13.150   1.091
75927SOL    HW229556  12.997  13.017   1.115
75928SOL     OW29557   9.217  11.975  13.158
75928SOL    HW129558   9.279  12.044  13.180
75928SOL    HW229559   9.196  11.988  13.066
75929SOL     OW29560  13.173   5.767  12.132
75929SOL    HW129561  13.207   5.684  12.098
75929SOL    HW229562  13.180   5.828  12.059
75930SOL     OW29563   6.598   2.356  14.343
75930SOL    HW129564   6.647   2.313  14.273
75930SOL    HW229565   6.511   2.316  14.338
75931SOL     OW29566  13.431   4.396   3.240
75931SOL    HW129567  13.521   4.380   3.214
75931SOL    HW229568  13.432   4.483   3.281
75932SOL     OW29569   9.288   2.031   0.568
75932SOL    HW129570   9.262   2.050   0.478
75932SOL    HW229571   9.225   1.967   0.598
75933SOL     OW29572   2.309   8.211  14.189
75933SOL    HW129573   2.215   8.206  14.204
75933SOL    HW229574   2.345   8.140  14.243
75934SOL     OW29575  14.070   5.227   4.111
75934SOL    HW129576  14.108   5.176   4.040
75934SOL    HW229577  14.109   5.314   4.102
75935SOL     OW29578   8.434   5.120   1.809
75935SOL    HW129579   8.390   5.039   1.835
75935SOL    HW229580   8.395   5.187   1.864
75936SOL     OW29581   2.711  13.639   9.422
75936SOL    HW129582   2.794  13.671   9.458
75936SOL    HW229583   2.702  13.686   9.339
75937SOL     OW29584   1.663   9.789   1.623
75937SOL    HW129585   1.675   9.804   1.529
75937SOL    HW229586   1.574   9.818   1.641
75938SOL     OW29587   6.926   9.315   6.946
75938SOL    HW129588   6.932   9.279   6.858
75938SOL    HW229589   6.835   9.303   6.971
75939SOL     OW29590  14.115  13.227   7.673
75939SOL    HW129591  14.068  13.275   7.741
75939SOL    HW229592  14.151  13.295   7.616
75940SOL     OW29593  11.033   9.691   4.608
75940SOL    HW129594  10.998   9.776   4.633
75940SOL    HW229595  10.958   9.632   4.611
75941SOL     OW29596  12.515   4.870   7.326
75941SOL    HW129597  12.587   4.882   7.388
75941SOL    HW229598  12.520   4.946   7.269
75942SOL     OW29599   8.683   4.947  11.549
75942SOL    HW129600   8.679   4.871  11.608
75942SOL    HW229601   8.647   4.915  11.466
75943SOL     OW29602  10.547   2.775  11.745
75943SOL    HW129603  10.540   2.736  11.832
75943SOL    HW229604  10.632   2.744  11.712
75944SOL     OW29605  12.625   6.456  10.697
75944SOL    HW129606  12.578   6.417  10.624
75944SOL    HW229607  12.611   6.550  10.687
75945SOL     OW29608   7.293  10.500  10.044
75945SOL    HW129609   7.235  10.424  10.040
75945SOL    HW229610   7.251  10.565   9.987
75946SOL     OW29611   3.738   0.406   6.421
75946SOL    HW129612   3.675   0.338   6.398
75946SOL    HW229613   3.817   0.357   6.446
75947SOL     OW29614   9.482   5.442   9.706
75947SOL    HW129615   9.522   5.457   9.792
75947SOL    HW229616   9.520   5.510   9.650
75948SOL     OW29617   9.136   0.497   7.797
75948SOL    HW129618   9.122   0.581   7.753
75948SOL    HW229619   9.095   0.508   7.883
75949SOL     OW29620   3.725  10.250  13.101
75949SOL    HW129621   3.718  10.345  13.097
75949SOL    HW229622   3.692  10.226  13.187
75950SOL     OW29623  12.444   2.316  14.171
75950SOL    HW129624  12.467   2.241  14.226
75950SOL    HW229625  12.410   2.276  14.090
75951SOL     OW29626  12.343   4.604   9.680
75951SOL    HW129627  12.348   4.511   9.702
75951SOL    HW229628  12.281   4.608   9.607
75952SOL     OW29629   5.281   2.084   3.449
75952SOL    HW129630   5.227   2.034   3.388
75952SOL    HW229631   5.308   2.020   3.515
75953SOL     OW29632   8.036   7.473   8.571
75953SOL    HW129633   7.950   7.463   8.529
75953SOL    HW229634   8.093   7.414   8.522
75954SOL     OW29635   2.932  11.082   8.403
75954SOL    HW129636   2.960  11.033   8.326
75954SOL    HW229637   2.920  11.171   8.372
75955SOL     OW29638   0.790   8.012   9.959
75955SOL    HW129639   0.698   8.036   9.958
75955SOL    HW229640   0.800   7.955  10.035
75956SOL     OW29641  13.476   6.597  10.507
75956SOL    HW129642  13.450   6.664  10.570
75956SOL    HW229643  13.428   6.518  10.534
75957SOL     OW29644  14.013   6.372   6.961
75957SOL    HW129645  14.101   6.404   6.937
75957SOL    HW229646  13.997   6.409   7.048
75958SOL     OW29647   1.259  14.099   8.198
75958SOL    HW129648   1.267  14.039   8.124
75958SOL    HW229649   1.345  14.098   8.240
75959SOL     OW29650   3.920   5.453  14.397
75959SOL    HW129651   3.895   5.511  14.325
75959SOL    HW229652   3.945   5.512  14.468
75960SOL     OW29653  13.963  11.762  14.689
75960SOL    HW129654  14.048  11.724  14.713
75960SOL    HW229655  13.984  11.852  14.664
75961SOL     OW29656   4.105  11.712  11.267
75961SOL    HW129657   4.044  11.705  11.340
75961SOL    HW229658   4.115  11.806  11.253
75962SOL     OW29659  10.243  12.619   4.874
75962SOL    HW129660  10.291  12.588   4.951
75962SOL    HW229661  10.292  12.695   4.844
75963SOL     OW29662   9.212   4.489  12.490
75963SOL    HW129663   9.166   4.512  12.409
75963SOL    HW229664   9.298   4.459  12.462
75964SOL     OW29665  14.726   1.410  13.189
75964SOL    HW129666  14.764   1.498  13.199
75964SOL    HW229667  14.632   1.424  13.191
75965SOL     OW29668   6.643   7.083   9.376
75965SOL    HW129669   6.639   7.175   9.347
75965SOL    HW229670   6.608   7.085   9.466
75966SOL     OW29671   6.863   0.986  11.741
75966SOL    HW129672   6.917   0.975  11.663
75966SOL    HW229673   6.871   0.902  11.787
75967SOL     OW29674   9.208   1.319  13.844
75967SOL    HW129675   9.226   1.336  13.751
75967SOL    HW229676   9.250   1.235  13.862
75968SOL     OW29677  11.393  10.103  10.710
75968SOL    HW129678  11.412  10.185  10.665
75968SOL    HW229679  11.474  10.080  10.755
75969SOL     OW29680   5.511  11.995   9.071
75969SOL    HW129681   5.428  11.953   9.051
75969SOL    HW229682   5.535  12.041   8.991
75970SOL     OW29683   6.017   8.582  14.446
75970SOL    HW129684   6.014   8.633  14.527
75970SOL    HW229685   6.102   8.538  14.449
75971SOL     OW29686  10.885   2.021  14.068
75971SOL    HW129687  10.806   2.009  14.121
75971SOL    HW229688  10.852   2.032  13.978
75972SOL     OW29689   9.968  13.074   3.472
75972SOL    HW129690   9.938  13.122   3.394
75972SOL    HW229691   9.985  12.986   3.440
75973SOL     OW29692   5.222   6.199   3.415
75973SOL    HW129693   5.168   6.275   3.438
75973SOL    HW229694   5.286   6.192   3.486
75974SOL     OW29695  12.656   6.217  11.093
75974SOL    HW129696  12.587   6.181  11.149
75974SOL    HW229697  12.642   6.175  11.008
75975SOL     OW29698   1.505  11.730   6.000
75975SOL    HW129699   1.590  11.709   6.040
75975SOL    HW229700   1.477  11.647   5.961
75976SOL     OW29701   2.148   9.233   0.977
75976SOL    HW129702   2.215   9.238   0.909
75976SOL    HW229703   2.083   9.299   0.951
75977SOL     OW29704   7.702  13.983   0.252
75977SOL    HW129705   7.615  14.018   0.270
75977SOL    HW229706   7.731  14.028   0.172
75978SOL     OW29707  13.310   5.808   3.430
75978SOL    HW129708  13.284   5.833   3.519
75978SOL    HW229709  13.274   5.877   3.374
75979SOL     OW29710   5.879   2.426   8.937
75979SOL    HW129711   5.960   2.409   8.984
75979SOL    HW229712   5.810   2.413   9.002
75980SOL     OW29713  11.270   9.643   6.236
75980SOL    HW129714  11.200   9.579   6.230
75980SOL    HW229715  11.281   9.676   6.146
75981SOL     OW29716   7.940   6.284   2.027
75981SOL    HW129717   7.939   6.349   2.097
75981SOL    HW229718   7.871   6.222   2.050
75982SOL     OW29719  13.055   0.172   6.788
75982SOL    HW129720  13.148   0.164   6.764
75982SOL    HW229721  13.054   0.236   6.859
75983SOL     OW29722  14.120  13.417   1.910
75983SOL    HW129723  14.080  13.335   1.939
75983SOL    HW229724  14.201  13.423   1.960
75984SOL     OW29725   3.889  13.786   1.087
75984SOL    HW129726   3.827  13.779   1.160
75984SOL    HW229727   3.893  13.879   1.067
75985SOL     OW29728   5.369   8.061   0.658
75985SOL    HW129729   5.329   8.040   0.742
75985SOL    HW229730   5.463   8.059   0.674
75986SOL     OW29731  12.509  10.998  10.303
75986SOL    HW129732  12.539  10.917  10.344
75986SOL    HW229733  12.578  11.061  10.321
75987SOL     OW29734  11.237  10.548   7.185
75987SOL    HW129735  11.203  10.521   7.100
75987SOL    HW229736  11.173  10.612   7.217
75988SOL     OW29737   9.494  11.017  12.429
75988SOL    HW129738   9.579  10.977  12.412
75988SOL    HW229739   9.513  11.094  12.482
75989SOL     OW29740   6.604   3.352   7.087
75989SOL    HW129741   6.683   3.306   7.116
75989SOL    HW229742   6.613   3.440   7.122
75990SOL     OW29743  10.977  10.979   4.875
75990SOL    HW129744  10.892  10.956   4.837
75990SOL    HW229745  10.959  11.056   4.929
75991SOL     OW29746  13.796  12.043  11.240
75991SOL    HW129747  13.850  11.971  11.272
75991SOL    HW229748  13.774  12.093  11.319
75992SOL     OW29749   8.937   3.099  10.983
75992SOL    HW129750   8.946   3.011  10.947
75992SOL    HW229751   8.988   3.154  10.924
75993SOL     OW29752  14.317   2.342   2.614
75993SOL    HW129753  14.226   2.325   2.589
75993SOL    HW229754  14.352   2.395   2.543
75994SOL     OW29755   1.551  11.809   2.789
75994SOL    HW129756   1.500  11.889   2.784
75994SOL    HW229757   1.528  11.760   2.710
75995SOL     OW29758   0.906  14.872   2.146
75995SOL    HW129759   0.990  14.878   2.192
75995SOL    HW229760   0.848  14.827   2.208
75996SOL     OW29761   9.449   7.798   4.509
75996SOL    HW129762   9.421   7.843   4.589
75996SOL    HW229763   9.404   7.714   4.511
75997SOL     OW29764   8.423   3.607   6.236
75997SOL    HW129765   8.470   3.664   6.296
75997SOL    HW229766   8.374   3.548   6.294
75998SOL     OW29767  10.632   4.577  13.113
75998SOL    HW129768  10.688   4.500  13.123
75998SOL    HW229769  10.592   4.588  13.199
75999SOL     OW29770   6.864   7.560   0.903
75999SOL    HW129771   6.842   7.649   0.874
75999SOL    HW229772   6.958   7.562   0.919
76000SOL     OW29773   7.689  10.902  10.424
76000SOL    HW129774   7.762  10.879  10.367
76000SOL    HW229775   7.730  10.928  10.506
76001SOL     OW29776   3.755   3.000   1.214
76001SOL    HW129777   3.685   3.052   1.174
76001SOL    HW229778   3.715   2.914   1.230
76002SOL     OW29779   2.185   4.407   0.603
76002SOL    HW129780   2.093   4.424   0.626
76002SOL    HW229781   2.216   4.489   0.567
76003SOL     OW29782  13.211  14.123   6.947
76003SOL    HW129783  13.173  14.180   7.014
76003SOL    HW229784  13.271  14.179   6.899
76004SOL     OW29785   5.567   1.831   8.904
76004SOL    HW129786   5.480   1.848   8.867
76004SOL    HW229787   5.556   1.841   8.998
76005SOL     OW29788   3.734   0.012  12.507
76005SOL    HW129789   3.803  14.867  12.570
76005SOL    HW229790   3.665  14.826  12.524
76006SOL     OW29791  11.630  11.542  11.842
76006SOL    HW129792  11.571  11.485  11.891
76006SOL    HW229793  11.575  11.617  11.817
76007SOL     OW29794   7.116  10.210  14.634
76007SOL    HW129795   7.098  10.181  14.545
76007SOL    HW229796   7.208  10.236  14.633
76008SOL     OW29797  14.617   4.856   1.415
76008SOL    HW129798  14.644   4.859   1.324
76008SOL    HW229799  14.607   4.763   1.434
76009SOL     OW29800   4.316   0.507   8.819
76009SOL    HW129801   4.258   0.497   8.895
76009SOL    HW229802   4.389   0.447   8.836
76010SOL     OW29803   6.967   3.112  12.841
76010SOL    HW129804   6.887   3.117  12.789
76010SOL    HW229805   6.994   3.020  12.836
76011SOL     OW29806  11.329   6.129   0.565
76011SOL    HW129807  11.401   6.086   0.612
76011SOL    HW229808  11.250   6.103   0.612
76012SOL     OW29809   1.497   8.586   7.980
76012SOL    HW129810   1.578   8.619   8.018
76012SOL    HW229811   1.517   8.573   7.888
76013SOL     OW29812  10.129   3.182   7.865
76013SOL    HW129813  10.220   3.206   7.849
76013SOL    HW229814  10.086   3.266   7.884
76014SOL     OW29815   7.309   0.027   2.178
76014SOL    HW129816   7.258   0.059   2.252
76014SOL    HW229817   7.400   0.027   2.210
76015SOL     OW29818   5.041   6.002   1.501
76015SOL    HW129819   5.011   6.024   1.413
76015SOL    HW229820   4.996   6.064   1.558
76016SOL     OW29821   3.067   9.839   2.677
76016SOL    HW129822   3.034   9.814   2.764
76016SOL    HW229823   3.011   9.792   2.615
76017SOL     OW29824  12.292  13.136   5.739
76017SOL    HW129825  12.258  13.103   5.822
76017SOL    HW229826  12.333  13.060   5.697
76018SOL     OW29827   8.596   1.894  11.901
76018SOL    HW129828   8.668   1.831  11.889
76018SOL    HW229829   8.546   1.858  11.975
76019SOL     OW29830   5.618   5.778   4.847
76019SOL    HW129831   5.630   5.688   4.878
76019SOL    HW229832   5.539   5.775   4.793
76020SOL     OW29833   4.853  10.429   7.312
76020SOL    HW129834   4.851  10.369   7.387
76020SOL    HW229835   4.807  10.382   7.243
76021SOL     OW29836   1.176   8.433   0.319
76021SOL    HW129837   1.086   8.410   0.343
76021SOL    HW229838   1.169   8.522   0.285
76022SOL     OW29839  13.081   7.284   1.554
76022SOL    HW129840  13.009   7.222   1.551
76022SOL    HW229841  13.040   7.368   1.577
76023SOL     OW29842  13.189   0.600  14.408
76023SOL    HW129843  13.110   0.602  14.354
76023SOL    HW229844  13.166   0.540  14.480
76024SOL     OW29845  12.847   3.488   4.840
76024SOL    HW129846  12.776   3.433   4.808
76024SOL    HW229847  12.904   3.428   4.887
76025SOL     OW29848  11.377   5.594   6.021
76025SOL    HW129849  11.399   5.642   5.942
76025SOL    HW229850  11.317   5.652   6.068
76026SOL     OW29851  10.730  12.285   6.764
76026SOL    HW129852  10.678  12.299   6.843
76026SOL    HW229853  10.783  12.208   6.783
76027SOL     OW29854   0.559   0.552  13.969
76027SOL    HW129855   0.466   0.530  13.971
76027SOL    HW229856   0.564   0.625  13.907
76028SOL     OW29857  13.389   7.138   3.990
76028SOL    HW129858  13.382   7.218   3.938
76028SOL    HW229859  13.441   7.079   3.935
76029SOL     OW29860   5.460   9.836  12.845
76029SOL    HW129861   5.551   9.814  12.863
76029SOL    HW229862   5.423   9.755  12.809
76030SOL     OW29863   5.142  11.494   2.369
76030SOL    HW129864   5.136  11.587   2.346
76030SOL    HW229865   5.173  11.494   2.459
76031SOL     OW29866   6.155   9.253   3.080
76031SOL    HW129867   6.161   9.255   3.176
76031SOL    HW229868   6.173   9.162   3.056
76032SOL     OW29869   2.879   6.650   2.477
76032SOL    HW129870   2.828   6.603   2.543
76032SOL    HW229871   2.889   6.587   2.405
76033SOL     OW29872   3.283  12.227   1.864
76033SOL    HW129873   3.336  12.218   1.943
76033SOL    HW229874   3.264  12.138   1.836
76034SOL     OW29875   0.044   9.961   5.975
76034SOL    HW129876   0.017   9.932   6.062
76034SOL    HW229877  14.845   9.949   5.920
76035SOL     OW29878  11.771   0.268   4.186
76035SOL    HW129879  11.700   0.219   4.145
76035SOL    HW229880  11.733   0.301   4.268
76036SOL     OW29881   1.094   0.026   7.730
76036SOL    HW129882   1.006   0.030   7.693
76036SOL    HW229883   1.083   0.048   7.822
76037SOL     OW29884  14.136   3.242  11.857
76037SOL    HW129885  14.114   3.219  11.767
76037SOL    HW229886  14.163   3.334  11.853
76038SOL     OW29887   7.398   1.074  10.663
76038SOL    HW129888   7.395   1.169  10.655
76038SOL    HW229889   7.374   1.042  10.575
76039SOL     OW29890   0.717   1.278   2.183
76039SOL    HW129891   0.792   1.233   2.144
76039SOL    HW229892   0.651   1.279   2.113
76040SOL     OW29893  10.907  10.550   7.436
76040SOL    HW129894  10.963  10.528   7.510
76040SOL    HW229895  10.966  10.586   7.370
76041SOL     OW29896  12.306  13.411  13.040
76041SOL    HW129897  12.218  13.374  13.052
76041SOL    HW229898  12.295  13.504  13.062
76042SOL     OW29899   3.519   3.955   2.162
76042SOL    HW129900   3.588   3.892   2.141
76042SOL    HW229901   3.530   3.973   2.256
76043SOL     OW29902   2.128   9.926  12.305
76043SOL    HW129903   2.034   9.921  12.288
76043SOL    HW229904   2.167   9.954  12.222
76044SOL     OW29905   9.484   4.691   2.173
76044SOL    HW129906   9.511   4.781   2.189
76044SOL    HW229907   9.556   4.653   2.123
76045SOL     OW29908   0.030   3.655   1.486
76045SOL    HW129909   0.116   3.653   1.446
76045SOL    HW229910   0.024   3.574   1.537
76046SOL     OW29911   9.142   4.171   6.286
76046SOL    HW129912   9.174   4.259   6.268
76046SOL    HW229913   9.047   4.178   6.281
76047SOL     OW29914   6.071  14.603   1.340
76047SOL    HW129915   6.056  14.548   1.417
76047SOL    HW229916   6.164  14.591   1.320
76048SOL     OW29917  12.974   5.747   0.643
76048SOL    HW129918  12.989   5.696   0.722
76048SOL    HW229919  13.000   5.836   0.666
76049SOL     OW29920   9.160   0.366  14.369
76049SOL    HW129921   9.082   0.379  14.423
76049SOL    HW229922   9.231   0.355  14.432
76050SOL     OW29923   9.442  10.055  13.374
76050SOL    HW129924   9.519  10.010  13.408
76050SOL    HW229925   9.464  10.073  13.282
76051SOL     OW29926   0.073   1.447   8.881
76051SOL    HW129927   0.165   1.465   8.861
76051SOL    HW229928   0.076   1.374   8.943
76052SOL     OW29929   3.443  12.504   2.150
76052SOL    HW129930   3.431  12.412   2.127
76052SOL    HW229931   3.356  12.535   2.174
76053SOL     OW29932   5.993   8.814  10.865
76053SOL    HW129933   6.053   8.802  10.791
76053SOL    HW229934   5.932   8.741  10.857
76054SOL     OW29935  10.771   9.717   9.512
76054SOL    HW129936  10.728   9.682   9.434
76054SOL    HW229937  10.703   9.714   9.579
76055SOL     OW29938   5.910  14.760   2.160
76055SOL    HW129939   5.861  14.806   2.228
76055SOL    HW229940   5.842  14.723   2.103
76056SOL     OW29941   5.939   1.454  13.449
76056SOL    HW129942   6.027   1.434  13.415
76056SOL    HW229943   5.926   1.547  13.428
76057SOL     OW29944  14.125  10.984  11.598
76057SOL    HW129945  14.199  10.924  11.603
76057SOL    HW229946  14.111  10.998  11.504
76058SOL     OW29947  14.088   7.674   4.663
76058SOL    HW129948  14.164   7.710   4.616
76058SOL    HW229949  14.105   7.580   4.666
76059SOL     OW29950   8.833   3.973  11.441
76059SOL    HW129951   8.838   3.998  11.348
76059SOL    HW229952   8.796   3.885  11.440
76060SOL     OW29953   1.485   0.131   0.545
76060SOL    HW129954   1.441   0.205   0.587
76060SOL    HW229955   1.575   0.136   0.577
76061SOL     OW29956   8.979  11.245   3.948
76061SOL    HW129957   8.957  11.152   3.954
76061SOL    HW229958   9.044  11.250   3.878
76062SOL     OW29959   7.858  10.872   8.532
76062SOL    HW129960   7.950  10.847   8.534
76062SOL    HW229961   7.813  10.794   8.499
76063SOL     OW29962  12.725  10.315  12.592
76063SOL    HW129963  12.654  10.251  12.594
76063SOL    HW229964  12.773  10.300  12.673
76064SOL     OW29965  12.783  14.152   8.093
76064SOL    HW129966  12.722  14.196   8.152
76064SOL    HW229967  12.818  14.222   8.038
76065SOL     OW29968   0.518   7.753   9.970
76065SOL    HW129969   0.469   7.779   9.892
76065SOL    HW229970   0.564   7.673   9.944
76066SOL     OW29971  11.336   4.416   4.498
76066SOL    HW129972  11.387   4.480   4.448
76066SOL    HW229973  11.245   4.439   4.478
76067SOL     OW29974   7.038   9.472   7.700
76067SOL    HW129975   6.996   9.501   7.781
76067SOL    HW229976   6.991   9.518   7.631
76068SOL     OW29977  14.726   6.051   3.858
76068SOL    HW129978  14.791   6.100   3.909
76068SOL    HW229979  14.770   5.970   3.835
76069SOL     OW29980  11.917   2.605   0.365
76069SOL    HW129981  11.983   2.671   0.390
76069SOL    HW229982  11.964   2.522   0.368
76070SOL     OW29983  13.489   1.167   4.683
76070SOL    HW129984  13.524   1.121   4.607
76070SOL    HW229985  13.394   1.161   4.673
76071SOL     OW29986   7.918  10.439  13.202
76071SOL    HW129987   7.909  10.366  13.263
76071SOL    HW229988   7.828  10.468  13.186
76072SOL     OW29989  14.661   6.827   8.344
76072SOL    HW129990  14.577   6.786   8.324
76072SOL    HW229991  14.712   6.759   8.388
76073SOL     OW29992  10.264   6.641  13.997
76073SOL    HW129993  10.261   6.592  13.915
76073SOL    HW229994  10.258   6.574  14.065
76074SOL     OW29995  11.291  14.245  13.886
76074SOL    HW129996  11.384  14.267  13.887
76074SOL    HW229997  11.285  14.163  13.935
76075SOL     OW29998   9.304   6.531  12.233
76075SOL    HW129999   9.259   6.609  12.266
76075SOL    HW230000   9.382   6.566  12.189
76076SOL     OW30001  11.838   8.337   6.191
76076SOL    HW130002  11.799   8.416   6.230
76076SOL    HW230003  11.768   8.300   6.138
76077SOL     OW30004  13.512   4.727  10.605
76077SOL    HW130005  13.554   4.669  10.669
76077SOL    HW230006  13.431   4.681  10.581
76078SOL     OW30007  12.273   9.901   4.692
76078SOL    HW130008  12.369   9.907   4.683
76078SOL    HW230009  12.252   9.969   4.757
76079SOL     OW30010  14.144   6.874  14.032
76079SOL    HW130011  14.127   6.802  13.972
76079SOL    HW230012  14.192   6.938  13.979
76080SOL     OW30013   8.279   5.682   0.997
76080SOL    HW130014   8.237   5.737   1.064
76080SOL    HW230015   8.212   5.619   0.973
76081SOL     OW30016   8.178   3.048   8.992
76081SOL    HW130017   8.163   3.028   9.084
76081SOL    HW230018   8.118   3.120   8.973
76082SOL     OW30019  13.933   7.860   5.279
76082SOL    HW130020  13.861   7.844   5.340
76082SOL    HW230021  13.894   7.912   5.209
76083SOL     OW30022   0.245   7.241   5.319
76083SOL    HW130023   0.255   7.273   5.409
76083SOL    HW230024   0.230   7.147   5.329
76084SOL     OW30025  11.769  12.532  10.976
76084SOL    HW130026  11.779  12.479  10.896
76084SOL    HW230027  11.684  12.574  10.966
76085SOL     OW30028   1.877  10.470   8.149
76085SOL    HW130029   1.896  10.398   8.209
76085SOL    HW230030   1.883  10.548   8.204
76086SOL     OW30031   3.862   1.625   7.401
76086SOL    HW130032   3.804   1.623   7.476
76086SOL    HW230033   3.808   1.595   7.327
76087SOL     OW30034  13.584   9.601  14.501
76087SOL    HW130035  13.542   9.538  14.442
76087SOL    HW230036  13.520   9.671  14.512
76088SOL     OW30037   8.697   5.383   4.139
76088SOL    HW130038   8.787   5.396   4.112
76088SOL    HW230039   8.662   5.319   4.077
76089SOL     OW30040   2.435   6.191   0.553
76089SOL    HW130041   2.374   6.255   0.516
76089SOL    HW230042   2.445   6.125   0.485
76090SOL     OW30043  13.061  11.602   6.000
76090SOL    HW130044  13.110  11.549   6.062
76090SOL    HW230045  13.126  11.633   5.937
76091SOL     OW30046  14.854   2.180   2.332
76091SOL    HW130047  14.835   2.110   2.270
76091SOL    HW230048  14.773   2.192   2.381
76092SOL     OW30049  12.641   4.276  14.752
76092SOL    HW130050  12.570   4.287  14.815
76092SOL    HW230051  12.599   4.235  14.676
76093SOL     OW30052  10.908  10.573  14.295
76093SOL    HW130053  10.839  10.605  14.238
76093SOL    HW230054  10.946  10.652  14.333
76094SOL     OW30055   5.469  12.265   7.809
76094SOL    HW130056   5.498  12.249   7.720
76094SOL    HW230057   5.484  12.182   7.855
76095SOL     OW30058   8.250   4.093   3.493
76095SOL    HW130059   8.158   4.089   3.519
76095SOL    HW230060   8.266   4.008   3.450
76096SOL     OW30061   5.804  14.525   5.070
76096SOL    HW130062   5.782  14.456   5.007
76096SOL    HW230063   5.891  14.555   5.043
76097SOL     OW30064   0.233   2.701   3.317
76097SOL    HW130065   0.182   2.691   3.237
76097SOL    HW230066   0.318   2.732   3.287
76098SOL     OW30067  10.559  12.335   6.988
76098SOL    HW130068  10.474  12.358   7.026
76098SOL    HW230069  10.619  12.403   7.020
76099SOL     OW30070   0.234   7.819   1.150
76099SOL    HW130071   0.320   7.838   1.185
76099SOL    HW230072   0.193   7.905   1.138
76100SOL     OW30073   7.305   1.732   1.021
76100SOL    HW130074   7.354   1.696   0.946
76100SOL    HW230075   7.215   1.739   0.989
76101SOL     OW30076  14.209  12.300   9.970
76101SOL    HW130077  14.212  12.206   9.952
76101SOL    HW230078  14.146  12.308  10.042
76102SOL     OW30079  13.267  12.359  14.715
76102SOL    HW130080  13.282  12.436  14.770
76102SOL    HW230081  13.172  12.347  14.717
76103SOL     OW30082   9.255   5.339   8.438
76103SOL    HW130083   9.322   5.282   8.400
76103SOL    HW230084   9.234   5.401   8.368
76104SOL     OW30085   1.148  12.204   1.836
76104SOL    HW130086   1.123  12.236   1.749
76104SOL    HW230087   1.174  12.113   1.821
76105SOL     OW30088  12.813  13.965   0.070
76105SOL    HW130089  12.723  13.933   0.060
76105SOL    HW230090  12.868  13.889   0.052
76106SOL     OW30091  13.432   4.011   2.316
76106SOL    HW130092  13.503   3.955   2.349
76106SOL    HW230093  13.439   4.092   2.367
76107SOL     OW30094   3.872   3.549   7.419
76107SOL    HW130095   3.843   3.639   7.432
76107SOL    HW230096   3.967   3.556   7.408
76108SOL     OW30097   2.990   6.598   3.361
76108SOL    HW130098   3.058   6.547   3.318
76108SOL    HW230099   3.002   6.579   3.454
76109SOL     OW30100   0.694   5.053   1.709
76109SOL    HW130101   0.677   5.037   1.617
76109SOL    HW230102   0.747   5.133   1.710
76110SOL     OW30103   0.643   2.929  13.143
76110SOL    HW130104   0.698   2.886  13.208
76110SOL    HW230105   0.697   2.998  13.107
76111SOL     OW30106  11.532  14.146   1.315
76111SOL    HW130107  11.587  14.142   1.393
76111SOL    HW230108  11.444  14.128   1.347
76112SOL     OW30109   1.779  14.509   6.345
76112SOL    HW130110   1.815  14.420   6.351
76112SOL    HW230111   1.792  14.534   6.253
76113SOL     OW30112   0.309   8.785   6.797
76113SOL    HW130113   0.312   8.822   6.885
76113SOL    HW230114   0.401   8.781   6.770
76114SOL     OW30115  13.013   5.904   1.387
76114SOL    HW130116  13.013   5.973   1.320
76114SOL    HW230117  12.941   5.927   1.445
76115SOL     OW30118   3.571   5.320  14.346
76115SOL    HW130119   3.546   5.322  14.439
76115SOL    HW230120   3.587   5.412  14.324
76116SOL     OW30121  13.277  10.267  10.086
76116SOL    HW130122  13.200  10.262  10.030
76116SOL    HW230123  13.339  10.320  10.037
76117SOL     OW30124   2.790   9.387   2.173
76117SOL    HW130125   2.786   9.402   2.079
76117SOL    HW230126   2.809   9.294   2.182
76118SOL     OW30127   9.563   5.481  14.663
76118SOL    HW130128   9.563   5.415  14.594
76118SOL    HW230129   9.486   5.459  14.716
76119SOL     OW30130   5.341   4.634   1.681
76119SOL    HW130131   5.289   4.577   1.625
76119SOL    HW230132   5.351   4.715   1.631
76120SOL     OW30133  10.789  12.252   7.237
76120SOL    HW130134  10.826  12.338   7.260
76120SOL    HW230135  10.850  12.190   7.277
76121SOL     OW30136   2.423  12.717   3.563
76121SOL    HW130137   2.328  12.716   3.575
76121SOL    HW230138   2.458  12.680   3.644
76122SOL     OW30139  10.554   6.285   6.381
76122SOL    HW130140  10.535   6.315   6.469
76122SOL    HW230141  10.624   6.343   6.350
76123SOL     OW30142   0.942   9.845   3.239
76123SOL    HW130143   0.981   9.787   3.174
76123SOL    HW230144   1.003   9.843   3.313
76124SOL     OW30145  14.452   7.359   4.620
76124SOL    HW130146  14.440   7.273   4.578
76124SOL    HW230147  14.363   7.389   4.639
76125SOL     OW30148   4.208   1.279  10.242
76125SOL    HW130149   4.294   1.285  10.200
76125SOL    HW230150   4.185   1.186  10.237
76126SOL     OW30151   4.422   6.330   1.734
76126SOL    HW130152   4.479   6.407   1.733
76126SOL    HW230153   4.344   6.357   1.687
76127SOL     OW30154   7.775   7.896   8.129
76127SOL    HW130155   7.825   7.954   8.071
76127SOL    HW230156   7.814   7.810   8.116
76128SOL     OW30157   3.717   4.153   6.062
76128SOL    HW130158   3.727   4.064   6.029
76128SOL    HW230159   3.625   4.158   6.089
76129SOL     OW30160  14.598   3.520   0.646
76129SOL    HW130161  14.616   3.546   0.556
76129SOL    HW230162  14.538   3.445   0.639
76130SOL     OW30163   0.854   8.917  14.481
76130SOL    HW130164   0.799   8.910  14.559
76130SOL    HW230165   0.792   8.915  14.408
76131SOL     OW30166   7.376  11.455  11.555
76131SOL    HW130167   7.314  11.491  11.493
76131SOL    HW230168   7.330  11.379  11.593
76132SOL     OW30169  10.282  13.953   7.027
76132SOL    HW130170  10.352  13.990   6.974
76132SOL    HW230171  10.204  14.003   7.003
76133SOL     OW30172  14.205  13.915  12.707
76133SOL    HW130173  14.259  13.970  12.651
76133SOL    HW230174  14.201  13.962  12.791
76134SOL     OW30175  14.433   2.589  14.214
76134SOL    HW130176  14.406   2.649  14.144
76134SOL    HW230177  14.389   2.623  14.292
76135SOL     OW30178  10.275  13.624  14.007
76135SOL    HW130179  10.270  13.700  13.949
76135SOL    HW230180  10.185  13.594  14.016
76136SOL     OW30181   0.590   6.502  13.394
76136SOL    HW130182   0.566   6.410  13.387
76136SOL    HW230183   0.530   6.538  13.459
76137SOL     OW30184   2.687  10.330   1.673
76137SOL    HW130185   2.742  10.306   1.748
76137SOL    HW230186   2.717  10.274   1.602
76138SOL     OW30187   7.375   8.234   9.668
76138SOL    HW130188   7.451   8.204   9.618
76138SOL    HW230189   7.311   8.259   9.601
76139SOL     OW30190  13.523   5.045   4.185
76139SOL    HW130191  13.575   5.093   4.250
76139SOL    HW230192  13.478   4.978   4.236
76140SOL     OW30193   0.704   9.454   4.074
76140SOL    HW130194   0.609   9.456   4.082
76140SOL    HW230195   0.725   9.361   4.063
76141SOL     OW30196   2.152   9.335   9.225
76141SOL    HW130197   2.222   9.399   9.210
76141SOL    HW230198   2.197   9.251   9.224
76142SOL     OW30199   3.440   1.174   3.825
76142SOL    HW130200   3.532   1.196   3.808
76142SOL    HW230201   3.399   1.257   3.847
76143SOL     OW30202  14.214   2.859   6.169
76143SOL    HW130203  14.122   2.881   6.187
76143SOL    HW230204  14.231   2.781   6.221
76144SOL     OW30205  11.549  10.248  11.019
76144SOL    HW130206  11.625  10.304  11.002
76144SOL    HW230207  11.544  10.243  11.115
76145SOL     OW30208   0.909   3.009  12.494
76145SOL    HW130209   0.887   3.011  12.401
76145SOL    HW230210   0.828   3.036  12.539
76146SOL     OW30211   5.173  12.783   9.848
76146SOL    HW130212   5.081  12.771   9.872
76146SOL    HW230213   5.215  12.814   9.928
76147SOL     OW30214  13.096  14.176   9.579
76147SOL    HW130215  13.165  14.118   9.547
76147SOL    HW230216  13.080  14.236   9.507
76148SOL     OW30217   6.438   4.151   5.752
76148SOL    HW130218   6.522   4.190   5.725
76148SOL    HW230219   6.414   4.197   5.832
76149SOL     OW30220   1.338  12.297   9.758
76149SOL    HW130221   1.326  12.304   9.663
76149SOL    HW230222   1.414  12.351   9.777
76150SOL     OW30223   4.766   5.111   5.717
76150SOL    HW130224   4.713   5.106   5.638
76150SOL    HW230225   4.831   5.041   5.707
76151SOL     OW30226  12.423   5.633  13.345
76151SOL    HW130227  12.334   5.600  13.335
76151SOL    HW230228  12.469   5.562  13.390
76152SOL     OW30229   2.737   1.105  11.027
76152SOL    HW130230   2.809   1.141  10.976
76152SOL    HW230231   2.675   1.178  11.036
76153SOL     OW30232  12.002   8.827   1.574
76153SOL    HW130233  11.962   8.754   1.526
76153SOL    HW230234  11.928   8.877   1.608
76154SOL     OW30235   8.357  11.222  14.368
76154SOL    HW130236   8.321  11.236  14.456
76154SOL    HW230237   8.447  11.193  14.383
76155SOL     OW30238  14.750   0.758   1.899
76155SOL    HW130239  14.821   0.747   1.836
76155SOL    HW230240  14.794   0.758   1.984
76156SOL     OW30241   4.004  13.958   8.029
76156SOL    HW130242   4.083  13.935   7.981
76156SOL    HW230243   3.993  13.887   8.092
76157SOL     OW30244  14.556   7.790  14.106
76157SOL    HW130245  14.617   7.721  14.080
76157SOL    HW230246  14.473   7.763  14.068
76158SOL     OW30247   0.925   5.520   4.379
76158SOL    HW130248   0.910   5.599   4.326
76158SOL    HW230249   0.850   5.464   4.359
76159SOL     OW30250   3.197   9.469   8.703
76159SOL    HW130251   3.150   9.469   8.786
76159SOL    HW230252   3.288   9.450   8.727
76160SOL     OW30253   3.521   0.258   3.434
76160SOL    HW130254   3.458   0.198   3.473
76160SOL    HW230255   3.526   0.232   3.342
76161SOL     OW30256   3.419  13.931   5.586
76161SOL    HW130257   3.476  13.919   5.661
76161SOL    HW230258   3.336  13.961   5.623
76162SOL     OW30259  13.253   8.218   9.375
76162SOL    HW130260  13.294   8.166   9.444
76162SOL    HW230261  13.210   8.290   9.422
76163SOL     OW30262   4.493   3.814  11.371
76163SOL    HW130263   4.456   3.765  11.444
76163SOL    HW230264   4.417   3.839  11.318
76164SOL     OW30265   6.677  10.365  13.815
76164SOL    HW130266   6.671  10.461  13.821
76164SOL    HW230267   6.764  10.344  13.848
76165SOL     OW30268  12.464   8.068   5.429
76165SOL    HW130269  12.447   8.081   5.522
76165SOL    HW230270  12.395   8.117   5.385
76166SOL     OW30271   4.261   1.896  10.199
76166SOL    HW130272   4.264   1.808  10.235
76166SOL    HW230273   4.315   1.948  10.258
76167SOL     OW30274  11.631  14.113   3.155
76167SOL    HW130275  11.665  14.099   3.067
76167SOL    HW230276  11.690  14.062   3.211
76168SOL     OW30277  11.690  14.150   7.892
76168SOL    HW130278  11.629  14.161   7.820
76168SOL    HW230279  11.651  14.082   7.947
76169SOL     OW30280  11.148   8.428  12.822
76169SOL    HW130281  11.066   8.447  12.868
76169SOL    HW230282  11.139   8.473  12.738
76170SOL     OW30283   0.793   4.396  11.764
76170SOL    HW130284   0.883   4.428  11.754
76170SOL    HW230285   0.740   4.458  11.714
76171SOL     OW30286   4.027   5.877   7.874
76171SOL    HW130287   4.109   5.926   7.863
76171SOL    HW230288   3.958   5.939   7.848
76172SOL     OW30289   0.324   0.001   9.151
76172SOL    HW130290   0.239  14.848   9.120
76172SOL    HW230291   0.386  14.811   9.126
76173SOL     OW30292   0.923  13.464   5.403
76173SOL    HW130293   0.889  13.411   5.475
76173SOL    HW230294   0.850  13.470   5.341
76174SOL     OW30295   5.836   8.702   3.579
76174SOL    HW130296   5.815   8.736   3.666
76174SOL    HW230297   5.770   8.634   3.563
76175SOL     OW30298   6.819  12.449   1.109
76175SOL    HW130299   6.838  12.425   1.200
76175SOL    HW230300   6.803  12.365   1.065
76176SOL     OW30301   6.322   8.289  13.633
76176SOL    HW130302   6.410   8.296  13.670
76176SOL    HW230303   6.271   8.355  13.680
76177SOL     OW30304   0.941  12.722   8.467
76177SOL    HW130305   0.993  12.736   8.546
76177SOL    HW230306   0.891  12.642   8.485
76178SOL     OW30307   3.021   7.016  10.362
76178SOL    HW130308   2.982   7.012  10.449
76178SOL    HW230309   2.958   6.972  10.305
76179SOL     OW30310   9.216   2.543   1.783
76179SOL    HW130311   9.279   2.566   1.851
76179SOL    HW230312   9.267   2.496   1.717
76180SOL     OW30313   5.043   5.122   6.202
76180SOL    HW130314   5.016   5.160   6.286
76180SOL    HW230315   5.090   5.042   6.226
76181SOL     OW30316   1.070   7.900   0.956
76181SOL    HW130317   1.152   7.861   0.988
76181SOL    HW230318   1.076   7.992   0.982
76182SOL     OW30319  14.764  13.911  13.599
76182SOL    HW130320  14.696  13.974  13.623
76182SOL    HW230321  14.834  13.964  13.561
76183SOL     OW30322   4.443   3.300   8.844
76183SOL    HW130323   4.487   3.294   8.759
76183SOL    HW230324   4.354   3.330   8.823
76184SOL     OW30325  14.549   5.009  12.968
76184SOL    HW130326  14.620   4.967  13.016
76184SOL    HW230327  14.590   5.087  12.930
76185SOL     OW30328   3.003   7.292   0.422
76185SOL    HW130329   3.028   7.202   0.400
76185SOL    HW230330   3.067   7.346   0.375
76186SOL     OW30331   5.752   0.718   4.940
76186SOL    HW130332   5.783   0.635   4.903
76186SOL    HW230333   5.828   0.755   4.984
76187SOL     OW30334  11.901   6.092   2.051
76187SOL    HW130335  11.827   6.058   2.001
76187SOL    HW230336  11.867   6.170   2.095
76188SOL     OW30337  13.917  11.732   0.085
76188SOL    HW130338  14.007  11.740   0.117
76188SOL    HW230339  13.926  11.731  14.868
76189SOL     OW30340  13.838   1.661  12.448
76189SOL    HW130341  13.908   1.615  12.493
76189SOL    HW230342  13.791   1.706  12.519
76190SOL     OW30343   8.103   2.524  12.102
76190SOL    HW130344   8.191   2.486  12.098
76190SOL    HW230345   8.075   2.528  12.011
76191SOL     OW30346  14.370   1.364   2.208
76191SOL    HW130347  14.281   1.368   2.243
76191SOL    HW230348  14.418   1.310   2.271
76192SOL     OW30349  11.968   4.947  13.534
76192SOL    HW130350  12.036   4.891  13.497
76192SOL    HW230351  11.997   4.965  13.623
76193SOL     OW30352   6.600  13.613  13.357
76193SOL    HW130353   6.643  13.568  13.285
76193SOL    HW230354   6.514  13.571  13.364
76194SOL     OW30355   1.516   9.163  13.668
76194SOL    HW130356   1.540   9.177  13.577
76194SOL    HW230357   1.489   9.250  13.699
76195SOL     OW30358   4.311   6.857   3.321
76195SOL    HW130359   4.363   6.778   3.309
76195SOL    HW230360   4.376   6.924   3.344
76196SOL     OW30361   8.150   0.968   4.291
76196SOL    HW130362   8.239   0.937   4.278
76196SOL    HW230363   8.160   1.051   4.337
76197SOL     OW30364   5.801  11.516   2.233
76197SOL    HW130365   5.769  11.602   2.206
76197SOL    HW230366   5.866  11.536   2.301
76198SOL     OW30367   6.719   6.835   9.386
76198SOL    HW130368   6.706   6.930   9.383
76198SOL    HW230369   6.762   6.814   9.303
76199SOL     OW30370   9.413  13.132  13.631
76199SOL    HW130371   9.365  13.050  13.638
76199SOL    HW230372   9.479  13.127  13.700
76200SOL     OW30373   4.108   2.209   9.373
76200SOL    HW130374   4.149   2.141   9.427
76200SOL    HW230375   4.057   2.261   9.435
76201SOL     OW30376  13.888   8.064   9.038
76201SOL    HW130377  13.809   8.013   9.056
76201SOL    HW230378  13.892   8.129   9.108
76202SOL     OW30379   6.962   1.987  10.956
76202SOL    HW130380   6.960   1.891  10.954
76202SOL    HW230381   7.023   2.012  10.887
76203SOL     OW30382   1.044   2.845   5.750
76203SOL    HW130383   0.976   2.852   5.683
76203SOL    HW230384   0.997   2.814   5.828
76204SOL     OW30385   2.165   5.299   2.654
76204SOL    HW130386   2.142   5.211   2.682
76204SOL    HW230387   2.141   5.354   2.729
76205SOL     OW30388  12.709  12.623   5.295
76205SOL    HW130389  12.758  12.594   5.218
76205SOL    HW230390  12.748  12.575   5.367
76206SOL     OW30391   5.456  10.517   5.934
76206SOL    HW130392   5.440  10.512   5.840
76206SOL    HW230393   5.550  10.535   5.941
76207SOL     OW30394  14.084   5.237   1.851
76207SOL    HW130395  14.037   5.161   1.815
76207SOL    HW230396  14.017   5.286   1.899
76208SOL     OW30397  13.725   6.132   8.662
76208SOL    HW130398  13.721   6.171   8.749
76208SOL    HW230399  13.813   6.153   8.630
76209SOL     OW30400  11.128  12.134  12.186
76209SOL    HW130401  11.054  12.170  12.137
76209SOL    HW230402  11.205  12.161  12.137
76210SOL     OW30403  11.812   6.010   8.910
76210SOL    HW130404  11.894   5.980   8.871
76210SOL    HW230405  11.746   5.991   8.842
76211SOL     OW30406   8.500   5.912  11.994
76211SOL    HW130407   8.519   5.867  11.912
76211SOL    HW230408   8.486   6.003  11.968
76212SOL     OW30409  12.818   3.159   3.178
76212SOL    HW130410  12.835   3.176   3.085
76212SOL    HW230411  12.873   3.084   3.200
76213SOL     OW30412   3.988   9.373   7.833
76213SOL    HW130413   3.955   9.394   7.746
76213SOL    HW230414   4.016   9.457   7.869
76214SOL     OW30415   2.774  10.769   8.682
76214SOL    HW130416   2.823  10.753   8.762
76214SOL    HW230417   2.840  10.793   8.617
76215SOL     OW30418  14.780  11.400   7.705
76215SOL    HW130419  14.770  11.314   7.664
76215SOL    HW230420  14.760  11.385   7.797
76216SOL     OW30421   9.425  12.101   3.477
76216SOL    HW130422   9.404  12.072   3.565
76216SOL    HW230423   9.428  12.021   3.425
76217SOL     OW30424  13.856   8.696  11.784
76217SOL    HW130425  13.912   8.632  11.739
76217SOL    HW230426  13.768   8.657  11.781
76218SOL     OW30427   5.251  13.839   0.145
76218SOL    HW130428   5.200  13.851   0.226
76218SOL    HW230429   5.340  13.822   0.175
76219SOL     OW30430   0.600  14.012   6.019
76219SOL    HW130431   0.559  13.928   6.000
76219SOL    HW230432   0.607  14.016   6.114
76220SOL     OW30433   9.875   2.370   2.298
76220SOL    HW130434   9.914   2.379   2.385
76220SOL    HW230435   9.815   2.295   2.307
76221SOL     OW30436   2.737  11.979  11.833
76221SOL    HW130437   2.686  11.956  11.756
76221SOL    HW230438   2.743  12.074  11.831
76222SOL     OW30439  10.140  13.087   1.997
76222SOL    HW130440  10.146  13.149   2.070
76222SOL    HW230441  10.081  13.019   2.028
76223SOL     OW30442  11.550   3.586   2.908
76223SOL    HW130443  11.612   3.514   2.894
76223SOL    HW230444  11.492   3.582   2.832
76224SOL     OW30445   3.652   7.941   4.597
76224SOL    HW130446   3.564   7.958   4.564
76224SOL    HW230447   3.674   8.020   4.646
76225SOL     OW30448  11.241   4.657  10.371
76225SOL    HW130449  11.148   4.658  10.349
76225SOL    HW230450  11.282   4.710  10.303
76226SOL     OW30451   6.522   5.778  12.120
76226SOL    HW130452   6.575   5.857  12.133
76226SOL    HW230453   6.537   5.727  12.200
76227SOL     OW30454   4.806   1.529   3.813
76227SOL    HW130455   4.853   1.525   3.896
76227SOL    HW230456   4.874   1.530   3.746
76228SOL     OW30457   7.000   8.300   1.065
76228SOL    HW130458   7.012   8.288   1.159
76228SOL    HW230459   7.089   8.295   1.029
76229SOL     OW30460   9.906   4.431   9.020
76229SOL    HW130461   9.923   4.340   9.046
76229SOL    HW230462   9.872   4.425   8.931
76230SOL     OW30463  11.736   9.161  11.344
76230SOL    HW130464  11.703   9.241  11.304
76230SOL    HW230465  11.659   9.122  11.387
76231SOL     OW30466   7.463  12.478  12.318
76231SOL    HW130467   7.412  12.555  12.292
76231SOL    HW230468   7.524  12.465  12.245
76232SOL     OW30469   2.713  13.572   2.046
76232SOL    HW130470   2.736  13.610   1.961
76232SOL    HW230471   2.700  13.479   2.029
76233SOL     OW30472  11.532   6.627  12.421
76233SOL    HW130473  11.559   6.535  12.413
76233SOL    HW230474  11.548   6.649  12.512
76234SOL     OW30475   9.563   3.375   1.362
76234SOL    HW130476   9.556   3.467   1.389
76234SOL    HW230477   9.477   3.338   1.383
76235SOL     OW30478   7.463  11.701  10.032
76235SOL    HW130479   7.391  11.662   9.982
76235SOL    HW230480   7.424  11.776  10.076
76236SOL     OW30481   0.492   7.195   8.915
76236SOL    HW130482   0.458   7.163   8.831
76236SOL    HW230483   0.524   7.283   8.896
76237SOL     OW30484   5.653   2.063   5.635
76237SOL    HW130485   5.647   2.096   5.725
76237SOL    HW230486   5.720   2.117   5.593
76238SOL     OW30487   6.551  12.865   9.060
76238SOL    HW130488   6.631  12.904   9.024
76238SOL    HW230489   6.572  12.772   9.070
76239SOL     OW30490  10.704  12.429  12.034
76239SOL    HW130491  10.666  12.342  12.044
76239SOL    HW230492  10.629  12.488  12.021
76240SOL     OW30493   8.841  10.218  10.050
76240SOL    HW130494   8.861  10.310  10.069
76240SOL    HW230495   8.923  10.183  10.015
76241SOL     OW30496  14.823   8.865   2.815
76241SOL    HW130497  14.861   8.934   2.870
76241SOL    HW230498   0.016   8.836   2.759
76242SOL     OW30499   2.961  13.258   2.143
76242SOL    HW130500   3.033  13.197   2.133
76242SOL    HW230501   2.882  13.205   2.131
76243SOL     OW30502  13.891   5.371   1.533
76243SOL    HW130503  13.881   5.396   1.441
76243SOL    HW230504  13.906   5.453   1.579
76244SOL     OW30505   5.873  11.228   9.822
76244SOL    HW130506   5.875  11.323   9.834
76244SOL    HW230507   5.839  11.216   9.733
76245SOL     OW30508   8.909   3.058   2.875
76245SOL    HW130509   8.892   2.984   2.817
76245SOL    HW230510   8.829   3.109   2.872
76246SOL     OW30511  13.164   2.861   7.912
76246SOL    HW130512  13.094   2.839   7.974
76246SOL    HW230513  13.143   2.810   7.834
76247SOL     OW30514   5.393   7.960   3.256
76247SOL    HW130515   5.392   8.012   3.336
76247SOL    HW230516   5.376   8.024   3.186
76248SOL     OW30517   9.081   8.167   2.992
76248SOL    HW130518   9.026   8.166   3.070
76248SOL    HW230519   9.072   8.256   2.958
76249SOL     OW30520   7.158   5.498   0.613
76249SOL    HW130521   7.211   5.426   0.580
76249SOL    HW230522   7.078   5.455   0.645
76250SOL     OW30523   2.690   6.405   9.485
76250SOL    HW130524   2.716   6.495   9.465
76250SOL    HW230525   2.770   6.365   9.519
76251SOL     OW30526   4.598   4.441  11.834
76251SOL    HW130527   4.504   4.426  11.828
76251SOL    HW230528   4.610   4.492  11.914
76252SOL     OW30529   6.885   7.244   4.459
76252SOL    HW130530   6.978   7.226   4.472
76252SOL    HW230531   6.873   7.333   4.490
76253SOL     OW30532   2.464   0.312  10.002
76253SOL    HW130533   2.502   0.293  10.088
76253SOL    HW230534   2.464   0.407   9.996
76254SOL     OW30535  14.237   5.432   5.674
76254SOL    HW130536  14.277   5.454   5.590
76254SOL    HW230537  14.281   5.351   5.702
76255SOL     OW30538   2.713  14.830   0.988
76255SOL    HW130539   2.788   0.009   1.005
76255SOL    HW230540   2.647   0.009   0.949
76256SOL     OW30541   7.701   4.388  10.522
76256SOL    HW130542   7.625   4.348  10.479
76256SOL    HW230543   7.682   4.482  10.522
76257SOL     OW30544   6.696   7.600  13.647
76257SOL    HW130545   6.705   7.689  13.613
76257SOL    HW230546   6.761   7.550  13.598
76258SOL     OW30547  14.677   9.739   8.198
76258SOL    HW130548  14.603   9.799   8.210
76258SOL    HW230549  14.750   9.796   8.174
76259SOL     OW30550  12.660   9.482   8.195
76259SOL    HW130551  12.686   9.485   8.103
76259SOL    HW230552  12.728   9.428   8.236
76260SOL     OW30553   4.189  11.696  11.872
76260SOL    HW130554   4.199  11.674  11.964
76260SOL    HW230555   4.128  11.770  11.872
76261SOL     OW30556   5.524   8.170   4.955
76261SOL    HW130557   5.453   8.226   4.924
76261SOL    HW230558   5.485   8.083   4.960
76262SOL     OW30559   6.008   0.934   5.801
76262SOL    HW130560   6.003   0.845   5.766
76262SOL    HW230561   6.072   0.978   5.746
76263SOL     OW30562  14.099   5.336  10.137
76263SOL    HW130563  14.026   5.373  10.187
76263SOL    HW230564  14.163   5.310  10.204
76264SOL     OW30565  12.751   8.672   7.909
76264SOL    HW130566  12.698   8.716   7.843
76264SOL    HW230567  12.822   8.630   7.860
76265SOL     OW30568   2.808   3.146   0.887
76265SOL    HW130569   2.859   3.226   0.875
76265SOL    HW230570   2.810   3.103   0.802
76266SOL     OW30571  12.442   5.845   6.938
76266SOL    HW130572  12.472   5.934   6.921
76266SOL    HW230573  12.477   5.824   7.025
76267SOL     OW30574   6.996  11.989  10.633
76267SOL    HW130575   7.071  12.039  10.601
76267SOL    HW230576   6.924  12.012  10.574
76268SOL     OW30577  12.967   8.675   4.646
76268SOL    HW130578  13.009   8.645   4.565
76268SOL    HW230579  12.874   8.678   4.624
76269SOL     OW30580   8.213  10.020   9.306
76269SOL    HW130581   8.190  10.088   9.243
76269SOL    HW230582   8.161   9.944   9.281
76270SOL     OW30583   5.663   0.714   1.225
76270SOL    HW130584   5.722   0.735   1.297
76270SOL    HW230585   5.588   0.772   1.236
76271SOL     OW30586   2.515   5.865  12.481
76271SOL    HW130587   2.488   5.924  12.411
76271SOL    HW230588   2.592   5.820  12.446
76272SOL     OW30589   8.787   6.119  11.351
76272SOL    HW130590   8.703   6.099  11.308
76272SOL    HW230591   8.849   6.129  11.279
76273SOL     OW30592   3.926   2.989  10.279
76273SOL    HW130593   3.932   3.068  10.333
76273SOL    HW230594   3.954   2.918  10.337
76274SOL     OW30595   0.416   2.315  13.305
76274SOL    HW130596   0.420   2.400  13.261
76274SOL    HW230597   0.469   2.327  13.384
76275SOL     OW30598   0.322  14.381   0.089
76275SOL    HW130599   0.275  14.328   0.025
76275SOL    HW230600   0.292  14.471   0.072
76276SOL     OW30601   8.325  12.369   7.495
76276SOL    HW130602   8.368  12.451   7.521
76276SOL    HW230603   8.318  12.375   7.400
76277SOL     OW30604   7.793  10.514  14.282
76277SOL    HW130605   7.876  10.554  14.256
76277SOL    HW230606   7.742  10.510  14.201
76278SOL     OW30607  13.747  12.180  13.766
76278SOL    HW130608  13.733  12.241  13.838
76278SOL    HW230609  13.711  12.224  13.689
76279SOL     OW30610  13.056   6.676  12.630
76279SOL    HW130611  13.039   6.582  12.635
76279SOL    HW230612  13.151   6.683  12.618
76280SOL     OW30613  13.385  12.956   6.026
76280SOL    HW130614  13.462  12.904   6.003
76280SOL    HW230615  13.422  13.040   6.054
76281SOL     OW30616  11.948   5.563   8.862
76281SOL    HW130617  11.934   5.507   8.785
76281SOL    HW230618  12.041   5.583   8.860
76282SOL     OW30619  14.437  14.309   7.319
76282SOL    HW130620  14.513  14.260   7.351
76282SOL    HW230621  14.465  14.344   7.234
76283SOL     OW30622   5.968   3.535   6.457
76283SOL    HW130623   6.036   3.547   6.523
76283SOL    HW230624   5.912   3.466   6.492
76284SOL     OW30625   2.470   4.520   8.821
76284SOL    HW130626   2.391   4.572   8.838
76284SOL    HW230627   2.472   4.457   8.893
76285SOL     OW30628   3.803  13.244  13.616
76285SOL    HW130629   3.750  13.211  13.688
76285SOL    HW230630   3.834  13.166  13.571
76286SOL     OW30631   4.516   4.153   5.500
76286SOL    HW130632   4.605   4.174   5.470
76286SOL    HW230633   4.526   4.135   5.593
76287SOL     OW30634   8.259   3.409  11.241
76287SOL    HW130635   8.182   3.466  11.246
76287SOL    HW230636   8.250   3.364  11.157
76288SOL     OW30637   4.428  10.214   3.940
76288SOL    HW130638   4.488  10.168   3.999
76288SOL    HW230639   4.457  10.189   3.852
76289SOL     OW30640   3.217   3.565   4.355
76289SOL    HW130641   3.205   3.527   4.269
76289SOL    HW230642   3.193   3.496   4.416
76290SOL     OW30643  12.161   3.804   0.743
76290SOL    HW130644  12.156   3.732   0.806
76290SOL    HW230645  12.243   3.788   0.696
76291SOL     OW30646   6.770   2.108   0.709
76291SOL    HW130647   6.826   2.170   0.756
76291SOL    HW230648   6.771   2.029   0.763
76292SOL     OW30649   2.810   2.346   8.521
76292SOL    HW130650   2.721   2.311   8.514
76292SOL    HW230651   2.798   2.441   8.520
76293SOL     OW30652   2.355   6.338   1.793
76293SOL    HW130653   2.402   6.421   1.801
76293SOL    HW230654   2.269   6.354   1.832
76294SOL     OW30655  11.407   3.877   5.537
76294SOL    HW130656  11.468   3.932   5.585
76294SOL    HW230657  11.369   3.819   5.603
76295SOL     OW30658   8.738   8.925   1.930
76295SOL    HW130659   8.733   8.984   2.006
76295SOL    HW230660   8.657   8.874   1.934
76296SOL     OW30661  10.714  10.609   4.463
76296SOL    HW130662  10.764  10.607   4.382
76296SOL    HW230663  10.624  10.589   4.436
76297SOL     OW30664   4.164   5.533  10.741
76297SOL    HW130665   4.069   5.540  10.755
76297SOL    HW230666   4.196   5.490  10.820
76298SOL     OW30667   4.696  11.137  12.969
76298SOL    HW130668   4.775  11.086  12.986
76298SOL    HW230669   4.670  11.113  12.880
76299SOL     OW30670   4.916  11.768   8.094
76299SOL    HW130671   4.887  11.749   8.005
76299SOL    HW230672   4.961  11.688   8.123
76300SOL     OW30673   5.752  11.348   3.444
76300SOL    HW130674   5.772  11.264   3.401
76300SOL    HW230675   5.747  11.326   3.537
76301SOL     OW30676  11.866   3.949   8.312
76301SOL    HW130677  11.846   3.857   8.300
76301SOL    HW230678  11.846   3.990   8.228
76302SOL     OW30679   1.008   7.357   9.286
76302SOL    HW130680   1.034   7.449   9.278
76302SOL    HW230681   0.912   7.359   9.279
76303SOL     OW30682  12.367   9.929   2.001
76303SOL    HW130683  12.374   9.929   1.905
76303SOL    HW230684  12.272   9.927   2.017
76304SOL     OW30685   3.085   9.746  13.316
76304SOL    HW130686   3.160   9.691  13.339
76304SOL    HW230687   3.121   9.812  13.257
76305SOL     OW30688   0.458   0.508   3.199
76305SOL    HW130689   0.521   0.534   3.266
76305SOL    HW230690   0.506   0.445   3.144
76306SOL     OW30691  11.409  10.946   8.754
76306SOL    HW130692  11.374  10.888   8.822
76306SOL    HW230693  11.399  11.034   8.791
76307SOL     OW30694  10.564  13.537  14.692
76307SOL    HW130695  10.639  13.508  14.745
76307SOL    HW230696  10.487  13.514  14.744
76308SOL     OW30697  12.836   4.874  11.181
76308SOL    HW130698  12.902   4.944  11.183
76308SOL    HW230699  12.753   4.919  11.165
76309SOL     OW30700   4.240   5.073   4.163
76309SOL    HW130701   4.254   5.008   4.095
76309SOL    HW230702   4.226   5.155   4.116
76310SOL     OW30703   8.866   7.151   3.665
76310SOL    HW130704   8.874   7.223   3.603
76310SOL    HW230705   8.877   7.191   3.751
76311SOL     OW30706   1.056   2.918   0.332
76311SOL    HW130707   1.069   2.983   0.400
76311SOL    HW230708   1.073   2.834   0.375
76312SOL     OW30709  12.153   9.500   5.744
76312SOL    HW130710  12.093   9.572   5.729
76312SOL    HW230711  12.238   9.532   5.713
76313SOL     OW30712   5.667   4.005   4.519
76313SOL    HW130713   5.715   4.061   4.579
76313SOL    HW230714   5.625   4.065   4.457
76314SOL     OW30715   9.197   4.138   6.550
76314SOL    HW130716   9.170   4.154   6.459
76314SOL    HW230717   9.206   4.043   6.556
76315SOL     OW30718  12.401  13.110   5.088
76315SOL    HW130719  12.479  13.068   5.123
76315SOL    HW230720  12.329  13.070   5.137
76316SOL     OW30721  14.045   0.505   5.368
76316SOL    HW130722  14.057   0.452   5.447
76316SOL    HW230723  14.106   0.578   5.379
76317SOL     OW30724   5.020   4.511  12.540
76317SOL    HW130725   5.098   4.458  12.555
76317SOL    HW230726   5.053   4.600  12.530
76318SOL     OW30727  12.102  13.476  12.150
76318SOL    HW130728  12.109  13.561  12.108
76318SOL    HW230729  12.009  13.453  12.142
76319SOL     OW30730  14.797   0.307   4.613
76319SOL    HW130731  14.751   0.390   4.600
76319SOL    HW230732  14.853   0.321   4.689
76320SOL     OW30733   9.183   7.304   0.762
76320SOL    HW130734   9.244   7.250   0.711
76320SOL    HW230735   9.224   7.311   0.848
76321SOL     OW30736  14.771  11.138   2.747
76321SOL    HW130737  14.862  11.107   2.743
76321SOL    HW230738  14.767  11.210   2.685
76322SOL     OW30739   1.043   1.609  13.554
76322SOL    HW130740   1.113   1.658  13.599
76322SOL    HW230741   0.970   1.611  13.615
76323SOL     OW30742   8.617   1.673   9.290
76323SOL    HW130743   8.605   1.592   9.338
76323SOL    HW230744   8.597   1.742   9.353
76324SOL     OW30745   2.056   5.705   3.521
76324SOL    HW130746   2.095   5.633   3.570
76324SOL    HW230747   1.977   5.668   3.483
76325SOL     OW30748   0.524   0.487   4.706
76325SOL    HW130749   0.607   0.462   4.666
76325SOL    HW230750   0.549   0.536   4.784
76326SOL     OW30751   1.695   2.432  10.300
76326SOL    HW130752   1.731   2.492  10.235
76326SOL    HW230753   1.621   2.390  10.255
76327SOL     OW30754  10.682   7.035   1.314
76327SOL    HW130755  10.719   6.989   1.238
76327SOL    HW230756  10.672   6.968   1.381
76328SOL     OW30757   6.806   5.318  14.275
76328SOL    HW130758   6.789   5.224  14.280
76328SOL    HW230759   6.826   5.343  14.365
76329SOL     OW30760   6.998   5.536   6.650
76329SOL    HW130761   6.919   5.491   6.679
76329SOL    HW230762   7.012   5.505   6.561
76330SOL     OW30763   5.718   3.014   7.469
76330SOL    HW130764   5.742   2.929   7.505
76330SOL    HW230765   5.641   3.041   7.518
76331SOL     OW30766  12.957   5.216   8.379
76331SOL    HW130767  13.029   5.232   8.440
76331SOL    HW230768  12.977   5.270   8.303
76332SOL     OW30769  12.072  12.603  10.834
76332SOL    HW130770  12.102  12.647  10.913
76332SOL    HW230771  11.977  12.600  10.843
76333SOL     OW30772   1.083  12.637   2.553
76333SOL    HW130773   1.004  12.631   2.606
76333SOL    HW230774   1.154  12.613   2.612
76334SOL     OW30775   6.271   2.425   1.374
76334SOL    HW130776   6.200   2.479   1.338
76334SOL    HW230777   6.263   2.437   1.469
76335SOL     OW30778   6.905   2.600   5.339
76335SOL    HW130779   6.851   2.678   5.331
76335SOL    HW230780   6.863   2.535   5.283
76336SOL     OW30781   7.882   3.707   2.174
76336SOL    HW130782   7.926   3.624   2.156
76336SOL    HW230783   7.864   3.705   2.268
76337SOL     OW30784   4.664   0.943   1.768
76337SOL    HW130785   4.609   0.875   1.728
76337SOL    HW230786   4.753   0.920   1.741
76338SOL     OW30787  12.780  11.400  10.266
76338SOL    HW130788  12.805  11.412  10.357
76338SOL    HW230789  12.842  11.336  10.232
76339SOL     OW30790  12.221   8.082  10.655
76339SOL    HW130791  12.183   8.026  10.723
76339SOL    HW230792  12.260   8.020  10.592
76340SOL     OW30793   5.313  13.890   4.589
76340SOL    HW130794   5.299  13.823   4.522
76340SOL    HW230795   5.314  13.842   4.672
76341SOL     OW30796   6.972  11.831   5.973
76341SOL    HW130797   6.916  11.807   5.899
76341SOL    HW230798   7.016  11.911   5.944
76342SOL     OW30799   6.013   9.128   8.364
76342SOL    HW130800   5.996   9.218   8.337
76342SOL    HW230801   6.084   9.135   8.428
76343SOL     OW30802  14.517   4.300   1.984
76343SOL    HW130803  14.539   4.275   1.894
76343SOL    HW230804  14.564   4.382   1.999
76344SOL     OW30805  12.175   5.576   2.587
76344SOL    HW130806  12.146   5.622   2.508
76344SOL    HW230807  12.248   5.629   2.621
76345SOL     OW30808  14.768   6.655   3.526
76345SOL    HW130809  14.794   6.583   3.470
76345SOL    HW230810  14.702   6.618   3.585
76346SOL     OW30811   1.196   4.950   5.083
76346SOL    HW130812   1.103   4.970   5.088
76346SOL    HW230813   1.229   5.007   5.014
76347SOL     OW30814   2.325   2.927   9.306
76347SOL    HW130815   2.233   2.919   9.280
76347SOL    HW230816   2.327   2.894   9.396
76348SOL     OW30817   6.028   0.595   7.346
76348SOL    HW130818   6.046   0.605   7.253
76348SOL    HW230819   6.098   0.538   7.379
76349SOL     OW30820   7.606   5.844   6.175
76349SOL    HW130821   7.591   5.777   6.242
76349SOL    HW230822   7.701   5.851   6.167
76350SOL     OW30823  10.153   1.299  10.304
76350SOL    HW130824  10.143   1.233  10.372
76350SOL    HW230825  10.161   1.250  10.223
76351SOL     OW30826   9.753  10.614   1.788
76351SOL    HW130827   9.686  10.614   1.856
76351SOL    HW230828   9.742  10.530   1.744
76352SOL     OW30829   1.337   1.854   2.672
76352SOL    HW130830   1.308   1.884   2.586
76352SOL    HW230831   1.360   1.934   2.719
76353SOL     OW30832  11.274   1.206   0.255
76353SOL    HW130833  11.206   1.272   0.267
76353SOL    HW230834  11.233   1.124   0.281
76354SOL     OW30835  11.655   0.283   3.634
76354SOL    HW130836  11.569   0.315   3.659
76354SOL    HW230837  11.695   0.254   3.716
76355SOL     OW30838  12.801  10.238   1.355
76355SOL    HW130839  12.757  10.226   1.270
76355SOL    HW230840  12.731  10.232   1.419
76356SOL     OW30841   2.056   3.543  13.088
76356SOL    HW130842   2.109   3.622  13.097
76356SOL    HW230843   2.118   3.477  13.054
76357SOL     OW30844   5.435   0.267   8.899
76357SOL    HW130845   5.395   0.187   8.866
76357SOL    HW230846   5.474   0.308   8.822
76358SOL     OW30847   9.841  13.029   3.988
76358SOL    HW130848   9.935  13.023   3.972
76358SOL    HW230849   9.801  13.013   3.903
76359SOL     OW30850   9.830   5.537  12.874
76359SOL    HW130851   9.859   5.486  12.950
76359SOL    HW230852   9.896   5.519  12.807
76360SOL     OW30853   7.396  13.603   8.465
76360SOL    HW130854   7.395  13.509   8.448
76360SOL    HW230855   7.477  13.618   8.514
76361SOL     OW30856  12.159   7.280  13.153
76361SOL    HW130857  12.127   7.196  13.121
76361SOL    HW230858  12.238   7.297  13.102
76362SOL     OW30859   1.620  10.105   1.396
76362SOL    HW130860   1.542  10.152   1.368
76362SOL    HW230861   1.621  10.114   1.492
76363SOL     OW30862   9.095   6.652   6.616
76363SOL    HW130863   9.106   6.747   6.622
76363SOL    HW230864   9.016   6.634   6.667
76364SOL     OW30865   1.129   9.239   7.877
76364SOL    HW130866   1.194   9.178   7.913
76364SOL    HW230867   1.121   9.214   7.785
76365SOL     OW30868   1.065  12.782  14.248
76365SOL    HW130869   1.152  12.809  14.277
76365SOL    HW230870   1.082  12.705  14.193
76366SOL     OW30871  11.575  11.084  12.843
76366SOL    HW130872  11.589  11.025  12.769
76366SOL    HW230873  11.488  11.120  12.829
76367SOL     OW30874  14.086   3.175  11.602
76367SOL    HW130875  14.017   3.118  11.567
76367SOL    HW230876  14.081   3.254  11.549
76368SOL     OW30877   5.970   9.590   0.381
76368SOL    HW130878   6.042   9.650   0.360
76368SOL    HW230879   5.922   9.634   0.451
76369SOL     OW30880  13.682   0.102   7.367
76369SOL    HW130881  13.722   0.080   7.451
76369SOL    HW230882  13.738   0.170   7.330
76370SOL     OW30883   8.851   1.139   4.192
76370SOL    HW130884   8.922   1.197   4.218
76370SOL    HW230885   8.838   1.082   4.268
76371SOL     OW30886   1.246  13.703   8.502
76371SOL    HW130887   1.200  13.619   8.508
76371SOL    HW230888   1.264  13.727   8.592
76372SOL     OW30889   9.134  12.657   4.470
76372SOL    HW130890   9.064  12.596   4.446
76372SOL    HW230891   9.201  12.602   4.512
76373SOL     OW30892   4.845  11.280  11.760
76373SOL    HW130893   4.908  11.231  11.708
76373SOL    HW230894   4.890  11.362  11.781
76374SOL     OW30895  11.638   7.287   9.466
76374SOL    HW130896  11.694   7.240   9.527
76374SOL    HW230897  11.549   7.271   9.498
76375SOL     OW30898  13.008   5.371   5.325
76375SOL    HW130899  13.047   5.326   5.400
76375SOL    HW230900  13.038   5.462   5.334
76376SOL     OW30901  13.137   3.490   8.960
76376SOL    HW130902  13.041   3.487   8.956
76376SOL    HW230903  13.162   3.404   8.996
76377SOL     OW30904  11.802   4.759  11.971
76377SOL    HW130905  11.818   4.714  11.888
76377SOL    HW230906  11.869   4.725  12.030
76378SOL     OW30907  12.885   0.967   7.747
76378SOL    HW130908  12.969   0.922   7.740
76378SOL    HW230909  12.908   1.060   7.746
76379SOL     OW30910   3.561  11.935  14.107
76379SOL    HW130911   3.655  11.947  14.096
76379SOL    HW230912   3.550  11.842  14.127
76380SOL     OW30913   5.664   6.996   0.289
76380SOL    HW130914   5.597   6.936   0.321
76380SOL    HW230915   5.625   7.083   0.298
76381SOL     OW30916   5.994  13.813  12.694
76381SOL    HW130917   6.013  13.816  12.788
76381SOL    HW230918   6.068  13.767  12.656
76382SOL     OW30919   2.178   9.449   4.367
76382SOL    HW130920   2.175   9.377   4.303
76382SOL    HW230921   2.096   9.496   4.354
76383SOL     OW30922   7.201  10.002  10.025
76383SOL    HW130923   7.121   9.970  10.067
76383SOL    HW230924   7.207   9.952   9.944
76384SOL     OW30925  14.564   9.819   7.055
76384SOL    HW130926  14.600   9.743   7.101
76384SOL    HW230927  14.624   9.891   7.076
76385SOL     OW30928   7.666  11.847  14.686
76385SOL    HW130929   7.644  11.775  14.746
76385SOL    HW230930   7.687  11.920  14.744
76386SOL     OW30931   6.412   7.034   7.065
76386SOL    HW130932   6.366   7.098   7.120
76386SOL    HW230933   6.497   7.074   7.048
76387SOL     OW30934   8.995   0.882   5.785
76387SOL    HW130935   8.961   0.842   5.866
76387SOL    HW230936   9.012   0.808   5.727
76388SOL     OW30937   6.840   7.618   3.166
76388SOL    HW130938   6.922   7.641   3.123
76388SOL    HW230939   6.784   7.585   3.096
76389SOL     OW30940   2.469  10.682  10.612
76389SOL    HW130941   2.391  10.626  10.610
76389SOL    HW230942   2.435  10.770  10.628
76390SOL     OW30943   7.748  13.324   6.954
76390SOL    HW130944   7.843  13.327   6.939
76390SOL    HW230945   7.739  13.329   7.049
76391SOL     OW30946   3.996   8.632   2.629
76391SOL    HW130947   4.032   8.712   2.667
76391SOL    HW230948   4.003   8.646   2.534
76392SOL     OW30949   6.448   2.308  13.083
76392SOL    HW130950   6.362   2.347  13.067
76392SOL    HW230951   6.510   2.369  13.042
76393SOL     OW30952   2.783   5.849   2.253
76393SOL    HW130953   2.843   5.831   2.181
76393SOL    HW230954   2.832   5.904   2.314
76394SOL     OW30955   4.708   7.505  13.242
76394SOL    HW130956   4.636   7.519  13.180
76394SOL    HW230957   4.786   7.534  13.195
76395SOL     OW30958   0.746   8.322   8.810
76395SOL    HW130959   0.678   8.369   8.762
76395SOL    HW230960   0.706   8.299   8.894
76396SOL     OW30961   6.913   5.926  11.797
76396SOL    HW130962   6.882   5.987  11.731
76396SOL    HW230963   6.982   5.876  11.753
76397SOL     OW30964  11.106  11.317   8.265
76397SOL    HW130965  11.135  11.232   8.299
76397SOL    HW230966  11.085  11.300   8.173
76398SOL     OW30967   2.348   5.179  14.762
76398SOL    HW130968   2.420   5.195  14.701
76398SOL    HW230969   2.311   5.095  14.734
76399SOL     OW30970  12.431  12.463  14.852
76399SOL    HW130971  12.498  12.498  14.793
76399SOL    HW230972  12.481  12.417   0.042
76400SOL     OW30973  13.730   9.914   9.623
76400SOL    HW130974  13.819   9.910   9.589
76400SOL    HW230975  13.682   9.847   9.574
76401SOL     OW30976   6.058   9.489  12.970
76401SOL    HW130977   6.149   9.463  12.988
76401SOL    HW230978   6.066   9.575  12.928
76402SOL     OW30979   6.881  10.565   2.681
76402SOL    HW130980   6.869  10.519   2.598
76402SOL    HW230981   6.945  10.512   2.729
76403SOL     OW30982  11.988  14.806   0.102
76403SOL    HW130983  12.068  14.754   0.098
76403SOL    HW230984  11.935  14.774   0.029
76404SOL     OW30985  10.548  10.699   0.132
76404SOL    HW130986  10.627  10.682   0.080
76404SOL    HW230987  10.476  10.676   0.075
76405SOL     OW30988  10.915  12.411  11.026
76405SOL    HW130989  10.889  12.442  11.113
76405SOL    HW230990  10.833  12.379  10.987
76406SOL     OW30991   6.819  10.588  13.713
76406SOL    HW130992   6.797  10.652  13.645
76406SOL    HW230993   6.888  10.535  13.674
76407SOL     OW30994   8.237   3.060   3.734
76407SOL    HW130995   8.307   2.995   3.724
76407SOL    HW230996   8.232   3.077   3.828
76408SOL     OW30997  14.774   0.449   1.235
76408SOL    HW130998  14.824   0.421   1.312
76408SOL    HW230999  14.747   0.539   1.254
76409SOL     OW31000  12.006  12.197  14.783
76409SOL    HW131001  12.009  12.123  14.722
76409SOL    HW231002  11.914  12.219  14.789
76410SOL     OW31003   9.499   2.386   7.440
76410SOL    HW131004   9.451   2.382   7.523
76410SOL    HW231005   9.591   2.383   7.465
76411SOL     OW31006   2.329   3.896   7.348
76411SOL    HW131007   2.314   3.934   7.261
76411SOL    HW231008   2.357   3.806   7.330
76412SOL     OW31009   0.782  12.596   0.667
76412SOL    HW131010   0.786  12.614   0.761
76412SOL    HW231011   0.749  12.677   0.628
76413SOL     OW31012   1.439   6.327   3.311
76413SOL    HW131013   1.438   6.413   3.270
76413SOL    HW231014   1.409   6.343   3.401
76414SOL     OW31015  11.135   2.249   0.244
76414SOL    HW131016  11.092   2.311   0.186
76414SOL    HW231017  11.065   2.216   0.301
76415SOL     OW31018   5.874   9.200  11.549
76415SOL    HW131019   5.854   9.130  11.487
76415SOL    HW231020   5.897   9.154  11.630
76416SOL     OW31021   0.457   5.070   3.752
76416SOL    HW131022   0.517   5.005   3.715
76416SOL    HW231023   0.438   5.038   3.840
76417SOL     OW31024  14.595  13.531   2.765
76417SOL    HW131025  14.509  13.490   2.750
76417SOL    HW231026  14.597  13.547   2.859
76418SOL     OW31027  12.726   1.000   3.036
76418SOL    HW131028  12.814   1.007   3.074
76418SOL    HW231029  12.693   1.090   3.038
76419SOL     OW31030  12.367  13.413  11.517
76419SOL    HW131031  12.396  13.351  11.585
76419SOL    HW231032  12.310  13.361  11.460
76420SOL     OW31033   1.575  13.275   2.428
76420SOL    HW131034   1.598  13.328   2.504
76420SOL    HW231035   1.493  13.232   2.454
76421SOL     OW31036   7.949  12.012  10.727
76421SOL    HW131037   7.937  11.954  10.652
76421SOL    HW231038   7.863  12.048  10.744
76422SOL     OW31039  10.819   3.999   9.694
76422SOL    HW131040  10.879   4.050   9.749
76422SOL    HW231041  10.746   3.978   9.752
76423SOL     OW31042  12.125   1.656   6.541
76423SOL    HW131043  12.124   1.738   6.492
76423SOL    HW231044  12.071   1.674   6.619
76424SOL     OW31045   1.844   1.449  12.505
76424SOL    HW131046   1.925   1.497  12.523
76424SOL    HW231047   1.870   1.357  12.506
76425SOL     OW31048   2.352   5.325  12.933
76425SOL    HW131049   2.420   5.327  13.001
76425SOL    HW231050   2.400   5.309  12.852
76426SOL     OW31051   7.793  10.380  10.986
76426SOL    HW131052   7.879  10.421  10.996
76426SOL    HW231053   7.784  10.324  11.064
76427SOL     OW31054  12.766   7.959   9.837
76427SOL    HW131055  12.803   7.992   9.755
76427SOL    HW231056  12.824   7.887   9.863
76428SOL     OW31057   1.217   5.050  14.418
76428SOL    HW131058   1.277   4.991  14.373
76428SOL    HW231059   1.160   4.993  14.469
76429SOL     OW31060   2.923   5.786  14.504
76429SOL    HW131061   3.003   5.831  14.477
76429SOL    HW231062   2.880   5.763  14.422
76430SOL     OW31063   0.770   8.085  13.681
76430SOL    HW131064   0.745   8.175  13.659
76430SOL    HW231065   0.707   8.058  13.748
76431SOL     OW31066   2.558   7.273   7.258
76431SOL    HW131067   2.625   7.209   7.282
76431SOL    HW231068   2.475   7.225   7.266
76432SOL     OW31069  11.307   5.850  12.224
76432SOL    HW131070  11.245   5.923  12.228
76432SOL    HW231071  11.391   5.888  12.250
76433SOL     OW31072   8.505   7.514   0.843
76433SOL    HW131073   8.561   7.469   0.906
76433SOL    HW231074   8.546   7.498   0.758
76434SOL     OW31075   8.555  10.846   0.792
76434SOL    HW131076   8.615  10.772   0.798
76434SOL    HW231077   8.525  10.846   0.701
76435SOL     OW31078  11.318  10.397   4.229
76435SOL    HW131079  11.316  10.338   4.154
76435SOL    HW231080  11.237  10.378   4.276
76436SOL     OW31081   3.089  14.029   3.583
76436SOL    HW131082   3.055  13.953   3.537
76436SOL    HW231083   3.174  14.046   3.543
76437SOL     OW31084  13.562   8.011  13.208
76437SOL    HW131085  13.586   8.031  13.118
76437SOL    HW231086  13.467   7.997  13.206
76438SOL     OW31087  12.996   9.267   6.400
76438SOL    HW131088  13.090   9.269   6.415
76438SOL    HW231089  12.986   9.223   6.315
76439SOL     OW31090   3.271   1.834   0.411
76439SOL    HW131091   3.230   1.758   0.370
76439SOL    HW231092   3.270   1.901   0.343
76440SOL     OW31093   3.758   4.566   0.088
76440SOL    HW131094   3.725   4.549   0.000
76440SOL    HW231095   3.842   4.611   0.074
76441SOL     OW31096  11.786   2.061  10.816
76441SOL    HW131097  11.814   2.151  10.802
76441SOL    HW231098  11.739   2.038  10.736
76442SOL     OW31099   2.572  13.239   4.827
76442SOL    HW131100   2.639  13.233   4.895
76442SOL    HW231101   2.524  13.157   4.834
76443SOL     OW31102   1.088   9.370   0.310
76443SOL    HW131103   1.120   9.289   0.271
76443SOL    HW231104   1.028   9.406   0.245
76444SOL     OW31105   7.170   3.989   8.746
76444SOL    HW131106   7.242   3.950   8.795
76444SOL    HW231107   7.167   3.940   8.664
76445SOL     OW31108   0.264   6.534   8.456
76445SOL    HW131109   0.200   6.497   8.394
76445SOL    HW231110   0.348   6.524   8.411
76446SOL     OW31111  10.039  14.687   1.763
76446SOL    HW131112   9.963  14.660   1.814
76446SOL    HW231113  10.114  14.663   1.818
76447SOL     OW31114   2.120   8.249   9.626
76447SOL    HW131115   2.152   8.329   9.668
76447SOL    HW231116   2.199   8.208   9.591
76448SOL     OW31117   8.257  12.610   2.338
76448SOL    HW131118   8.181  12.658   2.307
76448SOL    HW231119   8.229  12.519   2.340
76449SOL     OW31120  11.298   5.327  10.807
76449SOL    HW131121  11.235   5.377  10.756
76449SOL    HW231122  11.357   5.288  10.742
76450SOL     OW31123  12.068  10.575   1.055
76450SOL    HW131124  12.089  10.604   0.967
76450SOL    HW231125  12.020  10.493   1.042
76451SOL     OW31126   5.222   1.109  11.879
76451SOL    HW131127   5.200   1.195  11.915
76451SOL    HW231128   5.315   1.099  11.896
76452SOL     OW31129  14.504   4.708  11.248
76452SOL    HW131130  14.449   4.703  11.170
76452SOL    HW231131  14.593   4.718  11.214
76453SOL     OW31132   8.668  11.904   1.662
76453SOL    HW131133   8.691  11.869   1.748
76453SOL    HW231134   8.619  11.985   1.682
76454SOL     OW31135   9.737  14.840  13.554
76454SOL    HW131136   9.723  14.784  13.630
76454SOL    HW231137   9.821  14.810  13.517
76455SOL     OW31138   8.442  10.722  11.510
76455SOL    HW131139   8.437  10.688  11.599
76455SOL    HW231140   8.496  10.658  11.463
76456SOL     OW31141  11.539   5.077   1.946
76456SOL    HW131142  11.583   5.031   2.017
76456SOL    HW231143  11.471   5.129   1.989
76457SOL     OW31144   5.335   9.686  12.601
76457SOL    HW131145   5.265   9.652  12.657
76457SOL    HW231146   5.346   9.620  12.533
76458SOL     OW31147  13.005  13.955   8.121
76458SOL    HW131148  13.071  14.013   8.084
76458SOL    HW231149  12.922  13.997   8.101
76459SOL     OW31150   0.711   7.167   5.997
76459SOL    HW131151   0.650   7.235   6.024
76459SOL    HW231152   0.665   7.121   5.927
76460SOL     OW31153   5.400   7.274  14.373
76460SOL    HW131154   5.490   7.257  14.402
76460SOL    HW231155   5.346   7.252  14.449
76461SOL     OW31156  10.624  11.917   0.146
76461SOL    HW131157  10.552  11.930   0.208
76461SOL    HW231158  10.581  11.896   0.063
76462SOL     OW31159   5.963   2.073  13.773
76462SOL    HW131160   5.976   2.156  13.819
76462SOL    HW231161   5.971   2.006  13.841
76463SOL     OW31162   8.126   9.184   8.323
76463SOL    HW131163   8.040   9.200   8.285
76463SOL    HW231164   8.181   9.161   8.248
76464SOL     OW31165   0.370   5.741  10.753
76464SOL    HW131166   0.434   5.671  10.735
76464SOL    HW231167   0.329   5.758  10.669
76465SOL     OW31168   7.721   5.175  10.397
76465SOL    HW131169   7.675   5.113  10.340
76465SOL    HW231170   7.799   5.199  10.347
76466SOL     OW31171  10.609   6.330   7.896
76466SOL    HW131172  10.553   6.389   7.845
76466SOL    HW231173  10.667   6.291   7.831
76467SOL     OW31174  12.505  14.834  11.823
76467SOL    HW131175  12.583  14.843  11.767
76467SOL    HW231176  12.450  14.770  11.777
76468SOL     OW31177  13.567   4.882  11.465
76468SOL    HW131178  13.485   4.917  11.500
76468SOL    HW231179  13.549   4.868  11.372
76469SOL     OW31180   4.050   9.484   0.292
76469SOL    HW131181   4.094   9.460   0.210
76469SOL    HW231182   4.120   9.520   0.347
76470SOL     OW31183  13.176   8.924   9.467
76470SOL    HW131184  13.173   9.009   9.510
76470SOL    HW231185  13.252   8.930   9.408
76471SOL     OW31186   8.059   5.715   9.854
76471SOL    HW131187   8.142   5.719   9.902
76471SOL    HW231188   8.010   5.792   9.884
76472SOL     OW31189   8.446  11.904  10.903
76472SOL    HW131190   8.498  11.858  10.968
76472SOL    HW231191   8.489  11.988  10.893
76473SOL     OW31192   5.024   7.525  11.042
76473SOL    HW131193   5.114   7.533  11.074
76473SOL    HW231194   4.972   7.508  11.121
76474SOL     OW31195   7.445   7.064   9.459
76474SOL    HW131196   7.363   7.104   9.488
76474SOL    HW231197   7.507   7.136   9.453
76475SOL     OW31198  13.632   0.437   4.716
76475SOL    HW131199  13.657   0.509   4.659
76475SOL    HW231200  13.696   0.438   4.787
76476SOL     OW31201   5.517   4.166  14.472
76476SOL    HW131202   5.440   4.124  14.511
76476SOL    HW231203   5.586   4.100  14.477
76477SOL     OW31204  11.961   1.682   8.541
76477SOL    HW131205  11.983   1.673   8.633
76477SOL    HW231206  11.896   1.613   8.525
76478SOL     OW31207   1.227   5.509  12.267
76478SOL    HW131208   1.247   5.561  12.190
76478SOL    HW231209   1.140   5.472  12.249
76479SOL     OW31210  10.739  13.791  14.325
76479SOL    HW131211  10.775  13.708  14.294
76479SOL    HW231212  10.681  13.766  14.397
76480SOL     OW31213   4.255   7.960  12.887
76480SOL    HW131214   4.326   8.007  12.930
76480SOL    HW231215   4.178   8.015  12.902
76481SOL     OW31216   3.573   6.027  13.100
76481SOL    HW131217   3.575   6.015  13.005
76481SOL    HW231218   3.595   6.119  13.114
76482SOL     OW31219  10.480   0.165   7.044
76482SOL    HW131220  10.462   0.111   7.121
76482SOL    HW231221  10.526   0.241   7.078
76483SOL     OW31222   7.778   1.779   9.086
76483SOL    HW131223   7.714   1.816   9.025
76483SOL    HW231224   7.744   1.693   9.108
76484SOL     OW31225  14.099   0.312  13.281
76484SOL    HW131226  14.134   0.360  13.356
76484SOL    HW231227  14.009   0.290  13.307
76485SOL     OW31228   9.050   6.978  13.749
76485SOL    HW131229   8.989   7.026  13.805
76485SOL    HW231230   9.018   6.888  13.749
76486SOL     OW31231   0.279   7.985  10.926
76486SOL    HW131232   0.365   8.007  10.964
76486SOL    HW231233   0.259   8.058  10.868
76487SOL     OW31234   8.152   8.986   0.826
76487SOL    HW131235   8.175   8.898   0.797
76487SOL    HW231236   8.075   8.973   0.882
76488SOL     OW31237   0.668  12.595   0.127
76488SOL    HW131238   0.733  12.586   0.057
76488SOL    HW231239   0.585  12.609   0.081
76489SOL     OW31240  12.406   0.570  14.762
76489SOL    HW131241  12.402   0.475  14.753
76489SOL    HW231242  12.493   0.594  14.731
76490SOL     OW31243  10.558   9.157  10.646
76490SOL    HW131244  10.555   9.064  10.626
76490SOL    HW231245  10.502   9.198  10.580
76491SOL     OW31246   6.339   5.174   1.490
76491SOL    HW131247   6.259   5.165   1.438
76491SOL    HW231248   6.314   5.141   1.577
76492SOL     OW31249   1.886  14.301   4.431
76492SOL    HW131250   1.918  14.267   4.348
76492SOL    HW231251   1.807  14.250   4.449
76493SOL     OW31252   7.841   6.942   4.272
76493SOL    HW131253   7.870   6.850   4.273
76493SOL    HW231254   7.921   6.992   4.285
76494SOL     OW31255   0.778  14.827   5.091
76494SOL    HW131256   0.856  14.800   5.138
76494SOL    HW231257   0.731   0.007   5.151
76495SOL     OW31258   7.554  13.664   6.057
76495SOL    HW131259   7.501  13.712   5.993
76495SOL    HW231260   7.499  13.660   6.135
76496SOL     OW31261   4.516  14.683   2.810
76496SOL    HW131262   4.575  14.755   2.835
76496SOL    HW231263   4.429  14.723   2.807
76497SOL     OW31264   4.248   0.297  13.926
76497SOL    HW131265   4.248   0.223  13.866
76497SOL    HW231266   4.272   0.372  13.872
76498SOL     OW31267   7.554   5.786  13.890
76498SOL    HW131268   7.643   5.757  13.912
76498SOL    HW231269   7.559   5.807  13.797
76499SOL     OW31270   5.976  11.432  13.552
76499SOL    HW131271   5.931  11.349  13.569
76499SOL    HW231272   5.915  11.482  13.498
76500SOL     OW31273  12.775   3.502   1.250
76500SOL    HW131274  12.822   3.468   1.174
76500SOL    HW231275  12.685   3.512   1.220
76501SOL     OW31276   1.106  12.291   4.127
76501SOL    HW131277   1.181  12.265   4.180
76501SOL    HW231278   1.033  12.293   4.188
76502SOL     OW31279  14.449   3.529   3.486
76502SOL    HW131280  14.447   3.453   3.428
76502SOL    HW231281  14.366   3.574   3.469
76503SOL     OW31282   9.206  14.235   1.630
76503SOL    HW131283   9.276  14.256   1.568
76503SOL    HW231284   9.240  14.262   1.715
76504SOL     OW31285   1.813   5.974   0.812
76504SOL    HW131286   1.848   6.006   0.729
76504SOL    HW231287   1.792   6.053   0.862
76505SOL     OW31288   0.683   2.211   7.785
76505SOL    HW131289   0.694   2.161   7.866
76505SOL    HW231290   0.766   2.256   7.773
76506SOL     OW31291  10.989  10.345  14.187
76506SOL    HW131292  10.958  10.420  14.238
76506SOL    HW231293  11.074  10.373  14.153
76507SOL     OW31294   0.973  12.480   1.906
76507SOL    HW131295   1.043  12.542   1.927
76507SOL    HW231296   1.016  12.395   1.907
76508SOL     OW31297   3.914   0.635  11.219
76508SOL    HW131298   3.840   0.694  11.202
76508SOL    HW231299   3.991   0.683  11.187
76509SOL     OW31300   0.262   1.467   3.944
76509SOL    HW131301   0.247   1.428   3.858
76509SOL    HW231302   0.289   1.394   4.000
76510SOL     OW31303  10.709  10.507  10.628
76510SOL    HW131304  10.700  10.599  10.604
76510SOL    HW231305  10.706  10.506  10.724
76511SOL     OW31306   5.889   8.534  11.828
76511SOL    HW131307   5.822   8.582  11.780
76511SOL    HW231308   5.963   8.594  11.832
76512SOL     OW31309   4.117  11.954   7.581
76512SOL    HW131310   4.101  11.868   7.543
76512SOL    HW231311   4.201  11.947   7.625
76513SOL     OW31312  12.292   3.028   6.983
76513SOL    HW131313  12.333   2.998   7.064
76513SOL    HW231314  12.216   2.970   6.972
76514SOL     OW31315  14.195   3.649   6.135
76514SOL    HW131316  14.210   3.556   6.149
76514SOL    HW231317  14.278   3.683   6.103
76515SOL     OW31318   3.029  10.909  10.573
76515SOL    HW131319   3.055  10.821  10.603
76515SOL    HW231320   3.020  10.899  10.478
76516SOL     OW31321  12.675   8.080  10.668
76516SOL    HW131322  12.601   8.134  10.694
76516SOL    HW231323  12.684   8.017  10.740
76517SOL     OW31324   7.764   4.808   9.929
76517SOL    HW131325   7.744   4.899   9.952
76517SOL    HW231326   7.697   4.784   9.865
76518SOL     OW31327   2.083  10.266  12.540
76518SOL    HW131328   2.178  10.266  12.547
76518SOL    HW231329   2.066  10.273  12.446
76519SOL     OW31330   0.899  13.183   5.839
76519SOL    HW131331   0.838  13.121   5.879
76519SOL    HW231332   0.961  13.204   5.910
76520SOL     OW31333   6.935   6.368  12.476
76520SOL    HW131334   6.848   6.405  12.489
76520SOL    HW231335   6.977   6.373  12.562
76521SOL     OW31336   2.075   4.174   7.699
76521SOL    HW131337   2.113   4.123   7.627
76521SOL    HW231338   1.986   4.140   7.707
76522SOL     OW31339  14.745   7.940   5.615
76522SOL    HW131340  14.674   7.926   5.551
76522SOL    HW231341  14.701   7.979   5.691
76523SOL     OW31342  14.504  10.854   5.720
76523SOL    HW131343  14.421  10.828   5.681
76523SOL    HW231344  14.562  10.779   5.705
76524SOL     OW31345  11.003  10.472  12.336
76524SOL    HW131346  11.085  10.488  12.382
76524SOL    HW231347  10.961  10.558  12.329
76525SOL     OW31348   6.615  11.620  14.426
76525SOL    HW131349   6.703  11.658  14.422
76525SOL    HW231350   6.613  11.559  14.353
76526SOL     OW31351   9.977   0.511   2.698
76526SOL    HW131352  10.072   0.502   2.688
76526SOL    HW231353   9.949   0.552   2.616
76527SOL     OW31354   5.520  10.658   6.981
76527SOL    HW131355   5.600  10.607   6.990
76527SOL    HW231356   5.454  10.610   7.032
76528SOL     OW31357   6.660   1.604   1.576
76528SOL    HW131358   6.615   1.523   1.551
76528SOL    HW231359   6.597   1.673   1.555
76529SOL     OW31360   0.763  14.268   4.200
76529SOL    HW131361   0.806  14.334   4.145
76529SOL    HW231362   0.812  14.271   4.282
76530SOL     OW31363   1.435   6.579   9.346
76530SOL    HW131364   1.524   6.548   9.361
76530SOL    HW231365   1.418   6.560   9.254
76531SOL     OW31366   5.182   2.579   4.890
76531SOL    HW131367   5.147   2.574   4.979
76531SOL    HW231368   5.218   2.492   4.873
76532SOL     OW31369  11.968   7.243   3.982
76532SOL    HW131370  11.995   7.167   3.930
76532SOL    HW231371  11.949   7.311   3.917
76533SOL     OW31372  14.336  10.549   1.860
76533SOL    HW131373  14.320  10.456   1.875
76533SOL    HW231374  14.322  10.590   1.945
76534SOL     OW31375  13.724  10.446   7.791
76534SOL    HW131376  13.656  10.461   7.725
76534SOL    HW231377  13.773  10.528   7.794
76535SOL     OW31378  10.771   8.623   1.954
76535SOL    HW131379  10.793   8.717   1.957
76535SOL    HW231380  10.765   8.597   2.046
76536SOL     OW31381   1.720  14.255   8.345
76536SOL    HW131382   1.811  14.243   8.318
76536SOL    HW231383   1.723  14.330   8.404
76537SOL     OW31384   2.797   5.461   4.216
76537SOL    HW131385   2.789   5.371   4.249
76537SOL    HW231386   2.884   5.465   4.178
76538SOL     OW31387  12.993   0.557   6.731
76538SOL    HW131388  13.034   0.569   6.645
76538SOL    HW231389  13.067   0.556   6.792
76539SOL     OW31390   7.592   4.166   6.989
76539SOL    HW131391   7.579   4.165   6.894
76539SOL    HW231392   7.600   4.074   7.013
76540SOL     OW31393   1.168  11.735   3.116
76540SOL    HW131394   1.125  11.668   3.170
76540SOL    HW231395   1.100  11.766   3.057
76541SOL     OW31396  11.657   4.166   9.862
76541SOL    HW131397  11.669   4.089   9.917
76541SOL    HW231398  11.684   4.240   9.918
76542SOL     OW31399   1.525   4.227   4.022
76542SOL    HW131400   1.465   4.251   3.952
76542SOL    HW231401   1.595   4.292   4.017
76543SOL     OW31402  12.420   1.031  14.863
76543SOL    HW131403  12.362   1.031  14.786
76543SOL    HW231404  12.479   0.958  14.847
76544SOL     OW31405   4.280   9.389   4.420
76544SOL    HW131406   4.224   9.338   4.362
76544SOL    HW231407   4.286   9.337   4.501
76545SOL     OW31408   3.694   5.177   7.567
76545SOL    HW131409   3.689   5.188   7.662
76545SOL    HW231410   3.625   5.234   7.533
76546SOL     OW31411   7.705  14.240   3.013
76546SOL    HW131412   7.712  14.301   2.939
76546SOL    HW231413   7.681  14.296   3.087
76547SOL     OW31414   0.360   4.527   5.562
76547SOL    HW131415   0.450   4.502   5.580
76547SOL    HW231416   0.308   4.450   5.586
76548SOL     OW31417  12.555   9.649  13.957
76548SOL    HW131418  12.498   9.573  13.949
76548SOL    HW231419  12.569   9.658  14.052
76549SOL     OW31420   9.119   2.842   1.500
76549SOL    HW131421   9.141   2.782   1.428
76549SOL    HW231422   9.090   2.784   1.571
76550SOL     OW31423   9.555  10.008  11.664
76550SOL    HW131424   9.514  10.020  11.578
76550SOL    HW231425   9.628   9.949  11.648
76551SOL     OW31426   6.752  10.029   1.562
76551SOL    HW131427   6.662  10.001   1.542
76551SOL    HW231428   6.805   9.950   1.548
76552SOL     OW31429   4.931  12.096  10.267
76552SOL    HW131430   4.978  12.152  10.205
76552SOL    HW231431   4.861  12.151  10.302
76553SOL     OW31432   2.013   9.845   4.237
76553SOL    HW131433   2.072   9.912   4.271
76553SOL    HW231434   1.989   9.792   4.313
76554SOL     OW31435   0.727   2.187  14.351
76554SOL    HW131436   0.743   2.276  14.384
76554SOL    HW231437   0.777   2.130  14.410
76555SOL     OW31438  13.705   8.622   4.713
76555SOL    HW131439  13.635   8.588   4.657
76555SOL    HW231440  13.722   8.551   4.775
76556SOL     OW31441   5.081  14.081   0.159
76556SOL    HW131442   5.053  14.042   0.242
76556SOL    HW231443   5.005  14.071   0.101
76557SOL     OW31444   6.218   9.110   4.202
76557SOL    HW131445   6.304   9.069   4.201
76557SOL    HW231446   6.215   9.160   4.283
76558SOL     OW31447   6.558   1.548   3.063
76558SOL    HW131448   6.487   1.499   3.102
76558SOL    HW231449   6.636   1.521   3.112
76559SOL     OW31450  13.546   1.849   1.093
76559SOL    HW131451  13.545   1.945   1.098
76559SOL    HW231452  13.636   1.825   1.117
76560SOL     OW31453  13.295   5.372   0.305
76560SOL    HW131454  13.219   5.337   0.350
76560SOL    HW231455  13.329   5.298   0.254
76561SOL     OW31456   9.794   9.395   0.526
76561SOL    HW131457   9.708   9.389   0.485
76561SOL    HW231458   9.835   9.310   0.509
76562SOL     OW31459  10.616   3.107   3.578
76562SOL    HW131460  10.655   3.065   3.501
76562SOL    HW231461  10.559   3.174   3.542
76563SOL     OW31462   0.378   1.419   9.269
76563SOL    HW131463   0.458   1.372   9.244
76563SOL    HW231464   0.331   1.356   9.325
76564SOL     OW31465   7.170  14.633   1.252
76564SOL    HW131466   7.165  14.645   1.347
76564SOL    HW231467   7.148  14.718   1.216
76565SOL     OW31468   4.401   8.879   9.549
76565SOL    HW131469   4.342   8.934   9.498
76565SOL    HW231470   4.448   8.940   9.606
76566SOL     OW31471   0.418  10.107   4.499
76566SOL    HW131472   0.416  10.068   4.586
76566SOL    HW231473   0.381  10.195   4.511
76567SOL     OW31474   8.289   7.908  10.926
76567SOL    HW131475   8.332   7.863  10.853
76567SOL    HW231476   8.200   7.925  10.895
76568SOL     OW31477  14.427   4.797  13.973
76568SOL    HW131478  14.387   4.874  14.014
76568SOL    HW231479  14.413   4.726  14.036
76569SOL     OW31480  10.526  14.800  11.270
76569SOL    HW131481  10.540  14.865  11.340
76569SOL    HW231482  10.614  14.787  11.233
76570SOL     OW31483   5.048  12.091  12.634
76570SOL    HW131484   4.964  12.046  12.627
76570SOL    HW231485   5.043  12.141  12.715
76571SOL     OW31486   2.984   0.659   8.551
76571SOL    HW131487   3.065   0.709   8.565
76571SOL    HW231488   2.945   0.651   8.638
76572SOL     OW31489   4.438   0.407  11.615
76572SOL    HW131490   4.353   0.394  11.572
76572SOL    HW231491   4.501   0.415  11.542
76573SOL     OW31492   0.570   0.863   5.026
76573SOL    HW131493   0.540   0.822   4.945
76573SOL    HW231494   0.516   0.941   5.036
76574SOL     OW31495   5.121   3.333  13.642
76574SOL    HW131496   5.158   3.289  13.565
76574SOL    HW231497   5.033   3.360  13.614
76575SOL     OW31498   6.475   2.567  12.672
76575SOL    HW131499   6.505   2.615  12.749
76575SOL    HW231500   6.386   2.597  12.657
76576SOL     OW31501   9.655   8.512  11.721
76576SOL    HW131502   9.591   8.465  11.667
76576SOL    HW231503   9.694   8.576  11.662
76577SOL     OW31504  12.355   6.995   3.461
76577SOL    HW131505  12.347   6.904   3.434
76577SOL    HW231506  12.273   7.036   3.433
76578SOL     OW31507   9.820   4.805   5.829
76578SOL    HW131508   9.880   4.735   5.803
76578SOL    HW231509   9.735   4.762   5.835
76579SOL     OW31510  12.851  10.427   0.951
76579SOL    HW131511  12.872  10.515   0.985
76579SOL    HW231512  12.923  10.407   0.891
76580SOL     OW31513   7.286  11.215   2.127
76580SOL    HW131514   7.243  11.238   2.209
76580SOL    HW231515   7.334  11.135   2.146
76581SOL     OW31516  13.972   2.995   5.398
76581SOL    HW131517  13.989   3.004   5.304
76581SOL    HW231518  14.048   3.036   5.440
76582SOL     OW31519   6.545   0.725   3.595
76582SOL    HW131520   6.550   0.651   3.656
76582SOL    HW231521   6.514   0.798   3.649
76583SOL     OW31522   1.959  12.274  10.612
76583SOL    HW131523   2.016  12.338  10.656
76583SOL    HW231524   1.955  12.304  10.521
76584SOL     OW31525  12.718  13.055   6.804
76584SOL    HW131526  12.705  13.057   6.710
76584SOL    HW231527  12.684  13.139   6.835
76585SOL     OW31528  14.709  11.134  12.108
76585SOL    HW131529  14.739  11.128  12.017
76585SOL    HW231530  14.689  11.044  12.132
76586SOL     OW31531   0.312   6.721  13.696
76586SOL    HW131532   0.399   6.731  13.733
76586SOL    HW231533   0.285   6.633  13.720
76587SOL     OW31534   6.622   2.710   5.686
76587SOL    HW131535   6.585   2.634   5.730
76587SOL    HW231536   6.690   2.741   5.746
76588SOL     OW31537   5.589   8.617   5.497
76588SOL    HW131538   5.595   8.630   5.402
76588SOL    HW231539   5.679   8.598   5.523
76589SOL     OW31540   0.483  12.164   4.455
76589SOL    HW131541   0.510  12.179   4.545
76589SOL    HW231542   0.542  12.218   4.402
76590SOL     OW31543   7.139  12.576   4.532
76590SOL    HW131544   7.104  12.665   4.520
76590SOL    HW231545   7.226  12.590   4.570
76591SOL     OW31546   8.372   5.597   9.076
76591SOL    HW131547   8.450   5.641   9.043
76591SOL    HW231548   8.299   5.639   9.030
76592SOL     OW31549   0.119  14.336   9.100
76592SOL    HW131550   0.119  14.251   9.145
76592SOL    HW231551   0.132  14.400   9.170
76593SOL     OW31552  11.165   2.209  10.901
76593SOL    HW131553  11.236   2.145  10.892
76593SOL    HW231554  11.154   2.219  10.995
76594SOL     OW31555   2.683   5.460  13.376
76594SOL    HW131556   2.739   5.423  13.308
76594SOL    HW231557   2.647   5.383  13.422
76595SOL     OW31558   5.841  12.575   0.009
76595SOL    HW131559   5.763  12.581   0.064
76595SOL    HW231560   5.807  12.554  14.800
76596SOL     OW31561   3.307   6.338  13.578
76596SOL    HW131562   3.260   6.278  13.521
76596SOL    HW231563   3.273   6.424  13.555
76597SOL     OW31564  11.672   5.983  13.293
76597SOL    HW131565  11.630   5.946  13.371
76597SOL    HW231566  11.690   6.074  13.317
76598SOL     OW31567   6.818  10.229   4.656
76598SOL    HW131568   6.724  10.218   4.669
76598SOL    HW231569   6.831  10.324   4.652
76599SOL     OW31570   2.553  11.062   2.800
76599SOL    HW131571   2.621  11.054   2.867
76599SOL    HW231572   2.590  11.019   2.723
76600SOL     OW31573   0.732   7.564   6.093
76600SOL    HW131574   0.782   7.492   6.131
76600SOL    HW231575   0.773   7.581   6.009
76601SOL     OW31576  12.805  14.602   5.830
76601SOL    HW131577  12.802  14.696   5.849
76601SOL    HW231578  12.897  14.578   5.845
76602SOL     OW31579  14.291   2.593   9.242
76602SOL    HW131580  14.317   2.610   9.333
76602SOL    HW231581  14.361   2.632   9.190
76603SOL     OW31582   1.678   9.617   0.741
76603SOL    HW131583   1.756   9.666   0.767
76603SOL    HW231584   1.709   9.554   0.676
76604SOL     OW31585   3.887  13.087   2.423
76604SOL    HW131586   3.802  13.090   2.466
76604SOL    HW231587   3.950  13.088   2.495
76605SOL     OW31588  11.787   8.074   9.956
76605SOL    HW131589  11.746   8.080   9.870
76605SOL    HW231590  11.824   7.986   9.959
76606SOL     OW31591   8.784   9.317  13.941
76606SOL    HW131592   8.794   9.227  13.910
76606SOL    HW231593   8.861   9.362  13.909
76607SOL     OW31594   1.027   5.761  14.841
76607SOL    HW131595   1.024   5.854  14.863
76607SOL    HW231596   1.084   5.756  14.764
76608SOL     OW31597   1.647   4.392  11.784
76608SOL    HW131598   1.674   4.369  11.695
76608SOL    HW231599   1.592   4.320  11.812
76609SOL     OW31600   4.877   6.039  13.846
76609SOL    HW131601   4.893   6.029  13.940
76609SOL    HW231602   4.928   6.116  13.821
76610SOL     OW31603   9.891   0.702   7.748
76610SOL    HW131604   9.914   0.609   7.750
76610SOL    HW231605   9.861   0.718   7.659
76611SOL     OW31606   7.794   6.900   2.426
76611SOL    HW131607   7.822   6.809   2.412
76611SOL    HW231608   7.834   6.949   2.355
76612SOL     OW31609   0.679  14.808   1.682
76612SOL    HW131610   0.746  14.773   1.740
76612SOL    HW231611   0.675  14.746   1.609
76613SOL     OW31612  13.722   0.711   3.951
76613SOL    HW131613  13.753   0.624   3.979
76613SOL    HW231614  13.633   0.696   3.919
76614SOL     OW31615  14.509   3.623  13.502
76614SOL    HW131616  14.599   3.624  13.469
76614SOL    HW231617  14.492   3.532  13.527
76615SOL     OW31618  13.673   9.630   3.150
76615SOL    HW131619  13.632   9.684   3.083
76615SOL    HW231620  13.764   9.660   3.152
76616SOL     OW31621   4.686   8.967   8.859
76616SOL    HW131622   4.771   9.010   8.853
76616SOL    HW231623   4.666   8.941   8.768
76617SOL     OW31624   8.449  10.677   9.708
76617SOL    HW131625   8.366  10.636   9.732
76617SOL    HW231626   8.501  10.605   9.669
76618SOL     OW31627   4.863   4.035  12.104
76618SOL    HW131628   4.837   4.125  12.121
76618SOL    HW231629   4.780   3.988  12.091
76619SOL     OW31630  11.501   5.746   5.819
76619SOL    HW131631  11.591   5.778   5.818
76619SOL    HW231632  11.448   5.824   5.805
76620SOL     OW31633  14.691   9.151  10.498
76620SOL    HW131634  14.676   9.087  10.567
76620SOL    HW231635  14.604   9.176  10.469
76621SOL     OW31636   5.398  13.188  14.384
76621SOL    HW131637   5.372  13.267  14.338
76621SOL    HW231638   5.419  13.125  14.315
76622SOL     OW31639  10.991   1.617   9.727
76622SOL    HW131640  11.012   1.531   9.690
76622SOL    HW231641  10.896   1.620   9.730
76623SOL     OW31642  13.864   5.376  10.506
76623SOL    HW131643  13.784   5.348  10.551
76623SOL    HW231644  13.921   5.299  10.508
76624SOL     OW31645  11.280  10.578  14.679
76624SOL    HW131646  11.351  10.642  14.668
76624SOL    HW231647  11.230  10.610  14.753
76625SOL     OW31648  12.453   3.013  13.342
76625SOL    HW131649  12.379   3.021  13.402
76625SOL    HW231650  12.446   2.924  13.306
76626SOL     OW31651  12.184   5.856   6.022
76626SOL    HW131652  12.188   5.856   5.926
76626SOL    HW231653  12.093   5.878   6.042
76627SOL     OW31654   3.244   0.658   6.714
76627SOL    HW131655   3.166   0.604   6.719
76627SOL    HW231656   3.315   0.602   6.746
76628SOL     OW31657   7.225   4.918   1.588
76628SOL    HW131658   7.228   4.846   1.525
76628SOL    HW231659   7.172   4.884   1.661
76629SOL     OW31660   3.559  13.386   0.969
76629SOL    HW131661   3.517  13.320   1.023
76629SOL    HW231662   3.565  13.347   0.882
76630SOL     OW31663   8.391  12.657  13.605
76630SOL    HW131664   8.423  12.595  13.670
76630SOL    HW231665   8.469  12.705  13.576
76631SOL     OW31666   2.920  14.676  13.114
76631SOL    HW131667   3.006  14.641  13.137
76631SOL    HW231668   2.879  14.695  13.199
76632SOL     OW31669  12.268  10.838  10.315
76632SOL    HW131670  12.242  10.752  10.280
76632SOL    HW231671  12.353  10.855  10.275
76633SOL     OW31672   0.720   9.180  12.840
76633SOL    HW131673   0.754   9.268  12.825
76633SOL    HW231674   0.677   9.185  12.925
76634SOL     OW31675   5.132   4.726  14.258
76634SOL    HW131676   5.113   4.805  14.207
76634SOL    HW231677   5.178   4.668  14.197
76635SOL     OW31678   7.248   5.907   1.143
76635SOL    HW131679   7.221   5.980   1.198
76635SOL    HW231680   7.327   5.874   1.184
76636SOL     OW31681   6.647   5.668  11.916
76636SOL    HW131682   6.609   5.712  11.992
76636SOL    HW231683   6.733   5.637  11.946
76637SOL     OW31684  11.745  11.662  12.925
76637SOL    HW131685  11.737  11.737  12.866
76637SOL    HW231686  11.837  11.660  12.949
76638SOL     OW31687   8.371  12.720   8.341
76638SOL    HW131688   8.373  12.702   8.435
76638SOL    HW231689   8.391  12.813   8.333
76639SOL     OW31690   0.165  14.227   8.023
76639SOL    HW131691   0.232  14.277   8.069
76639SOL    HW231692   0.212  14.151   7.987
76640SOL     OW31693   2.581  10.139   0.669
76640SOL    HW131694   2.582  10.122   0.575
76640SOL    HW231695   2.650  10.083   0.705
76641SOL     OW31696   6.822  14.243  13.621
76641SOL    HW131697   6.889  14.181  13.590
76641SOL    HW231698   6.739  14.206  13.590
76642SOL     OW31699   2.130   7.036  12.994
76642SOL    HW131700   2.081   7.005  13.070
76642SOL    HW231701   2.066   7.040  12.924
76643SOL     OW31702  10.872  11.095   6.073
76643SOL    HW131703  10.877  11.036   5.998
76643SOL    HW231704  10.881  11.037   6.149
76644SOL     OW31705   6.891  14.101   5.137
76644SOL    HW131706   6.895  14.181   5.190
76644SOL    HW231707   6.912  14.130   5.048
76645SOL     OW31708   2.266   4.951   3.077
76645SOL    HW131709   2.324   5.027   3.084
76645SOL    HW231710   2.325   4.877   3.065
76646SOL     OW31711  13.691   8.036  12.119
76646SOL    HW131712  13.681   8.093  12.043
76646SOL    HW231713  13.746   8.086  12.179
76647SOL     OW31714   4.309   3.848   2.094
76647SOL    HW131715   4.239   3.884   2.040
76647SOL    HW231716   4.265   3.817   2.173
76648SOL     OW31717   1.257   1.961  11.027
76648SOL    HW131718   1.330   1.977  11.088
76648SOL    HW231719   1.297   1.917  10.953
76649SOL     OW31720   4.011   5.574   9.309
76649SOL    HW131721   3.955   5.527   9.370
76649SOL    HW231722   3.987   5.666   9.320
76650SOL     OW31723  12.251   4.363   8.618
76650SOL    HW131724  12.262   4.298   8.689
76650SOL    HW231725  12.234   4.445   8.664
76651SOL     OW31726  12.743   6.848   3.354
76651SOL    HW131727  12.834   6.875   3.366
76651SOL    HW231728  12.745   6.753   3.358
76652SOL     OW31729  11.729  13.024   7.282
76652SOL    HW131730  11.737  12.930   7.267
76652SOL    HW231731  11.811  13.061   7.249
76653SOL     OW31732  11.595  10.948   7.525
76653SOL    HW131733  11.588  10.854   7.507
76653SOL    HW231734  11.567  10.957   7.616
76654SOL     OW31735   1.460  14.121   8.399
76654SOL    HW131736   1.541  14.135   8.350
76654SOL    HW231737   1.426  14.209   8.415
76655SOL     OW31738   9.501   6.302   9.610
76655SOL    HW131739   9.549   6.385   9.609
76655SOL    HW231740   9.558   6.243   9.658
76656SOL     OW31741  13.582   6.276   3.677
76656SOL    HW131742  13.576   6.181   3.664
76656SOL    HW231743  13.650   6.305   3.617
76657SOL     OW31744  11.586   9.346   4.456
76657SOL    HW131745  11.547   9.331   4.542
76657SOL    HW231746  11.568   9.438   4.438
76658SOL     OW31747  13.742   7.239   9.748
76658SOL    HW131748  13.679   7.209   9.814
76658SOL    HW231749  13.704   7.319   9.713
76659SOL     OW31750   0.097   3.921   9.326
76659SOL    HW131751   0.034   3.856   9.295
76659SOL    HW231752   0.128   3.886   9.410
76660SOL     OW31753  11.838   5.835   4.696
76660SOL    HW131754  11.924   5.794   4.700
76660SOL    HW231755  11.830   5.883   4.778
76661SOL     OW31756   8.238   8.596   6.444
76661SOL    HW131757   8.214   8.590   6.537
76661SOL    HW231758   8.235   8.505   6.413
76662SOL     OW31759   9.839   5.507   3.022
76662SOL    HW131760   9.773   5.448   2.984
76662SOL    HW231761   9.812   5.518   3.113
76663SOL     OW31762  13.613   0.439   9.987
76663SOL    HW131763  13.706   0.423  10.004
76663SOL    HW231764  13.602   0.533  10.003
76664SOL     OW31765  14.160   1.298   0.274
76664SOL    HW131766  14.192   1.209   0.261
76664SOL    HW231767  14.075   1.300   0.231
76665SOL     OW31768   6.573   7.545   4.281
76665SOL    HW131769   6.638   7.513   4.218
76665SOL    HW231770   6.551   7.469   4.334
76666SOL     OW31771   7.348   6.954   1.415
76666SOL    HW131772   7.430   6.972   1.461
76666SOL    HW231773   7.361   6.991   1.328
76667SOL     OW31774  14.379   1.451  10.416
76667SOL    HW131775  14.463   1.479  10.380
76667SOL    HW231776  14.331   1.417  10.341
76668SOL     OW31777   6.696   7.975   7.797
76668SOL    HW131778   6.692   7.951   7.705
76668SOL    HW231779   6.652   7.904   7.843
76669SOL     OW31780  12.771  12.385   6.088
76669SOL    HW131781  12.837  12.359   6.153
76669SOL    HW231782  12.695  12.411   6.140
76670SOL     OW31783   0.731   2.745  12.737
76670SOL    HW131784   0.720   2.825  12.789
76670SOL    HW231785   0.767   2.776  12.654
76671SOL     OW31786  10.693   3.673   5.409
76671SOL    HW131787  10.735   3.736   5.350
76671SOL    HW231788  10.655   3.608   5.350
76672SOL     OW31789  14.211   6.652   5.793
76672SOL    HW131790  14.213   6.561   5.764
76672SOL    HW231791  14.120   6.667   5.819
76673SOL     OW31792  13.158   1.495   2.019
76673SOL    HW131793  13.141   1.401   2.013
76673SOL    HW231794  13.092   1.529   2.079
76674SOL     OW31795   8.041  12.602   8.333
76674SOL    HW131796   8.023  12.596   8.427
76674SOL    HW231797   8.133  12.627   8.327
76675SOL     OW31798   0.374  12.930   6.202
76675SOL    HW131799   0.284  12.903   6.217
76675SOL    HW231800   0.375  13.023   6.223
76676SOL     OW31801   0.167  13.202   7.713
76676SOL    HW131802   0.101  13.269   7.731
76676SOL    HW231803   0.117  13.129   7.676
76677SOL     OW31804   7.267   4.504   7.811
76677SOL    HW131805   7.297   4.585   7.851
76677SOL    HW231806   7.191   4.530   7.759
76678SOL     OW31807   5.753   5.833  13.088
76678SOL    HW131808   5.722   5.873  13.007
76678SOL    HW231809   5.699   5.872  13.157
76679SOL     OW31810  12.308   9.023   3.403
76679SOL    HW131811  12.382   9.084   3.402
76679SOL    HW231812  12.232   9.079   3.417
76680SOL     OW31813   6.576   9.460   6.419
76680SOL    HW131814   6.522   9.438   6.495
76680SOL    HW231815   6.618   9.542   6.443
76681SOL     OW31816   1.340   0.008  10.608
76681SOL    HW131817   1.389  14.851  10.682
76681SOL    HW231818   1.370   0.098  10.599
76682SOL     OW31819   3.421  11.328   6.823
76682SOL    HW131820   3.376  11.410   6.843
76682SOL    HW231821   3.407  11.316   6.729
76683SOL     OW31822  11.039   8.853   5.756
76683SOL    HW131823  10.973   8.922   5.766
76683SOL    HW231824  11.030   8.825   5.665
76684SOL     OW31825  14.373   8.250   5.164
76684SOL    HW131826  14.392   8.216   5.077
76684SOL    HW231827  14.422   8.332   5.170
76685SOL     OW31828  10.730   2.901  11.268
76685SOL    HW131829  10.750   2.989  11.300
76685SOL    HW231830  10.699   2.914  11.179
76686SOL     OW31831   9.340   7.003  11.765
76686SOL    HW131832   9.295   6.925  11.796
76686SOL    HW231833   9.273   7.053  11.719
76687SOL     OW31834   0.937   5.294  13.603
76687SOL    HW131835   0.905   5.329  13.686
76687SOL    HW231836   1.028   5.324  13.597
76688SOL     OW31837  13.756  13.515   8.422
76688SOL    HW131838  13.713  13.450   8.367
76688SOL    HW231839  13.843  13.479   8.439
76689SOL     OW31840  10.274  14.147  10.492
76689SOL    HW131841  10.325  14.094  10.431
76689SOL    HW231842  10.323  14.229  10.500
76690SOL     OW31843   0.605   0.732   0.865
76690SOL    HW131844   0.523   0.769   0.898
76690SOL    HW231845   0.618   0.653   0.918
76691SOL     OW31846   0.369   5.304   5.433
76691SOL    HW131847   0.389   5.212   5.448
76691SOL    HW231848   0.303   5.303   5.363
76692SOL     OW31849  13.396  11.009   6.356
76692SOL    HW131850  13.366  11.076   6.416
76692SOL    HW231851  13.428  11.057   6.280
76693SOL     OW31852   3.152   7.745  12.134
76693SOL    HW131853   3.208   7.817  12.103
76693SOL    HW231854   3.154   7.753  12.229
76694SOL     OW31855   2.446   9.251   1.098
76694SOL    HW131856   2.432   9.296   1.182
76694SOL    HW231857   2.481   9.165   1.122
76695SOL     OW31858   7.085   6.247   8.509
76695SOL    HW131859   7.149   6.181   8.537
76695SOL    HW231860   7.018   6.197   8.463
76696SOL     OW31861  11.095   3.512  10.136
76696SOL    HW131862  11.144   3.440  10.098
76696SOL    HW231863  11.073   3.569  10.062
76697SOL     OW31864  10.384   7.294   9.521
76697SOL    HW131865  10.397   7.253   9.607
76697SOL    HW231866  10.390   7.222   9.459
76698SOL     OW31867   7.413   6.518  10.549
76698SOL    HW131868   7.429   6.530  10.455
76698SOL    HW231869   7.332   6.566  10.565
76699SOL     OW31870   3.705   5.938  13.609
76699SOL    HW131871   3.704   5.966  13.518
76699SOL    HW231872   3.793   5.956  13.640
76700SOL     OW31873  12.524  14.527   4.695
76700SOL    HW131874  12.565  14.612   4.678
76700SOL    HW231875  12.503  14.493   4.608
76701SOL     OW31876   9.529   3.942   3.544
76701SOL    HW131877   9.487   3.864   3.508
76701SOL    HW231878   9.466   3.976   3.608
76702SOL     OW31879  10.764  11.322   6.918
76702SOL    HW131880  10.707  11.287   6.849
76702SOL    HW231881  10.712  11.393   6.957
76703SOL     OW31882  11.400  13.574   9.017
76703SOL    HW131883  11.412  13.588   8.923
76703SOL    HW231884  11.434  13.654   9.058
76704SOL     OW31885   5.966   8.355  13.566
76704SOL    HW131886   5.994   8.437  13.526
76704SOL    HW231887   6.029   8.290  13.535
76705SOL     OW31888   2.155  10.035  13.633
76705SOL    HW131889   2.241  10.071  13.614
76705SOL    HW231890   2.100  10.112  13.649
76706SOL     OW31891   1.442   9.321   8.225
76706SOL    HW131892   1.523   9.272   8.239
76706SOL    HW231893   1.453   9.362   8.139
76707SOL     OW31894   4.391   2.851  12.015
76707SOL    HW131895   4.419   2.762  11.994
76707SOL    HW231896   4.437   2.907  11.952
76708SOL     OW31897   1.917   9.266   4.695
76708SOL    HW131898   1.886   9.224   4.775
76708SOL    HW231899   2.012   9.259   4.699
76709SOL     OW31900   9.620  13.235   7.346
76709SOL    HW131901   9.707  13.208   7.317
76709SOL    HW231902   9.595  13.169   7.410
76710SOL     OW31903   0.838   5.299   6.444
76710SOL    HW131904   0.822   5.225   6.386
76710SOL    HW231905   0.751   5.332   6.465
76711SOL     OW31906   0.039  11.905   9.849
76711SOL    HW131907   0.109  11.874   9.907
76711SOL    HW231908  14.836  11.879   9.892
76712SOL     OW31909  10.338   8.997  11.475
76712SOL    HW131910  10.355   9.090  11.488
76712SOL    HW231911  10.419   8.954  11.504
76713SOL     OW31912   6.333  13.013   9.045
76713SOL    HW131913   6.256  12.969   9.082
76713SOL    HW231914   6.400  12.945   9.041
76714SOL     OW31915   5.868  12.267  11.750
76714SOL    HW131916   5.937  12.287  11.687
76714SOL    HW231917   5.912  12.219  11.820
76715SOL     OW31918  13.794   7.746   7.741
76715SOL    HW131919  13.839   7.663   7.724
76715SOL    HW231920  13.806   7.760   7.835
76716SOL     OW31921   6.146  10.801   5.553
76716SOL    HW131922   6.059  10.792   5.591
76716SOL    HW231923   6.163  10.717   5.512
76717SOL     OW31924   8.346  12.374  13.437
76717SOL    HW131925   8.288  12.417  13.499
76717SOL    HW231926   8.295  12.369  13.356
76718SOL     OW31927  11.295  12.440  14.290
76718SOL    HW131928  11.313  12.519  14.341
76718SOL    HW231929  11.212  12.407  14.324
76719SOL     OW31930  12.881  11.897   3.269
76719SOL    HW131931  12.794  11.916   3.304
76719SOL    HW231932  12.876  11.804   3.246
76720SOL     OW31933   5.940  12.185   3.125
76720SOL    HW131934   6.027  12.146   3.127
76720SOL    HW231935   5.881  12.113   3.148
76721SOL     OW31936   1.140   2.030   6.019
76721SOL    HW131937   1.065   2.088   6.031
76721SOL    HW231938   1.191   2.040   6.100
76722SOL     OW31939  14.411   4.721   0.939
76722SOL    HW131940  14.340   4.692   0.996
76722SOL    HW231941  14.375   4.717   0.851
76723SOL     OW31942  14.453   4.983   5.233
76723SOL    HW131943  14.480   4.930   5.308
76723SOL    HW231944  14.374   4.941   5.201
76724SOL     OW31945   6.560   3.403   1.383
76724SOL    HW131946   6.576   3.468   1.314
76724SOL    HW231947   6.477   3.361   1.358
76725SOL     OW31948  14.493   4.106   3.308
76725SOL    HW131949  14.434   4.035   3.281
76725SOL    HW231950  14.577   4.063   3.322
76726SOL     OW31951   4.346   8.980   2.824
76726SOL    HW131952   4.367   9.042   2.893
76726SOL    HW231953   4.292   9.029   2.763
76727SOL     OW31954   6.302   9.644   5.530
76727SOL    HW131955   6.221   9.605   5.562
76727SOL    HW231956   6.330   9.586   5.459
76728SOL     OW31957   2.330   0.389  13.251
76728SOL    HW131958   2.425   0.392  13.262
76728SOL    HW231959   2.296   0.441  13.323
76729SOL     OW31960   6.147  13.203  14.310
76729SOL    HW131961   6.156  13.229  14.218
76729SOL    HW231962   6.053  13.191  14.322
76730SOL     OW31963   5.902   2.918   9.849
76730SOL    HW131964   5.822   2.932   9.900
76730SOL    HW231965   5.973   2.940   9.910
76731SOL     OW31966   8.367  14.593   3.614
76731SOL    HW131967   8.456  14.619   3.592
76731SOL    HW231968   8.312  14.655   3.567
76732SOL     OW31969   3.608   8.934   7.070
76732SOL    HW131970   3.622   8.937   6.976
76732SOL    HW231971   3.689   8.969   7.107
76733SOL     OW31972   6.858   0.037   9.345
76733SOL    HW131973   6.919   0.104   9.377
76733SOL    HW231974   6.870   0.036   9.250
76734SOL     OW31975   9.239   7.196  13.690
76734SOL    HW131976   9.261   7.129  13.625
76734SOL    HW231977   9.219   7.147  13.770
76735SOL     OW31978  11.765   1.030  11.839
76735SOL    HW131979  11.858   1.009  11.829
76735SOL    HW231980  11.762   1.126  11.837
76736SOL     OW31981   4.409  11.682   0.145
76736SOL    HW131982   4.454  11.623   0.084
76736SOL    HW231983   4.316  11.660   0.135
76737SOL     OW31984  14.456   2.631  11.283
76737SOL    HW131985  14.489   2.543  11.301
76737SOL    HW231986  14.520   2.689  11.323
76738SOL     OW31987   3.950   8.579   9.627
76738SOL    HW131988   3.883   8.515   9.601
76738SOL    HW231989   3.905   8.637   9.689
76739SOL     OW31990   9.826  14.206  12.438
76739SOL    HW131991   9.746  14.236  12.395
76739SOL    HW231992   9.896  14.251  12.391
76740SOL     OW31993  11.502  11.622   5.011
76740SOL    HW131994  11.529  11.714   5.009
76740SOL    HW231995  11.484  11.605   5.104
76741SOL     OW31996   9.592  11.635  11.567
76741SOL    HW131997   9.502  11.636  11.597
76741SOL    HW231998   9.609  11.725  11.538
76742SOL     OW31999  11.481   5.152  13.900
76742SOL    HW132000  11.407   5.126  13.956
76742SOL    HW232001  11.452   5.131  13.811
76743SOL     OW32002   3.806  11.912   7.014
76743SOL    HW132003   3.870  11.983   7.008
76743SOL    HW232004   3.732  11.943   6.960
76744SOL     OW32005   9.778   0.120   3.776
76744SOL    HW132006   9.838   0.159   3.713
76744SOL    HW232007   9.835   0.078   3.841
76745SOL     OW32008   8.732   1.244   2.270
76745SOL    HW132009   8.747   1.150   2.279
76745SOL    HW232010   8.652   1.260   2.320
76746SOL     OW32011   5.448  14.116  13.755
76746SOL    HW132012   5.440  14.077  13.842
76746SOL    HW232013   5.358  14.142  13.733
76747SOL     OW32014   6.995   9.103   3.256
76747SOL    HW132015   6.983   9.008   3.256
76747SOL    HW232016   6.991   9.127   3.163
76748SOL     OW32017  11.047   1.232   8.497
76748SOL    HW132018  11.071   1.298   8.432
76748SOL    HW232019  11.011   1.282   8.570
76749SOL     OW32020   1.036  10.373   3.850
76749SOL    HW132021   1.055  10.318   3.774
76749SOL    HW232022   1.105  10.351   3.913
76750SOL     OW32023  11.600   8.598   4.506
76750SOL    HW132024  11.657   8.550   4.447
76750SOL    HW232025  11.650   8.676   4.530
76751SOL     OW32026  13.703  14.846   1.526
76751SOL    HW132027  13.655   0.049   1.509
76751SOL    HW232028  13.753  14.865   1.605
76752SOL     OW32029  12.330   6.140   0.888
76752SOL    HW132030  12.240   6.108   0.889
76752SOL    HW232031  12.336   6.199   0.963
76753SOL     OW32032   8.216   4.946   1.929
76753SOL    HW132033   8.226   5.026   1.981
76753SOL    HW232034   8.126   4.950   1.896
76754SOL     OW32035   6.922   3.536   8.105
76754SOL    HW132036   6.858   3.605   8.089
76754SOL    HW232037   6.957   3.516   8.018
76755SOL     OW32038   0.322  10.205  10.239
76755SOL    HW132039   0.245  10.261  10.244
76755SOL    HW232040   0.288  10.120  10.210
76756SOL     OW32041   4.523  13.023  10.734
76756SOL    HW132042   4.528  13.039  10.829
76756SOL    HW232043   4.430  13.007  10.717
76757SOL     OW32044   0.644   4.891   2.696
76757SOL    HW132045   0.638   4.801   2.729
76757SOL    HW232046   0.657   4.945   2.775
76758SOL     OW32047  10.391   7.349  14.095
76758SOL    HW132048  10.295   7.348  14.103
76758SOL    HW232049  10.415   7.256  14.089
76759SOL     OW32050   2.617   3.561   9.448
76759SOL    HW132051   2.625   3.518   9.363
76759SOL    HW232052   2.684   3.521   9.502
76760SOL     OW32053   2.288  12.162   5.934
76760SOL    HW132054   2.377  12.129   5.922
76760SOL    HW232055   2.297  12.258   5.930
76761SOL     OW32056   7.251   1.018  10.388
76761SOL    HW132057   7.181   0.989  10.329
76761SOL    HW232058   7.330   0.977  10.353
76762SOL     OW32059   1.294   7.170  10.303
76762SOL    HW132060   1.247   7.169  10.219
76762SOL    HW232061   1.225   7.167  10.369
76763SOL     OW32062   0.357   0.589   8.007
76763SOL    HW132063   0.272   0.570   7.968
76763SOL    HW232064   0.346   0.675   8.048
76764SOL     OW32065   7.636   3.477   3.005
76764SOL    HW132066   7.697   3.470   2.931
76764SOL    HW232067   7.618   3.571   3.012
76765SOL     OW32068  14.151   0.726  10.068
76765SOL    HW132069  14.108   0.803  10.104
76765SOL    HW232070  14.231   0.759  10.028
76766SOL     OW32071   8.538   3.381   8.533
76766SOL    HW132072   8.602   3.450   8.552
76766SOL    HW232073   8.489   3.414   8.458
76767SOL     OW32074  11.473   0.341   4.255
76767SOL    HW132075  11.433   0.309   4.336
76767SOL    HW232076  11.432   0.425   4.239
76768SOL     OW32077   6.584   9.455   0.142
76768SOL    HW132078   6.653   9.508   0.182
76768SOL    HW232079   6.581   9.375   0.195
76769SOL     OW32080   3.195   3.843   5.417
76769SOL    HW132081   3.133   3.836   5.343
76769SOL    HW232082   3.246   3.922   5.398
76770SOL     OW32083   6.085  11.361  10.538
76770SOL    HW132084   6.168  11.321  10.564
76770SOL    HW232085   6.090  11.451  10.569
76771SOL     OW32086   9.492   4.633   8.790
76771SOL    HW132087   9.565   4.581   8.756
76771SOL    HW232088   9.416   4.601   8.743
76772SOL     OW32089   6.934   1.783   2.849
76772SOL    HW132090   6.993   1.854   2.873
76772SOL    HW232091   6.854   1.799   2.900
76773SOL     OW32092   7.649   6.545  10.695
76773SOL    HW132093   7.684   6.621  10.650
76773SOL    HW232094   7.566   6.527  10.651
76774SOL     OW32095   4.763  11.873  10.914
76774SOL    HW132096   4.767  11.965  10.941
76774SOL    HW232097   4.836  11.832  10.959
76775SOL     OW32098   2.606   6.176   9.202
76775SOL    HW132099   2.518   6.142   9.218
76775SOL    HW232100   2.604   6.265   9.237
76776SOL     OW32101  12.281   4.841  14.832
76776SOL    HW132102  12.264   4.844  14.737
76776SOL    HW232103  12.373   4.867  14.840
76777SOL     OW32104  11.945   8.634   9.789
76777SOL    HW132105  12.010   8.618   9.720
76777SOL    HW232106  11.948   8.728   9.803
76778SOL     OW32107  13.106   7.179   0.559
76778SOL    HW132108  13.155   7.116   0.613
76778SOL    HW232109  13.157   7.259   0.565
76779SOL     OW32110  11.195  14.339  12.175
76779SOL    HW132111  11.275  14.295  12.146
76779SOL    HW232112  11.145  14.353  12.095
76780SOL     OW32113   0.569   5.772  11.294
76780SOL    HW132114   0.661   5.788  11.274
76780SOL    HW232115   0.537   5.722  11.218
76781SOL     OW32116  12.005   5.110   5.073
76781SOL    HW132117  11.971   5.165   5.002
76781SOL    HW232118  11.938   5.042   5.085
76782SOL     OW32119   2.072   7.503   1.300
76782SOL    HW132120   2.087   7.530   1.391
76782SOL    HW232121   2.150   7.452   1.277
76783SOL     OW32122  14.253   0.399  13.881
76783SOL    HW132123  14.181   0.355  13.835
76783SOL    HW232124  14.233   0.387  13.974
76784SOL     OW32125   8.344   5.118   5.778
76784SOL    HW132126   8.321   5.156   5.693
76784SOL    HW232127   8.355   5.025   5.760
76785SOL     OW32128   7.723   7.887   4.866
76785SOL    HW132129   7.700   7.920   4.779
76785SOL    HW232130   7.791   7.947   4.897
76786SOL     OW32131  10.944  10.117   5.190
76786SOL    HW132132  10.897  10.199   5.180
76786SOL    HW232133  10.995  10.128   5.270
76787SOL     OW32134   6.381  10.676  12.934
76787SOL    HW132135   6.345  10.597  12.974
76787SOL    HW232136   6.359  10.668  12.841
76788SOL     OW32137   1.065   6.900  11.645
76788SOL    HW132138   0.992   6.870  11.592
76788SOL    HW232139   1.135   6.837  11.628
76789SOL     OW32140   8.941  14.826  13.400
76789SOL    HW132141   8.980  14.781  13.325
76789SOL    HW232142   8.946  14.762  13.471
76790SOL     OW32143   0.978  14.841   9.704
76790SOL    HW132144   1.002   0.046   9.746
76790SOL    HW232145   0.943  14.787   9.774
76791SOL     OW32146  13.090   8.789   2.164
76791SOL    HW132147  13.147   8.862   2.190
76791SOL    HW232148  13.027   8.781   2.236
76792SOL     OW32149   5.180   1.232   8.325
76792SOL    HW132150   5.131   1.311   8.302
76792SOL    HW232151   5.237   1.216   8.250
76793SOL     OW32152  12.314   9.735   8.341
76793SOL    HW132153  12.407   9.755   8.344
76793SOL    HW232154  12.290   9.747   8.249
76794SOL     OW32155   7.506   3.418  14.683
76794SOL    HW132156   7.554   3.500  14.671
76794SOL    HW232157   7.460   3.405  14.600
76795SOL     OW32158   7.137   6.762  11.965
76795SOL    HW132159   7.174   6.849  11.979
76795SOL    HW232160   7.051   6.765  12.007
76796SOL     OW32161  14.671  13.163   7.631
76796SOL    HW132162  14.733  13.103   7.674
76796SOL    HW232163  14.600  13.174   7.693
76797SOL     OW32164  11.722   0.678  10.980
76797SOL    HW132165  11.816   0.675  10.996
76797SOL    HW232166  11.688   0.738  11.046
76798SOL     OW32167   5.266  11.289  11.684
76798SOL    HW132168   5.343  11.235  11.666
76798SOL    HW232169   5.261  11.293  11.779
76799SOL     OW32170   2.349   6.216   7.934
76799SOL    HW132171   2.302   6.178   7.860
76799SOL    HW232172   2.300   6.186   8.011
76800SOL     OW32173   6.644   8.846  10.176
76800SOL    HW132174   6.723   8.792  10.184
76800SOL    HW232175   6.630   8.882  10.264
76801SOL     OW32176   7.621   1.561   8.898
76801SOL    HW132177   7.590   1.475   8.871
76801SOL    HW232178   7.620   1.558   8.994
76802SOL     OW32179   8.416  13.963   9.764
76802SOL    HW132180   8.436  14.055   9.779
76802SOL    HW232181   8.404  13.926   9.851
76803SOL     OW32182  12.632   8.620   4.045
76803SOL    HW132183  12.659   8.539   4.087
76803SOL    HW232184  12.627   8.599   3.952
76804SOL     OW32185   7.613  13.114   1.247
76804SOL    HW132186   7.592  13.036   1.196
76804SOL    HW232187   7.708  13.107   1.263
76805SOL     OW32188   6.110  10.864  14.375
76805SOL    HW132189   6.048  10.938  14.371
76805SOL    HW232190   6.161  10.871  14.295
76806SOL     OW32191   3.364   1.283   3.286
76806SOL    HW132192   3.418   1.337   3.228
76806SOL    HW232193   3.342   1.341   3.359
76807SOL     OW32194  11.669   4.948   7.593
76807SOL    HW132195  11.651   5.026   7.647
76807SOL    HW232196  11.759   4.925   7.616
76808SOL     OW32197   8.189   9.137   8.848
76808SOL    HW132198   8.103   9.174   8.830
76808SOL    HW232199   8.171   9.060   8.902
76809SOL     OW32200   1.042   2.084   1.775
76809SOL    HW132201   1.054   2.178   1.789
76809SOL    HW232202   1.089   2.042   1.847
76810SOL     OW32203   1.715   3.913   7.160
76810SOL    HW132204   1.635   3.964   7.173
76810SOL    HW232205   1.686   3.822   7.160
76811SOL     OW32206   9.739  13.151   9.005
76811SOL    HW132207   9.716  13.238   8.971
76811SOL    HW232208   9.768  13.102   8.928
76812SOL     OW32209   1.765   7.923   9.473
76812SOL    HW132210   1.851   7.907   9.511
76812SOL    HW232211   1.751   8.018   9.484
76813SOL     OW32212   5.108   1.048   3.720
76813SOL    HW132213   5.159   1.085   3.793
76813SOL    HW232214   5.125   1.107   3.647
76814SOL     OW32215   4.576   2.441  11.062
76814SOL    HW132216   4.524   2.441  11.142
76814SOL    HW232217   4.654   2.390  11.085
76815SOL     OW32218   4.869  12.916   5.403
76815SOL    HW132219   4.791  12.863   5.422
76815SOL    HW232220   4.834  12.995   5.361
76816SOL     OW32221   6.067   8.115   3.241
76816SOL    HW132222   5.976   8.143   3.237
76816SOL    HW232223   6.096   8.141   3.328
76817SOL     OW32224   1.557   6.089  10.638
76817SOL    HW132225   1.639   6.118  10.678
76817SOL    HW232226   1.574   6.093  10.544
76818SOL     OW32227  12.777   9.823   1.225
76818SOL    HW132228  12.858   9.788   1.261
76818SOL    HW232229  12.734   9.865   1.299
76819SOL     OW32230  10.919  12.602   1.636
76819SOL    HW132231  10.922  12.689   1.676
76819SOL    HW232232  10.890  12.618   1.546
76820SOL     OW32233  14.328   4.436   7.393
76820SOL    HW132234  14.364   4.351   7.421
76820SOL    HW232235  14.403   4.483   7.358
76821SOL     OW32236  11.007  10.124  14.874
76821SOL    HW132237  11.102  10.127  14.874
76821SOL    HW232238  10.985  10.054   0.057
76822SOL     OW32239  12.257  11.381   8.784
76822SOL    HW132240  12.295  11.380   8.697
76822SOL    HW232241  12.235  11.473   8.800
76823SOL     OW32242   7.968   9.921   9.361
76823SOL    HW132243   8.025   9.965   9.424
76823SOL    HW232244   7.933   9.846   9.408
76824SOL     OW32245   8.313  13.077   7.991
76824SOL    HW132246   8.313  13.006   8.056
76824SOL    HW232247   8.288  13.035   7.909
76825SOL     OW32248   5.893   0.982  14.074
76825SOL    HW132249   5.845   1.044  14.019
76825SOL    HW232250   5.826   0.942  14.130
76826SOL     OW32251   6.178  12.565  11.856
76826SOL    HW132252   6.191  12.619  11.778
76826SOL    HW232253   6.248  12.499  11.851
76827SOL     OW32254   5.426  11.836   4.471
76827SOL    HW132255   5.426  11.930   4.450
76827SOL    HW232256   5.518  11.810   4.462
76828SOL     OW32257  11.616   4.405   3.742
76828SOL    HW132258  11.639   4.397   3.835
76828SOL    HW232259  11.601   4.499   3.730
76829SOL     OW32260  11.827   3.322   6.897
76829SOL    HW132261  11.875   3.269   6.961
76829SOL    HW232262  11.821   3.266   6.820
76830SOL     OW32263  13.251  13.692   6.941
76830SOL    HW132264  13.159  13.665   6.946
76830SOL    HW232265  13.252  13.759   6.872
76831SOL     OW32266   3.231   1.797  13.663
76831SOL    HW132267   3.318   1.763  13.643
76831SOL    HW232268   3.172   1.725  13.643
76832SOL     OW32269   9.976   4.027   2.657
76832SOL    HW132270   9.891   4.062   2.682
76832SOL    HW232271   9.994   4.066   2.571
76833SOL     OW32272   6.024  14.377   2.432
76833SOL    HW132273   5.969  14.445   2.393
76833SOL    HW232274   6.083  14.424   2.490
76834SOL     OW32275   2.900   3.828   0.436
76834SOL    HW132276   2.918   3.749   0.488
76834SOL    HW232277   2.830   3.803   0.377
76835SOL     OW32278   9.103  11.966   4.378
76835SOL    HW132279   9.090  11.890   4.321
76835SOL    HW232280   9.153  12.028   4.326
76836SOL     OW32281   6.507   7.760   1.027
76836SOL    HW132282   6.501   7.820   1.101
76836SOL    HW232283   6.500   7.673   1.066
76837SOL     OW32284   8.325  11.868   6.352
76837SOL    HW132285   8.254  11.891   6.412
76837SOL    HW232286   8.396  11.930   6.374
76838SOL     OW32287   5.073   2.417  12.060
76838SOL    HW132288   5.128   2.489  12.028
76838SOL    HW232289   4.985   2.454  12.064
76839SOL     OW32290  13.521   3.122   6.554
76839SOL    HW132291  13.528   3.061   6.627
76839SOL    HW232292  13.608   3.159   6.543
76840SOL     OW32293  13.515   2.804   1.203
76840SOL    HW132294  13.436   2.786   1.153
76840SOL    HW232295  13.583   2.751   1.162
76841SOL     OW32296   8.700   7.063   4.219
76841SOL    HW132297   8.684   7.090   4.309
76841SOL    HW232298   8.770   7.121   4.188
76842SOL     OW32299   3.448   1.726  11.482
76842SOL    HW132300   3.379   1.662  11.498
76842SOL    HW232301   3.525   1.689  11.524
76843SOL     OW32302  12.111   9.596  10.930
76843SOL    HW132303  12.120   9.666  10.994
76843SOL    HW232304  12.111   9.640  10.845
76844SOL     OW32305   9.273   4.218  14.726
76844SOL    HW132306   9.360   4.259  14.731
76844SOL    HW232307   9.289   4.125  14.738
76845SOL     OW32308   4.021  10.394  14.211
76845SOL    HW132309   4.055  10.358  14.129
76845SOL    HW232310   4.088  10.456  14.240
76846SOL     OW32311  13.016  13.667  11.732
76846SOL    HW132312  13.043  13.736  11.671
76846SOL    HW232313  12.923  13.684  11.747
76847SOL     OW32314   7.964   3.584  11.938
76847SOL    HW132315   7.892   3.621  11.887
76847SOL    HW232316   7.922   3.528  12.003
76848SOL     OW32317   1.435  10.000  13.056
76848SOL    HW132318   1.475  10.085  13.033
76848SOL    HW232319   1.346  10.022  13.082
76849SOL     OW32320   6.779   2.164   9.185
76849SOL    HW132321   6.729   2.117   9.252
76849SOL    HW232322   6.857   2.110   9.172
76850SOL     OW32323  12.690  12.315   5.282
76850SOL    HW132324  12.726  12.350   5.200
76850SOL    HW232325  12.748  12.348   5.350
76851SOL     OW32326  10.432  13.769   8.234
76851SOL    HW132327  10.416  13.857   8.197
76851SOL    HW232328  10.430  13.711   8.158
76852SOL     OW32329  12.977  13.564   4.394
76852SOL    HW132330  12.887  13.568   4.426
76852SOL    HW232331  12.970  13.585   4.300
76853SOL     OW32332   3.965   3.342  13.049
76853SOL    HW132333   3.975   3.366  12.957
76853SOL    HW232334   3.930   3.420  13.091
76854SOL     OW32335   3.213  14.777   2.427
76854SOL    HW132336   3.220  14.690   2.468
76854SOL    HW232337   3.120  14.786   2.406
76855SOL     OW32338  13.454  14.426  11.057
76855SOL    HW132339  13.538  14.447  11.097
76855SOL    HW232340  13.452  14.330  11.054
76856SOL     OW32341   8.633   0.554   7.751
76856SOL    HW132342   8.689   0.560   7.674
76856SOL    HW232343   8.636   0.642   7.789
76857SOL     OW32344   1.046   9.188  13.121
76857SOL    HW132345   1.059   9.188  13.026
76857SOL    HW232346   0.974   9.126  13.135
76858SOL     OW32347   1.644   3.033   8.773
76858SOL    HW132348   1.658   3.116   8.727
76858SOL    HW232349   1.731   3.005   8.800
76859SOL     OW32350  11.989   3.598  11.359
76859SOL    HW132351  12.077   3.604  11.321
76859SOL    HW232352  11.939   3.545  11.296
76860SOL     OW32353   1.875   3.315   8.665
76860SOL    HW132354   1.928   3.390   8.639
76860SOL    HW232355   1.855   3.330   8.758
76861SOL     OW32356   8.584   2.779   3.150
76861SOL    HW132357   8.631   2.805   3.230
76861SOL    HW232358   8.605   2.849   3.087
76862SOL     OW32359   1.787   2.180   8.915
76862SOL    HW132360   1.713   2.128   8.945
76862SOL    HW232361   1.856   2.115   8.898
76863SOL     OW32362   5.332  12.085  10.151
76863SOL    HW132363   5.383  12.156  10.113
76863SOL    HW232364   5.364  12.078  10.241
76864SOL     OW32365   6.825   8.006   3.335
76864SOL    HW132366   6.905   7.955   3.350
76864SOL    HW232367   6.799   7.983   3.245
76865SOL     OW32368  10.946  13.575   7.007
76865SOL    HW132369  10.947  13.528   7.090
76865SOL    HW232370  10.940  13.507   6.941
76866SOL     OW32371  10.793   0.994   8.162
76866SOL    HW132372  10.873   1.004   8.111
76866SOL    HW232373  10.735   0.943   8.106
76867SOL     OW32374   7.098   5.293  14.725
76867SOL    HW132375   7.108   5.219  14.785
76867SOL    HW232376   7.177   5.345  14.738
76868SOL     OW32377   6.916  13.883   8.513
76868SOL    HW132378   6.951  13.888   8.602
76868SOL    HW232379   6.833  13.931   8.517
76869SOL     OW32380   4.987  11.793  11.073
76869SOL    HW132381   4.996  11.727  11.142
76869SOL    HW232382   5.053  11.860  11.095
76870SOL     OW32383   2.209   6.367  10.859
76870SOL    HW132384   2.249   6.437  10.808
76870SOL    HW232385   2.200   6.403  10.947
76871SOL     OW32386   0.892   2.138   6.592
76871SOL    HW132387   0.869   2.053   6.629
76871SOL    HW232388   0.985   2.149   6.613
76872SOL     OW32389  13.710  14.254  13.629
76872SOL    HW132390  13.696  14.185  13.694
76872SOL    HW232391  13.624  14.295  13.619
76873SOL     OW32392   6.970   2.411   1.211
76873SOL    HW132393   6.883   2.430   1.246
76873SOL    HW232394   7.025   2.480   1.247
76874SOL     OW32395   2.417  13.727   9.422
76874SOL    HW132396   2.506  13.749   9.450
76874SOL    HW232397   2.421  13.730   9.326
76875SOL     OW32398   6.849   5.904   5.520
76875SOL    HW132399   6.877   5.915   5.429
76875SOL    HW232400   6.808   5.987   5.543
76876SOL     OW32401   3.010   5.855   2.526
76876SOL    HW132402   2.954   5.931   2.510
76876SOL    HW232403   2.995   5.797   2.451
76877SOL     OW32404  10.788   6.691   2.702
76877SOL    HW132405  10.714   6.750   2.716
76877SOL    HW232406  10.749   6.604   2.703
76878SOL     OW32407   1.813   5.860  11.043
76878SOL    HW132408   1.805   5.884  10.951
76878SOL    HW232409   1.726   5.879  11.080
76879SOL     OW32410   3.005   4.948  13.890
76879SOL    HW132411   3.032   4.978  13.977
76879SOL    HW232412   3.083   4.907  13.854
76880SOL     OW32413   4.143  12.406   8.230
76880SOL    HW132414   4.233  12.385   8.207
76880SOL    HW232415   4.107  12.325   8.265
76881SOL     OW32416   5.630   7.100   6.752
76881SOL    HW132417   5.701   7.160   6.777
76881SOL    HW232418   5.605   7.057   6.834
76882SOL     OW32419   2.846   8.480  14.215
76882SOL    HW132420   2.781   8.540  14.178
76882SOL    HW232421   2.889   8.532  14.284
76883SOL     OW32422  10.677   4.895   0.949
76883SOL    HW132423  10.761   4.853   0.970
76883SOL    HW232424  10.698   4.957   0.879
76884SOL     OW32425   9.454  12.040  10.404
76884SOL    HW132426   9.482  11.953  10.375
76884SOL    HW232427   9.469  12.097  10.328
76885SOL     OW32428  13.344  12.319   7.835
76885SOL    HW132429  13.404  12.270   7.891
76885SOL    HW232430  13.336  12.404   7.877
76886SOL     OW32431   2.150   4.899  12.356
76886SOL    HW132432   2.157   4.920  12.449
76886SOL    HW232433   2.208   4.962  12.312
76887SOL     OW32434  10.245  13.926  13.565
76887SOL    HW132435  10.333  13.965  13.559
76887SOL    HW232436  10.186  13.998  13.546
76888SOL     OW32437   9.552   2.423   9.265
76888SOL    HW132438   9.541   2.406   9.171
76888SOL    HW232439   9.560   2.336   9.304
76889SOL     OW32440  10.619  14.626   3.600
76889SOL    HW132441  10.549  14.563   3.616
76889SOL    HW232442  10.600  14.662   3.513
76890SOL     OW32443  13.064  14.741   5.606
76890SOL    HW132444  13.000  14.673   5.585
76890SOL    HW232445  13.140  14.720   5.551
76891SOL     OW32446   0.055  14.735   5.212
76891SOL    HW132447   0.114  14.757   5.284
76891SOL    HW232448   0.053  14.814   5.158
76892SOL     OW32449   4.063   4.239  11.974
76892SOL    HW132450   4.148   4.245  12.017
76892SOL    HW232451   4.005   4.294  12.027
76893SOL     OW32452  13.946   2.491   8.675
76893SOL    HW132453  14.002   2.416   8.654
76893SOL    HW232454  13.955   2.550   8.600
76894SOL     OW32455   1.185  11.568  13.336
76894SOL    HW132456   1.118  11.538  13.275
76894SOL    HW232457   1.200  11.660  13.312
76895SOL     OW32458   0.941   0.169   4.121
76895SOL    HW132459   0.908   0.215   4.044
76895SOL    HW232460   1.036   0.180   4.116
76896SOL     OW32461   0.799  12.785  12.357
76896SOL    HW132462   0.744  12.853  12.320
76896SOL    HW232463   0.833  12.737  12.280
76897SOL     OW32464   7.216  13.191   3.687
76897SOL    HW132465   7.168  13.256   3.636
76897SOL    HW232466   7.150  13.124   3.707
76898SOL     OW32467  14.795   9.992   7.027
76898SOL    HW132468  14.831   9.913   6.986
76898SOL    HW232469  14.789  10.055   6.956
76899SOL     OW32470  12.726  11.928   9.118
76899SOL    HW132471  12.788  11.999   9.106
76899SOL    HW232472  12.728  11.879   9.036
76900SOL     OW32473   5.094   8.465   0.327
76900SOL    HW132474   5.097   8.556   0.300
76900SOL    HW232475   5.087   8.416   0.245
76901SOL     OW32476   2.610   3.848   2.745
76901SOL    HW132477   2.630   3.816   2.657
76901SOL    HW232478   2.523   3.812   2.765
76902SOL     OW32479  11.346   3.139   2.973
76902SOL    HW132480  11.370   3.225   3.007
76902SOL    HW232481  11.346   3.150   2.878
76903SOL     OW32482   6.142   7.804   4.925
76903SOL    HW132483   6.121   7.826   5.016
76903SOL    HW232484   6.134   7.887   4.878
76904SOL     OW32485  14.564  11.572   0.711
76904SOL    HW132486  14.494  11.598   0.771
76904SOL    HW232487  14.629  11.642   0.718
76905SOL     OW32488   3.448   6.738  11.398
76905SOL    HW132489   3.432   6.710  11.307
76905SOL    HW232490   3.544   6.736  11.406
76906SOL     OW32491  11.380   5.845   6.577
76906SOL    HW132492  11.320   5.792   6.628
76906SOL    HW232493  11.368   5.816   6.487
76907SOL     OW32494   3.205   4.224   7.815
76907SOL    HW132495   3.155   4.195   7.738
76907SOL    HW232496   3.251   4.302   7.784
76908SOL     OW32497   1.492  14.755   9.227
76908SOL    HW132498   1.453  14.684   9.279
76908SOL    HW232499   1.524  14.818   9.292
76909SOL     OW32500   5.001   9.137   1.465
76909SOL    HW132501   5.041   9.206   1.518
76909SOL    HW232502   4.910   9.134   1.494
76910SOL     OW32503   6.266   3.895   6.011
76910SOL    HW132504   6.217   3.834   5.957
76910SOL    HW232505   6.223   3.980   5.998
76911SOL     OW32506  14.831   6.562   1.462
76911SOL    HW132507  14.860   6.471   1.468
76911SOL    HW232508  14.859   6.591   1.375
76912SOL     OW32509   0.856  14.788   6.792
76912SOL    HW132510   0.788  14.755   6.733
76912SOL    HW232511   0.870  14.716   6.854
76913SOL     OW32512  11.578   3.587  14.737
76913SOL    HW132513  11.641   3.594  14.809
76913SOL    HW232514  11.583   3.495  14.711
76914SOL     OW32515   6.661   9.139   2.588
76914SOL    HW132516   6.672   9.152   2.682
76914SOL    HW232517   6.750   9.140   2.553
76915SOL     OW32518  14.493   5.479   5.449
76915SOL    HW132519  14.529   5.509   5.532
76915SOL    HW232520  14.570   5.457   5.396
76916SOL     OW32521   1.743   9.530  12.369
76916SOL    HW132522   1.753   9.440  12.398
76916SOL    HW232523   1.826   9.550  12.325
76917SOL     OW32524   3.063   2.054  10.938
76917SOL    HW132525   3.084   2.139  10.974
76917SOL    HW232526   3.101   1.991  10.999
76918SOL     OW32527  13.714   1.587   4.930
76918SOL    HW132528  13.805   1.604   4.907
76918SOL    HW232529  13.717   1.513   4.991
76919SOL     OW32530  12.268  10.799  14.679
76919SOL    HW132531  12.277  10.706  14.662
76919SOL    HW232532  12.357  10.829  14.699
76920SOL     OW32533  13.759  12.316   2.398
76920SOL    HW132534  13.819  12.248   2.430
76920SOL    HW232535  13.672  12.279   2.414
76921SOL     OW32536   7.103  10.887   2.133
76921SOL    HW132537   7.041  10.957   2.152
76921SOL    HW232538   7.189  10.928   2.140
76922SOL     OW32539   1.460   3.415   3.863
76922SOL    HW132540   1.494   3.456   3.942
76922SOL    HW232541   1.530   3.424   3.799
76923SOL     OW32542  12.556   7.080   0.173
76923SOL    HW132543  12.526   7.001   0.218
76923SOL    HW232544  12.597   7.047   0.092
76924SOL     OW32545   4.712   1.699   0.491
76924SOL    HW132546   4.708   1.603   0.494
76924SOL    HW232547   4.631   1.727   0.534
76925SOL     OW32548   9.154  12.619   6.106
76925SOL    HW132549   9.071  12.652   6.142
76925SOL    HW232550   9.157  12.527   6.133
76926SOL     OW32551   4.236   9.121   5.941
76926SOL    HW132552   4.265   9.207   5.910
76926SOL    HW232553   4.146   9.135   5.969
76927SOL     OW32554  14.244  11.146   0.826
76927SOL    HW132555  14.202  11.084   0.766
76927SOL    HW232556  14.245  11.229   0.778
76928SOL     OW32557   1.826   1.883  14.318
76928SOL    HW132558   1.917   1.856  14.326
76928SOL    HW232559   1.782   1.840  14.392
76929SOL     OW32560   3.618  12.242   5.377
76929SOL    HW132561   3.581  12.232   5.464
76929SOL    HW232562   3.550  12.286   5.326
76930SOL     OW32563   8.396   1.916   6.945
76930SOL    HW132564   8.346   1.835   6.940
76930SOL    HW232565   8.477   1.892   6.990
76931SOL     OW32566   6.268   1.379   1.299
76931SOL    HW132567   6.263   1.474   1.311
76931SOL    HW232568   6.334   1.367   1.231
76932SOL     OW32569  13.260   1.145  11.719
76932SOL    HW132570  13.176   1.189  11.733
76932SOL    HW232571  13.306   1.155  11.803
76933SOL     OW32572  11.806  11.940   9.071
76933SOL    HW132573  11.779  12.002   9.140
76933SOL    HW232574  11.885  11.899   9.106
76934SOL     OW32575  13.373   3.226   0.148
76934SOL    HW132576  13.351   3.291   0.215
76934SOL    HW232577  13.291   3.179   0.132
76935SOL     OW32578  13.818   1.010   4.295
76935SOL    HW132579  13.785   0.989   4.208
76935SOL    HW232580  13.868   0.932   4.320
76936SOL     OW32581   3.031   1.064   9.309
76936SOL    HW132582   3.111   1.031   9.348
76936SOL    HW232583   3.061   1.120   9.236
76937SOL     OW32584   4.735  11.239   6.414
76937SOL    HW132585   4.756  11.252   6.507
76937SOL    HW232586   4.750  11.146   6.399
76938SOL     OW32587  11.537   9.383   3.229
76938SOL    HW132588  11.456   9.389   3.179
76938SOL    HW232589  11.529   9.451   3.296
76939SOL     OW32590   3.664   9.081   8.677
76939SOL    HW132591   3.686   9.044   8.592
76939SOL    HW232592   3.625   9.008   8.725
76940SOL     OW32593  10.535  11.196   6.786
76940SOL    HW132594  10.446  11.177   6.814
76940SOL    HW232595  10.573  11.111   6.764
76941SOL     OW32596   8.831  14.686   1.965
76941SOL    HW132597   8.869  14.729   2.041
76941SOL    HW232598   8.771  14.751   1.929
76942SOL     OW32599   2.362   7.074  11.818
76942SOL    HW132600   2.447   7.042  11.788
76942SOL    HW232601   2.374   7.168  11.831
76943SOL     OW32602  11.557  11.031   1.832
76943SOL    HW132603  11.595  10.990   1.910
76943SOL    HW232604  11.471  10.991   1.824
76944SOL     OW32605   5.138   4.991   4.257
76944SOL    HW132606   5.148   5.074   4.304
76944SOL    HW232607   5.124   5.016   4.166
76945SOL     OW32608   0.165  13.786  12.300
76945SOL    HW132609   0.127  13.868  12.267
76945SOL    HW232610   0.108  13.718  12.265
76946SOL     OW32611   2.979  12.737   5.828
76946SOL    HW132612   2.898  12.700   5.863
76946SOL    HW232613   3.023  12.776   5.904
76947SOL     OW32614  10.321   8.431   9.650
76947SOL    HW132615  10.282   8.456   9.566
76947SOL    HW232616  10.387   8.498   9.667
76948SOL     OW32617   0.605   8.906   1.823
76948SOL    HW132618   0.566   8.822   1.801
76948SOL    HW232619   0.684   8.883   1.873
76949SOL     OW32620   1.315  13.227   9.029
76949SOL    HW132621   1.221  13.211   9.031
76949SOL    HW232622   1.328  13.284   8.953
76950SOL     OW32623   6.245   8.460  10.619
76950SOL    HW132624   6.268   8.451  10.712
76950SOL    HW232625   6.268   8.551  10.598
76951SOL     OW32626   4.704   2.613  10.508
76951SOL    HW132627   4.693   2.694  10.558
76951SOL    HW232628   4.626   2.561  10.528
76952SOL     OW32629   4.074   2.148  12.124
76952SOL    HW132630   4.035   2.124  12.208
76952SOL    HW232631   4.070   2.244  12.122
76953SOL     OW32632   6.270   6.463   9.838
76953SOL    HW132633   6.323   6.485   9.915
76953SOL    HW232634   6.318   6.392   9.795
76954SOL     OW32635   1.847  14.589   4.562
76954SOL    HW132636   1.895  14.659   4.518
76954SOL    HW232637   1.851  14.515   4.501
76955SOL     OW32638  13.402   5.322   3.579
76955SOL    HW132639  13.406   5.254   3.513
76955SOL    HW232640  13.377   5.401   3.531
76956SOL     OW32641  10.168   0.839  12.407
76956SOL    HW132642  10.110   0.831  12.483
76956SOL    HW232643  10.245   0.788  12.430
76957SOL     OW32644   4.345  11.482   5.813
76957SOL    HW132645   4.375  11.559   5.860
76957SOL    HW232646   4.340  11.413   5.879
76958SOL     OW32647   8.934   4.509   3.328
76958SOL    HW132648   8.882   4.527   3.406
76958SOL    HW232649   8.899   4.568   3.261
76959SOL     OW32650   3.170   5.205   0.067
76959SOL    HW132651   3.090   5.253   0.088
76959SOL    HW232652   3.144   5.113   0.068
76960SOL     OW32653   2.883   7.200  10.000
76960SOL    HW132654   2.802   7.190   9.950
76960SOL    HW232655   2.860   7.261  10.070
76961SOL     OW32656   8.484   2.054  13.515
76961SOL    HW132657   8.508   1.995  13.444
76961SOL    HW232658   8.394   2.080  13.495
76962SOL     OW32659  12.832   2.253  11.440
76962SOL    HW132660  12.859   2.169  11.403
76962SOL    HW232661  12.902   2.314  11.415
76963SOL     OW32662   7.917  11.735   2.131
76963SOL    HW132663   7.964  11.651   2.128
76963SOL    HW232664   7.968  11.793   2.074
76964SOL     OW32665   7.674   1.299   6.192
76964SOL    HW132666   7.638   1.372   6.141
76964SOL    HW232667   7.650   1.319   6.282
76965SOL     OW32668   5.693   8.322   0.432
76965SOL    HW132669   5.606   8.288   0.412
76965SOL    HW232670   5.743   8.244   0.458
76966SOL     OW32671   9.462  13.403   2.812
76966SOL    HW132672   9.521  13.329   2.797
76966SOL    HW232673   9.408  13.376   2.887
76967SOL     OW32674  11.101   4.391   6.884
76967SOL    HW132675  11.056   4.410   6.802
76967SOL    HW232676  11.034   4.352   6.940
76968SOL     OW32677   9.666   2.795   1.633
76968SOL    HW132678   9.630   2.742   1.562
76968SOL    HW232679   9.607   2.869   1.641
76969SOL     OW32680   1.688  12.566   7.598
76969SOL    HW132681   1.779  12.594   7.605
76969SOL    HW232682   1.654  12.614   7.522
76970SOL     OW32683   5.075   0.136   9.287
76970SOL    HW132684   5.156   0.184   9.302
76970SOL    HW232685   5.082   0.104   9.197
76971SOL     OW32686   6.745   1.567   2.802
76971SOL    HW132687   6.808   1.635   2.780
76971SOL    HW232688   6.715   1.589   2.890
76972SOL     OW32689   0.748   7.012   9.168
76972SOL    HW132690   0.750   6.978   9.079
76972SOL    HW232691   0.838   7.038   9.187
76973SOL     OW32692   6.473   5.626  11.470
76973SOL    HW132693   6.562   5.599  11.446
76973SOL    HW232694   6.417   5.563  11.425
76974SOL     OW32695   7.604  13.085  12.802
76974SOL    HW132696   7.546  13.158  12.781
76974SOL    HW232697   7.612  13.088  12.897
76975SOL     OW32698  13.874   6.931   0.534
76975SOL    HW132699  13.850   7.024   0.529
76975SOL    HW232700  13.900   6.909   0.445
76976SOL     OW32701   5.267  14.603   7.938
76976SOL    HW132702   5.334  14.667   7.964
76976SOL    HW232703   5.288  14.582   7.848
76977SOL     OW32704   4.275   0.747   0.770
76977SOL    HW132705   4.238   0.686   0.706
76977SOL    HW232706   4.202   0.800   0.799
76978SOL     OW32707   4.377  14.487   1.581
76978SOL    HW132708   4.286  14.459   1.584
76978SOL    HW232709   4.427  14.408   1.559
76979SOL     OW32710   0.334   1.117  11.708
76979SOL    HW132711   0.406   1.170  11.744
76979SOL    HW232712   0.366   1.091  11.622
76980SOL     OW32713   1.296  11.316   5.719
76980SOL    HW132714   1.211  11.300   5.760
76980SOL    HW232715   1.275  11.336   5.628
76981SOL     OW32716   3.018  10.685   5.964
76981SOL    HW132717   2.974  10.693   5.880
76981SOL    HW232718   2.961  10.630   6.016
76982SOL     OW32719   9.767  10.563   9.841
76982SOL    HW132720   9.800  10.473   9.836
76982SOL    HW232721   9.824  10.606   9.905
76983SOL     OW32722   4.769  12.363   0.343
76983SOL    HW132723   4.828  12.428   0.305
76983SOL    HW232724   4.805  12.279   0.316
76984SOL     OW32725  13.589  12.907   9.946
76984SOL    HW132726  13.594  12.814   9.926
76984SOL    HW232727  13.552  12.947   9.867
76985SOL     OW32728  10.815   1.773   3.497
76985SOL    HW132729  10.911   1.774   3.504
76985SOL    HW232730  10.785   1.783   3.588
76986SOL     OW32731  14.222  14.343  14.390
76986SOL    HW132732  14.249  14.335  14.299
76986SOL    HW232733  14.208  14.437  14.403
76987SOL     OW32734  11.904  11.020   5.803
76987SOL    HW132735  11.943  11.092   5.853
76987SOL    HW232736  11.926  11.039   5.712
76988SOL     OW32737   6.000   9.042  13.360
76988SOL    HW132738   6.032   9.100  13.429
76988SOL    HW232739   6.024   9.086  13.279
76989SOL     OW32740  14.325   9.332   2.057
76989SOL    HW132741  14.312   9.384   1.978
76989SOL    HW232742  14.365   9.251   2.025
76990SOL     OW32743  14.003  10.359   8.939
76990SOL    HW132744  14.034  10.446   8.914
76990SOL    HW232745  13.982  10.368   9.032
76991SOL     OW32746  10.676   0.186  14.096
76991SOL    HW132747  10.594   0.156  14.057
76991SOL    HW232748  10.719   0.106  14.126
76992SOL     OW32749   1.546   7.109  13.988
76992SOL    HW132750   1.610   7.041  13.970
76992SOL    HW232751   1.492   7.074  14.059
76993SOL     OW32752  10.888   4.737   7.425
76993SOL    HW132753  10.848   4.809   7.375
76993SOL    HW232754  10.903   4.668   7.360
76994SOL     OW32755  13.028   9.184   3.576
76994SOL    HW132756  12.994   9.231   3.651
76994SOL    HW232757  12.962   9.197   3.507
76995SOL     OW32758   9.829  10.412   6.554
76995SOL    HW132759   9.909  10.375   6.591
76995SOL    HW232760   9.758  10.366   6.598
76996SOL     OW32761   5.183  13.212   8.222
76996SOL    HW132762   5.248  13.229   8.153
76996SOL    HW232763   5.236  13.193   8.300
76997SOL     OW32764   1.694   4.388   6.457
76997SOL    HW132765   1.612   4.351   6.487
76997SOL    HW232766   1.669   4.465   6.405
76998SOL     OW32767   2.635  13.156   4.470
76998SOL    HW132768   2.598  13.217   4.406
76998SOL    HW232769   2.560  13.108   4.504
76999SOL     OW32770   3.532  12.452   3.772
76999SOL    HW132771   3.520  12.545   3.794
76999SOL    HW232772   3.615  12.428   3.812
77000SOL     OW32773   1.910  11.103  13.277
77000SOL    HW132774   1.912  11.149  13.360
77000SOL    HW232775   1.949  11.164  13.214
77001SOL     OW32776  14.832  13.606   8.984
77001SOL    HW132777   0.030  13.548   8.991
77001SOL    HW232778  14.757  13.547   8.989
77002SOL     OW32779   7.475   2.339   4.693
77002SOL    HW132780   7.524   2.421   4.701
77002SOL    HW232781   7.542   2.272   4.680
77003SOL     OW32782   1.017   9.013   2.789
77003SOL    HW132783   1.046   8.935   2.836
77003SOL    HW232784   1.094   9.039   2.738
77004SOL     OW32785   5.217  11.364   8.993
77004SOL    HW132786   5.201  11.358   8.899
77004SOL    HW232787   5.132  11.348   9.032
77005SOL     OW32788  12.419  13.319   4.425
77005SOL    HW132789  12.494  13.360   4.466
77005SOL    HW232790  12.431  13.225   4.439
77006SOL     OW32791  14.049  11.657  13.215
77006SOL    HW132792  14.135  11.697  13.228
77006SOL    HW232793  13.994  11.727  13.180
77007SOL     OW32794   7.633   7.358   4.894
77007SOL    HW132795   7.647   7.266   4.918
77007SOL    HW232796   7.721   7.391   4.876
77008SOL     OW32797   5.749   3.370   3.932
77008SOL    HW132798   5.742   3.458   3.896
77008SOL    HW232799   5.842   3.348   3.923
77009SOL     OW32800   3.598  14.038   6.523
77009SOL    HW132801   3.527  14.007   6.466
77009SOL    HW232802   3.556  14.102   6.581
77010SOL     OW32803   7.889   8.228   9.742
77010SOL    HW132804   7.973   8.206   9.783
77010SOL    HW232805   7.887   8.176   9.662
77011SOL     OW32806  11.492  11.162  14.629
77011SOL    HW132807  11.533  11.106  14.694
77011SOL    HW232808  11.477  11.105  14.554
77012SOL     OW32809   9.529  13.123   8.206
77012SOL    HW132810   9.505  13.189   8.141
77012SOL    HW232811   9.447  13.103   8.251
77013SOL     OW32812   4.917   0.258  14.550
77013SOL    HW132813   4.946   0.284  14.463
77013SOL    HW232814   4.865   0.332  14.582
77014SOL     OW32815  13.501  12.935  11.957
77014SOL    HW132816  13.437  12.986  12.006
77014SOL    HW232817  13.564  12.999  11.925
77015SOL     OW32818   5.018   2.868  14.315
77015SOL    HW132819   5.017   2.880  14.410
77015SOL    HW232820   4.953   2.931  14.283
77016SOL     OW32821   1.676   3.685   0.989
77016SOL    HW132822   1.619   3.626   0.939
77016SOL    HW232823   1.682   3.644   1.076
77017SOL     OW32824   5.623   1.622  12.884
77017SOL    HW132825   5.662   1.709  12.890
77017SOL    HW232826   5.664   1.571  12.954
77018SOL     OW32827  12.337   4.998  12.738
77018SOL    HW132828  12.400   5.008  12.809
77018SOL    HW232829  12.366   4.920  12.692
77019SOL     OW32830   3.110   4.195  12.550
77019SOL    HW132831   3.048   4.217  12.620
77019SOL    HW232832   3.183   4.256  12.562
77020SOL     OW32833  11.531  10.460  14.262
77020SOL    HW132834  11.483  10.532  14.303
77020SOL    HW232835  11.605  10.502  14.218
77021SOL     OW32836   7.900  12.938   0.229
77021SOL    HW132837   7.883  12.998   0.302
77021SOL    HW232838   7.993  12.950   0.210
77022SOL     OW32839  13.945  12.144   4.719
77022SOL    HW132840  13.925  12.056   4.686
77022SOL    HW232841  13.867  12.170   4.768
77023SOL     OW32842   0.250   7.953  13.150
77023SOL    HW132843   0.302   7.982  13.075
77023SOL    HW232844   0.160   7.978  13.127
77024SOL     OW32845   5.163   4.270   3.165
77024SOL    HW132846   5.196   4.277   3.255
77024SOL    HW232847   5.213   4.197   3.127
77025SOL     OW32848   3.013   3.939   0.148
77025SOL    HW132849   2.958   3.980   0.081
77025SOL    HW232850   2.958   3.937   0.226
77026SOL     OW32851   5.946  11.685   7.074
77026SOL    HW132852   5.926  11.778   7.086
77026SOL    HW232853   5.914  11.664   6.987
77027SOL     OW32854   0.671  12.261  14.618
77027SOL    HW132855   0.688  12.230  14.707
77027SOL    HW232856   0.647  12.182  14.569
77028SOL     OW32857  10.230   8.822   7.328
77028SOL    HW132858  10.151   8.870   7.356
77028SOL    HW232859  10.202   8.731   7.325
77029SOL     OW32860   7.771   8.789   9.550
77029SOL    HW132861   7.830   8.793   9.474
77029SOL    HW232862   7.830   8.772   9.624
77030SOL     OW32863  14.002   3.930   5.894
77030SOL    HW132864  13.970   4.016   5.921
77030SOL    HW232865  14.098   3.938   5.897
77031SOL     OW32866   3.510  14.622   6.713
77031SOL    HW132867   3.591  14.585   6.746
77031SOL    HW232868   3.441  14.579   6.765
77032SOL     OW32869   2.868   4.426  11.664
77032SOL    HW132870   2.808   4.360  11.699
77032SOL    HW232871   2.839   4.440  11.574
77033SOL     OW32872   8.253   6.988  12.755
77033SOL    HW132873   8.324   6.930  12.782
77033SOL    HW232874   8.258   6.991  12.660
77034SOL     OW32875  14.142   2.740   3.443
77034SOL    HW132876  14.219   2.789   3.472
77034SOL    HW232877  14.105   2.702   3.522
77035SOL     OW32878  11.866  10.150   5.814
77035SOL    HW132879  11.894  10.088   5.747
77035SOL    HW232880  11.939  10.212   5.822
77036SOL     OW32881   6.420   2.118   6.502
77036SOL    HW132882   6.428   2.207   6.538
77036SOL    HW232883   6.391   2.065   6.575
77037SOL     OW32884   9.340  12.550   9.993
77037SOL    HW132885   9.423  12.503   9.985
77037SOL    HW232886   9.282  12.506   9.931
77038SOL     OW32887   1.807  14.594   7.784
77038SOL    HW132888   1.807  14.638   7.699
77038SOL    HW232889   1.881  14.533   7.780
77039SOL     OW32890  10.910   8.261   3.207
77039SOL    HW132891  10.943   8.300   3.288
77039SOL    HW232892  10.964   8.183   3.194
77040SOL     OW32893  11.883  10.252   2.879
77040SOL    HW132894  11.793  10.263   2.912
77040SOL    HW232895  11.874  10.192   2.805
77041SOL     OW32896   5.521  13.596   1.076
77041SOL    HW132897   5.590  13.662   1.080
77041SOL    HW232898   5.542  13.535   1.147
77042SOL     OW32899  14.738  13.722   6.917
77042SOL    HW132900  14.723  13.812   6.888
77042SOL    HW232901  14.763  13.675   6.838
77043SOL     OW32902   3.136   9.950   4.978
77043SOL    HW132903   3.214   9.913   4.937
77043SOL    HW232904   3.084   9.986   4.906
77044SOL     OW32905   5.367   7.082   3.051
77044SOL    HW132906   5.410   7.086   2.966
77044SOL    HW232907   5.324   7.167   3.060
77045SOL     OW32908   3.942  10.692  12.812
77045SOL    HW132909   3.863  10.639  12.801
77045SOL    HW232910   3.944  10.714  12.905
77046SOL     OW32911   2.491   2.740   7.520
77046SOL    HW132912   2.404   2.706   7.500
77046SOL    HW232913   2.485   2.767   7.612
77047SOL     OW32914   1.373  11.735   9.441
77047SOL    HW132915   1.468  11.725   9.449
77047SOL    HW232916   1.342  11.751   9.530
77048SOL     OW32917   5.001   7.736   6.273
77048SOL    HW132918   4.964   7.747   6.361
77048SOL    HW232919   4.995   7.823   6.234
77049SOL     OW32920   4.401  14.545   8.663
77049SOL    HW132921   4.325  14.504   8.622
77049SOL    HW232922   4.476  14.510   8.615
77050SOL     OW32923  13.908   7.084   3.780
77050SOL    HW132924  13.839   7.105   3.843
77050SOL    HW232925  13.978   7.146   3.801
77051SOL     OW32926  14.685   1.207   4.512
77051SOL    HW132927  14.610   1.155   4.542
77051SOL    HW232928  14.723   1.243   4.592
77052SOL     OW32929   0.460   3.717   0.566
77052SOL    HW132930   0.449   3.808   0.593
77052SOL    HW232931   0.374   3.678   0.580
77053SOL     OW32932   9.642   3.083  12.465
77053SOL    HW132933   9.593   3.060  12.544
77053SOL    HW232934   9.622   3.176  12.451
77054SOL     OW32935  10.741   3.835   5.199
77054SOL    HW132936  10.657   3.862   5.161
77054SOL    HW232937  10.790   3.799   5.125
77055SOL     OW32938   9.467  12.715  11.229
77055SOL    HW132939   9.462  12.647  11.162
77055SOL    HW232940   9.396  12.694  11.290
77056SOL     OW32941   3.925   1.264   5.515
77056SOL    HW132942   3.869   1.186   5.507
77056SOL    HW232943   4.011   1.229   5.538
77057SOL     OW32944   0.411   1.659  13.154
77057SOL    HW132945   0.377   1.749  13.155
77057SOL    HW232946   0.463   1.654  13.074
77058SOL     OW32947   2.062   9.375   9.490
77058SOL    HW132948   2.097   9.355   9.403
77058SOL    HW232949   2.119   9.328   9.551
77059SOL     OW32950   1.884   8.404  13.736
77059SOL    HW132951   1.812   8.456  13.773
77059SOL    HW232952   1.902   8.338  13.803
77060SOL     OW32953   5.795   7.455   2.873
77060SOL    HW132954   5.773   7.365   2.898
77060SOL    HW232955   5.806   7.501   2.956
77061SOL     OW32956   7.634  12.621   6.444
77061SOL    HW132957   7.641  12.620   6.540
77061SOL    HW232958   7.719  12.653   6.414
77062SOL     OW32959   7.120  10.711   0.987
77062SOL    HW132960   7.166  10.631   1.012
77062SOL    HW232961   7.152  10.778   1.048
77063SOL     OW32962   1.316   8.808  11.114
77063SOL    HW132963   1.256   8.868  11.070
77063SOL    HW232964   1.377   8.781  11.046
77064SOL     OW32965   3.173   1.275   5.026
77064SOL    HW132966   3.120   1.354   5.038
77064SOL    HW232967   3.128   1.226   4.956
77065SOL     OW32968   4.504   7.099   7.981
77065SOL    HW132969   4.416   7.098   8.021
77065SOL    HW232970   4.552   7.166   8.030
77066SOL     OW32971  11.804   3.962  10.022
77066SOL    HW132972  11.882   3.911   9.999
77066SOL    HW232973  11.758   3.907  10.086
77067SOL     OW32974   8.259   5.698  11.023
77067SOL    HW132975   8.335   5.724  11.075
77067SOL    HW232976   8.211   5.780  11.008
77068SOL     OW32977   7.473  12.287   0.207
77068SOL    HW132978   7.387  12.306   0.167
77068SOL    HW232979   7.524  12.250   0.135
77069SOL     OW32980   8.070  12.777   3.774
77069SOL    HW132981   8.086  12.819   3.690
77069SOL    HW232982   8.008  12.706   3.754
77070SOL     OW32983   7.097   9.427   6.511
77070SOL    HW132984   7.020   9.383   6.474
77070SOL    HW232985   7.061   9.492   6.571
77071SOL     OW32986   4.678  13.717   8.094
77071SOL    HW132987   4.690  13.626   8.068
77071SOL    HW232988   4.711  13.768   8.020
77072SOL     OW32989   4.339   5.721  12.436
77072SOL    HW132990   4.285   5.735  12.359
77072SOL    HW232991   4.398   5.796  12.439
77073SOL     OW32992   8.628   5.834   2.104
77073SOL    HW132993   8.636   5.848   2.199
77073SOL    HW232994   8.622   5.922   2.067
77074SOL     OW32995   1.536  12.032   1.775
77074SOL    HW132996   1.572  12.039   1.686
77074SOL    HW232997   1.447  11.999   1.763
77075SOL     OW32998   0.965  12.051  10.555
77075SOL    HW132999   1.006  11.967  10.577
77075SOL    HW233000   1.038  12.107  10.530
77076SOL     OW33001   6.868   3.044  12.496
77076SOL    HW133002   6.814   3.097  12.555
77076SOL    HW233003   6.952   3.089  12.494
77077SOL     OW33004  12.703  11.836   8.151
77077SOL    HW133005  12.797  11.857   8.155
77077SOL    HW233006  12.677  11.827   8.243
77078SOL     OW33007  13.636   3.505   9.935
77078SOL    HW133008  13.685   3.455  10.000
77078SOL    HW233009  13.545   3.479   9.949
77079SOL     OW33010   5.700  13.356  13.520
77079SOL    HW133011   5.755  13.294  13.473
77079SOL    HW233012   5.703  13.327  13.611
77080SOL     OW33013   1.964  11.079   8.170
77080SOL    HW133014   1.970  11.040   8.083
77080SOL    HW233015   2.053  11.110   8.188
77081SOL     OW33016   7.141   2.801   1.139
77081SOL    HW133017   7.177   2.751   1.066
77081SOL    HW233018   7.089   2.870   1.097
77082SOL     OW33019   3.854   7.736  11.805
77082SOL    HW133020   3.933   7.707  11.850
77082SOL    HW233021   3.826   7.658  11.756
77083SOL     OW33022   3.624   9.738   5.887
77083SOL    HW133023   3.622   9.642   5.889
77083SOL    HW233024   3.557   9.761   5.823
77084SOL     OW33025  13.687  11.283   6.096
77084SOL    HW133026  13.599  11.320   6.101
77084SOL    HW233027  13.697  11.235   6.179
77085SOL     OW33028   6.302   9.549   9.999
77085SOL    HW133029   6.245   9.518  10.069
77085SOL    HW233030   6.301   9.479   9.934
77086SOL     OW33031   7.016   6.091   8.110
77086SOL    HW133032   7.019   6.174   8.063
77086SOL    HW233033   6.923   6.077   8.129
77087SOL     OW33034   3.499   3.566  13.948
77087SOL    HW133035   3.497   3.650  13.994
77087SOL    HW233036   3.584   3.528  13.972
77088SOL     OW33037   8.104   5.938   8.550
77088SOL    HW133038   8.071   6.006   8.608
77088SOL    HW233039   8.199   5.939   8.563
77089SOL     OW33040   7.905   5.441  13.680
77089SOL    HW133041   7.843   5.397  13.621
77089SOL    HW233042   7.851   5.502  13.730
77090SOL     OW33043  14.360   8.023   4.634
77090SOL    HW133044  14.314   8.056   4.557
77090SOL    HW233045  14.388   7.935   4.609
77091SOL     OW33046   7.357   1.060  12.717
77091SOL    HW133047   7.343   1.068  12.623
77091SOL    HW233048   7.451   1.068  12.728
77092SOL     OW33049   8.911   9.111   0.705
77092SOL    HW133050   8.844   9.050   0.675
77092SOL    HW233051   8.863   9.188   0.733
77093SOL     OW33052  12.122   7.401   7.470
77093SOL    HW133053  12.181   7.363   7.536
77093SOL    HW233054  12.126   7.340   7.396
77094SOL     OW33055   3.396  11.361   3.290
77094SOL    HW133056   3.452  11.397   3.220
77094SOL    HW233057   3.443  11.284   3.321
77095SOL     OW33058  14.311  13.688   6.087
77095SOL    HW133059  14.332  13.719   5.999
77095SOL    HW233060  14.253  13.613   6.071
77096SOL     OW33061   8.016  14.471  10.631
77096SOL    HW133062   7.929  14.461  10.670
77096SOL    HW233063   8.000  14.521  10.551
77097SOL     OW33064   3.513  12.489   5.495
77097SOL    HW133065   3.602  12.507   5.467
77097SOL    HW233066   3.518  12.483   5.591
77098SOL     OW33067   4.775   6.641   8.094
77098SOL    HW133068   4.865   6.670   8.081
77098SOL    HW233069   4.721   6.713   8.060
77099SOL     OW33070   2.856   2.922  10.078
77099SOL    HW133071   2.819   2.834  10.074
77099SOL    HW233072   2.806   2.972  10.013
77100SOL     OW33073  11.673   9.496   4.865
77100SOL    HW133074  11.655   9.448   4.784
77100SOL    HW233075  11.599   9.474   4.922
77101SOL     OW33076  13.168   9.851   4.691
77101SOL    HW133077  13.221   9.930   4.682
77101SOL    HW233078  13.103   9.874   4.757
77102SOL     OW33079   4.812   4.636  11.404
77102SOL    HW133080   4.906   4.635  11.421
77102SOL    HW233081   4.779   4.709  11.457
77103SOL     OW33082  13.025   2.416   5.678
77103SOL    HW133083  12.971   2.359   5.733
77103SOL    HW233084  13.047   2.490   5.735
77104SOL     OW33085   9.612  12.148  14.827
77104SOL    HW133086   9.629  12.242  14.826
77104SOL    HW233087   9.529  12.139  14.874
77105SOL     OW33088  11.342   3.012  12.029
77105SOL    HW133089  11.430   3.027  12.064
77105SOL    HW233090  11.299   2.958  12.095
77106SOL     OW33091   7.484  10.624   7.243
77106SOL    HW133092   7.500  10.531   7.225
77106SOL    HW233093   7.389  10.630   7.255
77107SOL     OW33094  13.107   6.167   2.293
77107SOL    HW133095  13.110   6.078   2.328
77107SOL    HW233096  13.175   6.214   2.341
77108SOL     OW33097   3.644  14.181   5.079
77108SOL    HW133098   3.608  14.243   5.142
77108SOL    HW233099   3.635  14.225   4.994
77109SOL     OW33100   5.656   6.785   7.833
77109SOL    HW133101   5.664   6.881   7.837
77109SOL    HW233102   5.589   6.765   7.899
77110SOL     OW33103   8.777   9.273   3.362
77110SOL    HW133104   8.866   9.268   3.397
77110SOL    HW233105   8.754   9.182   3.343
77111SOL     OW33106  13.021   7.974  13.925
77111SOL    HW133107  12.977   8.020  13.853
77111SOL    HW233108  13.012   7.882  13.903
77112SOL     OW33109  11.768   7.903   1.873
77112SOL    HW133110  11.713   7.872   1.945
77112SOL    HW233111  11.786   7.995   1.894
77113SOL     OW33112  13.921   5.441   4.691
77113SOL    HW133113  13.938   5.353   4.725
77113SOL    HW233114  13.834   5.435   4.651
77114SOL     OW33115  12.094  14.506  12.096
77114SOL    HW133116  12.106  14.437  12.161
77114SOL    HW233117  12.075  14.584  12.148
77115SOL     OW33118   9.859  12.686  11.535
77115SOL    HW133119   9.765  12.668  11.527
77115SOL    HW233120   9.901  12.603  11.512
77116SOL     OW33121  11.431   3.446  10.603
77116SOL    HW133122  11.494   3.376  10.621
77116SOL    HW233123  11.348   3.414  10.640
77117SOL     OW33124   2.280  13.519  13.987
77117SOL    HW133125   2.357  13.470  13.957
77117SOL    HW233126   2.209  13.455  13.986
77118SOL     OW33127   6.077  14.300  10.269
77118SOL    HW133128   6.058  14.348  10.188
77118SOL    HW233129   6.068  14.208  10.245
77119SOL     OW33130   1.397  12.870   7.387
77119SOL    HW133131   1.380  12.941   7.326
77119SOL    HW233132   1.321  12.812   7.379
77120SOL     OW33133  10.060   6.805  10.928
77120SOL    HW133134  10.012   6.732  10.889
77120SOL    HW233135  10.000   6.879  10.921
77121SOL     OW33136   6.419   7.106   5.576
77121SOL    HW133137   6.479   7.032   5.571
77121SOL    HW233138   6.440   7.158   5.498
77122SOL     OW33139   0.058   5.752   0.518
77122SOL    HW133140   0.071   5.677   0.460
77122SOL    HW233141  14.871   5.722   0.582
77123SOL     OW33142  14.569   8.760   1.991
77123SOL    HW133143  14.483   8.801   1.987
77123SOL    HW233144  14.555   8.672   1.955
77124SOL     OW33145   2.445   1.903   8.323
77124SOL    HW133146   2.364   1.933   8.364
77124SOL    HW233147   2.426   1.814   8.294
77125SOL     OW33148   0.111   2.777  12.258
77125SOL    HW133149   0.060   2.856  12.245
77125SOL    HW233150   0.106   2.760  12.352
77126SOL     OW33151   0.962  10.818   4.565
77126SOL    HW133152   0.875  10.817   4.525
77126SOL    HW233153   1.013  10.879   4.512
77127SOL     OW33154   6.200   9.492   9.548
77127SOL    HW133155   6.184   9.398   9.545
77127SOL    HW233156   6.114   9.532   9.530
77128SOL     OW33157  14.714  11.307   9.563
77128SOL    HW133158  14.726  11.252   9.640
77128SOL    HW233159  14.621  11.297   9.540
77129SOL     OW33160  14.022   2.283   4.442
77129SOL    HW133161  14.014   2.338   4.520
77129SOL    HW233162  13.932   2.255   4.423
77130SOL     OW33163   1.788   0.584  11.771
77130SOL    HW133164   1.767   0.492  11.784
77130SOL    HW233165   1.711   0.631  11.803
77131SOL     OW33166   4.533   6.305   5.519
77131SOL    HW133167   4.530   6.400   5.533
77131SOL    HW233168   4.599   6.293   5.451
77132SOL     OW33169   7.801   0.861  14.190
77132SOL    HW133170   7.871   0.921  14.215
77132SOL    HW233171   7.844   0.776  14.179
77133SOL     OW33172   5.189  11.492  11.456
77133SOL    HW133173   5.184  11.451  11.542
77133SOL    HW233174   5.266  11.452  11.415
77134SOL     OW33175   3.396   5.673   7.658
77134SOL    HW133176   3.407   5.653   7.565
77134SOL    HW233177   3.463   5.738   7.677
77135SOL     OW33178   5.903   6.844   1.118
77135SOL    HW133179   5.895   6.937   1.096
77135SOL    HW233180   5.976   6.841   1.179
77136SOL     OW33181  10.430   1.470   6.120
77136SOL    HW133182  10.367   1.505   6.056
77136SOL    HW233183  10.400   1.381   6.136
77137SOL     OW33184   5.638  12.482  10.284
77137SOL    HW133185   5.591  12.414  10.235
77137SOL    HW233186   5.711  12.506  10.226
77138SOL     OW33187   4.232   0.433   6.858
77138SOL    HW133188   4.306   0.443   6.918
77138SOL    HW233189   4.159   0.477   6.903
77139SOL     OW33190   6.339   9.989   1.835
77139SOL    HW133191   6.410  10.054   1.831
77139SOL    HW233192   6.267  10.029   1.785
77140SOL     OW33193   4.127   6.970   4.847
77140SOL    HW133194   4.103   6.893   4.795
77140SOL    HW233195   4.058   6.976   4.914
77141SOL     OW33196   9.259  13.012   2.811
77141SOL    HW133197   9.343  13.015   2.765
77141SOL    HW233198   9.271  13.071   2.886
77142SOL     OW33199   4.172   7.846  13.547
77142SOL    HW133200   4.129   7.821  13.465
77142SOL    HW233201   4.178   7.942  13.542
77143SOL     OW33202   0.530   3.684   1.428
77143SOL    HW133203   0.568   3.596   1.426
77143SOL    HW233204   0.597   3.738   1.470
77144SOL     OW33205   1.727  12.737   5.851
77144SOL    HW133206   1.810  12.765   5.890
77144SOL    HW233207   1.678  12.818   5.838
77145SOL     OW33208   1.574  12.990  10.956
77145SOL    HW133209   1.644  12.993  10.890
77145SOL    HW233210   1.538  12.902  10.949
77146SOL     OW33211  11.483   9.959  11.909
77146SOL    HW133212  11.483  10.019  11.833
77146SOL    HW233213  11.575   9.937  11.922
77147SOL     OW33214   2.534   4.068  11.126
77147SOL    HW133215   2.482   4.083  11.048
77147SOL    HW233216   2.593   3.997  11.102
77148SOL     OW33217  10.303  12.888   4.838
77148SOL    HW133218  10.395  12.911   4.823
77148SOL    HW233219  10.292  12.893   4.932
77149SOL     OW33220   4.248   5.067   1.493
77149SOL    HW133221   4.169   5.016   1.481
77149SOL    HW233222   4.236   5.145   1.439
77150SOL     OW33223   1.433   1.017   8.227
77150SOL    HW133224   1.419   0.927   8.197
77150SOL    HW233225   1.344   1.049   8.245
77151SOL     OW33226   8.623  10.204   8.981
77151SOL    HW133227   8.622  10.239   8.892
77151SOL    HW233228   8.715  10.210   9.008
77152SOL     OW33229   7.010   0.872   9.211
77152SOL    HW133230   7.059   0.800   9.249
77152SOL    HW233231   6.931   0.832   9.174
77153SOL     OW33232   4.540   7.549  12.988
77153SOL    HW133233   4.566   7.585  12.903
77153SOL    HW233234   4.453   7.510  12.971
77154SOL     OW33235   2.233  12.372   4.684
77154SOL    HW133236   2.303  12.416   4.637
77154SOL    HW233237   2.184  12.324   4.616
77155SOL     OW33238   2.512   4.634  14.127
77155SOL    HW133239   2.513   4.699  14.057
77155SOL    HW233240   2.502   4.685  14.208
77156SOL     OW33241   3.680  10.325   1.593
77156SOL    HW133242   3.753  10.338   1.653
77156SOL    HW233243   3.679  10.404   1.538
77157SOL     OW33244  11.763   8.648   5.856
77157SOL    HW133245  11.795   8.653   5.766
77157SOL    HW233246  11.673   8.616   5.848
77158SOL     OW33247  14.691   7.419   2.847
77158SOL    HW133248  14.632   7.444   2.918
77158SOL    HW233249  14.637   7.368   2.787
77159SOL     OW33250   9.103  11.352  13.092
77159SOL    HW133251   9.102  11.357  12.996
77159SOL    HW233252   9.027  11.403  13.119
77160SOL     OW33253   1.485  13.048   4.704
77160SOL    HW133254   1.430  13.010   4.635
77160SOL    HW233255   1.573  13.050   4.667
77161SOL     OW33256  10.593  12.584   5.021
77161SOL    HW133257  10.524  12.565   5.085
77161SOL    HW233258  10.625  12.498   4.994
77162SOL     OW33259   4.637   7.201   7.026
77162SOL    HW133260   4.631   7.154   7.109
77162SOL    HW233261   4.729   7.224   7.017
77163SOL     OW33262  11.002   9.519   6.686
77163SOL    HW133263  10.983   9.559   6.771
77163SOL    HW233264  11.096   9.533   6.674
77164SOL     OW33265   7.061   0.165   1.940
77164SOL    HW133266   7.069   0.142   1.848
77164SOL    HW233267   7.149   0.156   1.975
77165SOL     OW33268   1.137   2.493  11.558
77165SOL    HW133269   1.105   2.554  11.491
77165SOL    HW233270   1.186   2.547  11.619
77166SOL     OW33271  10.397  10.877   2.604
77166SOL    HW133272  10.466  10.881   2.670
77166SOL    HW233273  10.316  10.884   2.653
77167SOL     OW33274   5.779  14.855   3.712
77167SOL    HW133275   5.820   0.051   3.758
77167SOL    HW233276   5.845  14.827   3.648
77168SOL     OW33277   7.955   4.735  11.476
77168SOL    HW133278   7.945   4.772  11.564
77168SOL    HW233279   7.915   4.649  11.481
77169SOL     OW33280  13.195   4.614   7.473
77169SOL    HW133281  13.219   4.583   7.386
77169SOL    HW233282  13.276   4.649   7.510
77170SOL     OW33283   2.797   9.971   0.713
77170SOL    HW133284   2.780   9.883   0.679
77170SOL    HW233285   2.885   9.992   0.680
77171SOL     OW33286   7.132   4.580  14.608
77171SOL    HW133287   7.089   4.664  14.620
77171SOL    HW233288   7.108   4.529  14.685
77172SOL     OW33289  13.682   0.910   5.401
77172SOL    HW133290  13.642   0.864   5.327
77172SOL    HW233291  13.770   0.873   5.408
77173SOL     OW33292   8.188   4.362   7.405
77173SOL    HW133293   8.195   4.384   7.312
77173SOL    HW233294   8.110   4.409   7.435
77174SOL     OW33295  10.580   7.447   7.882
77174SOL    HW133296  10.527   7.506   7.935
77174SOL    HW233297  10.607   7.378   7.943
77175SOL     OW33298   1.168   5.920  14.406
77175SOL    HW133299   1.262   5.904  14.419
77175SOL    HW233300   1.153   5.904  14.313
77176SOL     OW33301  14.720  11.725   3.784
77176SOL    HW133302  14.744  11.673   3.707
77176SOL    HW233303  14.785  11.703   3.850
77177SOL     OW33304   3.365   2.858   6.125
77177SOL    HW133305   3.438   2.863   6.187
77177SOL    HW233306   3.407   2.858   6.039
77178SOL     OW33307   7.132   1.748  11.476
77178SOL    HW133308   7.049   1.761  11.521
77178SOL    HW233309   7.108   1.736  11.384
77179SOL     OW33310  13.114   3.823  14.591
77179SOL    HW133311  13.195   3.779  14.567
77179SOL    HW233312  13.058   3.814  14.513
77180SOL     OW33313   0.777  14.095   0.489
77180SOL    HW133314   0.688  14.060   0.481
77180SOL    HW233315   0.803  14.072   0.579
77181SOL     OW33316   2.947   1.367  10.024
77181SOL    HW133317   2.931   1.334   9.935
77181SOL    HW233318   2.897   1.448  10.028
77182SOL     OW33319   9.209  13.186   5.421
77182SOL    HW133320   9.122  13.156   5.446
77182SOL    HW233321   9.250  13.210   5.504
77183SOL     OW33322   2.125   5.106   0.134
77183SOL    HW133323   2.165   5.172   0.190
77183SOL    HW233324   2.125   5.145   0.047
77184SOL     OW33325   7.705   2.961   4.859
77184SOL    HW133326   7.689   3.035   4.917
77184SOL    HW233327   7.786   2.922   4.892
77185SOL     OW33328  13.890   5.697  13.183
77185SOL    HW133329  13.817   5.635  13.184
77185SOL    HW233330  13.849   5.782  13.172
77186SOL     OW33331   4.848   8.751  13.961
77186SOL    HW133332   4.758   8.719  13.952
77186SOL    HW233333   4.890   8.688  14.019
77187SOL     OW33334   0.598   1.029   0.095
77187SOL    HW133335   0.678   0.996   0.138
77187SOL    HW233336   0.626   1.109   0.052
77188SOL     OW33337  12.868  12.622   7.247
77188SOL    HW133338  12.874  12.575   7.331
77188SOL    HW233339  12.954  12.611   7.207
77189SOL     OW33340   7.300  13.809   6.641
77189SOL    HW133341   7.205  13.818   6.631
77189SOL    HW233342   7.326  13.885   6.692
77190SOL     OW33343   1.567   8.244   2.136
77190SOL    HW133344   1.576   8.174   2.071
77190SOL    HW233345   1.635   8.307   2.114
77191SOL     OW33346  13.966   8.908  11.391
77191SOL    HW133347  13.998   8.849  11.460
77191SOL    HW233348  14.035   8.974  11.382
77192SOL     OW33349   3.805  13.406  11.384
77192SOL    HW133350   3.825  13.372  11.471
77192SOL    HW233351   3.823  13.500  11.391
77193SOL     OW33352   0.023  12.297  11.465
77193SOL    HW133353   0.081  12.253  11.527
77193SOL    HW233354  14.829  12.235  11.450
77194SOL     OW33355   0.946   8.401   4.268
77194SOL    HW133356   0.866   8.376   4.313
77194SOL    HW233357   0.922   8.406   4.176
77195SOL     OW33358  10.744   2.357   5.037
77195SOL    HW133359  10.766   2.430   4.980
77195SOL    HW233360  10.738   2.281   4.978
77196SOL     OW33361   8.030   4.950   8.287
77196SOL    HW133362   8.004   5.029   8.240
77196SOL    HW233363   7.948   4.905   8.306
77197SOL     OW33364  14.188  14.703  11.225
77197SOL    HW133365  14.273  14.658  11.231
77197SOL    HW233366  14.194  14.773  11.290
77198SOL     OW33367   9.144   2.914   7.247
77198SOL    HW133368   9.063   2.866   7.230
77198SOL    HW233369   9.118   2.986   7.305
77199SOL     OW33370   8.035  13.410  10.446
77199SOL    HW133371   8.022  13.501  10.474
77199SOL    HW233372   8.046  13.361  10.527
77200SOL     OW33373  14.072   7.971  10.178
77200SOL    HW133374  14.099   8.063  10.182
77200SOL    HW233375  14.152   7.923  10.155
77201SOL     OW33376  14.591  13.091   0.116
77201SOL    HW133377  14.524  13.141   0.162
77201SOL    HW233378  14.548  13.010   0.092
77202SOL     OW33379   5.129  11.922   1.412
77202SOL    HW133380   5.200  11.862   1.386
77202SOL    HW233381   5.059  11.865   1.441
77203SOL     OW33382   5.230   9.127   4.404
77203SOL    HW133383   5.234   9.197   4.469
77203SOL    HW233384   5.318   9.090   4.403
77204SOL     OW33385   5.468   7.321  11.884
77204SOL    HW133386   5.385   7.363  11.910
77204SOL    HW233387   5.505   7.381  11.819
77205SOL     OW33388   4.476   0.065  12.992
77205SOL    HW133389   4.381   0.057  12.987
77205SOL    HW233390   4.491   0.140  13.049
77206SOL     OW33391   2.379   6.226   8.931
77206SOL    HW133392   2.408   6.316   8.915
77206SOL    HW233393   2.412   6.206   9.018
77207SOL     OW33394   0.094   8.021  11.145
77207SOL    HW133395   0.124   7.942  11.192
77207SOL    HW233396   0.152   8.026  11.069
77208SOL     OW33397   6.771   7.542   0.196
77208SOL    HW133398   6.691   7.554   0.246
77208SOL    HW233399   6.842   7.553   0.259
77209SOL     OW33400  10.068   4.006   0.513
77209SOL    HW133401  10.004   3.970   0.574
77209SOL    HW233402  10.056   4.101   0.519
77210SOL     OW33403   7.059   6.618  11.442
77210SOL    HW133404   7.000   6.655  11.508
77210SOL    HW233405   7.146   6.648  11.468
77211SOL     OW33406   8.279   9.542   7.769
77211SOL    HW133407   8.315   9.526   7.856
77211SOL    HW233408   8.292   9.459   7.723
77212SOL     OW33409   3.980   3.888   9.503
77212SOL    HW133410   3.897   3.898   9.457
77212SOL    HW233411   3.959   3.832   9.578
77213SOL     OW33412   0.356   2.370  10.099
77213SOL    HW133413   0.400   2.446  10.061
77213SOL    HW233414   0.263   2.389  10.089
77214SOL     OW33415   0.611   0.054   5.281
77214SOL    HW133416   0.672   0.127   5.288
77214SOL    HW233417   0.541   0.075   5.343
77215SOL     OW33418  11.644   7.327  13.395
77215SOL    HW133419  11.692   7.396  13.441
77215SOL    HW233420  11.697   7.248  13.407
77216SOL     OW33421   8.969  11.156   8.875
77216SOL    HW133422   9.020  11.195   8.946
77216SOL    HW233423   8.910  11.095   8.920
77217SOL     OW33424   3.389  13.169   2.118
77217SOL    HW133425   3.363  13.219   2.195
77217SOL    HW233426   3.452  13.105   2.152
77218SOL     OW33427  12.061   8.630   0.170
77218SOL    HW133428  12.087   8.561   0.231
77218SOL    HW233429  12.018   8.695   0.225
77219SOL     OW33430   3.724   5.505   2.986
77219SOL    HW133431   3.710   5.565   2.912
77219SOL    HW233432   3.649   5.445   2.982
77220SOL     OW33433  14.572   9.853   8.474
77220SOL    HW133434  14.518   9.820   8.402
77220SOL    HW233435  14.555   9.792   8.546
77221SOL     OW33436   0.189   5.603  11.666
77221SOL    HW133437   0.111   5.550  11.676
77221SOL    HW233438   0.172   5.656  11.588
77222SOL     OW33439  14.681   7.347   3.389
77222SOL    HW133440  14.585   7.352   3.395
77222SOL    HW233441  14.707   7.431   3.352
77223SOL     OW33442   1.866   3.838   9.426
77223SOL    HW133443   1.922   3.792   9.364
77223SOL    HW233444   1.789   3.864   9.375
77224SOL     OW33445   3.409   7.190   1.569
77224SOL    HW133446   3.440   7.247   1.639
77224SOL    HW233447   3.354   7.125   1.613
77225SOL     OW33448   6.736   4.573   4.936
77225SOL    HW133449   6.650   4.576   4.895
77225SOL    HW233450   6.793   4.625   4.878
77226SOL     OW33451   8.672   7.734  10.908
77226SOL    HW133452   8.647   7.820  10.942
77226SOL    HW233453   8.724   7.694  10.978
77227SOL     OW33454   0.744   4.882   6.818
77227SOL    HW133455   0.723   4.797   6.856
77227SOL    HW233456   0.660   4.926   6.809
77228SOL     OW33457  14.430  11.326   4.749
77228SOL    HW133458  14.499  11.259   4.754
77228SOL    HW233459  14.361  11.294   4.807
77229SOL     OW33460  11.647  14.817  11.063
77229SOL    HW133461  11.724  14.793  11.115
77229SOL    HW233462  11.683  14.870  10.991
77230SOL     OW33463   2.164  10.938   4.057
77230SOL    HW133464   2.103  10.897   3.995
77230SOL    HW233465   2.126  10.921   4.143
77231SOL     OW33466   1.905   8.069   7.011
77231SOL    HW133467   1.942   8.151   6.978
77231SOL    HW233468   1.977   8.027   7.059
77232SOL     OW33469   4.800  11.381  11.347
77232SOL    HW133470   4.789  11.314  11.414
77232SOL    HW233471   4.778  11.337  11.265
77233SOL     OW33472   7.825   5.866   8.267
77233SOL    HW133473   7.855   5.780   8.295
77233SOL    HW233474   7.737   5.874   8.305
77234SOL     OW33475   2.787  12.513   2.299
77234SOL    HW133476   2.710  12.537   2.351
77234SOL    HW233477   2.776  12.559   2.216
77235SOL     OW33478  10.354   2.347   5.357
77235SOL    HW133479  10.275   2.366   5.307
77235SOL    HW233480  10.425   2.386   5.306
77236SOL     OW33481  10.145  13.172   4.732
77236SOL    HW133482  10.118  13.081   4.715
77236SOL    HW233483  10.096  13.197   4.809
77237SOL     OW33484   4.821   9.543   0.468
77237SOL    HW133485   4.896   9.526   0.525
77237SOL    HW233486   4.828   9.635   0.446
77238SOL     OW33487   1.617   3.174   7.247
77238SOL    HW133488   1.617   3.119   7.325
77238SOL    HW233489   1.688   3.237   7.261
77239SOL     OW33490   2.450   0.781   9.002
77239SOL    HW133491   2.466   0.770   9.096
77239SOL    HW233492   2.357   0.800   8.995
77240SOL     OW33493  14.635  13.744   2.064
77240SOL    HW133494  14.544  13.768   2.045
77240SOL    HW233495  14.630  13.699   2.149
77241SOL     OW33496   7.976  14.172  13.657
77241SOL    HW133497   7.957  14.226  13.581
77241SOL    HW233498   7.896  14.122  13.672
77242SOL     OW33499  13.961   2.074  13.692
77242SOL    HW133500  14.028   2.016  13.654
77242SOL    HW233501  13.882   2.021  13.694
77243SOL     OW33502   7.408  10.354  13.461
77243SOL    HW133503   7.451  10.373  13.544
77243SOL    HW233504   7.319  10.330  13.485
77244SOL     OW33505  12.411  14.361  10.205
77244SOL    HW133506  12.492  14.382  10.158
77244SOL    HW233507  12.357  14.440  10.196
77245SOL     OW33508   2.257   1.799   3.073
77245SOL    HW133509   2.284   1.843   3.153
77245SOL    HW233510   2.334   1.806   3.015
77246SOL     OW33511   9.995  10.056   5.499
77246SOL    HW133512   9.935  10.100   5.439
77246SOL    HW233513   9.972   9.963   5.493
77247SOL     OW33514   7.838  11.043  11.833
77247SOL    HW133515   7.903  11.062  11.900
77247SOL    HW233516   7.777  11.116  11.837
77248SOL     OW33517   5.081   1.182  13.358
77248SOL    HW133518   5.156   1.240  13.343
77248SOL    HW233519   5.018   1.237  13.404
77249SOL     OW33520  11.348   6.851  13.624
77249SOL    HW133521  11.438   6.870  13.596
77249SOL    HW233522  11.358   6.802  13.705
77250SOL     OW33523   3.272   4.570   6.102
77250SOL    HW133524   3.335   4.573   6.030
77250SOL    HW233525   3.307   4.504   6.161
77251SOL     OW33526   8.758   3.152  12.442
77251SOL    HW133527   8.843   3.168  12.403
77251SOL    HW233528   8.771   3.166  12.536
77252SOL     OW33529  10.149   1.691   0.122
77252SOL    HW133530  10.080   1.646   0.072
77252SOL    HW233531  10.120   1.783   0.124
77253SOL     OW33532   4.001  11.226   7.149
77253SOL    HW133533   4.052  11.271   7.081
77253SOL    HW233534   4.038  11.257   7.231
77254SOL     OW33535   3.007   8.710   0.430
77254SOL    HW133536   3.041   8.728   0.517
77254SOL    HW233537   3.083   8.678   0.381
77255SOL     OW33538  10.438  13.013   3.481
77255SOL    HW133539  10.526  13.045   3.461
77255SOL    HW233540  10.433  12.928   3.436
77256SOL     OW33541   4.639   1.914   0.813
77256SOL    HW133542   4.686   1.886   0.891
77256SOL    HW233543   4.708   1.928   0.747
77257SOL     OW33544   6.401   4.322   9.112
77257SOL    HW133545   6.495   4.312   9.098
77257SOL    HW233546   6.363   4.316   9.025
77258SOL     OW33547   2.160   4.194   0.447
77258SOL    HW133548   2.188   4.256   0.514
77258SOL    HW233549   2.242   4.154   0.416
77259SOL     OW33550  11.815  12.006   2.527
77259SOL    HW133551  11.819  11.961   2.443
77259SOL    HW233552  11.857  12.091   2.511
77260SOL     OW33553  13.178   2.679   4.392
77260SOL    HW133554  13.164   2.685   4.297
77260SOL    HW233555  13.253   2.737   4.408
77261SOL     OW33556   9.907  11.375   6.202
77261SOL    HW133557   9.956  11.433   6.261
77261SOL    HW233558   9.821  11.365   6.244
77262SOL     OW33559   4.949   4.347   4.534
77262SOL    HW133560   4.986   4.307   4.455
77262SOL    HW233561   4.899   4.422   4.502
77263SOL     OW33562   6.498   1.169  13.972
77263SOL    HW133563   6.486   1.161  14.067
77263SOL    HW233564   6.590   1.148  13.958
77264SOL     OW33565  12.642   8.452  13.289
77264SOL    HW133566  12.551   8.451  13.317
77264SOL    HW233567  12.692   8.434  13.369
77265SOL     OW33568   2.965   4.373  13.573
77265SOL    HW133569   2.973   4.462  13.540
77265SOL    HW233570   2.981   4.380  13.667
77266SOL     OW33571   8.300   1.876   1.011
77266SOL    HW133572   8.229   1.814   1.026
77266SOL    HW233573   8.303   1.885   0.915
77267SOL     OW33574  11.775  11.753   1.016
77267SOL    HW133575  11.869  11.743   1.028
77267SOL    HW233576  11.741  11.775   1.102
77268SOL     OW33577   8.206   1.305   7.616
77268SOL    HW133578   8.266   1.345   7.553
77268SOL    HW233579   8.216   1.358   7.696
77269SOL     OW33580  14.195   3.067   5.986
77269SOL    HW133581  14.273   3.112   5.952
77269SOL    HW233582  14.230   3.002   6.047
77270SOL     OW33583   6.360  12.078   2.882
77270SOL    HW133584   6.320  12.071   2.969
77270SOL    HW233585   6.285  12.092   2.823
77271SOL     OW33586   7.342   4.056   4.957
77271SOL    HW133587   7.289   4.048   4.878
77271SOL    HW233588   7.373   4.147   4.956
77272SOL     OW33589   2.061  10.069  11.850
77272SOL    HW133590   2.016  10.119  11.782
77272SOL    HW233591   2.020  10.097  11.932
77273SOL     OW33592  11.629   0.273   7.683
77273SOL    HW133593  11.641   0.214   7.609
77273SOL    HW233594  11.714   0.277   7.726
77274SOL     OW33595   4.683   7.202   7.307
77274SOL    HW133596   4.615   7.224   7.371
77274SOL    HW233597   4.755   7.262   7.327
77275SOL     OW33598   2.797  10.781  14.586
77275SOL    HW133599   2.731  10.823  14.529
77275SOL    HW233600   2.854  10.735  14.525
77276SOL     OW33601   5.651   4.490  10.613
77276SOL    HW133602   5.729   4.507  10.666
77276SOL    HW233603   5.579   4.526  10.664
77277SOL     OW33604  14.592   5.808   4.976
77277SOL    HW133605  14.654   5.861   5.026
77277SOL    HW233606  14.648   5.754   4.920
77278SOL     OW33607  13.331   5.524   3.180
77278SOL    HW133608  13.382   5.465   3.125
77278SOL    HW233609  13.393   5.591   3.208
77279SOL     OW33610  12.542   9.618   1.536
77279SOL    HW133611  12.562   9.708   1.561
77279SOL    HW233612  12.489   9.626   1.457
77280SOL     OW33613   2.130   3.509   0.267
77280SOL    HW133614   2.106   3.478   0.355
77280SOL    HW233615   2.145   3.602   0.278
77281SOL     OW33616  12.444   6.252  10.570
77281SOL    HW133617  12.388   6.179  10.544
77281SOL    HW233618  12.384   6.318  10.604
77282SOL     OW33619   5.938   0.344  10.036
77282SOL    HW133620   5.972   0.432  10.056
77282SOL    HW233621   5.855   0.360   9.991
77283SOL     OW33622  13.916   6.188   5.227
77283SOL    HW133623  13.976   6.131   5.276
77283SOL    HW233624  13.835   6.186   5.277
77284SOL     OW33625   7.787  14.420   3.508
77284SOL    HW133626   7.881  14.436   3.512
77284SOL    HW233627   7.779  14.334   3.467
77285SOL     OW33628   5.271  13.110  10.659
77285SOL    HW133629   5.366  13.108  10.646
77285SOL    HW233630   5.247  13.018  10.670
77286SOL     OW33631  14.454   4.996  14.749
77286SOL    HW133632  14.444   4.901  14.742
77286SOL    HW233633  14.416   5.017  14.834
77287SOL     OW33634   9.814   1.444   5.515
77287SOL    HW133635   9.875   1.483   5.453
77287SOL    HW233636   9.869   1.409   5.585
77288SOL     OW33637   8.256   9.461  10.004
77288SOL    HW133638   8.297   9.519   9.939
77288SOL    HW233639   8.175   9.433   9.962
77289SOL     OW33640   6.507   4.871  13.975
77289SOL    HW133641   6.510   4.873  13.879
77289SOL    HW233642   6.580   4.926  14.003
77290SOL     OW33643   5.728   8.894  10.241
77290SOL    HW133644   5.709   8.808  10.279
77290SOL    HW233645   5.797   8.930  10.297
77291SOL     OW33646   8.245  13.232   5.479
77291SOL    HW133647   8.271  13.324   5.474
77291SOL    HW233648   8.163  13.233   5.529
77292SOL     OW33649  13.509  13.968  12.565
77292SOL    HW133650  13.502  14.052  12.610
77292SOL    HW233651  13.443  13.913  12.608
77293SOL     OW33652   1.943   2.721   7.511
77293SOL    HW133653   1.912   2.697   7.599
77293SOL    HW233654   1.873   2.693   7.452
77294SOL     OW33655   0.825   5.457  12.557
77294SOL    HW133656   0.917   5.449  12.531
77294SOL    HW233657   0.798   5.543  12.525
77295SOL     OW33658   9.491  11.536   0.597
77295SOL    HW133659   9.563  11.599   0.592
77295SOL    HW233660   9.488  11.509   0.689
77296SOL     OW33661   6.633  13.939   2.479
77296SOL    HW133662   6.590  13.856   2.457
77296SOL    HW233663   6.563  14.004   2.472
77297SOL     OW33664   5.755   2.902   0.283
77297SOL    HW133665   5.816   2.891   0.356
77297SOL    HW233666   5.802   2.956   0.220
77298SOL     OW33667   7.666   3.575   2.411
77298SOL    HW133668   7.636   3.546   2.325
77298SOL    HW233669   7.632   3.509   2.472
77299SOL     OW33670  11.199   1.513  11.703
77299SOL    HW133671  11.184   1.427  11.662
77299SOL    HW233672  11.271   1.551  11.652
77300SOL     OW33673   1.573   8.428  13.250
77300SOL    HW133674   1.602   8.414  13.340
77300SOL    HW233675   1.632   8.374  13.197
77301SOL     OW33676   0.844   4.687   7.766
77301SOL    HW133677   0.885   4.772   7.785
77301SOL    HW233678   0.887   4.626   7.826
77302SOL     OW33679   4.125   6.227  14.036
77302SOL    HW133680   4.052   6.166  14.035
77302SOL    HW233681   4.120   6.268  14.123
77303SOL     OW33682   0.477  10.298   2.063
77303SOL    HW133683   0.491  10.375   2.008
77303SOL    HW233684   0.548  10.301   2.127
77304SOL     OW33685  12.852  10.289   6.391
77304SOL    HW133686  12.757  10.285   6.400
77304SOL    HW233687  12.884  10.220   6.449
77305SOL     OW33688  11.400   4.362  12.798
77305SOL    HW133689  11.492   4.339  12.785
77305SOL    HW233690  11.380   4.422  12.726
77306SOL     OW33691   8.406   1.384  10.447
77306SOL    HW133692   8.318   1.346  10.455
77306SOL    HW233693   8.402   1.436  10.367
77307SOL     OW33694  12.915   3.546   1.483
77307SOL    HW133695  13.008   3.553   1.460
77307SOL    HW233696  12.870   3.543   1.399
77308SOL     OW33697   3.011   6.826   3.194
77308SOL    HW133698   3.010   6.745   3.245
77308SOL    HW233699   2.919   6.842   3.174
77309SOL     OW33700   4.182   5.339   2.646
77309SOL    HW133701   4.174   5.406   2.578
77309SOL    HW233702   4.092   5.311   2.664
77310SOL     OW33703   6.564   8.682   2.123
77310SOL    HW133704   6.616   8.702   2.045
77310SOL    HW233705   6.592   8.747   2.187
77311SOL     OW33706   4.472   6.487   2.323
77311SOL    HW133707   4.479   6.392   2.321
77311SOL    HW233708   4.391   6.504   2.371
77312SOL     OW33709  10.043   5.364   4.675
77312SOL    HW133710  10.058   5.395   4.586
77312SOL    HW233711  10.123   5.315   4.697
77313SOL     OW33712   4.753   2.095   2.697
77313SOL    HW133713   4.768   2.096   2.603
77313SOL    HW233714   4.678   2.154   2.710
77314SOL     OW33715   6.989  11.648   7.368
77314SOL    HW133716   7.001  11.596   7.289
77314SOL    HW233717   6.904  11.623   7.402
77315SOL     OW33718   2.395   1.283   4.255
77315SOL    HW133719   2.460   1.270   4.186
77315SOL    HW233720   2.445   1.323   4.327
77316SOL     OW33721  13.266   7.805   5.549
77316SOL    HW133722  13.233   7.715   5.547
77316SOL    HW233723  13.256   7.836   5.459
77317SOL     OW33724   8.806   9.418   3.749
77317SOL    HW133725   8.748   9.459   3.686
77317SOL    HW233726   8.765   9.335   3.770
77318SOL     OW33727   0.437   3.683   3.430
77318SOL    HW133728   0.474   3.622   3.366
77318SOL    HW233729   0.342   3.675   3.419
77319SOL     OW33730  10.351   1.233   0.118
77319SOL    HW133731  10.324   1.224   0.209
77319SOL    HW233732  10.418   1.165   0.106
77320SOL     OW33733   0.634   0.343   0.811
77320SOL    HW133734   0.659   0.251   0.810
77320SOL    HW233735   0.553   0.347   0.761
77321SOL     OW33736   5.387   2.666   3.835
77321SOL    HW133737   5.470   2.634   3.800
77321SOL    HW233738   5.395   2.656   3.930
77322SOL     OW33739  10.849   3.940   6.842
77322SOL    HW133740  10.903   3.986   6.777
77322SOL    HW233741  10.899   3.945   6.923
77323SOL     OW33742   8.803   3.053   3.662
77323SOL    HW133743   8.834   3.129   3.711
77323SOL    HW233744   8.865   3.044   3.590
77324SOL     OW33745   4.336  11.616  14.637
77324SOL    HW133746   4.325  11.654  14.550
77324SOL    HW233747   4.420  11.650  14.667
77325SOL     OW33748  11.550   1.791   4.514
77325SOL    HW133749  11.600   1.713   4.487
77325SOL    HW233750  11.509   1.822   4.433
77326SOL     OW33751  13.454   1.985   1.989
77326SOL    HW133752  13.496   2.056   1.940
77326SOL    HW233753  13.510   1.971   2.065
77327SOL     OW33754  13.773   7.911   1.096
77327SOL    HW133755  13.806   7.942   1.181
77327SOL    HW233756  13.681   7.936   1.096
77328SOL     OW33757   1.715   9.160   6.905
77328SOL    HW133758   1.752   9.249   6.909
77328SOL    HW233759   1.776   9.111   6.851
77329SOL     OW33760   6.659   0.145   0.319
77329SOL    HW133761   6.601   0.070   0.310
77329SOL    HW233762   6.675   0.152   0.413
77330SOL     OW33763   6.646  13.772  13.575
77330SOL    HW133764   6.660  13.725  13.492
77330SOL    HW233765   6.562  13.739  13.607
77331SOL     OW33766   7.251   0.814  12.340
77331SOL    HW133767   7.342   0.793  12.358
77331SOL    HW233768   7.213   0.731  12.311
77332SOL     OW33769  12.513   4.943   0.198
77332SOL    HW133770  12.572   5.014   0.222
77332SOL    HW233771  12.529   4.929   0.104
77333SOL     OW33772  11.909  13.996   3.294
77333SOL    HW133773  11.942  14.080   3.262
77333SOL    HW233774  11.976  13.965   3.355
77334SOL     OW33775   5.758   8.808   3.813
77334SOL    HW133776   5.760   8.733   3.873
77334SOL    HW233777   5.781   8.883   3.868
77335SOL     OW33778  12.508   5.963   6.656
77335SOL    HW133779  12.514   5.980   6.561
77335SOL    HW233780  12.540   5.874   6.667
77336SOL     OW33781  12.544   4.886   2.986
77336SOL    HW133782  12.561   4.872   3.079
77336SOL    HW233783  12.608   4.830   2.941
77337SOL     OW33784   6.638  11.157   6.057
77337SOL    HW133785   6.563  11.203   6.095
77337SOL    HW233786   6.643  11.075   6.107
77338SOL     OW33787   4.687   5.522   6.222
77338SOL    HW133788   4.624   5.467   6.269
77338SOL    HW233789   4.632   5.573   6.161
77339SOL     OW33790   1.615   3.653  11.443
77339SOL    HW133791   1.679   3.628  11.509
77339SOL    HW233792   1.665   3.660  11.362
77340SOL     OW33793   0.109   1.951   2.709
77340SOL    HW133794   0.114   1.960   2.614
77340SOL    HW233795   0.168   1.879   2.729
77341SOL     OW33796   8.764   2.541  11.015
77341SOL    HW133797   8.792   2.605  11.081
77341SOL    HW233798   8.706   2.591  10.957
77342SOL     OW33799   9.878   6.481   5.608
77342SOL    HW133800   9.817   6.508   5.540
77342SOL    HW233801   9.857   6.537   5.683
77343SOL     OW33802   6.786   6.179   1.766
77343SOL    HW133803   6.776   6.195   1.672
77343SOL    HW233804   6.747   6.093   1.780
77344SOL     OW33805  10.097   3.557   5.339
77344SOL    HW133806  10.023   3.514   5.381
77344SOL    HW233807  10.153   3.584   5.412
77345SOL     OW33808   0.082   6.629   2.774
77345SOL    HW133809   0.106   6.613   2.865
77345SOL    HW233810  14.867   6.606   2.770
77346SOL     OW33811  14.234  11.376   0.674
77346SOL    HW133812  14.284  11.388   0.593
77346SOL    HW233813  14.143  11.368   0.644
77347SOL     OW33814  10.512  14.111  13.898
77347SOL    HW133815  10.557  14.038  13.940
77347SOL    HW233816  10.448  14.140  13.963
77348SOL     OW33817  12.770   9.543  12.866
77348SOL    HW133818  12.684   9.572  12.834
77348SOL    HW233819  12.796   9.475  12.804
77349SOL     OW33820   6.773   7.722  13.183
77349SOL    HW133821   6.787   7.638  13.139
77349SOL    HW233822   6.843   7.778  13.151
77350SOL     OW33823   6.755   5.687   2.392
77350SOL    HW133824   6.818   5.736   2.446
77350SOL    HW233825   6.672   5.696   2.439
77351SOL     OW33826  10.074   1.529   9.495
77351SOL    HW133827  10.167   1.508   9.503
77351SOL    HW233828  10.032   1.446   9.474
77352SOL     OW33829   4.674  14.005   1.753
77352SOL    HW133830   4.640  14.041   1.836
77352SOL    HW233831   4.662  14.077   1.690
77353SOL     OW33832   3.066   6.528  10.272
77353SOL    HW133833   3.142   6.583  10.288
77353SOL    HW233834   3.099   6.456  10.218
77354SOL     OW33835   0.497   3.446   4.670
77354SOL    HW133836   0.583   3.406   4.670
77354SOL    HW233837   0.474   3.454   4.762
77355SOL     OW33838   5.870  11.084   9.143
77355SOL    HW133839   5.839  11.043   9.062
77355SOL    HW233840   5.813  11.048   9.211
77356SOL     OW33841  13.475   1.345  13.524
77356SOL    HW133842  13.476   1.251  13.510
77356SOL    HW233843  13.548   1.379  13.473
77357SOL     OW33844   6.398   8.485   5.062
77357SOL    HW133845   6.342   8.515   4.990
77357SOL    HW233846   6.464   8.554   5.071
77358SOL     OW33847  12.248   3.915   8.367
77358SOL    HW133848  12.193   3.843   8.336
77358SOL    HW233849  12.186   3.985   8.386
77359SOL     OW33850  13.134  14.799   5.061
77359SOL    HW133851  13.167  14.709   5.064
77359SOL    HW233852  13.131  14.827   5.153
77360SOL     OW33853   9.315   9.612  10.223
77360SOL    HW133854   9.267   9.661  10.288
77360SOL    HW233855   9.277   9.524  10.226
77361SOL     OW33856   8.559   3.019   7.066
77361SOL    HW133857   8.529   2.986   6.981
77361SOL    HW233858   8.630   3.080   7.045
77362SOL     OW33859   4.499   7.986   7.156
77362SOL    HW133860   4.520   8.025   7.071
77362SOL    HW233861   4.532   7.897   7.150
77363SOL     OW33862   5.709  10.957   8.961
77363SOL    HW133863   5.676  10.874   8.997
77363SOL    HW233864   5.776  10.930   8.898
77364SOL     OW33865  10.022   5.614  10.125
77364SOL    HW133866  10.020   5.708  10.143
77364SOL    HW233867   9.963   5.602  10.050
77365SOL     OW33868   0.577   8.772   7.402
77365SOL    HW133869   0.571   8.699   7.339
77365SOL    HW233870   0.605   8.731   7.484
77366SOL     OW33871   2.498   7.325   0.962
77366SOL    HW133872   2.419   7.297   0.917
77366SOL    HW233873   2.501   7.272   1.041
77367SOL     OW33874  11.726   0.797   0.754
77367SOL    HW133875  11.783   0.873   0.740
77367SOL    HW233876  11.654   0.810   0.692
77368SOL     OW33877   2.781  14.857   8.282
77368SOL    HW133878   2.731   0.025   8.349
77368SOL    HW233879   2.868  14.847   8.320
77369SOL     OW33880   7.941  12.063   2.780
77369SOL    HW133881   8.008  12.008   2.739
77369SOL    HW233882   7.956  12.053   2.874
77370SOL     OW33883   8.745   9.650   6.505
77370SOL    HW133884   8.742   9.562   6.542
77370SOL    HW233885   8.667   9.693   6.540
77371SOL     OW33886   2.542   9.328  10.080
77371SOL    HW133887   2.479   9.332  10.151
77371SOL    HW233888   2.507   9.263  10.019
77372SOL     OW33889  10.182  14.630   4.943
77372SOL    HW133890  10.139  14.704   4.986
77372SOL    HW233891  10.111  14.585   4.896
77373SOL     OW33892   5.637   7.993   5.486
77373SOL    HW133893   5.618   8.050   5.560
77373SOL    HW233894   5.701   7.930   5.520
77374SOL     OW33895   4.845   3.370   6.359
77374SOL    HW133896   4.888   3.397   6.277
77374SOL    HW233897   4.905   3.306   6.397
77375SOL     OW33898   5.376   0.520   2.941
77375SOL    HW133899   5.415   0.596   2.898
77375SOL    HW233900   5.378   0.451   2.875
77376SOL     OW33901   6.866  14.866   9.082
77376SOL    HW133902   6.882  14.774   9.061
77376SOL    HW233903   6.849   0.029   8.997
77377SOL     OW33904  10.247  14.307  11.287
77377SOL    HW133905  10.277  14.326  11.198
77377SOL    HW233906  10.327  14.310  11.340
77378SOL     OW33907   6.213   0.505   5.681
77378SOL    HW133908   6.218   0.500   5.585
77378SOL    HW233909   6.251   0.591   5.702
77379SOL     OW33910   5.453  12.593   8.194
77379SOL    HW133911   5.363  12.578   8.164
77379SOL    HW233912   5.491  12.505   8.200
77380SOL     OW33913   5.057   5.618   1.039
77380SOL    HW133914   5.121   5.688   1.046
77380SOL    HW233915   5.065   5.569   1.121
77381SOL     OW33916   9.410  13.627  11.678
77381SOL    HW133917   9.482  13.640  11.616
77381SOL    HW233918   9.356  13.559  11.638
77382SOL     OW33919   0.862   7.722   6.995
77382SOL    HW133920   0.846   7.770   6.913
77382SOL    HW233921   0.791   7.749   7.053
77383SOL     OW33922   6.038   4.259  13.508
77383SOL    HW133923   6.014   4.170  13.535
77383SOL    HW233924   6.020   4.261  13.414
77384SOL     OW33925  13.158   9.125   6.914
77384SOL    HW133926  13.193   9.061   6.852
77384SOL    HW233927  13.063   9.123   6.900
77385SOL     OW33928   6.318  12.572   9.204
77385SOL    HW133929   6.358  12.630   9.269
77385SOL    HW233930   6.390  12.548   9.146
77386SOL     OW33931  11.725   6.149  13.641
77386SOL    HW133932  11.777   6.195  13.707
77386SOL    HW233933  11.756   6.184  13.557
77387SOL     OW33934   1.381  12.780  12.766
77387SOL    HW133935   1.329  12.818  12.695
77387SOL    HW233936   1.337  12.809  12.846
77388SOL     OW33937  11.417  13.909   2.009
77388SOL    HW133938  11.398  13.937   1.920
77388SOL    HW233939  11.366  13.828   2.020
77389SOL     OW33940   8.670  11.946   1.195
77389SOL    HW133941   8.673  12.024   1.139
77389SOL    HW233942   8.613  11.971   1.268
77390SOL     OW33943   8.812  12.593   4.827
77390SOL    HW133944   8.880  12.660   4.830
77390SOL    HW233945   8.859  12.512   4.804
77391SOL     OW33946  13.516   6.576   5.568
77391SOL    HW133947  13.442   6.526   5.604
77391SOL    HW233948  13.481   6.615   5.488
77392SOL     OW33949  11.049   4.143  10.676
77392SOL    HW133950  11.121   4.105  10.627
77392SOL    HW233951  10.990   4.069  10.692
77393SOL     OW33952   6.966   7.826  10.345
77393SOL    HW133953   7.054   7.851  10.375
77393SOL    HW233954   6.924   7.909  10.323
77394SOL     OW33955   1.359  11.484   5.042
77394SOL    HW133956   1.454  11.474   5.032
77394SOL    HW233957   1.331  11.527   4.961
77395SOL     OW33958   0.509  13.695   7.912
77395SOL    HW133959   0.594  13.713   7.952
77395SOL    HW233960   0.519  13.721   7.821
77396SOL     OW33961   0.974  10.797  13.973
77396SOL    HW133962   0.944  10.713  13.939
77396SOL    HW233963   0.965  10.858  13.899
77397SOL     OW33964   0.076  10.027   8.665
77397SOL    HW133965   0.043   9.940   8.686
77397SOL    HW233966   0.010  10.088   8.698
77398SOL     OW33967  10.171   8.875   3.097
77398SOL    HW133968  10.095   8.817   3.092
77398SOL    HW233969  10.188   8.884   3.191
77399SOL     OW33970   2.840   8.482  12.089
77399SOL    HW133971   2.888   8.497  12.170
77399SOL    HW233972   2.783   8.559  12.080
77400SOL     OW33973   5.036   4.260   2.909
77400SOL    HW133974   5.063   4.262   3.000
77400SOL    HW233975   5.016   4.168   2.892
77401SOL     OW33976   1.161   6.118   7.487
77401SOL    HW133977   1.173   6.205   7.449
77401SOL    HW233978   1.067   6.115   7.508
77402SOL     OW33979   2.393   9.960  12.371
77402SOL    HW133980   2.456  10.027  12.347
77402SOL    HW233981   2.309   9.992  12.338
77403SOL     OW33982   3.130   0.909   4.140
77403SOL    HW133983   3.063   0.900   4.072
77403SOL    HW233984   3.212   0.888   4.096
77404SOL     OW33985   2.102   9.045   7.848
77404SOL    HW133986   2.113   9.140   7.853
77404SOL    HW233987   2.057   9.022   7.929
77405SOL     OW33988  13.816   3.740   6.771
77405SOL    HW133989  13.812   3.778   6.684
77405SOL    HW233990  13.910   3.736   6.791
77406SOL     OW33991  10.562  11.670  11.586
77406SOL    HW133992  10.579  11.607  11.656
77406SOL    HW233993  10.467  11.680  11.585
77407SOL     OW33994  10.707   4.705   2.928
77407SOL    HW133995  10.636   4.663   2.881
77407SOL    HW233996  10.667   4.781   2.970
77408SOL     OW33997   3.366   7.948   2.486
77408SOL    HW133998   3.287   7.987   2.449
77408SOL    HW233999   3.390   7.879   2.425
77409SOL     OW34000   2.029   2.279   4.989
77409SOL    HW134001   1.981   2.199   5.011
77409SOL    HW234002   2.106   2.277   5.045
77410SOL     OW34003   1.062   2.409   5.993
77410SOL    HW134004   1.137   2.384   6.048
77410SOL    HW234005   1.008   2.464   6.049
77411SOL     OW34006  10.488   0.956   4.849
77411SOL    HW134007  10.555   0.890   4.831
77411SOL    HW234008  10.522   1.035   4.807
77412SOL     OW34009  13.335   2.777   0.762
77412SOL    HW134010  13.269   2.712   0.737
77412SOL    HW234011  13.322   2.849   0.701
77413SOL     OW34012   3.536  10.455   0.528
77413SOL    HW134013   3.585  10.531   0.498
77413SOL    HW234014   3.486  10.486   0.603
77414SOL     OW34015   8.691   2.530   1.659
77414SOL    HW134016   8.644   2.580   1.725
77414SOL    HW234017   8.633   2.457   1.637
77415SOL     OW34018   6.199   8.779   5.735
77415SOL    HW134019   6.250   8.797   5.656
77415SOL    HW234020   6.215   8.686   5.753
77416SOL     OW34021   1.771   9.479  10.283
77416SOL    HW134022   1.683   9.442  10.272
77416SOL    HW234023   1.757   9.574  10.286
77417SOL     OW34024  10.421   6.975  14.377
77417SOL    HW134025  10.360   7.022  14.434
77417SOL    HW234026  10.365   6.916  14.326
77418SOL     OW34027  12.944   8.632   0.928
77418SOL    HW134028  12.855   8.599   0.938
77418SOL    HW234029  12.938   8.725   0.951
77419SOL     OW34030   4.345  11.090   3.902
77419SOL    HW134031   4.257  11.108   3.869
77419SOL    HW234032   4.403  11.111   3.828
77420SOL     OW34033   3.752  11.959   4.304
77420SOL    HW134034   3.696  11.882   4.314
77420SOL    HW234035   3.810  11.937   4.231
77421SOL     OW34036   0.022   6.601   2.400
77421SOL    HW134037  14.862   6.593   2.488
77421SOL    HW234038  14.825   6.618   2.343
77422SOL     OW34039   9.893  12.939   0.710
77422SOL    HW134040   9.968  12.994   0.732
77422SOL    HW234041   9.922  12.888   0.634
77423SOL     OW34042   3.081  12.798  11.655
77423SOL    HW134043   3.171  12.794  11.689
77423SOL    HW234044   3.077  12.883  11.610
77424SOL     OW34045   2.085  13.229   6.309
77424SOL    HW134046   2.069  13.184   6.226
77424SOL    HW234047   2.056  13.168   6.376
77425SOL     OW34048   1.326  10.211   5.773
77425SOL    HW134049   1.390  10.279   5.753
77425SOL    HW234050   1.377  10.130   5.774
77426SOL     OW34051   2.376   0.461   7.401
77426SOL    HW134052   2.280   0.467   7.398
77426SOL    HW234053   2.394   0.368   7.401
77427SOL     OW34054   1.640  14.837  12.132
77427SOL    HW134055   1.652   0.053  12.115
77427SOL    HW234056   1.726  14.799  12.120
77428SOL     OW34057   1.443   5.025   7.710
77428SOL    HW134058   1.405   5.048   7.626
77428SOL    HW234059   1.535   5.004   7.690
77429SOL     OW34060   8.823   4.435   7.979
77429SOL    HW134061   8.894   4.477   8.027
77429SOL    HW234062   8.800   4.359   8.032
77430SOL     OW34063  13.503  14.261   4.574
77430SOL    HW134064  13.513  14.192   4.640
77430SOL    HW234065  13.539  14.223   4.494
77431SOL     OW34066   2.049   9.686  12.969
77431SOL    HW134067   2.136   9.703  13.005
77431SOL    HW234068   2.005   9.632  13.035
77432SOL     OW34069   9.257   7.781   1.468
77432SOL    HW134070   9.250   7.863   1.418
77432SOL    HW234071   9.249   7.808   1.559
77433SOL     OW34072   5.821   4.884  12.155
77433SOL    HW134073   5.851   4.971  12.129
77433SOL    HW234074   5.835   4.881  12.250
77434SOL     OW34075   4.126  14.346   9.740
77434SOL    HW134076   4.151  14.399   9.816
77434SOL    HW234077   4.209  14.314   9.705
77435SOL     OW34078  12.332   5.965   4.801
77435SOL    HW134079  12.361   5.921   4.881
77435SOL    HW234080  12.340   6.058   4.820
77436SOL     OW34081   3.331   4.710  11.764
77436SOL    HW134082   3.319   4.669  11.678
77436SOL    HW234083   3.424   4.702  11.782
77437SOL     OW34084   8.175   6.650  10.458
77437SOL    HW134085   8.121   6.590  10.510
77437SOL    HW234086   8.249   6.597  10.428
77438SOL     OW34087  14.315   9.483  14.433
77438SOL    HW134088  14.277   9.539  14.500
77438SOL    HW234089  14.409   9.496  14.442
77439SOL     OW34090  12.685   3.884  14.420
77439SOL    HW134091  12.642   3.801  14.440
77439SOL    HW234092  12.654   3.907  14.333
77440SOL     OW34093   9.587  14.168   8.105
77440SOL    HW134094   9.539  14.140   8.028
77440SOL    HW234095   9.549  14.117   8.177
77441SOL     OW34096  13.891   5.366   2.865
77441SOL    HW134097  13.860   5.456   2.859
77441SOL    HW234098  13.980   5.370   2.828
77442SOL     OW34099   5.481  13.301   5.572
77442SOL    HW134100   5.447  13.220   5.609
77442SOL    HW234101   5.567  13.311   5.613
77443SOL     OW34102  11.241  10.974   0.784
77443SOL    HW134103  11.201  11.017   0.860
77443SOL    HW234104  11.184  10.899   0.768
77444SOL     OW34105   6.131  13.842   2.530
77444SOL    HW134106   6.160  13.927   2.495
77444SOL    HW234107   6.089  13.799   2.456
77445SOL     OW34108   7.347   7.868  13.535
77445SOL    HW134109   7.336   7.936  13.602
77445SOL    HW234110   7.434   7.833  13.551
77446SOL     OW34111  10.159   3.344  12.852
77446SOL    HW134112  10.157   3.251  12.834
77446SOL    HW234113  10.130   3.385  12.771
77447SOL     OW34114   5.597  14.100   9.717
77447SOL    HW134115   5.588  14.052   9.799
77447SOL    HW234116   5.690  14.096   9.697
77448SOL     OW34117  12.066   2.314   2.063
77448SOL    HW134118  12.067   2.316   2.159
77448SOL    HW234119  12.138   2.372   2.038
77449SOL     OW34120  14.074  10.364   1.194
77449SOL    HW134121  14.137  10.412   1.247
77449SOL    HW234122  13.994  10.415   1.200
77450SOL     OW34123   9.016   4.190  12.890
77450SOL    HW134124   9.079   4.170  12.959
77450SOL    HW234125   8.931   4.189  12.934
77451SOL     OW34126   6.702  12.348   6.691
77451SOL    HW134127   6.658  12.266   6.671
77451SOL    HW234128   6.792  12.335   6.662
77452SOL     OW34129  10.279   8.943   6.524
77452SOL    HW134130  10.260   8.850   6.525
77452SOL    HW234131  10.271   8.970   6.616
77453SOL     OW34132   5.433   1.118   0.939
77453SOL    HW134133   5.371   1.191   0.947
77453SOL    HW234134   5.402   1.054   1.002
77454SOL     OW34135   4.247  11.290   8.993
77454SOL    HW134136   4.227  11.353   9.061
77454SOL    HW234137   4.342  11.285   8.992
77455SOL     OW34138  13.647  12.745  13.177
77455SOL    HW134139  13.610  12.667  13.217
77455SOL    HW234140  13.721  12.713  13.125
77456SOL     OW34141  11.382  11.901   4.697
77456SOL    HW134142  11.411  11.982   4.656
77456SOL    HW234143  11.320  11.929   4.765
77457SOL     OW34144   3.569  13.926  12.203
77457SOL    HW134145   3.503  13.977  12.249
77457SOL    HW234146   3.602  13.865  12.269
77458SOL     OW34147   2.705   3.801  13.588
77458SOL    HW134148   2.706   3.770  13.497
77458SOL    HW234149   2.628   3.857  13.594
77459SOL     OW34150   1.540   0.955   5.763
77459SOL    HW134151   1.626   0.936   5.727
77459SOL    HW234152   1.488   0.877   5.744
77460SOL     OW34153   0.126   4.907   0.222
77460SOL    HW134154   0.132   4.945   0.134
77460SOL    HW234155   0.198   4.948   0.270
77461SOL     OW34156   5.410   0.814   9.394
77461SOL    HW134157   5.364   0.895   9.416
77461SOL    HW234158   5.499   0.842   9.370
77462SOL     OW34159   6.840   8.468   2.902
77462SOL    HW134160   6.790   8.444   2.823
77462SOL    HW234161   6.927   8.431   2.887
77463SOL     OW34162  12.697   8.696   4.640
77463SOL    HW134163  12.638   8.691   4.716
77463SOL    HW234164  12.681   8.783   4.603
77464SOL     OW34165  10.821   5.173   6.678
77464SOL    HW134166  10.765   5.158   6.601
77464SOL    HW234167  10.819   5.268   6.690
77465SOL     OW34168   1.388   7.736  10.752
77465SOL    HW134169   1.458   7.765  10.694
77465SOL    HW234170   1.331   7.812  10.761
77466SOL     OW34171  11.520  12.317   7.961
77466SOL    HW134172  11.503  12.238   7.909
77466SOL    HW234173  11.442  12.371   7.947
77467SOL     OW34174   7.172   9.659  13.749
77467SOL    HW134175   7.124   9.578  13.765
77467SOL    HW234176   7.232   9.638  13.678
77468SOL     OW34177   0.594   9.075   7.102
77468SOL    HW134178   0.684   9.070   7.136
77468SOL    HW234179   0.543   9.112   7.174
77469SOL     OW34180  12.833   2.728  10.152
77469SOL    HW134181  12.802   2.643  10.183
77469SOL    HW234182  12.907   2.749  10.209
77470SOL     OW34183   8.569   1.873   4.064
77470SOL    HW134184   8.614   1.928   4.128
77470SOL    HW234185   8.583   1.783   4.095
77471SOL     OW34186  12.058   4.769   8.841
77471SOL    HW134187  12.096   4.766   8.929
77471SOL    HW234188  11.974   4.813   8.853
77472SOL     OW34189  12.650   1.552  14.555
77472SOL    HW134190  12.609   1.475  14.595
77472SOL    HW234191  12.739   1.553  14.592
77473SOL     OW34192   8.685  12.179  10.024
77473SOL    HW134193   8.621  12.171   9.953
77473SOL    HW234194   8.749  12.243   9.991
77474SOL     OW34195  10.234   6.172   0.153
77474SOL    HW134196  10.264   6.262   0.148
77474SOL    HW234197  10.147   6.178   0.193
77475SOL     OW34198  11.178  14.217   7.283
77475SOL    HW134199  11.170  14.313   7.284
77475SOL    HW234200  11.233  14.199   7.206
77476SOL     OW34201  10.064   3.976  14.332
77476SOL    HW134202  10.095   4.062  14.358
77476SOL    HW234203   9.969   3.980  14.341
77477SOL     OW34204  13.124   0.107  11.405
77477SOL    HW134205  13.040   0.145  11.380
77477SOL    HW234206  13.102   0.018  11.433
77478SOL     OW34207   1.243   4.291  11.946
77478SOL    HW134208   1.214   4.335  11.866
77478SOL    HW234209   1.214   4.200  11.935
77479SOL     OW34210   8.047   0.312   0.382
77479SOL    HW134211   8.003   0.327   0.466
77479SOL    HW234212   8.117   0.251   0.403
77480SOL     OW34213   2.470   4.277  12.849
77480SOL    HW134214   2.471   4.357  12.797
77480SOL    HW234215   2.516   4.300  12.930
77481SOL     OW34216   1.239   1.546   1.700
77481SOL    HW134217   1.222   1.640   1.698
77481SOL    HW234218   1.276   1.530   1.786
77482SOL     OW34219   7.381   1.392   3.191
77482SOL    HW134220   7.376   1.349   3.106
77482SOL    HW234221   7.410   1.481   3.171
77483SOL     OW34222   2.730  12.998   7.536
77483SOL    HW134223   2.635  13.004   7.544
77483SOL    HW234224   2.762  13.002   7.626
77484SOL     OW34225  10.125   7.789   7.642
77484SOL    HW134226  10.089   7.763   7.557
77484SOL    HW234227  10.100   7.881   7.651
77485SOL     OW34228  13.833   5.977   2.187
77485SOL    HW134229  13.812   6.044   2.251
77485SOL    HW234230  13.819   6.019   2.102
77486SOL     OW34231   8.536  14.565   1.721
77486SOL    HW134232   8.613  14.513   1.744
77486SOL    HW234233   8.499  14.592   1.806
77487SOL     OW34234   6.176  14.774   0.727
77487SOL    HW134235   6.179  14.782   0.632
77487SOL    HW234236   6.149  14.861   0.758
77488SOL     OW34237   2.234   1.948   5.982
77488SOL    HW134238   2.211   2.000   6.060
77488SOL    HW234239   2.158   1.891   5.968
77489SOL     OW34240   6.831   5.778   6.642
77489SOL    HW134241   6.825   5.846   6.575
77489SOL    HW234242   6.916   5.737   6.627
77490SOL     OW34243   8.396  12.789   6.022
77490SOL    HW134244   8.472  12.845   6.032
77490SOL    HW234245   8.360  12.812   5.936
77491SOL     OW34246   0.756   4.014   5.651
77491SOL    HW134247   0.693   4.082   5.625
77491SOL    HW234248   0.798   3.988   5.569
77492SOL     OW34249   6.641   9.256  14.104
77492SOL    HW134250   6.709   9.312  14.142
77492SOL    HW234251   6.682   9.171  14.093
77493SOL     OW34252   0.687   3.238  13.764
77493SOL    HW134253   0.745   3.280  13.827
77493SOL    HW234254   0.611   3.211  13.815
77494SOL     OW34255  13.147   5.127   5.866
77494SOL    HW134256  13.170   5.193   5.931
77494SOL    HW234257  13.141   5.176   5.784
77495SOL     OW34258   9.142  10.394  12.822
77495SOL    HW134259   9.119  10.381  12.730
77495SOL    HW234260   9.098  10.475  12.847
77496SOL     OW34261   2.090   7.521   0.321
77496SOL    HW134262   2.142   7.520   0.401
77496SOL    HW234263   2.154   7.528   0.251
77497SOL     OW34264   9.524   1.328   9.950
77497SOL    HW134265   9.536   1.330   9.855
77497SOL    HW234266   9.471   1.249   9.966
77498SOL     OW34267   5.843  10.743   2.934
77498SOL    HW134268   5.878  10.712   3.017
77498SOL    HW234269   5.766  10.688   2.919
77499SOL     OW34270  12.236   3.774   8.590
77499SOL    HW134271  12.290   3.815   8.657
77499SOL    HW234272  12.259   3.820   8.509
77500SOL     OW34273   4.786   4.571   0.123
77500SOL    HW134274   4.868   4.620   0.117
77500SOL    HW234275   4.719   4.638   0.135
77501SOL     OW34276   7.348   2.127   6.230
77501SOL    HW134277   7.436   2.090   6.225
77501SOL    HW234278   7.290   2.051   6.221
77502SOL     OW34279   4.847  12.285   2.696
77502SOL    HW134280   4.885  12.231   2.766
77502SOL    HW234281   4.918  12.344   2.671
77503SOL     OW34282  14.392   4.745  14.475
77503SOL    HW134283  14.402   4.798  14.396
77503SOL    HW234284  14.482   4.725  14.501
77504SOL     OW34285  12.369  13.175   1.812
77504SOL    HW134286  12.288  13.136   1.778
77504SOL    HW234287  12.406  13.106   1.868
77505SOL     OW34288   6.534   2.759  13.401
77505SOL    HW134289   6.482   2.688  13.439
77505SOL    HW234290   6.565   2.809  13.477
77506SOL     OW34291  14.031  14.775   1.938
77506SOL    HW134292  14.099  14.842   1.929
77506SOL    HW234293  13.993  14.768   1.851
77507SOL     OW34294   8.133   7.417  13.454
77507SOL    HW134295   8.181   7.474  13.514
77507SOL    HW234296   8.177   7.428  13.370
77508SOL     OW34297   0.727   0.253   9.556
77508SOL    HW134298   0.817   0.276   9.534
77508SOL    HW234299   0.695   0.325   9.609
77509SOL     OW34300   6.312  11.888   7.084
77509SOL    HW134301   6.324  11.807   7.035
77509SOL    HW234302   6.251  11.866   7.155
77510SOL     OW34303  10.755   6.576   3.789
77510SOL    HW134304  10.721   6.606   3.873
77510SOL    HW234305  10.811   6.647   3.758
77511SOL     OW34306   2.582   0.262   0.333
77511SOL    HW134307   2.632   0.219   0.264
77511SOL    HW234308   2.587   0.355   0.311
77512SOL     OW34309   1.303  13.563   5.322
77512SOL    HW134310   1.233  13.619   5.356
77512SOL    HW234311   1.320  13.500   5.393
77513SOL     OW34312   8.214   1.604  10.648
77513SOL    HW134313   8.270   1.620  10.725
77513SOL    HW234314   8.251   1.658  10.579
77514SOL     OW34315   0.101   8.819   2.579
77514SOL    HW134316   0.185   8.777   2.559
77514SOL    HW234317   0.062   8.837   2.494
77515SOL     OW34318  14.002   7.607  12.108
77515SOL    HW134319  14.001   7.671  12.036
77515SOL    HW234320  14.053   7.534  12.075
77516SOL     OW34321  13.476   7.816  10.540
77516SOL    HW134322  13.441   7.780  10.458
77516SOL    HW234323  13.412   7.882  10.567
77517SOL     OW34324   2.282   0.550   2.324
77517SOL    HW134325   2.336   0.478   2.357
77517SOL    HW234326   2.337   0.591   2.257
77518SOL     OW34327   9.697   0.315   0.980
77518SOL    HW134328   9.631   0.246   0.981
77518SOL    HW234329   9.712   0.333   0.887
77519SOL     OW34330  10.439   2.045   2.557
77519SOL    HW134331  10.446   1.956   2.591
77519SOL    HW234332  10.487   2.099   2.619
77520SOL     OW34333  11.838  11.295   7.401
77520SOL    HW134334  11.814  11.367   7.343
77520SOL    HW234335  11.793  11.219   7.365
77521SOL     OW34336   4.474  11.169  14.244
77521SOL    HW134337   4.498  11.113  14.171
77521SOL    HW234338   4.535  11.144  14.314
77522SOL     OW34339   3.968   8.428  10.334
77522SOL    HW134340   3.943   8.394  10.420
77522SOL    HW234341   4.064   8.433  10.337
77523SOL     OW34342   2.779   4.009   3.895
77523SOL    HW134343   2.853   3.990   3.837
77523SOL    HW234344   2.729   4.076   3.849
77524SOL     OW34345   2.931   7.226  14.796
77524SOL    HW134346   2.858   7.286  14.809
77524SOL    HW234347   2.938   7.219  14.700
77525SOL     OW34348   8.925   9.987   1.265
77525SOL    HW134349   8.969   9.940   1.336
77525SOL    HW234350   8.960  10.076   1.270
77526SOL     OW34351  14.022   1.693   1.033
77526SOL    HW134352  13.981   1.734   0.957
77526SOL    HW234353  14.073   1.621   0.997
77527SOL     OW34354   9.764   3.661  10.070
77527SOL    HW134355   9.706   3.648  10.146
77527SOL    HW234356   9.705   3.693  10.001
77528SOL     OW34357   7.317   3.073   6.063
77528SOL    HW134358   7.396   3.018   6.061
77528SOL    HW234359   7.332   3.137   5.994
77529SOL     OW34360   5.363   3.379  11.816
77529SOL    HW134361   5.304   3.313  11.851
77529SOL    HW234362   5.307   3.454  11.797
77530SOL     OW34363   3.382  12.384   8.582
77530SOL    HW134364   3.289  12.405   8.575
77530SOL    HW234365   3.383  12.293   8.611
77531SOL     OW34366   8.650   1.380   2.051
77531SOL    HW134367   8.638   1.293   2.013
77531SOL    HW234368   8.678   1.365   2.141
77532SOL     OW34369   9.633  13.407   0.505
77532SOL    HW134370   9.662  13.371   0.421
77532SOL    HW234371   9.637  13.333   0.566
77533SOL     OW34372   1.806  11.250   4.010
77533SOL    HW134373   1.808  11.225   3.918
77533SOL    HW234374   1.713  11.266   4.028
77534SOL     OW34375   6.625   5.528   7.278
77534SOL    HW134376   6.685   5.557   7.209
77534SOL    HW234377   6.544   5.575   7.260
77535SOL     OW34378  13.562  12.517  14.316
77535SOL    HW134379  13.495  12.529  14.249
77535SOL    HW234380  13.564  12.600  14.363
77536SOL     OW34381  14.402   8.790   7.684
77536SOL    HW134382  14.340   8.740   7.631
77536SOL    HW234383  14.419   8.734   7.760
77537SOL     OW34384  14.635   9.255   0.632
77537SOL    HW134385  14.641   9.207   0.715
77537SOL    HW234386  14.609   9.189   0.568
77538SOL     OW34387   7.796   8.304  11.035
77538SOL    HW134388   7.756   8.341  11.114
77538SOL    HW234389   7.870   8.253  11.067
77539SOL     OW34390  13.382   4.361   1.069
77539SOL    HW134391  13.295   4.375   1.031
77539SOL    HW234392  13.405   4.272   1.041
77540SOL     OW34393   6.761   8.278  12.814
77540SOL    HW134394   6.694   8.212  12.799
77540SOL    HW234395   6.814   8.243  12.886
77541SOL     OW34396   7.197  13.937   2.105
77541SOL    HW134397   7.264  13.912   2.168
77541SOL    HW234398   7.118  13.891   2.133
77542SOL     OW34399  13.703   1.561  11.094
77542SOL    HW134400  13.753   1.522  11.023
77542SOL    HW234401  13.711   1.500  11.167
77543SOL     OW34402  14.837   9.807  12.062
77543SOL    HW134403  14.768   9.833  12.123
77543SOL    HW234404  14.816   9.855  11.982
77544SOL     OW34405   2.517  12.854   5.054
77544SOL    HW134406   2.528  12.869   5.148
77544SOL    HW234407   2.600  12.883   5.016
77545SOL     OW34408  14.269  10.492  10.080
77545SOL    HW134409  14.339  10.427  10.072
77545SOL    HW234410  14.264  10.533   9.994
77546SOL     OW34411  13.898   8.886   7.567
77546SOL    HW134412  13.856   8.962   7.529
77546SOL    HW234413  13.991   8.909   7.572
77547SOL     OW34414   6.228   0.425  11.442
77547SOL    HW134415   6.158   0.420  11.378
77547SOL    HW234416   6.306   0.396  11.395
77548SOL     OW34417  14.471   9.183  10.239
77548SOL    HW134418  14.412   9.243  10.194
77548SOL    HW234419  14.450   9.096  10.203
77549SOL     OW34420  13.315  11.320   1.206
77549SOL    HW134421  13.387  11.366   1.162
77549SOL    HW234422  13.356  11.242   1.243
77550SOL     OW34423   9.680  12.358   1.943
77550SOL    HW134424   9.598  12.395   1.910
77550SOL    HW234425   9.742  12.431   1.940
77551SOL     OW34426   8.896   6.996   7.390
77551SOL    HW134427   8.971   6.976   7.334
77551SOL    HW234428   8.911   7.086   7.420
77552SOL     OW34429   7.656   8.947  13.724
77552SOL    HW134430   7.595   8.992  13.782
77552SOL    HW234431   7.706   9.017  13.682
77553SOL     OW34432   5.625   5.164   6.616
77553SOL    HW134433   5.557   5.177   6.549
77553SOL    HW234434   5.707   5.184   6.571
77554SOL     OW34435  12.408  13.787  14.669
77554SOL    HW134436  12.369  13.752  14.749
77554SOL    HW234437  12.465  13.718  14.637
77555SOL     OW34438   6.425   7.251   1.185
77555SOL    HW134439   6.385   7.188   1.124
77555SOL    HW234440   6.420   7.208   1.270
77556SOL     OW34441   4.447   2.583  11.953
77556SOL    HW134442   4.387   2.528  12.004
77556SOL    HW234443   4.500   2.522  11.903
77557SOL     OW34444   7.194   0.668   2.167
77557SOL    HW134445   7.266   0.685   2.227
77557SOL    HW234446   7.201   0.575   2.147
77558SOL     OW34447   7.340   8.700   9.658
77558SOL    HW134448   7.402   8.636   9.693
77558SOL    HW234449   7.392   8.780   9.647
77559SOL     OW34450   1.009   0.144   6.763
77559SOL    HW134451   1.018   0.183   6.850
77559SOL    HW234452   0.940   0.079   6.773
77560SOL     OW34453   4.553   4.318   8.033
77560SOL    HW134454   4.526   4.308   8.124
77560SOL    HW234455   4.584   4.231   8.008
77561SOL     OW34456  11.416   7.151   0.282
77561SOL    HW134457  11.376   7.118   0.362
77561SOL    HW234458  11.485   7.088   0.261
77562SOL     OW34459   8.803   6.877  10.839
77562SOL    HW134460   8.880   6.901  10.891
77562SOL    HW234461   8.773   6.959  10.801
77563SOL     OW34462   8.864   9.358  14.661
77563SOL    HW134463   8.875   9.265  14.681
77563SOL    HW234464   8.772   9.365  14.635
77564SOL     OW34465  12.582   7.806  10.656
77564SOL    HW134466  12.588   7.837  10.746
77564SOL    HW234467  12.549   7.717  10.664
77565SOL     OW34468   9.066  10.907   8.148
77565SOL    HW134469   9.004  10.850   8.101
77565SOL    HW234470   9.054  10.885   8.240
77566SOL     OW34471  10.626  10.660   1.302
77566SOL    HW134472  10.660  10.749   1.300
77566SOL    HW234473  10.703  10.604   1.308
77567SOL     OW34474  12.167   6.716   8.105
77567SOL    HW134475  12.111   6.764   8.167
77567SOL    HW234476  12.137   6.745   8.019
77568SOL     OW34477   6.608  11.246  14.284
77568SOL    HW134478   6.668  11.315  14.311
77568SOL    HW234479   6.656  11.164  14.297
77569SOL     OW34480  11.858  13.855   1.418
77569SOL    HW134481  11.780  13.803   1.400
77569SOL    HW234482  11.832  13.945   1.399
77570SOL     OW34483  14.074   0.973  13.710
77570SOL    HW134484  14.070   0.944  13.619
77570SOL    HW234485  14.137   0.913  13.752
77571SOL     OW34486  12.827   6.670  14.716
77571SOL    HW134487  12.786   6.647  14.799
77571SOL    HW234488  12.914   6.632  14.721
77572SOL     OW34489  13.941   3.609   3.800
77572SOL    HW134490  13.846   3.607   3.816
77572SOL    HW234491  13.979   3.561   3.874
77573SOL     OW34492   6.149   2.827  10.392
77573SOL    HW134493   6.132   2.853  10.483
77573SOL    HW234494   6.096   2.888  10.339
77574SOL     OW34495   2.861   0.124   4.339
77574SOL    HW134496   2.813   0.174   4.405
77574SOL    HW234497   2.841   0.033   4.359
77575SOL     OW34498   1.439   3.389  13.107
77575SOL    HW134499   1.481   3.306  13.083
77575SOL    HW234500   1.478   3.454  13.049
77576SOL     OW34501  12.110   2.981   2.602
77576SOL    HW134502  12.072   3.068   2.586
77576SOL    HW234503  12.115   2.975   2.698
77577SOL     OW34504   9.289  14.376   5.825
77577SOL    HW134505   9.321  14.357   5.737
77577SOL    HW234506   9.336  14.314   5.882
77578SOL     OW34507  10.755  12.447   2.792
77578SOL    HW134508  10.718  12.483   2.873
77578SOL    HW234509  10.678  12.420   2.741
77579SOL     OW34510   4.211  12.847   7.507
77579SOL    HW134511   4.226  12.917   7.443
77579SOL    HW234512   4.117  12.828   7.499
77580SOL     OW34513   1.140   0.500   9.748
77580SOL    HW134514   1.141   0.440   9.823
77580SOL    HW234515   1.120   0.585   9.786
77581SOL     OW34516  13.934   8.167   9.899
77581SOL    HW134517  13.959   8.229   9.830
77581SOL    HW234518  13.972   8.084   9.871
77582SOL     OW34519  10.607   0.670   2.905
77582SOL    HW134520  10.602   0.658   2.810
77582SOL    HW234521  10.665   0.746   2.916
77583SOL     OW34522   8.959  14.362   3.657
77583SOL    HW134523   8.879  14.330   3.616
77583SOL    HW234524   9.019  14.288   3.654
77584SOL     OW34525   4.116   4.525   7.072
77584SOL    HW134526   4.145   4.510   7.162
77584SOL    HW234527   4.088   4.616   7.070
77585SOL     OW34528  11.333  11.170   5.049
77585SOL    HW134529  11.319  11.085   5.008
77585SOL    HW234530  11.390  11.217   4.988
77586SOL     OW34531   3.603   7.487   4.229
77586SOL    HW134532   3.641   7.573   4.248
77586SOL    HW234533   3.673   7.425   4.247
77587SOL     OW34534   6.318   1.086  13.137
77587SOL    HW134535   6.379   1.015  13.119
77587SOL    HW234536   6.270   1.058  13.215
77588SOL     OW34537   3.233  11.562   6.942
77588SOL    HW134538   3.187  11.599   7.017
77588SOL    HW234539   3.326  11.572   6.963
77589SOL     OW34540   5.717   1.094   1.034
77589SOL    HW134541   5.759   1.142   0.963
77589SOL    HW234542   5.625   1.087   1.008
77590SOL     OW34543  11.039  11.094   7.102
77590SOL    HW134544  11.042  11.119   7.010
77590SOL    HW234545  11.127  11.064   7.122
77591SOL     OW34546   7.938  12.907   5.294
77591SOL    HW134547   7.906  12.877   5.379
77591SOL    HW234548   8.033  12.895   5.300
77592SOL     OW34549   3.016   8.396   4.997
77592SOL    HW134550   3.018   8.477   4.946
77592SOL    HW234551   2.926   8.365   4.989
77593SOL     OW34552  13.310   9.404  13.611
77593SOL    HW134553  13.321   9.497  13.595
77593SOL    HW234554  13.365   9.386  13.687
77594SOL     OW34555   5.813   9.685  11.683
77594SOL    HW134556   5.892   9.631  11.680
77594SOL    HW234557   5.757   9.648  11.615
77595SOL     OW34558   0.141   4.944  11.172
77595SOL    HW134559   0.071   5.009  11.170
77595SOL    HW234560   0.148   4.917  11.264
77596SOL     OW34561  13.463  10.931  11.702
77596SOL    HW134562  13.429  10.906  11.616
77596SOL    HW234563  13.408  11.004  11.730
77597SOL     OW34564   4.426   2.834  10.586
77597SOL    HW134565   4.378   2.761  10.625
77597SOL    HW234566   4.511   2.833  10.631
77598SOL     OW34567  10.828   4.054   3.804
77598SOL    HW134568  10.876   4.038   3.885
77598SOL    HW234569  10.736   4.058   3.831
77599SOL     OW34570   6.832   9.884   7.362
77599SOL    HW134571   6.817   9.848   7.449
77599SOL    HW234572   6.866   9.810   7.311
77600SOL     OW34573   5.533  12.748  10.725
77600SOL    HW134574   5.463  12.684  10.730
77600SOL    HW234575   5.604  12.703  10.679
77601SOL     OW34576  11.542  13.730   0.594
77601SOL    HW134577  11.498  13.698   0.673
77601SOL    HW234578  11.578  13.815   0.619
77602SOL     OW34579   7.327   7.219  12.543
77602SOL    HW134580   7.420   7.213  12.519
77602SOL    HW234581   7.310   7.313  12.545
77603SOL     OW34582   1.865   7.653   6.479
77603SOL    HW134583   1.888   7.630   6.569
77603SOL    HW234584   1.924   7.726   6.457
77604SOL     OW34585   4.291  12.215   0.409
77604SOL    HW134586   4.374  12.173   0.433
77604SOL    HW234587   4.295  12.302   0.448
77605SOL     OW34588   5.011  14.049   0.627
77605SOL    HW134589   5.042  14.133   0.662
77605SOL    HW234590   5.080  13.987   0.648
77606SOL     OW34591   0.875  12.717   3.304
77606SOL    HW134592   0.837  12.802   3.326
77606SOL    HW234593   0.877  12.716   3.208
77607SOL     OW34594  14.458   1.063   7.356
77607SOL    HW134595  14.444   1.135   7.294
77607SOL    HW234596  14.457   1.105   7.442
77608SOL     OW34597  12.184   7.107   9.498
77608SOL    HW134598  12.144   7.066   9.421
77608SOL    HW234599  12.149   7.196   9.498
77609SOL     OW34600   8.183   2.064   7.829
77609SOL    HW134601   8.145   2.053   7.741
77609SOL    HW234602   8.241   1.989   7.840
77610SOL     OW34603   2.565  14.711  10.358
77610SOL    HW134604   2.476  14.725  10.390
77610SOL    HW234605   2.571  14.616  10.344
77611SOL     OW34606  10.889   7.083   1.073
77611SOL    HW134607  10.871   7.085   0.979
77611SOL    HW234608  10.897   7.175   1.098
77612SOL     OW34609   0.516   7.159   4.801
77612SOL    HW134610   0.468   7.139   4.881
77612SOL    HW234611   0.451   7.201   4.744
77613SOL     OW34612  12.020  10.117   4.746
77613SOL    HW134613  12.100  10.156   4.782
77613SOL    HW234614  12.011  10.033   4.790
77614SOL     OW34615   8.403   6.753   2.568
77614SOL    HW134616   8.471   6.782   2.508
77614SOL    HW234617   8.426   6.662   2.588
77615SOL     OW34618   4.789  10.477   6.262
77615SOL    HW134619   4.845  10.478   6.185
77615SOL    HW234620   4.827  10.544   6.320
77616SOL     OW34621   9.670   6.306   8.366
77616SOL    HW134622   9.661   6.398   8.394
77616SOL    HW234623   9.602   6.260   8.414
77617SOL     OW34624   2.922   8.702  11.422
77617SOL    HW134625   2.844   8.654  11.394
77617SOL    HW234626   2.967   8.723  11.340
77618SOL     OW34627  14.874   4.585  13.789
77618SOL    HW134628  14.817   4.553  13.719
77618SOL    HW234629   0.021   4.506  13.838
77619SOL     OW34630  10.494  11.977   5.243
77619SOL    HW134631  10.537  11.989   5.158
77619SOL    HW234632  10.537  11.900   5.281
77620SOL     OW34633   2.254   5.671   7.097
77620SOL    HW134634   2.165   5.684   7.131
77620SOL    HW234635   2.263   5.576   7.089
77621SOL     OW34636  10.331   7.305   2.722
77621SOL    HW134637  10.381   7.381   2.692
77621SOL    HW234638  10.288   7.335   2.802
77622SOL     OW34639   4.595  11.002   8.068
77622SOL    HW134640   4.539  11.069   8.109
77622SOL    HW234641   4.533  10.943   8.024
77623SOL     OW34642   3.624  12.887  14.466
77623SOL    HW134643   3.646  12.971  14.507
77623SOL    HW234644   3.552  12.853  14.519
77624SOL     OW34645  12.924   5.682   0.152
77624SOL    HW134646  12.949   5.764   0.110
77624SOL    HW234647  12.977   5.679   0.232
77625SOL     OW34648   2.436   4.932  10.895
77625SOL    HW134649   2.429   5.016  10.849
77625SOL    HW234650   2.346   4.903  10.906
77626SOL     OW34651   7.303   9.860   3.431
77626SOL    HW134652   7.299   9.920   3.357
77626SOL    HW234653   7.228   9.801   3.419
77627SOL     OW34654  13.084  11.016  11.829
77627SOL    HW134655  13.124  11.006  11.743
77627SOL    HW234656  13.048  10.929  11.849
77628SOL     OW34657   0.872  14.670  10.230
77628SOL    HW134658   0.785  14.657  10.268
77628SOL    HW234659   0.931  14.622  10.288
77629SOL     OW34660   0.518   5.403   1.569
77629SOL    HW134661   0.598   5.363   1.604
77629SOL    HW234662   0.513   5.488   1.613
77630SOL     OW34663   1.359   5.985   6.324
77630SOL    HW134664   1.392   6.036   6.249
77630SOL    HW234665   1.376   6.041   6.400
77631SOL     OW34666   9.372   2.617   9.796
77631SOL    HW134667   9.433   2.664   9.853
77631SOL    HW234668   9.324   2.685   9.750
77632SOL     OW34669   0.253  13.604   7.945
77632SOL    HW134670   0.199  13.674   7.982
77632SOL    HW234671   0.343  13.638   7.949
77633SOL     OW34672   0.792  13.899   0.732
77633SOL    HW134673   0.711  13.936   0.766
77633SOL    HW234674   0.845  13.881   0.809
77634SOL     OW34675  11.979  11.497   3.620
77634SOL    HW134676  12.031  11.458   3.550
77634SOL    HW234677  11.954  11.424   3.675
77635SOL     OW34678  13.355  12.786   0.951
77635SOL    HW134679  13.336  12.761   0.861
77635SOL    HW234680  13.269  12.801   0.990
77636SOL     OW34681   3.415   0.272   8.905
77636SOL    HW134682   3.434   0.306   8.817
77636SOL    HW234683   3.453   0.336   8.964
77637SOL     OW34684  11.038  12.459   1.853
77637SOL    HW134685  10.972  12.434   1.918
77637SOL    HW234686  10.987  12.487   1.776
77638SOL     OW34687  11.344  14.570  12.735
77638SOL    HW134688  11.324  14.547  12.644
77638SOL    HW234689  11.420  14.627  12.729
77639SOL     OW34690   6.724   2.985   3.022
77639SOL    HW134691   6.718   2.949   2.934
77639SOL    HW234692   6.709   2.911   3.080
77640SOL     OW34693   1.947  12.140  14.158
77640SOL    HW134694   1.861  12.167  14.192
77640SOL    HW234695   1.927  12.073  14.093
77641SOL     OW34696  11.612   7.760  11.297
77641SOL    HW134697  11.528   7.723  11.323
77641SOL    HW234698  11.591   7.820  11.225
77642SOL     OW34699  11.135   0.832   5.751
77642SOL    HW134700  11.175   0.749   5.776
77642SOL    HW234701  11.053   0.808   5.707
77643SOL     OW34702  12.395   7.883  14.174
77643SOL    HW134703  12.429   7.842  14.253
77643SOL    HW234704  12.466   7.874  14.110
77644SOL     OW34705   5.413   3.787   3.821
77644SOL    HW134706   5.337   3.774   3.877
77644SOL    HW234707   5.378   3.785   3.732
77645SOL     OW34708  12.672   6.749  13.652
77645SOL    HW134709  12.715   6.724  13.734
77645SOL    HW234710  12.743   6.754  13.588
77646SOL     OW34711  12.741  11.767   0.782
77646SOL    HW134712  12.779  11.853   0.799
77646SOL    HW234713  12.702  11.775   0.695
77647SOL     OW34714   5.689  12.207  10.059
77647SOL    HW134715   5.743  12.240  10.131
77647SOL    HW234716   5.731  12.126  10.031
77648SOL     OW34717   1.257   3.695   0.830
77648SOL    HW134718   1.326   3.649   0.783
77648SOL    HW234719   1.184   3.633   0.833
77649SOL     OW34720   5.958  10.976   7.350
77649SOL    HW134721   6.051  11.000   7.351
77649SOL    HW234722   5.934  10.972   7.443
77650SOL     OW34723  10.471   6.020   5.756
77650SOL    HW134724  10.486   6.000   5.849
77650SOL    HW234725  10.557   6.049   5.725
77651SOL     OW34726  14.177   6.325   9.477
77651SOL    HW134727  14.190   6.235   9.508
77651SOL    HW234728  14.261   6.349   9.438
77652SOL     OW34729  10.564  11.452   7.063
77652SOL    HW134730  10.522  11.537   7.076
77652SOL    HW234731  10.526  11.395   7.131
77653SOL     OW34732   4.570  11.336   4.341
77653SOL    HW134733   4.658  11.298   4.332
77653SOL    HW234734   4.568  11.371   4.431
77654SOL     OW34735  14.333   3.134   1.394
77654SOL    HW134736  14.332   3.052   1.445
77654SOL    HW234737  14.350   3.202   1.459
77655SOL     OW34738   1.786  11.402  11.364
77655SOL    HW134739   1.746  11.471  11.416
77655SOL    HW234740   1.760  11.321  11.407
77656SOL     OW34741  12.863   1.009   8.534
77656SOL    HW134742  12.876   0.916   8.518
77656SOL    HW234743  12.801   1.037   8.466
77657SOL     OW34744   2.382   1.874   6.349
77657SOL    HW134745   2.397   1.915   6.434
77657SOL    HW234746   2.457   1.901   6.296
77658SOL     OW34747   7.980  13.276   5.588
77658SOL    HW134748   8.002  13.197   5.637
77658SOL    HW234749   7.886  13.267   5.570
77659SOL     OW34750  14.395   4.264   0.324
77659SOL    HW134751  14.369   4.174   0.301
77659SOL    HW234752  14.477   4.254   0.372
77660SOL     OW34753  11.730   2.882   2.534
77660SOL    HW134754  11.648   2.893   2.582
77660SOL    HW234755  11.789   2.839   2.596
77661SOL     OW34756  10.282   4.084   3.242
77661SOL    HW134757  10.283   4.069   3.336
77661SOL    HW234758  10.314   4.174   3.231
77662SOL     OW34759   7.687   5.695   9.923
77662SOL    HW134760   7.721   5.767   9.976
77662SOL    HW234761   7.657   5.630   9.987
77663SOL     OW34762   5.408  11.355   5.064
77663SOL    HW134763   5.462  11.285   5.101
77663SOL    HW234764   5.463  11.393   4.995
77664SOL     OW34765  14.717   8.578  13.331
77664SOL    HW134766  14.621   8.573  13.338
77664SOL    HW234767  14.741   8.655  13.382
77665SOL     OW34768  10.825   3.086  12.605
77665SOL    HW134769  10.909   3.110  12.643
77665SOL    HW234770  10.801   3.003  12.646
77666SOL     OW34771  10.623  12.006  12.803
77666SOL    HW134772  10.621  11.913  12.825
77666SOL    HW234773  10.531  12.029  12.789
77667SOL     OW34774  13.851   7.302  11.429
77667SOL    HW134775  13.772   7.353  11.449
77667SOL    HW234776  13.919   7.340  11.484
77668SOL     OW34777  11.404   7.023   8.330
77668SOL    HW134778  11.488   7.039   8.374
77668SOL    HW234779  11.366   6.949   8.377
77669SOL     OW34780   6.572  11.512   4.206
77669SOL    HW134781   6.621  11.450   4.260
77669SOL    HW234782   6.508  11.551   4.267
77670SOL     OW34783  14.343   1.416   2.659
77670SOL    HW134784  14.419   1.375   2.698
77670SOL    HW234785  14.374   1.451   2.576
77671SOL     OW34786   2.060  10.042   3.128
77671SOL    HW134787   2.130  10.084   3.178
77671SOL    HW234788   2.030  10.109   3.067
77672SOL     OW34789   8.322   9.781   5.700
77672SOL    HW134790   8.274   9.701   5.678
77672SOL    HW234791   8.389   9.788   5.632
77673SOL     OW34792  10.425  12.483   7.836
77673SOL    HW134793  10.365  12.492   7.763
77673SOL    HW234794  10.453  12.391   7.834
77674SOL     OW34795   7.426   0.879   4.612
77674SOL    HW134796   7.505   0.825   4.616
77674SOL    HW234797   7.418   0.917   4.699
77675SOL     OW34798  13.431   7.430  11.405
77675SOL    HW134799  13.385   7.514  11.397
77675SOL    HW234800  13.375   7.376  11.460
77676SOL     OW34801   4.392   0.020   1.175
77676SOL    HW134802   4.453  14.826   1.158
77676SOL    HW234803   4.404   0.080   1.102
77677SOL     OW34804  10.925  12.293   5.601
77677SOL    HW134805  10.891  12.367   5.552
77677SOL    HW234806  10.855  12.269   5.661
77678SOL     OW34807   2.009  12.621  13.251
77678SOL    HW134808   2.066  12.664  13.187
77678SOL    HW234809   2.065  12.607  13.327
77679SOL     OW34810   1.569  12.481   7.220
77679SOL    HW134811   1.479  12.451   7.208
77679SOL    HW234812   1.560  12.565   7.263
77680SOL     OW34813   9.455   7.408   9.728
77680SOL    HW134814   9.515   7.472   9.767
77680SOL    HW234815   9.460   7.425   9.634
77681SOL     OW34816  12.700  11.339   3.052
77681SOL    HW134817  12.715  11.380   2.967
77681SOL    HW234818  12.696  11.246   3.033
77682SOL     OW34819   2.002   1.458  14.286
77682SOL    HW134820   1.927   1.494  14.333
77682SOL    HW234821   2.012   1.514  14.209
77683SOL     OW34822   3.137   0.006   0.492
77683SOL    HW134823   3.079   0.064   0.444
77683SOL    HW234824   3.224   0.045   0.482
77684SOL     OW34825   2.637   0.202   2.408
77684SOL    HW134826   2.692   0.260   2.355
77684SOL    HW234827   2.691   0.182   2.485
77685SOL     OW34828   7.761   6.828  14.178
77685SOL    HW134829   7.834   6.777  14.144
77685SOL    HW234830   7.693   6.821  14.111
77686SOL     OW34831  13.035  13.372  10.598
77686SOL    HW134832  12.950  13.387  10.639
77686SOL    HW234833  13.034  13.280  10.572
77687SOL     OW34834  10.650   3.481  14.758
77687SOL    HW134835  10.659   3.401  14.810
77687SOL    HW234836  10.582   3.531  14.803
77688SOL     OW34837   7.460   6.441   2.781
77688SOL    HW134838   7.491   6.350   2.782
77688SOL    HW234839   7.496   6.479   2.861
77689SOL     OW34840   2.327  14.272   0.917
77689SOL    HW134841   2.419  14.259   0.937
77689SOL    HW234842   2.298  14.340   0.977
77690SOL     OW34843   7.982   7.920   0.838
77690SOL    HW134844   8.033   7.995   0.807
77690SOL    HW234845   7.992   7.854   0.768
77691SOL     OW34846   2.472  13.296   1.247
77691SOL    HW134847   2.402  13.328   1.189
77691SOL    HW234848   2.522  13.375   1.269
77692SOL     OW34849   2.376  13.232  12.499
77692SOL    HW134850   2.372  13.142  12.467
77692SOL    HW234851   2.290  13.248  12.539
77693SOL     OW34852   7.325   8.032   7.880
77693SOL    HW134853   7.345   8.015   7.789
77693SOL    HW234854   7.395   7.989   7.929
77694SOL     OW34855   4.501   3.124   5.123
77694SOL    HW134856   4.498   3.219   5.136
77694SOL    HW234857   4.495   3.088   5.211
77695SOL     OW34858  13.673   8.911   5.429
77695SOL    HW134859  13.724   8.989   5.407
77695SOL    HW234860  13.646   8.875   5.344
77696SOL     OW34861   8.660  13.705   4.674
77696SOL    HW134862   8.604  13.758   4.730
77696SOL    HW234863   8.713  13.653   4.735
77697SOL     OW34864  14.044  11.001   4.867
77697SOL    HW134865  14.084  10.920   4.835
77697SOL    HW234866  14.021  10.982   4.958
77698SOL     OW34867   9.265   1.765  14.101
77698SOL    HW134868   9.314   1.684  14.113
77698SOL    HW234869   9.237   1.762  14.009
77699SOL     OW34870   2.380   7.945   3.875
77699SOL    HW134871   2.441   7.997   3.927
77699SOL    HW234872   2.325   7.900   3.940
77700SOL     OW34873   6.327   7.069  10.441
77700SOL    HW134874   6.340   7.148  10.388
77700SOL    HW234875   6.233   7.055  10.440
77701SOL     OW34876  14.606   6.953  13.479
77701SOL    HW134877  14.615   6.858  13.488
77701SOL    HW234878  14.544   6.978  13.548
77702SOL     OW34879  10.990   3.291   6.553
77702SOL    HW134880  11.079   3.267   6.527
77702SOL    HW234881  10.991   3.387   6.556
77703SOL     OW34882   8.767   8.377  11.765
77703SOL    HW134883   8.690   8.429  11.785
77703SOL    HW234884   8.763   8.364  11.670
77704SOL     OW34885   8.387  11.875   5.869
77704SOL    HW134886   8.367  11.956   5.916
77704SOL    HW234887   8.435  11.822   5.932
77705SOL     OW34888   7.941   7.646   2.477
77705SOL    HW134889   7.926   7.574   2.538
77705SOL    HW234890   7.900   7.722   2.518
77706SOL     OW34891   3.215   0.744   9.404
77706SOL    HW134892   3.184   0.698   9.325
77706SOL    HW234893   3.141   0.738   9.464
77707SOL     OW34894   6.991   4.201   9.182
77707SOL    HW134895   7.017   4.170   9.269
77707SOL    HW234896   6.968   4.293   9.196
77708SOL     OW34897  11.855   8.173  11.026
77708SOL    HW134898  11.901   8.210  10.950
77708SOL    HW234899  11.855   8.244  11.090
77709SOL     OW34900   4.397   5.400   8.007
77709SOL    HW134901   4.489   5.419   7.987
77709SOL    HW234902   4.400   5.351   8.089
77710SOL     OW34903   6.327  10.212   8.651
77710SOL    HW134904   6.410  10.260   8.642
77710SOL    HW234905   6.261  10.272   8.616
77711SOL     OW34906   4.698  10.105  10.065
77711SOL    HW134907   4.657  10.019  10.077
77711SOL    HW234908   4.792  10.086  10.060
77712SOL     OW34909  13.641   2.204   6.675
77712SOL    HW134910  13.622   2.220   6.583
77712SOL    HW234911  13.556   2.191   6.716
77713SOL     OW34912   8.756   5.250   7.785
77713SOL    HW134913   8.794   5.335   7.767
77713SOL    HW234914   8.681   5.269   7.842
77714SOL     OW34915   9.778   7.317   9.487
77714SOL    HW134916   9.767   7.231   9.527
77714SOL    HW234917   9.697   7.331   9.438
77715SOL     OW34918   4.377   2.957   1.469
77715SOL    HW134919   4.363   2.968   1.375
77715SOL    HW234920   4.292   2.978   1.508
77716SOL     OW34921  13.468   8.949  10.979
77716SOL    HW134922  13.477   8.915  10.890
77716SOL    HW234923  13.551   8.992  10.998
77717SOL     OW34924   6.457  14.850  13.182
77717SOL    HW134925   6.467  14.758  13.208
77717SOL    HW234926   6.373  14.877  13.221
77718SOL     OW34927   5.336   7.266   1.245
77718SOL    HW134928   5.413   7.284   1.190
77718SOL    HW234929   5.357   7.184   1.290
77719SOL     OW34930   5.711   3.913  11.512
77719SOL    HW134931   5.626   3.869  11.500
77719SOL    HW234932   5.691   3.990  11.566
77720SOL     OW34933   6.715   0.449  11.348
77720SOL    HW134934   6.796   0.404  11.322
77720SOL    HW234935   6.744   0.535  11.378
77721SOL     OW34936   1.241   2.802   8.983
77721SOL    HW134937   1.234   2.887   9.027
77721SOL    HW234938   1.172   2.804   8.916
77722SOL     OW34939  13.603   9.070   2.183
77722SOL    HW134940  13.549   9.125   2.126
77722SOL    HW234941  13.600   9.114   2.268
77723SOL     OW34942  13.314   6.900   9.914
77723SOL    HW134943  13.265   6.957   9.973
77723SOL    HW234944  13.254   6.883   9.842
77724SOL     OW34945   7.781   1.882   3.275
77724SOL    HW134946   7.829   1.800   3.264
77724SOL    HW234947   7.810   1.915   3.360
77725SOL     OW34948   1.391   1.763   1.949
77725SOL    HW134949   1.442   1.734   2.025
77725SOL    HW234950   1.338   1.687   1.925
77726SOL     OW34951   7.517  10.566   7.866
77726SOL    HW134952   7.607  10.597   7.863
77726SOL    HW234953   7.508  10.525   7.951
77727SOL     OW34954  14.378   8.763   7.289
77727SOL    HW134955  14.317   8.727   7.225
77727SOL    HW234956  14.353   8.855   7.297
77728SOL     OW34957  11.162  13.257  12.748
77728SOL    HW134958  11.165  13.167  12.782
77728SOL    HW234959  11.239  13.264  12.692
77729SOL     OW34960   5.847   9.962   8.126
77729SOL    HW134961   5.878   9.961   8.035
77729SOL    HW234962   5.874  10.047   8.160
77730SOL     OW34963   4.429  10.810   4.508
77730SOL    HW134964   4.473  10.805   4.423
77730SOL    HW234965   4.448  10.898   4.540
77731SOL     OW34966  11.617  10.230  12.942
77731SOL    HW134967  11.592  10.281  12.865
77731SOL    HW234968  11.667  10.157  12.907
77732SOL     OW34969  11.973   2.191  12.981
77732SOL    HW134970  11.927   2.111  13.007
77732SOL    HW234971  11.923   2.261  13.023
77733SOL     OW34972   1.800   0.884  13.605
77733SOL    HW134973   1.830   0.843  13.523
77733SOL    HW234974   1.728   0.941  13.579
77734SOL     OW34975   0.195  12.164   3.930
77734SOL    HW134976   0.105  12.133   3.941
77734SOL    HW234977   0.189  12.259   3.940
77735SOL     OW34978   0.837   5.662  10.382
77735SOL    HW134979   0.802   5.697  10.300
77735SOL    HW234980   0.784   5.703  10.450
77736SOL     OW34981   9.784   4.266  10.556
77736SOL    HW134982   9.809   4.181  10.591
77736SOL    HW234983   9.733   4.307  10.626
77737SOL     OW34984  11.295  11.878   1.688
77737SOL    HW134985  11.345  11.841   1.615
77737SOL    HW234986  11.361  11.916   1.746
77738SOL     OW34987   7.831   5.807   3.062
77738SOL    HW134988   7.829   5.750   3.139
77738SOL    HW234989   7.826   5.896   3.098
77739SOL     OW34990   3.615   5.308   2.762
77739SOL    HW134991   3.592   5.359   2.685
77739SOL    HW234992   3.532   5.272   2.793
77740SOL     OW34993   2.760  12.102   7.452
77740SOL    HW134994   2.770  12.011   7.422
77740SOL    HW234995   2.711  12.145   7.382
77741SOL     OW34996   2.704  11.209  13.741
77741SOL    HW134997   2.785  11.189  13.788
77741SOL    HW234998   2.679  11.126  13.700
77742SOL     OW34999   2.740   4.433   0.379
77742SOL    HW135000   2.755   4.527   0.375
77742SOL    HW235001   2.828   4.395   0.380
77743SOL     OW35002   8.056   9.437  13.420
77743SOL    HW135003   8.009   9.370  13.370
77743SOL    HW235004   7.988   9.485  13.467
77744SOL     OW35005  12.960   6.121   8.249
77744SOL    HW135006  12.971   6.134   8.155
77744SOL    HW235007  12.915   6.200   8.279
77745SOL     OW35008   8.914  14.809   5.708
77745SOL    HW135009   8.951  14.848   5.629
77745SOL    HW235010   8.963  14.727   5.719
77746SOL     OW35011   2.400  13.905   1.087
77746SOL    HW135012   2.357  13.959   1.020
77746SOL    HW235013   2.399  13.960   1.166
77747SOL     OW35014   3.144   5.703  14.318
77747SOL    HW135015   3.058   5.664  14.330
77747SOL    HW235016   3.206   5.633  14.341
77748SOL     OW35017   8.166  12.919   0.103
77748SOL    HW135018   8.220  12.856   0.151
77748SOL    HW235019   8.193  12.908   0.012
77749SOL     OW35020  13.007   5.018  11.729
77749SOL    HW135021  12.915   5.046  11.732
77749SOL    HW235022  13.009   4.947  11.665
77750SOL     OW35023  13.992  10.770   5.220
77750SOL    HW135024  14.077  10.807   5.242
77750SOL    HW235025  14.000  10.677   5.244
77751SOL     OW35026  13.034   9.015   8.155
77751SOL    HW135027  12.940   9.019   8.140
77751SOL    HW235028  13.046   8.936   8.209
77752SOL     OW35029   1.165  11.983  11.299
77752SOL    HW135030   1.218  11.905  11.280
77752SOL    HW235031   1.215  12.055  11.262
77753SOL     OW35032  13.329   9.029  11.220
77753SOL    HW135033  13.358   8.975  11.146
77753SOL    HW235034  13.280   8.968  11.277
77754SOL     OW35035   2.102   5.457   2.856
77754SOL    HW135036   2.113   5.452   2.951
77754SOL    HW235037   2.103   5.551   2.836
77755SOL     OW35038  10.660   0.367   7.583
77755SOL    HW135039  10.711   0.363   7.665
77755SOL    HW235040  10.571   0.344   7.609
77756SOL     OW35041   3.785   9.580   8.614
77756SOL    HW135042   3.774   9.673   8.593
77756SOL    HW235043   3.696   9.546   8.619
77757SOL     OW35044  11.766   8.961   2.043
77757SOL    HW135045  11.786   8.938   2.134
77757SOL    HW235046  11.796   8.885   1.992
77758SOL     OW35047   2.313  13.181  10.453
77758SOL    HW135048   2.310  13.248  10.384
77758SOL    HW235049   2.315  13.232  10.535
77759SOL     OW35050  10.329  10.967  14.322
77759SOL    HW135051  10.309  10.892  14.265
77759SOL    HW235052  10.419  10.991  14.299
77760SOL     OW35053   4.767   5.291  10.279
77760SOL    HW135054   4.676   5.307  10.256
77760SOL    HW235055   4.805   5.378  10.290
77761SOL     OW35056  13.578   9.598   0.449
77761SOL    HW135057  13.665   9.636   0.460
77761SOL    HW235058  13.543   9.639   0.370
77762SOL     OW35059  10.958   5.188   7.436
77762SOL    HW135060  10.983   5.198   7.528
77762SOL    HW235061  10.866   5.162   7.438
77763SOL     OW35062   6.920   9.111  13.190
77763SOL    HW135063   6.978   9.093  13.264
77763SOL    HW235064   6.958   9.061  13.117
77764SOL     OW35065   3.801   1.417  13.231
77764SOL    HW135066   3.803   1.337  13.178
77764SOL    HW235067   3.716   1.456  13.212
77765SOL     OW35068   0.252  12.383   9.436
77765SOL    HW135069   0.246  12.475   9.460
77765SOL    HW235070   0.161  12.353   9.433
77766SOL     OW35071   3.249   8.492   6.302
77766SOL    HW135072   3.249   8.487   6.398
77766SOL    HW235073   3.206   8.412   6.274
77767SOL     OW35074  13.037  10.431   9.418
77767SOL    HW135075  13.018  10.519   9.383
77767SOL    HW235076  12.984  10.372   9.364
77768SOL     OW35077   0.234   8.100   1.695
77768SOL    HW135078   0.140   8.094   1.711
77768SOL    HW235079   0.247   8.057   1.611
77769SOL     OW35080   6.772   8.823   0.171
77769SOL    HW135081   6.729   8.894   0.122
77769SOL    HW235082   6.862   8.823   0.138
77770SOL     OW35083  13.959   5.435   3.381
77770SOL    HW135084  14.035   5.455   3.327
77770SOL    HW235085  13.937   5.518   3.423
77771SOL     OW35086  11.572   5.348   9.433
77771SOL    HW135087  11.627   5.388   9.366
77771SOL    HW235088  11.556   5.418   9.496
77772SOL     OW35089   9.178   6.170  10.045
77772SOL    HW135090   9.183   6.193   9.952
77772SOL    HW235091   9.118   6.096  10.048
77773SOL     OW35092   2.105   1.316   2.200
77773SOL    HW135093   2.174   1.364   2.246
77773SOL    HW235094   2.113   1.226   2.230
77774SOL     OW35095  11.268   0.040  14.430
77774SOL    HW135096  11.284   0.081  14.345
77774SOL    HW235097  11.217   0.104  14.479
77775SOL     OW35098  12.578   1.377   4.275
77775SOL    HW135099  12.509   1.437   4.247
77775SOL    HW235100  12.556   1.357   4.366
77776SOL     OW35101   2.739  14.196  10.212
77776SOL    HW135102   2.749  14.272  10.155
77776SOL    HW235103   2.829  14.167  10.228
77777SOL     OW35104   3.360  11.933   9.711
77777SOL    HW135105   3.268  11.946   9.686
77777SOL    HW235106   3.357  11.895   9.798
77778SOL     OW35107  10.349  12.407   0.723
77778SOL    HW135108  10.326  12.406   0.630
77778SOL    HW235109  10.412  12.478   0.731
77779SOL     OW35110   6.040   1.777  13.473
77779SOL    HW135111   6.134   1.758  13.483
77779SOL    HW235112   6.036   1.847  13.408
77780SOL     OW35113  10.809   3.781   9.498
77780SOL    HW135114  10.805   3.871   9.530
77780SOL    HW235115  10.748   3.733   9.553
77781SOL     OW35116  14.050   9.947  11.795
77781SOL    HW135117  14.022  10.031  11.832
77781SOL    HW235118  13.969   9.909  11.760
77782SOL     OW35119   3.369  10.959  13.423
77782SOL    HW135120   3.400  11.037  13.377
77782SOL    HW235121   3.448  10.909  13.442
77783SOL     OW35122   6.342   3.832   5.352
77783SOL    HW135123   6.383   3.913   5.381
77783SOL    HW235124   6.403   3.796   5.287
77784SOL     OW35125  12.487   9.130   0.485
77784SOL    HW135126  12.518   9.165   0.569
77784SOL    HW235127  12.397   9.104   0.502
77785SOL     OW35128   8.871   2.843  13.886
77785SOL    HW135129   8.933   2.826  13.815
77785SOL    HW235130   8.827   2.924  13.860
77786SOL     OW35131  13.127  11.724   0.947
77786SOL    HW135132  13.179  11.790   0.992
77786SOL    HW235133  13.096  11.667   1.017
77787SOL     OW35134   9.663   5.901  14.823
77787SOL    HW135135   9.633   5.988  14.795
77787SOL    HW235136   9.639   5.843  14.750
77788SOL     OW35137   5.773   6.534  11.999
77788SOL    HW135138   5.859   6.551  11.961
77788SOL    HW235139   5.757   6.441  11.981
77789SOL     OW35140   1.695  11.126   9.185
77789SOL    HW135141   1.716  11.142   9.093
77789SOL    HW235142   1.780  11.105   9.225
77790SOL     OW35143  11.552   6.301  13.255
77790SOL    HW135144  11.511   6.245  13.190
77790SOL    HW235145  11.501   6.382  13.253
77791SOL     OW35146   6.220   9.011  13.696
77791SOL    HW135147   6.167   8.932  13.702
77791SOL    HW235148   6.221   9.047  13.784
77792SOL     OW35149  12.525  13.347   6.930
77792SOL    HW135150  12.542  13.342   6.836
77792SOL    HW235151  12.474  13.428   6.941
77793SOL     OW35152   2.402  10.533   7.677
77793SOL    HW135153   2.382  10.534   7.583
77793SOL    HW235154   2.488  10.491   7.683
77794SOL     OW35155   4.549   0.063   5.745
77794SOL    HW135156   4.630   0.047   5.697
77794SOL    HW235157   4.559   0.151   5.781
77795SOL     OW35158   7.571   9.695  13.638
77795SOL    HW135159   7.555   9.783  13.604
77795SOL    HW235160   7.646   9.663  13.588
77796SOL     OW35161   3.347  14.653   8.727
77796SOL    HW135162   3.439  14.655   8.750
77796SOL    HW235163   3.301  14.667   8.810
77797SOL     OW35164  12.580   0.829   4.422
77797SOL    HW135165  12.648   0.805   4.485
77797SOL    HW235166  12.612   0.795   4.338
77798SOL     OW35167   2.081   8.165   1.295
77798SOL    HW135168   2.107   8.099   1.359
77798SOL    HW235169   2.012   8.215   1.339
77799SOL     OW35170  13.533   9.312  14.111
77799SOL    HW135171  13.626   9.289  14.116
77799SOL    HW235172  13.517   9.365  14.189
77800SOL     OW35173  12.158   0.033   7.504
77800SOL    HW135174  12.079   0.047   7.556
77800SOL    HW235175  12.166  14.816   7.499
77801SOL     OW35176  12.999  10.773   6.014
77801SOL    HW135177  12.959  10.733   5.937
77801SOL    HW235178  13.018  10.700   6.073
77802SOL     OW35179  14.568  10.039   0.676
77802SOL    HW135180  14.606   9.964   0.631
77802SOL    HW235181  14.625  10.053   0.752
77803SOL     OW35182   9.174   2.014  12.653
77803SOL    HW135183   9.164   2.099  12.611
77803SOL    HW235184   9.094   2.003  12.704
77804SOL     OW35185   0.765  10.374   9.023
77804SOL    HW135186   0.704  10.436   9.063
77804SOL    HW235187   0.709  10.302   8.994
77805SOL     OW35188   8.499   0.093  14.670
77805SOL    HW135189   8.502   0.100  14.575
77805SOL    HW235190   8.580   0.046  14.692
77806SOL     OW35191   4.739   5.848  14.244
77806SOL    HW135192   4.672   5.830  14.178
77806SOL    HW235193   4.704   5.922  14.294
77807SOL     OW35194  13.267   2.962  12.265
77807SOL    HW135195  13.207   2.987  12.195
77807SOL    HW235196  13.321   2.893  12.227
77808SOL     OW35197  14.181  10.253   5.045
77808SOL    HW135198  14.265  10.224   5.008
77808SOL    HW235199  14.127  10.174   5.047
77809SOL     OW35200   7.289   8.628  12.803
77809SOL    HW135201   7.227   8.580  12.748
77809SOL    HW235202   7.253   8.717  12.806
77810SOL     OW35203   1.308   9.105   6.780
77810SOL    HW135204   1.272   9.018   6.800
77810SOL    HW235205   1.338   9.097   6.690
77811SOL     OW35206   6.674   1.222   1.025
77811SOL    HW135207   6.738   1.244   0.957
77811SOL    HW235208   6.639   1.137   0.998
77812SOL     OW35209  10.946  11.226   4.962
77812SOL    HW135210  11.012  11.293   4.947
77812SOL    HW235211  10.897  11.257   5.039
77813SOL     OW35212   5.348   2.884  12.042
77813SOL    HW135213   5.369   2.934  12.121
77813SOL    HW235214   5.344   2.951  11.973
77814SOL     OW35215  13.432   2.061   9.404
77814SOL    HW135216  13.429   1.973   9.443
77814SOL    HW235217  13.346   2.098   9.424
77815SOL     OW35218   7.463   5.137   3.307
77815SOL    HW135219   7.384   5.106   3.261
77815SOL    HW235220   7.507   5.057   3.335
77816SOL     OW35221   5.527   7.100   6.485
77816SOL    HW135222   5.598   7.085   6.548
77816SOL    HW235223   5.558   7.174   6.433
77817SOL     OW35224  11.653  10.164   7.632
77817SOL    HW135225  11.748  10.177   7.634
77817SOL    HW235226  11.635  10.129   7.544
77818SOL     OW35227  14.356   6.723   2.385
77818SOL    HW135228  14.416   6.771   2.441
77818SOL    HW235229  14.406   6.646   2.358
77819SOL     OW35230  14.553   8.001  13.435
77819SOL    HW135231  14.575   7.944  13.361
77819SOL    HW235232  14.547   7.942  13.510
77820SOL     OW35233   2.009  12.891   7.194
77820SOL    HW135234   1.978  12.807   7.229
77820SOL    HW235235   1.942  12.916   7.130
77821SOL     OW35236  10.024   8.488  13.231
77821SOL    HW135237  10.040   8.426  13.302
77821SOL    HW235238  10.012   8.433  13.153
77822SOL     OW35239   8.841   9.162   9.905
77822SOL    HW135240   8.770   9.221   9.880
77822SOL    HW235241   8.921   9.209   9.883
77823SOL     OW35242   5.136   3.914   8.237
77823SOL    HW135243   5.060   3.956   8.197
77823SOL    HW235244   5.100   3.860   8.307
77824SOL     OW35245   0.547   9.527   9.682
77824SOL    HW135246   0.566   9.466   9.611
77824SOL    HW235247   0.452   9.519   9.695
77825SOL     OW35248  11.711   1.578   9.713
77825SOL    HW135249  11.708   1.670   9.736
77825SOL    HW235250  11.803   1.559   9.699
77826SOL     OW35251   5.941  13.217   7.699
77826SOL    HW135252   5.864  13.160   7.698
77826SOL    HW235253   6.009  13.165   7.740
77827SOL     OW35254   9.852  13.561   4.699
77827SOL    HW135255   9.940  13.566   4.662
77827SOL    HW235256   9.816  13.478   4.666
77828SOL     OW35257   1.862  12.930   0.209
77828SOL    HW135258   1.810  12.887   0.141
77828SOL    HW235259   1.952  12.905   0.191
77829SOL     OW35260  11.417   9.991  10.333
77829SOL    HW135261  11.479   9.953  10.270
77829SOL    HW235262  11.340   9.934  10.328
77830SOL     OW35263   8.286   7.657   0.755
77830SOL    HW135264   8.219   7.591   0.775
77830SOL    HW235265   8.367   7.621   0.791
77831SOL     OW35266   6.835   6.199  13.107
77831SOL    HW135267   6.786   6.239  13.035
77831SOL    HW235268   6.795   6.112  13.117
77832SOL     OW35269  10.806   2.520  14.637
77832SOL    HW135270  10.741   2.461  14.674
77832SOL    HW235271  10.824   2.583  14.706
77833SOL     OW35272   6.354   2.600   8.232
77833SOL    HW135273   6.263   2.607   8.202
77833SOL    HW235274   6.401   2.559   8.159
77834SOL     OW35275  11.892  12.677   0.296
77834SOL    HW135276  11.917  12.641   0.211
77834SOL    HW235277  11.964  12.736   0.320
77835SOL     OW35278  12.607  14.829   2.476
77835SOL    HW135279  12.568  14.744   2.497
77835SOL    HW235280  12.701  14.814   2.482
77836SOL     OW35281   0.844   1.352   5.008
77836SOL    HW135282   0.804   1.371   4.923
77836SOL    HW235283   0.868   1.260   5.004
77837SOL     OW35284  10.072  11.039   0.481
77837SOL    HW135285  10.080  11.097   0.406
77837SOL    HW235286  10.034  10.959   0.446
77838SOL     OW35287  10.743   0.157   3.435
77838SOL    HW135288  10.829   0.175   3.474
77838SOL    HW235289  10.727   0.230   3.375
77839SOL     OW35290  12.967  10.054   9.535
77839SOL    HW135291  13.061  10.072   9.527
77839SOL    HW235292  12.933  10.068   9.447
77840SOL     OW35293   6.489   7.455   1.034
77840SOL    HW135294   6.571   7.426   0.994
77840SOL    HW235295   6.467   7.386   1.096
77841SOL     OW35296  13.442   6.791   1.456
77841SOL    HW135297  13.520   6.828   1.413
77841SOL    HW235298  13.453   6.814   1.548
77842SOL     OW35299   9.938   4.720   2.669
77842SOL    HW135300   9.993   4.791   2.700
77842SOL    HW235301   9.935   4.658   2.742
77843SOL     OW35302   6.739   8.707   7.727
77843SOL    HW135303   6.715   8.724   7.636
77843SOL    HW235304   6.690   8.628   7.751
77844SOL     OW35305   0.200  11.162  13.044
77844SOL    HW135306   0.280  11.111  13.031
77844SOL    HW235307   0.170  11.137  13.131
77845SOL     OW35308   8.871   3.988   5.481
77845SOL    HW135309   8.835   4.077   5.477
77845SOL    HW235310   8.840   3.954   5.565
77846SOL     OW35311  10.963   5.798   4.199
77846SOL    HW135312  11.026   5.825   4.265
77846SOL    HW235313  10.880   5.788   4.246
77847SOL     OW35314   5.262   5.357   6.789
77847SOL    HW135315   5.167   5.362   6.775
77847SOL    HW235316   5.299   5.414   6.721
77848SOL     OW35317   2.704   6.121   5.988
77848SOL    HW135318   2.643   6.051   6.010
77848SOL    HW235319   2.673   6.153   5.903
77849SOL     OW35320   0.315   8.132   8.845
77849SOL    HW135321   0.324   8.190   8.769
77849SOL    HW235322   0.337   8.045   8.811
77850SOL     OW35323   1.776   4.201   9.028
77850SOL    HW135324   1.866   4.194   8.996
77850SOL    HW235325   1.784   4.242   9.114
77851SOL     OW35326  13.270  14.027   4.585
77851SOL    HW135327  13.284  13.960   4.652
77851SOL    HW235328  13.195  14.077   4.616
77852SOL     OW35329  14.432   2.836   7.306
77852SOL    HW135330  14.393   2.923   7.316
77852SOL    HW235331  14.509   2.838   7.363
77853SOL     OW35332   0.140   5.689   5.105
77853SOL    HW135333   0.080   5.673   5.178
77853SOL    HW235334   0.181   5.604   5.090
77854SOL     OW35335   9.025   0.012   8.173
77854SOL    HW135336   9.090   0.072   8.209
77854SOL    HW235337   8.954   0.069   8.144
77855SOL     OW35338  14.693   4.254   3.956
77855SOL    HW135339  14.609   4.207   3.953
77855SOL    HW235340  14.689   4.304   4.037
77856SOL     OW35341  14.622  13.949  13.940
77856SOL    HW135342  14.685  13.913  14.002
77856SOL    HW235343  14.671  13.957  13.858
77857SOL     OW35344  11.236  14.571   4.512
77857SOL    HW135345  11.190  14.654   4.523
77857SOL    HW235346  11.313  14.592   4.459
77858SOL     OW35347   6.237   6.356   5.212
77858SOL    HW135348   6.222   6.384   5.122
77858SOL    HW235349   6.229   6.260   5.209
77859SOL     OW35350   7.902  12.888  11.680
77859SOL    HW135351   7.816  12.921  11.655
77859SOL    HW235352   7.946  12.963  11.719
77860SOL     OW35353   4.957   7.152   8.694
77860SOL    HW135354   4.880   7.102   8.719
77860SOL    HW235355   5.014   7.148   8.771
77861SOL     OW35356   9.892   8.881   0.271
77861SOL    HW135357   9.912   8.798   0.314
77861SOL    HW235358   9.797   8.882   0.262
77862SOL     OW35359   6.260   9.972   1.354
77862SOL    HW135360   6.327  10.014   1.407
77862SOL    HW235361   6.207  10.044   1.319
77863SOL     OW35362  10.357   2.740   2.438
77863SOL    HW135363  10.414   2.740   2.361
77863SOL    HW235364  10.415   2.715   2.511
77864SOL     OW35365   9.127   6.396   6.885
77864SOL    HW135366   9.034   6.418   6.873
77864SOL    HW235367   9.174   6.464   6.836
77865SOL     OW35368  14.526   8.588   6.928
77865SOL    HW135369  14.528   8.670   6.878
77865SOL    HW235370  14.603   8.540   6.899
77866SOL     OW35371   8.611  14.542   1.442
77866SOL    HW135372   8.519  14.564   1.457
77866SOL    HW235373   8.643  14.513   1.527
77867SOL     OW35374   5.539   1.483   5.859
77867SOL    HW135375   5.561   1.395   5.828
77867SOL    HW235376   5.447   1.476   5.885
77868SOL     OW35377   5.221   1.981   5.004
77868SOL    HW135378   5.269   1.922   5.062
77868SOL    HW235379   5.217   1.934   4.920
77869SOL     OW35380  11.009  14.076   6.380
77869SOL    HW135381  11.103  14.056   6.384
77869SOL    HW235382  10.997  14.144   6.447
77870SOL     OW35383  11.468   9.200   8.654
77870SOL    HW135384  11.407   9.133   8.625
77870SOL    HW235385  11.452   9.207   8.748
77871SOL     OW35386   7.235   8.542   7.775
77871SOL    HW135387   7.248   8.534   7.680
77871SOL    HW235388   7.270   8.460   7.811
77872SOL     OW35389   5.712   6.570   1.621
77872SOL    HW135390   5.726   6.663   1.600
77872SOL    HW235391   5.791   6.544   1.668
77873SOL     OW35392  10.111  13.252   6.397
77873SOL    HW135393  10.193  13.206   6.416
77873SOL    HW235394  10.043  13.187   6.414
77874SOL     OW35395  12.657   8.918  12.358
77874SOL    HW135396  12.657   8.966  12.440
77874SOL    HW235397  12.570   8.932  12.322
77875SOL     OW35398   0.110   7.892  11.578
77875SOL    HW135399   0.089   7.970  11.526
77875SOL    HW235400   0.206   7.894  11.587
77876SOL     OW35401   9.043   7.323   5.095
77876SOL    HW135402   9.033   7.300   5.187
77876SOL    HW235403   9.137   7.333   5.082
77877SOL     OW35404   8.561   9.746   8.317
77877SOL    HW135405   8.472   9.776   8.298
77877SOL    HW235406   8.591   9.803   8.388
77878SOL     OW35407   5.225   9.415   7.530
77878SOL    HW135408   5.201   9.333   7.573
77878SOL    HW235409   5.271   9.465   7.598
77879SOL     OW35410   0.710   6.287  10.047
77879SOL    HW135411   0.753   6.338   9.978
77879SOL    HW235412   0.722   6.196  10.021
77880SOL     OW35413   8.815  13.564   3.184
77880SOL    HW135414   8.902  13.572   3.144
77880SOL    HW235415   8.788  13.475   3.165
77881SOL     OW35416  11.938   5.945  11.468
77881SOL    HW135417  11.894   5.995  11.537
77881SOL    HW235418  11.952   6.009  11.398
77882SOL     OW35419   7.664   7.774  10.367
77882SOL    HW135420   7.603   7.826  10.314
77882SOL    HW235421   7.658   7.812  10.454
77883SOL     OW35422   3.531  12.584   2.710
77883SOL    HW135423   3.512  12.642   2.637
77883SOL    HW235424   3.508  12.497   2.679
77884SOL     OW35425   0.989  12.792   3.712
77884SOL    HW135426   0.957  12.761   3.797
77884SOL    HW235427   1.082  12.810   3.727
77885SOL     OW35428   0.782   7.228  14.520
77885SOL    HW135429   0.792   7.322  14.538
77885SOL    HW235430   0.712   7.200  14.580
77886SOL     OW35431   8.860   1.652  13.623
77886SOL    HW135432   8.949   1.621  13.610
77886SOL    HW235433   8.805   1.584  13.584
77887SOL     OW35434   6.843   1.255   0.316
77887SOL    HW135435   6.877   1.322   0.374
77887SOL    HW235436   6.760   1.229   0.354
77888SOL     OW35437  13.363   8.057  11.449
77888SOL    HW135438  13.436   8.043  11.388
77888SOL    HW235439  13.321   8.137  11.419
77889SOL     OW35440   8.374   6.219   6.295
77889SOL    HW135441   8.351   6.183   6.381
77889SOL    HW235442   8.437   6.157   6.259
77890SOL     OW35443   6.801  12.112   4.599
77890SOL    HW135444   6.882  12.094   4.646
77890SOL    HW235445   6.823  12.184   4.540
77891SOL     OW35446  12.737  14.642   3.440
77891SOL    HW135447  12.749  14.632   3.534
77891SOL    HW235448  12.801  14.709   3.415
77892SOL     OW35449  10.646   9.544  12.777
77892SOL    HW135450  10.574   9.531  12.715
77892SOL    HW235451  10.603   9.572  12.858
77893SOL     OW35452  14.016   3.005   7.451
77893SOL    HW135453  13.971   2.926   7.422
77893SOL    HW235454  14.006   3.005   7.546
77894SOL     OW35455   2.037  10.780   6.724
77894SOL    HW135456   2.060  10.805   6.813
77894SOL    HW235457   1.943  10.762   6.727
77895SOL     OW35458   9.809  12.353   5.860
77895SOL    HW135459   9.851  12.286   5.914
77895SOL    HW235460   9.856  12.434   5.882
77896SOL     OW35461   4.809  10.096  11.371
77896SOL    HW135462   4.866  10.140  11.308
77896SOL    HW235463   4.745  10.162  11.396
77897SOL     OW35464   8.504  13.299   4.432
77897SOL    HW135465   8.529  13.272   4.344
77897SOL    HW235466   8.585  13.333   4.471
77898SOL     OW35467   2.563   7.135  11.330
77898SOL    HW135468   2.542   7.180  11.249
77898SOL    HW235469   2.596   7.204  11.388
77899SOL     OW35470  11.997   9.006   0.044
77899SOL    HW135471  12.064   9.061   0.003
77899SOL    HW235472  11.956   8.959  14.848
77900SOL     OW35473   5.911  12.326   0.829
77900SOL    HW135474   5.902  12.254   0.891
77900SOL    HW235475   5.996  12.364   0.848
77901SOL     OW35476  12.158  10.827  11.812
77901SOL    HW135477  12.090  10.826  11.744
77901SOL    HW235478  12.178  10.735  11.827
77902SOL     OW35479   7.353  11.921  13.424
77902SOL    HW135480   7.414  11.871  13.369
77902SOL    HW235481   7.301  11.855  13.470
77903SOL     OW35482   2.666   8.304  14.317
77903SOL    HW135483   2.738   8.347  14.272
77903SOL    HW235484   2.598   8.371  14.325
77904SOL     OW35485  12.308  12.948   0.716
77904SOL    HW135486  12.222  12.930   0.753
77904SOL    HW235487  12.335  13.030   0.756
77905SOL     OW35488   2.405  12.219   7.062
77905SOL    HW135489   2.395  12.271   7.142
77905SOL    HW235490   2.345  12.260   7.000
77906SOL     OW35491  14.709  10.417   6.762
77906SOL    HW135492  14.617  10.420   6.790
77906SOL    HW235493  14.722  10.499   6.716
77907SOL     OW35494  14.839   5.813   3.795
77907SOL    HW135495   0.041   5.832   3.747
77907SOL    HW235496  14.868   5.773   3.877
77908SOL     OW35497  11.532   5.630   0.153
77908SOL    HW135498  11.504   5.541   0.134
77908SOL    HW235499  11.557   5.667   0.068
77909SOL     OW35500   0.001   7.570   7.887
77909SOL    HW135501   0.031   7.540   7.973
77909SOL    HW235502   0.023   7.663   7.885
77910SOL     OW35503   3.037  12.324   7.226
77910SOL    HW135504   3.062  12.231   7.231
77910SOL    HW235505   2.975  12.328   7.153
77911SOL     OW35506   3.435   5.626   1.523
77911SOL    HW135507   3.488   5.594   1.596
77911SOL    HW235508   3.361   5.670   1.565
77912SOL     OW35509   9.146   1.599   5.736
77912SOL    HW135510   9.203   1.603   5.659
77912SOL    HW235511   9.205   1.600   5.811
77913SOL     OW35512  14.233  14.858   0.153
77913SOL    HW135513  14.220  14.877   0.060
77913SOL    HW235514  14.197  14.770   0.164
77914SOL     OW35515   7.519  14.478   8.931
77914SOL    HW135516   7.460  14.551   8.950
77914SOL    HW235517   7.563  14.461   9.014
77915SOL     OW35518  11.297   7.205   8.093
77915SOL    HW135519  11.267   7.116   8.109
77915SOL    HW235520  11.358   7.223   8.165
77916SOL     OW35521  10.933   4.106   6.634
77916SOL    HW135522  10.920   4.160   6.556
77916SOL    HW235523  11.021   4.070   6.623
77917SOL     OW35524   4.166   4.196   2.898
77917SOL    HW135525   4.146   4.164   2.810
77917SOL    HW235526   4.082   4.227   2.932
77918SOL     OW35527   0.088   9.573   6.225
77918SOL    HW135528  14.871   9.589   6.224
77918SOL    HW235529   0.101   9.508   6.156
77919SOL     OW35530   6.313   2.296   0.286
77919SOL    HW135531   6.400   2.274   0.254
77919SOL    HW235532   6.324   2.310   0.380
77920SOL     OW35533   0.939   4.644   4.256
77920SOL    HW135534   0.848   4.664   4.236
77920SOL    HW235535   0.956   4.560   4.212
77921SOL     OW35536  13.751  10.769  13.299
77921SOL    HW135537  13.725  10.832  13.366
77921SOL    HW235538  13.828  10.808  13.259
77922SOL     OW35539   4.916  12.373   3.190
77922SOL    HW135540   4.848  12.307   3.199
77922SOL    HW235541   4.990  12.339   3.241
77923SOL     OW35542   8.617   0.580   1.591
77923SOL    HW135543   8.682   0.650   1.603
77923SOL    HW235544   8.669   0.500   1.589
77924SOL     OW35545   9.303  11.630  10.786
77924SOL    HW135546   9.249  11.569  10.837
77924SOL    HW235547   9.246  11.659  10.715
77925SOL     OW35548  12.440  10.498  14.206
77925SOL    HW135549  12.351  10.523  14.231
77925SOL    HW235550  12.428  10.420  14.151
77926SOL     OW35551   3.038   5.952   6.532
77926SOL    HW135552   3.030   5.911   6.618
77926SOL    HW235553   2.977   6.025   6.534
77927SOL     OW35554   7.577   1.584   9.671
77927SOL    HW135555   7.608   1.622   9.753
77927SOL    HW235556   7.656   1.572   9.619
77928SOL     OW35557   8.381   7.275   8.754
77928SOL    HW135558   8.453   7.279   8.816
77928SOL    HW235559   8.421   7.295   8.669
77929SOL     OW35560  13.866   8.311   9.190
77929SOL    HW135561  13.913   8.364   9.126
77929SOL    HW235562  13.883   8.354   9.274
77930SOL     OW35563  13.642   5.712   6.877
77930SOL    HW135564  13.655   5.640   6.939
77930SOL    HW235565  13.676   5.789   6.922
77931SOL     OW35566   8.134   4.592   5.034
77931SOL    HW135567   8.116   4.521   5.096
77931SOL    HW235568   8.230   4.600   5.034
77932SOL     OW35569   5.371   2.380   1.714
77932SOL    HW135570   5.311   2.442   1.756
77932SOL    HW235571   5.379   2.308   1.776
77933SOL     OW35572   5.996   5.947  13.470
77933SOL    HW135573   6.072   6.002  13.447
77933SOL    HW235574   5.923   5.987  13.423
77934SOL     OW35575   3.776  13.978   3.677
77934SOL    HW135576   3.817  13.997   3.761
77934SOL    HW235577   3.757  13.884   3.681
77935SOL     OW35578   0.453  13.218   6.691
77935SOL    HW135579   0.426  13.129   6.712
77935SOL    HW235580   0.488  13.253   6.773
77936SOL     OW35581   5.971   4.870   6.954
77936SOL    HW135582   6.051   4.921   6.961
77936SOL    HW235583   5.906   4.920   7.005
77937SOL     OW35584   6.595   9.757  10.708
77937SOL    HW135585   6.529   9.694  10.737
77937SOL    HW235586   6.661   9.704  10.663
77938SOL     OW35587   5.992   4.021   8.318
77938SOL    HW135588   6.057   4.027   8.249
77938SOL    HW235589   6.011   3.939   8.363
77939SOL     OW35590   1.167  12.395  11.975
77939SOL    HW135591   1.131  12.443  12.050
77939SOL    HW235592   1.252  12.362  12.006
77940SOL     OW35593   8.146   4.370  12.743
77940SOL    HW135594   8.169   4.357  12.835
77940SOL    HW235595   8.205   4.312  12.695
77941SOL     OW35596   2.619   3.049   9.908
77941SOL    HW135597   2.591   3.015   9.823
77941SOL    HW235598   2.538   3.073   9.952
77942SOL     OW35599  12.144  12.456   5.257
77942SOL    HW135600  12.171  12.530   5.311
77942SOL    HW235601  12.204  12.457   5.183
77943SOL     OW35602   8.939   7.832  10.686
77943SOL    HW135603   8.977   7.862  10.603
77943SOL    HW235604   8.869   7.772  10.661
77944SOL     OW35605   6.337   0.832  11.015
77944SOL    HW135606   6.271   0.808  10.951
77944SOL    HW235607   6.407   0.767  11.004
77945SOL     OW35608   9.839   6.087   4.613
77945SOL    HW135609   9.829   6.058   4.523
77945SOL    HW235610   9.916   6.040   4.646
77946SOL     OW35611   8.270   7.843   1.872
77946SOL    HW135612   8.230   7.917   1.918
77946SOL    HW235613   8.295   7.877   1.787
77947SOL     OW35614   6.831   8.870   8.252
77947SOL    HW135615   6.823   8.874   8.157
77947SOL    HW235616   6.924   8.860   8.268
77948SOL     OW35617  11.948   2.443   6.644
77948SOL    HW135618  12.023   2.482   6.600
77948SOL    HW235619  11.883   2.432   6.575
77949SOL     OW35620   2.230   6.658   9.325
77949SOL    HW135621   2.136   6.669   9.312
77949SOL    HW235622   2.238   6.586   9.387
77950SOL     OW35623  11.581   5.177  11.120
77950SOL    HW135624  11.629   5.249  11.079
77950SOL    HW235625  11.576   5.109  11.053
77951SOL     OW35626   7.240   1.384  13.817
77951SOL    HW135627   7.170   1.371  13.753
77951SOL    HW235628   7.243   1.302  13.867
77952SOL     OW35629   8.405   9.549   6.260
77952SOL    HW135630   8.354   9.513   6.188
77952SOL    HW235631   8.496   9.543   6.231
77953SOL     OW35632   9.866  11.351   4.180
77953SOL    HW135633   9.850  11.444   4.197
77953SOL    HW235634   9.901  11.318   4.263
77954SOL     OW35635   4.436   1.623   9.305
77954SOL    HW135636   4.454   1.611   9.212
77954SOL    HW235637   4.341   1.632   9.310
77955SOL     OW35638  14.185   3.365   6.989
77955SOL    HW135639  14.179   3.274   7.017
77955SOL    HW235640  14.276   3.376   6.962
77956SOL     OW35641  14.222  12.127   2.618
77956SOL    HW135642  14.264  12.082   2.545
77956SOL    HW235643  14.216  12.060   2.687
77957SOL     OW35644   3.647  11.989   4.833
77957SOL    HW135645   3.577  11.960   4.775
77957SOL    HW235646   3.706  12.038   4.777
77958SOL     OW35647   4.527   1.510   4.573
77958SOL    HW135648   4.579   1.439   4.610
77958SOL    HW235649   4.459   1.466   4.523
77959SOL     OW35650  10.869  13.898   4.944
77959SOL    HW135651  10.799  13.960   4.965
77959SOL    HW235652  10.825  13.822   4.906
77960SOL     OW35653   4.417  13.363   8.675
77960SOL    HW135654   4.372  13.345   8.757
77960SOL    HW235655   4.510  13.347   8.695
77961SOL     OW35656   5.512   1.379   7.471
77961SOL    HW135657   5.541   1.465   7.439
77961SOL    HW235658   5.499   1.328   7.391
77962SOL     OW35659  10.311   8.101   6.238
77962SOL    HW135660  10.259   8.069   6.165
77962SOL    HW235661  10.401   8.103   6.205
77963SOL     OW35662  14.502   7.048  12.351
77963SOL    HW135663  14.478   7.112  12.418
77963SOL    HW235664  14.459   7.080  12.271
77964SOL     OW35665   0.865   2.506   2.526
77964SOL    HW135666   0.798   2.573   2.513
77964SOL    HW235667   0.916   2.507   2.445
77965SOL     OW35668   3.344  13.648  14.508
77965SOL    HW135669   3.327  13.560  14.475
77965SOL    HW235670   3.259  13.690  14.509
77966SOL     OW35671  13.006   6.981   8.412
77966SOL    HW135672  12.990   7.076   8.416
77966SOL    HW235673  12.943   6.943   8.473
77967SOL     OW35674   2.133  14.739   8.164
77967SOL    HW135675   2.218  14.718   8.126
77967SOL    HW235676   2.112  14.663   8.218
77968SOL     OW35677   8.373   9.044  11.416
77968SOL    HW135678   8.280   9.023  11.429
77968SOL    HW235679   8.417   8.959  11.415
77969SOL     OW35680   0.156   1.395   1.335
77969SOL    HW135681   0.212   1.353   1.269
77969SOL    HW235682   0.200   1.478   1.355
77970SOL     OW35683   5.228  12.433   0.385
77970SOL    HW135684   5.149  12.411   0.434
77970SOL    HW235685   5.295  12.445   0.452
77971SOL     OW35686  11.696  11.391   2.226
77971SOL    HW135687  11.667  11.356   2.142
77971SOL    HW235688  11.782  11.351   2.241
77972SOL     OW35689   7.417  13.841   1.095
77972SOL    HW135690   7.426  13.845   1.190
77972SOL    HW235691   7.475  13.769   1.068
77973SOL     OW35692   1.947  12.400  10.360
77973SOL    HW135693   1.884  12.461  10.320
77973SOL    HW235694   1.952  12.327  10.299
77974SOL     OW35695   6.260   1.151   9.599
77974SOL    HW135696   6.292   1.063   9.579
77974SOL    HW235697   6.253   1.193   9.513
77975SOL     OW35698   5.325   9.634   8.979
77975SOL    HW135699   5.342   9.650   9.072
77975SOL    HW235700   5.229   9.627   8.973
77976SOL     OW35701  13.016   6.532   2.313
77976SOL    HW135702  13.094   6.490   2.276
77976SOL    HW235703  13.050   6.608   2.360
77977SOL     OW35704  11.713   1.130   0.201
77977SOL    HW135705  11.666   1.150   0.282
77977SOL    HW235706  11.801   1.163   0.216
77978SOL     OW35707  12.931   1.787   9.604
77978SOL    HW135708  12.945   1.722   9.535
77978SOL    HW235709  12.864   1.750   9.660
77979SOL     OW35710  14.392   7.729   1.080
77979SOL    HW135711  14.345   7.706   1.000
77979SOL    HW235712  14.470   7.674   1.078
77980SOL     OW35713   2.059  10.878  12.686
77980SOL    HW135714   1.971  10.882  12.724
77980SOL    HW235715   2.079  10.784  12.684
77981SOL     OW35716   0.571   1.069  11.522
77981SOL    HW135717   0.570   0.976  11.500
77981SOL    HW235718   0.663   1.094  11.514
77982SOL     OW35719   2.003   9.432   9.010
77982SOL    HW135720   2.054   9.401   9.086
77982SOL    HW235721   2.032   9.522   8.998
77983SOL     OW35722   4.842   9.654   3.239
77983SOL    HW135723   4.916   9.652   3.300
77983SOL    HW235724   4.807   9.565   3.241
77984SOL     OW35725   7.378   5.344  13.675
77984SOL    HW135726   7.345   5.402  13.743
77984SOL    HW235727   7.318   5.355  13.601
77985SOL     OW35728   1.613  11.102   8.701
77985SOL    HW135729   1.607  11.198   8.708
77985SOL    HW235730   1.528  11.070   8.729
77986SOL     OW35731   8.178  13.956   4.024
77986SOL    HW135732   8.249  13.901   4.057
77986SOL    HW235733   8.160  14.018   4.095
77987SOL     OW35734   2.279  10.478   8.942
77987SOL    HW135735   2.334  10.413   8.898
77987SOL    HW235736   2.330  10.559   8.938
77988SOL     OW35737   3.996   5.428   7.059
77988SOL    HW135738   4.064   5.465   7.115
77988SOL    HW235739   3.946   5.370   7.117
77989SOL     OW35740  14.530  13.142   1.369
77989SOL    HW135741  14.488  13.075   1.314
77989SOL    HW235742  14.475  13.146   1.447
77990SOL     OW35743   8.007   1.294   6.837
77990SOL    HW135744   8.083   1.244   6.864
77990SOL    HW235745   8.009   1.292   6.741
77991SOL     OW35746   4.050   6.000   9.987
77991SOL    HW135747   3.961   6.001   9.952
77991SOL    HW235748   4.106   6.014   9.911
77992SOL     OW35749   0.366   6.407  14.023
77992SOL    HW135750   0.272   6.416  14.034
77992SOL    HW235751   0.394   6.488  13.982
77993SOL     OW35752  11.026   1.328   2.077
77993SOL    HW135753  10.931   1.341   2.073
77993SOL    HW235754  11.041   1.248   2.027
77994SOL     OW35755   0.156   1.758   1.689
77994SOL    HW135756   0.079   1.804   1.725
77994SOL    HW235757   0.158   1.675   1.737
77995SOL     OW35758  12.542   2.056   3.636
77995SOL    HW135759  12.525   1.982   3.694
77995SOL    HW235760  12.516   2.024   3.549
77996SOL     OW35761   1.782  10.004  12.941
77996SOL    HW135762   1.724   9.932  12.965
77996SOL    HW235763   1.725  10.068  12.897
77997SOL     OW35764   3.624   8.238   1.697
77997SOL    HW135765   3.617   8.193   1.782
77997SOL    HW235766   3.611   8.330   1.718
77998SOL     OW35767   9.123  12.234   4.548
77998SOL    HW135768   9.203  12.285   4.560
77998SOL    HW235769   9.144  12.148   4.585
77999SOL     OW35770  14.261   4.877   6.723
77999SOL    HW135771  14.229   4.789   6.702
77999SOL    HW235772  14.256   4.925   6.640
78000SOL     OW35773   0.437  14.683  11.578
78000SOL    HW135774   0.495  14.757  11.559
78000SOL    HW235775   0.350  14.722  11.586
78001SOL     OW35776   6.029  12.644   9.444
78001SOL    HW135777   5.952  12.682   9.487
78001SOL    HW235778   5.992  12.582   9.381
78002SOL     OW35779   4.108  14.379   3.889
78002SOL    HW135780   4.035  14.441   3.893
78002SOL    HW235781   4.101  14.329   3.971
78003SOL     OW35782  11.347  12.932  10.662
78003SOL    HW135783  11.341  12.900  10.572
78003SOL    HW235784  11.268  12.899  10.704
78004SOL     OW35785  14.282   7.015  10.763
78004SOL    HW135786  14.234   7.028  10.845
78004SOL    HW235787  14.371   6.993  10.791
78005SOL     OW35788   2.062  13.511   6.564
78005SOL    HW135789   2.053  13.600   6.529
78005SOL    HW235790   1.974  13.487   6.591
78006SOL     OW35791  13.672   3.437   5.040
78006SOL    HW135792  13.646   3.351   5.008
78006SOL    HW235793  13.753   3.421   5.089
78007SOL     OW35794   5.347   6.399   2.243
78007SOL    HW135795   5.422   6.431   2.293
78007SOL    HW235796   5.290   6.476   2.234
78008SOL     OW35797   0.428  12.551   7.275
78008SOL    HW135798   0.332  12.557   7.277
78008SOL    HW235799   0.446  12.458   7.289
78009SOL     OW35800   2.642  11.693   4.474
78009SOL    HW135801   2.694  11.688   4.554
78009SOL    HW235802   2.559  11.732   4.501
78010SOL     OW35803  14.664  11.690   2.901
78010SOL    HW135804  14.747  11.731   2.928
78010SOL    HW235805  14.607  11.764   2.879
78011SOL     OW35806   7.948  10.562  12.444
78011SOL    HW135807   7.922  10.649  12.474
78011SOL    HW235808   7.983  10.518  12.522
78012SOL     OW35809  10.842  12.699  11.358
78012SOL    HW135810  10.934  12.676  11.349
78012SOL    HW235811  10.796  12.615  11.356
78013SOL     OW35812   7.628   8.063   8.698
78013SOL    HW135813   7.681   7.986   8.676
78013SOL    HW235814   7.540   8.028   8.710
78014SOL     OW35815   3.659   6.547   4.760
78014SOL    HW135816   3.607   6.486   4.813
78014SOL    HW235817   3.683   6.497   4.682
78015SOL     OW35818   9.501   7.306   4.327
78015SOL    HW135819   9.418   7.285   4.371
78015SOL    HW235820   9.480   7.304   4.233
78016SOL     OW35821  12.732  14.247   7.303
78016SOL    HW135822  12.646  14.234   7.344
78016SOL    HW235823  12.720  14.322   7.245
78017SOL     OW35824   2.144  14.780  10.010
78017SOL    HW135825   2.155  14.829  10.091
78017SOL    HW235826   2.129  14.848   9.943
78018SOL     OW35827   0.718   7.392   9.173
78018SOL    HW135828   0.702   7.461   9.109
78018SOL    HW235829   0.662   7.414   9.248
78019SOL     OW35830   7.061  13.122   1.887
78019SOL    HW135831   7.058  13.212   1.918
78019SOL    HW235832   7.021  13.125   1.800
78020SOL     OW35833  14.872  11.322   6.216
78020SOL    HW135834   0.044  11.384   6.270
78020SOL    HW235835  14.869  11.363   6.130
78021SOL     OW35836   3.342   0.277  11.993
78021SOL    HW135837   3.408   0.342  11.967
78021SOL    HW235838   3.259   0.325  11.990
78022SOL     OW35839   6.388  11.637   8.861
78022SOL    HW135840   6.373  11.679   8.776
78022SOL    HW235841   6.310  11.657   8.912
78023SOL     OW35842  13.499   8.230   7.337
78023SOL    HW135843  13.541   8.147   7.316
78023SOL    HW235844  13.570   8.288   7.363
78024SOL     OW35845  14.113   5.588  10.435
78024SOL    HW135846  14.089   5.676  10.405
78024SOL    HW235847  14.049   5.530  10.393
78025SOL     OW35848   8.441  13.119   6.909
78025SOL    HW135849   8.440  13.147   6.817
78025SOL    HW235850   8.349  13.115   6.934
78026SOL     OW35851   9.491  12.557   2.982
78026SOL    HW135852   9.476  12.607   3.062
78026SOL    HW235853   9.486  12.465   3.010
78027SOL     OW35854   4.104   8.608   0.988
78027SOL    HW135855   4.074   8.618   1.078
78027SOL    HW235856   4.086   8.692   0.947
78028SOL     OW35857   1.763   4.990  11.582
78028SOL    HW135858   1.757   4.947  11.667
78028SOL    HW235859   1.729   4.925  11.520
78029SOL     OW35860  13.747   5.985   5.066
78029SOL    HW135861  13.654   5.985   5.045
78029SOL    HW235862  13.754   6.036   5.147
78030SOL     OW35863   1.203  12.295   4.656
78030SOL    HW135864   1.265  12.362   4.687
78030SOL    HW235865   1.163  12.335   4.578
78031SOL     OW35866  10.716   6.709  14.310
78031SOL    HW135867  10.789   6.734  14.253
78031SOL    HW235868  10.644   6.692  14.250
78032SOL     OW35869   4.970   5.327   0.238
78032SOL    HW135870   5.054   5.318   0.283
78032SOL    HW235871   4.958   5.421   0.229
78033SOL     OW35872  10.310   7.927   1.275
78033SOL    HW135873  10.364   7.852   1.250
78033SOL    HW235874  10.326   7.939   1.368
78034SOL     OW35875  11.346   9.416  11.688
78034SOL    HW135876  11.383   9.461  11.612
78034SOL    HW235877  11.254   9.441  11.688
78035SOL     OW35878   1.810   2.600  10.113
78035SOL    HW135879   1.796   2.694  10.128
78035SOL    HW235880   1.775   2.585  10.025
78036SOL     OW35881   7.422   4.405   9.629
78036SOL    HW135882   7.399   4.334   9.690
78036SOL    HW235883   7.515   4.395   9.614
78037SOL     OW35884   8.931   3.619   6.850
78037SOL    HW135885   9.024   3.620   6.828
78037SOL    HW235886   8.888   3.655   6.772
78038SOL     OW35887   0.924   0.022   8.294
78038SOL    HW135888   0.842   0.038   8.246
78038SOL    HW235889   0.918  14.808   8.320
78039SOL     OW35890   3.578  11.833   9.584
78039SOL    HW135891   3.500  11.870   9.626
78039SOL    HW235892   3.552  11.820   9.493
78040SOL     OW35893   5.548   6.842  11.323
78040SOL    HW135894   5.542   6.747  11.333
78040SOL    HW235895   5.618   6.868  11.383
78041SOL     OW35896   7.252   3.422   6.371
78041SOL    HW135897   7.238   3.516   6.358
78041SOL    HW235898   7.231   3.382   6.286
78042SOL     OW35899  12.042   1.810   8.121
78042SOL    HW135900  12.088   1.789   8.202
78042SOL    HW235901  12.089   1.762   8.053
78043SOL     OW35902   7.317   7.938   7.002
78043SOL    HW135903   7.244   7.975   6.951
78043SOL    HW235904   7.336   8.004   7.068
78044SOL     OW35905   6.550  13.156  10.464
78044SOL    HW135906   6.513  13.162  10.375
78044SOL    HW235907   6.643  13.175  10.452
78045SOL     OW35908   1.631  12.261  14.471
78045SOL    HW135909   1.694  12.214  14.526
78045SOL    HW235910   1.621  12.346  14.513
78046SOL     OW35911   0.066  11.849   6.108
78046SOL    HW135912  14.861  11.878   6.145
78046SOL    HW235913   0.103  11.927   6.066
78047SOL     OW35914   7.745   8.052   5.526
78047SOL    HW135915   7.688   8.061   5.450
78047SOL    HW235916   7.810   8.122   5.517
78048SOL     OW35917   5.916   3.492   4.319
78048SOL    HW135918   5.860   3.540   4.258
78048SOL    HW235919   5.902   3.534   4.404
78049SOL     OW35920   2.819  10.896   1.248
78049SOL    HW135921   2.773  10.955   1.189
78049SOL    HW235922   2.785  10.917   1.335
78050SOL     OW35923   8.716  10.439   2.902
78050SOL    HW135924   8.726  10.401   2.990
78050SOL    HW235925   8.626  10.418   2.877
78051SOL     OW35926   5.612   9.098   3.974
78051SOL    HW135927   5.552   9.171   3.990
78051SOL    HW235928   5.631   9.102   3.881
78052SOL     OW35929   8.923  10.523   0.095
78052SOL    HW135930   8.904  10.528   0.189
78052SOL    HW235931   9.001  10.468   0.089
78053SOL     OW35932   4.377   0.977  12.080
78053SOL    HW135933   4.388   0.882  12.075
78053SOL    HW235934   4.282   0.991  12.077
78054SOL     OW35935   1.100   8.260   6.847
78054SOL    HW135936   1.105   8.176   6.801
78054SOL    HW235937   1.161   8.317   6.800
78055SOL     OW35938  11.134  12.649   8.681
78055SOL    HW135939  11.162  12.740   8.694
78055SOL    HW235940  11.047  12.657   8.640
78056SOL     OW35941   3.807   2.982   5.061
78056SOL    HW135942   3.888   2.954   5.020
78056SOL    HW235943   3.739   2.963   4.997
78057SOL     OW35944  14.862   9.323   4.975
78057SOL    HW135945  14.807   9.294   4.903
78057SOL    HW235946   0.059   9.264   4.973
78058SOL     OW35947  14.869  12.341   5.763
78058SOL    HW135948   0.078  12.355   5.724
78058SOL    HW235949  14.849  12.250   5.746
78059SOL     OW35950   9.223   5.399   0.676
78059SOL    HW135951   9.295   5.419   0.736
78059SOL    HW235952   9.209   5.480   0.628
78060SOL     OW35953  11.204   5.408   8.888
78060SOL    HW135954  11.128   5.419   8.831
78060SOL    HW235955  11.167   5.400   8.976
78061SOL     OW35956   5.954  11.211  11.707
78061SOL    HW135957   6.050  11.208  11.701
78061SOL    HW235958   5.924  11.216  11.617
78062SOL     OW35959  12.252   2.964  10.687
78062SOL    HW135960  12.304   2.923  10.756
78062SOL    HW235961  12.204   3.034  10.732
78063SOL     OW35962  11.864  10.786   5.323
78063SOL    HW135963  11.926  10.836   5.271
78063SOL    HW235964  11.808  10.742   5.259
78064SOL     OW35965   1.361   4.729   1.027
78064SOL    HW135966   1.296   4.780   0.979
78064SOL    HW235967   1.312   4.684   1.095
78065SOL     OW35968   4.613   4.393  13.728
78065SOL    HW135969   4.640   4.324  13.788
78065SOL    HW235970   4.562   4.454  13.781
78066SOL     OW35971   0.751   8.228   2.804
78066SOL    HW135972   0.747   8.183   2.888
78066SOL    HW235973   0.694   8.304   2.814
78067SOL     OW35974   4.314   2.411   2.921
78067SOL    HW135975   4.320   2.392   3.014
78067SOL    HW235976   4.282   2.330   2.881
78068SOL     OW35977   9.353   4.073   4.671
78068SOL    HW135978   9.266   4.035   4.659
78068SOL    HW235979   9.395   4.017   4.736
78069SOL     OW35980   2.631   6.032  14.113
78069SOL    HW135981   2.694   6.056  14.181
78069SOL    HW235982   2.559   5.990  14.159
78070SOL     OW35983   1.544   7.439   5.371
78070SOL    HW135984   1.638   7.455   5.383
78070SOL    HW235985   1.535   7.344   5.371
78071SOL     OW35986   7.437   0.047   6.255
78071SOL    HW135987   7.443   0.006   6.342
78071SOL    HW235988   7.528   0.047   6.223
78072SOL     OW35989   1.352   9.208  11.604
78072SOL    HW135990   1.440   9.245  11.603
78072SOL    HW235991   1.333   9.189  11.512
78073SOL     OW35992  12.338   6.818   0.049
78073SOL    HW135993  12.404   6.855  14.868
78073SOL    HW235994  12.386   6.797   0.129
78074SOL     OW35995  10.532  10.515  10.314
78074SOL    HW135996  10.601  10.568  10.273
78074SOL    HW235997  10.496  10.463  10.242
78075SOL     OW35998  11.733   1.488   4.762
78075SOL    HW135999  11.757   1.531   4.844
78075SOL    HW236000  11.639   1.502   4.755
78076SOL     OW36001  13.180  11.312   6.850
78076SOL    HW136002  13.192  11.400   6.887
78076SOL    HW236003  13.086  11.298   6.852
78077SOL     OW36004  13.570   2.209   5.069
78077SOL    HW136005  13.584   2.260   4.990
78077SOL    HW236006  13.590   2.119   5.044
78078SOL     OW36007   9.987  12.303   8.995
78078SOL    HW136008   9.975  12.223   8.944
78078SOL    HW236009  10.014  12.369   8.931
78079SOL     OW36010   1.806  10.433  10.610
78079SOL    HW136011   1.807  10.446  10.705
78079SOL    HW236012   1.753  10.504  10.576
78080SOL     OW36013   1.341   8.627   3.365
78080SOL    HW136014   1.256   8.610   3.325
78080SOL    HW236015   1.345   8.567   3.439
78081SOL     OW36016   7.508  10.080  11.101
78081SOL    HW136017   7.428  10.127  11.078
78081SOL    HW236018   7.496  10.056  11.193
78082SOL     OW36019  11.682   2.730  14.228
78082SOL    HW136020  11.693   2.658  14.166
78082SOL    HW236021  11.639   2.799  14.176
78083SOL     OW36022  12.459   2.718   7.977
78083SOL    HW136023  12.522   2.790   7.973
78083SOL    HW236024  12.494   2.653   7.916
78084SOL     OW36025   5.702   0.763   7.067
78084SOL    HW136026   5.788   0.804   7.071
78084SOL    HW236027   5.647   0.828   7.022
78085SOL     OW36028   4.225   9.898  10.827
78085SOL    HW136029   4.211   9.930  10.916
78085SOL    HW236030   4.319   9.880  10.823
78086SOL     OW36031  14.510   5.576   4.486
78086SOL    HW136032  14.570   5.650   4.476
78086SOL    HW236033  14.477   5.584   4.576
78087SOL     OW36034   0.524   9.775   0.370
78087SOL    HW136035   0.452   9.720   0.339
78087SOL    HW236036   0.594   9.713   0.390
78088SOL     OW36037   9.472   2.405   3.801
78088SOL    HW136038   9.476   2.486   3.750
78088SOL    HW236039   9.548   2.355   3.773
78089SOL     OW36040   5.451  10.373   5.321
78089SOL    HW136041   5.468  10.458   5.280
78089SOL    HW236042   5.536  10.347   5.356
78090SOL     OW36043   8.587   4.297   1.392
78090SOL    HW136044   8.586   4.343   1.476
78090SOL    HW236045   8.618   4.209   1.413
78091SOL     OW36046  10.116  10.018   1.142
78091SOL    HW136047  10.036  10.050   1.183
78091SOL    HW236048  10.151  10.093   1.095
78092SOL     OW36049  12.591  12.968  11.961
78092SOL    HW136050  12.661  13.033  11.972
78092SOL    HW236051  12.590  12.920  12.044
78093SOL     OW36052   2.412   7.664   8.754
78093SOL    HW136053   2.438   7.662   8.846
78093SOL    HW236054   2.482   7.713   8.711
78094SOL     OW36055  10.913   7.735   8.889
78094SOL    HW136056  10.997   7.775   8.910
78094SOL    HW236057  10.903   7.747   8.794
78095SOL     OW36058   6.462  13.710   2.470
78095SOL    HW136059   6.401  13.701   2.397
78095SOL    HW236060   6.418  13.667   2.544
78096SOL     OW36061   0.946   7.675   3.309
78096SOL    HW136062   0.940   7.594   3.359
78096SOL    HW236063   0.869   7.726   3.337
78097SOL     OW36064   0.832   2.033  14.555
78097SOL    HW136065   0.846   1.967  14.487
78097SOL    HW236066   0.810   1.983  14.633
78098SOL     OW36067   4.967   6.940  11.750
78098SOL    HW136068   4.943   7.028  11.780
78098SOL    HW236069   5.036   6.911  11.810
78099SOL     OW36070   7.637   2.321   4.157
78099SOL    HW136071   7.676   2.250   4.107
78099SOL    HW236072   7.666   2.401   4.112
78100SOL     OW36073   9.923   2.738  11.871
78100SOL    HW136074   9.873   2.791  11.809
78100SOL    HW236075   9.920   2.787  11.953
78101SOL     OW36076   6.655   5.174  13.117
78101SOL    HW136077   6.645   5.248  13.177
78101SOL    HW236078   6.735   5.131  13.145
78102SOL     OW36079   0.594  10.864   6.585
78102SOL    HW136080   0.596  10.772   6.557
78102SOL    HW236081   0.648  10.867   6.663
78103SOL     OW36082   0.695   5.740   9.789
78103SOL    HW136083   0.693   5.678   9.861
78103SOL    HW236084   0.784   5.775   9.789
78104SOL     OW36085  13.294  14.717   7.606
78104SOL    HW136086  13.350  14.651   7.564
78104SOL    HW236087  13.212  14.713   7.558
78105SOL     OW36088   9.918  13.265  14.679
78105SOL    HW136089   9.844  13.248  14.738
78105SOL    HW236090   9.986  13.205  14.709
78106SOL     OW36091   4.405  10.093   5.912
78106SOL    HW136092   4.315  10.121   5.930
78106SOL    HW236093   4.456  10.174   5.917
78107SOL     OW36094   7.707   4.875   6.751
78107SOL    HW136095   7.616   4.844   6.752
78107SOL    HW236096   7.704   4.956   6.803
78108SOL     OW36097   6.233   9.922   9.763
78108SOL    HW136098   6.322   9.889   9.753
78108SOL    HW236099   6.244  10.009   9.801
78109SOL     OW36100  13.919   7.426  14.787
78109SOL    HW136101  13.917   7.411  14.693
78109SOL    HW236102  13.886   7.515  14.798
78110SOL     OW36103  12.944  10.605   9.702
78110SOL    HW136104  13.005  10.530   9.706
78110SOL    HW236105  12.965  10.648   9.620
78111SOL     OW36106  11.031   7.900   4.557
78111SOL    HW136107  10.948   7.875   4.515
78111SOL    HW236108  11.022   7.868   4.647
78112SOL     OW36109   1.132   8.668  14.533
78112SOL    HW136110   1.121   8.574  14.546
78112SOL    HW236111   1.152   8.677  14.440
78113SOL     OW36112   4.989  12.297  13.975
78113SOL    HW136113   5.027  12.258  14.053
78113SOL    HW236114   4.959  12.223  13.923
78114SOL     OW36115   1.220  12.118  12.584
78114SOL    HW136116   1.280  12.075  12.644
78114SOL    HW236117   1.230  12.211  12.602
78115SOL     OW36118   3.713   5.211  13.197
78115SOL    HW136119   3.645   5.259  13.149
78115SOL    HW236120   3.773   5.181  13.128
78116SOL     OW36121   7.460   2.552  10.783
78116SOL    HW136122   7.506   2.473  10.756
78116SOL    HW236123   7.413   2.581  10.705
78117SOL     OW36124  10.324  12.598   2.526
78117SOL    HW136125  10.279  12.569   2.447
78117SOL    HW236126  10.357  12.686   2.505
78118SOL     OW36127  14.029   4.671   9.289
78118SOL    HW136128  14.097   4.708   9.345
78118SOL    HW236129  14.058   4.689   9.200
78119SOL     OW36130   0.182  12.688   1.456
78119SOL    HW136131   0.205  12.735   1.536
78119SOL    HW236132   0.186  12.754   1.387
78120SOL     OW36133   4.123   8.264   3.261
78120SOL    HW136134   4.115   8.358   3.281
78120SOL    HW236135   4.208   8.240   3.298
78121SOL     OW36136  10.014   8.545  12.388
78121SOL    HW136137  10.037   8.560  12.296
78121SOL    HW236138  10.098   8.546  12.434
78122SOL     OW36139   3.442   4.178  13.493
78122SOL    HW136140   3.496   4.248  13.529
78122SOL    HW236141   3.444   4.110  13.560
78123SOL     OW36142   2.964  12.775  13.892
78123SOL    HW136143   2.884  12.811  13.854
78123SOL    HW236144   3.034  12.808  13.835
78124SOL     OW36145  12.968  12.353   9.995
78124SOL    HW136146  13.046  12.358   9.941
78124SOL    HW236147  12.897  12.379   9.936
78125SOL     OW36148  10.053   5.234   3.219
78125SOL    HW136149  10.144   5.253   3.197
78125SOL    HW236150  10.021   5.313   3.261
78126SOL     OW36151   4.611  13.695   7.155
78126SOL    HW136152   4.703  13.674   7.138
78126SOL    HW236153   4.596  13.663   7.244
78127SOL     OW36154  14.042   4.518   9.539
78127SOL    HW136155  14.071   4.430   9.516
78127SOL    HW236156  14.000   4.551   9.459
78128SOL     OW36157   8.609  13.963   3.489
78128SOL    HW136158   8.643  13.874   3.494
78128SOL    HW236159   8.569  13.968   3.401
78129SOL     OW36160   7.510  13.544  13.874
78129SOL    HW136161   7.514  13.454  13.907
78129SOL    HW236162   7.564  13.542  13.795
78130SOL     OW36163   4.861  10.845   9.884
78130SOL    HW136164   4.765  10.854   9.884
78130SOL    HW236165   4.891  10.907   9.819
78131SOL     OW36166  14.785  14.622   0.640
78131SOL    HW136167  14.702  14.652   0.675
78131SOL    HW236168  14.843  14.698   0.645
78132SOL     OW36169  12.240  11.959   7.781
78132SOL    HW136170  12.148  11.954   7.809
78132SOL    HW236171  12.238  11.935   7.689
78133SOL     OW36172   1.519  10.675   5.573
78133SOL    HW136173   1.521  10.660   5.668
78133SOL    HW236174   1.512  10.587   5.535
78134SOL     OW36175   7.318  11.556   7.466
78134SOL    HW136176   7.272  11.481   7.504
78134SOL    HW236177   7.264  11.631   7.489
78135SOL     OW36178  10.298   3.763  10.757
78135SOL    HW136179  10.312   3.682  10.708
78135SOL    HW236180  10.220   3.744  10.811
78136SOL     OW36181   9.103   5.069   3.204
78136SOL    HW136182   9.015   5.070   3.167
78136SOL    HW236183   9.111   4.982   3.243
78137SOL     OW36184   1.518   5.688   7.487
78137SOL    HW136185   1.589   5.704   7.549
78137SOL    HW236186   1.483   5.775   7.467
78138SOL     OW36187  13.114  12.442   2.479
78138SOL    HW136188  13.165  12.420   2.401
78138SOL    HW236189  13.075  12.527   2.459
78139SOL     OW36190   6.521  11.263   7.933
78139SOL    HW136191   6.554  11.240   8.020
78139SOL    HW236192   6.427  11.272   7.944
78140SOL     OW36193  11.094   4.872  10.060
78140SOL    HW136194  11.169   4.918  10.024
78140SOL    HW236195  11.060   4.820   9.988
78141SOL     OW36196   0.173   4.882  12.864
78141SOL    HW136197   0.152   4.863  12.955
78141SOL    HW236198   0.225   4.807  12.835
78142SOL     OW36199   5.578   9.089   2.683
78142SOL    HW136200   5.660   9.087   2.635
78142SOL    HW236201   5.540   9.002   2.670
78143SOL     OW36202   7.433   4.321  10.406
78143SOL    HW136203   7.353   4.275  10.432
78143SOL    HW236204   7.403   4.400  10.362
78144SOL     OW36205  11.317   6.214   2.159
78144SOL    HW136206  11.339   6.206   2.066
78144SOL    HW236207  11.401   6.212   2.204
78145SOL     OW36208   9.078  12.115   1.504
78145SOL    HW136209   9.088  12.210   1.499
78145SOL    HW236210   8.989  12.098   1.473
78146SOL     OW36211   8.775  10.104   8.124
78146SOL    HW136212   8.841  10.073   8.186
78146SOL    HW236213   8.767  10.198   8.142
78147SOL     OW36214  10.727   3.655  11.126
78147SOL    HW136215  10.785   3.676  11.053
78147SOL    HW236216  10.639   3.676  11.094
78148SOL     OW36217   0.766   3.145   3.019
78148SOL    HW136218   0.714   3.132   2.939
78148SOL    HW236219   0.854   3.163   2.987
78149SOL     OW36220  11.145   6.129   8.261
78149SOL    HW136221  11.066   6.156   8.308
78149SOL    HW236222  11.130   6.037   8.241
78150SOL     OW36223   0.912   6.552   1.690
78150SOL    HW136224   0.853   6.520   1.758
78150SOL    HW236225   0.880   6.512   1.609
78151SOL     OW36226   4.583   0.681   8.964
78151SOL    HW136227   4.537   0.598   8.976
78151SOL    HW236228   4.617   0.702   9.051
78152SOL     OW36229   2.797   7.488   2.237
78152SOL    HW136230   2.844   7.540   2.302
78152SOL    HW236231   2.739   7.550   2.194
78153SOL     OW36232  10.023   7.807   0.082
78153SOL    HW136233  10.044   7.714   0.078
78153SOL    HW236234  10.094   7.850   0.035
78154SOL     OW36235   6.487   2.471   5.859
78154SOL    HW136236   6.523   2.552   5.895
78154SOL    HW236237   6.409   2.454   5.912
78155SOL     OW36238  11.306   0.492  13.892
78155SOL    HW136239  11.339   0.565  13.945
78155SOL    HW236240  11.277   0.532  13.811
78156SOL     OW36241  12.499   4.691   8.156
78156SOL    HW136242  12.497   4.765   8.095
78156SOL    HW236243  12.433   4.712   8.222
78157SOL     OW36244   5.662  13.625  12.665
78157SOL    HW136245   5.728  13.669  12.611
78157SOL    HW236246   5.590  13.608  12.604
78158SOL     OW36247  12.074   8.203   1.432
78158SOL    HW136248  12.026   8.210   1.350
78158SOL    HW236249  12.023   8.143   1.485
78159SOL     OW36250   9.045   3.202   6.187
78159SOL    HW136251   9.010   3.291   6.177
78159SOL    HW236252   8.969   3.149   6.209
78160SOL     OW36253   6.520   5.578   0.247
78160SOL    HW136254   6.547   5.500   0.200
78160SOL    HW236255   6.600   5.630   0.255
78161SOL     OW36256  12.058  11.386   0.707
78161SOL    HW136257  12.071  11.291   0.707
78161SOL    HW236258  11.984  11.400   0.766
78162SOL     OW36259   7.349   7.456  13.361
78162SOL    HW136260   7.257   7.439  13.340
78162SOL    HW236261   7.356   7.439  13.455
78163SOL     OW36262   3.704   1.082   7.411
78163SOL    HW136263   3.612   1.108   7.411
78163SOL    HW236264   3.713   1.027   7.332
78164SOL     OW36265   5.954   4.399  13.797
78164SOL    HW136266   5.909   4.481  13.777
78164SOL    HW236267   5.996   4.414  13.882
78165SOL     OW36268   0.972   6.733  10.896
78165SOL    HW136269   0.886   6.744  10.937
78165SOL    HW236270   0.960   6.768  10.807
78166SOL     OW36271   8.290   1.928  10.962
78166SOL    HW136272   8.374   1.891  10.936
78166SOL    HW236273   8.294   1.933  11.057
78167SOL     OW36274  14.532   0.102   3.545
78167SOL    HW136275  14.447   0.126   3.580
78167SOL    HW236276  14.562   0.030   3.601
78168SOL     OW36277   7.130   3.340  12.782
78168SOL    HW136278   7.079   3.378  12.854
78168SOL    HW236279   7.111   3.247  12.787
78169SOL     OW36280   7.477   4.784   2.866
78169SOL    HW136281   7.457   4.819   2.779
78169SOL    HW236282   7.397   4.738   2.892
78170SOL     OW36283  13.309  13.505   2.164
78170SOL    HW136284  13.283  13.417   2.190
78170SOL    HW236285  13.259  13.523   2.085
78171SOL     OW36286   1.027   1.263   5.223
78171SOL    HW136287   1.033   1.322   5.297
78171SOL    HW236288   0.978   1.311   5.157
78172SOL     OW36289   6.098   7.345   4.363
78172SOL    HW136290   6.174   7.287   4.371
78172SOL    HW236291   6.079   7.346   4.269
78173SOL     OW36292   9.340  12.163   2.369
78173SOL    HW136293   9.435  12.174   2.380
78173SOL    HW236294   9.302  12.210   2.443
78174SOL     OW36295   7.234  14.678   0.729
78174SOL    HW136296   7.302  14.656   0.792
78174SOL    HW236297   7.264  14.640   0.646
78175SOL     OW36298   3.213   3.700   4.923
78175SOL    HW136299   3.202   3.715   4.829
78175SOL    HW236300   3.160   3.623   4.941
78176SOL     OW36301  10.244  12.404   0.457
78176SOL    HW136302  10.149  12.392   0.458
78176SOL    HW236303  10.258  12.486   0.409
78177SOL     OW36304  12.618   2.629   9.644
78177SOL    HW136305  12.550   2.564   9.627
78177SOL    HW236306  12.652   2.606   9.730
78178SOL     OW36307   7.708  11.573   3.370
78178SOL    HW136308   7.751  11.639   3.426
78178SOL    HW236309   7.753  11.492   3.392
78179SOL     OW36310   5.776   0.918   0.663
78179SOL    HW136311   5.683   0.926   0.683
78179SOL    HW236312   5.788   0.973   0.586
78180SOL     OW36313   7.609   7.697  11.596
78180SOL    HW136314   7.548   7.667  11.664
78180SOL    HW236315   7.554   7.747  11.536
78181SOL     OW36316   0.575   8.011   2.258
78181SOL    HW136317   0.605   8.088   2.306
78181SOL    HW236318   0.518   7.965   2.319
78182SOL     OW36319   1.637   1.418   3.948
78182SOL    HW136320   1.542   1.430   3.954
78182SOL    HW236321   1.670   1.452   4.031
78183SOL     OW36322   7.302   9.335   5.377
78183SOL    HW136323   7.255   9.398   5.323
78183SOL    HW236324   7.329   9.267   5.316
78184SOL     OW36325   3.985   1.556   3.626
78184SOL    HW136326   3.994   1.567   3.532
78184SOL    HW236327   3.996   1.461   3.640
78185SOL     OW36328  11.489   7.419   4.681
78185SOL    HW136329  11.395   7.409   4.670
78185SOL    HW236330  11.499   7.483   4.752
78186SOL     OW36331   6.016   2.332  11.602
78186SOL    HW136332   6.105   2.356  11.628
78186SOL    HW236333   5.959   2.391  11.652
78187SOL     OW36334   6.258  10.199  10.713
78187SOL    HW136335   6.190  10.132  10.702
78187SOL    HW236336   6.284  10.192  10.804
78188SOL     OW36337   0.298   3.344  10.975
78188SOL    HW136338   0.204   3.330  10.967
78188SOL    HW236339   0.320   3.313  11.063
78189SOL     OW36340   6.423   4.182   8.298
78189SOL    HW136341   6.417   4.272   8.264
78189SOL    HW236342   6.498   4.184   8.357
78190SOL     OW36343  12.153   1.451   0.281
78190SOL    HW136344  12.128   1.544   0.277
78190SOL    HW236345  12.172   1.427   0.191
78191SOL     OW36346   0.484   3.408   8.980
78191SOL    HW136347   0.500   3.488   9.030
78191SOL    HW236348   0.486   3.338   9.046
78192SOL     OW36349   7.877   2.935   7.557
78192SOL    HW136350   7.873   2.839   7.556
78192SOL    HW236351   7.795   2.962   7.599
78193SOL     OW36352   6.344   0.532   9.129
78193SOL    HW136353   6.315   0.444   9.109
78193SOL    HW236354   6.440   0.528   9.122
78194SOL     OW36355  11.331  14.818   2.793
78194SOL    HW136356  11.357  14.868   2.870
78194SOL    HW236357  11.252  14.772   2.821
78195SOL     OW36358   7.844   2.107  12.775
78195SOL    HW136359   7.907   2.042  12.743
78195SOL    HW236360   7.897   2.181  12.805
78196SOL     OW36361   0.003   7.173  11.217
78196SOL    HW136362  14.866   7.264  11.240
78196SOL    HW236363   0.055   7.138  11.290
78197SOL     OW36364  11.665   6.834  11.478
78197SOL    HW136365  11.630   6.918  11.448
78197SOL    HW236366  11.589   6.775  11.477
78198SOL     OW36367   9.537  12.144   5.935
78198SOL    HW136368   9.599  12.212   5.906
78198SOL    HW236369   9.480  12.189   5.997
78199SOL     OW36370  13.930   4.932   3.108
78199SOL    HW136371  13.910   4.898   3.021
78199SOL    HW236372  13.908   5.026   3.103
78200SOL     OW36373  11.931   6.267   7.111
78200SOL    HW136374  11.921   6.187   7.163
78200SOL    HW236375  11.842   6.302   7.105
78201SOL     OW36376   4.743  11.979   7.067
78201SOL    HW136377   4.655  11.986   7.104
78201SOL    HW236378   4.731  11.995   6.974
78202SOL     OW36379  11.007   7.506   0.278
78202SOL    HW136380  10.957   7.573   0.231
78202SOL    HW236381  11.084   7.490   0.223
78203SOL     OW36382   4.483   3.805   6.794
78203SOL    HW136383   4.405   3.834   6.842
78203SOL    HW236384   4.544   3.878   6.802
78204SOL     OW36385  13.887  13.320   5.178
78204SOL    HW136386  13.794  13.305   5.161
78204SOL    HW236387  13.912  13.248   5.236
78205SOL     OW36388   6.290   7.212  10.813
78205SOL    HW136389   6.332   7.232  10.896
78205SOL    HW236390   6.337   7.136  10.780
78206SOL     OW36391   4.870  10.937   4.224
78206SOL    HW136392   4.964  10.944   4.212
78206SOL    HW236393   4.854  10.843   4.234
78207SOL     OW36394   8.355  10.886   3.072
78207SOL    HW136395   8.434  10.834   3.058
78207SOL    HW236396   8.344  10.936   2.991
78208SOL     OW36397   7.469  10.254   7.767
78208SOL    HW136398   7.525  10.231   7.841
78208SOL    HW236399   7.525  10.307   7.710
78209SOL     OW36400  12.514   1.241   1.652
78209SOL    HW136401  12.500   1.168   1.712
78209SOL    HW236402  12.451   1.307   1.679
78210SOL     OW36403   0.675  14.449   4.453
78210SOL    HW136404   0.593  14.458   4.404
78210SOL    HW236405   0.741  14.484   4.394
78211SOL     OW36406   5.617   2.192  12.198
78211SOL    HW136407   5.675   2.173  12.124
78211SOL    HW236408   5.553   2.121  12.198
78212SOL     OW36409  11.071   1.136  10.031
78212SOL    HW136410  11.080   1.183  10.114
78212SOL    HW236411  11.132   1.181   9.972
78213SOL     OW36412   5.529   9.971   5.524
78213SOL    HW136413   5.564  10.060   5.520
78213SOL    HW236414   5.490   9.957   5.438
78214SOL     OW36415   6.350   3.862   9.847
78214SOL    HW136416   6.429   3.809   9.839
78214SOL    HW236417   6.356   3.902   9.933
78215SOL     OW36418  14.665   9.221   2.131
78215SOL    HW136419  14.668   9.208   2.226
78215SOL    HW236420  14.748   9.186   2.099
78216SOL     OW36421  14.126   3.965  14.136
78216SOL    HW136422  14.056   3.909  14.103
78216SOL    HW236423  14.134   4.035  14.072
78217SOL     OW36424   7.784  12.811  13.391
78217SOL    HW136425   7.843  12.876  13.352
78217SOL    HW236426   7.836  12.731  13.394
78218SOL     OW36427   1.055  13.201  13.297
78218SOL    HW136428   1.093  13.125  13.342
78218SOL    HW236429   1.126  13.236  13.245
78219SOL     OW36430   2.134   5.886   0.416
78219SOL    HW136431   2.082   5.807   0.396
78219SOL    HW236432   2.215   5.874   0.367
78220SOL     OW36433   4.810   4.840   9.279
78220SOL    HW136434   4.843   4.885   9.201
78220SOL    HW236435   4.715   4.843   9.269
78221SOL     OW36436  14.400  10.240   7.430
78221SOL    HW136437  14.332  10.212   7.492
78221SOL    HW236438  14.480  10.197   7.461
78222SOL     OW36439   1.585   7.739   1.165
78222SOL    HW136440   1.578   7.651   1.128
78222SOL    HW236441   1.675   7.743   1.199
78223SOL     OW36442   8.102   3.666   0.280
78223SOL    HW136443   8.141   3.750   0.305
78223SOL    HW236444   8.165   3.628   0.219
78224SOL     OW36445  13.433   9.615  12.592
78224SOL    HW136446  13.413   9.535  12.543
78224SOL    HW236447  13.348   9.658  12.603
78225SOL     OW36448  13.659  10.097   0.646
78225SOL    HW136449  13.603  10.150   0.702
78225SOL    HW236450  13.630  10.007   0.661
78226SOL     OW36451   0.580   0.962   8.830
78226SOL    HW136452   0.537   0.921   8.755
78226SOL    HW236453   0.673   0.958   8.810
78227SOL     OW36454  11.110   1.207  13.765
78227SOL    HW136455  11.058   1.131  13.737
78227SOL    HW236456  11.143   1.183  13.852
78228SOL     OW36457  14.099   5.565   6.490
78228SOL    HW136458  14.191   5.573   6.513
78228SOL    HW236459  14.053   5.619   6.554
78229SOL     OW36460  14.410  10.890   8.468
78229SOL    HW136461  14.475  10.830   8.506
78229SOL    HW236462  14.428  10.974   8.510
78230SOL     OW36463  10.262   1.452   4.669
78230SOL    HW136464  10.315   1.492   4.600
78230SOL    HW236465  10.324   1.399   4.719
78231SOL     OW36466  12.738  12.194  11.253
78231SOL    HW136467  12.824  12.187  11.213
78231SOL    HW236468  12.677  12.183  11.180
78232SOL     OW36469  10.851  12.272   1.983
78232SOL    HW136470  10.850  12.199   1.921
78232SOL    HW236471  10.908  12.242   2.054
78233SOL     OW36472   4.890  11.611   3.131
78233SOL    HW136473   4.878  11.592   3.224
78233SOL    HW236474   4.848  11.538   3.086
78234SOL     OW36475   2.355   3.693   0.352
78234SOL    HW136476   2.396   3.758   0.409
78234SOL    HW236477   2.424   3.629   0.335
78235SOL     OW36478   7.559  11.306  11.446
78235SOL    HW136479   7.510  11.354  11.513
78235SOL    HW236480   7.495  11.245  11.409
78236SOL     OW36481   2.447  11.034  13.533
78236SOL    HW136482   2.407  10.972  13.594
78236SOL    HW236483   2.399  11.116  13.546
78237SOL     OW36484   5.004   5.124   0.044
78237SOL    HW136485   4.979   5.037   0.074
78237SOL    HW236486   5.001   5.178   0.123
78238SOL     OW36487  13.545   2.244   5.826
78238SOL    HW136488  13.488   2.318   5.805
78238SOL    HW236489  13.633   2.280   5.824
78239SOL     OW36490  10.169   5.327  14.448
78239SOL    HW136491  10.211   5.257  14.497
78239SOL    HW236492  10.124   5.379  14.515
78240SOL     OW36493  10.206   5.111   7.593
78240SOL    HW136494  10.154   5.032   7.603
78240SOL    HW236495  10.292   5.080   7.563
78241SOL     OW36496   2.785  11.116   0.477
78241SOL    HW136497   2.745  11.201   0.497
78241SOL    HW236498   2.866  11.139   0.432
78242SOL     OW36499   6.587   3.574  11.060
78242SOL    HW136500   6.495   3.600  11.071
78242SOL    HW236501   6.616   3.623  10.983
78243SOL     OW36502   1.399   0.976   4.588
78243SOL    HW136503   1.363   1.006   4.504
78243SOL    HW236504   1.322   0.951   4.639
78244SOL     OW36505   2.060   1.251   1.934
78244SOL    HW136506   1.969   1.226   1.915
78244SOL    HW236507   2.056   1.291   2.021
78245SOL     OW36508   2.991  12.589  10.782
78245SOL    HW136509   2.969  12.682  10.789
78245SOL    HW236510   2.906  12.544  10.782
78246SOL     OW36511   2.376   6.087   9.277
78246SOL    HW136512   2.334   6.172   9.286
78246SOL    HW236513   2.367   6.046   9.363
78247SOL     OW36514  13.790   5.203  14.340
78247SOL    HW136515  13.814   5.133  14.400
78247SOL    HW236516  13.804   5.166  14.253
78248SOL     OW36517  11.748  14.150   7.048
78248SOL    HW136518  11.800  14.227   7.069
78248SOL    HW236519  11.665  14.164   7.094
78249SOL     OW36520   8.468   8.588   3.060
78249SOL    HW136521   8.528   8.518   3.085
78249SOL    HW236522   8.399   8.543   3.012
78250SOL     OW36523  10.715   4.348  12.287
78250SOL    HW136524  10.716   4.283  12.358
78250SOL    HW236525  10.780   4.315  12.224
78251SOL     OW36526  12.706   3.717   9.483
78251SOL    HW136527  12.777   3.764   9.439
78251SOL    HW236528  12.703   3.755   9.571
78252SOL     OW36529   5.985   0.870   7.814
78252SOL    HW136530   5.915   0.868   7.879
78252SOL    HW236531   6.043   0.940   7.843
78253SOL     OW36532   5.140  13.440  13.383
78253SOL    HW136533   5.228  13.414  13.411
78253SOL    HW236534   5.148  13.453  13.288
78254SOL     OW36535   9.487   0.074   4.681
78254SOL    HW136536   9.527   0.133   4.618
78254SOL    HW236537   9.471  14.871   4.632
78255SOL     OW36538   2.518   4.687  14.698
78255SOL    HW136539   2.550   4.607  14.741
78255SOL    HW236540   2.423   4.677  14.697
78256SOL     OW36541   7.406   4.318   4.685
78256SOL    HW136542   7.363   4.397   4.719
78256SOL    HW236543   7.486   4.351   4.643
78257SOL     OW36544   9.701  13.905   8.812
78257SOL    HW136545   9.755  13.968   8.861
78257SOL    HW236546   9.750  13.823   8.818
78258SOL     OW36547  14.004   3.802  13.736
78258SOL    HW136548  14.056   3.773  13.660
78258SOL    HW236549  13.991   3.896  13.721
78259SOL     OW36550  13.955   3.840  13.089
78259SOL    HW136551  14.003   3.871  13.166
78259SOL    HW236552  13.892   3.910  13.071
78260SOL     OW36553   8.385   7.057  13.008
78260SOL    HW136554   8.346   7.053  12.921
78260SOL    HW236555   8.319   7.099  13.063
78261SOL     OW36556   6.781   5.636   8.701
78261SOL    HW136557   6.820   5.706   8.648
78261SOL    HW236558   6.702   5.611   8.652
78262SOL     OW36559  14.809   0.053   1.942
78262SOL    HW136560  14.855  14.877   1.878
78262SOL    HW236561  14.716   0.030   1.931
78263SOL     OW36562  11.413   3.371  13.819
78263SOL    HW136563  11.433   3.356  13.911
78263SOL    HW236564  11.354   3.299  13.795
78264SOL     OW36565   8.585  10.495  11.430
78264SOL    HW136566   8.602  10.500  11.524
78264SOL    HW236567   8.634  10.419  11.401
78265SOL     OW36568   0.350  13.240   8.377
78265SOL    HW136569   0.277  13.232   8.439
78265SOL    HW236570   0.318  13.301   8.310
78266SOL     OW36571   9.692   6.993  14.449
78266SOL    HW136572   9.723   6.904  14.464
78266SOL    HW236573   9.623   7.006  14.513
78267SOL     OW36574  14.514   0.414   9.816
78267SOL    HW136575  14.583   0.352   9.794
78267SOL    HW236576  14.490   0.454   9.732
78268SOL     OW36577   1.603   2.925  11.071
78268SOL    HW136578   1.670   2.925  11.003
78268SOL    HW236579   1.634   2.988  11.136
78269SOL     OW36580   2.251  11.750  14.813
78269SOL    HW136581   2.229  11.839  14.787
78269SOL    HW236582   2.173  11.699  14.792
78270SOL     OW36583   4.814   1.849   9.617
78270SOL    HW136584   4.881   1.888   9.561
78270SOL    HW236585   4.739   1.837   9.559
78271SOL     OW36586   7.923  14.054   7.842
78271SOL    HW136587   7.987  14.124   7.830
78271SOL    HW236588   7.893  14.065   7.933
78272SOL     OW36589  12.513  14.024  10.740
78272SOL    HW136590  12.510  14.087  10.812
78272SOL    HW236591  12.452  14.060  10.675
78273SOL     OW36592  12.276   5.200   0.071
78273SOL    HW136593  12.271   5.208   0.166
78273SOL    HW236594  12.265   5.106   0.054
78274SOL     OW36595   7.927   9.800  13.768
78274SOL    HW136596   7.979   9.879  13.784
78274SOL    HW236597   7.973   9.731  13.818
78275SOL     OW36598   8.477   5.357  14.722
78275SOL    HW136599   8.391   5.316  14.714
78275SOL    HW236600   8.475   5.427  14.657
78276SOL     OW36601   4.848  12.774  13.365
78276SOL    HW136602   4.753  12.766  13.354
78276SOL    HW236603   4.869  12.857  13.323
78277SOL     OW36604   4.050  11.346   3.275
78277SOL    HW136605   4.113  11.278   3.300
78277SOL    HW236606   4.095  11.429   3.294
78278SOL     OW36607   9.349   2.637  14.160
78278SOL    HW136608   9.442   2.631  14.137
78278SOL    HW236609   9.312   2.696  14.094
78279SOL     OW36610  11.679  11.621   7.556
78279SOL    HW136611  11.707  11.533   7.530
78279SOL    HW236612  11.605  11.640   7.497
78280SOL     OW36613   0.140  13.286   0.431
78280SOL    HW136614   0.099  13.213   0.477
78280SOL    HW236615   0.229  13.257   0.414
78281SOL     OW36616   9.042  14.012   7.534
78281SOL    HW136617   9.090  13.932   7.553
78281SOL    HW236618   8.967  13.983   7.482
78282SOL     OW36619   0.367   3.642  12.907
78282SOL    HW136620   0.293   3.599  12.865
78282SOL    HW236621   0.343   3.648  12.999
78283SOL     OW36622   5.779   3.817   2.432
78283SOL    HW136623   5.763   3.910   2.415
78283SOL    HW236624   5.875   3.808   2.430
78284SOL     OW36625   9.811   0.819   8.357
78284SOL    HW136626   9.723   0.847   8.332
78284SOL    HW236627   9.823   0.735   8.312
78285SOL     OW36628   9.384  10.394  14.104
78285SOL    HW136629   9.305  10.406  14.158
78285SOL    HW236630   9.456  10.421  14.161
78286SOL     OW36631  12.933   5.307  14.324
78286SOL    HW136632  12.881   5.387  14.317
78286SOL    HW236633  13.014   5.327  14.277
78287SOL     OW36634   3.555   7.981   6.062
78287SOL    HW136635   3.512   7.989   6.147
78287SOL    HW236636   3.484   7.988   5.999
78288SOL     OW36637   5.425   5.988   7.394
78288SOL    HW136638   5.507   5.943   7.414
78288SOL    HW236639   5.397   6.024   7.478
78289SOL     OW36640   0.854   6.097   5.735
78289SOL    HW136641   0.833   6.139   5.652
78289SOL    HW236642   0.796   6.021   5.740
78290SOL     OW36643   2.400  13.001   2.382
78290SOL    HW136644   2.344  13.069   2.420
78290SOL    HW236645   2.429  12.949   2.457
78291SOL     OW36646  11.509  10.971   8.312
78291SOL    HW136647  11.570  10.907   8.274
78291SOL    HW236648  11.480  10.930   8.393
78292SOL     OW36649   5.376   4.945  14.878
78292SOL    HW136650   5.345   4.952   0.090
78292SOL    HW236651   5.452   5.003  14.875
78293SOL     OW36652   0.534  13.793  14.782
78293SOL    HW136653   0.528  13.719  14.722
78293SOL    HW236654   0.553  13.754  14.867
78294SOL     OW36655   5.715  12.621   5.929
78294SOL    HW136656   5.644  12.608   5.992
78294SOL    HW236657   5.683  12.579   5.849
78295SOL     OW36658  11.758  13.831  12.370
78295SOL    HW136659  11.798  13.818  12.284
78295SOL    HW236660  11.782  13.753  12.420
78296SOL     OW36661  11.244  13.833   2.382
78296SOL    HW136662  11.201  13.755   2.347
78296SOL    HW236663  11.301  13.800   2.451
78297SOL     OW36664   9.515   9.218   2.529
78297SOL    HW136665   9.561   9.270   2.596
78297SOL    HW236666   9.425   9.251   2.531
78298SOL     OW36667   1.244   3.929  14.797
78298SOL    HW136668   1.336   3.947  14.815
78298SOL    HW236669   1.219   3.861  14.860
78299SOL     OW36670   0.841   8.237   5.986
78299SOL    HW136671   0.884   8.237   5.900
78299SOL    HW236672   0.906   8.275   6.045
78300SOL     OW36673   3.127   3.954   9.520
78300SOL    HW136674   3.198   4.017   9.503
78300SOL    HW236675   3.091   3.936   9.434
78301SOL     OW36676  11.492  13.097   5.977
78301SOL    HW136677  11.534  13.033   6.035
78301SOL    HW236678  11.456  13.044   5.906
78302SOL     OW36679  12.174  12.430   3.889
78302SOL    HW136680  12.079  12.436   3.887
78302SOL    HW236681  12.194  12.407   3.980
78303SOL     OW36682   8.150   6.333   6.139
78303SOL    HW136683   8.180   6.420   6.113
78303SOL    HW236684   8.228   6.289   6.173
78304SOL     OW36685   8.337   5.642   1.441
78304SOL    HW136686   8.415   5.666   1.390
78304SOL    HW236687   8.287   5.723   1.448
78305SOL     OW36688   4.506   3.408  12.881
78305SOL    HW136689   4.498   3.499  12.852
78305SOL    HW236690   4.567   3.412  12.955
78306SOL     OW36691   6.911   1.350   8.888
78306SOL    HW136692   6.883   1.262   8.864
78306SOL    HW236693   6.919   1.348   8.983
78307SOL     OW36694   3.460  11.098   3.711
78307SOL    HW136695   3.423  11.141   3.788
78307SOL    HW236696   3.544  11.142   3.697
78308SOL     OW36697   4.203  10.304   5.767
78308SOL    HW136698   4.285  10.319   5.813
78308SOL    HW236699   4.226  10.248   5.693
78309SOL     OW36700   6.032  14.826   4.316
78309SOL    HW136701   5.958  14.872   4.354
78309SOL    HW236702   6.106  14.848   4.373
78310SOL     OW36703   5.325  11.572   7.188
78310SOL    HW136704   5.299  11.664   7.196
78310SOL    HW236705   5.401  11.574   7.130
78311SOL     OW36706   2.243  12.996  14.561
78311SOL    HW136707   2.195  13.026  14.484
78311SOL    HW236708   2.331  12.978  14.530
78312SOL     OW36709  11.122  14.461  11.908
78312SOL    HW136710  11.078  14.408  11.842
78312SOL    HW236711  11.214  14.463  11.880
78313SOL     OW36712   2.766  13.526   8.062
78313SOL    HW136713   2.853  13.487   8.064
78313SOL    HW236714   2.729  13.499   7.978
78314SOL     OW36715  14.312   5.301   6.578
78314SOL    HW136716  14.325   5.388   6.540
78314SOL    HW236717  14.236   5.310   6.634
78315SOL     OW36718   8.597  12.183   5.694
78315SOL    HW136719   8.603  12.089   5.675
78315SOL    HW236720   8.636  12.192   5.781
78316SOL     OW36721  10.133  13.849   3.057
78316SOL    HW136722  10.111  13.939   3.080
78316SOL    HW236723  10.227  13.850   3.040
78317SOL     OW36724  10.594   6.119   9.927
78317SOL    HW136725  10.604   6.041   9.982
78317SOL    HW236726  10.576   6.085   9.839
78318SOL     OW36727  11.036   8.008  10.469
78318SOL    HW136728  11.113   7.977  10.421
78318SOL    HW236729  10.970   7.940  10.456
78319SOL     OW36730   9.925   6.583   7.082
78319SOL    HW136731   9.855   6.604   7.021
78319SOL    HW236732   9.888   6.602   7.169
78320SOL     OW36733   8.288   1.768   0.219
78320SOL    HW136734   8.343   1.842   0.244
78320SOL    HW236735   8.226   1.758   0.291
78321SOL     OW36736   2.439   5.227  11.823
78321SOL    HW136737   2.477   5.142  11.802
78321SOL    HW236738   2.469   5.284  11.752
78322SOL     OW36739  11.301   9.781   5.965
78322SOL    HW136740  11.396   9.771   5.970
78322SOL    HW236741  11.287   9.875   5.973
78323SOL     OW36742   8.641   9.902   8.517
78323SOL    HW136743   8.639   9.921   8.610
78323SOL    HW236744   8.712   9.956   8.483
78324SOL     OW36745   1.274   2.498   9.576
78324SOL    HW136746   1.199   2.451   9.613
78324SOL    HW236747   1.296   2.449   9.497
78325SOL     OW36748   8.415   2.911   0.179
78325SOL    HW136749   8.451   2.842   0.124
78325SOL    HW236750   8.323   2.917   0.151
78326SOL     OW36751  10.549   7.721   3.630
78326SOL    HW136752  10.605   7.647   3.607
78326SOL    HW236753  10.467   7.705   3.583
78327SOL     OW36754  10.517   9.333   2.043
78327SOL    HW136755  10.509   9.289   2.128
78327SOL    HW236756  10.608   9.320   2.018
78328SOL     OW36757   8.459   7.134   9.378
78328SOL    HW136758   8.419   7.128   9.465
78328SOL    HW236759   8.404   7.196   9.331
78329SOL     OW36760   8.237  13.864  11.320
78329SOL    HW136761   8.175  13.937  11.316
78329SOL    HW236762   8.183  13.788  11.338
78330SOL     OW36763   2.969   5.049   7.778
78330SOL    HW136764   3.032   5.121   7.781
78330SOL    HW236765   3.012   4.980   7.728
78331SOL     OW36766  11.153   8.417   0.203
78331SOL    HW136767  11.231   8.471   0.210
78331SOL    HW236768  11.153   8.385   0.113
78332SOL     OW36769   8.403  14.577   6.900
78332SOL    HW136770   8.439  14.489   6.889
78332SOL    HW236771   8.445  14.611   6.979
78333SOL     OW36772  10.882   8.956  13.779
78333SOL    HW136773  10.835   8.893  13.834
78333SOL    HW236774  10.867   8.926  13.690
78334SOL     OW36775  12.977   9.736   8.005
78334SOL    HW136776  12.882   9.746   8.007
78334SOL    HW236777  12.991   9.642   7.994
78335SOL     OW36778  10.879   7.737   2.613
78335SOL    HW136779  10.962   7.766   2.573
78335SOL    HW236780  10.894   7.742   2.707
78336SOL     OW36781  11.619   6.456  12.838
78336SOL    HW136782  11.582   6.530  12.789
78336SOL    HW236783  11.544   6.417  12.883
78337SOL     OW36784   3.233  14.506   0.183
78337SOL    HW136785   3.191  14.420   0.188
78337SOL    HW236786   3.181  14.561   0.241
78338SOL     OW36787  11.552  11.757   7.992
78338SOL    HW136788  11.593  11.817   8.055
78338SOL    HW236789  11.623  11.701   7.962
78339SOL     OW36790  13.152   1.903   5.985
78339SOL    HW136791  13.153   1.889   6.079
78339SOL    HW236792  13.193   1.825   5.948
78340SOL     OW36793   8.815  14.259   2.164
78340SOL    HW136794   8.839  14.177   2.206
78340SOL    HW236795   8.856  14.255   2.077
78341SOL     OW36796   7.300   6.056  11.226
78341SOL    HW136797   7.315   6.045  11.132
78341SOL    HW236798   7.263   6.144  11.234
78342SOL     OW36799  10.401   7.969   0.383
78342SOL    HW136800  10.448   8.032   0.438
78342SOL    HW236801  10.469   7.908   0.354
78343SOL     OW36802  13.505   5.755   4.852
78343SOL    HW136803  13.520   5.845   4.823
78343SOL    HW236804  13.422   5.758   4.900
78344SOL     OW36805   6.341  12.370   8.694
78344SOL    HW136806   6.376  12.315   8.764
78344SOL    HW236807   6.418  12.416   8.660
78345SOL     OW36808   3.678  11.472   3.226
78345SOL    HW136809   3.678  11.481   3.131
78345SOL    HW236810   3.738  11.540   3.257
78346SOL     OW36811   2.958   7.891   7.281
78346SOL    HW136812   3.046   7.918   7.257
78346SOL    HW236813   2.967   7.854   7.369
78347SOL     OW36814   7.755   5.120   7.219
78347SOL    HW136815   7.702   5.169   7.280
78347SOL    HW236816   7.790   5.186   7.158
78348SOL     OW36817   4.649   5.313   7.037
78348SOL    HW136818   4.604   5.247   6.984
78348SOL    HW236819   4.712   5.353   6.977
78349SOL     OW36820  10.583   9.495   6.042
78349SOL    HW136821  10.535   9.518   5.963
78349SOL    HW236822  10.667   9.461   6.010
78350SOL     OW36823  13.259   1.704  12.589
78350SOL    HW136824  13.337   1.680  12.638
78350SOL    HW236825  13.202   1.746  12.653
78351SOL     OW36826  11.047   6.054  12.928
78351SOL    HW136827  11.036   6.110  12.851
78351SOL    HW236828  11.003   6.102  12.999
78352SOL     OW36829   4.015   8.198   2.844
78352SOL    HW136830   3.922   8.211   2.825
78352SOL    HW236831   4.058   8.276   2.809
78353SOL     OW36832  10.738   7.489  12.702
78353SOL    HW136833  10.729   7.561  12.765
78353SOL    HW236834  10.792   7.424  12.748
78354SOL     OW36835  10.103  12.703   4.322
78354SOL    HW136836  10.061  12.651   4.253
78354SOL    HW236837  10.076  12.662   4.404
78355SOL     OW36838   8.475   3.403   2.503
78355SOL    HW136839   8.400   3.376   2.556
78355SOL    HW236840   8.448   3.486   2.465
78356SOL     OW36841   9.274  13.823  14.411
78356SOL    HW136842   9.234  13.857  14.491
78356SOL    HW236843   9.277  13.728  14.424
78357SOL     OW36844   5.206   8.903  14.249
78357SOL    HW136845   5.137   8.935  14.307
78357SOL    HW236846   5.211   8.970  14.180
78358SOL     OW36847   5.030  12.680   9.129
78358SOL    HW136848   4.970  12.698   9.056
78358SOL    HW236849   5.117  12.681   9.089
78359SOL     OW36850   7.520  10.707   8.445
78359SOL    HW136851   7.549  10.765   8.374
78359SOL    HW236852   7.601  10.669   8.479
78360SOL     OW36853  13.991   0.086   5.087
78360SOL    HW136854  13.906   0.051   5.062
78360SOL    HW236855  13.992   0.079   5.182
78361SOL     OW36856   0.270  12.821  14.869
78361SOL    HW136857   0.310  12.825   0.078
78361SOL    HW236858   0.317  12.888  14.819
78362SOL     OW36859   1.856   4.941   8.115
78362SOL    HW136860   1.788   4.952   8.181
78362SOL    HW236861   1.847   4.849   8.088
78363SOL     OW36862   6.920  10.032  11.321
78363SOL    HW136863   6.999   9.977  11.319
78363SOL    HW236864   6.849   9.971  11.341
78364SOL     OW36865   9.192  12.625  14.398
78364SOL    HW136866   9.238  12.676  14.332
78364SOL    HW236867   9.243  12.637  14.478
78365SOL     OW36868   6.087   8.309  13.928
78365SOL    HW136869   6.151   8.257  13.976
78365SOL    HW236870   6.012   8.315  13.988
78366SOL     OW36871  10.183   0.281   5.818
78366SOL    HW136872  10.262   0.314   5.861
78366SOL    HW236873  10.199   0.187   5.807
78367SOL     OW36874   5.094   9.665   9.872
78367SOL    HW136875   5.025   9.714   9.917
78367SOL    HW236876   5.175   9.701   9.907
78368SOL     OW36877   0.235   7.775   3.370
78368SOL    HW136878   0.157   7.830   3.365
78368SOL    HW236879   0.225   7.711   3.300
78369SOL     OW36880  10.592   5.806   1.339
78369SOL    HW136881  10.652   5.878   1.319
78369SOL    HW236882  10.645   5.742   1.385
78370SOL     OW36883  13.508  13.416   1.464
78370SOL    HW136884  13.432  13.473   1.456
78370SOL    HW236885  13.507  13.386   1.555
78371SOL     OW36886   7.230   0.631   8.429
78371SOL    HW136887   7.208   0.555   8.484
78371SOL    HW236888   7.286   0.596   8.361
78372SOL     OW36889   3.352   7.490   4.757
78372SOL    HW136890   3.424   7.446   4.803
78372SOL    HW236891   3.363   7.465   4.666
78373SOL     OW36892   9.409   4.440   6.046
78373SOL    HW136893   9.456   4.455   6.128
78373SOL    HW236894   9.395   4.528   6.009
78374SOL     OW36895   0.054   4.930  14.087
78374SOL    HW136896   0.048   4.959  14.178
78374SOL    HW236897  14.866   4.860  14.080
78375SOL     OW36898  12.246   4.681   0.916
78375SOL    HW136899  12.185   4.714   0.982
78375SOL    HW236900  12.199   4.691   0.833
78376SOL     OW36901   8.226   6.873   8.653
78376SOL    HW136902   8.309   6.858   8.699
78376SOL    HW236903   8.205   6.964   8.671
78377SOL     OW36904   0.862   7.363   1.271
78377SOL    HW136905   0.874   7.275   1.308
78377SOL    HW236906   0.790   7.401   1.322
78378SOL     OW36907   6.577  12.827   8.439
78378SOL    HW136908   6.500  12.775   8.464
78378SOL    HW236909   6.596  12.881   8.516
78379SOL     OW36910   2.035   0.145   0.752
78379SOL    HW136911   2.115   0.125   0.704
78379SOL    HW236912   2.049   0.235   0.784
78380SOL     OW36913   2.955   3.041   9.742
78380SOL    HW136914   3.025   2.988   9.782
78380SOL    HW236915   2.918   2.983   9.675
78381SOL     OW36916  14.470   2.010   3.068
78381SOL    HW136917  14.431   2.059   2.995
78381SOL    HW236918  14.564   2.020   3.057
78382SOL     OW36919  11.907   2.042  11.346
78382SOL    HW136920  11.937   2.022  11.435
78382SOL    HW236921  11.883   1.956  11.310
78383SOL     OW36922   1.211  11.027   9.964
78383SOL    HW136923   1.279  11.073  10.013
78383SOL    HW236924   1.239  10.936   9.965
78384SOL     OW36925   1.718   2.380   8.478
78384SOL    HW136926   1.715   2.467   8.440
78384SOL    HW236927   1.626   2.356   8.492
78385SOL     OW36928   4.974   5.451  11.168
78385SOL    HW136929   5.019   5.515  11.224
78385SOL    HW236930   4.885   5.448  11.203
78386SOL     OW36931   1.839   4.869  14.845
78386SOL    HW136932   1.844   4.794  14.786
78386SOL    HW236933   1.757   4.856   0.015
78387SOL     OW36934   2.209   5.193  11.435
78387SOL    HW136935   2.207   5.113  11.382
78387SOL    HW236936   2.127   5.192  11.484
78388SOL     OW36937  14.450   5.662   0.336
78388SOL    HW136938  14.495   5.579   0.348
78388SOL    HW236939  14.508   5.727   0.376
78389SOL     OW36940  11.693   1.918  10.329
78389SOL    HW136941  11.745   1.989  10.291
78389SOL    HW236942  11.672   1.862  10.255
78390SOL     OW36943  13.931   7.632  11.592
78390SOL    HW136944  14.025   7.641  11.601
78390SOL    HW236945  13.917   7.608  11.501
78391SOL     OW36946   0.149   3.073  11.144
78391SOL    HW136947   0.194   3.145  11.188
78391SOL    HW236948   0.217   3.009  11.127
78392SOL     OW36949   1.362  11.969   1.296
78392SOL    HW136950   1.318  11.911   1.234
78392SOL    HW236951   1.442  11.995   1.251
78393SOL     OW36952   8.574   9.525   8.130
78393SOL    HW136953   8.564   9.596   8.194
78393SOL    HW236954   8.662   9.538   8.095
78394SOL     OW36955   3.319  11.491   7.651
78394SOL    HW136956   3.255  11.433   7.693
78394SOL    HW236957   3.403  11.447   7.661
78395SOL     OW36958   4.665   3.692   7.252
78395SOL    HW136959   4.610   3.702   7.330
78395SOL    HW236960   4.634   3.612   7.211
78396SOL     OW36961  11.431  12.273   6.622
78396SOL    HW136962  11.463  12.208   6.559
78396SOL    HW236963  11.369  12.224   6.676
78397SOL     OW36964  11.821   6.634   1.548
78397SOL    HW136965  11.879   6.565   1.581
78397SOL    HW236966  11.870   6.673   1.476
78398SOL     OW36967   4.488   3.512  11.424
78398SOL    HW136968   4.459   3.583  11.482
78398SOL    HW236969   4.579   3.534  11.403
78399SOL     OW36970   7.243   0.429   5.687
78399SOL    HW136971   7.164   0.475   5.715
78399SOL    HW236972   7.285   0.403   5.769
78400SOL     OW36973   4.466  12.222   4.046
78400SOL    HW136974   4.518  12.152   4.006
78400SOL    HW236975   4.444  12.189   4.133
78401SOL     OW36976   9.715   0.604  13.318
78401SOL    HW136977   9.629   0.590  13.357
78401SOL    HW236978   9.699   0.667  13.247
78402SOL     OW36979  12.338  12.817  12.044
78402SOL    HW136980  12.324  12.733  12.000
78402SOL    HW236981  12.412  12.801  12.103
78403SOL     OW36982  12.838   5.921   9.851
78403SOL    HW136983  12.863   5.851   9.911
78403SOL    HW236984  12.908   5.985   9.858
78404SOL     OW36985   4.846  14.420   8.924
78404SOL    HW136986   4.836  14.354   8.855
78404SOL    HW236987   4.757  14.439   8.952
78405SOL     OW36988   0.989   6.373  14.108
78405SOL    HW136989   1.065   6.403  14.058
78405SOL    HW236990   0.960   6.293  14.064
78406SOL     OW36991   6.145   6.847  11.174
78406SOL    HW136992   6.228   6.887  11.148
78406SOL    HW236993   6.134   6.774  11.112
78407SOL     OW36994   3.129  14.587   0.437
78407SOL    HW136995   3.130  14.677   0.470
78407SOL    HW236996   3.213  14.551   0.466
78408SOL     OW36997   6.503  11.183  12.717
78408SOL    HW136998   6.435  11.247  12.699
78408SOL    HW236999   6.497  11.166  12.811
78409SOL     OW37000   5.147   3.242   6.762
78409SOL    HW137001   5.132   3.330   6.726
78409SOL    HW237002   5.059   3.204   6.771
78410SOL     OW37003   3.965  10.246   6.052
78410SOL    HW137004   4.033  10.210   5.995
78410SOL    HW237005   3.986  10.213   6.139
78411SOL     OW37006   8.233   8.412   9.393
78411SOL    HW137007   8.271   8.498   9.375
78411SOL    HW237008   8.303   8.350   9.372
78412SOL     OW37009   8.616  13.642  10.755
78412SOL    HW137010   8.559  13.566  10.755
78412SOL    HW237011   8.602  13.683  10.841
78413SOL     OW37012  11.184   1.745  10.974
78413SOL    HW137013  11.133   1.800  11.033
78413SOL    HW237014  11.275   1.769  10.992
78414SOL     OW37015   2.517   0.999  12.015
78414SOL    HW137016   2.455   1.016  12.086
78414SOL    HW237017   2.464   1.001  11.935
78415SOL     OW37018  13.036  11.131   1.256
78415SOL    HW137019  13.035  11.203   1.193
78415SOL    HW237020  13.081  11.059   1.211
78416SOL     OW37021  12.760  13.557  11.507
78416SOL    HW137022  12.798  13.470  11.489
78416SOL    HW237023  12.757  13.563  11.602
78417SOL     OW37024   3.479   6.761   9.122
78417SOL    HW137025   3.515   6.777   9.035
78417SOL    HW237026   3.507   6.837   9.174
78418SOL     OW37027  10.717  13.123   3.219
78418SOL    HW137028  10.657  13.181   3.265
78418SOL    HW237029  10.673  13.104   3.137
78419SOL     OW37030  13.966   2.533  11.269
78419SOL    HW137031  13.988   2.516  11.361
78419SOL    HW237032  13.894   2.595  11.273
78420SOL     OW37033   3.593   3.069   1.526
78420SOL    HW137034   3.540   2.999   1.487
78420SOL    HW237035   3.555   3.082   1.613
78421SOL     OW37036   0.351   5.816  12.894
78421SOL    HW137037   0.373   5.828  12.986
78421SOL    HW237038   0.399   5.737  12.869
78422SOL     OW37039   9.323   5.316  11.560
78422SOL    HW137040   9.410   5.350  11.540
78422SOL    HW237041   9.265   5.392  11.552
78423SOL     OW37042  12.097   6.661   9.197
78423SOL    HW137043  12.059   6.710   9.124
78423SOL    HW237044  12.101   6.725   9.268
78424SOL     OW37045  14.012  10.331   7.649
78424SOL    HW137046  13.961  10.401   7.608
78424SOL    HW237047  13.987  10.333   7.741
78425SOL     OW37048   6.855   2.832   1.888
78425SOL    HW137049   6.933   2.870   1.848
78425SOL    HW237050   6.833   2.758   1.831
78426SOL     OW37051   9.166   6.483   1.098
78426SOL    HW137052   9.201   6.563   1.059
78426SOL    HW237053   9.153   6.424   1.024
78427SOL     OW37054  13.971   7.696   1.057
78427SOL    HW137055  13.896   7.754   1.043
78427SOL    HW237056  13.933   7.609   1.068
78428SOL     OW37057  13.777   3.374   2.201
78428SOL    HW137058  13.720   3.359   2.276
78428SOL    HW237059  13.735   3.327   2.129
78429SOL     OW37060   5.522   8.189  14.533
78429SOL    HW137061   5.510   8.234  14.617
78429SOL    HW237062   5.500   8.256  14.468
78430SOL     OW37063  10.198   1.086   0.309
78430SOL    HW137064  10.127   1.036   0.268
78430SOL    HW237065  10.188   1.070   0.403
78431SOL     OW37066  10.451  11.382  13.120
78431SOL    HW137067  10.384  11.312  13.125
78431SOL    HW237068  10.478  11.394  13.211
78432SOL     OW37069  11.870   8.730  11.531
78432SOL    HW137070  11.877   8.653  11.588
78432SOL    HW237071  11.933   8.793  11.567
78433SOL     OW37072  10.264   1.512   0.288
78433SOL    HW137073  10.184   1.469   0.318
78433SOL    HW237074  10.234   1.573   0.220
78434SOL     OW37075   3.303   4.278  10.673
78434SOL    HW137076   3.309   4.250  10.582
78434SOL    HW237077   3.387   4.322  10.691
78435SOL     OW37078   1.287   4.746   9.870
78435SOL    HW137079   1.223   4.770   9.937
78435SOL    HW237080   1.367   4.728   9.918
78436SOL     OW37081   1.228   6.051   4.073
78436SOL    HW137082   1.284   5.988   4.028
78436SOL    HW237083   1.215   6.121   4.008
78437SOL     OW37084  11.062   9.770   1.888
78437SOL    HW137085  10.975   9.801   1.912
78437SOL    HW237086  11.047   9.710   1.816
78438SOL     OW37087   1.618   1.075   4.774
78438SOL    HW137088   1.708   1.076   4.743
78438SOL    HW237089   1.569   1.031   4.705
78439SOL     OW37090  11.470  11.863   8.313
78439SOL    HW137091  11.559  11.882   8.283
78439SOL    HW237092  11.474  11.771   8.342
78440SOL     OW37093   7.086   9.366  13.985
78440SOL    HW137094   7.141   9.350  14.062
78440SOL    HW237095   7.142   9.346  13.911
78441SOL     OW37096   6.628   5.906   0.199
78441SOL    HW137097   6.657   5.878   0.286
78441SOL    HW237098   6.697   5.965   0.169
78442SOL     OW37099  10.793  13.261  13.574
78442SOL    HW137100  10.791  13.173  13.611
78442SOL    HW237101  10.701  13.286  13.565
78443SOL     OW37102   2.966   7.636   6.066
78443SOL    HW137103   2.988   7.546   6.042
78443SOL    HW237104   2.875   7.647   6.039
78444SOL     OW37105   2.776   9.442   1.433
78444SOL    HW137106   2.852   9.500   1.422
78444SOL    HW237107   2.803   9.360   1.392
78445SOL     OW37108   7.743   6.841   1.649
78445SOL    HW137109   7.759   6.897   1.725
78445SOL    HW237110   7.708   6.760   1.686
78446SOL     OW37111  14.550  12.664   3.310
78446SOL    HW137112  14.556  12.659   3.406
78446SOL    HW237113  14.594  12.746   3.287
78447SOL     OW37114   0.858   6.530   3.284
78447SOL    HW137115   0.765   6.537   3.308
78447SOL    HW237116   0.857   6.494   3.195
78448SOL     OW37117   5.212  13.813  11.154
78448SOL    HW137118   5.153  13.796  11.227
78448SOL    HW237119   5.281  13.748  11.164
78449SOL     OW37120   5.546  13.514   9.721
78449SOL    HW137121   5.611  13.445   9.703
78449SOL    HW237122   5.549  13.525   9.816
78450SOL     OW37123  11.821  11.158  12.930
78450SOL    HW137124  11.737  11.122  12.902
78450SOL    HW237125  11.831  11.239  12.879
78451SOL     OW37126   9.207   4.332   5.307
78451SOL    HW137127   9.136   4.343   5.245
78451SOL    HW237128   9.164   4.328   5.393
78452SOL     OW37129  10.234   7.684  10.024
78452SOL    HW137130  10.296   7.750  10.055
78452SOL    HW237131  10.167   7.734   9.977
78453SOL     OW37132  12.691  10.636   6.618
78453SOL    HW137133  12.686  10.724   6.581
78453SOL    HW237134  12.687  10.650   6.713
78454SOL     OW37135   8.501  10.755  13.198
78454SOL    HW137136   8.420  10.739  13.247
78454SOL    HW237137   8.472  10.793  13.115
78455SOL     OW37138   7.657  13.989   7.808
78455SOL    HW137139   7.740  14.030   7.829
78455SOL    HW237140   7.631  13.945   7.889
78456SOL     OW37141   6.708   1.121   5.028
78456SOL    HW137142   6.730   1.197   4.975
78456SOL    HW237143   6.787   1.104   5.080
78457SOL     OW37144   6.988   3.548   2.041
78457SOL    HW137145   7.034   3.628   2.066
78457SOL    HW237146   6.952   3.568   1.955
78458SOL     OW37147   7.134   1.962  13.892
78458SOL    HW137148   7.170   1.929  13.974
78458SOL    HW237149   7.211   1.989  13.841
78459SOL     OW37150   4.570   0.416  12.257
78459SOL    HW137151   4.542   0.379  12.173
78459SOL    HW237152   4.569   0.341  12.317
78460SOL     OW37153   7.025   4.683  10.967
78460SOL    HW137154   7.091   4.617  10.983
78460SOL    HW237155   7.047   4.755  11.027
78461SOL     OW37156  13.115   3.772   5.253
78461SOL    HW137157  13.034   3.747   5.208
78461SOL    HW237158  13.179   3.706   5.227
78462SOL     OW37159   6.260   3.526   4.648
78462SOL    HW137160   6.224   3.528   4.559
78462SOL    HW237161   6.326   3.595   4.649
78463SOL     OW37162   3.678   6.801  14.784
78463SOL    HW137163   3.757   6.746  14.791
78463SOL    HW237164   3.705   6.885  14.822
78464SOL     OW37165   4.049   7.230  12.705
78464SOL    HW137166   3.962   7.202  12.732
78464SOL    HW237167   4.052   7.212  12.611
78465SOL     OW37168   9.870   1.835  13.201
78465SOL    HW137169   9.803   1.767  13.191
78465SOL    HW237170   9.829   1.915  13.169
78466SOL     OW37171   9.173   6.844  10.168
78466SOL    HW137172   9.127   6.923  10.140
78466SOL    HW237173   9.207   6.806  10.086
78467SOL     OW37174  10.216  11.571   8.218
78467SOL    HW137175  10.255  11.547   8.134
78467SOL    HW237176  10.250  11.658   8.236
78468SOL     OW37177   5.765   7.607   3.119
78468SOL    HW137178   5.726   7.594   3.206
78468SOL    HW237179   5.828   7.678   3.132
78469SOL     OW37180   8.046  11.529  11.795
78469SOL    HW137181   7.981  11.490  11.737
78469SOL    HW237182   7.995  11.573  11.863
78470SOL     OW37183   0.686   8.824   6.365
78470SOL    HW137184   0.768   8.788   6.333
78470SOL    HW237185   0.699   8.835   6.459
78471SOL     OW37186  10.352   8.860   8.246
78471SOL    HW137187  10.260   8.838   8.230
78471SOL    HW237188  10.381   8.901   8.164
78472SOL     OW37189   9.275  12.662   1.126
78472SOL    HW137190   9.319  12.611   1.058
78472SOL    HW237191   9.183  12.660   1.101
78473SOL     OW37192  12.219   0.045  12.365
78473SOL    HW137193  12.150   0.109  12.348
78473SOL    HW237194  12.300   0.089  12.338
78474SOL     OW37195   3.750   6.089   9.396
78474SOL    HW137196   3.665   6.080   9.440
78474SOL    HW237197   3.745   6.173   9.351
78475SOL     OW37198  10.239   4.523  11.848
78475SOL    HW137199  10.201   4.458  11.907
78475SOL    HW237200  10.246   4.478  11.764
78476SOL     OW37201  13.572   4.655  11.668
78476SOL    HW137202  13.517   4.577  11.668
78476SOL    HW237203  13.570   4.686  11.578
78477SOL     OW37204   1.158   8.551   7.649
78477SOL    HW137205   1.198   8.624   7.696
78477SOL    HW237206   1.143   8.484   7.716
78478SOL     OW37207   5.135   4.824  10.878
78478SOL    HW137208   5.136   4.736  10.841
78478SOL    HW237209   5.044   4.852  10.870
78479SOL     OW37210   4.417  10.219  12.888
78479SOL    HW137211   4.426  10.302  12.840
78479SOL    HW237212   4.377  10.245  12.971
78480SOL     OW37213  13.044   5.760   1.735
78480SOL    HW137214  12.981   5.795   1.798
78480SOL    HW237215  12.991   5.733   1.660
78481SOL     OW37216   9.617   2.076   1.109
78481SOL    HW137217   9.529   2.091   1.074
78481SOL    HW237218   9.675   2.110   1.040
78482SOL     OW37219  12.792   0.386  13.263
78482SOL    HW137220  12.719   0.407  13.206
78482SOL    HW237221  12.806   0.466  13.314
78483SOL     OW37222   8.972  14.109  13.194
78483SOL    HW137223   8.950  14.035  13.251
78483SOL    HW237224   9.011  14.174  13.252
78484SOL     OW37225   7.969   0.718   4.815
78484SOL    HW137226   8.052   0.761   4.793
78484SOL    HW237227   7.995   0.636   4.857
78485SOL     OW37228  13.345   2.363   3.813
78485SOL    HW137229  13.279   2.354   3.882
78485SOL    HW237230  13.349   2.276   3.772
78486SOL     OW37231  10.377   8.114  14.363
78486SOL    HW137232  10.324   8.035  14.359
78486SOL    HW237233  10.437   8.107  14.288
78487SOL     OW37234   0.390   2.632   2.452
78487SOL    HW137235   0.313   2.674   2.413
78487SOL    HW237236   0.419   2.693   2.519
78488SOL     OW37237  12.159   3.209  13.276
78488SOL    HW137238  12.179   3.144  13.209
78488SOL    HW237239  12.193   3.172  13.357
78489SOL     OW37240   1.227   5.443   6.508
78489SOL    HW137241   1.310   5.451   6.556
78489SOL    HW237242   1.180   5.375   6.555
78490SOL     OW37243   5.729   0.707  13.304
78490SOL    HW137244   5.734   0.802  13.306
78490SOL    HW237245   5.811   0.678  13.344
78491SOL     OW37246   6.688  10.571   7.462
78491SOL    HW137247   6.755  10.550   7.528
78491SOL    HW237248   6.658  10.485   7.431
78492SOL     OW37249   0.438   8.665   1.376
78492SOL    HW137250   0.393   8.742   1.341
78492SOL    HW237251   0.517   8.701   1.418
78493SOL     OW37252   0.010   7.460   8.887
78493SOL    HW137253  14.831   7.504   8.950
78493SOL    HW237254  14.869   7.367   8.899
78494SOL     OW37255   8.033  11.031   2.748
78494SOL    HW137256   7.983  10.974   2.691
78494SOL    HW237257   8.079  11.090   2.688
78495SOL     OW37258   2.288   3.443   3.494
78495SOL    HW137259   2.318   3.358   3.528
78495SOL    HW237260   2.195   3.447   3.519
78496SOL     OW37261   5.220  14.237   3.968
78496SOL    HW137262   5.263  14.318   3.941
78496SOL    HW237263   5.155  14.266   4.032
78497SOL     OW37264   6.753  14.329  12.659
78497SOL    HW137265   6.703  14.249  12.646
78497SOL    HW237266   6.744  14.377  12.577
78498SOL     OW37267   6.430   7.342   3.179
78498SOL    HW137268   6.421   7.414   3.241
78498SOL    HW237269   6.469   7.271   3.230
78499SOL     OW37270   0.674  14.483   8.901
78499SOL    HW137271   0.627  14.566   8.899
78499SOL    HW237272   0.764  14.506   8.921
78500SOL     OW37273   9.177  13.901  10.449
78500SOL    HW137274   9.128  13.819  10.440
78500SOL    HW237275   9.184  13.934  10.359
78501SOL     OW37276   9.771  12.901   3.200
78501SOL    HW137277   9.774  12.987   3.158
78501SOL    HW237278   9.684  12.896   3.240
78502SOL     OW37279  12.754   7.115  10.255
78502SOL    HW137280  12.680   7.100  10.315
78502SOL    HW237281  12.822   7.152  10.311
78503SOL     OW37282   5.974  11.456   2.976
78503SOL    HW137283   6.062  11.436   2.945
78503SOL    HW237284   5.949  11.380   3.029
78504SOL     OW37285   6.972  12.016   5.712
78504SOL    HW137286   6.949  11.948   5.648
78504SOL    HW237287   7.058  12.047   5.684
78505SOL     OW37288   6.708   8.310   8.791
78505SOL    HW137289   6.688   8.327   8.699
78505SOL    HW237290   6.793   8.267   8.789
78506SOL     OW37291  13.051   0.435   8.704
78506SOL    HW137292  13.021   0.428   8.795
78506SOL    HW237293  13.130   0.489   8.708
78507SOL     OW37294   2.176   6.618  13.087
78507SOL    HW137295   2.159   6.617  13.181
78507SOL    HW237296   2.114   6.555  13.050
78508SOL     OW37297  10.539   9.770  11.914
78508SOL    HW137298  10.574   9.705  11.974
78508SOL    HW237299  10.456   9.732  11.883
78509SOL     OW37300   5.098   1.384   0.310
78509SOL    HW137301   5.079   1.297   0.273
78509SOL    HW237302   5.047   1.444   0.256
78510SOL     OW37303  10.763  14.347   8.399
78510SOL    HW137304  10.743  14.340   8.306
78510SOL    HW237305  10.795  14.436   8.410
78511SOL     OW37306   4.017  12.531   3.025
78511SOL    HW137307   4.032  12.440   3.000
78511SOL    HW237308   3.940  12.557   2.974
78512SOL     OW37309   3.897  13.949   5.533
78512SOL    HW137310   3.920  13.959   5.440
78512SOL    HW237311   3.938  13.867   5.559
78513SOL     OW37312  13.522  13.191   2.153
78513SOL    HW137313  13.480  13.201   2.238
78513SOL    HW237314  13.613  13.169   2.174
78514SOL     OW37315   0.507   8.698  11.050
78514SOL    HW137316   0.579   8.636  11.062
78514SOL    HW237317   0.546   8.784  11.066
78515SOL     OW37318   6.168   0.240   2.338
78515SOL    HW137319   6.168   0.254   2.433
78515SOL    HW237320   6.232   0.303   2.304
78516SOL     OW37321   5.070   1.717   4.750
78516SOL    HW137322   5.034   1.757   4.671
78516SOL    HW237323   5.013   1.748   4.821
78517SOL     OW37324  12.393   1.066   5.672
78517SOL    HW137325  12.311   1.075   5.623
78517SOL    HW237326  12.408   1.153   5.709
78518SOL     OW37327  13.800   5.128  11.815
78518SOL    HW137328  13.798   5.038  11.784
78518SOL    HW237329  13.727   5.170  11.769
78519SOL     OW37330  12.250  12.857   3.922
78519SOL    HW137331  12.194  12.909   3.863
78519SOL    HW237332  12.196  12.782   3.946
78520SOL     OW37333   5.594  10.576   3.705
78520SOL    HW137334   5.634  10.491   3.686
78520SOL    HW237335   5.662  10.640   3.685
78521SOL     OW37336  12.226  14.680   6.043
78521SOL    HW137337  12.267  14.646   5.963
78521SOL    HW237338  12.261  14.768   6.053
78522SOL     OW37339   5.215   6.017   5.961
78522SOL    HW137340   5.216   5.936   5.909
78522SOL    HW237341   5.256   5.992   6.044
78523SOL     OW37342  14.575  12.417  12.069
78523SOL    HW137343  14.526  12.357  12.125
78523SOL    HW237344  14.667  12.391  12.081
78524SOL     OW37345   2.742   1.855   3.510
78524SOL    HW137346   2.800   1.802   3.563
78524SOL    HW237347   2.702   1.793   3.449
78525SOL     OW37348   5.858   8.647  10.123
78525SOL    HW137349   5.922   8.695  10.175
78525SOL    HW237350   5.794   8.614  10.186
78526SOL     OW37351  13.942   7.924   8.455
78526SOL    HW137352  13.927   8.012   8.422
78526SOL    HW237353  13.981   7.877   8.381
78527SOL     OW37354  10.732  11.268   6.269
78527SOL    HW137355  10.653  11.236   6.225
78527SOL    HW237356  10.800  11.265   6.202
78528SOL     OW37357  10.693   6.977  14.441
78528SOL    HW137358  10.710   6.889  14.408
78528SOL    HW237359  10.603   6.996  14.415
78529SOL     OW37360  10.795   6.417   6.264
78529SOL    HW137361  10.736   6.480   6.223
78529SOL    HW237362  10.849   6.383   6.193
78530SOL     OW37363  13.978   8.039   7.304
78530SOL    HW137364  13.883   8.038   7.314
78530SOL    HW237365  14.012   8.018   7.391
78531SOL     OW37366   0.246   1.663   7.429
78531SOL    HW137367   0.173   1.646   7.370
78531SOL    HW237368   0.206   1.706   7.505
78532SOL     OW37369   3.431   4.525   5.640
78532SOL    HW137370   3.396   4.604   5.600
78532SOL    HW237371   3.526   4.539   5.641
78533SOL     OW37372   3.410   5.080   6.729
78533SOL    HW137373   3.398   5.027   6.650
78533SOL    HW237374   3.332   5.137   6.731
78534SOL     OW37375   7.865   3.023   8.087
78534SOL    HW137376   7.886   2.979   8.169
78534SOL    HW237377   7.838   2.953   8.028
78535SOL     OW37378   9.081   3.367   2.913
78535SOL    HW137379   9.053   3.288   2.959
78535SOL    HW237380   9.000   3.412   2.891
78536SOL     OW37381   0.669   3.208  10.438
78536SOL    HW137382   0.621   3.284  10.406
78536SOL    HW237383   0.620   3.179  10.515
78537SOL     OW37384   6.166   2.648  10.198
78537SOL    HW137385   6.154   2.716  10.264
78537SOL    HW237386   6.199   2.695  10.121
78538SOL     OW37387   0.097   1.703   8.169
78538SOL    HW137388   0.002   1.698   8.175
78538SOL    HW237389   0.120   1.644   8.098
78539SOL     OW37390  11.407  13.004  13.811
78539SOL    HW137391  11.364  13.062  13.873
78539SOL    HW237392  11.499  13.006  13.834
78540SOL     OW37393  13.635   5.723   9.682
78540SOL    HW137394  13.577   5.796   9.702
78540SOL    HW237395  13.721   5.751   9.714
78541SOL     OW37396   1.059  14.639   8.186
78541SOL    HW137397   1.013  14.648   8.269
78541SOL    HW237398   1.117  14.563   8.198
78542SOL     OW37399   6.765  13.517   4.976
78542SOL    HW137400   6.754  13.612   4.987
78542SOL    HW237401   6.735  13.500   4.887
78543SOL     OW37402   2.557   6.699   0.427
78543SOL    HW137403   2.476   6.745   0.403
78543SOL    HW237404   2.539   6.662   0.514
78544SOL     OW37405  11.744   0.179   5.328
78544SOL    HW137406  11.810   0.218   5.271
78544SOL    HW237407  11.776   0.197   5.417
78545SOL     OW37408   6.352  14.364   9.386
78545SOL    HW137409   6.307  14.441   9.420
78545SOL    HW237410   6.293  14.291   9.404
78546SOL     OW37411  12.828   0.369  11.629
78546SOL    HW137412  12.825   0.389  11.535
78546SOL    HW237413  12.736   0.376  11.657
78547SOL     OW37414  12.474   8.977  10.651
78547SOL    HW137415  12.479   8.915  10.578
78547SOL    HW237416  12.431   8.927  10.721
78548SOL     OW37417   3.831   6.810   7.252
78548SOL    HW137418   3.755   6.751   7.255
78548SOL    HW237419   3.893   6.765   7.195
78549SOL     OW37420   1.166  11.351   4.222
78549SOL    HW137421   1.175  11.408   4.146
78549SOL    HW237422   1.105  11.398   4.279
78550SOL     OW37423  13.266   7.103   5.388
78550SOL    HW137424  13.183   7.136   5.353
78550SOL    HW237425  13.313   7.070   5.311
78551SOL     OW37426   6.926   9.053   1.765
78551SOL    HW137427   6.991   8.984   1.778
78551SOL    HW237428   6.969   9.116   1.708
78552SOL     OW37429   8.249   8.689  14.489
78552SOL    HW137430   8.309   8.659  14.421
78552SOL    HW237431   8.162   8.667  14.456
78553SOL     OW37432   8.358  10.243   4.610
78553SOL    HW137433   8.326  10.322   4.566
78553SOL    HW237434   8.430  10.275   4.665
78554SOL     OW37435   2.238   0.915   3.491
78554SOL    HW137436   2.190   0.856   3.549
78554SOL    HW237437   2.315   0.866   3.463
78555SOL     OW37438  11.350  13.558  14.451
78555SOL    HW137439  11.283  13.515  14.504
78555SOL    HW237440  11.360  13.501  14.375
78556SOL     OW37441  13.671  14.521  14.483
78556SOL    HW137442  13.697  14.444  14.534
78556SOL    HW237443  13.583  14.542  14.514
78557SOL     OW37444   1.361   0.492   5.054
78557SOL    HW137445   1.394   0.412   5.013
78557SOL    HW237446   1.284   0.515   5.003
78558SOL     OW37447   0.025   3.896   2.328
78558SOL    HW137448  14.870   3.825   2.383
78558SOL    HW237449   0.014   3.974   2.382
78559SOL     OW37450  13.619   9.307   4.906
78559SOL    HW137451  13.622   9.220   4.945
78559SOL    HW237452  13.709   9.338   4.906
78560SOL     OW37453  13.244  13.375   6.373
78560SOL    HW137454  13.250  13.396   6.279
78560SOL    HW237455  13.226  13.281   6.375
78561SOL     OW37456   4.145   2.031  13.813
78561SOL    HW137457   4.108   2.054  13.728
78561SOL    HW237458   4.171   1.939  13.804
78562SOL     OW37459  11.097   4.318   8.107
78562SOL    HW137460  11.038   4.336   8.181
78562SOL    HW237461  11.049   4.256   8.053
78563SOL     OW37462  12.865   6.486  11.988
78563SOL    HW137463  12.774   6.514  12.000
78563SOL    HW237464  12.858   6.395  11.959
78564SOL     OW37465   4.676   8.228   7.748
78564SOL    HW137466   4.701   8.265   7.663
78564SOL    HW237467   4.614   8.291   7.784
78565SOL     OW37468  14.205   4.565   3.533
78565SOL    HW137469  14.148   4.534   3.603
78565SOL    HW237470  14.208   4.660   3.545
78566SOL     OW37471   0.586   2.196   7.197
78566SOL    HW137472   0.639   2.223   7.272
78566SOL    HW237473   0.500   2.175   7.235
78567SOL     OW37474   4.493   1.172  10.242
78567SOL    HW137475   4.567   1.143  10.295
78567SOL    HW237476   4.529   1.236  10.182
78568SOL     OW37477  13.617  12.120   8.503
78568SOL    HW137478  13.643  12.187   8.567
78568SOL    HW237479  13.662  12.147   8.422
78569SOL     OW37480   8.736  11.377   5.763
78569SOL    HW137481   8.787  11.363   5.683
78569SOL    HW237482   8.779  11.451   5.806
78570SOL     OW37483  12.162   9.284  11.943
78570SOL    HW137484  12.162   9.369  11.988
78570SOL    HW237485  12.113   9.226  12.001
78571SOL     OW37486   3.758   0.883   0.716
78571SOL    HW137487   3.766   0.890   0.621
78571SOL    HW237488   3.719   0.966   0.743
78572SOL     OW37489   0.579   6.833   7.412
78572SOL    HW137490   0.514   6.903   7.401
78572SOL    HW237491   0.659   6.879   7.439
78573SOL     OW37492   1.698   3.871  12.318
78573SOL    HW137493   1.687   3.946  12.377
78573SOL    HW237494   1.766   3.818  12.359
78574SOL     OW37495   9.542   5.158   8.069
78574SOL    HW137496   9.628   5.134   8.103
78574SOL    HW237497   9.541   5.124   7.979
78575SOL     OW37498  10.172   4.161  12.303
78575SOL    HW137499  10.142   4.133  12.216
78575SOL    HW237500  10.266   4.178  12.292
78576SOL     OW37501   9.125  13.626   1.192
78576SOL    HW137502   9.100  13.710   1.231
78576SOL    HW237503   9.048  13.571   1.203
78577SOL     OW37504   0.178   6.478   2.045
78577SOL    HW137505   0.102   6.424   2.067
78577SOL    HW237506   0.149   6.568   2.062
78578SOL     OW37507   9.164   2.714   5.364
78578SOL    HW137508   9.101   2.687   5.430
78578SOL    HW237509   9.184   2.805   5.384
78579SOL     OW37510  11.862   9.490   9.749
78579SOL    HW137511  11.815   9.574   9.748
78579SOL    HW237512  11.942   9.508   9.800
78580SOL     OW37513  10.531   1.454   0.239
78580SOL    HW137514  10.448   1.473   0.282
78580SOL    HW237515  10.509   1.401   0.163
78581SOL     OW37516   9.301   2.247   0.075
78581SOL    HW137517   9.392   2.245   0.105
78581SOL    HW237518   9.251   2.277   0.151
78582SOL     OW37519  14.244   6.417   4.515
78582SOL    HW137520  14.222   6.459   4.598
78582SOL    HW237521  14.159   6.408   4.470
78583SOL     OW37522  14.026  11.419  10.174
78583SOL    HW137523  13.933  11.431  10.153
78583SOL    HW237524  14.028  11.344  10.233
78584SOL     OW37525   0.616   2.076  13.484
78584SOL    HW137526   0.631   2.098  13.392
78584SOL    HW237527   0.703   2.076  13.524
78585SOL     OW37528   0.348   1.189   0.062
78585SOL    HW137529   0.385   1.138   0.133
78585SOL    HW237530   0.405   1.266   0.055
78586SOL     OW37531  13.786   4.880   0.714
78586SOL    HW137532  13.862   4.907   0.765
78586SOL    HW237533  13.724   4.847   0.780
78587SOL     OW37534   3.685  10.259  10.689
78587SOL    HW137535   3.711  10.222  10.605
78587SOL    HW237536   3.601  10.302  10.671
78588SOL     OW37537   4.152   2.416   8.633
78588SOL    HW137538   4.189   2.504   8.626
78588SOL    HW237539   4.223   2.363   8.669
78589SOL     OW37540  13.142   5.725   2.211
78589SOL    HW137541  13.170   5.783   2.140
78589SOL    HW237542  13.091   5.656   2.167
78590SOL     OW37543  10.092   6.033  12.202
78590SOL    HW137544  10.016   5.980  12.177
78590SOL    HW237545  10.071   6.120  12.168
78591SOL     OW37546  12.857   4.931  12.339
78591SOL    HW137547  12.948   4.939  12.313
78591SOL    HW237548  12.843   5.003  12.401
78592SOL     OW37549   4.920  14.448  14.476
78592SOL    HW137550   4.980  14.427  14.404
78592SOL    HW237551   4.864  14.517  14.441
78593SOL     OW37552  12.740   3.863   2.261
78593SOL    HW137553  12.721   3.948   2.222
78593SOL    HW237554  12.655   3.829   2.288
78594SOL     OW37555   8.951  14.647  13.616
78594SOL    HW137556   8.872  14.688  13.651
78594SOL    HW237557   9.021  14.678  13.673
78595SOL     OW37558   2.804  10.942  13.699
78595SOL    HW137559   2.883  10.984  13.734
78595SOL    HW237560   2.758  10.909  13.776
78596SOL     OW37561  11.441  10.946   6.691
78596SOL    HW137562  11.383  10.905   6.756
78596SOL    HW237563  11.473  10.872   6.638
78597SOL     OW37564  12.318   8.826   4.263
78597SOL    HW137565  12.283   8.899   4.313
78597SOL    HW237566  12.340   8.863   4.177
78598SOL     OW37567   5.601   8.794  14.718
78598SOL    HW137568   5.689   8.789  14.681
78598SOL    HW237569   5.553   8.850  14.658
78599SOL     OW37570   3.593  12.086   6.391
78599SOL    HW137571   3.528  12.069   6.459
78599SOL    HW237572   3.665  12.026   6.411
78600SOL     OW37573   5.814  10.672   9.644
78600SOL    HW137574   5.723  10.701   9.634
78600SOL    HW237575   5.866  10.741   9.604
78601SOL     OW37576   9.546  10.720  14.032
78601SOL    HW137577   9.634  10.730  14.069
78601SOL    HW237578   9.561  10.675  13.948
78602SOL     OW37579   4.421   7.075   5.714
78602SOL    HW137580   4.390   7.165   5.724
78602SOL    HW237581   4.401   7.052   5.623
78603SOL     OW37582   4.490   6.678   2.770
78603SOL    HW137583   4.438   6.601   2.795
78603SOL    HW237584   4.473   6.689   2.676
78604SOL     OW37585   8.064   6.802  11.654
78604SOL    HW137586   8.071   6.720  11.605
78604SOL    HW237587   7.970   6.816  11.664
78605SOL     OW37588   0.396   0.688   4.439
78605SOL    HW137589   0.486   0.681   4.407
78605SOL    HW237590   0.348   0.731   4.368
78606SOL     OW37591   7.370  13.434   7.284
78606SOL    HW137592   7.401  13.485   7.210
78606SOL    HW237593   7.383  13.343   7.257
78607SOL     OW37594  11.190   0.711  11.570
78607SOL    HW137595  11.194   0.629  11.621
78607SOL    HW237596  11.203   0.683  11.479
78608SOL     OW37597   1.956  13.875   9.512
78608SOL    HW137598   1.873  13.832   9.531
78608SOL    HW237599   2.019  13.803   9.506
78609SOL     OW37600   5.368   1.889   5.752
78609SOL    HW137601   5.332   1.947   5.819
78609SOL    HW237602   5.360   1.939   5.670
78610SOL     OW37603   2.393   0.985   9.414
78610SOL    HW137604   2.298   0.991   9.406
78610SOL    HW237605   2.416   0.903   9.371
78611SOL     OW37606   7.391   3.894   6.987
78611SOL    HW137607   7.472   3.855   7.021
78611SOL    HW237608   7.403   3.895   6.892
78612SOL     OW37609   1.729   0.564   8.432
78612SOL    HW137610   1.735   0.602   8.520
78612SOL    HW237611   1.663   0.618   8.388
78613SOL     OW37612   0.453  13.357   3.128
78613SOL    HW137613   0.391  13.377   3.197
78613SOL    HW237614   0.481  13.267   3.145
78614SOL     OW37615   6.924   6.921   7.186
78614SOL    HW137616   7.005   6.880   7.155
78614SOL    HW237617   6.938   7.015   7.172
78615SOL     OW37618  14.089   9.925   1.374
78615SOL    HW137619  14.142  10.003   1.358
78615SOL    HW237620  14.088   9.878   1.291
78616SOL     OW37621  10.142   8.558   6.817
78616SOL    HW137622  10.091   8.486   6.781
78616SOL    HW237623  10.116   8.561   6.910
78617SOL     OW37624  13.304  13.327   5.510
78617SOL    HW137625  13.274  13.341   5.600
78617SOL    HW237626  13.284  13.235   5.492
78618SOL     OW37627   3.146   8.475   9.910
78618SOL    HW137628   3.133   8.450   9.818
78618SOL    HW237629   3.217   8.539   9.907
78619SOL     OW37630   3.672   6.321   2.815
78619SOL    HW137631   3.719   6.268   2.750
78619SOL    HW237632   3.734   6.331   2.887
78620SOL     OW37633  12.486   8.590   8.762
78620SOL    HW137634  12.430   8.625   8.831
78620SOL    HW237635  12.484   8.495   8.775
78621SOL     OW37636  11.881   8.628   7.253
78621SOL    HW137637  11.974   8.624   7.275
78621SOL    HW237638  11.879   8.648   7.160
78622SOL     OW37639   9.416   8.024   1.201
78622SOL    HW137640   9.452   8.064   1.122
78622SOL    HW237641   9.490   8.018   1.261
78623SOL     OW37642  13.553   2.064  11.435
78623SOL    HW137643  13.625   2.006  11.462
78623SOL    HW237644  13.563   2.141  11.491
78624SOL     OW37645   0.909   2.936   3.472
78624SOL    HW137646   0.922   2.993   3.548
78624SOL    HW237647   0.851   2.866   3.503
78625SOL     OW37648   3.645   7.664   8.293
78625SOL    HW137649   3.667   7.658   8.201
78625SOL    HW237650   3.708   7.725   8.330
78626SOL     OW37651  14.461   6.485   7.268
78626SOL    HW137652  14.436   6.484   7.176
78626SOL    HW237653  14.450   6.395   7.297
78627SOL     OW37654  14.561  10.881   2.684
78627SOL    HW137655  14.505  10.956   2.661
78627SOL    HW237656  14.639  10.921   2.721
78628SOL     OW37657   8.203   4.134  13.203
78628SOL    HW137658   8.110   4.116  13.218
78628SOL    HW237659   8.245   4.048  13.212
78629SOL     OW37660  11.258   7.655  11.739
78629SOL    HW137661  11.205   7.622  11.811
78629SOL    HW237662  11.279   7.578  11.686
78630SOL     OW37663   5.169  11.142   2.996
78630SOL    HW137664   5.086  11.132   2.949
78630SOL    HW237665   5.161  11.225   3.044
78631SOL     OW37666   3.681   6.351   2.291
78631SOL    HW137667   3.654   6.269   2.251
78631SOL    HW237668   3.615   6.415   2.264
78632SOL     OW37669   8.746  13.519  13.476
78632SOL    HW137670   8.684  13.448  13.492
78632SOL    HW237671   8.817  13.503  13.538
78633SOL     OW37672   6.917   5.140   4.653
78633SOL    HW137673   6.852   5.070   4.645
78633SOL    HW237674   6.944   5.138   4.745
78634SOL     OW37675   6.299   2.963  14.246
78634SOL    HW137676   6.293   2.867  14.246
78634SOL    HW237677   6.220   2.992  14.200
78635SOL     OW37678   9.104   5.389   4.698
78635SOL    HW137679   9.101   5.321   4.631
78635SOL    HW237680   9.127   5.343   4.779
78636SOL     OW37681   3.682  11.075  11.250
78636SOL    HW137682   3.757  11.020  11.271
78636SOL    HW237683   3.611  11.014  11.232
78637SOL     OW37684   7.082  11.420   6.250
78637SOL    HW137685   7.122  11.342   6.213
78637SOL    HW237686   6.989  11.399   6.257
78638SOL     OW37687   6.620   2.189   7.767
78638SOL    HW137688   6.600   2.200   7.860
78638SOL    HW237689   6.638   2.278   7.736
78639SOL     OW37690   2.594   5.811   8.415
78639SOL    HW137691   2.646   5.865   8.474
78639SOL    HW237692   2.522   5.868   8.387
78640SOL     OW37693  11.088   6.699   8.538
78640SOL    HW137694  11.003   6.691   8.495
78640SOL    HW237695  11.068   6.692   8.632
78641SOL     OW37696  14.836   4.555  11.482
78641SOL    HW137697   0.037   4.607  11.496
78641SOL    HW237698  14.764   4.612  11.510
78642SOL     OW37699   8.055   6.052   1.898
78642SOL    HW137700   8.138   6.032   1.942
78642SOL    HW237701   8.036   6.143   1.923
78643SOL     OW37702  10.257   1.739  10.151
78643SOL    HW137703  10.322   1.728  10.221
78643SOL    HW237704  10.197   1.665  10.163
78644SOL     OW37705   8.359   5.647   0.587
78644SOL    HW137706   8.392   5.704   0.657
78644SOL    HW237707   8.420   5.573   0.586
78645SOL     OW37708   9.563  10.833   9.143
78645SOL    HW137709   9.546  10.799   9.231
78645SOL    HW237710   9.478  10.865   9.113
78646SOL     OW37711   3.745  11.877  14.318
78646SOL    HW137712   3.652  11.857  14.304
78646SOL    HW237713   3.791  11.806  14.273
78647SOL     OW37714   2.345   6.563  11.885
78647SOL    HW137715   2.309   6.652  11.895
78647SOL    HW237716   2.417   6.559  11.947
78648SOL     OW37717  13.590   6.483  13.586
78648SOL    HW137718  13.682   6.509  13.582
78648SOL    HW237719  13.577   6.429  13.509
78649SOL     OW37720   5.739  10.687   2.605
78649SOL    HW137721   5.750  10.774   2.568
78649SOL    HW237722   5.820  10.641   2.583
78650SOL     OW37723   7.451   5.528   2.752
78650SOL    HW137724   7.489   5.502   2.669
78650SOL    HW237725   7.434   5.622   2.742
78651SOL     OW37726   4.901  12.144   6.487
78651SOL    HW137727   4.935  12.222   6.531
78651SOL    HW237728   4.874  12.176   6.401
78652SOL     OW37729   0.370  11.877   3.431
78652SOL    HW137730   0.349  11.894   3.339
78652SOL    HW237731   0.459  11.910   3.442
78653SOL     OW37732  13.021  14.135  12.212
78653SOL    HW137733  13.089  14.088  12.259
78653SOL    HW237734  13.057  14.151  12.125
78654SOL     OW37735  14.396   3.404   7.476
78654SOL    HW137736  14.439   3.331   7.431
78654SOL    HW237737  14.321   3.426   7.421
78655SOL     OW37738  11.206  12.521   7.034
78655SOL    HW137739  11.205  12.610   6.999
78655SOL    HW237740  11.210  12.534   7.129
78656SOL     OW37741   4.763   2.290  12.862
78656SOL    HW137742   4.686   2.252  12.819
78656SOL    HW237743   4.802   2.347  12.796
78657SOL     OW37744   0.151  10.204  12.277
78657SOL    HW137745   0.089  10.221  12.206
78657SOL    HW237746   0.149  10.284  12.330
78658SOL     OW37747   9.417   5.425   8.667
78658SOL    HW137748   9.360   5.423   8.590
78658SOL    HW237749   9.505   5.438   8.631
78659SOL     OW37750   4.121   4.635   6.413
78659SOL    HW137751   4.051   4.675   6.361
78659SOL    HW237752   4.200   4.643   6.359
78660SOL     OW37753   9.079   2.764  13.013
78660SOL    HW137754   9.001   2.779  12.958
78660SOL    HW237755   9.098   2.850  13.050
78661SOL     OW37756   5.637   2.835   2.760
78661SOL    HW137757   5.599   2.748   2.769
78661SOL    HW237758   5.615   2.861   2.671
78662SOL     OW37759   7.468   5.133   7.196
78662SOL    HW137760   7.495   5.164   7.283
78662SOL    HW237761   7.394   5.188   7.173
78663SOL     OW37762  11.021  12.116   9.968
78663SOL    HW137763  11.080  12.155  10.033
78663SOL    HW237764  11.019  12.023   9.990
78664SOL     OW37765   0.933   5.610   1.350
78664SOL    HW137766   0.854   5.570   1.387
78664SOL    HW237767   0.929   5.701   1.377
78665SOL     OW37768   6.390   5.026   7.081
78665SOL    HW137769   6.401   5.057   7.171
78665SOL    HW237770   6.428   4.938   7.082
78666SOL     OW37771  14.822   1.199  14.213
78666SOL    HW137772  14.856   1.275  14.165
78666SOL    HW237773   0.008   1.129  14.194
78667SOL     OW37774   0.595   9.351  11.911
78667SOL    HW137775   0.514   9.380  11.953
78667SOL    HW237776   0.612   9.418  11.845
78668SOL     OW37777  11.824   5.072   6.240
78668SOL    HW137778  11.912   5.110   6.242
78668SOL    HW237779  11.805   5.061   6.146
78669SOL     OW37780   2.434   0.472   3.806
78669SOL    HW137781   2.462   0.507   3.891
78669SOL    HW237782   2.410   0.382   3.825
78670SOL     OW37783  11.889  10.618  13.459
78670SOL    HW137784  11.903  10.654  13.372
78670SOL    HW237785  11.837  10.539  13.444
78671SOL     OW37786   0.920   5.812   2.582
78671SOL    HW137787   0.940   5.905   2.597
78671SOL    HW237788   0.861   5.813   2.507
78672SOL     OW37789   1.151   5.639   6.135
78672SOL    HW137790   1.065   5.635   6.177
78672SOL    HW237791   1.139   5.701   6.063
78673SOL     OW37792  10.787   2.214   4.811
78673SOL    HW137793  10.738   2.245   4.735
78673SOL    HW237794  10.805   2.122   4.792
78674SOL     OW37795  13.604   0.641   6.427
78674SOL    HW137796  13.598   0.616   6.520
78674SOL    HW237797  13.675   0.706   6.425
78675SOL     OW37798   7.594   7.583  10.045
78675SOL    HW137799   7.635   7.657  10.089
78675SOL    HW237800   7.666   7.522  10.028
78676SOL     OW37801   1.544   0.334   6.342
78676SOL    HW137802   1.533   0.309   6.250
78676SOL    HW237803   1.456   0.334   6.378
78677SOL     OW37804   1.411   7.770   8.880
78677SOL    HW137805   1.323   7.772   8.915
78677SOL    HW237806   1.426   7.858   8.845
78678SOL     OW37807   2.639   7.200  14.006
78678SOL    HW137808   2.679   7.150  14.078
78678SOL    HW237809   2.706   7.263  13.981
78679SOL     OW37810  13.840   9.208   1.264
78679SOL    HW137811  13.879   9.255   1.338
78679SOL    HW237812  13.890   9.237   1.188
78680SOL     OW37813   6.948   4.596   2.818
78680SOL    HW137814   6.946   4.602   2.914
78680SOL    HW237815   6.961   4.686   2.789
78681SOL     OW37816  14.674  11.857   3.340
78681SOL    HW137817  14.631  11.864   3.425
78681SOL    HW237818  14.644  11.774   3.305
78682SOL     OW37819   4.453   9.084   9.000
78682SOL    HW137820   4.527   9.033   8.969
78682SOL    HW237821   4.422   9.038   9.078
78683SOL     OW37822   1.286   2.646  11.245
78683SOL    HW137823   1.307   2.703  11.319
78683SOL    HW237824   1.367   2.644  11.193
78684SOL     OW37825  11.944   7.795   2.517
78684SOL    HW137826  12.020   7.743   2.491
78684SOL    HW237827  11.924   7.766   2.606
78685SOL     OW37828   4.105   3.321   7.737
78685SOL    HW137829   4.161   3.243   7.736
78685SOL    HW237830   4.025   3.293   7.693
78686SOL     OW37831   0.198  14.859   6.204
78686SOL    HW137832   0.258  14.870   6.278
78686SOL    HW237833   0.231   0.042   6.138
78687SOL     OW37834  10.482  10.566   2.556
78687SOL    HW137835  10.395  10.558   2.597
78687SOL    HW237836  10.467  10.620   2.478
78688SOL     OW37837  11.356   6.745   7.547
78688SOL    HW137838  11.271   6.703   7.559
78688SOL    HW237839  11.335   6.832   7.512
78689SOL     OW37840   2.366  14.276   2.224
78689SOL    HW137841   2.368  14.322   2.308
78689SOL    HW237842   2.443  14.308   2.177
78690SOL     OW37843  12.150   5.946   7.260
78690SOL    HW137844  12.206   6.023   7.269
78690SOL    HW237845  12.206   5.873   7.285
78691SOL     OW37846   0.331   8.327   7.228
78691SOL    HW137847   0.244   8.365   7.234
78691SOL    HW237848   0.356   8.340   7.137
78692SOL     OW37849   8.233   6.399  14.061
78692SOL    HW137850   8.208   6.310  14.039
78692SOL    HW237851   8.170   6.426  14.128
78693SOL     OW37852   8.947  10.164  13.217
78693SOL    HW137853   8.919  10.250  13.183
78693SOL    HW237854   8.878  10.139  13.278
78694SOL     OW37855  10.014   9.733   5.985
78694SOL    HW137856  10.081   9.669   6.008
78694SOL    HW237857   9.932   9.683   5.985
78695SOL     OW37858   8.764   3.867   4.506
78695SOL    HW137859   8.670   3.864   4.488
78695SOL    HW237860   8.802   3.912   4.431
78696SOL     OW37861  10.126   6.905   7.480
78696SOL    HW137862  10.081   6.919   7.397
78696SOL    HW237863  10.167   6.819   7.471
78697SOL     OW37864   9.650   6.272   2.724
78697SOL    HW137865   9.641   6.265   2.629
78697SOL    HW237866   9.566   6.241   2.758
78698SOL     OW37867   1.163   4.610   6.202
78698SOL    HW137868   1.196   4.564   6.125
78698SOL    HW237869   1.160   4.702   6.176
78699SOL     OW37870  13.037  12.548   6.330
78699SOL    HW137871  13.086  12.626   6.306
78699SOL    HW237872  13.024  12.555   6.424
78700SOL     OW37873   6.025   7.144   9.127
78700SOL    HW137874   6.068   7.062   9.149
78700SOL    HW237875   5.940   7.118   9.090
78701SOL     OW37876   3.674   5.897  11.852
78701SOL    HW137877   3.743   5.960  11.873
78701SOL    HW237878   3.623   5.890  11.933
78702SOL     OW37879   4.466  11.919   0.053
78702SOL    HW137880   4.459  11.840   0.107
78702SOL    HW237881   4.480  11.990   0.117
78703SOL     OW37882   9.724   4.440  13.310
78703SOL    HW137883   9.703   4.437  13.216
78703SOL    HW237884   9.702   4.530  13.336
78704SOL     OW37885   3.339   7.972   5.592
78704SOL    HW137886   3.352   8.067   5.593
78704SOL    HW237887   3.313   7.952   5.503
78705SOL     OW37888  11.577   0.749   6.248
78705SOL    HW137889  11.491   0.791   6.242
78705SOL    HW237890  11.571   0.691   6.324
78706SOL     OW37891   0.237  11.309   7.428
78706SOL    HW137892   0.292  11.239   7.463
78706SOL    HW237893   0.249  11.382   7.488
78707SOL     OW37894  13.015  13.963  10.029
78707SOL    HW137895  13.021  14.011   9.947
78707SOL    HW237896  13.092  13.990  10.079
78708SOL     OW37897   8.870  14.682   9.391
78708SOL    HW137898   8.797  14.621   9.401
78708SOL    HW237899   8.942  14.641   9.438
78709SOL     OW37900   7.852   1.570   6.472
78709SOL    HW137901   7.785   1.505   6.492
78709SOL    HW237902   7.918   1.523   6.422
78710SOL     OW37903   5.229   8.721  12.883
78710SOL    HW137904   5.281   8.641  12.886
78710SOL    HW237905   5.225   8.744  12.790
78711SOL     OW37906   5.165   1.506   7.440
78711SOL    HW137907   5.173   1.492   7.534
78711SOL    HW237908   5.156   1.418   7.403
78712SOL     OW37909   6.440   6.218   7.752
78712SOL    HW137910   6.351   6.206   7.719
78712SOL    HW237911   6.459   6.310   7.737
78713SOL     OW37912  13.225  12.241   5.509
78713SOL    HW137913  13.136  12.211   5.525
78713SOL    HW237914  13.268  12.168   5.465
78714SOL     OW37915   4.340  14.354   6.174
78714SOL    HW137916   4.277  14.326   6.241
78714SOL    HW237917   4.351  14.278   6.118
78715SOL     OW37918  12.770   8.133  11.112
78715SOL    HW137919  12.675   8.144  11.107
78715SOL    HW237920  12.805   8.219  11.091
78716SOL     OW37921   3.966   1.855   2.579
78716SOL    HW137922   3.983   1.896   2.664
78716SOL    HW237923   4.041   1.880   2.525
78717SOL     OW37924   6.271   1.084   6.015
78717SOL    HW137925   6.180   1.106   6.034
78717SOL    HW237926   6.317   1.099   6.097
78718SOL     OW37927   0.759   7.514  14.808
78718SOL    HW137928   0.762   7.452   0.003
78718SOL    HW237929   0.839   7.566  14.818
78719SOL     OW37930   5.202   2.707  12.552
78719SOL    HW137931   5.277   2.650  12.535
78719SOL    HW237932   5.127   2.648  12.558
78720SOL     OW37933  14.607   7.466   5.333
78720SOL    HW137934  14.684   7.429   5.290
78720SOL    HW237935  14.573   7.530   5.271
78721SOL     OW37936  13.047   6.986   3.199
78721SOL    HW137937  13.031   6.893   3.216
78721SOL    HW237938  13.108   7.013   3.268
78722SOL     OW37939   6.700   5.746   3.232
78722SOL    HW137940   6.631   5.780   3.289
78722SOL    HW237941   6.656   5.730   3.148
78723SOL     OW37942  14.199   0.280   5.099
78723SOL    HW137943  14.121   0.332   5.117
78723SOL    HW237944  14.166   0.198   5.062
78724SOL     OW37945   5.303   9.750  13.588
78724SOL    HW137946   5.308   9.683  13.656
78724SOL    HW237947   5.210   9.753  13.565
78725SOL     OW37948   5.444   8.169   0.413
78725SOL    HW137949   5.390   8.134   0.484
78725SOL    HW237950   5.486   8.092   0.374
78726SOL     OW37951   1.728  13.289   1.593
78726SOL    HW137952   1.746  13.199   1.566
78726SOL    HW237953   1.758  13.294   1.683
78727SOL     OW37954  14.814   7.567  10.529
78727SOL    HW137955  14.765   7.585  10.448
78727SOL    HW237956  14.752   7.519  10.584
78728SOL     OW37957  11.376   0.699   8.987
78728SOL    HW137958  11.407   0.623   9.037
78728SOL    HW237959  11.454   0.749   8.967
78729SOL     OW37960   9.060   9.338   3.911
78729SOL    HW137961   9.095   9.254   3.881
78729SOL    HW237962   8.981   9.351   3.858
78730SOL     OW37963   6.902   8.588   0.059
78730SOL    HW137964   6.967   8.587   0.130
78730SOL    HW237965   6.844   8.514   0.078
78731SOL     OW37966   0.510   6.889  10.475
78731SOL    HW137967   0.547   6.852  10.555
78731SOL    HW237968   0.579   6.946  10.440
78732SOL     OW37969   0.333   5.134   9.047
78732SOL    HW137970   0.353   5.226   9.029
78732SOL    HW237971   0.372   5.117   9.133
78733SOL     OW37972   0.943  10.922   9.380
78733SOL    HW137973   0.921  10.829   9.385
78733SOL    HW237974   0.960  10.947   9.471
78734SOL     OW37975   5.828   5.312   8.083
78734SOL    HW137976   5.835   5.297   7.989
78734SOL    HW237977   5.859   5.231   8.124
78735SOL     OW37978   2.544   0.294  11.935
78735SOL    HW137979   2.563   0.298  12.029
78735SOL    HW237980   2.554   0.201  11.914
78736SOL     OW37981  13.713   3.766   9.112
78736SOL    HW137982  13.645   3.745   9.176
78736SOL    HW237983  13.776   3.695   9.119
78737SOL     OW37984  11.041   6.206  11.073
78737SOL    HW137985  11.091   6.165  11.144
78737SOL    HW237986  10.953   6.217  11.109
78738SOL     OW37987  11.740   4.634   5.401
78738SOL    HW137988  11.805   4.598   5.340
78738SOL    HW237989  11.717   4.560   5.457
78739SOL     OW37990  11.224  14.549  14.424
78739SOL    HW137991  11.236  14.615  14.355
78739SOL    HW237992  11.131  14.527  14.420
78740SOL     OW37993  12.297   5.947  12.049
78740SOL    HW137994  12.213   5.930  12.091
78740SOL    HW237995  12.288   5.910  11.961
78741SOL     OW37996  11.065   8.456   9.671
78741SOL    HW137997  10.972   8.444   9.688
78741SOL    HW237998  11.093   8.522   9.736
78742SOL     OW37999   7.580   5.491   5.470
78742SOL    HW138000   7.514   5.422   5.468
78742SOL    HW238001   7.663   5.446   5.456
78743SOL     OW38002  13.136  11.480  11.436
78743SOL    HW138003  13.057  11.470  11.488
78743SOL    HW238004  13.123  11.422  11.361
78744SOL     OW38005   9.683   0.830   7.007
78744SOL    HW138006   9.649   0.852   6.921
78744SOL    HW238007   9.767   0.876   7.012
78745SOL     OW38008   4.292   1.319   9.685
78745SOL    HW138009   4.332   1.304   9.771
78745SOL    HW238010   4.350   1.382   9.642
78746SOL     OW38011  14.312  11.301   8.488
78746SOL    HW138012  14.271  11.388   8.485
78746SOL    HW238013  14.265  11.250   8.422
78747SOL     OW38014   8.119   5.190  11.199
78747SOL    HW138015   8.105   5.210  11.106
78747SOL    HW238016   8.096   5.271  11.245
78748SOL     OW38017  13.683   5.816   6.379
78748SOL    HW138018  13.677   5.759   6.456
78748SOL    HW238019  13.710   5.757   6.308
78749SOL     OW38020  13.088  10.358   8.814
78749SOL    HW138021  13.008  10.339   8.862
78749SOL    HW238022  13.158  10.345   8.877
78750SOL     OW38023   1.218   9.586  10.583
78750SOL    HW138024   1.227   9.645  10.507
78750SOL    HW238025   1.307   9.580  10.619
78751SOL     OW38026   0.076   8.163  12.973
78751SOL    HW138027  14.870   8.124  12.995
78751SOL    HW238028   0.059   8.215  12.895
78752SOL     OW38029   6.264  13.072   1.662
78752SOL    HW138030   6.234  13.162   1.647
78752SOL    HW238031   6.347  13.066   1.613
78753SOL     OW38032  14.452   8.577   1.837
78753SOL    HW138033  14.484   8.502   1.786
78753SOL    HW238034  14.358   8.578   1.821
78754SOL     OW38035  10.419   4.311   5.037
78754SOL    HW138036  10.431   4.227   5.083
78754SOL    HW238037  10.357   4.359   5.092
78755SOL     OW38038  12.967   1.880   3.790
78755SOL    HW138039  12.982   1.797   3.746
78755SOL    HW238040  12.878   1.873   3.826
78756SOL     OW38041  14.234   0.638  13.321
78756SOL    HW138042  14.272   0.606  13.403
78756SOL    HW238043  14.276   0.585  13.253
78757SOL     OW38044   3.669  11.214   1.514
78757SOL    HW138045   3.755  11.192   1.478
78757SOL    HW238046   3.633  11.278   1.452
78758SOL     OW38047  10.708   1.650   8.625
78758SOL    HW138048  10.638   1.704   8.590
78758SOL    HW238049  10.717   1.678   8.716
78759SOL     OW38050   8.397   2.932  12.614
78759SOL    HW138051   8.422   2.990  12.543
78759SOL    HW238052   8.323   2.882  12.580
78760SOL     OW38053   9.767   9.040   7.320
78760SOL    HW138054   9.780   8.959   7.369
78760SOL    HW238055   9.848   9.051   7.270
78761SOL     OW38056   1.557   5.338  13.169
78761SOL    HW138057   1.528   5.392  13.243
78761SOL    HW238058   1.640   5.300  13.198
78762SOL     OW38059   9.043  11.181  13.277
78762SOL    HW138060   9.065  11.240  13.204
78762SOL    HW238061   8.964  11.135  13.247
78763SOL     OW38062  12.217   8.096  13.767
78763SOL    HW138063  12.219   8.018  13.823
78763SOL    HW238064  12.283   8.079  13.700
78764SOL     OW38065  10.917   3.882  13.948
78764SOL    HW138066  10.849   3.915  13.889
78764SOL    HW238067  10.936   3.794  13.916
78765SOL     OW38068   9.854   9.318  13.380
78765SOL    HW138069   9.910   9.242  13.394
78765SOL    HW238070   9.782   9.285  13.327
78766SOL     OW38071   9.737  11.143  14.104
78766SOL    HW138072   9.680  11.132  14.028
78766SOL    HW238073   9.698  11.087  14.171
78767SOL     OW38074  10.567   1.541   7.881
78767SOL    HW138075  10.480   1.502   7.881
78767SOL    HW238076  10.589   1.552   7.974
78768SOL     OW38077  10.203  11.391   6.500
78768SOL    HW138078  10.175  11.448   6.429
78768SOL    HW238079  10.297  11.382   6.488
78769SOL     OW38080   9.978   5.846  12.772
78769SOL    HW138081  10.004   5.936  12.756
78769SOL    HW238082  10.060   5.800  12.788
78770SOL     OW38083   0.872   8.936  13.135
78770SOL    HW138084   0.846   8.843  13.138
78770SOL    HW238085   0.819   8.977  13.204
78771SOL     OW38086  10.256  11.927   2.025
78771SOL    HW138087  10.298  11.949   2.107
78771SOL    HW238088  10.323  11.943   1.958
78772SOL     OW38089   0.283   6.511   1.186
78772SOL    HW138090   0.298   6.497   1.279
78772SOL    HW238091   0.366   6.548   1.153
78773SOL     OW38092  12.649   8.388   5.659
78773SOL    HW138093  12.580   8.335   5.698
78773SOL    HW238094  12.724   8.329   5.654
78774SOL     OW38095   5.893   1.908   3.888
78774SOL    HW138096   5.960   1.900   3.955
78774SOL    HW238097   5.823   1.958   3.930
78775SOL     OW38098   9.796  12.270   1.069
78775SOL    HW138099   9.843  12.226   0.998
78775SOL    HW238100   9.859  12.332   1.105
78776SOL     OW38101  12.094  13.503   4.215
78776SOL    HW138102  12.037  13.444   4.264
78776SOL    HW238103  12.049  13.517   4.132
78777SOL     OW38104   7.356   6.889   9.783
78777SOL    HW138105   7.308   6.891   9.867
78777SOL    HW238106   7.288   6.875   9.717
78778SOL     OW38107   0.486   2.051  14.310
78778SOL    HW138108   0.571   2.093  14.318
78778SOL    HW238109   0.477   1.997  14.389
78779SOL     OW38110   7.621   9.092   3.387
78779SOL    HW138111   7.698   9.122   3.339
78779SOL    HW238112   7.552   9.087   3.322
78780SOL     OW38113  12.624   5.573   2.874
78780SOL    HW138114  12.645   5.646   2.932
78780SOL    HW238115  12.591   5.614   2.794
78781SOL     OW38116   0.326   4.971  13.360
78781SOL    HW138117   0.392   4.921  13.312
78781SOL    HW238118   0.377   5.032  13.414
78782SOL     OW38119   9.339  10.311   6.245
78782SOL    HW138120   9.245  10.325   6.260
78782SOL    HW238121   9.342  10.249   6.172
78783SOL     OW38122   6.025   0.318   7.655
78783SOL    HW138123   5.973   0.244   7.686
78783SOL    HW238124   5.961   0.380   7.621
78784SOL     OW38125   1.976  10.216  10.762
78784SOL    HW138126   1.954  10.288  10.702
78784SOL    HW238127   1.907  10.219  10.829
78785SOL     OW38128  12.497   1.829  10.999
78785SOL    HW138129  12.531   1.743  10.976
78785SOL    HW238130  12.494   1.876  10.916
78786SOL     OW38131   5.034  12.725  14.502
78786SOL    HW138132   4.967  12.781  14.463
78786SOL    HW238133   4.994  12.637  14.502
78787SOL     OW38134   5.219   3.070  13.473
78787SOL    HW138135   5.242   3.052  13.382
78787SOL    HW238136   5.299   3.103  13.513
78788SOL     OW38137  10.888   1.522  12.387
78788SOL    HW138138  10.866   1.446  12.441
78788SOL    HW238139  10.853   1.502  12.300
78789SOL     OW38140   5.298   3.112  11.296
78789SOL    HW138141   5.316   3.162  11.217
78789SOL    HW238142   5.218   3.063  11.276
78790SOL     OW38143  10.306  13.725   9.132
78790SOL    HW138144  10.339  13.744   9.220
78790SOL    HW238145  10.263  13.805   9.104
78791SOL     OW38146   2.793  13.782  13.498
78791SOL    HW138147   2.837  13.846  13.553
78791SOL    HW238148   2.774  13.829  13.417
78792SOL     OW38149   2.896   9.689   7.391
78792SOL    HW138150   2.899   9.711   7.484
78792SOL    HW238151   2.803   9.695   7.368
78793SOL     OW38152  10.031   4.067   6.051
78793SOL    HW138153  10.041   4.162   6.054
78793SOL    HW238154  10.057   4.043   5.962
78794SOL     OW38155   5.157  11.318   7.533
78794SOL    HW138156   5.087  11.277   7.583
78794SOL    HW238157   5.116  11.347   7.452
78795SOL     OW38158  14.530   8.358  10.481
78795SOL    HW138159  14.501   8.318  10.399
78795SOL    HW238160  14.469   8.430  10.496
78796SOL     OW38161   0.033  14.524   9.501
78796SOL    HW138162   0.099  14.499   9.435
78796SOL    HW238163  14.852  14.583   9.454
78797SOL     OW38164  12.580  12.650  11.228
78797SOL    HW138165  12.518  12.584  11.258
78797SOL    HW238166  12.654  12.642  11.288
78798SOL     OW38167   0.078   8.163   2.978
78798SOL    HW138168   0.081   8.239   2.920
78798SOL    HW238169  14.874   8.175   3.028
78799SOL     OW38170   9.490   3.444   6.869
78799SOL    HW138171   9.570   3.483   6.906
78799SOL    HW238172   9.498   3.459   6.775
78800SOL     OW38173   1.444  14.705   1.223
78800SOL    HW138174   1.381  14.662   1.280
78800SOL    HW238175   1.435  14.798   1.243
78801SOL     OW38176   6.742  14.579   9.126
78801SOL    HW138177   6.821  14.551   9.079
78801SOL    HW238178   6.747  14.535   9.210
78802SOL     OW38179   6.120   1.243   3.774
78802SOL    HW138180   6.160   1.227   3.689
78802SOL    HW238181   6.194   1.255   3.834
78803SOL     OW38182   0.688   0.417   8.635
78803SOL    HW138183   0.782   0.420   8.614
78803SOL    HW238184   0.682   0.358   8.711
78804SOL     OW38185   4.911   5.876   5.356
78804SOL    HW138186   4.841   5.815   5.334
78804SOL    HW238187   4.877   5.962   5.329
78805SOL     OW38188   8.873  14.363  10.628
78805SOL    HW138189   8.824  14.310  10.565
78805SOL    HW238190   8.965  14.343  10.609
78806SOL     OW38191  12.981   0.199  12.789
78806SOL    HW138192  13.044   0.261  12.827
78806SOL    HW238193  13.017   0.113  12.811
78807SOL     OW38194   5.094   4.259   5.614
78807SOL    HW138195   5.027   4.236   5.680
78807SOL    HW238196   5.162   4.193   5.625
78808SOL     OW38197  12.454  14.356   6.119
78808SOL    HW138198  12.508  14.405   6.058
78808SOL    HW238199  12.509  14.284   6.149
78809SOL     OW38200   2.621   4.778  12.994
78809SOL    HW138201   2.632   4.757  12.901
78809SOL    HW238202   2.582   4.865  12.994
78810SOL     OW38203   9.391  13.061   7.111
78810SOL    HW138204   9.479  13.034   7.136
78810SOL    HW238205   9.342  12.979   7.102
78811SOL     OW38206   3.297   4.760   9.356
78811SOL    HW138207   3.380   4.802   9.378
78811SOL    HW238208   3.231   4.809   9.405
78812SOL     OW38209  14.086   8.274   6.972
78812SOL    HW138210  14.068   8.180   6.978
78812SOL    HW238211  14.174   8.279   6.933
78813SOL     OW38212   8.257   0.293  11.393
78813SOL    HW138213   8.194   0.346  11.343
78813SOL    HW238214   8.256   0.332  11.481
78814SOL     OW38215  13.182  10.783   6.612
78814SOL    HW138216  13.118  10.854   6.621
78814SOL    HW238217  13.201  10.780   6.518
78815SOL     OW38218   4.928   9.139  14.344
78815SOL    HW138219   4.926   9.057  14.295
78815SOL    HW238220   4.955   9.205  14.280
78816SOL     OW38221   4.651  10.434   2.538
78816SOL    HW138222   4.602  10.500   2.588
78816SOL    HW238223   4.593  10.413   2.464
78817SOL     OW38224  13.906   9.875   0.169
78817SOL    HW138225  13.841   9.883   0.099
78817SOL    HW238226  13.986   9.913   0.132
78818SOL     OW38227   1.645   7.646   3.637
78818SOL    HW138228   1.677   7.643   3.547
78818SOL    HW238229   1.671   7.562   3.674
78819SOL     OW38230   2.870  13.010   4.511
78819SOL    HW138231   2.794  13.068   4.511
78819SOL    HW238232   2.942  13.064   4.480
78820SOL     OW38233  11.118   5.837   0.435
78820SOL    HW138234  11.084   5.920   0.402
78820SOL    HW238235  11.063   5.818   0.511
78821SOL     OW38236  13.157  10.713   7.185
78821SOL    HW138237  13.209  10.722   7.105
78821SOL    HW238238  13.221  10.722   7.256
78822SOL     OW38239   7.827  12.679   0.269
78822SOL    HW138240   7.744  12.669   0.224
78822SOL    HW238241   7.857  12.767   0.246
78823SOL     OW38242   5.936   2.720   8.505
78823SOL    HW138243   5.878   2.707   8.430
78823SOL    HW238244   5.953   2.631   8.537
78824SOL     OW38245   9.630   5.120   9.100
78824SOL    HW138246   9.594   5.207   9.118
78824SOL    HW238247   9.631   5.113   9.005
78825SOL     OW38248   2.093   0.100   4.344
78825SOL    HW138249   2.167   0.138   4.391
78825SOL    HW238250   2.090   0.009   4.373
78826SOL     OW38251  12.025  11.747   5.339
78826SOL    HW138252  11.932  11.746   5.316
78826SOL    HW238253  12.026  11.770   5.432
78827SOL     OW38254   1.239   4.488   4.677
78827SOL    HW138255   1.270   4.447   4.757
78827SOL    HW238256   1.222   4.416   4.617
78828SOL     OW38257   0.465   0.720   1.159
78828SOL    HW138258   0.490   0.810   1.136
78828SOL    HW238259   0.388   0.730   1.216
78829SOL     OW38260   9.598  14.437   9.504
78829SOL    HW138261   9.650  14.512   9.473
78829SOL    HW238262   9.660  14.364   9.504
78830SOL     OW38263   4.514   2.208   3.252
78830SOL    HW138264   4.571   2.284   3.240
78830SOL    HW238265   4.543   2.145   3.187
78831SOL     OW38266   5.710   3.588   9.217
78831SOL    HW138267   5.632   3.533   9.228
78831SOL    HW238268   5.769   3.561   9.287
78832SOL     OW38269   6.009   8.314   1.440
78832SOL    HW138270   6.070   8.282   1.374
78832SOL    HW238271   5.969   8.391   1.399
78833SOL     OW38272  13.083   7.980   7.262
78833SOL    HW138273  13.164   7.947   7.221
78833SOL    HW238274  13.113   8.030   7.338
78834SOL     OW38275   6.921   7.691   7.130
78834SOL    HW138276   6.975   7.738   7.194
78834SOL    HW238277   6.973   7.691   7.050
78835SOL     OW38278   8.819   9.583   2.896
78835SOL    HW138279   8.841   9.582   2.989
78835SOL    HW238280   8.732   9.546   2.890
78836SOL     OW38281  13.037   9.258   4.985
78836SOL    HW138282  13.092   9.277   4.910
78836SOL    HW238283  13.087   9.194   5.036
78837SOL     OW38284   7.093   6.775  10.361
78837SOL    HW138285   7.000   6.751  10.356
78837SOL    HW238286   7.095   6.868  10.341
78838SOL     OW38287   8.656   3.942   6.601
78838SOL    HW138288   8.682   4.035   6.602
78838SOL    HW238289   8.584   3.937   6.663
78839SOL     OW38290  13.612  14.083   9.401
78839SOL    HW138291  13.572  14.008   9.444
78839SOL    HW238292  13.645  14.048   9.318
78840SOL     OW38293   7.248  12.553   2.102
78840SOL    HW138294   7.161  12.592   2.086
78840SOL    HW238295   7.246  12.526   2.194
78841SOL     OW38296  12.182  10.044   4.955
78841SOL    HW138297  12.128   9.995   5.016
78841SOL    HW238298  12.265  10.058   5.002
78842SOL     OW38299  13.247  11.384   0.199
78842SOL    HW138300  13.209  11.462   0.239
78842SOL    HW238301  13.201  11.375   0.116
78843SOL     OW38302   2.822  11.932  11.505
78843SOL    HW138303   2.827  12.008  11.563
78843SOL    HW238304   2.741  11.943  11.456
78844SOL     OW38305  14.200  11.390  13.799
78844SOL    HW138306  14.165  11.418  13.714
78844SOL    HW238307  14.269  11.328  13.777
78845SOL     OW38308   2.512  12.055  12.611
78845SOL    HW138309   2.510  11.977  12.667
78845SOL    HW238310   2.486  12.126  12.669
78846SOL     OW38311  14.780  13.686   7.576
78846SOL    HW138312  14.756  13.594   7.586
78846SOL    HW238313  14.793  13.698   7.482
78847SOL     OW38314   3.591   9.257   1.417
78847SOL    HW138315   3.594   9.351   1.434
78847SOL    HW238316   3.597   9.249   1.322
78848SOL     OW38317   1.247   7.795   3.529
78848SOL    HW138318   1.232   7.750   3.445
78848SOL    HW238319   1.211   7.734   3.594
78849SOL     OW38320   8.447   0.228   1.678
78849SOL    HW138321   8.517   0.277   1.635
78849SOL    HW238322   8.487   0.145   1.703
78850SOL     OW38323   1.359   8.877  13.056
78850SOL    HW138324   1.450   8.908  13.056
78850SOL    HW238325   1.352   8.823  13.135
78851SOL     OW38326   3.839   3.719  14.545
78851SOL    HW138327   3.883   3.781  14.603
78851SOL    HW238328   3.827   3.640  14.599
78852SOL     OW38329   3.302   0.954  13.262
78852SOL    HW138330   3.392   0.956  13.294
78852SOL    HW238331   3.290   0.866  13.227
78853SOL     OW38332   4.920   9.359  11.461
78853SOL    HW138333   4.931   9.431  11.398
78853SOL    HW238334   4.838   9.380  11.507
78854SOL     OW38335  14.507   6.502   5.291
78854SOL    HW138336  14.481   6.588   5.258
78854SOL    HW238337  14.441   6.442   5.255
78855SOL     OW38338  14.752  12.823  11.125
78855SOL    HW138339  14.751  12.908  11.168
78855SOL    HW238340  14.767  12.760  11.196
78856SOL     OW38341  10.944   0.611  12.813
78856SOL    HW138342  10.930   0.526  12.770
78856SOL    HW238343  10.987   0.588  12.895
78857SOL     OW38344  14.156   9.164  10.226
78857SOL    HW138345  14.074   9.208  10.204
78857SOL    HW238346  14.187   9.209  10.305
78858SOL     OW38347  11.931  14.502   5.241
78858SOL    HW138348  11.874  14.542   5.308
78858SOL    HW238349  12.020  14.513   5.275
78859SOL     OW38350   4.085   1.775   8.263
78859SOL    HW138351   4.029   1.723   8.206
78859SOL    HW238352   4.149   1.815   8.204
78860SOL     OW38353   9.295  12.145   9.754
78860SOL    HW138354   9.210  12.158   9.713
78860SOL    HW238355   9.283  12.068   9.810
78861SOL     OW38356  10.931   9.641   1.639
78861SOL    HW138357  10.861   9.643   1.574
78861SOL    HW238358  10.920   9.557   1.684
78862SOL     OW38359   2.424   1.184  10.427
78862SOL    HW138360   2.429   1.277  10.450
78862SOL    HW238361   2.360   1.180  10.356
78863SOL     OW38362   5.396   2.050  11.060
78863SOL    HW138363   5.392   2.047  10.964
78863SOL    HW238364   5.422   2.140  11.081
78864SOL     OW38365   2.024   9.420   2.353
78864SOL    HW138366   2.056   9.482   2.418
78864SOL    HW238367   2.103   9.377   2.320
78865SOL     OW38368   3.250  10.303   7.212
78865SOL    HW138369   3.277  10.364   7.280
78865SOL    HW238370   3.313  10.317   7.141
78866SOL     OW38371  10.181  14.290  13.796
78866SOL    HW138372  10.249  14.358  13.802
78866SOL    HW238373  10.198  14.246  13.713
78867SOL     OW38374  10.407   0.869  10.656
78867SOL    HW138375  10.466   0.829  10.592
78867SOL    HW238376  10.430   0.828  10.739
78868SOL     OW38377   9.196  14.384  13.940
78868SOL    HW138378   9.274  14.379  13.996
78868SOL    HW238379   9.124  14.403  14.001
78869SOL     OW38380   8.695   3.683   9.415
78869SOL    HW138381   8.669   3.601   9.457
78869SOL    HW238382   8.745   3.730   9.483
78870SOL     OW38383  14.441   8.554  13.402
78870SOL    HW138384  14.497   8.486  13.440
78870SOL    HW238385  14.440   8.534  13.308
78871SOL     OW38386   1.379   3.686   3.079
78871SOL    HW138387   1.292   3.724   3.090
78871SOL    HW238388   1.430   3.754   3.034
78872SOL     OW38389  12.691   8.003   9.274
78872SOL    HW138390  12.725   8.068   9.335
78872SOL    HW238391  12.610   7.971   9.315
78873SOL     OW38392  11.807   6.156   8.550
78873SOL    HW138393  11.793   6.182   8.459
78873SOL    HW238394  11.879   6.210   8.580
78874SOL     OW38395   8.960   9.274  10.208
78874SOL    HW138396   8.941   9.180  10.200
78874SOL    HW238397   8.944   9.294  10.300
78875SOL     OW38398   1.496   3.786   7.627
78875SOL    HW138399   1.513   3.731   7.551
78875SOL    HW238400   1.476   3.724   7.697
78876SOL     OW38401  12.134  13.678   5.103
78876SOL    HW138402  12.109  13.624   5.028
78876SOL    HW238403  12.111  13.626   5.180
78877SOL     OW38404   9.984  10.374   7.940
78877SOL    HW138405  10.063  10.417   7.909
78877SOL    HW238406   9.947  10.434   8.005
78878SOL     OW38407   9.305   4.375   8.473
78878SOL    HW138408   9.286   4.405   8.562
78878SOL    HW238409   9.219   4.367   8.432
78879SOL     OW38410   3.233   2.314  12.541
78879SOL    HW138411   3.162   2.255  12.568
78879SOL    HW238412   3.190   2.399  12.529
78880SOL     OW38413  11.504   5.738  12.023
78880SOL    HW138414  11.478   5.667  12.083
78880SOL    HW238415  11.435   5.738  11.956
78881SOL     OW38416  14.507  11.080  11.505
78881SOL    HW138417  14.496  11.130  11.424
78881SOL    HW238418  14.433  11.107  11.560
78882SOL     OW38419  13.082   0.910  14.182
78882SOL    HW138420  13.045   0.989  14.144
78882SOL    HW238421  13.122   0.938  14.264
78883SOL     OW38422   0.951  14.686   7.262
78883SOL    HW138423   0.973  14.751   7.329
78883SOL    HW238424   0.877  14.724   7.215
78884SOL     OW38425   4.882   9.049   9.586
78884SOL    HW138426   4.876   9.085   9.498
78884SOL    HW238427   4.885   9.126   9.643
78885SOL     OW38428   5.503  11.749  14.776
78885SOL    HW138429   5.410  11.727  14.773
78885SOL    HW238430   5.510  11.833  14.732
78886SOL     OW38431  14.813   4.330   6.356
78886SOL    HW138432  14.724   4.344   6.323
78886SOL    HW238433  14.809   4.356   6.448
78887SOL     OW38434  10.941   6.984  10.195
78887SOL    HW138435  10.994   6.907  10.216
78887SOL    HW238436  10.954   7.043  10.269
78888SOL     OW38437   3.186   6.341   9.544
78888SOL    HW138438   3.187   6.285   9.466
78888SOL    HW238439   3.096   6.337   9.575
78889SOL     OW38440   9.387   2.444   1.561
78889SOL    HW138441   9.463   2.429   1.618
78889SOL    HW238442   9.420   2.501   1.491
78890SOL     OW38443   6.144   7.878   3.431
78890SOL    HW138444   6.097   7.925   3.362
78890SOL    HW238445   6.173   7.945   3.492
78891SOL     OW38446  13.501   1.201   8.887
78891SOL    HW138447  13.478   1.109   8.899
78891SOL    HW238448  13.516   1.211   8.793
78892SOL     OW38449   5.745  11.394   2.845
78892SOL    HW138450   5.751  11.299   2.842
78892SOL    HW238451   5.828  11.423   2.881
78893SOL     OW38452  13.898   9.813   3.277
78893SOL    HW138453  13.978   9.759   3.277
78893SOL    HW238454  13.890   9.843   3.187
78894SOL     OW38455  11.253   2.498   3.871
78894SOL    HW138456  11.215   2.448   3.799
78894SOL    HW238457  11.218   2.587   3.860
78895SOL     OW38458  11.911   3.424   5.370
78895SOL    HW138459  11.952   3.338   5.361
78895SOL    HW238460  11.822   3.404   5.400
78896SOL     OW38461  11.185   9.861   0.702
78896SOL    HW138462  11.122   9.854   0.775
78896SOL    HW238463  11.270   9.873   0.745
78897SOL     OW38464   0.563  10.541  10.455
78897SOL    HW138465   0.519  10.510  10.376
78897SOL    HW238466   0.542  10.475  10.521
78898SOL     OW38467   8.200   5.560   2.059
78898SOL    HW138468   8.284   5.543   2.101
78898SOL    HW238469   8.193   5.655   2.057
78899SOL     OW38470  10.763   2.545  10.521
78899SOL    HW138471  10.676   2.526  10.484
78899SOL    HW238472  10.746   2.560  10.614
78900SOL     OW38473  10.619  12.880  11.839
78900SOL    HW138474  10.566  12.940  11.893
78900SOL    HW238475  10.563  12.861  11.764
78901SOL     OW38476   3.894  11.607  14.853
78901SOL    HW138477   3.847  11.633  14.773
78901SOL    HW238478   3.876  11.514  14.863
78902SOL     OW38479   0.158  13.289   3.089
78902SOL    HW138480   0.141  13.381   3.067
78902SOL    HW238481   0.142  13.284   3.183
78903SOL     OW38482  14.404  13.211   7.784
78903SOL    HW138483  14.373  13.301   7.780
78903SOL    HW238484  14.329  13.161   7.815
78904SOL     OW38485   6.055   2.698  13.467
78904SOL    HW138486   5.974   2.656  13.497
78904SOL    HW238487   6.123   2.633  13.484
78905SOL     OW38488  14.779   3.092   2.096
78905SOL    HW138489  14.825   3.106   2.013
78905SOL    HW238490  14.753   3.000   2.095
78906SOL     OW38491  13.399  12.605  11.582
78906SOL    HW138492  13.313  12.592  11.542
78906SOL    HW238493  13.419  12.521  11.623
78907SOL     OW38494   3.673  14.029   0.833
78907SOL    HW138495   3.767  14.033   0.850
78907SOL    HW238496   3.663  14.068   0.745
78908SOL     OW38497  14.278   4.601   2.365
78908SOL    HW138498  14.260   4.580   2.456
78908SOL    HW238499  14.374   4.594   2.358
78909SOL     OW38500   1.009  13.304   7.635
78909SOL    HW138501   0.936  13.367   7.631
78909SOL    HW238502   0.981  13.238   7.698
78910SOL     OW38503  13.439   3.924   8.252
78910SOL    HW138504  13.426   4.016   8.278
78910SOL    HW238505  13.352   3.885   8.262
78911SOL     OW38506   6.535  14.679   1.298
78911SOL    HW138507   6.523  14.754   1.356
78911SOL    HW238508   6.485  14.609   1.339
78912SOL     OW38509   7.170  10.909   6.974
78912SOL    HW138510   7.254  10.903   7.019
78912SOL    HW238511   7.182  10.978   6.909
78913SOL     OW38512   9.700   8.825   8.920
78913SOL    HW138513   9.618   8.778   8.936
78913SOL    HW238514   9.761   8.789   8.985
78914SOL     OW38515   8.149  10.723   9.460
78914SOL    HW138516   8.121  10.800   9.509
78914SOL    HW238517   8.089  10.653   9.488
78915SOL     OW38518   0.370   4.518   1.888
78915SOL    HW138519   0.354   4.595   1.833
78915SOL    HW238520   0.348   4.444   1.832
78916SOL     OW38521   3.472   3.834  13.816
78916SOL    HW138522   3.422   3.878  13.748
78916SOL    HW238523   3.421   3.849  13.896
78917SOL     OW38524  14.842  10.877  10.767
78917SOL    HW138525  14.760  10.827  10.769
78917SOL    HW238526  14.875  10.872  10.857
78918SOL     OW38527   5.268   6.945  11.614
78918SOL    HW138528   5.225   7.029  11.601
78918SOL    HW238529   5.357   6.967  11.640
78919SOL     OW38530   0.714   6.118  13.058
78919SOL    HW138531   0.787   6.065  13.090
78919SOL    HW238532   0.752   6.205  13.046
78920SOL     OW38533  13.619   1.917   8.134
78920SOL    HW138534  13.621   1.829   8.095
78920SOL    HW238535  13.683   1.967   8.084
78921SOL     OW38536  13.076   1.247   3.952
78921SOL    HW138537  13.019   1.271   4.024
78921SOL    HW238538  13.080   1.325   3.896
78922SOL     OW38539   7.273   4.598  11.475
78922SOL    HW138540   7.344   4.648  11.514
78922SOL    HW238541   7.290   4.601  11.381
78923SOL     OW38542   9.607   3.133   0.028
78923SOL    HW138543   9.610   3.227   0.045
78923SOL    HW238544   9.522   3.118  14.866
78924SOL     OW38545  11.834   4.914   2.487
78924SOL    HW138546  11.913   4.870   2.518
78924SOL    HW238547  11.847   4.925   2.393
78925SOL     OW38548   0.094   2.612   1.648
78925SOL    HW138549   0.099   2.531   1.698
78925SOL    HW238550   0.001   2.635   1.648
78926SOL     OW38551   3.933   3.179   4.169
78926SOL    HW138552   3.938   3.084   4.177
78926SOL    HW238553   3.852   3.203   4.213
78927SOL     OW38554   7.861   6.745   7.473
78927SOL    HW138555   7.847   6.835   7.501
78927SOL    HW238556   7.827   6.692   7.545
78928SOL     OW38557   6.436   5.033   5.155
78928SOL    HW138558   6.389   5.116   5.150
78928SOL    HW238559   6.470   5.029   5.244
78929SOL     OW38560  12.456  11.065  13.948
78929SOL    HW138561  12.503  11.045  13.867
78929SOL    HW238562  12.525  11.080  14.012
78930SOL     OW38563   3.593   4.930  10.244
78930SOL    HW138564   3.665   4.950  10.305
78930SOL    HW238565   3.632   4.870  10.181
78931SOL     OW38566  12.361   5.546   9.600
78931SOL    HW138567  12.425   5.603   9.642
78931SOL    HW238568  12.373   5.461   9.644
78932SOL     OW38569   9.126   8.327   2.110
78932SOL    HW138570   9.145   8.236   2.129
78932SOL    HW238571   9.035   8.339   2.138
78933SOL     OW38572   4.506   4.479   0.373
78933SOL    HW138573   4.487   4.393   0.409
78933SOL    HW238574   4.495   4.469   0.279
78934SOL     OW38575   9.477   5.810   4.458
78934SOL    HW138576   9.449   5.732   4.507
78934SOL    HW238577   9.570   5.796   4.442
78935SOL     OW38578   5.524   0.646   7.616
78935SOL    HW138579   5.528   0.621   7.523
78935SOL    HW238580   5.602   0.700   7.629
78936SOL     OW38581  13.234   7.145  11.519
78936SOL    HW138582  13.196   7.137  11.606
78936SOL    HW238583  13.329   7.145  11.533
78937SOL     OW38584   3.528   9.857  13.161
78937SOL    HW138585   3.565   9.943  13.181
78937SOL    HW238586   3.578   9.797  13.216
78938SOL     OW38587   7.311   1.688   2.008
78938SOL    HW138588   7.221   1.715   1.996
78938SOL    HW238589   7.305   1.604   2.054
78939SOL     OW38590   1.447  14.427   9.343
78939SOL    HW138591   1.480  14.399   9.258
78939SOL    HW238592   1.473  14.358   9.403
78940SOL     OW38593   2.022  13.351   8.186
78940SOL    HW138594   2.032  13.264   8.224
78940SOL    HW238595   2.110  13.388   8.186
78941SOL     OW38596   2.445   7.339   4.887
78941SOL    HW138597   2.460   7.321   4.794
78941SOL    HW238598   2.386   7.414   4.888
78942SOL     OW38599  10.811   3.155  13.216
78942SOL    HW138600  10.724   3.120  13.233
78942SOL    HW238601  10.856   3.149  13.301
78943SOL     OW38602   0.171   3.928   4.926
78943SOL    HW138603   0.099   3.884   4.971
78943SOL    HW238604   0.141   4.019   4.917
78944SOL     OW38605   4.641   0.016   3.582
78944SOL    HW138606   4.554  14.858   3.567
78944SOL    HW238607   4.678   0.027   3.494
78945SOL     OW38608  13.229  13.561   1.744
78945SOL    HW138609  13.309  13.597   1.706
78945SOL    HW238610  13.179  13.638   1.772
78946SOL     OW38611   9.391  11.083   5.904
78946SOL    HW138612   9.349  11.153   5.855
78946SOL    HW238613   9.319  11.038   5.949
78947SOL     OW38614   8.613  10.382   4.288
78947SOL    HW138615   8.598  10.299   4.242
78947SOL    HW238616   8.539  10.390   4.348
78948SOL     OW38617   2.348   0.949  12.449
78948SOL    HW138618   2.370   0.875  12.391
78948SOL    HW238619   2.269   0.921  12.494
78949SOL     OW38620   2.457   2.599   9.909
78949SOL    HW138621   2.408   2.680   9.894
78949SOL    HW238622   2.549   2.627   9.910
78950SOL     OW38623  10.859  11.598  11.138
78950SOL    HW138624  10.815  11.668  11.090
78950SOL    HW238625  10.939  11.581  11.087
78951SOL     OW38626  14.339   7.042   3.752
78951SOL    HW138627  14.315   7.124   3.710
78951SOL    HW238628  14.317   6.975   3.687
78952SOL     OW38629   4.607   5.821   0.380
78952SOL    HW138630   4.639   5.736   0.407
78952SOL    HW238631   4.609   5.819   0.285
78953SOL     OW38632  13.157  14.370   1.496
78953SOL    HW138633  13.210  14.314   1.439
78953SOL    HW238634  13.164  14.457   1.456
78954SOL     OW38635  11.113   8.093   3.343
78954SOL    HW138636  11.140   8.047   3.264
78954SOL    HW238637  11.188   8.147   3.367
78955SOL     OW38638   7.818  10.829  12.546
78955SOL    HW138639   7.763  10.906  12.561
78955SOL    HW238640   7.756  10.760  12.525
78956SOL     OW38641   6.331   0.453   6.257
78956SOL    HW138642   6.374   0.512   6.194
78956SOL    HW238643   6.380   0.372   6.250
78957SOL     OW38644   5.654  14.674  13.130
78957SOL    HW138645   5.609  14.614  13.189
78957SOL    HW238646   5.744  14.643  13.128
78958SOL     OW38647   8.986  12.942   3.429
78958SOL    HW138648   8.987  12.869   3.368
78958SOL    HW238649   9.078  12.955   3.453
78959SOL     OW38650   0.939   4.783   0.657
78959SOL    HW138651   0.987   4.755   0.579
78959SOL    HW238652   0.956   4.715   0.722
78960SOL     OW38653   4.714   4.424  14.594
78960SOL    HW138654   4.685   4.362  14.527
78960SOL    HW238655   4.686   4.509  14.561
78961SOL     OW38656   2.449  14.164   8.024
78961SOL    HW138657   2.375  14.110   8.053
78961SOL    HW238658   2.473  14.128   7.939
78962SOL     OW38659   3.324   6.566   2.354
78962SOL    HW138660   3.250   6.623   2.333
78962SOL    HW238661   3.390   6.586   2.287
78963SOL     OW38662   1.204   6.465  13.855
78963SOL    HW138663   1.169   6.459  13.767
78963SOL    HW238664   1.179   6.553  13.885
78964SOL     OW38665  13.516   3.979   7.414
78964SOL    HW138666  13.581   4.012   7.475
78964SOL    HW238667  13.567   3.938   7.344
78965SOL     OW38668   9.926   7.146   8.885
78965SOL    HW138669   9.891   7.231   8.912
78965SOL    HW238670  10.020   7.154   8.897
78966SOL     OW38671   9.038   9.824   5.347
78966SOL    HW138672   8.964   9.792   5.400
78966SOL    HW238673   8.997   9.863   5.270
78967SOL     OW38674   9.408   9.882   5.095
78967SOL    HW138675   9.492   9.924   5.115
78967SOL    HW238676   9.343   9.951   5.110
78968SOL     OW38677   9.682   4.845   2.487
78968SOL    HW138678   9.745   4.826   2.557
78968SOL    HW238679   9.597   4.833   2.528
78969SOL     OW38680   3.991   1.686   5.269
78969SOL    HW138681   3.977   1.716   5.359
78969SOL    HW238682   3.919   1.725   5.220
78970SOL     OW38683   6.110   6.207   7.292
78970SOL    HW138684   6.190   6.259   7.290
78970SOL    HW238685   6.050   6.252   7.233
78971SOL     OW38686  14.782   3.443   6.531
78971SOL    HW138687  14.708   3.382   6.541
78971SOL    HW238688  14.743   3.522   6.492
78972SOL     OW38689   0.155   8.053   0.445
78972SOL    HW138690   0.218   7.989   0.478
78972SOL    HW238691   0.208   8.125   0.412
78973SOL     OW38692   4.769  12.851   4.566
78973SOL    HW138693   4.822  12.927   4.587
78973SOL    HW238694   4.696  12.886   4.515
78974SOL     OW38695   0.658  14.717   6.066
78974SOL    HW138696   0.731  14.777   6.084
78974SOL    HW238697   0.644  14.670   6.148
78975SOL     OW38698   7.130  14.334  10.260
78975SOL    HW138699   7.153  14.405  10.321
78975SOL    HW238700   7.188  14.262  10.285
78976SOL     OW38701  11.774   9.921   2.237
78976SOL    HW138702  11.785   9.910   2.143
78976SOL    HW238703  11.843   9.981   2.263
78977SOL     OW38704   5.721   5.818  12.782
78977SOL    HW138705   5.798   5.794  12.731
78977SOL    HW238706   5.690   5.735  12.820
78978SOL     OW38707   0.272   6.024   5.193
78978SOL    HW138708   0.355   6.064   5.220
78978SOL    HW238709   0.272   5.939   5.238
78979SOL     OW38710   3.033   5.394  12.794
78979SOL    HW138711   3.121   5.397  12.757
78979SOL    HW238712   3.022   5.304  12.824
78980SOL     OW38713  14.360   9.588  10.807
78980SOL    HW138714  14.356   9.494  10.825
78980SOL    HW238715  14.355   9.630  10.893
78981SOL     OW38716   3.065   3.613   6.880
78981SOL    HW138717   3.152   3.650   6.896
78981SOL    HW238718   3.020   3.678   6.826
78982SOL     OW38719   3.025   0.183   6.512
78982SOL    HW138720   3.012   0.144   6.426
78982SOL    HW238721   2.992   0.273   6.503
78983SOL     OW38722  10.616   6.880  10.767
78983SOL    HW138723  10.597   6.954  10.825
78983SOL    HW238724  10.695   6.841  10.803
78984SOL     OW38725   7.214   2.602  11.652
78984SOL    HW138726   7.204   2.529  11.712
78984SOL    HW238727   7.140   2.595  11.592
78985SOL     OW38728  11.735   5.845   2.350
78985SOL    HW138729  11.802   5.909   2.376
78985SOL    HW238730  11.722   5.792   2.429
78986SOL     OW38731   1.380   1.619  12.069
78986SOL    HW138732   1.376   1.715  12.069
78986SOL    HW238733   1.305   1.592  12.122
78987SOL     OW38734  14.579   1.376   3.509
78987SOL    HW138735  14.543   1.294   3.541
78987SOL    HW238736  14.511   1.441   3.527
78988SOL     OW38737   3.543   5.859   3.942
78988SOL    HW138738   3.550   5.785   3.880
78988SOL    HW238739   3.599   5.833   4.015
78989SOL     OW38740  10.256   5.869   6.989
78989SOL    HW138741  10.193   5.913   7.046
78989SOL    HW238742  10.242   5.776   7.005
78990SOL     OW38743  11.622  10.117   8.475
78990SOL    HW138744  11.560  10.189   8.473
78990SOL    HW238745  11.708  10.159   8.473
78991SOL     OW38746   1.986   8.599   2.039
78991SOL    HW138747   1.943   8.637   1.963
78991SOL    HW238748   2.019   8.675   2.088
78992SOL     OW38749   8.458   2.630   7.022
78992SOL    HW138750   8.499   2.701   6.973
78992SOL    HW238751   8.518   2.556   7.012
78993SOL     OW38752   8.890   8.451  10.518
78993SOL    HW138753   8.862   8.476  10.605
78993SOL    HW238754   8.860   8.360  10.508
78994SOL     OW38755   2.181   1.879   8.054
78994SOL    HW138756   2.102   1.889   8.108
78994SOL    HW238757   2.150   1.833   7.976
78995SOL     OW38758   7.420   7.403  11.204
78995SOL    HW138759   7.360   7.426  11.134
78995SOL    HW238760   7.380   7.326  11.246
78996SOL     OW38761   0.341  10.343  11.905
78996SOL    HW138762   0.374  10.402  11.973
78996SOL    HW238763   0.415  10.285  11.885
78997SOL     OW38764   1.962   4.331   8.156
78997SOL    HW138765   1.902   4.279   8.210
78997SOL    HW238766   1.911   4.357   8.080
78998SOL     OW38767   7.296   6.963   0.196
78998SOL    HW138768   7.284   7.014   0.277
78998SOL    HW238769   7.369   7.005   0.151
78999SOL     OW38770  10.852   4.253  13.360
78999SOL    HW138771  10.766   4.259  13.401
78999SOL    HW238772  10.883   4.165  13.381
79000SOL     OW38773   6.321   7.832  10.317
79000SOL    HW138774   6.406   7.871  10.296
79000SOL    HW238775   6.302   7.774  10.243
79001SOL     OW38776   6.767   9.617  11.873
79001SOL    HW138777   6.742   9.539  11.922
79001SOL    HW238778   6.861   9.606  11.856
79002SOL     OW38779  13.988   5.017  14.072
79002SOL    HW138780  14.028   5.103  14.079
79002SOL    HW238781  13.961   4.996  14.162
79003SOL     OW38782   8.727  11.197  13.777
79003SOL    HW138783   8.811  11.183  13.820
79003SOL    HW238784   8.740  11.275  13.723
79004SOL     OW38785   4.502  11.349  11.876
79004SOL    HW138786   4.471  11.396  11.954
79004SOL    HW238787   4.531  11.417  11.816
79005SOL     OW38788   4.084   2.405   2.543
79005SOL    HW138789   4.167   2.368   2.574
79005SOL    HW238790   4.064   2.475   2.605
79006SOL     OW38791   1.855   0.435   3.551
79006SOL    HW138792   1.806   0.366   3.506
79006SOL    HW238793   1.929   0.390   3.591
79007SOL     OW38794   9.247   9.265   3.155
79007SOL    HW138795   9.248   9.169   3.160
79007SOL    HW238796   9.251   9.294   3.247
79008SOL     OW38797   2.497   3.993  13.667
79008SOL    HW138798   2.416   4.034  13.698
79008SOL    HW238799   2.564   4.061  13.678
79009SOL     OW38800   7.533   1.708  12.970
79009SOL    HW138801   7.445   1.739  12.949
79009SOL    HW238802   7.547   1.633  12.912
79010SOL     OW38803   2.569   4.526  13.473
79010SOL    HW138804   2.611   4.546  13.389
79010SOL    HW238805   2.579   4.606  13.524
79011SOL     OW38806   1.367   2.452  10.190
79011SOL    HW138807   1.339   2.388  10.256
79011SOL    HW238808   1.445   2.413  10.151
79012SOL     OW38809   8.035  11.883   4.269
79012SOL    HW138810   8.000  11.963   4.308
79012SOL    HW238811   8.002  11.813   4.324
79013SOL     OW38812   7.938   0.942   0.489
79013SOL    HW138813   7.969   0.896   0.567
79013SOL    HW238814   7.892   0.876   0.438
79014SOL     OW38815   4.111   2.074   3.028
79014SOL    HW138816   4.077   2.077   3.118
79014SOL    HW238817   4.201   2.046   3.037
79015SOL     OW38818  10.216   6.024   6.561
79015SOL    HW138819  10.183   6.103   6.604
79015SOL    HW238820  10.192   5.953   6.621
79016SOL     OW38821   2.893   4.081  10.459
79016SOL    HW138822   2.800   4.077  10.481
79016SOL    HW238823   2.936   4.099  10.543
79017SOL     OW38824   5.570   9.747   7.772
79017SOL    HW138825   5.539   9.785   7.854
79017SOL    HW238826   5.661   9.724   7.788
79018SOL     OW38827   5.819   9.517  12.009
79018SOL    HW138828   5.730   9.543  11.983
79018SOL    HW238829   5.847   9.456  11.941
79019SOL     OW38830   1.795   0.535  12.738
79019SOL    HW138831   1.711   0.558  12.698
79019SOL    HW238832   1.772   0.504  12.825
79020SOL     OW38833  13.326   3.531   0.950
79020SOL    HW138834  13.402   3.513   0.896
79020SOL    HW238835  13.256   3.479   0.911
79021SOL     OW38836  14.349  11.988   2.422
79021SOL    HW138837  14.333  11.895   2.440
79021SOL    HW238838  14.431  12.008   2.468
79022SOL     OW38839   2.014  13.285   8.824
79022SOL    HW138840   1.987  13.293   8.732
79022SOL    HW238841   1.973  13.204   8.854
79023SOL     OW38842  13.344   9.138  10.789
79023SOL    HW138843  13.351   9.202  10.860
79023SOL    HW238844  13.289   9.068  10.824
79024SOL     OW38845   3.759  12.405  12.845
79024SOL    HW138846   3.677  12.379  12.804
79024SOL    HW238847   3.733  12.468  12.913
79025SOL     OW38848   8.719   5.706   0.184
79025SOL    HW138849   8.651   5.651   0.224
79025SOL    HW238850   8.755   5.653   0.114
79026SOL     OW38851  14.698   8.059   1.558
79026SOL    HW138852  14.746   8.039   1.638
79026SOL    HW238853  14.606   8.045   1.582
79027SOL     OW38854   6.489  13.373   1.162
79027SOL    HW138855   6.406  13.376   1.114
79027SOL    HW238856   6.465  13.341   1.249
79028SOL     OW38857   1.483  11.113  11.798
79028SOL    HW138858   1.492  11.203  11.764
79028SOL    HW238859   1.535  11.113  11.879
79029SOL     OW38860  11.035   3.294   9.085
79029SOL    HW138861  10.965   3.359   9.084
79029SOL    HW238862  11.038   3.263   9.176
79030SOL     OW38863   0.046   4.186   9.780
79030SOL    HW138864   0.100   4.134   9.840
79030SOL    HW238865   0.094   4.267   9.767
79031SOL     OW38866   8.228  11.804   2.997
79031SOL    HW138867   8.189  11.878   2.952
79031SOL    HW238868   8.280  11.843   3.068
79032SOL     OW38869   5.326   9.278  12.868
79032SOL    HW138870   5.304   9.281  12.775
79032SOL    HW238871   5.257   9.224  12.908
79033SOL     OW38872   8.153  14.080   7.467
79033SOL    HW138873   8.167  14.042   7.554
79033SOL    HW238874   8.203  14.161   7.467
79034SOL     OW38875   7.581  13.371   4.447
79034SOL    HW138876   7.596  13.317   4.524
79034SOL    HW238877   7.541  13.451   4.481
79035SOL     OW38878  11.174   3.111   1.374
79035SOL    HW138879  11.221   3.046   1.322
79035SOL    HW238880  11.082   3.089   1.364
79036SOL     OW38881   5.828  12.951   0.489
79036SOL    HW138882   5.816  12.949   0.394
79036SOL    HW238883   5.923  12.944   0.500
79037SOL     OW38884   5.324  12.224   8.308
79037SOL    HW138885   5.263  12.224   8.234
79037SOL    HW238886   5.376  12.145   8.296
79038SOL     OW38887  14.092   8.892   4.972
79038SOL    HW138888  14.064   8.801   4.978
79038SOL    HW238889  14.181   8.887   4.936
79039SOL     OW38890  13.579  13.216  12.630
79039SOL    HW138891  13.661  13.245  12.670
79039SOL    HW238892  13.512  13.270  12.671
79040SOL     OW38893  14.814   7.615   3.015
79040SOL    HW138894  14.819   7.684   2.948
79040SOL    HW238895  14.813   7.534   2.965
79041SOL     OW38896   0.579  11.360   0.246
79041SOL    HW138897   0.591  11.266   0.234
79041SOL    HW238898   0.485  11.373   0.234
79042SOL     OW38899   5.000  10.965   8.496
79042SOL    HW138900   5.004  10.978   8.591
79042SOL    HW238901   5.058  10.890   8.480
79043SOL     OW38902  12.444   8.499   6.718
79043SOL    HW138903  12.432   8.406   6.740
79043SOL    HW238904  12.395   8.510   6.636
79044SOL     OW38905   0.281   8.673   2.422
79044SOL    HW138906   0.227   8.733   2.371
79044SOL    HW238907   0.342   8.636   2.358
79045SOL     OW38908  10.394  14.366   5.891
79045SOL    HW138909  10.445  14.288   5.914
79045SOL    HW238910  10.379  14.411   5.975
79046SOL     OW38911  10.012   7.350   4.812
79046SOL    HW138912   9.999   7.378   4.721
79046SOL    HW238913  10.029   7.430   4.860
79047SOL     OW38914  12.671   3.987   1.778
79047SOL    HW138915  12.590   4.031   1.805
79047SOL    HW238916  12.707   4.045   1.710
79048SOL     OW38917   8.394  12.360   8.177
79048SOL    HW138918   8.481  12.326   8.155
79048SOL    HW238919   8.383  12.339   8.269
79049SOL     OW38920   9.929  13.525   3.296
79049SOL    HW138921  10.015  13.503   3.260
79049SOL    HW238922   9.929  13.621   3.303
79050SOL     OW38923  14.605   7.901  10.499
79050SOL    HW138924  14.616   7.811  10.528
79050SOL    HW238925  14.671   7.950  10.548
79051SOL     OW38926  11.409  14.465   5.742
79051SOL    HW138927  11.485  14.520   5.719
79051SOL    HW238928  11.422  14.385   5.691
79052SOL     OW38929   6.839   0.711   9.055
79052SOL    HW138930   6.765   0.761   9.021
79052SOL    HW238931   6.849   0.639   8.993
79053SOL     OW38932   7.791  10.089  12.935
79053SOL    HW138933   7.824  10.069  13.023
79053SOL    HW238934   7.702  10.053  12.935
79054SOL     OW38935   5.368   9.123   4.731
79054SOL    HW138936   5.330   9.148   4.815
79054SOL    HW238937   5.362   9.203   4.678
79055SOL     OW38938   4.512   5.425   2.362
79055SOL    HW138939   4.483   5.342   2.400
79055SOL    HW238940   4.607   5.423   2.371
79056SOL     OW38941   9.884   4.534   1.007
79056SOL    HW138942   9.960   4.475   1.002
79056SOL    HW238943   9.839   4.507   1.087
79057SOL     OW38944   1.025   4.420  11.490
79057SOL    HW138945   1.040   4.411  11.584
79057SOL    HW238946   1.078   4.496  11.465
79058SOL     OW38947   2.283   7.959   0.615
79058SOL    HW138948   2.356   8.004   0.574
79058SOL    HW238949   2.267   8.008   0.696
79059SOL     OW38950  10.832   6.540  12.891
79059SOL    HW138951  10.890   6.572  12.823
79059SOL    HW238952  10.804   6.453  12.860
79060SOL     OW38953  11.968   8.104   7.495
79060SOL    HW138954  11.904   8.036   7.516
79060SOL    HW238955  12.004   8.078   7.410
79061SOL     OW38956  12.369   7.348   7.598
79061SOL    HW138957  12.452   7.340   7.551
79061SOL    HW238958  12.372   7.434   7.638
79062SOL     OW38959  10.073   6.950  12.022
79062SOL    HW138960  10.007   6.891  12.058
79062SOL    HW238961  10.094   6.913  11.936
79063SOL     OW38962   3.352  12.866   1.882
79063SOL    HW138963   3.303  12.896   1.805
79063SOL    HW238964   3.420  12.933   1.894
79064SOL     OW38965   4.559   3.992   7.222
79064SOL    HW138966   4.572   3.917   7.165
79064SOL    HW238967   4.626   3.983   7.290
79065SOL     OW38968   5.613   0.411  11.280
79065SOL    HW138969   5.694   0.381  11.322
79065SOL    HW238970   5.640   0.437  11.192
79066SOL     OW38971   6.763   1.631   5.638
79066SOL    HW138972   6.719   1.685   5.572
79066SOL    HW238973   6.741   1.673   5.721
79067SOL     OW38974  12.730   5.052   1.580
79067SOL    HW138975  12.637   5.070   1.564
79067SOL    HW238976  12.774   5.135   1.563
79068SOL     OW38977   9.757   1.210   5.400
79068SOL    HW138978   9.784   1.288   5.449
79068SOL    HW238979   9.678   1.237   5.354
79069SOL     OW38980   1.040  10.374   5.512
79069SOL    HW138981   1.073  10.326   5.589
79069SOL    HW238982   1.115  10.380   5.453
79070SOL     OW38983   8.945   5.695   5.504
79070SOL    HW138984   8.913   5.639   5.434
79070SOL    HW238985   8.897   5.667   5.582
79071SOL     OW38986   8.922  14.245   6.788
79071SOL    HW138987   8.856  14.287   6.732
79071SOL    HW238988   9.003  14.293   6.770
79072SOL     OW38989   2.583   8.527   8.926
79072SOL    HW138990   2.642   8.462   8.888
79072SOL    HW238991   2.538   8.565   8.851
79073SOL     OW38992  12.990   7.415  13.201
79073SOL    HW138993  13.045   7.396  13.277
79073SOL    HW238994  13.040   7.382  13.126
79074SOL     OW38995  11.639  13.257  12.060
79074SOL    HW138996  11.658  13.173  12.102
79074SOL    HW238997  11.663  13.244  11.968
79075SOL     OW38998  12.517  12.157   5.846
79075SOL    HW138999  12.498  12.109   5.765
79075SOL    HW239000  12.480  12.103   5.915
79076SOL     OW39001  13.879   3.307   0.708
79076SOL    HW139002  13.811   3.297   0.641
79076SOL    HW239003  13.914   3.219   0.720
79077SOL     OW39004   3.763   4.964   1.718
79077SOL    HW139005   3.856   4.950   1.732
79077SOL    HW239006   3.723   4.879   1.737
79078SOL     OW39007   6.065   4.675  10.452
79078SOL    HW139008   6.145   4.708  10.410
79078SOL    HW239009   6.050   4.590  10.411
79079SOL     OW39010   0.438  14.098   0.094
79079SOL    HW139011   0.431  14.193   0.102
79079SOL    HW239012   0.467  14.084   0.004
79080SOL     OW39013   5.971   1.551   3.080
79080SOL    HW139014   5.957   1.470   3.130
79080SOL    HW239015   5.891   1.562   3.028
79081SOL     OW39016   5.411   6.801   4.019
79081SOL    HW139017   5.395   6.847   4.101
79081SOL    HW239018   5.324   6.792   3.979
79082SOL     OW39019  14.359   9.900   3.798
79082SOL    HW139020  14.384   9.980   3.845
79082SOL    HW239021  14.441   9.867   3.762
79083SOL     OW39022   1.243   8.304  13.544
79083SOL    HW139023   1.269   8.375  13.486
79083SOL    HW239024   1.246   8.226  13.490
79084SOL     OW39025  13.785  12.993   6.099
79084SOL    HW139026  13.836  12.948   6.032
79084SOL    HW239027  13.850  13.041   6.150
79085SOL     OW39028   5.724   9.234   9.960
79085SOL    HW139029   5.749   9.205   9.872
79085SOL    HW239030   5.649   9.291   9.945
79086SOL     OW39031  14.746   8.065   7.928
79086SOL    HW139032  14.758   8.102   8.016
79086SOL    HW239033  14.812   8.109   7.874
79087SOL     OW39034   0.786  13.006   7.536
79087SOL    HW139035   0.725  12.940   7.569
79087SOL    HW239036   0.872  12.963   7.541
79088SOL     OW39037   9.415   5.897   2.019
79088SOL    HW139038   9.376   5.916   1.933
79088SOL    HW239039   9.497   5.852   1.998
79089SOL     OW39040   4.992   0.974   4.314
79089SOL    HW139041   4.929   0.914   4.274
79089SOL    HW239042   4.993   0.950   4.406
79090SOL     OW39043   9.653   5.721   0.947
79090SOL    HW139044   9.716   5.729   1.019
79090SOL    HW239045   9.641   5.627   0.936
79091SOL     OW39046  14.118   1.371   2.269
79091SOL    HW139047  14.066   1.364   2.349
79091SOL    HW239048  14.064   1.331   2.201
79092SOL     OW39049   6.226   0.519   8.211
79092SOL    HW139050   6.307   0.538   8.257
79092SOL    HW239051   6.252   0.496   8.122
79093SOL     OW39052  11.240   9.117   9.357
79093SOL    HW139053  11.205   9.205   9.365
79093SOL    HW239054  11.177   9.071   9.301
79094SOL     OW39055   6.687  12.980   3.725
79094SOL    HW139056   6.667  13.074   3.724
79094SOL    HW239057   6.755  12.970   3.659
79095SOL     OW39058   7.191  13.419   5.189
79095SOL    HW139059   7.245  13.425   5.111
79095SOL    HW239060   7.152  13.507   5.198
79096SOL     OW39061   9.387   1.578   1.409
79096SOL    HW139062   9.370   1.520   1.335
79096SOL    HW239063   9.302   1.592   1.449
79097SOL     OW39064   3.265  14.796   3.005
79097SOL    HW139065   3.206  14.834   3.070
79097SOL    HW239066   3.329  14.865   2.986
79098SOL     OW39067   1.701   4.231   0.522
79098SOL    HW139068   1.775   4.171   0.511
79098SOL    HW239069   1.701   4.284   0.442
79099SOL     OW39070  13.963   0.080   7.120
79099SOL    HW139071  14.009   0.037   7.049
79099SOL    HW239072  13.877   0.037   7.122
79100SOL     OW39073  14.777   2.405   5.944
79100SOL    HW139074  14.696   2.453   5.956
79100SOL    HW239075  14.846   2.469   5.964
79101SOL     OW39076   8.845   5.422  14.605
79101SOL    HW139077   8.795   5.343  14.621
79101SOL    HW239078   8.799   5.467  14.534
79102SOL     OW39079   6.393  13.979  14.540
79102SOL    HW139080   6.349  14.050  14.586
79102SOL    HW239081   6.343  13.968  14.459
79103SOL     OW39082   7.917  12.080  11.139
79103SOL    HW139083   7.850  12.126  11.087
79103SOL    HW239084   7.884  12.085  11.229
79104SOL     OW39085  12.258  12.882   6.930
79104SOL    HW139086  12.335  12.920   6.972
79104SOL    HW239087  12.184  12.925   6.972
79105SOL     OW39088   5.075  13.765   3.928
79105SOL    HW139089   5.134  13.825   3.974
79105SOL    HW239090   5.020  13.821   3.874
79106SOL     OW39091   0.319   8.903   3.592
79106SOL    HW139092   0.352   8.956   3.665
79106SOL    HW239093   0.240   8.862   3.626
79107SOL     OW39094   3.318  13.098   6.511
79107SOL    HW139095   3.243  13.100   6.571
79107SOL    HW239096   3.363  13.016   6.533
79108SOL     OW39097   3.339   0.071   1.949
79108SOL    HW139098   3.279   0.146   1.947
79108SOL    HW239099   3.311   0.020   2.025
79109SOL     OW39100  10.271  12.814   5.108
79109SOL    HW139101  10.281  12.907   5.129
79109SOL    HW239102  10.195  12.785   5.159
79110SOL     OW39103   0.214  10.683   3.201
79110SOL    HW139104   0.211  10.588   3.213
79110SOL    HW239105   0.299  10.709   3.237
79111SOL     OW39106   8.128  10.735   9.942
79111SOL    HW139107   8.164  10.657   9.899
79111SOL    HW239108   8.049  10.756   9.892
79112SOL     OW39109  11.015  11.540   9.871
79112SOL    HW139110  11.024  11.490   9.790
79112SOL    HW239111  11.104  11.568   9.892
79113SOL     OW39112   9.402   6.706   8.111
79113SOL    HW139113   9.472   6.768   8.092
79113SOL    HW239114   9.322   6.755   8.091
79114SOL     OW39115  14.286  13.525  11.907
79114SOL    HW139116  14.264  13.475  11.985
79114SOL    HW239117  14.332  13.602  11.940
79115SOL     OW39118   0.366  10.480   6.258
79115SOL    HW139119   0.313  10.485   6.178
79115SOL    HW239120   0.369  10.387   6.279
79116SOL     OW39121   7.265   7.888   9.143
79116SOL    HW139122   7.323   7.855   9.073
79116SOL    HW239123   7.311   7.963   9.179
79117SOL     OW39124   2.977  11.817   0.507
79117SOL    HW139125   3.067  11.786   0.500
79117SOL    HW239126   2.954  11.801   0.599
79118SOL     OW39127   2.629  13.772  12.149
79118SOL    HW139128   2.722  13.751  12.139
79118SOL    HW239129   2.627  13.835  12.222
79119SOL     OW39130   2.889   6.300   3.056
79119SOL    HW139131   2.876   6.220   3.106
79119SOL    HW239132   2.952   6.276   2.988
79120SOL     OW39133   5.765  14.563   0.420
79120SOL    HW139134   5.771  14.594   0.511
79120SOL    HW239135   5.856  14.547   0.394
79121SOL     OW39136   1.009   3.285   4.659
79121SOL    HW139137   1.087   3.319   4.703
79121SOL    HW239138   1.035   3.197   4.630
79122SOL     OW39139   1.204  10.441   9.615
79122SOL    HW139140   1.119  10.476   9.642
79122SOL    HW239141   1.182  10.372   9.552
79123SOL     OW39142   2.470   3.374   1.667
79123SOL    HW139143   2.426   3.294   1.694
79123SOL    HW239144   2.493   3.417   1.749
79124SOL     OW39145   5.804   9.233   4.570
79124SOL    HW139146   5.800   9.146   4.608
79124SOL    HW239147   5.830   9.220   4.479
79125SOL     OW39148   7.018   6.344  10.570
79125SOL    HW139149   7.022   6.256  10.607
79125SOL    HW239150   6.924   6.362  10.561
79126SOL     OW39151   6.887   9.230  11.968
79126SOL    HW139152   6.919   9.196  11.884
79126SOL    HW239153   6.851   9.154  12.013
79127SOL     OW39154   5.520   2.821  11.781
79127SOL    HW139155   5.434   2.861  11.795
79127SOL    HW239156   5.574   2.892  11.748
79128SOL     OW39157   7.504   3.663  11.050
79128SOL    HW139158   7.427   3.720  11.049
79128SOL    HW239159   7.575   3.719  11.081
79129SOL     OW39160   0.957   4.707  13.254
79129SOL    HW139161   0.968   4.776  13.320
79129SOL    HW239162   0.896   4.645  13.293
79130SOL     OW39163   0.800  13.494   4.601
79130SOL    HW139164   0.822  13.587   4.590
79130SOL    HW239165   0.871  13.459   4.655
79131SOL     OW39166   7.576  14.248   4.189
79131SOL    HW139167   7.622  14.164   4.192
79131SOL    HW239168   7.569  14.268   4.096
79132SOL     OW39169   0.315  13.395   1.319
79132SOL    HW139170   0.296  13.304   1.342
79132SOL    HW239171   0.321  13.440   1.403
79133SOL     OW39172   0.036   0.477  12.726
79133SOL    HW139173   0.005   0.392  12.698
79133SOL    HW239174  14.863   0.540  12.674
79134SOL     OW39175   6.664   1.742   8.433
79134SOL    HW139176   6.733   1.785   8.481
79134SOL    HW239177   6.634   1.672   8.491
79135SOL     OW39178   3.619   2.491   9.232
79135SOL    HW139179   3.706   2.530   9.242
79135SOL    HW239180   3.558   2.558   9.262
79136SOL     OW39181   0.748   2.040  12.538
79136SOL    HW139182   0.797   1.966  12.503
79136SOL    HW239183   0.656   2.011  12.537
79137SOL     OW39184   8.015   4.402  11.531
79137SOL    HW139185   8.044   4.427  11.619
79137SOL    HW239186   7.933   4.449  11.518
79138SOL     OW39187  12.570  10.798  11.811
79138SOL    HW139188  12.545  10.771  11.899
79138SOL    HW239189  12.635  10.867  11.824
79139SOL     OW39190   6.134   7.876   8.232
79139SOL    HW139191   6.209   7.822   8.205
79139SOL    HW239192   6.136   7.873   8.327
79140SOL     OW39193  14.791  13.434   9.439
79140SOL    HW139194  14.756  13.357   9.394
79140SOL    HW239195  14.874  13.452   9.395
79141SOL     OW39196   8.841   0.770   5.988
79141SOL    HW139197   8.880   0.690   6.024
79141SOL    HW239198   8.794   0.808   6.062
79142SOL     OW39199   6.051   3.333   9.795
79142SOL    HW139200   6.102   3.311   9.718
79142SOL    HW239201   6.087   3.417   9.824
79143SOL     OW39202  11.652  13.031  13.927
79143SOL    HW139203  11.622  13.055  14.015
79143SOL    HW239204  11.714  13.099  13.903
79144SOL     OW39205   1.010   9.476  13.120
79144SOL    HW139206   1.024   9.384  13.138
79144SOL    HW239207   1.069   9.522  13.180
79145SOL     OW39208   8.527   4.553   4.779
79145SOL    HW139209   8.509   4.644   4.753
79145SOL    HW239210   8.452   4.504   4.745
79146SOL     OW39211   4.437  12.292   5.232
79146SOL    HW139212   4.381  12.369   5.243
79146SOL    HW239213   4.446  12.283   5.137
79147SOL     OW39214   3.555   6.250  12.478
79147SOL    HW139215   3.563   6.204  12.561
79147SOL    HW239216   3.534   6.340  12.502
79148SOL     OW39217   1.665  13.640   6.297
79148SOL    HW139218   1.574  13.641   6.269
79148SOL    HW239219   1.675  13.718   6.351
79149SOL     OW39220   6.807   4.165  14.532
79149SOL    HW139221   6.806   4.217  14.452
79149SOL    HW239222   6.874   4.207  14.587
79150SOL     OW39223   7.319  14.109  14.251
79150SOL    HW139224   7.354  14.066  14.330
79150SOL    HW239225   7.386  14.093  14.184
79151SOL     OW39226   3.572  11.293   4.768
79151SOL    HW139227   3.571  11.272   4.861
79151SOL    HW239228   3.481  11.315   4.748
79152SOL     OW39229   4.918  13.434  11.535
79152SOL    HW139230   4.867  13.429  11.454
79152SOL    HW239231   4.871  13.497  11.589
79153SOL     OW39232   1.254   7.234   9.309
79153SOL    HW139233   1.257   7.249   9.214
79153SOL    HW239234   1.162   7.249   9.333
79154SOL     OW39235   3.405   3.944   0.233
79154SOL    HW139236   3.358   3.873   0.276
79154SOL    HW239237   3.424   4.007   0.303
79155SOL     OW39238  10.675  13.060   1.654
79155SOL    HW139239  10.586  13.092   1.645
79155SOL    HW239240  10.678  13.019   1.740
79156SOL     OW39241   9.916   2.385  10.162
79156SOL    HW139242   9.893   2.473  10.133
79156SOL    HW239243  10.007   2.392  10.190
79157SOL     OW39244  10.357  11.195   0.945
79157SOL    HW139245  10.279  11.140   0.936
79157SOL    HW239246  10.356  11.221   1.037
79158SOL     OW39247  10.056   4.544   7.187
79158SOL    HW139248  10.084   4.626   7.226
79158SOL    HW239249  10.009   4.499   7.258
79159SOL     OW39250   5.069   5.508  10.637
79159SOL    HW139251   5.038   5.509  10.727
79159SOL    HW239252   5.111   5.594  10.625
79160SOL     OW39253   6.391  12.124   9.318
79160SOL    HW139254   6.385  12.154   9.227
79160SOL    HW239255   6.385  12.205   9.370
79161SOL     OW39256   7.593   0.462   7.785
79161SOL    HW139257   7.499   0.471   7.797
79161SOL    HW239258   7.626   0.552   7.780
79162SOL     OW39259   2.721   4.838   8.715
79162SOL    HW139260   2.630   4.848   8.689
79162SOL    HW239261   2.744   4.923   8.754
79163SOL     OW39262   8.222   2.019  12.918
79163SOL    HW139263   8.209   1.947  12.857
79163SOL    HW239264   8.261   2.089  12.866
79164SOL     OW39265  12.702   0.091   1.115
79164SOL    HW139266  12.718   0.054   1.202
79164SOL    HW239267  12.740   0.027   1.055
79165SOL     OW39268  12.749   9.338  11.788
79165SOL    HW139269  12.688   9.382  11.847
79165SOL    HW239270  12.822   9.400  11.779
79166SOL     OW39271   5.316   0.775   3.262
79166SOL    HW139272   5.264   0.710   3.215
79166SOL    HW239273   5.262   0.800   3.337
79167SOL     OW39274   1.127   8.341   5.285
79167SOL    HW139275   1.103   8.250   5.267
79167SOL    HW239276   1.222   8.338   5.297
79168SOL     OW39277   8.164  12.121   5.526
79168SOL    HW139278   8.218  12.200   5.525
79168SOL    HW239279   8.227  12.050   5.543
79169SOL     OW39280  12.418   5.856   8.879
79169SOL    HW139281  12.426   5.822   8.968
79169SOL    HW239282  12.430   5.951   8.888
79170SOL     OW39283   0.217  14.121   3.762
79170SOL    HW139284   0.204  14.203   3.715
79170SOL    HW239285   0.168  14.132   3.844
79171SOL     OW39286   1.360   2.768   0.065
79171SOL    HW139287   1.317   2.764  14.857
79171SOL    HW239288   1.427   2.700   0.062
79172SOL     OW39289   8.893  10.716   4.183
79172SOL    HW139290   8.843  10.642   4.147
79172SOL    HW239291   8.861  10.724   4.273
79173SOL     OW39292   6.974   4.616   5.190
79173SOL    HW139293   6.983   4.686   5.254
79173SOL    HW239294   6.966   4.661   5.106
79174SOL     OW39295  11.116  10.556  11.097
79174SOL    HW139296  11.115  10.564  11.002
79174SOL    HW239297  11.089  10.642  11.129
79175SOL     OW39298  14.519   7.312  13.282
79175SOL    HW139299  14.572   7.248  13.330
79175SOL    HW239300  14.583   7.372  13.244
79176SOL     OW39301   9.149   6.937   0.338
79176SOL    HW139302   9.185   7.015   0.381
79176SOL    HW239303   9.177   6.945   0.247
79177SOL     OW39304   7.667   2.918   4.414
79177SOL    HW139305   7.686   2.986   4.349
79177SOL    HW239306   7.750   2.872   4.425
79178SOL     OW39307  12.797  11.323   4.003
79178SOL    HW139308  12.726  11.370   4.046
79178SOL    HW239309  12.756  11.245   3.965
79179SOL     OW39310   0.016   6.008  11.616
79179SOL    HW139311   0.066   6.027  11.537
79179SOL    HW239312   0.023   6.088  11.668
79180SOL     OW39313   8.967   4.640   5.973
79180SOL    HW139314   9.028   4.570   5.951
79180SOL    HW239315   9.020   4.720   5.971
79181SOL     OW39316  13.685   4.381   2.616
79181SOL    HW139317  13.636   4.326   2.556
79181SOL    HW239318  13.642   4.367   2.701
79182SOL     OW39319   4.062   3.955   5.969
79182SOL    HW139320   4.084   3.938   5.877
79182SOL    HW239321   4.142   3.932   6.017
79183SOL     OW39322   3.091  12.086   9.360
79183SOL    HW139323   3.162  12.024   9.342
79183SOL    HW239324   3.022  12.062   9.298
79184SOL     OW39325   9.016  14.689  14.650
79184SOL    HW139326   8.998  14.689  14.744
79184SOL    HW239327   9.102  14.649  14.642
79185SOL     OW39328   2.689  12.052   1.294
79185SOL    HW139329   2.602  12.020   1.319
79185SOL    HW239330   2.731  11.978   1.251
79186SOL     OW39331  11.455   0.676   8.165
79186SOL    HW139332  11.405   0.751   8.197
79186SOL    HW239333  11.389   0.618   8.126
79187SOL     OW39334  12.772  12.783   8.479
79187SOL    HW139335  12.770  12.745   8.391
79187SOL    HW239336  12.718  12.725   8.532
79188SOL     OW39337   4.706  10.047   9.001
79188SOL    HW139338   4.754   9.992   8.939
79188SOL    HW239339   4.750  10.132   8.997
79189SOL     OW39340   8.997   3.271  11.198
79189SOL    HW139341   8.916   3.321  11.191
79189SOL    HW239342   8.987   3.199  11.136
79190SOL     OW39343   4.537   1.800   2.931
79190SOL    HW139344   4.591   1.722   2.943
79190SOL    HW239345   4.462   1.770   2.881
79191SOL     OW39346   2.961   9.879   3.868
79191SOL    HW139347   2.911   9.816   3.816
79191SOL    HW239348   3.040   9.831   3.894
79192SOL     OW39349   0.962   2.628  10.941
79192SOL    HW139350   1.003   2.583  10.867
79192SOL    HW239351   1.030   2.685  10.976
79193SOL     OW39352  11.529   1.615   0.621
79193SOL    HW139353  11.567   1.676   0.557
79193SOL    HW239354  11.601   1.595   0.681
79194SOL     OW39355  11.348   0.623   6.799
79194SOL    HW139356  11.349   0.621   6.895
79194SOL    HW239357  11.281   0.689   6.778
79195SOL     OW39358  13.852   4.331   6.299
79195SOL    HW139359  13.827   4.300   6.212
79195SOL    HW239360  13.806   4.414   6.310
79196SOL     OW39361  14.682  12.164  13.541
79196SOL    HW139362  14.660  12.234  13.479
79196SOL    HW239363  14.611  12.101  13.532
79197SOL     OW39364   4.377   9.758  12.091
79197SOL    HW139365   4.464   9.796  12.083
79197SOL    HW239366   4.365   9.744  12.185
79198SOL     OW39367   2.723  14.272   4.718
79198SOL    HW139368   2.631  14.249   4.705
79198SOL    HW239369   2.721  14.356   4.764
79199SOL     OW39370   5.385  12.261   1.020
79199SOL    HW139371   5.351  12.175   1.045
79199SOL    HW239372   5.366  12.317   1.096
79200SOL     OW39373  10.992  11.013   2.750
79200SOL    HW139374  11.007  11.045   2.661
79200SOL    HW239375  10.896  11.011   2.759
79201SOL     OW39376   7.467  11.446  12.241
79201SOL    HW139377   7.497  11.534  12.217
79201SOL    HW239378   7.402  11.461  12.309
79202SOL     OW39379  11.073   4.688   4.250
79202SOL    HW139380  11.107   4.723   4.332
79202SOL    HW239381  11.008   4.623   4.277
79203SOL     OW39382  11.819  12.840  12.670
79203SOL    HW139383  11.878  12.801  12.734
79203SOL    HW239384  11.859  12.925  12.649
79204SOL     OW39385  13.210  11.835   2.840
79204SOL    HW139386  13.232  11.803   2.928
79204SOL    HW239387  13.269  11.786   2.782
79205SOL     OW39388   4.697  12.825   9.688
79205SOL    HW139389   4.690  12.912   9.647
79205SOL    HW239390   4.608  12.804   9.715
79206SOL     OW39391   7.332  13.730   0.579
79206SOL    HW139392   7.355  13.822   0.566
79206SOL    HW239393   7.340  13.691   0.493
79207SOL     OW39394   6.963   2.921   1.551
79207SOL    HW139395   7.021   2.902   1.625
79207SOL    HW239396   6.891   2.971   1.589
79208SOL     OW39397   9.152   7.687   4.304
79208SOL    HW139398   9.233   7.643   4.331
79208SOL    HW239399   9.174   7.780   4.302
79209SOL     OW39400   3.351   3.024   2.933
79209SOL    HW139401   3.303   2.942   2.945
79209SOL    HW239402   3.362   3.059   3.022
79210SOL     OW39403   7.880   5.595   7.014
79210SOL    HW139404   7.836   5.670   7.056
79210SOL    HW239405   7.956   5.579   7.069
79211SOL     OW39406  12.064   3.529   3.810
79211SOL    HW139407  12.147   3.501   3.848
79211SOL    HW239408  12.083   3.542   3.717
79212SOL     OW39409  13.964   2.056  13.391
79212SOL    HW139410  13.874   2.075  13.416
79212SOL    HW239411  13.985   2.121  13.324
79213SOL     OW39412   7.163   5.396   2.783
79213SOL    HW139413   7.158   5.363   2.872
79213SOL    HW239414   7.210   5.479   2.790
79214SOL     OW39415   1.283   5.776   9.902
79214SOL    HW139416   1.245   5.733   9.979
79214SOL    HW239417   1.247   5.728   9.828
79215SOL     OW39418   3.700   2.343   8.057
79215SOL    HW139419   3.636   2.407   8.088
79215SOL    HW239420   3.672   2.260   8.097
79216SOL     OW39421  13.985  14.648   0.329
79216SOL    HW139422  14.070  14.664   0.370
79216SOL    HW239423  14.006  14.604   0.247
79217SOL     OW39424   8.331  12.948   7.460
79217SOL    HW139425   8.237  12.931   7.465
79217SOL    HW239426   8.365  12.923   7.546
79218SOL     OW39427  10.878  11.405  13.606
79218SOL    HW139428  10.844  11.442  13.524
79218SOL    HW239429  10.967  11.377  13.585
79219SOL     OW39430   5.591   2.731  13.863
79219SOL    HW139431   5.597   2.798  13.931
79219SOL    HW239432   5.498   2.709  13.859
79220SOL     OW39433   3.634  14.299  14.674
79220SOL    HW139434   3.670  14.217  14.708
79220SOL    HW239435   3.541  14.295  14.696
79221SOL     OW39436  11.693   3.519  10.507
79221SOL    HW139437  11.705   3.445  10.446
79221SOL    HW239438  11.675   3.594  10.450
79222SOL     OW39439   4.158   9.457   1.323
79222SOL    HW139440   4.247   9.490   1.327
79222SOL    HW239441   4.164   9.378   1.269
79223SOL     OW39442   5.501  12.105   8.589
79223SOL    HW139443   5.438  12.033   8.591
79223SOL    HW239444   5.489  12.151   8.672
79224SOL     OW39445   9.026   2.117   9.447
79224SOL    HW139446   8.949   2.173   9.445
79224SOL    HW239447   9.100   2.177   9.454
79225SOL     OW39448  13.602  13.607   0.628
79225SOL    HW139449  13.551  13.532   0.659
79225SOL    HW239450  13.693  13.580   0.636
79226SOL     OW39451  10.110   7.426   0.901
79226SOL    HW139452  10.131   7.497   0.961
79226SOL    HW239453  10.195   7.399   0.866
79227SOL     OW39454  11.193   4.796   4.502
79227SOL    HW139455  11.153   4.862   4.445
79227SOL    HW239456  11.283   4.789   4.471
79228SOL     OW39457   3.618   1.557   9.858
79228SOL    HW139458   3.629   1.504   9.937
79228SOL    HW239459   3.667   1.637   9.875
79229SOL     OW39460   7.784   2.301   9.409
79229SOL    HW139461   7.805   2.239   9.339
79229SOL    HW239462   7.804   2.255   9.490
79230SOL     OW39463  14.346   9.503   3.335
79230SOL    HW139464  14.425   9.535   3.291
79230SOL    HW239465  14.378   9.444   3.403
79231SOL     OW39466  14.659  11.746   4.244
79231SOL    HW139467  14.608  11.826   4.234
79231SOL    HW239468  14.597  11.675   4.225
79232SOL     OW39469   0.177   4.990   7.576
79232SOL    HW139470   0.124   5.067   7.594
79232SOL    HW239471   0.250   4.997   7.637
79233SOL     OW39472   3.080   6.600   5.940
79233SOL    HW139473   3.071   6.545   6.019
79233SOL    HW239474   3.067   6.539   5.867
79234SOL     OW39475   4.419   0.181   7.087
79234SOL    HW139476   4.478   0.151   7.157
79234SOL    HW239477   4.465   0.255   7.048
79235SOL     OW39478  10.005   1.477   2.960
79235SOL    HW139479  10.061   1.430   2.899
79235SOL    HW239480  10.059   1.550   2.990
79236SOL     OW39481   1.152   1.416  14.238
79236SOL    HW139482   1.107   1.334  14.216
79236SOL    HW239483   1.154   1.465  14.156
79237SOL     OW39484   8.389   4.436  10.284
79237SOL    HW139485   8.444   4.445  10.362
79237SOL    HW239486   8.374   4.342  10.276
79238SOL     OW39487   7.844   9.331  13.296
79238SOL    HW139488   7.826   9.241  13.322
79238SOL    HW239489   7.832   9.332  13.201
79239SOL     OW39490   1.548   2.036   8.950
79239SOL    HW139491   1.494   2.107   8.986
79239SOL    HW239492   1.487   1.963   8.940
79240SOL     OW39493  11.303  12.197   2.085
79240SOL    HW139494  11.382  12.252   2.092
79240SOL    HW239495  11.326  12.116   2.131
79241SOL     OW39496   7.648   5.093   6.957
79241SOL    HW139497   7.605   5.118   7.039
79241SOL    HW239498   7.716   5.159   6.944
79242SOL     OW39499   2.981  13.204   3.430
79242SOL    HW139500   3.009  13.283   3.476
79242SOL    HW239501   2.890  13.222   3.405
79243SOL     OW39502   9.672  10.998  10.691
79243SOL    HW139503   9.654  11.078  10.643
79243SOL    HW239504   9.615  11.003  10.768
79244SOL     OW39505   7.488   9.976   6.029
79244SOL    HW139506   7.574   9.952   5.996
79244SOL    HW239507   7.428   9.912   5.990
79245SOL     OW39508  10.236  11.211  14.246
79245SOL    HW139509  10.195  11.172  14.169
79245SOL    HW239510  10.296  11.144  14.278
79246SOL     OW39511   7.419   8.091  12.170
79246SOL    HW139512   7.326   8.105  12.187
79246SOL    HW239513   7.424   8.000  12.138
79247SOL     OW39514  12.917   5.950   8.929
79247SOL    HW139515  12.956   6.033   8.900
79247SOL    HW239516  12.991   5.898   8.960
79248SOL     OW39517   8.250   2.488   6.000
79248SOL    HW139518   8.237   2.404   6.045
79248SOL    HW239519   8.167   2.534   6.012
79249SOL     OW39520   1.905  13.547  13.851
79249SOL    HW139521   1.919  13.594  13.769
79249SOL    HW239522   1.820  13.576  13.882
79250SOL     OW39523   5.352   4.323   0.689
79250SOL    HW139524   5.435   4.365   0.711
79250SOL    HW239525   5.309   4.384   0.630
79251SOL     OW39526   6.732  14.202  13.260
79251SOL    HW139527   6.804  14.140  13.270
79251SOL    HW239528   6.742  14.237  13.172
79252SOL     OW39529   0.441   0.879   9.069
79252SOL    HW139530   0.465   0.905   8.980
79252SOL    HW239531   0.513   0.909   9.123
79253SOL     OW39532   6.592   4.773   9.975
79253SOL    HW139533   6.616   4.715   9.902
79253SOL    HW239534   6.579   4.714  10.049
79254SOL     OW39535   6.665   6.441  10.800
79254SOL    HW139536   6.692   6.410  10.713
79254SOL    HW239537   6.583   6.394  10.817
79255SOL     OW39538   2.756   1.958   9.894
79255SOL    HW139539   2.727   1.888   9.837
79255SOL    HW239540   2.705   2.034   9.866
79256SOL     OW39541   1.634  12.096   4.829
79256SOL    HW139542   1.583  12.038   4.773
79256SOL    HW239543   1.653  12.043   4.907
79257SOL     OW39544  12.150   8.109   5.716
79257SOL    HW139545  12.101   8.064   5.785
79257SOL    HW239546  12.200   8.039   5.673
79258SOL     OW39547   9.784   8.515   1.260
79258SOL    HW139548   9.714   8.498   1.324
79258SOL    HW239549   9.855   8.553   1.312
79259SOL     OW39550  13.388  14.596   5.947
79259SOL    HW139551  13.342  14.531   5.999
79259SOL    HW239552  13.372  14.570   5.856
79260SOL     OW39553   4.298  11.108   0.893
79260SOL    HW139554   4.256  11.038   0.843
79260SOL    HW239555   4.336  11.064   0.969
79261SOL     OW39556   7.970  14.649  14.744
79261SOL    HW139557   7.920  14.711  14.798
79261SOL    HW239558   7.924  14.649  14.660
79262SOL     OW39559   2.017   9.698  14.385
79262SOL    HW139560   2.067   9.642  14.325
79262SOL    HW239561   2.014   9.783  14.341
79263SOL     OW39562   6.588  12.479   4.030
79263SOL    HW139563   6.620  12.559   3.988
79263SOL    HW239564   6.659  12.415   4.018
79264SOL     OW39565   0.083   6.739  14.544
79264SOL    HW139566   0.033   6.782  14.613
79264SOL    HW239567   0.085   6.803  14.473
79265SOL     OW39568   2.681  11.121   1.970
79265SOL    HW139569   2.725  11.120   2.055
79265SOL    HW239570   2.602  11.174   1.985
79266SOL     OW39571  12.126   9.929   9.062
79266SOL    HW139572  12.217   9.940   9.087
79266SOL    HW239573  12.128   9.904   8.970
79267SOL     OW39574  14.724   6.124   0.626
79267SOL    HW139575  14.724   6.211   0.587
79267SOL    HW239576  14.797   6.079   0.585
79268SOL     OW39577  14.037   4.247   9.870
79268SOL    HW139578  14.113   4.293   9.906
79268SOL    HW239579  14.074   4.179   9.814
79269SOL     OW39580   1.406   0.056   4.767
79269SOL    HW139581   1.491   0.011   4.772
79269SOL    HW239582   1.347  14.877   4.817
79270SOL     OW39583   0.874   3.056   2.536
79270SOL    HW139584   0.922   2.976   2.556
79270SOL    HW239585   0.787   3.026   2.510
79271SOL     OW39586   8.635   4.609   3.324
79271SOL    HW139587   8.596   4.693   3.347
79271SOL    HW239588   8.573   4.569   3.263
79272SOL     OW39589   5.975   1.352  11.562
79272SOL    HW139590   5.942   1.408  11.632
79272SOL    HW239591   5.936   1.266  11.579
79273SOL     OW39592   3.122   5.076   6.377
79273SOL    HW139593   3.040   5.060   6.423
79273SOL    HW239594   3.179   5.117   6.442
79274SOL     OW39595   0.415  13.588   5.263
79274SOL    HW139596   0.345  13.533   5.299
79274SOL    HW239597   0.490  13.572   5.321
79275SOL     OW39598   8.629   9.405  12.822
79275SOL    HW139599   8.625   9.390  12.917
79275SOL    HW239600   8.543   9.441  12.800
79276SOL     OW39601  10.302   5.665   0.427
79276SOL    HW139602  10.333   5.621   0.348
79276SOL    HW239603  10.326   5.606   0.499
79277SOL     OW39604  10.238  10.885   6.572
79277SOL    HW139605  10.202  10.969   6.544
79277SOL    HW239606  10.169  10.845   6.625
79278SOL     OW39607   4.684   7.974   5.634
79278SOL    HW139608   4.774   7.961   5.602
79278SOL    HW239609   4.629   7.949   5.560
79279SOL     OW39610   4.398   4.576   7.594
79279SOL    HW139611   4.316   4.616   7.623
79279SOL    HW239612   4.429   4.527   7.671
79280SOL     OW39613   3.340  13.116   7.265
79280SOL    HW139614   3.431  13.146   7.269
79280SOL    HW239615   3.296  13.180   7.209
79281SOL     OW39616   1.636   4.004  14.397
79281SOL    HW139617   1.599   4.090  14.414
79281SOL    HW239618   1.585   3.944  14.451
79282SOL     OW39619   1.966   0.318   1.691
79282SOL    HW139620   2.021   0.248   1.725
79282SOL    HW239621   1.936   0.365   1.768
79283SOL     OW39622  11.831  10.420   3.634
79283SOL    HW139623  11.767  10.404   3.704
79283SOL    HW239624  11.844  10.334   3.594
79284SOL     OW39625   3.494   1.940   8.591
79284SOL    HW139626   3.417   1.884   8.577
79284SOL    HW239627   3.560   1.905   8.530
79285SOL     OW39628  12.743  12.128  11.516
79285SOL    HW139629  12.671  12.066  11.527
79285SOL    HW239630  12.760  12.128  11.422
79286SOL     OW39631   9.612  10.338   2.681
79286SOL    HW139632   9.612  10.326   2.586
79286SOL    HW239633   9.520  10.353   2.704
79287SOL     OW39634  10.934   0.831  14.480
79287SOL    HW139635  11.011   0.887  14.480
79287SOL    HW239636  10.866   0.884  14.523
79288SOL     OW39637   8.039   3.587  14.243
79288SOL    HW139638   8.066   3.507  14.287
79288SOL    HW239639   8.110   3.649  14.261
79289SOL     OW39640   0.882  13.364  12.365
79289SOL    HW139641   0.805  13.405  12.403
79289SOL    HW239642   0.954  13.391  12.422
79290SOL     OW39643   8.532  13.945   1.631
79290SOL    HW139644   8.604  13.900   1.587
79290SOL    HW239645   8.483  13.986   1.560
79291SOL     OW39646   2.480   4.680   6.384
79291SOL    HW139647   2.490   4.699   6.477
79291SOL    HW239648   2.385   4.674   6.371
79292SOL     OW39649   6.914   8.633   6.536
79292SOL    HW139650   6.866   8.563   6.581
79292SOL    HW239651   6.981   8.660   6.599
79293SOL     OW39652   0.439   6.372   0.192
79293SOL    HW139653   0.355   6.345   0.155
79293SOL    HW239654   0.499   6.301   0.170
79294SOL     OW39655  11.412  14.590  10.366
79294SOL    HW139656  11.345  14.547  10.419
79294SOL    HW239657  11.483  14.609  10.428
79295SOL     OW39658   5.279   6.551  11.290
79295SOL    HW139659   5.204   6.611  11.296
79295SOL    HW239660   5.247   6.479  11.236
79296SOL     OW39661   1.397   4.034   8.907
79296SOL    HW139662   1.339   4.041   8.831
79296SOL    HW239663   1.395   4.121   8.947
79297SOL     OW39664  13.744   1.834  11.127
79297SOL    HW139665  13.707   1.745  11.120
79297SOL    HW239666  13.838   1.821  11.117
79298SOL     OW39667   3.013   2.764  12.344
79298SOL    HW139668   2.922   2.741  12.362
79298SOL    HW239669   3.022   2.854  12.376
79299SOL     OW39670   8.898   3.798  14.179
79299SOL    HW139671   8.950   3.746  14.117
79299SOL    HW239672   8.847   3.857  14.123
79300SOL     OW39673   9.088  12.492   7.500
79300SOL    HW139674   9.182  12.504   7.509
79300SOL    HW239675   9.050  12.540   7.573
79301SOL     OW39676  13.664  10.172   7.697
79301SOL    HW139677  13.731  10.154   7.631
79301SOL    HW239678  13.658  10.267   7.701
79302SOL     OW39679   7.809   5.821   3.749
79302SOL    HW139680   7.870   5.866   3.807
79302SOL    HW239681   7.862   5.756   3.703
79303SOL     OW39682  13.835  13.534  11.520
79303SOL    HW139683  13.928  13.550  11.536
79303SOL    HW239684  13.791  13.558  11.602
79304SOL     OW39685  14.348  12.853  11.574
79304SOL    HW139686  14.355  12.826  11.482
79304SOL    HW239687  14.302  12.936  11.571
79305SOL     OW39688   0.387   5.856  14.784
79305SOL    HW139689   0.439   5.830  14.860
79305SOL    HW239690   0.325   5.785  14.771
79306SOL     OW39691   0.852   7.650  14.302
79306SOL    HW139692   0.913   7.611  14.239
79306SOL    HW239693   0.843   7.741  14.272
79307SOL     OW39694   5.007   7.180   3.628
79307SOL    HW139695   4.928   7.128   3.642
79307SOL    HW239696   5.078   7.124   3.659
79308SOL     OW39697   9.606   3.759   5.183
79308SOL    HW139698   9.533   3.750   5.122
79308SOL    HW239699   9.626   3.669   5.211
79309SOL     OW39700   2.652  10.827  13.503
79309SOL    HW139701   2.704  10.854  13.579
79309SOL    HW239702   2.570  10.876  13.512
79310SOL     OW39703   6.051  13.068  10.809
79310SOL    HW139704   6.022  12.981  10.836
79310SOL    HW239705   6.097  13.053  10.726
79311SOL     OW39706   6.761   8.869  12.944
79311SOL    HW139707   6.768   8.820  13.026
79311SOL    HW239708   6.688   8.829  12.898
79312SOL     OW39709   8.849   0.730   1.064
79312SOL    HW139710   8.759   0.711   1.088
79312SOL    HW239711   8.902   0.680   1.126
79313SOL     OW39712   9.775   0.703   1.460
79313SOL    HW139713   9.843   0.739   1.402
79313SOL    HW239714   9.811   0.714   1.548
79314SOL     OW39715   7.863  13.962   5.760
79314SOL    HW139716   7.863  14.019   5.837
79314SOL    HW239717   7.894  13.877   5.792
79315SOL     OW39718   3.070   5.024  11.427
79315SOL    HW139719   3.037   4.972  11.500
79315SOL    HW239720   3.127   4.964  11.379
79316SOL     OW39721   0.296   9.865   0.687
79316SOL    HW139722   0.344   9.908   0.617
79316SOL    HW239723   0.315   9.918   0.765
79317SOL     OW39724   3.062   0.621   2.188
79317SOL    HW139725   3.130   0.591   2.248
79317SOL    HW239726   3.014   0.542   2.163
79318SOL     OW39727   3.062  10.299   4.512
79318SOL    HW139728   3.150  10.324   4.541
79318SOL    HW239729   3.073  10.274   4.421
79319SOL     OW39730   1.866   2.776   6.757
79319SOL    HW139731   1.940   2.818   6.801
79319SOL    HW239732   1.788   2.811   6.802
79320SOL     OW39733   8.751   7.441  14.456
79320SOL    HW139734   8.708   7.357  14.441
79320SOL    HW239735   8.829   7.419  14.506
79321SOL     OW39736   3.884   6.234   1.598
79321SOL    HW139737   3.894   6.143   1.624
79321SOL    HW239738   3.790   6.248   1.592
79322SOL     OW39739   5.956   8.780   0.917
79322SOL    HW139740   5.935   8.778   0.824
79322SOL    HW239741   5.933   8.692   0.948
79323SOL     OW39742   3.428   3.253   6.269
79323SOL    HW139743   3.431   3.283   6.360
79323SOL    HW239744   3.379   3.171   6.273
79324SOL     OW39745   3.037   1.634  14.733
79324SOL    HW139746   3.010   1.681  14.654
79324SOL    HW239747   3.111   1.580  14.706
79325SOL     OW39748   1.818   3.353   7.329
79325SOL    HW139749   1.787   3.440   7.356
79325SOL    HW239750   1.908   3.368   7.301
79326SOL     OW39751   7.468   3.916   6.373
79326SOL    HW139752   7.433   3.935   6.287
79326SOL    HW239753   7.464   4.000   6.420
79327SOL     OW39754   7.784  13.475   3.466
79327SOL    HW139755   7.733  13.550   3.497
79327SOL    HW239756   7.752  13.402   3.518
79328SOL     OW39757   6.228   6.475   2.471
79328SOL    HW139758   6.228   6.429   2.555
79328SOL    HW239759   6.276   6.417   2.412
79329SOL     OW39760   5.004   4.165   0.576
79329SOL    HW139761   5.061   4.124   0.641
79329SOL    HW239762   4.923   4.113   0.578
79330SOL     OW39763   4.631   9.749   2.627
79330SOL    HW139764   4.602   9.811   2.559
79330SOL    HW239765   4.724   9.737   2.611
79331SOL     OW39766   7.592  12.044   0.842
79331SOL    HW139767   7.655  12.089   0.786
79331SOL    HW239768   7.630  12.048   0.930
79332SOL     OW39769  12.284  10.475   1.204
79332SOL    HW139770  12.355  10.486   1.141
79332SOL    HW239771  12.206  10.502   1.157
79333SOL     OW39772  11.610   7.292  13.000
79333SOL    HW139773  11.535   7.280  13.057
79333SOL    HW239774  11.619   7.386  12.989
79334SOL     OW39775   5.079  12.272  10.125
79334SOL    HW139776   5.173  12.259  10.128
79334SOL    HW239777   5.062  12.340  10.190
79335SOL     OW39778  10.033   6.221   3.259
79335SOL    HW139779  10.115   6.174   3.277
79335SOL    HW239780  10.003   6.188   3.175
79336SOL     OW39781   5.065   5.916   4.966
79336SOL    HW139782   5.028   5.831   4.943
79336SOL    HW239783   5.105   5.903   5.051
79337SOL     OW39784   1.066   5.324   8.532
79337SOL    HW139785   1.043   5.378   8.457
79337SOL    HW239786   1.075   5.385   8.604
79338SOL     OW39787  11.003   0.251   8.327
79338SOL    HW139788  11.037   0.281   8.242
79338SOL    HW239789  11.065   0.185   8.356
79339SOL     OW39790   0.571   2.426   4.710
79339SOL    HW139791   0.616   2.344   4.726
79339SOL    HW239792   0.536   2.418   4.621
79340SOL     OW39793  14.391  14.074   2.305
79340SOL    HW139794  14.462  14.032   2.255
79340SOL    HW239795  14.377  14.157   2.260
79341SOL     OW39796   1.316   8.907   1.065
79341SOL    HW139797   1.293   8.936   0.977
79341SOL    HW239798   1.343   8.815   1.055
79342SOL     OW39799   5.179   8.152   4.283
79342SOL    HW139800   5.270   8.178   4.270
79342SOL    HW239801   5.167   8.156   4.378
79343SOL     OW39802   9.609   4.409   6.265
79343SOL    HW139803   9.651   4.437   6.184
79343SOL    HW239804   9.659   4.332   6.293
79344SOL     OW39805  11.456   1.142  10.249
79344SOL    HW139806  11.513   1.176  10.318
79344SOL    HW239807  11.374   1.190  10.259
79345SOL     OW39808   6.326   0.428   4.477
79345SOL    HW139809   6.368   0.369   4.540
79345SOL    HW239810   6.335   0.383   4.393
79346SOL     OW39811   5.211  12.188   2.777
79346SOL    HW139812   5.256  12.271   2.757
79346SOL    HW239813   5.201  12.146   2.691
79347SOL     OW39814   4.698   8.537  11.369
79347SOL    HW139815   4.730   8.450  11.394
79347SOL    HW239816   4.629   8.556  11.432
79348SOL     OW39817  13.296   4.675  13.967
79348SOL    HW139818  13.371   4.731  13.984
79348SOL    HW239819  13.255   4.662  14.052
79349SOL     OW39820   5.410  11.897   4.163
79349SOL    HW139821   5.498  11.916   4.195
79349SOL    HW239822   5.370  11.842   4.231
79350SOL     OW39823   2.202  11.118   9.263
79350SOL    HW139824   2.291  11.094   9.237
79350SOL    HW239825   2.200  11.104   9.358
79351SOL     OW39826   2.813  10.030   9.756
79351SOL    HW139827   2.730  10.069   9.730
79351SOL    HW239828   2.865  10.103   9.788
79352SOL     OW39829   7.271  10.502   9.004
79352SOL    HW139830   7.360  10.495   9.037
79352SOL    HW239831   7.280  10.501   8.909
79353SOL     OW39832  13.515  10.099  14.559
79353SOL    HW139833  13.491  10.059  14.476
79353SOL    HW239834  13.441  10.156  14.580
79354SOL     OW39835   5.577   7.124  13.330
79354SOL    HW139836   5.527   7.187  13.279
79354SOL    HW239837   5.644   7.091  13.270
79355SOL     OW39838  10.775   3.873   7.927
79355SOL    HW139839  10.767   3.887   8.022
79355SOL    HW239840  10.751   3.782   7.914
79356SOL     OW39841   9.898   7.967   5.070
79356SOL    HW139842   9.819   7.928   5.108
79356SOL    HW239843   9.870   8.055   5.043
79357SOL     OW39844   7.639   7.697   8.443
79357SOL    HW139845   7.566   7.665   8.391
79357SOL    HW239846   7.649   7.788   8.417
79358SOL     OW39847   8.798   1.139   9.398
79358SOL    HW139848   8.841   1.066   9.443
79358SOL    HW239849   8.813   1.214   9.455
79359SOL     OW39850  14.284  12.398   5.641
79359SOL    HW139851  14.259  12.382   5.550
79359SOL    HW239852  14.357  12.460   5.635
79360SOL     OW39853   2.624  10.808   0.883
79360SOL    HW139854   2.669  10.857   0.814
79360SOL    HW239855   2.578  10.876   0.933
79361SOL     OW39856   4.934   3.297   4.697
79361SOL    HW139857   5.011   3.337   4.657
79361SOL    HW239858   4.860   3.349   4.665
79362SOL     OW39859  11.225   6.128  11.520
79362SOL    HW139860  11.284   6.202  11.504
79362SOL    HW239861  11.189   6.146  11.608
79363SOL     OW39862   7.784  13.096   4.912
79363SOL    HW139863   7.728  13.038   4.963
79363SOL    HW239864   7.784  13.178   4.961
79364SOL     OW39865   2.182   9.092   3.283
79364SOL    HW139866   2.257   9.118   3.338
79364SOL    HW239867   2.137   9.174   3.265
79365SOL     OW39868   7.982   6.372   9.524
79365SOL    HW139869   8.050   6.432   9.494
79365SOL    HW239870   7.917   6.373   9.454
79366SOL     OW39871   0.653   3.473  12.850
79366SOL    HW139872   0.569   3.501  12.887
79366SOL    HW239873   0.630   3.401  12.792
79367SOL     OW39874   5.360   8.664  14.688
79367SOL    HW139875   5.299   8.698  14.753
79367SOL    HW239876   5.445   8.700  14.713
79368SOL     OW39877   8.988  14.875   2.235
79368SOL    HW139878   8.894   0.011   2.226
79368SOL    HW239879   9.012   0.046   2.314
79369SOL     OW39880  13.039   4.437   2.889
79369SOL    HW139881  12.984   4.458   2.814
79369SOL    HW239882  13.121   4.482   2.874
79370SOL     OW39883   6.357   9.472  14.240
79370SOL    HW139884   6.378   9.470  14.334
79370SOL    HW239885   6.302   9.395  14.226
79371SOL     OW39886   7.126   7.650   8.743
79371SOL    HW139887   7.111   7.674   8.651
79371SOL    HW239888   7.067   7.708   8.792
79372SOL     OW39889  13.184   5.333   3.754
79372SOL    HW139890  13.248   5.296   3.692
79372SOL    HW239891  13.139   5.257   3.790
79373SOL     OW39892  11.827   9.783  11.462
79373SOL    HW139893  11.908   9.801  11.510
79373SOL    HW239894  11.821   9.687  11.462
79374SOL     OW39895   6.866  10.420   8.548
79374SOL    HW139896   6.919  10.365   8.605
79374SOL    HW239897   6.888  10.510   8.573
79375SOL     OW39898  14.133  13.272  13.917
79375SOL    HW139899  14.130  13.223  14.000
79375SOL    HW239900  14.224  13.302  13.910
79376SOL     OW39901  12.706   8.400  12.208
79376SOL    HW139902  12.656   8.475  12.177
79376SOL    HW239903  12.734   8.424  12.296
79377SOL     OW39904   6.387   2.173   8.303
79377SOL    HW139905   6.346   2.167   8.216
79377SOL    HW239906   6.362   2.092   8.346
79378SOL     OW39907   2.949   2.407   0.077
79378SOL    HW139908   2.915   2.495   0.096
79378SOL    HW239909   2.984   2.413  14.866
79379SOL     OW39910  12.094  13.716   7.308
79379SOL    HW139911  12.129  13.628   7.320
79379SOL    HW239912  12.005  13.712   7.344
79380SOL     OW39913   5.419  10.461   2.888
79380SOL    HW139914   5.422  10.414   2.972
79380SOL    HW239915   5.338  10.432   2.847
79381SOL     OW39916   1.378   9.970   2.398
79381SOL    HW139917   1.388   9.970   2.303
79381SOL    HW239918   1.414   9.886   2.426
79382SOL     OW39919   5.034   9.500   6.442
79382SOL    HW139920   4.945   9.478   6.470
79382SOL    HW239921   5.069   9.553   6.514
79383SOL     OW39922   4.891  10.668   0.411
79383SOL    HW139923   4.861  10.577   0.402
79383SOL    HW239924   4.818  10.721   0.381
79384SOL     OW39925   6.867   7.340   3.007
79384SOL    HW139926   6.848   7.286   3.083
79384SOL    HW239927   6.783   7.381   2.985
79385SOL     OW39928   9.473   2.107   2.124
79385SOL    HW139929   9.487   2.200   2.141
79385SOL    HW239930   9.506   2.062   2.201
79386SOL     OW39931  13.101   7.591   7.924
79386SOL    HW139932  13.145   7.526   7.978
79386SOL    HW239933  13.013   7.597   7.959
79387SOL     OW39934  14.015  11.931   2.978
79387SOL    HW139935  14.032  11.838   2.993
79387SOL    HW239936  14.096  11.974   3.002
79388SOL     OW39937  13.505   7.201   4.236
79388SOL    HW139938  13.441   7.193   4.165
79388SOL    HW239939  13.553   7.118   4.235
79389SOL     OW39940  11.494   6.078   5.079
79389SOL    HW139941  11.452   6.161   5.102
79389SOL    HW239942  11.464   6.059   4.991
79390SOL     OW39943  13.792   2.870  12.070
79390SOL    HW139944  13.718   2.866  12.131
79390SOL    HW239945  13.789   2.786  12.024
79391SOL     OW39946  14.804   6.149   7.988
79391SOL    HW139947  14.854   6.068   7.997
79391SOL    HW239948  14.713   6.123   8.003
79392SOL     OW39949  13.616  13.716  12.319
79392SOL    HW139950  13.560  13.667  12.259
79392SOL    HW239951  13.584  13.806  12.312
79393SOL     OW39952   8.205   8.827  10.790
79393SOL    HW139953   8.272   8.758  10.799
79393SOL    HW239954   8.248   8.895  10.738
79394SOL     OW39955   6.831   1.130   7.078
79394SOL    HW139956   6.748   1.172   7.101
79394SOL    HW239957   6.820   1.101   6.988
79395SOL     OW39958  10.336   0.598   2.307
79395SOL    HW139959  10.316   0.505   2.323
79395SOL    HW239960  10.380   0.627   2.387
79396SOL     OW39961   5.157   5.687   8.831
79396SOL    HW139962   5.147   5.678   8.736
79396SOL    HW239963   5.250   5.707   8.844
79397SOL     OW39964   2.779   0.369   2.223
79397SOL    HW139965   2.799   0.409   2.308
79397SOL    HW239966   2.861   0.330   2.195
79398SOL     OW39967   5.456   5.097   0.468
79398SOL    HW139968   5.413   5.107   0.553
79398SOL    HW239969   5.393   5.050   0.414
79399SOL     OW39970   0.717  14.782   2.374
79399SOL    HW139971   0.721  14.706   2.316
79399SOL    HW239972   0.631  14.777   2.415
79400SOL     OW39973  10.709  10.924   9.791
79400SOL    HW139974  10.673  10.849   9.838
79400SOL    HW239975  10.632  10.975   9.766
79401SOL     OW39976  10.507   4.444   4.256
79401SOL    HW139977  10.480   4.458   4.347
79401SOL    HW239978  10.431   4.470   4.204
79402SOL     OW39979   7.639   2.231   5.863
79402SOL    HW139980   7.704   2.184   5.916
79402SOL    HW239981   7.589   2.283   5.926
79403SOL     OW39982   3.332  14.139   1.103
79403SOL    HW139983   3.248  14.163   1.065
79403SOL    HW239984   3.381  14.101   1.030
79404SOL     OW39985  10.259  13.712   5.516
79404SOL    HW139986  10.281  13.726   5.424
79404SOL    HW239987  10.174  13.668   5.515
79405SOL     OW39988  14.160   8.791   6.226
79405SOL    HW139989  14.207   8.861   6.272
79405SOL    HW239990  14.169   8.715   6.283
79406SOL     OW39991   2.538   4.406  10.147
79406SOL    HW139992   2.609   4.370  10.095
79406SOL    HW239993   2.581   4.442  10.225
79407SOL     OW39994  13.665  11.866   7.519
79407SOL    HW139995  13.641  11.775   7.500
79407SOL    HW239996  13.683  11.905   7.434
79408SOL     OW39997  13.717  10.020   8.962
79408SOL    HW139998  13.640  10.073   8.943
79408SOL    HW239999  13.767  10.073   9.025
79409SOL     OW40000  12.203   3.174   9.569
79409SOL    HW140001  12.207   3.165   9.474
79409SOL    HW240002  12.253   3.254   9.587
79410SOL     OW40003  14.239  13.417  12.160
79410SOL    HW140004  14.214  13.493  12.213
79410SOL    HW240005  14.274  13.355  12.224
79411SOL     OW40006   8.794  11.863  11.492
79411SOL    HW140007   8.705  11.889  11.517
79411SOL    HW240008   8.785  11.773  11.461
79412SOL     OW40009   0.427   5.868   8.047
79412SOL    HW140010   0.443   5.882   7.954
79412SOL    HW240011   0.494   5.805   8.074
79413SOL     OW40012   1.064   1.743  14.565
79413SOL    HW140013   1.075   1.822  14.513
79413SOL    HW240014   1.091   1.769  14.653
79414SOL     OW40015   4.045  12.577  11.863
79414SOL    HW140016   3.983  12.512  11.897
79414SOL    HW240017   4.021  12.587  11.771
79415SOL     OW40018   2.860   0.028  14.199
79415SOL    HW140019   2.786   0.057  14.146
79415SOL    HW240020   2.844  14.813  14.215
79416SOL     OW40021   3.111  11.981   6.794
79416SOL    HW140022   3.105  11.942   6.707
79416SOL    HW240023   3.082  11.912   6.854
79417SOL     OW40024   6.862  14.094   8.222
79417SOL    HW140025   6.843  14.103   8.316
79417SOL    HW240026   6.846  14.181   8.186
79418SOL     OW40027  11.663  10.847  14.258
79418SOL    HW140028  11.693  10.765  14.296
79418SOL    HW240029  11.733  10.910  14.276
79419SOL     OW40030   7.501   4.746   1.646
79419SOL    HW140031   7.405   4.747   1.641
79419SOL    HW240032   7.523   4.806   1.717
79420SOL     OW40033   7.906   5.066   7.482
79420SOL    HW140034   7.892   4.972   7.471
79420SOL    HW240035   7.902   5.101   7.393
79421SOL     OW40036   3.544  11.317   7.246
79421SOL    HW140037   3.515  11.397   7.203
79421SOL    HW240038   3.579  11.263   7.176
79422SOL     OW40039  11.377   5.452   7.780
79422SOL    HW140040  11.447   5.446   7.715
79422SOL    HW240041  11.297   5.459   7.729
79423SOL     OW40042  12.540   4.103   3.800
79423SOL    HW140043  12.532   4.143   3.714
79423SOL    HW240044  12.560   4.011   3.781
79424SOL     OW40045  11.227   0.816   1.876
79424SOL    HW140046  11.306   0.812   1.930
79424SOL    HW240047  11.155   0.794   1.937
79425SOL     OW40048   3.347  13.218  13.082
79425SOL    HW140049   3.439  13.214  13.109
79425SOL    HW240050   3.313  13.131  13.101
79426SOL     OW40051   9.636   3.400   0.127
79426SOL    HW140052   9.579   3.473   0.148
79426SOL    HW240053   9.723   3.439   0.115
79427SOL     OW40054   8.298   1.006   8.507
79427SOL    HW140055   8.377   1.008   8.561
79427SOL    HW240056   8.226   1.007   8.571
79428SOL     OW40057  12.863  10.162   9.260
79428SOL    HW140058  12.930  10.128   9.200
79428SOL    HW240059  12.817  10.228   9.209
79429SOL     OW40060   0.006   9.952   1.215
79429SOL    HW140061   0.087   9.910   1.187
79429SOL    HW240062  14.826   9.945   1.139
79430SOL     OW40063   4.636   8.022   1.542
79430SOL    HW140064   4.702   8.051   1.479
79430SOL    HW240065   4.686   8.007   1.622
79431SOL     OW40066   4.787   1.610   9.275
79431SOL    HW140067   4.768   1.524   9.313
79431SOL    HW240068   4.808   1.665   9.350
79432SOL     OW40069   1.625   7.779   2.331
79432SOL    HW140070   1.711   7.816   2.315
79432SOL    HW240071   1.618   7.773   2.426
79433SOL     OW40072   8.969   6.874  13.092
79433SOL    HW140073   9.012   6.960  13.098
79433SOL    HW240074   9.032   6.820  13.044
79434SOL     OW40075  10.866   9.885   8.951
79434SOL    HW140076  10.777   9.852   8.941
79434SOL    HW240077  10.891   9.915   8.864
79435SOL     OW40078  14.114   2.583  11.933
79435SOL    HW140079  14.073   2.643  11.871
79435SOL    HW240080  14.208   2.599  11.924
79436SOL     OW40081  10.239   6.848   6.218
79436SOL    HW140082  10.174   6.782   6.243
79436SOL    HW240083  10.190   6.910   6.164
79437SOL     OW40084   2.469  10.402   6.300
79437SOL    HW140085   2.457  10.338   6.230
79437SOL    HW240086   2.563  10.420   6.300
79438SOL     OW40087   5.857   6.920   9.972
79438SOL    HW140088   5.936   6.892  10.018
79438SOL    HW240089   5.889   6.952   9.888
79439SOL     OW40090   0.662   8.780   4.820
79439SOL    HW140091   0.623   8.797   4.906
79439SOL    HW240092   0.753   8.758   4.838
79440SOL     OW40093   6.743   8.885   5.713
79440SOL    HW140094   6.660   8.909   5.754
79440SOL    HW240095   6.768   8.803   5.757
79441SOL     OW40096  12.262   5.265   9.655
79441SOL    HW140097  12.177   5.308   9.666
79441SOL    HW240098  12.263   5.237   9.564
79442SOL     OW40099   7.086   7.810   4.044
79442SOL    HW140100   7.057   7.866   3.971
79442SOL    HW240101   7.030   7.733   4.039
79443SOL     OW40102   3.521  10.600   3.362
79443SOL    HW140103   3.522  10.539   3.436
79443SOL    HW240104   3.592  10.661   3.381
79444SOL     OW40105   9.523   0.062   1.342
79444SOL    HW140106   9.520   0.156   1.357
79444SOL    HW240107   9.484   0.051   1.255
79445SOL     OW40108  10.855   5.370   9.525
79445SOL    HW140109  10.905   5.332   9.598
79445SOL    HW240110  10.769   5.391   9.564
79446SOL     OW40111  11.984   5.299   5.898
79446SOL    HW140112  11.960   5.370   5.838
79446SOL    HW240113  12.030   5.342   5.969
79447SOL     OW40114   0.734   9.451  14.355
79447SOL    HW140115   0.807   9.461  14.294
79447SOL    HW240116   0.672   9.519  14.329
79448SOL     OW40117  10.460   8.179  11.580
79448SOL    HW140118  10.535   8.148  11.630
79448SOL    HW240119  10.434   8.104  11.526
79449SOL     OW40120   6.999  12.294   7.702
79449SOL    HW140121   6.923  12.345   7.673
79449SOL    HW240122   7.071  12.357   7.706
79450SOL     OW40123   4.383   1.284   9.981
79450SOL    HW140124   4.441   1.350  10.019
79450SOL    HW240125   4.443   1.222   9.938
79451SOL     OW40126  11.836   6.374  11.462
79451SOL    HW140127  11.827   6.456  11.510
79451SOL    HW240128  11.912   6.331  11.501
79452SOL     OW40129   5.364   3.034   5.710
79452SOL    HW140130   5.315   2.954   5.730
79452SOL    HW240131   5.452   3.018   5.745
79453SOL     OW40132   4.612  13.580  14.377
79453SOL    HW140133   4.698  13.572  14.336
79453SOL    HW240134   4.551  13.545  14.312
79454SOL     OW40135   2.347   7.668  12.646
79454SOL    HW140136   2.266   7.619  12.630
79454SOL    HW240137   2.344   7.689  12.740
79455SOL     OW40138   8.089   9.288  10.788
79455SOL    HW140139   8.165   9.292  10.846
79455SOL    HW240140   8.083   9.377  10.751
79456SOL     OW40141   3.576  14.446   1.347
79456SOL    HW140142   3.553  14.499   1.423
79456SOL    HW240143   3.512  14.375   1.346
79457SOL     OW40144  13.086  11.062   2.071
79457SOL    HW140145  13.021  11.130   2.087
79457SOL    HW240146  13.086  11.049   1.976
79458SOL     OW40147   1.355   7.705  11.632
79458SOL    HW140148   1.415   7.682  11.561
79458SOL    HW240149   1.307   7.624  11.649
79459SOL     OW40150  10.534   1.937   5.756
79459SOL    HW140151  10.483   2.011   5.790
79459SOL    HW240152  10.545   1.879   5.832
79460SOL     OW40153  14.039  11.722   3.243
79460SOL    HW140154  13.973  11.677   3.190
79460SOL    HW240155  13.988  11.766   3.311
79461SOL     OW40156  12.436   3.614  10.969
79461SOL    HW140157  12.427   3.707  10.990
79461SOL    HW240158  12.346   3.582  10.965
79462SOL     OW40159   6.735   1.145  10.247
79462SOL    HW140160   6.772   1.094  10.175
79462SOL    HW240161   6.665   1.196  10.206
79463SOL     OW40162   0.356  13.267   7.487
79463SOL    HW140163   0.315  13.256   7.573
79463SOL    HW240164   0.445  13.235   7.499
79464SOL     OW40165   4.314  13.709  11.290
79464SOL    HW140166   4.229  13.689  11.328
79464SOL    HW240167   4.308  13.676  11.200
79465SOL     OW40168   6.121   5.403   8.822
79465SOL    HW140169   6.202   5.442   8.789
79465SOL    HW240170   6.137   5.309   8.818
79466SOL     OW40171  10.096   0.212   6.435
79466SOL    HW140172  10.156   0.269   6.386
79466SOL    HW240173  10.067   0.266   6.508
79467SOL     OW40174  13.197   5.378  14.250
79467SOL    HW140175  13.204   5.473  14.262
79467SOL    HW240176  13.269   5.342  14.301
79468SOL     OW40177   3.681   3.783  14.864
79468SOL    HW140178   3.612   3.738  14.815
79468SOL    HW240179   3.740   3.714   0.014
79469SOL     OW40180   0.358   7.418  13.810
79469SOL    HW140181   0.370   7.364  13.888
79469SOL    HW240182   0.401   7.501  13.832
79470SOL     OW40183   7.422   3.125   5.246
79470SOL    HW140184   7.451   3.035   5.233
79470SOL    HW240185   7.455   3.172   5.170
79471SOL     OW40186  11.526  10.659   3.512
79471SOL    HW140187  11.488  10.648   3.599
79471SOL    HW240188  11.618  10.679   3.528
79472SOL     OW40189   5.148   2.580   0.643
79472SOL    HW140190   5.216   2.516   0.622
79472SOL    HW240191   5.131   2.566   0.736
79473SOL     OW40192   2.959  13.011   8.203
79473SOL    HW140193   3.048  12.987   8.178
79473SOL    HW240194   2.953  12.989   8.296
79474SOL     OW40195  10.468  12.470   5.402
79474SOL    HW140196  10.449  12.525   5.479
79474SOL    HW240197  10.438  12.383   5.427
79475SOL     OW40198   2.504  14.593   0.535
79475SOL    HW140199   2.448  14.565   0.607
79475SOL    HW240200   2.569  14.650   0.576
79476SOL     OW40201   1.676   7.550  14.502
79476SOL    HW140202   1.765   7.575  14.526
79476SOL    HW240203   1.680   7.456  14.488
79477SOL     OW40204  12.632   9.593   1.234
79477SOL    HW140205  12.625   9.574   1.327
79477SOL    HW240206  12.688   9.670   1.229
79478SOL     OW40207  11.597   0.100   4.090
79478SOL    HW140208  11.587   0.010   4.057
79478SOL    HW240209  11.544   0.102   4.170
79479SOL     OW40210   5.315   7.027  14.204
79479SOL    HW140211   5.402   7.044  14.240
79479SOL    HW240212   5.257   7.084  14.255
79480SOL     OW40213   8.554  12.521  10.818
79480SOL    HW140214   8.554  12.617  10.818
79480SOL    HW240215   8.497  12.498  10.891
79481SOL     OW40216  13.823   5.853  11.534
79481SOL    HW140217  13.746   5.863  11.591
79481SOL    HW240218  13.789   5.866  11.446
79482SOL     OW40219  11.479   3.724   9.553
79482SOL    HW140220  11.411   3.749   9.616
79482SOL    HW240221  11.431   3.703   9.473
79483SOL     OW40222   3.058   3.286   0.973
79483SOL    HW140223   3.017   3.232   1.040
79483SOL    HW240224   3.071   3.371   1.015
79484SOL     OW40225   8.926   8.547   9.964
79484SOL    HW140226   8.867   8.598   9.908
79484SOL    HW240227   9.013   8.559   9.926
79485SOL     OW40228   7.052   0.768   3.049
79485SOL    HW140229   7.006   0.764   2.965
79485SOL    HW240230   7.093   0.855   3.049
79486SOL     OW40231   7.549   5.896   8.373
79486SOL    HW140232   7.571   5.825   8.434
79486SOL    HW240233   7.495   5.854   8.306
79487SOL     OW40234   9.336   2.210   1.018
79487SOL    HW140235   9.328   2.175   1.107
79487SOL    HW240236   9.259   2.178   0.972
79488SOL     OW40237   1.523   4.685   8.540
79488SOL    HW140238   1.464   4.699   8.465
79488SOL    HW240239   1.538   4.773   8.575
79489SOL     OW40240  10.438   7.983   5.985
79489SOL    HW140241  10.494   7.961   6.058
79489SOL    HW240242  10.389   7.903   5.966
79490SOL     OW40243   7.437   3.520  10.827
79490SOL    HW140244   7.390   3.445  10.864
79490SOL    HW240245   7.450   3.579  10.900
79491SOL     OW40246   1.316  12.805   6.075
79491SOL    HW140247   1.277  12.760   6.000
79491SOL    HW240248   1.409  12.783   6.071
79492SOL     OW40249   7.944  14.437  13.103
79492SOL    HW140250   8.031  14.427  13.141
79492SOL    HW240251   7.940  14.529  13.076
79493SOL     OW40252  11.890  11.744   4.855
79493SOL    HW140253  11.913  11.825   4.901
79493SOL    HW240254  11.958  11.735   4.788
79494SOL     OW40255   2.270  13.217  13.077
79494SOL    HW140256   2.315  13.294  13.040
79494SOL    HW240257   2.192  13.253  13.118
79495SOL     OW40258  14.322  14.344  14.135
79495SOL    HW140259  14.385  14.295  14.081
79495SOL    HW240260  14.242  14.293  14.130
79496SOL     OW40261  13.599   8.700  11.055
79496SOL    HW140262  13.551   8.629  11.013
79496SOL    HW240263  13.535   8.770  11.065
79497SOL     OW40264  12.564  13.202   1.094
79497SOL    HW140265  12.592  13.269   1.031
79497SOL    HW240266  12.640  13.187   1.149
79498SOL     OW40267   8.303  14.307   7.376
79498SOL    HW140268   8.237  14.376   7.366
79498SOL    HW240269   8.317  14.274   7.287
79499SOL     OW40270   7.826  12.741   8.226
79499SOL    HW140271   7.906  12.699   8.255
79499SOL    HW240272   7.783  12.769   8.307
79500SOL     OW40273   6.470  12.752  10.003
79500SOL    HW140274   6.516  12.779  10.082
79500SOL    HW240275   6.524  12.682   9.966
79501SOL     OW40276  10.125   7.327   7.753
79501SOL    HW140277  10.134   7.421   7.767
79501SOL    HW240278  10.085   7.318   7.666
79502SOL     OW40279  13.443   9.590   1.821
79502SOL    HW140280  13.490   9.546   1.893
79502SOL    HW240281  13.395   9.660   1.864
79503SOL     OW40282   4.342   0.842   1.366
79503SOL    HW140283   4.352   0.859   1.273
79503SOL    HW240284   4.429   0.859   1.403
79504SOL     OW40285  14.019   8.579  11.082
79504SOL    HW140286  13.949   8.619  11.029
79504SOL    HW240287  13.980   8.498  11.115
79505SOL     OW40288   4.403   1.109   4.203
79505SOL    HW140289   4.374   1.120   4.112
79505SOL    HW240290   4.329   1.140   4.255
79506SOL     OW40291  14.739   6.030   5.706
79506SOL    HW140292  14.659   6.070   5.741
79506SOL    HW240293  14.777   5.985   5.781
79507SOL     OW40294   8.916   1.343  10.803
79507SOL    HW140295   9.000   1.334  10.849
79507SOL    HW240296   8.924   1.424  10.753
79508SOL     OW40297  13.987   1.882   2.993
79508SOL    HW140298  14.069   1.906   3.037
79508SOL    HW240299  13.958   1.962   2.951
79509SOL     OW40300   9.500  14.709   8.300
79509SOL    HW140301   9.557  14.725   8.376
79509SOL    HW240302   9.559  14.676   8.233
79510SOL     OW40303   3.335  11.651   5.427
79510SOL    HW140304   3.308  11.694   5.346
79510SOL    HW240305   3.328  11.557   5.407
79511SOL     OW40306  11.781  12.470  11.236
79511SOL    HW140307  11.869  12.496  11.263
79511SOL    HW240308  11.773  12.502  11.146
79512SOL     OW40309  14.808  12.329   4.589
79512SOL    HW140310   0.009  12.287   4.625
79512SOL    HW240311  14.775  12.266   4.525
79513SOL     OW40312   0.905   2.382  11.659
79513SOL    HW140313   0.911   2.429  11.742
79513SOL    HW240314   0.973   2.420  11.604
79514SOL     OW40315   1.119   6.975   0.732
79514SOL    HW140316   1.102   6.985   0.826
79514SOL    HW240317   1.113   7.065   0.698
79515SOL     OW40318   0.036  14.665  14.824
79515SOL    HW140319   0.049  14.612   0.025
79515SOL    HW240320   0.122  14.667  14.782
79516SOL     OW40321   8.519  13.464   7.479
79516SOL    HW140322   8.450  13.414   7.437
79516SOL    HW240323   8.547  13.410   7.552
79517SOL     OW40324   0.234   5.292   9.376
79517SOL    HW140325   0.223   5.365   9.437
79517SOL    HW240326   0.329   5.275   9.376
79518SOL     OW40327   4.101   7.293   7.325
79518SOL    HW140328   4.174   7.354   7.314
79518SOL    HW240329   4.122   7.220   7.266
79519SOL     OW40330   8.791   6.963  12.829
79519SOL    HW140331   8.834   6.886  12.866
79519SOL    HW240332   8.861   7.027  12.818
79520SOL     OW40333   1.254   4.276  10.264
79520SOL    HW140334   1.292   4.197  10.226
79520SOL    HW240335   1.315   4.299  10.334
79521SOL     OW40336   2.001  10.521   1.093
79521SOL    HW140337   2.055  10.442   1.086
79521SOL    HW240338   2.038  10.568   1.168
79522SOL     OW40339   2.716   8.679   1.080
79522SOL    HW140340   2.663   8.615   1.126
79522SOL    HW240341   2.653   8.744   1.047
79523SOL     OW40342  14.132   8.283   5.613
79523SOL    HW140343  14.152   8.292   5.519
79523SOL    HW240344  14.086   8.200   5.620
79524SOL     OW40345   7.153  10.669   9.871
79524SOL    HW140346   7.120  10.632   9.790
79524SOL    HW240347   7.075  10.690   9.922
79525SOL     OW40348   0.450  11.956  10.411
79525SOL    HW140349   0.357  11.975  10.424
79525SOL    HW240350   0.494  11.998  10.485
79526SOL     OW40351   4.115   0.937   7.517
79526SOL    HW140352   4.082   1.007   7.460
79526SOL    HW240353   4.091   0.856   7.472
79527SOL     OW40354   0.905   3.201   2.772
79527SOL    HW140355   0.843   3.163   2.709
79527SOL    HW240356   0.893   3.296   2.764
79528SOL     OW40357   3.529   1.830   7.808
79528SOL    HW140358   3.545   1.870   7.723
79528SOL    HW240359   3.469   1.890   7.853
79529SOL     OW40360  12.459   3.225  14.602
79529SOL    HW140361  12.386   3.196  14.547
79529SOL    HW240362  12.450   3.320  14.606
79530SOL     OW40363  12.223   5.292  14.696
79530SOL    HW140364  12.150   5.349  14.718
79530SOL    HW240365  12.246   5.249  14.778
79531SOL     OW40366   7.341  14.150  13.914
79531SOL    HW140367   7.332  14.222  13.976
79531SOL    HW240368   7.413  14.098  13.949
79532SOL     OW40369  13.756   7.511   1.060
79532SOL    HW140370  13.665   7.510   1.089
79532SOL    HW240371  13.783   7.419   1.061
79533SOL     OW40372   0.453   0.940  12.723
79533SOL    HW140373   0.497   0.871  12.674
79533SOL    HW240374   0.462   0.914  12.815
79534SOL     OW40375  11.149   1.312   6.773
79534SOL    HW140376  11.212   1.244   6.748
79534SOL    HW240377  11.123   1.352   6.690
79535SOL     OW40378   3.391  14.544   2.071
79535SOL    HW140379   3.302  14.510   2.064
79535SOL    HW240380   3.440  14.500   2.002
79536SOL     OW40381   9.154  14.390   6.633
79536SOL    HW140382   9.189  14.418   6.548
79536SOL    HW240383   9.229  14.353   6.679
79537SOL     OW40384   4.526   3.905  13.084
79537SOL    HW140385   4.499   3.834  13.142
79537SOL    HW240386   4.613   3.878  13.052
79538SOL     OW40387  12.578   7.260  14.135
79538SOL    HW140388  12.603   7.239  14.044
79538SOL    HW240389  12.484   7.241  14.139
79539SOL     OW40390   5.267  12.073   7.598
79539SOL    HW140391   5.218  12.091   7.518
79539SOL    HW240392   5.345  12.026   7.568
79540SOL     OW40393   8.540  13.198  13.934
79540SOL    HW140394   8.469  13.136  13.923
79540SOL    HW240395   8.496  13.282  13.949
79541SOL     OW40396   0.025  13.162   2.406
79541SOL    HW140397  14.827  13.128   2.359
79541SOL    HW240398   0.007  13.143   2.498
79542SOL     OW40399   4.729  14.334   9.886
79542SOL    HW140400   4.814  14.372   9.908
79542SOL    HW240401   4.717  14.354   9.793
79543SOL     OW40402   4.855   9.212   2.398
79543SOL    HW140403   4.843   9.170   2.314
79543SOL    HW240404   4.935   9.172   2.434
79544SOL     OW40405  12.914   7.642   0.527
79544SOL    HW140406  13.003   7.607   0.533
79544SOL    HW240407  12.875   7.595   0.454
79545SOL     OW40408  10.085   0.861   8.837
79545SOL    HW140409  10.027   0.917   8.890
79545SOL    HW240410  10.171   0.903   8.844
79546SOL     OW40411   8.775   9.981   5.885
79546SOL    HW140412   8.763   9.895   5.844
79546SOL    HW240413   8.710  10.037   5.842
79547SOL     OW40414   7.970   2.517   3.888
79547SOL    HW140415   7.976   2.455   3.960
79547SOL    HW240416   8.059   2.519   3.850
79548SOL     OW40417   3.179   2.921   8.561
79548SOL    HW140418   3.214   2.944   8.475
79548SOL    HW240419   3.242   2.858   8.597
79549SOL     OW40420   0.098   5.653   1.642
79549SOL    HW140421   0.061   5.695   1.720
79549SOL    HW240422   0.108   5.724   1.579
79550SOL     OW40423   1.303   8.305   0.744
79550SOL    HW140424   1.297   8.238   0.676
79550SOL    HW240425   1.213   8.318   0.774
79551SOL     OW40426  13.679   8.336  11.963
79551SOL    HW140427  13.708   8.327  11.873
79551SOL    HW240428  13.756   8.364  12.012
79552SOL     OW40429   0.539   3.475   2.284
79552SOL    HW140430   0.544   3.559   2.329
79552SOL    HW240431   0.449   3.445   2.297
79553SOL     OW40432   0.389   0.335   6.921
79553SOL    HW140433   0.424   0.413   6.880
79553SOL    HW240434   0.453   0.267   6.902
79554SOL     OW40435   4.427   4.605   8.190
79554SOL    HW140436   4.426   4.509   8.186
79554SOL    HW240437   4.517   4.628   8.166
79555SOL     OW40438  11.919   0.989  13.386
79555SOL    HW140439  11.883   0.941  13.311
79555SOL    HW240440  11.987   1.045  13.349
79556SOL     OW40441  12.685   1.255   3.012
79556SOL    HW140442  12.590   1.270   3.010
79556SOL    HW240443  12.722   1.339   3.036
79557SOL     OW40444   0.205   0.410  12.931
79557SOL    HW140445   0.143   0.400  12.858
79557SOL    HW240446   0.289   0.380  12.895
79558SOL     OW40447   3.512  14.102   4.577
79558SOL    HW140448   3.473  14.184   4.608
79558SOL    HW240449   3.602  14.104   4.611
79559SOL     OW40450  10.488  10.311   3.284
79559SOL    HW140451  10.510  10.340   3.196
79559SOL    HW240452  10.429  10.378   3.318
79560SOL     OW40453   2.430   7.755   3.178
79560SOL    HW140454   2.526   7.751   3.179
79560SOL    HW240455   2.409   7.843   3.210
79561SOL     OW40456  14.210  11.405   7.395
79561SOL    HW140457  14.137  11.344   7.401
79561SOL    HW240458  14.287  11.354   7.422
79562SOL     OW40459  13.271  14.679  13.132
79562SOL    HW140460  13.181  14.648  13.132
79562SOL    HW240461  13.264  14.773  13.114
79563SOL     OW40462   1.826  13.294   4.100
79563SOL    HW140463   1.897  13.330   4.152
79563SOL    HW240464   1.863  13.215   4.060
79564SOL     OW40465   7.668   7.006  10.601
79564SOL    HW140466   7.757   7.020  10.568
79564SOL    HW240467   7.655   7.075  10.665
79565SOL     OW40468   3.077  14.784  10.490
79565SOL    HW140469   3.010  14.846  10.460
79565SOL    HW240470   3.090  14.805  10.582
79566SOL     OW40471   9.970   6.218   7.201
79566SOL    HW140472   9.945   6.188   7.289
79566SOL    HW240473   9.887   6.241   7.160
79567SOL     OW40474   5.823  11.930   7.486
79567SOL    HW140475   5.900  11.875   7.502
79567SOL    HW240476   5.844  12.013   7.528
79568SOL     OW40477   6.892   0.020  12.735
79568SOL    HW140478   6.863  14.846  12.810
79568SOL    HW240479   6.987   0.023  12.743
79569SOL     OW40480  12.499  14.459   3.035
79569SOL    HW140481  12.516  14.552   3.017
79569SOL    HW240482  12.578  14.414   3.006
79570SOL     OW40483   7.452   2.392   6.725
79570SOL    HW140484   7.460   2.376   6.631
79570SOL    HW240485   7.418   2.481   6.732
79571SOL     OW40486   8.858  11.649   4.832
79571SOL    HW140487   8.808  11.661   4.751
79571SOL    HW240488   8.846  11.556   4.854
79572SOL     OW40489   5.836   6.832   8.083
79572SOL    HW140490   5.926   6.826   8.051
79572SOL    HW240491   5.783   6.802   8.009
79573SOL     OW40492   9.418   2.884   8.979
79573SOL    HW140493   9.461   2.848   8.902
79573SOL    HW240494   9.457   2.836   9.053
79574SOL     OW40495   8.977   0.640   5.625
79574SOL    HW140496   9.022   0.651   5.541
79574SOL    HW240497   8.884   0.647   5.603
79575SOL     OW40498   4.423  13.840   3.544
79575SOL    HW140499   4.476  13.881   3.612
79575SOL    HW240500   4.439  13.893   3.466
79576SOL     OW40501   5.446   0.647   0.572
79576SOL    HW140502   5.359   0.680   0.551
79576SOL    HW240503   5.439   0.615   0.662
79577SOL     OW40504   3.029   7.768   9.975
79577SOL    HW140505   3.026   7.817   9.892
79577SOL    HW240506   2.941   7.731   9.983
79578SOL     OW40507   8.277   0.950   3.520
79578SOL    HW140508   8.335   0.901   3.461
79578SOL    HW240509   8.327   1.028   3.543
79579SOL     OW40510   6.641  12.814   2.732
79579SOL    HW140511   6.728  12.853   2.719
79579SOL    HW240512   6.655  12.744   2.796
79580SOL     OW40513  12.590  10.826  13.475
79580SOL    HW140514  12.612  10.805  13.384
79580SOL    HW240515  12.654  10.892  13.501
79581SOL     OW40516   2.119   4.936  11.372
79581SOL    HW140517   2.032   4.948  11.334
79581SOL    HW240518   2.106   4.868  11.439
79582SOL     OW40519   7.884   0.972   7.513
79582SOL    HW140520   7.821   0.997   7.580
79582SOL    HW240521   7.905   1.054   7.468
79583SOL     OW40522  12.450  13.062   4.512
79583SOL    HW140523  12.449  13.068   4.607
79583SOL    HW240524  12.459  12.969   4.493
79584SOL     OW40525  10.744   2.813   2.004
79584SOL    HW140526  10.717   2.725   1.980
79584SOL    HW240527  10.697   2.870   1.943
79585SOL     OW40528   4.310   4.772   2.976
79585SOL    HW140529   4.374   4.825   2.929
79585SOL    HW240530   4.273   4.831   3.042
79586SOL     OW40531   5.164   1.460  11.019
79586SOL    HW140532   5.133   1.549  11.004
79586SOL    HW240533   5.085   1.407  11.018
79587SOL     OW40534  10.352   9.608  11.814
79587SOL    HW140535  10.304   9.526  11.824
79587SOL    HW240536  10.357   9.621  11.720
79588SOL     OW40537   7.651  13.401   7.719
79588SOL    HW140538   7.739  13.372   7.697
79588SOL    HW240539   7.659  13.439   7.807
79589SOL     OW40540   3.354   1.110  13.620
79589SOL    HW140541   3.400   1.149  13.546
79589SOL    HW240542   3.261   1.130  13.604
79590SOL     OW40543   6.326   4.166   7.556
79590SOL    HW140544   6.389   4.110   7.510
79590SOL    HW240545   6.250   4.169   7.497
79591SOL     OW40546  12.615  10.238   3.901
79591SOL    HW140547  12.611  10.188   3.819
79591SOL    HW240548  12.524  10.248   3.928
79592SOL     OW40549   3.390   7.642   2.741
79592SOL    HW140550   3.466   7.701   2.747
79592SOL    HW240551   3.429   7.555   2.732
79593SOL     OW40552   4.401   2.599  14.816
79593SOL    HW140553   4.312   2.567  14.802
79593SOL    HW240554   4.453   2.553  14.750
79594SOL     OW40555  14.176   2.264  14.365
79594SOL    HW140556  14.156   2.269  14.458
79594SOL    HW240557  14.136   2.182  14.336
79595SOL     OW40558   9.049  10.701   6.237
79595SOL    HW140559   9.022  10.654   6.316
79595SOL    HW240560   8.975  10.694   6.177
79596SOL     OW40561  12.787   0.216  14.830
79596SOL    HW140562  12.868   0.237  14.876
79596SOL    HW240563  12.797   0.260  14.745
79597SOL     OW40564  14.388   7.357   3.299
79597SOL    HW140565  14.305   7.394   3.328
79597SOL    HW240566  14.370   7.264   3.285
79598SOL     OW40567   3.139  11.693   8.669
79598SOL    HW140568   3.081  11.739   8.609
79598SOL    HW240569   3.080  11.651   8.732
79599SOL     OW40570  11.777  11.628   2.642
79599SOL    HW140571  11.856  11.682   2.640
79599SOL    HW240572  11.805  11.546   2.684
79600SOL     OW40573   8.903  10.293   0.500
79600SOL    HW140574   8.856  10.211   0.513
79600SOL    HW240575   8.893  10.311   0.407
79601SOL     OW40576   4.776   8.348  14.764
79601SOL    HW140577   4.687   8.369  14.795
79601SOL    HW240578   4.770   8.356  14.669
79602SOL     OW40579   5.783   4.307   5.326
79602SOL    HW140580   5.748   4.221   5.349
79602SOL    HW240581   5.735   4.332   5.247
79603SOL     OW40582   7.664  11.161   2.407
79603SOL    HW140583   7.614  11.081   2.390
79603SOL    HW240584   7.725  11.167   2.333
79604SOL     OW40585   4.432   9.756   1.879
79604SOL    HW140586   4.471   9.818   1.817
79604SOL    HW240587   4.480   9.769   1.960
79605SOL     OW40588  13.720   8.104  10.533
79605SOL    HW140589  13.688   8.191  10.511
79605SOL    HW240590  13.815   8.108  10.517
79606SOL     OW40591   1.448  11.225   6.745
79606SOL    HW140592   1.376  11.209   6.683
79606SOL    HW240593   1.423  11.306   6.790
79607SOL     OW40594  14.072   4.659   0.396
79607SOL    HW140595  14.116   4.575   0.404
79607SOL    HW240596  14.025   4.669   0.479
79608SOL     OW40597   4.565  13.527   9.352
79608SOL    HW140598   4.473  13.512   9.374
79608SOL    HW240599   4.565  13.547   9.258
79609SOL     OW40600   5.600   5.085   7.680
79609SOL    HW140601   5.650   5.004   7.683
79609SOL    HW240602   5.517   5.062   7.637
79610SOL     OW40603  10.905  10.190  11.372
79610SOL    HW140604  10.966  10.202  11.445
79610SOL    HW240605  10.943  10.240  11.300
79611SOL     OW40606  11.335   7.889   6.791
79611SOL    HW140607  11.247   7.925   6.782
79611SOL    HW240608  11.391   7.949   6.741
79612SOL     OW40609  13.160   6.414  14.402
79612SOL    HW140610  13.122   6.349  14.462
79612SOL    HW240611  13.184   6.365  14.324
79613SOL     OW40612   8.522   5.327   2.842
79613SOL    HW140613   8.511   5.316   2.748
79613SOL    HW240614   8.496   5.242   2.879
79614SOL     OW40615   5.073   4.687  11.433
79614SOL    HW140616   5.123   4.640  11.366
79614SOL    HW240617   5.100   4.778  11.424
79615SOL     OW40618   1.171  10.542  12.479
79615SOL    HW140619   1.091  10.492  12.497
79615SOL    HW240620   1.159  10.575  12.390
79616SOL     OW40621   7.711   0.777   1.762
79616SOL    HW140622   7.667   0.813   1.686
79616SOL    HW240623   7.790   0.830   1.772
79617SOL     OW40624   6.397   1.116   3.313
79617SOL    HW140625   6.489   1.090   3.308
79617SOL    HW240626   6.348   1.034   3.310
79618SOL     OW40627   6.244   8.303   8.688
79618SOL    HW140628   6.207   8.349   8.763
79618SOL    HW240629   6.306   8.240   8.726
79619SOL     OW40630   0.372  10.763  13.403
79619SOL    HW140631   0.460  10.800  13.405
79619SOL    HW240632   0.365  10.724  13.315
79620SOL     OW40633   1.762  13.362  10.147
79620SOL    HW140634   1.825  13.433  10.150
79620SOL    HW240635   1.684  13.401  10.107
79621SOL     OW40636   3.838   8.272   9.965
79621SOL    HW140637   3.835   8.297  10.057
79621SOL    HW240638   3.829   8.354   9.917
79622SOL     OW40639   7.796   9.564  10.130
79622SOL    HW140640   7.852   9.490  10.154
79622SOL    HW240641   7.852   9.641  10.139
79623SOL     OW40642  12.772   0.137   1.378
79623SOL    HW140643  12.778   0.051   1.418
79623SOL    HW240644  12.701   0.181   1.424
79624SOL     OW40645  13.796   5.316   4.080
79624SOL    HW140646  13.889   5.293   4.086
79624SOL    HW240647  13.763   5.308   4.169
79625SOL     OW40648   1.049   1.751   9.340
79625SOL    HW140649   1.088   1.838   9.335
79625SOL    HW240650   0.974   1.756   9.281
79626SOL     OW40651   4.675   6.889   0.295
79626SOL    HW140652   4.770   6.886   0.306
79626SOL    HW240653   4.645   6.803   0.323
79627SOL     OW40654  13.847  10.689   4.152
79627SOL    HW140655  13.905  10.635   4.205
79627SOL    HW240656  13.829  10.766   4.206
79628SOL     OW40657   4.180   1.115   1.445
79628SOL    HW140658   4.243   1.046   1.425
79628SOL    HW240659   4.234   1.190   1.472
79629SOL     OW40660  12.169  10.057   8.248
79629SOL    HW140661  12.084  10.076   8.286
79629SOL    HW240662  12.153   9.985   8.187
79630SOL     OW40663  13.364  10.661   3.962
79630SOL    HW140664  13.447  10.658   4.009
79630SOL    HW240665  13.388  10.676   3.871
79631SOL     OW40666   2.114   7.159   9.133
79631SOL    HW140667   2.140   7.223   9.200
79631SOL    HW240668   2.193   7.108   9.117
79632SOL     OW40669   3.608  12.469  12.290
79632SOL    HW140670   3.682  12.520  12.324
79632SOL    HW240671   3.555  12.449  12.367
79633SOL     OW40672  11.568  12.180  12.512
79633SOL    HW140673  11.610  12.259  12.548
79633SOL    HW240674  11.640  12.131  12.473
79634SOL     OW40675   6.935  14.599  10.953
79634SOL    HW140676   6.946  14.548  11.033
79634SOL    HW240677   6.846  14.634  10.960
79635SOL     OW40678   4.144  12.278   6.701
79635SOL    HW140679   4.110  12.189   6.707
79635SOL    HW240680   4.071  12.330   6.667
79636SOL     OW40681  13.694   1.408  13.362
79636SOL    HW140682  13.760   1.476  13.360
79636SOL    HW240683  13.634   1.431  13.291
79637SOL     OW40684   7.396   8.482   2.273
79637SOL    HW140685   7.424   8.552   2.214
79637SOL    HW240686   7.473   8.426   2.282
79638SOL     OW40687   8.093   9.219   5.816
79638SOL    HW140688   8.153   9.232   5.742
79638SOL    HW240689   8.142   9.164   5.877
79639SOL     OW40690   0.502  14.753  12.240
79639SOL    HW140691   0.501  14.800  12.323
79639SOL    HW240692   0.535  14.817  12.176
79640SOL     OW40693  11.753   2.908   0.484
79640SOL    HW140694  11.793   2.878   0.565
79640SOL    HW240695  11.827   2.938   0.431
79641SOL     OW40696   1.718   9.314   4.510
79641SOL    HW140697   1.811   9.322   4.532
79641SOL    HW240698   1.683   9.256   4.578
79642SOL     OW40699   6.107  10.896   1.173
79642SOL    HW140700   6.203  10.891   1.166
79642SOL    HW240701   6.081  10.955   1.102
79643SOL     OW40702   9.820   4.098   5.002
79643SOL    HW140703   9.861   4.019   5.038
79643SOL    HW240704   9.728   4.074   4.990
79644SOL     OW40705   7.119  12.164   3.772
79644SOL    HW140706   7.087  12.102   3.707
79644SOL    HW240707   7.185  12.215   3.725
79645SOL     OW40708   5.392   0.563  13.419
79645SOL    HW140709   5.384   0.472  13.392
79645SOL    HW240710   5.411   0.611  13.338
79646SOL     OW40711   3.475   4.507   6.947
79646SOL    HW140712   3.422   4.560   6.887
79646SOL    HW240713   3.415   4.485   7.019
79647SOL     OW40714  10.329   8.698   9.891
79647SOL    HW140715  10.327   8.793   9.883
79647SOL    HW240716  10.240   8.674   9.917
79648SOL     OW40717   2.738   7.669  14.664
79648SOL    HW140718   2.709   7.759  14.678
79648SOL    HW240719   2.831   7.676  14.646
79649SOL     OW40720   5.099   7.984  13.003
79649SOL    HW140721   5.097   8.065  12.951
79649SOL    HW240722   5.086   7.914  12.939
79650SOL     OW40723   3.238  13.337   6.350
79650SOL    HW140724   3.211  13.312   6.262
79650SOL    HW240725   3.289  13.262   6.381
79651SOL     OW40726   8.347   2.395  14.411
79651SOL    HW140727   8.434   2.368  14.440
79651SOL    HW240728   8.362   2.465  14.348
79652SOL     OW40729   4.715   7.071  13.285
79652SOL    HW140730   4.639   7.113  13.325
79652SOL    HW240731   4.783   7.076  13.352
79653SOL     OW40732   2.097   1.781   1.395
79653SOL    HW140733   2.097   1.686   1.387
79653SOL    HW240734   2.020   1.810   1.346
79654SOL     OW40735  11.861   6.237   4.922
79654SOL    HW140736  11.875   6.318   4.874
79654SOL    HW240737  11.822   6.264   5.005
79655SOL     OW40738   5.559  11.077   8.005
79655SOL    HW140739   5.609  11.111   8.079
79655SOL    HW240740   5.475  11.123   8.010
79656SOL     OW40741   4.672   9.303   5.037
79656SOL    HW140742   4.713   9.243   4.975
79656SOL    HW240743   4.735   9.374   5.048
79657SOL     OW40744   4.371  11.439   1.762
79657SOL    HW140745   4.444  11.432   1.700
79657SOL    HW240746   4.295  11.458   1.707
79658SOL     OW40747   4.279  13.619   7.317
79658SOL    HW140748   4.350  13.555   7.311
79658SOL    HW240749   4.324  13.703   7.331
79659SOL     OW40750   9.992   3.792  12.762
79659SOL    HW140751   9.978   3.860  12.829
79659SOL    HW240752  10.087   3.789  12.752
79660SOL     OW40753  12.235  10.785  13.149
79660SOL    HW140754  12.171  10.725  13.111
79660SOL    HW240755  12.277  10.734  13.219
79661SOL     OW40756  10.289  11.698  11.643
79661SOL    HW140757  10.218  11.634  11.646
79661SOL    HW240758  10.275  11.746  11.561
79662SOL     OW40759   0.497   3.400   9.420
79662SOL    HW140760   0.412   3.357   9.418
79662SOL    HW240761   0.531   3.390   9.331
79663SOL     OW40762   7.501   3.659   3.519
79663SOL    HW140763   7.524   3.706   3.439
79663SOL    HW240764   7.409   3.634   3.507
79664SOL     OW40765  14.654  10.521   2.882
79664SOL    HW140766  14.582  10.580   2.860
79664SOL    HW240767  14.647  10.510   2.977
79665SOL     OW40768  10.315   4.740   5.189
79665SOL    HW140769  10.410   4.748   5.188
79665SOL    HW240770  10.285   4.793   5.115
79666SOL     OW40771  10.602   8.715  11.014
79666SOL    HW140772  10.659   8.712  10.938
79666SOL    HW240773  10.588   8.624  11.038
79667SOL     OW40774  10.696  10.737  14.477
79667SOL    HW140775  10.628  10.805  14.471
79667SOL    HW240776  10.671  10.672  14.412
79668SOL     OW40777   3.498   8.306   6.575
79668SOL    HW140778   3.542   8.388   6.555
79668SOL    HW240779   3.559   8.238   6.547
79669SOL     OW40780  13.517  14.630   1.569
79669SOL    HW140781  13.566  14.713   1.566
79669SOL    HW240782  13.542  14.585   1.489
79670SOL     OW40783   3.239  11.098   9.465
79670SOL    HW140784   3.287  11.047   9.399
79670SOL    HW240785   3.273  11.187   9.457
79671SOL     OW40786   6.184   6.759   7.476
79671SOL    HW140787   6.144   6.705   7.408
79671SOL    HW240788   6.194   6.701   7.551
79672SOL     OW40789   2.513   9.026   9.667
79672SOL    HW140790   2.457   8.994   9.597
79672SOL    HW240791   2.547   8.947   9.710
79673SOL     OW40792  13.646  12.825  11.660
79673SOL    HW140793  13.641  12.749  11.601
79673SOL    HW240794  13.603  12.796  11.740
79674SOL     OW40795   6.190   5.211   6.084
79674SOL    HW140796   6.196   5.127   6.039
79674SOL    HW240797   6.262   5.211   6.146
79675SOL     OW40798  12.374  10.098   6.536
79675SOL    HW140799  12.305  10.121   6.474
79675SOL    HW240800  12.334  10.034   6.595
79676SOL     OW40801  13.834   3.279   5.790
79676SOL    HW140802  13.786   3.362   5.785
79676SOL    HW240803  13.771   3.212   5.764
79677SOL     OW40804  14.747   9.526   2.683
79677SOL    HW140805  14.837   9.493   2.675
79677SOL    HW240806  14.712   9.522   2.594
79678SOL     OW40807   2.045  12.364  13.714
79678SOL    HW140808   2.088  12.286  13.678
79678SOL    HW240809   1.967  12.330  13.757
79679SOL     OW40810  14.781  14.057   4.879
79679SOL    HW140811  14.688  14.039   4.895
79679SOL    HW240812  14.783  14.150   4.853
79680SOL     OW40813   9.452  13.226   9.431
79680SOL    HW140814   9.477  13.206   9.341
79680SOL    HW240815   9.528  13.199   9.484
79681SOL     OW40816  14.744  12.820   2.353
79681SOL    HW140817  14.756  12.777   2.268
79681SOL    HW240818  14.785  12.760   2.416
79682SOL     OW40819   0.380   7.127   8.666
79682SOL    HW140820   0.286   7.140   8.676
79682SOL    HW240821   0.389   7.053   8.607
79683SOL     OW40822   5.308  11.294   8.451
79683SOL    HW140823   5.376  11.326   8.510
79683SOL    HW240824   5.235  11.272   8.508
79684SOL     OW40825  11.373   3.492   7.171
79684SOL    HW140826  11.359   3.473   7.264
79684SOL    HW240827  11.396   3.585   7.169
79685SOL     OW40828   9.077   2.377   5.298
79685SOL    HW140829   9.137   2.365   5.224
79685SOL    HW240830   9.135   2.384   5.374
79686SOL     OW40831   0.638   1.432  13.743
79686SOL    HW140832   0.596   1.345  13.742
79686SOL    HW240833   0.566   1.493  13.724
79687SOL     OW40834  13.604   8.533  11.307
79687SOL    HW140835  13.688   8.544  11.350
79687SOL    HW240836  13.623   8.540  11.213
79688SOL     OW40837   4.187   1.373   3.220
79688SOL    HW140838   4.272   1.330   3.210
79688SOL    HW240839   4.161   1.397   3.131
79689SOL     OW40840   5.262   3.815   0.860
79689SOL    HW140841   5.306   3.881   0.914
79689SOL    HW240842   5.235   3.862   0.781
79690SOL     OW40843  13.902   8.701  10.285
79690SOL    HW140844  13.851   8.624  10.308
79690SOL    HW240845  13.836   8.769  10.268
79691SOL     OW40846   5.231   0.726   7.779
79691SOL    HW140847   5.301   0.750   7.840
79691SOL    HW240848   5.253   0.637   7.752
79692SOL     OW40849   6.707   4.004   5.847
79692SOL    HW140850   6.677   4.053   5.924
79692SOL    HW240851   6.690   4.063   5.773
79693SOL     OW40852  10.897  14.087   5.384
79693SOL    HW140853  10.959  14.018   5.408
79693SOL    HW240854  10.815  14.041   5.365
79694SOL     OW40855   1.544   7.310   4.220
79694SOL    HW140856   1.596   7.240   4.258
79694SOL    HW240857   1.520   7.278   4.133
79695SOL     OW40858   8.423  13.574   5.343
79695SOL    HW140859   8.382  13.534   5.420
79695SOL    HW240860   8.454  13.500   5.291
79696SOL     OW40861   7.990   0.327  10.473
79696SOL    HW140862   7.927   0.391  10.441
79696SOL    HW240863   8.076   0.362  10.448
79697SOL     OW40864  14.866   2.819   6.453
79697SOL    HW140865  14.780   2.829   6.413
79697SOL    HW240866   0.024   2.908   6.456
79698SOL     OW40867   9.253   2.017   5.360
79698SOL    HW140868   9.336   1.968   5.358
79698SOL    HW240869   9.268   2.086   5.424
79699SOL     OW40870   2.669   5.065   1.292
79699SOL    HW140871   2.723   5.140   1.268
79699SOL    HW240872   2.660   5.071   1.387
79700SOL     OW40873   4.006   2.746   9.331
79700SOL    HW140874   4.056   2.802   9.271
79700SOL    HW240875   4.048   2.759   9.416
79701SOL     OW40876   4.122   0.779   4.844
79701SOL    HW140877   4.205   0.826   4.836
79701SOL    HW240878   4.146   0.697   4.888
79702SOL     OW40879  11.087   1.750   6.431
79702SOL    HW140880  11.146   1.710   6.494
79702SOL    HW240881  11.111   1.712   6.346
79703SOL     OW40882   4.214   5.217   5.268
79703SOL    HW140883   4.157   5.184   5.199
79703SOL    HW240884   4.171   5.296   5.300
79704SOL     OW40885  14.298  12.183  13.074
79704SOL    HW140886  14.324  12.180  13.166
79704SOL    HW240887  14.282  12.276  13.057
79705SOL     OW40888  12.081  14.698   9.960
79705SOL    HW140889  12.151  14.633   9.955
79705SOL    HW240890  12.000  14.647   9.956
79706SOL     OW40891   8.755  10.666   3.493
79706SOL    HW140892   8.710  10.656   3.577
79706SOL    HW240893   8.722  10.594   3.440
79707SOL     OW40894   3.524   1.178   6.100
79707SOL    HW140895   3.611   1.202   6.131
79707SOL    HW240896   3.532   1.173   6.005
79708SOL     OW40897   5.841   2.114   0.368
79708SOL    HW140898   5.783   2.183   0.399
79708SOL    HW240899   5.908   2.159   0.316
79709SOL     OW40900   3.796   9.703   6.592
79709SOL    HW140901   3.875   9.721   6.643
79709SOL    HW240902   3.805   9.611   6.565
79710SOL     OW40903   2.727  11.634   9.661
79710SOL    HW140904   2.800  11.692   9.639
79710SOL    HW240905   2.734  11.562   9.599
79711SOL     OW40906   2.386  10.134   2.688
79711SOL    HW140907   2.414  10.111   2.599
79711SOL    HW240908   2.439  10.078   2.745
79712SOL     OW40909   0.254   4.400   0.781
79712SOL    HW140910   0.238   4.453   0.704
79712SOL    HW240911   0.295   4.460   0.844
79713SOL     OW40912   5.552   2.204  10.544
79713SOL    HW140913   5.519   2.290  10.517
79713SOL    HW240914   5.573   2.160  10.462
79714SOL     OW40915   0.378   8.017   8.251
79714SOL    HW140916   0.367   7.977   8.164
79714SOL    HW240917   0.352   8.108   8.239
79715SOL     OW40918   5.013  14.299  14.147
79715SOL    HW140919   5.050  14.371  14.096
79715SOL    HW240920   5.089  14.249  14.177
79716SOL     OW40921  12.230  11.399   7.717
79716SOL    HW140922  12.295  11.377   7.784
79716SOL    HW240923  12.281  11.441   7.648
79717SOL     OW40924   6.704   0.013   5.982
79717SOL    HW140925   6.745   0.087   6.027
79717SOL    HW240926   6.735  14.814   6.029
79718SOL     OW40927  11.096   1.844  14.045
79718SOL    HW140928  11.020   1.903  14.044
79718SOL    HW240929  11.133   1.853  14.132
79719SOL     OW40930   9.037   2.874  11.600
79719SOL    HW140931   9.084   2.937  11.655
79719SOL    HW240932   8.947   2.905  11.599
79720SOL     OW40933  11.087   6.524   0.693
79720SOL    HW140934  11.083   6.524   0.789
79720SOL    HW240935  11.104   6.616   0.670
79721SOL     OW40936  11.183  10.711   0.056
79721SOL    HW140937  11.091  10.701   0.078
79721SOL    HW240938  11.217  10.772   0.123
79722SOL     OW40939   6.927   1.074   9.428
79722SOL    HW140940   6.838   1.038   9.431
79722SOL    HW240941   6.972   1.020   9.362
79723SOL     OW40942  14.464   0.837   3.680
79723SOL    HW140943  14.501   0.862   3.765
79723SOL    HW240944  14.473   0.741   3.677
79724SOL     OW40945   8.348   3.626   6.546
79724SOL    HW140946   8.263   3.582   6.546
79724SOL    HW240947   8.327   3.719   6.542
79725SOL     OW40948   5.024   2.737   1.207
79725SOL    HW140949   4.941   2.698   1.177
79725SOL    HW240950   5.083   2.662   1.219
79726SOL     OW40951   1.716   5.924  14.003
79726SOL    HW140952   1.634   5.875  13.993
79726SOL    HW240953   1.729   5.966  13.918
79727SOL     OW40954  10.463   2.604   2.699
79727SOL    HW140955  10.404   2.534   2.670
79727SOL    HW240956  10.444   2.614   2.792
79728SOL     OW40957   1.787  12.831   5.199
79728SOL    HW140958   1.749  12.903   5.251
79728SOL    HW240959   1.749  12.752   5.237
79729SOL     OW40960   6.901   3.115   2.110
79729SOL    HW140961   6.853   3.136   2.190
79729SOL    HW240962   6.926   3.023   2.121
79730SOL     OW40963   9.032   8.253   1.434
79730SOL    HW140964   8.954   8.277   1.484
79730SOL    HW240965   9.069   8.337   1.405
79731SOL     OW40966   5.825   2.161  14.160
79731SOL    HW140967   5.770   2.213  14.101
79731SOL    HW240968   5.838   2.217  14.236
79732SOL     OW40969   8.916  10.940   9.709
79732SOL    HW140970   8.847  10.887   9.667
79732SOL    HW240971   8.968  10.878   9.758
79733SOL     OW40972  13.923   1.887   9.937
79733SOL    HW140973  14.006   1.923   9.968
79733SOL    HW240974  13.934   1.792   9.943
79734SOL     OW40975   4.765   9.494   7.928
79734SOL    HW140976   4.742   9.587   7.938
79734SOL    HW240977   4.736   9.453   8.010
79735SOL     OW40978   0.485   7.567   5.913
79735SOL    HW140979   0.579   7.583   5.901
79735SOL    HW240980   0.451   7.648   5.950
79736SOL     OW40981   7.930   0.622   5.914
79736SOL    HW140982   7.959   0.696   5.968
79736SOL    HW240983   7.976   0.547   5.949
79737SOL     OW40984   9.602   1.601   0.426
79737SOL    HW140985   9.587   1.532   0.490
79737SOL    HW240986   9.575   1.682   0.469
79738SOL     OW40987   6.428   5.897  13.359
79738SOL    HW140988   6.371   5.825  13.332
79738SOL    HW240989   6.430   5.956  13.283
79739SOL     OW40990  11.215  10.500  11.972
79739SOL    HW140991  11.268  10.545  11.906
79739SOL    HW240992  11.240  10.407  11.964
79740SOL     OW40993   8.240   2.713  13.356
79740SOL    HW140994   8.224   2.655  13.281
79740SOL    HW240995   8.157   2.758  13.371
79741SOL     OW40996   3.812   1.169   0.504
79741SOL    HW140997   3.797   1.262   0.489
79741SOL    HW240998   3.798   1.128   0.418
79742SOL     OW40999   7.812   6.169  13.215
79742SOL    HW141000   7.804   6.079  13.185
79742SOL    HW241001   7.907   6.183  13.223
79743SOL     OW41002   9.131   6.918   2.890
79743SOL    HW141003   9.195   6.918   2.818
79743SOL    HW241004   9.100   7.008   2.893
79744SOL     OW41005  14.592   5.257   7.831
79744SOL    HW141006  14.642   5.222   7.904
79744SOL    HW241007  14.510   5.208   7.832
79745SOL     OW41008  11.510  13.795  12.944
79745SOL    HW141009  11.597  13.794  12.985
79745SOL    HW241010  11.499  13.707  12.908
79746SOL     OW41011   8.099   2.316   3.692
79746SOL    HW141012   8.178   2.263   3.683
79746SOL    HW241013   8.036   2.258   3.735
79747SOL     OW41014  10.005   5.871  10.286
79747SOL    HW141015  10.086   5.877  10.336
79747SOL    HW241016   9.981   5.962  10.268
79748SOL     OW41017  13.738  14.273   6.010
79748SOL    HW141018  13.764  14.189   6.049
79748SOL    HW241019  13.678  14.248   5.939
79749SOL     OW41020  10.235   6.156  13.592
79749SOL    HW141021  10.209   6.159  13.684
79749SOL    HW241022  10.203   6.239  13.556
79750SOL     OW41023  14.117  11.208  10.331
79750SOL    HW141024  14.138  11.115  10.318
79750SOL    HW241025  14.179  11.238  10.397
79751SOL     OW41026   7.998   0.950   8.222
79751SOL    HW141027   8.045   0.866   8.226
79751SOL    HW241028   8.012   0.980   8.132
79752SOL     OW41029  12.635  10.311   9.139
79752SOL    HW141030  12.553  10.270   9.113
79752SOL    HW241031  12.632  10.316   9.234
79753SOL     OW41032   8.179   7.559   5.925
79753SOL    HW141033   8.166   7.586   5.834
79753SOL    HW241034   8.232   7.630   5.962
79754SOL     OW41035   1.537   1.595   9.382
79754SOL    HW141036   1.544   1.577   9.289
79754SOL    HW241037   1.589   1.674   9.396
79755SOL     OW41038  13.583   1.243   4.323
79755SOL    HW141039  13.559   1.326   4.364
79755SOL    HW241040  13.599   1.184   4.396
79756SOL     OW41041   7.666   3.365  13.500
79756SOL    HW141042   7.704   3.421  13.568
79756SOL    HW241043   7.726   3.374  13.425
79757SOL     OW41044  14.126  11.350   1.864
79757SOL    HW141045  14.063  11.278   1.866
79757SOL    HW241046  14.087  11.415   1.806
79758SOL     OW41047   0.169   5.432  14.200
79758SOL    HW141048   0.170   5.380  14.281
79758SOL    HW241049   0.222   5.509  14.221
79759SOL     OW41050  13.129   8.868   8.703
79759SOL    HW141051  13.213   8.823   8.690
79759SOL    HW241052  13.063   8.800   8.687
79760SOL     OW41053   6.275  11.954   1.902
79760SOL    HW141054   6.233  11.934   1.819
79760SOL    HW241055   6.207  11.941   1.968
79761SOL     OW41056   0.851   0.535   3.952
79761SOL    HW141057   0.816   0.620   3.980
79761SOL    HW241058   0.781   0.496   3.900
79762SOL     OW41059   4.584   9.076   5.163
79762SOL    HW141060   4.612   9.167   5.153
79762SOL    HW241061   4.577   9.063   5.257
79763SOL     OW41062   3.496   8.469   3.336
79763SOL    HW141063   3.413   8.430   3.364
79763SOL    HW241064   3.539   8.494   3.418
79764SOL     OW41065   7.067   2.286   8.107
79764SOL    HW141066   7.036   2.375   8.125
79764SOL    HW241067   7.089   2.250   8.192
79765SOL     OW41068   6.016  10.972   7.654
79765SOL    HW141069   5.959  11.049   7.642
79765SOL    HW241070   6.008  10.951   7.747
79766SOL     OW41071   3.632  13.391   8.205
79766SOL    HW141072   3.603  13.387   8.297
79766SOL    HW241073   3.569  13.448   8.162
79767SOL     OW41074   3.320   3.757  12.069
79767SOL    HW141075   3.316   3.847  12.038
79767SOL    HW241076   3.405   3.725  12.041
79768SOL     OW41077   8.471  12.267  12.410
79768SOL    HW141078   8.475  12.185  12.459
79768SOL    HW241079   8.560  12.301  12.414
79769SOL     OW41080   0.524  10.371   3.831
79769SOL    HW141081   0.595  10.381   3.768
79769SOL    HW241082   0.565  10.333   3.908
79770SOL     OW41083   7.115  14.268   0.095
79770SOL    HW141084   7.149  14.356   0.077
79770SOL    HW241085   7.090  14.271   0.188
79771SOL     OW41086  10.092  13.789   7.964
79771SOL    HW141087  10.072  13.770   8.056
79771SOL    HW241088  10.030  13.858   7.940
79772SOL     OW41089  11.407  12.530   3.052
79772SOL    HW141090  11.364  12.493   2.975
79772SOL    HW241091  11.433  12.453   3.103
79773SOL     OW41092  12.364   9.662  11.254
79773SOL    HW141093  12.433   9.632  11.313
79773SOL    HW241094  12.353   9.591  11.192
79774SOL     OW41095   6.828  11.728   8.042
79774SOL    HW141096   6.741  11.762   8.023
79774SOL    HW241097   6.827  11.714   8.137
79775SOL     OW41098  14.444  10.919   2.986
79775SOL    HW141099  14.500  10.863   3.040
79775SOL    HW241100  14.435  10.999   3.038
79776SOL     OW41101   5.261  10.945  10.239
79776SOL    HW141102   5.303  11.017  10.287
79776SOL    HW241103   5.176  10.980  10.213
79777SOL     OW41104  10.165   1.135   5.170
79777SOL    HW141105  10.174   1.226   5.141
79777SOL    HW241106  10.188   1.083   5.093
79778SOL     OW41107   6.732  13.079   0.795
79778SOL    HW141108   6.699  12.991   0.815
79778SOL    HW241109   6.672  13.137   0.842
79779SOL     OW41110  14.505   7.115   7.089
79779SOL    HW141111  14.467   7.114   7.001
79779SOL    HW241112  14.434   7.085   7.147
79780SOL     OW41113  13.025  11.047  14.303
79780SOL    HW141114  13.119  11.035  14.319
79780SOL    HW241115  13.007  11.136  14.332
79781SOL     OW41116  13.365   4.335  14.385
79781SOL    HW141117  13.290   4.361  14.440
79781SOL    HW241118  13.338   4.357  14.296
79782SOL     OW41119   4.145   2.969   2.296
79782SOL    HW141120   4.094   3.008   2.368
79782SOL    HW241121   4.082   2.964   2.223
79783SOL     OW41122   1.226  14.165   5.520
79783SOL    HW141123   1.133  14.155   5.498
79783SOL    HW241124   1.272  14.139   5.440
79784SOL     OW41125   1.093   0.533   3.863
79784SOL    HW141126   1.150   0.549   3.938
79784SOL    HW241127   1.004   0.545   3.898
79785SOL     OW41128  12.382   7.522   2.076
79785SOL    HW141129  12.310   7.472   2.113
79785SOL    HW241130  12.353   7.613   2.080
79786SOL     OW41131   5.725   9.709   9.964
79786SOL    HW141132   5.807   9.675  10.000
79786SOL    HW241133   5.745   9.727   9.872
79787SOL     OW41134   9.176  14.444   6.076
79787SOL    HW141135   9.128  14.364   6.053
79787SOL    HW241136   9.243  14.453   6.008
79788SOL     OW41137   3.699  10.941   3.983
79788SOL    HW141138   3.720  10.896   4.065
79788SOL    HW241139   3.651  11.019   4.011
79789SOL     OW41140   0.314  12.816   6.491
79789SOL    HW141141   0.375  12.758   6.445
79789SOL    HW241142   0.286  12.764   6.567
79790SOL     OW41143   2.208   8.215   2.573
79790SOL    HW141144   2.226   8.128   2.536
79790SOL    HW241145   2.289   8.240   2.616
79791SOL     OW41146   6.207   7.605  10.757
79791SOL    HW141147   6.213   7.581  10.849
79791SOL    HW241148   6.187   7.522  10.713
79792SOL     OW41149   6.659   5.849   5.140
79792SOL    HW141150   6.565   5.867   5.146
79792SOL    HW241151   6.666   5.755   5.157
79793SOL     OW41152  14.763   1.623   9.091
79793SOL    HW141153  14.715   1.646   9.011
79793SOL    HW241154  14.706   1.560   9.135
79794SOL     OW41155   3.453   9.682   8.487
79794SOL    HW141156   3.444   9.611   8.550
79794SOL    HW241157   3.471   9.639   8.403
79795SOL     OW41158   0.552   4.267  11.811
79795SOL    HW141159   0.636   4.309  11.790
79795SOL    HW241160   0.566   4.174  11.793
79796SOL     OW41161   0.425  13.547   8.551
79796SOL    HW141162   0.448  13.464   8.510
79796SOL    HW241163   0.483  13.554   8.627
79797SOL     OW41164   8.774  14.601  12.421
79797SOL    HW141165   8.767  14.621  12.328
79797SOL    HW241166   8.814  14.514  12.424
79798SOL     OW41167   7.347  13.449   9.742
79798SOL    HW141168   7.420  13.420   9.797
79798SOL    HW241169   7.269  13.429   9.794
79799SOL     OW41170   1.233   0.671  13.470
79799SOL    HW141171   1.273   0.715  13.544
79799SOL    HW241172   1.218   0.739  13.405
79800SOL     OW41173   3.043   3.415   5.657
79800SOL    HW141174   3.094   3.386   5.732
79800SOL    HW241175   3.004   3.334   5.621
79801SOL     OW41176  11.664   8.482   5.423
79801SOL    HW141177  11.580   8.502   5.382
79801SOL    HW241178  11.675   8.388   5.410
79802SOL     OW41179  10.603  11.872   6.931
79802SOL    HW141180  10.578  11.816   7.004
79802SOL    HW241181  10.613  11.811   6.857
79803SOL     OW41182   5.167   0.250   0.582
79803SOL    HW141183   5.244   0.277   0.533
79803SOL    HW241184   5.125   0.332   0.608
79804SOL     OW41185  11.843   4.476  14.147
79804SOL    HW141186  11.798   4.551  14.186
79804SOL    HW241187  11.920   4.513  14.104
79805SOL     OW41188   0.190   6.006   2.541
79805SOL    HW141189   0.220   5.924   2.503
79805SOL    HW241190   0.097   5.992   2.559
79806SOL     OW41191   1.547  14.201   8.812
79806SOL    HW141192   1.491  14.267   8.771
79806SOL    HW241193   1.557  14.231   8.902
79807SOL     OW41194   1.240  10.910  10.366
79807SOL    HW141195   1.250  10.824  10.326
79807SOL    HW241196   1.281  10.901  10.452
79808SOL     OW41197   4.329   7.391   4.659
79808SOL    HW141198   4.300   7.316   4.710
79808SOL    HW241199   4.422   7.400   4.679
79809SOL     OW41200   0.014   9.083   1.485
79809SOL    HW141201  14.835   9.089   1.562
79809SOL    HW241202  14.837   9.040   1.419
79810SOL     OW41203  11.714   4.154   9.583
79810SOL    HW141204  11.787   4.092   9.581
79810SOL    HW241205  11.686   4.155   9.674
79811SOL     OW41206   7.929  14.341  14.293
79811SOL    HW141207   7.922  14.387  14.377
79811SOL    HW241208   7.957  14.408  14.231
79812SOL     OW41209  13.853   2.133   6.160
79812SOL    HW141210  13.864   2.096   6.072
79812SOL    HW241211  13.937   2.175   6.178
79813SOL     OW41212  11.335  10.283   4.571
79813SOL    HW141213  11.396  10.351   4.599
79813SOL    HW241214  11.356  10.208   4.626
79814SOL     OW41215   0.156   7.092   2.664
79814SOL    HW141216   0.118   7.051   2.587
79814SOL    HW241217   0.153   7.025   2.732
79815SOL     OW41218   7.316  10.836  11.757
79815SOL    HW141219   7.367  10.866  11.682
79815SOL    HW241220   7.380  10.830  11.828
79816SOL     OW41221  10.553   8.864  10.632
79816SOL    HW141222  10.520   8.832  10.548
79816SOL    HW241223  10.477   8.862  10.690
79817SOL     OW41224   0.258   4.608   0.601
79817SOL    HW141225   0.319   4.577   0.534
79817SOL    HW241226   0.191   4.656   0.552
79818SOL     OW41227   9.193  13.232   9.499
79818SOL    HW141228   9.280  13.270   9.494
79818SOL    HW241229   9.208  13.137   9.495
79819SOL     OW41230  14.725   4.023   7.898
79819SOL    HW141231  14.803   3.995   7.851
79819SOL    HW241232  14.722   3.968   7.976
79820SOL     OW41233  11.483   3.035  12.953
79820SOL    HW141234  11.394   3.015  12.923
79820SOL    HW241235  11.515   2.952  12.988
79821SOL     OW41236   9.195  11.044   5.393
79821SOL    HW141237   9.249  10.966   5.378
79821SOL    HW241238   9.234  11.112   5.339
79822SOL     OW41239  14.795   5.740   1.850
79822SOL    HW141240  14.810   5.685   1.927
79822SOL    HW241241  14.840   5.822   1.871
79823SOL     OW41242  14.603   7.705   7.884
79823SOL    HW141243  14.678   7.702   7.826
79823SOL    HW241244  14.617   7.632   7.945
79824SOL     OW41245   4.351   6.839   1.101
79824SOL    HW141246   4.286   6.790   1.152
79824SOL    HW241247   4.300   6.909   1.059
79825SOL     OW41248   9.049   3.120   7.404
79825SOL    HW141249   9.073   3.091   7.492
79825SOL    HW241250   8.974   3.178   7.418
79826SOL     OW41251  11.528   9.185  13.027
79826SOL    HW141252  11.570   9.264  12.994
79826SOL    HW241253  11.518   9.130  12.950
79827SOL     OW41254  11.853   6.775   6.099
79827SOL    HW141255  11.762   6.759   6.073
79827SOL    HW241256  11.848   6.793   6.193
79828SOL     OW41257  10.356   8.007   7.775
79828SOL    HW141258  10.262   7.995   7.784
79828SOL    HW241259  10.380   8.065   7.848
79829SOL     OW41260   9.951   9.992   0.270
79829SOL    HW141261   9.876  10.052   0.265
79829SOL    HW241262  10.020  10.042   0.313
79830SOL     OW41263   3.032   9.906   2.985
79830SOL    HW141264   3.078   9.968   2.929
79830SOL    HW241265   3.091   9.893   3.060
79831SOL     OW41266   1.528   2.688   5.345
79831SOL    HW141267   1.615   2.673   5.383
79831SOL    HW241268   1.483   2.604   5.355
79832SOL     OW41269  14.032   7.988   7.018
79832SOL    HW141270  14.028   7.999   7.113
79832SOL    HW241271  13.984   7.907   7.001
79833SOL     OW41272   6.361   7.231   7.708
79833SOL    HW141273   6.324   7.159   7.659
79833SOL    HW241274   6.450   7.202   7.730
79834SOL     OW41275   7.322  14.605   7.858
79834SOL    HW141276   7.232  14.572   7.852
79834SOL    HW241277   7.371  14.551   7.796
79835SOL     OW41278   5.300   7.889   1.739
79835SOL    HW141279   5.260   7.809   1.705
79835SOL    HW241280   5.318   7.942   1.661
79836SOL     OW41281   0.591  11.262  14.777
79836SOL    HW141282   0.665  11.269  14.837
79836SOL    HW241283   0.555  11.351  14.774
79837SOL     OW41284   9.891  11.624   0.305
79837SOL    HW141285   9.931  11.650   0.388
79837SOL    HW241286   9.866  11.532   0.319
79838SOL     OW41287   8.236   9.023   7.991
79838SOL    HW141288   8.256   8.975   7.910
79838SOL    HW241289   8.321   9.049   8.025
79839SOL     OW41290   3.061   9.239  13.468
79839SOL    HW141291   3.142   9.264  13.513
79839SOL    HW241292   3.071   9.146  13.448
79840SOL     OW41293   0.915   9.324  12.193
79840SOL    HW141294   0.914   9.342  12.099
79840SOL    HW241295   0.912   9.229  12.199
79841SOL     OW41296  14.604   6.770  11.448
79841SOL    HW141297  14.656   6.722  11.383
79841SOL    HW241298  14.627   6.862  11.433
79842SOL     OW41299  13.502   2.521   4.645
79842SOL    HW141300  13.540   2.607   4.626
79842SOL    HW241301  13.464   2.492   4.562
79843SOL     OW41302   3.390   2.861  13.757
79843SOL    HW141303   3.477   2.885  13.724
79843SOL    HW241304   3.393   2.765  13.764
79844SOL     OW41305  14.131   8.351   4.052
79844SOL    HW141306  14.174   8.396   4.124
79844SOL    HW241307  14.045   8.325   4.086
79845SOL     OW41308   6.065   6.273   7.980
79845SOL    HW141309   6.011   6.213   8.031
79845SOL    HW241310   6.020   6.281   7.896
79846SOL     OW41311   6.617   0.608  13.175
79846SOL    HW141312   6.605   0.538  13.111
79846SOL    HW241313   6.692   0.579  13.228
79847SOL     OW41314  11.664   4.814   0.055
79847SOL    HW141315  11.723   4.741   0.037
79847SOL    HW241316  11.704   4.859   0.130
79848SOL     OW41317   4.743   1.894   6.553
79848SOL    HW141318   4.766   1.980   6.589
79848SOL    HW241319   4.663   1.869   6.598
79849SOL     OW41320   0.239   0.431   0.365
79849SOL    HW141321   0.266   0.343   0.341
79849SOL    HW241322   0.280   0.487   0.298
79850SOL     OW41323   9.808   0.646   9.517
79850SOL    HW141324   9.812   0.615   9.607
79850SOL    HW241325   9.715   0.663   9.501
79851SOL     OW41326   1.294   1.345  13.875
79851SOL    HW141327   1.310   1.277  13.941
79851SOL    HW241328   1.380   1.361  13.835
79852SOL     OW41329  13.470   7.034   6.619
79852SOL    HW141330  13.459   6.941   6.640
79852SOL    HW241331  13.394   7.077   6.658
79853SOL     OW41332   3.869   4.697   6.287
79853SOL    HW141333   3.784   4.723   6.324
79853SOL    HW241334   3.846   4.653   6.205
79854SOL     OW41335   1.985   1.591   9.250
79854SOL    HW141336   1.993   1.682   9.220
79854SOL    HW241337   2.012   1.595   9.342
79855SOL     OW41338   4.874   6.105   3.208
79855SOL    HW141339   4.863   6.197   3.231
79855SOL    HW241340   4.787   6.066   3.220
79856SOL     OW41341   1.861   7.741   6.047
79856SOL    HW141342   1.951   7.729   6.017
79856SOL    HW241343   1.847   7.668   6.108
79857SOL     OW41344   3.612   6.620  13.344
79857SOL    HW141345   3.617   6.562  13.419
79857SOL    HW241346   3.562   6.696  13.375
79858SOL     OW41347   1.490   5.631   3.923
79858SOL    HW141348   1.537   5.571   3.865
79858SOL    HW241349   1.514   5.602   4.011
79859SOL     OW41350  11.010   9.680   0.487
79859SOL    HW141351  10.998   9.687   0.582
79859SOL    HW241352  11.026   9.587   0.471
79860SOL     OW41353  12.090   0.186   5.590
79860SOL    HW141354  12.183   0.201   5.570
79860SOL    HW241355  12.053   0.274   5.596
79861SOL     OW41356  10.824  11.071  11.668
79861SOL    HW141357  10.821  10.996  11.610
79861SOL    HW241358  10.741  11.068  11.716
79862SOL     OW41359   5.630   0.925  10.347
79862SOL    HW141360   5.665   1.003  10.392
79862SOL    HW241361   5.605   0.866  10.418
79863SOL     OW41362   9.313   9.125   8.834
79863SOL    HW141363   9.334   9.065   8.762
79863SOL    HW241364   9.376   9.197   8.824
79864SOL     OW41365   2.545   5.586   4.161
79864SOL    HW141366   2.511   5.567   4.249
79864SOL    HW241367   2.627   5.536   4.156
79865SOL     OW41368   9.087   0.850   0.868
79865SOL    HW141369   9.020   0.825   0.933
79865SOL    HW241370   9.043   0.914   0.812
79866SOL     OW41371   8.565   1.460   9.439
79866SOL    HW141372   8.551   1.490   9.529
79866SOL    HW241373   8.494   1.398   9.423
79867SOL     OW41374   4.036  11.380   5.372
79867SOL    HW141375   4.120  11.366   5.329
79867SOL    HW241376   4.024  11.303   5.427
79868SOL     OW41377   3.031   4.437  10.428
79868SOL    HW141378   3.009   4.439  10.334
79868SOL    HW241379   3.080   4.518  10.442
79869SOL     OW41380  10.676   9.279   9.652
79869SOL    HW141381  10.707   9.209   9.709
79869SOL    HW241382  10.755   9.319   9.617
79870SOL     OW41383   2.910   8.641  12.558
79870SOL    HW141384   2.851   8.708  12.523
79870SOL    HW241385   2.879   8.626  12.648
79871SOL     OW41386   5.687   8.995   3.231
79871SOL    HW141387   5.727   9.054   3.167
79871SOL    HW241388   5.645   8.927   3.177
79872SOL     OW41389   6.823  12.252  14.728
79872SOL    HW141390   6.879  12.279  14.800
79872SOL    HW241391   6.766  12.185  14.766
79873SOL     OW41392  12.960   9.383   3.756
79873SOL    HW141393  12.884   9.400   3.811
79873SOL    HW241394  12.990   9.470   3.728
79874SOL     OW41395   1.622   8.224   6.969
79874SOL    HW141396   1.596   8.142   6.926
79874SOL    HW241397   1.718   8.224   6.964
79875SOL     OW41398   1.692   0.626  13.616
79875SOL    HW141399   1.687   0.672  13.533
79875SOL    HW241400   1.785   0.617  13.633
79876SOL     OW41401  13.652   1.237   0.223
79876SOL    HW141402  13.580   1.174   0.221
79876SOL    HW241403  13.636   1.289   0.302
79877SOL     OW41404   4.742   1.035   2.059
79877SOL    HW141405   4.725   0.996   1.974
79877SOL    HW241406   4.752   0.960   2.119
79878SOL     OW41407   7.240   4.133   1.922
79878SOL    HW141408   7.311   4.198   1.912
79878SOL    HW241409   7.257   4.093   2.007
79879SOL     OW41410   9.892   4.190   7.962
79879SOL    HW141411   9.850   4.273   7.983
79879SOL    HW241412   9.823   4.124   7.976
79880SOL     OW41413  14.290   5.001  12.399
79880SOL    HW141414  14.254   5.089  12.410
79880SOL    HW241415  14.384   5.014  12.384
79881SOL     OW41416  14.152  11.693  10.817
79881SOL    HW141417  14.183  11.682  10.727
79881SOL    HW241418  14.222  11.741  10.861
79882SOL     OW41419  10.144   7.270  13.033
79882SOL    HW141420  10.153   7.266  13.128
79882SOL    HW241421  10.064   7.321  13.019
79883SOL     OW41422  14.257   0.437   7.237
79883SOL    HW141423  14.350   0.457   7.244
79883SOL    HW241424  14.214   0.523   7.232
79884SOL     OW41425  10.030   9.982   6.147
79884SOL    HW141426   9.975   9.930   6.089
79884SOL    HW241427  10.018   9.943   6.233
79885SOL     OW41428   2.274   0.800   5.279
79885SOL    HW141429   2.189   0.838   5.302
79885SOL    HW241430   2.252   0.723   5.225
79886SOL     OW41431  13.260  14.642   8.071
79886SOL    HW141432  13.320  14.577   8.034
79886SOL    HW241433  13.181  14.592   8.092
79887SOL     OW41434   2.455  12.703  10.562
79887SOL    HW141435   2.546  12.676  10.558
79887SOL    HW241436   2.418  12.653  10.636
79888SOL     OW41437  13.835  13.495   0.691
79888SOL    HW141438  13.895  13.532   0.755
79888SOL    HW241439  13.890  13.473   0.616
79889SOL     OW41440   3.514   8.510   3.800
79889SOL    HW141441   3.452   8.582   3.812
79889SOL    HW241442   3.557   8.529   3.716
79890SOL     OW41443   4.431   8.599  13.644
79890SOL    HW141444   4.349   8.587  13.692
79890SOL    HW241445   4.405   8.601  13.552
79891SOL     OW41446  13.753   7.156   9.483
79891SOL    HW141447  13.769   7.182   9.573
79891SOL    HW241448  13.662   7.124   9.483
79892SOL     OW41449   8.240   3.669  13.056
79892SOL    HW141450   8.249   3.744  12.998
79892SOL    HW241451   8.326   3.659  13.097
79893SOL     OW41452  11.542  13.852  13.710
79893SOL    HW141453  11.484  13.920  13.743
79893SOL    HW241454  11.612  13.846  13.775
79894SOL     OW41455  14.185  13.938   2.877
79894SOL    HW141456  14.258  13.985   2.918
79894SOL    HW241457  14.111  13.999   2.883
79895SOL     OW41458  10.134  10.609   8.049
79895SOL    HW141459  10.117  10.689   7.999
79895SOL    HW241460  10.095  10.625   8.135
79896SOL     OW41461   4.119  12.884   6.709
79896SOL    HW141462   4.167  12.862   6.628
79896SOL    HW241463   4.074  12.965   6.689
79897SOL     OW41464   5.977  10.042   5.767
79897SOL    HW141465   5.916   9.977   5.800
79897SOL    HW241466   5.941  10.126   5.796
79898SOL     OW41467  10.972   4.805   8.306
79898SOL    HW141468  10.993   4.730   8.362
79898SOL    HW241469  10.987   4.882   8.362
79899SOL     OW41470   3.828  14.318  14.197
79899SOL    HW141471   3.920  14.293  14.205
79899SOL    HW241472   3.793  14.310  14.286
79900SOL     OW41473   0.707  11.248  11.534
79900SOL    HW141474   0.619  11.259  11.572
79900SOL    HW241475   0.690  11.231  11.441
79901SOL     OW41476  14.777   0.477   5.403
79901SOL    HW141477  14.865   0.465   5.440
79901SOL    HW241478  14.759   0.570   5.415
79902SOL     OW41479   2.319   4.622  13.822
79902SOL    HW141480   2.348   4.551  13.766
79902SOL    HW241481   2.274   4.579  13.895
79903SOL     OW41482   6.233   6.207   1.487
79903SOL    HW141483   6.217   6.236   1.577
79903SOL    HW241484   6.177   6.130   1.476
79904SOL     OW41485  12.561  14.687   6.394
79904SOL    HW141486  12.523  14.687   6.306
79904SOL    HW241487  12.640  14.739   6.386
79905SOL     OW41488   8.281  12.149   4.129
79905SOL    HW141489   8.256  12.123   4.040
79905SOL    HW241490   8.201  12.138   4.180
79906SOL     OW41491   5.758   1.996   2.598
79906SOL    HW141492   5.755   2.035   2.510
79906SOL    HW241493   5.765   1.902   2.582
79907SOL     OW41494  11.699   9.559   0.454
79907SOL    HW141495  11.744   9.634   0.493
79907SOL    HW241496  11.606   9.581   0.461
79908SOL     OW41497   7.123   7.345  11.865
79908SOL    HW141498   7.182   7.272  11.883
79908SOL    HW241499   7.062   7.344  11.938
79909SOL     OW41500   9.439  10.085  11.919
79909SOL    HW141501   9.461  10.037  11.999
79909SOL    HW241502   9.492  10.044  11.851
79910SOL     OW41503   8.143   8.441   9.907
79910SOL    HW141504   8.077   8.466   9.842
79910SOL    HW241505   8.196   8.374   9.862
79911SOL     OW41506   9.977   9.241   4.806
79911SOL    HW141507  10.019   9.206   4.727
79911SOL    HW241508   9.884   9.243   4.785
79912SOL     OW41509  10.331   0.039   0.342
79912SOL    HW141510  10.310   0.132   0.333
79912SOL    HW241511  10.257  14.872   0.301
79913SOL     OW41512  11.427  11.188  13.165
79913SOL    HW141513  11.479  11.238  13.103
79913SOL    HW241514  11.365  11.251  13.202
79914SOL     OW41515   7.741   6.736  10.478
79914SOL    HW141516   7.763   6.685  10.401
79914SOL    HW241517   7.683   6.805  10.445
79915SOL     OW41518  12.122   1.383  10.422
79915SOL    HW141519  12.156   1.347  10.339
79915SOL    HW241520  12.186   1.355  10.488
79916SOL     OW41521   8.578   6.026   5.863
79916SOL    HW141522   8.623   5.992   5.786
79916SOL    HW241523   8.486   6.006   5.849
79917SOL     OW41524   5.788   3.523   2.539
79917SOL    HW141525   5.697   3.554   2.542
79917SOL    HW241526   5.840   3.603   2.540
79918SOL     OW41527  11.863   2.158   2.917
79918SOL    HW141528  11.795   2.224   2.932
79918SOL    HW241529  11.891   2.132   3.004
79919SOL     OW41530   3.703  13.082   4.734
79919SOL    HW141531   3.648  13.157   4.713
79919SOL    HW241532   3.787  13.102   4.691
79920SOL     OW41533   0.369   4.442   4.831
79920SOL    HW141534   0.323   4.510   4.880
79920SOL    HW241535   0.421   4.396   4.897
79921SOL     OW41536   5.765   2.981   7.171
79921SOL    HW141537   5.819   3.059   7.181
79921SOL    HW241538   5.722   2.971   7.256
79922SOL     OW41539   7.568   6.423   7.876
79922SOL    HW141540   7.595   6.333   7.894
79922SOL    HW241541   7.601   6.472   7.952
79923SOL     OW41542   9.250   2.269   6.705
79923SOL    HW141543   9.277   2.239   6.618
79923SOL    HW241544   9.291   2.355   6.714
79924SOL     OW41545  11.557   1.672   3.867
79924SOL    HW141546  11.525   1.740   3.808
79924SOL    HW241547  11.610   1.615   3.810
79925SOL     OW41548   9.370   5.703  13.111
79925SOL    HW141549   9.310   5.660  13.051
79925SOL    HW241550   9.314   5.741  13.179
79926SOL     OW41551  13.127   7.231   4.802
79926SOL    HW141552  13.219   7.256   4.796
79926SOL    HW241553  13.110   7.224   4.896
79927SOL     OW41554  13.471   3.792   1.275
79927SOL    HW141555  13.552   3.742   1.271
79927SOL    HW241556  13.416   3.755   1.206
79928SOL     OW41557  10.208   1.865   4.090
79928SOL    HW141558  10.205   1.813   4.010
79928SOL    HW241559  10.125   1.912   4.091
79929SOL     OW41560   7.424   1.658   6.641
79929SOL    HW141561   7.406   1.749   6.660
79929SOL    HW241562   7.343   1.625   6.601
79930SOL     OW41563   7.279  11.968   9.638
79930SOL    HW141564   7.368  11.974   9.670
79930SOL    HW241565   7.230  11.928   9.710
79931SOL     OW41566  14.497  12.406   7.748
79931SOL    HW141567  14.496  12.325   7.799
79931SOL    HW241568  14.425  12.458   7.783
79932SOL     OW41569   2.258   9.000   9.521
79932SOL    HW141570   2.172   8.958   9.519
79932SOL    HW241571   2.320   8.927   9.511
79933SOL     OW41572   1.559   9.177   7.320
79933SOL    HW141573   1.611   9.136   7.389
79933SOL    HW241574   1.497   9.109   7.292
79934SOL     OW41575   6.081   5.757   4.502
79934SOL    HW141576   6.173   5.779   4.488
79934SOL    HW241577   6.037   5.782   4.421
79935SOL     OW41578  10.373  12.807   9.673
79935SOL    HW141579  10.363  12.799   9.578
79935SOL    HW241580  10.285  12.824   9.705
79936SOL     OW41581  10.072   3.578  11.308
79936SOL    HW141582  10.142   3.533  11.261
79936SOL    HW241583  10.002   3.588  11.242
79937SOL     OW41584   2.545   2.023  13.606
79937SOL    HW141585   2.548   1.978  13.691
79937SOL    HW241586   2.513   2.111  13.627
79938SOL     OW41587  10.431  13.723   6.817
79938SOL    HW141588  10.338  13.706   6.800
79938SOL    HW241589  10.477  13.668   6.754
79939SOL     OW41590  14.519   8.793  10.979
79939SOL    HW141591  14.443   8.833  10.937
79939SOL    HW241592  14.520   8.830  11.067
79940SOL     OW41593  13.154   6.816   1.688
79940SOL    HW141594  13.105   6.833   1.607
79940SOL    HW241595  13.106   6.744   1.729
79941SOL     OW41596   3.890   2.855   8.453
79941SOL    HW141597   3.901   2.777   8.507
79941SOL    HW241598   3.957   2.916   8.485
79942SOL     OW41599   2.092   8.754   6.824
79942SOL    HW141600   2.185   8.734   6.815
79942SOL    HW241601   2.071   8.810   6.749
79943SOL     OW41602   6.495   4.723   8.086
79943SOL    HW141603   6.534   4.729   7.999
79943SOL    HW241604   6.521   4.804   8.130
79944SOL     OW41605   2.606   5.894  13.470
79944SOL    HW141606   2.680   5.877  13.411
79944SOL    HW241607   2.586   5.987  13.455
79945SOL     OW41608  14.716   4.763   9.145
79945SOL    HW141609  14.667   4.737   9.223
79945SOL    HW241610  14.652   4.809   9.090
79946SOL     OW41611   0.526   0.332  13.308
79946SOL    HW141612   0.521   0.239  13.284
79946SOL    HW241613   0.440   0.367  13.287
79947SOL     OW41614   7.341   0.218   8.319
79947SOL    HW141615   7.424   0.202   8.274
79947SOL    HW241616   7.304   0.131   8.333
79948SOL     OW41617   2.056  11.340   8.028
79948SOL    HW141618   2.138  11.329   7.981
79948SOL    HW241619   2.026  11.251   8.045
79949SOL     OW41620   7.259   8.070   6.371
79949SOL    HW141621   7.290   8.102   6.286
79949SOL    HW241622   7.337   8.034   6.413
79950SOL     OW41623  12.964  12.395  11.092
79950SOL    HW141624  12.989  12.330  11.157
79950SOL    HW241625  12.975  12.479  11.137
79951SOL     OW41626   7.399  14.461  13.298
79951SOL    HW141627   7.303  14.455  13.302
79951SOL    HW241628   7.422  14.425  13.213
79952SOL     OW41629   4.902   5.642   5.690
79952SOL    HW141630   4.814   5.643   5.729
79952SOL    HW241631   4.887   5.635   5.596
79953SOL     OW41632   0.565  10.080   2.953
79953SOL    HW141633   0.657  10.052   2.945
79953SOL    HW241634   0.531  10.076   2.864
79954SOL     OW41635   8.940   1.672   0.344
79954SOL    HW141636   8.957   1.733   0.272
79954SOL    HW241637   9.024   1.667   0.390
79955SOL     OW41638   2.259   0.719   0.125
79955SOL    HW141639   2.195   0.672   0.071
79955SOL    HW241640   2.263   0.669   0.206
79956SOL     OW41641  13.975  12.898   5.095
79956SOL    HW141642  13.936  12.967   5.042
79956SOL    HW241643  14.039  12.856   5.038
79957SOL     OW41644   3.226  14.119   0.718
79957SOL    HW141645   3.134  14.146   0.715
79957SOL    HW241646   3.273  14.197   0.743
79958SOL     OW41647   8.400  14.044  10.151
79958SOL    HW141648   8.406  13.978  10.083
79958SOL    HW241649   8.489  14.048  10.188
79959SOL     OW41650   7.939  10.893   4.908
79959SOL    HW141651   7.867  10.871   4.849
79959SOL    HW241652   7.946  10.818   4.967
79960SOL     OW41653   3.164   5.456   4.277
79960SOL    HW141654   3.123   5.536   4.243
79960SOL    HW241655   3.226   5.430   4.208
79961SOL     OW41656   4.689   8.513   5.891
79961SOL    HW141657   4.726   8.460   5.820
79961SOL    HW241658   4.621   8.566   5.849
79962SOL     OW41659  14.306   2.959  12.464
79962SOL    HW141660  14.313   2.919  12.377
79962SOL    HW241661  14.231   2.916  12.504
79963SOL     OW41662   2.773  10.721   0.517
79963SOL    HW141663   2.826  10.765   0.450
79963SOL    HW241664   2.688  10.766   0.513
79964SOL     OW41665   5.218   7.512   9.394
79964SOL    HW141666   5.179   7.571   9.330
79964SOL    HW241667   5.257   7.442   9.341
79965SOL     OW41668  12.222   3.514   6.127
79965SOL    HW141669  12.182   3.594   6.092
79965SOL    HW241670  12.149   3.452   6.134
79966SOL     OW41671   5.831  10.745   5.302
79966SOL    HW141672   5.770  10.765   5.230
79966SOL    HW241673   5.776  10.709   5.371
79967SOL     OW41674   3.402   8.072   3.981
79967SOL    HW141675   3.367   8.113   3.902
79967SOL    HW241676   3.468   8.010   3.949
79968SOL     OW41677   8.728  14.813  14.691
79968SOL    HW141678   8.782   0.014  14.698
79968SOL    HW241679   8.757  14.772  14.610
79969SOL     OW41680   8.120  13.568   8.661
79969SOL    HW141681   8.076  13.644   8.623
79969SOL    HW241682   8.060  13.537   8.729
79970SOL     OW41683  14.531  14.068  12.452
79970SOL    HW141684  14.585  14.104  12.382
79970SOL    HW241685  14.520  13.976  12.429
79971SOL     OW41686   2.069   5.342   6.517
79971SOL    HW141687   2.071   5.315   6.609
79971SOL    HW241688   2.142   5.295   6.477
79972SOL     OW41689  13.016   3.413   7.200
79972SOL    HW141690  13.060   3.328   7.208
79972SOL    HW241691  13.086   3.477   7.201
79973SOL     OW41692  11.665   3.423  11.913
79973SOL    HW141693  11.675   3.423  12.009
79973SOL    HW241694  11.677   3.331  11.888
79974SOL     OW41695  14.559   6.735   6.868
79974SOL    HW141696  14.543   6.754   6.961
79974SOL    HW241697  14.523   6.648   6.855
79975SOL     OW41698  11.072   6.554  14.383
79975SOL    HW141699  11.130   6.548  14.308
79975SOL    HW241700  10.989   6.588  14.348
79976SOL     OW41701   4.640   7.992   8.162
79976SOL    HW141702   4.674   8.076   8.193
79976SOL    HW241703   4.642   7.999   8.067
79977SOL     OW41704   6.791  10.142   6.173
79977SOL    HW141705   6.765  10.198   6.246
79977SOL    HW241706   6.885  10.158   6.163
79978SOL     OW41707   6.937   4.661   5.584
79978SOL    HW141708   6.951   4.707   5.502
79978SOL    HW241709   7.019   4.674   5.633
79979SOL     OW41710   0.795  12.010   7.402
79979SOL    HW141711   0.845  12.083   7.367
79979SOL    HW241712   0.850  11.973   7.471
79980SOL     OW41713   6.177   6.435   3.450
79980SOL    HW141714   6.224   6.518   3.443
79980SOL    HW241715   6.149   6.432   3.542
79981SOL     OW41716   9.636  13.037   5.052
79981SOL    HW141717   9.589  13.068   5.129
79981SOL    HW241718   9.571  13.039   4.982
79982SOL     OW41719   2.222   1.514  11.840
79982SOL    HW141720   2.177   1.588  11.798
79982SOL    HW241721   2.309   1.513  11.799
79983SOL     OW41722  10.208   2.581   3.181
79983SOL    HW141723  10.231   2.620   3.265
79983SOL    HW241724  10.128   2.533   3.197
79984SOL     OW41725   6.275   1.240  14.403
79984SOL    HW141726   6.266   1.334  14.387
79984SOL    HW241727   6.206   1.200  14.351
79985SOL     OW41728   0.495   1.435   3.501
79985SOL    HW141729   0.480   1.520   3.541
79985SOL    HW241730   0.444   1.374   3.555
79986SOL     OW41731  11.417   1.238   4.341
79986SOL    HW141732  11.385   1.151   4.316
79986SOL    HW241733  11.339   1.293   4.344
79987SOL     OW41734   7.983   4.408   2.658
79987SOL    HW141735   7.888   4.405   2.650
79987SOL    HW241736   8.013   4.442   2.574
79988SOL     OW41737   3.893   3.569   3.580
79988SOL    HW141738   3.986   3.572   3.600
79988SOL    HW241739   3.864   3.660   3.585
79989SOL     OW41740   2.771  13.230  13.749
79989SOL    HW141741   2.771  13.325  13.761
79989SOL    HW241742   2.758  13.217  13.655
79990SOL     OW41743   3.040   3.545   8.371
79990SOL    HW141744   3.007   3.544   8.281
79990SOL    HW241745   3.135   3.550   8.362
79991SOL     OW41746  11.348  13.279   6.707
79991SOL    HW141747  11.404  13.246   6.778
79991SOL    HW241748  11.327  13.201   6.656
79992SOL     OW41749   7.444   8.682   0.289
79992SOL    HW141750   7.435   8.641   0.375
79992SOL    HW241751   7.362   8.662   0.244
79993SOL     OW41752   2.947   1.806   4.800
79993SOL    HW141753   2.854   1.783   4.797
79993SOL    HW241754   2.958   1.868   4.728
79994SOL     OW41755   5.199  12.224   7.342
79994SOL    HW141756   5.147  12.300   7.318
79994SOL    HW241757   5.286  12.259   7.360
79995SOL     OW41758   7.836   6.792   3.026
79995SOL    HW141759   7.873   6.776   2.939
79995SOL    HW241760   7.863   6.882   3.047
79996SOL     OW41761  11.130   8.710   1.279
79996SOL    HW141762  11.209   8.736   1.327
79996SOL    HW241763  11.058   8.736   1.336
79997SOL     OW41764   6.934   7.807   0.896
79997SOL    HW141765   7.006   7.765   0.942
79997SOL    HW241766   6.974   7.844   0.817
79998SOL     OW41767   3.771  14.318   8.457
79998SOL    HW141768   3.763  14.413   8.447
79998SOL    HW241769   3.844  14.293   8.400
79999SOL     OW41770   6.247  14.082   0.651
79999SOL    HW141771   6.235  13.988   0.668
79999SOL    HW241772   6.231  14.091   0.557
80000SOL     OW41773  11.467   9.797  12.348
80000SOL    HW141774  11.490   9.879  12.306
80000SOL    HW241775  11.431   9.742  12.278
80001SOL     OW41776   2.327   2.381   8.079
80001SOL    HW141777   2.304   2.289   8.066
80001SOL    HW241778   2.390   2.380   8.151
80002SOL     OW41779   8.534   1.646   3.419
80002SOL    HW141780   8.480   1.724   3.428
80002SOL    HW241781   8.542   1.612   3.509
80003SOL     OW41782   3.133  11.867   4.543
80003SOL    HW141783   3.145  11.777   4.512
80003SOL    HW241784   3.182  11.870   4.625
80004SOL     OW41785   7.412   9.630  10.043
80004SOL    HW141786   7.328   9.585  10.034
80004SOL    HW241787   7.434   9.658   9.954
80005SOL     OW41788  14.192  10.730  14.738
80005SOL    HW141789  14.112  10.727  14.791
80005SOL    HW241790  14.225  10.640  14.739
80006SOL     OW41791  12.364   1.398   9.351
80006SOL    HW141792  12.434   1.419   9.289
80006SOL    HW241793  12.405   1.409   9.437
80007SOL     OW41794   4.237  13.903  12.115
80007SOL    HW141795   4.161  13.961  12.115
80007SOL    HW241796   4.285  13.926  12.035
80008SOL     OW41797   3.688   4.877   1.102
80008SOL    HW141798   3.718   4.855   1.190
80008SOL    HW241799   3.719   4.804   1.047
80009SOL     OW41800  12.893   6.790   5.242
80009SOL    HW141801  12.819   6.761   5.190
80009SOL    HW241802  12.967   6.790   5.181
80010SOL     OW41803   3.120   1.087   8.970
80010SOL    HW141804   3.109   1.164   9.025
80010SOL    HW241805   3.038   1.082   8.919
80011SOL     OW41806   4.892  14.263   9.286
80011SOL    HW141807   4.928  14.351   9.293
80011SOL    HW241808   4.834  14.267   9.210
80012SOL     OW41809   8.020   3.809   2.615
80012SOL    HW141810   7.964   3.762   2.677
80012SOL    HW241811   7.971   3.808   2.533
80013SOL     OW41812   0.027  10.566  10.667
80013SOL    HW141813   0.013  10.584  10.760
80013SOL    HW241814   0.110  10.607  10.646
80014SOL     OW41815   7.569   6.755   5.374
80014SOL    HW141816   7.546   6.848   5.384
80014SOL    HW241817   7.652   6.756   5.326
80015SOL     OW41818  13.575   7.338  12.470
80015SOL    HW141819  13.538   7.280  12.536
80015SOL    HW241820  13.606   7.413  12.520
80016SOL     OW41821   5.815   2.499   9.787
80016SOL    HW141822   5.769   2.415   9.780
80016SOL    HW241823   5.841   2.503   9.879
80017SOL     OW41824   7.268   3.179   5.783
80017SOL    HW141825   7.191   3.123   5.796
80017SOL    HW241826   7.252   3.224   5.700
80018SOL     OW41827   6.751   3.073  10.580
80018SOL    HW141828   6.698   3.031  10.648
80018SOL    HW241829   6.804   3.137  10.627
80019SOL     OW41830   7.218  13.048   6.945
80019SOL    HW141831   7.267  12.971   6.972
80019SOL    HW241832   7.266  13.083   6.870
80020SOL     OW41833   2.490   8.856  11.916
80020SOL    HW141834   2.411   8.839  11.967
80020SOL    HW241835   2.523   8.939  11.951
80021SOL     OW41836  14.782   9.649   7.039
80021SOL    HW141837  14.726   9.598   6.981
80021SOL    HW241838  14.857   9.673   6.984
80022SOL     OW41839   8.753   1.279   3.424
80022SOL    HW141840   8.670   1.232   3.431
80022SOL    HW241841   8.808   1.224   3.368
80023SOL     OW41842  14.549   0.780  14.600
80023SOL    HW141843  14.512   0.772  14.512
80023SOL    HW241844  14.643   0.780  14.587
80024SOL     OW41845   9.012   4.609   1.630
80024SOL    HW141846   8.993   4.688   1.581
80024SOL    HW241847   9.039   4.545   1.563
80025SOL     OW41848   4.232  10.515  14.316
80025SOL    HW141849   4.228  10.489  14.408
80025SOL    HW241850   4.274  10.601  14.317
80026SOL     OW41851  14.088   7.881   2.597
80026SOL    HW141852  14.025   7.844   2.535
80026SOL    HW241853  14.168   7.892   2.546
80027SOL     OW41854  12.446   4.474  13.903
80027SOL    HW141855  12.511   4.541  13.878
80027SOL    HW241856  12.491   4.421  13.969
80028SOL     OW41857   3.388  10.543  10.804
80028SOL    HW141858   3.392  10.503  10.717
80028SOL    HW241859   3.412  10.634  10.790
80029SOL     OW41860  11.455   2.882  14.459
80029SOL    HW141861  11.414   2.846  14.381
80029SOL    HW241862  11.535   2.830  14.470
80030SOL     OW41863   5.153  10.391   0.260
80030SOL    HW141864   5.104  10.410   0.340
80030SOL    HW241865   5.238  10.359   0.291
80031SOL     OW41866   0.625   2.720  12.052
80031SOL    HW141867   0.581   2.794  12.094
80031SOL    HW241868   0.572   2.702  11.974
80032SOL     OW41869  13.013   0.520   3.298
80032SOL    HW141870  13.046   0.538   3.386
80032SOL    HW241871  12.948   0.450   3.311
80033SOL     OW41872   8.497   5.963   3.877
80033SOL    HW141873   8.547   5.992   3.953
80033SOL    HW241874   8.562   5.926   3.817
80034SOL     OW41875   9.416   1.929  12.035
80034SOL    HW141876   9.410   1.962  11.945
80034SOL    HW241877   9.401   1.835  12.027
80035SOL     OW41878   3.868   0.112   1.223
80035SOL    HW141879   3.953   0.152   1.242
80035SOL    HW241880   3.852   0.052   1.297
80036SOL     OW41881  11.694   7.493   0.159
80036SOL    HW141882  11.634   7.550   0.207
80036SOL    HW241883  11.781   7.526   0.182
80037SOL     OW41884   5.834  12.105   4.566
80037SOL    HW141885   5.810  12.193   4.537
80037SOL    HW241886   5.788  12.047   4.505
80038SOL     OW41887   0.963   8.501   1.347
80038SOL    HW141888   0.928   8.445   1.416
80038SOL    HW241889   1.031   8.553   1.390
80039SOL     OW41890  10.616   5.596   2.601
80039SOL    HW141891  10.681   5.665   2.586
80039SOL    HW241892  10.592   5.566   2.514
80040SOL     OW41893   4.331  10.509  10.582
80040SOL    HW141894   4.340  10.450  10.657
80040SOL    HW241895   4.418  10.511  10.542
80041SOL     OW41896  11.848   7.209   7.626
80041SOL    HW141897  11.785   7.280   7.619
80041SOL    HW241898  11.901   7.216   7.547
80042SOL     OW41899   6.114   5.344  10.345
80042SOL    HW141900   6.107   5.380  10.256
80042SOL    HW241901   6.100   5.250  10.334
80043SOL     OW41902  12.663   9.758  10.723
80043SOL    HW141903  12.632   9.669  10.703
80043SOL    HW241904  12.670   9.800  10.637
80044SOL     OW41905   5.633  14.209  12.489
80044SOL    HW141906   5.695  14.170  12.550
80044SOL    HW241907   5.599  14.286  12.535
80045SOL     OW41908   7.495  10.345   0.531
80045SOL    HW141909   7.494  10.369   0.624
80045SOL    HW241910   7.584  10.313   0.515
80046SOL     OW41911   3.281   1.539   6.395
80046SOL    HW141912   3.375   1.532   6.379
80046SOL    HW241913   3.265   1.633   6.400
80047SOL     OW41914   9.204  12.309  13.400
80047SOL    HW141915   9.281  12.258  13.374
80047SOL    HW241916   9.137  12.284  13.337
80048SOL     OW41917   6.330  11.296  14.515
80048SOL    HW141918   6.373  11.216  14.545
80048SOL    HW241919   6.236  11.278  14.524
80049SOL     OW41920   7.484   5.304   6.183
80049SOL    HW141921   7.576   5.281   6.192
80049SOL    HW241922   7.474   5.387   6.229
80050SOL     OW41923   1.884   2.027   1.538
80050SOL    HW141924   1.874   2.062   1.627
80050SOL    HW241925   1.918   2.100   1.487
80051SOL     OW41926   6.490  13.474   9.172
80051SOL    HW141927   6.584  13.456   9.176
80051SOL    HW241928   6.448  13.389   9.186
80052SOL     OW41929   5.208   1.134   5.273
80052SOL    HW141930   5.152   1.180   5.336
80052SOL    HW241931   5.209   1.191   5.196
80053SOL     OW41932   8.321   6.698   7.445
80053SOL    HW141933   8.273   6.615   7.444
80053SOL    HW241934   8.256   6.763   7.470
80054SOL     OW41935  11.229   6.729   0.892
80054SOL    HW141936  11.228   6.792   0.964
80054SOL    HW241937  11.203   6.646   0.931
80055SOL     OW41938   6.378  12.817  13.225
80055SOL    HW141939   6.350  12.858  13.143
80055SOL    HW241940   6.448  12.757  13.199
80056SOL     OW41941  14.700   0.544   7.765
80056SOL    HW141942  14.658   0.583   7.689
80056SOL    HW241943  14.686   0.606   7.836
80057SOL     OW41944   1.021   3.019  11.611
80057SOL    HW141945   1.057   3.106  11.594
80057SOL    HW241946   1.041   2.968  11.532
80058SOL     OW41947  12.232  11.325   9.434
80058SOL    HW141948  12.284  11.404   9.448
80058SOL    HW241949  12.165  11.329   9.502
80059SOL     OW41950   2.023  11.569   2.526
80059SOL    HW141951   2.115  11.579   2.552
80059SOL    HW241952   1.992  11.493   2.576
80060SOL     OW41953  10.829  11.802  10.960
80060SOL    HW141954  10.906  11.847  10.925
80060SOL    HW241955  10.803  11.741  10.892
80061SOL     OW41956   5.497   7.504   0.406
80061SOL    HW141957   5.452   7.511   0.491
80061SOL    HW241958   5.460   7.574   0.353
80062SOL     OW41959  12.497  14.040   7.045
80062SOL    HW141960  12.420  14.042   6.987
80062SOL    HW241961  12.527  14.131   7.047
80063SOL     OW41962  10.144  12.647   1.019
80063SOL    HW141963  10.051  12.664   1.009
80063SOL    HW241964  10.149  12.568   1.073
80064SOL     OW41965   1.407   4.045   7.954
80064SOL    HW141966   1.382   3.998   8.033
80064SOL    HW241967   1.496   4.017   7.936
80065SOL     OW41968  11.338   1.825   0.788
80065SOL    HW141969  11.335   1.779   0.872
80065SOL    HW241970  11.417   1.793   0.746
80066SOL     OW41971   2.018  11.180   9.594
80066SOL    HW141972   2.064  11.249   9.642
80066SOL    HW241973   2.080  11.107   9.594
80067SOL     OW41974   5.534  12.837  14.530
80067SOL    HW141975   5.565  12.747  14.519
80067SOL    HW241976   5.481  12.854  14.452
80068SOL     OW41977   9.609  12.920   1.372
80068SOL    HW141978   9.522  12.901   1.338
80068SOL    HW241979   9.593  12.972   1.451
80069SOL     OW41980  10.452   0.281   3.061
80069SOL    HW141981  10.474   0.335   3.137
80069SOL    HW241982  10.435   0.194   3.098
80070SOL     OW41983   4.762   8.303   7.424
80070SOL    HW141984   4.747   8.389   7.383
80070SOL    HW241985   4.781   8.245   7.351
80071SOL     OW41986   9.847   9.733   7.944
80071SOL    HW141987   9.859   9.639   7.931
80071SOL    HW241988   9.802   9.762   7.864
80072SOL     OW41989  14.215   9.880   7.457
80072SOL    HW141990  14.268   9.816   7.504
80072SOL    HW241991  14.213   9.956   7.516
80073SOL     OW41992   8.763  10.892   1.866
80073SOL    HW141993   8.682  10.866   1.909
80073SOL    HW241994   8.830  10.838   1.908
80074SOL     OW41995   5.871   5.837   9.543
80074SOL    HW141996   5.860   5.863   9.451
80074SOL    HW241997   5.932   5.764   9.540
80075SOL     OW41998  10.296   0.538   0.947
80075SOL    HW141999  10.360   0.491   0.892
80075SOL    HW242000  10.297   0.491   1.030
80076SOL     OW42001   3.256   3.564   7.910
80076SOL    HW142002   3.311   3.531   7.839
80076SOL    HW242003   3.185   3.610   7.866
80077SOL     OW42004   7.143   2.674   5.560
80077SOL    HW142005   7.106   2.727   5.489
80077SOL    HW242006   7.180   2.597   5.516
80078SOL     OW42007   8.291   5.798   4.048
80078SOL    HW142008   8.314   5.832   4.134
80078SOL    HW242009   8.352   5.840   3.988
80079SOL     OW42010  14.693   5.232  12.908
80079SOL    HW142011  14.764   5.242  12.972
80079SOL    HW242012  14.622   5.285  12.942
80080SOL     OW42013   2.626  10.917   1.809
80080SOL    HW142014   2.582  10.869   1.880
80080SOL    HW242015   2.660  10.996   1.851
80081SOL     OW42016  13.333   6.320   9.604
80081SOL    HW142017  13.300   6.248   9.657
80081SOL    HW242018  13.423   6.333   9.633
80082SOL     OW42019   2.219   1.676   6.283
80082SOL    HW142020   2.254   1.764   6.297
80082SOL    HW242021   2.285   1.632   6.231
80083SOL     OW42022  14.844   3.215   2.324
80083SOL    HW142023   0.056   3.244   2.309
80083SOL    HW242024  14.820   3.169   2.243
80084SOL     OW42025   7.387  14.138   8.938
80084SOL    HW142026   7.381  14.179   8.851
80084SOL    HW242027   7.413  14.209   8.996
80085SOL     OW42028   0.713   2.239  12.752
80085SOL    HW142029   0.728   2.163  12.695
80085SOL    HW242030   0.798   2.283  12.756
80086SOL     OW42031   0.185   1.516   6.909
80086SOL    HW142032   0.240   1.459   6.963
80086SOL    HW242033   0.228   1.517   6.823
80087SOL     OW42034  11.215   4.424   1.181
80087SOL    HW142035  11.260   4.497   1.223
80087SOL    HW242036  11.167   4.464   1.108
80088SOL     OW42037   4.558  13.405   9.698
80088SOL    HW142038   4.584  13.497   9.699
80088SOL    HW242039   4.638  13.357   9.719
80089SOL     OW42040   0.684   7.794   8.368
80089SOL    HW142041   0.601   7.750   8.349
80089SOL    HW242042   0.750   7.740   8.326
80090SOL     OW42043  12.260   9.926  10.864
80090SOL    HW142044  12.175   9.931  10.908
80090SOL    HW242045  12.247   9.968  10.780
80091SOL     OW42046   7.661   9.787  14.695
80091SOL    HW142047   7.651   9.693  14.711
80091SOL    HW242048   7.756   9.800  14.692
80092SOL     OW42049   6.751   8.697   6.933
80092SOL    HW142050   6.676   8.726   6.985
80092SOL    HW242051   6.811   8.772   6.935
80093SOL     OW42052   3.722  14.434  12.942
80093SOL    HW142053   3.655  14.370  12.918
80093SOL    HW242054   3.676  14.496  12.999
80094SOL     OW42055   4.707  11.491   0.637
80094SOL    HW142056   4.768  11.426   0.601
80094SOL    HW242057   4.646  11.439   0.691
80095SOL     OW42058   5.082   2.255   1.303
80095SOL    HW142059   5.022   2.317   1.345
80095SOL    HW242060   5.026   2.187   1.268
80096SOL     OW42061   6.794   8.056   4.177
80096SOL    HW142062   6.884   8.079   4.199
80096SOL    HW242063   6.767   7.996   4.247
80097SOL     OW42064  11.314  10.355   5.847
80097SOL    HW142065  11.364  10.273   5.841
80097SOL    HW242066  11.346  10.409   5.776
80098SOL     OW42067   4.722  12.970   8.217
80098SOL    HW142068   4.689  12.896   8.167
80098SOL    HW242069   4.768  13.024   8.153
80099SOL     OW42070  13.347  11.233   8.582
80099SOL    HW142071  13.356  11.328   8.587
80099SOL    HW242072  13.253  11.217   8.588
80100SOL     OW42073   5.340   7.642   8.955
80100SOL    HW142074   5.402   7.622   8.885
80100SOL    HW242075   5.391   7.636   9.035
80101SOL     OW42076  11.154  14.296   2.209
80101SOL    HW142077  11.190  14.209   2.223
80101SOL    HW242078  11.086  14.284   2.143
80102SOL     OW42079   9.598   3.203   2.308
80102SOL    HW142080   9.568   3.290   2.282
80102SOL    HW242081   9.539   3.179   2.380
80103SOL     OW42082   9.967   7.140  10.828
80103SOL    HW142083   9.908   7.181  10.891
80103SOL    HW242084  10.037   7.205  10.816
80104SOL     OW42085   6.891   6.125   2.177
80104SOL    HW142086   6.805   6.088   2.198
80104SOL    HW242087   6.871   6.196   2.115
80105SOL     OW42088   5.984   1.859  12.639
80105SOL    HW142089   5.889   1.870  12.643
80105SOL    HW242090   6.016   1.940  12.599
80106SOL     OW42091   1.917   1.383   4.272
80106SOL    HW142092   1.847   1.351   4.329
80106SOL    HW242093   1.903   1.337   4.189
80107SOL     OW42094   4.685   1.175  13.107
80107SOL    HW142095   4.726   1.159  13.192
80107SOL    HW242096   4.738   1.245  13.068
80108SOL     OW42097   2.472   6.547   8.577
80108SOL    HW142098   2.539   6.517   8.515
80108SOL    HW242099   2.394   6.559   8.524
80109SOL     OW42100   1.266  11.565  14.805
80109SOL    HW142101   1.234  11.520   0.005
80109SOL    HW242102   1.318  11.638  14.839
80110SOL     OW42103  11.599   9.172   4.158
80110SOL    HW142104  11.647   9.243   4.116
80110SOL    HW242105  11.509   9.203   4.163
80111SOL     OW42106   9.887   2.846   0.544
80111SOL    HW142107   9.863   2.936   0.519
80111SOL    HW242108   9.813   2.815   0.595
80112SOL     OW42109   3.750   5.048  10.446
80112SOL    HW142110   3.801   5.116  10.401
80112SOL    HW242111   3.664   5.089  10.460
80113SOL     OW42112   4.876  12.595   2.581
80113SOL    HW142113   4.949  12.536   2.565
80113SOL    HW242114   4.916  12.675   2.616
80114SOL     OW42115   6.572  10.665   2.515
80114SOL    HW142116   6.617  10.664   2.431
80114SOL    HW242117   6.586  10.577   2.551
80115SOL     OW42118   7.124  11.520   9.093
80115SOL    HW142119   7.153  11.461   9.163
80115SOL    HW242120   7.131  11.468   9.014
80116SOL     OW42121   8.193  14.577   2.166
80116SOL    HW142122   8.257  14.512   2.136
80116SOL    HW242123   8.129  14.526   2.216
80117SOL     OW42124  10.640   0.582   0.864
80117SOL    HW142125  10.604   0.505   0.820
80117SOL    HW242126  10.706   0.615   0.804
80118SOL     OW42127   6.175   0.973  12.253
80118SOL    HW142128   6.148   1.062  12.275
80118SOL    HW242129   6.259   0.984  12.209
80119SOL     OW42130   8.479   4.106  13.601
80119SOL    HW142131   8.551   4.123  13.662
80119SOL    HW242132   8.517   4.120  13.514
80120SOL     OW42133   9.583  10.029   6.243
80120SOL    HW142134   9.588  10.109   6.295
80120SOL    HW242135   9.600  10.057   6.153
80121SOL     OW42136   0.486   1.465   7.509
80121SOL    HW142137   0.461   1.437   7.597
80121SOL    HW242138   0.433   1.542   7.492
80122SOL     OW42139   3.990   7.777  10.067
80122SOL    HW142140   3.991   7.871  10.052
80122SOL    HW242141   4.073   7.759  10.111
80123SOL     OW42142  12.542  12.517   2.292
80123SOL    HW142143  12.500  12.438   2.257
80123SOL    HW242144  12.484  12.589   2.265
80124SOL     OW42145  12.261  10.428   0.313
80124SOL    HW142146  12.245  10.337   0.336
80124SOL    HW242147  12.180  10.458   0.272
80125SOL     OW42148   1.175   9.015  14.857
80125SOL    HW142149   1.154   8.985  14.769
80125SOL    HW242150   1.121   8.961   0.037
80126SOL     OW42151   8.054  14.745   5.143
80126SOL    HW142152   8.129  14.782   5.097
80126SOL    HW242153   8.061  14.651   5.129
80127SOL     OW42154   4.576  13.480  12.582
80127SOL    HW142155   4.644  13.428  12.540
80127SOL    HW242156   4.604  13.487  12.673
80128SOL     OW42157   3.104   9.093  10.802
80128SOL    HW142158   3.142   9.011  10.769
80128SOL    HW242159   3.174   9.157  10.792
80129SOL     OW42160  11.890  11.753   6.435
80129SOL    HW142161  11.851  11.672   6.467
80129SOL    HW242162  11.817  11.814   6.427
80130SOL     OW42163   2.981  14.382  11.926
80130SOL    HW142164   3.054  14.423  11.879
80130SOL    HW242165   2.956  14.446  11.992
80131SOL     OW42166  13.000  10.716  14.279
80131SOL    HW142167  12.912  10.753  14.291
80131SOL    HW242168  13.050  10.785  14.235
80132SOL     OW42169   8.678  12.367  10.198
80132SOL    HW142170   8.630  12.317  10.132
80132SOL    HW242171   8.732  12.302  10.243
80133SOL     OW42172   9.093   1.176  12.728
80133SOL    HW142173   9.113   1.261  12.690
80133SOL    HW242174   9.165   1.159  12.789
80134SOL     OW42175  13.673   2.114   3.606
80134SOL    HW142176  13.738   2.162   3.658
80134SOL    HW242177  13.676   2.025   3.640
80135SOL     OW42178  14.272   5.276  12.550
80135SOL    HW142179  14.259   5.306  12.639
80135SOL    HW242180  14.363   5.298  12.530
80136SOL     OW42181   6.229  14.186  11.002
80136SOL    HW142182   6.147  14.185  10.951
80136SOL    HW242183   6.297  14.205  10.937
80137SOL     OW42184   7.163  11.947  12.600
80137SOL    HW142185   7.163  12.024  12.658
80137SOL    HW242186   7.101  11.887  12.641
80138SOL     OW42187   4.185   8.334   6.880
80138SOL    HW142188   4.211   8.243   6.872
80138SOL    HW242189   4.190   8.369   6.791
80139SOL     OW42190   6.912   4.410  11.141
80139SOL    HW142191   6.832   4.379  11.098
80139SOL    HW242192   6.900   4.505  11.149
80140SOL     OW42193  14.333   3.907   3.769
80140SOL    HW142194  14.367   3.985   3.725
80140SOL    HW242195  14.388   3.835   3.738
80141SOL     OW42196   6.663  12.024  11.860
80141SOL    HW142197   6.714  11.956  11.816
80141SOL    HW242198   6.716  12.050  11.935
80142SOL     OW42199   7.856   3.766   8.326
80142SOL    HW142200   7.904   3.747   8.245
80142SOL    HW242201   7.787   3.827   8.300
80143SOL     OW42202  13.656   4.538   4.258
80143SOL    HW142203  13.737   4.538   4.308
80143SOL    HW242204  13.604   4.468   4.297
80144SOL     OW42205  12.792   0.516  12.778
80144SOL    HW142206  12.708   0.473  12.795
80144SOL    HW242207  12.821   0.479  12.694
80145SOL     OW42208   6.187   6.474   4.680
80145SOL    HW142209   6.176   6.380   4.693
80145SOL    HW242210   6.099   6.505   4.659
80146SOL     OW42211   4.439   0.393  10.752
80146SOL    HW142212   4.449   0.308  10.796
80146SOL    HW242213   4.436   0.457  10.823
80147SOL     OW42214  10.997  12.464   7.941
80147SOL    HW142215  10.916  12.487   7.896
80147SOL    HW242216  10.968  12.419   8.020
80148SOL     OW42217   4.368  10.755   7.094
80148SOL    HW142218   4.412  10.795   7.169
80148SOL    HW242219   4.309  10.822   7.061
80149SOL     OW42220  14.428   1.247   7.158
80149SOL    HW142221  14.383   1.331   7.147
80149SOL    HW242222  14.520   1.267   7.141
80150SOL     OW42223   8.782  11.244   8.457
80150SOL    HW142224   8.703  11.291   8.483
80150SOL    HW242225   8.765  11.153   8.480
80151SOL     OW42226   9.931   0.228   3.591
80151SOL    HW142227  10.003   0.283   3.625
80151SOL    HW242228   9.956   0.210   3.500
80152SOL     OW42229  13.010   0.462   6.103
80152SOL    HW142230  12.918   0.478   6.081
80152SOL    HW242231  13.033   0.531   6.164
80153SOL     OW42232   4.834  10.817   6.879
80153SOL    HW142233   4.779  10.779   6.948
80153SOL    HW242234   4.889  10.744   6.850
80154SOL     OW42235  13.305  14.740   6.588
80154SOL    HW142236  13.395  14.774   6.586
80154SOL    HW242237  13.253  14.807   6.544
80155SOL     OW42238   2.687  13.222  10.846
80155SOL    HW142239   2.625  13.151  10.861
80155SOL    HW242240   2.744  13.221  10.923
80156SOL     OW42241   6.564  14.290   4.190
80156SOL    HW142242   6.512  14.260   4.116
80156SOL    HW242243   6.651  14.253   4.175
80157SOL     OW42244   6.135   4.699   7.934
80157SOL    HW142245   6.222   4.707   7.894
80157SOL    HW242246   6.153   4.679   8.026
80158SOL     OW42247   6.204   1.637   5.566
80158SOL    HW142248   6.214   1.718   5.617
80158SOL    HW242249   6.111   1.614   5.577
80159SOL     OW42250  14.483   4.612   8.313
80159SOL    HW142251  14.415   4.610   8.245
80159SOL    HW242252  14.519   4.700   8.307
80160SOL     OW42253  14.439   4.462  13.606
80160SOL    HW142254  14.364   4.469  13.548
80160SOL    HW242255  14.463   4.369  13.603
80161SOL     OW42256  12.002  11.538  14.025
80161SOL    HW142257  11.977  11.452  14.060
80161SOL    HW242258  11.919  11.576  13.994
80162SOL     OW42259   9.890  13.129  10.956
80162SOL    HW142260   9.808  13.080  10.955
80162SOL    HW242261   9.879  13.193  10.885
80163SOL     OW42262   1.679  13.413   3.410
80163SOL    HW142263   1.595  13.447   3.379
80163SOL    HW242264   1.685  13.325   3.374
80164SOL     OW42265  10.072  14.111   6.955
80164SOL    HW142266  10.088  14.205   6.951
80164SOL    HW242267   9.977  14.102   6.947
80165SOL     OW42268  13.966   3.164  10.977
80165SOL    HW142269  13.967   3.068  10.973
80165SOL    HW242270  13.979   3.192  10.886
80166SOL     OW42271   0.816   5.380   9.059
80166SOL    HW142272   0.824   5.384   9.155
80166SOL    HW242273   0.797   5.470   9.033
80167SOL     OW42274   7.705   6.978   5.158
80167SOL    HW142275   7.738   6.888   5.163
80167SOL    HW242276   7.705   6.999   5.065
80168SOL     OW42277   3.866   3.625   7.114
80168SOL    HW142278   3.845   3.667   7.197
80168SOL    HW242279   3.901   3.696   7.060
80169SOL     OW42280   7.738   3.093   9.044
80169SOL    HW142281   7.831   3.086   9.064
80169SOL    HW242282   7.733   3.094   8.949
80170SOL     OW42283   7.203   3.278   4.411
80170SOL    HW142284   7.253   3.205   4.448
80170SOL    HW242285   7.242   3.356   4.449
80171SOL     OW42286   7.332   5.210   0.697
80171SOL    HW142287   7.352   5.139   0.635
80171SOL    HW242288   7.238   5.201   0.714
80172SOL     OW42289   2.922   0.636  14.737
80172SOL    HW142290   2.969   0.607  14.816
80172SOL    HW242291   2.904   0.729  14.754
80173SOL     OW42292   4.137   2.621  10.285
80173SOL    HW142293   4.080   2.614  10.361
80173SOL    HW242294   4.170   2.532  10.272
80174SOL     OW42295   2.188   2.442   9.084
80174SOL    HW142296   2.134   2.410   9.012
80174SOL    HW242297   2.131   2.438   9.160
80175SOL     OW42298  10.356  10.164   4.148
80175SOL    HW142299  10.316  10.216   4.078
80175SOL    HW242300  10.369  10.078   4.109
80176SOL     OW42301   8.924  10.434   2.016
80176SOL    HW142302   8.996  10.421   2.078
80176SOL    HW242303   8.853  10.379   2.050
80177SOL     OW42304   7.874   9.855  12.358
80177SOL    HW142305   7.812   9.898  12.298
80177SOL    HW242306   7.868   9.906  12.439
80178SOL     OW42307   5.928   6.556   0.592
80178SOL    HW142308   5.953   6.563   0.684
80178SOL    HW242309   5.902   6.465   0.581
80179SOL     OW42310   2.147   5.108   5.901
80179SOL    HW142311   2.206   5.032   5.899
80179SOL    HW242312   2.061   5.073   5.879
80180SOL     OW42313  12.884  14.602  11.656
80180SOL    HW142314  12.841  14.580  11.574
80180SOL    HW242315  12.977  14.593  11.638
80181SOL     OW42316   6.985   8.129   6.400
80181SOL    HW142317   7.060   8.070   6.392
80181SOL    HW242318   6.983   8.178   6.318
80182SOL     OW42319  14.423   3.846  10.398
80182SOL    HW142320  14.362   3.786  10.354
80182SOL    HW242321  14.454   3.796  10.474
80183SOL     OW42322   4.631   8.330   0.969
80183SOL    HW142323   4.606   8.396   1.034
80183SOL    HW242324   4.726   8.322   0.979
80184SOL     OW42325   3.732  13.703  14.113
80184SOL    HW142326   3.765  13.735  14.030
80184SOL    HW242327   3.779  13.621  14.128
80185SOL     OW42328  14.842  13.842  14.078
80185SOL    HW142329  14.855  13.784  14.004
80185SOL    HW242330   0.024  13.810  14.145
80186SOL     OW42331  11.884  14.763  11.187
80186SOL    HW142332  11.971  14.804  11.188
80186SOL    HW242333  11.899  14.675  11.155
80187SOL     OW42334   5.302   1.706   5.476
80187SOL    HW142335   5.289   1.622   5.521
80187SOL    HW242336   5.219   1.752   5.487
80188SOL     OW42337   0.366   8.904   7.034
80188SOL    HW142338   0.451   8.949   7.030
80188SOL    HW242339   0.302   8.975   7.044
80189SOL     OW42340  11.262  13.085   7.598
80189SOL    HW142341  11.346  13.129   7.599
80189SOL    HW242342  11.218  13.113   7.678
80190SOL     OW42343  12.646   9.487  11.155
80190SOL    HW142344  12.558   9.482  11.117
80190SOL    HW242345  12.690   9.554  11.103
80191SOL     OW42346  14.158   4.836  12.214
80191SOL    HW142347  14.236   4.797  12.173
80191SOL    HW242348  14.193   4.884  12.290
80192SOL     OW42349   7.465  11.872  14.051
80192SOL    HW142350   7.500  11.891  14.138
80192SOL    HW242351   7.509  11.935  13.994
80193SOL     OW42352   1.042   0.927   0.906
80193SOL    HW142353   0.969   0.912   0.845
80193SOL    HW242354   1.119   0.935   0.849
80194SOL     OW42355  12.237   5.816  10.009
80194SOL    HW142356  12.261   5.804   9.917
80194SOL    HW242357  12.319   5.843  10.052
80195SOL     OW42358  12.226   0.289   3.476
80195SOL    HW142359  12.200   0.377   3.449
80195SOL    HW242360  12.145   0.239   3.478
80196SOL     OW42361  13.627   7.511   8.192
80196SOL    HW142362  13.593   7.520   8.103
80196SOL    HW242363  13.628   7.417   8.209
80197SOL     OW42364  12.750   7.009   5.913
80197SOL    HW142365  12.707   6.947   5.854
80197SOL    HW242366  12.742   6.969   5.999
80198SOL     OW42367   7.083  10.412   4.264
80198SOL    HW142368   7.170  10.380   4.242
80198SOL    HW242369   7.099  10.490   4.317
80199SOL     OW42370  11.998   8.672   8.626
80199SOL    HW142371  12.091   8.664   8.647
80199SOL    HW242372  11.960   8.715   8.703
80200SOL     OW42373  12.576   8.257   0.677
80200SOL    HW142374  12.550   8.310   0.752
80200SOL    HW242375  12.597   8.171   0.714
80201SOL     OW42376   3.740   5.685  14.514
80201SOL    HW142377   3.691   5.627  14.572
80201SOL    HW242378   3.832   5.667  14.535
80202SOL     OW42379   3.461   1.287   7.381
80202SOL    HW142380   3.380   1.304   7.333
80202SOL    HW242381   3.475   1.366   7.433
80203SOL     OW42382   0.824   3.239   6.382
80203SOL    HW142383   0.841   3.180   6.456
80203SOL    HW242384   0.750   3.199   6.336
80204SOL     OW42385   0.417  13.730  12.609
80204SOL    HW142386   0.378  13.789  12.674
80204SOL    HW242387   0.406  13.775  12.525
80205SOL     OW42388   3.087  10.969  12.309
80205SOL    HW142389   3.058  11.058  12.329
80205SOL    HW242390   3.033  10.913  12.364
80206SOL     OW42391   9.519   4.269   2.783
80206SOL    HW142392   9.481   4.356   2.795
80206SOL    HW242393   9.499   4.246   2.693
80207SOL     OW42394   8.500   1.116   6.952
80207SOL    HW142395   8.567   1.183   6.944
80207SOL    HW242396   8.543   1.043   6.996
80208SOL     OW42397  14.588  13.732  13.204
80208SOL    HW142398  14.541  13.650  13.216
80208SOL    HW242399  14.519  13.798  13.196
80209SOL     OW42400   8.231   2.314   2.412
80209SOL    HW142401   8.162   2.366   2.371
80209SOL    HW242402   8.306   2.322   2.353
80210SOL     OW42403  11.683   6.722   0.222
80210SOL    HW142404  11.626   6.668   0.277
80210SOL    HW242405  11.772   6.693   0.242
80211SOL     OW42406   4.874   5.868   6.407
80211SOL    HW142407   4.929   5.936   6.444
80211SOL    HW242408   4.915   5.848   6.322
80212SOL     OW42409   3.130   3.902   8.161
80212SOL    HW142410   3.094   3.991   8.162
80212SOL    HW242411   3.170   3.891   8.247
80213SOL     OW42412  13.464   1.676  10.989
80213SOL    HW142413  13.554   1.652  11.011
80213SOL    HW242414  13.426   1.597  10.951
80214SOL     OW42415   8.294   6.247   5.283
80214SOL    HW142416   8.212   6.293   5.266
80214SOL    HW242417   8.332   6.291   5.359
80215SOL     OW42418   8.888   1.225   6.062
80215SOL    HW142419   8.943   1.147   6.068
80215SOL    HW242420   8.948   1.298   6.080
80216SOL     OW42421   3.728  10.694  11.301
80216SOL    HW142422   3.664  10.756  11.267
80216SOL    HW242423   3.704  10.610  11.261
80217SOL     OW42424  13.161   9.434   9.757
80217SOL    HW142425  13.156   9.377   9.834
80217SOL    HW242426  13.188   9.519   9.791
80218SOL     OW42427  12.639   5.015  12.645
80218SOL    HW142428  12.668   4.979  12.728
80218SOL    HW242429  12.576   5.083  12.669
80219SOL     OW42430   5.478  10.109   2.886
80219SOL    HW142431   5.512  10.146   2.805
80219SOL    HW242432   5.554  10.069   2.927
80220SOL     OW42433  14.299  10.144  14.507
80220SOL    HW142434  14.393  10.161  14.515
80220SOL    HW242435  14.281  10.076  14.572
80221SOL     OW42436  12.845   9.219   7.691
80221SOL    HW142437  12.849   9.298   7.638
80221SOL    HW242438  12.832   9.251   7.781
80222SOL     OW42439   9.575   6.859   3.277
80222SOL    HW142440   9.620   6.890   3.356
80222SOL    HW242441   9.574   6.935   3.219
80223SOL     OW42442   3.304   7.386   1.423
80223SOL    HW142443   3.339   7.311   1.470
80223SOL    HW242444   3.376   7.418   1.369
80224SOL     OW42445   0.204   4.155   5.252
80224SOL    HW142446   0.132   4.210   5.280
80224SOL    HW242447   0.178   4.066   5.277
80225SOL     OW42448   0.931   6.524   4.998
80225SOL    HW142449   0.882   6.606   5.008
80225SOL    HW242450   0.871   6.457   5.033
80226SOL     OW42451   3.209   4.737   8.204
80226SOL    HW142452   3.130   4.737   8.257
80226SOL    HW242453   3.279   4.715   8.265
80227SOL     OW42454  14.642   8.188  11.885
80227SOL    HW142455  14.589   8.212  11.809
80227SOL    HW242456  14.641   8.092  11.885
80228SOL     OW42457  13.468   1.768   3.132
80228SOL    HW142458  13.402   1.808   3.189
80228SOL    HW242459  13.542   1.750   3.189
80229SOL     OW42460   9.981   5.752  13.510
80229SOL    HW142461   9.969   5.795  13.595
80229SOL    HW242462  10.050   5.688  13.525
80230SOL     OW42463   9.085   6.955  11.469
80230SOL    HW142464   9.088   6.999  11.554
80230SOL    HW242465   9.166   6.981  11.425
80231SOL     OW42466  11.834   9.900  10.647
80231SOL    HW142467  11.745   9.894  10.611
80231SOL    HW242468  11.846   9.818  10.695
80232SOL     OW42469   4.960   6.811  13.413
80232SOL    HW142470   4.976   6.903  13.432
80232SOL    HW242471   4.867   6.807  13.392
80233SOL     OW42472   0.963  10.651  13.249
80233SOL    HW142473   0.976  10.666  13.155
80233SOL    HW242474   1.032  10.590  13.273
80234SOL     OW42475  10.703   8.065   5.869
80234SOL    HW142476  10.634   8.023   5.819
80234SOL    HW242477  10.660   8.140   5.911
80235SOL     OW42478  10.846   3.557   0.462
80235SOL    HW142479  10.875   3.579   0.550
80235SOL    HW242480  10.926   3.556   0.410
80236SOL     OW42481   0.621   0.992   7.570
80236SOL    HW142482   0.621   1.082   7.600
80236SOL    HW242483   0.709   0.979   7.533
80237SOL     OW42484   1.172  12.584   6.639
80237SOL    HW142485   1.222  12.504   6.623
80237SOL    HW242486   1.081  12.559   6.624
80238SOL     OW42487  14.820   6.783   2.603
80238SOL    HW142488   0.012   6.739   2.651
80238SOL    HW242489  14.859   6.865   2.572
80239SOL     OW42490  14.375  10.262   1.863
80239SOL    HW142491  14.455  10.222   1.829
80239SOL    HW242492  14.304  10.212   1.821
80240SOL     OW42493   9.447   6.948   5.318
80240SOL    HW142494   9.393   7.024   5.342
80240SOL    HW242495   9.525   6.955   5.374
80241SOL     OW42496  10.928   5.083   5.633
80241SOL    HW142497  10.839   5.116   5.649
80241SOL    HW242498  10.936   5.007   5.690
80242SOL     OW42499   0.767   5.978   6.252
80242SOL    HW142500   0.749   5.891   6.286
80242SOL    HW242501   0.720   6.038   6.310
80243SOL     OW42502   5.015   6.706   0.732
80243SOL    HW142503   5.097   6.744   0.700
80243SOL    HW242504   5.043   6.640   0.796
80244SOL     OW42505   7.913   3.790   9.200
80244SOL    HW142506   7.930   3.882   9.221
80244SOL    HW242507   7.938   3.742   9.279
80245SOL     OW42508  14.390  13.763  12.023
80245SOL    HW142509  14.417  13.814  11.946
80245SOL    HW242510  14.338  13.823  12.074
80246SOL     OW42511   7.553  12.617   9.478
80246SOL    HW142512   7.511  12.619   9.564
80246SOL    HW242513   7.480  12.611   9.416
80247SOL     OW42514   1.480   9.843  14.097
80247SOL    HW142515   1.560   9.874  14.055
80247SOL    HW242516   1.493   9.862  14.190
80248SOL     OW42517   8.290   1.640   4.925
80248SOL    HW142518   8.227   1.595   4.868
80248SOL    HW242519   8.275   1.733   4.908
80249SOL     OW42520   0.283   8.429   7.950
80249SOL    HW142521   0.270   8.518   7.983
80249SOL    HW242522   0.340   8.440   7.875
80250SOL     OW42523   9.999  13.680  13.105
80250SOL    HW142524  10.035  13.681  13.193
80250SOL    HW242525  10.075  13.678  13.047
80251SOL     OW42526  11.336   4.568   4.182
80251SOL    HW142527  11.250   4.605   4.200
80251SOL    HW242528  11.382   4.638   4.135
80252SOL     OW42529  10.952  10.541   6.163
80252SOL    HW142530  10.997  10.458   6.156
80252SOL    HW242531  10.860  10.517   6.179
80253SOL     OW42532   6.952   4.041   0.915
80253SOL    HW142533   7.012   4.008   0.848
80253SOL    HW242534   7.005   4.103   0.966
80254SOL     OW42535   7.087   8.642   4.050
80254SOL    HW142536   7.099   8.723   4.100
80254SOL    HW242537   7.176   8.606   4.042
80255SOL     OW42538  10.037  14.018   5.736
80255SOL    HW142539   9.974  14.049   5.801
80255SOL    HW242540  10.095  14.093   5.720
80256SOL     OW42541  10.530  11.751   1.443
80256SOL    HW142542  10.518  11.675   1.385
80256SOL    HW242543  10.625  11.765   1.443
80257SOL     OW42544   4.874   2.194   7.354
80257SOL    HW142545   4.900   2.119   7.300
80257SOL    HW242546   4.851   2.155   7.438
80258SOL     OW42547   8.454   9.448   5.459
80258SOL    HW142548   8.386   9.399   5.506
80258SOL    HW242549   8.529   9.389   5.457
80259SOL     OW42550  11.881   2.770   2.754
80259SOL    HW142551  11.941   2.802   2.822
80259SOL    HW242552  11.818   2.716   2.801
80260SOL     OW42553  10.204   7.399   5.606
80260SOL    HW142554  10.189   7.443   5.522
80260SOL    HW242555  10.220   7.307   5.583
80261SOL     OW42556  13.960   5.707   2.163
80261SOL    HW142557  13.916   5.785   2.198
80261SOL    HW242558  13.928   5.700   2.073
80262SOL     OW42559   8.276   9.644   4.169
80262SOL    HW142560   8.348   9.707   4.160
80262SOL    HW242561   8.197   9.695   4.150
80263SOL     OW42562   6.844   5.252   0.010
80263SOL    HW142563   6.921   5.268  14.834
80263SOL    HW242564   6.828   5.335   0.055
80264SOL     OW42565  13.742  14.848  11.971
80264SOL    HW142566  13.775  14.810  12.053
80264SOL    HW242567  13.672   0.030  12.000
80265SOL     OW42568  11.408   3.651  13.083
80265SOL    HW142569  11.444   3.738  13.066
80265SOL    HW242570  11.472   3.609  13.142
80266SOL     OW42571   9.952  14.110   1.290
80266SOL    HW142572  10.042  14.090   1.264
80266SOL    HW242573   9.960  14.187   1.347
80267SOL     OW42574  13.471  10.220  12.191
80267SOL    HW142575  13.510  10.135  12.172
80267SOL    HW242576  13.447  10.255  12.106
80268SOL     OW42577   1.536  11.459  13.317
80268SOL    HW142578   1.507  11.369  13.304
80268SOL    HW242579   1.631  11.456  13.308
80269SOL     OW42580   8.703   8.489  10.088
80269SOL    HW142581   8.699   8.394  10.092
80269SOL    HW242582   8.792   8.509  10.057
80270SOL     OW42583   2.564   0.605  12.071
80270SOL    HW142584   2.643   0.630  12.023
80270SOL    HW242585   2.510   0.559  12.006
80271SOL     OW42586  12.197   3.435   8.715
80271SOL    HW142587  12.239   3.452   8.631
80271SOL    HW242588  12.144   3.514   8.731
80272SOL     OW42589   9.115   5.536   8.235
80272SOL    HW142590   9.192   5.528   8.178
80272SOL    HW242591   9.046   5.568   8.177
80273SOL     OW42592   4.730   3.420  14.012
80273SOL    HW142593   4.737   3.483  13.941
80273SOL    HW242594   4.794   3.449  14.077
80274SOL     OW42595   8.763  10.664   4.448
80274SOL    HW142596   8.811  10.621   4.518
80274SOL    HW242597   8.671  10.646   4.468
80275SOL     OW42598   8.945   2.436  10.795
80275SOL    HW142599   8.897   2.411  10.874
80275SOL    HW242600   8.888   2.409  10.723
80276SOL     OW42601   0.294  12.620  11.587
80276SOL    HW142602   0.378  12.619  11.541
80276SOL    HW242603   0.296  12.702  11.637
80277SOL     OW42604   2.692   1.728  10.971
80277SOL    HW142605   2.785   1.708  10.965
80277SOL    HW242606   2.687   1.823  10.963
80278SOL     OW42607   0.478  12.143  14.407
80278SOL    HW142608   0.383  12.149  14.401
80278SOL    HW242609   0.510  12.212  14.349
80279SOL     OW42610   1.619   5.669   6.917
80279SOL    HW142611   1.609   5.687   7.010
80279SOL    HW242612   1.631   5.574   6.912
80280SOL     OW42613  11.030   3.590  12.325
80280SOL    HW142614  11.012   3.497  12.310
80280SOL    HW242615  10.945   3.627  12.349
80281SOL     OW42616   5.436  13.094  13.770
80281SOL    HW142617   5.436  13.003  13.742
80281SOL    HW242618   5.362  13.134  13.724
80282SOL     OW42619   9.531   7.084   9.313
80282SOL    HW142620   9.481   7.060   9.235
80282SOL    HW242621   9.579   7.005   9.336
80283SOL     OW42622  12.963   9.617   0.284
80283SOL    HW142623  12.943   9.646   0.195
80283SOL    HW242624  12.895   9.657   0.338
80284SOL     OW42625   0.562  10.582   9.524
80284SOL    HW142626   0.608  10.519   9.468
80284SOL    HW242627   0.632  10.627   9.572
80285SOL     OW42628   9.236   0.709  14.802
80285SOL    HW142629   9.148   0.675  14.786
80285SOL    HW242630   9.279   0.641  14.853
80286SOL     OW42631   1.346   7.396  12.208
80286SOL    HW142632   1.440   7.411  12.203
80286SOL    HW242633   1.312   7.468  12.261
80287SOL     OW42634   9.375   2.788  13.092
80287SOL    HW142635   9.332   2.705  13.115
80287SOL    HW242636   9.374   2.790  12.996
80288SOL     OW42637   9.536   2.003   1.448
80288SOL    HW142638   9.520   1.962   1.532
80288SOL    HW242639   9.498   1.943   1.384
80289SOL     OW42640   8.455  12.728   1.709
80289SOL    HW142641   8.450  12.760   1.799
80289SOL    HW242642   8.384  12.663   1.703
80290SOL     OW42643   2.249  13.947   4.642
80290SOL    HW142644   2.275  14.033   4.675
80290SOL    HW242645   2.159  13.959   4.612
80291SOL     OW42646   1.217   5.444   5.103
80291SOL    HW142647   1.203   5.531   5.142
80291SOL    HW242648   1.218   5.460   5.009
80292SOL     OW42649   5.650   1.466   2.617
80292SOL    HW142650   5.557   1.449   2.632
80292SOL    HW242651   5.695   1.423   2.690
80293SOL     OW42652  10.409  10.646   5.130
80293SOL    HW142653  10.352  10.569   5.127
80293SOL    HW242654  10.364  10.711   5.075
80294SOL     OW42655   3.941   2.167  14.788
80294SOL    HW142656   3.866   2.155  14.848
80294SOL    HW242657   3.903   2.159  14.701
80295SOL     OW42658   9.514   3.997   8.583
80295SOL    HW142659   9.504   4.070   8.644
80295SOL    HW242660   9.558   4.036   8.507
80296SOL     OW42661  14.155  10.007   7.182
80296SOL    HW142662  14.062  10.002   7.161
80296SOL    HW242663  14.167   9.951   7.258
80297SOL     OW42664   5.792   0.118  14.219
80297SOL    HW142665   5.822   0.057  14.287
80297SOL    HW242666   5.849   0.195  14.229
80298SOL     OW42667   3.635   1.207   6.942
80298SOL    HW142668   3.622   1.270   7.013
80298SOL    HW242669   3.719   1.165   6.963
80299SOL     OW42670   4.835  11.570   7.860
80299SOL    HW142671   4.775  11.602   7.793
80299SOL    HW242672   4.779  11.553   7.936
80300SOL     OW42673   2.317   1.080   5.267
80300SOL    HW142674   2.314   0.985   5.272
80300SOL    HW242675   2.369   1.099   5.188
80301SOL     OW42676  10.390   5.426   6.189
80301SOL    HW142677  10.313   5.425   6.131
80301SOL    HW242678  10.361   5.475   6.266
80302SOL     OW42679   1.894   4.272  12.438
80302SOL    HW142680   1.878   4.340  12.503
80302SOL    HW242681   1.966   4.220  12.474
80303SOL     OW42682   8.468   8.438  14.359
80303SOL    HW142683   8.512   8.405  14.437
80303SOL    HW242684   8.385   8.390  14.355
80304SOL     OW42685   7.269   0.241   6.164
80304SOL    HW142686   7.288   0.323   6.209
80304SOL    HW242687   7.318   0.175   6.211
80305SOL     OW42688   7.226  10.582   8.163
80305SOL    HW142689   7.140  10.541   8.167
80305SOL    HW242690   7.212  10.663   8.113
80306SOL     OW42691  14.006   2.195  10.249
80306SOL    HW142692  14.080   2.134  10.256
80306SOL    HW242693  14.035   2.274  10.295
80307SOL     OW42694   7.332  13.908   5.419
80307SOL    HW142695   7.314  13.849   5.492
80307SOL    HW242696   7.249  13.955   5.406
80308SOL     OW42697   6.157  10.559   7.089
80308SOL    HW142698   6.207  10.521   7.017
80308SOL    HW242699   6.223  10.600   7.145
80309SOL     OW42700   3.722  14.584   0.910
80309SOL    HW142701   3.741  14.515   0.974
80309SOL    HW242702   3.728  14.665   0.960
80310SOL     OW42703   5.328   6.594   0.535
80310SOL    HW142704   5.269   6.665   0.509
80310SOL    HW242705   5.415   6.626   0.511
80311SOL     OW42706   1.307   8.459  10.999
80311SOL    HW142707   1.225   8.507  11.011
80311SOL    HW242708   1.287   8.369  11.026
80312SOL     OW42709  12.471   9.341   2.509
80312SOL    HW142710  12.562   9.358   2.531
80312SOL    HW242711  12.461   9.246   2.522
80313SOL     OW42712   6.668   6.066   4.990
80313SOL    HW142713   6.694   5.998   5.053
80313SOL    HW242714   6.573   6.058   4.984
80314SOL     OW42715   2.659   4.980  11.449
80314SOL    HW142716   2.572   4.961  11.414
80314SOL    HW242717   2.674   5.072  11.428
80315SOL     OW42718  12.307   0.443   0.719
80315SOL    HW142719  12.275   0.464   0.631
80315SOL    HW242720  12.312   0.347   0.720
80316SOL     OW42721   5.209  13.098  12.747
80316SOL    HW142722   5.195  13.003  12.748
80316SOL    HW242723   5.224  13.121  12.838
80317SOL     OW42724   1.555   1.210   6.149
80317SOL    HW142725   1.495   1.269   6.103
80317SOL    HW242726   1.515   1.197   6.235
80318SOL     OW42727   0.617   1.319   9.161
80318SOL    HW142728   0.613   1.303   9.067
80318SOL    HW242729   0.694   1.373   9.174
80319SOL     OW42730   4.354   8.845   9.156
80319SOL    HW142731   4.298   8.768   9.145
80319SOL    HW242732   4.441   8.809   9.172
80320SOL     OW42733   3.145   8.418   5.255
80320SOL    HW142734   3.240   8.408   5.245
80320SOL    HW242735   3.113   8.435   5.166
80321SOL     OW42736   5.438  14.865   9.153
80321SOL    HW142737   5.496   0.054   9.115
80321SOL    HW242738   5.458  14.786   9.103
80322SOL     OW42739  14.533  12.573   5.026
80322SOL    HW142740  14.576  12.492   5.054
80322SOL    HW242741  14.449  12.545   4.990
80323SOL     OW42742   4.606   3.015   0.637
80323SOL    HW142743   4.556   3.023   0.718
80323SOL    HW242744   4.555   3.065   0.572
80324SOL     OW42745   2.308   6.223  12.899
80324SOL    HW142746   2.243   6.204  12.966
80324SOL    HW242747   2.267   6.291  12.844
80325SOL     OW42748  10.046  14.030   8.785
80325SOL    HW142749   9.999  13.975   8.722
80325SOL    HW242750   9.998  14.113   8.785
80326SOL     OW42751  10.899   6.393   8.485
80326SOL    HW142752  10.922   6.335   8.557
80326SOL    HW242753  10.808   6.371   8.465
80327SOL     OW42754   1.926  10.090  12.097
80327SOL    HW142755   1.907  10.013  12.150
80327SOL    HW242756   1.965  10.153  12.157
80328SOL     OW42757   3.650   9.770   0.640
80328SOL    HW142758   3.559   9.785   0.611
80328SOL    HW242759   3.703   9.798   0.566
80329SOL     OW42760  10.380  12.209   7.733
80329SOL    HW142761  10.380  12.148   7.806
80329SOL    HW242762  10.472  12.220   7.709
80330SOL     OW42763   6.402   1.891  12.835
80330SOL    HW142764   6.379   1.926  12.749
80330SOL    HW242765   6.350   1.812  12.844
80331SOL     OW42766   1.656   1.147   5.556
80331SOL    HW142767   1.572   1.105   5.574
80331SOL    HW242768   1.651   1.173   5.464
80332SOL     OW42769   2.031   3.045  13.803
80332SOL    HW142770   1.974   2.969  13.795
80332SOL    HW242771   2.053   3.069  13.712
80333SOL     OW42772   6.201   9.209   8.559
80333SOL    HW142773   6.220   9.172   8.645
80333SOL    HW242774   6.141   9.282   8.576
80334SOL     OW42775   1.777   9.275   7.944
80334SOL    HW142776   1.823   9.206   7.993
80334SOL    HW242777   1.692   9.236   7.923
80335SOL     OW42778  13.660  13.785   4.351
80335SOL    HW142779  13.714  13.824   4.282
80335SOL    HW242780  13.701  13.701   4.369
80336SOL     OW42781   2.199   2.800  13.983
80336SOL    HW142782   2.108   2.778  14.003
80336SOL    HW242783   2.251   2.743  14.041
80337SOL     OW42784  12.189   2.140   3.679
80337SOL    HW142785  12.167   2.069   3.619
80337SOL    HW242786  12.225   2.096   3.756
80338SOL     OW42787  14.836  10.932   1.797
80338SOL    HW142788  14.831  10.850   1.747
80338SOL    HW242789  14.865  10.905   1.884
80339SOL     OW42790   7.671  14.377   9.138
80339SOL    HW142791   7.678  14.283   9.151
80339SOL    HW242792   7.716  14.415   9.214
80340SOL     OW42793   3.700   1.970  14.305
80340SOL    HW142794   3.744   1.885  14.299
80340SOL    HW242795   3.608   1.948  14.318
80341SOL     OW42796   5.534   9.318   3.541
80341SOL    HW142797   5.578   9.242   3.503
80341SOL    HW242798   5.593   9.350   3.608
80342SOL     OW42799  14.496  11.605   5.762
80342SOL    HW142800  14.574  11.552   5.744
80342SOL    HW242801  14.450  11.558   5.831
80343SOL     OW42802  13.406  12.220  14.035
80343SOL    HW142803  13.412  12.164  13.957
80343SOL    HW242804  13.350  12.170  14.095
80344SOL     OW42805   9.671   2.347   6.441
80344SOL    HW142806   9.697   2.361   6.532
80344SOL    HW242807   9.698   2.427   6.396
80345SOL     OW42808   4.583  13.539   5.953
80345SOL    HW142809   4.537  13.473   5.900
80345SOL    HW242810   4.514  13.583   6.002
80346SOL     OW42811  10.611   2.884   3.963
80346SOL    HW142812  10.669   2.937   3.908
80346SOL    HW242813  10.593   2.940   4.039
80347SOL     OW42814  13.229   0.793   4.251
80347SOL    HW142815  13.165   0.781   4.181
80347SOL    HW242816  13.229   0.710   4.298
80348SOL     OW42817  13.546   8.902   1.935
80348SOL    HW142818  13.581   8.940   2.016
80348SOL    HW242819  13.558   8.808   1.946
80349SOL     OW42820  11.004   5.735   3.437
80349SOL    HW142821  10.947   5.752   3.362
80349SOL    HW242822  11.013   5.639   3.438
80350SOL     OW42823   8.815   7.462   9.189
80350SOL    HW142824   8.749   7.394   9.182
80350SOL    HW242825   8.888   7.420   9.235
80351SOL     OW42826  14.530   0.922   5.351
80351SOL    HW142827  14.481   0.893   5.428
80351SOL    HW242828  14.471   0.983   5.306
80352SOL     OW42829   8.218   7.606  12.977
80352SOL    HW142830   8.265   7.545  13.034
80352SOL    HW242831   8.250   7.693  13.003
80353SOL     OW42832   0.456  14.350   1.565
80353SOL    HW142833   0.537  14.398   1.547
80353SOL    HW242834   0.449  14.287   1.493
80354SOL     OW42835   6.424  12.189   5.551
80354SOL    HW142836   6.337  12.170   5.584
80354SOL    HW242837   6.482  12.137   5.607
80355SOL     OW42838   1.597   0.763  13.371
80355SOL    HW142839   1.668   0.826  13.359
80355SOL    HW242840   1.602   0.705  13.295
80356SOL     OW42841   3.261   4.666  11.502
80356SOL    HW142842   3.224   4.691  11.418
80356SOL    HW242843   3.347   4.629  11.481
80357SOL     OW42844  13.888   1.488   8.858
80357SOL    HW142845  13.894   1.506   8.765
80357SOL    HW242846  13.968   1.527   8.895
80358SOL     OW42847   6.299   4.076  14.618
80358SOL    HW142848   6.266   4.045  14.702
80358SOL    HW242849   6.382   4.118  14.638
80359SOL     OW42850  11.518   3.823   9.288
80359SOL    HW142851  11.514   3.904   9.339
80359SOL    HW242852  11.600   3.782   9.316
80360SOL     OW42853   1.014   3.911  14.646
80360SOL    HW142854   1.094   3.946  14.686
80360SOL    HW242855   0.956   3.894  14.719
80361SOL     OW42856   5.266   4.297   7.282
80361SOL    HW142857   5.262   4.217   7.335
80361SOL    HW242858   5.178   4.307   7.247
80362SOL     OW42859   6.570  14.529   4.347
80362SOL    HW142860   6.550  14.450   4.296
80362SOL    HW242861   6.657  14.556   4.318
80363SOL     OW42862  10.387   6.956  13.145
80363SOL    HW142863  10.397   6.904  13.225
80363SOL    HW242864  10.470   6.945  13.099
80364SOL     OW42865   9.299  13.458  14.078
80364SOL    HW142866   9.298  13.429  14.169
80364SOL    HW242867   9.208  13.483  14.060
80365SOL     OW42868  11.297   2.686  10.313
80365SOL    HW142869  11.260   2.608  10.271
80365SOL    HW242870  11.304   2.749  10.242
80366SOL     OW42871   7.969   7.520   0.356
80366SOL    HW142872   8.038   7.475   0.307
80366SOL    HW242873   8.014   7.590   0.403
80367SOL     OW42874   0.605   3.778   0.824
80367SOL    HW142875   0.658   3.777   0.744
80367SOL    HW242876   0.584   3.686   0.839
80368SOL     OW42877  12.434  10.754   9.795
80368SOL    HW142878  12.459  10.842   9.822
80368SOL    HW242879  12.442  10.755   9.699
80369SOL     OW42880   2.558   3.424   6.545
80369SOL    HW142881   2.512   3.354   6.498
80369SOL    HW242882   2.579   3.488   6.477
80370SOL     OW42883  11.829   8.818   5.398
80370SOL    HW142884  11.840   8.864   5.314
80370SOL    HW242885  11.745   8.850   5.431
80371SOL     OW42886  12.593   1.118   8.385
80371SOL    HW142887  12.577   1.165   8.303
80371SOL    HW242888  12.619   1.030   8.357
80372SOL     OW42889   9.901   4.936   9.596
80372SOL    HW142890   9.912   4.904   9.507
80372SOL    HW242891   9.896   4.856   9.650
80373SOL     OW42892  13.540   3.039   3.104
80373SOL    HW142893  13.601   2.981   3.150
80373SOL    HW242894  13.496   2.983   3.041
80374SOL     OW42895  14.399   0.603   9.983
80374SOL    HW142896  14.427   0.580  10.072
80374SOL    HW242897  14.446   0.541   9.927
80375SOL     OW42898  11.723   0.352   9.178
80375SOL    HW142899  11.807   0.373   9.220
80375SOL    HW242900  11.721   0.256   9.175
80376SOL     OW42901   5.964   5.769   6.976
80376SOL    HW142902   5.893   5.756   7.039
80376SOL    HW242903   5.957   5.861   6.950
80377SOL     OW42904   7.723   3.193   7.939
80377SOL    HW142905   7.776   3.133   7.991
80377SOL    HW242906   7.774   3.274   7.938
80378SOL     OW42907   2.685   3.401   9.240
80378SOL    HW142908   2.683   3.473   9.176
80378SOL    HW242909   2.658   3.324   9.190
80379SOL     OW42910  14.222   8.839   6.606
80379SOL    HW142911  14.199   8.793   6.687
80379SOL    HW242912  14.176   8.923   6.612
80380SOL     OW42913  12.683   2.650  14.539
80380SOL    HW142914  12.706   2.686  14.454
80380SOL    HW242915  12.663   2.558  14.522
80381SOL     OW42916   1.939   3.214   1.634
80381SOL    HW142917   1.879   3.143   1.610
80381SOL    HW242918   1.881   3.284   1.665
80382SOL     OW42919  10.915   2.733  11.461
80382SOL    HW142920  10.931   2.763  11.550
80382SOL    HW242921  10.841   2.786  11.430
80383SOL     OW42922   7.776  10.055  13.605
80383SOL    HW142923   7.780  10.008  13.689
80383SOL    HW242924   7.849  10.020  13.555
80384SOL     OW42925  12.657   5.694  13.903
80384SOL    HW142926  12.619   5.782  13.897
80384SOL    HW242927  12.746   5.704  13.868
80385SOL     OW42928  14.786   1.329   6.896
80385SOL    HW142929  14.861   1.388   6.892
80385SOL    HW242930  14.721   1.378   6.946
80386SOL     OW42931   1.644   6.167  13.819
80386SOL    HW142932   1.729   6.153  13.776
80386SOL    HW242933   1.588   6.201  13.750
80387SOL     OW42934   3.265  12.792   3.935
80387SOL    HW142935   3.301  12.787   4.024
80387SOL    HW242936   3.338  12.824   3.882
80388SOL     OW42937   6.892   7.728   1.209
80388SOL    HW142938   6.889   7.633   1.196
80388SOL    HW242939   6.802   7.753   1.230
80389SOL     OW42940   1.762   4.657  10.900
80389SOL    HW142941   1.703   4.592  10.862
80389SOL    HW242942   1.849   4.620  10.889
80390SOL     OW42943   9.553   9.121   8.519
80390SOL    HW142944   9.498   9.054   8.561
80390SOL    HW242945   9.496   9.161   8.453
80391SOL     OW42946   2.879   4.608   5.614
80391SOL    HW142947   2.935   4.611   5.692
80391SOL    HW242948   2.802   4.559   5.643
80392SOL     OW42949  13.103  12.225   2.253
80392SOL    HW142950  13.052  12.165   2.200
80392SOL    HW242951  13.087  12.311   2.214
80393SOL     OW42952  12.885  11.257  14.410
80393SOL    HW142953  12.834  11.326  14.454
80393SOL    HW242954  12.976  11.285  14.422
80394SOL     OW42955  14.528   2.313   6.305
80394SOL    HW142956  14.593   2.379   6.279
80394SOL    HW242957  14.580   2.234   6.323
80395SOL     OW42958   0.179   8.675  13.374
80395SOL    HW142959   0.152   8.731  13.301
80395SOL    HW242960   0.105   8.676  13.434
80396SOL     OW42961   7.596  11.874  12.803
80396SOL    HW142962   7.582  11.963  12.771
80396SOL    HW242963   7.674  11.843  12.756
80397SOL     OW42964  10.971   6.561   5.642
80397SOL    HW142965  11.037   6.575   5.710
80397SOL    HW242966  10.958   6.466   5.641
80398SOL     OW42967  12.587   0.506  13.104
80398SOL    HW142968  12.603   0.600  13.110
80398SOL    HW242969  12.497   0.495  13.132
80399SOL     OW42970  14.681   7.012  10.482
80399SOL    HW142971  14.733   6.933  10.494
80399SOL    HW242972  14.745   7.081  10.463
80400SOL     OW42973   7.663   2.973   0.181
80400SOL    HW142974   7.698   3.002   0.096
80400SOL    HW242975   7.624   2.887   0.163
80401SOL     OW42976  12.146   9.094   5.366
80401SOL    HW142977  12.179   9.021   5.418
80401SOL    HW242978  12.192   9.171   5.400
80402SOL     OW42979  14.587   0.282   5.537
80402SOL    HW142980  14.643   0.334   5.479
80402SOL    HW242981  14.607   0.315   5.625
80403SOL     OW42982   5.969  12.276  12.420
80403SOL    HW142983   6.006  12.357  12.387
80403SOL    HW242984   6.038  12.211  12.408
80404SOL     OW42985   5.909   5.204   4.682
80404SOL    HW142986   5.855   5.199   4.761
80404SOL    HW242987   5.917   5.298   4.665
80405SOL     OW42988   4.785   6.518   9.125
80405SOL    HW142989   4.712   6.509   9.064
80405SOL    HW242990   4.857   6.470   9.085
80406SOL     OW42991   3.374   0.580  11.628
80406SOL    HW142992   3.281   0.556  11.632
80406SOL    HW242993   3.406   0.535  11.550
80407SOL     OW42994  12.543   3.556   3.632
80407SOL    HW142995  12.631   3.538   3.599
80407SOL    HW242996  12.500   3.604   3.561
80408SOL     OW42997   4.144   4.850   3.468
80408SOL    HW142998   4.115   4.875   3.556
80408SOL    HW242999   4.068   4.865   3.412
80409SOL     OW43000   2.279  11.690   6.709
80409SOL    HW143001   2.210  11.624   6.722
80409SOL    HW243002   2.269  11.718   6.618
80410SOL     OW43003  10.936   7.679   2.346
80410SOL    HW143004  10.860   7.667   2.288
80410SOL    HW243005  10.899   7.694   2.432
80411SOL     OW43006  13.294   7.165  14.254
80411SOL    HW143007  13.234   7.108  14.205
80411SOL    HW243008  13.293   7.130  14.343
80412SOL     OW43009   1.334  13.677   2.168
80412SOL    HW143010   1.311  13.696   2.259
80412SOL    HW243011   1.261  13.626   2.135
80413SOL     OW43012  13.890   6.877   6.650
80413SOL    HW143013  13.891   6.966   6.614
80413SOL    HW243014  13.808   6.871   6.698
80414SOL     OW43015  14.290   7.601   0.219
80414SOL    HW143016  14.384   7.614   0.204
80414SOL    HW243017  14.278   7.619   0.313
80415SOL     OW43018  14.249  12.821  14.408
80415SOL    HW143019  14.294  12.897  14.445
80415SOL    HW243020  14.317  12.755  14.397
80416SOL     OW43021  11.007   6.756  11.389
80416SOL    HW143022  10.937   6.761  11.324
80416SOL    HW243023  11.053   6.840  11.383
80417SOL     OW43024   7.305   5.363   0.445
80417SOL    HW143025   7.310   5.268   0.454
80417SOL    HW243026   7.385   5.395   0.488
80418SOL     OW43027   0.797   5.033   5.846
80418SOL    HW143028   0.812   5.009   5.755
80418SOL    HW243029   0.715   5.083   5.844
80419SOL     OW43030   8.499   8.337  14.034
80419SOL    HW143031   8.435   8.268  14.016
80419SOL    HW243032   8.582   8.290  14.045
80420SOL     OW43033   1.097   5.379   3.268
80420SOL    HW143034   1.069   5.311   3.330
80420SOL    HW243035   1.056   5.354   3.185
80421SOL     OW43036   7.494   0.055   5.219
80421SOL    HW143037   7.511   0.069   5.126
80421SOL    HW243038   7.576   0.078   5.262
80422SOL     OW43039   1.626  12.857  12.508
80422SOL    HW143040   1.617  12.909  12.588
80422SOL    HW243041   1.644  12.769  12.539
80423SOL     OW43042  11.919   6.463   9.304
80423SOL    HW143043  11.953   6.374   9.298
80423SOL    HW243044  11.995   6.518   9.285
80424SOL     OW43045  13.527  13.841   1.104
80424SOL    HW143046  13.444  13.885   1.084
80424SOL    HW243047  13.585  13.865   1.031
80425SOL     OW43048   3.034   4.047   4.708
80425SOL    HW143049   2.952   4.082   4.741
80425SOL    HW243050   3.009   3.968   4.660
80426SOL     OW43051   0.836   9.669  12.976
80426SOL    HW143052   0.908   9.693  12.917
80426SOL    HW243053   0.871   9.597  13.028
80427SOL     OW43054  13.245   3.252   8.465
80427SOL    HW143055  13.312   3.264   8.533
80427SOL    HW243056  13.269   3.169   8.422
80428SOL     OW43057  14.160   7.007  14.580
80428SOL    HW143058  14.173   7.060  14.658
80428SOL    HW243059  14.190   7.062  14.507
80429SOL     OW43060  11.773  10.582   0.075
80429SOL    HW143061  11.715  10.555   0.004
80429SOL    HW243062  11.775  10.677   0.071
80430SOL     OW43063   9.905   9.588  13.346
80430SOL    HW143064   9.899   9.498  13.377
80430SOL    HW243065   9.834   9.597  13.282
80431SOL     OW43066   1.600   7.984  11.402
80431SOL    HW143067   1.611   8.077  11.419
80431SOL    HW243068   1.673   7.960  11.345
80432SOL     OW43069   4.702   7.437   3.243
80432SOL    HW143070   4.753   7.502   3.195
80432SOL    HW243071   4.611   7.453   3.217
80433SOL     OW43072  13.472   2.644   0.015
80433SOL    HW143073  13.389   2.621  14.851
80433SOL    HW243074  13.538   2.600  14.840
80434SOL     OW43075   5.627   0.389   2.123
80434SOL    HW143076   5.606   0.447   2.049
80434SOL    HW243077   5.680   0.320   2.084
80435SOL     OW43078   5.971   3.851   0.410
80435SOL    HW143079   5.970   3.779   0.474
80435SOL    HW243080   5.886   3.895   0.423
80436SOL     OW43081   9.067  11.823  13.564
80436SOL    HW143082   9.008  11.748  13.562
80436SOL    HW243083   9.009  11.899  13.561
80437SOL     OW43084  12.135   5.278   4.739
80437SOL    HW143085  12.073   5.277   4.812
80437SOL    HW243086  12.220   5.269   4.780
80438SOL     OW43087   8.392   4.764  13.853
80438SOL    HW143088   8.388   4.855  13.823
80438SOL    HW243089   8.482   4.737  13.834
80439SOL     OW43090  13.641   3.467  10.292
80439SOL    HW143091  13.735   3.472  10.281
80439SOL    HW243092  13.627   3.478  10.386
80440SOL     OW43093  11.759  13.147   0.929
80440SOL    HW143094  11.700  13.139   1.004
80440SOL    HW243095  11.763  13.058   0.893
80441SOL     OW43096   3.401   1.515  14.279
80441SOL    HW143097   3.320   1.467  14.291
80441SOL    HW243098   3.393   1.554  14.192
80442SOL     OW43099   2.140   7.315   4.825
80442SOL    HW143100   2.048   7.323   4.799
80442SOL    HW243101   2.161   7.223   4.813
80443SOL     OW43102  10.337  13.463   9.197
80443SOL    HW143103  10.327  13.557   9.184
80443SOL    HW243104  10.397  13.435   9.127
80444SOL     OW43105   7.709  10.479   0.179
80444SOL    HW143106   7.727  10.404   0.236
80444SOL    HW243107   7.749  10.553   0.225
80445SOL     OW43108   3.991  11.081  10.625
80445SOL    HW143109   3.945  11.018  10.570
80445SOL    HW243110   4.078  11.089  10.586
80446SOL     OW43111   4.542   5.710   9.563
80446SOL    HW143112   4.571   5.634   9.614
80446SOL    HW243113   4.454   5.687   9.535
80447SOL     OW43114   7.916   8.160   4.692
80447SOL    HW143115   7.858   8.235   4.678
80447SOL    HW243116   7.907   8.108   4.612
80448SOL     OW43117  10.223   1.381  11.473
80448SOL    HW143118  10.149   1.343  11.521
80448SOL    HW243119  10.299   1.363  11.528
80449SOL     OW43120  10.260  10.172  13.747
80449SOL    HW143121  10.343  10.205  13.711
80449SOL    HW243122  10.242  10.093  13.697
80450SOL     OW43123   5.406  10.106  14.815
80450SOL    HW143124   5.372  10.195  14.823
80450SOL    HW243125   5.463  10.095   0.013
80451SOL     OW43126  11.307   2.961  11.131
80451SOL    HW143127  11.350   2.883  11.096
80451SOL    HW243128  11.330   2.961  11.224
80452SOL     OW43129   3.779   5.166   7.178
80452SOL    HW143130   3.799   5.234   7.242
80452SOL    HW243131   3.686   5.148   7.191
80453SOL     OW43132   3.906   5.169   8.950
80453SOL    HW143133   3.872   5.248   8.909
80453SOL    HW243134   3.885   5.180   9.043
80454SOL     OW43135   3.160   3.639   9.687
80454SOL    HW143136   3.168   3.563   9.745
80454SOL    HW243137   3.156   3.714   9.746
80455SOL     OW43138   4.439  14.287   6.555
80455SOL    HW143139   4.400  14.233   6.486
80455SOL    HW243140   4.372  14.292   6.623
80456SOL     OW43141  11.026  13.935   2.758
80456SOL    HW143142  11.092  14.004   2.769
80456SOL    HW243143  11.077  13.860   2.727
80457SOL     OW43144  11.132   5.264  10.319
80457SOL    HW143145  11.201   5.323  10.290
80457SOL    HW243146  11.114   5.291  10.409
80458SOL     OW43147   8.420   0.226   0.718
80458SOL    HW143148   8.499   0.267   0.753
80458SOL    HW243149   8.395   0.282   0.645
80459SOL     OW43150   6.655   4.240   4.701
80459SOL    HW143151   6.610   4.162   4.732
80459SOL    HW243152   6.684   4.217   4.612
80460SOL     OW43153  14.386  13.519   7.745
80460SOL    HW143154  14.394  13.575   7.822
80460SOL    HW243155  14.292  13.511   7.730
80461SOL     OW43156  12.944   3.051   9.569
80461SOL    HW143157  12.863   3.100   9.582
80461SOL    HW243158  12.924   2.989   9.500
80462SOL     OW43159   6.920   1.181   8.335
80462SOL    HW143160   6.840   1.217   8.298
80462SOL    HW243161   6.974   1.258   8.354
80463SOL     OW43162  14.230   1.902   7.099
80463SOL    HW143163  14.280   1.913   7.018
80463SOL    HW243164  14.204   1.810   7.099
80464SOL     OW43165  12.874   0.325   9.373
80464SOL    HW143166  12.893   0.418   9.380
80464SOL    HW243167  12.779   0.319   9.382
80465SOL     OW43168   2.474   0.398   6.758
80465SOL    HW143169   2.421   0.437   6.687
80465SOL    HW243170   2.512   0.320   6.719
80466SOL     OW43171  14.173  12.776   4.914
80466SOL    HW143172  14.171  12.828   4.834
80466SOL    HW243173  14.256  12.799   4.955
80467SOL     OW43174   8.729   3.680  13.694
80467SOL    HW143175   8.750   3.742  13.765
80467SOL    HW243176   8.812   3.640  13.672
80468SOL     OW43177   2.127   4.697  12.188
80468SOL    HW143178   2.114   4.749  12.266
80468SOL    HW243179   2.135   4.760  12.117
80469SOL     OW43180  13.057   3.413   3.666
80469SOL    HW143181  13.146   3.437   3.693
80469SOL    HW243182  13.070   3.348   3.596
80470SOL     OW43183   7.606   0.133  10.818
80470SOL    HW143184   7.681   0.098  10.867
80470SOL    HW243185   7.642   0.205  10.767
80471SOL     OW43186   0.498   0.259  11.387
80471SOL    HW143187   0.409   0.262  11.424
80471SOL    HW243188   0.488   0.208  11.306
80472SOL     OW43189  10.905   2.939   7.166
80472SOL    HW143190  10.834   2.898   7.116
80472SOL    HW243191  10.976   2.875   7.164
80473SOL     OW43192   1.444   1.520  11.175
80473SOL    HW143193   1.353   1.531  11.205
80473SOL    HW243194   1.442   1.442  11.120
80474SOL     OW43195  14.197   0.533  10.496
80474SOL    HW143196  14.174   0.466  10.431
80474SOL    HW243197  14.162   0.498  10.578
80475SOL     OW43198   9.332  13.530   6.031
80475SOL    HW143199   9.255  13.551   5.976
80475SOL    HW243200   9.383  13.611   6.032
80476SOL     OW43201   4.941   2.870   1.456
80476SOL    HW143202   4.918   2.827   1.373
80476SOL    HW243203   4.936   2.964   1.437
80477SOL     OW43204  10.959   5.947  10.927
80477SOL    HW143205  11.039   5.917  10.969
80477SOL    HW243206  10.895   5.952  10.998
80478SOL     OW43207   5.463   4.848  12.171
80478SOL    HW143208   5.460   4.832  12.077
80478SOL    HW243209   5.507   4.933  12.180
80479SOL     OW43210  11.860   2.348  12.029
80479SOL    HW143211  11.937   2.403  12.015
80479SOL    HW243212  11.879   2.268  11.980
80480SOL     OW43213  13.043   6.279   5.094
80480SOL    HW143214  13.064   6.372   5.099
80480SOL    HW243215  12.971   6.267   5.156
80481SOL     OW43216  10.540   2.850   0.323
80481SOL    HW143217  10.462   2.906   0.322
80481SOL    HW243218  10.509   2.767   0.361
80482SOL     OW43219   4.517  10.082   4.720
80482SOL    HW143220   4.508  10.160   4.775
80482SOL    HW243221   4.495  10.009   4.778
80483SOL     OW43222   6.654   1.207   0.611
80483SOL    HW143223   6.631   1.161   0.530
80483SOL    HW243224   6.747   1.185   0.625
80484SOL     OW43225  10.411   3.456   5.241
80484SOL    HW143226  10.344   3.517   5.208
80484SOL    HW243227  10.375   3.424   5.324
80485SOL     OW43228   3.582   3.883   1.477
80485SOL    HW143229   3.603   3.882   1.383
80485SOL    HW243230   3.549   3.796   1.495
80486SOL     OW43231   5.135   1.879   3.140
80486SOL    HW143232   5.132   1.974   3.150
80486SOL    HW243233   5.084   1.861   3.061
80487SOL     OW43234  11.916  13.079  14.848
80487SOL    HW143235  11.945  13.153   0.024
80487SOL    HW243236  11.986  13.015  14.855
80488SOL     OW43237   2.068   9.779   5.634
80488SOL    HW143238   2.090   9.700   5.683
80488SOL    HW243239   1.983   9.760   5.595
80489SOL     OW43240  10.191   9.422   6.907
80489SOL    HW143241  10.273   9.393   6.948
80489SOL    HW243242  10.218   9.466   6.826
80490SOL     OW43243  14.218   5.770   6.961
80490SOL    HW143244  14.201   5.774   7.055
80490SOL    HW243245  14.133   5.789   6.921
80491SOL     OW43246   8.229   1.018   0.987
80491SOL    HW143247   8.175   1.046   0.914
80491SOL    HW243248   8.284   0.948   0.951
80492SOL     OW43249   1.758   7.748   8.028
80492SOL    HW143250   1.714   7.683   7.973
80492SOL    HW243251   1.843   7.760   7.987
80493SOL     OW43252  10.360   4.401  13.874
80493SOL    HW143253  10.366   4.423  13.782
80493SOL    HW243254  10.302   4.324  13.877
80494SOL     OW43255  13.773   4.234   4.271
80494SOL    HW143256  13.756   4.196   4.185
80494SOL    HW243257  13.693   4.220   4.321
80495SOL     OW43258   1.546   2.650   8.695
80495SOL    HW143259   1.602   2.626   8.769
80495SOL    HW243260   1.608   2.677   8.626
80496SOL     OW43261   1.444  14.713  12.271
80496SOL    HW143262   1.501  14.679  12.341
80496SOL    HW243263   1.503  14.758  12.212
80497SOL     OW43264  12.172  13.168   3.069
80497SOL    HW143265  12.111  13.152   2.997
80497SOL    HW243266  12.230  13.093   3.068
80498SOL     OW43267   8.556   1.570   3.719
80498SOL    HW143268   8.646   1.546   3.700
80498SOL    HW243269   8.561   1.619   3.801
80499SOL     OW43270   7.552   8.890   8.690
80499SOL    HW143271   7.633   8.896   8.639
80499SOL    HW243272   7.530   8.797   8.690
80500SOL     OW43273   3.611  12.266   2.854
80500SOL    HW143274   3.691  12.245   2.805
80500SOL    HW243275   3.606  12.200   2.922
80501SOL     OW43276  13.297  10.336   7.587
80501SOL    HW143277  13.289  10.240   7.580
80501SOL    HW243278  13.259  10.357   7.672
80502SOL     OW43279  13.510  10.094   4.002
80502SOL    HW143280  13.442  10.066   4.063
80502SOL    HW243281  13.587  10.043   4.026
80503SOL     OW43282  12.313   6.622  13.340
80503SOL    HW143283  12.382   6.639  13.276
80503SOL    HW243284  12.358   6.623  13.425
80504SOL     OW43285  10.156   6.074   4.683
80504SOL    HW143286  10.152   5.983   4.652
80504SOL    HW243287  10.180   6.125   4.606
80505SOL     OW43288  12.614   0.086   4.092
80505SOL    HW143289  12.673   0.040   4.152
80505SOL    HW243290  12.542   0.117   4.147
80506SOL     OW43291  13.954   8.067   2.019
80506SOL    HW143292  13.879   8.066   2.079
80506SOL    HW243293  13.968   8.160   2.000
80507SOL     OW43294   4.602  12.696   9.043
80507SOL    HW143295   4.663  12.751   8.994
80507SOL    HW243296   4.645  12.680   9.127
80508SOL     OW43297   4.318   2.225   7.516
80508SOL    HW143298   4.319   2.131   7.536
80508SOL    HW243299   4.333   2.230   7.421
80509SOL     OW43300   8.049   7.156  10.823
80509SOL    HW143301   8.088   7.073  10.795
80509SOL    HW243302   8.027   7.143  10.915
80510SOL     OW43303   8.169  11.122  13.048
80510SOL    HW143304   8.145  11.139  12.957
80510SOL    HW243305   8.130  11.037  13.068
80511SOL     OW43306  10.207   4.568  10.614
80511SOL    HW143307  10.282   4.585  10.671
80511SOL    HW243308  10.178   4.481  10.640
80512SOL     OW43309   6.333   4.542  11.830
80512SOL    HW143310   6.378   4.532  11.914
80512SOL    HW243311   6.385   4.606  11.782
80513SOL     OW43312   5.005   4.831  12.260
80513SOL    HW143313   4.999   4.777  12.181
80513SOL    HW243314   4.919   4.825  12.300
80514SOL     OW43315  10.551   8.834   3.514
80514SOL    HW143316  10.503   8.767   3.466
80514SOL    HW243317  10.599   8.883   3.447
80515SOL     OW43318   2.691   0.632  13.021
80515SOL    HW143319   2.754   0.648  12.951
80515SOL    HW243320   2.688   0.537  13.030
80516SOL     OW43321   4.139   6.464  12.880
80516SOL    HW143322   4.092   6.454  12.963
80516SOL    HW243323   4.126   6.380  12.836
80517SOL     OW43324  11.967  12.660  12.816
80517SOL    HW143325  12.022  12.598  12.768
80517SOL    HW243326  11.956  12.621  12.902
80518SOL     OW43327   0.193   3.187   9.385
80518SOL    HW143328   0.143   3.243   9.445
80518SOL    HW243329   0.191   3.232   9.301
80519SOL     OW43330   4.530  14.193  12.217
80519SOL    HW143331   4.439  14.218  12.205
80519SOL    HW243332   4.533  14.153  12.304
80520SOL     OW43333   0.522   3.442   6.539
80520SOL    HW143334   0.521   3.438   6.635
80520SOL    HW243335   0.578   3.516   6.518
80521SOL     OW43336   7.895   3.773  13.794
80521SOL    HW143337   7.860   3.690  13.827
80521SOL    HW243338   7.990   3.764  13.805
80522SOL     OW43339  10.929  12.997   8.437
80522SOL    HW143340  10.857  13.054   8.466
80522SOL    HW243341  11.006  13.030   8.483
80523SOL     OW43342   6.593   4.480   8.437
80523SOL    HW143343   6.579   4.438   8.522
80523SOL    HW243344   6.681   4.453   8.411
80524SOL     OW43345  10.822   6.663   6.050
80524SOL    HW143346  10.874   6.628   6.122
80524SOL    HW243347  10.886   6.693   5.985
80525SOL     OW43348   5.941   3.975   3.438
80525SOL    HW143349   6.015   3.989   3.379
80525SOL    HW243350   5.950   4.042   3.505
80526SOL     OW43351   3.825   6.280   5.467
80526SOL    HW143352   3.785   6.197   5.439
80526SOL    HW243353   3.753   6.328   5.509
80527SOL     OW43354  10.277  11.710   3.321
80527SOL    HW143355  10.314  11.772   3.384
80527SOL    HW243356  10.287  11.625   3.363
80528SOL     OW43357   2.091   9.537   2.593
80528SOL    HW143358   2.151   9.591   2.644
80528SOL    HW243359   2.010   9.588   2.589
80529SOL     OW43360   0.097   1.598   0.418
80529SOL    HW143361   0.061   1.519   0.377
80529SOL    HW243362   0.090   1.666   0.351
80530SOL     OW43363   7.220   3.473  13.404
80530SOL    HW143364   7.147   3.534  13.418
80530SOL    HW243365   7.208   3.442  13.314
80531SOL     OW43366  13.945   1.656  12.858
80531SOL    HW143367  14.030   1.700  12.867
80531SOL    HW243368  13.955   1.575  12.908
80532SOL     OW43369   3.159  11.757  13.249
80532SOL    HW143370   3.226  11.780  13.313
80532SOL    HW243371   3.113  11.682  13.287
80533SOL     OW43372  14.403   2.210  10.396
80533SOL    HW143373  14.481   2.222  10.450
80533SOL    HW243374  14.331   2.237  10.452
80534SOL     OW43375   0.779   3.767  11.521
80534SOL    HW143376   0.775   3.713  11.600
80534SOL    HW243377   0.691   3.762  11.484
80535SOL     OW43378  13.881   9.291   3.677
80535SOL    HW143379  13.868   9.199   3.702
80535SOL    HW243380  13.841   9.341   3.749
80536SOL     OW43381   9.046   7.101   3.434
80536SOL    HW143382   9.090   7.186   3.437
80536SOL    HW243383   8.953   7.122   3.428
80537SOL     OW43384  12.183   8.382   1.598
80537SOL    HW143385  12.126   8.342   1.533
80537SOL    HW243386  12.126   8.442   1.646
80538SOL     OW43387   4.475   2.030   9.219
80538SOL    HW143388   4.426   2.083   9.156
80538SOL    HW243389   4.453   2.068   9.304
80539SOL     OW43390   6.872   2.066   2.000
80539SOL    HW143391   6.789   2.068   1.952
80539SOL    HW243392   6.919   2.143   1.969
80540SOL     OW43393   3.614  13.135  14.665
80540SOL    HW143394   3.565  13.087  14.731
80540SOL    HW243395   3.604  13.227  14.690
80541SOL     OW43396   3.262   8.332   4.923
80541SOL    HW143397   3.181   8.358   4.968
80541SOL    HW243398   3.329   8.334   4.991
80542SOL     OW43399   3.008   6.319  13.525
80542SOL    HW143400   3.037   6.234  13.493
80542SOL    HW243401   2.927   6.301  13.571
80543SOL     OW43402   7.124  12.372  12.332
80543SOL    HW143403   7.165  12.458  12.339
80543SOL    HW243404   7.197  12.310  12.336
80544SOL     OW43405  10.630  14.006  10.579
80544SOL    HW143406  10.710  13.994  10.629
80544SOL    HW243407  10.594  14.089  10.609
80545SOL     OW43408   9.893   8.082  13.199
80545SOL    HW143409   9.863   8.049  13.114
80545SOL    HW243410   9.988   8.071  13.197
80546SOL     OW43411  12.096   3.402  11.767
80546SOL    HW143412  12.032   3.471  11.784
80546SOL    HW243413  12.175   3.448  11.740
80547SOL     OW43414  13.583   3.779  11.491
80547SOL    HW143415  13.523   3.719  11.535
80547SOL    HW243416  13.603   3.846  11.556
80548SOL     OW43417  11.948   5.360   9.466
80548SOL    HW143418  11.900   5.284   9.434
80548SOL    HW243419  12.039   5.332   9.468
80549SOL     OW43420   5.010   6.145   4.440
80549SOL    HW143421   5.013   6.091   4.519
80549SOL    HW243422   5.102   6.154   4.414
80550SOL     OW43423   0.631  13.280   8.727
80550SOL    HW143424   0.560  13.303   8.787
80550SOL    HW243425   0.703  13.339   8.750
80551SOL     OW43426  13.284   9.120   5.290
80551SOL    HW143427  13.254   9.102   5.380
80551SOL    HW243428  13.230   9.062   5.236
80552SOL     OW43429   4.142   1.589   9.321
80552SOL    HW143430   4.149   1.597   9.226
80552SOL    HW243431   4.122   1.496   9.335
80553SOL     OW43432   6.787   5.942  12.854
80553SOL    HW143433   6.822   5.887  12.784
80553SOL    HW243434   6.771   5.881  12.927
80554SOL     OW43435  11.070  13.201   0.216
80554SOL    HW143436  11.061  13.114   0.256
80554SOL    HW243437  11.158  13.201   0.178
80555SOL     OW43438   6.276   2.354   9.904
80555SOL    HW143439   6.358   2.359   9.856
80555SOL    HW243440   6.301   2.327   9.992
80556SOL     OW43441   8.041   6.782  13.850
80556SOL    HW143442   7.991   6.863  13.846
80556SOL    HW243443   8.065   6.765  13.759
80557SOL     OW43444  14.030  10.295  13.290
80557SOL    HW143445  14.121  10.323  13.300
80557SOL    HW243446  14.034  10.200  13.286
80558SOL     OW43447  10.409   5.173  13.470
80558SOL    HW143448  10.327   5.162  13.422
80558SOL    HW243449  10.477   5.139  13.411
80559SOL     OW43450  10.288   2.647  11.731
80559SOL    HW143451  10.382   2.668  11.731
80559SOL    HW243452  10.247   2.720  11.777
80560SOL     OW43453   4.392   0.456  13.594
80560SOL    HW143454   4.465   0.446  13.655
80560SOL    HW243455   4.357   0.368  13.583
80561SOL     OW43456  14.344   2.482   1.510
80561SOL    HW143457  14.286   2.541   1.557
80561SOL    HW243458  14.299   2.465   1.427
80562SOL     OW43459  11.356   4.795  10.174
80562SOL    HW143460  11.445   4.826  10.157
80562SOL    HW243461  11.306   4.874  10.192
80563SOL     OW43462  11.712   4.562   2.359
80563SOL    HW143463  11.757   4.510   2.293
80563SOL    HW243464  11.682   4.640   2.312
80564SOL     OW43465  11.898  11.260   6.805
80564SOL    HW143466  11.866  11.296   6.888
80564SOL    HW243467  11.819  11.242   6.754
80565SOL     OW43468   3.955   7.811  10.603
80565SOL    HW143469   4.010   7.878  10.564
80565SOL    HW243470   3.894   7.860  10.659
80566SOL     OW43471   4.468   1.226   0.290
80566SOL    HW143472   4.507   1.253   0.373
80566SOL    HW243473   4.518   1.272   0.223
80567SOL     OW43474  12.579   3.258   1.743
80567SOL    HW143475  12.535   3.218   1.668
80567SOL    HW243476  12.511   3.263   1.810
80568SOL     OW43477   8.847   6.979  10.494
80568SOL    HW143478   8.937   7.004  10.519
80568SOL    HW243479   8.856   6.891  10.459
80569SOL     OW43480  14.500   1.819  11.374
80569SOL    HW143481  14.431   1.852  11.432
80569SOL    HW243482  14.515   1.890  11.312
80570SOL     OW43483   7.775   8.074   0.588
80570SOL    HW143484   7.856   8.054   0.542
80570SOL    HW243485   7.789   8.162   0.623
80571SOL     OW43486   0.448  12.189   5.793
80571SOL    HW143487   0.494  12.105   5.803
80571SOL    HW243488   0.435  12.220   5.882
80572SOL     OW43489   7.181  14.308   2.300
80572SOL    HW143490   7.224  14.264   2.226
80572SOL    HW243491   7.235  14.284   2.376
80573SOL     OW43492   3.215   9.162   8.312
80573SOL    HW143493   3.273   9.105   8.363
80573SOL    HW243494   3.197   9.236   8.370
80574SOL     OW43495   9.106   0.875   9.064
80574SOL    HW143496   9.015   0.854   9.088
80574SOL    HW243497   9.131   0.806   9.003
80575SOL     OW43498  14.807   7.232   4.045
80575SOL    HW143499  14.809   7.139   4.020
80575SOL    HW243500   0.019   7.262   4.032
80576SOL     OW43501   4.049  14.617   1.429
80576SOL    HW143502   4.131  14.588   1.470
80576SOL    HW243503   3.995  14.538   1.424
80577SOL     OW43504   3.169  11.418   8.690
80577SOL    HW143505   3.180  11.396   8.598
80577SOL    HW243506   3.203  11.507   8.699
80578SOL     OW43507   7.426  14.399   3.499
80578SOL    HW143508   7.492  14.336   3.527
80578SOL    HW243509   7.400  14.370   3.411
80579SOL     OW43510   4.731   2.461   4.137
80579SOL    HW143511   4.819   2.441   4.105
80579SOL    HW243512   4.692   2.375   4.152
80580SOL     OW43513   7.950  14.374   7.165
80580SOL    HW143514   8.009  14.383   7.239
80580SOL    HW243515   7.865  14.352   7.204
80581SOL     OW43516   3.618   7.284  10.006
80581SOL    HW143517   3.660   7.346   9.946
80581SOL    HW243518   3.678   7.279  10.081
80582SOL     OW43519   6.679   2.625  12.505
80582SOL    HW143520   6.617   2.583  12.564
80582SOL    HW243521   6.736   2.676  12.562
80583SOL     OW43522   5.069   2.964  11.595
80583SOL    HW143523   5.131   2.935  11.662
80583SOL    HW243524   4.984   2.963  11.640
80584SOL     OW43525   6.774   1.609  10.000
80584SOL    HW143526   6.811   1.528  10.035
80584SOL    HW243527   6.690   1.618  10.045
80585SOL     OW43528   7.444  11.673  10.766
80585SOL    HW143529   7.522  11.699  10.717
80585SOL    HW243530   7.385  11.748  10.758
80586SOL     OW43531   0.297  13.009   6.848
80586SOL    HW143532   0.242  13.039   6.920
80586SOL    HW243533   0.242  12.948   6.799
80587SOL     OW43534   8.547   1.284   4.294
80587SOL    HW143535   8.573   1.285   4.202
80587SOL    HW243536   8.587   1.362   4.332
80588SOL     OW43537   5.991  14.369   9.632
80588SOL    HW143538   5.950  14.447   9.669
80588SOL    HW243539   6.059  14.403   9.575
80589SOL     OW43540   6.727   9.915  12.316
80589SOL    HW143541   6.773   9.888  12.236
80589SOL    HW243542   6.709  10.008  12.304
80590SOL     OW43543  12.475  11.427  11.547
80590SOL    HW143544  12.382  11.444  11.535
80590SOL    HW243545  12.514  11.441  11.461
80591SOL     OW43546  10.758   1.186   7.255
80591SOL    HW143547  10.704   1.227   7.187
80591SOL    HW243548  10.740   1.238   7.334
80592SOL     OW43549  11.451  13.876   7.719
80592SOL    HW143550  11.538  13.907   7.745
80592SOL    HW243551  11.465  13.830   7.636
80593SOL     OW43552   2.654   9.103  12.892
80593SOL    HW143553   2.693   9.163  12.829
80593SOL    HW243554   2.648   9.154  12.973
80594SOL     OW43555  11.809   1.995  12.253
80594SOL    HW143556  11.775   2.041  12.177
80594SOL    HW243557  11.899   2.028  12.263
80595SOL     OW43558   1.220   1.472   2.978
80595SOL    HW143559   1.187   1.469   2.888
80595SOL    HW243560   1.313   1.449   2.970
80596SOL     OW43561   3.014  11.946  13.499
80596SOL    HW143562   3.015  11.948  13.403
80596SOL    HW243563   2.969  12.026  13.524
80597SOL     OW43564   1.093   3.422   7.052
80597SOL    HW143565   1.029   3.426   6.980
80597SOL    HW243566   1.110   3.328   7.062
80598SOL     OW43567  14.642  11.233   1.986
80598SOL    HW143568  14.584  11.168   1.946
80598SOL    HW243569  14.587  11.311   1.995
80599SOL     OW43570   2.533   8.331   4.340
80599SOL    HW143571   2.629   8.328   4.338
80599SOL    HW243572   2.512   8.424   4.329
80600SOL     OW43573   6.176   6.059  12.298
80600SOL    HW143574   6.247   6.041  12.359
80600SOL    HW243575   6.144   6.145  12.323
80601SOL     OW43576   2.762  12.327  14.392
80601SOL    HW143577   2.697  12.259  14.380
80601SOL    HW243578   2.797  12.344  14.304
80602SOL     OW43579   3.825  13.982   9.592
80602SOL    HW143580   3.744  13.949   9.555
80602SOL    HW243581   3.807  14.073   9.614
80603SOL     OW43582  10.304   2.962   0.199
80603SOL    HW143583  10.244   2.931   0.266
80603SOL    HW243584  10.259   3.036   0.159
80604SOL     OW43585  12.723   9.260  12.685
80604SOL    HW143586  12.803   9.207  12.692
80604SOL    HW243587  12.664   9.221  12.748
80605SOL     OW43588   9.248   4.403   7.612
80605SOL    HW143589   9.258   4.361   7.698
80605SOL    HW243590   9.185   4.348   7.565
80606SOL     OW43591   1.400   6.835   9.421
80606SOL    HW143592   1.403   6.743   9.394
80606SOL    HW243593   1.477   6.846   9.477
80607SOL     OW43594   5.374  14.314   0.646
80607SOL    HW143595   5.424  14.380   0.598
80607SOL    HW243596   5.348  14.250   0.580
80608SOL     OW43597  14.253  13.375  14.525
80608SOL    HW143598  14.341  13.366  14.561
80608SOL    HW243599  14.210  13.439  14.582
80609SOL     OW43600   4.689  13.879   5.246
80609SOL    HW143601   4.651  13.871   5.334
80609SOL    HW243602   4.716  13.790   5.224
80610SOL     OW43603  11.576   9.927   5.621
80610SOL    HW143604  11.511   9.897   5.557
80610SOL    HW243605  11.541  10.010   5.653
80611SOL     OW43606   9.373   1.118  10.297
80611SOL    HW143607   9.351   1.073  10.378
80611SOL    HW243608   9.457   1.161  10.316
80612SOL     OW43609   3.721  14.170   1.264
80612SOL    HW143610   3.628  14.191   1.266
80612SOL    HW243611   3.725  14.077   1.238
80613SOL     OW43612  12.454   1.654  11.895
80613SOL    HW143613  12.363   1.632  11.876
80613SOL    HW243614  12.471   1.611  11.979
80614SOL     OW43615   8.830   1.397  10.302
80614SOL    HW143616   8.906   1.342  10.322
80614SOL    HW243617   8.861   1.456  10.234
80615SOL     OW43618   5.943   6.632  12.532
80615SOL    HW143619   5.943   6.539  12.512
80615SOL    HW243620   5.989   6.639  12.616
80616SOL     OW43621  14.860  14.017  12.158
80616SOL    HW143622   0.035  14.096  12.149
80616SOL    HW243623  14.774  14.049  12.186
80617SOL     OW43624   8.320   1.808  10.446
80617SOL    HW143625   8.336   1.887  10.497
80617SOL    HW243626   8.405   1.784  10.410
80618SOL     OW43627   2.571   8.956   7.280
80618SOL    HW143628   2.559   9.012   7.356
80618SOL    HW243629   2.665   8.956   7.264
80619SOL     OW43630   8.984   5.440   5.094
80619SOL    HW143631   8.962   5.525   5.056
80619SOL    HW243632   9.072   5.452   5.130
80620SOL     OW43633   6.742   8.403   7.657
80620SOL    HW143634   6.789   8.451   7.589
80620SOL    HW243635   6.808   8.342   7.692
80621SOL     OW43636   5.787   5.321  11.262
80621SOL    HW143637   5.762   5.240  11.307
80621SOL    HW243638   5.705   5.369  11.253
80622SOL     OW43639  13.516  12.711   4.006
80622SOL    HW143640  13.574  12.695   3.932
80622SOL    HW243641  13.558  12.781   4.056
80623SOL     OW43642   0.609   6.178   4.080
80623SOL    HW143643   0.540   6.206   4.140
80623SOL    HW243644   0.663   6.118   4.133
80624SOL     OW43645  11.784   9.442   8.989
80624SOL    HW143646  11.778   9.514   8.926
80624SOL    HW243647  11.836   9.375   8.945
80625SOL     OW43648   3.209  14.824  12.419
80625SOL    HW143649   3.228   0.016  12.481
80625SOL    HW243650   3.294  14.800  12.382
80626SOL     OW43651  12.276   7.842   8.091
80626SOL    HW143652  12.245   7.930   8.114
80626SOL    HW243653  12.371   7.850   8.084
80627SOL     OW43654  11.478  11.720   6.429
80627SOL    HW143655  11.521  11.652   6.481
80627SOL    HW243656  11.425  11.769   6.492
80628SOL     OW43657   1.872  10.188   3.404
80628SOL    HW143658   1.967  10.202   3.401
80628SOL    HW243659   1.839  10.260   3.458
80629SOL     OW43660  10.105   1.777  13.915
80629SOL    HW143661  10.134   1.866  13.936
80629SOL    HW243662  10.063   1.746  13.995
80630SOL     OW43663   4.340   4.161   6.565
80630SOL    HW143664   4.408   4.107   6.525
80630SOL    HW243665   4.285   4.189   6.492
80631SOL     OW43666   5.968   8.576   5.374
80631SOL    HW143667   5.910   8.581   5.298
80631SOL    HW243668   6.050   8.542   5.339
80632SOL     OW43669   9.795   3.681  14.775
80632SOL    HW143670   9.869   3.621  14.788
80632SOL    HW243671   9.747   3.643  14.702
80633SOL     OW43672  12.669  11.364  12.264
80633SOL    HW143673  12.609  11.311  12.212
80633SOL    HW243674  12.692  11.307  12.338
80634SOL     OW43675  13.881   8.049   1.321
80634SOL    HW143676  13.840   8.132   1.347
80634SOL    HW243677  13.974   8.064   1.333
80635SOL     OW43678  14.154   7.231  11.467
80635SOL    HW143679  14.091   7.219  11.397
80635SOL    HW243680  14.179   7.142  11.492
80636SOL     OW43681  11.550   4.387   8.758
80636SOL    HW143682  11.463   4.410   8.724
80636SOL    HW243683  11.596   4.351   8.682
80637SOL     OW43684   3.558   2.660   6.861
80637SOL    HW143685   3.501   2.636   6.787
80637SOL    HW243686   3.643   2.623   6.838
80638SOL     OW43687   7.045   0.992  13.299
80638SOL    HW143688   7.121   0.954  13.343
80638SOL    HW243689   7.012   0.922  13.243
80639SOL     OW43690   1.786   4.269  11.544
80639SOL    HW143691   1.803   4.235  11.456
80639SOL    HW243692   1.831   4.209  11.603
80640SOL     OW43693   5.902  13.840   4.774
80640SOL    HW143694   5.851  13.883   4.706
80640SOL    HW243695   5.895  13.746   4.753
80641SOL     OW43696   9.047  10.766  12.112
80641SOL    HW143697   9.092  10.776  12.028
80641SOL    HW243698   9.118  10.754  12.176
80642SOL     OW43699   3.152   0.506   5.076
80642SOL    HW143700   3.144   0.475   4.986
80642SOL    HW243701   3.245   0.530   5.086
80643SOL     OW43702   2.427   1.780   3.661
80643SOL    HW143703   2.411   1.729   3.740
80643SOL    HW243704   2.383   1.730   3.591
80644SOL     OW43705   4.896  12.251   4.607
80644SOL    HW143706   4.974  12.304   4.622
80644SOL    HW243707   4.879  12.209   4.691
80645SOL     OW43708  12.175  12.502  11.440
80645SOL    HW143709  12.092  12.508  11.486
80645SOL    HW243710  12.221  12.583  11.461
80646SOL     OW43711  10.516  13.509  12.519
80646SOL    HW143712  10.538  13.601  12.504
80646SOL    HW243713  10.475  13.508  12.605
80647SOL     OW43714   0.334   5.820   7.660
80647SOL    HW143715   0.344   5.759   7.586
80647SOL    HW243716   0.301   5.900   7.620
80648SOL     OW43717   0.224   2.027   7.958
80648SOL    HW143718   0.196   1.975   7.882
80648SOL    HW243719   0.174   1.991   8.031
80649SOL     OW43720  11.416   7.164   1.852
80649SOL    HW143721  11.502   7.152   1.811
80649SOL    HW243722  11.364   7.208   1.785
80650SOL     OW43723   0.578   7.866   2.932
80650SOL    HW143724   0.527   7.912   2.998
80650SOL    HW243725   0.649   7.824   2.981
80651SOL     OW43726   6.083   9.456   7.553
80651SOL    HW143727   6.142   9.427   7.622
80651SOL    HW243728   6.095   9.393   7.483
80652SOL     OW43729   1.685   6.626  14.124
80652SOL    HW143730   1.604   6.589  14.090
80652SOL    HW243731   1.679   6.617  14.219
80653SOL     OW43732  14.610  13.264  12.570
80653SOL    HW143733  14.700  13.245  12.541
80653SOL    HW243734  14.618  13.276  12.665
80654SOL     OW43735  10.067   0.056  12.801
80654SOL    HW143736  10.115   0.010  12.733
80654SOL    HW243737  10.106   0.144  12.802
80655SOL     OW43738  12.561   2.704   7.419
80655SOL    HW143739  12.555   2.697   7.323
80655SOL    HW243740  12.622   2.777   7.433
80656SOL     OW43741   1.518  10.973   1.330
80656SOL    HW143742   1.466  11.052   1.345
80656SOL    HW243743   1.602  10.990   1.373
80657SOL     OW43744   0.580   1.819   9.184
80657SOL    HW143745   0.647   1.778   9.238
80657SOL    HW243746   0.600   1.913   9.188
80658SOL     OW43747   7.798   4.594   6.970
80658SOL    HW143748   7.741   4.621   6.899
80658SOL    HW243749   7.742   4.544   7.029
80659SOL     OW43750  11.267  12.318  12.686
80659SOL    HW143751  11.175  12.342  12.698
80659SOL    HW243752  11.264  12.230  12.649
80660SOL     OW43753   8.794   5.611   5.276
80660SOL    HW143754   8.781   5.526   5.235
80660SOL    HW243755   8.706   5.648   5.280
80661SOL     OW43756  12.315  14.085  12.341
80661SOL    HW143757  12.264  14.158  12.305
80661SOL    HW243758  12.341  14.115  12.428
80662SOL     OW43759   7.886   2.735  11.213
80662SOL    HW143760   7.904   2.642  11.217
80662SOL    HW243761   7.797   2.741  11.178
80663SOL     OW43762   4.376   3.362   1.565
80663SOL    HW143763   4.347   3.363   1.656
80663SOL    HW243764   4.468   3.334   1.570
80664SOL     OW43765   3.345   2.276   2.250
80664SOL    HW143766   3.387   2.239   2.327
80664SOL    HW243767   3.259   2.234   2.245
80665SOL     OW43768   9.681  12.965   3.752
80665SOL    HW143769   9.744  12.907   3.709
80665SOL    HW243770   9.596  12.924   3.737
80666SOL     OW43771   6.189   8.483  12.048
80666SOL    HW143772   6.174   8.412  12.110
80666SOL    HW243773   6.244   8.445  11.980
80667SOL     OW43774   3.925   1.133   0.966
80667SOL    HW143775   3.831   1.150   0.968
80667SOL    HW243776   3.962   1.198   1.027
80668SOL     OW43777  11.862   6.790  11.930
80668SOL    HW143778  11.826   6.824  12.012
80668SOL    HW243779  11.838   6.855  11.864
80669SOL     OW43780  13.819   1.138   8.972
80669SOL    HW143781  13.732   1.177   8.964
80669SOL    HW243782  13.854   1.141   8.882
80670SOL     OW43783   7.725   1.385   8.131
80670SOL    HW143784   7.703   1.430   8.049
80670SOL    HW243785   7.770   1.451   8.183
80671SOL     OW43786  11.735   4.352   4.194
80671SOL    HW143787  11.744   4.334   4.287
80671SOL    HW243788  11.793   4.288   4.152
80672SOL     OW43789   7.186   7.495   8.976
80672SOL    HW143790   7.149   7.542   8.901
80672SOL    HW243791   7.227   7.418   8.937
80673SOL     OW43792  12.359   7.491   8.960
80673SOL    HW143793  12.436   7.470   9.012
80673SOL    HW243794  12.393   7.543   8.887
80674SOL     OW43795   5.455   9.459  12.506
80674SOL    HW143796   5.515   9.447  12.432
80674SOL    HW243797   5.390   9.390  12.495
80675SOL     OW43798   8.676   5.202  13.379
80675SOL    HW143799   8.736   5.128  13.373
80675SOL    HW243800   8.603   5.178  13.321
80676SOL     OW43801  14.748  11.475   4.383
80676SOL    HW143802  14.659  11.489   4.415
80676SOL    HW243803  14.799  11.546   4.423
80677SOL     OW43804   0.348   8.080  12.940
80677SOL    HW143805   0.273   8.112  12.889
80677SOL    HW243806   0.398   8.159  12.959
80678SOL     OW43807  14.695   0.156   8.347
80678SOL    HW143808  14.636   0.195   8.413
80678SOL    HW243809  14.777   0.205   8.357
80679SOL     OW43810   7.205   6.489   2.652
80679SOL    HW143811   7.244   6.476   2.565
80679SOL    HW243812   7.272   6.459   2.713
80680SOL     OW43813   1.222  12.860   6.670
80680SOL    HW143814   1.318  12.858   6.676
80680SOL    HW243815   1.197  12.769   6.663
80681SOL     OW43816   8.225  10.445   4.471
80681SOL    HW143817   8.234  10.447   4.375
80681SOL    HW243818   8.131  10.443   4.486
80682SOL     OW43819  13.620  14.135   2.908
80682SOL    HW143820  13.558  14.132   2.981
80682SOL    HW243821  13.697  14.179   2.944
80683SOL     OW43822   4.204   8.176  14.364
80683SOL    HW143823   4.223   8.265  14.334
80683SOL    HW243824   4.195   8.126  14.283
80684SOL     OW43825   9.517  11.511   5.525
80684SOL    HW143826   9.589  11.478   5.471
80684SOL    HW243827   9.444  11.452   5.508
80685SOL     OW43828   3.195   4.695   2.821
80685SOL    HW143829   3.203   4.726   2.731
80685SOL    HW243830   3.232   4.606   2.820
80686SOL     OW43831   9.646   8.411  14.184
80686SOL    HW143832   9.632   8.501  14.214
80686SOL    HW243833   9.739   8.395  14.201
80687SOL     OW43834  13.272   1.278  11.323
80687SOL    HW143835  13.280   1.263  11.417
80687SOL    HW243836  13.346   1.333  11.300
80688SOL     OW43837  12.760   9.426   3.943
80688SOL    HW143838  12.747   9.518   3.966
80688SOL    HW243839  12.675   9.396   3.913
80689SOL     OW43840   0.035   0.849   7.966
80689SOL    HW143841  14.822   0.818   7.967
80689SOL    HW243842   0.028   0.943   7.948
80690SOL     OW43843   8.499   0.978   2.863
80690SOL    HW143844   8.561   0.915   2.900
80690SOL    HW243845   8.444   1.004   2.937
80691SOL     OW43846   7.023  10.387   1.377
80691SOL    HW143847   7.063  10.470   1.401
80691SOL    HW243848   7.073  10.321   1.427
80692SOL     OW43849  11.478   2.263  11.729
80692SOL    HW143850  11.552   2.322  11.721
80692SOL    HW243851  11.401   2.317  11.712
80693SOL     OW43852  13.899   0.309   6.732
80693SOL    HW143853  13.985   0.300   6.773
80693SOL    HW243854  13.852   0.229   6.757
80694SOL     OW43855   2.869   4.337   0.770
80694SOL    HW143856   2.867   4.314   0.677
80694SOL    HW243857   2.827   4.423   0.774
80695SOL     OW43858  12.400   9.981  11.868
80695SOL    HW143859  12.442  10.043  11.808
80695SOL    HW243860  12.413  10.020  11.954
80696SOL     OW43861  12.706  12.773  12.788
80696SOL    HW143862  12.640  12.707  12.768
80696SOL    HW243863  12.773  12.727  12.838
80697SOL     OW43864   1.359   0.773   2.148
80697SOL    HW143865   1.292   0.807   2.088
80697SOL    HW243866   1.442   0.803   2.110
80698SOL     OW43867   6.667  11.935   2.116
80698SOL    HW143868   6.752  11.979   2.114
80698SOL    HW243869   6.688  11.844   2.136
80699SOL     OW43870   5.468   6.274   3.989
80699SOL    HW143871   5.431   6.354   3.951
80699SOL    HW243872   5.441   6.204   3.929
80700SOL     OW43873   4.191   0.024  12.649
80700SOL    HW143874   4.216   0.115  12.662
80700SOL    HW243875   4.202   0.008  12.555
80701SOL     OW43876   6.347   2.100  14.140
80701SOL    HW143877   6.354   2.171  14.075
80701SOL    HW243878   6.392   2.026  14.099
80702SOL     OW43879   3.115   8.448   2.490
80702SOL    HW143880   3.205   8.464   2.518
80702SOL    HW243881   3.097   8.519   2.428
80703SOL     OW43882   8.980   3.152   1.793
80703SOL    HW143883   8.914   3.124   1.857
80703SOL    HW243884   9.061   3.110   1.823
80704SOL     OW43885   2.099   6.589   6.928
80704SOL    HW143886   2.117   6.647   6.853
80704SOL    HW243887   2.071   6.649   6.997
80705SOL     OW43888  12.150   9.088   7.424
80705SOL    HW143889  12.211   9.161   7.438
80705SOL    HW243890  12.205   9.017   7.391
80706SOL     OW43891  13.875  11.127   2.376
80706SOL    HW143892  13.866  11.048   2.428
80706SOL    HW243893  13.968  11.132   2.354
80707SOL     OW43894   1.056   7.209   7.413
80707SOL    HW143895   1.133   7.188   7.466
80707SOL    HW243896   1.050   7.304   7.414
80708SOL     OW43897   3.240   3.711  14.682
80708SOL    HW143898   3.150   3.680  14.690
80708SOL    HW243899   3.256   3.760  14.762
80709SOL     OW43900   8.340  13.464  13.619
80709SOL    HW143901   8.329  13.555  13.646
80709SOL    HW243902   8.292  13.457  13.536
80710SOL     OW43903   4.235  10.912  13.288
80710SOL    HW143904   4.328  10.927  13.270
80710SOL    HW243905   4.220  10.821  13.264
80711SOL     OW43906  10.688   4.706   2.402
80711SOL    HW143907  10.639   4.766   2.346
80711SOL    HW243908  10.748   4.763   2.451
80712SOL     OW43909   3.950  11.807   6.157
80712SOL    HW143910   4.022  11.836   6.213
80712SOL    HW243911   3.977  11.720   6.127
80713SOL     OW43912   6.963   5.183  12.394
80713SOL    HW143913   6.879   5.215  12.362
80713SOL    HW243914   6.990   5.117  12.330
80714SOL     OW43915   4.917  11.281   0.933
80714SOL    HW143916   4.915  11.215   1.002
80714SOL    HW243917   4.825  11.299   0.914
80715SOL     OW43918  14.274   7.970  12.454
80715SOL    HW143919  14.218   8.009  12.387
80715SOL    HW243920  14.362   7.972  12.414
80716SOL     OW43921  10.109   5.790   3.293
80716SOL    HW143922  10.164   5.841   3.233
80716SOL    HW243923  10.167   5.770   3.367
80717SOL     OW43924   6.232   5.818   0.428
80717SOL    HW143925   6.151   5.861   0.456
80717SOL    HW243926   6.280   5.804   0.509
80718SOL     OW43927   9.742  12.112   0.258
80718SOL    HW143928   9.776  12.162   0.184
80718SOL    HW243929   9.814  12.055   0.284
80719SOL     OW43930   4.084   5.540   0.680
80719SOL    HW143931   4.159   5.530   0.621
80719SOL    HW243932   4.122   5.566   0.764
80720SOL     OW43933  11.059  11.072  11.442
80720SOL    HW143934  11.007  11.036  11.514
80720SOL    HW243935  11.038  11.016  11.367
80721SOL     OW43936   7.803   6.756   9.798
80721SOL    HW143937   7.755   6.836   9.779
80721SOL    HW243938   7.764   6.690   9.741
80722SOL     OW43939   2.110   2.234   2.330
80722SOL    HW143940   2.065   2.176   2.391
80722SOL    HW243941   2.094   2.322   2.364
80723SOL     OW43942  11.272   3.185   9.855
80723SOL    HW143943  11.258   3.140   9.939
80723SOL    HW243944  11.267   3.278   9.876
80724SOL     OW43945  14.580  10.069  10.552
80724SOL    HW143946  14.661  10.093  10.507
80724SOL    HW243947  14.565   9.978  10.527
80725SOL     OW43948   2.923  14.005  11.353
80725SOL    HW143949   2.917  14.081  11.295
80725SOL    HW243950   3.017  13.987  11.360
80726SOL     OW43951  10.938   3.575   2.327
80726SOL    HW143952  10.991   3.640   2.373
80726SOL    HW243953  11.001   3.509   2.298
80727SOL     OW43954   6.275   6.168   4.476
80727SOL    HW143955   6.255   6.176   4.569
80727SOL    HW243956   6.320   6.084   4.469
80728SOL     OW43957   0.536  14.564   1.219
80728SOL    HW143958   0.535  14.656   1.192
80728SOL    HW243959   0.508  14.516   1.141
80729SOL     OW43960   4.098   9.486   6.789
80729SOL    HW143961   4.148   9.438   6.722
80729SOL    HW243962   4.081   9.571   6.748
80730SOL     OW43963   4.918   5.069  10.242
80730SOL    HW143964   4.882   5.158  10.246
80730SOL    HW243965   5.004   5.075  10.284
80731SOL     OW43966   2.508   1.699   9.925
80731SOL    HW143967   2.472   1.639   9.860
80731SOL    HW243968   2.588   1.657   9.956
80732SOL     OW43969   2.468   2.642  14.581
80732SOL    HW143970   2.376   2.615  14.578
80732SOL    HW243971   2.471   2.723  14.530
80733SOL     OW43972   3.615   5.358  10.509
80733SOL    HW143973   3.710   5.365  10.518
80733SOL    HW243974   3.598   5.377  10.417
80734SOL     OW43975   1.118   5.946   2.270
80734SOL    HW143976   1.134   6.012   2.337
80734SOL    HW243977   1.122   5.994   2.187
80735SOL     OW43978  14.080   2.700   5.883
80735SOL    HW143979  14.047   2.717   5.795
80735SOL    HW243980  14.136   2.775   5.903
80736SOL     OW43981   1.474  12.879  11.914
80736SOL    HW143982   1.505  12.814  11.977
80736SOL    HW243983   1.542  12.946  11.912
80737SOL     OW43984   0.524   8.389   4.683
80737SOL    HW143985   0.471   8.309   4.677
80737SOL    HW243986   0.474   8.446   4.740
80738SOL     OW43987   2.570   3.792   6.744
80738SOL    HW143988   2.575   3.883   6.715
80738SOL    HW243989   2.632   3.745   6.688
80739SOL     OW43990   9.323   7.008   1.550
80739SOL    HW143991   9.343   7.028   1.641
80739SOL    HW243992   9.310   6.913   1.548
80740SOL     OW43993   8.375  13.779   8.356
80740SOL    HW143994   8.434  13.769   8.281
80740SOL    HW243995   8.289  13.754   8.323
80741SOL     OW43996   1.558  13.977   8.621
80741SOL    HW143997   1.533  14.023   8.541
80741SOL    HW243998   1.591  14.045   8.679
80742SOL     OW43999  12.853   8.345   3.828
80742SOL    HW144000  12.868   8.439   3.812
80742SOL    HW244001  12.858   8.336   3.923
80743SOL     OW44002   6.130  11.985   5.686
80743SOL    HW144003   6.072  11.931   5.740
80743SOL    HW244004   6.105  11.965   5.596
80744SOL     OW44005   1.333   3.708   7.329
80744SOL    HW144006   1.419   3.680   7.361
80744SOL    HW244007   1.271   3.660   7.383
80745SOL     OW44008   5.698   9.463   7.393
80745SOL    HW144009   5.633   9.530   7.373
80745SOL    HW244010   5.674   9.389   7.337
80746SOL     OW44011   2.185   2.845  10.521
80746SOL    HW144012   2.229   2.911  10.575
80746SOL    HW244013   2.224   2.856  10.434
80747SOL     OW44014   7.168   8.375   8.105
80747SOL    HW144015   7.131   8.298   8.149
80747SOL    HW244016   7.103   8.444   8.118
80748SOL     OW44017   7.314   4.830   2.661
80748SOL    HW144018   7.322   4.919   2.627
80748SOL    HW244019   7.283   4.778   2.587
80749SOL     OW44020   4.441  14.387  10.289
80749SOL    HW144021   4.443  14.449  10.216
80749SOL    HW244022   4.425  14.302  10.247
80750SOL     OW44023   0.047  14.663  10.995
80750SOL    HW144024   0.108  14.641  10.925
80750SOL    HW244025  14.863  14.589  10.996
80751SOL     OW44026   7.029  10.760   5.109
80751SOL    HW144027   7.057  10.851   5.113
80751SOL    HW244028   7.090  10.713   5.167
80752SOL     OW44029  12.080   6.634  11.597
80752SOL    HW144030  12.109   6.721  11.569
80752SOL    HW244031  12.141   6.574  11.554
80753SOL     OW44032   7.497   4.802   5.837
80753SOL    HW144033   7.537   4.756   5.763
80753SOL    HW244034   7.486   4.891   5.806
80754SOL     OW44035   3.104   5.530   9.746
80754SOL    HW144036   3.192   5.556   9.774
80754SOL    HW244037   3.112   5.517   9.651
80755SOL     OW44038   0.921   3.151  10.489
80755SOL    HW144039   0.909   3.140  10.583
80755SOL    HW244040   0.832   3.152  10.453
80756SOL     OW44041   7.751   4.604  13.771
80756SOL    HW144042   7.732   4.546  13.845
80756SOL    HW244043   7.802   4.550  13.712
80757SOL     OW44044   4.949  10.055   7.059
80757SOL    HW144045   4.890  10.009   7.000
80757SOL    HW244046   5.033  10.055   7.013
80758SOL     OW44047  11.507   3.630   3.930
80758SOL    HW144048  11.480   3.606   3.841
80758SOL    HW244049  11.426   3.631   3.980
80759SOL     OW44050   8.789  13.314  12.149
80759SOL    HW144051   8.847  13.291  12.077
80759SOL    HW244052   8.711  13.259  12.135
80760SOL     OW44053   1.876  14.238  12.390
80760SOL    HW144054   1.951  14.272  12.438
80760SOL    HW244055   1.828  14.185  12.453
80761SOL     OW44056   5.082   5.234  10.833
80761SOL    HW144057   5.022   5.168  10.868
80761SOL    HW244058   5.031   5.315  10.833
80762SOL     OW44059  13.950   7.169   9.274
80762SOL    HW144060  13.971   7.078   9.254
80762SOL    HW244061  13.902   7.165   9.357
80763SOL     OW44062  14.840   4.913  12.694
80763SOL    HW144063  14.774   4.849  12.721
80763SOL    HW244064   0.031   4.905  12.760
80764SOL     OW44065   9.507   5.139   8.769
80764SOL    HW144066   9.460   5.092   8.838
80764SOL    HW244067   9.448   5.210   8.744
80765SOL     OW44068   6.878   8.172  14.461
80765SOL    HW144069   6.810   8.207  14.403
80765SOL    HW244070   6.865   8.077  14.458
80766SOL     OW44071   8.009  10.931  12.378
80766SOL    HW144072   7.961  10.895  12.452
80766SOL    HW244073   7.955  11.003  12.346
80767SOL     OW44074   2.851  14.126   3.046
80767SOL    HW144075   2.872  14.210   3.088
80767SOL    HW244076   2.791  14.083   3.107
80768SOL     OW44077   8.870   2.964   6.182
80768SOL    HW144078   8.796   2.908   6.160
80768SOL    HW244079   8.946   2.921   6.143
80769SOL     OW44080   5.729  14.140  14.663
80769SOL    HW144081   5.680  14.061  14.638
80769SOL    HW244082   5.673  14.212  14.634
80770SOL     OW44083  13.375   1.416  11.575
80770SOL    HW144084  13.427   1.468  11.515
80770SOL    HW244085  13.414   1.328  11.571
80771SOL     OW44086  11.041   9.133   0.288
80771SOL    HW144087  10.994   9.066   0.239
80771SOL    HW244088  11.094   9.178   0.222
80772SOL     OW44089   4.574   1.121   9.845
80772SOL    HW144090   4.588   1.172   9.766
80772SOL    HW244091   4.628   1.042   9.832
80773SOL     OW44092  13.197   5.748   9.839
80773SOL    HW144093  13.287   5.758   9.809
80773SOL    HW244094  13.145   5.740   9.759
80774SOL     OW44095  12.904  14.724   5.333
80774SOL    HW144096  12.889  14.674   5.413
80774SOL    HW244097  12.993  14.758   5.342
80775SOL     OW44098  12.601   9.195  10.679
80775SOL    HW144099  12.692   9.168  10.665
80775SOL    HW244100  12.549   9.118  10.659
80776SOL     OW44101   0.695   8.017  11.661
80776SOL    HW144102   0.749   8.057  11.730
80776SOL    HW244103   0.758   7.979  11.600
80777SOL     OW44104   8.775   4.466  13.278
80777SOL    HW144105   8.728   4.405  13.334
80777SOL    HW244106   8.783   4.420  13.194
80778SOL     OW44107   3.440   9.711   8.011
80778SOL    HW144108   3.490   9.736   7.933
80778SOL    HW244109   3.376   9.648   7.978
80779SOL     OW44110   4.580   8.063   3.325
80779SOL    HW144111   4.496   8.081   3.366
80779SOL    HW244112   4.587   8.127   3.254
80780SOL     OW44113  13.728   6.654   7.510
80780SOL    HW144114  13.740   6.716   7.438
80780SOL    HW244115  13.656   6.598   7.481
80781SOL     OW44116   2.868   6.223  10.303
80781SOL    HW144117   2.804   6.270  10.356
80781SOL    HW244118   2.817   6.189  10.229
80782SOL     OW44119  11.627   1.839   2.268
80782SOL    HW144120  11.572   1.914   2.244
80782SOL    HW244121  11.695   1.837   2.201
80783SOL     OW44122   6.793   9.303  10.725
80783SOL    HW144123   6.853   9.239  10.764
80783SOL    HW244124   6.769   9.264  10.641
80784SOL     OW44125  12.560   6.298  13.818
80784SOL    HW144126  12.560   6.336  13.730
80784SOL    HW244127  12.537   6.206  13.806
80785SOL     OW44128   9.565  11.631   1.715
80785SOL    HW144129   9.490  11.617   1.657
80785SOL    HW244130   9.562  11.725   1.736
80786SOL     OW44131  14.197   6.243   3.069
80786SOL    HW144132  14.133   6.206   3.008
80786SOL    HW244133  14.146   6.263   3.147
80787SOL     OW44134   5.760   0.422   2.957
80787SOL    HW144135   5.854   0.407   2.971
80787SOL    HW244136   5.723   0.335   2.945
80788SOL     OW44137   2.299   2.110   7.993
80788SOL    HW144138   2.206   2.131   7.989
80788SOL    HW244139   2.303   2.024   8.034
80789SOL     OW44140   2.463  13.469   2.439
80789SOL    HW144141   2.516  13.544   2.412
80789SOL    HW244142   2.409  13.503   2.510
80790SOL     OW44143   6.002  14.233   6.215
80790SOL    HW144144   5.962  14.159   6.168
80790SOL    HW244145   6.058  14.192   6.281
80791SOL     OW44146   3.019   1.761  11.271
80791SOL    HW144147   2.992   1.684  11.321
80791SOL    HW244148   2.997   1.739  11.180
80792SOL     OW44149  11.374   2.779  13.305
80792SOL    HW144150  11.459   2.759  13.344
80792SOL    HW244151  11.353   2.867  13.337
80793SOL     OW44152   2.452   5.257   2.679
80793SOL    HW144153   2.365   5.293   2.661
80793SOL    HW244154   2.509   5.303   2.618
80794SOL     OW44155   7.256   4.208   3.488
80794SOL    HW144156   7.276   4.278   3.550
80794SOL    HW244157   7.250   4.251   3.403
80795SOL     OW44158   7.949   8.788   9.353
80795SOL    HW144159   8.041   8.813   9.362
80795SOL    HW244160   7.950   8.693   9.343
80796SOL     OW44161  13.158   1.818   2.234
80796SOL    HW144162  13.093   1.749   2.243
80796SOL    HW244163  13.237   1.782   2.274
80797SOL     OW44164   7.279  11.816   7.709
80797SOL    HW144165   7.367  11.816   7.672
80797SOL    HW244166   7.221  11.815   7.633
80798SOL     OW44167   7.256  14.411   7.486
80798SOL    HW144168   7.267  14.490   7.433
80798SOL    HW244169   7.207  14.351   7.429
80799SOL     OW44170   0.956   8.822   7.702
80799SOL    HW144171   0.973   8.845   7.611
80799SOL    HW244172   0.870   8.858   7.720
80800SOL     OW44173   7.097  14.068  13.074
80800SOL    HW144174   7.134  14.020  13.000
80800SOL    HW244175   7.024  14.118  13.037
80801SOL     OW44176  10.107  13.025   7.073
80801SOL    HW144177  10.044  13.018   7.145
80801SOL    HW244178  10.188  13.056   7.115
80802SOL     OW44179   9.100   4.010   5.154
80802SOL    HW144180   9.095   4.021   5.249
80802SOL    HW244181   9.009   4.005   5.125
80803SOL     OW44182   8.120   9.437   9.636
80803SOL    HW144183   8.138   9.451   9.543
80803SOL    HW244184   8.179   9.366   9.662
80804SOL     OW44185   8.878   9.580   6.841
80804SOL    HW144186   8.792   9.606   6.874
80804SOL    HW244187   8.884   9.486   6.858
80805SOL     OW44188   4.891   4.886   5.676
80805SOL    HW144189   4.870   4.839   5.757
80805SOL    HW244190   4.975   4.850   5.648
80806SOL     OW44191   5.228   7.571   7.046
80806SOL    HW144192   5.285   7.553   7.120
80806SOL    HW244193   5.287   7.572   6.970
80807SOL     OW44194   3.539   4.911  10.934
80807SOL    HW144195   3.490   4.830  10.919
80807SOL    HW244196   3.475   4.981  10.922
80808SOL     OW44197  14.077   1.171   2.895
80808SOL    HW144198  14.106   1.142   2.808
80808SOL    HW244199  13.981   1.161   2.892
80809SOL     OW44200   8.385  12.846   0.934
80809SOL    HW144201   8.299  12.814   0.908
80809SOL    HW244202   8.434  12.766   0.955
80810SOL     OW44203   0.015   0.132   4.051
80810SOL    HW144204  14.867   0.223   4.064
80810SOL    HW244205   0.097   0.123   4.100
80811SOL     OW44206   8.669   3.187   0.082
80811SOL    HW144207   8.700   3.111   0.132
80811SOL    HW244208   8.699   3.170  14.871
80812SOL     OW44209  13.758   7.607  12.864
80812SOL    HW144210  13.822   7.579  12.798
80812SOL    HW244211  13.735   7.526  12.910
80813SOL     OW44212  11.535  11.156   9.828
80813SOL    HW144213  11.533  11.171   9.922
80813SOL    HW244214  11.577  11.234   9.792
80814SOL     OW44215   3.500   3.376   4.100
80814SOL    HW144216   3.420   3.324   4.090
80814SOL    HW244217   3.469   3.464   4.121
80815SOL     OW44218   0.434   7.184  11.498
80815SOL    HW144219   0.431   7.218  11.588
80815SOL    HW244220   0.512   7.128  11.496
80816SOL     OW44221   2.432   6.002   6.839
80816SOL    HW144222   2.467   6.090   6.826
80816SOL    HW244223   2.427   5.992   6.934
80817SOL     OW44224   9.623   0.265   4.516
80817SOL    HW144225   9.685   0.216   4.462
80817SOL    HW244226   9.677   0.328   4.564
80818SOL     OW44227   0.612   1.443  11.455
80818SOL    HW144228   0.641   1.461  11.366
80818SOL    HW244229   0.568   1.358  11.449
80819SOL     OW44230   6.598   4.188   3.733
80819SOL    HW144231   6.520   4.238   3.709
80819SOL    HW244232   6.668   4.228   3.681
80820SOL     OW44233  11.301  12.699   1.529
80820SOL    HW144234  11.297  12.732   1.619
80820SOL    HW244235  11.336  12.610   1.538
80821SOL     OW44236   1.453   8.896   3.766
80821SOL    HW144237   1.529   8.916   3.712
80821SOL    HW244238   1.489   8.864   3.849
80822SOL     OW44239  11.668  10.503   4.447
80822SOL    HW144240  11.737  10.565   4.424
80822SOL    HW244241  11.589  10.557   4.458
80823SOL     OW44242   6.437   0.031   2.380
80823SOL    HW144243   6.526  14.875   2.363
80823SOL    HW244244   6.415   0.080   2.300
80824SOL     OW44245   9.207  12.523  10.649
80824SOL    HW144246   9.120  12.548  10.681
80824SOL    HW244247   9.190  12.470  10.572
80825SOL     OW44248   1.268  11.315   0.943
80825SOL    HW144249   1.209  11.242   0.961
80825SOL    HW244250   1.237  11.351   0.859
80826SOL     OW44251   7.687  13.389  11.475
80826SOL    HW144252   7.642  13.371  11.557
80826SOL    HW244253   7.658  13.320  11.416
80827SOL     OW44254   8.819   6.493   0.420
80827SOL    HW144255   8.767   6.556   0.371
80827SOL    HW244256   8.909   6.508   0.391
80828SOL     OW44257   6.405   7.927   1.258
80828SOL    HW144258   6.405   8.019   1.283
80828SOL    HW244259   6.334   7.889   1.310
80829SOL     OW44260   0.033  14.724   2.106
80829SOL    HW144261  14.859  14.800   2.080
80829SOL    HW244262  14.862  14.686   2.180
80830SOL     OW44263  14.355   0.415   5.288
80830SOL    HW144264  14.446   0.388   5.276
80830SOL    HW244265  14.306   0.361   5.226
80831SOL     OW44266   4.943   3.788   0.554
80831SOL    HW144267   4.969   3.700   0.526
80831SOL    HW244268   5.019   3.822   0.600
80832SOL     OW44269   5.786   3.841   7.395
80832SOL    HW144270   5.833   3.922   7.376
80832SOL    HW244271   5.707   3.846   7.342
80833SOL     OW44272   6.195   5.755   9.364
80833SOL    HW144273   6.251   5.820   9.321
80833SOL    HW244274   6.228   5.671   9.333
80834SOL     OW44275  10.067   9.126   4.593
80834SOL    HW144276  10.071   9.035   4.623
80834SOL    HW244277  10.064   9.120   4.497
80835SOL     OW44278   4.506   2.567   2.011
80835SOL    HW144279   4.477   2.602   1.927
80835SOL    HW244280   4.567   2.497   1.988
80836SOL     OW44281  12.491   2.871   5.437
80836SOL    HW144282  12.407   2.842   5.402
80836SOL    HW244283  12.530   2.923   5.367
80837SOL     OW44284   4.312   6.921   5.498
80837SOL    HW144285   4.344   6.832   5.510
80837SOL    HW244286   4.329   6.941   5.407
80838SOL     OW44287   0.539   2.136   8.925
80838SOL    HW144288   0.553   2.103   9.013
80838SOL    HW244289   0.470   2.202   8.934
80839SOL     OW44290   7.249  14.381   8.809
80839SOL    HW144291   7.180  14.398   8.874
80839SOL    HW244292   7.331  14.388   8.859
80840SOL     OW44293   0.975   8.531   3.668
80840SOL    HW144294   0.994   8.517   3.760
80840SOL    HW244295   1.014   8.616   3.647
80841SOL     OW44296   9.719  13.940  12.954
80841SOL    HW144297   9.635  13.986  12.952
80841SOL    HW244298   9.729  13.913  13.046
80842SOL     OW44299  12.923   9.481  13.499
80842SOL    HW144300  12.933   9.547  13.567
80842SOL    HW244301  12.962   9.521  13.421
80843SOL     OW44302   8.760   6.296  12.866
80843SOL    HW144303   8.699   6.349  12.917
80843SOL    HW244304   8.806   6.359  12.810
80844SOL     OW44305   6.764   5.851   4.771
80844SOL    HW144306   6.817   5.779   4.805
80844SOL    HW244307   6.802   5.930   4.811
80845SOL     OW44308   4.391   7.636   0.211
80845SOL    HW144309   4.471   7.584   0.197
80845SOL    HW244310   4.423   7.719   0.248
80846SOL     OW44311  10.350   1.487  12.265
80846SOL    HW144312  10.297   1.510  12.342
80846SOL    HW244313  10.320   1.399  12.241
80847SOL     OW44314   2.137   4.130   1.675
80847SOL    HW144315   2.197   4.093   1.740
80847SOL    HW244316   2.059   4.153   1.725
80848SOL     OW44317   3.934   5.680   4.717
80848SOL    HW144318   3.884   5.668   4.636
80848SOL    HW244319   3.951   5.774   4.721
80849SOL     OW44320   8.667   2.217   2.927
80849SOL    HW144321   8.677   2.122   2.923
80849SOL    HW244322   8.716   2.249   2.851
80850SOL     OW44323  10.758   9.267   8.982
80850SOL    HW144324  10.826   9.210   8.947
80850SOL    HW244325  10.724   9.313   8.905
80851SOL     OW44326  11.941   7.044   5.467
80851SOL    HW144327  11.957   7.113   5.403
80851SOL    HW244328  11.849   7.021   5.455
80852SOL     OW44329  12.189   6.203   6.362
80852SOL    HW144330  12.271   6.154   6.359
80852SOL    HW244331  12.162   6.199   6.454
80853SOL     OW44332   3.206  13.394  10.700
80853SOL    HW144333   3.286  13.427  10.741
80853SOL    HW244334   3.150  13.471  10.691
80854SOL     OW44335  11.634  13.639   3.971
80854SOL    HW144336  11.550  13.605   4.003
80854SOL    HW244337  11.613  13.682   3.888
80855SOL     OW44338   2.283   8.022   1.738
80855SOL    HW144339   2.303   7.972   1.659
80855SOL    HW244340   2.310   7.965   1.810
80856SOL     OW44341  10.167   1.099   2.683
80856SOL    HW144342  10.113   1.023   2.663
80856SOL    HW244343  10.166   1.151   2.602
80857SOL     OW44344  11.516   8.740   3.063
80857SOL    HW144345  11.469   8.773   2.987
80857SOL    HW244346  11.460   8.761   3.138
80858SOL     OW44347  12.521   2.589   9.249
80858SOL    HW144348  12.551   2.673   9.284
80858SOL    HW244349  12.601   2.541   9.229
80859SOL     OW44350   6.026   9.492   6.869
80859SOL    HW144351   5.971   9.559   6.911
80859SOL    HW244352   5.996   9.491   6.778
80860SOL     OW44353  11.500  10.334   3.387
80860SOL    HW144354  11.553  10.400   3.431
80860SOL    HW244355  11.564  10.281   3.338
80861SOL     OW44356  11.014  10.074  14.522
80861SOL    HW144357  11.109  10.065  14.524
80861SOL    HW244358  10.993  10.132  14.596
80862SOL     OW44359   5.269   5.889   8.229
80862SOL    HW144360   5.320   5.925   8.156
80862SOL    HW244361   5.266   5.795   8.212
80863SOL     OW44362  10.867   5.554   1.942
80863SOL    HW144363  10.915   5.630   1.975
80863SOL    HW244364  10.889   5.483   2.003
80864SOL     OW44365  12.443   8.602   6.116
80864SOL    HW144366  12.534   8.579   6.137
80864SOL    HW244367  12.394   8.578   6.194
80865SOL     OW44368   8.900  11.558  14.396
80865SOL    HW144369   8.870  11.607  14.472
80865SOL    HW244370   8.949  11.484  14.433
80866SOL     OW44371   8.772   1.438   8.603
80866SOL    HW144372   8.768   1.387   8.684
80866SOL    HW244373   8.682   1.439   8.572
80867SOL     OW44374   3.715   9.394   7.204
80867SOL    HW144375   3.695   9.322   7.144
80867SOL    HW244376   3.800   9.370   7.242
80868SOL     OW44377   2.746   1.849   5.409
80868SOL    HW144378   2.706   1.816   5.489
80868SOL    HW244379   2.840   1.843   5.426
80869SOL     OW44380   2.858   6.070   3.186
80869SOL    HW144381   2.953   6.070   3.193
80869SOL    HW244382   2.827   6.059   3.276
80870SOL     OW44383  14.419   8.938   8.817
80870SOL    HW144384  14.333   8.959   8.852
80870SOL    HW244385  14.423   8.843   8.814
80871SOL     OW44386   4.639   3.716   2.786
80871SOL    HW144387   4.600   3.641   2.742
80871SOL    HW244388   4.730   3.691   2.801
80872SOL     OW44389  14.377   1.009  14.127
80872SOL    HW144390  14.446   1.021  14.192
80872SOL    HW244391  14.418   1.031  14.043
80873SOL     OW44392   6.179   1.387  13.339
80873SOL    HW144393   6.201   1.410  13.248
80873SOL    HW244394   6.242   1.437  13.391
80874SOL     OW44395   0.257  12.889   5.056
80874SOL    HW144396   0.293  12.942   5.127
80874SOL    HW244397   0.200  12.826   5.099
80875SOL     OW44398   0.993  13.196  12.775
80875SOL    HW144399   0.992  13.292  12.782
80875SOL    HW244400   1.085  13.173  12.768
80876SOL     OW44401   0.013   9.118   2.962
80876SOL    HW144402  14.824   9.152   2.903
80876SOL    HW244403   0.067   9.195   2.983
80877SOL     OW44404  14.283  11.029  12.449
80877SOL    HW144405  14.201  10.982  12.465
80877SOL    HW244406  14.256  11.118  12.427
80878SOL     OW44407   8.162   8.857  14.076
80878SOL    HW144408   8.223   8.801  14.028
80878SOL    HW244409   8.084   8.860  14.020
80879SOL     OW44410   7.283  11.212  11.676
80879SOL    HW144411   7.310  11.121  11.691
80879SOL    HW244412   7.263  11.245  11.764
80880SOL     OW44413   5.975   9.189   6.879
80880SOL    HW144414   5.981   9.281   6.908
80880SOL    HW244415   5.882   9.167   6.890
80881SOL     OW44416   4.387   0.108   1.587
80881SOL    HW144417   4.406   0.167   1.513
80881SOL    HW244418   4.381   0.021   1.547
80882SOL     OW44419  14.640   8.624   4.947
80882SOL    HW144420  14.628   8.707   4.994
80882SOL    HW244421  14.730   8.627   4.915
80883SOL     OW44422  12.841  13.058  13.638
80883SOL    HW144423  12.762  13.112  13.639
80883SOL    HW244424  12.859  13.041  13.730
80884SOL     OW44425   3.593   7.034   5.322
80884SOL    HW144426   3.581   7.008   5.231
80884SOL    HW244427   3.504   7.054   5.353
80885SOL     OW44428   7.095   5.924  10.073
80885SOL    HW144429   7.058   5.949  10.158
80885SOL    HW244430   7.185   5.898  10.093
80886SOL     OW44431  13.388   5.065   5.357
80886SOL    HW144432  13.423   5.076   5.268
80886SOL    HW244433  13.293   5.073   5.346
80887SOL     OW44434  11.390   9.077   0.927
80887SOL    HW144435  11.394   9.021   1.005
80887SOL    HW244436  11.392   9.166   0.961
80888SOL     OW44437   7.128   5.966   0.842
80888SOL    HW144438   7.146   5.893   0.901
80888SOL    HW244439   7.079   6.029   0.895
80889SOL     OW44440   1.737   7.375   6.550
80889SOL    HW144441   1.707   7.463   6.573
80889SOL    HW244442   1.822   7.367   6.594
80890SOL     OW44443   1.523   3.146   9.528
80890SOL    HW144444   1.543   3.182   9.442
80890SOL    HW244445   1.607   3.117   9.562
80891SOL     OW44446   2.869   4.284   3.286
80891SOL    HW144447   2.773   4.282   3.291
80891SOL    HW244448   2.893   4.195   3.260
80892SOL     OW44449   0.969   7.021   8.425
80892SOL    HW144450   0.890   6.966   8.433
80892SOL    HW244451   0.991   7.044   8.515
80893SOL     OW44452   1.616   0.093   9.374
80893SOL    HW144453   1.548   0.161   9.376
80893SOL    HW244454   1.697   0.140   9.355
80894SOL     OW44455  14.296   6.980   7.209
80894SOL    HW144456  14.286   6.948   7.298
80894SOL    HW244457  14.215   6.955   7.165
80895SOL     OW44458   1.155   0.292   2.103
80895SOL    HW144459   1.132   0.249   2.185
80895SOL    HW244460   1.076   0.288   2.050
80896SOL     OW44461   7.283   7.193   5.366
80896SOL    HW144462   7.225   7.146   5.305
80896SOL    HW244463   7.266   7.286   5.348
80897SOL     OW44464   9.444   3.835   2.467
80897SOL    HW144465   9.353   3.826   2.439
80897SOL    HW244466   9.444   3.806   2.558
80898SOL     OW44467  13.287   9.905   6.593
80898SOL    HW144468  13.229   9.844   6.548
80898SOL    HW244469  13.292   9.871   6.683
80899SOL     OW44470   8.903   9.824   3.151
80899SOL    HW144471   8.836   9.892   3.149
80899SOL    HW244472   8.855   9.742   3.136
80900SOL     OW44473   8.677   2.533   8.441
80900SOL    HW144474   8.622   2.603   8.406
80900SOL    HW244475   8.758   2.540   8.391
80901SOL     OW44476   7.532  11.627  13.980
80901SOL    HW144477   7.519  11.583  14.064
80901SOL    HW244478   7.517  11.720  14.000
80902SOL     OW44479  11.461   9.559   5.274
80902SOL    HW144480  11.549   9.559   5.311
80902SOL    HW244481  11.403   9.547   5.349
80903SOL     OW44482   3.167   3.565  12.764
80903SOL    HW144483   3.113   3.623  12.818
80903SOL    HW244484   3.111   3.489  12.748
80904SOL     OW44485   2.015   3.199   9.265
80904SOL    HW144486   2.034   3.176   9.173
80904SOL    HW244487   1.961   3.277   9.259
80905SOL     OW44488   1.134  12.771  10.849
80905SOL    HW144489   1.055  12.730  10.883
80905SOL    HW244490   1.137  12.857  10.891
80906SOL     OW44491   2.703   1.376   9.176
80906SOL    HW144492   2.792   1.374   9.211
80906SOL    HW244493   2.706   1.322   9.098
80907SOL     OW44494   1.076   0.992  13.376
80907SOL    HW144495   1.136   0.938  13.325
80907SOL    HW244496   1.097   1.082  13.351
80908SOL     OW44497   9.871  12.936   0.288
80908SOL    HW144498   9.851  12.849   0.323
80908SOL    HW244499   9.833  12.997   0.351
80909SOL     OW44500   9.021   3.871  13.444
80909SOL    HW144501   9.028   3.967  13.436
80909SOL    HW244502   9.035   3.854  13.537
80910SOL     OW44503   3.561  11.828  12.576
80910SOL    HW144504   3.643  11.797  12.614
80910SOL    HW244505   3.584  11.855  12.487
80911SOL     OW44506  10.666   2.177  12.569
80911SOL    HW144507  10.699   2.141  12.487
80911SOL    HW244508  10.599   2.240  12.543
80912SOL     OW44509  11.954   7.211  11.255
80912SOL    HW144510  11.904   7.152  11.199
80912SOL    HW244511  12.036   7.228  11.207
80913SOL     OW44512  13.198   2.041   5.582
80913SOL    HW144513  13.243   2.119   5.548
80913SOL    HW244514  13.125   2.076   5.633
80914SOL     OW44515  10.015   5.207   9.222
80914SOL    HW144516  10.014   5.213   9.126
80914SOL    HW244517   9.928   5.238   9.248
80915SOL     OW44518  10.378   4.198   0.801
80915SOL    HW144519  10.473   4.199   0.786
80915SOL    HW244520  10.345   4.266   0.742
80916SOL     OW44521   1.686   1.282   3.485
80916SOL    HW144522   1.624   1.355   3.487
80916SOL    HW244523   1.721   1.284   3.396
80917SOL     OW44524   2.146   2.912   7.758
80917SOL    HW144525   2.114   2.942   7.673
80917SOL    HW244526   2.227   2.865   7.738
80918SOL     OW44527   0.676   2.674   2.451
80918SOL    HW144528   0.647   2.763   2.471
80918SOL    HW244529   0.595   2.625   2.438
80919SOL     OW44530   2.895  12.999  11.897
80919SOL    HW144531   2.895  13.081  11.947
80919SOL    HW244532   2.939  12.936  11.954
80920SOL     OW44533  14.754   8.226  13.284
80920SOL    HW144534  14.806   8.164  13.336
80920SOL    HW244535  14.737   8.179  13.202
80921SOL     OW44536  10.674   0.743   7.025
80921SOL    HW144537  10.743   0.698   6.978
80921SOL    HW244538  10.708   0.831   7.039
80922SOL     OW44539   8.882  12.413   1.006
80922SOL    HW144540   8.931  12.481   1.051
80922SOL    HW244541   8.908  12.421   0.915
80923SOL     OW44542  11.231   8.349   3.817
80923SOL    HW144543  11.289   8.315   3.885
80923SOL    HW244544  11.232   8.281   3.750
80924SOL     OW44545   3.663   4.841   3.645
80924SOL    HW144546   3.714   4.867   3.721
80924SOL    HW244547   3.727   4.799   3.587
80925SOL     OW44548   8.600   3.905   9.250
80925SOL    HW144549   8.624   3.836   9.311
80925SOL    HW244550   8.654   3.888   9.172
80926SOL     OW44551   4.105  10.123  11.818
80926SOL    HW144552   4.067  10.149  11.902
80926SOL    HW244553   4.184  10.177  11.810
80927SOL     OW44554   9.644   8.454  12.283
80927SOL    HW144555   9.641   8.549  12.296
80927SOL    HW244556   9.596   8.440  12.202
80928SOL     OW44557   7.424   1.005  13.841
80928SOL    HW144558   7.446   0.920  13.803
80928SOL    HW244559   7.487   1.017  13.913
80929SOL     OW44560   6.703  10.903   4.036
80929SOL    HW144561   6.690  10.922   4.129
80929SOL    HW244562   6.775  10.960   4.010
80930SOL     OW44563   9.328   1.111   5.091
80930SOL    HW144564   9.408   1.095   5.141
80930SOL    HW244565   9.261   1.059   5.135
80931SOL     OW44566   8.696   4.253   8.626
80931SOL    HW144567   8.604   4.278   8.626
80931SOL    HW244568   8.697   4.166   8.585
80932SOL     OW44569   6.833   0.559   1.476
80932SOL    HW144570   6.790   0.553   1.390
80932SOL    HW244571   6.906   0.498   1.470
80933SOL     OW44572   5.026   3.481   2.175
80933SOL    HW144573   5.096   3.468   2.111
80933SOL    HW244574   4.991   3.394   2.191
80934SOL     OW44575   4.711   7.989   7.889
80934SOL    HW144576   4.665   8.060   7.845
80934SOL    HW244577   4.787   7.972   7.834
80935SOL     OW44578  11.545   1.539   4.088
80935SOL    HW144579  11.524   1.604   4.154
80935SOL    HW244580  11.561   1.590   4.008
80936SOL     OW44581  12.345  11.865  10.785
80936SOL    HW144582  12.327  11.930  10.718
80936SOL    HW244583  12.347  11.782  10.737
80937SOL     OW44584   8.111   3.429   0.442
80937SOL    HW144585   8.128   3.493   0.373
80937SOL    HW244586   8.024   3.452   0.474
80938SOL     OW44587  11.065  11.180  13.002
80938SOL    HW144588  10.990  11.161  12.946
80938SOL    HW244589  11.103  11.094  13.020
80939SOL     OW44590   0.170   2.968   1.127
80939SOL    HW144591   0.170   3.030   1.200
80939SOL    HW244592   0.256   2.977   1.087
80940SOL     OW44593   0.929   7.507   9.863
80940SOL    HW144594   0.989   7.579   9.882
80940SOL    HW244595   0.908   7.517   9.770
80941SOL     OW44596   9.893   0.375   9.474
80941SOL    HW144597   9.917   0.356   9.565
80941SOL    HW244598   9.868   0.468   9.474
80942SOL     OW44599  13.594  13.339   6.242
80942SOL    HW144600  13.558  13.397   6.175
80942SOL    HW244601  13.519  13.313   6.295
80943SOL     OW44602   4.272   7.467   0.722
80943SOL    HW144603   4.339   7.399   0.713
80943SOL    HW244604   4.281   7.520   0.643
80944SOL     OW44605   8.152   6.069   4.727
80944SOL    HW144606   8.234   6.020   4.735
80944SOL    HW244607   8.098   6.036   4.799
80945SOL     OW44608  13.935   6.642   0.717
80945SOL    HW144609  14.029   6.626   0.720
80945SOL    HW244610  13.904   6.626   0.806
80946SOL     OW44611   7.353  13.129   6.735
80946SOL    HW144612   7.413  13.126   6.660
80946SOL    HW244613   7.400  13.181   6.801
80947SOL     OW44614   2.007  10.676  10.335
80947SOL    HW144615   2.002  10.677  10.430
80947SOL    HW244616   1.916  10.687  10.305
80948SOL     OW44617   4.415   9.071   1.869
80948SOL    HW144618   4.404   9.042   1.960
80948SOL    HW244619   4.401   9.165   1.872
80949SOL     OW44620   2.073   2.895   9.227
80949SOL    HW144621   2.073   2.828   9.159
80949SOL    HW244622   2.000   2.952   9.204
80950SOL     OW44623  11.109   4.455   1.642
80950SOL    HW144624  11.067   4.482   1.724
80950SOL    HW244625  11.175   4.391   1.670
80951SOL     OW44626   7.491  12.760   0.450
80951SOL    HW144627   7.533  12.718   0.375
80951SOL    HW244628   7.563  12.808   0.493
80952SOL     OW44629   8.624  11.544  10.360
80952SOL    HW144630   8.682  11.620  10.368
80952SOL    HW244631   8.656  11.482  10.424
80953SOL     OW44632   4.249   4.171   1.896
80953SOL    HW144633   4.325   4.116   1.875
80953SOL    HW244634   4.180   4.141   1.837
80954SOL     OW44635   5.150  11.370  10.238
80954SOL    HW144636   5.224  11.334  10.188
80954SOL    HW244637   5.084  11.389  10.172
80955SOL     OW44638   0.016   8.011  13.377
80955SOL    HW144639   0.104   8.045  13.395
80955SOL    HW244640  14.854   8.000  13.463
80956SOL     OW44641   8.981  11.795   0.653
80956SOL    HW144642   8.941  11.754   0.729
80956SOL    HW244643   9.053  11.737   0.630
80957SOL     OW44644   7.618   1.519   7.930
80957SOL    HW144645   7.698   1.559   7.896
80957SOL    HW244646   7.556   1.522   7.858
80958SOL     OW44647   4.712   7.082   4.593
80958SOL    HW144648   4.722   7.157   4.534
80958SOL    HW244649   4.763   7.012   4.552
80959SOL     OW44650   4.717   4.950   7.372
80959SOL    HW144651   4.637   4.913   7.409
80959SOL    HW244652   4.688   4.996   7.293
80960SOL     OW44653   4.094   7.012   9.366
80960SOL    HW144654   4.146   7.087   9.336
80960SOL    HW244655   4.085   6.957   9.288
80961SOL     OW44656   2.483   7.486   5.882
80961SOL    HW144657   2.543   7.474   5.809
80961SOL    HW244658   2.495   7.577   5.909
80962SOL     OW44659  10.884  10.809   5.188
80962SOL    HW144660  10.846  10.736   5.139
80962SOL    HW244661  10.826  10.883   5.168
80963SOL     OW44662   9.766   2.061   6.503
80963SOL    HW144663   9.712   2.132   6.539
80963SOL    HW244664   9.814   2.101   6.431
80964SOL     OW44665  14.250  12.119   3.016
80964SOL    HW144666  14.235  12.208   2.985
80964SOL    HW244667  14.319  12.128   3.082
80965SOL     OW44668  14.505  12.733   2.471
80965SOL    HW144669  14.482  12.665   2.408
80965SOL    HW244670  14.582  12.775   2.433
80966SOL     OW44671  13.792  12.489   3.964
80966SOL    HW144672  13.886  12.506   3.955
80966SOL    HW244673  13.753  12.536   3.890
80967SOL     OW44674  11.435   2.585   4.890
80967SOL    HW144675  11.400   2.497   4.878
80967SOL    HW244676  11.529   2.572   4.902
80968SOL     OW44677   5.273  13.833   0.465
80968SOL    HW144678   5.352  13.794   0.429
80968SOL    HW244679   5.229  13.760   0.509
80969SOL     OW44680  13.904   1.904  13.097
80969SOL    HW144681  13.995   1.880  13.114
80969SOL    HW244682  13.875   1.945  13.179
80970SOL     OW44683   9.006   1.621   4.675
80970SOL    HW144684   9.070   1.659   4.734
80970SOL    HW244685   8.937   1.687   4.667
80971SOL     OW44686   9.161  13.990   4.239
80971SOL    HW144687   9.230  13.938   4.198
80971SOL    HW244688   9.208  14.056   4.289
80972SOL     OW44689   9.580   2.215  14.543
80972SOL    HW144690   9.573   2.125  14.574
80972SOL    HW244691   9.504   2.227  14.487
80973SOL     OW44692   5.665   5.819   1.517
80973SOL    HW144693   5.575   5.792   1.536
80973SOL    HW244694   5.712   5.737   1.503
80974SOL     OW44695  13.788   9.013   2.660
80974SOL    HW144696  13.825   8.925   2.656
80974SOL    HW244697  13.864   9.070   2.676
80975SOL     OW44698  11.628   3.810   2.033
80975SOL    HW144699  11.671   3.731   1.999
80975SOL    HW244700  11.585   3.848   1.957
80976SOL     OW44701   8.178   0.388   1.137
80976SOL    HW144702   8.177   0.359   1.046
80976SOL    HW244703   8.101   0.444   1.145
80977SOL     OW44704   4.755  12.004  12.701
80977SOL    HW144705   4.705  12.030  12.779
80977SOL    HW244706   4.701  11.937  12.659
80978SOL     OW44707   6.111  12.398  10.167
80978SOL    HW144708   6.199  12.406  10.129
80978SOL    HW244709   6.054  12.385  10.091
80979SOL     OW44710   5.423   4.048   8.983
80979SOL    HW144711   5.379   4.029   8.900
80979SOL    HW244712   5.476   4.126   8.965
80980SOL     OW44713   6.870   8.177   1.282
80980SOL    HW144714   6.824   8.160   1.365
80980SOL    HW244715   6.850   8.101   1.228
80981SOL     OW44716   1.306   8.680   0.081
80981SOL    HW144717   1.225   8.681   0.133
80981SOL    HW244718   1.366   8.735   0.132
80982SOL     OW44719  13.076  10.178   1.660
80982SOL    HW144720  13.118  10.131   1.732
80982SOL    HW244721  12.989  10.201   1.693
80983SOL     OW44722  13.100  10.541   3.671
80983SOL    HW144723  13.056  10.625   3.658
80983SOL    HW244724  13.136  10.519   3.585
80984SOL     OW44725   4.696   2.668   3.884
80984SOL    HW144726   4.779   2.635   3.849
80984SOL    HW244727   4.711   2.762   3.895
80985SOL     OW44728   5.088  14.187  13.402
80985SOL    HW144729   5.095  14.166  13.309
80985SOL    HW244730   5.026  14.123  13.437
80986SOL     OW44731   7.652   3.119   5.087
80986SOL    HW144732   7.719   3.072   5.138
80986SOL    HW244733   7.684   3.209   5.084
80987SOL     OW44734   6.102  12.504   2.141
80987SOL    HW144735   6.147  12.560   2.204
80987SOL    HW244736   6.112  12.415   2.176
80988SOL     OW44737  13.516   2.613  11.474
80988SOL    HW144738  13.478   2.549  11.533
80988SOL    HW244739  13.444   2.641  11.418
80989SOL     OW44740   9.393  11.211   0.706
80989SOL    HW144741   9.310  11.246   0.737
80989SOL    HW244742   9.428  11.161   0.779
80990SOL     OW44743   6.349  10.422  14.210
80990SOL    HW144744   6.286  10.494  14.202
80990SOL    HW244745   6.339  10.374  14.128
80991SOL     OW44746   5.651   7.931   3.694
80991SOL    HW144747   5.648   7.858   3.756
80991SOL    HW244748   5.650   7.889   3.608
80992SOL     OW44749   8.376  11.641   0.448
80992SOL    HW144750   8.290  11.653   0.406
80992SOL    HW244751   8.422  11.580   0.391
80993SOL     OW44752   5.732   6.478   3.401
80993SOL    HW144753   5.808   6.436   3.360
80993SOL    HW244754   5.761   6.568   3.417
80994SOL     OW44755  12.841   7.207   1.046
80994SOL    HW144756  12.885   7.285   1.081
80994SOL    HW244757  12.787   7.175   1.119
80995SOL     OW44758   5.116  14.849   0.681
80995SOL    HW144759   5.123   0.066   0.668
80995SOL    HW244760   5.137  14.836   0.774
80996SOL     OW44761   3.650  12.572  10.432
80996SOL    HW144762   3.622  12.493  10.385
80996SOL    HW244763   3.605  12.565  10.517
80997SOL     OW44764  13.420  12.293   3.050
80997SOL    HW144765  13.433  12.373   3.000
80997SOL    HW244766  13.345  12.250   3.008
80998SOL     OW44767   7.747   9.406   0.284
80998SOL    HW144768   7.827   9.450   0.311
80998SOL    HW244769   7.692   9.405   0.363
80999SOL     OW44770   4.610   3.280   6.212
80999SOL    HW144771   4.552   3.356   6.217
80999SOL    HW244772   4.694   3.313   6.245
81000SOL     OW44773   4.764   2.277   4.871
81000SOL    HW144774   4.704   2.349   4.891
81000SOL    HW244775   4.754   2.216   4.944
81001SOL     OW44776   2.419   5.986   4.793
81001SOL    HW144777   2.389   5.955   4.708
81001SOL    HW244778   2.377   5.929   4.857
81002SOL     OW44779   7.585   3.866   2.177
81002SOL    HW144780   7.675   3.832   2.178
81002SOL    HW244781   7.561   3.868   2.084
81003SOL     OW44782  14.024  10.975  13.645
81003SOL    HW144783  13.939  10.995  13.605
81003SOL    HW244784  14.002  10.942  13.732
81004SOL     OW44785  11.867   7.688   9.844
81004SOL    HW144786  11.878   7.750   9.772
81004SOL    HW244787  11.862   7.602   9.802
81005SOL     OW44788   5.514   2.232   1.200
81005SOL    HW144789   5.435   2.252   1.251
81005SOL    HW244790   5.565   2.174   1.256
81006SOL     OW44791   0.927   9.221   1.640
81006SOL    HW144792   0.975   9.244   1.560
81006SOL    HW244793   0.835   9.219   1.612
81007SOL     OW44794   8.725  14.486   3.286
81007SOL    HW144795   8.658  14.417   3.285
81007SOL    HW244796   8.713  14.531   3.202
81008SOL     OW44797  12.818   2.984   2.555
81008SOL    HW144798  12.822   3.023   2.642
81008SOL    HW244799  12.768   2.903   2.566
81009SOL     OW44800  11.967   6.831  10.912
81009SOL    HW144801  11.882   6.789  10.897
81009SOL    HW244802  12.030   6.776  10.865
81010SOL     OW44803  11.194   9.926  13.138
81010SOL    HW144804  11.218   9.833  13.136
81010SOL    HW244805  11.275   9.972  13.113
81011SOL     OW44806   7.477   9.929   8.806
81011SOL    HW144807   7.528   9.930   8.725
81011SOL    HW244808   7.414  10.000   8.795
81012SOL     OW44809   4.643  11.089   3.061
81012SOL    HW144810   4.695  11.033   3.119
81012SOL    HW244811   4.566  11.037   3.040
81013SOL     OW44812  10.787  12.814  14.821
81013SOL    HW144813  10.799  12.822   0.038
81013SOL    HW244814  10.736  12.891  14.797
81014SOL     OW44815   1.396  13.483   3.389
81014SOL    HW144816   1.325  13.544   3.369
81014SOL    HW244817   1.440  13.521   3.465
81015SOL     OW44818   8.661  12.017   3.835
81015SOL    HW144819   8.735  11.956   3.838
81015SOL    HW244820   8.619  12.007   3.921
81016SOL     OW44821   2.741  14.512  11.586
81016SOL    HW144822   2.724  14.513  11.680
81016SOL    HW244823   2.784  14.428  11.571
81017SOL     OW44824  11.712   5.381   6.821
81017SOL    HW144825  11.677   5.469   6.806
81017SOL    HW244826  11.804   5.396   6.845
81018SOL     OW44827   1.648   1.137  10.749
81018SOL    HW144828   1.670   1.149  10.657
81018SOL    HW244829   1.720   1.085  10.785
81019SOL     OW44830   0.539   0.168   9.138
81019SOL    HW144831   0.627   0.181   9.175
81019SOL    HW244832   0.495   0.110   9.199
81020SOL     OW44833   0.564   8.042   9.629
81020SOL    HW144834   0.525   7.965   9.671
81020SOL    HW244835   0.549   8.027   9.536
81021SOL     OW44836   2.117   5.964  14.551
81021SOL    HW144837   2.145   5.930  14.636
81021SOL    HW244838   2.194   5.955  14.495
81022SOL     OW44839   5.762  10.099  11.260
81022SOL    HW144840   5.771  10.148  11.342
81022SOL    HW244841   5.677  10.054  11.269
81023SOL     OW44842  10.891   7.942   0.196
81023SOL    HW144843  10.957   7.894   0.248
81023SOL    HW244844  10.940   8.012   0.154
81024SOL     OW44845   6.525   0.173   3.533
81024SOL    HW144846   6.487   0.109   3.593
81024SOL    HW244847   6.555   0.244   3.590
81025SOL     OW44848  11.099  11.253   7.411
81025SOL    HW144849  11.130  11.166   7.386
81025SOL    HW244850  11.017  11.264   7.364
81026SOL     OW44851   4.546  12.156   9.614
81026SOL    HW144852   4.470  12.117   9.571
81026SOL    HW244853   4.593  12.081   9.652
81027SOL     OW44854  13.603   0.465   8.633
81027SOL    HW144855  13.583   0.373   8.613
81027SOL    HW244856  13.579   0.475   8.725
81028SOL     OW44857   9.116   0.356   1.203
81028SOL    HW144858   9.191   0.348   1.143
81028SOL    HW244859   9.127   0.283   1.265
81029SOL     OW44860  10.950   5.168   3.253
81029SOL    HW144861  10.873   5.111   3.249
81029SOL    HW244862  10.963   5.196   3.162
81030SOL     OW44863   3.459   6.271   5.637
81030SOL    HW144864   3.388   6.246   5.696
81030SOL    HW244865   3.533   6.218   5.665
81031SOL     OW44866   4.612   3.869   9.740
81031SOL    HW144867   4.669   3.898   9.811
81031SOL    HW244868   4.545   3.937   9.734
81032SOL     OW44869   1.768  12.088  10.594
81032SOL    HW144870   1.805  12.015  10.645
81032SOL    HW244871   1.837  12.154  10.594
81033SOL     OW44872   0.274  12.082   4.974
81033SOL    HW144873   0.214  12.151   4.944
81033SOL    HW244874   0.232  12.000   4.948
81034SOL     OW44875   7.891   5.246  14.404
81034SOL    HW144876   7.907   5.152  14.411
81034SOL    HW244877   7.967   5.287  14.446
81035SOL     OW44878   8.384   6.405   5.467
81035SOL    HW144879   8.471   6.432   5.495
81035SOL    HW244880   8.330   6.410   5.546
81036SOL     OW44881  11.777   6.010   4.224
81036SOL    HW144882  11.756   6.075   4.291
81036SOL    HW244883  11.699   6.006   4.169
81037SOL     OW44884   5.008   4.497  12.863
81037SOL    HW144885   4.956   4.570  12.828
81037SOL    HW244886   4.958   4.419  12.839
81038SOL     OW44887   2.067  10.543  12.394
81038SOL    HW144888   1.983  10.563  12.434
81038SOL    HW244889   2.129  10.544  12.467
81039SOL     OW44890   5.783  12.422   3.513
81039SOL    HW144891   5.741  12.337   3.521
81039SOL    HW244892   5.829  12.435   3.596
81040SOL     OW44893  10.021   0.841   6.708
81040SOL    HW144894  10.034   0.879   6.795
81040SOL    HW244895   9.999   0.750   6.725
81041SOL     OW44896   6.228   6.676   2.835
81041SOL    HW144897   6.268   6.762   2.843
81041SOL    HW244898   6.192   6.674   2.747
81042SOL     OW44899   6.537   3.080   6.731
81042SOL    HW144900   6.519   3.116   6.818
81042SOL    HW244901   6.505   3.146   6.671
81043SOL     OW44902   1.591  13.985   9.065
81043SOL    HW144903   1.675  13.984   9.110
81043SOL    HW244904   1.594  13.908   9.008
81044SOL     OW44905   1.839  10.521   2.927
81044SOL    HW144906   1.923  10.551   2.892
81044SOL    HW244907   1.805  10.462   2.860
81045SOL     OW44908   6.679   1.857   3.208
81045SOL    HW144909   6.718   1.928   3.258
81045SOL    HW244910   6.588   1.855   3.235
81046SOL     OW44911   7.923   0.750   9.029
81046SOL    HW144912   7.845   0.797   9.000
81046SOL    HW244913   7.952   0.798   9.107
81047SOL     OW44914   0.071   8.860   2.296
81047SOL    HW144915  14.867   8.897   2.264
81047SOL    HW244916   0.137   8.926   2.274
81048SOL     OW44917   3.853  13.046   8.895
81048SOL    HW144918   3.838  12.958   8.861
81048SOL    HW244919   3.937  13.072   8.857
81049SOL     OW44920   3.280   2.936   7.329
81049SOL    HW144921   3.278   3.008   7.393
81049SOL    HW244922   3.343   2.874   7.366
81050SOL     OW44923   8.958   7.641  11.566
81050SOL    HW144924   9.013   7.702  11.615
81050SOL    HW244925   8.885   7.622  11.625
81051SOL     OW44926   3.680   0.363  13.693
81051SOL    HW144927   3.740   0.380  13.620
81051SOL    HW244928   3.609   0.311  13.655
81052SOL     OW44929  12.367  11.361   0.324
81052SOL    HW144930  12.348  11.273   0.292
81052SOL    HW244931  12.286  11.390   0.366
81053SOL     OW44932   1.190   4.215   8.266
81053SOL    HW144933   1.126   4.229   8.196
81053SOL    HW244934   1.190   4.120   8.280
81054SOL     OW44935   9.167  13.806   2.064
81054SOL    HW144936   9.186  13.899   2.075
81054SOL    HW244937   9.253  13.765   2.053
81055SOL     OW44938   2.161  11.437  12.487
81055SOL    HW144939   2.180  11.347  12.512
81055SOL    HW244940   2.130  11.479  12.568
81056SOL     OW44941  11.641   5.565   3.268
81056SOL    HW144942  11.731   5.535   3.254
81056SOL    HW244943  11.605   5.575   3.180
81057SOL     OW44944   9.664  14.556  10.959
81057SOL    HW144945   9.638  14.466  10.979
81057SOL    HW244946   9.611  14.610  11.017
81058SOL     OW44947  11.324  12.854   6.539
81058SOL    HW144948  11.275  12.840   6.621
81058SOL    HW244949  11.318  12.948   6.523
81059SOL     OW44950   3.709   9.266  11.372
81059SOL    HW144951   3.647   9.330  11.338
81059SOL    HW244952   3.657   9.188  11.387
81060SOL     OW44953   3.382  14.139   0.375
81060SOL    HW144954   3.353  14.064   0.427
81060SOL    HW244955   3.301  14.177   0.341
81061SOL     OW44956  14.385  13.363   3.671
81061SOL    HW144957  14.476  13.383   3.646
81061SOL    HW244958  14.343  13.338   3.589
81062SOL     OW44959   9.112  11.778   2.487
81062SOL    HW144960   9.129  11.686   2.468
81062SOL    HW244961   9.196  11.821   2.476
81063SOL     OW44962   1.727  10.456   0.956
81063SOL    HW144963   1.663  10.394   0.988
81063SOL    HW244964   1.798  10.453   1.020
81064SOL     OW44965   0.355  12.955   4.538
81064SOL    HW144966   0.434  12.962   4.485
81064SOL    HW244967   0.341  13.043   4.572
81065SOL     OW44968   8.625   4.769  12.939
81065SOL    HW144969   8.700   4.724  12.979
81065SOL    HW244970   8.588   4.823  13.009
81066SOL     OW44971  14.716   7.045  11.702
81066SOL    HW144972  14.689   6.984  11.633
81066SOL    HW244973  14.634   7.073  11.743
81067SOL     OW44974  12.828   6.361   8.315
81067SOL    HW144975  12.781   6.431   8.269
81067SOL    HW244976  12.919   6.390   8.317
81068SOL     OW44977  13.650   9.583   3.659
81068SOL    HW144978  13.614   9.670   3.673
81068SOL    HW244979  13.700   9.590   3.578
81069SOL     OW44980  12.195   6.310   7.017
81069SOL    HW144981  12.215   6.376   6.951
81069SOL    HW244982  12.100   6.317   7.031
81070SOL     OW44983   8.747  12.646   8.286
81070SOL    HW144984   8.704  12.561   8.299
81070SOL    HW244985   8.778  12.642   8.196
81071SOL     OW44986   8.226   5.029   7.354
81071SOL    HW144987   8.241   4.935   7.340
81071SOL    HW244988   8.154   5.032   7.417
81072SOL     OW44989   6.099  13.802   4.269
81072SOL    HW144990   6.060  13.800   4.181
81072SOL    HW244991   6.147  13.720   4.275
81073SOL     OW44992   9.802  11.981  11.208
81073SOL    HW144993   9.795  12.056  11.149
81073SOL    HW244994   9.895  11.958  11.206
81074SOL     OW44995   6.914   8.367  11.840
81074SOL    HW144996   6.990   8.425  11.835
81074SOL    HW244997   6.851   8.406  11.779
81075SOL     OW44998  14.200  11.825  14.138
81075SOL    HW144999  14.293  11.831  14.158
81075SOL    HW245000  14.157  11.830  14.224
81076SOL     OW45001  10.627   4.275   1.499
81076SOL    HW145002  10.715   4.241   1.514
81076SOL    HW245003  10.640   4.369   1.485
81077SOL     OW45004  10.279  12.306   1.045
81077SOL    HW145005  10.340  12.319   1.117
81077SOL    HW245006  10.297  12.378   0.985
81078SOL     OW45007   6.291   3.492   6.214
81078SOL    HW145008   6.204   3.453   6.204
81078SOL    HW245009   6.275   3.586   6.217
81079SOL     OW45010   9.117   0.801  13.790
81079SOL    HW145011   9.078   0.757  13.715
81079SOL    HW245012   9.043   0.829  13.843
81080SOL     OW45013  14.770  14.117   2.777
81080SOL    HW145014  14.722  14.046   2.734
81080SOL    HW245015  14.845  14.074   2.818
81081SOL     OW45016  11.471   4.693  14.208
81081SOL    HW145017  11.435   4.605  14.218
81081SOL    HW245018  11.394   4.749  14.200
81082SOL     OW45019   4.981   4.575   5.688
81082SOL    HW145020   5.040   4.612   5.622
81082SOL    HW245021   4.942   4.499   5.645
81083SOL     OW45022  14.644   6.869   4.656
81083SOL    HW145023  14.629   6.939   4.592
81083SOL    HW245024  14.567   6.812   4.648
81084SOL     OW45025   5.357   6.055   1.026
81084SOL    HW145026   5.370   6.086   1.116
81084SOL    HW245027   5.443   6.022   0.999
81085SOL     OW45028   0.995   6.320   2.518
81085SOL    HW145029   1.020   6.384   2.583
81085SOL    HW245030   0.994   6.368   2.435
81086SOL     OW45031  13.245   3.182  13.554
81086SOL    HW145032  13.213   3.149  13.637
81086SOL    HW245033  13.312   3.247  13.579
81087SOL     OW45034  13.387  13.782   8.481
81087SOL    HW145035  13.351  13.732   8.408
81087SOL    HW245036  13.397  13.871   8.446
81088SOL     OW45037  10.930   7.936   5.729
81088SOL    HW145038  10.874   7.997   5.778
81088SOL    HW245039  11.018   7.950   5.766
81089SOL     OW45040  10.593  14.542   5.448
81089SOL    HW145041  10.512  14.556   5.399
81089SOL    HW245042  10.635  14.469   5.403
81090SOL     OW45043   1.135  10.301   3.610
81090SOL    HW145044   1.177  10.272   3.529
81090SOL    HW245045   1.127  10.395   3.600
81091SOL     OW45046   2.053   4.280   3.761
81091SOL    HW145047   2.136   4.292   3.807
81091SOL    HW245048   2.077   4.281   3.668
81092SOL     OW45049   6.405   0.318   5.881
81092SOL    HW145050   6.347   0.352   5.812
81092SOL    HW245051   6.428   0.230   5.852
81093SOL     OW45052  13.586   7.765  11.567
81093SOL    HW145053  13.639   7.845  11.568
81093SOL    HW245054  13.637   7.702  11.619
81094SOL     OW45055  12.640  12.685  13.117
81094SOL    HW145056  12.577  12.724  13.056
81094SOL    HW245057  12.686  12.619  13.064
81095SOL     OW45058   0.232   1.848   5.903
81095SOL    HW145059   0.223   1.798   5.822
81095SOL    HW245060   0.315   1.819   5.940
81096SOL     OW45061   7.454   7.761   1.099
81096SOL    HW145062   7.374   7.737   1.147
81096SOL    HW245063   7.517   7.782   1.168
81097SOL     OW45064  13.433   0.937  14.052
81097SOL    HW145065  13.503   0.890  14.006
81097SOL    HW245066  13.352   0.908  14.010
81098SOL     OW45067  10.957   2.259   3.996
81098SOL    HW145068  11.039   2.247   4.044
81098SOL    HW245069  10.983   2.301   3.914
81099SOL     OW45070  12.806   0.591   5.067
81099SOL    HW145071  12.757   0.512   5.088
81099SOL    HW245072  12.890   0.580   5.111
81100SOL     OW45073   2.585   4.144  10.323
81100SOL    HW145074   2.619   4.200  10.393
81100SOL    HW245075   2.502   4.183  10.298
81101SOL     OW45076   7.597   2.079   9.686
81101SOL    HW145077   7.530   2.011   9.693
81101SOL    HW245078   7.555   2.157   9.721
81102SOL     OW45079  10.141   0.691  10.967
81102SOL    HW145080  10.070   0.695  11.031
81102SOL    HW245081  10.216   0.732  11.011
81103SOL     OW45082   7.697  12.122   1.459
81103SOL    HW145083   7.777  12.101   1.506
81103SOL    HW245084   7.645  12.041   1.463
81104SOL     OW45085   4.771  11.964   6.224
81104SOL    HW145086   4.837  12.025   6.192
81104SOL    HW245087   4.820  11.902   6.277
81105SOL     OW45088   2.005  11.235  11.459
81105SOL    HW145089   2.096  11.249  11.482
81105SOL    HW245090   1.958  11.307  11.502
81106SOL     OW45091  13.345   4.029   4.963
81106SOL    HW145092  13.361   3.936   4.977
81106SOL    HW245093  13.303   4.033   4.877
81107SOL     OW45094   3.251   2.051   7.639
81107SOL    HW145095   3.282   2.043   7.729
81107SOL    HW245096   3.285   1.973   7.595
81108SOL     OW45097  13.489   0.858   1.628
81108SOL    HW145098  13.413   0.842   1.572
81108SOL    HW245099  13.532   0.772   1.635
81109SOL     OW45100   4.202  10.569   1.691
81109SOL    HW145101   4.174  10.510   1.621
81109SOL    HW245102   4.212  10.513   1.768
81110SOL     OW45103   7.456   1.917   4.153
81110SOL    HW145104   7.479   1.826   4.171
81110SOL    HW245105   7.519   1.945   4.085
81111SOL     OW45106   2.070   4.477   4.952
81111SOL    HW145107   2.034   4.484   5.040
81111SOL    HW245108   2.022   4.542   4.901
81112SOL     OW45109  12.398  12.726   3.525
81112SOL    HW145110  12.472  12.766   3.479
81112SOL    HW245111  12.387  12.781   3.603
81113SOL     OW45112   8.779  14.320  11.616
81113SOL    HW145113   8.694  14.307  11.575
81113SOL    HW245114   8.781  14.260  11.690
81114SOL     OW45115  14.086   2.832   4.898
81114SOL    HW145116  14.144   2.868   4.831
81114SOL    HW245117  14.056   2.749   4.861
81115SOL     OW45118  11.419   8.049   8.762
81115SOL    HW145119  11.429   8.118   8.697
81115SOL    HW245120  11.482   7.982   8.737
81116SOL     OW45121   6.282   5.039   5.507
81116SOL    HW145122   6.308   4.994   5.587
81116SOL    HW245123   6.288   4.972   5.439
81117SOL     OW45124  10.474   8.949  11.826
81117SOL    HW145125  10.487   8.920  11.735
81117SOL    HW245126  10.479   8.869  11.878
81118SOL     OW45127   2.341   4.561   3.816
81118SOL    HW145128   2.405   4.617   3.860
81118SOL    HW245129   2.267   4.619   3.798
81119SOL     OW45130  10.369  14.195   4.473
81119SOL    HW145131  10.346  14.267   4.532
81119SOL    HW245132  10.463  14.203   4.461
81120SOL     OW45133   2.644   4.841   7.082
81120SOL    HW145134   2.583   4.768   7.088
81120SOL    HW245135   2.592   4.918   7.106
81121SOL     OW45136   3.766   0.190   4.083
81121SOL    HW145137   3.836   0.152   4.029
81121SOL    HW245138   3.803   0.273   4.114
81122SOL     OW45139  14.636   1.114  11.164
81122SOL    HW145140  14.566   1.067  11.210
81122SOL    HW245141  14.660   1.055  11.092
81123SOL     OW45142   3.301   9.491  11.934
81123SOL    HW145143   3.321   9.524  12.022
81123SOL    HW245144   3.357   9.542  11.876
81124SOL     OW45145   1.329  12.945  13.612
81124SOL    HW145146   1.309  12.890  13.688
81124SOL    HW245147   1.247  12.948  13.562
81125SOL     OW45148  12.368   6.992   5.480
81125SOL    HW145149  12.367   6.950   5.393
81125SOL    HW245150  12.461   7.003   5.500
81126SOL     OW45151  12.070   2.049   8.023
81126SOL    HW145152  12.062   1.975   8.084
81126SOL    HW245153  12.069   2.008   7.937
81127SOL     OW45154  13.724   4.980   5.905
81127SOL    HW145155  13.802   4.959   5.854
81127SOL    HW245156  13.670   5.032   5.845
81128SOL     OW45157   4.438  11.447  11.552
81128SOL    HW145158   4.357  11.398  11.569
81128SOL    HW245159   4.413  11.513  11.488
81129SOL     OW45160   7.858   3.261   0.088
81129SOL    HW145161   7.822   3.247   0.001
81129SOL    HW245162   7.909   3.342   0.079
81130SOL     OW45163   8.028  12.711   4.214
81130SOL    HW145164   8.100  12.727   4.276
81130SOL    HW245165   8.062  12.741   4.130
81131SOL     OW45166   7.274  10.364  11.925
81131SOL    HW145167   7.302  10.281  11.886
81131SOL    HW245168   7.303  10.431  11.863
81132SOL     OW45169  14.354  12.396  13.901
81132SOL    HW145170  14.275  12.409  13.954
81132SOL    HW245171  14.396  12.318  13.938
81133SOL     OW45172  11.831   1.797  14.753
81133SOL    HW145173  11.820   1.719  14.807
81133SOL    HW245174  11.819   1.870  14.813
81134SOL     OW45175   6.847  13.956   5.521
81134SOL    HW145176   6.835  14.050   5.505
81134SOL    HW245177   6.906  13.951   5.596
81135SOL     OW45178   8.054   7.415   3.118
81135SOL    HW145179   8.143   7.395   3.089
81135SOL    HW245180   8.031   7.343   3.178
81136SOL     OW45181  12.917   1.156  14.583
81136SOL    HW145182  12.983   1.211  14.625
81136SOL    HW245183  12.841   1.160  14.642
81137SOL     OW45184   7.668   7.962   3.365
81137SOL    HW145185   7.690   7.895   3.430
81137SOL    HW245186   7.724   8.036   3.387
81138SOL     OW45187   4.281   9.080  12.893
81138SOL    HW145188   4.223   9.104  12.966
81138SOL    HW245189   4.300   8.988  12.908
81139SOL     OW45190   1.368  11.481  12.217
81139SOL    HW145191   1.447  11.427  12.221
81139SOL    HW245192   1.333  11.478  12.306
81140SOL     OW45193   1.164   2.584   2.630
81140SOL    HW145194   1.251   2.566   2.593
81140SOL    HW245195   1.112   2.507   2.607
81141SOL     OW45196   1.922   1.147   9.954
81141SOL    HW145197   1.845   1.204   9.957
81141SOL    HW245198   1.988   1.195  10.005
81142SOL     OW45199  14.253  10.184   2.993
81142SOL    HW145200  14.289  10.150   3.075
81142SOL    HW245201  14.277  10.276   2.992
81143SOL     OW45202  12.933   6.350  10.435
81143SOL    HW145203  13.009   6.360  10.377
81143SOL    HW245204  12.859   6.378  10.382
81144SOL     OW45205   4.252   4.170  11.211
81144SOL    HW145206   4.219   4.081  11.206
81144SOL    HW245207   4.259   4.198  11.119
81145SOL     OW45208  10.842   3.855   0.585
81145SOL    HW145209  10.822   3.825   0.496
81145SOL    HW245210  10.873   3.945   0.574
81146SOL     OW45211   9.817   7.968  14.307
81146SOL    HW145212   9.724   7.970  14.284
81146SOL    HW245213   9.822   8.016  14.390
81147SOL     OW45214   8.531   4.174   4.056
81147SOL    HW145215   8.436   4.183   4.045
81147SOL    HW245216   8.547   4.080   4.050
81148SOL     OW45217   9.753   3.661   8.474
81148SOL    HW145218   9.778   3.742   8.429
81148SOL    HW245219   9.836   3.619   8.496
81149SOL     OW45220   4.769   3.174  11.812
81149SOL    HW145221   4.747   3.247  11.754
81149SOL    HW245222   4.771   3.097  11.755
81150SOL     OW45223  13.085   3.819  13.693
81150SOL    HW145224  13.025   3.846  13.624
81150SOL    HW245225  13.142   3.754  13.651
81151SOL     OW45226   9.122   9.859   4.926
81151SOL    HW145227   9.117   9.770   4.962
81151SOL    HW245228   9.165   9.910   4.994
81152SOL     OW45229   5.531   1.269   1.720
81152SOL    HW145230   5.613   1.225   1.697
81152SOL    HW245231   5.495   1.216   1.792
81153SOL     OW45232   2.458   6.430  13.259
81153SOL    HW145233   2.467   6.474  13.174
81153SOL    HW245234   2.425   6.497  13.318
81154SOL     OW45235  11.508   7.388   8.289
81154SOL    HW145236  11.573   7.400   8.219
81154SOL    HW245237  11.489   7.477   8.319
81155SOL     OW45238   4.468   1.321   2.668
81155SOL    HW145239   4.507   1.268   2.738
81155SOL    HW245240   4.536   1.325   2.601
81156SOL     OW45241   7.539   4.424  11.523
81156SOL    HW145242   7.545   4.444  11.429
81156SOL    HW245243   7.509   4.505  11.563
81157SOL     OW45244  13.360   6.829   3.453
81157SOL    HW145245  13.338   6.736   3.459
81157SOL    HW245246  13.455   6.833   3.462
81158SOL     OW45247  14.213  14.335   9.803
81158SOL    HW145248  14.182  14.394   9.872
81158SOL    HW245249  14.255  14.392   9.739
81159SOL     OW45250   1.510  10.752   2.354
81159SOL    HW145251   1.490  10.790   2.268
81159SOL    HW245252   1.597  10.715   2.344
81160SOL     OW45253   9.490   2.387   7.159
81160SOL    HW145254   9.539   2.324   7.107
81160SOL    HW245255   9.482   2.345   7.245
81161SOL     OW45256   3.098   6.087   7.731
81161SOL    HW145257   3.062   6.031   7.800
81161SOL    HW245258   3.033   6.156   7.719
81162SOL     OW45259   6.091   3.124   8.079
81162SOL    HW145260   6.113   3.078   8.160
81162SOL    HW245261   6.054   3.208   8.108
81163SOL     OW45262  11.292   0.365   8.929
81163SOL    HW145263  11.215   0.352   8.983
81163SOL    HW245264  11.339   0.438   8.970
81164SOL     OW45265   6.457   4.094   2.815
81164SOL    HW145266   6.458   4.054   2.728
81164SOL    HW245267   6.541   4.139   2.822
81165SOL     OW45268   7.697   2.229   1.428
81165SOL    HW145269   7.684   2.210   1.521
81165SOL    HW245270   7.783   2.270   1.423
81166SOL     OW45271   2.615  14.496   7.309
81166SOL    HW145272   2.629  14.588   7.287
81166SOL    HW245273   2.540  14.496   7.368
81167SOL     OW45274  12.479   0.311   2.414
81167SOL    HW145275  12.436   0.262   2.484
81167SOL    HW245276  12.407   0.356   2.369
81168SOL     OW45277   2.590  10.347  14.342
81168SOL    HW145278   2.510  10.369  14.295
81168SOL    HW245279   2.660  10.386  14.289
81169SOL     OW45280   9.490   8.120   2.401
81169SOL    HW145281   9.583   8.131   2.421
81169SOL    HW245282   9.449   8.106   2.486
81170SOL     OW45283  12.484  11.869   5.722
81170SOL    HW145284  12.399  11.828   5.707
81170SOL    HW245285  12.485  11.888   5.816
81171SOL     OW45286   0.582   5.969   7.829
81171SOL    HW145287   0.581   5.876   7.809
81171SOL    HW245288   0.619   6.010   7.751
81172SOL     OW45289  10.422  14.703  12.277
81172SOL    HW145290  10.417  14.663  12.364
81172SOL    HW245291  10.382  14.789  12.288
81173SOL     OW45292  13.890   5.797  14.278
81173SOL    HW145293  13.811   5.851  14.266
81173SOL    HW245294  13.856   5.710  14.300
81174SOL     OW45295   7.929  11.295   4.228
81174SOL    HW145296   7.914  11.274   4.320
81174SOL    HW245297   7.991  11.368   4.229
81175SOL     OW45298   6.225   8.198   8.262
81175SOL    HW145299   6.234   8.134   8.192
81175SOL    HW245300   6.314   8.207   8.297
81176SOL     OW45301   6.663   5.959  10.027
81176SOL    HW145302   6.704   6.041  10.000
81176SOL    HW245303   6.574   5.964   9.992
81177SOL     OW45304   9.810   2.675  12.443
81177SOL    HW145305   9.856   2.687  12.527
81177SOL    HW245306   9.809   2.580  12.430
81178SOL     OW45307   6.412   6.576   7.044
81178SOL    HW145308   6.501   6.544   7.029
81178SOL    HW245309   6.365   6.550   6.965
81179SOL     OW45310  10.263   0.342   6.256
81179SOL    HW145311  10.314   0.413   6.295
81179SOL    HW245312  10.328   0.280   6.223
81180SOL     OW45313   3.587  12.650   1.963
81180SOL    HW145314   3.551  12.598   2.035
81180SOL    HW245315   3.517  12.651   1.897
81181SOL     OW45316   7.874  13.045   7.872
81181SOL    HW145317   7.889  13.095   7.952
81181SOL    HW245318   7.803  12.985   7.893
81182SOL     OW45319  14.248  11.200  11.847
81182SOL    HW145320  14.203  11.237  11.771
81182SOL    HW245321  14.203  11.118  11.865
81183SOL     OW45322   8.110  11.635   9.074
81183SOL    HW145323   8.071  11.548   9.076
81183SOL    HW245324   8.077  11.675   8.993
81184SOL     OW45325  12.078  13.472   4.880
81184SOL    HW145326  12.008  13.461   4.944
81184SOL    HW245327  12.069  13.396   4.821
81185SOL     OW45328  14.371   7.068  10.113
81185SOL    HW145329  14.425   7.080  10.191
81185SOL    HW245330  14.287   7.037  10.146
81186SOL     OW45331   7.710   5.413   5.749
81186SOL    HW145332   7.722   5.431   5.842
81186SOL    HW245333   7.750   5.487   5.705
81187SOL     OW45334   3.753  11.177   7.655
81187SOL    HW145335   3.752  11.121   7.733
81187SOL    HW245336   3.775  11.118   7.583
81188SOL     OW45337   8.288  10.770   3.957
81188SOL    HW145338   8.248  10.695   3.914
81188SOL    HW245339   8.327  10.821   3.886
81189SOL     OW45340   9.655   0.495   5.932
81189SOL    HW145341   9.637   0.441   6.010
81189SOL    HW245342   9.661   0.432   5.860
81190SOL     OW45343  13.744   8.129  13.390
81190SOL    HW145344  13.818   8.069  13.396
81190SOL    HW245345  13.696   8.102  13.311
81191SOL     OW45346   8.205   7.357   0.784
81191SOL    HW145347   8.173   7.313   0.863
81191SOL    HW245348   8.289   7.316   0.766
81192SOL     OW45349   6.051   5.776   5.494
81192SOL    HW145350   6.046   5.788   5.589
81192SOL    HW245351   6.020   5.686   5.479
81193SOL     OW45352  12.766   9.495   3.572
81193SOL    HW145353  12.849   9.490   3.524
81193SOL    HW245354  12.703   9.449   3.518
81194SOL     OW45355  10.460   1.093  12.846
81194SOL    HW145356  10.479   1.187  12.853
81194SOL    HW245357  10.534   1.050  12.890
81195SOL     OW45358   7.861   7.925   9.297
81195SOL    HW145359   7.868   7.928   9.202
81195SOL    HW245360   7.773   7.958   9.315
81196SOL     OW45361   3.002   0.028   8.421
81196SOL    HW145362   3.076  14.846   8.416
81196SOL    HW245363   2.985   0.038   8.515
81197SOL     OW45364   9.084   9.630  12.998
81197SOL    HW145365   9.023   9.575  13.046
81197SOL    HW245366   9.122   9.688  13.064
81198SOL     OW45367   9.901   7.008  14.854
81198SOL    HW145368   9.940   7.078  14.802
81198SOL    HW245369   9.826   7.050   0.020
81199SOL     OW45370  12.542  10.748   7.445
81199SOL    HW145371  12.462  10.726   7.492
81199SOL    HW245372  12.567  10.834   7.481
81200SOL     OW45373  13.445  10.855   4.266
81200SOL    HW145374  13.423  10.769   4.228
81200SOL    HW245375  13.398  10.858   4.349
81201SOL     OW45376   4.409   0.246   1.333
81201SOL    HW145377   4.447   0.317   1.282
81201SOL    HW245378   4.463   0.170   1.314
81202SOL     OW45379  12.366  11.032  12.810
81202SOL    HW145380  12.395  10.942  12.821
81202SOL    HW245381  12.292  11.042  12.871
81203SOL     OW45382   7.715   5.766  10.620
81203SOL    HW145383   7.630   5.756  10.662
81203SOL    HW245384   7.778   5.742  10.689
81204SOL     OW45385  12.886  12.748   5.632
81204SOL    HW145386  12.916  12.804   5.704
81204SOL    HW245387  12.893  12.804   5.554
81205SOL     OW45388  10.848   7.295  11.001
81205SOL    HW145389  10.891   7.353  11.063
81205SOL    HW245390  10.856   7.339  10.916
81206SOL     OW45391  12.081  11.511   7.223
81206SOL    HW145392  12.055  11.586   7.277
81206SOL    HW245393  12.103  11.443   7.286
81207SOL     OW45394   6.057   7.885  11.032
81207SOL    HW145395   6.142   7.857  11.000
81207SOL    HW245396   6.002   7.890  10.953
81208SOL     OW45397  14.813   1.421   9.710
81208SOL    HW145398  14.794   1.435   9.617
81208SOL    HW245399   0.031   1.420   9.715
81209SOL     OW45400   6.529   0.091   8.410
81209SOL    HW145401   6.442   0.100   8.449
81209SOL    HW245402   6.518   0.120   8.320
81210SOL     OW45403   3.660   3.444   5.975
81210SOL    HW145404   3.708   3.429   6.056
81210SOL    HW245405   3.583   3.387   5.981
81211SOL     OW45406   3.981   1.945   8.709
81211SOL    HW145407   3.961   1.851   8.708
81211SOL    HW245408   3.895   1.987   8.716
81212SOL     OW45409   2.710  13.599   6.393
81212SOL    HW145410   2.657  13.589   6.472
81212SOL    HW245411   2.680  13.682   6.354
81213SOL     OW45412   6.453   5.063  14.771
81213SOL    HW145413   6.459   4.981  14.722
81213SOL    HW245414   6.440   5.130  14.703
81214SOL     OW45415  13.277  13.807   5.904
81214SOL    HW145416  13.320  13.892   5.910
81214SOL    HW245417  13.202  13.822   5.846
81215SOL     OW45418  11.543   7.891   7.895
81215SOL    HW145419  11.463   7.852   7.929
81215SOL    HW245420  11.568   7.955   7.961
81216SOL     OW45421   1.728   4.470   2.851
81216SOL    HW145422   1.779   4.514   2.782
81216SOL    HW245423   1.681   4.541   2.895
81217SOL     OW45424  12.617   8.127  12.914
81217SOL    HW145425  12.545   8.188  12.897
81217SOL    HW245426  12.660   8.116  12.830
81218SOL     OW45427   3.733   2.164  13.836
81218SOL    HW145428   3.818   2.170  13.878
81218SOL    HW245429   3.706   2.073  13.849
81219SOL     OW45430  12.822   4.822  12.096
81219SOL    HW145431  12.893   4.880  12.067
81219SOL    HW245432  12.806   4.847  12.186
81220SOL     OW45433   6.417  14.265  10.790
81220SOL    HW145434   6.438  14.181  10.748
81220SOL    HW245435   6.502  14.304  10.810
81221SOL     OW45436   7.456   6.808  11.971
81221SOL    HW145437   7.391   6.758  12.021
81221SOL    HW245438   7.498   6.865  12.036
81222SOL     OW45439   4.875   3.165  11.098
81222SOL    HW145440   4.903   3.137  11.185
81222SOL    HW245441   4.799   3.110  11.078
81223SOL     OW45442   5.811  12.119   0.978
81223SOL    HW145443   5.742  12.084   0.922
81223SOL    HW245444   5.775  12.114   1.067
81224SOL     OW45445   9.933   4.470   4.377
81224SOL    HW145446   9.846   4.507   4.386
81224SOL    HW245447   9.919   4.375   4.370
81225SOL     OW45448  12.387   1.676   0.530
81225SOL    HW145449  12.293   1.685   0.517
81225SOL    HW245450  12.400   1.685   0.624
81226SOL     OW45451  11.629   1.905   8.786
81226SOL    HW145452  11.648   1.973   8.721
81226SOL    HW245453  11.654   1.823   8.744
81227SOL     OW45454  13.490   5.060  12.301
81227SOL    HW145455  13.475   5.067  12.395
81227SOL    HW245456  13.584   5.042  12.293
81228SOL     OW45457  12.200   7.611  11.929
81228SOL    HW145458  12.288   7.575  11.914
81228SOL    HW245459  12.141   7.537  11.919
81229SOL     OW45460   1.677   5.601   8.180
81229SOL    HW145461   1.670   5.696   8.169
81229SOL    HW245462   1.596   5.576   8.225
81230SOL     OW45463  11.685  12.078   7.076
81230SOL    HW145464  11.592  12.102   7.081
81230SOL    HW245465  11.685  11.982   7.082
81231SOL     OW45466   3.372  13.044   2.429
81231SOL    HW145467   3.461  13.035   2.462
81231SOL    HW245468   3.355  13.138   2.429
81232SOL     OW45469   1.872   7.262   0.526
81232SOL    HW145470   1.823   7.217   0.457
81232SOL    HW245471   1.963   7.253   0.500
81233SOL     OW45472   3.848   4.807  14.198
81233SOL    HW145473   3.893   4.888  14.172
81233SOL    HW245474   3.892   4.738  14.150
81234SOL     OW45475   1.547   1.669   1.365
81234SOL    HW145476   1.597   1.608   1.420
81234SOL    HW245477   1.572   1.756   1.397
81235SOL     OW45478   2.114  13.438   2.164
81235SOL    HW145479   2.123  13.345   2.141
81235SOL    HW245480   2.164  13.447   2.245
81236SOL     OW45481   2.335   8.621   6.458
81236SOL    HW145482   2.260   8.634   6.515
81236SOL    HW245483   2.410   8.653   6.508
81237SOL     OW45484  12.714   5.444   4.323
81237SOL    HW145485  12.738   5.433   4.415
81237SOL    HW245486  12.641   5.383   4.310
81238SOL     OW45487  13.058  13.465   7.768
81238SOL    HW145488  13.105  13.545   7.747
81238SOL    HW245489  13.006  13.447   7.691
81239SOL     OW45490  14.009   9.459   8.540
81239SOL    HW145491  13.949   9.400   8.584
81239SOL    HW245492  14.029   9.416   8.457
81240SOL     OW45493  10.591   4.571  12.836
81240SOL    HW145494  10.625   4.558  12.924
81240SOL    HW245495  10.656   4.529  12.779
81241SOL     OW45496   3.007   4.767   3.219
81241SOL    HW145497   3.068   4.745   3.290
81241SOL    HW245498   2.921   4.751   3.257
81242SOL     OW45499   7.984  10.600   5.352
81242SOL    HW145500   8.066  10.628   5.312
81242SOL    HW245501   8.001  10.512   5.383
81243SOL     OW45502   0.605   4.942   9.059
81243SOL    HW145503   0.638   5.020   9.103
81243SOL    HW245504   0.527   4.972   9.012
81244SOL     OW45505   1.365  11.039   1.802
81244SOL    HW145506   1.326  10.977   1.864
81244SOL    HW245507   1.380  10.988   1.723
81245SOL     OW45508   2.581   5.213  14.621
81245SOL    HW145509   2.640   5.267  14.568
81245SOL    HW245510   2.640   5.152  14.666
81246SOL     OW45511  13.568   9.008   2.859
81246SOL    HW145512  13.627   9.019   2.784
81246SOL    HW245513  13.595   8.925   2.899
81247SOL     OW45514   7.666   2.720   7.240
81247SOL    HW145515   7.759   2.701   7.226
81247SOL    HW245516   7.620   2.648   7.196
81248SOL     OW45517   3.833   5.771   7.536
81248SOL    HW145518   3.925   5.746   7.540
81248SOL    HW245519   3.828   5.835   7.465
81249SOL     OW45520  13.510  11.222  13.759
81249SOL    HW145521  13.605  11.230  13.769
81249SOL    HW245522  13.492  11.258  13.673
81250SOL     OW45523  14.537   7.142   9.901
81250SOL    HW145524  14.493   7.091   9.969
81250SOL    HW245525  14.606   7.189   9.947
81251SOL     OW45526   7.013   5.642   5.992
81251SOL    HW145527   7.073   5.715   5.974
81251SOL    HW245528   6.958   5.636   5.914
81252SOL     OW45529   4.516   0.443   3.926
81252SOL    HW145530   4.573   0.402   3.859
81252SOL    HW245531   4.552   0.412   4.009
81253SOL     OW45532   6.177   5.045  13.169
81253SOL    HW145533   6.180   4.970  13.229
81253SOL    HW245534   6.116   5.018  13.100
81254SOL     OW45535   1.221  11.483  13.916
81254SOL    HW145536   1.270  11.478  13.834
81254SOL    HW245537   1.178  11.397  13.923
81255SOL     OW45538   0.870   8.524  12.714
81255SOL    HW145539   0.810   8.495  12.782
81255SOL    HW245540   0.814   8.544  12.639
81256SOL     OW45541   4.430   6.068   1.664
81256SOL    HW145542   4.417   6.156   1.699
81256SOL    HW245543   4.459   6.082   1.574
81257SOL     OW45544   9.430   7.519  13.848
81257SOL    HW145545   9.518   7.554  13.832
81257SOL    HW245546   9.375   7.597  13.857
81258SOL     OW45547  11.243  13.941   1.365
81258SOL    HW145548  11.187  13.940   1.288
81258SOL    HW245549  11.219  14.021   1.411
81259SOL     OW45550  11.834   9.227   9.681
81259SOL    HW145551  11.856   9.313   9.718
81259SOL    HW245552  11.859   9.233   9.589
81260SOL     OW45553   2.521  10.846   3.079
81260SOL    HW145554   2.490  10.778   3.139
81260SOL    HW245555   2.594  10.887   3.125
81261SOL     OW45556   0.225   0.100  10.719
81261SOL    HW145557   0.154   0.138  10.666
81261SOL    HW245558   0.255   0.025  10.667
81262SOL     OW45559  12.497   9.402   6.053
81262SOL    HW145560  12.513   9.319   6.098
81262SOL    HW245561  12.474   9.463   6.123
81263SOL     OW45562   7.963   7.124   0.388
81263SOL    HW145563   8.021   7.077   0.329
81263SOL    HW245564   7.951   7.065   0.462
81264SOL     OW45565   0.161   5.724   2.997
81264SOL    HW145566   0.212   5.791   2.951
81264SOL    HW245567   0.204   5.716   3.082
81265SOL     OW45568   8.057  13.502   4.438
81265SOL    HW145569   8.091  13.566   4.375
81265SOL    HW245570   8.135  13.469   4.483
81266SOL     OW45571  11.566  13.282  10.077
81266SOL    HW145572  11.629  13.321  10.017
81266SOL    HW245573  11.619  13.248  10.149
81267SOL     OW45574  12.994   2.987   1.826
81267SOL    HW145575  13.020   3.051   1.892
81267SOL    HW245576  13.012   2.902   1.866
81268SOL     OW45577  12.034   4.773   7.105
81268SOL    HW145578  12.063   4.716   7.177
81268SOL    HW245579  11.986   4.843   7.149
81269SOL     OW45580  12.172   7.018  12.689
81269SOL    HW145581  12.129   7.009  12.603
81269SOL    HW245582  12.134   6.947  12.741
81270SOL     OW45583  11.155  14.709   6.544
81270SOL    HW145584  11.133  14.663   6.625
81270SOL    HW245585  11.193  14.792   6.573
81271SOL     OW45586   1.304   3.181  11.332
81271SOL    HW145587   1.273   3.093  11.310
81271SOL    HW245588   1.309   3.227  11.248
81272SOL     OW45589  10.037   7.009   8.177
81272SOL    HW145590   9.980   7.024   8.252
81272SOL    HW245591  10.003   7.066   8.109
81273SOL     OW45592   7.844   0.381   4.959
81273SOL    HW145593   7.785   0.379   5.034
81273SOL    HW245594   7.796   0.338   4.889
81274SOL     OW45595   9.181   5.310  11.122
81274SOL    HW145596   9.226   5.390  11.148
81274SOL    HW245597   9.248   5.255  11.082
81275SOL     OW45598  12.823   7.116  11.063
81275SOL    HW145599  12.868   7.066  11.132
81275SOL    HW245600  12.780   7.049  11.010
81276SOL     OW45601   6.929   2.586   8.986
81276SOL    HW145602   6.923   2.680   9.002
81276SOL    HW245603   6.874   2.571   8.909
81277SOL     OW45604   3.262   5.454  14.369
81277SOL    HW145605   3.328   5.451  14.439
81277SOL    HW245606   3.310   5.427  14.291
81278SOL     OW45607   1.390   1.031  10.218
81278SOL    HW145608   1.409   0.937  10.212
81278SOL    HW245609   1.473   1.070  10.247
81279SOL     OW45610  13.787   9.783   2.647
81279SOL    HW145611  13.784   9.737   2.731
81279SOL    HW245612  13.696   9.788   2.619
81280SOL     OW45613   4.799   0.519  14.644
81280SOL    HW145614   4.718   0.556  14.681
81280SOL    HW245615   4.859   0.593  14.639
81281SOL     OW45616   3.031   7.723  13.941
81281SOL    HW145617   2.981   7.794  13.981
81281SOL    HW245618   2.967   7.654  13.925
81282SOL     OW45619   2.553   2.088   4.291
81282SOL    HW145620   2.584   2.098   4.381
81282SOL    HW245621   2.458   2.093   4.297
81283SOL     OW45622   0.561   1.879  14.832
81283SOL    HW145623   0.654   1.871  14.813
81283SOL    HW245624   0.550   1.969  14.861
81284SOL     OW45625   2.321   9.921   3.565
81284SOL    HW145626   2.340   9.932   3.472
81284SOL    HW245627   2.329  10.010   3.602
81285SOL     OW45628  12.764   4.384   3.692
81285SOL    HW145629  12.819   4.365   3.616
81285SOL    HW245630  12.682   4.339   3.675
81286SOL     OW45631   1.477   6.309  11.174
81286SOL    HW145632   1.449   6.244  11.109
81286SOL    HW245633   1.474   6.392  11.128
81287SOL     OW45634  10.512  12.409   2.610
81287SOL    HW145635  10.434  12.463   2.617
81287SOL    HW245636  10.490  12.342   2.546
81288SOL     OW45637   0.578  11.393  12.248
81288SOL    HW145638   0.599  11.486  12.254
81288SOL    HW245639   0.499  11.384  12.301
81289SOL     OW45640  10.389   4.700   7.959
81289SOL    HW145641  10.470   4.702   8.011
81289SOL    HW245642  10.414   4.659   7.877
81290SOL     OW45643  12.299   4.590  12.932
81290SOL    HW145644  12.330   4.502  12.911
81290SOL    HW245645  12.359   4.649  12.885
81291SOL     OW45646  10.724  12.813   0.949
81291SOL    HW145647  10.756  12.902   0.958
81291SOL    HW245648  10.708  12.802   0.855
81292SOL     OW45649   6.288  10.934   5.352
81292SOL    HW145650   6.261  10.879   5.425
81292SOL    HW245651   6.239  11.015   5.363
81293SOL     OW45652   4.544  12.094   0.516
81293SOL    HW145653   4.543  12.012   0.468
81293SOL    HW245654   4.635  12.106   0.542
81294SOL     OW45655   8.346  11.297  12.178
81294SOL    HW145656   8.363  11.209  12.146
81294SOL    HW245657   8.269  11.288  12.235
81295SOL     OW45658   5.219   7.673   4.693
81295SOL    HW145659   5.293   7.622   4.660
81295SOL    HW245660   5.169   7.611   4.746
81296SOL     OW45661   7.072   9.722   3.384
81296SOL    HW145662   7.050   9.629   3.378
81296SOL    HW245663   6.991   9.764   3.413
81297SOL     OW45664  13.167  14.678   9.242
81297SOL    HW145665  13.123  14.656   9.160
81297SOL    HW245666  13.118  14.753   9.277
81298SOL     OW45667   2.599  13.141   2.641
81298SOL    HW145668   2.649  13.162   2.720
81298SOL    HW245669   2.508  13.163   2.665
81299SOL     OW45670   7.357   4.235   7.911
81299SOL    HW145671   7.312   4.311   7.875
81299SOL    HW245672   7.450   4.257   7.903
81300SOL     OW45673   0.440   9.977  11.041
81300SOL    HW145674   0.460  10.042  11.108
81300SOL    HW245675   0.452  10.024  10.958
81301SOL     OW45676   7.354   0.292   9.905
81301SOL    HW145677   7.313   0.329   9.826
81301SOL    HW245678   7.434   0.343   9.916
81302SOL     OW45679   5.788  11.485   1.405
81302SOL    HW145680   5.827  11.551   1.347
81302SOL    HW245681   5.720  11.444   1.353
81303SOL     OW45682  12.843   2.178   1.264
81303SOL    HW145683  12.885   2.241   1.323
81303SOL    HW245684  12.797   2.232   1.200
81304SOL     OW45685  12.987  12.162  12.739
81304SOL    HW145686  13.057  12.125  12.685
81304SOL    HW245687  12.985  12.106  12.817
81305SOL     OW45688  11.462  10.620   0.418
81305SOL    HW145689  11.374  10.657   0.423
81305SOL    HW245690  11.471  10.591   0.327
81306SOL     OW45691   5.923  13.321  10.192
81306SOL    HW145692   5.917  13.226  10.206
81306SOL    HW245693   5.845  13.356  10.235
81307SOL     OW45694   8.131   5.680  11.449
81307SOL    HW145695   8.103   5.766  11.416
81307SOL    HW245696   8.197   5.700  11.515
81308SOL     OW45697   9.393   0.007  12.345
81308SOL    HW145698   9.384  14.875  12.250
81308SOL    HW245699   9.450   0.083  12.356
81309SOL     OW45700   5.802   1.835  12.903
81309SOL    HW145701   5.889   1.839  12.863
81309SOL    HW245702   5.819   1.848  12.997
81310SOL     OW45703   3.632   7.376   9.646
81310SOL    HW145704   3.594   7.410   9.727
81310SOL    HW245705   3.726   7.396   9.653
81311SOL     OW45706  13.284   2.301  12.815
81311SOL    HW145707  13.263   2.307  12.722
81311SOL    HW245708  13.199   2.299  12.859
81312SOL     OW45709   4.764  12.234   1.714
81312SOL    HW145710   4.847  12.219   1.760
81312SOL    HW245711   4.763  12.329   1.698
81313SOL     OW45712   2.018   9.159  11.421
81313SOL    HW145713   1.972   9.077  11.407
81313SOL    HW245714   2.103   9.147  11.378
81314SOL     OW45715  14.708   0.416   2.184
81314SOL    HW145716  14.770   0.447   2.250
81314SOL    HW245717  14.664   0.342   2.227
81315SOL     OW45718   1.108   5.635  11.201
81315SOL    HW145719   1.160   5.714  11.199
81315SOL    HW245720   1.116   5.603  11.291
81316SOL     OW45721   5.659   9.477  13.056
81316SOL    HW145722   5.747   9.492  13.022
81316SOL    HW245723   5.602   9.483  12.980
81317SOL     OW45724   2.279  10.983   2.715
81317SOL    HW145725   2.250  11.068   2.751
81317SOL    HW245726   2.372  10.979   2.737
81318SOL     OW45727   6.440   4.472  11.431
81318SOL    HW145728   6.493   4.545  11.463
81318SOL    HW245729   6.352   4.510  11.420
81319SOL     OW45730   7.550   6.488  12.449
81319SOL    HW145731   7.628   6.437  12.430
81319SOL    HW245732   7.481   6.423  12.464
81320SOL     OW45733  12.090   0.810  14.384
81320SOL    HW145734  12.178   0.794  14.349
81320SOL    HW245735  12.031   0.768  14.321
81321SOL     OW45736   7.482   0.766  12.546
81321SOL    HW145737   7.485   0.857  12.575
81321SOL    HW245738   7.572   0.734  12.556
81322SOL     OW45739  12.597   2.394  14.496
81322SOL    HW145740  12.602   2.327  14.564
81322SOL    HW245741  12.658   2.365  14.429
81323SOL     OW45742   9.061   3.751   2.323
81323SOL    HW145743   9.077   3.711   2.408
81323SOL    HW245744   9.106   3.694   2.261
81324SOL     OW45745   0.160   6.747   8.274
81324SOL    HW145746   0.231   6.802   8.306
81324SOL    HW245747   0.137   6.692   8.349
81325SOL     OW45748   6.829   2.243   1.522
81325SOL    HW145749   6.860   2.306   1.587
81325SOL    HW245750   6.734   2.253   1.522
81326SOL     OW45751   4.538   4.256   3.290
81326SOL    HW145752   4.572   4.322   3.350
81326SOL    HW245753   4.609   4.241   3.228
81327SOL     OW45754  11.220  13.651   5.599
81327SOL    HW145755  11.160  13.620   5.667
81327SOL    HW245756  11.164  13.667   5.523
81328SOL     OW45757  10.457   6.163   2.257
81328SOL    HW145758  10.461   6.198   2.346
81328SOL    HW245759  10.534   6.199   2.213
81329SOL     OW45760  12.874  11.281   1.725
81329SOL    HW145761  12.865  11.297   1.819
81329SOL    HW245762  12.807  11.216   1.705
81330SOL     OW45763   9.269   8.710  12.861
81330SOL    HW145764   9.346   8.767  12.863
81330SOL    HW245765   9.195   8.768  12.881
81331SOL     OW45766   0.474  13.904  12.000
81331SOL    HW145767   0.564  13.876  12.019
81331SOL    HW245768   0.470  13.994  12.032
81332SOL     OW45769   3.152   3.125   0.207
81332SOL    HW145770   3.141   3.046   0.153
81332SOL    HW245771   3.181   3.192   0.145
81333SOL     OW45772   1.684   8.332   2.748
81333SOL    HW145773   1.768   8.329   2.701
81333SOL    HW245774   1.656   8.423   2.741
81334SOL     OW45775   0.264   2.029   1.123
81334SOL    HW145776   0.326   2.098   1.146
81334SOL    HW245777   0.180   2.060   1.157
81335SOL     OW45778   2.425   2.174  11.871
81335SOL    HW145779   2.362   2.137  11.933
81335SOL    HW245780   2.492   2.215  11.927
81336SOL     OW45781   8.552   9.480   2.967
81336SOL    HW145782   8.522   9.392   2.942
81336SOL    HW245783   8.548   9.480   3.063
81337SOL     OW45784   9.980  14.862  12.370
81337SOL    HW145785   9.964  14.768  12.383
81337SOL    HW245786   9.924   0.027  12.435
81338SOL     OW45787  14.436   7.381   1.629
81338SOL    HW145788  14.480   7.311   1.676
81338SOL    HW245789  14.371   7.336   1.575
81339SOL     OW45790   9.299  12.666  12.558
81339SOL    HW145791   9.380  12.647  12.510
81339SOL    HW245792   9.233  12.612  12.514
81340SOL     OW45793  14.028   5.358   5.025
81340SOL    HW145794  14.013   5.431   5.085
81340SOL    HW245795  13.943   5.343   4.984
81341SOL     OW45796  12.524   4.479  10.659
81341SOL    HW145797  12.504   4.562  10.704
81341SOL    HW245798  12.509   4.412  10.725
81342SOL     OW45799   9.420  13.321   3.750
81342SOL    HW145800   9.436  13.364   3.834
81342SOL    HW245801   9.508  13.305   3.714
81343SOL     OW45802   3.909   7.941   4.147
81343SOL    HW145803   3.882   7.987   4.068
81343SOL    HW245804   4.005   7.942   4.144
81344SOL     OW45805   9.116  12.314  13.096
81344SOL    HW145806   9.117  12.409  13.083
81344SOL    HW245807   9.187  12.281  13.042
81345SOL     OW45808  11.773   8.700   4.131
81345SOL    HW145809  11.767   8.723   4.038
81345SOL    HW245810  11.682   8.688   4.158
81346SOL     OW45811  10.102   4.147   8.194
81346SOL    HW145812  10.056   4.196   8.126
81346SOL    HW245813  10.190   4.185   8.195
81347SOL     OW45814   5.484  12.860  12.964
81347SOL    HW145815   5.572  12.890  12.943
81347SOL    HW245816   5.458  12.808  12.888
81348SOL     OW45817   0.830  12.326   0.658
81348SOL    HW145818   0.799  12.415   0.644
81348SOL    HW245819   0.866  12.299   0.573
81349SOL     OW45820   2.332   1.378   2.336
81349SOL    HW145821   2.370   1.301   2.294
81349SOL    HW245822   2.382   1.387   2.417
81350SOL     OW45823  11.754   4.139  13.661
81350SOL    HW145824  11.841   4.179  13.657
81350SOL    HW245825  11.739   4.124  13.755
81351SOL     OW45826  13.156  10.905   8.412
81351SOL    HW145827  13.131  10.955   8.335
81351SOL    HW245828  13.250  10.891   8.402
81352SOL     OW45829   3.969   8.094  12.317
81352SOL    HW145830   3.980   8.102  12.222
81352SOL    HW245831   3.914   8.017  12.328
81353SOL     OW45832  13.923   1.262   9.381
81353SOL    HW145833  13.955   1.251   9.291
81353SOL    HW245834  13.838   1.305   9.371
81354SOL     OW45835   6.352  14.626   8.319
81354SOL    HW145836   6.400  14.657   8.396
81354SOL    HW245837   6.383  14.536   8.307
81355SOL     OW45838   3.200   3.629   3.253
81355SOL    HW145839   3.164   3.671   3.176
81355SOL    HW245840   3.293   3.651   3.251
81356SOL     OW45841   7.561   3.101   6.288
81356SOL    HW145842   7.476   3.076   6.326
81356SOL    HW245843   7.578   3.033   6.223
81357SOL     OW45844  11.956   6.773   6.603
81357SOL    HW145845  12.022   6.829   6.644
81357SOL    HW245846  12.002   6.692   6.583
81358SOL     OW45847   2.702   1.251   8.193
81358SOL    HW145848   2.736   1.245   8.103
81358SOL    HW245849   2.780   1.242   8.248
81359SOL     OW45850   4.517   8.401   7.896
81359SOL    HW145851   4.515   8.476   7.836
81359SOL    HW245852   4.593   8.417   7.952
81360SOL     OW45853  14.558   2.099   5.214
81360SOL    HW145854  14.561   2.004   5.217
81360SOL    HW245855  14.500   2.120   5.141
81361SOL     OW45856  13.281   3.980   7.149
81361SOL    HW145857  13.341   3.906   7.143
81361SOL    HW245858  13.222   3.968   7.074
81362SOL     OW45859   2.436   7.781   8.445
81362SOL    HW145860   2.434   7.821   8.358
81362SOL    HW245861   2.449   7.855   8.505
81363SOL     OW45862   4.874   3.369  13.020
81363SOL    HW145863   4.836   3.297  12.969
81363SOL    HW245864   4.801   3.399  13.075
81364SOL     OW45865   6.631   5.584   5.278
81364SOL    HW145866   6.662   5.494   5.270
81364SOL    HW245867   6.536   5.578   5.282
81365SOL     OW45868   0.820   1.837   6.238
81365SOL    HW145869   0.846   1.773   6.304
81365SOL    HW245870   0.851   1.921   6.272
81366SOL     OW45871   8.629   6.694   0.764
81366SOL    HW145872   8.695   6.636   0.802
81366SOL    HW245873   8.645   6.779   0.806
81367SOL     OW45874   1.890   9.803  11.011
81367SOL    HW145875   1.837   9.762  10.943
81367SOL    HW245876   1.942   9.732  11.048
81368SOL     OW45877   1.992   8.318  10.075
81368SOL    HW145878   1.932   8.378  10.029
81368SOL    HW245879   1.998   8.242  10.019
81369SOL     OW45880  14.565  12.642   6.980
81369SOL    HW145881  14.533  12.613   7.065
81369SOL    HW245882  14.530  12.731   6.971
81370SOL     OW45883   6.434   8.545   7.960
81370SOL    HW145884   6.342   8.517   7.963
81370SOL    HW245885   6.479   8.474   7.913
81371SOL     OW45886   2.903  12.766  14.586
81371SOL    HW145887   2.935  12.681  14.555
81371SOL    HW245888   2.954  12.783  14.665
81372SOL     OW45889   0.941   3.464   4.144
81372SOL    HW145890   1.009   3.440   4.082
81372SOL    HW245891   0.895   3.382   4.163
81373SOL     OW45892   3.001  12.343   1.583
81373SOL    HW145893   2.999  12.295   1.666
81373SOL    HW245894   3.020  12.275   1.518
81374SOL     OW45895   9.962   7.961   9.663
81374SOL    HW145896   9.923   8.044   9.634
81374SOL    HW245897   9.888   7.910   9.697
81375SOL     OW45898   9.582  12.189   9.334
81375SOL    HW145899   9.541  12.196   9.420
81375SOL    HW245900   9.598  12.095   9.323
81376SOL     OW45901  13.209   5.560   6.483
81376SOL    HW145902  13.146   5.488   6.480
81376SOL    HW245903  13.157   5.639   6.472
81377SOL     OW45904   5.095   1.464   5.265
81377SOL    HW145905   5.078   1.423   5.350
81377SOL    HW245906   5.132   1.393   5.211
81378SOL     OW45907   6.819   4.166  10.581
81378SOL    HW145908   6.780   4.237  10.530
81378SOL    HW245909   6.760   4.153  10.655
81379SOL     OW45910  11.371  10.496   3.971
81379SOL    HW145911  11.278  10.484   3.953
81379SOL    HW245912  11.375  10.520   4.063
81380SOL     OW45913   0.879   7.358   0.166
81380SOL    HW145914   0.884   7.451   0.189
81380SOL    HW245915   0.836   7.317   0.241
81381SOL     OW45916   3.434   6.701   6.614
81381SOL    HW145917   3.525   6.680   6.593
81381SOL    HW245918   3.388   6.690   6.531
81382SOL     OW45919   7.814  11.657   5.443
81382SOL    HW145920   7.865  11.605   5.506
81382SOL    HW245921   7.879  11.684   5.378
81383SOL     OW45922  13.851   0.223  13.366
81383SOL    HW145923  13.858   0.189  13.455
81383SOL    HW245924  13.836   0.146  13.311
81384SOL     OW45925  13.821   2.254   6.946
81384SOL    HW145926  13.788   2.191   6.882
81384SOL    HW245927  13.878   2.202   7.003
81385SOL     OW45928   9.779   5.998   5.820
81385SOL    HW145929   9.852   5.962   5.769
81385SOL    HW245930   9.755   6.078   5.774
81386SOL     OW45931   6.770   5.948   9.196
81386SOL    HW145932   6.860   5.940   9.229
81386SOL    HW245933   6.743   6.036   9.221
81387SOL     OW45934   5.147   7.745   3.972
81387SOL    HW145935   5.100   7.671   4.011
81387SOL    HW245936   5.108   7.755   3.885
81388SOL     OW45937  10.308  12.424   7.071
81388SOL    HW145938  10.259  12.425   6.988
81388SOL    HW245939  10.240  12.416   7.138
81389SOL     OW45940   3.813  14.129   2.698
81389SOL    HW145941   3.904  14.150   2.718
81389SOL    HW245942   3.817  14.049   2.645
81390SOL     OW45943   5.305   0.044  10.402
81390SOL    HW145944   5.278  14.859  10.469
81390SOL    HW245945   5.246   0.119  10.414
81391SOL     OW45946   1.939  13.248  11.742
81391SOL    HW145947   1.861  13.260  11.687
81391SOL    HW245948   1.988  13.329  11.731
81392SOL     OW45949   0.193   4.187   8.703
81392SOL    HW145950   0.222   4.147   8.786
81392SOL    HW245951   0.150   4.116   8.656
81393SOL     OW45952  12.885   2.037   5.554
81393SOL    HW145953  12.943   2.017   5.627
81393SOL    HW245954  12.796   2.025   5.589
81394SOL     OW45955   7.085   7.306  13.509
81394SOL    HW145956   7.029   7.362  13.563
81394SOL    HW245957   7.136   7.255  13.572
81395SOL     OW45958  13.520   0.304   0.484
81395SOL    HW145959  13.454   0.346   0.538
81395SOL    HW245960  13.513   0.347   0.399
81396SOL     OW45961   2.773  13.219   6.963
81396SOL    HW145962   2.700  13.158   6.959
81396SOL    HW245963   2.735  13.300   6.996
81397SOL     OW45964   1.461   8.372   8.561
81397SOL    HW145965   1.532   8.341   8.505
81397SOL    HW245966   1.402   8.418   8.501
81398SOL     OW45967   6.226   9.622  13.700
81398SOL    HW145968   6.252   9.701  13.652
81398SOL    HW245969   6.309   9.586  13.733
81399SOL     OW45970   7.962  11.133   8.173
81399SOL    HW145971   8.042  11.127   8.225
81399SOL    HW245972   7.987  11.102   8.086
81400SOL     OW45973  10.410  10.789  11.261
81400SOL    HW145974  10.340  10.795  11.325
81400SOL    HW245975  10.374  10.737  11.189
81401SOL     OW45976  12.438   4.412   8.382
81401SOL    HW145977  12.372   4.354   8.420
81401SOL    HW245978  12.480   4.359   8.314
81402SOL     OW45979  11.324   9.076   3.741
81402SOL    HW145980  11.349   9.087   3.832
81402SOL    HW245981  11.230   9.060   3.744
81403SOL     OW45982   0.811  14.499  14.639
81403SOL    HW145983   0.791  14.435  14.707
81403SOL    HW245984   0.895  14.537  14.665
81404SOL     OW45985   7.065  11.390   9.753
81404SOL    HW145986   6.973  11.383   9.728
81404SOL    HW245987   7.070  11.347   9.839
81405SOL     OW45988   7.864   4.796  11.738
81405SOL    HW145989   7.881   4.848  11.818
81405SOL    HW245990   7.819   4.718  11.770
81406SOL     OW45991   3.601   9.855  12.542
81406SOL    HW145992   3.654   9.822  12.469
81406SOL    HW245993   3.543   9.920  12.503
81407SOL     OW45994   8.354   6.347  14.385
81407SOL    HW145995   8.291   6.317  14.450
81407SOL    HW245996   8.306   6.349  14.303
81408SOL     OW45997   5.014   8.861  10.010
81408SOL    HW145998   5.052   8.932   9.959
81408SOL    HW245999   4.990   8.795   9.945
81409SOL     OW46000   4.985  11.706  13.826
81409SOL    HW146001   5.032  11.790  13.820
81409SOL    HW246002   5.012  11.671  13.911
81410SOL     OW46003   2.648   9.829  12.322
81410SOL    HW146004   2.566   9.854  12.364
81410SOL    HW246005   2.637   9.736  12.300
81411SOL     OW46006   4.562   4.907   6.049
81411SOL    HW146007   4.614   4.986   6.066
81411SOL    HW246008   4.543   4.871   6.135
81412SOL     OW46009   5.341   9.449   3.374
81412SOL    HW146010   5.347   9.395   3.295
81412SOL    HW246011   5.410   9.416   3.431
81413SOL     OW46012  12.105  14.185   5.168
81413SOL    HW146013  12.181  14.224   5.212
81413SOL    HW246014  12.134  14.097   5.144
81414SOL     OW46015   8.436   7.836  11.982
81414SOL    HW146016   8.355   7.880  11.955
81414SOL    HW246017   8.498   7.908  11.998
81415SOL     OW46018  11.913  14.470   2.219
81415SOL    HW146019  11.818  14.467   2.209
81415SOL    HW246020  11.927  14.471   2.314
81416SOL     OW46021   2.010  14.836   7.653
81416SOL    HW146022   2.011  14.834   7.749
81416SOL    HW246023   1.919  14.818   7.630
81417SOL     OW46024   9.856  11.667   7.709
81417SOL    HW146025   9.922  11.649   7.777
81417SOL    HW246026   9.892  11.628   7.630
81418SOL     OW46027   2.972  13.376   2.849
81418SOL    HW146028   2.877  13.388   2.859
81418SOL    HW246029   2.983  13.349   2.758
81419SOL     OW46030  13.503   2.184   4.377
81419SOL    HW146031  13.480   2.275   4.395
81419SOL    HW246032  13.446   2.158   4.305
81420SOL     OW46033  10.611   6.396   5.611
81420SOL    HW146034  10.631   6.488   5.591
81420SOL    HW246035  10.524   6.398   5.650
81421SOL     OW46036   9.705   9.172  13.135
81421SOL    HW146037   9.669   9.088  13.162
81421SOL    HW246038   9.631   9.233  13.140
81422SOL     OW46039   7.604  12.784   7.703
81422SOL    HW146040   7.630  12.696   7.674
81422SOL    HW246041   7.650  12.843   7.643
81423SOL     OW46042   7.273   5.548   9.483
81423SOL    HW146043   7.360   5.530   9.519
81423SOL    HW246044   7.223   5.582   9.557
81424SOL     OW46045   8.465   9.238   0.376
81424SOL    HW146046   8.452   9.152   0.337
81424SOL    HW246047   8.470   9.298   0.302
81425SOL     OW46048   7.880  10.656   7.638
81425SOL    HW146049   7.813  10.661   7.570
81425SOL    HW246050   7.958  10.623   7.594
81426SOL     OW46051  12.817   0.325   6.613
81426SOL    HW146052  12.896   0.366   6.648
81426SOL    HW246053  12.785   0.387   6.547
81427SOL     OW46054   5.172  12.296   7.790
81427SOL    HW146055   5.141  12.229   7.729
81427SOL    HW246056   5.264  12.277   7.803
81428SOL     OW46057   9.026  14.398   3.923
81428SOL    HW146058   8.999  14.376   3.834
81428SOL    HW246059   8.973  14.341   3.979
81429SOL     OW46060   6.315  12.177   2.128
81429SOL    HW146061   6.333  12.208   2.039
81429SOL    HW246062   6.220  12.162   2.129
81430SOL     OW46063  12.276   8.493  10.221
81430SOL    HW146064  12.207   8.468  10.159
81430SOL    HW246065  12.249   8.452  10.303
81431SOL     OW46066  14.008   9.955   6.746
81431SOL    HW146067  14.034   9.889   6.811
81431SOL    HW246068  13.967  10.024   6.798
81432SOL     OW46069   6.912   2.210  10.240
81432SOL    HW146070   6.880   2.248  10.158
81432SOL    HW246071   6.931   2.286  10.295
81433SOL     OW46072  13.200   1.695   8.496
81433SOL    HW146073  13.163   1.703   8.408
81433SOL    HW246074  13.254   1.773   8.506
81434SOL     OW46075   9.128   8.498   7.815
81434SOL    HW146076   9.193   8.481   7.883
81434SOL    HW246077   9.074   8.569   7.850
81435SOL     OW46078  12.492  12.376   5.484
81435SOL    HW146079  12.554  12.341   5.548
81435SOL    HW246080  12.521  12.342   5.400
81436SOL     OW46081   9.310   6.611   3.985
81436SOL    HW146082   9.311   6.646   3.896
81436SOL    HW246083   9.220   6.624   4.015
81437SOL     OW46084   5.550   5.254   4.464
81437SOL    HW146085   5.523   5.189   4.399
81437SOL    HW246086   5.531   5.213   4.548
81438SOL     OW46087   7.704   2.984   7.166
81438SOL    HW146088   7.677   2.895   7.188
81438SOL    HW246089   7.660   3.039   7.231
81439SOL     OW46090   6.675   8.561   8.366
81439SOL    HW146091   6.677   8.636   8.425
81439SOL    HW246092   6.764   8.555   8.331
81440SOL     OW46093   2.954   8.693   7.528
81440SOL    HW146094   2.978   8.711   7.619
81440SOL    HW246095   3.017   8.626   7.500
81441SOL     OW46096   0.894   5.109   4.309
81441SOL    HW146097   0.885   5.024   4.352
81441SOL    HW246098   0.978   5.105   4.265
81442SOL     OW46099   5.528   8.924  13.822
81442SOL    HW146100   5.525   8.995  13.759
81442SOL    HW246101   5.540   8.967  13.907
81443SOL     OW46102   7.420   2.597   8.600
81443SOL    HW146103   7.385   2.543   8.529
81443SOL    HW246104   7.380   2.561   8.680
81444SOL     OW46105   8.364  13.122  11.608
81444SOL    HW146106   8.445  13.170  11.589
81444SOL    HW246107   8.299  13.190  11.625
81445SOL     OW46108   7.727   1.807  11.396
81445SOL    HW146109   7.688   1.797  11.309
81445SOL    HW246110   7.822   1.805  11.380
81446SOL     OW46111  13.104   0.930  13.010
81446SOL    HW146112  13.020   0.958  12.976
81446SOL    HW246113  13.098   0.944  13.105
81447SOL     OW46114   5.614   0.208   0.303
81447SOL    HW146115   5.634   0.299   0.324
81447SOL    HW246116   5.693   0.160   0.327
81448SOL     OW46117  11.771   7.262   0.379
81448SOL    HW146118  11.755   7.253   0.285
81448SOL    HW246119  11.698   7.314   0.412
81449SOL     OW46120  12.775   9.921  10.187
81449SOL    HW146121  12.697   9.978  10.182
81449SOL    HW246122  12.846   9.979  10.213
81450SOL     OW46123   9.585   2.647   7.183
81450SOL    HW146124   9.518   2.714   7.197
81450SOL    HW246125   9.537   2.565   7.172
81451SOL     OW46126   2.910   3.482  12.145
81451SOL    HW146127   2.995   3.505  12.109
81451SOL    HW246128   2.869   3.566  12.168
81452SOL     OW46129   2.354   2.079   2.300
81452SOL    HW146130   2.373   2.063   2.207
81452SOL    HW246131   2.272   2.127   2.299
81453SOL     OW46132   9.487   7.176   4.998
81453SOL    HW146133   9.408   7.230   5.007
81453SOL    HW246134   9.484   7.145   4.908
81454SOL     OW46135   4.809  13.164  13.665
81454SOL    HW146136   4.884  13.183  13.608
81454SOL    HW246137   4.746  13.233  13.646
81455SOL     OW46138  10.547   0.035   0.969
81455SOL    HW146139  10.496   0.102   0.923
81455SOL    HW246140  10.629   0.079   0.991
81456SOL     OW46141   6.723   4.961   1.315
81456SOL    HW146142   6.679   4.987   1.396
81456SOL    HW246143   6.815   4.950   1.341
81457SOL     OW46144   5.094   4.397   2.532
81457SOL    HW146145   5.023   4.374   2.592
81457SOL    HW246146   5.173   4.393   2.585
81458SOL     OW46147   0.830   1.227  13.617
81458SOL    HW146148   0.821   1.280  13.538
81458SOL    HW246149   0.740   1.206  13.641
81459SOL     OW46150  13.473   3.972   8.827
81459SOL    HW146151  13.378   3.971   8.828
81459SOL    HW246152  13.497   3.987   8.736
81460SOL     OW46153  10.665  10.107  14.412
81460SOL    HW146154  10.646  10.113  14.318
81460SOL    HW246155  10.699  10.193  14.435
81461SOL     OW46156   2.879   2.877   9.531
81461SOL    HW146157   2.951   2.870   9.468
81461SOL    HW246158   2.827   2.798   9.517
81462SOL     OW46159   5.283   2.604  11.992
81462SOL    HW146160   5.335   2.543  12.044
81462SOL    HW246161   5.321   2.690  12.010
81463SOL     OW46162  10.310   5.181   9.840
81463SOL    HW146163  10.313   5.180   9.745
81463SOL    HW246164  10.217   5.196   9.861
81464SOL     OW46165   8.934   5.155   1.284
81464SOL    HW146166   8.994   5.081   1.273
81464SOL    HW246167   8.991   5.232   1.289
81465SOL     OW46168  12.378   3.910  13.640
81465SOL    HW146169  12.294   3.956  13.638
81465SOL    HW246170  12.371   3.843  13.573
81466SOL     OW46171   9.318   3.497   5.212
81466SOL    HW146172   9.324   3.434   5.140
81466SOL    HW246173   9.332   3.582   5.170
81467SOL     OW46174  10.302   9.596  14.495
81467SOL    HW146175  10.314   9.564  14.406
81467SOL    HW246176  10.391   9.613  14.527
81468SOL     OW46177   2.807  12.237   0.523
81468SOL    HW146178   2.748  12.163   0.511
81468SOL    HW246179   2.885  12.215   0.473
81469SOL     OW46180  12.046   5.015   0.118
81469SOL    HW146181  12.019   5.104   0.096
81469SOL    HW246182  12.041   4.967   0.035
81470SOL     OW46183   2.190  11.824   9.264
81470SOL    HW146184   2.111  11.852   9.218
81470SOL    HW246185   2.261  11.839   9.201
81471SOL     OW46186  13.344   2.405  14.142
81471SOL    HW146187  13.386   2.430  14.224
81471SOL    HW246188  13.362   2.311  14.134
81472SOL     OW46189   2.606   2.084   4.568
81472SOL    HW146190   2.662   2.088   4.646
81472SOL    HW246191   2.550   2.008   4.583
81473SOL     OW46192  10.862   0.900  11.966
81473SOL    HW146193  10.851   0.896  12.061
81473SOL    HW246194  10.783   0.945  11.935
81474SOL     OW46195   6.961   6.544   8.491
81474SOL    HW146196   6.940   6.465   8.542
81474SOL    HW246197   7.049   6.569   8.519
81475SOL     OW46198  13.220  11.838   4.245
81475SOL    HW146199  13.277  11.761   4.242
81475SOL    HW246200  13.235  11.876   4.332
81476SOL     OW46201   0.490   8.802   5.318
81476SOL    HW146202   0.407   8.756   5.308
81476SOL    HW246203   0.499   8.816   5.412
81477SOL     OW46204  10.712   1.326   1.156
81477SOL    HW146205  10.639   1.335   1.218
81477SOL    HW246206  10.705   1.401   1.098
81478SOL     OW46207   9.748   6.051   8.864
81478SOL    HW146208   9.688   6.115   8.825
81478SOL    HW246209   9.834   6.077   8.832
81479SOL     OW46210   6.245   6.528  12.598
81479SOL    HW146211   6.330   6.502  12.636
81479SOL    HW246212   6.183   6.520  12.670
81480SOL     OW46213   0.807   3.176   0.406
81480SOL    HW146214   0.731   3.232   0.424
81480SOL    HW246215   0.859   3.226   0.344
81481SOL     OW46216  13.532   9.369   2.617
81481SOL    HW146217  13.557   9.450   2.662
81481SOL    HW246218  13.476   9.323   2.680
81482SOL     OW46219  10.150  14.160   4.990
81482SOL    HW146220  10.131  14.077   4.946
81482SOL    HW246221  10.231  14.191   4.950
81483SOL     OW46222   9.812   5.716   1.622
81483SOL    HW146223   9.815   5.758   1.536
81483SOL    HW246224   9.745   5.648   1.613
81484SOL     OW46225  10.295   6.138   0.690
81484SOL    HW146226  10.326   6.116   0.603
81484SOL    HW246227  10.308   6.059   0.742
81485SOL     OW46228  13.765   1.931   1.552
81485SOL    HW146229  13.845   1.878   1.545
81485SOL    HW246230  13.702   1.886   1.496
81486SOL     OW46231  14.515   5.742  13.004
81486SOL    HW146232  14.528   5.772  12.915
81486SOL    HW246233  14.601   5.751  13.046
81487SOL     OW46234   0.309  13.598  11.196
81487SOL    HW146235   0.233  13.543  11.213
81487SOL    HW246236   0.299  13.627  11.105
81488SOL     OW46237   3.448  12.047  14.706
81488SOL    HW146238   3.394  12.053  14.785
81488SOL    HW246239   3.386  12.021  14.638
81489SOL     OW46240   9.690   5.563   5.449
81489SOL    HW146241   9.781   5.591   5.448
81489SOL    HW246242   9.651   5.611   5.523
81490SOL     OW46243  11.843   2.313   3.647
81490SOL    HW146244  11.759   2.333   3.604
81490SOL    HW246245  11.838   2.220   3.668
81491SOL     OW46246   6.315   5.753   4.338
81491SOL    HW146247   6.398   5.763   4.292
81491SOL    HW246248   6.267   5.687   4.288
81492SOL     OW46249  12.814   6.872  12.510
81492SOL    HW146250  12.902   6.895  12.538
81492SOL    HW246251  12.826   6.806  12.441
81493SOL     OW46252   6.137   4.654   2.507
81493SOL    HW146253   6.185   4.595   2.449
81493SOL    HW246254   6.153   4.741   2.470
81494SOL     OW46255   6.997  14.132   2.392
81494SOL    HW146256   7.051  14.211   2.398
81494SOL    HW246257   7.030  14.086   2.315
81495SOL     OW46258   6.183   8.013   0.034
81495SOL    HW146259   6.164   8.066  14.834
81495SOL    HW246260   6.115   7.947   0.036
81496SOL     OW46261   6.348   5.792  14.767
81496SOL    HW146262   6.350   5.845  14.687
81496SOL    HW246263   6.352   5.856  14.838
81497SOL     OW46264   5.830   9.487   7.649
81497SOL    HW146265   5.919   9.498   7.614
81497SOL    HW246266   5.773   9.514   7.577
81498SOL     OW46267   8.118   8.187   8.752
81498SOL    HW146268   8.158   8.241   8.684
81498SOL    HW246269   8.163   8.103   8.744
81499SOL     OW46270  11.075   7.139  14.821
81499SOL    HW146271  11.064   7.176  14.733
81499SOL    HW246272  11.074   7.044  14.808
81500SOL     OW46273  11.365   0.683   0.239
81500SOL    HW146274  11.438   0.623   0.257
81500SOL    HW246275  11.386   0.762   0.289
81501SOL     OW46276  12.193   9.325   3.922
81501SOL    HW146277  12.129   9.255   3.937
81501SOL    HW246278  12.193   9.338   3.827
81502SOL     OW46279   0.785  13.869  10.537
81502SOL    HW146280   0.802  13.790  10.487
81502SOL    HW246281   0.691  13.865  10.557
81503SOL     OW46282  11.782   8.702   3.110
81503SOL    HW146283  11.789   8.706   3.206
81503SOL    HW246284  11.689   8.714   3.093
81504SOL     OW46285   1.501   5.906   9.813
81504SOL    HW146286   1.424   5.868   9.856
81504SOL    HW246287   1.499   5.870   9.725
81505SOL     OW46288  10.034  13.745   5.781
81505SOL    HW146289  10.045  13.835   5.748
81505SOL    HW246290  10.014  13.694   5.702
81506SOL     OW46291   3.447   2.070   5.878
81506SOL    HW146292   3.439   2.008   5.806
81506SOL    HW246293   3.519   2.037   5.932
81507SOL     OW46294   2.038  13.734   5.905
81507SOL    HW146295   2.079  13.789   5.972
81507SOL    HW246296   2.103  13.668   5.885
81508SOL     OW46297   8.815   0.014   1.314
81508SOL    HW146298   8.727  14.872   1.346
81508SOL    HW246299   8.807   0.101   1.276
81509SOL     OW46300  12.949   5.254  13.452
81509SOL    HW146301  12.955   5.160  13.437
81509SOL    HW246302  13.039   5.286  13.439
81510SOL     OW46303   6.926   5.551   2.701
81510SOL    HW146304   7.012   5.511   2.705
81510SOL    HW246305   6.939   5.632   2.651
81511SOL     OW46306  11.074  11.140   0.039
81511SOL    HW146307  11.038  11.224   0.012
81511SOL    HW246308  11.117  11.157   0.123
81512SOL     OW46309   9.834   5.176   6.310
81512SOL    HW146310   9.900   5.239   6.282
81512SOL    HW246311   9.803   5.210   6.394
81513SOL     OW46312   3.433   7.914   1.375
81513SOL    HW146313   3.409   7.883   1.462
81513SOL    HW246314   3.528   7.919   1.376
81514SOL     OW46315  10.959   4.300  12.182
81514SOL    HW146316  10.994   4.280  12.096
81514SOL    HW246317  10.999   4.385  12.204
81515SOL     OW46318   5.653   3.326   6.254
81515SOL    HW146319   5.625   3.260   6.191
81515SOL    HW246320   5.748   3.329   6.244
81516SOL     OW46321   8.277  10.765  10.799
81516SOL    HW146322   8.278  10.690  10.859
81516SOL    HW246323   8.238  10.732  10.719
81517SOL     OW46324   8.003  12.006   7.243
81517SOL    HW146325   7.910  11.986   7.244
81517SOL    HW246326   8.041  11.940   7.185
81518SOL     OW46327   8.561  10.339  11.094
81518SOL    HW146328   8.538  10.429  11.117
81518SOL    HW246329   8.627  10.315  11.160
81519SOL     OW46330  13.999   4.436  10.610
81519SOL    HW146331  14.034   4.525  10.605
81519SOL    HW246332  14.073   4.382  10.635
81520SOL     OW46333   8.822   2.040   9.170
81520SOL    HW146334   8.851   1.964   9.119
81520SOL    HW246335   8.839   2.016   9.261
81521SOL     OW46336   4.280  10.064   1.005
81521SOL    HW146337   4.298  10.128   1.074
81521SOL    HW246338   4.195  10.027   1.028
81522SOL     OW46339  11.262   0.188   0.054
81522SOL    HW146340  11.209   0.157  14.858
81522SOL    HW246341  11.276   0.281   0.037
81523SOL     OW46342   3.548   0.904  10.534
81523SOL    HW146343   3.545   0.978  10.474
81523SOL    HW246344   3.461   0.901  10.574
81524SOL     OW46345  14.482   4.582   2.054
81524SOL    HW146346  14.497   4.601   1.961
81524SOL    HW246347  14.396   4.540   2.056
81525SOL     OW46348   5.354  13.426  14.252
81525SOL    HW146349   5.417  13.447  14.183
81525SOL    HW246350   5.269  13.452  14.216
81526SOL     OW46351  13.820  11.362  11.687
81526SOL    HW146352  13.787  11.388  11.773
81526SOL    HW246353  13.772  11.282  11.665
81527SOL     OW46354  11.108   8.523   5.427
81527SOL    HW146355  11.096   8.436   5.465
81527SOL    HW246356  11.189   8.555   5.467
81528SOL     OW46357   8.558   3.919   1.097
81528SOL    HW146358   8.507   3.949   1.173
81528SOL    HW246359   8.605   3.997   1.067
81529SOL     OW46360   6.406   1.779   3.237
81529SOL    HW146361   6.337   1.758   3.174
81529SOL    HW246362   6.410   1.703   3.295
81530SOL     OW46363   9.617   5.694   1.348
81530SOL    HW146364   9.680   5.698   1.276
81530SOL    HW246365   9.602   5.600   1.362
81531SOL     OW46366   4.847   8.252   0.540
81531SOL    HW146367   4.939   8.251   0.565
81531SOL    HW246368   4.812   8.171   0.577
81532SOL     OW46369   2.174   7.039  10.343
81532SOL    HW146370   2.267   7.060  10.339
81532SOL    HW246371   2.136   7.083  10.267
81533SOL     OW46372   5.364   9.688   0.416
81533SOL    HW146373   5.454   9.698   0.386
81533SOL    HW246374   5.341   9.774   0.453
81534SOL     OW46375   2.284   2.531   4.630
81534SOL    HW146376   2.362   2.489   4.594
81534SOL    HW246377   2.224   2.459   4.650
81535SOL     OW46378  12.635  11.519   8.001
81535SOL    HW146379  12.701  11.585   8.024
81535SOL    HW246380  12.577  11.516   8.076
81536SOL     OW46381   1.471  10.376   2.609
81536SOL    HW146382   1.451  10.459   2.565
81536SOL    HW246383   1.454  10.392   2.701
81537SOL     OW46384   7.997   7.956   5.987
81537SOL    HW146385   7.935   7.959   6.059
81537SOL    HW246386   7.947   7.985   5.910
81538SOL     OW46387  13.129   9.145   8.743
81538SOL    HW146388  13.123   9.051   8.729
81538SOL    HW246389  13.132   9.183   8.655
81539SOL     OW46390  13.621  10.825   6.034
81539SOL    HW146391  13.602  10.746   6.084
81539SOL    HW246392  13.681  10.875   6.089
81540SOL     OW46393   8.607   0.445  12.128
81540SOL    HW146394   8.585   0.538  12.117
81540SOL    HW246395   8.682   0.431  12.070
81541SOL     OW46396  11.996  10.141   0.494
81541SOL    HW146397  11.987  10.189   0.412
81541SOL    HW246398  11.962  10.054   0.476
81542SOL     OW46399   4.610  10.266  14.067
81542SOL    HW146400   4.642  10.178  14.086
81542SOL    HW246401   4.548  10.285  14.137
81543SOL     OW46402   7.332   7.634   4.221
81543SOL    HW146403   7.282   7.608   4.298
81543SOL    HW246404   7.274   7.615   4.147
81544SOL     OW46405  13.851   0.551   5.133
81544SOL    HW146406  13.769   0.597   5.153
81544SOL    HW246407  13.911   0.578   5.202
81545SOL     OW46408  14.589   5.543   7.896
81545SOL    HW146409  14.575   5.608   7.965
81545SOL    HW246410  14.598   5.460   7.943
81546SOL     OW46411   6.655   3.913   4.178
81546SOL    HW146412   6.616   3.934   4.093
81546SOL    HW246413   6.589   3.941   4.242
81547SOL     OW46414  10.669  10.049  13.518
81547SOL    HW146415  10.748  10.067  13.568
81547SOL    HW246416  10.682   9.961  13.483
81548SOL     OW46417  12.870   8.652  10.283
81548SOL    HW146418  12.848   8.685  10.196
81548SOL    HW246419  12.892   8.731  10.333
81549SOL     OW46420   2.795  11.473   1.488
81549SOL    HW146421   2.780  11.439   1.576
81549SOL    HW246422   2.809  11.396   1.434
81550SOL     OW46423   1.559   3.343   1.326
81550SOL    HW146424   1.540   3.291   1.405
81550SOL    HW246425   1.491   3.317   1.264
81551SOL     OW46426  10.711   0.374  11.610
81551SOL    HW146427  10.790   0.385  11.558
81551SOL    HW246428  10.741   0.332  11.691
81552SOL     OW46429  13.253   8.902  14.071
81552SOL    HW146430  13.290   8.929  13.988
81552SOL    HW246431  13.255   8.981  14.126
81553SOL     OW46432   9.722   0.878  11.254
81553SOL    HW146433   9.703   0.788  11.280
81553SOL    HW246434   9.667   0.931  11.310
81554SOL     OW46435  12.023  10.230   1.281
81554SOL    HW146436  11.958  10.265   1.342
81554SOL    HW246437  12.006  10.276   1.199
81555SOL     OW46438   9.018   7.141  11.868
81555SOL    HW146439   9.033   7.143  11.963
81555SOL    HW246440   8.978   7.055  11.852
81556SOL     OW46441   0.842   6.880   2.893
81556SOL    HW146442   0.895   6.890   2.972
81556SOL    HW246443   0.759   6.843   2.924
81557SOL     OW46444  11.013   6.957   9.630
81557SOL    HW146445  11.043   6.877   9.586
81557SOL    HW246446  11.075   7.024   9.602
81558SOL     OW46447   1.961  11.478  14.166
81558SOL    HW146448   1.896  11.491  14.236
81558SOL    HW246449   1.930  11.401  14.118
81559SOL     OW46450   4.695   1.814  11.422
81559SOL    HW146451   4.783   1.811  11.383
81559SOL    HW246452   4.692   1.737  11.479
81560SOL     OW46453  10.644   4.456   2.252
81560SOL    HW146454  10.591   4.410   2.317
81560SOL    HW246455  10.676   4.534   2.297
81561SOL     OW46456   3.984   9.652   4.196
81561SOL    HW146457   4.030   9.578   4.235
81561SOL    HW246458   4.017   9.656   4.106
81562SOL     OW46459   2.128   5.871   3.972
81562SOL    HW146460   2.099   5.939   4.034
81562SOL    HW246461   2.192   5.820   4.020
81563SOL     OW46462  12.213  14.489   8.760
81563SOL    HW146463  12.200  14.559   8.824
81563SOL    HW246464  12.222  14.534   8.676
81564SOL     OW46465   2.282   6.292   3.222
81564SOL    HW146466   2.296   6.385   3.209
81564SOL    HW246467   2.363   6.260   3.262
81565SOL     OW46468   1.404   1.780   3.196
81565SOL    HW146469   1.411   1.871   3.167
81565SOL    HW246470   1.327   1.746   3.149
81566SOL     OW46471   0.292  13.260   0.142
81566SOL    HW146472   0.267  13.333   0.085
81566SOL    HW246473   0.211  13.211   0.156
81567SOL     OW46474   4.051   9.249   9.764
81567SOL    HW146475   4.114   9.286   9.826
81567SOL    HW246476   4.091   9.261   9.679
81568SOL     OW46477   0.946   1.700   6.829
81568SOL    HW146478   0.894   1.729   6.904
81568SOL    HW246479   1.035   1.728   6.850
81569SOL     OW46480  12.333   5.454   7.337
81569SOL    HW146481  12.243   5.471   7.363
81569SOL    HW246482  12.329   5.436   7.244
81570SOL     OW46483   8.702   3.733  11.396
81570SOL    HW146484   8.778   3.676  11.405
81570SOL    HW246485   8.635   3.677  11.355
81571SOL     OW46486  12.811   5.134   5.534
81571SOL    HW146487  12.763   5.112   5.614
81571SOL    HW246488  12.888   5.181   5.565
81572SOL     OW46489   2.522   4.724   1.217
81572SOL    HW146490   2.465   4.648   1.205
81572SOL    HW246491   2.481   4.773   1.289
81573SOL     OW46492   9.511  12.987   6.032
81573SOL    HW146493   9.547  13.018   5.948
81573SOL    HW246494   9.586  12.989   6.092
81574SOL     OW46495   0.426   1.668   1.914
81574SOL    HW146496   0.428   1.758   1.881
81574SOL    HW246497   0.490   1.667   1.985
81575SOL     OW46498   7.657  13.308   3.260
81575SOL    HW146499   7.578  13.359   3.278
81575SOL    HW246500   7.729  13.370   3.271
81576SOL     OW46501   8.979   3.723   4.591
81576SOL    HW146502   8.894   3.766   4.579
81576SOL    HW246503   9.007   3.700   4.502
81577SOL     OW46504   1.995   3.999   7.119
81577SOL    HW146505   1.908   3.963   7.133
81577SOL    HW246506   2.000   4.073   7.180
81578SOL     OW46507  13.009  14.165   9.844
81578SOL    HW146508  13.000  14.176   9.749
81578SOL    HW246509  13.027  14.253   9.876
81579SOL     OW46510   2.650   0.829  12.746
81579SOL    HW146511   2.580   0.784  12.699
81579SOL    HW246512   2.720   0.764  12.753
81580SOL     OW46513  13.769  11.142  12.632
81580SOL    HW146514  13.781  11.058  12.587
81580SOL    HW246515  13.689  11.131  12.683
81581SOL     OW46516  10.507   6.106  13.517
81581SOL    HW146517  10.511   6.132  13.425
81581SOL    HW246518  10.414   6.106  13.537
81582SOL     OW46519   1.781   0.807   5.205
81582SOL    HW146520   1.734   0.759   5.137
81582SOL    HW246521   1.794   0.894   5.168
81583SOL     OW46522   8.964   1.789   5.851
81583SOL    HW146523   9.030   1.742   5.801
81583SOL    HW246524   8.884   1.779   5.800
81584SOL     OW46525  13.554   5.040  13.672
81584SOL    HW146526  13.553   4.947  13.695
81584SOL    HW246527  13.635   5.074  13.711
81585SOL     OW46528   7.312  14.167   2.103
81585SOL    HW146529   7.263  14.085   2.101
81585SOL    HW246530   7.397  14.145   2.065
81586SOL     OW46531   0.990  12.444  12.449
81586SOL    HW146532   0.911  12.397  12.474
81586SOL    HW246533   0.975  12.534  12.479
81587SOL     OW46534  13.341   0.126   6.795
81587SOL    HW146535  13.373   0.176   6.720
81587SOL    HW246536  13.386   0.042   6.788
81588SOL     OW46537   4.697  11.467  12.221
81588SOL    HW146538   4.700  11.509  12.135
81588SOL    HW246539   4.607  11.434  12.228
81589SOL     OW46540   8.508   3.591   5.571
81589SOL    HW146541   8.589   3.574   5.619
81589SOL    HW246542   8.493   3.685   5.581
81590SOL     OW46543   1.042  13.000   4.914
81590SOL    HW146544   1.093  13.046   4.980
81590SOL    HW246545   1.105  12.979   4.845
81591SOL     OW46546   1.987   9.807   9.699
81591SOL    HW146547   2.063   9.782   9.646
81591SOL    HW246548   1.982   9.902   9.692
81592SOL     OW46549  14.403  10.850   8.190
81592SOL    HW146550  14.408  10.858   8.285
81592SOL    HW246551  14.397  10.756   8.173
81593SOL     OW46552   9.269   9.900   8.991
81593SOL    HW146553   9.256   9.870   8.901
81593SOL    HW246554   9.264   9.821   9.044
81594SOL     OW46555   1.733  10.321   5.656
81594SOL    HW146556   1.735  10.239   5.706
81594SOL    HW246557   1.824  10.339   5.637
81595SOL     OW46558   9.483   3.354  12.761
81595SOL    HW146559   9.533   3.301  12.700
81595SOL    HW246560   9.405   3.303  12.781
81596SOL     OW46561  13.578   4.639   3.664
81596SOL    HW146562  13.490   4.661   3.694
81596SOL    HW246563  13.568   4.555   3.620
81597SOL     OW46564  13.321   6.514  14.040
81597SOL    HW146565  13.323   6.422  14.068
81597SOL    HW246566  13.382   6.517  13.966
81598SOL     OW46567   5.447  11.342   4.695
81598SOL    HW146568   5.354  11.362   4.706
81598SOL    HW246569   5.490  11.384   4.769
81599SOL     OW46570  13.951  10.183  12.598
81599SOL    HW146571  14.023  10.229  12.555
81599SOL    HW246572  13.920  10.244  12.665
81600SOL     OW46573  10.668   1.623   0.450
81600SOL    HW146574  10.729   1.550   0.462
81600SOL    HW246575  10.659   1.631   0.356
81601SOL     OW46576  12.028   4.718   6.342
81601SOL    HW146577  12.053   4.712   6.250
81601SOL    HW246578  11.937   4.748   6.340
81602SOL     OW46579   3.521  11.314   7.558
81602SOL    HW146580   3.582  11.246   7.584
81602SOL    HW246581   3.552  11.343   7.472
81603SOL     OW46582   5.809   8.853  13.616
81603SOL    HW146583   5.734   8.913  13.615
81603SOL    HW246584   5.792   8.792  13.544
81604SOL     OW46585   4.488   2.730   9.516
81604SOL    HW146586   4.495   2.732   9.611
81604SOL    HW246587   4.552   2.665   9.488
81605SOL     OW46588   8.024  12.710   6.731
81605SOL    HW146589   8.079  12.780   6.768
81605SOL    HW246590   7.945  12.756   6.700
81606SOL     OW46591  12.120   2.823  11.647
81606SOL    HW146592  12.156   2.910  11.629
81606SOL    HW246593  12.032   2.825  11.609
81607SOL     OW46594  14.253   2.780   7.756
81607SOL    HW146595  14.188   2.802   7.822
81607SOL    HW246596  14.288   2.865   7.727
81608SOL     OW46597  14.048   5.697   8.322
81608SOL    HW146598  14.060   5.640   8.398
81608SOL    HW246599  14.026   5.638   8.251
81609SOL     OW46600   1.742  14.049  12.550
81609SOL    HW146601   1.694  14.051  12.633
81609SOL    HW246602   1.701  13.979  12.500
81610SOL     OW46603   5.705   5.700  11.266
81610SOL    HW146604   5.719   5.766  11.198
81610SOL    HW246605   5.792   5.687  11.305
81611SOL     OW46606   3.299  14.316   2.913
81611SOL    HW146607   3.385  14.273   2.918
81611SOL    HW246608   3.236  14.244   2.906
81612SOL     OW46609  12.918   9.918   3.115
81612SOL    HW146610  12.876   9.965   3.187
81612SOL    HW246611  12.915   9.979   3.042
81613SOL     OW46612  12.656   6.893   8.524
81613SOL    HW146613  12.602   6.932   8.592
81613SOL    HW246614  12.650   6.799   8.540
81614SOL     OW46615   4.157  13.557   2.140
81614SOL    HW146616   4.157  13.651   2.160
81614SOL    HW246617   4.076  13.524   2.180
81615SOL     OW46618  10.420   6.252  10.165
81615SOL    HW146619  10.325   6.262  10.160
81615SOL    HW246620  10.439   6.177  10.109
81616SOL     OW46621  14.811   8.185  14.178
81616SOL    HW146622  14.731   8.141  14.152
81616SOL    HW246623  14.787   8.278  14.185
81617SOL     OW46624   3.246   9.598   2.919
81617SOL    HW146625   3.152   9.605   2.901
81617SOL    HW246626   3.285   9.579   2.834
81618SOL     OW46627   2.178   8.296   8.344
81618SOL    HW146628   2.175   8.212   8.390
81618SOL    HW246629   2.090   8.331   8.352
81619SOL     OW46630   9.405   4.932   3.908
81619SOL    HW146631   9.356   4.974   3.978
81619SOL    HW246632   9.344   4.869   3.869
81620SOL     OW46633   3.688  11.152   3.114
81620SOL    HW146634   3.764  11.199   3.080
81620SOL    HW246635   3.614  11.211   3.099
81621SOL     OW46636   4.801   7.828   9.165
81621SOL    HW146637   4.783   7.903   9.221
81621SOL    HW246638   4.892   7.838   9.139
81622SOL     OW46639  13.063   3.581   6.485
81622SOL    HW146640  13.038   3.653   6.542
81622SOL    HW246641  13.037   3.609   6.397
81623SOL     OW46642  12.305   6.524  11.923
81623SOL    HW146643  12.324   6.439  11.884
81623SOL    HW246644  12.213   6.540  11.903
81624SOL     OW46645  13.178   3.317  14.780
81624SOL    HW146646  13.272   3.303  14.794
81624SOL    HW246647  13.171   3.406  14.746
81625SOL     OW46648  14.636   2.782   0.667
81625SOL    HW146649  14.707   2.835   0.631
81625SOL    HW246650  14.598   2.738   0.590
81626SOL     OW46651   6.155  14.146   9.419
81626SOL    HW146652   6.084  14.157   9.356
81626SOL    HW246653   6.127  14.073   9.474
81627SOL     OW46654   2.826   8.521   6.362
81627SOL    HW146655   2.879   8.536   6.284
81627SOL    HW246656   2.827   8.427   6.375
81628SOL     OW46657   6.219  11.235  11.311
81628SOL    HW146658   6.232  11.315  11.260
81628SOL    HW246659   6.139  11.250  11.360
81629SOL     OW46660   4.752  10.620   8.070
81629SOL    HW146661   4.770  10.687   8.003
81629SOL    HW246662   4.788  10.539   8.033
81630SOL     OW46663  12.774   2.297   8.793
81630SOL    HW146664  12.698   2.293   8.734
81630SOL    HW246665  12.759   2.376   8.845
81631SOL     OW46666   3.085   1.635  12.019
81631SOL    HW146667   3.039   1.665  11.941
81631SOL    HW246668   3.081   1.540  12.014
81632SOL     OW46669   5.110   5.065  12.128
81632SOL    HW146670   5.030   5.083  12.079
81632SOL    HW246671   5.091   4.985  12.178
81633SOL     OW46672   2.684   7.603  10.505
81633SOL    HW146673   2.686   7.686  10.459
81633SOL    HW246674   2.745   7.547  10.457
81634SOL     OW46675  14.361  10.790  14.214
81634SOL    HW146676  14.327  10.874  14.183
81634SOL    HW246677  14.290  10.753  14.267
81635SOL     OW46678  12.087   7.041  12.956
81635SOL    HW146679  12.040   7.091  12.890
81635SOL    HW246680  12.091   6.952  12.921
81636SOL     OW46681  10.340   1.848   5.534
81636SOL    HW146682  10.387   1.894   5.603
81636SOL    HW246683  10.338   1.910   5.460
81637SOL     OW46684  10.812   1.984   9.148
81637SOL    HW146685  10.823   1.890   9.130
81637SOL    HW246686  10.735   1.989   9.204
81638SOL     OW46687  12.118   8.688   1.260
81638SOL    HW146688  12.163   8.705   1.343
81638SOL    HW246689  12.152   8.754   1.201
81639SOL     OW46690  14.759   5.185   3.061
81639SOL    HW146691  14.791   5.097   3.080
81639SOL    HW246692  14.772   5.233   3.142
81640SOL     OW46693   4.140  13.787  12.810
81640SOL    HW146694   4.142  13.806  12.716
81640SOL    HW246695   4.086  13.857  12.848
81641SOL     OW46696   3.145   4.674   1.523
81641SOL    HW146697   3.210   4.628   1.576
81641SOL    HW246698   3.114   4.744   1.579
81642SOL     OW46699  11.290  11.613   0.927
81642SOL    HW146700  11.381  11.642   0.917
81642SOL    HW246701  11.247  11.685   0.973
81643SOL     OW46702   5.347   7.452   5.402
81643SOL    HW146703   5.282   7.499   5.454
81643SOL    HW246704   5.299   7.423   5.325
81644SOL     OW46705   2.242   3.329   8.722
81644SOL    HW146706   2.179   3.389   8.682
81644SOL    HW246707   2.240   3.252   8.665
81645SOL     OW46708   4.197   8.919  11.809
81645SOL    HW146709   4.143   8.981  11.759
81645SOL    HW246710   4.171   8.833  11.776
81646SOL     OW46711  10.439   5.309  14.626
81646SOL    HW146712  10.533   5.328  14.623
81646SOL    HW246713  10.421   5.266  14.543
81647SOL     OW46714  14.224   7.483  14.830
81647SOL    HW146715  14.148   7.435  14.861
81647SOL    HW246716  14.215   7.570  14.869
81648SOL     OW46717  11.408   6.603   5.875
81648SOL    HW146718  11.386   6.511   5.889
81648SOL    HW246719  11.395   6.617   5.781
81649SOL     OW46720  13.897   2.184   8.130
81649SOL    HW146721  13.992   2.198   8.126
81649SOL    HW246722  13.882   2.150   8.218
81650SOL     OW46723   8.413  11.553   3.903
81650SOL    HW146724   8.384  11.565   3.994
81650SOL    HW246725   8.335  11.527   3.856
81651SOL     OW46726   4.949   7.279   5.166
81651SOL    HW146727   4.897   7.230   5.230
81651SOL    HW246728   4.937   7.231   5.084
81652SOL     OW46729  12.685   5.189   8.398
81652SOL    HW146730  12.636   5.258   8.355
81652SOL    HW246731  12.776   5.203   8.372
81653SOL     OW46732   3.354   0.850  14.357
81653SOL    HW146733   3.364   0.825  14.265
81653SOL    HW246734   3.413   0.791  14.404
81654SOL     OW46735   2.030  11.898   2.203
81654SOL    HW146736   1.940  11.918   2.229
81654SOL    HW246737   2.035  11.802   2.208
81655SOL     OW46738   8.444   1.681   7.126
81655SOL    HW146739   8.354   1.658   7.149
81655SOL    HW246740   8.452   1.657   7.034
81656SOL     OW46741   2.558   2.075   6.537
81656SOL    HW146742   2.482   2.038   6.581
81656SOL    HW246743   2.622   2.089   6.606
81657SOL     OW46744  13.257   0.408  10.567
81657SOL    HW146745  13.317   0.335  10.584
81657SOL    HW246746  13.281   0.439  10.480
81658SOL     OW46747   8.871   4.710   9.125
81658SOL    HW146748   8.802   4.650   9.154
81658SOL    HW246749   8.880   4.694   9.031
81659SOL     OW46750  13.636   8.914   7.961
81659SOL    HW146751  13.584   8.978   7.913
81659SOL    HW246752  13.668   8.853   7.895
81660SOL     OW46753  14.482  10.275   6.863
81660SOL    HW146754  14.475  10.280   6.958
81660SOL    HW246755  14.441  10.192   6.840
81661SOL     OW46756   5.187  12.733  13.281
81661SOL    HW146757   5.152  12.644  13.269
81661SOL    HW246758   5.133  12.787  13.223
81662SOL     OW46759   9.336  11.917  13.554
81662SOL    HW146760   9.391  11.851  13.596
81662SOL    HW246761   9.246  11.889  13.572
81663SOL     OW46762   4.350  10.055   7.203
81663SOL    HW146763   4.381   9.970   7.172
81663SOL    HW246764   4.422  10.089   7.255
81664SOL     OW46765   4.404  12.044   1.325
81664SOL    HW146766   4.387  11.969   1.268
81664SOL    HW246767   4.487  12.079   1.295
81665SOL     OW46768   2.814   5.004  14.469
81665SOL    HW146769   2.907   4.990  14.489
81665SOL    HW246770   2.776   4.917  14.471
81666SOL     OW46771   4.281  12.415   7.204
81666SOL    HW146772   4.247  12.348   7.144
81666SOL    HW246773   4.219  12.488   7.196
81667SOL     OW46774   3.846  14.098   6.407
81667SOL    HW146775   3.768  14.080   6.459
81667SOL    HW246776   3.842  14.035   6.335
81668SOL     OW46777   5.446  12.442   9.552
81668SOL    HW146778   5.440  12.364   9.608
81668SOL    HW246779   5.517  12.494   9.591
81669SOL     OW46780  13.109   9.845   3.808
81669SOL    HW146781  13.075   9.885   3.888
81669SOL    HW246782  13.186   9.898   3.786
81670SOL     OW46783   9.183  12.438   9.789
81670SOL    HW146784   9.231  12.356   9.775
81670SOL    HW246785   9.138  12.453   9.706
81671SOL     OW46786   4.877  13.672   9.529
81671SOL    HW146787   4.900  13.585   9.495
81671SOL    HW246788   4.959  13.707   9.563
81672SOL     OW46789   9.984   5.162  12.323
81672SOL    HW146790  10.038   5.240  12.309
81672SOL    HW246791   9.976   5.123  12.236
81673SOL     OW46792  13.494  11.508   8.616
81673SOL    HW146793  13.578  11.489   8.574
81673SOL    HW246794  13.506  11.483   8.707
81674SOL     OW46795  12.286   7.641  13.961
81674SOL    HW146796  12.335   7.627  14.041
81674SOL    HW246797  12.310   7.568  13.904
81675SOL     OW46798   1.637   4.410   0.753
81675SOL    HW146799   1.576   4.343   0.721
81675SOL    HW246800   1.621   4.413   0.848
81676SOL     OW46801   0.117   0.790   1.707
81676SOL    HW146802   0.183   0.742   1.657
81676SOL    HW246803   0.099   0.867   1.653
81677SOL     OW46804   9.365   8.875  13.499
81677SOL    HW146805   9.295   8.936  13.473
81677SOL    HW246806   9.328   8.827  13.573
81678SOL     OW46807   0.854   0.771  10.691
81678SOL    HW146808   0.858   0.785  10.596
81678SOL    HW246809   0.837   0.858  10.727
81679SOL     OW46810  12.206   4.621   9.421
81679SOL    HW146811  12.254   4.661   9.348
81679SOL    HW246812  12.122   4.668   9.423
81680SOL     OW46813   5.752   8.991   5.618
81680SOL    HW146814   5.743   9.017   5.526
81680SOL    HW246815   5.840   8.954   5.624
81681SOL     OW46816   1.503  12.536   5.087
81681SOL    HW146817   1.479  12.615   5.038
81681SOL    HW246818   1.543  12.479   5.021
81682SOL     OW46819  12.508  10.795  12.825
81682SOL    HW146820  12.568  10.855  12.870
81682SOL    HW246821  12.542  10.792  12.735
81683SOL     OW46822   3.118  14.859  14.505
81683SOL    HW146823   3.136   0.072  14.481
81683SOL    HW246824   3.135  14.856  14.599
81684SOL     OW46825   5.885   0.400   1.773
81684SOL    HW146826   5.831   0.396   1.694
81684SOL    HW246827   5.893   0.493   1.792
81685SOL     OW46828  11.271   8.646   1.009
81685SOL    HW146829  11.239   8.637   1.099
81685SOL    HW246830  11.366   8.652   1.017
81686SOL     OW46831   0.781   0.187   9.256
81686SOL    HW146832   0.861   0.208   9.208
81686SOL    HW246833   0.813   0.156   9.341
81687SOL     OW46834   3.056   2.654   3.256
81687SOL    HW146835   3.042   2.742   3.222
81687SOL    HW246836   3.102   2.668   3.339
81688SOL     OW46837   4.107   6.260   6.639
81688SOL    HW146838   4.035   6.198   6.628
81688SOL    HW246839   4.179   6.221   6.590
81689SOL     OW46840   1.872   9.173   1.204
81689SOL    HW146841   1.948   9.204   1.253
81689SOL    HW246842   1.819   9.126   1.269
81690SOL     OW46843  11.053   1.230   7.174
81690SOL    HW146844  10.964   1.264   7.184
81690SOL    HW246845  11.089   1.230   7.262
81691SOL     OW46846  12.103   4.238   3.715
81691SOL    HW146847  12.059   4.323   3.715
81691SOL    HW246848  12.091   4.206   3.625
81692SOL     OW46849   7.165  13.866  12.899
81692SOL    HW146850   7.104  13.800  12.865
81692SOL    HW246851   7.198  13.829  12.980
81693SOL     OW46852   8.709   6.128   6.946
81693SOL    HW146853   8.699   6.038   6.915
81693SOL    HW246854   8.724   6.119   7.040
81694SOL     OW46855   4.793   2.606  11.604
81694SOL    HW146856   4.773   2.661  11.528
81694SOL    HW246857   4.882   2.576  11.589
81695SOL     OW46858  10.417   0.099   9.581
81695SOL    HW146859  10.444   0.087   9.490
81695SOL    HW246860  10.487   0.151   9.620
81696SOL     OW46861   8.660  10.502  11.687
81696SOL    HW146862   8.689  10.569  11.748
81696SOL    HW246863   8.726  10.433  11.694
81697SOL     OW46864  11.500  13.827  11.765
81697SOL    HW146865  11.436  13.765  11.730
81697SOL    HW246866  11.573  13.822  11.703
81698SOL     OW46867   5.216   4.156   2.279
81698SOL    HW146868   5.141   4.101   2.299
81698SOL    HW246869   5.247   4.125   2.194
81699SOL     OW46870  10.372   2.857   9.097
81699SOL    HW146871  10.422   2.856   9.015
81699SOL    HW246872  10.434   2.887   9.163
81700SOL     OW46873   7.357  13.991   0.557
81700SOL    HW146874   7.428  14.028   0.505
81700SOL    HW246875   7.330  14.062   0.615
81701SOL     OW46876   6.653   4.954   7.930
81701SOL    HW146877   6.698   4.873   7.905
81701SOL    HW246878   6.646   5.003   7.848
81702SOL     OW46879   2.369   7.732  11.346
81702SOL    HW146880   2.396   7.810  11.396
81702SOL    HW246881   2.274   7.730  11.354
81703SOL     OW46882   4.035   8.733   0.418
81703SOL    HW146883   3.975   8.667   0.453
81703SOL    HW246884   4.084   8.687   0.350
81704SOL     OW46885  11.654  13.472  13.645
81704SOL    HW146886  11.717  13.402  13.627
81704SOL    HW246887  11.569  13.436  13.617
81705SOL     OW46888   5.813  10.885  10.453
81705SOL    HW146889   5.865  10.857  10.378
81705SOL    HW246890   5.877  10.925  10.512
81706SOL     OW46891   8.280   7.568   7.350
81706SOL    HW146892   8.354   7.622   7.321
81706SOL    HW246893   8.302   7.480   7.320
81707SOL     OW46894  12.066   3.568  10.120
81707SOL    HW146895  12.136   3.561  10.185
81707SOL    HW246896  12.097   3.636  10.060
81708SOL     OW46897   1.387   6.771   0.105
81708SOL    HW146898   1.467   6.793   0.059
81708SOL    HW246899   1.373   6.844   0.165
81709SOL     OW46900   1.104   1.076  11.085
81709SOL    HW146901   1.069   1.140  11.148
81709SOL    HW246902   1.196   1.066  11.110
81710SOL     OW46903  12.051   7.306  13.689
81710SOL    HW146904  12.080   7.221  13.722
81710SOL    HW246905  12.010   7.349  13.763
81711SOL     OW46906  11.315  14.016  14.546
81711SOL    HW146907  11.389  14.040  14.601
81711SOL    HW246908  11.242  14.004  14.607
81712SOL     OW46909   3.696   3.864   6.529
81712SOL    HW146910   3.684   3.805   6.603
81712SOL    HW246911   3.668   3.950   6.563
81713SOL     OW46912  12.975  14.363   0.220
81713SOL    HW146913  12.980  14.294   0.154
81713SOL    HW246914  12.895  14.411   0.199
81714SOL     OW46915  14.554   9.360   8.641
81714SOL    HW146916  14.561   9.301   8.716
81714SOL    HW246917  14.630   9.338   8.586
81715SOL     OW46918   2.382  10.949   1.005
81715SOL    HW146919   2.435  11.026   0.985
81715SOL    HW246920   2.298  10.985   1.033
81716SOL     OW46921  12.661   9.847  12.507
81716SOL    HW146922  12.624   9.767  12.544
81716SOL    HW246923  12.697   9.820  12.423
81717SOL     OW46924  14.823   9.162  11.768
81717SOL    HW146925   0.017   9.212  11.808
81717SOL    HW246926  14.843   9.164  11.674
81718SOL     OW46927  13.912  11.448  10.669
81718SOL    HW146928  13.950  11.373  10.624
81718SOL    HW246929  13.820  11.425  10.681
81719SOL     OW46930   7.667   6.737   0.493
81719SOL    HW146931   7.733   6.706   0.555
81719SOL    HW246932   7.676   6.832   0.495
81720SOL     OW46933   3.639   2.685   3.133
81720SOL    HW146934   3.633   2.773   3.169
81720SOL    HW246935   3.611   2.695   3.041
81721SOL     OW46936   6.318   5.679  13.224
81721SOL    HW146937   6.292   5.589  13.207
81721SOL    HW246938   6.337   5.715  13.138
81722SOL     OW46939   0.028   1.972   4.939
81722SOL    HW146940  14.865   2.053   4.971
81722SOL    HW246941   0.008   1.907   5.006
81723SOL     OW46942   5.388  10.002   5.308
81723SOL    HW146943   5.320  10.069   5.318
81723SOL    HW246944   5.409  10.003   5.215
81724SOL     OW46945   1.339  11.813   5.074
81724SOL    HW146946   1.315  11.770   5.156
81724SOL    HW246947   1.432  11.794   5.063
81725SOL     OW46948   7.382   0.621  14.679
81725SOL    HW146949   7.344   0.699  14.719
81725SOL    HW246950   7.313   0.555  14.685
81726SOL     OW46951  11.040   8.596   8.468
81726SOL    HW146952  11.006   8.507   8.473
81726SOL    HW246953  10.984   8.647   8.526
81727SOL     OW46954   4.626   6.481   7.931
81727SOL    HW146955   4.664   6.427   7.862
81727SOL    HW246956   4.699   6.530   7.967
81728SOL     OW46957   9.483   1.060  11.634
81728SOL    HW146958   9.507   1.143  11.675
81728SOL    HW246959   9.483   0.996  11.706
81729SOL     OW46960   8.858  14.227   1.863
81729SOL    HW146961   8.853  14.306   1.808
81729SOL    HW246962   8.767  14.200   1.873
81730SOL     OW46963   3.982   3.903   1.198
81730SOL    HW146964   3.962   3.818   1.238
81730SOL    HW246965   3.985   3.885   1.104
81731SOL     OW46966   2.053   4.911   6.416
81731SOL    HW146967   2.080   4.963   6.341
81731SOL    HW246968   1.999   4.970   6.469
81732SOL     OW46969  10.327   6.324   2.998
81732SOL    HW146970  10.312   6.365   3.083
81732SOL    HW246971  10.241   6.292   2.971
81733SOL     OW46972  14.552   4.918   6.138
81733SOL    HW146973  14.467   4.917   6.095
81733SOL    HW246974  14.569   5.011   6.153
81734SOL     OW46975   2.627  13.033   8.974
81734SOL    HW146976   2.711  13.079   8.985
81734SOL    HW246977   2.563  13.104   8.960
81735SOL     OW46978  13.249   0.048   7.836
81735SOL    HW146979  13.324   0.019   7.889
81735SOL    HW246980  13.255  14.874   7.756
81736SOL     OW46981   9.380  14.393  13.416
81736SOL    HW146982   9.387  14.399  13.511
81736SOL    HW246983   9.373  14.485  13.387
81737SOL     OW46984   3.403  13.186  13.764
81737SOL    HW146985   3.325  13.242  13.757
81737SOL    HW246986   3.369  13.097  13.751
81738SOL     OW46987  10.551  13.254  12.261
81738SOL    HW146988  10.550  13.349  12.276
81738SOL    HW246989  10.607  13.243  12.185
81739SOL     OW46990   1.725  11.108   2.133
81739SOL    HW146991   1.785  11.056   2.079
81739SOL    HW246992   1.779  11.137   2.207
81740SOL     OW46993   4.655   1.243   9.615
81740SOL    HW146994   4.661   1.323   9.563
81740SOL    HW246995   4.712   1.181   9.569
81741SOL     OW46996   5.162   2.597   8.786
81741SOL    HW146997   5.195   2.508   8.794
81741SOL    HW246998   5.218   2.637   8.719
81742SOL     OW46999  11.610   4.999   4.349
81742SOL    HW147000  11.572   4.917   4.379
81742SOL    HW247001  11.536   5.051   4.319
81743SOL     OW47002   2.829   4.384  14.698
81743SOL    HW147003   2.857   4.416  14.784
81743SOL    HW247004   2.735   4.368  14.707
81744SOL     OW47005  13.491   0.309   3.848
81744SOL    HW147006  13.558   0.363   3.890
81744SOL    HW247007  13.539   0.257   3.784
81745SOL     OW47008  10.219  13.275  11.748
81745SOL    HW147009  10.182  13.300  11.663
81745SOL    HW247010  10.307  13.245  11.728
81746SOL     OW47011  14.631   9.188  13.645
81746SOL    HW147012  14.538   9.210  13.650
81746SOL    HW247013  14.677   9.270  13.662
81747SOL     OW47014  14.493   2.357   8.603
81747SOL    HW147015  14.485   2.275   8.653
81747SOL    HW247016  14.424   2.413   8.637
81748SOL     OW47017   3.291   4.283   0.237
81748SOL    HW147018   3.280   4.235   0.319
81748SOL    HW247019   3.302   4.374   0.264
81749SOL     OW47020  10.664   7.855  13.856
81749SOL    HW147021  10.636   7.764  13.853
81749SOL    HW247022  10.617   7.897  13.784
81750SOL     OW47023   3.101   6.432   6.605
81750SOL    HW147024   3.158   6.444   6.530
81750SOL    HW247025   3.012   6.434   6.568
81751SOL     OW47026  10.696   4.753  12.432
81751SOL    HW147027  10.719   4.714  12.348
81751SOL    HW247028  10.614   4.710  12.457
81752SOL     OW47029  10.011  11.124  11.389
81752SOL    HW147030   9.996  11.033  11.363
81752SOL    HW247031  10.081  11.154  11.331
81753SOL     OW47032  14.333  10.822  11.684
81753SOL    HW147033  14.411  10.850  11.731
81753SOL    HW247034  14.365  10.785  11.602
81754SOL     OW47035  13.545   7.791   6.949
81754SOL    HW147036  13.532   7.809   7.042
81754SOL    HW247037  13.639   7.775   6.940
81755SOL     OW47038   1.905   2.032   7.832
81755SOL    HW147039   1.954   2.103   7.790
81755SOL    HW247040   1.814   2.047   7.807
81756SOL     OW47041  12.904   1.337   8.558
81756SOL    HW147042  12.981   1.391   8.574
81756SOL    HW247043  12.927   1.251   8.592
81757SOL     OW47044   2.316   3.999   7.102
81757SOL    HW147045   2.259   3.953   7.040
81757SOL    HW247046   2.390   4.028   7.049
81758SOL     OW47047  14.853  12.685  12.394
81758SOL    HW147048  14.842  12.727  12.479
81758SOL    HW247049  14.816  12.747  12.331
81759SOL     OW47050   1.181  10.045   6.792
81759SOL    HW147051   1.196  10.042   6.887
81759SOL    HW247052   1.189  10.138   6.770
81760SOL     OW47053   3.707  14.495   5.476
81760SOL    HW147054   3.698  14.404   5.506
81760SOL    HW247055   3.623  14.515   5.435
81761SOL     OW47056   5.167   0.780   8.171
81761SOL    HW147057   5.154   0.841   8.243
81761SOL    HW247058   5.102   0.712   8.186
81762SOL     OW47059  10.555   3.814   2.979
81762SOL    HW147060  10.567   3.898   2.935
81762SOL    HW247061  10.499   3.833   3.053
81763SOL     OW47062   6.511   3.610   6.756
81763SOL    HW147063   6.581   3.664   6.720
81763SOL    HW247064   6.449   3.672   6.794
81764SOL     OW47065   3.866   7.477   8.569
81764SOL    HW147066   3.808   7.414   8.612
81764SOL    HW247067   3.858   7.458   8.476
81765SOL     OW47068   8.075   7.774  13.642
81765SOL    HW147069   7.999   7.717  13.633
81765SOL    HW247070   8.113   7.778  13.554
81766SOL     OW47071  12.760  14.658   8.066
81766SOL    HW147072  12.752  14.717   7.992
81766SOL    HW247073  12.834  14.692   8.116
81767SOL     OW47074   7.448  13.815   7.160
81767SOL    HW147075   7.510  13.886   7.145
81767SOL    HW247076   7.367  13.844   7.118
81768SOL     OW47077  13.873   1.591  13.661
81768SOL    HW147078  13.945   1.546  13.705
81768SOL    HW247079  13.910   1.675  13.634
81769SOL     OW47080   3.343  14.006  13.815
81769SOL    HW147081   3.287  13.941  13.771
81769SOL    HW247082   3.432  13.974  13.801
81770SOL     OW47083  11.299   0.232   9.325
81770SOL    HW147084  11.349   0.233   9.406
81770SOL    HW247085  11.353   0.183   9.263
81771SOL     OW47086   2.003   3.430   9.932
81771SOL    HW147087   1.980   3.477   9.853
81771SOL    HW247088   2.022   3.498   9.997
81772SOL     OW47089   7.502   9.003   4.947
81772SOL    HW147090   7.519   9.092   4.977
81772SOL    HW247091   7.577   8.981   4.892
81773SOL     OW47092   5.056   6.167  12.490
81773SOL    HW147093   5.134   6.158  12.435
81773SOL    HW247094   5.017   6.250  12.463
81774SOL     OW47095  14.835   1.000   8.792
81774SOL    HW147096  14.836   0.908   8.819
81774SOL    HW247097  14.744   1.017   8.767
81775SOL     OW47098   7.705  10.228   9.605
81775SOL    HW147099   7.687  10.161   9.538
81775SOL    HW247100   7.676  10.310   9.566
81776SOL     OW47101   3.385   5.671   3.027
81776SOL    HW147102   3.468   5.697   3.065
81776SOL    HW247103   3.395   5.577   3.009
81777SOL     OW47104   8.158  11.294   1.972
81777SOL    HW147105   8.174  11.266   2.062
81777SOL    HW247106   8.153  11.212   1.922
81778SOL     OW47107   4.758   1.674  13.368
81778SOL    HW147108   4.798   1.760  13.382
81778SOL    HW247109   4.729   1.647  13.455
81779SOL     OW47110   3.998   6.413   0.825
81779SOL    HW147111   4.007   6.403   0.730
81779SOL    HW247112   4.088   6.429   0.855
81780SOL     OW47113   2.002  14.177  12.689
81780SOL    HW147114   1.966  14.264  12.704
81780SOL    HW247115   1.930  14.128  12.649
81781SOL     OW47116   5.683  12.632  14.658
81781SOL    HW147117   5.716  12.655  14.571
81781SOL    HW247118   5.619  12.700  14.679
81782SOL     OW47119   4.315   6.271  11.964
81782SOL    HW147120   4.408   6.266  11.983
81782SOL    HW247121   4.293   6.186  11.926
81783SOL     OW47122   6.020   4.809   3.098
81783SOL    HW147123   5.983   4.770   3.018
81783SOL    HW247124   5.944   4.839   3.148
81784SOL     OW47125   2.255  13.821  13.562
81784SOL    HW147126   2.187  13.807  13.628
81784SOL    HW247127   2.228  13.766  13.488
81785SOL     OW47128   7.054   6.814   5.249
81785SOL    HW147129   7.042   6.827   5.343
81785SOL    HW247130   7.148   6.799   5.238
81786SOL     OW47131  14.171  12.728   8.677
81786SOL    HW147132  14.194  12.793   8.742
81786SOL    HW247133  14.251  12.713   8.627
81787SOL     OW47134   3.240  11.786   0.465
81787SOL    HW147135   3.239  11.724   0.392
81787SOL    HW247136   3.323  11.769   0.510
81788SOL     OW47137   5.188   7.995   0.870
81788SOL    HW147138   5.208   7.982   0.963
81788SOL    HW247139   5.109   7.941   0.855
81789SOL     OW47140   4.367   1.809  11.806
81789SOL    HW147141   4.424   1.886  11.811
81789SOL    HW247142   4.307   1.818  11.880
81790SOL     OW47143   8.225  10.604   2.379
81790SOL    HW147144   8.219  10.531   2.318
81790SOL    HW247145   8.176  10.574   2.456
81791SOL     OW47146   6.340   2.103   2.609
81791SOL    HW147147   6.294   2.025   2.576
81791SOL    HW247148   6.401   2.069   2.675
81792SOL     OW47149   9.795  13.564   9.861
81792SOL    HW147150   9.737  13.491   9.843
81792SOL    HW247151   9.883  13.526   9.859
81793SOL     OW47152   0.107  12.427   1.681
81793SOL    HW147153   0.016  12.423   1.653
81793SOL    HW247154   0.156  12.456   1.604
81794SOL     OW47155   1.857  13.889   6.648
81794SOL    HW147156   1.920  13.955   6.619
81794SOL    HW247157   1.810  13.930   6.721
81795SOL     OW47158  12.246  10.272   8.499
81795SOL    HW147159  12.259  10.366   8.513
81795SOL    HW247160  12.184  10.267   8.427
81796SOL     OW47161  14.853   2.366  10.804
81796SOL    HW147162  14.870   2.275  10.830
81796SOL    HW247163   0.062   2.404  10.790
81797SOL     OW47164   8.305   4.572   6.581
81797SOL    HW147165   8.285   4.584   6.488
81797SOL    HW247166   8.388   4.524   6.582
81798SOL     OW47167  13.496   7.288  10.494
81798SOL    HW147168  13.579   7.333  10.479
81798SOL    HW247169  13.490   7.280  10.589
81799SOL     OW47170  11.272  11.801   7.963
81799SOL    HW147171  11.355  11.768   7.997
81799SOL    HW247172  11.264  11.763   7.875
81800SOL     OW47173   4.914   8.235  12.118
81800SOL    HW147174   4.909   8.228  12.214
81800SOL    HW247175   4.824   8.249  12.090
81801SOL     OW47176   3.107   7.213   8.982
81801SOL    HW147177   3.119   7.307   8.964
81801SOL    HW247178   3.187   7.172   8.950
81802SOL     OW47179   2.167   6.576   6.457
81802SOL    HW147180   2.119   6.647   6.415
81802SOL    HW247181   2.259   6.597   6.443
81803SOL     OW47182  13.354   3.695  12.003
81803SOL    HW147183  13.269   3.660  11.976
81803SOL    HW247184  13.366   3.662  12.092
81804SOL     OW47185  11.749   0.747   2.619
81804SOL    HW147186  11.807   0.694   2.565
81804SOL    HW247187  11.661   0.715   2.599
81805SOL     OW47188  14.517   2.938  10.210
81805SOL    HW147189  14.489   2.877  10.278
81805SOL    HW247190  14.592   2.984  10.249
81806SOL     OW47191   4.769   3.628   8.464
81806SOL    HW147192   4.783   3.579   8.545
81806SOL    HW247193   4.674   3.633   8.455
81807SOL     OW47194   3.531  12.206  13.498
81807SOL    HW147195   3.603  12.192  13.560
81807SOL    HW247196   3.480  12.278  13.536
81808SOL     OW47197  13.562  10.457   7.559
81808SOL    HW147198  13.546  10.550   7.541
81808SOL    HW247199  13.477  10.415   7.549
81809SOL     OW47200   7.164   1.816   7.001
81809SOL    HW147201   7.203   1.855   7.079
81809SOL    HW247202   7.217   1.847   6.928
81810SOL     OW47203   1.318   9.282   3.541
81810SOL    HW147204   1.294   9.335   3.618
81810SOL    HW247205   1.268   9.321   3.469
81811SOL     OW47206  13.904   5.576   6.971
81811SOL    HW147207  13.929   5.494   7.013
81811SOL    HW247208  13.852   5.622   7.036
81812SOL     OW47209  11.025  13.351  10.758
81812SOL    HW147210  11.103  13.310  10.721
81812SOL    HW247211  11.016  13.312  10.845
81813SOL     OW47212   6.360  11.276   3.594
81813SOL    HW147213   6.438  11.246   3.641
81813SOL    HW247214   6.310  11.197   3.577
81814SOL     OW47215   2.074   5.234  12.820
81814SOL    HW147216   2.002   5.271  12.769
81814SOL    HW247217   2.105   5.307  12.874
81815SOL     OW47218   7.915   2.166   7.304
81815SOL    HW147219   7.991   2.192   7.251
81815SOL    HW247220   7.868   2.248   7.318
81816SOL     OW47221  11.319   0.331   5.755
81816SOL    HW147222  11.297   0.353   5.845
81816SOL    HW247223  11.278   0.246   5.741
81817SOL     OW47224   7.796  12.366   0.102
81817SOL    HW147225   7.731  12.434   0.087
81817SOL    HW247226   7.766  12.292   0.048
81818SOL     OW47227  13.062   9.690   4.531
81818SOL    HW147228  13.107   9.747   4.593
81818SOL    HW247229  13.075   9.602   4.567
81819SOL     OW47230   3.558   2.348   8.647
81819SOL    HW147231   3.553   2.347   8.743
81819SOL    HW247232   3.651   2.335   8.628
81820SOL     OW47233  13.578   0.988   0.894
81820SOL    HW147234  13.599   0.906   0.849
81820SOL    HW247235  13.567   1.052   0.824
81821SOL     OW47236   3.072   2.332   5.979
81821SOL    HW147237   3.052   2.422   6.007
81821SOL    HW247238   3.149   2.308   6.031
81822SOL     OW47239   5.526   8.691   7.850
81822SOL    HW147240   5.610   8.687   7.805
81822SOL    HW247241   5.549   8.702   7.943
81823SOL     OW47242   3.926   2.784  10.849
81823SOL    HW147243   3.846   2.802  10.899
81823SOL    HW247244   3.967   2.870  10.838
81824SOL     OW47245   7.832   7.270   0.175
81824SOL    HW147246   7.900   7.337   0.185
81824SOL    HW247247   7.853   7.204   0.241
81825SOL     OW47248   3.548   7.118  14.418
81825SOL    HW147249   3.478   7.053  14.424
81825SOL    HW247250   3.594   7.096  14.337
81826SOL     OW47251  13.009  13.214   8.283
81826SOL    HW147252  12.926  13.256   8.261
81826SOL    HW247253  13.029  13.246   8.371
81827SOL     OW47254   5.179   6.875   2.670
81827SOL    HW147255   5.147   6.871   2.760
81827SOL    HW247256   5.118   6.822   2.620
81828SOL     OW47257   5.197  11.147  10.751
81828SOL    HW147258   5.142  11.186  10.683
81828SOL    HW247259   5.281  11.131  10.708
81829SOL     OW47260   1.055  13.612   7.664
81829SOL    HW147261   1.062  13.555   7.588
81829SOL    HW247262   1.146  13.625   7.693
81830SOL     OW47263   2.991  10.325  12.375
81830SOL    HW147264   2.918  10.263  12.379
81830SOL    HW247265   2.974  10.387  12.445
81831SOL     OW47266  14.484  10.670  13.991
81831SOL    HW147267  14.473  10.720  14.073
81831SOL    HW247268  14.394  10.651  13.964
81832SOL     OW47269   4.935   5.088  14.034
81832SOL    HW147270   4.918   5.077  14.128
81832SOL    HW247271   4.850   5.074  13.993
81833SOL     OW47272   3.794   7.735   2.081
81833SOL    HW147273   3.820   7.731   2.173
81833SOL    HW247274   3.700   7.716   2.081
81834SOL     OW47275   6.077   7.070  11.313
81834SOL    HW147276   6.119   7.039  11.393
81834SOL    HW247277   6.103   7.007  11.246
81835SOL     OW47278   2.397   1.655  11.278
81835SOL    HW147279   2.407   1.749  11.293
81835SOL    HW247280   2.376   1.648  11.185
81836SOL     OW47281   3.556   4.967   9.261
81836SOL    HW147282   3.611   5.027   9.312
81836SOL    HW247283   3.496   5.024   9.213
81837SOL     OW47284   8.255  10.615  11.113
81837SOL    HW147285   8.229  10.614  11.205
81837SOL    HW247286   8.348  10.637  11.114
81838SOL     OW47287  13.020  10.825  10.702
81838SOL    HW147288  13.111  10.841  10.676
81838SOL    HW247289  13.017  10.733  10.725
81839SOL     OW47290  13.120   1.936  14.856
81839SOL    HW147291  13.197   1.914  14.802
81839SOL    HW247292  13.157   1.965   0.061
81840SOL     OW47293   8.781   1.974   1.839
81840SOL    HW147294   8.822   1.894   1.806
81840SOL    HW247295   8.825   1.991   1.922
81841SOL     OW47296  13.185   3.326  10.308
81841SOL    HW147297  13.222   3.374  10.383
81841SOL    HW247298  13.253   3.332  10.241
81842SOL     OW47299  12.190   6.704   4.731
81842SOL    HW147300  12.151   6.642   4.669
81842SOL    HW247301  12.121   6.720   4.796
81843SOL     OW47302  14.225  12.030   1.075
81843SOL    HW147303  14.172  12.057   1.150
81843SOL    HW247304  14.311  12.009   1.113
81844SOL     OW47305  14.250   2.204   0.249
81844SOL    HW147306  14.319   2.138   0.243
81844SOL    HW247307  14.264   2.245   0.335
81845SOL     OW47308   0.357  13.192   4.663
81845SOL    HW147309   0.380  13.180   4.755
81845SOL    HW247310   0.439  13.214   4.620
81846SOL     OW47311   4.318   1.594   0.318
81846SOL    HW147312   4.286   1.680   0.345
81846SOL    HW247313   4.375   1.566   0.391
81847SOL     OW47314  13.112   1.837  10.744
81847SOL    HW147315  13.184   1.891  10.711
81847SOL    HW247316  13.142   1.807  10.830
81848SOL     OW47317   8.675   4.863  12.679
81848SOL    HW147318   8.642   4.846  12.767
81848SOL    HW247319   8.770   4.857  12.687
81849SOL     OW47320   5.060   6.494  11.727
81849SOL    HW147321   4.998   6.545  11.779
81849SOL    HW247322   5.122   6.559  11.694
81850SOL     OW47323   7.828  14.590   5.125
81850SOL    HW147324   7.757  14.627   5.073
81850SOL    HW247325   7.901  14.650   5.113
81851SOL     OW47326   9.475  10.201  10.330
81851SOL    HW147327   9.559  10.228  10.368
81851SOL    HW247328   9.434  10.146  10.398
81852SOL     OW47329  13.697   1.128   4.865
81852SOL    HW147330  13.607   1.157   4.848
81852SOL    HW247331  13.720   1.169   4.948
81853SOL     OW47332  12.356  14.495  11.106
81853SOL    HW147333  12.366  14.586  11.134
81853SOL    HW247334  12.428  14.481  11.044
81854SOL     OW47335   5.682   5.133  10.607
81854SOL    HW147336   5.683   5.073  10.532
81854SOL    HW247337   5.593   5.168  10.609
81855SOL     OW47338   9.696   3.856   2.534
81855SOL    HW147339   9.688   3.817   2.621
81855SOL    HW247340   9.613   3.836   2.491
81856SOL     OW47341  13.765  11.576   8.506
81856SOL    HW147342  13.713  11.656   8.504
81856SOL    HW247343  13.819  11.580   8.428
81857SOL     OW47344  11.567   3.598  14.363
81857SOL    HW147345  11.500   3.572  14.426
81857SOL    HW247346  11.635   3.532  14.372
81858SOL     OW47347   0.285  10.142   1.090
81858SOL    HW147348   0.256  10.051   1.090
81858SOL    HW247349   0.339  10.150   1.168
81859SOL     OW47350   4.627   8.989  14.094
81859SOL    HW147351   4.706   8.958  14.138
81859SOL    HW247352   4.572   9.023  14.164
81860SOL     OW47353  12.250   0.054  13.847
81860SOL    HW147354  12.318   0.078  13.784
81860SOL    HW247355  12.169   0.086  13.807
81861SOL     OW47356   1.361  14.749  14.371
81861SOL    HW147357   1.376  14.834  14.331
81861SOL    HW247358   1.268  14.748  14.394
81862SOL     OW47359  14.576   8.164  13.714
81862SOL    HW147360  14.610   8.094  13.771
81862SOL    HW247361  14.647   8.180  13.651
81863SOL     OW47362   9.016  11.957  11.870
81863SOL    HW147363   9.092  11.915  11.830
81863SOL    HW247364   8.988  11.896  11.939
81864SOL     OW47365   1.980  11.162   0.576
81864SOL    HW147366   2.022  11.152   0.661
81864SOL    HW247367   1.952  11.073   0.553
81865SOL     OW47368   3.008   5.144   5.809
81865SOL    HW147369   2.928   5.188   5.837
81865SOL    HW247370   3.078   5.191   5.853
81866SOL     OW47371   4.106   9.894  10.524
81866SOL    HW147372   4.200   9.899  10.509
81866SOL    HW247373   4.078   9.985  10.534
81867SOL     OW47374   8.356   4.975   6.935
81867SOL    HW147375   8.333   4.882   6.940
81867SOL    HW247376   8.446   4.975   6.902
81868SOL     OW47377  12.258   6.618  11.123
81868SOL    HW147378  12.239   6.712  11.131
81868SOL    HW247379  12.314   6.598  11.198
81869SOL     OW47380   8.432   6.583   1.870
81869SOL    HW147381   8.410   6.529   1.946
81869SOL    HW247382   8.441   6.672   1.905
81870SOL     OW47383   0.944  12.171  14.675
81870SOL    HW147384   0.977  12.253  14.637
81870SOL    HW247385   1.017  12.139  14.729
81871SOL     OW47386   4.199  10.300   8.638
81871SOL    HW147387   4.202  10.326   8.546
81871SOL    HW247388   4.291  10.303   8.666
81872SOL     OW47389  12.840   4.239   0.407
81872SOL    HW147390  12.860   4.317   0.355
81872SOL    HW247391  12.815   4.272   0.493
81873SOL     OW47392  10.105   3.712   1.373
81873SOL    HW147393  10.157   3.642   1.334
81873SOL    HW247394  10.064   3.672   1.450
81874SOL     OW47395   5.675   7.855   1.605
81874SOL    HW147396   5.692   7.822   1.516
81874SOL    HW247397   5.689   7.949   1.598
81875SOL     OW47398   1.865   7.006   8.777
81875SOL    HW147399   1.846   7.021   8.869
81875SOL    HW247400   1.918   7.082   8.750
81876SOL     OW47401  13.234   3.051  12.949
81876SOL    HW147402  13.255   2.958  12.952
81876SOL    HW247403  13.165   3.062  13.015
81877SOL     OW47404   3.874   3.174   5.245
81877SOL    HW147405   3.916   3.118   5.310
81877SOL    HW247406   3.851   3.115   5.173
81878SOL     OW47407   2.872   5.834   0.699
81878SOL    HW147408   2.824   5.819   0.781
81878SOL    HW247409   2.948   5.777   0.706
81879SOL     OW47410  13.597   3.858  11.998
81879SOL    HW147411  13.514   3.813  12.014
81879SOL    HW247412  13.645   3.850  12.081
81880SOL     OW47413   8.874   9.213   4.432
81880SOL    HW147414   8.792   9.228   4.479
81880SOL    HW247415   8.941   9.213   4.500
81881SOL     OW47416  13.437  11.689   3.546
81881SOL    HW147417  13.449  11.747   3.470
81881SOL    HW247418  13.423  11.603   3.507
81882SOL     OW47419   0.379   8.964   1.006
81882SOL    HW147420   0.461   9.005   1.035
81882SOL    HW247421   0.343   9.025   0.942
81883SOL     OW47422   0.531   6.317  12.816
81883SOL    HW147423   0.468   6.266  12.868
81883SOL    HW247424   0.491   6.323  12.729
81884SOL     OW47425  11.751  14.056   3.956
81884SOL    HW147426  11.671  14.004   3.947
81884SOL    HW247427  11.808  14.003   4.011
81885SOL     OW47428  11.467  11.715   2.357
81885SOL    HW147429  11.470  11.636   2.412
81885SOL    HW247430  11.389  11.761   2.386
81886SOL     OW47431   6.325   9.314   7.392
81886SOL    HW147432   6.356   9.243   7.447
81886SOL    HW247433   6.273   9.271   7.325
81887SOL     OW47434   3.370   2.037  13.557
81887SOL    HW147435   3.389   2.057  13.649
81887SOL    HW247436   3.311   1.962  13.560
81888SOL     OW47437  13.620   2.905   9.313
81888SOL    HW147438  13.710   2.932   9.299
81888SOL    HW247439  13.591   2.957   9.388
81889SOL     OW47440   3.138   1.150  13.999
81889SOL    HW147441   3.209   1.203  13.963
81889SOL    HW247442   3.165   1.059  13.983
81890SOL     OW47443   9.017   6.162   8.504
81890SOL    HW147444   9.034   6.077   8.465
81890SOL    HW247445   8.990   6.143   8.594
81891SOL     OW47446   2.651   5.418   2.042
81891SOL    HW147447   2.735   5.401   2.083
81891SOL    HW247448   2.591   5.434   2.115
81892SOL     OW47449   4.821   3.678  11.553
81892SOL    HW147450   4.767   3.724  11.618
81892SOL    HW247451   4.850   3.748  11.494
81893SOL     OW47452  10.252   6.720  11.382
81893SOL    HW147453  10.218   6.632  11.366
81893SOL    HW247454  10.183   6.779  11.352
81894SOL     OW47455  10.140   5.730   8.494
81894SOL    HW147456  10.082   5.797   8.530
81894SOL    HW247457  10.196   5.705   8.567
81895SOL     OW47458   9.846  14.340   9.782
81895SOL    HW147459   9.768  14.356   9.835
81895SOL    HW247460   9.861  14.422   9.736
81896SOL     OW47461   8.327  14.053   6.447
81896SOL    HW147462   8.308  13.979   6.504
81896SOL    HW247463   8.308  14.130   6.501
81897SOL     OW47464   8.424  13.507   1.324
81897SOL    HW147465   8.432  13.601   1.341
81897SOL    HW247466   8.330  13.493   1.311
81898SOL     OW47467   1.255   1.158   0.932
81898SOL    HW147468   1.246   1.109   0.850
81898SOL    HW247469   1.287   1.244   0.905
81899SOL     OW47470   0.715  11.435   8.183
81899SOL    HW147471   0.801  11.430   8.223
81899SOL    HW247472   0.704  11.351   8.139
81900SOL     OW47473   7.638   4.361   1.019
81900SOL    HW147474   7.640   4.443   1.068
81900SOL    HW247475   7.720   4.318   1.040
81901SOL     OW47476   5.286  12.420   4.137
81901SOL    HW147477   5.309  12.455   4.222
81901SOL    HW247478   5.216  12.477   4.105
81902SOL     OW47479   7.743   1.109   5.131
81902SOL    HW147480   7.769   1.153   5.050
81902SOL    HW247481   7.810   1.132   5.194
81903SOL     OW47482   7.483  14.478  12.750
81903SOL    HW147483   7.524  14.503  12.667
81903SOL    HW247484   7.390  14.465  12.729
81904SOL     OW47485   5.662  14.869  11.478
81904SOL    HW147486   5.688   0.031  11.395
81904SOL    HW247487   5.737   0.005  11.535
81905SOL     OW47488  13.835   1.692  12.015
81905SOL    HW147489  13.817   1.725  11.927
81905SOL    HW247490  13.760   1.720  12.067
81906SOL     OW47491  12.079   9.554   4.009
81906SOL    HW147492  12.138   9.492   3.966
81906SOL    HW247493  12.004   9.501   4.036
81907SOL     OW47494   4.094  12.669  12.854
81907SOL    HW147495   4.078  12.748  12.906
81907SOL    HW247496   4.164  12.694  12.793
81908SOL     OW47497   3.441   2.837   1.134
81908SOL    HW147498   3.506   2.812   1.068
81908SOL    HW247499   3.477   2.806   1.217
81909SOL     OW47500  10.274   9.777   9.638
81909SOL    HW147501  10.192   9.825   9.625
81909SOL    HW247502  10.306   9.762   9.549
81910SOL     OW47503   2.163   6.636   1.425
81910SOL    HW147504   2.164   6.594   1.511
81910SOL    HW247505   2.104   6.711   1.435
81911SOL     OW47506   7.484  10.606   6.466
81911SOL    HW147507   7.522  10.553   6.536
81911SOL    HW247508   7.500  10.555   6.386
81912SOL     OW47509  12.952   4.673  13.410
81912SOL    HW147510  12.879   4.644  13.354
81912SOL    HW247511  13.030   4.643  13.364
81913SOL     OW47512   6.769  12.213  12.517
81913SOL    HW147513   6.686  12.228  12.471
81913SOL    HW247514   6.780  12.118  12.516
81914SOL     OW47515   9.759   5.142   2.226
81914SOL    HW147516   9.713   5.197   2.162
81914SOL    HW247517   9.785   5.203   2.295
81915SOL     OW47518  13.543  13.490  14.270
81915SOL    HW147519  13.462  13.440  14.258
81915SOL    HW247520  13.517  13.581  14.261
81916SOL     OW47521   6.089   2.110  12.468
81916SOL    HW147522   6.101   2.174  12.539
81916SOL    HW247523   6.002   2.128  12.434
81917SOL     OW47524   7.163   9.197  12.028
81917SOL    HW147525   7.158   9.121  11.970
81917SOL    HW247526   7.174   9.272  11.969
81918SOL     OW47527   1.183   1.594  12.693
81918SOL    HW147528   1.214   1.626  12.778
81918SOL    HW247529   1.254   1.538  12.661
81919SOL     OW47530   7.395   2.762   5.885
81919SOL    HW147531   7.401   2.716   5.801
81919SOL    HW247532   7.486   2.781   5.909
81920SOL     OW47533   2.486  14.502  12.942
81920SOL    HW147534   2.453  14.438  12.879
81920SOL    HW247535   2.413  14.518  13.001
81921SOL     OW47536   7.793   1.791   5.995
81921SOL    HW147537   7.763   1.735   5.923
81921SOL    HW247538   7.826   1.729   6.060
81922SOL     OW47539   1.189  14.222  10.628
81922SOL    HW147540   1.214  14.298  10.575
81922SOL    HW247541   1.159  14.157  10.563
81923SOL     OW47542  10.737  12.519   9.275
81923SOL    HW147543  10.801  12.488   9.210
81923SOL    HW247544  10.743  12.456   9.347
81924SOL     OW47545   1.444  12.705   4.500
81924SOL    HW147546   1.469  12.768   4.433
81924SOL    HW247547   1.508  12.634   4.492
81925SOL     OW47548  10.627   8.269   0.482
81925SOL    HW147549  10.697   8.330   0.507
81925SOL    HW247550  10.668   8.183   0.482
81926SOL     OW47551  10.926   4.042  11.778
81926SOL    HW147552  11.005   4.055  11.830
81926SOL    HW247553  10.939   3.958  11.734
81927SOL     OW47554  12.842   5.565  11.005
81927SOL    HW147555  12.868   5.567  11.097
81927SOL    HW247556  12.890   5.638  10.965
81928SOL     OW47557  13.732   6.272   2.918
81928SOL    HW147558  13.690   6.338   2.974
81928SOL    HW247559  13.752   6.319   2.837
81929SOL     OW47560   7.894  12.902  14.072
81929SOL    HW147561   7.930  12.975  14.021
81929SOL    HW247562   7.917  12.922  14.163
81930SOL     OW47563   0.467  12.969   7.645
81930SOL    HW147564   0.502  12.881   7.636
81930SOL    HW247565   0.403  12.977   7.574
81931SOL     OW47566  10.084   9.980  13.118
81931SOL    HW147567  10.177   9.993  13.138
81931SOL    HW247568  10.042   9.973  13.204
81932SOL     OW47569   2.115   6.717  14.429
81932SOL    HW147570   2.100   6.627  14.455
81932SOL    HW247571   2.029   6.758  14.433
81933SOL     OW47572   0.991   8.651   3.986
81933SOL    HW147573   0.906   8.654   4.030
81933SOL    HW247574   1.002   8.739   3.948
81934SOL     OW47575  10.946   7.034  14.301
81934SOL    HW147576  10.853   7.011  14.309
81934SOL    HW247577  10.946   7.117  14.255
81935SOL     OW47578   8.622   2.017   1.550
81935SOL    HW147579   8.597   2.048   1.636
81935SOL    HW247580   8.576   2.075   1.489
81936SOL     OW47581   1.274   1.836  12.357
81936SOL    HW147582   1.339   1.783  12.402
81936SOL    HW247583   1.195   1.828  12.410
81937SOL     OW47584   0.040  11.395   1.141
81937SOL    HW147585  14.858  11.417   1.070
81937SOL    HW247586   0.127  11.396   1.100
81938SOL     OW47587   2.575   8.348  13.575
81938SOL    HW147588   2.515   8.382  13.508
81938SOL    HW247589   2.609   8.426  13.618
81939SOL     OW47590  12.447   3.786  12.154
81939SOL    HW147591  12.514   3.852  12.172
81939SOL    HW247592  12.365   3.835  12.153
81940SOL     OW47593   2.880  12.010   9.848
81940SOL    HW147594   2.791  11.985   9.822
81940SOL    HW247595   2.868  12.088   9.903
81941SOL     OW47596  10.816  14.205   7.954
81941SOL    HW147597  10.764  14.194   7.874
81941SOL    HW247598  10.893  14.255   7.926
81942SOL     OW47599   5.923   9.061  11.767
81942SOL    HW147600   5.851   8.998  11.772
81942SOL    HW247601   5.998   9.009  11.738
81943SOL     OW47602  12.164   0.317   8.564
81943SOL    HW147603  12.130   0.253   8.502
81943SOL    HW247604  12.254   0.288   8.582
81944SOL     OW47605   5.664  11.140  10.361
81944SOL    HW147606   5.684  11.058  10.405
81944SOL    HW247607   5.723  11.141  10.285
81945SOL     OW47608   9.188   5.843   4.417
81945SOL    HW147609   9.156   5.847   4.507
81945SOL    HW247610   9.282   5.830   4.425
81946SOL     OW47611  12.324   8.698   2.310
81946SOL    HW147612  12.374   8.628   2.268
81946SOL    HW247613  12.356   8.778   2.269
81947SOL     OW47614   2.129  14.063   5.454
81947SOL    HW147615   2.170  14.063   5.368
81947SOL    HW247616   2.194  14.021   5.511
81948SOL     OW47617  12.514   8.742  10.449
81948SOL    HW147618  12.544   8.819  10.402
81948SOL    HW247619  12.534   8.669  10.390
81949SOL     OW47620   6.867   9.221   4.415
81949SOL    HW147621   6.789   9.192   4.368
81949SOL    HW247622   6.901   9.141   4.456
81950SOL     OW47623   8.825  14.306  14.510
81950SOL    HW147624   8.852  14.396  14.492
81950SOL    HW247625   8.816  14.266  14.424
81951SOL     OW47626   4.549   5.494  12.369
81951SOL    HW147627   4.486   5.547  12.416
81951SOL    HW247628   4.505   5.471  12.287
81952SOL     OW47629   0.959   5.771   4.920
81952SOL    HW147630   0.932   5.684   4.950
81952SOL    HW247631   0.985   5.817   5.000
81953SOL     OW47632   3.308   0.827  12.431
81953SOL    HW147633   3.238   0.893  12.427
81953SOL    HW247634   3.266   0.747  12.400
81954SOL     OW47635   3.252   9.899   4.513
81954SOL    HW147636   3.193   9.930   4.581
81954SOL    HW247637   3.283   9.978   4.470
81955SOL     OW47638   4.440  14.035  11.085
81955SOL    HW147639   4.488  13.967  11.037
81955SOL    HW247640   4.428  14.105  11.021
81956SOL     OW47641   2.263   3.625   8.935
81956SOL    HW147642   2.322   3.550   8.929
81956SOL    HW247643   2.318   3.696   8.968
81957SOL     OW47644   6.538  14.247   5.410
81957SOL    HW147645   6.550  14.162   5.451
81957SOL    HW247646   6.444  14.253   5.393
81958SOL     OW47647  10.099   3.333   1.727
81958SOL    HW147648  10.147   3.365   1.651
81958SOL    HW247649  10.166   3.317   1.793
81959SOL     OW47650  13.584  13.355  10.895
81959SOL    HW147651  13.560  13.447  10.889
81959SOL    HW247652  13.666  13.355  10.944
81960SOL     OW47653   9.197   5.209   2.250
81960SOL    HW147654   9.276   5.246   2.289
81960SOL    HW247655   9.199   5.239   2.159
81961SOL     OW47656   0.308   7.859   0.831
81961SOL    HW147657   0.276   7.772   0.808
81961SOL    HW247658   0.402   7.848   0.842
81962SOL     OW47659   4.289  12.980   6.932
81962SOL    HW147660   4.252  13.063   6.966
81962SOL    HW247661   4.214  12.936   6.892
81963SOL     OW47662   0.057   2.378   6.396
81963SOL    HW147663   0.063   2.429   6.476
81963SOL    HW247664  14.861   2.415   6.348
81964SOL     OW47665  11.345  12.549  12.845
81964SOL    HW147666  11.327  12.465  12.802
81964SOL    HW247667  11.414  12.589  12.792
81965SOL     OW47668  11.335   8.255   5.865
81965SOL    HW147669  11.313   8.241   5.773
81965SOL    HW247670  11.390   8.179   5.888
81966SOL     OW47671   6.699   1.438   8.560
81966SOL    HW147672   6.730   1.348   8.568
81966SOL    HW247673   6.737   1.483   8.636
81967SOL     OW47674   2.131  12.403   9.740
81967SOL    HW147675   2.044  12.407   9.701
81967SOL    HW247676   2.154  12.495   9.757
81968SOL     OW47677   7.015  12.778  11.710
81968SOL    HW147678   6.943  12.741  11.660
81968SOL    HW247679   7.073  12.704  11.727
81969SOL     OW47680   7.314   5.253  11.668
81969SOL    HW147681   7.377   5.190  11.632
81969SOL    HW247682   7.240   5.251  11.607
81970SOL     OW47683   9.635   5.270  11.521
81970SOL    HW147684   9.615   5.232  11.607
81970SOL    HW247685   9.730   5.267  11.515
81971SOL     OW47686   4.803   3.851  12.468
81971SOL    HW147687   4.884   3.890  12.437
81971SOL    HW247688   4.831   3.782  12.528
81972SOL     OW47689   8.002  14.045  11.079
81972SOL    HW147690   8.004  14.026  11.173
81972SOL    HW247691   8.006  14.140  11.073
81973SOL     OW47692   1.217   8.267   3.602
81973SOL    HW147693   1.248   8.181   3.631
81973SOL    HW247694   1.168   8.301   3.676
81974SOL     OW47695   5.268   9.383  10.058
81974SOL    HW147696   5.175   9.362  10.067
81974SOL    HW247697   5.314   9.300  10.075
81975SOL     OW47698   6.748   1.444   6.808
81975SOL    HW147699   6.775   1.441   6.900
81975SOL    HW247700   6.769   1.534   6.781
81976SOL     OW47701  11.640  11.748   3.638
81976SOL    HW147702  11.725  11.726   3.600
81976SOL    HW247703  11.582  11.676   3.611
81977SOL     OW47704  11.685   8.602   9.125
81977SOL    HW147705  11.756   8.666   9.114
81977SOL    HW247706  11.606   8.654   9.138
81978SOL     OW47707   1.497   9.746   8.163
81978SOL    HW147708   1.513   9.836   8.133
81978SOL    HW247709   1.544   9.740   8.246
81979SOL     OW47710  14.229   1.028  12.645
81979SOL    HW147711  14.167   1.096  12.670
81979SOL    HW247712  14.257   1.052  12.557
81980SOL     OW47713   8.709   6.375   7.921
81980SOL    HW147714   8.768   6.400   7.992
81980SOL    HW247715   8.624   6.362   7.964
81981SOL     OW47716  13.977   6.192   8.538
81981SOL    HW147717  14.063   6.230   8.557
81981SOL    HW247718  13.997   6.107   8.500
81982SOL     OW47719  10.865   3.318   3.281
81982SOL    HW147720  10.943   3.361   3.245
81982SOL    HW247721  10.791   3.363   3.240
81983SOL     OW47722   3.725   5.219   7.834
81983SOL    HW147723   3.708   5.313   7.843
81983SOL    HW247724   3.801   5.203   7.890
81984SOL     OW47725   6.678  13.860   7.200
81984SOL    HW147726   6.695  13.954   7.208
81984SOL    HW247727   6.590  13.848   7.235
81985SOL     OW47728   9.088  13.651  11.929
81985SOL    HW147729   9.027  13.595  11.880
81985SOL    HW247730   9.139  13.591  11.982
81986SOL     OW47731   3.568  10.203   2.293
81986SOL    HW147732   3.562  10.108   2.281
81986SOL    HW247733   3.529  10.240   2.214
81987SOL     OW47734  14.237   5.165  10.789
81987SOL    HW147735  14.313   5.115  10.759
81987SOL    HW247736  14.273   5.252  10.810
81988SOL     OW47737  13.987  14.683   6.454
81988SOL    HW147738  14.066  14.667   6.506
81988SOL    HW247739  13.915  14.655   6.510
81989SOL     OW47740   7.059  12.101  13.264
81989SOL    HW147741   7.061  12.085  13.359
81989SOL    HW247742   6.968  12.124  13.246
81990SOL     OW47743  12.243  11.816   4.442
81990SOL    HW147744  12.232  11.746   4.378
81990SOL    HW247745  12.279  11.889   4.393
81991SOL     OW47746   9.668  13.288   2.487
81991SOL    HW147747   9.628  13.339   2.417
81991SOL    HW247748   9.717  13.352   2.538
81992SOL     OW47749   4.185  13.782   8.393
81992SOL    HW147750   4.239  13.712   8.430
81992SOL    HW247751   4.233  13.813   8.317
81993SOL     OW47752   9.352  11.907   9.832
81993SOL    HW147753   9.432  11.873   9.873
81993SOL    HW247754   9.374  11.914   9.739
81994SOL     OW47755   8.897   1.514   7.192
81994SOL    HW147756   8.979   1.509   7.241
81994SOL    HW247757   8.918   1.569   7.116
81995SOL     OW47758   4.042   3.065   5.430
81995SOL    HW147759   4.123   3.072   5.480
81995SOL    HW247760   4.042   2.975   5.397
81996SOL     OW47761   9.178  13.399  11.584
81996SOL    HW147762   9.262  13.378  11.544
81996SOL    HW247763   9.153  13.320  11.632
81997SOL     OW47764   6.095   6.821   7.143
81997SOL    HW147765   6.084   6.896   7.202
81997SOL    HW247766   6.150   6.855   7.072
81998SOL     OW47767   3.735  12.695  11.357
81998SOL    HW147768   3.664  12.707  11.420
81998SOL    HW247769   3.750  12.782  11.320
81999SOL     OW47770  12.462   8.592   5.510
81999SOL    HW147771  12.372   8.584   5.541
81999SOL    HW247772  12.510   8.524   5.557
82000SOL     OW47773   6.178  12.483   9.752
82000SOL    HW147774   6.257  12.436   9.778
82000SOL    HW247775   6.195  12.511   9.662
82001SOL     OW47776  14.042   7.958  10.826
82001SOL    HW147777  13.990   8.033  10.856
82001SOL    HW247778  14.025   7.890  10.891
82002SOL     OW47779  10.557  10.480  13.621
82002SOL    HW147780  10.505  10.510  13.546
82002SOL    HW247781  10.647  10.480  13.589
82003SOL     OW47782   3.079   4.140   3.441
82003SOL    HW147783   3.112   4.120   3.353
82003SOL    HW247784   3.073   4.235   3.444
82004SOL     OW47785  10.237   1.715   6.946
82004SOL    HW147786  10.213   1.718   6.853
82004SOL    HW247787  10.244   1.806   6.972
82005SOL     OW47788   3.768   7.470   3.914
82005SOL    HW147789   3.798   7.420   3.990
82005SOL    HW247790   3.673   7.466   3.918
82006SOL     OW47791  13.176   8.895  11.565
82006SOL    HW147792  13.093   8.943  11.571
82006SOL    HW247793  13.241   8.957  11.599
82007SOL     OW47794   6.553   0.591   0.468
82007SOL    HW147795   6.465   0.627   0.475
82007SOL    HW247796   6.553   0.515   0.527
82008SOL     OW47797  12.106   1.912   3.573
82008SOL    HW147798  12.075   1.822   3.584
82008SOL    HW247799  12.162   1.909   3.495
82009SOL     OW47800  14.295   6.160  10.726
82009SOL    HW147801  14.259   6.082  10.685
82009SOL    HW247802  14.233   6.182  10.795
82010SOL     OW47803   0.514   6.796   3.654
82010SOL    HW147804   0.550   6.868   3.707
82010SOL    HW247805   0.583   6.777   3.590
82011SOL     OW47806  11.927  13.522  12.438
82011SOL    HW147807  11.917  13.429  12.417
82011SOL    HW247808  12.019  13.541  12.420
82012SOL     OW47809   0.929   5.306   3.811
82012SOL    HW147810   0.919   5.278   3.903
82012SOL    HW247811   0.841   5.333   3.785
82013SOL     OW47812   2.935  12.874  10.775
82013SOL    HW147813   3.021  12.907  10.799
82013SOL    HW247814   2.898  12.941  10.718
82014SOL     OW47815   7.221  12.760   4.931
82014SOL    HW147816   7.281  12.688   4.910
82014SOL    HW247817   7.272  12.818   4.988
82015SOL     OW47818   9.608   1.249  12.801
82015SOL    HW147819   9.526   1.229  12.755
82015SOL    HW247820   9.654   1.165  12.805
82016SOL     OW47821   5.998   5.378   5.721
82016SOL    HW147822   6.013   5.286   5.700
82016SOL    HW247823   5.909   5.381   5.756
82017SOL     OW47824   8.360   1.552  11.434
82017SOL    HW147825   8.437   1.602  11.461
82017SOL    HW247826   8.378   1.527  11.343
82018SOL     OW47827   2.069   0.306   2.582
82018SOL    HW147828   2.106   0.383   2.624
82018SOL    HW247829   2.145   0.257   2.550
82019SOL     OW47830   0.009   7.475   9.513
82019SOL    HW147831   0.029   7.495   9.604
82019SOL    HW247832  14.815   7.412   9.517
82020SOL     OW47833   9.636  13.522   7.401
82020SOL    HW147834   9.586  13.551   7.324
82020SOL    HW247835   9.650  13.429   7.387
82021SOL     OW47836   3.551  12.379  11.786
82021SOL    HW147837   3.462  12.350  11.807
82021SOL    HW247838   3.591  12.306  11.739
82022SOL     OW47839   1.794   5.573   4.909
82022SOL    HW147840   1.846   5.535   4.838
82022SOL    HW247841   1.727   5.507   4.927
82023SOL     OW47842  12.992   3.953   4.216
82023SOL    HW147843  12.974   3.927   4.306
82023SOL    HW247844  13.080   3.989   4.218
82024SOL     OW47845   0.649   7.524   9.896
82024SOL    HW147846   0.742   7.505   9.885
82024SOL    HW247847   0.612   7.508   9.809
82025SOL     OW47848   8.236   2.090  12.643
82025SOL    HW147849   8.298   2.021  12.620
82025SOL    HW247850   8.153   2.044  12.655
82026SOL     OW47851   0.872   4.259   8.085
82026SOL    HW147852   0.913   4.186   8.039
82026SOL    HW247853   0.893   4.336   8.033
82027SOL     OW47854   7.145  12.410   1.775
82027SOL    HW147855   7.079  12.426   1.842
82027SOL    HW247856   7.113  12.334   1.727
82028SOL     OW47857   3.144   0.400   7.718
82028SOL    HW147858   3.085   0.433   7.650
82028SOL    HW247859   3.225   0.450   7.705
82029SOL     OW47860   6.733   4.406  10.459
82029SOL    HW147861   6.638   4.403  10.447
82029SOL    HW247862   6.747   4.481  10.517
82030SOL     OW47863  14.177  11.238   9.662
82030SOL    HW147864  14.191  11.234   9.756
82030SOL    HW247865  14.200  11.150   9.631
82031SOL     OW47866   2.226   8.074   7.006
82031SOL    HW147867   2.270   8.003   6.960
82031SOL    HW247868   2.179   8.032   7.078
82032SOL     OW47869   4.421   5.484  12.110
82032SOL    HW147870   4.475   5.534  12.049
82032SOL    HW247871   4.333   5.487  12.073
82033SOL     OW47872   1.923  11.748   6.601
82033SOL    HW147873   1.876  11.715   6.525
82033SOL    HW247874   1.971  11.672   6.635
82034SOL     OW47875   4.745  10.963   6.359
82034SOL    HW147876   4.798  10.907   6.302
82034SOL    HW247877   4.725  10.908   6.434
82035SOL     OW47878  12.415   4.755   8.775
82035SOL    HW147879  12.469   4.812   8.830
82035SOL    HW247880  12.367   4.815   8.718
82036SOL     OW47881   7.184  10.949   0.425
82036SOL    HW147882   7.154  10.861   0.403
82036SOL    HW247883   7.132  11.007   0.370
82037SOL     OW47884   4.878  13.829   2.274
82037SOL    HW147885   4.904  13.738   2.262
82037SOL    HW247886   4.915  13.875   2.199
82038SOL     OW47887   6.376   2.171   2.932
82038SOL    HW147888   6.387   2.087   2.886
82038SOL    HW247889   6.438   2.230   2.889
82039SOL     OW47890   9.337   5.768   8.657
82039SOL    HW147891   9.282   5.709   8.606
82039SOL    HW247892   9.425   5.755   8.621
82040SOL     OW47893   7.600   4.699   5.332
82040SOL    HW147894   7.645   4.766   5.384
82040SOL    HW247895   7.627   4.717   5.242
82041SOL     OW47896  10.877  14.466  12.039
82041SOL    HW147897  10.958  14.461  11.989
82041SOL    HW247898  10.808  14.452  11.974
82042SOL     OW47899   4.618  11.270  12.565
82042SOL    HW147900   4.621  11.186  12.612
82042SOL    HW247901   4.705  11.307  12.579
82043SOL     OW47902  11.945  11.803   1.498
82043SOL    HW147903  12.015  11.838   1.444
82043SOL    HW247904  11.987  11.735   1.551
82044SOL     OW47905   7.510   7.981   3.691
82044SOL    HW147906   7.490   8.056   3.636
82044SOL    HW247907   7.584   7.938   3.647
82045SOL     OW47908   4.374  13.573   5.667
82045SOL    HW147909   4.453  13.543   5.622
82045SOL    HW247910   4.312  13.500   5.658
82046SOL     OW47911   7.781   4.323   2.943
82046SOL    HW147912   7.762   4.325   2.849
82046SOL    HW247913   7.822   4.408   2.961
82047SOL     OW47914  13.317  14.587   0.403
82047SOL    HW147915  13.411  14.602   0.410
82047SOL    HW247916  13.305  14.550   0.315
82048SOL     OW47917  11.391   6.358  10.373
82048SOL    HW147918  11.485   6.354  10.386
82048SOL    HW247919  11.356   6.291  10.432
82049SOL     OW47920  12.688   8.710  14.135
82049SOL    HW147921  12.746   8.779  14.102
82049SOL    HW247922  12.743   8.658  14.193
82050SOL     OW47923  11.473   8.961   7.059
82050SOL    HW147924  11.409   9.019   7.018
82050SOL    HW247925  11.428   8.924   7.135
82051SOL     OW47926  14.251   1.051  13.315
82051SOL    HW147927  14.270   1.121  13.378
82051SOL    HW247928  14.325   1.053  13.253
82052SOL     OW47929   5.446  10.030   6.432
82052SOL    HW147930   5.476   9.942   6.412
82052SOL    HW247931   5.352  10.029   6.410
82053SOL     OW47932  13.421  11.680   7.797
82053SOL    HW147933  13.344  11.734   7.816
82053SOL    HW247934  13.400  11.595   7.836
82054SOL     OW47935  11.059   8.622   4.630
82054SOL    HW147936  11.026   8.540   4.594
82054SOL    HW247937  10.984   8.682   4.624
82055SOL     OW47938   2.443   1.928   7.200
82055SOL    HW147939   2.442   1.941   7.105
82055SOL    HW247940   2.363   1.970   7.231
82056SOL     OW47941   6.514   4.526  10.776
82056SOL    HW147942   6.436   4.579  10.794
82056SOL    HW247943   6.482   4.456  10.718
82057SOL     OW47944  13.196  13.758   7.781
82057SOL    HW147945  13.221  13.847   7.755
82057SOL    HW247946  13.140  13.770   7.858
82058SOL     OW47947  12.224   5.446  10.008
82058SOL    HW147948  12.263   5.363   9.982
82058SOL    HW247949  12.298   5.501  10.032
82059SOL     OW47950   0.353  14.606   7.199
82059SOL    HW147951   0.441  14.642   7.212
82059SOL    HW247952   0.299  14.648   7.265
82060SOL     OW47953   8.753   1.847  13.114
82060SOL    HW147954   8.780   1.887  13.031
82060SOL    HW247955   8.829   1.795  13.142
82061SOL     OW47956  13.374  12.405   4.582
82061SOL    HW147957  13.415  12.344   4.521
82061SOL    HW247958  13.446  12.463   4.609
82062SOL     OW47959   9.578   7.246   9.025
82062SOL    HW147960   9.624   7.327   9.048
82062SOL    HW247961   9.601   7.185   9.095
82063SOL     OW47962  11.650  12.468   7.619
82063SOL    HW147963  11.721  12.434   7.675
82063SOL    HW247964  11.601  12.528   7.676
82064SOL     OW47965   1.659   2.433  12.636
82064SOL    HW147966   1.577   2.463  12.675
82064SOL    HW247967   1.656   2.338  12.644
82065SOL     OW47968  14.671  14.787   1.378
82065SOL    HW147969  14.760  14.781   1.344
82065SOL    HW247970  14.637  14.698   1.370
82066SOL     OW47971   2.520  13.726  12.688
82066SOL    HW147972   2.536  13.705  12.596
82066SOL    HW247973   2.607  13.746  12.723
82067SOL     OW47974   3.770  13.736   0.814
82067SOL    HW147975   3.833  13.752   0.884
82067SOL    HW247976   3.800  13.791   0.741
82068SOL     OW47977   8.991  14.219  13.774
82068SOL    HW147978   8.996  14.301  13.824
82068SOL    HW247979   9.049  14.159  13.821
82069SOL     OW47980   7.832   8.997   5.755
82069SOL    HW147981   7.812   8.918   5.806
82069SOL    HW247982   7.916   9.027   5.789
82070SOL     OW47983   5.174   9.540  12.787
82070SOL    HW147984   5.090   9.525  12.830
82070SOL    HW247985   5.235   9.556  12.859
82071SOL     OW47986   4.847   5.243   8.326
82071SOL    HW147987   4.806   5.197   8.252
82071SOL    HW247988   4.787   5.313   8.347
82072SOL     OW47989   5.383  10.633   7.437
82072SOL    HW147990   5.361  10.610   7.347
82072SOL    HW247991   5.479  10.630   7.440
82073SOL     OW47992  12.377   0.879   2.709
82073SOL    HW147993  12.465   0.862   2.677
82073SOL    HW247994  12.379   0.969   2.739
82074SOL     OW47995   1.854  13.201   0.288
82074SOL    HW147996   1.857  13.109   0.265
82074SOL    HW247997   1.767  13.230   0.260
82075SOL     OW47998   5.057   1.256   5.444
82075SOL    HW147999   5.103   1.250   5.528
82075SOL    HW248000   4.972   1.215   5.461
82076SOL     OW48001  11.623  13.995   9.293
82076SOL    HW148002  11.696  14.054   9.273
82076SOL    HW248003  11.660  13.933   9.356
82077SOL     OW48004   9.773   8.907   8.140
82077SOL    HW148005   9.752   8.821   8.105
82077SOL    HW248006   9.828   8.890   8.216
82078SOL     OW48007   3.054   8.501   3.658
82078SOL    HW148008   3.026   8.592   3.663
82078SOL    HW248009   3.026   8.471   3.572
82079SOL     OW48010  12.765  14.167   8.684
82079SOL    HW148011  12.781  14.126   8.598
82079SOL    HW248012  12.792  14.258   8.672
82080SOL     OW48013   2.941   0.823   0.884
82080SOL    HW148014   2.857   0.778   0.879
82080SOL    HW248015   2.931   0.884   0.957
82081SOL     OW48016  13.954  11.849   0.595
82081SOL    HW148017  13.950  11.910   0.522
82081SOL    HW248018  13.898  11.776   0.570
82082SOL     OW48019   2.635   2.586  12.626
82082SOL    HW148020   2.596   2.661  12.672
82082SOL    HW248021   2.619   2.604  12.534
82083SOL     OW48022   4.789   9.053   0.458
82083SOL    HW148023   4.798   8.985   0.525
82083SOL    HW248024   4.743   9.124   0.501
82084SOL     OW48025   3.585   8.924   4.271
82084SOL    HW148026   3.543   8.842   4.244
82084SOL    HW248027   3.658   8.896   4.326
82085SOL     OW48028   4.257   8.335   6.323
82085SOL    HW148029   4.326   8.369   6.381
82085SOL    HW248030   4.181   8.324   6.380
82086SOL     OW48031  12.520   3.239  11.753
82086SOL    HW148032  12.586   3.200  11.696
82086SOL    HW248033  12.493   3.168  11.811
82087SOL     OW48034   3.897   4.667   9.254
82087SOL    HW148035   3.889   4.574   9.275
82087SOL    HW248036   3.991   4.686   9.263
82088SOL     OW48037   6.005  11.089  10.587
82088SOL    HW148038   6.006  11.184  10.575
82088SOL    HW248039   5.959  11.075  10.669
82089SOL     OW48040  12.816   3.348  12.845
82089SOL    HW148041  12.794   3.272  12.898
82089SOL    HW248042  12.741   3.360  12.787
82090SOL     OW48043   7.235   2.090   1.807
82090SOL    HW148044   7.155   2.143   1.811
82090SOL    HW248045   7.306   2.154   1.817
82091SOL     OW48046  13.319   3.707   8.934
82091SOL    HW148047  13.249   3.649   8.964
82091SOL    HW248048  13.276   3.791   8.920
82092SOL     OW48049   7.970   5.459   6.793
82092SOL    HW148050   7.960   5.502   6.878
82092SOL    HW248051   7.912   5.508   6.735
82093SOL     OW48052   7.453  13.362   2.957
82093SOL    HW148053   7.363  13.371   2.988
82093SOL    HW248054   7.498  13.439   2.994
82094SOL     OW48055  10.510  13.411  13.067
82094SOL    HW148056  10.504  13.335  13.010
82094SOL    HW248057  10.501  13.376  13.156
82095SOL     OW48058   1.448   8.792  14.730
82095SOL    HW148059   1.401   8.750  14.802
82095SOL    HW248060   1.498   8.863  14.773
82096SOL     OW48061   4.259   7.961  10.761
82096SOL    HW148062   4.293   7.880  10.723
82096SOL    HW248063   4.283   7.956  10.854
82097SOL     OW48064   0.826   4.804  11.773
82097SOL    HW148065   0.794   4.889  11.743
82097SOL    HW248066   0.877   4.770  11.700
82098SOL     OW48067  12.061   9.272   4.366
82098SOL    HW148068  12.132   9.325   4.331
82098SOL    HW248069  12.011   9.332   4.421
82099SOL     OW48070  13.559  10.346  12.646
82099SOL    HW148071  13.596  10.257  12.652
82099SOL    HW248072  13.538  10.357  12.554
82100SOL     OW48073   0.653  12.047   6.355
82100SOL    HW148074   0.613  11.965   6.383
82100SOL    HW248075   0.733  12.021   6.310
82101SOL     OW48076   1.080   4.345  10.992
82101SOL    HW148077   1.126   4.300  10.922
82101SOL    HW248078   0.996   4.370  10.954
82102SOL     OW48079   0.822   1.850  14.793
82102SOL    HW148080   0.903   1.846  14.843
82102SOL    HW248081   0.825   1.774  14.735
82103SOL     OW48082  14.655  13.847  12.576
82103SOL    HW148083  14.624  13.932  12.546
82103SOL    HW248084  14.600  13.826  12.651
82104SOL     OW48085  12.684  10.442  14.331
82104SOL    HW148086  12.704  10.349  14.346
82104SOL    HW248087  12.589  10.444  14.320
82105SOL     OW48088   5.556  12.332   8.122
82105SOL    HW148089   5.621  12.271   8.157
82105SOL    HW248090   5.485  12.276   8.092
82106SOL     OW48091  11.928  12.715   5.031
82106SOL    HW148092  11.975  12.717   4.948
82106SOL    HW248093  11.997  12.723   5.097
82107SOL     OW48094   5.194   8.247   9.363
82107SOL    HW148095   5.225   8.323   9.412
82107SOL    HW248096   5.111   8.223   9.405
82108SOL     OW48097  11.587  10.512  10.682
82108SOL    HW148098  11.652  10.445  10.701
82108SOL    HW248099  11.572  10.505  10.587
82109SOL     OW48100   8.598   2.308  14.459
82109SOL    HW148101   8.597   2.327  14.553
82109SOL    HW248102   8.647   2.227  14.451
82110SOL     OW48103   8.623   2.691   1.441
82110SOL    HW148104   8.627   2.645   1.526
82110SOL    HW248105   8.693   2.756   1.447
82111SOL     OW48106   8.978  13.500   2.247
82111SOL    HW148107   8.937  13.585   2.230
82111SOL    HW248108   8.923  13.460   2.314
82112SOL     OW48109   7.565  14.734   5.596
82112SOL    HW148110   7.516  14.750   5.516
82112SOL    HW248111   7.616  14.655   5.578
82113SOL     OW48112   6.570   5.155   9.106
82113SOL    HW148113   6.619   5.177   9.027
82113SOL    HW248114   6.629   5.099   9.156
82114SOL     OW48115  10.381  10.572   4.674
82114SOL    HW148116  10.348  10.485   4.654
82114SOL    HW248117  10.353  10.626   4.600
82115SOL     OW48118  10.645   4.979  14.365
82115SOL    HW148119  10.708   4.931  14.312
82115SOL    HW248120  10.631   4.924  14.442
82116SOL     OW48121  14.259  13.225   6.706
82116SOL    HW148122  14.169  13.219   6.737
82116SOL    HW248123  14.272  13.145   6.654
82117SOL     OW48124   5.683  14.204   2.144
82117SOL    HW148125   5.638  14.131   2.102
82117SOL    HW248126   5.613  14.256   2.183
82118SOL     OW48127  13.890  11.414   1.554
82118SOL    HW148128  13.816  11.358   1.580
82118SOL    HW248129  13.921  11.452   1.636
82119SOL     OW48130  13.230   8.858  14.365
82119SOL    HW148131  13.223   8.849  14.269
82119SOL    HW248132  13.324   8.859  14.382
82120SOL     OW48133   7.272   4.317   2.742
82120SOL    HW148134   7.344   4.254   2.743
82120SOL    HW248135   7.264   4.342   2.650
82121SOL     OW48136   1.544  10.816  10.227
82121SOL    HW148137   1.453  10.790  10.213
82121SOL    HW248138   1.538  10.901  10.270
82122SOL     OW48139   5.254  14.046  12.505
82122SOL    HW148140   5.200  14.115  12.467
82122SOL    HW248141   5.310  14.091  12.568
82123SOL     OW48142   6.969   1.679   7.317
82123SOL    HW148143   7.041   1.634   7.272
82123SOL    HW248144   7.009   1.759   7.351
82124SOL     OW48145   1.524   4.962  14.687
82124SOL    HW148146   1.523   4.989  14.779
82124SOL    HW248147   1.441   4.993  14.652
82125SOL     OW48148   3.929  14.418   0.755
82125SOL    HW148149   3.996  14.408   0.687
82125SOL    HW248150   3.979  14.431   0.836
82126SOL     OW48151   3.671   5.794   9.161
82126SOL    HW148152   3.716   5.789   9.077
82126SOL    HW248153   3.741   5.800   9.226
82127SOL     OW48154   6.484  10.195   6.167
82127SOL    HW148155   6.500  10.263   6.233
82127SOL    HW248156   6.571  10.176   6.132
82128SOL     OW48157   8.832   0.437  13.958
82128SOL    HW148158   8.737   0.443  13.971
82128SOL    HW248159   8.854   0.347  13.980
82129SOL     OW48160   1.721  11.209  11.549
82129SOL    HW148161   1.782  11.136  11.561
82129SOL    HW248162   1.639  11.178  11.586
82130SOL     OW48163  14.131   7.221  12.273
82130SOL    HW148164  14.079   7.145  12.298
82130SOL    HW248165  14.217   7.186  12.252
82131SOL     OW48166   3.759   9.321   2.391
82131SOL    HW148167   3.727   9.231   2.378
82131SOL    HW248168   3.852   9.311   2.407
82132SOL     OW48169   8.584  14.605   6.379
82132SOL    HW148170   8.618  14.666   6.444
82132SOL    HW248171   8.491  14.595   6.401
82133SOL     OW48172   0.763   7.841   6.758
82133SOL    HW148173   0.748   7.811   6.668
82133SOL    HW248174   0.675   7.852   6.794
82134SOL     OW48175   1.486   3.763  10.516
82134SOL    HW148176   1.416   3.705  10.546
82134SOL    HW248177   1.467   3.778  10.424
82135SOL     OW48178   5.849  13.665  14.062
82135SOL    HW148179   5.761  13.641  14.034
82135SOL    HW248180   5.905  13.648  13.986
82136SOL     OW48181  11.311   4.081   0.339
82136SOL    HW148182  11.332   4.103   0.430
82136SOL    HW248183  11.227   4.123   0.323
82137SOL     OW48184   2.349   4.076   9.991
82137SOL    HW148185   2.431   4.114   9.962
82137SOL    HW248186   2.373   3.990  10.026
82138SOL     OW48187   2.511   1.356  13.926
82138SOL    HW148188   2.538   1.448  13.919
82138SOL    HW248189   2.421   1.360  13.958
82139SOL     OW48190  12.251   3.634   5.017
82139SOL    HW148191  12.211   3.712   5.056
82139SOL    HW248192  12.252   3.569   5.088
82140SOL     OW48193  10.887  14.110   1.380
82140SOL    HW148194  10.913  14.125   1.471
82140SOL    HW248195  10.806  14.160   1.370
82141SOL     OW48196  13.664   6.897  12.592
82141SOL    HW148197  13.585   6.860  12.630
82141SOL    HW248198  13.691   6.833  12.526
82142SOL     OW48199   4.166   2.980  13.635
82142SOL    HW148200   4.159   3.073  13.615
82142SOL    HW248201   4.248   2.953  13.592
82143SOL     OW48202   8.866   7.586  13.832
82143SOL    HW148203   8.907   7.514  13.879
82143SOL    HW248204   8.842   7.550  13.747
82144SOL     OW48205  14.503  10.511  12.587
82144SOL    HW148206  14.597  10.508  12.602
82144SOL    HW248207  14.466  10.454  12.655
82145SOL     OW48208   5.843  14.528  13.394
82145SOL    HW148209   5.925  14.564  13.428
82145SOL    HW248210   5.868  14.481  13.315
82146SOL     OW48211   1.649   6.134   7.572
82146SOL    HW148212   1.630   6.227   7.568
82146SOL    HW248213   1.694   6.115   7.490
82147SOL     OW48214  11.900  12.541   3.836
82147SOL    HW148215  11.900  12.602   3.763
82147SOL    HW248216  11.847  12.584   3.903
82148SOL     OW48217  11.913   1.389   0.031
82148SOL    HW148218  11.859   1.387  14.830
82148SOL    HW248219  11.935   1.297   0.048
82149SOL     OW48220   8.011   1.562   3.744
82149SOL    HW148221   7.994   1.614   3.822
82149SOL    HW248222   8.088   1.509   3.767
82150SOL     OW48223  14.217   2.548   8.323
82150SOL    HW148224  14.311   2.563   8.325
82150SOL    HW248225  14.200   2.511   8.236
82151SOL     OW48226   2.928  14.830   0.230
82151SOL    HW148227   2.968  14.745   0.251
82151SOL    HW248228   2.999   0.002   0.190
82152SOL     OW48229  11.682   8.976   2.857
82152SOL    HW148230  11.591   8.992   2.881
82152SOL    HW248231  11.730   9.051   2.891
82153SOL     OW48232   4.907   3.136   1.700
82153SOL    HW148233   4.934   3.045   1.713
82153SOL    HW248234   4.812   3.134   1.700
82154SOL     OW48235  14.244   2.539   0.252
82154SOL    HW148236  14.285   2.501   0.174
82154SOL    HW248237  14.186   2.607   0.218
82155SOL     OW48238   9.981   7.692   7.071
82155SOL    HW148239   9.963   7.649   6.987
82155SOL    HW248240   9.907   7.751   7.084
82156SOL     OW48241   3.014   8.777   4.240
82156SOL    HW148242   3.096   8.741   4.273
82156SOL    HW248243   2.974   8.819   4.316
82157SOL     OW48244   4.810  10.403   0.377
82157SOL    HW148245   4.815  10.336   0.445
82157SOL    HW248246   4.729  10.385   0.330
82158SOL     OW48247   2.049   9.637   4.070
82158SOL    HW148248   1.992   9.655   3.995
82158SOL    HW248249   2.046   9.717   4.122
82159SOL     OW48250   2.846   7.155   8.113
82159SOL    HW148251   2.815   7.167   8.023
82159SOL    HW248252   2.773   7.185   8.167
82160SOL     OW48253  13.525  10.454   0.618
82160SOL    HW148254  13.529  10.391   0.690
82160SOL    HW248255  13.615  10.485   0.607
82161SOL     OW48256  14.712   0.951  14.823
82161SOL    HW148257  14.784   0.889  14.838
82161SOL    HW248258  14.741   1.031  14.866
82162SOL     OW48259   8.201   2.591   6.905
82162SOL    HW148260   8.283   2.582   6.953
82162SOL    HW248261   8.222   2.648   6.832
82163SOL     OW48262   6.938   3.397   9.914
82163SOL    HW148263   6.861   3.400   9.858
82163SOL    HW248264   6.917   3.332   9.982
82164SOL     OW48265   4.977  14.043   1.124
82164SOL    HW148266   4.989  14.016   1.033
82164SOL    HW248267   5.060  14.085   1.148
82165SOL     OW48268  12.367   3.891   9.480
82165SOL    HW148269  12.443   3.851   9.437
82165SOL    HW248270  12.395   3.906   9.570
82166SOL     OW48271   8.056  14.110  10.771
82166SOL    HW148272   7.992  14.138  10.836
82166SOL    HW248273   8.080  14.021  10.798
82167SOL     OW48274   4.390   7.243   2.844
82167SOL    HW148275   4.461   7.189   2.879
82167SOL    HW248276   4.362   7.196   2.765
82168SOL     OW48277   4.640   6.417   3.095
82168SOL    HW148278   4.701   6.366   3.148
82168SOL    HW248279   4.691   6.444   3.019
82169SOL     OW48280   7.005  12.782  14.547
82169SOL    HW148281   7.047  12.698  14.529
82169SOL    HW248282   6.947  12.764  14.621
82170SOL     OW48283  11.859   1.060   1.735
82170SOL    HW148284  11.792   1.119   1.771
82170SOL    HW248285  11.942   1.095   1.766
82171SOL     OW48286  12.222  14.673   8.968
82171SOL    HW148287  12.315  14.664   8.946
82171SOL    HW248288  12.221  14.734   9.042
82172SOL     OW48289   6.267   5.888  12.099
82172SOL    HW148290   6.349   5.854  12.134
82172SOL    HW248291   6.231   5.942  12.170
82173SOL     OW48292   0.174   1.446  10.674
82173SOL    HW148293   0.113   1.381  10.638
82173SOL    HW248294   0.256   1.398  10.686
82174SOL     OW48295   1.247  12.139   2.320
82174SOL    HW148296   1.238  12.195   2.242
82174SOL    HW248297   1.254  12.050   2.285
82175SOL     OW48298   6.811   2.794  12.648
82175SOL    HW148299   6.850   2.873  12.611
82175SOL    HW248300   6.885   2.745  12.684
82176SOL     OW48301   1.703  12.074   0.020
82176SOL    HW148302   1.620  12.028   0.027
82176SOL    HW248303   1.717  12.112   0.107
82177SOL     OW48304   4.464  12.018  12.547
82177SOL    HW148305   4.389  12.061  12.508
82177SOL    HW248306   4.462  12.045  12.639
82178SOL     OW48307   1.775  10.641   2.334
82178SOL    HW148308   1.827  10.693   2.395
82178SOL    HW248309   1.833  10.627   2.259
82179SOL     OW48310   2.803   4.242   1.570
82179SOL    HW148311   2.836   4.332   1.575
82179SOL    HW248312   2.815   4.218   1.478
82180SOL     OW48313   1.624   5.254   3.377
82180SOL    HW148314   1.644   5.236   3.469
82180SOL    HW248315   1.650   5.345   3.364
82181SOL     OW48316   8.991   0.587  14.782
82181SOL    HW148317   8.995   0.548  14.870
82181SOL    HW248318   8.982   0.512  14.723
82182SOL     OW48319  14.846  14.144   0.563
82182SOL    HW148320  14.871  14.052   0.566
82182SOL    HW248321  14.835  14.164   0.470
82183SOL     OW48322   7.404   6.865  11.118
82183SOL    HW148323   7.472   6.927  11.145
82183SOL    HW248324   7.341   6.919  11.070
82184SOL     OW48325   3.960   4.662   8.069
82184SOL    HW148326   3.917   4.600   8.010
82184SOL    HW248327   3.969   4.742   8.018
82185SOL     OW48328   6.004   9.142  11.130
82185SOL    HW148329   5.917   9.110  11.155
82185SOL    HW248330   5.995   9.165  11.037
82186SOL     OW48331  11.985   7.228   6.957
82186SOL    HW148332  11.899   7.266   6.938
82186SOL    HW248333  12.030   7.296   7.006
82187SOL     OW48334   5.689  11.766   4.421
82187SOL    HW148335   5.782  11.780   4.436
82187SOL    HW248336   5.686  11.694   4.358
82188SOL     OW48337   5.821  13.383   6.125
82188SOL    HW148338   5.748  13.444   6.138
82188SOL    HW248339   5.790  13.323   6.056
82189SOL     OW48340   4.323   2.387   1.569
82189SOL    HW148341   4.235   2.421   1.586
82189SOL    HW248342   4.375   2.465   1.550
82190SOL     OW48343   3.867   5.916   3.539
82190SOL    HW148344   3.814   5.842   3.567
82190SOL    HW248345   3.805   5.974   3.494
82191SOL     OW48346   5.817  11.490  10.207
82191SOL    HW148347   5.808  11.479  10.302
82191SOL    HW248348   5.911  11.478  10.190
82192SOL     OW48349   3.017  14.652   5.661
82192SOL    HW148350   2.996  14.745   5.665
82192SOL    HW248351   3.111  14.650   5.641
82193SOL     OW48352   4.917   4.314  13.952
82193SOL    HW148353   4.881   4.376  14.015
82193SOL    HW248354   4.903   4.228  13.993
82194SOL     OW48355  13.181   2.907   5.868
82194SOL    HW148356  13.096   2.929   5.904
82194SOL    HW248357  13.194   2.969   5.796
82195SOL     OW48358   6.570   0.938   8.982
82195SOL    HW148359   6.608   0.918   8.896
82195SOL    HW248360   6.512   1.012   8.967
82196SOL     OW48361  14.695   1.415   5.309
82196SOL    HW148362  14.784   1.436   5.282
82196SOL    HW248363  14.678   1.475   5.383
82197SOL     OW48364  11.145  10.833   2.903
82197SOL    HW148365  11.083  10.899   2.871
82197SOL    HW248366  11.105  10.749   2.880
82198SOL     OW48367   1.766  10.160   9.207
82198SOL    HW148368   1.680  10.173   9.248
82198SOL    HW248369   1.749  10.166   9.113
82199SOL     OW48370   9.460   5.536   3.256
82199SOL    HW148371   9.402   5.459   3.254
82199SOL    HW248372   9.433   5.583   3.335
82200SOL     OW48373   1.046  14.578   3.120
82200SOL    HW148374   1.051  14.483   3.133
82200SOL    HW248375   1.082  14.615   3.200
82201SOL     OW48376   2.465   1.570  14.282
82201SOL    HW148377   2.556   1.599  14.271
82201SOL    HW248378   2.415   1.622  14.220
82202SOL     OW48379  14.738  11.112  11.845
82202SOL    HW148380  14.658  11.162  11.825
82202SOL    HW248381  14.809  11.172  11.823
82203SOL     OW48382  11.711  10.222   7.898
82203SOL    HW148383  11.718  10.129   7.915
82203SOL    HW248384  11.657  10.228   7.819
82204SOL     OW48385  10.649   5.602  14.600
82204SOL    HW148386  10.606   5.608  14.685
82204SOL    HW248387  10.695   5.518  14.601
82205SOL     OW48388   7.382   0.340   5.931
82205SOL    HW148389   7.356   0.426   5.963
82205SOL    HW248390   7.355   0.279   5.999
82206SOL     OW48391  12.170  12.203   2.092
82206SOL    HW148392  12.167  12.158   2.176
82206SOL    HW248393  12.098  12.267   2.097
82207SOL     OW48394   0.414   4.758   9.511
82207SOL    HW148395   0.429   4.740   9.418
82207SOL    HW248396   0.368   4.842   9.512
82208SOL     OW48397   4.241   5.984   9.776
82208SOL    HW148398   4.219   5.932   9.699
82208SOL    HW248399   4.334   5.966   9.791
82209SOL     OW48400   5.993  10.309   3.022
82209SOL    HW148401   5.909  10.268   3.044
82209SOL    HW248402   6.031  10.332   3.107
82210SOL     OW48403   6.735   4.951   4.402
82210SOL    HW148404   6.765   4.870   4.361
82210SOL    HW248405   6.743   4.934   4.496
82211SOL     OW48406   1.604   1.546   8.790
82211SOL    HW148407   1.627   1.525   8.699
82211SOL    HW248408   1.630   1.638   8.800
82212SOL     OW48409  14.709  10.807  13.162
82212SOL    HW148410  14.622  10.779  13.189
82212SOL    HW248411  14.725  10.887  13.211
82213SOL     OW48412  10.350   9.484   5.049
82213SOL    HW148413  10.368   9.412   5.110
82213SOL    HW248414  10.426   9.485   4.991
82214SOL     OW48415   4.195   0.217   7.731
82214SOL    HW148416   4.141   0.279   7.781
82214SOL    HW248417   4.206   0.143   7.790
82215SOL     OW48418   4.714   8.453   2.940
82215SOL    HW148419   4.660   8.377   2.918
82215SOL    HW248420   4.654   8.512   2.986
82216SOL     OW48421   2.493  14.510   3.866
82216SOL    HW148422   2.409  14.492   3.908
82216SOL    HW248423   2.543  14.559   3.931
82217SOL     OW48424   5.008   0.007   2.804
82217SOL    HW148425   5.081   0.058   2.839
82217SOL    HW248426   4.965  14.848   2.882
82218SOL     OW48427  13.252   4.608   3.451
82218SOL    HW148428  13.254   4.545   3.523
82218SOL    HW248429  13.344   4.618   3.425
82219SOL     OW48430  14.445   1.925  14.176
82219SOL    HW148431  14.424   1.944  14.267
82219SOL    HW248432  14.504   1.996  14.149
82220SOL     OW48433  12.949   0.034  10.212
82220SOL    HW148434  13.041   0.046  10.235
82220SOL    HW248435  12.931  14.820  10.230
82221SOL     OW48436   1.860  12.497  10.811
82221SOL    HW148437   1.803  12.554  10.759
82221SOL    HW248438   1.947  12.512  10.775
82222SOL     OW48439  12.270  12.258   2.898
82222SOL    HW148440  12.301  12.193   2.961
82222SOL    HW248441  12.175  12.249   2.899
82223SOL     OW48442  13.502   7.109   1.681
82223SOL    HW148443  13.420   7.155   1.702
82223SOL    HW248444  13.479   7.016   1.687
82224SOL     OW48445  14.393   8.945   4.476
82224SOL    HW148446  14.423   8.912   4.391
82224SOL    HW248447  14.321   8.886   4.501
82225SOL     OW48448  14.370   8.193   6.474
82225SOL    HW148449  14.375   8.118   6.414
82225SOL    HW248450  14.295   8.173   6.531
82226SOL     OW48451  14.512   4.833   7.179
82226SOL    HW148452  14.587   4.809   7.124
82226SOL    HW248453  14.498   4.757   7.235
82227SOL     OW48454   3.226   5.927  10.515
82227SOL    HW148455   3.264   5.959  10.597
82227SOL    HW248456   3.207   6.007  10.466
82228SOL     OW48457  12.608   4.471  10.967
82228SOL    HW148458  12.570   4.526  11.035
82228SOL    HW248459  12.687   4.434  11.007
82229SOL     OW48460  14.678   4.026  12.800
82229SOL    HW148461  14.613   3.957  12.815
82229SOL    HW248462  14.627   4.104  12.782
82230SOL     OW48463   5.226  14.756  12.202
82230SOL    HW148464   5.299  14.706  12.166
82230SOL    HW248465   5.266  14.837  12.234
82231SOL     OW48466   6.435  13.881  12.831
82231SOL    HW148467   6.348  13.915  12.855
82231SOL    HW248468   6.424  13.786  12.831
82232SOL     OW48469  13.344  11.193  11.745
82232SOL    HW148470  13.258  11.169  11.779
82232SOL    HW248471  13.341  11.289  11.740
82233SOL     OW48472   9.071   5.222  14.563
82233SOL    HW148473   9.005   5.263  14.507
82233SOL    HW248474   9.110   5.155  14.507
82234SOL     OW48475   9.219   6.045  12.760
82234SOL    HW148476   9.211   6.050  12.665
82234SOL    HW248477   9.230   5.952  12.779
82235SOL     OW48478  10.496   7.053  13.381
82235SOL    HW148479  10.454   7.060  13.296
82235SOL    HW248480  10.435   7.002  13.434
82236SOL     OW48481   3.274   2.262  10.702
82236SOL    HW148482   3.338   2.194  10.681
82236SOL    HW248483   3.191   2.226  10.670
82237SOL     OW48484   4.451  10.753   3.820
82237SOL    HW148485   4.486  10.673   3.782
82237SOL    HW248486   4.511  10.822   3.790
82238SOL     OW48487   9.226   9.230   7.842
82238SOL    HW148488   9.132   9.242   7.861
82238SOL    HW248489   9.249   9.148   7.887
82239SOL     OW48490  14.732   8.303   4.172
82239SOL    HW148491  14.786   8.349   4.108
82239SOL    HW248492  14.783   8.304   4.252
82240SOL     OW48493   8.357   0.921  12.118
82240SOL    HW148494   8.394   0.869  12.046
82240SOL    HW248495   8.360   0.862  12.193
82241SOL     OW48496   9.045   1.221  11.853
82241SOL    HW148497   8.962   1.267  11.836
82241SOL    HW248498   9.046   1.150  11.789
82242SOL     OW48499   0.733   3.040   4.585
82242SOL    HW148500   0.794   3.036   4.658
82242SOL    HW248501   0.768   2.977   4.521
82243SOL     OW48502   4.950   4.657   8.630
82243SOL    HW148503   4.872   4.696   8.669
82243SOL    HW248504   4.976   4.718   8.561
82244SOL     OW48505  12.426   5.800   1.959
82244SOL    HW148506  12.408   5.805   2.053
82244SOL    HW248507  12.470   5.883   1.939
82245SOL     OW48508  14.048   7.472   7.219
82245SOL    HW148509  14.014   7.554   7.255
82245SOL    HW248510  14.120   7.498   7.161
82246SOL     OW48511  12.226  12.482   4.993
82246SOL    HW148512  12.189  12.539   4.926
82246SOL    HW248513  12.181  12.398   4.980
82247SOL     OW48514   0.069  14.200  14.404
82247SOL    HW148515  14.871  14.190  14.462
82247SOL    HW248516   0.034  14.189  14.316
82248SOL     OW48517  11.846   8.158   7.184
82248SOL    HW148518  11.766   8.151   7.132
82248SOL    HW248519  11.834   8.236   7.237
82249SOL     OW48520  12.163   7.927  10.879
82249SOL    HW148521  12.228   7.863  10.908
82249SOL    HW248522  12.101   7.933  10.951
82250SOL     OW48523  10.234   3.229   2.482
82250SOL    HW148524  10.328   3.220   2.498
82250SOL    HW248525  10.200   3.140   2.491
82251SOL     OW48526  13.647   3.941   4.456
82251SOL    HW148527  13.600   3.993   4.390
82251SOL    HW248528  13.584   3.932   4.528
82252SOL     OW48529   9.444   6.743   9.916
82252SOL    HW148530   9.401   6.662   9.891
82252SOL    HW248531   9.415   6.807   9.852
82253SOL     OW48532   8.461   6.220  12.020
82253SOL    HW148533   8.498   6.236  11.934
82253SOL    HW248534   8.455   6.307  12.061
82254SOL     OW48535   9.699  13.601   4.156
82254SOL    HW148536   9.752  13.621   4.233
82254SOL    HW248537   9.629  13.544   4.188
82255SOL     OW48538   0.262   2.164   0.616
82255SOL    HW148539   0.252   2.092   0.678
82255SOL    HW248540   0.220   2.132   0.536
82256SOL     OW48541  11.472   5.298   2.103
82256SOL    HW148542  11.471   5.299   2.198
82256SOL    HW248543  11.544   5.355   2.078
82257SOL     OW48544  14.752   1.157   3.926
82257SOL    HW148545  14.776   1.177   3.835
82257SOL    HW248546  14.822   1.198   3.978
82258SOL     OW48547  11.285   5.994  12.479
82258SOL    HW148548  11.354   6.013  12.416
82258SOL    HW248549  11.216   6.057  12.459
82259SOL     OW48550  14.834   2.814   8.571
82259SOL    HW148551  14.827   2.724   8.602
82259SOL    HW248552  14.763   2.861   8.615
82260SOL     OW48553   4.175   0.462  13.058
82260SOL    HW148554   4.146   0.549  13.087
82260SOL    HW248555   4.199   0.417  13.139
82261SOL     OW48556  13.281   8.469  13.580
82261SOL    HW148557  13.208   8.527  13.601
82261SOL    HW248558  13.252   8.382  13.608
82262SOL     OW48559   5.083   8.502   3.563
82262SOL    HW148560   5.076   8.591   3.597
82262SOL    HW248561   5.176   8.492   3.541
82263SOL     OW48562   0.378   2.826   4.288
82263SOL    HW148563   0.316   2.899   4.293
82263SOL    HW248564   0.436   2.849   4.215
82264SOL     OW48565  14.212   7.812  13.852
82264SOL    HW148566  14.230   7.742  13.914
82264SOL    HW248567  14.201   7.769  13.768
82265SOL     OW48568   2.908   0.480   7.586
82265SOL    HW148569   2.883   0.400   7.541
82265SOL    HW248570   2.840   0.543   7.562
82266SOL     OW48571   0.616   6.592   8.271
82266SOL    HW148572   0.576   6.522   8.322
82266SOL    HW248573   0.630   6.554   8.184
82267SOL     OW48574   6.230  11.864   9.032
82267SOL    HW148575   6.170  11.909   9.091
82267SOL    HW248576   6.208  11.897   8.945
82268SOL     OW48577  13.065   8.318   4.107
82268SOL    HW148578  13.124   8.328   4.182
82268SOL    HW248579  13.104   8.372   4.038
82269SOL     OW48580   6.698   2.339   7.189
82269SOL    HW148581   6.733   2.353   7.277
82269SOL    HW248582   6.648   2.257   7.196
82270SOL     OW48583   2.957   3.941  13.716
82270SOL    HW148584   2.895   3.892  13.662
82270SOL    HW248585   2.996   4.004  13.656
82271SOL     OW48586   9.855  13.072   9.727
82271SOL    HW148587   9.931  13.118   9.764
82271SOL    HW248588   9.847  12.993   9.780
82272SOL     OW48589   5.030  13.238   4.945
82272SOL    HW148590   5.028  13.203   5.035
82272SOL    HW248591   4.975  13.317   4.949
82273SOL     OW48592  14.410   6.388   6.014
82273SOL    HW148593  14.325   6.381   5.970
82273SOL    HW248594  14.390   6.427   6.099
82274SOL     OW48595  14.777  14.218  10.065
82274SOL    HW148596  14.851  14.217  10.125
82274SOL    HW248597  14.718  14.151  10.098
82275SOL     OW48598   2.453   8.110   9.230
82275SOL    HW148599   2.378   8.163   9.203
82275SOL    HW248600   2.529   8.151   9.189
82276SOL     OW48601  10.282   1.104  10.461
82276SOL    HW148602  10.298   1.030  10.521
82276SOL    HW248603  10.336   1.175  10.496
82277SOL     OW48604  10.936  11.487   2.555
82277SOL    HW148605  10.877  11.549   2.514
82277SOL    HW248606  10.999  11.542   2.602
82278SOL     OW48607  14.432   8.569   2.281
82278SOL    HW148608  14.365   8.520   2.234
82278SOL    HW248609  14.515   8.536   2.247
82279SOL     OW48610  10.638   6.819   1.491
82279SOL    HW148611  10.641   6.840   1.585
82279SOL    HW248612  10.545   6.815   1.470
82280SOL     OW48613   0.612   0.463   3.864
82280SOL    HW148614   0.567   0.415   3.794
82280SOL    HW248615   0.543   0.511   3.909
82281SOL     OW48616  11.688   2.658   0.475
82281SOL    HW148617  11.684   2.752   0.493
82281SOL    HW248618  11.771   2.645   0.430
82282SOL     OW48619  14.751   7.955   0.865
82282SOL    HW148620  14.730   7.862   0.862
82282SOL    HW248621  14.747   7.977   0.958
82283SOL     OW48622   4.643   8.724   0.524
82283SOL    HW148623   4.720   8.672   0.546
82283SOL    HW248624   4.628   8.706   0.431
82284SOL     OW48625   2.479  13.679  14.128
82284SOL    HW148626   2.537  13.663  14.202
82284SOL    HW248627   2.397  13.636  14.152
82285SOL     OW48628  14.515   4.086  12.449
82285SOL    HW148629  14.455   4.013  12.461
82285SOL    HW248630  14.468   4.146  12.391
82286SOL     OW48631  13.495  14.507  10.770
82286SOL    HW148632  13.449  14.591  10.766
82286SOL    HW248633  13.485  14.479  10.861
82287SOL     OW48634   7.176   3.746   3.817
82287SOL    HW148635   7.099   3.784   3.773
82287SOL    HW248636   7.244   3.813   3.808
82288SOL     OW48637   1.520  11.785  11.867
82288SOL    HW148638   1.447  11.756  11.921
82288SOL    HW248639   1.598  11.754  11.914
82289SOL     OW48640  13.917   0.900   9.354
82289SOL    HW148641  14.012   0.889   9.366
82289SOL    HW248642  13.908   0.922   9.261
82290SOL     OW48643  14.440   2.972   4.512
82290SOL    HW148644  14.521   2.924   4.529
82290SOL    HW248645  14.406   2.933   4.431
82291SOL     OW48646   4.757   6.631  13.660
82291SOL    HW148647   4.751   6.536  13.650
82291SOL    HW248648   4.667   6.662  13.648
82292SOL     OW48649   2.489   9.802   9.759
82292SOL    HW148650   2.411   9.748   9.772
82292SOL    HW248651   2.523   9.776   9.674
82293SOL     OW48652   1.890   6.236   9.942
82293SOL    HW148653   1.983   6.231   9.922
82293SOL    HW248654   1.847   6.201   9.864
82294SOL     OW48655   9.626   4.919   5.277
82294SOL    HW148656   9.677   4.845   5.244
82294SOL    HW248657   9.691   4.982   5.307
82295SOL     OW48658   1.091   6.491   6.012
82295SOL    HW148659   0.995   6.492   6.015
82295SOL    HW248660   1.115   6.583   6.001
82296SOL     OW48661   5.699  13.577  11.062
82296SOL    HW148662   5.769  13.524  11.101
82296SOL    HW248663   5.725  13.588  10.971
82297SOL     OW48664   2.379   7.860   3.590
82297SOL    HW148665   2.388   7.877   3.684
82297SOL    HW248666   2.369   7.947   3.551
82298SOL     OW48667   8.168   5.116  10.104
82298SOL    HW148668   8.196   5.175  10.034
82298SOL    HW248669   8.151   5.032  10.060
82299SOL     OW48670  10.509   6.184  13.929
82299SOL    HW148671  10.422   6.145  13.931
82299SOL    HW248672  10.562   6.126  13.984
82300SOL     OW48673   1.850   4.216   1.054
82300SOL    HW148674   1.882   4.144   1.000
82300SOL    HW248675   1.757   4.224   1.031
82301SOL     OW48676   3.412  12.786   2.341
82301SOL    HW148677   3.491  12.763   2.389
82301SOL    HW248678   3.404  12.881   2.353
82302SOL     OW48679  10.490   9.423   0.256
82302SOL    HW148680  10.585   9.422   0.242
82302SOL    HW248681  10.458   9.492   0.197
82303SOL     OW48682   7.414  12.857  12.028
82303SOL    HW148683   7.470  12.867  11.951
82303SOL    HW248684   7.332  12.823  11.993
82304SOL     OW48685   8.824  13.612   4.862
82304SOL    HW148686   8.874  13.533   4.842
82304SOL    HW248687   8.888  13.674   4.895
82305SOL     OW48688   5.173   0.865  10.657
82305SOL    HW148689   5.253   0.884  10.706
82305SOL    HW248690   5.197   0.880  10.565
82306SOL     OW48691   5.639   9.787   6.311
82306SOL    HW148692   5.682   9.710   6.350
82306SOL    HW248693   5.562   9.751   6.266
82307SOL     OW48694  11.414   2.503   1.531
82307SOL    HW148695  11.492   2.457   1.563
82307SOL    HW248696  11.435   2.527   1.441
82308SOL     OW48697  13.850   6.303   4.184
82308SOL    HW148698  13.844   6.316   4.090
82308SOL    HW248699  13.819   6.214   4.199
82309SOL     OW48700   5.697  11.528   9.589
82309SOL    HW148701   5.611  11.488   9.578
82309SOL    HW248702   5.711  11.577   9.508
82310SOL     OW48703   5.974   9.166  14.832
82310SOL    HW148704   5.985   9.246   0.006
82310SOL    HW248705   5.903   9.186  14.771
82311SOL     OW48706   1.778   6.826   4.752
82311SOL    HW148707   1.755   6.832   4.844
82311SOL    HW248708   1.844   6.757   4.748
82312SOL     OW48709  13.689  13.838  11.270
82312SOL    HW148710  13.742  13.850  11.191
82312SOL    HW248711  13.609  13.887  11.253
82313SOL     OW48712   5.956   1.344  14.877
82313SOL    HW148713   5.952   1.263   0.049
82313SOL    HW248714   5.926   1.320  14.789
82314SOL     OW48715   0.044  10.758   2.096
82314SOL    HW148716   0.047  10.663   2.081
82314SOL    HW248717  14.843  10.771   2.148
82315SOL     OW48718   9.786   0.186   2.401
82315SOL    HW148719   9.747   0.124   2.340
82315SOL    HW248720   9.743   0.270   2.381
82316SOL     OW48721   2.278   3.611   5.497
82316SOL    HW148722   2.287   3.554   5.574
82316SOL    HW248723   2.368   3.622   5.465
82317SOL     OW48724   2.640  14.803  10.999
82317SOL    HW148725   2.628  14.737  10.931
82317SOL    HW248726   2.574  14.870  10.979
82318SOL     OW48727   4.300   2.592   9.847
82318SOL    HW148728   4.226   2.645   9.875
82318SOL    HW248729   4.286   2.577   9.754
82319SOL     OW48730  11.911   1.549   1.013
82319SOL    HW148731  11.841   1.486   1.025
82319SOL    HW248732  11.941   1.570   1.101
82320SOL     OW48733  10.071  12.012   9.743
82320SOL    HW148734  10.157  11.971   9.742
82320SOL    HW248735  10.089  12.104   9.762
82321SOL     OW48736   1.850   1.195  11.502
82321SOL    HW148737   1.766   1.239  11.501
82321SOL    HW248738   1.915   1.266  11.500
82322SOL     OW48739   0.807  10.609   3.162
82322SOL    HW148740   0.850  10.677   3.111
82322SOL    HW248741   0.835  10.625   3.252
82323SOL     OW48742   1.368   0.098   7.769
82323SOL    HW148743   1.276   0.080   7.748
82323SOL    HW248744   1.363   0.160   7.842
82324SOL     OW48745   0.593   9.626   6.233
82324SOL    HW148746   0.521   9.610   6.171
82324SOL    HW248747   0.648   9.692   6.189
82325SOL     OW48748  14.719  12.224   2.311
82325SOL    HW148749  14.790  12.272   2.269
82325SOL    HW248750  14.643  12.239   2.254
82326SOL     OW48751   4.355   3.456   9.229
82326SOL    HW148752   4.409   3.513   9.285
82326SOL    HW248753   4.339   3.508   9.151
82327SOL     OW48754  10.188   6.258   7.034
82327SOL    HW148755  10.116   6.266   7.096
82327SOL    HW248756  10.145   6.242   6.950
82328SOL     OW48757   1.888   8.749   3.197
82328SOL    HW148758   1.834   8.691   3.251
82328SOL    HW248759   1.974   8.706   3.195
82329SOL     OW48760   4.243   8.317   7.672
82329SOL    HW148761   4.201   8.361   7.746
82329SOL    HW248762   4.331   8.354   7.669
82330SOL     OW48763  13.674   9.161  10.125
82330SOL    HW148764  13.601   9.209  10.162
82330SOL    HW248765  13.654   9.155  10.031
82331SOL     OW48766  10.689   1.980   6.126
82331SOL    HW148767  10.627   2.044   6.093
82331SOL    HW248768  10.643   1.938   6.199
82332SOL     OW48769  12.562  11.251  10.084
82332SOL    HW148770  12.613  11.267  10.163
82332SOL    HW248771  12.549  11.338  10.046
82333SOL     OW48772   5.386   5.477   4.422
82333SOL    HW148773   5.436   5.555   4.402
82333SOL    HW248774   5.450   5.406   4.422
82334SOL     OW48775   8.717   6.360   2.521
82334SOL    HW148776   8.697   6.290   2.583
82334SOL    HW248777   8.636   6.410   2.515
82335SOL     OW48778   7.784  12.964   6.785
82335SOL    HW148779   7.722  13.029   6.752
82335SOL    HW248780   7.854  12.961   6.719
82336SOL     OW48781   7.943  11.009   4.150
82336SOL    HW148782   7.892  11.084   4.181
82336SOL    HW248783   8.004  11.047   4.086
82337SOL     OW48784  13.968   1.451   5.088
82337SOL    HW148785  14.039   1.420   5.031
82337SOL    HW248786  13.987   1.412   5.173
82338SOL     OW48787   2.354   3.584   5.199
82338SOL    HW148788   2.359   3.490   5.182
82338SOL    HW248789   2.400   3.596   5.282
82339SOL     OW48790  13.091   6.411   8.352
82339SOL    HW148791  13.152   6.480   8.326
82339SOL    HW248792  13.141   6.330   8.344
82340SOL     OW48793  10.096   5.359  11.381
82340SOL    HW148794  10.047   5.334  11.460
82340SOL    HW248795  10.030   5.393  11.321
82341SOL     OW48796  11.089   3.242   5.610
82341SOL    HW148797  11.011   3.186   5.609
82341SOL    HW248798  11.142   3.210   5.537
82342SOL     OW48799   4.185   5.300   8.761
82342SOL    HW148800   4.197   5.381   8.811
82342SOL    HW248801   4.094   5.302   8.733
82343SOL     OW48802  11.674  12.510   5.867
82343SOL    HW148803  11.638  12.571   5.802
82343SOL    HW248804  11.768  12.521   5.861
82344SOL     OW48805  13.372   9.330   2.205
82344SOL    HW148806  13.411   9.281   2.278
82344SOL    HW248807  13.294   9.279   2.182
82345SOL     OW48808   1.015   9.963  14.143
82345SOL    HW148809   0.999  10.051  14.177
82345SOL    HW248810   1.082   9.927  14.201
82346SOL     OW48811   5.856   4.793   5.873
82346SOL    HW148812   5.783   4.742   5.907
82346SOL    HW248813   5.890   4.741   5.801
82347SOL     OW48814   0.186   4.206   5.909
82347SOL    HW148815   0.157   4.209   6.000
82347SOL    HW248816   0.280   4.225   5.914
82348SOL     OW48817   4.894   4.780   1.282
82348SOL    HW148818   4.941   4.797   1.200
82348SOL    HW248819   4.802   4.776   1.257
82349SOL     OW48820  13.497   8.986   8.550
82349SOL    HW148821  13.479   9.057   8.612
82349SOL    HW248822  13.454   9.013   8.469
82350SOL     OW48823  11.397   6.509   1.582
82350SOL    HW148824  11.323   6.510   1.642
82350SOL    HW248825  11.453   6.581   1.611
82351SOL     OW48826   9.398  13.516   2.417
82351SOL    HW148827   9.347  13.476   2.347
82351SOL    HW248828   9.434  13.596   2.379
82352SOL     OW48829   6.606   3.202   0.871
82352SOL    HW148830   6.633   3.229   0.783
82352SOL    HW248831   6.636   3.111   0.878
82353SOL     OW48832   1.232   9.165   9.574
82353SOL    HW148833   1.200   9.225   9.642
82353SOL    HW248834   1.207   9.207   9.491
82354SOL     OW48835   2.518   0.827   5.066
82354SOL    HW148836   2.547   0.814   5.156
82354SOL    HW248837   2.431   0.787   5.062
82355SOL     OW48838   1.320   1.168   9.663
82355SOL    HW148839   1.339   1.156   9.756
82355SOL    HW248840   1.237   1.216   9.661
82356SOL     OW48841  12.537   6.018   7.927
82356SOL    HW148842  12.492   5.951   7.980
82356SOL    HW248843  12.466   6.068   7.887
82357SOL     OW48844   4.330   1.508   3.619
82357SOL    HW148845   4.235   1.498   3.630
82357SOL    HW248846   4.355   1.435   3.562
82358SOL     OW48847  13.918   7.452   5.917
82358SOL    HW148848  13.870   7.525   5.956
82358SOL    HW248849  13.935   7.479   5.827
82359SOL     OW48850   2.274   6.893   9.825
82359SOL    HW148851   2.292   6.910   9.732
82359SOL    HW248852   2.263   6.798   9.831
82360SOL     OW48853  13.983   6.096   8.944
82360SOL    HW148854  14.057   6.074   8.888
82360SOL    HW248855  13.986   6.031   9.015
82361SOL     OW48856  12.050   2.706  12.578
82361SOL    HW148857  12.084   2.766  12.511
82361SOL    HW248858  12.002   2.640  12.527
82362SOL     OW48859   4.608   7.742  11.547
82362SOL    HW148860   4.613   7.654  11.510
82362SOL    HW248861   4.677   7.791  11.501
82363SOL     OW48862  14.492   8.023   1.738
82363SOL    HW148863  14.514   8.113   1.761
82363SOL    HW248864  14.534   7.969   1.805
82364SOL     OW48865   3.795   9.581  11.688
82364SOL    HW148866   3.859   9.540  11.629
82364SOL    HW248867   3.824   9.556  11.776
82365SOL     OW48868   1.122  12.293   2.093
82365SOL    HW148869   1.029  12.297   2.115
82365SOL    HW248870   1.124  12.256   2.005
82366SOL     OW48871  12.608  14.850  11.133
82366SOL    HW148872  12.601   0.031  11.208
82366SOL    HW248873  12.525  14.802  11.133
82367SOL     OW48874   9.724   1.798   6.424
82367SOL    HW148875   9.746   1.806   6.332
82367SOL    HW248876   9.731   1.887   6.458
82368SOL     OW48877   4.754  14.593   8.640
82368SOL    HW148878   4.700  14.614   8.717
82368SOL    HW248879   4.722  14.652   8.572
82369SOL     OW48880   8.075   2.611   5.624
82369SOL    HW148881   8.080   2.572   5.711
82369SOL    HW248882   8.164   2.643   5.608
82370SOL     OW48883   8.792   6.073   3.314
82370SOL    HW148884   8.820   6.164   3.318
82370SOL    HW248885   8.713   6.074   3.260
82371SOL     OW48886  14.334  14.746   3.614
82371SOL    HW148887  14.314  14.730   3.706
82371SOL    HW248888  14.283  14.681   3.566
82372SOL     OW48889   5.075   6.818   5.693
82372SOL    HW148890   5.010   6.867   5.643
82372SOL    HW248891   5.146   6.802   5.631
82373SOL     OW48892  10.032  13.943   4.131
82373SOL    HW148893  10.107  13.903   4.086
82373SOL    HW248894   9.984  13.869   4.168
82374SOL     OW48895   2.863   2.419  12.578
82374SOL    HW148896   2.919   2.442  12.652
82374SOL    HW248897   2.786   2.476  12.588
82375SOL     OW48898   2.617   4.910  10.288
82375SOL    HW148899   2.542   4.953  10.330
82375SOL    HW248900   2.592   4.900  10.197
82376SOL     OW48901   5.752  14.506   3.867
82376SOL    HW148902   5.765  14.412   3.878
82376SOL    HW248903   5.807  14.529   3.792
82377SOL     OW48904  10.306   6.045   9.534
82377SOL    HW148905  10.246   6.117   9.549
82377SOL    HW248906  10.325   6.048   9.440
82378SOL     OW48907  14.410   0.803   9.433
82378SOL    HW148908  14.483   0.815   9.493
82378SOL    HW248909  14.379   0.714   9.450
82379SOL     OW48910  14.475   8.255   0.301
82379SOL    HW148911  14.390   8.263   0.346
82379SOL    HW248912  14.454   8.208   0.220
82380SOL     OW48913   8.324  12.481  12.485
82380SOL    HW148914   8.381  12.405  12.476
82380SOL    HW248915   8.243  12.447  12.523
82381SOL     OW48916   3.585  10.835   8.069
82381SOL    HW148917   3.517  10.775   8.102
82381SOL    HW248918   3.665  10.806   8.113
82382SOL     OW48919   0.508  12.853   7.952
82382SOL    HW148920   0.427  12.802   7.959
82382SOL    HW248921   0.533  12.844   7.860
82383SOL     OW48922   7.511   6.588   3.508
82383SOL    HW148923   7.466   6.663   3.469
82383SOL    HW248924   7.473   6.580   3.595
82384SOL     OW48925   5.340  11.066  12.520
82384SOL    HW148926   5.269  11.090  12.461
82384SOL    HW248927   5.419  11.097  12.475
82385SOL     OW48928   9.026   0.624   6.154
82385SOL    HW148929   8.996   0.556   6.094
82385SOL    HW248930   9.075   0.577   6.222
82386SOL     OW48931   0.672   6.386   5.005
82386SOL    HW148932   0.649   6.326   4.934
82386SOL    HW248933   0.591   6.433   5.024
82387SOL     OW48934   4.620   3.312   9.048
82387SOL    HW148935   4.681   3.246   9.015
82387SOL    HW248936   4.541   3.300   8.995
82388SOL     OW48937   5.521   7.552   8.765
82388SOL    HW148938   5.521   7.493   8.690
82388SOL    HW248939   5.589   7.617   8.745
82389SOL     OW48940   4.244  12.253  10.712
82389SOL    HW148941   4.242  12.180  10.774
82389SOL    HW248942   4.156  12.291  10.719
82390SOL     OW48943  14.527   9.474   0.386
82390SOL    HW148944  14.544   9.400   0.327
82390SOL    HW248945  14.544   9.440   0.473
82391SOL     OW48946   2.571   6.466   1.192
82391SOL    HW148947   2.498   6.411   1.221
82391SOL    HW248948   2.648   6.425   1.230
82392SOL     OW48949   5.676   5.355   0.093
82392SOL    HW148950   5.723   5.285   0.048
82392SOL    HW248951   5.678   5.429   0.032
82393SOL     OW48952  12.178   5.502   6.081
82393SOL    HW148953  12.090   5.505   6.120
82393SOL    HW248954  12.210   5.592   6.089
82394SOL     OW48955   5.867   7.405   0.040
82394SOL    HW148956   5.917   7.327   0.018
82394SOL    HW248957   5.836   7.439  14.834
82395SOL     OW48958  14.276  11.635   4.453
82395SOL    HW148959  14.335  11.572   4.493
82395SOL    HW248960  14.191  11.591   4.452
82396SOL     OW48961   1.044   3.760  10.457
82396SOL    HW148962   1.124   3.709  10.463
82396SOL    HW248963   1.018   3.775  10.548
82397SOL     OW48964   6.025  13.910   9.521
82397SOL    HW148965   6.005  13.852   9.595
82397SOL    HW248966   6.033  13.851   9.446
82398SOL     OW48967  11.583  14.157  13.865
82398SOL    HW148968  11.582  14.251  13.886
82398SOL    HW248969  11.618  14.153  13.776
82399SOL     OW48970  11.206   8.488  13.833
82399SOL    HW148971  11.260   8.436  13.773
82399SOL    HW248972  11.209   8.439  13.916
82400SOL     OW48973   6.444   7.922  12.270
82400SOL    HW148974   6.364   7.870  12.281
82400SOL    HW248975   6.501   7.894  12.341
82401SOL     OW48976  12.836   1.050   0.546
82401SOL    HW148977  12.930   1.065   0.557
82401SOL    HW248978  12.800   1.064   0.634
82402SOL     OW48979  12.983  10.340  12.499
82402SOL    HW148980  13.007  10.249  12.517
82402SOL    HW248981  12.888  10.343  12.516
82403SOL     OW48982   6.014  13.539  12.444
82403SOL    HW148983   6.062  13.458  12.458
82403SOL    HW248984   5.927  13.510  12.416
82404SOL     OW48985  14.175   2.537   7.640
82404SOL    HW148986  14.082   2.548   7.620
82404SOL    HW248987  14.203   2.624   7.670
82405SOL     OW48988   4.664   4.667   6.931
82405SOL    HW148989   4.709   4.648   7.014
82405SOL    HW248990   4.574   4.639   6.946
82406SOL     OW48991   5.752   4.494   7.406
82406SOL    HW148992   5.730   4.425   7.344
82406SOL    HW248993   5.727   4.575   7.362
82407SOL     OW48994  11.079   0.581  13.039
82407SOL    HW148995  11.073   0.499  13.088
82407SOL    HW248996  11.166   0.614  13.059
82408SOL     OW48997   0.662  12.653  12.571
82408SOL    HW148998   0.714  12.681  12.497
82408SOL    HW248999   0.571  12.664  12.543
82409SOL     OW49000  13.682   1.272  14.208
82409SOL    HW149001  13.698   1.303  14.120
82409SOL    HW249002  13.685   1.351  14.263
82410SOL     OW49003  10.386   6.937   7.230
82410SOL    HW149004  10.384   7.018   7.179
82410SOL    HW249005  10.293   6.916   7.243
82411SOL     OW49006   5.757   8.156  10.913
82411SOL    HW149007   5.796   8.140  10.998
82411SOL    HW249008   5.684   8.094  10.907
82412SOL     OW49009   0.883  13.835  13.555
82412SOL    HW149010   0.915  13.819  13.466
82412SOL    HW249011   0.917  13.922  13.577
82413SOL     OW49012  13.477   9.364   5.963
82413SOL    HW149013  13.496   9.408   5.879
82413SOL    HW249014  13.488   9.271   5.944
82414SOL     OW49015   1.792   4.682   8.101
82414SOL    HW149016   1.823   4.620   8.036
82414SOL    HW249017   1.832   4.653   8.183
82415SOL     OW49018   4.826  12.424  10.891
82415SOL    HW149019   4.814  12.329  10.889
82415SOL    HW249020   4.765  12.454  10.959
82416SOL     OW49021   0.484   3.932   9.293
82416SOL    HW149022   0.579   3.939   9.287
82416SOL    HW249023   0.467   3.889   9.377
82417SOL     OW49024   3.544   2.548   8.415
82417SOL    HW149025   3.572   2.635   8.444
82417SOL    HW249026   3.516   2.504   8.495
82418SOL     OW49027   0.433   9.902   7.093
82418SOL    HW149028   0.370   9.970   7.118
82418SOL    HW249029   0.445   9.913   6.999
82419SOL     OW49030   4.218  13.393  14.841
82419SOL    HW149031   4.305  13.412  14.805
82419SOL    HW249032   4.232  13.381   0.057
82420SOL     OW49033   3.952   4.082   3.116
82420SOL    HW149034   4.040   4.097   3.149
82420SOL    HW249035   3.900   4.062   3.194
82421SOL     OW49036  10.973   7.646  11.794
82421SOL    HW149037  10.996   7.658  11.701
82421SOL    HW249038  10.888   7.603  11.792
82422SOL     OW49039   8.447   3.420  12.124
82422SOL    HW149040   8.421   3.341  12.078
82422SOL    HW249041   8.409   3.412  12.211
82423SOL     OW49042   3.189   4.775  10.648
82423SOL    HW149043   3.131   4.800  10.576
82423SOL    HW249044   3.129   4.746  10.718
82424SOL     OW49045   2.275   5.206   6.442
82424SOL    HW149046   2.371   5.208   6.447
82424SOL    HW249047   2.255   5.132   6.385
82425SOL     OW49048   6.394   8.222   0.738
82425SOL    HW149049   6.479   8.259   0.760
82425SOL    HW249050   6.336   8.250   0.809
82426SOL     OW49051   1.617   4.734  12.991
82426SOL    HW149052   1.680   4.767  13.055
82426SOL    HW249053   1.533   4.737  13.037
82427SOL     OW49054  10.473   7.918   9.663
82427SOL    HW149055  10.450   7.982   9.730
82427SOL    HW249056  10.392   7.905   9.613
82428SOL     OW49057   2.508   8.996   9.125
82428SOL    HW149058   2.556   8.938   9.184
82428SOL    HW249059   2.485   8.942   9.050
82429SOL     OW49060  10.534  14.678   0.530
82429SOL    HW149061  10.444  14.673   0.497
82429SOL    HW249062  10.556  14.588   0.553
82430SOL     OW49063  13.589   3.539   7.345
82430SOL    HW149064  13.527   3.469   7.362
82430SOL    HW249065  13.658   3.526   7.411
82431SOL     OW49066   7.698  11.512   6.282
82431SOL    HW149067   7.628  11.535   6.220
82431SOL    HW249068   7.659  11.443   6.336
82432SOL     OW49069   7.125   9.603   5.791
82432SOL    HW149070   7.066   9.665   5.748
82432SOL    HW249071   7.150   9.542   5.722
82433SOL     OW49072   2.422  10.659  11.635
82433SOL    HW149073   2.432  10.633  11.726
82433SOL    HW249074   2.475  10.738  11.626
82434SOL     OW49075  14.121   5.250  14.133
82434SOL    HW149076  14.142   5.260  14.226
82434SOL    HW249077  14.075   5.330  14.110
82435SOL     OW49078   7.809   7.861  12.225
82435SOL    HW149079   7.759   7.793  12.270
82435SOL    HW249080   7.897   7.825  12.217
82436SOL     OW49081  10.877   1.909   6.421
82436SOL    HW149082  10.946   1.843   6.424
82436SOL    HW249083  10.860   1.922   6.328
82437SOL     OW49084   9.740   3.685  12.707
82437SOL    HW149085   9.762   3.594  12.686
82437SOL    HW249086   9.824   3.726  12.727
82438SOL     OW49087   7.009   9.929  11.702
82438SOL    HW149088   7.091   9.883  11.722
82438SOL    HW249089   7.035  10.002  11.646
82439SOL     OW49090   3.893   3.348   4.923
82439SOL    HW149091   3.849   3.271   4.887
82439SOL    HW249092   3.977   3.315   4.955
82440SOL     OW49093   9.318   5.652  13.775
82440SOL    HW149094   9.402   5.629  13.814
82440SOL    HW249095   9.272   5.568  13.766
82441SOL     OW49096  11.522   1.050   8.442
82441SOL    HW149097  11.537   0.997   8.520
82441SOL    HW249098  11.524   0.988   8.369
82442SOL     OW49099   5.695  10.048   3.624
82442SOL    HW149100   5.742  10.012   3.700
82442SOL    HW249101   5.700  10.143   3.636
82443SOL     OW49102  12.775  13.008   8.628
82443SOL    HW149103  12.768  12.930   8.574
82443SOL    HW249104  12.692  13.053   8.615
82444SOL     OW49105  13.971   1.019  13.408
82444SOL    HW149106  14.031   1.060  13.346
82444SOL    HW249107  13.911   1.090  13.433
82445SOL     OW49108   7.461  11.592   4.006
82445SOL    HW149109   7.527  11.561   4.068
82445SOL    HW249110   7.381  11.601   4.058
82446SOL     OW49111  12.774   9.246   6.562
82446SOL    HW149112  12.851   9.219   6.512
82446SOL    HW249113  12.733   9.315   6.510
82447SOL     OW49114  10.286   0.470   9.667
82447SOL    HW149115  10.333   0.444   9.587
82447SOL    HW249116  10.254   0.388   9.703
82448SOL     OW49117  14.775  10.962   8.540
82448SOL    HW149118  14.745  10.962   8.630
82448SOL    HW249119  14.706  11.010   8.492
82449SOL     OW49120  12.388   2.414  12.864
82449SOL    HW149121  12.384   2.333  12.812
82449SOL    HW249122  12.328   2.399  12.937
82450SOL     OW49123   2.977  13.506   7.016
82450SOL    HW149124   3.016  13.494   6.930
82450SOL    HW249125   2.883  13.501   7.001
82451SOL     OW49126  14.462   0.628   8.607
82451SOL    HW149127  14.421   0.614   8.522
82451SOL    HW249128  14.524   0.556   8.617
82452SOL     OW49129   2.151   4.704   2.734
82452SOL    HW149130   2.232   4.698   2.785
82452SOL    HW249131   2.098   4.769   2.780
82453SOL     OW49132  13.416   1.249  10.790
82453SOL    HW149133  13.481   1.210  10.848
82453SOL    HW249134  13.461   1.320  10.746
82454SOL     OW49135   0.826   8.867   2.471
82454SOL    HW149136   0.859   8.942   2.421
82454SOL    HW249137   0.730   8.877   2.468
82455SOL     OW49138   9.308   6.317   9.250
82455SOL    HW149139   9.222   6.291   9.281
82455SOL    HW249140   9.303   6.307   9.155
82456SOL     OW49141   2.461  10.887   5.877
82456SOL    HW149142   2.441  10.825   5.806
82456SOL    HW249143   2.470  10.971   5.833
82457SOL     OW49144  14.620   2.575  13.267
82457SOL    HW149145  14.666   2.595  13.348
82457SOL    HW249146  14.623   2.479  13.261
82458SOL     OW49147   5.135   2.147   9.166
82458SOL    HW149148   5.224   2.174   9.142
82458SOL    HW249149   5.078   2.193   9.103
82459SOL     OW49150  12.552   2.931   1.354
82459SOL    HW149151  12.484   2.917   1.289
82459SOL    HW249152  12.626   2.965   1.305
82460SOL     OW49153   4.319   3.294  11.423
82460SOL    HW149154   4.302   3.265  11.333
82460SOL    HW249155   4.374   3.372  11.412
82461SOL     OW49156  13.289  11.332   4.103
82461SOL    HW149157  13.309  11.260   4.163
82461SOL    HW249158  13.223  11.296   4.044
82462SOL     OW49159   4.324   4.874   2.577
82462SOL    HW149160   4.415   4.904   2.575
82462SOL    HW249161   4.284   4.924   2.648
82463SOL     OW49162   8.304  14.735  13.627
82463SOL    HW149163   8.220  14.762  13.590
82463SOL    HW249164   8.303  14.640  13.620
82464SOL     OW49165  10.771   6.974  12.640
82464SOL    HW149166  10.790   6.902  12.700
82464SOL    HW249167  10.704   7.026  12.684
82465SOL     OW49168   0.591   2.532   4.980
82465SOL    HW149169   0.595   2.447   5.023
82465SOL    HW249170   0.573   2.512   4.888
82466SOL     OW49171  10.951   9.163   6.033
82466SOL    HW149172  10.901   9.093   6.075
82466SOL    HW249173  11.004   9.118   5.967
82467SOL     OW49174   1.177   0.636   2.334
82467SOL    HW149175   1.220   0.550   2.332
82467SOL    HW249176   1.217   0.684   2.261
82468SOL     OW49177  11.515   5.303   7.484
82468SOL    HW149178  11.449   5.247   7.523
82468SOL    HW249179  11.510   5.285   7.390
82469SOL     OW49180   1.308  12.051  13.078
82469SOL    HW149181   1.264  12.129  13.114
82469SOL    HW249182   1.386  12.041  13.131
82470SOL     OW49183  10.810   1.871   0.482
82470SOL    HW149184  10.745   1.803   0.503
82470SOL    HW249185  10.881   1.825   0.438
82471SOL     OW49186  11.562   2.533   9.857
82471SOL    HW149187  11.530   2.466   9.797
82471SOL    HW249188  11.548   2.497   9.944
82472SOL     OW49189  14.436   1.158   3.677
82472SOL    HW149190  14.347   1.158   3.712
82472SOL    HW249191  14.451   1.068   3.648
82473SOL     OW49192   8.681   7.960  13.676
82473SOL    HW149193   8.776   7.966  13.669
82473SOL    HW249194   8.658   8.013  13.752
82474SOL     OW49195   7.422   4.645  13.232
82474SOL    HW149196   7.366   4.660  13.307
82474SOL    HW249197   7.379   4.574  13.184
82475SOL     OW49198   8.108   9.858  10.494
82475SOL    HW149199   8.108   9.776  10.445
82475SOL    HW249200   8.026   9.856  10.544
82476SOL     OW49201   4.456   7.222   3.666
82476SOL    HW149202   4.430   7.160   3.733
82476SOL    HW249203   4.386   7.288   3.665
82477SOL     OW49204   3.541   3.004   6.752
82477SOL    HW149205   3.452   2.971   6.762
82477SOL    HW249206   3.557   3.054   6.832
82478SOL     OW49207   1.232   6.046   9.990
82478SOL    HW149208   1.248   5.952   9.980
82478SOL    HW249209   1.171   6.052  10.063
82479SOL     OW49210   6.255  11.278   4.981
82479SOL    HW149211   6.248  11.184   4.968
82479SOL    HW249212   6.349  11.295   4.982
82480SOL     OW49213   4.484   0.187   0.945
82480SOL    HW149214   4.578   0.206   0.950
82480SOL    HW249215   4.475   0.132   0.868
82481SOL     OW49216   4.010  13.876  13.957
82481SOL    HW149217   4.022  13.969  13.937
82481SOL    HW249218   3.930  13.852  13.911
82482SOL     OW49219   1.021   6.142   6.966
82482SOL    HW149220   0.990   6.076   6.904
82482SOL    HW249221   1.056   6.091   7.039
82483SOL     OW49222  10.239  11.128   1.696
82483SOL    HW149223  10.237  11.035   1.716
82483SOL    HW249224  10.147  11.154   1.690
82484SOL     OW49225   2.306   0.036  14.004
82484SOL    HW149226   2.401   0.043  14.012
82484SOL    HW249227   2.278   0.122  13.971
82485SOL     OW49228   2.882   6.711   8.351
82485SOL    HW149229   2.972   6.691   8.324
82485SOL    HW249230   2.885   6.708   8.447
82486SOL     OW49231   1.268   5.888   1.971
82486SOL    HW149232   1.293   5.832   2.044
82486SOL    HW249233   1.306   5.973   1.993
82487SOL     OW49234   0.973   9.234   0.967
82487SOL    HW149235   0.993   9.262   1.057
82487SOL    HW249236   0.891   9.186   0.975
82488SOL     OW49237  13.894   0.416  10.006
82488SOL    HW149238  13.959   0.465   9.956
82488SOL    HW249239  13.935   0.330  10.021
82489SOL     OW49240   0.858   2.726   6.825
82489SOL    HW149241   0.781   2.668   6.822
82489SOL    HW249242   0.923   2.677   6.875
82490SOL     OW49243   2.193   9.106   5.068
82490SOL    HW149244   2.185   9.012   5.048
82490SOL    HW249245   2.288   9.121   5.073
82491SOL     OW49246  10.350  12.696   1.817
82491SOL    HW149247  10.435  12.669   1.782
82491SOL    HW249248  10.366  12.783   1.853
82492SOL     OW49249  11.263   7.015   5.179
82492SOL    HW149250  11.261   7.091   5.236
82492SOL    HW249251  11.227   7.046   5.096
82493SOL     OW49252   7.553  13.958   4.827
82493SOL    HW149253   7.579  13.972   4.736
82493SOL    HW249254   7.635  13.936   4.873
82494SOL     OW49255  10.349  13.363   1.214
82494SOL    HW149256  10.330  13.273   1.241
82494SOL    HW249257  10.285  13.383   1.146
82495SOL     OW49258   9.550  12.684   6.804
82495SOL    HW149259   9.593  12.683   6.719
82495SOL    HW249260   9.457  12.676   6.784
82496SOL     OW49261  10.489  10.219  13.636
82496SOL    HW149262  10.529  10.306  13.635
82496SOL    HW249263  10.538  10.169  13.571
82497SOL     OW49264  12.106   6.556   4.520
82497SOL    HW149265  12.074   6.537   4.432
82497SOL    HW249266  12.140   6.473   4.552
82498SOL     OW49267   3.543   4.087  10.599
82498SOL    HW149268   3.479   4.041  10.653
82498SOL    HW249269   3.628   4.057  10.633
82499SOL     OW49270   5.242  13.762   2.409
82499SOL    HW149271   5.244  13.782   2.316
82499SOL    HW249272   5.332  13.778   2.439
82500SOL     OW49273  13.123  10.415   9.675
82500SOL    HW149274  13.192  10.356   9.708
82500SOL    HW249275  13.107  10.385   9.586
82501SOL     OW49276   8.626   9.266   7.026
82501SOL    HW149277   8.537   9.253   6.995
82501SOL    HW249278   8.680   9.260   6.947
82502SOL     OW49279   6.293  10.015  11.616
82502SOL    HW149280   6.387   9.996  11.627
82502SOL    HW249281   6.250   9.962  11.683
82503SOL     OW49282  12.536   0.428   0.273
82503SOL    HW149283  12.555   0.417   0.367
82503SOL    HW249284  12.547   0.340   0.236
82504SOL     OW49285  11.501  11.619  13.066
82504SOL    HW149286  11.576  11.618  13.006
82504SOL    HW249287  11.519  11.548  13.127
82505SOL     OW49288   0.275   3.779   7.223
82505SOL    HW149289   0.267   3.688   7.251
82505SOL    HW249290   0.220   3.785   7.146
82506SOL     OW49291   1.866   4.624   2.688
82506SOL    HW149292   1.830   4.623   2.600
82506SOL    HW249293   1.946   4.676   2.681
82507SOL     OW49294  11.850   3.300   3.328
82507SOL    HW149295  11.838   3.326   3.419
82507SOL    HW249296  11.877   3.381   3.284
82508SOL     OW49297   6.383   9.428   2.248
82508SOL    HW149298   6.452   9.419   2.314
82508SOL    HW249299   6.413   9.374   2.175
82509SOL     OW49300   9.011   8.510  14.638
82509SOL    HW149301   8.968   8.531  14.721
82509SOL    HW249302   9.023   8.594  14.595
82510SOL     OW49303   1.195  10.991  13.100
82510SOL    HW149304   1.215  10.968  13.009
82510SOL    HW249305   1.104  11.021  13.098
82511SOL     OW49306   9.004   5.809   5.847
82511SOL    HW149307   8.957   5.775   5.923
82511SOL    HW249308   8.981   5.749   5.776
82512SOL     OW49309   4.485   2.997   5.371
82512SOL    HW149310   4.568   2.955   5.351
82512SOL    HW249311   4.506   3.062   5.438
82513SOL     OW49312  10.207   1.769   5.205
82513SOL    HW149313  10.211   1.752   5.111
82513SOL    HW249314  10.284   1.724   5.240
82514SOL     OW49315  14.215  12.164  10.746
82514SOL    HW149316  14.210  12.215  10.665
82514SOL    HW249317  14.159  12.087  10.729
82515SOL     OW49318   7.230   8.242   2.898
82515SOL    HW149319   7.302   8.292   2.937
82515SOL    HW249320   7.182   8.306   2.846
82516SOL     OW49321   1.790  10.382  12.866
82516SOL    HW149322   1.815  10.372  12.775
82516SOL    HW249323   1.824  10.468  12.891
82517SOL     OW49324   5.245   5.306   9.107
82517SOL    HW149325   5.287   5.267   9.030
82517SOL    HW249326   5.160   5.263   9.112
82518SOL     OW49327   8.833   9.739  13.531
82518SOL    HW149328   8.910   9.780  13.570
82518SOL    HW249329   8.869   9.667  13.477
82519SOL     OW49330  13.716   5.141  12.771
82519SOL    HW149331  13.689   5.103  12.855
82519SOL    HW249332  13.750   5.066  12.721
82520SOL     OW49333  10.548   4.353  11.872
82520SOL    HW149334  10.606   4.277  11.879
82520SOL    HW249335  10.556   4.397  11.956
82521SOL     OW49336   8.753   4.884   3.418
82521SOL    HW149337   8.779   4.803   3.462
82521SOL    HW249338   8.662   4.868   3.392
82522SOL     OW49339   4.136   3.873  13.904
82522SOL    HW149340   4.138   3.837  13.993
82522SOL    HW249341   4.044   3.892  13.888
82523SOL     OW49342   1.288  11.511   2.041
82523SOL    HW149343   1.323  11.422   2.031
82523SOL    HW249344   1.200  11.506   2.003
82524SOL     OW49345  12.482  12.397   6.556
82524SOL    HW149346  12.438  12.475   6.589
82524SOL    HW249347  12.415  12.348   6.509
82525SOL     OW49348   6.347  13.876  13.825
82525SOL    HW149349   6.319  13.864  13.734
82525SOL    HW249350   6.411  13.946  13.821
82526SOL     OW49351   5.771   2.266   5.066
82526SOL    HW149352   5.822   2.276   4.986
82526SOL    HW249353   5.702   2.331   5.059
82527SOL     OW49354   0.916   9.393  11.496
82527SOL    HW149355   0.887   9.473  11.452
82527SOL    HW249356   0.973   9.423  11.566
82528SOL     OW49357  12.097  13.258  14.388
82528SOL    HW149358  12.012  13.284  14.424
82528SOL    HW249359  12.098  13.296  14.300
82529SOL     OW49360   9.991   0.189  13.496
82529SOL    HW149361   9.896   0.198  13.495
82529SOL    HW249362  10.023   0.276  13.474
82530SOL     OW49363  10.220   7.198  12.017
82530SOL    HW149364  10.150   7.133  12.014
82530SOL    HW249365  10.219   7.239  11.931
82531SOL     OW49366  12.223   3.122  12.513
82531SOL    HW149367  12.130   3.144  12.512
82531SOL    HW249368  12.257   3.157  12.430
82532SOL     OW49369   8.074   3.698  11.014
82532SOL    HW149370   8.147   3.689  10.953
82532SOL    HW249371   8.115   3.721  11.097
82533SOL     OW49372   9.208   1.632   9.548
82533SOL    HW149373   9.177   1.617   9.638
82533SOL    HW249374   9.212   1.544   9.510
82534SOL     OW49375   0.004  10.545   0.439
82534SOL    HW149376  14.794  10.534   0.402
82534SOL    HW249377  14.874  10.622   0.495
82535SOL     OW49378  14.667   0.652   8.302
82535SOL    HW149379  14.748   0.640   8.351
82535SOL    HW249380  14.665   0.580   8.239
82536SOL     OW49381  14.721   6.848   3.065
82536SOL    HW149382  14.677   6.906   3.128
82536SOL    HW249383  14.768   6.785   3.120
82537SOL     OW49384  12.739   2.263   9.874
82537SOL    HW149385  12.788   2.181   9.864
82537SOL    HW249386  12.672   2.242   9.939
82538SOL     OW49387   6.841  13.848  10.928
82538SOL    HW149388   6.832  13.861  10.834
82538SOL    HW249389   6.765  13.893  10.965
82539SOL     OW49390   1.196   3.725  14.189
82539SOL    HW149391   1.112   3.767  14.168
82539SOL    HW249392   1.241   3.790  14.243
82540SOL     OW49393  12.940  13.825  10.542
82540SOL    HW149394  12.943  13.864  10.455
82540SOL    HW249395  12.945  13.730  10.526
82541SOL     OW49396   9.179   1.441   4.959
82541SOL    HW149397   9.226   1.414   5.038
82541SOL    HW249398   9.092   1.402   4.968
82542SOL     OW49399  14.720  10.078   8.414
82542SOL    HW149400  14.805  10.042   8.389
82542SOL    HW249401  14.668  10.003   8.442
82543SOL     OW49402  10.294  11.604   4.779
82543SOL    HW149403  10.249  11.622   4.861
82543SOL    HW249404  10.225  11.607   4.713
82544SOL     OW49405  14.302   0.184   1.029
82544SOL    HW149406  14.325   0.147   1.115
82544SOL    HW249407  14.283   0.108   0.975
82545SOL     OW49408   1.424   2.508  12.719
82545SOL    HW149409   1.349   2.520  12.661
82545SOL    HW249410   1.387   2.514  12.807
82546SOL     OW49411  13.491  14.450   5.042
82546SOL    HW149412  13.572  14.466   4.995
82546SOL    HW249413  13.472  14.357   5.028
82547SOL     OW49414  10.811   1.789  12.887
82547SOL    HW149415  10.734   1.839  12.860
82547SOL    HW249416  10.790   1.756  12.974
82548SOL     OW49417   0.645  10.323   3.479
82548SOL    HW149418   0.694  10.333   3.397
82548SOL    HW249419   0.710  10.341   3.547
82549SOL     OW49420   1.136   5.075   8.666
82549SOL    HW149421   1.121   5.143   8.600
82549SOL    HW249422   1.065   5.086   8.729
82550SOL     OW49423   1.120   3.580  12.806
82550SOL    HW149424   1.135   3.670  12.834
82550SOL    HW249425   1.208   3.545  12.790
82551SOL     OW49426   0.552   9.076   2.497
82551SOL    HW149427   0.602   9.082   2.578
82551SOL    HW249428   0.528   8.984   2.489
82552SOL     OW49429   1.312  12.262   4.342
82552SOL    HW149430   1.376  12.236   4.408
82552SOL    HW249431   1.314  12.358   4.343
82553SOL     OW49432   9.739   2.434   5.154
82553SOL    HW149433   9.784   2.512   5.122
82553SOL    HW249434   9.792   2.361   5.122
82554SOL     OW49435   2.637  10.239   4.021
82554SOL    HW149436   2.721  10.284   4.010
82554SOL    HW249437   2.651  10.154   3.979
82555SOL     OW49438   6.892   6.882   6.597
82555SOL    HW149439   6.906   6.869   6.691
82555SOL    HW249440   6.966   6.837   6.556
82556SOL     OW49441   3.135   6.793   5.713
82556SOL    HW149442   3.216   6.750   5.689
82556SOL    HW249443   3.105   6.746   5.791
82557SOL     OW49444   4.906  13.688  12.974
82557SOL    HW149445   4.879  13.718  13.061
82557SOL    HW249446   4.914  13.593  12.983
82558SOL     OW49447   0.231  14.339   0.444
82558SOL    HW149448   0.231  14.261   0.389
82558SOL    HW249449   0.144  14.378   0.430
82559SOL     OW49450   1.324  14.753   3.390
82559SOL    HW149451   1.239  14.720   3.362
82559SOL    HW249452   1.337  14.833   3.338
82560SOL     OW49453  10.024   4.228   3.015
82560SOL    HW149454  10.065   4.305   3.055
82560SOL    HW249455  10.017   4.165   3.086
82561SOL     OW49456   0.769   7.483  10.541
82561SOL    HW149457   0.832   7.534  10.490
82561SOL    HW249458   0.781   7.514  10.631
82562SOL     OW49459   9.894  10.186   1.594
82562SOL    HW149460   9.984  10.217   1.585
82562SOL    HW249461   9.879  10.134   1.515
82563SOL     OW49462  13.344   2.582   6.489
82563SOL    HW149463  13.312   2.662   6.446
82563SOL    HW249464  13.323   2.512   6.426
82564SOL     OW49465   8.033   9.441   4.818
82564SOL    HW149466   8.095   9.401   4.757
82564SOL    HW249467   8.009   9.370   4.878
82565SOL     OW49468  13.437  14.453   4.182
82565SOL    HW149469  13.342  14.455   4.166
82565SOL    HW249470  13.445  14.464   4.277
82566SOL     OW49471  14.131   1.865   1.483
82566SOL    HW149472  14.077   1.801   1.437
82566SOL    HW249473  14.186   1.904   1.415
82567SOL     OW49474   1.347  13.574  12.100
82567SOL    HW149475   1.353  13.648  12.161
82567SOL    HW249476   1.437  13.560  12.071
82568SOL     OW49477   5.803   7.998   5.003
82568SOL    HW149478   5.792   8.036   5.090
82568SOL    HW249479   5.810   7.904   5.018
82569SOL     OW49480   7.050   2.356   3.024
82569SOL    HW149481   7.067   2.312   3.108
82569SOL    HW249482   7.063   2.288   2.958
82570SOL     OW49483   4.014  10.455   6.607
82570SOL    HW149484   3.918  10.454   6.614
82570SOL    HW249485   4.038  10.364   6.592
82571SOL     OW49486   1.670   8.361   6.217
82571SOL    HW149487   1.676   8.297   6.288
82571SOL    HW249488   1.576   8.372   6.204
82572SOL     OW49489  11.266   9.048  11.432
82572SOL    HW149490  11.190   9.061  11.489
82572SOL    HW249491  11.229   9.018  11.349
82573SOL     OW49492   4.670   2.706   5.429
82573SOL    HW149493   4.623   2.733   5.508
82573SOL    HW249494   4.739   2.648   5.460
82574SOL     OW49495  13.409   6.620   2.356
82574SOL    HW149496  13.378   6.697   2.309
82574SOL    HW249497  13.475   6.581   2.298
82575SOL     OW49498   2.709   3.803   3.647
82575SOL    HW149499   2.794   3.798   3.692
82575SOL    HW249500   2.655   3.736   3.690
82576SOL     OW49501   4.404   1.302   3.462
82576SOL    HW149502   4.437   1.222   3.503
82576SOL    HW249503   4.416   1.289   3.368
82577SOL     OW49504  12.612   1.346  14.170
82577SOL    HW149505  12.527   1.304  14.161
82577SOL    HW249506  12.662   1.288  14.227
82578SOL     OW49507   0.660  13.605  12.721
82578SOL    HW149508   0.576  13.644  12.696
82578SOL    HW249509   0.654  13.594  12.815
82579SOL     OW49510   9.584  13.509   3.492
82579SOL    HW149511   9.567  13.427   3.444
82579SOL    HW249512   9.519  13.510   3.562
82580SOL     OW49513  13.832   3.314  12.728
82580SOL    HW149514  13.837   3.301  12.634
82580SOL    HW249515  13.921   3.297  12.760
82581SOL     OW49516   5.117   3.132   4.207
82581SOL    HW149517   5.188   3.115   4.145
82581SOL    HW249518   5.141   3.082   4.285
82582SOL     OW49519  12.196   0.556   3.389
82582SOL    HW149520  12.140   0.579   3.315
82582SOL    HW249521  12.165   0.613   3.460
82583SOL     OW49522   4.651  13.333   3.812
82583SOL    HW149523   4.617  13.328   3.901
82583SOL    HW249524   4.573  13.326   3.756
82584SOL     OW49525   2.565   2.545   5.847
82584SOL    HW149526   2.524   2.626   5.877
82584SOL    HW249527   2.592   2.500   5.927
82585SOL     OW49528   3.138   5.031   1.011
82585SOL    HW149529   3.067   4.969   0.995
82585SOL    HW249530   3.217   4.982   0.987
82586SOL     OW49531   0.517   2.032   5.375
82586SOL    HW149532   0.431   2.071   5.359
82586SOL    HW249533   0.547   2.072   5.456
82587SOL     OW49534   7.885   0.583  10.197
82587SOL    HW149535   7.821   0.647  10.165
82587SOL    HW249536   7.954   0.583  10.131
82588SOL     OW49537  14.099  10.954   0.741
82588SOL    HW149538  14.082  10.914   0.656
82588SOL    HW249539  14.105  10.881   0.802
82589SOL     OW49540   8.443   7.557   1.740
82589SOL    HW149541   8.414   7.466   1.740
82589SOL    HW249542   8.399   7.596   1.816
82590SOL     OW49543   5.640   7.250   0.639
82590SOL    HW149544   5.602   7.334   0.615
82590SOL    HW249545   5.648   7.253   0.734
82591SOL     OW49546   6.082  11.126  10.903
82591SOL    HW149547   6.111  11.041  10.870
82591SOL    HW249548   5.987  11.120  10.905
82592SOL     OW49549   8.923  11.594  13.582
82592SOL    HW149550   8.854  11.545  13.627
82592SOL    HW249551   8.977  11.528  13.540
82593SOL     OW49552   8.079   5.175   6.133
82593SOL    HW149553   7.998   5.211   6.096
82593SOL    HW249554   8.055   5.088   6.165
82594SOL     OW49555   5.119   4.805   9.593
82594SOL    HW149556   5.213   4.791   9.605
82594SOL    HW249557   5.090   4.844   9.676
82595SOL     OW49558  14.647   7.595   0.426
82595SOL    HW149559  14.664   7.615   0.334
82595SOL    HW249560  14.679   7.506   0.437
82596SOL     OW49561   0.049   9.790   0.585
82596SOL    HW149562   0.089   9.808   0.500
82596SOL    HW249563   0.121   9.801   0.648
82597SOL     OW49564   5.658   2.898   9.990
82597SOL    HW149565   5.604   2.833   9.946
82597SOL    HW249566   5.728   2.847  10.031
82598SOL     OW49567   2.782   6.138   0.388
82598SOL    HW149568   2.731   6.200   0.337
82598SOL    HW249569   2.718   6.080   0.428
82599SOL     OW49570   4.078  11.570  14.240
82599SOL    HW149571   3.997  11.620  14.229
82599SOL    HW249572   4.075  11.538  14.330
82600SOL     OW49573  11.309   8.385  10.690
82600SOL    HW149574  11.395   8.427  10.682
82600SOL    HW249575  11.250   8.456  10.715
82601SOL     OW49576   0.213   6.317   9.339
82601SOL    HW149577   0.155   6.389   9.314
82601SOL    HW249578   0.296   6.358   9.361
82602SOL     OW49579   3.069   3.372  14.681
82602SOL    HW149580   3.050   3.463  14.657
82602SOL    HW249581   3.137   3.345  14.620
82603SOL     OW49582   0.762  11.589  14.028
82603SOL    HW149583   0.706  11.570  13.952
82603SOL    HW249584   0.834  11.641  13.993
82604SOL     OW49585   5.598   2.290  11.630
82604SOL    HW149586   5.677   2.343  11.620
82604SOL    HW249587   5.529   2.340  11.587
82605SOL     OW49588   0.081   7.197  11.722
82605SOL    HW149589   0.075   7.202  11.817
82605SOL    HW249590   0.018   7.129  11.697
82606SOL     OW49591  11.353   7.637  11.389
82606SOL    HW149592  11.305   7.585  11.454
82606SOL    HW249593  11.401   7.572  11.337
82607SOL     OW49594  10.623   7.621   1.629
82607SOL    HW149595  10.562   7.550   1.652
82607SOL    HW249596  10.710   7.584   1.643
82608SOL     OW49597   3.626  14.107  11.214
82608SOL    HW149598   3.713  14.084  11.180
82608SOL    HW249599   3.585  14.156  11.143
82609SOL     OW49600  14.524   9.788  10.463
82609SOL    HW149601  14.508   9.823  10.375
82609SOL    HW249602  14.438   9.757  10.492
82610SOL     OW49603  12.963  11.917  10.716
82610SOL    HW149604  12.878  11.878  10.694
82610SOL    HW249605  13.018  11.897  10.640
82611SOL     OW49606  12.004   9.622   0.040
82611SOL    HW149607  12.093   9.653   0.060
82611SOL    HW249608  11.973   9.586   0.123
82612SOL     OW49609   5.471  14.260   4.232
82612SOL    HW149610   5.470  14.202   4.156
82612SOL    HW249611   5.443  14.205   4.305
82613SOL     OW49612   1.328  11.234   0.039
82613SOL    HW149613   1.240  11.250   0.075
82613SOL    HW249614   1.312  11.178  14.841
82614SOL     OW49615  10.630   7.828  12.272
82614SOL    HW149616  10.629   7.918  12.304
82614SOL    HW249617  10.632   7.774  12.350
82615SOL     OW49618   5.711  13.627  13.411
82615SOL    HW149619   5.628  13.645  13.366
82615SOL    HW249620   5.692  13.553  13.467
82616SOL     OW49621   8.289   8.577  13.560
82616SOL    HW149622   8.265   8.526  13.638
82616SOL    HW249623   8.307   8.665  13.594
82617SOL     OW49624   9.626   8.676   4.556
82617SOL    HW149625   9.636   8.701   4.648
82617SOL    HW249626   9.660   8.587   4.552
82618SOL     OW49627   4.588   9.790   2.099
82618SOL    HW149628   4.564   9.811   2.190
82618SOL    HW249629   4.660   9.728   2.107
82619SOL     OW49630   6.372  12.953   6.158
82619SOL    HW149631   6.388  13.033   6.106
82619SOL    HW249632   6.460  12.916   6.171
82620SOL     OW49633   5.154   0.320   3.820
82620SOL    HW149634   5.156   0.258   3.892
82620SOL    HW249635   5.151   0.406   3.862
82621SOL     OW49636   8.397   0.759   7.191
82621SOL    HW149637   8.343   0.778   7.114
82621SOL    HW249638   8.335   0.736   7.260
82622SOL     OW49639   0.115   8.187   9.623
82622SOL    HW149640   0.175   8.201   9.696
82622SOL    HW249641   0.171   8.153   9.553
82623SOL     OW49642   0.693   1.666   9.639
82623SOL    HW149643   0.702   1.657   9.734
82623SOL    HW249644   0.683   1.761   9.625
82624SOL     OW49645   8.149   7.474   5.445
82624SOL    HW149646   8.069   7.526   5.445
82624SOL    HW249647   8.184   7.486   5.534
82625SOL     OW49648   9.819   0.119   0.724
82625SOL    HW149649   9.734   0.075   0.732
82625SOL    HW249650   9.866   0.096   0.804
82626SOL     OW49651  13.331   8.747  11.835
82626SOL    HW149652  13.252   8.710  11.796
82626SOL    HW249653  13.299   8.817  11.892
82627SOL     OW49654  11.936   7.710   4.414
82627SOL    HW149655  11.874   7.680   4.481
82627SOL    HW249656  11.903   7.795   4.387
82628SOL     OW49657   5.871   7.328   9.748
82628SOL    HW149658   5.917   7.262   9.697
82628SOL    HW249659   5.935   7.357   9.813
82629SOL     OW49660   1.049   0.249   2.615
82629SOL    HW149661   1.017   0.332   2.651
82629SOL    HW249662   0.979   0.186   2.635
82630SOL     OW49663  11.668   5.416   1.223
82630SOL    HW149664  11.732   5.368   1.276
82630SOL    HW249665  11.720   5.481   1.176
82631SOL     OW49666  13.213   9.116   1.100
82631SOL    HW149667  13.231   9.207   1.123
82631SOL    HW249668  13.263   9.101   1.020
82632SOL     OW49669  10.064   9.111   9.325
82632SOL    HW149670  10.019   9.047   9.268
82632SOL    HW249671  10.152   9.075   9.335
82633SOL     OW49672  14.005   8.328  12.844
82633SOL    HW149673  13.945   8.281  12.901
82633SOL    HW249674  14.006   8.277  12.763
82634SOL     OW49675   7.965   6.725   4.542
82634SOL    HW149676   7.962   6.725   4.447
82634SOL    HW249677   7.934   6.638   4.567
82635SOL     OW49678   9.291  10.554   3.282
82635SOL    HW149679   9.355  10.499   3.327
82635SOL    HW249680   9.209  10.504   3.286
82636SOL     OW49681  12.283  12.730   7.353
82636SOL    HW149682  12.272  12.654   7.297
82636SOL    HW249683  12.201  12.779   7.344
82637SOL     OW49684   7.374  13.341   2.628
82637SOL    HW149685   7.380  13.297   2.543
82637SOL    HW249686   7.439  13.297   2.682
82638SOL     OW49687   0.718  11.524   3.907
82638SOL    HW149688   0.735  11.439   3.949
82638SOL    HW249689   0.625  11.521   3.885
82639SOL     OW49690  14.569   2.721   6.445
82639SOL    HW149691  14.583   2.646   6.502
82639SOL    HW249692  14.559   2.795   6.505
82640SOL     OW49693   9.409   4.694   0.813
82640SOL    HW149694   9.336   4.666   0.757
82640SOL    HW249695   9.367   4.739   0.886
82641SOL     OW49696  11.415  10.307   0.304
82641SOL    HW149697  11.384  10.388   0.263
82641SOL    HW249698  11.497  10.288   0.257
82642SOL     OW49699   0.407   5.689  12.179
82642SOL    HW149700   0.395   5.692  12.084
82642SOL    HW249701   0.348   5.620  12.209
82643SOL     OW49702  11.469   4.504   6.804
82643SOL    HW149703  11.434   4.532   6.889
82643SOL    HW249704  11.433   4.568   6.742
82644SOL     OW49705   9.493  14.323  11.650
82644SOL    HW149706   9.509  14.274  11.731
82644SOL    HW249707   9.467  14.410  11.680
82645SOL     OW49708  10.106  13.210   8.288
82645SOL    HW149709  10.079  13.297   8.257
82645SOL    HW249710  10.201  13.210   8.278
82646SOL     OW49711   9.222  11.783   8.732
82646SOL    HW149712   9.142  11.744   8.767
82646SOL    HW249713   9.226  11.869   8.774
82647SOL     OW49714   0.089   9.563   0.006
82647SOL    HW149715   0.156   9.501  14.857
82647SOL    HW249716   0.013   9.508   0.027
82648SOL     OW49717   3.721   1.612   6.110
82648SOL    HW149718   3.734   1.577   6.021
82648SOL    HW249719   3.806   1.598   6.152
82649SOL     OW49720  10.532   5.118   6.486
82649SOL    HW149721  10.568   5.053   6.426
82649SOL    HW249722  10.497   5.186   6.429
82650SOL     OW49723  14.422  10.718   3.980
82650SOL    HW149724  14.391  10.806   4.000
82650SOL    HW249725  14.408  10.708   3.886
82651SOL     OW49726  11.891   6.286   9.837
82651SOL    HW149727  11.903   6.280   9.932
82651SOL    HW249728  11.828   6.357   9.824
82652SOL     OW49729   6.128   2.035   2.997
82652SOL    HW149730   6.215   2.075   2.991
82652SOL    HW249731   6.076   2.098   3.047
82653SOL     OW49732   9.492   5.896   4.738
82653SOL    HW149733   9.498   5.844   4.657
82653SOL    HW249734   9.491   5.830   4.808
82654SOL     OW49735  13.067   9.061   0.458
82654SOL    HW149736  12.981   9.072   0.418
82654SOL    HW249737  13.123   9.028   0.387
82655SOL     OW49738  14.771   7.833   0.575
82655SOL    HW149739  14.732   7.799   0.655
82655SOL    HW249740  14.773   7.757   0.516
82656SOL     OW49741   4.133   0.268   1.271
82656SOL    HW149742   4.206   0.259   1.332
82656SOL    HW249743   4.173   0.299   1.190
82657SOL     OW49744   1.225   3.504   6.494
82657SOL    HW149745   1.268   3.584   6.523
82657SOL    HW249746   1.143   3.502   6.545
82658SOL     OW49747   8.911   5.429  13.314
82658SOL    HW149748   8.881   5.440  13.224
82658SOL    HW249749   8.844   5.469  13.368
82659SOL     OW49750   3.942  12.410  10.315
82659SOL    HW149751   3.949  12.391  10.221
82659SOL    HW249752   4.012  12.360  10.355
82660SOL     OW49753   4.943  12.526  14.755
82660SOL    HW149754   4.999  12.564  14.822
82660SOL    HW249755   4.859  12.571  14.764
82661SOL     OW49756   0.885   7.499   2.044
82661SOL    HW149757   0.887   7.490   2.139
82661SOL    HW249758   0.792   7.496   2.021
82662SOL     OW49759  14.619  14.372   7.129
82662SOL    HW149760  14.666  14.454   7.112
82662SOL    HW249761  14.643  14.315   7.056
82663SOL     OW49762  13.467   3.355  14.727
82663SOL    HW149763  13.448   3.432  14.781
82663SOL    HW249764  13.481   3.390  14.639
82664SOL     OW49765   8.182   8.304   9.633
82664SOL    HW149766   8.247   8.240   9.661
82664SOL    HW249767   8.216   8.340   9.551
82665SOL     OW49768   8.005   5.577   3.934
82665SOL    HW149769   8.008   5.673   3.932
82665SOL    HW249770   7.929   5.557   3.989
82666SOL     OW49771   6.245   1.157   8.537
82666SOL    HW149772   6.334   1.131   8.516
82666SOL    HW249773   6.247   1.252   8.541
82667SOL     OW49774  14.653   8.914   9.904
82667SOL    HW149775  14.697   8.921   9.988
82667SOL    HW249776  14.584   8.981   9.907
82668SOL     OW49777   5.900  13.752  11.748
82668SOL    HW149778   5.968  13.816  11.730
82668SOL    HW249779   5.819  13.793  11.717
82669SOL     OW49780   6.653  11.445   9.298
82669SOL    HW149781   6.728  11.493   9.262
82669SOL    HW249782   6.689  11.397   9.373
82670SOL     OW49783   5.510   9.987  10.495
82670SOL    HW149784   5.491   9.893  10.487
82670SOL    HW249785   5.542   9.998  10.584
82671SOL     OW49786  14.856  13.506   1.583
82671SOL    HW149787  14.772  13.476   1.619
82671SOL    HW249788   0.009  13.571   1.645
82672SOL     OW49789  14.372   4.793  10.198
82672SOL    HW149790  14.394   4.810  10.289
82672SOL    HW249791  14.403   4.871  10.151
82673SOL     OW49792   6.202  13.246   6.425
82673SOL    HW149793   6.172  13.328   6.384
82673SOL    HW249794   6.292  13.264   6.450
82674SOL     OW49795   8.978  12.078  11.021
82674SOL    HW149796   9.038  12.152  11.014
82674SOL    HW249797   9.023  12.015  11.078
82675SOL     OW49798   3.461   2.001   9.516
82675SOL    HW149799   3.391   1.996   9.451
82675SOL    HW249800   3.479   2.094   9.524
82676SOL     OW49801   0.021   0.306  13.770
82676SOL    HW149802   0.065   0.348  13.696
82676SOL    HW249803   0.078   0.323  13.845
82677SOL     OW49804   3.879  13.438   6.997
82677SOL    HW149805   3.970  13.413   7.015
82677SOL    HW249806   3.833  13.423   7.079
82678SOL     OW49807   4.945  14.290   0.385
82678SOL    HW149808   4.909  14.304   0.473
82678SOL    HW249809   4.947  14.195   0.375
82679SOL     OW49810  13.981   0.232   0.033
82679SOL    HW149811  14.076   0.245   0.030
82679SOL    HW249812  13.970   0.137   0.039
82680SOL     OW49813   2.736   4.052   7.316
82680SOL    HW149814   2.785   3.971   7.330
82680SOL    HW249815   2.750   4.073   7.224
82681SOL     OW49816   9.450   0.468   8.145
82681SOL    HW149817   9.513   0.436   8.209
82681SOL    HW249818   9.408   0.389   8.111
82682SOL     OW49819   3.990   4.140   8.619
82682SOL    HW149820   4.056   4.176   8.677
82682SOL    HW249821   4.032   4.137   8.533
82683SOL     OW49822   5.906   9.650   2.906
82683SOL    HW149823   5.838   9.718   2.905
82683SOL    HW249824   5.975   9.684   2.850
82684SOL     OW49825   0.725   3.677   5.079
82684SOL    HW149826   0.766   3.712   5.000
82684SOL    HW249827   0.790   3.618   5.115
82685SOL     OW49828   5.696   1.814  10.919
82685SOL    HW149829   5.776   1.761  10.911
82685SOL    HW249830   5.728   1.903  10.933
82686SOL     OW49831   7.474   4.153   9.998
82686SOL    HW149832   7.420   4.078  10.024
82686SOL    HW249833   7.471   4.152   9.902
82687SOL     OW49834   5.056   0.628  11.568
82687SOL    HW149835   4.982   0.568  11.562
82687SOL    HW249836   5.062   0.668  11.481
82688SOL     OW49837   9.117   4.372   2.136
82688SOL    HW149838   9.181   4.311   2.098
82688SOL    HW249839   9.040   4.363   2.079
82689SOL     OW49840   0.562   9.014   7.539
82689SOL    HW149841   0.546   9.092   7.486
82689SOL    HW249842   0.553   8.941   7.479
82690SOL     OW49843   0.339   8.327   8.242
82690SOL    HW149844   0.351   8.378   8.161
82690SOL    HW249845   0.277   8.379   8.293
82691SOL     OW49846  14.500   7.430  14.748
82691SOL    HW149847  14.409   7.446  14.772
82691SOL    HW249848  14.539   7.390  14.825
82692SOL     OW49849   3.548   1.125   6.376
82692SOL    HW149850   3.565   1.181   6.300
82692SOL    HW249851   3.528   1.185   6.447
82693SOL     OW49852   0.135  10.568   8.648
82693SOL    HW149853   0.040  10.556   8.640
82693SOL    HW249854   0.172  10.523   8.573
82694SOL     OW49855  14.342  11.530   2.716
82694SOL    HW149856  14.312  11.462   2.656
82694SOL    HW249857  14.330  11.493   2.803
82695SOL     OW49858  12.741   1.594   4.425
82695SOL    HW149859  12.731   1.548   4.341
82695SOL    HW249860  12.827   1.566   4.457
82696SOL     OW49861  13.492   6.154  11.565
82696SOL    HW149862  13.497   6.183  11.656
82696SOL    HW249863  13.414   6.098  11.561
82697SOL     OW49864   1.285   6.039   2.683
82697SOL    HW149865   1.190   6.043   2.694
82697SOL    HW249866   1.300   5.964   2.625
82698SOL     OW49867  11.653   3.935   5.674
82698SOL    HW149868  11.638   3.994   5.748
82698SOL    HW249869  11.717   3.871   5.706
82699SOL     OW49870  14.648   7.410  10.665
82699SOL    HW149871  14.671   7.319  10.685
82699SOL    HW249872  14.570   7.428  10.717
82700SOL     OW49873   9.184   3.621   2.545
82700SOL    HW149874   9.230   3.691   2.593
82700SOL    HW249875   9.104   3.608   2.595
82701SOL     OW49876   2.739   3.685   6.566
82701SOL    HW149877   2.811   3.748   6.574
82701SOL    HW249878   2.701   3.703   6.481
82702SOL     OW49879   3.487  13.081   9.976
82702SOL    HW149880   3.417  13.025   9.944
82702SOL    HW249881   3.486  13.071  10.071
82703SOL     OW49882  10.912  14.836   1.756
82703SOL    HW149883  10.913  14.857   1.850
82703SOL    HW249884  10.969  14.760   1.747
82704SOL     OW49885   1.994   7.233  11.415
82704SOL    HW149886   1.937   7.156  11.416
82704SOL    HW249887   2.082   7.197  11.401
82705SOL     OW49888   9.081   5.023  12.072
82705SOL    HW149889   9.009   4.965  12.096
82705SOL    HW249890   9.039   5.095  12.025
82706SOL     OW49891   9.677  14.129  11.520
82706SOL    HW149892   9.581  14.130  11.525
82706SOL    HW249893   9.700  14.037  11.512
82707SOL     OW49894   3.482   8.795   8.027
82707SOL    HW149895   3.569   8.786   7.988
82707SOL    HW249896   3.466   8.890   8.026
82708SOL     OW49897   8.641   6.216  14.089
82708SOL    HW149898   8.600   6.292  14.050
82708SOL    HW249899   8.570   6.170  14.134
82709SOL     OW49900   6.959  14.233   9.315
82709SOL    HW149901   6.980  14.150   9.273
82709SOL    HW249902   7.021  14.240   9.387
82710SOL     OW49903   7.220   4.310   8.621
82710SOL    HW149904   7.191   4.254   8.549
82710SOL    HW249905   7.240   4.248   8.692
82711SOL     OW49906   1.751   5.749   7.667
82711SOL    HW149907   1.811   5.680   7.698
82711SOL    HW249908   1.756   5.816   7.734
82712SOL     OW49909   5.780  13.160  10.766
82712SOL    HW149910   5.774  13.137  10.859
82712SOL    HW249911   5.874  13.165  10.749
82713SOL     OW49912   2.600  12.392  12.407
82713SOL    HW149913   2.625  12.440  12.328
82713SOL    HW249914   2.590  12.461  12.474
82714SOL     OW49915  12.123   8.306   0.619
82714SOL    HW149916  12.144   8.389   0.662
82714SOL    HW249917  12.032   8.317   0.590
82715SOL     OW49918  12.839   8.383  11.094
82715SOL    HW149919  12.869   8.450  11.155
82715SOL    HW249920  12.913   8.372  11.034
82716SOL     OW49921   5.895  14.354  12.060
82716SOL    HW149922   5.939  14.320  11.983
82716SOL    HW249923   5.865  14.276  12.107
82717SOL     OW49924   2.324   9.261   8.579
82717SOL    HW149925   2.373   9.320   8.523
82717SOL    HW249926   2.270   9.319   8.633
82718SOL     OW49927   3.955   3.490   6.384
82718SOL    HW149928   3.893   3.433   6.338
82718SOL    HW249929   3.936   3.578   6.352
82719SOL     OW49930   5.699   3.614   0.932
82719SOL    HW149931   5.613   3.618   0.890
82719SOL    HW249932   5.757   3.662   0.872
82720SOL     OW49933  10.899   8.574   0.079
82720SOL    HW149934  10.920   8.485   0.106
82720SOL    HW249935  10.980   8.623   0.094
82721SOL     OW49936   6.251  13.118   2.114
82721SOL    HW149937   6.328  13.085   2.068
82721SOL    HW249938   6.262  13.088   2.205
82722SOL     OW49939   1.520   7.883   3.629
82722SOL    HW149940   1.458   7.865   3.558
82722SOL    HW249941   1.566   7.800   3.641
82723SOL     OW49942   2.944   5.435   3.575
82723SOL    HW149943   2.965   5.429   3.668
82723SOL    HW249944   2.868   5.378   3.564
82724SOL     OW49945   3.295   3.511  10.318
82724SOL    HW149946   3.277   3.602  10.342
82724SOL    HW249947   3.390   3.504  10.322
82725SOL     OW49948  11.085  12.901  14.077
82725SOL    HW149949  11.056  12.957  14.005
82725SOL    HW249950  11.178  12.885  14.060
82726SOL     OW49951  10.716   2.592  13.168
82726SOL    HW149952  10.788   2.538  13.136
82726SOL    HW249953  10.646   2.581  13.103
82727SOL     OW49954   8.678   3.795   2.247
82727SOL    HW149955   8.716   3.708   2.241
82727SOL    HW249956   8.627   3.805   2.167
82728SOL     OW49957   7.777   1.121  10.278
82728SOL    HW149958   7.764   1.030  10.306
82728SOL    HW249959   7.796   1.168  10.359
82729SOL     OW49960   4.143   5.576   4.878
82729SOL    HW149961   4.069   5.604   4.824
82729SOL    HW249962   4.208   5.545   4.815
82730SOL     OW49963   7.921   2.352   9.796
82730SOL    HW149964   7.841   2.400   9.816
82730SOL    HW249965   7.898   2.296   9.721
82731SOL     OW49966   9.155   7.125   1.141
82731SOL    HW149967   9.190   7.202   1.096
82731SOL    HW249968   9.233   7.079   1.173
82732SOL     OW49969   7.275   5.946   9.480
82732SOL    HW149970   7.338   5.884   9.519
82732SOL    HW249971   7.322   6.029   9.478
82733SOL     OW49972   7.151   9.317  13.706
82733SOL    HW149973   7.215   9.247  13.701
82733SOL    HW249974   7.140   9.345  13.615
82734SOL     OW49975   5.405   4.017  12.448
82734SOL    HW149976   5.493   3.981  12.444
82734SOL    HW249977   5.400   4.056  12.535
82735SOL     OW49978  10.798  14.181  13.737
82735SOL    HW149979  10.840  14.096  13.748
82735SOL    HW249980  10.707  14.167  13.763
82736SOL     OW49981  13.063  14.820  12.794
82736SOL    HW149982  13.142  14.765  12.791
82736SOL    HW249983  13.059  14.861  12.708
82737SOL     OW49984   1.839   5.918   2.495
82737SOL    HW149985   1.895   5.995   2.504
82737SOL    HW249986   1.754   5.947   2.526
82738SOL     OW49987   2.394   1.610   6.927
82738SOL    HW149988   2.305   1.623   6.895
82738SOL    HW249989   2.428   1.539   6.872
82739SOL     OW49990   5.157   5.848   7.635
82739SOL    HW149991   5.174   5.941   7.644
82739SOL    HW249992   5.189   5.825   7.548
82740SOL     OW49993   1.603   8.356   8.792
82740SOL    HW149994   1.626   8.263   8.789
82740SOL    HW249995   1.532   8.365   8.728
82741SOL     OW49996   6.873  14.322  14.816
82741SOL    HW149997   6.831  14.238  14.838
82741SOL    HW249998   6.963  14.313  14.849
82742SOL     OW49999   4.190   3.198   2.035
82742SOL    HW150000   4.129   3.139   1.990
82742SOL    HW250001   4.209   3.155   2.118
82743SOL     OW50002  12.678   0.144  12.346
82743SOL    HW150003  12.632   0.084  12.405
82743SOL    HW250004  12.745   0.089  12.304
82744SOL     OW50005   0.121  13.478   7.710
82744SOL    HW150006   0.094  13.534   7.783
82744SOL    HW250007   0.209  13.507   7.689
82745SOL     OW50008   3.422  11.662   2.214
82745SOL    HW150009   3.344  11.672   2.270
82745SOL    HW250010   3.427  11.744   2.165
82746SOL     OW50011  14.851  12.774  12.636
82746SOL    HW150012  14.813  12.830  12.704
82746SOL    HW250013   0.063  12.805  12.627
82747SOL     OW50014   5.881   7.391   1.415
82747SOL    HW150015   5.815   7.341   1.464
82747SOL    HW250016   5.884   7.475   1.459
82748SOL     OW50017  12.878   0.955   4.718
82748SOL    HW150018  12.856   0.864   4.735
82748SOL    HW250019  12.944   0.952   4.648
82749SOL     OW50020   7.008   4.853   2.681
82749SOL    HW150021   6.966   4.931   2.645
82749SOL    HW250022   7.097   4.855   2.646
82750SOL     OW50023   2.894  10.680  12.039
82750SOL    HW150024   2.967  10.666  12.099
82750SOL    HW250025   2.931  10.728  11.966
82751SOL     OW50026  14.601   4.247   0.545
82751SOL    HW150027  14.688   4.214   0.569
82751SOL    HW250028  14.550   4.240   0.625
82752SOL     OW50029   8.913   0.270   1.828
82752SOL    HW150030   8.986   0.319   1.793
82752SOL    HW250031   8.942   0.178   1.826
82753SOL     OW50032   4.571   3.645   5.955
82753SOL    HW150033   4.638   3.624   5.890
82753SOL    HW250034   4.495   3.672   5.903
82754SOL     OW50035   2.734   2.843   1.000
82754SOL    HW150036   2.681   2.914   0.964
82754SOL    HW250037   2.726   2.853   1.095
82755SOL     OW50038  11.203   4.041   6.575
82755SOL    HW150039  11.210   4.127   6.533
82755SOL    HW250040  11.291   4.022   6.606
82756SOL     OW50041  11.033  10.052  10.119
82756SOL    HW150042  11.084  10.129  10.093
82756SOL    HW250043  10.953  10.089  10.158
82757SOL     OW50044   7.068   7.322   4.827
82757SOL    HW150045   7.115   7.386   4.880
82757SOL    HW250046   7.133   7.293   4.763
82758SOL     OW50047   6.354  14.129  13.354
82758SOL    HW150048   6.353  14.034  13.366
82758SOL    HW250049   6.366  14.142  13.260
82759SOL     OW50050   7.682   9.736   6.489
82759SOL    HW150051   7.709   9.673   6.422
82759SOL    HW250052   7.743   9.724   6.561
82760SOL     OW50053   0.976   9.665   8.051
82760SOL    HW150054   0.981   9.756   8.021
82760SOL    HW250055   0.947   9.672   8.142
82761SOL     OW50056   1.785   9.454   6.682
82761SOL    HW150057   1.818   9.463   6.771
82761SOL    HW250058   1.844   9.506   6.628
82762SOL     OW50059   2.959   0.030   9.480
82762SOL    HW150060   2.916   0.037   9.395
82762SOL    HW250061   2.940  14.819   9.509
82763SOL     OW50062   1.338   7.952   2.552
82763SOL    HW150063   1.379   7.879   2.598
82763SOL    HW250064   1.357   8.029   2.606
82764SOL     OW50065  14.380  11.803  10.286
82764SOL    HW150066  14.313  11.735  10.279
82764SOL    HW250067  14.388  11.839  10.198
82765SOL     OW50068   6.305   1.641   2.508
82765SOL    HW150069   6.358   1.614   2.433
82765SOL    HW250070   6.284   1.559   2.552
82766SOL     OW50071  14.186   5.973   2.133
82766SOL    HW150072  14.195   5.979   2.228
82766SOL    HW250073  14.098   6.005   2.115
82767SOL     OW50074  13.488  10.281   3.344
82767SOL    HW150075  13.543  10.358   3.335
82767SOL    HW250076  13.524  10.235   3.420
82768SOL     OW50077   8.186   7.502   1.177
82768SOL    HW150078   8.256   7.467   1.231
82768SOL    HW250079   8.217   7.589   1.150
82769SOL     OW50080   0.048  14.815   1.723
82769SOL    HW150081   0.106  14.839   1.650
82769SOL    HW250082   0.048  14.719   1.722
82770SOL     OW50083   2.274   6.164   4.325
82770SOL    HW150084   2.365   6.141   4.308
82770SOL    HW250085   2.267   6.167   4.420
82771SOL     OW50086   6.746  14.212  11.632
82771SOL    HW150087   6.729  14.261  11.552
82771SOL    HW250088   6.720  14.122  11.612
82772SOL     OW50089  14.399  13.104   4.609
82772SOL    HW150090  14.405  13.037   4.677
82772SOL    HW250091  14.307  13.101   4.581
82773SOL     OW50092   0.226  11.109   5.917
82773SOL    HW150093   0.300  11.065   5.959
82773SOL    HW250094   0.212  11.187   5.970
82774SOL     OW50095  10.922  10.471  10.876
82774SOL    HW150096  10.841  10.422  10.890
82774SOL    HW250097  10.894  10.555  10.840
82775SOL     OW50098  10.183  14.480   4.130
82775SOL    HW150099  10.184  14.576   4.133
82775SOL    HW250100  10.099  14.455   4.170
82776SOL     OW50101  14.494  13.274  14.702
82776SOL    HW150102  14.425  13.247  14.763
82776SOL    HW250103  14.525  13.358  14.738
82777SOL     OW50104   3.181   2.317   3.971
82777SOL    HW150105   3.106   2.269   3.936
82777SOL    HW250106   3.251   2.302   3.908
82778SOL     OW50107  11.929   0.814   9.898
82778SOL    HW150108  11.896   0.834   9.986
82778SOL    HW250109  11.934   0.899   9.855
82779SOL     OW50110   4.008   9.758   8.432
82779SOL    HW150111   3.925   9.806   8.429
82779SOL    HW250112   3.991   9.678   8.383
82780SOL     OW50113  12.530   2.015  11.273
82780SOL    HW150114  12.548   2.040  11.183
82780SOL    HW250115  12.455   1.956  11.268
82781SOL     OW50116   0.834   2.714   9.697
82781SOL    HW150117   0.855   2.726   9.789
82781SOL    HW250118   0.855   2.623   9.679
82782SOL     OW50119   9.354   4.256  11.538
82782SOL    HW150120   9.363   4.350  11.524
82782SOL    HW250121   9.264   4.245  11.569
82783SOL     OW50122   9.800   3.407   1.032
82783SOL    HW150123   9.868   3.362   0.982
82783SOL    HW250124   9.828   3.402   1.123
82784SOL     OW50125  11.434   2.076   4.380
82784SOL    HW150126  11.430   2.157   4.430
82784SOL    HW250127  11.343   2.045   4.377
82785SOL     OW50128  11.385   0.574   5.993
82785SOL    HW150129  11.450   0.516   6.032
82785SOL    HW250130  11.305   0.522   5.989
82786SOL     OW50131   4.724   8.758  13.321
82786SOL    HW150132   4.670   8.812  13.379
82786SOL    HW250133   4.804   8.809  13.308
82787SOL     OW50134  13.729  14.636   4.170
82787SOL    HW150135  13.705  14.691   4.244
82787SOL    HW250136  13.728  14.695   4.095
82788SOL     OW50137   8.249  13.751  12.746
82788SOL    HW150138   8.344  13.754  12.732
82788SOL    HW250139   8.233  13.818  12.812
82789SOL     OW50140  13.459   7.701   0.814
82789SOL    HW150141  13.406   7.715   0.736
82789SOL    HW250142  13.546   7.732   0.790
82790SOL     OW50143   1.380   8.462  12.131
82790SOL    HW150144   1.437   8.501  12.199
82790SOL    HW250145   1.438   8.451  12.055
82791SOL     OW50146   4.944   8.089   1.146
82791SOL    HW150147   4.873   8.097   1.210
82791SOL    HW250148   5.023   8.080   1.199
82792SOL     OW50149   4.234   0.232   5.627
82792SOL    HW150150   4.217   0.196   5.539
82792SOL    HW250151   4.315   0.282   5.617
82793SOL     OW50152  12.441   6.912   1.627
82793SOL    HW150153  12.434   7.005   1.605
82793SOL    HW250154  12.371   6.870   1.576
82794SOL     OW50155  11.178   1.106   8.865
82794SOL    HW150156  11.217   1.163   8.799
82794SOL    HW250157  11.083   1.116   8.851
82795SOL     OW50158   0.510  12.512   0.330
82795SOL    HW150159   0.596  12.546   0.304
82795SOL    HW250160   0.528  12.423   0.360
82796SOL     OW50161   1.682   5.298   2.711
82796SOL    HW150162   1.748   5.332   2.650
82796SOL    HW250163   1.731   5.276   2.790
82797SOL     OW50164   4.965   5.125  13.648
82797SOL    HW150165   5.035   5.143  13.710
82797SOL    HW250166   4.980   5.035  13.620
82798SOL     OW50167   2.718   8.885  12.538
82798SOL    HW150168   2.690   8.851  12.453
82798SOL    HW250169   2.647   8.942  12.566
82799SOL     OW50170   5.128  11.392  12.509
82799SOL    HW150171   5.060  11.373  12.444
82799SOL    HW250172   5.121  11.486  12.524
82800SOL     OW50173   1.886   7.181   2.124
82800SOL    HW150174   1.795   7.153   2.112
82800SOL    HW250175   1.933   7.100   2.144
82801SOL     OW50176   4.739   6.239   0.248
82801SOL    HW150177   4.798   6.175   0.288
82801SOL    HW250178   4.695   6.280   0.322
82802SOL     OW50179   0.929  10.963   9.913
82802SOL    HW150180   1.009  11.003   9.948
82802SOL    HW250181   0.870  10.957   9.989
82803SOL     OW50182  11.925   0.780   6.472
82803SOL    HW150183  12.002   0.798   6.526
82803SOL    HW250184  11.907   0.863   6.428
82804SOL     OW50185   3.671  11.809  10.009
82804SOL    HW150186   3.578  11.801   9.992
82804SOL    HW250187   3.706  11.851   9.930
82805SOL     OW50188  14.767   4.287  11.050
82805SOL    HW150189  14.809   4.331  11.124
82805SOL    HW250190  14.720   4.356  11.004
82806SOL     OW50191   8.947   3.592   0.402
82806SOL    HW150192   8.948   3.602   0.497
82806SOL    HW250193   8.943   3.682   0.369
82807SOL     OW50194   1.365  13.405   0.351
82807SOL    HW150195   1.409  13.488   0.336
82807SOL    HW250196   1.433  13.339   0.340
82808SOL     OW50197   8.939   7.998  14.770
82808SOL    HW150198   8.932   8.089  14.801
82808SOL    HW250199   8.924   8.005  14.675
82809SOL     OW50200  10.900  14.872   2.087
82809SOL    HW150201  10.842  14.875   2.163
82809SOL    HW250202  10.977  14.824   2.116
82810SOL     OW50203   1.680  11.964   6.493
82810SOL    HW150204   1.705  12.005   6.575
82810SOL    HW250205   1.746  11.995   6.430
82811SOL     OW50206   1.779  13.493   6.095
82811SOL    HW150207   1.730  13.564   6.137
82811SOL    HW250208   1.871  13.515   6.109
82812SOL     OW50209   0.033  12.018   2.368
82812SOL    HW150210  14.836  12.077   2.371
82812SOL    HW250211   0.050  12.004   2.275
82813SOL     OW50212  14.016   6.332  11.591
82813SOL    HW150213  13.955   6.379  11.533
82813SOL    HW250214  14.005   6.240  11.567
82814SOL     OW50215  14.581   1.570   5.503
82814SOL    HW150216  14.631   1.546   5.580
82814SOL    HW250217  14.547   1.657   5.522
82815SOL     OW50218   9.526   7.429   6.216
82815SOL    HW150219   9.511   7.466   6.129
82815SOL    HW250220   9.489   7.493   6.277
82816SOL     OW50221   9.043  10.112   2.138
82816SOL    HW150222   8.992  10.178   2.186
82816SOL    HW250223   9.019  10.126   2.046
82817SOL     OW50224   5.733   1.362   7.029
82817SOL    HW150225   5.655   1.413   7.049
82817SOL    HW250226   5.728   1.345   6.935
82818SOL     OW50227  13.593  12.943   4.943
82818SOL    HW150228  13.658  12.911   4.881
82818SOL    HW250229  13.515  12.960   4.889
82819SOL     OW50230   2.712   5.593   1.581
82819SOL    HW150231   2.677   5.588   1.669
82819SOL    HW250232   2.648   5.548   1.526
82820SOL     OW50233  13.491   0.196  13.839
82820SOL    HW150234  13.511   0.181  13.746
82820SOL    HW250235  13.499   0.290  13.850
82821SOL     OW50236   0.322   0.676   6.580
82821SOL    HW150237   0.312   0.752   6.638
82821SOL    HW250238   0.239   0.671   6.533
82822SOL     OW50239   9.631   1.949   0.352
82822SOL    HW150240   9.565   1.931   0.284
82822SOL    HW250241   9.708   1.900   0.323
82823SOL     OW50242   8.833  11.075  13.153
82823SOL    HW150243   8.743  11.041  13.156
82823SOL    HW250244   8.828  11.149  13.092
82824SOL     OW50245   1.374   5.867   7.149
82824SOL    HW150246   1.329   5.785   7.128
82824SOL    HW250247   1.457   5.839   7.188
82825SOL     OW50248   3.405   6.194  14.204
82825SOL    HW150249   3.401   6.234  14.291
82825SOL    HW250250   3.494   6.210  14.174
82826SOL     OW50251   8.857  12.091   5.161
82826SOL    HW150252   8.891  12.163   5.109
82826SOL    HW250253   8.896  12.104   5.248
82827SOL     OW50254  12.849   7.610  12.137
82827SOL    HW150255  12.816   7.525  12.109
82827SOL    HW250256  12.844   7.665  12.059
82828SOL     OW50257   6.456  14.028   5.812
82828SOL    HW150258   6.402  14.078   5.750
82828SOL    HW250259   6.430  14.062   5.898
82829SOL     OW50260   1.713   6.865   0.323
82829SOL    HW150261   1.723   6.791   0.263
82829SOL    HW250262   1.623   6.859   0.354
82830SOL     OW50263   7.607   7.711  13.602
82830SOL    HW150264   7.612   7.752  13.688
82830SOL    HW250265   7.689   7.734  13.559
82831SOL     OW50266   3.312  11.760   3.935
82831SOL    HW150267   3.331  11.845   3.974
82831SOL    HW250268   3.292  11.703   4.009
82832SOL     OW50269   8.668   9.258   4.589
82832SOL    HW150270   8.583   9.216   4.576
82832SOL    HW250271   8.657   9.309   4.669
82833SOL     OW50272   8.137   2.637  11.599
82833SOL    HW150273   8.215   2.692  11.614
82833SOL    HW250274   8.161   2.583  11.523
82834SOL     OW50275   8.284  10.414  10.264
82834SOL    HW150276   8.347  10.393  10.195
82834SOL    HW250277   8.210  10.357  10.249
82835SOL     OW50278   3.205  10.444   9.079
82835SOL    HW150279   3.228  10.400   8.997
82835SOL    HW250280   3.126  10.399   9.109
82836SOL     OW50281   6.738   3.597   2.622
82836SOL    HW150282   6.684   3.527   2.659
82836SOL    HW250283   6.818   3.596   2.675
82837SOL     OW50284   6.859  10.249   3.056
82837SOL    HW150285   6.853  10.154   3.058
82837SOL    HW250286   6.803  10.275   2.983
82838SOL     OW50287   3.893  13.941  10.836
82838SOL    HW150288   3.841  13.995  10.777
82838SOL    HW250289   3.948  13.888  10.779
82839SOL     OW50290   0.080  11.944  10.709
82839SOL    HW150291   0.029  12.007  10.758
82839SOL    HW250292   0.088  11.982  10.621
82840SOL     OW50293   3.466   7.554  11.624
82840SOL    HW150294   3.433   7.472  11.661
82840SOL    HW250295   3.555   7.562  11.659
82841SOL     OW50296  14.829   6.400   3.430
82841SOL    HW150297  14.824   6.356   3.515
82841SOL    HW250298   0.013   6.347   3.380
82842SOL     OW50299   4.506   3.972   0.264
82842SOL    HW150300   4.563   4.013   0.199
82842SOL    HW250301   4.544   3.886   0.279
82843SOL     OW50302   1.534   0.885  12.294
82843SOL    HW150303   1.524   0.800  12.251
82843SOL    HW250304   1.527   0.866  12.388
82844SOL     OW50305  12.737   0.141  13.392
82844SOL    HW150306  12.750   0.231  13.362
82844SOL    HW250307  12.780   0.087  13.325
82845SOL     OW50308   8.083   3.066  11.748
82845SOL    HW150309   8.042   3.153  11.758
82845SOL    HW250310   8.012   3.005  11.765
82846SOL     OW50311   0.634   2.075   3.267
82846SOL    HW150312   0.689   2.007   3.307
82846SOL    HW250313   0.683   2.156   3.279
82847SOL     OW50314   3.425   0.316   5.276
82847SOL    HW150315   3.417   0.371   5.198
82847SOL    HW250316   3.435   0.227   5.242
82848SOL     OW50317   4.196   2.033   9.566
82848SOL    HW150318   4.224   2.044   9.657
82848SOL    HW250319   4.172   1.940   9.560
82849SOL     OW50320   1.089   5.462  12.507
82849SOL    HW150321   1.150   5.481  12.435
82849SOL    HW250322   1.139   5.405  12.566
82850SOL     OW50323  14.541  12.945   1.791
82850SOL    HW150324  14.485  12.931   1.716
82850SOL    HW250325  14.630  12.942   1.756
82851SOL     OW50326  14.536   3.390   3.771
82851SOL    HW150327  14.449   3.375   3.736
82851SOL    HW250328  14.566   3.470   3.728
82852SOL     OW50329  12.742   9.677  13.764
82852SOL    HW150330  12.681   9.678  13.838
82852SOL    HW250331  12.689   9.648  13.690
82853SOL     OW50332   7.801  12.490   0.473
82853SOL    HW150333   7.885  12.496   0.519
82853SOL    HW250334   7.798  12.569   0.418
82854SOL     OW50335   6.901   5.139   5.520
82854SOL    HW150336   6.842   5.068   5.544
82854SOL    HW250337   6.926   5.178   5.604
82855SOL     OW50338   0.473   7.578  11.649
82855SOL    HW150339   0.569   7.574  11.658
82855SOL    HW250340   0.443   7.490  11.670
82856SOL     OW50341  14.233   0.331   5.554
82856SOL    HW150342  14.301   0.348   5.489
82856SOL    HW250343  14.272   0.361   5.637
82857SOL     OW50344  10.085   9.402   4.061
82857SOL    HW150345  10.014   9.406   4.124
82857SOL    HW250346  10.076   9.316   4.020
82858SOL     OW50347   5.753  10.729  11.419
82858SOL    HW150348   5.760  10.644  11.462
82858SOL    HW250349   5.836  10.740  11.373
82859SOL     OW50350   5.022   6.946   8.914
82859SOL    HW150351   4.988   6.875   8.968
82859SOL    HW250352   4.945   6.982   8.870
82860SOL     OW50353   8.599  11.055   1.003
82860SOL    HW150354   8.610  10.976   0.949
82860SOL    HW250355   8.554  11.117   0.945
82861SOL     OW50356   9.523   7.962  13.964
82861SOL    HW150357   9.460   8.028  13.934
82861SOL    HW250358   9.608   7.996  13.934
82862SOL     OW50359  13.241   9.633   0.388
82862SOL    HW150360  13.253   9.635   0.483
82862SOL    HW250361  13.149   9.657   0.375
82863SOL     OW50362  14.259  11.571   0.286
82863SOL    HW150363  14.319  11.586   0.359
82863SOL    HW250364  14.299  11.499   0.236
82864SOL     OW50365   5.683   7.623  13.652
82864SOL    HW150366   5.715   7.683  13.720
82864SOL    HW250367   5.725   7.654  13.572
82865SOL     OW50368   2.127  14.642  11.442
82865SOL    HW150369   2.039  14.635  11.478
82865SOL    HW250370   2.158  14.551  11.435
82866SOL     OW50371   3.511  10.253   2.756
82866SOL    HW150372   3.511  10.207   2.840
82866SOL    HW250373   3.506  10.345   2.778
82867SOL     OW50374   3.305   0.276  14.745
82867SOL    HW150375   3.337   0.291  14.834
82867SOL    HW250376   3.297   0.181  14.739
82868SOL     OW50377  14.671  11.691   6.753
82868SOL    HW150378  14.622  11.613   6.780
82868SOL    HW250379  14.708  11.668   6.668
82869SOL     OW50380   3.265   0.604   1.425
82869SOL    HW150381   3.341   0.560   1.462
82869SOL    HW250382   3.254   0.682   1.480
82870SOL     OW50383   3.277   6.059  11.569
82870SOL    HW150384   3.335   5.990  11.601
82870SOL    HW250385   3.249   6.105  11.648
82871SOL     OW50386   4.378   0.184   5.343
82871SOL    HW150387   4.309   0.183   5.276
82871SOL    HW250388   4.416   0.096   5.339
82872SOL     OW50389   4.035   8.222   5.332
82872SOL    HW150390   4.098   8.171   5.282
82872SOL    HW250391   3.951   8.181   5.313
82873SOL     OW50392  11.799   6.397   1.900
82873SOL    HW150393  11.861   6.402   1.827
82873SOL    HW250394  11.765   6.486   1.908
82874SOL     OW50395  11.668   4.333  11.731
82874SOL    HW150396  11.676   4.307  11.823
82874SOL    HW250397  11.641   4.252  11.687
82875SOL     OW50398   8.558  11.322   3.788
82875SOL    HW150399   8.623  11.321   3.717
82875SOL    HW250400   8.570  11.407   3.830
82876SOL     OW50401  10.945  11.121   8.962
82876SOL    HW150402  10.864  11.145   8.917
82876SOL    HW250403  10.918  11.053   9.024
82877SOL     OW50404   7.228   4.095  12.702
82877SOL    HW150405   7.146   4.067  12.661
82877SOL    HW250406   7.220   4.190  12.710
82878SOL     OW50407   4.778   0.694  12.307
82878SOL    HW150408   4.729   0.656  12.381
82878SOL    HW250409   4.810   0.778  12.340
82879SOL     OW50410   3.669  12.120   4.493
82879SOL    HW150411   3.687  12.045   4.437
82879SOL    HW250412   3.746  12.127   4.549
82880SOL     OW50413   5.922   6.699   0.361
82880SOL    HW150414   5.839   6.669   0.326
82880SOL    HW250415   5.929   6.658   0.447
82881SOL     OW50416   6.969   0.083   6.804
82881SOL    HW150417   7.028   0.057   6.734
82881SOL    HW250418   6.906   0.011   6.810
82882SOL     OW50419   5.757  12.724   7.069
82882SOL    HW150420   5.669  12.688   7.081
82882SOL    HW250421   5.749  12.779   6.991
82883SOL     OW50422  11.789   6.259  10.358
82883SOL    HW150423  11.734   6.288  10.431
82883SOL    HW250424  11.858   6.208  10.400
82884SOL     OW50425   1.988  10.288   8.625
82884SOL    HW150426   2.026  10.374   8.639
82884SOL    HW250427   1.997  10.243   8.709
82885SOL     OW50428  13.606   9.850   2.320
82885SOL    HW150429  13.701   9.839   2.326
82885SOL    HW250430  13.573   9.821   2.406
82886SOL     OW50431  10.828   3.955  13.379
82886SOL    HW150432  10.840   3.943  13.474
82886SOL    HW250433  10.891   3.894  13.340
82887SOL     OW50434  13.715   0.688  12.013
82887SOL    HW150435  13.790   0.687  12.072
82887SOL    HW250436  13.640   0.708  12.069
82888SOL     OW50437   2.998   1.767   3.221
82888SOL    HW150438   2.954   1.683   3.234
82888SOL    HW250439   3.029   1.792   3.308
82889SOL     OW50440  12.961   0.317  13.568
82889SOL    HW150441  13.051   0.306  13.601
82889SOL    HW250442  12.948   0.243  13.509
82890SOL     OW50443   3.726  11.586   2.965
82890SOL    HW150444   3.792  11.517   2.953
82890SOL    HW250445   3.745  11.623   3.051
82891SOL     OW50446   5.355   8.376   8.002
82891SOL    HW150447   5.344   8.427   7.922
82891SOL    HW250448   5.305   8.296   7.987
82892SOL     OW50449  13.331   5.363   9.382
82892SOL    HW150450  13.346   5.455   9.362
82892SOL    HW250451  13.374   5.316   9.310
82893SOL     OW50452  11.762   0.194   8.133
82893SOL    HW150453  11.695   0.127   8.120
82893SOL    HW250454  11.804   0.170   8.216
82894SOL     OW50455   4.260   7.935   1.558
82894SOL    HW150456   4.221   8.021   1.543
82894SOL    HW250457   4.308   7.916   1.477
82895SOL     OW50458  12.346  13.254  14.484
82895SOL    HW150459  12.404  13.221  14.415
82895SOL    HW250460  12.258  13.241  14.450
82896SOL     OW50461   0.717   6.493   1.920
82896SOL    HW150462   0.653   6.478   1.989
82896SOL    HW250463   0.797   6.520   1.966
82897SOL     OW50464  12.505   5.255  14.616
82897SOL    HW150465  12.421   5.223  14.649
82897SOL    HW250466  12.515   5.213  14.530
82898SOL     OW50467  10.167   9.792   6.925
82898SOL    HW150468  10.142   9.879   6.957
82898SOL    HW250469  10.121   9.783   6.841
82899SOL     OW50470   7.901  12.035   0.911
82899SOL    HW150471   7.862  11.948   0.899
82899SOL    HW250472   7.849  12.074   0.981
82900SOL     OW50473  12.197   1.895  13.777
82900SOL    HW150474  12.116   1.923  13.734
82900SOL    HW250475  12.168   1.848  13.855
82901SOL     OW50476  11.135  11.788  13.650
82901SOL    HW150477  11.084  11.709  13.664
82901SOL    HW250478  11.071  11.859  13.646
82902SOL     OW50479  13.696  12.782   9.608
82902SOL    HW150480  13.783  12.812   9.583
82902SOL    HW250481  13.711  12.730   9.688
82903SOL     OW50482  10.695  11.018   5.105
82903SOL    HW150483  10.751  11.091   5.077
82903SOL    HW250484  10.628  11.012   5.037
82904SOL     OW50485   8.761   1.747   4.369
82904SOL    HW150486   8.791   1.776   4.456
82904SOL    HW250487   8.806   1.805   4.308
82905SOL     OW50488   1.556   9.887  12.192
82905SOL    HW150489   1.490   9.939  12.237
82905SOL    HW250490   1.508   9.847  12.119
82906SOL     OW50491   5.553  12.099   4.463
82906SOL    HW150492   5.576  12.146   4.383
82906SOL    HW250493   5.519  12.166   4.521
82907SOL     OW50494  11.421   9.790   1.774
82907SOL    HW150495  11.438   9.859   1.710
82907SOL    HW250496  11.456   9.824   1.856
82908SOL     OW50497   7.103   5.958  12.352
82908SOL    HW150498   7.187   5.912  12.348
82908SOL    HW250499   7.038   5.890  12.340
82909SOL     OW50500   9.751   9.103   8.983
82909SOL    HW150501   9.707   9.061   8.909
82909SOL    HW250502   9.808   9.035   9.019
82910SOL     OW50503   7.279  12.360   9.494
82910SOL    HW150504   7.316  12.319   9.572
82910SOL    HW250505   7.249  12.287   9.440
82911SOL     OW50506   9.189  14.255  14.725
82911SOL    HW150507   9.263  14.224  14.673
82911SOL    HW250508   9.112  14.218  14.683
82912SOL     OW50509   0.167   1.214   4.518
82912SOL    HW150510   0.149   1.229   4.611
82912SOL    HW250511   0.245   1.159   4.518
82913SOL     OW50512  10.100   8.399   5.086
82913SOL    HW150513  10.070   8.460   5.018
82913SOL    HW250514  10.022   8.381   5.138
82914SOL     OW50515  10.370   3.144  12.715
82914SOL    HW150516  10.389   3.232  12.747
82914SOL    HW250517  10.425   3.134  12.637
82915SOL     OW50518   7.496  14.472  13.021
82915SOL    HW150519   7.534  14.560  13.030
82915SOL    HW250520   7.462  14.470  12.931
82916SOL     OW50521  13.060   6.189   4.731
82916SOL    HW150522  13.003   6.254   4.771
82916SOL    HW250523  13.120   6.163   4.800
82917SOL     OW50524  11.817   2.484   9.874
82917SOL    HW150525  11.734   2.532   9.871
82917SOL    HW250526  11.793   2.394   9.849
82918SOL     OW50527  10.466  12.640   9.995
82918SOL    HW150528  10.529  12.635  10.067
82918SOL    HW250529  10.497  12.575   9.932
82919SOL     OW50530  11.837   3.240   9.553
82919SOL    HW150531  11.780   3.183   9.503
82919SOL    HW250532  11.869   3.304   9.490
82920SOL     OW50533  10.464   0.441   4.674
82920SOL    HW150534  10.441   0.433   4.766
82920SOL    HW250535  10.393   0.493   4.636
82921SOL     OW50536  14.682   4.242   5.571
82921SOL    HW150537  14.738   4.248   5.494
82921SOL    HW250538  14.617   4.176   5.548
82922SOL     OW50539   7.943   2.898   2.581
82922SOL    HW150540   7.883   2.824   2.571
82922SOL    HW250541   8.027   2.858   2.602
82923SOL     OW50542   9.728   1.308   8.828
82923SOL    HW150543   9.781   1.259   8.766
82923SOL    HW250544   9.652   1.253   8.843
82924SOL     OW50545   4.226   3.988  13.233
82924SOL    HW150546   4.191   3.952  13.315
82924SOL    HW250547   4.319   3.999  13.249
82925SOL     OW50548   4.477   4.842   7.977
82925SOL    HW150549   4.526   4.812   7.900
82925SOL    HW250550   4.507   4.933   7.990
82926SOL     OW50551  12.962  10.053   5.154
82926SOL    HW150552  12.934  10.025   5.241
82926SOL    HW250553  13.057  10.063   5.162
82927SOL     OW50554   9.313   4.113   0.814
82927SOL    HW150555   9.363   4.132   0.893
82927SOL    HW250556   9.300   4.199   0.773
82928SOL     OW50557   1.919   6.734  11.971
82928SOL    HW150558   1.918   6.752  11.877
82928SOL    HW250559   1.945   6.642  11.978
82929SOL     OW50560  13.715   9.843  11.390
82929SOL    HW150561  13.760   9.762  11.364
82929SOL    HW250562  13.728   9.902  11.315
82930SOL     OW50563  13.433  12.516   0.178
82930SOL    HW150564  13.455  12.463   0.254
82930SOL    HW250565  13.481  12.476   0.105
82931SOL     OW50566   2.012  12.866   5.052
82931SOL    HW150567   1.932  12.853   5.102
82931SOL    HW250568   2.076  12.810   5.095
82932SOL     OW50569  12.228   6.903   6.153
82932SOL    HW150570  12.218   6.858   6.069
82932SOL    HW250571  12.242   6.995   6.130
82933SOL     OW50572   6.803   7.969   3.621
82933SOL    HW150573   6.876   7.933   3.571
82933SOL    HW250574   6.768   8.039   3.565
82934SOL     OW50575   2.505   2.362   2.216
82934SOL    HW150576   2.536   2.402   2.135
82934SOL    HW250577   2.453   2.287   2.187
82935SOL     OW50578   6.738   0.695   3.950
82935SOL    HW150579   6.774   0.628   4.007
82935SOL    HW250580   6.799   0.699   3.876
82936SOL     OW50581   9.107   9.080   0.891
82936SOL    HW150582   9.067   9.158   0.928
82936SOL    HW250583   9.055   9.061   0.812
82937SOL     OW50584   0.108  10.827   5.462
82937SOL    HW150585   0.095  10.905   5.516
82937SOL    HW250586   0.032  10.771   5.482
82938SOL     OW50587   7.427   8.703  12.515
82938SOL    HW150588   7.444   8.619  12.472
82938SOL    HW250589   7.455   8.688  12.606
82939SOL     OW50590  13.742   8.500  10.357
82939SOL    HW150591  13.731   8.421  10.303
82939SOL    HW250592  13.659   8.546  10.349
82940SOL     OW50593  12.260  14.417   2.456
82940SOL    HW150594  12.351  14.401   2.481
82940SOL    HW250595  12.256  14.391   2.364
82941SOL     OW50596  10.542   2.489   0.146
82941SOL    HW150597  10.469   2.456   0.095
82941SOL    HW250598  10.502   2.537   0.218
82942SOL     OW50599  11.137  13.534   9.001
82942SOL    HW150600  11.120  13.440   9.012
82942SOL    HW250601  11.231  13.543   9.018
82943SOL     OW50602  13.570   8.395   0.634
82943SOL    HW150603  13.609   8.482   0.642
82943SOL    HW250604  13.476   8.412   0.633
82944SOL     OW50605   4.528  10.912  12.038
82944SOL    HW150606   4.605  10.914  11.981
82944SOL    HW250607   4.530  10.996  12.084
82945SOL     OW50608  14.435   4.170   5.223
82945SOL    HW150609  14.458   4.159   5.315
82945SOL    HW250610  14.357   4.116   5.211
82946SOL     OW50611  13.362  13.840   5.522
82946SOL    HW150612  13.349  13.745   5.515
82946SOL    HW250613  13.412  13.863   5.443
82947SOL     OW50614   8.235   1.846   4.021
82947SOL    HW150615   8.181   1.834   3.943
82947SOL    HW250616   8.315   1.887   3.990
82948SOL     OW50617   8.014   5.073   2.948
82948SOL    HW150618   8.015   5.122   3.030
82948SOL    HW250619   7.937   5.017   2.954
82949SOL     OW50620   2.925   6.589   0.363
82949SOL    HW150621   2.878   6.538   0.428
82949SOL    HW250622   2.857   6.636   0.315
82950SOL     OW50623   0.820   0.880   0.756
82950SOL    HW150624   0.756   0.952   0.755
82950SOL    HW250625   0.767   0.802   0.771
82951SOL     OW50626   0.737   7.155   8.189
82951SOL    HW150627   0.748   7.160   8.284
82951SOL    HW250628   0.643   7.145   8.176
82952SOL     OW50629   6.830  11.943  12.493
82952SOL    HW150630   6.846  11.924  12.585
82952SOL    HW250631   6.829  11.857  12.451
82953SOL     OW50632  13.958  14.818   5.708
82953SOL    HW150633  13.957   0.035   5.699
82953SOL    HW250634  13.981  14.802   5.800
82954SOL     OW50635   1.685  13.476  13.229
82954SOL    HW150636   1.718  13.390  13.256
82954SOL    HW250637   1.718  13.536  13.297
82955SOL     OW50638  12.530  12.650   0.326
82955SOL    HW150639  12.587  12.710   0.277
82955SOL    HW250640  12.495  12.704   0.397
82956SOL     OW50641   7.431  11.034  10.898
82956SOL    HW150642   7.336  11.030  10.909
82956SOL    HW250643   7.445  11.015  10.806
82957SOL     OW50644   3.580   1.794   3.626
82957SOL    HW150645   3.651   1.833   3.575
82957SOL    HW250646   3.500   1.820   3.580
82958SOL     OW50647  14.653   7.532  10.316
82958SOL    HW150648  14.678   7.578  10.236
82958SOL    HW250649  14.577   7.480  10.292
82959SOL     OW50650  13.489   2.347   9.437
82959SOL    HW150651  13.524   2.397   9.511
82959SOL    HW250652  13.413   2.302   9.473
82960SOL     OW50653   3.698   7.907   2.911
82960SOL    HW150654   3.699   7.918   2.816
82960SOL    HW250655   3.712   7.813   2.925
82961SOL     OW50656   3.887   9.509   5.407
82961SOL    HW150657   3.922   9.548   5.327
82961SOL    HW250658   3.961   9.462   5.446
82962SOL     OW50659   4.191   0.232  11.030
82962SOL    HW150660   4.274   0.216  10.986
82962SOL    HW250661   4.165   0.147  11.065
82963SOL     OW50662   3.936   3.435   8.236
82963SOL    HW150663   3.887   3.354   8.248
82963SOL    HW250664   3.993   3.418   8.161
82964SOL     OW50665  11.703   5.914   6.805
82964SOL    HW150666  11.799   5.910   6.805
82964SOL    HW250667  11.676   5.838   6.753
82965SOL     OW50668   2.420   8.474   9.420
82965SOL    HW150669   2.484   8.449   9.353
82965SOL    HW250670   2.348   8.413   9.408
82966SOL     OW50671   0.425   3.758   6.321
82966SOL    HW150672   0.512   3.740   6.358
82966SOL    HW250673   0.433   3.844   6.281
82967SOL     OW50674  11.670   4.585   3.970
82967SOL    HW150675  11.761   4.613   3.955
82967SOL    HW250676  11.674   4.535   4.051
82968SOL     OW50677   9.326  14.772  12.684
82968SOL    HW150678   9.395  14.733  12.630
82968SOL    HW250679   9.252  14.711  12.677
82969SOL     OW50680  10.527   1.434   3.908
82969SOL    HW150681  10.474   1.357   3.927
82969SOL    HW250682  10.558   1.464   3.994
82970SOL     OW50683  14.145   4.686   1.099
82970SOL    HW150684  14.162   4.611   1.041
82970SOL    HW250685  14.051   4.701   1.090
82971SOL     OW50686   9.178  14.141   7.760
82971SOL    HW150687   9.177  14.104   7.672
82971SOL    HW250688   9.086  14.141   7.787
82972SOL     OW50689   0.976  11.827   5.124
82972SOL    HW150690   0.938  11.875   5.197
82972SOL    HW250691   0.900  11.803   5.070
82973SOL     OW50692  11.726   3.288  13.226
82973SOL    HW150693  11.692   3.273  13.138
82973SOL    HW250694  11.686   3.219  13.279
82974SOL     OW50695  12.889  13.723   0.509
82974SOL    HW150696  12.948  13.701   0.580
82974SOL    HW250697  12.805  13.686   0.535
82975SOL     OW50698   9.202  10.457  10.514
82975SOL    HW150699   9.131  10.394  10.503
82975SOL    HW250700   9.167  10.523  10.573
82976SOL     OW50701  10.142   8.401  13.880
82976SOL    HW150702  10.111   8.427  13.966
82976SOL    HW250703  10.064   8.404  13.824
82977SOL     OW50704  12.332   7.868   3.856
82977SOL    HW150705  12.382   7.888   3.777
82977SOL    HW250706  12.250   7.831   3.823
82978SOL     OW50707   5.655  10.745   7.564
82978SOL    HW150708   5.637  10.836   7.540
82978SOL    HW250709   5.720  10.715   7.501
82979SOL     OW50710   4.892  10.438  12.597
82979SOL    HW150711   4.819  10.392  12.639
82979SOL    HW250712   4.871  10.531  12.607
82980SOL     OW50713  12.069  12.050  13.707
82980SOL    HW150714  12.135  11.998  13.753
82980SOL    HW250715  12.076  12.137  13.745
82981SOL     OW50716  13.073   4.767  14.651
82981SOL    HW150717  12.986   4.727  14.652
82981SOL    HW250718  13.117   4.731  14.727
82982SOL     OW50719   7.223  14.698   5.017
82982SOL    HW150720   7.276  14.657   5.085
82982SOL    HW250721   7.136  14.707   5.057
82983SOL     OW50722  12.487   4.303   5.068
82983SOL    HW150723  12.458   4.295   4.978
82983SOL    HW250724  12.445   4.382   5.100
82984SOL     OW50725   1.624  14.234  11.328
82984SOL    HW150726   1.657  14.183  11.254
82984SOL    HW250727   1.536  14.201  11.343
82985SOL     OW50728   6.943   6.679  13.825
82985SOL    HW150729   6.983   6.593  13.832
82985SOL    HW250730   6.878   6.682  13.896
82986SOL     OW50731   8.903   7.413  11.860
82986SOL    HW150732   8.962   7.339  11.851
82986SOL    HW250733   8.825   7.387  11.811
82987SOL     OW50734   9.367   6.004   8.805
82987SOL    HW150735   9.454   6.026   8.772
82987SOL    HW250736   9.349   5.918   8.767
82988SOL     OW50737  14.477  14.479   6.820
82988SOL    HW150738  14.541  14.411   6.798
82988SOL    HW250739  14.525  14.540   6.877
82989SOL     OW50740   8.995   2.319   4.127
82989SOL    HW150741   8.928   2.290   4.065
82989SOL    HW250742   9.077   2.318   4.076
82990SOL     OW50743  13.153   9.034   4.435
82990SOL    HW150744  13.067   9.033   4.478
82990SOL    HW250745  13.149   8.960   4.374
82991SOL     OW50746   5.505  11.497  10.777
82991SOL    HW150747   5.586  11.473  10.823
82991SOL    HW250748   5.439  11.500  10.846
82992SOL     OW50749   1.195   1.010   5.779
82992SOL    HW150750   1.220   0.954   5.853
82992SOL    HW250751   1.204   1.099   5.812
82993SOL     OW50752   9.466  10.768  14.473
82993SOL    HW150753   9.385  10.811  14.447
82993SOL    HW250754   9.532  10.838  14.470
82994SOL     OW50755  11.832  13.603   0.170
82994SOL    HW150756  11.767  13.539   0.200
82994SOL    HW250757  11.844  13.661   0.246
82995SOL     OW50758   4.789   5.365   2.435
82995SOL    HW150759   4.766   5.272   2.432
82995SOL    HW250760   4.739   5.400   2.509
82996SOL     OW50761  12.664   0.419  12.522
82996SOL    HW150762  12.710   0.364  12.458
82996SOL    HW250763  12.580   0.376  12.534
82997SOL     OW50764   9.224   2.821   2.125
82997SOL    HW150765   9.181   2.789   2.046
82997SOL    HW250766   9.316   2.799   2.112
82998SOL     OW50767   1.636   8.614   8.628
82998SOL    HW150768   1.653   8.532   8.673
82998SOL    HW250769   1.703   8.619   8.559
82999SOL     OW50770   2.828   8.373   9.231
82999SOL    HW150771   2.739   8.404   9.210
82999SOL    HW250772   2.844   8.303   9.167
83000SOL     OW50773  13.724  12.017   0.428
83000SOL    HW150774  13.637  11.983   0.404
83000SOL    HW250775  13.709  12.066   0.509
83001SOL     OW50776  13.401   8.044   9.063
83001SOL    HW150777  13.309   8.053   9.084
83001SOL    HW250778  13.414   7.950   9.048
83002SOL     OW50779   8.400   7.547   2.371
83002SOL    HW150780   8.439   7.555   2.284
83002SOL    HW250781   8.355   7.462   2.370
83003SOL     OW50782  12.549  10.702   5.053
83003SOL    HW150783  12.479  10.640   5.073
83003SOL    HW250784  12.629  10.650   5.052
83004SOL     OW50785  13.469   4.842  14.101
83004SOL    HW150786  13.412   4.916  14.119
83004SOL    HW250787  13.479   4.798  14.185
83005SOL     OW50788   6.222   7.703  11.494
83005SOL    HW150789   6.288   7.729  11.430
83005SOL    HW250790   6.178   7.785  11.517
83006SOL     OW50791  11.641   3.527   3.175
83006SOL    HW150792  11.730   3.553   3.201
83006SOL    HW250793  11.628   3.569   3.090
83007SOL     OW50794  14.251  10.952  13.500
83007SOL    HW150795  14.310  10.893  13.546
83007SOL    HW250796  14.169  10.947  13.549
83008SOL     OW50797   3.933  14.794   5.664
83008SOL    HW150798   3.838  14.780   5.671
83008SOL    HW250799   3.964  14.793   5.755
83009SOL     OW50800  11.373  13.875   3.601
83009SOL    HW150801  11.305  13.916   3.547
83009SOL    HW250802  11.425  13.825   3.539
83010SOL     OW50803  10.443  11.015   1.206
83010SOL    HW150804  10.433  10.956   1.132
83010SOL    HW250805  10.354  11.044   1.227
83011SOL     OW50806   4.371  12.035   3.721
83011SOL    HW150807   4.368  11.945   3.752
83011SOL    HW250808   4.463  12.049   3.698
83012SOL     OW50809   7.254   9.265  11.190
83012SOL    HW150810   7.306   9.325  11.138
83012SOL    HW250811   7.223   9.318  11.264
83013SOL     OW50812   1.143   7.416   4.117
83013SOL    HW150813   1.139   7.470   4.038
83013SOL    HW250814   1.084   7.343   4.099
83014SOL     OW50815   3.481   4.231   5.000
83014SOL    HW150816   3.434   4.307   5.033
83014SOL    HW250817   3.509   4.184   5.079
83015SOL     OW50818  14.856   9.463   2.344
83015SOL    HW150819  14.779   9.408   2.336
83015SOL    HW250820   0.020   9.436   2.426
83016SOL     OW50821  10.232   2.899   8.230
83016SOL    HW150822  10.203   2.900   8.139
83016SOL    HW250823  10.282   2.818   8.238
83017SOL     OW50824   6.964  10.400   9.903
83017SOL    HW150825   6.882  10.394   9.853
83017SOL    HW250826   7.030  10.421   9.837
83018SOL     OW50827  10.757   7.932   1.022
83018SOL    HW150828  10.768   7.991   1.096
83018SOL    HW250829  10.800   7.976   0.949
83019SOL     OW50830  12.692  10.684   1.267
83019SOL    HW150831  12.640  10.641   1.200
83019SOL    HW250832  12.716  10.769   1.229
83020SOL     OW50833  13.081   9.362   2.875
83020SOL    HW150834  13.166   9.375   2.918
83020SOL    HW250835  13.100   9.373   2.782
83021SOL     OW50836  10.579  11.082   0.077
83021SOL    HW150837  10.489  11.050   0.085
83021SOL    HW250838  10.591  11.098  14.861
83022SOL     OW50839   2.181   8.239   4.288
83022SOL    HW150840   2.240   8.168   4.312
83022SOL    HW250841   2.144   8.270   4.370
83023SOL     OW50842   8.715  12.710   1.576
83023SOL    HW150843   8.744  12.710   1.667
83023SOL    HW250844   8.621  12.694   1.580
83024SOL     OW50845   2.124   6.378  12.750
83024SOL    HW150846   2.070   6.449  12.716
83024SOL    HW250847   2.142   6.324  12.673
83025SOL     OW50848  11.997   3.623  12.694
83025SOL    HW150849  12.004   3.556  12.625
83025SOL    HW250850  12.034   3.581  12.771
83026SOL     OW50851  13.593   9.738   4.436
83026SOL    HW150852  13.622   9.660   4.388
83026SOL    HW250853  13.497   9.733   4.433
83027SOL     OW50854   9.953  12.061   5.095
83027SOL    HW150855  10.012  12.135   5.108
83027SOL    HW250856   9.924  12.038   5.184
83028SOL     OW50857   3.907   4.221   2.693
83028SOL    HW150858   3.872   4.157   2.755
83028SOL    HW250859   3.914   4.174   2.610
83029SOL     OW50860   2.626   7.013  10.988
83029SOL    HW150861   2.581   7.094  10.966
83029SOL    HW250862   2.642   7.019  11.082
83030SOL     OW50863   9.675  10.984   0.631
83030SOL    HW150864   9.643  10.898   0.603
83030SOL    HW250865   9.727  10.966   0.709
83031SOL     OW50866   0.798   7.148   8.872
83031SOL    HW150867   0.720   7.143   8.928
83031SOL    HW250868   0.776   7.093   8.797
83032SOL     OW50869   1.063  10.276  10.476
83032SOL    HW150870   1.062  10.361  10.520
83032SOL    HW250871   1.005  10.221  10.529
83033SOL     OW50872  12.479   4.426  10.068
83033SOL    HW150873  12.425   4.379  10.005
83033SOL    HW250874  12.520   4.356  10.120
83034SOL     OW50875   9.612  11.001  14.519
83034SOL    HW150876   9.707  11.002  14.525
83034SOL    HW250877   9.586  11.091  14.539
83035SOL     OW50878   0.103   6.873   6.818
83035SOL    HW150879   0.181   6.824   6.844
83035SOL    HW250880   0.036   6.846   6.880
83036SOL     OW50881  12.479   6.103   6.989
83036SOL    HW150882  12.404   6.126   7.044
83036SOL    HW250883  12.553   6.098   7.049
83037SOL     OW50884   1.831   1.730  14.846
83037SOL    HW150885   1.833   1.684  14.762
83037SOL    HW250886   1.814   1.821  14.823
83038SOL     OW50887   1.828   3.492   1.548
83038SOL    HW150888   1.923   3.488   1.557
83038SOL    HW250889   1.809   3.583   1.525
83039SOL     OW50890  11.378   1.877   8.927
83039SOL    HW150891  11.357   1.970   8.920
83039SOL    HW250892  11.467   1.870   8.893
83040SOL     OW50893   8.509  13.660   1.920
83040SOL    HW150894   8.599  13.652   1.889
83040SOL    HW250895   8.478  13.570   1.929
83041SOL     OW50896   5.174   0.207  12.508
83041SOL    HW150897   5.123   0.144  12.559
83041SOL    HW250898   5.110   0.245  12.447
83042SOL     OW50899   0.429   1.951  14.590
83042SOL    HW150900   0.477   1.920  14.667
83042SOL    HW250901   0.389   1.873  14.552
83043SOL     OW50902  11.489   9.238  13.300
83043SOL    HW150903  11.468   9.209  13.211
83043SOL    HW250904  11.565   9.185  13.325
83044SOL     OW50905  13.075   4.147   6.307
83044SOL    HW150906  13.050   4.083   6.374
83044SOL    HW250907  13.127   4.212   6.354
83045SOL     OW50908   3.777  13.470   7.751
83045SOL    HW150909   3.824  13.439   7.828
83045SOL    HW250910   3.777  13.395   7.691
83046SOL     OW50911   3.800   8.564   0.895
83046SOL    HW150912   3.757   8.481   0.914
83046SOL    HW250913   3.782   8.618   0.973
83047SOL     OW50914  11.513  14.738   0.898
83047SOL    HW150915  11.428  14.775   0.876
83047SOL    HW250916  11.557  14.805   0.950
83048SOL     OW50917   9.247  10.817   8.447
83048SOL    HW150918   9.326  10.770   8.420
83048SOL    HW250919   9.241  10.802   8.541
83049SOL     OW50920   1.827   3.181   6.547
83049SOL    HW150921   1.876   3.212   6.624
83049SOL    HW250922   1.827   3.086   6.555
83050SOL     OW50923  10.779   5.349   7.251
83050SOL    HW150924  10.823   5.431   7.231
83050SOL    HW250925  10.836   5.305   7.314
83051SOL     OW50926   7.485   0.868  10.351
83051SOL    HW150927   7.577   0.848  10.365
83051SOL    HW250928   7.446   0.786  10.320
83052SOL     OW50929   0.617   6.457  14.193
83052SOL    HW150930   0.680   6.420  14.130
83052SOL    HW250931   0.532   6.424  14.163
83053SOL     OW50932  11.105  10.659   3.694
83053SOL    HW150933  11.178  10.664   3.756
83053SOL    HW250934  11.134  10.708   3.618
83054SOL     OW50935   6.244   9.389  11.600
83054SOL    HW150936   6.299   9.423  11.671
83054SOL    HW250937   6.225   9.298  11.626
83055SOL     OW50938   3.946   9.837  14.069
83055SOL    HW150939   3.909   9.891  14.140
83055SOL    HW250940   4.040   9.834  14.088
83056SOL     OW50941  13.677  11.854  13.961
83056SOL    HW150942  13.639  11.890  13.881
83056SOL    HW250943  13.756  11.809  13.932
83057SOL     OW50944   2.773   8.692   2.463
83057SOL    HW150945   2.818   8.615   2.499
83057SOL    HW250946   2.684   8.687   2.498
83058SOL     OW50947  10.884   2.101   8.670
83058SOL    HW150948  10.921   2.151   8.598
83058SOL    HW250949  10.895   2.009   8.643
83059SOL     OW50950  10.739  11.569   6.425
83059SOL    HW150951  10.719  11.582   6.332
83059SOL    HW250952  10.806  11.500   6.425
83060SOL     OW50953   4.940   2.536   0.009
83060SOL    HW150954   5.027   2.506   0.035
83060SOL    HW250955   4.907   2.583   0.086
83061SOL     OW50956   9.286  10.249  12.482
83061SOL    HW150957   9.337  10.245  12.562
83061SOL    HW250958   9.207  10.298  12.506
83062SOL     OW50959   8.129   3.977   7.910
83062SOL    HW150960   8.162   4.066   7.894
83062SOL    HW250961   8.207   3.927   7.933
83063SOL     OW50962   8.347  14.681   6.019
83063SOL    HW150963   8.436  14.669   6.050
83063SOL    HW250964   8.350  14.659   5.925
83064SOL     OW50965   3.569   3.498   9.558
83064SOL    HW150966   3.559   3.481   9.464
83064SOL    HW250967   3.647   3.449   9.583
83065SOL     OW50968  10.810  11.832  13.434
83065SOL    HW150969  10.799  11.864  13.345
83065SOL    HW250970  10.861  11.901  13.478
83066SOL     OW50971   1.842   3.262  11.831
83066SOL    HW150972   1.775   3.310  11.783
83066SOL    HW250973   1.850   3.179  11.784
83067SOL     OW50974  12.554   4.018   0.887
83067SOL    HW150975  12.466   3.989   0.908
83067SOL    HW250976  12.559   4.011   0.791
83068SOL     OW50977  13.372  11.510   1.985
83068SOL    HW150978  13.316  11.434   2.000
83068SOL    HW250979  13.455  11.487   2.026
83069SOL     OW50980   3.469  11.277   9.191
83069SOL    HW150981   3.419  11.267   9.272
83069SOL    HW250982   3.408  11.250   9.122
83070SOL     OW50983   0.754  10.465   1.119
83070SOL    HW150984   0.747  10.394   1.183
83070SOL    HW250985   0.815  10.527   1.158
83071SOL     OW50986  12.627   7.889   2.384
83071SOL    HW150987  12.688   7.948   2.429
83071SOL    HW250988  12.559   7.947   2.349
83072SOL     OW50989   3.905  13.065  12.952
83072SOL    HW150990   3.926  13.071  12.859
83072SOL    HW250991   3.982  13.101  12.997
83073SOL     OW50992   3.089   5.537  14.011
83073SOL    HW150993   3.110   5.445  14.025
83073SOL    HW250994   3.062   5.541  13.919
83074SOL     OW50995   9.506   6.026   7.667
83074SOL    HW150996   9.499   6.048   7.760
83074SOL    HW250997   9.415   6.009   7.640
83075SOL     OW50998  14.088  10.773  10.535
83075SOL    HW150999  14.077  10.723  10.454
83075SOL    HW251000  14.094  10.707  10.604
83076SOL     OW51001  12.878  12.897   9.014
83076SOL    HW151002  12.787  12.909   9.040
83076SOL    HW251003  12.908  12.822   9.065
83077SOL     OW51004   8.625   1.606   7.283
83077SOL    HW151005   8.694   1.595   7.218
83077SOL    HW251006   8.548   1.634   7.233
83078SOL     OW51007   6.177   8.988   2.971
83078SOL    HW151008   6.092   8.998   2.930
83078SOL    HW251009   6.239   9.026   2.908
83079SOL     OW51010   3.596   7.424   4.619
83079SOL    HW151011   3.651   7.359   4.575
83079SOL    HW251012   3.605   7.405   4.712
83080SOL     OW51013   4.694   5.842   1.139
83080SOL    HW151014   4.707   5.860   1.046
83080SOL    HW251015   4.767   5.885   1.183
83081SOL     OW51016   9.052   3.589   9.496
83081SOL    HW151017   9.144   3.570   9.514
83081SOL    HW251018   9.035   3.548   9.412
83082SOL     OW51019   0.554  14.710   8.864
83082SOL    HW151020   0.533  14.803   8.874
83082SOL    HW251021   0.469  14.666   8.861
83083SOL     OW51022   1.796   2.908   1.665
83083SOL    HW151023   1.750   2.985   1.699
83083SOL    HW251024   1.802   2.922   1.571
83084SOL     OW51025  11.165   4.218  10.968
83084SOL    HW151026  11.095   4.153  10.959
83084SOL    HW251027  11.222   4.203  10.892
83085SOL     OW51028   2.375   5.542   3.588
83085SOL    HW151029   2.389   5.458   3.631
83085SOL    HW251030   2.463   5.577   3.575
83086SOL     OW51031  11.852  12.029   5.310
83086SOL    HW151032  11.871  12.122   5.304
83086SOL    HW251033  11.869  12.006   5.401
83087SOL     OW51034   0.948   5.501   7.980
83087SOL    HW151035   0.959   5.424   7.924
83087SOL    HW251036   1.004   5.568   7.941
83088SOL     OW51037   6.370   6.026   9.948
83088SOL    HW151038   6.387   6.045   9.856
83088SOL    HW251039   6.275   6.030   9.957
83089SOL     OW51040   1.416   6.345  11.435
83089SOL    HW151041   1.408   6.253  11.460
83089SOL    HW251042   1.442   6.343  11.343
83090SOL     OW51043   3.502  13.520   0.359
83090SOL    HW151044   3.457  13.486   0.436
83090SOL    HW251045   3.552  13.445   0.326
83091SOL     OW51046  14.585  12.771   4.449
83091SOL    HW151047  14.556  12.761   4.540
83091SOL    HW251048  14.652  12.703   4.437
83092SOL     OW51049   6.064   4.739   9.376
83092SOL    HW151050   5.969   4.747   9.385
83092SOL    HW251051   6.098   4.772   9.460
83093SOL     OW51052   7.622  10.452  14.532
83093SOL    HW151053   7.700  10.465  14.478
83093SOL    HW251054   7.554  10.502  14.487
83094SOL     OW51055  14.402   7.474  10.776
83094SOL    HW151056  14.357   7.540  10.723
83094SOL    HW251057  14.332   7.419  10.811
83095SOL     OW51058   6.586   6.328   0.275
83095SOL    HW151059   6.610   6.399   0.216
83095SOL    HW251060   6.512   6.362   0.325
83096SOL     OW51061  10.069  11.374  13.106
83096SOL    HW151062  10.106  11.423  13.032
83096SOL    HW251063   9.985  11.343  13.072
83097SOL     OW51064   2.876   3.622  14.414
83097SOL    HW151065   2.836   3.699  14.373
83097SOL    HW251066   2.809   3.554  14.409
83098SOL     OW51067   9.675  14.027   4.781
83098SOL    HW151068   9.742  13.963   4.756
83098SOL    HW251069   9.596  13.976   4.794
83099SOL     OW51070   0.795   3.387   0.910
83099SOL    HW151071   0.825   3.299   0.889
83099SOL    HW251072   0.870   3.443   0.889
83100SOL     OW51073   5.000   2.320   9.017
83100SOL    HW151074   4.980   2.400   9.065
83100SOL    HW251075   4.916   2.274   9.012
83101SOL     OW51076   4.892   7.350  10.380
83101SOL    HW151077   4.977   7.393  10.387
83101SOL    HW251078   4.912   7.260  10.353
83102SOL     OW51079   3.494  12.024   1.601
83102SOL    HW151080   3.414  11.994   1.558
83102SOL    HW251081   3.472  12.025   1.694
83103SOL     OW51082  12.740   5.404   3.200
83103SOL    HW151083  12.735   5.498   3.215
83103SOL    HW251084  12.726   5.365   3.286
83104SOL     OW51085   0.007  11.533   0.506
83104SOL    HW151086  14.853  11.486   0.429
83104SOL    HW251087   0.085  11.484   0.533
83105SOL     OW51088  10.599  13.507  11.368
83105SOL    HW151089  10.615  13.413  11.368
83105SOL    HW251090  10.556  13.524  11.284
83106SOL     OW51091   7.094   4.230   1.064
83106SOL    HW151092   7.127   4.157   1.116
83106SOL    HW251093   7.147   4.305   1.091
83107SOL     OW51094   0.449  10.478   6.934
83107SOL    HW151095   0.478  10.406   6.879
83107SOL    HW251096   0.431  10.550   6.873
83108SOL     OW51097  14.273  10.243  11.769
83108SOL    HW151098  14.275  10.171  11.831
83108SOL    HW251099  14.299  10.204  11.685
83109SOL     OW51100   2.872  11.071   4.458
83109SOL    HW151101   2.854  11.142   4.397
83109SOL    HW251102   2.792  11.018   4.458
83110SOL     OW51103  10.130   4.636   7.632
83110SOL    HW151104  10.126   4.557   7.578
83110SOL    HW251105  10.109   4.606   7.721
83111SOL     OW51106   5.527   1.955  12.127
83111SOL    HW151107   5.501   2.002  12.048
83111SOL    HW251108   5.465   1.882  12.133
83112SOL     OW51109   0.091   5.418   6.108
83112SOL    HW151110   0.108   5.364   6.185
83112SOL    HW251111   0.081   5.354   6.037
83113SOL     OW51112   9.107   9.525   6.181
83113SOL    HW151113   9.038   9.574   6.227
83113SOL    HW251114   9.119   9.446   6.234
83114SOL     OW51115   9.624   8.830   4.787
83114SOL    HW151116   9.543   8.858   4.831
83114SOL    HW251117   9.635   8.893   4.715
83115SOL     OW51118  14.325   6.714   3.693
83115SOL    HW151119  14.320   6.763   3.611
83115SOL    HW251120  14.273   6.765   3.755
83116SOL     OW51121  10.244   8.624   3.775
83116SOL    HW151122  10.317   8.679   3.743
83116SOL    HW251123  10.265   8.536   3.743
83117SOL     OW51124   1.955  13.904   4.670
83117SOL    HW151125   1.975  13.838   4.736
83117SOL    HW251126   1.864  13.887   4.645
83118SOL     OW51127  11.950  14.186   7.885
83118SOL    HW151128  11.981  14.096   7.875
83118SOL    HW251129  11.855  14.178   7.884
83119SOL     OW51130  11.422   7.217  12.756
83119SOL    HW151131  11.349   7.275  12.738
83119SOL    HW251132  11.447   7.236  12.846
83120SOL     OW51133   4.519   1.754   2.436
83120SOL    HW151134   4.462   1.829   2.418
83120SOL    HW251135   4.543   1.722   2.349
83121SOL     OW51136   5.055   9.316  14.158
83121SOL    HW151137   5.122   9.376  14.190
83121SOL    HW251138   4.974   9.368  14.157
83122SOL     OW51139   7.918   1.162   9.733
83122SOL    HW151140   7.889   1.229   9.795
83122SOL    HW251141   7.948   1.090   9.788
83123SOL     OW51142   2.799  11.164   7.994
83123SOL    HW151143   2.804  11.123   7.908
83123SOL    HW251144   2.880  11.214   8.002
83124SOL     OW51145   6.242  14.737   3.622
83124SOL    HW151146   6.230  14.742   3.717
83124SOL    HW251147   6.286  14.653   3.608
83125SOL     OW51148  11.053  14.574  10.684
83125SOL    HW151149  10.987  14.612  10.627
83125SOL    HW251150  11.098  14.649  10.723
83126SOL     OW51151  12.218   7.550   1.124
83126SOL    HW151152  12.220   7.645   1.126
83126SOL    HW251153  12.158   7.528   1.054
83127SOL     OW51154   4.924   0.632   5.917
83127SOL    HW151155   4.844   0.628   5.864
83127SOL    HW251156   4.995   0.644   5.853
83128SOL     OW51157   5.765   1.383   6.749
83128SOL    HW151158   5.766   1.367   6.655
83128SOL    HW251159   5.799   1.472   6.759
83129SOL     OW51160  10.460  11.008   2.366
83129SOL    HW151161  10.419  11.094   2.360
83129SOL    HW251162  10.421  10.968   2.444
83130SOL     OW51163   9.912   9.997   9.865
83130SOL    HW151164   9.911   9.901   9.859
83130SOL    HW251165   9.884  10.016   9.954
83131SOL     OW51166  11.411   8.744   9.138
83131SOL    HW151167  11.324   8.717   9.167
83131SOL    HW251168  11.395   8.820   9.082
83132SOL     OW51169  11.866  14.747   5.118
83132SOL    HW151170  11.877  14.655   5.142
83132SOL    HW251171  11.954  14.784   5.120
83133SOL     OW51172   0.854   1.312   0.377
83133SOL    HW151173   0.854   1.303   0.472
83133SOL    HW251174   0.895   1.231   0.345
83134SOL     OW51175   3.619  11.293  11.934
83134SOL    HW151176   3.532  11.326  11.955
83134SOL    HW251177   3.643  11.337  11.853
83135SOL     OW51178   0.356  10.268   0.619
83135SOL    HW151179   0.338  10.219   0.699
83135SOL    HW251180   0.394  10.203   0.559
83136SOL     OW51181   7.591   0.730   4.318
83136SOL    HW151182   7.495   0.727   4.309
83136SOL    HW251183   7.606   0.719   4.412
83137SOL     OW51184   2.553   5.755  10.342
83137SOL    HW151185   2.468   5.760  10.386
83137SOL    HW251186   2.617   5.754  10.413
83138SOL     OW51187   6.191   0.728   1.413
83138SOL    HW151188   6.191   0.807   1.468
83138SOL    HW251189   6.129   0.748   1.343
83139SOL     OW51190   3.462  13.587   7.461
83139SOL    HW151191   3.454  13.544   7.375
83139SOL    HW251192   3.510  13.524   7.515
83140SOL     OW51193  11.216  10.209   3.087
83140SOL    HW151194  11.250  10.249   3.007
83140SOL    HW251195  11.244  10.267   3.158
83141SOL     OW51196   8.825   3.579  12.586
83141SOL    HW151197   8.757   3.601  12.650
83141SOL    HW251198   8.890   3.648  12.595
83142SOL     OW51199   8.584   0.013   3.305
83142SOL    HW151200   8.632  14.837   3.242
83142SOL    HW251201   8.616   0.102   3.290
83143SOL     OW51202   7.491  14.384   9.698
83143SOL    HW151203   7.445  14.442   9.637
83143SOL    HW251204   7.568  14.354   9.650
83144SOL     OW51205   7.294  12.037   8.833
83144SOL    HW151206   7.300  11.941   8.827
83144SOL    HW251207   7.200  12.055   8.837
83145SOL     OW51208  14.114  13.547  11.308
83145SOL    HW151209  14.149  13.636  11.306
83145SOL    HW251210  14.021  13.557  11.290
83146SOL     OW51211   7.515   9.118  13.902
83146SOL    HW151212   7.440   9.133  13.844
83146SOL    HW251213   7.581   9.181  13.872
83147SOL     OW51214  10.451   4.257  10.775
83147SOL    HW151215  10.466   4.201  10.851
83147SOL    HW251216  10.535   4.300  10.760
83148SOL     OW51217  11.387  12.828   5.499
83148SOL    HW151218  11.386  12.902   5.437
83148SOL    HW251219  11.433  12.759   5.453
83149SOL     OW51220  14.575   5.175   2.734
83149SOL    HW151221  14.665   5.206   2.735
83149SOL    HW251222  14.527   5.238   2.788
83150SOL     OW51223   5.063   1.970  12.089
83150SOL    HW151224   5.025   1.966  12.002
83150SOL    HW251225   5.053   2.061  12.116
83151SOL     OW51226   0.519   9.751   7.680
83151SOL    HW151227   0.493   9.797   7.600
83151SOL    HW251228   0.598   9.796   7.708
83152SOL     OW51229  11.535   3.195  10.648
83152SOL    HW151230  11.590   3.117  10.644
83152SOL    HW251231  11.455   3.166  10.691
83153SOL     OW51232   5.654   0.418  14.871
83153SOL    HW151233   5.589   0.372  14.818
83153SOL    HW251234   5.639   0.511  14.853
83154SOL     OW51235  13.713   1.662   4.123
83154SOL    HW151236  13.766   1.689   4.198
83154SOL    HW251237  13.722   1.567   4.120
83155SOL     OW51238  11.554   6.540   0.374
83155SOL    HW151239  11.494   6.489   0.430
83155SOL    HW251240  11.586   6.477   0.309
83156SOL     OW51241   0.556  12.085   7.349
83156SOL    HW151242   0.638  12.046   7.377
83156SOL    HW251243   0.535  12.148   7.417
83157SOL     OW51244   0.277   4.619  11.205
83157SOL    HW151245   0.323   4.593  11.125
83157SOL    HW251246   0.334   4.685  11.245
83158SOL     OW51247   4.040  11.826   6.560
83158SOL    HW151248   4.088  11.743   6.562
83158SOL    HW251249   3.949  11.801   6.543
83159SOL     OW51250  11.998   6.682   0.852
83159SOL    HW151251  12.079   6.652   0.892
83159SOL    HW251252  11.991   6.631   0.771
83160SOL     OW51253   8.762  10.087   0.792
83160SOL    HW151254   8.789  10.043   0.873
83160SOL    HW251255   8.749  10.178   0.817
83161SOL     OW51256   2.428  14.576  11.444
83161SOL    HW151257   2.514  14.573  11.486
83161SOL    HW251258   2.444  14.610  11.356
83162SOL     OW51259  13.241  13.450   9.346
83162SOL    HW151260  13.249  13.543   9.327
83162SOL    HW251261  13.174  13.419   9.285
83163SOL     OW51262  13.070   4.862   8.765
83163SOL    HW151263  13.142   4.916   8.734
83163SOL    HW251264  13.105   4.773   8.767
83164SOL     OW51265   4.523   1.686   6.440
83164SOL    HW151266   4.451   1.739   6.407
83164SOL    HW251267   4.515   1.693   6.536
83165SOL     OW51268   8.392  13.304   3.557
83165SOL    HW151269   8.395  13.382   3.502
83165SOL    HW251270   8.391  13.231   3.495
83166SOL     OW51271   3.368   1.671   1.337
83166SOL    HW151272   3.405   1.622   1.264
83166SOL    HW251273   3.283   1.629   1.354
83167SOL     OW51274   4.609   2.989   8.756
83167SOL    HW151275   4.661   2.910   8.749
83167SOL    HW251276   4.672   3.058   8.778
83168SOL     OW51277   7.637  10.149   6.178
83168SOL    HW151278   7.663  10.099   6.255
83168SOL    HW251279   7.556  10.108   6.149
83169SOL     OW51280   0.846   6.141  14.826
83169SOL    HW151281   0.876   6.086  14.754
83169SOL    HW251282   0.926   6.168  14.871
83170SOL     OW51283   8.835   1.873  14.381
83170SOL    HW151284   8.921   1.888  14.340
83170SOL    HW251285   8.810   1.785  14.353
83171SOL     OW51286   6.757   1.139   2.164
83171SOL    HW151287   6.778   1.172   2.252
83171SOL    HW251288   6.842   1.133   2.120
83172SOL     OW51289   5.080   4.937   4.696
83172SOL    HW151290   5.077   4.847   4.730
83172SOL    HW251291   5.139   4.932   4.621
83173SOL     OW51292  12.023   0.667  13.703
83173SOL    HW151293  12.062   0.747  13.669
83173SOL    HW251294  12.011   0.612  13.625
83174SOL     OW51295  11.692   1.276   8.123
83174SOL    HW151296  11.695   1.269   8.218
83174SOL    HW251297  11.617   1.222   8.097
83175SOL     OW51298   9.904   9.540   5.118
83175SOL    HW151299   9.957   9.480   5.064
83175SOL    HW251300   9.898   9.620   5.065
83176SOL     OW51301   1.077   0.672   1.399
83176SOL    HW151302   1.014   0.607   1.429
83176SOL    HW251303   1.035   0.715   1.325
83177SOL     OW51304  13.640   4.321   9.823
83177SOL    HW151305  13.641   4.389   9.757
83177SOL    HW251306  13.701   4.351   9.890
83178SOL     OW51307  12.923  13.575   8.237
83178SOL    HW151308  12.869  13.511   8.191
83178SOL    HW251309  12.966  13.526   8.306
83179SOL     OW51310   1.976   1.981   6.325
83179SOL    HW151311   1.956   1.917   6.257
83179SOL    HW251312   2.028   2.048   6.280
83180SOL     OW51313   9.946   2.725  13.696
83180SOL    HW151314   9.862   2.691  13.727
83180SOL    HW251315   9.991   2.648  13.661
83181SOL     OW51316   2.853   1.509   2.961
83181SOL    HW151317   2.810   1.591   2.982
83181SOL    HW251318   2.826   1.449   3.031
83182SOL     OW51319   5.546   5.459   4.678
83182SOL    HW151320   5.584   5.444   4.591
83182SOL    HW251321   5.464   5.504   4.660
83183SOL     OW51322  13.630  13.180   0.563
83183SOL    HW151323  13.698  13.210   0.503
83183SOL    HW251324  13.662  13.204   0.650
83184SOL     OW51325  13.513  12.806   0.396
83184SOL    HW151326  13.518  12.880   0.336
83184SOL    HW251327  13.420  12.785   0.401
83185SOL     OW51328  13.117   9.879  14.241
83185SOL    HW151329  13.108   9.794  14.198
83185SOL    HW251330  13.083   9.864  14.329
83186SOL     OW51331  12.755   0.390  14.000
83186SOL    HW151332  12.661   0.386  14.021
83186SOL    HW251333  12.766   0.473  13.954
83187SOL     OW51334  13.555   3.663   7.783
83187SOL    HW151335  13.542   3.718   7.859
83187SOL    HW251336  13.502   3.704   7.714
83188SOL     OW51337   2.529   6.081  11.150
83188SOL    HW151338   2.435   6.063  11.150
83188SOL    HW251339   2.569   6.004  11.109
83189SOL     OW51340   8.650   2.791   5.849
83189SOL    HW151341   8.573   2.736   5.865
83189SOL    HW251342   8.615   2.878   5.833
83190SOL     OW51343   8.176   3.195   0.119
83190SOL    HW151344   8.118   3.268   0.145
83190SOL    HW251345   8.136   3.118   0.159
83191SOL     OW51346   2.016  14.372   3.924
83191SOL    HW151347   2.056  14.360   3.838
83191SOL    HW251348   1.925  14.346   3.912
83192SOL     OW51349   7.556   2.914   9.139
83192SOL    HW151350   7.609   2.974   9.087
83192SOL    HW251351   7.483   2.891   9.082
83193SOL     OW51352   6.276   1.123   4.053
83193SOL    HW151353   6.198   1.175   4.074
83193SOL    HW251354   6.268   1.045   4.107
83194SOL     OW51355   2.591  13.586  10.942
83194SOL    HW151356   2.669  13.592  10.886
83194SOL    HW251357   2.595  13.665  10.996
83195SOL     OW51358   2.265   3.199   8.146
83195SOL    HW151359   2.317   3.266   8.191
83195SOL    HW251360   2.270   3.223   8.053
83196SOL     OW51361   9.887   8.999   2.203
83196SOL    HW151362   9.859   8.944   2.130
83196SOL    HW251363   9.982   8.994   2.202
83197SOL     OW51364   4.455   4.436   5.881
83197SOL    HW151365   4.386   4.423   5.817
83197SOL    HW251366   4.520   4.492   5.837
83198SOL     OW51367  14.488   3.624   6.121
83198SOL    HW151368  14.557   3.688   6.110
83198SOL    HW251369  14.531   3.548   6.160
83199SOL     OW51370   6.584  12.519   1.499
83199SOL    HW151371   6.548  12.491   1.582
83199SOL    HW251372   6.671  12.480   1.495
83200SOL     OW51373   0.693   1.936   4.370
83200SOL    HW151374   0.599   1.947   4.353
83200SOL    HW251375   0.698   1.911   4.462
83201SOL     OW51376   5.156   1.379   2.041
83201SOL    HW151377   5.218   1.375   1.969
83201SOL    HW251378   5.208   1.403   2.117
83202SOL     OW51379   0.654   9.753   1.736
83202SOL    HW151380   0.637   9.659   1.749
83202SOL    HW251381   0.653   9.789   1.824
83203SOL     OW51382  12.379  14.663   4.199
83203SOL    HW151383  12.333  14.745   4.179
83203SOL    HW251384  12.310  14.597   4.203
83204SOL     OW51385  10.946   9.436  13.030
83204SOL    HW151386  10.869   9.386  13.058
83204SOL    HW251387  11.021   9.387  13.064
83205SOL     OW51388   7.145   5.008   4.345
83205SOL    HW151389   7.197   4.950   4.289
83205SOL    HW251390   7.063   5.020   4.297
83206SOL     OW51391   3.181   5.175   4.955
83206SOL    HW151392   3.174   5.140   5.044
83206SOL    HW251393   3.178   5.097   4.899
83207SOL     OW51394   3.724  14.431  12.119
83207SOL    HW151395   3.742  14.505  12.177
83207SOL    HW251396   3.789  14.438  12.049
83208SOL     OW51397  11.495   0.883   9.489
83208SOL    HW151398  11.510   0.802   9.536
83208SOL    HW251399  11.449   0.857   9.409
83209SOL     OW51400   8.167   1.613   1.016
83209SOL    HW151401   8.195   1.598   1.106
83209SOL    HW251402   8.099   1.547   1.000
83210SOL     OW51403   3.097   9.861   0.089
83210SOL    HW151404   3.144   9.783   0.119
83210SOL    HW251405   3.098   9.920   0.164
83211SOL     OW51406   5.617   0.231   5.990
83211SOL    HW151407   5.689   0.247   6.051
83211SOL    HW251408   5.539   0.226   6.045
83212SOL     OW51409   7.745   2.535   4.371
83212SOL    HW151410   7.685   2.503   4.439
83212SOL    HW251411   7.688   2.564   4.300
83213SOL     OW51412   6.249   7.677   0.091
83213SOL    HW151413   6.181   7.630   0.139
83213SOL    HW251414   6.264   7.758   0.141
83214SOL     OW51415   5.107   5.907  11.500
83214SOL    HW151416   5.054   5.986  11.497
83214SOL    HW251417   5.049   5.837  11.470
83215SOL     OW51418   8.104   7.348  11.422
83215SOL    HW151419   8.014   7.326  11.398
83215SOL    HW251420   8.158   7.310  11.353
83216SOL     OW51421   9.605  13.711   8.167
83216SOL    HW151422   9.675  13.744   8.223
83216SOL    HW251423   9.648  13.690   8.084
83217SOL     OW51424   2.717   6.800   2.327
83217SOL    HW151425   2.662   6.848   2.389
83217SOL    HW251426   2.770   6.742   2.382
83218SOL     OW51427  11.926   8.860   4.918
83218SOL    HW151428  11.916   8.850   5.012
83218SOL    HW251429  12.002   8.806   4.896
83219SOL     OW51430   4.211   4.402   8.760
83219SOL    HW151431   4.219   4.469   8.691
83219SOL    HW251432   4.122   4.413   8.793
83220SOL     OW51433   1.978  13.025   7.541
83220SOL    HW151434   1.970  12.976   7.623
83220SOL    HW251435   2.052  12.982   7.496
83221SOL     OW51436   3.381   0.929   3.174
83221SOL    HW151437   3.369   0.929   3.079
83221SOL    HW251438   3.451   0.993   3.189
83222SOL     OW51439   7.600  14.541  11.033
83222SOL    HW151440   7.565  14.522  11.120
83222SOL    HW251441   7.551  14.483  10.974
83223SOL     OW51442  12.938   2.486   6.551
83223SOL    HW151443  12.995   2.561   6.567
83223SOL    HW251444  12.916   2.453   6.638
83224SOL     OW51445   7.387   8.780   2.558
83224SOL    HW151446   7.401   8.781   2.653
83224SOL    HW251447   7.366   8.870   2.536
83225SOL     OW51448  12.379   0.226   4.160
83225SOL    HW151449  12.357   0.183   4.078
83225SOL    HW251450  12.295   0.245   4.201
83226SOL     OW51451   0.319   1.217   6.852
83226SOL    HW151452   0.254   1.198   6.784
83226SOL    HW251453   0.279   1.182   6.932
83227SOL     OW51454   0.509  11.741  13.382
83227SOL    HW151455   0.538  11.816  13.329
83227SOL    HW251456   0.414  11.738  13.370
83228SOL     OW51457   9.816   9.301   7.379
83228SOL    HW151458   9.796   9.207   7.380
83228SOL    HW251459   9.887   9.311   7.442
83229SOL     OW51460   4.036   9.277   1.803
83229SOL    HW151461   4.036   9.366   1.768
83229SOL    HW251462   4.117   9.272   1.854
83230SOL     OW51463  12.041   9.388   2.464
83230SOL    HW151464  11.955   9.430   2.461
83230SOL    HW251465  12.084   9.417   2.384
83231SOL     OW51466   2.455   7.900  11.577
83231SOL    HW151467   2.410   7.978  11.545
83231SOL    HW251468   2.548   7.922  11.574
83232SOL     OW51469  14.784   1.769  12.944
83232SOL    HW151470  14.820   1.683  12.924
83232SOL    HW251471  14.723   1.753  13.017
83233SOL     OW51472   2.663   6.372   5.128
83233SOL    HW151473   2.651   6.291   5.078
83233SOL    HW251474   2.740   6.413   5.089
83234SOL     OW51475   7.649   3.307  10.755
83234SOL    HW151476   7.678   3.267  10.836
83234SOL    HW251477   7.691   3.393  10.754
83235SOL     OW51478  14.798  10.007  14.339
83235SOL    HW151479  14.786  10.009  14.434
83235SOL    HW251480  14.802  10.099  14.313
83236SOL     OW51481   2.836  12.228   3.826
83236SOL    HW151482   2.881  12.159   3.874
83236SOL    HW251483   2.880  12.309   3.854
83237SOL     OW51484   6.087  10.562   2.584
83237SOL    HW151485   6.180  10.587   2.585
83237SOL    HW251486   6.067  10.538   2.674
83238SOL     OW51487   6.502   1.368   8.772
83238SOL    HW151488   6.571   1.425   8.805
83238SOL    HW251489   6.514   1.367   8.677
83239SOL     OW51490   0.136   1.009  12.142
83239SOL    HW151491   0.158   1.079  12.081
83239SOL    HW251492   0.217   0.994  12.191
83240SOL     OW51493  12.626   9.332   7.072
83240SOL    HW151494  12.531   9.340   7.066
83240SOL    HW251495  12.649   9.272   7.000
83241SOL     OW51496   1.358   3.152  13.865
83241SOL    HW151497   1.343   3.060  13.844
83241SOL    HW251498   1.307   3.200  13.800
83242SOL     OW51499   5.086   8.771   0.272
83242SOL    HW151500   4.998   8.802   0.251
83242SOL    HW251501   5.106   8.811   0.357
83243SOL     OW51502   3.896   9.035   9.087
83243SOL    HW151503   3.933   9.070   9.167
83243SOL    HW251504   3.819   8.986   9.115
83244SOL     OW51505   3.255   6.683  11.582
83244SOL    HW151506   3.316   6.679  11.509
83244SOL    HW251507   3.198   6.607  11.571
83245SOL     OW51508   1.213  12.907   4.335
83245SOL    HW151509   1.283  12.970   4.345
83245SOL    HW251510   1.242  12.849   4.265
83246SOL     OW51511   9.117  12.906  14.490
83246SOL    HW151512   9.027  12.920  14.520
83246SOL    HW251513   9.112  12.832  14.430
83247SOL     OW51514   7.428  11.542   5.569
83247SOL    HW151515   7.462  11.457   5.544
83247SOL    HW251516   7.456  11.601   5.499
83248SOL     OW51517   7.712   5.306   8.122
83248SOL    HW151518   7.728   5.308   8.216
83248SOL    HW251519   7.708   5.398   8.096
83249SOL     OW51520  12.000   3.728  11.625
83249SOL    HW151521  12.058   3.802  11.606
83249SOL    HW251522  11.993   3.681  11.542
83250SOL     OW51523   9.329  14.536   0.308
83250SOL    HW151524   9.292  14.451   0.331
83250SOL    HW251525   9.353  14.527   0.216
83251SOL     OW51526   5.236  14.545   7.468
83251SOL    HW151527   5.257  14.583   7.554
83251SOL    HW251528   5.308  14.485   7.451
83252SOL     OW51529   3.311  13.558   9.999
83252SOL    HW151530   3.290  13.651  10.013
83252SOL    HW251531   3.335  13.527  10.086
83253SOL     OW51532   1.578   8.011   1.222
83253SOL    HW151533   1.547   7.921   1.211
83253SOL    HW251534   1.531   8.061   1.155
83254SOL     OW51535   1.824  12.949   1.322
83254SOL    HW151536   1.917  12.971   1.316
83254SOL    HW251537   1.814  12.873   1.265
83255SOL     OW51538   6.467  14.590   8.845
83255SOL    HW151539   6.500  14.502   8.826
83255SOL    HW251540   6.540  14.648   8.825
83256SOL     OW51541   3.643   7.136   4.254
83256SOL    HW151542   3.587   7.141   4.331
83256SOL    HW251543   3.702   7.211   4.261
83257SOL     OW51544   9.792  10.644   3.269
83257SOL    HW151545   9.732  10.575   3.298
83257SOL    HW251546   9.745  10.688   3.198
83258SOL     OW51547   2.024   1.382   3.116
83258SOL    HW151548   1.976   1.340   3.187
83258SOL    HW251549   2.116   1.361   3.133
83259SOL     OW51550   2.353   5.740   8.908
83259SOL    HW151551   2.294   5.674   8.871
83259SOL    HW251552   2.301   5.785   8.974
83260SOL     OW51553   1.861   9.322   0.357
83260SOL    HW151554   1.945   9.365   0.374
83260SOL    HW251555   1.804   9.352   0.427
83261SOL     OW51556   2.752   2.518   4.917
83261SOL    HW151557   2.832   2.466   4.924
83261SOL    HW251558   2.774   2.602   4.957
83262SOL     OW51559   2.446  13.845  14.442
83262SOL    HW151560   2.360  13.868  14.408
83262SOL    HW251561   2.438  13.855  14.537
83263SOL     OW51562   6.953  11.074  14.534
83263SOL    HW151563   6.896  10.998  14.529
83263SOL    HW251564   6.894  11.149  14.527
83264SOL     OW51565  13.712   6.516  10.666
83264SOL    HW151566  13.650   6.545  10.599
83264SOL    HW251567  13.667   6.444  10.711
83265SOL     OW51568  12.208   0.392   4.606
83265SOL    HW151569  12.241   0.467   4.656
83265SOL    HW251570  12.187   0.427   4.520
83266SOL     OW51571   9.755   1.809   8.590
83266SOL    HW151572   9.733   1.729   8.543
83266SOL    HW251573   9.671   1.847   8.616
83267SOL     OW51574   5.428   3.501   9.153
83267SOL    HW151575   5.392   3.573   9.204
83267SOL    HW251576   5.358   3.476   9.093
83268SOL     OW51577   5.280  13.884  10.512
83268SOL    HW151578   5.317  13.971  10.530
83268SOL    HW251579   5.307  13.864  10.423
83269SOL     OW51580   4.730   4.975  10.400
83269SOL    HW151581   4.655   4.975  10.341
83269SOL    HW251582   4.801   5.011  10.347
83270SOL     OW51583   9.957   1.797   8.130
83270SOL    HW151584   9.876   1.775   8.084
83270SOL    HW251585   9.950   1.751   8.213
83271SOL     OW51586   2.678   3.040  14.347
83271SOL    HW151587   2.676   3.117  14.404
83271SOL    HW251588   2.631   3.068  14.268
83272SOL     OW51589   2.594   0.822   2.939
83272SOL    HW151590   2.603   0.914   2.960
83272SOL    HW251591   2.637   0.776   3.011
83273SOL     OW51592   4.588  11.215   1.209
83273SOL    HW151593   4.568  11.123   1.191
83273SOL    HW251594   4.607  11.252   1.122
83274SOL     OW51595   2.894   1.137   4.481
83274SOL    HW151596   2.890   1.047   4.449
83274SOL    HW251597   2.882   1.192   4.404
83275SOL     OW51598   2.128  13.852  10.274
83275SOL    HW151599   2.120  13.945  10.294
83275SOL    HW251600   2.130  13.848  10.178
83276SOL     OW51601   0.775   2.176   0.200
83276SOL    HW151602   0.811   2.206   0.283
83276SOL    HW251603   0.736   2.091   0.220
83277SOL     OW51604   1.375   6.498   0.087
83277SOL    HW151605   1.328   6.488   0.005
83277SOL    HW251606   1.393   6.591   0.094
83278SOL     OW51607  13.529  14.779   3.685
83278SOL    HW151608  13.481  14.709   3.729
83278SOL    HW251609  13.560  14.739   3.603
83279SOL     OW51610   3.869   9.426  14.473
83279SOL    HW151611   3.775   9.412  14.464
83279SOL    HW251612   3.909   9.348  14.434
83280SOL     OW51613  10.653   4.610   5.924
83280SOL    HW151614  10.700   4.618   6.007
83280SOL    HW251615  10.624   4.700   5.905
83281SOL     OW51616   8.825   8.792   3.286
83281SOL    HW151617   8.881   8.761   3.357
83281SOL    HW251618   8.867   8.758   3.206
83282SOL     OW51619   3.905   9.131  14.670
83282SOL    HW151620   3.819   9.173  14.657
83282SOL    HW251621   3.910   9.065  14.601
83283SOL     OW51622  10.335   3.203   4.495
83283SOL    HW151623  10.327   3.240   4.407
83283SOL    HW251624  10.252   3.158   4.509
83284SOL     OW51625   4.501   0.471   2.968
83284SOL    HW151626   4.481   0.434   2.882
83284SOL    HW251627   4.589   0.440   2.988
83285SOL     OW51628   1.862   3.411   8.909
83285SOL    HW151629   1.844   3.416   9.002
83285SOL    HW251630   1.904   3.494   8.888
83286SOL     OW51631   6.796   7.603  10.267
83286SOL    HW151632   6.846   7.677  10.304
83286SOL    HW251633   6.792   7.539  10.338
83287SOL     OW51634  13.520   1.217   9.410
83287SOL    HW151635  13.493   1.224   9.319
83287SOL    HW251636  13.585   1.146   9.411
83288SOL     OW51637   6.037   7.568   3.515
83288SOL    HW151638   6.042   7.587   3.609
83288SOL    HW251639   5.986   7.640   3.479
83289SOL     OW51640   2.340   3.552  10.850
83289SOL    HW151641   2.288   3.545  10.769
83289SOL    HW251642   2.277   3.535  10.920
83290SOL     OW51643  12.622  14.020  12.906
83290SOL    HW151644  12.677  13.944  12.888
83290SOL    HW251645  12.682  14.094  12.906
83291SOL     OW51646   0.160   4.227   4.798
83291SOL    HW151647   0.191   4.316   4.811
83291SOL    HW251648   0.079   4.222   4.849
83292SOL     OW51649  11.588   3.651  10.739
83292SOL    HW151650  11.551   3.579  10.689
83292SOL    HW251651  11.681   3.653  10.714
83293SOL     OW51652   1.197   5.892   3.699
83293SOL    HW151653   1.106   5.896   3.670
83293SOL    HW251654   1.218   5.799   3.701
83294SOL     OW51655   9.778   2.181   0.904
83294SOL    HW151656   9.840   2.233   0.955
83294SOL    HW251657   9.728   2.246   0.855
83295SOL     OW51658   8.768   5.549   3.615
83295SOL    HW151659   8.795   5.465   3.576
83295SOL    HW251660   8.689   5.528   3.665
83296SOL     OW51661   3.392  12.924   7.437
83296SOL    HW151662   3.390  12.984   7.363
83296SOL    HW251663   3.485  12.907   7.452
83297SOL     OW51664  12.490   6.263   1.355
83297SOL    HW151665  12.475   6.263   1.449
83297SOL    HW251666  12.581   6.291   1.345
83298SOL     OW51667   1.917   8.243   5.406
83298SOL    HW151668   1.975   8.204   5.341
83298SOL    HW251669   1.976   8.282   5.471
83299SOL     OW51670  14.378   1.284   9.910
83299SOL    HW151671  14.435   1.243   9.844
83299SOL    HW251672  14.384   1.377   9.891
83300SOL     OW51673   9.849   3.113  14.725
83300SOL    HW151674   9.821   3.201  14.751
83300SOL    HW251675   9.845   3.062  14.806
83301SOL     OW51676  12.094   4.188  14.114
83301SOL    HW151677  12.071   4.128  14.185
83301SOL    HW251678  12.155   4.249  14.153
83302SOL     OW51679  11.169   9.676  14.040
83302SOL    HW151680  11.080   9.703  14.016
83302SOL    HW251681  11.157   9.597  14.092
83303SOL     OW51682   7.965   3.484   1.704
83303SOL    HW151683   7.972   3.394   1.672
83303SOL    HW251684   7.905   3.478   1.778
83304SOL     OW51685   2.194   2.770   7.262
83304SOL    HW151686   2.258   2.838   7.246
83304SOL    HW251687   2.222   2.729   7.344
83305SOL     OW51688   7.770  13.524   7.420
83305SOL    HW151689   7.677  13.545   7.431
83305SOL    HW251690   7.808  13.542   7.506
83306SOL     OW51691   2.437   1.829   0.960
83306SOL    HW151692   2.485   1.910   0.942
83306SOL    HW251693   2.347   1.858   0.973
83307SOL     OW51694   1.724  12.339   2.466
83307SOL    HW151695   1.773  12.304   2.541
83307SOL    HW251696   1.632  12.328   2.491
83308SOL     OW51697   9.758   6.703  10.461
83308SOL    HW151698   9.742   6.612  10.439
83308SOL    HW251699   9.684   6.751  10.422
83309SOL     OW51700   2.136   7.069   8.076
83309SOL    HW151701   2.056   7.091   8.028
83309SOL    HW251702   2.192   7.026   8.012
83310SOL     OW51703   6.760   1.772   7.145
83310SOL    HW151704   6.801   1.854   7.115
83310SOL    HW251705   6.806   1.751   7.226
83311SOL     OW51706   6.298   2.154   3.809
83311SOL    HW151707   6.263   2.115   3.890
83311SOL    HW251708   6.291   2.249   3.823
83312SOL     OW51709  11.734   5.203   9.666
83312SOL    HW151710  11.774   5.289   9.663
83312SOL    HW251711  11.674   5.202   9.591
83313SOL     OW51712  11.273   0.856  13.574
83313SOL    HW151713  11.185   0.876  13.605
83313SOL    HW251714  11.284   0.910  13.495
83314SOL     OW51715  11.572   0.838  11.859
83314SOL    HW151716  11.530   0.846  11.774
83314SOL    HW251717  11.644   0.901  11.857
83315SOL     OW51718   0.840   8.210   0.928
83315SOL    HW151719   0.849   8.214   0.832
83315SOL    HW251720   0.749   8.184   0.942
83316SOL     OW51721   2.172   9.383   0.271
83316SOL    HW151722   2.196   9.471   0.241
83316SOL    HW251723   2.256   9.338   0.285
83317SOL     OW51724  12.678   0.637  11.849
83317SOL    HW151725  12.685   0.616  11.942
83317SOL    HW251726  12.731   0.716  11.838
83318SOL     OW51727  11.754   4.451   6.146
83318SOL    HW151728  11.772   4.460   6.239
83318SOL    HW251729  11.664   4.483   6.136
83319SOL     OW51730   2.674   3.893   2.016
83319SOL    HW151731   2.679   3.799   2.035
83319SOL    HW251732   2.758   3.928   2.044
83320SOL     OW51733   6.594   6.946   1.706
83320SOL    HW151734   6.504   6.971   1.685
83320SOL    HW251735   6.615   6.996   1.786
83321SOL     OW51736   9.753  14.833   2.157
83321SOL    HW151737   9.835  14.866   2.121
83321SOL    HW251738   9.777  14.757   2.208
83322SOL     OW51739   7.515  12.379   9.016
83322SOL    HW151740   7.573  12.304   9.027
83322SOL    HW251741   7.565  12.453   9.049
83323SOL     OW51742   8.633  11.059   5.408
83323SOL    HW151743   8.676  10.975   5.418
83323SOL    HW251744   8.613  11.087   5.497
83324SOL     OW51745   1.028   9.745  10.808
83324SOL    HW151746   1.076   9.663  10.798
83324SOL    HW251747   1.077   9.809  10.755
83325SOL     OW51748   8.931   6.565   7.545
83325SOL    HW151749   8.853   6.576   7.491
83325SOL    HW251750   8.993   6.629   7.511
83326SOL     OW51751  10.180  14.816  10.803
83326SOL    HW151752  10.085  14.808  10.814
83326SOL    HW251753  10.216  14.797  10.890
83327SOL     OW51754   8.102   9.494   0.175
83327SOL    HW151755   8.117   9.402   0.194
83327SOL    HW251756   8.179   9.539   0.209
83328SOL     OW51757   3.301  14.010   2.978
83328SOL    HW151758   3.226  14.046   2.930
83328SOL    HW251759   3.283  13.917   2.985
83329SOL     OW51760  12.336   4.755   6.696
83329SOL    HW151761  12.346   4.806   6.615
83329SOL    HW251762  12.293   4.675   6.668
83330SOL     OW51763   7.575   1.378   5.797
83330SOL    HW151764   7.564   1.402   5.705
83330SOL    HW251765   7.529   1.294   5.805
83331SOL     OW51766   6.264   0.257   9.065
83331SOL    HW151767   6.206   0.206   9.008
83331SOL    HW251768   6.240   0.231   9.154
83332SOL     OW51769   2.283   0.558   1.629
83332SOL    HW151770   2.317   0.503   1.558
83332SOL    HW251771   2.273   0.497   1.702
83333SOL     OW51772   1.983   4.243   4.042
83333SOL    HW151773   2.024   4.205   3.964
83333SOL    HW251774   1.902   4.282   4.010
83334SOL     OW51775  14.748   1.810   5.534
83334SOL    HW151776  14.754   1.815   5.630
83334SOL    HW251777  14.726   1.899   5.507
83335SOL     OW51778   4.827  12.928   4.970
83335SOL    HW151779   4.763  12.946   4.901
83335SOL    HW251780   4.799  12.984   5.043
83336SOL     OW51781   3.893  10.079  12.521
83336SOL    HW151782   3.882  10.129  12.440
83336SOL    HW251783   3.946  10.135  12.577
83337SOL     OW51784  14.457  13.433   7.427
83337SOL    HW151785  14.438  13.506   7.367
83337SOL    HW251786  14.528  13.466   7.483
83338SOL     OW51787   4.014  12.192   6.383
83338SOL    HW151788   4.091  12.137   6.371
83338SOL    HW251789   3.949  12.157   6.322
83339SOL     OW51790   7.881   2.328   5.159
83339SOL    HW151791   7.905   2.237   5.177
83339SOL    HW251792   7.888   2.372   5.244
83340SOL     OW51793   6.450   7.526   7.790
83340SOL    HW151794   6.401   7.444   7.785
83340SOL    HW251795   6.413   7.580   7.719
83341SOL     OW51796   3.447   3.488   2.157
83341SOL    HW151797   3.358   3.455   2.148
83341SOL    HW251798   3.437   3.578   2.188
83342SOL     OW51799   5.472  12.863   0.777
83342SOL    HW151800   5.530  12.918   0.724
83342SOL    HW251801   5.462  12.911   0.859
83343SOL     OW51802   5.704  13.123  10.234
83343SOL    HW151803   5.652  13.122  10.314
83343SOL    HW251804   5.681  13.041  10.190
83344SOL     OW51805   2.361  11.753  10.244
83344SOL    HW151806   2.438  11.806  10.263
83344SOL    HW251807   2.319  11.796  10.170
83345SOL     OW51808   5.282   1.464   1.776
83345SOL    HW151809   5.377   1.464   1.768
83345SOL    HW251810   5.255   1.548   1.739
83346SOL     OW51811   4.825   9.307  11.106
83346SOL    HW151812   4.833   9.235  11.043
83346SOL    HW251813   4.732   9.309  11.128
83347SOL     OW51814   7.257   6.878   2.804
83347SOL    HW151815   7.223   6.865   2.893
83347SOL    HW251816   7.180   6.898   2.752
83348SOL     OW51817   3.215   8.193   0.436
83348SOL    HW151818   3.300   8.213   0.397
83348SOL    HW251819   3.234   8.123   0.499
83349SOL     OW51820   0.763   4.793   1.317
83349SOL    HW151821   0.855   4.772   1.304
83349SOL    HW251822   0.718   4.755   1.241
83350SOL     OW51823   3.926   5.614   5.306
83350SOL    HW151824   3.944   5.526   5.340
83350SOL    HW251825   4.005   5.637   5.257
83351SOL     OW51826  13.852   4.931   8.671
83351SOL    HW151827  13.816   4.937   8.582
83351SOL    HW251828  13.859   4.837   8.687
83352SOL     OW51829  10.290   9.334   4.257
83352SOL    HW151830  10.303   9.239   4.248
83352SOL    HW251831  10.221   9.354   4.194
83353SOL     OW51832   5.410  14.248   7.515
83353SOL    HW151833   5.382  14.227   7.425
83353SOL    HW251834   5.502  14.271   7.506
83354SOL     OW51835   0.184   3.283   4.076
83354SOL    HW151836   0.141   3.359   4.036
83354SOL    HW251837   0.199   3.309   4.166
83355SOL     OW51838   6.088  12.021   8.491
83355SOL    HW151839   6.122  11.985   8.408
83355SOL    HW251840   6.098  12.116   8.481
83356SOL     OW51841   3.538   3.226  10.185
83356SOL    HW151842   3.500   3.191  10.105
83356SOL    HW251843   3.466   3.225  10.248
83357SOL     OW51844   1.303   7.720   6.724
83357SOL    HW151845   1.228   7.702   6.781
83357SOL    HW251846   1.323   7.812   6.739
83358SOL     OW51847   0.059   4.911  14.606
83358SOL    HW151848   0.049   4.844  14.673
83358SOL    HW251849   0.073   4.992  14.656
83359SOL     OW51850  11.560   9.918   7.168
83359SOL    HW151851  11.528   9.839   7.213
83359SOL    HW251852  11.655   9.910   7.170
83360SOL     OW51853   9.964   4.410  11.435
83360SOL    HW151854  10.006   4.473  11.376
83360SOL    HW251855   9.901   4.461  11.485
83361SOL     OW51856   6.915   1.667   0.048
83361SOL    HW151857   6.996   1.691   0.093
83361SOL    HW251858   6.944   1.640  14.838
83362SOL     OW51859   3.171   0.383   0.348
83362SOL    HW151860   3.201   0.465   0.387
83362SOL    HW251861   3.249   0.328   0.346
83363SOL     OW51862  14.463   1.238   5.430
83363SOL    HW151863  14.500   1.326   5.440
83363SOL    HW251864  14.505   1.187   5.499
83364SOL     OW51865  13.887  12.156   5.894
83364SOL    HW151866  13.909  12.219   5.825
83364SOL    HW251867  13.941  12.080   5.874
83365SOL     OW51868   4.509   9.929   1.676
83365SOL    HW151869   4.441   9.882   1.628
83365SOL    HW251870   4.524  10.008   1.625
83366SOL     OW51871  13.077   8.053   6.626
83366SOL    HW151872  13.111   8.059   6.715
83366SOL    HW251873  13.150   8.081   6.570
83367SOL     OW51874  14.238   9.086   4.788
83367SOL    HW151875  14.165   9.036   4.750
83367SOL    HW251876  14.197   9.142   4.853
83368SOL     OW51877   5.044   5.053   6.731
83368SOL    HW151878   5.129   5.055   6.687
83368SOL    HW251879   5.016   5.145   6.734
83369SOL     OW51880   4.960  10.129  10.251
83369SOL    HW151881   4.970  10.046  10.298
83369SOL    HW251882   5.042  10.137  10.201
83370SOL     OW51883   8.972   0.377  14.575
83370SOL    HW151884   8.906   0.423  14.522
83370SOL    HW251885   8.924   0.308  14.620
83371SOL     OW51886   7.834  13.967  10.305
83371SOL    HW151887   7.881  13.892  10.269
83371SOL    HW251888   7.833  14.031  10.234
83372SOL     OW51889  11.378   8.004   2.065
83372SOL    HW151890  11.346   7.966   1.983
83372SOL    HW251891  11.298   8.020   2.116
83373SOL     OW51892   0.018  10.115   7.440
83373SOL    HW151893   0.042  10.026   7.417
83373SOL    HW251894   0.082  10.170   7.394
83374SOL     OW51895   8.057  12.154   9.703
83374SOL    HW151896   7.975  12.126   9.743
83374SOL    HW251897   8.073  12.241   9.739
83375SOL     OW51898   3.784   3.854   0.755
83375SOL    HW151899   3.807   3.800   0.680
83375SOL    HW251900   3.716   3.805   0.800
83376SOL     OW51901   6.125   6.441  11.651
83376SOL    HW151902   6.184   6.471  11.582
83376SOL    HW251903   6.131   6.346  11.648
83377SOL     OW51904   8.656   4.191   2.601
83377SOL    HW151905   8.688   4.119   2.546
83377SOL    HW251906   8.591   4.236   2.547
83378SOL     OW51907  14.762  13.173   6.963
83378SOL    HW151908  14.849  13.152   6.999
83378SOL    HW251909  14.702  13.119   7.013
83379SOL     OW51910   3.750   8.250   7.397
83379SOL    HW151911   3.754   8.173   7.340
83379SOL    HW251912   3.683   8.305   7.358
83380SOL     OW51913   3.659   6.887   2.210
83380SOL    HW151914   3.635   6.980   2.200
83380SOL    HW251915   3.745   6.889   2.252
83381SOL     OW51916   7.064   2.391  11.010
83381SOL    HW151917   7.067   2.443  10.930
83381SOL    HW251918   7.124   2.318  10.994
83382SOL     OW51919   7.294   9.737   1.946
83382SOL    HW151920   7.242   9.744   1.866
83382SOL    HW251921   7.384   9.724   1.915
83383SOL     OW51922  14.757  14.551   8.652
83383SOL    HW151923  14.747  14.630   8.598
83383SOL    HW251924  14.851  14.531   8.647
83384SOL     OW51925  14.335   8.881  13.855
83384SOL    HW151926  14.333   8.786  13.865
83384SOL    HW251927  14.395   8.897  13.783
83385SOL     OW51928  11.156  14.281  13.652
83385SOL    HW151929  11.197  14.359  13.614
83385SOL    HW251930  11.206  14.265  13.732
83386SOL     OW51931  12.295  12.086   9.067
83386SOL    HW151932  12.375  12.074   9.117
83386SOL    HW251933  12.227  12.047   9.122
83387SOL     OW51934   9.257   3.963   8.198
83387SOL    HW151935   9.249   3.870   8.175
83387SOL    HW251936   9.234   3.967   8.291
83388SOL     OW51937  12.872   5.883   8.638
83388SOL    HW151938  12.891   5.893   8.732
83388SOL    HW251939  12.851   5.790   8.628
83389SOL     OW51940  12.626   9.043  14.684
83389SOL    HW151941  12.671   8.988  14.620
83389SOL    HW251942  12.570   9.101  14.631
83390SOL     OW51943   5.788  10.164  12.636
83390SOL    HW151944   5.706  10.122  12.663
83390SOL    HW251945   5.779  10.176  12.541
83391SOL     OW51946  12.772   4.361   0.688
83391SOL    HW151947  12.760   4.337   0.780
83391SOL    HW251948  12.705   4.427   0.672
83392SOL     OW51949  11.282   9.913   9.068
83392SOL    HW151950  11.229   9.922   8.989
83392SOL    HW251951  11.371   9.936   9.041
83393SOL     OW51952   2.721   7.136   5.040
83393SOL    HW151953   2.755   7.205   5.098
83393SOL    HW251954   2.741   7.054   5.086
83394SOL     OW51955  11.411  11.152   2.121
83394SOL    HW151956  11.316  11.149   2.124
83394SOL    HW251957  11.438  11.061   2.111
83395SOL     OW51958  13.987  14.142   4.343
83395SOL    HW151959  14.016  14.227   4.309
83395SOL    HW251960  13.982  14.154   4.437
83396SOL     OW51961  12.968   2.121   8.051
83396SOL    HW151962  12.947   2.092   8.140
83396SOL    HW251963  13.015   2.204   8.064
83397SOL     OW51964   0.198   3.500   7.469
83397SOL    HW151965   0.132   3.431   7.475
83397SOL    HW251966   0.281   3.453   7.462
83398SOL     OW51967   0.181  12.775   7.816
83398SOL    HW151968   0.234  12.770   7.736
83398SOL    HW251969   0.202  12.695   7.864
83399SOL     OW51970   1.075   5.055   2.502
83399SOL    HW151971   1.124   5.007   2.569
83399SOL    HW251972   1.036   4.987   2.448
83400SOL     OW51973  12.495  14.661   7.798
83400SOL    HW151974  12.487  14.751   7.830
83400SOL    HW251975  12.404  14.631   7.789
83401SOL     OW51976   8.511  13.172   5.855
83401SOL    HW151977   8.507  13.248   5.914
83401SOL    HW251978   8.564  13.108   5.903
83402SOL     OW51979  11.270  12.939  14.839
83402SOL    HW151980  11.244  12.847  14.847
83402SOL    HW251981  11.190  12.983  14.809
83403SOL     OW51982   2.199  12.238   2.897
83403SOL    HW151983   2.261  12.218   2.967
83403SOL    HW251984   2.254  12.253   2.820
83404SOL     OW51985   5.042   3.414   7.170
83404SOL    HW151986   5.012   3.383   7.255
83404SOL    HW251987   4.998   3.499   7.159
83405SOL     OW51988   4.307   4.146   3.530
83405SOL    HW151989   4.380   4.206   3.521
83405SOL    HW251990   4.255   4.182   3.603
83406SOL     OW51991  10.100   3.538   8.304
83406SOL    HW151992  10.089   3.566   8.395
83406SOL    HW251993  10.013   3.507   8.278
83407SOL     OW51994   9.090   9.832   9.768
83407SOL    HW151995   9.169   9.886   9.767
83407SOL    HW251996   9.098   9.779   9.847
83408SOL     OW51997   6.302   7.955   9.202
83408SOL    HW151998   6.300   7.903   9.122
83408SOL    HW251999   6.359   7.905   9.261
83409SOL     OW52000  12.560  10.288   1.511
83409SOL    HW152001  12.580  10.337   1.591
83409SOL    HW252002  12.471  10.315   1.488
83410SOL     OW52003  14.345   2.268  11.179
83410SOL    HW152004  14.258   2.281  11.141
83410SOL    HW252005  14.401   2.331  11.133
83411SOL     OW52006   2.458   6.511  12.717
83411SOL    HW152007   2.429   6.431  12.674
83411SOL    HW252008   2.554   6.510  12.709
83412SOL     OW52009   4.167   0.719   3.428
83412SOL    HW152010   4.127   0.800   3.397
83412SOL    HW252011   4.147   0.654   3.361
83413SOL     OW52012  10.623   6.997   7.451
83413SOL    HW152013  10.528   6.990   7.442
83413SOL    HW252014  10.658   6.932   7.391
83414SOL     OW52015   2.872   7.700   0.825
83414SOL    HW152016   2.808   7.654   0.878
83414SOL    HW252017   2.944   7.718   0.885
83415SOL     OW52018   2.809  11.972   3.531
83415SOL    HW152019   2.879  12.003   3.588
83415SOL    HW252020   2.750  12.047   3.524
83416SOL     OW52021  13.292  11.115  11.278
83416SOL    HW152022  13.218  11.175  11.292
83416SOL    HW252023  13.272  11.071  11.195
83417SOL     OW52024   9.556   6.600  11.368
83417SOL    HW152025   9.483   6.636  11.419
83417SOL    HW252026   9.553   6.506  11.385
83418SOL     OW52027   4.951  14.010   0.372
83418SOL    HW152028   4.936  13.917   0.355
83418SOL    HW252029   4.982  14.014   0.462
83419SOL     OW52030  12.876   8.591   9.962
83419SOL    HW152031  12.860   8.518  10.021
83419SOL    HW252032  12.790   8.610   9.923
83420SOL     OW52033   5.191   8.122   4.560
83420SOL    HW152034   5.219   8.030   4.561
83420SOL    HW252035   5.272   8.172   4.571
83421SOL     OW52036  14.770   8.232   1.337
83421SOL    HW152037  14.763   8.162   1.402
83421SOL    HW252038  14.683   8.273   1.335
83422SOL     OW52039  12.571   9.126  14.391
83422SOL    HW152040  12.561   9.211  14.434
83422SOL    HW252041  12.568   9.146  14.297
83423SOL     OW52042   4.671  11.747   9.742
83423SOL    HW152043   4.646  11.748   9.650
83423SOL    HW252044   4.719  11.829   9.754
83424SOL     OW52045   6.849   1.967   9.420
83424SOL    HW152046   6.838   1.969   9.515
83424SOL    HW252047   6.943   1.959   9.406
83425SOL     OW52048   3.224  13.420   4.424
83425SOL    HW152049   3.169  13.473   4.482
83425SOL    HW252050   3.177  13.420   4.340
83426SOL     OW52051   9.918   1.295   8.344
83426SOL    HW152052   9.904   1.358   8.414
83426SOL    HW252053   9.847   1.232   8.353
83427SOL     OW52054  14.752  14.035   8.376
83427SOL    HW152055  14.705  14.103   8.425
83427SOL    HW252056  14.843  14.065   8.376
83428SOL     OW52057  13.215   7.625  11.363
83428SOL    HW152058  13.142   7.634  11.425
83428SOL    HW252059  13.179   7.655  11.279
83429SOL     OW52060   1.798  11.855  13.572
83429SOL    HW152061   1.771  11.780  13.625
83429SOL    HW252062   1.788  11.930  13.631
83430SOL     OW52063   0.596  12.904  13.812
83430SOL    HW152064   0.520  12.951  13.847
83430SOL    HW252065   0.565  12.815  13.798
83431SOL     OW52066   0.070   0.100   3.780
83431SOL    HW152067   0.120   0.157   3.721
83431SOL    HW252068   0.052   0.155   3.856
83432SOL     OW52069   7.933  12.800  12.915
83432SOL    HW152070   7.887  12.863  12.860
83432SOL    HW252071   7.994  12.852  12.967
83433SOL     OW52072  11.955  12.736   6.263
83433SOL    HW152073  11.879  12.747   6.320
83433SOL    HW252074  11.977  12.643   6.270
83434SOL     OW52075  13.025  12.982   9.547
83434SOL    HW152076  13.058  12.958   9.460
83434SOL    HW252077  13.092  12.950   9.608
83435SOL     OW52078   8.173   7.201  13.132
83435SOL    HW152079   8.089   7.212  13.175
83435SOL    HW252080   8.177   7.271  13.068
83436SOL     OW52081   1.928   2.517  13.302
83436SOL    HW152082   1.969   2.446  13.252
83436SOL    HW252083   1.899   2.579  13.234
83437SOL     OW52084  10.963   1.973   9.659
83437SOL    HW152085  11.046   1.927   9.674
83437SOL    HW252086  10.902   1.933   9.720
83438SOL     OW52087   6.688  10.996  12.957
83438SOL    HW152088   6.692  10.988  12.862
83438SOL    HW252089   6.595  11.007  12.976
83439SOL     OW52090   9.975   4.630   5.180
83439SOL    HW152091  10.036   4.559   5.195
83439SOL    HW252092   9.962   4.670   5.267
83440SOL     OW52093   9.407  10.322   1.271
83440SOL    HW152094   9.447  10.380   1.335
83440SOL    HW252095   9.355  10.260   1.323
83441SOL     OW52096   5.554   9.374   0.350
83441SOL    HW152097   5.576   9.325   0.271
83441SOL    HW252098   5.618   9.345   0.415
83442SOL     OW52099  11.334   6.065   5.549
83442SOL    HW152100  11.323   6.050   5.455
83442SOL    HW252101  11.321   6.159   5.560
83443SOL     OW52102   8.944  10.636   0.908
83443SOL    HW152103   8.999  10.580   0.854
83443SOL    HW252104   8.857  10.629   0.868
83444SOL     OW52105  13.893   1.262   3.248
83444SOL    HW152106  13.858   1.312   3.175
83444SOL    HW252107  13.984   1.292   3.257
83445SOL     OW52108  12.897   7.088   2.096
83445SOL    HW152109  12.868   7.152   2.162
83445SOL    HW252110  12.976   7.126   2.059
83446SOL     OW52111  13.023   3.963  10.518
83446SOL    HW152112  13.019   4.015  10.438
83446SOL    HW252113  13.054   3.877  10.490
83447SOL     OW52114   6.181  13.673   1.892
83447SOL    HW152115   6.247  13.612   1.927
83447SOL    HW252116   6.224  13.758   1.891
83448SOL     OW52117   9.889   9.427   4.264
83448SOL    HW152118   9.924   9.448   4.350
83448SOL    HW252119   9.809   9.378   4.282
83449SOL     OW52120   8.943   4.363  13.528
83449SOL    HW152121   9.033   4.384  13.555
83449SOL    HW252122   8.892   4.440  13.551
83450SOL     OW52123   1.237   6.992  13.381
83450SOL    HW152124   1.275   6.961  13.299
83450SOL    HW252125   1.263   7.084  13.387
83451SOL     OW52126  11.358   2.935   1.134
83451SOL    HW152127  11.414   2.887   1.196
83451SOL    HW252128  11.369   2.889   1.051
83452SOL     OW52129   6.748  10.471  12.605
83452SOL    HW152130   6.758  10.380  12.633
83452SOL    HW252131   6.669  10.501  12.652
83453SOL     OW52132   8.086  14.691  13.463
83453SOL    HW152133   7.992  14.686  13.444
83453SOL    HW252134   8.127  14.709  13.379
83454SOL     OW52135   9.929   6.757  12.580
83454SOL    HW152136  10.002   6.818  12.587
83454SOL    HW252137   9.950   6.686  12.640
83455SOL     OW52138   4.572  13.706  13.725
83455SOL    HW152139   4.514  13.642  13.766
83455SOL    HW252140   4.620  13.657  13.659
83456SOL     OW52141   3.544   5.072   0.549
83456SOL    HW152142   3.632   5.095   0.579
83456SOL    HW252143   3.558   5.021   0.469
83457SOL     OW52144  13.829   9.327  13.033
83457SOL    HW152145  13.813   9.276  12.954
83457SOL    HW252146  13.794   9.414  13.013
83458SOL     OW52147  13.710   6.212   1.771
83458SOL    HW152148  13.798   6.249   1.768
83458SOL    HW252149  13.676   6.222   1.683
83459SOL     OW52150  11.251  13.014  12.862
83459SOL    HW152151  11.240  12.923  12.892
83459SOL    HW252152  11.341  13.037  12.885
83460SOL     OW52153  10.619   8.399  13.217
83460SOL    HW152154  10.710   8.426  13.225
83460SOL    HW252155  10.573   8.478  13.186
83461SOL     OW52156   3.947   4.269  10.609
83461SOL    HW152157   3.880   4.203  10.625
83461SOL    HW252158   3.911   4.350  10.643
83462SOL     OW52159   9.415   2.041   1.855
83462SOL    HW152160   9.465   2.069   1.931
83462SOL    HW252161   9.325   2.069   1.873
83463SOL     OW52162  12.282   9.535  12.904
83463SOL    HW152163  12.239   9.583  12.975
83463SOL    HW252164  12.305   9.450  12.942
83464SOL     OW52165   5.559   4.447   0.302
83464SOL    HW152166   5.597   4.504   0.368
83464SOL    HW252167   5.464   4.461   0.309
83465SOL     OW52168   6.188   2.126   4.239
83465SOL    HW152169   6.226   2.119   4.326
83465SOL    HW252170   6.101   2.163   4.253
83466SOL     OW52171   6.121   5.984   1.746
83466SOL    HW152172   6.159   5.903   1.713
83466SOL    HW252173   6.033   5.987   1.709
83467SOL     OW52174  14.301   5.998   8.190
83467SOL    HW152175  14.319   5.924   8.248
83467SOL    HW252176  14.226   5.971   8.138
83468SOL     OW52177  12.534   9.924   6.990
83468SOL    HW152178  12.583   9.932   6.909
83468SOL    HW252179  12.535  10.013   7.027
83469SOL     OW52180   7.887   1.667  14.784
83469SOL    HW152181   7.830   1.736  14.818
83469SOL    HW252182   7.879   1.675  14.689
83470SOL     OW52183   8.461   4.421   2.774
83470SOL    HW152184   8.512   4.400   2.851
83470SOL    HW252185   8.374   4.445   2.807
83471SOL     OW52186  13.280   9.062   9.221
83471SOL    HW152187  13.287   9.154   9.245
83471SOL    HW252188  13.186   9.045   9.214
83472SOL     OW52189  11.525   0.691   6.607
83472SOL    HW152190  11.612   0.652   6.603
83472SOL    HW252191  11.487   0.658   6.688
83473SOL     OW52192   9.436  12.973  12.553
83473SOL    HW152193   9.371  12.903  12.555
83473SOL    HW252194   9.454  12.986  12.460
83474SOL     OW52195   2.542  10.411  11.486
83474SOL    HW152196   2.516  10.344  11.549
83474SOL    HW252197   2.563  10.488  11.540
83475SOL     OW52198  12.039   1.665   3.260
83475SOL    HW152199  12.047   1.595   3.324
83475SOL    HW252200  12.129   1.681   3.231
83476SOL     OW52201   6.475  13.754   9.637
83476SOL    HW152202   6.509  13.670   9.667
83476SOL    HW252203   6.463  13.742   9.543
83477SOL     OW52204   9.422   5.509   9.374
83477SOL    HW152205   9.354   5.544   9.432
83477SOL    HW252206   9.504   5.543   9.411
83478SOL     OW52207  11.684  11.164  11.905
83478SOL    HW152208  11.749  11.234  11.911
83478SOL    HW252209  11.720  11.103  11.840
83479SOL     OW52210   8.243   9.762   9.661
83479SOL    HW152211   8.288   9.818   9.725
83479SOL    HW252212   8.300   9.687   9.650
83480SOL     OW52213   0.240  14.495   4.638
83480SOL    HW152214   0.190  14.576   4.653
83480SOL    HW252215   0.323  14.510   4.683
83481SOL     OW52216   8.470   7.956   8.551
83481SOL    HW152217   8.468   7.861   8.549
83481SOL    HW252218   8.563   7.978   8.541
83482SOL     OW52219  13.700  11.633   6.509
83482SOL    HW152220  13.672  11.594   6.426
83482SOL    HW252221  13.761  11.702   6.483
83483SOL     OW52222   3.638   1.081  11.858
83483SOL    HW152223   3.587   1.158  11.884
83483SOL    HW252224   3.572   1.018  11.829
83484SOL     OW52225   1.811  14.702  11.166
83484SOL    HW152226   1.901  14.693  11.133
83484SOL    HW252227   1.790  14.615  11.202
83485SOL     OW52228   4.859   4.002   3.749
83485SOL    HW152229   4.913   4.037   3.820
83485SOL    HW252230   4.839   4.077   3.694
83486SOL     OW52231   9.430  12.818   9.220
83486SOL    HW152232   9.464  12.908   9.215
83486SOL    HW252233   9.350  12.820   9.167
83487SOL     OW52234   2.097  12.648  14.191
83487SOL    HW152235   2.193  12.656  14.194
83487SOL    HW252236   2.081  12.561  14.155
83488SOL     OW52237  12.670   4.848   2.636
83488SOL    HW152238  12.728   4.900   2.581
83488SOL    HW252239  12.597   4.825   2.579
83489SOL     OW52240   9.408   8.481   8.742
83489SOL    HW152241   9.441   8.487   8.653
83489SOL    HW252242   9.333   8.423   8.737
83490SOL     OW52243   3.844   3.821   4.815
83490SOL    HW152244   3.762   3.855   4.777
83490SOL    HW252245   3.888   3.778   4.743
83491SOL     OW52246   9.288   5.147   0.114
83491SOL    HW152247   9.273   5.058   0.144
83491SOL    HW252248   9.202   5.177   0.084
83492SOL     OW52249   6.440  10.564   0.129
83492SOL    HW152250   6.459  10.602   0.214
83492SOL    HW252251   6.525  10.559   0.085
83493SOL     OW52252   2.802  12.300   4.196
83493SOL    HW152253   2.854  12.317   4.117
83493SOL    HW252254   2.832  12.365   4.259
83494SOL     OW52255   7.508  12.812   3.184
83494SOL    HW152256   7.498  12.905   3.204
83494SOL    HW252257   7.419  12.781   3.169
83495SOL     OW52258   2.679   0.471  14.197
83495SOL    HW152259   2.716   0.467  14.109
83495SOL    HW252260   2.735   0.413  14.249
83496SOL     OW52261   5.257   8.157   5.727
83496SOL    HW152262   5.235   8.128   5.816
83496SOL    HW252263   5.186   8.216   5.703
83497SOL     OW52264   2.326   3.482  13.886
83497SOL    HW152265   2.293   3.568  13.915
83497SOL    HW252266   2.394   3.504  13.822
83498SOL     OW52267   3.116   0.673   0.253
83498SOL    HW152268   3.208   0.648   0.259
83498SOL    HW252269   3.079   0.615   0.186
83499SOL     OW52270   0.682   7.616   0.931
83499SOL    HW152271   0.751   7.672   0.966
83499SOL    HW252272   0.640   7.578   1.008
83500SOL     OW52273   3.055  12.054  12.946
83500SOL    HW152274   3.068  12.106  13.025
83500SOL    HW252275   2.964  12.069  12.921
83501SOL     OW52276  12.610  13.715   7.595
83501SOL    HW152277  12.698  13.744   7.570
83501SOL    HW252278  12.617  13.620   7.602
83502SOL     OW52279   1.730   8.998   9.536
83502SOL    HW152280   1.728   9.076   9.590
83502SOL    HW252281   1.737   9.031   9.446
83503SOL     OW52282   0.723   3.244   8.808
83503SOL    HW152283   0.692   3.334   8.801
83503SOL    HW252284   0.773   3.242   8.890
83504SOL     OW52285   1.441  13.266   0.652
83504SOL    HW152286   1.487  13.339   0.610
83504SOL    HW252287   1.507  13.197   0.659
83505SOL     OW52288   6.391   8.593  14.576
83505SOL    HW152289   6.403   8.638  14.492
83505SOL    HW252290   6.458   8.631  14.633
83506SOL     OW52291  14.730  12.698   2.929
83506SOL    HW152292  14.669  12.753   2.979
83506SOL    HW252293  14.729  12.614   2.974
83507SOL     OW52294   6.662   7.826   8.096
83507SOL    HW152295   6.647   7.879   8.175
83507SOL    HW252296   6.585   7.840   8.042
83508SOL     OW52297   4.706   6.910   1.489
83508SOL    HW152298   4.750   6.870   1.415
83508SOL    HW252299   4.742   6.865   1.566
83509SOL     OW52300   9.627   7.414   0.931
83509SOL    HW152301   9.583   7.387   1.011
83509SOL    HW252302   9.589   7.499   0.909
83510SOL     OW52303   1.412   5.609  14.309
83510SOL    HW152304   1.407   5.699  14.276
83510SOL    HW252305   1.505   5.589  14.310
83511SOL     OW52306   5.482   7.868  11.685
83511SOL    HW152307   5.420   7.916  11.629
83511SOL    HW252308   5.567   7.886  11.645
83512SOL     OW52309   1.234   0.948   2.841
83512SOL    HW152310   1.171   0.885   2.806
83512SOL    HW252311   1.280   0.982   2.764
83513SOL     OW52312  13.501   2.827   1.785
83513SOL    HW152313  13.553   2.851   1.707
83513SOL    HW252314  13.444   2.902   1.799
83514SOL     OW52315  10.749   2.344   1.557
83514SOL    HW152316  10.811   2.285   1.515
83514SOL    HW252317  10.670   2.292   1.569
83515SOL     OW52318   4.220   9.626   6.234
83515SOL    HW152319   4.223   9.685   6.159
83515SOL    HW252320   4.131   9.635   6.268
83516SOL     OW52321   4.399   1.805   5.299
83516SOL    HW152322   4.335   1.841   5.238
83516SOL    HW252323   4.368   1.833   5.385
83517SOL     OW52324   4.494  12.454   6.973
83517SOL    HW152325   4.407  12.437   6.938
83517SOL    HW252326   4.479  12.480   7.064
83518SOL     OW52327   4.287   0.470   6.596
83518SOL    HW152328   4.225   0.538   6.570
83518SOL    HW252329   4.265   0.450   6.687
83519SOL     OW52330   4.685   4.620   8.028
83519SOL    HW152331   4.634   4.629   7.948
83519SOL    HW252332   4.703   4.710   8.055
83520SOL     OW52333  13.743   3.016   2.546
83520SOL    HW152334  13.674   2.960   2.509
83520SOL    HW252335  13.700   3.100   2.562
83521SOL     OW52336   6.729  12.092   7.523
83521SOL    HW152337   6.815  12.070   7.559
83521SOL    HW252338   6.742  12.175   7.479
83522SOL     OW52339   5.052  12.557  14.058
83522SOL    HW152340   5.006  12.602  13.988
83522SOL    HW252341   5.048  12.465  14.034
83523SOL     OW52342   1.881   4.749  10.381
83523SOL    HW152343   1.956   4.795  10.343
83523SOL    HW252344   1.804   4.796  10.348
83524SOL     OW52345   5.118   5.283   8.298
83524SOL    HW152346   5.161   5.313   8.378
83524SOL    HW252347   5.024   5.285   8.319
83525SOL     OW52348  11.586   7.743  14.204
83525SOL    HW152349  11.594   7.812  14.269
83525SOL    HW252350  11.603   7.662  14.252
83526SOL     OW52351  14.840  10.331   4.703
83526SOL    HW152352  14.752  10.335   4.666
83526SOL    HW252353  14.836  10.260   4.766
83527SOL     OW52354   9.318   4.726   7.841
83527SOL    HW152355   9.349   4.805   7.796
83527SOL    HW252356   9.225   4.719   7.816
83528SOL     OW52357   4.807   1.274  14.234
83528SOL    HW152358   4.729   1.304  14.187
83528SOL    HW252359   4.796   1.308  14.323
83529SOL     OW52360   1.877   9.773  10.575
83529SOL    HW152361   1.962   9.776  10.618
83529SOL    HW252362   1.887   9.826  10.496
83530SOL     OW52363   3.333  11.445   1.034
83530SOL    HW152364   3.295  11.519   0.987
83530SOL    HW252365   3.259  11.386   1.050
83531SOL     OW52366   7.428  10.432   3.197
83531SOL    HW152367   7.348  10.381   3.193
83531SOL    HW252368   7.404  10.518   3.163
83532SOL     OW52369   7.158  13.072   8.961
83532SOL    HW152370   7.171  13.164   8.981
83532SOL    HW252371   7.166  13.028   9.046
83533SOL     OW52372  12.501   5.121   5.112
83533SOL    HW152373  12.565   5.102   5.181
83533SOL    HW252374  12.417   5.098   5.152
83534SOL     OW52375   3.011  12.401   5.622
83534SOL    HW152376   2.971  12.486   5.606
83534SOL    HW252377   3.103  12.412   5.599
83535SOL     OW52378   3.128   2.144   7.149
83535SOL    HW152379   3.158   2.168   7.061
83535SOL    HW252380   3.035   2.165   7.148
83536SOL     OW52381   7.001   4.938   3.744
83536SOL    HW152382   6.992   4.973   3.655
83536SOL    HW252383   6.946   4.860   3.745
83537SOL     OW52384   0.691   0.084   8.173
83537SOL    HW152385   0.646   0.167   8.191
83537SOL    HW252386   0.621   0.025   8.146
83538SOL     OW52387   7.633  11.532   6.624
83538SOL    HW152388   7.599  11.480   6.551
83538SOL    HW252389   7.714  11.572   6.590
83539SOL     OW52390   4.376   7.082   6.906
83539SOL    HW152391   4.455   7.112   6.951
83539SOL    HW252392   4.371   6.989   6.927
83540SOL     OW52393  14.230   2.648   7.034
83540SOL    HW152394  14.245   2.719   6.971
83540SOL    HW252395  14.178   2.689   7.103
83541SOL     OW52396   5.256   7.967   1.154
83541SOL    HW152397   5.340   7.985   1.112
83541SOL    HW252398   5.277   7.958   1.247
83542SOL     OW52399  10.582   8.858   0.498
83542SOL    HW152400  10.548   8.941   0.465
83542SOL    HW252401  10.592   8.803   0.420
83543SOL     OW52402   8.532   4.675   6.123
83543SOL    HW152403   8.439   4.651   6.123
83543SOL    HW252404   8.552   4.691   6.031
83544SOL     OW52405  14.183   5.960   8.805
83544SOL    HW152406  14.232   5.970   8.724
83544SOL    HW252407  14.246   5.925   8.868
83545SOL     OW52408   2.555   0.527   4.051
83545SOL    HW152409   2.626   0.591   4.054
83545SOL    HW252410   2.580   0.461   4.116
83546SOL     OW52411  11.503  13.216  14.719
83546SOL    HW152412  11.545  13.131  14.732
83546SOL    HW252413  11.528  13.241  14.629
83547SOL     OW52414   3.968   8.297   1.717
83547SOL    HW152415   4.024   8.257   1.651
83547SOL    HW252416   3.945   8.226   1.776
83548SOL     OW52417  11.879   5.995   0.453
83548SOL    HW152418  11.805   5.936   0.468
83548SOL    HW252419  11.897   5.988   0.360
83549SOL     OW52420  11.831   1.850   2.039
83549SOL    HW152421  11.875   1.929   2.071
83549SOL    HW252422  11.851   1.784   2.105
83550SOL     OW52423  13.896   0.226   4.331
83550SOL    HW152424  13.984   0.208   4.297
83550SOL    HW252425  13.910   0.253   4.422
83551SOL     OW52426   4.920   3.231   2.019
83551SOL    HW152427   5.008   3.194   2.025
83551SOL    HW252428   4.881   3.188   1.943
83552SOL     OW52429  13.140  14.237   1.878
83552SOL    HW152430  13.094  14.229   1.962
83552SOL    HW252431  13.073  14.268   1.817
83553SOL     OW52432   4.654   7.423   9.468
83553SOL    HW152433   4.745   7.425   9.437
83553SOL    HW252434   4.658   7.374   9.550
83554SOL     OW52435   3.504   3.351  14.351
83554SOL    HW152436   3.561   3.415  14.394
83554SOL    HW252437   3.563   3.279  14.328
83555SOL     OW52438   2.555   3.094  13.404
83555SOL    HW152439   2.543   3.168  13.345
83555SOL    HW252440   2.479   3.097  13.463
83556SOL     OW52441  13.205   8.375   2.892
83556SOL    HW152442  13.222   8.424   2.972
83556SOL    HW252443  13.123   8.329   2.909
83557SOL     OW52444   1.739  12.994  14.480
83557SOL    HW152445   1.671  13.053  14.446
83557SOL    HW252446   1.799  12.982  14.406
83558SOL     OW52447   6.110   7.902   2.253
83558SOL    HW152448   6.160   7.916   2.172
83558SOL    HW252449   6.050   7.831   2.232
83559SOL     OW52450   3.131   7.995   1.834
83559SOL    HW152451   3.133   8.011   1.739
83559SOL    HW252452   3.042   8.016   1.860
83560SOL     OW52453   4.341  13.983  10.028
83560SOL    HW152454   4.416  13.960  10.083
83560SOL    HW252455   4.362  14.071   9.995
83561SOL     OW52456  14.029   5.823   1.549
83561SOL    HW152457  14.105   5.871   1.581
83561SOL    HW252458  14.066   5.749   1.500
83562SOL     OW52459   4.921   1.275   9.008
83562SOL    HW152460   4.972   1.230   8.941
83562SOL    HW252461   4.862   1.208   9.042
83563SOL     OW52462   0.257   1.078   6.522
83563SOL    HW152463   0.321   1.037   6.464
83563SOL    HW252464   0.204   1.005   6.555
83564SOL     OW52465   7.358   9.563   9.565
83564SOL    HW152466   7.297   9.552   9.491
83564SOL    HW252467   7.415   9.634   9.538
83565SOL     OW52468   1.606   2.951   7.413
83565SOL    HW152469   1.543   2.883   7.388
83565SOL    HW252470   1.690   2.918   7.382
83566SOL     OW52471  11.488   0.879   0.418
83566SOL    HW152472  11.518   0.970   0.424
83566SOL    HW252473  11.425   0.870   0.490
83567SOL     OW52474   4.645   9.568   9.876
83567SOL    HW152475   4.612   9.481   9.900
83567SOL    HW252476   4.739   9.563   9.893
83568SOL     OW52477   7.584  12.449   4.196
83568SOL    HW152478   7.650  12.411   4.138
83568SOL    HW252479   7.591  12.543   4.180
83569SOL     OW52480  14.719   9.967   6.676
83569SOL    HW152481  14.718   9.952   6.581
83569SOL    HW252482  14.648   9.913   6.709
83570SOL     OW52483   5.596   4.244  10.506
83570SOL    HW152484   5.622   4.323  10.553
83570SOL    HW252485   5.622   4.260  10.415
83571SOL     OW52486   7.349  12.283   7.200
83571SOL    HW152487   7.403  12.248   7.271
83571SOL    HW252488   7.275  12.223   7.194
83572SOL     OW52489   8.849   0.287   1.283
83572SOL    HW152490   8.808   0.308   1.199
83572SOL    HW252491   8.941   0.313   1.272
83573SOL     OW52492  13.565   3.915   3.173
83573SOL    HW152493  13.584   3.899   3.265
83573SOL    HW252494  13.638   3.877   3.126
83574SOL     OW52495  11.280   4.507   5.381
83574SOL    HW152496  11.278   4.562   5.302
83574SOL    HW252497  11.241   4.424   5.353
83575SOL     OW52498   7.277  11.863   1.000
83575SOL    HW152499   7.276  11.894   0.909
83575SOL    HW252500   7.310  11.773   0.994
83576SOL     OW52501   3.746   1.836  13.739
83576SOL    HW152502   3.812   1.874  13.798
83576SOL    HW252503   3.784   1.843  13.652
83577SOL     OW52504  12.021   9.625   6.103
83577SOL    HW152505  12.100   9.575   6.082
83577SOL    HW252506  11.966   9.563   6.151
83578SOL     OW52507   1.569   4.563  10.604
83578SOL    HW152508   1.657   4.594  10.584
83578SOL    HW252509   1.516   4.642  10.612
83579SOL     OW52510  10.669   6.254   4.822
83579SOL    HW152511  10.600   6.316   4.795
83579SOL    HW252512  10.702   6.289   4.904
83580SOL     OW52513   5.540   6.790   4.815
83580SOL    HW152514   5.599   6.812   4.887
83580SOL    HW252515   5.475   6.860   4.816
83581SOL     OW52516  14.542   4.907   2.821
83581SOL    HW152517  14.468   4.922   2.762
83581SOL    HW252518  14.578   4.994   2.837
83582SOL     OW52519   1.961   9.507   6.019
83582SOL    HW152520   1.965   9.425   5.970
83582SOL    HW252521   1.867   9.526   6.026
83583SOL     OW52522  10.766  14.698   6.436
83583SOL    HW152523  10.671  14.688   6.425
83583SOL    HW252524  10.796  14.611   6.464
83584SOL     OW52525   7.229  14.163   7.773
83584SOL    HW152526   7.219  14.089   7.832
83584SOL    HW252527   7.315  14.149   7.732
83585SOL     OW52528  10.271  10.343   4.577
83585SOL    HW152529  10.182  10.329   4.543
83585SOL    HW252530  10.323  10.272   4.538
83586SOL     OW52531   6.568  12.757   3.464
83586SOL    HW152532   6.627  12.693   3.426
83586SOL    HW252533   6.487  12.708   3.481
83587SOL     OW52534  10.388   1.846   0.133
83587SOL    HW152535  10.318   1.788   0.102
83587SOL    HW252536  10.460   1.787   0.155
83588SOL     OW52537  13.233   9.621   9.530
83588SOL    HW152538  13.200   9.660   9.611
83588SOL    HW252539  13.155   9.584   9.489
83589SOL     OW52540   4.221   7.531  12.761
83589SOL    HW152541   4.145   7.584  12.785
83589SOL    HW252542   4.194   7.441  12.780
83590SOL     OW52543   1.538  12.391  10.012
83590SOL    HW152544   1.499  12.467  10.055
83590SOL    HW252545   1.465  12.349   9.965
83591SOL     OW52546   5.861   6.486  13.031
83591SOL    HW152547   5.786   6.484  13.090
83591SOL    HW252548   5.908   6.566  13.055
83592SOL     OW52549  14.111   2.327  11.079
83592SOL    HW152550  14.066   2.403  11.114
83592SOL    HW252551  14.067   2.252  11.119
83593SOL     OW52552  12.146   2.227  14.263
83593SOL    HW152553  12.176   2.210  14.174
83593SOL    HW252554  12.197   2.303  14.291
83594SOL     OW52555  14.720   7.108   6.163
83594SOL    HW152556  14.767   7.051   6.224
83594SOL    HW252557  14.787   7.136   6.100
83595SOL     OW52558   3.117   4.934  11.955
83595SOL    HW152559   3.090   4.907  11.867
83595SOL    HW252560   3.082   4.866  12.013
83596SOL     OW52561  11.613  14.049   5.410
83596SOL    HW152562  11.587  14.003   5.330
83596SOL    HW252563  11.630  14.139   5.382
83597SOL     OW52564  10.025  12.849   3.288
83597SOL    HW152565   9.938  12.864   3.250
83597SOL    HW252566  10.081  12.830   3.212
83598SOL     OW52567  12.237   9.747   8.064
83598SOL    HW152568  12.151   9.740   8.023
83598SOL    HW252569  12.285   9.807   8.007
83599SOL     OW52570   3.241  14.304   4.733
83599SOL    HW152571   3.149  14.309   4.758
83599SOL    HW252572   3.246  14.228   4.675
83600SOL     OW52573   8.902   0.261   4.418
83600SOL    HW152574   8.991   0.259   4.384
83600SOL    HW252575   8.853   0.311   4.353
83601SOL     OW52576   0.247  14.039   3.168
83601SOL    HW152577   0.181  13.973   3.186
83601SOL    HW252578   0.269  14.075   3.254
83602SOL     OW52579  14.551   2.643   1.388
83602SOL    HW152580  14.501   2.564   1.409
83602SOL    HW252581  14.514   2.674   1.306
83603SOL     OW52582  11.078   3.516  10.952
83603SOL    HW152583  11.031   3.595  10.925
83603SOL    HW252584  11.083   3.522  11.047
83604SOL     OW52585   7.985   4.800   4.943
83604SOL    HW152586   8.039   4.733   4.984
83604SOL    HW252587   7.896   4.765   4.948
83605SOL     OW52588   2.793   6.844   9.003
83605SOL    HW152589   2.867   6.791   8.975
83605SOL    HW252590   2.797   6.923   8.950
83606SOL     OW52591  13.904   2.244   9.018
83606SOL    HW152592  13.983   2.191   9.026
83606SOL    HW252593  13.833   2.181   9.007
83607SOL     OW52594   7.566   9.347   2.373
83607SOL    HW152595   7.533   9.284   2.309
83607SOL    HW252596   7.608   9.414   2.320
83608SOL     OW52597   6.070   7.675  11.206
83608SOL    HW152598   6.064   7.723  11.123
83608SOL    HW252599   6.091   7.742  11.271
83609SOL     OW52600   2.611   5.785  10.093
83609SOL    HW152601   2.599   5.780  10.188
83609SOL    HW252602   2.597   5.695  10.063
83610SOL     OW52603  10.559   0.648  14.643
83610SOL    HW152604  10.558   0.624  14.736
83610SOL    HW252605  10.615   0.581  14.603
83611SOL     OW52606   1.637  10.662  11.274
83611SOL    HW152607   1.573  10.597  11.303
83611SOL    HW252608   1.690  10.617  11.209
83612SOL     OW52609   2.525  13.980   6.548
83612SOL    HW152610   2.517  13.907   6.487
83612SOL    HW252611   2.604  14.026   6.520
83613SOL     OW52612   9.812   3.901   8.295
83613SOL    HW152613   9.725   3.940   8.305
83613SOL    HW252614   9.802   3.840   8.221
83614SOL     OW52615   7.848   5.939   6.403
83614SOL    HW152616   7.906   5.883   6.455
83614SOL    HW252617   7.862   5.910   6.313
83615SOL     OW52618   3.926   6.593   5.562
83615SOL    HW152619   3.897   6.536   5.634
83615SOL    HW252620   4.015   6.618   5.586
83616SOL     OW52621   1.532   3.670  14.262
83616SOL    HW152622   1.460   3.632  14.312
83616SOL    HW252623   1.611   3.642  14.308
83617SOL     OW52624  13.180   0.997  12.383
83617SOL    HW152625  13.196   0.938  12.457
83617SOL    HW252626  13.227   0.957  12.310
83618SOL     OW52627   5.260   4.264   3.414
83618SOL    HW152628   5.303   4.179   3.422
83618SOL    HW252629   5.328   4.327   3.438
83619SOL     OW52630   9.725   7.189   1.717
83619SOL    HW152631   9.689   7.258   1.661
83619SOL    HW252632   9.798   7.230   1.763
83620SOL     OW52633   3.101   5.615   8.055
83620SOL    HW152634   3.035   5.652   8.114
83620SOL    HW252635   3.178   5.671   8.067
83621SOL     OW52636   7.501  14.610   7.456
83621SOL    HW152637   7.460  14.680   7.405
83621SOL    HW252638   7.512  14.646   7.543
83622SOL     OW52639  13.314   7.930   1.795
83622SOL    HW152640  13.342   7.967   1.879
83622SOL    HW252641  13.298   8.006   1.739
83623SOL     OW52642  10.055   8.068   3.760
83623SOL    HW152643  10.099   7.993   3.798
83623SOL    HW252644   9.962   8.045   3.763
83624SOL     OW52645   4.610   7.005  10.701
83624SOL    HW152646   4.604   7.061  10.624
83624SOL    HW252647   4.586   7.063  10.774
83625SOL     OW52648   8.921   5.994   0.941
83625SOL    HW152649   8.976   5.917   0.924
83625SOL    HW252650   8.858   5.994   0.870
83626SOL     OW52651   6.594   1.206   9.354
83626SOL    HW152652   6.610   1.286   9.403
83626SOL    HW252653   6.503   1.213   9.324
83627SOL     OW52654  11.215   3.589  13.897
83627SOL    HW152655  11.272   3.647  13.948
83627SOL    HW252656  11.270   3.556  13.826
83628SOL     OW52657  13.601   3.048  10.540
83628SOL    HW152658  13.626   3.135  10.569
83628SOL    HW252659  13.583   3.058  10.446
83629SOL     OW52660   6.462   8.614  10.232
83629SOL    HW152661   6.528   8.635  10.298
83629SOL    HW252662   6.501   8.645  10.150
83630SOL     OW52663   8.290   5.043  14.773
83630SOL    HW152664   8.199   5.021  14.790
83630SOL    HW252665   8.298   5.038  14.678
83631SOL     OW52666  14.054   0.067  11.423
83631SOL    HW152667  14.078   0.022  11.504
83631SOL    HW252668  13.969   0.030  11.399
83632SOL     OW52669   4.319   5.862  13.434
83632SOL    HW152670   4.275   5.779  13.453
83632SOL    HW252671   4.359   5.848  13.348
83633SOL     OW52672   7.678  13.728   3.528
83633SOL    HW152673   7.602  13.762   3.575
83633SOL    HW252674   7.752  13.778   3.564
83634SOL     OW52675  13.188  14.715   7.125
83634SOL    HW152676  13.130  14.685   7.055
83634SOL    HW252677  13.183  14.811   7.120
83635SOL     OW52678  10.322  10.850   7.969
83635SOL    HW152679  10.227  10.853   7.958
83635SOL    HW252680  10.334  10.829   8.061
83636SOL     OW52681   4.344   4.015  10.586
83636SOL    HW152682   4.277   4.081  10.567
83636SOL    HW252683   4.407   4.022  10.515
83637SOL     OW52684  14.090   7.480   9.142
83637SOL    HW152685  14.134   7.504   9.224
83637SOL    HW252686  14.079   7.562   9.095
83638SOL     OW52687   4.654   9.147   8.102
83638SOL    HW152688   4.570   9.101   8.104
83638SOL    HW252689   4.637   9.231   8.145
83639SOL     OW52690  13.448  14.815   1.284
83639SOL    HW152691  13.500  14.838   1.361
83639SOL    HW252692  13.480  14.729   1.258
83640SOL     OW52693   0.220  13.199  13.349
83640SOL    HW152694   0.134  13.163  13.372
83640SOL    HW252695   0.229  13.182  13.255
83641SOL     OW52696   3.250  10.088   3.545
83641SOL    HW152697   3.207  10.003   3.554
83641SOL    HW252698   3.287  10.105   3.632
83642SOL     OW52699   1.626   4.286   9.459
83642SOL    HW152700   1.699   4.271   9.400
83642SOL    HW252701   1.558   4.226   9.429
83643SOL     OW52702   1.779   1.557   2.809
83643SOL    HW152703   1.769   1.581   2.901
83643SOL    HW252704   1.773   1.641   2.762
83644SOL     OW52705   8.230   7.718  12.449
83644SOL    HW152706   8.297   7.725  12.380
83644SOL    HW252707   8.234   7.627  12.476
83645SOL     OW52708   0.011  13.921   4.246
83645SOL    HW152709   0.045  13.833   4.230
83645SOL    HW252710   0.075  13.979   4.205
83646SOL     OW52711   1.022   9.054   7.188
83646SOL    HW152712   1.068   9.138   7.195
83646SOL    HW252713   1.089   8.988   7.206
83647SOL     OW52714  12.041  11.473   6.962
83647SOL    HW152715  12.134  11.469   6.942
83647SOL    HW252716  12.038  11.482   7.058
83648SOL     OW52717  14.672   8.877   2.444
83648SOL    HW152718  14.730   8.948   2.470
83648SOL    HW252719  14.650   8.833   2.526
83649SOL     OW52720  12.361   6.809   8.466
83649SOL    HW152721  12.400   6.860   8.537
83649SOL    HW252722  12.374   6.862   8.388
83650SOL     OW52723   6.311   6.710  10.418
83650SOL    HW152724   6.289   6.753  10.501
83650SOL    HW252725   6.367   6.773  10.373
83651SOL     OW52726  14.262  13.671  13.256
83651SOL    HW152727  14.320  13.678  13.332
83651SOL    HW252728  14.175  13.659  13.295
83652SOL     OW52729   3.756   9.026   5.322
83652SOL    HW152730   3.848   9.000   5.325
83652SOL    HW252731   3.759   9.120   5.305
83653SOL     OW52732  10.079  11.037   5.169
83653SOL    HW152733  10.157  11.009   5.120
83653SOL    HW252734  10.110  11.045   5.260
83654SOL     OW52735  11.945   2.947   3.948
83654SOL    HW152736  11.865   2.895   3.947
83654SOL    HW252737  12.009   2.895   3.899
83655SOL     OW52738   5.779   3.701  14.449
83655SOL    HW152739   5.867   3.723  14.480
83655SOL    HW252740   5.720   3.740  14.514
83656SOL     OW52741   3.420   5.903   0.218
83656SOL    HW152742   3.421   5.998   0.201
83656SOL    HW252743   3.347   5.890   0.278
83657SOL     OW52744   9.881  12.834   2.945
83657SOL    HW152745   9.845  12.859   3.030
83657SOL    HW252746   9.823  12.876   2.881
83658SOL     OW52747   3.942  14.060   1.117
83658SOL    HW152748   4.016  14.054   1.176
83658SOL    HW252749   3.901  14.144   1.138
83659SOL     OW52750  12.043   2.377   0.443
83659SOL    HW152751  12.122   2.323   0.437
83659SOL    HW252752  11.971   2.316   0.426
83660SOL     OW52753  12.280   2.627   9.587
83660SOL    HW152754  12.216   2.577   9.638
83660SOL    HW252755  12.304   2.699   9.645
83661SOL     OW52756  11.328   2.817   8.310
83661SOL    HW152757  11.261   2.753   8.285
83661SOL    HW252758  11.401   2.764   8.343
83662SOL     OW52759   6.683   4.399  11.605
83662SOL    HW152760   6.609   4.355  11.646
83662SOL    HW252761   6.753   4.333  11.605
83663SOL     OW52762   6.526   1.974  11.037
83663SOL    HW152763   6.470   1.952  11.111
83663SOL    HW252764   6.613   1.985  11.075
83664SOL     OW52765   1.607  12.683   0.255
83664SOL    HW152766   1.528  12.717   0.298
83664SOL    HW252767   1.596  12.707   0.163
83665SOL     OW52768   2.172   0.287  10.487
83665SOL    HW152769   2.087   0.298  10.444
83665SOL    HW252770   2.195   0.374  10.520
83666SOL     OW52771  10.590   9.382   3.635
83666SOL    HW152772  10.597   9.304   3.580
83666SOL    HW252773  10.672   9.430   3.621
83667SOL     OW52774   6.268  11.219   1.271
83667SOL    HW152775   6.291  11.126   1.276
83667SOL    HW252776   6.276  11.240   1.178
83668SOL     OW52777   7.449   3.376   0.490
83668SOL    HW152778   7.388   3.440   0.454
83668SOL    HW252779   7.470   3.319   0.416
83669SOL     OW52780  12.830   7.296   2.238
83669SOL    HW152781  12.903   7.350   2.209
83669SOL    HW252782  12.829   7.306   2.333
83670SOL     OW52783   1.820   7.459  13.738
83670SOL    HW152784   1.750   7.420  13.789
83670SOL    HW252785   1.815   7.415  13.653
83671SOL     OW52786   7.233   4.341   5.414
83671SOL    HW152787   7.232   4.402   5.487
83671SOL    HW252788   7.142   4.315   5.402
83672SOL     OW52789   6.766   1.753   9.291
83672SOL    HW152790   6.797   1.832   9.335
83672SOL    HW252791   6.675   1.743   9.318
83673SOL     OW52792   8.729  12.979   1.751
83673SOL    HW152793   8.650  12.960   1.801
83673SOL    HW252794   8.710  12.950   1.662
83674SOL     OW52795  11.595   7.428  13.904
83674SOL    HW152796  11.548   7.510  13.920
83674SOL    HW252797  11.577   7.374  13.981
83675SOL     OW52798  11.981   1.093   1.178
83675SOL    HW152799  12.070   1.111   1.147
83675SOL    HW252800  11.992   1.078   1.272
83676SOL     OW52801   4.062  14.489  12.420
83676SOL    HW152802   3.986  14.517  12.471
83676SOL    HW252803   4.083  14.402  12.454
83677SOL     OW52804   3.264  10.004  10.161
83677SOL    HW152805   3.327   9.999  10.090
83677SOL    HW252806   3.188  10.047  10.123
83678SOL     OW52807  11.228  12.164   4.107
83678SOL    HW152808  11.253  12.148   4.016
83678SOL    HW252809  11.224  12.076   4.146
83679SOL     OW52810   3.789  11.542   2.216
83679SOL    HW152811   3.819  11.602   2.148
83679SOL    HW252812   3.837  11.461   2.199
83680SOL     OW52813  11.605   0.272   4.648
83680SOL    HW152814  11.563   0.287   4.733
83680SOL    HW252815  11.551   0.321   4.586
83681SOL     OW52816   8.491   2.058   6.402
83681SOL    HW152817   8.404   2.078   6.368
83681SOL    HW252818   8.505   1.966   6.380
83682SOL     OW52819  11.712  12.655  14.189
83682SOL    HW152820  11.715  12.633  14.096
83682SOL    HW252821  11.730  12.572  14.234
83683SOL     OW52822  13.310  10.547   0.901
83683SOL    HW152823  13.399  10.522   0.926
83683SOL    HW252824  13.255  10.516   0.973
83684SOL     OW52825  10.252   6.474   8.213
83684SOL    HW152826  10.229   6.548   8.156
83684SOL    HW252827  10.259   6.512   8.300
83685SOL     OW52828   1.808   0.687   3.613
83685SOL    HW152829   1.828   0.603   3.572
83685SOL    HW252830   1.793   0.666   3.705
83686SOL     OW52831   7.267   6.023   1.652
83686SOL    HW152832   7.182   6.028   1.696
83686SOL    HW252833   7.327   5.991   1.719
83687SOL     OW52834   5.175  11.446   4.663
83687SOL    HW152835   5.119  11.383   4.708
83687SOL    HW252836   5.191  11.515   4.727
83688SOL     OW52837   4.692   3.739   7.662
83688SOL    HW152838   4.734   3.669   7.710
83688SOL    HW252839   4.761   3.776   7.607
83689SOL     OW52840   1.797  11.708   1.129
83689SOL    HW152841   1.759  11.624   1.155
83689SOL    HW252842   1.751  11.732   1.049
83690SOL     OW52843   0.927  11.115   7.543
83690SOL    HW152844   0.851  11.061   7.565
83690SOL    HW252845   0.929  11.182   7.611
83691SOL     OW52846   7.262  14.658  11.879
83691SOL    HW152847   7.286  14.724  11.944
83691SOL    HW252848   7.314  14.581  11.902
83692SOL     OW52849   6.754  10.957  10.763
83692SOL    HW152850   6.740  10.894  10.692
83692SOL    HW252851   6.667  10.976  10.796
83693SOL     OW52852  13.655   4.545   6.406
83693SOL    HW152853  13.586   4.539   6.339
83693SOL    HW252854  13.611   4.584   6.482
83694SOL     OW52855   9.067   7.033   0.006
83694SOL    HW152856   9.068   7.129   0.012
83694SOL    HW252857   9.033   7.014  14.797
83695SOL     OW52858   2.849   0.197  12.787
83695SOL    HW152859   2.824   0.124  12.843
83695SOL    HW252860   2.860   0.158  12.700
83696SOL     OW52861   8.951   7.708  12.577
83696SOL    HW152862   8.881   7.744  12.631
83696SOL    HW252863   8.906   7.668  12.503
83697SOL     OW52864   5.918   3.824  14.090
83697SOL    HW152865   5.831   3.856  14.069
83697SOL    HW252866   5.904   3.732  14.113
83698SOL     OW52867   9.927  14.255   3.580
83698SOL    HW152868   9.902  14.290   3.495
83698SOL    HW252869   9.958  14.330   3.630
83699SOL     OW52870   9.567  14.829   9.367
83699SOL    HW152871   9.596   0.019   9.428
83699SOL    HW252872   9.628  14.756   9.381
83700SOL     OW52873   8.001   3.708   6.723
83700SOL    HW152874   7.935   3.668   6.780
83700SOL    HW252875   8.056   3.634   6.696
83701SOL     OW52876  14.068  12.872   3.694
83701SOL    HW152877  14.011  12.939   3.657
83701SOL    HW252878  14.007  12.807   3.730
83702SOL     OW52879  11.587   9.177   5.933
83702SOL    HW152880  11.646   9.194   6.006
83702SOL    HW252881  11.500   9.198   5.968
83703SOL     OW52882   4.628   3.949   5.186
83703SOL    HW152883   4.585   3.906   5.113
83703SOL    HW252884   4.722   3.933   5.171
83704SOL     OW52885   2.876   9.455   1.905
83704SOL    HW152886   2.823   9.383   1.872
83704SOL    HW252887   2.908   9.499   1.826
83705SOL     OW52888   4.656   1.415   7.512
83705SOL    HW152889   4.688   1.416   7.602
83705SOL    HW252890   4.565   1.445   7.518
83706SOL     OW52891  12.402   9.744   4.893
83706SOL    HW152892  12.406   9.661   4.844
83706SOL    HW252893  12.313   9.745   4.928
83707SOL     OW52894  14.866   4.595  10.364
83707SOL    HW152895   0.068   4.648  10.371
83707SOL    HW252896  14.818   4.614  10.445
83708SOL     OW52897  12.122  12.331   7.411
83708SOL    HW152898  12.105  12.393   7.482
83708SOL    HW252899  12.061  12.259   7.427
83709SOL     OW52900  10.901   6.485   6.560
83709SOL    HW152901  10.875   6.404   6.603
83709SOL    HW252902  10.848   6.488   6.480
83710SOL     OW52903  14.411   4.226   6.323
83710SOL    HW152904  14.360   4.304   6.343
83710SOL    HW252905  14.419   4.225   6.228
83711SOL     OW52906   1.642  13.042   4.403
83711SOL    HW152907   1.711  13.070   4.463
83711SOL    HW252908   1.688  13.005   4.328
83712SOL     OW52909  13.964   8.843   2.974
83712SOL    HW152910  13.944   8.930   3.009
83712SOL    HW252911  14.059   8.842   2.964
83713SOL     OW52912   9.852  10.279   8.666
83713SOL    HW152913   9.766  10.255   8.702
83713SOL    HW252914   9.898  10.196   8.655
83714SOL     OW52915   9.274   3.034   6.101
83714SOL    HW152916   9.223   2.954   6.090
83714SOL    HW252917   9.218   3.092   6.153
83715SOL     OW52918   8.115   5.042   4.953
83715SOL    HW152919   8.061   4.966   4.933
83715SOL    HW252920   8.202   5.006   4.970
83716SOL     OW52921  13.562  14.068  14.174
83716SOL    HW152922  13.565  13.997  14.238
83716SOL    HW252923  13.646  14.113  14.184
83717SOL     OW52924   9.869  14.435   2.573
83717SOL    HW152925   9.842  14.440   2.665
83717SOL    HW252926   9.865  14.525   2.542
83718SOL     OW52927  14.136   1.406   3.269
83718SOL    HW152928  14.200   1.475   3.256
83718SOL    HW252929  14.102   1.421   3.357
83719SOL     OW52930   0.592   1.368  12.445
83719SOL    HW152931   0.546   1.290  12.478
83719SOL    HW252932   0.603   1.351  12.352
83720SOL     OW52933  10.718  14.416   4.091
83720SOL    HW152934  10.645  14.452   4.141
83720SOL    HW252935  10.729  14.476   4.017
83721SOL     OW52936   4.587   2.704   9.170
83721SOL    HW152937   4.577   2.774   9.235
83721SOL    HW252938   4.605   2.750   9.088
83722SOL     OW52939  12.551  12.666  10.027
83722SOL    HW152940  12.629  12.633   9.983
83722SOL    HW252941  12.497  12.588  10.043
83723SOL     OW52942  10.644   3.101   9.846
83723SOL    HW152943  10.563   3.052   9.837
83723SOL    HW252944  10.713   3.036   9.833
83724SOL     OW52945   2.440   0.593  12.681
83724SOL    HW152946   2.350   0.589  12.715
83724SOL    HW252947   2.488   0.528  12.731
83725SOL     OW52948   7.322   1.277  11.845
83725SOL    HW152949   7.243   1.231  11.874
83725SOL    HW252950   7.295   1.368  11.838
83726SOL     OW52951   2.253   9.378   5.121
83726SOL    HW152952   2.334   9.391   5.170
83726SOL    HW252953   2.236   9.284   5.129
83727SOL     OW52954   2.067  11.158   8.523
83727SOL    HW152955   2.019  11.084   8.561
83727SOL    HW252956   2.145  11.118   8.484
83728SOL     OW52957   6.918   5.237  12.900
83728SOL    HW152958   6.868   5.318  12.897
83728SOL    HW252959   6.923   5.214  12.993
83729SOL     OW52960   8.364   4.442   4.217
83729SOL    HW152961   8.271   4.447   4.195
83729SOL    HW252962   8.388   4.351   4.199
83730SOL     OW52963  12.432   3.151   0.310
83730SOL    HW152964  12.513   3.168   0.261
83730SOL    HW252965  12.461   3.115   0.393
83731SOL     OW52966   3.000   3.268   8.962
83731SOL    HW152967   2.975   3.341   8.905
83731SOL    HW252968   2.988   3.302   9.051
83732SOL     OW52969   0.713   8.817  12.584
83732SOL    HW152970   0.750   8.875  12.517
83732SOL    HW252971   0.705   8.732  12.541
83733SOL     OW52972   6.993   5.965   7.188
83733SOL    HW152973   7.005   6.020   7.266
83733SOL    HW252974   7.082   5.943   7.162
83734SOL     OW52975  14.661   5.393  11.062
83734SOL    HW152976  14.580   5.411  11.110
83734SOL    HW252977  14.677   5.474  11.013
83735SOL     OW52978  10.130  13.246  14.448
83735SOL    HW152979  10.194  13.297  14.497
83735SOL    HW252980  10.100  13.305  14.378
83736SOL     OW52981  11.013  12.640  10.901
83736SOL    HW152982  11.059  12.647  10.985
83736SOL    HW252983  10.947  12.572  10.915
83737SOL     OW52984   9.207   2.564  13.107
83737SOL    HW152985   9.143   2.626  13.073
83737SOL    HW252986   9.155   2.502  13.159
83738SOL     OW52987  11.208   6.901   3.610
83738SOL    HW152988  11.144   6.951   3.661
83738SOL    HW252989  11.216   6.818   3.656
83739SOL     OW52990   4.506   2.361   1.267
83739SOL    HW152991   4.478   2.445   1.304
83739SOL    HW252992   4.432   2.303   1.281
83740SOL     OW52993   4.585   3.796   2.166
83740SOL    HW152994   4.636   3.772   2.088
83740SOL    HW252995   4.509   3.841   2.131
83741SOL     OW52996   1.944   5.735   6.018
83741SOL    HW152997   1.866   5.772   6.059
83741SOL    HW252998   1.972   5.665   6.077
83742SOL     OW52999   3.190  13.248   6.091
83742SOL    HW153000   3.221  13.164   6.125
83742SOL    HW253001   3.185  13.235   5.996
83743SOL     OW53002   9.285   7.760  13.913
83743SOL    HW153003   9.204   7.770  13.964
83743SOL    HW253004   9.330   7.844  13.925
83744SOL     OW53005  14.554  10.196  13.498
83744SOL    HW153006  14.632  10.146  13.475
83744SOL    HW253007  14.588  10.275  13.541
83745SOL     OW53008   2.815   2.901   4.446
83745SOL    HW153009   2.774   2.830   4.397
83745SOL    HW253010   2.893   2.863   4.485
83746SOL     OW53011   7.097   7.071  10.307
83746SOL    HW153012   7.106   7.109  10.394
83746SOL    HW253013   7.118   7.143  10.247
83747SOL     OW53014   0.394   3.814  10.718
83747SOL    HW153015   0.469   3.788  10.665
83747SOL    HW253016   0.348   3.733  10.737
83748SOL     OW53017   5.752   2.062  13.125
83748SOL    HW153018   5.778   2.081  13.215
83748SOL    HW253019   5.690   2.131  13.103
83749SOL     OW53020  14.639  13.088  14.576
83749SOL    HW153021  14.674  13.042  14.653
83749SOL    HW253022  14.589  13.161  14.612
83750SOL     OW53023  13.274  14.499   9.568
83750SOL    HW153024  13.325  14.436   9.516
83750SOL    HW253025  13.338  14.537   9.628
83751SOL     OW53026   2.414   4.408  10.526
83751SOL    HW153027   2.405   4.430  10.619
83751SOL    HW253028   2.508   4.397  10.512
83752SOL     OW53029  11.567   9.604   6.824
83752SOL    HW153030  11.553   9.515   6.790
83752SOL    HW253031  11.594   9.655   6.748
83753SOL     OW53032   1.357   8.436   9.955
83753SOL    HW153033   1.352   8.522   9.913
83753SOL    HW253034   1.335   8.451  10.046
83754SOL     OW53035   6.264   7.502   9.358
83754SOL    HW153036   6.186   7.551   9.381
83754SOL    HW253037   6.335   7.546   9.406
83755SOL     OW53038   7.235   4.475  10.964
83755SOL    HW153039   7.155   4.422  10.968
83755SOL    HW253040   7.305   4.411  10.955
83756SOL     OW53041   1.834  12.783   9.250
83756SOL    HW153042   1.901  12.801   9.184
83756SOL    HW253043   1.849  12.693   9.276
83757SOL     OW53044  11.276   0.061   6.573
83757SOL    HW153045  11.346  14.874   6.566
83757SOL    HW253046  11.318   0.144   6.548
83758SOL     OW53047   6.069   4.755   0.029
83758SOL    HW153048   6.031   4.705  14.835
83758SOL    HW253049   6.152   4.788  14.873
83759SOL     OW53050  10.437  12.430  13.692
83759SOL    HW153051  10.525  12.468  13.692
83759SOL    HW253052  10.418  12.417  13.785
83760SOL     OW53053   8.774   0.846  14.499
83760SOL    HW153054   8.773   0.920  14.560
83760SOL    HW253055   8.780   0.886  14.412
83761SOL     OW53056   6.328   1.111   7.554
83761SOL    HW153057   6.328   1.202   7.583
83761SOL    HW253058   6.347   1.115   7.460
83762SOL     OW53059   7.975  10.892   9.582
83762SOL    HW153060   7.989  10.986   9.586
83762SOL    HW253061   7.955  10.867   9.672
83763SOL     OW53062   5.336   9.139  11.983
83763SOL    HW153063   5.351   9.045  11.975
83763SOL    HW253064   5.416   9.173  12.023
83764SOL     OW53065   2.550   0.864   7.679
83764SOL    HW153066   2.605   0.808   7.735
83764SOL    HW253067   2.597   0.870   7.597
83765SOL     OW53068  12.047  10.101  11.604
83765SOL    HW153069  12.091  10.182  11.579
83765SOL    HW253070  12.118  10.043  11.631
83766SOL     OW53071   0.963   5.109   5.096
83766SOL    HW153072   0.906   5.154   5.034
83766SOL    HW253073   1.008   5.179   5.144
83767SOL     OW53074   2.371   0.714  12.228
83767SOL    HW153075   2.435   0.683  12.164
83767SOL    HW253076   2.290   0.722  12.178
83768SOL     OW53077   0.887   3.598   8.360
83768SOL    HW153078   0.864   3.531   8.424
83768SOL    HW253079   0.838   3.574   8.281
83769SOL     OW53080  11.765   5.633   0.298
83769SOL    HW153081  11.731   5.675   0.377
83769SOL    HW253082  11.688   5.618   0.243
83770SOL     OW53083   5.705   2.972   1.897
83770SOL    HW153084   5.767   3.044   1.900
83770SOL    HW253085   5.745   2.907   1.840
83771SOL     OW53086   5.943   1.590   9.027
83771SOL    HW153087   6.013   1.578   9.092
83771SOL    HW253088   5.963   1.673   8.985
83772SOL     OW53089   5.570   3.663  14.730
83772SOL    HW153090   5.660   3.686  14.749
83772SOL    HW253091   5.523   3.677  14.812
83773SOL     OW53092   8.086  12.047   5.270
83773SOL    HW153093   8.172  12.014   5.242
83773SOL    HW253094   8.102  12.081   5.359
83774SOL     OW53095   8.545   6.526  14.514
83774SOL    HW153096   8.556   6.435  14.487
83774SOL    HW253097   8.522   6.572  14.433
83775SOL     OW53098   5.321   7.665  10.189
83775SOL    HW153099   5.364   7.745  10.219
83775SOL    HW253100   5.344   7.659  10.096
83776SOL     OW53101   7.589   3.669  14.629
83776SOL    HW153102   7.571   3.693  14.538
83776SOL    HW253103   7.660   3.727  14.655
83777SOL     OW53104  14.305  11.479   9.571
83777SOL    HW153105  14.237  11.419   9.600
83777SOL    HW253106  14.265  11.529   9.500
83778SOL     OW53107  13.491   6.433   8.900
83778SOL    HW153108  13.447   6.435   8.814
83778SOL    HW253109  13.547   6.356   8.897
83779SOL     OW53110  14.211   3.342   8.250
83779SOL    HW153111  14.163   3.261   8.238
83779SOL    HW253112  14.274   3.323   8.320
83780SOL     OW53113  14.344   0.636   6.131
83780SOL    HW153114  14.330   0.543   6.113
83780SOL    HW253115  14.419   0.638   6.190
83781SOL     OW53116   9.166  10.480   8.875
83781SOL    HW153117   9.156  10.432   8.792
83781SOL    HW253118   9.258  10.469   8.898
83782SOL     OW53119   5.886   5.746   0.151
83782SOL    HW153120   5.949   5.817   0.140
83782SOL    HW253121   5.906   5.708   0.236
83783SOL     OW53122  14.293   7.539   1.325
83783SOL    HW153123  14.204   7.511   1.303
83783SOL    HW253124  14.335   7.460   1.358
83784SOL     OW53125   6.976  11.142  11.919
83784SOL    HW153126   7.068  11.169  11.921
83784SOL    HW253127   6.958  11.110  12.008
83785SOL     OW53128   1.911   2.671   3.574
83785SOL    HW153129   1.863   2.753   3.583
83785SOL    HW253130   1.858   2.619   3.513
83786SOL     OW53131   1.186   4.634   2.326
83786SOL    HW153132   1.217   4.697   2.261
83786SOL    HW253133   1.116   4.680   2.373
83787SOL     OW53134  14.401  13.836   1.029
83787SOL    HW153135  14.374  13.744   1.021
83787SOL    HW253136  14.471  13.846   0.965
83788SOL     OW53137  11.441  12.401  13.173
83788SOL    HW153138  11.496  12.324  13.159
83788SOL    HW253139  11.418  12.430  13.084
83789SOL     OW53140   8.864  14.098   3.067
83789SOL    HW153141   8.913  14.179   3.050
83789SOL    HW253142   8.886  14.076   3.158
83790SOL     OW53143  14.372   7.808  10.835
83790SOL    HW153144  14.398   7.886  10.884
83790SOL    HW253145  14.289   7.781  10.875
83791SOL     OW53146  14.626  12.732   7.594
83791SOL    HW153147  14.687  12.729   7.668
83791SOL    HW253148  14.542  12.707   7.631
83792SOL     OW53149   2.303  14.238   8.324
83792SOL    HW153150   2.260  14.155   8.305
83792SOL    HW253151   2.236  14.304   8.308
83793SOL     OW53152  14.204   6.836   5.605
83793SOL    HW153153  14.272   6.898   5.631
83793SOL    HW253154  14.196   6.777   5.681
83794SOL     OW53155  14.781   2.031   3.047
83794SOL    HW153156  14.798   1.956   2.990
83794SOL    HW253157  14.829   2.103   3.005
83795SOL     OW53158   9.250  13.955   2.520
83795SOL    HW153159   9.331  14.003   2.503
83795SOL    HW253160   9.222  13.986   2.607
83796SOL     OW53161   2.239   1.402   8.786
83796SOL    HW153162   2.186   1.328   8.816
83796SOL    HW253163   2.321   1.395   8.835
83797SOL     OW53164  12.438   8.484   1.524
83797SOL    HW153165  12.465   8.450   1.438
83797SOL    HW253166  12.353   8.443   1.540
83798SOL     OW53167   1.335  14.217  14.066
83798SOL    HW153168   1.288  14.266  13.999
83798SOL    HW253169   1.266  14.181  14.122
83799SOL     OW53170   3.750   8.964   1.279
83799SOL    HW153171   3.699   8.923   1.349
83799SOL    HW253172   3.810   9.023   1.324
83800SOL     OW53173   3.271   8.180   8.050
83800SOL    HW153174   3.217   8.146   7.978
83800SOL    HW253175   3.321   8.252   8.010
83801SOL     OW53176  10.786  13.289   7.066
83801SOL    HW153177  10.859  13.281   7.004
83801SOL    HW253178  10.825  13.268   7.151
83802SOL     OW53179  11.132   2.318   8.071
83802SOL    HW153180  11.149   2.226   8.051
83802SOL    HW253181  11.190   2.338   8.144
83803SOL     OW53182   4.462  14.393   5.305
83803SOL    HW153183   4.516  14.314   5.299
83803SOL    HW253184   4.438  14.412   5.214
83804SOL     OW53185   4.150   2.449  14.815
83804SOL    HW153186   4.079   2.441  14.751
83804SOL    HW253187   4.124   2.392   0.009
83805SOL     OW53188   0.105  12.156   5.970
83805SOL    HW153189   0.041  12.225   5.987
83805SOL    HW253190   0.189  12.193   5.997
83806SOL     OW53191   0.380   6.543   4.995
83806SOL    HW153192   0.345   6.628   4.968
83806SOL    HW253193   0.324   6.479   4.950
83807SOL     OW53194   7.281   2.702  10.341
83807SOL    HW153195   7.214   2.766  10.365
83807SOL    HW253196   7.293   2.714  10.247
83808SOL     OW53197   2.337   1.852  10.119
83808SOL    HW153198   2.381   1.773  10.087
83808SOL    HW253199   2.327   1.838  10.213
83809SOL     OW53200   3.414   4.765   3.567
83809SOL    HW153201   3.397   4.678   3.603
83809SOL    HW253202   3.505   4.783   3.589
83810SOL     OW53203  14.822   8.836   4.639
83810SOL    HW153204   0.002   8.875   4.705
83810SOL    HW253205  14.854   8.747   4.629
83811SOL     OW53206   6.371   8.863   2.629
83811SOL    HW153207   6.439   8.806   2.664
83811SOL    HW253208   6.363   8.932   2.695
83812SOL     OW53209   3.725   9.705   8.174
83812SOL    HW153210   3.730   9.616   8.209
83812SOL    HW253211   3.632   9.720   8.158
83813SOL     OW53212   6.486   7.124   0.165
83813SOL    HW153213   6.458   7.112   0.074
83813SOL    HW253214   6.421   7.077   0.216
83814SOL     OW53215   7.147   0.408  12.881
83814SOL    HW153216   7.112   0.481  12.830
83814SOL    HW253217   7.076   0.385  12.941
83815SOL     OW53218   8.087  13.582   2.719
83815SOL    HW153219   8.132  13.666   2.708
83815SOL    HW253220   8.108  13.532   2.640
83816SOL     OW53221  12.628   5.255   8.118
83816SOL    HW153222  12.598   5.172   8.083
83816SOL    HW253223  12.704   5.277   8.065
83817SOL     OW53224   6.319   0.447   1.982
83817SOL    HW153225   6.382   0.465   1.912
83817SOL    HW253226   6.239   0.421   1.936
83818SOL     OW53227  10.078  14.409  10.044
83818SOL    HW153228  10.023  14.443  10.114
83818SOL    HW253229  10.135  14.482  10.020
83819SOL     OW53230   6.490   0.237   4.584
83819SOL    HW153231   6.585   0.233   4.569
83819SOL    HW253232   6.480   0.282   4.668
83820SOL     OW53233   3.790   4.334   1.388
83820SOL    HW153234   3.716   4.274   1.398
83820SOL    HW253235   3.761   4.415   1.431
83821SOL     OW53236   1.789   0.002  11.358
83821SOL    HW153237   1.699  14.872  11.390
83821SOL    HW253238   1.794  14.820  11.284
83822SOL     OW53239   1.785   5.947   6.348
83822SOL    HW153240   1.719   5.909   6.290
83822SOL    HW253241   1.744   5.945   6.435
83823SOL     OW53242  10.540  13.166  13.505
83823SOL    HW153243  10.462  13.175  13.451
83823SOL    HW253244  10.511  13.112  13.579
83824SOL     OW53245   1.309  11.791  14.255
83824SOL    HW153246   1.224  11.788  14.300
83824SOL    HW253247   1.308  11.715  14.198
83825SOL     OW53248  10.315   7.357   3.863
83825SOL    HW153249  10.268   7.280   3.896
83825SOL    HW253250  10.377   7.321   3.799
83826SOL     OW53251  11.547   3.283   2.232
83826SOL    HW153252  11.509   3.335   2.162
83826SOL    HW253253  11.534   3.334   2.311
83827SOL     OW53254   0.115  10.866  13.077
83827SOL    HW153255   0.107  10.938  13.015
83827SOL    HW253256   0.032  10.819  13.071
83828SOL     OW53257   7.438   4.393   1.273
83828SOL    HW153258   7.444   4.331   1.201
83828SOL    HW253259   7.445   4.479   1.231
83829SOL     OW53260   1.834  13.869   9.125
83829SOL    HW153261   1.788  13.830   9.050
83829SOL    HW253262   1.869  13.794   9.173
83830SOL     OW53263   3.383  12.009   0.122
83830SOL    HW153264   3.459  11.951   0.124
83830SOL    HW253265   3.310  11.954   0.150
83831SOL     OW53266  14.300   0.321   8.435
83831SOL    HW153267  14.282   0.257   8.366
83831SOL    HW253268  14.328   0.400   8.388
83832SOL     OW53269  12.814   5.993   4.334
83832SOL    HW153270  12.779   5.904   4.339
83832SOL    HW253271  12.811   6.025   4.424
83833SOL     OW53272  10.007   9.517  14.569
83833SOL    HW153273  10.091   9.562  14.584
83833SOL    HW253274   9.945   9.564  14.625
83834SOL     OW53275  14.238  14.351   2.358
83834SOL    HW153276  14.321  14.395   2.340
83834SOL    HW253277  14.178  14.422   2.382
83835SOL     OW53278   3.224   5.686   1.236
83835SOL    HW153279   3.177   5.696   1.154
83835SOL    HW253280   3.205   5.766   1.285
83836SOL     OW53281   5.331  13.503   0.305
83836SOL    HW153282   5.357  13.411   0.315
83836SOL    HW253283   5.359  13.545   0.386
83837SOL     OW53284   5.959  10.438  13.218
83837SOL    HW153285   5.963  10.348  13.188
83837SOL    HW253286   6.050  10.466  13.223
83838SOL     OW53287  10.171   5.869   9.700
83838SOL    HW153288  10.233   5.797   9.694
83838SOL    HW253289  10.222   5.946   9.674
83839SOL     OW53290   1.541   6.743   1.888
83839SOL    HW153291   1.543   6.739   1.793
83839SOL    HW253292   1.528   6.835   1.908
83840SOL     OW53293  11.263   1.610  13.218
83840SOL    HW153294  11.189   1.670  13.225
83840SOL    HW253295  11.285   1.589  13.309
83841SOL     OW53296   2.400  13.450  11.056
83841SOL    HW153297   2.478  13.477  11.008
83841SOL    HW253298   2.407  13.355  11.063
83842SOL     OW53299  14.059  13.914  11.415
83842SOL    HW153300  14.021  13.894  11.329
83842SOL    HW253301  14.154  13.909  11.401
83843SOL     OW53302   9.307  11.636  11.064
83843SOL    HW153303   9.223  11.602  11.092
83843SOL    HW253304   9.289  11.724  11.032
83844SOL     OW53305   0.889  10.681   1.775
83844SOL    HW153306   0.972  10.646   1.808
83844SOL    HW253307   0.867  10.624   1.702
83845SOL     OW53308  12.010  12.876   7.329
83845SOL    HW153309  12.029  12.969   7.338
83845SOL    HW253310  11.974  12.850   7.414
83846SOL     OW53311   8.174  12.554   5.690
83846SOL    HW153312   8.252  12.535   5.638
83846SOL    HW253313   8.204  12.547   5.781
83847SOL     OW53314   6.802   8.108   2.372
83847SOL    HW153315   6.872   8.131   2.311
83847SOL    HW253316   6.726   8.157   2.341
83848SOL     OW53317   9.906   9.816   8.811
83848SOL    HW153318   9.874   9.861   8.889
83848SOL    HW253319   9.867   9.728   8.816
83849SOL     OW53320   2.245  10.674   6.194
83849SOL    HW153321   2.179  10.622   6.240
83849SOL    HW253322   2.329  10.636   6.221
83850SOL     OW53323   2.473  14.035   1.319
83850SOL    HW153324   2.444  13.992   1.400
83850SOL    HW253325   2.484  14.127   1.343
83851SOL     OW53326   8.641   7.435   5.765
83851SOL    HW153327   8.583   7.395   5.830
83851SOL    HW253328   8.602   7.411   5.680
83852SOL     OW53329  12.148   2.526   6.498
83852SOL    HW153330  12.223   2.565   6.542
83852SOL    HW253331  12.167   2.534   6.405
83853SOL     OW53332   3.685   8.545   4.070
83853SOL    HW153333   3.743   8.547   4.145
83853SOL    HW253334   3.639   8.461   4.078
83854SOL     OW53335  14.856  13.921   6.608
83854SOL    HW153336  14.863  13.905   6.514
83854SOL    HW253337   0.069  13.928   6.639
83855SOL     OW53338  10.131  11.387   5.745
83855SOL    HW153339  10.118  11.356   5.655
83855SOL    HW253340  10.133  11.307   5.797
83856SOL     OW53341  11.163   7.526   1.777
83856SOL    HW153342  11.168   7.604   1.831
83856SOL    HW253343  11.110   7.464   1.828
83857SOL     OW53344  12.356   0.835   0.914
83857SOL    HW153345  12.309   0.916   0.936
83857SOL    HW253346  12.447   0.855   0.933
83858SOL     OW53347  12.358  12.368   5.994
83858SOL    HW153348  12.299  12.318   5.937
83858SOL    HW253349  12.446  12.343   5.965
83859SOL     OW53350   3.845   8.829   0.237
83859SOL    HW153351   3.888   8.910   0.210
83859SOL    HW253352   3.894   8.800   0.314
83860SOL     OW53353   2.699   0.237  10.947
83860SOL    HW153354   2.670   0.285  10.870
83860SOL    HW253355   2.630   0.251  11.012
83861SOL     OW53356  12.735  13.889  10.101
83861SOL    HW153357  12.703  13.799  10.106
83861SOL    HW253358  12.818  13.883  10.053
83862SOL     OW53359  13.181   3.891   8.187
83862SOL    HW153360  13.100   3.840   8.183
83862SOL    HW253361  13.159   3.974   8.144
83863SOL     OW53362   9.784   7.485   2.307
83863SOL    HW153363   9.831   7.447   2.232
83863SOL    HW253364   9.836   7.459   2.383
83864SOL     OW53365   3.258   9.830   8.620
83864SOL    HW153366   3.321   9.790   8.561
83864SOL    HW253367   3.309   9.853   8.697
83865SOL     OW53368   2.126   7.060  12.075
83865SOL    HW153369   2.041   7.098  12.097
83865SOL    HW253370   2.177   7.134  12.040
83866SOL     OW53371  10.406   1.529  13.751
83866SOL    HW153372  10.485   1.568  13.714
83866SOL    HW253373  10.413   1.435  13.732
83867SOL     OW53374   9.087   3.328  14.301
83867SOL    HW153375   8.998   3.337  14.335
83867SOL    HW253376   9.113   3.418  14.280
83868SOL     OW53377   1.380  14.187   4.407
83868SOL    HW153378   1.307  14.248   4.396
83868SOL    HW253379   1.348  14.106   4.366
83869SOL     OW53380  11.915   3.120  10.073
83869SOL    HW153381  11.951   3.072   9.998
83869SOL    HW253382  11.877   3.199  10.034
83870SOL     OW53383   9.615   2.627   4.804
83870SOL    HW153384   9.672   2.651   4.731
83870SOL    HW253385   9.551   2.698   4.809
83871SOL     OW53386  11.255   3.329  11.052
83871SOL    HW153387  11.215   3.242  11.053
83871SOL    HW253388  11.186   3.386  11.019
83872SOL     OW53389   2.774   1.677   7.943
83872SOL    HW153390   2.705   1.743   7.949
83872SOL    HW253391   2.756   1.618   8.016
83873SOL     OW53392  11.657  10.475  10.109
83873SOL    HW153393  11.583  10.431  10.066
83873SOL    HW253394  11.729  10.411  10.103
83874SOL     OW53395   5.886   3.928   3.928
83874SOL    HW153396   5.897   3.879   3.847
83874SOL    HW253397   5.794   3.957   3.927
83875SOL     OW53398   4.738   6.972   2.996
83875SOL    HW153399   4.714   6.931   3.079
83875SOL    HW253400   4.665   6.952   2.937
83876SOL     OW53401   8.028   4.800  13.523
83876SOL    HW153402   8.123   4.808  13.525
83876SOL    HW253403   8.004   4.772  13.611
83877SOL     OW53404   8.912  12.493  13.342
83877SOL    HW153405   8.908  12.457  13.431
83877SOL    HW253406   8.928  12.418  13.286
83878SOL     OW53407  13.482  10.977  11.042
83878SOL    HW153408  13.431  11.052  11.071
83878SOL    HW253409  13.497  10.992  10.949
83879SOL     OW53410   7.484   8.157   4.688
83879SOL    HW153411   7.391   8.178   4.690
83879SOL    HW253412   7.520   8.201   4.765
83880SOL     OW53413  13.270   8.994   5.561
83880SOL    HW153414  13.203   8.927   5.548
83880SOL    HW253415  13.352   8.951   5.538
83881SOL     OW53416  12.944   8.752   2.755
83881SOL    HW153417  13.031   8.728   2.788
83881SOL    HW253418  12.913   8.819   2.816
83882SOL     OW53419  10.703  10.604   3.938
83882SOL    HW153420  10.674  10.567   3.854
83882SOL    HW253421  10.779  10.659   3.915
83883SOL     OW53422   0.454   9.492  14.143
83883SOL    HW153423   0.508   9.552  14.195
83883SOL    HW253424   0.364   9.515  14.167
83884SOL     OW53425   3.192   5.485   5.276
83884SOL    HW153426   3.187   5.392   5.296
83884SOL    HW253427   3.107   5.520   5.302
83885SOL     OW53428   2.088   2.292  12.193
83885SOL    HW153429   2.091   2.365  12.131
83885SOL    HW253430   2.179   2.268  12.206
83886SOL     OW53431  12.936   6.447   7.849
83886SOL    HW153432  13.009   6.481   7.796
83886SOL    HW253433  12.948   6.488   7.934
83887SOL     OW53434  11.322  13.855   2.998
83887SOL    HW153435  11.357  13.944   2.993
83887SOL    HW253436  11.394  13.799   2.968
83888SOL     OW53437   5.977   4.000  14.306
83888SOL    HW153438   5.977   3.957  14.220
83888SOL    HW253439   6.048   3.959  14.354
83889SOL     OW53440   6.152   0.273  13.440
83889SOL    HW153441   6.081   0.306  13.385
83889SOL    HW253442   6.213   0.346  13.447
83890SOL     OW53443  14.596   2.369  12.201
83890SOL    HW153444  14.659   2.319  12.150
83890SOL    HW253445  14.512   2.352  12.159
83891SOL     OW53446  13.519   1.300   1.934
83891SOL    HW153447  13.603   1.344   1.927
83891SOL    HW253448  13.462   1.345   1.872
83892SOL     OW53449  10.248   3.082  10.959
83892SOL    HW153450  10.328   3.090  11.010
83892SOL    HW253451  10.186   3.040  11.018
83893SOL     OW53452  13.423   6.450  12.453
83893SOL    HW153453  13.398   6.415  12.367
83893SOL    HW253454  13.388   6.387  12.516
83894SOL     OW53455   4.880   0.786   6.668
83894SOL    HW153456   4.888   0.834   6.586
83894SOL    HW253457   4.791   0.804   6.698
83895SOL     OW53458   4.612   3.073  14.717
83895SOL    HW153459   4.615   3.082  14.813
83895SOL    HW253460   4.642   3.158  14.684
83896SOL     OW53461  10.526  14.723  10.719
83896SOL    HW153462  10.548  14.635  10.689
83896SOL    HW253463  10.601  14.749  10.773
83897SOL     OW53464  11.436   4.448   9.005
83897SOL    HW153465  11.405   4.536   8.984
83897SOL    HW253466  11.477   4.417   8.924
83898SOL     OW53467   2.663   4.429   1.275
83898SOL    HW153468   2.577   4.464   1.251
83898SOL    HW253469   2.722   4.504   1.274
83899SOL     OW53470  11.379  10.215   5.428
83899SOL    HW153471  11.356  10.299   5.467
83899SOL    HW253472  11.302  10.160   5.443
83900SOL     OW53473   6.387   2.275  12.297
83900SOL    HW153474   6.347   2.203  12.249
83900SOL    HW253475   6.391   2.346  12.234
83901SOL     OW53476   3.562  11.146   0.543
83901SOL    HW153477   3.557  11.221   0.602
83901SOL    HW253478   3.553  11.069   0.600
83902SOL     OW53479   0.594   0.478   2.276
83902SOL    HW153480   0.556   0.505   2.360
83902SOL    HW253481   0.676   0.434   2.299
83903SOL     OW53482   9.749  11.534  14.534
83903SOL    HW153483   9.774  11.623  14.558
83903SOL    HW253484   9.706  11.500  14.612
83904SOL     OW53485  13.358   4.740   4.041
83904SOL    HW153486  13.320   4.828   4.040
83904SOL    HW253487  13.295   4.686   4.088
83905SOL     OW53488  11.041   0.362  14.544
83905SOL    HW153489  10.976   0.351  14.475
83905SOL    HW253490  11.100   0.429  14.511
83906SOL     OW53491   5.680  10.610   2.327
83906SOL    HW153492   5.603  10.642   2.374
83906SOL    HW253493   5.712  10.538   2.381
83907SOL     OW53494   1.226   9.661   0.157
83907SOL    HW153495   1.135   9.633   0.167
83907SOL    HW253496   1.249   9.701   0.241
83908SOL     OW53497   8.714   7.515   1.666
83908SOL    HW153498   8.620   7.512   1.681
83908SOL    HW253499   8.752   7.530   1.752
83909SOL     OW53500  12.260   3.548  11.278
83909SOL    HW153501  12.341   3.570  11.324
83909SOL    HW253502  12.285   3.481  11.214
83910SOL     OW53503   8.363  13.007  11.338
83910SOL    HW153504   8.341  13.044  11.424
83910SOL    HW253505   8.295  12.941  11.323
83911SOL     OW53506   5.471   4.020   7.613
83911SOL    HW153507   5.488   4.109   7.581
83911SOL    HW253508   5.423   3.978   7.542
83912SOL     OW53509   9.736   1.948   5.442
83912SOL    HW153510   9.686   1.997   5.507
83912SOL    HW253511   9.807   1.907   5.491
83913SOL     OW53512  10.687   7.898   4.759
83913SOL    HW153513  10.598   7.912   4.794
83913SOL    HW253514  10.672   7.861   4.672
83914SOL     OW53515   5.909   9.820   8.371
83914SOL    HW153516   5.959   9.880   8.426
83914SOL    HW253517   5.924   9.849   8.282
83915SOL     OW53518   6.378   5.813   5.229
83915SOL    HW153519   6.290   5.844   5.206
83915SOL    HW253520   6.369   5.719   5.240
83916SOL     OW53521   9.705  13.121  10.260
83916SOL    HW153522   9.654  13.177  10.318
83916SOL    HW253523   9.684  13.032  10.288
83917SOL     OW53524  12.170  13.380   8.842
83917SOL    HW153525  12.175  13.400   8.936
83917SOL    HW253526  12.125  13.295   8.839
83918SOL     OW53527  14.041   1.812   0.671
83918SOL    HW153528  14.120   1.760   0.687
83918SOL    HW253529  14.065   1.901   0.696
83919SOL     OW53530   2.507   7.213   8.299
83919SOL    HW153531   2.499   7.131   8.347
83919SOL    HW253532   2.579   7.259   8.341
83920SOL     OW53533  10.356  12.018   3.055
83920SOL    HW153534  10.263  12.009   3.076
83920SOL    HW253535  10.363  11.988   2.964
83921SOL     OW53536   0.801   6.769   8.482
83921SOL    HW153537   0.868   6.746   8.418
83921SOL    HW253538   0.727   6.712   8.460
83922SOL     OW53539  11.565   7.490   5.317
83922SOL    HW153540  11.572   7.506   5.411
83922SOL    HW253541  11.536   7.574   5.280
83923SOL     OW53542   9.971  14.097   1.611
83923SOL    HW153543   9.908  14.088   1.540
83923SOL    HW253544  10.010  14.010   1.619
83924SOL     OW53545  14.366  11.488   1.813
83924SOL    HW153546  14.390  11.511   1.902
83924SOL    HW253547  14.300  11.419   1.823
83925SOL     OW53548  10.562  12.331   4.690
83925SOL    HW153549  10.630  12.266   4.674
83925SOL    HW253550  10.484  12.296   4.648
83926SOL     OW53551   9.900   9.988  13.318
83926SOL    HW153552   9.910  10.017  13.409
83926SOL    HW253553   9.830   9.922  13.321
83927SOL     OW53554  12.491   4.993  11.548
83927SOL    HW153555  12.472   4.954  11.633
83927SOL    HW253556  12.566   5.051  11.564
83928SOL     OW53557  12.412   1.682   6.050
83928SOL    HW153558  12.345   1.731   6.002
83928SOL    HW253559  12.366   1.646   6.126
83929SOL     OW53560  13.456   0.305   1.892
83929SOL    HW153561  13.489   0.220   1.922
83929SOL    HW253562  13.366   0.288   1.864
83930SOL     OW53563  11.461  10.390   1.601
83930SOL    HW153564  11.543  10.346   1.624
83930SOL    HW253565  11.421  10.333   1.536
83931SOL     OW53566  11.163   3.318  12.184
83931SOL    HW153567  11.241   3.342  12.235
83931SOL    HW253568  11.186   3.340  12.094
83932SOL     OW53569  11.426   9.585   1.023
83932SOL    HW153570  11.386   9.567   0.938
83932SOL    HW253571  11.513   9.619   1.002
83933SOL     OW53572  12.242   5.618   6.687
83933SOL    HW153573  12.334   5.638   6.705
83933SOL    HW253574  12.231   5.527   6.717
83934SOL     OW53575   8.723   5.932   7.987
83934SOL    HW153576   8.671   5.886   7.921
83934SOL    HW253577   8.779   5.990   7.936
83935SOL     OW53578  13.279   1.942   2.849
83935SOL    HW153579  13.262   1.891   2.769
83935SOL    HW253580  13.366   1.914   2.877
83936SOL     OW53581   7.753   6.823  13.654
83936SOL    HW153582   7.748   6.830  13.559
83936SOL    HW253583   7.795   6.904  13.682
83937SOL     OW53584   6.242   4.140   1.709
83937SOL    HW153585   6.259   4.119   1.617
83937SOL    HW253586   6.321   4.185   1.738
83938SOL     OW53587   5.782  11.966   9.923
83938SOL    HW153588   5.699  11.929   9.895
83938SOL    HW253589   5.829  11.892   9.963
83939SOL     OW53590  10.695   4.127  12.498
83939SOL    HW153591  10.674   4.176  12.577
83939SOL    HW253592  10.667   4.038  12.516
83940SOL     OW53593   8.065   6.074  11.522
83940SOL    HW153594   8.028   6.010  11.583
83940SOL    HW253595   8.136   6.116  11.571
83941SOL     OW53596  11.926   3.511   3.167
83941SOL    HW153597  11.961   3.493   3.080
83941SOL    HW253598  11.999   3.548   3.215
83942SOL     OW53599   8.631  12.594   5.026
83942SOL    HW153600   8.606  12.503   5.008
83942SOL    HW253601   8.686  12.619   4.951
83943SOL     OW53602   4.829   9.708  10.677
83943SOL    HW153603   4.886   9.644  10.721
83943SOL    HW253604   4.781   9.749  10.748
83944SOL     OW53605  12.364   5.429   5.884
83944SOL    HW153606  12.335   5.460   5.969
83944SOL    HW253607  12.301   5.466   5.822
83945SOL     OW53608   5.925  13.867   9.251
83945SOL    HW153609   5.976  13.788   9.270
83945SOL    HW253610   5.965  13.903   9.173
83946SOL     OW53611   6.562  12.872  12.328
83946SOL    HW153612   6.645  12.835  12.356
83946SOL    HW253613   6.498  12.841  12.392
83947SOL     OW53614   3.749   0.536   0.448
83947SOL    HW153615   3.767   0.444   0.429
83947SOL    HW253616   3.681   0.560   0.385
83948SOL     OW53617  13.731  10.083   9.285
83948SOL    HW153618  13.725  10.094   9.379
83948SOL    HW253619  13.660  10.136   9.249
83949SOL     OW53620  12.163   4.396   4.167
83949SOL    HW153621  12.128   4.418   4.253
83949SOL    HW253622  12.087   4.371   4.115
83950SOL     OW53623   8.667   3.556  12.839
83950SOL    HW153624   8.600   3.488  12.829
83950SOL    HW253625   8.742   3.510  12.878
83951SOL     OW53626   4.464   4.708  10.425
83951SOL    HW153627   4.504   4.659  10.497
83951SOL    HW253628   4.538   4.752  10.383
83952SOL     OW53629  12.755  11.858   1.203
83952SOL    HW153630  12.849  11.865   1.186
83952SOL    HW253631  12.745  11.776   1.251
83953SOL     OW53632  12.841   1.771   6.625
83953SOL    HW153633  12.819   1.731   6.541
83953SOL    HW253634  12.756   1.781   6.669
83954SOL     OW53635   6.301  14.413   6.503
83954SOL    HW153636   6.332  14.466   6.429
83954SOL    HW253637   6.381  14.387   6.549
83955SOL     OW53638   8.467   1.754   5.279
83955SOL    HW153639   8.428   1.820   5.337
83955SOL    HW253640   8.561   1.757   5.300
83956SOL     OW53641  12.582   1.792   6.698
83956SOL    HW153642  12.548   1.868   6.650
83956SOL    HW253643  12.525   1.784   6.775
83957SOL     OW53644  12.260  11.845  13.571
83957SOL    HW153645  12.264  11.884  13.659
83957SOL    HW253646  12.168  11.847  13.548
83958SOL     OW53647  14.794   3.057   3.845
83958SOL    HW153648  14.843   2.974   3.838
83958SOL    HW253649  14.857   3.119   3.882
83959SOL     OW53650   5.171   9.964   6.328
83959SOL    HW153651   5.125   9.881   6.333
83959SOL    HW253652   5.121  10.015   6.263
83960SOL     OW53653   2.155   7.911  11.858
83960SOL    HW153654   2.098   7.836  11.880
83960SOL    HW253655   2.112   7.951  11.782
83961SOL     OW53656   6.806  12.026   8.219
83961SOL    HW153657   6.721  12.004   8.182
83961SOL    HW253658   6.795  12.115   8.252
83962SOL     OW53659   8.094   1.157   0.056
83962SOL    HW153660   8.106   1.160  14.839
83962SOL    HW253661   8.055   1.072   0.073
83963SOL     OW53662   9.653  13.363   0.840
83963SOL    HW153663   9.597  13.400   0.908
83963SOL    HW253664   9.667  13.435   0.779
83964SOL     OW53665   8.792  13.073   0.611
83964SOL    HW153666   8.862  13.127   0.646
83964SOL    HW253667   8.737  13.052   0.687
83965SOL     OW53668  11.880   0.227   8.746
83965SOL    HW153669  11.858   0.236   8.654
83965SOL    HW253670  11.799   0.248   8.793
83966SOL     OW53671   3.757   0.470   9.512
83966SOL    HW153672   3.811   0.546   9.492
83966SOL    HW253673   3.670   0.505   9.530
83967SOL     OW53674   7.062  11.640   8.733
83967SOL    HW153675   7.070  11.735   8.731
83967SOL    HW253676   7.148  11.608   8.705
83968SOL     OW53677   7.852   2.423  12.454
83968SOL    HW153678   7.796   2.487  12.412
83968SOL    HW253679   7.821   2.338  12.423
83969SOL     OW53680   8.593   4.642  11.102
83969SOL    HW153681   8.523   4.588  11.140
83969SOL    HW253682   8.547   4.710  11.053
83970SOL     OW53683   1.279   8.672  13.832
83970SOL    HW153684   1.220   8.628  13.894
83970SOL    HW253685   1.245   8.761  13.825
83971SOL     OW53686   2.356  12.671   7.154
83971SOL    HW153687   2.407  12.722   7.091
83971SOL    HW253688   2.274  12.652   7.108
83972SOL     OW53689  13.185  14.536   5.022
83972SOL    HW153690  13.275  14.505   5.007
83972SOL    HW253691  13.141  14.462   5.063
83973SOL     OW53692  12.400   4.013   2.440
83973SOL    HW153693  12.347   4.004   2.361
83973SOL    HW253694  12.462   4.083   2.420
83974SOL     OW53695   2.873   5.186   9.499
83974SOL    HW153696   2.817   5.250   9.545
83974SOL    HW253697   2.955   5.188   9.547
83975SOL     OW53698  14.178  11.336  11.276
83975SOL    HW153699  14.196  11.333  11.182
83975SOL    HW253700  14.188  11.428  11.300
83976SOL     OW53701  11.536  12.549   6.837
83976SOL    HW153702  11.517  12.636   6.873
83976SOL    HW253703  11.479  12.542   6.761
83977SOL     OW53704   6.659  14.070   9.794
83977SOL    HW153705   6.620  14.138   9.848
83977SOL    HW253706   6.668  14.109   9.708
83978SOL     OW53707  13.440   4.064   2.969
83978SOL    HW153708  13.487   4.024   3.042
83978SOL    HW253709  13.488   4.035   2.891
83979SOL     OW53710  13.073   5.812   6.424
83979SOL    HW153711  13.153   5.864   6.428
83979SOL    HW253712  13.003   5.878   6.423
83980SOL     OW53713   3.546  13.840   2.541
83980SOL    HW153714   3.526  13.881   2.457
83980SOL    HW253715   3.466  13.851   2.592
83981SOL     OW53716   6.271  13.636   2.260
83981SOL    HW153717   6.313  13.582   2.193
83981SOL    HW253718   6.270  13.581   2.338
83982SOL     OW53719  10.190   4.337  14.698
83982SOL    HW153720  10.148   4.408  14.746
83982SOL    HW253721  10.284   4.350  14.713
83983SOL     OW53722   6.102  11.866  13.317
83983SOL    HW153723   6.049  11.839  13.392
83983SOL    HW253724   6.116  11.786  13.267
83984SOL     OW53725   3.970   3.850  12.210
83984SOL    HW153726   3.903   3.884  12.269
83984SOL    HW253727   3.961   3.903  12.131
83985SOL     OW53728   5.008   8.798  14.547
83985SOL    HW153729   4.942   8.866  14.560
83985SOL    HW253730   4.971   8.743  14.477
83986SOL     OW53731  11.128  11.435   4.917
83986SOL    HW153732  11.112  11.480   4.834
83986SOL    HW253733  11.220  11.410   4.914
83987SOL     OW53734  14.299   6.768  10.189
83987SOL    HW153735  14.233   6.768  10.258
83987SOL    HW253736  14.373   6.815  10.227
83988SOL     OW53737   6.741   4.314   7.630
83988SOL    HW153738   6.797   4.248   7.590
83988SOL    HW253739   6.668   4.264   7.668
83989SOL     OW53740   4.647  14.288   5.799
83989SOL    HW153741   4.628  14.359   5.737
83989SOL    HW253742   4.592  14.215   5.771
83990SOL     OW53743  11.550   7.915   7.149
83990SOL    HW153744  11.457   7.934   7.144
83990SOL    HW253745  11.579   7.956   7.230
83991SOL     OW53746   3.558  12.921   6.477
83991SOL    HW153747   3.614  12.968   6.415
83991SOL    HW253748   3.619  12.877   6.536
83992SOL     OW53749   9.643   9.768   8.227
83992SOL    HW153750   9.723   9.732   8.266
83992SOL    HW253751   9.631   9.718   8.146
83993SOL     OW53752  11.812  14.103  10.772
83993SOL    HW153753  11.735  14.057  10.805
83993SOL    HW253754  11.886  14.064  10.819
83994SOL     OW53755  12.445   8.857   6.608
83994SOL    HW153756  12.440   8.938   6.557
83994SOL    HW253757  12.356   8.844   6.641
83995SOL     OW53758   0.826   5.087   8.405
83995SOL    HW153759   0.862   5.065   8.490
83995SOL    HW253760   0.895   5.064   8.343
83996SOL     OW53761  10.184  10.104   8.903
83996SOL    HW153762  10.163  10.011   8.905
83996SOL    HW253763  10.141  10.140   8.981
83997SOL     OW53764  11.225  10.609  12.469
83997SOL    HW153765  11.279  10.553  12.525
83997SOL    HW253766  11.228  10.695  12.511
83998SOL     OW53767  13.031   5.441   6.204
83998SOL    HW153768  13.042   5.433   6.299
83998SOL    HW253769  12.957   5.385   6.183
83999SOL     OW53770  12.008   3.028   0.342
83999SOL    HW153771  12.076   3.096   0.341
83999SOL    HW253772  12.047   2.955   0.389
84000SOL     OW53773   6.406   6.091   5.848
84000SOL    HW153774   6.368   6.168   5.890
84000SOL    HW253775   6.353   6.078   5.770
84001SOL     OW53776   4.046  12.838   2.753
84001SOL    HW153777   4.127  12.803   2.790
84001SOL    HW253778   4.068  12.927   2.728
84002SOL     OW53779   9.306   7.173  14.755
84002SOL    HW153780   9.346   7.191  14.840
84002SOL    HW253781   9.282   7.259  14.721
84003SOL     OW53782  12.281  14.224   9.943
84003SOL    HW153783  12.239  14.167   9.879
84003SOL    HW253784  12.362  14.179   9.967
84004SOL     OW53785  13.677   2.877  13.575
84004SOL    HW153786  13.761   2.888  13.621
84004SOL    HW253787  13.655   2.785  13.587
84005SOL     OW53788   5.898   2.141  12.923
84005SOL    HW153789   5.839   2.099  12.985
84005SOL    HW253790   5.980   2.150  12.971
84006SOL     OW53791  12.125   6.767  12.856
84006SOL    HW153792  12.195   6.712  12.820
84006SOL    HW253793  12.137   6.762  12.950
84007SOL     OW53794   5.631  12.039   3.027
84007SOL    HW153795   5.699  12.006   3.085
84007SOL    HW253796   5.619  11.970   2.961
84008SOL     OW53797   1.542   9.934  12.739
84008SOL    HW153798   1.502   9.971  12.818
84008SOL    HW253799   1.483   9.958  12.668
84009SOL     OW53800   7.222   5.931   0.408
84009SOL    HW153801   7.282   6.000   0.379
84009SOL    HW253802   7.276   5.870   0.457
84010SOL     OW53803   5.469  11.296  13.756
84010SOL    HW153804   5.492  11.313  13.665
84010SOL    HW253805   5.414  11.218  13.753
84011SOL     OW53806   0.598   9.707   4.216
84011SOL    HW153807   0.601   9.726   4.310
84011SOL    HW253808   0.689   9.709   4.188
84012SOL     OW53809   0.694  10.080   3.685
84012SOL    HW153810   0.603  10.084   3.655
84012SOL    HW253811   0.745  10.085   3.604
84013SOL     OW53812   5.889  14.006   6.753
84013SOL    HW153813   5.840  14.037   6.677
84013SOL    HW253814   5.850  13.920   6.773
84014SOL     OW53815  13.753  14.152   9.137
84014SOL    HW153816  13.739  14.063   9.106
84014SOL    HW253817  13.840  14.150   9.177
84015SOL     OW53818   0.276  13.837   1.943
84015SOL    HW153819   0.250  13.929   1.946
84015SOL    HW253820   0.371  13.838   1.956
84016SOL     OW53821   3.647   3.193  12.120
84016SOL    HW153822   3.665   3.109  12.163
84016SOL    HW253823   3.578   3.233  12.173
84017SOL     OW53824   8.109  11.017   5.106
84017SOL    HW153825   8.162  10.938   5.116
84017SOL    HW253826   8.051  10.997   5.032
84018SOL     OW53827   5.497   9.708   5.628
84018SOL    HW153828   5.417   9.658   5.614
84018SOL    HW253829   5.471   9.799   5.610
84019SOL     OW53830  12.113   0.700  12.040
84019SOL    HW153831  12.194   0.741  12.012
84019SOL    HW253832  12.129   0.674  12.131
84020SOL     OW53833  10.534   8.303  13.941
84020SOL    HW153834  10.528   8.264  14.028
84020SOL    HW253835  10.455   8.272  13.895
84021SOL     OW53836   1.800  10.150  10.959
84021SOL    HW153837   1.872  10.150  11.022
84021SOL    HW253838   1.758  10.064  10.970
84022SOL     OW53839  12.019   0.686   5.971
84022SOL    HW153840  11.964   0.669   5.895
84022SOL    HW253841  11.957   0.689   6.045
84023SOL     OW53842   9.902   1.363  10.478
84023SOL    HW153843   9.812   1.333  10.493
84023SOL    HW253844   9.955   1.309  10.535
84024SOL     OW53845   6.923  12.545   9.400
84024SOL    HW153846   6.853  12.527   9.338
84024SOL    HW253847   6.981  12.606   9.354
84025SOL     OW53848   4.868   1.484   6.562
84025SOL    HW153849   4.859   1.558   6.502
84025SOL    HW253850   4.898   1.523   6.644
84026SOL     OW53851  12.732  10.981   5.651
84026SOL    HW153852  12.780  10.901   5.628
84026SOL    HW253853  12.678  10.999   5.574
84027SOL     OW53854   8.867   7.593   2.959
84027SOL    HW153855   8.909   7.630   2.881
84027SOL    HW253856   8.792   7.650   2.974
84028SOL     OW53857   5.002   2.932  10.018
84028SOL    HW153858   5.042   3.004  10.067
84028SOL    HW253859   5.025   2.949   9.927
84029SOL     OW53860   1.455  14.741  10.968
84029SOL    HW153861   1.438  14.712  11.058
84029SOL    HW253862   1.533  14.795  10.974
84030SOL     OW53863   4.379   8.079  10.985
84030SOL    HW153864   4.399   8.048  11.074
84030SOL    HW253865   4.354   8.171  10.997
84031SOL     OW53866  14.854   1.517  12.854
84031SOL    HW153867  14.810   1.449  12.906
84031SOL    HW253868   0.045   1.470  12.807
84032SOL     OW53869  14.105   1.957   8.529
84032SOL    HW153870  14.155   1.896   8.475
84032SOL    HW253871  14.022   1.912   8.546
84033SOL     OW53872  12.478  13.139  14.761
84033SOL    HW153873  12.517  13.216  14.720
84033SOL    HW253874  12.429  13.172  14.836
84034SOL     OW53875   1.046   7.352   8.463
84034SOL    HW153876   1.119   7.375   8.520
84034SOL    HW253877   0.974   7.332   8.524
84035SOL     OW53878  13.319  13.471   8.752
84035SOL    HW153879  13.381  13.417   8.703
84035SOL    HW253880  13.341  13.455   8.844
84036SOL     OW53881   2.448   0.089   7.888
84036SOL    HW153882   2.398   0.147   7.831
84036SOL    HW253883   2.434   0.001   7.852
84037SOL     OW53884   4.800   4.365   7.201
84037SOL    HW153885   4.747   4.335   7.127
84037SOL    HW253886   4.803   4.460   7.191
84038SOL     OW53887   8.487  14.099  11.364
84038SOL    HW153888   8.503  14.158  11.438
84038SOL    HW253889   8.416  14.142  11.316
84039SOL     OW53890   3.485   7.099   7.617
84039SOL    HW153891   3.571   7.057   7.610
84039SOL    HW253892   3.503   7.190   7.639
84040SOL     OW53893  13.595   9.960   5.678
84040SOL    HW153894  13.540  10.010   5.739
84040SOL    HW253895  13.629  10.026   5.617
84041SOL     OW53896   4.326   4.719   6.252
84041SOL    HW153897   4.325   4.635   6.205
84041SOL    HW253898   4.416   4.729   6.282
84042SOL     OW53899   7.673   7.296  10.053
84042SOL    HW153900   7.649   7.206  10.074
84042SOL    HW253901   7.698   7.293   9.961
84043SOL     OW53902   2.225  14.329  11.094
84043SOL    HW153903   2.174  14.359  11.019
84043SOL    HW253904   2.160  14.299  11.157
84044SOL     OW53905   1.672   9.531  13.485
84044SOL    HW153906   1.676   9.525  13.581
84044SOL    HW253907   1.764   9.541  13.458
84045SOL     OW53908  12.262   8.868   6.968
84045SOL    HW153909  12.239   8.959   6.950
84045SOL    HW253910  12.248   8.823   6.885
84046SOL     OW53911   1.589   7.087  13.691
84046SOL    HW153912   1.585   7.140  13.770
84046SOL    HW253913   1.500   7.088  13.656
84047SOL     OW53914   9.440   1.858   1.655
84047SOL    HW153915   9.446   1.920   1.727
84047SOL    HW253916   9.459   1.773   1.695
84048SOL     OW53917   1.870  12.764   5.536
84048SOL    HW153918   1.843  12.673   5.537
84048SOL    HW253919   1.798  12.812   5.577
84049SOL     OW53920   3.554   0.177  13.281
84049SOL    HW153921   3.479   0.147  13.332
84049SOL    HW253922   3.625   0.117  13.304
84050SOL     OW53923  13.288   4.154   7.525
84050SOL    HW153924  13.365   4.100   7.510
84050SOL    HW253925  13.295   4.225   7.461
84051SOL     OW53926   4.626   7.974  13.178
84051SOL    HW153927   4.584   7.888  13.164
84051SOL    HW253928   4.632   7.982  13.273
84052SOL     OW53929  11.900   5.660  10.260
84052SOL    HW153930  11.931   5.682  10.172
84052SOL    HW253931  11.823   5.715  10.273
84053SOL     OW53932  10.506   7.881   9.204
84053SOL    HW153933  10.594   7.908   9.177
84053SOL    HW253934  10.520   7.803   9.258
84054SOL     OW53935   5.648   7.607   6.284
84054SOL    HW153936   5.686   7.674   6.226
84054SOL    HW253937   5.577   7.651   6.329
84055SOL     OW53938   6.443   8.422  11.280
84055SOL    HW153939   6.437   8.392  11.189
84055SOL    HW253940   6.467   8.514  11.274
84056SOL     OW53941   8.992   0.177   8.440
84056SOL    HW153942   8.910   0.154   8.396
84056SOL    HW253943   9.039   0.231   8.376
84057SOL     OW53944   1.897   5.634   5.153
84057SOL    HW153945   1.858   5.623   5.067
84057SOL    HW253946   1.888   5.549   5.195
84058SOL     OW53947  12.906   7.652   9.292
84058SOL    HW153948  12.876   7.715   9.227
84058SOL    HW253949  12.855   7.672   9.371
84059SOL     OW53950   5.055   7.725   7.635
84059SOL    HW153951   5.067   7.649   7.691
84059SOL    HW253952   4.971   7.711   7.592
84060SOL     OW53953   7.389   6.182  12.145
84060SOL    HW153954   7.429   6.098  12.170
84060SOL    HW253955   7.409   6.191  12.052
84061SOL     OW53956   5.692   2.905  11.012
84061SOL    HW153957   5.778   2.897  11.054
84061SOL    HW253958   5.706   2.870  10.924
84062SOL     OW53959  13.966  10.626   9.703
84062SOL    HW153960  13.946  10.718   9.718
84062SOL    HW253961  14.045  10.626   9.650
84063SOL     OW53962  13.274   7.737  12.480
84063SOL    HW153963  13.356   7.778  12.507
84063SOL    HW253964  13.299   7.668  12.419
84064SOL     OW53965   7.368   8.742   5.611
84064SOL    HW153966   7.446   8.780   5.652
84064SOL    HW253967   7.310   8.817   5.597
84065SOL     OW53968   3.306   2.131  12.088
84065SOL    HW153969   3.304   2.121  12.183
84065SOL    HW253970   3.291   2.043  12.054
84066SOL     OW53971  14.377  14.729   5.308
84066SOL    HW153972  14.436  14.780   5.362
84066SOL    HW253973  14.293  14.775   5.314
84067SOL     OW53974   4.852  13.963   2.873
84067SOL    HW153975   4.824  14.010   2.952
84067SOL    HW253976   4.809  13.878   2.880
84068SOL     OW53977  11.266  14.641   5.449
84068SOL    HW153978  11.263  14.564   5.506
84068SOL    HW253979  11.339  14.623   5.389
84069SOL     OW53980   0.554   0.978   1.109
84069SOL    HW153981   0.498   1.048   1.075
84069SOL    HW253982   0.643   1.003   1.083
84070SOL     OW53983   2.275   0.091   0.663
84070SOL    HW153984   2.326   0.078   0.584
84070SOL    HW253985   2.340   0.107   0.732
84071SOL     OW53986   9.344   0.855   9.933
84071SOL    HW153987   9.401   0.833  10.007
84071SOL    HW253988   9.302   0.772   9.910
84072SOL     OW53989   0.737  11.574   0.583
84072SOL    HW153990   0.805  11.568   0.515
84072SOL    HW253991   0.783  11.550   0.664
84073SOL     OW53992  14.271   0.373   0.531
84073SOL    HW153993  14.254   0.371   0.625
84073SOL    HW253994  14.205   0.433   0.496
84074SOL     OW53995  10.889  13.044   6.293
84074SOL    HW153996  10.957  13.041   6.226
84074SOL    HW253997  10.846  12.959   6.288
84075SOL     OW53998   5.764   9.336   8.156
84075SOL    HW153999   5.751   9.255   8.107
84075SOL    HW254000   5.834   9.381   8.109
84076SOL     OW54001   8.660   9.809   9.810
84076SOL    HW154002   8.706   9.863   9.746
84076SOL    HW254003   8.729   9.765   9.859
84077SOL     OW54004   5.355  12.887   6.494
84077SOL    HW154005   5.272  12.908   6.538
84077SOL    HW254006   5.412  12.961   6.514
84078SOL     OW54007  10.205  13.806   3.553
84078SOL    HW154008  10.231  13.873   3.490
84078SOL    HW254009  10.113  13.824   3.570
84079SOL     OW54010  10.809  14.543  13.687
84079SOL    HW154011  10.806  14.447  13.697
84079SOL    HW254012  10.796  14.556  13.593
84080SOL     OW54013   2.203   9.047   0.121
84080SOL    HW154014   2.143   9.122   0.114
84080SOL    HW254015   2.242   9.054   0.208
84081SOL     OW54016   0.902   6.721   8.721
84081SOL    HW154017   0.998   6.718   8.713
84081SOL    HW254018   0.871   6.739   8.632
84082SOL     OW54019   8.864   4.214   3.131
84082SOL    HW154020   8.795   4.248   3.189
84082SOL    HW254021   8.874   4.281   3.063
84083SOL     OW54022   7.065   5.507   4.208
84083SOL    HW154023   7.116   5.567   4.153
84083SOL    HW254024   7.130   5.448   4.246
84084SOL     OW54025   4.433   2.270  11.965
84084SOL    HW154026   4.415   2.293  12.056
84084SOL    HW254027   4.514   2.317  11.944
84085SOL     OW54028  12.453   6.680   7.251
84085SOL    HW154029  12.542   6.647   7.264
84085SOL    HW254030  12.432   6.657   7.160
84086SOL     OW54031   2.906  12.077  14.688
84086SOL    HW154032   2.833  12.138  14.680
84086SOL    HW254033   2.983  12.133  14.698
84087SOL     OW54034  14.107   6.870  12.609
84087SOL    HW154035  14.102   6.965  12.616
84087SOL    HW254036  14.198   6.851  12.587
84088SOL     OW54037   4.297   3.438  14.359
84088SOL    HW154038   4.361   3.452  14.428
84088SOL    HW254039   4.222   3.492  14.383
84089SOL     OW54040   0.222   7.825   6.124
84089SOL    HW154041   0.160   7.780   6.066
84089SOL    HW254042   0.176   7.905   6.150
84090SOL     OW54043   6.174   1.541   5.288
84090SOL    HW154044   6.130   1.621   5.259
84090SOL    HW254045   6.226   1.569   5.363
84091SOL     OW54046   7.574   3.484  12.901
84091SOL    HW154047   7.500   3.535  12.934
84091SOL    HW254048   7.641   3.493  12.969
84092SOL     OW54049   4.414   9.043   3.509
84092SOL    HW154050   4.440   9.006   3.424
84092SOL    HW254051   4.320   9.059   3.501
84093SOL     OW54052   0.673  12.091   5.385
84093SOL    HW154053   0.650  12.022   5.322
84093SOL    HW254054   0.662  12.173   5.336
84094SOL     OW54055  12.010   7.123  11.543
84094SOL    HW154056  11.996   7.185  11.472
84094SOL    HW254057  11.995   7.175  11.623
84095SOL     OW54058   3.403  13.683   0.644
84095SOL    HW154059   3.388  13.599   0.601
84095SOL    HW254060   3.446  13.660   0.727
84096SOL     OW54061   3.039   0.114   4.154
84096SOL    HW154062   2.974   0.119   4.224
84096SOL    HW254063   3.079   0.028   4.165
84097SOL     OW54064  11.433   3.372  11.598
84097SOL    HW154065  11.411   3.279  11.606
84097SOL    HW254066  11.521   3.373  11.560
84098SOL     OW54067  13.514   2.339  14.783
84098SOL    HW154068  13.431   2.355  14.737
84098SOL    HW254069  13.568   2.293  14.719
84099SOL     OW54070   7.347   2.298  14.729
84099SOL    HW154071   7.305   2.216  14.755
84099SOL    HW254072   7.370   2.286  14.637
84100SOL     OW54073   3.237   5.813   2.822
84100SOL    HW154074   3.279   5.760   2.890
84100SOL    HW254075   3.149   5.830   2.855
84101SOL     OW54076   8.204   1.819   5.464
84101SOL    HW154077   8.235   1.844   5.551
84101SOL    HW254078   8.162   1.734   5.476
84102SOL     OW54079   8.698  14.232   4.710
84102SOL    HW154080   8.754  14.275   4.774
84102SOL    HW254081   8.758  14.199   4.643
84103SOL     OW54082   3.251  13.918   8.091
84103SOL    HW154083   3.311  13.969   8.144
84103SOL    HW254084   3.303  13.890   8.016
84104SOL     OW54085   7.488   3.707   5.003
84104SOL    HW154086   7.394   3.694   4.988
84104SOL    HW254087   7.495   3.720   5.097
84105SOL     OW54088  11.678  12.132  14.681
84105SOL    HW154089  11.643  12.067  14.620
84105SOL    HW254090  11.626  12.122  14.760
84106SOL     OW54091   7.693   6.899   1.064
84106SOL    HW154092   7.615   6.853   1.033
84106SOL    HW254093   7.686   6.896   1.160
84107SOL     OW54094  11.793   8.661   8.166
84107SOL    HW154095  11.866   8.611   8.204
84107SOL    HW254096  11.716   8.606   8.182
84108SOL     OW54097   4.617   6.755   1.187
84108SOL    HW154098   4.678   6.806   1.133
84108SOL    HW254099   4.530   6.783   1.159
84109SOL     OW54100   7.140   2.098  13.006
84109SOL    HW154101   7.161   2.009  12.977
84109SOL    HW254102   7.223   2.132  13.039
84110SOL     OW54103   7.221   3.451   4.134
84110SOL    HW154104   7.158   3.471   4.065
84110SOL    HW254105   7.169   3.412   4.204
84111SOL     OW54106   9.019   9.609   7.858
84111SOL    HW154107   9.108   9.575   7.868
84111SOL    HW254108   8.983   9.561   7.783
84112SOL     OW54109   2.622   6.162  12.108
84112SOL    HW154110   2.702   6.188  12.155
84112SOL    HW254111   2.651   6.146  12.018
84113SOL     OW54112   8.117   3.176   1.930
84113SOL    HW154113   8.187   3.117   1.955
84113SOL    HW254114   8.053   3.170   2.001
84114SOL     OW54115   5.053   9.385   0.336
84114SOL    HW154116   5.143   9.410   0.355
84114SOL    HW254117   5.014   9.464   0.298
84115SOL     OW54118   6.666  10.653   2.890
84115SOL    HW154119   6.675  10.581   2.827
84115SOL    HW254120   6.580  10.640   2.930
84116SOL     OW54121  14.527   7.868   6.582
84116SOL    HW154122  14.489   7.869   6.494
84116SOL    HW254123  14.620   7.886   6.567
84117SOL     OW54124   6.404   7.724   1.524
84117SOL    HW154125   6.326   7.770   1.556
84117SOL    HW254126   6.369   7.657   1.465
84118SOL     OW54127   7.631  10.130   4.936
84118SOL    HW154128   7.536  10.139   4.925
84118SOL    HW254129   7.661  10.219   4.952
84119SOL     OW54130  12.463   6.907  11.123
84119SOL    HW154131  12.473   6.812  11.124
84119SOL    HW254132  12.397   6.924  11.056
84120SOL     OW54133   3.121  10.159   9.314
84120SOL    HW154134   3.199  10.187   9.363
84120SOL    HW254135   3.153  10.090   9.256
84121SOL     OW54136   2.554  14.195  14.473
84121SOL    HW154137   2.591  14.283  14.468
84121SOL    HW254138   2.479  14.204  14.533
84122SOL     OW54139   8.472  13.979   3.257
84122SOL    HW154140   8.417  13.901   3.269
84122SOL    HW254141   8.435  14.023   3.181
84123SOL     OW54142   5.878  14.337   7.353
84123SOL    HW154143   5.855  14.353   7.262
84123SOL    HW254144   5.969  14.308   7.350
84124SOL     OW54145   5.383   8.278  13.952
84124SOL    HW154146   5.458   8.323  13.912
84124SOL    HW254147   5.325   8.349  13.980
84125SOL     OW54148  14.411   1.367  12.184
84125SOL    HW154149  14.472   1.414  12.240
84125SOL    HW254150  14.424   1.404  12.096
84126SOL     OW54151   7.208   9.809   4.090
84126SOL    HW154152   7.194   9.758   4.169
84126SOL    HW254153   7.244   9.746   4.027
84127SOL     OW54154   1.367  10.402  12.597
84127SOL    HW154155   1.362  10.428  12.688
84127SOL    HW254156   1.316  10.468  12.550
84128SOL     OW54157  10.453   6.093   2.822
84128SOL    HW154158  10.534   6.144   2.810
84128SOL    HW254159  10.386   6.159   2.841
84129SOL     OW54160  12.132   1.289   4.761
84129SOL    HW154161  12.129   1.383   4.775
84129SOL    HW254162  12.070   1.273   4.690
84130SOL     OW54163   6.860   7.515   4.521
84130SOL    HW154164   6.933   7.561   4.563
84130SOL    HW254165   6.825   7.579   4.459
84131SOL     OW54166   2.029   1.187   5.207
84131SOL    HW154167   2.050   1.133   5.283
84131SOL    HW254168   2.111   1.231   5.185
84132SOL     OW54169   6.109  13.044   7.822
84132SOL    HW154170   6.193  13.018   7.784
84132SOL    HW254171   6.132  13.100   7.896
84133SOL     OW54172  13.100   1.764   8.245
84133SOL    HW154173  13.013   1.796   8.223
84133SOL    HW254174  13.157   1.841   8.237
84134SOL     OW54175   0.398  10.064   3.611
84134SOL    HW154176   0.328  10.074   3.676
84134SOL    HW254177   0.374  10.125   3.541
84135SOL     OW54178   3.894  10.820   3.354
84135SOL    HW154179   3.904  10.741   3.407
84135SOL    HW254180   3.876  10.889   3.417
84136SOL     OW54181  12.132  13.348   7.726
84136SOL    HW154182  12.086  13.340   7.643
84136SOL    HW254183  12.073  13.400   7.781
84137SOL     OW54184   9.445  10.579  11.468
84137SOL    HW154185   9.538  10.557  11.463
84137SOL    HW254186   9.433  10.613  11.557
84138SOL     OW54187   2.459   9.851   5.530
84138SOL    HW154188   2.399   9.875   5.459
84138SOL    HW254189   2.507   9.931   5.549
84139SOL     OW54190   4.362  12.185  13.690
84139SOL    HW154191   4.300  12.257  13.695
84139SOL    HW254192   4.404  12.195  13.605
84140SOL     OW54193   3.601   3.737   8.549
84140SOL    HW154194   3.679   3.701   8.590
84140SOL    HW254195   3.534   3.670   8.561
84141SOL     OW54196  12.005   4.674  14.733
84141SOL    HW154197  12.056   4.749  14.764
84141SOL    HW254198  12.040   4.656  14.645
84142SOL     OW54199  12.388   0.234  12.251
84142SOL    HW154200  12.467   0.271  12.212
84142SOL    HW254201  12.316   0.282  12.209
84143SOL     OW54202   0.690  11.657   8.735
84143SOL    HW154203   0.747  11.734   8.729
84143SOL    HW254204   0.741  11.594   8.787
84144SOL     OW54205   7.350   1.178   8.806
84144SOL    HW154206   7.256   1.162   8.801
84144SOL    HW254207   7.390   1.093   8.786
84145SOL     OW54208   9.370  10.059  10.532
84145SOL    HW154209   9.405  10.113  10.602
84145SOL    HW254210   9.369   9.970  10.568
84146SOL     OW54211   9.460  11.489  12.273
84146SOL    HW154212   9.527  11.436  12.317
84146SOL    HW254213   9.507  11.531  12.201
84147SOL     OW54214   2.001   8.008   7.423
84147SOL    HW154215   1.995   8.102   7.406
84147SOL    HW254216   2.077   7.999   7.481
84148SOL     OW54217   6.265   6.498   6.442
84148SOL    HW154218   6.233   6.581   6.478
84148SOL    HW254219   6.355   6.516   6.415
84149SOL     OW54220   2.619   6.317  11.878
84149SOL    HW154221   2.544   6.264  11.904
84149SOL    HW254222   2.666   6.263  11.814
84150SOL     OW54223   2.980   0.784  14.140
84150SOL    HW154224   3.002   0.756  14.051
84150SOL    HW254225   2.948   0.874  14.129
84151SOL     OW54226  10.709   6.118   2.020
84151SOL    HW154227  10.653   6.195   2.012
84151SOL    HW254228  10.727   6.112   2.114
84152SOL     OW54229   1.517   7.021   1.948
84152SOL    HW154230   1.494   7.113   1.961
84152SOL    HW254231   1.565   6.997   2.027
84153SOL     OW54232   7.784   2.466   8.553
84153SOL    HW154233   7.852   2.428   8.497
84153SOL    HW254234   7.735   2.525   8.496
84154SOL     OW54235  11.073  10.342   5.995
84154SOL    HW154236  11.102  10.285   6.066
84154SOL    HW254237  11.151  10.355   5.941
84155SOL     OW54238   6.380   4.724   7.776
84155SOL    HW154239   6.467   4.685   7.781
84155SOL    HW254240   6.359   4.726   7.683
84156SOL     OW54241  11.925  12.143   8.909
84156SOL    HW154242  11.890  12.059   8.880
84156SOL    HW254243  11.850  12.203   8.905
84157SOL     OW54244   7.357  14.593   6.395
84157SOL    HW154245   7.399  14.635   6.320
84157SOL    HW254246   7.270  14.568   6.362
84158SOL     OW54247   9.007  10.128   3.300
84158SOL    HW154248   9.065  10.053   3.292
84158SOL    HW254249   8.929  10.104   3.250
84159SOL     OW54250   7.674   5.370   1.786
84159SOL    HW154251   7.669   5.465   1.795
84159SOL    HW254252   7.680   5.338   1.876
84160SOL     OW54253  11.205   5.462   5.574
84160SOL    HW154254  11.166   5.505   5.498
84160SOL    HW254255  11.132   5.415   5.615
84161SOL     OW54256   6.456   8.985   4.262
84161SOL    HW154257   6.469   8.973   4.357
84161SOL    HW254258   6.522   9.049   4.237
84162SOL     OW54259  12.051   2.949   4.706
84162SOL    HW154260  12.073   2.885   4.638
84162SOL    HW254261  12.056   3.034   4.662
84163SOL     OW54262  12.620   5.230  12.289
84163SOL    HW154263  12.699   5.242  12.342
84163SOL    HW254264  12.596   5.139  12.301
84164SOL     OW54265   2.966   3.828   6.706
84164SOL    HW154266   3.023   3.896   6.743
84164SOL    HW254267   2.967   3.845   6.612
84165SOL     OW54268   4.122   7.527  10.298
84165SOL    HW154269   4.057   7.473  10.252
84165SOL    HW254270   4.069   7.583  10.355
84166SOL     OW54271  10.723   2.120   3.020
84166SOL    HW154272  10.789   2.087   2.958
84166SOL    HW254273  10.772   2.182   3.075
84167SOL     OW54274   7.011  14.125   7.568
84167SOL    HW154275   6.979  14.197   7.514
84167SOL    HW254276   7.075  14.166   7.626
84168SOL     OW54277  12.352   5.991   3.911
84168SOL    HW154278  12.298   5.979   3.989
84168SOL    HW254279  12.362   6.085   3.903
84169SOL     OW54280   6.082  11.645   5.151
84169SOL    HW154281   6.053  11.631   5.061
84169SOL    HW254282   6.016  11.705   5.188
84170SOL     OW54283   3.305   9.119  12.932
84170SOL    HW154284   3.247   9.108  12.857
84170SOL    HW254285   3.381   9.064  12.912
84171SOL     OW54286   1.001   1.258   8.462
84171SOL    HW154287   0.922   1.216   8.427
84171SOL    HW254288   1.038   1.193   8.521
84172SOL     OW54289   2.161   1.188   6.007
84172SOL    HW154290   2.132   1.223   6.091
84172SOL    HW254291   2.201   1.262   5.962
84173SOL     OW54292   3.958  12.409   6.557
84173SOL    HW154293   3.865  12.412   6.533
84173SOL    HW254294   3.998  12.353   6.490
84174SOL     OW54295   3.108   4.144   6.135
84174SOL    HW154296   3.082   4.093   6.058
84174SOL    HW254297   3.181   4.198   6.104
84175SOL     OW54298   2.620  12.522   5.634
84175SOL    HW154299   2.617  12.462   5.709
84175SOL    HW254300   2.642  12.466   5.560
84176SOL     OW54301   1.106   0.213   2.361
84176SOL    HW154302   1.115   0.239   2.453
84176SOL    HW254303   1.109   0.117   2.363
84177SOL     OW54304   8.424  14.620  10.679
84177SOL    HW154305   8.380  14.536  10.690
84177SOL    HW254306   8.354  14.682  10.661
84178SOL     OW54307   9.656   3.711  13.885
84178SOL    HW154308   9.728   3.712  13.947
84178SOL    HW254309   9.626   3.802  13.881
84179SOL     OW54310   8.230   5.145   2.821
84179SOL    HW154311   8.302   5.109   2.874
84179SOL    HW254312   8.151   5.123   2.871
84180SOL     OW54313  12.812  10.863   1.873
84180SOL    HW154314  12.763  10.933   1.915
84180SOL    HW254315  12.776  10.783   1.911
84181SOL     OW54316   1.677   5.618  14.298
84181SOL    HW154317   1.738   5.589  14.230
84181SOL    HW254318   1.672   5.713  14.288
84182SOL     OW54319  11.708  10.689   0.541
84182SOL    HW154320  11.624  10.660   0.505
84182SOL    HW254321  11.773  10.632   0.499
84183SOL     OW54322  14.469   4.379   0.066
84183SOL    HW154323  14.403   4.400  14.878
84183SOL    HW254324  14.418   4.347   0.141
84184SOL     OW54325   4.621   5.551   5.782
84184SOL    HW154326   4.576   5.484   5.833
84184SOL    HW254327   4.633   5.511   5.696
84185SOL     OW54328   9.148   0.148   1.389
84185SOL    HW154329   9.056   0.129   1.407
84185SOL    HW254330   9.189   0.062   1.377
84186SOL     OW54331  12.224  12.456   9.429
84186SOL    HW154332  12.227  12.426   9.338
84186SOL    HW254333  12.267  12.387   9.479
84187SOL     OW54334  10.365   6.347   2.709
84187SOL    HW154335  10.353   6.435   2.673
84187SOL    HW254336  10.367   6.360   2.804
84188SOL     OW54337  14.685  10.390   7.639
84188SOL    HW154338  14.683  10.460   7.573
84188SOL    HW254339  14.596  10.353   7.637
84189SOL     OW54340   2.126   5.799   3.077
84189SOL    HW154341   2.077   5.880   3.078
84189SOL    HW254342   2.060   5.730   3.086
84190SOL     OW54343   5.668   0.702  14.401
84190SOL    HW154344   5.664   0.612  14.369
84190SOL    HW254345   5.632   0.698  14.490
84191SOL     OW54346   6.172  11.961   4.938
84191SOL    HW154347   6.083  11.976   4.971
84191SOL    HW254348   6.161  11.891   4.874
84192SOL     OW54349  13.897   3.674   4.733
84192SOL    HW154350  13.807   3.701   4.715
84192SOL    HW254351  13.893   3.579   4.738
84193SOL     OW54352   2.107  13.203   2.422
84193SOL    HW154353   2.017  13.213   2.451
84193SOL    HW254354   2.100  13.185   2.328
84194SOL     OW54355   1.819   5.287   6.688
84194SOL    HW154356   1.795   5.371   6.649
84194SOL    HW254357   1.893   5.307   6.745
84195SOL     OW54358   5.743   2.707   0.677
84195SOL    HW154359   5.782   2.765   0.612
84195SOL    HW254360   5.701   2.638   0.625
84196SOL     OW54361  14.852   9.895  14.001
84196SOL    HW154362  14.775   9.862  14.048
84196SOL    HW254363  14.816   9.949  13.931
84197SOL     OW54364   8.248   5.696   7.239
84197SOL    HW154365   8.331   5.729   7.206
84197SOL    HW254366   8.254   5.601   7.230
84198SOL     OW54367  10.655   0.708   8.180
84198SOL    HW154368  10.590   0.638   8.183
84198SOL    HW254369  10.722   0.681   8.243
84199SOL     OW54370   0.617   0.567  10.553
84199SOL    HW154371   0.618   0.480  10.595
84199SOL    HW254372   0.701   0.573  10.509
84200SOL     OW54373   7.980  12.557  10.050
84200SOL    HW154374   8.054  12.583   9.996
84200SOL    HW254375   7.936  12.639  10.072
84201SOL     OW54376   5.889   1.165  11.923
84201SOL    HW154377   5.878   1.143  12.015
84201SOL    HW254378   5.857   1.088  11.876
84202SOL     OW54379   5.503   6.281   5.777
84202SOL    HW154380   5.563   6.355   5.774
84202SOL    HW254381   5.454   6.287   5.695
84203SOL     OW54382   1.883  11.899   5.254
84203SOL    HW154383   1.913  11.890   5.164
84203SOL    HW254384   1.948  11.956   5.296
84204SOL     OW54385   8.591   3.340  11.802
84204SOL    HW154386   8.667   3.330  11.859
84204SOL    HW254387   8.520   3.296  11.848
84205SOL     OW54388   1.642   2.019   4.864
84205SOL    HW154389   1.586   1.959   4.816
84205SOL    HW254390   1.654   1.977   4.950
84206SOL     OW54391   6.053   9.262   7.317
84206SOL    HW154392   6.042   9.202   7.243
84206SOL    HW254393   5.979   9.244   7.374
84207SOL     OW54394   6.533   4.207  14.592
84207SOL    HW154395   6.553   4.299  14.610
84207SOL    HW254396   6.619   4.164  14.590
84208SOL     OW54397  10.811   5.261   2.331
84208SOL    HW154398  10.837   5.277   2.421
84208SOL    HW254399  10.715   5.263   2.333
84209SOL     OW54400   2.018   2.502   3.019
84209SOL    HW154401   2.107   2.471   3.001
84209SOL    HW254402   2.027   2.596   3.034
84210SOL     OW54403   7.036  10.288   0.431
84210SOL    HW154404   7.063  10.373   0.465
84210SOL    HW254405   6.950  10.304   0.393
84211SOL     OW54406   1.472   0.662  13.021
84211SOL    HW154407   1.531   0.619  13.084
84211SOL    HW254408   1.523   0.736  12.988
84212SOL     OW54409   8.636   6.779  13.089
84212SOL    HW154410   8.683   6.861  13.075
84212SOL    HW254411   8.695   6.726  13.143
84213SOL     OW54412  11.073  14.661   4.932
84213SOL    HW154413  11.069  14.752   4.901
84213SOL    HW254414  11.158  14.655   4.976
84214SOL     OW54415   2.122   2.678   5.092
84214SOL    HW154416   2.031   2.657   5.114
84214SOL    HW254417   2.128   2.658   4.998
84215SOL     OW54418  13.558  14.104  10.108
84215SOL    HW154419  13.493  14.169  10.084
84215SOL    HW254420  13.608  14.088  10.028
84216SOL     OW54421  12.030   5.669   0.964
84216SOL    HW154422  12.048   5.736   1.030
84216SOL    HW254423  12.114   5.628   0.947
84217SOL     OW54424   6.877   2.863  11.588
84217SOL    HW154425   6.858   2.829  11.500
84217SOL    HW254426   6.842   2.952  11.587
84218SOL     OW54427  12.293  11.566  13.581
84218SOL    HW154428  12.384  11.546  13.559
84218SOL    HW254429  12.284  11.660  13.563
84219SOL     OW54430  12.457   6.551  14.698
84219SOL    HW154431  12.501   6.467  14.686
84219SOL    HW254432  12.504   6.611  14.640
84220SOL     OW54433  10.383  12.414   4.261
84220SOL    HW154434  10.320  12.345   4.281
84220SOL    HW254435  10.466  12.380   4.295
84221SOL     OW54436   8.268  12.668  13.095
84221SOL    HW154437   8.362  12.683  13.095
84221SOL    HW254438   8.230  12.751  13.066
84222SOL     OW54439   4.269   2.323   5.032
84222SOL    HW154440   4.304   2.297   5.117
84222SOL    HW254441   4.184   2.362   5.051
84223SOL     OW54442  14.112   8.414   6.218
84223SOL    HW154443  14.111   8.325   6.254
84223SOL    HW254444  14.203   8.443   6.227
84224SOL     OW54445   2.864   6.721  14.823
84224SOL    HW154446   2.836   6.722   0.037
84224SOL    HW254447   2.833   6.805  14.788
84225SOL     OW54448   7.764   2.281  10.182
84225SOL    HW154449   7.788   2.247  10.268
84225SOL    HW254450   7.754   2.375  10.195
84226SOL     OW54451   9.246   4.397   4.392
84226SOL    HW154452   9.217   4.450   4.318
84226SOL    HW254453   9.269   4.312   4.355
84227SOL     OW54454   0.166  12.886   1.268
84227SOL    HW154455   0.213  12.916   1.189
84227SOL    HW254456   0.073  12.895   1.245
84228SOL     OW54457  14.715  10.455   9.947
84228SOL    HW154458  14.716  10.474  10.041
84228SOL    HW254459  14.751  10.366   9.940
84229SOL     OW54460  10.086   3.345  10.878
84229SOL    HW154461  10.003   3.319  10.840
84229SOL    HW254462  10.120   3.265  10.919
84230SOL     OW54463  11.761  12.938   6.423
84230SOL    HW154464  11.779  13.021   6.466
84230SOL    HW254465  11.801  12.872   6.480
84231SOL     OW54466  14.744   6.493  12.878
84231SOL    HW154467  14.651   6.479  12.857
84231SOL    HW254468  14.744   6.570  12.934
84232SOL     OW54469   0.419   9.377   1.386
84232SOL    HW154470   0.347   9.402   1.444
84232SOL    HW254471   0.380   9.375   1.299
84233SOL     OW54472  14.243  14.696   3.208
84233SOL    HW154473  14.231  14.771   3.266
84233SOL    HW254474  14.241  14.620   3.266
84234SOL     OW54475  11.249   3.928   3.980
84234SOL    HW154476  11.195   3.986   4.033
84234SOL    HW254477  11.207   3.842   3.989
84235SOL     OW54478  14.864   8.743   1.935
84235SOL    HW154479  14.772   8.760   1.958
84235SOL    HW254480  14.865   8.650   1.910
84236SOL     OW54481  13.590   7.255   6.500
84236SOL    HW154482  13.577   7.176   6.552
84236SOL    HW254483  13.656   7.305   6.549
84237SOL     OW54484   4.082  13.018   1.500
84237SOL    HW154485   4.065  12.984   1.588
84237SOL    HW254486   4.177  13.016   1.491
84238SOL     OW54487  10.856   9.833   5.288
84238SOL    HW154488  10.788   9.773   5.259
84238SOL    HW254489  10.846   9.910   5.232
84239SOL     OW54490   9.397   9.194   9.733
84239SOL    HW154491   9.418   9.211   9.825
84239SOL    HW254492   9.478   9.157   9.697
84240SOL     OW54493  12.569  12.604   5.886
84240SOL    HW154494  12.573  12.568   5.975
84240SOL    HW254495  12.557  12.698   5.898
84241SOL     OW54496  14.592  14.411   8.300
84241SOL    HW154497  14.556  14.424   8.213
84241SOL    HW254498  14.674  14.363   8.286
84242SOL     OW54499   5.064   5.511  11.549
84242SOL    HW154500   5.026   5.597  11.533
84242SOL    HW254501   5.131   5.502  11.481
84243SOL     OW54502   8.037   2.123   0.124
84243SOL    HW154503   7.943   2.129   0.102
84243SOL    HW254504   8.078   2.090   0.044
84244SOL     OW54505  14.707   7.867   5.147
84244SOL    HW154506  14.723   7.960   5.164
84244SOL    HW254507  14.791   7.825   5.164
84245SOL     OW54508   5.365   2.073   4.675
84245SOL    HW154509   5.270   2.062   4.668
84245SOL    HW254510   5.399   1.985   4.687
84246SOL     OW54511  13.117   2.788  11.049
84246SOL    HW154512  13.042   2.734  11.074
84246SOL    HW254513  13.078   2.867  11.012
84247SOL     OW54514   2.892   9.469   4.010
84247SOL    HW154515   2.823   9.464   3.943
84247SOL    HW254516   2.865   9.543   4.066
84248SOL     OW54517   5.937  13.566   4.750
84248SOL    HW154518   5.986  13.524   4.821
84248SOL    HW254519   5.849  13.576   4.784
84249SOL     OW54520   5.338   4.524  14.050
84249SOL    HW154521   5.421   4.539  14.005
84249SOL    HW254522   5.363   4.498  14.139
84250SOL     OW54523   1.469   7.972  10.257
84250SOL    HW154524   1.540   8.035  10.264
84250SOL    HW254525   1.467   7.947  10.165
84251SOL     OW54526   6.519   5.958   6.829
84251SOL    HW154527   6.494   5.942   6.737
84251SOL    HW254528   6.550   5.873   6.859
84252SOL     OW54529   7.090   6.187   2.371
84252SOL    HW154530   7.008   6.190   2.322
84252SOL    HW254531   7.070   6.230   2.454
84253SOL     OW54532  14.792   8.253  12.473
84253SOL    HW154533  14.811   8.192  12.401
84253SOL    HW254534  14.707   8.226  12.506
84254SOL     OW54535  10.652   9.804  13.138
84254SOL    HW154536  10.585   9.737  13.141
84254SOL    HW254537  10.734   9.756  13.130
84255SOL     OW54538   6.772   4.036   0.278
84255SOL    HW154539   6.762   3.950   0.237
84255SOL    HW254540   6.810   4.018   0.364
84256SOL     OW54541   1.113   0.188   5.775
84256SOL    HW154542   1.152   0.107   5.742
84256SOL    HW254543   1.018   0.173   5.767
84257SOL     OW54544   1.250  14.599   5.126
84257SOL    HW154545   1.263  14.693   5.111
84257SOL    HW254546   1.331  14.559   5.094
84258SOL     OW54547   6.005   4.571  12.548
84258SOL    HW154548   6.000   4.523  12.630
84258SOL    HW254549   6.081   4.535  12.503
84259SOL     OW54550  11.209   5.969   1.859
84259SOL    HW154551  11.160   6.042   1.897
84259SOL    HW254552  11.234   5.999   1.772
84260SOL     OW54553   4.403   7.329   6.211
84260SOL    HW154554   4.309   7.325   6.198
84260SOL    HW254555   4.437   7.250   6.169
84261SOL     OW54556   9.879   4.295   8.353
84261SOL    HW154557   9.940   4.231   8.316
84261SOL    HW254558   9.868   4.360   8.285
84262SOL     OW54559   5.113   7.107   4.692
84262SOL    HW154560   5.153   7.021   4.682
84262SOL    HW254561   5.163   7.149   4.761
84263SOL     OW54562   1.487   9.588   4.837
84263SOL    HW154563   1.407   9.582   4.889
84263SOL    HW254564   1.549   9.531   4.883
84264SOL     OW54565   1.328  10.858  11.894
84264SOL    HW154566   1.245  10.859  11.941
84264SOL    HW254567   1.357  10.949  11.894
84265SOL     OW54568   5.080   5.731  13.954
84265SOL    HW154569   5.162   5.686  13.934
84265SOL    HW254570   5.019   5.699  13.888
84266SOL     OW54571   0.861   3.908   4.244
84266SOL    HW154572   0.765   3.902   4.241
84266SOL    HW254573   0.883   3.879   4.333
84267SOL     OW54574   9.787   2.306   5.589
84267SOL    HW154575   9.850   2.284   5.520
84267SOL    HW254576   9.833   2.370   5.644
84268SOL     OW54577   6.044   2.858   9.596
84268SOL    HW154578   6.020   2.842   9.687
84268SOL    HW254579   6.051   2.953   9.590
84269SOL     OW54580   0.753  11.608   3.228
84269SOL    HW154581   0.842  11.586   3.255
84269SOL    HW254582   0.717  11.657   3.302
84270SOL     OW54583   7.744   9.819   5.340
84270SOL    HW154584   7.682   9.859   5.401
84270SOL    HW254585   7.818   9.792   5.395
84271SOL     OW54586  14.230   3.790   0.213
84271SOL    HW154587  14.207   3.744   0.133
84271SOL    HW254588  14.148   3.826   0.246
84272SOL     OW54589   0.001   8.126   0.704
84272SOL    HW154590   0.029   8.081   0.624
84272SOL    HW254591  14.876   8.057   0.770
84273SOL     OW54592   5.019  12.095   1.784
84273SOL    HW154593   5.079  12.021   1.776
84273SOL    HW254594   4.937  12.055   1.815
84274SOL     OW54595   6.569   5.248  13.947
84274SOL    HW154596   6.534   5.336  13.931
84274SOL    HW254597   6.564   5.238  14.042
84275SOL     OW54598  14.508   6.557   4.196
84275SOL    HW154599  14.603   6.561   4.208
84275SOL    HW254600  14.492   6.466   4.171
84276SOL     OW54601   4.204  14.374   8.911
84276SOL    HW154602   4.271  14.322   8.868
84276SOL    HW254603   4.126  14.318   8.913
84277SOL     OW54604   6.213   0.451   9.369
84277SOL    HW154605   6.284   0.483   9.315
84277SOL    HW254606   6.243   0.365   9.399
84278SOL     OW54607   6.071  11.820  13.956
84278SOL    HW154608   5.995  11.871  13.930
84278SOL    HW254609   6.083  11.841  14.049
84279SOL     OW54610   2.611   9.966   8.418
84279SOL    HW154611   2.693   9.953   8.370
84279SOL    HW254612   2.567  10.037   8.371
84280SOL     OW54613   8.463   4.217   4.405
84280SOL    HW154614   8.557   4.233   4.396
84280SOL    HW254615   8.431   4.289   4.460
84281SOL     OW54616   8.329   5.478   5.702
84281SOL    HW154617   8.270   5.543   5.662
84281SOL    HW254618   8.281   5.448   5.779
84282SOL     OW54619  11.828   1.635   6.438
84282SOL    HW154620  11.867   1.713   6.400
84282SOL    HW254621  11.858   1.563   6.383
84283SOL     OW54622   4.454  11.828   3.423
84283SOL    HW154623   4.485  11.779   3.347
84283SOL    HW254624   4.525  11.818   3.487
84284SOL     OW54625  10.768  10.849  11.534
84284SOL    HW154626  10.725  10.886  11.457
84284SOL    HW254627  10.830  10.785  11.499
84285SOL     OW54628   4.776  10.052  12.405
84285SOL    HW154629   4.805  10.083  12.490
84285SOL    HW254630   4.712  10.117  12.376
84286SOL     OW54631   6.237   9.824   9.220
84286SOL    HW154632   6.210   9.733   9.207
84286SOL    HW254633   6.314   9.835   9.165
84287SOL     OW54634   0.724   4.193   3.645
84287SOL    HW154635   0.718   4.214   3.738
84287SOL    HW254636   0.702   4.100   3.639
84288SOL     OW54637  13.063  12.919   5.764
84288SOL    HW154638  13.092  12.948   5.677
84288SOL    HW254639  13.102  12.982   5.824
84289SOL     OW54640   7.302  14.188   0.765
84289SOL    HW154641   7.392  14.189   0.798
84289SOL    HW254642   7.260  14.116   0.812
84290SOL     OW54643  13.688   0.025  14.692
84290SOL    HW154644  13.655   0.115  14.697
84290SOL    HW254645  13.778   0.030  14.723
84291SOL     OW54646  14.814   8.749  11.660
84291SOL    HW154647  14.825   8.804  11.582
84291SOL    HW254648   0.006   8.684  11.653
84292SOL     OW54649   9.014   3.509   9.237
84292SOL    HW154650   8.926   3.542   9.257
84292SOL    HW254651   9.000   3.441   9.171
84293SOL     OW54652   9.373  13.651   4.993
84293SOL    HW154653   9.374  13.702   5.074
84293SOL    HW254654   9.463  13.617   4.986
84294SOL     OW54655   0.617   5.008   8.543
84294SOL    HW154656   0.564   4.942   8.499
84294SOL    HW254657   0.675   5.043   8.475
84295SOL     OW54658   6.641   3.743   5.892
84295SOL    HW154659   6.665   3.832   5.866
84295SOL    HW254660   6.676   3.688   5.822
84296SOL     OW54661   8.624   3.241   5.743
84296SOL    HW154662   8.662   3.220   5.828
84296SOL    HW254663   8.637   3.161   5.691
84297SOL     OW54664   4.471  14.825   8.748
84297SOL    HW154665   4.513  14.793   8.828
84297SOL    HW254666   4.422  14.750   8.714
84298SOL     OW54667   7.704  13.324   7.228
84298SOL    HW154668   7.733  13.404   7.270
84298SOL    HW254669   7.707  13.258   7.297
84299SOL     OW54670   4.546   7.675   5.776
84299SOL    HW154671   4.549   7.629   5.692
84299SOL    HW254672   4.489   7.750   5.760
84300SOL     OW54673   6.718  11.493  14.175
84300SOL    HW154674   6.649  11.446  14.129
84300SOL    HW254675   6.753  11.554  14.111
84301SOL     OW54676   3.314   8.005   7.749
84301SOL    HW154677   3.376   8.050   7.692
84301SOL    HW254678   3.244   8.069   7.764
84302SOL     OW54679   4.426  13.831   5.756
84302SOL    HW154680   4.407  13.738   5.744
84302SOL    HW254681   4.379  13.855   5.836
84303SOL     OW54682   2.015  11.246   5.695
84303SOL    HW154683   2.015  11.151   5.685
84303SOL    HW254684   1.970  11.278   5.617
84304SOL     OW54685   9.577   9.587   5.370
84304SOL    HW154686   9.600   9.494   5.369
84304SOL    HW254687   9.606   9.618   5.455
84305SOL     OW54688   3.075   9.855   6.333
84305SOL    HW154689   3.110   9.782   6.384
84305SOL    HW254690   2.985   9.865   6.364
84306SOL     OW54691   2.228   7.863   4.416
84306SOL    HW154692   2.291   7.934   4.398
84306SOL    HW254693   2.266   7.787   4.372
84307SOL     OW54694  12.203  10.542  13.855
84307SOL    HW154695  12.182  10.450  13.841
84307SOL    HW254696  12.198  10.581  13.768
84308SOL     OW54697   3.970   2.969   3.351
84308SOL    HW154698   3.897   3.026   3.376
84308SOL    HW254699   4.030   3.026   3.304
84309SOL     OW54700   4.704   8.577   1.955
84309SOL    HW154701   4.685   8.502   1.900
84309SOL    HW254702   4.632   8.639   1.938
84310SOL     OW54703   9.689   5.853   0.720
84310SOL    HW154704   9.669   5.812   0.805
84310SOL    HW254705   9.645   5.798   0.656
84311SOL     OW54706   0.810   2.015   9.997
84311SOL    HW154707   0.718   2.030   9.974
84311SOL    HW254708   0.808   1.982  10.086
84312SOL     OW54709   0.964   3.734   2.883
84312SOL    HW154710   0.909   3.808   2.909
84312SOL    HW254711   1.043   3.744   2.937
84313SOL     OW54712  12.473  13.519   9.569
84313SOL    HW154713  12.477  13.576   9.645
84313SOL    HW254714  12.561  13.481   9.563
84314SOL     OW54715   8.626  13.958  13.188
84314SOL    HW154716   8.657  13.931  13.274
84314SOL    HW254717   8.670  13.899  13.127
84315SOL     OW54718  10.228   0.211  13.060
84315SOL    HW154719  10.222   0.267  12.983
84315SOL    HW254720  10.256   0.270  13.130
84316SOL     OW54721   9.548  13.638   1.411
84316SOL    HW154722   9.527  13.731   1.403
84316SOL    HW254723   9.464  13.596   1.431
84317SOL     OW54724   4.798   5.302   9.838
84317SOL    HW154725   4.737   5.371   9.864
84317SOL    HW254726   4.882   5.330   9.874
84318SOL     OW54727  10.575   0.846   3.920
84318SOL    HW154728  10.545   0.888   4.000
84318SOL    HW254729  10.500   0.797   3.888
84319SOL     OW54730  13.893   9.089   4.116
84319SOL    HW154731  13.919   9.157   4.178
84319SOL    HW254732  13.975   9.051   4.087
84320SOL     OW54733  14.356  13.287  12.717
84320SOL    HW154734  14.373  13.228  12.643
84320SOL    HW254735  14.432  13.276  12.774
84321SOL     OW54736   4.285   9.222   4.622
84321SOL    HW154737   4.353   9.266   4.674
84321SOL    HW254738   4.289   9.130   4.651
84322SOL     OW54739   0.559   0.105  14.150
84322SOL    HW154740   0.527   0.162  14.220
84322SOL    HW254741   0.495   0.035  14.145
84323SOL     OW54742   0.631   6.217   8.949
84323SOL    HW154743   0.539   6.223   8.924
84323SOL    HW254744   0.645   6.290   9.009
84324SOL     OW54745   6.088   1.286   7.410
84324SOL    HW154746   6.145   1.245   7.345
84324SOL    HW254747   6.069   1.216   7.473
84325SOL     OW54748   9.508   4.963   9.639
84325SOL    HW154749   9.534   4.979   9.549
84325SOL    HW254750   9.584   4.988   9.691
84326SOL     OW54751   8.766  14.428   0.363
84326SOL    HW154752   8.747  14.358   0.301
84326SOL    HW254753   8.687  14.482   0.364
84327SOL     OW54754  13.843  10.444   2.618
84327SOL    HW154755  13.863  10.511   2.553
84327SOL    HW254756  13.789  10.380   2.572
84328SOL     OW54757   5.323   8.501   9.405
84328SOL    HW154758   5.358   8.548   9.481
84328SOL    HW254759   5.364   8.544   9.330
84329SOL     OW54760   0.032   1.079  11.245
84329SOL    HW154761  14.819   1.110  11.249
84329SOL    HW254762   0.061   1.102  11.157
84330SOL     OW54763  11.414  11.203   3.735
84330SOL    HW154764  11.419  11.259   3.657
84330SOL    HW254765  11.434  11.115   3.703
84331SOL     OW54766   3.088   9.118   2.911
84331SOL    HW154767   3.059   9.165   2.990
84331SOL    HW254768   3.113   9.187   2.850
84332SOL     OW54769   6.309   9.870   7.983
84332SOL    HW154770   6.343   9.926   7.913
84332SOL    HW254771   6.283   9.931   8.052
84333SOL     OW54772  14.179   5.661   0.851
84333SOL    HW154773  14.156   5.686   0.941
84333SOL    HW254774  14.161   5.739   0.799
84334SOL     OW54775   2.093   4.476   6.328
84334SOL    HW154776   2.065   4.396   6.285
84334SOL    HW254777   2.139   4.447   6.407
84335SOL     OW54778  10.202  13.008  14.122
84335SOL    HW154779  10.199  12.952  14.200
84335SOL    HW254780  10.198  13.097  14.156
84336SOL     OW54781   4.835   6.669   8.853
84336SOL    HW154782   4.856   6.656   8.761
84336SOL    HW254783   4.743   6.696   8.853
84337SOL     OW54784   0.233   9.864  11.955
84337SOL    HW154785   0.225   9.917  12.034
84337SOL    HW254786   0.145   9.829  11.941
84338SOL     OW54787   2.250  12.375   9.328
84338SOL    HW154788   2.288  12.418   9.405
84338SOL    HW254789   2.278  12.284   9.335
84339SOL     OW54790   9.656   5.870   2.762
84339SOL    HW154791   9.714   5.841   2.691
84339SOL    HW254792   9.716   5.903   2.829
84340SOL     OW54793   0.392  12.429   3.756
84340SOL    HW154794   0.390  12.467   3.844
84340SOL    HW254795   0.431  12.343   3.769
84341SOL     OW54796  10.557   6.199   6.105
84341SOL    HW154797  10.518   6.277   6.064
84341SOL    HW254798  10.561   6.221   6.198
84342SOL     OW54799  11.468  14.767   6.480
84342SOL    HW154800  11.407  14.701   6.446
84342SOL    HW254801  11.552  14.722   6.486
84343SOL     OW54802   1.084  10.633  11.974
84343SOL    HW154803   1.093  10.701  11.908
84343SOL    HW254804   1.162  10.578  11.962
84344SOL     OW54805  13.304   6.152   5.656
84344SOL    HW154806  13.222   6.126   5.697
84344SOL    HW254807  13.371   6.128   5.719
84345SOL     OW54808   2.199   7.303  10.137
84345SOL    HW154809   2.112   7.276  10.165
84345SOL    HW254810   2.225   7.371  10.200
84346SOL     OW54811   0.965   6.900   3.451
84346SOL    HW154812   0.997   6.885   3.540
84346SOL    HW254813   1.040   6.881   3.395
84347SOL     OW54814   8.596   5.361  11.686
84347SOL    HW154815   8.583   5.422  11.614
84347SOL    HW254816   8.677   5.315  11.664
84348SOL     OW54817  13.290  11.742   5.873
84348SOL    HW154818  13.370  11.741   5.821
84348SOL    HW254819  13.300  11.817   5.931
84349SOL     OW54820   5.053   8.112   9.858
84349SOL    HW154821   5.000   8.139   9.933
84349SOL    HW254822   5.133   8.164   9.866
84350SOL     OW54823   2.117   4.189   6.634
84350SOL    HW154824   2.179   4.136   6.584
84350SOL    HW254825   2.034   4.142   6.626
84351SOL     OW54826   1.987   0.251   2.893
84351SOL    HW154827   2.076   0.268   2.860
84351SOL    HW254828   1.966   0.163   2.859
84352SOL     OW54829  11.757  13.318   9.031
84352SOL    HW154830  11.778  13.395   9.085
84352SOL    HW254831  11.746  13.247   9.095
84353SOL     OW54832   5.652  13.612   4.687
84353SOL    HW154833   5.626  13.539   4.631
84353SOL    HW254834   5.571  13.638   4.732
84354SOL     OW54835  13.118  14.760  10.016
84354SOL    HW154836  13.127  14.851  10.042
84354SOL    HW254837  13.196  14.716  10.050
84355SOL     OW54838   2.055  10.889   4.310
84355SOL    HW154839   2.043  10.813   4.367
84355SOL    HW254840   1.969  10.931   4.308
84356SOL     OW54841   2.958  11.447   9.403
84356SOL    HW154842   2.954  11.428   9.496
84356SOL    HW254843   2.910  11.374   9.362
84357SOL     OW54844   2.768   1.333   8.840
84357SOL    HW154845   2.696   1.373   8.791
84357SOL    HW254846   2.822   1.407   8.868
84358SOL     OW54847   3.274   6.413   6.121
84358SOL    HW154848   3.337   6.358   6.075
84358SOL    HW254849   3.316   6.500   6.124
84359SOL     OW54850  12.918   9.953   0.054
84359SOL    HW154851  12.833   9.996   0.055
84359SOL    HW254852  12.977  10.017   0.014
84360SOL     OW54853  13.722   8.621  13.041
84360SOL    HW154854  13.768   8.577  13.112
84360SOL    HW254855  13.658   8.678  13.085
84361SOL     OW54856   2.179   7.579   6.284
84361SOL    HW154857   2.086   7.572   6.263
84361SOL    HW254858   2.221   7.512   6.231
84362SOL     OW54859   8.402   4.008  11.540
84362SOL    HW154860   8.335   4.075  11.554
84362SOL    HW254861   8.478   4.040  11.589
84363SOL     OW54862  14.073  10.930   4.163
84363SOL    HW154863  14.088  10.907   4.255
84363SOL    HW254864  14.019  11.009   4.167
84364SOL     OW54865   5.727  10.598   9.357
84364SOL    HW154866   5.645  10.648   9.360
84364SOL    HW254867   5.733  10.556   9.443
84365SOL     OW54868  10.304   8.583   5.923
84365SOL    HW154869  10.394   8.587   5.890
84365SOL    HW254870  10.252   8.554   5.848
84366SOL     OW54871   4.517   1.390  10.599
84366SOL    HW154872   4.516   1.442  10.518
84366SOL    HW254873   4.470   1.309  10.576
84367SOL     OW54874   2.626   0.852   7.197
84367SOL    HW154875   2.577   0.850   7.115
84367SOL    HW254876   2.643   0.759   7.217
84368SOL     OW54877   1.651  11.806   0.904
84368SOL    HW154878   1.677  11.762   0.822
84368SOL    HW254879   1.635  11.897   0.878
84369SOL     OW54880  10.939  12.783   0.719
84369SOL    HW154881  10.985  12.762   0.800
84369SOL    HW254882  10.912  12.698   0.684
84370SOL     OW54883  10.630   7.771  14.311
84370SOL    HW154884  10.679   7.716  14.249
84370SOL    HW254885  10.545   7.728  14.318
84371SOL     OW54886   7.843   7.660   0.021
84371SOL    HW154887   7.808   7.737  14.855
84371SOL    HW254888   7.912   7.693   0.078
84372SOL     OW54889  10.012  14.356  13.064
84372SOL    HW154890   9.918  14.341  13.051
84372SOL    HW254891  10.016  14.414  13.140
84373SOL     OW54892   3.720  14.430  13.241
84373SOL    HW154893   3.693  14.346  13.203
84373SOL    HW254894   3.638  14.469  13.272
84374SOL     OW54895   6.814   7.670  14.569
84374SOL    HW154896   6.798   7.666  14.663
84374SOL    HW254897   6.846   7.582  14.546
84375SOL     OW54898   7.474   0.214   9.574
84375SOL    HW154899   7.565   0.243   9.582
84375SOL    HW254900   7.423   0.295   9.579
84376SOL     OW54901   1.847  10.433   0.105
84376SOL    HW154902   1.931  10.416   0.063
84376SOL    HW254903   1.840  10.367   0.174
84377SOL     OW54904   5.608   9.450  12.238
84377SOL    HW154905   5.664   9.375  12.219
84377SOL    HW254906   5.669   9.524  12.247
84378SOL     OW54907   8.432  10.615   4.266
84378SOL    HW154908   8.513  10.592   4.222
84378SOL    HW254909   8.371  10.544   4.245
84379SOL     OW54910  11.916   8.828   6.375
84379SOL    HW154911  11.884   8.781   6.298
84379SOL    HW254912  11.984   8.887   6.341
84380SOL     OW54913   4.082   3.625  14.868
84380SOL    HW154914   4.141   3.558  14.834
84380SOL    HW254915   4.136   3.678   0.048
84381SOL     OW54916   9.801   5.577  11.593
84381SOL    HW154917   9.734   5.587  11.661
84381SOL    HW254918   9.817   5.666  11.562
84382SOL     OW54919  14.038   2.687   9.201
84382SOL    HW154920  14.130   2.662   9.217
84382SOL    HW254921  13.994   2.605   9.181
84383SOL     OW54922   4.249   0.398  12.370
84383SOL    HW154923   4.261   0.395  12.275
84383SOL    HW254924   4.294   0.478  12.397
84384SOL     OW54925  13.153   2.182   2.833
84384SOL    HW154926  13.196   2.100   2.855
84384SOL    HW254927  13.089   2.195   2.903
84385SOL     OW54928  10.771   2.491  10.982
84385SOL    HW154929  10.736   2.506  11.070
84385SOL    HW254930  10.865   2.476  10.996
84386SOL     OW54931  10.018  14.019   3.469
84386SOL    HW154932  10.007  13.958   3.542
84386SOL    HW254933   9.997  14.105   3.505
84387SOL     OW54934  11.677   0.655  11.537
84387SOL    HW154935  11.614   0.597  11.580
84387SOL    HW254936  11.628   0.736  11.521
84388SOL     OW54937   0.895   3.422  13.150
84388SOL    HW154938   0.980   3.388  13.179
84388SOL    HW254939   0.914   3.508  13.114
84389SOL     OW54940   5.317   9.150   8.571
84389SOL    HW154941   5.309   9.245   8.576
84389SOL    HW254942   5.227   9.118   8.570
84390SOL     OW54943   1.786   2.360   3.035
84390SOL    HW154944   1.832   2.278   3.053
84390SOL    HW254945   1.855   2.426   3.030
84391SOL     OW54946   1.082   4.855  14.531
84391SOL    HW154947   0.989   4.864  14.556
84391SOL    HW254948   1.083   4.784  14.467
84392SOL     OW54949   9.521  12.026   7.945
84392SOL    HW154950   9.539  12.024   8.039
84392SOL    HW254951   9.570  11.952   7.910
84393SOL     OW54952   6.675   1.931   4.786
84393SOL    HW154953   6.662   1.995   4.856
84393SOL    HW254954   6.657   1.847   4.828
84394SOL     OW54955   2.654   0.246   3.120
84394SOL    HW154956   2.741   0.205   3.117
84394SOL    HW254957   2.593   0.173   3.121
84395SOL     OW54958   2.362   0.295  14.439
84395SOL    HW154959   2.429   0.234  14.407
84395SOL    HW254960   2.412   0.366  14.479
84396SOL     OW54961   5.000   0.336  13.975
84396SOL    HW154962   5.069   0.364  14.035
84396SOL    HW254963   4.953   0.417  13.952
84397SOL     OW54964  10.361   1.262   4.820
84397SOL    HW154965  10.392   1.275   4.910
84397SOL    HW254966  10.440   1.236   4.772
84398SOL     OW54967   9.629  10.015   2.161
84398SOL    HW154968   9.682  10.002   2.083
84398SOL    HW254969   9.669   9.958   2.227
84399SOL     OW54970  14.852   8.509   6.100
84399SOL    HW154971  14.790   8.477   6.035
84399SOL    HW254972   0.022   8.579   6.055
84400SOL     OW54973   9.342   0.763  10.381
84400SOL    HW154974   9.392   0.702  10.435
84400SOL    HW254975   9.408   0.807  10.328
84401SOL     OW54976  10.703   3.958   4.719
84401SOL    HW154977  10.674   4.047   4.701
84401SOL    HW254978  10.668   3.907   4.645
84402SOL     OW54979   6.609   0.671  12.250
84402SOL    HW154980   6.680   0.648  12.190
84402SOL    HW254981   6.530   0.643  12.204
84403SOL     OW54982   5.659  10.755   2.089
84403SOL    HW154983   5.572  10.785   2.115
84403SOL    HW254984   5.688  10.700   2.161
84404SOL     OW54985  10.984  11.395  14.449
84404SOL    HW154986  11.005  11.334  14.378
84404SOL    HW254987  10.990  11.343  14.528
84405SOL     OW54988  13.348   6.054   8.761
84405SOL    HW154989  13.400   6.045   8.841
84405SOL    HW254990  13.270   6.102   8.789
84406SOL     OW54991   4.600  14.584  14.188
84406SOL    HW154992   4.544  14.659  14.171
84406SOL    HW254993   4.651  14.609  14.265
84407SOL     OW54994   5.718  13.053   7.726
84407SOL    HW154995   5.665  12.987   7.770
84407SOL    HW254996   5.768  13.004   7.660
84408SOL     OW54997   5.003   1.562   1.030
84408SOL    HW154998   5.033   1.612   0.954
84408SOL    HW254999   5.082   1.549   1.083
84409SOL     OW55000   1.589  12.066   9.352
84409SOL    HW155001   1.668  12.015   9.371
84409SOL    HW255002   1.527  12.002   9.318
84410SOL     OW55003  11.530   8.475  11.430
84410SOL    HW155004  11.606   8.433  11.470
84410SOL    HW255005  11.495   8.410  11.369
84411SOL     OW55006   7.029  12.059   8.408
84411SOL    HW155007   6.983  12.067   8.325
84411SOL    HW255008   7.122  12.056   8.385
84412SOL     OW55009  11.344  14.134   4.663
84412SOL    HW155010  11.295  14.065   4.617
84412SOL    HW255011  11.290  14.212   4.654
84413SOL     OW55012   3.590  11.396   8.705
84413SOL    HW155013   3.601  11.329   8.773
84413SOL    HW255014   3.670  11.390   8.652
84414SOL     OW55015   5.929   8.823   6.987
84414SOL    HW155016   5.897   8.830   6.897
84414SOL    HW255017   5.852   8.799   7.038
84415SOL     OW55018  13.304   0.146   9.324
84415SOL    HW155019  13.356   0.100   9.258
84415SOL    HW255020  13.353   0.227   9.340
84416SOL     OW55021   6.094  12.887   0.509
84416SOL    HW155022   6.094  12.881   0.604
84416SOL    HW255023   6.069  12.799   0.480
84417SOL     OW55024   6.231   1.710   0.382
84417SOL    HW155025   6.221   1.803   0.400
84417SOL    HW255026   6.260   1.707   0.291
84418SOL     OW55027   4.303  10.031   3.408
84418SOL    HW155028   4.233  10.021   3.344
84418SOL    HW255029   4.313  10.126   3.419
84419SOL     OW55030  14.362  14.343   9.363
84419SOL    HW155031  14.379  14.291   9.285
84419SOL    HW255032  14.448  14.374   9.391
84420SOL     OW55033   4.584  10.945   0.737
84420SOL    HW155034   4.600  11.035   0.708
84420SOL    HW255035   4.494  10.926   0.710
84421SOL     OW55036   3.180   7.560   7.111
84421SOL    HW155037   3.105   7.532   7.163
84421SOL    HW255038   3.232   7.480   7.100
84422SOL     OW55039  13.661   4.054   9.980
84422SOL    HW155040  13.658   4.145   9.953
84422SOL    HW255041  13.577   4.017   9.951
84423SOL     OW55042   9.361   9.404  10.948
84423SOL    HW155043   9.310   9.325  10.965
84423SOL    HW255044   9.336   9.464  11.017
84424SOL     OW55045  13.090   5.392   3.210
84424SOL    HW155046  13.030   5.442   3.264
84424SOL    HW255047  13.169   5.446   3.205
84425SOL     OW55048   7.184   3.890  13.434
84425SOL    HW155049   7.124   3.944  13.382
84425SOL    HW255050   7.239   3.952  13.480
84426SOL     OW55051   4.776   7.416   3.785
84426SOL    HW155052   4.819   7.496   3.756
84426SOL    HW255053   4.752   7.371   3.703
84427SOL     OW55054   4.334   6.682   8.656
84427SOL    HW155055   4.361   6.712   8.569
84427SOL    HW255056   4.249   6.641   8.641
84428SOL     OW55057   7.404   9.932   7.005
84428SOL    HW155058   7.352   9.972   7.075
84428SOL    HW255059   7.346   9.933   6.929
84429SOL     OW55060  14.827  11.081   0.024
84429SOL    HW155061  14.874  11.159   0.052
84429SOL    HW255062  14.874  11.051  14.824
84430SOL     OW55063   3.259  10.760   2.903
84430SOL    HW155064   3.193  10.825   2.930
84430SOL    HW255065   3.249  10.689   2.967
84431SOL     OW55066  13.528  10.582   8.788
84431SOL    HW155067  13.567  10.506   8.745
84431SOL    HW255068  13.465  10.617   8.725
84432SOL     OW55069   3.098   2.926  14.612
84432SOL    HW155070   3.004   2.910  14.607
84432SOL    HW255071   3.115   2.993  14.545
84433SOL     OW55072  10.007   2.011  10.381
84433SOL    HW155073   9.918   2.001  10.347
84433SOL    HW255074  10.003   1.978  10.470
84434SOL     OW55075   2.550  13.920   2.488
84434SOL    HW155076   2.602  13.999   2.500
84434SOL    HW255077   2.488  13.942   2.418
84435SOL     OW55078   4.413   8.575  13.372
84435SOL    HW155079   4.367   8.500  13.335
84435SOL    HW255080   4.505   8.554  13.362
84436SOL     OW55081   7.621   7.398   4.255
84436SOL    HW155082   7.704   7.352   4.242
84436SOL    HW255083   7.565   7.369   4.183
84437SOL     OW55084  10.084   8.243   3.156
84437SOL    HW155085   9.992   8.253   3.131
84437SOL    HW255086  10.114   8.332   3.172
84438SOL     OW55087   5.762   0.791   7.666
84438SOL    HW155088   5.823   0.817   7.597
84438SOL    HW255089   5.816   0.750   7.732
84439SOL     OW55090   9.266  13.330   0.876
84439SOL    HW155091   9.298  13.318   0.965
84439SOL    HW255092   9.291  13.250   0.830
84440SOL     OW55093   2.942   1.941   0.270
84440SOL    HW155094   2.990   1.890   0.205
84440SOL    HW255095   2.971   2.031   0.255
84441SOL     OW55096   3.158   2.458   7.638
84441SOL    HW155097   3.110   2.538   7.619
84441SOL    HW255098   3.134   2.399   7.566
84442SOL     OW55099   0.663   4.026   4.730
84442SOL    HW155100   0.580   4.064   4.702
84442SOL    HW255101   0.639   3.942   4.769
84443SOL     OW55102   8.325   7.372   9.707
84443SOL    HW155103   8.306   7.337   9.794
84443SOL    HW255104   8.299   7.302   9.646
84444SOL     OW55105   2.341   4.143   1.839
84444SOL    HW155106   2.397   4.168   1.912
84444SOL    HW255107   2.397   4.149   1.762
84445SOL     OW55108   4.695   8.095   1.968
84445SOL    HW155109   4.709   8.010   2.011
84445SOL    HW255110   4.749   8.156   2.018
84446SOL     OW55111   5.815   0.962   2.717
84446SOL    HW155112   5.749   0.906   2.675
84446SOL    HW255113   5.871   0.901   2.765
84447SOL     OW55114  10.302  14.556   8.606
84447SOL    HW155115  10.366  14.522   8.544
84447SOL    HW255116  10.240  14.484   8.617
84448SOL     OW55117  13.445   4.373   4.327
84448SOL    HW155118  13.419   4.377   4.420
84448SOL    HW255119  13.362   4.372   4.280
84449SOL     OW55120  11.574   0.728   7.924
84449SOL    HW155121  11.585   0.678   8.004
84449SOL    HW255122  11.635   0.689   7.862
84450SOL     OW55123   6.830   8.567   4.579
84450SOL    HW155124   6.766   8.527   4.638
84450SOL    HW255125   6.915   8.541   4.615
84451SOL     OW55126   7.129  13.229  10.777
84451SOL    HW155127   7.165  13.315  10.753
84451SOL    HW255128   7.200  13.187  10.826
84452SOL     OW55129   2.719   7.516   1.288
84452SOL    HW155130   2.728   7.421   1.300
84452SOL    HW255131   2.629   7.535   1.313
84453SOL     OW55132  14.751  13.352   8.676
84453SOL    HW155133  14.822  13.331   8.615
84453SOL    HW255134  14.737  13.446   8.666
84454SOL     OW55135   3.319  12.734   6.547
84454SOL    HW155136   3.406  12.744   6.507
84454SOL    HW255137   3.337  12.687   6.629
84455SOL     OW55138   1.625  13.363   3.880
84455SOL    HW155139   1.694  13.364   3.946
84455SOL    HW255140   1.638  13.445   3.831
84456SOL     OW55141  11.120   0.159   0.989
84456SOL    HW155142  11.133   0.250   1.015
84456SOL    HW255143  11.130   0.109   1.070
84457SOL     OW55144   7.629   0.251   5.864
84457SOL    HW155145   7.640   0.200   5.944
84457SOL    HW255146   7.544   0.293   5.873
84458SOL     OW55147   2.570  11.138  12.088
84458SOL    HW155148   2.651  11.170  12.050
84458SOL    HW255149   2.597  11.090  12.166
84459SOL     OW55150   4.116   8.535   8.723
84459SOL    HW155151   4.118   8.496   8.636
84459SOL    HW255152   4.022   8.544   8.743
84460SOL     OW55153   1.075   3.611   3.753
84460SOL    HW155154   1.050   3.578   3.839
84460SOL    HW255155   0.993   3.629   3.708
84461SOL     OW55156   6.749   2.044   8.634
84461SOL    HW155157   6.691   2.114   8.663
84461SOL    HW255158   6.785   2.075   8.551
84462SOL     OW55159   4.301   2.085   3.385
84462SOL    HW155160   4.373   2.023   3.370
84462SOL    HW255161   4.344   2.171   3.386
84463SOL     OW55162  10.125  13.472   2.395
84463SOL    HW155163  10.195  13.524   2.355
84463SOL    HW255164  10.120  13.503   2.485
84464SOL     OW55165  10.308   6.023  11.541
84464SOL    HW155166  10.330   6.073  11.619
84464SOL    HW255167  10.212   6.015  11.543
84465SOL     OW55168   7.190   7.405   2.213
84465SOL    HW155169   7.116   7.354   2.247
84465SOL    HW255170   7.264   7.344   2.215
84466SOL     OW55171  12.642   7.925  12.095
84466SOL    HW155172  12.585   7.990  12.053
84466SOL    HW255173  12.684   7.973  12.167
84467SOL     OW55174  14.487   9.831   9.797
84467SOL    HW155175  14.407   9.835   9.850
84467SOL    HW255176  14.545   9.772   9.845
84468SOL     OW55177  10.823   8.411   7.262
84468SOL    HW155178  10.825   8.388   7.169
84468SOL    HW255179  10.830   8.328   7.308
84469SOL     OW55180   2.857   8.913  11.583
84469SOL    HW155181   2.879   8.829  11.543
84469SOL    HW255182   2.864   8.976  11.512
84470SOL     OW55183   0.900   5.683   8.356
84470SOL    HW155184   0.972   5.732   8.396
84470SOL    HW255185   0.823   5.710   8.404
84471SOL     OW55186   7.576   7.016   1.542
84471SOL    HW155187   7.646   6.971   1.587
84471SOL    HW255188   7.530   7.065   1.610
84472SOL     OW55189   7.943  12.246   3.693
84472SOL    HW155190   7.891  12.218   3.617
84472SOL    HW255191   7.953  12.167   3.746
84473SOL     OW55192   9.773   4.519  13.663
84473SOL    HW155193   9.688   4.514  13.705
84473SOL    HW255194   9.819   4.589  13.710
84474SOL     OW55195   7.075  12.082  12.334
84474SOL    HW155196   7.012  12.021  12.372
84474SOL    HW255197   7.035  12.168  12.347
84475SOL     OW55198  11.561   5.925   5.510
84475SOL    HW155199  11.514   5.854   5.465
84475SOL    HW255200  11.493   5.972   5.557
84476SOL     OW55201   7.988   2.571   1.775
84476SOL    HW155202   7.956   2.622   1.850
84476SOL    HW255203   8.075   2.605   1.758
84477SOL     OW55204   1.286   5.842  11.224
84477SOL    HW155205   1.260   5.891  11.146
84477SOL    HW255206   1.381   5.837  11.219
84478SOL     OW55207   9.184   2.760   9.657
84478SOL    HW155208   9.102   2.806   9.642
84478SOL    HW255209   9.231   2.764   9.574
84479SOL     OW55210  11.742   8.824   6.882
84479SOL    HW155211  11.664   8.872   6.911
84479SOL    HW255212  11.707   8.743   6.844
84480SOL     OW55213  12.547   3.522   6.917
84480SOL    HW155214  12.625   3.560   6.960
84480SOL    HW255215  12.540   3.434   6.955
84481SOL     OW55216   0.861   2.156   4.322
84481SOL    HW155217   0.943   2.137   4.277
84481SOL    HW255218   0.826   2.069   4.344
84482SOL     OW55219   3.991   1.821   6.370
84482SOL    HW155220   3.951   1.904   6.344
84482SOL    HW255221   3.944   1.755   6.318
84483SOL     OW55222   6.108   3.908  11.224
84483SOL    HW155223   6.013   3.917  11.224
84483SOL    HW255224   6.138   3.961  11.298
84484SOL     OW55225   0.188   8.267  12.586
84484SOL    HW155226   0.102   8.247  12.548
84484SOL    HW255227   0.171   8.341  12.644
84485SOL     OW55228   2.677   7.848  11.212
84485SOL    HW155229   2.732   7.771  11.223
84485SOL    HW255230   2.602   7.816  11.162
84486SOL     OW55231   5.493   3.547   0.754
84486SOL    HW155232   5.529   3.462   0.730
84486SOL    HW255233   5.406   3.527   0.790
84487SOL     OW55234   4.082  13.103   7.318
84487SOL    HW155235   4.049  13.132   7.403
84487SOL    HW255236   4.177  13.110   7.325
84488SOL     OW55237  11.674   5.246  12.038
84488SOL    HW155238  11.584   5.225  12.063
84488SOL    HW255239  11.703   5.169  11.989
84489SOL     OW55240   6.587  10.882   7.990
84489SOL    HW155241   6.658  10.931   7.948
84489SOL    HW255242   6.519  10.876   7.922
84490SOL     OW55243   2.471   0.157   7.176
84490SOL    HW155244   2.536   0.096   7.142
84490SOL    HW255245   2.442   0.118   7.259
84491SOL     OW55246  11.538   9.211   5.139
84491SOL    HW155247  11.514   9.303   5.127
84491SOL    HW255248  11.486   9.182   5.213
84492SOL     OW55249   9.877   9.307   1.619
84492SOL    HW155250   9.935   9.338   1.549
84492SOL    HW255251   9.859   9.216   1.597
84493SOL     OW55252   8.817   9.267   1.653
84493SOL    HW155253   8.853   9.291   1.738
84493SOL    HW255254   8.838   9.174   1.644
84494SOL     OW55255   6.231   0.094  14.645
84494SOL    HW155256   6.290   0.121  14.575
84494SOL    HW255257   6.149   0.073  14.601
84495SOL     OW55258  14.061   2.391  13.820
84495SOL    HW155259  13.998   2.386  13.748
84495SOL    HW255260  14.032   2.324  13.882
84496SOL     OW55261   2.426  12.329   6.248
84496SOL    HW155262   2.425  12.419   6.217
84496SOL    HW255263   2.519  12.308   6.257
84497SOL     OW55264  14.404   0.461   7.730
84497SOL    HW155265  14.480   0.405   7.717
84497SOL    HW255266  14.440   0.546   7.754
84498SOL     OW55267  12.359   6.913  14.091
84498SOL    HW155268  12.353   6.990  14.035
84498SOL    HW255269  12.392   6.946  14.174
84499SOL     OW55270   2.099  11.180   1.557
84499SOL    HW155271   2.068  11.123   1.627
84499SOL    HW255272   2.020  11.220   1.521
84500SOL     OW55273   2.872   5.188  13.307
84500SOL    HW155274   2.919   5.255  13.256
84500SOL    HW255275   2.849   5.121  13.242
84501SOL     OW55276  10.799   8.024   9.792
84501SOL    HW155277  10.806   8.076   9.873
84501SOL    HW255278  10.874   7.964   9.796
84502SOL     OW55279  14.023  14.121   5.610
84502SOL    HW155280  14.056  14.201   5.648
84502SOL    HW255281  14.088  14.097   5.543
84503SOL     OW55282   1.729   6.320   3.399
84503SOL    HW155283   1.732   6.379   3.324
84503SOL    HW255284   1.641   6.283   3.398
84504SOL     OW55285  11.075   0.750   4.214
84504SOL    HW155286  11.038   0.662   4.208
84504SOL    HW255287  11.052   0.792   4.131
84505SOL     OW55288   6.598  12.389   0.874
84505SOL    HW155289   6.517  12.354   0.838
84505SOL    HW255290   6.666  12.361   0.813
84506SOL     OW55291   8.515   7.067   0.152
84506SOL    HW155292   8.449   7.128   0.187
84506SOL    HW255293   8.555   7.028   0.229
84507SOL     OW55294   1.109   5.171   9.359
84507SOL    HW155295   1.049   5.104   9.393
84507SOL    HW255296   1.170   5.123   9.304
84508SOL     OW55297  12.135   9.203  13.119
84508SOL    HW155298  12.210   9.234  13.068
84508SOL    HW255299  12.102   9.282  13.162
84509SOL     OW55300   6.124   6.148  11.720
84509SOL    HW155301   6.054   6.174  11.779
84509SOL    HW255302   6.169   6.076  11.765
84510SOL     OW55303  11.929  10.553  13.953
84510SOL    HW155304  12.011  10.573  13.907
84510SOL    HW255305  11.895  10.475  13.910
84511SOL     OW55306   3.064   0.924  13.418
84511SOL    HW155307   2.997   0.891  13.359
84511SOL    HW255308   3.138   0.945  13.361
84512SOL     OW55309   9.204   5.629   3.625
84512SOL    HW155310   9.259   5.554   3.602
84512SOL    HW255311   9.266   5.699   3.644
84513SOL     OW55312  11.850   9.365  14.201
84513SOL    HW155313  11.786   9.332  14.138
84513SOL    HW255314  11.826   9.323  14.284
84514SOL     OW55315   7.742  14.238  12.289
84514SOL    HW155316   7.720  14.199  12.373
84514SOL    HW255317   7.789  14.169  12.242
84515SOL     OW55318   2.310   5.458   6.251
84515SOL    HW155319   2.335   5.406   6.174
84515SOL    HW255320   2.281   5.394   6.315
84516SOL     OW55321  13.752  14.684  13.431
84516SOL    HW155322  13.728  14.632  13.354
84516SOL    HW255323  13.711  14.769  13.416
84517SOL     OW55324   1.364   0.656   7.862
84517SOL    HW155325   1.443   0.709   7.854
84517SOL    HW255326   1.396   0.566   7.870
84518SOL     OW55327  12.412  12.635   5.216
84518SOL    HW155328  12.425  12.542   5.237
84518SOL    HW255329  12.360  12.634   5.136
84519SOL     OW55330   1.254  13.884  12.934
84519SOL    HW155331   1.253  13.979  12.933
84519SOL    HW255332   1.171  13.859  12.894
84520SOL     OW55333  14.039  10.981  14.423
84520SOL    HW155334  14.062  11.069  14.453
84520SOL    HW255335  13.993  10.995  14.341
84521SOL     OW55336   2.058   3.149   0.930
84521SOL    HW155337   2.153   3.156   0.929
84521SOL    HW255338   2.028   3.240   0.933
84522SOL     OW55339   6.367   5.780   0.668
84522SOL    HW155340   6.397   5.803   0.756
84522SOL    HW255341   6.436   5.815   0.610
84523SOL     OW55342   1.280   8.079  13.127
84523SOL    HW155343   1.337   8.085  13.050
84523SOL    HW255344   1.241   7.992  13.122
84524SOL     OW55345  14.468   3.352   0.305
84524SOL    HW155346  14.507   3.345   0.218
84524SOL    HW255347  14.490   3.441   0.334
84525SOL     OW55348   2.183  14.712   3.793
84525SOL    HW155349   2.119  14.778   3.764
84525SOL    HW255350   2.181  14.718   3.888
84526SOL     OW55351  11.045   8.549   3.278
84526SOL    HW155352  10.957   8.579   3.304
84526SOL    HW255353  11.065   8.480   3.341
84527SOL     OW55354   8.831   2.148   4.484
84527SOL    HW155355   8.833   2.240   4.457
84527SOL    HW255356   8.739   2.131   4.503
84528SOL     OW55357  11.685   4.408  11.183
84528SOL    HW155358  11.650   4.481  11.233
84528SOL    HW255359  11.697   4.338  11.247
84529SOL     OW55360   2.633   3.314   2.554
84529SOL    HW155361   2.569   3.295   2.622
84529SOL    HW255362   2.582   3.360   2.486
84530SOL     OW55363   9.444   5.722   6.695
84530SOL    HW155364   9.433   5.645   6.750
84530SOL    HW255365   9.399   5.700   6.614
84531SOL     OW55366   5.926   9.862   3.167
84531SOL    HW155367   5.903   9.902   3.251
84531SOL    HW255368   6.009   9.818   3.183
84532SOL     OW55369   3.284  13.167   6.805
84532SOL    HW155370   3.204  13.127   6.771
84532SOL    HW255371   3.300  13.124   6.889
84533SOL     OW55372  10.975   1.852  10.021
84533SOL    HW155373  10.920   1.818   9.949
84533SOL    HW255374  11.022   1.775  10.053
84534SOL     OW55375   6.746   0.207   4.586
84534SOL    HW155376   6.778   0.120   4.564
84534SOL    HW255377   6.803   0.236   4.658
84535SOL     OW55378  13.018   1.483   8.946
84535SOL    HW155379  12.974   1.476   9.030
84535SOL    HW255380  13.087   1.548   8.961
84536SOL     OW55381   7.824  12.847   5.552
84536SOL    HW155382   7.851  12.779   5.614
84536SOL    HW255383   7.738  12.875   5.583
84537SOL     OW55384   2.165   7.507   8.737
84537SOL    HW155385   2.221   7.584   8.733
84537SOL    HW255386   2.076   7.542   8.743
84538SOL     OW55387   4.411   1.967   1.467
84538SOL    HW155388   4.433   1.877   1.443
84538SOL    HW255389   4.472   1.989   1.537
84539SOL     OW55390  10.291   5.572   7.100
84539SOL    HW155391  10.368   5.589   7.155
84539SOL    HW255392  10.219   5.562   7.162
84540SOL     OW55393   1.451   4.267   1.554
84540SOL    HW155394   1.388   4.332   1.585
84540SOL    HW255395   1.536   4.301   1.582
84541SOL     OW55396   1.669  10.383  10.243
84541SOL    HW155397   1.614  10.418  10.173
84541SOL    HW255398   1.705  10.461  10.286
84542SOL     OW55399  12.328   5.143  12.455
84542SOL    HW155400  12.325   5.239  12.459
84542SOL    HW255401  12.395   5.124  12.389
84543SOL     OW55402   3.396  10.741   4.679
84543SOL    HW155403   3.482  10.709   4.706
84543SOL    HW255404   3.387  10.713   4.588
84544SOL     OW55405   3.165   6.719   7.759
84544SOL    HW155406   3.076   6.751   7.743
84544SOL    HW255407   3.182   6.741   7.850
84545SOL     OW55408   8.349  13.301   6.302
84545SOL    HW155409   8.294  13.379   6.302
84545SOL    HW255410   8.310  13.243   6.237
84546SOL     OW55411  12.177   0.003  13.418
84546SOL    HW155412  12.152  14.817  13.351
84546SOL    HW255413  12.226   0.069  13.370
84547SOL     OW55414   9.953   1.953   7.621
84547SOL    HW155415   9.861   1.947   7.647
84547SOL    HW255416   9.966   2.045   7.598
84548SOL     OW55417   7.122   0.677   3.811
84548SOL    HW155418   7.034   0.689   3.776
84548SOL    HW255419   7.173   0.747   3.770
84549SOL     OW55420   8.318   9.266   5.618
84549SOL    HW155421   8.349   9.276   5.709
84549SOL    HW255422   8.377   9.202   5.580
84550SOL     OW55423   0.602  11.094   5.366
84550SOL    HW155424   0.636  11.145   5.293
84550SOL    HW255425   0.509  11.086   5.348
84551SOL     OW55426   9.618   5.457   8.453
84551SOL    HW155427   9.594   5.438   8.362
84551SOL    HW255428   9.698   5.406   8.468
84552SOL     OW55429   0.725  12.295  14.206
84552SOL    HW155430   0.677  12.378  14.207
84552SOL    HW255431   0.805  12.313  14.254
84553SOL     OW55432   7.145   4.509   6.044
84553SOL    HW155433   7.162   4.599   6.070
84553SOL    HW255434   7.147   4.460   6.126
84554SOL     OW55435   9.809   5.328   9.331
84554SOL    HW155436   9.737   5.268   9.350
84554SOL    HW255437   9.765   5.412   9.312
84555SOL     OW55438   4.832   2.844   3.155
84555SOL    HW155439   4.849   2.898   3.078
84555SOL    HW255440   4.838   2.904   3.229
84556SOL     OW55441   7.153  13.313   8.593
84556SOL    HW155442   7.161  13.217   8.599
84556SOL    HW255443   7.188  13.345   8.676
84557SOL     OW55444   8.052   2.875   5.791
84557SOL    HW155445   8.049   2.820   5.870
84557SOL    HW255446   7.966   2.863   5.750
84558SOL     OW55447   8.442   3.908   0.193
84558SOL    HW155448   8.483   3.830   0.157
84558SOL    HW255449   8.515   3.964   0.218
84559SOL     OW55450  11.593  11.315   1.989
84559SOL    HW155451  11.524  11.265   2.031
84559SOL    HW255452  11.552  11.356   1.914
84560SOL     OW55453   7.380   5.805  10.096
84560SOL    HW155454   7.343   5.722  10.125
84560SOL    HW255455   7.406   5.849  10.177
84561SOL     OW55456  11.915   4.020  11.816
84561SOL    HW155457  11.885   3.930  11.830
84561SOL    HW255458  11.984   4.012  11.750
84562SOL     OW55459  11.596  14.680  12.923
84562SOL    HW155460  11.531  14.750  12.918
84562SOL    HW255461  11.621  14.664  12.832
84563SOL     OW55462  14.435  10.680   2.835
84563SOL    HW155463  14.478  10.713   2.756
84563SOL    HW255464  14.436  10.754   2.895
84564SOL     OW55465   4.452   9.380   6.781
84564SOL    HW155466   4.379   9.373   6.720
84564SOL    HW255467   4.513   9.441   6.739
84565SOL     OW55468  12.292  10.224   4.431
84565SOL    HW155469  12.217  10.183   4.386
84565SOL    HW255470  12.292  10.314   4.399
84566SOL     OW55471   7.744  12.828   6.106
84566SOL    HW155472   7.653  12.847   6.130
84566SOL    HW255473   7.783  12.795   6.187
84567SOL     OW55474   3.267  11.199   6.123
84567SOL    HW155475   3.302  11.277   6.165
84567SOL    HW255476   3.177  11.193   6.155
84568SOL     OW55477   5.784   3.263   7.821
84568SOL    HW155478   5.698   3.221   7.813
84568SOL    HW255479   5.798   3.271   7.915
84569SOL     OW55480   1.055   0.849  12.015
84569SOL    HW155481   1.086   0.763  12.044
84569SOL    HW255482   1.135   0.894  11.987
84570SOL     OW55483  12.661   9.232   3.677
84570SOL    HW155484  12.719   9.215   3.752
84570SOL    HW255485  12.665   9.327   3.665
84571SOL     OW55486  12.279   9.346   1.641
84571SOL    HW155487  12.348   9.400   1.680
84571SOL    HW255488  12.326   9.278   1.592
84572SOL     OW55489   8.617   1.171   8.092
84572SOL    HW155490   8.558   1.115   8.142
84572SOL    HW255491   8.636   1.244   8.150
84573SOL     OW55492   3.234   7.154  10.608
84573SOL    HW155493   3.292   7.212  10.559
84573SOL    HW255494   3.146   7.183  10.584
84574SOL     OW55495   0.493   7.864   6.083
84574SOL    HW155496   0.514   7.950   6.118
84574SOL    HW255497   0.409   7.842   6.123
84575SOL     OW55498   4.681  11.653   3.340
84575SOL    HW155499   4.770  11.671   3.368
84575SOL    HW255500   4.674  11.558   3.337
84576SOL     OW55501   1.046  11.410  14.644
84576SOL    HW155502   1.012  11.321  14.639
84576SOL    HW255503   1.141  11.400  14.642
84577SOL     OW55504   7.930  14.412   7.632
84577SOL    HW155505   7.991  14.369   7.691
84577SOL    HW255506   7.865  14.452   7.689
84578SOL     OW55507  14.126  10.332   1.728
84578SOL    HW155508  14.076  10.312   1.807
84578SOL    HW255509  14.062  10.328   1.657
84579SOL     OW55510   1.202  14.726   1.359
84579SOL    HW155511   1.120  14.682   1.382
84579SOL    HW255512   1.256  14.719   1.438
84580SOL     OW55513   0.026   3.987   1.129
84580SOL    HW155514   0.102   3.964   1.075
84580SOL    HW255515   0.063   4.025   1.208
84581SOL     OW55516   1.255   4.813   3.457
84581SOL    HW155517   1.260   4.854   3.544
84581SOL    HW255518   1.304   4.871   3.400
84582SOL     OW55519   2.089   9.765   7.490
84582SOL    HW155520   2.174   9.744   7.530
84582SOL    HW255521   2.029   9.775   7.564
84583SOL     OW55522   5.684   5.285   0.649
84583SOL    HW155523   5.609   5.228   0.635
84583SOL    HW255524   5.738   5.275   0.571
84584SOL     OW55525   5.032  14.206   8.473
84584SOL    HW155526   5.004  14.131   8.422
84584SOL    HW255527   5.087  14.170   8.542
84585SOL     OW55528   5.422   8.392  14.397
84585SOL    HW155529   5.357   8.329  14.367
84585SOL    HW255530   5.371   8.469  14.422
84586SOL     OW55531   5.608  14.475   6.940
84586SOL    HW155532   5.558  14.476   6.859
84586SOL    HW255533   5.569  14.405   6.992
84587SOL     OW55534   8.094   5.500  14.845
84587SOL    HW155535   8.168   5.499   0.028
84587SOL    HW255536   8.122   5.445  14.772
84588SOL     OW55537   7.718   9.538   6.142
84588SOL    HW155538   7.663   9.511   6.069
84588SOL    HW255539   7.682   9.490   6.217
84589SOL     OW55540   0.413  11.936   9.383
84589SOL    HW155541   0.431  11.980   9.466
84589SOL    HW255542   0.399  11.844   9.407
84590SOL     OW55543   6.912  10.381  14.431
84590SOL    HW155544   7.007  10.391  14.440
84590SOL    HW255545   6.895  10.393  14.338
84591SOL     OW55546  13.290   6.444   6.667
84591SOL    HW155547  13.205   6.430   6.626
84591SOL    HW255548  13.345   6.481   6.597
84592SOL     OW55549   0.256   0.496   0.690
84592SOL    HW155550   0.193   0.426   0.671
84592SOL    HW255551   0.280   0.484   0.781
84593SOL     OW55552  12.339  13.500   1.846
84593SOL    HW155553  12.383  13.503   1.761
84593SOL    HW255554  12.251  13.468   1.827
84594SOL     OW55555   5.953   1.091   3.563
84594SOL    HW155556   6.032   1.045   3.534
84594SOL    HW255557   5.958   1.176   3.521
84595SOL     OW55558  10.561   8.165  10.953
84595SOL    HW155559  10.606   8.122  10.881
84595SOL    HW255560  10.492   8.218  10.911
84596SOL     OW55561  13.003   1.876  11.222
84596SOL    HW155562  13.064   1.950  11.222
84596SOL    HW255563  12.929   1.906  11.169
84597SOL     OW55564   3.296   6.242  13.973
84597SOL    HW155565   3.203   6.222  13.981
84597SOL    HW255566   3.330   6.238  14.062
84598SOL     OW55567   0.509  10.234  10.472
84598SOL    HW155568   0.435  10.211  10.417
84598SOL    HW255569   0.585  10.197  10.427
84599SOL     OW55570   4.477   6.510   4.785
84599SOL    HW155571   4.397   6.459   4.794
84599SOL    HW255572   4.457   6.574   4.716
84600SOL     OW55573  10.950   8.609  12.604
84600SOL    HW155574  10.916   8.545  12.543
84600SOL    HW255575  10.886   8.681  12.604
84601SOL     OW55576   0.171  11.644  13.650
84601SOL    HW155577   0.149  11.715  13.711
84601SOL    HW255578   0.097  11.583  13.657
84602SOL     OW55579   5.541  12.739   5.377
84602SOL    HW155580   5.587  12.685   5.313
84602SOL    HW255581   5.590  12.729   5.458
84603SOL     OW55582   1.423   5.545  11.099
84603SOL    HW155583   1.374   5.604  11.043
84603SOL    HW255584   1.410   5.459  11.061
84604SOL     OW55585   7.035  10.776   7.467
84604SOL    HW155586   6.944  10.801   7.484
84604SOL    HW255587   7.087  10.838   7.518
84605SOL     OW55588   5.218   4.316  11.890
84605SOL    HW155589   5.231   4.410  11.877
84605SOL    HW255590   5.291   4.275  11.843
84606SOL     OW55591   3.557  13.869   9.176
84606SOL    HW155592   3.525  13.957   9.192
84606SOL    HW255593   3.502  13.813   9.231
84607SOL     OW55594   6.896   1.044  10.057
84607SOL    HW155595   6.860   1.033   9.969
84607SOL    HW255596   6.975   1.096  10.045
84608SOL     OW55597  12.371   2.785   0.803
84608SOL    HW155598  12.386   2.776   0.709
84608SOL    HW255599  12.428   2.857   0.830
84609SOL     OW55600  11.744  11.242  13.806
84609SOL    HW155601  11.817  11.203  13.852
84609SOL    HW255602  11.717  11.176  13.742
84610SOL     OW55603   0.458   6.612  11.806
84610SOL    HW155604   0.456   6.653  11.892
84610SOL    HW255605   0.386   6.549  11.808
84611SOL     OW55606   8.135   0.437  14.848
84611SOL    HW155607   8.078   0.434  14.771
84611SOL    HW255608   8.084   0.395   0.039
84612SOL     OW55609  11.600  11.366   1.190
84612SOL    HW155610  11.562  11.279   1.180
84612SOL    HW255611  11.604  11.401   1.101
84613SOL     OW55612   7.445   6.158  11.877
84613SOL    HW155613   7.515   6.102  11.843
84613SOL    HW255614   7.442   6.232  11.816
84614SOL     OW55615  11.708   2.761   3.246
84614SOL    HW155616  11.793   2.740   3.284
84614SOL    HW255617  11.677   2.837   3.296
84615SOL     OW55618   3.422  14.874   8.945
84615SOL    HW155619   3.422   0.089   8.968
84615SOL    HW255620   3.485  14.867   8.873
84616SOL     OW55621  12.559  12.346   7.825
84616SOL    HW155622  12.642  12.334   7.871
84616SOL    HW255623  12.497  12.292   7.874
84617SOL     OW55624  12.860   0.284  10.254
84617SOL    HW155625  12.919   0.290  10.329
84617SOL    HW255626  12.860   0.191  10.230
84618SOL     OW55627   0.200   8.572  13.035
84618SOL    HW155628   0.291   8.588  13.058
84618SOL    HW255629   0.166   8.518  13.106
84619SOL     OW55630   1.637   1.207  12.725
84619SOL    HW155631   1.667   1.295  12.749
84619SOL    HW255632   1.592   1.175  12.803
84620SOL     OW55633   8.281   5.744   6.898
84620SOL    HW155634   8.314   5.665   6.855
84620SOL    HW255635   8.326   5.746   6.982
84621SOL     OW55636   0.856   3.118   0.969
84621SOL    HW155637   0.942   3.088   0.998
84621SOL    HW255638   0.803   3.039   0.964
84622SOL     OW55639   8.262   1.929  13.341
84622SOL    HW155640   8.229   2.006  13.295
84622SOL    HW255641   8.349   1.914  13.306
84623SOL     OW55642   7.118  10.525   0.084
84623SOL    HW155643   7.075  10.442   0.064
84623SOL    HW255644   7.116  10.573   0.001
84624SOL     OW55645   0.039   8.525  14.073
84624SOL    HW155646   0.079   8.472  14.004
84624SOL    HW255647  14.823   8.510  14.065
84625SOL     OW55648   1.122  14.612   7.460
84625SOL    HW155649   1.060  14.541   7.443
84625SOL    HW255650   1.149  14.600   7.550
84626SOL     OW55651   0.297   3.411  14.206
84626SOL    HW155652   0.340   3.350  14.265
84626SOL    HW255653   0.206   3.412  14.235
84627SOL     OW55654   1.424   6.181   1.726
84627SOL    HW155655   1.518   6.176   1.713
84627SOL    HW255656   1.411   6.159   1.819
84628SOL     OW55657   1.905   4.032   3.400
84628SOL    HW155658   1.882   4.104   3.459
84628SOL    HW255659   1.821   3.990   3.380
84629SOL     OW55660   7.736  10.112   8.741
84629SOL    HW155661   7.706  10.053   8.671
84629SOL    HW255662   7.829  10.124   8.722
84630SOL     OW55663   7.258   3.937   3.387
84630SOL    HW155664   7.293   4.025   3.402
84630SOL    HW255665   7.235   3.936   3.294
84631SOL     OW55666   7.846  14.616  14.507
84631SOL    HW155667   7.815  14.686  14.450
84631SOL    HW255668   7.772  14.556  14.515
84632SOL     OW55669   4.576   0.560   9.838
84632SOL    HW155670   4.627   0.502   9.781
84632SOL    HW255671   4.641   0.614   9.882
84633SOL     OW55672   9.960  11.237   0.889
84633SOL    HW155673  10.036  11.184   0.863
84633SOL    HW255674   9.956  11.306   0.824
84634SOL     OW55675  13.445  14.231   3.969
84634SOL    HW155676  13.480  14.250   4.056
84634SOL    HW255677  13.356  14.200   3.986
84635SOL     OW55678   2.060  11.023  12.067
84635SOL    HW155679   2.054  11.072  12.149
84635SOL    HW255680   2.152  10.996  12.062
84636SOL     OW55681  12.267   4.226   0.004
84636SOL    HW155682  12.186   4.223  14.831
84636SOL    HW255683  12.306   4.311  14.859
84637SOL     OW55684  14.867   1.269   5.007
84637SOL    HW155685  14.793   1.209   5.019
84637SOL    HW255686   0.004   1.306   5.094
84638SOL     OW55687  14.464  11.374   3.742
84638SOL    HW155688  14.438  11.313   3.673
84638SOL    HW255689  14.522  11.436   3.698
84639SOL     OW55690   1.656   3.839  11.066
84639SOL    HW155691   1.590   3.812  11.130
84639SOL    HW255692   1.629   3.928  11.041
84640SOL     OW55693   6.023  10.841   4.371
84640SOL    HW155694   5.966  10.891   4.430
84640SOL    HW255695   6.032  10.896   4.293
84641SOL     OW55696   6.233   3.153   5.186
84641SOL    HW155697   6.268   3.214   5.250
84641SOL    HW255698   6.142   3.180   5.174
84642SOL     OW55699  14.234   1.186   4.368
84642SOL    HW155700  14.314   1.147   4.332
84642SOL    HW255701  14.211   1.130   4.442
84643SOL     OW55702  11.121   3.546  11.246
84643SOL    HW155703  11.038   3.590  11.263
84643SOL    HW255704  11.160   3.535  11.332
84644SOL     OW55705   6.727  13.480   7.469
84644SOL    HW155706   6.815  13.472   7.505
84644SOL    HW255707   6.739  13.534   7.390
84645SOL     OW55708  14.253   6.920   1.237
84645SOL    HW155709  14.170   6.882   1.267
84645SOL    HW255710  14.226   6.996   1.185
84646SOL     OW55711  12.520   5.496   5.373
84646SOL    HW155712  12.470   5.469   5.296
84646SOL    HW255713  12.587   5.428   5.383
84647SOL     OW55714   4.188  11.503   1.590
84647SOL    HW155715   4.118  11.453   1.631
84647SOL    HW255716   4.163  11.509   1.498
84648SOL     OW55717  13.141   7.356  12.963
84648SOL    HW155718  13.204   7.427  12.951
84648SOL    HW255719  13.077   7.370  12.893
84649SOL     OW55720   0.179   9.532   6.474
84649SOL    HW155721   0.140   9.445   6.474
84649SOL    HW255722   0.154   9.569   6.389
84650SOL     OW55723   0.854  13.460   6.119
84650SOL    HW155724   0.821  13.401   6.187
84650SOL    HW255725   0.788  13.529   6.112
84651SOL     OW55726   6.681   2.983   7.728
84651SOL    HW155727   6.634   3.065   7.739
84651SOL    HW255728   6.774   3.007   7.735
84652SOL     OW55729   7.865  13.668   8.089
84652SOL    HW155730   7.884  13.718   8.169
84652SOL    HW255731   7.855  13.735   8.021
84653SOL     OW55732  11.048   0.834   3.949
84653SOL    HW155733  11.074   0.927   3.949
84653SOL    HW255734  11.119   0.790   3.903
84654SOL     OW55735   7.225  11.030   8.980
84654SOL    HW155736   7.300  10.972   8.987
84654SOL    HW255737   7.252  11.110   9.026
84655SOL     OW55738  10.580   5.391  10.267
84655SOL    HW155739  10.582   5.483  10.294
84655SOL    HW255740  10.555   5.344  10.346
84656SOL     OW55741  10.241   3.532   6.312
84656SOL    HW155742  10.253   3.503   6.221
84656SOL    HW255743  10.170   3.595   6.308
84657SOL     OW55744   6.643   3.896   4.920
84657SOL    HW155745   6.661   3.810   4.882
84657SOL    HW255746   6.573   3.880   4.983
84658SOL     OW55747  13.490  12.659   5.577
84658SOL    HW155748  13.511  12.689   5.666
84658SOL    HW255749  13.454  12.571   5.590
84659SOL     OW55750  13.483   3.231   8.842
84659SOL    HW155751  13.437   3.255   8.922
84659SOL    HW255752  13.482   3.311   8.789
84660SOL     OW55753   2.734   4.952   2.462
84660SOL    HW155754   2.662   4.989   2.513
84660SOL    HW255755   2.695   4.931   2.377
84661SOL     OW55756  14.030   5.506   1.066
84661SOL    HW155757  14.119   5.471   1.072
84661SOL    HW255758  13.993   5.462   0.989
84662SOL     OW55759  12.691   3.058  10.653
84662SOL    HW155760  12.692   3.010  10.570
84662SOL    HW255761  12.762   3.122  10.644
84663SOL     OW55762  11.444   0.482   4.541
84663SOL    HW155763  11.506   0.534   4.491
84663SOL    HW255764  11.358   0.512   4.512
84664SOL     OW55765  10.988   8.321   3.997
84664SOL    HW155766  10.906   8.338   3.950
84664SOL    HW255767  11.055   8.367   3.947
84665SOL     OW55768  14.403   9.086   5.669
84665SOL    HW155769  14.455   9.026   5.614
84665SOL    HW255770  14.402   9.045   5.755
84666SOL     OW55771   9.357  11.276   8.219
84666SOL    HW155772   9.442  11.316   8.235
84666SOL    HW255773   9.354  11.201   8.279
84667SOL     OW55774  13.229   2.396  11.344
84667SOL    HW155775  13.135   2.416  11.348
84667SOL    HW255776  13.258   2.430  11.260
84668SOL     OW55777   3.016  10.243   5.818
84668SOL    HW155778   2.968  10.215   5.740
84668SOL    HW255779   2.950  10.249   5.886
84669SOL     OW55780   4.862   8.088   5.156
84669SOL    HW155781   4.835   8.114   5.068
84669SOL    HW255782   4.791   8.118   5.213
84670SOL     OW55783   6.026   7.290   2.219
84670SOL    HW155784   6.096   7.251   2.271
84670SOL    HW255785   6.055   7.379   2.202
84671SOL     OW55786   2.371   3.621   9.542
84671SOL    HW155787   2.377   3.657   9.630
84671SOL    HW255788   2.462   3.604   9.516
84672SOL     OW55789   7.848   0.307   9.182
84672SOL    HW155790   7.829   0.221   9.144
84672SOL    HW255791   7.905   0.288   9.256
84673SOL     OW55792  13.095   4.274   0.269
84673SOL    HW155793  13.112   4.186   0.302
84673SOL    HW255794  13.112   4.332   0.343
84674SOL     OW55795   5.339   4.477  13.115
84674SOL    HW155796   5.299   4.538  13.053
84674SOL    HW255797   5.296   4.497  13.198
84675SOL     OW55798   7.476   9.207  13.439
84675SOL    HW155799   7.532   9.246  13.372
84675SOL    HW255800   7.499   9.114  13.438
84676SOL     OW55801  14.176   4.831   8.834
84676SOL    HW155802  14.170   4.765   8.903
84676SOL    HW255803  14.116   4.900   8.861
84677SOL     OW55804   0.464   3.065  12.373
84677SOL    HW155805   0.467   3.161  12.368
84677SOL    HW255806   0.374   3.045  12.398
84678SOL     OW55807   2.939  10.355   9.298
84678SOL    HW155808   2.894  10.318   9.222
84678SOL    HW255809   3.012  10.294   9.314
84679SOL     OW55810   1.579  14.284   9.057
84679SOL    HW155811   1.561  14.196   9.089
84679SOL    HW255812   1.669  14.302   9.085
84680SOL     OW55813   1.004  12.496   4.534
84680SOL    HW155814   0.956  12.572   4.500
84680SOL    HW255815   0.953  12.468   4.610
84681SOL     OW55816  14.507   3.972   8.650
84681SOL    HW155817  14.521   3.890   8.699
84681SOL    HW255818  14.432   4.012   8.693
84682SOL     OW55819  13.791   4.699   3.812
84682SOL    HW155820  13.715   4.684   3.757
84682SOL    HW255821  13.756   4.704   3.901
84683SOL     OW55822   2.151   4.749   8.463
84683SOL    HW155823   2.240   4.720   8.444
84683SOL    HW255824   2.155   4.845   8.453
84684SOL     OW55825   6.170  10.640   3.458
84684SOL    HW155826   6.099  10.578   3.476
84684SOL    HW255827   6.242  10.610   3.513
84685SOL     OW55828   2.686   3.817   9.436
84685SOL    HW155829   2.776   3.790   9.415
84685SOL    HW255830   2.640   3.735   9.453
84686SOL     OW55831   3.083   8.444  11.928
84686SOL    HW155832   3.009   8.451  11.989
84686SOL    HW255833   3.042   8.435  11.842
84687SOL     OW55834  10.443   6.134   0.466
84687SOL    HW155835  10.500   6.153   0.391
84687SOL    HW255836  10.378   6.073   0.432
84688SOL     OW55837   6.800   1.794   3.769
84688SOL    HW155838   6.764   1.882   3.754
84688SOL    HW255839   6.886   1.797   3.726
84689SOL     OW55840   4.262   3.262  12.787
84689SOL    HW155841   4.261   3.300  12.699
84689SOL    HW255842   4.351   3.277  12.820
84690SOL     OW55843   2.979   3.012   7.064
84690SOL    HW155844   3.069   3.043   7.071
84690SOL    HW255845   2.954   2.993   7.155
84691SOL     OW55846  14.808   6.475  10.564
84691SOL    HW155847  14.877   6.425  10.607
84691SOL    HW255848  14.843   6.564  10.558
84692SOL     OW55849  10.291   6.746   2.004
84692SOL    HW155850  10.198   6.727   1.992
84692SOL    HW255851  10.336   6.677   1.955
84693SOL     OW55852   8.677   4.146  10.423
84693SOL    HW155853   8.770   4.147  10.399
84693SOL    HW255854   8.645   4.062  10.392
84694SOL     OW55855   8.475   5.556  12.386
84694SOL    HW155856   8.523   5.612  12.325
84694SOL    HW255857   8.496   5.591  12.473
84695SOL     OW55858   6.960  14.513   7.926
84695SOL    HW155859   7.003  14.493   7.843
84695SOL    HW255860   6.942  14.607   7.922
84696SOL     OW55861   4.881  13.330   7.056
84696SOL    HW155862   4.853  13.315   6.966
84696SOL    HW255863   4.937  13.255   7.077
84697SOL     OW55864  10.145   0.398  11.389
84697SOL    HW155865  10.119   0.309  11.414
84697SOL    HW255866  10.077   0.427  11.329
84698SOL     OW55867  10.351  11.987   9.799
84698SOL    HW155868  10.438  11.953   9.819
84698SOL    HW255869  10.366  12.048   9.726
84699SOL     OW55870   5.471   2.531  11.545
84699SOL    HW155871   5.511   2.537  11.632
84699SOL    HW255872   5.430   2.617  11.531
84700SOL     OW55873  10.645  11.798   4.096
84700SOL    HW155874  10.661  11.864   4.163
84700SOL    HW255875  10.645  11.715   4.143
84701SOL     OW55876   1.333   2.628   0.715
84701SOL    HW155877   1.263   2.564   0.707
84701SOL    HW255878   1.337   2.647   0.809
84702SOL     OW55879   6.108  12.906  11.606
84702SOL    HW155880   6.017  12.920  11.631
84702SOL    HW255881   6.117  12.950  11.522
84703SOL     OW55882  10.136  12.535   6.868
84703SOL    HW155883  10.161  12.611   6.815
84703SOL    HW255884  10.042  12.526   6.853
84704SOL     OW55885   0.755   9.117   2.698
84704SOL    HW155886   0.839   9.073   2.713
84704SOL    HW255887   0.749   9.181   2.769
84705SOL     OW55888   9.323   2.134  14.427
84705SOL    HW155889   9.235   2.098  14.415
84705SOL    HW255890   9.370   2.068  14.477
84706SOL     OW55891  10.637   9.610   0.495
84706SOL    HW155892  10.568   9.629   0.431
84706SOL    HW255893  10.609   9.530   0.539
84707SOL     OW55894   6.125  14.070   0.157
84707SOL    HW155895   6.052  14.028   0.112
84707SOL    HW255896   6.149  14.143   0.100
84708SOL     OW55897   1.685   5.178   1.770
84708SOL    HW155898   1.774   5.152   1.789
84708SOL    HW255899   1.652   5.110   1.711
84709SOL     OW55900   8.850  11.022   1.080
84709SOL    HW155901   8.765  11.035   1.039
84709SOL    HW255902   8.830  10.994   1.169
84710SOL     OW55903  10.043   2.774   2.821
84710SOL    HW155904  10.041   2.869   2.808
84710SOL    HW255905  10.045   2.738   2.733
84711SOL     OW55906  11.989  14.681   6.256
84711SOL    HW155907  12.019  14.612   6.315
84711SOL    HW255908  11.946  14.745   6.313
84712SOL     OW55909   2.852   2.782   5.023
84712SOL    HW155910   2.768   2.827   5.019
84712SOL    HW255911   2.909   2.835   4.966
84713SOL     OW55912   4.563   5.685   6.022
84713SOL    HW155913   4.573   5.647   5.935
84713SOL    HW255914   4.543   5.777   6.006
84714SOL     OW55915   4.138  12.631   5.316
84714SOL    HW155916   4.114  12.598   5.229
84714SOL    HW255917   4.125  12.555   5.374
84715SOL     OW55918  13.722  10.414  11.851
84715SOL    HW155919  13.755  10.479  11.914
84715SOL    HW255920  13.670  10.465  11.789
84716SOL     OW55921   9.291  12.806   4.893
84716SOL    HW155922   9.208  12.775   4.857
84716SOL    HW255923   9.275  12.808   4.988
84717SOL     OW55924   7.894  13.444   5.790
84717SOL    HW155925   7.947  13.400   5.723
84717SOL    HW255926   7.903  13.389   5.868
84718SOL     OW55927   5.620  12.297  11.466
84718SOL    HW155928   5.590  12.385  11.445
84718SOL    HW255929   5.565  12.270  11.540
84719SOL     OW55930  13.348   4.146   0.719
84719SOL    HW155931  13.355   4.052   0.707
84719SOL    HW255932  13.392   4.163   0.803
84720SOL     OW55933  10.659  11.404   0.486
84720SOL    HW155934  10.660  11.351   0.406
84720SOL    HW255935  10.594  11.361   0.542
84721SOL     OW55936   0.632   1.060   0.717
84721SOL    HW155937   0.560   1.001   0.692
84721SOL    HW255938   0.594   1.117   0.784
84722SOL     OW55939  12.606   7.314   4.175
84722SOL    HW155940  12.584   7.293   4.084
84722SOL    HW255941  12.677   7.254   4.197
84723SOL     OW55942  10.457   1.311  10.280
84723SOL    HW155943  10.422   1.260  10.207
84723SOL    HW255944  10.379   1.341  10.327
84724SOL     OW55945   5.007   6.450   3.054
84724SOL    HW155946   5.051   6.535   3.056
84724SOL    HW255947   4.958   6.446   3.136
84725SOL     OW55948  12.311  11.109   0.279
84725SOL    HW155949  12.321  11.080   0.188
84725SOL    HW255950  12.256  11.043   0.320
84726SOL     OW55951  12.537   0.060   8.208
84726SOL    HW155952  12.546   0.137   8.264
84726SOL    HW255953  12.623   0.018   8.212
84727SOL     OW55954  11.753   3.902   3.481
84727SOL    HW155955  11.685   3.921   3.546
84727SOL    HW255956  11.816   3.848   3.527
84728SOL     OW55957   4.785   1.627   2.486
84728SOL    HW155958   4.829   1.648   2.568
84728SOL    HW255959   4.705   1.680   2.488
84729SOL     OW55960   6.324   8.307   3.251
84729SOL    HW155961   6.267   8.287   3.326
84729SOL    HW255962   6.278   8.376   3.204
84730SOL     OW55963   8.312  13.075   2.948
84730SOL    HW155964   8.279  13.094   3.036
84730SOL    HW255965   8.389  13.131   2.939
84731SOL     OW55966   8.084   3.101   3.246
84731SOL    HW155967   8.081   3.188   3.207
84731SOL    HW255968   8.165   3.062   3.212
84732SOL     OW55969  14.875   1.058   2.859
84732SOL    HW155970  14.828   0.976   2.868
84732SOL    HW255971   0.016   1.085   2.949
84733SOL     OW55972   8.020  10.077   5.408
84733SOL    HW155973   8.065  10.011   5.356
84733SOL    HW255974   8.017  10.040   5.497
84734SOL     OW55975   0.745   0.991  11.141
84734SOL    HW155976   0.663   0.946  11.121
84734SOL    HW255977   0.813   0.931  11.110
84735SOL     OW55978   7.047  14.670   8.510
84735SOL    HW155979   7.093  14.737   8.561
84735SOL    HW255980   7.105  14.594   8.512
84736SOL     OW55981   8.717  14.186   1.321
84736SOL    HW155982   8.775  14.257   1.348
84736SOL    HW255983   8.640  14.230   1.285
84737SOL     OW55984   0.480   5.974  12.286
84737SOL    HW155985   0.405   6.006  12.336
84737SOL    HW255986   0.459   5.881  12.270
84738SOL     OW55987   5.640   2.857   7.972
84738SOL    HW155988   5.593   2.774   7.968
84738SOL    HW255989   5.648   2.876   8.066
84739SOL     OW55990   1.659   9.863  11.261
84739SOL    HW155991   1.750   9.891  11.275
84739SOL    HW255992   1.628   9.918  11.190
84740SOL     OW55993  13.665  11.385   2.516
84740SOL    HW155994  13.706  11.466   2.487
84740SOL    HW255995  13.738  11.330   2.546
84741SOL     OW55996   5.961   8.309   4.860
84741SOL    HW155997   6.016   8.307   4.781
84741SOL    HW255998   6.019   8.278   4.930
84742SOL     OW55999  11.906   0.599   4.497
84742SOL    HW156000  11.897   0.693   4.480
84742SOL    HW256001  11.898   0.591   4.592
84743SOL     OW56002  14.576  11.079  12.804
84743SOL    HW156003  14.532  11.017  12.863
84743SOL    HW256004  14.508  11.143  12.782
84744SOL     OW56005   1.314   4.550  10.123
84744SOL    HW156006   1.329   4.631  10.172
84744SOL    HW256007   1.402   4.514  10.111
84745SOL     OW56008   5.679   7.001  14.106
84745SOL    HW156009   5.619   7.073  14.127
84745SOL    HW256010   5.642   6.959  14.029
84746SOL     OW56011   6.575   0.987  11.938
84746SOL    HW156012   6.651   1.011  11.992
84746SOL    HW256013   6.612   0.934  11.867
84747SOL     OW56014  13.937  14.259  11.769
84747SOL    HW156015  14.019  14.284  11.727
84747SOL    HW256016  13.893  14.203  11.705
84748SOL     OW56017   3.584   6.911  12.276
84748SOL    HW156018   3.516   6.978  12.284
84748SOL    HW256019   3.650   6.936  12.340
84749SOL     OW56020   7.172   6.871  14.867
84749SOL    HW156021   7.087   6.914  14.861
84749SOL    HW256022   7.215   6.913   0.063
84750SOL     OW56023   3.533   5.310   0.343
84750SOL    HW156024   3.626   5.305   0.367
84750SOL    HW256025   3.487   5.312   0.427
84751SOL     OW56026  14.167   7.673   6.344
84751SOL    HW156027  14.198   7.708   6.427
84751SOL    HW256028  14.247   7.650   6.297
84752SOL     OW56029  10.930  12.516  10.547
84752SOL    HW156030  10.880  12.538  10.626
84752SOL    HW256031  10.869  12.530  10.475
84753SOL     OW56032   8.726   0.047   4.078
84753SOL    HW156033   8.643   0.033   4.122
84753SOL    HW256034   8.760  14.837   4.061
84754SOL     OW56035  10.242   2.652  13.970
84754SOL    HW156036  10.305   2.602  14.021
84754SOL    HW256037  10.210   2.719  14.030
84755SOL     OW56038  10.254   4.571  11.008
84755SOL    HW156039  10.310   4.571  10.931
84755SOL    HW256040  10.173   4.614  10.980
84756SOL     OW56041  13.213   6.079  13.219
84756SOL    HW156042  13.212   6.134  13.297
84756SOL    HW256043  13.299   6.095  13.179
84757SOL     OW56044   1.911  12.939   4.311
84757SOL    HW156045   1.998  12.974   4.297
84757SOL    HW256046   1.890  12.892   4.230
84758SOL     OW56047  12.164  12.454   9.906
84758SOL    HW156048  12.118  12.375   9.876
84758SOL    HW256049  12.235  12.420   9.961
84759SOL     OW56050   8.018  10.387  11.387
84759SOL    HW156051   8.091  10.435  11.425
84759SOL    HW256052   8.058  10.318  11.335
84760SOL     OW56053   9.067   9.382  14.167
84760SOL    HW156054   8.993   9.423  14.123
84760SOL    HW256055   9.138   9.446  14.160
84761SOL     OW56056  10.943   9.616  13.746
84761SOL    HW156057  10.965   9.649  13.834
84761SOL    HW256058  10.852   9.644  13.732
84762SOL     OW56059   0.862   7.770   1.044
84762SOL    HW156060   0.884   7.737   1.131
84762SOL    HW256061   0.937   7.823   1.018
84763SOL     OW56062   9.647   0.264  14.095
84763SOL    HW156063   9.674   0.249  14.004
84763SOL    HW256064   9.575   0.202  14.108
84764SOL     OW56065   4.825   5.768   3.779
84764SOL    HW156066   4.848   5.720   3.700
84764SOL    HW256067   4.902   5.822   3.797
84765SOL     OW56068   3.229   5.847   4.821
84765SOL    HW156069   3.261   5.885   4.903
84765SOL    HW256070   3.142   5.885   4.809
84766SOL     OW56071  11.713  11.441  10.035
84766SOL    HW156072  11.670  11.517  10.074
84766SOL    HW256073  11.652  11.369  10.048
84767SOL     OW56074  11.918  13.789  12.776
84767SOL    HW156075  11.982  13.803  12.847
84767SOL    HW256076  11.870  13.872  12.771
84768SOL     OW56077   4.282   4.999   0.101
84768SOL    HW156078   4.237   5.013   0.184
84768SOL    HW256079   4.313   5.085   0.075
84769SOL     OW56080   9.666   7.052  11.240
84769SOL    HW156081   9.678   7.021  11.329
84769SOL    HW256082   9.644   6.973  11.190
84770SOL     OW56083  14.634   5.468   2.678
84770SOL    HW156084  14.555   5.458   2.730
84770SOL    HW256085  14.657   5.561   2.684
84771SOL     OW56086  12.925   1.873   0.600
84771SOL    HW156087  12.851   1.873   0.660
84771SOL    HW256088  12.895   1.824   0.523
84772SOL     OW56089  11.266  12.269  14.812
84772SOL    HW156090  11.337  12.267  14.747
84772SOL    HW256091  11.188  12.291  14.762
84773SOL     OW56092   3.240   5.615  11.934
84773SOL    HW156093   3.235   5.682  11.865
84773SOL    HW256094   3.329   5.582  11.928
84774SOL     OW56095  11.765  11.628   0.581
84774SOL    HW156096  11.751  11.533   0.576
84774SOL    HW256097  11.694  11.665   0.529
84775SOL     OW56098   3.054   5.346   4.786
84775SOL    HW156099   3.072   5.419   4.845
84775SOL    HW256100   3.079   5.268   4.836
84776SOL     OW56101   0.441  11.267   8.208
84776SOL    HW156102   0.503  11.338   8.193
84776SOL    HW256103   0.457  11.240   8.298
84777SOL     OW56104   9.978   6.373   8.907
84777SOL    HW156105  10.014   6.452   8.866
84777SOL    HW256106   9.905   6.405   8.961
84778SOL     OW56107   4.000   6.901   0.819
84778SOL    HW156108   3.935   6.884   0.887
84778SOL    HW256109   3.951   6.895   0.737
84779SOL     OW56110   2.410   2.489   6.520
84779SOL    HW156111   2.356   2.458   6.593
84779SOL    HW256112   2.369   2.572   6.495
84780SOL     OW56113   3.660   0.346  12.574
84780SOL    HW156114   3.690   0.413  12.513
84780SOL    HW256115   3.726   0.277  12.567
84781SOL     OW56116   2.671   1.293   6.591
84781SOL    HW156117   2.751   1.300   6.643
84781SOL    HW256118   2.687   1.219   6.533
84782SOL     OW56119   0.677  12.392   3.549
84782SOL    HW156120   0.639  12.435   3.473
84782SOL    HW256121   0.757  12.441   3.567
84783SOL     OW56122   0.470   8.572  13.069
84783SOL    HW156123   0.535   8.502  13.068
84783SOL    HW256124   0.466   8.599  13.161
84784SOL     OW56125   9.508   1.828   0.565
84784SOL    HW156126   9.433   1.887   0.576
84784SOL    HW256127   9.568   1.876   0.509
84785SOL     OW56128   7.189   8.135   1.715
84785SOL    HW156129   7.107   8.149   1.669
84785SOL    HW256130   7.166   8.082   1.791
84786SOL     OW56131  10.420   4.542  10.789
84786SOL    HW156132  10.502   4.569  10.746
84786SOL    HW256133  10.412   4.449  10.769
84787SOL     OW56134   6.436  12.088   9.781
84787SOL    HW156135   6.505  12.049   9.835
84787SOL    HW256136   6.435  12.180   9.806
84788SOL     OW56137   5.769   8.627   9.628
84788SOL    HW156138   5.816   8.660   9.704
84788SOL    HW256139   5.833   8.572   9.582
84789SOL     OW56140  11.883  10.855  14.020
84789SOL    HW156141  11.815  10.869  14.086
84789SOL    HW256142  11.864  10.768  13.984
84790SOL     OW56143   7.182  11.602  14.237
84790SOL    HW156144   7.131  11.672  14.277
84790SOL    HW256145   7.120  11.529  14.228
84791SOL     OW56146  13.334   1.354   1.073
84791SOL    HW156147  13.341   1.270   1.119
84791SOL    HW256148  13.420   1.368   1.035
84792SOL     OW56149  13.077  11.146   7.675
84792SOL    HW156150  13.139  11.197   7.623
84792SOL    HW256151  12.994  11.193   7.666
84793SOL     OW56152   1.991   3.576   5.471
84793SOL    HW156153   2.087   3.577   5.466
84793SOL    HW256154   1.962   3.570   5.380
84794SOL     OW56155   2.615  12.874   1.908
84794SOL    HW156156   2.640  12.850   1.997
84794SOL    HW256157   2.636  12.797   1.856
84795SOL     OW56158   7.292   2.720   0.407
84795SOL    HW156159   7.296   2.761   0.494
84795SOL    HW256160   7.244   2.639   0.421
84796SOL     OW56161   6.506   8.701   7.110
84796SOL    HW156162   6.474   8.764   7.174
84796SOL    HW256163   6.514   8.619   7.158
84797SOL     OW56164  11.491  11.525   7.005
84797SOL    HW156165  11.521  11.561   7.089
84797SOL    HW256166  11.395  11.526   7.011
84798SOL     OW56167   2.779   7.017   2.178
84798SOL    HW156168   2.763   6.931   2.217
84798SOL    HW256169   2.704   7.031   2.120
84799SOL     OW56170  10.442   3.395  13.695
84799SOL    HW156171  10.477   3.358  13.777
84799SOL    HW256172  10.484   3.481  13.688
84800SOL     OW56173   1.956  10.228  11.645
84800SOL    HW156174   2.012  10.306  11.646
84800SOL    HW256175   1.867  10.262  11.639
84801SOL     OW56176   6.370   3.770   3.103
84801SOL    HW156177   6.458   3.789   3.135
84801SOL    HW256178   6.357   3.832   3.031
84802SOL     OW56179   1.731   6.026   6.881
84802SOL    HW156180   1.807   5.988   6.927
84802SOL    HW256181   1.736   6.119   6.901
84803SOL     OW56182   4.792   9.020   7.346
84803SOL    HW156183   4.886   9.036   7.350
84803SOL    HW256184   4.764   9.018   7.437
84804SOL     OW56185   5.704  13.524   0.790
84804SOL    HW156186   5.645  13.592   0.824
84804SOL    HW256187   5.660  13.442   0.808
84805SOL     OW56188   5.396   6.464   1.821
84805SOL    HW156189   5.476   6.443   1.869
84805SOL    HW256190   5.345   6.517   1.882
84806SOL     OW56191   6.578  11.592  12.218
84806SOL    HW156192   6.510  11.527  12.199
84806SOL    HW256193   6.533  11.662  12.265
84807SOL     OW56194  10.749   2.085  13.840
84807SOL    HW156195  10.773   2.166  13.794
84807SOL    HW256196  10.693   2.039  13.778
84808SOL     OW56197  13.390   3.906  13.474
84808SOL    HW156198  13.469   3.881  13.522
84808SOL    HW256199  13.403   3.872  13.386
84809SOL     OW56200   9.087  10.219  12.107
84809SOL    HW156201   9.140  10.178  12.175
84809SOL    HW256202   9.011  10.161  12.098
84810SOL     OW56203   5.348   2.322   4.824
84810SOL    HW156204   5.365   2.259   4.754
84810SOL    HW256205   5.434   2.339   4.862
84811SOL     OW56206   3.707   1.138  14.769
84811SOL    HW156207   3.799   1.165  14.762
84811SOL    HW256208   3.689   1.090  14.689
84812SOL     OW56209   3.181   9.451  12.762
84812SOL    HW156210   3.249   9.401  12.718
84812SOL    HW256211   3.188   9.539  12.724
84813SOL     OW56212   7.089   6.329  11.881
84813SOL    HW156213   7.002   6.318  11.843
84813SOL    HW256214   7.095   6.259  11.947
84814SOL     OW56215  13.966   2.421   9.239
84814SOL    HW156216  13.976   2.375   9.156
84814SOL    HW256217  13.875   2.405   9.265
84815SOL     OW56218   0.358  12.193   2.546
84815SOL    HW156219   0.379  12.181   2.453
84815SOL    HW256220   0.352  12.288   2.557
84816SOL     OW56221  11.203   8.167  10.201
84816SOL    HW156222  11.279   8.207  10.160
84816SOL    HW256223  11.239   8.099  10.257
84817SOL     OW56224  12.620  13.306   8.370
84817SOL    HW156225  12.582  13.362   8.302
84817SOL    HW256226  12.684  13.252   8.322
84818SOL     OW56227   2.507   2.366   4.510
84818SOL    HW156228   2.581   2.420   4.538
84818SOL    HW256229   2.534   2.276   4.528
84819SOL     OW56230   8.515   0.797  10.752
84819SOL    HW156231   8.568   0.876  10.740
84819SOL    HW256232   8.443   0.825  10.808
84820SOL     OW56233   0.671   6.050   9.460
84820SOL    HW156234   0.616   6.056   9.538
84820SOL    HW256235   0.670   6.138   9.423
84821SOL     OW56236   5.165   2.737   7.318
84821SOL    HW156237   5.178   2.815   7.264
84821SOL    HW256238   5.091   2.692   7.279
84822SOL     OW56239   0.338   3.656  13.670
84822SOL    HW156240   0.314   3.748  13.671
84822SOL    HW256241   0.434   3.656  13.663
84823SOL     OW56242   6.643   8.757  14.541
84823SOL    HW156243   6.578   8.740  14.473
84823SOL    HW256244   6.611   8.835  14.585
84824SOL     OW56245  11.174   5.049  12.725
84824SOL    HW156246  11.155   4.968  12.772
84824SOL    HW256247  11.228   5.100  12.784
84825SOL     OW56248  14.425   1.199   9.044
84825SOL    HW156249  14.345   1.165   9.003
84825SOL    HW256250  14.470   1.121   9.077
84826SOL     OW56251  11.718   3.797   5.453
84826SOL    HW156252  11.696   3.836   5.538
84826SOL    HW256253  11.653   3.728   5.440
84827SOL     OW56254  12.937   8.185  14.581
84827SOL    HW156255  13.015   8.144  14.620
84827SOL    HW256256  12.921   8.263  14.634
84828SOL     OW56257   3.875   8.885   4.671
84828SOL    HW156258   3.951   8.888   4.729
84828SOL    HW256259   3.802   8.866   4.729
84829SOL     OW56260  12.520  14.109   6.601
84829SOL    HW156261  12.534  14.176   6.667
84829SOL    HW256262  12.549  14.028   6.643
84830SOL     OW56263  12.524   2.364   4.028
84830SOL    HW156264  12.586   2.303   3.986
84830SOL    HW256265  12.562   2.381   4.114
84831SOL     OW56266   7.226   6.703  14.102
84831SOL    HW156267   7.298   6.756  14.136
84831SOL    HW256268   7.186   6.758  14.034
84832SOL     OW56269   7.829  11.796   0.996
84832SOL    HW156270   7.773  11.734   0.951
84832SOL    HW256271   7.813  11.780   1.089
84833SOL     OW56272   0.086   6.340  13.381
84833SOL    HW156273   0.182   6.335  13.371
84833SOL    HW256274   0.072   6.411  13.443
84834SOL     OW56275   6.429   8.735   9.985
84834SOL    HW156276   6.431   8.679   9.908
84834SOL    HW256277   6.484   8.810   9.961
84835SOL     OW56278   8.855   8.121   2.604
84835SOL    HW156279   8.941   8.138   2.565
84835SOL    HW256280   8.808   8.204   2.596
84836SOL     OW56281  12.514   9.603   6.780
84836SOL    HW156282  12.559   9.681   6.750
84836SOL    HW256283  12.499   9.618   6.873
84837SOL     OW56284   9.579  12.574   3.394
84837SOL    HW156285   9.536  12.490   3.375
84837SOL    HW256286   9.672  12.553   3.394
84838SOL     OW56287   4.265   4.114   4.704
84838SOL    HW156288   4.280   4.029   4.745
84838SOL    HW256289   4.330   4.120   4.635
84839SOL     OW56290  11.887   3.181   0.616
84839SOL    HW156291  11.800   3.165   0.578
84839SOL    HW256292  11.947   3.168   0.543
84840SOL     OW56293   5.569   3.465   4.828
84840SOL    HW156294   5.649   3.458   4.880
84840SOL    HW256295   5.529   3.548   4.855
84841SOL     OW56296  11.733   4.725  14.250
84841SOL    HW156297  11.641   4.720  14.225
84841SOL    HW256298  11.747   4.818  14.270
84842SOL     OW56299   1.140   2.453   0.630
84842SOL    HW156300   1.123   2.471   0.537
84842SOL    HW256301   1.104   2.365   0.644
84843SOL     OW56302   1.033   0.853   4.115
84843SOL    HW156303   0.942   0.862   4.144
84843SOL    HW256304   1.031   0.874   4.021
84844SOL     OW56305   1.296   9.598  12.769
84844SOL    HW156306   1.390   9.618  12.777
84844SOL    HW256307   1.291   9.534  12.698
84845SOL     OW56308  13.372  12.537   5.263
84845SOL    HW156309  13.386  12.579   5.179
84845SOL    HW256310  13.277  12.527   5.269
84846SOL     OW56311   6.997   6.410   9.581
84846SOL    HW156312   7.006   6.390   9.488
84846SOL    HW256313   6.974   6.327   9.622
84847SOL     OW56314  14.264   9.655  14.679
84847SOL    HW156315  14.331   9.722  14.687
84847SOL    HW256316  14.297   9.582  14.732
84848SOL     OW56317   9.509  13.559  13.881
84848SOL    HW156318   9.510  13.513  13.797
84848SOL    HW256319   9.445  13.512  13.934
84849SOL     OW56320  12.051   3.025   1.604
84849SOL    HW156321  12.112   3.099   1.603
84849SOL    HW256322  11.969   3.062   1.570
84850SOL     OW56323   9.692   4.127   6.666
84850SOL    HW156324   9.736   4.053   6.624
84850SOL    HW256325   9.604   4.128   6.629
84851SOL     OW56326   2.800  11.582  11.977
84851SOL    HW156327   2.871  11.646  11.979
84851SOL    HW256328   2.729  11.624  12.026
84852SOL     OW56329   4.327  13.176   3.145
84852SOL    HW156330   4.275  13.136   3.075
84852SOL    HW256331   4.295  13.266   3.151
84853SOL     OW56332   7.242  12.828  11.173
84853SOL    HW156333   7.192  12.752  11.203
84853SOL    HW256334   7.206  12.902  11.221
84854SOL     OW56335   9.614   8.926  14.269
84854SOL    HW156336   9.591   8.926  14.362
84854SOL    HW256337   9.690   8.869  14.262
84855SOL     OW56338   4.475   0.539  14.145
84855SOL    HW156339   4.552   0.546  14.201
84855SOL    HW256340   4.476   0.620  14.093
84856SOL     OW56341   8.079   2.563  10.040
84856SOL    HW156342   8.036   2.648  10.035
84856SOL    HW256343   8.035   2.518  10.112
84857SOL     OW56344   0.088   7.466   8.124
84857SOL    HW156345   0.111   7.531   8.191
84857SOL    HW256346   0.159   7.401   8.128
84858SOL     OW56347   1.479   7.220   9.794
84858SOL    HW156348   1.544   7.151   9.806
84858SOL    HW256349   1.430   7.194   9.717
84859SOL     OW56350   9.253   7.162   3.006
84859SOL    HW156351   9.159   7.174   2.996
84859SOL    HW256352   9.263   7.115   3.089
84860SOL     OW56353  10.480  12.036   6.762
84860SOL    HW156354  10.525  11.983   6.828
84860SOL    HW256355  10.511  12.001   6.679
84861SOL     OW56356   8.721   8.629  11.291
84861SOL    HW156357   8.811   8.660  11.286
84861SOL    HW256358   8.669   8.697  11.248
84862SOL     OW56359  10.623  11.592   2.108
84862SOL    HW156360  10.714  11.572   2.127
84862SOL    HW256361  10.626  11.650   2.032
84863SOL     OW56362   2.988  13.365   0.317
84863SOL    HW156363   3.006  13.434   0.253
84863SOL    HW256364   2.912  13.398   0.366
84864SOL     OW56365   3.488  13.461   6.963
84864SOL    HW156366   3.452  13.444   6.876
84864SOL    HW256367   3.474  13.555   6.977
84865SOL     OW56368   2.287  14.494  12.100
84865SOL    HW156369   2.201  14.493  12.143
84865SOL    HW256370   2.271  14.536  12.016
84866SOL     OW56371   6.527   8.413   4.513
84866SOL    HW156372   6.503   8.410   4.605
84866SOL    HW256373   6.608   8.362   4.508
84867SOL     OW56374   3.154   8.364   9.659
84867SOL    HW156375   3.234   8.316   9.679
84867SOL    HW256376   3.121   8.324   9.578
84868SOL     OW56377  14.600   3.212  11.955
84868SOL    HW156378  14.563   3.248  12.036
84868SOL    HW256379  14.599   3.286  11.894
84869SOL     OW56380   8.893  12.632   4.106
84869SOL    HW156381   8.829  12.702   4.121
84869SOL    HW256382   8.867  12.563   4.168
84870SOL     OW56383  13.631   5.180   0.325
84870SOL    HW156384  13.629   5.136   0.410
84870SOL    HW256385  13.676   5.263   0.341
84871SOL     OW56386   3.570   3.502  10.351
84871SOL    HW156387   3.660   3.473  10.364
84871SOL    HW256388   3.570   3.594  10.377
84872SOL     OW56389   1.945   7.895   6.789
84872SOL    HW156390   1.945   7.964   6.855
84872SOL    HW256391   1.989   7.934   6.714
84873SOL     OW56392   1.500  13.172  12.517
84873SOL    HW156393   1.509  13.081  12.488
84873SOL    HW256394   1.589  13.200  12.537
84874SOL     OW56395   0.945   4.830   2.408
84874SOL    HW156396   0.953   4.795   2.320
84874SOL    HW256397   0.851   4.848   2.418
84875SOL     OW56398  12.710  11.715  10.253
84875SOL    HW156399  12.797  11.729  10.290
84875SOL    HW256400  12.665  11.798  10.265
84876SOL     OW56401   8.420   6.421   8.341
84876SOL    HW156402   8.466   6.338   8.353
84876SOL    HW256403   8.424   6.464   8.427
84877SOL     OW56404   1.481   7.090  10.727
84877SOL    HW156405   1.524   7.022  10.676
84877SOL    HW256406   1.537   7.167  10.716
84878SOL     OW56407  13.333   9.095   7.122
84878SOL    HW156408  13.355   9.021   7.065
84878SOL    HW256409  13.262   9.140   7.076
84879SOL     OW56410   7.304  12.293  12.709
84879SOL    HW156411   7.230  12.242  12.743
84879SOL    HW256412   7.265  12.377  12.683
84880SOL     OW56413   0.372   1.061  14.157
84880SOL    HW156414   0.360   1.012  14.076
84880SOL    HW256415   0.464   1.045  14.182
84881SOL     OW56416  12.492   4.048  10.138
84881SOL    HW156417  12.568   4.105  10.124
84881SOL    HW256418  12.528   3.960  10.143
84882SOL     OW56419   0.981   2.138  11.946
84882SOL    HW156420   1.052   2.139  11.882
84882SOL    HW256421   0.901   2.130  11.894
84883SOL     OW56422   9.616   0.156  12.357
84883SOL    HW156423   9.687   0.151  12.420
84883SOL    HW256424   9.658   0.177  12.273
84884SOL     OW56425   8.494  12.448  13.050
84884SOL    HW156426   8.575  12.401  13.031
84884SOL    HW256427   8.523  12.530  13.091
84885SOL     OW56428  13.617   5.233  11.614
84885SOL    HW156429  13.555   5.273  11.675
84885SOL    HW256430  13.562   5.187  11.551
84886SOL     OW56431  10.606  12.528   3.493
84886SOL    HW156432  10.534  12.465   3.486
84886SOL    HW256433  10.651  12.522   3.408
84887SOL     OW56434   4.745   4.399   3.410
84887SOL    HW156435   4.809   4.328   3.418
84887SOL    HW256436   4.796   4.479   3.422
84888SOL     OW56437  10.246   3.453   9.630
84888SOL    HW156438  10.332   3.481   9.661
84888SOL    HW256439  10.265   3.393   9.558
84889SOL     OW56440  13.963  14.700   2.652
84889SOL    HW156441  14.021  14.752   2.596
84889SOL    HW256442  13.876  14.711   2.612
84890SOL     OW56443   2.818   1.284   7.949
84890SOL    HW156444   2.829   1.293   7.854
84890SOL    HW256445   2.856   1.364   7.984
84891SOL     OW56446   4.923   1.294   2.182
84891SOL    HW156447   4.873   1.251   2.113
84891SOL    HW256448   4.999   1.330   2.138
84892SOL     OW56449   3.240   8.525  12.894
84892SOL    HW156450   3.279   8.606  12.862
84892SOL    HW256451   3.151   8.550  12.918
84893SOL     OW56452   9.576   5.656   9.577
84893SOL    HW156453   9.634   5.658   9.653
84893SOL    HW256454   9.610   5.725   9.519
84894SOL     OW56455  11.171   2.834   7.966
84894SOL    HW156456  11.184   2.867   7.876
84894SOL    HW256457  11.211   2.901   8.021
84895SOL     OW56458  11.795  11.119   1.116
84895SOL    HW156459  11.875  11.067   1.124
84895SOL    HW256460  11.758  11.119   1.205
84896SOL     OW56461   5.518   3.936   2.868
84896SOL    HW156462   5.554   3.895   2.789
84896SOL    HW256463   5.572   3.903   2.939
84897SOL     OW56464   1.321   1.962   9.887
84897SOL    HW156465   1.282   2.046   9.911
84897SOL    HW256466   1.254   1.919   9.833
84898SOL     OW56467  10.088   5.686   2.693
84898SOL    HW156468  10.072   5.600   2.733
84898SOL    HW256469  10.135   5.736   2.759
84899SOL     OW56470   4.914   6.808   1.943
84899SOL    HW156471   4.910   6.827   2.037
84899SOL    HW256472   5.007   6.809   1.922
84900SOL     OW56473   7.301   2.594  12.881
84900SOL    HW156474   7.289   2.684  12.911
84900SOL    HW256475   7.371   2.598  12.817
84901SOL     OW56476   0.527   3.734   3.672
84901SOL    HW156477   0.500   3.727   3.580
84901SOL    HW256478   0.449   3.765   3.717
84902SOL     OW56479  14.493  11.713  13.433
84902SOL    HW156480  14.433  11.688  13.363
84902SOL    HW256481  14.494  11.639  13.492
84903SOL     OW56482   8.964   7.962   0.853
84903SOL    HW156483   9.028   7.906   0.896
84903SOL    HW256484   9.016   8.037   0.822
84904SOL     OW56485   0.722   7.534  11.323
84904SOL    HW156486   0.646   7.562  11.272
84904SOL    HW256487   0.794   7.588  11.291
84905SOL     OW56488   3.806  12.683   3.695
84905SOL    HW156489   3.812  12.606   3.751
84905SOL    HW256490   3.896  12.717   3.690
84906SOL     OW56491  14.684  14.211  14.555
84906SOL    HW156492  14.609  14.198  14.614
84906SOL    HW256493  14.652  14.272  14.488
84907SOL     OW56494  11.960  12.523   4.183
84907SOL    HW156495  11.892  12.512   4.249
84907SOL    HW256496  11.927  12.591   4.124
84908SOL     OW56497   6.169  12.117  14.103
84908SOL    HW156498   6.107  12.066  14.155
84908SOL    HW256499   6.255  12.093  14.138
84909SOL     OW56500   2.076  10.266  13.991
84909SOL    HW156501   2.072  10.267  13.896
84909SOL    HW256502   2.010  10.202  14.017
84910SOL     OW56503  10.474  14.507   7.342
84910SOL    HW156504  10.471  14.433   7.281
84910SOL    HW256505  10.458  14.468   7.428
84911SOL     OW56506   7.662   3.554   0.268
84911SOL    HW156507   7.689   3.466   0.296
84911SOL    HW256508   7.587   3.539   0.211
84912SOL     OW56509  13.533  12.885   9.067
84912SOL    HW156510  13.586  12.962   9.049
84912SOL    HW256511  13.567  12.818   9.008
84913SOL     OW56512   8.767   7.990   1.079
84913SOL    HW156513   8.840   7.983   1.017
84913SOL    HW256514   8.809   8.013   1.162
84914SOL     OW56515   5.532   5.720   6.401
84914SOL    HW156516   5.627   5.717   6.391
84914SOL    HW256517   5.498   5.688   6.317
84915SOL     OW56518   9.201  14.037   7.276
84915SOL    HW156519   9.119  14.075   7.245
84915SOL    HW256520   9.207  14.064   7.368
84916SOL     OW56521  12.028   4.645  14.432
84916SOL    HW156522  12.023   4.551  14.417
84916SOL    HW256523  11.938   4.673  14.448
84917SOL     OW56524   3.578   4.788   2.383
84917SOL    HW156525   3.542   4.701   2.370
84917SOL    HW256526   3.670   4.780   2.356
84918SOL     OW56527  14.484  14.835  14.183
84918SOL    HW156528  14.499  14.745  14.154
84918SOL    HW256529  14.425  14.872  14.117
84919SOL     OW56530   8.210   2.781   2.775
84919SOL    HW156531   8.287   2.751   2.728
84919SOL    HW256532   8.166   2.700   2.802
84920SOL     OW56533   4.071   4.453  10.209
84920SOL    HW156534   4.161   4.465  10.239
84920SOL    HW256535   4.024   4.529  10.242
84921SOL     OW56536  10.188   0.099   1.867
84921SOL    HW156537  10.215   0.156   1.794
84921SOL    HW256538  10.174   0.014   1.827
84922SOL     OW56539   0.716  14.791  11.104
84922SOL    HW156540   0.763  14.715  11.071
84922SOL    HW256541   0.770  14.822  11.177
84923SOL     OW56542   9.217   9.463   0.353
84923SOL    HW156543   9.271   9.439   0.428
84923SOL    HW256544   9.248   9.551   0.329
84924SOL     OW56545   1.819   5.884   9.568
84924SOL    HW156546   1.831   5.796   9.605
84924SOL    HW256547   1.902   5.903   9.525
84925SOL     OW56548   0.705   4.238   3.926
84925SOL    HW156549   0.621   4.268   3.892
84925SOL    HW256550   0.686   4.212   4.016
84926SOL     OW56551   5.523   6.667   7.140
84926SOL    HW156552   5.603   6.720   7.128
84926SOL    HW256553   5.471   6.685   7.062
84927SOL     OW56554   5.782   7.849  11.386
84927SOL    HW156555   5.724   7.902  11.442
84927SOL    HW256556   5.803   7.772  11.439
84928SOL     OW56557  10.954  12.811   4.217
84928SOL    HW156558  10.880  12.872   4.211
84928SOL    HW256559  10.952  12.781   4.308
84929SOL     OW56560  11.265   5.752   2.191
84929SOL    HW156561  11.274   5.838   2.233
84929SOL    HW256562  11.334   5.699   2.229
84930SOL     OW56563   3.181   8.519   7.407
84930SOL    HW156564   3.103   8.515   7.352
84930SOL    HW256565   3.248   8.561   7.352
84931SOL     OW56566   1.400  14.630   1.557
84931SOL    HW156567   1.478  14.679   1.582
84931SOL    HW256568   1.386  14.569   1.629
84932SOL     OW56569   9.107   4.709  14.469
84932SOL    HW156570   9.148   4.638  14.518
84932SOL    HW256571   9.018   4.714  14.505
84933SOL     OW56572   2.618  11.404  12.860
84933SOL    HW156573   2.679  11.400  12.787
84933SOL    HW256574   2.631  11.322  12.908
84934SOL     OW56575   2.133   7.342   7.420
84934SOL    HW156576   2.116   7.364   7.512
84934SOL    HW256577   2.124   7.247   7.416
84935SOL     OW56578   4.521  10.386   7.971
84935SOL    HW156579   4.519  10.352   7.882
84935SOL    HW256580   4.612  10.414   7.984
84936SOL     OW56581  14.197   3.990  12.158
84936SOL    HW156582  14.262   3.949  12.101
84936SOL    HW256583  14.248   4.019  12.234
84937SOL     OW56584   6.054   3.865  10.965
84937SOL    HW156585   6.068   3.883  11.058
84937SOL    HW256586   5.972   3.910  10.945
84938SOL     OW56587   0.721   7.160   4.207
84938SOL    HW156588   0.656   7.185   4.142
84938SOL    HW256589   0.675   7.164   4.291
84939SOL     OW56590  10.024   8.412   5.991
84939SOL    HW156591  10.117   8.424   5.972
84939SOL    HW256592   9.981   8.486   5.948
84940SOL     OW56593   6.552   4.067  12.799
84940SOL    HW156594   6.507   4.097  12.878
84940SOL    HW256595   6.640   4.103  12.806
84941SOL     OW56596  13.831   4.441   3.521
84941SOL    HW156597  13.886   4.469   3.593
84941SOL    HW256598  13.806   4.351   3.543
84942SOL     OW56599  11.030   8.176   9.980
84942SOL    HW156600  11.107   8.160   9.925
84942SOL    HW256601  11.064   8.178  10.069
84943SOL     OW56602   7.671   7.161  12.273
84943SOL    HW156603   7.752   7.174  12.224
84943SOL    HW256604   7.631   7.247  12.278
84944SOL     OW56605   8.061  13.492  14.721
84944SOL    HW156606   8.128  13.427  14.744
84944SOL    HW256607   7.979  13.453  14.751
84945SOL     OW56608   2.281   6.170  14.751
84945SOL    HW156609   2.357   6.114  14.764
84945SOL    HW256610   2.224   6.150  14.826
84946SOL     OW56611   3.883   6.085   7.802
84946SOL    HW156612   3.862   6.172   7.835
84946SOL    HW256613   3.854   6.085   7.711
84947SOL     OW56614   3.955   2.525   2.046
84947SOL    HW156615   4.014   2.555   1.977
84947SOL    HW256616   3.885   2.590   2.047
84948SOL     OW56617   8.918   3.057   5.397
84948SOL    HW156618   9.005   3.020   5.405
84948SOL    HW256619   8.895   3.047   5.305
84949SOL     OW56620  13.934  13.812   1.974
84949SOL    HW156621  14.024  13.842   1.965
84949SOL    HW256622  13.909  13.783   1.887
84950SOL     OW56623   1.786   4.047   4.427
84950SOL    HW156624   1.715   4.085   4.375
84950SOL    HW256625   1.851   4.020   4.362
84951SOL     OW56626   1.017   9.366   8.121
84951SOL    HW156627   1.040   9.328   8.036
84951SOL    HW256628   0.998   9.458   8.102
84952SOL     OW56629   7.629   3.022   6.881
84952SOL    HW156630   7.709   3.023   6.828
84952SOL    HW256631   7.659   3.004   6.970
84953SOL     OW56632   0.912  10.499   8.322
84953SOL    HW156633   0.975  10.521   8.391
84953SOL    HW256634   0.965  10.458   8.254
84954SOL     OW56635  14.205   6.540   0.705
84954SOL    HW156636  14.154   6.459   0.710
84954SOL    HW256637  14.262   6.536   0.782
84955SOL     OW56638  10.478  11.291   0.699
84955SOL    HW156639  10.441  11.281   0.786
84955SOL    HW256640  10.563  11.247   0.704
84956SOL     OW56641  14.108  11.902   7.315
84956SOL    HW156642  14.198  11.925   7.291
84956SOL    HW256643  14.059  11.906   7.233
84957SOL     OW56644  12.253   2.453  13.890
84957SOL    HW156645  12.229   2.361  13.902
84957SOL    HW256646  12.343   2.460  13.922
84958SOL     OW56647   9.628  12.177   2.879
84958SOL    HW156648   9.595  12.218   2.958
84958SOL    HW256649   9.620  12.083   2.894
84959SOL     OW56650   2.824   7.733   8.544
84959SOL    HW156651   2.915   7.734   8.516
84959SOL    HW256652   2.803   7.825   8.561
84960SOL     OW56653   6.460   6.289  10.932
84960SOL    HW156654   6.521   6.277  11.005
84960SOL    HW256655   6.480   6.217  10.872
84961SOL     OW56656   7.696   7.392   3.854
84961SOL    HW156657   7.627   7.341   3.897
84961SOL    HW256658   7.764   7.400   3.921
84962SOL     OW56659  10.534  12.306   5.001
84962SOL    HW156660  10.551  12.322   4.909
84962SOL    HW256661  10.501  12.216   5.005
84963SOL     OW56662   4.651   3.881  12.017
84963SOL    HW156663   4.629   3.809  12.075
84963SOL    HW256664   4.577   3.941  12.024
84964SOL     OW56665   5.033  11.449  11.040
84964SOL    HW156666   5.036  11.514  11.110
84964SOL    HW256667   5.023  11.501  10.960
84965SOL     OW56668  12.286  11.865   2.454
84965SOL    HW156669  12.241  11.857   2.370
84965SOL    HW256670  12.236  11.810   2.513
84966SOL     OW56671   1.114  14.440   5.599
84966SOL    HW156672   1.125  14.499   5.524
84966SOL    HW256673   1.070  14.363   5.563
84967SOL     OW56674   8.222  14.325  14.630
84967SOL    HW156675   8.314  14.322  14.655
84967SOL    HW256676   8.173  14.310  14.711
84968SOL     OW56677   8.350  14.669   8.127
84968SOL    HW156678   8.414  14.602   8.100
84968SOL    HW256679   8.361  14.739   8.062
84969SOL     OW56680   1.107  13.590   7.354
84969SOL    HW156681   1.140  13.554   7.271
84969SOL    HW256682   1.187  13.610   7.404
84970SOL     OW56683  13.058   7.473  14.212
84970SOL    HW156684  13.063   7.491  14.306
84970SOL    HW256685  12.994   7.403  14.205
84971SOL     OW56686   0.288   9.302   2.023
84971SOL    HW156687   0.206   9.348   2.008
84971SOL    HW256688   0.355   9.371   2.017
84972SOL     OW56689   0.197   5.472  10.554
84972SOL    HW156690   0.153   5.480  10.639
84972SOL    HW256691   0.128   5.446  10.493
84973SOL     OW56692   8.987   0.043  10.661
84973SOL    HW156693   8.951  14.862  10.595
84973SOL    HW256694   9.049  14.867  10.710
84974SOL     OW56695  11.673   7.790  13.256
84974SOL    HW156696  11.702   7.708  13.296
84974SOL    HW256697  11.743   7.814  13.195
84975SOL     OW56698   8.517  12.840   7.962
84975SOL    HW156699   8.606  12.817   7.990
84975SOL    HW256700   8.461  12.775   8.005
84976SOL     OW56701   9.916  14.869  13.994
84976SOL    HW156702   9.853  14.797  13.988
84976SOL    HW256703   9.962  14.854  14.077
84977SOL     OW56704  14.259  13.653   8.766
84977SOL    HW156705  14.248  13.731   8.821
84977SOL    HW256706  14.349  13.659   8.735
84978SOL     OW56707  14.678   2.446   5.635
84978SOL    HW156708  14.687   2.535   5.601
84978SOL    HW256709  14.753   2.435   5.694
84979SOL     OW56710   2.764  11.023   5.678
84979SOL    HW156711   2.813  11.036   5.597
84979SOL    HW256712   2.821  10.966   5.731
84980SOL     OW56713   6.058   9.551   0.915
84980SOL    HW156714   5.992   9.501   0.866
84980SOL    HW256715   6.092   9.489   0.979
84981SOL     OW56716   3.443  13.862   9.755
84981SOL    HW156717   3.524  13.819   9.783
84981SOL    HW256718   3.431  13.934   9.817
84982SOL     OW56719  14.550   9.177   8.873
84982SOL    HW156720  14.509   9.091   8.879
84982SOL    HW256721  14.584   9.194   8.961
84983SOL     OW56722  10.697   2.413   1.072
84983SOL    HW156723  10.667   2.456   0.991
84983SOL    HW256724  10.792   2.407   1.062
84984SOL     OW56725  11.780  14.209   0.683
84984SOL    HW156726  11.691  14.220   0.649
84984SOL    HW256727  11.833  14.194   0.605
84985SOL     OW56728   2.823   1.527  13.720
84985SOL    HW156729   2.776   1.592  13.772
84985SOL    HW256730   2.870   1.473  13.784
84986SOL     OW56731   8.417   3.351   7.406
84986SOL    HW156732   8.465   3.351   7.489
84986SOL    HW256733   8.483   3.331   7.340
84987SOL     OW56734  11.816   2.171   4.479
84987SOL    HW156735  11.803   2.254   4.524
84987SOL    HW256736  11.827   2.107   4.549
84988SOL     OW56737   2.324  11.605  12.084
84988SOL    HW156738   2.292  11.593  12.173
84988SOL    HW256739   2.258  11.661  12.042
84989SOL     OW56740  12.635  13.781   3.942
84989SOL    HW156741  12.563  13.718   3.943
84989SOL    HW256742  12.679  13.765   3.858
84990SOL     OW56743  14.814   1.629  11.493
84990SOL    HW156744  14.805   1.701  11.556
84990SOL    HW256745  14.875   1.663  11.427
84991SOL     OW56746  13.559  14.251   5.814
84991SOL    HW156747  13.483  14.295   5.852
84991SOL    HW256748  13.592  14.313   5.749
84992SOL     OW56749   7.506   4.201   7.317
84992SOL    HW156750   7.456   4.120   7.312
84992SOL    HW256751   7.444   4.266   7.350
84993SOL     OW56752   4.892  14.765   3.024
84993SOL    HW156753   4.902  14.771   3.119
84993SOL    HW256754   4.878  14.672   3.007
84994SOL     OW56755   0.376   0.535   0.106
84994SOL    HW156756   0.437   0.578   0.167
84994SOL    HW256757   0.432   0.499   0.038
84995SOL     OW56758   8.618  12.412  13.419
84995SOL    HW156759   8.523  12.401  13.420
84995SOL    HW256760   8.652  12.325  13.400
84996SOL     OW56761   2.623   1.132   2.505
84996SOL    HW156762   2.592   1.096   2.588
84996SOL    HW256763   2.549   1.122   2.445
84997SOL     OW56764  11.536   6.727   6.411
84997SOL    HW156765  11.486   6.779   6.474
84997SOL    HW256766  11.469   6.691   6.352
84998SOL     OW56767   8.796  13.458   3.850
84998SOL    HW156768   8.747  13.377   3.831
84998SOL    HW256769   8.883  13.441   3.815
84999SOL     OW56770   9.032   9.424   9.609
84999SOL    HW156771   9.120   9.457   9.593
84999SOL    HW256772   8.986   9.498   9.649
85000SOL     OW56773   8.814   2.058  13.557
85000SOL    HW156774   8.839   2.045  13.466
85000SOL    HW256775   8.722   2.030  13.562
85001SOL     OW56776  10.649   8.527   2.468
85001SOL    HW156777  10.697   8.465   2.522
85001SOL    HW256778  10.559   8.494   2.467
85002SOL     OW56779   3.044   0.399   6.808
85002SOL    HW156780   3.070   0.377   6.898
85002SOL    HW256781   2.948   0.395   6.810
85003SOL     OW56782   2.728   2.556  14.566
85003SOL    HW156783   2.712   2.478  14.619
85003SOL    HW256784   2.643   2.598  14.557
85004SOL     OW56785  13.018   7.042  14.803
85004SOL    HW156786  13.099   7.063  14.758
85004SOL    HW256787  13.037   6.963  14.853
85005SOL     OW56788   8.750   1.771   7.740
85005SOL    HW156789   8.798   1.838   7.692
85005SOL    HW256790   8.710   1.717   7.672
85006SOL     OW56791  12.311   9.471   4.981
85006SOL    HW156792  12.264   9.394   4.949
85006SOL    HW256793  12.311   9.461   5.076
85007SOL     OW56794   2.562   0.590   8.805
85007SOL    HW156795   2.643   0.640   8.794
85007SOL    HW256796   2.517   0.632   8.878
85008SOL     OW56797   4.332   8.317   5.426
85008SOL    HW156798   4.243   8.349   5.412
85008SOL    HW256799   4.365   8.370   5.499
85009SOL     OW56800  12.281  11.692  12.001
85009SOL    HW156801  12.237  11.758  12.054
85009SOL    HW256802  12.350  11.658  12.057
85010SOL     OW56803  12.194  10.478  12.691
85010SOL    HW156804  12.158  10.523  12.615
85010SOL    HW256805  12.247  10.407  12.655
85011SOL     OW56806   0.490   1.750  13.822
85011SOL    HW156807   0.453   1.820  13.769
85011SOL    HW256808   0.448   1.670  13.790
85012SOL     OW56809   0.277   4.508   3.230
85012SOL    HW156810   0.288   4.418   3.200
85012SOL    HW256811   0.191   4.534   3.197
85013SOL     OW56812   5.538  14.057  11.352
85013SOL    HW156813   5.533  14.152  11.341
85013SOL    HW256814   5.591  14.027  11.279
85014SOL     OW56815   7.697  12.463   3.272
85014SOL    HW156816   7.651  12.535   3.230
85014SOL    HW256817   7.723  12.496   3.357
85015SOL     OW56818   9.663   6.315  13.817
85015SOL    HW156819   9.615   6.272  13.746
85015SOL    HW256820   9.597   6.340  13.880
85016SOL     OW56821   0.478   0.100   8.829
85016SOL    HW156822   0.485   0.162   8.902
85016SOL    HW256823   0.385   0.102   8.805
85017SOL     OW56824   6.794   0.507   7.667
85017SOL    HW156825   6.725   0.544   7.613
85017SOL    HW256826   6.837   0.583   7.706
85018SOL     OW56827  14.603   7.051  14.469
85018SOL    HW156828  14.522   7.088  14.504
85018SOL    HW256829  14.671   7.085  14.528
85019SOL     OW56830   3.839   7.694   0.803
85019SOL    HW156831   3.900   7.653   0.864
85019SOL    HW256832   3.889   7.701   0.721
85020SOL     OW56833  11.527   0.800   5.955
85020SOL    HW156834  11.470   0.726   5.973
85020SOL    HW256835  11.595   0.796   6.022
85021SOL     OW56836  13.811   4.140  14.690
85021SOL    HW156837  13.837   4.164  14.601
85021SOL    HW256838  13.891   4.107  14.730
85022SOL     OW56839   5.284  13.270   9.749
85022SOL    HW156840   5.222  13.338   9.775
85022SOL    HW256841   5.356  13.318   9.709
85023SOL     OW56842  10.736   8.441   9.389
85023SOL    HW156843  10.693   8.384   9.454
85023SOL    HW256844  10.700   8.528   9.406
85024SOL     OW56845   1.677   1.056   6.581
85024SOL    HW156846   1.747   1.030   6.521
85024SOL    HW256847   1.633   0.974   6.603
85025SOL     OW56848  13.637   9.793   1.264
85025SOL    HW156849  13.661   9.701   1.273
85025SOL    HW256850  13.714   9.841   1.293
85026SOL     OW56851   1.588  13.660  12.001
85026SOL    HW156852   1.673  13.689  12.034
85026SOL    HW256853   1.585  13.694  11.912
85027SOL     OW56854  12.268   7.161   7.768
85027SOL    HW156855  12.334   7.092   7.773
85027SOL    HW256856  12.300   7.220   7.699
85028SOL     OW56857   4.189   1.773  11.991
85028SOL    HW156858   4.123   1.708  12.014
85028SOL    HW256859   4.254   1.768  12.061
85029SOL     OW56860  13.016   8.835  14.739
85029SOL    HW156861  12.974   8.909  14.782
85029SOL    HW256862  12.944   8.785  14.700
85030SOL     OW56863   3.154   3.183   2.862
85030SOL    HW156864   3.231   3.129   2.882
85030SOL    HW256865   3.108   3.135   2.793
85031SOL     OW56866   3.783   9.866   3.290
85031SOL    HW156867   3.748   9.797   3.347
85031SOL    HW256868   3.724   9.940   3.303
85032SOL     OW56869  10.682   6.813   1.116
85032SOL    HW156870  10.726   6.730   1.096
85032SOL    HW256871  10.615   6.822   1.048
85033SOL     OW56872   5.192   9.227   5.344
85033SOL    HW156873   5.117   9.182   5.383
85033SOL    HW256874   5.157   9.272   5.267
85034SOL     OW56875   3.000   5.442   0.971
85034SOL    HW156876   3.039   5.394   1.043
85034SOL    HW256877   3.066   5.440   0.902
85035SOL     OW56878   3.075  10.758   7.318
85035SOL    HW156879   3.027  10.841   7.314
85035SOL    HW256880   3.008  10.693   7.341
85036SOL     OW56881   1.080  13.436   5.111
85036SOL    HW156882   1.095  13.513   5.167
85036SOL    HW256883   0.985  13.434   5.099
85037SOL     OW56884   9.441   1.409   1.683
85037SOL    HW156885   9.430   1.316   1.704
85037SOL    HW256886   9.494   1.408   1.602
85038SOL     OW56887   8.962   7.565   4.160
85038SOL    HW156888   9.021   7.617   4.215
85038SOL    HW256889   8.895   7.628   4.131
85039SOL     OW56890  13.997   1.464   3.774
85039SOL    HW156891  13.949   1.544   3.790
85039SOL    HW256892  14.053   1.454   3.850
85040SOL     OW56893   5.054  13.703   4.202
85040SOL    HW156894   4.998  13.626   4.209
85040SOL    HW256895   5.049  13.728   4.110
85041SOL     OW56896  10.077  12.048   6.273
85041SOL    HW156897  10.018  12.123   6.264
85041SOL    HW256898  10.052  11.989   6.201
85042SOL     OW56899   0.079  14.740   4.585
85042SOL    HW156900   0.123  14.812   4.541
85042SOL    HW256901   0.027  14.697   4.517
85043SOL     OW56902   2.182  12.233  13.323
85043SOL    HW156903   2.189  12.239  13.228
85043SOL    HW256904   2.089  12.218  13.339
85044SOL     OW56905   0.482  11.437   6.541
85044SOL    HW156906   0.459  11.349   6.510
85044SOL    HW256907   0.408  11.465   6.594
85045SOL     OW56908   6.782  12.203  11.425
85045SOL    HW156909   6.829  12.232  11.504
85045SOL    HW256910   6.723  12.134  11.457
85046SOL     OW56911   7.614  13.231  10.837
85046SOL    HW156912   7.692  13.286  10.846
85046SOL    HW256913   7.604  13.221  10.742
85047SOL     OW56914   3.632   4.492   9.249
85047SOL    HW156915   3.673   4.568   9.207
85047SOL    HW256916   3.609   4.434   9.176
85048SOL     OW56917  14.730   4.218   1.165
85048SOL    HW156918  14.759   4.302   1.129
85048SOL    HW256919  14.803   4.158   1.149
85049SOL     OW56920   2.773   0.200   6.841
85049SOL    HW156921   2.766   0.272   6.904
85049SOL    HW256922   2.728   0.232   6.763
85050SOL     OW56923   6.417   5.370   6.971
85050SOL    HW156924   6.364   5.348   7.047
85050SOL    HW256925   6.489   5.306   6.972
85051SOL     OW56926   9.968  12.031   2.472
85051SOL    HW156927   9.935  12.108   2.517
85051SOL    HW256928  10.011  11.980   2.541
85052SOL     OW56929   3.778   9.725   4.000
85052SOL    HW156930   3.843   9.684   4.057
85052SOL    HW256931   3.821   9.805   3.968
85053SOL     OW56932   7.864   4.817  13.881
85053SOL    HW156933   7.799   4.763  13.836
85053SOL    HW256934   7.857   4.793  13.973
85054SOL     OW56935   9.837  10.895   8.568
85054SOL    HW156936   9.879  10.946   8.499
85054SOL    HW256937   9.892  10.908   8.645
85055SOL     OW56938  11.650  13.691   1.289
85055SOL    HW156939  11.695  13.611   1.262
85055SOL    HW256940  11.567  13.661   1.326
85056SOL     OW56941   3.310  12.016   2.961
85056SOL    HW156942   3.302  12.106   2.931
85056SOL    HW256943   3.289  12.020   3.055
85057SOL     OW56944  12.253  12.552   8.808
85057SOL    HW156945  12.235  12.561   8.714
85057SOL    HW256946  12.198  12.480   8.836
85058SOL     OW56947   6.077  12.623   3.868
85058SOL    HW156948   6.079  12.630   3.963
85058SOL    HW256949   6.167  12.601   3.843
85059SOL     OW56950   5.047   0.157   1.306
85059SOL    HW156951   5.077   0.220   1.372
85059SOL    HW256952   5.123   0.101   1.291
85060SOL     OW56953  11.025   2.522  11.355
85060SOL    HW156954  10.969   2.592  11.390
85060SOL    HW256955  11.033   2.460  11.428
85061SOL     OW56956   8.147   3.378  10.856
85061SOL    HW156957   8.208   3.449  10.877
85061SOL    HW256958   8.096   3.411  10.782
85062SOL     OW56959   7.015   5.495  11.519
85062SOL    HW156960   6.944   5.527  11.575
85062SOL    HW256961   7.095   5.524  11.563
85063SOL     OW56962   4.254   6.623   3.905
85063SOL    HW156963   4.179   6.646   3.851
85063SOL    HW256964   4.319   6.589   3.844
85064SOL     OW56965  10.500  14.608  13.566
85064SOL    HW156966  10.424  14.639  13.516
85064SOL    HW256967  10.570  14.600  13.500
85065SOL     OW56968   2.395  11.785  14.195
85065SOL    HW156969   2.308  11.751  14.175
85065SOL    HW256970   2.391  11.877  14.173
85066SOL     OW56971  10.937  12.783  12.480
85066SOL    HW156972  10.908  12.692  12.471
85066SOL    HW256973  11.030  12.780  12.460
85067SOL     OW56974   3.202   0.510  14.416
85067SOL    HW156975   3.222   0.561  14.494
85067SOL    HW256976   3.250   0.553  14.345
85068SOL     OW56977   1.876   0.407   1.932
85068SOL    HW156978   1.881   0.499   1.958
85068SOL    HW256979   1.866   0.360   2.015
85069SOL     OW56980  10.104   6.797   3.226
85069SOL    HW156981  10.072   6.836   3.145
85069SOL    HW256982  10.059   6.713   3.232
85070SOL     OW56983   6.546   0.795   9.658
85070SOL    HW156984   6.538   0.702   9.636
85070SOL    HW256985   6.598   0.796   9.739
85071SOL     OW56986   3.356  12.594   9.830
85071SOL    HW156987   3.310  12.539   9.893
85071SOL    HW256988   3.356  12.544   9.748
85072SOL     OW56989   4.865   2.848  13.509
85072SOL    HW156990   4.818   2.824  13.429
85072SOL    HW256991   4.799   2.843  13.578
85073SOL     OW56992  11.084   0.627   2.983
85073SOL    HW156993  11.116   0.539   2.966
85073SOL    HW256994  11.163   0.679   2.998
85074SOL     OW56995   2.908   1.906   8.649
85074SOL    HW156996   2.853   1.915   8.572
85074SOL    HW256997   2.993   1.878   8.615
85075SOL     OW56998  14.114   1.606   5.468
85075SOL    HW156999  14.136   1.532   5.525
85075SOL    HW257000  14.018   1.611   5.470
85076SOL     OW57001   9.552   2.529   5.522
85076SOL    HW157002   9.616   2.599   5.534
85076SOL    HW257003   9.603   2.448   5.528
85077SOL     OW57004   9.911   6.903   5.532
85077SOL    HW157005   9.895   6.909   5.438
85077SOL    HW257006   9.869   6.981   5.569
85078SOL     OW57007   3.616   8.519   5.339
85078SOL    HW157008   3.562   8.598   5.333
85078SOL    HW257009   3.684   8.531   5.272
85079SOL     OW57010   2.589   6.486  14.420
85079SOL    HW157011   2.653   6.494  14.491
85079SOL    HW257012   2.507   6.518  14.458
85080SOL     OW57013   0.252   7.002  13.718
85080SOL    HW157014   0.241   7.011  13.813
85080SOL    HW257015   0.254   6.908  13.703
85081SOL     OW57016   7.365   3.497   5.317
85081SOL    HW157017   7.430   3.474   5.251
85081SOL    HW257018   7.287   3.519   5.267
85082SOL     OW57019   2.282   2.001  11.046
85082SOL    HW157020   2.275   2.033  10.956
85082SOL    HW257021   2.361   2.044  11.080
85083SOL     OW57022   1.319   8.649  10.466
85083SOL    HW157023   1.275   8.620  10.546
85083SOL    HW257024   1.337   8.742  10.481
85084SOL     OW57025  12.490   3.806   1.093
85084SOL    HW157026  12.534   3.851   1.164
85084SOL    HW257027  12.560   3.782   1.032
85085SOL     OW57028   4.291   0.984   8.616
85085SOL    HW157029   4.230   0.930   8.565
85085SOL    HW257030   4.327   0.924   8.682
85086SOL     OW57031   7.479   5.029  14.032
85086SOL    HW157032   7.390   5.056  14.055
85086SOL    HW257033   7.507   5.093  13.965
85087SOL     OW57034   1.499  12.127   4.487
85087SOL    HW157035   1.466  12.037   4.483
85087SOL    HW257036   1.593  12.118   4.497
85088SOL     OW57037   6.459  11.687   0.812
85088SOL    HW157038   6.476  11.760   0.872
85088SOL    HW257039   6.545  11.664   0.777
85089SOL     OW57040  14.221   7.947   0.249
85089SOL    HW157041  14.221   7.882   0.319
85089SOL    HW257042  14.314   7.964   0.233
85090SOL     OW57043   7.473  13.000   8.321
85090SOL    HW157044   7.403  13.046   8.274
85090SOL    HW257045   7.541  13.067   8.333
85091SOL     OW57046  11.581  14.377   0.011
85091SOL    HW157047  11.553  14.287   0.026
85091SOL    HW257048  11.572  14.420   0.096
85092SOL     OW57049   3.529  14.741  10.642
85092SOL    HW157050   3.467  14.672  10.663
85092SOL    HW257051   3.505  14.769  10.553
85093SOL     OW57052   6.232  10.450  12.891
85093SOL    HW157053   6.157  10.478  12.839
85093SOL    HW257054   6.197  10.386  12.953
85094SOL     OW57055   3.677   8.524  14.729
85094SOL    HW157056   3.675   8.506  14.823
85094SOL    HW257057   3.749   8.470  14.696
85095SOL     OW57058   6.311   5.476  11.238
85095SOL    HW157059   6.217   5.491  11.239
85095SOL    HW257060   6.321   5.387  11.206
85096SOL     OW57061   1.617   1.662   7.687
85096SOL    HW157062   1.705   1.633   7.661
85096SOL    HW257063   1.561   1.637   7.613
85097SOL     OW57064   0.152   4.846   4.702
85097SOL    HW157065   0.116   4.763   4.733
85097SOL    HW257066   0.078   4.906   4.700
85098SOL     OW57067  10.957   0.871  10.093
85098SOL    HW157068  10.995   0.956  10.070
85098SOL    HW257069  11.004   0.843  10.171
85099SOL     OW57070   3.662  14.217  12.615
85099SOL    HW157071   3.678  14.183  12.703
85099SOL    HW257072   3.728  14.175  12.560
85100SOL     OW57073   0.433  12.701  10.999
85100SOL    HW157074   0.416  12.753  11.077
85100SOL    HW257075   0.518  12.732  10.967
85101SOL     OW57076   9.371   9.815   2.096
85101SOL    HW157077   9.297   9.785   2.043
85101SOL    HW257078   9.332   9.875   2.160
85102SOL     OW57079   4.228   9.799  14.059
85102SOL    HW157080   4.315   9.783  14.021
85102SOL    HW257081   4.217   9.894  14.054
85103SOL     OW57082   5.080   2.444   7.752
85103SOL    HW157083   5.122   2.420   7.669
85103SOL    HW257084   5.032   2.366   7.778
85104SOL     OW57085  13.663   3.726   9.761
85104SOL    HW157086  13.597   3.796   9.763
85104SOL    HW257087  13.629   3.659   9.820
85105SOL     OW57088  13.459   6.150  14.322
85105SOL    HW157089  13.473   6.226  14.379
85105SOL    HW257090  13.477   6.075  14.378
85106SOL     OW57091   3.998   6.771  13.162
85106SOL    HW157092   3.917   6.797  13.206
85106SOL    HW257093   3.972   6.699  13.104
85107SOL     OW57094   2.189   4.504   0.040
85107SOL    HW157095   2.162   4.451   0.115
85107SOL    HW257096   2.203   4.591   0.076
85108SOL     OW57097  11.467   3.842  10.576
85108SOL    HW157098  11.421   3.775  10.525
85108SOL    HW257099  11.493   3.797  10.657
85109SOL     OW57100  12.949   2.547  14.098
85109SOL    HW157101  12.862   2.508  14.106
85109SOL    HW257102  13.009   2.473  14.104
85110SOL     OW57103   5.836   0.715  10.800
85110SOL    HW157104   5.901   0.652  10.770
85110SOL    HW257105   5.752   0.671  10.784
85111SOL     OW57106   6.076  11.551  14.410
85111SOL    HW157107   6.147  11.540  14.474
85111SOL    HW257108   5.997  11.561  14.464
85112SOL     OW57109   7.000  11.684   0.662
85112SOL    HW157110   7.021  11.695   0.569
85112SOL    HW257111   7.015  11.771   0.700
85113SOL     OW57112   3.920   3.502   0.226
85113SOL    HW157113   3.826   3.517   0.237
85113SOL    HW257114   3.955   3.586   0.197
85114SOL     OW57115  11.503  14.476  12.235
85114SOL    HW157116  11.504  14.382  12.213
85114SOL    HW257117  11.442  14.482  12.308
85115SOL     OW57118   1.511   8.458  10.817
85115SOL    HW157119   1.431   8.463  10.868
85115SOL    HW257120   1.564   8.532  10.847
85116SOL     OW57121  10.309   9.057   7.554
85116SOL    HW157122  10.359   8.984   7.590
85116SOL    HW257123  10.313   9.124   7.623
85117SOL     OW57124  13.494   0.468  14.183
85117SOL    HW157125  13.425   0.534  14.188
85117SOL    HW257126  13.575   0.517  14.175
85118SOL     OW57127   3.812   0.198   5.513
85118SOL    HW157128   3.720   0.179   5.528
85118SOL    HW257129   3.830   0.277   5.564
85119SOL     OW57130   7.500   6.156   4.311
85119SOL    HW157131   7.481   6.197   4.227
85119SOL    HW257132   7.491   6.228   4.375
85120SOL     OW57133   8.351   7.019  13.589
85120SOL    HW157134   8.394   7.091  13.636
85120SOL    HW257135   8.342   7.053  13.499
85121SOL     OW57136  14.133   8.227  10.131
85121SOL    HW157137  14.175   8.304  10.168
85121SOL    HW257138  14.100   8.256  10.045
85122SOL     OW57139  13.471   2.746   3.247
85122SOL    HW157140  13.509   2.819   3.297
85122SOL    HW257141  13.472   2.672   3.308
85123SOL     OW57142   5.612  12.309   5.818
85123SOL    HW157143   5.535  12.366   5.825
85123SOL    HW257144   5.586  12.228   5.862
85124SOL     OW57145   7.636   7.867   5.958
85124SOL    HW157146   7.695   7.879   5.884
85124SOL    HW257147   7.686   7.899   6.034
85125SOL     OW57148   3.857   5.574  13.857
85125SOL    HW157149   3.787   5.602  13.798
85125SOL    HW257150   3.924   5.537  13.800
85126SOL     OW57151   1.646   6.834   2.911
85126SOL    HW157152   1.677   6.912   2.957
85126SOL    HW257153   1.550   6.844   2.911
85127SOL     OW57154   1.824  13.471   8.312
85127SOL    HW157155   1.779  13.388   8.300
85127SOL    HW257156   1.911  13.457   8.275
85128SOL     OW57157   1.244  11.191  10.436
85128SOL    HW157158   1.247  11.106  10.391
85128SOL    HW257159   1.288  11.251  10.376
85129SOL     OW57160   4.470   4.476   7.837
85129SOL    HW157161   4.403   4.513   7.895
85129SOL    HW257162   4.510   4.406   7.889
85130SOL     OW57163   3.162   3.316  11.811
85130SOL    HW157164   3.232   3.380  11.821
85130SOL    HW257165   3.201   3.232  11.838
85131SOL     OW57166   5.722  12.927  12.866
85131SOL    HW157167   5.721  12.866  12.792
85131SOL    HW257168   5.664  12.998  12.840
85132SOL     OW57169  14.783   3.829  10.206
85132SOL    HW157170  14.850   3.879  10.161
85132SOL    HW257171  14.700   3.865  10.174
85133SOL     OW57172   6.631   4.057   8.770
85133SOL    HW157173   6.575   4.012   8.833
85133SOL    HW257174   6.697   3.991   8.746
85134SOL     OW57175   4.760   3.116   9.940
85134SOL    HW157176   4.801   3.189   9.985
85134SOL    HW257177   4.804   3.038   9.974
85135SOL     OW57178  11.224   0.831   8.795
85135SOL    HW157179  11.262   0.786   8.870
85135SOL    HW257180  11.229   0.924   8.818
85136SOL     OW57181   7.509  11.109   3.227
85136SOL    HW157182   7.495  11.016   3.243
85136SOL    HW257183   7.585  11.113   3.169
85137SOL     OW57184   3.393  11.338   4.458
85137SOL    HW157185   3.403  11.433   4.459
85137SOL    HW257186   3.479  11.305   4.483
85138SOL     OW57187   2.209   3.828   8.704
85138SOL    HW157188   2.257   3.767   8.760
85138SOL    HW257189   2.276   3.889   8.673
85139SOL     OW57190   6.415   2.712   3.265
85139SOL    HW157191   6.340   2.653   3.278
85139SOL    HW257192   6.427   2.753   3.350
85140SOL     OW57193   3.923   6.803   3.143
85140SOL    HW157194   3.996   6.853   3.180
85140SOL    HW257195   3.964   6.746   3.078
85141SOL     OW57196   6.457  10.857   5.976
85141SOL    HW157197   6.389  10.895   5.920
85141SOL    HW257198   6.491  10.783   5.926
85142SOL     OW57199  10.023  14.807   5.056
85142SOL    HW157200   9.933  14.796   5.089
85142SOL    HW257201  10.066  14.858   5.124
85143SOL     OW57202  12.218  11.814  11.438
85143SOL    HW157203  12.148  11.879  11.431
85143SOL    HW257204  12.279  11.836  11.367
85144SOL     OW57205   5.923   4.570   0.153
85144SOL    HW157206   5.990   4.629   0.120
85144SOL    HW257207   5.878   4.538   0.075
85145SOL     OW57208   5.218   1.322   5.052
85145SOL    HW157209   5.308   1.340   5.079
85145SOL    HW257210   5.208   1.366   4.968
85146SOL     OW57211  12.789  14.137  10.966
85146SOL    HW157212  12.750  14.118  10.881
85146SOL    HW257213  12.876  14.097  10.963
85147SOL     OW57214   8.033   5.801   6.571
85147SOL    HW157215   8.122   5.778   6.543
85147SOL    HW257216   8.043   5.826   6.663
85148SOL     OW57217   6.486   9.729   9.956
85148SOL    HW157218   6.417   9.665   9.975
85148SOL    HW257219   6.472   9.751   9.863
85149SOL     OW57220  13.525  13.531   5.716
85149SOL    HW157221  13.543  13.499   5.627
85149SOL    HW257222  13.563  13.619   5.718
85150SOL     OW57223   5.498   3.748   4.280
85150SOL    HW157224   5.484   3.678   4.343
85150SOL    HW257225   5.534   3.820   4.332
85151SOL     OW57226   9.356  12.694  13.607
85151SOL    HW157227   9.287  12.729  13.663
85151SOL    HW257228   9.365  12.603  13.633
85152SOL     OW57229   7.638  13.961   6.546
85152SOL    HW157230   7.612  13.965   6.638
85152SOL    HW257231   7.611  14.045   6.510
85153SOL     OW57232   7.955   6.888  12.460
85153SOL    HW157233   7.886   6.943  12.498
85153SOL    HW257234   7.993   6.942  12.390
85154SOL     OW57235   0.244   7.092  10.132
85154SOL    HW157236   0.326   7.119  10.173
85154SOL    HW257237   0.194   7.173  10.121
85155SOL     OW57238   5.147   7.880   5.695
85155SOL    HW157239   5.220   7.942   5.694
85155SOL    HW257240   5.094   7.906   5.770
85156SOL     OW57241   8.714  11.105   0.493
85156SOL    HW157242   8.621  11.117   0.513
85156SOL    HW257243   8.758  11.113   0.578
85157SOL     OW57244   1.756   3.675   3.882
85157SOL    HW157245   1.786   3.631   3.802
85157SOL    HW257246   1.701   3.611   3.926
85158SOL     OW57247   0.904  11.838   9.567
85158SOL    HW157248   0.916  11.933   9.565
85158SOL    HW257249   0.848  11.822   9.643
85159SOL     OW57250  10.876   4.954  12.872
85159SOL    HW157251  10.847   5.041  12.845
85159SOL    HW257252  10.794   4.905  12.884
85160SOL     OW57253   8.554   3.795   1.940
85160SOL    HW157254   8.488   3.743   1.894
85160SOL    HW257255   8.637   3.751   1.920
85161SOL     OW57256  11.115  14.707  14.127
85161SOL    HW157257  11.105  14.612  14.119
85161SOL    HW257258  11.094  14.741  14.040
85162SOL     OW57259   1.224   7.515  12.696
85162SOL    HW157260   1.144   7.562  12.719
85162SOL    HW257261   1.289   7.547  12.759
85163SOL     OW57262  10.288  12.534   3.527
85163SOL    HW157263  10.208  12.586   3.535
85163SOL    HW257264  10.326  12.536   3.615
85164SOL     OW57265  10.908  11.661   6.627
85164SOL    HW157266  10.949  11.593   6.574
85164SOL    HW257267  10.859  11.715   6.565
85165SOL     OW57268   7.984   7.997   0.393
85165SOL    HW157269   7.900   7.961   0.363
85165SOL    HW257270   8.050   7.949   0.343
85166SOL     OW57271   4.443  12.705  14.466
85166SOL    HW157272   4.472  12.746  14.547
85166SOL    HW257273   4.441  12.776  14.402
85167SOL     OW57274   3.263   9.637   4.498
85167SOL    HW157275   3.325   9.612   4.566
85167SOL    HW257276   3.245   9.729   4.513
85168SOL     OW57277  13.309  12.731   2.797
85168SOL    HW157278  13.376  12.799   2.807
85168SOL    HW257279  13.261  12.756   2.718
85169SOL     OW57280   6.295   9.584   4.132
85169SOL    HW157281   6.382   9.600   4.168
85169SOL    HW257282   6.302   9.501   4.085
85170SOL     OW57283   0.341   2.721  14.237
85170SOL    HW157284   0.276   2.664  14.278
85170SOL    HW257285   0.424   2.674  14.247
85171SOL     OW57286  12.870  13.195   2.509
85171SOL    HW157287  12.850  13.103   2.494
85171SOL    HW257288  12.877  13.232   2.421
85172SOL     OW57289   1.137   5.113  12.758
85172SOL    HW157290   1.084   5.034  12.758
85172SOL    HW257291   1.075   5.184  12.742
85173SOL     OW57292   0.762   1.802   7.041
85173SOL    HW157293   0.717   1.880   7.008
85173SOL    HW257294   0.844   1.837   7.078
85174SOL     OW57295   9.979   3.007   5.787
85174SOL    HW157296   9.959   2.923   5.827
85174SOL    HW257297  10.051   2.988   5.727
85175SOL     OW57298  11.611   9.600   1.277
85175SOL    HW157299  11.678   9.635   1.335
85175SOL    HW257300  11.642   9.621   1.189
85176SOL     OW57301   5.820  12.296   3.926
85176SOL    HW157302   5.750  12.254   3.876
85176SOL    HW257303   5.780  12.320   4.009
85177SOL     OW57304   7.896  12.351   6.862
85177SOL    HW157305   7.933  12.266   6.882
85177SOL    HW257306   7.961  12.414   6.893
85178SOL     OW57307   5.873   5.177  12.704
85178SOL    HW157308   5.852   5.189  12.796
85178SOL    HW257309   5.797   5.131  12.668
85179SOL     OW57310  11.523   6.396  11.474
85179SOL    HW157311  11.575   6.351  11.408
85179SOL    HW257312  11.534   6.344  11.553
85180SOL     OW57313  10.548   0.892  11.742
85180SOL    HW157314  10.569   0.801  11.763
85180SOL    HW257315  10.467   0.909  11.789
85181SOL     OW57316  14.498   0.436   3.270
85181SOL    HW157317  14.534   0.463   3.186
85181SOL    HW257318  14.404   0.424   3.255
85182SOL     OW57319  14.001  12.919  13.871
85182SOL    HW157320  14.039  12.977  13.937
85182SOL    HW257321  14.075  12.896  13.814
85183SOL     OW57322   5.083   9.577  13.967
85183SOL    HW157323   5.071   9.611  14.055
85183SOL    HW257324   4.997   9.585  13.926
85184SOL     OW57325  13.831   5.566   8.053
85184SOL    HW157326  13.922   5.536   8.049
85184SOL    HW257327  13.784   5.492   8.092
85185SOL     OW57328   8.692   7.501   0.198
85185SOL    HW157329   8.753   7.556   0.149
85185SOL    HW257330   8.679   7.425   0.142
85186SOL     OW57331   5.837  14.630   4.366
85186SOL    HW157332   5.917  14.682   4.369
85186SOL    HW257333   5.816  14.623   4.273
85187SOL     OW57334   1.547   5.275   8.553
85187SOL    HW157335   1.526   5.308   8.465
85187SOL    HW257336   1.533   5.351   8.610
85188SOL     OW57337   6.748  14.326  12.080
85188SOL    HW157338   6.764  14.263  12.150
85188SOL    HW257339   6.683  14.284  12.024
85189SOL     OW57340   5.616  14.516   2.521
85189SOL    HW157341   5.572  14.445   2.567
85189SOL    HW257342   5.695  14.533   2.572
85190SOL     OW57343   6.760   0.465   4.092
85190SOL    HW157344   6.693   0.497   4.152
85190SOL    HW257345   6.742   0.372   4.082
85191SOL     OW57346   7.467   1.746  13.894
85191SOL    HW157347   7.453   1.782  13.807
85191SOL    HW257348   7.379   1.745  13.934
85192SOL     OW57349   3.855  10.061   4.309
85192SOL    HW157350   3.813  10.022   4.385
85192SOL    HW257351   3.884   9.987   4.256
85193SOL     OW57352  14.395   8.286   2.653
85193SOL    HW157353  14.409   8.272   2.559
85193SOL    HW257354  14.374   8.199   2.688
85194SOL     OW57355   4.915   5.429   8.014
85194SOL    HW157356   4.968   5.495   8.058
85194SOL    HW257357   4.966   5.348   8.021
85195SOL     OW57358   8.816  14.477   1.765
85195SOL    HW157359   8.821  14.527   1.847
85195SOL    HW257360   8.859  14.533   1.700
85196SOL     OW57361  10.805   0.299   4.725
85196SOL    HW157362  10.761   0.376   4.761
85196SOL    HW257363  10.887   0.294   4.773
85197SOL     OW57364   4.451  10.518   3.689
85197SOL    HW157365   4.488  10.430   3.697
85197SOL    HW257366   4.489  10.552   3.608
85198SOL     OW57367  11.149  10.983  14.707
85198SOL    HW157368  11.203  10.925  14.760
85198SOL    HW257369  11.114  11.046  14.769
85199SOL     OW57370   2.977   4.012   5.897
85199SOL    HW157371   2.909   4.006   5.830
85199SOL    HW257372   3.059   4.002   5.849
85200SOL     OW57373   2.154  10.467   7.320
85200SOL    HW157374   2.201  10.397   7.274
85200SOL    HW257375   2.208  10.545   7.308
85201SOL     OW57376   1.679   7.251   5.633
85201SOL    HW157377   1.638   7.196   5.566
85201SOL    HW257378   1.757   7.203   5.659
85202SOL     OW57379   6.653  10.973   1.907
85202SOL    HW157380   6.573  10.980   1.959
85202SOL    HW257381   6.683  10.883   1.923
85203SOL     OW57382   6.194  11.272   4.289
85203SOL    HW157383   6.205  11.326   4.367
85203SOL    HW257384   6.212  11.331   4.216
85204SOL     OW57385   5.443   1.273   5.553
85204SOL    HW157386   5.432   1.326   5.474
85204SOL    HW257387   5.387   1.197   5.539
85205SOL     OW57388  10.248   3.486   7.754
85205SOL    HW157389  10.335   3.480   7.795
85205SOL    HW257390  10.192   3.523   7.822
85206SOL     OW57391  14.575   1.708   1.446
85206SOL    HW157392  14.527   1.781   1.486
85206SOL    HW257393  14.528   1.690   1.365
85207SOL     OW57394  11.223  12.076   8.018
85207SOL    HW157395  11.277  11.997   8.021
85207SOL    HW257396  11.176  12.076   8.101
85208SOL     OW57397  12.046   8.149  11.999
85208SOL    HW157398  12.090   8.081  12.049
85208SOL    HW257399  12.070   8.132  11.908
85209SOL     OW57400  11.892  10.280   7.366
85209SOL    HW157401  11.820  10.336   7.339
85209SOL    HW257402  11.886  10.275   7.462
85210SOL     OW57403  14.315   2.305   7.625
85210SOL    HW157404  14.270   2.386   7.648
85210SOL    HW257405  14.250   2.256   7.574
85211SOL     OW57406   8.320   3.792  11.854
85211SOL    HW157407   8.382   3.806  11.782
85211SOL    HW257408   8.310   3.697  11.859
85212SOL     OW57409  13.629   4.919   1.179
85212SOL    HW157410  13.711   4.926   1.130
85212SOL    HW257411  13.635   4.836   1.225
85213SOL     OW57412   5.847  10.403   9.093
85213SOL    HW157413   5.796  10.401   9.174
85213SOL    HW257414   5.870  10.312   9.077
85214SOL     OW57415   9.238   7.025   7.614
85214SOL    HW157416   9.201   6.949   7.660
85214SOL    HW257417   9.283   6.987   7.539
85215SOL     OW57418   0.038  13.906   7.644
85215SOL    HW157419  14.864  13.977   7.682
85215SOL    HW257420  14.855  13.833   7.637
85216SOL     OW57421   7.778   6.233   1.780
85216SOL    HW157422   7.807   6.163   1.838
85216SOL    HW257423   7.852   6.293   1.775
85217SOL     OW57424   3.396  14.191   6.197
85217SOL    HW157425   3.370  14.138   6.273
85217SOL    HW257426   3.486  14.218   6.217
85218SOL     OW57427   2.602   0.779   4.631
85218SOL    HW157428   2.584   0.845   4.565
85218SOL    HW257429   2.642   0.707   4.583
85219SOL     OW57430   7.616   5.482   0.078
85219SOL    HW157431   7.652   5.435   0.153
85219SOL    HW257432   7.687   5.538   0.049
85220SOL     OW57433   1.714   5.829  12.086
85220SOL    HW157434   1.645   5.788  12.137
85220SOL    HW257435   1.762   5.883  12.148
85221SOL     OW57436   3.891   7.348   7.812
85221SOL    HW157437   3.944   7.329   7.734
85221SOL    HW257438   3.804   7.369   7.778
85222SOL     OW57439   7.253   7.907  12.506
85222SOL    HW157440   7.237   7.871  12.593
85222SOL    HW257441   7.299   7.990  12.522
85223SOL     OW57442  13.523  13.791  14.017
85223SOL    HW157443  13.474  13.795  13.934
85223SOL    HW257444  13.615  13.791  13.990
85224SOL     OW57445  12.778   2.448   0.627
85224SOL    HW157446  12.751   2.414   0.541
85224SOL    HW257447  12.750   2.380   0.688
85225SOL     OW57448  13.543   2.074  11.722
85225SOL    HW157449  13.486   2.097  11.795
85225SOL    HW257450  13.614   2.138  11.727
85226SOL     OW57451  12.779   5.267   6.385
85226SOL    HW157452  12.714   5.334   6.365
85226SOL    HW257453  12.807   5.235   6.299
85227SOL     OW57454   1.257   9.728   3.995
85227SOL    HW157455   1.348   9.713   4.019
85227SOL    HW257456   1.231   9.805   4.046
85228SOL     OW57457   0.935   3.162   0.047
85228SOL    HW157458   0.884   3.081   0.051
85228SOL    HW257459   1.023   3.136   0.075
85229SOL     OW57460   3.053   5.659   4.120
85229SOL    HW157461   3.104   5.725   4.072
85229SOL    HW257462   2.980   5.637   4.061
85230SOL     OW57463  12.846   9.662  14.324
85230SOL    HW157464  12.811   9.711  14.250
85230SOL    HW257465  12.900   9.726  14.372
85231SOL     OW57466  10.850   3.709  14.167
85231SOL    HW157467  10.845   3.733  14.259
85231SOL    HW257468  10.912   3.770  14.129
85232SOL     OW57469   7.171  11.939   6.350
85232SOL    HW157470   7.258  11.904   6.330
85232SOL    HW257471   7.187  12.029   6.380
85233SOL     OW57472  11.309   3.031   9.372
85233SOL    HW157473  11.246   2.976   9.418
85233SOL    HW257474  11.377   3.049   9.437
85234SOL     OW57475   3.977   1.372  13.423
85234SOL    HW157476   3.922   1.390  13.347
85234SOL    HW257477   4.066   1.371  13.388
85235SOL     OW57478  13.031  14.833  11.891
85235SOL    HW157479  12.989   0.037  11.865
85235SOL    HW257480  13.020  14.776  11.815
85236SOL     OW57481   4.788  12.998   7.292
85236SOL    HW157482   4.741  12.930   7.341
85236SOL    HW257483   4.856  13.029   7.351
85237SOL     OW57484  13.573   1.703   0.864
85237SOL    HW157485  13.549   1.770   0.928
85237SOL    HW257486  13.666   1.717   0.848
85238SOL     OW57487   7.172  12.723  10.646
85238SOL    HW157488   7.247  12.763  10.602
85238SOL    HW257489   7.165  12.771  10.729
85239SOL     OW57490   7.838  11.460  11.654
85239SOL    HW157491   7.826  11.423  11.567
85239SOL    HW257492   7.799  11.395  11.713
85240SOL     OW57493   3.466   3.662   3.197
85240SOL    HW157494   3.542   3.685   3.251
85240SOL    HW257495   3.454   3.737   3.139
85241SOL     OW57496  10.774  13.420  12.270
85241SOL    HW157497  10.779  13.391  12.361
85241SOL    HW257498  10.848  13.480  12.260
85242SOL     OW57499  13.982   4.091   7.978
85242SOL    HW157500  14.041   4.107   8.053
85242SOL    HW257501  13.986   3.997   7.964
85243SOL     OW57502  10.302   2.067   2.926
85243SOL    HW157503  10.378   2.012   2.944
85243SOL    HW257504  10.289   2.118   3.006
85244SOL     OW57505   8.575   7.828   0.721
85244SOL    HW157506   8.598   7.920   0.733
85244SOL    HW257507   8.581   7.790   0.809
85245SOL     OW57508   4.311   3.651   5.235
85245SOL    HW157509   4.305   3.613   5.323
85245SOL    HW257510   4.221   3.680   5.215
85246SOL     OW57511   7.079   3.662  13.925
85246SOL    HW157512   7.144   3.646  13.857
85246SOL    HW257513   7.108   3.742  13.968
85247SOL     OW57514   2.588   2.802   4.707
85247SOL    HW157515   2.593   2.890   4.670
85247SOL    HW257516   2.509   2.803   4.760
85248SOL     OW57517  11.412   4.752   6.356
85248SOL    HW157518  11.460   4.794   6.427
85248SOL    HW257519  11.403   4.661   6.384
85249SOL     OW57520   4.927   2.099   0.451
85249SOL    HW157521   4.889   2.024   0.407
85249SOL    HW257522   4.868   2.171   0.432
85250SOL     OW57523  11.052   2.018   7.291
85250SOL    HW157524  11.094   2.083   7.348
85250SOL    HW257525  11.057   1.936   7.340
85251SOL     OW57526   8.990  13.590  11.598
85251SOL    HW157527   9.048  13.653  11.554
85251SOL    HW257528   9.049  13.522  11.631
85252SOL     OW57529  11.536   0.357   5.315
85252SOL    HW157530  11.601   0.289   5.334
85252SOL    HW257531  11.495   0.330   5.234
85253SOL     OW57532   8.479   0.519   2.802
85253SOL    HW157533   8.553   0.497   2.859
85253SOL    HW257534   8.422   0.443   2.806
85254SOL     OW57535  12.165   0.991   6.585
85254SOL    HW157536  12.087   1.026   6.626
85254SOL    HW257537  12.228   1.063   6.586
85255SOL     OW57538   9.159   9.890   4.073
85255SOL    HW157539   9.164   9.941   4.154
85255SOL    HW257540   9.081   9.922   4.029
85256SOL     OW57541   8.654   7.879   3.635
85256SOL    HW157542   8.632   7.814   3.702
85256SOL    HW257543   8.570   7.918   3.610
85257SOL     OW57544   3.638   5.610   2.741
85257SOL    HW157545   3.627   5.702   2.716
85257SOL    HW257546   3.723   5.586   2.705
85258SOL     OW57547   9.125  12.355   6.213
85258SOL    HW157548   9.151  12.408   6.289
85258SOL    HW257549   9.126  12.265   6.246
85259SOL     OW57550   1.331   6.827   8.138
85259SOL    HW157551   1.255   6.855   8.087
85259SOL    HW257552   1.296   6.808   8.225
85260SOL     OW57553   8.495   5.794   5.691
85260SOL    HW157554   8.567   5.734   5.712
85260SOL    HW257555   8.431   5.779   5.761
85261SOL     OW57556   5.446   7.503   2.728
85261SOL    HW157557   5.448   7.588   2.683
85261SOL    HW257558   5.523   7.456   2.695
85262SOL     OW57559  11.088   7.396  11.380
85262SOL    HW157560  11.077   7.302  11.392
85262SOL    HW257561  11.081   7.409  11.285
85263SOL     OW57562   1.443  13.609   6.529
85263SOL    HW157563   1.403  13.523   6.540
85263SOL    HW257564   1.427  13.633   6.438
85264SOL     OW57565   1.164   5.597   2.481
85264SOL    HW157566   1.095   5.596   2.547
85264SOL    HW257567   1.162   5.508   2.444
85265SOL     OW57568   1.651   9.538   1.061
85265SOL    HW157569   1.639   9.443   1.063
85265SOL    HW257570   1.659   9.559   0.968
85266SOL     OW57571   1.687   2.436   9.006
85266SOL    HW157572   1.722   2.516   8.968
85266SOL    HW257573   1.741   2.366   8.969
85267SOL     OW57574   0.043   4.470  11.240
85267SOL    HW157575   0.116   4.530  11.251
85267SOL    HW257576  14.876   4.472  11.325
85268SOL     OW57577  12.703   2.264   0.803
85268SOL    HW157578  12.638   2.195   0.789
85268SOL    HW257579  12.718   2.265   0.897
85269SOL     OW57580   0.561   7.080   0.279
85269SOL    HW157581   0.575   7.174   0.265
85269SOL    HW257582   0.486   7.058   0.224
85270SOL     OW57583  13.607  13.969   1.793
85270SOL    HW157584  13.695  13.997   1.770
85270SOL    HW257585  13.568  13.941   1.709
85271SOL     OW57586  11.284   0.900   4.695
85271SOL    HW157587  11.278   0.889   4.601
85271SOL    HW257588  11.314   0.815   4.728
85272SOL     OW57589   4.372  11.916   6.595
85272SOL    HW157590   4.380  11.843   6.533
85272SOL    HW257591   4.421  11.987   6.554
85273SOL     OW57592  12.219   9.445   4.255
85273SOL    HW157593  12.188   9.497   4.181
85273SOL    HW257594  12.312   9.468   4.264
85274SOL     OW57595   1.413   3.486  11.925
85274SOL    HW157596   1.459   3.478  11.842
85274SOL    HW257597   1.428   3.576  11.952
85275SOL     OW57598   0.583  12.302   5.256
85275SOL    HW157599   0.517  12.351   5.305
85275SOL    HW257600   0.622  12.367   5.197
85276SOL     OW57601   1.645   3.463   3.137
85276SOL    HW157602   1.634   3.544   3.087
85276SOL    HW257603   1.715   3.483   3.199
85277SOL     OW57604   3.154   9.024   9.505
85277SOL    HW157605   3.151   8.992   9.595
85277SOL    HW257606   3.197   9.110   9.512
85278SOL     OW57607   4.936   2.704  14.678
85278SOL    HW157608   4.949   2.650  14.756
85278SOL    HW257609   4.843   2.729  14.681
85279SOL     OW57610   3.537   9.337  12.908
85279SOL    HW157611   3.519   9.265  12.848
85279SOL    HW257612   3.505   9.415  12.863
85280SOL     OW57613   8.958   7.362  14.603
85280SOL    HW157614   9.013   7.440  14.615
85280SOL    HW257615   8.936   7.335  14.692
85281SOL     OW57616   4.289   8.815  14.148
85281SOL    HW157617   4.253   8.883  14.091
85281SOL    HW257618   4.292   8.855  14.234
85282SOL     OW57619   5.340   1.232   9.496
85282SOL    HW157620   5.427   1.192   9.497
85282SOL    HW257621   5.279   1.159   9.505
85283SOL     OW57622   1.843   3.753   1.383
85283SOL    HW157623   1.810   3.690   1.318
85283SOL    HW257624   1.932   3.771   1.355
85284SOL     OW57625   2.156  14.851   3.526
85284SOL    HW157626   2.176  14.790   3.454
85284SOL    HW257627   2.133   0.055   3.482
85285SOL     OW57628   4.923   6.578  13.118
85285SOL    HW157629   4.870   6.522  13.176
85285SOL    HW257630   4.926   6.662  13.164
85286SOL     OW57631   8.806   2.724  11.193
85286SOL    HW157632   8.868   2.748  11.124
85286SOL    HW257633   8.737   2.790  11.188
85287SOL     OW57634   2.536   9.251  14.638
85287SOL    HW157635   2.512   9.168  14.680
85287SOL    HW257636   2.536   9.315  14.709
85288SOL     OW57637   4.350   3.437   6.512
85288SOL    HW157638   4.346   3.531   6.526
85288SOL    HW257639   4.418   3.406   6.571
85289SOL     OW57640  12.758  13.173  12.069
85289SOL    HW157641  12.825  13.228  12.029
85289SOL    HW257642  12.806  13.118  12.131
85290SOL     OW57643   2.238   2.640   0.411
85290SOL    HW157644   2.323   2.602   0.432
85290SOL    HW257645   2.192   2.571   0.362
85291SOL     OW57646   5.200   0.328  11.657
85291SOL    HW157647   5.144   0.354  11.729
85291SOL    HW257648   5.269   0.395  11.654
85292SOL     OW57649   2.841  11.409  14.868
85292SOL    HW157650   2.899  11.367   0.053
85292SOL    HW257651   2.791  11.473   0.042
85293SOL     OW57652  12.359   5.438   3.401
85293SOL    HW157653  12.294   5.478   3.459
85293SOL    HW257654  12.326   5.349   3.387
85294SOL     OW57655   5.696  13.868  12.243
85294SOL    HW157656   5.732  13.788  12.281
85294SOL    HW257657   5.647  13.909  12.315
85295SOL     OW57658   9.055   7.591   3.772
85295SOL    HW157659   9.042   7.507   3.814
85295SOL    HW257660   8.980   7.644   3.800
85296SOL     OW57661   2.884  14.548   5.438
85296SOL    HW157662   2.856  14.620   5.382
85296SOL    HW257663   2.911  14.590   5.519
85297SOL     OW57664   0.741  14.798   0.037
85297SOL    HW157665   0.819  14.840   0.072
85297SOL    HW257666   0.742  14.821  14.821
85298SOL     OW57667   1.180  11.989   8.333
85298SOL    HW157668   1.256  11.974   8.388
85298SOL    HW257669   1.131  12.058   8.377
85299SOL     OW57670   2.468  12.503  12.769
85299SOL    HW157671   2.476  12.592  12.804
85299SOL    HW257672   2.536  12.453  12.812
85300SOL     OW57673   0.218   3.822   8.864
85300SOL    HW157674   0.245   3.860   8.947
85300SOL    HW257675   0.124   3.841   8.858
85301SOL     OW57676   0.184   9.201   9.681
85301SOL    HW157677   0.149   9.218   9.594
85301SOL    HW257678   0.275   9.175   9.665
85302SOL     OW57679   9.784   5.812   8.288
85302SOL    HW157680   9.879   5.811   8.273
85302SOL    HW257681   9.761   5.905   8.291
85303SOL     OW57682   5.276   6.342   0.450
85303SOL    HW157683   5.209   6.297   0.503
85303SOL    HW257684   5.293   6.424   0.497
85304SOL     OW57685  13.481  14.628  11.672
85304SOL    HW157686  13.438  14.708  11.704
85304SOL    HW257687  13.470  14.565  11.744
85305SOL     OW57688   9.711   2.545  11.147
85305SOL    HW157689   9.711   2.553  11.051
85305SOL    HW257690   9.619   2.549  11.171
85306SOL     OW57691  12.412  14.503   0.512
85306SOL    HW157692  12.367  14.505   0.428
85306SOL    HW257693  12.441  14.593   0.526
85307SOL     OW57694  10.065   6.328   1.193
85307SOL    HW157695  10.030   6.248   1.153
85307SOL    HW257696  10.009   6.342   1.270
85308SOL     OW57697   4.471   0.994   8.033
85308SOL    HW157698   4.565   1.008   8.044
85308SOL    HW257699   4.437   0.988   8.122
85309SOL     OW57700  11.643   5.460  10.815
85309SOL    HW157701  11.565   5.412  10.789
85309SOL    HW257702  11.622   5.552  10.797
85310SOL     OW57703  11.993   5.370   4.524
85310SOL    HW157704  12.043   5.347   4.602
85310SOL    HW257705  12.018   5.460   4.504
85311SOL     OW57706  11.312   8.204  12.945
85311SOL    HW157707  11.288   8.286  12.902
85311SOL    HW257708  11.363   8.157  12.878
85312SOL     OW57709  11.229   3.367  11.905
85312SOL    HW157710  11.136   3.381  11.890
85312SOL    HW257711  11.268   3.455  11.902
85313SOL     OW57712   2.011  14.601   2.328
85313SOL    HW157713   2.045  14.511   2.326
85313SOL    HW257714   1.947  14.600   2.400
85314SOL     OW57715   6.757   3.352   4.849
85314SOL    HW157716   6.834   3.307   4.814
85314SOL    HW257717   6.702   3.282   4.884
85315SOL     OW57718   9.483   4.970   1.004
85315SOL    HW157719   9.545   4.923   0.948
85315SOL    HW257720   9.468   4.912   1.079
85316SOL     OW57721   7.741   1.027   6.808
85316SOL    HW157722   7.657   0.983   6.823
85316SOL    HW257723   7.728   1.078   6.728
85317SOL     OW57724  11.959  12.294   4.990
85317SOL    HW157725  11.882  12.320   4.939
85317SOL    HW257726  11.928  12.295   5.081
85318SOL     OW57727   6.630   9.380  12.860
85318SOL    HW157728   6.681   9.299  12.862
85318SOL    HW257729   6.550   9.357  12.812
85319SOL     OW57730   1.944  14.815   2.857
85319SOL    HW157731   2.012  14.842   2.919
85319SOL    HW257732   1.863  14.848   2.896
85320SOL     OW57733  12.497   9.767   0.890
85320SOL    HW157734  12.408   9.801   0.900
85320SOL    HW257735  12.551   9.825   0.944
85321SOL     OW57736   4.599   1.300   8.136
85321SOL    HW157737   4.506   1.281   8.128
85321SOL    HW257738   4.637   1.221   8.176
85322SOL     OW57739   4.885  13.832   9.143
85322SOL    HW157740   4.811  13.835   9.203
85322SOL    HW257741   4.945  13.899   9.176
85323SOL     OW57742   0.519  10.083   1.612
85323SOL    HW157743   0.614  10.094   1.612
85323SOL    HW257744   0.502  10.017   1.679
85324SOL     OW57745  14.500   6.472   1.581
85324SOL    HW157746  14.539   6.427   1.506
85324SOL    HW257747  14.427   6.522   1.544
85325SOL     OW57748   1.361   3.894   4.182
85325SOL    HW157749   1.434   3.903   4.121
85325SOL    HW257750   1.385   3.819   4.237
85326SOL     OW57751   9.974   2.121   6.696
85326SOL    HW157752  10.004   2.038   6.735
85326SOL    HW257753   9.917   2.094   6.624
85327SOL     OW57754   8.624  13.118   9.766
85327SOL    HW157755   8.606  13.187   9.831
85327SOL    HW257756   8.697  13.068   9.804
85328SOL     OW57757  13.913  10.876   8.297
85328SOL    HW157758  13.916  10.780   8.295
85328SOL    HW257759  13.980  10.901   8.360
85329SOL     OW57760   3.815  11.741  10.674
85329SOL    HW157761   3.855  11.732  10.588
85329SOL    HW257762   3.723  11.720  10.660
85330SOL     OW57763   0.048   4.856   6.847
85330SOL    HW157764   0.044   4.947   6.817
85330SOL    HW257765   0.138   4.829   6.830
85331SOL     OW57766   8.051   0.255   9.877
85331SOL    HW157767   8.076   0.248   9.969
85331SOL    HW257768   7.960   0.285   9.878
85332SOL     OW57769   1.362   1.082   5.502
85332SOL    HW157770   1.335   1.075   5.593
85332SOL    HW257771   1.351   1.174   5.480
85333SOL     OW57772   7.708   6.154  14.754
85333SOL    HW157773   7.710   6.069  14.710
85333SOL    HW257774   7.792   6.159  14.800
85334SOL     OW57775   1.994  13.667   9.246
85334SOL    HW157776   2.036  13.688   9.329
85334SOL    HW257777   2.025  13.579   9.225
85335SOL     OW57778  11.812  11.747   5.897
85335SOL    HW157779  11.763  11.788   5.826
85335SOL    HW257780  11.864  11.819   5.935
85336SOL     OW57781   8.259  12.803  12.641
85336SOL    HW157782   8.222  12.720  12.671
85336SOL    HW257783   8.346  12.780  12.608
85337SOL     OW57784   8.968  13.720   0.034
85337SOL    HW157785   8.924  13.693   0.114
85337SOL    HW257786   9.055  13.747   0.063
85338SOL     OW57787   4.216   9.185  10.746
85338SOL    HW157788   4.149   9.117  10.747
85338SOL    HW257789   4.168   9.267  10.737
85339SOL     OW57790  13.979   5.580   5.682
85339SOL    HW157791  14.016   5.657   5.724
85339SOL    HW257792  14.048   5.514   5.687
85340SOL     OW57793   3.020  10.676   3.407
85340SOL    HW157794   3.095  10.721   3.444
85340SOL    HW257795   2.996  10.729   3.331
85341SOL     OW57796   7.572   4.206   5.085
85341SOL    HW157797   7.588   4.241   4.997
85341SOL    HW257798   7.611   4.119   5.084
85342SOL     OW57799  10.704   5.854   6.931
85342SOL    HW157800  10.621   5.831   6.889
85342SOL    HW257801  10.734   5.931   6.882
85343SOL     OW57802   0.349   8.411   6.961
85343SOL    HW157803   0.346   8.500   6.995
85343SOL    HW257804   0.280   8.408   6.895
85344SOL     OW57805   8.493   3.011   3.022
85344SOL    HW157806   8.553   3.036   2.951
85344SOL    HW257807   8.425   3.079   3.020
85345SOL     OW57808  11.196   9.484   3.424
85345SOL    HW157809  11.117   9.539   3.421
85345SOL    HW257810  11.212   9.460   3.333
85346SOL     OW57811  13.815  10.986   0.407
85346SOL    HW157812  13.762  10.935   0.346
85346SOL    HW257813  13.884  11.024   0.353
85347SOL     OW57814  10.882  14.675   2.824
85347SOL    HW157815  10.867  14.673   2.919
85347SOL    HW257816  10.966  14.719   2.815
85348SOL     OW57817   7.160   8.389   0.409
85348SOL    HW157818   7.084   8.432   0.448
85348SOL    HW257819   7.175   8.313   0.464
85349SOL     OW57820   0.291  13.818  11.790
85349SOL    HW157821   0.223  13.883  11.807
85349SOL    HW257822   0.358  13.836  11.856
85350SOL     OW57823   1.342  12.918  12.351
85350SOL    HW157824   1.323  12.902  12.443
85350SOL    HW257825   1.417  12.861  12.332
85351SOL     OW57826   5.522   2.352  14.274
85351SOL    HW157827   5.552   2.368  14.185
85351SOL    HW257828   5.603   2.344  14.325
85352SOL     OW57829   0.461   3.254  12.131
85352SOL    HW157830   0.411   3.208  12.064
85352SOL    HW257831   0.423   3.341  12.134
85353SOL     OW57832   1.914   0.957   7.788
85353SOL    HW157833   1.938   0.969   7.696
85353SOL    HW257834   1.968   1.020   7.835
85354SOL     OW57835  11.442  12.638  10.642
85354SOL    HW157836  11.429  12.599  10.555
85354SOL    HW257837  11.355  12.667  10.669
85355SOL     OW57838  11.977   0.713   2.066
85355SOL    HW157839  12.056   0.661   2.050
85355SOL    HW257840  12.008   0.803   2.072
85356SOL     OW57841   3.391   9.066  12.118
85356SOL    HW157842   3.457   9.094  12.054
85356SOL    HW257843   3.350   8.989  12.078
85357SOL     OW57844   3.120  10.509  14.481
85357SOL    HW157845   3.089  10.425  14.513
85357SOL    HW257846   3.215  10.500  14.476
85358SOL     OW57847  11.564   6.239   5.995
85358SOL    HW157848  11.581   6.206   5.907
85358SOL    HW257849  11.578   6.163   6.052
85359SOL     OW57850  10.753  12.146  14.662
85359SOL    HW157851  10.712  12.183  14.583
85359SOL    HW257852  10.697  12.177  14.734
85360SOL     OW57853  11.403   5.036   5.690
85360SOL    HW157854  11.415   4.959   5.746
85360SOL    HW257855  11.435   5.109   5.743
85361SOL     OW57856   2.461   7.415  13.060
85361SOL    HW157857   2.533   7.420  13.122
85361SOL    HW257858   2.382   7.413  13.114
85362SOL     OW57859   8.607   7.025  13.387
85362SOL    HW157860   8.525   6.974  13.389
85362SOL    HW257861   8.621   7.045  13.295
85363SOL     OW57862   2.888   0.660   2.651
85363SOL    HW157863   2.875   0.748   2.615
85363SOL    HW257864   2.961   0.669   2.712
85364SOL     OW57865  12.698   9.558   7.891
85364SOL    HW157866  12.689   9.629   7.827
85364SOL    HW257867  12.641   9.489   7.857
85365SOL     OW57868   9.314   3.917   3.698
85365SOL    HW157869   9.329   3.827   3.727
85365SOL    HW257870   9.252   3.910   3.626
85366SOL     OW57871  10.015   8.594   7.446
85366SOL    HW157872  10.006   8.538   7.523
85366SOL    HW257873  10.042   8.534   7.377
85367SOL     OW57874   9.139   0.061  12.407
85367SOL    HW157875   9.231   0.080  12.388
85367SOL    HW257876   9.113   0.131  12.467
85368SOL     OW57877  11.647   2.518  13.285
85368SOL    HW157878  11.642   2.454  13.356
85368SOL    HW257879  11.632   2.602  13.328
85369SOL     OW57880  10.285  13.952   5.962
85369SOL    HW157881  10.268  13.922   6.051
85369SOL    HW257882  10.200  13.985   5.931
85370SOL     OW57883   6.873   9.376   5.166
85370SOL    HW157884   6.810   9.428   5.216
85370SOL    HW257885   6.915   9.320   5.231
85371SOL     OW57886   1.909  11.762   3.577
85371SOL    HW157887   1.919  11.857   3.578
85371SOL    HW257888   1.865  11.743   3.494
85372SOL     OW57889   0.212  11.809  10.095
85372SOL    HW157890   0.254  11.741  10.148
85372SOL    HW257891   0.280  11.876  10.084
85373SOL     OW57892   0.012  12.921   1.765
85373SOL    HW157893   0.039  12.935   1.856
85373SOL    HW257894  14.865  12.829   1.761
85374SOL     OW57895   6.963   8.096   7.659
85374SOL    HW157896   6.891   8.041   7.627
85374SOL    HW257897   6.969   8.076   7.752
85375SOL     OW57898   4.268  13.083  11.335
85375SOL    HW157899   4.319  13.160  11.312
85375SOL    HW257900   4.276  13.025  11.259
85376SOL     OW57901  14.708  11.831   8.586
85376SOL    HW157902  14.787  11.875   8.556
85376SOL    HW257903  14.637  11.892   8.566
85377SOL     OW57904   9.349   0.086  14.721
85377SOL    HW157905   9.372   0.022  14.653
85377SOL    HW257906   9.276   0.135  14.684
85378SOL     OW57907  13.875   3.738   7.388
85378SOL    HW157908  13.849   3.781   7.469
85378SOL    HW257909  13.858   3.645   7.403
85379SOL     OW57910   2.303  12.735   5.599
85379SOL    HW157911   2.275  12.663   5.543
85379SOL    HW257912   2.247  12.809   5.573
85380SOL     OW57913  12.050   2.724  12.863
85380SOL    HW157914  11.965   2.748  12.900
85380SOL    HW257915  12.028   2.680  12.781
85381SOL     OW57916  11.212   6.133   9.550
85381SOL    HW157917  11.183   6.045   9.526
85381SOL    HW257918  11.229   6.129   9.644
85382SOL     OW57919   6.175   9.759   6.570
85382SOL    HW157920   6.138   9.692   6.513
85382SOL    HW257921   6.100   9.798   6.615
85383SOL     OW57922   1.891   8.679  11.976
85383SOL    HW157923   1.856   8.665  12.064
85383SOL    HW257924   1.870   8.771  11.956
85384SOL     OW57925   4.330   4.546  10.233
85384SOL    HW157926   4.361   4.596  10.309
85384SOL    HW257927   4.342   4.606  10.159
85385SOL     OW57928  12.295   9.581  13.858
85385SOL    HW157929  12.258   9.504  13.815
85385SOL    HW257930  12.336   9.631  13.787
85386SOL     OW57931   7.798   8.993  11.267
85386SOL    HW157932   7.872   9.051  11.248
85386SOL    HW257933   7.723   9.052  11.275
85387SOL     OW57934   8.776  12.718  13.275
85387SOL    HW157935   8.838  12.754  13.212
85387SOL    HW257936   8.798  12.625  13.280
85388SOL     OW57937   6.222  14.603  12.043
85388SOL    HW157938   6.262  14.522  12.076
85388SOL    HW257939   6.133  14.602  12.078
85389SOL     OW57940  10.937  12.638   3.240
85389SOL    HW157941  11.032  12.652   3.246
85389SOL    HW257942  10.901  12.725   3.226
85390SOL     OW57943   0.544   2.710   2.735
85390SOL    HW157944   0.576   2.698   2.824
85390SOL    HW257945   0.546   2.622   2.697
85391SOL     OW57946   6.932   1.981  14.741
85391SOL    HW157947   6.947   1.990  14.836
85391SOL    HW257948   6.897   2.067  14.715
85392SOL     OW57949   3.260   6.799  14.214
85392SOL    HW157950   3.164   6.791  14.217
85392SOL    HW257951   3.287   6.734  14.149
85393SOL     OW57952   7.710  13.605  10.320
85393SOL    HW157953   7.662  13.626  10.400
85393SOL    HW257954   7.764  13.682  10.304
85394SOL     OW57955   3.281   3.834   6.083
85394SOL    HW157956   3.344   3.899   6.113
85394SOL    HW257957   3.327   3.787   6.013
85395SOL     OW57958  12.199   2.637   4.872
85395SOL    HW157959  12.163   2.605   4.789
85395SOL    HW257960  12.271   2.577   4.892
85396SOL     OW57961   4.136   6.486   8.744
85396SOL    HW157962   4.042   6.468   8.746
85396SOL    HW257963   4.174   6.416   8.798
85397SOL     OW57964   0.461   9.844   9.783
85397SOL    HW157965   0.535   9.801   9.825
85397SOL    HW257966   0.419   9.894   9.853
85398SOL     OW57967   4.635   9.704   0.673
85398SOL    HW157968   4.727   9.692   0.696
85398SOL    HW257969   4.591   9.627   0.709
85399SOL     OW57970   9.929   5.221   8.548
85399SOL    HW157971  10.004   5.170   8.578
85399SOL    HW257972   9.904   5.272   8.625
85400SOL     OW57973   2.520  13.611  10.515
85400SOL    HW157974   2.434  13.641  10.485
85400SOL    HW257975   2.509  13.599  10.609
85401SOL     OW57976   7.224   6.986   7.548
85401SOL    HW157977   7.198   7.046   7.619
85401SOL    HW257978   7.314   6.964   7.569
85402SOL     OW57979   4.931   8.179  13.584
85402SOL    HW157980   5.019   8.156  13.557
85402SOL    HW257981   4.915   8.128  13.663
85403SOL     OW57982   0.270  11.054  12.504
85403SOL    HW157983   0.312  11.027  12.422
85403SOL    HW257984   0.295  10.985  12.566
85404SOL     OW57985   7.235   1.803   5.132
85404SOL    HW157986   7.177   1.851   5.072
85404SOL    HW257987   7.287   1.871   5.175
85405SOL     OW57988   1.487   7.754   7.374
85405SOL    HW157989   1.459   7.744   7.466
85405SOL    HW257990   1.509   7.666   7.346
85406SOL     OW57991   7.599   6.175   3.997
85406SOL    HW157992   7.586   6.256   3.949
85406SOL    HW257993   7.688   6.181   4.032
85407SOL     OW57994  12.591   1.579   5.006
85407SOL    HW157995  12.531   1.523   4.957
85407SOL    HW257996  12.675   1.535   5.001
85408SOL     OW57997   2.921   9.618   1.679
85408SOL    HW157998   2.880   9.700   1.707
85408SOL    HW257999   2.942   9.632   1.587
85409SOL     OW58000   7.978   9.795   4.655
85409SOL    HW158001   7.929   9.862   4.701
85409SOL    HW258002   8.034   9.756   4.723
85410SOL     OW58003   0.080  11.603  13.043
85410SOL    HW158004   0.165  11.563  13.062
85410SOL    HW258005   0.018  11.555  13.097
85411SOL     OW58006   1.711   5.060  14.306
85411SOL    HW158007   1.648   5.122  14.341
85411SOL    HW258008   1.781   5.115  14.270
85412SOL     OW58009  13.818  12.389   9.360
85412SOL    HW158010  13.862  12.400   9.444
85412SOL    HW258011  13.842  12.301   9.331
85413SOL     OW58012  13.564   2.608  13.555
85413SOL    HW158013  13.607   2.537  13.506
85413SOL    HW258014  13.491   2.634  13.499
85414SOL     OW58015   4.955   4.445   9.247
85414SOL    HW158016   4.952   4.525   9.301
85414SOL    HW258017   5.046   4.416   9.254
85415SOL     OW58018   5.372   9.528   4.261
85415SOL    HW158019   5.400   9.583   4.188
85415SOL    HW258020   5.447   9.470   4.277
85416SOL     OW58021  14.782  13.971  11.647
85416SOL    HW158022  14.689  13.993  11.636
85416SOL    HW258023  14.786  13.876  11.630
85417SOL     OW58024   8.346  14.804   6.736
85417SOL    HW158025   8.389   0.005   6.703
85417SOL    HW258026   8.376  14.796   6.826
85418SOL     OW58027   8.238   8.292   1.191
85418SOL    HW158028   8.220   8.385   1.180
85418SOL    HW258029   8.175   8.262   1.256
85419SOL     OW58030  12.744  10.391   9.797
85419SOL    HW158031  12.813  10.457   9.791
85419SOL    HW258032  12.676  10.432   9.850
85420SOL     OW58033  11.466  12.975   7.340
85420SOL    HW158034  11.562  12.976   7.335
85420SOL    HW258035  11.446  12.892   7.384
85421SOL     OW58036   0.914   3.192   1.288
85421SOL    HW158037   0.849   3.239   1.237
85421SOL    HW258038   0.932   3.113   1.237
85422SOL     OW58039   1.464   1.639   2.830
85422SOL    HW158040   1.539   1.659   2.773
85422SOL    HW258041   1.419   1.723   2.840
85423SOL     OW58042  14.516   6.017  14.225
85423SOL    HW158043  14.525   5.928  14.191
85423SOL    HW258044  14.422   6.035  14.222
85424SOL     OW58045  12.748  12.369   8.326
85424SOL    HW158046  12.660  12.399   8.302
85424SOL    HW258047  12.764  12.294   8.268
85425SOL     OW58048  11.652  14.420   2.059
85425SOL    HW158049  11.581  14.407   1.997
85425SOL    HW258050  11.619  14.385   2.142
85426SOL     OW58051   3.307  14.349   3.988
85426SOL    HW158052   3.222  14.361   3.946
85426SOL    HW258053   3.368  14.400   3.934
85427SOL     OW58054  10.991   6.261  14.508
85427SOL    HW158055  10.976   6.177  14.466
85427SOL    HW258056  10.964   6.326  14.443
85428SOL     OW58057   7.285   0.627   2.950
85428SOL    HW158058   7.310   0.586   3.032
85428SOL    HW258059   7.285   0.721   2.969
85429SOL     OW58060   9.506  10.933   7.320
85429SOL    HW158061   9.413  10.916   7.336
85429SOL    HW258062   9.508  10.985   7.240
85430SOL     OW58063   1.847  12.252  13.850
85430SOL    HW158064   1.803  12.311  13.910
85430SOL    HW258065   1.832  12.165  13.886
85431SOL     OW58066   7.427  13.233   6.412
85431SOL    HW158067   7.403  13.211   6.322
85431SOL    HW258068   7.378  13.312   6.432
85432SOL     OW58069   1.415   2.656   7.397
85432SOL    HW158070   1.320   2.665   7.392
85432SOL    HW258071   1.434   2.574   7.351
85433SOL     OW58072   9.981   8.662   2.749
85433SOL    HW158073   9.998   8.741   2.801
85433SOL    HW258074   9.977   8.694   2.659
85434SOL     OW58075   2.639   8.286   6.230
85434SOL    HW158076   2.653   8.202   6.188
85434SOL    HW258077   2.701   8.287   6.303
85435SOL     OW58078  13.840  10.151  11.573
85435SOL    HW158079  13.806  10.136  11.661
85435SOL    HW258080  13.848  10.247  11.567
85436SOL     OW58081  11.364  10.062  12.439
85436SOL    HW158082  11.430  10.069  12.371
85436SOL    HW258083  11.282  10.086  12.396
85437SOL     OW58084   4.578  12.917   2.066
85437SOL    HW158085   4.627  12.993   2.095
85437SOL    HW258086   4.594  12.913   1.971
85438SOL     OW58087  10.110  11.786  11.003
85438SOL    HW158088  10.016  11.768  11.005
85438SOL    HW258089  10.121  11.862  11.059
85439SOL     OW58090   4.821  12.276   0.808
85439SOL    HW158091   4.799  12.316   0.892
85439SOL    HW258092   4.829  12.350   0.748
85440SOL     OW58093  12.480   8.384   0.908
85440SOL    HW158094  12.469   8.468   0.862
85440SOL    HW258095  12.392   8.365   0.942
85441SOL     OW58096   4.875   3.098   3.298
85441SOL    HW158097   4.921   3.071   3.377
85441SOL    HW258098   4.819   3.171   3.326
85442SOL     OW58099   0.545   2.881  13.721
85442SOL    HW158100   0.513   2.970  13.702
85442SOL    HW258101   0.632   2.878  13.682
85443SOL     OW58102   9.448   3.990   6.803
85443SOL    HW158103   9.413   3.976   6.891
85443SOL    HW258104   9.516   4.055   6.814
85444SOL     OW58105   9.639   3.597  14.549
85444SOL    HW158106   9.594   3.627  14.470
85444SOL    HW258107   9.607   3.508  14.562
85445SOL     OW58108   3.161  10.883  14.149
85445SOL    HW158109   3.124  10.795  14.153
85445SOL    HW258110   3.221  10.888  14.223
85446SOL     OW58111   7.403   4.508   5.952
85446SOL    HW158112   7.309   4.526   5.960
85446SOL    HW258113   7.445   4.588   5.982
85447SOL     OW58114   3.962   1.224   2.217
85447SOL    HW158115   4.034   1.162   2.230
85447SOL    HW258116   3.894   1.173   2.173
85448SOL     OW58117   5.668   6.509   5.743
85448SOL    HW158118   5.761   6.526   5.726
85448SOL    HW258119   5.622   6.565   5.681
85449SOL     OW58120  11.157  13.913   7.423
85449SOL    HW158121  11.207  13.972   7.480
85449SOL    HW258122  11.130  13.968   7.349
85450SOL     OW58123  10.916   8.463   4.870
85450SOL    HW158124  11.000   8.505   4.850
85450SOL    HW258125  10.937   8.369   4.872
85451SOL     OW58126  11.519  10.301   1.932
85451SOL    HW158127  11.555  10.288   2.020
85451SOL    HW258128  11.595  10.324   1.879
85452SOL     OW58129  12.652   7.636   6.965
85452SOL    HW158130  12.663   7.544   6.943
85452SOL    HW258131  12.569   7.661   6.924
85453SOL     OW58132   8.584   0.505  13.088
85453SOL    HW158133   8.579   0.501  12.993
85453SOL    HW258134   8.500   0.471  13.118
85454SOL     OW58135  14.812  13.066  11.330
85454SOL    HW158136  14.731  13.117  11.327
85454SOL    HW258137  14.852  13.088  11.414
85455SOL     OW58138   9.307  10.943   3.078
85455SOL    HW158139   9.225  10.948   3.126
85455SOL    HW258140   9.358  10.877   3.125
85456SOL     OW58141   1.756   5.338   3.662
85456SOL    HW158142   1.843   5.355   3.624
85456SOL    HW258143   1.754   5.389   3.742
85457SOL     OW58144  10.605   7.137   4.499
85457SOL    HW158145  10.583   7.087   4.578
85457SOL    HW258146  10.522   7.168   4.465
85458SOL     OW58147  14.714  10.230   7.216
85458SOL    HW158148  14.750  10.231   7.304
85458SOL    HW258149  14.755  10.154   7.174
85459SOL     OW58150   4.335   7.389  12.104
85459SOL    HW158151   4.374   7.467  12.143
85459SOL    HW258152   4.284   7.421  12.029
85460SOL     OW58153  14.255  10.606  10.723
85460SOL    HW158154  14.166  10.629  10.748
85460SOL    HW258155  14.251  10.513  10.701
85461SOL     OW58156   4.079   9.947   2.582
85461SOL    HW158157   4.125   9.864   2.584
85461SOL    HW258158   3.997   9.932   2.629
85462SOL     OW58159   7.030  10.971  14.874
85462SOL    HW158160   6.974  10.904  14.833
85462SOL    HW258161   7.018  11.048  14.819
85463SOL     OW58162  12.075   5.121   2.533
85463SOL    HW158163  12.088   5.089   2.444
85463SOL    HW258164  12.129   5.064   2.588
85464SOL     OW58165   5.322   4.237  13.945
85464SOL    HW158166   5.312   4.196  14.031
85464SOL    HW258167   5.392   4.301  13.957
85465SOL     OW58168   7.535  12.425   8.758
85465SOL    HW158169   7.543  12.392   8.847
85465SOL    HW258170   7.552  12.519   8.766
85466SOL     OW58171   1.233  10.481  13.360
85466SOL    HW158172   1.316  10.524  13.382
85466SOL    HW258173   1.257  10.389  13.349
85467SOL     OW58174  13.283   4.586  10.560
85467SOL    HW158175  13.308   4.494  10.571
85467SOL    HW258176  13.194   4.591  10.597
85468SOL     OW58177   7.957   6.939   0.590
85468SOL    HW158178   7.902   6.926   0.668
85468SOL    HW258179   8.046   6.935   0.623
85469SOL     OW58180   5.464  13.658  12.461
85469SOL    HW158181   5.373  13.662  12.490
85469SOL    HW258182   5.492  13.749  12.457
85470SOL     OW58183  11.171   5.361  14.511
85470SOL    HW158184  11.114   5.434  14.487
85470SOL    HW258185  11.168   5.359  14.607
85471SOL     OW58186   3.969   6.195  11.472
85471SOL    HW158187   4.041   6.188  11.534
85471SOL    HW258188   3.890   6.181  11.525
85472SOL     OW58189   2.000   0.283   5.659
85472SOL    HW158190   1.977   0.193   5.685
85472SOL    HW258191   2.012   0.330   5.741
85473SOL     OW58192   0.751   6.567   5.284
85473SOL    HW158193   0.785   6.609   5.363
85473SOL    HW258194   0.727   6.478   5.312
85474SOL     OW58195   9.748   9.593   8.819
85474SOL    HW158196   9.772   9.555   8.904
85474SOL    HW258197   9.660   9.629   8.833
85475SOL     OW58198  11.614  14.831   4.810
85475SOL    HW158199  11.571  14.841   4.894
85475SOL    HW258200  11.672  14.756   4.821
85476SOL     OW58201   8.975   8.778   3.039
85476SOL    HW158202   9.011   8.809   2.956
85476SOL    HW258203   8.938   8.692   3.018
85477SOL     OW58204   6.468   3.495   1.121
85477SOL    HW158205   6.538   3.559   1.134
85477SOL    HW258206   6.412   3.504   1.198
85478SOL     OW58207   9.572  10.383   8.029
85478SOL    HW158208   9.600  10.433   7.952
85478SOL    HW258209   9.512  10.441   8.075
85479SOL     OW58210   3.505   1.476   4.694
85479SOL    HW158211   3.467   1.559   4.722
85479SOL    HW258212   3.561   1.498   4.620
85480SOL     OW58213   3.580   2.117  12.267
85480SOL    HW158214   3.507   2.175  12.287
85480SOL    HW258215   3.540   2.036  12.237
85481SOL     OW58216  13.852   8.537  11.400
85481SOL    HW158217  13.880   8.463  11.345
85481SOL    HW258218  13.898   8.524  11.483
85482SOL     OW58219   5.016   6.716   3.587
85482SOL    HW158220   4.956   6.786   3.558
85482SOL    HW258221   5.038   6.669   3.507
85483SOL     OW58222  10.069  12.560   8.900
85483SOL    HW158223  10.026  12.609   8.970
85483SOL    HW258224  10.158  12.596   8.897
85484SOL     OW58225   7.986   5.409   0.382
85484SOL    HW158226   7.946   5.478   0.330
85484SOL    HW258227   7.915   5.375   0.436
85485SOL     OW58228   5.972   9.325   2.375
85485SOL    HW158229   6.028   9.250   2.393
85485SOL    HW258230   6.018   9.399   2.416
85486SOL     OW58231   9.433  10.772   3.218
85486SOL    HW158232   9.409  10.680   3.230
85486SOL    HW258233   9.467  10.799   3.303
85487SOL     OW58234  10.803   9.941  11.415
85487SOL    HW158235  10.819  10.031  11.387
85487SOL    HW258236  10.843   9.935  11.502
85488SOL     OW58237   9.262  12.840   9.716
85488SOL    HW158238   9.266  12.806   9.806
85488SOL    HW258239   9.353  12.842   9.687
85489SOL     OW58240  13.235  12.939   1.299
85489SOL    HW158241  13.280  12.907   1.221
85489SOL    HW258242  13.305  12.975   1.355
85490SOL     OW58243   0.145  12.524   9.712
85490SOL    HW158244   0.219  12.584   9.698
85490SOL    HW258245   0.123  12.535   9.804
85491SOL     OW58246   6.237  13.198   6.772
85491SOL    HW158247   6.300  13.231   6.837
85491SOL    HW258248   6.287  13.134   6.722
85492SOL     OW58249   2.768   6.888   5.149
85492SOL    HW158250   2.754   6.870   5.242
85492SOL    HW258251   2.859   6.860   5.133
85493SOL     OW58252   0.814   4.659  12.260
85493SOL    HW158253   0.804   4.610  12.179
85493SOL    HW258254   0.890   4.715  12.245
85494SOL     OW58255   3.643   4.113   6.603
85494SOL    HW158256   3.654   4.101   6.697
85494SOL    HW258257   3.690   4.194   6.584
85495SOL     OW58258   6.906   7.671   9.373
85495SOL    HW158259   6.988   7.650   9.417
85495SOL    HW258260   6.913   7.628   9.288
85496SOL     OW58261   6.517   8.146   8.937
85496SOL    HW158262   6.580   8.211   8.906
85496SOL    HW258263   6.460   8.129   8.861
85497SOL     OW58264  10.075   2.352  10.505
85497SOL    HW158265  10.130   2.429  10.489
85497SOL    HW258266  10.136   2.278  10.500
85498SOL     OW58267   6.463   4.330   2.613
85498SOL    HW158268   6.492   4.322   2.704
85498SOL    HW258269   6.407   4.254   2.599
85499SOL     OW58270  14.313   3.766  13.342
85499SOL    HW158271  14.358   3.715  13.409
85499SOL    HW258272  14.282   3.845  13.388
85500SOL     OW58273   2.678  12.004   0.463
85500SOL    HW158274   2.601  12.061   0.471
85500SOL    HW258275   2.663  11.935   0.527
85501SOL     OW58276  14.796  13.635   0.873
85501SOL    HW158277   0.007  13.664   0.853
85501SOL    HW258278  14.782  13.559   0.816
85502SOL     OW58279  11.525   4.103  14.278
85502SOL    HW158280  11.532   4.143  14.365
85502SOL    HW258281  11.464   4.030  14.290
85503SOL     OW58282   5.235   1.549  14.663
85503SOL    HW158283   5.264   1.622  14.718
85503SOL    HW258284   5.189   1.590  14.590
85504SOL     OW58285   4.993   0.317   3.145
85504SOL    HW158286   5.078   0.283   3.171
85504SOL    HW258287   5.013   0.382   3.078
85505SOL     OW58288  10.023  10.102   5.788
85505SOL    HW158289  10.011  10.085   5.695
85505SOL    HW258290  10.001  10.195   5.799
85506SOL     OW58291   8.147   6.619   4.048
85506SOL    HW158292   8.199   6.568   3.985
85506SOL    HW258293   8.072   6.650   3.997
85507SOL     OW58294   5.599   0.416   4.830
85507SOL    HW158295   5.555   0.494   4.863
85507SOL    HW258296   5.622   0.366   4.909
85508SOL     OW58297  12.064   4.635   2.876
85508SOL    HW158298  12.106   4.555   2.907
85508SOL    HW258299  12.039   4.681   2.956
85509SOL     OW58300  11.838  13.477   6.765
85509SOL    HW158301  11.803  13.441   6.683
85509SOL    HW258302  11.774  13.544   6.791
85510SOL     OW58303   3.632  13.513  13.737
85510SOL    HW158304   3.602  13.445  13.797
85510SOL    HW258305   3.593  13.489  13.653
85511SOL     OW58306  11.778   4.966   5.722
85511SOL    HW158307  11.808   4.879   5.749
85511SOL    HW258308  11.791   4.966   5.627
85512SOL     OW58309   1.531   6.837   1.128
85512SOL    HW158310   1.603   6.847   1.066
85512SOL    HW258311   1.456   6.879   1.085
85513SOL     OW58312   9.580  10.459   3.302
85513SOL    HW158313   9.592  10.433   3.211
85513SOL    HW258314   9.553  10.379   3.347
85514SOL     OW58315  14.210  10.580   6.845
85514SOL    HW158316  14.197  10.674   6.829
85514SOL    HW258317  14.177  10.538   6.766
85515SOL     OW58318  14.793   9.903   9.439
85515SOL    HW158319  14.848   9.844   9.388
85515SOL    HW258320  14.751   9.958   9.373
85516SOL     OW58321   0.610  10.721   5.910
85516SOL    HW158322   0.651  10.641   5.876
85516SOL    HW258323   0.647  10.731   5.998
85517SOL     OW58324   1.613  12.865  13.043
85517SOL    HW158325   1.702  12.833  13.058
85517SOL    HW258326   1.567  12.843  13.124
85518SOL     OW58327   5.225  11.617   3.792
85518SOL    HW158328   5.297  11.642   3.850
85518SOL    HW258329   5.223  11.685   3.725
85519SOL     OW58330   6.232   2.340  10.850
85519SOL    HW158331   6.208   2.366  10.938
85519SOL    HW258332   6.290   2.264  10.862
85520SOL     OW58333  14.377   5.596  12.831
85520SOL    HW158334  14.354   5.642  12.912
85520SOL    HW258335  14.413   5.664  12.774
85521SOL     OW58336  13.142   6.733  10.880
85521SOL    HW158337  13.177   6.644  10.887
85521SOL    HW258338  13.217   6.789  10.898
85522SOL     OW58339   8.527   8.215  12.834
85522SOL    HW158340   8.612   8.211  12.790
85522SOL    HW258341   8.465   8.179  12.770
85523SOL     OW58342  11.718  12.389  14.617
85523SOL    HW158343  11.696  12.314  14.673
85523SOL    HW258344  11.737  12.460  14.679
85524SOL     OW58345  14.658   4.496   4.393
85524SOL    HW158346  14.592   4.530   4.333
85524SOL    HW258347  14.672   4.566   4.456
85525SOL     OW58348   2.633  12.829   2.549
85525SOL    HW158349   2.672  12.913   2.524
85525SOL    HW258350   2.548  12.852   2.585
85526SOL     OW58351   2.888   6.517   6.445
85526SOL    HW158352   2.827   6.590   6.451
85526SOL    HW258353   2.917   6.517   6.354
85527SOL     OW58354   0.706   8.031   0.671
85527SOL    HW158355   0.756   8.111   0.688
85527SOL    HW258356   0.764   7.978   0.615
85528SOL     OW58357  14.532   7.289   7.403
85528SOL    HW158358  14.617   7.331   7.402
85528SOL    HW258359  14.550   7.197   7.424
85529SOL     OW58360  13.308  10.041   7.541
85529SOL    HW158361  13.334  10.049   7.449
85529SOL    HW258362  13.390  10.028   7.588
85530SOL     OW58363   1.871   1.126   9.050
85530SOL    HW158364   1.777   1.135   9.066
85530SOL    HW258365   1.906   1.215   9.063
85531SOL     OW58366  10.876   6.914   6.331
85531SOL    HW158367  10.887   7.005   6.358
85531SOL    HW258368  10.785   6.894   6.353
85532SOL     OW58369   8.090   5.297  13.140
85532SOL    HW158370   8.065   5.370  13.084
85532SOL    HW258371   8.162   5.254  13.092
85533SOL     OW58372   5.978   7.694  13.764
85533SOL    HW158373   6.029   7.646  13.698
85533SOL    HW258374   5.950   7.773  13.718
85534SOL     OW58375   4.158   7.822   9.296
85534SOL    HW158376   4.140   7.728   9.285
85534SOL    HW258377   4.132   7.841   9.386
85535SOL     OW58378   9.928   3.082   1.301
85535SOL    HW158379   9.902   3.000   1.259
85535SOL    HW258380   9.970   3.133   1.232
85536SOL     OW58381   8.147  14.314   1.755
85536SOL    HW158382   8.113  14.394   1.716
85536SOL    HW258383   8.075  14.282   1.810
85537SOL     OW58384   4.804  13.942   4.257
85537SOL    HW158385   4.802  13.938   4.162
85537SOL    HW258386   4.883  13.893   4.281
85538SOL     OW58387   8.817   8.698  12.736
85538SOL    HW158388   8.901   8.667  12.701
85538SOL    HW258389   8.809   8.655  12.821
85539SOL     OW58390   4.730   9.705   6.314
85539SOL    HW158391   4.719   9.625   6.263
85539SOL    HW258392   4.818   9.736   6.291
85540SOL     OW58393  13.340   6.441  13.274
85540SOL    HW158394  13.285   6.435  13.196
85540SOL    HW258395  13.360   6.534  13.283
85541SOL     OW58396  11.132  11.708  10.558
85541SOL    HW158397  11.105  11.627  10.516
85541SOL    HW258398  11.176  11.680  10.638
85542SOL     OW58399   1.772  10.891  12.652
85542SOL    HW158400   1.777  10.971  12.600
85542SOL    HW258401   1.779  10.820  12.588
85543SOL     OW58402  14.433  13.661   9.949
85543SOL    HW158403  14.415  13.710   9.868
85543SOL    HW258404  14.399  13.573   9.932
85544SOL     OW58405  11.328   4.565  11.611
85544SOL    HW158406  11.347   4.501  11.542
85544SOL    HW258407  11.401   4.557  11.672
85545SOL     OW58408   2.510  14.120   7.703
85545SOL    HW158409   2.555  14.037   7.719
85545SOL    HW258410   2.511  14.131   7.608
85546SOL     OW58411   5.352   8.480  11.573
85546SOL    HW158412   5.314   8.434  11.648
85546SOL    HW258413   5.368   8.411  11.509
85547SOL     OW58414   1.903  12.236   7.523
85547SOL    HW158415   1.834  12.302   7.517
85547SOL    HW258416   1.955  12.249   7.444
85548SOL     OW58417   6.496   8.706  13.470
85548SOL    HW158418   6.505   8.798  13.496
85548SOL    HW258419   6.479   8.709  13.375
85549SOL     OW58420  14.622   1.327  10.916
85549SOL    HW158421  14.693   1.289  10.969
85549SOL    HW258422  14.629   1.282  10.832
85550SOL     OW58423   6.081   0.807   8.352
85550SOL    HW158424   6.001   0.772   8.390
85550SOL    HW258425   6.112   0.739   8.293
85551SOL     OW58426  11.073   0.228  10.429
85551SOL    HW158427  10.980   0.254  10.431
85551SOL    HW258428  11.075   0.149  10.376
85552SOL     OW58429  13.946  12.869   1.151
85552SOL    HW158430  13.908  12.956   1.157
85552SOL    HW258431  13.928  12.828   1.236
85553SOL     OW58432  10.914  14.279   4.544
85553SOL    HW158433  10.922  14.291   4.449
85553SOL    HW258434  10.931  14.366   4.581
85554SOL     OW58435   0.536   5.430  12.238
85554SOL    HW158436   0.460   5.397  12.285
85554SOL    HW258437   0.609   5.378  12.271
85555SOL     OW58438   2.869   9.541   3.248
85555SOL    HW158439   2.794   9.565   3.194
85555SOL    HW258440   2.830   9.501   3.326
85556SOL     OW58441   1.362  12.601  11.003
85556SOL    HW158442   1.441  12.629  10.958
85556SOL    HW258443   1.301  12.674  10.992
85557SOL     OW58444  12.000  11.497  14.328
85557SOL    HW158445  12.072  11.444  14.293
85557SOL    HW258446  11.921  11.450  14.302
85558SOL     OW58447  13.905   2.595   0.900
85558SOL    HW158448  13.916   2.523   0.838
85558SOL    HW258449  13.993   2.613   0.932
85559SOL     OW58450   1.330   5.398   9.535
85559SOL    HW158451   1.250   5.424   9.488
85559SOL    HW258452   1.310   5.312   9.571
85560SOL     OW58453  11.750   3.104   5.550
85560SOL    HW158454  11.786   3.036   5.493
85560SOL    HW258455  11.821   3.123   5.612
85561SOL     OW58456   9.297   0.980   1.348
85561SOL    HW158457   9.313   0.941   1.262
85561SOL    HW258458   9.283   1.073   1.330
85562SOL     OW58459   7.100  10.020   9.428
85562SOL    HW158460   7.127  10.072   9.504
85562SOL    HW258461   7.008  10.000   9.444
85563SOL     OW58462   4.511   2.535  12.586
85563SOL    HW158463   4.556   2.611  12.622
85563SOL    HW258464   4.560   2.459  12.619
85564SOL     OW58465   2.817  11.129   9.773
85564SOL    HW158466   2.791  11.097   9.859
85564SOL    HW258467   2.900  11.086   9.756
85565SOL     OW58468   8.363   3.681   2.387
85565SOL    HW158469   8.281   3.634   2.371
85565SOL    HW258470   8.386   3.720   2.303
85566SOL     OW58471  10.519   6.404  14.434
85566SOL    HW158472  10.584   6.472  14.452
85566SOL    HW258473  10.462   6.441  14.367
85567SOL     OW58474  10.494   2.071   8.604
85567SOL    HW158475  10.513   2.103   8.516
85567SOL    HW258476  10.569   2.100   8.657
85568SOL     OW58477  13.751   0.881   6.335
85568SOL    HW158478  13.669   0.858   6.291
85568SOL    HW258479  13.773   0.967   6.301
85569SOL     OW58480   4.101   3.659   1.455
85569SOL    HW158481   4.155   3.608   1.515
85569SOL    HW258482   4.024   3.683   1.507
85570SOL     OW58483  14.601  13.765  11.392
85570SOL    HW158484  14.649  13.827  11.338
85570SOL    HW258485  14.576  13.695  11.331
85571SOL     OW58486  14.545   8.298   4.458
85571SOL    HW158487  14.622   8.243   4.443
85571SOL    HW258488  14.530   8.294   4.552
85572SOL     OW58489   7.561   5.400   3.278
85572SOL    HW158490   7.565   5.397   3.183
85572SOL    HW258491   7.498   5.332   3.302
85573SOL     OW58492   0.543   6.062   6.403
85573SOL    HW158493   0.470   6.021   6.448
85573SOL    HW258494   0.512   6.150   6.383
85574SOL     OW58495   2.130  14.834   7.401
85574SOL    HW158496   2.084   0.025   7.354
85574SOL    HW258497   2.075  14.817   7.478
85575SOL     OW58498  12.908   3.862  12.146
85575SOL    HW158499  12.952   3.805  12.082
85575SOL    HW258500  12.850   3.803  12.194
85576SOL     OW58501   0.419   2.902   7.893
85576SOL    HW158502   0.341   2.857   7.862
85576SOL    HW258503   0.489   2.870   7.837
85577SOL     OW58504   8.246  14.289   6.576
85577SOL    HW158505   8.303  14.358   6.542
85577SOL    HW258506   8.166  14.296   6.524
85578SOL     OW58507   0.190  12.015  10.438
85578SOL    HW158508   0.145  11.962  10.373
85578SOL    HW258509   0.156  12.104  10.424
85579SOL     OW58510  13.706  11.037   7.015
85579SOL    HW158511  13.730  11.025   7.107
85579SOL    HW258512  13.784  11.076   6.975
85580SOL     OW58513  13.872  13.916  14.060
85580SOL    HW158514  13.936  13.862  14.106
85580SOL    HW258515  13.850  13.865  13.981
85581SOL     OW58516   8.650  12.652   7.103
85581SOL    HW158517   8.613  12.739   7.087
85581SOL    HW258518   8.696  12.661   7.187
85582SOL     OW58519   5.670   1.460  13.593
85582SOL    HW158520   5.610   1.459  13.519
85582SOL    HW258521   5.756   1.443  13.555
85583SOL     OW58522  12.441  12.751   8.299
85583SOL    HW158523  12.384  12.690   8.250
85583SOL    HW258524  12.529  12.714   8.290
85584SOL     OW58525   3.140  13.698  12.737
85584SOL    HW158526   3.137  13.792  12.718
85584SOL    HW258527   3.157  13.694  12.831
85585SOL     OW58528  14.601  11.976   3.109
85585SOL    HW158529  14.683  11.986   3.060
85585SOL    HW258530  14.628  11.935   3.191
85586SOL     OW58531   0.285   7.838   6.477
85586SOL    HW158532   0.209   7.802   6.522
85586SOL    HW258533   0.258   7.926   6.449
85587SOL     OW58534  10.909  12.444   7.393
85587SOL    HW158535  10.932  12.535   7.408
85587SOL    HW258536  10.955  12.395   7.460
85588SOL     OW58537   3.586   1.156   9.557
85588SOL    HW158538   3.491   1.159   9.544
85588SOL    HW258539   3.605   1.065   9.577
85589SOL     OW58540   7.593   6.712   7.249
85589SOL    HW158541   7.635   6.630   7.222
85589SOL    HW258542   7.614   6.720   7.342
85590SOL     OW58543   2.683   0.332  11.306
85590SOL    HW158544   2.715   0.400  11.247
85590SOL    HW258545   2.758   0.308  11.359
85591SOL     OW58546   7.505   4.441   5.447
85591SOL    HW158547   7.575   4.495   5.408
85591SOL    HW258548   7.440   4.432   5.377
85592SOL     OW58549   3.112  11.908   9.993
85592SOL    HW158550   3.072  11.956   9.921
85592SOL    HW258551   3.106  11.967  10.068
85593SOL     OW58552  11.833   5.982  10.668
85593SOL    HW158553  11.841   5.980  10.764
85593SOL    HW258554  11.845   5.891  10.641
85594SOL     OW58555  11.715  10.125  14.154
85594SOL    HW158556  11.738  10.178  14.230
85594SOL    HW258557  11.753  10.039  14.173
85595SOL     OW58558  13.431   9.983  12.058
85595SOL    HW158559  13.482   9.956  11.982
85595SOL    HW258560  13.344  10.002  12.023
85596SOL     OW58561   3.064   4.639  12.568
85596SOL    HW158562   3.019   4.664  12.649
85596SOL    HW258563   3.004   4.666  12.499
85597SOL     OW58564   1.629   5.065   6.396
85597SOL    HW158565   1.598   5.058   6.306
85597SOL    HW258566   1.605   5.154   6.422
85598SOL     OW58567  11.214  14.148  11.948
85598SOL    HW158568  11.142  14.168  11.888
85598SOL    HW258569  11.288  14.127  11.890
85599SOL     OW58570   4.903  11.199  14.682
85599SOL    HW158571   4.936  11.125  14.631
85599SOL    HW258572   4.939  11.185  14.769
85600SOL     OW58573   3.160   2.284   1.382
85600SOL    HW158574   3.178   2.229   1.458
85600SOL    HW258575   3.194   2.370   1.405
85601SOL     OW58576  14.682   2.150   9.842
85601SOL    HW158577  14.598   2.180   9.877
85601SOL    HW258578  14.676   2.167   9.748
85602SOL     OW58579  12.134  13.992   7.295
85602SOL    HW158580  12.106  14.028   7.211
85602SOL    HW258581  12.105  13.901   7.294
85603SOL     OW58582  11.521   4.576  10.233
85603SOL    HW158583  11.461   4.651  10.222
85603SOL    HW258584  11.596   4.613  10.280
85604SOL     OW58585   0.383   6.179   4.945
85604SOL    HW158586   0.447   6.186   5.016
85604SOL    HW258587   0.391   6.089   4.914
85605SOL     OW58588  13.987   0.999   1.711
85605SOL    HW158589  13.931   0.955   1.776
85605SOL    HW258590  14.076   0.976   1.738
85606SOL     OW58591  13.461   6.099  12.602
85606SOL    HW158592  13.462   6.076  12.694
85606SOL    HW258593  13.368   6.111  12.581
85607SOL     OW58594   5.690  11.957   8.774
85607SOL    HW158595   5.689  12.044   8.815
85607SOL    HW258596   5.676  11.974   8.681
85608SOL     OW58597  14.102  14.597  13.555
85608SOL    HW158598  14.060  14.518  13.590
85608SOL    HW258599  14.082  14.594  13.461
85609SOL     OW58600   1.102  11.270   6.741
85609SOL    HW158601   1.105  11.299   6.832
85609SOL    HW258602   1.054  11.339   6.696
85610SOL     OW58603   4.278  14.782   2.851
85610SOL    HW158604   4.182  14.781   2.850
85610SOL    HW258605   4.301  14.813   2.939
85611SOL     OW58606   6.662   5.360   9.335
85611SOL    HW158607   6.721   5.288   9.356
85611SOL    HW258608   6.654   5.357   9.240
85612SOL     OW58609  10.558  13.729  13.819
85612SOL    HW158610  10.535  13.638  13.805
85612SOL    HW258611  10.475  13.772  13.841
85613SOL     OW58612  11.168   0.908   9.723
85613SOL    HW158613  11.184   0.977   9.658
85613SOL    HW258614  11.211   0.940   9.802
85614SOL     OW58615   0.636  13.603   6.551
85614SOL    HW158616   0.605  13.668   6.613
85614SOL    HW258617   0.583  13.525   6.567
85615SOL     OW58618   9.585   3.558   6.049
85615SOL    HW158619   9.515   3.617   6.079
85615SOL    HW258620   9.578   3.482   6.106
85616SOL     OW58621   5.152   0.898   7.566
85616SOL    HW158622   5.171   0.842   7.641
85616SOL    HW258623   5.218   0.873   7.501
85617SOL     OW58624   9.819  11.346   3.634
85617SOL    HW158625   9.897  11.348   3.577
85617SOL    HW258626   9.855  11.340   3.722
85618SOL     OW58627  13.449   0.542   5.608
85618SOL    HW158628  13.396   0.574   5.535
85618SOL    HW258629  13.445   0.611   5.673
85619SOL     OW58630  11.698   3.826   2.699
85619SOL    HW158631  11.746   3.751   2.734
85619SOL    HW258632  11.702   3.815   2.604
85620SOL     OW58633  10.247  11.464   0.642
85620SOL    HW158634  10.157  11.434   0.628
85620SOL    HW258635  10.296  11.383   0.659
85621SOL     OW58636   4.381   7.096   9.662
85621SOL    HW158637   4.348   7.184   9.647
85621SOL    HW258638   4.304   7.040   9.659
85622SOL     OW58639  11.640   3.564  13.721
85622SOL    HW158640  11.685   3.531  13.643
85622SOL    HW258641  11.583   3.492  13.747
85623SOL     OW58642   2.752   7.523   0.245
85623SOL    HW158643   2.840   7.548   0.221
85623SOL    HW258644   2.720   7.472   0.170
85624SOL     OW58645   2.775  13.923   9.899
85624SOL    HW158646   2.727  13.872   9.833
85624SOL    HW258647   2.867  13.915   9.873
85625SOL     OW58648  10.194   9.214   6.499
85625SOL    HW158649  10.254   9.140   6.487
85625SOL    HW258650  10.240   9.271   6.560
85626SOL     OW58651  10.976   2.881   4.069
85626SOL    HW158652  11.008   2.938   3.999
85626SOL    HW258653  11.056   2.845   4.108
85627SOL     OW58654   1.162  11.001   5.896
85627SOL    HW158655   1.091  10.938   5.899
85627SOL    HW258656   1.127  11.075   5.845
85628SOL     OW58657   4.088   2.253   5.552
85628SOL    HW158658   4.026   2.275   5.482
85628SOL    HW258659   4.051   2.175   5.592
85629SOL     OW58660  10.872   3.180   5.834
85629SOL    HW158661  10.915   3.264   5.850
85629SOL    HW258662  10.827   3.160   5.916
85630SOL     OW58663   0.065  12.429   3.650
85630SOL    HW158664  14.854  12.396   3.646
85630SOL    HW258665   0.115  12.360   3.694
85631SOL     OW58666  14.083   0.400   8.627
85631SOL    HW158667  14.162   0.357   8.595
85631SOL    HW258668  14.015   0.333   8.619
85632SOL     OW58669   1.132   9.094   0.286
85632SOL    HW158670   1.196   9.030   0.316
85632SOL    HW258671   1.093   9.055   0.208
85633SOL     OW58672   6.356   3.300   9.801
85633SOL    HW158673   6.400   3.341   9.727
85633SOL    HW258674   6.313   3.373   9.847
85634SOL     OW58675   0.965  14.836   8.802
85634SOL    HW158676   0.975  14.749   8.763
85634SOL    HW258677   0.901   0.003   8.746
85635SOL     OW58678   2.549  12.211   9.054
85635SOL    HW158679   2.579  12.120   9.057
85635SOL    HW258680   2.605  12.257   9.117
85636SOL     OW58681  12.371  10.777   8.364
85636SOL    HW158682  12.326  10.845   8.312
85636SOL    HW258683  12.383  10.817   8.450
85637SOL     OW58684   0.609  13.167  13.704
85637SOL    HW158685   0.609  13.074  13.730
85637SOL    HW258686   0.544  13.172  13.634
85638SOL     OW58687  12.443   1.125   4.030
85638SOL    HW158688  12.381   1.197   4.036
85638SOL    HW258689  12.474   1.112   4.120
85639SOL     OW58690   2.177   4.130   4.308
85639SOL    HW158691   2.229   4.187   4.251
85639SOL    HW258692   2.227   4.048   4.311
85640SOL     OW58693  14.039  12.946   9.799
85640SOL    HW158694  14.129  12.923   9.778
85640SOL    HW258695  13.989  12.923   9.721
85641SOL     OW58696  12.129   0.489   5.349
85641SOL    HW158697  12.142   0.572   5.396
85641SOL    HW258698  12.035   0.486   5.332
85642SOL     OW58699   6.686   6.689   3.303
85642SOL    HW158700   6.594   6.715   3.311
85642SOL    HW258701   6.722   6.702   3.391
85643SOL     OW58702  11.741   1.895   2.536
85643SOL    HW158703  11.750   1.990   2.546
85643SOL    HW258704  11.694   1.884   2.454
85644SOL     OW58705  11.382   7.923   6.190
85644SOL    HW158706  11.327   7.923   6.268
85644SOL    HW258707  11.332   7.872   6.126
85645SOL     OW58708   3.851   5.146  12.330
85645SOL    HW158709   3.775   5.089  12.337
85645SOL    HW258710   3.834   5.218  12.391
85646SOL     OW58711   7.014   9.761   3.769
85646SOL    HW158712   7.081   9.822   3.738
85646SOL    HW258713   7.057   9.675   3.767
85647SOL     OW58714  12.046   7.404  13.408
85647SOL    HW158715  12.082   7.353  13.480
85647SOL    HW258716  12.077   7.359  13.329
85648SOL     OW58717   5.232  13.595   3.747
85648SOL    HW158718   5.166  13.639   3.801
85648SOL    HW258719   5.234  13.645   3.665
85649SOL     OW58720   4.524  11.296   9.079
85649SOL    HW158721   4.573  11.234   9.024
85649SOL    HW258722   4.590  11.359   9.107
85650SOL     OW58723  10.832   0.692   0.702
85650SOL    HW158724  10.812   0.685   0.609
85650SOL    HW258725  10.797   0.777   0.728
85651SOL     OW58726   4.004   3.820   0.948
85651SOL    HW158727   3.980   3.729   0.930
85651SOL    HW258728   3.948   3.872   0.889
85652SOL     OW58729   4.962  11.963   7.671
85652SOL    HW158730   5.030  11.971   7.738
85652SOL    HW258731   4.979  12.035   7.611
85653SOL     OW58732   3.618   6.012  11.006
85653SOL    HW158733   3.628   5.943  11.072
85653SOL    HW258734   3.571   6.082  11.051
85654SOL     OW58735  14.848   5.393   5.372
85654SOL    HW158736  14.776   5.372   5.313
85654SOL    HW258737   0.043   5.337   5.343
85655SOL     OW58738   5.720   7.579   5.168
85655SOL    HW158739   5.637   7.571   5.120
85655SOL    HW258740   5.737   7.490   5.199
85656SOL     OW58741   4.431   3.997   1.173
85656SOL    HW158742   4.517   3.958   1.155
85656SOL    HW258743   4.409   3.965   1.261
85657SOL     OW58744   4.084  13.009   6.086
85657SOL    HW158745   4.175  13.029   6.107
85657SOL    HW258746   4.043  13.095   6.073
85658SOL     OW58747  14.611  12.125   3.767
85658SOL    HW158748  14.701  12.100   3.789
85658SOL    HW258749  14.564  12.123   3.850
85659SOL     OW58750  13.227   3.384   6.476
85659SOL    HW158751  13.154   3.445   6.484
85659SOL    HW258752  13.293   3.433   6.427
85660SOL     OW58753   9.590   3.115   2.044
85660SOL    HW158754   9.651   3.187   2.029
85660SOL    HW258755   9.571   3.118   2.138
85661SOL     OW58756   4.779   9.843  11.787
85661SOL    HW158757   4.789   9.824  11.693
85661SOL    HW258758   4.869   9.855  11.818
85662SOL     OW58759  11.631   5.874  10.031
85662SOL    HW158760  11.707   5.903   9.981
85662SOL    HW258761  11.594   5.802   9.979
85663SOL     OW58762   6.100   5.924   9.839
85663SOL    HW158763   6.119   5.862   9.909
85663SOL    HW258764   6.126   5.878   9.759
85664SOL     OW58765  11.515  14.812  14.542
85664SOL    HW158766  11.593  14.847  14.500
85664SOL    HW258767  11.441  14.849  14.493
85665SOL     OW58768   0.942   9.702   7.703
85665SOL    HW158769   1.001   9.755   7.756
85665SOL    HW258770   0.998   9.634   7.666
85666SOL     OW58771   4.258   5.544   9.947
85666SOL    HW158772   4.334   5.603   9.946
85666SOL    HW258773   4.252   5.514  10.037
85667SOL     OW58774  13.849   1.280  14.531
85667SOL    HW158775  13.889   1.306  14.614
85667SOL    HW258776  13.864   1.186  14.525
85668SOL     OW58777  12.567   0.387  12.844
85668SOL    HW158778  12.572   0.443  12.922
85668SOL    HW258779  12.480   0.348  12.847
85669SOL     OW58780  14.715   8.477   8.029
85669SOL    HW158781  14.779   8.429   8.082
85669SOL    HW258782  14.757   8.485   7.943
85670SOL     OW58783   6.039   6.886   3.063
85670SOL    HW158784   6.133   6.889   3.045
85670SOL    HW258785   6.033   6.894   3.159
85671SOL     OW58786   1.758   7.033   3.073
85671SOL    HW158787   1.852   7.038   3.055
85671SOL    HW258788   1.752   6.985   3.156
85672SOL     OW58789   7.034  14.305   5.250
85672SOL    HW158790   7.121  14.286   5.215
85672SOL    HW258791   7.050  14.363   5.325
85673SOL     OW58792  12.762   0.701   5.338
85673SOL    HW158793  12.746   0.672   5.248
85673SOL    HW258794  12.817   0.632   5.376
85674SOL     OW58795   7.368   6.720   1.874
85674SOL    HW158796   7.279   6.688   1.884
85674SOL    HW258797   7.416   6.679   1.946
85675SOL     OW58798   3.379  14.005  12.788
85675SOL    HW158799   3.287  13.976  12.789
85675SOL    HW258800   3.402  14.006  12.695
85676SOL     OW58801   7.011  12.544   8.044
85676SOL    HW158802   7.034  12.535   7.952
85676SOL    HW258803   6.917  12.526   8.046
85677SOL     OW58804   8.713   3.445  14.842
85677SOL    HW158805   8.726   3.378   0.031
85677SOL    HW258806   8.801   3.462  14.809
85678SOL     OW58807   8.574  12.109   7.466
85678SOL    HW158808   8.660  12.073   7.487
85678SOL    HW258809   8.591  12.199   7.441
85679SOL     OW58810   2.148  11.725   7.186
85679SOL    HW158811   2.130  11.632   7.179
85679SOL    HW258812   2.242  11.733   7.170
85680SOL     OW58813   1.971   9.622  12.715
85680SOL    HW158814   1.983   9.708  12.675
85680SOL    HW258815   1.980   9.637  12.809
85681SOL     OW58816   0.728   3.053  13.551
85681SOL    HW158817   0.764   3.117  13.490
85681SOL    HW258818   0.711   3.102  13.630
85682SOL     OW58819  11.755   7.586  11.118
85682SOL    HW158820  11.718   7.670  11.145
85682SOL    HW258821  11.690   7.548  11.058
85683SOL     OW58822   3.956   9.885   4.943
85683SOL    HW158823   3.953   9.817   4.875
85683SOL    HW258824   3.971   9.836   5.024
85684SOL     OW58825  14.632   5.906  11.143
85684SOL    HW158826  14.646   5.982  11.086
85684SOL    HW258827  14.654   5.937  11.230
85685SOL     OW58828   3.541  10.786   0.477
85685SOL    HW158829   3.531  10.835   0.559
85685SOL    HW258830   3.614  10.727   0.493
85686SOL     OW58831  14.019   6.465   8.322
85686SOL    HW158832  13.963   6.518   8.378
85686SOL    HW258833  14.102   6.458   8.370
85687SOL     OW58834  12.637   4.311   3.248
85687SOL    HW158835  12.712   4.370   3.245
85687SOL    HW258836  12.562   4.366   3.224
85688SOL     OW58837   2.196  14.089  14.663
85688SOL    HW158838   2.118  14.101  14.717
85688SOL    HW258839   2.269  14.115  14.719
85689SOL     OW58840  14.220  10.289   8.757
85689SOL    HW158841  14.155  10.322   8.820
85689SOL    HW258842  14.290  10.354   8.758
85690SOL     OW58843  11.203   1.227  12.317
85690SOL    HW158844  11.282   1.280  12.309
85690SOL    HW258845  11.232   1.138  12.300
85691SOL     OW58846   4.825   5.883   2.064
85691SOL    HW158847   4.765   5.812   2.086
85691SOL    HW258848   4.885   5.887   2.139
85692SOL     OW58849   2.394   1.138   8.877
85692SOL    HW158850   2.438   1.177   8.801
85692SOL    HW258851   2.461   1.140   8.946
85693SOL     OW58852  12.841  12.415   5.481
85693SOL    HW158853  12.933  12.441   5.489
85693SOL    HW258854  12.818  12.381   5.568
85694SOL     OW58855   0.551   9.775   5.362
85694SOL    HW158856   0.559   9.730   5.446
85694SOL    HW258857   0.491   9.720   5.312
85695SOL     OW58858  13.406   8.170  12.350
85695SOL    HW158859  13.314   8.177  12.324
85695SOL    HW258860  13.454   8.205  12.275
85696SOL     OW58861   6.682   1.814   2.939
85696SOL    HW158862   6.609   1.756   2.917
85696SOL    HW258863   6.674   1.828   3.033
85697SOL     OW58864   8.611   9.650  11.910
85697SOL    HW158865   8.569   9.621  11.991
85697SOL    HW258866   8.688   9.700  11.939
85698SOL     OW58867  14.070   1.109   3.540
85698SOL    HW158868  13.996   1.049   3.549
85698SOL    HW258869  14.102   1.122   3.629
85699SOL     OW58870   3.015   9.637   4.978
85699SOL    HW158871   2.960   9.625   5.055
85699SOL    HW258872   3.024   9.732   4.969
85700SOL     OW58873  13.349  14.470  10.294
85700SOL    HW158874  13.361  14.410  10.221
85700SOL    HW258875  13.278  14.431  10.346
85701SOL     OW58876  12.185  12.013   5.241
85701SOL    HW158877  12.123  11.982   5.307
85701SOL    HW258878  12.175  11.953   5.167
85702SOL     OW58879  10.062   7.519  14.723
85702SOL    HW158880  10.099   7.600  14.687
85702SOL    HW258881  10.084   7.522  14.816
85703SOL     OW58882   3.569   4.952   8.007
85703SOL    HW158883   3.539   4.998   8.085
85703SOL    HW258884   3.664   4.963   8.006
85704SOL     OW58885  14.099   2.747   2.410
85704SOL    HW158886  14.029   2.688   2.439
85704SOL    HW258887  14.058   2.833   2.406
85705SOL     OW58888   6.110  12.068   8.058
85705SOL    HW158889   6.057  12.137   8.097
85705SOL    HW258890   6.088  12.070   7.965
85706SOL     OW58891   3.251  11.779   5.208
85706SOL    HW158892   3.235  11.871   5.231
85706SOL    HW258893   3.187  11.760   5.140
85707SOL     OW58894  13.169  14.531   4.161
85707SOL    HW158895  13.194  14.571   4.245
85707SOL    HW258896  13.120  14.600   4.115
85708SOL     OW58897  11.482   3.688   6.252
85708SOL    HW158898  11.485   3.605   6.204
85708SOL    HW258899  11.470   3.662   6.344
85709SOL     OW58900   6.479   7.367   2.382
85709SOL    HW158901   6.458   7.344   2.472
85709SOL    HW258902   6.563   7.411   2.387
85710SOL     OW58903   9.584  13.874   7.813
85710SOL    HW158904   9.552  13.791   7.777
85710SOL    HW258905   9.509  13.909   7.861
85711SOL     OW58906   9.506   0.631  12.605
85711SOL    HW158907   9.521   0.540  12.629
85711SOL    HW258908   9.537   0.638  12.515
85712SOL     OW58909   9.450   6.289  11.024
85712SOL    HW158910   9.540   6.318  11.008
85712SOL    HW258911   9.407   6.297  10.939
85713SOL     OW58912  13.429  11.099   1.323
85713SOL    HW158913  13.509  11.093   1.375
85713SOL    HW258914  13.398  11.008   1.317
85714SOL     OW58915  13.212  14.164   6.538
85714SOL    HW158916  13.140  14.105   6.517
85714SOL    HW258917  13.185  14.207   6.619
85715SOL     OW58918   9.014  12.777   9.678
85715SOL    HW158919   8.958  12.853   9.661
85715SOL    HW258920   9.103  12.813   9.681
85716SOL     OW58921   6.175   2.507  11.979
85716SOL    HW158922   6.190   2.412  11.980
85716SOL    HW258923   6.184   2.533  12.071
85717SOL     OW58924  11.901  11.962   4.084
85717SOL    HW158925  11.868  11.931   4.000
85717SOL    HW258926  11.989  11.925   4.090
85718SOL     OW58927   6.808   6.298   2.002
85718SOL    HW158928   6.743   6.368   1.995
85718SOL    HW258929   6.795   6.245   1.923
85719SOL     OW58930  11.125   5.372   3.786
85719SOL    HW158931  11.068   5.341   3.716
85719SOL    HW258932  11.162   5.292   3.824
85720SOL     OW58933   3.432   9.784   3.654
85720SOL    HW158934   3.408   9.691   3.652
85720SOL    HW258935   3.458   9.800   3.745
85721SOL     OW58936   6.391   5.127  11.371
85721SOL    HW158937   6.366   5.035  11.363
85721SOL    HW258938   6.423   5.150  11.284
85722SOL     OW58939  11.015  11.447   0.667
85722SOL    HW158940  11.073  11.484   0.599
85722SOL    HW258941  11.046  11.357   0.678
85723SOL     OW58942  12.172  14.183   3.991
85723SOL    HW158943  12.124  14.100   3.993
85723SOL    HW258944  12.162  14.214   3.901
85724SOL     OW58945   8.012  13.071   1.968
85724SOL    HW158946   8.023  12.992   1.915
85724SOL    HW258947   7.924  13.101   1.948
85725SOL     OW58948   5.085   6.601  10.226
85725SOL    HW158949   5.007   6.554  10.255
85725SOL    HW258950   5.057   6.650  10.149
85726SOL     OW58951  12.029  12.022  11.550
85726SOL    HW158952  12.100  12.005  11.612
85726SOL    HW258953  11.956  12.051  11.604
85727SOL     OW58954   7.053   1.555   0.750
85727SOL    HW158955   7.081   1.541   0.841
85727SOL    HW258956   7.008   1.640   0.753
85728SOL     OW58957  11.727   8.983  11.687
85728SOL    HW158958  11.684   9.031  11.616
85728SOL    HW258959  11.659   8.974  11.754
85729SOL     OW58960   2.568  14.509  12.114
85729SOL    HW158961   2.476  14.494  12.136
85729SOL    HW258962   2.582  14.602  12.130
85730SOL     OW58963   0.868   9.923  12.559
85730SOL    HW158964   0.837   9.848  12.508
85730SOL    HW258965   0.894   9.886  12.643
85731SOL     OW58966   1.520  10.252  12.397
85731SOL    HW158967   1.452  10.262  12.332
85731SOL    HW258968   1.482  10.286  12.478
85732SOL     OW58969   5.646  10.103  13.295
85732SOL    HW158970   5.627  10.031  13.234
85732SOL    HW258971   5.646  10.062  13.381
85733SOL     OW58972   2.286   0.013   8.768
85733SOL    HW158973   2.239   0.076   8.713
85733SOL    HW258974   2.278   0.048   8.857
85734SOL     OW58975  11.003  12.322  14.675
85734SOL    HW158976  10.970  12.397  14.724
85734SOL    HW258977  10.926  12.267  14.659
85735SOL     OW58978  14.241   2.854   4.661
85735SOL    HW158979  14.286   2.908   4.596
85735SOL    HW258980  14.268   2.765   4.641
85736SOL     OW58981   2.829   7.639  10.247
85736SOL    HW158982   2.821   7.631  10.152
85736SOL    HW258983   2.916   7.605  10.267
85737SOL     OW58984   1.072   4.305   0.096
85737SOL    HW158985   0.996   4.260   0.132
85737SOL    HW258986   1.148   4.256   0.129
85738SOL     OW58987   0.315   2.809   0.822
85738SOL    HW158988   0.275   2.774   0.901
85738SOL    HW258989   0.343   2.732   0.773
85739SOL     OW58990  14.362   6.009  13.502
85739SOL    HW158991  14.354   5.915  13.489
85739SOL    HW258992  14.358   6.047  13.415
85740SOL     OW58993   9.451   1.057  10.580
85740SOL    HW158994   9.447   1.120  10.653
85740SOL    HW258995   9.462   0.972  10.623
85741SOL     OW58996   0.088  12.811   9.329
85741SOL    HW158997   0.029  12.757   9.381
85741SOL    HW258998   0.106  12.759   9.250
85742SOL     OW58999   0.659  10.121   8.968
85742SOL    HW159000   0.652  10.077   9.052
85742SOL    HW259001   0.735  10.080   8.926
85743SOL     OW59002  11.321   4.343   4.023
85743SOL    HW159003  11.406   4.299   4.023
85743SOL    HW259004  11.328   4.407   4.094
85744SOL     OW59005   6.833  10.927   7.567
85744SOL    HW159006   6.820  10.904   7.659
85744SOL    HW259007   6.751  10.900   7.524
85745SOL     OW59008   1.696   2.162   2.409
85745SOL    HW159009   1.776   2.132   2.452
85745SOL    HW259010   1.718   2.160   2.316
85746SOL     OW59011  10.861   3.887   6.093
85746SOL    HW159012  10.813   3.844   6.164
85746SOL    HW259013  10.816   3.859   6.014
85747SOL     OW59014  10.909   6.818   0.029
85747SOL    HW159015  10.945   6.781  14.826
85747SOL    HW259016  10.874   6.742   0.076
85748SOL     OW59017   9.545   4.971  13.309
85748SOL    HW159018   9.623   5.015  13.344
85748SOL    HW259019   9.499   5.040  13.262
85749SOL     OW59020   4.867   3.928   8.673
85749SOL    HW159021   4.875   3.903   8.581
85749SOL    HW259022   4.906   3.855   8.721
85750SOL     OW59023   5.241   8.884  10.148
85750SOL    HW159024   5.231   8.978  10.164
85750SOL    HW259025   5.169   8.862  10.088
85751SOL     OW59026   5.900   5.285   1.487
85751SOL    HW159027   5.908   5.292   1.582
85751SOL    HW259028   5.957   5.211   1.464
85752SOL     OW59029   4.068   4.018   1.698
85752SOL    HW159030   4.141   3.961   1.673
85752SOL    HW259031   4.040   4.059   1.615
85753SOL     OW59032  11.029  12.268  10.619
85753SOL    HW159033  10.951  12.237  10.666
85753SOL    HW259034  11.004  12.354  10.586
85754SOL     OW59035   2.781   3.573  13.748
85754SOL    HW159036   2.744   3.630  13.681
85754SOL    HW259037   2.834   3.631  13.802
85755SOL     OW59038  14.009   7.391   4.859
85755SOL    HW159039  13.989   7.299   4.837
85755SOL    HW259040  13.933   7.420   4.910
85756SOL     OW59041   7.057   2.722  10.174
85756SOL    HW159042   7.116   2.796  10.159
85756SOL    HW259043   6.990   2.732  10.107
85757SOL     OW59044  14.072   9.750   4.466
85757SOL    HW159045  14.036   9.838   4.472
85757SOL    HW259046  14.061   9.725   4.375
85758SOL     OW59047   1.578   8.427   5.803
85758SOL    HW159048   1.515   8.433   5.731
85758SOL    HW259049   1.627   8.347   5.784
85759SOL     OW59050   5.073  12.494   2.229
85759SOL    HW159051   4.989  12.479   2.272
85759SOL    HW259052   5.093  12.586   2.247
85760SOL     OW59053   5.142   3.818   9.422
85760SOL    HW159054   5.073   3.857   9.369
85760SOL    HW259055   5.107   3.734   9.449
85761SOL     OW59056   6.460   8.509   5.538
85761SOL    HW159057   6.440   8.603   5.530
85761SOL    HW259058   6.545   8.506   5.582
85762SOL     OW59059   4.828  12.831  14.304
85762SOL    HW159060   4.782  12.766  14.252
85762SOL    HW259061   4.767  12.904  14.310
85763SOL     OW59062   1.788   2.090  13.972
85763SOL    HW159063   1.771   2.026  14.040
85763SOL    HW259064   1.826   2.040  13.900
85764SOL     OW59065   6.958   0.579   7.020
85764SOL    HW159066   7.051   0.559   7.014
85764SOL    HW259067   6.915   0.502   6.981
85765SOL     OW59068   3.577  11.409   4.006
85765SOL    HW159069   3.512  11.445   3.946
85765SOL    HW259070   3.657  11.404   3.953
85766SOL     OW59071  13.733  12.940  13.681
85766SOL    HW159072  13.671  12.965  13.614
85766SOL    HW259073  13.818  12.967  13.647
85767SOL     OW59074  11.872  13.681   1.823
85767SOL    HW159075  11.829  13.597   1.808
85767SOL    HW259076  11.815  13.745   1.780
85768SOL     OW59077  13.414  14.686   2.043
85768SOL    HW159078  13.454  14.603   2.016
85768SOL    HW259079  13.358  14.711   1.969
85769SOL     OW59080   2.642   8.029   8.350
85769SOL    HW159081   2.667   8.019   8.443
85769SOL    HW259082   2.719   7.998   8.302
85770SOL     OW59083   5.528   7.064  12.264
85770SOL    HW159084   5.554   7.019  12.344
85770SOL    HW259085   5.598   7.128  12.249
85771SOL     OW59086  10.659   4.054  14.311
85771SOL    HW159087  10.632   4.010  14.231
85771SOL    HW259088  10.679   3.983  14.372
85772SOL     OW59089   8.558   3.204   9.576
85772SOL    HW159090   8.580   3.297   9.578
85772SOL    HW259091   8.517   3.191   9.491
85773SOL     OW59092   7.698   1.287   4.490
85773SOL    HW159093   7.698   1.193   4.506
85773SOL    HW259094   7.728   1.325   4.573
85774SOL     OW59095  12.397   4.319   2.022
85774SOL    HW159096  12.334   4.366   2.075
85774SOL    HW259097  12.476   4.372   2.024
85775SOL     OW59098   9.774  12.723   9.627
85775SOL    HW159099   9.768  12.634   9.595
85775SOL    HW259100   9.840  12.765   9.572
85776SOL     OW59101   4.813   8.993  11.216
85776SOL    HW159102   4.745   9.040  11.168
85776SOL    HW259103   4.772   8.910  11.241
85777SOL     OW59104   7.894   1.566   6.122
85777SOL    HW159105   7.876   1.490   6.067
85777SOL    HW259106   7.920   1.529   6.207
85778SOL     OW59107   3.243   1.616   7.951
85778SOL    HW159108   3.255   1.628   7.857
85778SOL    HW259109   3.196   1.693   7.980
85779SOL     OW59110   4.882   2.785   0.949
85779SOL    HW159111   4.886   2.860   0.890
85779SOL    HW259112   4.902   2.821   1.035
85780SOL     OW59113  13.422   1.342  10.503
85780SOL    HW159114  13.344   1.357  10.450
85780SOL    HW259115  13.427   1.417  10.561
85781SOL     OW59116   6.780   1.505   7.084
85781SOL    HW159117   6.774   1.600   7.097
85781SOL    HW259118   6.819   1.473   7.165
85782SOL     OW59119   9.286   0.283  12.953
85782SOL    HW159120   9.319   0.263  12.866
85782SOL    HW259121   9.364   0.305  13.004
85783SOL     OW59122   9.622   0.016  10.972
85783SOL    HW159123   9.594   0.107  10.980
85783SOL    HW259124   9.541  14.843  10.976
85784SOL     OW59125  13.303   0.631  11.106
85784SOL    HW159126  13.282   0.724  11.116
85784SOL    HW259127  13.315   0.619  11.012
85785SOL     OW59128   8.085  11.886   1.140
85785SOL    HW159129   8.058  11.850   1.225
85785SOL    HW259130   8.014  11.865   1.080
85786SOL     OW59131   9.439  11.362   9.766
85786SOL    HW159132   9.440  11.445   9.719
85786SOL    HW259133   9.356  11.321   9.742
85787SOL     OW59134   7.570   9.353  14.851
85787SOL    HW159135   7.487   9.305  14.854
85787SOL    HW259136   7.588   9.377   0.064
85788SOL     OW59137   4.007   9.562   6.009
85788SOL    HW159138   4.050   9.483   6.042
85788SOL    HW259139   4.078   9.615   5.972
85789SOL     OW59140   0.463   5.614  14.613
85789SOL    HW159141   0.421   5.618  14.700
85789SOL    HW259142   0.389   5.606  14.552
85790SOL     OW59143  13.825   2.774  14.778
85790SOL    HW159144  13.780   2.694  14.804
85790SOL    HW259145  13.825   2.773  14.683
85791SOL     OW59146   2.714  11.355   7.024
85791SOL    HW159147   2.786  11.305   7.063
85791SOL    HW259148   2.671  11.293   6.965
85792SOL     OW59149  12.819  14.039   3.910
85792SOL    HW159150  12.835  14.037   4.004
85792SOL    HW259151  12.849  13.954   3.878
85793SOL     OW59152   7.160   1.501   1.352
85793SOL    HW159153   7.079   1.518   1.304
85793SOL    HW259154   7.202   1.588   1.359
85794SOL     OW59155  10.618  11.366  12.266
85794SOL    HW159156  10.586  11.354  12.356
85794SOL    HW259157  10.676  11.292  12.252
85795SOL     OW59158   7.390  10.160   6.373
85795SOL    HW159159   7.423  10.214   6.444
85795SOL    HW259160   7.444  10.082   6.374
85796SOL     OW59161   0.213   2.161   6.382
85796SOL    HW159162   0.147   2.230   6.377
85796SOL    HW259163   0.292   2.206   6.411
85797SOL     OW59164   7.646   3.226   3.343
85797SOL    HW159165   7.688   3.234   3.429
85797SOL    HW259166   7.585   3.153   3.353
85798SOL     OW59167   0.155   2.342   3.822
85798SOL    HW159168   0.113   2.413   3.871
85798SOL    HW259169   0.132   2.358   3.731
85799SOL     OW59170  11.801  13.344   4.224
85799SOL    HW159171  11.722  13.363   4.273
85799SOL    HW259172  11.853  13.288   4.282
85800SOL     OW59173   1.296   2.010  10.421
85800SOL    HW159174   1.300   1.941  10.355
85800SOL    HW259175   1.244   1.972  10.492
85801SOL     OW59176  14.470   6.465   2.307
85801SOL    HW159177  14.458   6.371   2.317
85801SOL    HW259178  14.432   6.486   2.222
85802SOL     OW59179   1.662   7.067   7.467
85802SOL    HW159180   1.643   7.105   7.553
85802SOL    HW259181   1.734   7.006   7.483
85803SOL     OW59182   0.582  11.261   8.954
85803SOL    HW159183   0.526  11.272   8.877
85803SOL    HW259184   0.522  11.239   9.024
85804SOL     OW59185   5.642   4.941   4.923
85804SOL    HW159186   5.576   4.875   4.942
85804SOL    HW259187   5.671   4.972   5.009
85805SOL     OW59188   2.141   0.120   7.023
85805SOL    HW159189   2.062   0.108   6.970
85805SOL    HW259190   2.123   0.199   7.074
85806SOL     OW59191   1.892   6.276  13.477
85806SOL    HW159192   1.823   6.321  13.429
85806SOL    HW259193   1.946   6.236  13.409
85807SOL     OW59194   8.628  12.561   2.645
85807SOL    HW159195   8.606  12.589   2.734
85807SOL    HW259196   8.586  12.625   2.588
85808SOL     OW59197   1.450   5.865   8.031
85808SOL    HW159198   1.449   5.915   7.950
85808SOL    HW259199   1.394   5.789   8.014
85809SOL     OW59200   9.444   8.119   2.027
85809SOL    HW159201   9.413   8.134   1.938
85809SOL    HW259202   9.364   8.107   2.078
85810SOL     OW59203  12.467  13.742   2.678
85810SOL    HW159204  12.376  13.750   2.651
85810SOL    HW259205  12.516  13.795   2.614
85811SOL     OW59206   1.614   6.064  11.366
85811SOL    HW159207   1.676   6.113  11.311
85811SOL    HW259208   1.670   6.016  11.427
85812SOL     OW59209   1.850   0.867  13.299
85812SOL    HW159210   1.862   0.839  13.208
85812SOL    HW259211   1.889   0.955  13.302
85813SOL     OW59212   1.807   0.647   0.233
85813SOL    HW159213   1.730   0.660   0.178
85813SOL    HW259214   1.818   0.730   0.279
85814SOL     OW59215  10.286   5.259   3.073
85814SOL    HW159216  10.270   5.349   3.046
85814SOL    HW259217  10.373   5.238   3.038
85815SOL     OW59218   5.308   0.416   5.744
85815SOL    HW159219   5.337   0.325   5.745
85815SOL    HW259220   5.388   0.467   5.738
85816SOL     OW59221   5.745   5.241  13.870
85816SOL    HW159222   5.705   5.276  13.791
85816SOL    HW259223   5.825   5.198  13.838
85817SOL     OW59224  10.197   7.708   0.390
85817SOL    HW159225  10.148   7.626   0.397
85817SOL    HW259226  10.279   7.684   0.347
85818SOL     OW59227   6.486  11.957   8.961
85818SOL    HW159228   6.415  11.894   8.969
85818SOL    HW259229   6.534  11.951   9.043
85819SOL     OW59230   4.653  12.979   8.813
85819SOL    HW159231   4.699  12.908   8.768
85819SOL    HW259232   4.723  13.041   8.837
85820SOL     OW59233  10.488  11.370   6.463
85820SOL    HW159234  10.492  11.367   6.367
85820SOL    HW259235  10.571  11.330   6.491
85821SOL     OW59236   2.485   8.999  10.385
85821SOL    HW159237   2.412   9.024  10.328
85821SOL    HW259238   2.562   9.038  10.345
85822SOL     OW59239   9.563   0.222   7.737
85822SOL    HW159240   9.468   0.220   7.725
85822SOL    HW259241   9.581   0.311   7.767
85823SOL     OW59242   1.916   9.847   8.788
85823SOL    HW159243   1.865   9.766   8.792
85823SOL    HW259244   1.851   9.916   8.801
85824SOL     OW59245   5.833   6.637   9.008
85824SOL    HW159246   5.815   6.674   9.095
85824SOL    HW259247   5.907   6.577   9.023
85825SOL     OW59248   9.945   6.296   2.382
85825SOL    HW159249  10.029   6.283   2.426
85825SOL    HW259250   9.916   6.383   2.410
85826SOL     OW59251   1.633  13.054   5.355
85826SOL    HW159252   1.557  13.049   5.297
85826SOL    HW259253   1.665  13.144   5.343
85827SOL     OW59254   2.870   2.696   5.887
85827SOL    HW159255   2.786   2.742   5.886
85827SOL    HW259256   2.854   2.615   5.839
85828SOL     OW59257  12.269  12.024   9.498
85828SOL    HW159258  12.284  12.119   9.497
85828SOL    HW259259  12.356  11.986   9.487
85829SOL     OW59260   9.905   3.320   4.722
85829SOL    HW159261   9.939   3.231   4.734
85829SOL    HW259262   9.984   3.374   4.708
85830SOL     OW59263   6.879   9.900   3.512
85830SOL    HW159264   6.901   9.929   3.601
85830SOL    HW259265   6.784   9.905   3.507
85831SOL     OW59266  12.385  12.123   0.365
85831SOL    HW159267  12.304  12.071   0.359
85831SOL    HW259268  12.356  12.213   0.350
85832SOL     OW59269   8.997   0.775   4.925
85832SOL    HW159270   9.055   0.723   4.869
85832SOL    HW259271   8.916   0.782   4.874
85833SOL     OW59272   3.012   2.587   5.519
85833SOL    HW159273   3.091   2.534   5.509
85833SOL    HW259274   2.942   2.523   5.535
85834SOL     OW59275   8.582   7.288   2.647
85834SOL    HW159276   8.558   7.380   2.643
85834SOL    HW259277   8.525   7.246   2.582
85835SOL     OW59278  11.997   2.068   9.875
85835SOL    HW159279  11.964   2.069   9.965
85835SOL    HW259280  11.930   2.114   9.825
85836SOL     OW59281   8.118   0.446   5.827
85836SOL    HW159282   8.046   0.384   5.820
85836SOL    HW259283   8.095   0.518   5.769
85837SOL     OW59284   6.612   4.288   0.880
85837SOL    HW159285   6.673   4.319   0.813
85837SOL    HW259286   6.571   4.367   0.914
85838SOL     OW59287  12.822   5.680  13.673
85838SOL    HW159288  12.833   5.708  13.582
85838SOL    HW259289  12.870   5.598  13.679
85839SOL     OW59290   7.024  14.109   1.166
85839SOL    HW159291   6.996  14.130   1.255
85839SOL    HW259292   7.078  14.031   1.176
85840SOL     OW59293   6.986  13.272   2.863
85840SOL    HW159294   6.997  13.354   2.815
85840SOL    HW259295   6.894  13.250   2.851
85841SOL     OW59296   3.088   7.856   7.932
85841SOL    HW159297   3.179   7.864   7.902
85841SOL    HW259298   3.061   7.769   7.903
85842SOL     OW59299   0.893   2.470  14.069
85842SOL    HW159300   0.940   2.439  14.146
85842SOL    HW259301   0.802   2.441  14.084
85843SOL     OW59302   4.378   2.986  12.458
85843SOL    HW159303   4.329   3.004  12.377
85843SOL    HW259304   4.311   2.967  12.523
85844SOL     OW59305   0.006   3.693   4.873
85844SOL    HW159306  14.834   3.699   4.954
85844SOL    HW259307  14.821   3.663   4.808
85845SOL     OW59308   2.988  10.738   8.015
85845SOL    HW159309   2.927  10.811   8.000
85845SOL    HW259310   3.042  10.767   8.089
85846SOL     OW59311   0.830   9.411  10.729
85846SOL    HW159312   0.887   9.432  10.655
85846SOL    HW259313   0.743   9.442  10.702
85847SOL     OW59314  11.167   6.471  12.464
85847SOL    HW159315  11.087   6.420  12.474
85847SOL    HW259316  11.139   6.552  12.421
85848SOL     OW59317  10.512   0.763   5.264
85848SOL    HW159318  10.471   0.730   5.185
85848SOL    HW259319  10.440   0.799   5.316
85849SOL     OW59320   3.867   4.534   6.030
85849SOL    HW159321   3.814   4.523   5.951
85849SOL    HW259322   3.952   4.496   6.007
85850SOL     OW59323   3.636  10.468  10.432
85850SOL    HW159324   3.713  10.467  10.489
85850SOL    HW259325   3.667  10.508  10.351
85851SOL     OW59326   5.448   9.411   2.515
85851SOL    HW159327   5.504   9.424   2.439
85851SOL    HW259328   5.370   9.367   2.481
85852SOL     OW59329   1.966   3.706   4.218
85852SOL    HW159330   1.999   3.688   4.130
85852SOL    HW259331   1.960   3.802   4.221
85853SOL     OW59332   0.702   5.310   9.879
85853SOL    HW159333   0.701   5.240   9.944
85853SOL    HW259334   0.642   5.281   9.810
85854SOL     OW59335   6.423   4.379  10.538
85854SOL    HW159336   6.342   4.352  10.581
85854SOL    HW259337   6.396   4.448  10.477
85855SOL     OW59338  14.340   7.641  14.334
85855SOL    HW159339  14.405   7.638  14.404
85855SOL    HW259340  14.285   7.717  14.355
85856SOL     OW59341  12.776   1.088   4.066
85856SOL    HW159342  12.744   1.032   4.137
85856SOL    HW259343  12.828   1.030   4.010
85857SOL     OW59344   4.188   3.829   7.476
85857SOL    HW159345   4.217   3.912   7.513
85857SOL    HW259346   4.109   3.807   7.525
85858SOL     OW59347  10.247  13.612   5.224
85858SOL    HW159348  10.326  13.564   5.198
85858SOL    HW259349  10.215  13.566   5.301
85859SOL     OW59350  10.361   2.432   4.958
85859SOL    HW159351  10.399   2.350   4.925
85859SOL    HW259352  10.339   2.482   4.879
85860SOL     OW59353  12.211   6.789   4.251
85860SOL    HW159354  12.229   6.733   4.176
85860SOL    HW259355  12.116   6.794   4.256
85861SOL     OW59356   8.392  13.117   3.336
85861SOL    HW159357   8.397  13.034   3.385
85861SOL    HW259358   8.313  13.109   3.283
85862SOL     OW59359   0.586  11.266   9.452
85862SOL    HW159360   0.594  11.221   9.536
85862SOL    HW259361   0.583  11.359   9.475
85863SOL     OW59362   8.851   4.334   3.802
85863SOL    HW159363   8.941   4.309   3.821
85863SOL    HW259364   8.848   4.344   3.707
85864SOL     OW59365   0.429   9.727  11.832
85864SOL    HW159366   0.439   9.664  11.903
85864SOL    HW259367   0.373   9.796  11.868
85865SOL     OW59368   1.800   6.338   2.651
85865SOL    HW159369   1.794   6.370   2.741
85865SOL    HW259370   1.713   6.303   2.633
85866SOL     OW59371  12.189  13.477   9.685
85866SOL    HW159372  12.283  13.484   9.668
85866SOL    HW259373  12.165  13.390   9.654
85867SOL     OW59374  12.362   5.867   0.533
85867SOL    HW159375  12.273   5.899   0.525
85867SOL    HW259376  12.406   5.933   0.587
85868SOL     OW59377   1.890  10.307  14.647
85868SOL    HW159378   1.811  10.259  14.672
85868SOL    HW259379   1.941  10.311  14.728
85869SOL     OW59380   4.865   1.982   8.610
85869SOL    HW159381   4.825   1.896   8.598
85869SOL    HW259382   4.888   2.010   8.521
85870SOL     OW59383   9.461   8.514  14.860
85870SOL    HW159384   9.428   8.427   0.004
85870SOL    HW259385   9.458   8.563   0.064
85871SOL     OW59386   8.837   3.881   1.532
85871SOL    HW159387   8.746   3.874   1.562
85871SOL    HW259388   8.885   3.819   1.587
85872SOL     OW59389   8.521  13.172  13.337
85872SOL    HW159390   8.617  13.166  13.334
85872SOL    HW259391   8.501  13.249  13.284
85873SOL     OW59392   8.634   8.948   1.096
85873SOL    HW159393   8.584   8.911   1.169
85873SOL    HW259394   8.578   8.936   1.020
85874SOL     OW59395   1.985  13.732   4.404
85874SOL    HW159396   2.003  13.808   4.459
85874SOL    HW259397   1.900  13.752   4.363
85875SOL     OW59398   3.655  10.889   3.173
85875SOL    HW159399   3.688  10.978   3.169
85875SOL    HW259400   3.731  10.836   3.198
85876SOL     OW59401   6.984   6.541   2.073
85876SOL    HW159402   6.932   6.610   2.033
85876SOL    HW259403   6.925   6.466   2.078
85877SOL     OW59404   2.792  10.480   5.955
85877SOL    HW159405   2.821  10.392   5.977
85877SOL    HW259406   2.741  10.469   5.874
85878SOL     OW59407   7.113   5.662   1.191
85878SOL    HW159408   7.124   5.621   1.276
85878SOL    HW259409   7.183   5.727   1.186
85879SOL     OW59410  14.663   1.790   7.680
85879SOL    HW159411  14.685   1.863   7.738
85879SOL    HW259412  14.652   1.831   7.594
85880SOL     OW59413  14.284   7.267  12.812
85880SOL    HW159414  14.282   7.239  12.721
85880SOL    HW259415  14.323   7.354  12.810
85881SOL     OW59416  11.366  11.108   3.432
85881SOL    HW159417  11.334  11.192   3.466
85881SOL    HW259418  11.419  11.072   3.502
85882SOL     OW59419  12.753  13.981   4.638
85882SOL    HW159420  12.815  13.990   4.711
85882SOL    HW259421  12.703  13.902   4.658
85883SOL     OW59422   7.861   8.178   2.490
85883SOL    HW159423   7.888   8.268   2.472
85883SOL    HW259424   7.861   8.172   2.586
85884SOL     OW59425   8.849   0.116   6.358
85884SOL    HW159426   8.934   0.131   6.316
85884SOL    HW259427   8.804   0.200   6.353
85885SOL     OW59428  12.139  13.528   8.341
85885SOL    HW159429  12.225  13.521   8.382
85885SOL    HW259430  12.081  13.477   8.398
85886SOL     OW59431   9.569   7.618   2.929
85886SOL    HW159432   9.640   7.588   2.985
85886SOL    HW259433   9.609   7.682   2.871
85887SOL     OW59434  10.995   0.662  13.825
85887SOL    HW159435  10.911   0.620  13.811
85887SOL    HW259436  11.058   0.590  13.827
85888SOL     OW59437   8.940   2.861   2.685
85888SOL    HW159438   9.017   2.843   2.632
85888SOL    HW259439   8.922   2.778   2.729
85889SOL     OW59440   1.519   8.941   1.269
85889SOL    HW159441   1.440   8.951   1.217
85889SOL    HW259442   1.551   8.853   1.247
85890SOL     OW59443  14.246   0.164   7.728
85890SOL    HW159444  14.198   0.082   7.722
85890SOL    HW259445  14.306   0.162   7.653
85891SOL     OW59446   9.331   6.332   1.311
85891SOL    HW159447   9.289   6.334   1.397
85891SOL    HW259448   9.265   6.368   1.252
85892SOL     OW59449   7.382  14.462   9.984
85892SOL    HW159450   7.372  14.367   9.983
85892SOL    HW259451   7.470  14.477  10.020
85893SOL     OW59452   2.339   7.821   1.915
85893SOL    HW159453   2.350   7.745   1.859
85893SOL    HW259454   2.245   7.826   1.932
85894SOL     OW59455  11.549   2.077   7.751
85894SOL    HW159456  11.621   2.027   7.714
85894SOL    HW259457  11.473   2.019   7.742
85895SOL     OW59458  10.350   7.447  11.542
85895SOL    HW159459  10.303   7.518  11.588
85895SOL    HW259460  10.369   7.483  11.456
85896SOL     OW59461  10.017  10.873  11.284
85896SOL    HW159462  10.073  10.924  11.225
85896SOL    HW259463  10.076  10.812  11.327
85897SOL     OW59464   6.185   6.276   2.260
85897SOL    HW159465   6.105   6.225   2.251
85897SOL    HW259466   6.249   6.213   2.293
85898SOL     OW59467  14.609   7.958   4.899
85898SOL    HW159468  14.667   7.927   4.968
85898SOL    HW259469  14.605   7.884   4.837
85899SOL     OW59470   2.642   8.276   7.790
85899SOL    HW159471   2.642   8.240   7.701
85899SOL    HW259472   2.613   8.366   7.779
85900SOL     OW59473  11.481   6.186   8.466
85900SOL    HW159474  11.518   6.224   8.386
85900SOL    HW259475  11.554   6.183   8.527
85901SOL     OW59476   9.874   2.365   7.083
85901SOL    HW159477   9.950   2.352   7.027
85901SOL    HW259478   9.895   2.319   7.164
85902SOL     OW59479  11.965   6.956   9.193
85902SOL    HW159480  12.020   7.029   9.221
85902SOL    HW259481  11.896   6.951   9.259
85903SOL     OW59482   7.818   0.443   9.792
85903SOL    HW159483   7.798   0.435   9.699
85903SOL    HW259484   7.870   0.522   9.799
85904SOL     OW59485  13.668   6.054  14.599
85904SOL    HW159486  13.669   6.118  14.528
85904SOL    HW259487  13.753   6.011  14.594
85905SOL     OW59488   8.401   7.308   7.287
85905SOL    HW159489   8.417   7.245   7.217
85905SOL    HW259490   8.376   7.254   7.362
85906SOL     OW59491  10.922   4.824  14.189
85906SOL    HW159492  10.932   4.757  14.122
85906SOL    HW259493  11.010   4.861  14.200
85907SOL     OW59494  12.233   9.461   8.394
85907SOL    HW159495  12.233   9.557   8.396
85907SOL    HW259496  12.203   9.439   8.306
85908SOL     OW59497   1.128  10.896   6.368
85908SOL    HW159498   1.110  10.960   6.299
85908SOL    HW259499   1.063  10.827   6.353
85909SOL     OW59500   6.107  14.699   5.348
85909SOL    HW159501   6.135  14.612   5.374
85909SOL    HW259502   6.012  14.698   5.359
85910SOL     OW59503  12.370   6.330   8.668
85910SOL    HW159504  12.448   6.386   8.665
85910SOL    HW259505  12.322   6.361   8.745
85911SOL     OW59506   6.735   7.236   0.111
85911SOL    HW159507   6.654   7.202   0.148
85911SOL    HW259508   6.765   7.302   0.174
85912SOL     OW59509   6.589  12.446   2.297
85912SOL    HW159510   6.495  12.428   2.300
85912SOL    HW259511   6.622  12.413   2.381
85913SOL     OW59512  13.627   2.269   6.135
85913SOL    HW159513  13.707   2.217   6.140
85913SOL    HW259514  13.562   2.209   6.097
85914SOL     OW59515   9.872  13.196   0.931
85914SOL    HW159516   9.813  13.270   0.943
85914SOL    HW259517   9.819  13.119   0.952
85915SOL     OW59518   4.180  13.686   6.787
85915SOL    HW159519   4.255  13.649   6.834
85915SOL    HW259520   4.217  13.758   6.736
85916SOL     OW59521  13.304   3.925   5.766
85916SOL    HW159522  13.215   3.889   5.776
85916SOL    HW259523  13.313   3.988   5.836
85917SOL     OW59524  11.742  14.739   3.660
85917SOL    HW159525  11.772  14.703   3.577
85917SOL    HW259526  11.696  14.666   3.702
85918SOL     OW59527   6.190   4.423   1.923
85918SOL    HW159528   6.280   4.390   1.926
85918SOL    HW259529   6.140   4.358   1.973
85919SOL     OW59530  10.560   1.908  14.761
85919SOL    HW159531  10.592   1.874  14.844
85919SOL    HW259532  10.471   1.938  14.779
85920SOL     OW59533   6.145  13.765   3.171
85920SOL    HW159534   6.180  13.680   3.197
85920SOL    HW259535   6.197  13.829   3.220
85921SOL     OW59536  12.739   1.718   3.718
85921SOL    HW159537  12.755   1.677   3.633
85921SOL    HW259538  12.762   1.650   3.781
85922SOL     OW59539   3.979   1.018   9.106
85922SOL    HW159540   4.058   1.062   9.139
85922SOL    HW259541   4.011   0.960   9.037
85923SOL     OW59542   8.721   7.277  14.022
85923SOL    HW159543   8.814   7.263  14.006
85923SOL    HW259544   8.677   7.231  13.950
85924SOL     OW59545  14.562   4.914   4.288
85924SOL    HW159546  14.592   4.925   4.197
85924SOL    HW259547  14.629   4.959   4.340
85925SOL     OW59548   0.441   9.276   2.979
85925SOL    HW159549   0.436   9.372   2.979
85925SOL    HW259550   0.501   9.256   3.051
85926SOL     OW59551   5.957  13.946   0.433
85926SOL    HW159552   6.049  13.974   0.433
85926SOL    HW259553   5.926  13.967   0.345
85927SOL     OW59554   2.241   8.506   1.534
85927SOL    HW159555   2.274   8.448   1.602
85927SOL    HW259556   2.246   8.454   1.454
85928SOL     OW59557   7.677   5.727   5.067
85928SOL    HW159558   7.771   5.737   5.083
85928SOL    HW259559   7.636   5.741   5.152
85929SOL     OW59560  12.159   5.029  10.001
85929SOL    HW159561  12.223   5.100  10.001
85929SOL    HW259562  12.176   4.981   9.920
85930SOL     OW59563   7.777   1.700   6.866
85930SOL    HW159564   7.759   1.659   6.951
85930SOL    HW259565   7.730   1.645   6.803
85931SOL     OW59566   4.790   2.923  10.195
85931SOL    HW159567   4.874   2.916  10.149
85931SOL    HW259568   4.776   2.836  10.233
85932SOL     OW59569   0.994  13.743  14.434
85932SOL    HW159570   0.986  13.806  14.505
85932SOL    HW259571   0.908  13.741  14.393
85933SOL     OW59572  13.937   2.576   6.101
85933SOL    HW159573  13.945   2.634   6.177
85933SOL    HW259574  13.959   2.631   6.026
85934SOL     OW59575   9.372  10.783   1.440
85934SOL    HW159576   9.292  10.747   1.477
85934SOL    HW259577   9.362  10.770   1.345
85935SOL     OW59578   5.869   5.466   0.783
85935SOL    HW159579   5.789   5.412   0.778
85935SOL    HW259580   5.929   5.425   0.721
85936SOL     OW59581  12.050  14.500  13.359
85936SOL    HW159582  12.123  14.455  13.400
85936SOL    HW259583  11.973  14.474  13.410
85937SOL     OW59584   0.887  10.598   4.075
85937SOL    HW159585   0.942  10.566   4.004
85937SOL    HW259586   0.901  10.536   4.146
85938SOL     OW59587   1.100  13.681   3.128
85938SOL    HW159588   1.159  13.686   3.203
85938SOL    HW259589   1.026  13.629   3.159
85939SOL     OW59590  10.197   3.550  10.001
85939SOL    HW159591  10.163   3.638  10.017
85939SOL    HW259592  10.119   3.498   9.979
85940SOL     OW59593   8.183  14.620   4.100
85940SOL    HW159594   8.242  14.636   4.026
85940SOL    HW259595   8.232  14.560   4.157
85941SOL     OW59596   3.904  11.488   2.673
85941SOL    HW159597   3.809  11.476   2.666
85941SOL    HW259598   3.917  11.583   2.663
85942SOL     OW59599   9.253  10.144   9.078
85942SOL    HW159600   9.210  10.118   9.159
85942SOL    HW259601   9.282  10.061   9.039
85943SOL     OW59602   2.021  14.561  10.301
85943SOL    HW159603   2.096  14.552  10.243
85943SOL    HW259604   1.970  14.481  10.287
85944SOL     OW59605   3.766  12.963  11.210
85944SOL    HW159606   3.796  12.969  11.119
85944SOL    HW259607   3.711  13.041  11.222
85945SOL     OW59608  13.715   2.931   3.288
85945SOL    HW159609  13.800   2.890   3.305
85945SOL    HW259610  13.728   3.023   3.313
85946SOL     OW59611   5.073  13.052  10.852
85946SOL    HW159612   5.022  13.122  10.893
85946SOL    HW259613   5.011  13.009  10.794
85947SOL     OW59614   0.793   4.880  14.520
85947SOL    HW159615   0.773   4.900  14.612
85947SOL    HW259616   0.803   4.966  14.479
85948SOL     OW59617  14.098  11.280   1.266
85948SOL    HW159618  14.135  11.363   1.236
85948SOL    HW259619  14.131  11.215   1.203
85949SOL     OW59620   6.100  12.108  13.501
85949SOL    HW159621   6.160  12.089  13.430
85949SOL    HW259622   6.157  12.128  13.576
85950SOL     OW59623   9.871  13.935  11.752
85950SOL    HW159624   9.953  13.974  11.721
85950SOL    HW259625   9.823  13.914  11.673
85951SOL     OW59626   2.625   7.585  12.678
85951SOL    HW159627   2.657   7.534  12.752
85951SOL    HW259628   2.532   7.562  12.672
85952SOL     OW59629   8.107  11.640   3.307
85952SOL    HW159630   8.072  11.643   3.218
85952SOL    HW259631   8.047  11.694   3.358
85953SOL     OW59632   0.513   2.060   5.705
85953SOL    HW159633   0.425   2.097   5.705
85953SOL    HW259634   0.570   2.134   5.722
85954SOL     OW59635  11.802  14.433   4.422
85954SOL    HW159636  11.852  14.450   4.502
85954SOL    HW259637  11.857  14.467   4.351
85955SOL     OW59638   7.857   4.384  14.135
85955SOL    HW159639   7.805   4.449  14.088
85955SOL    HW259640   7.878   4.426  14.219
85956SOL     OW59641  14.361   9.546   9.693
85956SOL    HW159642  14.295   9.614   9.683
85956SOL    HW259643  14.425   9.564   9.624
85957SOL     OW59644   4.601  10.669  11.334
85957SOL    HW159645   4.634  10.674  11.244
85957SOL    HW259646   4.527  10.729  11.337
85958SOL     OW59647  10.769   4.693   9.365
85958SOL    HW159648  10.731   4.655   9.287
85958SOL    HW259649  10.712   4.664   9.436
85959SOL     OW59650   8.017  10.854   3.658
85959SOL    HW159651   7.926  10.864   3.627
85959SOL    HW259652   8.011  10.789   3.728
85960SOL     OW59653   1.037  10.442  13.563
85960SOL    HW159654   0.970  10.429  13.497
85960SOL    HW259655   1.111  10.480  13.515
85961SOL     OW59656   9.592   4.009  13.775
85961SOL    HW159657   9.590   4.002  13.679
85961SOL    HW259658   9.686   4.014  13.796
85962SOL     OW59659   9.183  11.538   8.256
85962SOL    HW159660   9.159  11.459   8.304
85962SOL    HW259661   9.180  11.512   8.164
85963SOL     OW59662   2.834  14.118  10.542
85963SOL    HW159663   2.799  14.032  10.566
85963SOL    HW259664   2.780  14.180  10.591
85964SOL     OW59665   8.612   9.553  14.341
85964SOL    HW159666   8.687   9.495  14.356
85964SOL    HW259667   8.559   9.545  14.420
85965SOL     OW59668  11.387   3.051   8.466
85965SOL    HW159669  11.472   3.045   8.510
85965SOL    HW259670  11.371   2.963   8.432
85966SOL     OW59671   6.036  13.860   7.126
85966SOL    HW159672   6.004  13.944   7.094
85966SOL    HW259673   6.075  13.819   7.049
85967SOL     OW59674   8.803   3.682  10.740
85967SOL    HW159675   8.757   3.733  10.808
85967SOL    HW259676   8.824   3.747  10.673
85968SOL     OW59677   6.996   6.634  10.980
85968SOL    HW159678   7.086   6.606  10.969
85968SOL    HW259679   6.948   6.552  10.996
85969SOL     OW59680   1.558   6.490  10.297
85969SOL    HW159681   1.563   6.451  10.209
85969SOL    HW259682   1.482   6.448  10.337
85970SOL     OW59683   8.856   9.783  11.927
85970SOL    HW159684   8.941   9.770  11.884
85970SOL    HW259685   8.877   9.829  12.008
85971SOL     OW59686   7.039   5.899   5.707
85971SOL    HW159687   7.048   5.972   5.768
85971SOL    HW259688   6.950   5.908   5.672
85972SOL     OW59689   9.266   8.484   7.410
85972SOL    HW159690   9.203   8.523   7.470
85972SOL    HW259691   9.214   8.424   7.356
85973SOL     OW59692   5.218   8.017  11.591
85973SOL    HW159693   5.193   8.038  11.681
85973SOL    HW259694   5.141   7.975  11.553
85974SOL     OW59695   9.099   7.828  10.892
85974SOL    HW159696   9.048   7.872  10.959
85974SOL    HW259697   9.047   7.835  10.813
85975SOL     OW59698   1.026   3.406   8.850
85975SOL    HW159699   1.093   3.370   8.793
85975SOL    HW259700   1.001   3.333   8.907
85976SOL     OW59701   0.800   0.814  13.912
85976SOL    HW159702   0.838   0.873  13.846
85976SOL    HW259703   0.708   0.842  13.919
85977SOL     OW59704   5.789   5.463   8.307
85977SOL    HW159705   5.817   5.393   8.367
85977SOL    HW259706   5.802   5.427   8.220
85978SOL     OW59707   5.593  14.644   1.469
85978SOL    HW159708   5.646  14.697   1.409
85978SOL    HW259709   5.644  14.641   1.550
85979SOL     OW59710   5.026   6.485   5.971
85979SOL    HW159711   5.004   6.571   6.006
85979SOL    HW259712   5.113   6.496   5.932
85980SOL     OW59713   3.388   6.114   4.303
85980SOL    HW159714   3.337   6.130   4.382
85980SOL    HW259715   3.471   6.160   4.318
85981SOL     OW59716  10.253  10.297  13.258
85981SOL    HW159717  10.299  10.366  13.211
85981SOL    HW259718  10.163  10.327  13.263
85982SOL     OW59719  13.487   1.225   5.665
85982SOL    HW159720  13.397   1.217   5.631
85982SOL    HW259721  13.535   1.270   5.595
85983SOL     OW59722  11.688   9.685   1.034
85983SOL    HW159723  11.694   9.770   0.990
85983SOL    HW259724  11.704   9.621   0.964
85984SOL     OW59725   5.707   8.665  12.145
85984SOL    HW159726   5.624   8.639  12.185
85984SOL    HW259727   5.767   8.594  12.166
85985SOL     OW59728   1.185  12.097   5.462
85985SOL    HW159729   1.270  12.097   5.418
85985SOL    HW259730   1.168  12.189   5.481
85986SOL     OW59731   7.814  12.349   7.991
85986SOL    HW159732   7.886  12.356   7.929
85986SOL    HW259733   7.855  12.367   8.076
85987SOL     OW59734  11.979   1.278  11.221
85987SOL    HW159735  12.047   1.324  11.172
85987SOL    HW259736  12.027   1.219  11.280
85988SOL     OW59737   5.324   9.754   2.174
85988SOL    HW159738   5.365   9.809   2.241
85988SOL    HW259739   5.378   9.768   2.096
85989SOL     OW59740   6.302   5.016   6.360
85989SOL    HW159741   6.357   5.080   6.316
85989SOL    HW259742   6.315   4.935   6.311
85990SOL     OW59743  12.808  13.578   6.511
85990SOL    HW159744  12.793  13.654   6.454
85990SOL    HW259745  12.877  13.528   6.467
85991SOL     OW59746  11.416   3.089   5.890
85991SOL    HW159747  11.493   3.134   5.856
85991SOL    HW259748  11.377   3.047   5.814
85992SOL     OW59749  11.159   5.667  14.206
85992SOL    HW159750  11.240   5.668  14.258
85992SOL    HW259751  11.174   5.599  14.140
85993SOL     OW59752   6.197  10.042   3.491
85993SOL    HW159753   6.164   9.958   3.523
85993SOL    HW259754   6.281  10.021   3.451
85994SOL     OW59755   6.932  12.404  12.638
85994SOL    HW159756   6.996  12.430  12.572
85994SOL    HW259757   6.890  12.326  12.601
85995SOL     OW59758  14.305   2.656   0.783
85995SOL    HW159759  14.272   2.677   0.696
85995SOL    HW259760  14.376   2.719   0.797
85996SOL     OW59761   8.134  11.397   9.677
85996SOL    HW159762   8.180  11.453   9.615
85996SOL    HW259763   8.172  11.418   9.762
85997SOL     OW59764   0.435  12.904  12.133
85997SOL    HW159765   0.347  12.940  12.126
85997SOL    HW259766   0.466  12.895  12.043
85998SOL     OW59767   4.329   1.370  12.497
85998SOL    HW159768   4.322   1.328  12.411
85998SOL    HW259769   4.278   1.314  12.555
85999SOL     OW59770   9.108  11.050  10.443
85999SOL    HW159771   9.196  11.086  10.432
85999SOL    HW259772   9.099  10.986  10.373
86000SOL     OW59773  10.227  14.513   5.212
86000SOL    HW159774  10.313  14.479   5.187
86000SOL    HW259775  10.192  14.553   5.133
86001SOL     OW59776   1.639   2.612  12.150
86001SOL    HW159777   1.544   2.603  12.158
86001SOL    HW259778   1.660   2.689  12.203
86002SOL     OW59779   5.779   7.780  13.001
86002SOL    HW159780   5.821   7.697  12.979
86002SOL    HW259781   5.738   7.809  12.919
86003SOL     OW59782  10.552   2.350  14.292
86003SOL    HW159783  10.526   2.286  14.358
86003SOL    HW259784  10.623   2.400  14.333
86004SOL     OW59785   2.762   3.589  11.008
86004SOL    HW159786   2.722   3.605  11.094
86004SOL    HW259787   2.780   3.495  11.007
86005SOL     OW59788   8.287   9.323   5.228
86005SOL    HW159789   8.369   9.274   5.231
86005SOL    HW259790   8.219   9.257   5.216
86006SOL     OW59791   0.538  12.223   0.330
86006SOL    HW159792   0.450  12.186   0.321
86006SOL    HW259793   0.593  12.147   0.351
86007SOL     OW59794  10.899  10.136   6.584
86007SOL    HW159795  10.995  10.132   6.581
86007SOL    HW259796  10.872  10.046   6.598
86008SOL     OW59797   2.107  10.032   6.361
86008SOL    HW159798   2.151  10.001   6.440
86008SOL    HW259799   2.037  10.089   6.394
86009SOL     OW59800   9.990   4.917  10.486
86009SOL    HW159801  10.059   4.851  10.476
86009SOL    HW259802   9.935   4.905  10.408
86010SOL     OW59803   6.512   9.264   6.241
86010SOL    HW159804   6.504   9.338   6.302
86010SOL    HW259805   6.550   9.303   6.162
86011SOL     OW59806   0.345  14.811   6.415
86011SOL    HW159807   0.348  14.852   6.501
86011SOL    HW259808   0.360  14.718   6.431
86012SOL     OW59809  10.773   1.092  12.686
86012SOL    HW159810  10.843   1.028  12.674
86012SOL    HW259811  10.746   1.081  12.777
86013SOL     OW59812   1.058   6.795   8.988
86013SOL    HW159813   0.990   6.826   8.929
86013SOL    HW259814   1.088   6.713   8.948
86014SOL     OW59815   2.741  11.327   4.489
86014SOL    HW159816   2.694  11.353   4.569
86014SOL    HW259817   2.685  11.261   4.449
86015SOL     OW59818  10.966   8.621  13.860
86015SOL    HW159819  11.056   8.604  13.832
86015SOL    HW259820  10.912   8.595  13.785
86016SOL     OW59821   1.263  14.342  13.044
86016SOL    HW159822   1.175  14.349  13.006
86016SOL    HW259823   1.251  14.285  13.121
86017SOL     OW59824  11.175   2.962   6.303
86017SOL    HW159825  11.191   2.881   6.352
86017SOL    HW259826  11.196   2.940   6.212
86018SOL     OW59827   9.532   1.967  10.857
86018SOL    HW159828   9.444   1.963  10.893
86018SOL    HW259829   9.590   1.962  10.933
86019SOL     OW59830  12.365   0.783   6.593
86019SOL    HW159831  12.395   0.814   6.508
86019SOL    HW259832  12.298   0.846   6.620
86020SOL     OW59833   6.862  10.648   7.242
86020SOL    HW159834   6.840  10.568   7.193
86020SOL    HW259835   6.869  10.619   7.333
86021SOL     OW59836  11.561   2.164  11.000
86021SOL    HW159837  11.628   2.114  10.953
86021SOL    HW259838  11.579   2.147  11.092
86022SOL     OW59839  11.182  11.900   9.582
86022SOL    HW159840  11.198  11.916   9.675
86022SOL    HW259841  11.228  11.818   9.564
86023SOL     OW59842  13.165  14.843   5.833
86023SOL    HW159843  13.128  14.800   5.756
86023SOL    HW259844  13.143  14.786   5.906
86024SOL     OW59845   4.575  12.267   2.323
86024SOL    HW159846   4.632  12.339   2.294
86024SOL    HW259847   4.491  12.285   2.282
86025SOL     OW59848  12.602   7.086   3.179
86025SOL    HW159849  12.639   7.062   3.094
86025SOL    HW259850  12.655   7.038   3.243
86026SOL     OW59851  14.831   6.960   5.099
86026SOL    HW159852  14.855   7.052   5.087
86026SOL    HW259853   0.030   6.911   5.068
86027SOL     OW59854  14.162   8.639  14.791
86027SOL    HW159855  14.165   8.608   0.003
86027SOL    HW259856  14.160   8.558  14.738
86028SOL     OW59857   4.380   0.500  12.863
86028SOL    HW159858   4.330   0.464  12.936
86028SOL    HW259859   4.434   0.568  12.902
86029SOL     OW59860   5.500   1.268  12.873
86029SOL    HW159861   5.463   1.264  12.785
86029SOL    HW259862   5.428   1.296  12.929
86030SOL     OW59863   3.568  14.784   0.491
86030SOL    HW159864   3.661  14.767   0.507
86030SOL    HW259865   3.524  14.751   0.569
86031SOL     OW59866   2.315  11.356  12.281
86031SOL    HW159867   2.269  11.401  12.352
86031SOL    HW259868   2.406  11.384  12.291
86032SOL     OW59869   9.459  12.488   8.073
86032SOL    HW159870   9.457  12.412   8.014
86032SOL    HW259871   9.391  12.469   8.138
86033SOL     OW59872   4.765   5.104   4.354
86033SOL    HW159873   4.680   5.064   4.337
86033SOL    HW259874   4.804   5.116   4.267
86034SOL     OW59875   9.212   4.356   9.967
86034SOL    HW159876   9.290   4.303   9.985
86034SOL    HW259877   9.243   4.427   9.911
86035SOL     OW59878  14.863   4.963   8.965
86035SOL    HW159879   0.069   4.990   8.928
86035SOL    HW259880  14.864   4.867   8.959
86036SOL     OW59881  13.652   5.877  11.086
86036SOL    HW159882  13.727   5.889  11.029
86036SOL    HW259883  13.660   5.946  11.152
86037SOL     OW59884   6.433   7.259   5.347
86037SOL    HW159885   6.338   7.262   5.342
86037SOL    HW259886   6.462   7.343   5.310
86038SOL     OW59887   2.241  10.647   5.924
86038SOL    HW159888   2.157  10.666   5.881
86038SOL    HW259889   2.221  10.652   6.018
86039SOL     OW59890   4.602   8.898   2.633
86039SOL    HW159891   4.577   8.917   2.724
86039SOL    HW259892   4.658   8.820   2.639
86040SOL     OW59893  12.781   7.197   4.777
86040SOL    HW159894  12.738   7.274   4.814
86040SOL    HW259895  12.872   7.205   4.806
86041SOL     OW59896  12.422   1.131  12.280
86041SOL    HW159897  12.366   1.102  12.208
86041SOL    HW259898  12.429   1.054  12.337
86042SOL     OW59899   7.468   7.039  13.439
86042SOL    HW159900   7.443   7.093  13.364
86042SOL    HW259901   7.386   7.003  13.472
86043SOL     OW59902   7.135   5.519   5.369
86043SOL    HW159903   7.073   5.520   5.296
86043SOL    HW259904   7.106   5.590   5.426
86044SOL     OW59905   7.410   8.868  11.410
86044SOL    HW159906   7.402   8.896  11.319
86044SOL    HW259907   7.366   8.783  11.412
86045SOL     OW59908  14.859   4.420  12.754
86045SOL    HW159909   0.023   4.365  12.687
86045SOL    HW259910  14.834   4.359  12.823
86046SOL     OW59911   7.436   3.653   4.264
86046SOL    HW159912   7.413   3.571   4.221
86046SOL    HW259913   7.530   3.662   4.248
86047SOL     OW59914   2.689   2.001   5.068
86047SOL    HW159915   2.770   1.956   5.092
86047SOL    HW259916   2.710   2.047   4.986
86048SOL     OW59917   3.335   0.715   5.535
86048SOL    HW159918   3.296   0.802   5.539
86048SOL    HW259919   3.424   0.730   5.502
86049SOL     OW59920   6.508  11.492  11.080
86049SOL    HW159921   6.527  11.460  11.168
86049SOL    HW259922   6.589  11.476  11.031
86050SOL     OW59923   4.351   1.651   3.848
86050SOL    HW159924   4.369   1.602   3.768
86050SOL    HW259925   4.291   1.720   3.821
86051SOL     OW59926   8.979  11.119   2.913
86051SOL    HW159927   8.981  11.158   3.000
86051SOL    HW259928   8.944  11.031   2.926
86052SOL     OW59929  13.601  12.388  11.297
86052SOL    HW159930  13.510  12.389  11.269
86052SOL    HW259931  13.602  12.332  11.375
86053SOL     OW59932  12.731   0.100  13.667
86053SOL    HW159933  12.655   0.144  13.705
86053SOL    HW259934  12.723   0.115  13.573
86054SOL     OW59935   4.104   9.914   6.930
86054SOL    HW159936   4.032   9.976   6.935
86054SOL    HW259937   4.169   9.948   6.992
86055SOL     OW59938  13.956   7.403  10.658
86055SOL    HW159939  13.876   7.425  10.609
86055SOL    HW259940  14.026   7.411  10.593
86056SOL     OW59941   8.838   7.828  12.274
86056SOL    HW159942   8.868   7.906  12.322
86056SOL    HW259943   8.843   7.853  12.182
86057SOL     OW59944   6.115  13.459   7.570
86057SOL    HW159945   6.155  13.469   7.657
86057SOL    HW259946   6.111  13.364   7.557
86058SOL     OW59947   3.403   2.486   7.288
86058SOL    HW159948   3.385   2.412   7.346
86058SOL    HW259949   3.338   2.478   7.218
86059SOL     OW59950   1.180  11.576   4.019
86059SOL    HW159951   1.164  11.594   4.111
86059SOL    HW259952   1.140  11.650   3.973
86060SOL     OW59953  13.814  12.406  11.563
86060SOL    HW159954  13.897  12.358  11.565
86060SOL    HW259955  13.747  12.338  11.563
86061SOL     OW59956   2.127   0.719   4.892
86061SOL    HW159957   2.189   0.709   4.820
86061SOL    HW259958   2.147   0.806   4.928
86062SOL     OW59959   0.200   7.162   9.337
86062SOL    HW159960   0.274   7.167   9.276
86062SOL    HW259961   0.159   7.248   9.333
86063SOL     OW59962  11.017   6.977  11.208
86063SOL    HW159963  10.945   6.915  11.216
86063SOL    HW259964  11.024   6.992  11.113
86064SOL     OW59965   7.895   7.183   8.757
86064SOL    HW159966   7.832   7.169   8.687
86064SOL    HW259967   7.980   7.163   8.718
86065SOL     OW59968  10.983   3.428  10.363
86065SOL    HW159969  11.023   3.457  10.281
86065SOL    HW259970  11.024   3.482  10.431
86066SOL     OW59971   9.793  11.779   8.827
86066SOL    HW159972   9.709  11.805   8.790
86066SOL    HW259973   9.781  11.689   8.856
86067SOL     OW59974   1.403  11.182   0.582
86067SOL    HW159975   1.398  11.100   0.632
86067SOL    HW259976   1.312  11.200   0.556
86068SOL     OW59977  14.492  13.947   1.795
86068SOL    HW159978  14.468  13.996   1.717
86068SOL    HW259979  14.468  13.856   1.775
86069SOL     OW59980   9.879   8.787   2.482
86069SOL    HW159981   9.794   8.831   2.479
86069SOL    HW259982   9.931   8.832   2.415
86070SOL     OW59983   8.193   3.691  11.273
86070SOL    HW159984   8.177   3.781  11.304
86070SOL    HW259985   8.211   3.641  11.353
86071SOL     OW59986   4.704   8.520   9.247
86071SOL    HW159987   4.638   8.537   9.315
86071SOL    HW259988   4.703   8.425   9.236
86072SOL     OW59989   2.164  11.549  10.209
86072SOL    HW159990   2.106  11.553  10.285
86072SOL    HW259991   2.237  11.607  10.231
86073SOL     OW59992   4.743   2.804   6.355
86073SOL    HW159993   4.716   2.713   6.345
86073SOL    HW259994   4.767   2.812   6.447
86074SOL     OW59995  13.743   0.224   9.283
86074SOL    HW159996  13.694   0.156   9.236
86074SOL    HW259997  13.715   0.214   9.374
86075SOL     OW59998   4.847  10.950   2.031
86075SOL    HW159999   4.778  11.009   2.062
86075SOL    HW260000   4.921  11.008   2.012
86076SOL     OW60001   3.701  11.431  14.066
86076SOL    HW160002   3.753  11.387  14.134
86076SOL    HW260003   3.634  11.366  14.042
86077SOL     OW60004   3.011  12.076   4.960
86077SOL    HW160005   2.994  11.983   4.977
86077SOL    HW260006   3.096  12.093   5.002
86078SOL     OW60007  10.548   3.453   1.457
86078SOL    HW160008  10.625   3.438   1.512
86078SOL    HW260009  10.582   3.497   1.380
86079SOL     OW60010   4.087  13.447  10.692
86079SOL    HW160011   3.999  13.485  10.691
86079SOL    HW260012   4.114  13.447  10.600
86080SOL     OW60013   7.380   8.902   7.654
86080SOL    HW160014   7.428   8.820   7.650
86080SOL    HW260015   7.447   8.970   7.642
86081SOL     OW60016   1.792   6.126  14.622
86081SOL    HW160017   1.827   6.042  14.591
86081SOL    HW260018   1.825   6.133  14.712
86082SOL     OW60019  12.516  12.002   2.448
86082SOL    HW160020  12.434  11.953   2.442
86082SOL    HW260021  12.494  12.079   2.500
86083SOL     OW60022   9.979   3.178   5.173
86083SOL    HW160023  10.033   3.256   5.157
86083SOL    HW260024   9.889   3.208   5.158
86084SOL     OW60025   0.108   7.465  13.718
86084SOL    HW160026   0.077   7.383  13.681
86084SOL    HW260027   0.200   7.450  13.737
86085SOL     OW60028   1.111   4.955   3.163
86085SOL    HW160029   1.078   4.937   3.076
86085SOL    HW260030   1.061   4.897   3.220
86086SOL     OW60031   4.163  11.105   0.131
86086SOL    HW160032   4.128  11.097   0.220
86086SOL    HW260033   4.203  11.192   0.129
86087SOL     OW60034   6.578   3.846   6.627
86087SOL    HW160035   6.529   3.799   6.559
86087SOL    HW260036   6.619   3.919   6.582
86088SOL     OW60037  14.218   3.493   9.836
86088SOL    HW160038  14.194   3.402   9.817
86088SOL    HW260039  14.157   3.544   9.782
86089SOL     OW60040  13.307   1.443  10.970
86089SOL    HW160041  13.334   1.378  10.906
86089SOL    HW260042  13.242   1.496  10.924
86090SOL     OW60043   5.196  11.865  13.799
86090SOL    HW160044   5.214  11.929  13.868
86090SOL    HW260045   5.233  11.904  13.720
86091SOL     OW60046   2.991  10.649  13.784
86091SOL    HW160047   2.924  10.716  13.794
86091SOL    HW260048   3.005  10.642  13.689
86092SOL     OW60049   7.211   1.140   0.757
86092SOL    HW160050   7.215   1.165   0.849
86092SOL    HW260051   7.302   1.141   0.728
86093SOL     OW60052   4.404   2.291   0.363
86093SOL    HW160053   4.435   2.201   0.374
86093SOL    HW260054   4.473   2.334   0.311
86094SOL     OW60055   6.936   4.705   0.242
86094SOL    HW160056   6.879   4.782   0.243
86094SOL    HW260057   6.876   4.631   0.254
86095SOL     OW60058  14.586   7.728  13.744
86095SOL    HW160059  14.673   7.703  13.775
86095SOL    HW260060  14.542   7.762  13.822
86096SOL     OW60061   4.574   9.943  13.061
86096SOL    HW160062   4.527   9.942  13.145
86096SOL    HW260063   4.506   9.926  12.996
86097SOL     OW60064   8.738  14.696   7.278
86097SOL    HW160065   8.773  14.645   7.205
86097SOL    HW260066   8.692  14.769   7.236
86098SOL     OW60067   0.436   8.019   3.815
86098SOL    HW160068   0.517   8.066   3.796
86098SOL    HW260069   0.387   8.021   3.733
86099SOL     OW60070  14.392   7.363  10.163
86099SOL    HW160071  14.302   7.350  10.134
86099SOL    HW260072  14.412   7.286  10.216
86100SOL     OW60073   1.612  12.944   7.599
86100SOL    HW160074   1.667  13.008   7.554
86100SOL    HW260075   1.563  12.901   7.529
86101SOL     OW60076   7.900  13.110   4.368
86101SOL    HW160077   7.967  13.145   4.426
86101SOL    HW260078   7.835  13.070   4.426
86102SOL     OW60079  12.053   1.358  11.934
86102SOL    HW160080  11.974   1.305  11.931
86102SOL    HW260081  12.025   1.443  11.968
86103SOL     OW60082   1.180  13.669  11.139
86103SOL    HW160083   1.206  13.720  11.063
86103SOL    HW260084   1.086  13.683  11.147
86104SOL     OW60085  13.746  12.184   0.922
86104SOL    HW160086  13.774  12.092   0.923
86104SOL    HW260087  13.800  12.226   0.989
86105SOL     OW60088  11.057   0.463  10.564
86105SOL    HW160089  11.118   0.443  10.634
86105SOL    HW260090  11.071   0.393  10.500
86106SOL     OW60091   2.828   2.408  13.607
86106SOL    HW160092   2.878   2.328  13.626
86106SOL    HW260093   2.754   2.405  13.667
86107SOL     OW60094  13.412   7.520   2.092
86107SOL    HW160095  13.494   7.480   2.122
86107SOL    HW260096  13.359   7.529   2.171
86108SOL     OW60097  11.237   8.134   5.317
86108SOL    HW160098  11.331   8.114   5.318
86108SOL    HW260099  11.225   8.184   5.236
86109SOL     OW60100   4.436  12.003  14.117
86109SOL    HW160101   4.360  12.059  14.131
86109SOL    HW260102   4.491  12.052  14.056
86110SOL     OW60103  10.284   1.768   0.456
86110SOL    HW160104  10.199   1.725   0.467
86110SOL    HW260105  10.318   1.734   0.374
86111SOL     OW60106  10.703  12.115   6.526
86111SOL    HW160107  10.660  12.162   6.598
86111SOL    HW260108  10.771  12.175   6.495
86112SOL     OW60109   5.939   1.179   6.790
86112SOL    HW160110   5.957   1.182   6.696
86112SOL    HW260111   5.889   1.259   6.806
86113SOL     OW60112  11.411   8.169   8.171
86113SOL    HW160113  11.399   8.230   8.244
86113SOL    HW260114  11.437   8.225   8.098
86114SOL     OW60115   8.566   6.273   4.621
86114SOL    HW160116   8.648   6.289   4.575
86114SOL    HW260117   8.522   6.358   4.621
86115SOL     OW60118   5.705   5.089  11.395
86115SOL    HW160119   5.756   5.080  11.475
86115SOL    HW260120   5.621   5.047  11.415
86116SOL     OW60121  14.607  14.415  13.235
86116SOL    HW160122  14.604  14.479  13.164
86116SOL    HW260123  14.657  14.458  13.305
86117SOL     OW60124  14.564  10.868   1.882
86117SOL    HW160125  14.640  10.890   1.828
86117SOL    HW260126  14.511  10.811   1.826
86118SOL     OW60127   6.254   0.894   3.669
86118SOL    HW160128   6.221   0.935   3.749
86118SOL    HW260129   6.292   0.811   3.699
86119SOL     OW60130   8.918  13.808  13.986
86119SOL    HW160131   8.959  13.782  13.904
86119SOL    HW260132   8.862  13.882  13.964
86120SOL     OW60133   4.601   0.015  13.347
86120SOL    HW160134   4.621  14.875  13.439
86120SOL    HW260135   4.546  14.820  13.320
86121SOL     OW60136   1.685   0.031  11.022
86121SOL    HW160137   1.730  14.851  11.083
86121SOL    HW260138   1.659   0.106  11.076
86122SOL     OW60139   1.612  10.058  13.646
86122SOL    HW160140   1.533  10.031  13.693
86122SOL    HW260141   1.651  10.125  13.701
86123SOL     OW60142   7.778  10.047   4.543
86123SOL    HW160143   7.829  10.127   4.529
86123SOL    HW260144   7.797  10.022   4.633
86124SOL     OW60145   7.320  13.627  13.160
86124SOL    HW160146   7.336  13.535  13.182
86124SOL    HW260147   7.309  13.671  13.244
86125SOL     OW60148   4.126   3.856   3.656
86125SOL    HW160149   4.152   3.769   3.687
86125SOL    HW260150   4.209   3.899   3.635
86126SOL     OW60151  13.088   5.589   8.733
86126SOL    HW160152  12.994   5.591   8.715
86126SOL    HW260153  13.093   5.582   8.828
86127SOL     OW60154   5.271  13.268  11.910
86127SOL    HW160155   5.337  13.233  11.850
86127SOL    HW260156   5.218  13.328  11.856
86128SOL     OW60157   0.191   7.467   4.888
86128SOL    HW160158   0.223   7.382   4.859
86128SOL    HW260159   0.174   7.455   4.982
86129SOL     OW60160   6.480   1.250  10.615
86129SOL    HW160161   6.525   1.335  10.619
86129SOL    HW260162   6.540   1.188  10.655
86130SOL     OW60163   5.734   3.877   5.658
86130SOL    HW160164   5.800   3.808   5.663
86130SOL    HW260165   5.650   3.832   5.668
86131SOL     OW60166   1.419   4.657   9.363
86131SOL    HW160167   1.372   4.623   9.287
86131SOL    HW260168   1.383   4.609   9.438
86132SOL     OW60169  12.113   1.394   2.177
86132SOL    HW160170  12.038   1.358   2.129
86132SOL    HW260171  12.121   1.484   2.145
86133SOL     OW60172   4.604   9.989   7.843
86133SOL    HW160173   4.609  10.008   7.749
86133SOL    HW260174   4.511   9.993   7.863
86134SOL     OW60175   7.908   6.010   3.250
86134SOL    HW160176   7.815   5.995   3.266
86134SOL    HW260177   7.950   5.930   3.281
86135SOL     OW60178   9.190  10.507   8.558
86135SOL    HW160179   9.285  10.504   8.568
86135SOL    HW260180   9.173  10.462   8.475
86136SOL     OW60181   6.787  11.921   0.917
86136SOL    HW160182   6.799  11.881   0.831
86136SOL    HW260183   6.693  11.912   0.935
86137SOL     OW60184   7.999   8.031  10.269
86137SOL    HW160185   8.036   7.943  10.261
86137SOL    HW260186   7.909   8.023  10.236
86138SOL     OW60187  14.542  12.690  10.207
86138SOL    HW160188  14.480  12.709  10.136
86138SOL    HW260189  14.509  12.739  10.282
86139SOL     OW60190  10.396  10.453   6.302
86139SOL    HW160191  10.328  10.385   6.302
86139SOL    HW260192  10.348  10.534   6.315
86140SOL     OW60193   9.053   6.780   3.352
86140SOL    HW160194   9.005   6.852   3.392
86140SOL    HW260195   9.118   6.823   3.295
86141SOL     OW60196   5.864   3.314  14.800
86141SOL    HW160197   5.840   3.301  14.708
86141SOL    HW260198   5.959   3.301  14.802
86142SOL     OW60199  12.150   2.435   3.863
86142SOL    HW160200  12.155   2.348   3.903
86142SOL    HW260201  12.183   2.422   3.774
86143SOL     OW60202   1.711   0.959   8.542
86143SOL    HW160203   1.767   1.010   8.602
86143SOL    HW260204   1.645   0.919   8.599
86144SOL     OW60205  13.907   1.881   2.597
86144SOL    HW160206  13.867   1.800   2.629
86144SOL    HW260207  13.836   1.945   2.600
86145SOL     OW60208  12.351  11.968  11.974
86145SOL    HW160209  12.269  11.972  11.925
86145SOL    HW260210  12.414  11.927  11.914
86146SOL     OW60211   4.835   8.422   3.643
86146SOL    HW160212   4.849   8.350   3.582
86146SOL    HW260213   4.912   8.479   3.631
86147SOL     OW60214  12.004  10.936   6.446
86147SOL    HW160215  11.947  11.010   6.467
86147SOL    HW260216  12.050  10.962   6.367
86148SOL     OW60217   6.335   7.170  10.173
86148SOL    HW160218   6.406   7.233  10.162
86148SOL    HW260219   6.304   7.154  10.084
86149SOL     OW60220   0.718   1.758   7.358
86149SOL    HW160221   0.688   1.823   7.294
86149SOL    HW260222   0.794   1.798   7.399
86150SOL     OW60223   2.702   6.565  14.206
86150SOL    HW160224   2.633   6.589  14.145
86150SOL    HW260225   2.657   6.523  14.279
86151SOL     OW60226  12.272   1.658   7.435
86151SOL    HW160227  12.264   1.612   7.351
86151SOL    HW260228  12.184   1.655   7.473
86152SOL     OW60229   2.648  14.317   0.362
86152SOL    HW160230   2.587  14.342   0.432
86152SOL    HW260231   2.629  14.225   0.345
86153SOL     OW60232   4.252   8.169  10.236
86153SOL    HW160233   4.229   8.261  10.240
86153SOL    HW260234   4.235   8.144  10.145
86154SOL     OW60235   7.654   6.819   7.868
86154SOL    HW160236   7.730   6.841   7.922
86154SOL    HW260237   7.586   6.795   7.931
86155SOL     OW60238   6.047  14.346   3.815
86155SOL    HW160239   6.010  14.404   3.748
86155SOL    HW260240   6.054  14.402   3.893
86156SOL     OW60241  10.065   0.723   3.192
86156SOL    HW160242   9.978   0.700   3.222
86156SOL    HW260243  10.056   0.735   3.098
86157SOL     OW60244   0.967  13.815   0.526
86157SOL    HW160245   0.898  13.811   0.592
86157SOL    HW260246   1.030  13.878   0.561
86158SOL     OW60247   1.849   2.874  13.664
86158SOL    HW160248   1.762   2.908  13.685
86158SOL    HW260249   1.832   2.792  13.618
86159SOL     OW60250   9.502   7.860   3.137
86159SOL    HW160251   9.477   7.952   3.123
86159SOL    HW260252   9.422   7.819   3.170
86160SOL     OW60253  11.893  10.121   9.114
86160SOL    HW160254  11.838  10.055   9.157
86160SOL    HW260255  11.971  10.072   9.086
86161SOL     OW60256  10.866   1.880  11.444
86161SOL    HW160257  10.890   1.788  11.437
86161SOL    HW260258  10.870   1.912  11.354
86162SOL     OW60259   7.167  12.896   2.000
86162SOL    HW160260   7.228  12.856   1.938
86162SOL    HW260261   7.128  12.969   1.952
86163SOL     OW60262   1.780   1.186   1.811
86163SOL    HW160263   1.770   1.281   1.817
86163SOL    HW260264   1.716   1.160   1.744
86164SOL     OW60265  13.666   3.948  14.269
86164SOL    HW160266  13.620   3.868  14.241
86164SOL    HW260267  13.607   4.019  14.244
86165SOL     OW60268   4.947   6.410  12.441
86165SOL    HW160269   4.924   6.501  12.420
86165SOL    HW260270   4.966   6.411  12.535
86166SOL     OW60271  14.542   5.329  14.190
86166SOL    HW160272  14.505   5.284  14.114
86166SOL    HW260273  14.576   5.259  14.245
86167SOL     OW60274   2.960   1.816   1.065
86167SOL    HW160275   2.930   1.735   1.024
86167SOL    HW260276   3.047   1.830   1.027
86168SOL     OW60277   9.301   3.222   9.588
86168SOL    HW160278   9.326   3.165   9.661
86168SOL    HW260279   9.381   3.230   9.536
86169SOL     OW60280   8.689  13.778   6.539
86169SOL    HW160281   8.686  13.855   6.597
86169SOL    HW260282   8.650  13.708   6.592
86170SOL     OW60283   5.313  12.107   2.306
86170SOL    HW160284   5.320  12.153   2.223
86170SOL    HW260285   5.219  12.098   2.321
86171SOL     OW60286  10.785   6.188   3.464
86171SOL    HW160287  10.727   6.201   3.539
86171SOL    HW260288  10.850   6.124   3.494
86172SOL     OW60289  11.630   5.241   5.061
86172SOL    HW160290  11.589   5.159   5.088
86172SOL    HW260291  11.683   5.267   5.136
86173SOL     OW60292   9.413   5.614   2.435
86173SOL    HW160293   9.409   5.697   2.389
86173SOL    HW260294   9.433   5.550   2.367
86174SOL     OW60295   5.671   3.696  13.123
86174SOL    HW160296   5.591   3.671  13.077
86174SOL    HW260297   5.696   3.618  13.172
86175SOL     OW60298   9.024   3.683   1.651
86175SOL    HW160299   9.071   3.685   1.568
86175SOL    HW260300   9.093   3.673   1.717
86176SOL     OW60301   6.280   0.661   0.464
86176SOL    HW160302   6.190   0.668   0.432
86176SOL    HW260303   6.273   0.665   0.559
86177SOL     OW60304  11.141  10.904   3.160
86177SOL    HW160305  11.223  10.953   3.153
86177SOL    HW260306  11.146  10.841   3.088
86178SOL     OW60307   6.939   2.545   8.150
86178SOL    HW160308   6.846   2.528   8.162
86178SOL    HW260309   6.964   2.597   8.226
86179SOL     OW60310   4.539  12.554   9.490
86179SOL    HW160311   4.585  12.472   9.511
86179SOL    HW260312   4.493  12.577   9.571
86180SOL     OW60313   5.963  12.295   8.225
86180SOL    HW160314   6.008  12.302   8.309
86180SOL    HW260315   5.928  12.383   8.210
86181SOL     OW60316   3.104   8.499   1.485
86181SOL    HW160317   3.090   8.457   1.570
86181SOL    HW260318   3.104   8.427   1.422
86182SOL     OW60319   8.950   8.888   2.654
86182SOL    HW160320   8.994   8.952   2.709
86182SOL    HW260321   8.861   8.921   2.644
86183SOL     OW60322   4.390   4.974  12.072
86183SOL    HW160323   4.341   4.910  12.122
86183SOL    HW260324   4.477   4.975  12.113
86184SOL     OW60325   0.012   5.422   1.097
86184SOL    HW160326  14.816   5.395   1.042
86184SOL    HW260327   0.016   5.356   1.166
86185SOL     OW60328   0.115   5.345  14.449
86185SOL    HW160329   0.065   5.409  14.500
86185SOL    HW260330   0.088   5.260  14.484
86186SOL     OW60331  10.094  14.158  13.507
86186SOL    HW160332  10.001  14.183  13.498
86186SOL    HW260333  10.130  14.170  13.419
86187SOL     OW60334   8.865   2.020   2.812
86187SOL    HW160335   8.932   1.951   2.814
86187SOL    HW260336   8.782   1.973   2.804
86188SOL     OW60337   6.406   5.671  14.081
86188SOL    HW160338   6.315   5.643  14.068
86188SOL    HW260339   6.437   5.620  14.156
86189SOL     OW60340   9.362   5.536  11.954
86189SOL    HW160341   9.373   5.500  12.042
86189SOL    HW260342   9.294   5.483  11.914
86190SOL     OW60343   2.566   0.504   0.189
86190SOL    HW160344   2.577   0.598   0.196
86190SOL    HW260345   2.581   0.485   0.096
86191SOL     OW60346  11.798   3.753   1.156
86191SOL    HW160347  11.800   3.844   1.126
86191SOL    HW260348  11.706   3.726   1.147
86192SOL     OW60349   2.312   5.498  10.220
86192SOL    HW160350   2.286   5.586  10.248
86192SOL    HW260351   2.294   5.442  10.296
86193SOL     OW60352  10.578   3.973   1.050
86193SOL    HW160353  10.543   4.052   1.093
86193SOL    HW260354  10.619   4.006   0.970
86194SOL     OW60355   3.810   0.947  12.554
86194SOL    HW160356   3.847   0.875  12.604
86194SOL    HW260357   3.718   0.950  12.580
86195SOL     OW60358  11.125   6.590  12.771
86195SOL    HW160359  11.167   6.519  12.723
86195SOL    HW260360  11.193   6.625  12.827
86196SOL     OW60361   4.148  12.608   1.590
86196SOL    HW160362   4.174  12.664   1.663
86196SOL    HW260363   4.107  12.667   1.527
86197SOL     OW60364  11.425  13.956  11.095
86197SOL    HW160365  11.335  13.931  11.074
86197SOL    HW260366  11.415  14.024  11.162
86198SOL     OW60367   9.920   7.010  12.891
86198SOL    HW160368   9.918   6.996  12.796
86198SOL    HW260369  10.012   6.998  12.915
86199SOL     OW60370   7.758  11.217   7.887
86199SOL    HW160371   7.692  11.245   7.823
86199SOL    HW260372   7.793  11.299   7.921
86200SOL     OW60373   2.581   8.395   2.999
86200SOL    HW160374   2.613   8.356   3.080
86200SOL    HW260375   2.555   8.484   3.024
86201SOL     OW60376  14.673  13.314   1.705
86201SOL    HW160377  14.735  13.299   1.776
86201SOL    HW260378  14.587  13.303   1.744
86202SOL     OW60379   8.702   4.088   7.838
86202SOL    HW160380   8.790   4.100   7.874
86202SOL    HW260381   8.652   4.161   7.873
86203SOL     OW60382   7.634   4.610   5.673
86203SOL    HW160383   7.721   4.639   5.645
86203SOL    HW260384   7.606   4.549   5.605
86204SOL     OW60385   6.910   8.980  12.241
86204SOL    HW160386   6.953   9.065  12.248
86204SOL    HW260387   6.976   8.924  12.198
86205SOL     OW60388  13.450   6.742   0.519
86205SOL    HW160389  13.520   6.757   0.455
86205SOL    HW260390  13.479   6.667   0.570
86206SOL     OW60391   7.104   2.279   5.235
86206SOL    HW160392   7.115   2.247   5.325
86206SOL    HW260393   7.155   2.218   5.182
86207SOL     OW60394   4.029  10.132   8.733
86207SOL    HW160395   4.075  10.065   8.784
86207SOL    HW260396   4.099  10.190   8.702
86208SOL     OW60397   3.569   0.310   3.031
86208SOL    HW160398   3.588   0.242   2.966
86208SOL    HW260399   3.576   0.392   2.983
86209SOL     OW60400   5.337   1.786  14.236
86209SOL    HW160401   5.367   1.754  14.151
86209SOL    HW260402   5.326   1.881  14.223
86210SOL     OW60403   9.716   3.769  10.908
86210SOL    HW160404   9.648   3.836  10.897
86210SOL    HW260405   9.668   3.686  10.909
86211SOL     OW60406   5.446   2.328   0.941
86211SOL    HW160407   5.459   2.319   1.036
86211SOL    HW260408   5.487   2.413   0.920
86212SOL     OW60409  10.883  13.600   9.580
86212SOL    HW160410  10.883  13.547   9.659
86212SOL    HW260411  10.925  13.545   9.514
86213SOL     OW60412  13.637  11.162   3.854
86213SOL    HW160413  13.636  11.112   3.936
86213SOL    HW260414  13.558  11.134   3.808
86214SOL     OW60415   4.636  10.351  12.359
86214SOL    HW160416   4.702  10.356  12.291
86214SOL    HW260417   4.627  10.441  12.391
86215SOL     OW60418   5.976  11.104   4.252
86215SOL    HW160419   5.947  11.117   4.342
86215SOL    HW260420   6.067  11.134   4.252
86216SOL     OW60421   7.794  14.253   4.407
86216SOL    HW160422   7.884  14.227   4.429
86216SOL    HW260423   7.799  14.348   4.394
86217SOL     OW60424  12.809   7.508   2.553
86217SOL    HW160425  12.848   7.423   2.572
86217SOL    HW260426  12.722   7.504   2.594
86218SOL     OW60427  13.550  11.393  12.548
86218SOL    HW160428  13.613  11.322  12.561
86218SOL    HW260429  13.587  11.445  12.477
86219SOL     OW60430  14.270   5.115  14.566
86219SOL    HW160431  14.333   5.097  14.496
86219SOL    HW260432  14.315   5.086  14.646
86220SOL     OW60433  14.232  13.885   8.935
86220SOL    HW160434  14.230  13.846   9.022
86220SOL    HW260435  14.317  13.930   8.931
86221SOL     OW60436   1.626  12.625  13.484
86221SOL    HW160437   1.567  12.559  13.522
86221SOL    HW260438   1.693  12.573  13.439
86222SOL     OW60439  11.756  12.996   5.562
86222SOL    HW160440  11.830  13.010   5.621
86222SOL    HW260441  11.679  12.998   5.618
86223SOL     OW60442   9.712   6.994   3.472
86223SOL    HW160443   9.757   6.957   3.548
86223SOL    HW260444   9.781   7.012   3.409
86224SOL     OW60445   0.741   5.834   5.652
86224SOL    HW160446   0.646   5.847   5.648
86224SOL    HW260447   0.769   5.833   5.561
86225SOL     OW60448   3.081   6.536  14.359
86225SOL    HW160449   3.049   6.598  14.425
86225SOL    HW260450   3.176   6.542  14.364
86226SOL     OW60451   9.665   7.330   6.448
86226SOL    HW160452   9.616   7.337   6.530
86226SOL    HW260453   9.607   7.368   6.382
86227SOL     OW60454   6.400   5.606   5.925
86227SOL    HW160455   6.395   5.536   5.860
86227SOL    HW260456   6.310   5.613   5.958
86228SOL     OW60457   5.434   9.698  13.255
86228SOL    HW160458   5.494   9.678  13.183
86228SOL    HW260459   5.486   9.683  13.334
86229SOL     OW60460  12.492  12.746   2.980
86229SOL    HW160461  12.585  12.766   2.971
86229SOL    HW260462  12.489  12.657   3.014
86230SOL     OW60463   1.467   7.733  13.728
86230SOL    HW160464   1.409   7.793  13.681
86230SOL    HW260465   1.554   7.754  13.695
86231SOL     OW60466   9.562   3.752  11.188
86231SOL    HW160467   9.540   3.743  11.095
86231SOL    HW260468   9.569   3.847  11.202
86232SOL     OW60469   7.628   9.345   3.560
86232SOL    HW160470   7.612   9.323   3.652
86232SOL    HW260471   7.612   9.264   3.512
86233SOL     OW60472   9.632  12.344   6.451
86233SOL    HW160473   9.723  12.367   6.433
86233SOL    HW260474   9.587  12.428   6.462
86234SOL     OW60475  13.585  14.715  11.071
86234SOL    HW160476  13.532  14.789  11.041
86234SOL    HW260477  13.638  14.690  10.996
86235SOL     OW60478  12.626  11.286   9.481
86235SOL    HW160479  12.553  11.269   9.422
86235SOL    HW260480  12.702  11.247   9.438
86236SOL     OW60481   7.463   8.090   8.369
86236SOL    HW160482   7.456   8.068   8.276
86236SOL    HW260483   7.551   8.061   8.394
86237SOL     OW60484   4.771   3.710   3.195
86237SOL    HW160485   4.766   3.804   3.212
86237SOL    HW260486   4.852   3.682   3.238
86238SOL     OW60487   3.797  13.212   7.585
86238SOL    HW160488   3.775  13.120   7.568
86238SOL    HW260489   3.892  13.215   7.585
86239SOL     OW60490  11.877  14.610   8.143
86239SOL    HW160491  11.814  14.662   8.193
86239SOL    HW260492  11.877  14.525   8.186
86240SOL     OW60493   3.278   1.507   0.934
86240SOL    HW160494   3.333   1.491   0.858
86240SOL    HW260495   3.198   1.457   0.918
86241SOL     OW60496   8.483   6.832  12.822
86241SOL    HW160497   8.540   6.841  12.898
86241SOL    HW260498   8.540   6.854  12.747
86242SOL     OW60499   9.889   9.124   6.645
86242SOL    HW160500   9.919   9.207   6.606
86242SOL    HW260501   9.910   9.058   6.579
86243SOL     OW60502   9.377  14.663   9.119
86243SOL    HW160503   9.463  14.702   9.129
86243SOL    HW260504   9.321  14.736   9.092
86244SOL     OW60505   6.353  10.488   6.893
86244SOL    HW160506   6.343  10.394   6.879
86244SOL    HW260507   6.322  10.528   6.811
86245SOL     OW60508  12.968  14.645   2.842
86245SOL    HW160509  12.947  14.655   2.935
86245SOL    HW260510  12.888  14.612   2.802
86246SOL     OW60511  10.950   5.267  11.489
86246SOL    HW160512  10.906   5.209  11.426
86246SOL    HW260513  10.934   5.355  11.456
86247SOL     OW60514   5.215   3.376   6.244
86247SOL    HW160515   5.177   3.292   6.218
86247SOL    HW260516   5.291   3.352   6.296
86248SOL     OW60517   8.541  14.620   9.054
86248SOL    HW160518   8.567  14.601   8.964
86248SOL    HW260519   8.542  14.715   9.060
86249SOL     OW60520   6.992  13.105   5.772
86249SOL    HW160521   7.070  13.104   5.827
86249SOL    HW260522   6.963  13.014   5.769
86250SOL     OW60523   3.384   8.394   8.515
86250SOL    HW160524   3.428   8.332   8.573
86250SOL    HW260525   3.332   8.449   8.573
86251SOL     OW60526  14.578   3.991   4.529
86251SOL    HW160527  14.487   4.021   4.529
86251SOL    HW260528  14.625   4.058   4.480
86252SOL     OW60529   9.282  14.787   3.627
86252SOL    HW160530   9.352  14.828   3.678
86252SOL    HW260531   9.295  14.693   3.641
86253SOL     OW60532   3.489   7.810   6.559
86253SOL    HW160533   3.475   7.772   6.472
86253SOL    HW260534   3.479   7.904   6.545
86254SOL     OW60535  13.294   2.769   1.067
86254SOL    HW160536  13.222   2.826   1.096
86254SOL    HW260537  13.280   2.759   0.973
86255SOL     OW60538  10.555   7.126   8.526
86255SOL    HW160539  10.529   7.034   8.528
86255SOL    HW260540  10.567   7.150   8.618
86256SOL     OW60541   6.891   3.311   5.813
86256SOL    HW160542   6.905   3.373   5.884
86256SOL    HW260543   6.977   3.274   5.795
86257SOL     OW60544   0.789  10.094  10.920
86257SOL    HW160545   0.729  10.037  10.871
86257SOL    HW260546   0.748  10.180  10.917
86258SOL     OW60547   2.455  11.299   2.893
86258SOL    HW160548   2.548  11.320   2.899
86258SOL    HW260549   2.450  11.234   2.822
86259SOL     OW60550  14.253  10.432  11.415
86259SOL    HW160551  14.262  10.352  11.363
86259SOL    HW260552  14.159  10.450  11.413
86260SOL     OW60553   5.874   3.334   8.082
86260SOL    HW160554   5.867   3.429   8.089
86260SOL    HW260555   5.820   3.300   8.154
86261SOL     OW60556  12.999   6.699   3.301
86261SOL    HW160557  12.934   6.629   3.305
86261SOL    HW260558  13.020   6.718   3.392
86262SOL     OW60559   4.991  13.386   2.093
86262SOL    HW160560   5.048  13.420   2.161
86262SOL    HW260561   5.026  13.299   2.074
86263SOL     OW60562   4.498   6.186  13.165
86263SOL    HW160563   4.537   6.187  13.253
86263SOL    HW260564   4.451   6.269  13.160
86264SOL     OW60565  11.555  14.086   0.065
86264SOL    HW160566  11.557  14.046  14.856
86264SOL    HW260567  11.483  14.041   0.110
86265SOL     OW60568  13.032   4.620   5.875
86265SOL    HW160569  13.051   4.552   5.810
86265SOL    HW260570  13.049   4.702   5.831
86266SOL     OW60571   8.347  13.592  11.537
86266SOL    HW160572   8.321  13.516  11.485
86266SOL    HW260573   8.442  13.592  11.534
86267SOL     OW60574  11.613   8.510  12.431
86267SOL    HW160575  11.595   8.480  12.520
86267SOL    HW260576  11.698   8.554  12.437
86268SOL     OW60577   9.874   9.546   9.598
86268SOL    HW160578   9.879   9.451   9.590
86268SOL    HW260579   9.882   9.563   9.692
86269SOL     OW60580   4.065   7.235   4.250
86269SOL    HW160581   4.099   7.251   4.162
86269SOL    HW260582   4.138   7.259   4.308
86270SOL     OW60583   5.796  10.923   0.898
86270SOL    HW160584   5.883  10.963   0.896
86270SOL    HW260585   5.779  10.906   0.990
86271SOL     OW60586   1.549   6.067   6.091
86271SOL    HW160587   1.557   6.091   5.999
86271SOL    HW260588   1.612   6.123   6.136
86272SOL     OW60589   4.611   4.833  11.855
86272SOL    HW160590   4.573   4.909  11.811
86272SOL    HW260591   4.659   4.786  11.787
86273SOL     OW60592  12.748  13.375  10.642
86273SOL    HW160593  12.676  13.432  10.670
86273SOL    HW260594  12.734  13.294  10.690
86274SOL     OW60595   7.484   0.646  13.167
86274SOL    HW160596   7.460   0.619  13.256
86274SOL    HW260597   7.410   0.699  13.137
86275SOL     OW60598   4.482   7.504   4.241
86275SOL    HW160599   4.508   7.596   4.236
86275SOL    HW260600   4.534   7.460   4.174
86276SOL     OW60601   6.768  10.130   5.133
86276SOL    HW160602   6.783  10.086   5.049
86276SOL    HW260603   6.689  10.089   5.167
86277SOL     OW60604   4.030   8.080  12.038
86277SOL    HW160605   4.071   7.995  12.027
86277SOL    HW260606   4.102   8.143  12.027
86278SOL     OW60607   6.253  13.799   5.840
86278SOL    HW160608   6.312  13.862   5.798
86278SOL    HW260609   6.180  13.791   5.778
86279SOL     OW60610   8.990   8.330  12.634
86279SOL    HW160611   9.001   8.423  12.651
86279SOL    HW260612   9.074   8.302  12.598
86280SOL     OW60613   2.750   8.527   7.221
86280SOL    HW160614   2.845   8.528   7.220
86280SOL    HW260615   2.727   8.521   7.314
86281SOL     OW60616  13.775   2.349   1.268
86281SOL    HW160617  13.748   2.417   1.330
86281SOL    HW260618  13.740   2.268   1.305
86282SOL     OW60619  12.807   6.565   2.485
86282SOL    HW160620  12.858   6.502   2.434
86282SOL    HW260621  12.733   6.515   2.518
86283SOL     OW60622  12.870  12.807   1.481
86283SOL    HW160623  12.859  12.755   1.402
86283SOL    HW260624  12.905  12.891   1.451
86284SOL     OW60625  13.244  11.233  10.700
86284SOL    HW160626  13.184  11.301  10.729
86284SOL    HW260627  13.207  11.203  10.617
86285SOL     OW60628  12.305   2.588  12.675
86285SOL    HW160629  12.213   2.599  12.699
86285SOL    HW260630  12.342   2.534  12.744
86286SOL     OW60631   5.148  10.717  11.581
86286SOL    HW160632   5.139  10.804  11.541
86286SOL    HW260633   5.172  10.659  11.509
86287SOL     OW60634   4.043  14.626   8.465
86287SOL    HW160635   4.131  14.661   8.452
86287SOL    HW260636   4.055  14.531   8.473
86288SOL     OW60637   7.306   5.428   6.799
86288SOL    HW160638   7.361   5.432   6.877
86288SOL    HW260639   7.362   5.386   6.733
86289SOL     OW60640   4.021   6.464   3.687
86289SOL    HW160641   3.976   6.548   3.691
86289SOL    HW260642   4.069   6.466   3.604
86290SOL     OW60643  13.681   0.364   1.321
86290SOL    HW160644  13.624   0.441   1.312
86290SOL    HW260645  13.765   0.392   1.285
86291SOL     OW60646   2.977   7.751  12.963
86291SOL    HW160647   3.005   7.684  12.902
86291SOL    HW260648   2.977   7.708  13.048
86292SOL     OW60649   1.468  10.561   0.120
86292SOL    HW160650   1.504  10.483   0.076
86292SOL    HW260651   1.510  10.561   0.206
86293SOL     OW60652   1.491   2.341   2.531
86293SOL    HW160653   1.536   2.305   2.455
86293SOL    HW260654   1.547   2.318   2.606
86294SOL     OW60655   3.329   6.862   7.030
86294SOL    HW160656   3.335   6.768   7.050
86294SOL    HW260657   3.293   6.865   6.942
86295SOL     OW60658   6.590   7.367   3.543
86295SOL    HW160659   6.522   7.357   3.610
86295SOL    HW260660   6.551   7.423   3.476
86296SOL     OW60661   9.521   8.760   7.928
86296SOL    HW160662   9.598   8.713   7.961
86296SOL    HW260663   9.480   8.797   8.006
86297SOL     OW60664   8.103   3.218   6.688
86297SOL    HW160665   8.067   3.130   6.680
86297SOL    HW260666   8.173   3.210   6.754
86298SOL     OW60667   4.708   7.118   0.765
86298SOL    HW160668   4.784   7.166   0.799
86298SOL    HW260669   4.665   7.084   0.843
86299SOL     OW60670  14.217  14.288   8.865
86299SOL    HW160671  14.231  14.360   8.802
86299SOL    HW260672  14.197  14.213   8.810
86300SOL     OW60673  14.088   3.561   2.527
86300SOL    HW160674  14.115   3.609   2.449
86300SOL    HW260675  14.123   3.612   2.600
86301SOL     OW60676   8.377   2.920   9.469
86301SOL    HW160677   8.372   3.012   9.441
86301SOL    HW260678   8.287   2.896   9.489
86302SOL     OW60679   9.764  12.698   3.913
86302SOL    HW160680   9.801  12.722   3.828
86302SOL    HW260681   9.669  12.705   3.901
86303SOL     OW60682   8.538   5.544  11.504
86303SOL    HW160683   8.524   5.496  11.423
86303SOL    HW260684   8.499   5.630  11.488
86304SOL     OW60685   1.335  13.915   2.898
86304SOL    HW160686   1.400  13.848   2.915
86304SOL    HW260687   1.341  13.974   2.974
86305SOL     OW60688   7.171   7.803   0.391
86305SOL    HW160689   7.081   7.835   0.385
86305SOL    HW260690   7.206   7.815   0.303
86306SOL     OW60691   2.477   5.996  10.494
86306SOL    HW160692   2.420   6.027  10.424
86306SOL    HW260693   2.417   5.956  10.558
86307SOL     OW60694   3.531   4.324  11.793
86307SOL    HW160695   3.494   4.278  11.868
86307SOL    HW260696   3.607   4.272  11.768
86308SOL     OW60697  10.455   4.787   6.813
86308SOL    HW160698  10.465   4.878   6.784
86308SOL    HW260699  10.401   4.746   6.745
86309SOL     OW60700   4.844   9.067  10.103
86309SOL    HW160701   4.906   9.013  10.053
86309SOL    HW260702   4.835   9.021  10.186
86310SOL     OW60703  13.274  13.999  12.828
86310SOL    HW160704  13.200  14.011  12.887
86310SOL    HW260705  13.351  14.024  12.880
86311SOL     OW60706   4.897   1.439   8.702
86311SOL    HW160707   4.839   1.478   8.637
86311SOL    HW260708   4.977   1.491   8.698
86312SOL     OW60709  12.846  11.240  10.895
86312SOL    HW160710  12.934  11.250  10.930
86312SOL    HW260711  12.838  11.146  10.879
86313SOL     OW60712   2.928   8.531   4.590
86313SOL    HW160713   2.985   8.480   4.532
86313SOL    HW260714   2.933   8.621   4.555
86314SOL     OW60715   6.529   2.513   3.603
86314SOL    HW160716   6.469   2.542   3.535
86314SOL    HW260717   6.578   2.592   3.627
86315SOL     OW60718  14.711   3.879   1.531
86315SOL    HW160719  14.771   3.806   1.522
86315SOL    HW260720  14.767   3.956   1.543
86316SOL     OW60721   4.347   0.693   3.197
86316SOL    HW160722   4.380   0.698   3.286
86316SOL    HW260723   4.425   0.688   3.142
86317SOL     OW60724   5.754   0.719  11.548
86317SOL    HW160725   5.695   0.699  11.620
86317SOL    HW260726   5.696   0.728  11.472
86318SOL     OW60727   0.964  12.648  13.917
86318SOL    HW160728   0.917  12.646  13.834
86318SOL    HW260729   0.911  12.705  13.973
86319SOL     OW60730  11.541  10.266   4.337
86319SOL    HW160731  11.470  10.305   4.287
86319SOL    HW260732  11.582  10.339   4.382
86320SOL     OW60733   3.041  10.889   8.898
86320SOL    HW160734   3.061  10.983   8.898
86320SOL    HW260735   3.011  10.871   8.987
86321SOL     OW60736   7.214  11.397   9.310
86321SOL    HW160737   7.224  11.370   9.402
86321SOL    HW260738   7.123  11.423   9.303
86322SOL     OW60739   5.720   4.279   8.491
86322SOL    HW160740   5.672   4.344   8.440
86322SOL    HW260741   5.770   4.330   8.555
86323SOL     OW60742  11.945  12.373   2.837
86323SOL    HW160743  11.914  12.428   2.765
86323SOL    HW260744  12.010  12.427   2.882
86324SOL     OW60745   6.120   4.064   1.342
86324SOL    HW160746   6.035   4.073   1.386
86324SOL    HW260747   6.173   4.136   1.376
86325SOL     OW60748   2.492  10.954   9.975
86325SOL    HW160749   2.485  11.046   9.997
86325SOL    HW260750   2.402  10.924   9.962
86326SOL     OW60751   6.459   8.501   3.562
86326SOL    HW160752   6.543   8.540   3.587
86326SOL    HW260753   6.459   8.416   3.605
86327SOL     OW60754  10.028   7.423   0.627
86327SOL    HW160755   9.946   7.472   0.614
86327SOL    HW260756  10.040   7.421   0.722
86328SOL     OW60757   5.629   4.372   2.343
86328SOL    HW160758   5.534   4.376   2.352
86328SOL    HW260759   5.644   4.319   2.265
86329SOL     OW60760   8.813   4.422  14.731
86329SOL    HW160761   8.881   4.357  14.749
86329SOL    HW260762   8.766   4.432  14.813
86330SOL     OW60763  11.527   0.049   9.526
86330SOL    HW160764  11.509  14.834   9.511
86330SOL    HW260765  11.600   0.049   9.589
86331SOL     OW60766  14.207  13.587  10.916
86331SOL    HW160767  14.227  13.601  10.823
86331SOL    HW260768  14.267  13.645  10.963
86332SOL     OW60769   0.244   3.399   3.561
86332SOL    HW160770   0.157   3.371   3.532
86332SOL    HW260771   0.301   3.382   3.486
86333SOL     OW60772  13.336  14.254   1.337
86333SOL    HW160773  13.292  14.267   1.253
86333SOL    HW260774  13.414  14.203   1.317
86334SOL     OW60775  13.333   1.112  13.626
86334SOL    HW160776  13.245   1.149  13.620
86334SOL    HW260777  13.340   1.052  13.552
86335SOL     OW60778   8.508   1.538   8.592
86335SOL    HW160779   8.511   1.634   8.587
86335SOL    HW260780   8.437   1.520   8.653
86336SOL     OW60781   6.654  11.491  13.390
86336SOL    HW160782   6.565  11.517  13.364
86336SOL    HW260783   6.641  11.440  13.470
86337SOL     OW60784   0.765   5.561   5.299
86337SOL    HW160785   0.826   5.619   5.345
86337SOL    HW260786   0.699   5.539   5.364
86338SOL     OW60787   3.700   2.444  14.738
86338SOL    HW160788   3.641   2.426  14.811
86338SOL    HW260789   3.653   2.507  14.684
86339SOL     OW60790   2.084  10.109   0.864
86339SOL    HW160791   2.060  10.055   0.939
86339SOL    HW260792   2.179  10.115   0.868
86340SOL     OW60793   2.963   2.837   5.487
86340SOL    HW160794   2.967   2.741   5.483
86340SOL    HW260795   2.889   2.860   5.431
86341SOL     OW60796   3.481   0.823   2.577
86341SOL    HW160797   3.469   0.907   2.621
86341SOL    HW260798   3.556   0.837   2.519
86342SOL     OW60799   1.759   1.533  11.007
86342SOL    HW160800   1.714   1.556  10.925
86342SOL    HW260801   1.735   1.442  11.023
86343SOL     OW60802   7.953  13.488   3.258
86343SOL    HW160803   7.880  13.504   3.318
86343SOL    HW260804   7.990  13.405   3.286
86344SOL     OW60805   9.530  14.789  13.990
86344SOL    HW160806   9.540  14.844  13.912
86344SOL    HW260807   9.614  14.744  14.000
86345SOL     OW60808  12.174   7.913  14.586
86345SOL    HW160809  12.088   7.870  14.589
86345SOL    HW260810  12.228   7.854  14.532
86346SOL     OW60811   6.370   8.524  10.875
86346SOL    HW160812   6.318   8.584  10.928
86346SOL    HW260813   6.389   8.451  10.933
86347SOL     OW60814  11.614   1.853   0.963
86347SOL    HW160815  11.570   1.769   0.965
86347SOL    HW260816  11.602   1.884   0.873
86348SOL     OW60817  14.336   6.959   8.717
86348SOL    HW160818  14.343   6.916   8.632
86348SOL    HW260819  14.249   6.999   8.716
86349SOL     OW60820   0.675  11.885   7.033
86349SOL    HW160821   0.581  11.903   7.040
86349SOL    HW260822   0.704  11.940   6.960
86350SOL     OW60823  12.083   8.820   2.311
86350SOL    HW160824  12.118   8.846   2.226
86350SOL    HW260825  12.156   8.776   2.355
86351SOL     OW60826  12.296   5.394   7.914
86351SOL    HW160827  12.224   5.436   7.866
86351SOL    HW260828  12.373   5.446   7.891
86352SOL     OW60829   7.537   7.040  11.702
86352SOL    HW160830   7.530   6.944  11.701
86352SOL    HW260831   7.583   7.059  11.784
86353SOL     OW60832   7.214   4.842   0.321
86353SOL    HW160833   7.285   4.778   0.313
86353SOL    HW260834   7.136   4.795   0.294
86354SOL     OW60835   4.337   1.745  13.284
86354SOL    HW160836   4.354   1.657  13.251
86354SOL    HW260837   4.313   1.795  13.206
86355SOL     OW60838  10.462   3.465   4.551
86355SOL    HW160839  10.516   3.510   4.486
86355SOL    HW260840  10.459   3.374   4.521
86356SOL     OW60841  10.155  13.001   2.956
86356SOL    HW160842  10.081  12.943   2.973
86356SOL    HW260843  10.217  12.946   2.908
86357SOL     OW60844  10.307   5.506   2.972
86357SOL    HW160845  10.331   5.499   2.880
86357SOL    HW260846  10.357   5.580   3.005
86358SOL     OW60847   5.595  12.413   8.664
86358SOL    HW160848   5.533  12.363   8.716
86358SOL    HW260849   5.611  12.492   8.715
86359SOL     OW60850   0.493   8.478  12.684
86359SOL    HW160851   0.514   8.568  12.711
86359SOL    HW260852   0.443   8.489  12.603
86360SOL     OW60853   0.956   4.698  10.256
86360SOL    HW160854   0.996   4.720  10.172
86360SOL    HW260855   0.877   4.650  10.233
86361SOL     OW60856   8.769   8.497  10.760
86361SOL    HW160857   8.765   8.592  10.773
86361SOL    HW260858   8.816   8.464  10.836
86362SOL     OW60859  12.519   3.409  11.304
86362SOL    HW160860  12.594   3.460  11.273
86362SOL    HW260861  12.497   3.353  11.230
86363SOL     OW60862  10.372   4.176   5.893
86363SOL    HW160863  10.337   4.263   5.875
86363SOL    HW260864  10.461   4.191   5.924
86364SOL     OW60865  10.234   2.930   6.390
86364SOL    HW160866  10.232   2.861   6.456
86364SOL    HW260867  10.279   3.003   6.433
86365SOL     OW60868   6.286   3.079   5.518
86365SOL    HW160869   6.308   3.041   5.603
86365SOL    HW260870   6.226   3.017   5.478
86366SOL     OW60871  13.379   1.368   4.484
86366SOL    HW160872  13.447   1.370   4.552
86366SOL    HW260873  13.313   1.429   4.516
86367SOL     OW60874  12.655   4.545   9.903
86367SOL    HW160875  12.586   4.503   9.955
86367SOL    HW260876  12.673   4.482   9.833
86368SOL     OW60877   8.204  13.068   9.773
86368SOL    HW160878   8.202  13.063   9.677
86368SOL    HW260879   8.281  13.017   9.798
86369SOL     OW60880  12.713   9.925   8.571
86369SOL    HW160881  12.769   9.998   8.544
86369SOL    HW260882  12.725   9.920   8.666
86370SOL     OW60883   1.709  12.803   6.839
86370SOL    HW160884   1.771  12.767   6.775
86370SOL    HW260885   1.631  12.749   6.830
86371SOL     OW60886   6.531   3.061   5.352
86371SOL    HW160887   6.441   3.032   5.367
86371SOL    HW260888   6.585   2.994   5.393
86372SOL     OW60889   7.437  12.587   4.594
86372SOL    HW160890   7.413  12.539   4.514
86372SOL    HW260891   7.527  12.615   4.578
86373SOL     OW60892   3.261  14.001   4.938
86373SOL    HW160893   3.327  13.931   4.938
86373SOL    HW260894   3.261  14.033   4.848
86374SOL     OW60895   0.854   3.471   8.613
86374SOL    HW160896   0.828   3.553   8.654
86374SOL    HW260897   0.938   3.450   8.653
86375SOL     OW60898  10.119  13.509  14.296
86375SOL    HW160899  10.070  13.507  14.378
86375SOL    HW260900  10.193  13.567  14.313
86376SOL     OW60901   7.105   3.235   7.640
86376SOL    HW160902   7.010   3.241   7.656
86376SOL    HW260903   7.127   3.319   7.600
86377SOL     OW60904   8.674   0.743   7.140
86377SOL    HW160905   8.582   0.719   7.144
86377SOL    HW260906   8.679   0.830   7.180
86378SOL     OW60907  12.333   1.593  12.827
86378SOL    HW160908  12.405   1.557  12.879
86378SOL    HW260909  12.374   1.660  12.772
86379SOL     OW60910  14.755   7.201   3.176
86379SOL    HW160911  14.746   7.243   3.261
86379SOL    HW260912  14.691   7.130   3.177
86380SOL     OW60913   8.330   4.336   7.629
86380SOL    HW160914   8.283   4.369   7.552
86380SOL    HW260915   8.389   4.269   7.594
86381SOL     OW60916   0.015  12.338   1.050
86381SOL    HW160917  14.816  12.387   1.022
86381SOL    HW260918   0.004  12.328   1.145
86382SOL     OW60919   2.727   7.172   6.073
86382SOL    HW160920   2.667   7.192   6.001
86382SOL    HW260921   2.718   7.078   6.086
86383SOL     OW60922   9.041   0.281   4.685
86383SOL    HW160923   8.986   0.254   4.611
86383SOL    HW260924   8.980   0.287   4.759
86384SOL     OW60925  12.955   3.185   9.044
86384SOL    HW160926  12.890   3.252   9.061
86384SOL    HW260927  13.005   3.179   9.126
86385SOL     OW60928  13.483   5.108   8.554
86385SOL    HW160929  13.542   5.042   8.519
86385SOL    HW260930  13.490   5.181   8.493
86386SOL     OW60931   7.875   7.825   5.515
86386SOL    HW160932   7.953   7.843   5.462
86386SOL    HW260933   7.829   7.909   5.518
86387SOL     OW60934  10.818   3.228   2.283
86387SOL    HW160935  10.775   3.314   2.285
86387SOL    HW260936  10.746   3.165   2.288
86388SOL     OW60937   6.422  10.934   1.146
86388SOL    HW160938   6.426  10.851   1.193
86388SOL    HW260939   6.410  10.910   1.055
86389SOL     OW60940   8.275   5.693  12.669
86389SOL    HW160941   8.228   5.745  12.603
86389SOL    HW260942   8.367   5.706  12.647
86390SOL     OW60943  11.536   1.047  13.592
86390SOL    HW160944  11.467   1.107  13.621
86390SOL    HW260945  11.541   1.062  13.497
86391SOL     OW60946  11.719   9.769  14.164
86391SOL    HW160947  11.765   9.713  14.227
86391SOL    HW260948  11.629   9.772  14.197
86392SOL     OW60949   0.780   7.436   6.836
86392SOL    HW160950   0.840   7.418   6.763
86392SOL    HW260951   0.793   7.529   6.855
86393SOL     OW60952   0.196   8.523   6.783
86393SOL    HW160953   0.104   8.548   6.794
86393SOL    HW260954   0.244   8.606   6.785
86394SOL     OW60955   7.616   2.490   7.107
86394SOL    HW160956   7.541   2.539   7.073
86394SOL    HW260957   7.610   2.405   7.062
86395SOL     OW60958   4.592   5.066   2.601
86395SOL    HW160959   4.666   5.013   2.628
86395SOL    HW260960   4.611   5.091   2.511
86396SOL     OW60961   8.666  14.874  13.096
86396SOL    HW160962   8.720  14.818  13.041
86396SOL    HW260963   8.581  14.830  13.100
86397SOL     OW60964   0.681   6.037  11.005
86397SOL    HW160965   0.696   5.951  10.964
86397SOL    HW260966   0.637   6.089  10.938
86398SOL     OW60967   3.068  13.570   1.242
86398SOL    HW160968   3.040  13.645   1.190
86398SOL    HW260969   3.161  13.584   1.258
86399SOL     OW60970   8.300  13.961   0.881
86399SOL    HW160971   8.349  14.043   0.871
86399SOL    HW260972   8.235  13.964   0.810
86400SOL     OW60973   1.017   1.131   7.567
86400SOL    HW160974   1.048   1.138   7.476
86400SOL    HW260975   0.970   1.048   7.570
86401SOL     OW60976   3.389   2.881   4.820
86401SOL    HW160977   3.304   2.837   4.823
86401SOL    HW260978   3.369   2.974   4.828
86402SOL     OW60979  11.093   7.001   7.971
86402SOL    HW160980  11.079   6.960   7.886
86402SOL    HW260981  11.014   7.053   7.985
86403SOL     OW60982   7.969   4.442   5.658
86403SOL    HW160983   7.906   4.412   5.592
86403SOL    HW260984   7.923   4.432   5.741
86404SOL     OW60985   1.749   3.534   1.220
86404SOL    HW160986   1.670   3.490   1.252
86404SOL    HW260987   1.821   3.482   1.254
86405SOL     OW60988   4.641   4.827   3.740
86405SOL    HW160989   4.675   4.907   3.780
86405SOL    HW260990   4.668   4.833   3.648
86406SOL     OW60991   3.802  14.124   0.547
86406SOL    HW160992   3.824  14.214   0.573
86406SOL    HW260993   3.732  14.134   0.483
86407SOL     OW60994   5.032   6.602   1.176
86407SOL    HW160995   5.032   6.666   1.246
86407SOL    HW260996   5.061   6.650   1.098
86408SOL     OW60997  13.085   5.150   2.463
86408SOL    HW160998  13.095   5.192   2.549
86408SOL    HW260999  13.149   5.194   2.407
86409SOL     OW61000   5.674  12.202   8.903
86409SOL    HW161001   5.764  12.228   8.923
86409SOL    HW261002   5.620  12.268   8.946
86410SOL     OW61003   9.177   6.998  13.313
86410SOL    HW161004   9.212   6.912  13.292
86410SOL    HW261005   9.212   7.055  13.244
86411SOL     OW61006   6.852   2.769   0.718
86411SOL    HW161007   6.904   2.818   0.653
86411SOL    HW261008   6.886   2.680   0.713
86412SOL     OW61009   5.452   7.150   8.408
86412SOL    HW161010   5.519   7.096   8.365
86412SOL    HW261011   5.390   7.172   8.338
86413SOL     OW61012  11.943  13.485   5.500
86413SOL    HW161013  11.920  13.541   5.575
86413SOL    HW261014  11.976  13.405   5.540
86414SOL     OW61015   6.277  13.506   5.840
86414SOL    HW161016   6.185  13.485   5.854
86414SOL    HW261017   6.277  13.594   5.802
86415SOL     OW61018  11.856   4.478   8.197
86415SOL    HW161019  11.915   4.548   8.167
86415SOL    HW261020  11.912   4.401   8.203
86416SOL     OW61021   2.222   5.592  12.643
86416SOL    HW161022   2.155   5.603  12.710
86416SOL    HW261023   2.262   5.679  12.635
86417SOL     OW61024   6.476  13.944   6.568
86417SOL    HW161025   6.489  13.849   6.574
86417SOL    HW261026   6.443  13.969   6.654
86418SOL     OW61027   7.543   5.874   1.516
86418SOL    HW161028   7.633   5.866   1.484
86418SOL    HW261029   7.532   5.968   1.534
86419SOL     OW61030   6.378  10.167  12.693
86419SOL    HW161031   6.326  10.097  12.733
86419SOL    HW261032   6.436  10.196  12.763
86420SOL     OW61033  13.067  14.251  10.742
86420SOL    HW161034  13.010  14.205  10.681
86420SOL    HW261035  13.014  14.324  10.774
86421SOL     OW61036  10.584   1.118   3.791
86421SOL    HW161037  10.518   1.155   3.850
86421SOL    HW261038  10.582   1.024   3.808
86422SOL     OW61039   9.489   0.497   3.810
86422SOL    HW161040   9.513   0.409   3.838
86422SOL    HW261041   9.572   0.543   3.798
86423SOL     OW61042   2.611  10.353   3.540
86423SOL    HW161043   2.569  10.375   3.623
86423SOL    HW261044   2.622  10.258   3.543
86424SOL     OW61045   3.591  14.652  11.961
86424SOL    HW161046   3.645  14.687  11.890
86424SOL    HW261047   3.626  14.565  11.976
86425SOL     OW61048   8.463   7.788  13.933
86425SOL    HW161049   8.511   7.762  13.854
86425SOL    HW261050   8.377   7.817  13.901
86426SOL     OW61051  14.791  11.028   4.293
86426SOL    HW161052  14.793  10.981   4.209
86426SOL    HW261053  14.866  11.087   4.289
86427SOL     OW61054   1.967  14.362   7.848
86427SOL    HW161055   1.959  14.293   7.783
86427SOL    HW261056   1.896  14.345   7.910
86428SOL     OW61057   6.402   8.647   0.041
86428SOL    HW161058   6.479   8.621  14.869
86428SOL    HW261059   6.437   8.698   0.114
86429SOL     OW61060   9.784   9.165   4.354
86429SOL    HW161061   9.762   9.073   4.338
86429SOL    HW261062   9.701   9.212   4.347
86430SOL     OW61063   6.759   1.510   4.520
86430SOL    HW161064   6.669   1.543   4.525
86430SOL    HW261065   6.757   1.427   4.568
86431SOL     OW61066  11.298  13.580  13.174
86431SOL    HW161067  11.297  13.495  13.218
86431SOL    HW261068  11.334  13.562  13.087
86432SOL     OW61069   3.461   2.469   3.210
86432SOL    HW161070   3.460   2.420   3.128
86432SOL    HW261071   3.529   2.535   3.199
86433SOL     OW61072   7.547   3.673  13.676
86433SOL    HW161073   7.623   3.615  13.684
86433SOL    HW261074   7.512   3.654  13.589
86434SOL     OW61075   2.129   3.027   1.775
86434SOL    HW161076   2.092   3.074   1.700
86434SOL    HW261077   2.081   3.062   1.850
86435SOL     OW61078   2.770   8.038   4.445
86435SOL    HW161079   2.771   8.044   4.540
86435SOL    HW261080   2.812   8.119   4.415
86436SOL     OW61081   1.926   2.974   8.753
86436SOL    HW161082   1.971   2.892   8.773
86436SOL    HW261083   1.943   2.989   8.660
86437SOL     OW61084  12.885   1.209   5.135
86437SOL    HW161085  12.883   1.114   5.131
86437SOL    HW261086  12.834   1.231   5.213
86438SOL     OW61087   8.702   5.296   2.294
86438SOL    HW161088   8.770   5.325   2.233
86438SOL    HW261089   8.657   5.376   2.320
86439SOL     OW61090   1.163   9.230   4.528
86439SOL    HW161091   1.164   9.238   4.432
86439SOL    HW261092   1.254   9.240   4.554
86440SOL     OW61093   8.783   2.472   6.667
86440SOL    HW161094   8.817   2.552   6.626
86440SOL    HW261095   8.848   2.450   6.734
86441SOL     OW61096  14.768  13.976   9.816
86441SOL    HW161097  14.675  13.980   9.792
86441SOL    HW261098  14.769  13.925   9.897
86442SOL     OW61099   9.771   6.952   9.032
86442SOL    HW161100   9.767   6.871   8.981
86442SOL    HW261101   9.822   7.012   8.977
86443SOL     OW61102   3.439   8.912  11.765
86443SOL    HW161103   3.506   8.961  11.814
86443SOL    HW261104   3.359   8.963  11.776
86444SOL     OW61105   2.761   4.022   8.022
86444SOL    HW161106   2.726   3.969   8.094
86444SOL    HW261107   2.792   4.102   8.065
86445SOL     OW61108  14.195   4.074   5.017
86445SOL    HW161109  14.151   4.097   5.099
86445SOL    HW261110  14.123   4.052   4.958
86446SOL     OW61111   4.335  12.846   2.173
86446SOL    HW161112   4.421  12.877   2.144
86446SOL    HW261113   4.334  12.753   2.150
86447SOL     OW61114  14.526   8.446   3.649
86447SOL    HW161115  14.543   8.508   3.578
86447SOL    HW261116  14.436   8.418   3.636
86448SOL     OW61117   1.745  13.536   7.952
86448SOL    HW161118   1.708  13.472   8.012
86448SOL    HW261119   1.791  13.599   8.008
86449SOL     OW61120  11.963   3.395   7.380
86449SOL    HW161121  12.045   3.359   7.415
86449SOL    HW261122  11.987   3.483   7.350
86450SOL     OW61123  14.400   7.174  14.631
86450SOL    HW161124  14.337   7.243  14.611
86450SOL    HW261125  14.357   7.122  14.699
86451SOL     OW61126   2.725   1.673   5.721
86451SOL    HW161127   2.759   1.608   5.659
86451SOL    HW261128   2.776   1.660   5.801
86452SOL     OW61129   0.818   6.264   5.182
86452SOL    HW161130   0.905   6.273   5.144
86452SOL    HW261131   0.764   6.325   5.131
86453SOL     OW61132   8.521   7.713  11.602
86453SOL    HW161133   8.518   7.751  11.514
86453SOL    HW261134   8.509   7.787  11.661
86454SOL     OW61135  11.217  10.374  12.821
86454SOL    HW161136  11.277  10.416  12.882
86454SOL    HW261137  11.217  10.282  12.846
86455SOL     OW61138   9.776   6.277  13.256
86455SOL    HW161139   9.722   6.199  13.243
86455SOL    HW261140   9.848   6.248  13.311
86456SOL     OW61141  12.536   4.956  12.293
86456SOL    HW161142  12.509   4.886  12.234
86456SOL    HW261143  12.580   4.912  12.366
86457SOL     OW61144   6.661  12.080   2.974
86457SOL    HW161145   6.604  12.049   3.044
86457SOL    HW261146   6.625  12.041   2.895
86458SOL     OW61147   6.321   6.185   8.408
86458SOL    HW161148   6.385   6.194   8.337
86458SOL    HW261149   6.345   6.254   8.470
86459SOL     OW61150  13.081   7.263   6.075
86459SOL    HW161151  13.123   7.255   6.160
86459SOL    HW261152  13.138   7.214   6.015
86460SOL     OW61153  10.907   1.481   6.359
86460SOL    HW161154  10.939   1.402   6.317
86460SOL    HW261155  10.847   1.520   6.295
86461SOL     OW61156   0.279   1.426  14.710
86461SOL    HW161157   0.258   1.503  14.657
86461SOL    HW261158   0.369   1.404  14.688
86462SOL     OW61159   6.337   1.565   3.743
86462SOL    HW161160   6.392   1.618   3.801
86462SOL    HW261161   6.316   1.487   3.795
86463SOL     OW61162   1.798   4.306   1.569
86463SOL    HW161163   1.869   4.253   1.606
86463SOL    HW261164   1.800   4.287   1.475
86464SOL     OW61165  10.769  11.221   3.138
86464SOL    HW161166  10.717  11.202   3.060
86464SOL    HW261167  10.830  11.148   3.144
86465SOL     OW61168   0.137  11.694  14.639
86465SOL    HW161169   0.128  11.743  14.558
86465SOL    HW261170   0.194  11.747  14.694
86466SOL     OW61171   0.469   0.496   6.209
86466SOL    HW161172   0.557   0.457   6.212
86466SOL    HW261173   0.485   0.590   6.204
86467SOL     OW61174   4.919   7.900   2.689
86467SOL    HW161175   4.893   7.878   2.778
86467SOL    HW261176   4.953   7.818   2.653
86468SOL     OW61177  12.971  14.272   7.442
86468SOL    HW161178  12.947  14.361   7.470
86468SOL    HW261179  12.923  14.260   7.360
86469SOL     OW61180   6.997   8.368  12.387
86469SOL    HW161181   6.911   8.328  12.401
86469SOL    HW261182   6.977   8.449  12.341
86470SOL     OW61183   7.028   0.143  11.834
86470SOL    HW161184   6.939   0.172  11.818
86470SOL    HW261185   7.083   0.219  11.817
86471SOL     OW61186   2.755  10.015  12.120
86471SOL    HW161187   2.714   9.939  12.163
86471SOL    HW261188   2.789   9.980  12.038
86472SOL     OW61189  10.166   1.162   5.608
86472SOL    HW161190  10.217   1.207   5.541
86472SOL    HW261191  10.132   1.084   5.564
86473SOL     OW61192   7.743   4.264   5.777
86473SOL    HW161193   7.799   4.320   5.830
86473SOL    HW261194   7.658   4.267   5.821
86474SOL     OW61195  14.157   8.009   8.659
86474SOL    HW161196  14.129   8.009   8.567
86474SOL    HW261197  14.080   7.979   8.707
86475SOL     OW61198   0.538   1.818   4.806
86475SOL    HW161199   0.591   1.744   4.835
86475SOL    HW261200   0.601   1.884   4.779
86476SOL     OW61201  13.273  11.915   5.401
86476SOL    HW161202  13.207  11.873   5.456
86476SOL    HW261203  13.252  11.888   5.312
86477SOL     OW61204   9.000   7.920   1.590
86477SOL    HW161205   8.982   7.996   1.646
86477SOL    HW261206   9.095   7.910   1.594
86478SOL     OW61207   6.710  11.657   1.057
86478SOL    HW161208   6.751  11.664   0.971
86478SOL    HW261209   6.628  11.705   1.049
86479SOL     OW61210  12.088   8.585   3.309
86479SOL    HW161211  12.117   8.529   3.381
86479SOL    HW261212  12.160   8.647   3.296
86480SOL     OW61213  13.345   3.110   3.319
86480SOL    HW161214  13.301   3.076   3.241
86480SOL    HW261215  13.422   3.155   3.286
86481SOL     OW61216  12.213  11.567  10.181
86481SOL    HW161217  12.262  11.623  10.241
86481SOL    HW261218  12.268  11.490  10.169
86482SOL     OW61219  10.533   4.376  11.159
86482SOL    HW161220  10.549   4.332  11.243
86482SOL    HW261221  10.443   4.407  11.165
86483SOL     OW61222   0.076   1.352   5.255
86483SOL    HW161223   0.158   1.399   5.270
86483SOL    HW261224   0.080   1.278   5.316
86484SOL     OW61225   4.787  10.201  13.262
86484SOL    HW161226   4.742  10.134  13.313
86484SOL    HW261227   4.758  10.186  13.172
86485SOL     OW61228   0.276  11.149   1.682
86485SOL    HW161229   0.256  11.135   1.775
86485SOL    HW261230   0.191  11.148   1.638
86486SOL     OW61231   1.160  12.648   8.193
86486SOL    HW161232   1.223  12.714   8.162
86486SOL    HW261233   1.211  12.592   8.251
86487SOL     OW61234  11.934   1.983   8.880
86487SOL    HW161235  11.933   1.992   8.785
86487SOL    HW261236  11.922   1.890   8.896
86488SOL     OW61237  13.359   2.892   7.557
86488SOL    HW161238  13.298   2.824   7.584
86488SOL    HW261239  13.350   2.897   7.461
86489SOL     OW61240   1.283  13.017   7.592
86489SOL    HW161241   1.209  12.956   7.595
86489SOL    HW261242   1.309  13.018   7.500
86490SOL     OW61243   5.798   1.677  12.437
86490SOL    HW161244   5.733   1.631  12.490
86490SOL    HW261245   5.788   1.769  12.461
86491SOL     OW61246   8.915   1.152   1.978
86491SOL    HW161247   8.894   1.232   2.027
86491SOL    HW261248   8.994   1.117   2.020
86492SOL     OW61249  10.292  10.202   1.354
86492SOL    HW161250  10.291  10.219   1.448
86492SOL    HW261251  10.306  10.287   1.314
86493SOL     OW61252   0.742   1.778   0.455
86493SOL    HW161253   0.692   1.839   0.509
86493SOL    HW261254   0.830   1.814   0.454
86494SOL     OW61255   4.111   1.767   0.677
86494SOL    HW161256   4.067   1.841   0.636
86494SOL    HW261257   4.043   1.701   0.689
86495SOL     OW61258   1.977   8.544   3.681
86495SOL    HW161259   2.056   8.595   3.664
86495SOL    HW261260   1.954   8.564   3.772
86496SOL     OW61261   6.417  13.013   5.484
86496SOL    HW161262   6.370  12.976   5.408
86496SOL    HW261263   6.479  13.075   5.445
86497SOL     OW61264   3.649   0.416  12.847
86497SOL    HW161265   3.582   0.391  12.782
86497SOL    HW261266   3.728   0.431  12.795
86498SOL     OW61267   1.853   3.684   5.935
86498SOL    HW161268   1.851   3.676   5.840
86498SOL    HW261269   1.766   3.716   5.958
86499SOL     OW61270  12.624   7.408   6.790
86499SOL    HW161271  12.546   7.434   6.741
86499SOL    HW261272  12.662   7.336   6.740
86500SOL     OW61273  12.653   7.953  10.924
86500SOL    HW161274  12.663   7.877  10.982
86500SOL    HW261275  12.690   8.025  10.974
86501SOL     OW61276   3.066  14.352   5.329
86501SOL    HW161277   3.033  14.267   5.358
86501SOL    HW261278   3.010  14.416   5.375
86502SOL     OW61279  10.220  13.538   1.389
86502SOL    HW161280  10.252  13.470   1.329
86502SOL    HW261281  10.265  13.520   1.472
86503SOL     OW61282  13.719   7.215   7.609
86503SOL    HW161283  13.632   7.181   7.629
86503SOL    HW261284  13.779   7.155   7.653
86504SOL     OW61285   8.839   4.655   6.684
86504SOL    HW161286   8.896   4.579   6.669
86504SOL    HW261287   8.756   4.617   6.713
86505SOL     OW61288  11.789   8.915   2.324
86505SOL    HW161289  11.868   8.862   2.320
86505SOL    HW261290  11.806   8.978   2.393
86506SOL     OW61291  14.630   9.496   1.703
86506SOL    HW161292  14.613   9.495   1.797
86506SOL    HW261293  14.549   9.465   1.663
86507SOL     OW61294   5.993   4.616  14.698
86507SOL    HW161295   5.923   4.573  14.649
86507SOL    HW261296   6.073   4.568  14.673
86508SOL     OW61297  14.392  13.003   4.114
86508SOL    HW161298  14.344  12.975   4.036
86508SOL    HW261299  14.327  13.045   4.169
86509SOL     OW61300   4.303   4.166   2.510
86509SOL    HW161301   4.268   4.241   2.462
86509SOL    HW261302   4.394   4.160   2.481
86510SOL     OW61303  10.357   4.811   1.369
86510SOL    HW161304  10.415   4.766   1.430
86510SOL    HW261305  10.401   4.894   1.350
86511SOL     OW61306   3.956  10.895   8.874
86511SOL    HW161307   3.972  10.961   8.941
86511SOL    HW261308   3.905  10.940   8.806
86512SOL     OW61309  10.826   3.056  11.556
86512SOL    HW161310  10.747   3.064  11.609
86512SOL    HW261311  10.806   3.102  11.475
86513SOL     OW61312   7.317   5.778  10.933
86513SOL    HW161313   7.273   5.752  11.014
86513SOL    HW261314   7.324   5.873  10.940
86514SOL     OW61315   1.413   9.188   5.370
86514SOL    HW161316   1.389   9.097   5.388
86514SOL    HW261317   1.359   9.240   5.430
86515SOL     OW61318   6.765   6.903   1.156
86515SOL    HW161319   6.771   6.980   1.099
86515SOL    HW261320   6.675   6.872   1.146
86516SOL     OW61321  13.885   8.323  13.791
86516SOL    HW161322  13.814   8.271  13.753
86516SOL    HW261323  13.935   8.353  13.715
86517SOL     OW61324   1.032  11.140  12.488
86517SOL    HW161325   1.015  11.207  12.421
86517SOL    HW261326   1.119  11.163  12.522
86518SOL     OW61327   2.583   7.840   0.019
86518SOL    HW161328   2.643   7.887  14.840
86518SOL    HW261329   2.539   7.908   0.070
86519SOL     OW61330   1.774  11.570  10.127
86519SOL    HW161331   1.702  11.593  10.069
86519SOL    HW261332   1.778  11.641  10.191
86520SOL     OW61333   5.116   6.563   9.874
86520SOL    HW161334   5.088   6.635   9.931
86520SOL    HW261335   5.045   6.553   9.811
86521SOL     OW61336   3.677   5.819   5.868
86521SOL    HW161337   3.725   5.739   5.847
86521SOL    HW261338   3.656   5.812   5.961
86522SOL     OW61339   9.073  11.153   4.673
86522SOL    HW161340   9.083  11.127   4.581
86522SOL    HW261341   8.999  11.102   4.705
86523SOL     OW61342   7.430   3.094   2.306
86523SOL    HW161343   7.346   3.052   2.290
86523SOL    HW261344   7.486   3.065   2.234
86524SOL     OW61345   3.935  12.301   9.213
86524SOL    HW161346   3.958  12.378   9.160
86524SOL    HW261347   3.909  12.235   9.149
86525SOL     OW61348   1.984  10.066   9.662
86525SOL    HW161349   1.892  10.093   9.662
86525SOL    HW261350   2.029  10.135   9.711
86526SOL     OW61351  13.728   8.841   4.565
86526SOL    HW161352  13.721   8.765   4.624
86526SOL    HW261353  13.735   8.916   4.624
86527SOL     OW61354  12.891   3.063   2.302
86527SOL    HW161355  12.811   3.107   2.272
86527SOL    HW261356  12.872   3.036   2.392
86528SOL     OW61357  12.411   7.805  11.913
86528SOL    HW161358  12.321   7.779  11.929
86528SOL    HW261359  12.406   7.896  11.883
86529SOL     OW61360  14.657  14.552   1.802
86529SOL    HW161361  14.622  14.637   1.825
86529SOL    HW261362  14.581  14.502   1.772
86530SOL     OW61363  10.848   0.484   8.785
86530SOL    HW161364  10.931   0.475   8.737
86530SOL    HW261365  10.789   0.422   8.743
86531SOL     OW61366   5.397   2.736  12.996
86531SOL    HW161367   5.375   2.787  12.917
86531SOL    HW261368   5.484   2.766  13.020
86532SOL     OW61369  11.696   9.949  11.295
86532SOL    HW161370  11.724   9.929  11.384
86532SOL    HW261371  11.775   9.936  11.242
86533SOL     OW61372   6.748  14.264   2.613
86533SOL    HW161373   6.733  14.262   2.519
86533SOL    HW261374   6.767  14.173   2.637
86534SOL     OW61375   2.307   6.766   6.013
86534SOL    HW161376   2.335   6.697   6.072
86534SOL    HW261377   2.258   6.721   5.944
86535SOL     OW61378   5.497   7.504  10.843
86535SOL    HW161379   5.546   7.422  10.848
86535SOL    HW261380   5.503   7.531  10.751
86536SOL     OW61381   8.612   2.540   2.959
86536SOL    HW161382   8.586   2.604   3.025
86536SOL    HW261383   8.542   2.474   2.961
86537SOL     OW61384   6.540   8.084   4.635
86537SOL    HW161385   6.538   8.059   4.727
86537SOL    HW261386   6.632   8.079   4.610
86538SOL     OW61387   4.010   6.302   5.884
86538SOL    HW161388   3.949   6.376   5.885
86538SOL    HW261389   4.078   6.327   5.947
86539SOL     OW61390   3.553  13.910   2.962
86539SOL    HW161391   3.578  13.958   3.041
86539SOL    HW261392   3.465  13.941   2.941
86540SOL     OW61393  10.984   1.757   2.399
86540SOL    HW161394  11.028   1.818   2.340
86540SOL    HW261395  10.905   1.804   2.428
86541SOL     OW61396   0.015  12.425  14.466
86541SOL    HW161397   0.046  12.461  14.549
86541SOL    HW261398  14.849  12.498  14.423
86542SOL     OW61399  12.115  13.826   9.619
86542SOL    HW161400  12.037  13.783   9.656
86542SOL    HW261401  12.133  13.778   9.538
86543SOL     OW61402   4.576  13.311  11.077
86543SOL    HW161403   4.578  13.220  11.050
86543SOL    HW261404   4.592  13.361  10.997
86544SOL     OW61405   0.906   2.765   3.253
86544SOL    HW161406   1.000   2.753   3.238
86544SOL    HW261407   0.901   2.825   3.327
86545SOL     OW61408  11.601   8.467   0.004
86545SOL    HW161409  11.695   8.468   0.016
86545SOL    HW261410  11.573   8.380   0.032
86546SOL     OW61411   0.203  12.558  12.509
86546SOL    HW161412   0.176  12.562  12.601
86546SOL    HW261413   0.131  12.600  12.462
86547SOL     OW61414   7.390   0.390  13.013
86547SOL    HW161415   7.329   0.414  12.943
86547SOL    HW261416   7.413   0.473  13.054
86548SOL     OW61417  13.310  13.840  10.749
86548SOL    HW161418  13.312  13.934  10.767
86548SOL    HW261419  13.352  13.831  10.664
86549SOL     OW61420  12.167   1.150   5.177
86549SOL    HW161421  12.108   1.123   5.107
86549SOL    HW261422  12.118   1.214   5.227
86550SOL     OW61423  11.594  13.587   9.333
86550SOL    HW161424  11.601  13.657   9.398
86550SOL    HW261425  11.501  13.582   9.313
86551SOL     OW61426   3.790   7.126   7.051
86551SOL    HW161427   3.701   7.092   7.055
86551SOL    HW261428   3.812   7.125   6.957
86552SOL     OW61429   3.216  12.195  10.296
86552SOL    HW161430   3.271  12.210  10.373
86552SOL    HW261431   3.174  12.280  10.280
86553SOL     OW61432   5.011  10.799   1.364
86553SOL    HW161433   4.921  10.815   1.334
86553SOL    HW261434   5.021  10.704   1.359
86554SOL     OW61435   7.731   8.482   1.873
86554SOL    HW161436   7.790   8.434   1.932
86554SOL    HW261437   7.741   8.438   1.788
86555SOL     OW61438   0.778  12.420  12.114
86555SOL    HW161439   0.835  12.354  12.075
86555SOL    HW261440   0.734  12.374  12.185
86556SOL     OW61441   3.669  14.230   2.897
86556SOL    HW161442   3.612  14.270   2.831
86556SOL    HW261443   3.728  14.174   2.847
86557SOL     OW61444   0.161   2.450  14.031
86557SOL    HW161445   0.213   2.469  13.953
86557SOL    HW261446   0.211   2.382  14.077
86558SOL     OW61447  11.367  13.376   1.352
86558SOL    HW161448  11.302  13.433   1.393
86558SOL    HW261449  11.380  13.414   1.265
86559SOL     OW61450   8.743   0.901   0.524
86559SOL    HW161451   8.753   0.894   0.429
86559SOL    HW261452   8.651   0.923   0.538
86560SOL     OW61453   7.299   7.719  11.676
86560SOL    HW161454   7.221   7.664  11.674
86560SOL    HW261455   7.272   7.802  11.637
86561SOL     OW61456   9.820  12.702   0.450
86561SOL    HW161457   9.798  12.613   0.420
86561SOL    HW261458   9.915  12.708   0.440
86562SOL     OW61459  11.746  13.239   4.564
86562SOL    HW161460  11.758  13.303   4.635
86562SOL    HW261461  11.810  13.264   4.498
86563SOL     OW61462  13.106   2.585   6.934
86563SOL    HW161463  13.149   2.504   6.906
86563SOL    HW261464  13.174   2.652   6.925
86564SOL     OW61465   6.738  13.058   1.199
86564SOL    HW161466   6.682  12.984   1.218
86564SOL    HW261467   6.793  13.030   1.125
86565SOL     OW61468   6.623   0.153  11.910
86565SOL    HW161469   6.645   0.075  11.859
86565SOL    HW261470   6.530   0.142  11.930
86566SOL     OW61471   6.321   3.180  11.783
86566SOL    HW161472   6.309   3.149  11.872
86566SOL    HW261473   6.385   3.120  11.745
86567SOL     OW61474   0.965   2.084   9.643
86567SOL    HW161475   0.991   2.085   9.551
86567SOL    HW261476   1.003   2.003   9.677
86568SOL     OW61477   0.566  10.612   5.469
86568SOL    HW161478   0.618  10.688   5.445
86568SOL    HW261479   0.625  10.558   5.523
86569SOL     OW61480   4.021  13.245  12.008
86569SOL    HW161481   4.005  13.329  12.051
86569SOL    HW261482   4.064  13.193  12.075
86570SOL     OW61483  14.014   1.506   9.484
86570SOL    HW161484  13.963   1.441   9.436
86570SOL    HW261485  14.105   1.479   9.471
86571SOL     OW61486  12.673  14.385   0.282
86571SOL    HW161487  12.610  14.362   0.214
86571SOL    HW261488  12.710  14.301   0.310
86572SOL     OW61489  11.747  12.903   8.926
86572SOL    HW161490  11.838  12.926   8.942
86572SOL    HW261491  11.748  12.856   8.842
86573SOL     OW61492   3.611   1.873   8.144
86573SOL    HW161493   3.652   1.849   8.228
86573SOL    HW261494   3.649   1.812   8.081
86574SOL     OW61495   9.369   9.556   6.464
86574SOL    HW161496   9.327   9.479   6.426
86574SOL    HW261497   9.413   9.598   6.390
86575SOL     OW61498  13.501  10.734  11.159
86575SOL    HW161499  13.590  10.745  11.192
86575SOL    HW261500  13.488  10.809  11.101
86576SOL     OW61501   3.812   5.123   6.493
86576SOL    HW161502   3.860   5.189   6.542
86576SOL    HW261503   3.874   5.050   6.483
86577SOL     OW61504   6.992  14.604   0.557
86577SOL    HW161505   7.040  14.522   0.559
86577SOL    HW261506   6.931  14.599   0.631
86578SOL     OW61507  10.572   3.496   0.426
86578SOL    HW161508  10.660   3.506   0.462
86578SOL    HW261509  10.549   3.582   0.392
86579SOL     OW61510   7.765   3.140   0.988
86579SOL    HW161511   7.854   3.106   0.978
86579SOL    HW261512   7.758   3.159   1.082
86580SOL     OW61513   0.978   4.441   7.232
86580SOL    HW161514   0.947   4.391   7.308
86580SOL    HW261515   0.916   4.513   7.224
86581SOL     OW61516  13.067   2.233  13.808
86581SOL    HW161517  13.161   2.238  13.797
86581SOL    HW261518  13.054   2.167  13.877
86582SOL     OW61519   3.501  11.157   5.714
86582SOL    HW161520   3.547  11.193   5.790
86582SOL    HW261521   3.537  11.069   5.703
86583SOL     OW61522  13.163   2.553   4.890
86583SOL    HW161523  13.207   2.582   4.810
86583SOL    HW261524  13.190   2.462   4.902
86584SOL     OW61525  14.052  13.351   1.302
86584SOL    HW161526  14.133  13.351   1.353
86584SOL    HW261527  13.997  13.418   1.344
86585SOL     OW61528   7.448   3.491   1.572
86585SOL    HW161529   7.460   3.399   1.593
86585SOL    HW261530   7.503   3.505   1.494
86586SOL     OW61531   1.818   1.392   7.926
86586SOL    HW161532   1.844   1.454   7.858
86586SOL    HW261533   1.877   1.317   7.913
86587SOL     OW61534  11.441  10.015   1.587
86587SOL    HW161535  11.348  10.035   1.594
86587SOL    HW261536  11.456  10.006   1.492
86588SOL     OW61537   7.897  12.945   6.520
86588SOL    HW161538   7.975  12.996   6.499
86588SOL    HW261539   7.823  13.002   6.498
86589SOL     OW61540   8.615   6.844  13.825
86589SOL    HW161541   8.543   6.792  13.790
86589SOL    HW261542   8.643   6.797  13.903
86590SOL     OW61543   9.340   3.114  13.800
86590SOL    HW161544   9.293   3.126  13.883
86590SOL    HW261545   9.329   3.197  13.754
86591SOL     OW61546  11.243   6.205  13.627
86591SOL    HW161547  11.333   6.223  13.600
86591SOL    HW261548  11.243   6.219  13.722
86592SOL     OW61549   1.479   1.669   0.729
86592SOL    HW161550   1.422   1.664   0.807
86592SOL    HW261551   1.544   1.600   0.743
86593SOL     OW61552   1.366   4.879  13.426
86593SOL    HW161553   1.313   4.957  13.408
86593SOL    HW261554   1.457   4.909  13.415
86594SOL     OW61555  14.830   7.182   3.574
86594SOL    HW161556  14.813   7.096   3.535
86594SOL    HW261557  14.760   7.237   3.542
86595SOL     OW61558   5.219   5.549  11.340
86595SOL    HW161559   5.221   5.568  11.246
86595SOL    HW261560   5.310   5.536  11.364
86596SOL     OW61561   3.751  11.052   6.670
86596SOL    HW161562   3.838  11.090   6.681
86596SOL    HW261563   3.767  10.963   6.640
86597SOL     OW61564   4.807  13.796   6.569
86597SOL    HW161565   4.730  13.851   6.558
86597SOL    HW261566   4.772  13.711   6.598
86598SOL     OW61567  11.117   4.625   3.326
86598SOL    HW161568  11.026   4.638   3.300
86598SOL    HW261569  11.148   4.712   3.350
86599SOL     OW61570  11.769   8.975   7.799
86599SOL    HW161571  11.826   8.929   7.860
86599SOL    HW261572  11.826   9.000   7.727
86600SOL     OW61573   7.543  13.236   8.703
86600SOL    HW161574   7.531  13.309   8.642
86600SOL    HW261575   7.483  13.168   8.672
86601SOL     OW61576   5.023  13.050   8.703
86601SOL    HW161577   4.957  13.047   8.772
86601SOL    HW261578   5.082  12.977   8.724
86602SOL     OW61579   6.657   0.951   1.035
86602SOL    HW161580   6.617   0.982   1.117
86602SOL    HW261581   6.655   0.856   1.041
86603SOL     OW61582  13.000   2.065  10.138
86603SOL    HW161583  13.087   2.099  10.121
86603SOL    HW261584  13.008   1.971  10.123
86604SOL     OW61585  14.107   6.906   6.256
86604SOL    HW161586  14.013   6.898   6.269
86604SOL    HW261587  14.121   6.995   6.226
86605SOL     OW61588  12.558  11.984  12.150
86605SOL    HW161589  12.622  11.960  12.083
86605SOL    HW261590  12.473  11.976  12.105
86606SOL     OW61591  11.391  12.852   8.734
86606SOL    HW161592  11.477  12.846   8.692
86606SOL    HW261593  11.393  12.935   8.783
86607SOL     OW61594  14.086   8.427   8.396
86607SOL    HW161595  14.101   8.445   8.303
86607SOL    HW261596  14.168   8.389   8.428
86608SOL     OW61597   7.137  11.828   4.272
86608SOL    HW161598   7.044  11.843   4.287
86608SOL    HW261599   7.171  11.913   4.243
86609SOL     OW61600   7.504   2.105  12.001
86609SOL    HW161601   7.585   2.074  11.961
86609SOL    HW261602   7.446   2.029  11.998
86610SOL     OW61603   4.495   1.041   5.987
86610SOL    HW161604   4.410   1.027   5.946
86610SOL    HW261605   4.478   1.035   6.081
86611SOL     OW61606  11.285   5.808   9.910
86611SOL    HW161607  11.290   5.820  10.005
86611SOL    HW261608  11.199   5.768   9.896
86612SOL     OW61609   6.040   0.960   5.432
86612SOL    HW161610   6.022   0.883   5.378
86612SOL    HW261611   5.955   1.004   5.441
86613SOL     OW61612   0.511  11.172   3.957
86613SOL    HW161613   0.515  11.127   3.873
86613SOL    HW261614   0.521  11.103   4.023
86614SOL     OW61615   4.368  14.086   4.965
86614SOL    HW161616   4.423  14.013   4.993
86614SOL    HW261617   4.424  14.163   4.973
86615SOL     OW61618  13.875   3.325   5.212
86615SOL    HW161619  13.963   3.306   5.246
86615SOL    HW261620  13.817   3.270   5.265
86616SOL     OW61621  14.300   3.610   7.830
86616SOL    HW161622  14.392   3.621   7.850
86616SOL    HW261623  14.265   3.699   7.825
86617SOL     OW61624   3.750   8.526   2.991
86617SOL    HW161625   3.746   8.447   2.937
86617SOL    HW261626   3.834   8.520   3.037
86618SOL     OW61627   4.357   7.244  10.320
86618SOL    HW161628   4.294   7.224  10.251
86618SOL    HW261629   4.395   7.159  10.343
86619SOL     OW61630   5.791  14.507   6.498
86619SOL    HW161631   5.840  14.441   6.547
86619SOL    HW261632   5.797  14.477   6.407
86620SOL     OW61633   6.068  12.455   5.641
86620SOL    HW161634   6.120  12.523   5.596
86620SOL    HW261635   6.014  12.504   5.703
86621SOL     OW61636   3.596  10.922   1.741
86621SOL    HW161637   3.578  10.995   1.799
86621SOL    HW261638   3.562  10.845   1.787
86622SOL     OW61639   1.101   7.987   0.045
86622SOL    HW161640   1.037   8.012   0.113
86622SOL    HW261641   1.185   8.020   0.078
86623SOL     OW61642  12.814   5.670  10.615
86623SOL    HW161643  12.855   5.626  10.540
86623SOL    HW261644  12.853   5.758  10.616
86624SOL     OW61645  10.217   7.599   7.807
86624SOL    HW161646  10.195   7.667   7.743
86624SOL    HW261647  10.230   7.647   7.889
86625SOL     OW61648  14.460  11.587   7.843
86625SOL    HW161649  14.369  11.579   7.814
86625SOL    HW261650  14.480  11.503   7.883
86626SOL     OW61651  14.835   8.657   5.770
86626SOL    HW161652  14.831   8.728   5.835
86626SOL    HW261653  14.759   8.601   5.791
86627SOL     OW61654   8.539   5.086   6.383
86627SOL    HW161655   8.475   5.049   6.322
86627SOL    HW261656   8.597   5.013   6.403
86628SOL     OW61657  11.273   2.183  12.998
86628SOL    HW161658  11.237   2.098  13.021
86628SOL    HW261659  11.339   2.200  13.065
86629SOL     OW61660  12.529  13.865   3.471
86629SOL    HW161661  12.568  13.933   3.527
86629SOL    HW261662  12.542  13.784   3.520
86630SOL     OW61663  12.150   5.034   8.985
86630SOL    HW161664  12.195   5.065   8.907
86630SOL    HW261665  12.212   4.975   9.027
86631SOL     OW61666   3.672   6.705  10.902
86631SOL    HW161667   3.741   6.658  10.949
86631SOL    HW261668   3.611   6.637  10.874
86632SOL     OW61669   1.024  11.043  10.181
86632SOL    HW161670   1.027  10.976  10.248
86632SOL    HW261671   1.076  11.007  10.109
86633SOL     OW61672  11.186  12.509  13.675
86633SOL    HW161673  11.239  12.442  13.718
86633SOL    HW261674  11.240  12.588  13.676
86634SOL     OW61675  12.336  12.644   0.744
86634SOL    HW161676  12.266  12.646   0.809
86634SOL    HW261677  12.354  12.736   0.725
86635SOL     OW61678  10.354   2.541  14.197
86635SOL    HW161679  10.437   2.504  14.228
86635SOL    HW261680  10.289   2.510  14.261
86636SOL     OW61681   1.238  12.546   2.202
86636SOL    HW161682   1.219  12.527   2.110
86636SOL    HW261683   1.225  12.640   2.211
86637SOL     OW61684   8.357   3.166   8.136
86637SOL    HW161685   8.268   3.175   8.171
86637SOL    HW261686   8.365   3.238   8.074
86638SOL     OW61687   8.207  12.869  14.718
86638SOL    HW161688   8.281  12.883  14.659
86638SOL    HW261689   8.132  12.907  14.672
86639SOL     OW61690   5.519   4.936   8.822
86639SOL    HW161691   5.471   4.934   8.740
86639SOL    HW261692   5.496   4.854   8.866
86640SOL     OW61693   7.441   8.276   8.929
86640SOL    HW161694   7.371   8.306   8.988
86640SOL    HW261695   7.415   8.309   8.843
86641SOL     OW61696  12.034  11.059  11.532
86641SOL    HW161697  12.112  11.110  11.513
86641SOL    HW261698  12.053  10.972  11.497
86642SOL     OW61699   1.442   3.073  10.413
86642SOL    HW161700   1.359   3.120  10.415
86642SOL    HW261701   1.497   3.118  10.477
86643SOL     OW61702   6.608   1.683  12.624
86643SOL    HW161703   6.632   1.708  12.714
86643SOL    HW261704   6.661   1.605  12.606
86644SOL     OW61705  10.075   9.852   4.060
86644SOL    HW161706  10.134   9.883   3.991
86644SOL    HW261707   9.994   9.901   4.046
86645SOL     OW61708  11.074   3.166   2.258
86645SOL    HW161709  11.077   3.126   2.171
86645SOL    HW261710  10.983   3.192   2.271
86646SOL     OW61711   5.800   1.393   4.158
86646SOL    HW161712   5.815   1.457   4.087
86646SOL    HW261713   5.745   1.439   4.220
86647SOL     OW61714   0.573   8.343  10.904
86647SOL    HW161715   0.486   8.377  10.880
86647SOL    HW261716   0.607   8.408  10.965
86648SOL     OW61717   9.760  13.370   4.474
86648SOL    HW161718   9.679  13.343   4.517
86648SOL    HW261719   9.821  13.299   4.491
86649SOL     OW61720   4.748  11.230   9.869
86649SOL    HW161721   4.709  11.173   9.803
86649SOL    HW261722   4.710  11.316   9.852
86650SOL     OW61723  10.412   3.490  10.892
86650SOL    HW161724  10.462   3.572  10.892
86650SOL    HW261725  10.470   3.426  10.851
86651SOL     OW61726   3.667   0.106   2.585
86651SOL    HW161727   3.763   0.106   2.589
86651SOL    HW261728   3.646   0.126   2.494
86652SOL     OW61729   3.035   8.561   7.157
86652SOL    HW161730   3.106   8.624   7.153
86652SOL    HW261731   3.025   8.530   7.067
86653SOL     OW61732  11.742  13.110  10.818
86653SOL    HW161733  11.813  13.046  10.813
86653SOL    HW261734  11.718  13.112  10.911
86654SOL     OW61735   9.788   5.502   3.857
86654SOL    HW161736   9.711   5.555   3.836
86654SOL    HW261737   9.854   5.565   3.885
86655SOL     OW61738  12.943  12.898   0.641
86655SOL    HW161739  12.884  12.958   0.687
86655SOL    HW261740  12.969  12.835   0.708
86656SOL     OW61741   6.150   0.562   4.067
86656SOL    HW161742   6.088   0.602   4.005
86656SOL    HW261743   6.125   0.598   4.152
86657SOL     OW61744   8.490  13.986  12.483
86657SOL    HW161745   8.568  14.014  12.435
86657SOL    HW261746   8.423  14.050  12.458
86658SOL     OW61747  13.300   3.943   5.506
86658SOL    HW161748  13.297   3.929   5.601
86658SOL    HW261749  13.238   4.015   5.491
86659SOL     OW61750  14.350   9.468   4.584
86659SOL    HW161751  14.382   9.378   4.579
86659SOL    HW261752  14.342   9.496   4.493
86660SOL     OW61753   3.841  13.077   6.571
86660SOL    HW161754   3.909  13.046   6.511
86660SOL    HW261755   3.795  12.998   6.598
86661SOL     OW61756   8.194   0.153   2.512
86661SOL    HW161757   8.105   0.168   2.543
86661SOL    HW261758   8.230   0.240   2.496
86662SOL     OW61759   7.690   5.725   8.521
86662SOL    HW161760   7.620   5.687   8.574
86662SOL    HW261761   7.760   5.660   8.522
86663SOL     OW61762  10.108   7.524   3.822
86663SOL    HW161763  10.180   7.467   3.849
86663SOL    HW261764  10.099   7.508   3.728
86664SOL     OW61765   3.071   2.503   2.446
86664SOL    HW161766   3.104   2.568   2.509
86664SOL    HW261767   3.103   2.419   2.480
86665SOL     OW61768   8.272   6.167   4.251
86665SOL    HW161769   8.257   6.116   4.331
86665SOL    HW261770   8.354   6.214   4.267
86666SOL     OW61771   9.377   3.909   9.393
86666SOL    HW161772   9.453   3.903   9.335
86666SOL    HW261773   9.302   3.913   9.333
86667SOL     OW61774  12.402   2.164   2.043
86667SOL    HW161775  12.427   2.074   2.019
86667SOL    HW261776  12.368   2.156   2.132
86668SOL     OW61777   6.444   0.576  10.384
86668SOL    HW161778   6.354   0.575  10.351
86668SOL    HW261779   6.473   0.666  10.373
86669SOL     OW61780  12.587   4.846   1.979
86669SOL    HW161781  12.636   4.928   1.973
86669SOL    HW261782  12.495   4.872   1.974
86670SOL     OW61783   3.608   1.568  10.376
86670SOL    HW161784   3.555   1.516  10.436
86670SOL    HW261785   3.545   1.610  10.317
86671SOL     OW61786   5.128   9.853   4.186
86671SOL    HW161787   5.169   9.886   4.107
86671SOL    HW261788   5.041   9.893   4.187
86672SOL     OW61789   9.171  11.690   5.141
86672SOL    HW161790   9.134  11.614   5.186
86672SOL    HW261791   9.094  11.741   5.113
86673SOL     OW61792   3.568   7.347   0.062
86673SOL    HW161793   3.657   7.312   0.064
86673SOL    HW261794   3.512   7.270   0.062
86674SOL     OW61795  12.853   8.102   0.496
86674SOL    HW161796  12.816   8.042   0.561
86674SOL    HW261797  12.790   8.102   0.424
86675SOL     OW61798  10.912   6.863   1.322
86675SOL    HW161799  10.828   6.856   1.366
86675SOL    HW261800  10.891   6.867   1.229
86676SOL     OW61801  13.962   7.324  12.856
86676SOL    HW161802  13.955   7.230  12.875
86676SOL    HW261803  14.002   7.361  12.935
86677SOL     OW61804   3.247   3.301   1.362
86677SOL    HW161805   3.184   3.232   1.340
86677SOL    HW261806   3.199   3.382   1.346
86678SOL     OW61807   7.857   4.158  10.332
86678SOL    HW161808   7.885   4.249  10.329
86678SOL    HW261809   7.767   4.159  10.299
86679SOL     OW61810   9.558   0.236   3.924
86679SOL    HW161811   9.611   0.177   3.979
86679SOL    HW261812   9.583   0.214   3.834
86680SOL     OW61813   2.124   9.264   1.262
86680SOL    HW161814   2.209   9.248   1.301
86680SOL    HW261815   2.132   9.231   1.173
86681SOL     OW61816  14.125   4.156  14.323
86681SOL    HW161817  14.148   4.096  14.252
86681SOL    HW261818  14.094   4.235  14.279
86682SOL     OW61819  13.073   2.021  13.974
86682SOL    HW161820  13.114   1.938  13.950
86682SOL    HW261821  13.021   2.000  14.052
86683SOL     OW61822   5.733   1.656   7.439
86683SOL    HW161823   5.787   1.732   7.418
86683SOL    HW261824   5.657   1.663   7.382
86684SOL     OW61825   6.432   6.858   3.559
86684SOL    HW161826   6.345   6.877   3.594
86684SOL    HW261827   6.490   6.920   3.602
86685SOL     OW61828   4.759   9.118   7.858
86685SOL    HW161829   4.680   9.142   7.810
86685SOL    HW261830   4.732   9.119   7.950
86686SOL     OW61831   5.692  11.208   7.217
86686SOL    HW161832   5.782  11.235   7.203
86686SOL    HW261833   5.652  11.209   7.130
86687SOL     OW61834   4.656   9.439   4.561
86687SOL    HW161835   4.749   9.456   4.550
86687SOL    HW261836   4.615   9.526   4.557
86688SOL     OW61837   1.488  10.519   4.099
86688SOL    HW161838   1.521  10.458   4.033
86688SOL    HW261839   1.502  10.606   4.061
86689SOL     OW61840  13.312  11.110   1.613
86689SOL    HW161841  13.232  11.059   1.605
86689SOL    HW261842  13.359  11.094   1.531
86690SOL     OW61843   8.439   3.532   4.173
86690SOL    HW161844   8.521   3.581   4.167
86690SOL    HW261845   8.398   3.564   4.254
86691SOL     OW61846   3.787   6.464   8.211
86691SOL    HW161847   3.720   6.412   8.255
86691SOL    HW261848   3.738   6.520   8.150
86692SOL     OW61849   5.882   1.133   4.816
86692SOL    HW161850   5.965   1.181   4.813
86692SOL    HW261851   5.845   1.154   4.902
86693SOL     OW61852   2.106   6.161   8.420
86693SOL    HW161853   2.039   6.228   8.406
86693SOL    HW261854   2.139   6.178   8.508
86694SOL     OW61855  14.857  13.146  12.782
86694SOL    HW161856   0.017  13.214  12.727
86694SOL    HW261857   0.045  13.128  12.849
86695SOL     OW61858   7.965   0.377  14.370
86695SOL    HW161859   7.953   0.460  14.323
86695SOL    HW261860   7.922   0.311  14.316
86696SOL     OW61861   2.001   0.343   0.198
86696SOL    HW161862   2.078   0.292   0.173
86696SOL    HW261863   2.011   0.426   0.152
86697SOL     OW61864   7.395   9.684   8.961
86697SOL    HW161865   7.416   9.757   8.902
86697SOL    HW261866   7.420   9.606   8.911
86698SOL     OW61867  11.022  10.954   0.555
86698SOL    HW161868  10.974  11.033   0.530
86698SOL    HW261869  11.001  10.942   0.648
86699SOL     OW61870  10.710  10.376   7.784
86699SOL    HW161871  10.715  10.437   7.711
86699SOL    HW261872  10.622  10.340   7.780
86700SOL     OW61873  13.414   8.736   0.576
86700SOL    HW161874  13.380   8.801   0.637
86700SOL    HW261875  13.487   8.695   0.622
86701SOL     OW61876  11.836   6.797   9.830
86701SOL    HW161877  11.927   6.788   9.855
86701SOL    HW261878  11.787   6.754   9.900
86702SOL     OW61879   2.377   6.308   1.299
86702SOL    HW161880   2.357   6.279   1.388
86702SOL    HW261881   2.304   6.366   1.275
86703SOL     OW61882   8.807   3.052   2.198
86703SOL    HW161883   8.851   3.061   2.282
86703SOL    HW261884   8.724   3.100   2.209
86704SOL     OW61885   2.025   7.666  14.801
86704SOL    HW161886   2.056   7.581  14.769
86704SOL    HW261887   1.934   7.650  14.826
86705SOL     OW61888  10.910  11.369   7.709
86705SOL    HW161889  10.845  11.304   7.682
86705SOL    HW261890  10.899  11.441   7.647
86706SOL     OW61891   4.756  12.173   9.936
86706SOL    HW161892   4.802  12.252   9.964
86706SOL    HW261893   4.664  12.198   9.934
86707SOL     OW61894   6.166   3.795   6.246
86707SOL    HW161895   6.135   3.857   6.312
86707SOL    HW261896   6.218   3.847   6.186
86708SOL     OW61897   8.903  13.469   6.103
86708SOL    HW161898   8.915  13.475   6.198
86708SOL    HW261899   8.933  13.381   6.081
86709SOL     OW61900   5.558  10.515   0.466
86709SOL    HW161901   5.642  10.560   0.454
86709SOL    HW261902   5.508  10.572   0.524
86710SOL     OW61903   7.774   0.471   6.856
86710SOL    HW161904   7.859   0.427   6.855
86710SOL    HW261905   7.714   0.406   6.892
86711SOL     OW61906   8.598   2.272  14.013
86711SOL    HW161907   8.645   2.214  14.073
86711SOL    HW261908   8.560   2.214  13.948
86712SOL     OW61909  12.330   5.134   8.786
86712SOL    HW161910  12.289   5.112   8.703
86712SOL    HW261911  12.334   5.230   8.787
86713SOL     OW61912  10.787   8.534  14.364
86713SOL    HW161913  10.855   8.540  14.431
86713SOL    HW261914  10.834   8.546  14.282
86714SOL     OW61915  12.296  14.270   7.029
86714SOL    HW161916  12.232  14.315   6.973
86714SOL    HW261917  12.250  14.193   7.062
86715SOL     OW61918   8.917   7.204   0.784
86715SOL    HW161919   9.009   7.229   0.777
86715SOL    HW261920   8.893   7.179   0.694
86716SOL     OW61921  10.574  10.756   8.559
86716SOL    HW161922  10.486  10.727   8.583
86716SOL    HW261923  10.572  10.851   8.573
86717SOL     OW61924   3.662   9.349   6.905
86717SOL    HW161925   3.620   9.308   6.829
86717SOL    HW261926   3.751   9.315   6.904
86718SOL     OW61927   8.642  14.635   4.515
86718SOL    HW161928   8.680  14.573   4.453
86718SOL    HW261929   8.696  14.626   4.594
86719SOL     OW61930  11.297   0.755   2.765
86719SOL    HW161931  11.318   0.709   2.847
86719SOL    HW261932  11.222   0.809   2.786
86720SOL     OW61933   2.996   6.111  14.506
86720SOL    HW161934   3.091   6.099  14.499
86720SOL    HW261935   2.967   6.044  14.567
86721SOL     OW61936   5.325  11.874  12.297
86721SOL    HW161937   5.248  11.830  12.260
86721SOL    HW261938   5.398  11.842  12.246
86722SOL     OW61939  11.514  12.353   5.342
86722SOL    HW161940  11.419  12.348   5.350
86722SOL    HW261941  11.535  12.290   5.273
86723SOL     OW61942   7.871  14.072   7.381
86723SOL    HW161943   7.956  14.062   7.422
86723SOL    HW261944   7.886  14.048   7.289
86724SOL     OW61945  13.682   1.133  10.297
86724SOL    HW161946  13.686   1.037  10.292
86724SOL    HW261947  13.710   1.153  10.387
86725SOL     OW61948   5.840   9.488  10.239
86725SOL    HW161949   5.860   9.537  10.160
86725SOL    HW261950   5.831   9.397  10.209
86726SOL     OW61951   1.703   0.606   7.510
86726SOL    HW161952   1.788   0.646   7.489
86726SOL    HW261953   1.642   0.679   7.509
86727SOL     OW61954   5.829  11.347  10.755
86727SOL    HW161955   5.903  11.408  10.756
86727SOL    HW261956   5.779  11.369  10.833
86728SOL     OW61957   2.359  12.332  12.589
86728SOL    HW161958   2.407  12.375  12.660
86728SOL    HW261959   2.312  12.404  12.546
86729SOL     OW61960   5.336  14.710   5.224
86729SOL    HW161961   5.353  14.670   5.139
86729SOL    HW261962   5.336  14.636   5.285
86730SOL     OW61963   4.071   2.591  10.012
86730SOL    HW161964   4.135   2.617  10.078
86730SOL    HW261965   4.011   2.531  10.058
86731SOL     OW61966  11.567   1.791  10.770
86731SOL    HW161967  11.641   1.789  10.830
86731SOL    HW261968  11.570   1.878  10.732
86732SOL     OW61969  11.728   6.808   8.312
86732SOL    HW161970  11.734   6.772   8.223
86732SOL    HW261971  11.728   6.732   8.369
86733SOL     OW61972   0.776   2.625   8.255
86733SOL    HW161973   0.731   2.680   8.190
86733SOL    HW261974   0.750   2.536   8.232
86734SOL     OW61975   9.670  13.716   6.884
86734SOL    HW161976   9.695  13.640   6.832
86734SOL    HW261977   9.721  13.709   6.964
86735SOL     OW61978  13.958   6.159   7.468
86735SOL    HW161979  14.047   6.128   7.447
86735SOL    HW261980  13.963   6.182   7.561
86736SOL     OW61981  11.632   3.890   6.831
86736SOL    HW161982  11.607   3.799   6.847
86736SOL    HW261983  11.576   3.917   6.758
86737SOL     OW61984   0.959   5.166   8.130
86737SOL    HW161985   0.865   5.150   8.117
86737SOL    HW261986   0.995   5.171   8.042
86738SOL     OW61987   0.474   5.937   3.968
86738SOL    HW161988   0.434   5.861   4.010
86738SOL    HW261989   0.499   5.994   4.040
86739SOL     OW61990   9.160  12.812   9.990
86739SOL    HW161991   9.198  12.728  10.017
86739SOL    HW261992   9.066  12.796   9.990
86740SOL     OW61993   4.052   9.034  11.602
86740SOL    HW161994   3.968   8.993  11.579
86740SOL    HW261995   4.029   9.123  11.629
86741SOL     OW61996   8.621  10.615  10.378
86741SOL    HW161997   8.603  10.524  10.401
86741SOL    HW261998   8.547  10.642  10.324
86742SOL     OW61999   0.151   9.409  12.531
86742SOL    HW162000   0.098   9.476  12.574
86742SOL    HW262001   0.239   9.424  12.564
86743SOL     OW62002   7.986   8.079   4.943
86743SOL    HW162003   7.974   8.105   4.852
86743SOL    HW262004   8.047   8.144   4.978
86744SOL     OW62005   1.407  11.323   4.619
86744SOL    HW162006   1.425  11.355   4.531
86744SOL    HW262007   1.444  11.235   4.622
86745SOL     OW62008  13.204  13.342   7.409
86745SOL    HW162009  13.114  13.323   7.436
86745SOL    HW262010  13.198  13.423   7.359
86746SOL     OW62011   4.338  10.099  10.027
86746SOL    HW162012   4.256  10.082  10.073
86746SOL    HW262013   4.335  10.044   9.950
86747SOL     OW62014   2.862  13.099   9.163
86747SOL    HW162015   2.849  13.194   9.156
86747SOL    HW262016   2.956  13.088   9.160
86748SOL     OW62017  10.710  13.411  14.390
86748SOL    HW162018  10.738  13.474  14.324
86748SOL    HW262019  10.687  13.464  14.466
86749SOL     OW62020   3.575   8.280   5.732
86749SOL    HW162021   3.585   8.307   5.823
86749SOL    HW262022   3.628   8.343   5.683
86750SOL     OW62023   0.084  10.954   1.348
86750SOL    HW162024  14.870  10.926   1.348
86750SOL    HW262025   0.121  10.918   1.428
86751SOL     OW62026   1.037  10.704   2.109
86751SOL    HW162027   1.016  10.652   2.031
86751SOL    HW262028   0.971  10.773   2.110
86752SOL     OW62029  13.121  10.952   6.928
86752SOL    HW162030  13.124  10.881   6.993
86752SOL    HW262031  13.047  11.006   6.956
86753SOL     OW62032  12.339   8.165  14.214
86753SOL    HW162033  12.271   8.101  14.230
86753SOL    HW262034  12.402   8.120  14.157
86754SOL     OW62035   5.520   3.670   8.637
86754SOL    HW162036   5.579   3.746   8.631
86754SOL    HW262037   5.501   3.648   8.545
86755SOL     OW62038   2.402   7.866   7.243
86755SOL    HW162039   2.433   7.891   7.330
86755SOL    HW262040   2.379   7.773   7.251
86756SOL     OW62041   8.810  12.884   8.050
86756SOL    HW162042   8.845  12.953   7.994
86756SOL    HW262043   8.816  12.805   7.997
86757SOL     OW62044   7.275  14.795   7.438
86757SOL    HW162045   7.313  14.849   7.508
86757SOL    HW262046   7.189  14.770   7.472
86758SOL     OW62047   9.555   3.341   0.916
86758SOL    HW162048   9.487   3.356   0.982
86758SOL    HW262049   9.637   3.359   0.962
86759SOL     OW62050   7.020   9.372   3.955
86759SOL    HW162051   7.011   9.313   3.880
86759SOL    HW262052   7.049   9.315   4.026
86760SOL     OW62053  13.331  12.305  11.232
86760SOL    HW162054  13.236  12.299  11.244
86760SOL    HW262055  13.358  12.215  11.214
86761SOL     OW62056  13.068  13.805   8.382
86761SOL    HW162057  13.123  13.867   8.431
86761SOL    HW262058  13.042  13.853   8.304
86762SOL     OW62059   1.739   7.648   0.809
86762SOL    HW162060   1.833   7.634   0.803
86762SOL    HW262061   1.727   7.742   0.795
86763SOL     OW62062  13.010   7.648   3.392
86763SOL    HW162063  13.017   7.564   3.437
86763SOL    HW262064  12.966   7.705   3.454
86764SOL     OW62065   2.921  13.098  12.445
86764SOL    HW162066   2.927  13.020  12.389
86764SOL    HW262067   3.003  13.098  12.495
86765SOL     OW62068   7.773   7.446  11.025
86765SOL    HW162069   7.720   7.413  10.953
86765SOL    HW262070   7.849   7.487  10.983
86766SOL     OW62071  10.321   1.112  10.787
86766SOL    HW162072  10.324   1.026  10.744
86766SOL    HW262073  10.265   1.098  10.864
86767SOL     OW62074   2.352  11.654  10.719
86767SOL    HW162075   2.286  11.661  10.788
86767SOL    HW262076   2.306  11.610  10.647
86768SOL     OW62077   5.322  14.463   3.863
86768SOL    HW162078   5.395  14.456   3.801
86768SOL    HW262079   5.264  14.528   3.824
86769SOL     OW62080   7.001  10.812   9.278
86769SOL    HW162081   6.995  10.725   9.319
86769SOL    HW262082   7.066  10.801   9.209
86770SOL     OW62083   0.230   0.231  11.806
86770SOL    HW162084   0.167   0.251  11.737
86770SOL    HW262085   0.304   0.191  11.759
86771SOL     OW62086   3.220   4.766   6.378
86771SOL    HW162087   3.153   4.728   6.321
86771SOL    HW262088   3.197   4.736   6.466
86772SOL     OW62089  10.839   9.054   8.156
86772SOL    HW162090  10.811   9.042   8.065
86772SOL    HW262091  10.905   9.123   8.152
86773SOL     OW62092   3.750   2.064  14.565
86773SOL    HW162093   3.746   2.039  14.473
86773SOL    HW262094   3.795   1.992  14.608
86774SOL     OW62095   4.710   4.811   2.781
86774SOL    HW162096   4.649   4.741   2.756
86774SOL    HW262097   4.752   4.838   2.699
86775SOL     OW62098   7.855   1.336   8.693
86775SOL    HW162099   7.881   1.421   8.656
86775SOL    HW262100   7.759   1.339   8.694
86776SOL     OW62101   4.111   7.688   2.417
86776SOL    HW162102   4.127   7.782   2.407
86776SOL    HW262103   4.184   7.657   2.470
86777SOL     OW62104   5.953   7.191   5.390
86777SOL    HW162105   5.879   7.225   5.339
86777SOL    HW262106   5.979   7.111   5.344
86778SOL     OW62107   9.282   7.770   3.272
86778SOL    HW162108   9.298   7.748   3.364
86778SOL    HW262109   9.211   7.712   3.246
86779SOL     OW62110   7.476   8.959  12.989
86779SOL    HW162111   7.403   9.020  13.003
86779SOL    HW262112   7.450   8.880  13.037
86780SOL     OW62113  12.060  14.401   9.264
86780SOL    HW162114  12.151  14.382   9.240
86780SOL    HW262115  12.066  14.440   9.351
86781SOL     OW62116  11.981   4.460  13.050
86781SOL    HW162117  12.000   4.520  12.978
86781SOL    HW262118  11.992   4.373  13.012
86782SOL     OW62119   2.973   1.083   5.478
86782SOL    HW162120   2.885   1.085   5.517
86782SOL    HW262121   2.972   1.007   5.419
86783SOL     OW62122   8.874   0.021   1.011
86783SOL    HW162123   8.805   0.011   1.076
86783SOL    HW262124   8.952   0.044   1.062
86784SOL     OW62125   7.418   0.610   3.619
86784SOL    HW162126   7.404   0.687   3.674
86784SOL    HW262127   7.509   0.586   3.634
86785SOL     OW62128   4.935  13.358  14.116
86785SOL    HW162129   4.929  13.301  14.039
86785SOL    HW262130   4.985  13.306  14.179
86786SOL     OW62131   4.731   0.259   3.046
86786SOL    HW162132   4.671   0.279   3.118
86786SOL    HW262133   4.817   0.284   3.079
86787SOL     OW62134   2.485  12.438   0.460
86787SOL    HW162135   2.401  12.439   0.414
86787SOL    HW262136   2.549  12.461   0.393
86788SOL     OW62137   5.684  12.714  11.692
86788SOL    HW162138   5.759  12.668  11.654
86788SOL    HW262139   5.644  12.649  11.750
86789SOL     OW62140   4.248   4.377   2.044
86789SOL    HW162141   4.158   4.408   2.031
86789SOL    HW262142   4.261   4.311   1.975
86790SOL     OW62143   4.020   0.549   6.527
86790SOL    HW162144   3.994   0.457   6.522
86790SOL    HW262145   4.058   0.568   6.441
86791SOL     OW62146   5.139  14.423   6.470
86791SOL    HW162147   5.158  14.393   6.559
86791SOL    HW262148   5.065  14.369   6.442
86792SOL     OW62149   1.450   8.487  14.660
86792SOL    HW162150   1.535   8.487  14.704
86792SOL    HW262151   1.442   8.575  14.623
86793SOL     OW62152   2.334   6.057   1.969
86793SOL    HW162153   2.260   6.086   1.916
86793SOL    HW262154   2.314   6.090   2.057
86794SOL     OW62155   4.002   0.006  12.215
86794SOL    HW162156   3.922   0.058  12.225
86794SOL    HW262157   4.070   0.057  12.257
86795SOL     OW62158  10.821  10.818   7.775
86795SOL    HW162159  10.915  10.801   7.776
86795SOL    HW262160  10.782  10.739   7.736
86796SOL     OW62161   4.541   2.729   6.690
86796SOL    HW162162   4.473   2.742   6.624
86796SOL    HW262163   4.517   2.787   6.762
86797SOL     OW62164   4.210  11.215  12.262
86797SOL    HW162165   4.210  11.230  12.356
86797SOL    HW262166   4.196  11.121  12.253
86798SOL     OW62167  14.040   7.899  10.551
86798SOL    HW162168  14.042   7.901  10.647
86798SOL    HW262169  14.131   7.884  10.526
86799SOL     OW62170  12.130  11.160   1.404
86799SOL    HW162171  12.070  11.225   1.369
86799SOL    HW262172  12.089  11.076   1.383
86800SOL     OW62173  13.237   9.442   1.114
86800SOL    HW162174  13.244   9.444   1.210
86800SOL    HW262175  13.313   9.490   1.083
86801SOL     OW62176   2.161   3.224   5.137
86801SOL    HW162177   2.085   3.275   5.165
86801SOL    HW262178   2.124   3.152   5.086
86802SOL     OW62179  14.788   2.039   9.252
86802SOL    HW162180  14.831   1.954   9.240
86802SOL    HW262181  14.803   2.085   9.170
86803SOL     OW62182  12.722   8.940   9.428
86803SOL    HW162183  12.665   8.866   9.407
86803SOL    HW262184  12.700   9.006   9.362
86804SOL     OW62185   1.518   8.183   9.343
86804SOL    HW162186   1.585   8.170   9.411
86804SOL    HW262187   1.522   8.276   9.323
86805SOL     OW62188   8.951  14.361   6.419
86805SOL    HW162189   8.929  14.452   6.397
86805SOL    HW262190   9.046  14.360   6.430
86806SOL     OW62191   8.307   1.575   0.766
86806SOL    HW162192   8.266   1.566   0.852
86806SOL    HW262193   8.400   1.556   0.781
86807SOL     OW62194   2.544   7.081   6.799
86807SOL    HW162195   2.455   7.117   6.790
86807SOL    HW262196   2.569   7.100   6.889
86808SOL     OW62197   3.253   6.768   8.514
86808SOL    HW162198   3.314   6.841   8.500
86808SOL    HW262199   3.250   6.722   8.431
86809SOL     OW62200   0.676  10.848  12.425
86809SOL    HW162201   0.754  10.826  12.477
86809SOL    HW262202   0.703  10.925  12.374
86810SOL     OW62203   9.167   6.304  11.474
86810SOL    HW162204   9.106   6.366  11.514
86810SOL    HW262205   9.194   6.346  11.392
86811SOL     OW62206   8.763  12.664  11.665
86811SOL    HW162207   8.687  12.712  11.630
86811SOL    HW262208   8.791  12.714  11.741
86812SOL     OW62209  12.945  14.322   7.015
86812SOL    HW162210  12.946  14.345   6.922
86812SOL    HW262211  12.860  14.278   7.027
86813SOL     OW62212  11.432   0.866  11.608
86813SOL    HW162213  11.342   0.836  11.593
86813SOL    HW262214  11.438   0.948  11.558
86814SOL     OW62215   9.583   5.642  13.833
86814SOL    HW162216   9.583   5.658  13.739
86814SOL    HW262217   9.621   5.722  13.871
86815SOL     OW62218  10.304  10.881   8.788
86815SOL    HW162219  10.305  10.825   8.865
86815SOL    HW262220  10.373  10.945   8.804
86816SOL     OW62221   1.921   5.213   0.371
86816SOL    HW162222   1.972   5.292   0.355
86816SOL    HW262223   1.881   5.193   0.286
86817SOL     OW62224   2.042  11.715   0.819
86817SOL    HW162225   2.091  11.793   0.845
86817SOL    HW262226   1.962  11.749   0.779
86818SOL     OW62227   4.619  14.003  13.802
86818SOL    HW162228   4.550  13.942  13.827
86818SOL    HW262229   4.573  14.073  13.756
86819SOL     OW62230  10.355  10.749  10.344
86819SOL    HW162231  10.337  10.763  10.251
86819SOL    HW262232  10.409  10.670  10.347
86820SOL     OW62233   0.560   7.081  13.495
86820SOL    HW162234   0.520   7.106  13.578
86820SOL    HW262235   0.577   7.164  13.451
86821SOL     OW62236  14.579   5.166   8.286
86821SOL    HW162237  14.646   5.123   8.233
86821SOL    HW262238  14.617   5.173   8.373
86822SOL     OW62239  14.282   7.692  10.278
86822SOL    HW162240  14.186   7.685  10.285
86822SOL    HW262241  14.305   7.630  10.209
86823SOL     OW62242   6.394  13.830   0.838
86823SOL    HW162243   6.483  13.794   0.843
86823SOL    HW262244   6.389  13.891   0.911
86824SOL     OW62245   8.480   8.480  10.752
86824SOL    HW162246   8.505   8.390  10.771
86824SOL    HW262247   8.559   8.520  10.714
86825SOL     OW62248   5.978  10.849   9.485
86825SOL    HW162249   6.014  10.932   9.453
86825SOL    HW262250   5.988  10.789   9.411
86826SOL     OW62251   8.152   0.636   0.179
86826SOL    HW162252   8.200   0.589   0.111
86826SOL    HW262253   8.061   0.636   0.148
86827SOL     OW62254  11.817  13.513   9.201
86827SOL    HW162255  11.876  13.587   9.218
86827SOL    HW262256  11.729  13.549   9.215
86828SOL     OW62257  14.400   7.840  11.142
86828SOL    HW162258  14.415   7.924  11.099
86828SOL    HW262259  14.314   7.813  11.111
86829SOL     OW62260   2.634   3.932   0.577
86829SOL    HW162261   2.633   3.837   0.588
86829SOL    HW262262   2.648   3.966   0.666
86830SOL     OW62263   2.600   1.879  14.191
86830SOL    HW162264   2.670   1.832  14.145
86830SOL    HW262265   2.583   1.956  14.137
86831SOL     OW62266  13.545   2.982   0.828
86831SOL    HW162267  13.619   2.939   0.870
86831SOL    HW262268  13.482   2.911   0.813
86832SOL     OW62269  13.815   1.242  12.024
86832SOL    HW162270  13.894   1.188  12.026
86832SOL    HW262271  13.821   1.295  12.103
86833SOL     OW62272   9.509  11.182  11.478
86833SOL    HW162273   9.562  11.132  11.416
86833SOL    HW262274   9.456  11.116  11.522
86834SOL     OW62275   0.599   0.802  12.140
86834SOL    HW162276   0.563   0.853  12.067
86834SOL    HW262277   0.548   0.721  12.141
86835SOL     OW62278  13.300   0.168   8.383
86835SOL    HW162279  13.341   0.251   8.359
86835SOL    HW262280  13.333   0.105   8.320
86836SOL     OW62281  10.247   4.448  10.006
86836SOL    HW162282  10.218   4.365   9.968
86836SOL    HW262283  10.315   4.424  10.069
86837SOL     OW62284   0.906   3.297   9.734
86837SOL    HW162285   0.906   3.201   9.735
86837SOL    HW262286   0.909   3.320   9.641
86838SOL     OW62287   2.862   2.577  13.387
86838SOL    HW162288   2.921   2.631  13.440
86838SOL    HW262289   2.829   2.510  13.447
86839SOL     OW62290   6.386   3.449   7.650
86839SOL    HW162291   6.310   3.400   7.620
86839SOL    HW262292   6.348   3.521   7.702
86840SOL     OW62293   1.533  10.662   9.104
86840SOL    HW162294   1.623  10.676   9.135
86840SOL    HW262295   1.481  10.661   9.184
86841SOL     OW62296   2.628   3.457   3.408
86841SOL    HW162297   2.702   3.511   3.435
86841SOL    HW262298   2.584   3.433   3.490
86842SOL     OW62299   5.907   3.810   3.672
86842SOL    HW162300   5.858   3.729   3.655
86842SOL    HW262301   5.900   3.860   3.590
86843SOL     OW62302   8.130  11.655  10.592
86843SOL    HW162303   8.125  11.560  10.591
86843SOL    HW262304   8.220  11.675  10.564
86844SOL     OW62305   2.920  14.487   7.275
86844SOL    HW162306   2.836  14.468   7.317
86844SOL    HW262307   2.921  14.429   7.198
86845SOL     OW62308   6.347   9.907  11.195
86845SOL    HW162309   6.253   9.904  11.178
86845SOL    HW262310   6.357   9.968  11.267
86846SOL     OW62311   9.840   8.749   0.843
86846SOL    HW162312   9.772   8.694   0.882
86846SOL    HW262313   9.914   8.740   0.902
86847SOL     OW62314  14.098   8.703   4.149
86847SOL    HW162315  14.176   8.649   4.152
86847SOL    HW262316  14.047   8.677   4.225
86848SOL     OW62317   3.884   1.815   5.502
86848SOL    HW162318   3.870   1.909   5.498
86848SOL    HW262319   3.816   1.783   5.561
86849SOL     OW62320   5.150  14.486  14.021
86849SOL    HW162321   5.131  14.483  13.927
86849SOL    HW262322   5.142  14.578  14.045
86850SOL     OW62323  13.259  10.533   4.723
86850SOL    HW162324  13.287  10.616   4.760
86850SOL    HW262325  13.166  10.544   4.706
86851SOL     OW62326  11.208   9.469   8.615
86851SOL    HW162327  11.113   9.463   8.614
86851SOL    HW262328  11.231   9.468   8.708
86852SOL     OW62329   5.295   0.893   5.184
86852SOL    HW162330   5.267   0.968   5.237
86852SOL    HW262331   5.249   0.904   5.101
86853SOL     OW62332  10.230   7.643   6.734
86853SOL    HW162333  10.273   7.726   6.717
86853SOL    HW262334  10.191   7.618   6.650
86854SOL     OW62335  12.096   9.835   3.332
86854SOL    HW162336  12.054   9.750   3.342
86854SOL    HW262337  12.136   9.833   3.245
86855SOL     OW62338  14.789  12.306   6.059
86855SOL    HW162339  14.718  12.311   5.995
86855SOL    HW262340  14.753  12.343   6.139
86856SOL     OW62341   3.492   8.939  10.144
86856SOL    HW162342   3.561   8.993  10.182
86856SOL    HW262343   3.513   8.935  10.051
86857SOL     OW62344  13.857  13.886   0.766
86857SOL    HW162345  13.885  13.827   0.696
86857SOL    HW262346  13.844  13.970   0.723
86858SOL     OW62347   3.664   0.422  11.971
86858SOL    HW162348   3.754   0.451  11.953
86858SOL    HW262349   3.611   0.465  11.904
86859SOL     OW62350   7.985   3.708   8.682
86859SOL    HW162351   8.066   3.659   8.698
86859SOL    HW262352   8.010   3.799   8.697
86860SOL     OW62353   4.568  12.582   4.886
86860SOL    HW162354   4.613  12.569   4.969
86860SOL    HW262355   4.634  12.622   4.829
86861SOL     OW62356  12.162   5.426   3.750
86861SOL    HW162357  12.081   5.399   3.793
86861SOL    HW262358  12.223   5.353   3.765
86862SOL     OW62359   2.760   7.014  12.351
86862SOL    HW162360   2.736   7.074  12.280
86862SOL    HW262361   2.835   6.965  12.317
86863SOL     OW62362   3.097   5.403  13.455
86863SOL    HW162363   3.069   5.494  13.463
86863SOL    HW262364   3.076   5.379  13.365
86864SOL     OW62365   1.621   0.557  12.515
86864SOL    HW162366   1.690   0.560  12.449
86864SOL    HW262367   1.598   0.464  12.520
86865SOL     OW62368   4.272   7.933   9.643
86865SOL    HW162369   4.294   8.001   9.580
86865SOL    HW262370   4.323   7.954   9.721
86866SOL     OW62371   1.565   1.556   3.515
86866SOL    HW162372   1.475   1.569   3.545
86866SOL    HW262373   1.570   1.604   3.433
86867SOL     OW62374   3.622   5.085   4.513
86867SOL    HW162375   3.560   5.028   4.467
86867SOL    HW262376   3.655   5.031   4.585
86868SOL     OW62377   2.794   2.633   0.322
86868SOL    HW162378   2.864   2.684   0.363
86868SOL    HW262379   2.792   2.664   0.231
86869SOL     OW62380   4.101   6.352   3.908
86869SOL    HW162381   4.061   6.339   3.822
86869SOL    HW262382   4.170   6.417   3.894
86870SOL     OW62383   8.304   3.642   4.379
86870SOL    HW162384   8.316   3.727   4.421
86870SOL    HW262385   8.288   3.581   4.452
86871SOL     OW62386  14.541  10.387   2.175
86871SOL    HW162387  14.605  10.457   2.161
86871SOL    HW262388  14.593  10.307   2.171
86872SOL     OW62389  14.326   2.872   1.499
86872SOL    HW162390  14.396   2.837   1.554
86872SOL    HW262391  14.251   2.814   1.517
86873SOL     OW62392   9.962  10.812  13.253
86873SOL    HW162393  10.006  10.821  13.168
86873SOL    HW262394  10.033  10.791  13.314
86874SOL     OW62395  13.249   3.419   2.756
86874SOL    HW162396  13.258   3.398   2.662
86874SOL    HW262397  13.283   3.341   2.801
86875SOL     OW62398   8.830   0.662  13.787
86875SOL    HW162399   8.796   0.739  13.834
86875SOL    HW262400   8.836   0.594  13.854
86876SOL     OW62401   1.516   9.951   5.379
86876SOL    HW162402   1.444   9.891   5.357
86876SOL    HW262403   1.558   9.970   5.295
86877SOL     OW62404  12.012   8.327  13.581
86877SOL    HW162405  12.008   8.346  13.674
86877SOL    HW262406  11.941   8.264  13.566
86878SOL     OW62407   8.654   0.763   2.932
86878SOL    HW162408   8.634   0.680   2.887
86878SOL    HW262409   8.746   0.755   2.956
86879SOL     OW62410   6.350   1.917  10.157
86879SOL    HW162411   6.283   1.970  10.113
86879SOL    HW262412   6.341   1.830  10.119
86880SOL     OW62413   8.707   6.089   1.476
86880SOL    HW162414   8.672   6.100   1.388
86880SOL    HW262415   8.648   6.027   1.518
86881SOL     OW62416   4.342   8.169   3.427
86881SOL    HW162417   4.336   8.098   3.491
86881SOL    HW262418   4.359   8.247   3.480
86882SOL     OW62419   9.609   6.585  12.440
86882SOL    HW162420   9.658   6.666  12.422
86882SOL    HW262421   9.543   6.610  12.504
86883SOL     OW62422   3.171  13.326   8.370
86883SOL    HW162423   3.083  13.311   8.406
86883SOL    HW262424   3.160  13.321   8.276
86884SOL     OW62425  11.010   7.009  10.934
86884SOL    HW162426  11.095   7.005  10.890
86884SOL    HW262427  10.975   7.095  10.912
86885SOL     OW62428  13.173  10.254   5.767
86885SOL    HW162429  13.186  10.209   5.683
86885SOL    HW262430  13.116  10.328   5.746
86886SOL     OW62431  11.577  11.203  12.504
86886SOL    HW162432  11.511  11.236  12.442
86886SOL    HW262433  11.560  11.251  12.585
86887SOL     OW62434   7.283   1.939  11.936
86887SOL    HW162435   7.278   1.895  11.852
86887SOL    HW262436   7.245   1.877  11.999
86888SOL     OW62437  14.249   7.630   2.341
86888SOL    HW162438  14.299   7.553   2.314
86888SOL    HW262439  14.305   7.673   2.405
86889SOL     OW62440   7.010   3.380   6.972
86889SOL    HW162441   7.032   3.287   6.966
86889SOL    HW262442   7.088   3.425   6.940
86890SOL     OW62443   1.034  14.216   3.443
86890SOL    HW162444   1.082  14.158   3.502
86890SOL    HW262445   1.009  14.290   3.497
86891SOL     OW62446  14.408  10.074  13.122
86891SOL    HW162447  14.495  10.045  13.149
86891SOL    HW262448  14.392  10.153  13.173
86892SOL     OW62449   9.074   2.283   8.545
86892SOL    HW162450   9.008   2.258   8.610
86892SOL    HW262451   9.064   2.378   8.535
86893SOL     OW62452   5.267  12.422  10.841
86893SOL    HW162453   5.180  12.387  10.820
86893SOL    HW262454   5.319  12.344  10.861
86894SOL     OW62455  11.443   0.702   7.450
86894SOL    HW162456  11.521   0.757   7.453
86894SOL    HW262457  11.477   0.613   7.449
86895SOL     OW62458  13.007  11.338   9.565
86895SOL    HW162459  12.979  11.397   9.495
86895SOL    HW262460  13.070  11.390   9.615
86896SOL     OW62461   5.884   0.924  13.061
86896SOL    HW162462   5.802   0.907  13.015
86896SOL    HW262463   5.919   1.003  13.020
86897SOL     OW62464  14.186   4.425   5.007
86897SOL    HW162465  14.091   4.410   5.007
86897SOL    HW262466  14.206   4.455   5.095
86898SOL     OW62467  12.670  11.385  11.935
86898SOL    HW162468  12.655  11.319  12.002
86898SOL    HW262469  12.765  11.398  11.935
86899SOL     OW62470  14.676   8.432   8.763
86899SOL    HW162471  14.637   8.423   8.850
86899SOL    HW262472  14.662   8.347   8.721
86900SOL     OW62473   6.457   9.784   1.262
86900SOL    HW162474   6.520   9.744   1.322
86900SOL    HW262475   6.407   9.845   1.316
86901SOL     OW62476  12.591  12.048   5.200
86901SOL    HW162477  12.528  12.030   5.270
86901SOL    HW262478  12.643  12.121   5.232
86902SOL     OW62479  12.532   7.847   5.292
86902SOL    HW162480  12.569   7.875   5.208
86902SOL    HW262481  12.506   7.928   5.335
86903SOL     OW62482  14.333  14.089  13.662
86903SOL    HW162483  14.317  14.022  13.729
86903SOL    HW262484  14.316  14.171  13.707
86904SOL     OW62485   7.095   5.606   9.966
86904SOL    HW162486   7.014   5.657   9.960
86904SOL    HW262487   7.134   5.613   9.879
86905SOL     OW62488  11.715   6.369  14.221
86905SOL    HW162489  11.805   6.340  14.202
86905SOL    HW262490  11.726   6.458  14.256
86906SOL     OW62491  11.814   4.238   0.605
86906SOL    HW162492  11.902   4.241   0.568
86906SOL    HW262493  11.807   4.151   0.644
86907SOL     OW62494  13.445  13.176  13.885
86907SOL    HW162495  13.445  13.088  13.923
86907SOL    HW262496  13.513  13.223  13.933
86908SOL     OW62497   3.650   2.404   0.665
86908SOL    HW162498   3.595   2.332   0.695
86908SOL    HW262499   3.677   2.449   0.745
86909SOL     OW62500  11.029   8.958   0.691
86909SOL    HW162501  10.970   8.929   0.622
86909SOL    HW262502  10.973   8.971   0.767
86910SOL     OW62503   1.016   1.467   3.134
86910SOL    HW162504   0.967   1.392   3.098
86910SOL    HW262505   1.098   1.466   3.085
86911SOL     OW62506  12.861  13.312  11.443
86911SOL    HW162507  12.877  13.250  11.514
86911SOL    HW262508  12.942  13.313  11.392
86912SOL     OW62509   3.768   9.499   1.235
86912SOL    HW162510   3.837   9.443   1.200
86912SOL    HW262511   3.716   9.523   1.158
86913SOL     OW62512   0.951  10.568  10.690
86913SOL    HW162513   0.883  10.609  10.636
86913SOL    HW262514   1.008  10.641  10.715
86914SOL     OW62515  12.356   5.926  13.953
86914SOL    HW162516  12.373   5.842  13.995
86914SOL    HW262517  12.305   5.905  13.875
86915SOL     OW62518   5.653  14.072  12.934
86915SOL    HW162519   5.588  14.065  12.865
86915SOL    HW262520   5.729  14.111  12.892
86916SOL     OW62521   9.227  14.251   0.348
86916SOL    HW162522   9.158  14.244   0.414
86916SOL    HW262523   9.180  14.250   0.265
86917SOL     OW62524  10.619  10.201   0.131
86917SOL    HW162525  10.666  10.276   0.094
86917SOL    HW262526  10.645  10.127   0.076
86918SOL     OW62527   2.313  11.099   7.375
86918SOL    HW162528   2.402  11.068   7.358
86918SOL    HW262529   2.258  11.046   7.317
86919SOL     OW62530  12.474  14.744   9.885
86919SOL    HW162531  12.441  14.659   9.855
86919SOL    HW262532  12.413  14.770   9.953
86920SOL     OW62533   7.216  10.330   6.638
86920SOL    HW162534   7.308  10.312   6.619
86920SOL    HW262535   7.217  10.407   6.694
86921SOL     OW62536   9.553  13.460   0.067
86921SOL    HW162537   9.556  13.503   0.152
86921SOL    HW262538   9.577  13.369   0.084
86922SOL     OW62539   1.743   6.561   7.347
86922SOL    HW162540   1.726   6.650   7.378
86922SOL    HW262541   1.675   6.545   7.281
86923SOL     OW62542   7.394   2.015   3.182
86923SOL    HW162543   7.364   1.998   3.093
86923SOL    HW262544   7.335   1.964   3.238
86924SOL     OW62545   0.437  14.180   6.276
86924SOL    HW162546   0.406  14.228   6.352
86924SOL    HW262547   0.426  14.088   6.300
86925SOL     OW62548  11.063   3.282   2.650
86925SOL    HW162549  11.116   3.228   2.591
86925SOL    HW262550  11.081   3.247   2.737
86926SOL     OW62551  14.541  10.009   1.353
86926SOL    HW162552  14.552   9.921   1.317
86926SOL    HW262553  14.446  10.022   1.356
86927SOL     OW62554   7.662   4.809   5.099
86927SOL    HW162555   7.701   4.737   5.049
86927SOL    HW262556   7.584   4.834   5.049
86928SOL     OW62557   8.677  11.733   6.380
86928SOL    HW162558   8.697  11.717   6.288
86928SOL    HW262559   8.676  11.646   6.420
86929SOL     OW62560   7.963   3.465   8.274
86929SOL    HW162561   7.894   3.481   8.339
86929SOL    HW262562   8.029   3.532   8.292
86930SOL     OW62563   8.231   9.801   8.654
86930SOL    HW162564   8.247   9.786   8.561
86930SOL    HW262565   8.211   9.714   8.689
86931SOL     OW62566   1.435   5.094   2.239
86931SOL    HW162567   1.411   5.186   2.226
86931SOL    HW262568   1.469   5.091   2.328
86932SOL     OW62569   9.294   2.589   9.104
86932SOL    HW162570   9.370   2.563   9.156
86932SOL    HW262571   9.221   2.540   9.140
86933SOL     OW62572  10.928  11.152   1.347
86933SOL    HW162573  10.835  11.167   1.331
86933SOL    HW262574  10.963  11.240   1.366
86934SOL     OW62575  12.906   6.700  12.322
86934SOL    HW162576  12.987   6.742  12.290
86934SOL    HW262577  12.936   6.644  12.394
86935SOL     OW62578   4.175   2.696   2.230
86935SOL    HW162579   4.236   2.765   2.204
86935SOL    HW262580   4.105   2.742   2.276
86936SOL     OW62581   5.062   9.613   8.978
86936SOL    HW162582   5.060   9.693   9.030
86936SOL    HW262583   5.001   9.630   8.906
86937SOL     OW62584   7.345   6.435   6.370
86937SOL    HW162585   7.339   6.345   6.340
86937SOL    HW262586   7.355   6.428   6.465
86938SOL     OW62587   8.680   4.332   6.952
86938SOL    HW162588   8.604   4.376   6.913
86938SOL    HW262589   8.654   4.317   7.043
86939SOL     OW62590  12.174   2.872   4.435
86939SOL    HW162591  12.155   2.905   4.348
86939SOL    HW262592  12.120   2.794   4.444
86940SOL     OW62593   7.340   4.313   5.157
86940SOL    HW162594   7.324   4.291   5.249
86940SOL    HW262595   7.425   4.273   5.137
86941SOL     OW62596  12.369   3.501  14.682
86941SOL    HW162597  12.374   3.578  14.739
86941SOL    HW262598  12.302   3.445  14.722
86942SOL     OW62599   8.874   7.890  12.010
86942SOL    HW162600   8.817   7.961  11.982
86942SOL    HW262601   8.957   7.932  12.030
86943SOL     OW62602   2.795   1.287  10.321
86943SOL    HW162603   2.803   1.214  10.382
86943SOL    HW262604   2.769   1.362  10.375
86944SOL     OW62605   1.215   8.913   9.709
86944SOL    HW162606   1.177   8.838   9.662
86944SOL    HW262607   1.225   8.980   9.642
86945SOL     OW62608  14.845  13.626   6.411
86945SOL    HW162609   0.035  13.586   6.356
86945SOL    HW262610  14.766  13.625   6.357
86946SOL     OW62611   4.747  10.783   1.223
86946SOL    HW162612   4.730  10.783   1.129
86946SOL    HW262613   4.699  10.706   1.256
86947SOL     OW62614   0.755   5.291   7.358
86947SOL    HW162615   0.740   5.208   7.314
86947SOL    HW262616   0.669   5.318   7.389
86948SOL     OW62617   3.002   6.393   6.138
86948SOL    HW162618   3.086   6.380   6.095
86948SOL    HW262619   2.956   6.309   6.127
86949SOL     OW62620  14.719  12.924   8.014
86949SOL    HW162621  14.779  12.892   8.082
86949SOL    HW262622  14.659  12.983   8.061
86950SOL     OW62623   5.401   8.092   8.674
86950SOL    HW162624   5.373   8.145   8.599
86950SOL    HW262625   5.342   8.119   8.745
86951SOL     OW62626   2.822   9.732  10.242
86951SOL    HW162627   2.791   9.643  10.224
86951SOL    HW262628   2.834   9.734  10.337
86952SOL     OW62629   8.836   5.100   0.322
86952SOL    HW162630   8.863   5.161   0.253
86952SOL    HW262631   8.746   5.124   0.342
86953SOL     OW62632   3.119  12.161   8.559
86953SOL    HW162633   3.148  12.251   8.572
86953SOL    HW262634   3.186  12.122   8.503
86954SOL     OW62635   1.374  14.723  11.707
86954SOL    HW162636   1.431  14.766  11.771
86954SOL    HW262637   1.416  14.640  11.688
86955SOL     OW62638   9.387  10.973   1.820
86955SOL    HW162639   9.453  10.947   1.755
86955SOL    HW262640   9.317  10.908   1.809
86956SOL     OW62641   4.980  13.824   7.726
86956SOL    HW162642   5.025  13.870   7.655
86956SOL    HW262643   4.973  13.734   7.696
86957SOL     OW62644   6.738   2.053   1.091
86957SOL    HW162645   6.694   2.136   1.071
86957SOL    HW262646   6.827   2.064   1.058
86958SOL     OW62647  12.495  14.756   0.569
86958SOL    HW162648  12.558  14.816   0.529
86958SOL    HW262649  12.483  14.791   0.658
86959SOL     OW62650  12.652   1.740   0.044
86959SOL    HW162651  12.616   1.691  14.847
86959SOL    HW262652  12.623   1.691   0.121
86960SOL     OW62653   1.905  12.785  10.167
86960SOL    HW162654   1.899  12.881  10.166
86960SOL    HW262655   1.975  12.765  10.105
86961SOL     OW62656   6.326   9.363   3.307
86961SOL    HW162657   6.307   9.363   3.401
86961SOL    HW262658   6.321   9.271   3.281
86962SOL     OW62659   0.786   2.134   5.484
86962SOL    HW162660   0.780   2.181   5.567
86962SOL    HW262661   0.752   2.196   5.419
86963SOL     OW62662   3.192  12.190   0.108
86963SOL    HW162663   3.270  12.134   0.107
86963SOL    HW262664   3.156  12.180   0.020
86964SOL     OW62665   0.882   2.149  10.879
86964SOL    HW162666   0.966   2.162  10.924
86964SOL    HW262667   0.823   2.116  10.946
86965SOL     OW62668  12.111   7.923  11.792
86965SOL    HW162669  12.111   7.828  11.806
86965SOL    HW262670  12.029   7.941  11.747
86966SOL     OW62671  10.026   2.632   8.729
86966SOL    HW162672  10.037   2.657   8.820
86966SOL    HW262673   9.990   2.710   8.687
86967SOL     OW62674   9.169  13.863  11.739
86967SOL    HW162675   9.160  13.782  11.790
86967SOL    HW262676   9.189  13.833  11.651
86968SOL     OW62677   0.970   4.605   5.364
86968SOL    HW162678   1.010   4.565   5.441
86968SOL    HW262679   1.019   4.685   5.350
86969SOL     OW62680   0.086  13.129   5.601
86969SOL    HW162681   0.174  13.104   5.575
86969SOL    HW262682   0.099  13.190   5.674
86970SOL     OW62683   8.065   1.567   5.509
86970SOL    HW162684   8.056   1.531   5.597
86970SOL    HW262685   8.060   1.491   5.451
86971SOL     OW62686   2.193  11.005   7.152
86971SOL    HW162687   2.197  11.076   7.088
86971SOL    HW262688   2.104  10.971   7.145
86972SOL     OW62689   5.511  10.222   4.538
86972SOL    HW162690   5.605  10.204   4.537
86972SOL    HW262691   5.470  10.138   4.518
86973SOL     OW62692  10.780  11.129   9.937
86973SOL    HW162693  10.807  11.150   9.848
86973SOL    HW262694  10.750  11.038   9.932
86974SOL     OW62695  14.099   9.935   2.275
86974SOL    HW162696  14.044   9.958   2.200
86974SOL    HW262697  14.057   9.978   2.349
86975SOL     OW62698  12.489  12.159  14.386
86975SOL    HW162699  12.401  12.184  14.413
86975SOL    HW262700  12.532  12.243  14.367
86976SOL     OW62701   0.780  10.632  10.264
86976SOL    HW162702   0.742  10.559  10.216
86976SOL    HW262703   0.762  10.613  10.356
86977SOL     OW62704  12.631   4.545   6.543
86977SOL    HW162705  12.611   4.503   6.626
86977SOL    HW262706  12.720   4.516   6.522
86978SOL     OW62707   4.488   2.157  10.080
86978SOL    HW162708   4.483   2.130  10.172
86978SOL    HW262709   4.577   2.132  10.054
86979SOL     OW62710   8.553  11.925  11.587
86979SOL    HW162711   8.458  11.934  11.578
86979SOL    HW262712   8.581  12.010  11.622
86980SOL     OW62713  12.710  14.547  11.868
86980SOL    HW162714  12.643  14.515  11.806
86980SOL    HW262715  12.777  14.585  11.812
86981SOL     OW62716   8.930  10.777   2.305
86981SOL    HW162717   8.950  10.704   2.363
86981SOL    HW262718   8.890  10.736   2.228
86982SOL     OW62719   9.901  11.441   2.139
86982SOL    HW162720   9.865  11.516   2.092
86982SOL    HW262721   9.900  11.369   2.076
86983SOL     OW62722  14.244   5.686   9.789
86983SOL    HW162723  14.201   5.688   9.875
86983SOL    HW262724  14.318   5.746   9.798
86984SOL     OW62725   2.439  11.613   7.888
86984SOL    HW162726   2.392  11.530   7.879
86984SOL    HW262727   2.469  11.633   7.799
86985SOL     OW62728   7.565  11.382   7.434
86985SOL    HW162729   7.537  11.321   7.367
86985SOL    HW262730   7.517  11.463   7.415
86986SOL     OW62731  12.026   0.911   9.503
86986SOL    HW162732  12.041   0.822   9.533
86986SOL    HW262733  12.107   0.958   9.525
86987SOL     OW62734   7.678   0.843   5.033
86987SOL    HW162735   7.622   0.842   5.111
86987SOL    HW262736   7.703   0.935   5.023
86988SOL     OW62737  13.535   0.206   1.483
86988SOL    HW162738  13.454   0.248   1.511
86988SOL    HW262739  13.579   0.272   1.429
86989SOL     OW62740  14.666  13.901   8.070
86989SOL    HW162741  14.629  13.869   8.153
86989SOL    HW262742  14.637  13.992   8.065
86990SOL     OW62743   7.275   9.361  11.779
86990SOL    HW162744   7.353   9.324  11.737
86990SOL    HW262745   7.306   9.439  11.824
86991SOL     OW62746  10.873  10.252   6.312
86991SOL    HW162747  10.862  10.205   6.394
86991SOL    HW262748  10.859  10.343   6.334
86992SOL     OW62749   8.656   0.099   7.196
86992SOL    HW162750   8.662   0.169   7.261
86992SOL    HW262751   8.569   0.109   7.157
86993SOL     OW62752   8.249  11.757   4.842
86993SOL    HW162753   8.222  11.746   4.933
86993SOL    HW262754   8.214  11.843   4.817
86994SOL     OW62755  14.819  13.763   3.099
86994SOL    HW162756  14.727  13.789   3.099
86994SOL    HW262757  14.852  13.793   3.184
86995SOL     OW62758   2.317   0.949  11.825
86995SOL    HW162759   2.326   0.855  11.835
86995SOL    HW262760   2.275   0.960  11.740
86996SOL     OW62761   0.765   3.800   1.507
86996SOL    HW162762   0.771   3.861   1.433
86996SOL    HW262763   0.785   3.854   1.583
86997SOL     OW62764   1.324  13.176   4.088
86997SOL    HW162765   1.246  13.147   4.042
86997SOL    HW262766   1.310  13.148   4.179
86998SOL     OW62767   8.672   2.325   5.213
86998SOL    HW162768   8.662   2.412   5.251
86998SOL    HW262769   8.583   2.291   5.205
86999SOL     OW62770   0.419  11.524  11.741
86999SOL    HW162771   0.344  11.516  11.682
86999SOL    HW262772   0.485  11.467  11.702
87000SOL     OW62773  10.706  14.298  12.719
87000SOL    HW162774  10.682  14.235  12.788
87000SOL    HW262775  10.664  14.264  12.641
87001SOL     OW62776   2.878   9.616   4.711
87001SOL    HW162777   2.935   9.559   4.763
87001SOL    HW262778   2.801   9.562   4.692
87002SOL     OW62779   8.466   0.100   5.617
87002SOL    HW162780   8.505   0.187   5.615
87002SOL    HW262781   8.512   0.055   5.688
87003SOL     OW62782   3.916   5.296   2.715
87003SOL    HW162783   3.858   5.341   2.653
87003SOL    HW262784   3.859   5.234   2.760
87004SOL     OW62785   4.739   8.545   8.085
87004SOL    HW162786   4.808   8.518   8.025
87004SOL    HW262787   4.688   8.609   8.036
87005SOL     OW62788  13.722  13.734   9.302
87005SOL    HW162789  13.811  13.759   9.277
87005SOL    HW262790  13.720  13.639   9.289
87006SOL     OW62791  10.647  13.235  11.347
87006SOL    HW162792  10.729  13.192  11.370
87006SOL    HW262793  10.593  13.228  11.426
87007SOL     OW62794  11.029   2.024   1.434
87007SOL    HW162795  11.090   1.966   1.389
87007SOL    HW262796  11.018   1.984   1.521
87008SOL     OW62797  11.919   1.900   3.931
87008SOL    HW162798  11.959   1.878   4.015
87008SOL    HW262799  11.855   1.968   3.952
87009SOL     OW62800  11.725  10.063   6.732
87009SOL    HW162801  11.647  10.013   6.710
87009SOL    HW262802  11.704  10.153   6.705
87010SOL     OW62803   6.020  10.389   0.126
87010SOL    HW162804   6.000  10.473   0.084
87010SOL    HW262805   6.113  10.375   0.107
87011SOL     OW62806   4.557   2.835   3.463
87011SOL    HW162807   4.565   2.919   3.509
87011SOL    HW262808   4.554   2.770   3.533
87012SOL     OW62809  12.033   5.445  13.429
87012SOL    HW162810  12.086   5.439  13.509
87012SOL    HW262811  11.974   5.370  13.434
87013SOL     OW62812   7.313   6.502   5.025
87013SOL    HW162813   7.280   6.569   4.965
87013SOL    HW262814   7.235   6.472   5.073
87014SOL     OW62815   4.613  14.307   4.575
87014SOL    HW162816   4.538  14.335   4.523
87014SOL    HW262817   4.665  14.386   4.586
87015SOL     OW62818  11.814  10.378   1.558
87015SOL    HW162819  11.745  10.312   1.570
87015SOL    HW262820  11.846  10.396   1.647
87016SOL     OW62821  13.007   9.770  12.562
87016SOL    HW162822  12.927   9.815  12.534
87016SOL    HW262823  13.071   9.791  12.494
87017SOL     OW62824   3.509   7.510  14.309
87017SOL    HW162825   3.513   7.445  14.239
87017SOL    HW262826   3.448   7.473  14.373
87018SOL     OW62827  13.888   5.538   4.372
87018SOL    HW162828  13.819   5.487   4.330
87018SOL    HW262829  13.889   5.507   4.462
87019SOL     OW62830   1.294   1.173   7.203
87019SOL    HW162831   1.310   1.151   7.294
87019SOL    HW262832   1.199   1.165   7.192
87020SOL     OW62833   2.771   2.623   5.270
87020SOL    HW162834   2.847   2.565   5.263
87020SOL    HW262835   2.808   2.711   5.255
87021SOL     OW62836  14.258   5.465   1.780
87021SOL    HW162837  14.225   5.400   1.718
87021SOL    HW262838  14.182   5.521   1.798
87022SOL     OW62839   6.748   0.785   7.349
87022SOL    HW162840   6.788   0.871   7.353
87022SOL    HW262841   6.819   0.726   7.324
87023SOL     OW62842   0.050   4.026  13.669
87023SOL    HW162843   0.016   3.993  13.752
87023SOL    HW262844   0.097   4.106  13.692
87024SOL     OW62845   4.786  13.056  14.689
87024SOL    HW162846   4.783  13.114  14.613
87024SOL    HW262847   4.872  13.015  14.683
87025SOL     OW62848   0.353  14.838  10.525
87025SOL    HW162849   0.429   0.011  10.497
87025SOL    HW262850   0.378  14.747  10.508
87026SOL     OW62851   2.123   0.761   2.431
87026SOL    HW162852   2.177   0.690   2.397
87026SOL    HW262853   2.067   0.720   2.497
87027SOL     OW62854   9.970  13.314  12.814
87027SOL    HW162855  10.042  13.339  12.872
87027SOL    HW262856   9.893  13.353  12.854
87028SOL     OW62857  14.013   0.450   6.142
87028SOL    HW162858  13.918   0.448   6.132
87028SOL    HW262859  14.027   0.477   6.233
87029SOL     OW62860   6.411   5.075   7.543
87029SOL    HW162861   6.410   5.171   7.532
87029SOL    HW262862   6.325   5.047   7.514
87030SOL     OW62863   9.529  10.168   3.799
87030SOL    HW162864   9.512  10.241   3.859
87030SOL    HW262865   9.528  10.090   3.855
87031SOL     OW62866   3.674   8.831   5.501
87031SOL    HW162867   3.691   8.920   5.470
87031SOL    HW262868   3.596   8.803   5.453
87032SOL     OW62869   7.303   6.068  10.949
87032SOL    HW162870   7.374   6.078  10.886
87032SOL    HW262871   7.255   6.151  10.944
87033SOL     OW62872   8.153   7.659   9.119
87033SOL    HW162873   8.118   7.673   9.031
87033SOL    HW262874   8.168   7.748   9.152
87034SOL     OW62875   1.832  13.722  10.748
87034SOL    HW162876   1.879  13.786  10.695
87034SOL    HW262877   1.784  13.669  10.684
87035SOL     OW62878  12.543   5.461   1.068
87035SOL    HW162879  12.616   5.432   1.013
87035SOL    HW262880  12.583   5.521   1.131
87036SOL     OW62881   8.490   3.804   9.913
87036SOL    HW162882   8.430   3.774   9.844
87036SOL    HW262883   8.502   3.897   9.895
87037SOL     OW62884   9.529   9.018   5.560
87037SOL    HW162885   9.524   9.073   5.638
87037SOL    HW262886   9.497   8.932   5.588
87038SOL     OW62887   9.772  11.464   2.691
87038SOL    HW162888   9.692  11.447   2.741
87038SOL    HW262889   9.838  11.407   2.731
87039SOL     OW62890   6.051   4.786  11.983
87039SOL    HW162891   5.968   4.801  12.028
87039SOL    HW262892   6.100   4.728  12.042
87040SOL     OW62893  12.983   7.990   7.977
87040SOL    HW162894  13.020   8.075   7.952
87040SOL    HW262895  12.888   8.001   7.962
87041SOL     OW62896   8.959   8.849   0.589
87041SOL    HW162897   9.008   8.793   0.650
87041SOL    HW262898   8.884   8.880   0.640
87042SOL     OW62899   6.700   4.314   2.480
87042SOL    HW162900   6.613   4.341   2.511
87042SOL    HW262901   6.690   4.310   2.384
87043SOL     OW62902   9.654  12.346   7.584
87043SOL    HW162903   9.664  12.314   7.673
87043SOL    HW262904   9.743  12.347   7.549
87044SOL     OW62905   1.201   4.447  12.182
87044SOL    HW162906   1.210   4.402  12.098
87044SOL    HW262907   1.243   4.531  12.169
87045SOL     OW62908  14.516   0.035  12.793
87045SOL    HW162909  14.467   0.047  12.875
87045SOL    HW262910  14.449   0.023  12.726
87046SOL     OW62911  14.763   2.730   3.262
87046SOL    HW162912  14.716   2.683   3.330
87046SOL    HW262913  14.802   2.661   3.208
87047SOL     OW62914   0.570   9.465  10.672
87047SOL    HW162915   0.531   9.452  10.759
87047SOL    HW262916   0.496   9.458  10.612
87048SOL     OW62917   3.778   3.075   7.552
87048SOL    HW162918   3.832   3.053   7.628
87048SOL    HW262919   3.836   3.126   7.495
87049SOL     OW62920  12.273  13.729  14.228
87049SOL    HW162921  12.361  13.714  14.193
87049SOL    HW262922  12.231  13.788  14.166
87050SOL     OW62923   5.338   8.141   0.012
87050SOL    HW162924   5.296   8.098   0.086
87050SOL    HW262925   5.429   8.111   0.015
87051SOL     OW62926  12.774   3.626  14.586
87051SOL    HW162927  12.781   3.661  14.675
87051SOL    HW262928  12.682   3.640  14.562
87052SOL     OW62929   0.650   6.893  13.759
87052SOL    HW162930   0.606   6.972  13.791
87052SOL    HW262931   0.638   6.829  13.829
87053SOL     OW62932  12.944   3.760   8.200
87053SOL    HW162933  12.877   3.821   8.231
87053SOL    HW262934  12.893   3.689   8.159
87054SOL     OW62935   6.779   6.511   3.856
87054SOL    HW162936   6.800   6.486   3.946
87054SOL    HW262937   6.803   6.434   3.804
87055SOL     OW62938   5.493   2.581   7.441
87055SOL    HW162939   5.491   2.525   7.519
87055SOL    HW262940   5.582   2.616   7.438
87056SOL     OW62941   9.167   7.278  11.302
87056SOL    HW162942   9.096   7.222  11.270
87056SOL    HW262943   9.247   7.235  11.272
87057SOL     OW62944   7.272   2.631   4.880
87057SOL    HW162945   7.358   2.588   4.890
87057SOL    HW262946   7.291   2.724   4.885
87058SOL     OW62947   9.746   7.828   1.870
87058SOL    HW162948   9.822   7.813   1.925
87058SOL    HW262949   9.706   7.741   1.860
87059SOL     OW62950  12.746   9.114   2.266
87059SOL    HW162951  12.728   9.027   2.231
87059SOL    HW262952  12.768   9.099   2.358
87060SOL     OW62953  12.538   7.866   8.092
87060SOL    HW162954  12.577   7.877   8.006
87060SOL    HW262955  12.596   7.912   8.152
87061SOL     OW62956   0.027   3.637   6.119
87061SOL    HW162957   0.026   3.714   6.176
87061SOL    HW262958   0.086   3.575   6.163
87062SOL     OW62959   3.605   8.728   0.224
87062SOL    HW162960   3.601   8.642   0.267
87062SOL    HW262961   3.697   8.753   0.229
87063SOL     OW62962  11.073   0.153  13.533
87063SOL    HW162963  11.060   0.169  13.627
87063SOL    HW262964  11.111   0.066  13.529
87064SOL     OW62965  11.413   3.790   9.051
87064SOL    HW162966  11.460   3.854   8.997
87064SOL    HW262967  11.449   3.802   9.139
87065SOL     OW62968   5.402   4.689   1.035
87065SOL    HW162969   5.361   4.674   1.120
87065SOL    HW262970   5.336   4.662   0.972
87066SOL     OW62971   4.376   4.852   7.164
87066SOL    HW162972   4.298   4.831   7.113
87066SOL    HW262973   4.415   4.768   7.185
87067SOL     OW62974   7.993  10.509   9.497
87067SOL    HW162975   7.973  10.446   9.567
87067SOL    HW262976   8.001  10.455   9.418
87068SOL     OW62977  10.854   5.292   6.430
87068SOL    HW162978  10.915   5.298   6.504
87068SOL    HW262979  10.840   5.382   6.403
87069SOL     OW62980   1.213   4.790  11.830
87069SOL    HW162981   1.300   4.785  11.792
87069SOL    HW262982   1.226   4.835  11.913
87070SOL     OW62983   3.989   0.292  12.009
87070SOL    HW162984   4.036   0.275  11.927
87070SOL    HW262985   3.931   0.217  12.019
87071SOL     OW62986   8.396  12.225  14.305
87071SOL    HW162987   8.357  12.138  14.307
87071SOL    HW262988   8.460  12.225  14.376
87072SOL     OW62989  12.541   0.400   3.952
87072SOL    HW162990  12.543   0.451   3.871
87072SOL    HW262991  12.455   0.358   3.952
87073SOL     OW62992  13.460   5.082   2.375
87073SOL    HW162993  13.450   4.998   2.421
87073SOL    HW262994  13.501   5.140   2.440
87074SOL     OW62995  11.164   4.554   0.947
87074SOL    HW162996  11.099   4.530   0.881
87074SOL    HW262997  11.240   4.584   0.896
87075SOL     OW62998   0.242   9.374   8.436
87075SOL    HW162999   0.329   9.336   8.427
87075SOL    HW263000   0.206   9.372   8.347
87076SOL     OW63001   4.844   5.055  11.766
87076SOL    HW163002   4.894   5.130  11.734
87076SOL    HW263003   4.833   5.073  11.860
87077SOL     OW63004   0.206   7.328   3.994
87077SOL    HW163005   0.165   7.357   3.912
87077SOL    HW263006   0.216   7.409   4.045
87078SOL     OW63007   8.404   5.873   2.710
87078SOL    HW163008   8.460   5.828   2.773
87078SOL    HW263009   8.322   5.823   2.710
87079SOL     OW63010   5.005  11.502   1.761
87079SOL    HW163011   4.913  11.489   1.739
87079SOL    HW263012   5.052  11.446   1.699
87080SOL     OW63013   4.388  11.888  13.611
87080SOL    HW163014   4.369  11.947  13.684
87080SOL    HW263015   4.473  11.851  13.633
87081SOL     OW63016  10.678  14.276   7.040
87081SOL    HW163017  10.764  14.254   7.076
87081SOL    HW263018  10.687  14.367   7.011
87082SOL     OW63019   7.546   5.463   3.942
87082SOL    HW163020   7.553   5.392   3.879
87082SOL    HW263021   7.458   5.498   3.929
87083SOL     OW63022   0.136  12.863   6.686
87083SOL    HW163023   0.042  12.872   6.704
87083SOL    HW263024   0.148  12.907   6.602
87084SOL     OW63025  11.223   2.034   3.413
87084SOL    HW163026  11.235   2.004   3.323
87084SOL    HW263027  11.245   2.127   3.410
87085SOL     OW63028  14.120   1.596  11.065
87085SOL    HW163029  14.134   1.504  11.041
87085SOL    HW263030  14.204   1.624  11.102
87086SOL     OW63031   9.698   9.483   4.941
87086SOL    HW163032   9.741   9.523   5.016
87086SOL    HW263033   9.620   9.441   4.978
87087SOL     OW63034  12.064   6.989  13.788
87087SOL    HW163035  11.986   7.017  13.835
87087SOL    HW263036  12.058   6.893  13.785
87088SOL     OW63037   6.066  13.568   5.439
87088SOL    HW163038   6.152  13.587   5.399
87088SOL    HW263039   6.043  13.481   5.407
87089SOL     OW63040   7.642  13.873   4.567
87089SOL    HW163041   7.593  13.852   4.487
87089SOL    HW263042   7.731  13.844   4.549
87090SOL     OW63043  10.043   6.003   2.620
87090SOL    HW163044  10.098   5.932   2.652
87090SOL    HW263045  10.099   6.051   2.558
87091SOL     OW63046   3.801   8.640  10.268
87091SOL    HW163047   3.865   8.579  10.306
87091SOL    HW263048   3.720   8.622  10.316
87092SOL     OW63049   9.338  14.273  13.025
87092SOL    HW163050   9.258  14.226  13.050
87092SOL    HW263051   9.312  14.365  13.024
87093SOL     OW63052   1.817   7.473  12.451
87093SOL    HW163053   1.798   7.388  12.491
87093SOL    HW263054   1.851   7.526  12.523
87094SOL     OW63055  11.836  13.010  10.068
87094SOL    HW163056  11.926  12.980  10.054
87094SOL    HW263057  11.789  12.986   9.988
87095SOL     OW63058   8.213   1.452   1.270
87095SOL    HW163059   8.300   1.458   1.231
87095SOL    HW263060   8.178   1.368   1.240
87096SOL     OW63061   4.274  10.860  12.477
87096SOL    HW163062   4.217  10.877  12.552
87096SOL    HW263063   4.341  10.928  12.482
87097SOL     OW63064  14.797   8.397  10.593
87097SOL    HW163065  14.702   8.384  10.600
87097SOL    HW263066  14.834   8.331  10.652
87098SOL     OW63067   8.696   9.958   8.776
87098SOL    HW163068   8.755  10.032   8.765
87098SOL    HW263069   8.749   9.891   8.819
87099SOL     OW63070   5.775   1.303  12.842
87099SOL    HW163071   5.687   1.310  12.879
87099SOL    HW263072   5.764   1.247  12.765
87100SOL     OW63073   0.973   3.816   4.963
87100SOL    HW163074   0.929   3.760   4.899
87100SOL    HW263075   1.066   3.796   4.952
87101SOL     OW63076  10.857   2.255   2.363
87101SOL    HW163077  10.890   2.296   2.443
87101SOL    HW263078  10.804   2.323   2.321
87102SOL     OW63079   8.355   1.391   3.681
87102SOL    HW163080   8.320   1.417   3.596
87102SOL    HW263081   8.430   1.449   3.694
87103SOL     OW63082   8.690   9.336   1.416
87103SOL    HW163083   8.721   9.299   1.498
87103SOL    HW263084   8.707   9.267   1.351
87104SOL     OW63085  11.140   9.441   4.138
87104SOL    HW163086  11.087   9.505   4.090
87104SOL    HW263087  11.207   9.494   4.182
87105SOL     OW63088   0.714  13.046   6.783
87105SOL    HW163089   0.674  13.040   6.696
87105SOL    HW263090   0.677  12.973   6.832
87106SOL     OW63091   2.007  10.786   5.228
87106SOL    HW163092   2.055  10.790   5.145
87106SOL    HW263093   1.999  10.877   5.256
87107SOL     OW63094   7.288   9.291  14.876
87107SOL    HW163095   7.254   9.364  14.825
87107SOL    HW263096   7.307   9.223  14.810
87108SOL     OW63097   6.023   3.050   0.877
87108SOL    HW163098   6.066   2.999   0.809
87108SOL    HW263099   6.089   3.112   0.907
87109SOL     OW63100  14.255  12.290   0.323
87109SOL    HW163101  14.316  12.218   0.337
87109SOL    HW263102  14.170  12.248   0.314
87110SOL     OW63103   2.612   9.180   3.222
87110SOL    HW163104   2.699   9.169   3.260
87110SOL    HW263105   2.551   9.164   3.294
87111SOL     OW63106  14.233  12.938   6.991
87111SOL    HW163107  14.247  13.022   7.035
87111SOL    HW263108  14.162  12.954   6.929
87112SOL     OW63109   0.716  11.765   2.821
87112SOL    HW163110   0.670  11.699   2.874
87112SOL    HW263111   0.718  11.727   2.733
87113SOL     OW63112  12.525   5.783   7.201
87113SOL    HW163113  12.582   5.722   7.248
87113SOL    HW263114  12.449   5.794   7.259
87114SOL     OW63115   1.085   6.658  12.957
87114SOL    HW163116   1.058   6.650  12.866
87114SOL    HW263117   1.004   6.678  13.004
87115SOL     OW63118   8.584   8.652  14.246
87115SOL    HW163119   8.561   8.573  14.295
87115SOL    HW263120   8.514   8.661  14.181
87116SOL     OW63121   7.722   2.934  12.889
87116SOL    HW163122   7.649   2.996  12.887
87116SOL    HW263123   7.684   2.851  12.862
87117SOL     OW63124   5.944  13.423   1.743
87117SOL    HW163125   6.034  13.406   1.712
87117SOL    HW263126   5.927  13.354   1.807
87118SOL     OW63127  10.830  14.266   8.888
87118SOL    HW163128  10.851  14.183   8.845
87118SOL    HW263129  10.777  14.241   8.964
87119SOL     OW63130  11.225  14.457  10.524
87119SOL    HW163131  11.270  14.389  10.573
87119SOL    HW263132  11.163  14.495  10.586
87120SOL     OW63133   1.412  13.854   0.360
87120SOL    HW163134   1.422  13.802   0.440
87120SOL    HW263135   1.406  13.944   0.391
87121SOL     OW63136   2.441   5.014   7.150
87121SOL    HW163137   2.425   5.105   7.123
87121SOL    HW263138   2.356   4.971   7.142
87122SOL     OW63139   4.651  10.294   6.411
87122SOL    HW163140   4.609  10.306   6.326
87122SOL    HW263141   4.727  10.352   6.408
87123SOL     OW63142  11.078  13.409  10.400
87123SOL    HW163143  11.011  13.475  10.386
87123SOL    HW263144  11.135  13.446  10.468
87124SOL     OW63145   8.808   3.874   0.548
87124SOL    HW163146   8.779   3.861   0.639
87124SOL    HW263147   8.739   3.835   0.495
87125SOL     OW63148   7.709  12.846   0.581
87125SOL    HW163149   7.734  12.867   0.671
87125SOL    HW263150   7.751  12.914   0.528
87126SOL     OW63151   5.633   7.097   5.781
87126SOL    HW163152   5.668   7.185   5.767
87126SOL    HW263153   5.659   7.048   5.703
87127SOL     OW63154   2.984   7.517   7.554
87127SOL    HW163155   2.979   7.611   7.540
87127SOL    HW263156   2.905   7.497   7.605
87128SOL     OW63157   5.923   2.448   7.439
87128SOL    HW163158   5.975   2.396   7.379
87128SOL    HW263159   5.866   2.384   7.483
87129SOL     OW63160  13.798   5.048  13.835
87129SOL    HW163161  13.815   5.012  13.922
87129SOL    HW263162  13.866   5.113  13.822
87130SOL     OW63163   4.515   2.746   9.818
87130SOL    HW163164   4.513   2.815   9.884
87130SOL    HW263165   4.432   2.699   9.831
87131SOL     OW63166   9.612   4.841  10.767
87131SOL    HW163167   9.528   4.829  10.723
87131SOL    HW263168   9.669   4.775  10.729
87132SOL     OW63169   0.579  13.675   4.105
87132SOL    HW163170   0.539  13.617   4.170
87132SOL    HW263171   0.627  13.740   4.157
87133SOL     OW63172  13.028   2.394   3.697
87133SOL    HW163173  13.030   2.429   3.785
87133SOL    HW263174  13.033   2.299   3.708
87134SOL     OW63175   2.328   1.758  14.120
87134SOL    HW163176   2.265   1.819  14.080
87134SOL    HW263177   2.409   1.808  14.125
87135SOL     OW63178   3.295   6.180   4.561
87135SOL    HW163179   3.201   6.169   4.547
87135SOL    HW263180   3.304   6.268   4.598
87136SOL     OW63181   1.005  11.390   6.995
87136SOL    HW163182   1.024  11.479   7.026
87136SOL    HW263183   0.913  11.393   6.970
87137SOL     OW63184   9.223   0.989   3.889
87137SOL    HW163185   9.188   0.902   3.870
87137SOL    HW263186   9.146   1.046   3.893
87138SOL     OW63187  10.948  12.494  12.449
87138SOL    HW163188  10.995  12.410  12.454
87138SOL    HW263189  10.856  12.471  12.458
87139SOL     OW63190   6.016   7.335  13.433
87139SOL    HW163191   5.977   7.263  13.482
87139SOL    HW263192   6.038   7.297  13.348
87140SOL     OW63193   2.059  13.975   1.160
87140SOL    HW163194   2.094  13.933   1.239
87140SOL    HW263195   2.010  13.905   1.116
87141SOL     OW63196  11.552   5.508  13.724
87141SOL    HW163197  11.571   5.417  13.703
87141SOL    HW263198  11.468   5.506  13.769
87142SOL     OW63199   2.608   7.682   2.522
87142SOL    HW163200   2.592   7.776   2.513
87142SOL    HW263201   2.696   7.669   2.488
87143SOL     OW63202   5.820  10.030   7.815
87143SOL    HW163203   5.791   9.939   7.807
87143SOL    HW263204   5.750  10.081   7.776
87144SOL     OW63205   9.164   4.475   6.290
87144SOL    HW163206   9.124   4.549   6.335
87144SOL    HW263207   9.257   4.496   6.285
87145SOL     OW63208   1.973   5.754  11.763
87145SOL    HW163209   1.996   5.782  11.674
87145SOL    HW263210   1.984   5.659  11.762
87146SOL     OW63211   5.926  11.214   8.219
87146SOL    HW163212   5.832  11.228   8.208
87146SOL    HW263213   5.966  11.295   8.187
87147SOL     OW63214  13.110  13.321  12.800
87147SOL    HW163215  13.201  13.330  12.771
87147SOL    HW263216  13.073  13.255  12.741
87148SOL     OW63217   7.363   5.663   5.320
87148SOL    HW163218   7.282   5.622   5.351
87148SOL    HW263219   7.425   5.650   5.391
87149SOL     OW63220  10.562   0.729   7.592
87149SOL    HW163221  10.597   0.676   7.520
87149SOL    HW263222  10.627   0.720   7.662
87150SOL     OW63223  10.025   6.944  10.584
87150SOL    HW163224   9.998   6.853  10.594
87150SOL    HW263225   9.987   6.989  10.660
87151SOL     OW63226   2.158   6.869   4.671
87151SOL    HW163227   2.220   6.911   4.730
87151SOL    HW263228   2.087   6.932   4.662
87152SOL     OW63229   8.711   3.090   1.925
87152SOL    HW163230   8.726   3.132   2.010
87152SOL    HW263231   8.729   2.998   1.941
87153SOL     OW63232   0.745   9.064  13.346
87153SOL    HW163233   0.686   9.113  13.403
87153SOL    HW263234   0.810   9.026  13.405
87154SOL     OW63235   9.462   1.818   3.165
87154SOL    HW163236   9.556   1.828   3.153
87154SOL    HW263237   9.445   1.854   3.252
87155SOL     OW63238  12.399  13.418   8.195
87155SOL    HW163239  12.391  13.470   8.275
87155SOL    HW263240  12.322  13.362   8.194
87156SOL     OW63241  12.688  10.456   7.946
87156SOL    HW163242  12.638  10.411   7.878
87156SOL    HW263243  12.700  10.390   8.015
87157SOL     OW63244   2.556   7.932   7.027
87157SOL    HW163245   2.641   7.891   7.044
87157SOL    HW263246   2.496   7.889   7.088
87158SOL     OW63247   5.839  11.127   3.316
87158SOL    HW163248   5.882  11.175   3.246
87158SOL    HW263249   5.796  11.054   3.273
87159SOL     OW63250   1.381   0.244   9.358
87159SOL    HW163251   1.333   0.164   9.381
87159SOL    HW263252   1.345   0.312   9.414
87160SOL     OW63253   8.063   1.964   9.621
87160SOL    HW163254   8.131   1.902   9.596
87160SOL    HW263255   8.096   2.004   9.702
87161SOL     OW63256   9.592   9.428   0.314
87161SOL    HW163257   9.626   9.475   0.238
87161SOL    HW263258   9.554   9.496   0.370
87162SOL     OW63259   8.503   1.291   8.884
87162SOL    HW163260   8.475   1.373   8.926
87162SOL    HW263261   8.435   1.228   8.909
87163SOL     OW63262   8.232   6.290   2.191
87163SOL    HW163263   8.278   6.254   2.116
87163SOL    HW263264   8.152   6.237   2.198
87164SOL     OW63265   7.845  12.346   9.137
87164SOL    HW163266   7.789  12.341   9.214
87164SOL    HW263267   7.804  12.286   9.074
87165SOL     OW63268   9.191   2.734   6.514
87165SOL    HW163269   9.180   2.652   6.466
87165SOL    HW263270   9.244   2.711   6.590
87166SOL     OW63271  12.581   3.079  12.335
87166SOL    HW163272  12.496   3.113  12.306
87166SOL    HW263273  12.565   3.046  12.424
87167SOL     OW63274  14.798   8.726  13.548
87167SOL    HW163275  14.808   8.696  13.638
87167SOL    HW263276  14.762   8.814  13.555
87168SOL     OW63277   8.825   4.708   3.957
87168SOL    HW163278   8.733   4.682   3.960
87168SOL    HW263279   8.841   4.726   3.864
87169SOL     OW63280  11.907   9.819   0.325
87169SOL    HW163281  11.850   9.816   0.402
87169SOL    HW263282  11.923   9.727   0.303
87170SOL     OW63283  12.914  14.230   6.398
87170SOL    HW163284  13.006  14.251   6.380
87170SOL    HW263285  12.871  14.237   6.313
87171SOL     OW63286   1.851   1.318  12.196
87171SOL    HW163287   1.764   1.293  12.166
87171SOL    HW263288   1.842   1.408  12.226
87172SOL     OW63289  11.310   2.103  14.348
87172SOL    HW163290  11.297   2.190  14.385
87172SOL    HW263291  11.370   2.060  14.410
87173SOL     OW63292   3.039   6.216   4.498
87173SOL    HW163293   3.000   6.267   4.568
87173SOL    HW263294   2.989   6.135   4.496
87174SOL     OW63295  11.577   3.509   0.464
87174SOL    HW163296  11.574   3.491   0.558
87174SOL    HW263297  11.595   3.602   0.457
87175SOL     OW63298   7.310   2.667   9.590
87175SOL    HW163299   7.280   2.615   9.515
87175SOL    HW263300   7.231   2.684   9.641
87176SOL     OW63301   7.445   7.627  14.598
87176SOL    HW163302   7.370   7.643  14.540
87176SOL    HW263303   7.510   7.584  14.542
87177SOL     OW63304   5.172   7.315  13.727
87177SOL    HW163305   5.113   7.245  13.755
87177SOL    HW263306   5.117   7.393  13.725
87178SOL     OW63307  13.416   7.189  10.972
87178SOL    HW163308  13.462   7.189  11.057
87178SOL    HW263309  13.343   7.249  10.984
87179SOL     OW63310   5.199  14.696   4.765
87179SOL    HW163311   5.240  14.761   4.707
87179SOL    HW263312   5.146  14.642   4.707
87180SOL     OW63313  10.756   4.783  10.397
87180SOL    HW163314  10.671   4.827  10.409
87180SOL    HW263315  10.757   4.714  10.463
87181SOL     OW63316  10.310  13.330  10.147
87181SOL    HW163317  10.227  13.360  10.111
87181SOL    HW263318  10.352  13.284  10.074
87182SOL     OW63319  14.601   8.117   5.816
87182SOL    HW163320  14.623   8.197   5.768
87182SOL    HW263321  14.606   8.142   5.908
87183SOL     OW63322   4.999   9.469   1.856
87183SOL    HW163323   5.080   9.470   1.907
87183SOL    HW263324   4.981   9.561   1.838
87184SOL     OW63325   3.721   4.400   6.216
87184SOL    HW163326   3.766   4.447   6.146
87184SOL    HW263327   3.735   4.307   6.195
87185SOL     OW63328   8.504   4.343  14.662
87185SOL    HW163329   8.540   4.303  14.741
87185SOL    HW263330   8.570   4.329  14.595
87186SOL     OW63331   1.612  14.315  11.985
87186SOL    HW163332   1.688  14.370  12.003
87186SOL    HW263333   1.541  14.355  12.036
87187SOL     OW63334  11.879   3.354   0.162
87187SOL    HW163335  11.878   3.259   0.149
87187SOL    HW263336  11.896   3.365   0.256
87188SOL     OW63337   0.411   5.299   0.534
87188SOL    HW163338   0.468   5.343   0.597
87188SOL    HW263339   0.391   5.367   0.470
87189SOL     OW63340   2.399  14.243   2.705
87189SOL    HW163341   2.346  14.164   2.708
87189SOL    HW263342   2.463  14.232   2.775
87190SOL     OW63343   1.686  11.918   6.120
87190SOL    HW163344   1.734  11.871   6.052
87190SOL    HW263345   1.705  12.010   6.103
87191SOL     OW63346   1.110   1.400   8.262
87191SOL    HW163347   1.093   1.335   8.330
87191SOL    HW263348   1.189   1.369   8.217
87192SOL     OW63349   8.391   6.188  13.619
87192SOL    HW163350   8.484   6.174  13.634
87192SOL    HW263351   8.378   6.282  13.634
87193SOL     OW63352   7.537  14.864   5.867
87193SOL    HW163353   7.579   0.061   5.825
87193SOL    HW263354   7.591  14.789   5.843
87194SOL     OW63355   8.397   9.365   7.610
87194SOL    HW163356   8.373   9.413   7.531
87194SOL    HW263357   8.488   9.339   7.595
87195SOL     OW63358   3.421   9.906   2.626
87195SOL    HW163359   3.364   9.910   2.703
87195SOL    HW263360   3.504   9.942   2.656
87196SOL     OW63361   7.598  14.152  10.452
87196SOL    HW163362   7.636  14.126  10.536
87196SOL    HW263363   7.667  14.135  10.388
87197SOL     OW63364  11.648   9.965  13.262
87197SOL    HW163365  11.624   9.873  13.254
87197SOL    HW263366  11.730   9.973  13.213
87198SOL     OW63367  10.071   1.319   4.842
87198SOL    HW163368  10.106   1.342   4.928
87198SOL    HW263369  10.130   1.362   4.780
87199SOL     OW63370   5.544  13.450  14.057
87199SOL    HW163371   5.553  13.502  13.977
87199SOL    HW263372   5.633  13.425  14.080
87200SOL     OW63373  10.928   1.450   3.308
87200SOL    HW163374  10.942   1.468   3.401
87200SOL    HW263375  10.867   1.377   3.306
87201SOL     OW63376   6.103  14.009   4.814
87201SOL    HW163377   6.049  13.931   4.797
87201SOL    HW263378   6.042  14.082   4.808
87202SOL     OW63379   8.830   9.956  10.135
87202SOL    HW163380   8.840  10.047  10.108
87202SOL    HW263381   8.821   9.959  10.230
87203SOL     OW63382   5.904   9.797   2.057
87203SOL    HW163383   5.855   9.850   1.994
87203SOL    HW263384   5.990   9.786   2.017
87204SOL     OW63385   0.609   4.916  12.118
87204SOL    HW163386   0.566   4.991  12.160
87204SOL    HW263387   0.612   4.850  12.187
87205SOL     OW63388  13.460   4.320   6.143
87205SOL    HW163389  13.482   4.413   6.150
87205SOL    HW263390  13.515   4.277   6.208
87206SOL     OW63391  12.855  10.184   8.625
87206SOL    HW163392  12.816  10.255   8.574
87206SOL    HW263393  12.853  10.215   8.715
87207SOL     OW63394   8.076   1.171   4.457
87207SOL    HW163395   8.050   1.183   4.548
87207SOL    HW263396   8.000   1.198   4.406
87208SOL     OW63397   1.801  11.773   5.504
87208SOL    HW163398   1.785  11.844   5.442
87208SOL    HW263399   1.895  11.758   5.500
87209SOL     OW63400   1.854   5.059   4.660
87209SOL    HW163401   1.940   5.017   4.659
87209SOL    HW263402   1.791   4.987   4.657
87210SOL     OW63403   1.444   1.892   6.994
87210SOL    HW163404   1.473   1.961   6.934
87210SOL    HW263405   1.501   1.818   6.975
87211SOL     OW63406   5.640   4.346  11.105
87211SOL    HW163407   5.557   4.322  11.064
87211SOL    HW263408   5.640   4.299  11.188
87212SOL     OW63409   2.807   4.911   8.263
87212SOL    HW163410   2.723   4.945   8.234
87212SOL    HW263411   2.866   4.926   8.189
87213SOL     OW63412   0.968   6.579  11.588
87213SOL    HW163413   1.023   6.644  11.631
87213SOL    HW263414   1.029   6.529  11.533
87214SOL     OW63415   4.514   8.403  13.957
87214SOL    HW163416   4.463   8.463  14.011
87214SOL    HW263417   4.569   8.460  13.903
87215SOL     OW63418  11.183  13.005  10.063
87215SOL    HW163419  11.254  12.956  10.104
87215SOL    HW263420  11.186  13.091  10.104
87216SOL     OW63421   3.427   8.891   6.542
87216SOL    HW163422   3.332   8.877   6.536
87216SOL    HW263423   3.438   8.986   6.534
87217SOL     OW63424  14.148  14.180   9.483
87217SOL    HW163425  14.196  14.260   9.461
87217SOL    HW263426  14.190  14.112   9.430
87218SOL     OW63427  13.250   9.798   8.607
87218SOL    HW163428  13.276   9.751   8.686
87218SOL    HW263429  13.308   9.763   8.539
87219SOL     OW63430   0.942   5.552   6.285
87219SOL    HW163431   0.898   5.599   6.356
87219SOL    HW263432   0.940   5.460   6.313
87220SOL     OW63433   3.634   2.240   3.410
87220SOL    HW163434   3.630   2.196   3.326
87220SOL    HW263435   3.671   2.326   3.391
87221SOL     OW63436   3.535  12.494  13.945
87221SOL    HW163437   3.629  12.513  13.948
87221SOL    HW263438   3.496  12.573  13.908
87222SOL     OW63439  10.827   6.130   8.281
87222SOL    HW163440  10.863   6.082   8.355
87222SOL    HW263441  10.785   6.207   8.320
87223SOL     OW63442  10.966   6.025  10.214
87223SOL    HW163443  10.954   6.019  10.119
87223SOL    HW263444  10.938   5.940  10.247
87224SOL     OW63445   7.367   2.586   9.310
87224SOL    HW163446   7.437   2.651   9.304
87224SOL    HW263447   7.410   2.508   9.344
87225SOL     OW63448  12.882   4.960  14.876
87225SOL    HW163449  12.909   5.000   0.081
87225SOL    HW263450  12.904   5.024  14.809
87226SOL     OW63451   6.864  10.100   0.769
87226SOL    HW163452   6.946  10.053   0.758
87226SOL    HW263453   6.812  10.047   0.829
87227SOL     OW63454  10.566   5.621  10.388
87227SOL    HW163455  10.498   5.576  10.439
87227SOL    HW263456  10.546   5.714  10.401
87228SOL     OW63457  14.633   2.333   9.279
87228SOL    HW163458  14.612   2.282   9.201
87228SOL    HW263459  14.562   2.312   9.340
87229SOL     OW63460   7.550   5.837  13.638
87229SOL    HW163461   7.562   5.754  13.592
87229SOL    HW263462   7.471   5.875  13.600
87230SOL     OW63463  12.357  11.488   0.926
87230SOL    HW163464  12.262  11.498   0.939
87230SOL    HW263465  12.366  11.447   0.841
87231SOL     OW63466   5.569  12.310  14.653
87231SOL    HW163467   5.523  12.315  14.737
87231SOL    HW263468   5.545  12.391  14.608
87232SOL     OW63469  13.552  12.819   6.433
87232SOL    HW163470  13.599  12.888   6.480
87232SOL    HW263471  13.499  12.776   6.500
87233SOL     OW63472   3.061   5.781   1.013
87233SOL    HW163473   2.968   5.760   1.008
87233SOL    HW263474   3.066   5.851   1.078
87234SOL     OW63475  12.808  12.561  12.939
87234SOL    HW163476  12.895  12.540  12.907
87234SOL    HW263477  12.758  12.480  12.930
87235SOL     OW63478  13.556   9.752   7.328
87235SOL    HW163479  13.633   9.797   7.362
87235SOL    HW263480  13.494   9.751   7.401
87236SOL     OW63481   9.641   5.190   5.107
87236SOL    HW163482   9.605   5.200   5.195
87236SOL    HW263483   9.585   5.124   5.066
87237SOL     OW63484   0.763  12.243   9.404
87237SOL    HW163485   0.785  12.190   9.481
87237SOL    HW263486   0.847  12.254   9.358
87238SOL     OW63487   6.379   3.608  13.614
87238SOL    HW163488   6.315   3.623  13.683
87238SOL    HW263489   6.332   3.557  13.548
87239SOL     OW63490   5.423  12.530   5.887
87239SOL    HW163491   5.428  12.543   5.981
87239SOL    HW263492   5.330  12.541   5.866
87240SOL     OW63493  11.758  11.030   8.492
87240SOL    HW163494  11.688  10.966   8.493
87240SOL    HW263495  11.721  11.107   8.448
87241SOL     OW63496   3.855   5.960   1.217
87241SOL    HW163497   3.925   5.928   1.161
87241SOL    HW263498   3.818   5.881   1.257
87242SOL     OW63499   9.271   1.827  14.765
87242SOL    HW163500   9.288   1.808  14.673
87242SOL    HW263501   9.237   1.916  14.766
87243SOL     OW63502   0.087   5.971   8.281
87243SOL    HW163503   0.132   6.033   8.338
87243SOL    HW263504   0.100   5.886   8.321
87244SOL     OW63505   8.721   6.717   1.348
87244SOL    HW163506   8.780   6.657   1.301
87244SOL    HW263507   8.674   6.762   1.278
87245SOL     OW63508   8.996   6.641  10.935
87245SOL    HW163509   9.039   6.562  10.968
87245SOL    HW263510   9.049   6.667  10.860
87246SOL     OW63511   2.446   3.905  14.239
87246SOL    HW163512   2.506   3.949  14.300
87246SOL    HW263513   2.472   3.937  14.153
87247SOL     OW63514  11.494   5.321   0.387
87247SOL    HW163515  11.518   5.343   0.297
87247SOL    HW263516  11.398   5.322   0.386
87248SOL     OW63517   6.199   0.618  10.245
87248SOL    HW163518   6.112   0.590  10.274
87248SOL    HW263519   6.195   0.713  10.246
87249SOL     OW63520  14.653   0.926   7.718
87249SOL    HW163521  14.572   0.974   7.732
87249SOL    HW263522  14.626   0.840   7.686
87250SOL     OW63523   3.352   1.714   3.003
87250SOL    HW163524   3.344   1.621   2.982
87250SOL    HW263525   3.269   1.753   2.975
87251SOL     OW63526   2.690   8.752   3.720
87251SOL    HW163527   2.710   8.665   3.686
87251SOL    HW263528   2.685   8.740   3.815
87252SOL     OW63529  14.427  13.187   4.916
87252SOL    HW163530  14.444  13.109   4.863
87252SOL    HW263531  14.334  13.204   4.905
87253SOL     OW63532  10.069  10.057   6.630
87253SOL    HW163533  10.042  10.148   6.618
87253SOL    HW263534  10.038  10.034   6.717
87254SOL     OW63535   9.768   6.342  11.269
87254SOL    HW163536   9.684   6.338  11.315
87254SOL    HW263537   9.816   6.413  11.312
87255SOL     OW63538   8.865  13.493  11.839
87255SOL    HW163539   8.870  13.522  11.749
87255SOL    HW263540   8.866  13.397  11.834
87256SOL     OW63541  10.564   1.893   1.613
87256SOL    HW163542  10.558   1.821   1.676
87256SOL    HW263543  10.619   1.859   1.543
87257SOL     OW63544   9.177  12.985  13.696
87257SOL    HW163545   9.135  13.045  13.634
87257SOL    HW263546   9.163  12.898  13.659
87258SOL     OW63547  14.387   3.251   5.424
87258SOL    HW163548  14.479   3.272   5.413
87258SOL    HW263549  14.376   3.240   5.519
87259SOL     OW63550   8.387  13.379   6.557
87259SOL    HW163551   8.389  13.344   6.468
87259SOL    HW263552   8.317  13.444   6.556
87260SOL     OW63553   0.245  14.141   7.037
87260SOL    HW163554   0.158  14.105   7.054
87260SOL    HW263555   0.248  14.221   7.089
87261SOL     OW63556  11.331  10.799   7.412
87261SOL    HW163557  11.360  10.812   7.322
87261SOL    HW263558  11.391  10.734   7.448
87262SOL     OW63559   9.244  11.566  14.509
87262SOL    HW163560   9.235  11.471  14.506
87262SOL    HW263561   9.208  11.591  14.594
87263SOL     OW63562   0.527   6.220   1.871
87263SOL    HW163563   0.514   6.159   1.944
87263SOL    HW263564   0.605   6.187   1.826
87264SOL     OW63565   5.465   7.913   4.963
87264SOL    HW163566   5.514   7.892   5.042
87264SOL    HW263567   5.519   7.880   4.891
87265SOL     OW63568   2.109   4.380   2.262
87265SOL    HW163569   2.028   4.389   2.311
87265SOL    HW263570   2.168   4.333   2.322
87266SOL     OW63571  12.177   4.250  12.656
87266SOL    HW163572  12.175   4.304  12.577
87266SOL    HW263573  12.183   4.161  12.624
87267SOL     OW63574   9.857   8.801  12.514
87267SOL    HW163575   9.860   8.836  12.603
87267SOL    HW263576   9.948   8.781  12.493
87268SOL     OW63577   2.944   7.331   6.021
87268SOL    HW163578   2.990   7.330   6.104
87268SOL    HW263579   2.868   7.274   6.035
87269SOL     OW63580  12.662  10.799   8.690
87269SOL    HW163581  12.707  10.838   8.764
87269SOL    HW263582  12.696  10.846   8.614
87270SOL     OW63583   5.846  14.571  12.845
87270SOL    HW163584   5.877  14.600  12.759
87270SOL    HW263585   5.871  14.641  12.905
87271SOL     OW63586  10.881   2.810   6.835
87271SOL    HW163587  10.909   2.747   6.770
87271SOL    HW263588  10.942   2.883   6.826
87272SOL     OW63589   1.611  14.045   7.520
87272SOL    HW163590   1.576  14.025   7.607
87272SOL    HW263591   1.644  14.134   7.527
87273SOL     OW63592   9.981   6.642   2.205
87273SOL    HW163593   9.950   6.551   2.206
87273SOL    HW263594  10.001   6.659   2.113
87274SOL     OW63595  13.597  10.811   3.426
87274SOL    HW163596  13.516  10.830   3.379
87274SOL    HW263597  13.606  10.716   3.422
87275SOL     OW63598   2.855   8.352   2.573
87275SOL    HW163599   2.812   8.313   2.497
87275SOL    HW263600   2.943   8.374   2.542
87276SOL     OW63601  11.539   8.902  10.314
87276SOL    HW163602  11.565   8.949  10.393
87276SOL    HW263603  11.507   8.817  10.346
87277SOL     OW63604   3.653  14.140   3.148
87277SOL    HW163605   3.735  14.126   3.196
87277SOL    HW263606   3.680  14.183   3.067
87278SOL     OW63607   5.853  14.132   7.950
87278SOL    HW163608   5.784  14.109   8.013
87278SOL    HW263609   5.809  14.128   7.864
87279SOL     OW63610  13.515   5.321   2.516
87279SOL    HW163611  13.581   5.369   2.466
87279SOL    HW263612  13.517   5.362   2.603
87280SOL     OW63613   2.050   6.976   9.373
87280SOL    HW163614   2.032   7.067   9.396
87280SOL    HW263615   2.048   6.974   9.277
87281SOL     OW63616   2.492   2.939  10.592
87281SOL    HW163617   2.576   2.917  10.632
87281SOL    HW263618   2.476   2.867  10.531
87282SOL     OW63619  12.719   2.286   4.552
87282SOL    HW163620  12.692   2.300   4.461
87282SOL    HW263621  12.751   2.371   4.581
87283SOL     OW63622  12.139   1.072   6.935
87283SOL    HW163623  12.219   1.056   6.886
87283SOL    HW263624  12.130   1.167   6.939
87284SOL     OW63625  13.422   2.128   1.517
87284SOL    HW163626  13.422   2.047   1.568
87284SOL    HW263627  13.350   2.180   1.554
87285SOL     OW63628   8.386  12.183   8.405
87285SOL    HW163629   8.304  12.183   8.356
87285SOL    HW263630   8.379  12.109   8.465
87286SOL     OW63631   2.394  10.243   4.186
87286SOL    HW163632   2.470  10.220   4.132
87286SOL    HW263633   2.403  10.189   4.264
87287SOL     OW63634  11.051   9.075   9.130
87287SOL    HW163635  11.096   9.157   9.108
87287SOL    HW263636  11.006   9.051   9.049
87288SOL     OW63637  13.290   1.665   3.491
87288SOL    HW163638  13.369   1.698   3.535
87288SOL    HW263639  13.251   1.743   3.452
87289SOL     OW63640   8.071   0.115   8.876
87289SOL    HW163641   8.142   0.119   8.941
87289SOL    HW263642   8.009   0.053   8.914
87290SOL     OW63643   8.202   3.000  11.494
87290SOL    HW163644   8.163   3.066  11.437
87290SOL    HW263645   8.167   3.021  11.581
87291SOL     OW63646   7.819   5.447   2.406
87291SOL    HW163647   7.894   5.439   2.464
87291SOL    HW263648   7.857   5.458   2.319
87292SOL     OW63649   7.635  11.880   5.710
87292SOL    HW163650   7.717  11.840   5.682
87292SOL    HW263651   7.585  11.808   5.748
87293SOL     OW63652  12.697  10.035   4.074
87293SOL    HW163653  12.678  10.095   4.001
87293SOL    HW263654  12.650  10.074   4.148
87294SOL     OW63655   9.271   0.942   9.373
87294SOL    HW163656   9.306   0.953   9.285
87294SOL    HW263657   9.252   0.848   9.380
87295SOL     OW63658  10.585  11.980   5.907
87295SOL    HW163659  10.619  11.892   5.892
87295SOL    HW263660  10.491  11.967   5.925
87296SOL     OW63661   6.205  12.307   5.065
87296SOL    HW163662   6.203  12.402   5.052
87296SOL    HW263663   6.164  12.271   4.986
87297SOL     OW63664   7.945   6.588  14.023
87297SOL    HW163665   8.001   6.647  13.972
87297SOL    HW263666   7.886   6.550  13.958
87298SOL     OW63667   7.666  11.052   1.485
87298SOL    HW163668   7.707  11.067   1.400
87298SOL    HW263669   7.657  11.139   1.524
87299SOL     OW63670  13.594  12.135   3.463
87299SOL    HW163671  13.686  12.133   3.489
87299SOL    HW263672  13.545  12.125   3.545
87300SOL     OW63673   0.109   7.888   1.454
87300SOL    HW163674   0.093   7.904   1.361
87300SOL    HW263675   0.023   7.867   1.490
87301SOL     OW63676   1.792   6.004   7.786
87301SOL    HW163677   1.795   6.056   7.866
87301SOL    HW263678   1.747   6.059   7.723
87302SOL     OW63679   1.588  10.542   6.951
87302SOL    HW163680   1.614  10.577   7.036
87302SOL    HW263681   1.510  10.593   6.927
87303SOL     OW63682   6.821   5.477   6.419
87303SOL    HW163683   6.799   5.454   6.329
87303SOL    HW263684   6.739   5.465   6.468
87304SOL     OW63685   3.691   9.110  10.717
87304SOL    HW163686   3.697   9.036  10.657
87304SOL    HW263687   3.612   9.094  10.769
87305SOL     OW63688   7.025  13.166   1.175
87305SOL    HW163689   6.945  13.122   1.204
87305SOL    HW263690   7.072  13.100   1.124
87306SOL     OW63691   4.493  14.220   3.729
87306SOL    HW163692   4.588  14.208   3.720
87306SOL    HW263693   4.462  14.227   3.639
87307SOL     OW63694  12.123   6.401  13.734
87307SOL    HW163695  12.070   6.322  13.748
87307SOL    HW263696  12.153   6.425  13.821
87308SOL     OW63697  14.828   6.604   4.772
87308SOL    HW163698  14.744   6.593   4.816
87308SOL    HW263699   0.014   6.608   4.843
87309SOL     OW63700   0.642  14.611   6.313
87309SOL    HW163701   0.679  14.526   6.339
87309SOL    HW263702   0.556  14.614   6.355
87310SOL     OW63703   8.201   0.434  12.033
87310SOL    HW163704   8.185   0.520  11.995
87310SOL    HW263705   8.251   0.387  11.966
87311SOL     OW63706   6.128   5.259  12.617
87311SOL    HW163707   6.055   5.227  12.670
87311SOL    HW263708   6.118   5.354  12.617
87312SOL     OW63709   7.056  10.674   1.792
87312SOL    HW163710   7.135  10.713   1.752
87312SOL    HW263711   7.083  10.653   1.881
87313SOL     OW63712  14.441   5.762  14.663
87313SOL    HW163713  14.473   5.826  14.599
87313SOL    HW263714  14.348   5.781  14.672
87314SOL     OW63715   0.519  12.891   6.964
87314SOL    HW163716   0.522  12.946   7.042
87314SOL    HW263717   0.443  12.923   6.915
87315SOL     OW63718  10.501  13.468  14.155
87315SOL    HW163719  10.445  13.537  14.119
87315SOL    HW263720  10.442  13.416  14.210
87316SOL     OW63721   4.139   5.931   3.502
87316SOL    HW163722   4.046   5.952   3.506
87316SOL    HW263723   4.182   6.003   3.548
87317SOL     OW63724   0.634   7.616   3.424
87317SOL    HW163725   0.649   7.705   3.456
87317SOL    HW263726   0.539   7.608   3.419
87318SOL     OW63727   7.685  12.604   1.559
87318SOL    HW163728   7.678  12.676   1.496
87318SOL    HW263729   7.610  12.548   1.540
87319SOL     OW63730  12.700   2.737  13.470
87319SOL    HW163731  12.646   2.680  13.415
87319SOL    HW263732  12.658   2.732  13.556
87320SOL     OW63733   2.622  14.075  13.561
87320SOL    HW163734   2.632  14.023  13.641
87320SOL    HW263735   2.536  14.116  13.570
87321SOL     OW63736   0.536  12.354   9.658
87321SOL    HW163737   0.489  12.419   9.607
87321SOL    HW263738   0.532  12.386   9.748
87322SOL     OW63739  11.648   2.195   1.318
87322SOL    HW163740  11.722   2.188   1.258
87322SOL    HW263741  11.658   2.118   1.375
87323SOL     OW63742   3.967  14.601  10.509
87323SOL    HW163743   4.004  14.534  10.566
87323SOL    HW263744   3.950  14.675  10.567
87324SOL     OW63745   4.360   7.701  10.644
87324SOL    HW163746   4.449   7.670  10.659
87324SOL    HW263747   4.318   7.632  10.593
87325SOL     OW63748  13.612   2.901   7.606
87325SOL    HW163749  13.522   2.895   7.574
87325SOL    HW263750  13.603   2.920   7.699
87326SOL     OW63751   2.632   2.696   5.508
87326SOL    HW163752   2.675   2.753   5.445
87326SOL    HW263753   2.576   2.755   5.560
87327SOL     OW63754  11.398  12.697   4.687
87327SOL    HW163755  11.353  12.702   4.771
87327SOL    HW263756  11.453  12.776   4.685
87328SOL     OW63757   6.475  12.910  12.064
87328SOL    HW163758   6.504  12.878  12.150
87328SOL    HW263759   6.381  12.923  12.073
87329SOL     OW63760   4.212   0.744   8.719
87329SOL    HW163761   4.228   0.716   8.629
87329SOL    HW263762   4.239   0.669   8.773
87330SOL     OW63763   4.936   6.591   4.264
87330SOL    HW163764   4.939   6.523   4.197
87330SOL    HW263765   4.856   6.573   4.313
87331SOL     OW63766   4.401   6.021   7.337
87331SOL    HW163767   4.494   6.035   7.354
87331SOL    HW263768   4.394   5.927   7.319
87332SOL     OW63769   7.848   7.764   1.450
87332SOL    HW163770   7.929   7.800   1.488
87332SOL    HW263771   7.842   7.805   1.364
87333SOL     OW63772  13.627   5.577   5.493
87333SOL    HW163773  13.538   5.557   5.466
87333SOL    HW263774  13.658   5.497   5.536
87334SOL     OW63775   4.102   2.659   1.853
87334SOL    HW163776   4.175   2.692   1.905
87334SOL    HW263777   4.028   2.715   1.877
87335SOL     OW63778  12.141   2.957  10.225
87335SOL    HW163779  12.188   2.960  10.141
87335SOL    HW263780  12.054   2.990  10.204
87336SOL     OW63781   4.777  13.761   3.439
87336SOL    HW163782   4.762  13.854   3.457
87336SOL    HW263783   4.693  13.729   3.407
87337SOL     OW63784   9.218   4.315   0.627
87337SOL    HW163785   9.263   4.242   0.585
87337SOL    HW263786   9.127   4.306   0.601
87338SOL     OW63787  10.986  10.233   2.476
87338SOL    HW163788  11.073  10.206   2.506
87338SOL    HW263789  11.004  10.305   2.414
87339SOL     OW63790   2.542   2.120  10.224
87339SOL    HW163791   2.523   2.051  10.161
87339SOL    HW263792   2.622   2.161  10.192
87340SOL     OW63793   8.114  10.412   6.244
87340SOL    HW163794   8.039  10.401   6.303
87340SOL    HW263795   8.076  10.423   6.158
87341SOL     OW63796   6.214   5.247  13.904
87341SOL    HW163797   6.252   5.163  13.931
87341SOL    HW263798   6.290   5.305  13.891
87342SOL     OW63799   3.084   7.094  14.210
87342SOL    HW163800   3.086   7.031  14.138
87342SOL    HW263801   3.038   7.050  14.281
87343SOL     OW63802  13.907  10.080   6.964
87343SOL    HW163803  13.896  10.128   7.046
87343SOL    HW263804  13.836  10.016   6.963
87344SOL     OW63805   0.299  14.077  13.013
87344SOL    HW163806   0.361  14.028  13.067
87344SOL    HW263807   0.295  14.028  12.931
87345SOL     OW63808   2.565  13.549   6.613
87345SOL    HW163809   2.542  13.551   6.706
87345SOL    HW263810   2.495  13.498   6.573
87346SOL     OW63811   4.932  13.679   8.355
87346SOL    HW163812   4.892  13.752   8.307
87346SOL    HW263813   5.000  13.646   8.296
87347SOL     OW63814  11.321   9.703   2.853
87347SOL    HW163815  11.324   9.750   2.770
87347SOL    HW263816  11.292   9.768   2.916
87348SOL     OW63817  12.565  10.196  11.743
87348SOL    HW163818  12.621  10.125  11.712
87348SOL    HW263819  12.622  10.249  11.799
87349SOL     OW63820  12.734  10.441  13.373
87349SOL    HW163821  12.813  10.491  13.355
87349SOL    HW263822  12.692  10.487  13.445
87350SOL     OW63823  12.080  11.081   6.202
87350SOL    HW163824  12.057  11.145   6.135
87350SOL    HW263825  12.159  11.038   6.168
87351SOL     OW63826  11.387  11.893   4.154
87351SOL    HW163827  11.329  11.830   4.111
87351SOL    HW263828  11.473  11.852   4.151
87352SOL     OW63829   3.241   9.568   7.924
87352SOL    HW163830   3.263   9.583   7.833
87352SOL    HW263831   3.161   9.619   7.938
87353SOL     OW63832   0.240  12.600   1.090
87353SOL    HW163833   0.176  12.619   1.021
87353SOL    HW263834   0.245  12.505   1.093
87354SOL     OW63835   9.764   5.419   6.896
87354SOL    HW163836   9.816   5.347   6.861
87354SOL    HW263837   9.756   5.481   6.824
87355SOL     OW63838   1.450   3.321   6.865
87355SOL    HW163839   1.438   3.414   6.881
87355SOL    HW263840   1.526   3.316   6.807
87356SOL     OW63841  14.072   4.662   2.735
87356SOL    HW163842  14.137   4.680   2.667
87356SOL    HW263843  14.123   4.641   2.813
87357SOL     OW63844   1.760   9.627   4.658
87357SOL    HW163845   1.708   9.588   4.729
87357SOL    HW263846   1.727   9.586   4.579
87358SOL     OW63847   3.239  10.402  14.116
87358SOL    HW163848   3.249  10.330  14.054
87358SOL    HW263849   3.287  10.374  14.194
87359SOL     OW63850   5.228   6.399   0.076
87359SOL    HW163851   5.167   6.435   0.140
87359SOL    HW263852   5.314   6.405   0.119
87360SOL     OW63853  13.199   2.229   1.567
87360SOL    HW163854  13.112   2.188   1.565
87360SOL    HW263855  13.189   2.309   1.514
87361SOL     OW63856  12.901   2.320   5.452
87361SOL    HW163857  12.928   2.228   5.455
87361SOL    HW263858  12.944   2.359   5.529
87362SOL     OW63859   9.144  12.719  13.759
87362SOL    HW163860   9.185  12.700  13.843
87362SOL    HW263861   9.068  12.661  13.755
87363SOL     OW63862   3.484   5.545   2.128
87363SOL    HW163863   3.469   5.589   2.212
87363SOL    HW263864   3.476   5.615   2.063
87364SOL     OW63865   4.365   5.591   0.608
87364SOL    HW163866   4.363   5.686   0.619
87364SOL    HW263867   4.440   5.563   0.659
87365SOL     OW63868   7.824   7.677   7.920
87365SOL    HW163869   7.863   7.739   7.858
87365SOL    HW263870   7.869   7.594   7.903
87366SOL     OW63871  14.626   4.596   0.142
87366SOL    HW163872  14.709   4.571   0.182
87366SOL    HW263873  14.573   4.516   0.145
87367SOL     OW63874   6.447   9.728  14.383
87367SOL    HW163875   6.484   9.710  14.469
87367SOL    HW263876   6.501   9.677  14.323
87368SOL     OW63877   5.650   1.961  14.179
87368SOL    HW163878   5.726   2.019  14.174
87368SOL    HW263879   5.609   1.967  14.093
87369SOL     OW63880  11.379   5.789   0.638
87369SOL    HW163881  11.394   5.781   0.543
87369SOL    HW263882  11.405   5.704   0.674
87370SOL     OW63883  10.913  10.738   3.857
87370SOL    HW163884  10.933  10.832   3.858
87370SOL    HW263885  10.977  10.701   3.796
87371SOL     OW63886   9.490   4.019  14.750
87371SOL    HW163887   9.539   3.952  14.798
87371SOL    HW263888   9.537   4.100  14.768
87372SOL     OW63889   2.880   4.370   4.611
87372SOL    HW163890   2.954   4.364   4.551
87372SOL    HW263891   2.866   4.280   4.641
87373SOL     OW63892  14.168   3.528  11.774
87373SOL    HW163893  14.151   3.621  11.764
87373SOL    HW263894  14.217   3.504  11.696
87374SOL     OW63895   8.993  11.113  10.103
87374SOL    HW163896   9.015  11.035  10.154
87374SOL    HW263897   8.905  11.138  10.133
87375SOL     OW63898   2.837   5.689  13.586
87375SOL    HW163899   2.871   5.734  13.509
87375SOL    HW263900   2.773   5.627  13.552
87376SOL     OW63901   4.065   1.142   5.992
87376SOL    HW163902   3.994   1.130   5.930
87376SOL    HW263903   4.066   1.060   6.043
87377SOL     OW63904  11.161  14.830   5.184
87377SOL    HW163905  11.228  14.806   5.119
87377SOL    HW263906  11.108  14.750   5.193
87378SOL     OW63907  11.173  12.814   2.141
87378SOL    HW163908  11.222  12.817   2.223
87378SOL    HW263909  11.109  12.885   2.149
87379SOL     OW63910   3.379   6.631  14.036
87379SOL    HW163911   3.466   6.626  14.074
87379SOL    HW263912   3.393   6.616  13.942
87380SOL     OW63913  13.228   7.594   1.875
87380SOL    HW163914  13.220   7.683   1.909
87380SOL    HW263915  13.277   7.547   1.942
87381SOL     OW63916   7.470  14.114   0.327
87381SOL    HW163917   7.378  14.097   0.308
87381SOL    HW263918   7.486  14.200   0.289
87382SOL     OW63919   0.669  11.900  11.379
87382SOL    HW163920   0.675  11.817  11.425
87382SOL    HW263921   0.653  11.965  11.447
87383SOL     OW63922   8.801   8.031  12.943
87383SOL    HW163923   8.784   7.954  12.998
87383SOL    HW263924   8.730   8.030  12.878
87384SOL     OW63925   4.174   4.971   4.402
87384SOL    HW163926   4.217   4.998   4.321
87384SOL    HW263927   4.096   5.026   4.407
87385SOL     OW63928  11.345   3.124  11.440
87385SOL    HW163929  11.264   3.076  11.458
87385SOL    HW263930  11.412   3.057  11.429
87386SOL     OW63931   4.765   2.367   1.037
87386SOL    HW163932   4.680   2.410   1.044
87386SOL    HW263933   4.812   2.416   0.969
87387SOL     OW63934  12.007  10.689  10.545
87387SOL    HW163935  11.936  10.668  10.484
87387SOL    HW263936  12.014  10.612  10.601
87388SOL     OW63937   2.411   6.701   1.170
87388SOL    HW163938   2.437   6.609   1.169
87388SOL    HW263939   2.435   6.731   1.258
87389SOL     OW63940  13.923  11.528   5.284
87389SOL    HW163941  13.859  11.475   5.237
87389SOL    HW263942  13.883  11.615   5.289
87390SOL     OW63943   3.341   8.816   4.001
87390SOL    HW163944   3.322   8.757   3.927
87390SOL    HW263945   3.257   8.860   4.017
87391SOL     OW63946  10.964   7.174  13.407
87391SOL    HW163947  10.958   7.086  13.443
87391SOL    HW263948  11.024   7.220  13.465
87392SOL     OW63949   2.248   4.734   5.849
87392SOL    HW163950   2.334   4.773   5.867
87392SOL    HW263951   2.243   4.658   5.907
87393SOL     OW63952   9.456   6.139   8.458
87393SOL    HW163953   9.417   6.202   8.399
87393SOL    HW263954   9.452   6.056   8.411
87394SOL     OW63955   5.387   6.694   6.906
87394SOL    HW163956   5.295   6.717   6.897
87394SOL    HW263957   5.432   6.749   6.842
87395SOL     OW63958   5.194  10.919   8.164
87395SOL    HW163959   5.167  11.002   8.125
87395SOL    HW263960   5.282  10.936   8.198
87396SOL     OW63961   3.445   2.321   1.649
87396SOL    HW163962   3.396   2.253   1.603
87396SOL    HW263963   3.490   2.275   1.720
87397SOL     OW63964   5.490   9.421   8.145
87397SOL    HW163965   5.579   9.454   8.156
87397SOL    HW263966   5.495   9.328   8.168
87398SOL     OW63967   3.878   0.841   2.766
87398SOL    HW163968   3.863   0.777   2.696
87398SOL    HW263969   3.793   0.850   2.809
87399SOL     OW63970   2.212   3.358   6.295
87399SOL    HW163971   2.124   3.363   6.260
87399SOL    HW263972   2.268   3.395   6.227
87400SOL     OW63973   8.316   5.126  12.958
87400SOL    HW163974   8.245   5.063  12.946
87400SOL    HW263975   8.292   5.199  12.902
87401SOL     OW63976   4.136   9.967   0.388
87401SOL    HW163977   4.229   9.942   0.393
87401SOL    HW263978   4.092   9.908   0.449
87402SOL     OW63979   1.278   8.397   6.700
87402SOL    HW163980   1.333   8.372   6.626
87402SOL    HW263981   1.257   8.489   6.684
87403SOL     OW63982  11.862   4.946   1.134
87403SOL    HW163983  11.782   4.989   1.162
87403SOL    HW263984  11.930   4.985   1.189
87404SOL     OW63985  10.151  10.018   9.205
87404SOL    HW163986  10.170   9.924   9.193
87404SOL    HW263987  10.195  10.041   9.287
87405SOL     OW63988   4.003  11.250   2.548
87405SOL    HW163989   3.982  11.280   2.459
87405SOL    HW263990   3.982  11.325   2.604
87406SOL     OW63991   9.986   4.237  11.882
87406SOL    HW163992  10.018   4.307  11.939
87406SOL    HW263993  10.046   4.237  11.808
87407SOL     OW63994  12.805   0.272   8.714
87407SOL    HW163995  12.860   0.333   8.666
87407SOL    HW263996  12.777   0.208   8.649
87408SOL     OW63997  10.021  12.429  12.898
87408SOL    HW163998   9.955  12.409  12.964
87408SOL    HW263999  10.003  12.369  12.826
87409SOL     OW64000   0.557   9.653  13.322
87409SOL    HW164001   0.475   9.631  13.365
87409SOL    HW264002   0.623   9.601  13.368
87410SOL     OW64003  11.938  13.677   2.101
87410SOL    HW164004  11.943  13.772   2.110
87410SOL    HW264005  11.912  13.663   2.010
87411SOL     OW64006   9.157  14.269   8.738
87411SOL    HW164007   9.206  14.246   8.817
87411SOL    HW264008   9.070  14.293   8.770
87412SOL     OW64009   7.038   9.086   1.128
87412SOL    HW164010   7.041   9.072   1.223
87412SOL    HW264011   6.956   9.046   1.101
87413SOL     OW64012   2.984   0.555   1.448
87413SOL    HW164013   3.044   0.612   1.497
87413SOL    HW264014   2.967   0.603   1.367
87414SOL     OW64015   6.878   2.693  13.638
87414SOL    HW164016   6.839   2.606  13.639
87414SOL    HW264017   6.919   2.703  13.724
87415SOL     OW64018   0.027   6.297   5.081
87415SOL    HW164019   0.115   6.283   5.116
87415SOL    HW264020  14.873   6.209   5.060
87416SOL     OW64021  12.897   3.840   9.349
87416SOL    HW164022  12.969   3.886   9.392
87416SOL    HW264023  12.927   3.749   9.342
87417SOL     OW64024   0.512  12.309  10.405
87417SOL    HW164025   0.573  12.375  10.374
87417SOL    HW264026   0.427  12.352  10.403
87418SOL     OW64027  12.552  10.019   4.794
87418SOL    HW164028  12.604   9.940   4.804
87418SOL    HW264029  12.568  10.069   4.874
87419SOL     OW64030   8.853   2.965   8.099
87419SOL    HW164031   8.931   2.930   8.142
87419SOL    HW264032   8.838   2.908   8.024
87420SOL     OW64033  13.877   2.991   6.485
87420SOL    HW164034  13.870   2.963   6.393
87420SOL    HW264035  13.822   2.929   6.533
87421SOL     OW64036   1.662   2.165   6.536
87421SOL    HW164037   1.734   2.224   6.512
87421SOL    HW264038   1.697   2.078   6.520
87422SOL     OW64039   0.396   1.533  13.683
87422SOL    HW164040   0.300   1.531  13.693
87422SOL    HW264041   0.410   1.530  13.589
87423SOL     OW64042   4.170   6.993  13.122
87423SOL    HW164043   4.126   7.042  13.052
87423SOL    HW264044   4.111   6.920  13.141
87424SOL     OW64045   6.809   1.619  11.528
87424SOL    HW164046   6.779   1.709  11.517
87424SOL    HW264047   6.731   1.565  11.515
87425SOL     OW64048  12.761   6.970   0.024
87425SOL    HW164049  12.791   6.912   0.093
87425SOL    HW264050  12.841   7.001  14.860
87426SOL     OW64051   3.016   9.255   4.124
87426SOL    HW164052   2.975   9.318   4.066
87426SOL    HW264053   2.975   9.270   4.209
87427SOL     OW64054   4.837   8.100   4.859
87427SOL    HW164055   4.752   8.083   4.819
87427SOL    HW264056   4.887   8.146   4.792
87428SOL     OW64057  14.297   6.112   1.025
87428SOL    HW164058  14.227   6.126   0.961
87428SOL    HW264059  14.343   6.196   1.027
87429SOL     OW64060   5.752   7.325   5.244
87429SOL    HW164061   5.656   7.321   5.253
87429SOL    HW264062   5.776   7.238   5.211
87430SOL     OW64063   8.987   7.083  14.623
87430SOL    HW164064   8.954   7.171  14.641
87430SOL    HW264065   8.949   7.060  14.538
87431SOL     OW64066   5.584   1.832   6.991
87431SOL    HW164067   5.652   1.871   7.047
87431SOL    HW264068   5.516   1.898   6.986
87432SOL     OW64069   5.972   7.718   6.779
87432SOL    HW164070   6.006   7.803   6.808
87432SOL    HW264071   5.959   7.668   6.860
87433SOL     OW64072   4.610   5.969   5.306
87433SOL    HW164073   4.668   6.044   5.306
87433SOL    HW264074   4.522   6.006   5.296
87434SOL     OW64075   1.282  10.682   2.731
87434SOL    HW164076   1.331  10.652   2.655
87434SOL    HW264077   1.251  10.769   2.708
87435SOL     OW64078   2.402   5.619   7.389
87435SOL    HW164079   2.337   5.549   7.392
87435SOL    HW264080   2.361   5.689   7.339
87436SOL     OW64081   4.598   2.867   4.413
87436SOL    HW164082   4.646   2.946   4.387
87436SOL    HW264083   4.612   2.806   4.340
87437SOL     OW64084  11.848  12.492   8.579
87437SOL    HW164085  11.842  12.449   8.494
87437SOL    HW264086  11.784  12.446   8.634
87438SOL     OW64087   1.951   4.805   2.210
87438SOL    HW164088   1.989   4.892   2.198
87438SOL    HW264089   1.932   4.774   2.121
87439SOL     OW64090   0.203  12.108   9.492
87439SOL    HW164091   0.144  12.150   9.554
87439SOL    HW264092   0.285  12.096   9.540
87440SOL     OW64093   8.611   5.103  12.265
87440SOL    HW164094   8.619   5.142  12.178
87440SOL    HW264095   8.587   5.176  12.321
87441SOL     OW64096   8.656  11.379  14.494
87441SOL    HW164097   8.576  11.425  14.468
87441SOL    HW264098   8.648  11.370  14.589
87442SOL     OW64099   4.779   6.980   8.824
87442SOL    HW164100   4.779   6.895   8.780
87442SOL    HW264101   4.701   6.979   8.879
87443SOL     OW64102  12.394   4.777   0.357
87443SOL    HW164103  12.340   4.820   0.424
87443SOL    HW264104  12.417   4.848   0.297
87444SOL     OW64105  14.624  10.055  13.885
87444SOL    HW164106  14.691  10.068  13.818
87444SOL    HW264107  14.546  10.026  13.837
87445SOL     OW64108   8.884   9.219   1.933
87445SOL    HW164109   8.845   9.136   1.959
87445SOL    HW264110   8.858   9.280   2.003
87446SOL     OW64111  12.027   8.173  12.434
87446SOL    HW164112  12.087   8.100  12.421
87446SOL    HW264113  12.081   8.251  12.421
87447SOL     OW64114   0.205   5.028   8.831
87447SOL    HW164115   0.255   5.069   8.902
87447SOL    HW264116   0.185   5.100   8.771
87448SOL     OW64117   0.950   8.735   4.799
87448SOL    HW164118   0.956   8.669   4.730
87448SOL    HW264119   0.981   8.815   4.759
87449SOL     OW64120   4.800   4.191  10.707
87449SOL    HW164121   4.718   4.222  10.669
87449SOL    HW264122   4.774   4.145  10.787
87450SOL     OW64123   2.835  14.821   9.214
87450SOL    HW164124   2.914  14.773   9.239
87450SOL    HW264125   2.845  14.836   9.120
87451SOL     OW64126   8.879   1.830   3.396
87451SOL    HW164127   8.888   1.809   3.489
87451SOL    HW264128   8.911   1.751   3.351
87452SOL     OW64129   3.138  10.068  11.121
87452SOL    HW164130   3.091  10.003  11.068
87452SOL    HW264131   3.099  10.060  11.208
87453SOL     OW64132  14.549   0.770   1.482
87453SOL    HW164133  14.619   0.815   1.434
87453SOL    HW264134  14.594   0.698   1.527
87454SOL     OW64135   7.201   2.942  13.180
87454SOL    HW164136   7.162   2.924  13.265
87454SOL    HW264137   7.253   2.864  13.160
87455SOL     OW64138   9.773  14.360   4.670
87455SOL    HW164139   9.847  14.301   4.657
87455SOL    HW264140   9.731  14.328   4.749
87456SOL     OW64141   5.557   0.240   2.325
87456SOL    HW164142   5.465   0.239   2.352
87456SOL    HW264143   5.556   0.286   2.241
87457SOL     OW64144   9.291  14.810   9.556
87457SOL    HW164145   9.286  14.720   9.586
87457SOL    HW264146   9.385  14.828   9.550
87458SOL     OW64147   0.046  10.728  12.321
87458SOL    HW164148   0.011  10.780  12.393
87458SOL    HW264149   0.109  10.669  12.363
87459SOL     OW64150   6.601   6.065  11.315
87459SOL    HW164151   6.631   5.999  11.253
87459SOL    HW264152   6.561   6.014  11.387
87460SOL     OW64153   2.380  12.048   0.567
87460SOL    HW164154   2.447  12.028   0.632
87460SOL    HW264155   2.334  11.965   0.553
87461SOL     OW64156   9.302   0.852   3.544
87461SOL    HW164157   9.245   0.905   3.489
87461SOL    HW264158   9.372   0.912   3.570
87462SOL     OW64159   1.152   9.772  12.581
87462SOL    HW164160   1.233   9.824  12.580
87462SOL    HW264161   1.166   9.708  12.652
87463SOL     OW64162   9.895   8.219   0.223
87463SOL    HW164163   9.817   8.165   0.207
87463SOL    HW264164   9.966   8.171   0.181
87464SOL     OW64165   1.438   9.381   7.925
87464SOL    HW164166   1.466   9.376   7.833
87464SOL    HW264167   1.368   9.447   7.926
87465SOL     OW64168   4.073   4.791   7.081
87465SOL    HW164169   4.061   4.853   7.153
87465SOL    HW264170   4.087   4.846   7.004
87466SOL     OW64171   3.684   6.787   9.408
87466SOL    HW164172   3.743   6.853   9.445
87466SOL    HW264173   3.633   6.835   9.342
87467SOL     OW64174  14.768   5.256   3.383
87467SOL    HW164175  14.735   5.343   3.406
87467SOL    HW264176  14.689   5.202   3.374
87468SOL     OW64177  13.354  10.547   9.065
87468SOL    HW164178  13.325  10.592   8.986
87468SOL    HW264179  13.422  10.605   9.101
87469SOL     OW64180  10.017  14.818  13.490
87469SOL    HW164181  10.028  14.811  13.395
87469SOL    HW264182  10.027   0.033  13.508
87470SOL     OW64183  10.227   2.887   7.921
87470SOL    HW164184  10.171   2.813   7.944
87470SOL    HW264185  10.214   2.899   7.827
87471SOL     OW64186  13.533   4.010   2.732
87471SOL    HW164187  13.594   4.008   2.658
87471SOL    HW264188  13.467   3.945   2.709
87472SOL     OW64189   7.002  10.896   6.018
87472SOL    HW164190   7.066  10.842   6.065
87472SOL    HW264191   6.919  10.851   6.031
87473SOL     OW64192   1.808   1.073   5.079
87473SOL    HW164193   1.829   1.051   4.989
87473SOL    HW264194   1.868   1.146   5.100
87474SOL     OW64195  12.219   6.901  13.573
87474SOL    HW164196  12.150   6.846  13.537
87474SOL    HW264197  12.175   6.953  13.640
87475SOL     OW64198  11.634  10.937   2.262
87475SOL    HW164199  11.695  10.864   2.273
87475SOL    HW264200  11.635  10.982   2.346
87476SOL     OW64201  13.788   6.200  13.064
87476SOL    HW164202  13.721   6.267  13.081
87476SOL    HW264203  13.869   6.240  13.094
87477SOL     OW64204  13.109   6.617  14.727
87477SOL    HW164205  13.182   6.568  14.767
87477SOL    HW264206  13.142   6.643  14.641
87478SOL     OW64207   5.724  12.055   6.637
87478SOL    HW164208   5.756  11.967   6.616
87478SOL    HW264209   5.660  12.042   6.706
87479SOL     OW64210  11.130   9.086   8.336
87479SOL    HW164211  11.223   9.103   8.351
87479SOL    HW264212  11.102   9.155   8.276
87480SOL     OW64213   2.528   6.387   4.330
87480SOL    HW164214   2.595   6.409   4.394
87480SOL    HW264215   2.510   6.469   4.284
87481SOL     OW64216   3.256   4.692   1.007
87481SOL    HW164217   3.252   4.741   1.090
87481SOL    HW264218   3.349   4.676   0.993
87482SOL     OW64219   1.474  13.369   8.526
87482SOL    HW164220   1.399  13.361   8.467
87482SOL    HW264221   1.522  13.445   8.494
87483SOL     OW64222   3.483   3.908   4.133
87483SOL    HW164223   3.453   3.959   4.208
87483SOL    HW264224   3.428   3.936   4.060
87484SOL     OW64225  11.144   7.201   2.379
87484SOL    HW164226  11.085   7.147   2.431
87484SOL    HW264227  11.201   7.139   2.334
87485SOL     OW64228  10.590   1.059  11.507
87485SOL    HW164229  10.556   1.070  11.596
87485SOL    HW264230  10.588   0.964  11.493
87486SOL     OW64231   9.485   5.204  13.160
87486SOL    HW164232   9.396   5.217  13.127
87486SOL    HW264233   9.515   5.292  13.183
87487SOL     OW64234  12.825   9.939   4.370
87487SOL    HW164235  12.769   9.958   4.446
87487SOL    HW264236  12.814   9.845   4.355
87488SOL     OW64237   1.926   6.825   0.618
87488SOL    HW164238   1.980   6.862   0.688
87488SOL    HW264239   1.951   6.733   0.614
87489SOL     OW64240   2.262   5.383   8.421
87489SOL    HW164241   2.312   5.447   8.472
87489SOL    HW264242   2.321   5.309   8.410
87490SOL     OW64243   2.212   7.755  13.901
87490SOL    HW164244   2.133   7.701  13.909
87490SOL    HW264245   2.253   7.751  13.987
87491SOL     OW64246   2.985   8.237  13.486
87491SOL    HW164247   2.917   8.205  13.544
87491SOL    HW264248   3.038   8.160  13.467
87492SOL     OW64249  10.983   9.700   3.397
87492SOL    HW164250  10.952   9.738   3.314
87492SOL    HW264251  11.011   9.775   3.449
87493SOL     OW64252   9.680   8.317  13.662
87493SOL    HW164253   9.609   8.291  13.603
87493SOL    HW264254   9.643   8.308  13.750
87494SOL     OW64255   1.214   8.506   2.127
87494SOL    HW164256   1.255   8.419   2.132
87494SOL    HW264257   1.229   8.545   2.213
87495SOL     OW64258   2.106   2.090   9.044
87495SOL    HW164259   2.131   2.161   8.985
87495SOL    HW264260   2.137   2.118   9.130
87496SOL     OW64261   7.558   9.637  13.281
87496SOL    HW164262   7.466   9.619  13.301
87496SOL    HW264263   7.567   9.731  13.294
87497SOL     OW64264  13.765   5.205   1.705
87497SOL    HW164265  13.829   5.134   1.703
87497SOL    HW264266  13.788   5.261   1.631
87498SOL     OW64267   6.423   0.312   8.834
87498SOL    HW164268   6.376   0.268   8.905
87498SOL    HW264269   6.464   0.388   8.876
87499SOL     OW64270  12.827   9.658   2.419
87499SOL    HW164271  12.819   9.733   2.477
87499SOL    HW264272  12.907   9.675   2.369
87500SOL     OW64273  12.291   7.919   7.394
87500SOL    HW164274  12.228   7.924   7.321
87500SOL    HW264275  12.265   7.841   7.443
87501SOL     OW64276  10.902  10.806   0.327
87501SOL    HW164277  10.874  10.848   0.246
87501SOL    HW264278  10.913  10.878   0.389
87502SOL     OW64279   5.763  14.063  10.095
87502SOL    HW164280   5.683  14.111  10.073
87502SOL    HW264281   5.833  14.112  10.051
87503SOL     OW64282   1.620   1.734  11.130
87503SOL    HW164283   1.697   1.682  11.110
87503SOL    HW264284   1.550   1.670  11.143
87504SOL     OW64285  13.179  10.500  12.689
87504SOL    HW164286  13.121  10.431  12.657
87504SOL    HW264287  13.250  10.504  12.625
87505SOL     OW64288   8.059   5.840  11.754
87505SOL    HW164289   8.062   5.809  11.845
87505SOL    HW264290   8.146   5.875  11.737
87506SOL     OW64291   0.209   9.871   4.535
87506SOL    HW164292   0.153   9.940   4.572
87506SOL    HW264293   0.150   9.822   4.477
87507SOL     OW64294   7.003   7.336   1.828
87507SOL    HW164295   7.024   7.415   1.876
87507SOL    HW264296   6.982   7.271   1.895
87508SOL     OW64297   8.900   6.039   2.146
87508SOL    HW164298   8.958   6.036   2.222
87508SOL    HW264299   8.845   6.116   2.161
87509SOL     OW64300  13.997  11.556  14.455
87509SOL    HW164301  14.008  11.616  14.528
87509SOL    HW264302  14.086  11.527  14.434
87510SOL     OW64303   8.163   8.847  11.501
87510SOL    HW164304   8.214   8.766  11.498
87510SOL    HW264305   8.072   8.819  11.492
87511SOL     OW64306   6.433   3.446   9.123
87511SOL    HW164307   6.421   3.530   9.168
87511SOL    HW264308   6.463   3.387   9.191
87512SOL     OW64309   5.229  10.681   9.755
87512SOL    HW164310   5.241  10.734   9.833
87512SOL    HW264311   5.225  10.591   9.787
87513SOL     OW64312   5.932   0.380   7.968
87513SOL    HW164313   5.856   0.343   7.924
87513SOL    HW264314   5.986   0.416   7.897
87514SOL     OW64315  10.290   4.720   0.795
87514SOL    HW164316  10.196   4.726   0.811
87514SOL    HW264317  10.298   4.663   0.718
87515SOL     OW64318   3.631   9.047   7.680
87515SOL    HW164319   3.566   9.074   7.745
87515SOL    HW264320   3.596   8.966   7.643
87516SOL     OW64321  12.372  11.439  13.207
87516SOL    HW164322  12.449  11.458  13.261
87516SOL    HW264323  12.298  11.470  13.259
87517SOL     OW64324  10.127   0.757  14.379
87517SOL    HW164325  10.063   0.689  14.402
87517SOL    HW264326  10.193   0.752  14.448
87518SOL     OW64327   3.455   0.376   1.546
87518SOL    HW164328   3.432   0.409   1.633
87518SOL    HW264329   3.469   0.282   1.559
87519SOL     OW64330   1.652   8.408   9.232
87519SOL    HW164331   1.597   8.440   9.160
87519SOL    HW264332   1.740   8.400   9.193
87520SOL     OW64333   4.775   2.786   9.708
87520SOL    HW164334   4.686   2.763   9.735
87520SOL    HW264335   4.832   2.737   9.767
87521SOL     OW64336   9.019  11.568  11.111
87521SOL    HW164337   9.026  11.546  11.204
87521SOL    HW264338   8.934  11.612  11.103
87522SOL     OW64339   0.924   6.808  12.532
87522SOL    HW164340   0.833   6.832  12.520
87522SOL    HW264341   0.924   6.749  12.608
87523SOL     OW64342   3.991   0.303   3.101
87523SOL    HW164343   3.935   0.306   3.024
87523SOL    HW264344   4.063   0.363   3.081
87524SOL     OW64345   1.395   6.554   6.366
87524SOL    HW164346   1.438   6.474   6.337
87524SOL    HW264347   1.317   6.525   6.412
87525SOL     OW64348   8.450   9.228   2.878
87525SOL    HW164349   8.357   9.242   2.864
87525SOL    HW264350   8.491   9.258   2.797
87526SOL     OW64351  13.481  10.736  14.698
87526SOL    HW164352  13.568  10.774  14.684
87526SOL    HW264353  13.441  10.735  14.612
87527SOL     OW64354   4.817  14.749  10.829
87527SOL    HW164355   4.877  14.729  10.901
87527SOL    HW264356   4.840  14.686  10.761
87528SOL     OW64357   6.017   3.451  13.962
87528SOL    HW164358   6.061   3.374  13.927
87528SOL    HW264359   5.926   3.442  13.934
87529SOL     OW64360   8.611   1.535   1.683
87529SOL    HW164361   8.536   1.581   1.645
87529SOL    HW264362   8.617   1.453   1.634
87530SOL     OW64363  11.095   3.228  11.310
87530SOL    HW164364  11.184   3.215  11.342
87530SOL    HW264365  11.100   3.305  11.254
87531SOL     OW64366   6.777  10.903   5.073
87531SOL    HW164367   6.744  10.884   5.161
87531SOL    HW264368   6.855  10.849   5.064
87532SOL     OW64369   2.721  10.588  13.695
87532SOL    HW164370   2.686  10.504  13.666
87532SOL    HW264371   2.706  10.647  13.621
87533SOL     OW64372   7.905   8.017   7.200
87533SOL    HW164373   7.888   8.105   7.166
87533SOL    HW264374   7.825   7.994   7.247
87534SOL     OW64375   7.347   9.118  14.168
87534SOL    HW164376   7.334   9.039  14.115
87534SOL    HW264377   7.349   9.190  14.105
87535SOL     OW64378   0.606   9.556   6.484
87535SOL    HW164379   0.599   9.461   6.495
87535SOL    HW264380   0.596   9.571   6.390
87536SOL     OW64381   8.886   5.207  11.980
87536SOL    HW164382   8.893   5.268  11.906
87536SOL    HW264383   8.830   5.252  12.043
87537SOL     OW64384   8.479  11.228   9.336
87537SOL    HW164385   8.466  11.231   9.241
87537SOL    HW264386   8.574  11.227   9.347
87538SOL     OW64387  12.948  12.749  12.153
87538SOL    HW164388  12.874  12.751  12.092
87538SOL    HW264389  12.963  12.656  12.170
87539SOL     OW64390   0.461   2.638  11.603
87539SOL    HW164391   0.529   2.578  11.572
87539SOL    HW264392   0.379   2.600  11.571
87540SOL     OW64393   6.056   6.633   9.938
87540SOL    HW164394   6.113   6.560   9.914
87540SOL    HW264395   5.993   6.639   9.866
87541SOL     OW64396   1.858  12.585  11.376
87541SOL    HW164397   1.766  12.607  11.365
87541SOL    HW264398   1.868  12.567  11.470
87542SOL     OW64399  13.732   1.197   7.017
87542SOL    HW164400  13.686   1.205   7.100
87542SOL    HW264401  13.736   1.286   6.982
87543SOL     OW64402   8.063   9.727   1.245
87543SOL    HW164403   8.037   9.811   1.283
87543SOL    HW264404   8.090   9.749   1.156
87544SOL     OW64405  13.408   1.365   7.863
87544SOL    HW164406  13.384   1.283   7.820
87544SOL    HW264407  13.451   1.416   7.794
87545SOL     OW64408  12.582   8.096   4.358
87545SOL    HW164409  12.506   8.155   4.359
87545SOL    HW264410  12.632   8.121   4.436
87546SOL     OW64411   7.619   5.403  10.505
87546SOL    HW164412   7.661   5.327  10.465
87546SOL    HW264413   7.693   5.458  10.534
87547SOL     OW64414  13.129  14.865   4.576
87547SOL    HW164415  13.079   0.064   4.550
87547SOL    HW264416  13.206   0.022   4.619
87548SOL     OW64417   1.014   3.811   6.928
87548SOL    HW164418   1.060   3.756   6.991
87548SOL    HW264419   0.942   3.849   6.977
87549SOL     OW64420   3.391  11.039  10.726
87549SOL    HW164421   3.476  11.060  10.688
87549SOL    HW264422   3.329  11.091  10.675
87550SOL     OW64423   3.697  11.293   7.990
87550SOL    HW164424   3.616  11.320   8.034
87550SOL    HW264425   3.674  11.210   7.948
87551SOL     OW64426  14.683   6.658   6.544
87551SOL    HW164427  14.689   6.741   6.592
87551SOL    HW264428  14.704   6.681   6.453
87552SOL     OW64429  14.848   9.377  14.460
87552SOL    HW164430  14.861   9.468  14.488
87552SOL    HW264431  14.778   9.345  14.516
87553SOL     OW64432   6.935   3.833   6.512
87553SOL    HW164433   6.868   3.898   6.534
87553SOL    HW264434   6.987   3.875   6.443
87554SOL     OW64435   5.185   8.761   2.763
87554SOL    HW164436   5.220   8.676   2.735
87554SOL    HW264437   5.134   8.741   2.842
87555SOL     OW64438   0.071   3.639  11.490
87555SOL    HW164439   0.078   3.717  11.435
87555SOL    HW264440   0.033   3.573  11.432
87556SOL     OW64441   2.223   0.323   0.896
87556SOL    HW164442   2.282   0.348   0.825
87556SOL    HW264443   2.275   0.262   0.949
87557SOL     OW64444   3.127  10.161  12.727
87557SOL    HW164445   3.032  10.171  12.729
87557SOL    HW264446   3.146  10.097  12.796
87558SOL     OW64447   5.107   6.502   1.543
87558SOL    HW164448   5.122   6.595   1.525
87558SOL    HW264449   5.030   6.480   1.491
87559SOL     OW64450  10.234   8.272   7.597
87559SOL    HW164451  10.207   8.193   7.644
87559SOL    HW264452  10.174   8.340   7.628
87560SOL     OW64453   5.953  10.034   1.166
87560SOL    HW164454   6.000  10.100   1.218
87560SOL    HW264455   5.999  10.032   1.083
87561SOL     OW64456   8.825   3.609  13.292
87561SOL    HW164457   8.895   3.545  13.301
87561SOL    HW264458   8.746   3.563  13.318
87562SOL     OW64459   8.290  12.836   1.394
87562SOL    HW164460   8.286  12.745   1.423
87562SOL    HW264461   8.240  12.837   1.312
87563SOL     OW64462  12.955   8.279   2.932
87563SOL    HW164463  12.885   8.220   2.962
87563SOL    HW264464  12.916   8.327   2.859
87564SOL     OW64465  13.921   4.659   8.757
87564SOL    HW164466  14.011   4.691   8.754
87564SOL    HW264467  13.928   4.567   8.729
87565SOL     OW64468   2.358   4.176   8.194
87565SOL    HW164469   2.330   4.090   8.162
87565SOL    HW264470   2.368   4.165   8.289
87566SOL     OW64471  14.065   0.550  13.003
87566SOL    HW164472  13.992   0.487  13.012
87566SOL    HW264473  14.100   0.560  13.091
87567SOL     OW64474  12.274   4.632  14.038
87567SOL    HW164475  12.358   4.678  14.052
87567SOL    HW264476  12.296   4.559  13.981
87568SOL     OW64477  11.701  12.897   8.106
87568SOL    HW164478  11.776  12.856   8.062
87568SOL    HW264479  11.648  12.824   8.137
87569SOL     OW64480   7.197   2.298  12.795
87569SOL    HW164481   7.145   2.237  12.847
87569SOL    HW264482   7.266   2.328  12.855
87570SOL     OW64483   0.274   2.503   9.385
87570SOL    HW164484   0.302   2.503   9.476
87570SOL    HW264485   0.294   2.592   9.353
87571SOL     OW64486   3.316   9.175  13.568
87571SOL    HW164487   3.341   9.093  13.525
87571SOL    HW264488   3.383   9.190  13.634
87572SOL     OW64489   4.448  12.095   4.556
87572SOL    HW164490   4.463  12.105   4.462
87572SOL    HW264491   4.457  12.183   4.591
87573SOL     OW64492   5.937   4.474  11.219
87573SOL    HW164493   5.915   4.438  11.133
87573SOL    HW264494   5.853   4.506  11.253
87574SOL     OW64495  10.973  11.882   7.267
87574SOL    HW164496  10.937  11.803   7.307
87574SOL    HW264497  10.966  11.948   7.336
87575SOL     OW64498   3.391   4.824   1.676
87575SOL    HW164499   3.368   4.915   1.659
87575SOL    HW264500   3.478   4.827   1.716
87576SOL     OW64501   2.047   3.227  11.292
87576SOL    HW164502   2.066   3.133  11.298
87576SOL    HW264503   2.079   3.253  11.205
87577SOL     OW64504   8.658   2.997  11.843
87577SOL    HW164505   8.579   3.019  11.892
87577SOL    HW264506   8.699   3.082  11.824
87578SOL     OW64507   4.294   8.891  14.435
87578SOL    HW164508   4.328   8.871  14.522
87578SOL    HW264509   4.315   8.983  14.421
87579SOL     OW64510   3.493   5.880  11.635
87579SOL    HW164511   3.536   5.909  11.716
87579SOL    HW264512   3.565   5.856  11.576
87580SOL     OW64513   5.880  14.876   4.549
87580SOL    HW164514   5.801  14.863   4.601
87580SOL    HW264515   5.945  14.818   4.589
87581SOL     OW64516  11.210  11.572  11.109
87581SOL    HW164517  11.270  11.642  11.085
87581SOL    HW264518  11.263  11.492  11.103
87582SOL     OW64519  13.701  12.614   0.510
87582SOL    HW164520  13.674  12.656   0.428
87582SOL    HW264521  13.638  12.542   0.522
87583SOL     OW64522   8.860  13.990   8.285
87583SOL    HW164523   8.918  13.915   8.296
87583SOL    HW264524   8.907  14.047   8.224
87584SOL     OW64525   1.396   4.897   9.684
87584SOL    HW164526   1.340   4.844   9.741
87584SOL    HW264527   1.479   4.903   9.731
87585SOL     OW64528   7.985   7.299   6.302
87585SOL    HW164529   7.931   7.232   6.260
87585SOL    HW264530   7.925   7.372   6.319
87586SOL     OW64531  13.192   5.393   0.687
87586SOL    HW164532  13.274   5.429   0.652
87586SOL    HW264533  13.216   5.353   0.770
87587SOL     OW64534  14.225   7.428   1.013
87587SOL    HW164535  14.179   7.479   1.080
87587SOL    HW264536  14.156   7.394   0.957
87588SOL     OW64537   1.367   1.186  14.072
87588SOL    HW164538   1.340   1.210  14.161
87588SOL    HW264539   1.354   1.092  14.068
87589SOL     OW64540   9.895  11.990   7.548
87589SOL    HW164541   9.922  11.898   7.548
87589SOL    HW264542   9.808  11.990   7.508
87590SOL     OW64543   6.368   1.111   5.751
87590SOL    HW164544   6.326   1.190   5.716
87590SOL    HW264545   6.336   1.104   5.841
87591SOL     OW64546   2.049   7.627   5.633
87591SOL    HW164547   1.957   7.649   5.615
87591SOL    HW264548   2.060   7.540   5.596
87592SOL     OW64549   8.709   0.668  12.347
87592SOL    HW164550   8.656   0.701  12.275
87592SOL    HW264551   8.799   0.679  12.318
87593SOL     OW64552   6.303   1.275   9.840
87593SOL    HW164553   6.345   1.208   9.894
87593SOL    HW264554   6.289   1.232   9.756
87594SOL     OW64555   1.586   7.322  12.962
87594SOL    HW164556   1.539   7.346  12.882
87594SOL    HW264557   1.534   7.250  12.999
87595SOL     OW64558  14.686   5.337   0.930
87595SOL    HW164559  14.624   5.409   0.915
87595SOL    HW264560  14.639   5.275   0.985
87596SOL     OW64561   0.034   2.186   2.869
87596SOL    HW164562   0.090   2.133   2.814
87596SOL    HW264563   0.094   2.231   2.929
87597SOL     OW64564  13.937  10.676   1.963
87597SOL    HW164565  13.878  10.656   1.890
87597SOL    HW264566  13.958  10.591   2.001
87598SOL     OW64567   4.182   1.622   1.504
87598SOL    HW164568   4.108   1.648   1.448
87598SOL    HW264569   4.166   1.667   1.587
87599SOL     OW64570  10.223   7.299   4.575
87599SOL    HW164571  10.233   7.376   4.631
87599SOL    HW264572  10.256   7.227   4.627
87600SOL     OW64573  13.144  13.300   4.686
87600SOL    HW164574  13.151  13.229   4.622
87600SOL    HW264575  13.187  13.375   4.644
87601SOL     OW64576  13.403   5.681   4.429
87601SOL    HW164577  13.322   5.731   4.417
87601SOL    HW264578  13.388   5.631   4.509
87602SOL     OW64579   7.710  13.095   3.071
87602SOL    HW164580   7.800  13.061   3.071
87602SOL    HW264581   7.719  13.185   3.102
87603SOL     OW64582  11.803  10.431   3.965
87603SOL    HW164583  11.730  10.403   3.910
87603SOL    HW264584  11.793  10.383   4.047
87604SOL     OW64585  13.135   9.000  14.575
87604SOL    HW164586  13.108   8.927  14.631
87604SOL    HW264587  13.171   8.958  14.497
87605SOL     OW64588  10.599  10.068  12.392
87605SOL    HW164589  10.649   9.994  12.357
87605SOL    HW264590  10.666  10.123  12.433
87606SOL     OW64591   9.577  11.982  11.652
87606SOL    HW164592   9.565  12.070  11.615
87606SOL    HW264593   9.588  11.925  11.576
87607SOL     OW64594   7.004   6.250   7.807
87607SOL    HW164595   6.917   6.275   7.837
87607SOL    HW264596   6.993   6.160   7.774
87608SOL     OW64597  12.179   3.113   3.686
87608SOL    HW164598  12.185   3.153   3.773
87608SOL    HW264599  12.172   3.187   3.626
87609SOL     OW64600  14.304   5.102   3.073
87609SOL    HW164601  14.357   5.041   3.124
87609SOL    HW264602  14.232   5.126   3.131
87610SOL     OW64603   3.771   8.988  11.561
87610SOL    HW164604   3.723   9.013  11.639
87610SOL    HW264605   3.707   8.995  11.490
87611SOL     OW64606   0.306  11.537   9.028
87611SOL    HW164607   0.353  11.582   9.097
87611SOL    HW264608   0.352  11.561   8.948
87612SOL     OW64609   4.669   4.386   9.775
87612SOL    HW164610   4.734   4.437   9.726
87612SOL    HW264611   4.595   4.378   9.715
87613SOL     OW64612  12.378   8.898   9.940
87613SOL    HW164613  12.417   8.907  10.026
87613SOL    HW264614  12.363   8.989   9.911
87614SOL     OW64615   6.265   1.874   5.715
87614SOL    HW164616   6.279   1.968   5.702
87614SOL    HW264617   6.348   1.843   5.751
87615SOL     OW64618  14.624   0.479  11.513
87615SOL    HW164619  14.700   0.470  11.455
87615SOL    HW264620  14.662   0.487  11.601
87616SOL     OW64621  13.669   7.076   2.485
87616SOL    HW164622  13.710   7.144   2.432
87616SOL    HW264623  13.665   7.000   2.426
87617SOL     OW64624  14.453  13.229   1.862
87617SOL    HW164625  14.398  13.226   1.940
87617SOL    HW264626  14.488  13.140   1.854
87618SOL     OW64627   3.043   5.535   6.678
87618SOL    HW164628   3.074   5.516   6.590
87618SOL    HW264629   2.956   5.573   6.665
87619SOL     OW64630  10.700   9.341   2.823
87619SOL    HW164631  10.759   9.269   2.799
87619SOL    HW264632  10.616   9.316   2.786
87620SOL     OW64633   4.067  11.851   8.980
87620SOL    HW164634   4.084  11.944   8.966
87620SOL    HW264635   4.152  11.809   8.966
87621SOL     OW64636  12.108   6.768  10.150
87621SOL    HW164637  12.120   6.690  10.096
87621SOL    HW264638  12.039   6.744  10.212
87622SOL     OW64639  12.165   2.816   8.050
87622SOL    HW164640  12.107   2.743   8.075
87622SOL    HW264641  12.242   2.774   8.012
87623SOL     OW64642   7.127   3.139  12.438
87623SOL    HW164643   7.215   3.143  12.399
87623SOL    HW264644   7.104   3.230  12.456
87624SOL     OW64645   6.141   0.118   6.580
87624SOL    HW164646   6.150   0.164   6.664
87624SOL    HW264647   6.230   0.090   6.559
87625SOL     OW64648   6.242   3.109   4.273
87625SOL    HW164649   6.314   3.171   4.257
87625SOL    HW264650   6.163   3.164   4.270
87626SOL     OW64651   7.915   5.265  14.689
87626SOL    HW164652   7.840   5.209  14.669
87626SOL    HW264653   7.921   5.263  14.785
87627SOL     OW64654   5.323   6.856   7.289
87627SOL    HW164655   5.287   6.822   7.372
87627SOL    HW264656   5.367   6.781   7.250
87628SOL     OW64657  13.067  10.497   5.872
87628SOL    HW164658  12.987  10.533   5.835
87628SOL    HW264659  13.043  10.470   5.961
87629SOL     OW64660  13.127   0.031   0.884
87629SOL    HW164661  13.124   0.114   0.931
87629SOL    HW264662  13.128   0.055   0.792
87630SOL     OW64663  11.265   3.973   7.281
87630SOL    HW164664  11.332   4.014   7.335
87630SOL    HW264665  11.191   3.958   7.341
87631SOL     OW64666   0.670   1.486  11.178
87631SOL    HW164667   0.761   1.457  11.167
87631SOL    HW264668   0.671   1.578  11.152
87632SOL     OW64669   6.351   7.702   7.588
87632SOL    HW164670   6.400   7.780   7.560
87632SOL    HW264671   6.282   7.736   7.645
87633SOL     OW64672  14.276  13.698   8.244
87633SOL    HW164673  14.337  13.694   8.170
87633SOL    HW264674  14.284  13.787   8.277
87634SOL     OW64675   6.696   0.266   5.683
87634SOL    HW164676   6.643   0.231   5.755
87634SOL    HW264677   6.636   0.267   5.608
87635SOL     OW64678   2.800  14.197  12.971
87635SOL    HW164679   2.881  14.216  12.924
87635SOL    HW264680   2.755  14.281  12.978
87636SOL     OW64681   4.593  12.816   3.479
87636SOL    HW164682   4.566  12.891   3.425
87636SOL    HW264683   4.660  12.852   3.537
87637SOL     OW64684  10.493  11.456   6.713
87637SOL    HW164685  10.477  11.445   6.619
87637SOL    HW264686  10.501  11.367   6.746
87638SOL     OW64687  10.332   4.354  13.249
87638SOL    HW164688  10.359   4.262  13.248
87638SOL    HW264689  10.252   4.356  13.301
87639SOL     OW64690  13.075   6.961  13.568
87639SOL    HW164691  13.007   6.908  13.526
87639SOL    HW264692  13.144   6.969  13.502
87640SOL     OW64693   1.273   3.219   4.211
87640SOL    HW164694   1.225   3.198   4.131
87640SOL    HW264695   1.205   3.228   4.278
87641SOL     OW64696   4.772  12.095  11.739
87641SOL    HW164697   4.767  12.003  11.765
87641SOL    HW264698   4.704  12.104  11.671
87642SOL     OW64699  10.091   9.298   7.884
87642SOL    HW164700  10.079   9.209   7.917
87642SOL    HW264701  10.154   9.289   7.812
87643SOL     OW64702  14.587   7.840   4.332
87643SOL    HW164703  14.679   7.817   4.320
87643SOL    HW264704  14.573   7.915   4.275
87644SOL     OW64705  11.671  11.534   8.652
87644SOL    HW164706  11.683  11.625   8.627
87644SOL    HW264707  11.605  11.536   8.722
87645SOL     OW64708  13.127   0.293   5.411
87645SOL    HW164709  13.215   0.266   5.437
87645SOL    HW264710  13.077   0.211   5.411
87646SOL     OW64711   3.214   7.715   0.075
87646SOL    HW164712   3.233   7.722  14.859
87646SOL    HW264713   3.194   7.805   0.101
87647SOL     OW64714   2.875  12.873   0.554
87647SOL    HW164715   2.782  12.874   0.577
87647SOL    HW264716   2.895  12.963   0.529
87648SOL     OW64717  11.695   0.427   0.066
87648SOL    HW164718  11.642   0.464   0.136
87648SOL    HW264719  11.695   0.495  14.876
87649SOL     OW64720  13.556   8.463  13.646
87649SOL    HW164721  13.461   8.458  13.639
87649SOL    HW264722  13.576   8.556  13.640
87650SOL     OW64723   6.455   8.092   9.559
87650SOL    HW164724   6.463   8.174   9.511
87650SOL    HW264725   6.475   8.115   9.650
87651SOL     OW64726   5.380  12.181   0.168
87651SOL    HW164727   5.300  12.133   0.189
87651SOL    HW264728   5.402  12.228   0.249
87652SOL     OW64729   4.849   8.692   1.279
87652SOL    HW164730   4.763   8.652   1.291
87652SOL    HW264731   4.912   8.623   1.300
87653SOL     OW64732   2.246   9.592  11.753
87653SOL    HW164733   2.212   9.600  11.664
87653SOL    HW264734   2.225   9.676  11.794
87654SOL     OW64735  11.155   9.191  13.756
87654SOL    HW164736  11.149   9.280  13.791
87654SOL    HW264737  11.082   9.185  13.695
87655SOL     OW64738   4.775   6.127   0.767
87655SOL    HW164739   4.683   6.147   0.754
87655SOL    HW264740   4.820   6.211   0.757
87656SOL     OW64741   8.844   2.732  12.508
87656SOL    HW164742   8.815   2.820  12.484
87656SOL    HW264743   8.854   2.687  12.424
87657SOL     OW64744   7.384   1.962   5.265
87657SOL    HW164745   7.466   1.914   5.251
87657SOL    HW264746   7.410   2.054   5.258
87658SOL     OW64747   3.705   8.738   1.080
87658SOL    HW164748   3.617   8.752   1.045
87658SOL    HW264749   3.731   8.824   1.113
87659SOL     OW64750   8.172  11.690  12.704
87659SOL    HW164751   8.196  11.781  12.687
87659SOL    HW264752   8.089  11.678  12.657
87660SOL     OW64753   5.628  14.191   2.782
87660SOL    HW164754   5.702  14.180   2.842
87660SOL    HW264755   5.593  14.102   2.770
87661SOL     OW64756  11.380   7.888   9.013
87661SOL    HW164757  11.414   7.906   8.925
87661SOL    HW264758  11.449   7.920   9.072
87662SOL     OW64759  11.611   9.197   7.154
87662SOL    HW164760  11.567   9.123   7.112
87662SOL    HW264761  11.691   9.210   7.103
87663SOL     OW64762  14.093   0.843   8.725
87663SOL    HW164763  14.107   0.815   8.634
87663SOL    HW264764  14.006   0.811   8.747
87664SOL     OW64765  14.643   0.507  12.929
87664SOL    HW164766  14.642   0.596  12.964
87664SOL    HW264767  14.729   0.473  12.954
87665SOL     OW64768  11.254   7.626  10.635
87665SOL    HW164769  11.227   7.551  10.582
87665SOL    HW264770  11.325   7.666  10.585
87666SOL     OW64771   5.181   8.174   7.979
87666SOL    HW164772   5.199   8.088   7.941
87666SOL    HW264773   5.093   8.195   7.949
87667SOL     OW64774   1.985   2.454  13.580
87667SOL    HW164775   1.958   2.488  13.495
87667SOL    HW264776   1.955   2.363  13.581
87668SOL     OW64777   3.067  13.407   1.910
87668SOL    HW164778   3.038  13.354   1.837
87668SOL    HW264779   3.018  13.374   1.985
87669SOL     OW64780  11.876  12.163  11.749
87669SOL    HW164781  11.829  12.173  11.832
87669SOL    HW264782  11.822  12.207  11.685
87670SOL     OW64783   1.556   4.935  10.872
87670SOL    HW164784   1.526   4.902  10.787
87670SOL    HW264785   1.644   4.898  10.882
87671SOL     OW64786   9.299  13.762   3.529
87671SOL    HW164787   9.365  13.730   3.590
87671SOL    HW264788   9.326  13.730   3.444
87672SOL     OW64789   5.557   2.492  12.983
87672SOL    HW164790   5.479   2.536  13.015
87672SOL    HW264791   5.624   2.560  12.981
87673SOL     OW64792  14.006   6.895   9.200
87673SOL    HW164793  13.994   6.887   9.106
87673SOL    HW264794  14.101   6.888   9.213
87674SOL     OW64795   0.636  12.533  13.332
87674SOL    HW164796   0.559  12.475  13.331
87674SOL    HW264797   0.615  12.601  13.396
87675SOL     OW64798   1.408   8.049   7.788
87675SOL    HW164799   1.502   8.043   7.806
87675SOL    HW264800   1.369   8.075   7.871
87676SOL     OW64801   5.484   1.450   7.084
87676SOL    HW164802   5.458   1.534   7.122
87676SOL    HW264803   5.416   1.430   7.020
87677SOL     OW64804   5.855   9.955   3.425
87677SOL    HW164805   5.795  10.017   3.467
87677SOL    HW264806   5.936   9.962   3.476
87678SOL     OW64807  10.379   2.790  13.755
87678SOL    HW164808  10.473   2.790  13.773
87678SOL    HW264809  10.342   2.725  13.815
87679SOL     OW64810   8.545   9.471   4.746
87679SOL    HW164811   8.509   9.491   4.660
87679SOL    HW264812   8.478   9.500   4.808
87680SOL     OW64813   1.445  11.150  10.131
87680SOL    HW164814   1.531  11.147  10.089
87680SOL    HW264815   1.457  11.103  10.214
87681SOL     OW64816   0.273  12.869  13.693
87681SOL    HW164817   0.288  12.849  13.601
87681SOL    HW264818   0.341  12.932  13.716
87682SOL     OW64819   0.740   1.679   2.931
87682SOL    HW164820   0.809   1.625   2.892
87682SOL    HW264821   0.660   1.627   2.921
87683SOL     OW64822  13.348  10.603  12.490
87683SOL    HW164823  13.303  10.634  12.412
87683SOL    HW264824  13.400  10.529  12.460
87684SOL     OW64825   6.038   1.708   9.405
87684SOL    HW164826   6.024   1.622   9.365
87684SOL    HW264827   5.959   1.723   9.457
87685SOL     OW64828  11.160   0.576  12.566
87685SOL    HW164829  11.167   0.625  12.647
87685SOL    HW264830  11.171   0.484  12.591
87686SOL     OW64831   4.376   3.136   7.243
87686SOL    HW164832   4.386   3.099   7.331
87686SOL    HW264833   4.325   3.070   7.195
87687SOL     OW64834  10.027   3.778   3.150
87687SOL    HW164835   9.942   3.786   3.108
87687SOL    HW264836  10.085   3.746   3.081
87688SOL     OW64837   2.510   7.331  13.748
87688SOL    HW164838   2.460   7.409  13.771
87688SOL    HW264839   2.488   7.267  13.816
87689SOL     OW64840   9.084  11.057   4.414
87689SOL    HW164841   9.107  11.125   4.350
87689SOL    HW264842   9.073  10.978   4.361
87690SOL     OW64843  11.327  12.608   3.978
87690SOL    HW164844  11.302  12.689   4.024
87690SOL    HW264845  11.246  12.557   3.973
87691SOL     OW64846  13.017   7.009   4.653
87691SOL    HW164847  12.947   7.059   4.612
87691SOL    HW264848  13.076   7.075   4.690
87692SOL     OW64849   8.929   3.358   9.793
87692SOL    HW164850   8.866   3.287   9.785
87692SOL    HW264851   8.876   3.438   9.790
87693SOL     OW64852   6.420  14.295   1.219
87693SOL    HW164853   6.416  14.373   1.165
87693SOL    HW264854   6.505  14.256   1.199
87694SOL     OW64855  13.495   8.830   1.518
87694SOL    HW164856  13.511   8.924   1.515
87694SOL    HW264857  13.577   8.790   1.489
87695SOL     OW64858   5.925  14.349  13.170
87695SOL    HW164859   5.849  14.338  13.113
87695SOL    HW264860   5.996  14.373  13.110
87696SOL     OW64861   8.436   6.922   2.812
87696SOL    HW164862   8.409   6.879   2.731
87696SOL    HW264863   8.393   7.007   2.809
87697SOL     OW64864   5.063  13.567   0.861
87697SOL    HW164865   4.997  13.567   0.791
87697SOL    HW264866   5.139  13.523   0.821
87698SOL     OW64867  10.794   2.023   8.164
87698SOL    HW164868  10.804   2.086   8.236
87698SOL    HW264869  10.804   2.076   8.085
87699SOL     OW64870  11.443   1.140  12.622
87699SOL    HW164871  11.386   1.133  12.545
87699SOL    HW264872  11.491   1.222  12.609
87700SOL     OW64873   1.535  13.180   0.369
87700SOL    HW164874   1.499  13.114   0.310
87700SOL    HW264875   1.607  13.136   0.414
87701SOL     OW64876   0.190  13.511  10.592
87701SOL    HW164877   0.232  13.597  10.590
87701SOL    HW264878   0.157  13.498  10.503
87702SOL     OW64879  10.375   3.267   1.221
87702SOL    HW164880  10.327   3.184   1.217
87702SOL    HW264881  10.429   3.267   1.142
87703SOL     OW64882   4.321  11.883   3.991
87703SOL    HW164883   4.398  11.887   4.047
87703SOL    HW264884   4.328  11.799   3.946
87704SOL     OW64885   6.633   3.593   3.283
87704SOL    HW164886   6.695   3.547   3.227
87704SOL    HW264887   6.582   3.647   3.222
87705SOL     OW64888   0.049   1.298  11.696
87705SOL    HW164889   0.098   1.379  11.689
87705SOL    HW264890   0.013   1.284  11.608
87706SOL     OW64891   1.167  12.310  14.001
87706SOL    HW164892   1.105  12.238  13.999
87706SOL    HW264893   1.242  12.279  13.952
87707SOL     OW64894   0.106  12.518  11.915
87707SOL    HW164895   0.033  12.514  11.853
87707SOL    HW264896   0.079  12.462  11.988
87708SOL     OW64897   3.496   9.726   6.203
87708SOL    HW164898   3.442   9.654   6.170
87708SOL    HW264899   3.501   9.712   6.297
87709SOL     OW64900  12.043   7.214   6.452
87709SOL    HW164901  12.121   7.159   6.457
87709SOL    HW264902  12.008   7.199   6.364
87710SOL     OW64903  14.302   7.836   3.712
87710SOL    HW164904  14.345   7.857   3.795
87710SOL    HW264905  14.368   7.788   3.662
87711SOL     OW64906   5.759   5.456  11.522
87711SOL    HW164907   5.765   5.396  11.596
87711SOL    HW264908   5.787   5.404  11.446
87712SOL     OW64909  11.951  14.785  12.625
87712SOL    HW164910  12.000  14.703  12.620
87712SOL    HW264911  11.956  14.810  12.717
87713SOL     OW64912   5.752  11.607   3.645
87713SOL    HW164913   5.758  11.549   3.569
87713SOL    HW264914   5.680  11.667   3.623
87714SOL     OW64915  10.319  10.535  11.106
87714SOL    HW164916  10.299  10.530  11.012
87714SOL    HW264917  10.408  10.500  11.114
87715SOL     OW64918   0.406  10.935   6.999
87715SOL    HW164919   0.398  11.022   6.960
87715SOL    HW264920   0.391  10.874   6.927
87716SOL     OW64921   5.550  10.046  14.609
87716SOL    HW164922   5.640  10.032  14.638
87716SOL    HW264923   5.504  10.075  14.687
87717SOL     OW64924  13.114   0.806   2.183
87717SOL    HW164925  13.134   0.738   2.248
87717SOL    HW264926  13.198   0.822   2.139
87718SOL     OW64927   4.168   8.181   6.122
87718SOL    HW164928   4.208   8.233   6.191
87718SOL    HW264929   4.165   8.092   6.157
87719SOL     OW64930  10.816  10.056  13.214
87719SOL    HW164931  10.885  10.062  13.280
87719SOL    HW264932  10.771   9.974  13.234
87720SOL     OW64933  13.677   7.118   0.684
87720SOL    HW164934  13.673   7.089   0.775
87720SOL    HW264935  13.588   7.104   0.650
87721SOL     OW64936   8.380   0.668   8.984
87721SOL    HW164937   8.301   0.675   8.931
87721SOL    HW264938   8.448   0.709   8.930
87722SOL     OW64939  14.449   3.146   1.126
87722SOL    HW164940  14.403   3.113   1.203
87722SOL    HW264941  14.380   3.182   1.070
87723SOL     OW64942   4.037   2.082  11.604
87723SOL    HW164943   4.108   2.138  11.634
87723SOL    HW264944   3.959   2.138  11.612
87724SOL     OW64945  13.634   7.980  10.964
87724SOL    HW164946  13.664   7.918  10.898
87724SOL    HW264947  13.556   8.020  10.927
87725SOL     OW64948   5.884   5.031   2.010
87725SOL    HW164949   5.904   5.022   2.103
87725SOL    HW264950   5.880   4.940   1.978
87726SOL     OW64951  11.132   0.277   4.605
87726SOL    HW164952  11.157   0.356   4.653
87726SOL    HW264953  11.144   0.206   4.668
87727SOL     OW64954  11.199   2.962   7.731
87727SOL    HW164955  11.227   3.053   7.731
87727SOL    HW264956  11.174   2.944   7.641
87728SOL     OW64957  11.131  14.050   6.071
87728SOL    HW164958  11.186  14.117   6.111
87728SOL    HW264959  11.188  13.974   6.064
87729SOL     OW64960   1.385   1.998  14.037
87729SOL    HW164961   1.447   1.994  14.110
87729SOL    HW264962   1.331   1.919  14.048
87730SOL     OW64963   2.541   9.172   2.197
87730SOL    HW164964   2.561   9.134   2.283
87730SOL    HW264965   2.622   9.213   2.170
87731SOL     OW64966   6.161   5.682   2.622
87731SOL    HW164967   6.160   5.603   2.676
87731SOL    HW264968   6.069   5.700   2.604
87732SOL     OW64969   9.068   2.749  13.680
87732SOL    HW164970   9.114   2.785  13.604
87732SOL    HW264971   9.068   2.654  13.665
87733SOL     OW64972   4.807   7.731   0.036
87733SOL    HW164973   4.731   7.692  14.870
87733SOL    HW264974   4.826   7.810  14.864
87734SOL     OW64975  11.708   4.061  13.934
87734SOL    HW164976  11.699   4.139  13.989
87734SOL    HW264977  11.633   4.006  13.959
87735SOL     OW64978   6.565   7.839  12.497
87735SOL    HW164979   6.638   7.829  12.435
87735SOL    HW264980   6.605   7.878  12.574
87736SOL     OW64981  12.850   9.184   1.502
87736SOL    HW164982  12.838   9.157   1.411
87736SOL    HW264983  12.789   9.130   1.552
87737SOL     OW64984   5.274   6.180   2.068
87737SOL    HW164985   5.292   6.266   2.105
87737SOL    HW264986   5.287   6.190   1.974
87738SOL     OW64987   2.758   6.249   4.548
87738SOL    HW164988   2.734   6.334   4.511
87738SOL    HW264989   2.719   6.185   4.489
87739SOL     OW64990  10.475   2.074   3.718
87739SOL    HW164991  10.454   2.140   3.784
87739SOL    HW264992  10.424   2.099   3.641
87740SOL     OW64993  10.932   7.708   1.843
87740SOL    HW164994  11.000   7.712   1.775
87740SOL    HW264995  10.964   7.768   1.911
87741SOL     OW64996   1.183   3.400   3.983
87741SOL    HW164997   1.250   3.437   3.926
87741SOL    HW264998   1.177   3.308   3.958
87742SOL     OW64999   0.170   4.714  13.091
87742SOL    HW165000   0.185   4.654  13.018
87742SOL    HW265001   0.089   4.683  13.132
87743SOL     OW65002  11.606   3.022  12.154
87743SOL    HW165003  11.583   3.063  12.238
87743SOL    HW265004  11.674   2.959  12.177
87744SOL     OW65005   9.652   5.066  11.700
87744SOL    HW165006   9.579   5.010  11.726
87744SOL    HW265007   9.703   5.012  11.639
87745SOL     OW65008   0.932  11.885   0.595
87745SOL    HW165009   1.013  11.843   0.622
87745SOL    HW265010   0.945  11.909   0.504
87746SOL     OW65011   8.847   5.492  12.979
87746SOL    HW165012   8.824   5.409  12.939
87746SOL    HW265013   8.802   5.558  12.926
87747SOL     OW65014   0.007   5.662   6.776
87747SOL    HW165015  14.807   5.718   6.783
87747SOL    HW265016   0.027   5.661   6.683
87748SOL     OW65017  11.145  10.041   4.302
87748SOL    HW165018  11.182  10.096   4.233
87748SOL    HW265019  11.070  10.092   4.335
87749SOL     OW65020  13.996  14.265  14.469
87749SOL    HW165021  13.961  14.210  14.399
87749SOL    HW265022  14.080  14.297  14.436
87750SOL     OW65023  12.652   0.909   2.631
87750SOL    HW165024  12.672   0.837   2.690
87750SOL    HW265025  12.735   0.955   2.619
87751SOL     OW65026  13.485   0.624   8.432
87751SOL    HW165027  13.504   0.713   8.461
87751SOL    HW265028  13.508   0.569   8.507
87752SOL     OW65029   6.972   9.810   6.332
87752SOL    HW165030   6.921   9.889   6.350
87752SOL    HW265031   7.046   9.815   6.393
87753SOL     OW65032   5.474  10.647  13.888
87753SOL    HW165033   5.518  10.587  13.827
87753SOL    HW265034   5.417  10.700  13.832
87754SOL     OW65035  13.197   6.252  13.449
87754SOL    HW165036  13.132   6.283  13.512
87754SOL    HW265037  13.239   6.332  13.417
87755SOL     OW65038   1.171  13.761   6.344
87755SOL    HW165039   1.096  13.751   6.285
87755SOL    HW265040   1.136  13.809   6.419
87756SOL     OW65041   3.443   4.586   1.980
87756SOL    HW165042   3.376   4.524   1.952
87756SOL    HW265043   3.420   4.607   2.070
87757SOL     OW65044   5.123   4.530  11.188
87757SOL    HW165045   5.132   4.437  11.205
87757SOL    HW265046   5.205   4.556  11.147
87758SOL     OW65047   5.553  12.340  13.499
87758SOL    HW165048   5.604  12.348  13.579
87758SOL    HW265049   5.519  12.427  13.483
87759SOL     OW65050   5.198   0.113  11.482
87759SOL    HW165051   5.172   0.189  11.534
87759SOL    HW265052   5.239   0.054  11.546
87760SOL     OW65053   9.710   2.284   3.730
87760SOL    HW165054   9.714   2.275   3.634
87760SOL    HW265055   9.712   2.194   3.762
87761SOL     OW65056   3.697  11.502  12.843
87761SOL    HW165057   3.619  11.526  12.794
87761SOL    HW265058   3.693  11.407  12.851
87762SOL     OW65059   0.716  12.727   0.442
87762SOL    HW165060   0.806  12.740   0.412
87762SOL    HW265061   0.684  12.815   0.463
87763SOL     OW65062   1.127   1.931  14.399
87763SOL    HW165063   1.183   2.000  14.363
87763SOL    HW265064   1.067   1.910  14.328
87764SOL     OW65065   0.873  13.286   3.671
87764SOL    HW165066   0.820  13.331   3.605
87764SOL    HW265067   0.844  13.324   3.755
87765SOL     OW65068  11.642   0.947  11.366
87765SOL    HW165069  11.721   0.957  11.419
87765SOL    HW265070  11.591   1.026  11.382
87766SOL     OW65071  12.994   4.856   9.805
87766SOL    HW165072  12.972   4.878   9.896
87766SOL    HW265073  12.914   4.873   9.756
87767SOL     OW65074  14.106   3.713   6.901
87767SOL    HW165075  14.183   3.662   6.925
87767SOL    HW265076  14.133   3.763   6.824
87768SOL     OW65077   3.298  13.360  11.618
87768SOL    HW165078   3.297  13.398  11.531
87768SOL    HW265079   3.206  13.360  11.645
87769SOL     OW65080  13.141  10.248  13.919
87769SOL    HW165081  13.200  10.172  13.923
87769SOL    HW265082  13.099  10.250  14.005
87770SOL     OW65083   1.274   9.925   7.038
87770SOL    HW165084   1.345   9.890   7.091
87770SOL    HW265085   1.198   9.872   7.060
87771SOL     OW65086  11.811   2.933   2.175
87771SOL    HW165087  11.879   2.926   2.242
87771SOL    HW265088  11.846   2.995   2.112
87772SOL     OW65089   8.976   2.989   9.216
87772SOL    HW165090   9.065   2.982   9.182
87772SOL    HW265091   8.930   2.915   9.177
87773SOL     OW65092   5.409   2.452   6.890
87773SOL    HW165093   5.444   2.374   6.932
87773SOL    HW265094   5.486   2.504   6.867
87774SOL     OW65095   6.448   6.096   3.005
87774SOL    HW165096   6.493   6.108   2.922
87774SOL    HW265097   6.466   6.176   3.054
87775SOL     OW65098  12.166  14.308  12.306
87775SOL    HW165099  12.116  14.305  12.387
87775SOL    HW265100  12.233  14.375  12.323
87776SOL     OW65101  12.897   7.546   7.173
87776SOL    HW165102  12.849   7.511   7.098
87776SOL    HW265103  12.915   7.470   7.228
87777SOL     OW65104  14.353   3.130  13.401
87777SOL    HW165105  14.404   3.092  13.330
87777SOL    HW265106  14.262   3.109  13.379
87778SOL     OW65107  11.491   4.018   2.421
87778SOL    HW165108  11.521   4.099   2.462
87778SOL    HW265109  11.571   3.973   2.393
87779SOL     OW65110   3.340  12.857  12.149
87779SOL    HW165111   3.402  12.818  12.087
87779SOL    HW265112   3.274  12.899  12.095
87780SOL     OW65113   1.061   3.539   5.762
87780SOL    HW165114   1.066   3.459   5.814
87780SOL    HW265115   0.967   3.556   5.752
87781SOL     OW65116   0.889   3.629   1.355
87781SOL    HW165117   0.826   3.558   1.368
87781SOL    HW265118   0.870   3.691   1.426
87782SOL     OW65119   5.103   7.440   3.263
87782SOL    HW165120   5.127   7.450   3.355
87782SOL    HW265121   5.074   7.528   3.236
87783SOL     OW65122   3.448   4.705   7.945
87783SOL    HW165123   3.488   4.622   7.972
87783SOL    HW265124   3.504   4.772   7.984
87784SOL     OW65125   2.247   9.800  11.511
87784SOL    HW165126   2.255   9.859  11.436
87784SOL    HW265127   2.300   9.724  11.488
87785SOL     OW65128   5.633  11.698   2.538
87785SOL    HW165129   5.722  11.706   2.572
87785SOL    HW265130   5.589  11.640   2.600
87786SOL     OW65131   4.549   9.263   4.279
87786SOL    HW165132   4.484   9.279   4.348
87786SOL    HW265133   4.527   9.176   4.245
87787SOL     OW65134  10.291  13.074   0.548
87787SOL    HW165135  10.333  13.022   0.480
87787SOL    HW265136  10.324  13.037   0.630
87788SOL     OW65137   1.810   2.900   3.737
87788SOL    HW165138   1.809   2.972   3.801
87788SOL    HW265139   1.718   2.878   3.725
87789SOL     OW65140  13.869  14.525   8.913
87789SOL    HW165141  13.854  14.538   9.007
87789SOL    HW265142  13.805  14.583   8.871
87790SOL     OW65143  12.436   3.247   9.223
87790SOL    HW165144  12.349   3.213   9.204
87790SOL    HW265145  12.463   3.290   9.142
87791SOL     OW65146   8.113   5.629   2.396
87791SOL    HW165147   8.120   5.573   2.318
87791SOL    HW265148   8.027   5.670   2.389
87792SOL     OW65149   5.396   9.538  12.106
87792SOL    HW165150   5.459   9.488  12.158
87792SOL    HW265151   5.410   9.509  12.016
87793SOL     OW65152   0.104  13.221   8.568
87793SOL    HW165153   0.081  13.186   8.654
87793SOL    HW265154   0.048  13.174   8.507
87794SOL     OW65155   3.581   6.882   1.238
87794SOL    HW165156   3.565   6.968   1.276
87794SOL    HW265157   3.537   6.885   1.153
87795SOL     OW65158  14.192  13.108   4.288
87795SOL    HW165159  14.097  13.097   4.279
87795SOL    HW265160  14.205  13.203   4.281
87796SOL     OW65161   8.448  11.950   9.478
87796SOL    HW165162   8.358  11.947   9.510
87796SOL    HW265163   8.441  11.932   9.385
87797SOL     OW65164   3.775  10.982   0.909
87797SOL    HW165165   3.787  10.894   0.945
87797SOL    HW265166   3.740  11.033   0.982
87798SOL     OW65167  12.090  11.753   2.257
87798SOL    HW165168  12.056  11.745   2.168
87798SOL    HW265169  12.135  11.670   2.273
87799SOL     OW65170   1.327   3.649   1.099
87799SOL    HW165171   1.245   3.688   1.129
87799SOL    HW265172   1.327   3.663   1.004
87800SOL     OW65173  12.637  10.566  14.014
87800SOL    HW165174  12.611  10.530  14.098
87800SOL    HW265175  12.595  10.652  14.010
87801SOL     OW65176  13.409   2.288   2.766
87801SOL    HW165177  13.463   2.215   2.737
87801SOL    HW265178  13.328   2.247   2.797
87802SOL     OW65179   9.364   2.328   8.836
87802SOL    HW165180   9.372   2.322   8.741
87802SOL    HW265181   9.339   2.240   8.864
87803SOL     OW65182  13.314  10.156   6.762
87803SOL    HW165183  13.326  10.084   6.700
87803SOL    HW265184  13.288  10.230   6.707
87804SOL     OW65185   9.841   8.318   3.063
87804SOL    HW165186   9.843   8.384   2.993
87804SOL    HW265187   9.766   8.343   3.117
87805SOL     OW65188  10.954   1.830  10.560
87805SOL    HW165189  10.919   1.853  10.474
87805SOL    HW265190  10.929   1.903  10.617
87806SOL     OW65191   8.670  13.728   3.729
87806SOL    HW165192   8.607  13.770   3.787
87806SOL    HW265193   8.683  13.641   3.766
87807SOL     OW65194  10.988   1.552   7.259
87807SOL    HW165195  10.993   1.489   7.330
87807SOL    HW265196  10.896   1.551   7.231
87808SOL     OW65197  10.966   3.489   9.599
87808SOL    HW165198  11.032   3.437   9.553
87808SOL    HW265199  10.884   3.441   9.587
87809SOL     OW65200   9.788   2.008   7.307
87809SOL    HW165201   9.801   1.971   7.220
87809SOL    HW265202   9.792   1.933   7.366
87810SOL     OW65203   0.615   5.064   0.549
87810SOL    HW165204   0.540   5.013   0.581
87810SOL    HW265205   0.577   5.124   0.485
87811SOL     OW65206   8.889  13.972  11.482
87811SOL    HW165207   8.949  14.032  11.526
87811SOL    HW265208   8.911  13.977  11.390
87812SOL     OW65209   9.953  11.669   0.567
87812SOL    HW165210   9.864  11.690   0.592
87812SOL    HW265211  10.008  11.723   0.624
87813SOL     OW65212   2.348  10.656   1.761
87813SOL    HW165213   2.439  10.642   1.734
87813SOL    HW265214   2.297  10.628   1.685
87814SOL     OW65215  13.371  11.366   2.381
87814SOL    HW165216  13.369  11.335   2.290
87814SOL    HW265217  13.458  11.405   2.391
87815SOL     OW65218   0.197  10.981   7.542
87815SOL    HW165219   0.105  10.966   7.566
87815SOL    HW265220   0.195  10.984   7.446
87816SOL     OW65221   1.865  10.812  12.063
87816SOL    HW165222   1.889  10.723  12.039
87816SOL    HW265223   1.946  10.862  12.054
87817SOL     OW65224   8.348   3.409  10.038
87817SOL    HW165225   8.315   3.370  10.119
87817SOL    HW265226   8.271   3.415   9.981
87818SOL     OW65227  12.973  13.676   0.814
87818SOL    HW165228  13.043  13.734   0.844
87818SOL    HW265229  12.900  13.693   0.875
87819SOL     OW65230   0.417   5.146   0.809
87819SOL    HW165231   0.434   5.078   0.744
87819SOL    HW265232   0.388   5.098   0.887
87820SOL     OW65233  11.758   1.440   8.795
87820SOL    HW165234  11.673   1.409   8.763
87820SOL    HW265235  11.812   1.361   8.801
87821SOL     OW65236   6.906  12.972  11.870
87821SOL    HW165237   6.812  12.957  11.861
87821SOL    HW265238   6.947  12.895  11.830
87822SOL     OW65239   0.451   4.526  10.304
87822SOL    HW165240   0.461   4.435  10.332
87822SOL    HW265241   0.433   4.574  10.385
87823SOL     OW65242   8.098   1.017  11.608
87823SOL    HW165243   8.071   0.927  11.587
87823SOL    HW265244   8.153   1.009  11.686
87824SOL     OW65245   7.203   6.609   0.810
87824SOL    HW165246   7.146   6.670   0.763
87824SOL    HW265247   7.274   6.591   0.748
87825SOL     OW65248   2.149   3.507  11.078
87825SOL    HW165249   2.150   3.412  11.066
87825SOL    HW265250   2.069   3.535  11.034
87826SOL     OW65251   5.649   3.549   9.947
87826SOL    HW165252   5.618   3.464   9.979
87826SOL    HW265253   5.657   3.603  10.026
87827SOL     OW65254  10.230   7.424   2.051
87827SOL    HW165255  10.204   7.500   2.103
87827SOL    HW265256  10.316   7.447   2.015
87828SOL     OW65257   0.596  11.923   8.412
87828SOL    HW165258   0.527  11.986   8.434
87828SOL    HW265259   0.567  11.884   8.330
87829SOL     OW65260   7.278   3.889  12.125
87829SOL    HW165261   7.245   3.939  12.050
87829SOL    HW265262   7.286   3.800  12.093
87830SOL     OW65263   6.035  10.600   3.138
87830SOL    HW165264   6.110  10.611   3.080
87830SOL    HW265265   6.060  10.528   3.196
87831SOL     OW65266   1.499  10.392  10.552
87831SOL    HW165267   1.571  10.388  10.489
87831SOL    HW265268   1.470  10.483  10.549
87832SOL     OW65269   1.349   0.827   3.062
87832SOL    HW165270   1.284   0.869   3.006
87832SOL    HW265271   1.302   0.752   3.100
87833SOL     OW65272  12.587   9.901   8.001
87833SOL    HW165273  12.523   9.911   7.930
87833SOL    HW265274  12.671   9.894   7.956
87834SOL     OW65275  10.050   1.748  10.408
87834SOL    HW165276  10.054   1.832  10.361
87834SOL    HW265277  10.061   1.682  10.340
87835SOL     OW65278   5.583   6.098   8.994
87835SOL    HW165279   5.561   6.191   9.000
87835SOL    HW265280   5.653   6.094   8.929
87836SOL     OW65281   8.293   3.784   5.458
87836SOL    HW165282   8.240   3.798   5.536
87836SOL    HW265283   8.381   3.813   5.482
87837SOL     OW65284   0.404  12.894  11.189
87837SOL    HW165285   0.468  12.949  11.234
87837SOL    HW265286   0.331  12.886  11.251
87838SOL     OW65287   3.312   0.534   4.273
87838SOL    HW165288   3.257   0.474   4.324
87838SOL    HW265289   3.289   0.515   4.182
87839SOL     OW65290   0.267   6.119  14.413
87839SOL    HW165291   0.260   6.137  14.506
87839SOL    HW265292   0.176   6.115  14.382
87840SOL     OW65293  11.017  10.036   0.559
87840SOL    HW165294  11.044   9.974   0.627
87840SOL    HW265295  11.091  10.038   0.498
87841SOL     OW65296   4.727   7.788   3.953
87841SOL    HW165297   4.742   7.714   4.011
87841SOL    HW265298   4.632   7.795   3.946
87842SOL     OW65299  14.609  10.768   0.107
87842SOL    HW165300  14.536  10.739   0.162
87842SOL    HW265301  14.638  10.850   0.148
87843SOL     OW65302  10.661   9.198  12.193
87843SOL    HW165303  10.727   9.165  12.253
87843SOL    HW265304  10.689   9.287  12.173
87844SOL     OW65305   3.179   4.168  14.390
87844SOL    HW165306   3.262   4.130  14.418
87844SOL    HW265307   3.136   4.194  14.472
87845SOL     OW65308  13.616   0.786   2.047
87845SOL    HW165309  13.587   0.726   1.978
87845SOL    HW265310  13.666   0.732   2.107
87846SOL     OW65311  11.476   5.919   1.895
87846SOL    HW165312  11.475   5.827   1.921
87846SOL    HW265313  11.385   5.941   1.880
87847SOL     OW65314   2.460   9.638  14.503
87847SOL    HW165315   2.467   9.653  14.409
87847SOL    HW265316   2.551   9.630  14.533
87848SOL     OW65317  13.352  13.930   7.089
87848SOL    HW165318  13.292  13.991   7.045
87848SOL    HW265319  13.400  13.889   7.017
87849SOL     OW65320  12.455   6.870   4.058
87849SOL    HW165321  12.459   6.965   4.074
87849SOL    HW265322  12.479   6.831   4.142
87850SOL     OW65323  14.231   5.351  12.805
87850SOL    HW165324  14.191   5.370  12.890
87850SOL    HW265325  14.300   5.416  12.796
87851SOL     OW65326   0.479   8.259   1.706
87851SOL    HW165327   0.403   8.213   1.741
87851SOL    HW265328   0.470   8.251   1.611
87852SOL     OW65329   8.929   3.597  11.358
87852SOL    HW165330   8.935   3.533  11.286
87852SOL    HW265331   9.010   3.649  11.350
87853SOL     OW65332   3.366   9.215  11.868
87853SOL    HW165333   3.334   9.297  11.905
87853SOL    HW265334   3.294   9.153  11.880
87854SOL     OW65335  11.183   2.595  12.386
87854SOL    HW165336  11.120   2.585  12.458
87854SOL    HW265337  11.180   2.511  12.340
87855SOL     OW65338   2.919   9.138   4.842
87855SOL    HW165339   3.013   9.151   4.829
87855SOL    HW265340   2.909   9.128   4.937
87856SOL     OW65341  11.332   7.223   0.946
87856SOL    HW165342  11.296   7.150   0.995
87856SOL    HW265343  11.271   7.236   0.873
87857SOL     OW65344  14.759  12.350   5.165
87857SOL    HW165345  14.818  12.397   5.225
87857SOL    HW265346  14.679  12.339   5.216
87858SOL     OW65347   2.119   0.312   3.596
87858SOL    HW165348   2.137   0.247   3.528
87858SOL    HW265349   2.196   0.309   3.653
87859SOL     OW65350  13.128   7.301   3.841
87859SOL    HW165351  13.075   7.374   3.809
87859SOL    HW265352  13.153   7.326   3.929
87860SOL     OW65353  12.729   6.836   7.391
87860SOL    HW165354  12.665   6.771   7.422
87860SOL    HW265355  12.813   6.789   7.392
87861SOL     OW65356   2.055   6.087  11.092
87861SOL    HW165357   2.029   6.005  11.051
87861SOL    HW265358   2.032   6.155  11.029
87862SOL     OW65359   0.783  13.516  11.046
87862SOL    HW165360   0.690  13.528  11.026
87862SOL    HW265361   0.804  13.587  11.107
87863SOL     OW65362   0.774   7.997   2.641
87863SOL    HW165363   0.741   8.065   2.701
87863SOL    HW265364   0.868   7.994   2.659
87864SOL     OW65365  14.537  12.436   0.408
87864SOL    HW165366  14.612  12.477   0.451
87864SOL    HW265367  14.521  12.356   0.458
87865SOL     OW65368  10.043  13.876   1.073
87865SOL    HW165369   9.951  13.866   1.046
87865SOL    HW265370  10.040  13.867   1.168
87866SOL     OW65371   7.257   0.822   2.648
87866SOL    HW165372   7.234   0.735   2.615
87866SOL    HW265373   7.177   0.853   2.690
87867SOL     OW65374   8.419  11.141   0.177
87867SOL    HW165375   8.455  11.127   0.089
87867SOL    HW265376   8.464  11.075   0.231
87868SOL     OW65377   8.950   7.183   7.827
87868SOL    HW165378   9.045   7.182   7.838
87868SOL    HW265379   8.920   7.101   7.865
87869SOL     OW65380  13.807  10.461   1.286
87869SOL    HW165381  13.768  10.497   1.206
87869SOL    HW265382  13.754  10.385   1.308
87870SOL     OW65383   2.676  12.789   4.324
87870SOL    HW165384   2.771  12.778   4.326
87870SOL    HW265385   2.644  12.741   4.400
87871SOL     OW65386   4.243  14.290  10.491
87871SOL    HW165387   4.276  14.323  10.408
87871SOL    HW265388   4.292  14.339  10.558
87872SOL     OW65389  10.192   4.929  10.761
87872SOL    HW165390  10.163   5.017  10.735
87872SOL    HW265391  10.264   4.909  10.702
87873SOL     OW65392  14.855   5.858   8.706
87873SOL    HW165393  14.769   5.852   8.746
87873SOL    HW265394   0.015   5.938   8.742
87874SOL     OW65395   8.680  12.180  13.262
87874SOL    HW165396   8.689  12.264  13.218
87874SOL    HW265397   8.586  12.162  13.262
87875SOL     OW65398   9.784   6.955  11.763
87875SOL    HW165399   9.871   6.945  11.802
87875SOL    HW265400   9.743   7.025  11.814
87876SOL     OW65401   7.021  13.412   7.572
87876SOL    HW165402   6.999  13.500   7.601
87876SOL    HW265403   7.051  13.367   7.651
87877SOL     OW65404   2.982   9.841   0.458
87877SOL    HW165405   2.888   9.833   0.442
87877SOL    HW265406   3.015   9.751   0.454
87878SOL     OW65407   7.818   2.691   4.998
87878SOL    HW165408   7.858   2.778   4.996
87878SOL    HW265409   7.772   2.688   5.082
87879SOL     OW65410  11.176   2.752  13.611
87879SOL    HW165411  11.121   2.704  13.673
87879SOL    HW265412  11.262   2.709  13.618
87880SOL     OW65413   7.646   6.914   6.041
87880SOL    HW165414   7.596   6.862   5.977
87880SOL    HW265415   7.676   6.990   5.992
87881SOL     OW65416  13.343  10.370   0.463
87881SOL    HW165417  13.396  10.358   0.384
87881SOL    HW265418  13.406  10.397   0.530
87882SOL     OW65419   9.842   4.987   5.008
87882SOL    HW165420   9.848   5.082   5.001
87882SOL    HW265421   9.912   4.955   4.951
87883SOL     OW65422   6.746   7.781   8.636
87883SOL    HW165423   6.743   7.709   8.573
87883SOL    HW265424   6.821   7.833   8.608
87884SOL     OW65425   6.356   1.475  11.220
87884SOL    HW165426   6.295   1.447  11.152
87884SOL    HW265427   6.301   1.501  11.293
87885SOL     OW65428  11.315   6.106  10.122
87885SOL    HW165429  11.396   6.107  10.173
87885SOL    HW265430  11.275   6.022  10.143
87886SOL     OW65431  11.960   8.501   1.707
87886SOL    HW165432  11.949   8.567   1.776
87886SOL    HW265433  11.919   8.539   1.630
87887SOL     OW65434   7.795  12.746   3.063
87887SOL    HW165435   7.717  12.714   3.018
87887SOL    HW265436   7.761  12.805   3.130
87888SOL     OW65437   7.791   6.055   2.119
87888SOL    HW165438   7.753   5.975   2.081
87888SOL    HW265439   7.715   6.109   2.142
87889SOL     OW65440   2.449   1.573   5.739
87889SOL    HW165441   2.479   1.515   5.669
87889SOL    HW265442   2.524   1.628   5.759
87890SOL     OW65443  11.441   9.687  14.072
87890SOL    HW165444  11.477   9.776  14.073
87890SOL    HW265445  11.354   9.698  14.033
87891SOL     OW65446   6.615   7.574   3.932
87891SOL    HW165447   6.641   7.585   3.840
87891SOL    HW265448   6.531   7.619   3.938
87892SOL     OW65449   7.050  14.016  10.668
87892SOL    HW165450   7.080  13.954  10.735
87892SOL    HW265451   6.989  13.965  10.614
87893SOL     OW65452   0.005  14.676   4.831
87893SOL    HW165453  14.855  14.763   4.858
87893SOL    HW265454   0.019  14.683   4.736
87894SOL     OW65455   7.482  11.526   6.844
87894SOL    HW165456   7.394  11.499   6.818
87894SOL    HW265457   7.533  11.525   6.762
87895SOL     OW65458   5.594   3.994   3.952
87895SOL    HW165459   5.567   4.060   3.888
87895SOL    HW265460   5.526   3.926   3.947
87896SOL     OW65461  10.322   0.455   4.908
87896SOL    HW165462  10.233   0.491   4.906
87896SOL    HW265463  10.325   0.404   4.989
87897SOL     OW65464  14.798   8.322  11.290
87897SOL    HW165465  14.804   8.418  11.289
87897SOL    HW265466  14.738   8.302  11.218
87898SOL     OW65467   4.985   1.540   9.112
87898SOL    HW165468   4.951   1.465   9.062
87898SOL    HW265469   4.906   1.585   9.142
87899SOL     OW65470  14.227   1.219  13.691
87899SOL    HW165471  14.169   1.143  13.696
87899SOL    HW265472  14.212   1.255  13.604
87900SOL     OW65473  13.063  10.661   7.532
87900SOL    HW165474  13.150  10.629   7.511
87900SOL    HW265475  13.076  10.754   7.551
87901SOL     OW65476   6.822   8.266  12.097
87901SOL    HW165477   6.760   8.335  12.123
87901SOL    HW265478   6.864   8.300  12.018
87902SOL     OW65479   0.651  11.079   1.039
87902SOL    HW165480   0.663  11.096   1.132
87902SOL    HW265481   0.561  11.048   1.031
87903SOL     OW65482   0.759   8.519  14.690
87903SOL    HW165483   0.774   8.492  14.599
87903SOL    HW265484   0.726   8.441  14.733
87904SOL     OW65485   5.442   5.907   8.883
87904SOL    HW165486   5.484   5.986   8.916
87904SOL    HW265487   5.351   5.915   8.910
87905SOL     OW65488   0.445   3.160   4.813
87905SOL    HW165489   0.360   3.204   4.815
87905SOL    HW265490   0.498   3.205   4.878
87906SOL     OW65491   4.742  14.074  10.740
87906SOL    HW165492   4.758  14.032  10.825
87906SOL    HW265493   4.825  14.066  10.693
87907SOL     OW65494  12.000  10.264  10.161
87907SOL    HW165495  11.929  10.200  10.158
87907SOL    HW265496  12.067  10.228  10.103
87908SOL     OW65497   7.897  11.225   4.490
87908SOL    HW165498   7.824  11.237   4.550
87908SOL    HW265499   7.930  11.137   4.509
87909SOL     OW65500   4.135   1.461  11.747
87909SOL    HW165501   4.226   1.476  11.772
87909SOL    HW265502   4.138   1.452  11.652
87910SOL     OW65503   6.724   5.968  13.131
87910SOL    HW165504   6.666   5.914  13.076
87910SOL    HW265505   6.726   5.923  13.215
87911SOL     OW65506  13.574   8.056  11.597
87911SOL    HW165507  13.549   8.060  11.689
87911SOL    HW265508  13.491   8.045  11.550
87912SOL     OW65509  14.326  13.487  13.532
87912SOL    HW165510  14.358  13.441  13.454
87912SOL    HW265511  14.232  13.499  13.516
87913SOL     OW65512  14.781   1.582   1.140
87913SOL    HW165513  14.725   1.660   1.140
87913SOL    HW265514  14.845   1.599   1.210
87914SOL     OW65515   8.787   4.710   5.746
87914SOL    HW165516   8.862   4.672   5.790
87914SOL    HW265517   8.752   4.773   5.809
87915SOL     OW65518  12.314   6.303  13.552
87915SOL    HW165519  12.390   6.360  13.541
87915SOL    HW265520  12.262   6.345  13.620
87916SOL     OW65521   8.990   7.650   6.450
87916SOL    HW165522   8.939   7.696   6.516
87916SOL    HW265523   8.978   7.557   6.471
87917SOL     OW65524   3.358   0.053  13.467
87917SOL    HW165525   3.415  14.860  13.496
87917SOL    HW265526   3.291   0.060  13.536
87918SOL     OW65527   8.281   4.150  12.227
87918SOL    HW165528   8.207   4.136  12.168
87918SOL    HW265529   8.357   4.156  12.170
87919SOL     OW65530  13.777   2.626  11.975
87919SOL    HW165531  13.841   2.560  11.951
87919SOL    HW265532  13.712   2.579  12.028
87920SOL     OW65533   3.061  14.124  13.256
87920SOL    HW165534   2.984  14.137  13.311
87920SOL    HW265535   3.038  14.051  13.199
87921SOL     OW65536   2.007   8.762   2.525
87921SOL    HW165537   2.065   8.838   2.532
87921SOL    HW265538   2.067   8.688   2.512
87922SOL     OW65539   5.331  14.030   5.136
87922SOL    HW165540   5.413  13.984   5.117
87922SOL    HW265541   5.350  14.085   5.212
87923SOL     OW65542  13.168   6.461   9.138
87923SOL    HW165543  13.173   6.414   9.221
87923SOL    HW265544  13.161   6.392   9.072
87924SOL     OW65545  14.538  13.424  11.710
87924SOL    HW165546  14.595  13.439  11.785
87924SOL    HW265547  14.454  13.463  11.735
87925SOL     OW65548   5.439   0.084  11.269
87925SOL    HW165549   5.375   0.154  11.282
87925SOL    HW265550   5.421   0.022  11.339
87926SOL     OW65551   6.211   4.457  12.392
87926SOL    HW165552   6.251   4.389  12.339
87926SOL    HW265553   6.277   4.526  12.397
87927SOL     OW65554  14.108  10.949   8.459
87927SOL    HW165555  14.164  10.982   8.530
87927SOL    HW265556  14.131  11.003   8.384
87928SOL     OW65557  14.244   1.262   8.610
87928SOL    HW165558  14.298   1.202   8.660
87928SOL    HW265559  14.187   1.206   8.557
87929SOL     OW65560   1.230   4.762   7.909
87929SOL    HW165561   1.247   4.724   7.995
87929SOL    HW265562   1.262   4.697   7.847
87930SOL     OW65563   6.180  13.196   5.445
87930SOL    HW165564   6.185  13.108   5.481
87930SOL    HW265565   6.251  13.244   5.487
87931SOL     OW65566   2.601   5.721   6.450
87931SOL    HW165567   2.525   5.717   6.392
87931SOL    HW265568   2.564   5.735   6.537
87932SOL     OW65569   4.550   8.554   9.478
87932SOL    HW165570   4.584   8.641   9.499
87932SOL    HW265571   4.593   8.496   9.541
87933SOL     OW65572   5.609  13.548   6.100
87933SOL    HW165573   5.522  13.508   6.110
87933SOL    HW265574   5.600  13.636   6.134
87934SOL     OW65575   8.082   3.880  11.713
87934SOL    HW165576   8.167   3.872  11.755
87934SOL    HW265577   8.072   3.974  11.695
87935SOL     OW65578   1.622   9.180  10.549
87935SOL    HW165579   1.611   9.152  10.458
87935SOL    HW265580   1.704   9.229  10.549
87936SOL     OW65581   3.953   0.167   2.606
87936SOL    HW165582   4.010   0.140   2.534
87936SOL    HW265583   4.013   0.191   2.676
87937SOL     OW65584   7.939   4.674   5.367
87937SOL    HW165585   7.907   4.700   5.454
87937SOL    HW265586   7.890   4.594   5.347
87938SOL     OW65587   7.140   0.190  12.726
87938SOL    HW165588   7.137   0.275  12.769
87938SOL    HW265589   7.217   0.146  12.763
87939SOL     OW65590  10.727   9.742   0.095
87939SOL    HW165591  10.732   9.753   0.190
87939SOL    HW265592  10.734   9.831   0.060
87940SOL     OW65593   6.632   0.208   3.138
87940SOL    HW165594   6.612   0.295   3.104
87940SOL    HW265595   6.625   0.151   3.062
87941SOL     OW65596   2.966   4.717   8.373
87941SOL    HW165597   2.895   4.767   8.333
87941SOL    HW265598   2.930   4.630   8.386
87942SOL     OW65599   4.915   9.761   8.608
87942SOL    HW165600   5.001   9.720   8.600
87942SOL    HW265601   4.900   9.805   8.525
87943SOL     OW65602   1.067  13.401  12.542
87943SOL    HW165603   1.068  13.310  12.573
87943SOL    HW265604   1.158  13.422  12.526
87944SOL     OW65605  12.034  10.326   3.328
87944SOL    HW165606  12.080  10.404   3.359
87944SOL    HW265607  12.052  10.260   3.396
87945SOL     OW65608   2.061  13.100  14.787
87945SOL    HW165609   2.143  13.077  14.743
87945SOL    HW265610   2.021  13.015  14.807
87946SOL     OW65611   2.012   4.194   3.035
87946SOL    HW165612   1.943   4.155   2.982
87946SOL    HW265613   2.006   4.288   3.017
87947SOL     OW65614   7.827   1.743  14.516
87947SOL    HW165615   7.919   1.738  14.492
87947SOL    HW265616   7.794   1.653  14.507
87948SOL     OW65617   9.715  14.506   3.150
87948SOL    HW165618   9.728  14.534   3.240
87948SOL    HW265619   9.718  14.410   3.154
87949SOL     OW65620  10.821  14.003   7.293
87949SOL    HW165621  10.862  14.090   7.288
87949SOL    HW265622  10.844  13.961   7.210
87950SOL     OW65623   3.544   7.245   8.131
87950SOL    HW165624   3.623   7.296   8.152
87950SOL    HW265625   3.503   7.295   8.060
87951SOL     OW65626  10.385   1.204   3.989
87951SOL    HW165627  10.399   1.192   4.083
87951SOL    HW265628  10.291   1.198   3.977
87952SOL     OW65629   0.248  12.468   5.198
87952SOL    HW165630   0.163  12.426   5.182
87952SOL    HW265631   0.278  12.493   5.111
87953SOL     OW65632   7.868   2.803  10.262
87953SOL    HW165633   7.804   2.874  10.274
87953SOL    HW265634   7.841   2.736  10.324
87954SOL     OW65635  12.091   9.794  13.447
87954SOL    HW165636  12.076   9.703  13.425
87954SOL    HW265637  12.128   9.792  13.535
87955SOL     OW65638  13.057   4.105  14.439
87955SOL    HW165639  13.142   4.074  14.469
87955SOL    HW265640  12.994   4.049  14.483
87956SOL     OW65641   6.888   2.772  11.856
87956SOL    HW165642   6.904   2.806  11.768
87956SOL    HW265643   6.808   2.816  11.885
87957SOL     OW65644  13.008   6.371   3.190
87957SOL    HW165645  12.999   6.430   3.116
87957SOL    HW265646  12.984   6.285   3.155
87958SOL     OW65647   0.765   7.777   6.242
87958SOL    HW165648   0.756   7.699   6.187
87958SOL    HW265649   0.752   7.851   6.182
87959SOL     OW65650   4.279   6.751   9.930
87959SOL    HW165651   4.237   6.741  10.015
87959SOL    HW265652   4.312   6.663   9.909
87960SOL     OW65653  14.029   5.054  13.506
87960SOL    HW165654  14.023   5.150  13.496
87960SOL    HW265655  14.004   5.020  13.420
87961SOL     OW65656   2.843   7.320  10.261
87961SOL    HW165657   2.750   7.328  10.239
87961SOL    HW265658   2.845   7.316  10.356
87962SOL     OW65659  14.002   7.153   9.774
87962SOL    HW165660  14.019   7.059   9.778
87962SOL    HW265661  13.909   7.160   9.753
87963SOL     OW65662  14.753   9.816  13.337
87963SOL    HW165663  14.765   9.745  13.275
87963SOL    HW265664  14.839   9.826  13.380
87964SOL     OW65665  14.403  13.353  13.934
87964SOL    HW165666  14.408  13.446  13.956
87964SOL    HW265667  14.486  13.334  13.891
87965SOL     OW65668   3.133   1.268   9.177
87965SOL    HW165669   3.175   1.285   9.261
87965SOL    HW265670   3.097   1.353   9.150
87966SOL     OW65671   4.622  14.196   4.838
87966SOL    HW165672   4.585  14.109   4.821
87966SOL    HW265673   4.629  14.236   4.751
87967SOL     OW65674   3.527  12.854   5.670
87967SOL    HW165675   3.475  12.796   5.614
87967SOL    HW265676   3.617  12.841   5.641
87968SOL     OW65677  11.349  12.713  14.404
87968SOL    HW165678  11.269  12.765  14.392
87968SOL    HW265679  11.420  12.777  14.402
87969SOL     OW65680  14.415   2.349   0.899
87969SOL    HW165681  14.493   2.380   0.854
87969SOL    HW265682  14.344   2.360   0.836
87970SOL     OW65683   8.841  10.434  13.170
87970SOL    HW165684   8.922  10.484  13.163
87970SOL    HW265685   8.780  10.479  13.112
87971SOL     OW65686  11.519   5.632   1.935
87971SOL    HW165687  11.521   5.640   1.840
87971SOL    HW265688  11.553   5.545   1.953
87972SOL     OW65689   8.204   7.630   2.049
87972SOL    HW165690   8.221   7.702   1.988
87972SOL    HW265691   8.152   7.669   2.119
87973SOL     OW65692   1.619  10.137  10.198
87973SOL    HW165693   1.648  10.226  10.219
87973SOL    HW265694   1.582  10.104  10.280
87974SOL     OW65695  13.476   7.800   0.440
87974SOL    HW165696  13.559   7.759   0.415
87974SOL    HW265697  13.464   7.871   0.377
87975SOL     OW65698   5.511   1.470   9.518
87975SOL    HW165699   5.498   1.504   9.607
87975SOL    HW265700   5.441   1.406   9.507
87976SOL     OW65701   7.664   1.691   0.877
87976SOL    HW165702   7.740   1.657   0.829
87976SOL    HW265703   7.592   1.632   0.854
87977SOL     OW65704   9.716   5.552   3.578
87977SOL    HW165705   9.710   5.472   3.632
87977SOL    HW265706   9.799   5.591   3.603
87978SOL     OW65707  14.054   9.881   1.053
87978SOL    HW165708  13.975   9.924   1.020
87978SOL    HW265709  14.087   9.832   0.978
87979SOL     OW65710   3.564  12.141   1.232
87979SOL    HW165711   3.591  12.203   1.164
87979SOL    HW265712   3.635  12.144   1.296
87980SOL     OW65713   4.964  10.159   3.820
87980SOL    HW165714   4.904  10.203   3.759
87980SOL    HW265715   5.036  10.221   3.832
87981SOL     OW65716  13.885   4.190   5.981
87981SOL    HW165717  13.852   4.258   5.923
87981SOL    HW265718  13.951   4.233   6.034
87982SOL     OW65719  11.067   4.749  13.149
87982SOL    HW165720  11.061   4.760  13.054
87982SOL    HW265721  10.976   4.740  13.178
87983SOL     OW65722   1.556   8.038   1.536
87983SOL    HW165723   1.593   7.974   1.476
87983SOL    HW265724   1.592   8.014   1.622
87984SOL     OW65725  13.176  10.298   6.279
87984SOL    HW165726  13.148  10.249   6.356
87984SOL    HW265727  13.158  10.239   6.205
87985SOL     OW65728  14.099   2.772  13.432
87985SOL    HW165729  14.110   2.790  13.339
87985SOL    HW265730  14.080   2.678  13.436
87986SOL     OW65731  11.627   0.910   7.472
87986SOL    HW165732  11.707   0.962   7.463
87986SOL    HW265733  11.613   0.904   7.567
87987SOL     OW65734  10.218   9.853   6.329
87987SOL    HW165735  10.299   9.876   6.284
87987SOL    HW265736  10.204   9.761   6.309
87988SOL     OW65737   8.812   6.821  10.185
87988SOL    HW165738   8.718   6.830  10.175
87988SOL    HW265739   8.849   6.887  10.127
87989SOL     OW65740   6.488  11.622   3.372
87989SOL    HW165741   6.560  11.683   3.384
87989SOL    HW265742   6.528  11.535   3.382
87990SOL     OW65743   1.368   9.933   1.165
87990SOL    HW165744   1.305   9.919   1.236
87990SOL    HW265745   1.418   9.851   1.162
87991SOL     OW65746   4.320   3.590   4.400
87991SOL    HW165747   4.249   3.654   4.410
87991SOL    HW265748   4.290   3.512   4.447
87992SOL     OW65749   6.908  10.921  10.980
87992SOL    HW165750   6.841  10.930  10.912
87992SOL    HW265751   6.985  10.889  10.933
87993SOL     OW65752   1.841  14.070   9.328
87993SOL    HW165753   1.837  14.010   9.254
87993SOL    HW265754   1.894  14.025   9.393
87994SOL     OW65755  13.675   8.215  13.650
87994SOL    HW165756  13.720   8.197  13.568
87994SOL    HW265757  13.653   8.308  13.647
87995SOL     OW65758   7.201   0.855   0.142
87995SOL    HW165759   7.144   0.779   0.154
87995SOL    HW265760   7.270   0.844   0.208
87996SOL     OW65761  12.721   2.956  12.779
87996SOL    HW165762  12.751   2.972  12.690
87996SOL    HW265763  12.782   3.004  12.834
87997SOL     OW65764  11.183   7.653  12.881
87997SOL    HW165765  11.266   7.677  12.921
87997SOL    HW265766  11.128   7.624  12.954
87998SOL     OW65767   4.112   7.747   9.767
87998SOL    HW165768   4.160   7.819   9.726
87998SOL    HW265769   4.111   7.768   9.860
87999SOL     OW65770  10.977  11.418   1.359
87999SOL    HW165771  11.066  11.417   1.324
87999SOL    HW265772  10.951  11.510   1.356
88000SOL     OW65773   1.229   5.415   2.993
88000SOL    HW165774   1.294   5.429   3.061
88000SOL    HW265775   1.264   5.459   2.916
88001SOL     OW65776  12.635  12.959   9.126
88001SOL    HW165777  12.644  13.037   9.181
88001SOL    HW265778  12.541  12.949   9.114
88002SOL     OW65779  12.546   0.258   1.529
88002SOL    HW165780  12.512   0.237   1.442
88002SOL    HW265781  12.483   0.220   1.590
88003SOL     OW65782  12.153   5.769   6.964
88003SOL    HW165783  12.242   5.770   6.929
88003SOL    HW265784  12.162   5.804   7.053
88004SOL     OW65785  12.518   4.430   4.645
88004SOL    HW165786  12.473   4.381   4.575
88004SOL    HW265787  12.606   4.392   4.648
88005SOL     OW65788  14.111  13.810   3.438
88005SOL    HW165789  14.180  13.871   3.412
88005SOL    HW265790  14.037  13.867   3.461
88006SOL     OW65791   9.735   2.463   2.081
88006SOL    HW165792   9.737   2.385   2.025
88006SOL    HW265793   9.823   2.468   2.119
88007SOL     OW65794  12.958   3.818   2.696
88007SOL    HW165795  13.028   3.882   2.680
88007SOL    HW265796  12.963   3.758   2.621
88008SOL     OW65797  12.783   3.001   9.804
88008SOL    HW165798  12.808   2.960   9.721
88008SOL    HW265799  12.778   2.929   9.867
88009SOL     OW65800   2.915   2.440   3.413
88009SOL    HW165801   2.974   2.368   3.394
88009SOL    HW265802   2.932   2.505   3.345
88010SOL     OW65803   5.345   7.259  13.177
88010SOL    HW165804   5.381   7.283  13.091
88010SOL    HW265805   5.296   7.179  13.162
88011SOL     OW65806   8.045  11.040  10.576
88011SOL    HW165807   8.003  10.954  10.565
88011SOL    HW265808   8.017  11.069  10.662
88012SOL     OW65809   7.975   7.528   8.125
88012SOL    HW165810   8.066   7.498   8.126
88012SOL    HW265811   7.979   7.616   8.088
88013SOL     OW65812   6.987   6.315   1.521
88013SOL    HW165813   6.970   6.262   1.599
88013SOL    HW265814   7.072   6.356   1.539
88014SOL     OW65815   0.045   1.678   9.963
88014SOL    HW165816  14.846   1.720   9.924
88014SOL    HW265817   0.044   1.589   9.928
88015SOL     OW65818   5.888  13.443  11.224
88015SOL    HW165819   5.891  13.387  11.302
88015SOL    HW265820   5.969  13.425  11.178
88016SOL     OW65821  11.083  12.844  13.741
88016SOL    HW165822  11.099  12.929  13.781
88016SOL    HW265823  11.170  12.805  13.732
88017SOL     OW65824   2.067  10.553   8.691
88017SOL    HW165825   2.069  10.640   8.730
88017SOL    HW265826   2.159  10.531   8.675
88018SOL     OW65827  13.890   4.644   2.155
88018SOL    HW165828  13.797   4.626   2.141
88018SOL    HW265829  13.929   4.639   2.068
88019SOL     OW65830  14.213   1.815   1.213
88019SOL    HW165831  14.196   1.909   1.209
88019SOL    HW265832  14.161   1.779   1.141
88020SOL     OW65833   5.592  13.073  14.194
88020SOL    HW165834   5.578  13.019  14.271
88020SOL    HW265835   5.649  13.021  14.137
88021SOL     OW65836   9.399   1.905   0.172
88021SOL    HW165837   9.308   1.886   0.149
88021SOL    HW265838   9.450   1.866   0.101
88022SOL     OW65839   3.290   1.661   8.387
88022SOL    HW165840   3.200   1.651   8.357
88022SOL    HW265841   3.318   1.572   8.409
88023SOL     OW65842  10.662   7.756   6.153
88023SOL    HW165843  10.740   7.727   6.105
88023SOL    HW265844  10.690   7.836   6.197
88024SOL     OW65845   7.780  11.235   5.205
88024SOL    HW165846   7.794  11.203   5.116
88024SOL    HW265847   7.868  11.247   5.240
88025SOL     OW65848  14.547   9.464   6.955
88025SOL    HW165849  14.563   9.421   6.871
88025SOL    HW265850  14.452   9.468   6.963
88026SOL     OW65851   1.289   1.142  14.336
88026SOL    HW165852   1.195   1.158  14.325
88026SOL    HW265853   1.298   1.047  14.330
88027SOL     OW65854   7.882  11.288   6.864
88027SOL    HW165855   7.935  11.232   6.922
88027SOL    HW265856   7.798  11.243   6.859
88028SOL     OW65857  10.359   4.451   1.041
88028SOL    HW165858  10.392   4.368   1.007
88028SOL    HW265859  10.384   4.515   0.975
88029SOL     OW65860   1.284   3.922   2.671
88029SOL    HW165861   1.208   3.972   2.703
88029SOL    HW265862   1.353   3.987   2.662
88030SOL     OW65863   8.793   4.125  13.195
88030SOL    HW165864   8.710   4.094  13.231
88030SOL    HW265865   8.769   4.174  13.117
88031SOL     OW65866  10.006   8.193   9.853
88031SOL    HW165867  10.056   8.266   9.889
88031SOL    HW265868  10.050   8.172   9.770
88032SOL     OW65869  10.107   1.755   6.441
88032SOL    HW165870  10.084   1.817   6.371
88032SOL    HW265871  10.133   1.676   6.395
88033SOL     OW65872   0.503   9.869   4.902
88033SOL    HW165873   0.452   9.950   4.898
88033SOL    HW265874   0.500   9.834   4.813
88034SOL     OW65875   7.840   8.545   4.738
88034SOL    HW165876   7.886   8.537   4.655
88034SOL    HW265877   7.794   8.629   4.732
88035SOL     OW65878   3.362   9.468   4.224
88035SOL    HW165879   3.354   9.563   4.230
88035SOL    HW265880   3.452   9.449   4.251
88036SOL     OW65881  13.741  11.931   7.283
88036SOL    HW165882  13.688  11.998   7.240
88036SOL    HW265883  13.793  11.892   7.213
88037SOL     OW65884   0.979  14.229   9.848
88037SOL    HW165885   0.917  14.269   9.787
88037SOL    HW265886   1.053  14.290   9.850
88038SOL     OW65887   7.095  13.168   7.252
88038SOL    HW165888   7.190  13.176   7.256
88038SOL    HW265889   7.064  13.257   7.240
88039SOL     OW65890   8.278   8.689   9.847
88039SOL    HW165891   8.249   8.638   9.772
88039SOL    HW265892   8.239   8.646   9.923
88040SOL     OW65893   7.941   1.548  13.408
88040SOL    HW165894   7.893   1.631  13.401
88040SOL    HW265895   7.922   1.502  13.326
88041SOL     OW65896  12.092   7.095   3.367
88041SOL    HW165897  12.055   7.137   3.289
88041SOL    HW265898  12.066   7.152   3.440
88042SOL     OW65899  11.954  14.871   3.784
88042SOL    HW165900  11.873  14.832   3.751
88042SOL    HW265901  12.020  14.803   3.772
88043SOL     OW65902   3.336  10.984   4.775
88043SOL    HW165903   3.270  11.013   4.712
88043SOL    HW265904   3.364  10.898   4.744
88044SOL     OW65905   0.579  12.479  10.140
88044SOL    HW165906   0.630  12.490  10.220
88044SOL    HW265907   0.534  12.562  10.127
88045SOL     OW65908   0.493   6.454   0.603
88045SOL    HW165909   0.546   6.474   0.526
88045SOL    HW265910   0.524   6.515   0.670
88046SOL     OW65911  10.185   7.508   6.189
88046SOL    HW165912  10.208   7.477   6.102
88046SOL    HW265913  10.232   7.590   6.199
88047SOL     OW65914  13.903  13.579  14.511
88047SOL    HW165915  13.812  13.548  14.513
88047SOL    HW265916  13.950  13.512  14.461
88048SOL     OW65917  11.422   2.902   0.844
88048SOL    HW165918  11.475   2.978   0.866
88048SOL    HW265919  11.486   2.836   0.816
88049SOL     OW65920  14.527  12.339  11.606
88049SOL    HW165921  14.552  12.407  11.543
88049SOL    HW265922  14.432  12.350  11.615
88050SOL     OW65923  14.229   3.891   7.792
88050SOL    HW165924  14.220   3.983   7.817
88050SOL    HW265925  14.314   3.886   7.748
88051SOL     OW65926  12.506  12.770   8.765
88051SOL    HW165927  12.546  12.847   8.805
88051SOL    HW265928  12.418  12.766   8.803
88052SOL     OW65929  11.777  13.175  14.375
88052SOL    HW165930  11.833  13.180  14.452
88052SOL    HW265931  11.689  13.169  14.410
88053SOL     OW65932   1.153   5.014   6.688
88053SOL    HW165933   1.215   5.001   6.759
88053SOL    HW265934   1.144   5.109   6.681
88054SOL     OW65935   4.459   8.644   5.798
88054SOL    HW165936   4.423   8.565   5.838
88054SOL    HW265937   4.417   8.716   5.845
88055SOL     OW65938   8.724   3.320   6.199
88055SOL    HW165939   8.679   3.333   6.116
88055SOL    HW265940   8.716   3.227   6.217
88056SOL     OW65941  14.601   6.692   9.332
88056SOL    HW165942  14.678   6.723   9.284
88056SOL    HW265943  14.527   6.735   9.289
88057SOL     OW65944   9.826  14.168   6.579
88057SOL    HW165945   9.747  14.123   6.608
88057SOL    HW265946   9.863  14.208   6.658
88058SOL     OW65947   4.732  10.919  14.221
88058SOL    HW165948   4.704  10.931  14.312
88058SOL    HW265949   4.827  10.911  14.226
88059SOL     OW65950   0.370   3.289  10.050
88059SOL    HW165951   0.370   3.385  10.042
88059SOL    HW265952   0.420   3.258   9.976
88060SOL     OW65953   6.469   0.881   1.744
88060SOL    HW165954   6.554   0.907   1.709
88060SOL    HW265955   6.419   0.962   1.750
88061SOL     OW65956   3.164   3.803   5.719
88061SOL    HW165957   3.170   3.821   5.625
88061SOL    HW265958   3.253   3.777   5.744
88062SOL     OW65959  13.840   4.707   7.320
88062SOL    HW165960  13.918   4.654   7.302
88062SOL    HW265961  13.872   4.797   7.324
88063SOL     OW65962  11.838  10.777   1.038
88063SOL    HW165963  11.785  10.712   0.993
88063SOL    HW265964  11.784  10.804   1.113
88064SOL     OW65965  14.181   4.289   2.468
88064SOL    HW165966  14.110   4.326   2.521
88064SOL    HW265967  14.137   4.242   2.397
88065SOL     OW65968   5.864   8.435  12.178
88065SOL    HW165969   5.897   8.398  12.096
88065SOL    HW265970   5.877   8.365  12.242
88066SOL     OW65971  14.602  13.817   8.424
88066SOL    HW165972  14.650  13.900   8.417
88066SOL    HW265973  14.671  13.750   8.427
88067SOL     OW65974   6.206   4.042   2.876
88067SOL    HW165975   6.174   4.101   2.808
88067SOL    HW265976   6.301   4.052   2.874
88068SOL     OW65977  14.557   5.799  13.735
88068SOL    HW165978  14.465   5.787  13.761
88068SOL    HW265979  14.607   5.780  13.815
88069SOL     OW65980   3.589   9.545   9.952
88069SOL    HW165981   3.601   9.551  10.047
88069SOL    HW265982   3.638   9.620   9.917
88070SOL     OW65983   1.848   3.060   5.139
88070SOL    HW165984   1.797   3.140   5.157
88070SOL    HW265985   1.797   3.014   5.072
88071SOL     OW65986   0.325   5.090   6.680
88071SOL    HW165987   0.332   5.053   6.592
88071SOL    HW265988   0.242   5.137   6.680
88072SOL     OW65989   7.820  12.711   8.733
88072SOL    HW165990   7.792  12.733   8.644
88072SOL    HW265991   7.740  12.709   8.784
88073SOL     OW65992   6.055   5.829   2.953
88073SOL    HW165993   5.962   5.812   2.941
88073SOL    HW265994   6.059   5.918   2.988
88074SOL     OW65995  11.882  12.267   0.978
88074SOL    HW165996  11.946  12.309   1.035
88074SOL    HW265997  11.910  12.176   0.972
88075SOL     OW65998   8.867  13.628  10.617
88075SOL    HW165999   8.779  13.592  10.627
88075SOL    HW266000   8.925  13.558  10.646
88076SOL     OW66001   3.255   8.509   4.711
88076SOL    HW166002   3.286   8.458   4.786
88076SOL    HW266003   3.226   8.444   4.647
88077SOL     OW66004   8.785   5.318   2.966
88077SOL    HW166005   8.847   5.330   2.894
88077SOL    HW266006   8.700   5.343   2.930
88078SOL     OW66007   4.380   8.034   3.894
88078SOL    HW166008   4.315   8.059   3.828
88078SOL    HW266009   4.464   8.052   3.854
88079SOL     OW66010   3.148   3.167  13.766
88079SOL    HW166011   3.146   3.100  13.698
88079SOL    HW266012   3.059   3.202  13.769
88080SOL     OW66013   2.741  13.911   8.848
88080SOL    HW166014   2.687  13.878   8.776
88080SOL    HW266015   2.756  14.003   8.827
88081SOL     OW66016  11.124  11.153   3.262
88081SOL    HW166017  11.192  11.203   3.216
88081SOL    HW266018  11.107  11.078   3.204
88082SOL     OW66019   4.289  10.704  11.983
88082SOL    HW166020   4.322  10.747  11.904
88082SOL    HW266021   4.225  10.640  11.951
88083SOL     OW66022   9.336  11.687  13.112
88083SOL    HW166023   9.339  11.640  13.195
88083SOL    HW266024   9.368  11.775  13.133
88084SOL     OW66025   4.334   8.570  14.551
88084SOL    HW166026   4.276   8.559  14.627
88084SOL    HW266027   4.356   8.663  14.552
88085SOL     OW66028   1.866   0.808   4.678
88085SOL    HW166029   1.877   0.784   4.586
88085SOL    HW266030   1.793   0.753   4.708
88086SOL     OW66031   0.842  12.762   8.901
88086SOL    HW166032   0.866  12.787   8.991
88086SOL    HW266033   0.852  12.667   8.899
88087SOL     OW66034   7.616  12.145  11.697
88087SOL    HW166035   7.546  12.080  11.687
88087SOL    HW266036   7.696  12.094  11.707
88088SOL     OW66037   5.318  10.367  13.320
88088SOL    HW166038   5.350  10.457  13.312
88088SOL    HW266039   5.374  10.327  13.386
88089SOL     OW66040  14.354   0.305  11.057
88089SOL    HW166041  14.304   0.286  11.136
88089SOL    HW266042  14.432   0.351  11.087
88090SOL     OW66043   6.185  12.622  13.816
88090SOL    HW166044   6.209  12.593  13.904
88090SOL    HW266045   6.251  12.689  13.795
88091SOL     OW66046   3.992   5.740   3.297
88091SOL    HW166047   3.983   5.835   3.286
88091SOL    HW266048   3.930   5.718   3.366
88092SOL     OW66049   1.663  13.323   2.064
88092SOL    HW166050   1.723  13.386   2.024
88092SOL    HW266051   1.716  13.279   2.131
88093SOL     OW66052   0.150   9.382   6.039
88093SOL    HW166053   0.061   9.357   6.012
88093SOL    HW266054   0.207   9.338   5.976
88094SOL     OW66055   6.830   2.944  13.996
88094SOL    HW166056   6.820   2.908  14.084
88094SOL    HW266057   6.887   3.019  14.007
88095SOL     OW66058   9.376   2.350  13.038
88095SOL    HW166059   9.335   2.432  13.013
88095SOL    HW266060   9.433   2.328  12.965
88096SOL     OW66061   1.590   2.899  11.881
88096SOL    HW166062   1.608   2.943  11.798
88096SOL    HW266063   1.630   2.812  11.872
88097SOL     OW66064  12.276   3.402   3.054
88097SOL    HW166065  12.330   3.382   2.978
88097SOL    HW266066  12.288   3.327   3.112
88098SOL     OW66067  11.043   7.371   3.415
88098SOL    HW166068  11.105   7.374   3.342
88098SOL    HW266069  11.043   7.460   3.450
88099SOL     OW66070   0.658  11.233   8.007
88099SOL    HW166071   0.635  11.226   7.915
88099SOL    HW266072   0.612  11.160   8.049
88100SOL     OW66073  13.613  12.641  11.413
88100SOL    HW166074  13.660  12.558  11.401
88100SOL    HW266075  13.534  12.616  11.460
88101SOL     OW66076   3.174  12.962   7.640
88101SOL    HW166077   3.107  12.979   7.573
88101SOL    HW266078   3.255  12.947   7.591
88102SOL     OW66079   3.231   6.865   6.739
88102SOL    HW166080   3.146   6.822   6.745
88102SOL    HW266081   3.285   6.804   6.688
88103SOL     OW66082   3.355  14.428  13.035
88103SOL    HW166083   3.408  14.356  13.001
88103SOL    HW266084   3.344  14.487  12.960
88104SOL     OW66085   0.777   2.621  10.083
88104SOL    HW166086   0.863   2.586  10.059
88104SOL    HW266087   0.788   2.716  10.076
88105SOL     OW66088   3.253  14.869   3.849
88105SOL    HW166089   3.242  14.825   3.934
88105SOL    HW266090   3.196   0.068   3.855
88106SOL     OW66091   0.125   7.305   0.430
88106SOL    HW166092   0.145   7.269   0.517
88106SOL    HW266093   0.210   7.335   0.397
88107SOL     OW66094  10.663  14.635  14.737
88107SOL    HW166095  10.758  14.634  14.730
88107SOL    HW266096  10.645  14.707  14.798
88108SOL     OW66097  11.703  11.542   4.854
88108SOL    HW166098  11.771  11.608   4.865
88108SOL    HW266099  11.634  11.568   4.915
88109SOL     OW66100   2.653   4.629  13.229
88109SOL    HW166101   2.744   4.600  13.224
88109SOL    HW266102   2.639   4.678  13.148
88110SOL     OW66103   8.300   3.084  14.449
88110SOL    HW166104   8.275   3.094  14.541
88110SOL    HW266105   8.316   2.991  14.439
88111SOL     OW66106   1.635   3.375   3.664
88111SOL    HW166107   1.686   3.312   3.613
88111SOL    HW266108   1.674   3.460   3.643
88112SOL     OW66109  14.058   2.776   0.256
88112SOL    HW166110  14.045   2.826   0.176
88112SOL    HW266111  14.025   2.833   0.326
88113SOL     OW66112  10.161  10.583   9.903
88113SOL    HW166113  10.175  10.489   9.917
88113SOL    HW266114  10.072  10.599   9.935
88114SOL     OW66115   6.560   5.768  13.566
88114SOL    HW166116   6.482   5.811  13.533
88114SOL    HW266117   6.539   5.748  13.657
88115SOL     OW66118   6.271  11.186   0.557
88115SOL    HW166119   6.232  11.113   0.605
88115SOL    HW266120   6.267  11.260   0.618
88116SOL     OW66121   0.876  12.707  12.992
88116SOL    HW166122   0.795  12.730  13.038
88116SOL    HW266123   0.930  12.786  12.998
88117SOL     OW66124   5.622   4.566   6.187
88117SOL    HW166125   5.664   4.501   6.130
88117SOL    HW266126   5.647   4.650   6.149
88118SOL     OW66127   1.901   5.427   4.122
88118SOL    HW166128   1.971   5.363   4.119
88118SOL    HW266129   1.942   5.509   4.095
88119SOL     OW66130   3.438  13.738   6.252
88119SOL    HW166131   3.381  13.703   6.184
88119SOL    HW266132   3.423  13.682   6.328
88120SOL     OW66133  13.149   9.400   2.616
88120SOL    HW166134  13.162   9.306   2.630
88120SOL    HW266135  13.062   9.407   2.578
88121SOL     OW66136  13.376   8.811   9.255
88121SOL    HW166137  13.353   8.904   9.255
88121SOL    HW266138  13.342   8.779   9.171
88122SOL     OW66139  12.404  14.059   4.126
88122SOL    HW166140  12.323  14.075   4.077
88122SOL    HW266141  12.417  13.965   4.121
88123SOL     OW66142  11.117   9.813   6.870
88123SOL    HW166143  11.128   9.725   6.834
88123SOL    HW266144  11.119   9.800   6.965
88124SOL     OW66145   3.782   4.684   0.951
88124SOL    HW166146   3.831   4.617   0.999
88124SOL    HW266147   3.808   4.672   0.860
88125SOL     OW66148   2.340   9.193   1.416
88125SOL    HW166149   2.424   9.229   1.389
88125SOL    HW266150   2.359   9.143   1.496
88126SOL     OW66151  13.287   1.058   7.926
88126SOL    HW166152  13.297   1.000   7.850
88126SOL    HW266153  13.228   1.127   7.896
88127SOL     OW66154  12.355   2.351  10.752
88127SOL    HW166155  12.442   2.388  10.764
88127SOL    HW266156  12.353   2.321  10.661
88128SOL     OW66157  12.272   0.357  13.962
88128SOL    HW166158  12.246   0.271  13.929
88128SOL    HW266159  12.206   0.417  13.926
88129SOL     OW66160   8.672   5.197   5.670
88129SOL    HW166161   8.702   5.128   5.611
88129SOL    HW266162   8.631   5.150   5.743
88130SOL     OW66163  11.803   0.299   1.489
88130SOL    HW166164  11.741   0.371   1.480
88130SOL    HW266165  11.867   0.331   1.552
88131SOL     OW66166   9.867  13.185   7.247
88131SOL    HW166167   9.872  13.229   7.162
88131SOL    HW266168   9.941  13.220   7.297
88132SOL     OW66169   2.538  12.412   6.885
88132SOL    HW166170   2.580  12.481   6.937
88132SOL    HW266171   2.444  12.428   6.897
88133SOL     OW66172  14.515   1.901  12.865
88133SOL    HW166173  14.492   1.819  12.909
88133SOL    HW266174  14.594   1.881  12.816
88134SOL     OW66175   4.879   1.727   6.388
88134SOL    HW166176   4.924   1.789   6.331
88134SOL    HW266177   4.826   1.782   6.446
88135SOL     OW66178   5.267   0.050   2.329
88135SOL    HW166179   5.176   0.031   2.305
88135SOL    HW266180   5.300  14.846   2.365
88136SOL     OW66181  10.986  13.221  11.982
88136SOL    HW166182  11.014  13.285  12.047
88136SOL    HW266183  11.012  13.136  12.020
88137SOL     OW66184   6.083   1.533   4.346
88137SOL    HW166185   6.116   1.622   4.353
88137SOL    HW266186   6.010   1.529   4.407
88138SOL     OW66187   4.537  10.765   9.472
88138SOL    HW166188   4.502  10.768   9.383
88138SOL    HW266189   4.463  10.789   9.528
88139SOL     OW66190   6.725   5.020  13.967
88139SOL    HW166191   6.815   5.048  13.951
88139SOL    HW266192   6.674   5.101  13.967
88140SOL     OW66193  13.141   2.957   8.463
88140SOL    HW166194  13.102   3.018   8.525
88140SOL    HW266195  13.150   2.875   8.512
88141SOL     OW66196   5.948  10.229   5.263
88141SOL    HW166197   5.908  10.193   5.343
88141SOL    HW266198   5.899  10.309   5.246
88142SOL     OW66199  10.233   1.592  12.504
88142SOL    HW166200  10.181   1.543  12.567
88142SOL    HW266201  10.246   1.678  12.544
88143SOL     OW66202   6.474  12.178  10.690
88143SOL    HW166203   6.385  12.188  10.656
88143SOL    HW266204   6.503  12.268  10.707
88144SOL     OW66205   0.891   2.693  11.621
88144SOL    HW166206   0.851   2.610  11.644
88144SOL    HW266207   0.844   2.758  11.674
88145SOL     OW66208   6.559  14.101   1.776
88145SOL    HW166209   6.560  14.195   1.790
88145SOL    HW266210   6.650  14.074   1.784
88146SOL     OW66211   8.564   9.842   6.013
88146SOL    HW166212   8.471   9.824   5.997
88146SOL    HW266213   8.570   9.937   6.016
88147SOL     OW66214   1.584  11.734  12.303
88147SOL    HW166215   1.625  11.820  12.290
88147SOL    HW266216   1.490  11.750  12.291
88148SOL     OW66217   8.816   3.543   4.385
88148SOL    HW166218   8.835   3.458   4.344
88148SOL    HW266219   8.733   3.529   4.430
88149SOL     OW66220  11.600  10.278  13.197
88149SOL    HW166221  11.587  10.245  13.108
88149SOL    HW266222  11.628  10.201  13.247
88150SOL     OW66223   6.920   0.034   7.390
88150SOL    HW166224   6.945  14.822   7.406
88150SOL    HW266225   6.969   0.086   7.453
88151SOL     OW66226   7.467   2.412   8.145
88151SOL    HW166227   7.492   2.418   8.053
88151SOL    HW266228   7.430   2.498   8.165
88152SOL     OW66229  13.745   1.271   5.134
88152SOL    HW166230  13.820   1.328   5.152
88152SOL    HW266231  13.674   1.310   5.186
88153SOL     OW66232   3.257  11.327   7.395
88153SOL    HW166233   3.323  11.392   7.422
88153SOL    HW266234   3.253  11.265   7.468
88154SOL     OW66235   3.526   9.341   5.238
88154SOL    HW166236   3.565   9.409   5.294
88154SOL    HW266237   3.460   9.300   5.293
88155SOL     OW66238   5.907   0.060   6.456
88155SOL    HW166239   5.992   0.074   6.497
88155SOL    HW266240   5.927   0.045   6.364
88156SOL     OW66241   0.844  11.151   4.304
88156SOL    HW166242   0.926  11.122   4.265
88156SOL    HW266243   0.868  11.221   4.364
88157SOL     OW66244   6.604  10.872  11.444
88157SOL    HW166245   6.668  10.860  11.374
88157SOL    HW266246   6.575  10.962  11.435
88158SOL     OW66247   8.533   5.486   3.473
88158SOL    HW166248   8.583   5.535   3.408
88158SOL    HW266249   8.539   5.538   3.553
88159SOL     OW66250  10.285  11.192   6.868
88159SOL    HW166251  10.259  11.103   6.890
88159SOL    HW266252  10.209  11.228   6.822
88160SOL     OW66253  13.370   1.371   6.535
88160SOL    HW166254  13.452   1.403   6.497
88160SOL    HW266255  13.313   1.448   6.536
88161SOL     OW66256   8.677   6.648   1.599
88161SOL    HW166257   8.644   6.561   1.581
88161SOL    HW266258   8.693   6.686   1.513
88162SOL     OW66259   0.621   6.030   6.677
88162SOL    HW166260   0.662   6.050   6.593
88162SOL    HW266261   0.528   6.046   6.663
88163SOL     OW66262   6.183   1.335  11.057
88163SOL    HW166263   6.106   1.285  11.086
88163SOL    HW266264   6.251   1.270  11.044
88164SOL     OW66265  11.531  11.393   3.913
88164SOL    HW166266  11.488  11.331   3.854
88164SOL    HW266267  11.467  11.463   3.925
88165SOL     OW66268   0.695  10.636   3.764
88165SOL    HW166269   0.751  10.561   3.783
88165SOL    HW266270   0.753  10.712   3.774
88166SOL     OW66271   4.446   2.313   9.666
88166SOL    HW166272   4.413   2.275   9.747
88166SOL    HW266273   4.541   2.302   9.672
88167SOL     OW66274   7.432   3.919   6.731
88167SOL    HW166275   7.386   3.841   6.702
88167SOL    HW266276   7.418   3.983   6.661
88168SOL     OW66277   3.348   8.380   0.997
88168SOL    HW166278   3.316   8.301   1.040
88168SOL    HW266279   3.402   8.347   0.925
88169SOL     OW66280   9.974   1.416  11.552
88169SOL    HW166281   9.953   1.485  11.488
88169SOL    HW266282  10.021   1.462  11.622
88170SOL     OW66283   6.312   1.176  11.573
88170SOL    HW166284   6.372   1.207  11.506
88170SOL    HW266285   6.326   1.235  11.647
88171SOL     OW66286   6.308   7.075  11.769
88171SOL    HW166287   6.324   7.169  11.780
88171SOL    HW266288   6.292   7.043  11.858
88172SOL     OW66289   3.973  11.265   6.172
88172SOL    HW166290   4.041  11.253   6.239
88172SOL    HW266291   3.891  11.265   6.222
88173SOL     OW66292   9.555  12.332   0.315
88173SOL    HW166293   9.521  12.316   0.403
88173SOL    HW266294   9.593  12.249   0.288
88174SOL     OW66295  10.132   7.864   5.187
88174SOL    HW166296  10.201   7.910   5.140
88174SOL    HW266297  10.051   7.895   5.147
88175SOL     OW66298   0.054  10.195   3.187
88175SOL    HW166299   0.039  10.140   3.111
88175SOL    HW266300   0.150  10.205   3.191
88176SOL     OW66301  12.060   7.336   4.214
88176SOL    HW166302  12.048   7.316   4.121
88176SOL    HW266303  12.150   7.309   4.233
88177SOL     OW66304   7.530  11.667  14.854
88177SOL    HW166305   7.530  11.576  14.824
88177SOL    HW266306   7.505  11.661   0.068
88178SOL     OW66307  13.265   2.327   5.172
88178SOL    HW166308  13.293   2.309   5.082
88178SOL    HW266309  13.323   2.397   5.202
88179SOL     OW66310   5.254   5.614   0.501
88179SOL    HW166311   5.166   5.630   0.537
88179SOL    HW266312   5.313   5.660   0.561
88180SOL     OW66313   7.911   8.570  12.954
88180SOL    HW166314   7.990   8.624  12.956
88180SOL    HW266315   7.844   8.625  12.994
88181SOL     OW66316  10.088   2.414   4.245
88181SOL    HW166317  10.085   2.325   4.210
88181SOL    HW266318   9.999   2.448   4.235
88182SOL     OW66319   5.516   2.564  11.814
88182SOL    HW166320   5.512   2.554  11.909
88182SOL    HW266321   5.506   2.658  11.800
88183SOL     OW66322  13.658   3.242  13.799
88183SOL    HW166323  13.604   3.275  13.870
88183SOL    HW266324  13.609   3.167  13.765
88184SOL     OW66325   1.637   3.407   2.588
88184SOL    HW166326   1.603   3.381   2.674
88184SOL    HW266327   1.582   3.481   2.562
88185SOL     OW66328   2.131   3.264   3.116
88185SOL    HW166329   2.090   3.322   3.181
88185SOL    HW266330   2.214   3.238   3.157
88186SOL     OW66331  11.645  14.577   2.342
88186SOL    HW166332  11.590  14.651   2.314
88186SOL    HW266333  11.617  14.560   2.432
88187SOL     OW66334   0.156  10.890   0.820
88187SOL    HW166335   0.137  10.903   0.913
88187SOL    HW266336   0.196  10.803   0.816
88188SOL     OW66337   1.097  10.166   9.762
88188SOL    HW166338   1.190  10.152   9.743
88188SOL    HW266339   1.085  10.132   9.850
88189SOL     OW66340  12.739   5.028   3.427
88189SOL    HW166341  12.675   5.072   3.371
88189SOL    HW266342  12.824   5.053   3.390
88190SOL     OW66343  14.556   4.184   2.253
88190SOL    HW166344  14.505   4.197   2.333
88190SOL    HW266345  14.495   4.209   2.183
88191SOL     OW66346   7.754   2.697  14.366
88191SOL    HW166347   7.669   2.739  14.370
88191SOL    HW266348   7.749   2.628  14.433
88192SOL     OW66349   4.894   2.400  13.844
88192SOL    HW166350   4.850   2.461  13.903
88192SOL    HW266351   4.970   2.370  13.894
88193SOL     OW66352   6.822   5.638  11.656
88193SOL    HW166353   6.746   5.667  11.707
88193SOL    HW266354   6.833   5.706  11.590
88194SOL     OW66355   9.578   9.709   1.459
88194SOL    HW166356   9.499   9.732   1.411
88194SOL    HW266357   9.567   9.617   1.483
88195SOL     OW66358   0.678   0.218   6.985
88195SOL    HW166359   0.762   0.252   6.954
88195SOL    HW266360   0.666   0.258   7.071
88196SOL     OW66361   5.799   4.637  10.790
88196SOL    HW166362   5.863   4.701  10.821
88196SOL    HW266363   5.742   4.622  10.865
88197SOL     OW66364  11.089  13.486   7.969
88197SOL    HW166365  11.043  13.564   8.000
88197SOL    HW266366  11.091  13.428   8.045
88198SOL     OW66367   8.288   7.933   5.860
88198SOL    HW166368   8.341   8.008   5.832
88198SOL    HW266369   8.254   7.958   5.945
88199SOL     OW66370   2.865   5.845  13.045
88199SOL    HW166371   2.847   5.914  12.981
88199SOL    HW266372   2.933   5.792  13.004
88200SOL     OW66373   2.470   2.227   5.640
88200SOL    HW166374   2.457   2.321   5.631
88200SOL    HW266375   2.563   2.217   5.659
88201SOL     OW66376   9.698   4.848  14.455
88201SOL    HW166377   9.729   4.890  14.374
88201SOL    HW266378   9.764   4.870  14.520
88202SOL     OW66379   0.805  13.436   7.958
88202SOL    HW166380   0.783  13.418   8.050
88202SOL    HW266381   0.822  13.349   7.921
88203SOL     OW66382   4.532   0.202   8.004
88203SOL    HW166383   4.622   0.215   7.975
88203SOL    HW266384   4.483   0.273   7.963
88204SOL     OW66385  13.366  10.389   3.724
88204SOL    HW166386  13.324  10.341   3.652
88204SOL    HW266387  13.366  10.481   3.694
88205SOL     OW66388   7.119   0.104  10.737
88205SOL    HW166389   7.167   0.083  10.657
88205SOL    HW266390   7.186   0.135  10.798
88206SOL     OW66391   3.978   3.759   4.601
88206SOL    HW166392   4.018   3.688   4.551
88206SOL    HW266393   3.954   3.824   4.535
88207SOL     OW66394  11.709   4.176  11.333
88207SOL    HW166395  11.755   4.092  11.334
88207SOL    HW266396  11.656   4.175  11.413
88208SOL     OW66397   5.627   3.128   6.033
88208SOL    HW166398   5.599   3.183   5.961
88208SOL    HW266399   5.572   3.050   6.027
88209SOL     OW66400  13.257  10.342   6.570
88209SOL    HW166401  13.285  10.303   6.487
88209SOL    HW266402  13.199  10.414   6.544
88210SOL     OW66403  14.106   1.069  11.328
88210SOL    HW166404  14.159   1.055  11.407
88210SOL    HW266405  14.136   1.003  11.267
88211SOL     OW66406  11.079   7.990   8.499
88211SOL    HW166407  11.110   7.930   8.431
88211SOL    HW266408  11.061   8.071   8.452
88212SOL     OW66409   8.222  12.631   9.895
88212SOL    HW166410   8.290  12.673   9.843
88212SOL    HW266411   8.213  12.687   9.972
88213SOL     OW66412  10.071  12.486   0.236
88213SOL    HW166413  10.058  12.576   0.266
88213SOL    HW266414   9.983  12.452   0.224
88214SOL     OW66415   6.485   0.031  10.816
88214SOL    HW166416   6.430   0.068  10.746
88214SOL    HW266417   6.574   0.054  10.791
88215SOL     OW66418   3.441   6.786   5.839
88215SOL    HW166419   3.497   6.849   5.884
88215SOL    HW266420   3.460   6.799   5.746
88216SOL     OW66421  14.015  11.242   7.490
88216SOL    HW166422  14.022  11.172   7.425
88216SOL    HW266423  13.922  11.243   7.513
88217SOL     OW66424   8.184  11.941  14.487
88217SOL    HW166425   8.112  11.888  14.520
88217SOL    HW266426   8.174  12.025  14.532
88218SOL     OW66427  12.510   8.315   8.837
88218SOL    HW166428  12.490   8.245   8.900
88218SOL    HW266429  12.596   8.347   8.865
88219SOL     OW66430   8.374   8.909  10.581
88219SOL    HW166431   8.317   8.944  10.512
88219SOL    HW266432   8.402   8.823  10.549
88220SOL     OW66433   0.655  14.550   8.217
88220SOL    HW166434   0.689  14.493   8.148
88220SOL    HW266435   0.590  14.496   8.263
88221SOL     OW66436  12.392  12.331  12.330
88221SOL    HW166437  12.431  12.320  12.417
88221SOL    HW266438  12.462  12.369  12.277
88222SOL     OW66439  12.682   8.426   3.578
88222SOL    HW166440  12.714   8.378   3.502
88222SOL    HW266441  12.761   8.450   3.627
88223SOL     OW66442  13.561   6.032   7.974
88223SOL    HW166443  13.589   5.952   8.017
88223SOL    HW266444  13.635   6.092   7.983
88224SOL     OW66445   0.659  10.633   5.195
88224SOL    HW166446   0.737  10.587   5.224
88224SOL    HW266447   0.586  10.577   5.220
88225SOL     OW66448   5.051  14.558   3.591
88225SOL    HW166449   5.100  14.617   3.649
88225SOL    HW266450   5.042  14.477   3.642
88226SOL     OW66451   6.663   8.377   4.937
88226SOL    HW166452   6.693   8.356   5.026
88226SOL    HW266453   6.730   8.339   4.880
88227SOL     OW66454   9.819   9.398  11.886
88227SOL    HW166455   9.742   9.446  11.917
88227SOL    HW266456   9.879   9.466  11.855
88228SOL     OW66457   3.545   3.821  10.679
88228SOL    HW166458   3.572   3.765  10.753
88228SOL    HW266459   3.624   3.831  10.627
88229SOL     OW66460   9.507  13.458   3.971
88229SOL    HW166461   9.593  13.425   3.996
88229SOL    HW266462   9.446  13.418   4.033
88230SOL     OW66463  14.703  12.062   1.417
88230SOL    HW166464  14.644  12.133   1.394
88230SOL    HW266465  14.647  11.985   1.427
88231SOL     OW66466   8.278  12.332   2.844
88231SOL    HW166467   8.303  12.424   2.854
88231SOL    HW266468   8.227  12.313   2.923
88232SOL     OW66469  14.511  12.009   0.994
88232SOL    HW166470  14.562  12.065   0.935
88232SOL    HW266471  14.521  11.921   0.957
88233SOL     OW66472   9.997   9.786   4.527
88233SOL    HW166473   9.977   9.745   4.443
88233SOL    HW266474   9.930   9.752   4.587
88234SOL     OW66475   1.157  11.192   1.936
88234SOL    HW166476   1.104  11.230   1.866
88234SOL    HW266477   1.244  11.183   1.897
88235SOL     OW66478   3.193   6.866   3.024
88235SOL    HW166479   3.142   6.854   2.944
88235SOL    HW266480   3.130   6.849   3.094
88236SOL     OW66481   1.186   1.507   0.603
88236SOL    HW166482   1.198   1.569   0.674
88236SOL    HW266483   1.111   1.541   0.554
88237SOL     OW66484  14.521   1.443   6.950
88237SOL    HW166485  14.471   1.466   6.872
88237SOL    HW266486  14.510   1.517   7.009
88238SOL     OW66487  14.407  12.406   3.880
88238SOL    HW166488  14.332  12.350   3.899
88238SOL    HW266489  14.481  12.361   3.922
88239SOL     OW66490   0.984  13.853   4.705
88239SOL    HW166491   0.925  13.903   4.762
88239SOL    HW266492   0.977  13.763   4.737
88240SOL     OW66493   1.971   5.911   9.026
88240SOL    HW166494   1.926   5.837   8.986
88240SOL    HW266495   1.901   5.964   9.063
88241SOL     OW66496  12.642  12.880   0.202
88241SOL    HW166497  12.580  12.951   0.219
88241SOL    HW266498  12.718  12.900   0.257
88242SOL     OW66499  10.855   1.014   9.188
88242SOL    HW166500  10.917   1.053   9.249
88242SOL    HW266501  10.842   0.925   9.221
88243SOL     OW66502  13.113   1.528  10.803
88243SOL    HW166503  13.134   1.585  10.729
88243SOL    HW266504  13.038   1.570  10.845
88244SOL     OW66505   3.629   3.393  14.612
88244SOL    HW166506   3.705   3.405  14.670
88244SOL    HW266507   3.587   3.479  14.610
88245SOL     OW66508  13.163  13.409   5.049
88245SOL    HW166509  13.113  13.443   4.974
88245SOL    HW266510  13.174  13.316   5.030
88246SOL     OW66511   3.322   9.893   6.661
88246SOL    HW166512   3.392   9.877   6.597
88246SOL    HW266513   3.345   9.978   6.700
88247SOL     OW66514   3.708  11.588  13.108
88247SOL    HW166515   3.699  11.571  13.014
88247SOL    HW266516   3.626  11.631  13.132
88248SOL     OW66517   9.968   2.342   1.406
88248SOL    HW166518   9.885   2.317   1.448
88248SOL    HW266519   9.966   2.296   1.322
88249SOL     OW66520  13.920   9.023   9.593
88249SOL    HW166521  13.961   9.010   9.679
88249SOL    HW266522  13.944   9.112   9.568
88250SOL     OW66523   9.892   4.245   0.587
88250SOL    HW166524   9.809   4.226   0.631
88250SOL    HW266525   9.872   4.238   0.494
88251SOL     OW66526   6.301  10.673  11.852
88251SOL    HW166527   6.387  10.635  11.872
88251SOL    HW266528   6.314  10.768  11.860
88252SOL     OW66529  13.043   3.751   1.158
88252SOL    HW166530  13.070   3.694   1.230
88252SOL    HW266531  13.125   3.778   1.116
88253SOL     OW66532  10.771   8.744  10.791
88253SOL    HW166533  10.851   8.797  10.786
88253SOL    HW266534  10.702   8.803  10.763
88254SOL     OW66535   9.462  11.936  14.433
88254SOL    HW166536   9.497  11.986  14.359
88254SOL    HW266537   9.471  11.844  14.406
88255SOL     OW66538  13.417  13.505  13.831
88255SOL    HW166539  13.480  13.435  13.813
88255SOL    HW266540  13.373  13.519  13.747
88256SOL     OW66541  12.421   1.118  14.109
88256SOL    HW166542  12.414   1.148  14.018
88256SOL    HW266543  12.330   1.113  14.140
88257SOL     OW66544   7.725   1.116   7.129
88257SOL    HW166545   7.771   1.200   7.124
88257SOL    HW266546   7.791   1.051   7.104
88258SOL     OW66547   2.371   6.073   1.175
88258SOL    HW166548   2.345   6.093   1.085
88258SOL    HW266549   2.356   6.154   1.223
88259SOL     OW66550   9.726  11.619   4.599
88259SOL    HW166551   9.780  11.590   4.673
88259SOL    HW266552   9.730  11.714   4.602
88260SOL     OW66553  10.023   6.322  14.373
88260SOL    HW166554   9.936   6.282  14.380
88260SOL    HW266555  10.022   6.394  14.436
88261SOL     OW66556   4.059  12.799   4.516
88261SOL    HW166557   4.129  12.846   4.563
88261SOL    HW266558   4.100  12.770   4.435
88262SOL     OW66559   2.103  14.336   2.247
88262SOL    HW166560   2.199  14.334   2.239
88262SOL    HW266561   2.072  14.288   2.170
88263SOL     OW66562  10.079   6.672   2.758
88263SOL    HW166563  10.022   6.627   2.821
88263SOL    HW266564  10.161   6.624   2.762
88264SOL     OW66565  14.829   5.248   9.309
88264SOL    HW166566   0.046   5.248   9.322
88264SOL    HW266567  14.805   5.341   9.311
88265SOL     OW66568  12.424   3.988   5.978
88265SOL    HW166569  12.408   3.904   5.933
88265SOL    HW266570  12.517   4.004   5.967
88266SOL     OW66571   9.387  10.559   6.540
88266SOL    HW166572   9.368  10.586   6.630
88266SOL    HW266573   9.482  10.566   6.533
88267SOL     OW66574  14.588  14.878   5.426
88267SOL    HW166575  14.656   0.042   5.373
88267SOL    HW266576  14.576   0.059   5.501
88268SOL     OW66577   1.356   5.856  10.353
88268SOL    HW166578   1.272   5.820  10.324
88268SOL    HW266579   1.413   5.780  10.365
88269SOL     OW66580   7.513   8.936  13.412
88269SOL    HW166581   7.545   8.856  13.454
88269SOL    HW266582   7.451   8.905  13.346
88270SOL     OW66583   1.378   9.994  11.361
88270SOL    HW166584   1.338   9.955  11.284
88270SOL    HW266585   1.386   9.922  11.423
88271SOL     OW66586  13.784  10.707   6.346
88271SOL    HW166587  13.772  10.799   6.321
88271SOL    HW266588  13.701  10.683   6.387
88272SOL     OW66589   2.858   6.483   2.255
88272SOL    HW166590   2.772   6.446   2.274
88272SOL    HW266591   2.918   6.409   2.260
88273SOL     OW66592  12.440  11.436   6.170
88273SOL    HW166593  12.487  11.359   6.202
88273SOL    HW266594  12.374  11.454   6.238
88274SOL     OW66595   6.361   2.252   5.466
88274SOL    HW166596   6.362   2.269   5.560
88274SOL    HW266597   6.375   2.158   5.459
88275SOL     OW66598  12.235   0.012  10.440
88275SOL    HW166599  12.229  14.822  10.507
88275SOL    HW266600  12.324   0.005  10.406
88276SOL     OW66601  14.000   0.328   4.636
88276SOL    HW166602  14.073   0.327   4.699
88276SOL    HW266603  13.992   0.237   4.606
88277SOL     OW66604  12.972  12.347  14.717
88277SOL    HW166605  12.994  12.430  14.760
88277SOL    HW266606  12.951  12.287  14.789
88278SOL     OW66607   1.545   2.587  13.685
88278SOL    HW166608   1.556   2.611  13.777
88278SOL    HW266609   1.486   2.655  13.650
88279SOL     OW66610   3.448   3.094   2.672
88279SOL    HW166611   3.431   3.055   2.758
88279SOL    HW266612   3.455   3.020   2.612
88280SOL     OW66613  12.683   7.348   0.111
88280SOL    HW166614  12.628   7.276   0.140
88280SOL    HW266615  12.716   7.321   0.026
88281SOL     OW66616   3.253  13.881   7.244
88281SOL    HW166617   3.182  13.825   7.212
88281SOL    HW266618   3.211  13.937   7.310
88282SOL     OW66619   5.706   7.758   8.346
88282SOL    HW166620   5.628   7.795   8.388
88282SOL    HW266621   5.773   7.826   8.355
88283SOL     OW66622  10.719   5.845   2.545
88283SOL    HW166623  10.700   5.885   2.460
88283SOL    HW266624  10.793   5.896   2.579
88284SOL     OW66625   3.715   0.774   7.122
88284SOL    HW166626   3.752   0.693   7.088
88284SOL    HW266627   3.635   0.787   7.071
88285SOL     OW66628   0.829   7.664  13.624
88285SOL    HW166629   0.834   7.687  13.717
88285SOL    HW266630   0.769   7.728  13.586
88286SOL     OW66631   9.801   6.482  11.666
88286SOL    HW166632   9.857   6.481  11.588
88286SOL    HW266633   9.802   6.572  11.696
88287SOL     OW66634  14.617  13.738   1.653
88287SOL    HW166635  14.695  13.737   1.708
88287SOL    HW266636  14.558  13.674   1.692
88288SOL     OW66637   6.235   7.248   7.930
88288SOL    HW166638   6.309   7.255   7.871
88288SOL    HW266639   6.186   7.172   7.899
88289SOL     OW66640   6.006   6.459   3.924
88289SOL    HW166641   6.099   6.480   3.929
88289SOL    HW266642   5.969   6.496   4.004
88290SOL     OW66643   7.755   3.144   5.904
88290SOL    HW166644   7.687   3.167   5.841
88290SOL    HW266645   7.830   3.198   5.879
88291SOL     OW66646   9.633   7.103   5.465
88291SOL    HW166647   9.685   7.071   5.392
88291SOL    HW266648   9.639   7.199   5.460
88292SOL     OW66649  13.712   1.716   8.508
88292SOL    HW166650  13.692   1.659   8.582
88292SOL    HW266651  13.637   1.775   8.502
88293SOL     OW66652   3.744  14.048   8.872
88293SOL    HW166653   3.715  14.090   8.953
88293SOL    HW266654   3.750  14.120   8.809
88294SOL     OW66655   8.082  13.316  11.971
88294SOL    HW166656   8.084  13.362  12.055
88294SOL    HW266657   8.090  13.385  11.906
88295SOL     OW66658   5.157   9.978   7.582
88295SOL    HW166659   5.187   9.906   7.526
88295SOL    HW266660   5.238  10.015   7.618
88296SOL     OW66661   3.728  10.919   5.153
88296SOL    HW166662   3.655  10.860   5.135
88296SOL    HW266663   3.695  10.979   5.220
88297SOL     OW66664   5.444  12.659   2.166
88297SOL    HW166665   5.387  12.724   2.207
88297SOL    HW266666   5.532  12.681   2.195
88298SOL     OW66667  11.031   4.217   7.725
88298SOL    HW166668  11.002   4.136   7.683
88298SOL    HW266669  11.008   4.206   7.817
88299SOL     OW66670   4.231  13.367   6.049
88299SOL    HW166671   4.249  13.461   6.057
88299SOL    HW266672   4.287  13.338   5.977
88300SOL     OW66673   7.529  10.462   4.558
88300SOL    HW166674   7.497  10.383   4.601
88300SOL    HW266675   7.557  10.433   4.471
88301SOL     OW66676  13.676   0.514   9.699
88301SOL    HW166677  13.747   0.450   9.707
88301SOL    HW266678  13.612   0.486   9.764
88302SOL     OW66679  12.761  10.492   3.512
88302SOL    HW166680  12.799  10.413   3.550
88302SOL    HW266681  12.667  10.472   3.507
88303SOL     OW66682   8.905  11.884  14.299
88303SOL    HW166683   9.000  11.876  14.296
88303SOL    HW266684   8.887  11.920  14.385
88304SOL     OW66685  11.750   1.300  11.923
88304SOL    HW166686  11.690   1.274  11.994
88304SOL    HW266687  11.728   1.392  11.907
88305SOL     OW66688   0.290   7.175   1.816
88305SOL    HW166689   0.247   7.247   1.770
88305SOL    HW266690   0.376   7.168   1.774
88306SOL     OW66691  13.489   7.564  13.927
88306SOL    HW166692  13.473   7.653  13.897
88306SOL    HW266693  13.448   7.560  14.013
88307SOL     OW66694   7.805   7.660   4.663
88307SOL    HW166695   7.845   7.584   4.704
88307SOL    HW266696   7.774   7.713   4.736
88308SOL     OW66697  12.173  11.398   3.443
88308SOL    HW166698  12.223  11.380   3.522
88308SOL    HW266699  12.237  11.431   3.381
88309SOL     OW66700  11.189   9.235   7.357
88309SOL    HW166701  11.209   9.147   7.327
88309SOL    HW266702  11.094   9.244   7.343
88310SOL     OW66703   5.581   2.309  11.893
88310SOL    HW166704   5.675   2.295  11.909
88310SOL    HW266705   5.572   2.303  11.798
88311SOL     OW66706  12.911   4.207   5.351
88311SOL    HW166707  12.956   4.268   5.292
88311SOL    HW266708  12.889   4.132   5.296
88312SOL     OW66709   2.362  13.085  14.012
88312SOL    HW166710   2.445  13.133  14.009
88312SOL    HW266711   2.347  13.070  14.106
88313SOL     OW66712   7.377   1.489   1.581
88313SOL    HW166713   7.454   1.487   1.523
88313SOL    HW266714   7.302   1.477   1.522
88314SOL     OW66715   7.783   1.675   9.423
88314SOL    HW166716   7.744   1.648   9.340
88314SOL    HW266717   7.839   1.602   9.448
88315SOL     OW66718   8.352   9.999   5.493
88315SOL    HW166719   8.425   9.953   5.452
88315SOL    HW266720   8.275   9.948   5.470
88316SOL     OW66721   6.941  10.731   6.787
88316SOL    HW166722   7.009  10.790   6.754
88316SOL    HW266723   6.881  10.789   6.835
88317SOL     OW66724   5.088   4.964   3.354
88317SOL    HW166725   5.070   5.045   3.307
88317SOL    HW266726   5.164   4.926   3.311
88318SOL     OW66727   9.024  12.367   8.957
88318SOL    HW166728   9.026  12.461   8.975
88318SOL    HW266729   9.106  12.333   8.992
88319SOL     OW66730   0.755  11.147   4.931
88319SOL    HW166731   0.720  11.130   4.843
88319SOL    HW266732   0.846  11.120   4.926
88320SOL     OW66733  14.154   3.566  10.568
88320SOL    HW166734  14.062   3.541  10.576
88320SOL    HW266735  14.153   3.657  10.540
88321SOL     OW66736   6.354   3.009   6.410
88321SOL    HW166737   6.343   2.976   6.321
88321SOL    HW266738   6.348   3.104   6.402
88322SOL     OW66739   6.917  13.209   8.824
88322SOL    HW166740   6.930  13.285   8.881
88322SOL    HW266741   7.005  13.174   8.811
88323SOL     OW66742  11.775   5.527   5.441
88323SOL    HW166743  11.778   5.618   5.410
88323SOL    HW266744  11.690   5.495   5.411
88324SOL     OW66745   0.457   1.626  10.962
88324SOL    HW166746   0.367   1.623  10.929
88324SOL    HW266747   0.484   1.534  10.963
88325SOL     OW66748   4.275  11.285   8.640
88325SOL    HW166749   4.316  11.354   8.587
88325SOL    HW266750   4.305  11.203   8.599
88326SOL     OW66751  14.091  10.545   0.484
88326SOL    HW166752  14.091  10.484   0.557
88326SOL    HW266753  14.021  10.514   0.426
88327SOL     OW66754  13.573   2.438   7.577
88327SOL    HW166755  13.548   2.504   7.641
88327SOL    HW266756  13.531   2.465   7.496
88328SOL     OW66757   7.561   6.416  14.173
88328SOL    HW166758   7.506   6.457  14.240
88328SOL    HW266759   7.499   6.371  14.116
88329SOL     OW66760  10.910   8.542  11.849
88329SOL    HW166761  10.921   8.523  11.756
88329SOL    HW266762  10.985   8.597  11.872
88330SOL     OW66763   8.860  13.788   9.347
88330SOL    HW166764   8.934  13.730   9.368
88330SOL    HW266765   8.901  13.872   9.326
88331SOL     OW66766   6.359   2.152   5.733
88331SOL    HW166767   6.442   2.180   5.771
88331SOL    HW266768   6.296   2.158   5.805
88332SOL     OW66769  10.616   7.280   8.107
88332SOL    HW166770  10.630   7.367   8.144
88332SOL    HW266771  10.551   7.239   8.165
88333SOL     OW66772   6.348   7.444   6.979
88333SOL    HW166773   6.386   7.384   6.915
88333SOL    HW266774   6.400   7.432   7.058
88334SOL     OW66775   0.040   5.511   7.212
88334SOL    HW166776  14.864   5.433   7.203
88334SOL    HW266777   0.026   5.540   7.302
88335SOL     OW66778   3.897  13.376   1.785
88335SOL    HW166779   3.972  13.416   1.828
88335SOL    HW266780   3.900  13.284   1.812
88336SOL     OW66781   6.973   2.140   4.643
88336SOL    HW166782   6.955   2.058   4.690
88336SOL    HW266783   6.958   2.209   4.708
88337SOL     OW66784   7.331   2.927   4.793
88337SOL    HW166785   7.412   2.889   4.761
88337SOL    HW266786   7.354   3.017   4.817
88338SOL     OW66787   7.001   3.960  12.620
88338SOL    HW166788   7.053   3.895  12.574
88338SOL    HW266789   6.969   3.914  12.698
88339SOL     OW66790  14.185   2.826   8.968
88339SOL    HW166791  14.149   2.802   8.882
88339SOL    HW266792  14.117   2.802   9.030
88340SOL     OW66793  13.521   8.608   5.410
88340SOL    HW166794  13.590   8.578   5.350
88340SOL    HW266795  13.565   8.666   5.470
88341SOL     OW66796   3.409  12.737   8.838
88341SOL    HW166797   3.409  12.655   8.887
88341SOL    HW266798   3.440  12.803   8.901
88342SOL     OW66799   6.186   8.637   2.690
88342SOL    HW166800   6.230   8.718   2.665
88342SOL    HW266801   6.239   8.602   2.761
88343SOL     OW66802  14.805  11.669   4.665
88343SOL    HW166803  14.837  11.759   4.657
88343SOL    HW266804  14.711  11.677   4.676
88344SOL     OW66805   9.965   3.089   8.847
88344SOL    HW166806  10.015   3.159   8.889
88344SOL    HW266807  10.029   3.020   8.830
88345SOL     OW66808   5.739   2.393   0.777
88345SOL    HW166809   5.693   2.310   0.781
88345SOL    HW266810   5.678   2.456   0.817
88346SOL     OW66811  11.119  13.038   9.354
88346SOL    HW166812  11.129  13.049   9.448
88346SOL    HW266813  11.024  13.032   9.340
88347SOL     OW66814   4.051   9.471  12.286
88347SOL    HW166815   4.052   9.474  12.381
88347SOL    HW266816   3.971   9.517  12.261
88348SOL     OW66817   8.010   4.206   2.099
88348SOL    HW166818   8.051   4.208   2.185
88348SOL    HW266819   7.917   4.222   2.115
88349SOL     OW66820  10.027   6.879   1.797
88349SOL    HW166821  10.102   6.934   1.772
88349SOL    HW266822   9.988   6.925   1.872
88350SOL     OW66823  11.468  11.039   3.943
88350SOL    HW166824  11.463  11.116   3.886
88350SOL    HW266825  11.382  10.998   3.936
88351SOL     OW66826   7.563   4.051   9.663
88351SOL    HW166827   7.649   4.087   9.643
88351SOL    HW266828   7.569   3.959   9.638
88352SOL     OW66829   1.490   2.960   5.840
88352SOL    HW166830   1.412   2.954   5.896
88352SOL    HW266831   1.534   2.876   5.852
88353SOL     OW66832   7.650   7.322  10.539
88353SOL    HW166833   7.586   7.283  10.480
88353SOL    HW266834   7.735   7.302  10.498
88354SOL     OW66835   4.717   4.627   1.520
88354SOL    HW166836   4.628   4.600   1.495
88354SOL    HW266837   4.766   4.545   1.528
88355SOL     OW66838  10.323   4.872  13.508
88355SOL    HW166839  10.227   4.880  13.509
88355SOL    HW266840  10.348   4.882  13.600
88356SOL     OW66841   7.345  12.308   6.920
88356SOL    HW166842   7.432  12.302   6.881
88356SOL    HW266843   7.361  12.314   7.015
88357SOL     OW66844   3.060   8.462   4.078
88357SOL    HW166845   3.137   8.451   4.021
88357SOL    HW266846   2.992   8.496   4.020
88358SOL     OW66847  14.730   6.974   0.230
88358SOL    HW166848  14.734   7.057   0.181
88358SOL    HW266849  14.814   6.933   0.213
88359SOL     OW66850   8.067   4.409   9.745
88359SOL    HW166851   8.026   4.495   9.739
88359SOL    HW266852   8.031   4.371   9.826
88360SOL     OW66853   7.037   3.084   3.697
88360SOL    HW166854   7.095   3.159   3.708
88360SOL    HW266855   7.094   3.014   3.666
88361SOL     OW66856   0.641   2.650   6.421
88361SOL    HW166857   0.619   2.721   6.482
88361SOL    HW266858   0.735   2.657   6.410
88362SOL     OW66859  14.858  14.782   6.837
88362SOL    HW166860  14.815  14.806   6.755
88362SOL    HW266861   0.071  14.767   6.813
88363SOL     OW66862  10.187   1.487  13.906
88363SOL    HW166863  10.167   1.575  13.874
88363SOL    HW266864  10.251   1.453  13.844
88364SOL     OW66865   3.079   5.430   3.327
88364SOL    HW166866   3.014   5.429   3.397
88364SOL    HW266867   3.162   5.449   3.371
88365SOL     OW66868   1.764   3.268   4.575
88365SOL    HW166869   1.675   3.262   4.607
88365SOL    HW266870   1.767   3.206   4.501
88366SOL     OW66871  12.286   8.135   3.251
88366SOL    HW166872  12.192   8.138   3.265
88366SOL    HW266873  12.296   8.112   3.159
88367SOL     OW66874   9.275   4.249   1.456
88367SOL    HW166875   9.312   4.171   1.496
88367SOL    HW266876   9.236   4.218   1.374
88368SOL     OW66877   3.132  14.060   8.967
88368SOL    HW166878   3.131  13.967   8.945
88368SOL    HW266879   3.062  14.098   8.915
88369SOL     OW66880   7.415  11.200   9.872
88369SOL    HW166881   7.341  11.203   9.933
88369SOL    HW266882   7.479  11.143   9.916
88370SOL     OW66883   0.627   9.062  14.337
88370SOL    HW166884   0.602   9.103  14.254
88370SOL    HW266885   0.566   8.988  14.346
88371SOL     OW66886   7.635   0.999  10.771
88371SOL    HW166887   7.554   1.003  10.720
88371SOL    HW266888   7.637   1.082  10.819
88372SOL     OW66889  14.636  10.540  14.857
88372SOL    HW166890  14.626  10.625   0.023
88372SOL    HW266891  14.709  10.498   0.024
88373SOL     OW66892  14.633   3.541   6.992
88373SOL    HW166893  14.671   3.628   7.005
88373SOL    HW266894  14.540   3.556   6.981
88374SOL     OW66895  14.467   0.881  13.475
88374SOL    HW166896  14.438   0.897  13.565
88374SOL    HW266897  14.388   0.894  13.422
88375SOL     OW66898  14.167   8.985   4.216
88375SOL    HW166899  14.236   8.925   4.187
88375SOL    HW266900  14.087   8.932   4.216
88376SOL     OW66901   6.062  13.667   9.335
88376SOL    HW166902   6.025  13.582   9.311
88376SOL    HW266903   6.144  13.646   9.381
88377SOL     OW66904  10.047   1.170   2.291
88377SOL    HW166905  10.070   1.229   2.363
88377SOL    HW266906  10.066   1.083   2.325
88378SOL     OW66907   5.975  10.495   5.212
88378SOL    HW166908   6.049  10.526   5.264
88378SOL    HW266909   5.910  10.566   5.220
88379SOL     OW66910   9.400   2.836   7.256
88379SOL    HW166911   9.307   2.854   7.244
88379SOL    HW266912   9.410   2.819   7.349
88380SOL     OW66913  13.009   4.178   3.286
88380SOL    HW166914  12.950   4.133   3.226
88380SOL    HW266915  13.078   4.214   3.230
88381SOL     OW66916   9.468   2.504   3.522
88381SOL    HW166917   9.454   2.414   3.490
88381SOL    HW266918   9.452   2.559   3.446
88382SOL     OW66919  13.348   8.217   6.237
88382SOL    HW166920  13.370   8.284   6.302
88382SOL    HW266921  13.253   8.223   6.228
88383SOL     OW66922   6.228   3.175  11.005
88383SOL    HW166923   6.224   3.242  10.937
88383SOL    HW266924   6.205   3.222  11.086
88384SOL     OW66925   3.921  11.293  11.350
88384SOL    HW166926   3.903  11.367  11.293
88384SOL    HW266927   3.945  11.333  11.434
88385SOL     OW66928  13.020   3.106   5.314
88385SOL    HW166929  13.097   3.054   5.337
88385SOL    HW266930  13.043   3.196   5.339
88386SOL     OW66931  14.864   3.456  12.865
88386SOL    HW166932  14.842   3.549  12.875
88386SOL    HW266933  14.829   3.414  12.943
88387SOL     OW66934   2.508   8.237   1.209
88387SOL    HW166935   2.560   8.317   1.211
88387SOL    HW266936   2.549   8.183   1.142
88388SOL     OW66937   1.851   6.141   3.061
88388SOL    HW166938   1.764   6.160   3.026
88388SOL    HW266939   1.877   6.060   3.017
88389SOL     OW66940   2.743  13.468  12.959
88389SOL    HW166941   2.758  13.540  12.897
88389SOL    HW266942   2.772  13.390  12.912
88390SOL     OW66943   1.886   8.204   1.100
88390SOL    HW166944   1.819   8.173   1.160
88390SOL    HW266945   1.968   8.197   1.149
88391SOL     OW66946  11.353  10.041  10.990
88391SOL    HW166947  11.431  10.093  11.007
88391SOL    HW266948  11.332  10.058  10.898
88392SOL     OW66949   3.250   1.224  13.237
88392SOL    HW166950   3.184   1.230  13.168
88392SOL    HW266951   3.277   1.132  13.237
88393SOL     OW66952   8.338   1.226   0.216
88393SOL    HW166953   8.281   1.206   0.142
88393SOL    HW266954   8.351   1.321   0.211
88394SOL     OW66955   8.024   8.338   7.882
88394SOL    HW166956   8.118   8.355   7.878
88394SOL    HW266957   7.998   8.369   7.968
88395SOL     OW66958  13.042   6.732   8.314
88395SOL    HW166959  13.027   6.822   8.285
88395SOL    HW266960  12.991   6.724   8.395
88396SOL     OW66961   7.160   2.004   0.523
88396SOL    HW166962   7.143   1.982   0.615
88396SOL    HW266963   7.215   2.082   0.527
88397SOL     OW66964  14.485   0.869   3.084
88397SOL    HW166965  14.526   0.783   3.070
88397SOL    HW266966  14.538   0.908   3.153
88398SOL     OW66967   4.295   3.212  11.120
88398SOL    HW166968   4.359   3.243  11.056
88398SOL    HW266969   4.248   3.142  11.075
88399SOL     OW66970  14.164  12.825   4.656
88399SOL    HW166971  14.224  12.848   4.584
88399SOL    HW266972  14.135  12.737   4.636
88400SOL     OW66973   9.537   5.951   9.078
88400SOL    HW166974   9.446   5.924   9.092
88400SOL    HW266975   9.565   5.899   9.002
88401SOL     OW66976  10.894   5.770   9.238
88401SOL    HW166977  10.827   5.730   9.183
88401SOL    HW266978  10.955   5.811   9.175
88402SOL     OW66979   6.393   4.616   5.782
88402SOL    HW166980   6.450   4.691   5.764
88402SOL    HW266981   6.375   4.579   5.696
88403SOL     OW66982  12.630  12.510  10.376
88403SOL    HW166983  12.545  12.553  10.388
88403SOL    HW266984  12.621  12.461  10.295
88404SOL     OW66985   2.702   8.877  10.036
88404SOL    HW166986   2.613   8.881  10.070
88404SOL    HW266987   2.754   8.928  10.098
88405SOL     OW66988   0.741   6.355  10.588
88405SOL    HW166989   0.696   6.398  10.661
88405SOL    HW266990   0.829   6.393  10.588
88406SOL     OW66991  10.075   2.032  12.541
88406SOL    HW166992  10.045   1.947  12.511
88406SOL    HW266993  10.003   2.092  12.521
88407SOL     OW66994   3.041   3.258   6.070
88407SOL    HW166995   3.081   3.178   6.102
88407SOL    HW266996   2.949   3.235   6.056
88408SOL     OW66997   4.742   3.316   3.417
88408SOL    HW166998   4.670   3.323   3.480
88408SOL    HW266999   4.804   3.384   3.443
88409SOL     OW67000   2.673   9.770   3.143
88409SOL    HW167001   2.713   9.767   3.057
88409SOL    HW267002   2.598   9.711   3.137
88410SOL     OW67003   9.783  11.152   8.948
88410SOL    HW167004   9.767  11.197   9.031
88410SOL    HW267005   9.878  11.138   8.946
88411SOL     OW67006   7.594  13.288   1.440
88411SOL    HW167007   7.690  13.290   1.447
88411SOL    HW267008   7.578  13.258   1.350
88412SOL     OW67009   8.339   8.147  12.657
88412SOL    HW167010   8.360   8.110  12.571
88412SOL    HW267011   8.273   8.213  12.639
88413SOL     OW67012   8.603   1.885   1.098
88413SOL    HW167013   8.618   1.912   1.189
88413SOL    HW267014   8.509   1.870   1.093
88414SOL     OW67015  10.662   0.353   0.247
88414SOL    HW167016  10.661   0.431   0.191
88414SOL    HW267017  10.718   0.291   0.200
88415SOL     OW67018   5.282   0.299   3.583
88415SOL    HW167019   5.376   0.299   3.599
88415SOL    HW267020   5.242   0.308   3.669
88416SOL     OW67021  10.613   7.648  14.586
88416SOL    HW167022  10.606   7.560  14.624
88416SOL    HW267023  10.678   7.639  14.517
88417SOL     OW67024   9.909   3.709  11.129
88417SOL    HW167025   9.847   3.690  11.058
88417SOL    HW267026   9.889   3.799  11.155
88418SOL     OW67027   2.431   4.783  12.531
88418SOL    HW167028   2.359   4.838  12.563
88418SOL    HW267029   2.388   4.722  12.471
88419SOL     OW67030   9.706   9.860   3.057
88419SOL    HW167031   9.765   9.852   2.981
88419SOL    HW267032   9.641   9.791   3.044
88420SOL     OW67033   5.758  13.415   1.514
88420SOL    HW167034   5.801  13.343   1.469
88420SOL    HW267035   5.820  13.441   1.583
88421SOL     OW67036   5.478  14.609   9.015
88421SOL    HW167037   5.470  14.566   8.930
88421SOL    HW267038   5.527  14.547   9.069
88422SOL     OW67039  10.020   6.894   2.963
88422SOL    HW167040  10.086   6.961   2.946
88422SOL    HW267041  10.032   6.830   2.893
88423SOL     OW67042   3.552   4.234   1.874
88423SOL    HW167043   3.565   4.153   1.824
88423SOL    HW267044   3.640   4.261   1.899
88424SOL     OW67045  11.320   7.298  10.390
88424SOL    HW167046  11.412   7.298  10.418
88424SOL    HW267047  11.323   7.280  10.296
88425SOL     OW67048   2.948  10.733  11.129
88425SOL    HW167049   2.972  10.795  11.060
88425SOL    HW267050   3.023  10.673  11.135
88426SOL     OW67051   6.848   6.173  12.173
88426SOL    HW167052   6.846   6.268  12.186
88426SOL    HW267053   6.940   6.153  12.155
88427SOL     OW67054   5.411   0.656   2.297
88427SOL    HW167055   5.389   0.596   2.368
88427SOL    HW267056   5.414   0.600   2.219
88428SOL     OW67057   1.826   3.980   8.633
88428SOL    HW167058   1.777   4.037   8.693
88428SOL    HW267059   1.775   3.981   8.552
88429SOL     OW67060  12.557   3.416   6.097
88429SOL    HW167061  12.646   3.403   6.132
88429SOL    HW267062  12.519   3.483   6.154
88430SOL     OW67063   3.915  14.449  11.286
88430SOL    HW167064   3.963  14.515  11.237
88430SOL    HW267065   3.873  14.395  11.219
88431SOL     OW67066   4.605   1.523   7.833
88431SOL    HW167067   4.655   1.444   7.850
88431SOL    HW267068   4.640   1.587   7.895
88432SOL     OW67069  13.266   4.585   2.914
88432SOL    HW167070  13.354   4.569   2.948
88432SOL    HW267071  13.279   4.597   2.820
88433SOL     OW67072   9.481  14.364   6.044
88433SOL    HW167073   9.495  14.420   6.121
88433SOL    HW267074   9.566  14.323   6.028
88434SOL     OW67075   0.377   5.071   3.405
88434SOL    HW167076   0.434   5.125   3.459
88434SOL    HW267077   0.298   5.059   3.458
88435SOL     OW67078  14.639  11.689   9.269
88435SOL    HW167079  14.589  11.609   9.252
88435SOL    HW267080  14.682  11.709   9.186
88436SOL     OW67081   2.608   3.501   3.073
88436SOL    HW167082   2.702   3.492   3.084
88436SOL    HW267083   2.580   3.415   3.040
88437SOL     OW67084  10.483  12.575  13.082
88437SOL    HW167085  10.554  12.520  13.116
88437SOL    HW267086  10.525  12.628  13.014
88438SOL     OW67087  14.132  12.499   0.185
88438SOL    HW167088  14.192  12.429   0.211
88438SOL    HW267089  14.053  12.454   0.157
88439SOL     OW67090   2.723   6.182  14.711
88439SOL    HW167091   2.654   6.116  14.717
88439SOL    HW267092   2.679   6.260  14.677
88440SOL     OW67093   1.595   0.879   3.730
88440SOL    HW167094   1.551   0.933   3.666
88440SOL    HW267095   1.552   0.794   3.724
88441SOL     OW67096   3.737   0.134   3.686
88441SOL    HW167097   3.710   0.204   3.746
88441SOL    HW267098   3.801   0.175   3.628
88442SOL     OW67099   3.148   2.487   1.760
88442SOL    HW167100   3.070   2.438   1.732
88442SOL    HW267101   3.162   2.459   1.850
88443SOL     OW67102   0.585   8.881  10.306
88443SOL    HW167103   0.531   8.812  10.268
88443SOL    HW267104   0.583   8.951  10.241
88444SOL     OW67105   1.112   4.624   5.746
88444SOL    HW167106   1.138   4.709   5.709
88444SOL    HW267107   1.120   4.563   5.673
88445SOL     OW67108  11.879  11.257  14.741
88445SOL    HW167109  11.866  11.242  14.835
88445SOL    HW267110  11.888  11.351  14.732
88446SOL     OW67111   1.852  13.816   0.547
88446SOL    HW167112   1.896  13.891   0.507
88446SOL    HW267113   1.825  13.761   0.473
88447SOL     OW67114  12.789   1.893  10.787
88447SOL    HW167115  12.834   1.880  10.704
88447SOL    HW267116  12.697   1.872  10.769
88448SOL     OW67117   3.597   1.317   4.929
88448SOL    HW167118   3.678   1.363   4.910
88448SOL    HW267119   3.535   1.348   4.862
88449SOL     OW67120   9.520  12.425   1.231
88449SOL    HW167121   9.443  12.434   1.287
88449SOL    HW267122   9.578  12.367   1.280
88450SOL     OW67123  13.502   7.689  14.805
88450SOL    HW167124  13.451   7.763  14.837
88450SOL    HW267125  13.515   7.634   0.004
88451SOL     OW67126   5.197  10.653   0.469
88451SOL    HW167127   5.116  10.660   0.418
88451SOL    HW267128   5.197  10.564   0.503
88452SOL     OW67129   5.875   6.327  12.490
88452SOL    HW167130   5.839   6.256  12.436
88452SOL    HW267131   5.807   6.345  12.555
88453SOL     OW67132   4.416  13.632   4.179
88453SOL    HW167133   4.390  13.715   4.137
88453SOL    HW267134   4.396  13.645   4.271
88454SOL     OW67135   8.764   1.281   8.829
88454SOL    HW167136   8.805   1.203   8.866
88454SOL    HW267137   8.670   1.270   8.849
88455SOL     OW67138   0.137   5.912   4.589
88455SOL    HW167139   0.122   5.817   4.590
88455SOL    HW267140   0.063   5.949   4.636
88456SOL     OW67141   2.102   6.379   5.050
88456SOL    HW167142   2.037   6.356   4.985
88456SOL    HW267143   2.154   6.448   5.009
88457SOL     OW67144  12.308   2.259   5.164
88457SOL    HW167145  12.353   2.310   5.230
88457SOL    HW267146  12.349   2.286   5.081
88458SOL     OW67147   2.641   7.785   6.514
88458SOL    HW167148   2.701   7.710   6.507
88458SOL    HW267149   2.573   7.756   6.575
88459SOL     OW67150   8.706  11.626  13.938
88459SOL    HW167151   8.647  11.696  13.967
88459SOL    HW267152   8.776  11.625  14.004
88460SOL     OW67153   7.291  13.782  13.398
88460SOL    HW167154   7.368  13.817  13.441
88460SOL    HW267155   7.229  13.855  13.397
88461SOL     OW67156  11.146   4.987  10.343
88461SOL    HW167157  11.108   4.935  10.272
88461SOL    HW267158  11.125   5.078  10.320
88462SOL     OW67159  14.130   9.766  12.033
88462SOL    HW167160  14.114   9.707  12.107
88462SOL    HW267161  14.145   9.851  12.074
88463SOL     OW67162   5.112   8.072  11.831
88463SOL    HW167163   5.141   8.005  11.894
88463SOL    HW267164   5.018   8.083  11.850
88464SOL     OW67165   6.101  12.028  10.860
88464SOL    HW167166   6.103  12.105  10.803
88464SOL    HW267167   6.151  11.962  10.813
88465SOL     OW67168  11.679   8.011  12.919
88465SOL    HW167169  11.662   8.105  12.919
88465SOL    HW267170  11.725   7.995  13.002
88466SOL     OW67171   7.181   6.635   1.117
88466SOL    HW167172   7.088   6.612   1.122
88466SOL    HW267173   7.199   6.644   1.024
88467SOL     OW67174   8.706   7.833   2.630
88467SOL    HW167175   8.769   7.904   2.641
88467SOL    HW267176   8.671   7.818   2.718
88468SOL     OW67177  10.565   7.654   8.782
88468SOL    HW167178  10.508   7.709   8.836
88468SOL    HW267179  10.617   7.603   8.845
88469SOL     OW67180   1.395   4.172  11.570
88469SOL    HW167181   1.377   4.086  11.532
88469SOL    HW267182   1.463   4.156  11.636
88470SOL     OW67183   6.850   4.822   9.041
88470SOL    HW167184   6.828   4.895   9.098
88470SOL    HW267185   6.946   4.819   9.043
88471SOL     OW67186  10.881   4.785  14.466
88471SOL    HW167187  10.913   4.872  14.489
88471SOL    HW267188  10.876   4.785  14.371
88472SOL     OW67189   8.988   0.737  10.921
88472SOL    HW167190   8.919   0.728  10.856
88472SOL    HW267191   9.069   0.733  10.871
88473SOL     OW67192   8.341   7.949   0.844
88473SOL    HW167193   8.397   8.012   0.797
88473SOL    HW267194   8.364   7.864   0.807
88474SOL     OW67195   9.502   0.719   2.551
88474SOL    HW167196   9.544   0.638   2.580
88474SOL    HW267197   9.417   0.719   2.594
88475SOL     OW67198   8.744  10.097  14.777
88475SOL    HW167199   8.684  10.026  14.800
88475SOL    HW267200   8.823  10.052  14.746
88476SOL     OW67201   6.445  13.625  10.928
88476SOL    HW167202   6.522  13.572  10.908
88476SOL    HW267203   6.476  13.716  10.920
88477SOL     OW67204  14.769   2.731   6.099
88477SOL    HW167205  14.857   2.706   6.128
88477SOL    HW267206  14.764   2.825   6.116
88478SOL     OW67207   0.699  14.009   9.963
88478SOL    HW167208   0.787  14.031   9.933
88478SOL    HW267209   0.642  14.036   9.891
88479SOL     OW67210   6.291  13.232   0.424
88479SOL    HW167211   6.373  13.257   0.382
88479SOL    HW267212   6.288  13.284   0.504
88480SOL     OW67213   4.024  11.728   3.751
88480SOL    HW167214   4.073  11.777   3.686
88480SOL    HW267215   4.017  11.640   3.714
88481SOL     OW67216   5.638  11.370   7.457
88481SOL    HW167217   5.657  11.335   7.370
88481SOL    HW267218   5.550  11.407   7.449
88482SOL     OW67219  14.369   0.823  12.367
88482SOL    HW167220  14.321   0.829  12.284
88482SOL    HW267221  14.431   0.895  12.364
88483SOL     OW67222   6.321   6.194  10.329
88483SOL    HW167223   6.404   6.235  10.305
88483SOL    HW267224   6.259   6.266  10.336
88484SOL     OW67225   6.657  11.651   6.179
88484SOL    HW167226   6.675  11.741   6.154
88484SOL    HW267227   6.699  11.640   6.264
88485SOL     OW67228   3.160   5.847   3.943
88485SOL    HW167229   3.169   5.913   4.012
88485SOL    HW267230   3.169   5.895   3.861
88486SOL     OW67231  10.244   0.640   8.971
88486SOL    HW167232  10.217   0.727   9.001
88486SOL    HW267233  10.264   0.652   8.878
88487SOL     OW67234   9.914   9.345   6.116
88487SOL    HW167235   9.862   9.426   6.119
88487SOL    HW267236   9.859   9.279   6.157
88488SOL     OW67237   8.072  10.026  13.921
88488SOL    HW167238   8.068  10.095  13.987
88488SOL    HW267239   8.019   9.956  13.958
88489SOL     OW67240   7.051   3.742   1.645
88489SOL    HW167241   6.999   3.822   1.651
88489SOL    HW267242   7.061   3.726   1.551
88490SOL     OW67243  12.697  12.832  10.240
88490SOL    HW167244  12.709  12.873  10.154
88490SOL    HW267245  12.675  12.741  10.220
88491SOL     OW67246   2.417   8.387  11.437
88491SOL    HW167247   2.481   8.363  11.503
88491SOL    HW267248   2.424   8.482  11.429
88492SOL     OW67249  10.863   1.332   9.723
88492SOL    HW167250  10.799   1.398   9.749
88492SOL    HW267251  10.835   1.252   9.767
88493SOL     OW67252  10.608   8.815  13.847
88493SOL    HW167253  10.543   8.855  13.906
88493SOL    HW267254  10.647   8.744  13.899
88494SOL     OW67255  12.046  13.227   8.367
88494SOL    HW167256  12.023  13.141   8.402
88494SOL    HW267257  12.122  13.254   8.418
88495SOL     OW67258   3.268  13.581   9.034
88495SOL    HW167259   3.206  13.519   9.074
88495SOL    HW267260   3.311  13.623   9.108
88496SOL     OW67261  11.485   5.483  10.097
88496SOL    HW167262  11.543   5.475  10.173
88496SOL    HW267263  11.542   5.517  10.028
88497SOL     OW67264  11.172   2.959   0.524
88497SOL    HW167265  11.265   2.966   0.505
88497SOL    HW267266  11.161   3.003   0.609
88498SOL     OW67267  10.333   2.442   4.065
88498SOL    HW167268  10.392   2.381   4.111
88498SOL    HW267269  10.326   2.517   4.125
88499SOL     OW67270   7.601  13.663   8.940
88499SOL    HW167271   7.603  13.570   8.961
88499SOL    HW267272   7.511  13.690   8.958
88500SOL     OW67273   5.678   3.402  13.856
88500SOL    HW167274   5.707   3.437  13.772
88500SOL    HW267275   5.676   3.307  13.843
88501SOL     OW67276   9.799  13.267   5.336
88501SOL    HW167277   9.846  13.237   5.414
88501SOL    HW267278   9.711  13.286   5.368
88502SOL     OW67279   0.555   7.280   2.009
88502SOL    HW167280   0.559   7.371   1.980
88502SOL    HW267281   0.462   7.264   2.026
88503SOL     OW67282   3.369  12.011   4.352
88503SOL    HW167283   3.409  12.098   4.356
88503SOL    HW267284   3.275  12.028   4.351
88504SOL     OW67285   2.062   2.207   1.427
88504SOL    HW167286   2.107   2.200   1.512
88504SOL    HW267287   2.043   2.300   1.418
88505SOL     OW67288   0.334   2.132  12.711
88505SOL    HW167289   0.323   2.096  12.622
88505SOL    HW267290   0.270   2.203  12.715
88506SOL     OW67291   1.197  14.596   4.267
88506SOL    HW167292   1.144  14.672   4.245
88506SOL    HW267293   1.275  14.632   4.309
88507SOL     OW67294   9.113   6.128  13.624
88507SOL    HW167295   9.161   6.080  13.557
88507SOL    HW267296   9.169   6.202  13.646
88508SOL     OW67297   4.549  11.613   3.103
88508SOL    HW167298   4.607  11.639   3.175
88508SOL    HW267299   4.481  11.561   3.144
88509SOL     OW67300   3.464   2.619  14.516
88509SOL    HW167301   3.399   2.653  14.455
88509SOL    HW267302   3.462   2.525  14.503
88510SOL     OW67303   8.002  10.243  12.799
88510SOL    HW167304   8.006  10.212  12.709
88510SOL    HW267305   7.930  10.194  12.838
88511SOL     OW67306  11.673  10.837   9.470
88511SOL    HW167307  11.644  10.798   9.387
88511SOL    HW267308  11.666  10.765   9.533
88512SOL     OW67309   5.374   4.896   0.858
88512SOL    HW167310   5.300   4.859   0.810
88512SOL    HW267311   5.409   4.823   0.909
88513SOL     OW67312   8.372   9.799   9.305
88513SOL    HW167313   8.341   9.888   9.286
88513SOL    HW267314   8.429   9.810   9.381
88514SOL     OW67315  14.317   7.653  14.054
88514SOL    HW167316  14.339   7.611  14.137
88514SOL    HW267317  14.232   7.616  14.030
88515SOL     OW67318   0.259   3.363   9.181
88515SOL    HW167319   0.226   3.367   9.091
88515SOL    HW267320   0.296   3.450   9.197
88516SOL     OW67321   6.756   1.518   0.771
88516SOL    HW167322   6.697   1.487   0.703
88516SOL    HW267323   6.786   1.604   0.740
88517SOL     OW67324  12.561   5.126   3.642
88517SOL    HW167325  12.621   5.097   3.573
88517SOL    HW267326  12.508   5.195   3.601
88518SOL     OW67327  12.359   2.992  11.334
88518SOL    HW167328  12.371   3.002  11.428
88518SOL    HW267329  12.378   3.079  11.298
88519SOL     OW67330   2.889   9.226   7.575
88519SOL    HW167331   2.945   9.272   7.636
88519SOL    HW267332   2.804   9.270   7.582
88520SOL     OW67333  11.122   4.037   0.701
88520SOL    HW167334  11.089   3.989   0.778
88520SOL    HW267335  11.058   4.107   0.687
88521SOL     OW67336   4.590   2.298   5.567
88521SOL    HW167337   4.502   2.275   5.537
88521SOL    HW267338   4.638   2.320   5.487
88522SOL     OW67339   1.444   5.857   5.938
88522SOL    HW167340   1.457   5.948   5.967
88522SOL    HW267341   1.349   5.843   5.944
88523SOL     OW67342   0.676  14.014   8.025
88523SOL    HW167343   0.769  13.997   8.013
88523SOL    HW267344   0.662  14.102   7.989
88524SOL     OW67345   4.559   4.718  12.094
88524SOL    HW167346   4.568   4.763  12.010
88524SOL    HW267347   4.564   4.787  12.160
88525SOL     OW67348   8.882   1.619  12.715
88525SOL    HW167349   8.835   1.697  12.743
88525SOL    HW267350   8.911   1.578  12.796
88526SOL     OW67351   0.024   2.059   7.641
88526SOL    HW167352   0.090   1.998   7.673
88526SOL    HW267353  14.830   2.051   7.704
88527SOL     OW67354   9.211  12.000   8.882
88527SOL    HW167355   9.245  12.001   8.972
88527SOL    HW267356   9.277  12.048   8.831
88528SOL     OW67357  12.283   8.787  14.438
88528SOL    HW167358  12.292   8.812  14.346
88528SOL    HW267359  12.372   8.765  14.466
88529SOL     OW67360   6.603  13.851   4.948
88529SOL    HW167361   6.632  13.825   4.860
88529SOL    HW267362   6.527  13.908   4.932
88530SOL     OW67363  10.078   8.373   0.376
88530SOL    HW167364  10.153   8.314   0.373
88530SOL    HW267365  10.017   8.337   0.312
88531SOL     OW67366   0.397   3.489  11.301
88531SOL    HW167367   0.481   3.497  11.256
88531SOL    HW267368   0.341   3.554  11.257
88532SOL     OW67369  14.813   5.936  13.692
88532SOL    HW167370  14.730   5.890  13.685
88532SOL    HW267371  14.871   5.874  13.738
88533SOL     OW67372   8.634  12.330   1.009
88533SOL    HW167373   8.648  12.281   0.928
88533SOL    HW267374   8.720  12.366   1.030
88534SOL     OW67375   6.750   9.133  12.823
88534SOL    HW167376   6.781   9.092  12.742
88534SOL    HW267377   6.737   9.059  12.883
88535SOL     OW67378  10.490  13.530   2.743
88535SOL    HW167379  10.503  13.624   2.728
88535SOL    HW267380  10.469  13.523   2.836
88536SOL     OW67381   9.833   8.064   4.492
88536SOL    HW167382   9.854   8.021   4.575
88536SOL    HW267383   9.912   8.113   4.470
88537SOL     OW67384   5.755   8.909  12.002
88537SOL    HW167385   5.843   8.938  12.025
88537SOL    HW267386   5.743   8.827  12.051
88538SOL     OW67387  13.703  11.367  12.268
88538SOL    HW167388  13.617  11.359  12.227
88538SOL    HW267389  13.744  11.281  12.254
88539SOL     OW67390   5.106   3.785  13.651
88539SOL    HW167391   5.046   3.793  13.725
88539SOL    HW267392   5.051   3.750  13.580
88540SOL     OW67393   6.692   1.076  10.680
88540SOL    HW167394   6.761   1.083  10.615
88540SOL    HW267395   6.723   1.009  10.741
88541SOL     OW67396   7.595   2.824   9.989
88541SOL    HW167397   7.590   2.786   9.901
88541SOL    HW267398   7.511   2.800  10.029
88542SOL     OW67399   1.069  14.167  13.143
88542SOL    HW167400   1.103  14.087  13.183
88542SOL    HW267401   1.045  14.222  13.217
88543SOL     OW67402   1.169   4.704   1.749
88543SOL    HW167403   1.184   4.629   1.691
88543SOL    HW267404   1.254   4.719   1.791
88544SOL     OW67405   8.779   9.923  14.529
88544SOL    HW167406   8.829   9.991  14.483
88544SOL    HW267407   8.845   9.873  14.577
88545SOL     OW67408   3.824  11.981  14.045
88545SOL    HW167409   3.835  11.908  13.985
88545SOL    HW267410   3.891  12.045  14.020
88546SOL     OW67411  12.453   6.781   0.570
88546SOL    HW167412  12.435   6.823   0.654
88546SOL    HW267413  12.544   6.752   0.577
88547SOL     OW67414   4.934   1.238   5.045
88547SOL    HW167415   4.889   1.309   4.999
88547SOL    HW267416   5.006   1.282   5.091
88548SOL     OW67417   6.450   9.794   6.712
88548SOL    HW167418   6.366   9.772   6.671
88548SOL    HW267419   6.434   9.878   6.756
88549SOL     OW67420   8.161  13.249  12.719
88549SOL    HW167421   8.145  13.303  12.796
88549SOL    HW267422   8.183  13.311  12.650
88550SOL     OW67423  10.834   6.738   8.418
88550SOL    HW167424  10.781   6.810   8.383
88550SOL    HW267425  10.774   6.688   8.473
88551SOL     OW67426   5.407  14.577  10.950
88551SOL    HW167427   5.437  14.525  10.876
88551SOL    HW267428   5.404  14.516  11.023
88552SOL     OW67429  11.885  12.392  10.448
88552SOL    HW167430  11.909  12.299  10.452
88552SOL    HW267431  11.898  12.416  10.357
88553SOL     OW67432   5.073   8.347   5.624
88553SOL    HW167433   5.127   8.425   5.636
88553SOL    HW267434   5.028   8.363   5.541
88554SOL     OW67435   9.889  14.503   0.878
88554SOL    HW167436   9.909  14.412   0.900
88554SOL    HW267437   9.950  14.525   0.808
88555SOL     OW67438   0.547   2.132   6.722
88555SOL    HW167439   0.467   2.080   6.720
88555SOL    HW267440   0.606   2.085   6.780
88556SOL     OW67441   7.498  11.140  14.356
88556SOL    HW167442   7.416  11.112  14.316
88556SOL    HW267443   7.536  11.059  14.390
88557SOL     OW67444   4.451   0.380  11.996
88557SOL    HW167445   4.447   0.457  11.939
88557SOL    HW267446   4.481   0.309  11.939
88558SOL     OW67447   4.852   7.234   2.821
88558SOL    HW167448   4.828   7.150   2.783
88558SOL    HW267449   4.811   7.235   2.907
88559SOL     OW67450  12.893   7.384   7.829
88559SOL    HW167451  12.969   7.385   7.770
88559SOL    HW267452  12.874   7.291   7.841
88560SOL     OW67453  11.130  13.166   5.012
88560SOL    HW167454  11.139  13.113   4.932
88560SOL    HW267455  11.061  13.122   5.062
88561SOL     OW67456   6.593   1.324   6.212
88561SOL    HW167457   6.626   1.407   6.246
88561SOL    HW267458   6.614   1.260   6.280
88562SOL     OW67459  11.367   0.904   9.191
88562SOL    HW167460  11.286   0.857   9.210
88562SOL    HW267461  11.400   0.863   9.111
88563SOL     OW67462   3.027   4.782   2.161
88563SOL    HW167463   3.033   4.863   2.213
88563SOL    HW267464   3.041   4.810   2.071
88564SOL     OW67465  12.276  13.478   2.457
88564SOL    HW167466  12.306  13.426   2.532
88564SOL    HW267467  12.180  13.475   2.463
88565SOL     OW67468   0.624   8.358  14.845
88565SOL    HW167469   0.584   8.420   0.028
88565SOL    HW267470   0.669   8.295   0.023
88566SOL     OW67471  14.860   3.162   8.286
88566SOL    HW167472  14.796   3.091   8.290
88566SOL    HW267473   0.064   3.119   8.263
88567SOL     OW67474   6.245  14.119   4.211
88567SOL    HW167475   6.201  14.056   4.268
88567SOL    HW267476   6.219  14.204   4.246
88568SOL     OW67477   5.479  10.452  11.558
88568SOL    HW167478   5.574  10.458  11.565
88568SOL    HW267479   5.447  10.470  11.646
88569SOL     OW67480   0.849   6.596  13.376
88569SOL    HW167481   0.853   6.685  13.412
88569SOL    HW267482   0.756   6.575  13.376
88570SOL     OW67483   0.724  12.536   8.011
88570SOL    HW167484   0.816  12.521   8.032
88570SOL    HW267485   0.686  12.570   8.093
88571SOL     OW67486   5.496   5.927   2.832
88571SOL    HW167487   5.498   5.889   2.744
88571SOL    HW267488   5.406   5.956   2.844
88572SOL     OW67489  12.209   6.623   4.045
88572SOL    HW167490  12.245   6.546   4.089
88572SOL    HW267491  12.114   6.615   4.056
88573SOL     OW67492   3.440   2.485   8.102
88573SOL    HW167493   3.419   2.517   8.190
88573SOL    HW267494   3.386   2.538   8.043
88574SOL     OW67495   6.080   1.886   8.565
88574SOL    HW167496   6.043   1.847   8.644
88574SOL    HW267497   6.111   1.811   8.514
88575SOL     OW67498  10.737   9.831   1.908
88575SOL    HW167499  10.713   9.911   1.862
88575SOL    HW267500  10.683   9.831   1.987
88576SOL     OW67501   9.939  11.888  13.303
88576SOL    HW167502   9.905  11.934  13.226
88576SOL    HW267503  10.022  11.849  13.273
88577SOL     OW67504  12.054   6.252   2.386
88577SOL    HW167505  12.134   6.279   2.341
88577SOL    HW267506  12.033   6.324   2.444
88578SOL     OW67507   0.679  11.585   5.802
88578SOL    HW167508   0.618  11.530   5.753
88578SOL    HW267509   0.703  11.532   5.878
88579SOL     OW67510   2.047  14.074   9.985
88579SOL    HW167511   2.002  14.152  10.016
88579SOL    HW267512   2.133  14.077  10.026
88580SOL     OW67513   7.903   3.366  13.347
88580SOL    HW167514   7.974   3.406  13.296
88580SOL    HW267515   7.944   3.289  13.388
88581SOL     OW67516   5.049   8.849  13.587
88581SOL    HW167517   5.094   8.857  13.671
88581SOL    HW267518   5.064   8.758  13.560
88582SOL     OW67519   7.443   8.764  10.375
88582SOL    HW167520   7.465   8.854  10.399
88582SOL    HW267521   7.362   8.771  10.326
88583SOL     OW67522  13.230   9.872   5.743
88583SOL    HW167523  13.302   9.864   5.680
88583SOL    HW267524  13.247   9.803   5.807
88584SOL     OW67525   6.877   8.973   6.473
88584SOL    HW167526   6.956   8.946   6.521
88584SOL    HW267527   6.871   8.911   6.401
88585SOL     OW67528   1.386   2.863  12.678
88585SOL    HW167529   1.297   2.898  12.682
88585SOL    HW267530   1.396   2.836  12.586
88586SOL     OW67531   0.132   1.255   1.676
88586SOL    HW167532   0.120   1.350   1.676
88586SOL    HW267533   0.175   1.236   1.759
88587SOL     OW67534   4.051   2.628  14.485
88587SOL    HW167535   3.990   2.663  14.420
88587SOL    HW267536   4.010   2.548  14.516
88588SOL     OW67537   0.088   1.706   2.323
88588SOL    HW167538   0.113   1.795   2.299
88588SOL    HW267539   0.101   1.654   2.244
88589SOL     OW67540   3.090   2.138   6.592
88589SOL    HW167541   3.011   2.152   6.541
88589SOL    HW267542   3.116   2.226   6.620
88590SOL     OW67543   6.352   1.037  10.701
88590SOL    HW167544   6.274   1.060  10.752
88590SOL    HW267545   6.369   1.113  10.646
88591SOL     OW67546   5.991   8.812   6.509
88591SOL    HW167547   6.035   8.896   6.493
88591SOL    HW267548   5.991   8.768   6.424
88592SOL     OW67549   8.308   8.715   0.941
88592SOL    HW167550   8.292   8.625   0.967
88592SOL    HW267551   8.223   8.759   0.953
88593SOL     OW67552  13.197  14.004   8.552
88593SOL    HW167553  13.232  14.069   8.491
88593SOL    HW267554  13.254  14.011   8.629
88594SOL     OW67555   0.577  13.096  12.944
88594SOL    HW167556   0.517  13.073  12.873
88594SOL    HW267557   0.617  13.178  12.916
88595SOL     OW67558   4.170   3.917  13.490
88595SOL    HW167559   4.126   3.980  13.546
88595SOL    HW267560   4.218   3.860  13.550
88596SOL     OW67561   1.799   7.319   6.247
88596SOL    HW167562   1.779   7.241   6.195
88596SOL    HW267563   1.771   7.297   6.335
88597SOL     OW67564  11.531   5.535   3.034
88597SOL    HW167565  11.473   5.577   2.970
88597SOL    HW267566  11.546   5.448   2.998
88598SOL     OW67567   5.283  11.429   6.420
88598SOL    HW167568   5.328  11.346   6.407
88598SOL    HW267569   5.354  11.494   6.424
88599SOL     OW67570   3.496   5.920  12.048
88599SOL    HW167571   3.430   5.938  11.982
88599SOL    HW267572   3.460   5.957  12.129
88600SOL     OW67573  10.072   1.855  10.911
88600SOL    HW167574  10.131   1.833  10.838
88600SOL    HW267575  10.097   1.944  10.935
88601SOL     OW67576   7.927  10.015   6.301
88601SOL    HW167577   8.014  10.005   6.262
88601SOL    HW267578   7.886   9.929   6.291
88602SOL     OW67579   2.379  14.416  13.942
88602SOL    HW167580   2.349  14.329  13.916
88602SOL    HW267581   2.317  14.476  13.900
88603SOL     OW67582  11.949   0.167  13.465
88603SOL    HW167583  12.044   0.163  13.478
88603SOL    HW267584  11.913   0.115  13.537
88604SOL     OW67585   3.919   5.141   8.019
88604SOL    HW167586   3.856   5.139   8.091
88604SOL    HW267587   3.945   5.233   8.012
88605SOL     OW67588  10.195   6.257   6.722
88605SOL    HW167589  10.289   6.243   6.724
88605SOL    HW267590  10.182   6.343   6.762
88606SOL     OW67591  14.167  12.629   3.394
88606SOL    HW167592  14.206  12.690   3.332
88606SOL    HW267593  14.228  12.627   3.468
88607SOL     OW67594   0.432  10.080   9.922
88607SOL    HW167595   0.363  10.145   9.938
88607SOL    HW267596   0.474  10.109   9.841
88608SOL     OW67597   6.297  12.173   7.755
88608SOL    HW167598   6.216  12.125   7.774
88608SOL    HW267599   6.340  12.122   7.686
88609SOL     OW67600   4.486   8.278  13.250
88609SOL    HW167601   4.521   8.195  13.283
88609SOL    HW267602   4.564   8.331  13.231
88610SOL     OW67603  14.195   8.456  10.231
88610SOL    HW167604  14.265   8.500  10.183
88610SOL    HW267605  14.158   8.524  10.287
88611SOL     OW67606  13.986  14.538   5.015
88611SOL    HW167607  14.078  14.529   5.040
88611SOL    HW267608  13.945  14.583   5.088
88612SOL     OW67609  12.091   1.415   9.443
88612SOL    HW167610  12.122   1.436   9.355
88612SOL    HW267611  12.032   1.340   9.430
88613SOL     OW67612   3.617   7.474   3.125
88613SOL    HW167613   3.582   7.536   3.189
88613SOL    HW267614   3.675   7.527   3.070
88614SOL     OW67615  13.953   3.321  10.715
88614SOL    HW167616  13.866   3.360  10.706
88614SOL    HW267617  14.012   3.395  10.728
88615SOL     OW67618   3.362  11.613   1.350
88615SOL    HW167619   3.371  11.636   1.442
88615SOL    HW267620   3.367  11.696   1.304
88616SOL     OW67621   6.344   2.222   3.199
88616SOL    HW167622   6.370   2.222   3.107
88616SOL    HW267623   6.268   2.280   3.203
88617SOL     OW67624   3.317  10.465   7.426
88617SOL    HW167625   3.398  10.416   7.439
88617SOL    HW267626   3.282  10.478   7.515
88618SOL     OW67627   9.538  13.768   5.584
88618SOL    HW167628   9.549  13.863   5.586
88618SOL    HW267629   9.457  13.752   5.633
88619SOL     OW67630   2.912   6.736  12.514
88619SOL    HW167631   2.881   6.769  12.599
88619SOL    HW267632   2.833   6.730  12.461
88620SOL     OW67633  11.024  11.888   4.981
88620SOL    HW167634  11.025  11.854   5.071
88620SOL    HW267635  11.035  11.811   4.926
88621SOL     OW67636   4.183   0.499   4.926
88621SOL    HW167637   4.240   0.486   5.002
88621SOL    HW267638   4.100   0.458   4.950
88622SOL     OW67639  13.713   6.874  12.974
88622SOL    HW167640  13.767   6.926  12.914
88622SOL    HW267641  13.682   6.801  12.920
88623SOL     OW67642   0.445   7.446  10.082
88623SOL    HW167643   0.473   7.493  10.161
88623SOL    HW267644   0.518   7.456  10.021
88624SOL     OW67645   0.976   7.576  12.797
88624SOL    HW167646   0.935   7.654  12.833
88624SOL    HW267647   0.926   7.557  12.718
88625SOL     OW67648  11.355   2.622   3.115
88625SOL    HW167649  11.343   2.714   3.140
88625SOL    HW267650  11.431   2.593   3.165
88626SOL     OW67651   1.363  14.076  12.715
88626SOL    HW167652   1.457  14.065  12.725
88626SOL    HW267653   1.353  14.161  12.672
88627SOL     OW67654  13.938  13.832   6.160
88627SOL    HW167655  13.959  13.771   6.230
88627SOL    HW267656  14.019  13.881   6.145
88628SOL     OW67657   1.985   6.724   8.695
88628SOL    HW167658   1.972   6.699   8.603
88628SOL    HW267659   1.973   6.819   8.695
88629SOL     OW67660   3.220   5.892   0.397
88629SOL    HW167661   3.251   5.854   0.479
88629SOL    HW267662   3.131   5.920   0.415
88630SOL     OW67663   4.307   2.221   8.780
88630SOL    HW167664   4.236   2.194   8.838
88630SOL    HW267665   4.307   2.154   8.711
88631SOL     OW67666  10.739  12.612  12.860
88631SOL    HW167667  10.734  12.695  12.813
88631SOL    HW267668  10.829  12.608  12.892
88632SOL     OW67669   2.398  13.468   7.207
88632SOL    HW167670   2.304  13.479   7.192
88632SOL    HW267671   2.405  13.439   7.298
88633SOL     OW67672  13.664  13.014   8.686
88633SOL    HW167673  13.679  13.098   8.729
88633SOL    HW267674  13.720  13.017   8.608
88634SOL     OW67675  14.055   7.831   3.062
88634SOL    HW167676  14.111   7.787   3.125
88634SOL    HW267677  13.967   7.796   3.078
88635SOL     OW67678   9.607   0.062   8.586
88635SOL    HW167679   9.644  14.866   8.538
88635SOL    HW267680   9.552   0.021   8.653
88636SOL     OW67681   7.327  12.098   4.829
88636SOL    HW167682   7.287  12.015   4.803
88636SOL    HW267683   7.393  12.116   4.761
88637SOL     OW67684   5.181   2.506   9.806
88637SOL    HW167685   5.172   2.465   9.892
88637SOL    HW267686   5.273   2.530   9.801
88638SOL     OW67687  13.727   7.387   7.951
88638SOL    HW167688  13.781   7.442   7.894
88638SOL    HW267689  13.791   7.341   8.006
88639SOL     OW67690  13.292   9.118   1.369
88639SOL    HW167691  13.265   9.087   1.282
88639SOL    HW267692  13.387   9.129   1.362
88640SOL     OW67693   4.532  13.198   2.161
88640SOL    HW167694   4.446  13.233   2.182
88640SOL    HW267695   4.594  13.257   2.205
88641SOL     OW67696  14.810  14.186   6.548
88641SOL    HW167697  14.739  14.176   6.485
88641SOL    HW267698  14.845  14.098   6.560
88642SOL     OW67699  14.735  10.495   3.145
88642SOL    HW167700  14.785  10.508   3.226
88642SOL    HW267701  14.704  10.404   3.150
88643SOL     OW67702   7.246   2.277  13.836
88643SOL    HW167703   7.305   2.350  13.855
88643SOL    HW267704   7.278   2.206  13.892
88644SOL     OW67705  10.916  12.043   5.499
88644SOL    HW167706  10.902  12.130   5.536
88644SOL    HW267707  10.841  11.992   5.532
88645SOL     OW67708   3.803   7.535   5.914
88645SOL    HW167709   3.738   7.584   5.965
88645SOL    HW267710   3.757   7.509   5.835
88646SOL     OW67711   8.494   1.786   8.144
88646SOL    HW167712   8.550   1.840   8.087
88646SOL    HW267713   8.500   1.698   8.107
88647SOL     OW67714  14.711   2.290   3.885
88647SOL    HW167715  14.776   2.361   3.892
88647SOL    HW267716  14.712   2.266   3.792
88648SOL     OW67717   2.312   5.853   2.537
88648SOL    HW167718   2.385   5.881   2.480
88648SOL    HW267719   2.256   5.800   2.481
88649SOL     OW67720   0.728   9.425   0.984
88649SOL    HW167721   0.716   9.514   0.951
88649SOL    HW267722   0.682   9.423   1.067
88650SOL     OW67723   6.009   8.850   0.470
88650SOL    HW167724   5.933   8.879   0.520
88650SOL    HW267725   6.062   8.800   0.533
88651SOL     OW67726   0.279   9.578  11.266
88651SOL    HW167727   0.211   9.559  11.202
88651SOL    HW267728   0.273   9.508  11.331
88652SOL     OW67729  10.394   1.200   8.877
88652SOL    HW167730  10.399   1.284   8.832
88652SOL    HW267731  10.343   1.217   8.956
88653SOL     OW67732   4.747  10.479   9.944
88653SOL    HW167733   4.758  10.467  10.039
88653SOL    HW267734   4.679  10.546   9.936
88654SOL     OW67735   3.677   7.751   6.032
88654SOL    HW167736   3.625   7.831   6.035
88654SOL    HW267737   3.755   7.771   6.084
88655SOL     OW67738   5.732  13.657   8.960
88655SOL    HW167739   5.726  13.679   9.053
88655SOL    HW267740   5.651  13.691   8.922
88656SOL     OW67741   0.214  12.440   4.052
88656SOL    HW167742   0.307  12.419   4.045
88656SOL    HW267743   0.209  12.534   4.037
88657SOL     OW67744   4.136   0.361   5.245
88657SOL    HW167745   4.093   0.436   5.287
88657SOL    HW267746   4.206   0.399   5.193
88658SOL     OW67747  11.937   3.450  13.462
88658SOL    HW167748  11.844   3.468  13.475
88658SOL    HW267749  11.946   3.441  13.367
88659SOL     OW67750   6.347  14.281   8.772
88659SOL    HW167751   6.293  14.205   8.752
88659SOL    HW267752   6.304  14.322   8.846
88660SOL     OW67753   3.902   9.424  14.813
88660SOL    HW167754   3.847   9.454  14.741
88660SOL    HW267755   3.952   9.352  14.776
88661SOL     OW67756  12.944   8.612  14.277
88661SOL    HW167757  13.034   8.639  14.258
88661SOL    HW267758  12.936   8.526  14.237
88662SOL     OW67759   3.354   0.076   3.539
88662SOL    HW167760   3.314   0.006   3.489
88662SOL    HW267761   3.371   0.038   3.625
88663SOL     OW67762   5.845  10.468   5.658
88663SOL    HW167763   5.927  10.418   5.668
88663SOL    HW267764   5.843  10.525   5.735
88664SOL     OW67765   5.989   8.247   6.900
88664SOL    HW167766   6.044   8.310   6.855
88664SOL    HW267767   6.048   8.204   6.962
88665SOL     OW67768   1.535   3.821   5.477
88665SOL    HW167769   1.488   3.740   5.455
88665SOL    HW267770   1.574   3.849   5.394
88666SOL     OW67771   0.013  12.000   1.690
88666SOL    HW167772  14.834  12.041   1.625
88666SOL    HW267773   0.010  11.907   1.669
88667SOL     OW67774   9.999   0.225   4.202
88667SOL    HW167775  10.082   0.202   4.242
88667SOL    HW267776  10.013   0.312   4.165
88668SOL     OW67777  14.007  10.995  12.864
88668SOL    HW167778  14.064  11.067  12.839
88668SOL    HW267779  13.928  11.037  12.897
88669SOL     OW67780   7.046   2.022   0.105
88669SOL    HW167781   7.016   2.036   0.195
88669SOL    HW267782   7.130   1.977   0.115
88670SOL     OW67783  11.688   1.234   1.856
88670SOL    HW167784  11.648   1.320   1.866
88670SOL    HW267785  11.617   1.178   1.824
88671SOL     OW67786  13.373   8.924   4.246
88671SOL    HW167787  13.421   8.933   4.164
88671SOL    HW267788  13.325   9.006   4.255
88672SOL     OW67789  14.824  11.506   9.424
88672SOL    HW167790  14.785  11.423   9.451
88672SOL    HW267791  14.753  11.552   9.378
88673SOL     OW67792   1.754   9.844  14.028
88673SOL    HW167793   1.727   9.812  13.942
88673SOL    HW267794   1.738   9.770  14.087
88674SOL     OW67795   1.288  13.721   8.780
88674SOL    HW167796   1.279  13.810   8.814
88674SOL    HW267797   1.282  13.665   8.857
88675SOL     OW67798   8.987   4.420   5.684
88675SOL    HW167799   8.982   4.479   5.609
88675SOL    HW267800   9.064   4.449   5.733
88676SOL     OW67801   2.253   5.121  10.565
88676SOL    HW167802   2.209   5.076  10.637
88676SOL    HW267803   2.331   5.161  10.604
88677SOL     OW67804  14.467   0.159   1.649
88677SOL    HW167805  14.478   0.244   1.693
88677SOL    HW267806  14.556   0.131   1.628
88678SOL     OW67807   3.617  14.672   4.250
88678SOL    HW167808   3.610  14.577   4.240
88678SOL    HW267809   3.710  14.687   4.270
88679SOL     OW67810  14.711   0.003   2.560
88679SOL    HW167811  14.788  14.878   2.618
88679SOL    HW267812  14.725   0.082   2.508
88680SOL     OW67813  10.512  12.465   8.380
88680SOL    HW167814  10.468  12.383   8.355
88680SOL    HW267815  10.463  12.533   8.333
88681SOL     OW67816   4.807   5.040   7.041
88681SOL    HW167817   4.773   5.042   6.952
88681SOL    HW267818   4.729   5.051   7.096
88682SOL     OW67819   1.652   6.686   8.538
88682SOL    HW167820   1.576   6.643   8.499
88682SOL    HW267821   1.644   6.778   8.512
88683SOL     OW67822  11.276  12.419  12.117
88683SOL    HW167823  11.204  12.479  12.136
88683SOL    HW267824  11.349  12.476  12.093
88684SOL     OW67825   2.641  11.414  11.805
88684SOL    HW167826   2.570  11.387  11.863
88684SOL    HW267827   2.692  11.475  11.858
88685SOL     OW67828  14.600  13.050   7.144
88685SOL    HW167829  14.620  12.986   7.212
88685SOL    HW267830  14.611  13.135   7.187
88686SOL     OW67831   0.956   3.545  11.697
88686SOL    HW167832   0.900   3.502  11.762
88686SOL    HW267833   1.045   3.531  11.729
88687SOL     OW67834   9.334  12.885   2.003
88687SOL    HW167835   9.383  12.953   1.956
88687SOL    HW267836   9.248  12.885   1.962
88688SOL     OW67837   9.672   3.479   9.021
88688SOL    HW167838   9.753   3.442   9.056
88688SOL    HW267839   9.647   3.546   9.085
88689SOL     OW67840   5.192   6.477  10.918
88689SOL    HW167841   5.199   6.415  10.991
88689SOL    HW267842   5.196   6.563  10.958
88690SOL     OW67843   7.760  11.741   1.257
88690SOL    HW167844   7.686  11.784   1.299
88690SOL    HW267845   7.818  11.717   1.330
88691SOL     OW67846   5.790  13.239   4.876
88691SOL    HW167847   5.874  13.262   4.916
88691SOL    HW267848   5.803  13.255   4.783
88692SOL     OW67849  14.401   5.626   3.381
88692SOL    HW167850  14.335   5.556   3.389
88692SOL    HW267851  14.357   5.703   3.416
88693SOL     OW67852  12.073   4.834  10.177
88693SOL    HW167853  12.145   4.772  10.181
88693SOL    HW267854  12.105   4.905  10.122
88694SOL     OW67855  13.975   2.312   1.074
88694SOL    HW167856  13.896   2.309   1.128
88694SOL    HW267857  13.999   2.405   1.072
88695SOL     OW67858   4.894  11.486   1.180
88695SOL    HW167859   4.862  11.435   1.254
88695SOL    HW267860   4.915  11.421   1.113
88696SOL     OW67861   4.740   5.039   8.469
88696SOL    HW167862   4.789   5.118   8.450
88696SOL    HW267863   4.676   5.066   8.536
88697SOL     OW67864  13.173   6.132  12.719
88697SOL    HW167865  13.129   6.054  12.684
88697SOL    HW267866  13.134   6.145  12.806
88698SOL     OW67867   7.850  14.440   8.430
88698SOL    HW167868   7.901  14.518   8.451
88698SOL    HW267869   7.889  14.407   8.349
88699SOL     OW67870   5.398   4.005   1.016
88699SOL    HW167871   5.442   3.982   1.098
88699SOL    HW267872   5.468   4.008   0.951
88700SOL     OW67873   6.413  10.027   0.612
88700SOL    HW167874   6.362   9.948   0.599
88700SOL    HW267875   6.503  10.002   0.593
88701SOL     OW67876   5.303  10.772   2.644
88701SOL    HW167877   5.383  10.821   2.662
88701SOL    HW267878   5.268  10.750   2.730
88702SOL     OW67879   5.260   9.450   3.789
88702SOL    HW167880   5.259   9.362   3.752
88702SOL    HW267881   5.184   9.453   3.847
88703SOL     OW67882  13.898   1.428   2.424
88703SOL    HW167883  13.892   1.437   2.519
88703SOL    HW267884  13.839   1.355   2.403
88704SOL     OW67885   4.374   6.457  13.412
88704SOL    HW167886   4.323   6.536  13.392
88704SOL    HW267887   4.318   6.384  13.384
88705SOL     OW67888   9.371  11.482   2.233
88705SOL    HW167889   9.450  11.428   2.235
88705SOL    HW267890   9.331  11.470   2.320
88706SOL     OW67891   5.180  14.846   5.573
88706SOL    HW167892   5.091   0.002   5.578
88706SOL    HW267893   5.202  14.848   5.480
88707SOL     OW67894   5.715  13.190   3.861
88707SOL    HW167895   5.625  13.157   3.857
88707SOL    HW267896   5.724  13.244   3.782
88708SOL     OW67897  14.299   9.561  13.788
88708SOL    HW167898  14.357   9.550  13.713
88708SOL    HW267899  14.337   9.507  13.857
88709SOL     OW67900   1.979   3.047  14.347
88709SOL    HW167901   2.065   3.080  14.322
88709SOL    HW267902   1.924   3.059  14.270
88710SOL     OW67903   9.055  11.680   6.054
88710SOL    HW167904   9.087  11.770   6.050
88710SOL    HW267905   9.116  11.635   6.111
88711SOL     OW67906  11.043  13.296  11.322
88711SOL    HW167907  11.111  13.346  11.367
88711SOL    HW267908  11.049  13.208  11.358
88712SOL     OW67909  10.728   1.026  10.365
88712SOL    HW167910  10.683   0.973  10.300
88712SOL    HW267911  10.804   0.973  10.390
88713SOL     OW67912  12.383   5.202   2.431
88713SOL    HW167913  12.323   5.152   2.487
88713SOL    HW267914  12.450   5.235   2.490
88714SOL     OW67915   2.551   5.163   4.304
88714SOL    HW167916   2.538   5.239   4.361
88714SOL    HW267917   2.505   5.091   4.348
88715SOL     OW67918   9.789   5.086   7.007
88715SOL    HW167919   9.780   4.995   7.037
88715SOL    HW267920   9.747   5.138   7.075
88716SOL     OW67921   3.512   6.234  11.686
88716SOL    HW167922   3.418   6.235  11.702
88716SOL    HW267923   3.524   6.291  11.609
88717SOL     OW67924   4.881  11.051  13.837
88717SOL    HW167925   4.920  11.090  13.915
88717SOL    HW267926   4.801  11.008  13.869
88718SOL     OW67927   7.425   2.564   5.403
88718SOL    HW167928   7.432   2.633   5.337
88718SOL    HW267929   7.357   2.506   5.369
88719SOL     OW67930   1.426  10.898   0.728
88719SOL    HW167931   1.499  10.892   0.667
88719SOL    HW267932   1.393  10.809   0.736
88720SOL     OW67933  14.027  12.530   6.261
88720SOL    HW167934  13.966  12.575   6.320
88720SOL    HW267935  14.060  12.457   6.313
88721SOL     OW67936   3.401   9.959  12.345
88721SOL    HW167937   3.363   9.879  12.382
88721SOL    HW267938   3.334  10.026  12.360
88722SOL     OW67939  10.065   1.339   3.734
88722SOL    HW167940  10.156   1.307   3.737
88722SOL    HW267941  10.038   1.325   3.643
88723SOL     OW67942   1.527   1.982   2.837
88723SOL    HW167943   1.575   2.032   2.903
88723SOL    HW267944   1.469   2.047   2.796
88724SOL     OW67945   7.742  13.312   2.233
88724SOL    HW167946   7.780  13.244   2.176
88724SOL    HW267947   7.649  13.290   2.236
88725SOL     OW67948   4.289  11.621  10.860
88725SOL    HW167949   4.197  11.640  10.845
88725SOL    HW267950   4.296  11.526  10.850
88726SOL     OW67951   8.305  12.068   6.047
88726SOL    HW167952   8.242  12.051   6.116
88726SOL    HW267953   8.292  12.161   6.025
88727SOL     OW67954   0.216   9.173   5.011
88727SOL    HW167955   0.253   9.210   5.091
88727SOL    HW267956   0.284   9.112   4.979
88728SOL     OW67957  14.647   7.573   1.833
88728SOL    HW167958  14.649   7.592   1.927
88728SOL    HW267959  14.555   7.558   1.814
88729SOL     OW67960   2.341   6.835   8.181
88729SOL    HW167961   2.326   6.921   8.222
88729SOL    HW267962   2.391   6.856   8.102
88730SOL     OW67963   6.734   3.573   0.485
88730SOL    HW167964   6.800   3.629   0.445
88730SOL    HW267965   6.752   3.578   0.579
88731SOL     OW67966  14.348  13.941   8.020
88731SOL    HW167967  14.264  13.985   8.028
88731SOL    HW267968  14.413  14.010   8.032
88732SOL     OW67969   6.407  10.641   1.166
88732SOL    HW167970   6.356  10.615   1.090
88732SOL    HW267971   6.350  10.626   1.241
88733SOL     OW67972   0.458   5.037  13.931
88733SOL    HW167973   0.431   4.948  13.909
88733SOL    HW267974   0.554   5.032  13.936
88734SOL     OW67975   5.823   7.876  11.838
88734SOL    HW167976   5.745   7.910  11.882
88734SOL    HW267977   5.832   7.930  11.760
88735SOL     OW67978  12.655  13.842   6.679
88735SOL    HW167979  12.737  13.819   6.724
88735SOL    HW267980  12.662  13.800   6.593
88736SOL     OW67981  14.249   4.646   2.952
88736SOL    HW167982  14.342   4.624   2.950
88736SOL    HW267983  14.208   4.572   2.997
88737SOL     OW67984   9.883   5.595   7.603
88737SOL    HW167985   9.844   5.682   7.614
88737SOL    HW267986   9.831   5.538   7.660
88738SOL     OW67987   1.261   8.020   3.686
88738SOL    HW167988   1.205   7.993   3.758
88738SOL    HW267989   1.271   7.942   3.632
88739SOL     OW67990   2.427   3.035  13.162
88739SOL    HW167991   2.373   2.986  13.223
88739SOL    HW267992   2.506   3.058  13.211
88740SOL     OW67993  10.110   4.167   8.806
88740SOL    HW167994  10.102   4.173   8.711
88740SOL    HW267995  10.096   4.075   8.826
88741SOL     OW67996   2.763   6.141   8.731
88741SOL    HW167997   2.751   6.081   8.805
88741SOL    HW267998   2.777   6.227   8.771
88742SOL     OW67999  12.633   4.815   4.339
88742SOL    HW168000  12.713   4.763   4.342
88742SOL    HW268001  12.655   4.897   4.384
88743SOL     OW68002  10.406  12.302   3.157
88743SOL    HW168003  10.394  12.314   3.063
88743SOL    HW268004  10.432  12.210   3.166
88744SOL     OW68005   7.230   9.968   3.695
88744SOL    HW168006   7.263   9.885   3.661
88744SOL    HW268007   7.278   9.981   3.777
88745SOL     OW68008   3.715   5.958   0.759
88745SOL    HW168009   3.745   5.883   0.811
88745SOL    HW268010   3.622   5.967   0.780
88746SOL     OW68011   2.037  13.494   1.165
88746SOL    HW168012   2.119  13.446   1.174
88746SOL    HW268013   2.012  13.515   1.255
88747SOL     OW68014  10.044   3.438   7.565
88747SOL    HW168015  10.077   3.454   7.476
88747SOL    HW268016  10.118   3.460   7.622
88748SOL     OW68017  13.474   4.758   9.792
88748SOL    HW168018  13.428   4.813   9.727
88748SOL    HW268019  13.566   4.767   9.770
88749SOL     OW68020  11.767   8.842   4.557
88749SOL    HW168021  11.754   8.884   4.472
88749SOL    HW268022  11.843   8.785   4.544
88750SOL     OW68023   5.027   4.880   8.470
88750SOL    HW168024   5.070   4.833   8.398
88750SOL    HW268025   5.005   4.965   8.432
88751SOL     OW68026   2.338  12.608  10.349
88751SOL    HW168027   2.378  12.645  10.428
88751SOL    HW268028   2.260  12.661  10.335
88752SOL     OW68029  10.663   3.337  13.064
88752SOL    HW168030  10.710   3.403  13.011
88752SOL    HW268031  10.731   3.300  13.121
88753SOL     OW68032   9.393   2.689   8.385
88753SOL    HW168033   9.483   2.700   8.356
88753SOL    HW268034   9.379   2.758   8.450
88754SOL     OW68035   4.110   6.669   4.542
88754SOL    HW168036   4.077   6.579   4.533
88754SOL    HW268037   4.077   6.714   4.464
88755SOL     OW68038  11.674   7.152   4.142
88755SOL    HW168039  11.691   7.143   4.048
88755SOL    HW268040  11.617   7.229   4.148
88756SOL     OW68041   2.263  14.477  13.618
88756SOL    HW168042   2.220  14.421  13.683
88756SOL    HW268043   2.255  14.565  13.653
88757SOL     OW68044   1.160   0.641  12.166
88757SOL    HW168045   1.070   0.615  12.183
88757SOL    HW268046   1.213   0.571  12.204
88758SOL     OW68047  14.700   2.542   6.594
88758SOL    HW168048  14.661   2.544   6.681
88758SOL    HW268049  14.781   2.492   6.605
88759SOL     OW68050  14.389  11.486   1.343
88759SOL    HW168051  14.392  11.391   1.346
88759SOL    HW268052  14.434  11.514   1.423
88760SOL     OW68053   1.372   6.004  12.084
88760SOL    HW168054   1.391   6.074  12.021
88760SOL    HW268055   1.300   5.955  12.046
88761SOL     OW68056   3.014   3.973   0.888
88761SOL    HW168057   2.956   4.046   0.910
88761SOL    HW268058   3.030   3.929   0.971
88762SOL     OW68059  11.164   6.331  10.173
88762SOL    HW168060  11.114   6.355  10.095
88762SOL    HW268061  11.209   6.250  10.148
88763SOL     OW68062   3.517   1.310   0.913
88763SOL    HW168063   3.492   1.248   0.845
88763SOL    HW268064   3.470   1.281   0.991
88764SOL     OW68065   0.047   7.421   0.186
88764SOL    HW168066   0.072   7.397   0.275
88764SOL    HW268067   0.130   7.438   0.141
88765SOL     OW68068   4.472   0.696   0.344
88765SOL    HW168069   4.465   0.787   0.317
88765SOL    HW268070   4.382   0.669   0.362
88766SOL     OW68071   0.450   2.849   7.400
88766SOL    HW168072   0.474   2.757   7.388
88766SOL    HW268073   0.359   2.846   7.432
88767SOL     OW68074   1.122   5.060   2.105
88767SOL    HW168075   1.048   5.096   2.055
88767SOL    HW268076   1.183   5.134   2.113
88768SOL     OW68077   4.955   2.722   1.703
88768SOL    HW168078   4.899   2.653   1.665
88768SOL    HW268079   4.974   2.780   1.629
88769SOL     OW68080  14.781   6.539  14.261
88769SOL    HW168081  14.717   6.508  14.325
88769SOL    HW268082  14.863   6.546  14.310
88770SOL     OW68083   3.115   1.773   2.021
88770SOL    HW168084   3.021   1.780   2.033
88770SOL    HW268085   3.152   1.803   2.104
88771SOL     OW68086  10.482  12.239  13.205
88771SOL    HW168087  10.572  12.264  13.184
88771SOL    HW268088  10.449  12.311  13.257
88772SOL     OW68089   4.884   8.878  10.787
88772SOL    HW168090   4.798   8.894  10.748
88772SOL    HW268091   4.870   8.802  10.844
88773SOL     OW68092   9.552   3.690   7.378
88773SOL    HW168093   9.642   3.703   7.409
88773SOL    HW268094   9.552   3.602   7.340
88774SOL     OW68095   7.951  14.354  14.565
88774SOL    HW168096   7.953  14.437  14.613
88774SOL    HW268097   8.043  14.331  14.553
88775SOL     OW68098   5.881  11.703  12.946
88775SOL    HW168099   5.900  11.620  12.902
88775SOL    HW268100   5.792  11.692  12.979
88776SOL     OW68101   5.310   0.586   4.507
88776SOL    HW168102   5.398   0.550   4.492
88776SOL    HW268103   5.254   0.509   4.517
88777SOL     OW68104   7.320  13.786  10.683
88777SOL    HW168105   7.290  13.776  10.774
88777SOL    HW268106   7.316  13.880  10.666
88778SOL     OW68107   5.084  10.851  13.559
88778SOL    HW168108   5.085  10.848  13.463
88778SOL    HW268109   5.098  10.943  13.580
88779SOL     OW68110  12.920   9.850   0.517
88779SOL    HW168111  12.843   9.799   0.490
88779SOL    HW268112  12.908   9.862   0.611
88780SOL     OW68113   6.535   5.031   3.605
88780SOL    HW168114   6.569   4.966   3.666
88780SOL    HW268115   6.494   4.981   3.536
88781SOL     OW68116   8.977  13.808   1.328
88781SOL    HW168117   8.937  13.801   1.415
88781SOL    HW268118   8.907  13.841   1.272
88782SOL     OW68119   4.103   2.592  11.804
88782SOL    HW168120   4.135   2.567  11.717
88782SOL    HW268121   4.135   2.523  11.862
88783SOL     OW68122   7.048  12.012  11.274
88783SOL    HW168123   7.005  12.073  11.214
88783SOL    HW268124   6.986  12.001  11.346
88784SOL     OW68125   7.361   8.261  10.577
88784SOL    HW168126   7.436   8.217  10.538
88784SOL    HW268127   7.385   8.354  10.576
88785SOL     OW68128  13.578   4.404  12.158
88785SOL    HW168129  13.485   4.380  12.159
88785SOL    HW268130  13.619   4.340  12.101
88786SOL     OW68131   8.848   5.028   5.222
88786SOL    HW168132   8.777   4.967   5.202
88786SOL    HW268133   8.871   5.067   5.138
88787SOL     OW68134  12.270  14.635  13.907
88787SOL    HW168135  12.300  14.636  13.998
88787SOL    HW268136  12.297  14.720  13.873
88788SOL     OW68137  13.633  11.839   4.101
88788SOL    HW168138  13.551  11.871   4.062
88788SOL    HW268139  13.700  11.899   4.068
88789SOL     OW68140  12.186   0.140   7.121
88789SOL    HW168141  12.102   0.181   7.143
88789SOL    HW268142  12.180   0.123   7.027
88790SOL     OW68143   6.310   0.822   5.232
88790SOL    HW168144   6.319   0.801   5.139
88790SOL    HW268145   6.220   0.796   5.254
88791SOL     OW68146  12.472   7.350   1.649
88791SOL    HW168147  12.557   7.350   1.606
88791SOL    HW268148  12.415   7.400   1.590
88792SOL     OW68149  11.721   7.535  13.635
88792SOL    HW168150  11.747   7.487  13.714
88792SOL    HW268151  11.648   7.589  13.663
88793SOL     OW68152   4.474   7.171   2.373
88793SOL    HW168153   4.443   7.106   2.310
88793SOL    HW268154   4.532   7.228   2.322
88794SOL     OW68155  13.876   9.019   8.788
88794SOL    HW168156  13.845   8.992   8.702
88794SOL    HW268157  13.896   9.113   8.778
88795SOL     OW68158   8.136   9.907  12.575
88795SOL    HW168159   8.193   9.843  12.532
88795SOL    HW268160   8.165   9.992  12.542
88796SOL     OW68161   2.506   1.404   9.366
88796SOL    HW168162   2.583   1.411   9.310
88796SOL    HW268163   2.498   1.490   9.407
88797SOL     OW68164   9.623   4.241  14.853
88797SOL    HW168165   9.566   4.296   0.029
88797SOL    HW268166   9.711   4.258   0.009
88798SOL     OW68167  13.926   4.199   7.519
88798SOL    HW168168  13.863   4.248   7.466
88798SOL    HW268169  13.955   4.127   7.463
88799SOL     OW68170   3.987  10.046  12.087
88799SOL    HW168171   3.986  10.132  12.130
88799SOL    HW268172   4.008   9.984  12.158
88800SOL     OW68173   9.220  11.236   0.401
88800SOL    HW168174   9.315  11.245   0.410
88800SOL    HW268175   9.198  11.161   0.456
88801SOL     OW68176   8.836   5.720  11.516
88801SOL    HW168177   8.772   5.664  11.472
88801SOL    HW268178   8.900   5.740  11.448
88802SOL     OW68179  10.678   9.179  11.555
88802SOL    HW168180  10.653   9.151  11.467
88802SOL    HW268181  10.694   9.098  11.603
88803SOL     OW68182   9.872   7.997  12.930
88803SOL    HW168183   9.909   7.910  12.944
88803SOL    HW268184   9.930   8.037  12.864
88804SOL     OW68185   5.976   5.548  10.518
88804SOL    HW168186   6.008   5.633  10.488
88804SOL    HW268187   6.039   5.484  10.482
88805SOL     OW68188  12.500  10.147   4.225
88805SOL    HW168189  12.477  10.115   4.313
88805SOL    HW268190  12.422  10.129   4.172
88806SOL     OW68191   3.974  14.850  14.618
88806SOL    HW168192   3.965  14.765  14.662
88806SOL    HW268193   3.958  14.831  14.526
88807SOL     OW68194   5.198  13.553   5.226
88807SOL    HW168195   5.211  13.475   5.280
88807SOL    HW268196   5.197  13.626   5.288
88808SOL     OW68197   9.089   1.540  13.588
88808SOL    HW168198   9.135   1.596  13.526
88808SOL    HW268199   9.120   1.452  13.568
88809SOL     OW68200   1.543   9.349   7.668
88809SOL    HW168201   1.635   9.360   7.647
88809SOL    HW268202   1.508   9.294   7.598
88810SOL     OW68203   4.039   1.762  12.734
88810SOL    HW168204   3.974   1.704  12.693
88810SOL    HW268205   3.987   1.835  12.767
88811SOL     OW68206   4.304   6.849   4.050
88811SOL    HW168207   4.368   6.811   4.110
88811SOL    HW268208   4.259   6.773   4.012
88812SOL     OW68209   2.895   1.343   9.726
88812SOL    HW168210   2.818   1.374   9.677
88812SOL    HW268211   2.941   1.423   9.751
88813SOL     OW68212   0.925  14.738  13.518
88813SOL    HW168213   0.873  14.784  13.583
88813SOL    HW268214   0.861  14.707  13.453
88814SOL     OW68215   2.197   5.366   1.993
88814SOL    HW168216   2.265   5.313   1.952
88814SOL    HW268217   2.132   5.379   1.925
88815SOL     OW68218   5.323   9.576  13.013
88815SOL    HW168219   5.358   9.634  13.080
88815SOL    HW268220   5.317   9.490  13.055
88816SOL     OW68221   7.788   8.672  14.455
88816SOL    HW168222   7.869   8.698  14.409
88816SOL    HW268223   7.725   8.739  14.431
88817SOL     OW68224   6.517   6.189   2.427
88817SOL    HW168225   6.450   6.136   2.470
88817SOL    HW268226   6.511   6.165   2.335
88818SOL     OW68227  12.483  11.247   5.601
88818SOL    HW168228  12.539  11.187   5.552
88818SOL    HW268229  12.401  11.248   5.552
88819SOL     OW68230   3.824   6.659   0.672
88819SOL    HW168231   3.795   6.660   0.764
88819SOL    HW268232   3.743   6.666   0.621
88820SOL     OW68233   7.463  11.785  14.450
88820SOL    HW168234   7.446  11.874  14.419
88820SOL    HW268235   7.543  11.792  14.502
88821SOL     OW68236   3.564   6.230   1.730
88821SOL    HW168237   3.477   6.225   1.689
88821SOL    HW268238   3.583   6.140   1.755
88822SOL     OW68239   0.357   9.362   0.757
88822SOL    HW168240   0.391   9.443   0.719
88822SOL    HW268241   0.324   9.388   0.844
88823SOL     OW68242  10.412   0.559  11.642
88823SOL    HW168243  10.498   0.585  11.676
88823SOL    HW268244  10.430   0.519  11.557
88824SOL     OW68245   6.370   2.099  10.860
88824SOL    HW168246   6.400   2.101  10.769
88824SOL    HW268247   6.443   2.060  10.909
88825SOL     OW68248   6.658   5.630  13.192
88825SOL    HW168249   6.602   5.553  13.200
88825SOL    HW268250   6.693   5.625  13.103
88826SOL     OW68251  12.842   4.990   6.917
88826SOL    HW168252  12.750   4.962   6.921
88826SOL    HW268253  12.885   4.939   6.985
88827SOL     OW68254   8.467   6.161  10.712
88827SOL    HW168255   8.436   6.148  10.801
88827SOL    HW268256   8.561   6.141  10.716
88828SOL     OW68257   9.137   4.771  10.634
88828SOL    HW168258   9.092   4.687  10.636
88828SOL    HW268259   9.108   4.811  10.551
88829SOL     OW68260   4.972   8.322   2.903
88829SOL    HW168261   4.925   8.406   2.907
88829SOL    HW268262   4.972   8.299   2.810
88830SOL     OW68263   7.776   2.813   4.113
88830SOL    HW168264   7.737   2.858   4.188
88830SOL    HW268265   7.730   2.729   4.109
88831SOL     OW68266   0.236   1.693   5.655
88831SOL    HW168267   0.198   1.655   5.576
88831SOL    HW268268   0.307   1.749   5.622
88832SOL     OW68269  11.881  10.814   8.266
88832SOL    HW168270  11.936  10.753   8.218
88832SOL    HW268271  11.911  10.809   8.356
88833SOL     OW68272   6.146  10.490   5.824
88833SOL    HW168273   6.136  10.447   5.739
88833SOL    HW268274   6.126  10.422   5.888
88834SOL     OW68275   7.402  12.355  10.637
88834SOL    HW168276   7.461  12.358  10.712
88834SOL    HW268277   7.437  12.421  10.577
88835SOL     OW68278  10.498  14.391   2.049
88835SOL    HW168279  10.561  14.328   2.084
88835SOL    HW268280  10.551  14.462   2.014
88836SOL     OW68281   4.054   0.631  11.469
88836SOL    HW168282   4.011   0.671  11.545
88836SOL    HW268283   3.983   0.619  11.405
88837SOL     OW68284   1.319   5.841   8.824
88837SOL    HW168285   1.295   5.749   8.809
88837SOL    HW268286   1.346   5.843   8.916
88838SOL     OW68287  11.919   2.353  10.117
88838SOL    HW168288  11.866   2.398  10.051
88838SOL    HW268289  12.007   2.387  10.104
88839SOL     OW68290  11.810  12.266   1.481
88839SOL    HW168291  11.794  12.277   1.575
88839SOL    HW268292  11.723  12.269   1.441
88840SOL     OW68293  14.449   1.031  14.389
88840SOL    HW168294  14.437   1.078  14.471
88840SOL    HW268295  14.543   1.014  14.384
88841SOL     OW68296   8.446   2.270   2.001
88841SOL    HW168297   8.491   2.206   1.947
88841SOL    HW268298   8.380   2.220   2.049
88842SOL     OW68299  13.709  14.754   2.512
88842SOL    HW168300  13.638  14.753   2.577
88842SOL    HW268301  13.724  14.847   2.495
88843SOL     OW68302   0.523   5.588  11.121
88843SOL    HW168303   0.578   5.601  11.044
88843SOL    HW268304   0.473   5.509  11.102
88844SOL     OW68305  11.014   4.440   5.142
88844SOL    HW168306  10.944   4.391   5.098
88844SOL    HW268307  11.039   4.385   5.216
88845SOL     OW68308   3.667   0.865   0.061
88845SOL    HW168309   3.733   0.911   0.009
88845SOL    HW268310   3.604   0.832  14.875
88846SOL     OW68311  10.277   3.812   7.782
88846SOL    HW168312  10.324   3.772   7.709
88846SOL    HW268313  10.346   3.833   7.846
88847SOL     OW68314   4.427   3.608  11.062
88847SOL    HW168315   4.416   3.609  11.157
88847SOL    HW268316   4.471   3.690  11.042
88848SOL     OW68317   3.961   7.197  11.840
88848SOL    HW168318   4.035   7.249  11.873
88848SOL    HW268319   3.999   7.112  11.818
88849SOL     OW68320   2.024   9.096  12.418
88849SOL    HW168321   2.001   9.025  12.358
88849SOL    HW268322   2.090   9.059  12.475
88850SOL     OW68323  12.992   6.735  12.950
88850SOL    HW168324  12.967   6.643  12.961
88850SOL    HW268325  12.937   6.767  12.879
88851SOL     OW68326   4.513   0.569  11.169
88851SOL    HW168327   4.528   0.545  11.077
88851SOL    HW268328   4.418   0.566  11.179
88852SOL     OW68329  13.437   0.357   9.475
88852SOL    HW168330  13.527   0.345   9.504
88852SOL    HW268331  13.409   0.439   9.516
88853SOL     OW68332  12.766  10.378  10.312
88853SOL    HW168333  12.748  10.291  10.346
88853SOL    HW268334  12.845  10.406  10.358
88854SOL     OW68335   3.445   3.697  11.068
88854SOL    HW168336   3.529   3.715  11.027
88854SOL    HW268337   3.466   3.639  11.141
88855SOL     OW68338   0.230  14.353   4.391
88855SOL    HW168339   0.192  14.379   4.475
88855SOL    HW268340   0.155  14.325   4.338
88856SOL     OW68341  11.458  14.657   1.242
88856SOL    HW168342  11.538  14.707   1.228
88856SOL    HW268343  11.479  14.568   1.211
88857SOL     OW68344   0.112  11.631  11.883
88857SOL    HW168345   0.200  11.651  11.914
88857SOL    HW268346   0.125  11.597  11.794
88858SOL     OW68347   6.831   9.819  13.242
88858SOL    HW168348   6.807   9.824  13.149
88858SOL    HW268349   6.793   9.897  13.281
88859SOL     OW68350   7.531   1.523  12.503
88859SOL    HW168351   7.482   1.507  12.422
88859SOL    HW268352   7.501   1.609  12.533
88860SOL     OW68353   1.758   7.336   7.483
88860SOL    HW168354   1.702   7.260   7.499
88860SOL    HW268355   1.826   7.304   7.424
88861SOL     OW68356   1.752   3.775  10.616
88861SOL    HW168357   1.666   3.756  10.578
88861SOL    HW268358   1.740   3.860  10.659
88862SOL     OW68359   4.010   4.499   3.620
88862SOL    HW168360   4.087   4.540   3.580
88862SOL    HW268361   4.039   4.469   3.706
88863SOL     OW68362  11.275   3.389   9.143
88863SOL    HW168363  11.186   3.361   9.121
88863SOL    HW268364  11.265   3.442   9.223
88864SOL     OW68365  10.660  10.895   3.917
88864SOL    HW168366  10.589  10.838   3.888
88864SOL    HW268367  10.698  10.929   3.836
88865SOL     OW68368   2.358   2.474   7.353
88865SOL    HW168369   2.296   2.443   7.286
88865SOL    HW268370   2.303   2.522   7.415
88866SOL     OW68371   7.213  11.779   3.181
88866SOL    HW168372   7.208  11.741   3.269
88866SOL    HW268373   7.219  11.703   3.123
88867SOL     OW68374   9.415   8.681   3.470
88867SOL    HW168375   9.335   8.629   3.465
88867SOL    HW268376   9.386   8.771   3.454
88868SOL     OW68377   4.960   5.136   2.556
88868SOL    HW168378   4.883   5.108   2.507
88868SOL    HW268379   5.027   5.149   2.488
88869SOL     OW68380  11.071  12.302   4.441
88869SOL    HW168381  11.127  12.371   4.406
88869SOL    HW268382  11.126  12.257   4.506
88870SOL     OW68383   1.441   6.608   7.994
88870SOL    HW168384   1.430   6.685   8.051
88870SOL    HW268385   1.356   6.564   7.996
88871SOL     OW68386   6.443   0.667   4.555
88871SOL    HW168387   6.461   0.731   4.486
88871SOL    HW268388   6.390   0.600   4.513
88872SOL     OW68389   1.055   5.203   9.054
88872SOL    HW168390   1.023   5.169   8.970
88872SOL    HW268391   0.982   5.255   9.088
88873SOL     OW68392   4.789  14.135   8.860
88873SOL    HW168393   4.733  14.146   8.784
88873SOL    HW268394   4.813  14.042   8.860
88874SOL     OW68395   9.235   9.154   9.481
88874SOL    HW168396   9.304   9.117   9.536
88874SOL    HW268397   9.166   9.178   9.544
88875SOL     OW68398   8.864   7.745  13.431
88875SOL    HW168399   8.940   7.739  13.489
88875SOL    HW268400   8.831   7.834  13.445
88876SOL     OW68401   9.664  14.604   7.173
88876SOL    HW168402   9.731  14.671   7.160
88876SOL    HW268403   9.700  14.525   7.132
88877SOL     OW68404   0.225   0.698   4.956
88877SOL    HW168405   0.181   0.766   5.007
88877SOL    HW268406   0.161   0.671   4.891
88878SOL     OW68407  14.196  12.866   1.432
88878SOL    HW168408  14.101  12.862   1.419
88878SOL    HW268409  14.215  12.794   1.491
88879SOL     OW68410  14.460  12.223   6.895
88879SOL    HW168411  14.494  12.308   6.866
88879SOL    HW268412  14.373  12.243   6.930
88880SOL     OW68413   4.924   6.199  14.863
88880SOL    HW168414   5.010   6.163   0.005
88880SOL    HW268415   4.908   6.263   0.054
88881SOL     OW68416   6.557   1.490  13.698
88881SOL    HW168417   6.644   1.516  13.730
88881SOL    HW268418   6.497   1.549  13.743
88882SOL     OW68419   0.030  14.304  11.085
88882SOL    HW168420   0.126  14.302  11.081
88882SOL    HW268421   0.010  14.334  11.174
88883SOL     OW68422  14.517   3.066   5.225
88883SOL    HW168423  14.452   3.119   5.272
88883SOL    HW268424  14.596   3.121   5.224
88884SOL     OW68425   1.865   4.361  11.159
88884SOL    HW168426   1.845   4.269  11.178
88884SOL    HW268427   1.784   4.408  11.180
88885SOL     OW68428   2.879   3.835   8.847
88885SOL    HW168429   2.885   3.922   8.885
88885SOL    HW268430   2.908   3.776   8.916
88886SOL     OW68431   1.893   8.240   4.213
88886SOL    HW168432   1.829   8.187   4.164
88886SOL    HW268433   1.974   8.190   4.208
88887SOL     OW68434   5.056   8.464  13.043
88887SOL    HW168435   5.002   8.543  13.037
88887SOL    HW268436   5.033   8.426  13.128
88888SOL     OW68437   9.435   1.038   0.306
88888SOL    HW168438   9.347   1.001   0.300
88888SOL    HW268439   9.485   0.993   0.238
88889SOL     OW68440  12.720  11.566   5.342
88889SOL    HW168441  12.713  11.636   5.406
88889SOL    HW268442  12.791  11.510   5.376
88890SOL     OW68443   8.718   1.949   6.025
88890SOL    HW168444   8.775   1.901   6.086
88890SOL    HW268445   8.679   1.882   5.971
88891SOL     OW68446  13.483  10.038   4.751
88891SOL    HW168447  13.529   9.959   4.721
88891SOL    HW268448  13.552  10.104   4.759
88892SOL     OW68449  14.165   2.568   1.029
88892SOL    HW168450  14.218   2.586   0.951
88892SOL    HW268451  14.160   2.653   1.074
88893SOL     OW68452  11.366   5.542  10.563
88893SOL    HW168453  11.449   5.524  10.606
88893SOL    HW268454  11.338   5.626  10.600
88894SOL     OW68455   2.619  11.477   9.209
88894SOL    HW168456   2.667  11.402   9.243
88894SOL    HW268457   2.549  11.492   9.273
88895SOL     OW68458  11.416   1.090  11.447
88895SOL    HW168459  11.398   1.130  11.362
88895SOL    HW268460  11.446   1.163  11.502
88896SOL     OW68461   9.611   0.347   6.856
88896SOL    HW168462   9.668   0.356   6.779
88896SOL    HW268463   9.584   0.436   6.877
88897SOL     OW68464   0.292   0.256   9.049
88897SOL    HW168465   0.221   0.207   9.091
88897SOL    HW268466   0.372   0.218   9.085
88898SOL     OW68467  14.561   8.828   1.017
88898SOL    HW168468  14.611   8.886   0.959
88898SOL    HW268469  14.538   8.753   0.962
88899SOL     OW68470  11.446   2.739  12.306
88899SOL    HW168471  11.445   2.831  12.334
88899SOL    HW268472  11.370   2.700  12.350
88900SOL     OW68473  13.798  11.935   2.210
88900SOL    HW168474  13.806  12.003   2.277
88900SOL    HW268475  13.876  11.945   2.156
88901SOL     OW68476   8.106   5.485   7.610
88901SOL    HW168477   8.092   5.408   7.665
88901SOL    HW268478   8.082   5.559   7.665
88902SOL     OW68479   6.008   7.501   9.130
88902SOL    HW168480   5.989   7.551   9.209
88902SOL    HW268481   6.008   7.410   9.158
88903SOL     OW68482   3.204  11.450  11.236
88903SOL    HW168483   3.152  11.518  11.193
88903SOL    HW268484   3.234  11.395  11.163
88904SOL     OW68485  12.888  12.035   6.662
88904SOL    HW168486  12.871  12.072   6.749
88904SOL    HW268487  12.943  12.099   6.619
88905SOL     OW68488   3.735  10.561   6.587
88905SOL    HW168489   3.666  10.499   6.563
88905SOL    HW268490   3.717  10.582   6.678
88906SOL     OW68491   7.909   2.702   4.483
88906SOL    HW168492   7.849   2.640   4.440
88906SOL    HW268493   7.996   2.670   4.460
88907SOL     OW68494   6.141  12.145   2.707
88907SOL    HW168495   6.059  12.167   2.752
88907SOL    HW268496   6.139  12.198   2.627
88908SOL     OW68497  13.030   8.573  11.705
88908SOL    HW168498  12.975   8.565  11.782
88908SOL    HW268499  12.976   8.543  11.633
88909SOL     OW68500   1.756  13.195   8.301
88909SOL    HW168501   1.722  13.107   8.320
88909SOL    HW268502   1.848  13.181   8.278
88910SOL     OW68503   4.177   4.818   4.899
88910SOL    HW168504   4.126   4.789   4.822
88910SOL    HW268505   4.166   4.747   4.962
88911SOL     OW68506   8.630   4.332   2.186
88911SOL    HW168507   8.608   4.246   2.223
88911SOL    HW268508   8.556   4.388   2.210
88912SOL     OW68509   6.581  13.172   2.654
88912SOL    HW168510   6.566  13.115   2.729
88912SOL    HW268511   6.558  13.118   2.578
88913SOL     OW68512   6.083   5.750   8.513
88913SOL    HW168513   6.111   5.800   8.436
88913SOL    HW268514   6.098   5.808   8.587
88914SOL     OW68515   6.368   3.844   4.104
88914SOL    HW168516   6.371   3.780   4.175
88914SOL    HW268517   6.300   3.906   4.130
88915SOL     OW68518   3.957   6.115   8.124
88915SOL    HW168519   3.930   6.143   8.036
88915SOL    HW268520   4.045   6.078   8.111
88916SOL     OW68521   6.468   8.003   4.404
88916SOL    HW168522   6.538   7.944   4.377
88916SOL    HW268523   6.487   8.024   4.495
88917SOL     OW68524   8.900  14.234   9.039
88917SOL    HW168525   8.853  14.312   9.070
88917SOL    HW268526   8.840  14.194   8.975
88918SOL     OW68527   5.934   1.607   0.129
88918SOL    HW168528   5.931   1.515   0.103
88918SOL    HW268529   6.016   1.639   0.092
88919SOL     OW68530  14.364   9.018   0.634
88919SOL    HW168531  14.379   9.044   0.725
88919SOL    HW268532  14.293   9.075   0.604
88920SOL     OW68533   5.956   3.395  10.796
88920SOL    HW168534   5.892   3.342  10.843
88920SOL    HW268535   5.952   3.365  10.705
88921SOL     OW68536   7.691   0.745  12.875
88921SOL    HW168537   7.647   0.828  12.856
88921SOL    HW268538   7.784   0.768  12.880
88922SOL     OW68539   6.061   0.159   0.794
88922SOL    HW168540   6.047   0.223   0.864
88922SOL    HW268541   6.090   0.212   0.719
88923SOL     OW68542  13.095   3.678  11.924
88923SOL    HW168543  13.040   3.607  11.957
88923SOL    HW268544  13.068   3.689  11.833
88924SOL     OW68545  11.211   3.797   0.583
88924SOL    HW168546  11.192   3.789   0.490
88924SOL    HW268547  11.183   3.886   0.606
88925SOL     OW68548  11.365   1.294  10.664
88925SOL    HW168549  11.275   1.317  10.643
88925SOL    HW268550  11.406   1.377  10.688
88926SOL     OW68551  13.155   3.700   0.692
88926SOL    HW168552  13.243   3.664   0.681
88926SOL    HW268553  13.134   3.737   0.606
88927SOL     OW68554   3.022   8.793  14.231
88927SOL    HW168555   2.935   8.814  14.197
88927SOL    HW268556   3.043   8.709  14.192
88928SOL     OW68557  10.143   3.261   8.940
88928SOL    HW168558  10.216   3.229   8.992
88928SOL    HW268559  10.171   3.348   8.910
88929SOL     OW68560   8.516  12.359   0.422
88929SOL    HW168561   8.570  12.429   0.385
88929SOL    HW268562   8.464  12.328   0.348
88930SOL     OW68563  11.046   3.742   2.512
88930SOL    HW168564  11.127   3.793   2.509
88930SOL    HW268565  11.064   3.673   2.577
88931SOL     OW68566   3.551   4.642   5.074
88931SOL    HW168567   3.643   4.621   5.054
88931SOL    HW268568   3.556   4.704   5.147
88932SOL     OW68569   1.138  13.045  14.101
88932SOL    HW168570   1.081  13.069  14.175
88932SOL    HW268571   1.159  12.953  14.116
88933SOL     OW68572   1.748  10.407  11.202
88933SOL    HW168573   1.663  10.364  11.207
88933SOL    HW268574   1.808  10.339  11.172
88934SOL     OW68575  11.429   5.661   9.588
88934SOL    HW168576  11.433   5.688   9.496
88934SOL    HW268577  11.337   5.675   9.613
88935SOL     OW68578   6.237   4.828  13.664
88935SOL    HW168579   6.331   4.820  13.680
88935SOL    HW268580   6.197   4.812  13.750
88936SOL     OW68581  11.138   7.395  10.553
88936SOL    HW168582  11.146   7.343  10.634
88936SOL    HW268583  11.212   7.366  10.499
88937SOL     OW68584   3.047   5.697   2.054
88937SOL    HW168585   3.053   5.683   2.148
88937SOL    HW268586   3.113   5.765   2.036
88938SOL     OW68587  10.392   2.036  13.295
88938SOL    HW168588  10.428   2.091  13.364
88938SOL    HW268589  10.297   2.040  13.307
88939SOL     OW68590   0.743   8.172   1.799
88939SOL    HW168591   0.673   8.200   1.739
88939SOL    HW268592   0.706   8.098   1.846
88940SOL     OW68593   2.111  11.405  13.125
88940SOL    HW168594   2.017  11.422  13.123
88940SOL    HW268595   2.151  11.487  13.097
88941SOL     OW68596   4.596   8.805   7.443
88941SOL    HW168597   4.593   8.780   7.535
88941SOL    HW268598   4.548   8.736   7.397
88942SOL     OW68599   7.613  10.439  14.057
88942SOL    HW168600   7.669  10.404  13.987
88942SOL    HW268601   7.526  10.407  14.036
88943SOL     OW68602   9.736  13.964   3.356
88943SOL    HW168603   9.667  14.027   3.337
88943SOL    HW268604   9.809  14.017   3.388
88944SOL     OW68605   4.900   8.359  11.081
88944SOL    HW168606   4.916   8.451  11.104
88944SOL    HW268607   4.966   8.339  11.015
88945SOL     OW68608   0.798  10.626   4.866
88945SOL    HW168609   0.789  10.702   4.809
88945SOL    HW268610   0.763  10.656   4.951
88946SOL     OW68611   1.960   4.461  10.923
88946SOL    HW168612   1.916   4.430  11.001
88946SOL    HW268613   1.913   4.420  10.850
88947SOL     OW68614   4.231   9.303   3.274
88947SOL    HW168615   4.141   9.335   3.284
88947SOL    HW268616   4.228   9.212   3.303
88948SOL     OW68617   6.186   3.001   0.650
88948SOL    HW168618   6.254   3.060   0.681
88948SOL    HW268619   6.186   3.012   0.555
88949SOL     OW68620   0.647  13.182   7.340
88949SOL    HW168621   0.674  13.274   7.339
88949SOL    HW268622   0.694  13.145   7.415
88950SOL     OW68623   1.936   2.894   5.338
88950SOL    HW168624   2.029   2.913   5.323
88950SOL    HW268625   1.891   2.946   5.271
88951SOL     OW68626  14.592   7.925   1.140
88951SOL    HW168627  14.525   7.866   1.106
88951SOL    HW268628  14.639   7.872   1.206
88952SOL     OW68629   4.417  11.858  10.796
88952SOL    HW168630   4.387  11.768  10.811
88952SOL    HW268631   4.351  11.895  10.737
88953SOL     OW68632  11.634   2.850  12.663
88953SOL    HW168633  11.657   2.759  12.641
88953SOL    HW268634  11.541   2.857  12.642
88954SOL     OW68635   6.964  13.572   8.924
88954SOL    HW168636   6.950  13.577   9.019
88954SOL    HW268637   6.877  13.558   8.888
88955SOL     OW68638   7.843   7.834   9.777
88955SOL    HW168639   7.934   7.805   9.770
88955SOL    HW268640   7.845   7.925   9.747
88956SOL     OW68641   0.488   1.618   5.925
88956SOL    HW168642   0.537   1.655   5.852
88956SOL    HW268643   0.538   1.643   6.003
88957SOL     OW68644  13.149  11.105   9.447
88957SOL    HW168645  13.137  11.012   9.431
88957SOL    HW268646  13.061  11.142   9.444
88958SOL     OW68647   2.220   4.526   4.658
88958SOL    HW168648   2.133   4.487   4.652
88958SOL    HW268649   2.210   4.613   4.619
88959SOL     OW68650  14.821   5.383   4.067
88959SOL    HW168651  14.777   5.421   4.143
88959SOL    HW268652  14.787   5.294   4.061
88960SOL     OW68653  14.534   3.099   6.009
88960SOL    HW168654  14.625   3.088   6.034
88960SOL    HW268655  14.485   3.092   6.091
88961SOL     OW68656  14.761   4.449   9.623
88961SOL    HW168657  14.685   4.416   9.671
88961SOL    HW268658  14.737   4.440   9.530
88962SOL     OW68659   1.486   9.911   6.805
88962SOL    HW168660   1.406   9.896   6.855
88962SOL    HW268661   1.456   9.919   6.714
88963SOL     OW68662   7.130  10.067  14.391
88963SOL    HW168663   7.111   9.977  14.363
88963SOL    HW268664   7.224  10.066  14.412
88964SOL     OW68665  11.415   8.182  11.529
88964SOL    HW168666  11.502   8.187  11.489
88964SOL    HW268667  11.370   8.114  11.480
88965SOL     OW68668  10.117  12.892  10.094
88965SOL    HW168669  10.183  12.848  10.148
88965SOL    HW268670  10.056  12.931  10.157
88966SOL     OW68671   8.157  12.931   9.221
88966SOL    HW168672   8.212  12.855   9.240
88966SOL    HW268673   8.170  12.948   9.128
88967SOL     OW68674   4.882   2.582   7.151
88967SOL    HW168675   4.924   2.572   7.065
88967SOL    HW268676   4.798   2.538   7.142
88968SOL     OW68677   1.311  14.505   2.559
88968SOL    HW168678   1.403  14.497   2.585
88968SOL    HW268679   1.313  14.494   2.464
88969SOL     OW68680   4.729   7.077  13.014
88969SOL    HW168681   4.640   7.080  12.980
88969SOL    HW268682   4.718   7.059  13.108
88970SOL     OW68683   7.719  12.027   0.021
88970SOL    HW168684   7.805  12.008  14.861
88970SOL    HW268685   7.727  11.999   0.113
88971SOL     OW68686  13.620   0.599   1.612
88971SOL    HW168687  13.711   0.574   1.629
88971SOL    HW268688  13.611   0.590   1.517
88972SOL     OW68689   8.123   5.582   6.286
88972SOL    HW168690   8.069   5.515   6.329
88972SOL    HW268691   8.153   5.638   6.358
88973SOL     OW68692  13.120   9.288   7.350
88973SOL    HW168693  13.165   9.361   7.307
88973SOL    HW268694  13.060   9.255   7.283
88974SOL     OW68695   4.944   9.871  12.279
88974SOL    HW168696   4.872   9.930  12.302
88974SOL    HW268697   5.014   9.929  12.249
88975SOL     OW68698   3.902   5.965   1.740
88975SOL    HW168699   3.969   5.953   1.673
88975SOL    HW268700   3.896   5.880   1.783
88976SOL     OW68701  13.979  14.816   2.219
88976SOL    HW168702  13.901  14.761   2.221
88976SOL    HW268703  14.013  14.806   2.130
88977SOL     OW68704   1.747  11.440   1.062
88977SOL    HW168705   1.738  11.345   1.073
88977SOL    HW268706   1.831  11.450   1.016
88978SOL     OW68707   1.277  11.890  10.253
88978SOL    HW168708   1.354  11.944  10.236
88978SOL    HW268709   1.242  11.924  10.336
88979SOL     OW68710   0.233  14.285   6.777
88979SOL    HW168711   0.235  14.204   6.827
88979SOL    HW268712   0.324  14.317   6.781
88980SOL     OW68713  13.748   7.457  10.516
88980SOL    HW168714  13.771   7.434  10.426
88980SOL    HW268715  13.716   7.547  10.509
88981SOL     OW68716   8.728  10.252   6.329
88981SOL    HW168717   8.686  10.266   6.244
88981SOL    HW268718   8.691  10.320   6.386
88982SOL     OW68719  14.260  14.581  14.600
88982SOL    HW168720  14.322  14.570  14.528
88982SOL    HW268721  14.216  14.664  14.582
88983SOL     OW68722   2.598  11.902   9.754
88983SOL    HW168723   2.621  11.819   9.711
88983SOL    HW268724   2.591  11.879   9.846
88984SOL     OW68725  10.272  12.869   2.750
88984SOL    HW168726  10.212  12.942   2.737
88984SOL    HW268727  10.330  12.871   2.675
88985SOL     OW68728   0.740  13.232  12.669
88985SOL    HW168729   0.774  13.182  12.743
88985SOL    HW268730   0.817  13.274  12.631
88986SOL     OW68731   1.417   1.839   1.188
88986SOL    HW168732   1.501   1.847   1.142
88986SOL    HW268733   1.435   1.780   1.261
88987SOL     OW68734   1.148  10.281   6.005
88987SOL    HW168735   1.222  10.291   5.945
88987SOL    HW268736   1.171  10.203   6.057
88988SOL     OW68737   7.327  14.451   2.646
88988SOL    HW168738   7.289  14.371   2.609
88988SOL    HW268739   7.271  14.472   2.720
88989SOL     OW68740   0.735   1.934   4.650
88989SOL    HW168741   0.775   1.907   4.733
88989SOL    HW268742   0.751   2.028   4.646
88990SOL     OW68743   6.794   2.843   5.839
88990SOL    HW168744   6.756   2.931   5.836
88990SOL    HW268745   6.888   2.858   5.845
88991SOL     OW68746   3.348   6.136   8.276
88991SOL    HW168747   3.320   6.118   8.366
88991SOL    HW268748   3.272   6.113   8.222
88992SOL     OW68749   2.330   8.708  14.416
88992SOL    HW168750   2.348   8.790  14.463
88992SOL    HW268751   2.235   8.698  14.421
88993SOL     OW68752  14.311  10.427   1.315
88993SOL    HW168753  14.335  10.491   1.382
88993SOL    HW268754  14.292  10.347   1.365
88994SOL     OW68755   9.061  12.506   5.802
88994SOL    HW168756   9.141  12.535   5.759
88994SOL    HW268757   9.019  12.586   5.832
88995SOL     OW68758   8.228  13.376   1.610
88995SOL    HW168759   8.283  13.454   1.603
88995SOL    HW268760   8.143  13.404   1.576
88996SOL     OW68761   7.318   1.658   0.452
88996SOL    HW168762   7.367   1.623   0.378
88996SOL    HW268763   7.311   1.584   0.513
88997SOL     OW68764   6.015   5.239   3.996
88997SOL    HW168765   6.003   5.193   3.913
88997SOL    HW268766   6.075   5.183   4.046
88998SOL     OW68767   2.179   4.789  10.933
88998SOL    HW168768   2.208   4.713  10.883
88998SOL    HW268769   2.127   4.754  11.005
88999SOL     OW68770   8.225   2.617   0.206
88999SOL    HW168771   8.241   2.522   0.205
88999SOL    HW268772   8.220   2.639   0.299
89000SOL     OW68773  13.611  10.639   0.831
89000SOL    HW168774  13.626  10.587   0.752
89000SOL    HW268775  13.620  10.730   0.802
89001SOL     OW68776   7.902   1.403   5.182
89001SOL    HW168777   7.984   1.435   5.145
89001SOL    HW268778   7.926   1.322   5.226
89002SOL     OW68779  12.295   7.716  10.950
89002SOL    HW168780  12.355   7.666  10.895
89002SOL    HW268781  12.281   7.661  11.027
89003SOL     OW68782  13.053   7.299   9.252
89003SOL    HW168783  13.108   7.334   9.182
89003SOL    HW268784  12.997   7.235   9.208
89004SOL     OW68785  14.181   0.075   1.296
89004SOL    HW168786  14.154  14.862   1.286
89004SOL    HW268787  14.275   0.070   1.314
89005SOL     OW68788   6.359   5.626   6.906
89005SOL    HW168789   6.393   5.662   6.988
89005SOL    HW268790   6.369   5.531   6.916
89006SOL     OW68791  10.126  11.582  10.804
89006SOL    HW168792  10.152  11.638  10.877
89006SOL    HW268793  10.085  11.641  10.741
89007SOL     OW68794   3.608   2.461   6.059
89007SOL    HW168795   3.625   2.536   6.002
89007SOL    HW268796   3.515   2.442   6.045
89008SOL     OW68797   5.771  12.514  13.619
89008SOL    HW168798   5.789  12.434  13.668
89008SOL    HW268799   5.858  12.545  13.591
89009SOL     OW68800   0.584   9.668   7.122
89009SOL    HW168801   0.562   9.625   7.039
89009SOL    HW268802   0.531   9.747   7.123
89010SOL     OW68803   4.022   5.883   0.781
89010SOL    HW168804   3.988   5.970   0.758
89010SOL    HW268805   3.949   5.840   0.826
89011SOL     OW68806  10.741   4.977  12.038
89011SOL    HW168807  10.805   5.006  12.103
89011SOL    HW268808  10.754   4.883  12.032
89012SOL     OW68809  14.465   4.949  13.385
89012SOL    HW168810  14.399   4.944  13.316
89012SOL    HW268811  14.416   4.963  13.465
89013SOL     OW68812   2.198  10.457   1.928
89013SOL    HW168813   2.215  10.393   1.997
89013SOL    HW268814   2.283  10.494   1.907
89014SOL     OW68815   0.887   9.541   9.631
89014SOL    HW168816   0.877   9.497   9.715
89014SOL    HW268817   0.886   9.635   9.654
89015SOL     OW68818   1.888   7.316   1.289
89015SOL    HW168819   1.978   7.344   1.271
89015SOL    HW268820   1.839   7.398   1.297
89016SOL     OW68821   1.672  13.856   4.601
89016SOL    HW168822   1.644  13.934   4.553
89016SOL    HW268823   1.643  13.783   4.546
89017SOL     OW68824  12.960  13.885   3.252
89017SOL    HW168825  13.006  13.833   3.186
89017SOL    HW268826  12.974  13.976   3.226
89018SOL     OW68827   5.230   7.327   5.176
89018SOL    HW168828   5.173   7.267   5.224
89018SOL    HW268829   5.175   7.402   5.156
89019SOL     OW68830  14.808   1.988  14.094
89019SOL    HW168831  14.739   2.054  14.090
89019SOL    HW268832  14.763   1.907  14.117
89020SOL     OW68833  13.389   3.713   8.542
89020SOL    HW168834  13.436   3.795   8.553
89020SOL    HW268835  13.448   3.658   8.491
89021SOL     OW68836   1.216   0.081   3.229
89021SOL    HW168837   1.129   0.075   3.269
89021SOL    HW268838   1.200   0.073   3.135
89022SOL     OW68839   0.334   8.869   7.715
89022SOL    HW168840   0.336   8.929   7.640
89022SOL    HW268841   0.286   8.792   7.683
89023SOL     OW68842  12.815   1.867   2.883
89023SOL    HW168843  12.811   1.937   2.948
89023SOL    HW268844  12.765   1.795   2.921
89024SOL     OW68845   4.965   4.632  11.724
89024SOL    HW168846   4.936   4.546  11.694
89024SOL    HW268847   4.975   4.684  11.644
89025SOL     OW68848   2.480   1.954   9.165
89025SOL    HW168849   2.466   2.048   9.148
89025SOL    HW268850   2.443   1.911   9.088
89026SOL     OW68851   6.837  13.251  10.221
89026SOL    HW168852   6.822  13.170  10.270
89026SOL    HW268853   6.841  13.320  10.288
89027SOL     OW68854  10.289   9.355  11.955
89027SOL    HW168855  10.315   9.434  12.003
89027SOL    HW268856  10.367   9.300  11.957
89028SOL     OW68857  11.420  13.718  14.671
89028SOL    HW168858  11.394  13.706  14.579
89028SOL    HW268859  11.398  13.635  14.713
89029SOL     OW68860  10.124   5.704   4.298
89029SOL    HW168861  10.087   5.791   4.305
89029SOL    HW268862  10.053   5.650   4.264
89030SOL     OW68863   8.700   5.152  10.553
89030SOL    HW168864   8.652   5.216  10.501
89030SOL    HW268865   8.737   5.092  10.488
89031SOL     OW68866  14.519  10.011   7.751
89031SOL    HW168867  14.592   9.954   7.776
89031SOL    HW268868  14.446   9.983   7.807
89032SOL     OW68869  14.085  14.352  10.522
89032SOL    HW168870  13.999  14.389  10.541
89032SOL    HW268871  14.122  14.333  10.608
89033SOL     OW68872   0.466  10.119   8.025
89033SOL    HW168873   0.469  10.119   8.120
89033SOL    HW268874   0.402  10.188   8.003
89034SOL     OW68875  13.376   1.726   2.376
89034SOL    HW168876  13.377   1.633   2.399
89034SOL    HW268877  13.395   1.771   2.459
89035SOL     OW68878   7.593   3.624   7.847
89035SOL    HW168879   7.501   3.599   7.839
89035SOL    HW268880   7.618   3.598   7.935
89036SOL     OW68881   2.052  11.777   2.875
89036SOL    HW168882   2.122  11.836   2.903
89036SOL    HW268883   1.980  11.835   2.849
89037SOL     OW68884   6.591   5.678   6.677
89037SOL    HW168885   6.607   5.593   6.636
89037SOL    HW268886   6.677   5.722   6.675
89038SOL     OW68887  12.495   1.337   9.598
89038SOL    HW168888  12.588   1.318   9.581
89038SOL    HW268889  12.465   1.262   9.650
89039SOL     OW68890   0.829   7.108  13.575
89039SOL    HW168891   0.736   7.096  13.552
89039SOL    HW268892   0.847   7.199  13.554
89040SOL     OW68893   2.798   9.901   5.734
89040SOL    HW168894   2.887   9.900   5.769
89040SOL    HW268895   2.803   9.852   5.653
89041SOL     OW68896   1.577   3.415  13.973
89041SOL    HW168897   1.550   3.396  14.063
89041SOL    HW268898   1.641   3.347  13.952
89042SOL     OW68899   1.123   7.694   6.474
89042SOL    HW168900   1.133   7.691   6.569
89042SOL    HW268901   1.045   7.641   6.457
89043SOL     OW68902  10.513  13.538   8.047
89043SOL    HW168903  10.581  13.594   8.010
89043SOL    HW268904  10.443  13.538   7.981
89044SOL     OW68905   0.535   4.301  13.156
89044SOL    HW168906   0.508   4.227  13.103
89044SOL    HW268907   0.629   4.308  13.143
89045SOL     OW68908   7.641   2.500   5.173
89045SOL    HW168909   7.649   2.550   5.255
89045SOL    HW268910   7.723   2.451   5.167
89046SOL     OW68911  11.636  14.472   9.721
89046SOL    HW168912  11.698  14.468   9.648
89046SOL    HW268913  11.576  14.398   9.706
89047SOL     OW68914   3.260   2.985  13.954
89047SOL    HW168915   3.302   2.949  13.876
89047SOL    HW268916   3.214   3.063  13.922
89048SOL     OW68917  12.632   4.414   4.051
89048SOL    HW168918  12.690   4.486   4.077
89048SOL    HW268919  12.689   4.353   4.005
89049SOL     OW68920  12.500   8.748   9.454
89049SOL    HW168921  12.443   8.802   9.508
89049SOL    HW268922  12.581   8.739   9.505
89050SOL     OW68923  14.689   6.656   2.262
89050SOL    HW168924  14.648   6.680   2.179
89050SOL    HW268925  14.625   6.597   2.303
89051SOL     OW68926  13.833   6.335  14.780
89051SOL    HW168927  13.828   6.334  14.684
89051SOL    HW268928  13.904   6.273  14.800
89052SOL     OW68929   4.919   7.124   0.351
89052SOL    HW168930   4.906   7.124   0.256
89052SOL    HW268931   4.985   7.056   0.367
89053SOL     OW68932  10.860   9.545  10.988
89053SOL    HW168933  10.917   9.618  11.012
89053SOL    HW268934  10.773   9.584  10.979
89054SOL     OW68935   7.062  12.526   0.110
89054SOL    HW168936   7.017  12.602   0.146
89054SOL    HW268937   7.031  12.453   0.164
89055SOL     OW68938   2.633   5.154   2.866
89055SOL    HW168939   2.569   5.120   2.929
89055SOL    HW268940   2.580   5.190   2.795
89056SOL     OW68941  13.436   1.527   0.728
89056SOL    HW168942  13.496   1.578   0.783
89056SOL    HW268943  13.446   1.564   0.641
89057SOL     OW68944   8.162   0.615   6.481
89057SOL    HW168945   8.246   0.575   6.459
89057SOL    HW268946   8.145   0.585   6.571
89058SOL     OW68947   3.765  10.371   5.141
89058SOL    HW168948   3.695  10.332   5.089
89058SOL    HW268949   3.727  10.382   5.228
89059SOL     OW68950   1.147   3.346   3.547
89059SOL    HW168951   1.171   3.255   3.562
89059SOL    HW268952   1.230   3.394   3.549
89060SOL     OW68953   4.393   2.078   6.186
89060SOL    HW168954   4.447   2.023   6.243
89060SOL    HW268955   4.445   2.157   6.173
89061SOL     OW68956   1.176   3.416  13.152
89061SOL    HW168957   1.271   3.403  13.152
89061SOL    HW268958   1.163   3.505  13.119
89062SOL     OW68959   2.753   7.829   5.938
89062SOL    HW168960   2.817   7.899   5.953
89062SOL    HW268961   2.755   7.814   5.844
89063SOL     OW68962   6.306  12.266  11.653
89063SOL    HW168963   6.236  12.214  11.616
89063SOL    HW268964   6.387  12.223  11.624
89064SOL     OW68965   5.059   4.574  13.352
89064SOL    HW168966   4.998   4.565  13.279
89064SOL    HW268967   5.029   4.651  13.399
89065SOL     OW68968   8.735   1.987  12.862
89065SOL    HW168969   8.814   2.037  12.843
89065SOL    HW268970   8.668   2.054  12.880
89066SOL     OW68971   5.457   9.779  12.238
89066SOL    HW168972   5.548   9.754  12.251
89066SOL    HW268973   5.425   9.721  12.170
89067SOL     OW68974  10.380   9.112   3.934
89067SOL    HW168975  10.397   9.027   3.894
89067SOL    HW268976  10.341   9.091   4.019
89068SOL     OW68977   4.659   5.463   8.046
89068SOL    HW168978   4.655   5.558   8.058
89068SOL    HW268979   4.752   5.444   8.033
89069SOL     OW68980   1.763   7.623   0.009
89069SOL    HW168981   1.674   7.602  14.859
89069SOL    HW268982   1.760   7.618   0.105
89070SOL     OW68983  13.057  12.762   4.196
89070SOL    HW168984  13.102  12.818   4.260
89070SOL    HW268985  13.066  12.809   4.113
89071SOL     OW68986  10.353   8.290   0.426
89071SOL    HW168987  10.442   8.301   0.461
89071SOL    HW268988  10.298   8.344   0.483
89072SOL     OW68989   6.641   1.971  12.947
89072SOL    HW168990   6.694   2.008  12.877
89072SOL    HW268991   6.557   1.952  12.906
89073SOL     OW68992  14.082  11.210   8.970
89073SOL    HW168993  14.020  11.173   8.907
89073SOL    HW268994  14.152  11.245   8.916
89074SOL     OW68995   5.630   0.844  13.042
89074SOL    HW168996   5.627   0.752  13.066
89074SOL    HW268997   5.631   0.891  13.125
89075SOL     OW68998   7.146   7.701  10.094
89075SOL    HW168999   7.229   7.658  10.114
89075SOL    HW269000   7.152   7.785  10.139
89076SOL     OW69001   5.998  10.519   2.339
89076SOL    HW169002   6.022  10.520   2.431
89076SOL    HW269003   5.942  10.441   2.329
89077SOL     OW69004   2.211  10.183   5.689
89077SOL    HW169005   2.116  10.182   5.684
89077SOL    HW269006   2.233  10.115   5.753
89078SOL     OW69007  10.627   4.452   3.120
89078SOL    HW169008  10.608   4.512   3.048
89078SOL    HW269009  10.658   4.508   3.191
89079SOL     OW69010   7.113   1.391   2.974
89079SOL    HW169011   7.029   1.349   2.956
89079SOL    HW269012   7.154   1.336   3.042
89080SOL     OW69013  13.651  13.369   9.017
89080SOL    HW169014  13.593  13.317   8.963
89080SOL    HW269015  13.650  13.456   8.977
89081SOL     OW69016   3.740  10.199   7.589
89081SOL    HW169017   3.679  10.125   7.594
89081SOL    HW269018   3.728  10.245   7.672
89082SOL     OW69019   7.441   5.676   4.914
89082SOL    HW169020   7.401   5.762   4.905
89082SOL    HW269021   7.504   5.686   4.985
89083SOL     OW69022   1.003  11.199   5.446
89083SOL    HW169023   0.953  11.198   5.364
89083SOL    HW269024   0.940  11.170   5.513
89084SOL     OW69025  12.461   7.529   0.614
89084SOL    HW169026  12.436   7.606   0.665
89084SOL    HW269027  12.433   7.550   0.525
89085SOL     OW69028   8.275   2.325   0.163
89085SOL    HW169029   8.354   2.280   0.133
89085SOL    HW269030   8.208   2.257   0.164
89086SOL     OW69031   9.700   7.759  13.158
89086SOL    HW169032   9.659   7.810  13.088
89086SOL    HW269033   9.705   7.670  13.123
89087SOL     OW69034   3.165  13.959   5.683
89087SOL    HW169035   3.100  14.015   5.727
89087SOL    HW269036   3.197  13.901   5.753
89088SOL     OW69037   5.140  14.251   8.888
89088SOL    HW169038   5.051  14.221   8.874
89088SOL    HW269039   5.143  14.275   8.981
89089SOL     OW69040  11.949   9.392  11.028
89089SOL    HW169041  11.862   9.430  11.015
89089SOL    HW269042  12.009   9.456  10.990
89090SOL     OW69043   6.351  11.723   5.078
89090SOL    HW169044   6.257  11.708   5.075
89090SOL    HW269045   6.367  11.756   5.166
89091SOL     OW69046  13.344   5.874   1.402
89091SOL    HW169047  13.272   5.871   1.465
89091SOL    HW269048  13.300   5.881   1.317
89092SOL     OW69049   9.227  12.871  14.776
89092SOL    HW169050   9.193  12.827  14.698
89092SOL    HW269051   9.151  12.917  14.813
89093SOL     OW69052   2.739   7.652   4.031
89093SOL    HW169053   2.705   7.639   4.119
89093SOL    HW269054   2.830   7.624   4.035
89094SOL     OW69055   1.870   0.868  10.273
89094SOL    HW169056   1.827   0.953  10.282
89094SOL    HW269057   1.906   0.850  10.360
89095SOL     OW69058   5.844   4.696  11.609
89095SOL    HW169059   5.882   4.737  11.531
89095SOL    HW269060   5.919   4.667  11.660
89096SOL     OW69061  14.480   3.874  11.705
89096SOL    HW169062  14.401   3.831  11.674
89096SOL    HW269063  14.521   3.810  11.763
89097SOL     OW69064   1.804  13.161  11.104
89097SOL    HW169065   1.838  13.136  11.018
89097SOL    HW269066   1.830  13.090  11.162
89098SOL     OW69067   7.305   7.332   8.007
89098SOL    HW169068   7.395   7.302   8.015
89098SOL    HW269069   7.310   7.426   8.022
89099SOL     OW69070  11.155  11.721   6.775
89099SOL    HW169071  11.068  11.714   6.735
89099SOL    HW269072  11.137  11.730   6.869
89100SOL     OW69073  10.382   4.039  10.227
89100SOL    HW169074  10.397   4.110  10.290
89100SOL    HW269075  10.323   3.979  10.272
89101SOL     OW69076   0.051   6.927   2.872
89101SOL    HW169077   0.071   6.992   2.939
89101SOL    HW269078  14.843   6.893   2.897
89102SOL     OW69079  12.079   6.575   2.460
89102SOL    HW169080  12.112   6.528   2.536
89102SOL    HW269081  12.152   6.630   2.432
89103SOL     OW69082   9.516  10.721  13.154
89103SOL    HW169083   9.452  10.651  13.145
89103SOL    HW269084   9.467  10.794  13.191
89104SOL     OW69085   0.869   4.010   3.090
89104SOL    HW169086   0.939   4.057   3.135
89104SOL    HW269087   0.815   3.975   3.160
89105SOL     OW69088  11.743   7.817   6.990
89105SOL    HW169089  11.704   7.754   6.929
89105SOL    HW269090  11.675   7.830   7.056
89106SOL     OW69091   8.881   9.087  13.251
89106SOL    HW169092   8.833   9.168  13.238
89106SOL    HW269093   8.817   9.018  13.238
89107SOL     OW69094   2.687   4.888   1.078
89107SOL    HW169095   2.644   4.811   1.116
89107SOL    HW269096   2.679   4.955   1.146
89108SOL     OW69097   3.794   4.333   1.001
89108SOL    HW169098   3.725   4.335   0.935
89108SOL    HW269099   3.770   4.260   1.058
89109SOL     OW69100  12.928  11.500   9.355
89109SOL    HW169101  12.881  11.576   9.322
89109SOL    HW269102  13.007  11.494   9.301
89110SOL     OW69103   6.787   6.065  11.574
89110SOL    HW169104   6.777   6.133  11.508
89110SOL    HW269105   6.812   5.987  11.524
89111SOL     OW69106   4.262  11.241  11.773
89111SOL    HW169107   4.347  11.284  11.773
89111SOL    HW269108   4.240  11.231  11.865
89112SOL     OW69109   6.773   0.052  13.819
89112SOL    HW169110   6.739  14.841  13.812
89112SOL    HW269111   6.859   0.042  13.861
89113SOL     OW69112  13.795   1.626   7.629
89113SOL    HW169113  13.861   1.651   7.565
89113SOL    HW269114  13.716   1.672   7.601
89114SOL     OW69115  13.994  13.392   8.448
89114SOL    HW169116  14.072  13.448   8.451
89114SOL    HW269117  14.011  13.332   8.374
89115SOL     OW69118   5.954   1.490  11.821
89115SOL    HW169119   5.858   1.492  11.816
89115SOL    HW269120   5.972   1.461  11.911
89116SOL     OW69121  11.925  14.833   9.126
89116SOL    HW169122  11.959   0.023   9.068
89116SOL    HW269123  11.885  14.768   9.068
89117SOL     OW69124  13.867  12.720   6.433
89117SOL    HW169125  13.879  12.631   6.465
89117SOL    HW269126  13.773  12.737   6.443
89118SOL     OW69127  13.707   4.767  10.951
89118SOL    HW169128  13.744   4.823  10.883
89118SOL    HW269129  13.690   4.825  11.024
89119SOL     OW69130   1.216  11.675   4.847
89119SOL    HW169131   1.246  11.727   4.922
89119SOL    HW269132   1.121  11.690   4.844
89120SOL     OW69133  12.256  13.704   3.783
89120SOL    HW169134  12.275  13.661   3.700
89120SOL    HW269135  12.177  13.660   3.815
89121SOL     OW69136   3.997   9.100  13.449
89121SOL    HW169137   4.033   9.055  13.373
89121SOL    HW269138   3.948   9.033  13.497
89122SOL     OW69139   8.779   6.816   6.536
89122SOL    HW169140   8.690   6.805   6.568
89122SOL    HW269141   8.795   6.911   6.542
89123SOL     OW69142  11.558   8.438  10.621
89123SOL    HW169143  11.641   8.440  10.668
89123SOL    HW269144  11.576   8.385  10.543
89124SOL     OW69145   9.031   3.695  11.660
89124SOL    HW169146   8.990   3.609  11.655
89124SOL    HW269147   9.088   3.699  11.584
89125SOL     OW69148  11.672  12.697   0.487
89125SOL    HW169149  11.749  12.661   0.444
89125SOL    HW269150  11.666  12.787   0.455
89126SOL     OW69151   8.493   7.171   3.517
89126SOL    HW169152   8.524   7.225   3.590
89126SOL    HW269153   8.493   7.082   3.551
89127SOL     OW69154   2.157  14.750  14.263
89127SOL    HW169155   2.192  14.811  14.329
89127SOL    HW269156   2.112  14.683  14.314
89128SOL     OW69157   4.646   4.959   4.105
89128SOL    HW169158   4.690   4.874   4.116
89128SOL    HW269159   4.560   4.946   4.145
89129SOL     OW69160   1.358  12.097  14.242
89129SOL    HW169161   1.368  12.192  14.239
89129SOL    HW269162   1.309  12.080  14.322
89130SOL     OW69163  14.045   9.428   1.092
89130SOL    HW169164  13.990   9.507   1.087
89130SOL    HW269165  14.043   9.393   1.003
89131SOL     OW69166  14.370   5.681   1.640
89131SOL    HW169167  14.361   5.590   1.611
89131SOL    HW269168  14.356   5.678   1.734
89132SOL     OW69169   8.402  10.201  10.934
89132SOL    HW169170   8.418  10.109  10.957
89132SOL    HW269171   8.479  10.247  10.968
89133SOL     OW69172   9.896   1.379  13.735
89133SOL    HW169173   9.962   1.440  13.765
89133SOL    HW269174   9.814   1.412  13.771
89134SOL     OW69175  11.286  13.215   7.958
89134SOL    HW169176  11.219  13.189   7.895
89134SOL    HW269177  11.237  13.238   8.037
89135SOL     OW69178  13.212   7.538   3.679
89135SOL    HW169179  13.263   7.552   3.600
89135SOL    HW269180  13.140   7.481   3.652
89136SOL     OW69181   2.310   0.772   6.291
89136SOL    HW169182   2.313   0.824   6.211
89136SOL    HW269183   2.400   0.775   6.324
89137SOL     OW69184  12.249  11.500  11.805
89137SOL    HW169185  12.206  11.550  11.735
89137SOL    HW269186  12.245  11.557  11.881
89138SOL     OW69187   3.393   0.936   0.838
89138SOL    HW169188   3.451   0.999   0.797
89138SOL    HW269189   3.444   0.902   0.912
89139SOL     OW69190  14.644  14.295   0.685
89139SOL    HW169191  14.704  14.232   0.646
89139SOL    HW269192  14.700  14.358   0.729
89140SOL     OW69193   5.469   0.699  12.846
89140SOL    HW169194   5.482   0.794  12.843
89140SOL    HW269195   5.535   0.664  12.787
89141SOL     OW69196   4.878  13.250   2.485
89141SOL    HW169197   4.877  13.191   2.409
89141SOL    HW269198   4.937  13.208   2.547
89142SOL     OW69199   8.425   2.399   2.258
89142SOL    HW169200   8.421   2.372   2.167
89142SOL    HW269201   8.501   2.456   2.263
89143SOL     OW69202   1.698   8.379   5.312
89143SOL    HW169203   1.716   8.401   5.220
89143SOL    HW269204   1.774   8.329   5.340
89144SOL     OW69205   0.211   9.779   4.169
89144SOL    HW169206   0.154   9.840   4.122
89144SOL    HW269207   0.280   9.835   4.206
89145SOL     OW69208   1.207   1.624   2.170
89145SOL    HW169209   1.253   1.594   2.249
89145SOL    HW269210   1.253   1.582   2.098
89146SOL     OW69211   1.692  12.219  12.676
89146SOL    HW169212   1.622  12.251  12.732
89146SOL    HW269213   1.759  12.287  12.680
89147SOL     OW69214  10.512   0.400   0.693
89147SOL    HW169215  10.436   0.398   0.635
89147SOL    HW269216  10.587   0.409   0.635
89148SOL     OW69217   3.509  12.600   9.338
89148SOL    HW169218   3.560  12.622   9.416
89148SOL    HW269219   3.464  12.681   9.314
89149SOL     OW69220   6.174   2.563  12.271
89149SOL    HW169221   6.212   2.605  12.348
89149SOL    HW269222   6.116   2.496  12.305
89150SOL     OW69223  14.804   9.598   8.415
89150SOL    HW169224  14.857   9.544   8.356
89150SOL    HW269225  14.733   9.632   8.360
89151SOL     OW69226  11.209   2.680   6.654
89151SOL    HW169227  11.200   2.764   6.698
89151SOL    HW269228  11.160   2.691   6.572
89152SOL     OW69229   0.718   3.032  10.204
89152SOL    HW169230   0.709   3.053  10.297
89152SOL    HW269231   0.777   2.957  10.202
89153SOL     OW69232   5.632   5.148   1.117
89153SOL    HW169233   5.655   5.147   1.210
89153SOL    HW269234   5.701   5.198   1.075
89154SOL     OW69235   1.183   8.996  12.864
89154SOL    HW169236   1.207   8.935  12.934
89154SOL    HW269237   1.089   8.983  12.852
89155SOL     OW69238  14.018  13.622   8.027
89155SOL    HW169239  14.033  13.647   8.118
89155SOL    HW269240  14.046  13.697   7.976
89156SOL     OW69241  11.625   4.021   4.197
89156SOL    HW169242  11.584   4.051   4.278
89156SOL    HW269243  11.578   4.068   4.128
89157SOL     OW69244   8.377   2.974   1.098
89157SOL    HW169245   8.466   2.995   1.128
89157SOL    HW269246   8.387   2.949   1.006
89158SOL     OW69247   4.084   1.562   2.988
89158SOL    HW169248   3.990   1.543   2.987
89158SOL    HW269249   4.115   1.538   2.901
89159SOL     OW69250  14.578   1.687  10.597
89159SOL    HW169251  14.598   1.653  10.684
89159SOL    HW269252  14.483   1.698  10.596
89160SOL     OW69253  13.935  11.776   4.282
89160SOL    HW169254  13.976  11.696   4.315
89160SOL    HW269255  13.848  11.749   4.255
89161SOL     OW69256  14.078  13.121   5.779
89161SOL    HW169257  14.032  13.037   5.781
89161SOL    HW269258  14.171  13.098   5.782
89162SOL     OW69259   2.890  13.089   1.880
89162SOL    HW169260   2.966  13.090   1.939
89162SOL    HW269261   2.858  12.999   1.884
89163SOL     OW69262   4.010  11.413   4.434
89163SOL    HW169263   4.017  11.323   4.400
89163SOL    HW269264   4.064  11.464   4.374
89164SOL     OW69265   6.688   1.086  11.449
89164SOL    HW169266   6.781   1.065  11.440
89164SOL    HW269267   6.669   1.073  11.542
89165SOL     OW69268   0.363  11.305  12.381
89165SOL    HW169269   0.330  11.218  12.404
89165SOL    HW269270   0.309  11.331  12.306
89166SOL     OW69271   9.590   7.189   8.105
89166SOL    HW169272   9.570   7.281   8.125
89166SOL    HW269273   9.585   7.145   8.190
89167SOL     OW69274  13.467   7.834  13.891
89167SOL    HW169275  13.422   7.904  13.939
89167SOL    HW269276  13.528   7.880  13.834
89168SOL     OW69277  13.701   4.334   7.397
89168SOL    HW169278  13.639   4.295   7.334
89168SOL    HW269279  13.645   4.374   7.463
89169SOL     OW69280   3.794   0.521   0.056
89169SOL    HW169281   3.865   0.570   0.098
89169SOL    HW269282   3.763   0.579  14.864
89170SOL     OW69283   0.374   0.989   2.628
89170SOL    HW169284   0.280   0.976   2.619
89170SOL    HW269285   0.392   0.970   2.720
89171SOL     OW69286  13.942  10.386   0.708
89171SOL    HW169287  13.884  10.446   0.662
89171SOL    HW269288  13.935  10.411   0.799
89172SOL     OW69289   8.224   8.750   0.606
89172SOL    HW169290   8.219   8.665   0.649
89172SOL    HW269291   8.133   8.775   0.591
89173SOL     OW69292   9.470  14.093   2.472
89173SOL    HW169293   9.531  14.088   2.546
89173SOL    HW269294   9.525  14.093   2.394
89174SOL     OW69295   2.908  11.407   5.529
89174SOL    HW169296   2.984  11.421   5.585
89174SOL    HW269297   2.833  11.409   5.588
89175SOL     OW69298   5.022  14.031   9.254
89175SOL    HW169299   5.114  14.046   9.277
89175SOL    HW269300   4.979  14.115   9.273
89176SOL     OW69301   1.656   8.094  11.998
89176SOL    HW169302   1.633   8.121  11.909
89176SOL    HW269303   1.640   8.000  11.999
89177SOL     OW69304   0.360   4.546   3.886
89177SOL    HW169305   0.390   4.461   3.917
89177SOL    HW269306   0.410   4.610   3.937
89178SOL     OW69307   4.851   8.258   9.294
89178SOL    HW169308   4.855   8.170   9.331
89178SOL    HW269309   4.798   8.249   9.215
89179SOL     OW69310   3.468  11.572  12.725
89179SOL    HW169311   3.471  11.665  12.703
89179SOL    HW269312   3.417  11.532  12.655
89180SOL     OW69313  10.605  11.195   3.360
89180SOL    HW169314  10.612  11.100   3.359
89180SOL    HW269315  10.649  11.223   3.280
89181SOL     OW69316  14.751   2.856   1.876
89181SOL    HW169317  14.724   2.765   1.891
89181SOL    HW269318  14.834   2.865   1.924
89182SOL     OW69319   0.502  10.897  10.287
89182SOL    HW169320   0.414  10.867  10.265
89182SOL    HW269321   0.505  10.895  10.383
89183SOL     OW69322  13.033   5.210   2.991
89183SOL    HW169323  13.054   5.143   3.055
89183SOL    HW269324  13.041   5.293   3.039
89184SOL     OW69325   7.387   5.175  10.674
89184SOL    HW169326   7.474   5.140  10.656
89184SOL    HW269327   7.401   5.269  10.685
89185SOL     OW69328  13.732  12.693  10.621
89185SOL    HW169329  13.773  12.610  10.597
89185SOL    HW269330  13.640  12.670  10.637
89186SOL     OW69331   7.577   7.581   6.638
89186SOL    HW169332   7.543   7.640   6.705
89186SOL    HW269333   7.577   7.633   6.557
89187SOL     OW69334  12.662   7.372  13.347
89187SOL    HW169335  12.647   7.402  13.436
89187SOL    HW269336  12.693   7.450  13.300
89188SOL     OW69337   3.522   7.853   7.894
89188SOL    HW169338   3.460   7.894   7.834
89188SOL    HW269339   3.569   7.927   7.933
89189SOL     OW69340   3.924   4.408   9.577
89189SOL    HW169341   3.887   4.403   9.665
89189SOL    HW269342   4.015   4.434   9.592
89190SOL     OW69343   8.558   7.297   3.224
89190SOL    HW169344   8.537   7.389   3.205
89190SOL    HW269345   8.527   7.284   3.314
89191SOL     OW69346   9.495   1.646   1.825
89191SOL    HW169347   9.441   1.677   1.898
89191SOL    HW269348   9.463   1.558   1.807
89192SOL     OW69349  12.675  12.780   7.948
89192SOL    HW169350  12.607  12.731   7.900
89192SOL    HW269351  12.741  12.800   7.882
89193SOL     OW69352   8.254   8.087  13.476
89193SOL    HW169353   8.239   8.166  13.423
89193SOL    HW269354   8.214   8.108  13.560
89194SOL     OW69355   1.504   2.502   7.909
89194SOL    HW169356   1.434   2.498   7.974
89194SOL    HW269357   1.513   2.595   7.890
89195SOL     OW69358   3.122   8.178   7.833
89195SOL    HW169359   3.123   8.267   7.798
89195SOL    HW269360   3.029   8.155   7.836
89196SOL     OW69361  13.220   7.522   5.514
89196SOL    HW169362  13.247   7.500   5.604
89196SOL    HW269363  13.172   7.445   5.484
89197SOL     OW69364   8.054  12.023   3.027
89197SOL    HW169365   8.091  12.005   3.114
89197SOL    HW269366   8.061  12.118   3.018
89198SOL     OW69367  10.893   8.970  12.029
89198SOL    HW169368  10.947   9.049  12.018
89198SOL    HW269369  10.854   8.980  12.116
89199SOL     OW69370   3.680  13.794   6.900
89199SOL    HW169371   3.647  13.777   6.988
89199SOL    HW269372   3.775  13.783   6.907
89200SOL     OW69373   2.023   5.338   5.298
89200SOL    HW169374   2.054   5.247   5.304
89200SOL    HW269375   1.927   5.330   5.294
89201SOL     OW69376  10.160   1.932   3.229
89201SOL    HW169377  10.179   1.883   3.148
89201SOL    HW269378  10.244   1.970   3.254
89202SOL     OW69379   2.575   9.899   6.601
89202SOL    HW169380   2.543   9.850   6.525
89202SOL    HW269381   2.496   9.920   6.652
89203SOL     OW69382   3.654  10.304  11.794
89203SOL    HW169383   3.611  10.242  11.736
89203SOL    HW269384   3.645  10.266  11.882
89204SOL     OW69385   4.850   4.890   8.124
89204SOL    HW169386   4.818   4.828   8.189
89204SOL    HW269387   4.941   4.864   8.110
89205SOL     OW69388   8.913  11.396  11.919
89205SOL    HW169389   8.887  11.370  11.831
89205SOL    HW269390   8.830  11.413  11.964
89206SOL     OW69391   1.088   5.003  13.222
89206SOL    HW169392   1.008   4.992  13.170
89206SOL    HW269393   1.056   5.024  13.310
89207SOL     OW69394   9.173   1.448   1.203
89207SOL    HW169395   9.143   1.363   1.172
89207SOL    HW269396   9.097   1.486   1.247
89208SOL     OW69397   1.270  12.466  11.637
89208SOL    HW169398   1.308  12.407  11.702
89208SOL    HW269399   1.246  12.544  11.686
89209SOL     OW69400  10.778   9.351   9.231
89209SOL    HW169401  10.872   9.343   9.247
89209SOL    HW269402  10.767   9.321   9.141
89210SOL     OW69403  11.426  11.888   3.513
89210SOL    HW169404  11.405  11.824   3.446
89210SOL    HW269405  11.510  11.858   3.549
89211SOL     OW69406   6.815   7.511  11.460
89211SOL    HW169407   6.885   7.552  11.510
89211SOL    HW269408   6.734   7.542  11.500
89212SOL     OW69409   3.058   6.523  12.153
89212SOL    HW169410   3.084   6.608  12.117
89212SOL    HW269411   3.022   6.475  12.078
89213SOL     OW69412   0.245   6.028   3.859
89213SOL    HW169413   0.225   5.958   3.797
89213SOL    HW269414   0.334   6.010   3.888
89214SOL     OW69415   0.738   9.524   4.771
89214SOL    HW169416   0.670   9.507   4.706
89214SOL    HW269417   0.715   9.467   4.844
89215SOL     OW69418  12.918   3.289   6.846
89215SOL    HW169419  13.002   3.282   6.799
89215SOL    HW269420  12.924   3.373   6.891
89216SOL     OW69421   9.084   4.178   0.133
89216SOL    HW169422   9.047   4.140   0.213
89216SOL    HW269423   9.170   4.137   0.125
89217SOL     OW69424   3.538  12.201   0.298
89217SOL    HW169425   3.489  12.283   0.295
89217SOL    HW269426   3.472  12.135   0.320
89218SOL     OW69427   4.935  10.308   2.349
89218SOL    HW169428   4.872  10.251   2.307
89218SOL    HW269429   4.910  10.307   2.442
89219SOL     OW69430   1.102  11.097   1.012
89219SOL    HW169431   1.025  11.040   1.012
89219SOL    HW269432   1.175  11.037   0.994
89220SOL     OW69433  11.272   8.735   3.266
89220SOL    HW169434  11.185   8.701   3.246
89220SOL    HW269435  11.291   8.701   3.354
89221SOL     OW69436   9.867   8.461   5.613
89221SOL    HW169437   9.812   8.532   5.646
89221SOL    HW269438   9.905   8.496   5.532
89222SOL     OW69439   2.512   1.646   9.511
89222SOL    HW169440   2.475   1.633   9.598
89222SOL    HW269441   2.474   1.728   9.480
89223SOL     OW69442   1.211   4.543   9.184
89223SOL    HW169443   1.208   4.453   9.217
89223SOL    HW269444   1.237   4.534   9.093
89224SOL     OW69445   3.621  11.162   3.369
89224SOL    HW169446   3.641  11.153   3.276
89224SOL    HW269447   3.697  11.205   3.406
89225SOL     OW69448   4.090  13.349   8.205
89225SOL    HW169449   4.178  13.385   8.214
89225SOL    HW269450   4.045  13.377   8.285
89226SOL     OW69451  13.788   6.613   3.771
89226SOL    HW169452  13.844   6.683   3.738
89226SOL    HW269453  13.848   6.540   3.786
89227SOL     OW69454   1.628   3.088  14.311
89227SOL    HW169455   1.645   2.997  14.285
89227SOL    HW269456   1.679   3.100  14.391
89228SOL     OW69457  13.126   4.260   1.466
89228SOL    HW169458  13.151   4.197   1.534
89228SOL    HW269459  13.209   4.302   1.441
89229SOL     OW69460   8.739   8.216  12.666
89229SOL    HW169461   8.744   8.125  12.637
89229SOL    HW269462   8.829   8.249  12.655
89230SOL     OW69463   4.167   2.525   5.343
89230SOL    HW169464   4.173   2.503   5.436
89230SOL    HW269465   4.253   2.561   5.322
89231SOL     OW69466   6.957   9.834   4.266
89231SOL    HW169467   6.962   9.766   4.199
89231SOL    HW269468   6.875   9.881   4.246
89232SOL     OW69469  10.666  10.499   6.306
89232SOL    HW169470  10.588  10.447   6.324
89232SOL    HW269471  10.707  10.510   6.392
89233SOL     OW69472   3.144   6.934   2.222
89233SOL    HW169473   3.076   6.961   2.283
89233SOL    HW269474   3.143   6.838   2.225
89234SOL     OW69475   8.458   9.148  11.855
89234SOL    HW169476   8.376   9.104  11.831
89234SOL    HW269477   8.485   9.194  11.775
89235SOL     OW69478   7.551  13.016   2.485
89235SOL    HW169479   7.620  13.011   2.420
89235SOL    HW269480   7.569  13.097   2.533
89236SOL     OW69481   4.750   7.510   1.718
89236SOL    HW169482   4.803   7.554   1.785
89236SOL    HW269483   4.661   7.511   1.752
89237SOL     OW69484   8.514  12.774   0.011
89237SOL    HW169485   8.429  12.757   0.050
89237SOL    HW269486   8.569  12.702   0.040
89238SOL     OW69487   4.108   3.426   8.515
89238SOL    HW169488   4.067   3.398   8.597
89238SOL    HW269489   4.035   3.449   8.458
89239SOL     OW69490   9.616  13.840   8.538
89239SOL    HW169491   9.534  13.794   8.554
89239SOL    HW269492   9.639  13.878   8.622
89240SOL     OW69493   2.136   0.014   5.755
89240SOL    HW169494   2.053  14.848   5.772
89240SOL    HW269495   2.136   0.090   5.813
89241SOL     OW69496   9.341   0.435   7.145
89241SOL    HW169497   9.371   0.481   7.223
89241SOL    HW269498   9.352   0.497   7.074
89242SOL     OW69499   4.062  10.304   5.166
89242SOL    HW169500   4.015  10.307   5.082
89242SOL    HW269501   4.001  10.261   5.226
89243SOL     OW69502   3.989  10.994  13.765
89243SOL    HW169503   4.049  10.946  13.823
89243SOL    HW269504   4.025  11.083  13.762
89244SOL     OW69505   7.524   7.216   1.902
89244SOL    HW169506   7.463   7.150   1.867
89244SOL    HW269507   7.608   7.193   1.863
89245SOL     OW69508  12.135  10.644   8.212
89245SOL    HW169509  12.224  10.611   8.198
89245SOL    HW269510  12.135  10.677   8.301
89246SOL     OW69511   3.144  11.314   7.791
89246SOL    HW169512   3.116  11.290   7.879
89246SOL    HW269513   3.075  11.371   7.757
89247SOL     OW69514   8.947  14.656   0.979
89247SOL    HW169515   8.911  14.743   0.997
89247SOL    HW269516   8.873  14.607   0.944
89248SOL     OW69517   7.399   1.280  11.457
89248SOL    HW169518   7.324   1.333  11.484
89248SOL    HW269519   7.378   1.192  11.487
89249SOL     OW69520   3.744   7.323  12.631
89249SOL    HW169521   3.683   7.279  12.573
89249SOL    HW269522   3.766   7.257  12.697
89250SOL     OW69523   7.113   8.168   0.659
89250SOL    HW169524   7.144   8.237   0.718
89250SOL    HW269525   7.192   8.136   0.615
89251SOL     OW69526  13.105   3.671  10.616
89251SOL    HW169527  13.026   3.649  10.567
89251SOL    HW269528  13.076   3.678  10.707
89252SOL     OW69529   4.163   1.362  10.869
89252SOL    HW169530   4.179   1.305  10.794
89252SOL    HW269531   4.139   1.446  10.831
89253SOL     OW69532  11.348   6.181   1.113
89253SOL    HW169533  11.391   6.129   1.182
89253SOL    HW269534  11.389   6.267   1.119
89254SOL     OW69535  11.407  10.552   5.299
89254SOL    HW169536  11.371  10.476   5.344
89254SOL    HW269537  11.491  10.568   5.343
89255SOL     OW69538   6.109   5.638   3.231
89255SOL    HW169539   6.190   5.686   3.211
89255SOL    HW269540   6.050   5.661   3.159
89256SOL     OW69541   2.237   9.498  14.094
89256SOL    HW169542   2.162   9.452  14.056
89256SOL    HW269543   2.311   9.439  14.080
89257SOL     OW69544  14.660   8.389   2.184
89257SOL    HW169545  14.746   8.424   2.209
89257SOL    HW269546  14.660   8.392   2.089
89258SOL     OW69547   0.604   4.376   8.905
89258SOL    HW169548   0.695   4.392   8.929
89258SOL    HW269549   0.570   4.462   8.881
89259SOL     OW69550  11.421   8.867   6.772
89259SOL    HW169551  11.454   8.842   6.858
89259SOL    HW269552  11.327   8.853   6.777
89260SOL     OW69553  11.558   2.359   8.972
89260SOL    HW169554  11.586   2.443   8.938
89260SOL    HW269555  11.465   2.371   8.993
89261SOL     OW69556   0.092   5.310   9.826
89261SOL    HW169557   0.052   5.223   9.823
89261SOL    HW269558   0.040   5.358   9.890
89262SOL     OW69559  11.052   6.235   1.612
89262SOL    HW169560  10.996   6.165   1.578
89262SOL    HW269561  11.141   6.200   1.605
89263SOL     OW69562   2.746   2.158   5.629
89263SOL    HW169563   2.822   2.185   5.680
89263SOL    HW269564   2.773   2.077   5.585
89264SOL     OW69565   4.301  11.581   9.447
89264SOL    HW169566   4.288  11.569   9.353
89264SOL    HW269567   4.358  11.508   9.472
89265SOL     OW69568  14.690   4.141   7.022
89265SOL    HW169569  14.758   4.075   7.037
89265SOL    HW269570  14.724   4.220   7.065
89266SOL     OW69571   5.843  12.997  11.527
89266SOL    HW169572   5.802  13.037  11.603
89266SOL    HW269573   5.817  12.905  11.531
89267SOL     OW69574   1.871   1.533  11.936
89267SOL    HW169575   1.902   1.546  12.026
89267SOL    HW269576   1.794   1.477  11.945
89268SOL     OW69577   1.522  13.232   7.473
89268SOL    HW169578   1.469  13.213   7.395
89268SOL    HW269579   1.607  13.192   7.455
89269SOL     OW69580  10.129   9.155  13.771
89269SOL    HW169581  10.143   9.061  13.773
89269SOL    HW269582  10.173   9.187  13.851
89270SOL     OW69583   6.957   2.475   7.875
89270SOL    HW169584   6.920   2.547   7.825
89270SOL    HW269585   6.930   2.491   7.966
89271SOL     OW69586  12.410  14.585  13.383
89271SOL    HW169587  12.485  14.528  13.397
89271SOL    HW269588  12.447  14.673  13.377
89272SOL     OW69589   2.242   3.672   4.446
89272SOL    HW169590   2.164   3.656   4.499
89272SOL    HW269591   2.248   3.596   4.388
89273SOL     OW69592  12.420   3.371   8.254
89273SOL    HW169593  12.514   3.363   8.267
89273SOL    HW269594  12.401   3.319   8.176
89274SOL     OW69595   7.487   0.731  12.181
89274SOL    HW169596   7.536   0.813  12.185
89274SOL    HW269597   7.455   0.727  12.090
89275SOL     OW69598   7.809   4.920  12.714
89275SOL    HW169599   7.820   5.011  12.744
89275SOL    HW269600   7.835   4.867  12.790
89276SOL     OW69601   9.850  12.198   4.613
89276SOL    HW169602   9.882  12.168   4.697
89276SOL    HW269603   9.766  12.240   4.633
89277SOL     OW69604  10.662  12.217   0.121
89277SOL    HW169605  10.585  12.170   0.155
89277SOL    HW269606  10.630  12.260   0.041
89278SOL     OW69607   9.163  11.711   7.706
89278SOL    HW169608   9.136  11.647   7.772
89278SOL    HW269609   9.246  11.678   7.673
89279SOL     OW69610  14.565   1.015  10.913
89279SOL    HW169611  14.493   1.063  10.872
89279SOL    HW269612  14.533   0.925  10.922
89280SOL     OW69613   9.657   9.225   3.350
89280SOL    HW169614   9.751   9.213   3.363
89280SOL    HW269615   9.618   9.190   3.431
89281SOL     OW69616   2.211   8.226   5.389
89281SOL    HW169617   2.260   8.174   5.453
89281SOL    HW269618   2.155   8.163   5.344
89282SOL     OW69619  10.736   0.903   4.220
89282SOL    HW169620  10.663   0.965   4.219
89282SOL    HW269621  10.810   0.953   4.187
89283SOL     OW69622   4.466  14.584  14.597
89283SOL    HW169623   4.493  14.606  14.686
89283SOL    HW269624   4.509  14.650  14.542
89284SOL     OW69625  11.080   0.126  10.689
89284SOL    HW169626  11.037   0.198  10.735
89284SOL    HW269627  11.127   0.169  10.617
89285SOL     OW69628   2.773   9.349   6.828
89285SOL    HW169629   2.775   9.426   6.884
89285SOL    HW269630   2.746   9.382   6.742
89286SOL     OW69631   8.291  14.688   9.376
89286SOL    HW169632   8.300  14.595   9.356
89286SOL    HW269633   8.374  14.726   9.347
89287SOL     OW69634  14.511   3.585   9.205
89287SOL    HW169635  14.467   3.564   9.123
89287SOL    HW269636  14.542   3.500   9.238
89288SOL     OW69637   5.610   3.660  10.504
89288SOL    HW169638   5.691   3.712  10.497
89288SOL    HW269639   5.557   3.708  10.567
89289SOL     OW69640  12.723   4.694   9.376
89289SOL    HW169641  12.640   4.711   9.420
89289SOL    HW269642  12.774   4.774   9.388
89290SOL     OW69643  13.456  11.119   7.705
89290SOL    HW169644  13.536  11.088   7.747
89290SOL    HW269645  13.385  11.081   7.757
89291SOL     OW69646  12.920   9.703  14.876
89291SOL    HW169647  12.868   9.700  14.796
89291SOL    HW269648  12.920   9.795   0.024
89292SOL     OW69649  11.424  13.071  10.306
89292SOL    HW169650  11.343  13.116  10.284
89292SOL    HW269651  11.493  13.129  10.275
89293SOL     OW69652   6.393   6.713   2.467
89293SOL    HW169653   6.347   6.640   2.423
89293SOL    HW269654   6.413   6.679   2.554
89294SOL     OW69655   0.247   1.244   7.445
89294SOL    HW169656   0.300   1.165   7.434
89294SOL    HW269657   0.311   1.313   7.463
89295SOL     OW69658   9.505  13.126   0.343
89295SOL    HW169659   9.485  13.119   0.250
89295SOL    HW269660   9.587  13.078   0.353
89296SOL     OW69661   6.307  12.533   6.811
89296SOL    HW169662   6.302  12.437   6.816
89296SOL    HW269663   6.225  12.559   6.769
89297SOL     OW69664   4.111   3.011   1.536
89297SOL    HW169665   4.020   3.041   1.542
89297SOL    HW269666   4.106   2.927   1.492
89298SOL     OW69667   1.986  14.375  10.685
89298SOL    HW169668   2.063  14.419  10.720
89298SOL    HW269669   1.917  14.441  10.688
89299SOL     OW69670   1.986   7.965   0.527
89299SOL    HW169671   1.954   8.055   0.530
89299SOL    HW269672   2.075   7.970   0.562
89300SOL     OW69673   2.021  12.185   0.580
89300SOL    HW169674   1.936  12.201   0.538
89300SOL    HW269675   2.063  12.119   0.525
89301SOL     OW69676   0.793   4.964  14.770
89301SOL    HW169677   0.771   4.939  14.860
89301SOL    HW269678   0.754   5.051  14.760
89302SOL     OW69679   8.257  14.025  14.701
89302SOL    HW169680   8.219  14.049  14.616
89302SOL    HW269681   8.323  13.959  14.680
89303SOL     OW69682   0.255  10.332   6.694
89303SOL    HW169683   0.232  10.262   6.632
89303SOL    HW269684   0.208  10.409   6.662
89304SOL     OW69685  11.283   4.864   8.160
89304SOL    HW169686  11.361   4.889   8.208
89304SOL    HW269687  11.210   4.893   8.215
89305SOL     OW69688   6.875  13.199   9.588
89305SOL    HW169689   6.858  13.293   9.584
89305SOL    HW269690   6.969  13.192   9.601
89306SOL     OW69691   6.281  10.897   0.347
89306SOL    HW169692   6.279  10.993   0.349
89306SOL    HW269693   6.190  10.871   0.357
89307SOL     OW69694   0.401   7.745  11.441
89307SOL    HW169695   0.408   7.825  11.493
89307SOL    HW269696   0.440   7.677  11.495
89308SOL     OW69697   4.817   4.479  14.157
89308SOL    HW169698   4.804   4.424  14.234
89308SOL    HW269699   4.808   4.569  14.190
89309SOL     OW69700   5.489   0.478  10.148
89309SOL    HW169701   5.557   0.532  10.107
89309SOL    HW269702   5.538   0.407  10.190
89310SOL     OW69703  13.011  14.427   6.178
89310SOL    HW169704  12.971  14.367   6.115
89310SOL    HW269705  12.937  14.470   6.221
89311SOL     OW69706   6.922   7.215   8.807
89311SOL    HW169707   6.905   7.309   8.796
89311SOL    HW269708   6.927   7.181   8.718
89312SOL     OW69709  14.137   5.489   9.416
89312SOL    HW169710  14.047   5.479   9.449
89312SOL    HW269711  14.185   5.416   9.454
89313SOL     OW69712   7.817   5.139   0.927
89313SOL    HW169713   7.730   5.178   0.921
89313SOL    HW269714   7.876   5.205   0.891
89314SOL     OW69715  11.966   0.843  14.625
89314SOL    HW169716  12.000   0.847  14.536
89314SOL    HW269717  12.026   0.786  14.672
89315SOL     OW69718  13.087   9.982  12.238
89315SOL    HW169719  13.101   9.983  12.144
89315SOL    HW269720  13.144  10.051  12.272
89316SOL     OW69721   6.275   7.955  12.795
89316SOL    HW169722   6.187   7.932  12.827
89316SOL    HW269723   6.311   7.873  12.762
89317SOL     OW69724   2.853   6.268  13.094
89317SOL    HW169725   2.798   6.199  13.132
89317SOL    HW269726   2.791   6.338  13.072
89318SOL     OW69727   1.229  13.110   6.459
89318SOL    HW169728   1.144  13.134   6.422
89318SOL    HW269729   1.208  13.047   6.528
89319SOL     OW69730   6.159   6.755   5.152
89319SOL    HW169731   6.092   6.713   5.205
89319SOL    HW269732   6.201   6.818   5.212
89320SOL     OW69733  13.764   3.168   3.389
89320SOL    HW169734  13.740   3.226   3.317
89320SOL    HW269735  13.733   3.212   3.468
89321SOL     OW69736   4.823   6.114   2.315
89321SOL    HW169737   4.912   6.097   2.284
89321SOL    HW269738   4.797   6.033   2.359
89322SOL     OW69739   3.808   1.610  14.550
89322SOL    HW169740   3.892   1.634  14.512
89322SOL    HW269741   3.793   1.674  14.620
89323SOL     OW69742   6.860   1.031   7.343
89323SOL    HW169743   6.835   1.036   7.251
89323SOL    HW269744   6.786   1.068   7.390
89324SOL     OW69745   1.468   0.416   7.904
89324SOL    HW169746   1.410   0.364   7.960
89324SOL    HW269747   1.496   0.354   7.836
89325SOL     OW69748   4.082  11.342   7.372
89325SOL    HW169749   3.990  11.370   7.376
89325SOL    HW269750   4.124  11.386   7.446
89326SOL     OW69751   0.901   4.541  11.219
89326SOL    HW169752   0.870   4.509  11.304
89326SOL    HW269753   0.983   4.586  11.239
89327SOL     OW69754  10.923  10.968   8.128
89327SOL    HW169755  10.982  10.929   8.063
89327SOL    HW269756  10.882  11.041   8.082
89328SOL     OW69757   1.140   8.285  13.258
89328SOL    HW169758   1.199   8.350  13.297
89328SOL    HW269759   1.199   8.222  13.217
89329SOL     OW69760   9.234   3.931  12.309
89329SOL    HW169761   9.300   3.862  12.297
89329SOL    HW269762   9.285   4.011  12.325
89330SOL     OW69763  10.216   8.161   2.451
89330SOL    HW169764  10.238   8.069   2.440
89330SOL    HW269765  10.194   8.192   2.363
89331SOL     OW69766  13.748  13.921  13.247
89331SOL    HW169767  13.737  13.927  13.152
89331SOL    HW269768  13.774  13.830  13.261
89332SOL     OW69769   9.005   2.690   5.593
89332SOL    HW169770   8.912   2.683   5.615
89332SOL    HW269771   9.035   2.768   5.638
89333SOL     OW69772   7.178   3.333   6.134
89333SOL    HW169773   7.191   3.358   6.042
89333SOL    HW269774   7.218   3.246   6.140
89334SOL     OW69775   1.273   4.750   1.387
89334SOL    HW169776   1.267   4.713   1.299
89334SOL    HW269777   1.247   4.678   1.445
89335SOL     OW69778   1.216   6.564  14.601
89335SOL    HW169779   1.226   6.471  14.622
89335SOL    HW269780   1.303   6.593  14.575
89336SOL     OW69781   4.721  11.353   2.640
89336SOL    HW169782   4.708  11.310   2.725
89336SOL    HW269783   4.798  11.408   2.652
89337SOL     OW69784   0.768  11.881   1.958
89337SOL    HW169785   0.774  11.834   1.874
89337SOL    HW269786   0.787  11.972   1.936
89338SOL     OW69787   9.015   1.022   2.930
89338SOL    HW169788   9.094   1.077   2.931
89338SOL    HW269789   9.022   0.970   3.010
89339SOL     OW69790   0.542   8.506   8.778
89339SOL    HW169791   0.470   8.568   8.763
89339SOL    HW269792   0.590   8.542   8.852
89340SOL     OW69793   5.527   1.025   0.704
89340SOL    HW169794   5.444   1.020   0.657
89340SOL    HW269795   5.508   1.077   0.782
89341SOL     OW69796  13.698   2.085  13.418
89341SOL    HW169797  13.626   2.072  13.356
89341SOL    HW269798  13.660   2.066  13.504
89342SOL     OW69799  11.065   5.943  14.841
89342SOL    HW169800  10.997   5.998  14.803
89342SOL    HW269801  11.109   6.001   0.026
89343SOL     OW69802  11.740   8.483  13.670
89343SOL    HW169803  11.660   8.488  13.618
89343SOL    HW269804  11.737   8.396  13.711
89344SOL     OW69805  12.360   0.795  11.953
89344SOL    HW169806  12.428   0.735  11.982
89344SOL    HW269807  12.402   0.848  11.885
89345SOL     OW69808   9.971   4.957  13.993
89345SOL    HW169809   9.933   4.990  13.912
89345SOL    HW269810   9.911   4.987  14.062
89346SOL     OW69811   5.569   5.877   9.502
89346SOL    HW169812   5.565   5.892   9.407
89346SOL    HW269813   5.628   5.802   9.512
89347SOL     OW69814   4.537  14.401  13.909
89347SOL    HW169815   4.581  14.376  13.990
89347SOL    HW269816   4.578  14.347  13.841
89348SOL     OW69817   0.625   7.279  13.291
89348SOL    HW169818   0.589   7.367  13.280
89348SOL    HW269819   0.709   7.293  13.337
89349SOL     OW69820   6.336   9.724  12.221
89349SOL    HW169821   6.334   9.694  12.130
89349SOL    HW269822   6.426   9.706  12.249
89350SOL     OW69823  11.067  14.524   4.239
89350SOL    HW169824  11.114  14.498   4.318
89350SOL    HW269825  11.022  14.445   4.210
89351SOL     OW69826   3.707   1.467   0.999
89351SOL    HW169827   3.740   1.418   1.074
89351SOL    HW269828   3.643   1.408   0.958
89352SOL     OW69829   0.266  12.279  11.258
89352SOL    HW169830   0.303  12.356  11.215
89352SOL    HW269831   0.304  12.280  11.345
89353SOL     OW69832   5.620   5.707   5.357
89353SOL    HW169833   5.568   5.694   5.436
89353SOL    HW269834   5.659   5.794   5.368
89354SOL     OW69835   9.887   6.166   5.375
89354SOL    HW169836   9.819   6.201   5.433
89354SOL    HW269837   9.839   6.121   5.306
89355SOL     OW69838  11.507  12.191   0.541
89355SOL    HW169839  11.595  12.166   0.571
89355SOL    HW269840  11.483  12.264   0.598
89356SOL     OW69841   4.625   0.537   0.521
89356SOL    HW169842   4.566   0.591   0.468
89356SOL    HW269843   4.623   0.451   0.480
89357SOL     OW69844   1.509   2.208   0.890
89357SOL    HW169845   1.554   2.136   0.847
89357SOL    HW269846   1.560   2.224   0.970
89358SOL     OW69847  14.600   8.941   6.251
89358SOL    HW169848  14.506   8.931   6.266
89358SOL    HW269849  14.608   9.018   6.195
89359SOL     OW69850   2.319   9.744   8.131
89359SOL    HW169851   2.244   9.713   8.081
89359SOL    HW269852   2.294   9.832   8.160
89360SOL     OW69853   0.526   6.728   5.529
89360SOL    HW169854   0.490   6.724   5.618
89360SOL    HW269855   0.561   6.817   5.521
89361SOL     OW69856   1.954   1.604   3.377
89361SOL    HW169857   2.002   1.644   3.305
89361SOL    HW269858   1.887   1.668   3.400
89362SOL     OW69859   3.342   3.177   5.556
89362SOL    HW169860   3.283   3.212   5.623
89362SOL    HW269861   3.297   3.101   5.520
89363SOL     OW69862  11.656   4.027  10.448
89363SOL    HW169863  11.710   3.960  10.491
89363SOL    HW269864  11.566   3.998  10.463
89364SOL     OW69865   0.440  14.322   3.527
89364SOL    HW169866   0.403  14.234   3.521
89364SOL    HW269867   0.467  14.342   3.437
89365SOL     OW69868   2.229   7.592   3.289
89365SOL    HW169869   2.299   7.648   3.256
89365SOL    HW269870   2.265   7.555   3.370
89366SOL     OW69871  13.350  10.901   0.801
89366SOL    HW169872  13.319  10.992   0.794
89366SOL    HW269873  13.426  10.897   0.744
89367SOL     OW69874   2.350   7.060   7.355
89367SOL    HW169875   2.426   7.004   7.371
89367SOL    HW269876   2.304   7.063   7.439
89368SOL     OW69877  11.445   2.588  14.807
89368SOL    HW169878  11.458   2.531   0.005
89368SOL    HW269879  11.403   2.666  14.843
89369SOL     OW69880   7.725   3.232  11.863
89369SOL    HW169881   7.726   3.137  11.854
89369SOL    HW269882   7.692   3.264  11.779
89370SOL     OW69883   1.824   3.591  12.957
89370SOL    HW169884   1.803   3.517  12.900
89370SOL    HW269885   1.910   3.571  12.993
89371SOL     OW69886  11.326  13.537   1.132
89371SOL    HW169887  11.293  13.458   1.089
89371SOL    HW269888  11.278  13.609   1.093
89372SOL     OW69889  14.582   7.647   0.164
89372SOL    HW169890  14.555   7.735   0.191
89372SOL    HW269891  14.654   7.663   0.102
89373SOL     OW69892   0.727  10.616   8.172
89373SOL    HW169893   0.782  10.694   8.170
89373SOL    HW269894   0.774  10.554   8.228
89374SOL     OW69895  10.136  14.696   9.426
89374SOL    HW169896  10.171  14.774   9.382
89374SOL    HW269897  10.213  14.655   9.465
89375SOL     OW69898  14.625  10.494   0.344
89375SOL    HW169899  14.567  10.560   0.306
89375SOL    HW269900  14.581  10.465   0.423
89376SOL     OW69901   0.702   8.675   4.083
89376SOL    HW169902   0.648   8.727   4.023
89376SOL    HW269903   0.705   8.727   4.163
89377SOL     OW69904  11.062   5.767   5.648
89377SOL    HW169905  11.057   5.733   5.559
89377SOL    HW269906  10.982   5.819   5.658
89378SOL     OW69907  13.048   4.250   6.759
89378SOL    HW169908  13.101   4.324   6.729
89378SOL    HW269909  12.977   4.290   6.809
89379SOL     OW69910   9.259  13.494   1.401
89379SOL    HW169911   9.212  13.533   1.328
89379SOL    HW269912   9.207  13.517   1.478
89380SOL     OW69913  13.942   8.569   3.003
89380SOL    HW169914  13.973   8.659   3.001
89380SOL    HW269915  13.884   8.565   3.079
89381SOL     OW69916  13.753  11.390   8.241
89381SOL    HW169917  13.795  11.381   8.327
89381SOL    HW269918  13.801  11.329   8.184
89382SOL     OW69919  13.772   8.286  11.711
89382SOL    HW169920  13.856   8.265  11.670
89382SOL    HW269921  13.713   8.216  11.682
89383SOL     OW69922  10.325   5.679  10.512
89383SOL    HW169923  10.285   5.741  10.573
89383SOL    HW269924  10.251   5.634  10.473
89384SOL     OW69925  14.116   8.028  14.051
89384SOL    HW169926  14.105   7.951  13.995
89384SOL    HW269927  14.039   8.082  14.033
89385SOL     OW69928   9.382   1.197   7.433
89385SOL    HW169929   9.414   1.256   7.501
89385SOL    HW269930   9.288   1.190   7.449
89386SOL     OW69931  12.437   3.639   8.999
89386SOL    HW169932  12.407   3.646   9.089
89386SOL    HW269933  12.414   3.551   8.972
89387SOL     OW69934   8.695  14.142   7.660
89387SOL    HW169935   8.768  14.178   7.710
89387SOL    HW269936   8.677  14.207   7.592
89388SOL     OW69937  12.939   3.265   1.439
89388SOL    HW169938  12.938   3.247   1.533
89388SOL    HW269939  12.930   3.360   1.432
89389SOL     OW69940  12.889   4.504   6.509
89389SOL    HW169941  12.931   4.517   6.424
89389SOL    HW269942  12.954   4.533   6.573
89390SOL     OW69943  12.738   2.587   8.842
89390SOL    HW169944  12.770   2.571   8.754
89390SOL    HW269945  12.745   2.682   8.854
89391SOL     OW69946   7.900   6.178  11.363
89391SOL    HW169947   7.817   6.205  11.402
89391SOL    HW269948   7.950   6.143  11.437
89392SOL     OW69949   6.303  13.750   3.675
89392SOL    HW169950   6.245  13.707   3.613
89392SOL    HW269951   6.383  13.769   3.625
89393SOL     OW69952   2.261  13.564   8.492
89393SOL    HW169953   2.254  13.659   8.503
89393SOL    HW269954   2.181  13.529   8.531
89394SOL     OW69955   2.970  13.817  11.694
89394SOL    HW169956   2.915  13.888  11.661
89394SOL    HW269957   3.015  13.854  11.770
89395SOL     OW69958   6.999  11.484   2.204
89395SOL    HW169959   7.081  11.534   2.205
89395SOL    HW269960   6.989  11.456   2.113
89396SOL     OW69961   6.635   0.700   2.624
89396SOL    HW169962   6.621   0.786   2.586
89396SOL    HW269963   6.707   0.713   2.687
89397SOL     OW69964  10.795  14.434   0.183
89397SOL    HW169965  10.836  14.520   0.182
89397SOL    HW269966  10.735  14.437   0.258
89398SOL     OW69967   2.810  12.583  10.082
89398SOL    HW169968   2.751  12.636  10.135
89398SOL    HW269969   2.894  12.630  10.085
89399SOL     OW69970   1.208  12.678   1.185
89399SOL    HW169971   1.162  12.715   1.110
89399SOL    HW269972   1.234  12.590   1.157
89400SOL     OW69973   9.320  14.118  13.380
89400SOL    HW169974   9.363  14.092  13.298
89400SOL    HW269975   9.349  14.208  13.395
89401SOL     OW69976   9.376  12.845   1.289
89401SOL    HW169977   9.334  12.810   1.368
89401SOL    HW269978   9.348  12.786   1.219
89402SOL     OW69979   3.544  10.066   8.259
89402SOL    HW169980   3.573  10.025   8.340
89402SOL    HW269981   3.608  10.135   8.243
89403SOL     OW69982   3.681   3.416   8.810
89403SOL    HW169983   3.589   3.442   8.816
89403SOL    HW269984   3.696   3.361   8.886
89404SOL     OW69985   7.763   2.485   6.394
89404SOL    HW169986   7.696   2.539   6.354
89404SOL    HW269987   7.776   2.522   6.481
89405SOL     OW69988  12.173   2.204  13.993
89405SOL    HW169989  12.088   2.159  13.992
89405SOL    HW269990  12.236   2.135  14.011
89406SOL     OW69991  12.484   3.960  12.569
89406SOL    HW169992  12.423   3.995  12.504
89406SOL    HW269993  12.460   3.868  12.578
89407SOL     OW69994   1.724   3.464   9.439
89407SOL    HW169995   1.745   3.377   9.473
89407SOL    HW269996   1.733   3.522   9.515
89408SOL     OW69997  10.030  10.695   9.400
89408SOL    HW169998  10.062  10.628   9.460
89408SOL    HW269999  10.076  10.775   9.427
89409SOL     OW70000   6.452   3.715   4.695
89409SOL    HW170001   6.547   3.708   4.704
89409SOL    HW270002   6.419   3.709   4.784
89410SOL     OW70003  10.490  11.813  14.818
89410SOL    HW170004  10.446  11.739  14.861
89410SOL    HW270005  10.487  11.791  14.725
89411SOL     OW70006   4.482  13.162   0.525
89411SOL    HW170007   4.482  13.170   0.430
89411SOL    HW270008   4.515  13.246   0.556
89412SOL     OW70009  13.570   8.084   1.657
89412SOL    HW170010  13.549   8.144   1.728
89412SOL    HW270011  13.666   8.080   1.657
89413SOL     OW70012   4.830   9.748   6.701
89413SOL    HW170013   4.918   9.738   6.666
89413SOL    HW270014   4.831   9.832   6.746
89414SOL     OW70015   0.488   8.423   2.168
89414SOL    HW170016   0.568   8.402   2.216
89414SOL    HW270017   0.418   8.379   2.216
89415SOL     OW70018  13.333   7.805  14.190
89415SOL    HW170019  13.401   7.744  14.220
89415SOL    HW270020  13.267   7.749  14.150
89416SOL     OW70021   7.847   8.338  12.387
89416SOL    HW170022   7.911   8.408  12.405
89416SOL    HW270023   7.803   8.323  12.471
89417SOL     OW70024   5.491   3.874  10.689
89417SOL    HW170025   5.470   3.964  10.665
89417SOL    HW270026   5.430   3.852  10.760
89418SOL     OW70027   6.063  11.639   8.316
89418SOL    HW170028   6.111  11.690   8.251
89418SOL    HW270029   6.130  11.603   8.374
89419SOL     OW70030   0.932   8.272   4.609
89419SOL    HW170031   1.012   8.264   4.556
89419SOL    HW270032   0.861   8.253   4.548
89420SOL     OW70033   1.185   5.362   0.031
89420SOL    HW170034   1.271   5.346   0.068
89420SOL    HW270035   1.152   5.438   0.078
89421SOL     OW70036  12.650   4.443   4.380
89421SOL    HW170037  12.574   4.456   4.323
89421SOL    HW270038  12.632   4.359   4.423
89422SOL     OW70039   8.601   7.431  12.191
89422SOL    HW170040   8.561   7.444  12.105
89422SOL    HW270041   8.674   7.372  12.174
89423SOL     OW70042   9.623   7.470   5.812
89423SOL    HW170043   9.573   7.511   5.883
89423SOL    HW270044   9.715   7.491   5.832
89424SOL     OW70045   8.723   4.729   8.296
89424SOL    HW170046   8.679   4.687   8.222
89424SOL    HW270047   8.658   4.789   8.332
89425SOL     OW70048   2.464  14.730   1.729
89425SOL    HW170049   2.528  14.782   1.681
89425SOL    HW270050   2.514  14.690   1.801
89426SOL     OW70051   5.834  14.110   5.913
89426SOL    HW170052   5.929  14.096   5.906
89426SOL    HW270053   5.806  14.050   5.982
89427SOL     OW70054   4.400   1.381  11.776
89427SOL    HW170055   4.461   1.314  11.806
89427SOL    HW270056   4.456   1.452  11.745
89428SOL     OW70057  10.661   0.702  14.358
89428SOL    HW170058  10.704   0.782  14.326
89428SOL    HW270059  10.605   0.732  14.429
89429SOL     OW70060   7.678  13.520  13.652
89429SOL    HW170061   7.738  13.447  13.636
89429SOL    HW270062   7.643  13.541  13.565
89430SOL     OW70063   8.246   5.046   3.938
89430SOL    HW170064   8.240   5.106   3.864
89430SOL    HW270065   8.327   4.997   3.923
89431SOL     OW70066   3.014  13.817   3.448
89431SOL    HW170067   3.042  13.737   3.405
89431SOL    HW270068   2.931  13.794   3.490
89432SOL     OW70069  10.460   6.701  13.369
89432SOL    HW170070  10.426   6.771  13.425
89432SOL    HW270071  10.466   6.625  13.427
89433SOL     OW70072   9.656  13.001  10.969
89433SOL    HW170073   9.600  13.069  10.931
89433SOL    HW270074   9.601  12.923  10.971
89434SOL     OW70075  10.769   5.933   1.813
89434SOL    HW170076  10.819   5.929   1.895
89434SOL    HW270077  10.688   5.886   1.832
89435SOL     OW70078   8.383  11.626   9.965
89435SOL    HW170079   8.363  11.627  10.058
89435SOL    HW270080   8.376  11.534   9.940
89436SOL     OW70081  11.535  11.840  14.805
89436SOL    HW170082  11.503  11.760  14.847
89436SOL    HW270083  11.610  11.811  14.752
89437SOL     OW70084   1.638  12.619  12.830
89437SOL    HW170085   1.710  12.680  12.810
89437SOL    HW270086   1.560  12.675  12.832
89438SOL     OW70087   2.809   3.033   5.771
89438SOL    HW170088   2.736   3.047   5.710
89438SOL    HW270089   2.796   2.944   5.804
89439SOL     OW70090   1.108  12.436   0.575
89439SOL    HW170091   1.083  12.510   0.520
89439SOL    HW270092   1.029  12.414   0.624
89440SOL     OW70093  13.800   6.951   4.191
89440SOL    HW170094  13.872   7.008   4.165
89440SOL    HW270095  13.805   6.877   4.130
89441SOL     OW70096  12.648   0.367  12.175
89441SOL    HW170097  12.659   0.306  12.249
89441SOL    HW270098  12.731   0.362  12.128
89442SOL     OW70099   5.465   9.345   3.952
89442SOL    HW170100   5.394   9.379   3.897
89442SOL    HW270101   5.539   9.403   3.935
89443SOL     OW70102   7.275  13.812   3.269
89443SOL    HW170103   7.221  13.825   3.347
89443SOL    HW270104   7.288  13.718   3.264
89444SOL     OW70105   0.094  12.492   7.343
89444SOL    HW170106   0.079  12.491   7.248
89444SOL    HW270107   0.088  12.399   7.368
89445SOL     OW70108   0.370   0.888   2.897
89445SOL    HW170109   0.323   0.921   2.973
89445SOL    HW270110   0.380   0.794   2.914
89446SOL     OW70111  11.160   7.065   4.909
89446SOL    HW170112  11.235   7.023   4.867
89446SOL    HW270113  11.107   7.098   4.836
89447SOL     OW70114  10.911   4.733   3.136
89447SOL    HW170115  10.861   4.806   3.174
89447SOL    HW270116  10.846   4.680   3.091
89448SOL     OW70117  14.870   6.390   0.318
89448SOL    HW170118   0.069   6.439   0.345
89448SOL    HW270119  14.817   6.383   0.397
89449SOL     OW70120  12.286   4.670   8.382
89449SOL    HW170121  12.263   4.679   8.474
89449SOL    HW270122  12.336   4.589   8.377
89450SOL     OW70123   8.628   8.648   0.623
89450SOL    HW170124   8.552   8.678   0.573
89450SOL    HW270125   8.639   8.556   0.597
89451SOL     OW70126   8.012   5.776   3.320
89451SOL    HW170127   8.073   5.713   3.281
89451SOL    HW270128   7.926   5.734   3.312
89452SOL     OW70129   5.604  12.800   8.333
89452SOL    HW170130   5.696  12.789   8.311
89452SOL    HW270131   5.561  12.723   8.296
89453SOL     OW70132   0.643   9.405   8.775
89453SOL    HW170133   0.616   9.332   8.719
89453SOL    HW270134   0.721   9.440   8.734
89454SOL     OW70135   9.848   2.674  14.032
89454SOL    HW170136   9.838   2.729  13.955
89454SOL    HW270137   9.905   2.603  14.003
89455SOL     OW70138   3.354   2.123   6.128
89455SOL    HW170139   3.352   2.122   6.032
89455SOL    HW270140   3.429   2.069   6.151
89456SOL     OW70141   7.622   8.463   9.472
89456SOL    HW170142   7.682   8.402   9.429
89456SOL    HW270143   7.678   8.518   9.527
89457SOL     OW70144   6.841   8.614   9.901
89457SOL    HW170145   6.781   8.682   9.872
89457SOL    HW270146   6.928   8.654   9.893
89458SOL     OW70147   2.448  12.255  11.319
89458SOL    HW170148   2.423  12.277  11.229
89458SOL    HW270149   2.523  12.312  11.338
89459SOL     OW70150   1.422   7.062   7.353
89459SOL    HW170151   1.516   7.062   7.368
89459SOL    HW270152   1.394   7.152   7.371
89460SOL     OW70153  13.744   4.919   4.680
89460SOL    HW170154  13.744   4.829   4.711
89460SOL    HW270155  13.784   4.914   4.593
89461SOL     OW70156   0.873   0.094  11.922
89461SOL    HW170157   0.803   0.127  11.979
89461SOL    HW270158   0.954   0.112  11.970
89462SOL     OW70159   1.769  14.786   9.826
89462SOL    HW170160   1.724  14.803   9.743
89462SOL    HW270161   1.846  14.843   9.823
89463SOL     OW70162   3.137  10.786  10.295
89463SOL    HW170163   3.207  10.850  10.281
89463SOL    HW270164   3.183  10.702  10.306
89464SOL     OW70165   6.689   7.922  10.427
89464SOL    HW170166   6.767   7.978  10.430
89464SOL    HW270167   6.697   7.866  10.505
89465SOL     OW70168   6.839   4.251  13.979
89465SOL    HW170169   6.808   4.219  13.894
89465SOL    HW270170   6.900   4.184  14.008
89466SOL     OW70171  11.792   6.961   9.390
89466SOL    HW170172  11.812   6.985   9.480
89466SOL    HW270173  11.720   6.898   9.397
89467SOL     OW70174   8.944   4.857  14.138
89467SOL    HW170175   9.032   4.828  14.165
89467SOL    HW270176   8.887   4.783  14.157
89468SOL     OW70177   3.138   1.797   2.326
89468SOL    HW170178   3.083   1.798   2.404
89468SOL    HW270179   3.225   1.822   2.358
89469SOL     OW70180   7.306   5.199   6.989
89469SOL    HW170181   7.230   5.157   7.029
89469SOL    HW270182   7.359   5.127   6.956
89470SOL     OW70183  14.546  11.965   6.990
89470SOL    HW170184  14.524  12.043   6.938
89470SOL    HW270185  14.528  11.891   6.931
89471SOL     OW70186   6.312   0.411   1.350
89471SOL    HW170187   6.290   0.496   1.388
89471SOL    HW270188   6.368   0.432   1.275
89472SOL     OW70189  11.048   0.142   0.435
89472SOL    HW170190  11.102   0.065   0.447
89472SOL    HW270191  11.021   0.166   0.524
89473SOL     OW70192  13.759   0.112   6.881
89473SOL    HW170193  13.716   0.064   6.810
89473SOL    HW270194  13.748   0.056   6.958
89474SOL     OW70195  11.592  10.544   7.816
89474SOL    HW170196  11.651  10.619   7.807
89474SOL    HW270197  11.599  10.519   7.908
89475SOL     OW70198   2.759  13.054   7.820
89475SOL    HW170199   2.785  13.112   7.892
89475SOL    HW270200   2.800  12.970   7.841
89476SOL     OW70201  14.701   2.899   8.033
89476SOL    HW170202  14.710   2.895   8.128
89476SOL    HW270203  14.665   2.814   8.008
89477SOL     OW70204   9.227   0.744  13.364
89477SOL    HW170205   9.166   0.677  13.397
89477SOL    HW270206   9.173   0.799  13.306
89478SOL     OW70207   7.652   0.152  13.859
89478SOL    HW170208   7.709   0.219  13.821
89478SOL    HW270209   7.630   0.185  13.946
89479SOL     OW70210   7.471   2.055  10.233
89479SOL    HW170211   7.559   2.074  10.199
89479SOL    HW270212   7.412   2.093  10.169
89480SOL     OW70213   0.765   1.458  14.398
89480SOL    HW170214   0.806   1.475  14.313
89480SOL    HW270215   0.782   1.365  14.415
89481SOL     OW70216   1.343   3.884   6.859
89481SOL    HW170217   1.250   3.899   6.845
89481SOL    HW270218   1.374   3.963   6.903
89482SOL     OW70219   3.806   5.345  11.849
89482SOL    HW170220   3.783   5.368  11.939
89482SOL    HW270221   3.814   5.250  11.850
89483SOL     OW70222   9.530   9.395  12.713
89483SOL    HW170223   9.599   9.451  12.746
89483SOL    HW270224   9.457   9.408  12.773
89484SOL     OW70225   6.674  10.985  14.386
89484SOL    HW170226   6.617  10.928  14.437
89484SOL    HW270227   6.728  10.925  14.335
89485SOL     OW70228   0.666  12.574   4.352
89485SOL    HW170229   0.718  12.622   4.288
89485SOL    HW270230   0.729  12.515   4.395
89486SOL     OW70231   7.940   3.835   5.493
89486SOL    HW170232   7.896   3.905   5.540
89486SOL    HW270233   7.889   3.756   5.514
89487SOL     OW70234   1.766  13.160   3.666
89487SOL    HW170235   1.834  13.212   3.623
89487SOL    HW270236   1.709  13.225   3.708
89488SOL     OW70237  14.010   9.139   2.693
89488SOL    HW170238  14.101   9.135   2.662
89488SOL    HW270239  14.017   9.175   2.782
89489SOL     OW70240   8.837  13.391   0.462
89489SOL    HW170241   8.875  13.478   0.469
89489SOL    HW270242   8.755  13.397   0.512
89490SOL     OW70243   8.075   2.173  10.154
89490SOL    HW170244   8.080   2.269  10.146
89490SOL    HW270245   7.996   2.157  10.205
89491SOL     OW70246   5.928   0.128   8.922
89491SOL    HW170247   5.961   0.074   8.994
89491SOL    HW270248   5.941   0.074   8.844
89492SOL     OW70249   3.331   5.445   4.740
89492SOL    HW170250   3.279   5.511   4.694
89492SOL    HW270251   3.271   5.405   4.802
89493SOL     OW70252   8.759  11.242   9.407
89493SOL    HW170253   8.780  11.288   9.325
89493SOL    HW270254   8.790  11.153   9.392
89494SOL     OW70255   8.758  11.282   0.742
89494SOL    HW170256   8.746  11.362   0.691
89494SOL    HW270257   8.733  11.307   0.831
89495SOL     OW70258   7.091  10.739   6.233
89495SOL    HW170259   7.053  10.678   6.170
89495SOL    HW270260   7.055  10.711   6.317
89496SOL     OW70261   6.908   3.942  14.828
89496SOL    HW170262   6.812   3.944  14.822
89496SOL    HW270263   6.937   4.001  14.759
89497SOL     OW70264   3.215   9.863   3.223
89497SOL    HW170265   3.298   9.852   3.269
89497SOL    HW270266   3.193   9.955   3.234
89498SOL     OW70267   2.045   6.318   1.683
89498SOL    HW170268   1.985   6.313   1.757
89498SOL    HW270269   2.036   6.234   1.639
89499SOL     OW70270   2.951   6.981   4.656
89499SOL    HW170271   2.938   6.967   4.562
89499SOL    HW270272   3.043   6.955   4.671
89500SOL     OW70273   6.040   3.032  12.079
89500SOL    HW170274   6.126   3.065  12.050
89500SOL    HW270275   6.040   3.046  12.173
89501SOL     OW70276   5.648   3.635   3.852
89501SOL    HW170277   5.565   3.681   3.841
89501SOL    HW270278   5.702   3.665   3.778
89502SOL     OW70279   6.495   4.269   5.997
89502SOL    HW170280   6.405   4.255   6.028
89502SOL    HW270281   6.522   4.352   6.036
89503SOL     OW70282   2.276  12.784   4.484
89503SOL    HW170283   2.226  12.740   4.552
89503SOL    HW270284   2.332  12.846   4.531
89504SOL     OW70285   1.539   0.307  11.715
89504SOL    HW170286   1.453   0.322  11.677
89504SOL    HW270287   1.526   0.315  11.809
89505SOL     OW70288   2.651   3.418  14.533
89505SOL    HW170289   2.560   3.395  14.518
89505SOL    HW270290   2.696   3.389  14.453
89506SOL     OW70291   1.640   8.326   0.972
89506SOL    HW170292   1.728   8.303   1.004
89506SOL    HW270293   1.656   8.368   0.887
89507SOL     OW70294   1.415   0.102   1.292
89507SOL    HW170295   1.437   0.150   1.213
89507SOL    HW270296   1.419   0.167   1.362
89508SOL     OW70297   1.990  10.286   4.374
89508SOL    HW170298   1.927  10.310   4.441
89508SOL    HW270299   1.941  10.291   4.292
89509SOL     OW70300   4.708   5.101   2.371
89509SOL    HW170301   4.670   5.140   2.292
89509SOL    HW270302   4.770   5.036   2.338
89510SOL     OW70303   6.254  11.177   0.115
89510SOL    HW170304   6.236  11.234   0.190
89510SOL    HW270305   6.320  11.224   0.063
89511SOL     OW70306   1.169   6.892   5.222
89511SOL    HW170307   1.215   6.814   5.194
89511SOL    HW270308   1.130   6.927   5.142
89512SOL     OW70309  13.235  13.758   9.771
89512SOL    HW170310  13.288  13.693   9.725
89512SOL    HW270311  13.296  13.828   9.793
89513SOL     OW70312   7.579   2.940  12.603
89513SOL    HW170313   7.575   3.036  12.593
89513SOL    HW270314   7.492   2.916  12.633
89514SOL     OW70315   4.903   5.359  14.354
89514SOL    HW170316   4.959   5.329  14.282
89514SOL    HW270317   4.868   5.443  14.324
89515SOL     OW70318   0.201  11.399  10.163
89515SOL    HW170319   0.123  11.441  10.128
89515SOL    HW270320   0.256  11.471  10.193
89516SOL     OW70321   2.715   0.505   5.199
89516SOL    HW170322   2.758   0.557   5.266
89516SOL    HW270323   2.629   0.547   5.189
89517SOL     OW70324   2.954   8.320  12.651
89517SOL    HW170325   2.869   8.278  12.663
89517SOL    HW270326   2.937   8.414  12.665
89518SOL     OW70327  13.493   9.001   2.569
89518SOL    HW170328  13.475   9.036   2.656
89518SOL    HW270329  13.578   8.959   2.577
89519SOL     OW70330   3.432   7.758  14.055
89519SOL    HW170331   3.436   7.792  14.144
89519SOL    HW270332   3.371   7.684  14.060
89520SOL     OW70333  12.047  10.428   5.007
89520SOL    HW170334  11.968  10.389   4.970
89520SOL    HW270335  12.081  10.362   5.068
89521SOL     OW70336   9.065   4.046   3.166
89521SOL    HW170337   8.986   4.096   3.183
89521SOL    HW270338   9.034   3.957   3.149
89522SOL     OW70339   2.913   9.441  14.478
89522SOL    HW170340   2.981   9.488  14.430
89522SOL    HW270341   2.960   9.371  14.524
89523SOL     OW70342   0.942   0.030  14.463
89523SOL    HW170343   0.982   0.115  14.481
89523SOL    HW270344   0.885   0.047  14.388
89524SOL     OW70345   1.709  10.028   8.878
89524SOL    HW170346   1.740  10.113   8.911
89524SOL    HW270347   1.670  10.049   8.793
89525SOL     OW70348  11.088   0.153  11.044
89525SOL    HW170349  11.049   0.212  10.980
89525SOL    HW270350  11.046   0.176  11.127
89526SOL     OW70351   0.012  11.520  11.342
89526SOL    HW170352  14.849  11.468  11.411
89526SOL    HW270353   0.006  11.610  11.374
89527SOL     OW70354   9.865   8.090  11.244
89527SOL    HW170355   9.936   8.095  11.308
89527SOL    HW270356   9.904   8.044  11.169
89528SOL     OW70357  13.015   6.219  13.908
89528SOL    HW170358  13.023   6.156  13.979
89528SOL    HW270359  12.948   6.281  13.938
89529SOL     OW70360   3.842   5.664   5.563
89529SOL    HW170361   3.855   5.673   5.469
89529SOL    HW270362   3.747   5.666   5.575
89530SOL     OW70363  10.873   0.604   1.127
89530SOL    HW170364  10.807   0.664   1.162
89530SOL    HW270365  10.885   0.631   1.036
89531SOL     OW70366   8.988  12.233  14.017
89531SOL    HW170367   9.070  12.190  14.041
89531SOL    HW270368   8.969  12.200  13.929
89532SOL     OW70369   3.196   1.298   0.102
89532SOL    HW170370   3.225   1.276   0.013
89532SOL    HW270371   3.122   1.357   0.089
89533SOL     OW70372   6.948  10.069   9.199
89533SOL    HW170373   6.974  10.010   9.128
89533SOL    HW270374   7.014  10.057   9.266
89534SOL     OW70375  11.051  13.382   2.635
89534SOL    HW170376  11.083  13.387   2.725
89534SOL    HW270377  10.967  13.427   2.638
89535SOL     OW70378   5.425   8.887   6.367
89535SOL    HW170379   5.491   8.871   6.300
89535SOL    HW270380   5.428   8.981   6.383
89536SOL     OW70381   6.268  11.421   9.874
89536SOL    HW170382   6.257  11.326   9.877
89536SOL    HW270383   6.250  11.444   9.783
89537SOL     OW70384   3.959  11.383   1.264
89537SOL    HW170385   3.921  11.462   1.303
89537SOL    HW270386   4.035  11.415   1.215
89538SOL     OW70387  10.172   6.117  10.637
89538SOL    HW170388  10.170   6.212  10.653
89538SOL    HW270389  10.091   6.100  10.589
89539SOL     OW70390   1.903   3.280   2.227
89539SOL    HW170391   1.858   3.319   2.302
89539SOL    HW270392   1.973   3.343   2.205
89540SOL     OW70393  10.294   7.560  13.733
89540SOL    HW170394  10.357   7.567  13.805
89540SOL    HW270395  10.299   7.645  13.689
89541SOL     OW70396   3.103   9.902  12.022
89541SOL    HW170397   3.061   9.888  12.107
89541SOL    HW270398   3.050   9.850  11.961
89542SOL     OW70399  12.308  11.324  12.972
89542SOL    HW170400  12.363  11.339  13.049
89542SOL    HW270401  12.220  11.313  13.007
89543SOL     OW70402   7.478  13.227   4.997
89543SOL    HW170403   7.538  13.259   4.931
89543SOL    HW270404   7.419  13.301   5.015
89544SOL     OW70405   5.081  11.060  11.329
89544SOL    HW170406   5.049  11.112  11.256
89544SOL    HW270407   5.032  11.091  11.405
89545SOL     OW70408   4.203   6.835   8.421
89545SOL    HW170409   4.180   6.862   8.333
89545SOL    HW270410   4.176   6.743   8.426
89546SOL     OW70411   0.544   1.528  13.436
89546SOL    HW170412   0.563   1.619  13.415
89546SOL    HW270413   0.626   1.494  13.472
89547SOL     OW70414   6.086  10.542   1.707
89547SOL    HW170415   6.021  10.502   1.649
89547SOL    HW270416   6.049  10.535   1.795
89548SOL     OW70417   9.595   9.373   4.292
89548SOL    HW170418   9.500   9.382   4.290
89548SOL    HW270419   9.628   9.460   4.267
89549SOL     OW70420   0.380   9.406   6.864
89549SOL    HW170421   0.341   9.465   6.928
89549SOL    HW270422   0.474   9.421   6.872
89550SOL     OW70423  14.752   4.561   1.241
89550SOL    HW170424  14.826   4.501   1.248
89550SOL    HW270425  14.702   4.547   1.321
89551SOL     OW70426   1.968  11.570  12.147
89551SOL    HW170427   2.035  11.614  12.199
89551SOL    HW270428   2.016  11.506  12.094
89552SOL     OW70429   3.962   0.718   9.371
89552SOL    HW170430   3.999   0.652   9.312
89552SOL    HW270431   4.037   0.756   9.415
89553SOL     OW70432   3.843   2.155   6.684
89553SOL    HW170433   3.926   2.123   6.650
89553SOL    HW270434   3.792   2.177   6.605
89554SOL     OW70435   3.604   0.346  11.069
89554SOL    HW170436   3.670   0.372  11.006
89554SOL    HW270437   3.600   0.250  11.061
89555SOL     OW70438   6.950  12.621   4.247
89555SOL    HW170439   6.934  12.558   4.176
89555SOL    HW270440   7.041  12.647   4.236
89556SOL     OW70441  11.679  10.383  11.666
89556SOL    HW170442  11.630  10.417  11.741
89556SOL    HW270443  11.648  10.435  11.591
89557SOL     OW70444   7.448   0.359  12.413
89557SOL    HW170445   7.375   0.422  12.416
89557SOL    HW270446   7.415   0.282  12.460
89558SOL     OW70447  13.521   1.648   9.995
89558SOL    HW170448  13.565   1.731  10.012
89558SOL    HW270449  13.589   1.582  10.004
89559SOL     OW70450   4.018   7.355   1.429
89559SOL    HW170451   4.109   7.337   1.452
89559SOL    HW270452   3.987   7.273   1.389
89560SOL     OW70453  11.158   8.847   2.383
89560SOL    HW170454  11.116   8.933   2.378
89560SOL    HW270455  11.235   8.862   2.439
89561SOL     OW70456  10.456   0.805  12.757
89561SOL    HW170457  10.552   0.797  12.757
89561SOL    HW270458  10.438   0.883  12.809
89562SOL     OW70459   6.004   1.630   1.928
89562SOL    HW170460   6.099   1.635   1.943
89562SOL    HW270461   5.970   1.585   2.005
89563SOL     OW70462   6.022   3.709  14.595
89563SOL    HW170463   6.096   3.739  14.542
89563SOL    HW270464   6.062   3.652  14.661
89564SOL     OW70465   4.110   2.565  13.458
89564SOL    HW170466   4.031   2.615  13.476
89564SOL    HW270467   4.160   2.569  13.539
89565SOL     OW70468  14.165   7.711   7.866
89565SOL    HW170469  14.082   7.672   7.839
89565SOL    HW270470  14.222   7.636   7.885
89566SOL     OW70471   7.982  12.682   5.033
89566SOL    HW170472   7.919  12.629   5.082
89566SOL    HW270473   8.067  12.664   5.074
89567SOL     OW70474   5.724  10.337  10.860
89567SOL    HW170475   5.786  10.310  10.791
89567SOL    HW270476   5.744  10.278  10.933
89568SOL     OW70477  14.117   0.028   3.637
89568SOL    HW170478  14.209   0.049   3.624
89568SOL    HW270479  14.103   0.039   3.731
89569SOL     OW70480   0.568   8.084   3.255
89569SOL    HW170481   0.625   8.101   3.180
89569SOL    HW270482   0.490   8.137   3.238
89570SOL     OW70483  12.193   2.376   2.913
89570SOL    HW170484  12.105   2.399   2.882
89570SOL    HW270485  12.217   2.299   2.861
89571SOL     OW70486   9.121  13.618   3.171
89571SOL    HW170487   9.185  13.617   3.100
89571SOL    HW270488   9.111  13.710   3.194
89572SOL     OW70489  14.172   1.949  10.022
89572SOL    HW170490  14.165   1.983  10.112
89572SOL    HW270491  14.237   1.879  10.028
89573SOL     OW70492   9.409  12.186  10.026
89573SOL    HW170493   9.454  12.261   9.989
89573SOL    HW270494   9.464  12.111  10.003
89574SOL     OW70495   4.178   7.190   6.780
89574SOL    HW170496   4.256   7.153   6.822
89574SOL    HW270497   4.207   7.210   6.690
89575SOL     OW70498   5.805   0.561   0.977
89575SOL    HW170499   5.785   0.653   0.993
89575SOL    HW270500   5.721   0.523   0.951
89576SOL     OW70501   5.032   9.464   3.966
89576SOL    HW170502   5.066   9.443   4.053
89576SOL    HW270503   4.969   9.394   3.947
89577SOL     OW70504  12.924   4.609   8.469
89577SOL    HW170505  12.967   4.693   8.487
89577SOL    HW270506  12.839   4.617   8.511
89578SOL     OW70507  14.756  11.389  14.044
89578SOL    HW170508  14.717  11.331  13.980
89578SOL    HW270509  14.847  11.359  14.051
89579SOL     OW70510  10.918  10.959   6.312
89579SOL    HW170511  10.985  10.940   6.377
89579SOL    HW270512  10.853  10.890   6.324
89580SOL     OW70513   1.503   9.070   9.149
89580SOL    HW170514   1.413   9.076   9.118
89580SOL    HW270515   1.506   8.988   9.199
89581SOL     OW70516   9.452   8.998   2.091
89581SOL    HW170517   9.500   9.015   2.009
89581SOL    HW270518   9.505   9.041   2.158
89582SOL     OW70519  12.491  14.210   8.454
89582SOL    HW170520  12.512  14.127   8.496
89582SOL    HW270521  12.475  14.271   8.526
89583SOL     OW70522   3.526  13.454  10.688
89583SOL    HW170523   3.502  13.546  10.699
89583SOL    HW270524   3.596  13.455  10.623
89584SOL     OW70525   3.722   9.078  13.836
89584SOL    HW170526   3.794   9.017  13.846
89584SOL    HW270527   3.748   9.155  13.888
89585SOL     OW70528   0.006  10.397   8.439
89585SOL    HW170529   0.020  10.445   8.358
89585SOL    HW270530   0.090  10.352   8.455
89586SOL     OW70531  12.384   4.924   4.947
89586SOL    HW170532  12.417   4.995   5.001
89586SOL    HW270533  12.445   4.919   4.874
89587SOL     OW70534  10.903   2.112   0.340
89587SOL    HW170535  10.866   2.039   0.389
89587SOL    HW270536  10.867   2.190   0.381
89588SOL     OW70537  13.821   8.914   6.741
89588SOL    HW170538  13.795   8.835   6.694
89588SOL    HW270539  13.742   8.967   6.744
89589SOL     OW70540   3.993  10.493   9.547
89589SOL    HW170541   4.059  10.447   9.495
89589SOL    HW270542   3.910  10.468   9.507
89590SOL     OW70543   0.604   9.008   4.526
89590SOL    HW170544   0.689   9.043   4.552
89590SOL    HW270545   0.541   9.076   4.553
89591SOL     OW70546   6.929   4.811   0.551
89591SOL    HW170547   6.858   4.869   0.578
89591SOL    HW270548   6.932   4.819   0.455
89592SOL     OW70549   8.478   6.155   8.397
89592SOL    HW170550   8.454   6.073   8.441
89592SOL    HW270551   8.566   6.139   8.363
89593SOL     OW70552  12.286   1.037  12.031
89593SOL    HW170553  12.300   0.948  11.998
89593SOL    HW270554  12.191   1.044  12.040
89594SOL     OW70555   3.191  10.290   1.934
89594SOL    HW170556   3.144  10.322   1.856
89594SOL    HW270557   3.125  10.291   2.003
89595SOL     OW70558   4.441   3.847   0.625
89595SOL    HW170559   4.470   3.881   0.541
89595SOL    HW270560   4.516   3.798   0.658
89596SOL     OW70561   8.309   3.675  14.328
89596SOL    HW170562   8.299   3.741  14.396
89596SOL    HW270563   8.404   3.665  14.318
89597SOL     OW70564  12.820   9.092   3.871
89597SOL    HW170565  12.767   9.031   3.922
89597SOL    HW270566  12.835   9.165   3.930
89598SOL     OW70567  11.892   8.504  12.491
89598SOL    HW170568  11.896   8.426  12.548
89598SOL    HW270569  11.950   8.567  12.534
89599SOL     OW70570   8.080  10.172   4.002
89599SOL    HW170571   8.007  10.111   4.008
89599SOL    HW270572   8.072  10.227   4.080
89600SOL     OW70573  14.022  12.048  13.735
89600SOL    HW170574  14.073  12.128  13.726
89600SOL    HW270575  13.936  12.077  13.767
89601SOL     OW70576  10.954   9.352   9.601
89601SOL    HW170577  11.012   9.284   9.567
89601SOL    HW270578  10.969   9.427   9.545
89602SOL     OW70579   3.865   9.826  11.950
89602SOL    HW170580   3.940   9.768  11.934
89602SOL    HW270581   3.903   9.903  11.992
89603SOL     OW70582   0.051  12.862   7.241
89603SOL    HW170583   0.060  12.771   7.212
89603SOL    HW270584  14.845  12.865   7.287
89604SOL     OW70585   3.438   1.630   2.482
89604SOL    HW170586   3.511   1.648   2.541
89604SOL    HW270587   3.403   1.717   2.460
89605SOL     OW70588   6.205   4.294   9.306
89605SOL    HW170589   6.260   4.290   9.385
89605SOL    HW270590   6.267   4.293   9.233
89606SOL     OW70591  13.936  11.708   7.561
89606SOL    HW170592  13.949  11.802   7.574
89606SOL    HW270593  13.909  11.676   7.647
89607SOL     OW70594   7.596   8.445  11.698
89607SOL    HW170595   7.520   8.503  11.702
89607SOL    HW270596   7.605   8.412  11.787
89608SOL     OW70597   7.074  13.812  13.813
89608SOL    HW170598   6.982  13.805  13.839
89608SOL    HW270599   7.106  13.722  13.813
89609SOL     OW70600  11.156   2.447   8.668
89609SOL    HW170601  11.184   2.535   8.645
89609SOL    HW270602  11.237   2.396   8.673
89610SOL     OW70603   1.141   1.447  12.410
89610SOL    HW170604   1.183   1.473  12.492
89610SOL    HW270605   1.051   1.427  12.435
89611SOL     OW70606  13.783  11.519   9.658
89611SOL    HW170607  13.780  11.428   9.629
89611SOL    HW270608  13.865  11.553   9.620
89612SOL     OW70609   6.526   9.774   5.644
89612SOL    HW170610   6.444   9.729   5.622
89612SOL    HW270611   6.498   9.863   5.667
89613SOL     OW70612   7.149  12.891   8.462
89613SOL    HW170613   7.111  12.811   8.425
89613SOL    HW270614   7.217  12.916   8.399
89614SOL     OW70615   8.620  13.459   1.640
89614SOL    HW170616   8.676  13.500   1.706
89614SOL    HW270617   8.534  13.499   1.653
89615SOL     OW70618   2.701   8.099   0.320
89615SOL    HW170619   2.689   8.182   0.274
89615SOL    HW270620   2.796   8.092   0.333
89616SOL     OW70621   7.791  13.867   9.362
89616SOL    HW170622   7.766  13.825   9.280
89616SOL    HW270623   7.860  13.811   9.398
89617SOL     OW70624  13.159  12.857   6.561
89617SOL    HW170625  13.150  12.934   6.618
89617SOL    HW270626  13.190  12.788   6.619
89618SOL     OW70627   9.578   0.857   7.336
89618SOL    HW170628   9.606   0.949   7.335
89618SOL    HW270629   9.522   0.851   7.414
89619SOL     OW70630  11.697   0.585   7.724
89619SOL    HW170631  11.733   0.503   7.758
89619SOL    HW270632  11.773   0.635   7.696
89620SOL     OW70633   7.353   9.870   7.486
89620SOL    HW170634   7.448   9.879   7.486
89620SOL    HW270635   7.337   9.782   7.520
89621SOL     OW70636  10.774  13.056   4.774
89621SOL    HW170637  10.693  13.018   4.740
89621SOL    HW270638  10.838  13.042   4.705
89622SOL     OW70639   9.738   8.757   6.324
89622SOL    HW170640   9.684   8.809   6.383
89622SOL    HW270641   9.769   8.819   6.258
89623SOL     OW70642  14.104   2.152  10.779
89623SOL    HW170643  14.046   2.137  10.854
89623SOL    HW270644  14.177   2.202  10.815
89624SOL     OW70645   4.786   8.947   8.245
89624SOL    HW170646   4.745   8.863   8.266
89624SOL    HW270647   4.720   8.993   8.192
89625SOL     OW70648   6.035  11.744  10.466
89625SOL    HW170649   6.043  11.708  10.378
89625SOL    HW270650   6.048  11.838  10.455
89626SOL     OW70651   3.371  14.222  11.984
89626SOL    HW170652   3.439  14.168  11.944
89626SOL    HW270653   3.310  14.158  12.022
89627SOL     OW70654   5.431   5.996   8.029
89627SOL    HW170655   5.479   5.943   7.965
89627SOL    HW270656   5.498   6.026   8.090
89628SOL     OW70657  14.471  12.665   0.295
89628SOL    HW170658  14.461  12.576   0.329
89628SOL    HW270659  14.454  12.722   0.370
89629SOL     OW70660   3.869   7.152   8.033
89629SOL    HW170661   3.874   7.187   7.944
89629SOL    HW270662   3.932   7.203   8.083
89630SOL     OW70663   7.706   4.346   0.097
89630SOL    HW170664   7.693   4.252   0.090
89630SOL    HW270665   7.629   4.384   0.054
89631SOL     OW70666   7.292  13.612  14.203
89631SOL    HW170667   7.241  13.538  14.168
89631SOL    HW270668   7.232  13.686  14.201
89632SOL     OW70669  11.892   4.717  11.711
89632SOL    HW170670  11.814   4.728  11.658
89632SOL    HW270671  11.962   4.702  11.648
89633SOL     OW70672   1.879  13.465   7.534
89633SOL    HW170673   1.792  13.499   7.554
89633SOL    HW270674   1.901  13.411   7.610
89634SOL     OW70675   1.588  13.459  12.318
89634SOL    HW170676   1.627  13.526  12.261
89634SOL    HW270677   1.602  13.377  12.272
89635SOL     OW70678   0.546  10.796   0.808
89635SOL    HW170679   0.536  10.709   0.847
89635SOL    HW270680   0.542  10.856   0.883
89636SOL     OW70681   4.288   1.684  12.409
89636SOL    HW170682   4.347   1.676  12.334
89636SOL    HW270683   4.223   1.615  12.395
89637SOL     OW70684  10.623   5.513   0.772
89637SOL    HW170685  10.710   5.531   0.806
89637SOL    HW270686  10.578   5.467   0.843
89638SOL     OW70687   0.512   9.242   5.959
89638SOL    HW170688   0.448   9.180   5.994
89638SOL    HW270689   0.564   9.268   6.035
89639SOL     OW70690   1.557  11.690  13.730
89639SOL    HW170691   1.494  11.677  13.659
89639SOL    HW270692   1.571  11.785  13.732
89640SOL     OW70693   5.799   2.234  13.352
89640SOL    HW170694   5.812   2.198  13.439
89640SOL    HW270695   5.743   2.311  13.366
89641SOL     OW70696   6.969   5.413  12.541
89641SOL    HW170697   7.017   5.436  12.621
89641SOL    HW270698   7.027   5.353  12.494
89642SOL     OW70699   1.643   3.495   1.749
89642SOL    HW170700   1.599   3.576   1.725
89642SOL    HW270701   1.691   3.469   1.670
89643SOL     OW70702   7.532   3.716   8.506
89643SOL    HW170703   7.589   3.717   8.583
89643SOL    HW270704   7.590   3.738   8.433
89644SOL     OW70705   6.885   6.525  10.206
89644SOL    HW170706   6.921   6.440  10.183
89644SOL    HW270707   6.909   6.583  10.134
89645SOL     OW70708   2.171  10.023  14.570
89645SOL    HW170709   2.159  10.036  14.664
89645SOL    HW270710   2.244   9.961  14.564
89646SOL     OW70711   7.604   4.489   8.115
89646SOL    HW170712   7.558   4.426   8.170
89646SOL    HW270713   7.599   4.451   8.027
89647SOL     OW70714   1.701  14.570   4.145
89647SOL    HW170715   1.635  14.521   4.194
89647SOL    HW270716   1.660  14.586   4.060
89648SOL     OW70717   9.903   1.440   1.786
89648SOL    HW170718   9.853   1.512   1.748
89648SOL    HW270719   9.897   1.454   1.881
89649SOL     OW70720  11.878   2.820   5.419
89649SOL    HW170721  11.810   2.792   5.480
89649SOL    HW270722  11.896   2.742   5.366
89650SOL     OW70723   7.001  14.014   9.166
89650SOL    HW170724   6.944  13.938   9.183
89650SOL    HW270725   7.068  13.981   9.107
89651SOL     OW70726   1.464   0.995   1.737
89651SOL    HW170727   1.428   1.046   1.809
89651SOL    HW270728   1.397   0.999   1.669
89652SOL     OW70729   2.638   1.335   3.091
89652SOL    HW170730   2.682   1.300   3.168
89652SOL    HW270731   2.546   1.343   3.117
89653SOL     OW70732  12.180   5.790   2.390
89653SOL    HW170733  12.141   5.852   2.328
89653SOL    HW270734  12.146   5.817   2.475
89654SOL     OW70735  11.754  11.982   6.148
89654SOL    HW170736  11.734  11.889   6.149
89654SOL    HW270737  11.786  12.001   6.236
89655SOL     OW70738   0.318   0.691  11.192
89655SOL    HW170739   0.333   0.624  11.125
89655SOL    HW270740   0.232   0.669  11.229
89656SOL     OW70741  13.476  10.106   8.214
89656SOL    HW170742  13.459  10.189   8.258
89656SOL    HW270743  13.467  10.125   8.121
89657SOL     OW70744   6.196   9.140  14.617
89657SOL    HW170745   6.264   9.154  14.683
89657SOL    HW270746   6.115   9.134  14.669
89658SOL     OW70747   7.649   5.658  12.331
89658SOL    HW170748   7.656   5.563  12.342
89658SOL    HW270749   7.620   5.690  12.417
89659SOL     OW70750  10.330  14.498  10.508
89659SOL    HW170751  10.293  14.577  10.468
89659SOL    HW270752  10.424  14.508  10.498
89660SOL     OW70753   3.924   4.166   3.688
89660SOL    HW170754   4.008   4.200   3.720
89660SOL    HW270755   3.890   4.237   3.633
89661SOL     OW70756   1.047   2.187   3.266
89661SOL    HW170757   1.042   2.125   3.339
89661SOL    HW270758   1.064   2.133   3.189
89662SOL     OW70759   9.191   5.811  12.204
89662SOL    HW170760   9.233   5.782  12.123
89662SOL    HW270761   9.198   5.736  12.263
89663SOL     OW70762  14.066   6.036  13.983
89663SOL    HW170763  14.001   6.042  14.052
89663SOL    HW270764  14.028   5.978  13.918
89664SOL     OW70765   2.586   2.820   8.852
89664SOL    HW170766   2.644   2.895   8.856
89664SOL    HW270767   2.557   2.807   8.943
89665SOL     OW70768  10.369   2.229   3.898
89665SOL    HW170769  10.279   2.203   3.879
89665SOL    HW270770  10.360   2.314   3.943
89666SOL     OW70771   5.802  10.286   1.134
89666SOL    HW170772   5.723  10.292   1.188
89666SOL    HW270773   5.854  10.217   1.175
89667SOL     OW70774   6.036   9.695   8.832
89667SOL    HW170775   5.959   9.645   8.856
89667SOL    HW270776   6.107   9.656   8.883
89668SOL     OW70777   9.796  14.302   7.624
89668SOL    HW170778   9.757  14.347   7.549
89668SOL    HW270779   9.723  14.253   7.663
89669SOL     OW70780  11.290  12.794  12.237
89669SOL    HW170781  11.213  12.737  12.240
89669SOL    HW270782  11.318  12.800  12.328
89670SOL     OW70783  14.499  14.704   4.034
89670SOL    HW170784  14.472  14.635   4.094
89670SOL    HW270785  14.540  14.658   3.960
89671SOL     OW70786   8.195   7.323   8.405
89671SOL    HW170787   8.180   7.230   8.390
89671SOL    HW270788   8.224   7.356   8.320
89672SOL     OW70789   6.182   4.291   7.725
89672SOL    HW170790   6.107   4.239   7.695
89672SOL    HW270791   6.255   4.262   7.671
89673SOL     OW70792   5.913   8.843   3.354
89673SOL    HW170793   5.895   8.823   3.445
89673SOL    HW270794   5.840   8.898   3.326
89674SOL     OW70795  11.908   6.589   0.293
89674SOL    HW170796  11.913   6.518   0.356
89674SOL    HW270797  11.994   6.591   0.251
89675SOL     OW70798   4.360   6.784   9.289
89675SOL    HW170799   4.270   6.775   9.320
89675SOL    HW270800   4.378   6.878   9.293
89676SOL     OW70801   6.782  13.825   9.920
89676SOL    HW170802   6.837  13.769   9.865
89676SOL    HW270803   6.752  13.894   9.862
89677SOL     OW70804  13.580   7.307   0.018
89677SOL    HW170805  13.617   7.361   0.087
89677SOL    HW270806  13.595   7.356  14.815
89678SOL     OW70807   9.551   0.597   5.313
89678SOL    HW170808   9.558   0.646   5.232
89678SOL    HW270809   9.571   0.660   5.382
89679SOL     OW70810   3.256   5.638   0.203
89679SOL    HW170811   3.258   5.731   0.226
89679SOL    HW270812   3.219   5.595   0.280
89680SOL     OW70813  14.664   3.866   2.176
89680SOL    HW170814  14.749   3.863   2.220
89680SOL    HW270815  14.672   3.937   2.113
89681SOL     OW70816   5.277   9.098   0.301
89681SOL    HW170817   5.219   9.069   0.372
89681SOL    HW270818   5.351   9.038   0.306
89682SOL     OW70819   5.861  13.571   1.074
89682SOL    HW170820   5.806  13.643   1.042
89682SOL    HW270821   5.940  13.614   1.106
89683SOL     OW70822   0.404   2.974  11.284
89683SOL    HW170823   0.373   3.064  11.287
89683SOL    HW270824   0.361   2.930  11.357
89684SOL     OW70825  14.405  14.657   1.288
89684SOL    HW170826  14.429  14.602   1.214
89684SOL    HW270827  14.364  14.734   1.249
89685SOL     OW70828  13.427   5.810   5.644
89685SOL    HW170829  13.416   5.731   5.696
89685SOL    HW270830  13.375   5.793   5.565
89686SOL     OW70831  14.301  14.064   9.208
89686SOL    HW170832  14.339  14.121   9.141
89686SOL    HW270833  14.374  14.010   9.237
89687SOL     OW70834   0.123  11.942   3.147
89687SOL    HW170835   0.144  12.017   3.202
89687SOL    HW270836   0.178  11.952   3.070
89688SOL     OW70837   7.135   8.857   5.992
89688SOL    HW170838   7.103   8.837   5.905
89688SOL    HW270839   7.192   8.783   6.014
89689SOL     OW70840  10.878   4.328   8.314
89689SOL    HW170841  10.813   4.359   8.252
89689SOL    HW270842  10.882   4.395   8.381
89690SOL     OW70843   4.615   8.446  10.447
89690SOL    HW170844   4.582   8.474  10.533
89690SOL    HW270845   4.570   8.503  10.385
89691SOL     OW70846   1.093  13.608   6.036
89691SOL    HW170847   1.054  13.691   6.062
89691SOL    HW270848   1.018  13.548   6.027
89692SOL     OW70849   3.482  12.695   1.158
89692SOL    HW170850   3.510  12.649   1.237
89692SOL    HW270851   3.486  12.788   1.182
89693SOL     OW70852   9.207   9.326   2.447
89693SOL    HW170853   9.169   9.359   2.529
89693SOL    HW270854   9.146   9.355   2.379
89694SOL     OW70855   4.024   9.036   1.347
89694SOL    HW170856   4.109   9.026   1.389
89694SOL    HW270857   3.974   9.093   1.406
89695SOL     OW70858   9.841   0.752   7.440
89695SOL    HW170859   9.776   0.732   7.373
89695SOL    HW270860   9.888   0.828   7.405
89696SOL     OW70861   4.350   8.115  12.247
89696SOL    HW170862   4.423   8.099  12.188
89696SOL    HW270863   4.298   8.034  12.244
89697SOL     OW70864   3.888   9.069   2.771
89697SOL    HW170865   3.917   9.153   2.736
89697SOL    HW270866   3.817   9.043   2.713
89698SOL     OW70867   6.932   2.092   6.159
89698SOL    HW170868   6.870   2.162   6.178
89698SOL    HW270869   7.006   2.135   6.118
89699SOL     OW70870  11.092   0.029   3.132
89699SOL    HW170871  11.151  14.845   3.175
89699SOL    HW270872  11.050   0.076   3.204
89700SOL     OW70873   4.173   5.576   8.050
89700SOL    HW170874   4.162   5.621   7.966
89700SOL    HW270875   4.247   5.517   8.035
89701SOL     OW70876  12.182   4.833  14.552
89701SOL    HW170877  12.232   4.901  14.507
89701SOL    HW270878  12.164   4.767  14.485
89702SOL     OW70879   8.011  11.058   5.584
89702SOL    HW170880   7.932  11.021   5.545
89702SOL    HW270881   8.081  11.000   5.556
89703SOL     OW70882   0.712   4.151  10.843
89703SOL    HW170883   0.726   4.147  10.938
89703SOL    HW270884   0.622   4.120  10.831
89704SOL     OW70885  11.908   6.199   7.639
89704SOL    HW170886  11.868   6.183   7.554
89704SOL    HW270887  11.837   6.235   7.692
89705SOL     OW70888  12.611   3.156  13.193
89705SOL    HW170889  12.553   3.205  13.134
89705SOL    HW270890  12.551   3.110  13.252
89706SOL     OW70891   5.758   9.796   5.744
89706SOL    HW170892   5.668   9.815   5.717
89706SOL    HW270893   5.798   9.756   5.667
89707SOL     OW70894  11.586  14.080   0.496
89707SOL    HW170895  11.492  14.090   0.476
89707SOL    HW270896  11.629  14.145   0.440
89708SOL     OW70897  14.267   9.564   5.161
89708SOL    HW170898  14.203   9.521   5.217
89708SOL    HW270899  14.265   9.656   5.187
89709SOL     OW70900  14.817  12.671   7.067
89709SOL    HW170901  14.858  12.658   6.981
89709SOL    HW270902  14.723  12.661   7.050
89710SOL     OW70903  12.262  12.545  13.379
89710SOL    HW170904  12.200  12.472  13.379
89710SOL    HW270905  12.256  12.581  13.291
89711SOL     OW70906   3.254   5.424   9.246
89711SOL    HW170907   3.215   5.461   9.325
89711SOL    HW270908   3.325   5.485   9.223
89712SOL     OW70909  10.580   5.107   9.389
89712SOL    HW170910  10.552   5.039   9.328
89712SOL    HW270911  10.498   5.139   9.428
89713SOL     OW70912   1.449  14.202  11.030
89713SOL    HW170913   1.543  14.214  11.014
89713SOL    HW270914   1.407  14.251  10.959
89714SOL     OW70915   0.721   4.148   5.310
89714SOL    HW170916   0.663   4.108   5.245
89714SOL    HW270917   0.783   4.199   5.259
89715SOL     OW70918   3.415   9.287  10.281
89715SOL    HW170919   3.384   9.370  10.245
89715SOL    HW270920   3.421   9.228  10.206
89716SOL     OW70921   9.012   3.494  14.660
89716SOL    HW170922   9.046   3.580  14.633
89716SOL    HW270923   9.006   3.501  14.756
89717SOL     OW70924   6.100   8.147  14.701
89717SOL    HW170925   6.116   8.241  14.697
89717SOL    HW270926   6.005   8.140  14.715
89718SOL     OW70927  11.048   8.423  13.444
89718SOL    HW170928  10.995   8.425  13.524
89718SOL    HW270929  11.078   8.333  13.437
89719SOL     OW70930   4.342   0.808   6.941
89719SOL    HW170931   4.286   0.760   7.001
89719SOL    HW270932   4.415   0.840   6.995
89720SOL     OW70933  14.619   1.333   6.223
89720SOL    HW170934  14.638   1.261   6.163
89720SOL    HW270935  14.640   1.412   6.173
89721SOL     OW70936  11.951   1.261  14.389
89721SOL    HW170937  12.019   1.269  14.456
89721SOL    HW270938  11.869   1.262  14.438
89722SOL     OW70939   4.575   8.495   1.235
89722SOL    HW170940   4.558   8.578   1.279
89722SOL    HW270941   4.488   8.455   1.226
89723SOL     OW70942  12.105   9.663  10.544
89723SOL    HW170943  12.026   9.625  10.507
89723SOL    HW270944  12.144   9.592  10.595
89724SOL     OW70945   8.146   8.296   9.005
89724SOL    HW170946   8.237   8.273   9.024
89724SOL    HW270947   8.128   8.253   8.922
89725SOL     OW70948   9.961   3.638  12.416
89725SOL    HW170949   9.895   3.602  12.357
89725SOL    HW270950   9.925   3.723  12.444
89726SOL     OW70951   9.858  11.987   7.234
89726SOL    HW170952   9.767  12.011   7.216
89726SOL    HW270953   9.856  11.949   7.322
89727SOL     OW70954  12.393   7.752  13.364
89727SOL    HW170955  12.299   7.749  13.346
89727SOL    HW270956  12.434   7.724  13.282
89728SOL     OW70957   0.558   9.407   2.053
89728SOL    HW170958   0.579   9.457   1.974
89728SOL    HW270959   0.556   9.316   2.025
89729SOL     OW70960   1.425   9.954   7.427
89729SOL    HW170961   1.378  10.029   7.389
89729SOL    HW270962   1.363   9.916   7.489
89730SOL     OW70963   8.951   3.586   8.815
89730SOL    HW170964   8.886   3.560   8.880
89730SOL    HW270965   9.029   3.536   8.838
89731SOL     OW70966   4.686   8.190  13.944
89731SOL    HW170967   4.651   8.133  14.013
89731SOL    HW270968   4.656   8.277  13.967
89732SOL     OW70969   4.522   9.024  12.700
89732SOL    HW170970   4.479   9.047  12.783
89732SOL    HW270971   4.601   9.077  12.698
89733SOL     OW70972   0.320   6.137  12.417
89733SOL    HW170973   0.232   6.117  12.385
89733SOL    HW270974   0.305   6.178  12.503
89734SOL     OW70975  12.495   8.354   9.402
89734SOL    HW170976  12.541   8.413   9.461
89734SOL    HW270977  12.406   8.351   9.436
89735SOL     OW70978   3.358   5.465  12.873
89735SOL    HW170979   3.410   5.528  12.822
89735SOL    HW270980   3.348   5.390  12.815
89736SOL     OW70981   7.614   5.863   2.756
89736SOL    HW170982   7.686   5.801   2.766
89736SOL    HW270983   7.656   5.949   2.760
89737SOL     OW70984  13.170  13.808   5.108
89737SOL    HW170985  13.104  13.787   5.043
89737SOL    HW270986  13.230  13.734   5.106
89738SOL     OW70987   7.144   8.569  13.865
89738SOL    HW170988   7.117   8.487  13.823
89738SOL    HW270989   7.225   8.593  13.821
89739SOL     OW70990   9.066  11.249   2.029
89739SOL    HW170991   9.002  11.200   2.080
89739SOL    HW270992   9.080  11.329   2.079
89740SOL     OW70993   1.478   5.444  12.364
89740SOL    HW170994   1.538   5.419  12.294
89740SOL    HW270995   1.394   5.458  12.320
89741SOL     OW70996   1.927  11.588   5.802
89741SOL    HW170997   2.008  11.581   5.752
89741SOL    HW270998   1.864  11.535   5.753
89742SOL     OW70999  13.698   9.554   4.271
89742SOL    HW171000  13.790   9.556   4.245
89742SOL    HW271001  13.660   9.484   4.218
89743SOL     OW71002   7.022   4.234  13.398
89743SOL    HW171003   7.104   4.239  13.349
89743SOL    HW271004   6.956   4.210  13.333
89744SOL     OW71005   7.444  12.337  14.003
89744SOL    HW171006   7.531  12.298  14.016
89744SOL    HW271007   7.399  12.276  13.945
89745SOL     OW71008   0.984   7.486   3.545
89745SOL    HW171009   0.960   7.564   3.596
89745SOL    HW271010   1.078   7.477   3.560
89746SOL     OW71011   8.656  14.401   0.040
89746SOL    HW171012   8.571  14.377   0.077
89746SOL    HW271013   8.658  14.496   0.044
89747SOL     OW71014   1.545   3.017  11.445
89747SOL    HW171015   1.476   3.081  11.433
89747SOL    HW271016   1.621   3.055  11.401
89748SOL     OW71017  13.699   3.734  10.115
89748SOL    HW171018  13.707   3.676  10.040
89748SOL    HW271019  13.605   3.742  10.130
89749SOL     OW71020   6.554  12.926  10.633
89749SOL    HW171021   6.586  12.914  10.722
89749SOL    HW271022   6.573  13.017  10.612
89750SOL     OW71023  10.296  13.957   0.121
89750SOL    HW171024  10.321  14.049   0.110
89750SOL    HW271025  10.214  13.960   0.170
89751SOL     OW71026   5.710  12.177   1.985
89751SOL    HW171027   5.701  12.261   1.941
89751SOL    HW271028   5.729  12.199   2.076
89752SOL     OW71029  10.702  12.348  12.701
89752SOL    HW171030  10.761  12.407  12.747
89752SOL    HW271031  10.690  12.275  12.761
89753SOL     OW71032   4.098   1.374   8.198
89753SOL    HW171033   4.123   1.462   8.229
89753SOL    HW271034   4.008   1.364   8.227
89754SOL     OW71035   2.014  10.750  14.373
89754SOL    HW171036   1.955  10.677  14.392
89754SOL    HW271037   2.056  10.769  14.457
89755SOL     OW71038   0.079  13.207   4.620
89755SOL    HW171039   0.173  13.204   4.634
89755SOL    HW271040   0.066  13.278   4.557
89756SOL     OW71041   9.620   9.920   9.594
89756SOL    HW171042   9.565   9.870   9.655
89756SOL    HW271043   9.663   9.853   9.540
89757SOL     OW71044   3.503   4.616   0.937
89757SOL    HW171045   3.588   4.658   0.947
89757SOL    HW271046   3.514   4.556   0.863
89758SOL     OW71047  11.649  14.710   4.371
89758SOL    HW171048  11.610  14.796   4.383
89758SOL    HW271049  11.741  14.721   4.394
89759SOL     OW71050   8.739   7.337   1.271
89759SOL    HW171051   8.714   7.419   1.315
89759SOL    HW271052   8.655   7.293   1.254
89760SOL     OW71053   9.556   7.037   8.832
89760SOL    HW171054   9.507   7.083   8.764
89760SOL    HW271055   9.562   7.098   8.904
89761SOL     OW71056  11.366   4.220   9.847
89761SOL    HW171057  11.331   4.216   9.758
89761SOL    HW271058  11.459   4.202   9.838
89762SOL     OW71059   5.735   5.274   2.801
89762SOL    HW171060   5.740   5.335   2.875
89762SOL    HW271061   5.656   5.222   2.819
89763SOL     OW71062   0.029  14.450  13.869
89763SOL    HW171063  14.872  14.519  13.925
89763SOL    HW271064   0.091  14.494  13.812
89764SOL     OW71065   2.671   5.004   9.766
89764SOL    HW171066   2.636   4.976   9.681
89764SOL    HW271067   2.713   4.926   9.801
89765SOL     OW71068   6.552   3.859  14.610
89765SOL    HW171069   6.632   3.832  14.566
89765SOL    HW271070   6.582   3.908  14.687
89766SOL     OW71071   3.202   7.517   8.101
89766SOL    HW171072   3.266   7.578   8.139
89766SOL    HW271073   3.211   7.437   8.154
89767SOL     OW71074  12.683  14.142  13.577
89767SOL    HW171075  12.701  14.059  13.623
89767SOL    HW271076  12.734  14.207  13.626
89768SOL     OW71077   4.679   8.900   8.555
89768SOL    HW171078   4.686   8.857   8.470
89768SOL    HW271079   4.659   8.829   8.616
89769SOL     OW71080  13.002   5.369   6.487
89769SOL    HW171081  13.004   5.353   6.581
89769SOL    HW271082  12.936   5.307   6.454
89770SOL     OW71083  13.384   9.347   1.654
89770SOL    HW171084  13.479   9.348   1.670
89770SOL    HW271085  13.353   9.430   1.689
89771SOL     OW71086   2.565   9.686   8.366
89771SOL    HW171087   2.628   9.692   8.294
89771SOL    HW271088   2.575   9.769   8.413
89772SOL     OW71089   6.663  12.691   0.148
89772SOL    HW171090   6.707  12.754   0.205
89772SOL    HW271091   6.655  12.737   0.064
89773SOL     OW71092   4.248   8.054   4.137
89773SOL    HW171093   4.282   8.049   4.048
89773SOL    HW271094   4.291   8.130   4.175
89774SOL     OW71095  12.781   1.260  13.537
89774SOL    HW171096  12.808   1.323  13.471
89774SOL    HW271097  12.711   1.304  13.585
89775SOL     OW71098  12.403   0.192   8.003
89775SOL    HW171099  12.421   0.285   8.013
89775SOL    HW271100  12.455   0.149   8.071
89776SOL     OW71101   0.986  13.676  10.660
89776SOL    HW171102   0.906  13.625  10.667
89776SOL    HW271103   0.969  13.755  10.712
89777SOL     OW71104   9.091   1.268   5.436
89777SOL    HW171105   9.042   1.195   5.398
89777SOL    HW271106   9.031   1.305   5.501
89778SOL     OW71107   7.139  13.597   9.196
89778SOL    HW171108   7.110  13.513   9.231
89778SOL    HW271109   7.060  13.651   9.192
89779SOL     OW71110  14.517   8.278  13.421
89779SOL    HW171111  14.506   8.190  13.457
89779SOL    HW271112  14.600   8.273  13.372
89780SOL     OW71113   3.499  11.578  11.315
89780SOL    HW171114   3.424  11.519  11.328
89780SOL    HW271115   3.463  11.652  11.266
89781SOL     OW71116   7.378   8.286   4.099
89781SOL    HW171117   7.335   8.371   4.096
89781SOL    HW271118   7.381   8.264   4.192
89782SOL     OW71119   3.616   2.521   4.671
89782SOL    HW171120   3.600   2.592   4.608
89782SOL    HW271121   3.711   2.508   4.668
89783SOL     OW71122   5.797  13.621  12.139
89783SOL    HW171123   5.701  13.619  12.147
89783SOL    HW271124   5.826  13.542  12.185
89784SOL     OW71125   1.667   3.937   7.783
89784SOL    HW171126   1.624   3.867   7.733
89784SOL    HW271127   1.749   3.952   7.737
89785SOL     OW71128   6.712   5.738   6.216
89785SOL    HW171129   6.733   5.807   6.152
89785SOL    HW271130   6.620   5.752   6.238
89786SOL     OW71131  12.523  12.512  11.887
89786SOL    HW171132  12.448  12.515  11.945
89786SOL    HW271133  12.545  12.419  11.878
89787SOL     OW71134   0.020  13.038  14.306
89787SOL    HW171135   0.019  12.966  14.369
89787SOL    HW271136   0.032  13.116  14.359
89788SOL     OW71137   4.727   1.038  10.825
89788SOL    HW171138   4.779   0.961  10.850
89788SOL    HW271139   4.792   1.101  10.793
89789SOL     OW71140  10.106   8.416   7.988
89789SOL    HW171141  10.179   8.379   8.038
89789SOL    HW271142  10.050   8.456   8.054
89790SOL     OW71143   5.478   3.105   7.598
89790SOL    HW171144   5.434   3.029   7.561
89790SOL    HW271145   5.450   3.178   7.543
89791SOL     OW71146   6.352  13.965   4.833
89791SOL    HW171147   6.373  14.051   4.795
89791SOL    HW271148   6.256  13.961   4.828
89792SOL     OW71149   8.262   3.051   2.785
89792SOL    HW171150   8.223   2.973   2.825
89792SOL    HW271151   8.328   3.016   2.725
89793SOL     OW71152   1.756   3.269  12.124
89793SOL    HW171153   1.806   3.238  12.049
89793SOL    HW271154   1.664   3.263  12.096
89794SOL     OW71155  13.362   5.804  11.010
89794SOL    HW171156  13.415   5.821  11.087
89794SOL    HW271157  13.423   5.769  10.945
89795SOL     OW71158  12.291  10.898   6.550
89795SOL    HW171159  12.341  10.840   6.608
89795SOL    HW271160  12.200  10.886   6.576
89796SOL     OW71161   5.415   5.851  12.724
89796SOL    HW171162   5.433   5.852  12.631
89796SOL    HW271163   5.435   5.939  12.754
89797SOL     OW71164   1.436   3.997   4.786
89797SOL    HW171165   1.439   4.087   4.754
89797SOL    HW271166   1.469   3.944   4.713
89798SOL     OW71167   9.965  13.655   0.217
89798SOL    HW171168  10.000  13.575   0.179
89798SOL    HW271169   9.894  13.681   0.158
89799SOL     OW71170   3.603   3.146   6.980
89799SOL    HW171171   3.672   3.102   7.028
89799SOL    HW271172   3.544   3.180   7.047
89800SOL     OW71173  13.271   1.632  10.574
89800SOL    HW171174  13.289   1.675  10.490
89800SOL    HW271175  13.333   1.672  10.635
89801SOL     OW71176   0.949   5.933  10.833
89801SOL    HW171177   0.872   5.887  10.867
89801SOL    HW271178   1.005   5.946  10.910
89802SOL     OW71179   6.703  10.055   5.797
89802SOL    HW171180   6.742   9.995   5.861
89802SOL    HW271181   6.773  10.117   5.777
89803SOL     OW71182   1.836   2.606   1.599
89803SOL    HW171183   1.861   2.682   1.651
89803SOL    HW271184   1.740   2.606   1.600
89804SOL     OW71185   2.691   9.348   7.355
89804SOL    HW171186   2.638   9.427   7.345
89804SOL    HW271187   2.781   9.379   7.343
89805SOL     OW71188  10.031   0.745   2.877
89805SOL    HW171189  10.005   0.653   2.880
89805SOL    HW271190  10.123   0.744   2.903
89806SOL     OW71191  13.373   9.766   0.938
89806SOL    HW171192  13.428   9.755   1.016
89806SOL    HW271193  13.304   9.826   0.965
89807SOL     OW71194  10.266  10.689   9.656
89807SOL    HW171195  10.249  10.682   9.750
89807SOL    HW271196  10.216  10.617   9.618
89808SOL     OW71197  12.202   4.125   1.558
89808SOL    HW171198  12.274   4.150   1.500
89808SOL    HW271199  12.192   4.200   1.617
89809SOL     OW71200  13.663  12.051   9.870
89809SOL    HW171201  13.650  11.960   9.895
89809SOL    HW271202  13.587  12.097   9.905
89810SOL     OW71203  13.109   2.577  13.729
89810SOL    HW171204  13.133   2.487  13.752
89810SOL    HW271205  13.040   2.568  13.663
89811SOL     OW71206   7.256  13.780   0.177
89811SOL    HW171207   7.168  13.798   0.146
89811SOL    HW271208   7.312  13.789   0.100
89812SOL     OW71209  12.258  13.691  13.155
89812SOL    HW171210  12.246  13.748  13.231
89812SOL    HW271211  12.307  13.744  13.092
89813SOL     OW71212  14.150  10.622  11.147
89813SOL    HW171213  14.175  10.539  11.107
89813SOL    HW271214  14.217  10.684  11.118
89814SOL     OW71215  10.661   0.504   4.486
89814SOL    HW171216  10.621   0.420   4.463
89814SOL    HW271217  10.748   0.482   4.517
89815SOL     OW71218   1.442   8.355   7.848
89815SOL    HW171219   1.519   8.334   7.796
89815SOL    HW271220   1.476   8.393   7.928
89816SOL     OW71221   1.100  14.036  10.431
89816SOL    HW171222   1.023  14.073  10.473
89816SOL    HW271223   1.066  13.983  10.359
89817SOL     OW71224   7.200  11.836  11.061
89817SOL    HW171225   7.158  11.901  11.118
89817SOL    HW271226   7.166  11.854  10.974
89818SOL     OW71227   7.347  12.522   8.570
89818SOL    HW171228   7.411  12.589   8.546
89818SOL    HW271229   7.400  12.451   8.608
89819SOL     OW71230   4.235   7.574   5.977
89819SOL    HW171231   4.285   7.639   6.028
89819SOL    HW271232   4.163   7.624   5.940
89820SOL     OW71233   1.597  14.511  13.396
89820SOL    HW171234   1.684  14.550  13.391
89820SOL    HW271235   1.561  14.520  13.307
89821SOL     OW71236   0.764  10.952   3.948
89821SOL    HW171237   0.828  10.919   4.012
89821SOL    HW271238   0.683  10.961   3.998
89822SOL     OW71239   0.604  13.012   0.392
89822SOL    HW171240   0.665  13.055   0.451
89822SOL    HW271241   0.520  13.014   0.438
89823SOL     OW71242   8.216  12.002   2.193
89823SOL    HW171243   8.276  11.943   2.240
89823SOL    HW271244   8.270  12.078   2.171
89824SOL     OW71245   8.759   0.295  11.436
89824SOL    HW171246   8.674   0.266  11.404
89824SOL    HW271247   8.807   0.319  11.356
89825SOL     OW71248  14.738   2.106  13.362
89825SOL    HW171249  14.678   2.039  13.393
89825SOL    HW271250  14.682   2.173  13.324
89826SOL     OW71251   2.253   2.850  11.747
89826SOL    HW171252   2.236   2.932  11.793
89826SOL    HW271253   2.336   2.864  11.702
89827SOL     OW71254   8.673   7.933  14.035
89827SOL    HW171255   8.613   8.005  14.057
89827SOL    HW271256   8.616   7.863  14.004
89828SOL     OW71257   0.812   0.394   3.271
89828SOL    HW171258   0.802   0.460   3.203
89828SOL    HW271259   0.794   0.311   3.227
89829SOL     OW71260   9.739   6.220   2.084
89829SOL    HW171261   9.785   6.157   2.139
89829SOL    HW271262   9.798   6.235   2.011
89830SOL     OW71263   2.513  10.645   8.745
89830SOL    HW171264   2.588  10.696   8.714
89830SOL    HW271265   2.461  10.628   8.666
89831SOL     OW71266   6.100   4.234   2.717
89831SOL    HW171267   6.070   4.315   2.678
89831SOL    HW271268   6.053   4.228   2.800
89832SOL     OW71269   4.197   1.405  13.263
89832SOL    HW171270   4.264   1.455  13.217
89832SOL    HW271271   4.183   1.328  13.208
89833SOL     OW71272   0.587   1.035   6.365
89833SOL    HW171273   0.604   1.129   6.367
89833SOL    HW271274   0.545   1.016   6.448
89834SOL     OW71275   5.994   8.124  12.993
89834SOL    HW171276   5.913   8.168  12.966
89834SOL    HW271277   6.012   8.061  12.923
89835SOL     OW71278   6.134  11.651   6.657
89835SOL    HW171279   6.070  11.613   6.597
89835SOL    HW271280   6.219  11.635   6.615
89836SOL     OW71281   7.453  11.156   2.639
89836SOL    HW171282   7.435  11.227   2.577
89836SOL    HW271283   7.432  11.076   2.590
89837SOL     OW71284   3.042   2.617  10.606
89837SOL    HW171285   3.037   2.534  10.558
89837SOL    HW271286   2.987   2.677  10.556
89838SOL     OW71287   8.438   8.200   3.688
89838SOL    HW171288   8.448   8.144   3.611
89838SOL    HW271289   8.344   8.211   3.698
89839SOL     OW71290   4.523   6.426   8.989
89839SOL    HW171291   4.528   6.407   8.895
89839SOL    HW271292   4.511   6.340   9.030
89840SOL     OW71293   2.435   6.143   9.725
89840SOL    HW171294   2.430   6.234   9.755
89840SOL    HW271295   2.454   6.092   9.804
89841SOL     OW71296   4.450   7.263   0.649
89841SOL    HW171297   4.448   7.278   0.555
89841SOL    HW271298   4.427   7.170   0.659
89842SOL     OW71299   9.037   4.391   1.485
89842SOL    HW171300   9.109   4.342   1.525
89842SOL    HW271301   8.960   4.338   1.504
89843SOL     OW71302   5.843  11.909   7.025
89843SOL    HW171303   5.753  11.895   7.055
89843SOL    HW271304   5.841  11.996   6.985
89844SOL     OW71305  11.628   7.430   2.440
89844SOL    HW171306  11.544   7.398   2.474
89844SOL    HW271307  11.684   7.438   2.516
89845SOL     OW71308   5.076   1.740   0.853
89845SOL    HW171309   5.149   1.758   0.793
89845SOL    HW271310   4.998   1.762   0.803
89846SOL     OW71311  11.654   1.115   0.770
89846SOL    HW171312  11.664   1.118   0.865
89846SOL    HW271313  11.736   1.150   0.736
89847SOL     OW71314   4.621   6.347   8.486
89847SOL    HW171315   4.627   6.410   8.415
89847SOL    HW271316   4.539   6.368   8.530
89848SOL     OW71317   5.821   4.969   3.141
89848SOL    HW171318   5.808   5.011   3.226
89848SOL    HW271319   5.732   4.960   3.106
89849SOL     OW71320  11.222  12.135   6.776
89849SOL    HW171321  11.197  12.227   6.773
89849SOL    HW271322  11.140  12.088   6.792
89850SOL     OW71323   9.461   7.996  14.567
89850SOL    HW171324   9.522   7.938  14.522
89850SOL    HW271325   9.374   7.962  14.546
89851SOL     OW71326   3.765  14.500   8.818
89851SOL    HW171327   3.834  14.565   8.803
89851SOL    HW271328   3.706  14.542   8.881
89852SOL     OW71329   6.055   4.584   9.158
89852SOL    HW171330   6.043   4.652   9.224
89852SOL    HW271331   6.054   4.632   9.075
89853SOL     OW71332   5.759  12.870   6.516
89853SOL    HW171333   5.771  12.818   6.437
89853SOL    HW271334   5.672  12.844   6.548
89854SOL     OW71335   3.865   5.229   0.282
89854SOL    HW171336   3.922   5.255   0.355
89854SOL    HW271337   3.872   5.133   0.280
89855SOL     OW71338  13.876   8.395   4.212
89855SOL    HW171339  13.843   8.431   4.130
89855SOL    HW271340  13.890   8.472   4.267
89856SOL     OW71341  11.603  13.018  12.377
89856SOL    HW171342  11.690  13.054  12.393
89856SOL    HW271343  11.582  12.971  12.458
89857SOL     OW71344   4.508  11.272   7.742
89857SOL    HW171345   4.458  11.329   7.800
89857SOL    HW271346   4.456  11.193   7.734
89858SOL     OW71347   6.869  10.119   4.000
89858SOL    HW171348   6.819  10.159   4.070
89858SOL    HW271349   6.958  10.151   4.012
89859SOL     OW71350   6.479   2.368   2.755
89859SOL    HW171351   6.508   2.454   2.786
89859SOL    HW271352   6.410   2.388   2.692
89860SOL     OW71353  10.594   8.504  12.672
89860SOL    HW171354  10.611   8.459  12.589
89860SOL    HW271355  10.670   8.484  12.726
89861SOL     OW71356   5.319   0.499   2.075
89861SOL    HW171357   5.239   0.499   2.024
89861SOL    HW271358   5.389   0.514   2.012
89862SOL     OW71359  13.793  10.156  11.853
89862SOL    HW171360  13.746  10.240  11.853
89862SOL    HW271361  13.869  10.172  11.909
89863SOL     OW71362   6.895   1.096  10.496
89863SOL    HW171363   6.920   1.187  10.512
89863SOL    HW271364   6.858   1.096  10.408
89864SOL     OW71365   9.775   3.874   6.499
89864SOL    HW171366   9.732   3.802   6.453
89864SOL    HW271367   9.788   3.841   6.588
89865SOL     OW71368   7.480   5.960   6.393
89865SOL    HW171369   7.549   5.941   6.330
89865SOL    HW271370   7.416   5.890   6.380
89866SOL     OW71371  14.313   3.507   8.986
89866SOL    HW171372  14.325   3.514   8.891
89866SOL    HW271373  14.276   3.592   9.011
89867SOL     OW71374   4.905   4.475   0.643
89867SOL    HW171375   4.909   4.393   0.594
89867SOL    HW271376   4.822   4.515   0.616
89868SOL     OW71377   1.450  11.680   0.566
89868SOL    HW171378   1.383  11.666   0.500
89868SOL    HW271379   1.427  11.619   0.637
89869SOL     OW71380   3.376   4.582  10.600
89869SOL    HW171381   3.320   4.658  10.615
89869SOL    HW271382   3.407   4.591  10.510
89870SOL     OW71383  12.361   3.420  13.153
89870SOL    HW171384  12.313   3.370  13.219
89870SOL    HW271385  12.375   3.506  13.193
89871SOL     OW71386   4.685   0.460   4.225
89871SOL    HW171387   4.743   0.499   4.160
89871SOL    HW271388   4.669   0.529   4.289
89872SOL     OW71389   5.650   0.369   3.230
89872SOL    HW171390   5.665   0.390   3.138
89872SOL    HW271391   5.737   0.374   3.270
89873SOL     OW71392   8.594  14.642   3.484
89873SOL    HW171393   8.662  14.582   3.452
89873SOL    HW271394   8.563  14.688   3.406
89874SOL     OW71395  10.255   7.946  10.504
89874SOL    HW171396  10.190   8.016  10.495
89874SOL    HW271397  10.305   7.970  10.583
89875SOL     OW71398   4.001   7.314   0.706
89875SOL    HW171399   4.061   7.388   0.693
89875SOL    HW271400   3.918   7.343   0.669
89876SOL     OW71401  11.294  13.529  10.574
89876SOL    HW171402  11.340  13.613  10.575
89876SOL    HW271403  11.358  13.467  10.609
89877SOL     OW71404   2.770   2.669  10.195
89877SOL    HW171405   2.678   2.692  10.179
89877SOL    HW271406   2.780   2.583  10.154
89878SOL     OW71407   0.786   1.794   1.423
89878SOL    HW171408   0.693   1.803   1.443
89878SOL    HW271409   0.825   1.875   1.455
89879SOL     OW71410  14.358  10.507   7.855
89879SOL    HW171411  14.419  10.434   7.862
89879SOL    HW271412  14.414  10.585   7.847
89880SOL     OW71413   0.189  13.423   9.020
89880SOL    HW171414   0.216  13.419   8.929
89880SOL    HW271415   0.154  13.336   9.039
89881SOL     OW71416  12.570   4.987   6.019
89881SOL    HW171417  12.565   5.057   6.084
89881SOL    HW271418  12.488   4.939   6.030
89882SOL     OW71419   0.851  14.235  14.471
89882SOL    HW171420   0.930  14.281  14.499
89882SOL    HW271421   0.878  14.144  14.459
89883SOL     OW71422   5.252  12.862   2.882
89883SOL    HW171423   5.340  12.889   2.908
89883SOL    HW271424   5.265  12.812   2.801
89884SOL     OW71425  11.012   0.895  11.638
89884SOL    HW171426  10.942   0.838  11.671
89884SOL    HW271427  11.090   0.840  11.641
89885SOL     OW71428   3.248  11.738   7.762
89885SOL    HW171429   3.216  11.747   7.851
89885SOL    HW271430   3.285  11.650   7.758
89886SOL     OW71431   0.900  12.797   1.799
89886SOL    HW171432   0.929  12.870   1.855
89886SOL    HW271433   0.980  12.762   1.762
89887SOL     OW71434   5.745  13.934   7.735
89887SOL    HW171435   5.784  13.927   7.648
89887SOL    HW271436   5.781  13.859   7.784
89888SOL     OW71437   1.018  11.015   6.655
89888SOL    HW171438   1.056  11.103   6.656
89888SOL    HW271439   1.064  10.970   6.584
89889SOL     OW71440   7.942  14.169   0.637
89889SOL    HW171441   7.865  14.118   0.610
89889SOL    HW271442   7.905  14.249   0.675
89890SOL     OW71443  11.208   7.527   2.894
89890SOL    HW171444  11.276   7.490   2.837
89890SOL    HW271445  11.126   7.508   2.848
89891SOL     OW71446   2.602   6.455   1.614
89891SOL    HW171447   2.514   6.478   1.645
89891SOL    HW271448   2.654   6.535   1.626
89892SOL     OW71449   7.427   6.684   0.673
89892SOL    HW171450   7.416   6.778   0.659
89892SOL    HW271451   7.487   6.656   0.604
89893SOL     OW71452   4.732  10.438   5.622
89893SOL    HW171453   4.825  10.449   5.640
89893SOL    HW271454   4.717  10.486   5.540
89894SOL     OW71455   1.074   5.544   3.919
89894SOL    HW171456   1.022   5.496   3.854
89894SOL    HW271457   1.010   5.598   3.965
89895SOL     OW71458  14.772   0.713   4.053
89895SOL    HW171459  14.831   0.781   4.084
89895SOL    HW271460  14.721   0.754   3.983
89896SOL     OW71461  14.248   6.883   9.329
89896SOL    HW171462  14.215   6.856   9.415
89896SOL    HW271463  14.280   6.972   9.343
89897SOL     OW71464   6.577   6.462   1.999
89897SOL    HW171465   6.494   6.466   2.046
89897SOL    HW271466   6.576   6.540   1.943
89898SOL     OW71467   7.292   1.359   7.346
89898SOL    HW171468   7.268   1.272   7.378
89898SOL    HW271469   7.381   1.372   7.377
89899SOL     OW71470   9.608   5.404   1.329
89899SOL    HW171471   9.580   5.326   1.281
89899SOL    HW271472   9.701   5.390   1.346
89900SOL     OW71473   1.667  11.766  10.311
89900SOL    HW171474   1.727  11.729  10.376
89900SOL    HW271475   1.648  11.854  10.343
89901SOL     OW71476   7.614   9.935   8.561
89901SOL    HW171477   7.635   9.855   8.514
89901SOL    HW271478   7.566   9.989   8.498
89902SOL     OW71479  14.771  11.058   7.978
89902SOL    HW171480  14.846  11.015   8.020
89902SOL    HW271481  14.701  10.992   7.982
89903SOL     OW71482  10.250  13.605   9.479
89903SOL    HW171483  10.295  13.598   9.563
89903SOL    HW271484  10.303  13.666   9.429
89904SOL     OW71485  13.506   4.172  13.456
89904SOL    HW171486  13.461   4.091  13.477
89904SOL    HW271487  13.440   4.240  13.470
89905SOL     OW71488  12.159   6.715   3.794
89905SOL    HW171489  12.160   6.688   3.885
89905SOL    HW271490  12.250   6.742   3.776
89906SOL     OW71491   2.367   0.803   8.046
89906SOL    HW171492   2.311   0.735   8.084
89906SOL    HW271493   2.436   0.816   8.111
89907SOL     OW71494   4.757  13.384  14.680
89907SOL    HW171495   4.848  13.408  14.697
89907SOL    HW271496   4.763  13.303  14.631
89908SOL     OW71497  12.410  12.676   1.996
89908SOL    HW171498  12.329  12.679   1.945
89908SOL    HW271499  12.458  12.601   1.962
89909SOL     OW71500   0.398  14.774   5.211
89909SOL    HW171501   0.469  14.825   5.250
89909SOL    HW271502   0.418  14.683   5.233
89910SOL     OW71503   3.510   9.481  11.279
89910SOL    HW171504   3.509   9.576  11.267
89910SOL    HW271505   3.427   9.451  11.243
89911SOL     OW71506   0.256   8.731  11.195
89911SOL    HW171507   0.179   8.747  11.142
89911SOL    HW271508   0.327   8.720  11.132
89912SOL     OW71509  13.816  10.783   3.017
89912SOL    HW171510  13.802  10.849   3.085
89912SOL    HW271511  13.869  10.828   2.951
89913SOL     OW71512  10.311   0.219  14.144
89913SOL    HW171513  10.376   0.284  14.116
89913SOL    HW271514  10.297   0.164  14.067
89914SOL     OW71515   9.483   6.454  13.647
89914SOL    HW171516   9.451   6.544  13.643
89914SOL    HW271517   9.537   6.445  13.569
89915SOL     OW71518   3.880   1.838  12.409
89915SOL    HW171519   3.908   1.771  12.471
89915SOL    HW271520   3.820   1.792  12.350
89916SOL     OW71521   9.465  13.788   6.126
89916SOL    HW171522   9.487  13.875   6.157
89916SOL    HW271523   9.421  13.746   6.200
89917SOL     OW71524   8.019   0.798  10.328
89917SOL    HW171525   8.100   0.818  10.282
89917SOL    HW271526   8.004   0.705  10.311
89918SOL     OW71527  11.637  10.175   5.365
89918SOL    HW171528  11.643  10.080   5.355
89918SOL    HW271529  11.545  10.192   5.384
89919SOL     OW71530   4.284   3.137   0.773
89919SOL    HW171531   4.214   3.112   0.713
89919SOL    HW271532   4.339   3.197   0.723
89920SOL     OW71533   7.368   2.628   4.549
89920SOL    HW171534   7.432   2.694   4.572
89920SOL    HW271535   7.403   2.547   4.587
89921SOL     OW71536   8.841   7.284  12.236
89921SOL    HW171537   8.926   7.262  12.197
89921SOL    HW271538   8.862   7.329  12.317
89922SOL     OW71539   7.586   7.300   9.417
89922SOL    HW171540   7.537   7.353   9.354
89922SOL    HW271541   7.674   7.337   9.415
89923SOL     OW71542   0.133   1.578   7.916
89923SOL    HW171543   0.103   1.595   7.826
89923SOL    HW271544   0.182   1.496   7.910
89924SOL     OW71545   7.053   1.209   9.917
89924SOL    HW171546   6.979   1.267   9.902
89924SOL    HW271547   7.108   1.255   9.981
89925SOL     OW71548   3.924   7.091   6.809
89925SOL    HW171549   4.019   7.095   6.806
89925SOL    HW271550   3.896   7.168   6.758
89926SOL     OW71551  11.022   4.835   0.694
89926SOL    HW171552  11.051   4.899   0.629
89926SOL    HW271553  11.013   4.885   0.775
89927SOL     OW71554   0.817   5.239  12.955
89927SOL    HW171555   0.885   5.252  12.889
89927SOL    HW271556   0.740   5.282  12.918
89928SOL     OW71557  14.231   5.890   3.074
89928SOL    HW171558  14.305   5.942   3.106
89928SOL    HW271559  14.226   5.911   2.981
89929SOL     OW71560   9.646   6.243   2.447
89929SOL    HW171561   9.598   6.308   2.396
89929SOL    HW271562   9.737   6.252   2.419
89930SOL     OW71563   4.012  10.203   9.672
89930SOL    HW171564   4.036  10.282   9.720
89930SOL    HW271565   4.092  10.177   9.627
89931SOL     OW71566   6.176  13.547  11.349
89931SOL    HW171567   6.090  13.583  11.367
89931SOL    HW271568   6.163  13.488  11.275
89932SOL     OW71569   4.740   0.624   8.470
89932SOL    HW171570   4.669   0.592   8.414
89932SOL    HW271571   4.703   0.620   8.559
89933SOL     OW71572   4.690  13.796   4.866
89933SOL    HW171573   4.609  13.791   4.916
89933SOL    HW271574   4.666  13.843   4.786
89934SOL     OW71575   4.476  13.611   0.124
89934SOL    HW171576   4.499  13.530   0.170
89934SOL    HW271577   4.514  13.681   0.177
89935SOL     OW71578  11.119  11.407  12.681
89935SOL    HW171579  11.178  11.443  12.747
89935SOL    HW271580  11.034  11.401  12.725
89936SOL     OW71581  12.339  10.547   1.874
89936SOL    HW171582  12.292  10.615   1.922
89936SOL    HW271583  12.390  10.501   1.940
89937SOL     OW71584   4.029   9.388  10.765
89937SOL    HW171585   3.965   9.337  10.813
89937SOL    HW271586   4.047   9.464  10.820
89938SOL     OW71587   7.772   7.359   6.600
89938SOL    HW171588   7.858   7.392   6.576
89938SOL    HW271589   7.718   7.438   6.608
89939SOL     OW71590   6.002  12.670   5.849
89939SOL    HW171591   5.916  12.681   5.808
89939SOL    HW271592   6.054  12.742   5.813
89940SOL     OW71593   7.513   4.939  13.079
89940SOL    HW171594   7.557   4.974  13.157
89940SOL    HW271595   7.448   4.877  13.114
89941SOL     OW71596   2.360  14.514   0.748
89941SOL    HW171597   2.360  14.493   0.841
89941SOL    HW271598   2.291  14.579   0.737
89942SOL     OW71599   2.012  13.303  13.129
89942SOL    HW171600   1.945  13.236  13.116
89942SOL    HW271601   1.995  13.368  13.061
89943SOL     OW71602  12.592   6.331  14.667
89943SOL    HW171603  12.589   6.245  14.625
89943SOL    HW271604  12.677   6.368  14.640
89944SOL     OW71605   7.141   0.560   9.460
89944SOL    HW171606   7.046   0.574   9.469
89944SOL    HW271607   7.155   0.557   9.366
89945SOL     OW71608   6.505   8.040  14.409
89945SOL    HW171609   6.566   8.111  14.387
89945SOL    HW271610   6.531   8.012  14.497
89946SOL     OW71611  12.727   7.143  13.626
89946SOL    HW171612  12.807   7.093  13.611
89946SOL    HW271613  12.673   7.127  13.549
89947SOL     OW71614   6.407   4.928  12.317
89947SOL    HW171615   6.373   5.015  12.336
89947SOL    HW271616   6.340   4.868  12.350
89948SOL     OW71617   8.756  10.835   5.455
89948SOL    HW171618   8.839  10.845   5.503
89948SOL    HW271619   8.731  10.744   5.469
89949SOL     OW71620   1.755   4.155  12.942
89949SOL    HW171621   1.697   4.225  12.971
89949SOL    HW271622   1.714   4.075  12.975
89950SOL     OW71623   2.547   2.291  11.354
89950SOL    HW171624   2.519   2.205  11.324
89950SOL    HW271625   2.547   2.285  11.449
89951SOL     OW71626  13.856   3.696   2.291
89951SOL    HW171627  13.811   3.685   2.375
89951SOL    HW271628  13.833   3.617   2.242
89952SOL     OW71629   3.632  11.061   1.103
89952SOL    HW171630   3.589  11.145   1.112
89952SOL    HW271631   3.582  11.002   1.159
89953SOL     OW71632   5.579   7.382   6.437
89953SOL    HW171633   5.550   7.414   6.523
89953SOL    HW271634   5.608   7.461   6.391
89954SOL     OW71635   8.847   7.370   6.446
89954SOL    HW171636   8.826   7.356   6.539
89954SOL    HW271637   8.768   7.409   6.409
89955SOL     OW71638   1.046  10.822   3.802
89955SOL    HW171639   1.096  10.861   3.873
89955SOL    HW271640   0.982  10.889   3.778
89956SOL     OW71641   8.713   4.041   8.979
89956SOL    HW171642   8.636   4.006   8.933
89956SOL    HW271643   8.786   4.024   8.919
89957SOL     OW71644  12.045   7.465   9.774
89957SOL    HW171645  12.073   7.553   9.749
89957SOL    HW271646  12.105   7.441   9.845
89958SOL     OW71647  12.115   9.254   6.230
89958SOL    HW171648  12.140   9.312   6.159
89958SOL    HW271649  12.165   9.285   6.306
89959SOL     OW71650   4.332  12.886   2.871
89959SOL    HW171651   4.394  12.924   2.808
89959SOL    HW271652   4.385  12.869   2.949
89960SOL     OW71653   8.704  11.790  12.338
89960SOL    HW171654   8.761  11.727  12.294
89960SOL    HW271655   8.616  11.768  12.307
89961SOL     OW71656   0.181   6.561   0.429
89961SOL    HW171657   0.266   6.571   0.386
89961SOL    HW271658   0.195   6.491   0.493
89962SOL     OW71659  12.795  10.536   1.742
89962SOL    HW171660  12.804  10.522   1.647
89962SOL    HW271661  12.700  10.545   1.755
89963SOL     OW71662   3.960   0.947   3.604
89963SOL    HW171663   4.035   0.956   3.545
89963SOL    HW271664   3.889   0.915   3.548
89964SOL     OW71665  11.666   0.481   6.753
89964SOL    HW171666  11.631   0.391   6.749
89964SOL    HW271667  11.760   0.469   6.763
89965SOL     OW71668   4.015   3.806   0.254
89965SOL    HW171669   3.964   3.882   0.225
89965SOL    HW271670   4.106   3.829   0.236
89966SOL     OW71671   2.965  12.405   4.007
89966SOL    HW171672   3.044  12.355   4.031
89966SOL    HW271673   2.997  12.474   3.949
89967SOL     OW71674   4.665   9.852  10.440
89967SOL    HW171675   4.733   9.917  10.422
89967SOL    HW271676   4.690   9.814  10.524
89968SOL     OW71677   1.005  13.926   0.942
89968SOL    HW171678   0.980  13.866   1.012
89968SOL    HW271679   0.982  14.013   0.976
89969SOL     OW71680   8.446   3.708   8.554
89969SOL    HW171681   8.364   3.662   8.571
89969SOL    HW271682   8.514   3.643   8.571
89970SOL     OW71683  14.638   5.909   2.215
89970SOL    HW171684  14.632   5.902   2.120
89970SOL    HW271685  14.570   5.851   2.248
89971SOL     OW71686  14.412  11.786   7.172
89971SOL    HW171687  14.431  11.782   7.265
89971SOL    HW271688  14.440  11.874   7.146
89972SOL     OW71689  11.133  10.084  11.176
89972SOL    HW171690  11.151  10.018  11.242
89972SOL    HW271691  11.183  10.055  11.099
89973SOL     OW71692   1.458   3.478   5.710
89973SOL    HW171693   1.431   3.537   5.640
89973SOL    HW271694   1.382   3.421   5.725
89974SOL     OW71695  13.157  11.946   6.310
89974SOL    HW171696  13.212  12.002   6.364
89974SOL    HW271697  13.154  11.862   6.357
89975SOL     OW71698   0.000  12.852   4.620
89975SOL    HW171699   0.028  12.933   4.663
89975SOL    HW271700  14.857  12.878   4.530
89976SOL     OW71701   4.773   0.075   3.333
89976SOL    HW171702   4.781  14.861   3.306
89976SOL    HW271703   4.818   0.124   3.264
89977SOL     OW71704   7.223   5.383   5.675
89977SOL    HW171705   7.288   5.338   5.621
89977SOL    HW271706   7.237   5.476   5.658
89978SOL     OW71707  11.479   7.695  13.668
89978SOL    HW171708  11.426   7.618  13.689
89978SOL    HW271709  11.417   7.756  13.629
89979SOL     OW71710   4.098   4.410   5.948
89979SOL    HW171711   4.150   4.406   5.868
89979SOL    HW271712   4.083   4.318   5.971
89980SOL     OW71713  10.347  14.709  13.366
89980SOL    HW171714  10.408  14.722  13.294
89980SOL    HW271715  10.277  14.773  13.351
89981SOL     OW71716  10.993   6.713   8.151
89981SOL    HW171717  10.924   6.682   8.210
89981SOL    HW271718  10.973   6.805   8.136
89982SOL     OW71719  10.573   8.440   8.770
89982SOL    HW171720  10.598   8.489   8.848
89982SOL    HW271721  10.587   8.501   8.697
89983SOL     OW71722   3.427   3.682  11.674
89983SOL    HW171723   3.509   3.680  11.724
89983SOL    HW271724   3.448   3.732  11.595
89984SOL     OW71725   1.673  14.832   6.153
89984SOL    HW171726   1.663  14.777   6.231
89984SOL    HW271727   1.692   0.041   6.188
89985SOL     OW71728  13.767   4.459   0.145
89985SOL    HW171729  13.687   4.511   0.152
89985SOL    HW271730  13.740   4.371   0.173
89986SOL     OW71731   0.194   5.471   3.955
89986SOL    HW171732   0.148   5.483   3.873
89986SOL    HW271733   0.125   5.467   4.021
89987SOL     OW71734   6.333   1.940   5.435
89987SOL    HW171735   6.315   1.925   5.342
89987SOL    HW271736   6.248   1.963   5.472
89988SOL     OW71737   2.324  13.902   8.148
89988SOL    HW171738   2.339  13.840   8.077
89988SOL    HW271739   2.400  13.893   8.205
89989SOL     OW71740   2.631   3.235  13.181
89989SOL    HW171741   2.702   3.198  13.129
89989SOL    HW271742   2.593   3.303  13.125
89990SOL     OW71743   3.006  11.604   4.260
89990SOL    HW171744   2.972  11.693   4.252
89990SOL    HW271745   2.953  11.553   4.199
89991SOL     OW71746   0.078  10.916   3.483
89991SOL    HW171747   0.102  10.824   3.480
89991SOL    HW271748   0.066  10.941   3.391
89992SOL     OW71749   3.365   1.986   3.436
89992SOL    HW171750   3.422   2.008   3.362
89992SOL    HW271751   3.395   2.043   3.507
89993SOL     OW71752   6.870  12.834   6.193
89993SOL    HW171753   6.928  12.761   6.217
89993SOL    HW271754   6.930  12.903   6.166
89994SOL     OW71755   1.091   1.034  10.618
89994SOL    HW171756   1.180   1.036  10.583
89994SOL    HW271757   1.092   0.964  10.683
89995SOL     OW71758   8.654  10.544   6.528
89995SOL    HW171759   8.610  10.597   6.594
89995SOL    HW271760   8.678  10.607   6.459
89996SOL     OW71761   6.098   5.778   5.183
89996SOL    HW171762   6.060   5.859   5.217
89996SOL    HW271763   6.026   5.734   5.138
89997SOL     OW71764   3.007  12.577  13.492
89997SOL    HW171765   3.062  12.499  13.499
89997SOL    HW271766   2.934  12.549  13.436
89998SOL     OW71767   4.284   1.364   6.438
89998SOL    HW171768   4.246   1.450   6.453
89998SOL    HW271769   4.250   1.310   6.509
89999SOL     OW71770   8.951  12.386   4.778
89999SOL    HW171771   9.042  12.416   4.773
89999SOL    HW271772   8.920  12.390   4.687
90000SOL     OW71773   1.887   1.197  12.520
90000SOL    HW171774   1.880   1.143  12.441
90000SOL    HW271775   1.818   1.165  12.578
90001SOL     OW71776  12.546   9.135   1.737
90001SOL    HW171777  12.471   9.079   1.755
90001SOL    HW271778  12.545   9.146   1.642
90002SOL     OW71779   2.506  13.420  11.592
90002SOL    HW171780   2.553  13.498  11.622
90002SOL    HW271781   2.478  13.443  11.503
90003SOL     OW71782  11.504   9.142  10.197
90003SOL    HW171783  11.520   9.054  10.230
90003SOL    HW271784  11.514   9.199  10.273
90004SOL     OW71785   8.691  14.868   0.782
90004SOL    HW171786   8.666   0.081   0.765
90004SOL    HW271787   8.746  14.873   0.860
90005SOL     OW71788  14.170   3.932  12.720
90005SOL    HW171789  14.109   4.005  12.712
90005SOL    HW271790  14.117   3.859  12.752
90006SOL     OW71791   2.829   2.549   2.975
90006SOL    HW171792   2.918   2.532   3.004
90006SOL    HW271793   2.802   2.470   2.929
90007SOL     OW71794  14.237   2.192   4.618
90007SOL    HW171795  14.302   2.256   4.589
90007SOL    HW271796  14.154   2.224   4.582
90008SOL     OW71797   0.177   1.262  10.024
90008SOL    HW171798   0.206   1.267  10.114
90008SOL    HW271799   0.083   1.282  10.028
90009SOL     OW71800   3.718   0.000   9.446
90009SOL    HW171801   3.698  14.786   9.429
90009SOL    HW271802   3.640   0.048   9.417
90010SOL     OW71803  10.129   7.539   0.095
90010SOL    HW171804  10.208   7.568   0.140
90010SOL    HW271805  10.074   7.501   0.164
90011SOL     OW71806  11.302  12.682   5.858
90011SOL    HW171807  11.265  12.766   5.832
90011SOL    HW271808  11.225  12.626   5.872
90012SOL     OW71809   7.032   4.140   1.417
90012SOL    HW171810   7.029   4.235   1.430
90012SOL    HW271811   6.957   4.123   1.360
90013SOL     OW71812   7.596   4.243  13.729
90013SOL    HW171813   7.511   4.269  13.693
90013SOL    HW271814   7.646   4.213  13.653
90014SOL     OW71815   7.928  12.932   8.929
90014SOL    HW171816   8.007  12.894   8.891
90014SOL    HW271817   7.858  12.910   8.867
90015SOL     OW71818   2.852   0.285  14.324
90015SOL    HW171819   2.886   0.214  14.269
90015SOL    HW271820   2.912   0.359  14.308
90016SOL     OW71821  10.702   2.437   5.876
90016SOL    HW171822  10.738   2.349   5.889
90016SOL    HW271823  10.706   2.451   5.781
90017SOL     OW71824   4.791   4.075  10.965
90017SOL    HW171825   4.868   4.130  10.979
90017SOL    HW271826   4.720   4.122  11.009
90018SOL     OW71827   9.513   6.459   5.185
90018SOL    HW171828   9.424   6.485   5.207
90018SOL    HW271829   9.566   6.538   5.200
90019SOL     OW71830  11.415   3.821   4.840
90019SOL    HW171831  11.390   3.741   4.795
90019SOL    HW271832  11.511   3.817   4.847
90020SOL     OW71833   4.204   2.662  12.205
90020SOL    HW171834   4.270   2.680  12.272
90020SOL    HW271835   4.178   2.748  12.173
90021SOL     OW71836   1.619  12.080   7.385
90021SOL    HW171837   1.531  12.065   7.349
90021SOL    HW271838   1.611  12.057   7.477
90022SOL     OW71839  13.239   5.929  13.649
90022SOL    HW171840  13.288   5.954  13.570
90022SOL    HW271841  13.284   5.975  13.720
90023SOL     OW71842   3.017   2.583   7.281
90023SOL    HW171843   3.081   2.605   7.214
90023SOL    HW271844   3.024   2.488   7.291
90024SOL     OW71845   6.146   5.799   1.308
90024SOL    HW171846   6.123   5.770   1.397
90024SOL    HW271847   6.193   5.725   1.270
90025SOL     OW71848   0.741  12.173   1.381
90025SOL    HW171849   0.774  12.134   1.299
90025SOL    HW271850   0.646  12.176   1.369
90026SOL     OW71851   2.299   5.785   4.153
90026SOL    HW171852   2.270   5.774   4.244
90026SOL    HW271853   2.374   5.727   4.145
90027SOL     OW71854   6.045   8.416   3.641
90027SOL    HW171855   6.064   8.452   3.728
90027SOL    HW271856   5.965   8.365   3.653
90028SOL     OW71857   3.446   5.256  14.604
90028SOL    HW171858   3.521   5.221  14.653
90028SOL    HW271859   3.387   5.290  14.670
90029SOL     OW71860   5.107   2.913   9.731
90029SOL    HW171861   5.059   2.830   9.737
90029SOL    HW271862   5.135   2.917   9.639
90030SOL     OW71863  11.532   6.710   2.740
90030SOL    HW171864  11.568   6.782   2.793
90030SOL    HW271865  11.610   6.660   2.713
90031SOL     OW71866   0.479   0.739   4.793
90031SOL    HW171867   0.478   0.772   4.703
90031SOL    HW271868   0.398   0.774   4.831
90032SOL     OW71869   2.916  10.110  10.407
90032SOL    HW171870   2.843  10.136  10.351
90032SOL    HW271871   2.929  10.185  10.466
90033SOL     OW71872   5.324  13.244   5.008
90033SOL    HW171873   5.232  13.265   5.023
90033SOL    HW271874   5.341  13.168   5.063
90034SOL     OW71875   3.294  14.019  11.673
90034SOL    HW171876   3.212  14.045  11.715
90034SOL    HW271877   3.362  14.069  11.720
90035SOL     OW71878  12.429  13.442   8.768
90035SOL    HW171879  12.475  13.398   8.840
90035SOL    HW271880  12.336  13.433   8.790
90036SOL     OW71881  10.322   3.673   3.379
90036SOL    HW171882  10.229   3.674   3.356
90036SOL    HW271883  10.325   3.632   3.466
90037SOL     OW71884   8.443   2.363   8.648
90037SOL    HW171885   8.438   2.424   8.722
90037SOL    HW271886   8.508   2.298   8.675
90038SOL     OW71887   2.864   4.809  11.514
90038SOL    HW171888   2.807   4.882  11.489
90038SOL    HW271889   2.807   4.732  11.512
90039SOL     OW71890  11.776   7.044   9.653
90039SOL    HW171891  11.762   6.975   9.719
90039SOL    HW271892  11.785   7.124   9.704
90040SOL     OW71893   0.682   8.410  12.858
90040SOL    HW171894   0.625   8.438  12.786
90040SOL    HW271895   0.623   8.363  12.917
90041SOL     OW71896   9.741   3.346   1.988
90041SOL    HW171897   9.679   3.419   1.988
90041SOL    HW271898   9.772   3.341   1.897
90042SOL     OW71899   8.012   2.746  10.777
90042SOL    HW171900   7.927   2.788  10.792
90042SOL    HW271901   8.075   2.818  10.781
90043SOL     OW71902   9.858   1.751   4.583
90043SOL    HW171903   9.835   1.664   4.617
90043SOL    HW271904   9.806   1.812   4.636
90044SOL     OW71905  10.456   4.656   2.590
90044SOL    HW171906  10.385   4.593   2.574
90044SOL    HW271907  10.504   4.659   2.507
90045SOL     OW71908  14.243   9.831  13.747
90045SOL    HW171909  14.325   9.874  13.726
90045SOL    HW271910  14.267   9.742  13.774
90046SOL     OW71911   7.580   2.118  11.300
90046SOL    HW171912   7.521   2.193  11.307
90046SOL    HW271913   7.521   2.042  11.295
90047SOL     OW71914   6.211  11.403   7.036
90047SOL    HW171915   6.220  11.421   7.129
90047SOL    HW271916   6.287  11.350   7.013
90048SOL     OW71917   0.219   4.640  11.556
90048SOL    HW171918   0.256   4.633  11.644
90048SOL    HW271919   0.249   4.560  11.511
90049SOL     OW71920   8.475   1.919  11.598
90049SOL    HW171921   8.526   1.850  11.556
90049SOL    HW271922   8.464   1.889  11.688
90050SOL     OW71923   6.505  10.628  13.807
90050SOL    HW171924   6.445  10.693  13.769
90050SOL    HW271925   6.565  10.606  13.735
90051SOL     OW71926   6.015  10.600  12.258
90051SOL    HW171927   6.033  10.587  12.165
90051SOL    HW271928   5.929  10.642  12.260
90052SOL     OW71929  13.019   2.882   0.935
90052SOL    HW171930  13.050   2.823   0.866
90052SOL    HW271931  12.927   2.899   0.913
90053SOL     OW71932   1.000   2.545  10.525
90053SOL    HW171933   0.951   2.549  10.442
90053SOL    HW271934   0.943   2.496  10.584
90054SOL     OW71935   0.449  12.384  14.028
90054SOL    HW171936   0.370  12.416  13.984
90054SOL    HW271937   0.441  12.416  14.118
90055SOL     OW71938   0.169  12.308   4.857
90055SOL    HW171939   0.134  12.384   4.904
90055SOL    HW271940   0.252  12.339   4.821
90056SOL     OW71941   6.221  10.592   5.369
90056SOL    HW171942   6.292  10.606   5.307
90056SOL    HW271943   6.254  10.524   5.429
90057SOL     OW71944   7.061   8.964   4.842
90057SOL    HW171945   7.098   9.045   4.877
90057SOL    HW271946   6.968   8.970   4.862
90058SOL     OW71947  12.205  12.862   1.143
90058SOL    HW171948  12.109  12.858   1.141
90058SOL    HW271949  12.225  12.953   1.163
90059SOL     OW71950  12.544  10.523  12.902
90059SOL    HW171951  12.612  10.515  12.836
90059SOL    HW271952  12.503  10.608  12.885
90060SOL     OW71953   0.033   2.002   2.050
90060SOL    HW171954   0.126   2.023   2.060
90060SOL    HW271955   0.032   1.911   2.020
90061SOL     OW71956   8.620   8.231   2.261
90061SOL    HW171957   8.649   8.152   2.307
90061SOL    HW271958   8.548   8.264   2.314
90062SOL     OW71959  10.042   9.050  11.262
90062SOL    HW171960  10.032   9.082  11.352
90062SOL    HW271961  10.120   8.995  11.265
90063SOL     OW71962   7.134   0.069   2.394
90063SOL    HW171963   7.071   0.124   2.347
90063SOL    HW271964   7.082   0.027   2.463
90064SOL     OW71965   6.214   2.338   2.202
90064SOL    HW171966   6.277   2.272   2.172
90064SOL    HW271967   6.165   2.294   2.271
90065SOL     OW71968   0.872   7.688  12.107
90065SOL    HW171969   0.811   7.685  12.182
90065SOL    HW271970   0.817   7.712  12.033
90066SOL     OW71971   1.677  11.774   1.799
90066SOL    HW171972   1.623  11.706   1.760
90066SOL    HW271973   1.624  11.853   1.795
90067SOL     OW71974   4.699   6.156   2.615
90067SOL    HW171975   4.757   6.232   2.624
90067SOL    HW271976   4.755   6.087   2.580
90068SOL     OW71977   0.483   7.730   5.546
90068SOL    HW171978   0.476   7.748   5.453
90068SOL    HW271979   0.399   7.758   5.583
90069SOL     OW71980  12.917   8.538   9.593
90069SOL    HW171981  12.998   8.488   9.607
90069SOL    HW271982  12.933   8.622   9.636
90070SOL     OW71983   0.042   3.881  13.016
90070SOL    HW171984   0.034   3.953  13.079
90070SOL    HW271985   0.056   3.924  12.932
90071SOL     OW71986   9.430   9.251   8.055
90071SOL    HW171987   9.487   9.177   8.035
90071SOL    HW271988   9.377   9.264   7.976
90072SOL     OW71989  12.223  14.110  13.480
90072SOL    HW171990  12.185  14.197  13.475
90072SOL    HW271991  12.239  14.096  13.573
90073SOL     OW71992  14.594   3.840  14.247
90073SOL    HW171993  14.547   3.823  14.329
90073SOL    HW271994  14.541   3.907  14.203
90074SOL     OW71995   8.295   2.952   8.317
90074SOL    HW171996   8.296   3.010   8.241
90074SOL    HW271997   8.219   2.896   8.303
90075SOL     OW71998  14.688   9.166   1.729
90075SOL    HW171999  14.751   9.216   1.781
90075SOL    HW272000  14.620   9.141   1.791
90076SOL     OW72001   5.551   4.479   3.175
90076SOL    HW172002   5.619   4.540   3.146
90076SOL    HW272003   5.598   4.410   3.221
90077SOL     OW72004   5.636   9.298   7.171
90077SOL    HW172005   5.548   9.264   7.180
90077SOL    HW272006   5.682   9.234   7.116
90078SOL     OW72007  13.212  10.208  11.446
90078SOL    HW172008  13.184  10.118  11.463
90078SOL    HW272009  13.139  10.262  11.475
90079SOL     OW72010  11.081  13.293   9.161
90079SOL    HW172011  11.130  13.217   9.131
90079SOL    HW272012  11.114  13.309   9.250
90080SOL     OW72013  14.590   7.183   4.242
90080SOL    HW172014  14.535   7.140   4.176
90080SOL    HW272015  14.667   7.126   4.250
90081SOL     OW72016  13.442  12.580  13.321
90081SOL    HW172017  13.379  12.637  13.365
90081SOL    HW272018  13.519  12.583  13.378
90082SOL     OW72019   1.538   0.445   4.423
90082SOL    HW172020   1.571   0.375   4.479
90082SOL    HW272021   1.542   0.524   4.477
90083SOL     OW72022   0.193   2.993   4.695
90083SOL    HW172023   0.125   2.955   4.640
90083SOL    HW272024   0.268   2.935   4.683
90084SOL     OW72025  10.136   8.029   2.001
90084SOL    HW172026  10.118   7.935   2.008
90084SOL    HW272027  10.049   8.069   1.996
90085SOL     OW72028   6.826  12.938   3.468
90085SOL    HW172029   6.766  12.996   3.422
90085SOL    HW272030   6.788  12.850   3.457
90086SOL     OW72031  10.950  12.575   9.863
90086SOL    HW172032  10.987  12.599   9.778
90086SOL    HW272033  10.945  12.479   9.861
90087SOL     OW72034  10.877   6.461   1.603
90087SOL    HW172035  10.951   6.407   1.631
90087SOL    HW272036  10.917   6.540   1.568
90088SOL     OW72037   3.626   5.905  12.842
90088SOL    HW172038   3.722   5.907  12.841
90088SOL    HW272039   3.605   5.814  12.863
90089SOL     OW72040   1.368  12.547  11.384
90089SOL    HW172041   1.385  12.541  11.478
90089SOL    HW272042   1.273  12.543  11.376
90090SOL     OW72043   1.141   1.876   5.758
90090SOL    HW172044   1.155   1.949   5.819
90090SOL    HW272045   1.064   1.830   5.793
90091SOL     OW72046   7.173   9.165  12.792
90091SOL    HW172047   7.187   9.244  12.740
90091SOL    HW272048   7.110   9.191  12.859
90092SOL     OW72049   6.754   4.747  10.318
90092SOL    HW172050   6.800   4.690  10.380
90092SOL    HW272051   6.814   4.756  10.244
90093SOL     OW72052   2.430   6.713  12.214
90093SOL    HW172053   2.336   6.724  12.199
90093SOL    HW272054   2.468   6.799  12.192
90094SOL     OW72055   8.535  14.330   5.087
90094SOL    HW172056   8.580  14.396   5.139
90094SOL    HW272057   8.472  14.290   5.147
90095SOL     OW72058   2.198   0.317  11.860
90095SOL    HW172059   2.222   0.225  11.876
90095SOL    HW272060   2.247   0.341  11.782
90096SOL     OW72061   8.004   7.135  11.105
90096SOL    HW172062   8.011   7.063  11.169
90096SOL    HW272063   8.051   7.208  11.146
90097SOL     OW72064   4.878   2.053   3.670
90097SOL    HW172065   4.887   2.101   3.752
90097SOL    HW272066   4.852   2.118   3.606
90098SOL     OW72067  10.564  13.483   5.346
90098SOL    HW172068  10.571  13.548   5.416
90098SOL    HW272069  10.618  13.410   5.376
90099SOL     OW72070   7.620  10.901  12.858
90099SOL    HW172071   7.623  10.806  12.867
90099SOL    HW272072   7.559  10.917  12.786
90100SOL     OW72073  10.995   5.934   4.622
90100SOL    HW172074  10.919   5.990   4.601
90100SOL    HW272075  11.014   5.954   4.714
90101SOL     OW72076  13.328   9.025  13.832
90101SOL    HW172077  13.370   9.105  13.865
90101SOL    HW272078  13.240   9.054  13.807
90102SOL     OW72079   8.303   9.906   7.028
90102SOL    HW172080   8.373   9.844   7.008
90102SOL    HW272081   8.337   9.991   7.000
90103SOL     OW72082   5.505   4.300  12.880
90103SOL    HW172083   5.571   4.328  12.944
90103SOL    HW272084   5.555   4.280  12.801
90104SOL     OW72085   0.199   8.216  10.132
90104SOL    HW172086   0.263   8.287  10.144
90104SOL    HW272087   0.225   8.150  10.197
90105SOL     OW72088   8.111  14.334  11.978
90105SOL    HW172089   8.063  14.335  12.061
90105SOL    HW272090   8.091  14.248  11.940
90106SOL     OW72091  11.638   3.385  12.189
90106SOL    HW172092  11.663   3.459  12.243
90106SOL    HW272093  11.657   3.308  12.242
90107SOL     OW72094   7.109  11.624  10.579
90107SOL    HW172095   7.177  11.668  10.527
90107SOL    HW272096   7.054  11.580  10.514
90108SOL     OW72097   4.910  14.763   2.567
90108SOL    HW172098   4.842  14.813   2.521
90108SOL    HW272099   4.935  14.818   2.641
90109SOL     OW72100   6.321  14.523   1.951
90109SOL    HW172101   6.372  14.585   1.899
90109SOL    HW272102   6.232  14.559   1.951
90110SOL     OW72103   0.721   7.909   4.530
90110SOL    HW172104   0.777   7.928   4.455
90110SOL    HW272105   0.684   7.822   4.511
90111SOL     OW72106   1.992   3.353   1.285
90111SOL    HW172107   2.049   3.419   1.324
90111SOL    HW272108   1.997   3.278   1.344
90112SOL     OW72109   8.653   6.625   0.249
90112SOL    HW172110   8.656   6.668   0.164
90112SOL    HW272111   8.587   6.556   0.239
90113SOL     OW72112  12.016   0.404  11.033
90113SOL    HW172113  12.013   0.443  10.946
90113SOL    HW272114  11.925   0.380  11.052
90114SOL     OW72115   6.874   4.118  12.447
90114SOL    HW172116   6.932   4.186  12.412
90114SOL    HW272117   6.930   4.062  12.500
90115SOL     OW72118  10.961   7.523  13.097
90115SOL    HW172119  10.902   7.472  13.041
90115SOL    HW272120  11.034   7.464  13.115
90116SOL     OW72121   3.554  12.204  11.270
90116SOL    HW172122   3.501  12.272  11.228
90116SOL    HW272123   3.605  12.166  11.199
90117SOL     OW72124  14.431  11.254   3.459
90117SOL    HW172125  14.351  11.297   3.428
90117SOL    HW272126  14.498  11.280   3.395
90118SOL     OW72127   7.840   3.437   2.787
90118SOL    HW172128   7.822   3.402   2.699
90118SOL    HW272129   7.928   3.406   2.808
90119SOL     OW72130  10.851  12.687   4.001
90119SOL    HW172131  10.889  12.748   4.064
90119SOL    HW272132  10.816  12.616   4.054
90120SOL     OW72133   4.122   0.508   9.718
90120SOL    HW172134   4.086   0.591   9.686
90120SOL    HW272135   4.052   0.445   9.704
90121SOL     OW72136   8.745   6.024  12.665
90121SOL    HW172137   8.827   6.036  12.713
90121SOL    HW272138   8.771   5.980  12.584
90122SOL     OW72139   1.432   4.579   6.337
90122SOL    HW172140   1.340   4.605   6.329
90122SOL    HW272141   1.449   4.530   6.257
90123SOL     OW72142   4.340   1.861  14.613
90123SOL    HW172143   4.415   1.920  14.629
90123SOL    HW272144   4.265   1.909  14.648
90124SOL     OW72145  14.477  10.310   7.122
90124SOL    HW172146  14.418  10.261   7.179
90124SOL    HW272147  14.565  10.281   7.146
90125SOL     OW72148   3.044  13.340  11.685
90125SOL    HW172149   2.989  13.262  11.674
90125SOL    HW272150   2.983  13.414  11.676
90126SOL     OW72151  13.624  11.078   5.258
90126SOL    HW172152  13.644  11.136   5.332
90126SOL    HW272153  13.634  11.133   5.181
90127SOL     OW72154  11.431  14.001   6.773
90127SOL    HW172155  11.510  13.976   6.725
90127SOL    HW272156  11.359  13.973   6.717
90128SOL     OW72157  13.056   8.495   1.136
90128SOL    HW172158  13.025   8.531   1.053
90128SOL    HW272159  13.017   8.408   1.141
90129SOL     OW72160  14.391   0.282   9.503
90129SOL    HW172161  14.451   0.223   9.458
90129SOL    HW272162  14.304   0.255   9.473
90130SOL     OW72163   9.263  13.412   2.633
90130SOL    HW172164   9.301  13.445   2.552
90130SOL    HW272165   9.331  13.426   2.699
90131SOL     OW72166   0.523  14.563  10.768
90131SOL    HW172167   0.570  14.645  10.777
90131SOL    HW272168   0.574  14.500  10.821
90132SOL     OW72169   4.151   6.869  10.233
90132SOL    HW172170   4.152   6.774  10.223
90132SOL    HW272171   4.060   6.890  10.257
90133SOL     OW72172   4.473  12.738   0.729
90133SOL    HW172173   4.486  12.724   0.823
90133SOL    HW272174   4.395  12.794   0.724
90134SOL     OW72175  14.843  11.503  12.799
90134SOL    HW172176   0.052  11.480  12.834
90134SOL    HW272177  14.782  11.478  12.868
90135SOL     OW72178   3.148   4.951   7.099
90135SOL    HW172179   3.158   4.904   7.182
90135SOL    HW272180   3.168   5.042   7.122
90136SOL     OW72181   1.835  10.350  12.574
90136SOL    HW172182   1.926  10.321  12.586
90136SOL    HW272183   1.797  10.286  12.515
90137SOL     OW72184   3.069   0.629  13.920
90137SOL    HW172185   3.077   0.538  13.948
90137SOL    HW272186   3.140   0.641  13.858
90138SOL     OW72187  12.581   5.551   5.031
90138SOL    HW172188  12.580   5.476   4.971
90138SOL    HW272189  12.494   5.550   5.071
90139SOL     OW72190   7.933   1.559   4.263
90139SOL    HW172191   7.942   1.583   4.355
90139SOL    HW272192   7.985   1.479   4.253
90140SOL     OW72193  10.887   7.502  11.205
90140SOL    HW172194  10.970   7.551  11.213
90140SOL    HW272195  10.823   7.568  11.179
90141SOL     OW72196   4.407  13.296  11.284
90141SOL    HW172197   4.335  13.358  11.277
90141SOL    HW272198   4.461  13.313  11.207
90142SOL     OW72199   6.751  11.125   8.595
90142SOL    HW172200   6.717  11.147   8.682
90142SOL    HW272201   6.820  11.190   8.579
90143SOL     OW72202   5.853   8.867   6.729
90143SOL    HW172203   5.787   8.915   6.679
90143SOL    HW272204   5.902   8.817   6.663
90144SOL     OW72205   8.934   6.283   9.650
90144SOL    HW172206   8.931   6.238   9.734
90144SOL    HW272207   9.002   6.236   9.601
90145SOL     OW72208   7.751   6.230   5.143
90145SOL    HW172209   7.683   6.293   5.120
90145SOL    HW272210   7.801   6.219   5.062
90146SOL     OW72211   8.723   6.788   9.625
90146SOL    HW172212   8.723   6.693   9.614
90146SOL    HW272213   8.679   6.803   9.709
90147SOL     OW72214   7.126   5.820  12.644
90147SOL    HW172215   7.101   5.850  12.732
90147SOL    HW272216   7.169   5.896  12.604
90148SOL     OW72217   0.307   2.070  12.439
90148SOL    HW172218   0.374   2.003  12.451
90148SOL    HW272219   0.347   2.133  12.378
90149SOL     OW72220  13.526  12.619  10.343
90149SOL    HW172221  13.443  12.584  10.311
90149SOL    HW272222  13.528  12.595  10.436
90150SOL     OW72223   6.750   7.766  10.649
90150SOL    HW172224   6.711   7.679  10.654
90150SOL    HW272225   6.844   7.749  10.640
90151SOL     OW72226  13.402   5.798  11.635
90151SOL    HW172227  13.453   5.868  11.674
90151SOL    HW272228  13.467   5.733  11.609
90152SOL     OW72229  10.557   4.637   9.524
90152SOL    HW172230  10.497   4.709   9.505
90152SOL    HW272231  10.548   4.622   9.618
90153SOL     OW72232   2.633   2.155   5.967
90153SOL    HW172233   2.721   2.178   5.938
90153SOL    HW272234   2.609   2.080   5.912
90154SOL     OW72235   0.303  11.877   2.935
90154SOL    HW172236   0.371  11.910   2.876
90154SOL    HW272237   0.238  11.838   2.877
90155SOL     OW72238  10.873  13.060   1.944
90155SOL    HW172239  10.944  13.121   1.961
90155SOL    HW272240  10.818  13.064   2.022
90156SOL     OW72241   2.341   7.408   1.264
90156SOL    HW172242   2.408   7.345   1.240
90156SOL    HW272243   2.390   7.486   1.292
90157SOL     OW72244   7.229   6.239  10.421
90157SOL    HW172245   7.154   6.258  10.477
90157SOL    HW272246   7.289   6.313  10.434
90158SOL     OW72247   3.487  10.834  12.203
90158SOL    HW172248   3.489  10.930  12.203
90158SOL    HW272249   3.443  10.812  12.285
90159SOL     OW72250   6.943   9.966   5.358
90159SOL    HW172251   6.851   9.946   5.342
90159SOL    HW272252   6.944  10.059   5.381
90160SOL     OW72253   6.061   6.613  13.800
90160SOL    HW172254   6.108   6.679  13.750
90160SOL    HW272255   6.072   6.532  13.750
90161SOL     OW72256   7.685  11.521   4.422
90161SOL    HW172257   7.629  11.444   4.431
90161SOL    HW272258   7.660  11.577   4.496
90162SOL     OW72259  10.647   7.858   0.261
90162SOL    HW172260  10.620   7.816   0.179
90162SOL    HW272261  10.716   7.919   0.235
90163SOL     OW72262   3.847  11.901   7.529
90163SOL    HW172263   3.912  11.970   7.524
90163SOL    HW272264   3.835  11.872   7.438
90164SOL     OW72265   5.198  11.967   7.841
90164SOL    HW172266   5.266  11.905   7.868
90164SOL    HW272267   5.236  12.012   7.765
90165SOL     OW72268  13.060  10.227  13.624
90165SOL    HW172269  13.087  10.137  13.643
90165SOL    HW272270  13.054  10.269  13.710
90166SOL     OW72271  10.417  13.810  11.767
90166SOL    HW172272  10.474  13.766  11.703
90166SOL    HW272273  10.331  13.812  11.724
90167SOL     OW72274  14.791   2.610  12.873
90167SOL    HW172275  14.815   2.590  12.782
90167SOL    HW272276  14.874   2.628  12.916
90168SOL     OW72277   0.755  14.644  12.347
90168SOL    HW172278   0.676  14.603  12.313
90168SOL    HW272279   0.728  14.677  12.434
90169SOL     OW72280  13.915  10.202   5.351
90169SOL    HW172281  13.839  10.168   5.400
90169SOL    HW272282  13.940  10.129   5.294
90170SOL     OW72283   0.920  10.684  14.413
90170SOL    HW172284   0.915  10.776  14.440
90170SOL    HW272285   0.829  10.657  14.403
90171SOL     OW72286   6.037   9.070  10.720
90171SOL    HW172287   5.976   9.142  10.740
90171SOL    HW272288   6.061   9.035  10.806
90172SOL     OW72289   6.618   7.511   6.599
90172SOL    HW172290   6.570   7.432   6.573
90172SOL    HW272291   6.560   7.583   6.573
90173SOL     OW72292  12.424   1.896   7.916
90173SOL    HW172293  12.508   1.868   7.878
90173SOL    HW272294  12.382   1.946   7.846
90174SOL     OW72295  13.054  11.841   3.485
90174SOL    HW172296  13.042  11.746   3.475
90174SOL    HW272297  13.005  11.879   3.412
90175SOL     OW72298  14.318   3.815   6.708
90175SOL    HW172299  14.343   3.907   6.717
90175SOL    HW272300  14.329   3.797   6.614
90176SOL     OW72301   9.371  14.406   6.848
90176SOL    HW172302   9.380  14.475   6.913
90176SOL    HW272303   9.310  14.344   6.887
90177SOL     OW72304   3.806  13.765  13.505
90177SOL    HW172305   3.795  13.738  13.413
90177SOL    HW272306   3.875  13.707  13.538
90178SOL     OW72307   7.139   0.465  11.042
90178SOL    HW172308   7.199   0.399  11.076
90178SOL    HW272309   7.182   0.500  10.964
90179SOL     OW72310   9.230  11.575  13.715
90179SOL    HW172311   9.225  11.488  13.753
90179SOL    HW272312   9.157  11.578  13.653
90180SOL     OW72313  13.486   5.602   1.394
90180SOL    HW172314  13.530   5.606   1.309
90180SOL    HW272315  13.451   5.690   1.407
90181SOL     OW72316   1.691   0.317  13.468
90181SOL    HW172317   1.784   0.340  13.470
90181SOL    HW272318   1.649   0.386  13.520
90182SOL     OW72319   6.470   4.522  13.679
90182SOL    HW172320   6.407   4.466  13.635
90182SOL    HW272321   6.433   4.535  13.767
90183SOL     OW72322   4.791  14.459  11.742
90183SOL    HW172323   4.836  14.540  11.717
90183SOL    HW272324   4.730  14.442  11.670
90184SOL     OW72325   9.655  13.341   1.670
90184SOL    HW172326   9.619  13.289   1.742
90184SOL    HW272327   9.582  13.396   1.642
90185SOL     OW72328   0.600   9.419   9.422
90185SOL    HW172329   0.667   9.352   9.434
90185SOL    HW272330   0.643   9.485   9.368
90186SOL     OW72331  11.499   3.302   3.182
90186SOL    HW172332  11.550   3.383   3.179
90186SOL    HW272333  11.499   3.277   3.274
90187SOL     OW72334  14.183  11.725   7.762
90187SOL    HW172335  14.117  11.671   7.805
90187SOL    HW272336  14.197  11.683   7.677
90188SOL     OW72337   2.373   4.922   8.331
90188SOL    HW172338   2.391   4.832   8.305
90188SOL    HW272339   2.294   4.946   8.281
90189SOL     OW72340  12.461   8.294   7.509
90189SOL    HW172341  12.511   8.313   7.588
90189SOL    HW272342  12.486   8.204   7.486
90190SOL     OW72343  10.435   4.708   9.031
90190SOL    HW172344  10.451   4.630   8.979
90190SOL    HW272345  10.357   4.748   8.991
90191SOL     OW72346   9.011  12.983   0.017
90191SOL    HW172347   8.915  12.985   0.021
90191SOL    HW272348   9.038  12.948   0.102
90192SOL     OW72349  13.308   2.292   8.498
90192SOL    HW172350  13.386   2.278   8.551
90192SOL    HW272351  13.247   2.224   8.528
90193SOL     OW72352   8.248   9.335   7.304
90193SOL    HW172353   8.196   9.386   7.241
90193SOL    HW272354   8.298   9.274   7.250
90194SOL     OW72355   2.975   8.693   1.205
90194SOL    HW172356   2.910   8.678   1.136
90194SOL    HW272357   2.932   8.661   1.285
90195SOL     OW72358  14.513   6.267   1.756
90195SOL    HW172359  14.597   6.292   1.794
90195SOL    HW272360  14.486   6.343   1.704
90196SOL     OW72361   3.159   4.065   1.386
90196SOL    HW172362   3.089   4.005   1.411
90196SOL    HW272363   3.113   4.143   1.354
90197SOL     OW72364   9.283  11.662  12.550
90197SOL    HW172365   9.240  11.676  12.466
90197SOL    HW272366   9.252  11.734  12.606
90198SOL     OW72367  10.953  14.485   4.710
90198SOL    HW172368  10.999  14.547   4.768
90198SOL    HW272369  10.877  14.534   4.679
90199SOL     OW72370   6.243   9.240   9.945
90199SOL    HW172371   6.298   9.206  10.015
90199SOL    HW272372   6.305   9.269   9.878
90200SOL     OW72373   0.644   9.779   3.146
90200SOL    HW172374   0.698   9.858   3.156
90200SOL    HW272375   0.697   9.720   3.094
90201SOL     OW72376   1.864  10.800   2.560
90201SOL    HW172377   1.835  10.890   2.578
90201SOL    HW272378   1.956  10.799   2.587
90202SOL     OW72379   1.903   6.138   3.327
90202SOL    HW172380   1.895   6.138   3.232
90202SOL    HW272381   1.844   6.208   3.356
90203SOL     OW72382  13.911   7.028  10.754
90203SOL    HW172383  13.935   6.938  10.776
90203SOL    HW272384  13.907   7.029  10.658
90204SOL     OW72385  12.906   8.352  14.854
90204SOL    HW172386  12.978   8.378   0.034
90204SOL    HW272387  12.866   8.434  14.827
90205SOL     OW72388   7.084  12.484  10.300
90205SOL    HW172389   6.997  12.505  10.266
90205SOL    HW272390   7.089  12.389  10.292
90206SOL     OW72391   0.576   5.072   7.682
90206SOL    HW172392   0.666   5.072   7.714
90206SOL    HW272393   0.565   5.158   7.641
90207SOL     OW72394   2.512  14.821   6.743
90207SOL    HW172395   2.452   0.013   6.768
90207SOL    HW272396   2.460  14.741   6.750
90208SOL     OW72397   1.899   1.974   0.881
90208SOL    HW172398   1.888   2.036   0.808
90208SOL    HW272399   1.941   2.026   0.950
90209SOL     OW72400   7.721   9.177   0.129
90209SOL    HW172401   7.744   9.099   0.179
90209SOL    HW272402   7.745   9.250   0.185
90210SOL     OW72403   6.988  13.445  13.302
90210SOL    HW172404   7.053  13.416  13.238
90210SOL    HW272405   7.005  13.392  13.380
90211SOL     OW72406   0.084  11.477   5.728
90211SOL    HW172407   0.101  11.463   5.635
90211SOL    HW272408   0.166  11.510   5.764
90212SOL     OW72409  12.809   2.851  13.968
90212SOL    HW172410  12.816   2.756  13.976
90212SOL    HW272411  12.828   2.884  14.056
90213SOL     OW72412  14.449   3.239   4.572
90213SOL    HW172413  14.441   3.144   4.565
90213SOL    HW272414  14.532   3.260   4.529
90214SOL     OW72415  12.602  12.563   2.724
90214SOL    HW172416  12.530  12.570   2.786
90214SOL    HW272417  12.654  12.489   2.756
90215SOL     OW72418   6.734  10.566   9.047
90215SOL    HW172419   6.794  10.534   9.114
90215SOL    HW272420   6.760  10.656   9.032
90216SOL     OW72421  12.312  11.049   3.040
90216SOL    HW172422  12.316  11.118   2.974
90216SOL    HW272423  12.353  10.973   2.998
90217SOL     OW72424  13.530   1.558  13.173
90217SOL    HW172425  13.440   1.590  13.174
90217SOL    HW272426  13.579   1.626  13.127
90218SOL     OW72427  11.602   5.653   3.828
90218SOL    HW172428  11.540   5.617   3.891
90218SOL    HW272429  11.557   5.647   3.744
90219SOL     OW72430  13.375  13.308   9.801
90219SOL    HW172431  13.330  13.245   9.745
90219SOL    HW272432  13.309  13.375   9.819
90220SOL     OW72433  14.207   2.035   6.672
90220SOL    HW172434  14.186   2.118   6.714
90220SOL    HW272435  14.198   2.052   6.578
90221SOL     OW72436  14.556  13.594   5.355
90221SOL    HW172437  14.562  13.688   5.370
90221SOL    HW272438  14.646  13.566   5.340
90222SOL     OW72439   6.461   4.356  10.175
90222SOL    HW172440   6.396   4.296  10.210
90222SOL    HW272441   6.453   4.348  10.080
90223SOL     OW72442   8.993   8.577  13.232
90223SOL    HW172443   9.041   8.594  13.150
90223SOL    HW272444   8.959   8.488  13.222
90224SOL     OW72445  11.567   9.529   9.189
90224SOL    HW172446  11.661   9.547   9.192
90224SOL    HW272447  11.554   9.462   9.256
90225SOL     OW72448   4.115   8.198   1.505
90225SOL    HW172449   4.162   8.280   1.492
90225SOL    HW272450   4.102   8.163   1.417
90226SOL     OW72451  11.802   7.458   3.731
90226SOL    HW172452  11.747   7.380   3.724
90226SOL    HW272453  11.828   7.461   3.823
90227SOL     OW72454   1.787   4.208   2.892
90227SOL    HW172455   1.758   4.299   2.882
90227SOL    HW272456   1.833   4.189   2.810
90228SOL     OW72457  14.206   8.693  12.812
90228SOL    HW172458  14.249   8.772  12.779
90228SOL    HW272459  14.116   8.700  12.781
90229SOL     OW72460   0.837   6.070   4.932
90229SOL    HW172461   0.858   5.994   4.985
90229SOL    HW272462   0.918   6.120   4.926
90230SOL     OW72463   7.738   9.152  13.566
90230SOL    HW172464   7.712   9.108  13.485
90230SOL    HW272465   7.834   9.156  13.562
90231SOL     OW72466   5.276   4.418  14.626
90231SOL    HW172467   5.366   4.451  14.632
90231SOL    HW272468   5.224   4.495  14.604
90232SOL     OW72469  12.432  12.744  12.939
90232SOL    HW172470  12.462  12.692  12.864
90232SOL    HW272471  12.345  12.774  12.914
90233SOL     OW72472  10.672   2.843  14.622
90233SOL    HW172473  10.638   2.838  14.532
90233SOL    HW272474  10.610   2.790  14.673
90234SOL     OW72475  10.891   5.573  12.416
90234SOL    HW172476  10.945   5.616  12.482
90234SOL    HW272477  10.871   5.487  12.452
90235SOL     OW72478   1.681   1.995   6.209
90235SOL    HW172479   1.718   1.910   6.230
90235SOL    HW272480   1.756   2.054   6.207
90236SOL     OW72481  10.118   2.918   8.485
90236SOL    HW172482  10.171   2.937   8.408
90236SOL    HW272483  10.028   2.916   8.453
90237SOL     OW72484  12.102  12.373   0.283
90237SOL    HW172485  12.160  12.445   0.308
90237SOL    HW272486  12.151  12.326   0.215
90238SOL     OW72487   4.501  14.735   8.006
90238SOL    HW172488   4.540  14.773   8.085
90238SOL    HW272489   4.577  14.712   7.951
90239SOL     OW72490  12.288   3.270   2.204
90239SOL    HW172491  12.331   3.185   2.194
90239SOL    HW272492  12.342   3.318   2.267
90240SOL     OW72493   6.447  10.493  12.030
90240SOL    HW172494   6.535  10.528  12.019
90240SOL    HW272495   6.460  10.405  12.064
90241SOL     OW72496   9.754   6.402   7.485
90241SOL    HW172497   9.787   6.452   7.560
90241SOL    HW272498   9.665   6.376   7.511
90242SOL     OW72499  14.541   9.424  14.766
90242SOL    HW172500  14.560   9.490  14.833
90242SOL    HW272501  14.456   9.389  14.790
90243SOL     OW72502   5.795   9.942  14.713
90243SOL    HW172503   5.851  10.017  14.736
90243SOL    HW272504   5.823   9.918  14.625
90244SOL     OW72505   2.292  11.336   3.863
90244SOL    HW172506   2.343  11.288   3.929
90244SOL    HW272507   2.333  11.422   3.860
90245SOL     OW72508   2.889   7.427   5.677
90245SOL    HW172509   2.857   7.507   5.637
90245SOL    HW272510   2.816   7.366   5.670
90246SOL     OW72511   6.260  12.769   2.351
90246SOL    HW172512   6.254  12.865   2.357
90246SOL    HW272513   6.354  12.751   2.349
90247SOL     OW72514  11.404  11.979   6.196
90247SOL    HW172515  11.385  12.073   6.202
90247SOL    HW272516  11.450  11.959   6.278
90248SOL     OW72517  10.213  11.334   4.051
90248SOL    HW172518  10.246  11.392   3.982
90248SOL    HW272519  10.124  11.312   4.023
90249SOL     OW72520   9.560   9.296   8.995
90249SOL    HW172521   9.623   9.224   8.991
90249SOL    HW272522   9.538   9.315   8.904
90250SOL     OW72523  14.595   9.117   3.119
90250SOL    HW172524  14.611   9.209   3.138
90250SOL    HW272525  14.560   9.081   3.201
90251SOL     OW72526   6.149  13.960   9.911
90251SOL    HW172527   6.094  13.899   9.863
90251SOL    HW272528   6.239  13.936   9.888
90252SOL     OW72529   1.645   5.263  13.567
90252SOL    HW172530   1.651   5.310  13.484
90252SOL    HW272531   1.687   5.179  13.551
90253SOL     OW72532   8.665   9.730   5.248
90253SOL    HW172533   8.624   9.677   5.180
90253SOL    HW272534   8.749   9.756   5.211
90254SOL     OW72535   7.929   2.194   4.563
90254SOL    HW172536   7.890   2.167   4.480
90254SOL    HW272537   7.962   2.113   4.602
90255SOL     OW72538   7.089  10.355   2.798
90255SOL    HW172539   7.020  10.295   2.769
90255SOL    HW272540   7.129  10.312   2.873
90256SOL     OW72541  11.523   4.251   6.534
90256SOL    HW172542  11.599   4.206   6.498
90256SOL    HW272543  11.550   4.274   6.623
90257SOL     OW72544   1.410   4.042   6.576
90257SOL    HW172545   1.432   4.134   6.564
90257SOL    HW272546   1.328   4.043   6.625
90258SOL     OW72547   1.571   2.671   1.564
90258SOL    HW172548   1.578   2.764   1.546
90258SOL    HW272549   1.515   2.637   1.494
90259SOL     OW72550  12.174   4.241   8.397
90259SOL    HW172551  12.183   4.305   8.469
90259SOL    HW272552  12.111   4.177   8.430
90260SOL     OW72553  13.034  11.386   2.743
90260SOL    HW172554  13.062  11.463   2.693
90260SOL    HW272555  13.093  11.382   2.817
90261SOL     OW72556   9.476   7.694   2.615
90261SOL    HW172557   9.427   7.613   2.598
90261SOL    HW272558   9.532   7.672   2.690
90262SOL     OW72559   6.759   9.132   8.223
90262SOL    HW172560   6.810   9.056   8.250
90262SOL    HW272561   6.685   9.095   8.174
90263SOL     OW72562   2.410   2.537   9.205
90263SOL    HW172563   2.482   2.474   9.195
90263SOL    HW272564   2.336   2.495   9.161
90264SOL     OW72565   5.207   8.872  13.816
90264SOL    HW172566   5.299   8.882  13.839
90264SOL    HW272567   5.174   8.805  13.877
90265SOL     OW72568  11.107   3.545   7.044
90265SOL    HW172569  11.176   3.542   7.109
90265SOL    HW272570  11.141   3.602   6.975
90266SOL     OW72571   2.282   1.775  12.088
90266SOL    HW172572   2.243   1.696  12.126
90266SOL    HW272573   2.364   1.745  12.049
90267SOL     OW72574   1.598  13.888  12.344
90267SOL    HW172575   1.516  13.862  12.301
90267SOL    HW272576   1.661  13.894  12.272
90268SOL     OW72577  10.569  10.883   3.138
90268SOL    HW172578  10.553  10.882   3.232
90268SOL    HW272579  10.664  10.870   3.130
90269SOL     OW72580   8.428   4.495   5.597
90269SOL    HW172581   8.446   4.412   5.641
90269SOL    HW272582   8.508   4.514   5.547
90270SOL     OW72583   2.306   3.683   9.295
90270SOL    HW172584   2.342   3.656   9.380
90270SOL    HW272585   2.333   3.774   9.285
90271SOL     OW72586   4.118   8.885   6.692
90271SOL    HW172587   4.170   8.810   6.719
90271SOL    HW272588   4.078   8.858   6.610
90272SOL     OW72589   3.469  12.113  11.683
90272SOL    HW172590   3.406  12.044  11.704
90272SOL    HW272591   3.437  12.150  11.600
90273SOL     OW72592   0.156  12.006   3.583
90273SOL    HW172593   0.215  12.062   3.534
90273SOL    HW272594   0.168  11.919   3.544
90274SOL     OW72595  12.451  11.245   8.885
90274SOL    HW172596  12.437  11.163   8.838
90274SOL    HW272597  12.380  11.302   8.855
90275SOL     OW72598   1.342   6.197  14.200
90275SOL    HW172599   1.263   6.153  14.234
90275SOL    HW272600   1.319   6.222  14.111
90276SOL     OW72601   2.622  13.837   0.810
90276SOL    HW172602   2.620  13.817   0.904
90276SOL    HW272603   2.699  13.892   0.799
90277SOL     OW72604  12.987   6.937  11.229
90277SOL    HW172605  12.918   6.871  11.226
90277SOL    HW272606  13.066   6.888  11.249
90278SOL     OW72607  13.907   8.408  12.076
90278SOL    HW172608  13.974   8.434  12.012
90278SOL    HW272609  13.956   8.362  12.144
90279SOL     OW72610  10.471   5.392   8.576
90279SOL    HW172611  10.525   5.374   8.653
90279SOL    HW272612  10.534   5.396   8.503
90280SOL     OW72613   2.138   7.468  11.817
90280SOL    HW172614   2.172   7.396  11.764
90280SOL    HW272615   2.181   7.546  11.783
90281SOL     OW72616   7.825  11.341  11.132
90281SOL    HW172617   7.870  11.277  11.076
90281SOL    HW272618   7.732  11.321  11.121
90282SOL     OW72619  12.556   9.940   9.555
90282SOL    HW172620  12.503   9.977   9.485
90282SOL    HW272621  12.626  10.003   9.569
90283SOL     OW72622  14.402   7.790   2.508
90283SOL    HW172623  14.448   7.859   2.461
90283SOL    HW272624  14.399   7.820   2.599
90284SOL     OW72625   2.194   3.280   4.343
90284SOL    HW172626   2.275   3.232   4.325
90284SOL    HW272627   2.137   3.218   4.387
90285SOL     OW72628  13.831  12.501   5.427
90285SOL    HW172629  13.871  12.567   5.371
90285SOL    HW272630  13.877  12.420   5.404
90286SOL     OW72631   2.769  14.727  10.156
90286SOL    HW172632   2.818  14.649  10.181
90286SOL    HW272633   2.710  14.743  10.230
90287SOL     OW72634  12.949   8.423   6.003
90287SOL    HW172635  12.884   8.425   5.933
90287SOL    HW272636  12.940   8.507   6.047
90288SOL     OW72637  12.446  12.036  10.088
90288SOL    HW172638  12.478  12.083  10.011
90288SOL    HW272639  12.439  11.945  10.059
90289SOL     OW72640   1.056   8.460   8.521
90289SOL    HW172641   0.999   8.515   8.575
90289SOL    HW272642   1.050   8.497   8.433
90290SOL     OW72643   5.321   8.934  10.416
90290SOL    HW172644   5.397   8.991  10.406
90290SOL    HW272645   5.290   8.920  10.327
90291SOL     OW72646  13.580  11.542   2.233
90291SOL    HW172647  13.601  11.611   2.170
90291SOL    HW272648  13.659  11.490   2.239
90292SOL     OW72649   2.819  10.708   5.629
90292SOL    HW172650   2.766  10.747   5.560
90292SOL    HW272651   2.793  10.754   5.708
90293SOL     OW72652   1.052  10.378   8.127
90293SOL    HW172653   1.087  10.455   8.081
90293SOL    HW272654   1.126  10.343   8.176
90294SOL     OW72655  12.043   8.991   8.650
90294SOL    HW172656  11.956   8.989   8.690
90294SOL    HW272657  12.036   9.053   8.578
90295SOL     OW72658   7.491   8.485   9.770
90295SOL    HW172659   7.586   8.475   9.766
90295SOL    HW272660   7.458   8.418   9.710
90296SOL     OW72661   3.000   2.989   8.749
90296SOL    HW172662   3.043   2.971   8.665
90296SOL    HW272663   3.051   3.060   8.788
90297SOL     OW72664  12.128   6.483  10.238
90297SOL    HW172665  12.119   6.486  10.143
90297SOL    HW272666  12.221   6.468  10.253
90298SOL     OW72667   4.508   7.201  10.933
90298SOL    HW172668   4.452   7.209  11.010
90298SOL    HW272669   4.460   7.247  10.864
90299SOL     OW72670   3.254   3.709   6.477
90299SOL    HW172671   3.267   3.649   6.551
90299SOL    HW272672   3.268   3.655   6.400
90300SOL     OW72673   5.031   1.660  10.290
90300SOL    HW172674   5.038   1.613  10.207
90300SOL    HW272675   5.117   1.652  10.330
90301SOL     OW72676  14.321   4.362   1.732
90301SOL    HW172677  14.391   4.302   1.705
90301SOL    HW272678  14.262   4.366   1.656
90302SOL     OW72679  10.188   3.995  14.090
90302SOL    HW172680  10.144   3.964  14.170
90302SOL    HW272681  10.196   3.916  14.036
90303SOL     OW72682   8.036  10.330   6.839
90303SOL    HW172683   8.086  10.346   6.919
90303SOL    HW272684   8.062  10.243   6.810
90304SOL     OW72685  10.508   2.889   8.828
90304SOL    HW172686  10.484   2.833   8.755
90304SOL    HW272687  10.475   2.976   8.804
90305SOL     OW72688  11.282   1.040  13.383
90305SOL    HW172689  11.321   1.128  13.376
90305SOL    HW272690  11.190   1.053  13.364
90306SOL     OW72691   8.050   0.079  11.830
90306SOL    HW172692   8.048   0.004  11.771
90306SOL    HW272693   8.008   0.048  11.910
90307SOL     OW72694   3.438  11.134   8.463
90307SOL    HW172695   3.532  11.155   8.462
90307SOL    HW272696   3.415  11.119   8.372
90308SOL     OW72697   5.434   3.153  13.643
90308SOL    HW172698   5.465   3.243  13.638
90308SOL    HW272699   5.500   3.102  13.595
90309SOL     OW72700   9.917   7.795   8.040
90309SOL    HW172701   9.964   7.820   7.960
90309SOL    HW272702   9.919   7.700   8.040
90310SOL     OW72703   1.377   2.079  11.316
90310SOL    HW172704   1.340   2.144  11.376
90310SOL    HW272705   1.424   2.131  11.251
90311SOL     OW72706   4.464   4.174  13.617
90311SOL    HW172707   4.467   4.154  13.523
90311SOL    HW272708   4.521   4.251  13.626
90312SOL     OW72709   8.375   9.410   8.008
90312SOL    HW172710   8.407   9.338   7.955
90312SOL    HW272711   8.449   9.435   8.063
90313SOL     OW72712   4.712   7.271  12.291
90313SOL    HW172713   4.672   7.211  12.354
90313SOL    HW272714   4.801   7.283  12.323
90314SOL     OW72715  10.130   0.358   8.553
90314SOL    HW172716  10.131   0.264   8.569
90314SOL    HW272717  10.096   0.396   8.634
90315SOL     OW72718   4.573  12.047   6.423
90315SOL    HW172719   4.497  12.034   6.367
90315SOL    HW272720   4.648  12.039   6.364
90316SOL     OW72721   1.556  11.430   9.638
90316SOL    HW172722   1.588  11.514   9.672
90316SOL    HW272723   1.584  11.430   9.546
90317SOL     OW72724   0.308  11.746  12.575
90317SOL    HW172725   0.303  11.781  12.486
90317SOL    HW272726   0.314  11.651  12.563
90318SOL     OW72727  14.450   5.277   0.365
90318SOL    HW172728  14.483   5.194   0.331
90318SOL    HW272729  14.406   5.317   0.290
90319SOL     OW72730   9.095   0.478   0.132
90319SOL    HW172731   9.185   0.483   0.100
90319SOL    HW272732   9.084   0.387   0.159
90320SOL     OW72733   5.915   0.452   4.815
90320SOL    HW172734   5.952   0.369   4.784
90320SOL    HW272735   5.988   0.513   4.813
90321SOL     OW72736   5.936   4.151  11.149
90321SOL    HW172737   5.908   4.106  11.228
90321SOL    HW272738   5.887   4.109  11.078
90322SOL     OW72739   4.645   6.854  12.511
90322SOL    HW172740   4.568   6.799  12.499
90322SOL    HW272741   4.647   6.872  12.605
90323SOL     OW72742   6.575   0.536   3.779
90323SOL    HW172743   6.634   0.565   3.849
90323SOL    HW272744   6.605   0.448   3.757
90324SOL     OW72745   2.437  14.498  10.546
90324SOL    HW172746   2.356  14.548  10.559
90324SOL    HW272747   2.414  14.431  10.481
90325SOL     OW72748  11.166   2.956   2.038
90325SOL    HW172749  11.138   2.873   1.999
90325SOL    HW272750  11.098   3.018   2.011
90326SOL     OW72751   5.375   7.725   0.683
90326SOL    HW172752   5.352   7.810   0.646
90326SOL    HW272753   5.343   7.729   0.773
90327SOL     OW72754   4.381   5.774   2.085
90327SOL    HW172755   4.353   5.689   2.119
90327SOL    HW272756   4.336   5.782   2.001
90328SOL     OW72757   2.387   4.758  10.479
90328SOL    HW172758   2.387   4.838  10.427
90328SOL    HW272759   2.317   4.705  10.440
90329SOL     OW72760   3.870   2.302   5.320
90329SOL    HW172761   3.906   2.373   5.266
90329SOL    HW272762   3.781   2.330   5.340
90330SOL     OW72763   1.573  12.592   3.739
90330SOL    HW172764   1.633  12.663   3.714
90330SOL    HW272765   1.487  12.623   3.712
90331SOL     OW72766   4.473   7.567   2.307
90331SOL    HW172767   4.526   7.646   2.322
90331SOL    HW272768   4.535   7.503   2.272
90332SOL     OW72769   0.820   3.312  11.233
90332SOL    HW172770   0.907   3.312  11.192
90332SOL    HW272771   0.836   3.344  11.322
90333SOL     OW72772   9.541   0.816  10.681
90333SOL    HW172773   9.505   0.730  10.662
90333SOL    HW272774   9.597   0.803  10.758
90334SOL     OW72775   1.046  13.252   1.732
90334SOL    HW172776   0.957  13.284   1.721
90334SOL    HW272777   1.070  13.218   1.645
90335SOL     OW72778   0.177   4.341   2.899
90335SOL    HW172779   0.202   4.313   2.987
90335SOL    HW272780   0.089   4.305   2.886
90336SOL     OW72781   7.948   1.868   8.576
90336SOL    HW172782   7.868   1.861   8.629
90336SOL    HW272783   7.989   1.948   8.606
90337SOL     OW72784   6.377   0.146  10.576
90337SOL    HW172785   6.285   0.161  10.600
90337SOL    HW272786   6.373   0.084  10.504
90338SOL     OW72787   5.991   4.314   7.086
90338SOL    HW172788   5.986   4.409   7.078
90338SOL    HW272789   6.081   4.292   7.064
90339SOL     OW72790   7.760   3.108  13.605
90339SOL    HW172791   7.733   3.191  13.566
90339SOL    HW272792   7.853   3.101  13.584
90340SOL     OW72793   0.898   0.878   1.936
90340SOL    HW172794   0.833   0.930   1.890
90340SOL    HW272795   0.897   0.793   1.892
90341SOL     OW72796   3.970  13.147   5.177
90341SOL    HW172797   3.927  13.230   5.158
90341SOL    HW272798   4.054  13.171   5.214
90342SOL     OW72799   4.698   3.556   5.286
90342SOL    HW172800   4.775   3.614   5.289
90342SOL    HW272801   4.700   3.510   5.370
90343SOL     OW72802   4.802   3.048  14.228
90343SOL    HW172803   4.760   3.050  14.142
90343SOL    HW272804   4.741   3.000  14.284
90344SOL     OW72805   2.478  11.402  12.010
90344SOL    HW172806   2.488  11.343  12.085
90344SOL    HW272807   2.432  11.478  12.045
90345SOL     OW72808   8.637   8.976  13.659
90345SOL    HW172809   8.644   9.028  13.579
90345SOL    HW272810   8.713   8.918  13.657
90346SOL     OW72811   6.153   6.975  11.557
90346SOL    HW172812   6.212   7.008  11.625
90346SOL    HW272813   6.065   6.990  11.592
90347SOL     OW72814  12.003   9.914  14.281
90347SOL    HW172815  12.018   9.908  14.375
90347SOL    HW272816  11.929   9.857  14.264
90348SOL     OW72817   0.444   4.213   7.836
90348SOL    HW172818   0.532   4.213   7.875
90348SOL    HW272819   0.439   4.295   7.788
90349SOL     OW72820   8.377  11.136  13.482
90349SOL    HW172821   8.317  11.182  13.424
90349SOL    HW272822   8.452  11.114  13.426
90350SOL     OW72823  12.149   2.412   0.891
90350SOL    HW172824  12.134   2.326   0.850
90350SOL    HW272825  12.244   2.419   0.897
90351SOL     OW72826   4.039  14.364  10.061
90351SOL    HW172827   4.050  14.402  10.149
90351SOL    HW272828   4.104  14.408  10.008
90352SOL     OW72829   6.057   9.885   2.776
90352SOL    HW172830   6.122   9.945   2.811
90352SOL    HW272831   6.050   9.908   2.683
90353SOL     OW72832   2.362   7.565   2.630
90353SOL    HW172833   2.448   7.601   2.608
90353SOL    HW272834   2.360   7.479   2.587
90354SOL     OW72835  13.107  10.064   6.439
90354SOL    HW172836  13.016  10.066   6.468
90354SOL    HW272837  13.157  10.045   6.518
90355SOL     OW72838  10.096   3.232  12.215
90355SOL    HW172839  10.164   3.198  12.273
90355SOL    HW272840  10.103   3.178  12.136
90356SOL     OW72841  13.365   9.841   1.400
90356SOL    HW172842  13.333   9.761   1.441
90356SOL    HW272843  13.439   9.813   1.347
90357SOL     OW72844   1.986   5.019   5.380
90357SOL    HW172845   2.079   5.041   5.384
90357SOL    HW272846   1.947   5.062   5.457
90358SOL     OW72847   6.052   0.041   9.289
90358SOL    HW172848   6.102   0.112   9.329
90358SOL    HW272849   6.026  14.864   9.362
90359SOL     OW72850   0.752   1.525   7.488
90359SOL    HW172851   0.736   1.619   7.481
90359SOL    HW272852   0.664   1.486   7.489
90360SOL     OW72853  10.654  14.064   4.735
90360SOL    HW172854  10.735  14.090   4.778
90360SOL    HW272855  10.637  14.133   4.671
90361SOL     OW72856  14.263   2.623   2.027
90361SOL    HW172857  14.319   2.552   1.994
90361SOL    HW272858  14.266   2.690   1.959
90362SOL     OW72859   4.197   7.268  14.660
90362SOL    HW172860   4.123   7.219  14.622
90362SOL    HW272861   4.235   7.314  14.585
90363SOL     OW72862  13.952  14.308  11.301
90363SOL    HW172863  13.904  14.228  11.322
90363SOL    HW272864  13.962  14.353  11.385
90364SOL     OW72865   7.806   6.197   0.570
90364SOL    HW172866   7.878   6.207   0.508
90364SOL    HW272867   7.759   6.120   0.540
90365SOL     OW72868   0.496   9.004   8.162
90365SOL    HW172869   0.402   9.007   8.181
90365SOL    HW272870   0.504   8.939   8.092
90366SOL     OW72871  12.535   3.103   5.849
90366SOL    HW172872  12.455   3.139   5.886
90366SOL    HW272873  12.520   3.102   5.755
90367SOL     OW72874   0.429   3.661   3.084
90367SOL    HW172875   0.517   3.646   3.048
90367SOL    HW272876   0.425   3.755   3.099
90368SOL     OW72877  11.016  11.671  14.469
90368SOL    HW172878  11.086  11.676  14.535
90368SOL    HW272879  11.002  11.578  14.455
90369SOL     OW72880   4.802  13.640   0.154
90369SOL    HW172881   4.873  13.627   0.216
90369SOL    HW272882   4.775  13.731   0.165
90370SOL     OW72883   1.421   1.140  13.517
90370SOL    HW172884   1.471   1.105  13.590
90370SOL    HW272885   1.390   1.225  13.548
90371SOL     OW72886   6.047   9.314   4.691
90371SOL    HW172887   5.954   9.300   4.674
90371SOL    HW272888   6.063   9.268   4.773
90372SOL     OW72889   0.287  13.353  14.285
90372SOL    HW172890   0.325  13.415  14.223
90372SOL    HW272891   0.343  13.275  14.280
90373SOL     OW72892   5.834  11.314   2.038
90373SOL    HW172893   5.796  11.380   2.096
90373SOL    HW272894   5.769  11.304   1.968
90374SOL     OW72895   5.147   0.355   1.465
90374SOL    HW172896   5.208   0.388   1.398
90374SOL    HW272897   5.201   0.298   1.520
90375SOL     OW72898   7.460  10.062   8.395
90375SOL    HW172899   7.379  10.102   8.427
90375SOL    HW272900   7.490  10.119   8.325
90376SOL     OW72901   2.564   2.273   1.806
90376SOL    HW172902   2.601   2.215   1.739
90376SOL    HW272903   2.640   2.313   1.848
90377SOL     OW72904   0.243   5.198   8.369
90377SOL    HW172905   0.210   5.246   8.445
90377SOL    HW272906   0.231   5.106   8.392
90378SOL     OW72907  10.846  12.902   5.424
90378SOL    HW172908  10.805  12.882   5.340
90378SOL    HW272909  10.897  12.824   5.445
90379SOL     OW72910   3.975  13.336  10.430
90379SOL    HW172911   4.070  13.330  10.435
90379SOL    HW272912   3.945  13.245  10.437
90380SOL     OW72913   8.287   3.954   8.924
90380SOL    HW172914   8.347   3.922   8.858
90380SOL    HW272915   8.200   3.940   8.886
90381SOL     OW72916  11.718   3.421   3.858
90381SOL    HW172917  11.675   3.488   3.911
90381SOL    HW272918  11.803   3.408   3.900
90382SOL     OW72919  14.360   9.654   7.216
90382SOL    HW172920  14.427   9.704   7.263
90382SOL    HW272921  14.328   9.714   7.148
90383SOL     OW72922   4.800   9.280  13.784
90383SOL    HW172923   4.879   9.251  13.829
90383SOL    HW272924   4.734   9.286  13.853
90384SOL     OW72925  10.519   6.449   6.606
90384SOL    HW172926  10.453   6.476   6.670
90384SOL    HW272927  10.553   6.532   6.570
90385SOL     OW72928   3.484  10.528   2.810
90385SOL    HW172929   3.580  10.533   2.814
90385SOL    HW272930   3.455  10.583   2.883
90386SOL     OW72931  14.557   5.070  11.296
90386SOL    HW172932  14.621   5.004  11.320
90386SOL    HW272933  14.474   5.036  11.330
90387SOL     OW72934  13.246   1.035   8.743
90387SOL    HW172935  13.212   1.058   8.656
90387SOL    HW272936  13.203   1.095   8.803
90388SOL     OW72937   6.793   9.572   7.085
90388SOL    HW172938   6.842   9.559   7.004
90388SOL    HW272939   6.778   9.484   7.118
90389SOL     OW72940   0.952   6.119   4.521
90389SOL    HW172941   0.867   6.101   4.561
90389SOL    HW272942   0.959   6.056   4.450
90390SOL     OW72943   6.609  11.285   9.601
90390SOL    HW172944   6.556  11.361   9.577
90390SOL    HW272945   6.552  11.210   9.585
90391SOL     OW72946   4.797   2.328  13.577
90391SOL    HW172947   4.795   2.384  13.655
90391SOL    HW272948   4.890   2.323  13.553
90392SOL     OW72949  13.964   7.852   5.809
90392SOL    HW172950  14.024   7.780   5.830
90392SOL    HW272951  13.878   7.821   5.838
90393SOL     OW72952   8.732   2.762   9.498
90393SOL    HW172953   8.697   2.676   9.472
90393SOL    HW272954   8.669   2.795   9.562
90394SOL     OW72955  12.055   7.883  12.794
90394SOL    HW172956  12.126   7.889  12.858
90394SOL    HW272957  12.031   7.974  12.777
90395SOL     OW72958   1.804  11.128   8.912
90395SOL    HW172959   1.740  11.136   8.841
90395SOL    HW272960   1.785  11.043   8.951
90396SOL     OW72961  10.239   2.852   4.144
90396SOL    HW172962  10.249   2.794   4.068
90396SOL    HW272963  10.274   2.936   4.114
90397SOL     OW72964  10.105   6.071  12.741
90397SOL    HW172965  10.138   6.056  12.829
90397SOL    HW272966  10.162   6.140  12.706
90398SOL     OW72967   7.027   5.488   3.522
90398SOL    HW172968   6.952   5.546   3.512
90398SOL    HW272969   7.096   5.544   3.557
90399SOL     OW72970   5.133  12.778   9.376
90399SOL    HW172971   5.113  12.715   9.445
90399SOL    HW272972   5.083  12.747   9.300
90400SOL     OW72973  12.749   6.127   5.056
90400SOL    HW172974  12.728   6.058   5.120
90400SOL    HW272975  12.740   6.208   5.105
90401SOL     OW72976   7.487   9.971  10.543
90401SOL    HW172977   7.482  10.047  10.485
90401SOL    HW272978   7.462  10.004  10.629
90402SOL     OW72979  11.757  11.656   7.846
90402SOL    HW172980  11.784  11.583   7.900
90402SOL    HW272981  11.733  11.616   7.762
90403SOL     OW72982   8.440   8.834   8.914
90403SOL    HW172983   8.397   8.870   8.837
90403SOL    HW272984   8.534   8.842   8.895
90404SOL     OW72985   9.552   7.820  12.032
90404SOL    HW172986   9.593   7.856  12.110
90404SOL    HW272987   9.593   7.865  11.958
90405SOL     OW72988   4.659   5.740  10.640
90405SOL    HW172989   4.724   5.772  10.702
90405SOL    HW272990   4.586   5.801  10.648
90406SOL     OW72991   7.714   4.139  13.145
90406SOL    HW172992   7.741   4.205  13.081
90406SOL    HW272993   7.714   4.184  13.229
90407SOL     OW72994  12.747   3.120   8.283
90407SOL    HW172995  12.842   3.113   8.270
90407SOL    HW272996  12.726   3.210   8.256
90408SOL     OW72997  10.910   1.175   6.606
90408SOL    HW172998  10.969   1.232   6.558
90408SOL    HW272999  10.830   1.226   6.617
90409SOL     OW73000   9.125   9.992  13.559
90409SOL    HW173001   9.089   9.927  13.619
90409SOL    HW273002   9.068  10.068  13.568
90410SOL     OW73003   1.493   2.324  10.619
90410SOL    HW173004   1.407   2.362  10.599
90410SOL    HW273005   1.554   2.397  10.606
90411SOL     OW73006  14.480   2.194   3.980
90411SOL    HW173007  14.476   2.188   4.076
90411SOL    HW273008  14.569   2.223   3.961
90412SOL     OW73009   8.935  10.632   1.168
90412SOL    HW173010   8.973  10.638   1.080
90412SOL    HW273011   9.001  10.587   1.220
90413SOL     OW73012  13.549  14.798   0.753
90413SOL    HW173013  13.539  14.829   0.663
90413SOL    HW273014  13.514  14.709   0.752
90414SOL     OW73015  10.615   1.607  12.634
90414SOL    HW173016  10.551   1.600  12.706
90414SOL    HW273017  10.575   1.557  12.562
90415SOL     OW73018   5.963   3.501   6.761
90415SOL    HW173019   5.970   3.416   6.804
90415SOL    HW273020   5.897   3.548   6.811
90416SOL     OW73021  11.736   3.855   5.112
90416SOL    HW173022  11.675   3.864   5.185
90416SOL    HW273023  11.787   3.936   5.113
90417SOL     OW73024  14.212   6.562   8.681
90417SOL    HW173025  14.239   6.514   8.759
90417SOL    HW273026  14.118   6.545   8.673
90418SOL     OW73027   9.246   8.489   2.586
90418SOL    HW173028   9.268   8.495   2.493
90418SOL    HW273029   9.195   8.409   2.593
90419SOL     OW73030   3.900  11.787   9.496
90419SOL    HW173031   3.876  11.695   9.501
90419SOL    HW273032   3.877  11.822   9.583
90420SOL     OW73033   6.515   3.755   0.069
90420SOL    HW173034   6.440   3.751   0.129
90420SOL    HW273035   6.523   3.667   0.034
90421SOL     OW73036  13.231  10.974   3.564
90421SOL    HW173037  13.181  11.055   3.570
90421SOL    HW273038  13.270  10.977   3.476
90422SOL     OW73039   9.106   9.428  10.004
90422SOL    HW173040   9.146   9.344   9.980
90422SOL    HW273041   9.022   9.404  10.045
90423SOL     OW73042  12.651   3.610  12.992
90423SOL    HW173043  12.600   3.563  13.057
90423SOL    HW273044  12.733   3.632  13.037
90424SOL     OW73045   0.250   8.378   3.799
90424SOL    HW173046   0.186   8.318   3.837
90424SOL    HW273047   0.206   8.463   3.800
90425SOL     OW73048   9.318   2.684   1.247
90425SOL    HW173049   9.256   2.618   1.216
90425SOL    HW273050   9.344   2.733   1.169
90426SOL     OW73051   3.783   7.810   9.144
90426SOL    HW173052   3.854   7.871   9.127
90426SOL    HW273053   3.825   7.724   9.147
90427SOL     OW73054   6.191   6.541   9.327
90427SOL    HW173055   6.206   6.529   9.421
90427SOL    HW273056   6.251   6.611   9.302
90428SOL     OW73057   6.264   1.599   9.734
90428SOL    HW173058   6.181   1.647   9.731
90428SOL    HW273059   6.241   1.509   9.714
90429SOL     OW73060  14.466  11.299   5.469
90429SOL    HW173061  14.502  11.210   5.472
90429SOL    HW273062  14.519  11.349   5.531
90430SOL     OW73063   9.577   2.616   8.197
90430SOL    HW173064   9.614   2.584   8.115
90430SOL    HW273065   9.648   2.610   8.260
90431SOL     OW73066  14.071   1.671   4.117
90431SOL    HW173067  14.064   1.591   4.065
90431SOL    HW273068  13.983   1.709   4.114
90432SOL     OW73069   5.630  12.987   3.486
90432SOL    HW173070   5.643  13.082   3.486
90432SOL    HW273071   5.539  12.975   3.510
90433SOL     OW73072  11.549   9.885   3.557
90433SOL    HW173073  11.493   9.808   3.565
90433SOL    HW273074  11.567   9.893   3.463
90434SOL     OW73075   3.546  11.675  14.172
90434SOL    HW173076   3.598  11.595  14.168
90434SOL    HW273077   3.484  11.661  14.244
90435SOL     OW73078   8.534   6.474   8.106
90435SOL    HW173079   8.610   6.518   8.145
90435SOL    HW273080   8.484   6.442   8.181
90436SOL     OW73081  12.748  13.422  11.132
90436SOL    HW173082  12.718  13.402  11.043
90436SOL    HW273083  12.668  13.430  11.184
90437SOL     OW73084   7.805   5.965   7.106
90437SOL    HW173085   7.845   5.916   7.178
90437SOL    HW273086   7.875   6.023   7.076
90438SOL     OW73087   2.579  10.999   8.476
90438SOL    HW173088   2.635  11.011   8.553
90438SOL    HW273089   2.635  10.954   8.413
90439SOL     OW73090   0.206   2.669   8.044
90439SOL    HW173091   0.272   2.645   7.979
90439SOL    HW273092   0.248   2.656   8.128
90440SOL     OW73093  10.022   3.679  10.324
90440SOL    HW173094  10.073   3.609  10.363
90440SOL    HW273095   9.934   3.668  10.360
90441SOL     OW73096   6.765  10.287   1.625
90441SOL    HW173097   6.793  10.336   1.547
90441SOL    HW273098   6.773  10.195   1.600
90442SOL     OW73099   6.762   9.564  10.621
90442SOL    HW173100   6.744   9.493  10.682
90442SOL    HW273101   6.697   9.553  10.552
90443SOL     OW73102   4.655   6.401   9.356
90443SOL    HW173103   4.715   6.436   9.290
90443SOL    HW273104   4.574   6.451   9.344
90444SOL     OW73105  14.467  13.362   2.283
90444SOL    HW173106  14.388  13.374   2.335
90444SOL    HW273107  14.461  13.272   2.251
90445SOL     OW73108  14.251   3.882  11.202
90445SOL    HW173109  14.299   3.822  11.259
90445SOL    HW273110  14.317   3.913  11.139
90446SOL     OW73111   3.062  10.360   4.216
90446SOL    HW173112   2.990  10.397   4.267
90446SOL    HW273113   3.124  10.431   4.205
90447SOL     OW73114  13.810   2.914   4.274
90447SOL    HW173115  13.834   3.007   4.278
90447SOL    HW273116  13.890   2.870   4.246
90448SOL     OW73117   8.752   6.023   6.431
90448SOL    HW173118   8.844   6.021   6.407
90448SOL    HW273119   8.745   5.965   6.506
90449SOL     OW73120   8.179   2.959  10.766
90449SOL    HW173121   8.249   2.967  10.831
90449SOL    HW273122   8.225   2.960  10.682
90450SOL     OW73123   6.423  12.562   8.944
90450SOL    HW173124   6.508  12.559   8.901
90450SOL    HW273125   6.374  12.490   8.906
90451SOL     OW73126  11.759   4.716  13.125
90451SOL    HW173127  11.742   4.798  13.079
90451SOL    HW273128  11.852   4.720  13.149
90452SOL     OW73129   8.320   7.934  14.817
90452SOL    HW173130   8.367   7.874  14.875
90452SOL    HW273131   8.386   7.997  14.790
90453SOL     OW73132   8.883  13.005   2.887
90453SOL    HW173133   8.887  12.916   2.850
90453SOL    HW273134   8.811  13.047   2.839
90454SOL     OW73135   0.248   6.996   7.566
90454SOL    HW173136   0.248   7.041   7.481
90454SOL    HW273137   0.200   6.915   7.550
90455SOL     OW73138  11.210   1.931  10.455
90455SOL    HW173139  11.264   1.898  10.528
90455SOL    HW273140  11.123   1.896  10.471
90456SOL     OW73141   5.044   5.160   8.052
90456SOL    HW173142   5.129   5.138   8.012
90456SOL    HW273143   5.067   5.189   8.140
90457SOL     OW73144   8.409   7.196   0.735
90457SOL    HW173145   8.460   7.183   0.815
90457SOL    HW273146   8.469   7.240   0.675
90458SOL     OW73147  14.005   7.500   3.793
90458SOL    HW173148  13.942   7.450   3.846
90458SOL    HW273149  14.050   7.556   3.857
90459SOL     OW73150  13.663   1.666  13.808
90459SOL    HW173151  13.716   1.627  13.738
90459SOL    HW273152  13.727   1.689  13.875
90460SOL     OW73153   0.748   7.427  12.652
90460SOL    HW173154   0.779   7.467  12.571
90460SOL    HW273155   0.680   7.486  12.684
90461SOL     OW73156  14.183  13.938   6.084
90461SOL    HW173157  14.258  13.995   6.067
90461SOL    HW273158  14.221  13.852   6.098
90462SOL     OW73159   7.209   5.121   7.435
90462SOL    HW173160   7.138   5.057   7.443
90462SOL    HW273161   7.206   5.148   7.343
90463SOL     OW73162   2.257  13.716   3.431
90463SOL    HW173163   2.212  13.687   3.351
90463SOL    HW273164   2.342  13.672   3.427
90464SOL     OW73165  10.319   2.479   9.357
90464SOL    HW173166  10.255   2.413   9.384
90464SOL    HW273167  10.373   2.493   9.434
90465SOL     OW73168   9.355   7.417   0.170
90465SOL    HW173169   9.366   7.497   0.119
90465SOL    HW273170   9.405   7.351   0.123
90466SOL     OW73171  10.515   4.026   9.481
90466SOL    HW173172  10.464   3.954   9.443
90466SOL    HW273173  10.466   4.052   9.558
90467SOL     OW73174  14.686   4.614   6.546
90467SOL    HW173175  14.662   4.631   6.455
90467SOL    HW273176  14.775   4.579   6.541
90468SOL     OW73177   2.515  13.122   9.796
90468SOL    HW173178   2.477  13.113   9.709
90468SOL    HW273179   2.517  13.216   9.812
90469SOL     OW73180   3.665  12.884   7.462
90469SOL    HW173181   3.721  12.869   7.539
90469SOL    HW273182   3.725  12.921   7.396
90470SOL     OW73183   0.844   8.298   1.532
90470SOL    HW173184   0.791   8.268   1.458
90470SOL    HW273185   0.836   8.230   1.598
90471SOL     OW73186  12.413   6.404   2.992
90471SOL    HW173187  12.428   6.395   2.898
90471SOL    HW273188  12.483   6.353   3.032
90472SOL     OW73189   2.923  14.533   8.020
90472SOL    HW173190   2.951  14.477   7.948
90472SOL    HW273191   2.894  14.614   7.978
90473SOL     OW73192   6.735   9.131  11.465
90473SOL    HW173193   6.800   9.095  11.405
90473SOL    HW273194   6.683   9.191  11.412
90474SOL     OW73195  11.765   5.857   1.292
90474SOL    HW173196  11.700   5.833   1.358
90474SOL    HW273197  11.785   5.775   1.246
90475SOL     OW73198   2.269  11.168   6.023
90475SOL    HW173199   2.342  11.107   6.025
90475SOL    HW273200   2.193  11.115   6.046
90476SOL     OW73201   0.227   3.172   8.969
90476SOL    HW173202   0.167   3.127   9.028
90476SOL    HW273203   0.305   3.188   9.023
90477SOL     OW73204   2.429  12.325   8.560
90477SOL    HW173205   2.473  12.290   8.637
90477SOL    HW273206   2.336  12.329   8.584
90478SOL     OW73207  13.113   8.841   1.132
90478SOL    HW173208  13.055   8.886   1.070
90478SOL    HW273209  13.055   8.779   1.176
90479SOL     OW73210   6.068   3.591   9.996
90479SOL    HW173211   6.158   3.564  10.010
90479SOL    HW273212   6.059   3.599   9.901
90480SOL     OW73213   5.597   8.345  11.433
90480SOL    HW173214   5.505   8.319  11.444
90480SOL    HW273215   5.602   8.380  11.345
90481SOL     OW73216  14.021  10.251   2.752
90481SOL    HW173217  14.009  10.319   2.686
90481SOL    HW273218  14.090  10.195   2.717
90482SOL     OW73219  12.390   7.186   9.901
90482SOL    HW173220  12.355   7.274   9.884
90482SOL    HW273221  12.413   7.151   9.815
90483SOL     OW73222  10.451  11.029   7.768
90483SOL    HW173223  10.376  11.084   7.744
90483SOL    HW273224  10.418  10.970   7.835
90484SOL     OW73225   2.952   0.803  10.539
90484SOL    HW173226   2.942   0.766  10.451
90484SOL    HW273227   3.035   0.766  10.570
90485SOL     OW73228   5.039   0.308  13.125
90485SOL    HW173229   5.063   0.264  13.044
90485SOL    HW273230   5.122   0.320  13.171
90486SOL     OW73231  10.830   8.193   0.031
90486SOL    HW173232  10.735   8.205   0.031
90486SOL    HW273233  10.856   8.210   0.121
90487SOL     OW73234   7.412   0.952   1.461
90487SOL    HW173235   7.404   1.036   1.506
90487SOL    HW273236   7.477   0.967   1.392
90488SOL     OW73237   4.869  14.336  13.661
90488SOL    HW173238   4.803  14.402  13.682
90488SOL    HW273239   4.953  14.378  13.678
90489SOL     OW73240   6.741   1.465  14.381
90489SOL    HW173241   6.649   1.492  14.375
90489SOL    HW273242   6.747   1.391  14.320
90490SOL     OW73243  10.082   9.165   2.862
90490SOL    HW173244   9.991   9.185   2.839
90490SOL    HW273245  10.121   9.251   2.882
90491SOL     OW73246   7.580   9.370   7.966
90491SOL    HW173247   7.606   9.420   7.889
90491SOL    HW273248   7.630   9.289   7.960
90492SOL     OW73249   9.038   7.518   0.052
90492SOL    HW173250   9.016   7.594  14.876
90492SOL    HW273251   9.049   7.554   0.140
90493SOL     OW73252   1.708   9.118   2.300
90493SOL    HW173253   1.644   9.156   2.361
90493SOL    HW273254   1.755   9.052   2.353
90494SOL     OW73255   3.662  10.875  10.515
90494SOL    HW173256   3.629  10.960  10.545
90494SOL    HW273257   3.751  10.892  10.486
90495SOL     OW73258   7.192  13.393   8.862
90495SOL    HW173259   7.264  13.427   8.915
90495SOL    HW273260   7.124  13.460   8.868
90496SOL     OW73261   8.741   0.650   3.654
90496SOL    HW173262   8.692   0.724   3.691
90496SOL    HW273263   8.833   0.673   3.665
90497SOL     OW73264   5.001   4.220  11.088
90497SOL    HW173265   5.061   4.159  11.129
90497SOL    HW273266   4.946   4.252  11.159
90498SOL     OW73267  10.688   3.463   2.263
90498SOL    HW173268  10.624   3.457   2.334
90498SOL    HW273269  10.759   3.517   2.300
90499SOL     OW73270   8.454   6.535  11.323
90499SOL    HW173271   8.434   6.449  11.285
90499SOL    HW273272   8.519   6.516  11.391
90500SOL     OW73273  14.408   9.295  10.830
90500SOL    HW173274  14.459   9.219  10.802
90500SOL    HW273275  14.346   9.259  10.894
90501SOL     OW73276   2.478   5.603   9.546
90501SOL    HW173277   2.505   5.694   9.530
90501SOL    HW273278   2.525   5.552   9.480
90502SOL     OW73279   5.134  11.064  12.348
90502SOL    HW173280   5.117  10.980  12.306
90502SOL    HW273281   5.069  11.123  12.310
90503SOL     OW73282   7.772   9.239   6.574
90503SOL    HW173283   7.852   9.276   6.538
90503SOL    HW273284   7.767   9.151   6.535
90504SOL     OW73285  10.474   8.318  10.518
90504SOL    HW173286  10.423   8.310  10.438
90504SOL    HW273287  10.481   8.412  10.533
90505SOL     OW73288   8.065  14.322   5.673
90505SOL    HW173289   8.097  14.409   5.650
90505SOL    HW273290   8.141  14.279   5.712
90506SOL     OW73291   0.322   4.546   0.991
90506SOL    HW173292   0.330   4.542   1.086
90506SOL    HW273293   0.288   4.633   0.972
90507SOL     OW73294   5.014  10.541   3.443
90507SOL    HW173295   5.054  10.465   3.483
90507SOL    HW273296   5.046  10.616   3.493
90508SOL     OW73297   7.134   8.283   4.528
90508SOL    HW173298   7.182   8.224   4.586
90508SOL    HW273299   7.202   8.336   4.488
90509SOL     OW73300   1.887   0.878   8.332
90509SOL    HW173301   1.797   0.872   8.300
90509SOL    HW273302   1.889   0.821   8.409
90510SOL     OW73303   8.019  12.461   6.415
90510SOL    HW173304   8.043  12.398   6.483
90510SOL    HW273305   7.968  12.410   6.352
90511SOL     OW73306  13.702   7.814  11.187
90511SOL    HW173307  13.638   7.754  11.224
90511SOL    HW273308  13.660   7.851  11.110
90512SOL     OW73309   0.276   8.985   0.502
90512SOL    HW173310   0.289   8.929   0.425
90512SOL    HW273311   0.192   9.029   0.485
90513SOL     OW73312   9.782  13.762   7.174
90513SOL    HW173313   9.795  13.668   7.180
90513SOL    HW273314   9.870  13.799   7.182
90514SOL     OW73315   4.098   0.028   0.256
90514SOL    HW173316   4.160   0.029   0.329
90514SOL    HW273317   4.093  14.814   0.230
90515SOL     OW73318  11.156   5.033   3.365
90515SOL    HW173319  11.205   5.108   3.398
90515SOL    HW273320  11.074   5.070   3.332
90516SOL     OW73321  12.392  12.880  10.028
90516SOL    HW173322  12.456  12.809  10.035
90516SOL    HW273323  12.310  12.837  10.006
90517SOL     OW73324   7.071   4.467   6.801
90517SOL    HW173325   7.021   4.543   6.830
90517SOL    HW273326   7.052   4.399   6.865
90518SOL     OW73327  12.712   7.338   1.474
90518SOL    HW173328  12.746   7.312   1.560
90518SOL    HW273329  12.737   7.430   1.466
90519SOL     OW73330   2.514  10.118  11.019
90519SOL    HW173331   2.518  10.174  11.096
90519SOL    HW273332   2.604  10.116  10.987
90520SOL     OW73333   2.654   8.724  12.312
90520SOL    HW173334   2.721   8.748  12.249
90520SOL    HW273335   2.606   8.653  12.270
90521SOL     OW73336   9.184  11.426  10.503
90521SOL    HW173337   9.235  11.356  10.542
90521SOL    HW273338   9.102  11.385  10.477
90522SOL     OW73339   8.186   0.159   5.619
90522SOL    HW173340   8.282   0.151   5.613
90522SOL    HW273341   8.162   0.100   5.691
90523SOL     OW73342   0.841  14.531  14.326
90523SOL    HW173343   0.924  14.568  14.356
90523SOL    HW273344   0.818  14.467  14.393
90524SOL     OW73345  12.998   1.606   4.679
90524SOL    HW173346  12.907   1.583   4.659
90524SOL    HW273347  12.992   1.690   4.725
90525SOL     OW73348   3.266   6.737   6.081
90525SOL    HW173349   3.321   6.793   6.026
90525SOL    HW273350   3.209   6.691   6.020
90526SOL     OW73351   1.172  14.075   4.707
90526SOL    HW173352   1.257  14.033   4.723
90526SOL    HW273353   1.112  14.002   4.691
90527SOL     OW73354  13.394  13.480   3.155
90527SOL    HW173355  13.344  13.541   3.100
90527SOL    HW273356  13.451  13.434   3.094
90528SOL     OW73357   0.163   7.842  12.119
90528SOL    HW173358   0.188   7.869  12.031
90528SOL    HW273359   0.220   7.768  12.139
90529SOL     OW73360   2.843   5.115   4.912
90529SOL    HW173361   2.792   5.159   4.844
90529SOL    HW273362   2.884   5.041   4.867
90530SOL     OW73363  13.166  14.021   0.284
90530SOL    HW173364  13.083  13.986   0.315
90530SOL    HW273365  13.165  14.004   0.189
90531SOL     OW73366  13.709  10.057  10.005
90531SOL    HW173367  13.715   9.984  10.066
90531SOL    HW273368  13.749  10.131  10.053
90532SOL     OW73369  13.292   1.418   7.136
90532SOL    HW173370  13.373   1.434   7.088
90532SOL    HW273371  13.222   1.440   7.074
90533SOL     OW73372   6.686  10.637   1.182
90533SOL    HW173373   6.591  10.635   1.166
90533SOL    HW273374   6.694  10.659   1.275
90534SOL     OW73375   2.117   3.602   0.894
90534SOL    HW173376   2.138   3.688   0.931
90534SOL    HW273377   2.183   3.588   0.826
90535SOL     OW73378   1.831   8.389   8.952
90535SOL    HW173379   1.748   8.408   8.908
90535SOL    HW273380   1.844   8.295   8.939
90536SOL     OW73381   3.028  12.442  10.396
90536SOL    HW173382   3.017  12.408  10.307
90536SOL    HW273383   2.992  12.530  10.393
90537SOL     OW73384  10.095   2.358   6.712
90537SOL    HW173385  10.040   2.280   6.722
90537SOL    HW273386  10.180   2.323   6.684
90538SOL     OW73387   8.588  12.617   2.907
90538SOL    HW173388   8.496  12.610   2.931
90538SOL    HW273389   8.627  12.673   2.974
90539SOL     OW73390  13.268  14.620  12.788
90539SOL    HW173391  13.307  14.618  12.701
90539SOL    HW273392  13.342  14.610  12.848
90540SOL     OW73393   0.805   1.442   6.861
90540SOL    HW173394   0.871   1.458   6.929
90540SOL    HW273395   0.815   1.350   6.839
90541SOL     OW73396  11.410  12.677   2.648
90541SOL    HW173397  11.318  12.688   2.625
90541SOL    HW273398  11.424  12.582   2.648
90542SOL     OW73399   2.810  10.566   1.332
90542SOL    HW173400   2.779  10.656   1.320
90542SOL    HW273401   2.811  10.554   1.427
90543SOL     OW73402   0.611  12.437  11.501
90543SOL    HW173403   0.690  12.416  11.452
90543SOL    HW273404   0.638  12.435  11.593
90544SOL     OW73405   5.151  10.962   4.165
90544SOL    HW173406   5.210  11.038   4.163
90544SOL    HW273407   5.199  10.894   4.119
90545SOL     OW73408  11.538   0.152  14.839
90545SOL    HW173409  11.445   0.173  14.851
90545SOL    HW273410  11.579   0.184   0.041
90546SOL     OW73411   9.221   4.348   4.086
90546SOL    HW173412   9.146   4.305   4.045
90546SOL    HW273413   9.260   4.281   4.142
90547SOL     OW73414  10.007  13.836   5.374
90547SOL    HW173415  10.052  13.838   5.289
90547SOL    HW273416   9.936  13.899   5.364
90548SOL     OW73417   7.272   3.880  11.404
90548SOL    HW173418   7.368   3.883  11.405
90548SOL    HW273419   7.247   3.900  11.494
90549SOL     OW73420   7.049  14.418   8.977
90549SOL    HW173421   7.001  14.341   9.007
90549SOL    HW273422   7.072  14.465   9.058
90550SOL     OW73423  14.746  11.247   5.167
90550SOL    HW173424  14.704  11.323   5.126
90550SOL    HW273425  14.828  11.235   5.119
90551SOL     OW73426  12.892  13.116  11.648
90551SOL    HW173427  12.880  13.045  11.711
90551SOL    HW273428  12.987  13.124  11.639
90552SOL     OW73429  11.009   5.295   0.771
90552SOL    HW173430  10.959   5.302   0.852
90552SOL    HW273431  10.947   5.322   0.703
90553SOL     OW73432  12.610  14.651   5.272
90553SOL    HW173433  12.581  14.687   5.188
90553SOL    HW273434  12.705  14.664   5.272
90554SOL     OW73435   3.687  14.204  14.414
90554SOL    HW173436   3.669  14.247  14.498
90554SOL    HW273437   3.704  14.113  14.436
90555SOL     OW73438   4.804   6.712  14.653
90555SOL    HW173439   4.727   6.654  14.652
90555SOL    HW273440   4.777   6.788  14.603
90556SOL     OW73441   8.965   5.499  13.662
90556SOL    HW173442   8.971   5.526  13.754
90556SOL    HW273443   9.033   5.433  13.652
90557SOL     OW73444   9.438  11.769   7.973
90557SOL    HW173445   9.470  11.700   8.032
90557SOL    HW273446   9.448  11.732   7.885
90558SOL     OW73447   3.183  10.552   3.066
90558SOL    HW173448   3.113  10.525   3.126
90558SOL    HW273449   3.251  10.487   3.077
90559SOL     OW73450   9.314   9.452  11.975
90559SOL    HW173451   9.299   9.440  11.881
90559SOL    HW273452   9.227   9.461  12.013
90560SOL     OW73453   0.034  10.657   7.731
90560SOL    HW173454   0.097  10.662   7.803
90560SOL    HW273455   0.037  10.566   7.703
90561SOL     OW73456   8.499   2.161   0.114
90561SOL    HW173457   8.490   2.137   0.206
90561SOL    HW273458   8.537   2.083   0.072
90562SOL     OW73459   0.489   8.058  11.079
90562SOL    HW173460   0.513   8.148  11.055
90562SOL    HW273461   0.555   8.032  11.143
90563SOL     OW73462  14.417   9.341   6.093
90563SOL    HW173463  14.424   9.400   6.019
90563SOL    HW273464  14.500   9.352   6.141
90564SOL     OW73465   1.802   1.345   7.548
90564SOL    HW173466   1.824   1.407   7.617
90564SOL    HW273467   1.857   1.371   7.474
90565SOL     OW73468   9.056   5.938   4.643
90565SOL    HW173469   8.973   5.986   4.653
90565SOL    HW273470   9.044   5.859   4.696
90566SOL     OW73471   6.494  14.725   9.768
90566SOL    HW173472   6.512  14.721   9.674
90566SOL    HW273473   6.436  14.651   9.785
90567SOL     OW73474   8.543   0.571   4.779
90567SOL    HW173475   8.507   0.658   4.795
90567SOL    HW273476   8.467   0.514   4.772
90568SOL     OW73477  12.572   4.311   7.152
90568SOL    HW173478  12.626   4.385   7.124
90568SOL    HW273479  12.484   4.348   7.161
90569SOL     OW73480   2.295   7.069   3.250
90569SOL    HW173481   2.285   7.114   3.333
90569SOL    HW273482   2.356   6.997   3.268
90570SOL     OW73483  11.510   5.779  11.363
90570SOL    HW173484  11.427   5.795  11.408
90570SOL    HW273485  11.563   5.731  11.426
90571SOL     OW73486   6.965  10.153   8.209
90571SOL    HW173487   6.944  10.231   8.157
90571SOL    HW273488   6.895  10.090   8.187
90572SOL     OW73489   6.097   7.902   6.016
90572SOL    HW173490   6.176   7.875   5.968
90572SOL    HW273491   6.049   7.956   5.954
90573SOL     OW73492   4.168   8.994   5.338
90573SOL    HW173493   4.137   9.008   5.249
90573SOL    HW273494   4.228   9.067   5.355
90574SOL     OW73495   9.510   1.704   2.816
90574SOL    HW173496   9.551   1.721   2.901
90574SOL    HW273497   9.515   1.609   2.805
90575SOL     OW73498   0.404  11.904   6.690
90575SOL    HW173499   0.489  11.861   6.677
90575SOL    HW273500   0.402  11.973   6.624
90576SOL     OW73501   8.893   5.832  14.794
90576SOL    HW173502   8.869   5.885  14.870
90576SOL    HW273503   8.834   5.862  14.725
90577SOL     OW73504   1.471   3.830  10.247
90577SOL    HW173505   1.438   3.899  10.189
90577SOL    HW273506   1.488   3.756  10.189
90578SOL     OW73507   9.615   0.493   4.118
90578SOL    HW173508   9.595   0.464   4.207
90578SOL    HW273509   9.582   0.422   4.062
90579SOL     OW73510   0.968  13.406   9.733
90579SOL    HW173511   0.940  13.316   9.754
90579SOL    HW273512   0.914  13.430   9.658
90580SOL     OW73513   2.333   7.154   4.403
90580SOL    HW173514   2.416   7.111   4.425
90580SOL    HW273515   2.345   7.245   4.430
90581SOL     OW73516   8.663   6.940   9.345
90581SOL    HW173517   8.591   6.995   9.375
90581SOL    HW273518   8.689   6.890   9.423
90582SOL     OW73519  12.538   3.345   1.377
90582SOL    HW173520  12.527   3.375   1.287
90582SOL    HW273521  12.562   3.423   1.426
90583SOL     OW73522   4.789  12.562   7.593
90583SOL    HW173523   4.844  12.535   7.665
90583SOL    HW273524   4.838  12.538   7.514
90584SOL     OW73525   7.088   4.656  12.472
90584SOL    HW173526   7.131   4.716  12.411
90584SOL    HW273527   7.107   4.692  12.558
90585SOL     OW73528  12.318  11.548   5.925
90585SOL    HW173529  12.341  11.555   6.017
90585SOL    HW273530  12.354  11.464   5.897
90586SOL     OW73531  13.241  10.160  12.374
90586SOL    HW173532  13.307  10.198  12.316
90586SOL    HW273533  13.284  10.156  12.460
90587SOL     OW73534   5.315   8.559  12.564
90587SOL    HW173535   5.277   8.508  12.493
90587SOL    HW273536   5.257   8.635  12.573
90588SOL     OW73537  14.864   6.210  12.077
90588SOL    HW173538   0.041   6.175  12.147
90588SOL    HW273539  14.811   6.135  12.048
90589SOL     OW73540   0.302  13.284   2.844
90589SOL    HW173541   0.271  13.272   2.934
90589SOL    HW273542   0.326  13.196   2.815
90590SOL     OW73543   8.063  14.513   3.238
90590SOL    HW173544   8.017  14.441   3.280
90590SOL    HW273545   8.035  14.591   3.286
90591SOL     OW73546   8.313   7.230  10.702
90591SOL    HW173547   8.252   7.225  10.776
90591SOL    HW273548   8.257   7.227  10.625
90592SOL     OW73549   2.827   9.312   4.652
90592SOL    HW173550   2.844   9.262   4.732
90592SOL    HW273551   2.757   9.372   4.675
90593SOL     OW73552   1.570   1.078  13.730
90593SOL    HW173553   1.646   1.131  13.751
90593SOL    HW273554   1.578   1.001  13.786
90594SOL     OW73555  14.703  13.590  12.467
90594SOL    HW173556  14.796  13.580  12.445
90594SOL    HW273557  14.694  13.683  12.487
90595SOL     OW73558   8.281   1.229   6.494
90595SOL    HW173559   8.374   1.207   6.490
90595SOL    HW273560   8.261   1.266   6.408
90596SOL     OW73561   8.999  14.821  14.203
90596SOL    HW173562   8.995   0.027  14.158
90596SOL    HW273563   8.926  14.823  14.265
90597SOL     OW73564   0.091   3.317   7.837
90597SOL    HW173565   0.037   3.330   7.915
90597SOL    HW273566   0.148   3.394   7.835
90598SOL     OW73567   5.491   8.702  11.725
90598SOL    HW173568   5.540   8.621  11.712
90598SOL    HW273569   5.420   8.698  11.662
90599SOL     OW73570   4.811   2.577   5.646
90599SOL    HW173571   4.770   2.505   5.695
90599SOL    HW273572   4.902   2.576   5.675
90600SOL     OW73573  10.813  14.275   2.721
90600SOL    HW173574  10.889  14.326   2.691
90600SOL    HW273575  10.743  14.298   2.660
90601SOL     OW73576  11.922   9.442  13.189
90601SOL    HW173577  11.882   9.426  13.103
90601SOL    HW273578  11.869   9.513  13.227
90602SOL     OW73579   7.282   3.005   0.167
90602SOL    HW173580   7.248   3.001   0.256
90602SOL    HW273581   7.265   3.095   0.138
90603SOL     OW73582  13.864   7.122   4.988
90603SOL    HW173583  13.952   7.111   4.951
90603SOL    HW273584  13.806   7.114   4.912
90604SOL     OW73585   3.087   8.442  10.696
90604SOL    HW173586   2.994   8.461  10.696
90604SOL    HW273587   3.115   8.458  10.606
90605SOL     OW73588   9.710   6.306  10.996
90605SOL    HW173589   9.775   6.245  10.960
90605SOL    HW273590   9.738   6.321  11.086
90606SOL     OW73591   9.572  10.847   7.963
90606SOL    HW173592   9.649  10.903   7.973
90606SOL    HW273593   9.514  10.873   8.035
90607SOL     OW73594  12.908   4.759   4.353
90607SOL    HW173595  12.987   4.785   4.304
90607SOL    HW273596  12.917   4.664   4.364
90608SOL     OW73597  11.170  11.972   9.059
90608SOL    HW173598  11.228  11.927   8.998
90608SOL    HW273599  11.107  11.906   9.087
90609SOL     OW73600  14.433   8.350   1.186
90609SOL    HW173601  14.345   8.364   1.152
90609SOL    HW273602  14.478   8.298   1.119
90610SOL     OW73603   0.065   0.672   6.439
90610SOL    HW173604   0.028   0.588   6.413
90610SOL    HW273605  14.872   0.716   6.486
90611SOL     OW73606   2.592   4.305  13.970
90611SOL    HW173607   2.684   4.281  13.979
90611SOL    HW273608   2.593   4.388  13.924
90612SOL     OW73609   6.425  12.183   4.463
90612SOL    HW173610   6.354  12.245   4.445
90612SOL    HW273611   6.472  12.176   4.380
90613SOL     OW73612   7.609  12.673   0.120
90613SOL    HW173613   7.609  12.616   0.043
90613SOL    HW273614   7.525  12.654   0.163
90614SOL     OW73615   6.550   1.794  13.525
90614SOL    HW173616   6.596   1.804  13.608
90614SOL    HW273617   6.537   1.884  13.493
90615SOL     OW73618  12.225   0.107   5.152
90615SOL    HW173619  12.319   0.113   5.169
90615SOL    HW273620  12.214   0.023   5.109
90616SOL     OW73621  13.469   4.319   0.441
90616SOL    HW173622  13.390   4.363   0.472
90616SOL    HW273623  13.437   4.238   0.400
90617SOL     OW73624   8.528  10.410   3.678
90617SOL    HW173625   8.434  10.397   3.672
90617SOL    HW273626   8.563  10.371   3.598
90618SOL     OW73627   1.330   4.480  11.576
90618SOL    HW173628   1.250   4.490  11.627
90618SOL    HW273629   1.349   4.386  11.578
90619SOL     OW73630   2.080   5.214   2.380
90619SOL    HW173631   2.082   5.237   2.473
90619SOL    HW273632   2.129   5.132   2.374
90620SOL     OW73633   7.475   8.489   4.685
90620SOL    HW173634   7.406   8.553   4.667
90620SOL    HW273635   7.429   8.418   4.730
90621SOL     OW73636  13.702   8.966   9.025
90621SOL    HW173637  13.763   8.988   8.955
90621SOL    HW273638  13.630   9.028   9.014
90622SOL     OW73639   3.866   6.439   5.198
90622SOL    HW173640   3.850   6.359   5.247
90622SOL    HW273641   3.807   6.503   5.237
90623SOL     OW73642   8.618  11.845   2.639
90623SOL    HW173643   8.657  11.785   2.575
90623SOL    HW273644   8.556  11.790   2.688
90624SOL     OW73645   5.854   3.767   8.759
90624SOL    HW173646   5.788   3.795   8.823
90624SOL    HW273647   5.823   3.803   8.676
90625SOL     OW73648   0.013   2.230  14.668
90625SOL    HW173649  14.856   2.141  14.667
90625SOL    HW273650   0.095   2.223  14.619
90626SOL     OW73651  11.105   6.844   2.325
90626SOL    HW173652  11.191   6.878   2.300
90626SOL    HW273653  11.083   6.781   2.256
90627SOL     OW73654   3.515   9.223   9.325
90627SOL    HW173655   3.586   9.255   9.269
90627SOL    HW273656   3.552   9.147   9.371
90628SOL     OW73657   1.813  13.820  13.181
90628SOL    HW173658   1.770  13.891  13.228
90628SOL    HW273659   1.836  13.756  13.248
90629SOL     OW73660  10.378   2.118   2.284
90629SOL    HW173661  10.463   2.136   2.243
90629SOL    HW273662  10.397   2.109   2.377
90630SOL     OW73663   6.597   2.444  10.341
90630SOL    HW173664   6.521   2.477  10.390
90630SOL    HW273665   6.630   2.372  10.394
90631SOL     OW73666   0.369   6.377   3.542
90631SOL    HW173667   0.425   6.329   3.603
90631SOL    HW273668   0.345   6.457   3.589
90632SOL     OW73669   8.665   2.372   5.867
90632SOL    HW173670   8.584   2.334   5.901
90632SOL    HW273671   8.734   2.322   5.911
90633SOL     OW73672   3.354   7.624   9.462
90633SOL    HW173673   3.415   7.554   9.442
90633SOL    HW273674   3.391   7.668   9.539
90634SOL     OW73675  13.016   5.755  11.142
90634SOL    HW173676  13.020   5.720  11.231
90634SOL    HW273677  13.107   5.755  11.112
90635SOL     OW73678   2.241  13.057   5.290
90635SOL    HW173679   2.237  12.984   5.352
90635SOL    HW273680   2.155  13.097   5.295
90636SOL     OW73681   0.189  10.729  11.904
90636SOL    HW173682   0.194  10.808  11.959
90636SOL    HW273683   0.227  10.660  11.960
90637SOL     OW73684   0.065  10.350   7.730
90637SOL    HW173685  14.863  10.322   7.686
90637SOL    HW273686   0.047  10.336   7.823
90638SOL     OW73687   7.742  11.100   0.672
90638SOL    HW173688   7.706  11.108   0.583
90638SOL    HW273689   7.754  11.190   0.701
90639SOL     OW73690  14.021   5.849   2.533
90639SOL    HW173691  14.072   5.768   2.540
90639SOL    HW273692  13.935   5.821   2.502
90640SOL     OW73693   5.722  11.883  11.410
90640SOL    HW173694   5.773  11.964  11.402
90640SOL    HW273695   5.767  11.833  11.478
90641SOL     OW73696   5.907   0.669   1.785
90641SOL    HW173697   6.002   0.665   1.775
90641SOL    HW273698   5.894   0.676   1.880
90642SOL     OW73699  13.009   4.055   9.521
90642SOL    HW173700  12.980   4.140   9.553
90642SOL    HW273701  13.061   4.075   9.443
90643SOL     OW73702   6.151  10.968  13.826
90643SOL    HW173703   6.087  10.897  13.831
90643SOL    HW273704   6.100  11.045  13.801
90644SOL     OW73705  13.376  14.001   8.332
90644SOL    HW173706  13.306  14.066   8.324
90644SOL    HW273707  13.439  14.025   8.264
90645SOL     OW73708   3.424  13.801   3.453
90645SOL    HW173709   3.450  13.788   3.544
90645SOL    HW273710   3.374  13.883   3.453
90646SOL     OW73711  13.892   6.695  11.757
90646SOL    HW173712  13.876   6.751  11.681
90646SOL    HW273713  13.845   6.614  11.738
90647SOL     OW73714   4.888   7.020   5.576
90647SOL    HW173715   4.822   6.982   5.634
90647SOL    HW273716   4.898   7.110   5.606
90648SOL     OW73717   0.659   8.855   9.544
90648SOL    HW173718   0.744   8.897   9.559
90648SOL    HW273719   0.668   8.813   9.459
90649SOL     OW73720   9.911  10.435   4.680
90649SOL    HW173721   9.970  10.452   4.606
90649SOL    HW273722   9.883  10.344   4.668
90650SOL     OW73723   3.434  10.262   1.625
90650SOL    HW173724   3.523  10.293   1.607
90650SOL    HW273725   3.377  10.330   1.589
90651SOL     OW73726   8.998   0.789   4.251
90651SOL    HW173727   9.003   0.849   4.325
90651SOL    HW273728   9.069   0.727   4.265
90652SOL     OW73729   6.822   0.952   5.587
90652SOL    HW173730   6.851   0.907   5.666
90652SOL    HW273731   6.778   0.885   5.536
90653SOL     OW73732   5.338   8.738  11.499
90653SOL    HW173733   5.338   8.729  11.404
90653SOL    HW273734   5.344   8.648  11.532
90654SOL     OW73735   9.550   2.191   5.902
90654SOL    HW173736   9.560   2.286   5.907
90654SOL    HW273737   9.536   2.163   5.993
90655SOL     OW73738   0.095   2.896   7.914
90655SOL    HW173739   0.114   2.804   7.930
90655SOL    HW273740   0.011   2.911   7.956
90656SOL     OW73741   5.852   0.392   7.253
90656SOL    HW173742   5.871   0.457   7.321
90656SOL    HW273743   5.756   0.388   7.250
90657SOL     OW73744   7.864   5.234   8.625
90657SOL    HW173745   7.835   5.143   8.623
90657SOL    HW273746   7.958   5.228   8.643
90658SOL     OW73747  11.574   4.130   0.901
90658SOL    HW173748  11.598   4.056   0.844
90658SOL    HW273749  11.508   4.177   0.851
90659SOL     OW73750   1.447   8.258   1.453
90659SOL    HW173751   1.432   8.305   1.535
90659SOL    HW273752   1.489   8.176   1.480
90660SOL     OW73753   7.532   8.323   0.706
90660SOL    HW173754   7.627   8.311   0.699
90660SOL    HW273755   7.516   8.339   0.799
90661SOL     OW73756   2.949   5.114  10.581
90661SOL    HW173757   2.868   5.155  10.551
90661SOL    HW273758   2.921   5.037  10.630
90662SOL     OW73759   0.096   0.745   4.331
90662SOL    HW173760   0.083   0.787   4.246
90662SOL    HW273761   0.050   0.801   4.393
90663SOL     OW73762   9.702   5.660   2.358
90663SOL    HW173763   9.683   5.729   2.295
90663SOL    HW273764   9.738   5.705   2.434
90664SOL     OW73765   4.654   6.592   0.273
90664SOL    HW173766   4.618   6.559   0.355
90664SOL    HW273767   4.620   6.533   0.206
90665SOL     OW73768  12.875   2.738   5.571
90665SOL    HW173769  12.784   2.716   5.592
90665SOL    HW273770  12.869   2.795   5.495
90666SOL     OW73771  10.114   8.442   4.667
90666SOL    HW173772  10.175   8.482   4.605
90666SOL    HW273773  10.083   8.514   4.721
90667SOL     OW73774  14.767   2.377   7.632
90667SOL    HW173775  14.824   2.455   7.639
90667SOL    HW273776  14.786   2.342   7.545
90668SOL     OW73777  10.824  10.339  14.827
90668SOL    HW173778  10.899  10.280  14.839
90668SOL    HW273779  10.847  10.391  14.749
90669SOL     OW73780   0.429  11.713  14.083
90669SOL    HW173781   0.351  11.738  14.133
90669SOL    HW273782   0.502  11.746  14.134
90670SOL     OW73783  14.607   4.478   5.297
90670SOL    HW173784  14.639   4.491   5.208
90670SOL    HW273785  14.514   4.455   5.286
90671SOL     OW73786   6.589   4.185   6.660
90671SOL    HW173787   6.621   4.271   6.684
90671SOL    HW273788   6.503   4.201   6.620
90672SOL     OW73789  14.653   9.155  10.967
90672SOL    HW173790  14.577   9.137  11.022
90672SOL    HW273791  14.629   9.122  10.881
90673SOL     OW73792   7.690   6.710   4.919
90673SOL    HW173793   7.732   6.771   4.858
90673SOL    HW273794   7.608   6.687   4.876
90674SOL     OW73795  13.643  12.939   7.783
90674SOL    HW173796  13.727  12.981   7.797
90674SOL    HW273797  13.597  12.948   7.867
90675SOL     OW73798   4.826   6.474  10.839
90675SOL    HW173799   4.770   6.495  10.914
90675SOL    HW273800   4.881   6.551  10.828
90676SOL     OW73801   9.199   5.864   8.192
90676SOL    HW173802   9.116   5.864   8.240
90676SOL    HW273803   9.215   5.772   8.170
90677SOL     OW73804   2.164   4.131  14.559
90677SOL    HW173805   2.207   4.119  14.475
90677SOL    HW273806   2.073   4.108  14.543
90678SOL     OW73807   6.231   1.464   8.762
90678SOL    HW173808   6.315   1.418   8.765
90678SOL    HW273809   6.235   1.525   8.836
90679SOL     OW73810   1.672   1.404   5.053
90679SOL    HW173811   1.766   1.404   5.034
90679SOL    HW273812   1.665   1.439   5.142
90680SOL     OW73813   9.703   0.220  13.832
90680SOL    HW173814   9.685   0.299  13.780
90680SOL    HW273815   9.651   0.151  13.790
90681SOL     OW73816   7.268   4.196  13.196
90681SOL    HW173817   7.333   4.263  13.176
90681SOL    HW273818   7.186   4.229  13.160
90682SOL     OW73819   6.739   5.835  13.367
90682SOL    HW173820   6.732   5.761  13.307
90682SOL    HW273821   6.672   5.819  13.433
90683SOL     OW73822   1.202  14.633   0.106
90683SOL    HW173823   1.267  14.704   0.103
90683SOL    HW273824   1.253  14.554   0.088
90684SOL     OW73825   1.348  11.258   7.481
90684SOL    HW173826   1.339  11.205   7.560
90684SOL    HW273827   1.266  11.306   7.474
90685SOL     OW73828   2.511   2.552   3.147
90685SOL    HW173829   2.520   2.501   3.228
90685SOL    HW273830   2.547   2.638   3.170
90686SOL     OW73831  14.377   1.849  14.671
90686SOL    HW173832  14.322   1.773  14.652
90686SOL    HW273833  14.315   1.923  14.673
90687SOL     OW73834   8.804  13.947   5.016
90687SOL    HW173835   8.720  13.993   5.016
90687SOL    HW273836   8.848  13.978   4.937
90688SOL     OW73837  14.102   3.901   0.443
90688SOL    HW173838  14.137   3.955   0.514
90688SOL    HW273839  14.130   3.812   0.464
90689SOL     OW73840  11.519  10.560   0.816
90689SOL    HW173841  11.614  10.546   0.815
90689SOL    HW273842  11.508  10.649   0.782
90690SOL     OW73843   7.541   3.181   0.657
90690SOL    HW173844   7.485   3.109   0.631
90690SOL    HW273845   7.513   3.255   0.603
90691SOL     OW73846  13.651   3.847  13.579
90691SOL    HW173847  13.711   3.917  13.556
90691SOL    HW273848  13.705   3.768  13.580
90692SOL     OW73849   6.124   8.897  11.666
90692SOL    HW173850   6.113   8.849  11.748
90692SOL    HW273851   6.104   8.833  11.598
90693SOL     OW73852   7.813   6.777  11.774
90693SOL    HW173853   7.831   6.858  11.822
90693SOL    HW273854   7.847   6.707  11.830
90694SOL     OW73855  14.184   8.654   9.576
90694SOL    HW173856  14.144   8.683   9.658
90694SOL    HW273857  14.117   8.671   9.509
90695SOL     OW73858   1.450  11.180   4.931
90695SOL    HW173859   1.435  11.164   4.838
90695SOL    HW273860   1.367  11.215   4.963
90696SOL     OW73861  14.443   0.927  11.282
90696SOL    HW173862  14.412   0.918  11.192
90696SOL    HW273863  14.483   0.842  11.302
90697SOL     OW73864   3.817   9.246  12.874
90697SOL    HW173865   3.749   9.181  12.862
90697SOL    HW273866   3.772   9.320  12.915
90698SOL     OW73867   8.508   2.039  14.211
90698SOL    HW173868   8.541   1.950  14.194
90698SOL    HW273869   8.584   2.085  14.246
90699SOL     OW73870   8.024   6.406   5.625
90699SOL    HW173871   8.031   6.494   5.586
90699SOL    HW273872   8.114   6.381   5.643
90700SOL     OW73873   9.593  11.766  13.355
90700SOL    HW173874   9.541  11.792  13.431
90700SOL    HW273875   9.677  11.738  13.392
90701SOL     OW73876   0.968   8.410   7.026
90701SOL    HW173877   1.019   8.436   7.103
90701SOL    HW273878   1.031   8.366   6.970
90702SOL     OW73879   3.462  13.623   8.150
90702SOL    HW173880   3.505  13.681   8.212
90702SOL    HW273881   3.453  13.676   8.070
90703SOL     OW73882   9.424   7.773   6.213
90703SOL    HW173883   9.348   7.796   6.267
90703SOL    HW273884   9.498   7.774   6.274
90704SOL     OW73885  10.436   7.161   1.827
90704SOL    HW173886  10.410   7.123   1.911
90704SOL    HW273887  10.521   7.201   1.844
90705SOL     OW73888  11.038   3.263   0.598
90705SOL    HW173889  11.060   3.355   0.607
90705SOL    HW273890  10.986   3.243   0.677
90706SOL     OW73891   1.667   9.343  14.438
90706SOL    HW173892   1.711   9.320  14.356
90706SOL    HW273893   1.684   9.437  14.448
90707SOL     OW73894  10.153  11.614  10.153
90707SOL    HW173895  10.074  11.571  10.188
90707SOL    HW273896  10.139  11.707  10.171
90708SOL     OW73897  11.096   1.934   3.922
90708SOL    HW173898  11.103   1.848   3.880
90708SOL    HW273899  11.009   1.934   3.961
90709SOL     OW73900   7.527  11.918  13.062
90709SOL    HW173901   7.545  11.914  12.968
90709SOL    HW273902   7.498  12.007  13.078
90710SOL     OW73903  13.836   9.310  12.730
90710SOL    HW173904  13.827   9.313  12.634
90710SOL    HW273905  13.755   9.267  12.759
90711SOL     OW73906   5.528  10.335  11.265
90711SOL    HW173907   5.573  10.397  11.207
90711SOL    HW273908   5.530  10.377  11.351
90712SOL     OW73909   1.177   8.286   9.766
90712SOL    HW173910   1.154   8.325   9.682
90712SOL    HW273911   1.246   8.342   9.801
90713SOL     OW73912  10.775  14.232   9.280
90713SOL    HW173913  10.740  14.178   9.209
90713SOL    HW273914  10.811  14.169   9.343
90714SOL     OW73915   6.835  10.598   0.206
90714SOL    HW173916   6.791  10.546   0.139
90714SOL    HW273917   6.927  10.599   0.179
90715SOL     OW73918   9.421   2.736   7.528
90715SOL    HW173919   9.505   2.709   7.566
90715SOL    HW273920   9.364   2.751   7.603
90716SOL     OW73921   0.377  12.569   3.531
90716SOL    HW173922   0.392  12.542   3.622
90716SOL    HW273923   0.438  12.641   3.517
90717SOL     OW73924   9.136   9.643  14.698
90717SOL    HW173925   9.227   9.650  14.668
90717SOL    HW273926   9.085   9.637  14.617
90718SOL     OW73927  14.467   1.058   4.595
90718SOL    HW173928  14.405   0.987   4.578
90718SOL    HW273929  14.413   1.133   4.619
90719SOL     OW73930  14.716   3.561   4.666
90719SOL    HW173931  14.727   3.611   4.586
90719SOL    HW273932  14.644   3.501   4.648
90720SOL     OW73933   3.396   4.179   2.683
90720SOL    HW173934   3.439   4.205   2.601
90720SOL    HW273935   3.342   4.104   2.658
90721SOL     OW73936   4.137   8.971   4.076
90721SOL    HW173937   4.050   8.932   4.065
90721SOL    HW273938   4.195   8.911   4.030
90722SOL     OW73939   8.342   5.356   8.428
90722SOL    HW173940   8.284   5.294   8.472
90722SOL    HW273941   8.283   5.411   8.377
90723SOL     OW73942  11.863   6.337   2.153
90723SOL    HW173943  11.959   6.341   2.150
90723SOL    HW273944  11.836   6.373   2.068
90724SOL     OW73945  13.713   6.573   7.114
90724SOL    HW173946  13.786   6.575   7.051
90724SOL    HW273947  13.702   6.480   7.134
90725SOL     OW73948   3.319  13.937  13.229
90725SOL    HW173949   3.309  13.887  13.310
90725SOL    HW273950   3.257  14.010  13.238
90726SOL     OW73951   2.883  12.144  13.639
90726SOL    HW173952   2.830  12.077  13.681
90726SOL    HW273953   2.862  12.225  13.686
90727SOL     OW73954  12.749  14.621   2.172
90727SOL    HW173955  12.787  14.709   2.171
90727SOL    HW273956  12.697  14.616   2.092
90728SOL     OW73957   6.101   3.473   1.163
90728SOL    HW173958   6.040   3.402   1.183
90728SOL    HW273959   6.045   3.548   1.143
90729SOL     OW73960   5.745  10.210  11.644
90729SOL    HW173961   5.760  10.115  11.636
90729SOL    HW273962   5.796  10.248  11.572
90730SOL     OW73963   9.782  14.852  10.547
90730SOL    HW173964   9.772  14.872  10.454
90730SOL    HW273965   9.865  14.805  10.552
90731SOL     OW73966   3.568  14.429   2.731
90731SOL    HW173967   3.500  14.488   2.765
90731SOL    HW273968   3.649  14.478   2.740
90732SOL     OW73969   9.709   0.234   7.092
90732SOL    HW173970   9.800   0.211   7.073
90732SOL    HW273971   9.674   0.265   7.008
90733SOL     OW73972   0.922   1.775   0.803
90733SOL    HW173973   0.899   1.866   0.782
90733SOL    HW273974   0.852   1.723   0.763
90734SOL     OW73975   0.662  11.076  12.756
90734SOL    HW173976   0.651  11.019  12.680
90734SOL    HW273977   0.691  11.017  12.826
90735SOL     OW73978  13.024   5.468   9.432
90735SOL    HW173979  13.096   5.406   9.447
90735SOL    HW273980  13.062   5.554   9.451
90736SOL     OW73981  12.548   8.003   1.784
90736SOL    HW173982  12.484   7.931   1.787
90736SOL    HW273983  12.495   8.082   1.783
90737SOL     OW73984  12.697   4.259  10.162
90737SOL    HW173985  12.787   4.269  10.130
90737SOL    HW273986  12.686   4.328  10.227
90738SOL     OW73987  14.540  11.622  12.685
90738SOL    HW173988  14.592  11.605  12.764
90738SOL    HW273989  14.499  11.707  12.701
90739SOL     OW73990   6.440   6.277   9.728
90739SOL    HW173991   6.406   6.306   9.643
90739SOL    HW273992   6.430   6.182   9.726
90740SOL     OW73993   6.419  12.760   4.769
90740SOL    HW173994   6.466  12.712   4.700
90740SOL    HW273995   6.487  12.782   4.833
90741SOL     OW73996  12.398   0.859  12.459
90741SOL    HW173997  12.447   0.846  12.540
90741SOL    HW273998  12.306   0.864  12.487
90742SOL     OW73999   9.342   0.577  11.199
90742SOL    HW174000   9.307   0.660  11.230
90742SOL    HW274001   9.299   0.511  11.253
90743SOL     OW74002   2.783   3.177   6.004
90743SOL    HW174003   2.793   3.105   6.067
90743SOL    HW274004   2.774   3.134   5.919
90744SOL     OW74005   3.056  13.881  10.253
90744SOL    HW174006   3.020  13.862  10.340
90744SOL    HW274007   3.050  13.976  10.245
90745SOL     OW74008   9.932   2.519   1.056
90745SOL    HW174009   9.847   2.489   1.087
90745SOL    HW274010   9.995   2.459   1.095
90746SOL     OW74011   1.947   8.405   8.482
90746SOL    HW174012   1.868   8.355   8.501
90746SOL    HW274013   1.987   8.420   8.568
90747SOL     OW74014   8.834  14.249   9.559
90747SOL    HW174015   8.927  14.270   9.555
90747SOL    HW274016   8.831  14.158   9.588
90748SOL     OW74017   7.300   2.203   2.700
90748SOL    HW174018   7.361   2.274   2.717
90748SOL    HW274019   7.229   2.217   2.762
90749SOL     OW74020   9.612   4.128  11.507
90749SOL    HW174021   9.657   4.115  11.590
90749SOL    HW274022   9.527   4.166  11.531
90750SOL     OW74023  11.421   6.762   9.591
90750SOL    HW174024  11.425   6.777   9.685
90750SOL    HW274025  11.398   6.847   9.554
90751SOL     OW74026  11.206   7.278  13.919
90751SOL    HW174027  11.113   7.254  13.926
90751SOL    HW274028  11.216   7.352  13.978
90752SOL     OW74029  11.134  14.139  10.767
90752SOL    HW174030  11.199  14.190  10.815
90752SOL    HW274031  11.143  14.050  10.802
90753SOL     OW74032  13.378   8.438   3.374
90753SOL    HW174033  13.322   8.514   3.365
90753SOL    HW274034  13.317   8.364   3.375
90754SOL     OW74035   2.313  14.603   8.724
90754SOL    HW174036   2.323  14.613   8.629
90754SOL    HW274037   2.280  14.688   8.754
90755SOL     OW74038  12.479  10.146   2.450
90755SOL    HW174039  12.425  10.221   2.475
90755SOL    HW274040  12.438  10.071   2.493
90756SOL     OW74041  10.073   0.403  14.756
90756SOL    HW174042  10.078   0.497  14.772
90756SOL    HW274043   9.986   0.378  14.788
90757SOL     OW74044   8.655  12.500   8.712
90757SOL    HW174045   8.665  12.584   8.667
90757SOL    HW274046   8.570  12.467   8.683
90758SOL     OW74047   7.068   1.185  13.105
90758SOL    HW174048   7.080   1.114  13.168
90758SOL    HW274049   6.975   1.183  13.084
90759SOL     OW74050   6.825   4.882  10.034
90759SOL    HW174051   6.889   4.835   9.981
90759SOL    HW274052   6.748   4.825  10.036
90760SOL     OW74053   5.376  14.831   3.962
90760SOL    HW174054   5.443  14.796   3.903
90760SOL    HW274055   5.298  14.779   3.942
90761SOL     OW74056   2.756   5.748  12.388
90761SOL    HW174057   2.778   5.793  12.306
90761SOL    HW274058   2.819   5.676  12.394
90762SOL     OW74059   0.601  13.274   4.555
90762SOL    HW174060   0.642  13.195   4.592
90762SOL    HW274061   0.671  13.339   4.555
90763SOL     OW74062  10.349   1.751   4.422
90763SOL    HW174063  10.366   1.792   4.337
90763SOL    HW274064  10.259   1.721   4.417
90764SOL     OW74065   9.963   7.334   2.146
90764SOL    HW174066   9.943   7.245   2.175
90764SOL    HW274067  10.057   7.332   2.126
90765SOL     OW74068   1.176  14.051   1.711
90765SOL    HW174069   1.251  14.072   1.656
90765SOL    HW274070   1.101  14.057   1.652
90766SOL     OW74071  10.850   9.012  13.300
90766SOL    HW174072  10.801   9.090  13.327
90766SOL    HW274073  10.899   9.040  13.223
90767SOL     OW74074  10.972   2.359   8.878
90767SOL    HW174075  10.984   2.266   8.894
90767SOL    HW274076  11.017   2.376   8.795
90768SOL     OW74077  11.682  14.666  13.194
90768SOL    HW174078  11.765  14.619  13.194
90768SOL    HW274079  11.653  14.664  13.103
90769SOL     OW74080  11.376  14.788  11.189
90769SOL    HW174081  11.461  14.783  11.145
90769SOL    HW274082  11.381  14.866  11.244
90770SOL     OW74083   0.030   2.065  10.235
90770SOL    HW174084   0.040   2.055  10.141
90770SOL    HW274085  14.814   2.054  10.250
90771SOL     OW74086  14.246   2.387   9.088
90771SOL    HW174087  14.250   2.452   9.017
90771SOL    HW274088  14.246   2.440   9.168
90772SOL     OW74089  11.993   6.123   5.802
90772SOL    HW174090  11.963   6.117   5.711
90772SOL    HW274091  12.044   6.044   5.816
90773SOL     OW74092  13.271   9.297   4.116
90773SOL    HW174093  13.215   9.219   4.118
90773SOL    HW274094  13.209   9.370   4.119
90774SOL     OW74095   9.063  11.011  14.289
90774SOL    HW174096   8.994  10.947  14.276
90774SOL    HW274097   9.016  11.092  14.313
90775SOL     OW74098   3.824  13.854   7.865
90775SOL    HW174099   3.901  13.882   7.914
90775SOL    HW274100   3.762  13.927   7.872
90776SOL     OW74101   6.799   7.397   4.167
90776SOL    HW174102   6.801   7.355   4.081
90776SOL    HW274103   6.766   7.328   4.225
90777SOL     OW74104   0.672   4.593   8.613
90777SOL    HW174105   0.688   4.579   8.706
90777SOL    HW274106   0.579   4.576   8.601
90778SOL     OW74107  11.685  14.308   5.298
90778SOL    HW174108  11.777  14.284   5.297
90778SOL    HW274109  11.672  14.359   5.218
90779SOL     OW74110   8.490  12.706  12.439
90779SOL    HW174111   8.448  12.620  12.429
90779SOL    HW274112   8.490  12.742  12.350
90780SOL     OW74113  11.207   1.731   8.441
90780SOL    HW174114  11.238   1.753   8.528
90780SOL    HW274115  11.146   1.802   8.418
90781SOL     OW74116  14.710   2.001   8.519
90781SOL    HW174117  14.779   2.066   8.508
90781SOL    HW274118  14.651   2.015   8.445
90782SOL     OW74119   3.755   7.025  10.538
90782SOL    HW174120   3.798   6.953  10.584
90782SOL    HW274121   3.664   7.020  10.565
90783SOL     OW74122   0.487   5.365  10.925
90783SOL    HW174123   0.523   5.292  10.874
90783SOL    HW274124   0.392   5.357  10.913
90784SOL     OW74125   4.428   6.039   0.389
90784SOL    HW174126   4.516   6.002   0.382
90784SOL    HW274127   4.378   5.994   0.321
90785SOL     OW74128   7.978  14.519   1.882
90785SOL    HW174129   7.914  14.590   1.880
90785SOL    HW274130   7.925  14.441   1.899
90786SOL     OW74131   3.665   8.718   8.527
90786SOL    HW174132   3.755   8.686   8.523
90786SOL    HW274133   3.633   8.713   8.437
90787SOL     OW74134   1.081   3.809   0.579
90787SOL    HW174135   1.019   3.783   0.647
90787SOL    HW274136   1.028   3.854   0.514
90788SOL     OW74137   4.388   9.293  12.769
90788SOL    HW174138   4.387   9.358  12.839
90788SOL    HW274139   4.345   9.216  12.807
90789SOL     OW74140  10.577   2.467  12.236
90789SOL    HW174141  10.671   2.458  12.217
90789SOL    HW274142  10.573   2.494  12.327
90790SOL     OW74143  11.261   6.076   6.317
90790SOL    HW174144  11.270   6.067   6.412
90790SOL    HW274145  11.351   6.085   6.286
90791SOL     OW74146   5.826  14.121   8.976
90791SOL    HW174147   5.851  14.194   9.034
90791SOL    HW274148   5.862  14.044   9.019
90792SOL     OW74149  14.384  14.168   3.865
90792SOL    HW174150  14.465  14.149   3.913
90792SOL    HW274151  14.315  14.155   3.930
90793SOL     OW74152   6.013  12.848  12.656
90793SOL    HW174153   6.094  12.841  12.604
90793SOL    HW274154   6.028  12.788  12.729
90794SOL     OW74155   0.286  10.432   8.455
90794SOL    HW174156   0.305  10.343   8.484
90794SOL    HW274157   0.372  10.473   8.444
90795SOL     OW74158  10.871  14.325   7.580
90795SOL    HW174159  10.966  14.333   7.572
90795SOL    HW274160  10.855  14.231   7.586
90796SOL     OW74161   5.732  13.549   3.050
90796SOL    HW174162   5.737  13.640   3.081
90796SOL    HW274163   5.787  13.500   3.111
90797SOL     OW74164   1.307  13.286  14.126
90797SOL    HW174165   1.339  13.285  14.036
90797SOL    HW274166   1.255  13.206  14.134
90798SOL     OW74167   2.830   3.712  13.353
90798SOL    HW174168   2.802   3.630  13.393
90798SOL    HW274169   2.925   3.706  13.349
90799SOL     OW74170   7.282  12.901   0.591
90799SOL    HW174171   7.225  12.948   0.530
90799SOL    HW274172   7.351  12.864   0.537
90800SOL     OW74173  11.625   2.333   8.376
90800SOL    HW174174  11.672   2.276   8.314
90800SOL    HW274175  11.621   2.282   8.457
90801SOL     OW74176  11.716   7.741   8.248
90801SOL    HW174177  11.659   7.664   8.242
90801SOL    HW274178  11.801   7.709   8.218
90802SOL     OW74179   1.985  10.397  13.118
90802SOL    HW174180   1.984  10.437  13.205
90802SOL    HW274181   1.907  10.341  13.117
90803SOL     OW74182   4.742   5.632   1.454
90803SOL    HW174183   4.832   5.664   1.450
90803SOL    HW274184   4.746   5.544   1.417
90804SOL     OW74185  11.987  12.608  10.116
90804SOL    HW174186  12.028  12.633  10.034
90804SOL    HW274187  12.039  12.650  10.184
90805SOL     OW74188   6.515   3.619   8.698
90805SOL    HW174189   6.579   3.586   8.762
90805SOL    HW274190   6.460   3.679   8.749
90806SOL     OW74191   2.406   8.937   4.528
90806SOL    HW174192   2.441   8.848   4.522
90806SOL    HW274193   2.472   8.992   4.487
90807SOL     OW74194   8.091   5.159   8.977
90807SOL    HW174195   8.029   5.089   8.956
90807SOL    HW274196   8.134   5.130   9.057
90808SOL     OW74197   0.052   2.165   1.212
90808SOL    HW174198   0.056   2.213   1.295
90808SOL    HW274199  14.837   2.164   1.189
90809SOL     OW74200   8.331   0.475   7.554
90809SOL    HW174201   8.329   0.406   7.620
90809SOL    HW274202   8.393   0.445   7.489
90810SOL     OW74203  13.544   3.438  12.897
90810SOL    HW174204  13.523   3.350  12.928
90810SOL    HW274205  13.472   3.493  12.931
90811SOL     OW74206  11.812  11.653   9.796
90811SOL    HW174207  11.751  11.720   9.827
90811SOL    HW274208  11.772  11.570   9.824
90812SOL     OW74209   7.441   6.835  12.687
90812SOL    HW174210   7.421   6.810  12.778
90812SOL    HW274211   7.535   6.850  12.687
90813SOL     OW74212   0.834   5.094   3.991
90813SOL    HW174213   0.767   5.153   4.025
90813SOL    HW274214   0.900   5.091   4.060
90814SOL     OW74215   4.252   3.424  14.737
90814SOL    HW174216   4.284   3.338  14.766
90814SOL    HW274217   4.327   3.465  14.695
90815SOL     OW74218  12.871  11.352   0.819
90815SOL    HW174219  12.895  11.426   0.763
90815SOL    HW274220  12.951  11.333   0.869
90816SOL     OW74221   4.831   7.702  10.502
90816SOL    HW174222   4.805   7.616  10.534
90816SOL    HW274223   4.764   7.725  10.437
90817SOL     OW74224   8.174  13.793   6.374
90817SOL    HW174225   8.191  13.855   6.445
90817SOL    HW274226   8.089  13.819   6.339
90818SOL     OW74227   1.782   6.197   2.269
90818SOL    HW174228   1.712   6.187   2.204
90818SOL    HW274229   1.862   6.191   2.218
90819SOL     OW74230   9.402  12.285   0.530
90819SOL    HW174231   9.341  12.213   0.515
90819SOL    HW274232   9.438  12.268   0.617
90820SOL     OW74233  14.539   3.790   1.333
90820SOL    HW174234  14.586   3.741   1.266
90820SOL    HW274235  14.607   3.827   1.389
90821SOL     OW74236   4.625  11.015  14.015
90821SOL    HW174237   4.665  10.965  14.086
90821SOL    HW274238   4.564  10.954  13.974
90822SOL     OW74239   6.032   3.413   6.223
90822SOL    HW174240   6.005   3.476   6.289
90822SOL    HW274241   5.998   3.448   6.140
90823SOL     OW74242   4.828  10.758  13.403
90823SOL    HW174243   4.782  10.753  13.320
90823SOL    HW274244   4.920  10.768  13.379
90824SOL     OW74245   3.471   2.615   3.505
90824SOL    HW174246   3.460   2.572   3.420
90824SOL    HW274247   3.521   2.552   3.557
90825SOL     OW74248   3.879   3.763   0.509
90825SOL    HW174249   3.928   3.792   0.431
90825SOL    HW274250   3.907   3.673   0.522
90826SOL     OW74251   6.537   3.860   8.948
90826SOL    HW174252   6.480   3.889   9.020
90826SOL    HW274253   6.605   3.808   8.991
90827SOL     OW74254   9.741   5.024   6.112
90827SOL    HW174255   9.762   4.934   6.134
90827SOL    HW274256   9.780   5.076   6.183
90828SOL     OW74257  10.994   0.455   2.737
90828SOL    HW174258  11.034   0.469   2.651
90828SOL    HW274259  10.954   0.540   2.759
90829SOL     OW74260   0.911   0.381   0.175
90829SOL    HW174261   0.896   0.449   0.109
90829SOL    HW274262   1.005   0.365   0.172
90830SOL     OW74263   3.626   1.787   3.897
90830SOL    HW174264   3.591   1.799   3.808
90830SOL    HW274265   3.720   1.806   3.887
90831SOL     OW74266   2.239   3.565   2.698
90831SOL    HW174267   2.193   3.500   2.750
90831SOL    HW274268   2.324   3.574   2.742
90832SOL     OW74269  11.199  11.292   6.407
90832SOL    HW174270  11.287  11.316   6.436
90832SOL    HW274271  11.203  11.298   6.312
90833SOL     OW74272   1.335  14.410  11.847
90833SOL    HW174273   1.407  14.424  11.786
90833SOL    HW274274   1.334  14.488  11.902
90834SOL     OW74275   8.543  11.152   3.184
90834SOL    HW174276   8.570  11.139   3.274
90834SOL    HW274277   8.457  11.110   3.178
90835SOL     OW74278   0.417   0.565   8.896
90835SOL    HW174279   0.409   0.651   8.937
90835SOL    HW274280   0.497   0.528   8.935
90836SOL     OW74281  11.149  10.011   5.474
90836SOL    HW174282  11.054  10.010   5.483
90836SOL    HW274283  11.182  10.012   5.563
90837SOL     OW74284   6.523   2.532  11.033
90837SOL    HW174285   6.498   2.489  11.114
90837SOL    HW274286   6.604   2.577  11.053
90838SOL     OW74287  12.272   6.442  10.624
90838SOL    HW174288  12.182   6.428  10.595
90838SOL    HW274289  12.296   6.527  10.587
90839SOL     OW74290   2.248  10.359  14.187
90839SOL    HW174291   2.194  10.325  14.258
90839SOL    HW274292   2.204  10.328  14.108
90840SOL     OW74293  14.151  12.293   6.341
90840SOL    HW174294  14.244  12.292   6.320
90840SOL    HW274295  14.112  12.233   6.277
90841SOL     OW74296  11.854   6.677   2.782
90841SOL    HW174297  11.918   6.664   2.853
90841SOL    HW274298  11.821   6.766   2.796
90842SOL     OW74299   0.255   1.902   2.269
90842SOL    HW174300   0.274   1.934   2.181
90842SOL    HW274301   0.324   1.839   2.287
90843SOL     OW74302  13.266   5.745  13.005
90843SOL    HW174303  13.302   5.667  13.048
90843SOL    HW274304  13.217   5.790  13.073
90844SOL     OW74305   2.203   4.993   2.286
90844SOL    HW174306   2.193   5.008   2.192
90844SOL    HW274307   2.297   4.985   2.300
90845SOL     OW74308   2.602  11.082   7.582
90845SOL    HW174309   2.644  11.110   7.501
90845SOL    HW274310   2.643  10.998   7.602
90846SOL     OW74311   1.598   3.021   9.077
90846SOL    HW174312   1.599   3.006   8.983
90846SOL    HW274313   1.632   2.939   9.114
90847SOL     OW74314  11.688  14.866   7.522
90847SOL    HW174315  11.732  14.806   7.582
90847SOL    HW274316  11.758   0.026   7.470
90848SOL     OW74317   3.615   6.221   4.436
90848SOL    HW174318   3.651   6.212   4.348
90848SOL    HW274319   3.681   6.184   4.493
90849SOL     OW74320  11.299   6.840  12.424
90849SOL    HW174321  11.359   6.767  12.409
90849SOL    HW274322  11.212   6.800  12.428
90850SOL     OW74323  14.114   8.529   0.180
90850SOL    HW174324  14.028   8.493   0.201
90850SOL    HW274325  14.123   8.605   0.238
90851SOL     OW74326   8.756  14.139  11.864
90851SOL    HW174327   8.830  14.179  11.910
90851SOL    HW274328   8.680  14.161  11.918
90852SOL     OW74329   4.606   6.530   1.682
90852SOL    HW174330   4.533   6.579   1.643
90852SOL    HW274331   4.664   6.510   1.608
90853SOL     OW74332  10.836   7.883  12.992
90853SOL    HW174333  10.816   7.896  12.899
90853SOL    HW274334  10.931   7.897  12.998
90854SOL     OW74335  10.748   8.639   7.908
90854SOL    HW174336  10.781   8.557   7.871
90854SOL    HW274337  10.679   8.666   7.847
90855SOL     OW74338  13.170   0.601   8.411
90855SOL    HW174339  13.220   0.682   8.397
90855SOL    HW274340  13.199   0.570   8.497
90856SOL     OW74341  12.686   5.850   2.521
90856SOL    HW174342  12.605   5.804   2.545
90856SOL    HW274343  12.747   5.780   2.497
90857SOL     OW74344   2.038  11.441  13.417
90857SOL    HW174345   2.083  11.443  13.501
90857SOL    HW274346   2.105  11.412  13.355
90858SOL     OW74347   3.166  10.868   6.091
90858SOL    HW174348   3.114  10.800   6.047
90858SOL    HW274349   3.233  10.892   6.027
90859SOL     OW74350   3.614   1.344   6.693
90859SOL    HW174351   3.616   1.307   6.781
90859SOL    HW274352   3.573   1.430   6.704
90860SOL     OW74353   6.749  13.643   3.851
90860SOL    HW174354   6.710  13.627   3.937
90860SOL    HW274355   6.831  13.593   3.852
90861SOL     OW74356  12.397   5.611   1.777
90861SOL    HW174357  12.392   5.677   1.846
90861SOL    HW274358  12.487   5.580   1.779
90862SOL     OW74359   9.749   2.325   9.636
90862SOL    HW174360   9.827   2.305   9.584
90862SOL    HW274361   9.680   2.272   9.596
90863SOL     OW74362  10.666   0.955   4.560
90863SOL    HW174363  10.619   0.880   4.523
90863SOL    HW274364  10.740   0.969   4.501
90864SOL     OW74365  14.863   1.012   8.504
90864SOL    HW174366  14.831   1.101   8.518
90864SOL    HW274367  14.807   0.958   8.560
90865SOL     OW74368   7.236   7.877   0.107
90865SOL    HW174369   7.293   7.839   0.040
90865SOL    HW274370   7.150   7.837   0.091
90866SOL     OW74371   5.895   8.327   5.454
90866SOL    HW174372   5.975   8.274   5.456
90866SOL    HW274373   5.926   8.417   5.447
90867SOL     OW74374   0.291  11.902  14.796
90867SOL    HW174375   0.319  11.961  14.866
90867SOL    HW274376   0.371  11.887  14.744
90868SOL     OW74377   5.019   7.048   2.227
90868SOL    HW174378   5.009   7.089   2.141
90868SOL    HW274379   5.114   7.038   2.237
90869SOL     OW74380   7.477  10.561   6.902
90869SOL    HW174381   7.382  10.553   6.900
90869SOL    HW274382   7.492  10.650   6.935
90870SOL     OW74383  12.984   2.170   3.032
90870SOL    HW174384  13.013   2.212   3.113
90870SOL    HW274385  13.007   2.078   3.042
90871SOL     OW74386   9.244   7.507  12.223
90871SOL    HW174387   9.318   7.563  12.249
90871SOL    HW274388   9.200   7.487  12.305
90872SOL     OW74389   8.282  11.103  14.679
90872SOL    HW174390   8.235  11.112  14.762
90872SOL    HW274391   8.368  11.070  14.704
90873SOL     OW74392  13.161   9.546   4.184
90873SOL    HW174393  13.235   9.575   4.131
90873SOL    HW274394  13.091   9.608   4.163
90874SOL     OW74395   3.561   7.221  12.484
90874SOL    HW174396   3.552   7.128  12.503
90874SOL    HW274397   3.471   7.253  12.479
90875SOL     OW74398   0.346  11.917   5.259
90875SOL    HW174399   0.267  11.925   5.312
90875SOL    HW274400   0.329  11.971   5.182
90876SOL     OW74401   2.836   0.657   8.789
90876SOL    HW174402   2.790   0.740   8.782
90876SOL    HW274403   2.898   0.669   8.861
90877SOL     OW74404  14.848   1.678   1.417
90877SOL    HW174405  14.834   1.593   1.460
90877SOL    HW274406  14.760   1.715   1.409
90878SOL     OW74407   7.729   5.925  11.946
90878SOL    HW174408   7.714   5.986  12.018
90878SOL    HW274409   7.723   5.978  11.867
90879SOL     OW74410  10.962  11.033   4.340
90879SOL    HW174411  10.931  10.955   4.385
90879SOL    HW274412  10.891  11.056   4.281
90880SOL     OW74413  13.836  10.534   9.243
90880SOL    HW174414  13.884  10.459   9.277
90880SOL    HW274415  13.762  10.496   9.196
90881SOL     OW74416   6.913  14.485  13.576
90881SOL    HW174417   7.007  14.480  13.558
90881SOL    HW274418   6.894  14.406  13.627
90882SOL     OW74419   5.159   3.131   7.560
90882SOL    HW174420   5.172   3.172   7.474
90882SOL    HW274421   5.097   3.060   7.544
90883SOL     OW74422   1.457   4.798   2.541
90883SOL    HW174423   1.474   4.789   2.448
90883SOL    HW274424   1.541   4.827   2.578
90884SOL     OW74425  14.501  12.256   5.266
90884SOL    HW174426  14.515  12.161   5.260
90884SOL    HW274427  14.435  12.274   5.199
90885SOL     OW74428   4.800   0.335   6.051
90885SOL    HW174429   4.817   0.246   6.083
90885SOL    HW274430   4.850   0.341   5.969
90886SOL     OW74431   4.572  12.014   8.491
90886SOL    HW174432   4.648  12.000   8.547
90886SOL    HW274433   4.574  11.941   8.429
90887SOL     OW74434  10.886   5.569  11.439
90887SOL    HW174435  10.923   5.641  11.390
90887SOL    HW274436  10.791   5.579  11.428
90888SOL     OW74437  13.430  13.230   7.353
90888SOL    HW174438  13.342  13.266   7.367
90888SOL    HW274439  13.462  13.209   7.441
90889SOL     OW74440   5.353   4.663   2.398
90889SOL    HW174441   5.413   4.737   2.415
90889SOL    HW274442   5.305   4.689   2.320
90890SOL     OW74443   6.960   9.564  13.070
90890SOL    HW174444   6.986   9.587  13.159
90890SOL    HW274445   6.867   9.543  13.076
90891SOL     OW74446   6.459   2.372   4.709
90891SOL    HW174447   6.478   2.385   4.616
90891SOL    HW274448   6.515   2.435   4.754
90892SOL     OW74449   4.909  11.554  12.854
90892SOL    HW174450   4.931  11.647  12.857
90892SOL    HW274451   4.992  11.509  12.869
90893SOL     OW74452   0.334  11.277   5.306
90893SOL    HW174453   0.335  11.372   5.316
90893SOL    HW274454   0.316  11.243   5.394
90894SOL     OW74455   8.641   2.784  11.565
90894SOL    HW174456   8.704   2.853  11.585
90894SOL    HW274457   8.605   2.809  11.480
90895SOL     OW74458   5.039  11.021   9.665
90895SOL    HW174459   5.120  11.033   9.616
90895SOL    HW274460   5.067  11.016   9.756
90896SOL     OW74461  13.295   5.541   3.451
90896SOL    HW174462  13.323   5.535   3.360
90896SOL    HW274463  13.233   5.615   3.452
90897SOL     OW74464   6.681  11.686   5.332
90897SOL    HW174465   6.636  11.663   5.251
90897SOL    HW274466   6.628  11.756   5.370
90898SOL     OW74467  13.516   8.863   3.973
90898SOL    HW174468  13.584   8.902   4.029
90898SOL    HW274469  13.505   8.926   3.902
90899SOL     OW74470   4.045  12.076  12.883
90899SOL    HW174471   4.049  12.171  12.899
90899SOL    HW274472   3.952  12.055  12.890
90900SOL     OW74473  11.004   1.226  11.886
90900SOL    HW174474  11.016   1.256  11.977
90900SOL    HW274475  11.014   1.131  11.891
90901SOL     OW74476   1.767  14.611   0.604
90901SOL    HW174477   1.837  14.546   0.610
90901SOL    HW274478   1.805  14.691   0.640
90902SOL     OW74479   7.518  10.695   1.539
90902SOL    HW174480   7.568  10.632   1.486
90902SOL    HW274481   7.560  10.692   1.625
90903SOL     OW74482  10.663   2.299  14.027
90903SOL    HW174483  10.661   2.210  13.990
90903SOL    HW274484  10.645   2.286  14.120
90904SOL     OW74485   4.627   4.998  13.651
90904SOL    HW174486   4.700   4.977  13.592
90904SOL    HW274487   4.566   4.925  13.641
90905SOL     OW74488  12.393  12.063   1.748
90905SOL    HW174489  12.441  12.122   1.689
90905SOL    HW274490  12.392  11.979   1.702
90906SOL     OW74491   5.505   3.030   2.907
90906SOL    HW174492   5.534   2.961   2.848
90906SOL    HW274493   5.571   3.033   2.976
90907SOL     OW74494   1.764  13.378   1.110
90907SOL    HW174495   1.803  13.437   1.175
90907SOL    HW274496   1.824  13.304   1.106
90908SOL     OW74497  14.156  14.587   3.432
90908SOL    HW174498  14.116  14.511   3.475
90908SOL    HW274499  14.085  14.626   3.381
90909SOL     OW74500   9.881  14.486   9.203
90909SOL    HW174501   9.940  14.488   9.128
90909SOL    HW274502   9.805  14.539   9.176
90910SOL     OW74503   0.085   7.047   3.828
90910SOL    HW174504   0.014   7.063   3.766
90910SOL    HW274505   0.058   6.970   3.877
90911SOL     OW74506   2.240   8.031  10.075
90911SOL    HW174507   2.184   8.015  10.150
90911SOL    HW274508   2.297   8.103  10.102
90912SOL     OW74509   4.661   7.125   4.840
90912SOL    HW174510   4.684   7.122   4.747
90912SOL    HW274511   4.568   7.148   4.840
90913SOL     OW74512  13.871   0.504  12.511
90913SOL    HW174513  13.920   0.502  12.594
90913SOL    HW274514  13.782   0.527  12.537
90914SOL     OW74515   7.811   8.423   7.732
90914SOL    HW174516   7.851   8.445   7.648
90914SOL    HW274517   7.874   8.366   7.775
90915SOL     OW74518   2.424  13.997   6.145
90915SOL    HW174519   2.487  13.948   6.092
90915SOL    HW274520   2.466  14.005   6.230
90916SOL     OW74521   7.405   5.713  14.182
90916SOL    HW174522   7.453   5.778  14.233
90916SOL    HW274523   7.470   5.678  14.121
90917SOL     OW74524   6.590   7.053   5.154
90917SOL    HW174525   6.578   7.135   5.201
90917SOL    HW274526   6.642   6.999   5.213
90918SOL     OW74527   5.632   0.328  11.970
90918SOL    HW174528   5.708   0.357  11.919
90918SOL    HW274529   5.667   0.306  12.056
90919SOL     OW74530   0.641  13.768   6.324
90919SOL    HW174531   0.707  13.837   6.320
90919SOL    HW274532   0.655  13.727   6.410
90920SOL     OW74533   1.560  12.040  14.636
90920SOL    HW174534   1.640  12.092  14.641
90920SOL    HW274535   1.589  11.955  14.603
90921SOL     OW74536  14.143  12.400   9.145
90921SOL    HW174537  14.076  12.396   9.077
90921SOL    HW274538  14.097  12.375   9.226
90922SOL     OW74539   4.787   2.799   2.140
90922SOL    HW174540   4.863   2.833   2.186
90922SOL    HW274541   4.806   2.706   2.127
90923SOL     OW74542  12.859  11.136  10.263
90923SOL    HW174543  12.943  11.131  10.219
90923SOL    HW274544  12.841  11.046  10.291
90924SOL     OW74545   5.778   4.061   6.869
90924SOL    HW174546   5.691   4.101   6.863
90924SOL    HW274547   5.779   3.996   6.798
90925SOL     OW74548   7.466   4.866   4.906
90925SOL    HW174549   7.519   4.841   4.830
90925SOL    HW274550   7.442   4.957   4.889
90926SOL     OW74551   4.135  10.388   4.130
90926SOL    HW174552   4.195  10.414   4.060
90926SOL    HW274553   4.186  10.399   4.211
90927SOL     OW74554   4.545   7.441  10.279
90927SOL    HW174555   4.500   7.357  10.280
90927SOL    HW274556   4.596   7.440  10.198
90928SOL     OW74557   4.810   1.599  13.869
90928SOL    HW174558   4.902   1.594  13.896
90928SOL    HW274559   4.776   1.676  13.915
90929SOL     OW74560   3.696   7.278   8.660
90929SOL    HW174561   3.674   7.279   8.753
90929SOL    HW274562   3.747   7.198   8.648
90930SOL     OW74563   1.719   7.425   3.777
90930SOL    HW174564   1.676   7.346   3.744
90930SOL    HW274565   1.799   7.432   3.726
90931SOL     OW74566  13.748   3.939  10.941
90931SOL    HW174567  13.774   3.876  10.874
90931SOL    HW274568  13.743   4.023  10.894
90932SOL     OW74569  12.545   0.388   4.910
90932SOL    HW174570  12.572   0.426   4.994
90932SOL    HW274571  12.455   0.359   4.924
90933SOL     OW74572   7.983   9.599   8.580
90933SOL    HW174573   7.906   9.543   8.584
90933SOL    HW274574   8.053   9.542   8.547
90934SOL     OW74575   7.959   3.718   1.532
90934SOL    HW174576   7.870   3.727   1.497
90934SOL    HW274577   7.954   3.641   1.589
90935SOL     OW74578  11.118   6.790   0.628
90935SOL    HW174579  11.187   6.766   0.566
90935SOL    HW274580  11.150   6.869   0.671
90936SOL     OW74581  10.422   4.785   6.324
90936SOL    HW174582  10.504   4.834   6.321
90936SOL    HW274583  10.376   4.810   6.243
90937SOL     OW74584  12.033  14.445   0.471
90937SOL    HW174585  12.035  14.460   0.377
90937SOL    HW274586  12.118  14.405   0.491
90938SOL     OW74587   5.076  11.401   3.597
90938SOL    HW174588   5.158  11.360   3.570
90938SOL    HW274589   5.094  11.433   3.686
90939SOL     OW74590  10.320   1.495   2.511
90939SOL    HW174591  10.306   1.578   2.556
90939SOL    HW274592  10.393   1.512   2.451
90940SOL     OW74593   3.684   4.566  12.817
90940SOL    HW174594   3.699   4.531  12.904
90940SOL    HW274595   3.737   4.646  12.814
90941SOL     OW74596  11.792   2.912   1.218
90941SOL    HW174597  11.885   2.933   1.217
90941SOL    HW274598  11.771   2.892   1.126
90942SOL     OW74599   1.866   5.305   2.915
90942SOL    HW174600   1.899   5.278   3.001
90942SOL    HW274601   1.935   5.359   2.879
90943SOL     OW74602   1.242   4.838   3.776
90943SOL    HW174603   1.168   4.889   3.742
90943SOL    HW274604   1.202   4.755   3.804
90944SOL     OW74605  13.837   5.711   3.340
90944SOL    HW174606  13.801   5.791   3.301
90944SOL    HW274607  13.932   5.727   3.344
90945SOL     OW74608   5.143  11.772   3.466
90945SOL    HW174609   5.230  11.740   3.443
90945SOL    HW274610   5.159  11.840   3.532
90946SOL     OW74611   1.482   5.752   6.590
90946SOL    HW174612   1.395   5.746   6.553
90946SOL    HW274613   1.476   5.819   6.658
90947SOL     OW74614  12.902   5.230   1.879
90947SOL    HW174615  12.931   5.229   1.788
90947SOL    HW274616  12.984   5.234   1.930
90948SOL     OW74617   1.164   7.316   7.849
90948SOL    HW174618   1.084   7.322   7.900
90948SOL    HW274619   1.234   7.307   7.914
90949SOL     OW74620   4.441   2.694   8.407
90949SOL    HW174621   4.523   2.669   8.448
90949SOL    HW274622   4.373   2.662   8.466
90950SOL     OW74623   1.470  13.165   9.348
90950SOL    HW174624   1.513  13.081   9.332
90950SOL    HW274625   1.376  13.144   9.351
90951SOL     OW74626   7.866   5.282   7.003
90951SOL    HW174627   7.879   5.281   6.908
90951SOL    HW274628   7.818   5.363   7.020
90952SOL     OW74629   9.167  13.496   8.876
90952SOL    HW174630   9.206  13.431   8.817
90952SOL    HW274631   9.091  13.452   8.914
90953SOL     OW74632   7.285   7.228   6.847
90953SOL    HW174633   7.345   7.170   6.895
90953SOL    HW274634   7.342   7.279   6.790
90954SOL     OW74635   3.573   7.588   8.570
90954SOL    HW174636   3.509   7.516   8.572
90954SOL    HW274637   3.592   7.599   8.477
90955SOL     OW74638   5.999  12.638   3.432
90955SOL    HW174639   5.927  12.576   3.438
90955SOL    HW274640   6.063  12.607   3.496
90956SOL     OW74641   9.791   7.627  12.739
90956SOL    HW174642   9.740   7.675  12.674
90956SOL    HW274643   9.801   7.539  12.703
90957SOL     OW74644   0.748   3.340   4.618
90957SOL    HW174645   0.731   3.261   4.567
90957SOL    HW274646   0.840   3.331   4.645
90958SOL     OW74647   3.602   9.234   1.136
90958SOL    HW174648   3.636   9.310   1.089
90958SOL    HW274649   3.632   9.159   1.085
90959SOL     OW74650   0.893   1.504   8.083
90959SOL    HW174651   0.866   1.573   8.144
90959SOL    HW274652   0.936   1.439   8.139
90960SOL     OW74653   6.298   1.459   8.487
90960SOL    HW174654   6.274   1.472   8.579
90960SOL    HW274655   6.269   1.539   8.443
90961SOL     OW74656  11.599   3.596  13.270
90961SOL    HW174657  11.609   3.666  13.335
90961SOL    HW274658  11.685   3.590  13.228
90962SOL     OW74659  14.645   0.908   4.403
90962SOL    HW174660  14.727   0.949   4.430
90962SOL    HW274661  14.584   0.980   4.391
90963SOL     OW74662   9.634  10.172   0.928
90963SOL    HW174663   9.725  10.155   0.901
90963SOL    HW274664   9.638  10.174   1.023
90964SOL     OW74665   9.066   1.867   0.223
90964SOL    HW174666   9.104   1.912   0.148
90964SOL    HW274667   9.052   1.935   0.288
90965SOL     OW74668  13.985   7.724   4.195
90965SOL    HW174669  13.946   7.649   4.239
90965SOL    HW274670  13.910   7.780   4.172
90966SOL     OW74671  10.378   2.427  14.603
90966SOL    HW174672  10.458   2.379  14.622
90966SOL    HW274673  10.358   2.474  14.684
90967SOL     OW74674   3.345   0.376   9.910
90967SOL    HW174675   3.435   0.400   9.931
90967SOL    HW274676   3.318   0.318   9.982
90968SOL     OW74677   8.760   5.267   1.900
90968SOL    HW174678   8.824   5.321   1.946
90968SOL    HW274679   8.780   5.177   1.927
90969SOL     OW74680   6.077   5.070   4.860
90969SOL    HW174681   6.028   5.149   4.839
90969SOL    HW274682   6.046   5.045   4.947
90970SOL     OW74683  12.346   7.131  12.874
90970SOL    HW174684  12.304   7.097  12.953
90970SOL    HW274685  12.280   7.123  12.806
90971SOL     OW74686   9.510  11.668   6.045
90971SOL    HW174687   9.467  11.733   5.989
90971SOL    HW274688   9.578  11.718   6.090
90972SOL     OW74689  12.665   2.423   9.104
90972SOL    HW174690  12.618   2.460   9.030
90972SOL    HW274691  12.628   2.335   9.114
90973SOL     OW74692   3.411   1.272  10.068
90973SOL    HW174693   3.342   1.324  10.110
90973SOL    HW274694   3.366   1.227   9.996
90974SOL     OW74695   6.990   2.169   1.059
90974SOL    HW174696   7.000   2.259   1.090
90974SOL    HW274697   6.985   2.177   0.964
90975SOL     OW74698   8.004   4.159   8.090
90975SOL    HW174699   8.061   4.101   8.040
90975SOL    HW274700   8.047   4.244   8.086
90976SOL     OW74701   7.295   8.680   3.284
90976SOL    HW174702   7.319   8.709   3.197
90976SOL    HW274703   7.216   8.627   3.271
90977SOL     OW74704  13.016  10.123  13.109
90977SOL    HW174705  13.034  10.147  13.200
90977SOL    HW274706  12.947  10.058  13.114
90978SOL     OW74707   8.402  12.316   7.779
90978SOL    HW174708   8.357  12.307   7.695
90978SOL    HW274709   8.338  12.285   7.843
90979SOL     OW74710   3.136  11.154   1.441
90979SOL    HW174711   3.145  11.239   1.397
90979SOL    HW274712   3.227  11.127   1.457
90980SOL     OW74713   6.857   6.574   6.719
90980SOL    HW174714   6.949   6.597   6.736
90980SOL    HW274715   6.809   6.655   6.737
90981SOL     OW74716   2.607  10.062   2.011
90981SOL    HW174717   2.617   9.967   2.004
90981SOL    HW274718   2.516  10.079   1.984
90982SOL     OW74719   6.325  11.753   4.002
90982SOL    HW174720   6.377  11.679   3.971
90982SOL    HW274721   6.282  11.787   3.923
90983SOL     OW74722   1.869  12.177   9.028
90983SOL    HW174723   1.794  12.235   9.012
90983SOL    HW274724   1.872  12.169   9.123
90984SOL     OW74725  13.354   5.575   9.032
90984SOL    HW174726  13.263   5.598   9.049
90984SOL    HW274727  13.379   5.630   8.957
90985SOL     OW74728   6.985  13.191   8.313
90985SOL    HW174729   7.080  13.189   8.317
90985SOL    HW274730   6.961  13.116   8.259
90986SOL     OW74731  11.017   2.797   0.391
90986SOL    HW174732  11.071   2.843   0.455
90986SOL    HW274733  11.013   2.856   0.315
90987SOL     OW74734   2.138   2.167  14.358
90987SOL    HW174735   2.205   2.103  14.335
90987SOL    HW274736   2.159   2.245  14.306
90988SOL     OW74737   7.322  11.977   0.766
90988SOL    HW174738   7.338  12.006   0.677
90988SOL    HW274739   7.407  11.986   0.810
90989SOL     OW74740   2.601  14.304   9.851
90989SOL    HW174741   2.525  14.246   9.856
90989SOL    HW274742   2.648  14.275   9.773
90990SOL     OW74743  10.978  13.453   7.275
90990SOL    HW174744  11.017  13.385   7.329
90990SOL    HW274745  10.916  13.497   7.334
90991SOL     OW74746  12.542   2.171   9.098
90991SOL    HW174747  12.475   2.126   9.046
90991SOL    HW274748  12.529   2.137   9.187
90992SOL     OW74749   8.107  11.299   5.173
90992SOL    HW174750   8.202  11.303   5.178
90992SOL    HW274751   8.086  11.207   5.186
90993SOL     OW74752   1.406  10.608   6.645
90993SOL    HW174753   1.373  10.577   6.729
90993SOL    HW274754   1.452  10.689   6.665
90994SOL     OW74755   8.772  10.461  10.791
90994SOL    HW174756   8.758  10.551  10.760
90994SOL    HW274757   8.687  10.434  10.825
90995SOL     OW74758  12.227   2.823   2.162
90995SOL    HW174759  12.209   2.851   2.072
90995SOL    HW274760  12.321   2.835   2.172
90996SOL     OW74761   9.010   0.792   7.887
90996SOL    HW174762   9.052   0.830   7.810
90996SOL    HW274763   8.957   0.863   7.923
90997SOL     OW74764   4.356  11.914   7.689
90997SOL    HW174765   4.356  11.955   7.776
90997SOL    HW274766   4.441  11.937   7.652
90998SOL     OW74767  14.852   3.206  14.818
90998SOL    HW174768   0.015   3.230   0.023
90998SOL    HW274769   0.039   3.229  14.752
90999SOL     OW74770   5.018   7.240  11.324
90999SOL    HW174771   5.110   7.252  11.347
90999SOL    HW274772   4.971   7.295  11.387
91000SOL     OW74773   2.252   9.319   6.444
91000SOL    HW174774   2.269   9.251   6.379
91000SOL    HW274775   2.338   9.337   6.482
91001SOL     OW74776   3.407  10.443   3.128
91001SOL    HW174777   3.480  10.384   3.107
91001SOL    HW274778   3.434  10.489   3.207
91002SOL     OW74779  12.018   2.569  11.994
91002SOL    HW174780  12.095   2.605  11.949
91002SOL    HW274781  11.944   2.614  11.953
91003SOL     OW74782   1.053   9.050   3.055
91003SOL    HW174783   1.020   9.045   2.965
91003SOL    HW274784   1.080   8.960   3.075
91004SOL     OW74785  10.789  13.339   6.188
91004SOL    HW174786  10.800  13.252   6.227
91004SOL    HW274787  10.855  13.393   6.231
91005SOL     OW74788   5.963   3.284   3.590
91005SOL    HW174789   5.994   3.309   3.677
91005SOL    HW274790   5.974   3.189   3.587
91006SOL     OW74791   1.296   6.843   9.851
91006SOL    HW174792   1.227   6.902   9.881
91006SOL    HW274793   1.370   6.863   9.908
91007SOL     OW74794   7.105  14.168   6.144
91007SOL    HW174795   7.103  14.074   6.124
91007SOL    HW274796   7.141  14.172   6.233
91008SOL     OW74797   7.487   1.818   2.619
91008SOL    HW174798   7.513   1.907   2.643
91008SOL    HW274799   7.553   1.762   2.660
91009SOL     OW74800   6.541  11.787  13.323
91009SOL    HW174801   6.461  11.839  13.319
91009SOL    HW274802   6.511  11.696  13.319
91010SOL     OW74803   1.541   1.189   2.909
91010SOL    HW174804   1.535   1.145   2.994
91010SOL    HW274805   1.619   1.151   2.868
91011SOL     OW74806  10.829  12.922  14.446
91011SOL    HW174807  10.776  12.900  14.522
91011SOL    HW274808  10.790  13.002  14.411
91012SOL     OW74809  11.004   6.983   5.671
91012SOL    HW174810  10.921   7.028   5.689
91012SOL    HW274811  10.982   6.918   5.605
91013SOL     OW74812  12.250   8.488   5.820
91013SOL    HW174813  12.231   8.480   5.913
91013SOL    HW274814  12.333   8.534   5.815
91014SOL     OW74815   1.034  10.820   7.140
91014SOL    HW174816   1.017  10.795   7.231
91014SOL    HW274817   1.047  10.915   7.143
91015SOL     OW74818   0.457  13.772   9.123
91015SOL    HW174819   0.417  13.741   9.042
91015SOL    HW274820   0.461  13.867   9.113
91016SOL     OW74821  10.126   6.490  12.951
91016SOL    HW174822  10.098   6.537  13.028
91016SOL    HW274823  10.106   6.398  12.970
91017SOL     OW74824  10.586  13.615   0.507
91017SOL    HW174825  10.613  13.699   0.469
91017SOL    HW274826  10.492  13.611   0.491
91018SOL     OW74827  12.320  12.226   7.632
91018SOL    HW174828  12.377  12.288   7.585
91018SOL    HW274829  12.360  12.140   7.616
91019SOL     OW74830  14.850   1.632   4.579
91019SOL    HW174831  14.843   1.596   4.667
91019SOL    HW274832  14.869   1.557   4.523
91020SOL     OW74833  12.150   8.136   5.083
91020SOL    HW174834  12.189   8.098   5.004
91020SOL    HW274835  12.221   8.134   5.147
91021SOL     OW74836   1.366  14.036   1.488
91021SOL    HW174837   1.390  14.127   1.505
91021SOL    HW274838   1.315  14.039   1.407
91022SOL     OW74839   9.695  14.673   9.098
91022SOL    HW174840   9.742  14.756   9.107
91022SOL    HW274841   9.649  14.681   9.014
91023SOL     OW74842   9.249   4.608   0.627
91023SOL    HW174843   9.274   4.516   0.629
91023SOL    HW274844   9.153   4.607   0.630
91024SOL     OW74845  10.458   4.867   3.397
91024SOL    HW174846  10.468   4.958   3.370
91024SOL    HW274847  10.376   4.838   3.356
91025SOL     OW74848   4.083   6.039   5.884
91025SOL    HW174849   4.175   6.040   5.910
91025SOL    HW274850   4.060   6.132   5.877
91026SOL     OW74851  14.635   1.643   6.718
91026SOL    HW174852  14.544   1.616   6.705
91026SOL    HW274853  14.686   1.572   6.679
91027SOL     OW74854   6.989   4.365   4.966
91027SOL    HW174855   7.012   4.414   5.045
91027SOL    HW274856   6.905   4.403   4.938
91028SOL     OW74857  12.375   0.740   3.521
91028SOL    HW174858  12.330   0.808   3.471
91028SOL    HW274859  12.455   0.722   3.471
91029SOL     OW74860   2.172   4.341   9.194
91029SOL    HW174861   2.139   4.324   9.106
91029SOL    HW274862   2.229   4.417   9.184
91030SOL     OW74863   6.157  13.336  12.547
91030SOL    HW174864   6.115  13.350  12.632
91030SOL    HW274865   6.114  13.258  12.511
91031SOL     OW74866   7.577   8.191   6.682
91031SOL    HW174867   7.654   8.181   6.738
91031SOL    HW274868   7.504   8.204   6.743
91032SOL     OW74869   6.852  14.607   2.148
91032SOL    HW174870   6.941  14.641   2.149
91032SOL    HW274871   6.849  14.548   2.072
91033SOL     OW74872  13.510   0.961   2.812
91033SOL    HW174873  13.544   0.948   2.724
91033SOL    HW274874  13.568   0.910   2.869
91034SOL     OW74875   1.753  10.254   4.611
91034SOL    HW174876   1.698  10.229   4.537
91034SOL    HW274877   1.716  10.338   4.641
91035SOL     OW74878   1.995  10.429   4.812
91035SOL    HW174879   2.076  10.479   4.808
91035SOL    HW274880   1.986  10.404   4.904
91036SOL     OW74881   1.802  14.312   2.708
91036SOL    HW174882   1.872  14.376   2.725
91036SOL    HW274883   1.781  14.323   2.616
91037SOL     OW74884   3.708   4.489  13.084
91037SOL    HW174885   3.755   4.464  13.163
91037SOL    HW274886   3.657   4.412  13.060
91038SOL     OW74887   6.399   2.761   2.633
91038SOL    HW174888   6.435   2.757   2.544
91038SOL    HW274889   6.304   2.766   2.620
91039SOL     OW74890  10.083   4.191   4.792
91039SOL    HW174891  10.136   4.196   4.713
91039SOL    HW274892  10.058   4.282   4.811
91040SOL     OW74893  10.710   3.264   2.768
91040SOL    HW174894  10.773   3.283   2.838
91040SOL    HW274895  10.747   3.304   2.690
91041SOL     OW74896   4.454   9.479  13.598
91041SOL    HW174897   4.506   9.454  13.674
91041SOL    HW274898   4.518   9.506  13.532
91042SOL     OW74899   3.867  14.683  13.586
91042SOL    HW174900   3.846  14.602  13.633
91042SOL    HW274901   3.809  14.749  13.622
91043SOL     OW74902  13.242   5.188  10.654
91043SOL    HW174903  13.220   5.098  10.629
91043SOL    HW274904  13.215   5.195  10.745
91044SOL     OW74905  14.786   4.188   8.395
91044SOL    HW174906  14.807   4.282   8.397
91044SOL    HW274907  14.824   4.157   8.313
91045SOL     OW74908  10.950  13.797   0.775
91045SOL    HW174909  10.943  13.775   0.683
91045SOL    HW274910  10.861  13.816   0.803
91046SOL     OW74911   3.333  11.262   8.925
91046SOL    HW174912   3.275  11.324   8.970
91046SOL    HW274913   3.331  11.290   8.833
91047SOL     OW74914   2.240   6.361   0.966
91047SOL    HW174915   2.210   6.381   1.055
91047SOL    HW274916   2.237   6.266   0.960
91048SOL     OW74917   7.204   7.051  12.301
91048SOL    HW174918   7.231   7.103  12.376
91048SOL    HW274919   7.228   6.961  12.324
91049SOL     OW74920   4.734   9.150  14.866
91049SOL    HW174921   4.783   9.156   0.070
91049SOL    HW274922   4.776   9.214  14.808
91050SOL     OW74923   2.570   7.075   0.434
91050SOL    HW174924   2.620   7.157   0.433
91050SOL    HW274925   2.614   7.021   0.500
91051SOL     OW74926   6.630   7.591   8.206
91051SOL    HW174927   6.646   7.527   8.137
91051SOL    HW274928   6.645   7.676   8.164
91052SOL     OW74929   5.994   2.086   9.221
91052SOL    HW174930   6.034   2.053   9.301
91052SOL    HW274931   5.913   2.035   9.211
91053SOL     OW74932   1.981  14.008   2.942
91053SOL    HW174933   2.075  14.014   2.960
91053SOL    HW274934   1.957  13.920   2.970
91054SOL     OW74935  12.434  14.860   8.757
91054SOL    HW174936  12.460  14.827   8.843
91054SOL    HW274937  12.373  14.794   8.724
91055SOL     OW74938   0.861  10.225   1.504
91055SOL    HW174939   0.838  10.213   1.412
91055SOL    HW274940   0.877  10.136   1.537
91056SOL     OW74941   1.041  13.558  12.154
91056SOL    HW174942   1.095  13.548  12.233
91056SOL    HW274943   1.042  13.471  12.114
91057SOL     OW74944   0.624   5.327   0.890
91057SOL    HW174945   0.549   5.269   0.877
91057SOL    HW274946   0.627   5.380   0.810
91058SOL     OW74947   2.512   6.782  11.042
91058SOL    HW174948   2.556   6.860  11.009
91058SOL    HW274949   2.552   6.710  10.994
91059SOL     OW74950   7.560  13.077   1.619
91059SOL    HW174951   7.494  13.016   1.584
91059SOL    HW274952   7.561  13.149   1.557
91060SOL     OW74953   7.072  14.071   8.043
91060SOL    HW174954   7.006  14.053   8.109
91060SOL    HW274955   7.037  14.145   7.993
91061SOL     OW74956   5.676   1.542   8.911
91061SOL    HW174957   5.765   1.550   8.945
91061SOL    HW274958   5.662   1.622   8.861
91062SOL     OW74959   3.580  13.262  10.311
91062SOL    HW174960   3.522  13.235  10.383
91062SOL    HW274961   3.630  13.183  10.290
91063SOL     OW74962   6.402   6.608   3.496
91063SOL    HW174963   6.430   6.567   3.578
91063SOL    HW274964   6.408   6.702   3.514
91064SOL     OW74965   1.181  11.023   3.625
91064SOL    HW174966   1.219  10.942   3.591
91064SOL    HW274967   1.111  11.044   3.563
91065SOL     OW74968   8.285   1.547  10.230
91065SOL    HW174969   8.209   1.585  10.275
91065SOL    HW274970   8.343   1.622  10.214
91066SOL     OW74971  11.866  14.363   3.667
91066SOL    HW174972  11.805  14.396   3.601
91066SOL    HW274973  11.810  14.335   3.739
91067SOL     OW74974   4.269   1.292  12.899
91067SOL    HW174975   4.348   1.342  12.881
91067SOL    HW274976   4.300   1.201  12.908
91068SOL     OW74977   2.390   8.409   7.328
91068SOL    HW174978   2.437   8.335   7.289
91068SOL    HW274979   2.311   8.418   7.275
91069SOL     OW74980  10.577   3.727   3.728
91069SOL    HW174981  10.531   3.769   3.655
91069SOL    HW274982  10.575   3.792   3.798
91070SOL     OW74983   5.399   4.825   3.632
91070SOL    HW174984   5.428   4.788   3.715
91070SOL    HW274985   5.341   4.758   3.595
91071SOL     OW74986   3.403   4.238   3.355
91071SOL    HW174987   3.332   4.213   3.297
91071SOL    HW274988   3.433   4.323   3.322
91072SOL     OW74989   3.229   3.391   3.380
91072SOL    HW174990   3.138   3.381   3.407
91072SOL    HW274991   3.227   3.464   3.317
91073SOL     OW74992   3.230   5.359  12.084
91073SOL    HW174993   3.209   5.447  12.051
91073SOL    HW274994   3.263   5.312  12.007
91074SOL     OW74995   2.144   8.692   4.553
91074SOL    HW174996   2.175   8.748   4.482
91074SOL    HW274997   2.217   8.632   4.569
91075SOL     OW74998   7.247   6.648   4.212
91075SOL    HW174999   7.161   6.682   4.238
91075SOL    HW275000   7.227   6.566   4.168
91076SOL     OW75001  13.431   3.469   6.293
91076SOL    HW175002  13.482   3.550   6.292
91076SOL    HW275003  13.387   3.467   6.207
91077SOL     OW75004   5.662   7.607   6.625
91077SOL    HW175005   5.696   7.566   6.705
91077SOL    HW275006   5.715   7.686   6.615
91078SOL     OW75007   9.139  10.072   6.457
91078SOL    HW175008   9.218  10.044   6.411
91078SOL    HW275009   9.081  10.104   6.387
91079SOL     OW75010  11.502   9.874   4.702
91079SOL    HW175011  11.576   9.814   4.690
91079SOL    HW275012  11.435   9.820   4.745
91080SOL     OW75013  12.415   2.828  10.045
91080SOL    HW175014  12.481   2.844  10.112
91080SOL    HW275015  12.353   2.768  10.086
91081SOL     OW75016  10.184   6.963   0.488
91081SOL    HW175017  10.119   6.939   0.422
91081SOL    HW275018  10.138   7.025   0.545
91082SOL     OW75019   9.958   2.321  14.677
91082SOL    HW175020   9.864   2.318  14.697
91082SOL    HW275021   9.973   2.410  14.644
91083SOL     OW75022   2.732   4.298   2.595
91083SOL    HW175023   2.813   4.347   2.580
91083SOL    HW275024   2.692   4.342   2.670
91084SOL     OW75025  10.057   6.141  11.932
91084SOL    HW175026   9.965   6.134  11.960
91084SOL    HW275027  10.057   6.214  11.869
91085SOL     OW75028   5.851  12.832   1.202
91085SOL    HW175029   5.774  12.777   1.188
91085SOL    HW275030   5.819  12.922   1.193
91086SOL     OW75031   6.305   5.730   6.657
91086SOL    HW175032   6.299   5.689   6.744
91086SOL    HW275033   6.399   5.728   6.636
91087SOL     OW75034   1.113  14.835   2.332
91087SOL    HW175035   1.204  14.829   2.305
91087SOL    HW275036   1.088  14.745   2.352
91088SOL     OW75037  10.010  10.235   0.008
91088SOL    HW175038  10.101  10.256   0.032
91088SOL    HW275039  10.009  10.140  14.877
91089SOL     OW75040  10.186   8.173   9.614
91089SOL    HW175041  10.141   8.176   9.529
91089SOL    HW275042  10.229   8.258   9.622
91090SOL     OW75043   9.742   9.267   3.794
91090SOL    HW175044   9.737   9.340   3.856
91090SOL    HW275045   9.745   9.189   3.849
91091SOL     OW75046   4.736  11.515   6.456
91091SOL    HW175047   4.731  11.424   6.426
91091SOL    HW275048   4.789  11.512   6.535
91092SOL     OW75049  10.067   3.056   3.164
91092SOL    HW175050  10.053   3.104   3.246
91092SOL    HW275051  10.107   3.121   3.105
91093SOL     OW75052   0.975   7.144   1.377
91093SOL    HW175053   0.920   7.112   1.449
91093SOL    HW275054   1.064   7.120   1.403
91094SOL     OW75055   6.870   9.448  13.878
91094SOL    HW175056   6.954   9.416  13.912
91094SOL    HW275057   6.877   9.544  13.883
91095SOL     OW75058   3.212   0.457   6.327
91095SOL    HW175059   3.185   0.420   6.243
91095SOL    HW275060   3.271   0.529   6.303
91096SOL     OW75061   6.870   9.917  10.465
91096SOL    HW175062   6.932   9.846  10.482
91096SOL    HW275063   6.801   9.876  10.413
91097SOL     OW75064  10.126  11.307  10.146
91097SOL    HW175065  10.148  11.372  10.212
91097SOL    HW275066  10.197  11.244  10.149
91098SOL     OW75067  14.845   9.029   7.564
91098SOL    HW175068  14.848   9.068   7.477
91098SOL    HW275069  14.753   9.009   7.578
91099SOL     OW75070   1.053  14.116   5.264
91099SOL    HW175071   1.026  14.028   5.289
91099SOL    HW275072   0.971  14.165   5.255
91100SOL     OW75073  12.348   2.882   9.228
91100SOL    HW175074  12.318   2.809   9.174
91100SOL    HW275075  12.332   2.854   9.318
91101SOL     OW75076   1.470  12.615   3.438
91101SOL    HW175077   1.395  12.649   3.390
91101SOL    HW275078   1.466  12.520   3.423
91102SOL     OW75079  12.860  12.287   0.738
91102SOL    HW175080  12.906  12.351   0.792
91102SOL    HW275081  12.767  12.307   0.752
91103SOL     OW75082  13.716  10.549  13.539
91103SOL    HW175083  13.741  10.635  13.506
91103SOL    HW275084  13.787  10.491  13.511
91104SOL     OW75085  11.827   5.389   2.806
91104SOL    HW175086  11.845   5.335   2.730
91104SOL    HW275087  11.913   5.418   2.837
91105SOL     OW75088   1.898  14.724  12.071
91105SOL    HW175089   1.982  14.678  12.082
91105SOL    HW275090   1.877  14.712  11.978
91106SOL     OW75091  13.723   2.959   7.322
91106SOL    HW175092  13.684   2.954   7.409
91106SOL    HW275093  13.705   3.049   7.293
91107SOL     OW75094   7.402   7.386   6.645
91107SOL    HW175095   7.431   7.309   6.597
91107SOL    HW275096   7.480   7.441   6.653
91108SOL     OW75097   0.263  13.661  10.926
91108SOL    HW175098   0.178  13.623  10.903
91108SOL    HW275099   0.269  13.740  10.871
91109SOL     OW75100   7.771   2.372   0.092
91109SOL    HW175101   7.860   2.400   0.071
91109SOL    HW275102   7.749   2.420   0.172
91110SOL     OW75103   9.349   0.511   3.530
91110SOL    HW175104   9.429   0.463   3.552
91110SOL    HW275105   9.322   0.551   3.613
91111SOL     OW75106   8.361   6.983   1.261
91111SOL    HW175107   8.317   6.928   1.326
91111SOL    HW275108   8.428   6.927   1.223
91112SOL     OW75109  11.077  13.862   1.152
91112SOL    HW175110  11.120  13.797   1.097
91112SOL    HW275111  11.016  13.907   1.092
91113SOL     OW75112   9.902   4.386   2.803
91113SOL    HW175113   9.908   4.320   2.872
91113SOL    HW275114   9.874   4.339   2.725
91114SOL     OW75115  12.835   3.623  12.266
91114SOL    HW175116  12.782   3.628  12.346
91114SOL    HW275117  12.925   3.614  12.298
91115SOL     OW75118   5.147   6.704  11.075
91115SOL    HW175119   5.057   6.736  11.073
91115SOL    HW275120   5.201   6.781  11.055
91116SOL     OW75121   7.198   9.721   9.143
91116SOL    HW175122   7.257   9.704   9.069
91116SOL    HW275123   7.141   9.792   9.112
91117SOL     OW75124   4.122   0.980   0.877
91117SOL    HW175125   4.038   1.021   0.899
91117SOL    HW275126   4.186   1.028   0.930
91118SOL     OW75127  10.251   3.193   3.054
91118SOL    HW175128  10.321   3.238   3.007
91118SOL    HW275129  10.297   3.133   3.114
91119SOL     OW75130  14.307   2.339  10.154
91119SOL    HW175131  14.338   2.304  10.237
91119SOL    HW275132  14.240   2.403  10.178
91120SOL     OW75133  13.820   8.995   0.857
91120SOL    HW175134  13.809   8.906   0.891
91120SOL    HW275135  13.734   9.035   0.866
91121SOL     OW75136   6.628  11.120  11.066
91121SOL    HW175137   6.548  11.154  11.024
91121SOL    HW275138   6.688  11.195  11.066
91122SOL     OW75139  13.010   1.550  13.701
91122SOL    HW175140  13.101   1.534  13.680
91122SOL    HW275141  12.993   1.497  13.779
91123SOL     OW75142   9.573   7.620   9.865
91123SOL    HW175143   9.638   7.688   9.846
91123SOL    HW275144   9.507   7.665   9.917
91124SOL     OW75145  12.747   0.702   1.857
91124SOL    HW175146  12.836   0.735   1.861
91124SOL    HW275147  12.745   0.647   1.779
91125SOL     OW75148  12.099   3.924  10.486
91125SOL    HW175149  12.027   3.909  10.547
91125SOL    HW275150  12.089   4.015  10.458
91126SOL     OW75151  12.829  12.014   0.827
91126SOL    HW175152  12.766  12.041   0.894
91126SOL    HW275153  12.848  12.093   0.777
91127SOL     OW75154  14.446   7.456   7.217
91127SOL    HW175155  14.508   7.439   7.147
91127SOL    HW275156  14.467   7.391   7.285
91128SOL     OW75157  13.195  14.202   8.323
91128SOL    HW175158  13.204  14.230   8.232
91128SOL    HW275159  13.123  14.254   8.358
91129SOL     OW75160   7.353  13.476   5.612
91129SOL    HW175161   7.384  13.505   5.526
91129SOL    HW275162   7.261  13.455   5.599
91130SOL     OW75163   2.016   7.544  13.947
91130SOL    HW175164   1.948   7.552  13.881
91130SOL    HW275165   2.006   7.456  13.982
91131SOL     OW75166  11.205   5.458   1.773
91131SOL    HW175167  11.206   5.459   1.868
91131SOL    HW275168  11.284   5.506   1.747
91132SOL     OW75169  13.669   0.660  14.258
91132SOL    HW175170  13.590   0.696  14.297
91132SOL    HW275171  13.733   0.659  14.330
91133SOL     OW75172   4.120  11.254   9.342
91133SOL    HW175173   4.081  11.323   9.288
91133SOL    HW275174   4.105  11.174   9.292
91134SOL     OW75175   4.513   2.807   2.157
91134SOL    HW175176   4.606   2.828   2.146
91134SOL    HW275177   4.507   2.714   2.134
91135SOL     OW75178   5.428   6.473   4.202
91135SOL    HW175179   5.423   6.429   4.117
91135SOL    HW275180   5.501   6.534   4.194
91136SOL     OW75181  12.345  13.111   1.255
91136SOL    HW175182  12.419  13.151   1.209
91136SOL    HW275183  12.325  13.172   1.325
91137SOL     OW75184  13.065   6.562  13.518
91137SOL    HW175185  13.086   6.502  13.589
91137SOL    HW275186  13.145   6.614  13.506
91138SOL     OW75187   1.741   2.481   3.357
91138SOL    HW175188   1.663   2.440   3.320
91138SOL    HW275189   1.814   2.430   3.323
91139SOL     OW75190  11.541   6.713   3.143
91139SOL    HW175191  11.513   6.788   3.195
91139SOL    HW275192  11.573   6.751   3.062
91140SOL     OW75193   7.560  12.673   5.664
91140SOL    HW175194   7.501  12.733   5.618
91140SOL    HW275195   7.518  12.658   5.749
91141SOL     OW75196   2.800  11.090  10.737
91141SOL    HW175197   2.777  11.152  10.668
91141SOL    HW275198   2.719  11.042  10.755
91142SOL     OW75199  14.755   7.442   7.298
91142SOL    HW175200  14.716   7.384   7.232
91142SOL    HW275201  14.847   7.447   7.275
91143SOL     OW75202  10.545   1.937   6.613
91143SOL    HW175203  10.498   1.868   6.659
91143SOL    HW275204  10.599   1.979   6.680
91144SOL     OW75205   4.038  12.375   2.083
91144SOL    HW175206   3.964  12.402   2.028
91144SOL    HW275207   4.003  12.379   2.172
91145SOL     OW75208   6.702   1.419   1.247
91145SOL    HW175209   6.663   1.358   1.184
91145SOL    HW275210   6.648   1.410   1.325
91146SOL     OW75211   3.139   5.537   2.876
91146SOL    HW175212   3.087   5.461   2.850
91146SOL    HW275213   3.096   5.571   2.955
91147SOL     OW75214  14.374  12.614   7.567
91147SOL    HW175215  14.319  12.635   7.492
91147SOL    HW275216  14.420  12.534   7.541
91148SOL     OW75217   2.337   8.970   7.142
91148SOL    HW175218   2.275   8.957   7.214
91148SOL    HW275219   2.423   8.967   7.185
91149SOL     OW75220   3.415   7.517   5.369
91149SOL    HW175221   3.411   7.503   5.464
91149SOL    HW275222   3.489   7.577   5.357
91150SOL     OW75223   2.157   8.089  14.562
91150SOL    HW175224   2.082   8.031  14.547
91150SOL    HW275225   2.210   8.043  14.627
91151SOL     OW75226  13.549   4.207  11.636
91151SOL    HW175227  13.624   4.237  11.584
91151SOL    HW275228  13.580   4.128  11.680
91152SOL     OW75229   1.237   3.442   0.165
91152SOL    HW175230   1.243   3.363   0.112
91152SOL    HW275231   1.326   3.455   0.199
91153SOL     OW75232  14.140   2.725  13.848
91153SOL    HW175233  14.101   2.780  13.916
91153SOL    HW275234  14.152   2.640  13.891
91154SOL     OW75235   1.594  11.465   8.483
91154SOL    HW175236   1.649  11.404   8.435
91154SOL    HW275237   1.556  11.521   8.415
91155SOL     OW75238   0.279   6.841   4.017
91155SOL    HW175239   0.355   6.811   4.067
91155SOL    HW275240   0.317   6.894   3.946
91156SOL     OW75241  10.065   2.959   9.937
91156SOL    HW175242  10.065   3.050   9.968
91156SOL    HW275243  10.022   2.962   9.852
91157SOL     OW75244  11.039   8.569  10.730
91157SOL    HW175245  11.096   8.646  10.734
91157SOL    HW275246  11.031   8.540  10.821
91158SOL     OW75247   1.834   4.997  12.723
91158SOL    HW175248   1.862   4.924  12.667
91158SOL    HW275249   1.775   5.048  12.668
91159SOL     OW75250   8.196   8.961   6.842
91159SOL    HW175251   8.246   8.985   6.920
91159SOL    HW275252   8.105   8.961   6.872
91160SOL     OW75253   5.077  12.955   8.158
91160SOL    HW175254   5.131  13.020   8.203
91160SOL    HW275255   5.058  12.994   8.073
91161SOL     OW75256   6.789   8.106   2.736
91161SOL    HW175257   6.727   8.173   2.763
91161SOL    HW275258   6.782   8.037   2.802
91162SOL     OW75259  12.379   2.115   4.090
91162SOL    HW175260  12.434   2.186   4.058
91162SOL    HW275261  12.290   2.143   4.072
91163SOL     OW75262   6.012  10.157  12.806
91163SOL    HW175263   6.064  10.082  12.777
91163SOL    HW275264   5.923  10.138  12.776
91164SOL     OW75265   9.732   5.581   8.752
91164SOL    HW175266   9.771   5.651   8.804
91164SOL    HW275267   9.679   5.626   8.686
91165SOL     OW75268   0.602  11.784   8.170
91165SOL    HW175269   0.695  11.805   8.170
91165SOL    HW275270   0.590  11.725   8.096
91166SOL     OW75271  10.677   8.545   1.099
91166SOL    HW175272  10.666   8.450   1.092
91166SOL    HW275273  10.666   8.577   1.010
91167SOL     OW75274   7.872   0.735   7.822
91167SOL    HW175275   7.946   0.756   7.765
91167SOL    HW275276   7.897   0.771   7.908
91168SOL     OW75277   6.795   6.481   7.301
91168SOL    HW175278   6.886   6.499   7.325
91168SOL    HW275279   6.799   6.458   7.208
91169SOL     OW75280   5.339   5.724   4.713
91169SOL    HW175281   5.289   5.646   4.691
91169SOL    HW275282   5.325   5.784   4.640
91170SOL     OW75283   7.448   7.401   5.089
91170SOL    HW175284   7.507   7.434   5.156
91170SOL    HW275285   7.499   7.405   5.008
91171SOL     OW75286   0.486  12.702   6.316
91171SOL    HW175287   0.471  12.784   6.268
91171SOL    HW275288   0.555  12.658   6.268
91172SOL     OW75289   9.294   2.799  10.920
91172SOL    HW175290   9.224   2.751  10.876
91172SOL    HW275291   9.330   2.856  10.852
91173SOL     OW75292  14.865  11.809   8.024
91173SOL    HW175293   0.083  11.798   8.023
91173SOL    HW275294  14.832  11.731   8.069
91174SOL     OW75295  11.682  13.691  13.509
91174SOL    HW175296  11.664  13.754  13.579
91174SOL    HW275297  11.666  13.605  13.548
91175SOL     OW75298   2.377  13.762   9.149
91175SOL    HW175299   2.293  13.808   9.154
91175SOL    HW275300   2.438  13.827   9.114
91176SOL     OW75301   1.446   0.553   5.988
91176SOL    HW175302   1.386   0.609   5.938
91176SOL    HW275303   1.515   0.531   5.926
91177SOL     OW75304   6.670  10.336   4.944
91177SOL    HW175305   6.654  10.390   5.022
91177SOL    HW275306   6.759  10.303   4.956
91178SOL     OW75307  11.130  12.015  13.124
91178SOL    HW175308  11.146  12.069  13.202
91178SOL    HW275309  11.103  11.930  13.160
91179SOL     OW75310  11.026   6.159   8.935
91179SOL    HW175311  11.042   6.148   9.029
91179SOL    HW275312  10.938   6.197   8.930
91180SOL     OW75313   9.970   1.333   5.708
91180SOL    HW175314  10.028   1.263   5.677
91180SOL    HW275315   9.948   1.308   5.798
91181SOL     OW75316   7.036   8.315   8.515
91181SOL    HW175317   7.077   8.377   8.455
91181SOL    HW275318   7.108   8.286   8.572
91182SOL     OW75319  11.963   7.901   9.041
91182SOL    HW175320  11.918   7.824   9.076
91182SOL    HW275321  11.950   7.896   8.947
91183SOL     OW75322  14.455   8.462  14.867
91183SOL    HW175323  14.372   8.444   0.035
91183SOL    HW275324  14.510   8.503   0.056
91184SOL     OW75325   2.502   1.004   3.826
91184SOL    HW175326   2.502   0.935   3.759
91184SOL    HW275327   2.449   0.968   3.897
91185SOL     OW75328  10.289  13.481  12.369
91185SOL    HW175329  10.311  13.472  12.276
91185SOL    HW275330  10.374  13.482  12.413
91186SOL     OW75331  11.870   7.646   2.189
91186SOL    HW175332  11.837   7.731   2.220
91186SOL    HW275333  11.805   7.583   2.219
91187SOL     OW75334  10.932   2.739   2.200
91187SOL    HW175335  11.005   2.723   2.141
91187SOL    HW275336  10.857   2.755   2.142
91188SOL     OW75337   4.596   5.424  14.765
91188SOL    HW175338   4.660   5.354  14.779
91188SOL    HW275339   4.590   5.468  14.850
91189SOL     OW75340   9.784  11.813  10.153
91189SOL    HW175341   9.764  11.895  10.200
91189SOL    HW275342   9.823  11.842  10.070
91190SOL     OW75343  13.465   7.084  12.947
91190SOL    HW175344  13.462   7.009  12.887
91190SOL    HW275345  13.380   7.083  12.991
91191SOL     OW75346   3.672   7.972   1.577
91191SOL    HW175347   3.721   7.940   1.501
91191SOL    HW275348   3.704   8.061   1.590
91192SOL     OW75349   4.909  11.814   7.216
91192SOL    HW175350   4.853  11.879   7.174
91192SOL    HW275351   4.989  11.861   7.236
91193SOL     OW75352   2.479   1.898  13.858
91193SOL    HW175353   2.492   1.982  13.901
91193SOL    HW275354   2.384   1.892  13.845
91194SOL     OW75355   9.918   6.277  13.864
91194SOL    HW175356   9.946   6.369  13.868
91194SOL    HW275357   9.824   6.281  13.844
91195SOL     OW75358   6.770   8.465   0.992
91195SOL    HW175359   6.828   8.396   1.023
91195SOL    HW275360   6.791   8.541   1.048
91196SOL     OW75361   7.792   4.106   0.836
91196SOL    HW175362   7.744   4.071   0.911
91196SOL    HW275363   7.854   4.037   0.812
91197SOL     OW75364   6.392  14.341   0.638
91197SOL    HW175365   6.314  14.286   0.644
91197SOL    HW275366   6.381  14.390   0.557
91198SOL     OW75367  14.564  14.785   0.727
91198SOL    HW175368  14.544  14.743   0.810
91198SOL    HW275369  14.555   0.001   0.743
91199SOL     OW75370   3.500  10.106   6.388
91199SOL    HW175371   3.409  10.091   6.363
91199SOL    HW275372   3.546  10.025   6.362
91200SOL     OW75373  12.604   8.359   7.745
91200SOL    HW175374  12.596   8.421   7.817
91200SOL    HW275375  12.695   8.368   7.715
91201SOL     OW75376   8.432   9.759   5.045
91201SOL    HW175377   8.476   9.786   4.965
91201SOL    HW275378   8.419   9.665   5.034
91202SOL     OW75379   9.279   3.304   4.210
91202SOL    HW175380   9.244   3.331   4.295
91202SOL    HW275381   9.295   3.210   4.219
91203SOL     OW75382  13.396   3.521   6.013
91203SOL    HW175383  13.422   3.430   6.007
91203SOL    HW275384  13.475   3.570   5.992
91204SOL     OW75385   4.044   5.353  13.462
91204SOL    HW175386   4.017   5.293  13.392
91204SOL    HW275387   4.090   5.423  13.416
91205SOL     OW75388   8.156   9.573   5.678
91205SOL    HW175389   8.092   9.564   5.749
91205SOL    HW275390   8.148   9.491   5.628
91206SOL     OW75391   8.390   1.076  10.110
91206SOL    HW175392   8.463   1.043  10.058
91206SOL    HW275393   8.402   1.171  10.110
91207SOL     OW75394  11.779   9.068   5.760
91207SOL    HW175395  11.721   9.115   5.820
91207SOL    HW275396  11.719   9.026   5.698
91208SOL     OW75397   4.848  11.243   3.549
91208SOL    HW175398   4.930  11.289   3.564
91208SOL    HW275399   4.814  11.224   3.636
91209SOL     OW75400  13.324   8.584   1.129
91209SOL    HW175401  13.233   8.553   1.129
91209SOL    HW275402  13.371   8.520   1.075
91210SOL     OW75403  12.272   6.866   0.808
91210SOL    HW175404  12.189   6.911   0.825
91210SOL    HW275405  12.270   6.790   0.866
91211SOL     OW75406   2.564  10.225   2.220
91211SOL    HW175407   2.470  10.231   2.202
91211SOL    HW275408   2.595  10.155   2.163
91212SOL     OW75409   7.785   9.692  14.286
91212SOL    HW175410   7.832   9.614  14.316
91212SOL    HW275411   7.804   9.759  14.353
91213SOL     OW75412   9.832  13.613   0.459
91213SOL    HW175413   9.887  13.612   0.380
91213SOL    HW275414   9.788  13.528   0.458
91214SOL     OW75415  14.873   7.156   5.919
91214SOL    HW175416   0.018   7.143   5.826
91214SOL    HW275417  14.863   7.251   5.928
91215SOL     OW75418  10.224   0.396   7.715
91215SOL    HW175419  10.259   0.477   7.752
91215SOL    HW275420  10.214   0.414   7.622
91216SOL     OW75421   7.126   3.417  13.085
91216SOL    HW175422   7.133   3.512  13.096
91216SOL    HW275423   7.032   3.401  13.075
91217SOL     OW75424  13.757   1.039  10.986
91217SOL    HW175425  13.744   1.019  11.079
91217SOL    HW275426  13.832   1.099  10.985
91218SOL     OW75427  11.620   2.002   3.645
91218SOL    HW175428  11.581   2.089   3.656
91218SOL    HW275429  11.714   2.019   3.635
91219SOL     OW75430   1.098   6.244   1.806
91219SOL    HW175431   1.088   6.193   1.886
91219SOL    HW275432   1.157   6.316   1.831
91220SOL     OW75433   7.079   7.771   9.800
91220SOL    HW175434   7.146   7.744   9.736
91220SOL    HW275435   7.114   7.743   9.884
91221SOL     OW75436  14.562   9.982   8.103
91221SOL    HW175437  14.479   9.938   8.082
91221SOL    HW275438  14.618   9.965   8.027
91222SOL     OW75439   4.407   7.441  11.620
91222SOL    HW175440   4.329   7.406  11.577
91222SOL    HW275441   4.477   7.381  11.595
91223SOL     OW75442  14.816   8.047   6.283
91223SOL    HW175443  14.867   8.043   6.202
91223SOL    HW275444  14.820   8.138   6.310
91224SOL     OW75445   7.499  12.012  11.981
91224SOL    HW175446   7.546  12.032  12.062
91224SOL    HW275447   7.473  12.098  11.947
91225SOL     OW75448   8.759   2.198   8.079
91225SOL    HW175449   8.668   2.169   8.085
91225SOL    HW275450   8.788   2.167   7.993
91226SOL     OW75451   4.964  14.374   4.642
91226SOL    HW175452   4.979  14.280   4.658
91226SOL    HW275453   4.922  14.405   4.722
91227SOL     OW75454  13.521   3.048   3.967
91227SOL    HW175455  13.541   3.084   3.881
91227SOL    HW275456  13.429   3.070   3.982
91228SOL     OW75457   0.822  14.613   8.641
91228SOL    HW175458   0.764  14.660   8.701
91228SOL    HW275459   0.790  14.522   8.643
91229SOL     OW75460   9.643   2.724  12.730
91229SOL    HW175461   9.589   2.675  12.667
91229SOL    HW275462   9.700   2.657  12.769
91230SOL     OW75463   5.373   4.774   0.522
91230SOL    HW175464   5.464   4.743   0.518
91230SOL    HW275465   5.323   4.697   0.548
91231SOL     OW75466  14.116  13.394  11.522
91231SOL    HW175467  14.136  13.443  11.442
91231SOL    HW275468  14.119  13.460  11.592
91232SOL     OW75469   3.626   1.684  14.081
91232SOL    HW175470   3.604   1.643  14.164
91232SOL    HW275471   3.686   1.754  14.103
91233SOL     OW75472   7.089   4.829   2.290
91233SOL    HW175473   7.156   4.823   2.222
91233SOL    HW275474   7.131   4.875   2.362
91234SOL     OW75475   5.648   3.485  11.361
91234SOL    HW175476   5.735   3.485  11.401
91234SOL    HW275477   5.597   3.423  11.413
91235SOL     OW75478   0.754   1.020   1.749
91235SOL    HW175479   0.663   1.027   1.775
91235SOL    HW275480   0.776   1.104   1.711
91236SOL     OW75481  12.664   2.015  13.628
91236SOL    HW175482  12.709   1.975  13.553
91236SOL    HW275483  12.603   1.947  13.658
91237SOL     OW75484   8.526  13.849   4.875
91237SOL    HW175485   8.562  13.932   4.907
91237SOL    HW275486   8.541  13.787   4.947
91238SOL     OW75487   7.859   1.364   3.637
91238SOL    HW175488   7.892   1.348   3.549
91238SOL    HW275489   7.912   1.438   3.669
91239SOL     OW75490   7.135   8.600   6.697
91239SOL    HW175491   7.108   8.527   6.641
91239SOL    HW275492   7.230   8.591   6.704
91240SOL     OW75493  13.765   0.341   0.209
91240SOL    HW175494  13.821   0.341   0.132
91240SOL    HW275495  13.818   0.301   0.277
91241SOL     OW75496   0.135  12.791  11.861
91241SOL    HW175497   0.076  12.821  11.929
91241SOL    HW275498   0.121  12.696  11.857
91242SOL     OW75499  14.872   3.848   3.903
91242SOL    HW175500   0.038   3.929   3.929
91242SOL    HW275501  14.835   3.814   3.984
91243SOL     OW75502   2.580  10.587  10.058
91243SOL    HW175503   2.655  10.639  10.029
91243SOL    HW275504   2.533  10.565   9.978
91244SOL     OW75505   6.754   4.391  11.920
91244SOL    HW175506   6.664   4.378  11.951
91244SOL    HW275507   6.744   4.421  11.830
91245SOL     OW75508   0.453  12.812   2.305
91245SOL    HW175509   0.401  12.862   2.367
91245SOL    HW275510   0.510  12.877   2.263
91246SOL     OW75511   0.332   4.257   7.363
91246SOL    HW175512   0.322   4.302   7.278
91246SOL    HW275513   0.330   4.328   7.427
91247SOL     OW75514   3.680  11.807   2.775
91247SOL    HW175515   3.773  11.827   2.789
91247SOL    HW275516   3.670  11.717   2.807
91248SOL     OW75517   0.501   4.300   1.369
91248SOL    HW175518   0.560   4.275   1.299
91248SOL    HW275519   0.556   4.307   1.446
91249SOL     OW75520   4.996   4.848   1.045
91249SOL    HW175521   4.944   4.906   0.989
91249SOL    HW275522   5.045   4.793   0.984
91250SOL     OW75523   6.774  13.228  14.108
91250SOL    HW175524   6.835  13.170  14.062
91250SOL    HW275525   6.756  13.183  14.191
91251SOL     OW75526   0.903   9.650   2.996
91251SOL    HW175527   0.837   9.613   2.938
91251SOL    HW275528   0.969   9.581   3.004
91252SOL     OW75529  11.181   4.086   5.856
91252SOL    HW175530  11.209   4.134   5.935
91252SOL    HW275531  11.229   4.003   5.861
91253SOL     OW75532   6.813  13.631  11.087
91253SOL    HW175533   6.850  13.565  11.028
91253SOL    HW275534   6.810  13.711  11.035
91254SOL     OW75535   1.706   1.744   6.923
91254SOL    HW175536   1.722   1.750   6.829
91254SOL    HW275537   1.791   1.720   6.960
91255SOL     OW75538   7.682  11.805  13.684
91255SOL    HW175539   7.741  11.790  13.757
91255SOL    HW275540   7.737  11.840  13.614
91256SOL     OW75541   8.057  13.298   9.358
91256SOL    HW175542   7.976  13.341   9.332
91256SOL    HW275543   8.106  13.366   9.404
91257SOL     OW75544   8.692   5.082   8.669
91257SOL    HW175545   8.684   5.000   8.718
91257SOL    HW275546   8.774   5.121   8.701
91258SOL     OW75547  13.398   1.677  13.905
91258SOL    HW175548  13.492   1.671  13.923
91258SOL    HW275549  13.368   1.587  13.900
91259SOL     OW75550   4.556   5.704   8.106
91259SOL    HW175551   4.646   5.736   8.104
91259SOL    HW275552   4.512   5.760   8.170
91260SOL     OW75553   6.207   4.001  13.610
91260SOL    HW175554   6.189   3.942  13.537
91260SOL    HW275555   6.203   3.945  13.687
91261SOL     OW75556  14.876   0.100   2.329
91261SOL    HW175557  14.792   0.141   2.305
91261SOL    HW275558  14.851   0.016   2.367
91262SOL     OW75559  12.790   7.299   3.722
91262SOL    HW175560  12.718   7.341   3.770
91262SOL    HW275561  12.797   7.212   3.761
91263SOL     OW75562   5.405  10.355   6.186
91263SOL    HW175563   5.382  10.316   6.102
91263SOL    HW275564   5.376  10.446   6.179
91264SOL     OW75565   6.811   3.412   9.457
91264SOL    HW175566   6.877   3.434   9.392
91264SOL    HW275567   6.807   3.316   9.457
91265SOL     OW75568   4.988  13.551   5.057
91265SOL    HW175569   4.997  13.630   5.004
91265SOL    HW275570   5.067  13.548   5.111
91266SOL     OW75571  10.701  10.989   3.652
91266SOL    HW175572  10.621  10.960   3.609
91266SOL    HW275573  10.690  11.083   3.663
91267SOL     OW75574   0.046   8.667   0.918
91267SOL    HW175575   0.016   8.704   1.001
91267SOL    HW275576   0.008   8.579   0.915
91268SOL     OW75577   9.831  13.135   3.034
91268SOL    HW175578   9.847  13.184   3.114
91268SOL    HW275579   9.839  13.199   2.964
91269SOL     OW75580  12.102   2.693   1.311
91269SOL    HW175581  12.052   2.649   1.242
91269SOL    HW275582  12.184   2.720   1.268
91270SOL     OW75583   8.780  11.362   4.734
91270SOL    HW175584   8.829  11.280   4.742
91270SOL    HW275585   8.731  11.352   4.652
91271SOL     OW75586   3.123   5.387  11.160
91271SOL    HW175587   3.038   5.430  11.166
91271SOL    HW275588   3.103   5.294  11.150
91272SOL     OW75589  12.072   6.046  14.058
91272SOL    HW175590  12.167   6.057  14.052
91272SOL    HW275591  12.061   5.976  14.122
91273SOL     OW75592   5.936  14.342   2.109
91273SOL    HW175593   5.917  14.405   2.178
91273SOL    HW275594   5.877  14.268   2.126
91274SOL     OW75595   4.297   2.385   7.803
91274SOL    HW175596   4.340   2.305   7.774
91274SOL    HW275597   4.247   2.414   7.726
91275SOL     OW75598   7.271   9.168   7.581
91275SOL    HW175599   7.258   9.075   7.560
91275SOL    HW275600   7.352   9.191   7.535
91276SOL     OW75601   9.811  10.785  10.623
91276SOL    HW175602   9.745  10.727  10.586
91276SOL    HW275603   9.762  10.862  10.652
91277SOL     OW75604   0.132   7.580   5.576
91277SOL    HW175605   0.042   7.606   5.559
91277SOL    HW275606   0.132   7.485   5.566
91278SOL     OW75607   1.468  10.926  12.330
91278SOL    HW175608   1.456  10.887  12.244
91278SOL    HW275609   1.446  10.856  12.392
91279SOL     OW75610  11.476   4.759   2.253
91279SOL    HW175611  11.510   4.847   2.235
91279SOL    HW275612  11.416   4.742   2.181
91280SOL     OW75613  11.315   0.197   4.442
91280SOL    HW175614  11.259   0.121   4.425
91280SOL    HW275615  11.282   0.234   4.523
91281SOL     OW75616   7.681   6.447   6.270
91281SOL    HW175617   7.748   6.379   6.255
91281SOL    HW275618   7.725   6.512   6.325
91282SOL     OW75619   4.863   0.750  10.865
91282SOL    HW175620   4.811   0.706  10.932
91282SOL    HW275621   4.951   0.713  10.875
91283SOL     OW75622  14.517   4.399   9.745
91283SOL    HW175623  14.547   4.316   9.782
91283SOL    HW275624  14.440   4.423   9.798
91284SOL     OW75625   1.500   1.638   8.450
91284SOL    HW175626   1.572   1.580   8.475
91284SOL    HW275627   1.456   1.592   8.378
91285SOL     OW75628   9.935   1.953   7.049
91285SOL    HW175629  10.029   1.966   7.059
91285SOL    HW275630   9.927   1.882   6.986
91286SOL     OW75631   9.767   1.795   7.474
91286SOL    HW175632   9.727   1.815   7.559
91286SOL    HW275633   9.842   1.739   7.495
91287SOL     OW75634   1.885   2.751   2.400
91287SOL    HW175635   1.838   2.826   2.364
91287SOL    HW275636   1.825   2.715   2.466
91288SOL     OW75637   0.075   5.693   2.731
91288SOL    HW175638   0.117   5.608   2.714
91288SOL    HW275639   0.078   5.702   2.826
91289SOL     OW75640  13.574   4.322   1.844
91289SOL    HW175641  13.570   4.349   1.753
91289SOL    HW275642  13.639   4.252   1.846
91290SOL     OW75643   4.403   5.086  14.686
91290SOL    HW175644   4.498   5.073  14.692
91290SOL    HW275645   4.392   5.181  14.680
91291SOL     OW75646   8.573  10.444   0.046
91291SOL    HW175647   8.615  10.404  14.847
91291SOL    HW275648   8.641  10.443   0.113
91292SOL     OW75649   1.588   7.855   2.797
91292SOL    HW175650   1.652   7.884   2.862
91292SOL    HW275651   1.504   7.856   2.843
91293SOL     OW75652   0.933   8.624   6.272
91293SOL    HW175653   0.999   8.571   6.316
91293SOL    HW275654   0.983   8.687   6.220
91294SOL     OW75655   2.898   6.380  11.954
91294SOL    HW175656   2.948   6.425  11.886
91294SOL    HW275657   2.808   6.381  11.923
91295SOL     OW75658   8.515   1.374   6.332
91295SOL    HW175659   8.583   1.341   6.390
91295SOL    HW275660   8.563   1.416   6.261
91296SOL     OW75661   5.062  14.489  13.423
91296SOL    HW175662   5.060  14.396  13.448
91296SOL    HW275663   4.971  14.512  13.408
91297SOL     OW75664   7.750   5.052  14.637
91297SOL    HW175665   7.707   5.054  14.552
91297SOL    HW275666   7.835   5.013  14.620
91298SOL     OW75667  14.711   7.673   8.342
91298SOL    HW175668  14.683   7.631   8.424
91298SOL    HW275669  14.805   7.655   8.337
91299SOL     OW75670   9.124  13.428   4.114
91299SOL    HW175671   9.139  13.480   4.035
91299SOL    HW275672   9.192  13.361   4.113
91300SOL     OW75673   1.916   5.406  12.514
91300SOL    HW175674   1.921   5.313  12.492
91300SOL    HW275675   1.999   5.442  12.483
91301SOL     OW75676  12.187   2.737  14.764
91301SOL    HW175677  12.280   2.757  14.758
91301SOL    HW275678  12.143   2.815  14.730
91302SOL     OW75679  10.408   6.186  11.743
91302SOL    HW175680  10.367   6.271  11.725
91302SOL    HW275681  10.364   6.154  11.822
91303SOL     OW75682   6.557  10.022   6.836
91303SOL    HW175683   6.610   9.966   6.893
91303SOL    HW275684   6.609  10.030   6.756
91304SOL     OW75685  14.001   9.147  10.616
91304SOL    HW175686  13.929   9.138  10.554
91304SOL    HW275687  14.031   9.057  10.632
91305SOL     OW75688   1.440  11.539   1.049
91305SOL    HW175689   1.506  11.511   0.985
91305SOL    HW275690   1.380  11.465   1.054
91306SOL     OW75691  13.361  13.424   0.679
91306SOL    HW175692  13.400  13.355   0.732
91306SOL    HW275693  13.272  13.393   0.661
91307SOL     OW75694   6.086   7.315   5.095
91307SOL    HW175695   6.087   7.227   5.056
91307SOL    HW275696   6.011   7.358   5.053
91308SOL     OW75697   1.988  13.538   0.223
91308SOL    HW175698   2.009  13.456   0.179
91308SOL    HW275699   2.072  13.579   0.240
91309SOL     OW75700   1.567  13.843  14.541
91309SOL    HW175701   1.607  13.824  14.456
91309SOL    HW275702   1.592  13.770  14.597
91310SOL     OW75703   0.673   3.268  14.838
91310SOL    HW175704   0.643   3.182  14.808
91310SOL    HW275705   0.764   3.253  14.864
91311SOL     OW75706  12.170   2.155   0.747
91311SOL    HW175707  12.171   2.106   0.830
91311SOL    HW275708  12.078   2.156   0.721
91312SOL     OW75709   1.173  11.709   2.342
91312SOL    HW175710   1.135  11.752   2.418
91312SOL    HW275711   1.214  11.630   2.378
91313SOL     OW75712  11.325   5.115   9.586
91313SOL    HW175713  11.371   5.035   9.614
91313SOL    HW275714  11.233   5.090   9.584
91314SOL     OW75715   5.460   9.608  11.432
91314SOL    HW175716   5.510   9.537  11.472
91314SOL    HW275717   5.374   9.570  11.415
91315SOL     OW75718   7.575   3.067  10.132
91315SOL    HW175719   7.500   3.109  10.089
91315SOL    HW275720   7.595   2.991  10.078
91316SOL     OW75721  14.238  11.007  14.116
91316SOL    HW175722  14.279  11.074  14.170
91316SOL    HW275723  14.146  11.008  14.141
91317SOL     OW75724   8.964   9.265   7.935
91317SOL    HW175725   8.932   9.316   7.861
91317SOL    HW275726   8.890   9.209   7.959
91318SOL     OW75727   7.574   5.120   1.199
91318SOL    HW175728   7.507   5.158   1.143
91318SOL    HW275729   7.657   5.148   1.159
91319SOL     OW75730  10.978  13.776   1.453
91319SOL    HW175731  10.897  13.792   1.405
91319SOL    HW275732  11.045  13.824   1.403
91320SOL     OW75733   3.336  12.863  14.537
91320SOL    HW175734   3.345  12.938  14.479
91320SOL    HW275735   3.322  12.901  14.624
91321SOL     OW75736  13.622   0.931  14.779
91321SOL    HW175737  13.616   0.849  14.731
91321SOL    HW275738  13.629   0.998  14.712
91322SOL     OW75739   0.046   0.644   4.761
91322SOL    HW175740   0.008   0.573   4.811
91322SOL    HW275741   0.010   0.634   4.673
91323SOL     OW75742  11.082   0.083   7.426
91323SOL    HW175743  10.989   0.100   7.411
91323SOL    HW275744  11.101   0.125   7.509
91324SOL     OW75745   6.097   1.147   3.266
91324SOL    HW175746   6.111   1.121   3.175
91324SOL    HW275747   6.032   1.216   3.261
91325SOL     OW75748   8.377   6.265   1.945
91325SOL    HW175749   8.382   6.199   1.876
91325SOL    HW275750   8.348   6.344   1.900
91326SOL     OW75751   6.314   9.341   4.005
91326SOL    HW175752   6.391   9.284   4.014
91326SOL    HW275753   6.240   9.284   4.024
91327SOL     OW75754   3.030   7.420   1.418
91327SOL    HW175755   3.122   7.440   1.435
91327SOL    HW275756   3.000   7.488   1.358
91328SOL     OW75757   7.699   0.816   9.577
91328SOL    HW175758   7.651   0.899   9.580
91328SOL    HW275759   7.717   0.803   9.484
91329SOL     OW75760   3.271   5.832   2.538
91329SOL    HW175761   3.281   5.840   2.633
91329SOL    HW275762   3.176   5.840   2.524
91330SOL     OW75763  13.275   8.009  14.022
91330SOL    HW175764  13.278   7.949  14.097
91330SOL    HW275765  13.188   7.996  13.985
91331SOL     OW75766   5.725   7.449   9.334
91331SOL    HW175767   5.689   7.364   9.359
91331SOL    HW275768   5.724   7.448   9.239
91332SOL     OW75769   4.173  14.141  14.835
91332SOL    HW175770   4.202  14.116   0.045
91332SOL    HW275771   4.252  14.135  14.781
91333SOL     OW75772   8.582   1.516   8.096
91333SOL    HW175773   8.530   1.459   8.039
91333SOL    HW275774   8.668   1.520   8.055
91334SOL     OW75775   5.033   1.085   6.268
91334SOL    HW175776   5.056   1.133   6.347
91334SOL    HW275777   5.069   0.997   6.281
91335SOL     OW75778   7.594   0.821   0.029
91335SOL    HW175779   7.657   0.891   0.045
91335SOL    HW275780   7.539   0.853  14.835
91336SOL     OW75781  14.091  10.958  10.733
91336SOL    HW175782  14.079  10.922  10.644
91336SOL    HW275783  14.168  11.014  10.725
91337SOL     OW75784   7.529   9.959  13.549
91337SOL    HW175785   7.617   9.988  13.576
91337SOL    HW275786   7.541   9.929  13.459
91338SOL     OW75787   7.437  10.175  12.312
91338SOL    HW175788   7.341  10.173  12.305
91338SOL    HW275789   7.454  10.223  12.393
91339SOL     OW75790   0.224   6.476  13.767
91339SOL    HW175791   0.231   6.386  13.799
91339SOL    HW275792   0.171   6.469  13.687
91340SOL     OW75793   1.542   0.538   1.722
91340SOL    HW175794   1.620   0.501   1.680
91340SOL    HW275795   1.558   0.527   1.816
91341SOL     OW75796  12.881   8.970   3.199
91341SOL    HW175797  12.883   8.880   3.169
91341SOL    HW275798  12.940   9.017   3.141
91342SOL     OW75799  13.998   2.526   6.776
91342SOL    HW175800  14.075   2.571   6.742
91342SOL    HW275801  13.928   2.547   6.715
91343SOL     OW75802   6.384   6.808   5.345
91343SOL    HW175803   6.388   6.730   5.291
91343SOL    HW275804   6.474   6.839   5.351
91344SOL     OW75805  11.193   2.611   3.411
91344SOL    HW175806  11.181   2.556   3.333
91344SOL    HW275807  11.123   2.585   3.470
91345SOL     OW75808  10.368   0.026   3.122
91345SOL    HW175809  10.288   0.076   3.106
91345SOL    HW275810  10.371  14.839   3.052
91346SOL     OW75811   4.203   6.489  11.627
91346SOL    HW175812   4.137   6.539  11.578
91346SOL    HW275813   4.243   6.554  11.685
91347SOL     OW75814   8.980   1.060   3.974
91347SOL    HW175815   9.014   0.976   4.005
91347SOL    HW275816   8.919   1.088   4.042
91348SOL     OW75817   3.190  11.621   9.399
91348SOL    HW175818   3.123  11.560   9.368
91348SOL    HW275819   3.193  11.609   9.493
91349SOL     OW75820  13.981  11.500   4.900
91349SOL    HW175821  13.966  11.552   4.822
91349SOL    HW275822  13.946  11.413   4.878
91350SOL     OW75823   7.491  10.636   1.105
91350SOL    HW175824   7.408  10.596   1.131
91350SOL    HW275825   7.526  10.579   1.037
91351SOL     OW75826  10.185   0.651  14.859
91351SOL    HW175827  10.274   0.628   0.007
91351SOL    HW275828  10.172   0.740   0.014
91352SOL     OW75829   4.678   5.128   4.957
91352SOL    HW175830   4.585   5.137   4.977
91352SOL    HW275831   4.683   5.049   4.903
91353SOL     OW75832   5.186  11.147  12.877
91353SOL    HW175833   5.116  11.139  12.812
91353SOL    HW275834   5.250  11.081  12.851
91354SOL     OW75835  11.825  11.728   8.506
91354SOL    HW175836  11.815  11.823   8.515
91354SOL    HW275837  11.810  11.712   8.412
91355SOL     OW75838   7.285  12.103   0.528
91355SOL    HW175839   7.263  12.081   0.437
91355SOL    HW275840   7.201  12.124   0.568
91356SOL     OW75841   7.412   4.354   0.706
91356SOL    HW175842   7.475   4.424   0.726
91356SOL    HW275843   7.464   4.274   0.705
91357SOL     OW75844   1.472   6.482  13.635
91357SOL    HW175845   1.428   6.543  13.576
91357SOL    HW275846   1.521   6.538  13.695
91358SOL     OW75847  13.056   7.137   0.212
91358SOL    HW175848  13.031   7.167   0.124
91358SOL    HW275849  13.042   7.213   0.268
91359SOL     OW75850   4.028   9.365   3.912
91359SOL    HW175851   3.938   9.332   3.921
91359SOL    HW275852   4.029   9.407   3.826
91360SOL     OW75853  12.068   7.810  13.614
91360SOL    HW175854  12.078   7.833  13.707
91360SOL    HW275855  12.026   7.887  13.575
91361SOL     OW75856   7.425   4.916  10.909
91361SOL    HW175857   7.504   4.950  10.950
91361SOL    HW275858   7.363   4.989  10.911
91362SOL     OW75859  11.186   9.475   4.882
91362SOL    HW175860  11.149   9.421   4.812
91362SOL    HW275861  11.124   9.465   4.955
91363SOL     OW75862   4.360  14.699  11.639
91363SOL    HW175863   4.428  14.705  11.707
91363SOL    HW275864   4.355  14.788  11.603
91364SOL     OW75865   5.693  13.166   9.925
91364SOL    HW175866   5.702  13.198  10.014
91364SOL    HW275867   5.599  13.150   9.914
91365SOL     OW75868   8.718   5.337  10.164
91365SOL    HW175869   8.779   5.371  10.099
91365SOL    HW275870   8.646   5.301  10.112
91366SOL     OW75871  11.279   7.555   6.340
91366SOL    HW175872  11.281   7.612   6.416
91366SOL    HW275873  11.371   7.537   6.321
91367SOL     OW75874  13.517  13.426   5.967
91367SOL    HW175875  13.507  13.442   5.873
91367SOL    HW275876  13.573  13.349   5.973
91368SOL     OW75877   8.690   6.155   7.221
91368SOL    HW175878   8.768   6.100   7.213
91368SOL    HW275879   8.718   6.230   7.273
91369SOL     OW75880   9.080   8.771   2.446
91369SOL    HW175881   9.053   8.818   2.524
91369SOL    HW275882   9.031   8.811   2.374
91370SOL     OW75883   1.722  14.176   6.985
91370SOL    HW175884   1.689  14.162   7.074
91370SOL    HW275885   1.760  14.264   6.988
91371SOL     OW75886   7.564   9.476  10.462
91371SOL    HW175887   7.589   9.568  10.472
91371SOL    HW275888   7.553   9.464  10.367
91372SOL     OW75889   4.948  10.114  12.632
91372SOL    HW175890   5.001  10.169  12.690
91372SOL    HW275891   4.858  10.128  12.660
91373SOL     OW75892  10.309   6.698   8.614
91373SOL    HW175893  10.257   6.633   8.566
91373SOL    HW275894  10.304   6.671   8.706
91374SOL     OW75895  10.998   8.968   6.402
91374SOL    HW175896  11.090   8.987   6.417
91374SOL    HW275897  10.958   9.054   6.385
91375SOL     OW75898  10.211  10.673  12.611
91375SOL    HW175899  10.127  10.647  12.650
91375SOL    HW275900  10.249  10.591  12.580
91376SOL     OW75901   2.601  14.851  11.585
91376SOL    HW175902   2.693  14.826  11.572
91376SOL    HW275903   2.569  14.871  11.497
91377SOL     OW75904   2.821  11.927  12.090
91377SOL    HW175905   2.771  11.926  12.008
91377SOL    HW275906   2.798  12.011  12.130
91378SOL     OW75907   9.120   9.777  11.869
91378SOL    HW175908   9.090   9.703  11.816
91378SOL    HW275909   9.214   9.779  11.854
91379SOL     OW75910  14.723   6.574   7.647
91379SOL    HW175911  14.777   6.506   7.688
91379SOL    HW275912  14.642   6.574   7.698
91380SOL     OW75913  12.281   4.097   6.327
91380SOL    HW175914  12.368   4.060   6.312
91380SOL    HW275915  12.296   4.169   6.388
91381SOL     OW75916   7.270   0.030   9.651
91381SOL    HW175917   7.358   0.065   9.643
91381SOL    HW275918   7.281  14.826   9.699
91382SOL     OW75919   0.120  10.609   4.403
91382SOL    HW175920   0.185  10.673   4.376
91382SOL    HW275921   0.074  10.585   4.322
91383SOL     OW75922  13.824   7.749   6.732
91383SOL    HW175923  13.910   7.790   6.722
91383SOL    HW275924  13.814   7.737   6.826
91384SOL     OW75925   5.241   4.309   8.359
91384SOL    HW175926   5.163   4.271   8.318
91384SOL    HW275927   5.263   4.384   8.303
91385SOL     OW75928   6.084   7.080   7.800
91385SOL    HW175929   6.006   7.098   7.746
91385SOL    HW275930   6.150   7.052   7.737
91386SOL     OW75931   2.115   0.497   9.574
91386SOL    HW175932   2.114   0.405   9.546
91386SOL    HW275933   2.060   0.499   9.652
91387SOL     OW75934  10.170   1.413  10.964
91387SOL    HW175935  10.146   1.438  10.874
91387SOL    HW275936  10.133   1.482  11.019
91388SOL     OW75937  10.978  13.138   4.335
91388SOL    HW175938  10.927  13.064   4.370
91388SOL    HW275939  11.003  13.188   4.413
91389SOL     OW75940   9.123  10.697  12.874
91389SOL    HW175941   9.040  10.738  12.852
91389SOL    HW275942   9.189  10.763  12.850
91390SOL     OW75943   0.150  11.732   2.754
91390SOL    HW175944   0.131  11.755   2.663
91390SOL    HW275945   0.122  11.641   2.762
91391SOL     OW75946   9.893  13.337   2.060
91391SOL    HW175947   9.821  13.399   2.065
91391SOL    HW275948   9.936  13.356   1.977
91392SOL     OW75949  11.181  12.855   4.072
91392SOL    HW175950  11.177  12.906   3.990
91392SOL    HW275951  11.093  12.860   4.107
91393SOL     OW75952   8.432   4.202   0.883
91393SOL    HW175953   8.338   4.186   0.892
91393SOL    HW275954   8.458   4.240   0.967
91394SOL     OW75955   0.503   8.640  11.743
91394SOL    HW175956   0.409   8.656  11.735
91394SOL    HW275957   0.542   8.727  11.734
91395SOL     OW75958   5.871   5.871   2.070
91395SOL    HW175959   5.864   5.779   2.042
91395SOL    HW275960   5.821   5.875   2.151
91396SOL     OW75961  14.767   9.502   4.279
91396SOL    HW175962  14.767   9.500   4.183
91396SOL    HW275963  14.744   9.412   4.305
91397SOL     OW75964  12.333   2.631   9.064
91397SOL    HW175965  12.273   2.560   9.085
91397SOL    HW275966  12.412   2.612   9.115
91398SOL     OW75967   7.111  11.374   5.892
91398SOL    HW175968   7.019  11.393   5.905
91398SOL    HW275969   7.132  11.309   5.958
91399SOL     OW75970   3.636   3.428   8.491
91399SOL    HW175971   3.672   3.475   8.566
91399SOL    HW275972   3.559   3.478   8.465
91400SOL     OW75973   6.405  13.736   5.567
91400SOL    HW175974   6.334  13.760   5.507
91400SOL    HW275975   6.431  13.648   5.538
91401SOL     OW75976   5.032  12.789   2.694
91401SOL    HW175977   5.039  12.808   2.787
91401SOL    HW275978   5.123  12.779   2.664
91402SOL     OW75979  14.409   5.600   9.556
91402SOL    HW175980  14.334   5.541   9.548
91402SOL    HW275981  14.386   5.658   9.628
91403SOL     OW75982   3.874   7.420   2.721
91403SOL    HW175983   3.788   7.408   2.681
91403SOL    HW275984   3.921   7.339   2.700
91404SOL     OW75985   9.607  13.728   3.250
91404SOL    HW175986   9.662  13.801   3.278
91404SOL    HW275987   9.632  13.656   3.307
91405SOL     OW75988  10.116  13.024  11.582
91405SOL    HW175989  10.145  13.028  11.491
91405SOL    HW275990  10.021  13.018  11.577
91406SOL     OW75991  11.166   1.694   4.269
91406SOL    HW175992  11.090   1.705   4.326
91406SOL    HW275993  11.209   1.780   4.270
91407SOL     OW75994   9.775   7.534   1.168
91407SOL    HW175995   9.849   7.484   1.133
91407SOL    HW275996   9.806   7.568   1.252
91408SOL     OW75997  12.587   6.850   2.289
91408SOL    HW175998  12.572   6.940   2.259
91408SOL    HW275999  12.674   6.828   2.256
91409SOL     OW76000   7.570   1.480  12.794
91409SOL    HW176001   7.537   1.396  12.828
91409SOL    HW276002   7.571   1.469  12.699
91410SOL     OW76003   2.648  10.029   2.822
91410SOL    HW176004   2.696  10.079   2.889
91410SOL    HW276005   2.700   9.950   2.808
91411SOL     OW76006   3.484   7.465   3.969
91411SOL    HW176007   3.429   7.388   3.987
91411SOL    HW276008   3.535   7.477   4.049
91412SOL     OW76009  11.474   1.493   5.989
91412SOL    HW176010  11.424   1.440   6.052
91412SOL    HW276011  11.484   1.436   5.913
91413SOL     OW76012   3.516   9.357   4.981
91413SOL    HW176013   3.525   9.349   5.076
91413SOL    HW276014   3.477   9.443   4.967
91414SOL     OW76015   9.346  12.025   3.100
91414SOL    HW176016   9.426  11.993   3.058
91414SOL    HW276017   9.343  11.978   3.184
91415SOL     OW76018   7.052  11.095   0.231
91415SOL    HW176019   6.959  11.112   0.247
91415SOL    HW276020   7.052  11.021   0.170
91416SOL     OW76021   7.043  10.894   4.708
91416SOL    HW176022   7.125  10.943   4.696
91416SOL    HW276023   7.071  10.810   4.745
91417SOL     OW76024   1.612   7.127   0.656
91417SOL    HW176025   1.677   7.104   0.590
91417SOL    HW276026   1.616   7.222   0.662
91418SOL     OW76027   2.146   1.702   5.101
91418SOL    HW176028   2.218   1.758   5.131
91418SOL    HW276029   2.176   1.613   5.119
91419SOL     OW76030   9.084   6.950   9.404
91419SOL    HW176031   9.158   7.011   9.400
91419SOL    HW276032   9.025   6.990   9.469
91420SOL     OW76033   1.445  10.866   5.046
91420SOL    HW176034   1.436  10.863   5.142
91420SOL    HW276035   1.449  10.960   5.026
91421SOL     OW76036   6.057   1.048  13.754
91421SOL    HW176037   6.016   1.018  13.673
91421SOL    HW276038   6.147   1.017  13.747
91422SOL     OW76039   5.159   9.137  14.522
91422SOL    HW176040   5.072   9.112  14.492
91422SOL    HW276041   5.183   9.070  14.586
91423SOL     OW76042  11.712  12.615   1.627
91423SOL    HW176043  11.617  12.611   1.616
91423SOL    HW276044  11.730  12.558   1.701
91424SOL     OW76045   1.306  11.562   0.738
91424SOL    HW176046   1.265  11.605   0.813
91424SOL    HW276047   1.242  11.496   0.710
91425SOL     OW76048   6.250   5.085  12.048
91425SOL    HW176049   6.288   5.089  12.136
91425SOL    HW276050   6.277   5.167  12.007
91426SOL     OW76051   3.189   6.794  13.619
91426SOL    HW176052   3.179   6.707  13.658
91426SOL    HW276053   3.099   6.826  13.607
91427SOL     OW76054   5.818   1.216   7.711
91427SOL    HW176055   5.773   1.138   7.742
91427SOL    HW276056   5.881   1.183   7.646
91428SOL     OW76057  13.852   4.386   8.605
91428SOL    HW176058  13.760   4.361   8.613
91428SOL    HW276059  13.886   4.378   8.694
91429SOL     OW76060   5.195  11.569  13.694
91429SOL    HW176061   5.189  11.651  13.742
91429SOL    HW276062   5.268  11.582  13.633
91430SOL     OW76063  13.509   6.191   8.296
91430SOL    HW176064  13.578   6.125   8.294
91430SOL    HW276065  13.524   6.239   8.378
91431SOL     OW76066   3.658   1.301   8.557
91431SOL    HW176067   3.714   1.223   8.558
91431SOL    HW276068   3.616   1.301   8.643
91432SOL     OW76069   2.057   8.031  10.253
91432SOL    HW176070   1.978   8.021  10.200
91432SOL    HW276071   2.024   8.044  10.342
91433SOL     OW76072   8.450  10.829   0.493
91433SOL    HW176073   8.479  10.763   0.430
91433SOL    HW276074   8.355  10.820   0.495
91434SOL     OW76075  11.312   2.561   4.377
91434SOL    HW176076  11.359   2.640   4.405
91434SOL    HW276077  11.322   2.560   4.282
91435SOL     OW76078   3.006   9.301   6.522
91435SOL    HW176079   2.985   9.307   6.429
91435SOL    HW276080   3.058   9.221   6.529
91436SOL     OW76081   0.725   5.500  13.516
91436SOL    HW176082   0.820   5.509  13.526
91436SOL    HW276083   0.714   5.420  13.465
91437SOL     OW76084  13.514   4.170   7.225
91437SOL    HW176085  13.437   4.220   7.251
91437SOL    HW276086  13.504   4.086   7.269
91438SOL     OW76087   8.348  12.019   5.193
91438SOL    HW176088   8.422  11.978   5.238
91438SOL    HW276089   8.380  12.105   5.166
91439SOL     OW76090  10.480   0.429   8.860
91439SOL    HW176091  10.532   0.508   8.873
91439SOL    HW276092  10.420   0.451   8.789
91440SOL     OW76093  14.650  11.755   0.954
91440SOL    HW176094  14.634  11.663   0.973
91440SOL    HW276095  14.743  11.759   0.932
91441SOL     OW76096   5.783   5.178   4.902
91441SOL    HW176097   5.724   5.102   4.910
91441SOL    HW276098   5.754   5.238   4.970
91442SOL     OW76099  11.268  13.552   0.491
91442SOL    HW176100  11.214  13.474   0.485
91442SOL    HW276101  11.289  13.574   0.400
91443SOL     OW76102   0.369   5.267  12.369
91443SOL    HW176103   0.285   5.227  12.350
91443SOL    HW276104   0.431   5.195  12.368
91444SOL     OW76105   7.928   3.779   4.310
91444SOL    HW176106   7.850   3.739   4.270
91444SOL    HW276107   7.933   3.866   4.271
91445SOL     OW76108   1.735   7.219  12.598
91445SOL    HW176109   1.663   7.157  12.604
91445SOL    HW276110   1.795   7.181  12.534
91446SOL     OW76111   0.051   7.124   2.154
91446SOL    HW176112  14.873   7.138   2.078
91446SOL    HW276113   0.118   7.062   2.123
91447SOL     OW76114   2.280   9.012   6.491
91447SOL    HW176115   2.355   8.958   6.467
91447SOL    HW276116   2.252   9.054   6.409
91448SOL     OW76117  12.274   3.284  12.707
91448SOL    HW176118  12.233   3.212  12.659
91448SOL    HW276119  12.245   3.273  12.797
91449SOL     OW76120   9.753   0.374   7.329
91449SOL    HW176121   9.736   0.323   7.250
91449SOL    HW276122   9.716   0.460   7.310
91450SOL     OW76123  11.670   6.316   7.436
91450SOL    HW176124  11.676   6.331   7.341
91450SOL    HW276125  11.585   6.272   7.448
91451SOL     OW76126   6.876  14.341   4.343
91451SOL    HW176127   6.895  14.284   4.268
91451SOL    HW276128   6.889  14.430   4.310
91452SOL     OW76129  10.646  14.321  11.614
91452SOL    HW176130  10.671  14.248  11.672
91452SOL    HW276131  10.553  14.305  11.595
91453SOL     OW76132   3.167   3.026   3.961
91453SOL    HW176133   3.230   2.998   4.027
91453SOL    HW276134   3.207   3.000   3.878
91454SOL     OW76135  13.868   7.425   6.647
91454SOL    HW176136  13.910   7.473   6.576
91454SOL    HW276137  13.825   7.492   6.700
91455SOL     OW76138   2.542   6.771   2.766
91455SOL    HW176139   2.466   6.714   2.781
91455SOL    HW276140   2.609   6.738   2.825
91456SOL     OW76141   5.693  10.253   7.714
91456SOL    HW176142   5.599  10.269   7.722
91456SOL    HW276143   5.732  10.341   7.709
91457SOL     OW76144  12.260   7.564   0.405
91457SOL    HW176145  12.223   7.645   0.371
91457SOL    HW276146  12.305   7.524   0.331
91458SOL     OW76147   7.203   9.846  12.099
91458SOL    HW176148   7.161   9.824  12.182
91458SOL    HW276149   7.233   9.937  12.110
91459SOL     OW76150   9.971  14.755   4.697
91459SOL    HW176151   9.896  14.769   4.754
91459SOL    HW276152  10.037  14.817   4.728
91460SOL     OW76153   6.483  11.031   5.166
91460SOL    HW176154   6.542  10.957   5.177
91460SOL    HW276155   6.400  11.002   5.203
91461SOL     OW76156  10.781  12.093   9.517
91461SOL    HW176157  10.867  12.064   9.485
91461SOL    HW276158  10.723  12.018   9.499
91462SOL     OW76159   0.517   6.059   5.819
91462SOL    HW176160   0.591   6.082   5.762
91462SOL    HW276161   0.518   6.127   5.887
91463SOL     OW76162   0.955  10.551  13.832
91463SOL    HW176163   0.877  10.495  13.832
91463SOL    HW276164   1.007  10.520  13.758
91464SOL     OW76165  11.314   6.082   1.622
91464SOL    HW176166  11.369   6.076   1.544
91464SOL    HW276167  11.350   6.155   1.672
91465SOL     OW76168   3.035   8.850   5.645
91465SOL    HW176169   3.091   8.868   5.720
91465SOL    HW276170   2.972   8.922   5.644
91466SOL     OW76171   4.457   8.092  14.754
91466SOL    HW176172   4.365   8.066  14.765
91466SOL    HW276173   4.462   8.122  14.663
91467SOL     OW76174   9.778   8.424   2.042
91467SOL    HW176175   9.787   8.501   2.099
91467SOL    HW276176   9.700   8.442   1.990
91468SOL     OW76177   7.688   9.245   4.853
91468SOL    HW176178   7.701   9.153   4.828
91468SOL    HW276179   7.741   9.294   4.790
91469SOL     OW76180   9.173   2.596   0.402
91469SOL    HW176181   9.239   2.535   0.369
91469SOL    HW276182   9.224   2.671   0.434
91470SOL     OW76183   7.499  14.630  10.172
91470SOL    HW176184   7.419  14.668  10.135
91470SOL    HW276185   7.534  14.700  10.228
91471SOL     OW76186   2.723   0.780   4.904
91471SOL    HW176187   2.653   0.804   4.965
91471SOL    HW276188   2.682   0.782   4.818
91472SOL     OW76189   1.593   1.873   7.437
91472SOL    HW176190   1.554   1.789   7.459
91472SOL    HW276191   1.624   1.864   7.347
91473SOL     OW76192  10.390   3.544  13.167
91473SOL    HW176193  10.406   3.459  13.207
91473SOL    HW276194  10.477   3.584  13.160
91474SOL     OW76195   0.322   0.670   7.495
91474SOL    HW176196   0.301   0.603   7.559
91474SOL    HW276197   0.256   0.659   7.426
91475SOL     OW76198   1.050   5.266   6.604
91475SOL    HW176199   1.021   5.319   6.679
91475SOL    HW276200   0.979   5.274   6.540
91476SOL     OW76201  13.041   5.639   8.995
91476SOL    HW176202  12.988   5.712   9.027
91476SOL    HW276203  13.010   5.564   9.044
91477SOL     OW76204  12.159  10.920  13.764
91477SOL    HW176205  12.202  10.869  13.833
91477SOL    HW276206  12.217  10.911  13.688
91478SOL     OW76207  14.019  12.253   5.660
91478SOL    HW176208  14.112  12.268   5.678
91478SOL    HW276209  13.990  12.332   5.616
91479SOL     OW76210   5.249   6.736   0.155
91479SOL    HW176211   5.234   6.780   0.072
91479SOL    HW276212   5.274   6.647   0.131
91480SOL     OW76213   5.847   5.982   9.259
91480SOL    HW176214   5.892   5.912   9.211
91480SOL    HW276215   5.887   6.063   9.228
91481SOL     OW76216  12.912  11.309   0.297
91481SOL    HW176217  12.977  11.306   0.227
91481SOL    HW276218  12.884  11.400   0.300
91482SOL     OW76219   8.453   2.517   1.863
91482SOL    HW176220   8.394   2.521   1.787
91482SOL    HW276221   8.425   2.440   1.911
91483SOL     OW76222   9.917  11.805  10.755
91483SOL    HW176223   9.908  11.779  10.847
91483SOL    HW276224   9.854  11.750  10.708
91484SOL     OW76225   1.653  10.510   0.690
91484SOL    HW176226   1.727  10.515   0.629
91484SOL    HW276227   1.693  10.491   0.775
91485SOL     OW76228   4.761   0.221   7.535
91485SOL    HW176229   4.718   0.187   7.613
91485SOL    HW276230   4.808   0.146   7.499
91486SOL     OW76231  13.995   3.289   2.551
91486SOL    HW176232  14.000   3.382   2.527
91486SOL    HW276233  14.084   3.267   2.577
91487SOL     OW76234   6.307  13.321  14.488
91487SOL    HW176235   6.267  13.396  14.532
91487SOL    HW276236   6.236  13.284  14.436
91488SOL     OW76237  10.539  12.277  14.762
91488SOL    HW176238  10.544  12.354  14.706
91488SOL    HW276239  10.448  12.275  14.792
91489SOL     OW76240   3.772   8.279   0.946
91489SOL    HW176241   3.683   8.297   0.918
91489SOL    HW276242   3.796   8.199   0.899
91490SOL     OW76243   1.682   6.602   9.456
91490SOL    HW176244   1.767   6.643   9.441
91490SOL    HW276245   1.661   6.622   9.548
91491SOL     OW76246   3.440   7.624   6.067
91491SOL    HW176247   3.434   7.611   6.162
91491SOL    HW276248   3.530   7.653   6.052
91492SOL     OW76249  12.152  13.691  13.794
91492SOL    HW176250  12.244  13.677  13.773
91492SOL    HW276251  12.105  13.660  13.716
91493SOL     OW76252   1.058  10.844  13.432
91493SOL    HW176253   1.004  10.806  13.363
91493SOL    HW276254   1.073  10.934  13.403
91494SOL     OW76255   3.011   9.153   1.658
91494SOL    HW176256   2.986   9.095   1.729
91494SOL    HW276257   3.045   9.095   1.590
91495SOL     OW76258   0.893  12.084   8.902
91495SOL    HW176259   0.858  12.002   8.938
91495SOL    HW276260   0.851  12.091   8.816
91496SOL     OW76261   2.624   4.707  12.743
91496SOL    HW176262   2.654   4.624  12.705
91496SOL    HW276263   2.564   4.743  12.677
91497SOL     OW76264  13.537   7.388   3.262
91497SOL    HW176265  13.478   7.455   3.227
91497SOL    HW276266  13.625   7.420   3.240
91498SOL     OW76267   3.854   0.825  10.648
91498SOL    HW176268   3.773   0.876  10.648
91498SOL    HW276269   3.825   0.734  10.655
91499SOL     OW76270  10.453  13.716   3.450
91499SOL    HW176271  10.510  13.665   3.508
91499SOL    HW276272  10.370  13.720   3.498
91500SOL     OW76273   3.227  10.988  11.452
91500SOL    HW176274   3.305  11.023  11.494
91500SOL    HW276275   3.208  11.050  11.381
91501SOL     OW76276  12.505  11.081   8.620
91501SOL    HW176277  12.554  11.039   8.548
91501SOL    HW276278  12.433  11.127   8.577
91502SOL     OW76279   2.024   8.844  12.270
91502SOL    HW176280   2.078   8.768  12.294
91502SOL    HW276281   1.934   8.815  12.284
91503SOL     OW76282  13.534   5.400  12.839
91503SOL    HW176283  13.485   5.429  12.762
91503SOL    HW276284  13.512   5.307  12.849
91504SOL     OW76285  14.417   2.094   7.824
91504SOL    HW176286  14.408   2.146   7.904
91504SOL    HW276287  14.403   2.156   7.753
91505SOL     OW76288   7.345  12.698   8.812
91505SOL    HW176289   7.307  12.693   8.900
91505SOL    HW276290   7.288  12.643   8.758
91506SOL     OW76291   1.968  10.229  11.149
91506SOL    HW176292   2.053  10.265  11.125
91506SOL    HW276293   1.987  10.144  11.189
91507SOL     OW76294   9.518   0.514  10.219
91507SOL    HW176295   9.572   0.583  10.180
91507SOL    HW276296   9.581   0.458  10.264
91508SOL     OW76297   2.834   6.101   7.386
91508SOL    HW176298   2.773   6.045   7.338
91508SOL    HW276299   2.801   6.099   7.476
91509SOL     OW76300   2.927   8.874   4.775
91509SOL    HW176301   2.846   8.831   4.804
91509SOL    HW276302   2.923   8.962   4.813
91510SOL     OW76303   3.999   0.925  13.084
91510SOL    HW176304   3.927   0.896  13.140
91510SOL    HW276305   3.997   1.020  13.090
91511SOL     OW76306   3.245   8.889  11.360
91511SOL    HW176307   3.293   8.967  11.333
91511SOL    HW276308   3.312   8.826  11.387
91512SOL     OW76309   6.242   5.175  13.566
91512SOL    HW176310   6.219   5.102  13.624
91512SOL    HW276311   6.170   5.237  13.575
91513SOL     OW76312  12.708   3.303   3.740
91513SOL    HW176313  12.708   3.312   3.836
91513SOL    HW276314  12.801   3.303   3.717
91514SOL     OW76315  13.852   2.257   8.416
91514SOL    HW176316  13.940   2.236   8.447
91514SOL    HW276317  13.860   2.344   8.377
91515SOL     OW76318   2.949  13.509   9.686
91515SOL    HW176319   3.017  13.456   9.643
91515SOL    HW276320   2.950  13.480   9.777
91516SOL     OW76321   8.238  11.679   1.402
91516SOL    HW176322   8.146  11.693   1.425
91516SOL    HW276323   8.282  11.668   1.486
91517SOL     OW76324   8.349  13.529   4.143
91517SOL    HW176325   8.345  13.433   4.142
91517SOL    HW276326   8.440  13.549   4.163
91518SOL     OW76327   6.317  12.884   7.307
91518SOL    HW176328   6.341  12.792   7.305
91518SOL    HW276329   6.255  12.891   7.379
91519SOL     OW76330   7.507   2.288   9.067
91519SOL    HW176331   7.530   2.375   9.099
91519SOL    HW276332   7.579   2.263   9.009
91520SOL     OW76333   1.637  12.940  13.810
91520SOL    HW176334   1.626  12.877  13.882
91520SOL    HW276335   1.636  12.886  13.731
91521SOL     OW76336   8.937  11.842   7.739
91521SOL    HW176337   8.971  11.931   7.739
91521SOL    HW276338   9.013  11.787   7.724
91522SOL     OW76339   9.014   0.448   0.473
91522SOL    HW176340   8.941   0.447   0.411
91522SOL    HW276341   8.975   0.418   0.556
91523SOL     OW76342   3.532   7.516   9.862
91523SOL    HW176343   3.593   7.545   9.930
91523SOL    HW276344   3.454   7.569   9.876
91524SOL     OW76345   9.647   9.761   1.981
91524SOL    HW176346   9.567   9.776   2.031
91524SOL    HW276347   9.622   9.775   1.890
91525SOL     OW76348   8.347   0.341   6.723
91525SOL    HW176349   8.387   0.428   6.725
91525SOL    HW276350   8.323   0.324   6.814
91526SOL     OW76351   5.814  14.361   1.773
91526SOL    HW176352   5.726  14.385   1.746
91526SOL    HW276353   5.841  14.293   1.711
91527SOL     OW76354   2.030   8.865   6.583
91527SOL    HW176355   2.051   8.938   6.524
91527SOL    HW276356   2.033   8.787   6.528
91528SOL     OW76357   7.541   1.256   1.997
91528SOL    HW176358   7.455   1.254   2.040
91528SOL    HW276359   7.604   1.253   2.068
91529SOL     OW76360   1.564   9.443  11.899
91529SOL    HW176361   1.652   9.440  11.935
91529SOL    HW276362   1.575   9.479  11.811
91530SOL     OW76363   5.489   6.741   0.819
91530SOL    HW176364   5.489   6.676   0.888
91530SOL    HW276365   5.541   6.702   0.749
91531SOL     OW76366   5.182  12.890   5.083
91531SOL    HW176367   5.139  12.810   5.053
91531SOL    HW276368   5.227  12.924   5.005
91532SOL     OW76369   6.252   0.163   3.067
91532SOL    HW176370   6.160   0.135   3.061
91532SOL    HW276371   6.249   0.257   3.053
91533SOL     OW76372   9.339   4.084  11.315
91533SOL    HW176373   9.376   4.169  11.295
91533SOL    HW276374   9.329   4.084  11.411
91534SOL     OW76375   5.870  14.809  10.859
91534SOL    HW176376   5.882  14.838  10.949
91534SOL    HW276377   5.781  14.835  10.837
91535SOL     OW76378   6.575  13.468   0.692
91535SOL    HW176379   6.547  13.406   0.759
91535SOL    HW276380   6.620  13.414   0.627
91536SOL     OW76381   6.920   3.685   0.343
91536SOL    HW176382   7.000   3.737   0.338
91536SOL    HW276383   6.871   3.709   0.264
91537SOL     OW76384  11.118   4.298   3.409
91537SOL    HW176385  11.074   4.379   3.383
91537SOL    HW276386  11.103   4.238   3.336
91538SOL     OW76387  14.869   4.419  12.407
91538SOL    HW176388  14.785   4.386  12.375
91538SOL    HW276389  14.847   4.498  12.455
91539SOL     OW76390   6.505  10.172  10.579
91539SOL    HW176391   6.484  10.119  10.502
91539SOL    HW276392   6.420  10.193  10.617
91540SOL     OW76393   7.173   2.432   0.782
91540SOL    HW176394   7.261   2.413   0.750
91540SOL    HW276395   7.131   2.478   0.710
91541SOL     OW76396  12.815   9.861  13.410
91541SOL    HW176397  12.896   9.868  13.459
91541SOL    HW276398  12.748   9.896  13.469
91542SOL     OW76399   2.669  13.823   4.398
91542SOL    HW176400   2.721  13.760   4.448
91542SOL    HW276401   2.658  13.897   4.457
91543SOL     OW76402  13.802   9.678  12.182
91543SOL    HW176403  13.796   9.701  12.275
91543SOL    HW276404  13.753   9.747  12.137
91544SOL     OW76405   9.896  10.261   0.764
91544SOL    HW176406   9.904  10.185   0.821
91544SOL    HW276407   9.984  10.273   0.727
91545SOL     OW76408   7.771   7.136   8.262
91545SOL    HW176409   7.697   7.156   8.204
91545SOL    HW276410   7.848   7.157   8.209
91546SOL     OW76411  14.503  12.776   9.648
91546SOL    HW176412  14.508  12.867   9.676
91546SOL    HW276413  14.594  12.749   9.636
91547SOL     OW76414   9.504   9.621   5.812
91547SOL    HW176415   9.467   9.666   5.736
91547SOL    HW276416   9.503   9.528   5.788
91548SOL     OW76417  11.626   3.886   8.862
91548SOL    HW176418  11.658   3.919   8.778
91548SOL    HW276419  11.628   3.962   8.920
91549SOL     OW76420   1.497  13.000  11.477
91549SOL    HW176421   1.486  13.066  11.546
91549SOL    HW276422   1.427  12.937  11.494
91550SOL     OW76423   6.058   3.244   4.557
91550SOL    HW176424   6.072   3.208   4.470
91550SOL    HW276425   5.963   3.251   4.565
91551SOL     OW76426  12.477   1.852  12.179
91551SOL    HW176427  12.471   1.764  12.142
91551SOL    HW276428  12.386   1.882  12.186
91552SOL     OW76429   9.275  11.944   1.426
91552SOL    HW176430   9.220  11.949   1.348
91552SOL    HW276431   9.234  12.004   1.488
91553SOL     OW76432   2.577  11.809  14.714
91553SOL    HW176433   2.513  11.873  14.747
91553SOL    HW276434   2.578  11.823  14.620
91554SOL     OW76435  10.858   8.943   6.772
91554SOL    HW176436  10.846   8.909   6.683
91554SOL    HW276437  10.841   9.037   6.764
91555SOL     OW76438   7.749   6.330   5.834
91555SOL    HW176439   7.837   6.302   5.861
91555SOL    HW276440   7.742   6.301   5.743
91556SOL     OW76441   5.625   2.085  11.293
91556SOL    HW176442   5.616   2.000  11.252
91556SOL    HW276443   5.570   2.143  11.240
91557SOL     OW76444   1.343   9.150   8.547
91557SOL    HW176445   1.297   9.169   8.465
91557SOL    HW276446   1.273   9.138   8.611
91558SOL     OW76447   9.527   1.713  11.399
91558SOL    HW176448   9.542   1.727  11.306
91558SOL    HW276449   9.552   1.622  11.415
91559SOL     OW76450   8.441  11.256   6.599
91559SOL    HW176451   8.494  11.186   6.638
91559SOL    HW276452   8.403  11.302   6.674
91560SOL     OW76453   6.522   1.300   2.099
91560SOL    HW176454   6.466   1.358   2.152
91560SOL    HW276455   6.609   1.309   2.138
91561SOL     OW76456  10.706   4.224   2.092
91561SOL    HW176457  10.617   4.193   2.072
91561SOL    HW276458  10.693   4.303   2.143
91562SOL     OW76459   8.895   7.687  11.841
91562SOL    HW176460   8.893   7.746  11.916
91562SOL    HW276461   8.897   7.600  11.879
91563SOL     OW76462   9.262   3.149   5.692
91563SOL    HW176463   9.343   3.148   5.743
91563SOL    HW276464   9.289   3.175   5.604
91564SOL     OW76465  14.309  10.674  12.989
91564SOL    HW176466  14.238  10.611  12.974
91564SOL    HW276467  14.377  10.650  12.925
91565SOL     OW76468   4.619   0.122   1.755
91565SOL    HW176469   4.533   0.136   1.717
91565SOL    HW276470   4.638   0.029   1.742
91566SOL     OW76471   2.367  14.706   0.325
91566SOL    HW176472   2.278  14.683   0.351
91566SOL    HW276473   2.423  14.650   0.379
91567SOL     OW76474   4.825   0.108   6.307
91567SOL    HW176475   4.826   0.084   6.214
91567SOL    HW276476   4.883   0.044   6.349
91568SOL     OW76477  12.608  12.936   7.642
91568SOL    HW176478  12.626  12.936   7.548
91568SOL    HW276479  12.677  12.880   7.679
91569SOL     OW76480   6.486   6.784  10.058
91569SOL    HW176481   6.515   6.874  10.040
91569SOL    HW276482   6.464   6.749   9.971
91570SOL     OW76483   4.092   9.438   2.613
91570SOL    HW176484   4.136   9.522   2.608
91570SOL    HW276485   4.143   9.387   2.676
91571SOL     OW76486  13.922  12.866   5.891
91571SOL    HW176487  13.991  12.801   5.875
91571SOL    HW276488  13.843  12.828   5.853
91572SOL     OW76489  12.049   1.286   7.670
91572SOL    HW176490  12.003   1.286   7.586
91572SOL    HW276491  12.071   1.194   7.685
91573SOL     OW76492   5.424  12.547  13.330
91573SOL    HW176493   5.481  12.619  13.304
91573SOL    HW276494   5.340  12.588  13.350
91574SOL     OW76495   4.426   7.071  12.057
91574SOL    HW176496   4.457   7.028  12.137
91574SOL    HW276497   4.336   7.039  12.046
91575SOL     OW76498   3.822  11.428  14.439
91575SOL    HW176499   3.803  11.511  14.484
91575SOL    HW276500   3.918  11.424  14.436
91576SOL     OW76501   8.171   6.809  13.616
91576SOL    HW176502   8.209   6.897  13.614
91576SOL    HW276503   8.129   6.799  13.531
91577SOL     OW76504   2.010  11.826  13.397
91577SOL    HW176505   1.950  11.834  13.471
91577SOL    HW276506   2.096  11.816  13.438
91578SOL     OW76507  13.499   9.452   6.365
91578SOL    HW176508  13.470   9.536   6.329
91578SOL    HW276509  13.559   9.476   6.435
91579SOL     OW76510   6.946  13.879   6.294
91579SOL    HW176511   6.877  13.895   6.229
91579SOL    HW276512   6.904  13.896   6.378
91580SOL     OW76513   3.328   6.410   8.403
91580SOL    HW176514   3.280   6.338   8.362
91580SOL    HW276515   3.376   6.370   8.475
91581SOL     OW76516  10.556   8.687   9.752
91581SOL    HW176517  10.587   8.597   9.766
91581SOL    HW276518  10.470   8.689   9.794
91582SOL     OW76519  10.801   6.474   9.803
91582SOL    HW176520  10.756   6.429   9.875
91582SOL    HW276521  10.863   6.409   9.771
91583SOL     OW76522  13.951   5.808   1.132
91583SOL    HW176523  14.034   5.850   1.153
91583SOL    HW276524  13.965   5.716   1.150
91584SOL     OW76525   7.455   7.507   0.909
91584SOL    HW176526   7.454   7.511   0.813
91584SOL    HW276527   7.490   7.592   0.936
91585SOL     OW76528   8.477  14.373   2.647
91585SOL    HW176529   8.570  14.368   2.670
91585SOL    HW276530   8.476  14.374   2.551
91586SOL     OW76531   9.596  14.531   4.023
91586SOL    HW176532   9.550  14.530   4.107
91586SOL    HW276533   9.607  14.439   4.000
91587SOL     OW76534   2.465   8.050   2.203
91587SOL    HW176535   2.371   8.047   2.182
91587SOL    HW276536   2.508   8.012   2.126
91588SOL     OW76537  10.513   8.719  11.957
91588SOL    HW176538  10.452   8.751  12.024
91588SOL    HW276539  10.518   8.624  11.973
91589SOL     OW76540  12.988   6.917   9.011
91589SOL    HW176541  13.036   6.865   9.076
91589SOL    HW276542  13.036   6.999   9.005
91590SOL     OW76543   3.851   8.122  11.821
91590SOL    HW176544   3.763   8.137  11.857
91590SOL    HW276545   3.908   8.120  11.898
91591SOL     OW76546   7.119   8.353   1.473
91591SOL    HW176547   7.097   8.260   1.484
91591SOL    HW276548   7.214   8.354   1.465
91592SOL     OW76549   9.151   5.320   2.728
91592SOL    HW176550   9.226   5.263   2.716
91592SOL    HW276551   9.182   5.406   2.700
91593SOL     OW76552  12.931   6.644   1.628
91593SOL    HW176553  12.855   6.699   1.608
91593SOL    HW276554  12.944   6.591   1.549
91594SOL     OW76555   5.871   5.119   3.771
91594SOL    HW176556   5.808   5.048   3.764
91594SOL    HW276557   5.946   5.091   3.717
91595SOL     OW76558  10.005   1.666  13.679
91595SOL    HW176559  10.017   1.702  13.766
91595SOL    HW276560  10.031   1.737  13.620
91596SOL     OW76561   8.515   1.919  14.570
91596SOL    HW176562   8.496   1.847  14.630
91596SOL    HW276563   8.452   1.987  14.594
91597SOL     OW76564   2.895  10.602   3.662
91597SOL    HW176565   2.926  10.608   3.571
91597SOL    HW276566   2.851  10.517   3.667
91598SOL     OW76567   5.955  12.377   9.903
91598SOL    HW176568   5.946  12.288   9.867
91598SOL    HW276569   6.030  12.414   9.856
91599SOL     OW76570  14.483  12.826  10.419
91599SOL    HW176571  14.465  12.920  10.428
91599SOL    HW276572  14.544  12.807  10.489
91600SOL     OW76573   6.506   1.074   5.522
91600SOL    HW176574   6.597   1.084   5.549
91600SOL    HW276575   6.456   1.075   5.604
91601SOL     OW76576   2.356   6.926  14.152
91601SOL    HW176577   2.284   6.955  14.207
91601SOL    HW276578   2.343   6.831  14.143
91602SOL     OW76579  10.718  13.344  12.631
91602SOL    HW176580  10.680  13.410  12.573
91602SOL    HW276581  10.813  13.357  12.624
91603SOL     OW76582  13.770  13.531   7.874
91603SOL    HW176583  13.719  13.451   7.890
91603SOL    HW276584  13.788  13.565   7.962
91604SOL     OW76585   1.225  14.255  12.333
91604SOL    HW176586   1.198  14.272  12.242
91604SOL    HW276587   1.146  14.270  12.385
91605SOL     OW76588   4.722  14.270  12.895
91605SOL    HW176589   4.670  14.303  12.822
91605SOL    HW276590   4.698  14.177  12.902
91606SOL     OW76591   6.820   6.717   1.995
91606SOL    HW176592   6.733   6.706   1.958
91606SOL    HW276593   6.830   6.811   2.006
91607SOL     OW76594   5.685  12.272   4.174
91607SOL    HW176595   5.605  12.246   4.127
91607SOL    HW276596   5.723  12.190   4.205
91608SOL     OW76597   1.552   3.940   3.998
91608SOL    HW176598   1.634   3.942   4.047
91608SOL    HW276599   1.542   4.030   3.966
91609SOL     OW76600  12.653   1.307   6.875
91609SOL    HW176601  12.614   1.367   6.811
91609SOL    HW276602  12.717   1.361   6.922
91610SOL     OW76603   8.980   0.788  11.814
91610SOL    HW176604   9.043   0.729  11.856
91610SOL    HW276605   9.032   0.841  11.755
91611SOL     OW76606   7.636   5.282   7.389
91611SOL    HW176607   7.561   5.290   7.448
91611SOL    HW276608   7.659   5.372   7.368
91612SOL     OW76609   0.890   1.489   2.731
91612SOL    HW176610   0.858   1.567   2.686
91612SOL    HW276611   0.940   1.441   2.665
91613SOL     OW76612  14.241   8.041  13.321
91613SOL    HW176613  14.320   8.050  13.267
91613SOL    HW276614  14.265   8.079  13.405
91614SOL     OW76615  14.303   0.231   3.651
91614SOL    HW176616  14.323   0.261   3.739
91614SOL    HW276617  14.252   0.302   3.612
91615SOL     OW76618   3.742   5.649   4.520
91615SOL    HW176619   3.739   5.703   4.441
91615SOL    HW276620   3.770   5.563   4.489
91616SOL     OW76621  13.368   1.782   8.090
91616SOL    HW176622  13.328   1.858   8.133
91616SOL    HW276623  13.375   1.807   7.998
91617SOL     OW76624   4.090   6.867   2.021
91617SOL    HW176625   3.996   6.882   2.017
91617SOL    HW276626   4.116   6.856   1.929
91618SOL     OW76627   1.846  13.249   5.224
91618SOL    HW176628   1.874  13.339   5.209
91618SOL    HW276629   1.873  13.202   5.145
91619SOL     OW76630   3.274  13.998  14.087
91619SOL    HW176631   3.283  13.973  13.995
91619SOL    HW276632   3.354  13.965  14.128
91620SOL     OW76633   4.482   3.267   5.799
91620SOL    HW176634   4.479   3.251   5.705
91620SOL    HW276635   4.392   3.252   5.829
91621SOL     OW76636   3.537   9.298   8.385
91621SOL    HW176637   3.615   9.243   8.382
91621SOL    HW276638   3.464   9.239   8.367
91622SOL     OW76639   3.670   3.128  14.289
91622SOL    HW176640   3.740   3.136  14.224
91622SOL    HW276641   3.717   3.117  14.372
91623SOL     OW76642  11.944   3.151   5.721
91623SOL    HW176643  12.033   3.117   5.708
91623SOL    HW276644  11.940   3.173   5.814
91624SOL     OW76645   6.954  10.568  10.472
91624SOL    HW176646   6.919  10.626  10.405
91624SOL    HW276647   7.049  10.580  10.468
91625SOL     OW76648   3.414   2.622   2.433
91625SOL    HW176649   3.389   2.600   2.343
91625SOL    HW276650   3.411   2.718   2.435
91626SOL     OW76651  14.758   6.260   6.230
91626SOL    HW176652  14.710   6.181   6.205
91626SOL    HW276653  14.737   6.323   6.162
91627SOL     OW76654  11.449  14.817  12.644
91627SOL    HW176655  11.375  14.842  12.588
91627SOL    HW276656  11.451   0.006  12.712
91628SOL     OW76657   3.382  12.448   0.298
91628SOL    HW176658   3.306  12.407   0.339
91628SOL    HW276659   3.371  12.428   0.205
91629SOL     OW76660   1.283  14.574   7.694
91629SOL    HW176661   1.280  14.597   7.787
91629SOL    HW276662   1.361  14.620   7.661
91630SOL     OW76663   6.108   7.343   1.278
91630SOL    HW176664   6.023   7.351   1.321
91630SOL    HW276665   6.142   7.258   1.308
91631SOL     OW76666  11.113  10.316   5.009
91631SOL    HW176667  11.045  10.345   4.949
91631SOL    HW276668  11.191  10.364   4.982
91632SOL     OW76669   3.631   4.292   6.884
91632SOL    HW176670   3.705   4.351   6.876
91632SOL    HW276671   3.554   4.349   6.880
91633SOL     OW76672   2.388   3.092  10.819
91633SOL    HW176673   2.373   3.169  10.764
91633SOL    HW276674   2.428   3.028  10.760
91634SOL     OW76675  14.191   4.621   8.422
91634SOL    HW176676  14.215   4.629   8.330
91634SOL    HW276677  14.100   4.591   8.420
91635SOL     OW76678   5.264  13.553   9.660
91635SOL    HW176679   5.352  13.560   9.697
91635SOL    HW276680   5.236  13.644   9.649
91636SOL     OW76681   6.412  14.745  14.741
91636SOL    HW176682   6.370  14.669  14.700
91636SOL    HW276683   6.364  14.820  14.706
91637SOL     OW76684  14.046   4.386  13.841
91637SOL    HW176685  14.059   4.345  13.926
91637SOL    HW276686  13.954   4.367  13.819
91638SOL     OW76687   2.903   3.363  11.621
91638SOL    HW176688   2.986   3.391  11.661
91638SOL    HW276689   2.916   3.380  11.527
91639SOL     OW76690   9.369  14.175   8.951
91639SOL    HW176691   9.406  14.157   9.038
91639SOL    HW276692   9.277  14.148   8.958
91640SOL     OW76693  10.538   2.390  10.290
91640SOL    HW176694  10.603   2.329  10.323
91640SOL    HW276695  10.587   2.447  10.230
91641SOL     OW76696   2.928   8.829   5.370
91641SOL    HW176697   2.936   8.883   5.449
91641SOL    HW276698   2.992   8.867   5.309
91642SOL     OW76699  10.412  11.285  10.298
91642SOL    HW176700  10.428  11.202  10.341
91642SOL    HW276701  10.479  11.344  10.334
91643SOL     OW76702   0.461   9.542  10.076
91643SOL    HW176703   0.489   9.459  10.114
91643SOL    HW276704   0.367   9.533  10.064
91644SOL     OW76705  10.601   5.774  11.178
91644SOL    HW176706  10.559   5.794  11.095
91644SOL    HW276707  10.544   5.815  11.244
91645SOL     OW76708   8.668   7.437  11.682
91645SOL    HW176709   8.718   7.432  11.600
91645SOL    HW276710   8.656   7.531  11.697
91646SOL     OW76711  10.019   0.872   9.838
91646SOL    HW176712  10.079   0.807   9.876
91646SOL    HW276713   9.933   0.849   9.872
91647SOL     OW76714  13.568   7.059   0.113
91647SOL    HW176715  13.501   7.014   0.062
91647SOL    HW276716  13.582   7.142   0.068
91648SOL     OW76717  13.234   2.008   1.726
91648SOL    HW176718  13.186   1.999   1.808
91648SOL    HW276719  13.212   2.096   1.694
91649SOL     OW76720   3.332   5.163  11.407
91649SOL    HW176721   3.363   5.103  11.339
91649SOL    HW276722   3.248   5.127  11.434
91650SOL     OW76723   3.442   0.934   2.142
91650SOL    HW176724   3.473   1.016   2.182
91650SOL    HW276725   3.468   0.866   2.203
91651SOL     OW76726  13.617   4.783   0.897
91651SOL    HW176727  13.557   4.715   0.929
91651SOL    HW276728  13.584   4.864   0.936
91652SOL     OW76729   0.044   6.707   1.237
91652SOL    HW176730   0.103   6.679   1.167
91652SOL    HW276731   0.101   6.745   1.303
91653SOL     OW76732   2.632   8.330   0.217
91653SOL    HW176733   2.571   8.374   0.157
91653SOL    HW276734   2.717   8.366   0.194
91654SOL     OW76735  13.193  11.153   7.921
91654SOL    HW176736  13.173  11.177   7.831
91654SOL    HW276737  13.249  11.076   7.913
91655SOL     OW76738   7.533  10.944   6.705
91655SOL    HW176739   7.627  10.961   6.712
91655SOL    HW276740   7.492  11.024   6.738
91656SOL     OW76741  10.672   1.342   4.531
91656SOL    HW176742  10.608   1.411   4.543
91656SOL    HW276743  10.736   1.378   4.470
91657SOL     OW76744   1.837   3.184  13.441
91657SOL    HW176745   1.841   3.089  13.428
91657SOL    HW276746   1.917   3.217  13.399
91658SOL     OW76747  11.491   2.219  12.821
91658SOL    HW176748  11.395   2.224  12.813
91658SOL    HW276749  11.506   2.225  12.916
91659SOL     OW76750   5.256  10.175  11.800
91659SOL    HW176751   5.351  10.187  11.794
91659SOL    HW276752   5.235  10.114  11.729
91660SOL     OW76753  10.945  13.181   3.797
91660SOL    HW176754  11.004  13.106   3.790
91660SOL    HW276755  11.003  13.256   3.812
91661SOL     OW76756  11.911   5.666   1.567
91661SOL    HW176757  11.954   5.660   1.653
91661SOL    HW276758  11.943   5.748   1.530
91662SOL     OW76759   6.400   6.766  13.412
91662SOL    HW176760   6.347   6.689  13.389
91662SOL    HW276761   6.392   6.772  13.507
91663SOL     OW76762  13.873  10.031   7.894
91663SOL    HW176763  13.836  10.041   7.982
91663SOL    HW276764  13.814  10.081   7.838
91664SOL     OW76765   3.007  14.406  14.848
91664SOL    HW176766   3.062  14.329  14.837
91664SOL    HW276767   2.951  14.386   0.045
91665SOL     OW76768   3.152   2.093   8.552
91665SOL    HW176769   3.096   2.151   8.604
91665SOL    HW276770   3.224   2.149   8.524
91666SOL     OW76771   0.939   1.534  12.847
91666SOL    HW176772   1.005   1.568  12.786
91666SOL    HW276773   0.857   1.573  12.817
91667SOL     OW76774   7.115   0.460   0.920
91667SOL    HW176775   7.126   0.381   0.974
91667SOL    HW276776   7.020   0.469   0.912
91668SOL     OW76777   7.106   1.319   2.153
91668SOL    HW176778   7.072   1.396   2.107
91668SOL    HW276779   7.091   1.246   2.093
91669SOL     OW76780  11.321   3.953   6.992
91669SOL    HW176781  11.355   4.025   6.939
91669SOL    HW276782  11.285   3.996   7.070
91670SOL     OW76783   4.440   6.232  14.732
91670SOL    HW176784   4.453   6.159  14.671
91670SOL    HW276785   4.497   6.301  14.699
91671SOL     OW76786   4.076  12.997   6.417
91671SOL    HW176787   4.127  13.062   6.369
91671SOL    HW276788   4.140  12.934   6.450
91672SOL     OW76789   4.320  10.363   4.605
91672SOL    HW176790   4.235  10.340   4.642
91672SOL    HW276791   4.383  10.331   4.669
91673SOL     OW76792   5.193   8.014  14.131
91673SOL    HW176793   5.268   7.959  14.154
91673SOL    HW276794   5.212   8.045  14.042
91674SOL     OW76795   6.690   0.238   9.067
91674SOL    HW176796   6.665   0.150   9.038
91674SOL    HW276797   6.614   0.270   9.115
91675SOL     OW76798  13.078   7.008  14.136
91675SOL    HW176799  13.144   6.944  14.109
91675SOL    HW276800  13.037   7.036  14.054
91676SOL     OW76801  11.681  13.693   4.356
91676SOL    HW176802  11.647  13.666   4.270
91676SOL    HW276803  11.608  13.740   4.396
91677SOL     OW76804   4.010   4.879   1.813
91677SOL    HW176805   4.102   4.905   1.805
91677SOL    HW276806   3.990   4.891   1.906
91678SOL     OW76807  14.621   8.737   2.690
91678SOL    HW176808  14.693   8.754   2.751
91678SOL    HW276809  14.570   8.668   2.731
91679SOL     OW76810   5.628   4.799   7.617
91679SOL    HW176811   5.577   4.762   7.545
91679SOL    HW276812   5.679   4.725   7.650
91680SOL     OW76813  10.442   1.784   2.322
91680SOL    HW176814  10.405   1.803   2.408
91680SOL    HW276815  10.476   1.694   2.329
91681SOL     OW76816   5.980   1.530   2.723
91681SOL    HW176817   5.903   1.481   2.752
91681SOL    HW276818   5.945   1.611   2.686
91682SOL     OW76819   1.199   5.005   9.173
91682SOL    HW176820   1.142   5.057   9.117
91682SOL    HW276821   1.275   4.986   9.119
91683SOL     OW76822   9.796   8.818  13.015
91683SOL    HW176823   9.729   8.872  13.058
91683SOL    HW276824   9.773   8.728  13.038
91684SOL     OW76825   8.716   5.649   0.849
91684SOL    HW176826   8.671   5.620   0.929
91684SOL    HW276827   8.665   5.723   0.818
91685SOL     OW76828   2.074   5.571   5.455
91685SOL    HW176829   1.997   5.584   5.510
91685SOL    HW276830   2.061   5.484   5.417
91686SOL     OW76831  14.041   1.400  14.323
91686SOL    HW176832  14.110   1.337  14.303
91686SOL    HW276833  13.972   1.348  14.364
91687SOL     OW76834  13.664   4.182   1.578
91687SOL    HW176835  13.688   4.159   1.488
91687SOL    HW276836  13.595   4.247   1.569
91688SOL     OW76837   4.101   5.586   4.336
91688SOL    HW176838   4.109   5.491   4.335
91688SOL    HW276839   4.180   5.617   4.379
91689SOL     OW76840   0.243   8.108   9.375
91689SOL    HW176841   0.312   8.172   9.390
91689SOL    HW276842   0.191   8.145   9.304
91690SOL     OW76843   7.864  13.311   8.651
91690SOL    HW176844   7.863  13.364   8.730
91690SOL    HW276845   7.808  13.359   8.589
91691SOL     OW76846   3.774  13.376  11.085
91691SOL    HW176847   3.796  13.392  11.177
91691SOL    HW276848   3.736  13.458  11.055
91692SOL     OW76849   7.508  14.827  12.931
91692SOL    HW176850   7.421  14.841  12.893
91692SOL    HW276851   7.517   0.018  12.997
91693SOL     OW76852   3.759   5.133  10.941
91693SOL    HW176853   3.672   5.116  10.904
91693SOL    HW276854   3.746   5.206  11.001
91694SOL     OW76855   9.955  11.123   8.426
91694SOL    HW176856   9.927  11.194   8.368
91694SOL    HW276857  10.037  11.092   8.388
91695SOL     OW76858   6.394  14.166  13.063
91695SOL    HW176859   6.472  14.113  13.073
91695SOL    HW276860   6.396  14.196  12.972
91696SOL     OW76861   5.746   4.699   2.611
91696SOL    HW176862   5.667   4.681   2.661
91696SOL    HW276863   5.725   4.673   2.521
91697SOL     OW76864   4.548   3.864  10.694
91697SOL    HW176865   4.520   3.780  10.659
91697SOL    HW276866   4.475   3.923  10.676
91698SOL     OW76867  10.952   8.793  14.276
91698SOL    HW176868  10.900   8.731  14.225
91698SOL    HW276869  11.032   8.806  14.224
91699SOL     OW76870   3.764   9.268   7.978
91699SOL    HW176871   3.691   9.305   7.931
91699SOL    HW276872   3.841   9.313   7.944
91700SOL     OW76873   0.140   9.245  12.046
91700SOL    HW176874   0.069   9.202  12.094
91700SOL    HW276875   0.200   9.276  12.114
91701SOL     OW76876  10.582  11.624   8.401
91701SOL    HW176877  10.634  11.593   8.475
91701SOL    HW276878  10.594  11.557   8.334
91702SOL     OW76879   2.620   6.838   5.932
91702SOL    HW176880   2.530   6.859   5.910
91702SOL    HW276881   2.628   6.744   5.915
91703SOL     OW76882  11.075  14.299  14.613
91703SOL    HW176883  11.084  14.305  14.708
91703SOL    HW276884  11.064  14.205  14.596
91704SOL     OW76885   5.619  10.080  13.984
91704SOL    HW176886   5.658  10.111  13.903
91704SOL    HW276887   5.525  10.077  13.966
91705SOL     OW76888   1.425  14.635  11.239
91705SOL    HW176889   1.496  14.637  11.304
91705SOL    HW276890   1.403  14.542  11.232
91706SOL     OW76891  14.618   9.602   7.772
91706SOL    HW176892  14.620   9.690   7.734
91706SOL    HW276893  14.656   9.613   7.859
91707SOL     OW76894   0.550  11.780  12.872
91707SOL    HW176895   0.459  11.757  12.889
91707SOL    HW276896   0.597  11.698  12.881
91708SOL     OW76897   3.981  14.763  13.051
91708SOL    HW176898   3.935  14.727  13.127
91708SOL    HW276899   3.995  14.688  12.993
91709SOL     OW76900   6.888  10.814  13.878
91709SOL    HW176901   6.864  10.743  13.817
91709SOL    HW276902   6.809  10.868  13.883
91710SOL     OW76903   1.962  11.532   2.914
91710SOL    HW176904   2.033  11.472   2.892
91710SOL    HW276905   1.992  11.617   2.880
91711SOL     OW76906   0.769   1.182   9.730
91711SOL    HW176907   0.767   1.221   9.643
91711SOL    HW276908   0.679   1.155   9.746
91712SOL     OW76909  11.944   8.377   9.346
91712SOL    HW176910  11.921   8.308   9.284
91712SOL    HW276911  11.976   8.331   9.423
91713SOL     OW76912   3.908   3.448  13.338
91713SOL    HW176913   3.969   3.374  13.331
91713SOL    HW276914   3.963   3.522  13.363
91714SOL     OW76915  13.529   9.955  12.944
91714SOL    HW176916  13.520  10.046  12.971
91714SOL    HW276917  13.469   9.906  13.001
91715SOL     OW76918   6.072   8.311   2.960
91715SOL    HW176919   6.142   8.267   2.912
91715SOL    HW276920   6.118   8.365   3.025
91716SOL     OW76921   5.876   0.430   2.586
91716SOL    HW176922   5.860   0.417   2.680
91716SOL    HW276923   5.854   0.522   2.570
91717SOL     OW76924   0.948   7.757  11.267
91717SOL    HW176925   1.015   7.776  11.332
91717SOL    HW276926   0.994   7.756  11.183
91718SOL     OW76927   2.957  12.172   3.053
91718SOL    HW176928   3.023  12.146   3.117
91718SOL    HW276929   2.878  12.124   3.078
91719SOL     OW76930   4.956  10.452   1.240
91719SOL    HW176931   4.891  10.427   1.306
91719SOL    HW276932   5.023  10.384   1.246
91720SOL     OW76933  12.491   0.811   0.338
91720SOL    HW176934  12.411   0.794   0.290
91720SOL    HW276935  12.464   0.814   0.430
91721SOL     OW76936  13.402   7.758   9.025
91721SOL    HW176937  13.431   7.745   8.935
91721SOL    HW276938  13.390   7.669   9.059
91722SOL     OW76939  12.426  12.401   0.393
91722SOL    HW176940  12.480  12.474   0.365
91722SOL    HW276941  12.433  12.401   0.489
91723SOL     OW76942  11.491   7.608   3.592
91723SOL    HW176943  11.543   7.685   3.570
91723SOL    HW276944  11.448   7.631   3.675
91724SOL     OW76945   7.033   4.032   5.550
91724SOL    HW176946   7.050   4.086   5.473
91724SOL    HW276947   7.027   4.095   5.622
91725SOL     OW76948   3.239  10.600   2.206
91725SOL    HW176949   3.201  10.590   2.293
91725SOL    HW276950   3.220  10.691   2.181
91726SOL     OW76951   8.375   2.991  10.592
91726SOL    HW176952   8.416   2.909  10.621
91726SOL    HW276953   8.360   2.978  10.498
91727SOL     OW76954   5.739   2.315   0.509
91727SOL    HW176955   5.650   2.342   0.483
91727SOL    HW276956   5.744   2.336   0.602
91728SOL     OW76957   1.635   3.133  13.232
91728SOL    HW176958   1.687   3.204  13.268
91728SOL    HW276959   1.594   3.091  13.307
91729SOL     OW76960  12.858  10.107   7.020
91729SOL    HW176961  12.902  10.032   6.980
91729SOL    HW276962  12.911  10.182   6.992
91730SOL     OW76963   1.430   5.589   5.692
91730SOL    HW176964   1.507   5.595   5.748
91730SOL    HW276965   1.416   5.678   5.659
91731SOL     OW76966   5.278   8.380   0.511
91731SOL    HW176967   5.224   8.392   0.433
91731SOL    HW276968   5.341   8.313   0.486
91732SOL     OW76969   2.500   8.828   0.360
91732SOL    HW176970   2.475   8.850   0.450
91732SOL    HW276971   2.596   8.837   0.360
91733SOL     OW76972  14.706  12.340   7.619
91733SOL    HW176973  14.682  12.294   7.538
91733SOL    HW276974  14.625  12.379   7.649
91734SOL     OW76975   7.130   4.803   1.157
91734SOL    HW176976   7.212   4.839   1.191
91734SOL    HW276977   7.117   4.848   1.074
91735SOL     OW76978  10.168  10.126   1.743
91735SOL    HW176979  10.186  10.050   1.688
91735SOL    HW276980  10.119  10.091   1.817
91736SOL     OW76981  14.526   6.214   6.991
91736SOL    HW176982  14.460   6.154   7.025
91736SOL    HW276983  14.609   6.167   6.997
91737SOL     OW76984  11.397  13.160   9.859
91737SOL    HW176985  11.438  13.152   9.945
91737SOL    HW276986  11.439  13.093   9.806
91738SOL     OW76987   1.593  14.773   6.726
91738SOL    HW176988   1.625  14.726   6.649
91738SOL    HW276989   1.556  14.854   6.691
91739SOL     OW76990   2.148   8.829   3.357
91739SOL    HW176991   2.231   8.799   3.321
91739SOL    HW276992   2.149   8.924   3.345
91740SOL     OW76993   9.342   8.287  11.343
91740SOL    HW176994   9.294   8.309  11.263
91740SOL    HW276995   9.333   8.192  11.350
91741SOL     OW76996   7.282   8.489   4.385
91741SOL    HW176997   7.330   8.551   4.329
91741SOL    HW276998   7.317   8.404   4.362
91742SOL     OW76999   1.051   6.915   1.003
91742SOL    HW177000   1.070   6.821   1.005
91742SOL    HW277001   1.098   6.951   1.079
91743SOL     OW77002   2.752  11.188  10.313
91743SOL    HW177003   2.794  11.254  10.369
91743SOL    HW277004   2.765  11.106  10.360
91744SOL     OW77005   9.818   3.724   9.412
91744SOL    HW177006   9.886   3.660   9.428
91744SOL    HW277007   9.846   3.802   9.460
91745SOL     OW77008   7.002   7.688  11.056
91745SOL    HW177009   7.087   7.726  11.032
91745SOL    HW277010   7.019   7.637  11.135
91746SOL     OW77011  10.386   6.406   8.502
91746SOL    HW177012  10.317   6.396   8.437
91746SOL    HW277013  10.354   6.360   8.579
91747SOL     OW77014  14.502   9.026  10.761
91747SOL    HW177015  14.585   8.977  10.758
91747SOL    HW277016  14.435   8.958  10.765
91748SOL     OW77017  10.540   3.023   5.019
91748SOL    HW177018  10.530   3.055   5.109
91748SOL    HW277019  10.563   3.101   4.968
91749SOL     OW77020   7.723   6.597   7.695
91749SOL    HW177021   7.690   6.668   7.750
91749SOL    HW277022   7.752   6.530   7.756
91750SOL     OW77023   1.947  11.774   4.441
91750SOL    HW177024   2.002  11.763   4.364
91750SOL    HW277025   1.858  11.760   4.408
91751SOL     OW77026   6.274  12.738  11.332
91751SOL    HW177027   6.337  12.673  11.301
91751SOL    HW277028   6.326  12.819  11.338
91752SOL     OW77029   2.767  11.550  13.790
91752SOL    HW177030   2.821  11.619  13.752
91752SOL    HW277031   2.828  11.479  13.809
91753SOL     OW77032   0.076   3.960   3.566
91753SOL    HW177033  14.861   3.955   3.591
91753SOL    HW277034   0.109   3.872   3.581
91754SOL     OW77035   5.483   6.773   2.046
91754SOL    HW177036   5.477   6.785   2.141
91754SOL    HW277037   5.577   6.769   2.029
91755SOL     OW77038  14.689  13.215  12.239
91755SOL    HW177039  14.656  13.302  12.219
91755SOL    HW277040  14.620  13.156  12.211
91756SOL     OW77041   0.346   7.539   2.972
91756SOL    HW177042   0.365   7.537   2.879
91756SOL    HW277043   0.431   7.527   3.014
91757SOL     OW77044   5.504   4.194  14.767
91757SOL    HW177045   5.475   4.280  14.738
91757SOL    HW277046   5.467   4.133  14.704
91758SOL     OW77047   8.549   3.686   8.977
91758SOL    HW177048   8.572   3.748   8.908
91758SOL    HW277049   8.483   3.629   8.936
91759SOL     OW77050   7.443  13.655   6.311
91759SOL    HW177051   7.426  13.582   6.370
91759SOL    HW277052   7.360  13.702   6.305
91760SOL     OW77053   2.239   1.980  13.725
91760SOL    HW177054   2.261   2.065  13.688
91760SOL    HW277055   2.234   1.921  13.649
91761SOL     OW77056   2.584  10.093  14.491
91761SOL    HW177057   2.625  10.171  14.453
91761SOL    HW277058   2.636  10.020  14.460
91762SOL     OW77059   5.239   8.140  13.534
91762SOL    HW177060   5.190   8.173  13.459
91762SOL    HW277061   5.322   8.111  13.497
91763SOL     OW77062  13.870   6.302   4.518
91763SOL    HW177063  13.793   6.276   4.468
91763SOL    HW277064  13.848   6.389   4.552
91764SOL     OW77065   6.010   9.203  12.223
91764SOL    HW177066   6.079   9.200  12.290
91764SOL    HW277067   6.009   9.295  12.194
91765SOL     OW77068   6.036  10.902   7.911
91765SOL    HW177069   6.107  10.840   7.924
91765SOL    HW277070   5.972  10.880   7.979
91766SOL     OW77071  10.754   2.539   1.991
91766SOL    HW177072  10.723   2.505   1.908
91766SOL    HW277073  10.839   2.497   2.004
91767SOL     OW77074   3.283   9.708   1.228
91767SOL    HW177075   3.363   9.734   1.274
91767SOL    HW277076   3.253   9.630   1.275
91768SOL     OW77077   3.719  12.749   8.549
91768SOL    HW177078   3.666  12.672   8.531
91768SOL    HW277079   3.672  12.821   8.506
91769SOL     OW77080  14.665  14.299   6.775
91769SOL    HW177081  14.723  14.297   6.851
91769SOL    HW277082  14.716  14.257   6.706
91770SOL     OW77083   2.273  13.497   9.148
91770SOL    HW177084   2.200  13.505   9.087
91770SOL    HW277085   2.317  13.582   9.143
91771SOL     OW77086   1.110  12.243  11.201
91771SOL    HW177087   1.182  12.292  11.161
91771SOL    HW277088   1.061  12.207  11.127
91772SOL     OW77089   8.021   6.660   8.367
91772SOL    HW177090   8.097   6.718   8.377
91772SOL    HW277091   7.950   6.719   8.342
91773SOL     OW77092   6.791   5.328   5.318
91773SOL    HW177093   6.781   5.263   5.387
91773SOL    HW277094   6.802   5.277   5.238
91774SOL     OW77095  12.969   9.689   8.666
91774SOL    HW177096  12.948   9.596   8.674
91774SOL    HW277097  13.051   9.691   8.617
91775SOL     OW77098   3.433  11.746   9.919
91775SOL    HW177099   3.459  11.658   9.890
91775SOL    HW277100   3.353  11.732   9.969
91776SOL     OW77101   5.223  10.076  11.003
91776SOL    HW177102   5.225  10.166  11.038
91776SOL    HW277103   5.310  10.063  10.966
91777SOL     OW77104   8.501   1.065   7.852
91777SOL    HW177105   8.406   1.065   7.862
91777SOL    HW277106   8.534   1.089   7.939
91778SOL     OW77107   7.792  12.729   4.412
91778SOL    HW177108   7.809  12.786   4.488
91778SOL    HW277109   7.874  12.729   4.364
91779SOL     OW77110  12.584   3.967   4.245
91779SOL    HW177111  12.533   4.027   4.191
91779SOL    HW277112  12.650   3.931   4.186
91780SOL     OW77113  13.388  14.036   3.067
91780SOL    HW177114  13.412  13.985   3.144
91780SOL    HW277115  13.321  13.984   3.023
91781SOL     OW77116  12.314  10.188   0.133
91781SOL    HW177117  12.341  10.273   0.099
91781SOL    HW277118  12.377  10.170   0.204
91782SOL     OW77119  10.440   4.123   8.041
91782SOL    HW177120  10.466   4.196   7.985
91782SOL    HW277121  10.353   4.098   8.010
91783SOL     OW77122   3.032  13.140   3.004
91783SOL    HW177123   3.126  13.120   2.996
91783SOL    HW277124   3.027  13.235   2.992
91784SOL     OW77125  12.390   1.208   8.859
91784SOL    HW177126  12.449   1.178   8.791
91784SOL    HW277127  12.446   1.257   8.920
91785SOL     OW77128  10.930   1.766   4.403
91785SOL    HW177129  10.838   1.744   4.387
91785SOL    HW277130  10.935   1.861   4.392
91786SOL     OW77131  12.898   9.474   3.234
91786SOL    HW177132  12.985   9.515   3.236
91786SOL    HW277133  12.839   9.544   3.204
91787SOL     OW77134  10.953  14.550   6.126
91787SOL    HW177135  10.996  14.477   6.082
91787SOL    HW277136  10.868  14.557   6.083
91788SOL     OW77137   1.443   4.261  14.708
91788SOL    HW177138   1.516   4.247  14.648
91788SOL    HW277139   1.392   4.332  14.668
91789SOL     OW77140   7.114   0.147   1.651
91789SOL    HW177141   7.150   0.236   1.655
91789SOL    HW277142   7.169   0.101   1.588
91790SOL     OW77143   1.931   3.049   1.152
91790SOL    HW177144   1.880   3.129   1.138
91790SOL    HW277145   1.997   3.049   1.082
91791SOL     OW77146  12.952  10.247  13.357
91791SOL    HW177147  12.977  10.248  13.449
91791SOL    HW277148  12.879  10.309  13.351
91792SOL     OW77149   3.820   7.428   0.489
91792SOL    HW177150   3.726   7.425   0.505
91792SOL    HW277151   3.835   7.511   0.445
91793SOL     OW77152   1.086   7.118  10.108
91793SOL    HW177153   1.003   7.161  10.129
91793SOL    HW277154   1.061   7.047  10.049
91794SOL     OW77155   3.559   8.268   9.386
91794SOL    HW177156   3.605   8.348   9.408
91794SOL    HW277157   3.589   8.247   9.297
91795SOL     OW77158   4.043  14.043   3.554
91795SOL    HW177159   3.963  14.009   3.595
91795SOL    HW277160   4.042  14.008   3.465
91796SOL     OW77161   4.774   9.121   9.840
91796SOL    HW177162   4.783   9.213   9.816
91796SOL    HW277163   4.782   9.120   9.935
91797SOL     OW77164  12.501   2.496   7.633
91797SOL    HW177165  12.544   2.556   7.573
91797SOL    HW277166  12.419   2.539   7.657
91798SOL     OW77167  10.048   6.181   3.900
91798SOL    HW177168   9.965   6.227   3.906
91798SOL    HW277169  10.111   6.249   3.874
91799SOL     OW77170  12.047   5.143   0.436
91799SOL    HW177171  12.048   5.055   0.398
91799SOL    HW277172  12.079   5.200   0.366
91800SOL     OW77173  13.027   1.661   3.623
91800SOL    HW177174  13.108   1.629   3.584
91800SOL    HW277175  12.960   1.650   3.555
91801SOL     OW77176   2.079   7.930   7.172
91801SOL    HW177177   2.027   7.937   7.252
91801SOL    HW277178   2.132   7.851   7.184
91802SOL     OW77179  12.333  11.754   8.298
91802SOL    HW177180  12.352  11.823   8.234
91802SOL    HW277181  12.238  11.758   8.310
91803SOL     OW77182  12.490  11.601   2.166
91803SOL    HW177183  12.565  11.596   2.107
91803SOL    HW277184  12.468  11.694   2.170
91804SOL     OW77185   3.464   2.606  10.476
91804SOL    HW177186   3.508   2.552  10.410
91804SOL    HW277187   3.430   2.680  10.427
91805SOL     OW77188   3.324  14.045  10.629
91805SOL    HW177189   3.337  14.102  10.705
91805SOL    HW277190   3.282  14.101  10.564
91806SOL     OW77191   6.341  13.476  13.324
91806SOL    HW177192   6.285  13.553  13.318
91806SOL    HW277193   6.313  13.420  13.252
91807SOL     OW77194   9.888   6.505   7.776
91807SOL    HW177195   9.948   6.566   7.732
91807SOL    HW277196   9.880   6.539   7.865
91808SOL     OW77197   9.165  10.775   4.553
91808SOL    HW177198   9.180  10.681   4.539
91808SOL    HW277199   9.177  10.814   4.466
91809SOL     OW77200   5.519  10.606   6.397
91809SOL    HW177201   5.474  10.674   6.448
91809SOL    HW277202   5.448  10.549   6.366
91810SOL     OW77203  12.397   0.054  13.618
91810SOL    HW177204  12.446  14.851  13.636
91810SOL    HW277205  12.332   0.029  13.553
91811SOL     OW77206   8.349   2.017  10.614
91811SOL    HW177207   8.373   1.979  10.698
91811SOL    HW277208   8.335   2.109  10.632
91812SOL     OW77209  12.203  12.472  14.672
91812SOL    HW177210  12.273  12.463  14.738
91812SOL    HW277211  12.124  12.442  14.718
91813SOL     OW77212  14.342   1.666   4.164
91813SOL    HW177213  14.366   1.585   4.208
91813SOL    HW277214  14.248   1.657   4.145
91814SOL     OW77215  11.592  12.642   3.320
91814SOL    HW177216  11.548  12.722   3.346
91814SOL    HW277217  11.541  12.571   3.360
91815SOL     OW77218  11.379   8.706  11.717
91815SOL    HW177219  11.451   8.731  11.659
91815SOL    HW277220  11.414   8.721  11.806
91816SOL     OW77221   8.088   0.788   5.768
91816SOL    HW177222   8.115   0.738   5.691
91816SOL    HW277223   8.011   0.742   5.801
91817SOL     OW77224   0.783  13.367   3.937
91817SOL    HW177225   0.771  13.326   4.023
91817SOL    HW277226   0.830  13.448   3.956
91818SOL     OW77227   7.071   8.068  11.012
91818SOL    HW177228   7.064   8.160  11.035
91818SOL    HW277229   7.148   8.036  11.058
91819SOL     OW77230  14.702  12.105   9.500
91819SOL    HW177231  14.748  12.148   9.429
91819SOL    HW277232  14.746  12.020   9.510
91820SOL     OW77233   4.327   2.567   9.318
91820SOL    HW177234   4.411   2.593   9.279
91820SOL    HW277235   4.294   2.498   9.261
91821SOL     OW77236   9.111   4.221  11.656
91821SOL    HW177237   9.090   4.131  11.632
91821SOL    HW277238   9.042   4.246  11.718
91822SOL     OW77239   0.391   7.267  14.053
91822SOL    HW177240   0.426   7.323  14.121
91822SOL    HW277241   0.390   7.179  14.092
91823SOL     OW77242   7.712  13.177   0.948
91823SOL    HW177243   7.677  13.207   0.864
91823SOL    HW277244   7.699  13.083   0.947
91824SOL     OW77245   5.501   3.053   4.744
91824SOL    HW177246   5.432   3.053   4.809
91824SOL    HW277247   5.505   2.962   4.713
91825SOL     OW77248   6.665  10.104   3.434
91825SOL    HW177249   6.719  10.182   3.445
91825SOL    HW277250   6.620  10.095   3.518
91826SOL     OW77251  10.961   8.187   9.012
91826SOL    HW177252  10.944   8.098   9.042
91826SOL    HW277253  10.900   8.241   9.062
91827SOL     OW77254   8.656   3.188   2.568
91827SOL    HW177255   8.618   3.269   2.534
91827SOL    HW277256   8.727   3.167   2.507
91828SOL     OW77257   9.018   0.237   3.149
91828SOL    HW177258   9.063   0.227   3.065
91828SOL    HW277259   8.992   0.149   3.174
91829SOL     OW77260   8.214  12.040   4.894
91829SOL    HW177261   8.213  12.054   4.988
91829SOL    HW277262   8.142  12.094   4.861
91830SOL     OW77263  12.013   7.089   7.820
91830SOL    HW177264  12.105   7.095   7.794
91830SOL    HW277265  11.967   7.139   7.753
91831SOL     OW77266  14.707   6.932   3.528
91831SOL    HW177267  14.719   6.837   3.520
91831SOL    HW277268  14.691   6.947   3.621
91832SOL     OW77269  14.141   8.192  13.121
91832SOL    HW177270  14.159   8.198  13.214
91832SOL    HW277271  14.162   8.101  13.099
91833SOL     OW77272   7.157  13.895   1.828
91833SOL    HW177273   7.174  13.934   1.914
91833SOL    HW277274   7.223  13.826   1.819
91834SOL     OW77275   9.420  13.129   9.747
91834SOL    HW177276   9.453  13.072   9.677
91834SOL    HW277277   9.465  13.099   9.826
91835SOL     OW77278  12.825   3.134  13.021
91835SOL    HW177279  12.762   3.137  13.093
91835SOL    HW277280  12.907   3.107  13.061
91836SOL     OW77281   3.866  14.325   0.324
91836SOL    HW177282   3.774  14.307   0.344
91836SOL    HW277283   3.885  14.405   0.374
91837SOL     OW77284   4.753  12.236   5.049
91837SOL    HW177285   4.839  12.252   5.010
91837SOL    HW277286   4.718  12.162   4.998
91838SOL     OW77287  10.500   0.752   4.495
91838SOL    HW177288  10.410   0.727   4.517
91838SOL    HW277289  10.545   0.669   4.479
91839SOL     OW77290  11.107  10.735   0.782
91839SOL    HW177291  11.021  10.763   0.751
91839SOL    HW277292  11.111  10.642   0.759
91840SOL     OW77293  10.635  12.588   3.015
91840SOL    HW177294  10.622  12.683   3.014
91840SOL    HW277295  10.637  12.564   3.107
91841SOL     OW77296   0.259   6.659  13.357
91841SOL    HW177297   0.167   6.683  13.348
91841SOL    HW277298   0.308   6.738  13.335
91842SOL     OW77299   4.579  12.607  11.507
91842SOL    HW177300   4.523  12.536  11.539
91842SOL    HW277301   4.625  12.639  11.585
91843SOL     OW77302  10.229   3.891  13.191
91843SOL    HW177303  10.254   3.983  13.199
91843SOL    HW277304  10.257   3.851  13.273
91844SOL     OW77305   6.605   8.444  12.169
91844SOL    HW177306   6.553   8.510  12.215
91844SOL    HW277307   6.549   8.415  12.097
91845SOL     OW77308  10.981   6.097   1.937
91845SOL    HW177309  10.888   6.105   1.959
91845SOL    HW277310  10.992   6.155   1.862
91846SOL     OW77311   2.588  12.356  13.615
91846SOL    HW177312   2.645  12.402  13.677
91846SOL    HW277313   2.523  12.313  13.670
91847SOL     OW77314  12.631   4.659   0.428
91847SOL    HW177315  12.581   4.740   0.423
91847SOL    HW277316  12.588   4.608   0.497
91848SOL     OW77317   9.756   1.959   6.137
91848SOL    HW177318   9.827   2.023   6.138
91848SOL    HW277319   9.678   2.010   6.115
91849SOL     OW77320  12.396   6.259   9.102
91849SOL    HW177321  12.338   6.301   9.038
91849SOL    HW277322  12.441   6.332   9.145
91850SOL     OW77323   4.866   3.374   2.899
91850SOL    HW177324   4.856   3.329   2.815
91850SOL    HW277325   4.807   3.328   2.958
91851SOL     OW77326   1.469   5.592  14.579
91851SOL    HW177327   1.426   5.615  14.497
91851SOL    HW277328   1.553   5.639  14.577
91852SOL     OW77329   5.637  10.011   8.986
91852SOL    HW177330   5.652  10.081   8.922
91852SOL    HW277331   5.541  10.002   8.989
91853SOL     OW77332  13.286   1.299   6.279
91853SOL    HW177333  13.238   1.376   6.248
91853SOL    HW277334  13.313   1.322   6.368
91854SOL     OW77335   2.081  13.060  14.360
91854SOL    HW177336   2.108  13.133  14.304
91854SOL    HW277337   1.997  13.031  14.323
91855SOL     OW77338   7.494   0.317   0.117
91855SOL    HW177339   7.514   0.404   0.082
91855SOL    HW277340   7.430   0.333   0.187
91856SOL     OW77341   1.562   9.015  12.064
91856SOL    HW177342   1.504   8.939  12.064
91856SOL    HW277343   1.535   9.066  11.988
91857SOL     OW77344   3.741  12.094  10.503
91857SOL    HW177345   3.680  12.031  10.541
91857SOL    HW277346   3.695  12.128  10.426
91858SOL     OW77347   1.256   0.241   8.015
91858SOL    HW177348   1.185   0.179   7.998
91858SOL    HW277349   1.227   0.291   8.091
91859SOL     OW77350   5.586   6.083  12.795
91859SOL    HW177351   5.633   6.102  12.876
91859SOL    HW277352   5.630   6.006  12.759
91860SOL     OW77353   4.789   2.188  12.391
91860SOL    HW177354   4.739   2.248  12.335
91860SOL    HW277355   4.746   2.104  12.378
91861SOL     OW77356  11.167   3.598   1.833
91861SOL    HW177357  11.154   3.687   1.867
91861SOL    HW277358  11.144   3.540   1.905
91862SOL     OW77359   0.336   7.698   2.344
91862SOL    HW177360   0.421   7.719   2.382
91862SOL    HW277361   0.312   7.614   2.384
91863SOL     OW77362   2.312   8.494   3.805
91863SOL    HW177363   2.366   8.476   3.729
91863SOL    HW277364   2.332   8.423   3.866
91864SOL     OW77365   6.358  13.620   4.178
91864SOL    HW177366   6.393  13.691   4.231
91864SOL    HW277367   6.305  13.664   4.111
91865SOL     OW77368   6.543  12.295   1.680
91865SOL    HW177369   6.450  12.276   1.672
91865SOL    HW277370   6.577  12.224   1.735
91866SOL     OW77371   4.359  13.602   0.573
91866SOL    HW177372   4.367  13.693   0.545
91866SOL    HW277373   4.431  13.589   0.634
91867SOL     OW77374  14.779   6.475   4.203
91867SOL    HW177375  14.835   6.445   4.133
91867SOL    HW277376  14.759   6.397   4.254
91868SOL     OW77377   9.007   3.941   1.886
91868SOL    HW177378   8.941   3.972   1.824
91868SOL    HW277379   9.025   4.017   1.941
91869SOL     OW77380   6.974   0.624   7.286
91869SOL    HW177381   6.948   0.609   7.195
91869SOL    HW277382   6.970   0.538   7.327
91870SOL     OW77383  14.174   7.646   5.890
91870SOL    HW177384  14.122   7.569   5.909
91870SOL    HW277385  14.254   7.612   5.851
91871SOL     OW77386   6.272   6.406   0.635
91871SOL    HW177387   6.317   6.377   0.714
91871SOL    HW277388   6.179   6.393   0.656
91872SOL     OW77389   8.737   2.897   0.167
91872SOL    HW177390   8.828   2.894   0.137
91872SOL    HW277391   8.690   2.844   0.102
91873SOL     OW77392  13.249   5.142   4.291
91873SOL    HW177393  13.216   5.226   4.322
91873SOL    HW277394  13.344   5.149   4.298
91874SOL     OW77395   3.038   5.011   3.038
91874SOL    HW177396   3.023   4.929   3.086
91874SOL    HW277397   2.979   5.074   3.078
91875SOL     OW77398   4.021   3.563  13.718
91875SOL    HW177399   4.077   3.545  13.794
91875SOL    HW277400   3.933   3.540  13.748
91876SOL     OW77401   0.960   2.331   5.743
91876SOL    HW177402   0.985   2.383   5.666
91876SOL    HW277403   1.001   2.377   5.816
91877SOL     OW77404   3.637   5.366   2.319
91877SOL    HW177405   3.661   5.275   2.300
91877SOL    HW277406   3.553   5.360   2.365
91878SOL     OW77407   4.648   3.017   1.178
91878SOL    HW177408   4.605   3.092   1.136
91878SOL    HW277409   4.595   2.942   1.152
91879SOL     OW77410  13.750   6.373   6.147
91879SOL    HW177411  13.673   6.335   6.189
91879SOL    HW277412  13.775   6.445   6.205
91880SOL     OW77413   2.495  13.347  13.885
91880SOL    HW177414   2.586  13.376  13.873
91880SOL    HW277415   2.466  13.321  13.798
91881SOL     OW77416  12.369   8.034   3.639
91881SOL    HW177417  12.382   8.075   3.553
91881SOL    HW277418  12.382   8.105   3.702
91882SOL     OW77419   2.536   1.283   3.826
91882SOL    HW177420   2.516   1.189   3.831
91882SOL    HW277421   2.460   1.321   3.783
91883SOL     OW77422   9.530  13.806  13.263
91883SOL    HW177423   9.529  13.758  13.180
91883SOL    HW277424   9.494  13.892  13.241
91884SOL     OW77425   0.025  13.593  12.175
91884SOL    HW177426   0.036  13.509  12.220
91884SOL    HW277427   0.069  13.581  12.091
91885SOL     OW77428   9.828   5.267  11.169
91885SOL    HW177429   9.781   5.184  11.153
91885SOL    HW277430   9.916   5.250  11.137
91886SOL     OW77431  11.137   5.321  13.768
91886SOL    HW177432  11.080   5.394  13.795
91886SOL    HW277433  11.078   5.248  13.755
91887SOL     OW77434   9.913   4.588   2.096
91887SOL    HW177435   9.906   4.506   2.144
91887SOL    HW277436   9.889   4.655   2.159
91888SOL     OW77437   3.535  10.851  11.173
91888SOL    HW177438   3.556  10.856  11.080
91888SOL    HW277439   3.452  10.803  11.177
91889SOL     OW77440   4.531   9.772  14.247
91889SOL    HW177441   4.560   9.744  14.161
91889SOL    HW277442   4.466   9.840  14.230
91890SOL     OW77443   6.541  11.053  13.301
91890SOL    HW177444   6.519  10.970  13.259
91890SOL    HW277445   6.628  11.039  13.339
91891SOL     OW77446   7.626   7.572   2.112
91891SOL    HW177447   7.535   7.572   2.080
91891SOL    HW277448   7.617   7.573   2.208
91892SOL     OW77449   5.473  11.465   8.856
91892SOL    HW177450   5.400  11.451   8.917
91892SOL    HW277451   5.550  11.471   8.912
91893SOL     OW77452   2.708  10.756  10.974
91893SOL    HW177453   2.777  10.758  11.040
91893SOL    HW277454   2.658  10.837  10.989
91894SOL     OW77455   2.443   8.596   8.713
91894SOL    HW177456   2.488   8.615   8.631
91894SOL    HW277457   2.357   8.638   8.703
91895SOL     OW77458   8.891  11.884   9.282
91895SOL    HW177459   8.973  11.838   9.297
91895SOL    HW277460   8.841  11.873   9.363
91896SOL     OW77461   9.269   3.905   9.639
91896SOL    HW177462   9.308   3.901   9.552
91896SOL    HW277463   9.190   3.957   9.628
91897SOL     OW77464   2.392   3.107   4.308
91897SOL    HW177465   2.349   3.023   4.323
91897SOL    HW277466   2.485   3.089   4.322
91898SOL     OW77467  14.025   8.361   9.463
91898SOL    HW177468  14.042   8.387   9.553
91898SOL    HW277469  14.097   8.399   9.413
91899SOL     OW77470  13.975   3.368   3.458
91899SOL    HW177471  13.894   3.418   3.473
91899SOL    HW277472  13.950   3.277   3.475
91900SOL     OW77473   9.045   1.138   9.041
91900SOL    HW177474   9.060   1.047   9.067
91900SOL    HW277475   8.949   1.148   9.042
91901SOL     OW77476  10.062   0.444   8.866
91901SOL    HW177477  10.111   0.514   8.908
91901SOL    HW277478  10.046   0.380   8.936
91902SOL     OW77479   7.287   8.993   5.530
91902SOL    HW177480   7.311   9.010   5.439
91902SOL    HW277481   7.325   9.066   5.579
91903SOL     OW77482  13.132  12.244   7.679
91903SOL    HW177483  13.122  12.327   7.634
91903SOL    HW277484  13.201  12.260   7.744
91904SOL     OW77485   8.580  11.701  11.073
91904SOL    HW177486   8.576  11.616  11.116
91904SOL    HW277487   8.672  11.712  11.051
91905SOL     OW77488   6.592   9.903   7.227
91905SOL    HW177489   6.600   9.855   7.145
91905SOL    HW277490   6.681   9.907   7.262
91906SOL     OW77491   7.271  12.385   0.022
91906SOL    HW177492   7.192  12.434   0.045
91906SOL    HW277493   7.336  12.452   0.004
91907SOL     OW77494  10.313   6.810   1.563
91907SOL    HW177495  10.244   6.745   1.550
91907SOL    HW277496  10.267   6.892   1.580
91908SOL     OW77497   9.039   6.701   0.421
91908SOL    HW177498   9.051   6.698   0.515
91908SOL    HW277499   9.084   6.781   0.393
91909SOL     OW77500   9.833   5.903   3.525
91909SOL    HW177501   9.906   5.861   3.479
91909SOL    HW277502   9.869   5.925   3.611
91910SOL     OW77503   5.251  14.017  12.886
91910SOL    HW177504   5.246  14.102  12.931
91910SOL    HW277505   5.183  14.021  12.820
91911SOL     OW77506  12.956   5.225   0.676
91911SOL    HW177507  13.032   5.283   0.682
91911SOL    HW277508  12.901   5.249   0.751
91912SOL     OW77509   1.170  12.495  13.750
91912SOL    HW177510   1.129  12.495  13.837
91912SOL    HW277511   1.097  12.483  13.690
91913SOL     OW77512  10.344   7.326   6.566
91913SOL    HW177513  10.425   7.354   6.524
91913SOL    HW277514  10.295   7.282   6.497
91914SOL     OW77515   3.066   5.278   7.495
91914SOL    HW177516   3.019   5.328   7.562
91914SOL    HW277517   3.097   5.200   7.541
91915SOL     OW77518  11.321  13.831  14.325
91915SOL    HW177519  11.340  13.756  14.381
91915SOL    HW277520  11.309  13.904  14.386
91916SOL     OW77521   2.492  13.820   3.972
91916SOL    HW177522   2.466  13.779   4.054
91916SOL    HW277523   2.583  13.845   3.985
91917SOL     OW77524   7.369  13.609  14.807
91917SOL    HW177525   7.335  13.677  14.749
91917SOL    HW277526   7.436  13.653  14.859
91918SOL     OW77527   6.930  14.863   1.428
91918SOL    HW177528   6.874  14.796   1.389
91918SOL    HW277529   6.869   0.051   1.462
91919SOL     OW77530   0.416   1.938  13.624
91919SOL    HW177531   0.374   2.008  13.673
91919SOL    HW277532   0.493   1.980  13.584
91920SOL     OW77533  12.875   7.321   0.552
91920SOL    HW177534  12.898   7.370   0.473
91920SOL    HW277535  12.955   7.274   0.576
91921SOL     OW77536   4.182   5.622   2.490
91921SOL    HW177537   4.147   5.623   2.401
91921SOL    HW277538   4.120   5.674   2.541
91922SOL     OW77539   7.625   3.273  11.572
91922SOL    HW177540   7.689   3.343  11.558
91922SOL    HW277541   7.596   3.249  11.485
91923SOL     OW77542   9.439   0.688  12.989
91923SOL    HW177543   9.473   0.740  12.916
91923SOL    HW277544   9.344   0.693  12.980
91924SOL     OW77545  13.567   1.824  11.589
91924SOL    HW177546  13.514   1.889  11.634
91924SOL    HW277547  13.650   1.869  11.570
91925SOL     OW77548  11.659  13.308   1.433
91925SOL    HW177549  11.731  13.331   1.375
91925SOL    HW277550  11.584  13.358   1.401
91926SOL     OW77551  10.150   6.383  13.455
91926SOL    HW177552  10.239   6.402  13.424
91926SOL    HW277553  10.112   6.469  13.475
91927SOL     OW77554   7.754  12.973   2.345
91927SOL    HW177555   7.849  12.984   2.332
91927SOL    HW277556   7.731  12.902   2.285
91928SOL     OW77557  13.584   4.339   7.963
91928SOL    HW177558  13.606   4.430   7.943
91928SOL    HW277559  13.662   4.289   7.940
91929SOL     OW77560  13.871  14.262   1.301
91929SOL    HW177561  13.962  14.239   1.282
91929SOL    HW277562  13.850  14.330   1.237
91930SOL     OW77563  14.810   1.477   8.314
91930SOL    HW177564  14.833   1.451   8.404
91930SOL    HW277565  14.715   1.487   8.316
91931SOL     OW77566  11.358   7.304   9.313
91931SOL    HW177567  11.349   7.221   9.265
91931SOL    HW277568  11.425   7.352   9.265
91932SOL     OW77569   0.567  13.823   3.394
91932SOL    HW177570   0.493  13.883   3.392
91932SOL    HW277571   0.532  13.744   3.437
91933SOL     OW77572   3.520   5.684   9.572
91933SOL    HW177573   3.595   5.719   9.620
91933SOL    HW277574   3.492   5.757   9.517
91934SOL     OW77575  10.574   3.438   8.626
91934SOL    HW177576  10.605   3.523   8.659
91934SOL    HW277577  10.513   3.407   8.693
91935SOL     OW77578   7.842   4.765  10.223
91935SOL    HW177579   7.895   4.807  10.290
91935SOL    HW277580   7.877   4.798  10.140
91936SOL     OW77581  13.803  11.735  11.913
91936SOL    HW177582  13.820  11.785  11.993
91936SOL    HW277583  13.824  11.645  11.935
91937SOL     OW77584  12.427   5.295   6.436
91937SOL    HW177585  12.467   5.209   6.426
91937SOL    HW277586  12.364   5.300   6.364
91938SOL     OW77587   9.637   2.572  11.518
91938SOL    HW177588   9.677   2.629  11.583
91938SOL    HW277589   9.545   2.565  11.545
91939SOL     OW77590   5.759   4.358   6.883
91939SOL    HW177591   5.677   4.315   6.858
91939SOL    HW277592   5.813   4.288   6.919
91940SOL     OW77593  11.936  12.164   8.550
91940SOL    HW177594  12.012  12.144   8.496
91940SOL    HW277595  11.972  12.203   8.629
91941SOL     OW77596   4.227   0.047  13.149
91941SOL    HW177597   4.204   0.137  13.172
91941SOL    HW277598   4.144   0.008  13.120
91942SOL     OW77599   7.183  13.147   5.206
91942SOL    HW177600   7.217  13.232   5.180
91942SOL    HW277601   7.088  13.158   5.210
91943SOL     OW77602  14.275   8.194  12.661
91943SOL    HW177603  14.198   8.144  12.635
91943SOL    HW277604  14.248   8.285  12.653
91944SOL     OW77605   3.431  12.414   5.823
91944SOL    HW177606   3.509  12.439   5.872
91944SOL    HW277607   3.373  12.490   5.832
91945SOL     OW77608   9.269   7.363   1.343
91945SOL    HW177609   9.236   7.453   1.354
91945SOL    HW277610   9.351   7.374   1.295
91946SOL     OW77611   7.458  12.116   2.171
91946SOL    HW177612   7.508  12.178   2.224
91946SOL    HW277613   7.414  12.171   2.106
91947SOL     OW77614   1.555   3.575  13.455
91947SOL    HW177615   1.618   3.631  13.410
91947SOL    HW277616   1.608   3.510  13.500
91948SOL     OW77617  13.762   7.402  12.155
91948SOL    HW177618  13.796   7.492  12.160
91948SOL    HW277619  13.832   7.354  12.109
91949SOL     OW77620   7.162   6.253   7.496
91949SOL    HW177621   7.211   6.233   7.417
91949SOL    HW277622   7.076   6.212   7.482
91950SOL     OW77623  13.543  14.011   3.647
91950SOL    HW177624  13.561  13.931   3.598
91950SOL    HW277625  13.559  13.988   3.738
91951SOL     OW77626   2.989  13.400   7.419
91951SOL    HW177627   2.943  13.382   7.502
91951SOL    HW277628   2.921  13.392   7.352
91952SOL     OW77629   4.952   4.759  11.163
91952SOL    HW177630   5.014   4.687  11.173
91952SOL    HW277631   4.928   4.757  11.070
91953SOL     OW77632   4.082   6.048   3.230
91953SOL    HW177633   4.169   6.029   3.263
91953SOL    HW277634   4.030   6.068   3.308
91954SOL     OW77635   8.892   6.035  11.956
91954SOL    HW177636   8.949   5.958  11.949
91954SOL    HW277637   8.930   6.099  11.896
91955SOL     OW77638   1.273   3.943  13.459
91955SOL    HW177639   1.313   3.879  13.519
91955SOL    HW277640   1.335   4.016  13.457
91956SOL     OW77641   6.073   1.210   2.154
91956SOL    HW177642   6.001   1.181   2.211
91956SOL    HW277643   6.101   1.130   2.108
91957SOL     OW77644  14.149   2.990   4.058
91957SOL    HW177645  14.072   2.948   4.096
91957SOL    HW277646  14.185   3.044   4.128
91958SOL     OW77647   3.868   4.071  13.109
91958SOL    HW177648   3.810   4.006  13.071
91958SOL    HW277649   3.816   4.152  13.110
91959SOL     OW77650   5.249   4.421   9.200
91959SOL    HW177651   5.335   4.392   9.229
91959SOL    HW277652   5.261   4.445   9.108
91960SOL     OW77653   4.739  11.548  11.963
91960SOL    HW177654   4.831  11.525  11.950
91960SOL    HW277655   4.697  11.526  11.880
91961SOL     OW77656   9.827   6.652   6.804
91961SOL    HW177657   9.837   6.741   6.772
91961SOL    HW277658   9.733   6.643   6.819
91962SOL     OW77659   7.220  11.713  13.120
91962SOL    HW177660   7.249  11.740  13.033
91962SOL    HW277661   7.299  11.712  13.174
91963SOL     OW77662   1.181  13.422   7.121
91963SOL    HW177663   1.161  13.329   7.118
91963SOL    HW277664   1.275  13.427   7.105
91964SOL     OW77665   3.770  11.730   5.963
91964SOL    HW177666   3.837  11.662   5.972
91964SOL    HW277667   3.794  11.795   6.029
91965SOL     OW77668   8.254   5.104   9.223
91965SOL    HW177669   8.213   5.056   9.296
91965SOL    HW277670   8.342   5.068   9.218
91966SOL     OW77671   8.142  11.213   9.326
91966SOL    HW177672   8.233  11.221   9.297
91966SOL    HW277673   8.091  11.221   9.245
91967SOL     OW77674  13.739  11.738  10.886
91967SOL    HW177675  13.721  11.720  10.978
91967SOL    HW277676  13.811  11.802  10.888
91968SOL     OW77677   1.472  13.618   8.116
91968SOL    HW177678   1.506  13.576   8.195
91968SOL    HW277679   1.444  13.545   8.061
91969SOL     OW77680   1.274   6.566  10.193
91969SOL    HW177681   1.296   6.482  10.233
91969SOL    HW277682   1.183   6.557  10.165
91970SOL     OW77683   3.302   9.151  11.360
91970SOL    HW177684   3.273   9.224  11.415
91970SOL    HW277685   3.302   9.185  11.271
91971SOL     OW77686   2.752   2.110   3.816
91971SOL    HW177687   2.701   2.114   3.897
91971SOL    HW277688   2.836   2.072   3.843
91972SOL     OW77689   7.156   1.414   0.969
91972SOL    HW177690   7.185   1.330   1.004
91972SOL    HW277691   7.131   1.465   1.046
91973SOL     OW77692   0.302  11.633  14.877
91973SOL    HW177693   0.325  11.726   0.008
91973SOL    HW277694   0.207  11.632   0.007
91974SOL     OW77695   1.047  11.612   2.740
91974SOL    HW177696   1.005  11.563   2.670
91974SOL    HW277697   1.127  11.563   2.759
91975SOL     OW77698   4.104  11.088  13.117
91975SOL    HW177699   4.165  11.040  13.173
91975SOL    HW277700   4.136  11.178  13.117
91976SOL     OW77701  13.881  14.101  12.804
91976SOL    HW177702  13.816  14.169  12.789
91976SOL    HW277703  13.963  14.148  12.817
91977SOL     OW77704   5.603   9.482   9.082
91977SOL    HW177705   5.665   9.547   9.049
91977SOL    HW277706   5.524   9.494   9.029
91978SOL     OW77707  11.947   4.045   0.124
91978SOL    HW177708  11.932   4.102   0.200
91978SOL    HW277709  12.031   4.003   0.142
91979SOL     OW77710   4.973  10.785  10.507
91979SOL    HW177711   4.883  10.779  10.537
91979SOL    HW277712   4.985  10.708  10.451
91980SOL     OW77713   9.992  14.270  10.324
91980SOL    HW177714   9.985  14.178  10.349
91980SOL    HW277715  10.054  14.271  10.251
91981SOL     OW77716   8.622   5.494   1.756
91981SOL    HW177717   8.544   5.461   1.711
91981SOL    HW277718   8.680   5.419   1.763
91982SOL     OW77719   6.669   5.531   2.201
91982SOL    HW177720   6.629   5.454   2.241
91982SOL    HW277721   6.688   5.589   2.275
91983SOL     OW77722   6.843  12.905   6.825
91983SOL    HW177723   6.822  12.813   6.843
91983SOL    HW277724   6.907  12.929   6.892
91984SOL     OW77725   3.426   8.456  10.703
91984SOL    HW177726   3.351   8.452  10.761
91984SOL    HW277727   3.424   8.372  10.656
91985SOL     OW77728   3.893   0.054   3.381
91985SOL    HW177729   3.963   0.119   3.381
91985SOL    HW277730   3.815   0.102   3.410
91986SOL     OW77731   7.157   0.837  13.621
91986SOL    HW177732   7.214   0.888  13.563
91986SOL    HW277733   7.217   0.786  13.676
91987SOL     OW77734   1.266   6.283  13.365
91987SOL    HW177735   1.230   6.194  13.369
91987SOL    HW277736   1.352   6.275  13.406
91988SOL     OW77737   7.490   2.414   3.044
91988SOL    HW177738   7.526   2.479   3.104
91988SOL    HW277739   7.561   2.400   2.980
91989SOL     OW77740   4.599  14.444   9.300
91989SOL    HW177741   4.525  14.407   9.349
91989SOL    HW277742   4.600  14.395   9.218
91990SOL     OW77743   5.164   0.354   2.400
91990SOL    HW177744   5.088   0.300   2.424
91990SOL    HW277745   5.165   0.352   2.304
91991SOL     OW77746  13.327   2.195   1.263
91991SOL    HW177747  13.296   2.285   1.267
91991SOL    HW277748  13.368   2.180   1.348
91992SOL     OW77749   2.935   2.403   0.453
91992SOL    HW177750   2.871   2.471   0.431
91992SOL    HW277751   3.011   2.422   0.397
91993SOL     OW77752  10.894  10.115   8.412
91993SOL    HW177753  10.923  10.206   8.401
91993SOL    HW277754  10.818  10.121   8.470
91994SOL     OW77755  14.732  11.114   5.750
91994SOL    HW177756  14.698  11.061   5.822
91994SOL    HW277757  14.821  11.081   5.735
91995SOL     OW77758   4.434   4.664   2.405
91995SOL    HW177759   4.403   4.655   2.315
91995SOL    HW277760   4.379   4.733   2.442
91996SOL     OW77761   9.176   3.188  10.792
91996SOL    HW177762   9.269   3.165  10.786
91996SOL    HW277763   9.144   3.180  10.702
91997SOL     OW77764   6.950   5.984  14.732
91997SOL    HW177765   7.028   5.978  14.787
91997SOL    HW277766   6.942   6.077  14.712
91998SOL     OW77767   0.627  11.739   6.641
91998SOL    HW177768   0.629  11.692   6.724
91998SOL    HW277769   0.715  11.776   6.632
91999SOL     OW77770   5.993  12.778  10.834
91999SOL    HW177771   6.079  12.781  10.878
91999SOL    HW277772   5.980  12.685  10.814
92000SOL     OW77773   6.002   2.413  14.565
92000SOL    HW177774   5.923   2.437  14.518
92000SOL    HW277775   5.975   2.406  14.657
92001SOL     OW77776   1.828   1.978   0.475
92001SOL    HW177777   1.830   2.043   0.545
92001SOL    HW277778   1.916   1.940   0.474
92002SOL     OW77779  10.183   8.424   8.304
92002SOL    HW177780  10.122   8.411   8.376
92002SOL    HW277781  10.148   8.500   8.257
92003SOL     OW77782  13.795   0.535   8.459
92003SOL    HW177783  13.731   0.506   8.524
92003SOL    HW277784  13.792   0.468   8.391
92004SOL     OW77785  10.258   3.749  12.734
92004SOL    HW177786  10.318   3.809  12.779
92004SOL    HW277787  10.271   3.665  12.779
92005SOL     OW77788  11.454   2.269   2.411
92005SOL    HW177789  11.377   2.321   2.391
92005SOL    HW277790  11.459   2.270   2.507
92006SOL     OW77791   6.524   3.519  12.164
92006SOL    HW177792   6.503   3.565  12.245
92006SOL    HW277793   6.602   3.467  12.186
92007SOL     OW77794  14.822  10.160   9.957
92007SOL    HW177795  14.830  10.119   9.871
92007SOL    HW277796  14.772  10.097  10.009
92008SOL     OW77797  12.404   0.089   1.701
92008SOL    HW177798  12.408   0.039   1.782
92008SOL    HW277799  12.322   0.139   1.707
92009SOL     OW77800   9.929   5.506   8.010
92009SOL    HW177801  10.001   5.455   8.048
92009SOL    HW277802   9.917   5.579   8.070
92010SOL     OW77803   0.760   6.982   4.991
92010SOL    HW177804   0.716   6.906   5.028
92010SOL    HW277805   0.728   6.987   4.901
92011SOL     OW77806   3.538   8.421   7.297
92011SOL    HW177807   3.456   8.376   7.278
92011SOL    HW277808   3.550   8.480   7.222
92012SOL     OW77809   7.180   8.364   3.550
92012SOL    HW177810   7.209   8.372   3.459
92012SOL    HW277811   7.094   8.405   3.552
92013SOL     OW77812   7.607   5.637   9.406
92013SOL    HW177813   7.583   5.712   9.351
92013SOL    HW277814   7.626   5.675   9.491
92014SOL     OW77815   6.723   1.986   2.288
92014SOL    HW177816   6.721   1.890   2.287
92014SOL    HW277817   6.767   2.009   2.207
92015SOL     OW77818   3.863  12.269   3.413
92015SOL    HW177819   3.882  12.363   3.409
92015SOL    HW277820   3.884  12.237   3.326
92016SOL     OW77821   3.268   5.339   8.496
92016SOL    HW177822   3.187   5.312   8.538
92016SOL    HW277823   3.318   5.383   8.566
92017SOL     OW77824   7.312  10.532   4.977
92017SOL    HW177825   7.247  10.463   4.989
92017SOL    HW277826   7.358  10.537   5.061
92018SOL     OW77827   5.535  14.279   6.618
92018SOL    HW177828   5.540  14.254   6.526
92018SOL    HW277829   5.568  14.369   6.621
92019SOL     OW77830   6.773   0.982   3.869
92019SOL    HW177831   6.696   0.997   3.924
92019SOL    HW277832   6.782   0.887   3.866
92020SOL     OW77833   7.984   2.071   5.183
92020SOL    HW177834   7.979   1.982   5.147
92020SOL    HW277835   7.941   2.064   5.268
92021SOL     OW77836   9.672   7.565   1.790
92021SOL    HW177837   9.719   7.503   1.847
92021SOL    HW277838   9.685   7.530   1.702
92022SOL     OW77839  13.176   7.940   3.425
92022SOL    HW177840  13.102   7.881   3.410
92022SOL    HW277841  13.222   7.904   3.500
92023SOL     OW77842  10.663   7.313   0.829
92023SOL    HW177843  10.718   7.235   0.843
92023SOL    HW277844  10.686   7.344   0.742
92024SOL     OW77845   6.694  13.727  12.105
92024SOL    HW177846   6.641  13.734  12.026
92024SOL    HW277847   6.775  13.683  12.075
92025SOL     OW77848   6.365   5.908   4.577
92025SOL    HW177849   6.396   5.860   4.500
92025SOL    HW277850   6.431   5.892   4.644
92026SOL     OW77851  12.143   7.328  10.649
92026SOL    HW177852  12.071   7.309  10.590
92026SOL    HW277853  12.116   7.408  10.695
92027SOL     OW77854   3.002  11.584   2.018
92027SOL    HW177855   3.024  11.645   2.089
92027SOL    HW277856   3.080  11.529   2.009
92028SOL     OW77857   4.999  11.394   1.510
92028SOL    HW177858   5.037  11.334   1.446
92028SOL    HW277859   4.919  11.351   1.539
92029SOL     OW77860   2.478   3.080   5.760
92029SOL    HW177861   2.511   3.089   5.671
92029SOL    HW277862   2.383   3.083   5.751
92030SOL     OW77863  10.884   4.558   4.870
92030SOL    HW177864  10.968   4.584   4.908
92030SOL    HW277865  10.834   4.525   4.945
92031SOL     OW77866  14.648   2.217  10.503
92031SOL    HW177867  14.715   2.285  10.496
92031SOL    HW277868  14.670   2.170  10.583
92032SOL     OW77869   2.160   9.209  11.678
92032SOL    HW177870   2.188   9.275  11.614
92032SOL    HW277871   2.110   9.145  11.628
92033SOL     OW77872  11.574  11.498   3.566
92033SOL    HW177873  11.507  11.443   3.524
92033SOL    HW277874  11.657  11.468   3.529
92034SOL     OW77875   9.682   8.636   3.471
92034SOL    HW177876   9.691   8.678   3.557
92034SOL    HW277877   9.593   8.600   3.471
92035SOL     OW77878  11.158  11.969   1.238
92035SOL    HW177879  11.149  12.060   1.211
92035SOL    HW277880  11.171  11.921   1.156
92036SOL     OW77881  12.454   6.454   9.447
92036SOL    HW177882  12.414   6.535   9.476
92036SOL    HW277883  12.381   6.394   9.431
92037SOL     OW77884  11.667   3.741   7.880
92037SOL    HW177885  11.681   3.798   7.805
92037SOL    HW277886  11.664   3.652   7.844
92038SOL     OW77887   2.521   7.952   5.737
92038SOL    HW177888   2.427   7.937   5.729
92038SOL    HW277889   2.553   7.951   5.647
92039SOL     OW77890   4.314   2.414  12.791
92039SOL    HW177891   4.314   2.339  12.851
92039SOL    HW277892   4.311   2.376  12.704
92040SOL     OW77893  12.299  10.000   7.866
92040SOL    HW177894  12.289  10.085   7.823
92040SOL    HW277895  12.212   9.960   7.863
92041SOL     OW77896   0.113   8.414  13.771
92041SOL    HW177897   0.192   8.437  13.721
92041SOL    HW277898   0.121   8.320  13.786
92042SOL     OW77899  11.899   1.675   9.372
92042SOL    HW177900  11.861   1.627   9.445
92042SOL    HW277901  11.835   1.743   9.351
92043SOL     OW77902  13.279   7.980   0.231
92043SOL    HW177903  13.226   7.991   0.309
92043SOL    HW277904  13.351   8.043   0.242
92044SOL     OW77905  13.764  14.331   5.584
92044SOL    HW177906  13.758  14.237   5.602
92044SOL    HW277907  13.837  14.339   5.523
92045SOL     OW77908   2.577   0.228  12.538
92045SOL    HW177909   2.634   0.156  12.511
92045SOL    HW277910   2.518   0.242  12.464
92046SOL     OW77911   7.870   7.450  13.379
92046SOL    HW177912   7.941   7.416  13.434
92046SOL    HW277913   7.800   7.386  13.387
92047SOL     OW77914   0.952   7.298   3.237
92047SOL    HW177915   0.987   7.303   3.148
92047SOL    HW277916   0.909   7.383   3.250
92048SOL     OW77917   8.950   5.359   9.789
92048SOL    HW177918   8.859   5.386   9.774
92048SOL    HW277919   8.950   5.265   9.771
92049SOL     OW77920   4.650  10.008  13.405
92049SOL    HW177921   4.660   9.922  13.363
92049SOL    HW277922   4.575   9.998  13.463
92050SOL     OW77923  10.123   0.533  10.558
92050SOL    HW177924  10.152   0.454  10.604
92050SOL    HW277925  10.185   0.544  10.486
92051SOL     OW77926   4.703   7.011   5.799
92051SOL    HW177927   4.720   7.105   5.804
92051SOL    HW277928   4.613   7.004   5.768
92052SOL     OW77929  14.864   2.213   6.772
92052SOL    HW177930   0.060   2.232   6.714
92052SOL    HW277931   0.016   2.141   6.827
92053SOL     OW77932  12.873   5.448   4.598
92053SOL    HW177933  12.886   5.397   4.678
92053SOL    HW277934  12.779   5.463   4.594
92054SOL     OW77935   9.192   9.651   2.310
92054SOL    HW177936   9.235   9.725   2.266
92054SOL    HW277937   9.221   9.659   2.402
92055SOL     OW77938   0.665  10.695   0.530
92055SOL    HW177939   0.652  10.608   0.566
92055SOL    HW277940   0.682  10.680   0.437
92056SOL     OW77941  13.998   9.787   5.580
92056SOL    HW177942  13.963   9.815   5.496
92056SOL    HW277943  14.093   9.790   5.569
92057SOL     OW77944   1.100   7.905   1.286
92057SOL    HW177945   1.163   7.941   1.348
92057SOL    HW277946   1.153   7.867   1.216
92058SOL     OW77947   4.826   3.137   1.377
92058SOL    HW177948   4.785   3.101   1.298
92058SOL    HW277949   4.764   3.203   1.408
92059SOL     OW77950  10.109   9.822   5.758
92059SOL    HW177951  10.070   9.791   5.840
92059SOL    HW277952  10.199   9.846   5.782
92060SOL     OW77953   1.330   0.535   9.280
92060SOL    HW177954   1.363   0.450   9.249
92060SOL    HW277955   1.345   0.533   9.375
92061SOL     OW77956   7.022   4.196   6.343
92061SOL    HW177957   6.968   4.249   6.401
92061SOL    HW277958   7.094   4.255   6.318
92062SOL     OW77959   7.931  13.805   6.225
92062SOL    HW177960   7.841  13.796   6.259
92062SOL    HW277961   7.926  13.767   6.137
92063SOL     OW77962   5.018   5.986  10.729
92063SOL    HW177963   5.033   6.079  10.715
92063SOL    HW277964   5.077   5.943  10.667
92064SOL     OW77965   3.971  10.859  14.186
92064SOL    HW177966   3.962  10.774  14.228
92064SOL    HW277967   3.967  10.922  14.258
92065SOL     OW77968   6.546   6.384   2.810
92065SOL    HW177969   6.634   6.347   2.820
92065SOL    HW277970   6.554   6.447   2.739
92066SOL     OW77971  14.003  14.252   0.722
92066SOL    HW177972  14.074  14.295   0.674
92066SOL    HW277973  14.008  14.288   0.810
92067SOL     OW77974  13.709   5.733   5.958
92067SOL    HW177975  13.711   5.657   5.900
92067SOL    HW277976  13.717   5.696   6.046
92068SOL     OW77977   5.836  13.136  11.294
92068SOL    HW177978   5.773  13.205  11.316
92068SOL    HW277979   5.838  13.079  11.371
92069SOL     OW77980   2.610   0.866  13.117
92069SOL    HW177981   2.578   0.914  13.040
92069SOL    HW277982   2.639   0.782  13.082
92070SOL     OW77983   7.496   2.935   6.559
92070SOL    HW177984   7.571   2.985   6.526
92070SOL    HW277985   7.481   2.969   6.647
92071SOL     OW77986   0.887   0.811  13.427
92071SOL    HW177987   0.963   0.868  13.428
92071SOL    HW277988   0.893   0.763  13.344
92072SOL     OW77989   5.618   7.186  11.460
92072SOL    HW177990   5.566   7.115  11.499
92072SOL    HW277991   5.677   7.142  11.399
92073SOL     OW77992   7.904   6.467   8.819
92073SOL    HW177993   7.948   6.547   8.792
92073SOL    HW277994   7.975   6.406   8.841
92074SOL     OW77995  13.285   0.431   1.307
92074SOL    HW177996  13.310   0.344   1.276
92074SOL    HW277997  13.222   0.415   1.377
92075SOL     OW77998  14.310   0.315   4.321
92075SOL    HW177999  14.400   0.305   4.289
92075SOL    HW278000  14.313   0.394   4.375
92076SOL     OW78001   7.969   7.123  11.619
92076SOL    HW178002   8.062   7.117  11.642
92076SOL    HW278003   7.968   7.129  11.524
92077SOL     OW78004   0.690   7.407  13.731
92077SOL    HW178005   0.745   7.471  13.685
92077SOL    HW278006   0.687   7.440  13.821
92078SOL     OW78007   2.296   6.885   3.805
92078SOL    HW178008   2.339   6.971   3.799
92078SOL    HW278009   2.244   6.890   3.885
92079SOL     OW78010   9.160  11.604   1.365
92079SOL    HW178011   9.071  11.639   1.360
92079SOL    HW278012   9.149  11.516   1.399
92080SOL     OW78013   9.346   3.799   8.539
92080SOL    HW178014   9.407   3.868   8.567
92080SOL    HW278015   9.396   3.718   8.549
92081SOL     OW78016   6.815  12.268  13.067
92081SOL    HW178017   6.891  12.307  13.023
92081SOL    HW278018   6.827  12.291  13.159
92082SOL     OW78019   7.457  12.008  13.684
92082SOL    HW178020   7.456  11.923  13.640
92082SOL    HW278021   7.547  12.016  13.718
92083SOL     OW78022  12.344  12.902   9.671
92083SOL    HW178023  12.250  12.896   9.651
92083SOL    HW278024  12.347  12.932   9.761
92084SOL     OW78025  10.236   1.899   2.175
92084SOL    HW178026  10.296   1.841   2.221
92084SOL    HW278027  10.276   1.985   2.181
92085SOL     OW78028  10.425   4.677   0.481
92085SOL    HW178029  10.447   4.670   0.387
92085SOL    HW278030  10.502   4.718   0.520
92086SOL     OW78031   6.957  11.374  13.847
92086SOL    HW178032   6.920  11.311  13.786
92086SOL    HW278033   6.967  11.325  13.929
92087SOL     OW78034   2.671   8.207   3.171
92087SOL    HW178035   2.587   8.187   3.213
92087SOL    HW278036   2.720   8.126   3.177
92088SOL     OW78037   4.825   3.542   1.279
92088SOL    HW178038   4.824   3.638   1.286
92088SOL    HW278039   4.901   3.515   1.331
92089SOL     OW78040  14.408   9.755   8.279
92089SOL    HW178041  14.424   9.661   8.267
92089SOL    HW278042  14.318   9.760   8.310
92090SOL     OW78043  10.278   6.807   0.205
92090SOL    HW178044  10.210   6.874   0.196
92090SOL    HW278045  10.241   6.744   0.267
92091SOL     OW78046  13.977   4.153  12.127
92091SOL    HW178047  13.971   4.161  12.223
92091SOL    HW278048  14.049   4.092  12.113
92092SOL     OW78049   9.182   0.512   5.784
92092SOL    HW178050   9.087   0.500   5.785
92092SOL    HW278051   9.203   0.532   5.693
92093SOL     OW78052   4.478   8.666   6.742
92093SOL    HW178053   4.556   8.699   6.699
92093SOL    HW278054   4.510   8.628   6.824
92094SOL     OW78055   6.273   5.441   1.972
92094SOL    HW178056   6.206   5.428   1.905
92094SOL    HW278057   6.342   5.490   1.927
92095SOL     OW78058   9.697   9.633   5.599
92095SOL    HW178059   9.694   9.590   5.684
92095SOL    HW278060   9.775   9.688   5.602
92096SOL     OW78061   0.589   1.283   4.401
92096SOL    HW178062   0.634   1.363   4.375
92096SOL    HW278063   0.529   1.310   4.470
92097SOL     OW78064   7.287   6.417   0.458
92097SOL    HW178065   7.312   6.508   0.467
92097SOL    HW278066   7.232   6.414   0.379
92098SOL     OW78067   8.179   1.790   9.453
92098SOL    HW178068   8.101   1.813   9.402
92098SOL    HW278069   8.234   1.742   9.391
92099SOL     OW78070   2.608   6.776   4.069
92099SOL    HW178071   2.645   6.842   4.127
92099SOL    HW278072   2.677   6.760   4.005
92100SOL     OW78073   4.581   7.796   3.287
92100SOL    HW178074   4.511   7.751   3.335
92100SOL    HW278075   4.576   7.887   3.317
92101SOL     OW78076   6.257   4.864  14.543
92101SOL    HW178077   6.236   4.822  14.459
92101SOL    HW278078   6.260   4.792  14.606
92102SOL     OW78079  13.577   3.125  12.589
92102SOL    HW178080  13.658   3.162  12.553
92102SOL    HW278081  13.507   3.167  12.540
92103SOL     OW78082  12.927   6.255   0.548
92103SOL    HW178083  13.008   6.273   0.501
92103SOL    HW278084  12.910   6.336   0.597
92104SOL     OW78085   2.070   3.027   4.981
92104SOL    HW178086   1.984   3.028   5.024
92104SOL    HW278087   2.054   2.982   4.898
92105SOL     OW78088   4.476  14.253   7.321
92105SOL    HW178089   4.535  14.263   7.396
92105SOL    HW278090   4.524  14.291   7.248
92106SOL     OW78091   8.243   4.255   6.904
92106SOL    HW178092   8.284   4.168   6.913
92106SOL    HW278093   8.195   4.251   6.821
92107SOL     OW78094   8.258   1.040  14.357
92107SOL    HW178095   8.273   1.114  14.415
92107SOL    HW278096   8.180   0.997  14.393
92108SOL     OW78097   9.251   9.933   1.086
92108SOL    HW178098   9.284   9.908   1.000
92108SOL    HW278099   9.224  10.024   1.076
92109SOL     OW78100  10.709   1.278   5.911
92109SOL    HW178101  10.731   1.337   5.840
92109SOL    HW278102  10.777   1.211   5.910
92110SOL     OW78103   6.177   3.669   5.870
92110SOL    HW178104   6.138   3.604   5.928
92110SOL    HW278105   6.261   3.631   5.844
92111SOL     OW78106   0.620   6.676   6.065
92111SOL    HW178107   0.622   6.772   6.059
92111SOL    HW278108   0.612   6.659   6.159
92112SOL     OW78109  12.706   3.999   0.531
92112SOL    HW178110  12.712   4.049   0.450
92112SOL    HW278111  12.773   4.037   0.587
92113SOL     OW78112   3.823   2.335   2.181
92113SOL    HW178113   3.762   2.384   2.236
92113SOL    HW278114   3.857   2.400   2.118
92114SOL     OW78115  10.933   5.728   6.990
92114SOL    HW178116  10.856   5.784   6.975
92114SOL    HW278117  11.006   5.790   6.998
92115SOL     OW78118   8.430   5.211  14.401
92115SOL    HW178119   8.512   5.161  14.396
92115SOL    HW278120   8.452   5.296  14.363
92116SOL     OW78121   8.911  12.030  13.523
92116SOL    HW178122   8.817  12.012  13.516
92116SOL    HW278123   8.933  12.075  13.442
92117SOL     OW78124   9.564  10.709   0.062
92117SOL    HW178125   9.486  10.674   0.019
92117SOL    HW278126   9.540  10.715   0.155
92118SOL     OW78127   6.360  12.526   0.112
92118SOL    HW178128   6.451  12.496   0.102
92118SOL    HW278129   6.365  12.598   0.175
92119SOL     OW78130   5.275   2.405   4.507
92119SOL    HW178131   5.230   2.488   4.523
92119SOL    HW278132   5.255   2.351   4.584
92120SOL     OW78133   2.304  12.625   1.481
92120SOL    HW178134   2.330  12.687   1.550
92120SOL    HW278135   2.362  12.550   1.494
92121SOL     OW78136   5.493  14.543   6.011
92121SOL    HW178137   5.423  14.480   5.996
92121SOL    HW278138   5.570  14.489   6.031
92122SOL     OW78139   8.250   8.455   2.903
92122SOL    HW178140   8.235   8.528   2.843
92122SOL    HW278141   8.163   8.424   2.925
92123SOL     OW78142   5.135   1.120  11.486
92123SOL    HW178143   5.056   1.086  11.443
92123SOL    HW278144   5.195   1.139  11.414
92124SOL     OW78145   6.562   2.126   6.118
92124SOL    HW178146   6.560   2.126   6.023
92124SOL    HW278147   6.625   2.194   6.141
92125SOL     OW78148   1.789   8.435  11.828
92125SOL    HW178149   1.712   8.411  11.777
92125SOL    HW278150   1.817   8.519  11.792
92126SOL     OW78151  10.565  14.853  14.441
92126SOL    HW178152  10.548   0.069  14.444
92126SOL    HW278153  10.622  14.841  14.365
92127SOL     OW78154   2.750   6.297   3.467
92127SOL    HW178155   2.756   6.380   3.515
92127SOL    HW278156   2.836   6.286   3.427
92128SOL     OW78157  12.809   8.020  12.306
92128SOL    HW178158  12.759   8.020  12.388
92128SOL    HW278159  12.798   8.108  12.271
92129SOL     OW78160   4.680  12.447   3.086
92129SOL    HW178161   4.650  12.373   3.032
92129SOL    HW278162   4.775  12.437   3.089
92130SOL     OW78163   7.678   2.091   3.473
92130SOL    HW178164   7.718   2.165   3.427
92130SOL    HW278165   7.625   2.048   3.406
92131SOL     OW78166  13.429   6.309  10.172
92131SOL    HW178167  13.485   6.300  10.095
92131SOL    HW278168  13.475   6.260  10.241
92132SOL     OW78169   4.896   8.718   7.369
92132SOL    HW178170   4.840   8.666   7.311
92132SOL    HW278171   4.845   8.798   7.386
92133SOL     OW78172   4.719   0.323   9.309
92133SOL    HW178173   4.651   0.292   9.368
92133SOL    HW278174   4.688   0.300   9.222
92134SOL     OW78175   6.210  11.999   9.661
92134SOL    HW178176   6.227  11.927   9.601
92134SOL    HW278177   6.298  12.026   9.691
92135SOL     OW78178   4.423   3.364   7.852
92135SOL    HW178179   4.385   3.281   7.880
92135SOL    HW278180   4.414   3.363   7.757
92136SOL     OW78181  13.828   2.202   2.422
92136SOL    HW178182  13.780   2.123   2.446
92136SOL    HW278183  13.920   2.176   2.424
92137SOL     OW78184   2.618   5.614  12.007
92137SOL    HW178185   2.563   5.535  12.007
92137SOL    HW278186   2.694   5.590  12.060
92138SOL     OW78187  10.610  14.732   7.228
92138SOL    HW178188  10.564  14.808   7.265
92138SOL    HW278189  10.554  14.658   7.249
92139SOL     OW78190   3.966   9.103   0.904
92139SOL    HW178191   3.979   9.018   0.863
92139SOL    HW278192   3.926   9.157   0.836
92140SOL     OW78193  12.391  13.544   8.465
92140SOL    HW178194  12.407  13.620   8.521
92140SOL    HW278195  12.365  13.474   8.526
92141SOL     OW78196   4.119  11.990   6.746
92141SOL    HW178197   4.199  11.954   6.708
92141SOL    HW278198   4.049  11.939   6.706
92142SOL     OW78199   7.766   7.037   0.808
92142SOL    HW178200   7.726   7.003   0.888
92142SOL    HW278201   7.844   7.084   0.838
92143SOL     OW78202   6.218   3.495  14.172
92143SOL    HW178203   6.137   3.501  14.120
92143SOL    HW278204   6.279   3.448  14.116
92144SOL     OW78205   6.403  12.771  13.769
92144SOL    HW178206   6.418  12.796  13.678
92144SOL    HW278207   6.491  12.772  13.808
92145SOL     OW78208   3.938   7.591   9.212
92145SOL    HW178209   3.950   7.582   9.306
92145SOL    HW278210   3.913   7.503   9.182
92146SOL     OW78211   0.723   1.791   8.252
92146SOL    HW178212   0.701   1.876   8.288
92146SOL    HW278213   0.716   1.730   8.326
92147SOL     OW78214   1.490   4.383  12.024
92147SOL    HW178215   1.521   4.294  12.038
92147SOL    HW278216   1.396   4.373  12.006
92148SOL     OW78217   6.682   9.932  14.190
92148SOL    HW178218   6.664   9.971  14.276
92148SOL    HW278219   6.630   9.983  14.129
92149SOL     OW78220   1.154  14.026   2.249
92149SOL    HW178221   1.159  13.936   2.282
92149SOL    HW278222   1.085  14.066   2.302
92150SOL     OW78223   7.904  11.873  13.883
92150SOL    HW178224   7.972  11.934  13.910
92150SOL    HW278225   7.946  11.818  13.816
92151SOL     OW78226  12.573  11.197   7.477
92151SOL    HW178227  12.652  11.251   7.485
92151SOL    HW278228  12.502  11.260   7.465
92152SOL     OW78229  11.877   5.250   3.364
92152SOL    HW178230  11.873   5.312   3.291
92152SOL    HW278231  11.941   5.184   3.336
92153SOL     OW78232   9.211  13.496  13.338
92153SOL    HW178233   9.304  13.481  13.353
92153SOL    HW278234   9.207  13.546  13.256
92154SOL     OW78235   1.706  13.995  10.629
92154SOL    HW178236   1.630  14.054  10.634
92154SOL    HW278237   1.681  13.931  10.562
92155SOL     OW78238   7.510  10.589   0.397
92155SOL    HW178239   7.493  10.509   0.447
92155SOL    HW278240   7.520  10.560   0.307
92156SOL     OW78241   6.959   2.024   3.524
92156SOL    HW178242   6.903   2.036   3.602
92156SOL    HW278243   6.899   2.035   3.450
92157SOL     OW78244   9.910   7.570  10.910
92157SOL    HW178245   9.866   7.603  10.831
92157SOL    HW278246   9.839   7.546  10.969
92158SOL     OW78247   4.185   1.963   6.875
92158SOL    HW178248   4.158   2.031   6.814
92158SOL    HW278249   4.103   1.932   6.914
92159SOL     OW78250   2.086   3.540   3.232
92159SOL    HW178251   2.074   3.632   3.213
92159SOL    HW278252   2.181   3.531   3.246
92160SOL     OW78253   3.898   8.411   8.239
92160SOL    HW178254   3.911   8.485   8.298
92160SOL    HW278255   3.875   8.451   8.155
92161SOL     OW78256  14.064   7.135   1.208
92161SOL    HW178257  14.097   7.224   1.214
92161SOL    HW278258  13.974   7.141   1.241
92162SOL     OW78259  10.027   6.589  13.188
92162SOL    HW178260   9.954   6.625  13.238
92162SOL    HW278261  10.090   6.661  13.182
92163SOL     OW78262   4.080   8.793   1.249
92163SOL    HW178263   4.038   8.876   1.269
92163SOL    HW278264   4.173   8.815   1.235
92164SOL     OW78265  11.196  11.419  13.628
92164SOL    HW178266  11.278  11.394  13.671
92164SOL    HW278267  11.224  11.473  13.553
92165SOL     OW78268   1.388   9.464   4.601
92165SOL    HW178269   1.414   9.483   4.691
92165SOL    HW278270   1.346   9.545   4.571
92166SOL     OW78271   6.144  12.412   0.041
92166SOL    HW178272   6.224  12.453   0.073
92166SOL    HW278273   6.170  12.324   0.014
92167SOL     OW78274   2.323   2.663   2.146
92167SOL    HW178275   2.295   2.584   2.099
92167SOL    HW278276   2.245   2.718   2.148
92168SOL     OW78277   9.715   3.530   4.084
92168SOL    HW178278   9.641   3.470   4.082
92168SOL    HW278279   9.698   3.592   4.014
92169SOL     OW78280  13.331   1.963  12.776
92169SOL    HW178281  13.278   2.035  12.810
92169SOL    HW278282  13.283   1.884  12.800
92170SOL     OW78283  14.489  13.427  10.399
92170SOL    HW178284  14.411  13.479  10.383
92170SOL    HW278285  14.515  13.449  10.489
92171SOL     OW78286  12.949  11.512  11.625
92171SOL    HW178287  12.929  11.580  11.689
92171SOL    HW278288  12.900  11.435  11.655
92172SOL     OW78289   2.865   3.653   0.908
92172SOL    HW178290   2.938   3.686   0.856
92172SOL    HW278291   2.907   3.604   0.979
92173SOL     OW78292   4.762   9.304   6.230
92173SOL    HW178293   4.704   9.314   6.306
92173SOL    HW278294   4.847   9.281   6.268
92174SOL     OW78295   4.375   2.159   6.987
92174SOL    HW178296   4.326   2.082   6.958
92174SOL    HW278297   4.466   2.139   6.963
92175SOL     OW78298   1.485   8.843  14.162
92175SOL    HW178299   1.489   8.853  14.258
92175SOL    HW278300   1.577   8.848  14.134
92176SOL     OW78301  11.632  10.975   4.439
92176SOL    HW178302  11.715  10.938   4.470
92176SOL    HW278303  11.634  10.962   4.344
92177SOL     OW78304  10.034   8.301  13.427
92177SOL    HW178305   9.972   8.243  13.470
92177SOL    HW278306  10.110   8.246  13.409
92178SOL     OW78307  13.972  11.605  11.363
92178SOL    HW178308  13.942  11.521  11.328
92178SOL    HW278309  13.936  11.606  11.452
92179SOL     OW78310   1.347  10.737   9.286
92179SOL    HW178311   1.431  10.778   9.307
92179SOL    HW278312   1.286  10.810   9.278
92180SOL     OW78313   5.542   4.216   6.843
92180SOL    HW178314   5.512   4.157   6.774
92180SOL    HW278315   5.476   4.207   6.912
92181SOL     OW78316  14.636  10.358   5.225
92181SOL    HW178317  14.590  10.319   5.150
92181SOL    HW278318  14.702  10.415   5.185
92182SOL     OW78319   1.181   6.585  11.225
92182SOL    HW178320   1.148   6.499  11.252
92182SOL    HW278321   1.238   6.566  11.151
92183SOL     OW78322  13.206  11.060   0.283
92183SOL    HW178323  13.219  10.974   0.323
92183SOL    HW278324  13.196  11.041   0.189
92184SOL     OW78325  13.207   5.971   2.971
92184SOL    HW178326  13.261   5.993   2.895
92184SOL    HW278327  13.248   5.892   3.006
92185SOL     OW78328   9.040   4.905  11.601
92185SOL    HW178329   9.079   4.846  11.665
92185SOL    HW278330   8.953   4.924  11.636
92186SOL     OW78331   0.206  11.104   8.896
92186SOL    HW178332   0.200  11.011   8.920
92186SOL    HW278333   0.223  11.149   8.978
92187SOL     OW78334   8.403  13.000   5.538
92187SOL    HW178335   8.359  13.085   5.545
92187SOL    HW278336   8.494  13.021   5.520
92188SOL     OW78337   9.729   2.460   0.201
92188SOL    HW178338   9.774   2.515   0.265
92188SOL    HW278339   9.695   2.523   0.137
92189SOL     OW78340  11.864   3.583  10.703
92189SOL    HW178341  11.810   3.544  10.635
92189SOL    HW278342  11.945   3.533  10.702
92190SOL     OW78343  13.101  13.325  13.236
92190SOL    HW178344  13.049  13.283  13.168
92190SOL    HW278345  13.154  13.255  13.273
92191SOL     OW78346   9.611   5.384   7.661
92191SOL    HW178347   9.537   5.434   7.627
92191SOL    HW278348   9.642   5.435   7.736
92192SOL     OW78349   9.649   8.213   6.166
92192SOL    HW178350   9.668   8.217   6.259
92192SOL    HW278351   9.632   8.120   6.148
92193SOL     OW78352   8.135  14.105  13.941
92193SOL    HW178353   8.067  14.113  13.875
92193SOL    HW278354   8.089  14.082  14.021
92194SOL     OW78355   0.940  11.036   7.869
92194SOL    HW178356   0.861  11.090   7.863
92194SOL    HW278357   0.932  10.993   7.955
92195SOL     OW78358   1.869   0.887   1.497
92195SOL    HW178359   1.942   0.842   1.540
92195SOL    HW278360   1.875   0.977   1.529
92196SOL     OW78361   6.075  14.357   7.882
92196SOL    HW178362   6.006  14.365   7.948
92196SOL    HW278363   6.079  14.263   7.863
92197SOL     OW78364   1.996   6.532   7.498
92197SOL    HW178365   1.922   6.517   7.439
92197SOL    HW278366   2.049   6.598   7.453
92198SOL     OW78367   5.327  13.643  14.694
92198SOL    HW178368   5.288  13.598  14.619
92198SOL    HW278369   5.318  13.581  14.766
92199SOL     OW78370   4.790  14.503   6.260
92199SOL    HW178371   4.864  14.536   6.210
92199SOL    HW278372   4.723  14.481   6.195
92200SOL     OW78373   3.329   7.087   6.619
92200SOL    HW178374   3.293   7.002   6.645
92200SOL    HW278375   3.252   7.142   6.605
92201SOL     OW78376   3.383   9.351   3.508
92201SOL    HW178377   3.295   9.387   3.517
92201SOL    HW278378   3.441   9.422   3.532
92202SOL     OW78379   3.797   2.503  13.708
92202SOL    HW178380   3.857   2.428  13.717
92202SOL    HW278381   3.835   2.555  13.637
92203SOL     OW78382   7.365   6.333   2.007
92203SOL    HW178383   7.391   6.334   1.915
92203SOL    HW278384   7.299   6.264   2.013
92204SOL     OW78385   0.428  10.728   2.599
92204SOL    HW178386   0.517  10.761   2.608
92204SOL    HW278387   0.411  10.682   2.681
92205SOL     OW78388   4.485   7.406  12.456
92205SOL    HW178389   4.446   7.463  12.390
92205SOL    HW278390   4.471   7.318  12.422
92206SOL     OW78391  12.886  14.567   5.559
92206SOL    HW178392  12.837  14.581   5.641
92206SOL    HW278393  12.878  14.473   5.543
92207SOL     OW78394   7.964  13.244   3.351
92207SOL    HW178395   7.873  13.270   3.336
92207SOL    HW278396   7.958  13.167   3.407
92208SOL     OW78397   7.734   5.455  14.527
92208SOL    HW178398   7.779   5.382  14.485
92208SOL    HW278399   7.650   5.420  14.554
92209SOL     OW78400   7.710  11.655  12.268
92209SOL    HW178401   7.638  11.717  12.278
92209SOL    HW278402   7.789  11.709  12.267
92210SOL     OW78403   1.216  11.043  11.710
92210SOL    HW178404   1.285  11.095  11.752
92210SOL    HW278405   1.135  11.086  11.736
92211SOL     OW78406   2.038  10.797  13.432
92211SOL    HW178407   2.015  10.848  13.510
92211SOL    HW278408   2.116  10.840  13.397
92212SOL     OW78409  11.229  14.811   7.228
92212SOL    HW178410  11.164  14.849   7.287
92212SOL    HW278411  11.313  14.841   7.262
92213SOL     OW78412  11.980   7.347   6.672
92213SOL    HW178413  11.999   7.311   6.585
92213SOL    HW278414  11.934   7.276   6.717
92214SOL     OW78415   7.905   2.138   9.235
92214SOL    HW178416   7.865   2.125   9.149
92214SOL    HW278417   7.925   2.050   9.265
92215SOL     OW78418  14.580  10.390   4.652
92215SOL    HW178419  14.529  10.454   4.701
92215SOL    HW278420  14.550  10.399   4.561
92216SOL     OW78421   6.528  11.625  10.716
92216SOL    HW178422   6.619  11.607  10.693
92216SOL    HW278423   6.515  11.718  10.696
92217SOL     OW78424   9.957  12.687   7.795
92217SOL    HW178425   9.984  12.699   7.704
92217SOL    HW278426  10.037  12.700   7.845
92218SOL     OW78427   1.802   7.025  14.211
92218SOL    HW178428   1.710   7.029  14.235
92218SOL    HW278429   1.802   7.001  14.118
92219SOL     OW78430   2.055   1.046   4.351
92219SOL    HW178431   1.964   1.024   4.330
92219SOL    HW278432   2.089   0.967   4.393
92220SOL     OW78433   0.875   0.790   6.025
92220SOL    HW178434   0.786   0.762   6.003
92220SOL    HW278435   0.925   0.708   6.031
92221SOL     OW78436   2.843   9.399   0.504
92221SOL    HW178437   2.881   9.347   0.575
92221SOL    HW278438   2.917   9.451   0.470
92222SOL     OW78439   1.511  12.621   2.840
92222SOL    HW178440   1.519  12.601   2.934
92222SOL    HW278441   1.582  12.683   2.823
92223SOL     OW78442  11.864   4.923   3.973
92223SOL    HW178443  11.941   4.921   4.030
92223SOL    HW278444  11.878   4.851   3.911
92224SOL     OW78445  12.420   0.139   9.266
92224SOL    HW178446  12.413   0.053   9.226
92224SOL    HW278447  12.330   0.161   9.290
92225SOL     OW78448  11.864  14.177  11.772
92225SOL    HW178449  11.792  14.191  11.833
92225SOL    HW278450  11.860  14.251  11.712
92226SOL     OW78451   5.385   9.042  13.094
92226SOL    HW178452   5.454   9.079  13.038
92226SOL    HW278453   5.400   9.082  13.179
92227SOL     OW78454   6.436   5.184   5.893
92227SOL    HW178455   6.491   5.238   5.949
92227SOL    HW278456   6.425   5.235   5.813
92228SOL     OW78457   7.306   7.456   0.504
92228SOL    HW178458   7.279   7.512   0.577
92228SOL    HW278459   7.371   7.507   0.457
92229SOL     OW78460   4.483   1.147   2.899
92229SOL    HW178461   4.523   1.076   2.848
92229SOL    HW278462   4.391   1.121   2.908
92230SOL     OW78463  10.627   0.050   0.609
92230SOL    HW178464  10.652   0.077   0.520
92230SOL    HW278465  10.579  14.846   0.596
92231SOL     OW78466   7.208   6.295   0.196
92231SOL    HW178467   7.248   6.347   0.126
92231SOL    HW278468   7.119   6.330   0.204
92232SOL     OW78469   1.177  10.110  13.139
92232SOL    HW178470   1.118  10.129  13.066
92232SOL    HW278471   1.175  10.014  13.146
92233SOL     OW78472  14.203   7.355  14.574
92233SOL    HW178473  14.214   7.398  14.659
92233SOL    HW278474  14.108   7.346  14.563
92234SOL     OW78475   0.348   7.078   2.298
92234SOL    HW178476   0.312   7.137   2.231
92234SOL    HW278477   0.380   7.002   2.249
92235SOL     OW78478   5.079   0.291   8.666
92235SOL    HW178479   5.138   0.365   8.685
92235SOL    HW278480   5.015   0.327   8.605
92236SOL     OW78481  10.392   5.858   0.636
92236SOL    HW178482  10.372   5.800   0.709
92236SOL    HW278483  10.386   5.803   0.559
92237SOL     OW78484  14.759   2.233  11.154
92237SOL    HW178485  14.712   2.262  11.076
92237SOL    HW278486  14.771   2.314  11.205
92238SOL     OW78487   6.922   9.944   6.947
92238SOL    HW178488   6.921   9.854   6.915
92238SOL    HW278489   6.946   9.936   7.039
92239SOL     OW78490  11.712  10.949  10.525
92239SOL    HW178491  11.748  10.945  10.614
92239SOL    HW278492  11.777  10.998  10.475
92240SOL     OW78493  10.188   2.211   4.704
92240SOL    HW178494  10.227   2.145   4.762
92240SOL    HW278495  10.127   2.162   4.650
92241SOL     OW78496  13.881  11.193   8.077
92241SOL    HW178497  13.926  11.176   7.995
92241SOL    HW278498  13.813  11.125   8.082
92242SOL     OW78499   5.359   4.010   2.068
92242SOL    HW178500   5.410   3.941   2.110
92242SOL    HW278501   5.281   3.966   2.035
92243SOL     OW78502   3.790   8.115  11.108
92243SOL    HW178503   3.784   8.202  11.069
92243SOL    HW278504   3.808   8.132  11.201
92244SOL     OW78505  13.150   3.371  12.039
92244SOL    HW178506  13.072   3.403  11.993
92244SOL    HW278507  13.221   3.381  11.976
92245SOL     OW78508  10.436  12.969   0.756
92245SOL    HW178509  10.468  13.016   0.832
92245SOL    HW278510  10.427  12.878   0.786
92246SOL     OW78511  13.754   1.651   5.992
92246SOL    HW178512  13.805   1.730   5.980
92246SOL    HW278513  13.802   1.600   6.058
92247SOL     OW78514   7.175   8.345   9.077
92247SOL    HW178515   7.180   8.430   9.032
92247SOL    HW278516   7.084   8.337   9.104
92248SOL     OW78517  14.058   4.601   1.906
92248SOL    HW178518  14.109   4.538   1.958
92248SOL    HW278519  14.115   4.622   1.832
92249SOL     OW78520   1.890  13.462   7.244
92249SOL    HW178521   1.986  13.458   7.241
92249SOL    HW278522   1.869  13.463   7.337
92250SOL     OW78523   1.932   5.355  11.492
92250SOL    HW178524   1.848   5.321  11.522
92250SOL    HW278525   1.980   5.376  11.572
92251SOL     OW78526   5.014   1.768   3.369
92251SOL    HW178527   5.043   1.801   3.454
92251SOL    HW278528   5.056   1.826   3.305
92252SOL     OW78529   6.912   3.907   3.230
92252SOL    HW178530   6.918   3.967   3.305
92252SOL    HW278531   6.995   3.920   3.183
92253SOL     OW78532  10.659   0.295  10.718
92253SOL    HW178533  10.612   0.235  10.776
92253SOL    HW278534  10.593   0.359  10.691
92254SOL     OW78535   0.722  12.594   5.917
92254SOL    HW178536   0.797  12.645   5.887
92254SOL    HW278537   0.680  12.563   5.837
92255SOL     OW78538   9.868  14.705   4.058
92255SOL    HW178539   9.923  14.682   4.133
92255SOL    HW278540   9.801  14.637   4.056
92256SOL     OW78541  11.347   7.228  14.573
92256SOL    HW178542  11.321   7.266  14.490
92256SOL    HW278543  11.397   7.150  14.550
92257SOL     OW78544   8.599   6.906   5.820
92257SOL    HW178545   8.526   6.872   5.871
92257SOL    HW278546   8.618   6.992   5.857
92258SOL     OW78547   4.250   2.981  12.209
92258SOL    HW178548   4.174   3.027  12.174
92258SOL    HW278549   4.281   2.927  12.137
92259SOL     OW78550   1.008   2.799   2.522
92259SOL    HW178551   0.972   2.773   2.437
92259SOL    HW278552   1.053   2.722   2.554
92260SOL     OW78553   3.708   9.635   7.637
92260SOL    HW178554   3.693   9.615   7.544
92260SOL    HW278555   3.657   9.714   7.652
92261SOL     OW78556   4.014   0.260   7.916
92261SOL    HW178557   4.009   0.288   8.007
92261SOL    HW278558   3.951   0.187   7.910
92262SOL     OW78559  13.204  12.061   4.731
92262SOL    HW178560  13.188  11.982   4.782
92262SOL    HW278561  13.170  12.132   4.784
92263SOL     OW78562   3.043   3.911   3.846
92263SOL    HW178563   3.028   3.835   3.790
92263SOL    HW278564   3.135   3.906   3.869
92264SOL     OW78565   9.471   2.287  14.238
92264SOL    HW178566   9.469   2.273  14.143
92264SOL    HW278567   9.381   2.268  14.266
92265SOL     OW78568   9.059   8.963   9.215
92265SOL    HW178569   9.001   8.943   9.142
92265SOL    HW278570   9.051   9.058   9.226
92266SOL     OW78571  13.764  12.344   5.043
92266SOL    HW178572  13.766  12.309   4.954
92266SOL    HW278573  13.738  12.270   5.098
92267SOL     OW78574   6.199   4.492   8.464
92267SOL    HW178575   6.263   4.489   8.392
92267SOL    HW278576   6.172   4.401   8.474
92268SOL     OW78577   9.772   0.659  13.860
92268SOL    HW178578   9.693   0.670  13.807
92268SOL    HW278579   9.742   0.613  13.938
92269SOL     OW78580   3.144   6.606   8.314
92269SOL    HW178581   3.182   6.553   8.384
92269SOL    HW278582   3.149   6.551   8.236
92270SOL     OW78583   4.360   2.247   2.324
92270SOL    HW178584   4.375   2.291   2.408
92270SOL    HW278585   4.290   2.298   2.283
92271SOL     OW78586   4.797  10.043   7.282
92271SOL    HW178587   4.764   9.978   7.221
92271SOL    HW278588   4.875  10.079   7.238
92272SOL     OW78589  11.029  12.416  12.793
92272SOL    HW178590  11.063  12.334  12.830
92272SOL    HW278591  11.012  12.471  12.870
92273SOL     OW78592   5.484  11.997   8.283
92273SOL    HW178593   5.495  12.017   8.376
92273SOL    HW278594   5.553  12.047   8.239
92274SOL     OW78595   0.521  13.328   0.787
92274SOL    HW178596   0.444  13.308   0.840
92274SOL    HW278597   0.557  13.409   0.825
92275SOL     OW78598   5.863  11.644   3.876
92275SOL    HW178599   5.821  11.630   3.791
92275SOL    HW278600   5.914  11.564   3.890
92276SOL     OW78601  10.869   4.084   5.607
92276SOL    HW178602  10.858   4.110   5.699
92276SOL    HW278603  10.800   4.020   5.592
92277SOL     OW78604  12.748   0.040   5.072
92277SOL    HW178605  12.659   0.006   5.062
92277SOL    HW278606  12.803  14.857   5.024
92278SOL     OW78607   3.344   7.995  10.449
92278SOL    HW178608   3.361   7.904  10.425
92278SOL    HW278609   3.371   8.046  10.373
92279SOL     OW78610   3.345   4.060  12.052
92279SOL    HW178611   3.338   4.154  12.041
92279SOL    HW278612   3.394   4.049  12.134
92280SOL     OW78613   4.327  13.198   4.045
92280SOL    HW178614   4.292  13.158   3.965
92280SOL    HW278615   4.296  13.289   4.042
92281SOL     OW78616  10.249   0.846   7.122
92281SOL    HW178617  10.200   0.764   7.120
92281SOL    HW278618  10.310   0.836   7.196
92282SOL     OW78619  11.626   6.685  12.676
92282SOL    HW178620  11.599   6.777  12.682
92282SOL    HW278621  11.719   6.686  12.698
92283SOL     OW78622   1.959  10.941   1.254
92283SOL    HW178623   1.915  10.898   1.182
92283SOL    HW278624   1.998  10.870   1.305
92284SOL     OW78625  11.355   5.489   5.080
92284SOL    HW178626  11.413   5.474   5.005
92284SOL    HW278627  11.311   5.571   5.061
92285SOL     OW78628   8.972  14.498  11.880
92285SOL    HW178629   8.974  14.425  11.941
92285SOL    HW278630   9.052  14.547  11.899
92286SOL     OW78631  10.647  12.589   0.070
92286SOL    HW178632  10.728  12.589   0.019
92286SOL    HW278633  10.603  12.670   0.045
92287SOL     OW78634   5.088   0.262  11.028
92287SOL    HW178635   5.125   0.297  10.947
92287SOL    HW278636   5.001   0.230  11.003
92288SOL     OW78637  11.669   3.232   0.450
92288SOL    HW178638  11.635   3.321   0.452
92288SOL    HW278639  11.665   3.206   0.358
92289SOL     OW78640   7.356   2.962   1.717
92289SOL    HW178641   7.393   2.899   1.780
92289SOL    HW278642   7.403   2.946   1.636
92290SOL     OW78643  10.373   9.101   7.293
92290SOL    HW178644  10.364   9.080   7.386
92290SOL    HW278645  10.365   9.196   7.288
92291SOL     OW78646  13.723  13.606   0.364
92291SOL    HW178647  13.690  13.550   0.294
92291SOL    HW278648  13.647  13.622   0.420
92292SOL     OW78649  14.084  13.169   9.931
92292SOL    HW178650  13.999  13.213   9.936
92292SOL    HW278651  14.067  13.091   9.878
92293SOL     OW78652   2.306   3.576  12.029
92293SOL    HW178653   2.373   3.584  11.962
92293SOL    HW278654   2.350   3.535  12.103
92294SOL     OW78655   8.559  12.333   6.370
92294SOL    HW178656   8.540  12.393   6.299
92294SOL    HW278657   8.557  12.387   6.449
92295SOL     OW78658   6.480   0.165   3.884
92295SOL    HW178659   6.435   0.118   3.813
92295SOL    HW278660   6.459   0.115   3.963
92296SOL     OW78661   8.056   1.775   5.197
92296SOL    HW178662   8.097   1.799   5.280
92296SOL    HW278663   8.084   1.684   5.183
92297SOL     OW78664   2.872  14.266   8.255
92297SOL    HW178665   2.933  14.215   8.203
92297SOL    HW278666   2.890  14.357   8.232
92298SOL     OW78667   8.339   4.546   7.791
92298SOL    HW178668   8.244   4.539   7.802
92298SOL    HW278669   8.362   4.477   7.729
92299SOL     OW78670   7.207  11.513   1.346
92299SOL    HW178671   7.129  11.552   1.386
92299SOL    HW278672   7.223  11.434   1.396
92300SOL     OW78673   0.652  12.544   3.322
92300SOL    HW178674   0.691  12.631   3.329
92300SOL    HW278675   0.684  12.510   3.239
92301SOL     OW78676  13.469  12.502   2.879
92301SOL    HW178677  13.451  12.455   2.797
92301SOL    HW278678  13.421  12.585   2.869
92302SOL     OW78679  13.498   9.253   1.914
92302SOL    HW178680  13.428   9.196   1.945
92302SOL    HW278681  13.466   9.286   1.830
92303SOL     OW78682  12.355  12.747   6.341
92303SOL    HW178683  12.347  12.840   6.362
92303SOL    HW278684  12.406  12.711   6.412
92304SOL     OW78685  12.583  12.306  12.512
92304SOL    HW178686  12.633  12.266  12.583
92304SOL    HW278687  12.647  12.361  12.466
92305SOL     OW78688   8.562   5.683  14.116
92305SOL    HW178689   8.531   5.730  14.039
92305SOL    HW278690   8.658   5.689  14.111
92306SOL     OW78691   8.692  10.583  13.418
92306SOL    HW178692   8.601  10.612  13.424
92306SOL    HW278693   8.696  10.530  13.338
92307SOL     OW78694   9.769   1.912  12.901
92307SOL    HW178695   9.684   1.948  12.872
92307SOL    HW278696   9.746   1.834  12.950
92308SOL     OW78697   2.670   0.726  10.062
92308SOL    HW178698   2.668   0.770   9.977
92308SOL    HW278699   2.685   0.796  10.125
92309SOL     OW78700   5.902   4.295  12.373
92309SOL    HW178701   5.961   4.323  12.443
92309SOL    HW278702   5.941   4.329  12.293
92310SOL     OW78703   1.442   8.433   3.507
92310SOL    HW178704   1.370   8.376   3.534
92310SOL    HW278705   1.505   8.375   3.465
92311SOL     OW78706   9.836  11.689  13.461
92311SOL    HW178707   9.849  11.607  13.414
92311SOL    HW278708   9.876  11.755  13.404
92312SOL     OW78709  13.745   5.873  13.411
92312SOL    HW178710  13.820   5.815  13.396
92312SOL    HW278711  13.711   5.845  13.496
92313SOL     OW78712  12.519   8.908   6.135
92313SOL    HW178713  12.523   8.846   6.209
92313SOL    HW278714  12.584   8.876   6.073
92314SOL     OW78715   4.100   7.989  14.131
92314SOL    HW178716   4.062   7.904  14.108
92314SOL    HW278717   4.026   8.049  14.132
92315SOL     OW78718   6.736   3.667   4.222
92315SOL    HW178719   6.719   3.760   4.208
92315SOL    HW278720   6.782   3.663   4.306
92316SOL     OW78721  14.190   9.022  13.543
92316SOL    HW178722  14.231   9.086  13.485
92316SOL    HW278723  14.189   8.941  13.492
92317SOL     OW78724  10.962   0.459   1.799
92317SOL    HW178725  10.933   0.385   1.852
92317SOL    HW278726  10.899   0.464   1.728
92318SOL     OW78727   6.815   5.435   6.817
92318SOL    HW178728   6.840   5.473   6.901
92318SOL    HW278729   6.721   5.420   6.825
92319SOL     OW78730  10.387   4.181  14.398
92319SOL    HW178731  10.323   4.210  14.333
92319SOL    HW278732  10.468   4.171  14.349
92320SOL     OW78733   6.948   2.099  11.390
92320SOL    HW178734   6.978   2.127  11.303
92320SOL    HW278735   6.864   2.057  11.373
92321SOL     OW78736  13.908  11.435   5.926
92321SOL    HW178737  13.997  11.411   5.951
92321SOL    HW278738  13.855  11.409   6.000
92322SOL     OW78739   7.309   0.553   2.471
92322SOL    HW178740   7.215   0.549   2.486
92322SOL    HW278741   7.346   0.489   2.531
92323SOL     OW78742   0.617   5.898  14.616
92323SOL    HW178743   0.532   5.910  14.660
92323SOL    HW278744   0.596   5.893  14.523
92324SOL     OW78745   8.055   0.202  12.881
92324SOL    HW178746   7.982   0.202  12.942
92324SOL    HW278747   8.127   0.161  12.929
92325SOL     OW78748   5.487  11.861  14.509
92325SOL    HW178749   5.494  11.873  14.414
92325SOL    HW278750   5.535  11.935  14.546
92326SOL     OW78751  10.094  12.882   5.947
92326SOL    HW178752  10.103  12.801   5.997
92326SOL    HW278753  10.077  12.949   6.012
92327SOL     OW78754   4.374   7.114   3.408
92327SOL    HW178755   4.281   7.111   3.430
92327SOL    HW278756   4.414   7.160   3.482
92328SOL     OW78757   6.461  10.162   9.472
92328SOL    HW178758   6.498  10.250   9.483
92328SOL    HW278759   6.525  10.116   9.418
92329SOL     OW78760   8.244  11.306  11.179
92329SOL    HW178761   8.162  11.350  11.155
92329SOL    HW278762   8.251  11.318  11.274
92330SOL     OW78763  10.720   2.738   4.544
92330SOL    HW178764  10.770   2.794   4.604
92330SOL    HW278765  10.652   2.700   4.600
92331SOL     OW78766   3.528  14.663   5.344
92331SOL    HW178767   3.466  14.735   5.341
92331SOL    HW278768   3.561  14.656   5.255
92332SOL     OW78769   0.756  11.480   1.371
92332SOL    HW178770   0.680  11.445   1.324
92332SOL    HW278771   0.720  11.508   1.456
92333SOL     OW78772  12.617   3.327   0.863
92333SOL    HW178773  12.592   3.299   0.951
92333SOL    HW278774  12.631   3.421   0.870
92334SOL     OW78775  14.682  13.964   3.643
92334SOL    HW178776  14.652  14.018   3.716
92334SOL    HW278777  14.616  13.895   3.636
92335SOL     OW78778   3.685  13.478   3.488
92335SOL    HW178779   3.689  13.392   3.531
92335SOL    HW278780   3.597  13.511   3.507
92336SOL     OW78781  11.330   6.102   6.853
92336SOL    HW178782  11.382   6.182   6.848
92336SOL    HW278783  11.389   6.038   6.892
92337SOL     OW78784  11.107   2.247   4.458
92337SOL    HW178785  11.070   2.328   4.494
92337SOL    HW278786  11.198   2.268   4.438
92338SOL     OW78787   1.193   0.582  13.961
92338SOL    HW178788   1.276   0.628  13.948
92338SOL    HW278789   1.215   0.489  13.951
92339SOL     OW78790   5.164   7.513   0.258
92339SOL    HW178791   5.213   7.558   0.190
92339SOL    HW278792   5.197   7.423   0.256
92340SOL     OW78793   9.581   6.583  12.948
92340SOL    HW178794   9.659   6.638  12.944
92340SOL    HW278795   9.615   6.494  12.956
92341SOL     OW78796   8.550   7.431  11.303
92341SOL    HW178797   8.509   7.373  11.367
92341SOL    HW278798   8.623   7.380  11.267
92342SOL     OW78799   3.348   3.388  14.120
92342SOL    HW178800   3.393   3.400  14.203
92342SOL    HW278801   3.376   3.461  14.066
92343SOL     OW78802   8.351   3.876  13.303
92343SOL    HW178803   8.367   3.792  13.260
92343SOL    HW278804   8.329   3.853  13.393
92344SOL     OW78805   2.870  12.556   1.484
92344SOL    HW178806   2.908  12.482   1.531
92344SOL    HW278807   2.833  12.517   1.405
92345SOL     OW78808  13.057  13.545  12.971
92345SOL    HW178809  12.964  13.567  12.973
92345SOL    HW278810  13.063  13.475  12.906
92346SOL     OW78811   3.335  13.245   3.435
92346SOL    HW178812   3.360  13.260   3.344
92346SOL    HW278813   3.390  13.304   3.486
92347SOL     OW78814   4.784  13.546  11.721
92347SOL    HW178815   4.801  13.610  11.790
92347SOL    HW278816   4.714  13.491  11.757
92348SOL     OW78817   4.135   5.982   2.480
92348SOL    HW178818   4.103   5.929   2.553
92348SOL    HW278819   4.228   5.958   2.472
92349SOL     OW78820   7.932   9.201   9.342
92349SOL    HW178821   7.943   9.179   9.434
92349SOL    HW278822   8.001   9.264   9.323
92350SOL     OW78823   1.050   6.191  14.417
92350SOL    HW178824   1.099   6.224  14.492
92350SOL    HW278825   1.070   6.097  14.415
92351SOL     OW78826   8.846   5.778   1.267
92351SOL    HW178827   8.848   5.805   1.359
92351SOL    HW278828   8.913   5.831   1.224
92352SOL     OW78829  14.678  11.499   2.392
92352SOL    HW178830  14.673  11.593   2.409
92352SOL    HW278831  14.748  11.490   2.327
92353SOL     OW78832   4.330   0.250  12.710
92353SOL    HW178833   4.398   0.308  12.744
92353SOL    HW278834   4.255   0.264  12.767
92354SOL     OW78835   8.798   2.216   0.378
92354SOL    HW178836   8.755   2.251   0.300
92354SOL    HW278837   8.802   2.122   0.362
92355SOL     OW78838   7.417   8.203  14.865
92355SOL    HW178839   7.450   8.255   0.061
92355SOL    HW278840   7.322   8.214  14.868
92356SOL     OW78841   8.362  12.414  12.823
92356SOL    HW178842   8.397  12.432  12.910
92356SOL    HW278843   8.282  12.467  12.818
92357SOL     OW78844   7.830  11.254  12.717
92357SOL    HW178845   7.853  11.163  12.734
92357SOL    HW278846   7.736  11.251  12.699
92358SOL     OW78847   8.846   6.735  14.835
92358SOL    HW178848   8.843   6.762  14.743
92358SOL    HW278849   8.773   6.781  14.876
92359SOL     OW78850  13.734   5.459  13.159
92359SOL    HW178851  13.694   5.455  13.073
92359SOL    HW278852  13.820   5.417  13.148
92360SOL     OW78853   4.522  13.820   5.467
92360SOL    HW178854   4.467  13.823   5.389
92360SOL    HW278855   4.460  13.826   5.540
92361SOL     OW78856   7.272  10.125  11.763
92361SOL    HW178857   7.198  10.153  11.709
92361SOL    HW278858   7.277  10.030  11.749
92362SOL     OW78859   3.559   2.093   1.507
92362SOL    HW178860   3.645   2.130   1.527
92362SOL    HW278861   3.525   2.063   1.591
92363SOL     OW78862   6.504  11.401   8.909
92363SOL    HW178863   6.467  11.376   8.994
92363SOL    HW278864   6.455  11.479   8.884
92364SOL     OW78865  11.716  14.104   8.606
92364SOL    HW178866  11.710  14.010   8.591
92364SOL    HW278867  11.742  14.112   8.698
92365SOL     OW78868   8.904  10.537   1.540
92365SOL    HW178869   8.810  10.515   1.542
92365SOL    HW278870   8.944  10.470   1.596
92366SOL     OW78871   3.750   7.789   1.120
92366SOL    HW178872   3.841   7.815   1.101
92366SOL    HW278873   3.715   7.861   1.173
92367SOL     OW78874   5.525   5.103  12.181
92367SOL    HW178875   5.556   5.139  12.098
92367SOL    HW278876   5.586   5.139  12.246
92368SOL     OW78877   1.662   1.392  11.574
92368SOL    HW178878   1.612   1.474  11.578
92368SOL    HW278879   1.614   1.339  11.511
92369SOL     OW78880   2.844  13.187  11.081
92369SOL    HW178881   2.911  13.217  11.021
92369SOL    HW278882   2.892  13.134  11.146
92370SOL     OW78883   5.388   0.328  10.592
92370SOL    HW178884   5.356   0.386  10.523
92370SOL    HW278885   5.405   0.245  10.547
92371SOL     OW78886  10.908  14.039   4.160
92371SOL    HW178887  10.992  13.993   4.172
92371SOL    HW278888  10.891  14.031   4.066
92372SOL     OW78889  11.376   4.586   3.178
92372SOL    HW178890  11.306   4.650   3.167
92372SOL    HW278891  11.347   4.529   3.249
92373SOL     OW78892   6.705   7.949  12.700
92373SOL    HW178893   6.683   7.938  12.792
92373SOL    HW278894   6.776   7.888  12.684
92374SOL     OW78895  11.220  11.486   2.693
92374SOL    HW178896  11.181  11.399   2.682
92374SOL    HW278897  11.314  11.469   2.703
92375SOL     OW78898   1.263  11.378   9.611
92375SOL    HW178899   1.346  11.418   9.635
92375SOL    HW278900   1.227  11.344   9.693
92376SOL     OW78901   7.838   1.711   8.820
92376SOL    HW178902   7.770   1.645   8.835
92376SOL    HW278903   7.848   1.755   8.905
92377SOL     OW78904   5.686   9.525   6.174
92377SOL    HW178905   5.741   9.483   6.108
92377SOL    HW278906   5.645   9.453   6.221
92378SOL     OW78907   0.993   5.879   5.178
92378SOL    HW178908   1.083   5.894   5.205
92378SOL    HW278909   0.942   5.890   5.258
92379SOL     OW78910  12.184  13.165  10.439
92379SOL    HW178911  12.207  13.232  10.375
92379SOL    HW278912  12.266  13.147  10.486
92380SOL     OW78913   2.834  14.757  11.491
92380SOL    HW178914   2.815  14.666  11.513
92380SOL    HW278915   2.879  14.753  11.406
92381SOL     OW78916   7.142   0.682  10.439
92381SOL    HW178917   7.138   0.725  10.353
92381SOL    HW278918   7.111   0.593  10.423
92382SOL     OW78919  12.327  12.051   3.056
92382SOL    HW178920  12.264  11.992   3.098
92382SOL    HW278921  12.365  12.101   3.129
92383SOL     OW78922  10.004   7.129   0.671
92383SOL    HW178923  10.001   7.223   0.650
92383SOL    HW278924   9.913   7.105   0.686
92384SOL     OW78925  12.474   3.083   2.371
92384SOL    HW178926  12.546   3.137   2.336
92384SOL    HW278927  12.478   3.096   2.465
92385SOL     OW78928   6.576  13.187  10.818
92385SOL    HW178929   6.483  13.164  10.823
92385SOL    HW278930   6.621  13.113  10.860
92386SOL     OW78931   6.078  12.093   4.209
92386SOL    HW178932   6.165  12.057   4.191
92386SOL    HW278933   6.035  12.026   4.262
92387SOL     OW78934   0.794   1.662   2.312
92387SOL    HW178935   0.848   1.599   2.265
92387SOL    HW278936   0.829   1.747   2.289
92388SOL     OW78937  11.654   1.980   0.708
92388SOL    HW178938  11.633   2.074   0.712
92388SOL    HW278939  11.595   1.945   0.642
92389SOL     OW78940   4.864   7.435   2.614
92389SOL    HW178941   4.896   7.364   2.558
92389SOL    HW278942   4.875   7.402   2.703
92390SOL     OW78943   9.359   9.850   6.591
92390SOL    HW178944   9.442   9.886   6.624
92390SOL    HW278945   9.369   9.852   6.496
92391SOL     OW78946   7.960   1.866   9.293
92391SOL    HW178947   7.902   1.823   9.355
92391SOL    HW278948   7.926   1.841   9.207
92392SOL     OW78949   7.402  14.853  10.678
92392SOL    HW178950   7.477   0.007  10.728
92392SOL    HW278951   7.359  14.791  10.737
92393SOL     OW78952   6.427   5.798   1.743
92393SOL    HW178953   6.390   5.867   1.798
92393SOL    HW278954   6.384   5.809   1.658
92394SOL     OW78955  13.135   0.981   2.444
92394SOL    HW178956  13.179   1.065   2.433
92394SOL    HW278957  13.123   0.949   2.354
92395SOL     OW78958   5.122   3.325  11.342
92395SOL    HW178959   5.142   3.357  11.254
92395SOL    HW278960   5.178   3.248  11.354
92396SOL     OW78961   7.695   5.602   6.287
92396SOL    HW178962   7.611   5.599   6.333
92396SOL    HW278963   7.760   5.594   6.356
92397SOL     OW78964   5.115   7.730  12.384
92397SOL    HW178965   5.155   7.694  12.304
92397SOL    HW278966   5.057   7.661  12.415
92398SOL     OW78967  13.469   3.723   2.151
92398SOL    HW178968  13.488   3.706   2.058
92398SOL    HW278969  13.516   3.805   2.170
92399SOL     OW78970   0.703   4.112   3.356
92399SOL    HW178971   0.743   4.028   3.335
92399SOL    HW278972   0.713   4.121   3.451
92400SOL     OW78973   4.960  11.242   7.726
92400SOL    HW178974   4.886  11.190   7.755
92400SOL    HW278975   4.923  11.327   7.705
92401SOL     OW78976   8.435   2.092   5.699
92401SOL    HW178977   8.442   2.124   5.789
92401SOL    HW278978   8.513   2.127   5.656
92402SOL     OW78979  13.007  14.132   3.161
92402SOL    HW178980  12.958  14.208   3.192
92402SOL    HW278981  13.024  14.150   3.069
92403SOL     OW78982   9.510  11.674  14.425
92403SOL    HW178983   9.584  11.624  14.459
92403SOL    HW278984   9.434  11.617  14.435
92404SOL     OW78985  10.472   5.202   5.194
92404SOL    HW178986  10.425   5.249   5.262
92404SOL    HW278987  10.407   5.188   5.125
92405SOL     OW78988   9.344   9.635   4.956
92405SOL    HW178989   9.385   9.713   4.992
92405SOL    HW278990   9.391   9.562   4.998
92406SOL     OW78991   4.803   9.563   9.589
92406SOL    HW178992   4.725   9.608   9.622
92406SOL    HW278993   4.861   9.633   9.561
92407SOL     OW78994  10.702  10.391  13.927
92407SOL    HW178995  10.795  10.371  13.911
92407SOL    HW278996  10.703  10.476  13.971
92408SOL     OW78997   6.875   5.555   7.056
92408SOL    HW178998   6.967   5.564   7.031
92408SOL    HW278999   6.862   5.623   7.122
92409SOL     OW79000  10.230   4.796   5.441
92409SOL    HW179001  10.252   4.782   5.349
92409SOL    HW279002  10.135   4.782   5.445
92410SOL     OW79003   7.829   0.274   2.204
92410SOL    HW179004   7.845   0.204   2.267
92410SOL    HW279005   7.842   0.233   2.118
92411SOL     OW79006   3.465   7.102   6.947
92411SOL    HW179007   3.528   7.057   6.890
92411SOL    HW279008   3.420   7.033   6.994
92412SOL     OW79009  11.140   0.778   6.748
92412SOL    HW179010  11.129   0.869   6.720
92412SOL    HW279011  11.061   0.759   6.799
92413SOL     OW79012  11.990  13.709   6.655
92413SOL    HW179013  12.083  13.731   6.660
92413SOL    HW279014  11.979  13.637   6.717
92414SOL     OW79015  14.605   2.815   2.285
92414SOL    HW179016  14.640   2.809   2.373
92414SOL    HW279017  14.531   2.876   2.292
92415SOL     OW79018   3.526   8.378  13.560
92415SOL    HW179019   3.539   8.376  13.655
92415SOL    HW279020   3.433   8.359  13.548
92416SOL     OW79021   9.063   6.351  12.609
92416SOL    HW179022   9.004   6.409  12.656
92416SOL    HW279023   9.006   6.301  12.551
92417SOL     OW79024   6.862   2.846  14.256
92417SOL    HW179025   6.849   2.877  14.346
92417SOL    HW279026   6.837   2.754  14.259
92418SOL     OW79027   8.757  13.688  14.169
92418SOL    HW179028   8.784  13.697  14.260
92418SOL    HW279029   8.825  13.733  14.119
92419SOL     OW79030   5.226  10.257   5.193
92419SOL    HW179031   5.216  10.257   5.097
92419SOL    HW279032   5.313  10.295   5.207
92420SOL     OW79033  12.340   9.554  12.562
92420SOL    HW179034  12.371   9.465  12.575
92420SOL    HW279035  12.265   9.562  12.622
92421SOL     OW79036   5.208   2.857   9.101
92421SOL    HW179037   5.282   2.859   9.161
92421SOL    HW279038   5.133   2.882   9.155
92422SOL     OW79039   7.982  12.490  12.136
92422SOL    HW179040   8.000  12.442  12.217
92422SOL    HW279041   7.959  12.422  12.073
92423SOL     OW79042  14.243   6.895   1.611
92423SOL    HW179043  14.163   6.907   1.664
92423SOL    HW279044  14.241   6.803   1.586
92424SOL     OW79045   8.587  13.991   8.235
92424SOL    HW179046   8.680  13.995   8.255
92424SOL    HW279047   8.567  13.898   8.231
92425SOL     OW79048  14.496   6.192   7.763
92425SOL    HW179049  14.518   6.102   7.786
92425SOL    HW279050  14.472   6.187   7.670
92426SOL     OW79051   3.342  14.079   3.493
92426SOL    HW179052   3.429  14.081   3.533
92426SOL    HW279053   3.359  14.072   3.399
92427SOL     OW79054  13.762   8.962   1.601
92427SOL    HW179055  13.813   8.917   1.668
92427SOL    HW279056  13.758   8.900   1.528
92428SOL     OW79057   5.199  10.625   5.533
92428SOL    HW179058   5.210  10.705   5.584
92428SOL    HW279059   5.148  10.652   5.456
92429SOL     OW79060   5.743   4.380  11.735
92429SOL    HW179061   5.837   4.392  11.723
92429SOL    HW279062   5.712   4.463  11.771
92430SOL     OW79063   0.634   6.890   6.765
92430SOL    HW179064   0.660   6.851   6.848
92430SOL    HW279065   0.688   6.844   6.700
92431SOL     OW79066   1.040   3.625  12.016
92431SOL    HW179067   1.025   3.678  12.095
92431SOL    HW279068   1.094   3.681  11.960
92432SOL     OW79069   3.769   8.124   3.972
92432SOL    HW179070   3.785   8.091   3.884
92432SOL    HW279071   3.678   8.102   3.990
92433SOL     OW79072  10.874   7.706   4.374
92433SOL    HW179073  10.963   7.740   4.368
92433SOL    HW279074  10.859   7.664   4.289
92434SOL     OW79075  12.929  10.957   9.809
92434SOL    HW179076  13.019  10.965   9.779
92434SOL    HW279077  12.925  10.870   9.849
92435SOL     OW79078   0.220  13.190   0.712
92435SOL    HW179079   0.252  13.267   0.665
92435SOL    HW279080   0.228  13.214   0.804
92436SOL     OW79081  14.091  11.468   2.590
92436SOL    HW179082  14.136  11.388   2.565
92436SOL    HW279083  14.046  11.446   2.672
92437SOL     OW79084   8.298  11.527  12.540
92437SOL    HW179085   8.228  11.581  12.575
92437SOL    HW279086   8.346  11.496  12.616
92438SOL     OW79087  10.145  10.796   0.019
92438SOL    HW179088  10.095  10.809   0.100
92438SOL    HW279089  10.123  10.706  14.870
92439SOL     OW79090   1.390  12.322  10.450
92439SOL    HW179091   1.485  12.323  10.465
92439SOL    HW279092   1.380  12.295  10.359
92440SOL     OW79093  12.840  11.127  13.877
92440SOL    HW179094  12.931  11.155  13.890
92440SOL    HW279095  12.807  11.114  13.966
92441SOL     OW79096   4.532   6.136   9.496
92441SOL    HW179097   4.606   6.174   9.448
92441SOL    HW279098   4.571   6.070   9.552
92442SOL     OW79099   0.172  12.811   9.764
92442SOL    HW179100   0.214  12.875   9.706
92442SOL    HW279101   0.242  12.749   9.785
92443SOL     OW79102   8.908   2.862  10.828
92443SOL    HW179103   8.949   2.777  10.848
92443SOL    HW279104   8.853   2.844  10.751
92444SOL     OW79105   1.509   9.766   9.402
92444SOL    HW179106   1.453   9.795   9.329
92444SOL    HW279107   1.572   9.837   9.413
92445SOL     OW79108  14.566  14.303   9.837
92445SOL    HW179109  14.653  14.331   9.809
92445SOL    HW279110  14.565  14.319   9.932
92446SOL     OW79111   5.038   2.774   6.372
92446SOL    HW179112   4.964   2.753   6.316
92446SOL    HW279113   5.109   2.717   6.341
92447SOL     OW79114   8.806  10.425   9.790
92447SOL    HW179115   8.887  10.457   9.828
92447SOL    HW279116   8.737  10.473   9.836
92448SOL     OW79117  13.355   1.808  13.075
92448SOL    HW179118  13.352   1.900  13.100
92448SOL    HW279119  13.303   1.802  12.995
92449SOL     OW79120   7.798  12.674  14.350
92449SOL    HW179121   7.771  12.605  14.288
92449SOL    HW279122   7.744  12.749  14.327
92450SOL     OW79123   3.565   0.851   1.789
92450SOL    HW179124   3.489   0.908   1.776
92450SOL    HW279125   3.634   0.909   1.820
92451SOL     OW79126   2.811   5.199   4.316
92451SOL    HW179127   2.852   5.178   4.399
92451SOL    HW279128   2.717   5.190   4.333
92452SOL     OW79129   6.438   0.607   4.225
92452SOL    HW179130   6.489   0.527   4.240
92452SOL    HW279131   6.353   0.575   4.195
92453SOL     OW79132   0.099   5.239   5.812
92453SOL    HW179133   0.028   5.293   5.777
92453SOL    HW279134   0.174   5.298   5.817
92454SOL     OW79135   7.423   2.953   0.606
92454SOL    HW179136   7.391   2.904   0.682
92454SOL    HW279137   7.507   2.912   0.584
92455SOL     OW79138  13.949   4.579  11.555
92455SOL    HW179139  14.007   4.505  11.538
92455SOL    HW279140  13.893   4.549  11.627
92456SOL     OW79141   9.171   1.140   6.639
92456SOL    HW179142   9.101   1.190   6.598
92456SOL    HW279143   9.153   1.049   6.615
92457SOL     OW79144   6.436   9.166   8.976
92457SOL    HW179145   6.414   9.174   9.068
92457SOL    HW279146   6.481   9.082   8.969
92458SOL     OW79147  12.297   7.261  14.118
92458SOL    HW179148  12.292   7.217  14.033
92458SOL    HW279149  12.207   7.287  14.137
92459SOL     OW79150   9.458   4.826   3.124
92459SOL    HW179151   9.427   4.913   3.098
92459SOL    HW279152   9.545   4.820   3.085
92460SOL     OW79153   0.361   1.286   3.698
92460SOL    HW179154   0.319   1.207   3.664
92460SOL    HW279155   0.451   1.260   3.716
92461SOL     OW79156   2.669  11.041   4.737
92461SOL    HW179157   2.613  11.107   4.696
92461SOL    HW279158   2.617  11.005   4.808
92462SOL     OW79159   2.348   0.740   2.835
92462SOL    HW179160   2.282   0.805   2.809
92462SOL    HW279161   2.431   0.786   2.828
92463SOL     OW79162   8.084   6.162   4.067
92463SOL    HW179163   8.153   6.141   4.130
92463SOL    HW279164   8.128   6.211   3.999
92464SOL     OW79165   5.943   6.419   5.183
92464SOL    HW179166   5.986   6.386   5.103
92464SOL    HW279167   5.972   6.358   5.251
92465SOL     OW79168   0.660   0.260  10.614
92465SOL    HW179169   0.746   0.258  10.570
92465SOL    HW279170   0.678   0.228  10.702
92466SOL     OW79171  12.111   5.163  14.404
92466SOL    HW179172  12.041   5.207  14.356
92466SOL    HW279173  12.160   5.234  14.445
92467SOL     OW79174   4.734  14.206   4.327
92467SOL    HW179175   4.771  14.118   4.319
92467SOL    HW279176   4.753  14.232   4.417
92468SOL     OW79177   9.883  13.117  14.378
92468SOL    HW179178   9.963  13.146  14.421
92468SOL    HW279179   9.905  13.031  14.341
92469SOL     OW79180   9.985  14.751   9.068
92469SOL    HW179181  10.014  14.707   9.148
92469SOL    HW279182  10.056  14.736   9.006
92470SOL     OW79183  12.801   2.227   7.196
92470SOL    HW179184  12.733   2.217   7.263
92470SOL    HW279185  12.755   2.211   7.113
92471SOL     OW79186   7.898  13.035   9.186
92471SOL    HW179187   7.903  13.018   9.092
92471SOL    HW279188   7.984  13.011   9.219
92472SOL     OW79189   9.326   2.464   2.058
92472SOL    HW179190   9.248   2.416   2.032
92472SOL    HW279191   9.382   2.399   2.100
92473SOL     OW79192   5.426  13.882   9.148
92473SOL    HW179193   5.492  13.880   9.217
92473SOL    HW279194   5.405  13.975   9.138
92474SOL     OW79195   1.765  12.260   7.223
92474SOL    HW179196   1.697  12.326   7.213
92474SOL    HW279197   1.728  12.196   7.284
92475SOL     OW79198  11.336   3.958   6.210
92475SOL    HW179199  11.407   3.896   6.227
92475SOL    HW279200  11.265   3.904   6.177
92476SOL     OW79201   6.277   6.934   8.176
92476SOL    HW179202   6.359   6.895   8.205
92476SOL    HW279203   6.214   6.862   8.178
92477SOL     OW79204  14.817   0.709  12.247
92477SOL    HW179205  14.851   0.765  12.317
92477SOL    HW279206  14.727   0.739  12.235
92478SOL     OW79207   1.897  12.132   1.384
92478SOL    HW179208   1.853  12.129   1.469
92478SOL    HW279209   1.946  12.050   1.380
92479SOL     OW79210  11.509  12.792   6.935
92479SOL    HW179211  11.448  12.817   7.004
92479SOL    HW279212  11.500  12.861   6.869
92480SOL     OW79213   2.364  12.567   6.099
92480SOL    HW179214   2.406  12.648   6.068
92480SOL    HW279215   2.282  12.596   6.137
92481SOL     OW79216  14.360   9.374   7.191
92481SOL    HW179217  14.337   9.467   7.192
92481SOL    HW279218  14.418   9.363   7.266
92482SOL     OW79219  13.808   7.333   5.236
92482SOL    HW179220  13.833   7.286   5.156
92482SOL    HW279221  13.822   7.425   5.215
92483SOL     OW79222   3.693   6.086   8.652
92483SOL    HW179223   3.670   5.993   8.645
92483SOL    HW279224   3.724   6.109   8.565
92484SOL     OW79225  10.049   4.176   0.908
92484SOL    HW179226  10.142   4.156   0.895
92484SOL    HW279227  10.048   4.260   0.954
92485SOL     OW79228  13.325  13.024   2.562
92485SOL    HW179229  13.361  13.106   2.527
92485SOL    HW279230  13.337  12.961   2.491
92486SOL     OW79231  14.347   3.124  11.665
92486SOL    HW179232  14.255   3.117  11.643
92486SOL    HW279233  14.349   3.130  11.761
92487SOL     OW79234  12.303   9.485   0.852
92487SOL    HW179235  12.281   9.473   0.944
92487SOL    HW279236  12.392   9.521   0.853
92488SOL     OW79237   5.684   1.371  12.440
92488SOL    HW179238   5.680   1.440  12.506
92488SOL    HW279239   5.752   1.312  12.471
92489SOL     OW79240  11.620  13.619   9.748
92489SOL    HW179241  11.711  13.596   9.728
92489SOL    HW279242  11.619  13.633   9.842
92490SOL     OW79243   5.567   3.240   8.111
92490SOL    HW179244   5.523   3.289   8.041
92490SOL    HW279245   5.571   3.150   8.078
92491SOL     OW79246   8.993  11.337   9.692
92491SOL    HW179247   8.927  11.393   9.651
92491SOL    HW279248   8.946  11.291   9.761
92492SOL     OW79249   8.545  12.067  12.153
92492SOL    HW179250   8.480  12.101  12.092
92492SOL    HW279251   8.562  11.977  12.123
92493SOL     OW79252  12.836  12.133   3.797
92493SOL    HW179253  12.781  12.061   3.766
92493SOL    HW279254  12.800  12.211   3.756
92494SOL     OW79255   9.644  14.557  14.384
92494SOL    HW179256   9.566  14.576  14.331
92494SOL    HW279257   9.668  14.641  14.421
92495SOL     OW79258   6.825   7.806   4.683
92495SOL    HW179259   6.893   7.772   4.742
92495SOL    HW279260   6.762   7.735   4.675
92496SOL     OW79261   8.463   4.676   1.287
92496SOL    HW179262   8.534   4.635   1.238
92496SOL    HW279263   8.500   4.692   1.374
92497SOL     OW79264   2.542   0.530  14.503
92497SOL    HW179265   2.549   0.608  14.449
92497SOL    HW279266   2.630   0.492  14.503
92498SOL     OW79267   7.787   5.243  11.761
92498SOL    HW179268   7.727   5.314  11.740
92498SOL    HW279269   7.848   5.280  11.825
92499SOL     OW79270   4.814  12.250   5.358
92499SOL    HW179271   4.764  12.254   5.276
92499SOL    HW279272   4.815  12.340   5.390
92500SOL     OW79273  12.821   4.075   5.652
92500SOL    HW179274  12.789   3.989   5.680
92500SOL    HW279275  12.888   4.055   5.586
92501SOL     OW79276  10.319   5.775   8.215
92501SOL    HW179277  10.371   5.793   8.293
92501SOL    HW279278  10.334   5.851   8.159
92502SOL     OW79279  14.232   5.443   0.674
92502SOL    HW179280  14.257   5.509   0.610
92502SOL    HW279281  14.219   5.491   0.755
92503SOL     OW79282   8.506   7.058  11.443
92503SOL    HW179283   8.502   7.105  11.360
92503SOL    HW279284   8.452   7.110  11.502
92504SOL     OW79285   9.192   3.650   8.117
92504SOL    HW179286   9.189   3.649   8.021
92504SOL    HW279287   9.237   3.570   8.141
92505SOL     OW79288  10.396   2.366  11.628
92505SOL    HW179289  10.410   2.331  11.716
92505SOL    HW279290  10.326   2.431  11.639
92506SOL     OW79291   1.616  12.303   6.444
92506SOL    HW179292   1.601  12.214   6.412
92506SOL    HW279293   1.709  12.319   6.427
92507SOL     OW79294   5.009  10.280  10.843
92507SOL    HW179295   4.958  10.277  10.762
92507SOL    HW279296   5.089  10.233  10.823
92508SOL     OW79297  10.146  13.480   3.147
92508SOL    HW179298  10.154  13.478   3.052
92508SOL    HW279299  10.236  13.489   3.178
92509SOL     OW79300   1.723   1.655  10.087
92509SOL    HW179301   1.664   1.712  10.039
92509SOL    HW279302   1.673   1.628  10.164
92510SOL     OW79303  14.495  12.711   5.951
92510SOL    HW179304  14.536  12.648   5.891
92510SOL    HW279305  14.512  12.796   5.911
92511SOL     OW79306   8.320  13.012  12.805
92511SOL    HW179307   8.305  12.940  12.744
92511SOL    HW279308   8.305  13.091  12.752
92512SOL     OW79309   3.756   9.917   1.261
92512SOL    HW179310   3.786   9.843   1.209
92512SOL    HW279311   3.831   9.977   1.263
92513SOL     OW79312   9.227   4.812  13.668
92513SOL    HW179313   9.220   4.881  13.602
92513SOL    HW279314   9.218   4.857  13.751
92514SOL     OW79315   5.604   5.789   3.970
92514SOL    HW179316   5.662   5.854   4.010
92514SOL    HW279317   5.659   5.740   3.910
92515SOL     OW79318   9.668   2.801  12.030
92515SOL    HW179319   9.632   2.823  12.116
92515SOL    HW279320   9.684   2.886  11.988
92516SOL     OW79321   4.535  12.530   7.302
92516SOL    HW179322   4.518  12.616   7.341
92516SOL    HW279323   4.448  12.496   7.281
92517SOL     OW79324   4.295   0.963  10.664
92517SOL    HW179325   4.204   0.958  10.693
92517SOL    HW279326   4.315   0.875  10.633
92518SOL     OW79327  10.925   5.929   9.949
92518SOL    HW179328  10.837   5.909   9.981
92518SOL    HW279329  10.960   5.844   9.922
92519SOL     OW79330  11.691  14.712   0.206
92519SOL    HW179331  11.632  14.714   0.130
92519SOL    HW279332  11.778  14.702   0.168
92520SOL     OW79333   2.176   1.271   8.252
92520SOL    HW179334   2.145   1.253   8.164
92520SOL    HW279335   2.271   1.266   8.245
92521SOL     OW79336   1.740   9.889   3.451
92521SOL    HW179337   1.791   9.968   3.467
92521SOL    HW279338   1.803   9.827   3.416
92522SOL     OW79339  13.492  13.074   3.784
92522SOL    HW179340  13.424  13.114   3.730
92522SOL    HW279341  13.445  13.013   3.840
92523SOL     OW79342  14.001   3.274   7.357
92523SOL    HW179343  14.085   3.244   7.323
92523SOL    HW279344  13.972   3.204   7.416
92524SOL     OW79345   3.360   9.520   9.523
92524SOL    HW179346   3.332   9.591   9.465
92524SOL    HW279347   3.352   9.441   9.469
92525SOL     OW79348   2.315   5.238  12.514
92525SOL    HW179349   2.297   5.322  12.556
92525SOL    HW279350   2.379   5.258  12.447
92526SOL     OW79351   4.688   1.704   8.745
92526SOL    HW179352   4.693   1.654   8.663
92526SOL    HW279353   4.706   1.639   8.813
92527SOL     OW79354   6.485  11.825   8.365
92527SOL    HW179355   6.409  11.864   8.322
92527SOL    HW279356   6.556  11.830   8.300
92528SOL     OW79357  12.969   1.383  11.398
92528SOL    HW179358  12.986   1.462  11.449
92528SOL    HW279359  12.987   1.408  11.307
92529SOL     OW79360  10.265   3.784  13.700
92529SOL    HW179361  10.255   3.691  13.717
92529SOL    HW279362  10.289   3.790  13.608
92530SOL     OW79363   2.915  11.700   2.311
92530SOL    HW179364   2.955  11.785   2.294
92530SOL    HW279365   2.836  11.699   2.256
92531SOL     OW79366  11.732  10.441   9.385
92531SOL    HW179367  11.660  10.494   9.418
92531SOL    HW279368  11.798  10.505   9.358
92532SOL     OW79369   1.066   1.269  13.278
92532SOL    HW179370   1.147   1.308  13.243
92532SOL    HW279371   1.064   1.297  13.369
92533SOL     OW79372   3.637   2.725   4.953
92533SOL    HW179373   3.563   2.756   4.901
92533SOL    HW279374   3.609   2.639   4.986
92534SOL     OW79375  10.045   8.525   1.794
92534SOL    HW179376  10.027   8.446   1.744
92534SOL    HW279377   9.997   8.594   1.748
92535SOL     OW79378   1.205   7.963   7.474
92535SOL    HW179379   1.140   7.947   7.543
92535SOL    HW279380   1.161   7.936   7.393
92536SOL     OW79381   0.554   4.788  12.637
92536SOL    HW179382   0.570   4.876  12.603
92536SOL    HW279383   0.632   4.739  12.611
92537SOL     OW79384   5.654   6.702   9.651
92537SOL    HW179385   5.637   6.615   9.614
92537SOL    HW279386   5.567   6.737   9.671
92538SOL     OW79387   4.308   9.623  12.959
92538SOL    HW179388   4.234   9.671  12.922
92538SOL    HW279389   4.280   9.532  12.959
92539SOL     OW79390  11.547   0.057   8.107
92539SOL    HW179391  11.543   0.077   8.014
92539SOL    HW279392  11.476   0.108   8.146
92540SOL     OW79393   7.486   8.241   5.675
92540SOL    HW179394   7.527   8.266   5.758
92540SOL    HW279395   7.546   8.274   5.608
92541SOL     OW79396   4.927   0.831  11.723
92541SOL    HW179397   4.998   0.768  11.706
92541SOL    HW279398   4.947   0.867  11.809
92542SOL     OW79399   4.895  14.476  10.423
92542SOL    HW179400   4.906  14.381  10.427
92542SOL    HW279401   4.852  14.492  10.340
92543SOL     OW79402  11.044  13.800  13.464
92543SOL    HW179403  11.020  13.714  13.499
92543SOL    HW279404  10.990  13.862  13.513
92544SOL     OW79405   0.332   1.442  12.242
92544SOL    HW179406   0.257   1.383  12.234
92544SOL    HW279407   0.354   1.441  12.335
92545SOL     OW79408   2.548   8.210   9.941
92545SOL    HW179409   2.485   8.191  10.011
92545SOL    HW279410   2.592   8.291   9.970
92546SOL     OW79411   2.311   4.834   9.053
92546SOL    HW179412   2.228   4.861   9.014
92546SOL    HW279413   2.374   4.900   9.023
92547SOL     OW79414   1.085   2.000   3.468
92547SOL    HW179415   1.001   1.971   3.431
92547SOL    HW279416   1.102   1.937   3.538
92548SOL     OW79417  11.550   2.275  13.739
92548SOL    HW179418  11.554   2.217  13.816
92548SOL    HW279419  11.585   2.221  13.667
92549SOL     OW79420   2.037  12.835  11.994
92549SOL    HW179421   2.036  12.929  11.974
92549SOL    HW279422   2.117  12.802  11.954
92550SOL     OW79423  10.526   1.745  14.255
92550SOL    HW179424  10.573   1.665  14.230
92550SOL    HW279425  10.440   1.736  14.214
92551SOL     OW79426   5.258   2.640   5.623
92551SOL    HW179427   5.181   2.695   5.613
92551SOL    HW279428   5.324   2.697   5.662
92552SOL     OW79429  10.980   0.394   9.457
92552SOL    HW179430  11.033   0.341   9.516
92552SOL    HW279431  11.019   0.481   9.462
92553SOL     OW79432   9.579   5.559  11.798
92553SOL    HW179433   9.607   5.468  11.785
92553SOL    HW279434   9.491   5.551  11.837
92554SOL     OW79435  13.106   1.407  13.366
92554SOL    HW179436  13.155   1.487  13.348
92554SOL    HW279437  13.151   1.339  13.316
92555SOL     OW79438   7.854   6.254   4.147
92555SOL    HW179439   7.830   6.185   4.208
92555SOL    HW279440   7.948   6.240   4.130
92556SOL     OW79441  10.042  11.511   4.669
92556SOL    HW179442   9.974  11.483   4.730
92556SOL    HW279443  10.107  11.441   4.671
92557SOL     OW79444   8.095   9.104  14.187
92557SOL    HW179445   8.112   9.014  14.159
92557SOL    HW279446   8.137   9.110  14.273
92558SOL     OW79447   2.029  13.068   1.653
92558SOL    HW179448   2.114  13.072   1.609
92558SOL    HW279449   2.032  13.139   1.717
92559SOL     OW79450   3.615   7.530   9.390
92559SOL    HW179451   3.651   7.618   9.384
92559SOL    HW279452   3.649   7.496   9.473
92560SOL     OW79453   6.960  12.593   2.557
92560SOL    HW179454   7.009  12.539   2.618
92560SOL    HW279455   6.873  12.553   2.554
92561SOL     OW79456  12.539   0.896  10.941
92561SOL    HW179457  12.603   0.964  10.923
92561SOL    HW279458  12.574   0.818  10.898
92562SOL     OW79459  11.233  14.736   0.786
92562SOL    HW179460  11.213  14.816   0.738
92562SOL    HW279461  11.257  14.673   0.718
92563SOL     OW79462   1.669   7.458  14.150
92563SOL    HW179463   1.687   7.399  14.077
92563SOL    HW279464   1.751   7.504  14.165
92564SOL     OW79465   5.015  13.524   7.996
92564SOL    HW179466   5.107  13.499   7.986
92564SOL    HW279467   5.018  13.611   8.034
92565SOL     OW79468   1.145   9.681  11.242
92565SOL    HW179469   1.072   9.640  11.287
92565SOL    HW279470   1.213   9.690  11.308
92566SOL     OW79471  11.457   0.491   3.707
92566SOL    HW179472  11.445   0.423   3.773
92566SOL    HW279473  11.368   0.515   3.680
92567SOL     OW79474  14.328   4.993  13.156
92567SOL    HW179475  14.377   5.009  13.075
92567SOL    HW279476  14.237   4.983  13.128
92568SOL     OW79477   2.686   9.168   9.438
92568SOL    HW179478   2.637   9.136   9.514
92568SOL    HW279479   2.733   9.245   9.471
92569SOL     OW79480   9.140  13.558   0.773
92569SOL    HW179481   9.173  13.489   0.831
92569SOL    HW279482   9.072  13.514   0.720
92570SOL     OW79483  10.316   3.925   0.845
92570SOL    HW179484  10.351   4.010   0.872
92570SOL    HW279485  10.314   3.873   0.925
92571SOL     OW79486   5.026   1.824   7.776
92571SOL    HW179487   5.090   1.859   7.838
92571SOL    HW279488   5.078   1.792   7.702
92572SOL     OW79489   1.203   3.466   2.748
92572SOL    HW179490   1.142   3.519   2.697
92572SOL    HW279491   1.282   3.519   2.753
92573SOL     OW79492   7.548   6.679   3.868
92573SOL    HW179493   7.470   6.735   3.879
92573SOL    HW279494   7.621   6.734   3.896
92574SOL     OW79495   0.470  13.802  14.362
92574SOL    HW179496   0.540  13.740  14.343
92574SOL    HW279497   0.400  13.749  14.401
92575SOL     OW79498   5.769  10.987   1.473
92575SOL    HW179499   5.822  10.908   1.477
92575SOL    HW279500   5.759  11.015   1.564
92576SOL     OW79501   0.906   6.625   8.064
92576SOL    HW179502   0.872   6.710   8.091
92576SOL    HW279503   0.880   6.616   7.972
92577SOL     OW79504  14.424   9.495   8.095
92577SOL    HW179505  14.499   9.471   8.040
92577SOL    HW279506  14.447   9.462   8.182
92578SOL     OW79507   3.469   6.546   5.296
92578SOL    HW179508   3.556   6.556   5.334
92578SOL    HW279509   3.445   6.455   5.315
92579SOL     OW79510   6.488  14.402  11.662
92579SOL    HW179511   6.458  14.461  11.732
92579SOL    HW279512   6.580  14.425  11.650
92580SOL     OW79513  11.040   8.604  14.705
92580SOL    HW179514  11.059   8.677  14.764
92580SOL    HW279515  11.002   8.646  14.628
92581SOL     OW79516  10.885   4.498  13.493
92581SOL    HW179517  10.937   4.562  13.444
92581SOL    HW279518  10.885   4.420  13.438
92582SOL     OW79519   8.262   9.708  12.440
92582SOL    HW179520   8.219   9.706  12.354
92582SOL    HW279521   8.284   9.616  12.458
92583SOL     OW79522  14.077   1.779   7.968
92583SOL    HW179523  13.989   1.742   7.961
92583SOL    HW279524  14.073   1.861   7.919
92584SOL     OW79525  10.416   1.082   4.263
92584SOL    HW179526  10.332   1.057   4.301
92584SOL    HW279527  10.430   1.172   4.292
92585SOL     OW79528  10.875   8.852   0.476
92585SOL    HW179529  10.880   8.841   0.381
92585SOL    HW279530  10.781   8.849   0.495
92586SOL     OW79531   3.632  13.490  12.591
92586SOL    HW179532   3.539  13.486  12.610
92586SOL    HW279533   3.651  13.583  12.584
92587SOL     OW79534   2.819   4.057  11.172
92587SOL    HW179535   2.894   4.039  11.229
92587SOL    HW279536   2.827   4.150  11.150
92588SOL     OW79537   9.356   2.558  11.555
92588SOL    HW179538   9.334   2.472  11.520
92588SOL    HW279539   9.305   2.619  11.502
92589SOL     OW79540   7.741  10.535  11.744
92589SOL    HW179541   7.777  10.543  11.656
92589SOL    HW279542   7.703  10.622  11.762
92590SOL     OW79543   9.974   2.156   3.279
92590SOL    HW179544   9.911   2.151   3.206
92590SOL    HW279545  10.033   2.082   3.265
92591SOL     OW79546  11.289   2.438  11.630
92591SOL    HW179547  11.288   2.473  11.719
92591SOL    HW279548  11.242   2.502  11.578
92592SOL     OW79549   6.794   4.801   3.241
92592SOL    HW179550   6.739   4.798   3.319
92592SOL    HW279551   6.878   4.833   3.272
92593SOL     OW79552  12.572  10.413  14.758
92593SOL    HW179553  12.654  10.455  14.781
92593SOL    HW279554  12.525  10.405  14.841
92594SOL     OW79555   1.622  11.993  12.934
92594SOL    HW179556   1.591  12.010  13.023
92594SOL    HW279557   1.688  12.060  12.918
92595SOL     OW79558  14.757  13.258   2.994
92595SOL    HW179559  14.837  13.308   3.002
92595SOL    HW279560  14.746  13.215   3.079
92596SOL     OW79561  11.970   5.569  13.157
92596SOL    HW179562  11.904   5.638  13.159
92596SOL    HW279563  11.924   5.493  13.120
92597SOL     OW79564   0.461   8.703   6.168
92597SOL    HW179565   0.535   8.708   6.229
92597SOL    HW279566   0.440   8.795   6.150
92598SOL     OW79567   3.050   2.443   4.948
92598SOL    HW179568   3.082   2.358   4.919
92598SOL    HW279569   3.092   2.505   4.888
92599SOL     OW79570   1.051   4.529  13.729
92599SOL    HW179571   1.026   4.442  13.758
92599SOL    HW279572   1.030   4.530  13.635
92600SOL     OW79573   3.622   2.947  12.764
92600SOL    HW179574   3.601   2.953  12.857
92600SOL    HW279575   3.670   3.027  12.744
92601SOL     OW79576  12.777  12.779   4.029
92601SOL    HW179577  12.763  12.751   4.120
92601SOL    HW279578  12.689  12.786   3.992
92602SOL     OW79579   8.589  10.990   9.114
92602SOL    HW179580   8.643  10.978   9.192
92602SOL    HW279581   8.594  11.084   9.096
92603SOL     OW79582   1.945   5.621   7.230
92603SOL    HW179583   1.905   5.694   7.278
92603SOL    HW279584   1.957   5.553   7.296
92604SOL     OW79585  10.200   0.055   1.436
92604SOL    HW179586  10.151   0.093   1.362
92604SOL    HW279587  10.169  14.842   1.440
92605SOL     OW79588   0.908   3.689  10.094
92605SOL    HW179589   0.893   3.765  10.151
92605SOL    HW279590   0.957   3.628  10.149
92606SOL     OW79591  14.685  11.240   4.786
92606SOL    HW179592  14.740  11.173   4.826
92606SOL    HW279593  14.741  11.282   4.721
92607SOL     OW79594   9.927   5.133   4.430
92607SOL    HW179595   9.974   5.076   4.491
92607SOL    HW279596   9.960   5.109   4.344
92608SOL     OW79597  12.502   1.800   8.984
92608SOL    HW179598  12.560   1.813   9.059
92608SOL    HW279599  12.467   1.712   8.997
92609SOL     OW79600   7.193   4.414   1.687
92609SOL    HW179601   7.150   4.372   1.762
92609SOL    HW279602   7.282   4.380   1.689
92610SOL     OW79603  10.616  12.039   2.539
92610SOL    HW179604  10.560  12.066   2.612
92610SOL    HW279605  10.654  11.956   2.568
92611SOL     OW79606   7.312   2.266   4.968
92611SOL    HW179607   7.323   2.192   4.908
92611SOL    HW279608   7.378   2.330   4.939
92612SOL     OW79609   5.575  12.111  11.025
92612SOL    HW179610   5.665  12.105  10.993
92612SOL    HW279611   5.583  12.103  11.120
92613SOL     OW79612   2.322   5.604  10.526
92613SOL    HW179613   2.254   5.640  10.469
92613SOL    HW279614   2.300   5.636  10.613
92614SOL     OW79615  11.922   6.853   2.508
92614SOL    HW179616  11.887   6.767   2.485
92614SOL    HW279617  12.000   6.834   2.560
92615SOL     OW79618   9.990   9.048  10.172
92615SOL    HW179619   9.920   9.028  10.110
92615SOL    HW279620   9.960   9.009  10.254
92616SOL     OW79621   1.272   5.796   3.046
92616SOL    HW179622   1.230   5.862   3.101
92616SOL    HW279623   1.202   5.762   2.991
92617SOL     OW79624  11.725  10.421   8.360
92617SOL    HW179625  11.791  10.434   8.427
92617SOL    HW279626  11.643  10.411   8.408
92618SOL     OW79627  10.664  14.418   8.733
92618SOL    HW179628  10.688  14.382   8.648
92618SOL    HW279629  10.704  14.359   8.797
92619SOL     OW79630   5.607   3.919   2.624
92619SOL    HW179631   5.545   3.973   2.574
92619SOL    HW279632   5.636   3.852   2.563
92620SOL     OW79633  11.237   4.093   8.949
92620SOL    HW179634  11.308   4.115   9.008
92620SOL    HW279635  11.269   4.119   8.862
92621SOL     OW79636   2.852  12.578   4.581
92621SOL    HW179637   2.860  12.654   4.639
92621SOL    HW279638   2.942  12.550   4.565
92622SOL     OW79639   0.546   4.229  10.313
92622SOL    HW179640   0.555   4.137  10.288
92622SOL    HW279641   0.635   4.258  10.335
92623SOL     OW79642  13.577   8.278   2.505
92623SOL    HW179643  13.529   8.202   2.473
92623SOL    HW279644  13.529   8.306   2.583
92624SOL     OW79645  10.150   1.811   3.565
92624SOL    HW179646  10.194   1.733   3.531
92624SOL    HW279647  10.221   1.871   3.585
92625SOL     OW79648   5.295   0.149   0.011
92625SOL    HW179649   5.271   0.240   0.029
92625SOL    HW279650   5.246   0.127  14.810
92626SOL     OW79651   0.248  10.638   0.875
92626SOL    HW179652   0.321  10.584   0.844
92626SOL    HW279653   0.202  10.582   0.938
92627SOL     OW79654  14.117  14.220   6.203
92627SOL    HW179655  14.045  14.171   6.244
92627SOL    HW279656  14.157  14.157   6.143
92628SOL     OW79657   6.113   5.770   7.215
92628SOL    HW179658   6.079   5.724   7.139
92628SOL    HW279659   6.125   5.860   7.186
92629SOL     OW79660   5.031   4.316   0.322
92629SOL    HW179661   4.940   4.311   0.294
92629SOL    HW279662   5.039   4.249   0.390
92630SOL     OW79663   4.195   2.801   5.696
92630SOL    HW179664   4.208   2.709   5.671
92630SOL    HW279665   4.164   2.797   5.786
92631SOL     OW79666   4.043   2.194  12.646
92631SOL    HW179667   4.056   2.141  12.724
92631SOL    HW279668   4.033   2.283  12.678
92632SOL     OW79669  14.439   0.429  12.714
92632SOL    HW179670  14.430   0.372  12.791
92632SOL    HW279671  14.388   0.507  12.735
92633SOL     OW79672   5.216   1.991   1.249
92633SOL    HW179673   5.202   2.083   1.271
92633SOL    HW279674   5.308   1.975   1.271
92634SOL     OW79675   6.629  11.535  12.996
92634SOL    HW179676   6.680  11.491  13.064
92634SOL    HW279677   6.543  11.493  13.000
92635SOL     OW79678   6.289  11.885   6.315
92635SOL    HW179679   6.200  11.879   6.350
92635SOL    HW279680   6.288  11.829   6.238
92636SOL     OW79681   3.087   1.174  13.582
92636SOL    HW179682   3.010   1.224  13.611
92636SOL    HW279683   3.054   1.116  13.513
92637SOL     OW79684  11.409   1.751   5.908
92637SOL    HW179685  11.315   1.747   5.924
92637SOL    HW279686  11.441   1.665   5.937
92638SOL     OW79687   8.580   1.798   5.830
92638SOL    HW179688   8.626   1.801   5.746
92638SOL    HW279689   8.570   1.704   5.848
92639SOL     OW79690   6.167   3.002  11.456
92639SOL    HW179691   6.074   3.019  11.467
92639SOL    HW279692   6.191   2.948  11.532
92640SOL     OW79693   5.243  11.419   5.447
92640SOL    HW179694   5.220  11.438   5.538
92640SOL    HW279695   5.173  11.360   5.417
92641SOL     OW79696  13.849   5.355   5.989
92641SOL    HW179697  13.892   5.382   6.070
92641SOL    HW279698  13.910   5.293   5.948
92642SOL     OW79699  13.910   5.929  14.549
92642SOL    HW179700  13.912   5.902  14.458
92642SOL    HW279701  14.001   5.926  14.577
92643SOL     OW79702   6.121   2.224   8.736
92643SOL    HW179703   6.123   2.320   8.730
92643SOL    HW279704   6.033   2.200   8.706
92644SOL     OW79705   8.121   1.177   9.526
92644SOL    HW179706   8.035   1.184   9.485
92644SOL    HW279707   8.104   1.134   9.610
92645SOL     OW79708  10.460   1.298   2.636
92645SOL    HW179709  10.410   1.365   2.589
92645SOL    HW279710  10.534   1.345   2.673
92646SOL     OW79711   2.472   1.300   5.357
92646SOL    HW179712   2.435   1.226   5.310
92646SOL    HW279713   2.403   1.366   5.357
92647SOL     OW79714   0.754  12.914   8.458
92647SOL    HW179715   0.705  12.903   8.377
92647SOL    HW279716   0.823  12.848   8.455
92648SOL     OW79717   8.419   0.928   7.461
92648SOL    HW179718   8.405   0.895   7.372
92648SOL    HW279719   8.438   0.851   7.513
92649SOL     OW79720  10.278  12.070   6.446
92649SOL    HW179721  10.302  11.985   6.483
92649SOL    HW279722  10.223  12.049   6.371
92650SOL     OW79723  11.854   9.669  10.775
92650SOL    HW179724  11.866   9.621  10.856
92650SOL    HW279725  11.805   9.609  10.719
92651SOL     OW79726   6.390   6.989   6.658
92651SOL    HW179727   6.344   6.998   6.574
92651SOL    HW279728   6.483   7.000   6.636
92652SOL     OW79729   2.010   8.842  13.909
92652SOL    HW179730   2.012   8.879  13.821
92652SOL    HW279731   2.048   8.755  13.900
92653SOL     OW79732   2.897  10.184   5.578
92653SOL    HW179733   2.851  10.241   5.517
92653SOL    HW279734   2.848  10.101   5.575
92654SOL     OW79735   3.047   9.524  10.918
92654SOL    HW179736   3.010   9.476  10.844
92654SOL    HW279737   3.142   9.520  10.904
92655SOL     OW79738  11.369   2.743  11.545
92655SOL    HW179739  11.406   2.697  11.621
92655SOL    HW279740  11.439   2.801  11.516
92656SOL     OW79741   0.910  13.330   8.525
92656SOL    HW179742   0.971  13.257   8.530
92656SOL    HW279743   0.856  13.310   8.449
92657SOL     OW79744   2.533  13.101   1.765
92657SOL    HW179745   2.582  13.092   1.683
92657SOL    HW279746   2.559  13.025   1.817
92658SOL     OW79747   7.002  10.307  10.312
92658SOL    HW179748   7.048  10.334  10.392
92658SOL    HW279749   7.056  10.341  10.241
92659SOL     OW79750  10.958   4.437   4.310
92659SOL    HW179751  10.985   4.347   4.289
92659SOL    HW279752  10.978   4.447   4.403
92660SOL     OW79753   7.051   7.824   7.332
92660SOL    HW179754   7.101   7.775   7.397
92660SOL    HW279755   7.106   7.899   7.310
92661SOL     OW79756   8.662  11.732   7.488
92661SOL    HW179757   8.717  11.809   7.502
92661SOL    HW279758   8.612  11.752   7.409
92662SOL     OW79759   6.285   7.019   6.410
92662SOL    HW179760   6.214   7.080   6.429
92662SOL    HW279761   6.323   7.052   6.328
92663SOL     OW79762  13.024  14.330  13.418
92663SOL    HW179763  12.960  14.386  13.463
92663SOL    HW279764  13.072  14.287  13.489
92664SOL     OW79765   7.724   7.963   8.393
92664SOL    HW179766   7.804   7.951   8.443
92664SOL    HW279767   7.752   7.961   8.301
92665SOL     OW79768   6.389   7.174  13.522
92665SOL    HW179769   6.469   7.185  13.471
92665SOL    HW279770   6.336   7.112  13.472
92666SOL     OW79771  12.135   1.784   4.487
92666SOL    HW179772  12.215   1.812   4.530
92666SOL    HW279773  12.099   1.716   4.544
92667SOL     OW79774   5.929  13.815   5.334
92667SOL    HW179775   5.948  13.819   5.240
92667SOL    HW279776   5.979  13.740   5.366
92668SOL     OW79777   5.148   4.846   5.946
92668SOL    HW179778   5.185   4.833   6.033
92668SOL    HW279779   5.056   4.866   5.962
92669SOL     OW79780   6.888   5.703   8.290
92669SOL    HW179781   6.907   5.787   8.330
92669SOL    HW279782   6.799   5.683   8.316
92670SOL     OW79783   6.577   5.337   7.789
92670SOL    HW179784   6.647   5.397   7.762
92670SOL    HW279785   6.586   5.332   7.884
92671SOL     OW79786  10.567  13.112   2.982
92671SOL    HW179787  10.586  13.153   2.898
92671SOL    HW279788  10.488  13.157   3.013
92672SOL     OW79789   4.203   2.069   3.654
92672SOL    HW179790   4.269   2.099   3.591
92672SOL    HW279791   4.209   1.973   3.650
92673SOL     OW79792   0.034   7.955   8.463
92673SOL    HW179793   0.022   8.018   8.535
92673SOL    HW279794  14.827   7.952   8.419
92674SOL     OW79795   3.247   3.917   0.010
92674SOL    HW179796   3.163   3.915   0.055
92674SOL    HW279797   3.311   3.938   0.078
92675SOL     OW79798  10.187  13.379   7.375
92675SOL    HW179799  10.248  13.436   7.420
92675SOL    HW279800  10.202  13.396   7.282
92676SOL     OW79801   1.213   3.722   0.102
92676SOL    HW179802   1.287   3.748   0.158
92676SOL    HW279803   1.216   3.627   0.102
92677SOL     OW79804  10.915   4.266   9.839
92677SOL    HW179805  10.943   4.255   9.930
92677SOL    HW279806  10.848   4.334   9.841
92678SOL     OW79807   4.861  10.126   0.488
92678SOL    HW179808   4.880  10.088   0.403
92678SOL    HW279809   4.936  10.102   0.543
92679SOL     OW79810   7.388  10.127   2.033
92679SOL    HW179811   7.380  10.040   2.072
92679SOL    HW279812   7.385  10.187   2.108
92680SOL     OW79813   8.990   4.949  12.444
92680SOL    HW179814   8.927   5.020  12.431
92680SOL    HW279815   8.948   4.891  12.508
92681SOL     OW79816  12.526   5.423  14.837
92681SOL    HW179817  12.577   5.385  14.766
92681SOL    HW279818  12.469   5.352  14.866
92682SOL     OW79819  13.890   8.332   7.166
92682SOL    HW179820  13.928   8.251   7.202
92682SOL    HW279821  13.934   8.343   7.082
92683SOL     OW79822  12.343  14.300   0.966
92683SOL    HW179823  12.266  14.303   0.909
92683SOL    HW279824  12.309  14.319   1.053
92684SOL     OW79825  13.016   3.044  10.927
92684SOL    HW179826  13.054   3.012  10.845
92684SOL    HW279827  13.065   3.124  10.946
92685SOL     OW79828   1.499   4.363   2.075
92685SOL    HW179829   1.592   4.358   2.052
92685SOL    HW279830   1.498   4.403   2.162
92686SOL     OW79831   0.033   2.766   9.260
92686SOL    HW179832   0.020   2.727   9.347
92686SOL    HW279833  14.822   2.786   9.230
92687SOL     OW79834  14.730   9.094  13.369
92687SOL    HW179835  14.662   9.159  13.351
92687SOL    HW279836  14.686   9.010  13.358
92688SOL     OW79837  10.906   5.075   5.205
92688SOL    HW179838  10.949   5.149   5.162
92688SOL    HW279839  10.957   5.061   5.285
92689SOL     OW79840  11.870   1.631  13.537
92689SOL    HW179841  11.818   1.688  13.595
92689SOL    HW279842  11.805   1.585  13.484
92690SOL     OW79843  13.908  10.096   3.988
92690SOL    HW179844  13.987  10.145   3.965
92690SOL    HW279845  13.882  10.130   4.073
92691SOL     OW79846   0.208   8.447  12.778
92691SOL    HW179847   0.303   8.459  12.786
92691SOL    HW279848   0.172   8.486  12.857
92692SOL     OW79849  12.219   1.856   1.004
92692SOL    HW179850  12.236   1.804   0.926
92692SOL    HW279851  12.262   1.808   1.075
92693SOL     OW79852   9.827   6.986   1.361
92693SOL    HW179853   9.921   6.989   1.380
92693SOL    HW279854   9.786   6.968   1.445
92694SOL     OW79855   5.600  10.576  12.675
92694SOL    HW179856   5.549  10.496  12.661
92694SOL    HW279857   5.615  10.611  12.588
92695SOL     OW79858   3.371   3.361   9.723
92695SOL    HW179859   3.416   3.434   9.680
92695SOL    HW279860   3.348   3.396   9.809
92696SOL     OW79861  10.475   1.094   3.178
92696SOL    HW179862  10.436   1.013   3.146
92696SOL    HW279863  10.401   1.145   3.212
92697SOL     OW79864   1.681  11.500   2.481
92697SOL    HW179865   1.739  11.496   2.556
92697SOL    HW279866   1.643  11.588   2.484
92698SOL     OW79867  10.985   1.634   7.816
92698SOL    HW179868  11.009   1.649   7.907
92698SOL    HW279869  10.981   1.721   7.777
92699SOL     OW79870  10.548  12.810  14.479
92699SOL    HW179871  10.463  12.789  14.519
92699SOL    HW279872  10.532  12.806  14.385
92700SOL     OW79873   1.586   3.851  12.986
92700SOL    HW179874   1.679   3.856  13.007
92700SOL    HW279875   1.543   3.906  13.052
92701SOL     OW79876  14.362  12.932   8.625
92701SOL    HW179877  14.454  12.958   8.632
92701SOL    HW279878  14.324  12.955   8.710
92702SOL     OW79879   8.932   4.690   6.244
92702SOL    HW179880   9.020   4.722   6.267
92702SOL    HW279881   8.942   4.658   6.154
92703SOL     OW79882  12.892   9.481   5.746
92703SOL    HW179883  12.855   9.440   5.824
92703SOL    HW279884  12.909   9.571   5.772
92704SOL     OW79885   7.202   4.102   1.640
92704SOL    HW179886   7.114   4.123   1.610
92704SOL    HW279887   7.198   4.110   1.736
92705SOL     OW79888   6.739   6.274  14.393
92705SOL    HW179889   6.745   6.325  14.474
92705SOL    HW279890   6.650   6.238  14.394
92706SOL     OW79891  12.310   4.370   9.240
92706SOL    HW179892  12.285   4.359   9.148
92706SOL    HW279893  12.323   4.464   9.250
92707SOL     OW79894  14.399   4.705   3.839
92707SOL    HW179895  14.451   4.633   3.803
92707SOL    HW279896  14.463   4.774   3.857
92708SOL     OW79897  10.914   6.566   4.481
92708SOL    HW179898  10.865   6.498   4.528
92708SOL    HW279899  10.963   6.519   4.414
92709SOL     OW79900  13.968   6.405  10.629
92709SOL    HW179901  13.904   6.472  10.653
92709SOL    HW279902  14.050   6.434  10.670
92710SOL     OW79903  12.728  10.582  10.849
92710SOL    HW179904  12.680  10.623  10.777
92710SOL    HW279905  12.727  10.648  10.919
92711SOL     OW79906  13.086  12.191   1.231
92711SOL    HW179907  13.123  12.104   1.224
92711SOL    HW279908  13.133  12.232   1.304
92712SOL     OW79909   4.249   5.154   7.884
92712SOL    HW179910   4.216   5.243   7.877
92712SOL    HW279911   4.205   5.106   7.814
92713SOL     OW79912   5.803  11.006   4.499
92713SOL    HW179913   5.828  10.974   4.585
92713SOL    HW279914   5.708  10.999   4.497
92714SOL     OW79915   6.340   6.473   6.175
92714SOL    HW179916   6.380   6.560   6.182
92714SOL    HW279917   6.306   6.456   6.263
92715SOL     OW79918   2.845   5.012   8.516
92715SOL    HW179919   2.791   4.947   8.562
92715SOL    HW279920   2.841   4.984   8.424
92716SOL     OW79921   0.221  11.688  13.384
92716SOL    HW179922   0.155  11.741  13.339
92716SOL    HW279923   0.181  11.666  13.468
92717SOL     OW79924   7.293  14.319  14.534
92717SOL    HW179925   7.214  14.289  14.581
92717SOL    HW279926   7.266  14.399  14.490
92718SOL     OW79927  11.027  14.222  14.253
92718SOL    HW179928  11.116  14.225  14.289
92718SOL    HW279929  10.987  14.147  14.295
92719SOL     OW79930   3.573   3.133   1.027
92719SOL    HW179931   3.631   3.177   0.966
92719SOL    HW279932   3.508   3.089   0.973
92720SOL     OW79933   3.841   9.851  13.174
92720SOL    HW179934   3.806   9.762  13.168
92720SOL    HW279935   3.803   9.897  13.100
92721SOL     OW79936   6.116   8.824   3.912
92721SOL    HW179937   6.084   8.914   3.918
92721SOL    HW279938   6.182   8.826   3.842
92722SOL     OW79939   3.257  10.888  13.873
92722SOL    HW179940   3.207  10.815  13.838
92722SOL    HW279941   3.229  10.894  13.965
92723SOL     OW79942   7.310   9.013   7.340
92723SOL    HW179943   7.405   9.007   7.334
92723SOL    HW279944   7.281   9.023   7.249
92724SOL     OW79945   2.192   5.420   4.131
92724SOL    HW179946   2.278   5.457   4.150
92724SOL    HW279947   2.156   5.475   4.061
92725SOL     OW79948   3.484   9.869   3.923
92725SOL    HW179949   3.463   9.952   3.965
92725SOL    HW279950   3.551   9.830   3.978
92726SOL     OW79951  10.982   4.353   5.630
92726SOL    HW179952  11.074   4.343   5.604
92726SOL    HW279953  10.934   4.295   5.571
92727SOL     OW79954   2.979   7.457   7.270
92727SOL    HW179955   2.989   7.364   7.251
92727SOL    HW279956   2.982   7.463   7.365
92728SOL     OW79957   5.820   5.643   8.681
92728SOL    HW179958   5.741   5.682   8.718
92728SOL    HW279959   5.857   5.711   8.625
92729SOL     OW79960  11.760  13.760   0.411
92729SOL    HW179961  11.703  13.832   0.384
92729SOL    HW279962  11.717  13.722   0.487
92730SOL     OW79963  11.909   1.279   2.037
92730SOL    HW179964  11.837   1.266   2.098
92730SOL    HW279965  11.867   1.285   1.951
92731SOL     OW79966   4.523  11.437   4.010
92731SOL    HW179967   4.617  11.454   4.005
92731SOL    HW279968   4.499  11.465   4.098
92732SOL     OW79969   0.998  13.447   9.398
92732SOL    HW179970   0.954  13.366   9.424
92732SOL    HW279971   0.939  13.517   9.427
92733SOL     OW79972   3.247   1.383   5.591
92733SOL    HW179973   3.281   1.309   5.542
92733SOL    HW279974   3.250   1.356   5.682
92734SOL     OW79975  11.240   1.193   6.453
92734SOL    HW179976  11.210   1.271   6.500
92734SOL    HW279977  11.287   1.142   6.519
92735SOL     OW79978  11.061   7.840  14.144
92735SOL    HW179979  11.069   7.757  14.097
92735SOL    HW279980  10.967   7.857  14.149
92736SOL     OW79981   0.435  11.891   9.851
92736SOL    HW179982   0.427  11.963   9.913
92736SOL    HW279983   0.404  11.814   9.899
92737SOL     OW79984  14.366  11.832   3.047
92737SOL    HW179985  14.317  11.865   3.123
92737SOL    HW279986  14.453  11.869   3.057
92738SOL     OW79987   1.144   2.725  13.052
92738SOL    HW179988   1.077   2.685  13.107
92738SOL    HW279989   1.103   2.805  13.018
92739SOL     OW79990   5.081   3.393  12.666
92739SOL    HW179991   5.139   3.461  12.700
92739SOL    HW279992   4.993   3.428  12.681
92740SOL     OW79993   8.086   7.525  13.861
92740SOL    HW179994   8.177   7.510  13.837
92740SOL    HW279995   8.037   7.502  13.782
92741SOL     OW79996   2.024  12.183   5.798
92741SOL    HW179997   1.957  12.115   5.783
92741SOL    HW279998   2.101  12.134   5.825
92742SOL     OW79999   0.436   9.111   9.588
92742SOL    HW180000   0.512   9.082   9.639
92742SOL    HW280001   0.472   9.139   9.504
92743SOL     OW80002   4.553  10.680   2.603
92743SOL    HW180003   4.532  10.738   2.530
92743SOL    HW280004   4.481  10.694   2.665
92744SOL     OW80005  14.489  10.241   3.452
92744SOL    HW180006  14.412  10.204   3.495
92744SOL    HW280007  14.558  10.178   3.470
92745SOL     OW80008   6.976  12.981   7.047
92745SOL    HW180009   6.955  13.031   7.126
92745SOL    HW280010   7.056  13.022   7.014
92746SOL     OW80011   9.053  10.748   5.516
92746SOL    HW180012   9.107  10.742   5.437
92746SOL    HW280013   9.070  10.667   5.563
92747SOL     OW80014   3.956  12.015   1.533
92747SOL    HW180015   3.938  12.102   1.570
92747SOL    HW280016   4.011  11.973   1.599
92748SOL     OW80017  14.503  10.144   5.383
92748SOL    HW180018  14.520  10.223   5.332
92748SOL    HW280019  14.553  10.075   5.337
92749SOL     OW80020   6.964  13.883   4.452
92749SOL    HW180021   6.902  13.812   4.436
92749SOL    HW280022   7.021  13.882   4.375
92750SOL     OW80023   4.020   3.301   0.353
92750SOL    HW180024   3.983   3.380   0.313
92750SOL    HW280025   4.006   3.233   0.288
92751SOL     OW80026   4.513  13.327  13.370
92751SOL    HW180027   4.429  13.284  13.387
92751SOL    HW280028   4.507  13.355  13.278
92752SOL     OW80029  13.744   8.176   8.804
92752SOL    HW180030  13.704   8.249   8.757
92752SOL    HW280031  13.828   8.209   8.833
92753SOL     OW80032   9.333   1.568  12.928
92753SOL    HW180033   9.347   1.648  12.978
92753SOL    HW280034   9.308   1.598  12.841
92754SOL     OW80035   5.739   4.394   8.007
92754SOL    HW180036   5.827   4.413   7.976
92754SOL    HW280037   5.752   4.326   8.074
92755SOL     OW80038  12.061   4.875   0.346
92755SOL    HW180039  12.109   4.876   0.264
92755SOL    HW280040  12.056   4.783   0.371
92756SOL     OW80041  14.061   6.997   2.073
92756SOL    HW180042  14.118   6.983   2.149
92756SOL    HW280043  14.092   7.080   2.035
92757SOL     OW80044   5.555  13.400   4.996
92757SOL    HW180045   5.479  13.352   4.963
92757SOL    HW280046   5.630  13.348   4.969
92758SOL     OW80047   5.781   6.572  11.288
92758SOL    HW180048   5.690   6.595  11.303
92758SOL    HW280049   5.789   6.482  11.319
92759SOL     OW80050   8.302   3.726   9.710
92759SOL    HW180051   8.283   3.817   9.688
92759SOL    HW280052   8.272   3.676   9.634
92760SOL     OW80053   0.996   6.004   2.796
92760SOL    HW180054   0.902   5.990   2.805
92760SOL    HW280055   1.020   6.061   2.869
92761SOL     OW80056   9.337   0.094  13.325
92761SOL    HW180057   9.427   0.112  13.352
92761SOL    HW280058   9.335   0.114  13.231
92762SOL     OW80059   2.444   7.454   9.802
92762SOL    HW180060   2.370   7.393   9.796
92762SOL    HW280061   2.414   7.533   9.757
92763SOL     OW80062   2.768   1.929   1.341
92763SOL    HW180063   2.680   1.892   1.344
92763SOL    HW280064   2.782   1.952   1.249
92764SOL     OW80065  10.201   4.901   0.023
92764SOL    HW180066  10.117   4.926   0.061
92764SOL    HW280067  10.253   4.982   0.026
92765SOL     OW80068   3.633   3.133   2.360
92765SOL    HW180069   3.582   3.197   2.409
92765SOL    HW280070   3.723   3.149   2.386
92766SOL     OW80071   5.860  12.104   0.133
92766SOL    HW180072   5.832  12.154   0.210
92766SOL    HW280073   5.873  12.171   0.065
92767SOL     OW80074   9.401   3.252   1.117
92767SOL    HW180075   9.475   3.251   1.178
92767SOL    HW280076   9.346   3.178   1.145
92768SOL     OW80077   3.382  11.987   7.713
92768SOL    HW180078   3.351  11.896   7.705
92768SOL    HW280079   3.477  11.980   7.712
92769SOL     OW80080   7.924   5.605   5.962
92769SOL    HW180081   7.928   5.612   5.866
92769SOL    HW280082   8.015   5.593   5.989
92770SOL     OW80083   3.702  12.202   2.253
92770SOL    HW180084   3.739  12.115   2.243
92770SOL    HW280085   3.776  12.258   2.277
92771SOL     OW80086   2.196   8.349  14.535
92771SOL    HW180087   2.162   8.269  14.573
92771SOL    HW280088   2.283   8.359  14.573
92772SOL     OW80089   5.292   8.441   3.281
92772SOL    HW180090   5.239   8.372   3.319
92772SOL    HW280091   5.260   8.449   3.191
92773SOL     OW80092  11.057  14.591   9.339
92773SOL    HW180093  11.081  14.499   9.324
92773SOL    HW280094  10.994  14.611   9.270
92774SOL     OW80095  13.172   6.395   7.679
92774SOL    HW180096  13.201   6.485   7.670
92774SOL    HW280097  13.140   6.370   7.593
92775SOL     OW80098  14.339  13.429   5.314
92775SOL    HW180099  14.423  13.474   5.329
92775SOL    HW280100  14.325  13.438   5.219
92776SOL     OW80101  11.459   3.218   3.461
92776SOL    HW180102  11.510   3.257   3.532
92776SOL    HW280103  11.371   3.252   3.474
92777SOL     OW80104   8.160  12.954   4.651
92777SOL    HW180105   8.117  12.951   4.736
92777SOL    HW280106   8.133  13.038   4.614
92778SOL     OW80107  12.951   0.712   5.945
92778SOL    HW180108  13.044   0.703   5.966
92778SOL    HW280109  12.950   0.728   5.851
92779SOL     OW80110   3.317   3.401   5.760
92779SOL    HW180111   3.376   3.382   5.833
92779SOL    HW280112   3.298   3.495   5.768
92780SOL     OW80113   6.146  11.090  12.237
92780SOL    HW180114   6.073  11.063  12.181
92780SOL    HW280115   6.110  11.157  12.294
92781SOL     OW80116   4.700   3.266  14.435
92781SOL    HW180117   4.771   3.244  14.495
92781SOL    HW280118   4.709   3.360  14.419
92782SOL     OW80119   4.538   6.582   6.892
92782SOL    HW180120   4.565   6.656   6.836
92782SOL    HW280121   4.594   6.510   6.865
92783SOL     OW80122   5.179   4.369  10.962
92783SOL    HW180123   5.118   4.308  11.002
92783SOL    HW280124   5.126   4.419  10.900
92784SOL     OW80125  11.962   0.182   9.789
92784SOL    HW180126  12.021   0.252   9.761
92784SOL    HW280127  11.906   0.223   9.854
92785SOL     OW80128   1.288  12.831  13.145
92785SOL    HW180129   1.247  12.748  13.122
92785SOL    HW280130   1.360  12.806  13.204
92786SOL     OW80131  11.377  14.274  10.619
92786SOL    HW180132  11.470  14.259  10.606
92786SOL    HW280133  11.362  14.258  10.712
92787SOL     OW80134  13.932   1.719   7.396
92787SOL    HW180135  13.991   1.687   7.328
92787SOL    HW280136  13.978   1.794   7.434
92788SOL     OW80137   1.933  11.103   9.336
92788SOL    HW180138   1.938  11.140   9.424
92788SOL    HW280139   2.022  11.110   9.301
92789SOL     OW80140  12.017  11.672  11.788
92789SOL    HW180141  11.977  11.758  11.804
92789SOL    HW280142  12.020  11.631  11.874
92790SOL     OW80143   4.714   9.856  12.095
92790SOL    HW180144   4.791   9.900  12.131
92790SOL    HW280145   4.728   9.857  12.000
92791SOL     OW80146   1.613   6.632  13.797
92791SOL    HW180147   1.709   6.635  13.800
92791SOL    HW280148   1.586   6.719  13.825
92792SOL     OW80149   5.474  11.131   8.706
92792SOL    HW180150   5.490  11.212   8.658
92792SOL    HW280151   5.552  11.078   8.691
92793SOL     OW80152   3.317   4.702  11.037
92793SOL    HW180153   3.226   4.713  11.009
92793SOL    HW280154   3.358   4.650  10.968
92794SOL     OW80155   8.106  10.727   4.597
92794SOL    HW180156   8.100  10.739   4.503
92794SOL    HW280157   8.046  10.655   4.616
92795SOL     OW80158   1.070  10.686  12.250
92795SOL    HW180159   1.120  10.767  12.259
92795SOL    HW280160   1.076  10.665  12.156
92796SOL     OW80161   0.266  14.447   8.191
92796SOL    HW180162   0.318  14.460   8.270
92796SOL    HW280163   0.248  14.535   8.159
92797SOL     OW80164   5.828   3.633  10.815
92797SOL    HW180165   5.816   3.652  10.908
92797SOL    HW280166   5.872   3.548  10.814
92798SOL     OW80167  10.282  14.252   8.561
92798SOL    HW180168  10.341  14.278   8.632
92798SOL    HW280169  10.200  14.295   8.582
92799SOL     OW80170  14.015   0.482   6.411
92799SOL    HW180171  14.015   0.576   6.429
92799SOL    HW280172  13.950   0.446   6.471
92800SOL     OW80173   4.079   3.811  14.662
92800SOL    HW180174   4.083   3.776  14.751
92800SOL    HW280175   4.147   3.878  14.659
92801SOL     OW80176  13.492   2.074  13.224
92801SOL    HW180177  13.488   2.142  13.157
92801SOL    HW280178  13.401   2.061  13.250
92802SOL     OW80179   8.623   3.758   0.388
92802SOL    HW180180   8.645   3.817   0.316
92802SOL    HW280181   8.625   3.670   0.349
92803SOL     OW80182   9.243   2.779   0.833
92803SOL    HW180183   9.243   2.689   0.867
92803SOL    HW280184   9.315   2.781   0.770
92804SOL     OW80185  10.380  13.188   8.193
92804SOL    HW180186  10.366  13.218   8.103
92804SOL    HW280187  10.452  13.242   8.225
92805SOL     OW80188   8.814  10.455  14.423
92805SOL    HW180189   8.816  10.508  14.503
92805SOL    HW280190   8.904  10.424  14.414
92806SOL     OW80191   0.107  14.052  11.820
92806SOL    HW180192   0.027  14.030  11.773
92806SOL    HW280193   0.158  14.105  11.759
92807SOL     OW80194   2.866  11.389  13.102
92807SOL    HW180195   2.857  11.304  13.146
92807SOL    HW280196   2.812  11.449  13.154
92808SOL     OW80197   8.321   6.398   0.940
92808SOL    HW180198   8.373   6.361   0.869
92808SOL    HW280199   8.231   6.398   0.906
92809SOL     OW80200   8.328  10.814  10.345
92809SOL    HW180201   8.338  10.905  10.374
92809SOL    HW280202   8.263  10.777  10.404
92810SOL     OW80203   3.184   4.122   3.203
92810SOL    HW180204   3.104   4.070   3.190
92810SOL    HW280205   3.254   4.065   3.170
92811SOL     OW80206   1.725  12.481   9.147
92811SOL    HW180207   1.641  12.443   9.118
92811SOL    HW280208   1.739  12.443   9.234
92812SOL     OW80209   9.203  12.596  13.010
92812SOL    HW180210   9.261  12.663  13.045
92812SOL    HW280211   9.253  12.555  12.939
92813SOL     OW80212  11.368  13.528   6.164
92813SOL    HW180213  11.278  13.498   6.161
92813SOL    HW280214  11.412  13.480   6.093
92814SOL     OW80215   5.054  11.272   1.924
92814SOL    HW180216   5.147  11.290   1.910
92814SOL    HW280217   5.010  11.307   1.847
92815SOL     OW80218   0.881   1.185   1.556
92815SOL    HW180219   0.964   1.223   1.527
92815SOL    HW280220   0.892   1.091   1.542
92816SOL     OW80221  13.499  14.794  13.300
92816SOL    HW180222  13.432  14.802  13.232
92816SOL    HW280223  13.458  14.742  13.369
92817SOL     OW80224  11.517   7.991   1.552
92817SOL    HW180225  11.493   7.935   1.626
92817SOL    HW280226  11.464   8.070   1.563
92818SOL     OW80227  13.656  10.818  12.878
92818SOL    HW180228  13.655  10.792  12.785
92818SOL    HW280229  13.743  10.792  12.908
92819SOL     OW80230  14.665   8.214   5.421
92819SOL    HW180231  14.594   8.150   5.419
92819SOL    HW280232  14.725   8.185   5.353
92820SOL     OW80233   7.172   9.260   0.935
92820SOL    HW180234   7.163   9.203   1.012
92820SOL    HW280235   7.091   9.311   0.934
92821SOL     OW80236   7.092   6.756   9.818
92821SOL    HW180237   7.074   6.685   9.879
92821SOL    HW280238   7.124   6.713   9.739
92822SOL     OW80239  13.011  10.153   2.693
92822SOL    HW180240  13.037  10.072   2.736
92822SOL    HW280241  12.928  10.177   2.734
92823SOL     OW80242  12.587   7.356  14.395
92823SOL    HW180243  12.498   7.376  14.425
92823SOL    HW280244  12.574   7.307  14.314
92824SOL     OW80245   5.168   1.541  14.165
92824SOL    HW180246   5.152   1.457  14.121
92824SOL    HW280247   5.140   1.607  14.102
92825SOL     OW80248   9.218  11.187   9.738
92825SOL    HW180249   9.231  11.157   9.648
92825SOL    HW280250   9.125  11.210   9.743
92826SOL     OW80251   2.921   9.820   9.528
92826SOL    HW180252   2.979   9.744   9.531
92826SOL    HW280253   2.860   9.805   9.600
92827SOL     OW80254  13.566   8.115   4.280
92827SOL    HW180255  13.542   8.058   4.353
92827SOL    HW280256  13.661   8.103   4.272
92828SOL     OW80257  12.687   1.332   3.566
92828SOL    HW180258  12.666   1.240   3.585
92828SOL    HW280259  12.667   1.378   3.647
92829SOL     OW80260  10.188  14.512  11.817
92829SOL    HW180261  10.112  14.556  11.854
92829SOL    HW280262  10.159  14.482  11.731
92830SOL     OW80263  12.926   5.000   3.968
92830SOL    HW180264  12.903   5.059   3.896
92830SOL    HW280265  12.848   4.999   4.024
92831SOL     OW80266   6.579  10.239  12.933
92831SOL    HW180267   6.602  10.332  12.934
92831SOL    HW280268   6.662  10.193  12.923
92832SOL     OW80269   9.141  13.548   8.510
92832SOL    HW180270   9.138  13.572   8.418
92832SOL    HW280271   9.072  13.601   8.551
92833SOL     OW80272   4.558   5.046  11.718
92833SOL    HW180273   4.648   5.071  11.738
92833SOL    HW280274   4.556   5.041  11.622
92834SOL     OW80275   4.945   4.210  11.873
92834SOL    HW180276   5.033   4.246  11.859
92834SOL    HW280277   4.957   4.145  11.943
92835SOL     OW80278   7.992  11.595   4.464
92835SOL    HW180279   8.066  11.535   4.451
92835SOL    HW280280   7.918  11.538   4.484
92836SOL     OW80281   2.504  11.997   4.314
92836SOL    HW180282   2.567  12.035   4.253
92836SOL    HW280283   2.550  11.993   4.398
92837SOL     OW80284   5.752   0.328   5.475
92837SOL    HW180285   5.820   0.267   5.503
92837SOL    HW280286   5.725   0.373   5.556
92838SOL     OW80287  13.817   9.939   0.911
92838SOL    HW180288  13.854   9.997   0.845
92838SOL    HW280289  13.733   9.912   0.875
92839SOL     OW80290   3.089   1.560   5.778
92839SOL    HW180291   3.086   1.625   5.708
92839SOL    HW280292   3.046   1.483   5.742
92840SOL     OW80293   7.079   6.820  12.789
92840SOL    HW180294   7.131   6.875  12.730
92840SOL    HW280295   7.142   6.759  12.827
92841SOL     OW80296   4.739   3.043   7.687
92841SOL    HW180297   4.752   2.967   7.744
92841SOL    HW280298   4.805   3.033   7.618
92842SOL     OW80299  13.602   9.086   4.122
92842SOL    HW180300  13.594   9.172   4.163
92842SOL    HW280301  13.696   9.073   4.110
92843SOL     OW80302   8.709   5.326   1.207
92843SOL    HW180303   8.765   5.275   1.265
92843SOL    HW280304   8.713   5.280   1.123
92844SOL     OW80305   6.048  10.944  11.540
92844SOL    HW180306   6.020  10.853  11.528
92844SOL    HW280307   6.013  10.991  11.465
92845SOL     OW80308   1.858  13.146  12.790
92845SOL    HW180309   1.837  13.236  12.763
92845SOL    HW280310   1.804  13.091  12.733
92846SOL     OW80311   1.273  11.274  12.975
92846SOL    HW180312   1.268  11.198  12.917
92846SOL    HW280313   1.327  11.337  12.928
92847SOL     OW80314   4.275   0.627   7.664
92847SOL    HW180315   4.304   0.536   7.653
92847SOL    HW280316   4.356   0.677   7.669
92848SOL     OW80317  12.680   8.616   2.004
92848SOL    HW180318  12.752   8.676   1.984
92848SOL    HW280319  12.659   8.575   1.920
92849SOL     OW80320   3.865   1.879   9.981
92849SOL    HW180321   3.915   1.809  10.023
92849SOL    HW280322   3.775   1.864  10.010
92850SOL     OW80323  10.113  10.549  13.894
92850SOL    HW180324  10.180  10.494  13.855
92850SOL    HW280325  10.113  10.525  13.987
92851SOL     OW80326   9.430  13.646  11.268
92851SOL    HW180327   9.486  13.598  11.329
92851SOL    HW280328   9.412  13.729  11.312
92852SOL     OW80329   8.324  12.234   1.364
92852SOL    HW180330   8.250  12.204   1.312
92852SOL    HW280331   8.359  12.309   1.316
92853SOL     OW80332   6.073  12.597   4.184
92853SOL    HW180333   6.093  12.637   4.269
92853SOL    HW280334   6.109  12.509   4.190
92854SOL     OW80335   6.070   8.746   4.393
92854SOL    HW180336   6.024   8.745   4.309
92854SOL    HW280337   6.161   8.726   4.372
92855SOL     OW80338   8.677  14.860   6.516
92855SOL    HW180339   8.731   0.036   6.459
92855SOL    HW280340   8.595   0.031   6.525
92856SOL     OW80341  10.503   1.526  13.988
92856SOL    HW180342  10.462   1.536  13.902
92856SOL    HW280343  10.444   1.572  14.048
92857SOL     OW80344  12.627  14.317  12.511
92857SOL    HW180345  12.616  14.247  12.447
92857SOL    HW280346  12.589  14.282  12.592
92858SOL     OW80347   2.091  12.159   1.059
92858SOL    HW180348   2.103  12.193   1.148
92858SOL    HW280349   2.010  12.199   1.029
92859SOL     OW80350  12.318   0.004  13.071
92859SOL    HW180351  12.243  14.826  13.092
92859SOL    HW280352  12.289   0.055  12.996
92860SOL     OW80353   0.947   1.449  11.580
92860SOL    HW180354   0.858   1.485  11.572
92860SOL    HW280355   0.944   1.395  11.659
92861SOL     OW80356   1.409   9.706   2.432
92861SOL    HW180357   1.427   9.636   2.369
92861SOL    HW280358   1.464   9.686   2.507
92862SOL     OW80359   5.481  12.429   1.337
92862SOL    HW180360   5.482  12.480   1.418
92862SOL    HW280361   5.572  12.402   1.325
92863SOL     OW80362   9.581   5.246   0.729
92863SOL    HW180363   9.636   5.173   0.758
92863SOL    HW280364   9.636   5.323   0.743
92864SOL     OW80365   2.463   6.950   8.796
92864SOL    HW180366   2.515   7.030   8.800
92864SOL    HW280367   2.516   6.889   8.744
92865SOL     OW80368  14.018   9.167   8.433
92865SOL    HW180369  14.029   9.119   8.351
92865SOL    HW280370  13.935   9.134   8.469
92866SOL     OW80371   8.874  13.533   1.484
92866SOL    HW180372   8.805  13.542   1.550
92866SOL    HW280373   8.948  13.583   1.520
92867SOL     OW80374   5.479   4.338   9.304
92867SOL    HW180375   5.446   4.250   9.286
92867SOL    HW280376   5.515   4.333   9.393
92868SOL     OW80377   1.012   9.193   3.307
92868SOL    HW180378   0.982   9.172   3.218
92868SOL    HW280379   1.072   9.267   3.295
92869SOL     OW80380   6.959  12.902   9.300
92869SOL    HW180381   7.043  12.947   9.306
92869SOL    HW280382   6.982  12.810   9.286
92870SOL     OW80383   2.004   8.838   4.281
92870SOL    HW180384   1.970   8.928   4.282
92870SOL    HW280385   1.944   8.789   4.337
92871SOL     OW80386   8.590  14.472   8.154
92871SOL    HW180387   8.554  14.433   8.234
92871SOL    HW280388   8.682  14.447   8.155
92872SOL     OW80389   7.278   9.980   7.248
92872SOL    HW180390   7.292  10.075   7.249
92872SOL    HW280391   7.315   9.949   7.330
92873SOL     OW80392  12.839   1.770   1.998
92873SOL    HW180393  12.776   1.843   2.004
92873SOL    HW280394  12.834   1.742   1.906
92874SOL     OW80395   6.979   1.920   1.261
92874SOL    HW180396   6.951   1.967   1.183
92874SOL    HW280397   6.908   1.858   1.279
92875SOL     OW80398   1.063  10.211   4.632
92875SOL    HW180399   1.058  10.306   4.630
92875SOL    HW280400   1.039  10.187   4.721
92876SOL     OW80401  13.370   3.274  14.132
92876SOL    HW180402  13.429   3.201  14.149
92876SOL    HW280403  13.408   3.319  14.056
92877SOL     OW80404   1.407   9.676   5.543
92877SOL    HW180405   1.371   9.631   5.467
92877SOL    HW280406   1.422   9.766   5.513
92878SOL     OW80407   7.230   3.901  13.974
92878SOL    HW180408   7.276   3.917  13.892
92878SOL    HW280409   7.203   3.987  14.004
92879SOL     OW80410   3.838  11.076  10.834
92879SOL    HW180411   3.897  11.091  10.761
92879SOL    HW280412   3.892  11.087  10.912
92880SOL     OW80413   0.843   9.985   2.873
92880SOL    HW180414   0.888   9.901   2.862
92880SOL    HW280415   0.904  10.049   2.838
92881SOL     OW80416  11.842   9.136  12.910
92881SOL    HW180417  11.806   9.224  12.901
92881SOL    HW280418  11.821   9.110  13.000
92882SOL     OW80419   4.688   5.783   8.978
92882SOL    HW180420   4.693   5.845   9.051
92882SOL    HW280421   4.612   5.812   8.927
92883SOL     OW80422   6.902   2.223   4.406
92883SOL    HW180423   6.950   2.305   4.406
92883SOL    HW280424   6.933   2.177   4.484
92884SOL     OW80425   9.005   7.242  10.250
92884SOL    HW180426   9.073   7.211  10.309
92884SOL    HW280427   9.008   7.338  10.258
92885SOL     OW80428   7.594  13.405   3.780
92885SOL    HW180429   7.539  13.327   3.767
92885SOL    HW280430   7.680  13.380   3.746
92886SOL     OW80431  10.068   9.492   4.489
92886SOL    HW180432  10.042   9.532   4.571
92886SOL    HW280433  10.103   9.406   4.513
92887SOL     OW80434   9.464  10.949  11.638
92887SOL    HW180435   9.549  10.975  11.673
92887SOL    HW280436   9.443  10.867  11.685
92888SOL     OW80437   4.892   9.035   4.032
92888SOL    HW180438   4.850   8.956   3.997
92888SOL    HW280439   4.892   9.022   4.127
92889SOL     OW80440   2.398  12.388  10.631
92889SOL    HW180441   2.468  12.339  10.588
92889SOL    HW280442   2.328  12.392  10.566
92890SOL     OW80443   3.139  12.565   1.881
92890SOL    HW180444   3.214  12.552   1.823
92890SOL    HW280445   3.065  12.579   1.822
92891SOL     OW80446  10.966   4.042   7.101
92891SOL    HW180447  11.017   3.967   7.131
92891SOL    HW280448  10.962   4.101   7.176
92892SOL     OW80449   1.072   6.622  12.326
92892SOL    HW180450   1.069   6.707  12.371
92892SOL    HW280451   0.981   6.591  12.328
92893SOL     OW80452  12.862   8.531   4.352
92893SOL    HW180453  12.827   8.501   4.268
92893SOL    HW280454  12.873   8.626   4.340
92894SOL     OW80455   8.944   9.068  13.630
92894SOL    HW180456   8.915   8.978  13.643
92894SOL    HW280457   8.932   9.110  13.716
92895SOL     OW80458   9.547   8.524  12.586
92895SOL    HW180459   9.570   8.528  12.679
92895SOL    HW280460   9.599   8.451  12.552
92896SOL     OW80461   0.154   7.137   7.283
92896SOL    HW180462   0.111   7.060   7.247
92896SOL    HW280463   0.247   7.118   7.276
92897SOL     OW80464  13.975   7.378   6.955
92897SOL    HW180465  13.920   7.439   6.907
92897SOL    HW280466  13.963   7.402   7.047
92898SOL     OW80467   8.754  10.024   7.400
92898SOL    HW180468   8.845  10.010   7.424
92898SOL    HW280469   8.742  10.119   7.402
92899SOL     OW80470   5.486   0.208   3.922
92899SOL    HW180471   5.544   0.243   3.990
92899SOL    HW280472   5.449   0.129   3.960
92900SOL     OW80473   2.709  13.317   1.926
92900SOL    HW180474   2.659  13.265   1.989
92900SOL    HW280475   2.784  13.262   1.904
92901SOL     OW80476   3.424   1.339   7.842
92901SOL    HW180477   3.362   1.267   7.829
92901SOL    HW280478   3.473   1.315   7.921
92902SOL     OW80479  11.087   6.590  11.033
92902SOL    HW180480  11.113   6.673  10.994
92902SOL    HW280481  10.997   6.605  11.062
92903SOL     OW80482   8.888   2.580   2.175
92903SOL    HW180483   8.934   2.545   2.099
92903SOL    HW280484   8.956   2.624   2.226
92904SOL     OW80485   0.439   0.658   9.616
92904SOL    HW180486   0.409   0.732   9.669
92904SOL    HW280487   0.403   0.676   9.529
92905SOL     OW80488  11.708   7.081   3.881
92905SOL    HW180489  11.716   6.988   3.904
92905SOL    HW280490  11.698   7.081   3.785
92906SOL     OW80491   9.494  13.106   2.626
92906SOL    HW180492   9.547  13.158   2.565
92906SOL    HW280493   9.537  13.116   2.711
92907SOL     OW80494   2.888   9.358  10.761
92907SOL    HW180495   2.841   9.439  10.744
92907SOL    HW280496   2.930   9.337  10.677
92908SOL     OW80497  13.106  10.995   2.646
92908SOL    HW180498  13.172  11.064   2.635
92908SOL    HW280499  13.088  10.965   2.557
92909SOL     OW80500   7.150  14.752  12.484
92909SOL    HW180501   7.239  14.747  12.449
92909SOL    HW280502   7.110  14.668  12.460
92910SOL     OW80503   7.341  13.107   0.256
92910SOL    HW180504   7.431  13.079   0.276
92910SOL    HW280505   7.352  13.180   0.195
92911SOL     OW80506   8.630  11.286   4.535
92911SOL    HW180507   8.561  11.346   4.504
92911SOL    HW280508   8.602  11.200   4.503
92912SOL     OW80509  14.006  11.566   1.743
92912SOL    HW180510  13.957  11.609   1.813
92912SOL    HW280511  14.049  11.637   1.696
92913SOL     OW80512   1.439  14.102  13.248
92913SOL    HW180513   1.356  14.056  13.237
92913SOL    HW280514   1.506  14.038  13.226
92914SOL     OW80515   7.661  14.221  11.146
92914SOL    HW180516   7.658  14.283  11.219
92914SOL    HW280517   7.569  14.202  11.127
92915SOL     OW80518  10.692   0.338  11.142
92915SOL    HW180519  10.727   0.427  11.131
92915SOL    HW280520  10.598   0.349  11.149
92916SOL     OW80521   6.348   7.635   5.922
92916SOL    HW180522   6.342   7.730   5.935
92916SOL    HW280523   6.259   7.603   5.938
92917SOL     OW80524   6.601   8.408   6.491
92917SOL    HW180525   6.535   8.342   6.469
92917SOL    HW280526   6.552   8.479   6.532
92918SOL     OW80527   5.065  14.861   3.471
92918SOL    HW180528   5.001   0.050   3.495
92918SOL    HW280529   5.138  14.875   3.532
92919SOL     OW80530   5.444   0.408   8.670
92919SOL    HW180531   5.417   0.419   8.579
92919SOL    HW280532   5.367   0.431   8.721
92920SOL     OW80533   2.580   3.225  12.272
92920SOL    HW180534   2.603   3.294  12.210
92920SOL    HW280535   2.644   3.233  12.343
92921SOL     OW80536   7.250   1.039   7.613
92921SOL    HW180537   7.180   1.087   7.568
92921SOL    HW280538   7.317   1.026   7.546
92922SOL     OW80539   1.757   2.264   8.186
92922SOL    HW180540   1.716   2.256   8.272
92922SOL    HW280541   1.841   2.308   8.203
92923SOL     OW80542   7.013  11.535  11.005
92923SOL    HW180543   7.064  11.500  10.932
92923SOL    HW280544   7.076  11.541  11.077
92924SOL     OW80545  10.774   7.703  12.029
92924SOL    HW180546  10.746   7.613  12.045
92924SOL    HW280547  10.744   7.751  12.105
92925SOL     OW80548  14.419   3.007   2.274
92925SOL    HW180549  14.411   3.101   2.261
92925SOL    HW280550  14.380   2.991   2.361
92926SOL     OW80551  12.090   6.228   8.267
92926SOL    HW180552  12.115   6.233   8.175
92926SOL    HW280553  12.005   6.185   8.266
92927SOL     OW80554   8.198   8.569  11.486
92927SOL    HW180555   8.251   8.490  11.475
92927SOL    HW280556   8.121   8.555  11.431
92928SOL     OW80557   6.099   2.212   2.701
92928SOL    HW180558   6.018   2.220   2.651
92928SOL    HW280559   6.157   2.160   2.645
92929SOL     OW80560  10.130   0.650  13.137
92929SOL    HW180561  10.073   0.576  13.117
92929SOL    HW280562  10.203   0.612  13.185
92930SOL     OW80563  14.012  13.527   2.592
92930SOL    HW180564  13.992  13.484   2.675
92930SOL    HW280565  14.054  13.609   2.616
92931SOL     OW80566   9.406   5.028  14.321
92931SOL    HW180567   9.333   5.037  14.382
92931SOL    HW280568   9.478   4.993  14.373
92932SOL     OW80569  14.759  10.295  12.194
92932SOL    HW180570  14.726  10.216  12.151
92932SOL    HW280571  14.734  10.366  12.136
92933SOL     OW80572  14.384   8.427  11.389
92933SOL    HW180573  14.376   8.332  11.381
92933SOL    HW280574  14.353   8.461  11.306
92934SOL     OW80575   4.405   9.531   6.439
92934SOL    HW180576   4.362   9.556   6.357
92934SOL    HW280577   4.434   9.613   6.478
92935SOL     OW80578   4.849   2.916   1.889
92935SOL    HW180579   4.843   2.885   1.979
92935SOL    HW280580   4.883   2.841   1.841
92936SOL     OW80581  13.724  13.442  12.322
92936SOL    HW180582  13.691  13.528  12.346
92936SOL    HW280583  13.781  13.458  12.247
92937SOL     OW80584   3.580   4.966   8.670
92937SOL    HW180585   3.655   4.943   8.724
92937SOL    HW280586   3.615   4.972   8.581
92938SOL     OW80587   7.334   0.535   4.933
92938SOL    HW180588   7.283   0.509   4.856
92938SOL    HW280589   7.393   0.461   4.948
92939SOL     OW80590   6.105  11.111   9.458
92939SOL    HW180591   6.078  11.199   9.483
92939SOL    HW280592   6.102  11.112   9.362
92940SOL     OW80593   4.368   8.397   3.577
92940SOL    HW180594   4.377   8.392   3.672
92940SOL    HW280595   4.438   8.454   3.549
92941SOL     OW80596  14.262   4.705   8.152
92941SOL    HW180597  14.306   4.782   8.187
92941SOL    HW280598  14.195   4.740   8.093
92942SOL     OW80599  12.291  11.598   6.794
92942SOL    HW180600  12.311  11.514   6.753
92942SOL    HW280601  12.232  11.642   6.732
92943SOL     OW80602  12.171  11.490  12.549
92943SOL    HW180603  12.091  11.454  12.510
92943SOL    HW280604  12.194  11.564  12.492
92944SOL     OW80605  13.408   2.543  11.144
92944SOL    HW180606  13.345   2.604  11.183
92944SOL    HW280607  13.488   2.593  11.134
92945SOL     OW80608   0.417  12.579   5.966
92945SOL    HW180609   0.410  12.545   5.877
92945SOL    HW280610   0.342  12.543   6.012
92946SOL     OW80611   0.685   5.892   3.796
92946SOL    HW180612   0.610   5.896   3.855
92946SOL    HW280613   0.734   5.816   3.824
92947SOL     OW80614  11.455  12.974   8.434
92947SOL    HW180615  11.523  12.910   8.455
92947SOL    HW280616  11.458  12.982   8.339
92948SOL     OW80617  11.027   7.333  11.752
92948SOL    HW180618  10.976   7.411  11.730
92948SOL    HW280619  11.118   7.363  11.753
92949SOL     OW80620   4.244  12.889  10.659
92949SOL    HW180621   4.166  12.900  10.714
92949SOL    HW280622   4.211  12.891  10.569
92950SOL     OW80623   1.064   6.109  11.859
92950SOL    HW180624   1.114   6.107  11.777
92950SOL    HW280625   1.015   6.027  11.859
92951SOL     OW80626   9.008  11.311   8.295
92951SOL    HW180627   8.931  11.295   8.350
92951SOL    HW280628   9.020  11.229   8.246
92952SOL     OW80629   1.257   1.480   8.588
92952SOL    HW180630   1.330   1.428   8.554
92952SOL    HW280631   1.256   1.559   8.534
92953SOL     OW80632   6.595   7.361   8.721
92953SOL    HW180633   6.683   7.398   8.730
92953SOL    HW280634   6.553   7.379   8.804
92954SOL     OW80635   1.986   9.040  12.807
92954SOL    HW180636   1.902   9.044  12.763
92954SOL    HW280637   1.966   9.004  12.894
92955SOL     OW80638  12.498   5.396  11.799
92955SOL    HW180639  12.456   5.346  11.869
92955SOL    HW280640  12.568   5.445  11.842
92956SOL     OW80641   8.814   6.859   7.665
92956SOL    HW180642   8.789   6.946   7.634
92956SOL    HW280643   8.771   6.799   7.605
92957SOL     OW80644   0.263   4.957   0.982
92957SOL    HW180645   0.334   4.893   0.992
92957SOL    HW280646   0.251   4.993   1.070
92958SOL     OW80647   7.990  10.321   5.571
92958SOL    HW180648   7.955  10.283   5.651
92958SOL    HW280649   7.978  10.253   5.505
92959SOL     OW80650   2.706   3.494   6.238
92959SOL    HW180651   2.784   3.478   6.291
92959SOL    HW280652   2.677   3.582   6.263
92960SOL     OW80653   4.624   1.228   8.571
92960SOL    HW180654   4.660   1.297   8.515
92960SOL    HW280655   4.559   1.273   8.625
92961SOL     OW80656  13.138   1.091   8.476
92961SOL    HW180657  13.162   1.075   8.385
92961SOL    HW280658  13.042   1.089   8.476
92962SOL     OW80659   2.241   5.061   5.353
92962SOL    HW180660   2.308   5.011   5.399
92962SOL    HW280661   2.274   5.151   5.352
92963SOL     OW80662   5.044  10.269  13.570
92963SOL    HW180663   5.058  10.194  13.512
92963SOL    HW280664   5.000  10.334  13.516
92964SOL     OW80665   1.951   6.657  14.036
92964SOL    HW180666   1.943   6.583  13.976
92964SOL    HW280667   1.861   6.671  14.068
92965SOL     OW80668   2.582  10.666   4.534
92965SOL    HW180669   2.501  10.700   4.496
92965SOL    HW280670   2.576  10.571   4.523
92966SOL     OW80671  10.093  12.012   3.036
92966SOL    HW180672  10.057  12.005   2.948
92966SOL    HW280673  10.047  11.945   3.087
92967SOL     OW80674   7.955  11.499   6.178
92967SOL    HW180675   7.930  11.520   6.088
92967SOL    HW280676   7.871  11.492   6.225
92968SOL     OW80677   4.757  12.833   7.936
92968SOL    HW180678   4.826  12.768   7.950
92968SOL    HW280679   4.684  12.784   7.898
92969SOL     OW80680   7.897   9.754  11.376
92969SOL    HW180681   7.964   9.687  11.359
92969SOL    HW280682   7.944   9.822  11.424
92970SOL     OW80683   2.953   1.082   3.387
92970SOL    HW180684   3.009   1.092   3.464
92970SOL    HW280685   3.013   1.087   3.313
92971SOL     OW80686  14.163   9.860   9.273
92971SOL    HW180687  14.143   9.780   9.226
92971SOL    HW280688  14.210   9.830   9.351
92972SOL     OW80689   4.359   8.542  10.800
92972SOL    HW180690   4.448   8.545  10.835
92972SOL    HW280691   4.313   8.479  10.855
92973SOL     OW80692   0.134   7.674   7.235
92973SOL    HW180693   0.104   7.694   7.146
92973SOL    HW280694   0.176   7.589   7.227
92974SOL     OW80695  14.114   6.684  10.389
92974SOL    HW180696  14.046   6.707  10.452
92974SOL    HW280697  14.068   6.633  10.322
92975SOL     OW80698  11.728   7.891  13.853
92975SOL    HW180699  11.634   7.909  13.851
92975SOL    HW280700  11.733   7.798  13.878
92976SOL     OW80701  10.412  13.031  11.937
92976SOL    HW180702  10.335  12.996  11.891
92976SOL    HW280703  10.383  13.042  12.027
92977SOL     OW80704  11.411   3.877   2.785
92977SOL    HW180705  11.504   3.877   2.763
92977SOL    HW280706  11.407   3.921   2.870
92978SOL     OW80707   5.997   0.388   9.015
92978SOL    HW180708   6.046   0.418   8.939
92978SOL    HW280709   5.937   0.322   8.980
92979SOL     OW80710  13.488  11.896   0.679
92979SOL    HW180711  13.410  11.951   0.681
92979SOL    HW280712  13.490  11.860   0.590
92980SOL     OW80713   4.166   6.779   6.304
92980SOL    HW180714   4.217   6.720   6.249
92980SOL    HW280715   4.190   6.867   6.275
92981SOL     OW80716   7.973   2.895  12.987
92981SOL    HW180717   8.008   2.938  12.909
92981SOL    HW280718   7.880   2.882  12.968
92982SOL     OW80719   0.966   7.619   8.791
92982SOL    HW180720   0.985   7.525   8.781
92982SOL    HW280721   0.985   7.657   8.705
92983SOL     OW80722   2.415   6.010  12.244
92983SOL    HW180723   2.331   6.049  12.267
92983SOL    HW280724   2.473   6.085  12.231
92984SOL     OW80725   6.850  14.125   4.128
92984SOL    HW180726   6.846  14.046   4.074
92984SOL    HW280727   6.940  14.156   4.119
92985SOL     OW80728  13.663  11.331   7.901
92985SOL    HW180729  13.609  11.336   7.980
92985SOL    HW280730  13.676  11.237   7.887
92986SOL     OW80731   9.506  10.369   7.673
92986SOL    HW180732   9.516  10.450   7.723
92986SOL    HW280733   9.502  10.300   7.740
92987SOL     OW80734  13.884   0.886   3.574
92987SOL    HW180735  13.806   0.832   3.584
92987SOL    HW280736  13.884   0.943   3.651
92988SOL     OW80737  12.687   4.875  10.366
92988SOL    HW180738  12.705   4.802  10.425
92988SOL    HW280739  12.660   4.947  10.424
92989SOL     OW80740   0.852   1.600  13.745
92989SOL    HW180741   0.816   1.664  13.806
92989SOL    HW280742   0.788   1.528  13.745
92990SOL     OW80743  12.556  10.627  10.616
92990SOL    HW180744  12.553  10.534  10.637
92990SOL    HW280745  12.464  10.655  10.617
92991SOL     OW80746   4.583   9.359   1.378
92991SOL    HW180747   4.610   9.438   1.331
92991SOL    HW280748   4.573   9.387   1.468
92992SOL     OW80749  11.569   8.297  10.396
92992SOL    HW180750  11.613   8.257  10.321
92992SOL    HW280751  11.483   8.255  10.399
92993SOL     OW80752   3.360   9.541  10.183
92993SOL    HW180753   3.369   9.619  10.238
92993SOL    HW280754   3.366   9.574  10.094
92994SOL     OW80755  14.146  14.340  12.077
92994SOL    HW180756  14.205  14.306  12.144
92994SOL    HW280757  14.103  14.262  12.042
92995SOL     OW80758  11.523   6.328   6.653
92995SOL    HW180759  11.615   6.352   6.667
92995SOL    HW280760  11.527   6.235   6.629
92996SOL     OW80761   8.759   7.367   0.952
92996SOL    HW180762   8.800   7.387   1.037
92996SOL    HW280763   8.818   7.304   0.911
92997SOL     OW80764  11.345  10.095   7.085
92997SOL    HW180765  11.415  10.029   7.081
92997SOL    HW280766  11.292  10.078   7.008
92998SOL     OW80767  11.652   7.847   6.135
92998SOL    HW180768  11.568   7.868   6.177
92998SOL    HW280769  11.632   7.773   6.078
92999SOL     OW80770   8.359   4.570  10.669
92999SOL    HW180771   8.395   4.629  10.603
92999SOL    HW280772   8.436   4.535  10.714
93000SOL     OW80773  11.290   3.592   9.769
93000SOL    HW180774  11.209   3.627   9.733
93000SOL    HW280775  11.317   3.524   9.708
93001SOL     OW80776  12.802   7.027   6.298
93001SOL    HW180777  12.895   7.016   6.319
93001SOL    HW280778  12.775   6.941   6.265
93002SOL     OW80779  14.639   5.885  11.696
93002SOL    HW180780  14.633   5.789  11.702
93002SOL    HW280781  14.725   5.901  11.656
93003SOL     OW80782   4.126  10.378   7.998
93003SOL    HW180783   4.179  10.387   8.077
93003SOL    HW280784   4.108  10.468   7.971
93004SOL     OW80785   6.550  13.463  11.964
93004SOL    HW180786   6.555  13.547  11.918
93004SOL    HW280787   6.615  13.408  11.921
93005SOL     OW80788   4.447   9.096  13.165
93005SOL    HW180789   4.496   9.156  13.221
93005SOL    HW280790   4.459   9.010  13.207
93006SOL     OW80791   2.877   0.787  12.189
93006SOL    HW180792   2.823   0.804  12.112
93006SOL    HW280793   2.897   0.694  12.185
93007SOL     OW80794   4.412  12.931  14.340
93007SOL    HW180795   4.366  12.992  14.396
93007SOL    HW280796   4.351  12.911  14.269
93008SOL     OW80797  10.577   4.831   8.458
93008SOL    HW180798  10.602   4.749   8.414
93008SOL    HW280799  10.543   4.803   8.543
93009SOL     OW80800  12.140  10.087   3.418
93009SOL    HW180801  12.133   9.992   3.421
93009SOL    HW280802  12.198  10.109   3.490
93010SOL     OW80803   8.501   9.161   4.966
93010SOL    HW180804   8.502   9.178   5.060
93010SOL    HW280805   8.563   9.224   4.930
93011SOL     OW80806   0.195   5.099   0.556
93011SOL    HW180807   0.279   5.131   0.522
93011SOL    HW280808   0.152   5.176   0.593
93012SOL     OW80809   2.860   3.186  13.366
93012SOL    HW180810   2.858   3.140  13.450
93012SOL    HW280811   2.770   3.180  13.333
93013SOL     OW80812   1.724   3.175   3.506
93013SOL    HW180813   1.819   3.181   3.500
93013SOL    HW280814   1.699   3.119   3.433
93014SOL     OW80815   8.101   5.943  14.633
93014SOL    HW180816   8.154   5.912  14.560
93014SOL    HW280817   8.128   5.888  14.707
93015SOL     OW80818   2.776  12.190  10.598
93015SOL    HW180819   2.834  12.118  10.621
93015SOL    HW280820   2.690  12.149  10.589
93016SOL     OW80821   6.586  12.743   4.391
93016SOL    HW180822   6.524  12.805   4.353
93016SOL    HW280823   6.672  12.783   4.376
93017SOL     OW80824  13.995   1.314   9.847
93017SOL    HW180825  13.906   1.298   9.813
93017SOL    HW280826  14.051   1.260   9.791
93018SOL     OW80827  10.972   2.018   2.185
93018SOL    HW180828  10.967   2.113   2.184
93018SOL    HW280829  11.065   1.998   2.195
93019SOL     OW80830  13.216  13.260  12.015
93019SOL    HW180831  13.226  13.306  12.099
93019SOL    HW280832  13.139  13.301  11.975
93020SOL     OW80833  10.447  13.803   9.365
93020SOL    HW180834  10.437  13.891   9.402
93020SOL    HW280835  10.540  13.784   9.374
93021SOL     OW80836   7.183   8.333   2.148
93021SOL    HW180837   7.240   8.392   2.197
93021SOL    HW280838   7.234   8.253   2.138
93022SOL     OW80839   8.962  12.446   4.493
93022SOL    HW180840   8.897  12.397   4.442
93022SOL    HW280841   9.031  12.382   4.512
93023SOL     OW80842  13.104  12.569  14.845
93023SOL    HW180843  13.138  12.646  14.801
93023SOL    HW280844  13.069  12.603   0.050
93024SOL     OW80845  11.409   2.436   6.936
93024SOL    HW180846  11.378   2.526   6.943
93024SOL    HW280847  11.375   2.393   7.015
93025SOL     OW80848   1.418   0.150  14.699
93025SOL    HW180849   1.380   0.196  14.624
93025SOL    HW280850   1.512   0.161  14.689
93026SOL     OW80851   4.428  10.183  11.153
93026SOL    HW180852   4.395  10.225  11.233
93026SOL    HW280853   4.488  10.248  11.116
93027SOL     OW80854   1.870   0.104   6.921
93027SOL    HW180855   1.860   0.170   6.989
93027SOL    HW280856   1.832   0.143   6.842
93028SOL     OW80857   1.183   1.360   8.824
93028SOL    HW180858   1.198   1.406   8.742
93028SOL    HW280859   1.105   1.401   8.861
93029SOL     OW80860  11.407   6.446   0.628
93029SOL    HW180861  11.396   6.376   0.692
93029SOL    HW280862  11.340   6.511   0.652
93030SOL     OW80863   6.915   2.039  10.497
93030SOL    HW180864   6.957   1.994  10.570
93030SOL    HW280865   6.980   2.104  10.469
93031SOL     OW80866   8.298   6.854   5.769
93031SOL    HW180867   8.294   6.938   5.815
93031SOL    HW280868   8.283   6.876   5.677
93032SOL     OW80869   4.975  12.258  12.865
93032SOL    HW180870   4.990  12.352  12.855
93032SOL    HW280871   4.896  12.251  12.918
93033SOL     OW80872   5.896  10.345   6.792
93033SOL    HW180873   5.978  10.354   6.743
93033SOL    HW280874   5.828  10.372   6.731
93034SOL     OW80875   1.956   7.658  11.171
93034SOL    HW180876   1.913   7.579  11.203
93034SOL    HW280877   2.030   7.628  11.120
93035SOL     OW80878   7.009   4.508   7.668
93035SOL    HW180879   6.929   4.461   7.647
93035SOL    HW280880   6.982   4.573   7.733
93036SOL     OW80881   7.390  10.573   2.174
93036SOL    HW180882   7.412  10.495   2.124
93036SOL    HW280883   7.451  10.640   2.144
93037SOL     OW80884   0.646   7.488   7.643
93037SOL    HW180885   0.617   7.524   7.559
93037SOL    HW280886   0.740   7.478   7.634
93038SOL     OW80887   9.263  12.334   2.569
93038SOL    HW180888   9.187  12.361   2.620
93038SOL    HW280889   9.314  12.414   2.558
93039SOL     OW80890  10.400  12.752  10.972
93039SOL    HW180891  10.451  12.700  10.909
93039SOL    HW280892  10.324  12.782  10.923
93040SOL     OW80893   2.363  13.289   5.342
93040SOL    HW180894   2.323  13.205   5.321
93040SOL    HW280895   2.321  13.352   5.283
93041SOL     OW80896  13.121  13.213   9.122
93041SOL    HW180897  13.163  13.198   9.207
93041SOL    HW280898  13.156  13.144   9.066
93042SOL     OW80899   9.813  12.216  12.009
93042SOL    HW180900   9.875  12.186  12.074
93042SOL    HW280901   9.740  12.154  12.014
93043SOL     OW80902   6.042  10.253   2.553
93043SOL    HW180903   6.038  10.159   2.532
93043SOL    HW280904   6.134  10.268   2.576
93044SOL     OW80905  10.382   9.589   8.110
93044SOL    HW180906  10.458   9.546   8.070
93044SOL    HW280907  10.398   9.682   8.099
93045SOL     OW80908  12.788  14.612  14.390
93045SOL    HW180909  12.807  14.628  14.482
93045SOL    HW280910  12.774  14.518  14.384
93046SOL     OW80911   4.184  14.273  12.219
93046SOL    HW180912   4.120  14.277  12.290
93046SOL    HW280913   4.159  14.196  12.168
93047SOL     OW80914  12.517  13.749   8.658
93047SOL    HW180915  12.465  13.820   8.697
93047SOL    HW280916  12.512  13.678   8.721
93048SOL     OW80917   8.522   1.147   3.746
93048SOL    HW180918   8.522   1.149   3.842
93048SOL    HW280919   8.459   1.215   3.722
93049SOL     OW80920  11.320   8.471  12.594
93049SOL    HW180921  11.376   8.446  12.667
93049SOL    HW280922  11.311   8.391  12.542
93050SOL     OW80923   4.532   2.443   4.897
93050SOL    HW180924   4.501   2.489   4.818
93050SOL    HW280925   4.455   2.440   4.954
93051SOL     OW80926   7.878   5.017   8.884
93051SOL    HW180927   7.886   4.943   8.824
93051SOL    HW280928   7.786   5.043   8.879
93052SOL     OW80929   4.297   3.024  14.557
93052SOL    HW180930   4.333   3.065  14.636
93052SOL    HW280931   4.263   2.940  14.588
93053SOL     OW80932   8.385   1.731   9.732
93053SOL    HW180933   8.332   1.809   9.748
93053SOL    HW280934   8.465   1.765   9.692
93054SOL     OW80935   2.648   7.116   9.760
93054SOL    HW180936   2.618   7.032   9.724
93054SOL    HW280937   2.734   7.130   9.721
93055SOL     OW80938   4.022   6.404   7.234
93055SOL    HW180939   4.072   6.470   7.186
93055SOL    HW280940   4.028   6.431   7.325
93056SOL     OW80941   7.743  12.777   2.568
93056SOL    HW180942   7.677  12.779   2.637
93056SOL    HW280943   7.741  12.865   2.530
93057SOL     OW80944   9.701   0.413   8.818
93057SOL    HW180945   9.693   0.462   8.736
93057SOL    HW280946   9.679   0.476   8.886
93058SOL     OW80947  14.584   1.038  13.942
93058SOL    HW180948  14.644   1.044  13.868
93058SOL    HW280949  14.579   0.945  13.962
93059SOL     OW80950   0.393   6.316   6.334
93059SOL    HW180951   0.303   6.286   6.349
93059SOL    HW280952   0.389   6.359   6.248
93060SOL     OW80953   2.655   9.507   6.213
93060SOL    HW180954   2.565   9.475   6.205
93060SOL    HW280955   2.709   9.429   6.210
93061SOL     OW80956   4.419  11.724  10.441
93061SOL    HW180957   4.368  11.749  10.364
93061SOL    HW280958   4.381  11.641  10.469
93062SOL     OW80959   4.845   2.462   7.994
93062SOL    HW180960   4.773   2.432   7.938
93062SOL    HW280961   4.804   2.474   8.080
93063SOL     OW80962   3.512  11.789   5.162
93063SOL    HW180963   3.546  11.874   5.133
93063SOL    HW280964   3.418  11.804   5.173
93064SOL     OW80965   7.546   4.507  14.545
93064SOL    HW180966   7.596   4.465  14.475
93064SOL    HW280967   7.595   4.586  14.566
93065SOL     OW80968   2.714   9.564   2.348
93065SOL    HW180969   2.735   9.494   2.287
93065SOL    HW280970   2.651   9.619   2.301
93066SOL     OW80971   3.435   2.247   0.939
93066SOL    HW180972   3.433   2.181   0.870
93066SOL    HW280973   3.429   2.196   1.020
93067SOL     OW80974   1.573   7.015  12.636
93067SOL    HW180975   1.581   6.935  12.689
93067SOL    HW280976   1.583   6.984  12.545
93068SOL     OW80977  12.464   4.466   1.643
93068SOL    HW180978  12.495   4.511   1.565
93068SOL    HW280979  12.396   4.407   1.612
93069SOL     OW80980   5.111   5.444  14.825
93069SOL    HW180981   5.157   5.446  14.741
93069SOL    HW280982   5.023   5.413  14.803
93070SOL     OW80983   5.008   4.702  13.835
93070SOL    HW180984   5.043   4.615  13.819
93070SOL    HW280985   5.074   4.745  13.889
93071SOL     OW80986  10.275   9.274  14.275
93071SOL    HW180987  10.210   9.269  14.344
93071SOL    HW280988  10.353   9.232  14.312
93072SOL     OW80989  12.721   1.339   0.037
93072SOL    HW180990  12.703   1.261  14.863
93072SOL    HW280991  12.650   1.399   0.017
93073SOL     OW80992   4.921  14.405   5.780
93073SOL    HW180993   4.856  14.336   5.796
93073SOL    HW280994   4.868  14.483   5.762
93074SOL     OW80995   3.792  14.628   6.920
93074SOL    HW180996   3.827  14.711   6.890
93074SOL    HW280997   3.867  14.583   6.960
93075SOL     OW80998   7.992  12.333   7.786
93075SOL    HW180999   7.949  12.263   7.736
93075SOL    HW281000   8.072  12.293   7.819
93076SOL     OW81001  13.280  12.335   9.453
93076SOL    HW181002  13.340  12.265   9.480
93076SOL    HW281003  13.308  12.356   9.364
93077SOL     OW81004   0.302   9.740   5.754
93077SOL    HW181005   0.360   9.675   5.795
93077SOL    HW281006   0.215   9.719   5.787
93078SOL     OW81007  14.365  10.557   7.063
93078SOL    HW181008  14.322  10.552   6.977
93078SOL    HW281009  14.422  10.479   7.065
93079SOL     OW81010   8.963   0.014   4.904
93079SOL    HW181011   8.872   0.030   4.878
93079SOL    HW281012   9.005  14.857   4.825
93080SOL     OW81013   1.500  13.305  11.950
93080SOL    HW181014   1.497  13.366  11.877
93080SOL    HW281015   1.426  13.246  11.936
93081SOL     OW81016   0.375   6.596  12.463
93081SOL    HW181017   0.407   6.687  12.463
93081SOL    HW281018   0.291   6.600  12.417
93082SOL     OW81019   7.808  10.254  11.232
93082SOL    HW181020   7.850  10.262  11.318
93082SOL    HW281021   7.830  10.166  11.202
93083SOL     OW81022  13.478   2.075   6.881
93083SOL    HW181023  13.545   2.011   6.856
93083SOL    HW281024  13.398   2.043   6.838
93084SOL     OW81025   8.421  12.393   6.924
93084SOL    HW181026   8.428  12.467   6.864
93084SOL    HW281027   8.341  12.349   6.899
93085SOL     OW81028   3.036   4.262   8.473
93085SOL    HW181029   3.126   4.261   8.440
93085SOL    HW281030   2.989   4.322   8.414
93086SOL     OW81031   8.114   1.820   4.269
93086SOL    HW181032   8.173   1.745   4.273
93086SOL    HW281033   8.114   1.847   4.177
93087SOL     OW81034  14.506   3.696   0.853
93087SOL    HW181035  14.548   3.672   0.935
93087SOL    HW281036  14.517   3.619   0.797
93088SOL     OW81037  11.713   9.717   8.825
93088SOL    HW181038  11.795   9.755   8.854
93088SOL    HW281039  11.716   9.721   8.730
93089SOL     OW81040  10.424  13.879   3.032
93089SOL    HW181041  10.502  13.851   3.081
93089SOL    HW281042  10.446  13.860   2.941
93090SOL     OW81043   9.879  10.735   8.887
93090SOL    HW181044   9.878  10.775   8.974
93090SOL    HW281045   9.917  10.802   8.830
93091SOL     OW81046   7.978   1.686   4.512
93091SOL    HW181047   7.967   1.742   4.588
93091SOL    HW281048   8.049   1.727   4.462
93092SOL     OW81049   6.304   8.670   8.975
93092SOL    HW181050   6.345   8.618   9.044
93092SOL    HW281051   6.255   8.606   8.922
93093SOL     OW81052  14.841   9.561   9.009
93093SOL    HW181053  14.778   9.489   9.006
93093SOL    HW281054   0.003   9.561   8.922
93094SOL     OW81055   0.745   0.298  12.215
93094SOL    HW181056   0.774   0.340  12.296
93094SOL    HW281057   0.759   0.205  12.230
93095SOL     OW81058  10.365   5.716   5.800
93095SOL    HW181059  10.311   5.781   5.845
93095SOL    HW281060  10.303   5.666   5.747
93096SOL     OW81061   7.543   0.202  12.090
93096SOL    HW181062   7.492   0.170  12.016
93096SOL    HW281063   7.599   0.270  12.052
93097SOL     OW81064  12.535   1.739   2.689
93097SOL    HW181065  12.542   1.833   2.706
93097SOL    HW281066  12.572   1.698   2.768
93098SOL     OW81067   0.840   2.751  12.210
93098SOL    HW181068   0.764   2.753  12.153
93098SOL    HW281069   0.805   2.757  12.299
93099SOL     OW81070  11.297  10.496   1.002
93099SOL    HW181071  11.231  10.462   0.942
93099SOL    HW281072  11.365  10.531   0.945
93100SOL     OW81073   9.077   5.270  13.533
93100SOL    HW181074   9.151   5.233  13.484
93100SOL    HW281075   9.001   5.248  13.480
93101SOL     OW81076  10.197  12.764  10.683
93101SOL    HW181077  10.213  12.853  10.716
93101SOL    HW281078  10.125  12.732  10.737
93102SOL     OW81079  12.912   0.207  13.880
93102SOL    HW181080  12.850   0.152  13.832
93102SOL    HW281081  12.864   0.287  13.899
93103SOL     OW81082   5.734   8.623   0.047
93103SOL    HW181083   5.765   8.581  14.845
93103SOL    HW281084   5.677   8.694   0.016
93104SOL     OW81085   6.759  10.649  11.264
93104SOL    HW181086   6.837  10.615  11.222
93104SOL    HW281087   6.737  10.728  11.214
93105SOL     OW81088  11.612  10.784  11.952
93105SOL    HW181089  11.633  10.849  11.884
93105SOL    HW281090  11.662  10.813  12.028
93106SOL     OW81091  12.406  10.258   6.232
93106SOL    HW181092  12.332  10.218   6.277
93106SOL    HW281093  12.473  10.267   6.299
93107SOL     OW81094   2.490  12.983   3.949
93107SOL    HW181095   2.501  12.971   3.855
93107SOL    HW281096   2.411  13.037   3.957
93108SOL     OW81097   6.416   3.710  10.329
93108SOL    HW181098   6.449   3.745  10.246
93108SOL    HW281099   6.323   3.733  10.330
93109SOL     OW81100   1.076   0.045  13.673
93109SOL    HW181101   1.039   0.101  13.741
93109SOL    HW281102   1.001   0.021  13.618
93110SOL     OW81103  10.602  12.669   9.700
93110SOL    HW181104  10.517  12.711   9.712
93110SOL    HW281105  10.625  12.687   9.608
93111SOL     OW81106  10.736   0.426   3.284
93111SOL    HW181107  10.645   0.425   3.254
93111SOL    HW281108  10.782   0.476   3.217
93112SOL     OW81109   2.983   5.559   9.203
93112SOL    HW181110   2.955   5.470   9.183
93112SOL    HW281111   2.975   5.566   9.298
93113SOL     OW81112   2.132   9.074   9.951
93113SOL    HW181113   2.085   9.002   9.991
93113SOL    HW281114   2.089   9.087   9.867
93114SOL     OW81115   3.257  13.667  10.450
93114SOL    HW181116   3.304  13.672  10.534
93114SOL    HW281117   3.171  13.632  10.472
93115SOL     OW81118   2.392   8.315   6.066
93115SOL    HW181119   2.425   8.339   6.153
93115SOL    HW281120   2.452   8.246   6.037
93116SOL     OW81121  12.464   2.461   6.092
93116SOL    HW181122  12.537   2.515   6.064
93116SOL    HW281123  12.426   2.427   6.011
93117SOL     OW81124   5.310  11.547   1.728
93117SOL    HW181125   5.314  11.452   1.716
93117SOL    HW281126   5.253  11.559   1.804
93118SOL     OW81127   4.024  11.406   2.103
93118SOL    HW181128   3.997  11.479   2.048
93118SOL    HW281129   4.119  11.403   2.093
93119SOL     OW81130  13.085   8.983   1.629
93119SOL    HW181131  13.041   8.908   1.589
93119SOL    HW281132  13.051   8.986   1.718
93120SOL     OW81133   2.305   9.270   7.100
93120SOL    HW181134   2.282   9.179   7.081
93120SOL    HW281135   2.400   9.269   7.115
93121SOL     OW81136   5.409  14.685   2.461
93121SOL    HW181137   5.386  14.685   2.554
93121SOL    HW281138   5.480  14.622   2.454
93122SOL     OW81139  14.262   9.098  13.172
93122SOL    HW181140  14.283   9.023  13.117
93122SOL    HW281141  14.166   9.104  13.168
93123SOL     OW81142  10.786   7.281   3.447
93123SOL    HW181143  10.781   7.186   3.459
93123SOL    HW281144  10.880   7.299   3.440
93124SOL     OW81145  12.400   1.864   6.940
93124SOL    HW181146  12.402   1.936   6.877
93124SOL    HW281147  12.319   1.878   6.989
93125SOL     OW81148   4.325  10.263  10.426
93125SOL    HW181149   4.381  10.232  10.497
93125SOL    HW281150   4.370  10.236  10.346
93126SOL     OW81151   9.980   5.684   0.769
93126SOL    HW181152   9.923   5.761   0.772
93126SOL    HW281153  10.021   5.688   0.683
93127SOL     OW81154   5.791   8.279  12.892
93127SOL    HW181155   5.732   8.272  12.817
93127SOL    HW281156   5.861   8.336  12.862
93128SOL     OW81157   1.108   9.737  14.374
93128SOL    HW181158   1.156   9.676  14.431
93128SOL    HW281159   1.108   9.694  14.288
93129SOL     OW81160   9.715   1.740  13.659
93129SOL    HW181161   9.798   1.695  13.677
93129SOL    HW281162   9.740   1.825  13.624
93130SOL     OW81163  13.425  13.497  10.379
93130SOL    HW181164  13.372  13.576  10.373
93130SOL    HW281165  13.432  13.479  10.473
93131SOL     OW81166   0.271  10.114   4.098
93131SOL    HW181167   0.334  10.077   4.160
93131SOL    HW281168   0.285  10.063   4.018
93132SOL     OW81169   6.884   7.905   0.074
93132SOL    HW181170   6.920   7.972   0.016
93132SOL    HW281171   6.936   7.826   0.055
93133SOL     OW81172   3.306   8.764  10.251
93133SOL    HW181173   3.369   8.828  10.218
93133SOL    HW281174   3.315   8.768  10.346
93134SOL     OW81175   4.851   0.434  11.473
93134SOL    HW181176   4.879   0.343  11.475
93134SOL    HW281177   4.755   0.430  11.479
93135SOL     OW81178  10.102   5.710   0.057
93135SOL    HW181179  10.168   5.687   0.122
93135SOL    HW281180  10.145   5.696  14.851
93136SOL     OW81181   8.525   5.509   5.988
93136SOL    HW181182   8.442   5.555   5.994
93136SOL    HW281183   8.591   5.579   5.991
93137SOL     OW81184   2.297   6.822  10.862
93137SOL    HW181185   2.379   6.824  10.911
93137SOL    HW281186   2.274   6.914  10.850
93138SOL     OW81187  10.428   9.996   7.274
93138SOL    HW181188  10.406  10.050   7.198
93138SOL    HW281189  10.523  10.005   7.283
93139SOL     OW81190   6.565  13.857   2.738
93139SOL    HW181191   6.584  13.765   2.718
93139SOL    HW281192   6.561  13.899   2.652
93140SOL     OW81193   3.766   4.149   4.278
93140SOL    HW181194   3.672   4.133   4.266
93140SOL    HW281195   3.807   4.107   4.202
93141SOL     OW81196  14.415   4.105  14.578
93141SOL    HW181197  14.332   4.066  14.552
93141SOL    HW281198  14.442   4.156  14.502
93142SOL     OW81199   9.359  12.918   4.458
93142SOL    HW181200   9.318  12.832   4.445
93142SOL    HW281201   9.326  12.948   4.542
93143SOL     OW81202   9.283   3.540   1.227
93143SOL    HW181203   9.340   3.592   1.171
93143SOL    HW281204   9.337   3.465   1.253
93144SOL     OW81205   1.873   8.429   7.012
93144SOL    HW181206   1.918   8.504   7.051
93144SOL    HW281207   1.942   8.375   6.975
93145SOL     OW81208  11.765  10.652   8.607
93145SOL    HW181209  11.822  10.575   8.597
93145SOL    HW281210  11.820  10.717   8.650
93146SOL     OW81211   4.902   1.631   7.941
93146SOL    HW181212   4.928   1.544   7.909
93146SOL    HW281213   4.940   1.692   7.877
93147SOL     OW81214  10.657   5.864  10.068
93147SOL    HW181215  10.628   5.902  10.151
93147SOL    HW281216  10.588   5.802  10.045
93148SOL     OW81217   6.518  12.208   7.923
93148SOL    HW181218   6.441  12.187   7.871
93148SOL    HW281219   6.540  12.298   7.897
93149SOL     OW81220   5.138  13.544  14.130
93149SOL    HW181221   5.051  13.511  14.152
93149SOL    HW281222   5.122  13.625  14.083
93150SOL     OW81223  11.371   0.857   3.984
93150SOL    HW181224  11.465   0.844   3.993
93150SOL    HW281225  11.343   0.787   3.924
93151SOL     OW81226   9.437   7.406   4.680
93151SOL    HW181227   9.531   7.419   4.693
93151SOL    HW281228   9.397   7.441   4.760
93152SOL     OW81229   6.209   2.622   0.462
93152SOL    HW181230   6.229   2.529   0.471
93152SOL    HW281231   6.118   2.624   0.432
93153SOL     OW81232   4.415   9.502   5.457
93153SOL    HW181233   4.394   9.461   5.373
93153SOL    HW281234   4.511   9.506   5.459
93154SOL     OW81235   6.381   7.514   0.661
93154SOL    HW181236   6.323   7.478   0.594
93154SOL    HW281237   6.467   7.480   0.640
93155SOL     OW81238   8.351   3.230  11.935
93155SOL    HW181239   8.322   3.148  11.895
93155SOL    HW281240   8.279   3.255  11.993
93156SOL     OW81241  13.324   7.743  11.675
93156SOL    HW181242  13.403   7.755  11.621
93156SOL    HW281243  13.316   7.648  11.683
93157SOL     OW81244  11.455   3.722  11.387
93157SOL    HW181245  11.502   3.678  11.459
93157SOL    HW281246  11.452   3.656  11.317
93158SOL     OW81247   3.768  10.646   0.541
93158SOL    HW181248   3.852  10.615   0.507
93158SOL    HW281249   3.786  10.668   0.633
93159SOL     OW81250   9.053   8.123  12.817
93159SOL    HW181251   8.965   8.094  12.843
93159SOL    HW281252   9.037   8.203  12.766
93160SOL     OW81253   3.889   7.023   8.677
93160SOL    HW181254   3.962   6.978   8.721
93160SOL    HW281255   3.925   7.048   8.592
93161SOL     OW81256   4.224  13.837   3.113
93161SOL    HW181257   4.298  13.814   3.169
93161SOL    HW281258   4.250  13.806   3.026
93162SOL     OW81259   8.308   2.452   8.060
93162SOL    HW181260   8.222   2.473   8.096
93162SOL    HW281261   8.370   2.492   8.121
93163SOL     OW81262  12.283   4.598   6.410
93163SOL    HW181263  12.207   4.569   6.359
93163SOL    HW281264  12.307   4.522   6.463
93164SOL     OW81265  11.656   2.482  14.128
93164SOL    HW181266  11.645   2.390  14.152
93164SOL    HW281267  11.660   2.528  14.211
93165SOL     OW81268   9.807   2.485  11.841
93165SOL    HW181269   9.893   2.449  11.820
93165SOL    HW281270   9.824   2.576  11.865
93166SOL     OW81271   1.411   7.275  12.738
93166SOL    HW181272   1.471   7.210  12.701
93166SOL    HW281273   1.355   7.300  12.664
93167SOL     OW81274  12.317   5.123  11.262
93167SOL    HW181275  12.315   5.197  11.322
93167SOL    HW281276  12.368   5.056  11.308
93168SOL     OW81277   3.259   3.712   3.507
93168SOL    HW181278   3.215   3.663   3.437
93168SOL    HW281279   3.339   3.661   3.524
93169SOL     OW81280   0.707   6.093   8.025
93169SOL    HW181281   0.753   6.010   8.034
93169SOL    HW281282   0.635   6.075   7.964
93170SOL     OW81283  13.309  11.673   7.347
93170SOL    HW181284  13.267  11.738   7.291
93170SOL    HW281285  13.245  11.602   7.354
93171SOL     OW81286   7.366   6.600   9.391
93171SOL    HW181287   7.426   6.655   9.442
93171SOL    HW281288   7.422   6.552   9.331
93172SOL     OW81289  13.736   2.508  14.795
93172SOL    HW181290  13.681   2.429  14.788
93172SOL    HW281291  13.821   2.475  14.825
93173SOL     OW81292   9.514   2.291  11.183
93173SOL    HW181293   9.599   2.316  11.221
93173SOL    HW281294   9.532   2.279  11.090
93174SOL     OW81295  10.423  14.042   1.745
93174SOL    HW181296  10.484  13.993   1.800
93174SOL    HW281297  10.430  14.132   1.777
93175SOL     OW81298   2.643   3.227   2.976
93175SOL    HW181299   2.620   3.213   3.068
93175SOL    HW281300   2.698   3.152   2.953
93176SOL     OW81301   2.214   5.242  13.170
93176SOL    HW181302   2.191   5.149  13.170
93176SOL    HW281303   2.268   5.253  13.092
93177SOL     OW81304   0.938   2.057   2.875
93177SOL    HW181305   0.968   2.073   2.786
93177SOL    HW281306   0.850   2.021   2.865
93178SOL     OW81307   2.704   2.783   2.498
93178SOL    HW181308   2.710   2.739   2.413
93178SOL    HW281309   2.627   2.839   2.490
93179SOL     OW81310   7.655   6.066   6.867
93179SOL    HW181311   7.725   6.027   6.919
93179SOL    HW281312   7.614   6.130   6.925
93180SOL     OW81313   0.679  13.647  14.355
93180SOL    HW181314   0.666  13.552  14.356
93180SOL    HW281315   0.719  13.665  14.270
93181SOL     OW81316   6.631   2.682  10.703
93181SOL    HW181317   6.556   2.626  10.722
93181SOL    HW281318   6.665   2.650  10.620
93182SOL     OW81319  13.813  12.522   2.630
93182SOL    HW181320  13.906  12.541   2.642
93182SOL    HW281321  13.808  12.479   2.545
93183SOL     OW81322   4.118   3.473  13.956
93183SOL    HW181323   4.037   3.503  13.997
93183SOL    HW281324   4.113   3.377  13.960
93184SOL     OW81325   4.649   2.823   6.067
93184SOL    HW181326   4.707   2.852   6.137
93184SOL    HW281327   4.587   2.896   6.055
93185SOL     OW81328  13.072   8.212   6.247
93185SOL    HW181329  13.007   8.182   6.183
93185SOL    HW281330  13.020   8.229   6.326
93186SOL     OW81331  11.731  12.306  12.928
93186SOL    HW181332  11.762  12.221  12.959
93186SOL    HW281333  11.638  12.292  12.908
93187SOL     OW81334  10.588   2.388   3.713
93187SOL    HW181335  10.531   2.312   3.720
93187SOL    HW281336  10.602   2.417   3.804
93188SOL     OW81337   5.753  13.705   1.494
93188SOL    HW181338   5.783  13.616   1.474
93188SOL    HW281339   5.784  13.722   1.583
93189SOL     OW81340   1.584  13.453  12.989
93189SOL    HW181341   1.521  13.524  12.996
93189SOL    HW281342   1.629  13.451  13.074
93190SOL     OW81343   6.828   1.013   9.779
93190SOL    HW181344   6.909   1.022   9.729
93190SOL    HW281345   6.794   1.102   9.787
93191SOL     OW81346   8.149  10.327  14.625
93191SOL    HW181347   8.065  10.288  14.650
93191SOL    HW281348   8.189  10.351  14.709
93192SOL     OW81349   6.765   0.696   0.300
93192SOL    HW181350   6.715   0.770   0.267
93192SOL    HW281351   6.722   0.672   0.383
93193SOL     OW81352  12.299   9.896   6.727
93193SOL    HW181353  12.332   9.898   6.817
93193SOL    HW281354  12.207   9.918   6.735
93194SOL     OW81355   5.307   5.280   9.622
93194SOL    HW181356   5.220   5.241   9.629
93194SOL    HW281357   5.348   5.234   9.549
93195SOL     OW81358   5.079   6.324   5.305
93195SOL    HW181359   5.036   6.286   5.382
93195SOL    HW281360   5.070   6.258   5.237
93196SOL     OW81361  14.321   3.521  11.547
93196SOL    HW181362  14.403   3.474  11.563
93196SOL    HW281363  14.265   3.456  11.504
93197SOL     OW81364   4.016   2.328   4.156
93197SOL    HW181365   3.972   2.345   4.239
93197SOL    HW281366   3.995   2.237   4.136
93198SOL     OW81367  12.263  10.219  12.070
93198SOL    HW181368  12.270  10.123  12.074
93198SOL    HW281369  12.309  10.243  11.990
93199SOL     OW81370  14.055   8.978  12.724
93199SOL    HW181371  13.974   8.953  12.680
93199SOL    HW281372  14.094   9.043  12.666
93200SOL     OW81373   0.544   6.908   4.721
93200SOL    HW181374   0.511   6.998   4.725
93200SOL    HW281375   0.604   6.907   4.647
93201SOL     OW81376   1.599  10.806  12.860
93201SOL    HW181377   1.562  10.887  12.895
93201SOL    HW281378   1.649  10.833  12.784
93202SOL     OW81379   1.397   9.308  12.832
93202SOL    HW181380   1.431   9.378  12.888
93202SOL    HW281381   1.368   9.353  12.753
93203SOL     OW81382   4.748   8.111   4.505
93203SOL    HW181383   4.806   8.056   4.453
93203SOL    HW281384   4.691   8.154   4.441
93204SOL     OW81385  11.107  13.555   4.718
93204SOL    HW181386  11.120  13.567   4.812
93204SOL    HW281387  11.096  13.461   4.706
93205SOL     OW81388  12.912  11.153   5.807
93205SOL    HW181389  12.863  11.232   5.828
93205SOL    HW281390  12.852  11.100   5.755
93206SOL     OW81391   1.858   4.272   9.287
93206SOL    HW181392   1.934   4.222   9.317
93206SOL    HW281393   1.871   4.360   9.322
93207SOL     OW81394  10.610  11.359   1.419
93207SOL    HW181395  10.697  11.400   1.424
93207SOL    HW281396  10.566  11.385   1.499
93208SOL     OW81397  10.914   2.479   8.300
93208SOL    HW181398  10.889   2.469   8.391
93208SOL    HW281399  10.832   2.488   8.253
93209SOL     OW81400   7.414   0.764  11.926
93209SOL    HW181401   7.382   0.854  11.926
93209SOL    HW281402   7.501   0.769  11.886
93210SOL     OW81403   4.061  14.177  11.801
93210SOL    HW181404   4.139  14.224  11.772
93210SOL    HW281405   3.995  14.194  11.733
93211SOL     OW81406   8.807  13.539   6.484
93211SOL    HW181407   8.875  13.581   6.431
93211SOL    HW281408   8.735  13.602   6.485
93212SOL     OW81409   3.333  12.746   3.321
93212SOL    HW181410   3.427  12.742   3.304
93212SOL    HW281411   3.308  12.835   3.298
93213SOL     OW81412   9.440  11.384   1.890
93213SOL    HW181413   9.431  11.479   1.883
93213SOL    HW281414   9.356  11.349   1.860
93214SOL     OW81415  12.415   0.821  14.430
93214SOL    HW181416  12.469   0.841  14.353
93214SOL    HW281417  12.396   0.728  14.423
93215SOL     OW81418  10.378   9.697   5.848
93215SOL    HW181419  10.447   9.690   5.783
93215SOL    HW281420  10.306   9.644   5.813
93216SOL     OW81421   8.977   9.949  11.120
93216SOL    HW181422   9.000  10.021  11.179
93216SOL    HW281423   8.889   9.969  11.089
93217SOL     OW81424   2.887   4.757  12.774
93217SOL    HW181425   2.793   4.758  12.793
93217SOL    HW281426   2.900   4.830  12.713
93218SOL     OW81427   1.928   9.622  13.433
93218SOL    HW181428   2.006   9.579  13.397
93218SOL    HW281429   1.961   9.704  13.471
93219SOL     OW81430   7.402   1.380   3.473
93219SOL    HW181431   7.378   1.377   3.381
93219SOL    HW281432   7.335   1.434   3.514
93220SOL     OW81433   5.220   4.697   4.845
93220SOL    HW181434   5.298   4.642   4.848
93220SOL    HW281435   5.147   4.635   4.843
93221SOL     OW81436   6.117   7.557   2.431
93221SOL    HW181437   6.176   7.580   2.503
93221SOL    HW281438   6.169   7.500   2.375
93222SOL     OW81439   6.394   1.514  10.008
93222SOL    HW181440   6.303   1.499  10.036
93222SOL    HW281441   6.409   1.451   9.938
93223SOL     OW81442   0.293  10.083   5.955
93223SOL    HW181443   0.225  10.017   5.964
93223SOL    HW281444   0.314  10.083   5.861
93224SOL     OW81445   1.367   1.989  12.637
93224SOL    HW181446   1.369   1.894  12.633
93224SOL    HW281447   1.339   2.016  12.549
93225SOL     OW81448   4.837   3.332   3.723
93225SOL    HW181449   4.754   3.291   3.748
93225SOL    HW281450   4.903   3.263   3.735
93226SOL     OW81451  10.970   0.215   3.622
93226SOL    HW181452  10.928   0.210   3.707
93226SOL    HW281453  11.064   0.219   3.642
93227SOL     OW81454   2.907   6.378  14.215
93227SOL    HW181455   2.985   6.428  14.238
93227SOL    HW281456   2.837   6.443  14.210
93228SOL     OW81457   2.659   4.805   2.946
93228SOL    HW181458   2.703   4.845   2.872
93228SOL    HW281459   2.722   4.741   2.980
93229SOL     OW81460  11.317   3.292   1.900
93229SOL    HW181461  11.370   3.365   1.933
93229SOL    HW281462  11.227   3.316   1.920
93230SOL     OW81463   1.589  13.604   8.372
93230SOL    HW181464   1.604  13.698   8.376
93230SOL    HW281465   1.675  13.566   8.357
93231SOL     OW81466   6.873  13.168  11.145
93231SOL    HW181467   6.799  13.223  11.119
93231SOL    HW281468   6.940  13.230  11.173
93232SOL     OW81469   9.647  12.086   5.036
93232SOL    HW181470   9.674  12.010   4.985
93232SOL    HW281471   9.631  12.052   5.124
93233SOL     OW81472   8.049   2.843  14.204
93233SOL    HW181473   8.033   2.937  14.200
93233SOL    HW281474   8.133   2.831  14.160
93234SOL     OW81475   5.431   5.399  12.818
93234SOL    HW181476   5.449   5.316  12.775
93234SOL    HW281477   5.363   5.440  12.764
93235SOL     OW81478   8.132   8.568   9.628
93235SOL    HW181479   8.185   8.579   9.548
93235SOL    HW281480   8.119   8.474   9.635
93236SOL     OW81481  12.977   5.138   3.339
93236SOL    HW181482  13.000   5.106   3.252
93236SOL    HW281483  12.988   5.233   3.334
93237SOL     OW81484   9.704   4.652   5.190
93237SOL    HW181485   9.795   4.623   5.197
93237SOL    HW281486   9.654   4.572   5.178
93238SOL     OW81487   5.132  10.561   5.079
93238SOL    HW181488   5.226  10.553   5.067
93238SOL    HW281489   5.103  10.473   5.102
93239SOL     OW81490   2.273  10.271   6.718
93239SOL    HW181491   2.303  10.328   6.788
93239SOL    HW281492   2.212  10.325   6.667
93240SOL     OW81493   2.503  13.638   0.394
93240SOL    HW181494   2.433  13.580   0.423
93240SOL    HW281495   2.517  13.698   0.467
93241SOL     OW81496   3.161   0.980   5.696
93241SOL    HW181497   3.070   0.972   5.668
93241SOL    HW281498   3.167   0.925   5.774
93242SOL     OW81499   2.188   9.843   1.755
93242SOL    HW181500   2.221   9.912   1.697
93242SOL    HW281501   2.093   9.852   1.750
93243SOL     OW81502   0.468  11.284   9.874
93243SOL    HW181503   0.551  11.275   9.826
93243SOL    HW281504   0.463  11.378   9.894
93244SOL     OW81505   4.736   7.776  11.793
93244SOL    HW181506   4.766   7.867  11.801
93244SOL    HW281507   4.669   7.780  11.725
93245SOL     OW81508   3.878   5.040   5.412
93245SOL    HW181509   3.828   5.001   5.341
93245SOL    HW281510   3.871   5.134   5.397
93246SOL     OW81511  13.156  14.386   3.487
93246SOL    HW181512  13.069  14.351   3.502
93246SOL    HW281513  13.215  14.325   3.532
93247SOL     OW81514  10.832  12.236   4.280
93247SOL    HW181515  10.842  12.140   4.277
93247SOL    HW281516  10.919  12.268   4.302
93248SOL     OW81517  10.345   3.935   9.868
93248SOL    HW181518  10.276   3.900   9.811
93248SOL    HW281519  10.386   3.858   9.906
93249SOL     OW81520   4.076   9.695  11.855
93249SOL    HW181521   4.116   9.630  11.914
93249SOL    HW281522   4.151   9.745  11.822
93250SOL     OW81523   5.288  12.736   9.034
93250SOL    HW181524   5.373  12.780   9.040
93250SOL    HW281525   5.309  12.650   8.997
93251SOL     OW81526   1.010   4.287   2.580
93251SOL    HW181527   1.095   4.320   2.611
93251SOL    HW281528   0.999   4.327   2.493
93252SOL     OW81529   5.582   8.684   4.865
93252SOL    HW181530   5.533   8.747   4.813
93252SOL    HW281531   5.665   8.728   4.883
93253SOL     OW81532   4.767  14.196  11.401
93253SOL    HW181533   4.848  14.164  11.362
93253SOL    HW281534   4.795  14.256  11.470
93254SOL     OW81535   4.725   9.514   2.936
93254SOL    HW181536   4.804   9.465   2.909
93254SOL    HW281537   4.690   9.464   3.009
93255SOL     OW81538   1.584  13.526   0.651
93255SOL    HW181539   1.647  13.498   0.584
93255SOL    HW281540   1.633  13.520   0.733
93256SOL     OW81541   9.720   2.305   4.254
93256SOL    HW181542   9.811   2.282   4.239
93256SOL    HW281543   9.696   2.257   4.334
93257SOL     OW81544   6.420   6.773   4.604
93257SOL    HW181545   6.358   6.770   4.532
93257SOL    HW281546   6.430   6.682   4.632
93258SOL     OW81547  10.296  13.179   3.856
93258SOL    HW181548  10.245  13.170   3.775
93258SOL    HW281549  10.234  13.158   3.926
93259SOL     OW81550   9.439   1.715   5.775
93259SOL    HW181551   9.397   1.702   5.690
93259SOL    HW281552   9.418   1.805   5.799
93260SOL     OW81553   7.966   5.779   7.251
93260SOL    HW181554   7.909   5.754   7.324
93260SOL    HW281555   8.054   5.757   7.280
93261SOL     OW81556   3.435   9.107   6.127
93261SOL    HW181557   3.444   9.102   6.032
93261SOL    HW281558   3.522   9.086   6.160
93262SOL     OW81559   2.460   2.037   9.930
93262SOL    HW181560   2.367   2.051   9.948
93262SOL    HW281561   2.475   1.945   9.950
93263SOL     OW81562   5.333  10.458   2.554
93263SOL    HW181563   5.275  10.493   2.621
93263SOL    HW281564   5.367  10.535   2.508
93264SOL     OW81565   5.227   8.871   7.526
93264SOL    HW181566   5.304   8.920   7.556
93264SOL    HW281567   5.224   8.793   7.581
93265SOL     OW81568  11.886  14.758   2.507
93265SOL    HW181569  11.940  14.810   2.447
93265SOL    HW281570  11.901  14.668   2.480
93266SOL     OW81571   2.730  11.467   2.109
93266SOL    HW181572   2.698  11.495   2.023
93266SOL    HW281573   2.817  11.431   2.093
93267SOL     OW81574  14.804  11.192   9.170
93267SOL    HW181575  14.847  11.177   9.255
93267SOL    HW281576  14.875  11.222   9.113
93268SOL     OW81577  14.233   8.937   5.484
93268SOL    HW181578  14.249   9.031   5.489
93268SOL    HW281579  14.206   8.912   5.572
93269SOL     OW81580   8.888  12.266   7.840
93269SOL    HW181581   8.907  12.254   7.933
93269SOL    HW281582   8.960  12.221   7.796
93270SOL     OW81583  14.415   5.912   9.847
93270SOL    HW181584  14.457   5.989   9.809
93270SOL    HW281585  14.452   5.906   9.936
93271SOL     OW81586   7.597   2.077   4.671
93271SOL    HW181587   7.505   2.072   4.642
93271SOL    HW281588   7.643   2.015   4.615
93272SOL     OW81589   6.535   1.364  10.193
93272SOL    HW181590   6.485   1.415  10.129
93272SOL    HW281591   6.468   1.318  10.244
93273SOL     OW81592  10.071   4.431  12.053
93273SOL    HW181593  10.083   4.523  12.030
93273SOL    HW281594  10.049   4.432  12.146
93274SOL     OW81595   8.563  11.514   4.154
93274SOL    HW181596   8.557  11.603   4.119
93274SOL    HW281597   8.654  11.488   4.139
93275SOL     OW81598  10.157  14.092  11.922
93275SOL    HW181599  10.082  14.046  11.959
93275SOL    HW281600  10.164  14.172  11.974
93276SOL     OW81601  12.680  14.856   9.759
93276SOL    HW181602  12.764  14.842   9.804
93276SOL    HW281603  12.614  14.823   9.821
93277SOL     OW81604   5.008   2.377   4.728
93277SOL    HW181605   4.944   2.311   4.755
93277SOL    HW281606   5.009   2.441   4.799
93278SOL     OW81607   7.631   6.102   9.115
93278SOL    HW181608   7.678   6.126   9.195
93278SOL    HW281609   7.699   6.067   9.057
93279SOL     OW81610  11.457   9.526  10.354
93279SOL    HW181611  11.447   9.443  10.400
93279SOL    HW281612  11.405   9.589  10.405
93280SOL     OW81613   1.746   1.326  13.414
93280SOL    HW181614   1.679   1.274  13.370
93280SOL    HW281615   1.746   1.410  13.368
93281SOL     OW81616  11.240   4.192   6.305
93281SOL    HW181617  11.244   4.230   6.217
93281SOL    HW281618  11.289   4.110   6.297
93282SOL     OW81619   6.065   0.629   9.155
93282SOL    HW181620   6.028   0.548   9.118
93282SOL    HW281621   6.155   0.630   9.123
93283SOL     OW81622   2.274   4.487   1.970
93283SOL    HW181623   2.266   4.549   2.043
93283SOL    HW281624   2.357   4.442   1.986
93284SOL     OW81625   2.318  14.096   6.652
93284SOL    HW181626   2.401  14.067   6.613
93284SOL    HW281627   2.292  14.023   6.709
93285SOL     OW81628   8.732   5.821   8.695
93285SOL    HW181629   8.792   5.746   8.696
93285SOL    HW281630   8.738   5.856   8.606
93286SOL     OW81631  11.554   5.385   4.229
93286SOL    HW181632  11.488   5.322   4.259
93286SOL    HW281633  11.631   5.365   4.282
93287SOL     OW81634   4.777  13.116   3.949
93287SOL    HW181635   4.711  13.123   3.880
93287SOL    HW281636   4.827  13.037   3.927
93288SOL     OW81637   6.473   8.000  12.024
93288SOL    HW181638   6.498   7.914  11.990
93288SOL    HW281639   6.475   7.990  12.120
93289SOL     OW81640   5.701   4.320   3.391
93289SOL    HW181641   5.625   4.363   3.430
93289SOL    HW281642   5.776   4.364   3.430
93290SOL     OW81643   3.813   4.605   5.037
93290SOL    HW181644   3.814   4.622   4.943
93290SOL    HW281645   3.808   4.509   5.043
93291SOL     OW81646  12.538  13.384   4.699
93291SOL    HW181647  12.585  13.403   4.780
93291SOL    HW281648  12.466  13.448   4.698
93292SOL     OW81649  11.739   6.593   0.589
93292SOL    HW181650  11.820   6.562   0.548
93292SOL    HW281651  11.670   6.570   0.528
93293SOL     OW81652   9.335   9.364   0.571
93293SOL    HW181653   9.414   9.313   0.589
93293SOL    HW281654   9.267   9.298   0.556
93294SOL     OW81655   9.233   9.289   3.433
93294SOL    HW181656   9.146   9.266   3.465
93294SOL    HW281657   9.285   9.305   3.512
93295SOL     OW81658   5.342  14.029  14.035
93295SOL    HW181659   5.356  13.955  14.094
93295SOL    HW281660   5.249  14.024  14.013
93296SOL     OW81661   9.512   9.362   5.731
93296SOL    HW181662   9.431   9.325   5.766
93296SOL    HW281663   9.499   9.364   5.636
93297SOL     OW81664   9.146   9.952   1.556
93297SOL    HW181665   9.064   9.995   1.580
93297SOL    HW281666   9.135   9.862   1.584
93298SOL     OW81667  14.260   5.953   2.801
93298SOL    HW181668  14.284   6.042   2.775
93298SOL    HW281669  14.315   5.896   2.748
93299SOL     OW81670  11.037  13.061   2.233
93299SOL    HW181671  11.095  13.117   2.182
93299SOL    HW281672  11.010  13.114   2.308
93300SOL     OW81673   0.677   9.099  10.831
93300SOL    HW181674   0.664   9.185  10.872
93300SOL    HW281675   0.647   9.111  10.740
93301SOL     OW81676  12.044  14.332   2.744
93301SOL    HW181677  12.138  14.343   2.755
93301SOL    HW281678  12.032  14.238   2.730
93302SOL     OW81679  10.142   2.970   9.604
93302SOL    HW181680  10.205   2.903   9.632
93302SOL    HW281681  10.189   3.053   9.614
93303SOL     OW81682   3.433  10.018   5.826
93303SOL    HW181683   3.431  10.110   5.850
93303SOL    HW281684   3.414   9.971   5.907
93304SOL     OW81685   4.834   1.890   0.993
93304SOL    HW181686   4.848   1.842   1.075
93304SOL    HW281687   4.866   1.830   0.925
93305SOL     OW81688   6.880   7.101   9.054
93305SOL    HW181689   6.823   7.024   9.053
93305SOL    HW281690   6.893   7.123   8.962
93306SOL     OW81691   9.709   8.761   5.475
93306SOL    HW181692   9.622   8.801   5.478
93306SOL    HW281693   9.715   8.710   5.557
93307SOL     OW81694   5.816   4.854   7.897
93307SOL    HW181695   5.806   4.769   7.855
93307SOL    HW281696   5.805   4.836   7.990
93308SOL     OW81697  10.482  13.825   2.754
93308SOL    HW181698  10.435  13.904   2.728
93308SOL    HW281699  10.572  13.855   2.771
93309SOL     OW81700  10.121   8.130   8.217
93309SOL    HW181701  10.184   8.197   8.242
93309SOL    HW281702  10.069   8.116   8.296
93310SOL     OW81703   6.672   4.984   9.632
93310SOL    HW181704   6.717   4.901   9.652
93310SOL    HW281705   6.614   4.962   9.559
93311SOL     OW81706   1.667   9.666   8.401
93311SOL    HW181707   1.723   9.649   8.476
93311SOL    HW281708   1.590   9.611   8.416
93312SOL     OW81709   5.373   3.596   6.166
93312SOL    HW181710   5.315   3.528   6.199
93312SOL    HW281711   5.383   3.576   6.073
93313SOL     OW81712   2.010  13.047  13.979
93313SOL    HW181713   2.034  12.968  13.930
93313SOL    HW281714   1.973  13.014  14.061
93314SOL     OW81715   6.295  10.313  14.670
93314SOL    HW181716   6.268  10.276  14.754
93314SOL    HW281717   6.261  10.402  14.671
93315SOL     OW81718   6.284   5.244   7.806
93315SOL    HW181719   6.376   5.266   7.787
93315SOL    HW281720   6.282   5.149   7.810
93316SOL     OW81721   4.967   0.386   7.759
93316SOL    HW181722   4.969   0.293   7.781
93316SOL    HW281723   5.001   0.391   7.669
93317SOL     OW81724   1.915  13.299   1.809
93317SOL    HW181725   1.918  13.377   1.864
93317SOL    HW281726   1.910  13.226   1.870
93318SOL     OW81727   7.460  12.092   7.671
93318SOL    HW181728   7.386  12.099   7.732
93318SOL    HW281729   7.534  12.127   7.720
93319SOL     OW81730   4.377  11.630   3.797
93319SOL    HW181731   4.432  11.552   3.797
93319SOL    HW281732   4.295  11.601   3.755
93320SOL     OW81733   4.103  13.109   2.627
93320SOL    HW181734   4.155  13.162   2.688
93320SOL    HW281735   4.163  13.091   2.554
93321SOL     OW81736  11.221   7.643   8.746
93321SOL    HW181737  11.237   7.633   8.840
93321SOL    HW281738  11.209   7.554   8.714
93322SOL     OW81739   6.379  14.350   8.349
93322SOL    HW181740   6.382  14.262   8.313
93322SOL    HW281741   6.447  14.351   8.416
93323SOL     OW81742   0.330   3.723  12.362
93323SOL    HW181743   0.373   3.681  12.436
93323SOL    HW281744   0.394   3.720  12.291
93324SOL     OW81745  11.687   7.907   2.712
93324SOL    HW181746  11.639   7.838   2.667
93324SOL    HW281747  11.753   7.860   2.764
93325SOL     OW81748  13.830  12.743  12.990
93325SOL    HW181749  13.827  12.771  12.899
93325SOL    HW281750  13.923  12.735  13.010
93326SOL     OW81751  11.596   6.049  10.561
93326SOL    HW181752  11.682   6.030  10.597
93326SOL    HW281753  11.562   6.120  10.615
93327SOL     OW81754  14.292  11.907   1.681
93327SOL    HW181755  14.269  11.980   1.623
93327SOL    HW281756  14.261  11.829   1.635
93328SOL     OW81757  12.912  14.001   6.550
93328SOL    HW181758  12.899  14.083   6.501
93328SOL    HW281759  12.870  14.017   6.634
93329SOL     OW81760   1.315   7.805  13.994
93329SOL    HW181761   1.409   7.789  13.996
93329SOL    HW281762   1.304   7.894  14.027
93330SOL     OW81763   0.535   2.116  12.959
93330SOL    HW181764   0.448   2.104  12.998
93330SOL    HW281765   0.518   2.134  12.867
93331SOL     OW81766   8.788  13.240   1.638
93331SOL    HW181767   8.788  13.187   1.717
93331SOL    HW281768   8.716  13.302   1.649
93332SOL     OW81769   4.171   9.881   0.133
93332SOL    HW181770   4.134   9.912   0.216
93332SOL    HW281771   4.102   9.897   0.068
93333SOL     OW81772  12.080   7.291   5.053
93333SOL    HW181773  12.017   7.310   4.983
93333SOL    HW281774  12.136   7.223   5.017
93334SOL     OW81775  12.828  11.409   2.381
93334SOL    HW181776  12.921  11.417   2.402
93334SOL    HW281777  12.783  11.443   2.459
93335SOL     OW81778   5.314   9.642  11.083
93335SOL    HW181779   5.236   9.697  11.076
93335SOL    HW281780   5.351   9.663  11.169
93336SOL     OW81781  11.734   0.965   7.752
93336SOL    HW181782  11.772   0.990   7.837
93336SOL    HW281783  11.648   0.930   7.774
93337SOL     OW81784   5.210   0.633  11.191
93337SOL    HW181785   5.287   0.684  11.165
93337SOL    HW281786   5.244   0.545  11.207
93338SOL     OW81787  10.141   6.448   6.466
93338SOL    HW181788  10.145   6.419   6.557
93338SOL    HW281789  10.172   6.539   6.468
93339SOL     OW81790   9.491   7.103   1.853
93339SOL    HW181791   9.580   7.134   1.833
93339SOL    HW281792   9.502   7.045   1.929
93340SOL     OW81793  13.275  10.212   2.121
93340SOL    HW181794  13.236  10.128   2.097
93340SOL    HW281795  13.221  10.277   2.076
93341SOL     OW81796   8.872  13.347  13.141
93341SOL    HW181797   8.791  13.359  13.093
93341SOL    HW281798   8.855  13.273  13.200
93342SOL     OW81799   3.948  13.459   4.697
93342SOL    HW181800   3.949  13.496   4.608
93342SOL    HW281801   3.906  13.374   4.687
93343SOL     OW81802  12.597   6.024   0.137
93343SOL    HW181803  12.604   6.096   0.198
93343SOL    HW281804  12.564   5.951   0.189
93344SOL     OW81805   0.077  10.253  13.877
93344SOL    HW181806   0.022  10.328  13.901
93344SOL    HW281807   0.120  10.228  13.959
93345SOL     OW81808   5.316   0.024   3.599
93345SOL    HW181809   5.323   0.119   3.605
93345SOL    HW281810   5.404  14.873   3.577
93346SOL     OW81811  13.307   4.458   5.425
93346SOL    HW181812  13.286   4.531   5.483
93346SOL    HW281813  13.337   4.389   5.484
93347SOL     OW81814   3.863   6.440   1.207
93347SOL    HW181815   3.888   6.349   1.189
93347SOL    HW281816   3.772   6.446   1.178
93348SOL     OW81817   7.763   0.588   6.436
93348SOL    HW181818   7.813   0.647   6.492
93348SOL    HW281819   7.805   0.503   6.447
93349SOL     OW81820   6.951   9.123  13.786
93349SOL    HW181821   6.993   9.208  13.773
93349SOL    HW281822   6.902   9.108  13.706
93350SOL     OW81823   7.074   7.773  14.304
93350SOL    HW181824   7.136   7.715  14.349
93350SOL    HW281825   7.022   7.714  14.249
93351SOL     OW81826   4.339  11.041   9.778
93351SOL    HW181827   4.322  10.949   9.755
93351SOL    HW281828   4.276  11.090   9.725
93352SOL     OW81829   4.826   6.749  11.623
93352SOL    HW181830   4.890   6.796  11.676
93352SOL    HW281831   4.810   6.807  11.548
93353SOL     OW81832   5.834  12.814   8.928
93353SOL    HW181833   5.871  12.902   8.921
93353SOL    HW281834   5.888  12.771   8.995
93354SOL     OW81835  11.135   4.239   5.290
93354SOL    HW181836  11.074   4.166   5.296
93354SOL    HW281837  11.219   4.198   5.267
93355SOL     OW81838   5.567   6.063  13.984
93355SOL    HW181839   5.638   6.119  14.016
93355SOL    HW281840   5.534   6.020  14.063
93356SOL     OW81841  14.557   5.700   4.182
93356SOL    HW181842  14.524   5.646   4.254
93356SOL    HW281843  14.489   5.696   4.115
93357SOL     OW81844   1.092   4.303   0.584
93357SOL    HW181845   1.044   4.278   0.506
93357SOL    HW281846   1.167   4.243   0.586
93358SOL     OW81847   0.970  12.332  14.301
93358SOL    HW181848   1.022  12.361  14.226
93358SOL    HW281849   1.005  12.245  14.322
93359SOL     OW81850   7.635   7.621   2.896
93359SOL    HW181851   7.609   7.529   2.896
93359SOL    HW281852   7.730   7.620   2.896
93360SOL     OW81853   1.320   2.157   6.680
93360SOL    HW181854   1.332   2.209   6.601
93360SOL    HW281855   1.402   2.108   6.689
93361SOL     OW81856   5.716   0.558   8.891
93361SOL    HW181857   5.778   0.520   8.953
93361SOL    HW281858   5.678   0.483   8.846
93362SOL     OW81859  11.289  10.483   2.496
93362SOL    HW181860  11.359  10.523   2.445
93362SOL    HW281861  11.243  10.426   2.434
93363SOL     OW81862  12.142   7.190   0.176
93363SOL    HW181863  12.080   7.263   0.173
93363SOL    HW281864  12.093   7.118   0.217
93364SOL     OW81865   2.341  12.794  14.715
93364SOL    HW181866   2.372  12.724  14.659
93364SOL    HW281867   2.282  12.845  14.659
93365SOL     OW81868  13.330  11.725  10.840
93365SOL    HW181869  13.321  11.747  10.748
93365SOL    HW281870  13.424  11.725  10.856
93366SOL     OW81871  12.688   8.434   9.630
93366SOL    HW181872  12.773   8.472   9.608
93366SOL    HW281873  12.671   8.463   9.720
93367SOL     OW81874   2.262  11.805   4.773
93367SOL    HW181875   2.340  11.820   4.827
93367SOL    HW281876   2.251  11.710   4.775
93368SOL     OW81877   1.020  10.123  12.443
93368SOL    HW181878   0.963  10.068  12.497
93368SOL    HW281879   1.086  10.156  12.504
93369SOL     OW81880   6.945   6.466   4.811
93369SOL    HW181881   6.882   6.521   4.764
93369SOL    HW281882   6.896   6.387   4.832
93370SOL     OW81883   0.004   3.537  14.178
93370SOL    HW181884  14.807   3.538  14.237
93370SOL    HW281885   0.067   3.597  14.219
93371SOL     OW81886   6.934  10.462   8.136
93371SOL    HW181887   6.894  10.517   8.204
93371SOL    HW281888   6.889  10.487   8.056
93372SOL     OW81889   2.678  10.072   8.667
93372SOL    HW181890   2.668  10.014   8.592
93372SOL    HW281891   2.609  10.046   8.728
93373SOL     OW81892   9.001   7.109  12.504
93373SOL    HW181893   8.997   7.051  12.428
93373SOL    HW281894   8.910   7.138  12.516
93374SOL     OW81895   0.425   6.887  14.681
93374SOL    HW181896   0.491   6.830  14.641
93374SOL    HW281897   0.384   6.834  14.748
93375SOL     OW81898   8.064   1.668  10.329
93375SOL    HW181899   8.062   1.750  10.378
93375SOL    HW281900   8.020   1.605  10.387
93376SOL     OW81901   8.279   0.173  13.558
93376SOL    HW181902   8.337   0.115  13.508
93376SOL    HW281903   8.297   0.260  13.522
93377SOL     OW81904   6.099  14.481   4.069
93377SOL    HW181905   6.128  14.441   4.151
93377SOL    HW281906   6.021  14.532   4.093
93378SOL     OW81907   9.938   2.750   0.924
93378SOL    HW181908  10.022   2.748   0.878
93378SOL    HW281909   9.929   2.663   0.963
93379SOL     OW81910  12.294   6.269  11.286
93379SOL    HW181911  12.373   6.214  11.289
93379SOL    HW281912  12.234   6.220  11.229
93380SOL     OW81913  14.323   3.225   5.697
93380SOL    HW181914  14.287   3.137   5.703
93380SOL    HW281915  14.250   3.279   5.667
93381SOL     OW81916   1.769   3.197   3.124
93381SOL    HW181917   1.710   3.152   3.185
93381SOL    HW281918   1.769   3.288   3.154
93382SOL     OW81919   6.438  11.315   9.184
93382SOL    HW181920   6.372  11.340   9.250
93382SOL    HW281921   6.521  11.341   9.223
93383SOL     OW81922   1.587  11.287  12.115
93383SOL    HW181923   1.639  11.359  12.151
93383SOL    HW281924   1.645  11.243  12.053
93384SOL     OW81925   9.861   5.283   5.220
93384SOL    HW181926   9.779   5.239   5.200
93384SOL    HW281927   9.847   5.374   5.193
93385SOL     OW81928  10.916  10.186   5.504
93385SOL    HW181929  10.882  10.270   5.474
93385SOL    HW281930  10.855  10.158   5.572
93386SOL     OW81931  11.777  11.015   3.670
93386SOL    HW181932  11.843  10.949   3.693
93386SOL    HW281933  11.795  11.088   3.729
93387SOL     OW81934   1.203   8.430   4.928
93387SOL    HW181935   1.182   8.506   4.874
93387SOL    HW281936   1.122   8.411   4.975
93388SOL     OW81937  10.166   7.586   4.134
93388SOL    HW181938  10.235   7.536   4.177
93388SOL    HW281939  10.089   7.530   4.139
93389SOL     OW81940   2.664  14.291  10.676
93389SOL    HW181941   2.655  14.344  10.597
93389SOL    HW281942   2.586  14.311  10.728
93390SOL     OW81943  11.324  11.113   9.611
93390SOL    HW181944  11.396  11.097   9.672
93390SOL    HW281945  11.272  11.181   9.654
93391SOL     OW81946  12.174  14.044   9.293
93391SOL    HW181947  12.173  14.137   9.313
93391SOL    HW281948  12.172  14.040   9.197
93392SOL     OW81949   1.668   1.746  14.494
93392SOL    HW181950   1.643   1.669  14.442
93392SOL    HW281951   1.618   1.737  14.575
93393SOL     OW81952  12.313  13.325  10.766
93393SOL    HW181953  12.308  13.400  10.706
93393SOL    HW281954  12.343  13.252  10.711
93394SOL     OW81955  12.007   0.093  14.337
93394SOL    HW181956  12.038   0.068  14.250
93394SOL    HW281957  12.054   0.036  14.397
93395SOL     OW81958   1.835   0.123   3.616
93395SOL    HW181959   1.777   0.181   3.566
93395SOL    HW281960   1.828   0.039   3.573
93396SOL     OW81961   9.494  14.523  13.943
93396SOL    HW181962   9.457  14.465  14.010
93396SOL    HW281963   9.455  14.609  13.962
93397SOL     OW81964   2.385  14.199  13.580
93397SOL    HW181965   2.358  14.290  13.593
93397SOL    HW281966   2.306  14.148  13.597
93398SOL     OW81967   5.924   5.375  12.219
93398SOL    HW181968   5.947   5.388  12.127
93398SOL    HW281969   5.837   5.413  12.228
93399SOL     OW81970   0.759   7.523  13.056
93399SOL    HW181971   0.781   7.460  12.987
93399SOL    HW281972   0.687   7.483  13.104
93400SOL     OW81973   3.979  11.190   8.023
93400SOL    HW181974   4.024  11.175   7.940
93400SOL    HW281975   3.909  11.252   8.002
93401SOL     OW81976  13.514   1.241   0.774
93401SOL    HW181977  13.554   1.274   0.854
93401SOL    HW281978  13.445   1.304   0.753
93402SOL     OW81979   1.773  11.036   1.432
93402SOL    HW181980   1.802  11.120   1.467
93402SOL    HW281981   1.843  11.010   1.371
93403SOL     OW81982   3.268   9.916  13.130
93403SOL    HW181983   3.352   9.876  13.109
93403SOL    HW281984   3.278   9.946  13.221
93404SOL     OW81985   1.680   9.774  13.770
93404SOL    HW181986   1.663   9.820  13.688
93404SOL    HW281987   1.732   9.698  13.744
93405SOL     OW81988  14.214   5.892   9.539
93405SOL    HW181989  14.216   5.851   9.625
93405SOL    HW281990  14.122   5.893   9.514
93406SOL     OW81991  12.428   4.697  10.814
93406SOL    HW181992  12.334   4.704  10.828
93406SOL    HW281993  12.463   4.658  10.894
93407SOL     OW81994   2.291   2.542  13.525
93407SOL    HW181995   2.205   2.502  13.508
93407SOL    HW281996   2.282   2.581  13.612
93408SOL     OW81997   5.220   6.341   4.310
93408SOL    HW181998   5.174   6.398   4.372
93408SOL    HW281999   5.304   6.385   4.295
93409SOL     OW82000  11.135  13.503   8.372
93409SOL    HW182001  11.079  13.580   8.360
93409SOL    HW282002  11.083  13.444   8.427
93410SOL     OW82003  11.495   0.713   1.921
93410SOL    HW182004  11.563   0.738   1.984
93410SOL    HW282005  11.542   0.665   1.853
93411SOL     OW82006   3.310  11.116   7.215
93411SOL    HW182007   3.373  11.121   7.143
93411SOL    HW282008   3.301  11.206   7.247
93412SOL     OW82009   1.386   5.029  10.138
93412SOL    HW182010   1.348   5.060  10.056
93412SOL    HW282011   1.462   5.086  10.152
93413SOL     OW82012   7.376   3.129   7.052
93413SOL    HW182013   7.421   3.205   7.014
93413SOL    HW282014   7.442   3.060   7.051
93414SOL     OW82015   1.029   0.287   5.061
93414SOL    HW182016   1.070   0.276   4.975
93414SOL    HW282017   0.990   0.374   5.057
93415SOL     OW82018  10.780  11.075   7.058
93415SOL    HW182019  10.752  11.158   7.020
93415SOL    HW282020  10.874  11.084   7.069
93416SOL     OW82021   5.510  12.771  13.794
93416SOL    HW182022   5.568  12.839  13.827
93416SOL    HW282023   5.539  12.757  13.704
93417SOL     OW82024   5.489  12.564   9.259
93417SOL    HW182025   5.512  12.497   9.323
93417SOL    HW282026   5.542  12.639   9.283
93418SOL     OW82027  10.730   2.193  10.271
93418SOL    HW182028  10.822   2.215  10.264
93418SOL    HW282029  10.708   2.155  10.185
93419SOL     OW82030   0.865  13.776  12.631
93419SOL    HW182031   0.885  13.731  12.549
93419SOL    HW282032   0.788  13.731  12.665
93420SOL     OW82033   5.683  14.221   3.882
93420SOL    HW182034   5.754  14.205   3.944
93420SOL    HW282035   5.605  14.189   3.926
93421SOL     OW82036  12.861  14.428   7.957
93421SOL    HW182037  12.871  14.442   7.863
93421SOL    HW282038  12.797  14.494   7.984
93422SOL     OW82039   9.984  11.436   1.500
93422SOL    HW182040   9.922  11.500   1.535
93422SOL    HW282041   9.974  11.443   1.405
93423SOL     OW82042   7.741   5.263   2.045
93423SOL    HW182043   7.728   5.309   2.128
93423SOL    HW282044   7.826   5.221   2.053
93424SOL     OW82045  11.911   6.926   8.576
93424SOL    HW182046  11.885   6.974   8.497
93424SOL    HW282047  11.952   6.991   8.632
93425SOL     OW82048   8.950  12.316  13.543
93425SOL    HW182049   8.947  12.221  13.533
93425SOL    HW282050   9.043  12.335  13.558
93426SOL     OW82051  14.743   5.010   0.491
93426SOL    HW182052  14.750   5.063   0.570
93426SOL    HW282053  14.802   5.053   0.428
93427SOL     OW82054   9.556   1.845  12.540
93427SOL    HW182055   9.486   1.782  12.558
93427SOL    HW282056   9.600   1.810  12.463
93428SOL     OW82057   0.981   3.205   5.605
93428SOL    HW182058   0.919   3.180   5.673
93428SOL    HW282059   0.970   3.300   5.596
93429SOL     OW82060   3.000   0.257   4.569
93429SOL    HW182061   3.033   0.189   4.628
93429SOL    HW282062   2.912   0.227   4.547
93430SOL     OW82063   2.986   3.630   1.683
93430SOL    HW182064   2.896   3.604   1.664
93430SOL    HW282065   2.979   3.687   1.760
93431SOL     OW82066   8.308   5.495   5.121
93431SOL    HW182067   8.345   5.571   5.076
93431SOL    HW282068   8.333   5.421   5.067
93432SOL     OW82069  12.724   2.612   2.708
93432SOL    HW182070  12.766   2.534   2.671
93432SOL    HW282071  12.665   2.641   2.639
93433SOL     OW82072  13.316   6.907  12.406
93433SOL    HW182073  13.298   6.991  12.448
93433SOL    HW282074  13.272   6.913  12.321
93434SOL     OW82075   1.288  10.722   4.225
93434SOL    HW182076   1.283  10.633   4.259
93434SOL    HW282077   1.301  10.711   4.131
93435SOL     OW82078  12.443   6.536  11.317
93435SOL    HW182079  12.384   6.462  11.307
93435SOL    HW282080  12.442   6.556  11.410
93436SOL     OW82081   3.224   1.819   6.386
93436SOL    HW182082   3.284   1.893   6.382
93436SOL    HW282083   3.180   1.828   6.471
93437SOL     OW82084   8.564  12.665  14.269
93437SOL    HW182085   8.525  12.602  14.208
93437SOL    HW282086   8.569  12.746  14.219
93438SOL     OW82087  11.693   9.295  13.986
93438SOL    HW182088  11.673   9.205  13.962
93438SOL    HW282089  11.609   9.331  14.017
93439SOL     OW82090   7.139  12.133   1.684
93439SOL    HW182091   7.191  12.131   1.605
93439SOL    HW282092   7.048  12.129   1.653
93440SOL     OW82093   3.976   2.741   6.836
93440SOL    HW182094   3.924   2.821   6.828
93440SOL    HW282095   3.912   2.671   6.842
93441SOL     OW82096  11.396   3.169   4.175
93441SOL    HW182097  11.311   3.140   4.206
93441SOL    HW282098  11.413   3.250   4.224
93442SOL     OW82099   0.965  14.319  11.604
93442SOL    HW182100   0.944  14.250  11.667
93442SOL    HW282101   0.975  14.398  11.656
93443SOL     OW82102   9.407  10.849   0.355
93443SOL    HW182103   9.465  10.800   0.412
93443SOL    HW282104   9.449  10.935   0.345
93444SOL     OW82105   6.942   4.104  11.588
93444SOL    HW182106   6.884   4.079  11.517
93444SOL    HW282107   6.980   4.187  11.560
93445SOL     OW82108  13.932   3.124   5.997
93445SOL    HW182109  13.922   3.199   5.937
93445SOL    HW282110  14.026   3.107   5.998
93446SOL     OW82111  10.189   7.249   2.412
93446SOL    HW182112  10.102   7.278   2.439
93446SOL    HW282113  10.216   7.187   2.479
93447SOL     OW82114   3.442   1.397  13.196
93447SOL    HW182115   3.483   1.329  13.144
93447SOL    HW282116   3.357   1.360  13.221
93448SOL     OW82117   8.177   3.189   0.560
93448SOL    HW182118   8.268   3.216   0.548
93448SOL    HW282119   8.126   3.263   0.527
93449SOL     OW82120   8.509   3.085   5.452
93449SOL    HW182121   8.592   3.039   5.464
93449SOL    HW282122   8.531   3.177   5.464
93450SOL     OW82123   1.848   2.338   4.175
93450SOL    HW182124   1.932   2.369   4.141
93450SOL    HW282125   1.796   2.318   4.097
93451SOL     OW82126   1.802   9.760  11.715
93451SOL    HW182127   1.804   9.855  11.706
93451SOL    HW282128   1.831   9.743  11.805
93452SOL     OW82129   3.008  14.256   2.665
93452SOL    HW182130   2.997  14.217   2.579
93452SOL    HW282131   2.940  14.324   2.669
93453SOL     OW82132   4.561   0.672  14.719
93453SOL    HW182133   4.480   0.721  14.735
93453SOL    HW282134   4.558   0.651  14.626
93454SOL     OW82135   8.352   2.687   3.563
93454SOL    HW182136   8.262   2.657   3.575
93454SOL    HW282137   8.378   2.722   3.648
93455SOL     OW82138   0.368   0.883   7.662
93455SOL    HW182139   0.457   0.912   7.645
93455SOL    HW282140   0.357   0.806   7.606
93456SOL     OW82141   7.067   1.876   8.170
93456SOL    HW182142   7.109   1.930   8.237
93456SOL    HW282143   7.111   1.791   8.176
93457SOL     OW82144  14.764  11.749  13.340
93457SOL    HW182145  14.809  11.808  13.279
93457SOL    HW282146  14.677  11.738  13.302
93458SOL     OW82147  12.986  10.714   9.944
93458SOL    HW182148  12.963  10.670   9.863
93458SOL    HW282149  12.988  10.644  10.010
93459SOL     OW82150  12.484   7.197   8.859
93459SOL    HW182151  12.558   7.238   8.814
93459SOL    HW282152  12.503   7.207   8.952
93460SOL     OW82153   6.906  11.936   0.502
93460SOL    HW182154   6.958  12.012   0.529
93460SOL    HW282155   6.832  11.934   0.563
93461SOL     OW82156  13.038  10.108   1.409
93461SOL    HW182157  12.970  10.169   1.381
93461SOL    HW282158  13.046  10.124   1.503
93462SOL     OW82159  10.262   4.483   5.174
93462SOL    HW182160  10.274   4.448   5.262
93462SOL    HW282161  10.273   4.578   5.184
93463SOL     OW82162   2.070   0.288   8.407
93463SOL    HW182163   2.086   0.378   8.379
93463SOL    HW282164   2.127   0.235   8.352
93464SOL     OW82165   0.191  10.909   6.204
93464SOL    HW182166   0.207  10.877   6.115
93464SOL    HW282167   0.112  10.962   6.197
93465SOL     OW82168   9.868   6.149   7.451
93465SOL    HW182169   9.815   6.227   7.468
93465SOL    HW282170   9.807   6.087   7.410
93466SOL     OW82171   0.751   0.450   3.527
93466SOL    HW182172   0.756   0.414   3.438
93466SOL    HW282173   0.835   0.429   3.567
93467SOL     OW82174   4.858  13.357  13.268
93467SOL    HW182175   4.908  13.407  13.332
93467SOL    HW282176   4.823  13.283  13.317
93468SOL     OW82177   4.322   8.805  12.930
93468SOL    HW182178   4.360   8.761  12.854
93468SOL    HW282179   4.275   8.736  12.978
93469SOL     OW82180   1.668   5.942   8.162
93469SOL    HW182181   1.589   5.922   8.112
93469SOL    HW282182   1.635   5.974   8.247
93470SOL     OW82183   9.378   4.751   0.168
93470SOL    HW182184   9.316   4.683   0.194
93470SOL    HW282185   9.381   4.811   0.243
93471SOL     OW82186   2.030   4.209   5.024
93471SOL    HW182187   2.067   4.165   4.948
93471SOL    HW282188   2.024   4.301   4.998
93472SOL     OW82189   7.116  14.019   2.706
93472SOL    HW182190   7.131  13.926   2.687
93472SOL    HW282191   7.026  14.035   2.675
93473SOL     OW82192  14.122   3.059   0.398
93473SOL    HW182193  14.203   3.015   0.423
93473SOL    HW282194  14.053   3.007   0.440
93474SOL     OW82195   7.168  10.840  14.529
93474SOL    HW182196   7.178  10.840  14.624
93474SOL    HW282197   7.098  10.777  14.513
93475SOL     OW82198   7.252   2.808   8.381
93475SOL    HW182199   7.256   2.852   8.466
93475SOL    HW282200   7.179   2.851   8.335
93476SOL     OW82201   0.135   4.404   3.818
93476SOL    HW182202   0.212   4.452   3.851
93476SOL    HW282203   0.117   4.443   3.733
93477SOL     OW82204  12.674   3.386  14.795
93477SOL    HW182205  12.752   3.384  14.849
93477SOL    HW282206  12.671   3.300  14.752
93478SOL     OW82207  11.413  11.048  13.870
93478SOL    HW182208  11.378  11.000  13.795
93478SOL    HW282209  11.460  10.981  13.921
93479SOL     OW82210  12.853   9.149  10.566
93479SOL    HW182211  12.945   9.137  10.589
93479SOL    HW282212  12.849   9.238  10.530
93480SOL     OW82213   4.278   2.218  11.749
93480SOL    HW182214   4.282   2.296  11.693
93480SOL    HW282215   4.325   2.242  11.828
93481SOL     OW82216   7.996   2.483  13.221
93481SOL    HW182217   7.992   2.516  13.311
93481SOL    HW282218   8.029   2.557  13.170
93482SOL     OW82219   2.872  14.352  13.527
93482SOL    HW182220   2.839  14.275  13.481
93482SOL    HW282221   2.799  14.381  13.581
93483SOL     OW82222   5.050   4.868  13.624
93483SOL    HW182223   4.968   4.845  13.581
93483SOL    HW282224   5.053   4.813  13.702
93484SOL     OW82225  10.059  12.986   1.142
93484SOL    HW182226  10.102  12.938   1.072
93484SOL    HW282227   9.966  12.970   1.129
93485SOL     OW82228   6.388  14.120   6.298
93485SOL    HW182229   6.298  14.138   6.328
93485SOL    HW282230   6.434  14.092   6.378
93486SOL     OW82231   2.221   2.041   9.389
93486SOL    HW182232   2.310   2.058   9.420
93486SOL    HW282233   2.223   1.950   9.358
93487SOL     OW82234  10.726   8.339   8.144
93487SOL    HW182235  10.657   8.350   8.078
93487SOL    HW282236  10.803   8.312   8.094
93488SOL     OW82237   8.254   2.930  13.573
93488SOL    HW182238   8.199   2.852  13.566
93488SOL    HW282239   8.336   2.898  13.611
93489SOL     OW82240   3.907   9.053   0.093
93489SOL    HW182241   3.901   9.057  14.875
93489SOL    HW282242   3.895   9.144   0.121
93490SOL     OW82243  12.231   0.639   4.780
93490SOL    HW182244  12.229   0.625   4.874
93490SOL    HW282245  12.207   0.731   4.768
93491SOL     OW82246  14.685   4.394   6.859
93491SOL    HW182247  14.750   4.374   6.791
93491SOL    HW282248  14.638   4.471   6.825
93492SOL     OW82249  10.405  10.491   3.696
93492SOL    HW182250  10.385  10.461   3.608
93492SOL    HW282251  10.500  10.488   3.701
93493SOL     OW82252   5.478   2.551   9.373
93493SOL    HW182253   5.571   2.539   9.355
93493SOL    HW282254   5.437   2.550   9.287
93494SOL     OW82255  12.780  14.521   7.498
93494SOL    HW182256  12.775  14.505   7.404
93494SOL    HW282257  12.726  14.599   7.512
93495SOL     OW82258  12.128  12.841   1.446
93495SOL    HW182259  12.042  12.800   1.438
93495SOL    HW282260  12.175  12.812   1.368
93496SOL     OW82261   3.907   4.018   8.885
93496SOL    HW182262   3.914   4.042   8.793
93496SOL    HW282263   3.823   3.972   8.892
93497SOL     OW82264   8.632  12.249  11.114
93497SOL    HW182265   8.694  12.182  11.142
93497SOL    HW282266   8.547  12.204  11.114
93498SOL     OW82267   9.473   3.749   9.955
93498SOL    HW182268   9.415   3.825   9.948
93498SOL    HW282269   9.462   3.704   9.871
93499SOL     OW82270   0.213   9.952  10.562
93499SOL    HW182271   0.225   9.909  10.647
93499SOL    HW282272   0.285   9.917  10.508
93500SOL     OW82273   1.380   5.160  12.096
93500SOL    HW182274   1.337   5.231  12.047
93500SOL    HW282275   1.403   5.095  12.029
93501SOL     OW82276   4.127   6.722   7.657
93501SOL    HW182277   4.065   6.777   7.610
93501SOL    HW282278   4.075   6.682   7.727
93502SOL     OW82279   0.558   6.285   4.705
93502SOL    HW182280   0.483   6.270   4.763
93502SOL    HW282281   0.525   6.346   4.639
93503SOL     OW82282  11.429   4.067  11.851
93503SOL    HW182283  11.430   3.978  11.888
93503SOL    HW282284  11.472   4.121  11.918
93504SOL     OW82285  11.857   3.139   2.429
93504SOL    HW182286  11.840   3.047   2.447
93504SOL    HW282287  11.884   3.142   2.337
93505SOL     OW82288  12.930   7.986   2.254
93505SOL    HW182289  12.959   7.900   2.225
93505SOL    HW282290  12.903   7.973   2.345
93506SOL     OW82291  11.095   3.875   8.174
93506SOL    HW182292  11.055   3.801   8.219
93506SOL    HW282293  11.022   3.934   8.155
93507SOL     OW82294  11.979  14.527   7.915
93507SOL    HW182295  11.965  14.574   7.997
93507SOL    HW282296  12.005  14.439   7.943
93508SOL     OW82297   7.344  14.504  13.867
93508SOL    HW182298   7.313  14.594  13.874
93508SOL    HW282299   7.339  14.470  13.957
93509SOL     OW82300   8.475   1.620  13.934
93509SOL    HW182301   8.420   1.634  13.857
93509SOL    HW282302   8.421   1.649  14.008
93510SOL     OW82303   2.859  11.961  10.169
93510SOL    HW182304   2.846  12.048  10.130
93510SOL    HW282305   2.847  11.900  10.096
93511SOL     OW82306   2.830   9.818   6.658
93511SOL    HW182307   2.906   9.798   6.604
93511SOL    HW282308   2.759   9.831   6.596
93512SOL     OW82309  14.055   1.965   7.424
93512SOL    HW182310  14.062   2.047   7.473
93512SOL    HW282311  14.145   1.946   7.397
93513SOL     OW82312   0.763  13.098   1.917
93513SOL    HW182313   0.699  13.170   1.914
93513SOL    HW282314   0.796  13.092   1.828
93514SOL     OW82315  13.203   3.502  14.022
93514SOL    HW182316  13.194   3.479  14.114
93514SOL    HW282317  13.122   3.473  13.981
93515SOL     OW82318   1.411   5.158   0.889
93515SOL    HW182319   1.454   5.114   0.963
93515SOL    HW282320   1.467   5.137   0.814
93516SOL     OW82321  11.957   8.824  13.401
93516SOL    HW182322  11.984   8.846  13.312
93516SOL    HW282323  11.997   8.738  13.417
93517SOL     OW82324   4.589   0.741  11.377
93517SOL    HW182325   4.503   0.753  11.419
93517SOL    HW282326   4.569   0.699  11.294
93518SOL     OW82327   6.110   2.391   2.886
93518SOL    HW182328   6.059   2.447   2.828
93518SOL    HW282329   6.135   2.316   2.830
93519SOL     OW82330   4.678   8.165   8.842
93519SOL    HW182331   4.756   8.220   8.836
93519SOL    HW282332   4.674   8.120   8.758
93520SOL     OW82333  14.253   3.590  12.266
93520SOL    HW182334  14.193   3.515  12.269
93520SOL    HW282335  14.211   3.657  12.320
93521SOL     OW82336   2.372   4.278   9.755
93521SOL    HW182337   2.429   4.353   9.772
93521SOL    HW282338   2.286   4.306   9.785
93522SOL     OW82339   9.254   6.730   5.856
93522SOL    HW182340   9.270   6.752   5.947
93522SOL    HW282341   9.169   6.769   5.836
93523SOL     OW82342   7.853   7.186   7.376
93523SOL    HW182343   7.760   7.175   7.355
93523SOL    HW282344   7.871   7.279   7.359
93524SOL     OW82345   4.103   0.556   6.278
93524SOL    HW182346   4.136   0.471   6.248
93524SOL    HW282347   4.181   0.610   6.288
93525SOL     OW82348   2.120   4.751   1.198
93525SOL    HW182349   2.137   4.664   1.163
93525SOL    HW282350   2.128   4.809   1.122
93526SOL     OW82351   7.281   8.290   3.315
93526SOL    HW182352   7.189   8.306   3.295
93526SOL    HW282353   7.317   8.253   3.234
93527SOL     OW82354  10.558  11.052   0.518
93527SOL    HW182355  10.466  11.075   0.513
93527SOL    HW282356  10.569  10.984   0.452
93528SOL     OW82357  10.676   2.103  10.545
93528SOL    HW182358  10.736   2.156  10.597
93528SOL    HW282359  10.707   2.113  10.455
93529SOL     OW82360   3.624   7.269   7.405
93529SOL    HW182361   3.641   7.181   7.372
93529SOL    HW282362   3.701   7.320   7.378
93530SOL     OW82363  12.057  14.532  12.554
93530SOL    HW182364  11.976  14.490  12.526
93530SOL    HW282365  12.080  14.489  12.637
93531SOL     OW82366   1.643   9.545   4.402
93531SOL    HW182367   1.649   9.461   4.446
93531SOL    HW282368   1.560   9.543   4.356
93532SOL     OW82369  14.748  11.948   7.180
93532SOL    HW182370  14.725  11.919   7.269
93532SOL    HW282371  14.668  11.934   7.129
93533SOL     OW82372  12.113  14.590   7.571
93533SOL    HW182373  12.145  14.625   7.654
93533SOL    HW282374  12.069  14.508   7.596
93534SOL     OW82375   6.263   6.892  10.635
93534SOL    HW182376   6.303   6.918  10.718
93534SOL    HW282377   6.278   6.967  10.577
93535SOL     OW82378  12.485   4.812  14.025
93535SOL    HW182379  12.411   4.869  14.048
93535SOL    HW282380  12.545   4.869  13.977
93536SOL     OW82381   5.281   9.047   1.295
93536SOL    HW182382   5.314   9.112   1.233
93536SOL    HW282383   5.273   9.094   1.377
93537SOL     OW82384   8.400  14.326   0.129
93537SOL    HW182385   8.364  14.415   0.130
93537SOL    HW282386   8.357  14.284   0.054
93538SOL     OW82387  14.245  13.893  14.566
93538SOL    HW182388  14.274  13.936  14.646
93538SOL    HW282389  14.175  13.950  14.533
93539SOL     OW82390  13.028  14.049  13.776
93539SOL    HW182391  12.937  14.020  13.775
93539SOL    HW282392  13.027  14.129  13.828
93540SOL     OW82393  12.901   9.568   2.032
93540SOL    HW182394  12.879   9.479   2.003
93540SOL    HW282395  12.926   9.558   2.124
93541SOL     OW82396   5.024   9.348   0.034
93541SOL    HW182397   4.946   9.403   0.049
93541SOL    HW282398   5.049   9.367  14.821
93542SOL     OW82399  10.435  13.391   3.718
93542SOL    HW182400  10.400  13.305   3.740
93542SOL    HW282401  10.358  13.446   3.703
93543SOL     OW82402   0.556   5.110   6.786
93543SOL    HW182403   0.608   5.137   6.710
93543SOL    HW282404   0.468   5.093   6.751
93544SOL     OW82405  10.987   8.326   8.766
93544SOL    HW182406  10.948   8.262   8.708
93544SOL    HW282407  11.009   8.277   8.845
93545SOL     OW82408   4.822   2.167   1.468
93545SOL    HW182409   4.814   2.106   1.395
93545SOL    HW282410   4.825   2.253   1.426
93546SOL     OW82411   9.315  11.281  14.444
93546SOL    HW182412   9.346  11.316  14.361
93546SOL    HW282413   9.392  11.282  14.501
93547SOL     OW82414   6.195   8.043  12.043
93547SOL    HW182415   6.148   7.959  12.045
93547SOL    HW282416   6.279   8.023  12.003
93548SOL     OW82417  10.252   2.191  11.380
93548SOL    HW182418  10.326   2.131  11.382
93548SOL    HW282419  10.274   2.254  11.312
93549SOL     OW82420  12.282  10.758   2.046
93549SOL    HW182421  12.343  10.831   2.048
93549SOL    HW282422  12.196  10.798   2.061
93550SOL     OW82423  13.109   4.140  13.351
93550SOL    HW182424  13.083   4.053  13.322
93550SOL    HW282425  13.026   4.187  13.364
93551SOL     OW82426   7.008   8.666  13.294
93551SOL    HW182427   7.067   8.596  13.322
93551SOL    HW282428   6.959   8.628  13.221
93552SOL     OW82429  12.464   6.002   5.758
93552SOL    HW182430  12.514   5.931   5.718
93552SOL    HW282431  12.469   6.074   5.695
93553SOL     OW82432   1.044  13.347  13.856
93553SOL    HW182433   1.096  13.267  13.858
93553SOL    HW282434   0.969  13.326  13.801
93554SOL     OW82435   3.949  12.604  12.617
93554SOL    HW182436   4.015  12.541  12.587
93554SOL    HW282437   3.991  12.648  12.691
93555SOL     OW82438   4.025  14.212   2.896
93555SOL    HW182439   4.113  14.176   2.903
93555SOL    HW282440   4.003  14.241   2.984
93556SOL     OW82441  10.035   5.186   1.479
93556SOL    HW182442  10.052   5.092   1.491
93556SOL    HW282443  10.122   5.223   1.465
93557SOL     OW82444   0.892  10.669   3.415
93557SOL    HW182445   0.882  10.764   3.407
93557SOL    HW282446   0.984  10.656   3.439
93558SOL     OW82447  14.268  13.436   5.907
93558SOL    HW182448  14.289  13.501   5.840
93558SOL    HW282449  14.183  13.465   5.942
93559SOL     OW82450   5.722  14.760   1.741
93559SOL    HW182451   5.688  14.795   1.659
93559SOL    HW282452   5.665  14.798   1.809
93560SOL     OW82453   3.671   1.222   9.249
93560SOL    HW182454   3.703   1.226   9.339
93560SOL    HW282455   3.697   1.306   9.210
93561SOL     OW82456   1.908   3.749  12.125
93561SOL    HW182457   1.947   3.762  12.211
93561SOL    HW282458   1.839   3.816  12.120
93562SOL     OW82459  13.482   9.772   2.069
93562SOL    HW182460  13.524   9.808   2.147
93562SOL    HW282461  13.502   9.679   2.071
93563SOL     OW82462   9.509   6.846  14.870
93563SOL    HW182463   9.535   6.762   0.029
93563SOL    HW282464   9.417   6.834  14.845
93564SOL     OW82465   4.355   6.655   1.625
93564SOL    HW182466   4.263   6.631   1.638
93564SOL    HW282467   4.358   6.691   1.536
93565SOL     OW82468  11.428   5.226   7.235
93565SOL    HW182469  11.415   5.276   7.155
93565SOL    HW282470  11.344   5.183   7.251
93566SOL     OW82471   1.714  11.190   5.698
93566SOL    HW182472   1.787  11.155   5.648
93566SOL    HW282473   1.715  11.284   5.679
93567SOL     OW82474   2.313  10.043   8.229
93567SOL    HW182475   2.394  10.084   8.197
93567SOL    HW282476   2.295  10.085   8.313
93568SOL     OW82477  12.931  11.267  12.134
93568SOL    HW182478  12.990  11.191  12.134
93568SOL    HW282479  12.874  11.252  12.209
93569SOL     OW82480  13.911   0.568  11.123
93569SOL    HW182481  13.925   0.509  11.197
93569SOL    HW282482  13.826   0.609  11.141
93570SOL     OW82483  11.045  14.089   0.827
93570SOL    HW182484  10.976  14.058   0.885
93570SOL    HW282485  11.087  14.009   0.795
93571SOL     OW82486  10.859  11.919   8.641
93571SOL    HW182487  10.794  11.989   8.645
93571SOL    HW282488  10.876  11.908   8.547
93572SOL     OW82489  10.167   0.724   5.253
93572SOL    HW182490  10.234   0.713   5.186
93572SOL    HW282491  10.085   0.730   5.206
93573SOL     OW82492  13.785  11.077   0.030
93573SOL    HW182493  13.723  11.139   0.069
93573SOL    HW282494  13.852  11.132  14.868
93574SOL     OW82495   5.800   3.738   6.286
93574SOL    HW182496   5.839   3.825   6.294
93574SOL    HW282497   5.859   3.681   6.335
93575SOL     OW82498   0.350   4.667  10.542
93575SOL    HW182499   0.268   4.714  10.521
93575SOL    HW282500   0.321   4.580  10.570
93576SOL     OW82501  10.381  12.624   5.585
93576SOL    HW182502  10.373  12.719   5.577
93576SOL    HW282503  10.291  12.593   5.591
93577SOL     OW82504  12.999   8.008   8.962
93577SOL    HW182505  13.038   8.044   9.042
93577SOL    HW282506  13.009   8.078   8.897
93578SOL     OW82507   6.641   0.822   7.919
93578SOL    HW182508   6.634   0.917   7.920
93578SOL    HW282509   6.726   0.805   7.879
93579SOL     OW82510  10.051  13.167   5.061
93579SOL    HW182511  10.130  13.122   5.092
93579SOL    HW282512  10.053  13.252   5.106
93580SOL     OW82513   9.366   9.737   4.211
93580SOL    HW182514   9.318   9.799   4.156
93580SOL    HW282515   9.335   9.651   4.183
93581SOL     OW82516  12.660   2.251   6.128
93581SOL    HW182517  12.572   2.286   6.136
93581SOL    HW282518  12.714   2.309   6.182
93582SOL     OW82519  14.080  10.404   3.518
93582SOL    HW182520  14.065  10.475   3.455
93582SOL    HW282521  14.049  10.439   3.601
93583SOL     OW82522  10.678  14.648  11.723
93583SOL    HW182523  10.618  14.574  11.733
93583SOL    HW282524  10.740  14.620  11.655
93584SOL     OW82525   3.964   6.784  12.300
93584SOL    HW182526   4.048   6.742  12.279
93584SOL    HW282527   3.916   6.784  12.218
93585SOL     OW82528   5.129   3.395   2.879
93585SOL    HW182529   5.042   3.395   2.919
93585SOL    HW282530   5.113   3.397   2.785
93586SOL     OW82531   6.856   0.347   0.212
93586SOL    HW182532   6.778   0.404   0.210
93586SOL    HW282533   6.822   0.261   0.236
93587SOL     OW82534   2.955   6.203   1.698
93587SOL    HW182535   3.025   6.261   1.669
93587SOL    HW282536   2.896   6.258   1.748
93588SOL     OW82537   0.839   8.236   2.433
93588SOL    HW182538   0.748   8.237   2.459
93588SOL    HW282539   0.865   8.144   2.440
93589SOL     OW82540  11.930   3.524   9.541
93589SOL    HW182541  11.985   3.599   9.518
93589SOL    HW282542  11.923   3.529   9.637
93590SOL     OW82543   3.917   6.307   4.813
93590SOL    HW182544   3.832   6.266   4.803
93590SOL    HW282545   3.965   6.249   4.873
93591SOL     OW82546   8.954   8.783  13.407
93591SOL    HW182547   9.038   8.825  13.394
93591SOL    HW282548   8.943   8.725  13.331
93592SOL     OW82549   2.612  12.544   7.468
93592SOL    HW182550   2.680  12.574   7.408
93592SOL    HW282551   2.658  12.532   7.551
93593SOL     OW82552  14.183   1.314   5.491
93593SOL    HW182553  14.124   1.324   5.416
93593SOL    HW282554  14.267   1.287   5.452
93594SOL     OW82555  11.938   0.028   3.409
93594SOL    HW182556  12.024   0.009   3.372
93594SOL    HW282557  11.952   0.105   3.464
93595SOL     OW82558   6.468   8.525  13.649
93595SOL    HW182559   6.476   8.595  13.584
93595SOL    HW282560   6.375   8.521  13.670
93596SOL     OW82561  12.376   9.301  10.780
93596SOL    HW182562  12.345   9.211  10.780
93596SOL    HW282563  12.465   9.296  10.745
93597SOL     OW82564  11.098   2.840  13.971
93597SOL    HW182565  11.105   2.906  14.040
93597SOL    HW282566  11.188   2.825  13.943
93598SOL     OW82567   6.007   4.805  11.340
93598SOL    HW182568   6.042   4.844  11.420
93598SOL    HW282569   6.064   4.839  11.270
93599SOL     OW82570   9.481   1.739   6.987
93599SOL    HW182571   9.508   1.678   6.918
93599SOL    HW282572   9.476   1.824   6.944
93600SOL     OW82573   3.922   6.912   8.286
93600SOL    HW182574   3.847   6.969   8.269
93600SOL    HW282575   3.982   6.965   8.338
93601SOL     OW82576  13.201  12.505   0.339
93601SOL    HW182577  13.269  12.546   0.285
93601SOL    HW282578  13.128  12.566   0.336
93602SOL     OW82579   7.009  14.755  13.078
93602SOL    HW182580   7.050  14.677  13.040
93602SOL    HW282581   6.959  14.722  13.153
93603SOL     OW82582   8.526   9.623   7.736
93603SOL    HW182583   8.437   9.595   7.717
93603SOL    HW282584   8.516   9.714   7.766
93604SOL     OW82585  10.913   9.770   7.116
93604SOL    HW182586  10.872   9.726   7.191
93604SOL    HW282587  10.972   9.834   7.156
93605SOL     OW82588  12.218   9.422   1.338
93605SOL    HW182589  12.169   9.385   1.412
93605SOL    HW282590  12.255   9.503   1.371
93606SOL     OW82591   2.404  10.999   9.118
93606SOL    HW182592   2.477  10.966   9.171
93606SOL    HW282593   2.444  11.060   9.057
93607SOL     OW82594   3.164   5.530   9.492
93607SOL    HW182595   3.071   5.536   9.473
93607SOL    HW282596   3.201   5.613   9.461
93608SOL     OW82597   5.898  11.091  12.980
93608SOL    HW182598   5.978  11.043  13.004
93608SOL    HW282599   5.828  11.027  12.990
93609SOL     OW82600  12.229   3.683   7.553
93609SOL    HW182601  12.162   3.664   7.487
93609SOL    HW282602  12.300   3.621   7.534
93610SOL     OW82603  13.242   4.798  12.582
93610SOL    HW182604  13.260   4.718  12.532
93610SOL    HW282605  13.150   4.790  12.607
93611SOL     OW82606   1.134  13.299   5.417
93611SOL    HW182607   1.060  13.356   5.398
93611SOL    HW282608   1.094  13.219   5.453
93612SOL     OW82609   5.037   6.630   6.577
93612SOL    HW182610   5.120   6.665   6.545
93612SOL    HW282611   5.061   6.575   6.651
93613SOL     OW82612  14.604   5.248   1.343
93613SOL    HW182613  14.535   5.183   1.352
93613SOL    HW282614  14.685   5.201   1.364
93614SOL     OW82615  12.440   1.220   7.005
93614SOL    HW182616  12.529   1.238   6.974
93614SOL    HW282617  12.435   1.263   7.090
93615SOL     OW82618  14.716   1.831  14.404
93615SOL    HW182619  14.697   1.821  14.310
93615SOL    HW282620  14.706   1.925  14.420
93616SOL     OW82621   4.517  14.004  10.569
93616SOL    HW182622   4.529  14.098  10.560
93616SOL    HW282623   4.598  13.973  10.610
93617SOL     OW82624   0.097  13.080  10.667
93617SOL    HW182625   0.190  13.073  10.690
93617SOL    HW282626   0.051  13.039  10.741
93618SOL     OW82627  14.463   4.708   7.928
93618SOL    HW182628  14.413   4.676   8.004
93618SOL    HW282629  14.468   4.802   7.941
93619SOL     OW82630  12.544   7.833  10.375
93619SOL    HW182631  12.615   7.896  10.387
93619SOL    HW282632  12.531   7.795  10.462
93620SOL     OW82633   0.815   3.106  10.761
93620SOL    HW182634   0.724   3.083  10.741
93620SOL    HW282635   0.839   3.048  10.833
93621SOL     OW82636   5.273   8.770   7.868
93621SOL    HW182637   5.360   8.730   7.857
93621SOL    HW282638   5.212   8.702   7.837
93622SOL     OW82639   5.825  13.422   3.305
93622SOL    HW182640   5.762  13.396   3.372
93622SOL    HW282641   5.843  13.514   3.323
93623SOL     OW82642   8.596  11.806   0.127
93623SOL    HW182643   8.537  11.783   0.055
93623SOL    HW282644   8.586  11.901   0.137
93624SOL     OW82645   6.334   9.826  13.555
93624SOL    HW182646   6.343   9.917  13.528
93624SOL    HW282647   6.306   9.780  13.476
93625SOL     OW82648   3.246   1.592  11.078
93625SOL    HW182649   3.309   1.521  11.094
93625SOL    HW282650   3.299   1.663  11.041
93626SOL     OW82651   2.714   0.431   8.020
93626SOL    HW182652   2.740   0.339   8.026
93626SOL    HW282653   2.619   0.430   8.025
93627SOL     OW82654   1.621   5.216  13.832
93627SOL    HW182655   1.627   5.229  13.738
93627SOL    HW282656   1.586   5.127  13.842
93628SOL     OW82657  12.768   2.911   7.336
93628SOL    HW182658  12.808   2.902   7.250
93628SOL    HW282659  12.716   2.991   7.330
93629SOL     OW82660   4.531   5.579  13.014
93629SOL    HW182661   4.541   5.496  13.060
93629SOL    HW282662   4.616   5.592  12.971
93630SOL     OW82663  10.532  10.047   6.999
93630SOL    HW182664  10.562  10.104   7.069
93630SOL    HW282665  10.539   9.958   7.036
93631SOL     OW82666   0.813   9.233  14.465
93631SOL    HW182667   0.767   9.159  14.426
93631SOL    HW282668   0.778   9.309  14.419
93632SOL     OW82669  13.081   8.701   7.411
93632SOL    HW182670  13.012   8.741   7.465
93632SOL    HW282671  13.033   8.652   7.344
93633SOL     OW82672   1.911   7.333  13.237
93633SOL    HW182673   1.985   7.286  13.275
93633SOL    HW282674   1.900   7.295  13.150
93634SOL     OW82675  14.830  14.675   2.372
93634SOL    HW182676  14.861  14.733   2.442
93634SOL    HW282677  14.816  14.591   2.416
93635SOL     OW82678   8.482   2.244   6.959
93635SOL    HW182679   8.393   2.276   6.941
93635SOL    HW282680   8.474   2.149   6.953
93636SOL     OW82681   8.397   8.777  11.923
93636SOL    HW182682   8.333   8.742  11.862
93636SOL    HW282683   8.482   8.749  11.889
93637SOL     OW82684   8.634  13.333   1.376
93637SOL    HW182685   8.687  13.331   1.455
93637SOL    HW282686   8.598  13.422   1.373
93638SOL     OW82687  13.305   7.942   6.269
93638SOL    HW182688  13.316   8.035   6.247
93638SOL    HW282689  13.255   7.906   6.196
93639SOL     OW82690   0.070   1.386  11.439
93639SOL    HW182691   0.154   1.392  11.394
93639SOL    HW282692   0.049   1.477  11.462
93640SOL     OW82693  11.443  10.808   7.978
93640SOL    HW182694  11.508  10.806   8.049
93640SOL    HW282695  11.406  10.719   7.977
93641SOL     OW82696   9.415   9.314   7.031
93641SOL    HW182697   9.340   9.337   6.976
93641SOL    HW282698   9.380   9.312   7.120
93642SOL     OW82699   8.479   6.220  13.144
93642SOL    HW182700   8.448   6.130  13.155
93642SOL    HW282701   8.422   6.272  13.201
93643SOL     OW82702   3.858   3.572   0.933
93643SOL    HW182703   3.829   3.511   1.000
93643SOL    HW282704   3.778   3.595   0.886
93644SOL     OW82705   0.329   6.676   1.797
93644SOL    HW182706   0.345   6.582   1.792
93644SOL    HW282707   0.355   6.700   1.886
93645SOL     OW82708   6.993  11.292   5.309
93645SOL    HW182709   6.925  11.335   5.360
93645SOL    HW282710   6.990  11.336   5.224
93646SOL     OW82711   3.318   1.221  10.758
93646SOL    HW182712   3.401   1.178  10.777
93646SOL    HW282713   3.269   1.215  10.840
93647SOL     OW82714   3.360   9.773   9.383
93647SOL    HW182715   3.294   9.770   9.313
93647SOL    HW282716   3.337   9.852   9.433
93648SOL     OW82717   0.607   3.695   0.317
93648SOL    HW182718   0.571   3.691   0.405
93648SOL    HW282719   0.686   3.641   0.321
93649SOL     OW82720   5.279   4.531   7.041
93649SOL    HW182721   5.285   4.459   7.103
93649SOL    HW282722   5.258   4.608   7.095
93650SOL     OW82723  10.400  14.432   0.769
93650SOL    HW182724  10.347  14.497   0.815
93650SOL    HW282725  10.487  14.439   0.809
93651SOL     OW82726  14.371  14.163   6.751
93651SOL    HW182727  14.391  14.114   6.671
93651SOL    HW282728  14.445  14.221   6.764
93652SOL     OW82729   2.131  10.941  12.973
93652SOL    HW182730   2.211  10.906  12.934
93652SOL    HW282731   2.097  10.869  13.027
93653SOL     OW82732  13.283   8.667  10.089
93653SOL    HW182733  13.326   8.661  10.003
93653SOL    HW282734  13.209   8.726  10.073
93654SOL     OW82735   1.731   4.510   2.485
93654SOL    HW182736   1.659   4.540   2.429
93654SOL    HW282737   1.705   4.421   2.511
93655SOL     OW82738  13.962   7.023   8.221
93655SOL    HW182739  13.998   6.944   8.262
93655SOL    HW282740  13.964   7.089   8.290
93656SOL     OW82741  12.910   6.964  14.369
93656SOL    HW182742  12.983   6.984  14.309
93656SOL    HW282743  12.901   6.869  14.364
93657SOL     OW82744   4.041   5.739  12.607
93657SOL    HW182745   4.059   5.830  12.581
93657SOL    HW282746   4.120   5.712  12.653
93658SOL     OW82747  13.772   7.826   8.004
93658SOL    HW182748  13.818   7.753   8.045
93658SOL    HW282749  13.703   7.849   8.065
93659SOL     OW82750   9.833   5.819  11.484
93659SOL    HW182751   9.826   5.849  11.574
93659SOL    HW282752   9.770   5.873  11.436
93660SOL     OW82753   3.755  11.620   1.402
93660SOL    HW182754   3.719  11.702   1.438
93660SOL    HW282755   3.790  11.645   1.316
93661SOL     OW82756   5.463  11.760   1.669
93661SOL    HW182757   5.396  11.827   1.662
93661SOL    HW282758   5.415  11.682   1.698
93662SOL     OW82759   4.890   0.313  14.276
93662SOL    HW182760   4.965   0.364  14.246
93662SOL    HW282761   4.829   0.378  14.311
93663SOL     OW82762   9.675  11.727   0.617
93663SOL    HW182763   9.696  11.789   0.687
93663SOL    HW282764   9.659  11.783   0.540
93664SOL     OW82765  14.277  10.386   5.269
93664SOL    HW182766  14.298  10.474   5.238
93664SOL    HW282767  14.229  10.346   5.196
93665SOL     OW82768   0.668   9.180  12.580
93665SOL    HW182769   0.635   9.091  12.564
93665SOL    HW282770   0.651   9.196  12.673
93666SOL     OW82771   3.636   0.895   8.111
93666SOL    HW182772   3.595   0.865   8.030
93666SOL    HW282773   3.692   0.822   8.138
93667SOL     OW82774  13.720   8.388   7.372
93667SOL    HW182775  13.742   8.379   7.279
93667SOL    HW282776  13.805   8.383   7.417
93668SOL     OW82777  14.277   0.180  12.225
93668SOL    HW182778  14.214   0.138  12.285
93668SOL    HW282779  14.314   0.252  12.277
93669SOL     OW82780  10.594   6.813   3.545
93669SOL    HW182781  10.558   6.754   3.479
93669SOL    HW282782  10.529   6.815   3.615
93670SOL     OW82783   1.582   7.629   4.819
93670SOL    HW182784   1.585   7.614   4.913
93670SOL    HW282785   1.603   7.722   4.808
93671SOL     OW82786   1.903   5.546   4.428
93671SOL    HW182787   1.882   5.567   4.337
93671SOL    HW282788   1.890   5.451   4.434
93672SOL     OW82789  11.503   3.402   4.321
93672SOL    HW182790  11.528   3.402   4.413
93672SOL    HW282791  11.573   3.354   4.277
93673SOL     OW82792   0.252  14.520   9.318
93673SOL    HW182793   0.309  14.453   9.355
93673SOL    HW282794   0.299  14.554   9.242
93674SOL     OW82795   2.078   7.741   8.094
93674SOL    HW182796   2.073   7.696   8.009
93674SOL    HW282797   2.119   7.678   8.153
93675SOL     OW82798   4.420   7.647   7.463
93675SOL    HW182799   4.499   7.654   7.409
93675SOL    HW282800   4.429   7.718   7.527
93676SOL     OW82801   1.252   1.446   4.619
93676SOL    HW182802   1.158   1.445   4.601
93676SOL    HW282803   1.261   1.399   4.702
93677SOL     OW82804  13.982  13.878   9.332
93677SOL    HW182805  13.956  13.872   9.240
93677SOL    HW282806  13.947  13.963   9.362
93678SOL     OW82807   8.448   8.715   0.392
93678SOL    HW182808   8.377   8.754   0.443
93678SOL    HW282809   8.430   8.621   0.395
93679SOL     OW82810  11.870   4.076   7.192
93679SOL    HW182811  11.812   4.001   7.189
93679SOL    HW282812  11.862   4.116   7.105
93680SOL     OW82813   3.627   8.601   3.572
93680SOL    HW182814   3.708   8.577   3.528
93680SOL    HW282815   3.612   8.692   3.546
93681SOL     OW82816  13.504  11.463   1.067
93681SOL    HW182817  13.544  11.395   1.012
93681SOL    HW282818  13.462  11.522   1.004
93682SOL     OW82819   5.602   1.221  11.054
93682SOL    HW182820   5.669   1.287  11.039
93682SOL    HW282821   5.638   1.165  11.123
93683SOL     OW82822   0.550   3.591  14.274
93683SOL    HW182823   0.472   3.549  14.237
93683SOL    HW282824   0.575   3.656  14.209
93684SOL     OW82825   1.584   4.154   1.861
93684SOL    HW182826   1.647   4.094   1.820
93684SOL    HW282827   1.609   4.241   1.829
93685SOL     OW82828   5.906  11.776   5.351
93685SOL    HW182829   5.910  11.725   5.432
93685SOL    HW282830   5.813  11.785   5.332
93686SOL     OW82831  14.689  13.817  14.320
93686SOL    HW182832  14.658  13.900  14.285
93686SOL    HW282833  14.701  13.762  14.242
93687SOL     OW82834  12.412   8.440   2.599
93687SOL    HW182835  12.447   8.498   2.666
93687SOL    HW282836  12.369   8.370   2.648
93688SOL     OW82837   7.167   4.238  14.428
93688SOL    HW182838   7.100   4.283  14.377
93688SOL    HW282839   7.233   4.305  14.446
93689SOL     OW82840   1.837   3.467  13.247
93689SOL    HW182841   1.819   3.553  13.283
93689SOL    HW282842   1.898   3.484  13.174
93690SOL     OW82843   1.224  10.289  14.416
93690SOL    HW182844   1.247  10.237  14.493
93690SOL    HW282845   1.266  10.374  14.431
93691SOL     OW82846   8.444   9.160   0.791
93691SOL    HW182847   8.456   9.115   0.707
93691SOL    HW282848   8.476   9.249   0.775
93692SOL     OW82849  10.726   6.340   2.910
93692SOL    HW182850  10.736   6.298   2.995
93692SOL    HW282851  10.811   6.380   2.892
93693SOL     OW82852   8.793   1.450   3.666
93693SOL    HW182853   8.782   1.397   3.587
93693SOL    HW282854   8.842   1.393   3.726
93694SOL     OW82855   3.868   4.445   6.869
93694SOL    HW182856   3.901   4.519   6.817
93694SOL    HW282857   3.929   4.374   6.852
93695SOL     OW82858   7.781   3.869   5.843
93695SOL    HW182859   7.760   3.812   5.769
93695SOL    HW282860   7.851   3.825   5.890
93696SOL     OW82861   0.030   9.255   6.901
93696SOL    HW182862   0.113   9.248   6.949
93696SOL    HW282863  14.865   9.170   6.915
93697SOL     OW82864  13.560   7.344  12.927
93697SOL    HW182865  13.633   7.331  12.865
93697SOL    HW282866  13.536   7.255  12.954
93698SOL     OW82867   4.424   9.446  14.319
93698SOL    HW182868   4.427   9.384  14.392
93698SOL    HW282869   4.360   9.512  14.347
93699SOL     OW82870  11.539   1.317   5.045
93699SOL    HW182871  11.618   1.371   5.038
93699SOL    HW282872  11.561   1.236   4.998
93700SOL     OW82873   4.289   1.695   4.465
93700SOL    HW182874   4.195   1.702   4.478
93700SOL    HW282875   4.325   1.774   4.505
93701SOL     OW82876   6.498   5.667   3.399
93701SOL    HW182877   6.432   5.619   3.349
93701SOL    HW282878   6.450   5.702   3.474
93702SOL     OW82879   4.753  12.465   5.852
93702SOL    HW182880   4.674  12.514   5.829
93702SOL    HW282881   4.820  12.499   5.793
93703SOL     OW82882   7.477   3.530   6.675
93703SOL    HW182883   7.522   3.533   6.760
93703SOL    HW282884   7.531   3.584   6.618
93704SOL     OW82885  13.840  11.365   9.049
93704SOL    HW182886  13.932  11.343   9.034
93704SOL    HW282887  13.839  11.408   9.134
93705SOL     OW82888  13.695   6.195  10.574
93705SOL    HW182889  13.782   6.201  10.535
93705SOL    HW282890  13.710   6.199  10.669
93706SOL     OW82891  12.843  11.665   3.666
93706SOL    HW182892  12.904  11.694   3.734
93706SOL    HW282893  12.757  11.697   3.695
93707SOL     OW82894   4.790  14.182   5.515
93707SOL    HW182895   4.719  14.145   5.568
93707SOL    HW282896   4.864  14.122   5.527
93708SOL     OW82897  12.260   3.465  14.275
93708SOL    HW182898  12.312   3.545  14.282
93708SOL    HW282899  12.258   3.445  14.182
93709SOL     OW82900   2.870  10.391   7.765
93709SOL    HW182901   2.839  10.414   7.852
93709SOL    HW282902   2.799  10.420   7.707
93710SOL     OW82903   0.280   1.771   0.056
93710SOL    HW182904   0.216   1.774  14.863
93710SOL    HW282905   0.338   1.845   0.039
93711SOL     OW82906   2.828   9.756   0.084
93711SOL    HW182907   2.908   9.797   0.052
93711SOL    HW282908   2.767   9.760   0.010
93712SOL     OW82909  10.633   8.204  12.784
93712SOL    HW182910  10.623   8.126  12.729
93712SOL    HW282911  10.544   8.231  12.804
93713SOL     OW82912  13.908   9.422   1.413
93713SOL    HW182913  13.987   9.476   1.419
93713SOL    HW282914  13.887   9.401   1.504
93714SOL     OW82915   8.140   8.290  13.308
93714SOL    HW182916   8.203   8.357  13.334
93714SOL    HW282917   8.123   8.309  13.215
93715SOL     OW82918   7.515   2.838   5.144
93715SOL    HW182919   7.541   2.890   5.067
93715SOL    HW282920   7.595   2.793   5.171
93716SOL     OW82921   6.995   4.603  13.252
93716SOL    HW182922   7.028   4.554  13.177
93716SOL    HW282923   6.979   4.692  13.217
93717SOL     OW82924   8.589   9.942  13.982
93717SOL    HW182925   8.632   9.864  14.018
93717SOL    HW282926   8.598  10.008  14.051
93718SOL     OW82927   4.612   6.800  11.773
93718SOL    HW182928   4.701   6.798  11.737
93718SOL    HW282929   4.580   6.888  11.755
93719SOL     OW82930   5.306  11.606  12.948
93719SOL    HW182931   5.229  11.557  12.920
93719SOL    HW282932   5.349  11.631  12.866
93720SOL     OW82933   0.986   2.524   1.302
93720SOL    HW182934   1.077   2.515   1.331
93720SOL    HW282935   0.967   2.617   1.316
93721SOL     OW82936   3.628   7.070   0.585
93721SOL    HW182937   3.640   7.155   0.543
93721SOL    HW282938   3.637   7.088   0.679
93722SOL     OW82939  13.926   5.844  10.999
93722SOL    HW182940  13.920   5.753  11.030
93722SOL    HW282941  13.918   5.837  10.904
93723SOL     OW82942   7.010   7.486   8.525
93723SOL    HW182943   7.071   7.412   8.528
93723SOL    HW282944   6.960   7.471   8.445
93724SOL     OW82945   8.713  11.526   5.234
93724SOL    HW182946   8.753  11.476   5.162
93724SOL    HW282947   8.640  11.573   5.192
93725SOL     OW82948   8.211   1.851   3.556
93725SOL    HW182949   8.179   1.786   3.493
93725SOL    HW282950   8.132   1.890   3.593
93726SOL     OW82951  12.249  12.389   0.962
93726SOL    HW182952  12.261  12.481   0.939
93726SOL    HW282953  12.202  12.392   1.046
93727SOL     OW82954   8.433   2.467   5.470
93727SOL    HW182955   8.528   2.461   5.466
93727SOL    HW282956   8.415   2.551   5.511
93728SOL     OW82957  12.811   2.230   4.820
93728SOL    HW182958  12.718   2.237   4.838
93728SOL    HW282959  12.816   2.176   4.741
93729SOL     OW82960   1.159  11.711   0.907
93729SOL    HW182961   1.082  11.717   0.963
93729SOL    HW282962   1.231  11.743   0.962
93730SOL     OW82963   0.575  13.807   6.954
93730SOL    HW182964   0.629  13.820   6.876
93730SOL    HW282965   0.555  13.895   6.985
93731SOL     OW82966   7.481   8.648  11.040
93731SOL    HW182967   7.552   8.686  11.092
93731SOL    HW282968   7.473   8.558  11.072
93732SOL     OW82969   6.925   5.314   0.585
93732SOL    HW182970   6.943   5.264   0.505
93732SOL    HW282971   6.899   5.400   0.553
93733SOL     OW82972   7.742  11.694   8.263
93733SOL    HW182973   7.803  11.674   8.192
93733SOL    HW282974   7.774  11.643   8.337
93734SOL     OW82975   3.861   1.144   5.116
93734SOL    HW182976   3.786   1.087   5.104
93734SOL    HW282977   3.834   1.206   5.183
93735SOL     OW82978   2.887   9.369   4.368
93735SOL    HW182979   2.922   9.455   4.343
93735SOL    HW282980   2.885   9.371   4.464
93736SOL     OW82981   4.253   8.354  11.028
93736SOL    HW182982   4.311   8.361  11.104
93736SOL    HW282983   4.186   8.420  11.042
93737SOL     OW82984   5.346   0.630  13.837
93737SOL    HW182985   5.343   0.544  13.878
93737SOL    HW282986   5.408   0.620  13.765
93738SOL     OW82987  11.589   0.169   3.101
93738SOL    HW182988  11.497   0.155   3.080
93738SOL    HW282989  11.631   0.086   3.083
93739SOL     OW82990   5.325  12.402   8.518
93739SOL    HW182991   5.314  12.340   8.447
93739SOL    HW282992   5.407  12.375   8.561
93740SOL     OW82993  11.310   3.081  13.373
93740SOL    HW182994  11.218   3.055  13.377
93740SOL    HW282995  11.309   3.162  13.322
93741SOL     OW82996  13.170   5.453   1.559
93741SOL    HW182997  13.261   5.424   1.547
93741SOL    HW282998  13.160   5.526   1.498
93742SOL     OW82999  12.688  12.210   3.385
93742SOL    HW183000  12.697  12.128   3.434
93742SOL    HW283001  12.636  12.266   3.442
93743SOL     OW83002  13.956   0.414   1.257
93743SOL    HW183003  13.939   0.342   1.196
93743SOL    HW283004  14.047   0.402   1.283
93744SOL     OW83005  10.218   4.909  14.354
93744SOL    HW183006  10.266   4.838  14.398
93744SOL    HW283007  10.176   4.957  14.425
93745SOL     OW83008   1.692   1.801   2.712
93745SOL    HW183009   1.773   1.849   2.699
93745SOL    HW283010   1.630   1.866   2.746
93746SOL     OW83011   3.686   6.817   4.509
93746SOL    HW183012   3.686   6.723   4.524
93746SOL    HW283013   3.766   6.834   4.460
93747SOL     OW83014  10.270   7.991   7.168
93747SOL    HW183015  10.361   7.983   7.196
93747SOL    HW283016  10.219   7.983   7.249
93748SOL     OW83017  13.331   6.330   3.769
93748SOL    HW183018  13.322   6.249   3.820
93748SOL    HW283019  13.420   6.326   3.733
93749SOL     OW83020   3.200   0.281   3.836
93749SOL    HW183021   3.270   0.332   3.794
93749SOL    HW283022   3.214   0.294   3.929
93750SOL     OW83023   8.687   0.966   5.088
93750SOL    HW183024   8.699   1.058   5.110
93750SOL    HW283025   8.766   0.943   5.039
93751SOL     OW83026   9.650   3.102   1.344
93751SOL    HW183027   9.618   3.185   1.380
93751SOL    HW283028   9.744   3.115   1.335
93752SOL     OW83029   6.281  12.669  11.614
93752SOL    HW183030   6.288  12.652  11.520
93752SOL    HW283031   6.233  12.752  11.619
93753SOL     OW83032  14.595  14.804  14.581
93753SOL    HW183033  14.521  14.747  14.560
93753SOL    HW283034  14.556   0.006  14.615
93754SOL     OW83035   4.564   1.586  10.349
93754SOL    HW183036   4.563   1.582  10.254
93754SOL    HW283037   4.637   1.644  10.370
93755SOL     OW83038   2.366  10.761  11.091
93755SOL    HW183039   2.370  10.832  11.155
93755SOL    HW283040   2.392  10.683  11.141
93756SOL     OW83041   4.720   0.730  10.607
93756SOL    HW183042   4.711   0.818  10.571
93756SOL    HW283043   4.767   0.743  10.690
93757SOL     OW83044   9.646  10.335   3.625
93757SOL    HW183045   9.595  10.256   3.642
93757SOL    HW283046   9.706  10.310   3.554
93758SOL     OW83047   4.752   0.537   1.743
93758SOL    HW183048   4.713   0.625   1.746
93758SOL    HW283049   4.736   0.502   1.831
93759SOL     OW83050   6.905   6.819  10.017
93759SOL    HW183051   6.907   6.774   9.932
93759SOL    HW283052   6.994   6.849  10.031
93760SOL     OW83053   5.506  12.160   9.298
93760SOL    HW183054   5.490  12.112   9.216
93760SOL    HW283055   5.596  12.190   9.290
93761SOL     OW83056   8.414  10.525   6.894
93761SOL    HW183057   8.443  10.455   6.836
93761SOL    HW283058   8.473  10.521   6.969
93762SOL     OW83059   7.193   0.424  14.694
93762SOL    HW183060   7.155   0.411  14.781
93762SOL    HW283061   7.150   0.358  14.639
93763SOL     OW83062   0.309   7.167   0.952
93763SOL    HW183063   0.379   7.199   1.009
93763SOL    HW283064   0.344   7.088   0.912
93764SOL     OW83065  10.777   8.297  10.515
93764SOL    HW183066  10.762   8.388  10.542
93764SOL    HW283067  10.691   8.266  10.487
93765SOL     OW83068   9.168  10.981  13.433
93765SOL    HW183069   9.079  10.969  13.466
93765SOL    HW283070   9.162  11.052  13.370
93766SOL     OW83071  11.088  11.367   2.135
93766SOL    HW183072  11.016  11.322   2.179
93766SOL    HW283073  11.138  11.408   2.206
93767SOL     OW83074   3.231   6.425   6.372
93767SOL    HW183075   3.264   6.514   6.358
93767SOL    HW283076   3.209   6.394   6.284
93768SOL     OW83077  10.914  13.915  10.400
93768SOL    HW183078  10.994  13.969  10.396
93768SOL    HW283079  10.851  13.970  10.447
93769SOL     OW83080   0.479  12.731   9.314
93769SOL    HW183081   0.411  12.695   9.257
93769SOL    HW283082   0.533  12.655   9.337
93770SOL     OW83083   6.691  11.860   8.566
93770SOL    HW183084   6.645  11.897   8.491
93770SOL    HW283085   6.732  11.780   8.534
93771SOL     OW83086   8.800   8.333   1.832
93771SOL    HW183087   8.829   8.424   1.836
93771SOL    HW283088   8.733   8.326   1.900
93772SOL     OW83089   2.737  10.722  14.168
93772SOL    HW183090   2.739  10.632  14.137
93772SOL    HW283091   2.807  10.726  14.233
93773SOL     OW83092  13.361   9.681   5.875
93773SOL    HW183093  13.414   9.637   5.809
93773SOL    HW283094  13.363   9.622   5.950
93774SOL     OW83095  13.471   0.849   2.549
93774SOL    HW183096  13.506   0.798   2.477
93774SOL    HW283097  13.383   0.813   2.565
93775SOL     OW83098  12.025   8.038   2.745
93775SOL    HW183099  12.015   8.134   2.748
93775SOL    HW283100  11.939   8.007   2.716
93776SOL     OW83101   4.038   5.031   9.637
93776SOL    HW183102   4.056   4.951   9.686
93776SOL    HW283103   4.000   5.002   9.555
93777SOL     OW83104   7.625  11.379   8.885
93777SOL    HW183105   7.578  11.300   8.857
93777SOL    HW283106   7.605  11.387   8.978
93778SOL     OW83107   9.709   5.918   7.504
93778SOL    HW183108   9.782   5.885   7.557
93778SOL    HW283109   9.652   5.962   7.567
93779SOL     OW83110  11.866   0.116   0.768
93779SOL    HW183111  11.938   0.059   0.797
93779SOL    HW283112  11.816   0.061   0.708
93780SOL     OW83113  10.855  11.787  13.903
93780SOL    HW183114  10.877  11.756  13.815
93780SOL    HW283115  10.845  11.707  13.954
93781SOL     OW83116   0.696   4.362   7.355
93781SOL    HW183117   0.731   4.439   7.400
93781SOL    HW283118   0.630   4.328   7.415
93782SOL     OW83119   7.802   0.348   6.122
93782SOL    HW183120   7.867   0.372   6.188
93782SOL    HW283121   7.746   0.425   6.114
93783SOL     OW83122   2.596   8.473   8.094
93783SOL    HW183123   2.521   8.526   8.064
93783SOL    HW283124   2.559   8.417   8.163
93784SOL     OW83125  11.460   6.611  10.875
93784SOL    HW183126  11.504   6.661  10.945
93784SOL    HW283127  11.461   6.521  10.906
93785SOL     OW83128   3.328   0.322   6.694
93785SOL    HW183129   3.246   0.279   6.718
93785SOL    HW283130   3.333   0.313   6.598
93786SOL     OW83131  13.344   2.364  11.959
93786SOL    HW183132  13.299   2.380  12.042
93786SOL    HW283133  13.308   2.280  11.929
93787SOL     OW83134   6.540   2.941  14.137
93787SOL    HW183135   6.457   2.970  14.174
93787SOL    HW283136   6.606   2.965  14.202
93788SOL     OW83137  10.930  12.843   1.797
93788SOL    HW183138  10.846  12.798   1.810
93788SOL    HW283139  10.924  12.922   1.850
93789SOL     OW83140   0.006  13.633   5.894
93789SOL    HW183141   0.066  13.597   5.958
93789SOL    HW283142   0.051  13.710   5.859
93790SOL     OW83143   4.131   8.986   8.710
93790SOL    HW183144   4.222   8.957   8.715
93790SOL    HW283145   4.128   9.067   8.761
93791SOL     OW83146  11.101   9.533   5.892
93791SOL    HW183147  11.136   9.474   5.825
93791SOL    HW283148  11.175   9.587   5.918
93792SOL     OW83149  14.748   6.515  10.218
93792SOL    HW183150  14.653   6.514  10.222
93792SOL    HW283151  14.768   6.508  10.124
93793SOL     OW83152   8.241   6.002   7.312
93793SOL    HW183153   8.261   5.909   7.309
93793SOL    HW283154   8.319   6.042   7.349
93794SOL     OW83155   9.916   9.343  10.201
93794SOL    HW183156   9.980   9.282  10.236
93794SOL    HW283157   9.967   9.401  10.144
93795SOL     OW83158   4.338   6.833  11.213
93795SOL    HW183159   4.303   6.744  11.221
93795SOL    HW283160   4.273   6.880  11.161
93796SOL     OW83161  10.687   9.667   2.931
93796SOL    HW183162  10.757   9.699   2.989
93796SOL    HW283163  10.627   9.741   2.922
93797SOL     OW83164  13.705   3.515   8.111
93797SOL    HW183165  13.776   3.454   8.128
93797SOL    HW283166  13.666   3.484   8.029
93798SOL     OW83167   6.383  11.330  10.322
93798SOL    HW183168   6.379  11.297  10.412
93798SOL    HW283169   6.330  11.268  10.272
93799SOL     OW83170   8.090   7.511  12.083
93799SOL    HW183171   8.065   7.420  12.097
93799SOL    HW283172   8.173   7.506  12.035
93800SOL     OW83173   3.525   6.696   8.584
93800SOL    HW183174   3.494   6.731   8.667
93800SOL    HW283175   3.524   6.772   8.525
93801SOL     OW83176   8.328   1.316   9.396
93801SOL    HW183177   8.309   1.278   9.311
93801SOL    HW283178   8.263   1.278   9.455
93802SOL     OW83179   5.992  12.120   9.821
93802SOL    HW183180   5.920  12.058   9.830
93802SOL    HW283181   6.052  12.078   9.759
93803SOL     OW83182   1.405   3.605   6.973
93803SOL    HW183183   1.457   3.670   6.926
93803SOL    HW283184   1.327   3.652   7.002
93804SOL     OW83185  13.164   2.755   6.336
93804SOL    HW183186  13.139   2.826   6.277
93804SOL    HW283187  13.087   2.740   6.391
93805SOL     OW83188  13.717   4.416  12.408
93805SOL    HW183189  13.652   4.423  12.338
93805SOL    HW283190  13.801   4.409  12.363
93806SOL     OW83191   2.920   9.966   4.338
93806SOL    HW183192   2.863   9.947   4.264
93806SOL    HW283193   2.892   9.904   4.406
93807SOL     OW83194   3.273   7.742   9.229
93807SOL    HW183195   3.357   7.780   9.202
93807SOL    HW283196   3.291   7.704   9.315
93808SOL     OW83197  10.075   8.781   8.212
93808SOL    HW183198  10.038   8.692   8.205
93808SOL    HW283199  10.024   8.822   8.282
93809SOL     OW83200  14.846   3.102  11.918
93809SOL    HW183201  14.757   3.132  11.903
93809SOL    HW283202   0.023   3.175  11.890
93810SOL     OW83203   8.848  13.984   9.630
93810SOL    HW183204   8.786  13.939   9.687
93810SOL    HW283205   8.903  13.915   9.594
93811SOL     OW83206   3.150   5.936   5.794
93811SOL    HW183207   3.108   5.891   5.868
93811SOL    HW283208   3.082   5.996   5.762
93812SOL     OW83209   1.063   9.722   3.676
93812SOL    HW183210   1.014   9.762   3.604
93812SOL    HW283211   0.996   9.683   3.732
93813SOL     OW83212   2.457  10.299  11.215
93813SOL    HW183213   2.500  10.359  11.154
93813SOL    HW283214   2.486  10.328  11.301
93814SOL     OW83215  10.035   3.225   4.399
93814SOL    HW183216  10.091   3.301   4.415
93814SOL    HW283217   9.999   3.240   4.312
93815SOL     OW83218   1.435   1.730  12.583
93815SOL    HW183219   1.499   1.724  12.511
93815SOL    HW283220   1.480   1.690  12.657
93816SOL     OW83221  13.394  11.299   4.868
93816SOL    HW183222  13.350  11.228   4.822
93816SOL    HW283223  13.480  11.305   4.828
93817SOL     OW83224   1.299   7.260   8.113
93817SOL    HW183225   1.208   7.247   8.140
93817SOL    HW283226   1.339   7.308   8.185
93818SOL     OW83227   9.510   1.201   9.260
93818SOL    HW183228   9.426   1.218   9.217
93818SOL    HW283229   9.487   1.148   9.336
93819SOL     OW83230  10.963  10.583  10.386
93819SOL    HW183231  10.890  10.641  10.362
93819SOL    HW283232  10.920  10.505  10.422
93820SOL     OW83233   5.220   9.825   8.778
93820SOL    HW183234   5.248   9.901   8.828
93820SOL    HW283235   5.275   9.753   8.810
93821SOL     OW83236   2.382   2.207   4.028
93821SOL    HW183237   2.292   2.237   4.016
93821SOL    HW283238   2.431   2.285   4.054
93822SOL     OW83239   4.357   5.332  13.748
93822SOL    HW183240   4.388   5.313  13.837
93822SOL    HW283241   4.384   5.422  13.731
93823SOL     OW83242   6.857   8.038   0.637
93823SOL    HW183243   6.925   8.089   0.681
93823SOL    HW283244   6.775   8.072   0.673
93824SOL     OW83245   1.801  11.717   9.687
93824SOL    HW183246   1.799  11.623   9.705
93824SOL    HW283247   1.892  11.736   9.665
93825SOL     OW83248  10.494  10.585  13.845
93825SOL    HW183249  10.473  10.667  13.801
93825SOL    HW283250  10.525  10.527  13.776
93826SOL     OW83251   1.899  14.002   0.352
93826SOL    HW183252   1.810  14.038   0.358
93826SOL    HW283253   1.954  14.065   0.397
93827SOL     OW83254   6.574   8.150  11.811
93827SOL    HW183255   6.550   8.124  11.900
93827SOL    HW283256   6.493   8.140  11.761
93828SOL     OW83257  12.432   8.698   4.482
93828SOL    HW183258  12.392   8.733   4.403
93828SOL    HW283259  12.483   8.771   4.517
93829SOL     OW83260   5.007  10.388  13.002
93829SOL    HW183261   5.051  10.392  12.918
93829SOL    HW283262   5.066  10.337  13.058
93830SOL     OW83263   1.870   7.718   8.532
93830SOL    HW183264   1.815   7.741   8.456
93830SOL    HW283265   1.959   7.718   8.498
93831SOL     OW83266  14.591   4.512  14.384
93831SOL    HW183267  14.590   4.420  14.358
93831SOL    HW283268  14.506   4.547  14.356
93832SOL     OW83269  10.660  14.762   4.859
93832SOL    HW183270  10.673  14.729   4.948
93832SOL    HW283271  10.645  14.856   4.871
93833SOL     OW83272   7.642  14.330   1.772
93833SOL    HW183273   7.619  14.399   1.710
93833SOL    HW283274   7.614  14.364   1.857
93834SOL     OW83275   5.645   3.103   5.491
93834SOL    HW183276   5.702   3.056   5.430
93834SOL    HW283277   5.570   3.044   5.503
93835SOL     OW83278   4.517   8.402  14.811
93835SOL    HW183279   4.492   8.323  14.763
93835SOL    HW283280   4.464   8.471  14.772
93836SOL     OW83281   6.875   4.348   1.867
93836SOL    HW183282   6.817   4.381   1.799
93836SOL    HW283283   6.866   4.411   1.940
93837SOL     OW83284   3.037   8.640   4.867
93837SOL    HW183285   2.993   8.708   4.817
93837SOL    HW283286   3.106   8.608   4.809
93838SOL     OW83287   2.588  12.518   8.433
93838SOL    HW183288   2.533  12.597   8.432
93838SOL    HW283289   2.552  12.465   8.505
93839SOL     OW83290   3.173  11.402   1.332
93839SOL    HW183291   3.106  11.412   1.265
93839SOL    HW283292   3.245  11.457   1.303
93840SOL     OW83293   8.047   6.020   2.251
93840SOL    HW183294   8.110   5.980   2.192
93840SOL    HW283295   7.967   6.029   2.199
93841SOL     OW83296   9.152   5.766   8.867
93841SOL    HW183297   9.212   5.773   8.793
93841SOL    HW283298   9.134   5.672   8.874
93842SOL     OW83299  12.419   2.159  14.450
93842SOL    HW183300  12.419   2.251  14.423
93842SOL    HW283301  12.331   2.143  14.483
93843SOL     OW83302  12.281  11.739   6.425
93843SOL    HW183303  12.251  11.828   6.440
93843SOL    HW283304  12.369  11.736   6.462
93844SOL     OW83305   8.192  12.760   4.430
93844SOL    HW183306   8.161  12.680   4.471
93844SOL    HW283307   8.188  12.826   4.500
93845SOL     OW83308  14.869   1.426   0.937
93845SOL    HW183309  14.861   1.476   0.855
93845SOL    HW283310  14.848   1.490   1.006
93846SOL     OW83311  10.600   2.560   3.044
93846SOL    HW183312  10.533   2.493   3.028
93846SOL    HW283313  10.550   2.641   3.059
93847SOL     OW83314  13.491  13.040   8.415
93847SOL    HW183315  13.458  13.090   8.340
93847SOL    HW283316  13.429  12.969   8.426
93848SOL     OW83317   5.990   9.262   9.782
93848SOL    HW183318   5.961   9.353   9.779
93848SOL    HW283319   6.071   9.264   9.833
93849SOL     OW83320  10.334  10.027   3.239
93849SOL    HW183321  10.335  10.121   3.256
93849SOL    HW283322  10.348   9.986   3.325
93850SOL     OW83323  14.815   4.019   8.627
93850SOL    HW183324  14.788   4.088   8.566
93850SOL    HW283325  14.758   4.031   8.703
93851SOL     OW83326  14.866   4.386   6.645
93851SOL    HW183327   0.075   4.346   6.643
93851SOL    HW283328   0.005   4.480   6.651
93852SOL     OW83329   9.226  10.037   8.108
93852SOL    HW183330   9.235  10.110   8.169
93852SOL    HW283331   9.155   9.984   8.144
93853SOL     OW83332   1.982   8.968  10.251
93853SOL    HW183333   1.929   9.028  10.198
93853SOL    HW283334   1.931   8.887  10.254
93854SOL     OW83335  10.172   4.741  10.372
93854SOL    HW183336  10.121   4.678  10.320
93854SOL    HW283337  10.210   4.689  10.443
93855SOL     OW83338   1.652  10.288   5.219
93855SOL    HW183339   1.622  10.311   5.307
93855SOL    HW283340   1.604  10.208   5.198
93856SOL     OW83341  14.467   0.079   3.978
93856SOL    HW183342  14.557   0.073   3.948
93856SOL    HW283343  14.455   0.004   4.035
93857SOL     OW83344  14.322  11.142  10.737
93857SOL    HW183345  14.368  11.109  10.660
93857SOL    HW283346  14.346  11.235  10.742
93858SOL     OW83347   8.979   3.570  13.683
93858SOL    HW183348   9.045   3.580  13.615
93858SOL    HW283349   8.967   3.475  13.690
93859SOL     OW83350   6.344   9.750   0.169
93859SOL    HW183351   6.322   9.657   0.173
93859SOL    HW283352   6.434   9.754   0.202
93860SOL     OW83353   7.805   1.868   4.876
93860SOL    HW183354   7.715   1.899   4.883
93860SOL    HW283355   7.807   1.788   4.928
93861SOL     OW83356   2.414   0.906   0.566
93861SOL    HW183357   2.429   0.874   0.477
93861SOL    HW283358   2.426   0.829   0.621
93862SOL     OW83359   1.966  14.561  14.043
93862SOL    HW183360   1.999  14.531  14.127
93862SOL    HW283361   1.870  14.558  14.052
93863SOL     OW83362  14.102   3.666   2.081
93863SOL    HW183363  14.070   3.751   2.112
93863SOL    HW283364  14.162   3.637   2.150
93864SOL     OW83365   0.279  12.387   6.761
93864SOL    HW183366   0.233  12.329   6.701
93864SOL    HW283367   0.233  12.378   6.844
93865SOL     OW83368  14.058  12.342   7.017
93865SOL    HW183369  14.000  12.406   7.058
93865SOL    HW283370  14.144  12.385   7.013
93866SOL     OW83371  13.634   3.507  11.480
93866SOL    HW183372  13.587   3.587  11.457
93866SOL    HW283373  13.720   3.537  11.510
93867SOL     OW83374   4.638  14.414   2.153
93867SOL    HW183375   4.567  14.464   2.112
93867SOL    HW283376   4.601  14.385   2.237
93868SOL     OW83377   6.158  13.738  12.312
93868SOL    HW183378   6.120  13.689  12.385
93868SOL    HW283379   6.252  13.726  12.321
93869SOL     OW83380   2.328   7.452   4.115
93869SOL    HW183381   2.253   7.393   4.123
93869SOL    HW283382   2.404   7.394   4.112
93870SOL     OW83383   0.033  11.843   9.581
93870SOL    HW183384   0.100  11.775   9.585
93870SOL    HW283385   0.018  11.867   9.672
93871SOL     OW83386  11.624   4.382   4.906
93871SOL    HW183387  11.616   4.415   4.996
93871SOL    HW283388  11.552   4.424   4.859
93872SOL     OW83389  13.625   4.369  14.788
93872SOL    HW183390  13.690   4.352  14.719
93872SOL    HW283391  13.668   4.432  14.847
93873SOL     OW83392   3.239   8.180  14.673
93873SOL    HW183393   3.206   8.261  14.635
93873SOL    HW283394   3.293   8.209  14.747
93874SOL     OW83395  10.655  13.688   7.513
93874SOL    HW183396  10.638  13.714   7.604
93874SOL    HW283397  10.746  13.658   7.514
93875SOL     OW83398  12.733  12.308   5.735
93875SOL    HW183399  12.662  12.264   5.781
93875SOL    HW283400  12.744  12.391   5.781
93876SOL     OW83401   6.223  10.062  14.546
93876SOL    HW183402   6.275  10.010  14.608
93876SOL    HW283403   6.232  10.152  14.578
93877SOL     OW83404   3.773  14.657   2.450
93877SOL    HW183405   3.783  14.627   2.541
93877SOL    HW283406   3.679  14.666   2.438
93878SOL     OW83407   9.127   9.909  10.887
93878SOL    HW183408   9.059   9.855  10.846
93878SOL    HW283409   9.092   9.928  10.975
93879SOL     OW83410   0.127   8.043   9.898
93879SOL    HW183411   0.178   8.104   9.952
93879SOL    HW283412   0.157   7.956   9.925
93880SOL     OW83413   1.887   1.162   8.666
93880SOL    HW183414   1.973   1.154   8.707
93880SOL    HW283415   1.903   1.141   8.574
93881SOL     OW83416   7.854   0.999   1.704
93881SOL    HW183417   7.937   1.047   1.714
93881SOL    HW283418   7.787   1.060   1.733
93882SOL     OW83419   2.001   8.830   5.575
93882SOL    HW183420   2.028   8.832   5.667
93882SOL    HW283421   2.024   8.742   5.545
93883SOL     OW83422   8.878  10.761   8.022
93883SOL    HW183423   8.853  10.668   8.028
93883SOL    HW283424   8.803  10.803   7.980
93884SOL     OW83425   2.074   9.831   3.700
93884SOL    HW183426   2.052   9.924   3.709
93884SOL    HW283427   2.155   9.830   3.648
93885SOL     OW83428   8.240  11.414   8.233
93885SOL    HW183429   8.171  11.377   8.288
93885SOL    HW283430   8.306  11.345   8.228
93886SOL     OW83431   9.685   0.229   8.164
93886SOL    HW183432   9.649   0.208   8.250
93886SOL    HW283433   9.743   0.155   8.144
93887SOL     OW83434  13.820   9.348   6.316
93887SOL    HW183435  13.766   9.396   6.253
93887SOL    HW283436  13.865   9.282   6.264
93888SOL     OW83437  14.612   4.503  10.211
93888SOL    HW183438  14.679   4.530  10.273
93888SOL    HW283439  14.649   4.426  10.167
93889SOL     OW83440  10.852  12.121   4.800
93889SOL    HW183441  10.802  12.136   4.881
93889SOL    HW283442  10.942  12.108   4.830
93890SOL     OW83443   3.018   9.449   8.911
93890SOL    HW183444   2.923   9.448   8.917
93890SOL    HW283445   3.045   9.361   8.936
93891SOL     OW83446  11.685  13.098   3.087
93891SOL    HW183447  11.612  13.121   3.144
93891SOL    HW283448  11.763  13.112   3.141
93892SOL     OW83449   2.368   4.557   3.271
93892SOL    HW183450   2.279   4.584   3.293
93892SOL    HW283451   2.402   4.629   3.218
93893SOL     OW83452   2.526   2.856   7.214
93893SOL    HW183453   2.607   2.816   7.244
93893SOL    HW283454   2.540   2.950   7.224
93894SOL     OW83455   2.795   2.997   2.930
93894SOL    HW183456   2.853   2.962   2.863
93894SOL    HW283457   2.711   2.953   2.914
93895SOL     OW83458  12.427   7.588   7.708
93895SOL    HW183459  12.370   7.604   7.784
93895SOL    HW283460  12.503   7.645   7.723
93896SOL     OW83461  10.542  14.267  10.602
93896SOL    HW183462  10.567  14.282  10.511
93896SOL    HW283463  10.583  14.338  10.650
93897SOL     OW83464   3.418   3.477   4.920
93897SOL    HW183465   3.484   3.541   4.947
93897SOL    HW283466   3.342   3.496   4.975
93898SOL     OW83467  12.990   1.503   0.035
93898SOL    HW183468  12.970   1.594   0.058
93898SOL    HW283469  12.912   1.454   0.061
93899SOL     OW83470  10.506  14.164  14.350
93899SOL    HW183471  10.573  14.224  14.382
93899SOL    HW283472  10.456  14.140  14.428
93900SOL     OW83473  12.984   5.269   1.601
93900SOL    HW183474  12.959   5.250   1.511
93900SOL    HW283475  13.033   5.350   1.596
93901SOL     OW83476   2.795   7.994   2.179
93901SOL    HW183477   2.721   7.948   2.141
93901SOL    HW283478   2.844   8.028   2.104
93902SOL     OW83479   6.856  13.505  14.288
93902SOL    HW183480   6.765  13.482  14.271
93902SOL    HW283481   6.851  13.568  14.359
93903SOL     OW83482   2.244   9.640   6.815
93903SOL    HW183483   2.197   9.638   6.898
93903SOL    HW283484   2.249   9.548   6.788
93904SOL     OW83485  12.570   6.031  13.701
93904SOL    HW183486  12.584   5.982  13.620
93904SOL    HW283487  12.489   5.996  13.737
93905SOL     OW83488  12.961   0.812   3.377
93905SOL    HW183489  12.906   0.788   3.452
93905SOL    HW283490  12.986   0.728   3.338
93906SOL     OW83491  14.471   7.595   5.667
93906SOL    HW183492  14.446   7.533   5.599
93906SOL    HW283493  14.439   7.680   5.635
93907SOL     OW83494   2.103   3.374   3.977
93907SOL    HW183495   2.132   3.407   4.062
93907SOL    HW283496   2.050   3.297   3.999
93908SOL     OW83497   1.463   8.231  14.590
93908SOL    HW183498   1.556   8.246  14.569
93908SOL    HW283499   1.433   8.314  14.627
93909SOL     OW83500   7.361   5.607   8.434
93909SOL    HW183501   7.387   5.651   8.353
93909SOL    HW283502   7.390   5.517   8.423
93910SOL     OW83503   0.183   0.743   1.280
93910SOL    HW183504   0.152   0.832   1.298
93910SOL    HW283505   0.211   0.709   1.365
93911SOL     OW83506  12.897  12.469  11.867
93911SOL    HW183507  12.991  12.466  11.883
93911SOL    HW283508  12.858  12.425  11.943
93912SOL     OW83509   3.529   1.184  10.309
93912SOL    HW183510   3.516   1.253  10.244
93912SOL    HW283511   3.533   1.103  10.259
93913SOL     OW83512   8.410  10.978   9.785
93913SOL    HW183513   8.429  10.912   9.719
93913SOL    HW283514   8.343  11.034   9.745
93914SOL     OW83515   4.265  12.598   3.368
93914SOL    HW183516   4.201  12.670   3.371
93914SOL    HW283517   4.283  12.578   3.459
93915SOL     OW83518   6.508   1.815  11.619
93915SOL    HW183519   6.479   1.734  11.659
93915SOL    HW283520   6.488   1.883  11.684
93916SOL     OW83521   5.316   2.352   0.679
93916SOL    HW183522   5.347   2.358   0.769
93916SOL    HW283523   5.280   2.263   0.672
93917SOL     OW83524   4.975  11.731   5.986
93917SOL    HW183525   4.918  11.658   5.963
93917SOL    HW283526   4.918  11.808   5.982
93918SOL     OW83527   2.845   1.211   7.190
93918SOL    HW183528   2.773   1.179   7.137
93918SOL    HW283529   2.837   1.307   7.186
93919SOL     OW83530  13.443   5.567   5.837
93919SOL    HW183531  13.446   5.636   5.903
93919SOL    HW283532  13.534   5.548   5.817
93920SOL     OW83533   3.946  14.142  11.568
93920SOL    HW183534   4.016  14.080  11.548
93920SOL    HW283535   3.865  14.097  11.542
93921SOL     OW83536   6.570   2.515   9.312
93921SOL    HW183537   6.524   2.454   9.253
93921SOL    HW283538   6.645   2.464   9.344
93922SOL     OW83539   0.072  14.418   1.370
93922SOL    HW183540   0.083  14.334   1.324
93922SOL    HW283541  14.877  14.402   1.430
93923SOL     OW83542  13.401  14.291   3.049
93923SOL    HW183543  13.395  14.317   2.957
93923SOL    HW283544  13.401  14.196   3.047
93924SOL     OW83545   6.942   4.596   2.278
93924SOL    HW183546   6.858   4.579   2.320
93924SOL    HW283547   6.960   4.688   2.296
93925SOL     OW83548   5.451   0.822   6.243
93925SOL    HW183549   5.542   0.792   6.232
93925SOL    HW283550   5.458   0.916   6.256
93926SOL     OW83551   3.945   6.422   7.976
93926SOL    HW183552   3.922   6.466   7.895
93926SOL    HW283553   3.912   6.478   8.045
93927SOL     OW83554   4.704   3.352   7.403
93927SOL    HW183555   4.627   3.333   7.457
93927SOL    HW283556   4.668   3.370   7.316
93928SOL     OW83557   8.771  12.525   0.463
93928SOL    HW183558   8.739  12.614   0.477
93928SOL    HW283559   8.826  12.507   0.539
93929SOL     OW83560   7.043   8.106   4.290
93929SOL    HW183561   7.098   8.035   4.325
93929SOL    HW283562   7.102   8.182   4.287
93930SOL     OW83563  13.489   2.497   4.363
93930SOL    HW183564  13.484   2.578   4.313
93930SOL    HW283565  13.467   2.428   4.300
93931SOL     OW83566   8.928  10.377  10.560
93931SOL    HW183567   8.867  10.348  10.492
93931SOL    HW283568   8.872  10.413  10.629
93932SOL     OW83569  13.450  10.162  14.107
93932SOL    HW183570  13.430  10.250  14.136
93932SOL    HW283571  13.520  10.173  14.043
93933SOL     OW83572   7.917   9.775   5.778
93933SOL    HW183573   7.880   9.805   5.861
93933SOL    HW283574   7.905   9.680   5.780
93934SOL     OW83575   0.026  11.924  10.251
93934SOL    HW183576  14.843  11.853  10.268
93934SOL    HW283577   0.087  11.888  10.186
93935SOL     OW83578   7.850   2.756  11.951
93935SOL    HW183579   7.880   2.712  12.030
93935SOL    HW283580   7.798   2.689  11.906
93936SOL     OW83581  13.196  12.900   3.470
93936SOL    HW183582  13.292  12.893   3.464
93936SOL    HW283583  13.170  12.826   3.525
93937SOL     OW83584  10.152  10.232   0.999
93937SOL    HW183585  10.130  10.235   0.906
93937SOL    HW283586  10.094  10.296   1.040
93938SOL     OW83587   4.721  11.172   4.838
93938SOL    HW183588   4.795  11.121   4.873
93938SOL    HW283589   4.643  11.124   4.867
93939SOL     OW83590   9.743   8.235   1.187
93939SOL    HW183591   9.671   8.233   1.124
93939SOL    HW283592   9.822   8.221   1.135
93940SOL     OW83593   1.686   9.765   5.758
93940SOL    HW183594   1.747   9.806   5.820
93940SOL    HW283595   1.640   9.699   5.810
93941SOL     OW83596  10.356   7.387   4.972
93941SOL    HW183597  10.291   7.320   4.996
93941SOL    HW283598  10.336   7.461   5.028
93942SOL     OW83599  11.746  14.432  10.427
93942SOL    HW183600  11.711  14.447  10.339
93942SOL    HW283601  11.701  14.495  10.483
93943SOL     OW83602   8.732   5.433   9.645
93943SOL    HW183603   8.801   5.409   9.582
93943SOL    HW283604   8.684   5.503   9.601
93944SOL     OW83605   0.643   1.695   3.435
93944SOL    HW183606   0.580   1.725   3.500
93944SOL    HW283607   0.589   1.657   3.366
93945SOL     OW83608  11.205   0.628   7.305
93945SOL    HW183609  11.259   0.598   7.378
93945SOL    HW283610  11.120   0.647   7.343
93946SOL     OW83611  11.887   7.615   9.181
93946SOL    HW183612  11.806   7.582   9.219
93946SOL    HW283613  11.877   7.600   9.087
93947SOL     OW83614  11.295   9.158   6.979
93947SOL    HW183615  11.301   9.252   6.965
93947SOL    HW283616  11.241   9.126   6.906
93948SOL     OW83617   3.737   3.667  14.285
93948SOL    HW183618   3.656   3.715  14.298
93948SOL    HW283619   3.776   3.662  14.372
93949SOL     OW83620  12.390   6.759  10.195
93949SOL    HW183621  12.300   6.727  10.192
93949SOL    HW283622  12.382   6.851  10.217
93950SOL     OW83623   7.814   7.503  12.351
93950SOL    HW183624   7.742   7.558  12.322
93950SOL    HW283625   7.847   7.545  12.430
93951SOL     OW83626  11.881   8.655   4.394
93951SOL    HW183627  11.866   8.682   4.303
93951SOL    HW283628  11.927   8.571   4.387
93952SOL     OW83629   6.342  14.647   2.740
93952SOL    HW183630   6.357  14.628   2.648
93952SOL    HW283631   6.341  14.743   2.744
93953SOL     OW83632   5.172   4.658   0.890
93953SOL    HW183633   5.134   4.571   0.879
93953SOL    HW283634   5.136   4.709   0.817
93954SOL     OW83635  10.526   9.818   7.682
93954SOL    HW183636  10.536   9.734   7.637
93954SOL    HW283637  10.586   9.877   7.637
93955SOL     OW83638   2.476   6.434  14.716
93955SOL    HW183639   2.403   6.411  14.773
93955SOL    HW283640   2.540   6.474  14.774
93956SOL     OW83641  13.410  12.807   5.378
93956SOL    HW183642  13.449  12.761   5.452
93956SOL    HW283643  13.427  12.751   5.302
93957SOL     OW83644  11.855   0.506  12.711
93957SOL    HW183645  11.880   0.427  12.760
93957SOL    HW283646  11.826   0.473  12.626
93958SOL     OW83647   9.691   7.027  12.634
93958SOL    HW183648   9.784   7.052  12.639
93958SOL    HW283649   9.656   7.080  12.562
93959SOL     OW83650  14.699   0.334  12.646
93959SOL    HW183651  14.674   0.335  12.553
93959SOL    HW283652  14.621   0.364  12.692
93960SOL     OW83653   7.707   7.654  13.061
93960SOL    HW183654   7.791   7.693  13.038
93960SOL    HW283655   7.720   7.560  13.050
93961SOL     OW83656   4.285   1.495   0.064
93961SOL    HW183657   4.264   1.404   0.083
93961SOL    HW283658   4.278   1.540   0.148
93962SOL     OW83659  13.506  11.570   9.574
93962SOL    HW183660  13.598  11.563   9.598
93962SOL    HW283661  13.503  11.542   9.482
93963SOL     OW83662  10.552  14.155   3.101
93963SOL    HW183663  10.644  14.177   3.088
93963SOL    HW283664  10.553  14.066   3.134
93964SOL     OW83665   6.390   4.119   3.252
93964SOL    HW183666   6.441   4.083   3.324
93964SOL    HW283667   6.455   4.158   3.193
93965SOL     OW83668   4.734  13.455  12.210
93965SOL    HW183669   4.811  13.457  12.153
93965SOL    HW283670   4.760  13.505  12.287
93966SOL     OW83671   7.025  10.532  13.311
93966SOL    HW183672   6.953  10.585  13.276
93966SOL    HW283673   6.986  10.445  13.325
93967SOL     OW83674  14.494   8.594   5.359
93967SOL    HW183675  14.465   8.685   5.348
93967SOL    HW283676  14.440   8.561   5.430
93968SOL     OW83677  11.657   4.926  12.639
93968SOL    HW183678  11.564   4.945  12.650
93968SOL    HW283679  11.673   4.849  12.693
93969SOL     OW83680   5.365   3.500   2.740
93969SOL    HW183681   5.290   3.442   2.754
93969SOL    HW283682   5.427   3.478   2.809
93970SOL     OW83683   2.130  11.626   5.040
93970SOL    HW183684   2.093  11.538   5.036
93970SOL    HW283685   2.156  11.645   4.950
93971SOL     OW83686  13.738   7.429   2.547
93971SOL    HW183687  13.643   7.418   2.540
93971SOL    HW283688  13.759   7.403   2.636
93972SOL     OW83689   0.467   3.929   3.091
93972SOL    HW183690   0.533   3.995   3.069
93972SOL    HW283691   0.415   3.920   3.011
93973SOL     OW83692   0.324   8.484   9.838
93973SOL    HW183693   0.350   8.396   9.812
93973SOL    HW283694   0.407   8.529   9.855
93974SOL     OW83695  13.474   5.657  10.810
93974SOL    HW183696  13.439   5.628  10.726
93974SOL    HW283697  13.556   5.608  10.819
93975SOL     OW83698  10.011   2.120   3.600
93975SOL    HW183699   9.956   2.043   3.617
93975SOL    HW283700   9.987   2.149   3.512
93976SOL     OW83701   5.948   5.137   8.911
93976SOL    HW183702   5.971   5.138   9.004
93976SOL    HW283703   6.029   5.112   8.866
93977SOL     OW83704   6.100  12.962   7.442
93977SOL    HW183705   6.125  13.050   7.415
93977SOL    HW283706   6.007  12.956   7.421
93978SOL     OW83707   4.941   7.582  13.058
93978SOL    HW183708   5.019   7.619  13.100
93978SOL    HW283709   4.975   7.537  12.981
93979SOL     OW83710   9.749   7.695   2.713
93979SOL    HW183711   9.760   7.770   2.656
93979SOL    HW283712   9.837   7.673   2.742
93980SOL     OW83713   1.130   3.257  11.562
93980SOL    HW183714   1.076   3.335  11.550
93980SOL    HW283715   1.208   3.273  11.509
93981SOL     OW83716  13.425   2.756   8.778
93981SOL    HW183717  13.475   2.808   8.715
93981SOL    HW283718  13.491   2.701   8.820
93982SOL     OW83719   3.466   1.152   0.011
93982SOL    HW183720   3.452   1.245  14.871
93982SOL    HW283721   3.556   1.136  14.861
93983SOL     OW83722  12.298  14.722  12.079
93983SOL    HW183723  12.228  14.687  12.134
93983SOL    HW283724  12.374  14.727  12.137
93984SOL     OW83725   5.887   7.758   4.090
93984SOL    HW183726   5.924   7.802   4.013
93984SOL    HW283727   5.799   7.792   4.098
93985SOL     OW83728   5.092  14.367  11.538
93985SOL    HW183729   5.164  14.421  11.504
93985SOL    HW283730   5.076  14.302  11.470
93986SOL     OW83731   1.518   1.729   6.558
93986SOL    HW183732   1.523   1.804   6.498
93986SOL    HW283733   1.435   1.741   6.604
93987SOL     OW83734   2.343   2.706  14.205
93987SOL    HW183735   2.330   2.627  14.257
93987SOL    HW283736   2.325   2.778  14.265
93988SOL     OW83737  10.891   4.665  12.940
93988SOL    HW183738  10.852   4.651  12.853
93988SOL    HW283739  10.829   4.723  12.985
93989SOL     OW83740   1.238  10.520   8.664
93989SOL    HW183741   1.221  10.613   8.657
93989SOL    HW283742   1.163  10.485   8.712
93990SOL     OW83743  10.404   5.565   8.058
93990SOL    HW183744  10.365   5.632   8.115
93990SOL    HW283745  10.355   5.485   8.078
93991SOL     OW83746  10.627  10.522   9.731
93991SOL    HW183747  10.720  10.530   9.754
93991SOL    HW283748  10.628  10.486   9.643
93992SOL     OW83749   7.470   6.259   1.246
93992SOL    HW183750   7.498   6.349   1.258
93992SOL    HW283751   7.436   6.233   1.331
93993SOL     OW83752   6.078   9.152  14.273
93993SOL    HW183753   6.013   9.220  14.289
93993SOL    HW283754   6.071   9.093  14.347
93994SOL     OW83755   5.575   4.019  11.850
93994SOL    HW183756   5.629   4.047  11.923
93994SOL    HW283757   5.549   3.929  11.873
93995SOL     OW83758   8.109   2.733  13.917
93995SOL    HW183759   8.085   2.641  13.907
93995SOL    HW283760   8.068   2.760  14.000
93996SOL     OW83761   0.319  11.886  12.338
93996SOL    HW183762   0.408  11.914  12.317
93996SOL    HW283763   0.290  11.838  12.260
93997SOL     OW83764  13.459   5.750   8.843
93997SOL    HW183765  13.521   5.677   8.852
93997SOL    HW283766  13.450   5.762   8.748
93998SOL     OW83767   5.168  11.500  14.431
93998SOL    HW183768   5.142  11.590  14.411
93998SOL    HW283769   5.140  11.449  14.356
93999SOL     OW83770  12.940   6.407  14.158
93999SOL    HW183771  12.893   6.391  14.076
93999SOL    HW283772  13.032   6.405  14.134
94000SOL     OW83773   0.208  12.922   2.416
94000SOL    HW183774   0.191  13.015   2.406
94000SOL    HW283775   0.120  12.882   2.415
94001SOL     OW83776  11.501  10.139  11.281
94001SOL    HW183777  11.422  10.085  11.283
94001SOL    HW283778  11.573  10.075  11.277
94002SOL     OW83779   2.097   7.874  12.472
94002SOL    HW183780   2.030   7.808  12.460
94002SOL    HW283781   2.175   7.825  12.498
94003SOL     OW83782   4.345  12.793   9.082
94003SOL    HW183783   4.406  12.720   9.072
94003SOL    HW283784   4.396  12.862   9.124
94004SOL     OW83785  10.488  12.967   5.532
94004SOL    HW183786  10.552  12.920   5.586
94004SOL    HW283787  10.407  12.964   5.583
94005SOL     OW83788  10.634   3.735   8.716
94005SOL    HW183789  10.552   3.783   8.730
94005SOL    HW283790  10.675   3.733   8.803
94006SOL     OW83791   9.034  13.046   9.253
94006SOL    HW183792   9.072  13.109   9.192
94006SOL    HW283793   9.108  13.017   9.307
94007SOL     OW83794   4.685  10.859   0.398
94007SOL    HW183795   4.646  10.894   0.318
94007SOL    HW283796   4.730  10.933   0.438
94008SOL     OW83797   7.011   6.104   2.819
94008SOL    HW183798   7.034   6.013   2.802
94008SOL    HW283799   7.092   6.145   2.850
94009SOL     OW83800   2.719   1.511  13.434
94009SOL    HW183801   2.762   1.540  13.514
94009SOL    HW283802   2.625   1.516  13.454
94010SOL     OW83803  10.579  11.940   3.247
94010SOL    HW183804  10.521  11.951   3.172
94010SOL    HW283805  10.562  12.016   3.302
94011SOL     OW83806   3.168  13.496  14.220
94011SOL    HW183807   3.174  13.487  14.315
94011SOL    HW283808   3.143  13.587  14.205
94012SOL     OW83809   7.091   8.499  10.689
94012SOL    HW183810   7.120   8.446  10.763
94012SOL    HW283811   7.148   8.471  10.617
94013SOL     OW83812  11.208   9.176   4.516
94013SOL    HW183813  11.192   9.224   4.597
94013SOL    HW283814  11.161   9.094   4.528
94014SOL     OW83815  10.429  12.269   9.289
94014SOL    HW183816  10.517  12.251   9.256
94014SOL    HW283817  10.379  12.190   9.268
94015SOL     OW83818   3.566   0.010   2.331
94015SOL    HW183819   3.537  14.842   2.410
94015SOL    HW283820   3.489   0.014   2.276
94016SOL     OW83821   6.941  14.182  11.190
94016SOL    HW183822   6.882  14.192  11.115
94016SOL    HW283823   6.906  14.106  11.238
94017SOL     OW83824   5.973   0.847   7.429
94017SOL    HW183825   5.961   0.891   7.344
94017SOL    HW283826   5.996   0.757   7.406
94018SOL     OW83827   7.509   4.574  12.460
94018SOL    HW183828   7.525   4.648  12.518
94018SOL    HW283829   7.560   4.502  12.498
94019SOL     OW83830   2.572   1.714   7.116
94019SOL    HW183831   2.507   1.656   7.075
94019SOL    HW283832   2.520   1.786   7.151
94020SOL     OW83833  14.823  10.228  11.606
94020SOL    HW183834  14.800  10.311  11.564
94020SOL    HW283835   0.025  10.247  11.655
94021SOL     OW83836   3.498   0.239  13.027
94021SOL    HW183837   3.539   0.216  13.110
94021SOL    HW283838   3.560   0.298  12.984
94022SOL     OW83839  12.722   2.164  10.206
94022SOL    HW183840  12.811   2.138  10.229
94022SOL    HW283841  12.725   2.259  10.201
94023SOL     OW83842  10.912   4.505  10.685
94023SOL    HW183843  10.952   4.472  10.765
94023SOL    HW283844  10.977   4.489  10.617
94024SOL     OW83845  11.880   1.807  10.039
94024SOL    HW183846  11.914   1.841  10.122
94024SOL    HW283847  11.955   1.762   9.999
94025SOL     OW83848   7.936  11.778  10.239
94025SOL    HW183849   7.982  11.842  10.184
94025SOL    HW283850   7.845  11.782  10.209
94026SOL     OW83851   3.518   7.794  14.345
94026SOL    HW183852   3.457   7.834  14.408
94026SOL    HW283853   3.489   7.703  14.338
94027SOL     OW83854   1.421   2.581   6.315
94027SOL    HW183855   1.339   2.622   6.340
94027SOL    HW283856   1.451   2.630   6.239
94028SOL     OW83857   9.605   4.814   4.954
94028SOL    HW183858   9.623   4.744   5.017
94028SOL    HW283859   9.668   4.883   4.976
94029SOL     OW83860   1.968  14.167   8.240
94029SOL    HW183861   2.001  14.080   8.266
94029SOL    HW283862   2.015  14.228   8.298
94030SOL     OW83863   3.275  12.655   5.790
94030SOL    HW183864   3.190  12.694   5.771
94030SOL    HW283865   3.315  12.713   5.854
94031SOL     OW83866   0.168   7.505   2.073
94031SOL    HW183867   0.236   7.564   2.107
94031SOL    HW283868   0.140   7.546   1.991
94032SOL     OW83869   4.500   1.882  13.486
94032SOL    HW183870   4.552   1.956  13.453
94032SOL    HW283871   4.462   1.843  13.407
94033SOL     OW83872   3.675  10.312   0.945
94033SOL    HW183873   3.593  10.360   0.936
94033SOL    HW283874   3.710  10.307   0.856
94034SOL     OW83875   2.336  13.662   5.562
94034SOL    HW183876   2.243  13.647   5.578
94034SOL    HW283877   2.368  13.703   5.642
94035SOL     OW83878   1.135  13.527   2.126
94035SOL    HW183879   1.164  13.451   2.176
94035SOL    HW283880   1.066  13.493   2.068
94036SOL     OW83881  14.213  11.830   5.908
94036SOL    HW183882  14.121  11.810   5.896
94036SOL    HW283883  14.240  11.872   5.827
94037SOL     OW83884  13.766   5.307  10.959
94037SOL    HW183885  13.853   5.347  10.957
94037SOL    HW283886  13.717   5.359  11.024
94038SOL     OW83887   4.288   9.660   5.907
94038SOL    HW183888   4.333   9.735   5.947
94038SOL    HW283889   4.348   9.629   5.839
94039SOL     OW83890   3.793  11.578   4.385
94039SOL    HW183891   3.781  11.637   4.310
94039SOL    HW283892   3.865  11.521   4.359
94040SOL     OW83893   2.299  10.366   1.574
94040SOL    HW183894   2.206  10.389   1.574
94040SOL    HW283895   2.337  10.419   1.504
94041SOL     OW83896   6.765  12.735   9.634
94041SOL    HW183897   6.752  12.686   9.553
94041SOL    HW283898   6.771  12.827   9.606
94042SOL     OW83899   4.440   2.393   8.064
94042SOL    HW183900   4.397   2.432   7.987
94042SOL    HW283901   4.383   2.319   8.087
94043SOL     OW83902   6.286   8.813  10.395
94043SOL    HW183903   6.277   8.907  10.412
94043SOL    HW283904   6.286   8.806  10.299
94044SOL     OW83905   4.019   2.898  12.868
94044SOL    HW183906   3.928   2.875  12.848
94044SOL    HW283907   4.063   2.814  12.883
94045SOL     OW83908  14.836   4.503   9.137
94045SOL    HW183909  14.805   4.594   9.141
94045SOL    HW283910  14.791   4.466   9.061
94046SOL     OW83911  10.857  14.638  12.524
94046SOL    HW183912  10.830  14.633  12.432
94046SOL    HW283913  10.829  14.725  12.552
94047SOL     OW83914   6.140   1.691  10.407
94047SOL    HW183915   6.120   1.605  10.444
94047SOL    HW283916   6.229   1.682  10.374
94048SOL     OW83917   4.463   8.389   8.517
94048SOL    HW183918   4.553   8.419   8.524
94048SOL    HW283919   4.467   8.296   8.538
94049SOL     OW83920   5.149   4.127   4.973
94049SOL    HW183921   5.073   4.076   4.943
94049SOL    HW283922   5.214   4.061   4.998
94050SOL     OW83923   1.680  11.554   7.001
94050SOL    HW183924   1.693  11.551   6.906
94050SOL    HW283925   1.728  11.632   7.029
94051SOL     OW83926   2.978  13.185  14.320
94051SOL    HW183927   2.953  13.093  14.316
94051SOL    HW283928   2.993  13.201  14.413
94052SOL     OW83929  13.419   3.893   4.633
94052SOL    HW183930  13.373   3.947   4.569
94052SOL    HW283931  13.363   3.895   4.710
94053SOL     OW83932  10.791  11.837   7.982
94053SOL    HW183933  10.700  11.807   7.980
94053SOL    HW283934  10.841  11.758   8.003
94054SOL     OW83935   0.738   6.926  12.268
94054SOL    HW183936   0.803   6.874  12.222
94054SOL    HW283937   0.687   6.863  12.318
94055SOL     OW83938   6.322  13.404   4.664
94055SOL    HW183939   6.342  13.487   4.707
94055SOL    HW283940   6.406  13.358   4.660
94056SOL     OW83941   3.034  13.119   8.712
94056SOL    HW183942   3.106  13.180   8.728
94056SOL    HW283943   3.056  13.042   8.764
94057SOL     OW83944   1.679  10.729   8.810
94057SOL    HW183945   1.729  10.722   8.891
94057SOL    HW283946   1.606  10.787   8.831
94058SOL     OW83947   0.593   2.190   2.570
94058SOL    HW183948   0.533   2.240   2.514
94058SOL    HW283949   0.536   2.135   2.623
94059SOL     OW83950   1.411   3.386   8.955
94059SOL    HW183951   1.493   3.359   8.996
94059SOL    HW283952   1.365   3.434   9.024
94060SOL     OW83953   8.366  14.133   8.316
94060SOL    HW183954   8.438  14.070   8.317
94060SOL    HW283955   8.393  14.201   8.377
94061SOL     OW83956   3.168   6.064   4.116
94061SOL    HW183957   3.225   6.064   4.193
94061SOL    HW283958   3.200   6.138   4.063
94062SOL     OW83959  12.182   1.956   8.632
94062SOL    HW183960  12.092   1.980   8.611
94062SOL    HW283961  12.235   1.990   8.560
94063SOL     OW83962   8.405   4.222   8.463
94063SOL    HW183963   8.331   4.226   8.402
94063SOL    HW283964   8.399   4.136   8.503
94064SOL     OW83965  10.745   4.427   7.443
94064SOL    HW183966  10.768   4.449   7.533
94064SOL    HW283967  10.654   4.397   7.447
94065SOL     OW83968  10.034   8.782   1.041
94065SOL    HW183969  10.015   8.754   1.130
94065SOL    HW283970  10.087   8.711   1.004
94066SOL     OW83971   2.765   8.739   3.013
94066SOL    HW183972   2.854   8.736   3.049
94066SOL    HW283973   2.771   8.694   2.929
94067SOL     OW83974   0.550   6.921  14.047
94067SOL    HW183975   0.599   6.925  14.130
94067SOL    HW283976   0.467   6.966  14.066
94068SOL     OW83977   9.060   2.036  10.554
94068SOL    HW183978   9.019   2.103  10.500
94068SOL    HW283979   9.123   2.083  10.608
94069SOL     OW83980   0.115   4.588  12.246
94069SOL    HW183981   0.062   4.523  12.292
94069SOL    HW283982   0.064   4.609  12.167
94070SOL     OW83983  14.100   9.679   8.397
94070SOL    HW183984  14.082   9.620   8.469
94070SOL    HW283985  14.065   9.763   8.426
94071SOL     OW83986  12.373  13.466   3.223
94071SOL    HW183987  12.368  13.561   3.217
94071SOL    HW283988  12.459  13.448   3.260
94072SOL     OW83989   7.106   8.696   7.436
94072SOL    HW183990   7.166   8.633   7.474
94072SOL    HW283991   7.056   8.730   7.510
94073SOL     OW83992   7.465  11.963  10.389
94073SOL    HW183993   7.404  12.030  10.422
94073SOL    HW283994   7.552  11.996  10.414
94074SOL     OW83995   3.569   3.822   2.700
94074SOL    HW183996   3.522   3.854   2.778
94074SOL    HW283997   3.501   3.785   2.644
94075SOL     OW83998  11.557   6.213  14.674
94075SOL    HW183999  11.494   6.260  14.730
94075SOL    HW284000  11.591   6.144  14.731
94076SOL     OW84001   3.448  11.677   2.956
94076SOL    HW184002   3.401  11.691   2.873
94076SOL    HW284003   3.540  11.674   2.931
94077SOL     OW84004   9.409   4.790  11.427
94077SOL    HW184005   9.485   4.841  11.455
94077SOL    HW284006   9.346   4.856  11.397
94078SOL     OW84007  13.285  13.947   1.076
94078SOL    HW184008  13.266  13.965   0.984
94078SOL    HW284009  13.219  13.997   1.125
94079SOL     OW84010   1.723   6.348   4.989
94079SOL    HW184011   1.772   6.338   4.907
94079SOL    HW284012   1.640   6.388   4.962
94080SOL     OW84013   6.313   0.528  13.646
94080SOL    HW184014   6.268   0.580  13.714
94080SOL    HW284015   6.298   0.577  13.565
94081SOL     OW84016   3.495   3.058   0.791
94081SOL    HW184017   3.468   3.047   0.700
94081SOL    HW284018   3.586   3.027   0.794
94082SOL     OW84019   6.473   9.606   7.674
94082SOL    HW184020   6.478   9.668   7.746
94082SOL    HW284021   6.534   9.536   7.699
94083SOL     OW84022   1.999   1.737  12.351
94083SOL    HW184023   1.943   1.691  12.288
94083SOL    HW284024   2.059   1.670  12.383
94084SOL     OW84025   5.578  12.125   9.716
94084SOL    HW184026   5.636  12.105   9.789
94084SOL    HW284027   5.490  12.104   9.748
94085SOL     OW84028   2.561   8.741  10.923
94085SOL    HW184029   2.474   8.741  10.964
94085SOL    HW284030   2.621   8.726  10.995
94086SOL     OW84031  10.703   1.606   3.753
94086SOL    HW184032  10.671   1.526   3.794
94086SOL    HW284033  10.724   1.664   3.826
94087SOL     OW84034   2.667   2.495   2.550
94087SOL    HW184035   2.679   2.590   2.541
94087SOL    HW284036   2.670   2.462   2.460
94088SOL     OW84037  14.380  12.881   3.553
94088SOL    HW184038  14.288  12.892   3.529
94088SOL    HW284039  14.392  12.786   3.560
94089SOL     OW84040   0.795   4.251   0.618
94089SOL    HW184041   0.844   4.326   0.583
94089SOL    HW284042   0.744   4.220   0.544
94090SOL     OW84043  13.123  10.997  12.106
94090SOL    HW184044  13.142  11.015  12.014
94090SOL    HW284045  13.183  11.055  12.154
94091SOL     OW84046  14.806   3.376  11.425
94091SOL    HW184047  14.717   3.383  11.458
94091SOL    HW284048  14.850   3.319  11.488
94092SOL     OW84049  13.377  13.277   6.804
94092SOL    HW184050  13.421  13.267   6.889
94092SOL    HW284051  13.386  13.369   6.783
94093SOL     OW84052   6.363   8.425   2.558
94093SOL    HW184053   6.370   8.516   2.586
94093SOL    HW284054   6.341   8.431   2.465
94094SOL     OW84055   1.430   8.282  12.477
94094SOL    HW184056   1.410   8.275  12.384
94094SOL    HW284057   1.508   8.228  12.490
94095SOL     OW84058  11.705   7.030   6.976
94095SOL    HW184059  11.713   7.025   7.071
94095SOL    HW284060  11.621   7.075   6.962
94096SOL     OW84061  14.293  13.991   4.536
94096SOL    HW184062  14.319  14.010   4.626
94096SOL    HW284063  14.241  13.911   4.542
94097SOL     OW84064   3.574   1.097  10.803
94097SOL    HW184065   3.660   1.138  10.809
94097SOL    HW284066   3.567   1.068  10.712
94098SOL     OW84067  13.660  12.286   8.799
94098SOL    HW184068  13.738  12.289   8.744
94098SOL    HW284069  13.633  12.378   8.807
94099SOL     OW84070   1.545   2.208  11.144
94099SOL    HW184071   1.537   2.293  11.100
94099SOL    HW284072   1.636   2.182  11.128
94100SOL     OW84073   9.180   7.800   6.301
94100SOL    HW184074   9.144   7.887   6.318
94100SOL    HW284075   9.136   7.743   6.363
94101SOL     OW84076  10.740  14.343  14.332
94101SOL    HW184077  10.776  14.304  14.252
94101SOL    HW284078  10.703  14.427  14.303
94102SOL     OW84079   2.868   8.334   4.755
94102SOL    HW184080   2.887   8.405   4.693
94102SOL    HW284081   2.930   8.264   4.731
94103SOL     OW84082  13.942   7.532  12.688
94103SOL    HW184083  13.954   7.448  12.732
94103SOL    HW284084  13.965   7.515  12.596
94104SOL     OW84085  10.468   9.863   3.413
94104SOL    HW184086  10.506   9.886   3.497
94104SOL    HW284087  10.385   9.820   3.435
94105SOL     OW84088   0.555   7.440   6.267
94105SOL    HW184089   0.525   7.501   6.334
94105SOL    HW284090   0.596   7.495   6.201
94106SOL     OW84091   1.654  10.675  10.587
94106SOL    HW184092   1.682  10.750  10.639
94106SOL    HW284093   1.560  10.668  10.605
94107SOL     OW84094   0.844   7.696   3.694
94107SOL    HW184095   0.839   7.791   3.690
94107SOL    HW284096   0.764   7.670   3.741
94108SOL     OW84097   7.326   0.959   9.351
94108SOL    HW184098   7.362   0.954   9.440
94108SOL    HW284099   7.261   1.029   9.356
94109SOL     OW84100   0.224   6.698   7.367
94109SOL    HW184101   0.314   6.667   7.366
94109SOL    HW284102   0.194   6.690   7.277
94110SOL     OW84103   8.937   9.841   7.713
94110SOL    HW184104   8.972   9.776   7.773
94110SOL    HW284105   8.869   9.795   7.663
94111SOL     OW84106  10.931   7.667   0.069
94111SOL    HW184107  10.876   7.726   0.017
94111SOL    HW284108  10.922   7.582   0.026
94112SOL     OW84109   9.466   3.926  10.436
94112SOL    HW184110   9.420   3.864  10.380
94112SOL    HW284111   9.420   4.009  10.422
94113SOL     OW84112  12.732  14.285  10.670
94113SOL    HW184113  12.759  14.193  10.672
94113SOL    HW284114  12.751  14.314  10.581
94114SOL     OW84115  10.754   6.418  12.111
94114SOL    HW184116  10.666   6.435  12.078
94114SOL    HW284117  10.741   6.381  12.198
94115SOL     OW84118  13.863   2.918   9.167
94115SOL    HW184119  13.920   2.847   9.198
94115SOL    HW284120  13.836   2.889   9.079
94116SOL     OW84121   0.178   6.540  14.365
94116SOL    HW184122   0.155   6.578  14.450
94116SOL    HW284123   0.271   6.520  14.371
94117SOL     OW84124   2.824   7.161   9.233
94117SOL    HW184125   2.760   7.158   9.303
94117SOL    HW284126   2.827   7.253   9.206
94118SOL     OW84127  13.252   7.680   3.906
94118SOL    HW184128  13.235   7.621   3.832
94118SOL    HW284129  13.243   7.625   3.983
94119SOL     OW84130  10.785   4.090   1.859
94119SOL    HW184131  10.777   4.153   1.931
94119SOL    HW284132  10.787   4.144   1.780
94120SOL     OW84133   5.943  14.868   8.692
94120SOL    HW184134   6.020  14.811   8.699
94120SOL    HW284135   5.942   0.017   8.600
94121SOL     OW84136  12.327   7.800   2.085
94121SOL    HW184137  12.281   7.830   2.164
94121SOL    HW284138  12.336   7.879   2.032
94122SOL     OW84139   7.063  10.135   2.075
94122SOL    HW184140   7.004  10.093   2.012
94122SOL    HW284141   7.065  10.073   2.149
94123SOL     OW84142   0.430  10.995   5.675
94123SOL    HW184143   0.520  10.975   5.702
94123SOL    HW284144   0.375  10.964   5.746
94124SOL     OW84145   4.495  13.303   7.858
94124SOL    HW184146   4.583  13.267   7.861
94124SOL    HW284147   4.441  13.241   7.906
94125SOL     OW84148  10.852  12.394  14.271
94125SOL    HW184149  10.948  12.394  14.268
94125SOL    HW284150  10.825  12.419  14.182
94126SOL     OW84151   1.635   1.276   9.089
94126SOL    HW184152   1.600   1.365   9.101
94126SOL    HW284153   1.581   1.221   9.145
94127SOL     OW84154   8.106  14.116  10.117
94127SOL    HW184155   8.080  14.044  10.060
94127SOL    HW284156   8.189  14.089  10.155
94128SOL     OW84157   3.497   7.163   5.782
94128SOL    HW184158   3.412   7.154   5.740
94128SOL    HW284159   3.477   7.175   5.875
94129SOL     OW84160   4.130   8.555   3.300
94129SOL    HW184161   4.120   8.564   3.206
94129SOL    HW284162   4.209   8.606   3.320
94130SOL     OW84163   0.865   4.981  12.843
94130SOL    HW184164   0.828   5.056  12.890
94130SOL    HW284165   0.862   4.909  12.906
94131SOL     OW84166  12.271  10.061   7.147
94131SOL    HW184167  12.207  10.131   7.138
94131SOL    HW284168  12.346  10.091   7.096
94132SOL     OW84169   5.975   6.052  14.597
94132SOL    HW184170   6.023   6.073  14.677
94132SOL    HW284171   5.888   6.027  14.628
94133SOL     OW84172   2.126   5.626  12.035
94133SOL    HW184173   2.201   5.639  12.094
94133SOL    HW284174   2.149   5.677  11.957
94134SOL     OW84175   8.303   3.901  13.575
94134SOL    HW184176   8.317   3.840  13.647
94134SOL    HW284177   8.367   3.971  13.591
94135SOL     OW84178   4.863  14.461   1.318
94135SOL    HW184179   4.884  14.457   1.225
94135SOL    HW284180   4.942  14.497   1.359
94136SOL     OW84181   9.699   1.094   2.643
94136SOL    HW184182   9.732   1.175   2.604
94136SOL    HW284183   9.642   1.122   2.714
94137SOL     OW84184   0.757   7.504  13.975
94137SOL    HW184185   0.757   7.594  13.944
94137SOL    HW284186   0.733   7.509  14.067
94138SOL     OW84187   2.495  11.421  11.259
94138SOL    HW184188   2.531  11.467  11.335
94138SOL    HW284189   2.569  11.371  11.224
94139SOL     OW84190   2.764  10.065   4.772
94139SOL    HW184191   2.829  10.135   4.775
94139SOL    HW284192   2.714  10.081   4.692
94140SOL     OW84193  11.954   8.554   7.779
94140SOL    HW184194  11.933   8.596   7.695
94140SOL    HW284195  11.992   8.470   7.754
94141SOL     OW84196  13.623   0.214   9.847
94141SOL    HW184197  13.604   0.290   9.903
94141SOL    HW284198  13.665   0.151   9.906
94142SOL     OW84199   0.180   8.978   5.869
94142SOL    HW184200   0.275   8.977   5.885
94142SOL    HW284201   0.142   8.949   5.952
94143SOL     OW84202   8.251   4.173  12.947
94143SOL    HW184203   8.213   4.101  12.898
94143SOL    HW284204   8.243   4.146  13.039
94144SOL     OW84205   3.963   0.647   3.806
94144SOL    HW184206   4.046   0.626   3.764
94144SOL    HW284207   3.941   0.734   3.774
94145SOL     OW84208  13.060   3.656  10.891
94145SOL    HW184209  13.016   3.729  10.934
94145SOL    HW284210  13.143   3.647  10.938
94146SOL     OW84211   9.097   9.277   8.173
94146SOL    HW184212   9.023   9.267   8.113
94146SOL    HW284213   9.161   9.330   8.125
94147SOL     OW84214  13.880   8.475   5.445
94147SOL    HW184215  13.961   8.428   5.426
94147SOL    HW284216  13.900   8.531   5.520
94148SOL     OW84217   4.431  11.422  12.462
94148SOL    HW184218   4.487  11.360  12.509
94148SOL    HW284219   4.351  11.426  12.514
94149SOL     OW84220   1.259   9.321   9.871
94149SOL    HW184221   1.239   9.269   9.949
94149SOL    HW284222   1.344   9.361   9.890
94150SOL     OW84223   5.530  12.048  11.285
94150SOL    HW184224   5.527  12.100  11.365
94150SOL    HW284225   5.575  11.968  11.311
94151SOL     OW84226   2.169  11.822   1.867
94151SOL    HW184227   2.077  11.797   1.877
94151SOL    HW284228   2.170  11.916   1.881
94152SOL     OW84229   8.726   5.926  12.179
94152SOL    HW184230   8.657   5.916  12.114
94152SOL    HW284231   8.804   5.951  12.129
94153SOL     OW84232   5.291   2.244   3.947
94153SOL    HW184233   5.324   2.190   3.875
94153SOL    HW284234   5.260   2.324   3.906
94154SOL     OW84235   4.155   6.402   4.929
94154SOL    HW184236   4.151   6.442   5.016
94154SOL    HW284237   4.064   6.383   4.907
94155SOL     OW84238   0.498   3.217  11.579
94155SOL    HW184239   0.422   3.243  11.631
94155SOL    HW284240   0.561   3.185  11.643
94156SOL     OW84241   0.475  14.639   9.138
94156SOL    HW184242   0.555  14.659   9.089
94156SOL    HW284243   0.449  14.552   9.108
94157SOL     OW84244  10.587   6.375   1.995
94157SOL    HW184245  10.603   6.466   2.021
94157SOL    HW284246  10.583   6.378   1.899
94158SOL     OW84247   5.248  13.349   4.418
94158SOL    HW184248   5.311  13.278   4.420
94158SOL    HW284249   5.173  13.314   4.371
94159SOL     OW84250  13.430   6.927  14.354
94159SOL    HW184251  13.441   6.983  14.277
94159SOL    HW284252  13.434   6.838  14.319
94160SOL     OW84253   0.269   6.066   1.657
94160SOL    HW184254   0.229   6.119   1.726
94160SOL    HW284255   0.358   6.101   1.650
94161SOL     OW84256  13.531   2.206   1.872
94161SOL    HW184257  13.440   2.206   1.842
94161SOL    HW284258  13.530   2.261   1.951
94162SOL     OW84259  10.503   9.482   6.315
94162SOL    HW184260  10.533   9.496   6.226
94162SOL    HW284261  10.412   9.513   6.314
94163SOL     OW84262  13.578  12.092   6.843
94163SOL    HW184263  13.657  12.145   6.843
94163SOL    HW284264  13.508  12.154   6.867
94164SOL     OW84265  12.827   4.443  11.225
94164SOL    HW184266  12.837   4.372  11.161
94164SOL    HW284267  12.886   4.419  11.296
94165SOL     OW84268   6.118   7.550  13.586
94165SOL    HW184269   6.117   7.477  13.647
94165SOL    HW284270   6.077   7.517  13.507
94166SOL     OW84271  12.830   7.171   4.503
94166SOL    HW184272  12.843   7.183   4.409
94166SOL    HW284273  12.736   7.183   4.516
94167SOL     OW84274  14.026   4.212   1.896
94167SOL    HW184275  13.984   4.130   1.923
94167SOL    HW284276  14.110   4.212   1.941
94168SOL     OW84277   8.160   4.864   2.612
94168SOL    HW184278   8.239   4.887   2.562
94168SOL    HW284279   8.192   4.808   2.683
94169SOL     OW84280  10.777   2.106  14.660
94169SOL    HW184281  10.795   2.029  14.714
94169SOL    HW284282  10.846   2.168  14.684
94170SOL     OW84283   8.543   7.318   2.919
94170SOL    HW184284   8.626   7.304   2.966
94170SOL    HW284285   8.567   7.315   2.827
94171SOL     OW84286   4.212   1.686   6.068
94171SOL    HW184287   4.228   1.704   5.975
94171SOL    HW284288   4.204   1.591   6.073
94172SOL     OW84289   9.551   8.044   0.001
94172SOL    HW184290   9.622   8.008  14.826
94172SOL    HW284291   9.595   8.108   0.058
94173SOL     OW84292  14.362  10.302   8.099
94173SOL    HW184293  14.455  10.286   8.115
94173SOL    HW284294  14.356  10.321   8.005
94174SOL     OW84295  11.570   4.877   7.098
94174SOL    HW184296  11.549   4.786   7.076
94174SOL    HW284297  11.603   4.872   7.188
94175SOL     OW84298  12.695  12.701   8.221
94175SOL    HW184299  12.770  12.648   8.193
94175SOL    HW284300  12.659  12.734   8.139
94176SOL     OW84301  12.755   9.553  10.239
94176SOL    HW184302  12.667   9.532  10.271
94176SOL    HW284303  12.740   9.603  10.159
94177SOL     OW84304  12.619   9.335   9.784
94177SOL    HW184305  12.657   9.386   9.713
94177SOL    HW284306  12.550   9.391   9.820
94178SOL     OW84307  14.417   4.540   9.522
94178SOL    HW184308  14.404   4.463   9.468
94178SOL    HW284309  14.460   4.508   9.601
94179SOL     OW84310  10.967   0.903  12.707
94179SOL    HW184311  10.903   0.858  12.762
94179SOL    HW284312  11.045   0.847  12.711
94180SOL     OW84313  10.583  10.852   7.357
94180SOL    HW184314  10.576  10.948   7.353
94180SOL    HW284315  10.538  10.828   7.438
94181SOL     OW84316   2.127   8.113  10.791
94181SOL    HW184317   2.155   8.089  10.880
94181SOL    HW284318   2.038   8.147  10.803
94182SOL     OW84319   1.880   8.685   2.887
94182SOL    HW184320   1.830   8.661   2.808
94182SOL    HW284321   1.814   8.693   2.956
94183SOL     OW84322   4.911   3.333   5.131
94183SOL    HW184323   4.832   3.378   5.101
94183SOL    HW284324   4.943   3.386   5.204
94184SOL     OW84325   4.188   9.585   8.850
94184SOL    HW184326   4.253   9.635   8.900
94184SOL    HW284327   4.240   9.538   8.784
94185SOL     OW84328   8.321   5.651  11.938
94185SOL    HW184329   8.285   5.726  11.986
94185SOL    HW284330   8.286   5.574  11.984
94186SOL     OW84331   8.443   2.852  11.382
94186SOL    HW184332   8.483   2.925  11.336
94186SOL    HW284333   8.364   2.888  11.422
94187SOL     OW84334   3.038   1.313   0.860
94187SOL    HW184335   3.010   1.312   0.952
94187SOL    HW284336   2.977   1.254   0.816
94188SOL     OW84337   2.114  12.906   5.530
94188SOL    HW184338   2.022  12.885   5.513
94188SOL    HW284339   2.119  13.001   5.518
94189SOL     OW84340   3.867   5.444   9.511
94189SOL    HW184341   3.905   5.375   9.565
94189SOL    HW284342   3.839   5.511   9.574
94190SOL     OW84343  13.145   4.365  14.557
94190SOL    HW184344  13.089   4.295  14.524
94190SOL    HW284345  13.146   4.353  14.652
94191SOL     OW84346   7.600   9.434  10.955
94191SOL    HW184347   7.627   9.439  10.863
94191SOL    HW284348   7.673   9.472  11.003
94192SOL     OW84349   4.744   6.956   1.019
94192SOL    HW184350   4.725   6.999   1.103
94192SOL    HW284351   4.831   6.988   0.995
94193SOL     OW84352  10.298   5.037   1.095
94193SOL    HW184353  10.273   4.951   1.061
94193SOL    HW284354  10.309   5.092   1.018
94194SOL     OW84355   9.660   9.253  14.626
94194SOL    HW184356   9.572   9.226  14.652
94194SOL    HW284357   9.711   9.252  14.708
94195SOL     OW84358   9.211  11.797   6.642
94195SOL    HW184359   9.175  11.789   6.731
94195SOL    HW284360   9.177  11.881   6.611
94196SOL     OW84361  14.149  11.244   2.356
94196SOL    HW184362  14.211  11.291   2.300
94196SOL    HW284363  14.193  11.162   2.378
94197SOL     OW84364  12.931  12.248   0.147
94197SOL    HW184365  12.919  12.197   0.068
94197SOL    HW284366  12.843  12.277   0.171
94198SOL     OW84367   4.021   0.526   2.242
94198SOL    HW184368   3.976   0.444   2.259
94198SOL    HW284369   4.114   0.503   2.241
94199SOL     OW84370   6.544   5.316   8.640
94199SOL    HW184371   6.521   5.224   8.653
94199SOL    HW284372   6.621   5.330   8.696
94200SOL     OW84373  11.663  10.300   0.218
94200SOL    HW184374  11.704  10.233   0.164
94200SOL    HW284375  11.730  10.367   0.229
94201SOL     OW84376   4.556   5.902  12.749
94201SOL    HW184377   4.557   5.832  12.684
94201SOL    HW284378   4.638   5.893  12.797
94202SOL     OW84379  10.725  11.896   3.456
94202SOL    HW184380  10.743  11.802   3.447
94202SOL    HW284381  10.661  11.914   3.387
94203SOL     OW84382   7.356  10.135   4.851
94203SOL    HW184383   7.286  10.069   4.853
94203SOL    HW284384   7.354  10.170   4.762
94204SOL     OW84385   3.172   5.566  13.200
94204SOL    HW184386   3.257   5.556  13.244
94204SOL    HW284387   3.131   5.641  13.243
94205SOL     OW84388   6.863   7.012   2.954
94205SOL    HW184389   6.958   7.006   2.971
94205SOL    HW284390   6.835   7.087   3.007
94206SOL     OW84391   8.166   4.808   3.007
94206SOL    HW184392   8.226   4.773   2.941
94206SOL    HW284393   8.117   4.876   2.961
94207SOL     OW84394   2.004   3.634   8.980
94207SOL    HW184395   2.089   3.635   8.936
94207SOL    HW284396   1.950   3.693   8.927
94208SOL     OW84397   0.848  12.731   5.004
94208SOL    HW184398   0.867  12.822   5.029
94208SOL    HW284399   0.930  12.700   4.965
94209SOL     OW84400  10.484   6.342   8.139
94209SOL    HW184401  10.412   6.402   8.154
94209SOL    HW284402  10.541   6.386   8.076
94210SOL     OW84403   5.753   5.829  14.269
94210SOL    HW184404   5.666   5.860  14.242
94210SOL    HW284405   5.766   5.868  14.356
94211SOL     OW84406   7.930  14.131   5.960
94211SOL    HW184407   7.868  14.111   6.030
94211SOL    HW284408   7.974  14.211   5.990
94212SOL     OW84409  14.129   0.409  14.386
94212SOL    HW184410  14.090   0.496  14.383
94212SOL    HW284411  14.223   0.426  14.385
94213SOL     OW84412   6.478   0.135   0.901
94213SOL    HW184413   6.558   0.184   0.878
94213SOL    HW284414   6.452   0.093   0.819
94214SOL     OW84415   0.355   7.851   0.270
94214SOL    HW184416   0.449   7.847   0.284
94214SOL    HW284417   0.337   7.944   0.254
94215SOL     OW84418   6.378   0.544   0.912
94215SOL    HW184419   6.392   0.556   1.006
94215SOL    HW284420   6.283   0.547   0.901
94216SOL     OW84421   1.468   7.395   2.235
94216SOL    HW184422   1.412   7.360   2.304
94216SOL    HW284423   1.451   7.489   2.235
94217SOL     OW84424   3.226   0.806   1.040
94217SOL    HW184425   3.284   0.836   0.971
94217SOL    HW284426   3.138   0.817   1.004
94218SOL     OW84427   2.329  11.025   4.467
94218SOL    HW184428   2.286  10.941   4.452
94218SOL    HW284429   2.285  11.085   4.407
94219SOL     OW84430   1.945   8.683   9.999
94219SOL    HW184431   1.900   8.600  10.015
94219SOL    HW284432   1.930   8.701   9.907
94220SOL     OW84433  13.229  13.280   3.269
94220SOL    HW184434  13.304  13.221   3.260
94220SOL    HW284435  13.259  13.364   3.235
94221SOL     OW84436  10.307  13.579   4.188
94221SOL    HW184437  10.361  13.567   4.267
94221SOL    HW284438  10.330  13.505   4.132
94222SOL     OW84439  11.362  10.428   0.627
94222SOL    HW184440  11.426  10.464   0.688
94222SOL    HW284441  11.397  10.448   0.540
94223SOL     OW84442  14.840  11.327   2.568
94223SOL    HW184443  14.795  11.403   2.530
94223SOL    HW284444   0.007  11.287   2.494
94224SOL     OW84445  12.247  13.255   2.044
94224SOL    HW184446  12.291  13.252   1.959
94224SOL    HW284447  12.247  13.348   2.067
94225SOL     OW84448   5.422   9.288  11.610
94225SOL    HW184449   5.483   9.217  11.595
94225SOL    HW284450   5.345   9.265  11.557
94226SOL     OW84451   4.776  12.973   5.797
94226SOL    HW184452   4.729  12.965   5.881
94226SOL    HW284453   4.848  12.911   5.803
94227SOL     OW84454   5.636   0.164   7.033
94227SOL    HW184455   5.703   0.173   6.965
94227SOL    HW284456   5.630   0.251   7.073
94228SOL     OW84457  10.647  14.367   4.839
94228SOL    HW184458  10.737  14.342   4.856
94228SOL    HW284459  10.652  14.425   4.762
94229SOL     OW84460   3.657   6.440   8.840
94229SOL    HW184461   3.659   6.415   8.747
94229SOL    HW284462   3.633   6.360   8.886
94230SOL     OW84463   4.162   7.769  11.351
94230SOL    HW184464   4.169   7.674  11.366
94230SOL    HW284465   4.198   7.782  11.264
94231SOL     OW84466   2.448   5.894   1.361
94231SOL    HW184467   2.441   5.931   1.449
94231SOL    HW284468   2.421   5.964   1.303
94232SOL     OW84469   1.590   3.536   4.069
94232SOL    HW184470   1.582   3.615   4.123
94232SOL    HW284471   1.586   3.464   4.131
94233SOL     OW84472   5.748   7.261  12.300
94233SOL    HW184473   5.777   7.199  12.367
94233SOL    HW284474   5.776   7.346  12.332
94234SOL     OW84475   2.167   4.901   3.325
94234SOL    HW184476   2.244   4.925   3.273
94234SOL    HW284477   2.096   4.952   3.286
94235SOL     OW84478  13.576  12.802   7.030
94235SOL    HW184479  13.540  12.725   7.074
94235SOL    HW284480  13.519  12.874   7.059
94236SOL     OW84481   5.034   5.767   0.612
94236SOL    HW184482   5.095   5.832   0.646
94236SOL    HW284483   4.954   5.815   0.595
94237SOL     OW84484  12.353  11.211   5.280
94237SOL    HW184485  12.329  11.278   5.343
94237SOL    HW284486  12.398  11.258   5.210
94238SOL     OW84487   8.899   6.840   2.356
94238SOL    HW184488   8.977   6.895   2.353
94238SOL    HW284489   8.893   6.802   2.268
94239SOL     OW84490  13.092  14.631  12.066
94239SOL    HW184491  13.069  14.714  12.024
94239SOL    HW284492  13.037  14.627  12.144
94240SOL     OW84493   5.709  11.482  14.099
94240SOL    HW184494   5.633  11.465  14.155
94240SOL    HW284495   5.776  11.421  14.129
94241SOL     OW84496   6.764   8.633   4.880
94241SOL    HW184497   6.672   8.631   4.904
94241SOL    HW284498   6.785   8.725   4.869
94242SOL     OW84499   7.358   6.220  13.484
94242SOL    HW184500   7.276   6.271  13.478
94242SOL    HW284501   7.380   6.200  13.393
94243SOL     OW84502   0.847   0.925   6.314
94243SOL    HW184503   0.783   0.993   6.293
94243SOL    HW284504   0.884   0.900   6.229
94244SOL     OW84505   2.012   0.080   3.820
94244SOL    HW184506   2.084   0.142   3.809
94244SOL    HW284507   1.949   0.104   3.751
94245SOL     OW84508  11.131   5.255  12.563
94245SOL    HW184509  11.201   5.306  12.605
94245SOL    HW284510  11.134   5.170  12.607
94246SOL     OW84511   8.115  14.353   8.554
94246SOL    HW184512   8.202  14.392   8.551
94246SOL    HW284513   8.074  14.377   8.471
94247SOL     OW84514   5.962   6.576   3.276
94247SOL    HW184515   6.010   6.563   3.194
94247SOL    HW284516   6.012   6.527   3.341
94248SOL     OW84517   4.778   0.835   7.926
94248SOL    HW184518   4.752   0.803   8.012
94248SOL    HW284519   4.855   0.783   7.903
94249SOL     OW84520   9.944   6.247   2.731
94249SOL    HW184521   9.970   6.176   2.672
94249SOL    HW284522   9.856   6.271   2.704
94250SOL     OW84523   8.384   5.915   4.662
94250SOL    HW184524   8.474   5.928   4.692
94250SOL    HW284525   8.361   5.827   4.694
94251SOL     OW84526  10.750  13.040   6.686
94251SOL    HW184527  10.814  12.971   6.667
94251SOL    HW284528  10.755  13.052   6.781
94252SOL     OW84529   8.944  12.968  12.471
94252SOL    HW184530   8.974  13.035  12.410
94252SOL    HW284531   8.854  12.992  12.492
94253SOL     OW84532   3.296   9.091  14.732
94253SOL    HW184533   3.354   9.025  14.771
94253SOL    HW284534   3.233   9.111  14.800
94254SOL     OW84535   9.323   6.478   2.494
94254SOL    HW184536   9.394   6.458   2.433
94254SOL    HW284537   9.302   6.570   2.477
94255SOL     OW84538  14.807  13.676   0.457
94255SOL    HW184539  14.863  13.649   0.385
94255SOL    HW284540  14.776  13.593   0.495
94256SOL     OW84541   2.638   4.475   0.662
94256SOL    HW184542   2.631   4.567   0.688
94256SOL    HW284543   2.579   4.467   0.586
94257SOL     OW84544   0.441  11.229  11.987
94257SOL    HW184545   0.465  11.295  12.051
94257SOL    HW284546   0.375  11.176  12.031
94258SOL     OW84547   0.843   5.067   7.754
94258SOL    HW184548   0.919   5.009   7.747
94258SOL    HW284549   0.868   5.131   7.822
94259SOL     OW84550  10.656   9.448   7.073
94259SOL    HW184551  10.748   9.435   7.051
94259SOL    HW284552  10.609   9.423   6.993
94260SOL     OW84553   3.533   2.204  10.151
94260SOL    HW184554   3.623   2.171  10.150
94260SOL    HW284555   3.481   2.132  10.114
94261SOL     OW84556   8.677   0.887   6.179
94261SOL    HW184557   8.647   0.973   6.150
94261SOL    HW284558   8.597   0.838   6.197
94262SOL     OW84559   5.167   7.912   7.901
94262SOL    HW184560   5.138   7.831   7.943
94262SOL    HW284561   5.191   7.886   7.812
94263SOL     OW84562   3.881   4.438   0.691
94263SOL    HW184563   3.958   4.470   0.645
94263SOL    HW284564   3.914   4.373   0.753
94264SOL     OW84565   6.247   9.345  12.332
94264SOL    HW184566   6.184   9.396  12.282
94264SOL    HW284567   6.223   9.359  12.424
94265SOL     OW84568  12.790   4.153   0.070
94265SOL    HW184569  12.869   4.205   0.059
94265SOL    HW284570  12.721   4.203   0.026
94266SOL     OW84571  13.234   7.131   5.896
94266SOL    HW184572  13.310   7.116   5.952
94266SOL    HW284573  13.271   7.147   5.809
94267SOL     OW84574   7.873   1.064   8.700
94267SOL    HW184575   7.860   1.154   8.669
94267SOL    HW284576   7.878   1.012   8.619
94268SOL     OW84577   6.251   4.608  10.806
94268SOL    HW184578   6.210   4.683  10.764
94268SOL    HW284579   6.214   4.606  10.894
94269SOL     OW84580   0.265   7.502   0.050
94269SOL    HW184581   0.273   7.595   0.031
94269SOL    HW284582   0.288   7.458  14.846
94270SOL     OW84583  11.614   2.100   9.118
94270SOL    HW184584  11.709   2.086   9.111
94270SOL    HW284585  11.598   2.179   9.067
94271SOL     OW84586  13.068   3.631  10.014
94271SOL    HW184587  12.999   3.684  10.053
94271SOL    HW284588  13.022   3.554   9.979
94272SOL     OW84589   2.353   3.970   9.255
94272SOL    HW184590   2.359   4.062   9.229
94272SOL    HW284591   2.319   3.972   9.344
94273SOL     OW84592   0.350   2.343  11.221
94273SOL    HW184593   0.395   2.423  11.247
94273SOL    HW284594   0.419   2.277  11.213
94274SOL     OW84595  13.642   3.900   2.029
94274SOL    HW184596  13.656   3.808   2.007
94274SOL    HW284597  13.638   3.945   1.944
94275SOL     OW84598  13.221   3.331   5.006
94275SOL    HW184599  13.272   3.364   4.933
94275SOL    HW284600  13.257   3.244   5.024
94276SOL     OW84601   8.562  10.705   0.256
94276SOL    HW184602   8.473  10.677   0.236
94276SOL    HW284603   8.567  10.794   0.221
94277SOL     OW84604   6.640   9.165   2.870
94277SOL    HW184605   6.646   9.243   2.924
94277SOL    HW284606   6.724   9.120   2.882
94278SOL     OW84607   8.840   6.813  14.243
94278SOL    HW184608   8.827   6.718  14.239
94278SOL    HW284609   8.913   6.825  14.304
94279SOL     OW84610   6.912  11.654  14.797
94279SOL    HW184611   6.837  11.601  14.822
94279SOL    HW284612   6.964  11.598  14.740
94280SOL     OW84613   1.996   9.096   9.709
94280SOL    HW184614   1.976   9.041   9.634
94280SOL    HW284615   1.914   9.142   9.729
94281SOL     OW84616   9.495   5.549   6.138
94281SOL    HW184617   9.532   5.634   6.163
94281SOL    HW284618   9.567   5.503   6.095
94282SOL     OW84619  12.746   7.102   0.800
94282SOL    HW184620  12.793   7.160   0.861
94282SOL    HW284621  12.654   7.108   0.826
94283SOL     OW84622  14.253   6.124   4.800
94283SOL    HW184623  14.332   6.157   4.758
94283SOL    HW284624  14.183   6.140   4.737
94284SOL     OW84625   0.961  10.467  12.921
94284SOL    HW184626   1.007  10.549  12.938
94284SOL    HW284627   0.887  10.468  12.981
94285SOL     OW84628   8.110   4.072   2.612
94285SOL    HW184629   8.185   4.075   2.672
94285SOL    HW284630   8.096   3.979   2.596
94286SOL     OW84631   5.274   7.193   8.172
94286SOL    HW184632   5.265   7.217   8.080
94286SOL    HW284633   5.187   7.163   8.198
94287SOL     OW84634   5.441   7.005   1.644
94287SOL    HW184635   5.393   7.085   1.664
94287SOL    HW284636   5.374   6.936   1.643
94288SOL     OW84637   8.206   2.313   6.885
94288SOL    HW184638   8.227   2.405   6.871
94288SOL    HW284639   8.111   2.309   6.882
94289SOL     OW84640  14.273   3.098  10.888
94289SOL    HW184641  14.256   3.172  10.946
94289SOL    HW284642  14.213   3.029  10.917
94290SOL     OW84643   3.180   2.123   4.433
94290SOL    HW184644   3.252   2.186   4.427
94290SOL    HW284645   3.222   2.040   4.455
94291SOL     OW84646   2.031   1.125  13.920
94291SOL    HW184647   2.056   1.036  13.945
94291SOL    HW284648   1.982   1.158  13.996
94292SOL     OW84649   7.800   8.324   0.687
94292SOL    HW184650   7.853   8.366   0.756
94292SOL    HW284651   7.860   8.317   0.613
94293SOL     OW84652   0.499   8.422   6.154
94293SOL    HW184653   0.476   8.512   6.129
94293SOL    HW284654   0.486   8.420   6.249
94294SOL     OW84655  12.781   9.780   9.694
94294SOL    HW184656  12.799   9.794   9.601
94294SOL    HW284657  12.808   9.689   9.710
94295SOL     OW84658   5.073  12.252   9.857
94295SOL    HW184659   5.074  12.244   9.952
94295SOL    HW284660   5.043  12.342   9.841
94296SOL     OW84661   7.783   3.780  11.910
94296SOL    HW184662   7.876   3.801  11.925
94296SOL    HW284663   7.738   3.813  11.988
94297SOL     OW84664   0.306  10.022  13.379
94297SOL    HW184665   0.283  10.082  13.449
94297SOL    HW284666   0.396   9.995  13.399
94298SOL     OW84667  13.802   9.156  14.424
94298SOL    HW184668  13.708   9.167  14.438
94298SOL    HW284669  13.841   9.231  14.469
94299SOL     OW84670   6.781   7.170   3.206
94299SOL    HW184671   6.866   7.137   3.233
94299SOL    HW284672   6.724   7.154   3.281
94300SOL     OW84673  11.813  12.505  12.038
94300SOL    HW184674  11.764  12.552  12.106
94300SOL    HW284675  11.753  12.500  11.964
94301SOL     OW84676   4.031   5.982  12.479
94301SOL    HW184677   3.996   6.069  12.460
94301SOL    HW284678   4.126   5.992  12.472
94302SOL     OW84679   5.080  12.962  14.224
94302SOL    HW184680   4.994  12.933  14.253
94302SOL    HW284681   5.078  12.952  14.128
94303SOL     OW84682   5.987   0.463  13.330
94303SOL    HW184683   6.021   0.526  13.267
94303SOL    HW284684   6.010   0.500  13.415
94304SOL     OW84685   9.101   2.107   3.561
94304SOL    HW184686   9.011   2.128   3.586
94304SOL    HW284687   9.129   2.042   3.624
94305SOL     OW84688   0.557   6.628   0.814
94305SOL    HW184689   0.476   6.646   0.861
94305SOL    HW284690   0.626   6.640   0.880
94306SOL     OW84691  14.268   1.307  14.731
94306SOL    HW184692  14.359   1.333  14.715
94306SOL    HW284693  14.245   1.253  14.656
94307SOL     OW84694  13.381  10.143  11.690
94307SOL    HW184695  13.314  10.210  11.679
94307SOL    HW284696  13.368  10.084  11.615
94308SOL     OW84697   2.416   6.975  11.491
94308SOL    HW184698   2.495   7.022  11.465
94308SOL    HW284699   2.345   7.017  11.443
94309SOL     OW84700   0.312  11.956  11.048
94309SOL    HW184701   0.240  11.956  11.111
94309SOL    HW284702   0.343  12.047  11.049
94310SOL     OW84703   1.211  13.532  13.662
94310SOL    HW184704   1.200  13.489  13.747
94310SOL    HW284705   1.145  13.490  13.606
94311SOL     OW84706   3.576   8.651  11.769
94311SOL    HW184707   3.568   8.743  11.743
94311SOL    HW284708   3.581   8.653  11.864
94312SOL     OW84709   5.504  10.399   8.874
94312SOL    HW184710   5.412  10.421   8.859
94312SOL    HW284711   5.524  10.439   8.959
94313SOL     OW84712   7.383  12.955   4.481
94313SOL    HW184713   7.410  13.017   4.414
94313SOL    HW284714   7.377  13.008   4.561
94314SOL     OW84715   5.760   6.339  11.625
94314SOL    HW184716   5.674   6.340  11.584
94314SOL    HW284717   5.821   6.325  11.553
94315SOL     OW84718   7.810  13.728  11.004
94315SOL    HW184719   7.790  13.719  11.097
94315SOL    HW284720   7.729  13.758  10.964
94316SOL     OW84721   0.439   8.355   9.531
94316SOL    HW184722   0.461   8.392   9.616
94316SOL    HW284723   0.377   8.417   9.493
94317SOL     OW84724   1.757  11.138  12.841
94317SOL    HW184725   1.737  11.152  12.748
94317SOL    HW284726   1.687  11.080  12.871
94318SOL     OW84727   3.774   2.566   8.979
94318SOL    HW184728   3.849   2.577   8.921
94318SOL    HW284729   3.812   2.535   9.062
94319SOL     OW84730  10.524   4.265   7.428
94319SOL    HW184731  10.551   4.173   7.438
94319SOL    HW284732  10.431   4.260   7.408
94320SOL     OW84733   5.123   7.082   8.412
94320SOL    HW184734   5.159   7.112   8.495
94320SOL    HW284735   5.090   6.995   8.430
94321SOL     OW84736  11.838   0.115   5.796
94321SOL    HW184737  11.839   0.124   5.701
94321SOL    HW284738  11.911   0.056   5.815
94322SOL     OW84739  10.325   7.704   8.528
94322SOL    HW184740  10.360   7.733   8.612
94322SOL    HW284741  10.297   7.784   8.484
94323SOL     OW84742   9.061  13.787   9.652
94323SOL    HW184743   9.021  13.786   9.739
94323SOL    HW284744   9.110  13.705   9.646
94324SOL     OW84745  10.958   4.526   0.769
94324SOL    HW184746  11.010   4.524   0.689
94324SOL    HW284747  10.882   4.579   0.747
94325SOL     OW84748  13.801   6.709  14.850
94325SOL    HW184749  13.813   6.800   0.000
94325SOL    HW284750  13.707   6.700  14.837
94326SOL     OW84751  11.906   6.653  14.802
94326SOL    HW184752  11.899   6.713  14.876
94326SOL    HW284753  11.983   6.683  14.754
94327SOL     OW84754  10.658   3.556   5.997
94327SOL    HW184755  10.571   3.526   6.023
94327SOL    HW284756  10.652   3.651   5.999
94328SOL     OW84757  12.107  10.466  12.398
94328SOL    HW184758  12.138  10.406  12.331
94328SOL    HW284759  12.018  10.488  12.372
94329SOL     OW84760   2.090   8.855   2.945
94329SOL    HW184761   2.020   8.794   2.919
94329SOL    HW284762   2.168   8.801   2.950
94330SOL     OW84763  13.735   1.496   8.335
94330SOL    HW184764  13.727   1.571   8.394
94330SOL    HW284765  13.653   1.497   8.285
94331SOL     OW84766  14.626   1.773   4.388
94331SOL    HW184767  14.689   1.794   4.457
94331SOL    HW284768  14.662   1.696   4.345
94332SOL     OW84769   3.608   9.614   3.350
94332SOL    HW184770   3.661   9.585   3.276
94332SOL    HW284771   3.522   9.633   3.312
94333SOL     OW84772  13.291   7.570   8.796
94333SOL    HW184773  13.208   7.591   8.753
94333SOL    HW284774  13.354   7.631   8.758
94334SOL     OW84775  12.928  11.225   7.227
94334SOL    HW184776  12.857  11.264   7.176
94334SOL    HW284777  12.930  11.134   7.199
94335SOL     OW84778   2.436   4.517   5.178
94335SOL    HW184779   2.407   4.508   5.087
94335SOL    HW284780   2.370   4.471   5.229
94336SOL     OW84781   0.740   8.546   3.093
94336SOL    HW184782   0.742   8.505   3.179
94336SOL    HW284783   0.829   8.534   3.059
94337SOL     OW84784   0.680   7.453   3.650
94337SOL    HW184785   0.659   7.503   3.571
94337SOL    HW284786   0.757   7.402   3.626
94338SOL     OW84787   0.869   1.173   4.257
94338SOL    HW184788   0.824   1.257   4.268
94338SOL    HW284789   0.958   1.189   4.288
94339SOL     OW84790  14.687   4.886  11.973
94339SOL    HW184791  14.719   4.907  11.885
94339SOL    HW284792  14.737   4.944  12.031
94340SOL     OW84793   6.812   3.696   3.925
94340SOL    HW184794   6.860   3.669   4.003
94340SOL    HW284795   6.726   3.656   3.935
94341SOL     OW84796   6.907   7.106   1.482
94341SOL    HW184797   6.901   7.146   1.396
94341SOL    HW284798   6.970   7.160   1.529
94342SOL     OW84799   0.877   9.878  13.361
94342SOL    HW184800   0.954   9.889  13.417
94342SOL    HW284801   0.853   9.786  13.370
94343SOL     OW84802   8.056   7.209  10.255
94343SOL    HW184803   8.148   7.221  10.278
94343SOL    HW284804   8.040   7.273  10.186
94344SOL     OW84805  12.095   0.611  12.463
94344SOL    HW184806  12.170   0.647  12.416
94344SOL    HW284807  12.043   0.567  12.395
94345SOL     OW84808   2.438   2.600  13.045
94345SOL    HW184809   2.422   2.639  12.959
94345SOL    HW284810   2.485   2.668  13.093
94346SOL     OW84811   3.560   5.761   0.454
94346SOL    HW184812   3.525   5.741   0.367
94346SOL    HW284813   3.484   5.789   0.504
94347SOL     OW84814   5.635   0.879   0.059
94347SOL    HW184815   5.593   0.914  14.859
94347SOL    HW284816   5.571   0.818   0.095
94348SOL     OW84817   2.408   4.927  14.582
94348SOL    HW184818   2.428   4.835  14.603
94348SOL    HW284819   2.494   4.968  14.570
94349SOL     OW84820  13.376   2.662  13.352
94349SOL    HW184821  13.374   2.595  13.283
94349SOL    HW284822  13.310   2.726  13.325
94350SOL     OW84823   6.982   9.889   0.118
94350SOL    HW184824   7.055   9.941   0.152
94350SOL    HW284825   6.960   9.929   0.034
94351SOL     OW84826   4.940   6.506   1.964
94351SOL    HW184827   4.922   6.586   2.014
94351SOL    HW284828   4.862   6.451   1.977
94352SOL     OW84829   8.875   6.262  10.161
94352SOL    HW184830   8.893   6.311  10.242
94352SOL    HW284831   8.891   6.170  10.185
94353SOL     OW84832  14.372   1.485   5.885
94353SOL    HW184833  14.460   1.504   5.918
94353SOL    HW284834  14.343   1.566   5.843
94354SOL     OW84835   8.611   5.667   5.005
94354SOL    HW184836   8.706   5.676   5.005
94354SOL    HW284837   8.586   5.664   5.097
94355SOL     OW84838   4.251  14.119   7.350
94355SOL    HW184839   4.296  14.050   7.399
94355SOL    HW284840   4.316  14.188   7.340
94356SOL     OW84841   6.736  10.715   1.944
94356SOL    HW184842   6.708  10.625   1.958
94356SOL    HW284843   6.797  10.711   1.871
94357SOL     OW84844   8.842   3.419  14.455
94357SOL    HW184845   8.907   3.440  14.523
94357SOL    HW284846   8.758   3.442  14.495
94358SOL     OW84847   4.752  11.054   7.844
94358SOL    HW184848   4.741  11.030   7.936
94358SOL    HW284849   4.716  10.979   7.796
94359SOL     OW84850   0.767   4.580   2.257
94359SOL    HW184851   0.760   4.675   2.250
94359SOL    HW284852   0.691   4.546   2.209
94360SOL     OW84853   7.577   9.961  11.332
94360SOL    HW184854   7.626   9.978  11.413
94360SOL    HW284855   7.568   9.866  11.329
94361SOL     OW84856   0.631   1.306  14.002
94361SOL    HW184857   0.713   1.338  14.039
94361SOL    HW284858   0.636   1.330  13.909
94362SOL     OW84859  11.829   5.716  11.327
94362SOL    HW184860  11.769   5.743  11.258
94362SOL    HW284861  11.867   5.798  11.359
94363SOL     OW84862   9.037   8.830  14.847
94363SOL    HW184863   9.020   8.889   0.042
94363SOL    HW284864   9.131   8.833  14.835
94364SOL     OW84865  13.464   2.448  10.224
94364SOL    HW184866  13.473   2.473  10.132
94364SOL    HW284867  13.543   2.481  10.266
94365SOL     OW84868  11.770   5.950   2.690
94365SOL    HW184869  11.801   6.009   2.623
94365SOL    HW284870  11.717   6.005   2.748
94366SOL     OW84871  12.470   1.244  13.028
94366SOL    HW184872  12.393   1.280  13.073
94366SOL    HW284873  12.528   1.320  13.017
94367SOL     OW84874   5.454   6.175   7.207
94367SOL    HW184875   5.408   6.151   7.127
94367SOL    HW284876   5.451   6.096   7.261
94368SOL     OW84877   8.465   9.592   9.541
94368SOL    HW184878   8.557   9.610   9.525
94368SOL    HW284879   8.426   9.583   9.454
94369SOL     OW84880   8.168   3.619   8.329
94369SOL    HW184881   8.137   3.689   8.388
94369SOL    HW284882   8.180   3.663   8.245
94370SOL     OW84883   3.962   1.256   7.803
94370SOL    HW184884   4.043   1.205   7.797
94370SOL    HW284885   3.955   1.280   7.895
94371SOL     OW84886   8.651  11.574   7.699
94371SOL    HW184887   8.663  11.647   7.638
94371SOL    HW284888   8.603  11.508   7.649
94372SOL     OW84889   1.537   5.774   3.189
94372SOL    HW184890   1.532   5.869   3.205
94372SOL    HW284891   1.448   5.750   3.164
94373SOL     OW84892   3.499   2.765  14.744
94373SOL    HW184893   3.553   2.833  14.703
94373SOL    HW284894   3.479   2.704  14.673
94374SOL     OW84895   1.131   1.522  14.004
94374SOL    HW184896   1.192   1.460  13.964
94374SOL    HW284897   1.166   1.608  13.979
94375SOL     OW84898   2.297   6.668   5.283
94375SOL    HW184899   2.340   6.733   5.338
94375SOL    HW284900   2.352   6.589   5.291
94376SOL     OW84901   0.434   0.746   3.673
94376SOL    HW184902   0.448   0.718   3.582
94376SOL    HW284903   0.348   0.711   3.696
94377SOL     OW84904  12.154  14.591  14.658
94377SOL    HW184905  12.077  14.610  14.604
94377SOL    HW284906  12.147  14.497  14.677
94378SOL     OW84907  11.355  13.929   9.543
94378SOL    HW184908  11.339  13.891   9.630
94378SOL    HW284909  11.347  14.023   9.557
94379SOL     OW84910   3.028   6.469   3.990
94379SOL    HW184911   2.950   6.416   4.007
94379SOL    HW284912   3.100   6.407   3.987
94380SOL     OW84913   9.914  13.249   1.660
94380SOL    HW184914   9.919  13.269   1.566
94380SOL    HW284915   9.821  13.260   1.681
94381SOL     OW84916   1.490   1.930   3.893
94381SOL    HW184917   1.531   1.957   3.810
94381SOL    HW284918   1.563   1.898   3.946
94382SOL     OW84919   0.120   0.916  13.297
94382SOL    HW184920   0.191   0.974  13.323
94382SOL    HW284921   0.054   0.927  13.365
94383SOL     OW84922  13.341   3.853   6.589
94383SOL    HW184923  13.398   3.913   6.637
94383SOL    HW284924  13.303   3.797   6.656
94384SOL     OW84925   6.768   2.426  13.637
94384SOL    HW184926   6.675   2.437  13.614
94384SOL    HW284927   6.797   2.352  13.584
94385SOL     OW84928  14.351  10.413   6.627
94385SOL    HW184929  14.374  10.506   6.632
94385SOL    HW284930  14.413  10.370   6.686
94386SOL     OW84931   0.527   3.991   9.672
94386SOL    HW184932   0.531   3.995   9.767
94386SOL    HW284933   0.619   3.983   9.645
94387SOL     OW84934   9.558   9.257  14.169
94387SOL    HW184935   9.584   9.349  14.172
94387SOL    HW284936   9.509   9.242  14.250
94388SOL     OW84937  12.086   0.962   2.087
94388SOL    HW184938  12.108   1.044   2.044
94388SOL    HW284939  12.144   0.958   2.163
94389SOL     OW84940   4.421   2.945  14.235
94389SOL    HW184941   4.336   2.921  14.272
94389SOL    HW284942   4.421   3.041  14.236
94390SOL     OW84943  14.014   9.932   1.948
94390SOL    HW184944  14.110   9.933   1.945
94390SOL    HW284945  13.992   9.845   1.980
94391SOL     OW84946  14.621   5.776  12.723
94391SOL    HW184947  14.686   5.843  12.747
94391SOL    HW284948  14.592   5.802  12.636
94392SOL     OW84949  12.006   8.349  14.357
94392SOL    HW184950  12.013   8.305  14.441
94392SOL    HW284951  12.091   8.390  14.343
94393SOL     OW84952  10.747   2.584  10.166
94393SOL    HW184953  10.832   2.562  10.205
94393SOL    HW284954  10.747   2.679  10.162
94394SOL     OW84955  12.168  12.402   2.489
94394SOL    HW184956  12.260  12.423   2.502
94394SOL    HW284957  12.124  12.488   2.485
94395SOL     OW84958  13.194   5.823   4.353
94395SOL    HW184959  13.175   5.891   4.288
94395SOL    HW284960  13.127   5.756   4.338
94396SOL     OW84961   8.950   0.212   8.718
94396SOL    HW184962   8.957   0.216   8.622
94396SOL    HW284963   9.039   0.198   8.748
94397SOL     OW84964  10.327  13.460  12.734
94397SOL    HW184965  10.246  13.490  12.693
94397SOL    HW284966  10.325  13.497  12.822
94398SOL     OW84967   6.822   2.074  12.771
94398SOL    HW184968   6.807   2.167  12.788
94398SOL    HW284969   6.905   2.072  12.724
94399SOL     OW84970   7.932  11.517   3.629
94399SOL    HW184971   7.862  11.518   3.694
94399SOL    HW284972   7.909  11.446   3.569
94400SOL     OW84973  10.110   7.906   9.253
94400SOL    HW184974  10.068   7.833   9.208
94400SOL    HW284975  10.116   7.975   9.186
94401SOL     OW84976   5.680  12.984   4.294
94401SOL    HW184977   5.588  12.966   4.275
94401SOL    HW284978   5.726  12.904   4.270
94402SOL     OW84979   8.126   8.632   7.713
94402SOL    HW184980   8.063   8.592   7.653
94402SOL    HW284981   8.127   8.574   7.789
94403SOL     OW84982   9.525  12.067   5.282
94403SOL    HW184983   9.516  12.159   5.305
94403SOL    HW284984   9.435  12.035   5.273
94404SOL     OW84985  10.845   6.668   7.080
94404SOL    HW184986  10.913   6.685   7.145
94404SOL    HW284987  10.853   6.574   7.061
94405SOL     OW84988   3.364  11.342   4.161
94405SOL    HW184989   3.450  11.356   4.122
94405SOL    HW284990   3.382  11.297   4.243
94406SOL     OW84991  11.727  11.528  10.428
94406SOL    HW184992  11.743  11.540  10.521
94406SOL    HW284993  11.760  11.440  10.409
94407SOL     OW84994  11.729   2.719   0.172
94407SOL    HW184995  11.772   2.767   0.101
94407SOL    HW284996  11.802   2.684   0.224
94408SOL     OW84997   1.762   8.402  12.645
94408SOL    HW184998   1.719   8.330  12.597
94408SOL    HW284999   1.699   8.424  12.714
94409SOL     OW85000   8.789   3.223  12.700
94409SOL    HW185001   8.865   3.277  12.682
94409SOL    HW285002   8.762   3.249  12.789
94410SOL     OW85003  12.900   2.859  12.250
94410SOL    HW185004  12.943   2.774  12.250
94410SOL    HW285005  12.846   2.860  12.172
94411SOL     OW85006   2.596  11.702  12.103
94411SOL    HW185007   2.580  11.782  12.152
94411SOL    HW285008   2.510  11.664  12.089
94412SOL     OW85009  12.966  13.242  11.115
94412SOL    HW185010  13.038  13.293  11.077
94412SOL    HW285011  12.893  13.304  11.120
94413SOL     OW85012   6.143   7.380  10.379
94413SOL    HW185013   6.145   7.373  10.475
94413SOL    HW285014   6.050   7.384  10.358
94414SOL     OW85015   9.087   6.401  10.694
94414SOL    HW185016   9.129   6.477  10.653
94414SOL    HW285017   8.994   6.413  10.677
94415SOL     OW85018   2.158   5.586   8.790
94415SOL    HW185019   2.138   5.500   8.827
94415SOL    HW285020   2.143   5.576   8.696
94416SOL     OW85021   5.967   4.101   5.927
94416SOL    HW185022   5.873   4.085   5.920
94416SOL    HW285023   6.008   4.027   5.884
94417SOL     OW85024   8.328  13.485   5.602
94417SOL    HW185025   8.410  13.443   5.627
94417SOL    HW285026   8.296  13.526   5.683
94418SOL     OW85027   6.179   3.549   1.425
94418SOL    HW185028   6.197   3.458   1.401
94418SOL    HW285029   6.210   3.601   1.351
94419SOL     OW85030  11.074  14.516  10.309
94419SOL    HW185031  11.141  14.514  10.378
94419SOL    HW285032  10.993  14.535  10.355
94420SOL     OW85033   0.802   4.818   9.445
94420SOL    HW185034   0.872   4.841   9.383
94420SOL    HW285035   0.813   4.723   9.459
94421SOL     OW85036  12.939  12.995   1.970
94421SOL    HW185037  12.984  13.049   2.034
94421SOL    HW285038  13.009  12.955   1.919
94422SOL     OW85039   8.554  12.252  14.520
94422SOL    HW185040   8.565  12.346  14.510
94422SOL    HW285041   8.641  12.219  14.542
94423SOL     OW85042   6.095   3.067   1.700
94423SOL    HW185043   6.011   3.093   1.736
94423SOL    HW285044   6.118   2.987   1.746
94424SOL     OW85045   6.956   9.092  10.792
94424SOL    HW185046   7.047   9.110  10.770
94424SOL    HW285047   6.956   9.073  10.885
94425SOL     OW85048   5.460   6.172  11.023
94425SOL    HW185049   5.395   6.107  10.996
94425SOL    HW285050   5.457   6.239  10.954
94426SOL     OW85051   6.677   8.370   1.650
94426SOL    HW185052   6.599   8.421   1.628
94426SOL    HW285053   6.715   8.414   1.726
94427SOL     OW85054  11.050   5.553   2.837
94427SOL    HW185055  10.960   5.566   2.809
94427SOL    HW285056  11.067   5.460   2.822
94428SOL     OW85057   9.410   7.170  10.645
94428SOL    HW185058   9.387   7.261  10.629
94428SOL    HW285059   9.398   7.127  10.561
94429SOL     OW85060   8.597   4.384  10.473
94429SOL    HW185061   8.623   4.398  10.564
94429SOL    HW285062   8.642   4.304  10.448
94430SOL     OW85063   2.980  12.782  12.025
94430SOL    HW185064   3.027  12.700  12.042
94430SOL    HW285065   2.928  12.763  11.947
94431SOL     OW85066  10.270   1.378   7.264
94431SOL    HW185067  10.291   1.375   7.357
94431SOL    HW285068  10.293   1.467   7.237
94432SOL     OW85069   1.568   1.761   2.171
94432SOL    HW185070   1.502   1.791   2.233
94432SOL    HW285071   1.637   1.723   2.225
94433SOL     OW85072   7.551   4.569   3.894
94433SOL    HW185073   7.565   4.526   3.979
94433SOL    HW285074   7.637   4.565   3.851
94434SOL     OW85075   5.194   5.549   5.252
94434SOL    HW185076   5.240   5.586   5.327
94434SOL    HW285077   5.231   5.593   5.176
94435SOL     OW85078  11.593   3.315   8.026
94435SOL    HW185079  11.498   3.308   8.012
94435SOL    HW285080  11.627   3.342   7.941
94436SOL     OW85081   5.763  12.364  10.963
94436SOL    HW185082   5.727  12.440  11.009
94436SOL    HW285083   5.839  12.338  11.014
94437SOL     OW85084   7.032  14.873   4.851
94437SOL    HW185085   7.001   0.070   4.799
94437SOL    HW285086   7.084   0.035   4.921
94438SOL     OW85087  11.174   5.516  11.371
94438SOL    HW185088  11.086   5.518  11.409
94438SOL    HW285089  11.169   5.575  11.296
94439SOL     OW85090  11.631   7.966   0.033
94439SOL    HW185091  11.535   7.975   0.031
94439SOL    HW285092  11.662   8.042  14.861
94440SOL     OW85093   6.048   8.604   6.285
94440SOL    HW185094   6.013   8.539   6.345
94440SOL    HW285095   6.142   8.604   6.302
94441SOL     OW85096   6.616   7.743   7.334
94441SOL    HW185097   6.627   7.835   7.311
94441SOL    HW285098   6.621   7.696   7.250
94442SOL     OW85099   4.708   2.798  13.306
94442SOL    HW185100   4.687   2.883  13.268
94442SOL    HW285101   4.626   2.749  13.301
94443SOL     OW85102  13.532  10.586   6.160
94443SOL    HW185103  13.602  10.521   6.154
94443SOL    HW285104  13.509  10.589   6.252
94444SOL     OW85105   3.141   2.100   2.238
94444SOL    HW185106   3.134   2.014   2.279
94444SOL    HW285107   3.086   2.094   2.160
94445SOL     OW85108   2.603  12.928  12.415
94445SOL    HW185109   2.528  12.925  12.356
94445SOL    HW285110   2.675  12.890  12.365
94446SOL     OW85111   5.891   8.475  13.808
94446SOL    HW185112   5.946   8.439  13.878
94446SOL    HW285113   5.923   8.433  13.728
94447SOL     OW85114   4.939   2.680  12.954
94447SOL    HW185115   5.015   2.730  12.924
94447SOL    HW285116   4.866   2.741  12.946
94448SOL     OW85117   3.001   3.480   2.057
94448SOL    HW185118   3.082   3.488   2.006
94448SOL    HW285119   3.027   3.502   2.147
94449SOL     OW85120   3.724   9.066  11.104
94449SOL    HW185121   3.694   9.136  11.162
94449SOL    HW285122   3.655   9.059  11.037
94450SOL     OW85123   9.228   6.768   4.852
94450SOL    HW185124   9.249   6.831   4.921
94450SOL    HW285125   9.256   6.683   4.887
94451SOL     OW85126  13.044   1.247  13.581
94451SOL    HW185127  13.074   1.319  13.526
94451SOL    HW285128  12.950   1.242  13.564
94452SOL     OW85129   9.902   1.123   8.660
94452SOL    HW185130   9.907   1.064   8.735
94452SOL    HW285131   9.981   1.177   8.666
94453SOL     OW85132  12.972   4.814   3.538
94453SOL    HW185133  13.022   4.739   3.505
94453SOL    HW285134  12.885   4.804   3.500
94454SOL     OW85135   0.363  14.612   0.458
94454SOL    HW185136   0.390  14.541   0.399
94454SOL    HW285137   0.343  14.568   0.541
94455SOL     OW85138   5.776   3.028   4.320
94455SOL    HW185139   5.866   3.032   4.287
94455SOL    HW285140   5.731   3.098   4.272
94456SOL     OW85141   6.152   0.127   5.315
94456SOL    HW185142   6.229   0.117   5.371
94456SOL    HW285143   6.078   0.103   5.371
94457SOL     OW85144   9.654   1.600   2.422
94457SOL    HW185145   9.596   1.564   2.489
94457SOL    HW285146   9.621   1.564   2.340
94458SOL     OW85147   8.998   9.272   3.574
94458SOL    HW185148   8.943   9.347   3.599
94458SOL    HW285149   9.019   9.229   3.656
94459SOL     OW85150   5.321   6.871  13.288
94459SOL    HW185151   5.342   6.780  13.309
94459SOL    HW285152   5.377   6.892  13.214
94460SOL     OW85153   7.906   0.972   3.361
94460SOL    HW185154   7.953   0.890   3.376
94460SOL    HW285155   7.902   1.014   3.447
94461SOL     OW85156   3.283   8.345   7.079
94461SOL    HW185157   3.360   8.347   7.024
94461SOL    HW285158   3.213   8.313   7.022
94462SOL     OW85159  14.434  10.742  13.229
94462SOL    HW185160  14.411  10.698  13.311
94462SOL    HW285161  14.374  10.706  13.164
94463SOL     OW85162   9.846   5.797   5.125
94463SOL    HW185163   9.929   5.827   5.162
94463SOL    HW285164   9.847   5.830   5.036
94464SOL     OW85165   3.859   3.948  13.887
94464SOL    HW185166   3.850   3.964  13.793
94464SOL    HW285167   3.813   3.865  13.901
94465SOL     OW85168   9.075  12.065  12.931
94465SOL    HW185169   8.992  12.069  12.978
94465SOL    HW285170   9.074  12.143  12.875
94466SOL     OW85171   9.721   8.682  14.154
94466SOL    HW185172   9.652   8.714  14.096
94466SOL    HW285173   9.792   8.656  14.096
94467SOL     OW85174   0.908   0.488  13.505
94467SOL    HW185175   0.959   0.560  13.469
94467SOL    HW285176   0.848   0.530  13.567
94468SOL     OW85177   3.746  11.786   6.694
94468SOL    HW185178   3.768  11.869   6.652
94468SOL    HW285179   3.756  11.721   6.624
94469SOL     OW85180  12.317   4.293   2.721
94469SOL    HW185181  12.363   4.375   2.739
94469SOL    HW285182  12.386   4.227   2.721
94470SOL     OW85183   6.482  10.561   3.321
94470SOL    HW185184   6.469  10.470   3.293
94470SOL    HW285185   6.577  10.571   3.328
94471SOL     OW85186   8.552  14.319   2.232
94471SOL    HW185187   8.513  14.329   2.145
94471SOL    HW285188   8.646  14.318   2.216
94472SOL     OW85189   5.390   8.385   3.690
94472SOL    HW185190   5.384   8.394   3.785
94472SOL    HW285191   5.378   8.291   3.674
94473SOL     OW85192   0.537   3.175   0.698
94473SOL    HW185193   0.588   3.241   0.746
94473SOL    HW285194   0.595   3.099   0.693
94474SOL     OW85195   5.290  13.840   8.473
94474SOL    HW185196   5.218  13.873   8.526
94474SOL    HW285197   5.351  13.803   8.536
94475SOL     OW85198  13.476   4.599   6.205
94475SOL    HW185199  13.484   4.640   6.119
94475SOL    HW285200  13.384   4.610   6.229
94476SOL     OW85201  13.408  13.130   2.843
94476SOL    HW185202  13.462  13.051   2.846
94476SOL    HW285203  13.363  13.125   2.759
94477SOL     OW85204   3.717  13.861   7.443
94477SOL    HW185205   3.670  13.861   7.360
94477SOL    HW285206   3.742  13.952   7.457
94478SOL     OW85207   9.087   5.282  12.459
94478SOL    HW185208   9.019   5.215  12.462
94478SOL    HW285209   9.095   5.305  12.367
94479SOL     OW85210   8.272   9.607  14.305
94479SOL    HW185211   8.293   9.664  14.231
94479SOL    HW285212   8.304   9.520  14.279
94480SOL     OW85213  12.898   9.067  11.337
94480SOL    HW185214  12.936   9.125  11.402
94480SOL    HW285215  12.820   9.114  11.306
94481SOL     OW85216   0.898   5.959   3.625
94481SOL    HW185217   0.868   5.939   3.713
94481SOL    HW285218   0.899   6.054   3.620
94482SOL     OW85219   5.581   4.810   6.072
94482SOL    HW185220   5.531   4.852   6.141
94482SOL    HW285221   5.518   4.793   6.002
94483SOL     OW85222  14.010   2.583  10.827
94483SOL    HW185223  13.929   2.635  10.824
94483SOL    HW285224  13.981   2.492  10.821
94484SOL     OW85225   5.284   1.326   4.373
94484SOL    HW185226   5.211   1.271   4.344
94484SOL    HW285227   5.244   1.393   4.428
94485SOL     OW85228   6.700   5.374   8.069
94485SOL    HW185229   6.750   5.407   8.144
94485SOL    HW285230   6.674   5.285   8.094
94486SOL     OW85231  14.184   5.893  14.558
94486SOL    HW185232  14.212   5.982  14.540
94486SOL    HW285233  14.186   5.849  14.473
94487SOL     OW85234   9.259   9.153  10.959
94487SOL    HW185235   9.258   9.061  10.984
94487SOL    HW285236   9.167   9.181  10.967
94488SOL     OW85237  14.597  12.593   3.581
94488SOL    HW185238  14.632  12.598   3.670
94488SOL    HW285239  14.608  12.501   3.556
94489SOL     OW85240   3.467   0.070   8.479
94489SOL    HW185241   3.386   0.080   8.530
94489SOL    HW285242   3.446   0.004   8.414
94490SOL     OW85243  12.423   8.253   5.729
94490SOL    HW185244  12.338   8.298   5.732
94490SOL    HW285245  12.443   8.234   5.821
94491SOL     OW85246   4.754   4.817  12.365
94491SOL    HW185247   4.692   4.868  12.417
94491SOL    HW285248   4.720   4.728  12.367
94492SOL     OW85249   3.956   2.606  10.475
94492SOL    HW185250   3.990   2.560  10.552
94492SOL    HW285251   3.882   2.657  10.509
94493SOL     OW85252   8.550   8.949   1.650
94493SOL    HW185253   8.474   8.974   1.702
94493SOL    HW285254   8.613   8.916   1.715
94494SOL     OW85255   6.641   9.514   4.634
94494SOL    HW185256   6.677   9.549   4.716
94494SOL    HW285257   6.714   9.520   4.572
94495SOL     OW85258   2.170  12.120  10.336
94495SOL    HW185259   2.182  12.215  10.342
94495SOL    HW285260   2.241  12.090  10.279
94496SOL     OW85261  12.617  12.975  12.493
94496SOL    HW185262  12.695  12.966  12.548
94496SOL    HW285263  12.557  13.029  12.545
94497SOL     OW85264   0.583   3.921   6.849
94497SOL    HW185265   0.597   3.965   6.765
94497SOL    HW285266   0.521   3.851   6.828
94498SOL     OW85267  12.739   8.434   8.930
94498SOL    HW185268  12.690   8.487   8.993
94498SOL    HW285269  12.808   8.492   8.898
94499SOL     OW85270  13.262   2.018   8.273
94499SOL    HW185271  13.182   2.062   8.302
94499SOL    HW285272  13.315   2.086   8.232
94500SOL     OW85273  11.282   7.206   2.086
94500SOL    HW185274  11.308   7.195   1.994
94500SOL    HW285275  11.207   7.265   2.082
94501SOL     OW85276   6.114   4.588   6.083
94501SOL    HW185277   6.056   4.646   6.132
94501SOL    HW285278   6.128   4.514   6.141
94502SOL     OW85279   6.575   3.711   9.771
94502SOL    HW185280   6.561   3.705   9.677
94502SOL    HW285281   6.646   3.774   9.780
94503SOL     OW85282  10.906   2.723   5.854
94503SOL    HW185283  10.920   2.657   5.786
94503SOL    HW285284  10.980   2.711   5.914
94504SOL     OW85285   9.901   6.353   4.599
94504SOL    HW185286   9.873   6.268   4.632
94504SOL    HW285287   9.944   6.333   4.516
94505SOL     OW85288   7.278   0.795   1.641
94505SOL    HW185289   7.329   0.855   1.586
94505SOL    HW285290   7.261   0.720   1.584
94506SOL     OW85291   1.044   5.761  13.407
94506SOL    HW185292   0.992   5.821  13.460
94506SOL    HW285293   0.993   5.748  13.327
94507SOL     OW85294  13.947  14.327  13.167
94507SOL    HW185295  13.879  14.344  13.232
94507SOL    HW285296  13.975  14.237  13.184
94508SOL     OW85297   8.328  10.336   8.869
94508SOL    HW185298   8.386  10.267   8.837
94508SOL    HW285299   8.265  10.289   8.924
94509SOL     OW85300   1.762  13.904   5.090
94509SOL    HW185301   1.743  13.843   5.019
94509SOL    HW285302   1.695  13.973   5.082
94510SOL     OW85303   8.915   2.000  13.927
94510SOL    HW185304   8.868   1.934  13.877
94510SOL    HW285305   8.879   1.993  14.016
94511SOL     OW85306   5.158   8.021   6.562
94511SOL    HW185307   5.239   8.071   6.546
94511SOL    HW285308   5.150   8.019   6.657
94512SOL     OW85309   9.733   8.618   3.974
94512SOL    HW185310   9.652   8.601   4.023
94512SOL    HW285311   9.802   8.617   4.040
94513SOL     OW85312  13.638   9.232  13.661
94513SOL    HW185313  13.657   9.306  13.605
94513SOL    HW285314  13.689   9.248  13.741
94514SOL     OW85315  13.687   7.774  11.996
94514SOL    HW185316  13.671   7.853  12.046
94514SOL    HW285317  13.600   7.735  11.985
94515SOL     OW85318   7.468   9.621   0.200
94515SOL    HW185319   7.551   9.617   0.153
94515SOL    HW285320   7.492   9.651   0.288
94516SOL     OW85321  11.197  12.259   8.510
94516SOL    HW185322  11.257  12.185   8.519
94516SOL    HW285323  11.226  12.304   8.431
94517SOL     OW85324  11.937  10.604  10.076
94517SOL    HW185325  12.024  10.630  10.045
94517SOL    HW285326  11.942  10.510  10.087
94518SOL     OW85327  12.037   9.547   1.104
94518SOL    HW185328  12.112   9.586   1.149
94518SOL    HW285329  11.996   9.620   1.057
94519SOL     OW85330   3.905   0.448  12.717
94519SOL    HW185331   3.885   0.393  12.641
94519SOL    HW285332   4.000   0.458  12.715
94520SOL     OW85333   4.658   2.647  12.260
94520SOL    HW185334   4.572   2.672  12.296
94520SOL    HW285335   4.703   2.730  12.247
94521SOL     OW85336   1.135   2.274   8.051
94521SOL    HW185337   1.150   2.361   8.017
94521SOL    HW285338   1.208   2.259   8.112
94522SOL     OW85339   4.439  12.819   8.338
94522SOL    HW185340   4.412  12.745   8.283
94522SOL    HW285341   4.407  12.896   8.290
94523SOL     OW85342   8.763  13.241  11.792
94523SOL    HW185343   8.756  13.170  11.729
94523SOL    HW285344   8.675  13.278  11.797
94524SOL     OW85345   7.693  13.427  12.737
94524SOL    HW185346   7.748  13.350  12.719
94524SOL    HW285347   7.607  13.390  12.758
94525SOL     OW85348   4.911  10.018   4.112
94525SOL    HW185349   4.849   9.990   4.044
94525SOL    HW285350   4.937  10.106   4.086
94526SOL     OW85351   9.042  12.146   5.340
94526SOL    HW185352   9.116  12.189   5.298
94526SOL    HW285353   9.080  12.067   5.380
94527SOL     OW85354   3.134   7.681   3.795
94527SOL    HW185355   3.227   7.678   3.774
94527SOL    HW285356   3.091   7.633   3.724
94528SOL     OW85357  11.074  10.171   7.562
94528SOL    HW185358  11.169  10.156   7.557
94528SOL    HW285359  11.041  10.098   7.616
94529SOL     OW85360   9.035   9.353  13.804
94529SOL    HW185361   9.121   9.394  13.798
94529SOL    HW285362   9.013   9.330  13.714
94530SOL     OW85363  10.520   0.282   6.481
94530SOL    HW185364  10.511   0.291   6.576
94530SOL    HW285365  10.614   0.292   6.465
94531SOL     OW85366   9.935   2.164   9.512
94531SOL    HW185367   9.975   2.102   9.450
94531SOL    HW285368   9.852   2.123   9.536
94532SOL     OW85369   0.901  11.583  10.173
94532SOL    HW185370   0.922  11.507  10.119
94532SOL    HW285371   0.968  11.583  10.241
94533SOL     OW85372   3.369   0.708   3.369
94533SOL    HW185373   3.375   0.724   3.463
94533SOL    HW285374   3.393   0.792   3.329
94534SOL     OW85375   3.795  14.525   8.076
94534SOL    HW185376   3.735  14.451   8.077
94534SOL    HW285377   3.810  14.544   7.984
94535SOL     OW85378  10.527   2.377   4.269
94535SOL    HW185379  10.494   2.411   4.352
94535SOL    HW285380  10.621   2.365   4.284
94536SOL     OW85381   7.453   0.155  14.791
94536SOL    HW185382   7.441   0.229  14.851
94536SOL    HW285383   7.423   0.079  14.840
94537SOL     OW85384   7.527  11.098  11.803
94537SOL    HW185385   7.538  11.029  11.869
94537SOL    HW285386   7.525  11.052  11.720
94538SOL     OW85387   8.698   0.460   6.013
94538SOL    HW185388   8.784   0.421   6.029
94538SOL    HW285389   8.691   0.466   5.918
94539SOL     OW85390  10.618  13.024  12.537
94539SOL    HW185391  10.565  12.966  12.483
94539SOL    HW285392  10.563  13.101  12.551
94540SOL     OW85393   0.952   8.755  13.675
94540SOL    HW185394   0.920   8.675  13.717
94540SOL    HW285395   1.009   8.724  13.604
94541SOL     OW85396   8.474   1.426   2.691
94541SOL    HW185397   8.462   1.334   2.714
94541SOL    HW285398   8.446   1.473   2.770
94542SOL     OW85399   5.661  11.479  12.157
94542SOL    HW185400   5.678  11.388  12.132
94542SOL    HW285401   5.744  11.525  12.140
94543SOL     OW85402  13.372   5.238   7.224
94543SOL    HW185403  13.339   5.314   7.272
94543SOL    HW285404  13.326   5.240   7.141
94544SOL     OW85405  14.282  10.897  14.493
94544SOL    HW185406  14.299  10.934  14.579
94544SOL    HW285407  14.192  10.923  14.472
94545SOL     OW85408   9.164   0.828  14.143
94545SOL    HW185409   9.144   0.861  14.231
94545SOL    HW285410   9.146   0.734  14.147
94546SOL     OW85411  11.128   4.511   1.979
94546SOL    HW185412  11.085   4.428   1.998
94546SOL    HW285413  11.065   4.560   1.926
94547SOL     OW85414   0.719  14.226   2.737
94547SOL    HW185415   0.750  14.137   2.749
94547SOL    HW285416   0.725  14.265   2.824
94548SOL     OW85417   4.588  11.724   9.476
94548SOL    HW185418   4.615  11.690   9.391
94548SOL    HW285419   4.518  11.786   9.456
94549SOL     OW85420   6.119   6.970   9.473
94549SOL    HW185421   6.084   6.888   9.440
94549SOL    HW285422   6.079   7.037   9.418
94550SOL     OW85423  12.069  13.463   6.873
94550SOL    HW185424  11.985  13.459   6.828
94550SOL    HW285425  12.047  13.475   6.966
94551SOL     OW85426   7.138   3.764   5.347
94551SOL    HW185427   7.161   3.694   5.286
94551SOL    HW285428   7.175   3.843   5.308
94552SOL     OW85429   1.871  10.382   6.112
94552SOL    HW185430   1.940  10.441   6.143
94552SOL    HW285431   1.912  10.333   6.042
94553SOL     OW85432   6.279  10.994   4.502
94553SOL    HW185433   6.237  10.910   4.520
94553SOL    HW285434   6.222  11.058   4.545
94554SOL     OW85435   8.079   5.905   6.819
94554SOL    HW185436   8.041   5.952   6.893
94554SOL    HW285437   8.151   5.855   6.858
94555SOL     OW85438   1.192   6.644  10.590
94555SOL    HW185439   1.103   6.610  10.595
94555SOL    HW285440   1.234   6.593  10.521
94556SOL     OW85441   4.674   2.590   7.756
94556SOL    HW185442   4.593   2.637   7.734
94556SOL    HW285443   4.730   2.657   7.796
94557SOL     OW85444  10.504   4.612   9.805
94557SOL    HW185445  10.579   4.573   9.850
94557SOL    HW285446  10.486   4.692   9.855
94558SOL     OW85447  12.444   9.123   4.634
94558SOL    HW185448  12.389   9.078   4.698
94558SOL    HW285449  12.390   9.196   4.605
94559SOL     OW85450  13.150   0.857   7.755
94559SOL    HW185451  13.230   0.861   7.808
94559SOL    HW285452  13.177   0.892   7.670
94560SOL     OW85453   6.224   3.405  10.837
94560SOL    HW185454   6.214   3.465  10.912
94560SOL    HW285455   6.135   3.395  10.803
94561SOL     OW85456  13.561   0.035   1.935
94561SOL    HW185457  13.645  14.872   1.912
94561SOL    HW285458  13.501  14.839   1.943
94562SOL     OW85459  10.159  13.771   4.420
94562SOL    HW185460  10.239  13.791   4.372
94562SOL    HW285461  10.109  13.853   4.418
94563SOL     OW85462  14.127   0.986   1.288
94563SOL    HW185463  14.184   0.919   1.327
94563SOL    HW285464  14.136   1.062   1.345
94564SOL     OW85465   1.734  10.677   5.253
94564SOL    HW185466   1.822  10.694   5.219
94564SOL    HW285467   1.728  10.582   5.257
94565SOL     OW85468   3.307   0.669   4.810
94565SOL    HW185469   3.386   0.617   4.823
94565SOL    HW285470   3.340   0.755   4.783
94566SOL     OW85471   2.535   2.440  12.832
94566SOL    HW185472   2.576   2.469  12.913
94566SOL    HW285473   2.584   2.483  12.762
94567SOL     OW85474   3.373   6.279   5.367
94567SOL    HW185475   3.392   6.277   5.461
94567SOL    HW285476   3.417   6.202   5.332
94568SOL     OW85477   5.464  14.022   7.720
94568SOL    HW185478   5.433  14.064   7.640
94568SOL    HW285479   5.558  14.013   7.708
94569SOL     OW85480  14.794  13.027   3.543
94569SOL    HW185481   0.004  12.991   3.531
94569SOL    HW285482  14.748  12.960   3.594
94570SOL     OW85483  10.228   1.064  13.703
94570SOL    HW185484  10.209   1.075  13.610
94570SOL    HW285485  10.277   0.982  13.708
94571SOL     OW85486  11.848   1.443  11.006
94571SOL    HW185487  11.895   1.397  11.076
94571SOL    HW285488  11.864   1.390  10.928
94572SOL     OW85489   8.725   4.939   7.365
94572SOL    HW185490   8.800   4.969   7.314
94572SOL    HW285491   8.742   4.971   7.454
94573SOL     OW85492   0.375   5.886  13.157
94573SOL    HW185493   0.415   5.843  13.232
94573SOL    HW285494   0.367   5.978  13.183
94574SOL     OW85495   6.620   9.726   9.460
94574SOL    HW185496   6.526   9.725   9.444
94574SOL    HW285497   6.653   9.648   9.416
94575SOL     OW85498  14.226  11.603  11.236
94575SOL    HW185499  14.146  11.648  11.264
94575SOL    HW285500  14.296  11.667  11.252
94576SOL     OW85501   1.444   5.022  14.090
94576SOL    HW185502   1.465   4.955  14.155
94576SOL    HW285503   1.492   4.995  14.012
94577SOL     OW85504   2.288  12.828   9.340
94577SOL    HW185505   2.280  12.845   9.246
94577SOL    HW285506   2.198  12.832   9.372
94578SOL     OW85507   8.995   6.103  14.769
94578SOL    HW185508   9.016   6.078  14.679
94578SOL    HW285509   9.066   6.067  14.821
94579SOL     OW85510  13.941   6.012  10.482
94579SOL    HW185511  13.863   5.971  10.445
94579SOL    HW285512  14.014   5.957  10.452
94580SOL     OW85513   1.360   6.875   2.885
94580SOL    HW185514   1.381   6.955   2.838
94580SOL    HW285515   1.265   6.876   2.893
94581SOL     OW85516   8.589   0.537  11.251
94581SOL    HW185517   8.634   0.607  11.203
94581SOL    HW285518   8.644   0.460  11.236
94582SOL     OW85519  13.337   7.553  12.955
94582SOL    HW185520  13.368   7.615  13.020
94582SOL    HW285521  13.410   7.493  12.940
94583SOL     OW85522   7.732   2.100   7.959
94583SOL    HW185523   7.692   2.183   7.934
94583SOL    HW285524   7.696   2.036   7.898
94584SOL     OW85525   6.441   2.065   0.986
94584SOL    HW185526   6.507   2.125   1.020
94584SOL    HW285527   6.360   2.092   1.028
94585SOL     OW85528  14.350  11.422   2.959
94585SOL    HW185529  14.313  11.477   3.028
94585SOL    HW285530  14.333  11.332   2.989
94586SOL     OW85531   1.134   7.668   2.417
94586SOL    HW185532   1.191   7.640   2.345
94586SOL    HW285533   1.191   7.723   2.471
94587SOL     OW85534  13.556  10.137  10.907
94587SOL    HW185535  13.621  10.071  10.929
94587SOL    HW285536  13.490  10.130  10.976
94588SOL     OW85537   3.903   3.806   4.162
94588SOL    HW185538   3.965   3.875   4.141
94588SOL    HW285539   3.843   3.802   4.088
94589SOL     OW85540  14.030   5.016   9.392
94589SOL    HW185541  14.122   4.988   9.387
94589SOL    HW285542  14.020   5.049   9.481
94590SOL     OW85543   1.450  12.278  12.016
94590SOL    HW185544   1.422  12.193  11.985
94590SOL    HW285545   1.540  12.264  12.047
94591SOL     OW85546   8.596  10.285  13.073
94591SOL    HW185547   8.516  10.258  13.028
94591SOL    HW285548   8.566  10.334  13.150
94592SOL     OW85549  12.949  11.957   2.432
94592SOL    HW185550  12.894  11.944   2.355
94592SOL    HW285551  13.030  11.909   2.411
94593SOL     OW85552   9.806   8.581  11.072
94593SOL    HW185553   9.803   8.663  11.121
94593SOL    HW285554   9.715   8.552  11.070
94594SOL     OW85555   8.523  14.188  14.175
94594SOL    HW185556   8.456  14.247  14.142
94594SOL    HW285557   8.528  14.206  14.268
94595SOL     OW85558   0.319   7.879  12.523
94595SOL    HW185559   0.318   7.938  12.447
94595SOL    HW285560   0.386   7.914  12.580
94596SOL     OW85561   2.481   7.800  10.707
94596SOL    HW185562   2.576   7.802  10.709
94596SOL    HW285563   2.454   7.866  10.771
94597SOL     OW85564  13.787   1.215   9.636
94597SOL    HW185565  13.752   1.164   9.563
94597SOL    HW285566  13.868   1.253   9.602
94598SOL     OW85567   2.064   8.523   8.034
94598SOL    HW185568   2.097   8.508   8.122
94598SOL    HW285569   2.005   8.598   8.044
94599SOL     OW85570   2.805   1.536   0.977
94599SOL    HW185571   2.808   1.457   1.031
94599SOL    HW285572   2.714   1.565   0.982
94600SOL     OW85573  14.322   5.565   5.895
94600SOL    HW185574  14.274   5.540   5.815
94600SOL    HW285575  14.333   5.660   5.887
94601SOL     OW85576   7.350  14.189  11.363
94601SOL    HW185577   7.368  14.223  11.450
94601SOL    HW285578   7.308  14.104  11.378
94602SOL     OW85579  12.521   3.028   1.961
94602SOL    HW185580  12.436   3.011   1.923
94602SOL    HW285581  12.533   3.123   1.952
94603SOL     OW85582   7.474   4.687   9.957
94603SOL    HW185583   7.485   4.782   9.963
94603SOL    HW285584   7.385   4.674   9.925
94604SOL     OW85585  11.962   7.524  10.803
94604SOL    HW185586  11.917   7.509  10.886
94604SOL    HW285587  12.011   7.606  10.818
94605SOL     OW85588   9.850   5.300   2.421
94605SOL    HW185589   9.946   5.302   2.423
94605SOL    HW285590   9.825   5.289   2.512
94606SOL     OW85591   4.186   8.587   9.196
94606SOL    HW185592   4.174   8.659   9.257
94606SOL    HW285593   4.139   8.514   9.235
94607SOL     OW85594  14.056   0.700   1.831
94607SOL    HW185595  14.123   0.742   1.778
94607SOL    HW285596  13.986   0.679   1.769
94608SOL     OW85597   2.410   8.358   6.362
94608SOL    HW185598   2.396   8.448   6.394
94608SOL    HW285599   2.505   8.353   6.348
94609SOL     OW85600   9.896  13.262   6.728
94609SOL    HW185601   9.990  13.247   6.715
94609SOL    HW285602   9.874  13.330   6.665
94610SOL     OW85603   7.308   6.233   3.969
94610SOL    HW185604   7.385   6.282   3.943
94610SOL    HW285605   7.327   6.142   3.945
94611SOL     OW85606   0.475   1.585   2.378
94611SOL    HW185607   0.473   1.646   2.304
94611SOL    HW285608   0.566   1.556   2.383
94612SOL     OW85609  11.173   4.396  11.835
94612SOL    HW185610  11.093   4.360  11.797
94612SOL    HW285611  11.205   4.458  11.771
94613SOL     OW85612   9.144   9.523   4.096
94613SOL    HW185613   9.074   9.580   4.129
94613SOL    HW285614   9.101   9.465   4.034
94614SOL     OW85615   2.972   2.026  12.564
94614SOL    HW185616   2.939   1.936  12.560
94614SOL    HW285617   2.959   2.060  12.476
94615SOL     OW85618   6.215   3.093  10.240
94615SOL    HW185619   6.138   3.042  10.217
94615SOL    HW285620   6.196   3.127  10.328
94616SOL     OW85621   5.571   9.747   3.686
94616SOL    HW185622   5.491   9.711   3.648
94616SOL    HW285623   5.623   9.775   3.612
94617SOL     OW85624   5.187  12.320   3.823
94617SOL    HW185625   5.239  12.397   3.843
94617SOL    HW285626   5.138  12.302   3.904
94618SOL     OW85627  12.195   0.040   3.297
94618SOL    HW185628  12.273  14.863   3.308
94618SOL    HW285629  12.230   0.130   3.296
94619SOL     OW85630  12.082   5.289  14.016
94619SOL    HW185631  12.008   5.229  14.025
94619SOL    HW285632  12.082   5.313  13.923
94620SOL     OW85633   6.856   3.531  13.391
94620SOL    HW185634   6.896   3.614  13.416
94620SOL    HW285635   6.803   3.505  13.467
94621SOL     OW85636   6.131   7.073   5.863
94621SOL    HW185637   6.060   7.011   5.879
94621SOL    HW285638   6.096   7.132   5.796
94622SOL     OW85639   7.031   9.657  13.323
94622SOL    HW185640   7.015   9.654  13.417
94622SOL    HW285641   6.968   9.721  13.290
94623SOL     OW85642  10.145   9.500   8.593
94623SOL    HW185643  10.182   9.540   8.515
94623SOL    HW285644  10.052   9.522   8.590
94624SOL     OW85645   3.178  11.243   1.761
94624SOL    HW185646   3.269  11.242   1.731
94624SOL    HW285647   3.138  11.167   1.718
94625SOL     OW85648   2.094   0.293   9.345
94625SOL    HW185649   2.002   0.315   9.329
94625SOL    HW285650   2.096   0.197   9.343
94626SOL     OW85651  10.169   6.261   2.520
94626SOL    HW185652  10.209   6.261   2.608
94626SOL    HW285653  10.241   6.285   2.461
94627SOL     OW85654  13.077  10.924  13.116
94627SOL    HW185655  13.096  10.832  13.095
94627SOL    HW285656  13.140  10.946  13.185
94628SOL     OW85657  10.198   2.684   6.553
94628SOL    HW185658  10.218   2.680   6.647
94628SOL    HW285659  10.277   2.653   6.510
94629SOL     OW85660  12.927   6.591   7.069
94629SOL    HW185661  12.861   6.537   7.112
94629SOL    HW285662  12.888   6.678   7.064
94630SOL     OW85663  11.083   8.914   4.833
94630SOL    HW185664  11.007   8.973   4.833
94630SOL    HW285665  11.052   8.835   4.876
94631SOL     OW85666  12.757   5.515   2.641
94631SOL    HW185667  12.839   5.540   2.598
94631SOL    HW285668  12.778   5.516   2.734
94632SOL     OW85669   6.376   6.115   9.225
94632SOL    HW185670   6.315   6.162   9.168
94632SOL    HW285671   6.359   6.023   9.208
94633SOL     OW85672  14.379  12.591  14.369
94633SOL    HW185673  14.394  12.545  14.451
94633SOL    HW285674  14.414  12.533  14.302
94634SOL     OW85675  11.278  10.243  13.317
94634SOL    HW185676  11.339  10.191  13.265
94634SOL    HW285677  11.195  10.196  13.311
94635SOL     OW85678  13.781   3.620  12.556
94635SOL    HW185679  13.687   3.602  12.568
94635SOL    HW285680  13.784   3.712  12.530
94636SOL     OW85681   8.404   3.263   2.258
94636SOL    HW185682   8.414   3.170   2.281
94636SOL    HW285683   8.339   3.296   2.320
94637SOL     OW85684   3.877   3.478   5.628
94637SOL    HW185685   3.933   3.461   5.553
94637SOL    HW285686   3.866   3.573   5.629
94638SOL     OW85687  12.492  12.071   2.012
94638SOL    HW185688  12.566  12.042   1.959
94638SOL    HW285689  12.417  12.065   1.954
94639SOL     OW85690   2.692   8.803   6.059
94639SOL    HW185691   2.767   8.805   5.999
94639SOL    HW285692   2.665   8.711   6.062
94640SOL     OW85693  12.555   6.704   9.766
94640SOL    HW185694  12.582   6.796   9.767
94640SOL    HW285695  12.486   6.700   9.699
94641SOL     OW85696   4.058   1.248   2.521
94641SOL    HW185697   3.975   1.291   2.503
94641SOL    HW285698   4.035   1.171   2.572
94642SOL     OW85699  13.084   7.083   2.522
94642SOL    HW185700  13.088   6.988   2.516
94642SOL    HW285701  13.126   7.104   2.605
94643SOL     OW85702   9.949  11.642   3.639
94643SOL    HW185703   9.908  11.556   3.630
94643SOL    HW285704   9.891  11.701   3.590
94644SOL     OW85705  10.317  12.417   7.402
94644SOL    HW185706  10.257  12.362   7.453
94644SOL    HW285707  10.402  12.372   7.409
94645SOL     OW85708  10.978   9.285   4.390
94645SOL    HW185709  10.991   9.380   4.386
94645SOL    HW285710  11.048   9.253   4.447
94646SOL     OW85711   1.664   6.590  14.386
94646SOL    HW185712   1.573   6.609  14.408
94646SOL    HW285713   1.677   6.500  14.417
94647SOL     OW85714   5.544  11.261  11.861
94647SOL    HW185715   5.523  11.354  11.871
94647SOL    HW285716   5.582  11.236  11.945
94648SOL     OW85717  13.780   6.134   9.639
94648SOL    HW185718  13.706   6.080   9.665
94648SOL    HW285719  13.843   6.125   9.711
94649SOL     OW85720   3.704   9.390  10.308
94649SOL    HW185721   3.623   9.438  10.326
94649SOL    HW285722   3.750   9.388  10.392
94650SOL     OW85723   6.559   8.966  10.420
94650SOL    HW185724   6.572   8.876  10.450
94650SOL    HW285725   6.470   8.988  10.449
94651SOL     OW85726   7.099   4.847   3.064
94651SOL    HW185727   7.183   4.876   3.028
94651SOL    HW285728   7.038   4.917   3.043
94652SOL     OW85729   9.125  10.470   8.262
94652SOL    HW185730   9.066  10.424   8.203
94652SOL    HW285731   9.202  10.490   8.208
94653SOL     OW85732  10.406   5.055  12.564
94653SOL    HW185733  10.474   4.993  12.591
94653SOL    HW285734  10.324   5.016  12.597
94654SOL     OW85735  12.374   3.838   7.924
94654SOL    HW185736  12.388   3.933   7.931
94654SOL    HW285737  12.286   3.824   7.959
94655SOL     OW85738   6.530   4.210   5.256
94655SOL    HW185739   6.473   4.163   5.317
94655SOL    HW285740   6.494   4.299   5.255
94656SOL     OW85741  12.307   0.676   4.403
94656SOL    HW185742  12.388   0.624   4.401
94656SOL    HW285743  12.320   0.742   4.335
94657SOL     OW85744  13.934   7.494   4.360
94657SOL    HW185745  14.021   7.460   4.384
94657SOL    HW285746  13.874   7.449   4.419
94658SOL     OW85747   8.517   9.914   1.997
94658SOL    HW185748   8.552   9.904   2.086
94658SOL    HW285749   8.422   9.909   2.008
94659SOL     OW85750  11.917   0.977   3.472
94659SOL    HW185751  11.842   1.003   3.419
94659SOL    HW285752  11.912   0.882   3.477
94660SOL     OW85753   3.021   0.925  11.075
94660SOL    HW185754   3.006   1.011  11.038
94660SOL    HW285755   3.091   0.938  11.139
94661SOL     OW85756   1.056   7.260   1.876
94661SOL    HW185757   1.081   7.258   1.968
94661SOL    HW285758   1.051   7.168   1.851
94662SOL     OW85759   2.299  10.478  13.253
94662SOL    HW185760   2.205  10.466  13.240
94662SOL    HW285761   2.306  10.525  13.336
94663SOL     OW85762   0.726  11.841  14.254
94663SOL    HW185763   0.749  11.748  14.249
94663SOL    HW285764   0.793  11.878  14.312
94664SOL     OW85765   8.424   4.976  12.612
94664SOL    HW185766   8.495   4.927  12.654
94664SOL    HW285767   8.371   4.909  12.568
94665SOL     OW85768   6.441   3.349   4.740
94665SOL    HW185769   6.377   3.411   4.705
94665SOL    HW285770   6.526   3.384   4.712
94666SOL     OW85771   5.507   7.410   4.455
94666SOL    HW185772   5.443   7.479   4.471
94666SOL    HW285773   5.587   7.456   4.431
94667SOL     OW85774  11.835   6.659   2.142
94667SOL    HW185775  11.897   6.730   2.154
94667SOL    HW285776  11.889   6.584   2.116
94668SOL     OW85777  11.165   3.424   2.261
94668SOL    HW185778  11.260   3.418   2.270
94668SOL    HW285779  11.134   3.335   2.274
94669SOL     OW85780   1.102   5.553  11.456
94669SOL    HW185781   1.162   5.559  11.531
94669SOL    HW285782   1.024   5.601  11.485
94670SOL     OW85783  13.596   0.264  14.679
94670SOL    HW185784  13.555   0.296  14.759
94670SOL    HW285785  13.623   0.343  14.632
94671SOL     OW85786   0.446   2.789  12.564
94671SOL    HW185787   0.436   2.817  12.655
94671SOL    HW285788   0.373   2.729  12.549
94672SOL     OW85789  13.277   8.020  10.589
94672SOL    HW185790  13.205   7.975  10.634
94672SOL    HW285791  13.233   8.079  10.527
94673SOL     OW85792   3.836   4.451  13.876
94673SOL    HW185793   3.853   4.359  13.895
94673SOL    HW285794   3.754   4.470  13.921
94674SOL     OW85795  12.993  12.940   8.338
94674SOL    HW185796  12.898  12.941   8.350
94674SOL    HW285797  13.017  13.033   8.336
94675SOL     OW85798   6.817  14.285   3.470
94675SOL    HW185799   6.827  14.378   3.490
94675SOL    HW285800   6.906  14.254   3.454
94676SOL     OW85801   5.532  11.523  10.147
94676SOL    HW185802   5.611  11.499  10.197
94676SOL    HW285803   5.511  11.611  10.177
94677SOL     OW85804  10.384  11.261   9.794
94677SOL    HW185805  10.294  11.276   9.823
94677SOL    HW285806  10.381  11.275   9.699
94678SOL     OW85807   1.175   6.696   3.533
94678SOL    HW185808   1.270   6.704   3.536
94678SOL    HW285809   1.153   6.637   3.605
94679SOL     OW85810   1.620   1.615  14.046
94679SOL    HW185811   1.644   1.655  13.962
94679SOL    HW285812   1.590   1.528  14.022
94680SOL     OW85813   5.659   7.954  13.555
94680SOL    HW185814   5.606   8.009  13.497
94680SOL    HW285815   5.747   7.956  13.516
94681SOL     OW85816   8.117  14.616   6.852
94681SOL    HW185817   8.118  14.671   6.774
94681SOL    HW285818   8.210  14.600   6.871
94682SOL     OW85819   6.148   3.386   8.520
94682SOL    HW185820   6.096   3.365   8.442
94682SOL    HW285821   6.104   3.462   8.558
94683SOL     OW85822   4.952   4.118   6.885
94683SOL    HW185823   4.977   4.204   6.919
94683SOL    HW285824   4.895   4.137   6.811
94684SOL     OW85825  13.507   6.947   4.904
94684SOL    HW185826  13.593   6.905   4.897
94684SOL    HW285827  13.446   6.884   4.866
94685SOL     OW85828  10.924   8.732   4.283
94685SOL    HW185829  10.921   8.641   4.253
94685SOL    HW285830  10.881   8.731   4.368
94686SOL     OW85831   7.622   2.475  13.004
94686SOL    HW185832   7.640   2.473  13.098
94686SOL    HW285833   7.682   2.540  12.969
94687SOL     OW85834   1.256   4.840   6.496
94687SOL    HW185835   1.239   4.918   6.550
94687SOL    HW285836   1.310   4.872   6.424
94688SOL     OW85837  11.833  14.597   3.432
94688SOL    HW185838  11.860  14.574   3.343
94688SOL    HW285839  11.750  14.550   3.444
94689SOL     OW85840   6.086   6.582   9.057
94689SOL    HW185841   6.117   6.575   9.147
94689SOL    HW285842   6.165   6.576   9.003
94690SOL     OW85843  14.168  12.620   3.048
94690SOL    HW185844  14.236  12.567   3.006
94690SOL    HW285845  14.217  12.689   3.093
94691SOL     OW85846   6.855  11.691  12.387
94691SOL    HW185847   6.816  11.607  12.362
94691SOL    HW285848   6.933  11.667  12.437
94692SOL     OW85849  11.919   4.456   1.170
94692SOL    HW185850  11.966   4.373   1.184
94692SOL    HW285851  11.843   4.432   1.116
94693SOL     OW85852   5.461  14.214  14.228
94693SOL    HW185853   5.434  14.136  14.180
94693SOL    HW285854   5.549  14.193  14.260
94694SOL     OW85855   1.842   3.090   8.056
94694SOL    HW185856   1.866   3.118   7.967
94694SOL    HW285857   1.756   3.130   8.072
94695SOL     OW85858  10.392   5.900   5.170
94695SOL    HW185859  10.460   5.967   5.171
94695SOL    HW285860  10.423   5.834   5.232
94696SOL     OW85861   5.603  12.810   7.826
94696SOL    HW185862   5.517  12.794   7.789
94696SOL    HW285863   5.645  12.724   7.829
94697SOL     OW85864  10.278  12.051   9.240
94697SOL    HW185865  10.183  12.041   9.248
94697SOL    HW285866  10.298  12.023   9.151
94698SOL     OW85867   3.078  12.255   5.303
94698SOL    HW185868   3.080  12.284   5.212
94698SOL    HW285869   3.127  12.322   5.351
94699SOL     OW85870   4.176   5.880   4.404
94699SOL    HW185871   4.248   5.828   4.438
94699SOL    HW285872   4.179   5.866   4.309
94700SOL     OW85873  14.162  10.071   7.860
94700SOL    HW185874  14.141  10.158   7.894
94700SOL    HW285875  14.076  10.033   7.840
94701SOL     OW85876   6.682   1.722   2.050
94701SOL    HW185877   6.706   1.657   1.983
94701SOL    HW285878   6.673   1.671   2.130
94702SOL     OW85879   4.292   9.161  11.950
94702SOL    HW185880   4.237   9.174  12.028
94702SOL    HW285881   4.252   9.088  11.904
94703SOL     OW85882  12.326   7.183   2.859
94703SOL    HW185883  12.297   7.264   2.817
94703SOL    HW285884  12.413   7.204   2.894
94704SOL     OW85885   4.466   7.809  10.933
94704SOL    HW185886   4.383   7.786  10.973
94704SOL    HW285887   4.461   7.774  10.844
94705SOL     OW85888   0.102   0.470  10.393
94705SOL    HW185889   0.048   0.510  10.324
94705SOL    HW285890   0.074   0.514  10.473
94706SOL     OW85891   3.899   1.835   9.567
94706SOL    HW185892   3.913   1.879   9.651
94706SOL    HW285893   3.987   1.816   9.535
94707SOL     OW85894  13.931   7.791   0.345
94707SOL    HW185895  14.020   7.816   0.322
94707SOL    HW285896  13.907   7.849   0.417
94708SOL     OW85897   2.163   4.001  13.223
94708SOL    HW185898   2.257   4.013  13.210
94708SOL    HW285899   2.127   3.993  13.135
94709SOL     OW85900   4.673  14.816  11.626
94709SOL    HW185901   4.657  14.810  11.532
94709SOL    HW285902   4.752  14.871  11.633
94710SOL     OW85903   5.847   9.097  12.572
94710SOL    HW185904   5.930   9.078  12.529
94710SOL    HW285905   5.831   9.021  12.628
94711SOL     OW85906   1.527   4.229   2.763
94711SOL    HW185907   1.574   4.149   2.741
94711SOL    HW285908   1.593   4.287   2.800
94712SOL     OW85909  11.361   6.923  11.319
94712SOL    HW185910  11.360   6.836  11.279
94712SOL    HW285911  11.301   6.915  11.393
94713SOL     OW85912  11.690  12.922   3.790
94713SOL    HW185913  11.624  12.860   3.821
94713SOL    HW285914  11.752  12.868   3.740
94714SOL     OW85915  13.121   4.036   6.048
94714SOL    HW185916  13.084   4.087   6.120
94714SOL    HW285917  13.122   4.098   5.974
94715SOL     OW85918   0.528   6.522   2.996
94715SOL    HW185919   0.589   6.501   3.066
94715SOL    HW285920   0.534   6.617   2.985
94716SOL     OW85921   9.965   1.882  14.368
94716SOL    HW185922  10.055   1.904  14.343
94716SOL    HW285923   9.964   1.893  14.463
94717SOL     OW85924  13.398   4.804   4.333
94717SOL    HW185925  13.355   4.718   4.339
94717SOL    HW285926  13.389   4.841   4.421
94718SOL     OW85927   2.142   7.862   0.055
94718SOL    HW185928   2.116   7.788   0.001
94718SOL    HW285929   2.062   7.887   0.102
94719SOL     OW85930  11.659  11.484  13.834
94719SOL    HW185931  11.705  11.533  13.766
94719SOL    HW285932  11.699  11.396  13.832
94720SOL     OW85933   1.760   0.283   1.491
94720SOL    HW185934   1.822   0.303   1.561
94720SOL    HW285935   1.677   0.268   1.536
94721SOL     OW85936   6.606  11.914   2.746
94721SOL    HW185937   6.559  11.843   2.702
94721SOL    HW285938   6.634  11.972   2.675
94722SOL     OW85939  13.743  12.546   8.365
94722SOL    HW185940  13.832  12.558   8.397
94722SOL    HW285941  13.723  12.454   8.383
94723SOL     OW85942   1.296   3.660   7.994
94723SOL    HW185943   1.342   3.734   8.036
94723SOL    HW285944   1.246   3.620   8.065
94724SOL     OW85945   8.346   7.085   6.621
94724SOL    HW185946   8.408   7.124   6.560
94724SOL    HW285947   8.261   7.120   6.595
94725SOL     OW85948   2.825   7.809   0.213
94725SOL    HW185949   2.839   7.894   0.171
94725SOL    HW285950   2.730   7.796   0.208
94726SOL     OW85951  14.839   2.240  12.501
94726SOL    HW185952  14.795   2.261  12.584
94726SOL    HW285953  14.865   2.325  12.466
94727SOL     OW85954   0.486  12.241   7.680
94727SOL    HW185955   0.413  12.191   7.716
94727SOL    HW285956   0.552  12.241   7.750
94728SOL     OW85957   1.663   0.578   8.017
94728SOL    HW185958   1.601   0.506   8.001
94728SOL    HW285959   1.623   0.654   7.976
94729SOL     OW85960   2.573  12.159   1.728
94729SOL    HW185961   2.567  12.086   1.667
94729SOL    HW285962   2.505  12.141   1.794
94730SOL     OW85963   8.127   3.653   1.147
94730SOL    HW185964   8.126   3.581   1.084
94730SOL    HW285965   8.151   3.730   1.095
94731SOL     OW85966   3.065   7.626   9.537
94731SOL    HW185967   3.158   7.606   9.545
94731SOL    HW285968   3.053   7.708   9.586
94732SOL     OW85969   1.498   6.817   4.333
94732SOL    HW185970   1.458   6.815   4.246
94732SOL    HW285971   1.424   6.807   4.394
94733SOL     OW85972   6.628  12.302  12.123
94733SOL    HW185973   6.606  12.358  12.049
94733SOL    HW285974   6.721  12.318  12.139
94734SOL     OW85975   0.486  14.020   3.633
94734SOL    HW185976   0.548  13.966   3.683
94734SOL    HW285977   0.411  14.031   3.692
94735SOL     OW85978   1.081   8.720  11.817
94735SOL    HW185979   1.146   8.784  11.787
94735SOL    HW285980   1.096   8.712  11.911
94736SOL     OW85981  13.654  11.613   7.191
94736SOL    HW185982  13.705  11.629   7.270
94736SOL    HW285983  13.718  11.611   7.120
94737SOL     OW85984   9.941   5.021  10.084
94737SOL    HW185985   9.949   5.115  10.068
94737SOL    HW285986  10.023   4.998  10.128
94738SOL     OW85987   1.124  13.116  13.547
94738SOL    HW185988   1.176  13.149  13.620
94738SOL    HW285989   1.034  13.139  13.569
94739SOL     OW85990   8.495  10.763   1.330
94739SOL    HW185991   8.472  10.748   1.421
94739SOL    HW285992   8.534  10.681   1.301
94740SOL     OW85993   2.421   7.341  12.776
94740SOL    HW185994   2.396   7.363  12.866
94740SOL    HW285995   2.359   7.389  12.721
94741SOL     OW85996   9.248   1.869  12.345
94741SOL    HW185997   9.309   1.903  12.280
94741SOL    HW285998   9.298   1.866  12.426
94742SOL     OW85999  13.376   9.593  11.727
94742SOL    HW186000  13.421   9.644  11.795
94742SOL    HW286001  13.311   9.541  11.775
94743SOL     OW86002   1.356   6.589   2.837
94743SOL    HW186003   1.282   6.571   2.895
94743SOL    HW286004   1.385   6.677   2.862
94744SOL     OW86005   9.759  12.616  14.493
94744SOL    HW186006   9.754  12.663  14.576
94744SOL    HW286007   9.761  12.524  14.518
94745SOL     OW86008   5.580  14.609   5.428
94745SOL    HW186009   5.499  14.611   5.377
94745SOL    HW286010   5.560  14.658   5.507
94746SOL     OW86011   9.370   6.084  10.535
94746SOL    HW186012   9.416   6.004  10.559
94746SOL    HW286013   9.373   6.086  10.439
94747SOL     OW86014   9.040   0.036   7.823
94747SOL    HW186015   9.100  14.862   7.770
94747SOL    HW286016   8.954  14.873   7.810
94748SOL     OW86017  10.876  14.846  10.567
94748SOL    HW186018  10.954   0.011  10.602
94748SOL    HW286019  10.831  14.812  10.644
94749SOL     OW86020  11.779   8.746  10.255
94749SOL    HW186021  11.780   8.654  10.283
94749SOL    HW286022  11.687   8.772  10.263
94750SOL     OW86023   6.820   7.918  11.058
94750SOL    HW186024   6.907   7.957  11.062
94750SOL    HW286025   6.836   7.826  11.040
94751SOL     OW86026  10.982   5.874   3.917
94751SOL    HW186027  11.008   5.965   3.929
94751SOL    HW286028  11.015   5.829   3.995
94752SOL     OW86029   4.831   1.062  13.305
94752SOL    HW186030   4.925   1.071  13.321
94752SOL    HW286031   4.795   1.030  13.387
94753SOL     OW86032   3.145   1.190  11.609
94753SOL    HW186033   3.098   1.177  11.692
94753SOL    HW286034   3.227   1.232  11.635
94754SOL     OW86035   3.614   4.683  11.146
94754SOL    HW186036   3.521   4.661  11.151
94754SOL    HW286037   3.626   4.720  11.058
94755SOL     OW86038   3.472  10.853   9.947
94755SOL    HW186039   3.430  10.871  10.031
94755SOL    HW286040   3.559  10.822   9.970
94756SOL     OW86041  10.996   4.848  11.737
94756SOL    HW186042  10.992   4.931  11.690
94756SOL    HW286043  11.003   4.872  11.829
94757SOL     OW86044   7.856   0.062   2.375
94757SOL    HW186045   7.860   0.062   2.470
94757SOL    HW286046   7.919  14.872   2.349
94758SOL     OW86047  10.725   1.609   5.518
94758SOL    HW186048  10.732   1.667   5.593
94758SOL    HW286049  10.732   1.667   5.442
94759SOL     OW86050   8.578  11.243   7.051
94759SOL    HW186051   8.622  11.240   7.136
94759SOL    HW286052   8.502  11.299   7.065
94760SOL     OW86053   8.169   4.460   0.660
94760SOL    HW186054   8.232   4.470   0.731
94760SOL    HW286055   8.095   4.413   0.699
94761SOL     OW86056   2.443  13.266  13.552
94761SOL    HW186057   2.396  13.220  13.622
94761SOL    HW286058   2.373  13.304  13.499
94762SOL     OW86059   8.396  12.108  13.435
94762SOL    HW186060   8.389  12.200  13.462
94762SOL    HW286061   8.355  12.106  13.349
94763SOL     OW86062   2.263  12.540   5.380
94763SOL    HW186063   2.293  12.454   5.409
94763SOL    HW286064   2.320  12.563   5.307
94764SOL     OW86065   1.167  10.976   2.844
94764SOL    HW186066   1.081  11.016   2.856
94764SOL    HW286067   1.181  10.979   2.749
94765SOL     OW86068   1.210   4.117   4.958
94765SOL    HW186069   1.166   4.084   4.879
94765SOL    HW286070   1.302   4.095   4.945
94766SOL     OW86071  11.986   9.985  14.007
94766SOL    HW186072  11.936   9.905  14.023
94766SOL    HW286073  12.008  10.018  14.094
94767SOL     OW86074   7.533   5.982   9.650
94767SOL    HW186075   7.552   6.039   9.575
94767SOL    HW286076   7.603   5.916   9.648
94768SOL     OW86077   0.690  12.010   0.415
94768SOL    HW186078   0.655  11.925   0.443
94768SOL    HW286079   0.739  12.042   0.491
94769SOL     OW86080   5.904   5.949   3.385
94769SOL    HW186081   5.928   5.859   3.408
94769SOL    HW286082   5.866   5.943   3.298
94770SOL     OW86083   9.195   3.158   4.817
94770SOL    HW186084   9.138   3.084   4.838
94770SOL    HW286085   9.264   3.120   4.761
94771SOL     OW86086   3.880   1.098   7.018
94771SOL    HW186087   3.937   1.045   6.962
94771SOL    HW286088   3.939   1.137   7.083
94772SOL     OW86089  13.814   7.638   2.117
94772SOL    HW186090  13.847   7.727   2.119
94772SOL    HW286091  13.874   7.591   2.058
94773SOL     OW86092   5.736  11.296   4.441
94773SOL    HW186093   5.697  11.208   4.440
94773SOL    HW286094   5.812  11.289   4.383
94774SOL     OW86095   0.605  13.338   2.601
94774SOL    HW186096   0.518  13.308   2.574
94774SOL    HW286097   0.599  13.433   2.605
94775SOL     OW86098   0.488   3.062   8.808
94775SOL    HW186099   0.397   3.083   8.786
94775SOL    HW286100   0.533   3.147   8.809
94776SOL     OW86101  12.458  10.140   8.782
94776SOL    HW186102  12.473  10.078   8.711
94776SOL    HW286103  12.485  10.224   8.747
94777SOL     OW86104   2.014   6.542   3.540
94777SOL    HW186105   2.048   6.492   3.466
94777SOL    HW286106   2.070   6.620   3.544
94778SOL     OW86107  14.206  12.817  12.108
94778SOL    HW186108  14.270  12.756  12.069
94778SOL    HW286109  14.259  12.885  12.147
94779SOL     OW86110  14.382  11.140   6.987
94779SOL    HW186111  14.414  11.193   7.061
94779SOL    HW286112  14.458  11.087   6.961
94780SOL     OW86113   1.948   0.006   0.115
94780SOL    HW186114   1.938  14.790   0.100
94780SOL    HW286115   1.925   0.019   0.207
94781SOL     OW86116   7.239  14.444  12.663
94781SOL    HW186117   7.148  14.445  12.694
94781SOL    HW286118   7.231  14.430  12.569
94782SOL     OW86119   7.404  11.559   3.157
94782SOL    HW186120   7.397  11.468   3.128
94782SOL    HW286121   7.485  11.590   3.118
94783SOL     OW86122   1.093   1.842   9.753
94783SOL    HW186123   1.057   1.820   9.839
94783SOL    HW286124   1.055   1.777   9.694
94784SOL     OW86125   0.440   7.415  12.963
94784SOL    HW186126   0.376   7.347  12.985
94784SOL    HW286127   0.482   7.437  13.046
94785SOL     OW86128   6.220   6.647   8.188
94785SOL    HW186129   6.184   6.665   8.275
94785SOL    HW286130   6.311   6.623   8.204
94786SOL     OW86131   7.761   3.299   0.342
94786SOL    HW186132   7.679   3.258   0.315
94786SOL    HW286133   7.820   3.285   0.268
94787SOL     OW86134  14.568   9.177   3.752
94787SOL    HW186135  14.482   9.188   3.711
94787SOL    HW286136  14.548   9.147   3.840
94788SOL     OW86137   4.824  13.311   6.763
94788SOL    HW186138   4.881  13.358   6.702
94788SOL    HW286139   4.806  13.228   6.720
94789SOL     OW86140   3.344  11.922   7.074
94789SOL    HW186141   3.301  11.972   7.143
94789SOL    HW286142   3.273  11.896   7.015
94790SOL     OW86143  12.889   9.044   6.895
94790SOL    HW186144  12.841   8.962   6.882
94790SOL    HW286145  12.829   9.112   6.867
94791SOL     OW86146   8.527   8.902   6.120
94791SOL    HW186147   8.582   8.855   6.057
94791SOL    HW286148   8.476   8.833   6.163
94792SOL     OW86149  11.398  14.385   7.492
94792SOL    HW186150  11.473  14.403   7.549
94792SOL    HW286151  11.393  14.462   7.435
94793SOL     OW86152   8.892   5.538   1.165
94793SOL    HW186153   8.867   5.629   1.184
94793SOL    HW286154   8.809   5.494   1.147
94794SOL     OW86155   8.392   8.500   8.233
94794SOL    HW186156   8.456   8.431   8.212
94794SOL    HW286157   8.423   8.537   8.316
94795SOL     OW86158   7.537   2.916  13.544
94795SOL    HW186159   7.564   2.907  13.453
94795SOL    HW286160   7.590   2.988  13.578
94796SOL     OW86161   3.510   5.098   4.964
94796SOL    HW186162   3.467   5.183   4.974
94796SOL    HW286163   3.587   5.103   5.020
94797SOL     OW86164   1.200   8.782   7.826
94797SOL    HW186165   1.216   8.846   7.896
94797SOL    HW286166   1.108   8.795   7.803
94798SOL     OW86167   8.947  13.883  13.359
94798SOL    HW186168   9.009  13.866  13.430
94798SOL    HW286169   8.936  13.799  13.315
94799SOL     OW86170  14.491  13.561  12.627
94799SOL    HW186171  14.554  13.554  12.555
94799SOL    HW286172  14.482  13.472  12.660
94800SOL     OW86173   3.218   2.707   9.310
94800SOL    HW186174   3.144   2.762   9.284
94800SOL    HW286175   3.189   2.666   9.392
94801SOL     OW86176   6.398  13.718   8.064
94801SOL    HW186177   6.444  13.718   7.980
94801SOL    HW286178   6.440  13.649   8.114
94802SOL     OW86179   6.563  14.017   8.765
94802SOL    HW186180   6.652  14.033   8.798
94802SOL    HW286181   6.524  14.104   8.760
94803SOL     OW86182   1.984   4.441   7.737
94803SOL    HW186183   2.040   4.364   7.748
94803SOL    HW286184   1.947   4.431   7.649
94804SOL     OW86185   1.543   8.152   9.064
94804SOL    HW186186   1.493   8.234   9.056
94804SOL    HW286187   1.564   8.146   9.157
94805SOL     OW86188   0.798  11.554  12.039
94805SOL    HW186189   0.724  11.573  12.097
94805SOL    HW286190   0.859  11.626  12.055
94806SOL     OW86191   7.934   5.774   1.851
94806SOL    HW186192   7.923   5.743   1.941
94806SOL    HW286193   7.977   5.859   1.860
94807SOL     OW86194   8.419  14.721   4.385
94807SOL    HW186195   8.392  14.638   4.346
94807SOL    HW286196   8.491  14.698   4.443
94808SOL     OW86197   9.542   1.498   2.194
94808SOL    HW186198   9.461   1.539   2.166
94808SOL    HW286199   9.552   1.423   2.136
94809SOL     OW86200   5.033  13.796   8.080
94809SOL    HW186201   5.090  13.841   8.018
94809SOL    HW286202   4.959  13.855   8.092
94810SOL     OW86203   0.877   9.926   6.532
94810SOL    HW186204   0.841   9.940   6.445
94810SOL    HW286205   0.968   9.956   6.525
94811SOL     OW86206  10.202   0.331  12.834
94811SOL    HW186207  10.170   0.419  12.812
94811SOL    HW286208  10.296   0.334  12.816
94812SOL     OW86209  11.684  13.824  11.589
94812SOL    HW186210  11.778  13.843  11.593
94812SOL    HW286211  11.665  13.815  11.495
94813SOL     OW86212  12.167   1.074  13.274
94813SOL    HW186213  12.135   1.107  13.190
94813SOL    HW286214  12.221   0.999  13.252
94814SOL     OW86215   4.336  10.288  11.793
94814SOL    HW186216   4.371  10.340  11.866
94814SOL    HW286217   4.414  10.265  11.742
94815SOL     OW86218   7.948   4.262   2.410
94815SOL    HW186219   7.998   4.230   2.484
94815SOL    HW286220   7.866   4.213   2.414
94816SOL     OW86221  13.050  12.249  14.185
94816SOL    HW186222  12.975  12.297  14.148
94816SOL    HW286223  13.127  12.293  14.149
94817SOL     OW86224  12.429   1.232   3.222
94817SOL    HW186225  12.436   1.136   3.226
94817SOL    HW286226  12.399   1.257   3.309
94818SOL     OW86227   1.151   9.559   6.026
94818SOL    HW186228   1.221   9.547   6.090
94818SOL    HW286229   1.184   9.627   5.967
94819SOL     OW86230   1.488   5.512  13.367
94819SOL    HW186231   1.419   5.548  13.422
94819SOL    HW286232   1.561   5.574  13.375
94820SOL     OW86233   4.946  11.023   4.902
94820SOL    HW186234   5.007  11.095   4.912
94820SOL    HW286235   4.979  10.973   4.828
94821SOL     OW86236  11.456   8.506   8.675
94821SOL    HW186237  11.513   8.497   8.751
94821SOL    HW286238  11.368   8.508   8.711
94822SOL     OW86239  12.743  11.604   1.327
94822SOL    HW186240  12.763  11.544   1.255
94822SOL    HW286241  12.756  11.552   1.407
94823SOL     OW86242   9.769   7.406   4.994
94823SOL    HW186243   9.687   7.455   4.989
94823SOL    HW286244   9.784   7.376   4.904
94824SOL     OW86245  12.472  13.267   9.037
94824SOL    HW186246  12.419  13.188   9.039
94824SOL    HW286247  12.475  13.297   9.128
94825SOL     OW86248   8.947  13.390   8.995
94825SOL    HW186249   8.936  13.363   9.087
94825SOL    HW286250   8.916  13.315   8.944
94826SOL     OW86251   6.872  12.172   4.306
94826SOL    HW186252   6.875  12.251   4.360
94826SOL    HW286253   6.963  12.156   4.281
94827SOL     OW86254   1.709  11.781   8.455
94827SOL    HW186255   1.674  11.727   8.384
94827SOL    HW286256   1.738  11.861   8.412
94828SOL     OW86257   3.815   2.351   2.511
94828SOL    HW186258   3.906   2.377   2.519
94828SOL    HW286259   3.818   2.260   2.481
94829SOL     OW86260   2.855   6.276   4.030
94829SOL    HW186261   2.882   6.200   4.081
94829SOL    HW286262   2.760   6.268   4.024
94830SOL     OW86263   8.824   8.336   1.578
94830SOL    HW186264   8.733   8.361   1.558
94830SOL    HW286265   8.828   8.335   1.673
94831SOL     OW86266  12.415  10.776   2.400
94831SOL    HW186267  12.376  10.694   2.370
94831SOL    HW286268  12.379  10.842   2.341
94832SOL     OW86269   5.797   0.594   8.135
94832SOL    HW186270   5.733   0.536   8.177
94832SOL    HW286271   5.870   0.537   8.112
94833SOL     OW86272   4.982   7.373  11.551
94833SOL    HW186273   4.939   7.399  11.632
94833SOL    HW286274   5.054   7.434  11.541
94834SOL     OW86275  11.085   0.261  11.945
94834SOL    HW186276  11.002   0.307  11.934
94834SOL    HW286277  11.072   0.177  11.901
94835SOL     OW86278   4.872   2.150   0.759
94835SOL    HW186279   4.905   2.145   0.669
94835SOL    HW286280   4.788   2.194   0.751
94836SOL     OW86281   8.012   7.575   0.690
94836SOL    HW186282   8.054   7.624   0.619
94836SOL    HW286283   8.077   7.509   0.715
94837SOL     OW86284  14.723   8.767  14.786
94837SOL    HW186285  14.743   8.860  14.771
94837SOL    HW286286  14.686   8.765  14.874
94838SOL     OW86287   3.137   7.327  14.035
94838SOL    HW186288   3.076   7.330  13.961
94838SOL    HW286289   3.105   7.255  14.089
94839SOL     OW86290  14.044   8.514  10.701
94839SOL    HW186291  13.962   8.494  10.657
94839SOL    HW286292  14.061   8.438  10.757
94840SOL     OW86293  13.250   7.164  13.165
94840SOL    HW186294  13.158   7.149  13.146
94840SOL    HW286295  13.260   7.259  13.168
94841SOL     OW86296  14.062   8.804  10.657
94841SOL    HW186297  14.084   8.717  10.690
94841SOL    HW286298  13.968   8.812  10.671
94842SOL     OW86299   8.545   4.364  11.944
94842SOL    HW186300   8.553   4.354  12.039
94842SOL    HW286301   8.635   4.375  11.913
94843SOL     OW86302   2.935   7.033   4.078
94843SOL    HW186303   3.005   7.093   4.054
94843SOL    HW286304   2.918   6.982   3.998
94844SOL     OW86305   7.803   0.725  12.336
94844SOL    HW186306   7.895   0.700  12.334
94844SOL    HW286307   7.756   0.645  12.313
94845SOL     OW86308   1.510   5.486   3.585
94845SOL    HW186309   1.582   5.425   3.599
94845SOL    HW286310   1.548   5.557   3.533
94846SOL     OW86311   9.560   3.368  14.005
94846SOL    HW186312   9.567   3.314  14.084
94846SOL    HW286313   9.625   3.332  13.945
94847SOL     OW86314  10.168   7.511  12.012
94847SOL    HW186315  10.128   7.595  11.988
94847SOL    HW286316  10.186   7.520  12.105
94848SOL     OW86317  12.447   1.262   5.195
94848SOL    HW186318  12.484   1.255   5.107
94848SOL    HW286319  12.355   1.237   5.185
94849SOL     OW86320   6.756   4.916   5.646
94849SOL    HW186321   6.693   4.901   5.717
94849SOL    HW286322   6.752   4.836   5.593
94850SOL     OW86323   1.141   8.307  11.659
94850SOL    HW186324   1.203   8.236  11.676
94850SOL    HW286325   1.085   8.309  11.736
94851SOL     OW86326   7.954  11.149  11.573
94851SOL    HW186327   7.877  11.114  11.617
94851SOL    HW286328   7.920  11.215  11.513
94852SOL     OW86329   7.588   3.128  13.336
94852SOL    HW186330   7.498   3.146  13.361
94852SOL    HW286331   7.638   3.203  13.369
94853SOL     OW86332  11.357   4.665  12.216
94853SOL    HW186333  11.384   4.706  12.298
94853SOL    HW286334  11.427   4.688  12.155
94854SOL     OW86335   1.514  10.324  14.837
94854SOL    HW186336   1.609  10.336  14.844
94854SOL    HW286337   1.494  10.258   0.025
94855SOL     OW86338  10.217   3.294   8.617
94855SOL    HW186339  10.123   3.310   8.613
94855SOL    HW286340  10.243   3.283   8.525
94856SOL     OW86341  11.620   8.269   7.491
94856SOL    HW186342  11.680   8.311   7.429
94856SOL    HW286343  11.672   8.199   7.531
94857SOL     OW86344   9.936  14.312   5.126
94857SOL    HW186345  10.006  14.333   5.064
94857SOL    HW286346   9.926  14.217   5.119
94858SOL     OW86347   9.387  11.600   5.760
94858SOL    HW186348   9.458  11.660   5.781
94858SOL    HW286349   9.416  11.557   5.679
94859SOL     OW86350   5.167   5.757  14.605
94859SOL    HW186351   5.194   5.780  14.694
94859SOL    HW286352   5.130   5.669  14.613
94860SOL     OW86353  14.430   9.844   5.843
94860SOL    HW186354  14.512   9.833   5.890
94860SOL    HW286355  14.456   9.870   5.755
94861SOL     OW86356   9.850  14.626   9.730
94861SOL    HW186357   9.880  14.693   9.668
94861SOL    HW286358   9.839  14.673   9.813
94862SOL     OW86359   0.191   7.093   4.225
94862SOL    HW186360   0.216   7.124   4.138
94862SOL    HW286361   0.262   7.033   4.251
94863SOL     OW86362   2.277  13.372  14.442
94863SOL    HW186363   2.241  13.454  14.409
94863SOL    HW286364   2.310  13.327  14.364
94864SOL     OW86365   3.314   2.524  11.551
94864SOL    HW186366   3.309   2.543  11.457
94864SOL    HW286367   3.335   2.608  11.591
94865SOL     OW86368   0.854   4.462   3.870
94865SOL    HW186369   0.819   4.373   3.881
94865SOL    HW286370   0.858   4.497   3.959
94866SOL     OW86371   6.093   5.711  14.463
94866SOL    HW186372   6.038   5.736  14.538
94866SOL    HW286373   6.050   5.752  14.388
94867SOL     OW86374   8.737   7.117   7.609
94867SOL    HW186375   8.644   7.124   7.628
94867SOL    HW286376   8.742   7.085   7.519
94868SOL     OW86377   7.579   2.174  14.437
94868SOL    HW186378   7.624   2.173  14.521
94868SOL    HW286379   7.511   2.240  14.447
94869SOL     OW86380  11.561   7.772   4.100
94869SOL    HW186381  11.594   7.715   4.170
94869SOL    HW286382  11.637   7.823   4.073
94870SOL     OW86383   2.953   5.261   9.241
94870SOL    HW186384   2.989   5.186   9.194
94870SOL    HW286385   2.946   5.233   9.332
94871SOL     OW86386  14.624   4.588   1.811
94871SOL    HW186387  14.591   4.606   1.723
94871SOL    HW286388  14.705   4.639   1.817
94872SOL     OW86389   6.882  11.877   4.290
94872SOL    HW186390   6.830  11.877   4.210
94872SOL    HW286391   6.836  11.938   4.348
94873SOL     OW86392  14.377   1.737   2.596
94873SOL    HW186393  14.398   1.649   2.564
94873SOL    HW286394  14.304   1.765   2.540
94874SOL     OW86395  11.784   1.572   5.376
94874SOL    HW186396  11.713   1.613   5.326
94874SOL    HW286397  11.849   1.641   5.387
94875SOL     OW86398  12.678   2.216   3.249
94875SOL    HW186399  12.738   2.288   3.229
94875SOL    HW286400  12.594   2.244   3.212
94876SOL     OW86401   7.061   9.074   6.741
94876SOL    HW186402   7.149   9.101   6.766
94876SOL    HW286403   7.074   9.010   6.671
94877SOL     OW86404   1.664   4.869   1.305
94877SOL    HW186405   1.616   4.873   1.388
94877SOL    HW286406   1.750   4.836   1.329
94878SOL     OW86407   2.170  12.273   8.645
94878SOL    HW186408   2.176  12.201   8.708
94878SOL    HW286409   2.077  12.281   8.627
94879SOL     OW86410   1.194   6.849   5.485
94879SOL    HW186411   1.197   6.879   5.394
94879SOL    HW286412   1.185   6.929   5.536
94880SOL     OW86413   0.932  10.371  12.395
94880SOL    HW186414   0.906  10.415  12.476
94880SOL    HW286415   0.939  10.279  12.419
94881SOL     OW86416  14.280   4.994   8.171
94881SOL    HW186417  14.186   5.002   8.155
94881SOL    HW286418  14.296   5.046   8.250
94882SOL     OW86419  12.597   6.085  10.850
94882SOL    HW186420  12.508   6.051  10.844
94882SOL    HW286421  12.646   6.038  10.782
94883SOL     OW86422   2.878   1.326   4.251
94883SOL    HW186423   2.888   1.362   4.163
94883SOL    HW286424   2.966   1.301   4.277
94884SOL     OW86425   7.010   2.086   9.893
94884SOL    HW186426   6.937   2.112   9.949
94884SOL    HW286427   7.085   2.082   9.952
94885SOL     OW86428   0.261   3.253  11.777
94885SOL    HW186429   0.259   3.328  11.718
94885SOL    HW286430   0.190   3.271  11.840
94886SOL     OW86431   2.096   7.322   4.407
94886SOL    HW186432   2.022   7.373   4.440
94886SOL    HW286433   2.096   7.242   4.460
94887SOL     OW86434   9.947   8.163   6.219
94887SOL    HW186435   9.877   8.149   6.283
94887SOL    HW286436   9.997   8.236   6.255
94888SOL     OW86437  10.097  12.349   2.985
94888SOL    HW186438  10.015  12.381   2.947
94888SOL    HW286439  10.149  12.322   2.909
94889SOL     OW86440  13.093   7.668   2.703
94889SOL    HW186441  13.072   7.601   2.768
94889SOL    HW286442  13.136   7.737   2.754
94890SOL     OW86443   4.310   2.393   0.620
94890SOL    HW186444   4.231   2.438   0.590
94890SOL    HW286445   4.347   2.355   0.541
94891SOL     OW86446   2.345  11.459   1.999
94891SOL    HW186447   2.370  11.387   2.056
94891SOL    HW286448   2.341  11.421   1.911
94892SOL     OW86449   1.148   7.546   9.575
94892SOL    HW186450   1.136   7.617   9.512
94892SOL    HW286451   1.067   7.495   9.570
94893SOL     OW86452   8.586   1.581  14.601
94893SOL    HW186453   8.570   1.544  14.688
94893SOL    HW286454   8.659   1.530  14.567
94894SOL     OW86455  11.978  12.753  11.867
94894SOL    HW186456  11.938  12.740  11.953
94894SOL    HW286457  12.023  12.670  11.849
94895SOL     OW86458  10.214   1.258   2.057
94895SOL    HW186459  10.157   1.261   1.981
94895SOL    HW286460  10.160   1.223   2.127
94896SOL     OW86461   7.432   4.378  14.099
94896SOL    HW186462   7.344   4.411  14.114
94896SOL    HW286463   7.432   4.349  14.007
94897SOL     OW86464  11.836   2.529  11.384
94897SOL    HW186465  11.798   2.473  11.452
94897SOL    HW286466  11.885   2.469  11.328
94898SOL     OW86467   8.206   7.605  10.687
94898SOL    HW186468   8.295   7.642  10.688
94898SOL    HW286469   8.208   7.542  10.615
94899SOL     OW86470  13.546   8.565  13.904
94899SOL    HW186471  13.556   8.517  13.821
94899SOL    HW286472  13.476   8.627  13.888
94900SOL     OW86473   3.942   9.309   1.130
94900SOL    HW186474   3.919   9.231   1.079
94900SOL    HW286475   4.025   9.287   1.171
94901SOL     OW86476   3.387   3.776  13.057
94901SOL    HW186477   3.318   3.829  13.017
94901SOL    HW286478   3.344   3.732  13.130
94902SOL     OW86479   6.306   8.900   6.344
94902SOL    HW186480   6.336   8.920   6.433
94902SOL    HW286481   6.295   8.805   6.343
94903SOL     OW86482   9.412   7.017  14.367
94903SOL    HW186483   9.443   7.104  14.391
94903SOL    HW286484   9.345   6.996  14.433
94904SOL     OW86485   2.784  12.835   0.095
94904SOL    HW186486   2.788  12.890   0.173
94904SOL    HW286487   2.695  12.849   0.061
94905SOL     OW86488   6.350   3.371  13.940
94905SOL    HW186489   6.390   3.314  14.006
94905SOL    HW286490   6.368   3.328  13.857
94906SOL     OW86491   2.373  13.693   7.980
94906SOL    HW186492   2.283  13.660   7.975
94906SOL    HW286493   2.424  13.618   8.012
94907SOL     OW86494   3.115   7.454   2.262
94907SOL    HW186495   3.144   7.367   2.234
94907SOL    HW286496   3.020   7.448   2.266
94908SOL     OW86497   5.964   2.585  10.568
94908SOL    HW186498   6.033   2.627  10.619
94908SOL    HW286499   5.913   2.536  10.632
94909SOL     OW86500  11.330   5.638   2.867
94909SOL    HW186501  11.235   5.629   2.856
94909SOL    HW286502  11.357   5.697   2.796
94910SOL     OW86503  11.000  13.390  13.426
94910SOL    HW186504  10.985  13.400  13.332
94910SOL    HW286505  10.924  13.341  13.457
94911SOL     OW86506  12.771   2.450  13.329
94911SOL    HW186507  12.734   2.368  13.363
94911SOL    HW286508  12.694   2.502  13.305
94912SOL     OW86509   4.646  14.106  13.288
94912SOL    HW186510   4.728  14.094  13.336
94912SOL    HW286511   4.578  14.079  13.350
94913SOL     OW86512   9.461   0.863  11.832
94913SOL    HW186513   9.412   0.781  11.840
94913SOL    HW286514   9.551   0.835  11.814
94914SOL     OW86515   8.179   0.571  11.206
94914SOL    HW186516   8.222   0.620  11.276
94914SOL    HW286517   8.246   0.560  11.139
94915SOL     OW86518   9.419  11.681   1.366
94915SOL    HW186519   9.424  11.751   1.431
94915SOL    HW286520   9.326  11.662   1.357
94916SOL     OW86521  14.284  12.875   8.152
94916SOL    HW186522  14.245  12.910   8.072
94916SOL    HW286523  14.369  12.920   8.159
94917SOL     OW86524   9.747   4.688   9.697
94917SOL    HW186525   9.669   4.699   9.751
94917SOL    HW286526   9.732   4.606   9.649
94918SOL     OW86527  14.438   6.309   4.134
94918SOL    HW186528  14.443   6.235   4.194
94918SOL    HW286529  14.346   6.333   4.132
94919SOL     OW86530   5.971  13.460   4.449
94919SOL    HW186531   5.977  13.410   4.368
94919SOL    HW286532   6.047  13.517   4.448
94920SOL     OW86533   9.431  12.117  14.615
94920SOL    HW186534   9.456  12.046  14.555
94920SOL    HW286535   9.508  12.130  14.671
94921SOL     OW86536   2.764   5.850  12.133
94921SOL    HW186537   2.726   5.896  12.058
94921SOL    HW286538   2.842   5.808  12.097
94922SOL     OW86539   2.341   9.289   7.620
94922SOL    HW186540   2.360   9.238   7.699
94922SOL    HW286541   2.267   9.344   7.645
94923SOL     OW86542   1.607   5.170   2.469
94923SOL    HW186543   1.644   5.226   2.538
94923SOL    HW286544   1.683   5.128   2.429
94924SOL     OW86545   7.707   7.077   3.492
94924SOL    HW186546   7.635   7.025   3.526
94924SOL    HW286547   7.770   7.013   3.459
94925SOL     OW86548  10.944   7.306  14.219
94925SOL    HW186549  10.952   7.391  14.263
94925SOL    HW286550  10.864   7.313  14.168
94926SOL     OW86551   4.647  10.252   9.835
94926SOL    HW186552   4.671  10.195   9.908
94926SOL    HW286553   4.651  10.341   9.872
94927SOL     OW86554   7.923  11.824  10.509
94927SOL    HW186555   7.933  11.807  10.416
94927SOL    HW286556   7.998  11.780  10.550
94928SOL     OW86557  11.815   8.613   4.780
94928SOL    HW186558  11.763   8.654   4.850
94928SOL    HW286559  11.900   8.658   4.784
94929SOL     OW86560   5.083   2.372   8.318
94929SOL    HW186561   5.068   2.374   8.223
94929SOL    HW286562   5.109   2.462   8.340
94930SOL     OW86563  12.669  13.475  13.747
94930SOL    HW186564  12.692  13.392  13.706
94930SOL    HW286565  12.752  13.520  13.761
94931SOL     OW86566  13.498  10.389  10.270
94931SOL    HW186567  13.454  10.471  10.291
94931SOL    HW286568  13.428  10.330  10.245
94932SOL     OW86569   2.669  10.499  13.182
94932SOL    HW186570   2.582  10.523  13.213
94932SOL    HW286571   2.727  10.513  13.257
94933SOL     OW86572   2.417  13.572  10.202
94933SOL    HW186573   2.353  13.574  10.273
94933SOL    HW286574   2.502  13.567  10.246
94934SOL     OW86575   9.611   4.879   0.148
94934SOL    HW186576   9.647   4.890   0.060
94934SOL    HW286577   9.542   4.812   0.137
94935SOL     OW86578   8.179   7.900  11.219
94935SOL    HW186579   8.090   7.865  11.213
94935SOL    HW286580   8.231   7.843  11.161
94936SOL     OW86581  12.006   5.240   0.958
94936SOL    HW186582  12.074   5.280   0.904
94936SOL    HW286583  11.924   5.276   0.925
94937SOL     OW86584  10.691  12.440   7.563
94937SOL    HW186585  10.773  12.449   7.515
94937SOL    HW286586  10.639  12.379   7.512
94938SOL     OW86587   5.425  10.824  11.053
94938SOL    HW186588   5.440  10.783  11.138
94938SOL    HW286589   5.412  10.917  11.072
94939SOL     OW86590  11.217   4.115   3.189
94939SOL    HW186591  11.295   4.131   3.134
94939SOL    HW286592  11.249   4.059   3.259
94940SOL     OW86593  10.344   6.608   2.698
94940SOL    HW186594  10.421   6.608   2.754
94940SOL    HW286595  10.355   6.685   2.642
94941SOL     OW86596  10.857   5.601   3.652
94941SOL    HW186597  10.921   5.531   3.637
94941SOL    HW286598  10.893   5.676   3.604
94942SOL     OW86599  14.331  12.106   2.166
94942SOL    HW186600  14.371  12.069   2.245
94942SOL    HW286601  14.237  12.095   2.179
94943SOL     OW86602   8.501  13.715   8.114
94943SOL    HW186603   8.461  13.709   8.027
94943SOL    HW286604   8.579  13.659   8.108
94944SOL     OW86605   4.403  10.273  13.224
94944SOL    HW186606   4.347  10.202  13.193
94944SOL    HW286607   4.471  10.230  13.275
94945SOL     OW86608   4.899   9.822   3.043
94945SOL    HW186609   4.890   9.765   3.119
94945SOL    HW286610   4.816   9.812   2.996
94946SOL     OW86611  10.592   3.631   4.839
94946SOL    HW186612  10.509   3.676   4.853
94946SOL    HW286613  10.584   3.595   4.751
94947SOL     OW86614   9.540   7.948  14.257
94947SOL    HW186615   9.526   7.938  14.163
94947SOL    HW286616   9.471   7.895  14.297
94948SOL     OW86617   2.648  10.834   6.662
94948SOL    HW186618   2.739  10.836   6.631
94948SOL    HW286619   2.644  10.756   6.718
94949SOL     OW86620   7.551  11.888   1.343
94949SOL    HW186621   7.499  11.948   1.289
94949SOL    HW286622   7.498  11.809   1.349
94950SOL     OW86623   6.109  12.490   9.004
94950SOL    HW186624   6.113  12.395   8.995
94950SOL    HW286625   6.185  12.512   9.058
94951SOL     OW86626   4.026   2.063  12.389
94951SOL    HW186627   4.002   2.096  12.476
94951SOL    HW286628   3.987   1.976  12.385
94952SOL     OW86629   4.550   7.842   5.010
94952SOL    HW186630   4.521   7.933   5.005
94952SOL    HW286631   4.598   7.836   5.093
94953SOL     OW86632  14.586   3.634   1.090
94953SOL    HW186633  14.579   3.541   1.111
94953SOL    HW286634  14.678   3.656   1.109
94954SOL     OW86635   7.862   5.139  11.329
94954SOL    HW186636   7.887   5.117  11.419
94954SOL    HW286637   7.945   5.152  11.284
94955SOL     OW86638   6.099   0.354   8.398
94955SOL    HW186639   6.142   0.403   8.327
94955SOL    HW286640   6.156   0.367   8.474
94956SOL     OW86641   6.218   4.939   2.879
94956SOL    HW186642   6.161   4.954   2.954
94956SOL    HW286643   6.298   4.903   2.916
94957SOL     OW86644   6.422   8.316  11.017
94957SOL    HW186645   6.496   8.263  11.047
94957SOL    HW286646   6.357   8.252  10.989
94958SOL     OW86647   5.715  13.235  13.780
94958SOL    HW186648   5.805  13.214  13.806
94958SOL    HW286649   5.679  13.151  13.752
94959SOL     OW86650  14.522   7.308   6.765
94959SOL    HW186651  14.577   7.257   6.705
94959SOL    HW286652  14.454   7.248   6.794
94960SOL     OW86653   6.576   6.282   8.356
94960SOL    HW186654   6.591   6.213   8.420
94960SOL    HW286655   6.500   6.330   8.389
94961SOL     OW86656   1.438   4.253   4.702
94961SOL    HW186657   1.351   4.223   4.676
94961SOL    HW286658   1.475   4.290   4.622
94962SOL     OW86659  10.401   0.258  14.714
94962SOL    HW186660  10.359   0.257  14.628
94962SOL    HW286661  10.495   0.250  14.694
94963SOL     OW86662  11.412   5.738   0.380
94963SOL    HW186663  11.427   5.691   0.299
94963SOL    HW286664  11.342   5.800   0.360
94964SOL     OW86665  10.210  12.143  14.639
94964SOL    HW186666  10.279  12.178  14.583
94964SOL    HW286667  10.252  12.126  14.723
94965SOL     OW86668   0.129   5.415   6.895
94965SOL    HW186669   0.079   5.440   6.972
94965SOL    HW286670   0.106   5.481   6.829
94966SOL     OW86671   4.267   9.609   5.158
94966SOL    HW186672   4.216   9.595   5.079
94966SOL    HW286673   4.330   9.677   5.134
94967SOL     OW86674  14.558   3.769   3.591
94967SOL    HW186675  14.519   3.694   3.545
94967SOL    HW286676  14.578   3.831   3.521
94968SOL     OW86677   4.204   0.391  13.315
94968SOL    HW186678   4.140   0.438  13.369
94968SOL    HW286679   4.257   0.342  13.378
94969SOL     OW86680  12.049   6.563   6.134
94969SOL    HW186681  11.979   6.624   6.112
94969SOL    HW286682  12.033   6.487   6.078
94970SOL     OW86683   0.834   2.137   3.627
94970SOL    HW186684   0.896   2.096   3.686
94970SOL    HW286685   0.827   2.077   3.552
94971SOL     OW86686  11.079   5.159   6.808
94971SOL    HW186687  11.083   5.212   6.888
94971SOL    HW286688  10.988   5.163   6.781
94972SOL     OW86689  12.560  14.447  11.657
94972SOL    HW186690  12.517  14.477  11.577
94972SOL    HW286691  12.620  14.378  11.628
94973SOL     OW86692   5.587  12.933   9.652
94973SOL    HW186693   5.569  13.019   9.615
94973SOL    HW286694   5.512  12.879   9.626
94974SOL     OW86695   2.039  12.257  12.812
94974SOL    HW186696   1.953  12.256  12.854
94974SOL    HW286697   2.084  12.332  12.851
94975SOL     OW86698  12.121   4.862   7.994
94975SOL    HW186699  12.206   4.866   8.037
94975SOL    HW286700  12.139   4.886   7.903
94976SOL     OW86701   6.396   5.530   9.931
94976SOL    HW186702   6.485   5.553   9.905
94976SOL    HW286703   6.368   5.602   9.988
94977SOL     OW86704  10.212   1.985   7.077
94977SOL    HW186705  10.290   1.946   7.115
94977SOL    HW286706  10.242   2.070   7.045
94978SOL     OW86707  12.363  11.819  14.091
94978SOL    HW186708  12.330  11.736  14.056
94978SOL    HW286709  12.322  11.826  14.177
94979SOL     OW86710   6.824  10.911   0.486
94979SOL    HW186711   6.892  10.910   0.553
94979SOL    HW286712   6.777  10.828   0.498
94980SOL     OW86713   9.329  14.546   7.495
94980SOL    HW186714   9.316  14.506   7.581
94980SOL    HW286715   9.253  14.520   7.444
94981SOL     OW86716   7.117   5.430  13.519
94981SOL    HW186717   7.066   5.350  13.503
94981SOL    HW286718   7.131   5.467  13.431
94982SOL     OW86719   1.964   2.087   3.362
94982SOL    HW186720   1.933   2.127   3.281
94982SOL    HW286721   1.937   2.147   3.431
94983SOL     OW86722   9.033   4.251  10.838
94983SOL    HW186723   9.088   4.320  10.876
94983SOL    HW286724   9.080   4.169  10.858
94984SOL     OW86725   9.310   9.589   1.738
94984SOL    HW186726   9.219   9.584   1.767
94984SOL    HW286727   9.358   9.535   1.801
94985SOL     OW86728   2.128   9.728  10.694
94985SOL    HW186729   2.185   9.704  10.620
94985SOL    HW286730   2.188   9.763  10.760
94986SOL     OW86731  12.765   9.491   5.993
94986SOL    HW186732  12.677   9.456   6.012
94986SOL    HW286733  12.762   9.581   6.025
94987SOL     OW86734   2.609  12.136   0.103
94987SOL    HW186735   2.682  12.076   0.089
94987SOL    HW286736   2.643  12.203   0.162
94988SOL     OW86737  12.307   1.487   4.158
94988SOL    HW186738  12.260   1.480   4.241
94988SOL    HW286739  12.239   1.501   4.092
94989SOL     OW86740   4.526   5.663   3.780
94989SOL    HW186741   4.566   5.629   3.700
94989SOL    HW286742   4.597   5.708   3.825
94990SOL     OW86743   9.210  12.090  10.524
94990SOL    HW186744   9.298  12.061  10.500
94990SOL    HW286745   9.151  12.041  10.466
94991SOL     OW86746   1.315  12.969   5.003
94991SOL    HW186747   1.319  13.064   4.990
94991SOL    HW286748   1.280  12.959   5.092
94992SOL     OW86749  14.394   2.228  12.403
94992SOL    HW186750  14.387   2.322  12.422
94992SOL    HW286751  14.481   2.204  12.436
94993SOL     OW86752   6.738   2.749   8.890
94993SOL    HW186753   6.684   2.674   8.863
94993SOL    HW286754   6.674   2.817   8.911
94994SOL     OW86755  14.502   0.086   9.260
94994SOL    HW186756  14.567   0.067   9.193
94994SOL    HW286757  14.467   0.172   9.236
94995SOL     OW86758   0.558   4.647   2.812
94995SOL    HW186759   0.541   4.553   2.819
94995SOL    HW286760   0.502   4.687   2.878
94996SOL     OW86761  13.679   4.890  13.403
94996SOL    HW186762  13.728   4.880  13.485
94996SOL    HW286763  13.646   4.803  13.383
94997SOL     OW86764   4.030   6.084  14.688
94997SOL    HW186765   4.025   6.002  14.639
94997SOL    HW286766   4.102   6.131  14.648
94998SOL     OW86767   3.806   2.312   3.940
94998SOL    HW186768   3.790   2.259   4.017
94998SOL    HW286769   3.880   2.269   3.896
94999SOL     OW86770   5.405   5.361   1.931
94999SOL    HW186771   5.351   5.417   1.875
94999SOL    HW286772   5.379   5.384   2.020
95000SOL     OW86773   3.052  10.230   9.796
95000SOL    HW186774   3.143  10.260   9.806
95000SOL    HW286775   3.020  10.279   9.720
95001SOL     OW86776   9.876   0.977   9.621
95001SOL    HW186777   9.926   0.900   9.595
95001SOL    HW286778   9.904   0.995   9.711
95002SOL     OW86779  13.885  13.196   1.821
95002SOL    HW186780  13.925  13.111   1.801
95002SOL    HW286781  13.834  13.181   1.900
95003SOL     OW86782   3.357   9.865   4.859
95003SOL    HW186783   3.445   9.900   4.874
95003SOL    HW286784   3.335   9.893   4.770
95004SOL     OW86785   0.874   4.035   0.764
95004SOL    HW186786   0.817   4.053   0.839
95004SOL    HW286787   0.871   4.114   0.711
95005SOL     OW86788  13.251  11.487   3.179
95005SOL    HW186789  13.296  11.570   3.163
95005SOL    HW286790  13.236  11.451   3.092
95006SOL     OW86791  13.125  10.099   0.881
95006SOL    HW186792  13.127  10.168   0.947
95006SOL    HW286793  13.115  10.147   0.798
95007SOL     OW86794  10.163   6.488   4.677
95007SOL    HW186795  10.083   6.510   4.629
95007SOL    HW286796  10.173   6.393   4.668
95008SOL     OW86797   8.258   6.442   1.700
95008SOL    HW186798   8.250   6.488   1.616
95008SOL    HW286799   8.326   6.490   1.747
95009SOL     OW86800   0.760   5.286   2.847
95009SOL    HW186801   0.721   5.345   2.782
95009SOL    HW286802   0.686   5.241   2.886
95010SOL     OW86803   6.616   2.416  11.256
95010SOL    HW186804   6.710   2.414  11.240
95010SOL    HW286805   6.600   2.339  11.311
95011SOL     OW86806   0.781   3.704   1.067
95011SOL    HW186807   0.696   3.673   1.037
95011SOL    HW286808   0.828   3.727   0.986
95012SOL     OW86809   7.451  10.927   0.374
95012SOL    HW186810   7.440  10.916   0.280
95012SOL    HW286811   7.362  10.940   0.407
95013SOL     OW86812  11.303   0.766   8.528
95013SOL    HW186813  11.274   0.783   8.617
95013SOL    HW286814  11.371   0.699   8.538
95014SOL     OW86815   4.875  14.059   9.929
95014SOL    HW186816   4.785  14.088   9.917
95014SOL    HW286817   4.908  14.111  10.003
95015SOL     OW86818  11.973   2.769   9.566
95015SOL    HW186819  12.000   2.689   9.613
95015SOL    HW286820  12.047   2.828   9.575
95016SOL     OW86821   7.344  11.782   8.526
95016SOL    HW186822   7.398  11.841   8.473
95016SOL    HW286823   7.272  11.837   8.557
95017SOL     OW86824   8.891  13.177  14.594
95017SOL    HW186825   8.960  13.198  14.658
95017SOL    HW286826   8.883  13.082  14.598
95018SOL     OW86827   0.093  11.159   0.730
95018SOL    HW186828   0.077  11.087   0.669
95018SOL    HW286829   0.154  11.123   0.794
95019SOL     OW86830   6.976   7.177  13.280
95019SOL    HW186831   6.999   7.212  13.366
95019SOL    HW286832   7.051   7.123  13.254
95020SOL     OW86833   8.172   6.385   7.008
95020SOL    HW186834   8.189   6.349   6.921
95020SOL    HW286835   8.259   6.401   7.045
95021SOL     OW86836   6.373  13.851   8.439
95021SOL    HW186837   6.386  13.758   8.454
95021SOL    HW286838   6.279  13.859   8.421
95022SOL     OW86839   6.380   9.660  11.008
95022SOL    HW186840   6.447   9.594  10.992
95022SOL    HW286841   6.356   9.650  11.100
95023SOL     OW86842   5.081   5.030   9.789
95023SOL    HW186843   4.990   5.047   9.766
95023SOL    HW286844   5.076   4.996   9.879
95024SOL     OW86845   0.429  10.742  12.468
95024SOL    HW186846   0.391  10.773  12.385
95024SOL    HW286847   0.523  10.760  12.459
95025SOL     OW86848  12.790  13.839  11.097
95025SOL    HW186849  12.699  13.838  11.125
95025SOL    HW286850  12.840  13.839  11.178
95026SOL     OW86851  10.055   9.805  12.549
95026SOL    HW186852  10.137   9.765  12.575
95026SOL    HW286853  10.080   9.870  12.483
95027SOL     OW86854   4.252  13.961   7.611
95027SOL    HW186855   4.229  13.948   7.703
95027SOL    HW286856   4.176  14.003   7.572
95028SOL     OW86857   2.294   3.890  12.566
95028SOL    HW186858   2.298   3.981  12.595
95028SOL    HW286859   2.260   3.894  12.477
95029SOL     OW86860   2.313   5.615  14.413
95029SOL    HW186861   2.318   5.548  14.345
95029SOL    HW286862   2.384   5.594  14.473
95030SOL     OW86863   0.795   5.252  11.569
95030SOL    HW186864   0.815   5.340  11.537
95030SOL    HW286865   0.774   5.202  11.490
95031SOL     OW86866   4.807   8.841  11.632
95031SOL    HW186867   4.801   8.929  11.594
95031SOL    HW286868   4.877   8.799  11.583
95032SOL     OW86869  11.273  10.712  12.975
95032SOL    HW186870  11.269  10.775  13.047
95032SOL    HW286871  11.256  10.764  12.897
95033SOL     OW86872   7.731  12.267  12.340
95033SOL    HW186873   7.778  12.350  12.335
95033SOL    HW286874   7.678  12.274  12.419
95034SOL     OW86875   1.561   0.738  11.906
95034SOL    HW186876   1.554   0.716  11.999
95034SOL    HW286877   1.604   0.824  11.905
95035SOL     OW86878   1.835  13.623   3.583
95035SOL    HW186879   1.773  13.569   3.534
95035SOL    HW286880   1.920  13.582   3.567
95036SOL     OW86881   5.995   3.048   6.329
95036SOL    HW186882   6.073   3.103   6.317
95036SOL    HW286883   5.985   3.043   6.425
95037SOL     OW86884   3.953   8.876   0.780
95037SOL    HW186885   4.012   8.906   0.711
95037SOL    HW286886   3.892   8.818   0.736
95038SOL     OW86887  14.877   8.407   3.208
95038SOL    HW186888  14.791   8.424   3.246
95038SOL    HW286889  14.868   8.433   3.116
95039SOL     OW86890  10.649   8.739   8.856
95039SOL    HW186891  10.660   8.669   8.920
95039SOL    HW286892  10.732   8.743   8.809
95040SOL     OW86893   1.174   7.630   4.660
95040SOL    HW186894   1.103   7.566   4.655
95040SOL    HW286895   1.141   7.698   4.718
95041SOL     OW86896  12.288   0.120   3.931
95041SOL    HW186897  12.277   0.210   3.900
95041SOL    HW286898  12.274   0.066   3.853
95042SOL     OW86899  14.753  11.086   7.085
95042SOL    HW186900  14.718  11.022   7.023
95042SOL    HW286901  14.696  11.079   7.162
95043SOL     OW86902   6.523  13.308   9.466
95043SOL    HW186903   6.589  13.342   9.525
95043SOL    HW286904   6.452  13.278   9.523
95044SOL     OW86905   7.966  12.993  13.285
95044SOL    HW186906   8.018  13.061  13.329
95044SOL    HW286907   7.915  13.040  13.220
95045SOL     OW86908  11.616  14.334  11.298
95045SOL    HW186909  11.702  14.293  11.287
95045SOL    HW286910  11.620  14.413  11.245
95046SOL     OW86911   8.360  11.842   1.115
95046SOL    HW186912   8.265  11.853   1.112
95046SOL    HW286913   8.388  11.887   1.195
95047SOL     OW86914  13.516   1.637  12.732
95047SOL    HW186915  13.585   1.686  12.687
95047SOL    HW286916  13.517   1.672  12.822
95048SOL     OW86917   0.416   4.351   4.102
95048SOL    HW186918   0.453   4.271   4.065
95048SOL    HW286919   0.338   4.321   4.149
95049SOL     OW86920  10.744  13.106  14.846
95049SOL    HW186921  10.674  13.134   0.027
95049SOL    HW286922  10.698  13.076  14.767
95050SOL     OW86923   5.800  13.325   7.396
95050SOL    HW186924   5.862  13.375   7.343
95050SOL    HW286925   5.851  13.297   7.473
95051SOL     OW86926  14.167  13.657   0.291
95051SOL    HW186927  14.083  13.691   0.320
95051SOL    HW286928  14.157  13.562   0.291
95052SOL     OW86929   7.410   7.508   8.341
95052SOL    HW186930   7.417   7.425   8.293
95052SOL    HW286931   7.343   7.491   8.408
95053SOL     OW86932   0.137  12.251   6.965
95053SOL    HW186933   0.052  12.229   7.004
95053SOL    HW286934   0.162  12.172   6.917
95054SOL     OW86935  13.099  13.787  13.216
95054SOL    HW186936  13.115  13.826  13.302
95054SOL    HW286937  13.031  13.722  13.231
95055SOL     OW86938   7.429   4.066   2.675
95055SOL    HW186939   7.460   4.079   2.585
95055SOL    HW286940   7.372   3.990   2.670
95056SOL     OW86941   5.537  12.081   1.467
95056SOL    HW186942   5.453  12.092   1.422
95056SOL    HW286943   5.522  12.114   1.556
95057SOL     OW86944  11.755  12.337   8.968
95057SOL    HW186945  11.711  12.302   9.045
95057SOL    HW286946  11.746  12.432   8.976
95058SOL     OW86947   1.998   7.413   0.994
95058SOL    HW186948   2.031   7.495   1.032
95058SOL    HW286949   2.036   7.345   1.050
95059SOL     OW86950   0.655   6.822  12.521
95059SOL    HW186951   0.643   6.817  12.616
95059SOL    HW286952   0.569   6.849  12.488
95060SOL     OW86953   0.154   5.972   8.029
95060SOL    HW186954   0.123   5.997   8.116
95060SOL    HW286955   0.246   5.950   8.041
95061SOL     OW86956   2.531  14.860   8.638
95061SOL    HW186957   2.533  14.768   8.609
95061SOL    HW286958   2.456  14.865   8.697
95062SOL     OW86959   9.422  14.862  11.324
95062SOL    HW186960   9.326  14.865  11.324
95062SOL    HW286961   9.443  14.799  11.254
95063SOL     OW86962   3.412   7.224  12.224
95063SOL    HW186963   3.335   7.251  12.174
95063SOL    HW286964   3.449   7.305  12.257
95064SOL     OW86965   2.701  14.684   2.142
95064SOL    HW186966   2.796  14.671   2.144
95064SOL    HW286967   2.678  14.704   2.233
95065SOL     OW86968   9.462   0.879   3.030
95065SOL    HW186969   9.406   0.806   3.059
95065SOL    HW286970   9.472   0.934   3.108
95066SOL     OW86971   5.554   3.511  14.078
95066SOL    HW186972   5.526   3.579  14.016
95066SOL    HW286973   5.603   3.448  14.025
95067SOL     OW86974   5.205   8.635   7.084
95067SOL    HW186975   5.127   8.630   7.030
95067SOL    HW286976   5.197   8.718   7.131
95068SOL     OW86977   2.114  11.707  14.172
95068SOL    HW186978   2.052  11.637  14.152
95068SOL    HW286979   2.096  11.729  14.264
95069SOL     OW86980   7.960   7.207  14.719
95069SOL    HW186981   7.926   7.295  14.705
95069SOL    HW286982   7.891   7.162  14.767
95070SOL     OW86983   2.734  12.514  14.165
95070SOL    HW186984   2.777  12.575  14.224
95070SOL    HW286985   2.799  12.494  14.098
95071SOL     OW86986   1.525   8.660  12.539
95071SOL    HW186987   1.474   8.647  12.619
95071SOL    HW286988   1.493   8.743  12.503
95072SOL     OW86989   4.860   8.496   2.157
95072SOL    HW186990   4.934   8.557   2.156
95072SOL    HW286991   4.800   8.532   2.091
95073SOL     OW86992   6.199  10.901  14.122
95073SOL    HW186993   6.190  10.895  14.027
95073SOL    HW286994   6.262  10.972  14.136
95074SOL     OW86995  14.849   4.137   1.512
95074SOL    HW186996   0.036   4.151   1.582
95074SOL    HW286997   0.020   4.147   1.431
95075SOL     OW86998   6.327   4.424   5.218
95075SOL    HW186999   6.243   4.466   5.239
95075SOL    HW287000   6.389   4.497   5.213
95076SOL     OW87001  14.554   8.910  13.663
95076SOL    HW187002  14.545   8.896  13.569
95076SOL    HW287003  14.590   8.998  13.672
95077SOL     OW87004   9.022   0.743   6.779
95077SOL    HW187005   8.938   0.706   6.806
95077SOL    HW287006   9.047   0.800   6.852
95078SOL     OW87007   5.924   6.189   0.316
95078SOL    HW187008   5.924   6.245   0.238
95078SOL    HW287009   6.014   6.193   0.349
95079SOL     OW87010   0.054   0.504   3.015
95079SOL    HW187011   0.071   0.473   3.104
95079SOL    HW287012   0.021   0.593   3.026
95080SOL     OW87013   9.274  13.415   4.867
95080SOL    HW187014   9.263  13.498   4.914
95080SOL    HW287015   9.241  13.349   4.927
95081SOL     OW87016   1.406  13.959   0.923
95081SOL    HW187017   1.468  13.968   0.850
95081SOL    HW287018   1.323  13.938   0.881
95082SOL     OW87019  11.443   2.260   6.745
95082SOL    HW187020  11.358   2.220   6.726
95082SOL    HW287021  11.425   2.321   6.817
95083SOL     OW87022  13.204   8.719   3.744
95083SOL    HW187023  13.298   8.717   3.761
95083SOL    HW287024  13.187   8.808   3.712
95084SOL     OW87025   1.964   7.883   4.244
95084SOL    HW187026   2.022   7.886   4.321
95084SOL    HW287027   1.952   7.790   4.227
95085SOL     OW87028   1.391   9.587   5.173
95085SOL    HW187029   1.311   9.611   5.126
95085SOL    HW287030   1.447   9.664   5.165
95086SOL     OW87031   6.803   0.267   9.715
95086SOL    HW187032   6.888   0.228   9.733
95086SOL    HW287033   6.767   0.288   9.802
95087SOL     OW87034   0.798  14.137  10.977
95087SOL    HW187035   0.856  14.149  11.053
95087SOL    HW287036   0.721  14.093  11.013
95088SOL     OW87037   6.333   6.349   3.198
95088SOL    HW187038   6.337   6.424   3.138
95088SOL    HW287039   6.368   6.383   3.280
95089SOL     OW87040   2.068  14.195  10.495
95089SOL    HW187041   1.993  14.239  10.535
95089SOL    HW287042   2.119  14.162  10.569
95090SOL     OW87043   9.638   6.562  10.092
95090SOL    HW187044   9.574   6.533  10.027
95090SOL    HW287045   9.647   6.656  10.076
95091SOL     OW87046   3.681   5.695  11.530
95091SOL    HW187047   3.766   5.696  11.486
95091SOL    HW287048   3.690   5.628  11.598
95092SOL     OW87049  13.626   9.814   6.087
95092SOL    HW187050  13.564   9.862   6.033
95092SOL    HW287051  13.712   9.837   6.053
95093SOL     OW87052   3.207   8.673   3.489
95093SOL    HW187053   3.186   8.582   3.468
95093SOL    HW287054   3.177   8.722   3.413
95094SOL     OW87055   6.135  12.090  12.645
95094SOL    HW187056   6.064  12.028  12.659
95094SOL    HW287057   6.164  12.074  12.555
95095SOL     OW87058  10.749  10.371  14.502
95095SOL    HW187059  10.710  10.412  14.425
95095SOL    HW287060  10.827  10.424  14.521
95096SOL     OW87061   4.453   9.069  11.303
95096SOL    HW187062   4.490   9.002  11.361
95096SOL    HW287063   4.396   9.121  11.359
95097SOL     OW87064   9.455   2.647   6.288
95097SOL    HW187065   9.457   2.737   6.321
95097SOL    HW287066   9.541   2.612   6.310
95098SOL     OW87067   6.590  13.197   3.975
95098SOL    HW187068   6.502  13.190   3.936
95098SOL    HW287069   6.576  13.249   4.054
95099SOL     OW87070  11.181  14.146   2.807
95099SOL    HW187071  11.133  14.226   2.784
95099SOL    HW287072  11.210  14.161   2.897
95100SOL     OW87073   6.349   0.256   4.929
95100SOL    HW187074   6.402   0.320   4.882
95100SOL    HW287075   6.411   0.213   4.988
95101SOL     OW87076  14.365   4.953   7.549
95101SOL    HW187077  14.274   4.930   7.571
95101SOL    HW287078  14.375   4.924   7.459
95102SOL     OW87079   0.648   5.740   8.160
95102SOL    HW187080   0.658   5.770   8.250
95102SOL    HW287081   0.720   5.782   8.112
95103SOL     OW87082  10.937   1.037   5.005
95103SOL    HW187083  10.899   1.121   5.031
95103SOL    HW287084  10.984   1.056   4.924
95104SOL     OW87085   7.417   1.848   1.263
95104SOL    HW187086   7.385   1.779   1.204
95104SOL    HW287087   7.458   1.912   1.204
95105SOL     OW87088   6.350   6.379   4.314
95105SOL    HW187089   6.444   6.396   4.303
95105SOL    HW287090   6.346   6.315   4.386
95106SOL     OW87091  14.743   3.581   8.097
95106SOL    HW187092  14.748   3.644   8.169
95106SOL    HW287093  14.830   3.543   8.092
95107SOL     OW87094  11.977  12.417   2.124
95107SOL    HW187095  11.936  12.503   2.114
95107SOL    HW287096  11.917  12.369   2.180
95108SOL     OW87097   7.314  12.347  11.735
95108SOL    HW187098   7.336  12.273  11.792
95108SOL    HW287099   7.314  12.310  11.646
95109SOL     OW87100   3.987  13.873   9.789
95109SOL    HW187101   3.989  13.953   9.842
95109SOL    HW287102   3.943  13.900   9.708
95110SOL     OW87103   0.675  12.659   7.290
95110SOL    HW187104   0.581  12.642   7.282
95110SOL    HW287105   0.688  12.682   7.382
95111SOL     OW87106  11.115  13.078  11.761
95111SOL    HW187107  11.049  13.010  11.775
95111SOL    HW287108  11.083  13.153  11.811
95112SOL     OW87109  14.412  14.481  14.813
95112SOL    HW187110  14.362  14.499  14.734
95112SOL    HW287111  14.489  14.537  14.807
95113SOL     OW87112   2.364  10.900   6.122
95113SOL    HW187113   2.300  10.831   6.141
95113SOL    HW287114   2.402  10.875   6.038
95114SOL     OW87115   8.004   8.680  11.873
95114SOL    HW187116   7.972   8.622  11.943
95114SOL    HW287117   7.929   8.692  11.815
95115SOL     OW87118   4.971   1.946  14.042
95115SOL    HW187119   4.929   2.006  13.981
95115SOL    HW287120   4.900   1.888  14.071
95116SOL     OW87121  10.079   3.692  11.940
95116SOL    HW187122  10.106   3.621  11.999
95116SOL    HW287123   9.989   3.669  11.915
95117SOL     OW87124   1.828   2.427  12.423
95117SOL    HW187125   1.797   2.349  12.376
95117SOL    HW287126   1.795   2.416  12.512
95118SOL     OW87127  13.367   7.304   8.335
95118SOL    HW187128  13.412   7.221   8.352
95118SOL    HW287129  13.373   7.352   8.418
95119SOL     OW87130   4.535   7.840   6.576
95119SOL    HW187131   4.451   7.824   6.532
95119SOL    HW287132   4.601   7.825   6.509
95120SOL     OW87133  11.099   5.541   4.258
95120SOL    HW187134  11.163   5.579   4.318
95120SOL    HW287135  11.048   5.615   4.227
95121SOL     OW87136   0.625   3.480   9.652
95121SOL    HW187137   0.560   3.462   9.584
95121SOL    HW287138   0.578   3.465   9.734
95122SOL     OW87139   0.438   8.454   7.707
95122SOL    HW187140   0.377   8.508   7.656
95122SOL    HW287141   0.512   8.440   7.648
95123SOL     OW87142   9.140   3.772   7.037
95123SOL    HW187143   9.187   3.690   7.050
95123SOL    HW287144   9.074   3.752   6.971
95124SOL     OW87145   7.358  14.600   4.025
95124SOL    HW187146   7.445  14.625   3.993
95124SOL    HW287147   7.310  14.682   4.033
95125SOL     OW87148   7.194   8.569   8.489
95125SOL    HW187149   7.221   8.644   8.541
95125SOL    HW287150   7.276   8.530   8.458
95126SOL     OW87151  12.165   6.712  14.163
95126SOL    HW187152  12.243   6.765  14.149
95126SOL    HW287153  12.178   6.671  14.249
95127SOL     OW87154   9.359   3.476   3.543
95127SOL    HW187155   9.411   3.543   3.498
95127SOL    HW287156   9.314   3.523   3.612
95128SOL     OW87157  14.279   0.606  12.171
95128SOL    HW187158  14.272   0.661  12.093
95128SOL    HW287159  14.188   0.590  12.197
95129SOL     OW87160   0.382   5.690   2.487
95129SOL    HW187161   0.427   5.613   2.452
95129SOL    HW287162   0.336   5.657   2.564
95130SOL     OW87163  12.791  12.795  10.911
95130SOL    HW187164  12.882  12.765  10.901
95130SOL    HW287165  12.796  12.868  10.972
95131SOL     OW87166   4.152  11.103   5.508
95131SOL    HW187167   4.068  11.056   5.509
95131SOL    HW287168   4.218  11.034   5.513
95132SOL     OW87169   3.272   0.020  11.943
95132SOL    HW187170   3.323   0.097  11.971
95132SOL    HW287171   3.194   0.022  11.998
95133SOL     OW87172   4.925   8.569   9.941
95133SOL    HW187173   4.894   8.479   9.930
95133SOL    HW287174   4.873   8.620   9.879
95134SOL     OW87175   2.525   8.139   5.262
95134SOL    HW187176   2.495   8.155   5.172
95134SOL    HW287177   2.448   8.107   5.308
95135SOL     OW87178   8.395  10.134   6.653
95135SOL    HW187179   8.388  10.148   6.747
95135SOL    HW287180   8.329  10.191   6.615
95136SOL     OW87181   1.617   6.878   9.591
95136SOL    HW187182   1.646   6.798   9.634
95136SOL    HW287183   1.610   6.942   9.662
95137SOL     OW87184   1.152   8.824   3.163
95137SOL    HW187185   1.208   8.872   3.224
95137SOL    HW287186   1.103   8.763   3.219
95138SOL     OW87187   0.615   3.641   9.095
95138SOL    HW187188   0.704   3.607   9.085
95138SOL    HW287189   0.615   3.724   9.047
95139SOL     OW87190  11.155   7.313  10.837
95139SOL    HW187191  11.231   7.359  10.873
95139SOL    HW287192  11.189   7.227  10.812
95140SOL     OW87193  14.083   2.697   7.260
95140SOL    HW187194  14.069   2.706   7.354
95140SOL    HW287195  14.035   2.618   7.236
95141SOL     OW87196  10.461  13.239   9.912
95141SOL    HW187197  10.464  13.144   9.902
95141SOL    HW287198  10.551  13.268   9.897
95142SOL     OW87199   9.021   7.289   9.376
95142SOL    HW187200   9.109   7.255   9.359
95142SOL    HW287201   9.035   7.364   9.434
95143SOL     OW87202   2.496   7.264   9.130
95143SOL    HW187203   2.571   7.251   9.072
95143SOL    HW287204   2.422   7.277   9.071
95144SOL     OW87205   0.707   3.360   1.178
95144SOL    HW187206   0.734   3.368   1.087
95144SOL    HW287207   0.666   3.274   1.184
95145SOL     OW87208   8.582   8.779   9.922
95145SOL    HW187209   8.508   8.782   9.861
95145SOL    HW287210   8.658   8.806   9.870
95146SOL     OW87211   0.059  13.682   8.289
95146SOL    HW187212   0.133  13.717   8.338
95146SOL    HW287213   0.061  13.728   8.205
95147SOL     OW87214  11.222  14.313   3.990
95147SOL    HW187215  11.211  14.349   3.902
95147SOL    HW287216  11.185  14.225   3.985
95148SOL     OW87217   1.882   6.422  13.926
95148SOL    HW187218   1.807   6.423  13.985
95148SOL    HW287219   1.947   6.368  13.971
95149SOL     OW87220   0.336  13.989   8.368
95149SOL    HW187221   0.356  14.001   8.275
95149SOL    HW287222   0.397  14.045   8.414
95150SOL     OW87223   1.608   9.993   9.834
95150SOL    HW187224   1.647   9.970   9.919
95150SOL    HW287225   1.609   9.911   9.784
95151SOL     OW87226   1.937   5.308  13.955
95151SOL    HW187227   2.009   5.359  13.918
95151SOL    HW287228   1.860   5.337  13.907
95152SOL     OW87229  13.448  12.720   3.617
95152SOL    HW187230  13.387  12.722   3.691
95152SOL    HW287231  13.424  12.642   3.568
95153SOL     OW87232   5.582  11.158   3.072
95153SOL    HW187233   5.551  11.072   3.101
95153SOL    HW287234   5.667  11.141   3.033
95154SOL     OW87235   5.021   3.054   5.602
95154SOL    HW187236   5.105   3.096   5.585
95154SOL    HW287237   4.962   3.090   5.537
95155SOL     OW87238   9.647   9.187   9.259
95155SOL    HW187239   9.669   9.139   9.179
95155SOL    HW287240   9.584   9.131   9.304
95156SOL     OW87241   3.004  11.209  12.316
95156SOL    HW187242   2.982  11.297  12.348
95156SOL    HW287243   2.942  11.194  12.245
95157SOL     OW87244   8.090  13.348   0.710
95157SOL    HW187245   8.166  13.370   0.763
95157SOL    HW287246   8.126  13.329   0.623
95158SOL     OW87247   0.292   5.944  11.169
95158SOL    HW187248   0.303   5.856  11.207
95158SOL    HW287249   0.332   5.937  11.082
95159SOL     OW87250   4.845  13.804  12.525
95159SOL    HW187251   4.848  13.878  12.465
95159SOL    HW287252   4.754  13.801  12.555
95160SOL     OW87253   8.381   1.583   5.917
95160SOL    HW187254   8.296   1.623   5.938
95160SOL    HW287255   8.358   1.500   5.875
95161SOL     OW87256   0.069   9.581  10.410
95161SOL    HW187257  14.870   9.585  10.466
95161SOL    HW287258   0.036   9.557  10.324
95162SOL     OW87259   8.899  14.045  10.015
95162SOL    HW187260   8.858  14.097   9.945
95162SOL    HW287261   8.920  14.109  10.083
95163SOL     OW87262  12.979  12.300   6.250
95163SOL    HW187263  13.019  12.386   6.269
95163SOL    HW287264  13.054  12.244   6.226
95164SOL     OW87265   1.585   8.776  13.203
95164SOL    HW187266   1.603   8.738  13.117
95164SOL    HW287267   1.580   8.702  13.263
95165SOL     OW87268   4.315  12.965  11.805
95165SOL    HW187269   4.342  12.931  11.720
95165SOL    HW287270   4.285  12.887  11.853
95166SOL     OW87271   4.971   5.270   9.185
95166SOL    HW187272   4.893   5.240   9.138
95166SOL    HW287273   4.952   5.254   9.277
95167SOL     OW87274   4.223   1.157   4.862
95167SOL    HW187275   4.301   1.212   4.864
95167SOL    HW287276   4.254   1.069   4.884
95168SOL     OW87277   2.311   7.424  10.405
95168SOL    HW187278   2.329   7.499  10.462
95168SOL    HW287279   2.230   7.447  10.360
95169SOL     OW87280   3.015   8.919  13.068
95169SOL    HW187281   3.085   8.980  13.045
95169SOL    HW287282   2.972   8.900  12.985
95170SOL     OW87283   7.253   6.989   2.482
95170SOL    HW187284   7.241   6.897   2.461
95170SOL    HW287285   7.347   6.998   2.497
95171SOL     OW87286   4.178  14.272  10.962
95171SOL    HW187287   4.271  14.295  10.955
95171SOL    HW287288   4.176  14.177  10.953
95172SOL     OW87289   4.814   9.645  11.404
95172SOL    HW187290   4.812   9.730  11.448
95172SOL    HW287291   4.731   9.603  11.428
95173SOL     OW87292   7.729   3.508   3.587
95173SOL    HW187293   7.716   3.414   3.586
95173SOL    HW287294   7.648   3.544   3.549
95174SOL     OW87295   9.585   2.898   5.353
95174SOL    HW187296   9.646   2.857   5.415
95174SOL    HW287297   9.576   2.834   5.282
95175SOL     OW87298   3.024   1.778   5.396
95175SOL    HW187299   3.083   1.844   5.432
95175SOL    HW287300   3.079   1.725   5.339
95176SOL     OW87301   4.374   8.798   1.186
95176SOL    HW187302   4.439   8.811   1.255
95176SOL    HW287303   4.400   8.858   1.116
95177SOL     OW87304  13.681  11.144  14.152
95177SOL    HW187305  13.693  11.137  14.246
95177SOL    HW287306  13.697  11.236  14.132
95178SOL     OW87307  10.844  13.390   1.385
95178SOL    HW187308  10.848  13.468   1.329
95178SOL    HW287309  10.922  13.340   1.362
95179SOL     OW87310   1.815   0.526   2.182
95179SOL    HW187311   1.848   0.615   2.196
95179SOL    HW287312   1.876   0.470   2.231
95180SOL     OW87313   8.068   6.555   4.875
95180SOL    HW187314   8.071   6.607   4.955
95180SOL    HW287315   8.103   6.612   4.807
95181SOL     OW87316   6.231  11.904  12.867
95181SOL    HW187317   6.236  11.932  12.958
95181SOL    HW287318   6.195  11.980  12.821
95182SOL     OW87319   5.004   1.749   1.427
95182SOL    HW187320   5.047   1.670   1.460
95182SOL    HW287321   5.012   1.744   1.332
95183SOL     OW87322   0.139   0.272   4.847
95183SOL    HW187323   0.190   0.251   4.769
95183SOL    HW287324   0.193   0.333   4.896
95184SOL     OW87325   3.499  10.283   7.429
95184SOL    HW187326   3.528  10.241   7.511
95184SOL    HW287327   3.560  10.250   7.363
95185SOL     OW87328  12.786  14.130   6.139
95185SOL    HW187329  12.709  14.152   6.191
95185SOL    HW287330  12.780  14.035   6.125
95186SOL     OW87331   3.895   6.891  10.325
95186SOL    HW187332   3.811   6.931  10.347
95186SOL    HW287333   3.946   6.896  10.406
95187SOL     OW87334   0.486   6.627   8.649
95187SOL    HW187335   0.568   6.585   8.677
95187SOL    HW287336   0.439   6.558   8.603
95188SOL     OW87337  11.884   7.156  12.016
95188SOL    HW187338  11.864   7.204  12.096
95188SOL    HW287339  11.843   7.070  12.028
95189SOL     OW87340   1.037  10.981   8.363
95189SOL    HW187341   1.108  10.955   8.421
95189SOL    HW287342   1.049  11.074   8.350
95190SOL     OW87343  13.122  11.645  12.173
95190SOL    HW187344  13.171  11.709  12.224
95190SOL    HW287345  13.187  11.602  12.118
95191SOL     OW87346   0.490   1.015  14.597
95191SOL    HW187347   0.534   1.022  14.512
95191SOL    HW287348   0.524   1.089  14.647
95192SOL     OW87349  12.629   7.259   5.748
95192SOL    HW187350  12.640   7.165   5.735
95192SOL    HW287351  12.667   7.276   5.835
95193SOL     OW87352   4.913   4.677   5.294
95193SOL    HW187353   4.978   4.709   5.230
95193SOL    HW287354   4.886   4.756   5.341
95194SOL     OW87355   0.007  12.670   2.539
95194SOL    HW187356   0.093  12.703   2.565
95194SOL    HW287357  14.857  12.615   2.612
95195SOL     OW87358  11.707   2.342   2.308
95195SOL    HW187359  11.664   2.366   2.226
95195SOL    HW287360  11.636   2.312   2.365
95196SOL     OW87361   5.125   2.420   0.969
95196SOL    HW187362   5.122   2.325   0.958
95196SOL    HW287363   5.193   2.435   1.036
95197SOL     OW87364   6.195   2.827  11.672
95197SOL    HW187365   6.283   2.792  11.682
95197SOL    HW287366   6.156   2.818  11.759
95198SOL     OW87367   6.495  13.095  13.221
95198SOL    HW187368   6.408  13.112  13.186
95198SOL    HW287369   6.492  13.129  13.311
95199SOL     OW87370   3.349   2.066  10.014
95199SOL    HW187371   3.313   2.155  10.005
95199SOL    HW287372   3.343   2.029   9.926
95200SOL     OW87373  12.144   5.971   8.412
95200SOL    HW187374  12.155   6.054   8.365
95200SOL    HW287375  12.180   5.988   8.499
95201SOL     OW87376   5.095   7.333   2.877
95201SOL    HW187377   5.019   7.276   2.859
95201SOL    HW287378   5.141   7.338   2.793
95202SOL     OW87379   6.541   7.901  11.627
95202SOL    HW187380   6.485   7.946  11.690
95202SOL    HW287381   6.513   7.809  11.631
95203SOL     OW87382   4.676  10.165   5.596
95203SOL    HW187383   4.684  10.258   5.616
95203SOL    HW287384   4.731  10.121   5.662
95204SOL     OW87385  13.079   2.434   0.562
95204SOL    HW187386  13.085   2.498   0.633
95204SOL    HW287387  13.077   2.349   0.607
95205SOL     OW87388  12.341   3.245   0.722
95205SOL    HW187389  12.384   3.329   0.738
95205SOL    HW287390  12.264   3.247   0.779
95206SOL     OW87391  13.395  11.613   8.165
95206SOL    HW187392  13.363  11.553   8.098
95206SOL    HW287393  13.386  11.565   8.247
95207SOL     OW87394  11.965   0.500   9.202
95207SOL    HW187395  11.905   0.574   9.203
95207SOL    HW287396  12.044   0.533   9.244
95208SOL     OW87397   4.007   2.236   0.650
95208SOL    HW187398   4.100   2.218   0.665
95208SOL    HW287399   4.004   2.328   0.625
95209SOL     OW87400   2.118  14.089   3.789
95209SOL    HW187401   2.155  14.046   3.712
95209SOL    HW287402   2.191  14.094   3.851
95210SOL     OW87403   7.008   5.572   3.190
95210SOL    HW187404   6.965   5.557   3.274
95210SOL    HW287405   6.940   5.613   3.136
95211SOL     OW87406   2.532   9.181   5.715
95211SOL    HW187407   2.509   9.224   5.633
95211SOL    HW287408   2.489   9.095   5.710
95212SOL     OW87409  11.444  12.749   6.117
95212SOL    HW187410  11.420  12.716   6.030
95212SOL    HW287411  11.360  12.767   6.159
95213SOL     OW87412  12.141   0.397   9.821
95213SOL    HW187413  12.194   0.357   9.890
95213SOL    HW287414  12.204   0.449   9.770
95214SOL     OW87415   3.512   3.887   7.403
95214SOL    HW187416   3.470   3.952   7.460
95214SOL    HW287417   3.477   3.904   7.316
95215SOL     OW87418   3.592  10.563   1.424
95215SOL    HW187419   3.498  10.545   1.427
95215SOL    HW287420   3.598  10.658   1.436
95216SOL     OW87421  10.912   5.342   5.078
95216SOL    HW187422  10.939   5.433   5.062
95216SOL    HW287423  10.823   5.337   5.044
95217SOL     OW87424   6.354   1.806   5.004
95217SOL    HW187425   6.447   1.809   5.025
95217SOL    HW287426   6.315   1.874   5.058
95218SOL     OW87427  10.638   9.174  13.387
95218SOL    HW187428  10.598   9.250  13.345
95218SOL    HW287429  10.619   9.102  13.327
95219SOL     OW87430   8.933   6.680   3.745
95219SOL    HW187431   8.949   6.590   3.774
95219SOL    HW287432   8.959   6.680   3.653
95220SOL     OW87433   8.130  13.983   0.660
95220SOL    HW187434   8.083  13.915   0.708
95220SOL    HW287435   8.070  14.058   0.659
95221SOL     OW87436   6.717  11.234  10.703
95221SOL    HW187437   6.679  11.146  10.708
95221SOL    HW287438   6.737  11.247  10.610
95222SOL     OW87439   0.671  11.201  13.726
95222SOL    HW187440   0.634  11.151  13.653
95222SOL    HW287441   0.766  11.190  13.716
95223SOL     OW87442  10.325  10.069  14.154
95223SOL    HW187443  10.416  10.041  14.140
95223SOL    HW287444  10.320  10.090  14.248
95224SOL     OW87445   3.000   6.606   2.793
95224SOL    HW187446   3.081   6.582   2.747
95224SOL    HW287447   3.014   6.697   2.819
95225SOL     OW87448   2.011   2.261  12.779
95225SOL    HW187449   2.052   2.314  12.847
95225SOL    HW287450   2.046   2.296  12.697
95226SOL     OW87451   9.039   6.373  14.721
95226SOL    HW187452   9.129   6.365  14.689
95226SOL    HW287453   9.014   6.284  14.745
95227SOL     OW87454   5.673   1.542  11.805
95227SOL    HW187455   5.652   1.463  11.855
95227SOL    HW287456   5.588   1.575  11.776
95228SOL     OW87457   1.511   3.082  14.654
95228SOL    HW187458   1.603   3.060  14.673
95228SOL    HW287459   1.466   3.069  14.738
95229SOL     OW87460   9.945   9.671   8.396
95229SOL    HW187461  10.032   9.635   8.378
95229SOL    HW287462   9.903   9.606   8.451
95230SOL     OW87463  12.716  11.602   3.436
95230SOL    HW187464  12.757  11.630   3.518
95230SOL    HW287465  12.750  11.514   3.421
95231SOL     OW87466   8.050   4.036  13.919
95231SOL    HW187467   8.092   4.046  13.833
95231SOL    HW287468   8.103   3.970  13.964
95232SOL     OW87469  10.661   4.073  10.169
95232SOL    HW187470  10.580   4.024  10.158
95232SOL    HW287471  10.730   4.013  10.139
95233SOL     OW87472   2.368  10.637   7.272
95233SOL    HW187473   2.449  10.603   7.234
95233SOL    HW287474   2.396  10.698   7.339
95234SOL     OW87475  13.680  14.463   2.052
95234SOL    HW187476  13.630  14.401   1.999
95234SOL    HW287477  13.770  14.431   2.048
95235SOL     OW87478   6.641   6.951  12.469
95235SOL    HW187479   6.665   6.950  12.561
95235SOL    HW287480   6.704   7.010  12.428
95236SOL     OW87481  10.899  13.580  14.240
95236SOL    HW187482  10.962  13.512  14.219
95236SOL    HW287483  10.947  13.662  14.226
95237SOL     OW87484   5.019   4.887   6.944
95237SOL    HW187485   4.963   4.921   7.014
95237SOL    HW287486   5.040   4.963   6.891
95238SOL     OW87487   7.772  14.563  10.138
95238SOL    HW187488   7.816  14.648  10.135
95238SOL    HW287489   7.682  14.583  10.165
95239SOL     OW87490  12.779  12.703  11.939
95239SOL    HW187491  12.835  12.630  11.914
95239SOL    HW287492  12.695  12.663  11.960
95240SOL     OW87493   2.539  13.645   4.935
95240SOL    HW187494   2.581  13.688   5.009
95240SOL    HW287495   2.572  13.691   4.858
95241SOL     OW87496   4.017  11.687   4.535
95241SOL    HW187497   3.928  11.690   4.500
95241SOL    HW287498   4.045  11.596   4.520
95242SOL     OW87499   5.829   9.150   3.041
95242SOL    HW187500   5.841   9.067   2.995
95242SOL    HW287501   5.875   9.214   2.986
95243SOL     OW87502  10.404  11.032  12.998
95243SOL    HW187503  10.370  11.051  12.910
95243SOL    HW287504  10.346  11.081  13.056
95244SOL     OW87505  13.501   6.001   9.481
95244SOL    HW187506  13.539   6.083   9.449
95244SOL    HW287507  13.489   5.948   9.403
95245SOL     OW87508  11.235  12.392   8.744
95245SOL    HW187509  11.197  12.326   8.686
95245SOL    HW287510  11.216  12.475   8.702
95246SOL     OW87511   0.453   1.090   7.336
95246SOL    HW187512   0.514   1.094   7.410
95246SOL    HW287513   0.485   1.155   7.274
95247SOL     OW87514  11.685   9.025   9.566
95247SOL    HW187515  11.596   9.013   9.600
95247SOL    HW287516  11.722   9.096   9.618
95248SOL     OW87517  13.533   3.748   4.275
95248SOL    HW187518  13.559   3.663   4.309
95248SOL    HW287519  13.583   3.811   4.328
95249SOL     OW87520   2.758   6.844   9.951
95249SOL    HW187521   2.799   6.814   9.870
95249SOL    HW287522   2.806   6.924   9.974
95250SOL     OW87523   2.492  12.625  12.539
95250SOL    HW187524   2.509  12.713  12.574
95250SOL    HW287525   2.472  12.572  12.615
95251SOL     OW87526   8.993   4.413   6.584
95251SOL    HW187527   9.080   4.453   6.578
95251SOL    HW287528   9.005   4.323   6.553
95252SOL     OW87529  10.596   8.265   4.539
95252SOL    HW187530  10.639   8.335   4.490
95252SOL    HW287531  10.603   8.292   4.631
95253SOL     OW87532   0.424  13.238  10.357
95253SOL    HW187533   0.335  13.207  10.342
95253SOL    HW287534   0.424  13.328  10.326
95254SOL     OW87535  10.200   2.432   8.228
95254SOL    HW187536  10.148   2.437   8.308
95254SOL    HW287537  10.164   2.357   8.180
95255SOL     OW87538   8.748  10.590   4.855
95255SOL    HW187539   8.784  10.576   4.767
95255SOL    HW287540   8.819  10.567   4.914
95256SOL     OW87541   5.615   8.325   5.556
95256SOL    HW187542   5.566   8.327   5.474
95256SOL    HW287543   5.707   8.334   5.529
95257SOL     OW87544   7.944  11.985  14.764
95257SOL    HW187545   8.007  12.045  14.724
95257SOL    HW287546   7.922  11.923  14.694
95258SOL     OW87547   3.203   8.054   6.665
95258SOL    HW187548   3.129   7.995   6.681
95258SOL    HW287549   3.270   8.026   6.728
95259SOL     OW87550   3.226   2.415   0.343
95259SOL    HW187551   3.291   2.433   0.411
95259SOL    HW287552   3.264   2.453   0.263
95260SOL     OW87553  13.624   5.707   7.664
95260SOL    HW187554  13.568   5.726   7.738
95260SOL    HW287555  13.678   5.633   7.692
95261SOL     OW87556   8.374   3.525   7.935
95261SOL    HW187557   8.385   3.569   7.851
95261SOL    HW287558   8.307   3.459   7.918
95262SOL     OW87559  12.356  11.611   9.532
95262SOL    HW187560  12.315  11.651   9.609
95262SOL    HW287561  12.441  11.580   9.564
95263SOL     OW87562  12.967   0.444   2.570
95263SOL    HW187563  12.888   0.498   2.576
95263SOL    HW287564  12.940   0.367   2.520
95264SOL     OW87565   7.999   5.350   2.597
95264SOL    HW187566   7.966   5.355   2.687
95264SOL    HW287567   7.998   5.257   2.577
95265SOL     OW87568  10.306   2.036  14.687
95265SOL    HW187569  10.357   1.986  14.622
95265SOL    HW287570  10.345   2.123  14.687
95266SOL     OW87571  11.434  10.967   1.470
95266SOL    HW187572  11.364  11.012   1.517
95266SOL    HW287573  11.514  11.011   1.500
95267SOL     OW87574   9.395   9.144   6.655
95267SOL    HW187575   9.363   9.119   6.568
95267SOL    HW287576   9.475   9.194   6.636
95268SOL     OW87577   8.410   7.221  12.150
95268SOL    HW187578   8.410   7.265  12.065
95268SOL    HW287579   8.393   7.291  12.214
95269SOL     OW87580   4.109   6.220  10.683
95269SOL    HW187581   4.041   6.246  10.744
95269SOL    HW287582   4.064   6.166  10.618
95270SOL     OW87583  13.558   6.735   9.342
95270SOL    HW187584  13.609   6.663   9.381
95270SOL    HW287585  13.503   6.692   9.277
95271SOL     OW87586   1.275   7.968   1.509
95271SOL    HW187587   1.366   7.993   1.491
95271SOL    HW287588   1.237   8.046   1.549
95272SOL     OW87589   1.008   9.256  13.780
95272SOL    HW187590   1.059   9.183  13.815
95272SOL    HW287591   0.924   9.249  13.825
95273SOL     OW87592  11.819   9.742   1.416
95273SOL    HW187593  11.855   9.819   1.461
95273SOL    HW287594  11.858   9.667   1.461
95274SOL     OW87595   5.770   6.694  12.770
95274SOL    HW187596   5.767   6.601  12.794
95274SOL    HW287597   5.807   6.694  12.681
95275SOL     OW87598   2.030   9.880   0.040
95275SOL    HW187599   2.112   9.928   0.038
95275SOL    HW287600   2.029   9.829  14.837
95276SOL     OW87601   1.078   8.818   9.488
95276SOL    HW187602   1.022   8.750   9.452
95276SOL    HW287603   1.127   8.850   9.412
95277SOL     OW87604  11.835  14.100   5.609
95277SOL    HW187605  11.910  14.114   5.551
95277SOL    HW287606  11.779  14.039   5.560
95278SOL     OW87607   3.035   5.654   8.942
95278SOL    HW187608   3.017   5.641   9.035
95278SOL    HW287609   2.965   5.606   8.897
95279SOL     OW87610  13.046   4.160   2.456
95279SOL    HW187611  13.066   4.118   2.373
95279SOL    HW287612  13.089   4.246   2.451
95280SOL     OW87613  14.268   3.940   4.332
95280SOL    HW187614  14.300   3.983   4.411
95280SOL    HW287615  14.176   3.920   4.351
95281SOL     OW87616   9.258   1.693  11.442
95281SOL    HW187617   9.348   1.671  11.418
95281SOL    HW287618   9.253   1.788  11.435
95282SOL     OW87619  10.705   6.782   8.832
95282SOL    HW187620  10.766   6.823   8.771
95282SOL    HW287621  10.742   6.798   8.918
95283SOL     OW87622  14.516  13.955   4.784
95283SOL    HW187623  14.560  13.900   4.719
95283SOL    HW287624  14.494  13.895   4.855
95284SOL     OW87625   8.580  10.807   4.903
95284SOL    HW187626   8.491  10.778   4.880
95284SOL    HW287627   8.637  10.739   4.868
95285SOL     OW87628   4.280   6.003  12.619
95285SOL    HW187629   4.347   6.061  12.583
95285SOL    HW287630   4.311   5.982  12.707
95286SOL     OW87631  10.780   1.750   3.991
95286SOL    HW187632  10.804   1.839   4.015
95286SOL    HW287633  10.830   1.695   4.051
95287SOL     OW87634   5.358   6.363  12.641
95287SOL    HW187635   5.324   6.389  12.727
95287SOL    HW287636   5.298   6.403  12.578
95288SOL     OW87637  12.447   5.925   4.531
95288SOL    HW187638  12.383   5.862   4.498
95288SOL    HW287639  12.480   5.886   4.611
95289SOL     OW87640   2.898   8.068   0.667
95289SOL    HW187641   2.873   8.148   0.620
95289SOL    HW287642   2.892   7.999   0.601
95290SOL     OW87643  10.001   5.935   7.137
95290SOL    HW187644   9.986   6.028   7.155
95290SOL    HW287645  10.022   5.897   7.222
95291SOL     OW87646   9.444   7.348   5.263
95291SOL    HW187647   9.382   7.285   5.301
95291SOL    HW287648   9.404   7.373   5.180
95292SOL     OW87649  10.365  11.445   9.159
95292SOL    HW187650  10.303  11.454   9.231
95292SOL    HW287651  10.451  11.461   9.200
95293SOL     OW87652   7.146   6.367   8.748
95293SOL    HW187653   7.150   6.457   8.717
95293SOL    HW287654   7.110   6.318   8.675
95294SOL     OW87655   9.545   4.092   9.515
95294SOL    HW187656   9.490   4.015   9.502
95294SOL    HW287657   9.507   4.137   9.591
95295SOL     OW87658   4.845   5.033  10.895
95295SOL    HW187659   4.783   5.047  10.966
95295SOL    HW287660   4.805   5.076  10.819
95296SOL     OW87661  12.056  14.874   1.286
95296SOL    HW187662  12.129   0.037   1.239
95296SOL    HW287663  11.982   0.054   1.271
95297SOL     OW87664   2.765  13.298   1.325
95297SOL    HW187665   2.751  13.370   1.263
95297SOL    HW287666   2.696  13.235   1.304
95298SOL     OW87667  11.262  13.366   0.909
95298SOL    HW187668  11.168  13.380   0.899
95298SOL    HW287669  11.299  13.387   0.823
95299SOL     OW87670   8.512  10.537   7.341
95299SOL    HW187671   8.464  10.618   7.354
95299SOL    HW287672   8.523  10.501   7.430
95300SOL     OW87673   2.099  11.766   4.234
95300SOL    HW187674   2.190  11.793   4.244
95300SOL    HW287675   2.070  11.810   4.154
95301SOL     OW87676  12.600  12.153   4.173
95301SOL    HW187677  12.590  12.234   4.223
95301SOL    HW287678  12.689  12.157   4.140
95302SOL     OW87679   5.263   2.304  11.843
95302SOL    HW187680   5.200   2.339  11.906
95302SOL    HW287681   5.348   2.318  11.885
95303SOL     OW87682   4.088   9.265   7.473
95303SOL    HW187683   4.010   9.312   7.501
95303SOL    HW287684   4.062   9.173   7.472
95304SOL     OW87685  11.159   9.088   6.748
95304SOL    HW187686  11.078   9.112   6.793
95304SOL    HW287687  11.149   8.994   6.730
95305SOL     OW87688   2.427   4.145   3.620
95305SOL    HW187689   2.482   4.103   3.554
95305SOL    HW287690   2.418   4.080   3.689
95306SOL     OW87691   2.700   7.715   8.868
95306SOL    HW187692   2.761   7.669   8.810
95306SOL    HW287693   2.732   7.805   8.870
95307SOL     OW87694   9.505   1.426  10.589
95307SOL    HW187695   9.414   1.427  10.558
95307SOL    HW287696   9.545   1.502  10.547
95308SOL     OW87697   3.436  12.498  12.104
95308SOL    HW187698   3.489  12.515  12.026
95308SOL    HW287699   3.499  12.487  12.175
95309SOL     OW87700   7.166  10.585  14.232
95309SOL    HW187701   7.157  10.680  14.229
95309SOL    HW287702   7.082  10.552  14.200
95310SOL     OW87703   1.443   3.791   0.217
95310SOL    HW187704   1.518   3.747   0.175
95310SOL    HW287705   1.482   3.850   0.281
95311SOL     OW87706   8.138  14.729  12.435
95311SOL    HW187707   8.049  14.699  12.455
95311SOL    HW287708   8.137  14.743  12.340
95312SOL     OW87709   3.466  10.836   7.023
95312SOL    HW187710   3.447  10.927   7.046
95312SOL    HW287711   3.420  10.785   7.089
95313SOL     OW87712  12.234   7.765   6.618
95313SOL    HW187713  12.217   7.672   6.604
95313SOL    HW287714  12.230   7.805   6.531
95314SOL     OW87715   1.170   3.155   2.666
95314SOL    HW187716   1.075   3.146   2.673
95314SOL    HW287717   1.185   3.249   2.677
95315SOL     OW87718  14.346  12.174   9.725
95315SOL    HW187719  14.440  12.157   9.717
95315SOL    HW287720  14.340  12.241   9.794
95316SOL     OW87721   6.626   0.985   3.255
95316SOL    HW187722   6.690   1.053   3.234
95316SOL    HW287723   6.678   0.915   3.293
95317SOL     OW87724  13.543  13.441   4.077
95317SOL    HW187725  13.588  13.484   4.003
95317SOL    HW287726  13.514  13.513   4.132
95318SOL     OW87727  11.035  11.895  10.811
95318SOL    HW187728  11.126  11.918  10.828
95318SOL    HW287729  11.039  11.835  10.736
95319SOL     OW87730  14.600  13.510   1.965
95319SOL    HW187731  14.653  13.431   1.958
95319SOL    HW287732  14.663  13.581   1.975
95320SOL     OW87733   2.943   5.146   3.815
95320SOL    HW187734   3.036   5.166   3.811
95320SOL    HW287735   2.932   5.098   3.897
95321SOL     OW87736   2.471   7.224   4.665
95321SOL    HW187737   2.457   7.279   4.588
95321SOL    HW287738   2.553   7.177   4.647
95322SOL     OW87739   5.400   2.404  10.350
95322SOL    HW187740   5.428   2.459  10.277
95322SOL    HW287741   5.337   2.458  10.397
95323SOL     OW87742  14.700   3.484   9.622
95323SOL    HW187743  14.696   3.579   9.613
95323SOL    HW287744  14.609   3.455   9.625
95324SOL     OW87745  13.208   9.380  13.956
95324SOL    HW187746  13.297   9.355  13.931
95324SOL    HW287747  13.157   9.370  13.875
95325SOL     OW87748   7.716   3.095   2.637
95325SOL    HW187749   7.793   3.040   2.646
95325SOL    HW287750   7.652   3.040   2.591
95326SOL     OW87751  10.751  10.093   9.115
95326SOL    HW187752  10.812  10.033   9.072
95326SOL    HW287753  10.705  10.039   9.179
95327SOL     OW87754  13.713   2.967   0.377
95327SOL    HW187755  13.676   2.904   0.316
95327SOL    HW287756  13.720   3.049   0.327
95328SOL     OW87757  11.857  13.769  10.373
95328SOL    HW187758  11.949  13.750  10.350
95328SOL    HW287759  11.831  13.693  10.426
95329SOL     OW87760   3.985   0.174   0.953
95329SOL    HW187761   3.947   0.137   1.033
95329SOL    HW287762   3.921   0.239   0.924
95330SOL     OW87763  11.677  13.294  13.106
95330SOL    HW187764  11.652  13.228  13.171
95330SOL    HW287765  11.760  13.262  13.070
95331SOL     OW87766  10.198  10.040   7.940
95331SOL    HW187767  10.135   9.988   7.990
95331SOL    HW287768  10.208  10.120   7.990
95332SOL     OW87769  14.812   4.404  10.760
95332SOL    HW187770  14.771   4.318  10.752
95332SOL    HW287771  14.767   4.445  10.834
95333SOL     OW87772   4.121   8.316   8.880
95333SOL    HW187773   4.149   8.392   8.830
95333SOL    HW287774   4.176   8.245   8.848
95334SOL     OW87775   6.958   6.440  11.271
95334SOL    HW187776   6.872   6.409  11.298
95334SOL    HW287777   6.985   6.500  11.341
95335SOL     OW87778   3.229   8.438   9.026
95335SOL    HW187779   3.242   8.372   9.095
95335SOL    HW287780   3.313   8.441   8.980
95336SOL     OW87781   9.304  13.977   9.377
95336SOL    HW187782   9.356  13.906   9.415
95336SOL    HW287783   9.368  14.034   9.335
95337SOL     OW87784  12.788   7.086   9.221
95337SOL    HW187785  12.717   7.027   9.246
95337SOL    HW287786  12.868   7.039   9.244
95338SOL     OW87787  14.537  13.388   9.570
95338SOL    HW187788  14.612  13.405   9.513
95338SOL    HW287789  14.576  13.367   9.655
95339SOL     OW87790   0.947   9.092   8.018
95339SOL    HW187791   1.008   9.141   7.963
95339SOL    HW287792   0.860   9.120   7.988
95340SOL     OW87793   3.754   8.546   9.946
95340SOL    HW187794   3.673   8.564   9.994
95340SOL    HW287795   3.782   8.632   9.914
95341SOL     OW87796   2.877   1.273   1.087
95341SOL    HW187797   2.879   1.306   1.177
95341SOL    HW287798   2.785   1.251   1.072
95342SOL     OW87799   0.688   0.720   4.432
95342SOL    HW187800   0.695   0.660   4.507
95342SOL    HW287801   0.765   0.701   4.379
95343SOL     OW87802  12.024   8.774   0.863
95343SOL    HW187803  11.950   8.781   0.923
95343SOL    HW287804  11.993   8.814   0.782
95344SOL     OW87805  12.655   2.471   4.300
95344SOL    HW187806  12.605   2.503   4.375
95344SOL    HW287807  12.720   2.540   4.284
95345SOL     OW87808   3.046   4.292   4.992
95345SOL    HW187809   2.977   4.226   5.005
95345SOL    HW287810   3.067   4.286   4.899
95346SOL     OW87811   8.967   5.943   3.145
95346SOL    HW187812   8.895   5.981   3.195
95346SOL    HW287813   9.034   5.923   3.209
95347SOL     OW87814   3.985   1.924   3.880
95347SOL    HW187815   3.997   1.830   3.862
95347SOL    HW287816   3.974   1.963   3.793
95348SOL     OW87817   3.820   9.546   0.783
95348SOL    HW187818   3.785   9.590   0.706
95348SOL    HW287819   3.914   9.566   0.782
95349SOL     OW87820   1.522  13.909  13.082
95349SOL    HW187821   1.442  13.905  13.028
95349SOL    HW287822   1.588  13.865  13.029
95350SOL     OW87823   2.587   7.404   0.700
95350SOL    HW187824   2.657   7.359   0.653
95350SOL    HW287825   2.579   7.355   0.783
95351SOL     OW87826   9.883   0.686   6.142
95351SOL    HW187827   9.970   0.725   6.153
95351SOL    HW287828   9.901   0.593   6.126
95352SOL     OW87829  10.841   4.484   6.390
95352SOL    HW187830  10.913   4.426   6.364
95352SOL    HW287831  10.804   4.444   6.468
95353SOL     OW87832   8.533   2.549   6.609
95353SOL    HW187833   8.611   2.494   6.602
95353SOL    HW287834   8.557   2.617   6.672
95354SOL     OW87835   4.955   3.135   4.929
95354SOL    HW187836   4.977   3.182   4.849
95354SOL    HW287837   4.927   3.202   4.990
95355SOL     OW87838   6.421   8.339  11.971
95355SOL    HW187839   6.477   8.305  11.901
95355SOL    HW287840   6.434   8.279  12.044
95356SOL     OW87841   4.776   4.221   5.351
95356SOL    HW187842   4.867   4.247   5.335
95356SOL    HW287843   4.766   4.138   5.304
95357SOL     OW87844  11.471  12.222   4.651
95357SOL    HW187845  11.444  12.252   4.564
95357SOL    HW287846  11.462  12.300   4.707
95358SOL     OW87847  12.003   6.621  10.670
95358SOL    HW187848  12.037   6.702  10.632
95358SOL    HW287849  12.015   6.555  10.601
95359SOL     OW87850   2.115  14.281   4.574
95359SOL    HW187851   2.098  14.337   4.649
95359SOL    HW287852   2.029  14.272   4.532
95360SOL     OW87853   2.828   2.650   3.585
95360SOL    HW187854   2.867   2.576   3.538
95360SOL    HW287855   2.814   2.617   3.674
95361SOL     OW87856   8.082   0.094   9.373
95361SOL    HW187857   8.135   0.173   9.367
95361SOL    HW287858   8.062   0.085   9.466
95362SOL     OW87859  13.294   4.988   9.755
95362SOL    HW187860  13.324   5.052   9.691
95362SOL    HW287861  13.221   4.943   9.713
95363SOL     OW87862  11.740   4.501   0.028
95363SOL    HW187863  11.696   4.476  14.825
95363SOL    HW287864  11.683   4.471   0.098
95364SOL     OW87865  11.243   0.715   5.467
95364SOL    HW187866  11.202   0.629   5.459
95364SOL    HW287867  11.188   0.773   5.414
95365SOL     OW87868  10.490  11.912  11.836
95365SOL    HW187869  10.559  11.947  11.892
95365SOL    HW287870  10.528  11.834  11.797
95366SOL     OW87871  14.607   8.274   3.852
95366SOL    HW187872  14.579   8.335   3.783
95366SOL    HW287873  14.633   8.195   3.805
95367SOL     OW87874   2.269   4.489   7.098
95367SOL    HW187875   2.257   4.483   7.003
95367SOL    HW287876   2.291   4.400   7.126
95368SOL     OW87877  13.883  12.883  12.251
95368SOL    HW187878  13.845  12.953  12.198
95368SOL    HW287879  13.975  12.909  12.262
95369SOL     OW87880   7.073   5.450   2.318
95369SOL    HW187881   7.147   5.509   2.330
95369SOL    HW287882   7.013   5.499   2.260
95370SOL     OW87883   5.674   8.302  14.260
95370SOL    HW187884   5.677   8.389  14.218
95370SOL    HW287885   5.589   8.300  14.304
95371SOL     OW87886  10.434   3.547   7.963
95371SOL    HW187887  10.404   3.514   8.047
95371SOL    HW287888  10.452   3.639   7.978
95372SOL     OW87889   6.464  10.149   7.101
95372SOL    HW187890   6.514  10.073   7.131
95372SOL    HW287891   6.389  10.153   7.161
95373SOL     OW87892   0.637   8.046  14.227
95373SOL    HW187893   0.560   8.017  14.277
95373SOL    HW287894   0.630   8.141  14.225
95374SOL     OW87895  13.330  10.407   3.179
95374SOL    HW187896  13.332  10.333   3.118
95374SOL    HW287897  13.375  10.374   3.257
95375SOL     OW87898  14.241  11.867  11.998
95375SOL    HW187899  14.215  11.917  12.075
95375SOL    HW287900  14.165  11.871  11.940
95376SOL     OW87901  10.328   9.867   1.108
95376SOL    HW187902  10.236   9.884   1.130
95376SOL    HW287903  10.376   9.890   1.187
95377SOL     OW87904   3.329  14.517  14.636
95377SOL    HW187905   3.282  14.437  14.615
95377SOL    HW287906   3.414  14.488  14.669
95378SOL     OW87907  12.659   5.833  14.434
95378SOL    HW187908  12.583   5.774  14.438
95378SOL    HW287909  12.647   5.883  14.354
95379SOL     OW87910  10.008  11.209  10.748
95379SOL    HW187911  10.101  11.233  10.744
95379SOL    HW287912  10.007  11.117  10.722
95380SOL     OW87913   2.859  14.645   0.835
95380SOL    HW187914   2.935  14.703   0.826
95380SOL    HW287915   2.800  14.692   0.894
95381SOL     OW87916   9.479   6.496   9.029
95381SOL    HW187917   9.409   6.561   9.037
95381SOL    HW287918   9.433   6.412   9.021
95382SOL     OW87919   6.561   6.655   2.677
95382SOL    HW187920   6.589   6.596   2.607
95382SOL    HW287921   6.628   6.724   2.678
95383SOL     OW87922  10.758  12.822  12.683
95383SOL    HW187923  10.701  12.894  12.658
95383SOL    HW287924  10.806  12.801  12.603
95384SOL     OW87925   4.732   1.815   8.073
95384SOL    HW187926   4.763   1.903   8.054
95384SOL    HW287927   4.786   1.757   8.018
95385SOL     OW87928   2.909   7.127  13.505
95385SOL    HW187929   2.903   7.032  13.513
95385SOL    HW287930   2.821   7.158  13.527
95386SOL     OW87931  11.691  12.942   4.968
95386SOL    HW187932  11.612  12.890   4.981
95386SOL    HW287933  11.762  12.885   4.997
95387SOL     OW87934   1.660   7.961   5.651
95387SOL    HW187935   1.613   7.967   5.569
95387SOL    HW287936   1.614   8.020   5.710
95388SOL     OW87937   6.676  13.524   6.884
95388SOL    HW187938   6.760  13.530   6.929
95388SOL    HW287939   6.678  13.438   6.842
95389SOL     OW87940   5.973   8.944  14.453
95389SOL    HW187941   5.975   8.945  14.548
95389SOL    HW287942   5.880   8.951  14.430
95390SOL     OW87943   0.459   8.871  12.023
95390SOL    HW187944   0.501   8.813  12.086
95390SOL    HW287945   0.514   8.949  12.020
95391SOL     OW87946   0.484   7.797   1.686
95391SOL    HW187947   0.460   7.853   1.760
95391SOL    HW287948   0.490   7.857   1.612
95392SOL     OW87949   5.377   3.998   7.870
95392SOL    HW187950   5.427   4.007   7.790
95392SOL    HW287951   5.316   3.926   7.852
95393SOL     OW87952   4.640  12.423   4.028
95393SOL    HW187953   4.720  12.401   4.075
95393SOL    HW287954   4.578  12.355   4.054
95394SOL     OW87955   9.929  10.050   0.909
95394SOL    HW187956   9.891  10.002   0.982
95394SOL    HW287957   9.942   9.984   0.841
95395SOL     OW87958   6.301  10.154   7.986
95395SOL    HW187959   6.231  10.198   7.939
95395SOL    HW287960   6.376  10.156   7.926
95396SOL     OW87961   5.963   2.870   8.023
95396SOL    HW187962   5.869   2.884   8.024
95396SOL    HW287963   6.001   2.958   8.024
95397SOL     OW87964   9.644  10.748   6.222
95397SOL    HW187965   9.607  10.686   6.158
95397SOL    HW287966   9.615  10.834   6.191
95398SOL     OW87967   0.477   5.594   5.731
95398SOL    HW187968   0.517   5.606   5.817
95398SOL    HW287969   0.465   5.682   5.696
95399SOL     OW87970   2.522  12.453  11.895
95399SOL    HW187971   2.492  12.420  11.980
95399SOL    HW287972   2.555  12.541  11.914
95400SOL     OW87973  14.104   4.470   3.091
95400SOL    HW187974  14.077   4.542   3.148
95400SOL    HW287975  14.175   4.426   3.139
95401SOL     OW87976  12.526  14.073   0.910
95401SOL    HW187977  12.515  14.017   0.987
95401SOL    HW287978  12.463  14.145   0.923
95402SOL     OW87979  10.746  13.347   5.892
95402SOL    HW187980  10.778  13.395   5.968
95402SOL    HW287981  10.806  13.274   5.882
95403SOL     OW87982   6.249  12.157  11.054
95403SOL    HW187983   6.218  12.079  11.008
95403SOL    HW287984   6.217  12.147  11.144
95404SOL     OW87985   7.046   9.834   7.163
95404SOL    HW187986   7.069   9.743   7.143
95404SOL    HW287987   7.128   9.873   7.193
95405SOL     OW87988  11.749  11.090   0.842
95405SOL    HW187989  11.658  11.116   0.860
95405SOL    HW287990  11.789  11.079   0.928
95406SOL     OW87991   3.654   8.132  10.344
95406SOL    HW187992   3.636   8.083  10.264
95406SOL    HW287993   3.661   8.223  10.316
95407SOL     OW87994   1.978   0.862  10.554
95407SOL    HW187995   2.030   0.826  10.626
95407SOL    HW287996   2.003   0.954  10.550
95408SOL     OW87997   4.372   5.985   3.104
95408SOL    HW187998   4.449   5.931   3.089
95408SOL    HW287999   4.314   5.964   3.031
95409SOL     OW88000   5.959  12.305   4.342
95409SOL    HW188001   5.877  12.318   4.294
95409SOL    HW288002   5.999  12.228   4.301
95410SOL     OW88003  14.647  10.469   1.835
95410SOL    HW188004  14.560  10.491   1.867
95410SOL    HW288005  14.664  10.381   1.869
95411SOL     OW88006   3.810   6.192   6.651
95411SOL    HW188007   3.719   6.191   6.679
95411SOL    HW288008   3.857   6.143   6.718
95412SOL     OW88009  12.663   6.046   3.792
95412SOL    HW188010  12.580   6.092   3.804
95412SOL    HW288011  12.681   6.051   3.698
95413SOL     OW88012   1.765   7.657   3.388
95413SOL    HW188013   1.787   7.632   3.299
95413SOL    HW288014   1.804   7.744   3.400
95414SOL     OW88015   1.219   1.030   5.269
95414SOL    HW188016   1.296   1.060   5.317
95414SOL    HW288017   1.164   1.107   5.261
95415SOL     OW88018  14.621   5.848   0.443
95415SOL    HW188019  14.581   5.930   0.473
95415SOL    HW288020  14.699   5.876   0.396
95416SOL     OW88021   4.598  14.170   5.339
95416SOL    HW188022   4.620  14.099   5.279
95416SOL    HW288023   4.678  14.185   5.389
95417SOL     OW88024   7.059   0.986   2.355
95417SOL    HW188025   7.023   0.897   2.349
95417SOL    HW288026   6.983   1.042   2.370
95418SOL     OW88027  14.661  11.428  11.172
95418SOL    HW188028  14.585  11.479  11.144
95418SOL    HW288029  14.733  11.492  11.177
95419SOL     OW88030   1.162  11.262   9.208
95419SOL    HW188031   1.073  11.237   9.233
95419SOL    HW288032   1.177  11.345   9.252
95420SOL     OW88033   1.930   2.750   5.741
95420SOL    HW188034   1.875   2.676   5.715
95420SOL    HW288035   1.892   2.825   5.696
95421SOL     OW88036   5.140   5.245   3.494
95421SOL    HW188037   5.124   5.166   3.443
95421SOL    HW288038   5.191   5.301   3.435
95422SOL     OW88039   2.842   1.186   6.393
95422SOL    HW188040   2.888   1.269   6.378
95422SOL    HW288041   2.903   1.119   6.361
95423SOL     OW88042   7.203   1.449  11.518
95423SOL    HW188043   7.226   1.540  11.540
95423SOL    HW288044   7.115   1.438  11.554
95424SOL     OW88045   3.916   4.701  11.978
95424SOL    HW188046   3.938   4.704  11.885
95424SOL    HW288047   3.928   4.791  12.008
95425SOL     OW88048   0.969   0.504  11.442
95425SOL    HW188049   1.054   0.461  11.433
95425SOL    HW288050   0.933   0.471  11.524
95426SOL     OW88051   6.768   2.219   2.767
95426SOL    HW188052   6.759   2.137   2.718
95426SOL    HW288053   6.693   2.271   2.741
95427SOL     OW88054   7.581  14.743  10.463
95427SOL    HW188055   7.512  14.782  10.516
95427SOL    HW288056   7.587  14.653  10.494
95428SOL     OW88057   9.058   2.684   8.932
95428SOL    HW188058   9.111   2.687   9.012
95428SOL    HW288059   9.119   2.656   8.864
95429SOL     OW88060  11.330   7.998   7.488
95429SOL    HW188061  11.300   8.089   7.486
95429SOL    HW288062  11.270   7.955   7.548
95430SOL     OW88063   3.545  13.078   3.258
95430SOL    HW188064   3.452  13.087   3.240
95430SOL    HW288065   3.581  13.034   3.180
95431SOL     OW88066   0.884  14.480  13.058
95431SOL    HW188067   0.943  14.550  13.030
95431SOL    HW288068   0.905  14.406  13.000
95432SOL     OW88069   4.033   0.066   7.116
95432SOL    HW188070   4.113   0.097   7.158
95432SOL    HW288071   4.001  14.875   7.174
95433SOL     OW88072  14.151   9.103  12.447
95433SOL    HW188073  14.220   9.063  12.394
95433SOL    HW288074  14.072   9.054  12.423
95434SOL     OW88075   1.631   3.662   0.041
95434SOL    HW188076   1.725   3.680   0.044
95434SOL    HW288077   1.610   3.662  14.826
95435SOL     OW88078   3.685  14.871  13.676
95435SOL    HW188079   3.739   0.070  13.660
95435SOL    HW288080   3.670  14.870  13.771
95436SOL     OW88081   7.986  14.708  10.857
95436SOL    HW188082   7.940  14.625  10.847
95436SOL    HW288083   8.013  14.732  10.768
95437SOL     OW88084   4.444  11.424  13.357
95437SOL    HW188085   4.453  11.336  13.395
95437SOL    HW288086   4.421  11.480  13.431
95438SOL     OW88087   2.117   2.760   0.670
95438SOL    HW188088   2.186   2.774   0.606
95438SOL    HW288089   2.162   2.722   0.746
95439SOL     OW88090  11.410   9.487  11.033
95439SOL    HW188091  11.417   9.529  10.948
95439SOL    HW288092  11.327   9.520  11.069
95440SOL     OW88093   0.732  12.877   3.087
95440SOL    HW188094   0.789  12.943   3.127
95440SOL    HW288095   0.646  12.895   3.123
95441SOL     OW88096   1.379  12.770   0.919
95441SOL    HW188097   1.287  12.774   0.947
95441SOL    HW288098   1.422  12.838   0.971
95442SOL     OW88099   8.549  13.412   2.257
95442SOL    HW188100   8.455  13.419   2.243
95442SOL    HW288101   8.575  13.500   2.284
95443SOL     OW88102  11.815   5.378  13.062
95443SOL    HW188103  11.789   5.286  13.061
95443SOL    HW288104  11.760   5.418  13.129
95444SOL     OW88105   5.695   5.960   5.428
95444SOL    HW188106   5.650   6.043   5.411
95444SOL    HW288107   5.707   5.958   5.522
95445SOL     OW88108   4.016   2.342   7.464
95445SOL    HW188109   4.048   2.332   7.374
95445SOL    HW288110   4.075   2.288   7.516
95446SOL     OW88111  11.849   2.522   2.111
95446SOL    HW188112  11.850   2.431   2.080
95446SOL    HW288113  11.781   2.565   2.058
95447SOL     OW88114  14.447   9.393   5.072
95447SOL    HW188115  14.363   9.435   5.092
95447SOL    HW288116  14.513   9.458   5.095
95448SOL     OW88117  12.014   1.083   0.846
95448SOL    HW188118  12.007   1.020   0.774
95448SOL    HW288119  12.001   1.169   0.805
95449SOL     OW88120   1.497   9.238   1.301
95449SOL    HW188121   1.496   9.142   1.301
95449SOL    HW288122   1.436   9.262   1.231
95450SOL     OW88123  12.089   6.130   3.827
95450SOL    HW188124  12.014   6.178   3.861
95450SOL    HW288125  12.106   6.170   3.742
95451SOL     OW88126  11.271   8.430   9.300
95451SOL    HW188127  11.362   8.452   9.279
95451SOL    HW288128  11.248   8.361   9.238
95452SOL     OW88129   5.498  11.127  11.609
95452SOL    HW188130   5.544  11.179  11.675
95452SOL    HW288131   5.567  11.074  11.568
95453SOL     OW88132   3.176  14.817   7.315
95453SOL    HW188133   3.191   0.033   7.298
95453SOL    HW288134   3.248  14.773   7.271
95454SOL     OW88135   2.525   4.385   1.945
95454SOL    HW188136   2.618   4.389   1.927
95454SOL    HW288137   2.516   4.317   2.013
95455SOL     OW88138  13.073  13.578   9.020
95455SOL    HW188139  13.032  13.662   9.040
95455SOL    HW288140  13.002  13.522   8.991
95456SOL     OW88141   9.253   2.799   3.118
95456SOL    HW188142   9.185   2.737   3.092
95456SOL    HW288143   9.311   2.804   3.042
95457SOL     OW88144  10.257  10.598   0.920
95457SOL    HW188145  10.290  10.520   0.965
95457SOL    HW288146  10.231  10.566   0.833
95458SOL     OW88147   2.821  11.056   4.124
95458SOL    HW188148   2.814  10.961   4.120
95458SOL    HW288149   2.914  11.073   4.136
95459SOL     OW88150  14.140  14.612   7.975
95459SOL    HW188151  14.105  14.674   7.911
95459SOL    HW288152  14.201  14.558   7.924
95460SOL     OW88153  10.188   8.547   8.903
95460SOL    HW188154  10.187   8.563   8.809
95460SOL    HW288155  10.191   8.451   8.911
95461SOL     OW88156  11.987   9.179  11.516
95461SOL    HW188157  11.910   9.171  11.459
95461SOL    HW288158  12.052   9.223  11.462
95462SOL     OW88159   7.960   3.697  10.538
95462SOL    HW188160   7.950   3.790  10.518
95462SOL    HW288161   8.048   3.689  10.573
95463SOL     OW88162   6.234  10.911   8.841
95463SOL    HW188163   6.277  10.953   8.915
95463SOL    HW288164   6.153  10.959   8.829
95464SOL     OW88165   3.964   5.101   4.501
95464SOL    HW188166   3.896   5.167   4.516
95464SOL    HW288167   4.002   5.086   4.587
95465SOL     OW88168   6.579   4.694  13.504
95465SOL    HW188169   6.660   4.651  13.479
95465SOL    HW288170   6.537   4.634  13.565
95466SOL     OW88171   4.122  11.352  12.064
95466SOL    HW188172   4.159  11.300  12.136
95466SOL    HW288173   4.047  11.302  12.034
95467SOL     OW88174   7.761   6.364  10.228
95467SOL    HW188175   7.814   6.328  10.158
95467SOL    HW288176   7.796   6.324  10.308
95468SOL     OW88177  11.801  13.599  10.578
95468SOL    HW188178  11.840  13.622  10.662
95468SOL    HW288179  11.770  13.510  10.590
95469SOL     OW88180   8.687   1.368   3.988
95469SOL    HW188181   8.776   1.364   3.953
95469SOL    HW288182   8.667   1.278   4.013
95470SOL     OW88183  11.977  14.249   6.772
95470SOL    HW188184  12.028  14.322   6.807
95470SOL    HW288185  11.891  14.287   6.753
95471SOL     OW88186   4.873   6.395   4.520
95471SOL    HW188187   4.946   6.454   4.539
95471SOL    HW288188   4.908   6.307   4.535
95472SOL     OW88189   1.454  13.920   5.811
95472SOL    HW188190   1.481  13.867   5.736
95472SOL    HW288191   1.522  13.905   5.877
95473SOL     OW88192  13.048   3.876   9.053
95473SOL    HW188193  12.995   3.845   8.980
95473SOL    HW288194  13.036   3.971   9.052
95474SOL     OW88195   6.093   3.185  10.497
95474SOL    HW188196   6.169   3.239  10.521
95474SOL    HW288197   6.023   3.248  10.483
95475SOL     OW88198   7.158   4.475   0.300
95475SOL    HW188199   7.134   4.382   0.295
95475SOL    HW288200   7.186   4.488   0.390
95476SOL     OW88201  13.420  10.048   6.077
95476SOL    HW188202  13.427  10.059   5.983
95476SOL    HW288203  13.337  10.089   6.101
95477SOL     OW88204  13.371   0.900   3.049
95477SOL    HW188205  13.461   0.925   3.066
95477SOL    HW288206  13.376   0.828   2.986
95478SOL     OW88207   8.732   5.625  11.275
95478SOL    HW188208   8.722   5.691  11.206
95478SOL    HW288209   8.644   5.588  11.286
95479SOL     OW88210  14.835  11.385   0.254
95479SOL    HW188211  14.746  11.364   0.281
95479SOL    HW288212   0.012  11.322   0.301
95480SOL     OW88213   7.419   0.276   6.843
95480SOL    HW188214   7.360   0.219   6.794
95480SOL    HW288215   7.442   0.347   6.782
95481SOL     OW88216  14.609  14.418  11.421
95481SOL    HW188217  14.703  14.407  11.427
95481SOL    HW288218  14.597  14.510  11.397
95482SOL     OW88219   5.635   0.383   6.819
95482SOL    HW188220   5.673   0.374   6.732
95482SOL    HW288221   5.542   0.403   6.803
95483SOL     OW88222  11.373   1.142   0.683
95483SOL    HW188223  11.352   1.146   0.777
95483SOL    HW288224  11.469   1.148   0.680
95484SOL     OW88225   3.543   5.368  13.056
95484SOL    HW188226   3.486   5.403  12.987
95484SOL    HW288227   3.618   5.426  13.057
95485SOL     OW88228   5.189   5.666  10.174
95485SOL    HW188229   5.151   5.601  10.233
95485SOL    HW288230   5.283   5.651  10.178
95486SOL     OW88231   9.069   4.877   9.672
95486SOL    HW188232   9.110   4.863   9.586
95486SOL    HW288233   9.014   4.955   9.659
95487SOL     OW88234   7.309  12.313   1.986
95487SOL    HW188235   7.249  12.303   1.912
95487SOL    HW288236   7.284  12.397   2.026
95488SOL     OW88237   1.867   0.953   1.915
95488SOL    HW188238   1.850   1.041   1.881
95488SOL    HW288239   1.869   0.964   2.010
95489SOL     OW88240   6.667   9.400  12.028
95489SOL    HW188241   6.727   9.326  12.030
95489SOL    HW288242   6.603   9.377  11.961
95490SOL     OW88243   9.722   2.588  10.886
95490SOL    HW188244   9.700   2.680  10.875
95490SOL    HW288245   9.660   2.542  10.829
95491SOL     OW88246  13.709  13.680  12.613
95491SOL    HW188247  13.754  13.761  12.638
95491SOL    HW288248  13.666  13.702  12.530
95492SOL     OW88249   6.114  12.288   0.589
95492SOL    HW188250   6.071  12.327   0.513
95492SOL    HW288251   6.181  12.230   0.552
95493SOL     OW88252   7.583   8.994   2.679
95493SOL    HW188253   7.503   9.038   2.649
95493SOL    HW288254   7.552   8.931   2.743
95494SOL     OW88255  12.507   5.067  11.975
95494SOL    HW188256  12.422   5.069  12.019
95494SOL    HW288257  12.568   5.102  12.039
95495SOL     OW88258   0.293  10.041   5.665
95495SOL    HW188259   0.264  10.127   5.635
95495SOL    HW288260   0.246   9.979   5.609
95496SOL     OW88261   9.874   8.707  13.929
95496SOL    HW188262   9.942   8.774  13.930
95496SOL    HW288263   9.797   8.751  13.892
95497SOL     OW88264   7.225  13.373   4.626
95497SOL    HW188265   7.187  13.448   4.673
95497SOL    HW288266   7.306  13.408   4.589
95498SOL     OW88267  10.318  13.103   6.483
95498SOL    HW188268  10.386  13.170   6.489
95498SOL    HW288269  10.366  13.020   6.479
95499SOL     OW88270  11.162   1.776   8.719
95499SOL    HW188271  11.229   1.800   8.783
95499SOL    HW288272  11.130   1.691   8.748
95500SOL     OW88273  10.276  13.195  13.665
95500SOL    HW188274  10.199  13.167  13.712
95500SOL    HW288275  10.321  13.114  13.641
95501SOL     OW88276  10.095   4.046  12.062
95501SOL    HW188277  10.025   4.040  11.997
95501SOL    HW288278  10.150   3.970  12.044
95502SOL     OW88279   7.185  13.850  10.935
95502SOL    HW188280   7.247  13.896  10.992
95502SOL    HW288281   7.109  13.833  10.990
95503SOL     OW88282   5.566  11.806   9.847
95503SOL    HW188283   5.512  11.744   9.896
95503SOL    HW288284   5.524  11.813   9.762
95504SOL     OW88285   6.717   3.768   8.094
95504SOL    HW188286   6.749   3.813   8.016
95504SOL    HW288287   6.626   3.797   8.103
95505SOL     OW88288   8.052   4.073  10.736
95505SOL    HW188289   8.019   4.025  10.660
95505SOL    HW288290   8.142   4.097  10.712
95506SOL     OW88291  14.732  14.163   9.221
95506SOL    HW188292  14.824  14.178   9.241
95506SOL    HW288293  14.733  14.119   9.136
95507SOL     OW88294   5.960   7.854   0.017
95507SOL    HW188295   5.909   7.775   0.037
95507SOL    HW288296   5.899   7.910  14.846
95508SOL     OW88297  14.198   4.254   4.170
95508SOL    HW188298  14.237   4.250   4.258
95508SOL    HW288299  14.184   4.162   4.146
95509SOL     OW88300   6.189  14.121  12.103
95509SOL    HW188301   6.102  14.121  12.142
95509SOL    HW288302   6.174  14.147  12.012
95510SOL     OW88303  13.428   6.762   3.990
95510SOL    HW188304  13.400   6.796   4.075
95510SOL    HW288305  13.393   6.674   3.986
95511SOL     OW88306   3.781  11.507   5.376
95511SOL    HW188307   3.868  11.468   5.365
95511SOL    HW288308   3.729  11.438   5.416
95512SOL     OW88309   0.212   2.870  13.746
95512SOL    HW188310   0.237   2.811  13.818
95512SOL    HW288311   0.215   2.957  13.784
95513SOL     OW88312   8.470   0.000   5.340
95513SOL    HW188313   8.558   0.031   5.319
95513SOL    HW288314   8.462   0.013   5.435
95514SOL     OW88315   8.691  13.068  11.619
95514SOL    HW188316   8.645  12.984  11.626
95514SOL    HW288317   8.763  13.050  11.559
95515SOL     OW88318   9.205  10.735  11.544
95515SOL    HW188319   9.128  10.787  11.518
95515SOL    HW288320   9.260  10.733  11.467
95516SOL     OW88321  13.571   0.504  12.343
95516SOL    HW188322  13.588   0.586  12.298
95516SOL    HW288323  13.605   0.517  12.431
95517SOL     OW88324  14.217  10.727  12.659
95517SOL    HW188325  14.151  10.684  12.713
95517SOL    HW288326  14.228  10.669  12.583
95518SOL     OW88327  12.524   9.181   3.436
95518SOL    HW188328  12.576   9.172   3.515
95518SOL    HW288329  12.550   9.265   3.399
95519SOL     OW88330  13.497   1.465   2.985
95519SOL    HW188331  13.437   1.447   3.058
95519SOL    HW288332  13.441   1.468   2.908
95520SOL     OW88333  10.773   9.937  14.590
95520SOL    HW188334  10.862   9.947  14.556
95520SOL    HW288335  10.717   9.973  14.521
95521SOL     OW88336  10.053   0.194   7.677
95521SOL    HW188337  10.107   0.115   7.670
95521SOL    HW288338  10.117   0.265   7.692
95522SOL     OW88339   4.807   6.557  13.925
95522SOL    HW188340   4.732   6.500  13.943
95522SOL    HW288341   4.798   6.579  13.832
95523SOL     OW88342  10.380   7.395   4.132
95523SOL    HW188343  10.409   7.485   4.142
95523SOL    HW288344  10.358   7.387   4.039
95524SOL     OW88345  11.361   2.562  11.906
95524SOL    HW188346  11.307   2.629  11.948
95524SOL    HW288347  11.445   2.567  11.951
95525SOL     OW88348  12.362   4.529   5.141
95525SOL    HW188349  12.329   4.571   5.062
95525SOL    HW288350  12.308   4.565   5.212
95526SOL     OW88351  14.291   3.612   5.609
95526SOL    HW188352  14.228   3.550   5.573
95526SOL    HW288353  14.318   3.574   5.693
95527SOL     OW88354  10.556  12.497   5.904
95527SOL    HW188355  10.575  12.487   5.998
95527SOL    HW288356  10.464  12.476   5.896
95528SOL     OW88357  10.012   5.900   1.670
95528SOL    HW188358   9.959   5.979   1.677
95528SOL    HW288359   9.949   5.828   1.665
95529SOL     OW88360   0.575   2.394  12.934
95529SOL    HW188361   0.518   2.318  12.948
95529SOL    HW288362   0.652   2.359  12.891
95530SOL     OW88363   0.853   8.297   7.874
95530SOL    HW188364   0.938   8.316   7.913
95530SOL    HW288365   0.873   8.245   7.796
95531SOL     OW88366  10.882   8.327   1.474
95531SOL    HW188367  10.970   8.344   1.441
95531SOL    HW288368  10.829   8.398   1.439
95532SOL     OW88369   8.512   2.455   3.928
95532SOL    HW188370   8.482   2.368   3.954
95532SOL    HW288371   8.591   2.440   3.877
95533SOL     OW88372   0.335   8.695  11.448
95533SOL    HW188373   0.312   8.705  11.355
95533SOL    HW288374   0.429   8.713  11.451
95534SOL     OW88375  10.631  13.095  13.168
95534SOL    HW188376  10.550  13.106  13.219
95534SOL    HW288377  10.604  13.113  13.078
95535SOL     OW88378  11.798   9.950  13.039
95535SOL    HW188379  11.845   9.967  12.958
95535SOL    HW288380  11.866   9.929  13.103
95536SOL     OW88381  13.986   5.497  14.093
95536SOL    HW188382  13.933   5.507  14.172
95536SOL    HW288383  13.923   5.471  14.026
95537SOL     OW88384   8.547   4.829  11.307
95537SOL    HW188385   8.544   4.741  11.270
95537SOL    HW288386   8.456   4.858  11.307
95538SOL     OW88387  13.170  12.952   0.018
95538SOL    HW188388  13.229  12.882   0.047
95538SOL    HW288389  13.133  12.986   0.099
95539SOL     OW88390  14.772   5.964   9.010
95539SOL    HW188391  14.694   5.951   8.955
95539SOL    HW288392  14.763   6.053   9.044
95540SOL     OW88393   0.434   4.387   4.444
95540SOL    HW188394   0.524   4.407   4.468
95540SOL    HW288395   0.385   4.466   4.467
95541SOL     OW88396   7.076   9.796  14.312
95541SOL    HW188397   7.062   9.758  14.399
95541SOL    HW288398   7.155   9.752  14.279
95542SOL     OW88399  12.027   7.351  14.188
95542SOL    HW188400  12.012   7.354  14.282
95542SOL    HW288401  11.950   7.306  14.153
95543SOL     OW88402  10.680   1.037  12.961
95543SOL    HW188403  10.709   0.951  12.990
95543SOL    HW288404  10.741   1.098  13.002
95544SOL     OW88405   7.319   3.687   0.611
95544SOL    HW188406   7.251   3.635   0.568
95544SOL    HW288407   7.350   3.632   0.682
95545SOL     OW88408   8.094   1.032   7.181
95545SOL    HW188409   8.136   0.958   7.225
95545SOL    HW288410   8.007   1.000   7.157
95546SOL     OW88411   4.251  12.360  13.333
95546SOL    HW188412   4.225  12.341  13.423
95546SOL    HW288413   4.173  12.340  13.281
95547SOL     OW88414  14.438  12.788  12.380
95547SOL    HW188415  14.377  12.724  12.416
95547SOL    HW288416  14.478  12.744  12.305
95548SOL     OW88417   4.846   2.057   5.435
95548SOL    HW188418   4.877   2.136   5.480
95548SOL    HW288419   4.892   2.057   5.351
95549SOL     OW88420  11.502  14.634   7.243
95549SOL    HW188421  11.493  14.607   7.152
95549SOL    HW288422  11.575  14.582   7.277
95550SOL     OW88423   6.856  14.572   3.569
95550SOL    HW188424   6.918  14.621   3.622
95550SOL    HW288425   6.773  14.617   3.580
95551SOL     OW88426   0.091   5.846   7.809
95551SOL    HW188427   0.180   5.830   7.777
95551SOL    HW288428   0.102   5.902   7.886
95552SOL     OW88429   0.891  12.333  10.153
95552SOL    HW188430   0.894  12.378  10.238
95552SOL    HW288431   0.818  12.271  10.161
95553SOL     OW88432  14.378   4.021   0.248
95553SOL    HW188433  14.314   3.959   0.283
95553SOL    HW288434  14.417   3.975   0.174
95554SOL     OW88435  12.881  10.455  13.976
95554SOL    HW188436  12.819  10.523  14.000
95554SOL    HW288437  12.838  10.373  14.000
95555SOL     OW88438  14.023   3.080  10.574
95555SOL    HW188439  14.021   3.168  10.610
95555SOL    HW288440  14.114   3.051  10.584
95556SOL     OW88441   3.405   4.164   9.077
95556SOL    HW188442   3.400   4.099   9.007
95556SOL    HW288443   3.488   4.209   9.062
95557SOL     OW88444   9.462   2.877  11.256
95557SOL    HW188445   9.407   2.850  11.330
95557SOL    HW288446   9.467   2.800  11.200
95558SOL     OW88447  10.416  10.137   9.669
95558SOL    HW188448  10.486  10.124   9.605
95558SOL    HW288449  10.429  10.067   9.733
95559SOL     OW88450   1.233   6.819  13.132
95559SOL    HW188451   1.246   6.878  13.057
95559SOL    HW288452   1.175   6.751  13.099
95560SOL     OW88453   7.592   7.726   9.639
95560SOL    HW188454   7.650   7.789   9.684
95560SOL    HW288455   7.638   7.706   9.557
95561SOL     OW88456  13.038   1.949   6.456
95561SOL    HW188457  12.985   2.028   6.444
95561SOL    HW288458  12.989   1.897   6.520
95562SOL     OW88459  11.325   5.228   3.473
95562SOL    HW188460  11.406   5.261   3.433
95562SOL    HW288461  11.352   5.187   3.555
95563SOL     OW88462   8.991  13.678  10.365
95563SOL    HW188463   9.018  13.587  10.348
95563SOL    HW288464   8.924  13.670  10.433
95564SOL     OW88465   5.203   2.340  14.754
95564SOL    HW188466   5.249   2.387  14.684
95564SOL    HW288467   5.228   2.386  14.834
95565SOL     OW88468  12.907   2.858   0.146
95565SOL    HW188469  12.916   2.864   0.241
95565SOL    HW288470  12.918   2.765   0.126
95566SOL     OW88471   3.629  13.671   1.956
95566SOL    HW188472   3.564  13.661   2.025
95566SOL    HW288473   3.613  13.597   1.897
95567SOL     OW88474  11.470   9.705   0.459
95567SOL    HW188475  11.389   9.753   0.472
95567SOL    HW288476  11.480   9.700   0.364
95568SOL     OW88477   2.088   7.787   8.769
95568SOL    HW188478   2.036   7.846   8.824
95568SOL    HW288479   2.177   7.792   8.806
95569SOL     OW88480   2.010   2.069   7.439
95569SOL    HW188481   1.915   2.064   7.437
95569SOL    HW288482   2.029   2.125   7.515
95570SOL     OW88483   0.241   0.712  14.090
95570SOL    HW188484   0.331   0.745  14.100
95570SOL    HW288485   0.252   0.621  14.060
95571SOL     OW88486   2.130   4.789  11.596
95571SOL    HW188487   2.207   4.742  11.629
95571SOL    HW288488   2.067   4.721  11.573
95572SOL     OW88489   4.660  14.201   2.985
95572SOL    HW188490   4.754  14.220   2.982
95572SOL    HW288491   4.618  14.284   2.965
95573SOL     OW88492   0.513  13.929   2.809
95573SOL    HW188493   0.467  13.914   2.727
95573SOL    HW288494   0.606  13.929   2.785
95574SOL     OW88495   7.512   6.359  14.584
95574SOL    HW188496   7.524   6.362  14.679
95574SOL    HW288497   7.506   6.451  14.558
95575SOL     OW88498  11.927  10.601   9.273
95575SOL    HW188499  11.956  10.663   9.340
95575SOL    HW288500  12.007  10.574   9.229
95576SOL     OW88501   5.880  13.337   1.207
95576SOL    HW188502   5.859  13.424   1.174
95576SOL    HW288503   5.932  13.354   1.286
95577SOL     OW88504   1.838  11.317  11.953
95577SOL    HW188505   1.866  11.248  11.893
95577SOL    HW288506   1.910  11.324  12.016
95578SOL     OW88507   0.737   4.714   5.689
95578SOL    HW188508   0.757   4.796   5.644
95578SOL    HW288509   0.678   4.667   5.629
95579SOL     OW88510  12.505   6.185   4.632
95579SOL    HW188511  12.457   6.105   4.612
95579SOL    HW288512  12.575   6.158   4.692
95580SOL     OW88513   8.924   9.709   6.315
95580SOL    HW188514   8.904   9.802   6.303
95580SOL    HW288515   8.854   9.676   6.372
95581SOL     OW88516  10.385  10.855   8.245
95581SOL    HW188517  10.462  10.890   8.291
95581SOL    HW288518  10.343  10.797   8.309
95582SOL     OW88519   4.137  13.229   6.927
95582SOL    HW188520   4.144  13.306   6.983
95582SOL    HW288521   4.109  13.263   6.842
95583SOL     OW88522   7.581  10.228   9.200
95583SOL    HW188523   7.608  10.232   9.108
95583SOL    HW288524   7.486  10.220   9.198
95584SOL     OW88525   1.942   3.687   6.507
95584SOL    HW188526   1.887   3.659   6.434
95584SOL    HW288527   1.992   3.609   6.531
95585SOL     OW88528   3.896   0.465   9.212
95585SOL    HW188529   3.868   0.521   9.139
95585SOL    HW288530   3.826   0.400   9.220
95586SOL     OW88531  11.075   6.668   2.113
95586SOL    HW188532  11.039   6.595   2.063
95586SOL    HW288533  11.097   6.734   2.046
95587SOL     OW88534   7.237   2.309   5.677
95587SOL    HW188535   7.169   2.320   5.611
95587SOL    HW288536   7.208   2.234   5.729
95588SOL     OW88537   3.823  12.048   5.450
95588SOL    HW188538   3.735  12.084   5.443
95588SOL    HW288539   3.842  12.015   5.362
95589SOL     OW88540  11.244   5.001   9.111
95589SOL    HW188541  11.259   5.070   9.176
95589SOL    HW288542  11.240   4.920   9.162
95590SOL     OW88543   4.993   1.455   5.764
95590SOL    HW188544   4.931   1.399   5.811
95590SOL    HW288545   4.942   1.491   5.692
95591SOL     OW88546  11.551   7.453   9.904
95591SOL    HW188547  11.610   7.458   9.829
95591SOL    HW288548  11.493   7.529   9.894
95592SOL     OW88549   9.396  13.438   7.652
95592SOL    HW188550   9.322  13.445   7.593
95592SOL    HW288551   9.400  13.345   7.675
95593SOL     OW88552   0.182  14.181  12.038
95593SOL    HW188553   0.159  14.109  11.978
95593SOL    HW288554   0.181  14.259  11.983
95594SOL     OW88555  14.532   0.993  10.591
95594SOL    HW188556  14.437   0.998  10.600
95594SOL    HW288557  14.552   0.900  10.596
95595SOL     OW88558   6.918   4.033   6.884
95595SOL    HW188559   6.911   4.123   6.853
95595SOL    HW288560   6.986   3.994   6.828
95596SOL     OW88561  12.725   0.926   6.170
95596SOL    HW188562  12.730   0.947   6.263
95596SOL    HW288563  12.742   1.009   6.126
95597SOL     OW88564   7.812   4.549   2.313
95597SOL    HW188565   7.876   4.480   2.330
95597SOL    HW288566   7.764   4.517   2.236
95598SOL     OW88567   8.747   0.364   4.198
95598SOL    HW188568   8.794   0.330   4.122
95598SOL    HW288569   8.727   0.455   4.175
95599SOL     OW88570   7.670   4.581  10.092
95599SOL    HW188571   7.598   4.604  10.033
95599SOL    HW288572   7.692   4.664  10.135
95600SOL     OW88573  13.479   9.162   9.029
95600SOL    HW188574  13.410   9.129   9.086
95600SOL    HW288575  13.536   9.213   9.087
95601SOL     OW88576  10.199  11.335  14.847
95601SOL    HW188577  10.186  11.248  14.807
95601SOL    HW288578  10.198  11.318   0.063
95602SOL     OW88579   2.605   6.629   7.024
95602SOL    HW188580   2.637   6.675   6.947
95602SOL    HW288581   2.575   6.544   6.990
95603SOL     OW88582   0.976  14.835   0.666
95603SOL    HW188583   0.933  14.819   0.582
95603SOL    HW288584   1.050   0.014   0.644
95604SOL     OW88585   1.876   6.886   3.281
95604SOL    HW188586   1.965   6.852   3.276
95604SOL    HW288587   1.821   6.810   3.299
95605SOL     OW88588  11.074   4.316   8.523
95605SOL    HW188589  10.985   4.283   8.541
95605SOL    HW288590  11.121   4.240   8.489
95606SOL     OW88591  14.170   5.199   9.020
95606SOL    HW188592  14.101   5.140   8.990
95606SOL    HW288593  14.210   5.233   8.940
95607SOL     OW88594   1.833  10.675   5.690
95607SOL    HW188595   1.795  10.730   5.621
95607SOL    HW288596   1.877  10.604   5.643
95608SOL     OW88597   6.186   3.622  12.183
95608SOL    HW188598   6.254   3.610  12.116
95608SOL    HW288599   6.225   3.588  12.263
95609SOL     OW88600   0.307  14.538   3.355
95609SOL    HW188601   0.403  14.536   3.362
95609SOL    HW288602   0.281  14.619   3.398
95610SOL     OW88603   2.774   1.671   4.542
95610SOL    HW188604   2.836   1.731   4.502
95610SOL    HW288605   2.742   1.618   4.469
95611SOL     OW88606   4.394   6.495  12.709
95611SOL    HW188607   4.317   6.507  12.764
95611SOL    HW288608   4.422   6.405  12.726
95612SOL     OW88609  13.690  12.140  12.781
95612SOL    HW188610  13.604  12.180  12.768
95612SOL    HW288611  13.752  12.209  12.761
95613SOL     OW88612   6.918   6.368   6.535
95613SOL    HW188613   6.906   6.451   6.581
95613SOL    HW288614   6.844   6.362   6.475
95614SOL     OW88615   0.340   2.203  12.111
95614SOL    HW188616   0.372   2.157  12.033
95614SOL    HW288617   0.413   2.201  12.172
95615SOL     OW88618   5.565   2.889   4.127
95615SOL    HW188619   5.540   2.811   4.078
95615SOL    HW288620   5.661   2.885   4.131
95616SOL     OW88621   9.004   3.382   4.124
95616SOL    HW188622   9.096   3.358   4.116
95616SOL    HW288623   8.969   3.322   4.190
95617SOL     OW88624   0.280   3.447   3.841
95617SOL    HW188625   0.188   3.420   3.842
95617SOL    HW288626   0.303   3.448   3.748
95618SOL     OW88627   3.550  14.768   1.887
95618SOL    HW188628   3.516  14.680   1.902
95618SOL    HW288629   3.475  14.825   1.903
95619SOL     OW88630  11.919   6.757  14.473
95619SOL    HW188631  11.973   6.683  14.502
95619SOL    HW288632  11.949   6.830  14.527
95620SOL     OW88633   0.675   4.195   1.164
95620SOL    HW188634   0.720   4.279   1.156
95620SOL    HW288635   0.730   4.134   1.115
95621SOL     OW88636  13.955  11.147   1.835
95621SOL    HW188637  13.881  11.088   1.851
95621SOL    HW288638  14.018  11.094   1.787
95622SOL     OW88639   7.312   0.829  10.112
95622SOL    HW188640   7.240   0.766  10.105
95622SOL    HW288641   7.382   0.780  10.155
95623SOL     OW88642   2.675   9.487   5.570
95623SOL    HW188643   2.728   9.525   5.641
95623SOL    HW288644   2.585   9.512   5.591
95624SOL     OW88645  14.282  14.042  14.851
95624SOL    HW188646  14.209  14.101  14.835
95624SOL    HW288647  14.292  14.042   0.068
95625SOL     OW88648   8.084   6.672  10.798
95625SOL    HW188649   8.000   6.646  10.835
95625SOL    HW288650   8.090   6.625  10.715
95626SOL     OW88651   6.260  13.529   9.782
95626SOL    HW188652   6.198  13.478   9.834
95626SOL    HW288653   6.343  13.519   9.827
95627SOL     OW88654  13.806   3.416   0.931
95627SOL    HW188655  13.821   3.349   0.864
95627SOL    HW288656  13.797   3.367   1.013
95628SOL     OW88657   9.722   9.863  10.243
95628SOL    HW188658   9.784   9.844  10.314
95628SOL    HW288659   9.670   9.783  10.235
95629SOL     OW88660   5.194   1.971  13.761
95629SOL    HW188661   5.134   1.953  13.689
95629SOL    HW288662   5.250   2.042  13.729
95630SOL     OW88663  10.594  10.719   2.307
95630SOL    HW188664  10.652  10.787   2.343
95630SOL    HW288665  10.588  10.740   2.214
95631SOL     OW88666   4.969   7.955   5.487
95631SOL    HW188667   5.037   7.925   5.548
95631SOL    HW288668   4.963   8.049   5.503
95632SOL     OW88669  12.726  10.805  12.413
95632SOL    HW188670  12.677  10.723  12.403
95632SOL    HW288671  12.701  10.838  12.499
95633SOL     OW88672   4.148   4.289  11.418
95633SOL    HW188673   4.152   4.228  11.491
95633SOL    HW288674   4.194   4.244  11.347
95634SOL     OW88675  13.470   8.367   5.108
95634SOL    HW188676  13.539   8.396   5.168
95634SOL    HW288677  13.406   8.438   5.110
95635SOL     OW88678  10.455   7.587  13.968
95635SOL    HW188679  10.518   7.629  14.026
95635SOL    HW288680  10.458   7.495  13.992
95636SOL     OW88681  10.256  13.082   2.325
95636SOL    HW188682  10.185  13.145   2.314
95636SOL    HW288683  10.335  13.129   2.295
95637SOL     OW88684  12.237  14.397   4.189
95637SOL    HW188685  12.271  14.337   4.255
95637SOL    HW288686  12.197  14.340   4.123
95638SOL     OW88687   7.933   5.185  10.234
95638SOL    HW188688   7.917   5.252  10.168
95638SOL    HW288689   8.015   5.143  10.207
95639SOL     OW88690   3.575   2.216   9.286
95639SOL    HW188691   3.607   2.307   9.281
95639SOL    HW288692   3.483   2.222   9.261
95640SOL     OW88693  14.704   0.979  14.345
95640SOL    HW188694  14.702   1.055  14.287
95640SOL    HW288695  14.766   1.003  14.414
95641SOL     OW88696   1.608   5.847   1.889
95641SOL    HW188697   1.569   5.807   1.811
95641SOL    HW288698   1.584   5.789   1.961
95642SOL     OW88699   8.312   4.635   3.962
95642SOL    HW188700   8.243   4.700   3.966
95642SOL    HW288701   8.267   4.551   3.953
95643SOL     OW88702   2.023   3.900  13.857
95643SOL    HW188703   1.968   3.899  13.936
95643SOL    HW288704   1.965   3.870  13.787
95644SOL     OW88705   1.285  13.546   2.879
95644SOL    HW188706   1.348  13.475   2.891
95644SOL    HW288707   1.333  13.625   2.902
95645SOL     OW88708  13.427   2.622   3.871
95645SOL    HW188709  13.520   2.604   3.887
95645SOL    HW288710  13.389   2.536   3.853
95646SOL     OW88711   0.087   4.393   1.254
95646SOL    HW188712   0.106   4.350   1.171
95646SOL    HW288713   0.169   4.390   1.303
95647SOL     OW88714  14.507   8.896   1.542
95647SOL    HW188715  14.558   8.821   1.574
95647SOL    HW288716  14.444   8.914   1.612
95648SOL     OW88717   0.480  10.703   7.172
95648SOL    HW188718   0.478  10.793   7.140
95648SOL    HW288719   0.452  10.650   7.097
95649SOL     OW88720   2.266  10.010  12.103
95649SOL    HW188721   2.222  10.033  12.021
95649SOL    HW288722   2.358  10.002  12.080
95650SOL     OW88723  11.701   4.147   5.103
95650SOL    HW188724  11.765   4.164   5.034
95650SOL    HW288725  11.646   4.225   5.105
95651SOL     OW88726  13.925  12.250   5.363
95651SOL    HW188727  13.879  12.221   5.284
95651SOL    HW288728  13.921  12.175   5.422
95652SOL     OW88729   8.740   4.627   1.205
95652SOL    HW188730   8.707   4.629   1.294
95652SOL    HW288731   8.817   4.569   1.209
95653SOL     OW88732  10.183   9.389   0.585
95653SOL    HW188733  10.174   9.300   0.617
95653SOL    HW288734  10.180   9.444   0.663
95654SOL     OW88735   9.785  11.607   1.948
95654SOL    HW188736   9.727  11.571   1.881
95654SOL    HW288737   9.733  11.677   1.988
95655SOL     OW88738  14.521  13.966   3.234
95655SOL    HW188739  14.577  14.007   3.301
95655SOL    HW288740  14.449  14.028   3.222
95656SOL     OW88741   6.550  11.591   6.966
95656SOL    HW188742   6.518  11.510   7.004
95656SOL    HW288743   6.474  11.630   6.923
95657SOL     OW88744   4.011   4.797   9.785
95657SOL    HW188745   3.925   4.758   9.765
95657SOL    HW288746   4.005   4.822   9.877
95658SOL     OW88747   1.696   6.580  11.248
95658SOL    HW188748   1.775   6.632  11.260
95658SOL    HW288749   1.705   6.543  11.160
95659SOL     OW88750  10.093  10.982   2.507
95659SOL    HW188751  10.104  11.071   2.540
95659SOL    HW288752  10.104  10.990   2.413
95660SOL     OW88753   7.312   2.926   7.878
95660SOL    HW188754   7.249   2.997   7.893
95660SOL    HW288755   7.259   2.856   7.840
95661SOL     OW88756   6.695  10.632   6.131
95661SOL    HW188757   6.737  10.622   6.217
95661SOL    HW288758   6.722  10.555   6.082
95662SOL     OW88759  14.808   6.018   2.579
95662SOL    HW188760  14.738   5.982   2.633
95662SOL    HW288761  14.764   6.049   2.500
95663SOL     OW88762   7.720  13.222   5.547
95663SOL    HW188763   7.644  13.236   5.604
95663SOL    HW288764   7.686  13.229   5.458
95664SOL     OW88765   0.526   6.759   4.121
95664SOL    HW188766   0.545   6.679   4.073
95664SOL    HW288767   0.565   6.829   4.068
95665SOL     OW88768  11.275   7.700   9.401
95665SOL    HW188769  11.241   7.663   9.320
95665SOL    HW288770  11.333   7.771   9.373
95666SOL     OW88771  12.017  13.179   1.244
95666SOL    HW188772  12.012  13.216   1.156
95666SOL    HW288773  12.000  13.085   1.230
95667SOL     OW88774  12.543   4.364  14.393
95667SOL    HW188775  12.550   4.274  14.425
95667SOL    HW288776  12.631   4.384  14.361
95668SOL     OW88777   1.987   0.552   8.308
95668SOL    HW188778   2.022   0.617   8.370
95668SOL    HW288779   1.896   0.540   8.334
95669SOL     OW88780   3.574   1.382   7.156
95669SOL    HW188781   3.535   1.351   7.237
95669SOL    HW288782   3.662   1.411   7.181
95670SOL     OW88783   5.858   0.978  14.603
95670SOL    HW188784   5.931   1.039  14.591
95670SOL    HW288785   5.780   1.029  14.583
95671SOL     OW88786  13.014  10.673  12.466
95671SOL    HW188787  12.946  10.736  12.442
95671SOL    HW288788  12.965  10.593  12.489
95672SOL     OW88789  10.336   5.586  14.313
95672SOL    HW188790  10.248   5.568  14.280
95672SOL    HW288791  10.346   5.526  14.387
95673SOL     OW88792   8.349   8.699   6.233
95673SOL    HW188793   8.305   8.665   6.311
95673SOL    HW288794   8.381   8.621   6.188
95674SOL     OW88795   3.041   9.006   1.423
95674SOL    HW188796   3.000   8.991   1.338
95674SOL    HW288797   3.126   8.962   1.417
95675SOL     OW88798   1.551   4.133   3.082
95675SOL    HW188799   1.508   4.215   3.106
95675SOL    HW288800   1.638   4.159   3.054
95676SOL     OW88801   3.820   6.862   6.684
95676SOL    HW188802   3.856   6.941   6.726
95676SOL    HW288803   3.883   6.793   6.705
95677SOL     OW88804   3.570   8.932   0.397
95677SOL    HW188805   3.571   9.021   0.362
95677SOL    HW288806   3.575   8.876   0.320
95678SOL     OW88807   0.646   2.930   0.296
95678SOL    HW188808   0.724   2.888   0.260
95678SOL    HW288809   0.679   3.005   0.345
95679SOL     OW88810   1.058   9.959   9.503
95679SOL    HW188811   1.004  10.030   9.468
95679SOL    HW288812   1.144   9.999   9.514
95680SOL     OW88813   6.007  12.651  13.621
95680SOL    HW188814   6.067  12.631  13.693
95680SOL    HW288815   6.057  12.710  13.564
95681SOL     OW88816   0.974  10.876  12.470
95681SOL    HW188817   0.998  10.966  12.489
95681SOL    HW288818   1.044  10.843  12.414
95682SOL     OW88819   9.534   4.134   2.046
95682SOL    HW188820   9.609   4.092   2.002
95682SOL    HW288821   9.493   4.187   1.977
95683SOL     OW88822  13.806   2.371  10.122
95683SOL    HW188823  13.846   2.300  10.171
95683SOL    HW288824  13.853   2.372  10.039
95684SOL     OW88825   6.132   4.810   1.728
95684SOL    HW188826   6.079   4.781   1.802
95684SOL    HW288827   6.206   4.749   1.726
95685SOL     OW88828   6.424  13.429  12.565
95685SOL    HW188829   6.330  13.410  12.565
95685SOL    HW288830   6.464  13.348  12.596
95686SOL     OW88831  13.448  10.212   5.784
95686SOL    HW188832  13.462  10.306   5.793
95686SOL    HW288833  13.356  10.199   5.808
95687SOL     OW88834   0.056   5.989   1.882
95687SOL    HW188835   0.102   6.063   1.844
95687SOL    HW288836   0.039   6.015   1.973
95688SOL     OW88837  11.816   7.675   4.930
95688SOL    HW188838  11.893   7.715   4.971
95688SOL    HW288839  11.789   7.738   4.863
95689SOL     OW88840  10.696   0.674   2.540
95689SOL    HW188841  10.790   0.691   2.553
95689SOL    HW288842  10.689   0.578   2.542
95690SOL     OW88843   3.531   0.963  11.055
95690SOL    HW188844   3.542   1.038  10.997
95690SOL    HW288845   3.464   0.909  11.014
95691SOL     OW88846   2.485   2.260   0.568
95691SOL    HW188847   2.395   2.279   0.539
95691SOL    HW288848   2.499   2.319   0.642
95692SOL     OW88849   2.845   5.015   4.525
95692SOL    HW188850   2.757   4.979   4.509
95692SOL    HW288851   2.875   4.969   4.604
95693SOL     OW88852   7.205   2.135  10.715
95693SOL    HW188853   7.192   2.159  10.624
95693SOL    HW288854   7.184   2.214  10.764
95694SOL     OW88855   3.006   2.751  11.363
95694SOL    HW188856   3.003   2.794  11.448
95694SOL    HW288857   2.921   2.709  11.354
95695SOL     OW88858  11.367   5.700  11.765
95695SOL    HW188859  11.399   5.611  11.775
95695SOL    HW288860  11.336   5.705  11.675
95696SOL     OW88861   4.096   2.182  10.804
95696SOL    HW188862   4.004   2.178  10.827
95696SOL    HW288863   4.129   2.259  10.849
95697SOL     OW88864  14.276   1.335  11.034
95697SOL    HW188865  14.352   1.385  11.063
95697SOL    HW288866  14.309   1.278  10.965
95698SOL     OW88867  10.926   4.969   7.755
95698SOL    HW188868  10.905   5.000   7.843
95698SOL    HW288869  10.983   4.894   7.769
95699SOL     OW88870   1.418  13.184  13.241
95699SOL    HW188871   1.448  13.122  13.308
95699SOL    HW288872   1.426  13.270  13.282
95700SOL     OW88873  11.452   4.881   8.644
95700SOL    HW188874  11.417   4.797   8.614
95700SOL    HW288875  11.396   4.905   8.718
95701SOL     OW88876   6.809   6.305   2.868
95701SOL    HW188877   6.865   6.382   2.863
95701SOL    HW288878   6.870   6.232   2.880
95702SOL     OW88879  13.637   9.367   7.970
95702SOL    HW188880  13.718   9.413   7.993
95702SOL    HW288881  13.577   9.385   8.042
95703SOL     OW88882  14.169   1.186  14.218
95703SOL    HW188883  14.190   1.235  14.139
95703SOL    HW288884  14.195   1.096  14.199
95704SOL     OW88885   5.406   1.856  14.626
95704SOL    HW188886   5.461   1.804  14.568
95704SOL    HW288887   5.437   1.836  14.714
95705SOL     OW88888  11.875   2.697   6.825
95705SOL    HW188889  11.896   2.641   6.749
95705SOL    HW288890  11.783   2.679   6.843
95706SOL     OW88891   5.528  13.735  12.898
95706SOL    HW188892   5.445  13.688  12.893
95706SOL    HW288893   5.590  13.680  12.852
95707SOL     OW88894   8.109  11.708   5.740
95707SOL    HW188895   8.059  11.644   5.690
95707SOL    HW288896   8.153  11.656   5.808
95708SOL     OW88897   4.551  10.168   9.600
95708SOL    HW188898   4.561  10.224   9.678
95708SOL    HW288899   4.545  10.230   9.527
95709SOL     OW88900   6.560  12.066  11.579
95709SOL    HW188901   6.579  12.057  11.672
95709SOL    HW288902   6.545  11.976  11.549
95710SOL     OW88903   8.324   8.324  11.483
95710SOL    HW188904   8.271   8.245  11.475
95710SOL    HW288905   8.394   8.313  11.418
95711SOL     OW88906   1.788  13.694   5.788
95711SOL    HW188907   1.866  13.739   5.820
95711SOL    HW288908   1.815  13.602   5.781
95712SOL     OW88909   3.615   4.787   0.359
95712SOL    HW188910   3.641   4.714   0.415
95712SOL    HW288911   3.519   4.783   0.357
95713SOL     OW88912   4.721   7.810  10.265
95713SOL    HW188913   4.790   7.821  10.199
95713SOL    HW288914   4.723   7.891  10.316
95714SOL     OW88915   1.220   4.968  11.273
95714SOL    HW188916   1.185   5.002  11.355
95714SOL    HW288917   1.208   5.039  11.211
95715SOL     OW88918   4.315   6.823   3.636
95715SOL    HW188919   4.330   6.913   3.607
95715SOL    HW288920   4.357   6.818   3.722
95716SOL     OW88921   6.637   8.130  11.145
95716SOL    HW188922   6.690   8.051  11.129
95716SOL    HW288923   6.600   8.116  11.232
95717SOL     OW88924  14.336  13.860  13.496
95717SOL    HW188925  14.382  13.800  13.555
95717SOL    HW288926  14.337  13.944  13.540
95718SOL     OW88927   1.137   0.523  10.269
95718SOL    HW188928   1.137   0.619  10.264
95718SOL    HW288929   1.047   0.501  10.294
95719SOL     OW88930   3.211   9.604   0.167
95719SOL    HW188931   3.180   9.522   0.127
95719SOL    HW288932   3.303   9.609   0.143
95720SOL     OW88933  13.371   2.893   2.928
95720SOL    HW188934  13.441   2.828   2.921
95720SOL    HW288935  13.322   2.884   2.846
95721SOL     OW88936   0.023   2.024  12.363
95721SOL    HW188937  14.865   2.107  12.393
95721SOL    HW288938   0.118   2.033  12.374
95722SOL     OW88939   1.432   8.920  14.439
95722SOL    HW188940   1.345   8.956  14.420
95722SOL    HW288941   1.419   8.865  14.516
95723SOL     OW88942   6.993   7.919   2.472
95723SOL    HW188943   7.086   7.910   2.491
95723SOL    HW288944   6.968   8.003   2.511
95724SOL     OW88945  12.403  13.070  10.210
95724SOL    HW188946  12.425  13.039  10.122
95724SOL    HW288947  12.403  12.990  10.263
95725SOL     OW88948  14.656  14.116   7.013
95725SOL    HW188949  14.612  14.067   6.943
95725SOL    HW288950  14.744  14.079   7.016
95726SOL     OW88951   2.445   0.489   2.827
95726SOL    HW188952   2.506   0.491   2.900
95726SOL    HW288953   2.407   0.577   2.824
95727SOL     OW88954  13.532   8.718   4.978
95727SOL    HW188955  13.511   8.762   4.896
95727SOL    HW288956  13.624   8.693   4.969
95728SOL     OW88957   8.059   3.110  13.537
95728SOL    HW188958   8.134   3.051  13.543
95728SOL    HW288959   8.045   3.140  13.627
95729SOL     OW88960  14.427   3.018  12.896
95729SOL    HW188961  14.407   2.977  12.980
95729SOL    HW288962  14.522   3.030  12.897
95730SOL     OW88963   7.910   1.423   9.440
95730SOL    HW188964   7.912   1.363   9.366
95730SOL    HW288965   7.880   1.369   9.513
95731SOL     OW88966   9.385   1.905   0.866
95731SOL    HW188967   9.344   1.911   0.780
95731SOL    HW288968   9.313   1.888   0.926
95732SOL     OW88969  11.215   6.104  11.246
95732SOL    HW188970  11.310   6.103  11.247
95732SOL    HW288971  11.190   6.093  11.338
95733SOL     OW88972   0.286  10.673   7.838
95733SOL    HW188973   0.294  10.611   7.910
95733SOL    HW288974   0.339  10.635   7.768
95734SOL     OW88975   2.047   2.960   4.734
95734SOL    HW188976   2.019   2.878   4.694
95734SOL    HW288977   2.131   2.980   4.692
95735SOL     OW88978  14.601   4.754   9.686
95735SOL    HW188979  14.581   4.705   9.765
95735SOL    HW288980  14.696   4.747   9.677
95736SOL     OW88981   2.003   5.223   3.151
95736SOL    HW188982   2.091   5.201   3.121
95736SOL    HW288983   2.011   5.225   3.247
95737SOL     OW88984  10.587  14.060   3.497
95737SOL    HW188985  10.588  13.971   3.461
95737SOL    HW288986  10.500  14.093   3.477
95738SOL     OW88987   2.884  14.562   3.511
95738SOL    HW188988   2.802  14.513   3.498
95738SOL    HW288989   2.905  14.597   3.424
95739SOL     OW88990   3.383   7.940   8.746
95739SOL    HW188991   3.367   7.966   8.655
95739SOL    HW288992   3.466   7.981   8.769
95740SOL     OW88993   0.774   1.396   6.001
95740SOL    HW188994   0.845   1.456   6.023
95740SOL    HW288995   0.747   1.422   5.913
95741SOL     OW88996   1.575   3.175   8.142
95741SOL    HW188997   1.499   3.188   8.086
95741SOL    HW288998   1.609   3.263   8.157
95742SOL     OW88999  13.972   7.863   3.655
95742SOL    HW189000  14.060   7.826   3.664
95742SOL    HW289001  13.916   7.806   3.707
95743SOL     OW89002   5.767   8.844  11.675
95743SOL    HW189003   5.691   8.801  11.636
95743SOL    HW289004   5.842   8.814  11.622
95744SOL     OW89005   1.043   5.990   0.180
95744SOL    HW189006   1.050   6.021   0.270
95744SOL    HW289007   1.106   6.042   0.131
95745SOL     OW89008  10.318   6.687   6.492
95745SOL    HW189009  10.397   6.734   6.465
95745SOL    HW289010  10.251   6.755   6.500
95746SOL     OW89011   8.242   0.106  13.123
95746SOL    HW189012   8.268   0.069  13.038
95746SOL    HW289013   8.309   0.170  13.143
95747SOL     OW89014   6.472  13.123  11.715
95747SOL    HW189015   6.392  13.176  11.712
95747SOL    HW289016   6.443  13.034  11.697
95748SOL     OW89017   5.852   4.017   3.070
95748SOL    HW189018   5.908   4.088   3.103
95748SOL    HW289019   5.778   4.062   3.029
95749SOL     OW89020  13.590   9.503  11.356
95749SOL    HW189021  13.596   9.451  11.436
95749SOL    HW289022  13.536   9.579  11.381
95750SOL     OW89023   1.407  11.580  14.086
95750SOL    HW189024   1.483  11.535  14.047
95750SOL    HW289025   1.334  11.556  14.029
95751SOL     OW89026   6.837  13.821   5.092
95751SOL    HW189027   6.851  13.913   5.116
95751SOL    HW289028   6.749  13.820   5.054
95752SOL     OW89029   2.662   5.854   4.198
95752SOL    HW189030   2.670   5.770   4.242
95752SOL    HW289031   2.728   5.852   4.129
95753SOL     OW89032   7.403   8.243  10.113
95753SOL    HW189033   7.436   8.181  10.047
95753SOL    HW289034   7.478   8.299  10.133
95754SOL     OW89035   6.011   0.313   2.918
95754SOL    HW189036   6.017   0.248   2.848
95754SOL    HW289037   5.992   0.261   2.997
95755SOL     OW89038   2.995  11.623   2.746
95755SOL    HW189039   3.066  11.685   2.763
95755SOL    HW289040   2.944  11.623   2.827
95756SOL     OW89041   0.738   4.312   3.161
95756SOL    HW189042   0.755   4.385   3.220
95756SOL    HW289043   0.734   4.235   3.218
95757SOL     OW89044  14.571   0.492   2.648
95757SOL    HW189045  14.554   0.469   2.740
95757SOL    HW289046  14.574   0.588   2.648
95758SOL     OW89047   3.766   1.532   8.386
95758SOL    HW189048   3.697   1.546   8.322
95758SOL    HW289049   3.743   1.450   8.429
95759SOL     OW89050   7.835   7.537   7.542
95759SOL    HW189051   7.856   7.528   7.449
95759SOL    HW289052   7.862   7.626   7.564
95760SOL     OW89053  12.444   8.073   4.975
95760SOL    HW189054  12.507   8.041   5.039
95760SOL    HW289055  12.481   8.050   4.890
95761SOL     OW89056   6.864   1.653   5.315
95761SOL    HW189057   6.831   1.591   5.251
95761SOL    HW289058   6.787   1.683   5.363
95762SOL     OW89059   5.247  14.554   4.169
95762SOL    HW189060   5.332  14.525   4.136
95762SOL    HW289061   5.249  14.531   4.262
95763SOL     OW89062   0.801   4.008   1.352
95763SOL    HW189063   0.743   4.071   1.310
95763SOL    HW289064   0.846   4.058   1.420
95764SOL     OW89065   4.714   9.422   4.145
95764SOL    HW189066   4.747   9.369   4.073
95764SOL    HW289067   4.654   9.363   4.192
95765SOL     OW89068   1.576   7.818   4.409
95765SOL    HW189069   1.623   7.755   4.355
95765SOL    HW289070   1.492   7.777   4.428
95766SOL     OW89071  11.006   0.322  13.799
95766SOL    HW189072  10.960   0.312  13.882
95766SOL    HW289073  10.936   0.322  13.733
95767SOL     OW89074   6.315   6.479  11.480
95767SOL    HW189075   6.348   6.394  11.510
95767SOL    HW289076   6.346   6.487  11.390
95768SOL     OW89077   5.826   8.588   3.960
95768SOL    HW189078   5.915   8.553   3.956
95768SOL    HW289079   5.771   8.512   3.980
95769SOL     OW89080   1.259   5.921   5.276
95769SOL    HW189081   1.285   6.005   5.314
95769SOL    HW289082   1.305   5.918   5.192
95770SOL     OW89083   4.791   9.248  12.037
95770SOL    HW189084   4.760   9.159  12.055
95770SOL    HW289085   4.716   9.292  11.999
95771SOL     OW89086  13.084  11.337   1.505
95771SOL    HW189087  13.090  11.257   1.454
95771SOL    HW289088  13.043  11.310   1.587
95772SOL     OW89089  13.498   6.117  10.405
95772SOL    HW189090  13.568   6.157  10.456
95772SOL    HW289091  13.440   6.077  10.470
95773SOL     OW89092  13.808   1.652   2.744
95773SOL    HW189093  13.860   1.674   2.822
95773SOL    HW289094  13.784   1.560   2.757
95774SOL     OW89095   3.468   2.070  10.748
95774SOL    HW189096   3.547   2.063  10.695
95774SOL    HW289097   3.495   2.041  10.835
95775SOL     OW89098   2.932   4.974  10.978
95775SOL    HW189099   2.913   5.031  11.053
95775SOL    HW289100   2.888   5.015  10.904
95776SOL     OW89101  14.641   7.794   7.155
95776SOL    HW189102  14.645   7.719   7.097
95776SOL    HW289103  14.555   7.789   7.196
95777SOL     OW89104   1.238   9.252   9.282
95777SOL    HW189105   1.216   9.177   9.228
95777SOL    HW289106   1.243   9.326   9.221
95778SOL     OW89107   6.538  11.993   1.888
95778SOL    HW189108   6.571  11.970   1.975
95778SOL    HW289109   6.445  11.974   1.892
95779SOL     OW89110   1.697   9.175   9.311
95779SOL    HW189111   1.622   9.147   9.259
95779SOL    HW289112   1.671   9.261   9.346
95780SOL     OW89113   8.247   7.915   0.293
95780SOL    HW189114   8.275   7.979   0.359
95780SOL    HW289115   8.319   7.912   0.230
95781SOL     OW89116   4.419   2.225  12.560
95781SOL    HW189117   4.376   2.140  12.563
95781SOL    HW289118   4.512   2.206  12.553
95782SOL     OW89119   2.262  12.307   1.615
95782SOL    HW189120   2.337  12.364   1.602
95782SOL    HW289121   2.279  12.232   1.558
95783SOL     OW89122   2.795   1.999  10.515
95783SOL    HW189123   2.807   1.909  10.546
95783SOL    HW289124   2.702   2.015  10.526
95784SOL     OW89125   7.128   0.839   5.632
95784SOL    HW189126   7.065   0.779   5.593
95784SOL    HW289127   7.135   0.810   5.723
95785SOL     OW89128   0.060   7.286   2.944
95785SOL    HW189129   0.020   7.324   2.866
95785SOL    HW289130  14.866   7.247   2.993
95786SOL     OW89131  12.898  10.143   7.785
95786SOL    HW189132  12.902  10.214   7.721
95786SOL    HW289133  12.935  10.067   7.739
95787SOL     OW89134   7.381  11.196   9.173
95787SOL    HW189135   7.406  11.130   9.237
95787SOL    HW289136   7.323  11.255   9.220
95788SOL     OW89137  12.379   8.693   1.840
95788SOL    HW189138  12.316   8.621   1.841
95788SOL    HW289139  12.463   8.650   1.823
95789SOL     OW89140   5.688  11.946   5.684
95789SOL    HW189141   5.671  11.856   5.656
95789SOL    HW289142   5.784  11.953   5.683
95790SOL     OW89143   5.630   3.826   7.973
95790SOL    HW189144   5.563   3.850   7.909
95790SOL    HW289145   5.705   3.797   7.921
95791SOL     OW89146   0.585  11.801   4.768
95791SOL    HW189147   0.493  11.776   4.778
95791SOL    HW289148   0.590  11.836   4.678
95792SOL     OW89149   4.038   2.111   4.642
95792SOL    HW189150   4.124   2.105   4.685
95792SOL    HW289151   4.051   2.173   4.571
95793SOL     OW89152   5.472   7.876   6.914
95793SOL    HW189153   5.462   7.793   6.867
95793SOL    HW289154   5.434   7.942   6.857
95794SOL     OW89155   1.269  14.493   2.296
95794SOL    HW189156   1.269  14.409   2.251
95794SOL    HW289157   1.187  14.535   2.268
95795SOL     OW89158   3.274  11.373   8.195
95795SOL    HW189159   3.331  11.299   8.175
95795SOL    HW289160   3.319  11.449   8.157
95796SOL     OW89161   3.387   3.460  11.818
95796SOL    HW189162   3.394   3.531  11.754
95796SOL    HW289163   3.434   3.493  11.895
95797SOL     OW89164  10.505   8.029  14.143
95797SOL    HW189165  10.528   7.956  14.200
95797SOL    HW289166  10.420   8.005  14.107
95798SOL     OW89167  14.196   0.253  11.954
95798SOL    HW189168  14.210   0.274  12.046
95798SOL    HW289169  14.210   0.159  11.948
95799SOL     OW89170   3.984   7.496  12.195
95799SOL    HW189171   4.000   7.406  12.167
95799SOL    HW289172   3.918   7.488  12.264
95800SOL     OW89173   4.911  10.523   1.538
95800SOL    HW189174   4.927  10.595   1.598
95800SOL    HW289175   4.957  10.448   1.577
95801SOL     OW89176  10.266   3.811   8.623
95801SOL    HW189177  10.302   3.733   8.581
95801SOL    HW289178  10.316   3.884   8.584
95802SOL     OW89179  13.828   2.930   1.860
95802SOL    HW189180  13.744   2.949   1.900
95802SOL    HW289181  13.824   2.837   1.838
95803SOL     OW89182  10.876   4.282   7.015
95803SOL    HW189183  10.921   4.211   7.061
95803SOL    HW289184  10.786   4.252   7.005
95804SOL     OW89185   2.233   2.735   4.090
95804SOL    HW189186   2.155   2.765   4.044
95804SOL    HW289187   2.294   2.711   4.021
95805SOL     OW89188   6.986   0.630   3.262
95805SOL    HW189189   6.939   0.559   3.218
95805SOL    HW289190   7.021   0.684   3.192
95806SOL     OW89191   7.822  10.963   6.450
95806SOL    HW189192   7.750  10.952   6.389
95806SOL    HW289193   7.864  10.877   6.455
95807SOL     OW89194   8.760   1.479   0.122
95807SOL    HW189195   8.808   1.561   0.134
95807SOL    HW289196   8.823   1.411   0.146
95808SOL     OW89197   2.236  13.376   4.685
95808SOL    HW189198   2.319  13.369   4.638
95808SOL    HW289199   2.260  13.396   4.775
95809SOL     OW89200  12.824   9.325   5.246
95809SOL    HW189201  12.742   9.302   5.204
95809SOL    HW289202  12.884   9.344   5.173
95810SOL     OW89203  12.494  14.554   2.284
95810SOL    HW189204  12.475  14.474   2.333
95810SOL    HW289205  12.588  14.547   2.264
95811SOL     OW89206  12.822   1.250   6.194
95811SOL    HW189207  12.858   1.200   6.267
95811SOL    HW289208  12.876   1.226   6.118
95812SOL     OW89209  11.609   0.022   7.194
95812SOL    HW189210  11.560  14.835   7.244
95812SOL    HW289211  11.616  14.863   7.106
95813SOL     OW89212   3.395   8.701   5.332
95813SOL    HW189213   3.345   8.651   5.268
95813SOL    HW289214   3.409   8.786   5.290
95814SOL     OW89215   1.277   7.243   4.591
95814SOL    HW189216   1.214   7.280   4.529
95814SOL    HW289217   1.336   7.315   4.613
95815SOL     OW89218   2.473   9.106   3.651
95815SOL    HW189219   2.423   9.028   3.676
95815SOL    HW289220   2.561   9.090   3.686
95816SOL     OW89221   9.330   1.399   4.142
95816SOL    HW189222   9.356   1.361   4.058
95816SOL    HW289223   9.368   1.341   4.208
95817SOL     OW89224   6.731  11.586   1.754
95817SOL    HW189225   6.697  11.672   1.778
95817SOL    HW289226   6.653  11.533   1.739
95818SOL     OW89227   0.041  13.027   8.180
95818SOL    HW189228   0.124  12.998   8.141
95818SOL    HW289229   0.048  13.123   8.180
95819SOL     OW89230   8.582   1.727  12.605
95819SOL    HW189231   8.656   1.773  12.567
95819SOL    HW289232   8.601   1.724  12.699
95820SOL     OW89233  13.490  10.645   7.221
95820SOL    HW189234  13.572  10.609   7.187
95820SOL    HW289235  13.463  10.709   7.155
95821SOL     OW89236  14.484   9.672   3.017
95821SOL    HW189237  14.560   9.729   3.032
95821SOL    HW289238  14.413   9.714   3.064
95822SOL     OW89239   8.194  12.933   3.567
95822SOL    HW189240   8.280  12.906   3.534
95822SOL    HW289241   8.134  12.916   3.495
95823SOL     OW89242  14.343   9.797   9.481
95823SOL    HW189243  14.421   9.751   9.450
95823SOL    HW289244  14.375   9.856   9.549
95824SOL     OW89245   9.380   4.025   2.900
95824SOL    HW189246   9.440   4.092   2.869
95824SOL    HW289247   9.306   4.073   2.935
95825SOL     OW89248  12.651   3.207   6.597
95825SOL    HW189249  12.712   3.269   6.637
95825SOL    HW289250  12.590   3.184   6.666
95826SOL     OW89251   8.174   6.328   3.855
95826SOL    HW189252   8.102   6.390   3.842
95826SOL    HW289253   8.253   6.381   3.840
95827SOL     OW89254  12.758   3.236   5.896
95827SOL    HW189255  12.744   3.254   5.989
95827SOL    HW289256  12.689   3.175   5.872
95828SOL     OW89257   1.205   0.102   3.657
95828SOL    HW189258   1.246   0.049   3.726
95828SOL    HW289259   1.116   0.068   3.650
95829SOL     OW89260  12.545  14.014  13.383
95829SOL    HW189261  12.614  14.059  13.431
95829SOL    HW289262  12.485  14.084  13.356
95830SOL     OW89263   2.407   5.937   3.157
95830SOL    HW189264   2.447   5.871   3.101
95830SOL    HW289265   2.379   5.888   3.235
95831SOL     OW89266  12.078   3.248  13.588
95831SOL    HW189267  12.026   3.285  13.517
95831SOL    HW289268  12.055   3.300  13.665
95832SOL     OW89269   1.625   6.901   6.879
95832SOL    HW189270   1.627   6.831   6.813
95832SOL    HW289271   1.675   6.865   6.953
95833SOL     OW89272  13.059   9.392   4.661
95833SOL    HW189273  13.147   9.412   4.693
95833SOL    HW289274  13.051   9.297   4.669
95834SOL     OW89275  13.587  14.291   8.928
95834SOL    HW189276  13.604  14.274   8.835
95834SOL    HW289277  13.672  14.279   8.971
95835SOL     OW89278  11.359   1.614   5.332
95835SOL    HW189279  11.381   1.522   5.346
95835SOL    HW289280  11.436   1.650   5.287
95836SOL     OW89281  13.348   5.092   6.204
95836SOL    HW189282  13.374   5.000   6.205
95836SOL    HW289283  13.424   5.138   6.169
95837SOL     OW89284   1.714   8.686   8.100
95837SOL    HW189285   1.699   8.780   8.114
95837SOL    HW289286   1.757   8.682   8.015
95838SOL     OW89287   2.867  13.898  14.496
95838SOL    HW189288   2.793  13.941  14.454
95838SOL    HW289289   2.829  13.850  14.570
95839SOL     OW89290   3.724   7.870  13.656
95839SOL    HW189291   3.661   7.863  13.727
95839SOL    HW289292   3.803   7.904  13.697
95840SOL     OW89293   3.522   0.931   1.119
95840SOL    HW189294   3.512   0.852   1.171
95840SOL    HW289295   3.613   0.958   1.132
95841SOL     OW89296   2.682   6.517   4.501
95841SOL    HW189297   2.770   6.552   4.488
95841SOL    HW289298   2.627   6.595   4.512
95842SOL     OW89299   8.850   4.189   6.284
95842SOL    HW189300   8.838   4.179   6.379
95842SOL    HW289301   8.783   4.132   6.246
95843SOL     OW89302   5.119   7.675   9.642
95843SOL    HW189303   5.193   7.630   9.601
95843SOL    HW289304   5.139   7.768   9.630
95844SOL     OW89305   6.815  11.182   5.808
95844SOL    HW189306   6.757  11.177   5.884
95844SOL    HW289307   6.757  11.195   5.733
95845SOL     OW89308  13.179   3.563  11.191
95845SOL    HW189309  13.223   3.622  11.130
95845SOL    HW289310  13.088   3.565  11.164
95846SOL     OW89311   7.097   4.725   1.741
95846SOL    HW189312   7.170   4.713   1.801
95846SOL    HW289313   7.082   4.639   1.703
95847SOL     OW89314   4.662  10.817  10.471
95847SOL    HW189315   4.622  10.862  10.545
95847SOL    HW289316   4.690  10.887  10.412
95848SOL     OW89317   0.587  13.114   3.110
95848SOL    HW189318   0.669  13.118   3.161
95848SOL    HW289319   0.616  13.119   3.019
95849SOL     OW89320   4.207  11.446   7.570
95849SOL    HW189321   4.162  11.436   7.653
95849SOL    HW289322   4.292  11.485   7.593
95850SOL     OW89323   1.174  13.462   3.702
95850SOL    HW189324   1.118  13.384   3.705
95850SOL    HW289325   1.115  13.532   3.675
95851SOL     OW89326  14.732   5.545   0.111
95851SOL    HW189327  14.656   5.542   0.052
95851SOL    HW289328  14.695   5.563   0.197
95852SOL     OW89329  13.328  12.888   9.428
95852SOL    HW189330  13.239  12.852   9.420
95852SOL    HW289331  13.385  12.812   9.420
95853SOL     OW89332   5.606   5.379   3.301
95853SOL    HW189333   5.620   5.382   3.396
95853SOL    HW289334   5.513   5.357   3.292
95854SOL     OW89335  14.481   7.559  11.539
95854SOL    HW189336  14.395   7.553  11.497
95854SOL    HW289337  14.544   7.558  11.467
95855SOL     OW89338   4.084   1.872   9.789
95855SOL    HW189339   4.018   1.863   9.858
95855SOL    HW289340   4.094   1.784   9.753
95856SOL     OW89341   1.156   6.973  11.024
95856SOL    HW189342   1.193   6.890  10.995
95856SOL    HW289343   1.150   6.965  11.119
95857SOL     OW89344   4.182  13.855   4.320
95857SOL    HW189345   4.160  13.833   4.411
95857SOL    HW289346   4.155  13.946   4.311
95858SOL     OW89347   2.284   4.551  10.820
95858SOL    HW189348   2.247   4.505  10.896
95858SOL    HW289349   2.379   4.544  10.832
95859SOL     OW89350  12.760   5.596   6.925
95859SOL    HW189351  12.753   5.501   6.917
95859SOL    HW289352  12.815   5.609   7.002
95860SOL     OW89353   4.189   8.017  14.761
95860SOL    HW189354   4.153   8.075  14.694
95860SOL    HW289355   4.114   7.970  14.795
95861SOL     OW89356   5.277   4.043   5.613
95861SOL    HW189357   5.339   4.059   5.541
95861SOL    HW289358   5.287   3.950   5.632
95862SOL     OW89359   6.769   7.652   3.439
95862SOL    HW189360   6.788   7.621   3.350
95862SOL    HW289361   6.700   7.717   3.427
95863SOL     OW89362  14.396   3.074  13.667
95863SOL    HW189363  14.400   2.978  13.663
95863SOL    HW289364  14.369   3.100  13.579
95864SOL     OW89365   4.253  14.525   2.973
95864SOL    HW189366   4.269  14.610   2.930
95864SOL    HW289367   4.337  14.502   3.011
95865SOL     OW89368  14.869   6.762   6.059
95865SOL    HW189369   0.049   6.834   6.085
95865SOL    HW289370  14.842   6.785   5.970
95866SOL     OW89371  10.786   3.822   6.549
95866SOL    HW189372  10.808   3.906   6.589
95866SOL    HW289373  10.766   3.764   6.622
95867SOL     OW89374   0.630   2.472   4.399
95867SOL    HW189375   0.632   2.457   4.305
95867SOL    HW289376   0.722   2.479   4.424
95868SOL     OW89377  11.212  10.699   0.529
95868SOL    HW189378  11.220  10.700   0.624
95868SOL    HW289379  11.120  10.678   0.512
95869SOL     OW89380  12.309  11.293   1.744
95869SOL    HW189381  12.362  11.354   1.692
95869SOL    HW289382  12.222  11.333   1.747
95870SOL     OW89383  10.190   5.377   3.592
95870SOL    HW189384  10.114   5.428   3.564
95870SOL    HW289385  10.205   5.404   3.683
95871SOL     OW89386   8.359  10.575  12.835
95871SOL    HW189387   8.440  10.525  12.835
95871SOL    HW289388   8.309  10.541  12.760
95872SOL     OW89389   4.190  12.077   8.963
95872SOL    HW189390   4.276  12.063   9.002
95872SOL    HW289391   4.204  12.145   8.897
95873SOL     OW89392  12.344   9.196  11.102
95873SOL    HW189393  12.285   9.125  11.126
95873SOL    HW289394  12.425   9.152  11.077
95874SOL     OW89395   1.024   8.319  12.618
95874SOL    HW189396   0.964   8.383  12.657
95874SOL    HW289397   1.101   8.320  12.675
95875SOL     OW89398  14.236   3.222   2.361
95875SOL    HW189399  14.156   3.255   2.319
95875SOL    HW289400  14.228   3.248   2.452
95876SOL     OW89401   5.657   4.401   4.082
95876SOL    HW189402   5.743   4.359   4.081
95876SOL    HW289403   5.676   4.494   4.068
95877SOL     OW89404  14.476   3.880   4.886
95877SOL    HW189405  14.409   3.812   4.877
95877SOL    HW289406  14.428   3.962   4.874
95878SOL     OW89407   4.154  14.037   1.533
95878SOL    HW189408   4.112  14.065   1.614
95878SOL    HW289409   4.230  13.987   1.561
95879SOL     OW89410  13.373   0.071  14.060
95879SOL    HW189411  13.429   0.111  13.994
95879SOL    HW289412  13.290   0.055  14.014
95880SOL     OW89413  12.561   6.472   6.874
95880SOL    HW189414  12.581   6.546   6.817
95880SOL    HW289415  12.530   6.404   6.815
95881SOL     OW89416   9.004  11.644  11.616
95881SOL    HW189417   8.958  11.667  11.535
95881SOL    HW289418   8.944  11.668  11.686
95882SOL     OW89419   0.265   3.911  14.085
95882SOL    HW189420   0.233   3.988  14.039
95882SOL    HW289421   0.219   3.838  14.044
95883SOL     OW89422   7.264   6.690   8.868
95883SOL    HW189423   7.342   6.636   8.856
95883SOL    HW289424   7.216   6.648   8.939
95884SOL     OW89425  11.476   0.486   9.119
95884SOL    HW189426  11.460   0.510   9.210
95884SOL    HW289427  11.555   0.432   9.122
95885SOL     OW89428   1.308   9.367   1.778
95885SOL    HW189429   1.295   9.356   1.683
95885SOL    HW289430   1.385   9.423   1.784
95886SOL     OW89431   7.122   7.792  11.347
95886SOL    HW189432   7.089   7.703  11.341
95886SOL    HW289433   7.198   7.794  11.290
95887SOL     OW89434   3.722   1.889   7.327
95887SOL    HW189435   3.815   1.904   7.307
95887SOL    HW289436   3.711   1.794   7.317
95888SOL     OW89437   8.741   7.701  14.865
95888SOL    HW189438   8.715   7.644  14.793
95888SOL    HW289439   8.726   7.789  14.832
95889SOL     OW89440   3.955   8.149   4.809
95889SOL    HW189441   4.039   8.178   4.773
95889SOL    HW289442   3.977   8.071   4.859
95890SOL     OW89443  12.359   7.225   0.042
95890SOL    HW189444  12.280   7.197   0.088
95890SOL    HW289445  12.420   7.153   0.054
95891SOL     OW89446   6.089  12.830  14.574
95891SOL    HW189447   6.153  12.785  14.630
95891SOL    HW289448   6.140  12.856  14.497
95892SOL     OW89449   3.689   3.764  11.502
95892SOL    HW189450   3.768   3.792  11.546
95892SOL    HW289451   3.696   3.669  11.499
95893SOL     OW89452   9.682  14.387   5.199
95893SOL    HW189453   9.632  14.422   5.125
95893SOL    HW289454   9.772  14.385   5.168
95894SOL     OW89455   9.412   4.185   0.442
95894SOL    HW189456   9.411   4.256   0.378
95894SOL    HW289457   9.478   4.211   0.506
95895SOL     OW89458   5.833   2.044  10.938
95895SOL    HW189459   5.924   2.016  10.936
95895SOL    HW289460   5.832   2.119  10.998
95896SOL     OW89461   5.729  14.869   5.634
95896SOL    HW189462   5.708  14.781   5.664
95896SOL    HW289463   5.671   0.048   5.684
95897SOL     OW89464   8.605  12.326   4.929
95897SOL    HW189465   8.663  12.252   4.910
95897SOL    HW289466   8.519  12.287   4.940
95898SOL     OW89467   3.786   5.982  14.498
95898SOL    HW189468   3.782   5.887  14.510
95898SOL    HW289469   3.871   5.998  14.458
95899SOL     OW89470   7.535  13.572  11.745
95899SOL    HW189471   7.614  13.534  11.784
95899SOL    HW289472   7.477  13.498  11.732
95900SOL     OW89473  10.165  12.406   5.500
95900SOL    HW189474  10.106  12.445   5.436
95900SOL    HW289475  10.115  12.334   5.538
95901SOL     OW89476   5.490  12.488  11.308
95901SOL    HW189477   5.462  12.450  11.224
95901SOL    HW289478   5.411  12.483  11.362
95902SOL     OW89479   6.430   0.242   7.863
95902SOL    HW189480   6.363   0.174   7.854
95902SOL    HW289481   6.494   0.221   7.796
95903SOL     OW89482  11.799  10.397  13.331
95903SOL    HW189483  11.762  10.341  13.400
95903SOL    HW289484  11.724  10.420  13.277
95904SOL     OW89485   3.623  13.557   1.256
95904SOL    HW189486   3.626  13.508   1.173
95904SOL    HW289487   3.657  13.496   1.321
95905SOL     OW89488  13.978   0.768   4.828
95905SOL    HW189489  14.024   0.810   4.901
95905SOL    HW289490  14.047   0.719   4.782
95906SOL     OW89491   3.799   5.457  11.065
95906SOL    HW189492   3.835   5.508  10.993
95906SOL    HW289493   3.876   5.416  11.106
95907SOL     OW89494   0.801  11.500   6.496
95907SOL    HW189495   0.742  11.464   6.562
95907SOL    HW289496   0.888  11.494   6.535
95908SOL     OW89497   8.293   1.487   2.478
95908SOL    HW189498   8.273   1.550   2.409
95908SOL    HW289499   8.330   1.539   2.549
95909SOL     OW89500   5.162  12.830  12.792
95909SOL    HW189501   5.086  12.785  12.755
95909SOL    HW289502   5.228  12.762  12.801
95910SOL     OW89503   1.663   8.636  10.968
95910SOL    HW189504   1.637   8.729  10.967
95910SOL    HW289505   1.751   8.637  11.005
95911SOL     OW89506   3.399  14.425   5.810
95911SOL    HW189507   3.357  14.358   5.865
95911SOL    HW289508   3.463  14.466   5.868
95912SOL     OW89509   8.303  11.357  13.001
95912SOL    HW189510   8.359  11.286  13.034
95912SOL    HW289511   8.215  11.320  13.004
95913SOL     OW89512  12.949   4.534   1.099
95913SOL    HW189513  12.877   4.584   1.138
95913SOL    HW289514  12.953   4.454   1.152
95914SOL     OW89515  14.437   6.540   0.883
95914SOL    HW189516  14.476   6.573   0.802
95914SOL    HW289517  14.426   6.618   0.937
95915SOL     OW89518   8.105  14.143   3.216
95915SOL    HW189519   8.111  14.099   3.131
95915SOL    HW289520   8.115  14.073   3.280
95916SOL     OW89521   7.024   0.430   9.183
95916SOL    HW189522   7.105   0.473   9.153
95916SOL    HW289523   6.988   0.391   9.103
95917SOL     OW89524   6.189   6.034   7.110
95917SOL    HW189525   6.284   6.023   7.117
95917SOL    HW289526   6.166   6.086   7.187
95918SOL     OW89527  10.545   5.248   2.355
95918SOL    HW189528  10.526   5.225   2.446
95918SOL    HW289529  10.527   5.342   2.349
95919SOL     OW89530   5.229  11.260  11.976
95919SOL    HW189531   5.290  11.193  12.007
95919SOL    HW289532   5.252  11.339  12.025
95920SOL     OW89533  13.124  10.688   3.364
95920SOL    HW189534  13.048  10.735   3.397
95920SOL    HW289535  13.119  10.696   3.269
95921SOL     OW89536  12.722   4.514   7.046
95921SOL    HW189537  12.696   4.593   7.093
95921SOL    HW289538  12.816   4.506   7.062
95922SOL     OW89539   8.578   2.815   6.844
95922SOL    HW189540   8.673   2.824   6.846
95922SOL    HW289541   8.551   2.860   6.764
95923SOL     OW89542   6.436   6.727  13.053
95923SOL    HW189543   6.386   6.674  13.115
95923SOL    HW289544   6.457   6.807  13.101
95924SOL     OW89545   7.329  14.831   0.060
95924SOL    HW189546   7.312  14.822   0.154
95924SOL    HW289547   7.250  14.797   0.018
95925SOL     OW89548   4.725   6.500   2.181
95925SOL    HW189549   4.787   6.464   2.244
95925SOL    HW289550   4.641   6.498   2.226
95926SOL     OW89551   2.320   5.334   6.005
95926SOL    HW189552   2.378   5.347   5.929
95926SOL    HW289553   2.252   5.275   5.973
95927SOL     OW89554  13.434   5.332   4.453
95927SOL    HW189555  13.345   5.346   4.485
95927SOL    HW289556  13.480   5.294   4.527
95928SOL     OW89557   3.877   6.665   6.005
95928SOL    HW189558   3.878   6.750   6.050
95928SOL    HW289559   3.849   6.603   6.073
95929SOL     OW89560   6.784   6.021   6.528
95929SOL    HW189561   6.756   6.054   6.614
95929SOL    HW289562   6.836   6.092   6.491
95930SOL     OW89563   1.500   5.467   5.152
95930SOL    HW189564   1.433   5.405   5.123
95930SOL    HW289565   1.452   5.530   5.206
95931SOL     OW89566   7.801   8.670   1.009
95931SOL    HW189567   7.712   8.644   1.034
95931SOL    HW289568   7.790   8.712   0.923
95932SOL     OW89569  13.368  11.560   0.852
95932SOL    HW189570  13.347  11.493   0.787
95932SOL    HW289571  13.289  11.613   0.858
95933SOL     OW89572  10.984   7.951  10.936
95933SOL    HW189573  10.974   7.999  10.853
95933SOL    HW289574  10.896   7.945  10.971
95934SOL     OW89575   5.631   1.955   4.738
95934SOL    HW189576   5.593   1.915   4.816
95934SOL    HW289577   5.722   1.971   4.760
95935SOL     OW89578  13.367  14.216   3.678
95935SOL    HW189579  13.439  14.166   3.638
95935SOL    HW289580  13.380  14.205   3.772
95936SOL     OW89581  10.331   9.887   9.873
95936SOL    HW189582  10.408   9.843   9.910
95936SOL    HW289583  10.321   9.848   9.786
95937SOL     OW89584   0.578   7.630  12.679
95937SOL    HW189585   0.570   7.711  12.628
95937SOL    HW289586   0.555   7.655  12.768
95938SOL     OW89587   8.536   0.324   5.284
95938SOL    HW189588   8.567   0.251   5.337
95938SOL    HW289589   8.477   0.284   5.219
95939SOL     OW89590  10.796  11.752   9.763
95939SOL    HW189591  10.810  11.715   9.851
95939SOL    HW289592  10.854  11.702   9.706
95940SOL     OW89593   6.059  13.939  11.386
95940SOL    HW189594   6.123  13.922  11.316
95940SOL    HW289595   5.991  13.873  11.374
95941SOL     OW89596  12.099   5.320   2.709
95941SOL    HW189597  12.130   5.400   2.665
95941SOL    HW289598  12.082   5.258   2.638
95942SOL     OW89599   5.501   4.072   1.722
95942SOL    HW189600   5.458   4.031   1.647
95942SOL    HW289601   5.593   4.047   1.714
95943SOL     OW89602   3.007   0.531   9.499
95943SOL    HW189603   2.957   0.461   9.456
95943SOL    HW289604   2.943   0.574   9.555
95944SOL     OW89605   2.134   8.988   2.112
95944SOL    HW189606   2.198   9.039   2.161
95944SOL    HW289607   2.186   8.933   2.053
95945SOL     OW89608  11.521   5.755  14.491
95945SOL    HW189609  11.586   5.726  14.426
95945SOL    HW289610  11.453   5.688  14.488
95946SOL     OW89611   9.190  11.958   4.642
95946SOL    HW189612   9.146  11.964   4.557
95946SOL    HW289613   9.158  11.876   4.679
95947SOL     OW89614   7.156   3.628  12.200
95947SOL    HW189615   7.112   3.605  12.119
95947SOL    HW289616   7.200   3.547  12.227
95948SOL     OW89617   6.015  13.068   8.980
95948SOL    HW189618   5.976  13.084   9.065
95948SOL    HW289619   6.078  13.139   8.968
95949SOL     OW89620  12.123   8.628   9.225
95949SOL    HW189621  12.050   8.569   9.246
95949SOL    HW289622  12.093   8.677   9.148
95950SOL     OW89623   7.476  12.933   6.174
95950SOL    HW189624   7.455  12.893   6.258
95950SOL    HW289625   7.433  13.018   6.176
95951SOL     OW89626  13.105   1.912   3.056
95951SOL    HW189627  13.168   1.927   2.986
95951SOL    HW289628  13.100   1.816   3.064
95952SOL     OW89629   8.432   9.846   7.292
95952SOL    HW189630   8.479   9.875   7.370
95952SOL    HW289631   8.479   9.886   7.219
95953SOL     OW89632  12.800   6.207   6.411
95953SOL    HW189633  12.863   6.222   6.341
95953SOL    HW289634  12.766   6.294   6.432
95954SOL     OW89635   2.203   4.421   6.573
95954SOL    HW189636   2.245   4.458   6.651
95954SOL    HW289637   2.171   4.335   6.602
95955SOL     OW89638  12.551   4.374  11.271
95955SOL    HW189639  12.642   4.399  11.262
95955SOL    HW289640  12.537   4.365  11.366
95956SOL     OW89641   4.414   9.841  13.482
95956SOL    HW189642   4.336   9.811  13.436
95956SOL    HW289643   4.406   9.937  13.481
95957SOL     OW89644  11.506  10.848   7.196
95957SOL    HW189645  11.564  10.862   7.121
95957SOL    HW289646  11.564  10.824   7.268
95958SOL     OW89647   3.768   8.409   5.553
95958SOL    HW189648   3.771   8.492   5.602
95958SOL    HW289649   3.728   8.433   5.469
95959SOL     OW89650   6.196   2.526   8.923
95959SOL    HW189651   6.198   2.451   8.984
95959SOL    HW289652   6.138   2.589   8.966
95960SOL     OW89653  11.711   6.526   9.640
95960SOL    HW189654  11.665   6.444   9.627
95960SOL    HW289655  11.683   6.556   9.727
95961SOL     OW89656   6.814  11.061   4.688
95961SOL    HW189657   6.780  11.074   4.776
95961SOL    HW289658   6.897  11.015   4.701
95962SOL     OW89659   6.263   0.847   3.092
95962SOL    HW189660   6.206   0.902   3.145
95962SOL    HW289661   6.329   0.814   3.153
95963SOL     OW89662  12.002  14.534   3.206
95963SOL    HW189663  12.092  14.543   3.174
95963SOL    HW289664  11.949  14.533   3.126
95964SOL     OW89665  13.823   0.083  13.600
95964SOL    HW189666  13.736   0.049  13.581
95964SOL    HW289667  13.809   0.153  13.664
95965SOL     OW89668   1.342  11.905   2.209
95965SOL    HW189669   1.328  11.821   2.252
95965SOL    HW289670   1.415  11.890   2.149
95966SOL     OW89671  14.624   8.332   3.322
95966SOL    HW189672  14.531   8.308   3.329
95966SOL    HW289673  14.665   8.288   3.397
95967SOL     OW89674   8.402   6.060   1.758
95967SOL    HW189675   8.373   5.971   1.775
95967SOL    HW289676   8.443   6.056   1.672
95968SOL     OW89677   6.068   5.063  14.582
95968SOL    HW189678   6.106   5.142  14.619
95968SOL    HW289679   6.136   4.996  14.594
95969SOL     OW89680   0.045   4.133   2.455
95969SOL    HW189681   0.003   4.125   2.541
95969SOL    HW289682   0.010   4.215   2.419
95970SOL     OW89683   7.166  10.447  11.544
95970SOL    HW189684   7.120  10.434  11.461
95970SOL    HW289685   7.258  10.457  11.519
95971SOL     OW89686   6.749   0.678   5.966
95971SOL    HW189687   6.807   0.734   5.914
95971SOL    HW289688   6.794   0.593   5.969
95972SOL     OW89689   0.461  14.510   7.923
95972SOL    HW189690   0.451  14.485   7.831
95972SOL    HW289691   0.465  14.427   7.970
95973SOL     OW89692   9.762   1.259   4.436
95973SOL    HW189693   9.724   1.236   4.521
95973SOL    HW289694   9.716   1.339   4.410
95974SOL     OW89695   4.140   4.728   1.077
95974SOL    HW189696   4.106   4.646   1.114
95974SOL    HW289697   4.235   4.719   1.086
95975SOL     OW89698   2.737   4.663   2.100
95975SOL    HW189699   2.654   4.709   2.088
95975SOL    HW289700   2.802   4.732   2.108
95976SOL     OW89701   3.218  12.681  14.167
95976SOL    HW189702   3.280  12.714  14.102
95976SOL    HW289703   3.267  12.682  14.249
95977SOL     OW89704  12.479   2.596  14.221
95977SOL    HW189705  12.572   2.612  14.240
95977SOL    HW289706  12.475   2.504  14.197
95978SOL     OW89707  13.841   3.414   4.464
95978SOL    HW189708  13.893   3.402   4.543
95978SOL    HW289709  13.879   3.490   4.421
95979SOL     OW89710   7.004  12.576   6.254
95979SOL    HW189711   6.922  12.531   6.277
95979SOL    HW289712   7.019  12.553   6.162
95980SOL     OW89713   6.637   9.369   9.888
95980SOL    HW189714   6.684   9.411   9.816
95980SOL    HW289715   6.545   9.370   9.861
95981SOL     OW89716  12.090   8.090  11.470
95981SOL    HW189717  12.009   8.099  11.521
95981SOL    HW289718  12.160   8.113  11.531
95982SOL     OW89719  14.009   2.617   4.506
95982SOL    HW189720  13.934   2.563   4.530
95982SOL    HW289721  13.996   2.700   4.552
95983SOL     OW89722  11.292   9.475  14.695
95983SOL    HW189723  11.219   9.496  14.637
95983SOL    HW289724  11.369   9.512  14.651
95984SOL     OW89725   0.652  12.139  11.528
95984SOL    HW189726   0.630  12.137  11.621
95984SOL    HW289727   0.692  12.225  11.514
95985SOL     OW89728   9.165  13.201  12.653
95985SOL    HW189729   9.219  13.195  12.574
95985SOL    HW289730   9.145  13.110  12.675
95986SOL     OW89731  10.497   7.217   1.444
95986SOL    HW189732  10.569   7.154   1.444
95986SOL    HW289733  10.419   7.166   1.422
95987SOL     OW89734  14.817   0.016  12.414
95987SOL    HW189735  14.786   0.081  12.477
95987SOL    HW289736  14.791   0.050  12.328
95988SOL     OW89737   4.277   8.290   0.492
95988SOL    HW189738   4.242   8.293   0.582
95988SOL    HW289739   4.366   8.257   0.502
95989SOL     OW89740   0.765  10.722   9.059
95989SOL    HW189741   0.801  10.670   8.987
95989SOL    HW289742   0.713  10.660   9.109
95990SOL     OW89743   6.474   8.633   6.579
95990SOL    HW189744   6.481   8.726   6.597
95990SOL    HW289745   6.399   8.625   6.520
95991SOL     OW89746   8.830   1.500   1.807
95991SOL    HW189747   8.750   1.531   1.765
95991SOL    HW289748   8.800   1.462   1.890
95992SOL     OW89749  12.329   8.041   9.782
95992SOL    HW189750  12.277   8.117   9.754
95992SOL    HW289751  12.415   8.056   9.743
95993SOL     OW89752   2.794   7.063   3.814
95993SOL    HW189753   2.763   7.123   3.747
95993SOL    HW289754   2.797   7.115   3.894
95994SOL     OW89755   9.586   8.002  12.920
95994SOL    HW189756   9.673   8.023  12.887
95994SOL    HW289757   9.540   7.966  12.844
95995SOL     OW89758   2.324  14.571   8.108
95995SOL    HW189759   2.284  14.503   8.053
95995SOL    HW289760   2.418  14.553   8.102
95996SOL     OW89761  11.390   1.051   5.439
95996SOL    HW189762  11.455   1.070   5.371
95996SOL    HW289763  11.428   0.979   5.489
95997SOL     OW89764  11.552   4.577  11.349
95997SOL    HW189765  11.464   4.543  11.368
95997SOL    HW289766  11.589   4.595  11.435
95998SOL     OW89767   4.692  13.832   3.131
95998SOL    HW189768   4.736  13.775   3.068
95998SOL    HW289769   4.760  13.891   3.162
95999SOL     OW89770   7.089   5.177  11.493
95999SOL    HW189771   7.009   5.173  11.440
95999SOL    HW289772   7.097   5.088  11.529
96000SOL     OW89773  12.822  13.117   7.313
96000SOL    HW189774  12.868  13.071   7.243
96000SOL    HW289775  12.776  13.188   7.268
96001SOL     OW89776   7.809   8.803   5.099
96001SOL    HW189777   7.767   8.876   5.144
96001SOL    HW289778   7.813   8.830   5.008
96002SOL     OW89779   2.473   8.265   9.700
96002SOL    HW189780   2.491   8.243   9.791
96002SOL    HW289781   2.556   8.299   9.666
96003SOL     OW89782   2.463   1.002  12.870
96003SOL    HW189783   2.453   1.094  12.844
96003SOL    HW289784   2.505   0.960  12.795
96004SOL     OW89785   8.331  10.972   7.315
96004SOL    HW189786   8.387  10.949   7.241
96004SOL    HW289787   8.320  11.066   7.309
96005SOL     OW89788   9.784  12.262   3.979
96005SOL    HW189789   9.791  12.329   3.911
96005SOL    HW289790   9.821  12.303   4.057
96006SOL     OW89791   3.044  13.753  13.348
96006SOL    HW189792   3.027  13.839  13.310
96006SOL    HW289793   2.961  13.730  13.391
96007SOL     OW89794   5.324  12.568   0.151
96007SOL    HW189795   5.287  12.520   0.226
96007SOL    HW289796   5.289  12.657   0.160
96008SOL     OW89797   4.946   0.851   5.607
96008SOL    HW189798   4.871   0.795   5.628
96008SOL    HW289799   5.023   0.801   5.635
96009SOL     OW89800   8.127  14.680  10.206
96009SOL    HW189801   8.143  14.596  10.163
96009SOL    HW289802   8.053  14.663  10.265
96010SOL     OW89803  13.378   0.793  10.461
96010SOL    HW189804  13.399   0.869  10.516
96010SOL    HW289805  13.423   0.720  10.502
96011SOL     OW89806   4.804  14.286   8.585
96011SOL    HW189807   4.801  14.379   8.604
96011SOL    HW289808   4.891  14.272   8.548
96012SOL     OW89809  11.054   6.539   7.399
96012SOL    HW189810  11.051   6.594   7.321
96012SOL    HW289811  11.062   6.600   7.472
96013SOL     OW89812   0.262  10.799   8.717
96013SOL    HW189813   0.226  10.876   8.673
96013SOL    HW289814   0.210  10.726   8.683
96014SOL     OW89815  10.564   0.201  12.356
96014SOL    HW189816  10.621   0.156  12.418
96014SOL    HW289817  10.575   0.153  12.274
96015SOL     OW89818   3.924  10.247   1.278
96015SOL    HW189819   3.837  10.285   1.293
96015SOL    HW289820   3.948  10.278   1.190
96016SOL     OW89821   6.851   7.483   4.829
96016SOL    HW189822   6.838   7.450   4.740
96016SOL    HW289823   6.916   7.425   4.867
96017SOL     OW89824   5.138   1.339  11.627
96017SOL    HW189825   5.134   1.255  11.581
96017SOL    HW289826   5.203   1.390  11.579
96018SOL     OW89827   4.002   8.294  13.785
96018SOL    HW189828   4.087   8.330  13.760
96018SOL    HW289829   4.002   8.206  13.747
96019SOL     OW89830   8.907  10.109   3.556
96019SOL    HW189831   8.948  10.146   3.477
96019SOL    HW289832   8.865  10.028   3.525
96020SOL     OW89833   5.018   7.379  14.236
96020SOL    HW189834   5.036   7.327  14.314
96020SOL    HW289835   4.951   7.442  14.264
96021SOL     OW89836   5.981   6.719  11.418
96021SOL    HW189837   5.967   6.633  11.378
96021SOL    HW289838   6.052   6.759  11.367
96022SOL     OW89839  11.577   7.020  12.993
96022SOL    HW189840  11.664   7.024  13.033
96022SOL    HW289841  11.571   7.098  12.938
96023SOL     OW89842  13.446   2.509   5.277
96023SOL    HW189843  13.415   2.599   5.290
96023SOL    HW289844  13.518   2.500   5.340
96024SOL     OW89845  12.117   1.737   9.736
96024SOL    HW189846  12.048   1.671   9.732
96024SOL    HW289847  12.109   1.785   9.654
96025SOL     OW89848   5.213   8.226   2.027
96025SOL    HW189849   5.261   8.167   1.969
96025SOL    HW289850   5.204   8.307   1.977
96026SOL     OW89851  10.697   3.227   8.538
96026SOL    HW189852  10.645   3.147   8.539
96026SOL    HW289853  10.635   3.297   8.560
96027SOL     OW89854  13.500   2.374  10.860
96027SOL    HW189855  13.500   2.340  10.949
96027SOL    HW289856  13.499   2.469  10.870
96028SOL     OW89857   9.204   1.091   5.788
96028SOL    HW189858   9.277   1.068   5.846
96028SOL    HW289859   9.142   1.018   5.797
96029SOL     OW89860  11.627   0.715  10.274
96029SOL    HW189861  11.641   0.729  10.367
96029SOL    HW289862  11.628   0.620  10.264
96030SOL     OW89863   6.968   0.300   2.264
96030SOL    HW189864   6.916   0.358   2.320
96030SOL    HW289865   6.904   0.238   2.227
96031SOL     OW89866   4.081  12.357  14.621
96031SOL    HW189867   4.128  12.440  14.624
96031SOL    HW289868   4.058  12.339  14.713
96032SOL     OW89869   3.752  10.316   0.674
96032SOL    HW189870   3.682  10.359   0.625
96032SOL    HW289871   3.767  10.233   0.629
96033SOL     OW89872   5.774   4.134   5.033
96033SOL    HW189873   5.687   4.175   5.032
96033SOL    HW289874   5.778   4.085   4.951
96034SOL     OW89875   6.693   3.657   9.074
96034SOL    HW189876   6.702   3.608   8.993
96034SOL    HW289877   6.774   3.708   9.080
96035SOL     OW89878   8.550   4.465   6.518
96035SOL    HW189879   8.627   4.454   6.574
96035SOL    HW289880   8.586   4.478   6.430
96036SOL     OW89881  11.201   2.129   6.721
96036SOL    HW189882  11.111   2.130   6.752
96036SOL    HW289883  11.198   2.077   6.640
96037SOL     OW89884  13.650   4.007   1.773
96037SOL    HW189885  13.636   4.058   1.693
96037SOL    HW289886  13.744   4.013   1.789
96038SOL     OW89887  14.832   3.231   7.213
96038SOL    HW189888  14.772   3.260   7.283
96038SOL    HW289889  14.809   3.139   7.198
96039SOL     OW89890  10.690  14.589   4.649
96039SOL    HW189891  10.688  14.615   4.557
96039SOL    HW289892  10.643  14.658   4.695
96040SOL     OW89893   4.257   4.748  11.715
96040SOL    HW189894   4.307   4.801  11.777
96040SOL    HW289895   4.314   4.741  11.639
96041SOL     OW89896  12.851  13.487   9.350
96041SOL    HW189897  12.791  13.544   9.301
96041SOL    HW289898  12.860  13.409   9.296
96042SOL     OW89899   1.718  13.928   7.300
96042SOL    HW189900   1.688  13.984   7.371
96042SOL    HW289901   1.813  13.943   7.296
96043SOL     OW89902  11.924  14.193   5.863
96043SOL    HW189903  11.972  14.119   5.901
96043SOL    HW289904  11.885  14.158   5.783
96044SOL     OW89905   1.868   6.846   5.459
96044SOL    HW189906   1.836   6.759   5.437
96044SOL    HW289907   1.892   6.885   5.374
96045SOL     OW89908   7.247   5.646   3.599
96045SOL    HW189909   7.293   5.674   3.520
96045SOL    HW289910   7.215   5.727   3.638
96046SOL     OW89911  11.226   8.362  11.616
96046SOL    HW189912  11.229   8.356  11.712
96046SOL    HW289913  11.303   8.315  11.586
96047SOL     OW89914  13.707   7.489  10.223
96047SOL    HW189915  13.648   7.561  10.203
96047SOL    HW289916  13.779   7.499  10.160
96048SOL     OW89917   3.322   4.743   7.712
96048SOL    HW189918   3.358   4.726   7.800
96048SOL    HW289919   3.394   4.723   7.653
96049SOL     OW89920   3.394   7.537  13.621
96049SOL    HW189921   3.363   7.455  13.661
96049SOL    HW289922   3.431   7.509  13.537
96050SOL     OW89923   5.820   6.955   6.432
96050SOL    HW189924   5.747   6.967   6.371
96050SOL    HW289925   5.846   7.044   6.457
96051SOL     OW89926  14.360   4.381  12.058
96051SOL    HW189927  14.290   4.443  12.035
96051SOL    HW289928  14.372   4.329  11.979
96052SOL     OW89929   6.303   7.025  14.496
96052SOL    HW189930   6.317   6.940  14.537
96052SOL    HW289931   6.278   7.005  14.406
96053SOL     OW89932   3.643  12.814   9.086
96053SOL    HW189933   3.687  12.769   9.014
96053SOL    HW289934   3.703  12.806   9.160
96054SOL     OW89935   7.293  14.102   4.244
96054SOL    HW189936   7.377  14.144   4.226
96054SOL    HW289937   7.277  14.119   4.337
96055SOL     OW89938  14.574  13.477  12.991
96055SOL    HW189939  14.505  13.534  12.957
96055SOL    HW289940  14.556  13.471  13.085
96056SOL     OW89941  12.254   0.565  11.037
96056SOL    HW189942  12.193   0.495  11.062
96056SOL    HW289943  12.200   0.645  11.040
96057SOL     OW89944   3.834   9.076   7.159
96057SOL    HW189945   3.880   9.158   7.181
96057SOL    HW289946   3.827   9.030   7.243
96058SOL     OW89947  10.974   7.483   9.844
96058SOL    HW189948  10.933   7.442   9.768
96058SOL    HW289949  10.922   7.452   9.919
96059SOL     OW89950   8.037   3.037   5.520
96059SOL    HW189951   7.982   3.034   5.598
96059SOL    HW289952   8.018   2.954   5.474
96060SOL     OW89953  11.480   8.864   3.648
96060SOL    HW189954  11.456   8.956   3.633
96060SOL    HW289955  11.457   8.848   3.739
96061SOL     OW89956   0.171   8.344  13.423
96061SOL    HW189957   0.174   8.430  13.465
96061SOL    HW289958   0.094   8.348  13.367
96062SOL     OW89959   0.511  13.085   9.773
96062SOL    HW189960   0.429  13.060   9.732
96062SOL    HW289961   0.489  13.099   9.865
96063SOL     OW89962  13.371  12.849   1.618
96063SOL    HW189963  13.294  12.803   1.584
96063SOL    HW289964  13.379  12.926   1.563
96064SOL     OW89965   4.590   3.111  12.641
96064SOL    HW189966   4.512   3.084  12.593
96064SOL    HW289967   4.643   3.157  12.576
96065SOL     OW89968  14.126   3.357   8.699
96065SOL    HW189969  14.055   3.347   8.763
96065SOL    HW289970  14.083   3.355   8.614
96066SOL     OW89971  11.864  11.964   4.531
96066SOL    HW189972  11.924  11.903   4.573
96066SOL    HW289973  11.897  12.051   4.554
96067SOL     OW89974   8.180   7.483  10.439
96067SOL    HW189975   8.206   7.482  10.347
96067SOL    HW289976   8.143   7.396  10.454
96068SOL     OW89977   0.844   5.511   6.965
96068SOL    HW189978   0.937   5.516   6.942
96068SOL    HW289979   0.814   5.428   6.927
96069SOL     OW89980   3.467  14.769   3.746
96069SOL    HW189981   3.523  14.835   3.786
96069SOL    HW289982   3.380  14.787   3.782
96070SOL     OW89983  13.285   5.201   7.821
96070SOL    HW189984  13.227   5.188   7.896
96070SOL    HW289985  13.227   5.231   7.751
96071SOL     OW89986  14.559   8.061  14.035
96071SOL    HW189987  14.573   7.972  14.068
96071SOL    HW289988  14.464   8.071  14.034
96072SOL     OW89989  11.234   8.672   9.767
96072SOL    HW189990  11.252   8.685   9.674
96072SOL    HW289991  11.316   8.636   9.802
96073SOL     OW89992   8.671   5.746   6.875
96073SOL    HW189993   8.599   5.683   6.883
96073SOL    HW289994   8.713   5.745   6.961
96074SOL     OW89995  13.403   6.306  11.039
96074SOL    HW189996  13.314   6.281  11.017
96074SOL    HW289997  13.397   6.340  11.128
96075SOL     OW89998   2.790   2.179   7.396
96075SOL    HW189999   2.696   2.160   7.386
96075SOL    HW290000   2.821   2.112   7.456
96076SOL     OW90001   3.645   8.099   7.943
96076SOL    HW190002   3.728   8.116   7.986
96076SOL    HW290003   3.585   8.164   7.980
96077SOL     OW90004   2.796  12.089  10.970
96077SOL    HW190005   2.767  12.019  11.029
96077SOL    HW290006   2.746  12.075  10.890
96078SOL     OW90007   0.447   4.097   6.230
96078SOL    HW190008   0.504   4.030   6.191
96078SOL    HW290009   0.508   4.166   6.257
96079SOL     OW90010  13.930  13.743   0.341
96079SOL    HW190011  13.861  13.681   0.364
96079SOL    HW290012  13.892  13.829   0.359
96080SOL     OW90013   0.073   6.617   3.786
96080SOL    HW190014   0.004   6.649   3.728
96080SOL    HW290015   0.077   6.523   3.769
96081SOL     OW90016   8.346   0.658   2.408
96081SOL    HW190017   8.385   0.711   2.478
96081SOL    HW290018   8.420   0.638   2.350
96082SOL     OW90019   7.195  11.886  11.711
96082SOL    HW190020   7.263  11.929  11.659
96082SOL    HW290021   7.236  11.805  11.742
96083SOL     OW90022  14.330  10.977   4.540
96083SOL    HW190023  14.344  10.959   4.633
96083SOL    HW290024  14.335  11.073   4.533
96084SOL     OW90025   9.216   3.840   1.123
96084SOL    HW190026   9.285   3.778   1.098
96084SOL    HW290027   9.150   3.786   1.165
96085SOL     OW90028   5.682   8.598  14.438
96085SOL    HW190029   5.603   8.648  14.416
96085SOL    HW290030   5.649   8.516  14.475
96086SOL     OW90031  13.133   6.491   1.975
96086SOL    HW190032  13.117   6.575   2.018
96086SOL    HW290033  13.049   6.468   1.935
96087SOL     OW90034  10.438  12.645  10.706
96087SOL    HW190035  10.453  12.558  10.669
96087SOL    HW290036  10.344  12.658  10.699
96088SOL     OW90037   6.163   6.507   4.184
96088SOL    HW190038   6.237   6.476   4.237
96088SOL    HW290039   6.203   6.563   4.118
96089SOL     OW90040   5.294   6.813  14.786
96089SOL    HW190041   5.247   6.838  14.706
96089SOL    HW290042   5.334   6.895  14.816
96090SOL     OW90043   7.976   4.910   3.981
96090SOL    HW190044   8.050   4.926   4.039
96090SOL    HW290045   8.014   4.906   3.893
96091SOL     OW90046   9.646   0.598   7.217
96091SOL    HW190047   9.596   0.658   7.273
96091SOL    HW290048   9.645   0.639   7.131
96092SOL     OW90049   2.890   7.240   8.532
96092SOL    HW190050   2.813   7.267   8.482
96092SOL    HW290051   2.900   7.308   8.599
96093SOL     OW90052   4.509   0.738   1.658
96093SOL    HW190053   4.515   0.710   1.567
96093SOL    HW290054   4.444   0.681   1.697
96094SOL     OW90055   9.788   8.332   8.563
96094SOL    HW190056   9.754   8.269   8.500
96094SOL    HW290057   9.739   8.316   8.643
96095SOL     OW90058   5.855  13.211   8.554
96095SOL    HW190059   5.822  13.136   8.505
96095SOL    HW290060   5.885  13.174   8.637
96096SOL     OW90061   4.265   8.377   3.856
96096SOL    HW190062   4.220   8.298   3.825
96096SOL    HW290063   4.194   8.436   3.882
96097SOL     OW90064   0.326   6.510   8.108
96097SOL    HW190065   0.314   6.599   8.075
96097SOL    HW290066   0.266   6.456   8.056
96098SOL     OW90067   6.585   8.136   7.304
96098SOL    HW190068   6.671   8.093   7.304
96098SOL    HW290069   6.604   8.227   7.281
96099SOL     OW90070  14.179   6.316   0.422
96099SOL    HW190071  14.117   6.329   0.351
96099SOL    HW290072  14.125   6.316   0.501
96100SOL     OW90073   1.668   8.024  11.700
96100SOL    HW190074   1.749   8.068  11.675
96100SOL    HW290075   1.611   8.031  11.624
96101SOL     OW90076   5.547  11.831   2.854
96101SOL    HW190077   5.560  11.739   2.829
96101SOL    HW290078   5.482  11.829   2.924
96102SOL     OW90079   8.067   4.822   7.179
96102SOL    HW190080   8.044   4.746   7.126
96102SOL    HW290081   8.154   4.803   7.212
96103SOL     OW90082   3.238   3.687   2.114
96103SOL    HW190083   3.220   3.780   2.100
96103SOL    HW290084   3.196   3.644   2.039
96104SOL     OW90085   8.116   7.831   2.943
96104SOL    HW190086   8.192   7.812   2.998
96104SOL    HW290087   8.135   7.917   2.905
96105SOL     OW90088   6.435   8.165   2.181
96105SOL    HW190089   6.475   8.252   2.190
96105SOL    HW290090   6.395   8.148   2.266
96106SOL     OW90091   1.063   6.746  14.719
96106SOL    HW190092   1.074   6.788  14.633
96106SOL    HW290093   1.113   6.664  14.711
96107SOL     OW90094   3.106   8.459  11.141
96107SOL    HW190095   3.182   8.427  11.190
96107SOL    HW290096   3.103   8.553  11.160
96108SOL     OW90097   7.832  13.783  13.478
96108SOL    HW190098   7.857  13.823  13.395
96108SOL    HW290099   7.760  13.724  13.455
96109SOL     OW90100   5.331   0.773  14.754
96109SOL    HW190101   5.294   0.849  14.799
96109SOL    HW290102   5.302   0.698  14.805
96110SOL     OW90103   5.729  10.681   6.703
96110SOL    HW190104   5.749  10.662   6.612
96110SOL    HW290105   5.758  10.603   6.751
96111SOL     OW90106   1.325   0.361   8.677
96111SOL    HW190107   1.250   0.308   8.705
96111SOL    HW290108   1.294   0.409   8.601
96112SOL     OW90109   4.235   6.434   0.963
96112SOL    HW190110   4.275   6.404   1.045
96112SOL    HW290111   4.305   6.484   0.920
96113SOL     OW90112   4.958   4.192   2.007
96113SOL    HW190113   4.897   4.120   2.023
96113SOL    HW290114   4.964   4.237   2.091
96114SOL     OW90115   9.063  14.232  11.273
96114SOL    HW190116   8.991  14.282  11.234
96114SOL    HW290117   9.092  14.287  11.346
96115SOL     OW90118   9.009  12.785   4.877
96115SOL    HW190119   8.982  12.838   4.802
96115SOL    HW290120   8.973  12.832   4.953
96116SOL     OW90121   3.648   7.016  11.995
96116SOL    HW190122   3.611   7.039  11.910
96116SOL    HW290123   3.670   7.100  12.036
96117SOL     OW90124  12.017   2.649  10.032
96117SOL    HW190125  12.020   2.740  10.003
96117SOL    HW290126  11.969   2.603   9.963
96118SOL     OW90127   6.834  10.338   9.282
96118SOL    HW190128   6.878  10.267   9.234
96118SOL    HW290129   6.742  10.312   9.284
96119SOL     OW90130   5.699   3.881   7.683
96119SOL    HW190131   5.777   3.895   7.629
96119SOL    HW290132   5.632   3.937   7.644
96120SOL     OW90133  12.835  11.383  13.285
96120SOL    HW190134  12.819  11.455  13.225
96120SOL    HW290135  12.809  11.417  13.371
96121SOL     OW90136   7.852   5.460   4.730
96121SOL    HW190137   7.760   5.484   4.720
96121SOL    HW290138   7.850   5.372   4.768
96122SOL     OW90139   8.015  11.336  13.887
96122SOL    HW190140   8.108  11.341  13.910
96122SOL    HW290141   8.008  11.258  13.831
96123SOL     OW90142   8.498  13.331   8.733
96123SOL    HW190143   8.476  13.337   8.826
96123SOL    HW290144   8.590  13.356   8.728
96124SOL     OW90145  12.331   4.478  10.451
96124SOL    HW190146  12.243   4.515  10.456
96124SOL    HW290147  12.372   4.505  10.533
96125SOL     OW90148   5.161   6.314  11.179
96125SOL    HW190149   5.091   6.310  11.244
96125SOL    HW290150   5.150   6.233  11.128
96126SOL     OW90151  11.881   0.386  13.900
96126SOL    HW190152  11.805   0.375  13.957
96126SOL    HW290153  11.898   0.480  13.900
96127SOL     OW90154  13.542  12.903   2.814
96127SOL    HW190155  13.582  12.889   2.900
96127SOL    HW290156  13.586  12.842   2.756
96128SOL     OW90157   2.043  12.134   4.165
96128SOL    HW190158   2.087  12.203   4.115
96128SOL    HW290159   1.965  12.113   4.112
96129SOL     OW90160  12.984  11.312   2.096
96129SOL    HW190161  13.022  11.353   2.175
96129SOL    HW290162  13.006  11.373   2.025
96130SOL     OW90163   5.781  12.757   3.540
96130SOL    HW190164   5.723  12.827   3.512
96130SOL    HW290165   5.857  12.764   3.482
96131SOL     OW90166  11.809   0.878   4.358
96131SOL    HW190167  11.756   0.935   4.413
96131SOL    HW290168  11.884   0.933   4.332
96132SOL     OW90169   4.525   1.857   2.037
96132SOL    HW190170   4.535   1.769   2.071
96132SOL    HW290171   4.439   1.886   2.068
96133SOL     OW90172   2.450   5.573   9.174
96133SOL    HW190173   2.421   5.580   9.083
96133SOL    HW290174   2.520   5.508   9.171
96134SOL     OW90175   0.280   3.465  12.115
96134SOL    HW190176   0.198   3.488  12.072
96134SOL    HW290177   0.345   3.526  12.077
96135SOL     OW90178   6.828  11.319  14.529
96135SOL    HW190179   6.747  11.332  14.577
96135SOL    HW290180   6.869  11.406  14.526
96136SOL     OW90181  11.169   9.554  11.120
96136SOL    HW190182  11.143   9.631  11.171
96136SOL    HW290183  11.089   9.501  11.115
96137SOL     OW90184  13.384   4.983   7.464
96137SOL    HW190185  13.447   4.912   7.480
96137SOL    HW290186  13.429   5.062   7.494
96138SOL     OW90187  11.281  13.430   3.336
96138SOL    HW190188  11.242  13.514   3.360
96138SOL    HW290189  11.238  13.367   3.393
96139SOL     OW90190  11.729   8.575   6.249
96139SOL    HW190191  11.761   8.654   6.206
96139SOL    HW290192  11.638   8.566   6.218
96140SOL     OW90193   9.961  12.110  12.218
96140SOL    HW190194   9.885  12.118  12.276
96140SOL    HW290195  10.029  12.164  12.259
96141SOL     OW90196  13.687   3.992  11.770
96141SOL    HW190197  13.780   3.991  11.789
96141SOL    HW290198  13.647   3.939  11.839
96142SOL     OW90199   6.650   7.220   4.322
96142SOL    HW190200   6.587   7.230   4.393
96142SOL    HW290201   6.735   7.210   4.367
96143SOL     OW90202  11.631   4.540  12.276
96143SOL    HW190203  11.633   4.538  12.180
96143SOL    HW290204  11.625   4.633  12.298
96144SOL     OW90205   6.007   6.424   6.422
96144SOL    HW190206   6.097   6.445   6.447
96144SOL    HW290207   5.975   6.504   6.381
96145SOL     OW90208   4.550  12.765  13.279
96145SOL    HW190209   4.505  12.681  13.289
96145SOL    HW290210   4.551  12.781  13.185
96146SOL     OW90211   5.257   7.182  10.252
96146SOL    HW190212   5.296   7.173  10.164
96146SOL    HW290213   5.320   7.139  10.310
96147SOL     OW90214   4.260   2.748  10.906
96147SOL    HW190215   4.268   2.689  10.832
96147SOL    HW290216   4.240   2.833  10.868
96148SOL     OW90217   8.935   6.287   4.077
96148SOL    HW190218   9.025   6.305   4.105
96148SOL    HW290219   8.905   6.218   4.135
96149SOL     OW90220   4.488  11.748   9.135
96149SOL    HW190221   4.560  11.797   9.174
96149SOL    HW290222   4.417  11.811   9.126
96150SOL     OW90223  13.863   2.638   4.759
96150SOL    HW190224  13.800   2.592   4.815
96150SOL    HW290225  13.809   2.687   4.697
96151SOL     OW90226  12.902   5.694   2.424
96151SOL    HW190227  12.962   5.734   2.487
96151SOL    HW290228  12.953   5.687   2.343
96152SOL     OW90229  13.192   4.477   6.040
96152SOL    HW190230  13.116   4.517   5.998
96152SOL    HW290231  13.261   4.481   5.975
96153SOL     OW90232  14.100   7.666   2.784
96153SOL    HW190233  14.123   7.738   2.724
96153SOL    HW290234  14.135   7.588   2.741
96154SOL     OW90235   7.859  12.029   9.829
96154SOL    HW190236   7.830  11.937   9.828
96154SOL    HW290237   7.812  12.068   9.903
96155SOL     OW90238   0.759   8.456  14.442
96155SOL    HW190239   0.754   8.361  14.452
96155SOL    HW290240   0.805   8.469  14.359
96156SOL     OW90241   1.822   3.371  12.562
96156SOL    HW190242   1.854   3.461  12.558
96156SOL    HW290243   1.859   3.328  12.485
96157SOL     OW90244  13.430   2.249  13.023
96157SOL    HW190245  13.390   2.266  12.938
96157SOL    HW290246  13.518   2.288  13.017
96158SOL     OW90247   4.843   9.308  14.663
96158SOL    HW190248   4.937   9.324  14.661
96158SOL    HW290249   4.810   9.346  14.582
96159SOL     OW90250  10.615  13.263   3.880
96159SOL    HW190251  10.680  13.247   3.812
96159SOL    HW290252  10.559  13.332   3.844
96160SOL     OW90253   1.368   2.910   0.684
96160SOL    HW190254   1.383   2.818   0.705
96160SOL    HW290255   1.420   2.926   0.606
96161SOL     OW90256  11.362  11.602  14.590
96161SOL    HW190257  11.301  11.675  14.600
96161SOL    HW290258  11.449  11.642  14.596
96162SOL     OW90259   6.661  13.379   3.376
96162SOL    HW190260   6.708  13.363   3.458
96162SOL    HW290261   6.670  13.473   3.360
96163SOL     OW90262   7.911   1.064   5.970
96163SOL    HW190263   7.944   1.068   6.060
96163SOL    HW290264   7.990   1.067   5.916
96164SOL     OW90265   3.753   0.864   3.437
96164SOL    HW190266   3.823   0.810   3.401
96164SOL    HW290267   3.728   0.922   3.365
96165SOL     OW90268   8.291   5.892  13.552
96165SOL    HW190269   8.373   5.845  13.540
96165SOL    HW290270   8.314   5.984  13.538
96166SOL     OW90271   9.055   0.305  10.862
96166SOL    HW190272   9.020   0.369  10.800
96166SOL    HW290273   9.029   0.220  10.826
96167SOL     OW90274  14.853  10.071   8.963
96167SOL    HW190275  14.784  10.105   8.905
96167SOL    HW290276  14.875   9.985   8.926
96168SOL     OW90277  12.484   7.559  10.792
96168SOL    HW190278  12.525   7.534  10.875
96168SOL    HW290279  12.499   7.484  10.734
96169SOL     OW90280  10.697  13.048   6.994
96169SOL    HW190281  10.706  13.134   7.035
96169SOL    HW290282  10.633  13.002   7.049
96170SOL     OW90283   4.362   5.953   2.324
96170SOL    HW190284   4.336   6.016   2.256
96170SOL    HW290285   4.347   5.867   2.284
96171SOL     OW90286   7.736  11.930   7.194
96171SOL    HW190287   7.721  11.876   7.272
96171SOL    HW290288   7.651  11.931   7.149
96172SOL     OW90289  12.624   1.454  13.663
96172SOL    HW190290  12.682   1.530  13.671
96172SOL    HW290291  12.565   1.460  13.737
96173SOL     OW90292   9.484   6.628   0.893
96173SOL    HW190293   9.525   6.554   0.937
96173SOL    HW290294   9.420   6.660   0.956
96174SOL     OW90295  14.542   0.628  12.402
96174SOL    HW190296  14.479   0.700  12.396
96174SOL    HW290297  14.540   0.587  12.316
96175SOL     OW90298   8.597   7.054   5.127
96175SOL    HW190299   8.509   7.088   5.110
96175SOL    HW290300   8.648   7.084   5.051
96176SOL     OW90301  14.281   9.895   9.945
96176SOL    HW190302  14.220   9.970   9.946
96176SOL    HW290303  14.337   9.910  10.021
96177SOL     OW90304  13.288   0.872  12.150
96177SOL    HW190305  13.359   0.912  12.100
96177SOL    HW290306  13.252   0.805  12.093
96178SOL     OW90307   1.683   2.657   2.570
96178SOL    HW190308   1.713   2.725   2.630
96178SOL    HW290309   1.593   2.683   2.547
96179SOL     OW90310   3.276   6.713   3.411
96179SOL    HW190311   3.312   6.697   3.324
96179SOL    HW290312   3.249   6.805   3.409
96180SOL     OW90313   0.688  13.902   2.495
96180SOL    HW190314   0.727  13.983   2.463
96180SOL    HW290315   0.735  13.832   2.449
96181SOL     OW90316   2.605   0.609  11.573
96181SOL    HW190317   2.679   0.650  11.618
96181SOL    HW290318   2.607   0.518  11.601
96182SOL     OW90319   8.362   6.646   2.938
96182SOL    HW190320   8.395   6.718   2.884
96182SOL    HW290321   8.357   6.571   2.878
96183SOL     OW90322  14.200  11.727   4.173
96183SOL    HW190323  14.197  11.667   4.098
96183SOL    HW290324  14.222  11.672   4.247
96184SOL     OW90325   2.435   8.897   7.568
96184SOL    HW190326   2.470   8.979   7.535
96184SOL    HW290327   2.426   8.841   7.491
96185SOL     OW90328   1.373   5.951   7.503
96185SOL    HW190329   1.435   6.023   7.515
96185SOL    HW290330   1.287   5.992   7.499
96186SOL     OW90331  11.044   3.550   7.824
96186SOL    HW190332  11.019   3.554   7.732
96186SOL    HW290333  10.976   3.497   7.865
96187SOL     OW90334   1.848  11.453   8.155
96187SOL    HW190335   1.887  11.534   8.188
96187SOL    HW290336   1.922  11.405   8.118
96188SOL     OW90337   3.535   8.420  12.159
96188SOL    HW190338   3.565   8.418  12.250
96188SOL    HW290339   3.444   8.447  12.164
96189SOL     OW90340  10.483   7.053   7.801
96189SOL    HW190341  10.453   7.028   7.714
96189SOL    HW290342  10.410   7.100   7.840
96190SOL     OW90343  11.204   8.985  11.974
96190SOL    HW190344  11.232   9.032  11.895
96190SOL    HW290345  11.116   9.019  11.993
96191SOL     OW90346   7.237  14.027   1.530
96191SOL    HW190347   7.244  13.932   1.531
96191SOL    HW290348   7.292  14.056   1.602
96192SOL     OW90349  10.134   4.027  13.719
96192SOL    HW190350  10.169   3.939  13.715
96192SOL    HW290351  10.104   4.045  13.630
96193SOL     OW90352  11.131   4.198   2.043
96193SOL    HW190353  11.194   4.173   2.110
96193SOL    HW290354  11.052   4.150   2.065
96194SOL     OW90355  10.956   5.637   7.629
96194SOL    HW190356  11.013   5.642   7.706
96194SOL    HW290357  10.981   5.555   7.587
96195SOL     OW90358  13.071   5.939   8.436
96195SOL    HW190359  13.013   5.996   8.385
96195SOL    HW290360  13.023   5.921   8.516
96196SOL     OW90361  10.399  13.419   5.136
96196SOL    HW190362  10.426  13.375   5.055
96196SOL    HW290363  10.478  13.419   5.190
96197SOL     OW90364   5.513   8.936   1.025
96197SOL    HW190365   5.546   8.847   1.009
96197SOL    HW290366   5.418   8.926   1.029
96198SOL     OW90367   3.172   3.532  12.048
96198SOL    HW190368   3.229   3.608  12.062
96198SOL    HW290369   3.227   3.468  12.003
96199SOL     OW90370  10.226  13.357   6.175
96199SOL    HW190371  10.166  13.328   6.244
96199SOL    HW290372  10.309  13.314   6.197
96200SOL     OW90373  10.958   6.233  12.205
96200SOL    HW190374  10.891   6.246  12.138
96200SOL    HW290375  10.914   6.252  12.287
96201SOL     OW90376   7.760   1.831   6.421
96201SOL    HW190377   7.787   1.743   6.448
96201SOL    HW290378   7.822   1.855   6.352
96202SOL     OW90379  11.011   8.734   5.035
96202SOL    HW190380  10.924   8.703   5.060
96202SOL    HW290381  11.063   8.724   5.114
96203SOL     OW90382  14.198   0.561   9.208
96203SOL    HW190383  14.279   0.562   9.157
96203SOL    HW290384  14.226   0.583   9.297
96204SOL     OW90385  14.337   1.692   4.477
96204SOL    HW190386  14.369   1.779   4.501
96204SOL    HW290387  14.406   1.654   4.423
96205SOL     OW90388  10.288   1.901   9.460
96205SOL    HW190389  10.199   1.884   9.427
96205SOL    HW290390  10.282   1.986   9.502
96206SOL     OW90391  12.782   8.644   1.609
96206SOL    HW190392  12.876   8.629   1.605
96206SOL    HW290393  12.754   8.649   1.518
96207SOL     OW90394   5.788   1.864  11.896
96207SOL    HW190395   5.783   1.789  11.955
96207SOL    HW290396   5.881   1.887  11.894
96208SOL     OW90397   3.050   0.862   4.736
96208SOL    HW190398   3.094   0.833   4.656
96208SOL    HW290399   3.017   0.781   4.776
96209SOL     OW90400  11.271   7.073   0.515
96209SOL    HW190401  11.180   7.069   0.486
96209SOL    HW290402  11.281   7.000   0.576
96210SOL     OW90403   6.868   2.043   4.158
96210SOL    HW190404   6.900   2.113   4.215
96210SOL    HW290405   6.945   2.016   4.107
96211SOL     OW90406   5.574   5.197   7.111
96211SOL    HW190407   5.560   5.210   7.017
96211SOL    HW290408   5.558   5.283   7.150
96212SOL     OW90409   4.194   5.549   8.897
96212SOL    HW190410   4.104   5.529   8.872
96212SOL    HW290411   4.194   5.644   8.913
96213SOL     OW90412   5.440   7.584   6.830
96213SOL    HW190413   5.396   7.540   6.758
96213SOL    HW290414   5.524   7.538   6.839
96214SOL     OW90415   2.021   8.420   9.153
96214SOL    HW190416   2.021   8.515   9.142
96214SOL    HW290417   1.959   8.388   9.088
96215SOL     OW90418   3.164  11.397   3.667
96215SOL    HW190419   3.211  11.464   3.618
96215SOL    HW290420   3.164  11.428   3.757
96216SOL     OW90421  11.169   8.454  11.018
96216SOL    HW190422  11.204   8.541  10.998
96216SOL    HW290423  11.140   8.460  11.109
96217SOL     OW90424  12.517  10.596   1.056
96217SOL    HW190425  12.463  10.675   1.056
96217SOL    HW290426  12.588  10.616   0.995
96218SOL     OW90427   0.283  11.472   1.462
96218SOL    HW190428   0.283  11.378   1.479
96218SOL    HW290429   0.318  11.481   1.374
96219SOL     OW90430  14.455  13.840  12.335
96219SOL    HW190431  14.403  13.776  12.287
96219SOL    HW290432  14.544  13.828  12.304
96220SOL     OW90433  13.110   7.781   2.110
96220SOL    HW190434  13.198   7.806   2.138
96220SOL    HW290435  13.095   7.830   2.029
96221SOL     OW90436   8.725   1.511   9.941
96221SOL    HW190437   8.691   1.425   9.966
96221SOL    HW290438   8.795   1.528  10.005
96222SOL     OW90439   2.682   3.288   8.768
96222SOL    HW190440   2.658   3.241   8.847
96222SOL    HW290441   2.727   3.366   8.799
96223SOL     OW90442   1.658   5.385   7.663
96223SOL    HW190443   1.690   5.315   7.606
96223SOL    HW290444   1.737   5.421   7.704
96224SOL     OW90445   0.272   5.796   5.958
96224SOL    HW190446   0.220   5.785   6.037
96224SOL    HW290447   0.350   5.742   5.972
96225SOL     OW90448  12.350   7.663   7.187
96225SOL    HW190449  12.333   7.652   7.281
96225SOL    HW290450  12.429   7.717   7.183
96226SOL     OW90451  10.702  12.260  11.485
96226SOL    HW190452  10.636  12.200  11.520
96226SOL    HW290453  10.757  12.205  11.430
96227SOL     OW90454   4.584  11.731   5.750
96227SOL    HW190455   4.544  11.764   5.670
96227SOL    HW290456   4.512  11.723   5.812
96228SOL     OW90457  14.182   7.724  11.011
96228SOL    HW190458  14.160   7.647  10.958
96228SOL    HW290459  14.099   7.769  11.023
96229SOL     OW90460   0.144  13.348   5.801
96229SOL    HW190461   0.072  13.391   5.754
96229SOL    HW290462   0.112  13.340   5.891
96230SOL     OW90463  13.668   4.005   5.250
96230SOL    HW190464  13.646   4.076   5.190
96230SOL    HW290465  13.605   4.014   5.322
96231SOL     OW90466   5.284   0.749   1.700
96231SOL    HW190467   5.265   0.818   1.764
96231SOL    HW290468   5.207   0.692   1.702
96232SOL     OW90469  12.723   3.495   5.616
96232SOL    HW190470  12.763   3.425   5.667
96232SOL    HW290471  12.643   3.516   5.663
96233SOL     OW90472  10.238  11.300  12.600
96233SOL    HW190473  10.160  11.260  12.562
96233SOL    HW290474  10.246  11.261  12.686
96234SOL     OW90475   2.565   4.049  14.034
96234SOL    HW190476   2.640   3.995  14.008
96234SOL    HW290477   2.579   4.132  13.988
96235SOL     OW90478   9.045  14.588   7.138
96235SOL    HW190479   9.040  14.682   7.119
96235SOL    HW290480   8.964  14.552   7.102
96236SOL     OW90481  13.149  12.518  11.520
96236SOL    HW190482  13.123  12.433  11.558
96236SOL    HW290483  13.124  12.511  11.428
96237SOL     OW90484   7.727  11.006   3.084
96237SOL    HW190485   7.808  11.012   3.034
96237SOL    HW290486   7.667  10.960   3.026
96238SOL     OW90487   5.081  13.007   3.969
96238SOL    HW190488   5.128  13.070   3.914
96238SOL    HW290489   5.041  12.946   3.907
96239SOL     OW90490   5.501  10.684   0.198
96239SOL    HW190491   5.497  10.604   0.250
96239SOL    HW290492   5.433  10.673   0.132
96240SOL     OW90493   1.615  12.774  14.848
96240SOL    HW190494   1.628  12.868  14.836
96240SOL    HW290495   1.639  12.736  14.763
96241SOL     OW90496   7.082   1.564  14.476
96241SOL    HW190497   7.064   1.601  14.563
96241SOL    HW290498   7.090   1.470  14.492
96242SOL     OW90499  11.539  13.759   5.803
96242SOL    HW190500  11.539  13.780   5.709
96242SOL    HW290501  11.625  13.785   5.834
96243SOL     OW90502  14.629  14.287   5.193
96243SOL    HW190503  14.593  14.240   5.268
96243SOL    HW290504  14.571  14.266   5.120
96244SOL     OW90505   2.514   4.621   1.806
96244SOL    HW190506   2.498   4.583   1.719
96244SOL    HW290507   2.516   4.546   1.865
96245SOL     OW90508   1.087  10.202   8.454
96245SOL    HW190509   1.115  10.289   8.426
96245SOL    HW290510   1.055  10.160   8.375
96246SOL     OW90511   2.766   2.789   6.909
96246SOL    HW190512   2.813   2.864   6.944
96246SOL    HW290513   2.689   2.780   6.966
96247SOL     OW90514   1.120   4.072   2.794
96247SOL    HW190515   1.030   4.064   2.764
96247SOL    HW290516   1.124   4.158   2.835
96248SOL     OW90517  13.721   6.869   9.967
96248SOL    HW190518  13.742   6.851   9.875
96248SOL    HW290519  13.651   6.807   9.988
96249SOL     OW90520   1.938   9.693   3.464
96249SOL    HW190521   1.951   9.719   3.555
96249SOL    HW290522   1.951   9.598   3.465
96250SOL     OW90523  12.676   3.298   5.067
96250SOL    HW190524  12.768   3.298   5.043
96250SOL    HW290525  12.644   3.385   5.043
96251SOL     OW90526  12.564  13.207   2.479
96251SOL    HW190527  12.586  13.286   2.527
96251SOL    HW290528  12.568  13.232   2.387
96252SOL     OW90529  12.011   2.757   9.300
96252SOL    HW190530  12.084   2.695   9.300
96252SOL    HW290531  11.989   2.769   9.393
96253SOL     OW90532  13.790   1.946   1.854
96253SOL    HW190533  13.727   1.887   1.897
96253SOL    HW290534  13.783   1.924   1.761
96254SOL     OW90535   3.202   4.962   6.110
96254SOL    HW190536   3.119   4.940   6.069
96254SOL    HW290537   3.179   4.983   6.201
96255SOL     OW90538   5.720  11.750   6.224
96255SOL    HW190539   5.692  11.750   6.133
96255SOL    HW290540   5.645  11.715   6.272
96256SOL     OW90541   3.641  11.432   2.631
96256SOL    HW190542   3.634  11.487   2.553
96256SOL    HW290543   3.591  11.354   2.610
96257SOL     OW90544   6.357   7.732  14.202
96257SOL    HW190545   6.397   7.669  14.262
96257SOL    HW290546   6.359   7.815  14.250
96258SOL     OW90547   1.713   6.666   3.371
96258SOL    HW190548   1.622   6.663   3.342
96258SOL    HW290549   1.711   6.629   3.460
96259SOL     OW90550   5.243  12.180   9.191
96259SOL    HW190551   5.172  12.153   9.248
96259SOL    HW290552   5.308  12.218   9.250
96260SOL     OW90553  10.420   3.859   3.554
96260SOL    HW190554  10.363   3.931   3.580
96260SOL    HW290555  10.373   3.814   3.484
96261SOL     OW90556   7.284   4.556   8.527
96261SOL    HW190557   7.248   4.476   8.565
96261SOL    HW290558   7.376   4.557   8.556
96262SOL     OW90559  13.301   6.914   9.134
96262SOL    HW190560  13.209   6.891   9.142
96262SOL    HW290561  13.347   6.846   9.183
96263SOL     OW90562   3.219   1.251   6.393
96263SOL    HW190563   3.242   1.343   6.405
96263SOL    HW290564   3.228   1.213   6.481
96264SOL     OW90565   5.423   1.644  11.618
96264SOL    HW190566   5.485   1.717  11.625
96264SOL    HW290567   5.343   1.684  11.585
96265SOL     OW90568   1.744  10.422  10.885
96265SOL    HW190569   1.650  10.407  10.879
96265SOL    HW290570   1.763  10.426  10.978
96266SOL     OW90571   4.244   3.480   5.034
96266SOL    HW190572   4.192   3.541   4.983
96266SOL    HW290573   4.320   3.530   5.063
96267SOL     OW90574   3.659   8.106   9.694
96267SOL    HW190575   3.697   8.066   9.616
96267SOL    HW290576   3.734   8.139   9.744
96268SOL     OW90577   9.463  12.714  14.453
96268SOL    HW190578   9.496  12.670  14.531
96268SOL    HW290579   9.457  12.806  14.478
96269SOL     OW90580   4.179   4.210  10.460
96269SOL    HW190581   4.114   4.274  10.488
96269SOL    HW290582   4.157   4.191  10.369
96270SOL     OW90583  12.263  13.799   4.071
96270SOL    HW190584  12.213  13.806   3.989
96270SOL    HW290585  12.325  13.728   4.055
96271SOL     OW90586   9.433   4.263   1.815
96271SOL    HW190587   9.343   4.288   1.797
96271SOL    HW290588   9.481   4.284   1.735
96272SOL     OW90589  14.717   3.260   5.163
96272SOL    HW190590  14.775   3.301   5.227
96272SOL    HW290591  14.774   3.237   5.090
96273SOL     OW90592   7.901   3.673   4.577
96273SOL    HW190593   7.924   3.703   4.489
96273SOL    HW290594   7.953   3.594   4.590
96274SOL     OW90595  10.624   3.330   1.071
96274SOL    HW190596  10.642   3.400   1.134
96274SOL    HW290597  10.681   3.258   1.097
96275SOL     OW90598   7.447   9.914  10.107
96275SOL    HW190599   7.412   9.842  10.160
96275SOL    HW290600   7.369   9.956  10.070
96276SOL     OW90601  13.408   8.765  11.316
96276SOL    HW190602  13.465   8.689  11.325
96276SOL    HW290603  13.432   8.822  11.390
96277SOL     OW90604   3.078  14.814   0.758
96277SOL    HW190605   3.141  14.858   0.816
96277SOL    HW290606   3.086  14.860   0.674
96278SOL     OW90607   0.468   8.789  13.530
96278SOL    HW190608   0.408   8.857  13.500
96278SOL    HW290609   0.526   8.833  13.591
96279SOL     OW90610  12.138  13.287  13.786
96279SOL    HW190611  12.115  13.206  13.832
96279SOL    HW290612  12.196  13.333  13.847
96280SOL     OW90613   8.301  14.361   5.479
96280SOL    HW190614   8.374  14.332   5.533
96280SOL    HW290615   8.309  14.456   5.477
96281SOL     OW90616  14.273   5.905   3.430
96281SOL    HW190617  14.236   5.951   3.505
96281SOL    HW290618  14.196   5.870   3.384
96282SOL     OW90619   7.759   4.113  10.023
96282SOL    HW190620   7.684   4.137  10.078
96282SOL    HW290621   7.739   4.025   9.991
96283SOL     OW90622  11.325   7.634  10.923
96283SOL    HW190623  11.285   7.585  10.850
96283SOL    HW290624  11.302   7.725  10.906
96284SOL     OW90625  10.510  14.839   6.873
96284SOL    HW190626  10.512   0.042   6.925
96284SOL    HW290627  10.419  14.811   6.877
96285SOL     OW90628   4.229   1.947  10.742
96285SOL    HW190629   4.200   2.037  10.757
96285SOL    HW290630   4.252   1.915  10.829
96286SOL     OW90631  10.351   0.063   2.078
96286SOL    HW190632  10.300   0.053   1.998
96286SOL    HW290633  10.407   0.139   2.062
96287SOL     OW90634   2.288   9.942   7.008
96287SOL    HW190635   2.352  10.010   7.030
96287SOL    HW290636   2.335   9.860   7.019
96288SOL     OW90637   6.055  12.990   3.540
96288SOL    HW190638   6.025  12.928   3.474
96288SOL    HW290639   6.018  13.074   3.513
96289SOL     OW90640   3.622  11.130  10.588
96289SOL    HW190641   3.667  11.200  10.635
96289SOL    HW290642   3.611  11.164  10.499
96290SOL     OW90643  10.564   7.131   5.147
96290SOL    HW190644  10.567   7.226   5.160
96290SOL    HW290645  10.631   7.114   5.081
96291SOL     OW90646  14.750   4.892  11.366
96291SOL    HW190647  14.698   4.846  11.432
96291SOL    HW290648  14.837   4.899  11.405
96292SOL     OW90649   1.345   2.805   7.113
96292SOL    HW190650   1.354   2.780   7.205
96292SOL    HW290651   1.386   2.891   7.107
96293SOL     OW90652   7.148  13.191   9.526
96293SOL    HW190653   7.228  13.239   9.504
96293SOL    HW290654   7.165  13.153   9.612
96294SOL     OW90655   1.076   3.517   3.051
96294SOL    HW190656   1.113   3.429   3.058
96294SOL    HW290657   1.046   3.523   2.961
96295SOL     OW90658   1.987   1.815   3.115
96295SOL    HW190659   2.080   1.800   3.099
96295SOL    HW290660   1.943   1.742   3.072
96296SOL     OW90661  12.255   6.559  12.332
96296SOL    HW190662  12.310   6.531  12.406
96296SOL    HW290663  12.268   6.492  12.266
96297SOL     OW90664   3.582   0.017   6.699
96297SOL    HW190665   3.529   0.071   6.758
96297SOL    HW290666   3.556  14.805   6.718
96298SOL     OW90667   2.451   6.916   1.684
96298SOL    HW190668   2.365   6.942   1.654
96298SOL    HW290669   2.491   6.996   1.718
96299SOL     OW90670   2.531   7.223  12.365
96299SOL    HW190671   2.543   7.137  12.407
96299SOL    HW290672   2.596   7.279  12.407
96300SOL     OW90673  10.362  11.141   8.101
96300SOL    HW190674  10.354  11.235   8.084
96300SOL    HW290675  10.448  11.131   8.141
96301SOL     OW90676  14.624   9.453  14.149
96301SOL    HW190677  14.538   9.442  14.109
96301SOL    HW290678  14.638   9.373  14.199
96302SOL     OW90679   5.173   9.130   3.699
96302SOL    HW190680   5.087   9.116   3.657
96302SOL    HW290681   5.169   9.078   3.779
96303SOL     OW90682   7.028   3.143   4.898
96303SOL    HW190683   6.999   3.054   4.875
96303SOL    HW290684   7.091   3.166   4.830
96304SOL     OW90685   5.926  10.138   9.038
96304SOL    HW190686   5.883  10.068   8.989
96304SOL    HW290687   6.011  10.150   8.995
96305SOL     OW90688  13.742  10.475   5.897
96305SOL    HW190689  13.813  10.430   5.853
96305SOL    HW290690  13.778  10.499   5.983
96306SOL     OW90691  13.396   4.030   6.807
96306SOL    HW190692  13.455   3.987   6.869
96306SOL    HW290693  13.309   4.014   6.842
96307SOL     OW90694   3.100   8.644   9.564
96307SOL    HW190695   3.011   8.629   9.532
96307SOL    HW290696   3.115   8.570   9.624
96308SOL     OW90697  12.720  10.777  14.236
96308SOL    HW190698  12.699  10.758  14.327
96308SOL    HW290699  12.655  10.729  14.185
96309SOL     OW90700   9.803   7.643  14.739
96309SOL    HW190701   9.747   7.607  14.808
96309SOL    HW290702   9.874   7.580  14.730
96310SOL     OW90703   6.409  10.349   4.443
96310SOL    HW190704   6.412  10.371   4.350
96310SOL    HW290705   6.457  10.421   4.486
96311SOL     OW90706   8.831  13.525  14.774
96311SOL    HW190707   8.871  13.610  14.796
96311SOL    HW290708   8.859  13.467  14.844
96312SOL     OW90709   0.802  12.782  11.920
96312SOL    HW190710   0.721  12.742  11.950
96312SOL    HW290711   0.800  12.771  11.825
96313SOL     OW90712  12.315   7.563   4.074
96313SOL    HW190713  12.238   7.590   4.124
96313SOL    HW290714  12.283   7.495   4.015
96314SOL     OW90715   8.391   6.695   9.548
96314SOL    HW190716   8.452   6.670   9.616
96314SOL    HW290717   8.436   6.674   9.466
96315SOL     OW90718   1.075   9.163   5.734
96315SOL    HW190719   1.033   9.231   5.682
96315SOL    HW290720   1.014   9.147   5.807
96316SOL     OW90721   2.200   2.247   8.647
96316SOL    HW190722   2.107   2.241   8.629
96316SOL    HW290723   2.233   2.306   8.578
96317SOL     OW90724   9.121   6.146   3.344
96317SOL    HW190725   9.123   6.062   3.390
96317SOL    HW290726   9.047   6.139   3.284
96318SOL     OW90727   4.892  13.068   2.726
96318SOL    HW190728   4.890  13.133   2.796
96318SOL    HW290729   4.889  12.984   2.772
96319SOL     OW90730   5.123   1.445   3.703
96319SOL    HW190731   5.177   1.374   3.668
96319SOL    HW290732   5.090   1.491   3.626
96320SOL     OW90733   2.335  10.563   9.223
96320SOL    HW190734   2.348  10.588   9.131
96320SOL    HW290735   2.240  10.549   9.230
96321SOL     OW90736   0.725   7.082   2.138
96321SOL    HW190737   0.695   7.146   2.074
96321SOL    HW290738   0.693   7.117   2.222
96322SOL     OW90739  13.817  12.255   6.830
96322SOL    HW190740  13.901  12.251   6.875
96322SOL    HW290741  13.810  12.346   6.801
96323SOL     OW90742  10.294  12.882   8.308
96323SOL    HW190743  10.300  12.854   8.400
96323SOL    HW290744  10.281  12.976   8.313
96324SOL     OW90745  10.822   9.269   0.446
96324SOL    HW190746  10.799   9.234   0.533
96324SOL    HW290747  10.857   9.193   0.399
96325SOL     OW90748   9.960   2.854   6.863
96325SOL    HW190749   9.887   2.801   6.895
96325SOL    HW290750  10.015   2.869   6.940
96326SOL     OW90751   4.781   7.576   6.695
96326SOL    HW190752   4.722   7.577   6.620
96326SOL    HW290753   4.834   7.496   6.684
96327SOL     OW90754   3.883  13.804   5.127
96327SOL    HW190755   3.879  13.762   5.041
96327SOL    HW290756   3.879  13.731   5.190
96328SOL     OW90757   9.954   0.569  14.447
96328SOL    HW190758   9.879   0.579  14.504
96328SOL    HW290759  10.010   0.505  14.491
96329SOL     OW90760  13.371   4.450   5.162
96329SOL    HW190761  13.288   4.427   5.121
96329SOL    HW290762  13.348   4.476   5.251
96330SOL     OW90763  14.059   9.975   4.959
96330SOL    HW190764  13.989   9.924   4.919
96330SOL    HW290765  14.134   9.963   4.900
96331SOL     OW90766  13.856   3.483   5.478
96331SOL    HW190767  13.789   3.533   5.431
96331SOL    HW290768  13.831   3.391   5.466
96332SOL     OW90769  14.349   1.405   1.808
96332SOL    HW190770  14.397   1.323   1.805
96332SOL    HW290771  14.359   1.442   1.720
96333SOL     OW90772  14.363   5.481   1.444
96333SOL    HW190773  14.442   5.477   1.390
96333SOL    HW290774  14.359   5.395   1.487
96334SOL     OW90775   8.026  12.876   3.382
96334SOL    HW190776   7.968  12.899   3.309
96334SOL    HW290777   8.012  12.783   3.395
96335SOL     OW90778  14.242   6.795   0.113
96335SOL    HW190779  14.168   6.753   0.069
96335SOL    HW290780  14.311   6.730   0.111
96336SOL     OW90781  14.070   4.305  13.484
96336SOL    HW190782  13.997   4.367  13.489
96336SOL    HW290783  14.117   4.331  13.404
96337SOL     OW90784   4.153  11.897  12.273
96337SOL    HW190785   4.198  11.816  12.248
96337SOL    HW290786   4.109  11.925  12.193
96338SOL     OW90787   7.232   3.784   6.620
96338SOL    HW190788   7.230   3.742   6.534
96338SOL    HW290789   7.200   3.716   6.680
96339SOL     OW90790  14.683   7.816  13.003
96339SOL    HW190791  14.773   7.785  12.989
96339SOL    HW290792  14.661   7.786  13.091
96340SOL     OW90793   7.184   1.869   4.056
96340SOL    HW190794   7.265   1.880   4.106
96340SOL    HW290795   7.211   1.881   3.965
96341SOL     OW90796  13.425   9.403  14.361
96341SOL    HW190797  13.333   9.401  14.387
96341SOL    HW290798  13.459   9.317  14.385
96342SOL     OW90799  14.112   5.622   1.399
96342SOL    HW190800  14.207   5.627   1.404
96342SOL    HW290801  14.095   5.548   1.340
96343SOL     OW90802   3.272   7.364   9.771
96343SOL    HW190803   3.366   7.348   9.769
96343SOL    HW290804   3.264   7.458   9.788
96344SOL     OW90805   9.765   3.436   3.069
96344SOL    HW190806   9.710   3.404   2.998
96344SOL    HW290807   9.854   3.410   3.045
96345SOL     OW90808   1.110   6.860   7.991
96345SOL    HW190809   1.021   6.882   8.020
96345SOL    HW290810   1.103   6.854   7.896
96346SOL     OW90811  14.371   1.242   0.973
96346SOL    HW190812  14.337   1.269   0.888
96346SOL    HW290813  14.431   1.171   0.953
96347SOL     OW90814   9.717   7.637   4.171
96347SOL    HW190815   9.634   7.644   4.123
96347SOL    HW290816   9.784   7.661   4.108
96348SOL     OW90817   1.274   4.355   2.661
96348SOL    HW190818   1.319   4.279   2.696
96348SOL    HW290819   1.334   4.428   2.676
96349SOL     OW90820  14.178   7.808   7.486
96349SOL    HW190821  14.121   7.877   7.520
96349SOL    HW290822  14.255   7.810   7.543
96350SOL     OW90823  10.646  10.934  10.920
96350SOL    HW190824  10.561  10.972  10.941
96350SOL    HW290825  10.654  10.947  10.825
96351SOL     OW90826  12.498   8.152  12.241
96351SOL    HW190827  12.558   8.219  12.271
96351SOL    HW290828  12.467   8.109  12.320
96352SOL     OW90829   7.444   5.546  11.503
96352SOL    HW190830   7.407   5.538  11.415
96352SOL    HW290831   7.535   5.517  11.495
96353SOL     OW90832   5.340   6.518   5.835
96353SOL    HW190833   5.335   6.531   5.930
96353SOL    HW290834   5.350   6.423   5.825
96354SOL     OW90835   9.790   3.506   5.836
96354SOL    HW190836   9.731   3.544   5.901
96354SOL    HW290837   9.878   3.519   5.872
96355SOL     OW90838   0.032   0.287  14.288
96355SOL    HW190839   0.010   0.299  14.380
96355SOL    HW290840  14.862   0.209  14.261
96356SOL     OW90841   3.912   6.542  13.421
96356SOL    HW190842   3.874   6.551  13.334
96356SOL    HW290843   3.851   6.485  13.468
96357SOL     OW90844  12.092   5.392   6.444
96357SOL    HW190845  12.145   5.380   6.523
96357SOL    HW290846  12.002   5.399   6.477
96358SOL     OW90847   5.431  10.963   5.714
96358SOL    HW190848   5.500  10.925   5.769
96358SOL    HW290849   5.430  11.056   5.738
96359SOL     OW90850   8.455   4.967  10.032
96359SOL    HW190851   8.386   4.932   9.975
96359SOL    HW290852   8.471   4.897  10.096
96360SOL     OW90853   7.681   8.378  11.267
96360SOL    HW190854   7.587   8.384  11.251
96360SOL    HW290855   7.688   8.348  11.358
96361SOL     OW90856   6.333   0.214   0.379
96361SOL    HW190857   6.368   0.279   0.318
96361SOL    HW290858   6.351   0.129   0.337
96362SOL     OW90859   7.426   2.336  12.081
96362SOL    HW190860   7.341   2.319  12.123
96362SOL    HW290861   7.456   2.250  12.052
96363SOL     OW90862   0.162   6.311   8.003
96363SOL    HW190863   0.240   6.259   7.986
96363SOL    HW290864   0.090   6.248   8.001
96364SOL     OW90865  10.556   9.710   9.686
96364SOL    HW190866  10.482   9.692   9.630
96364SOL    HW290867  10.558   9.637   9.748
96365SOL     OW90868   0.836   5.570   7.367
96365SOL    HW190869   0.815   5.477   7.365
96365SOL    HW290870   0.828   5.594   7.459
96366SOL     OW90871   4.559   8.758  11.755
96366SOL    HW190872   4.642   8.782  11.715
96366SOL    HW290873   4.510   8.840  11.761
96367SOL     OW90874   8.236  14.647   1.835
96367SOL    HW190875   8.158  14.594   1.854
96367SOL    HW290876   8.231  14.720   1.897
96368SOL     OW90877   3.139  12.800  11.356
96368SOL    HW190878   3.193  12.827  11.430
96368SOL    HW290879   3.116  12.882  11.312
96369SOL     OW90880  10.789  13.509   2.617
96369SOL    HW190881  10.788  13.586   2.560
96369SOL    HW290882  10.715  13.456   2.587
96370SOL     OW90883   8.471   0.309   8.582
96370SOL    HW190884   8.548   0.353   8.547
96370SOL    HW290885   8.469   0.333   8.675
96371SOL     OW90886   9.705   1.211   6.219
96371SOL    HW190887   9.659   1.281   6.173
96371SOL    HW290888   9.670   1.130   6.182
96372SOL     OW90889   7.547  10.933   7.733
96372SOL    HW190890   7.479  10.875   7.700
96372SOL    HW290891   7.611  10.938   7.662
96373SOL     OW90892   5.572   7.933   0.354
96373SOL    HW190893   5.602   7.910   0.442
96373SOL    HW290894   5.653   7.950   0.305
96374SOL     OW90895   6.972   1.407   7.433
96374SOL    HW190896   6.897   1.455   7.468
96374SOL    HW290897   7.015   1.468   7.373
96375SOL     OW90898   4.163  12.738   3.115
96375SOL    HW190899   4.248  12.694   3.115
96375SOL    HW290900   4.101  12.669   3.091
96376SOL     OW90901   1.511  11.536   1.350
96376SOL    HW190902   1.537  11.486   1.272
96376SOL    HW290903   1.429  11.495   1.378
96377SOL     OW90904   8.089   7.212   6.599
96377SOL    HW190905   8.052   7.201   6.687
96377SOL    HW290906   8.057   7.297   6.570
96378SOL     OW90907   6.369   4.805   0.529
96378SOL    HW190908   6.287   4.833   0.488
96378SOL    HW290909   6.401   4.884   0.574
96379SOL     OW90910  11.681   6.544   9.965
96379SOL    HW190911  11.708   6.525  10.054
96379SOL    HW290912  11.589   6.570   9.973
96380SOL     OW90913   5.850  11.291   5.105
96380SOL    HW190914   5.889  11.204   5.093
96380SOL    HW290915   5.913  11.338   5.160
96381SOL     OW90916   3.899  12.548  11.573
96381SOL    HW190917   3.923  12.496  11.496
96381SOL    HW290918   3.837  12.613  11.540
96382SOL     OW90919  12.968   3.171   4.073
96382SOL    HW190920  13.033   3.116   4.118
96382SOL    HW290921  12.973   3.143   3.981
96383SOL     OW90922  13.736   3.282   6.579
96383SOL    HW190923  13.750   3.367   6.621
96383SOL    HW290924  13.804   3.277   6.512
96384SOL     OW90925  12.836   5.315   0.120
96384SOL    HW190926  12.805   5.405   0.132
96384SOL    HW290927  12.830   5.299   0.026
96385SOL     OW90928   6.402   7.907  11.105
96385SOL    HW190929   6.343   7.973  11.143
96385SOL    HW290930   6.410   7.933  11.013
96386SOL     OW90931  13.100  13.634   3.147
96386SOL    HW190932  13.032  13.670   3.090
96386SOL    HW290933  13.148  13.573   3.092
96387SOL     OW90934  14.465   7.593   4.275
96387SOL    HW190935  14.402   7.664   4.282
96387SOL    HW290936  14.550   7.633   4.293
96388SOL     OW90937   6.084   8.665   7.730
96388SOL    HW190938   6.178   8.648   7.717
96388SOL    HW290939   6.054   8.590   7.782
96389SOL     OW90940   3.191   0.809   1.571
96389SOL    HW190941   3.106   0.844   1.596
96389SOL    HW290942   3.250   0.837   1.641
96390SOL     OW90943   3.968   4.443   2.906
96390SOL    HW190944   3.960   4.382   2.833
96390SOL    HW290945   3.881   4.444   2.947
96391SOL     OW90946   3.106   7.658   4.490
96391SOL    HW190947   3.199   7.679   4.494
96391SOL    HW290948   3.067   7.708   4.562
96392SOL     OW90949   8.620   0.427   9.309
96392SOL    HW190950   8.590   0.417   9.399
96392SOL    HW290951   8.579   0.507   9.279
96393SOL     OW90952  13.934   4.580  13.437
96393SOL    HW190953  14.007   4.623  13.392
96393SOL    HW290954  13.954   4.589  13.530
96394SOL     OW90955   3.641   6.099   6.028
96394SOL    HW190956   3.619   6.015   6.068
96394SOL    HW290957   3.640   6.083   5.934
96395SOL     OW90958  13.133  13.327   4.389
96395SOL    HW190959  13.065  13.390   4.409
96395SOL    HW290960  13.114  13.296   4.301
96396SOL     OW90961   7.080   0.710   7.530
96396SOL    HW190962   7.147   0.647   7.555
96396SOL    HW290963   7.050   0.681   7.444
96397SOL     OW90964  13.761   9.793  10.112
96397SOL    HW190965  13.801   9.758  10.032
96397SOL    HW290966  13.786   9.730  10.180
96398SOL     OW90967   0.200   9.275   5.776
96398SOL    HW190968   0.280   9.276   5.723
96398SOL    HW290969   0.152   9.198   5.746
96399SOL     OW90970   5.504   0.064   6.667
96399SOL    HW190971   5.590   0.027   6.687
96399SOL    HW290972   5.443  14.871   6.687
96400SOL     OW90973   3.697   8.991   2.595
96400SOL    HW190974   3.611   8.948   2.597
96400SOL    HW290975   3.725   8.984   2.504
96401SOL     OW90976   2.056  13.680  14.021
96401SOL    HW190977   1.999  13.645  13.952
96401SOL    HW290978   2.137  13.631  14.012
96402SOL     OW90979   2.034  12.569   1.414
96402SOL    HW190980   2.026  12.602   1.325
96402SOL    HW290981   2.123  12.593   1.441
96403SOL     OW90982  13.920  10.679   1.442
96403SOL    HW190983  13.884  10.678   1.531
96403SOL    HW290984  13.889  10.597   1.403
96404SOL     OW90985   2.358   1.719   5.282
96404SOL    HW190986   2.444   1.705   5.243
96404SOL    HW290987   2.358   1.812   5.307
96405SOL     OW90988   3.596   0.221   8.128
96405SOL    HW190989   3.682   0.186   8.152
96405SOL    HW290990   3.612   0.315   8.114
96406SOL     OW90991   2.316   7.150   0.419
96406SOL    HW190992   2.319   7.241   0.449
96406SOL    HW290993   2.404   7.116   0.437
96407SOL     OW90994   2.080   4.127   8.467
96407SOL    HW190995   2.079   4.096   8.558
96407SOL    HW290996   2.089   4.222   8.474
96408SOL     OW90997   7.707   3.344   6.233
96408SOL    HW190998   7.643   3.272   6.234
96408SOL    HW290999   7.656   3.422   6.255
96409SOL     OW91000   4.280   1.964   2.105
96409SOL    HW191001   4.267   2.042   2.051
96409SOL    HW291002   4.269   1.891   2.044
96410SOL     OW91003  12.747   3.449  13.800
96410SOL    HW191004  12.799   3.530  13.796
96410SOL    HW291005  12.790   3.396  13.867
96411SOL     OW91006   5.684  13.447   8.560
96411SOL    HW191007   5.765  13.398   8.554
96411SOL    HW291008   5.654  13.455   8.469
96412SOL     OW91009   3.570   9.807  10.860
96412SOL    HW191010   3.635   9.857  10.810
96412SOL    HW291011   3.623   9.749  10.916
96413SOL     OW91012   0.548  11.880   7.767
96413SOL    HW191013   0.485  11.916   7.705
96413SOL    HW291014   0.513  11.794   7.790
96414SOL     OW91015   5.392  13.069   0.193
96414SOL    HW191016   5.344  13.029   0.120
96414SOL    HW291017   5.481  13.081   0.160
96415SOL     OW91018  11.575   9.423   5.589
96415SOL    HW191019  11.651   9.416   5.646
96415SOL    HW291020  11.600   9.488   5.523
96416SOL     OW91021  13.042   6.998   9.365
96416SOL    HW191022  13.000   6.913   9.376
96416SOL    HW291023  13.121   6.993   9.417
96417SOL     OW91024   0.510  10.429   6.626
96417SOL    HW191025   0.415  10.438   6.627
96417SOL    HW291026   0.528  10.356   6.685
96418SOL     OW91027  10.921  11.444   3.603
96418SOL    HW191028  10.996  11.496   3.631
96418SOL    HW291029  10.957  11.358   3.583
96419SOL     OW91030  11.552  11.835   8.642
96419SOL    HW191031  11.509  11.920   8.655
96419SOL    HW291032  11.522  11.807   8.555
96420SOL     OW91033  14.648   5.949   7.740
96420SOL    HW191034  14.626   5.863   7.705
96420SOL    HW291035  14.724   5.977   7.690
96421SOL     OW91036   0.766   2.674   1.914
96421SOL    HW191037   0.692   2.617   1.934
96421SOL    HW291038   0.739   2.760   1.946
96422SOL     OW91039   4.560  10.172   6.937
96422SOL    HW191040   4.577  10.184   7.031
96422SOL    HW291041   4.474  10.211   6.924
96423SOL     OW91042   0.295   0.034  14.527
96423SOL    HW191043   0.303  14.824  14.491
96423SOL    HW291044   0.352   0.034  14.604
96424SOL     OW91045  10.648  14.552   3.030
96424SOL    HW191046  10.659  14.486   3.099
96424SOL    HW291047  10.716  14.617   3.048
96425SOL     OW91048   1.003   8.492   3.042
96425SOL    HW191049   1.025   8.399   3.048
96425SOL    HW291050   1.046   8.531   3.118
96426SOL     OW91051  10.031   4.755   0.903
96426SOL    HW191052  10.074   4.805   0.973
96426SOL    HW291053   9.986   4.684   0.949
96427SOL     OW91054   6.373  10.332  11.738
96427SOL    HW191055   6.449  10.276  11.725
96427SOL    HW291056   6.409  10.419  11.755
96428SOL     OW91057   7.739  14.176  14.608
96428SOL    HW191058   7.666  14.196  14.550
96428SOL    HW291059   7.814  14.221  14.569
96429SOL     OW91060   8.226   3.510   0.687
96429SOL    HW191061   8.273   3.593   0.701
96429SOL    HW291062   8.238   3.492   0.593
96430SOL     OW91063   6.370   5.560  12.881
96430SOL    HW191064   6.336   5.471  12.881
96430SOL    HW291065   6.300   5.613  12.920
96431SOL     OW91066   3.359   8.089   4.609
96431SOL    HW191067   3.284   8.043   4.570
96431SOL    HW291068   3.328   8.116   4.696
96432SOL     OW91069  10.982  10.214   4.444
96432SOL    HW191070  10.985  10.162   4.524
96432SOL    HW291071  10.928  10.290   4.466
96433SOL     OW91072   4.105   6.687  12.682
96433SOL    HW191073   4.109   6.605  12.733
96433SOL    HW291074   4.149   6.751  12.737
96434SOL     OW91075  13.665   7.715   6.497
96434SOL    HW191076  13.573   7.739   6.499
96434SOL    HW291077  13.699   7.742   6.583
96435SOL     OW91078  13.971  12.400   9.575
96435SOL    HW191079  14.036  12.331   9.576
96435SOL    HW291080  14.021  12.481   9.561
96436SOL     OW91081  13.383  11.848   8.264
96436SOL    HW191082  13.460  11.837   8.319
96436SOL    HW291083  13.377  11.767   8.213
96437SOL     OW91084   4.768   7.208   1.730
96437SOL    HW191085   4.736   7.289   1.689
96437SOL    HW291086   4.690   7.156   1.744
96438SOL     OW91087   3.485   8.819  11.185
96438SOL    HW191088   3.451   8.837  11.098
96438SOL    HW291089   3.503   8.725  11.185
96439SOL     OW91090  14.399   8.979   8.554
96439SOL    HW191091  14.489   8.970   8.524
96439SOL    HW291092  14.402   8.956   8.647
96440SOL     OW91093  10.768   1.252  10.220
96440SOL    HW191094  10.674   1.270  10.211
96440SOL    HW291095  10.772   1.181  10.285
96441SOL     OW91096   0.825  11.573  11.199
96441SOL    HW191097   0.849  11.568  11.291
96441SOL    HW291098   0.802  11.484  11.175
96442SOL     OW91099   0.774   6.395  12.618
96442SOL    HW191100   0.693   6.376  12.570
96442SOL    HW291101   0.784   6.322  12.679
96443SOL     OW91102   7.884  11.747   3.492
96443SOL    HW191103   7.923  11.681   3.549
96443SOL    HW291104   7.843  11.809   3.551
96444SOL     OW91105   2.341   3.853   5.926
96444SOL    HW191106   2.420   3.799   5.918
96444SOL    HW291107   2.319   3.877   5.836
96445SOL     OW91108   5.168   0.305   8.160
96445SOL    HW191109   5.156   0.212   8.141
96445SOL    HW291110   5.235   0.334   8.097
96446SOL     OW91111  13.744   8.122   3.686
96446SOL    HW191112  13.738   8.213   3.714
96446SOL    HW291113  13.837   8.107   3.672
96447SOL     OW91114   6.001   5.515   3.947
96447SOL    HW191115   6.069   5.537   3.883
96447SOL    HW291116   6.031   5.434   3.988
96448SOL     OW91117   2.213  14.737   8.499
96448SOL    HW191118   2.232  14.828   8.479
96448SOL    HW291119   2.127  14.739   8.541
96449SOL     OW91120   2.522   4.274   9.341
96449SOL    HW191121   2.452   4.247   9.400
96449SOL    HW291122   2.568   4.192   9.320
96450SOL     OW91123   6.410  12.737   6.933
96450SOL    HW191124   6.405  12.669   6.866
96450SOL    HW291125   6.319  12.765   6.945
96451SOL     OW91126   3.832   8.235   2.585
96451SOL    HW191127   3.864   8.155   2.542
96451SOL    HW291128   3.865   8.306   2.530
96452SOL     OW91129   0.756  11.842   5.840
96452SOL    HW191130   0.752  11.825   5.934
96452SOL    HW291131   0.720  11.763   5.800
96453SOL     OW91132   7.051   5.938  14.245
96453SOL    HW191133   7.100   5.858  14.225
96453SOL    HW291134   7.068   5.954  14.338
96454SOL     OW91135   4.235  11.703   2.054
96454SOL    HW191136   4.300  11.698   1.984
96454SOL    HW291137   4.279  11.666   2.130
96455SOL     OW91138   9.080  12.183   3.662
96455SOL    HW191139   9.078  12.089   3.681
96455SOL    HW291140   9.145  12.218   3.723
96456SOL     OW91141   9.076   8.871  14.332
96456SOL    HW191142   9.145   8.857  14.267
96456SOL    HW291143   9.123   8.893  14.413
96457SOL     OW91144   0.302   2.139  13.110
96457SOL    HW191145   0.273   2.058  13.152
96457SOL    HW291146   0.342   2.190  13.181
96458SOL     OW91147   7.176  10.341   3.724
96458SOL    HW191148   7.184  10.282   3.799
96458SOL    HW291149   7.105  10.401   3.748
96459SOL     OW91150   9.639   2.528  12.081
96459SOL    HW191151   9.610   2.617  12.059
96459SOL    HW291152   9.695   2.503  12.007
96460SOL     OW91153   4.010   4.605   1.782
96460SOL    HW191154   3.989   4.698   1.772
96460SOL    HW291155   4.001   4.588   1.876
96461SOL     OW91156   4.756   6.541   4.996
96461SOL    HW191157   4.673   6.544   5.044
96461SOL    HW291158   4.744   6.603   4.924
96462SOL     OW91159   8.984   1.150   7.838
96462SOL    HW191160   9.053   1.182   7.896
96462SOL    HW291161   8.964   1.224   7.781
96463SOL     OW91162   9.338   5.996   3.120
96463SOL    HW191163   9.416   5.950   3.089
96463SOL    HW291164   9.287   6.012   3.040
96464SOL     OW91165  13.816  10.570  11.290
96464SOL    HW191166  13.767  10.502  11.243
96464SOL    HW291167  13.871  10.611  11.223
96465SOL     OW91168  12.136   9.390   8.131
96465SOL    HW191169  12.091   9.419   8.052
96465SOL    HW291170  12.079   9.321   8.167
96466SOL     OW91171   9.590   8.683  12.061
96466SOL    HW191172   9.561   8.774  12.057
96466SOL    HW291173   9.672   8.686  12.110
96467SOL     OW91174   8.572  11.070   5.003
96467SOL    HW191175   8.481  11.078   5.031
96467SOL    HW291176   8.582  10.978   4.980
96468SOL     OW91177   2.143   5.452   0.490
96468SOL    HW191178   2.169   5.524   0.547
96468SOL    HW291179   2.123   5.380   0.550
96469SOL     OW91180   6.800  14.597  10.258
96469SOL    HW191181   6.811  14.605  10.353
96469SOL    HW291182   6.757  14.678  10.232
96470SOL     OW91183  13.123   0.888  10.397
96470SOL    HW191184  13.161   0.973  10.374
96470SOL    HW291185  13.199   0.830  10.409
96471SOL     OW91186  11.305   8.582   7.094
96471SOL    HW191187  11.243   8.643   7.055
96471SOL    HW291188  11.251   8.508   7.122
96472SOL     OW91189   8.209   9.990  12.872
96472SOL    HW191190   8.230   9.897  12.877
96472SOL    HW291191   8.175  10.003  12.784
96473SOL     OW91192  12.450  11.702  12.455
96473SOL    HW191193  12.476  11.794  12.452
96473SOL    HW291194  12.527  11.657  12.491
96474SOL     OW91195   7.177   7.569  14.458
96474SOL    HW191196   7.180   7.492  14.400
96474SOL    HW291197   7.123   7.541  14.531
96475SOL     OW91198  14.129  11.065  11.322
96475SOL    HW191199  14.111  11.156  11.296
96475SOL    HW291200  14.199  11.037  11.264
96476SOL     OW91201   8.131   9.999  14.475
96476SOL    HW191202   8.048   9.988  14.427
96476SOL    HW291203   8.147  10.093  14.474
96477SOL     OW91204   2.903  14.090   4.569
96477SOL    HW191205   2.832  14.154   4.581
96477SOL    HW291206   2.873  14.012   4.617
96478SOL     OW91207   2.127  12.897   1.958
96478SOL    HW191208   2.080  12.859   2.032
96478SOL    HW291209   2.075  12.871   1.882
96479SOL     OW91210  10.994   3.843  13.604
96479SOL    HW191211  10.953   3.795  13.676
96479SOL    HW291212  11.066   3.891  13.646
96480SOL     OW91213   8.586   0.857   3.948
96480SOL    HW191214   8.571   0.846   3.854
96480SOL    HW291215   8.604   0.768   3.980
96481SOL     OW91216  12.291   0.253   6.571
96481SOL    HW191217  12.337   0.225   6.492
96481SOL    HW291218  12.216   0.304   6.538
96482SOL     OW91219  10.649  14.381  11.932
96482SOL    HW191220  10.567  14.427  11.916
96482SOL    HW291221  10.649  14.309  11.868
96483SOL     OW91222   7.270   8.744   8.061
96483SOL    HW191223   7.363   8.723   8.069
96483SOL    HW291224   7.267   8.819   8.002
96484SOL     OW91225  11.307   9.046  13.953
96484SOL    HW191226  11.252   9.110  13.908
96484SOL    HW291227  11.279   8.961  13.918
96485SOL     OW91228   1.573   1.838  13.659
96485SOL    HW191229   1.528   1.835  13.574
96485SOL    HW291230   1.523   1.902  13.710
96486SOL     OW91231   0.050   2.351  10.086
96486SOL    HW191232   0.012   2.326  10.002
96486SOL    HW291233   0.070   2.268  10.129
96487SOL     OW91234  14.327   9.008  12.283
96487SOL    HW191235  14.310   9.063  12.207
96487SOL    HW291236  14.413   8.968  12.266
96488SOL     OW91237   6.394   4.479   8.250
96488SOL    HW191238   6.437   4.524   8.177
96488SOL    HW291239   6.457   4.483   8.322
96489SOL     OW91240   6.883   7.704   8.883
96489SOL    HW191241   6.892   7.763   8.958
96489SOL    HW291242   6.807   7.739   8.835
96490SOL     OW91243   0.209   7.620   8.623
96490SOL    HW191244   0.223   7.535   8.664
96490SOL    HW291245   0.146   7.664   8.679
96491SOL     OW91246   4.622   0.446  13.429
96491SOL    HW191247   4.699   0.503  13.434
96491SOL    HW291248   4.554   0.493  13.476
96492SOL     OW91249   4.138  11.903   6.997
96492SOL    HW191250   4.104  11.813   6.999
96492SOL    HW291251   4.113  11.935   6.911
96493SOL     OW91252   4.111   0.109  11.501
96493SOL    HW191253   4.019   0.129  11.486
96493SOL    HW291254   4.112   0.015  11.520
96494SOL     OW91255   7.098   5.249   3.380
96494SOL    HW191256   7.059   5.335   3.396
96494SOL    HW291257   7.189   5.259   3.407
96495SOL     OW91258   4.248  14.012  10.694
96495SOL    HW191259   4.320  14.053  10.742
96495SOL    HW291260   4.287  13.983  10.612
96496SOL     OW91261   5.266  13.462   0.024
96496SOL    HW191262   5.219  13.378   0.020
96496SOL    HW291263   5.303  13.464   0.112
96497SOL     OW91264  13.107   0.983  14.454
96497SOL    HW191265  13.048   0.911  14.475
96497SOL    HW291266  13.080   1.054  14.512
96498SOL     OW91267   2.956   6.992  10.631
96498SOL    HW191268   2.934   6.919  10.689
96498SOL    HW291269   2.871   7.030  10.607
96499SOL     OW91270   0.595   7.489   3.917
96499SOL    HW191271   0.556   7.577   3.916
96499SOL    HW291272   0.605   7.466   3.825
96500SOL     OW91273   6.225  11.692   7.859
96500SOL    HW191274   6.259  11.717   7.773
96500SOL    HW291275   6.171  11.615   7.842
96501SOL     OW91276   3.353   8.282   5.579
96501SOL    HW191277   3.296   8.295   5.655
96501SOL    HW291278   3.442   8.286   5.614
96502SOL     OW91279  14.395   5.200   3.882
96502SOL    HW191280  14.432   5.125   3.834
96502SOL    HW291281  14.300   5.191   3.870
96503SOL     OW91282  14.584  12.149  10.278
96503SOL    HW191283  14.548  12.120  10.362
96503SOL    HW291284  14.549  12.237  10.266
96504SOL     OW91285   0.149   8.791   6.592
96504SOL    HW191286   0.198   8.758   6.667
96504SOL    HW291287   0.216   8.816   6.528
96505SOL     OW91288   9.623   3.918  12.652
96505SOL    HW191289   9.648   3.834  12.691
96505SOL    HW291290   9.704   3.950  12.610
96506SOL     OW91291  14.243   4.812   9.122
96506SOL    HW191292  14.249   4.831   9.216
96506SOL    HW291293  14.334   4.811   9.092
96507SOL     OW91294   8.130   7.671   4.888
96507SOL    HW191295   8.192   7.611   4.928
96507SOL    HW291296   8.174   7.756   4.890
96508SOL     OW91297   1.646  13.440   4.302
96508SOL    HW191298   1.574  13.438   4.238
96508SOL    HW291299   1.699  13.363   4.281
96509SOL     OW91300  12.065  13.456  10.429
96509SOL    HW191301  12.147  13.461  10.479
96509SOL    HW291302  12.044  13.547  10.408
96510SOL     OW91303   0.452   6.752   1.375
96510SOL    HW191304   0.408   6.805   1.308
96510SOL    HW291305   0.390   6.747   1.447
96511SOL     OW91306   1.337   3.075   1.797
96511SOL    HW191307   1.391   3.053   1.873
96511SOL    HW291308   1.344   3.171   1.790
96512SOL     OW91309   8.503   2.580  11.353
96512SOL    HW191310   8.593   2.564  11.382
96512SOL    HW291311   8.485   2.670  11.378
96513SOL     OW91312   9.615  10.888  11.922
96513SOL    HW191313   9.665  10.809  11.941
96513SOL    HW291314   9.524  10.859  11.916
96514SOL     OW91315   3.489   9.605   4.700
96514SOL    HW191316   3.581   9.605   4.675
96514SOL    HW291317   3.489   9.571   4.789
96515SOL     OW91318   5.166   5.897   4.179
96515SOL    HW191319   5.230   5.947   4.229
96515SOL    HW291320   5.102   5.962   4.150
96516SOL     OW91321   1.880  12.148   4.698
96516SOL    HW191322   1.927  12.080   4.747
96516SOL    HW291323   1.790  12.142   4.731
96517SOL     OW91324   7.283   6.841  13.398
96517SOL    HW191325   7.195   6.811  13.419
96517SOL    HW291326   7.334   6.824  13.477
96518SOL     OW91327  11.698   1.050   4.560
96518SOL    HW191328  11.620   1.048   4.615
96518SOL    HW291329  11.687   1.128   4.506
96519SOL     OW91330   6.573   7.078   3.687
96519SOL    HW191331   6.664   7.080   3.717
96519SOL    HW291332   6.534   7.157   3.724
96520SOL     OW91333   9.385   7.306   3.631
96520SOL    HW191334   9.294   7.322   3.606
96520SOL    HW291335   9.420   7.250   3.562
96521SOL     OW91336  13.648   4.946   2.003
96521SOL    HW191337  13.670   4.914   1.915
96521SOL    HW291338  13.657   4.869   2.059
96522SOL     OW91339  12.448  13.758  13.408
96522SOL    HW191340  12.352  13.761  13.408
96522SOL    HW291341  12.474  13.850  13.410
96523SOL     OW91342   5.887  10.811   5.687
96523SOL    HW191343   5.791  10.817   5.685
96523SOL    HW291344   5.917  10.898   5.659
96524SOL     OW91345   4.216   5.369   6.468
96524SOL    HW191346   4.129   5.349   6.504
96524SOL    HW291347   4.199   5.430   6.397
96525SOL     OW91348   2.518   5.753   2.994
96525SOL    HW191349   2.527   5.660   2.973
96525SOL    HW291350   2.473   5.790   2.918
96526SOL     OW91351   1.315   1.816  13.197
96526SOL    HW191352   1.315   1.907  13.168
96526SOL    HW291353   1.235   1.779  13.159
96527SOL     OW91354  13.306   5.143   6.924
96527SOL    HW191355  13.340   5.208   6.862
96527SOL    HW291356  13.229   5.107   6.881
96528SOL     OW91357  11.777   0.695   9.220
96528SOL    HW191358  11.743   0.781   9.198
96528SOL    HW291359  11.705   0.651   9.264
96529SOL     OW91360   1.097  13.174   3.585
96529SOL    HW191361   1.120  13.212   3.500
96529SOL    HW291362   1.003  13.192   3.594
96530SOL     OW91363   2.274   1.986   8.702
96530SOL    HW191364   2.240   2.075   8.704
96530SOL    HW291365   2.238   1.947   8.623
96531SOL     OW91366  12.543  11.962  10.573
96531SOL    HW191367  12.480  12.033  10.575
96531SOL    HW291368  12.584  11.968  10.487
96532SOL     OW91369  12.178   7.863   3.420
96532SOL    HW191370  12.235   7.894   3.491
96532SOL    HW291371  12.130   7.940   3.392
96533SOL     OW91372   1.701   1.544  14.297
96533SOL    HW191373   1.636   1.473  14.297
96533SOL    HW291374   1.695   1.582  14.209
96534SOL     OW91375   4.082   7.291   8.235
96534SOL    HW191376   4.011   7.348   8.206
96534SOL    HW291377   4.144   7.349   8.278
96535SOL     OW91378  13.273   2.962   9.853
96535SOL    HW191379  13.264   3.044   9.901
96535SOL    HW291380  13.293   2.988   9.763
96536SOL     OW91381   4.549  10.725   1.577
96536SOL    HW191382   4.604  10.800   1.554
96536SOL    HW291383   4.514  10.747   1.663
96537SOL     OW91384   0.843  12.282   2.228
96537SOL    HW191385   0.853  12.253   2.319
96537SOL    HW291386   0.784  12.357   2.234
96538SOL     OW91387   5.595   2.965   2.515
96538SOL    HW191388   5.669   2.939   2.461
96538SOL    HW291389   5.518   2.944   2.461
96539SOL     OW91390  14.871   2.158   1.791
96539SOL    HW191391  14.865   2.166   1.886
96539SOL    HW291392   0.002   2.064   1.775
96540SOL     OW91393   3.394  12.373   8.206
96540SOL    HW191394   3.447  12.453   8.203
96540SOL    HW291395   3.443  12.311   8.152
96541SOL     OW91396   2.962   3.630   8.092
96541SOL    HW191397   2.875   3.670   8.103
96541SOL    HW291398   3.021   3.705   8.080
96542SOL     OW91399   9.344   2.646  12.093
96542SOL    HW191400   9.347   2.551  12.089
96542SOL    HW291401   9.348   2.675  12.002
96543SOL     OW91402   9.653   9.058   1.908
96543SOL    HW191403   9.684   8.974   1.942
96543SOL    HW291404   9.719   9.121   1.938
96544SOL     OW91405   6.637   3.151   9.648
96544SOL    HW191406   6.582   3.076   9.625
96544SOL    HW291407   6.597   3.225   9.602
96545SOL     OW91408   9.427  13.661  10.570
96545SOL    HW191409   9.405  13.593  10.633
96545SOL    HW291410   9.512  13.695  10.600
96546SOL     OW91411  10.442  14.247   2.850
96546SOL    HW191412  10.494  14.218   2.925
96546SOL    HW291413  10.375  14.304   2.887
96547SOL     OW91414   8.826   3.312   0.846
96547SOL    HW191415   8.889   3.241   0.853
96547SOL    HW291416   8.837   3.362   0.928
96548SOL     OW91417   6.912   8.884   1.373
96548SOL    HW191418   6.995   8.920   1.402
96548SOL    HW291419   6.884   8.825   1.443
96549SOL     OW91420  14.355  12.728  11.812
96549SOL    HW191421  14.348  12.772  11.727
96549SOL    HW291422  14.393  12.793  11.870
96550SOL     OW91423   1.923  14.715   4.898
96550SOL    HW191424   1.887  14.694   4.984
96550SOL    HW291425   1.864  14.672   4.836
96551SOL     OW91426   3.776  10.931  12.383
96551SOL    HW191427   3.697  10.943  12.331
96551SOL    HW291428   3.848  10.941  12.320
96552SOL     OW91429   9.797  11.675  12.705
96552SOL    HW191430   9.723  11.644  12.652
96552SOL    HW291431   9.756  11.708  12.785
96553SOL     OW91432   6.112   8.158   8.935
96553SOL    HW191433   6.147   8.069   8.934
96553SOL    HW291434   6.019   8.147   8.913
96554SOL     OW91435   5.674   1.769   0.938
96554SOL    HW191436   5.699   1.809   0.854
96554SOL    HW291437   5.746   1.792   0.997
96555SOL     OW91438   5.608   6.262   6.831
96555SOL    HW191439   5.672   6.228   6.769
96555SOL    HW291440   5.660   6.318   6.890
96556SOL     OW91441  13.071   4.327  11.531
96556SOL    HW191442  13.096   4.418  11.518
96556SOL    HW291443  13.027   4.326  11.616
96557SOL     OW91444  13.457   6.236  14.781
96557SOL    HW191445  13.501   6.288  14.849
96557SOL    HW291446  13.527   6.185  14.741
96558SOL     OW91447   2.374   2.748   1.114
96558SOL    HW191448   2.340   2.804   1.184
96558SOL    HW291449   2.405   2.669   1.159
96559SOL     OW91450   9.648  13.170  14.571
96559SOL    HW191451   9.738  13.174  14.540
96559SOL    HW291452   9.646  13.094  14.629
96560SOL     OW91453  14.242  13.503   5.054
96560SOL    HW191454  14.179  13.570   5.026
96560SOL    HW291455  14.316  13.514   4.994
96561SOL     OW91456  11.914   8.050  13.597
96561SOL    HW191457  11.895   8.072  13.688
96561SOL    HW291458  11.838   7.999  13.569
96562SOL     OW91459   4.542   1.314  14.117
96562SOL    HW191460   4.500   1.357  14.043
96562SOL    HW291461   4.564   1.227  14.086
96563SOL     OW91462   8.611  10.207  10.168
96563SOL    HW191463   8.681  10.221  10.104
96563SOL    HW291464   8.533  10.246  10.129
96564SOL     OW91465  14.226   4.630   9.698
96564SOL    HW191466  14.153   4.614   9.639
96564SOL    HW291467  14.304   4.617   9.644
96565SOL     OW91468   9.379  13.717   8.856
96565SOL    HW191469   9.388  13.758   8.942
96565SOL    HW291470   9.299  13.665   8.862
96566SOL     OW91471   9.579   6.241   4.986
96566SOL    HW191472   9.575   6.264   4.894
96566SOL    HW291473   9.556   6.322   5.032
96567SOL     OW91474   2.419   0.081   0.442
96567SOL    HW191475   2.395   0.013   0.379
96567SOL    HW291476   2.469   0.144   0.390
96568SOL     OW91477   9.688  12.295   7.277
96568SOL    HW191478   9.742  12.325   7.350
96568SOL    HW291479   9.602  12.277   7.315
96569SOL     OW91480   3.575   5.349   4.602
96569SOL    HW191481   3.573   5.253   4.602
96569SOL    HW291482   3.492   5.375   4.641
96570SOL     OW91483   9.734   8.668   1.528
96570SOL    HW191484   9.672   8.604   1.563
96570SOL    HW291485   9.680   8.732   1.483
96571SOL     OW91486   8.772   0.638   2.452
96571SOL    HW191487   8.797   0.594   2.534
96571SOL    HW291488   8.748   0.726   2.479
96572SOL     OW91489   5.178  10.477   6.533
96572SOL    HW191490   5.258  10.427   6.522
96572SOL    HW291491   5.207  10.563   6.564
96573SOL     OW91492  14.755   0.137   6.555
96573SOL    HW191493  14.748   0.172   6.466
96573SOL    HW291494  14.813   0.061   6.545
96574SOL     OW91495   3.392   7.714   6.960
96574SOL    HW191496   3.422   7.630   6.924
96574SOL    HW291497   3.316   7.691   7.013
96575SOL     OW91498  11.148   6.426   5.407
96575SOL    HW191499  11.158   6.462   5.319
96575SOL    HW291500  11.238   6.406   5.435
96576SOL     OW91501   7.534  14.342   5.533
96576SOL    HW191502   7.544  14.250   5.507
96576SOL    HW291503   7.507  14.387   5.453
96577SOL     OW91504   5.738   0.845   4.689
96577SOL    HW191505   5.651   0.877   4.663
96577SOL    HW291506   5.726   0.815   4.779
96578SOL     OW91507   2.989   9.117   7.214
96578SOL    HW191508   2.914   9.081   7.260
96578SOL    HW291509   2.963   9.207   7.192
96579SOL     OW91510   9.360  11.525   0.208
96579SOL    HW191511   9.390  11.529   0.117
96579SOL    HW291512   9.396  11.604   0.249
96580SOL     OW91513   9.595  10.583   7.836
96580SOL    HW191514   9.569  10.666   7.877
96580SOL    HW291515   9.690  10.587   7.831
96581SOL     OW91516   5.599   6.386   4.474
96581SOL    HW191517   5.651   6.332   4.414
96581SOL    HW291518   5.563   6.324   4.536
96582SOL     OW91519   6.018  11.653   4.178
96582SOL    HW191520   5.981  11.738   4.152
96582SOL    HW291521   6.102  11.648   4.131
96583SOL     OW91522   2.367  12.422   9.563
96583SOL    HW191523   2.399  12.511   9.578
96583SOL    HW291524   2.338  12.393   9.650
96584SOL     OW91525   9.426  11.216   9.043
96584SOL    HW191526   9.490  11.232   8.974
96584SOL    HW291527   9.424  11.121   9.052
96585SOL     OW91528   4.344   6.222  10.476
96585SOL    HW191529   4.264   6.218  10.529
96585SOL    HW291530   4.316   6.261  10.393
96586SOL     OW91531   8.388   1.293   0.953
96586SOL    HW191532   8.389   1.269   0.860
96586SOL    HW291533   8.312   1.247   0.989
96587SOL     OW91534   2.494  10.255   3.049
96587SOL    HW191535   2.562  10.236   2.985
96587SOL    HW291536   2.520  10.338   3.088
96588SOL     OW91537   8.802  10.773   3.209
96588SOL    HW191538   8.773  10.683   3.198
96588SOL    HW291539   8.861  10.771   3.285
96589SOL     OW91540   9.714   1.278   3.229
96589SOL    HW191541   9.690   1.185   3.229
96589SOL    HW291542   9.678   1.312   3.311
96590SOL     OW91543   1.345  14.541   4.844
96590SOL    HW191544   1.295  14.623   4.848
96590SOL    HW291545   1.279  14.472   4.854
96591SOL     OW91546   5.859  14.810  13.749
96591SOL    HW191547   5.881   0.003  13.689
96591SOL    HW291548   5.925  14.816  13.818
96592SOL     OW91549  10.252   3.115  13.890
96592SOL    HW191550  10.193   3.102  13.816
96592SOL    HW291551  10.313   3.183  13.861
96593SOL     OW91552  12.807   8.279  10.515
96593SOL    HW191553  12.721   8.321  10.511
96593SOL    HW291554  12.801   8.218  10.589
96594SOL     OW91555  10.401  14.856  11.973
96594SOL    HW191556  10.316  14.820  11.999
96594SOL    HW291557  10.381   0.041  11.904
96595SOL     OW91558   3.203   7.575   3.308
96595SOL    HW191559   3.215   7.492   3.261
96595SOL    HW291560   3.141   7.554   3.378
96596SOL     OW91561   7.873  12.525  14.569
96596SOL    HW191562   7.837  12.590  14.509
96596SOL    HW291563   7.955  12.564  14.600
96597SOL     OW91564   7.407   1.240   4.658
96597SOL    HW191565   7.435   1.207   4.743
96597SOL    HW291566   7.397   1.162   4.604
96598SOL     OW91567   8.830   0.923   9.228
96598SOL    HW191568   8.809   0.998   9.284
96598SOL    HW291569   8.808   0.847   9.282
96599SOL     OW91570   4.551  12.996   4.405
96599SOL    HW191571   4.488  12.924   4.416
96599SOL    HW291572   4.517  13.045   4.330
96600SOL     OW91573   3.513   3.645  14.605
96600SOL    HW191574   3.554   3.711  14.549
96600SOL    HW291575   3.421   3.672  14.611
96601SOL     OW91576   6.703   6.924  13.327
96601SOL    HW191577   6.670   6.994  13.271
96601SOL    HW291578   6.641   6.918  13.399
96602SOL     OW91579   5.883   3.466  10.210
96602SOL    HW191580   5.967   3.503  10.235
96602SOL    HW291581   5.860   3.509  10.128
96603SOL     OW91582  10.789   0.953  10.695
96603SOL    HW191583  10.863   0.923  10.748
96603SOL    HW291584  10.779   0.886  10.627
96604SOL     OW91585   6.625   1.496  11.121
96604SOL    HW191586   6.671   1.564  11.171
96604SOL    HW291587   6.535   1.498  11.155
96605SOL     OW91588   7.142   1.487   8.832
96605SOL    HW191589   7.110   1.399   8.853
96605SOL    HW291590   7.109   1.503   8.743
96606SOL     OW91591  12.922   7.689   5.090
96606SOL    HW191592  12.887   7.732   5.012
96606SOL    HW291593  13.011   7.665   5.065
96607SOL     OW91594  14.253  12.471  12.740
96607SOL    HW191595  14.227  12.381  12.719
96607SOL    HW291596  14.264  12.471  12.835
96608SOL     OW91597  11.653   8.008   0.922
96608SOL    HW191598  11.711   8.080   0.948
96608SOL    HW291599  11.712   7.944   0.882
96609SOL     OW91600   5.309  10.956   3.653
96609SOL    HW191601   5.219  10.939   3.681
96609SOL    HW291602   5.338  10.875   3.612
96610SOL     OW91603   1.669   9.895  10.077
96610SOL    HW191604   1.641   9.969  10.132
96610SOL    HW291605   1.626   9.819  10.117
96611SOL     OW91606   2.896  12.239   8.110
96611SOL    HW191607   2.844  12.159   8.116
96611SOL    HW291608   2.857  12.299   8.173
96612SOL     OW91609   7.589   8.664   9.271
96612SOL    HW191610   7.682   8.682   9.258
96612SOL    HW291611   7.585   8.598   9.340
96613SOL     OW91612   0.428   1.095   5.489
96613SOL    HW191613   0.511   1.064   5.524
96613SOL    HW291614   0.438   1.090   5.394
96614SOL     OW91615  13.153   5.032   0.880
96614SOL    HW191616  13.216   5.104   0.882
96614SOL    HW291617  13.069   5.074   0.865
96615SOL     OW91618  10.665  10.797   5.466
96615SOL    HW191619  10.755  10.775   5.441
96615SOL    HW291620  10.667  10.801   5.561
96616SOL     OW91621  11.476   0.493  12.427
96616SOL    HW191622  11.386   0.476  12.398
96616SOL    HW291623  11.489   0.433  12.500
96617SOL     OW91624   1.237  10.774   9.677
96617SOL    HW191625   1.314  10.735   9.635
96617SOL    HW291626   1.211  10.846   9.619
96618SOL     OW91627   3.874  11.496   9.443
96618SOL    HW191628   3.840  11.460   9.525
96618SOL    HW291629   3.958  11.451   9.431
96619SOL     OW91630  13.282   7.894  12.187
96619SOL    HW191631  13.202   7.884  12.239
96619SOL    HW291632  13.273   7.980  12.146
96620SOL     OW91633   0.383   1.325  14.119
96620SOL    HW191634   0.468   1.323  14.076
96620SOL    HW291635   0.363   1.233  14.137
96621SOL     OW91636  10.736  10.518   3.223
96621SOL    HW191637  10.691  10.480   3.148
96621SOL    HW291638  10.820  10.548   3.189
96622SOL     OW91639   7.299  11.855   5.763
96622SOL    HW191640   7.344  11.862   5.848
96622SOL    HW291641   7.273  11.763   5.757
96623SOL     OW91642   4.690  13.444   8.911
96623SOL    HW191643   4.668  13.379   8.845
96623SOL    HW291644   4.743  13.396   8.975
96624SOL     OW91645   8.095   0.375   7.395
96624SOL    HW191646   8.117   0.282   7.398
96624SOL    HW291647   8.173   0.419   7.427
96625SOL     OW91648   6.502   9.431  14.733
96625SOL    HW191649   6.592   9.401  14.726
96625SOL    HW291650   6.492   9.460  14.824
96626SOL     OW91651   6.704   0.778   2.264
96626SOL    HW191652   6.672   0.785   2.174
96626SOL    HW291653   6.799   0.772   2.255
96627SOL     OW91654  11.320  13.025  13.219
96627SOL    HW191655  11.322  12.929  13.216
96627SOL    HW291656  11.371  13.052  13.142
96628SOL     OW91657   4.054   2.013   1.295
96628SOL    HW191658   4.074   2.032   1.387
96628SOL    HW291659   4.103   2.079   1.246
96629SOL     OW91660  11.717   1.241   7.661
96629SOL    HW191661  11.718   1.146   7.673
96629SOL    HW291662  11.718   1.253   7.566
96630SOL     OW91663   2.964  12.565   8.056
96630SOL    HW191664   3.059  12.565   8.058
96630SOL    HW291665   2.938  12.512   8.131
96631SOL     OW91666   6.531   9.556  14.052
96631SOL    HW191667   6.611   9.543  14.104
96631SOL    HW291668   6.462   9.518  14.106
96632SOL     OW91669   4.563   5.212  14.288
96632SOL    HW191670   4.615   5.224  14.368
96632SOL    HW291671   4.473   5.228  14.316
96633SOL     OW91672   3.065  11.721  10.788
96633SOL    HW191673   3.053  11.731  10.883
96633SOL    HW291674   3.159  11.728  10.775
96634SOL     OW91675   4.094   0.206   4.183
96634SOL    HW191676   4.043   0.288   4.178
96634SOL    HW291677   4.166   0.219   4.122
96635SOL     OW91678   7.697  13.781   6.345
96635SOL    HW191679   7.688  13.850   6.410
96635SOL    HW291680   7.612  13.738   6.343
96636SOL     OW91681   4.810  11.894   1.593
96636SOL    HW191682   4.738  11.942   1.634
96636SOL    HW291683   4.862  11.860   1.667
96637SOL     OW91684   0.155   7.320   3.234
96637SOL    HW191685   0.134   7.312   3.141
96637SOL    HW291686   0.154   7.414   3.251
96638SOL     OW91687  11.538  12.385   3.800
96638SOL    HW191688  11.567  12.475   3.789
96638SOL    HW291689  11.588  12.352   3.875
96639SOL     OW91690   1.733   3.915  10.288
96639SOL    HW191691   1.641   3.898  10.267
96639SOL    HW291692   1.730   3.981  10.358
96640SOL     OW91693   6.063   2.367  13.342
96640SOL    HW191694   6.085   2.384  13.251
96640SOL    HW291695   6.010   2.287  13.339
96641SOL     OW91696   3.775   1.370  11.996
96641SOL    HW191697   3.761   1.414  11.912
96641SOL    HW291698   3.725   1.289  11.989
96642SOL     OW91699   2.724  11.335   0.698
96642SOL    HW191700   2.753  11.392   0.626
96642SOL    HW291701   2.643  11.376   0.729
96643SOL     OW91702   0.824   2.239   8.790
96643SOL    HW191703   0.772   2.175   8.839
96643SOL    HW291704   0.759   2.294   8.746
96644SOL     OW91705   4.985  12.779  12.436
96644SOL    HW191706   4.890  12.793  12.437
96644SOL    HW291707   5.019  12.850  12.382
96645SOL     OW91708  12.086   5.181   6.269
96645SOL    HW191709  12.087   5.245   6.339
96645SOL    HW291710  12.177   5.153   6.259
96646SOL     OW91711   3.691   2.276  14.291
96646SOL    HW191712   3.747   2.211  14.335
96646SOL    HW291713   3.750   2.347  14.267
96647SOL     OW91714  14.185  13.138  10.341
96647SOL    HW191715  14.198  13.075  10.269
96647SOL    HW291716  14.112  13.103  10.392
96648SOL     OW91717  11.460   0.789   1.378
96648SOL    HW191718  11.522   0.837   1.434
96648SOL    HW291719  11.404   0.742   1.440
96649SOL     OW91720   1.843   3.145   8.444
96649SOL    HW191721   1.862   3.189   8.527
96649SOL    HW291722   1.922   3.157   8.391
96650SOL     OW91723  10.889  10.621   8.839
96650SOL    HW191724  10.831  10.553   8.872
96650SOL    HW291725  10.969  10.610   8.890
96651SOL     OW91726   2.422   1.583  12.949
96651SOL    HW191727   2.339   1.554  12.911
96651SOL    HW291728   2.477   1.604  12.874
96652SOL     OW91729   1.883   1.575   1.415
96652SOL    HW191730   1.816   1.558   1.481
96652SOL    HW291731   1.954   1.515   1.437
96653SOL     OW91732   7.857   2.144   9.634
96653SOL    HW191733   7.924   2.076   9.627
96653SOL    HW291734   7.784   2.102   9.680
96654SOL     OW91735   8.669  12.743   8.633
96654SOL    HW191736   8.723  12.774   8.560
96654SOL    HW291737   8.579  12.750   8.601
96655SOL     OW91738   9.983   2.656   9.301
96655SOL    HW191739  10.056   2.675   9.243
96655SOL    HW291740   9.927   2.596   9.250
96656SOL     OW91741   7.747   1.924   9.910
96656SOL    HW191742   7.804   1.865   9.959
96656SOL    HW291743   7.717   1.872   9.835
96657SOL     OW91744   2.919   7.747   2.937
96657SOL    HW191745   2.837   7.794   2.921
96657SOL    HW291746   2.952   7.725   2.850
96658SOL     OW91747   9.528   5.493  10.613
96658SOL    HW191748   9.451   5.531  10.570
96658SOL    HW291749   9.505   5.492  10.706
96659SOL     OW91750  12.536  13.705  14.354
96659SOL    HW191751  12.584  13.726  14.435
96659SOL    HW291752  12.523  13.611  14.358
96660SOL     OW91753   5.927   0.289  12.416
96660SOL    HW191754   5.946   0.214  12.358
96660SOL    HW291755   6.003   0.346  12.407
96661SOL     OW91756  11.435   1.541   1.239
96661SOL    HW191757  11.379   1.527   1.315
96661SOL    HW291758  11.522   1.516   1.269
96662SOL     OW91759   3.673   8.418   9.680
96662SOL    HW191760   3.660   8.324   9.689
96662SOL    HW291761   3.662   8.453   9.768
96663SOL     OW91762   4.413  12.736   6.976
96663SOL    HW191763   4.381  12.821   6.947
96663SOL    HW291764   4.397  12.733   7.070
96664SOL     OW91765  13.619   3.212   4.949
96664SOL    HW191766  13.647   3.192   4.860
96664SOL    HW291767  13.548   3.150   4.967
96665SOL     OW91768   8.985  12.627   9.894
96665SOL    HW191769   9.067  12.578   9.889
96665SOL    HW291770   8.986  12.685   9.818
96666SOL     OW91771   1.010   9.013   3.518
96666SOL    HW191772   1.000   9.086   3.457
96666SOL    HW291773   1.104   9.010   3.537
96667SOL     OW91774  14.204  10.554  12.437
96667SOL    HW191775  14.147  10.596  12.373
96667SOL    HW291776  14.274  10.514  12.385
96668SOL     OW91777   8.014  13.742   1.361
96668SOL    HW191778   7.943  13.786   1.315
96668SOL    HW291779   8.034  13.798   1.435
96669SOL     OW91780   0.575   7.760   2.492
96669SOL    HW191781   0.660   7.794   2.467
96669SOL    HW291782   0.547   7.815   2.566
96670SOL     OW91783   7.441  10.542  14.280
96670SOL    HW191784   7.481  10.585  14.205
96670SOL    HW291785   7.349  10.567  14.277
96671SOL     OW91786   8.286  12.454   1.931
96671SOL    HW191787   8.303  12.544   1.959
96671SOL    HW291788   8.223  12.420   1.995
96672SOL     OW91789   4.243   2.127   0.762
96672SOL    HW191790   4.273   2.198   0.818
96672SOL    HW291791   4.210   2.061   0.823
96673SOL     OW91792   5.666  13.663  10.333
96673SOL    HW191793   5.680  13.597  10.265
96673SOL    HW291794   5.715  13.632  10.408
96674SOL     OW91795   8.504   4.098   9.880
96674SOL    HW191796   8.439   4.166   9.898
96674SOL    HW291797   8.540   4.122   9.795
96675SOL     OW91798  13.311   7.049   6.360
96675SOL    HW191799  13.379   7.057   6.427
96675SOL    HW291800  13.281   7.138   6.344
96676SOL     OW91801  10.272  10.001  10.702
96676SOL    HW191802  10.259   9.953  10.621
96676SOL    HW291803  10.260   9.936  10.771
96677SOL     OW91804  10.971   4.664   7.843
96677SOL    HW191805  10.916   4.691   7.916
96677SOL    HW291806  11.053   4.712   7.855
96678SOL     OW91807   5.241  13.395   0.686
96678SOL    HW191808   5.319  13.392   0.629
96678SOL    HW291809   5.205  13.307   0.682
96679SOL     OW91810   1.094   8.627   1.581
96679SOL    HW191811   1.111   8.574   1.659
96679SOL    HW291812   1.176   8.675   1.566
96680SOL     OW91813   1.405   2.694   0.980
96680SOL    HW191814   1.458   2.774   0.981
96680SOL    HW291815   1.469   2.623   0.968
96681SOL     OW91816   7.275   8.262  11.404
96681SOL    HW191817   7.200   8.203  11.406
96681SOL    HW291818   7.310   8.261  11.493
96682SOL     OW91819   2.576  14.478   5.501
96682SOL    HW191820   2.634  14.528   5.443
96682SOL    HW291821   2.593  14.514   5.588
96683SOL     OW91822  13.388  10.766   9.630
96683SOL    HW191823  13.431  10.682   9.649
96683SOL    HW291824  13.448  10.832   9.667
96684SOL     OW91825   7.935   5.640   3.598
96684SOL    HW191826   8.020   5.658   3.639
96684SOL    HW291827   7.927   5.706   3.529
96685SOL     OW91828   9.423  11.576   3.727
96685SOL    HW191829   9.335  11.548   3.703
96685SOL    HW291830   9.481  11.527   3.669
96686SOL     OW91831   1.533  11.233   0.368
96686SOL    HW191832   1.472  11.220   0.440
96686SOL    HW291833   1.619  11.220   0.406
96687SOL     OW91834  14.644   8.126   3.508
96687SOL    HW191835  14.636   8.083   3.593
96687SOL    HW291836  14.609   8.062   3.446
96688SOL     OW91837   6.057  11.454   7.799
96688SOL    HW191838   6.037  11.396   7.872
96688SOL    HW291839   6.084  11.396   7.729
96689SOL     OW91840   8.644  11.560   9.811
96689SOL    HW191841   8.573  11.611   9.850
96689SOL    HW291842   8.681  11.510   9.884
96690SOL     OW91843  11.871   6.238   1.467
96690SOL    HW191844  11.843   6.308   1.407
96690SOL    HW291845  11.958   6.213   1.437
96691SOL     OW91846   4.094   8.805  10.346
96691SOL    HW191847   4.143   8.859  10.408
96691SOL    HW291848   4.076   8.863  10.272
96692SOL     OW91849   7.401   3.671  13.005
96692SOL    HW191850   7.465   3.706  13.067
96692SOL    HW291851   7.386   3.741  12.942
96693SOL     OW91852  13.320   6.985   3.246
96693SOL    HW191853  13.288   7.067   3.284
96693SOL    HW291854  13.341   6.930   3.322
96694SOL     OW91855   4.515   4.053  12.868
96694SOL    HW191856   4.609   4.036  12.854
96694SOL    HW291857   4.489   3.991  12.936
96695SOL     OW91858   8.081  11.699   0.514
96695SOL    HW191859   8.128  11.620   0.541
96695SOL    HW291860   8.120  11.768   0.568
96696SOL     OW91861   4.260  11.254   3.645
96696SOL    HW191862   4.340  11.297   3.614
96696SOL    HW291863   4.256  11.172   3.596
96697SOL     OW91864  13.363   7.435  14.148
96697SOL    HW191865  13.427   7.371  14.179
96697SOL    HW291866  13.280   7.387  14.145
96698SOL     OW91867   2.075   0.886  13.645
96698SOL    HW191868   1.979   0.890  13.648
96698SOL    HW291869   2.101   0.866  13.735
96699SOL     OW91870  11.948  13.147   0.499
96699SOL    HW191871  11.929  13.056   0.521
96699SOL    HW291872  11.962  13.190   0.584
96700SOL     OW91873   0.029   8.940   6.092
96700SOL    HW191874   0.000   8.868   6.148
96700SOL    HW291875  14.826   8.978   6.058
96701SOL     OW91876   3.303   8.309   4.440
96701SOL    HW191877   3.366   8.323   4.369
96701SOL    HW291878   3.347   8.247   4.499
96702SOL     OW91879   0.670   4.337   7.876
96702SOL    HW191880   0.743   4.398   7.863
96702SOL    HW291881   0.621   4.375   7.950
96703SOL     OW91882  10.249   1.205  12.329
96703SOL    HW191883  10.248   1.124  12.276
96703SOL    HW291884  10.311   1.187  12.399
96704SOL     OW91885  10.589   6.614   0.559
96704SOL    HW191886  10.511   6.665   0.582
96704SOL    HW291887  10.619   6.651   0.476
96705SOL     OW91888   3.141   3.080   4.308
96705SOL    HW191889   3.197   3.078   4.385
96705SOL    HW291890   3.069   3.139   4.332
96706SOL     OW91891  12.724   2.306   2.301
96706SOL    HW191892  12.730   2.219   2.341
96706SOL    HW291893  12.669   2.356   2.362
96707SOL     OW91894   4.630  10.809   2.317
96707SOL    HW191895   4.645  10.834   2.226
96707SOL    HW291896   4.545  10.767   2.317
96708SOL     OW91897   1.472   9.190   5.863
96708SOL    HW191898   1.567   9.190   5.860
96708SOL    HW291899   1.450   9.107   5.906
96709SOL     OW91900   0.623   0.904  10.435
96709SOL    HW191901   0.600   0.972  10.371
96709SOL    HW291902   0.554   0.838  10.425
96710SOL     OW91903   4.945   4.643   9.056
96710SOL    HW191904   4.859   4.618   9.022
96710SOL    HW291905   4.970   4.572   9.114
96711SOL     OW91906   4.198  14.490  13.920
96711SOL    HW191907   4.120  14.505  13.972
96711SOL    HW291908   4.257  14.441  13.977
96712SOL     OW91909  14.523   4.214   8.170
96712SOL    HW191910  14.520   4.122   8.141
96712SOL    HW291911  14.491   4.212   8.260
96713SOL     OW91912  11.685   8.795  14.213
96713SOL    HW191913  11.775   8.774  14.188
96713SOL    HW291914  11.635   8.788  14.132
96714SOL     OW91915  10.805  12.361   5.161
96714SOL    HW191916  10.754  12.330   5.235
96714SOL    HW291917  10.762  12.324   5.084
96715SOL     OW91918   8.853   0.402  12.882
96715SOL    HW191919   8.928   0.443  12.839
96715SOL    HW291920   8.777   0.451  12.850
96716SOL     OW91921   5.124  11.180   0.758
96716SOL    HW191922   5.208  11.212   0.725
96716SOL    HW291923   5.108  11.231   0.837
96717SOL     OW91924   6.213  10.493   8.314
96717SOL    HW191925   6.261  10.411   8.303
96717SOL    HW291926   6.271  10.560   8.279
96718SOL     OW91927  10.479  12.731   1.171
96718SOL    HW191928  10.447  12.797   1.232
96718SOL    HW291929  10.549  12.774   1.123
96719SOL     OW91930  11.795   9.257   3.256
96719SOL    HW191931  11.779   9.255   3.350
96719SOL    HW291932  11.714   9.292   3.219
96720SOL     OW91933  10.898   7.671   5.997
96720SOL    HW191934  10.906   7.583   6.034
96720SOL    HW291935  10.828   7.664   5.932
96721SOL     OW91936  10.562   9.805  14.705
96721SOL    HW191937  10.650   9.833  14.680
96721SOL    HW291938  10.566   9.709  14.703
96722SOL     OW91939   7.227   5.028   2.426
96722SOL    HW191940   7.188   5.109   2.456
96722SOL    HW291941   7.291   5.055   2.360
96723SOL     OW91942   1.321   8.428   7.450
96723SOL    HW191943   1.267   8.485   7.505
96723SOL    HW291944   1.309   8.340   7.485
96724SOL     OW91945  12.217  12.087  12.419
96724SOL    HW191946  12.204  12.045  12.334
96724SOL    HW291947  12.285  12.152  12.404
96725SOL     OW91948   6.838   8.017   7.281
96725SOL    HW191949   6.901   7.948   7.299
96725SOL    HW291950   6.829   8.017   7.186
96726SOL     OW91951   4.737   4.465  10.833
96726SOL    HW191952   4.749   4.525  10.906
96726SOL    HW291953   4.717   4.381  10.875
96727SOL     OW91954   7.127   1.534   7.719
96727SOL    HW191955   7.208   1.560   7.676
96727SOL    HW291956   7.085   1.617   7.743
96728SOL     OW91957  10.472   8.139  12.154
96728SOL    HW191958  10.423   8.149  12.072
96728SOL    HW291959  10.549   8.088  12.130
96729SOL     OW91960   0.972   2.347   0.936
96729SOL    HW191961   1.062   2.376   0.952
96729SOL    HW291962   0.977   2.302   0.851
96730SOL     OW91963  10.463   6.190   6.733
96730SOL    HW191964  10.533   6.217   6.674
96730SOL    HW291965  10.496   6.109   6.772
96731SOL     OW91966  14.564   6.935  13.173
96731SOL    HW191967  14.485   6.988  13.162
96731SOL    HW291968  14.583   6.939  13.267
96732SOL     OW91969   3.149   9.342   0.845
96732SOL    HW191970   3.174   9.383   0.928
96732SOL    HW291971   3.214   9.273   0.832
96733SOL     OW91972   7.755   7.161   8.531
96733SOL    HW191973   7.724   7.250   8.512
96733SOL    HW291974   7.806   7.136   8.455
96734SOL     OW91975   2.134  11.572   7.778
96734SOL    HW191976   2.130  11.661   7.742
96734SOL    HW291977   2.049  11.560   7.820
96735SOL     OW91978   2.753  10.571   0.765
96735SOL    HW191979   2.800  10.616   0.695
96735SOL    HW291980   2.719  10.640   0.821
96736SOL     OW91981  10.143  14.862   2.264
96736SOL    HW191982  10.075   0.003   2.200
96736SOL    HW291983  10.223   0.017   2.225
96737SOL     OW91984  10.904  14.380   5.047
96737SOL    HW191985  10.907  14.464   5.093
96737SOL    HW291986  10.992  14.343   5.061
96738SOL     OW91987  11.133   7.787   0.202
96738SOL    HW191988  11.069   7.741   0.149
96738SOL    HW291989  11.192   7.718   0.234
96739SOL     OW91990  13.312   9.578   6.623
96739SOL    HW191991  13.391   9.552   6.576
96739SOL    HW291992  13.307   9.518   6.697
96740SOL     OW91993   5.884  13.032   4.025
96740SOL    HW191994   5.828  13.101   3.992
96740SOL    HW291995   5.912  12.984   3.946
96741SOL     OW91996  14.423   3.325  14.128
96741SOL    HW191997  14.459   3.408  14.159
96741SOL    HW291998  14.379   3.347  14.046
96742SOL     OW91999  11.053  10.793   6.555
96742SOL    HW192000  11.084  10.742   6.480
96742SOL    HW292001  11.120  10.860   6.567
96743SOL     OW92002  10.299  14.471   0.253
96743SOL    HW192003  10.313  14.457   0.347
96743SOL    HW292004  10.204  14.465   0.242
96744SOL     OW92005   3.495   6.372   2.611
96744SOL    HW192006   3.581   6.379   2.653
96744SOL    HW292007   3.439   6.429   2.663
96745SOL     OW92008  11.754   7.274  10.056
96745SOL    HW192009  11.749   7.333  10.131
96745SOL    HW292010  11.817   7.207  10.083
96746SOL     OW92011   6.216  13.907   5.417
96746SOL    HW192012   6.131  13.929   5.455
96746SOL    HW292013   6.202  13.909   5.323
96747SOL     OW92014   3.171  10.912   9.974
96747SOL    HW192015   3.199  10.978  10.038
96747SOL    HW292016   3.095  10.871  10.015
96748SOL     OW92017   1.268   9.140   7.556
96748SOL    HW192018   1.207   9.112   7.488
96748SOL    HW292019   1.297   9.059   7.598
96749SOL     OW92020   6.259   5.562   1.198
96749SOL    HW192021   6.338   5.540   1.148
96749SOL    HW292022   6.196   5.587   1.131
96750SOL     OW92023  14.746  11.340   7.970
96750SOL    HW192024  14.828  11.370   8.009
96750SOL    HW292025  14.749  11.244   7.980
96751SOL     OW92026   4.377   5.774   6.324
96751SOL    HW192027   4.329   5.848   6.285
96751SOL    HW292028   4.359   5.700   6.266
96752SOL     OW92029   7.867   5.589   8.278
96752SOL    HW192030   7.823   5.541   8.348
96752SOL    HW292031   7.823   5.560   8.198
96753SOL     OW92032   6.543  13.512   5.476
96753SOL    HW192033   6.543  13.436   5.534
96753SOL    HW292034   6.632  13.545   5.479
96754SOL     OW92035   8.691   4.381   0.543
96754SOL    HW192036   8.676   4.288   0.561
96754SOL    HW292037   8.609   4.411   0.505
96755SOL     OW92038   1.200  10.499   1.008
96755SOL    HW192039   1.150  10.573   1.044
96755SOL    HW292040   1.141  10.461   0.943
96756SOL     OW92041   6.449  13.592  11.254
96756SOL    HW192042   6.369  13.551  11.287
96756SOL    HW292043   6.458  13.559  11.164
96757SOL     OW92044   7.744   7.984   2.817
96757SOL    HW192045   7.761   8.077   2.806
96757SOL    HW292046   7.747   7.970   2.912
96758SOL     OW92047   1.295  14.615  12.049
96758SOL    HW192048   1.349  14.656  12.117
96758SOL    HW292049   1.205  14.629  12.078
96759SOL     OW92050   0.100  14.625  11.462
96759SOL    HW192051   0.060  14.690  11.404
96759SOL    HW292052   0.097  14.543  11.412
96760SOL     OW92053  11.195   0.395   5.976
96760SOL    HW192054  11.127   0.460   5.957
96760SOL    HW292055  11.152   0.333   6.035
96761SOL     OW92056   9.530  11.865   8.691
96761SOL    HW192057   9.496  11.776   8.682
96761SOL    HW292058   9.473  11.917   8.634
96762SOL     OW92059   6.414  11.914   5.699
96762SOL    HW192060   6.450  11.927   5.787
96762SOL    HW292061   6.320  11.930   5.710
96763SOL     OW92062   4.826  11.162   9.546
96763SOL    HW192063   4.746  11.119   9.575
96763SOL    HW292064   4.897  11.105   9.577
96764SOL     OW92065   8.939  12.396   3.500
96764SOL    HW192066   8.996  12.328   3.537
96764SOL    HW292067   8.851  12.363   3.512
96765SOL     OW92068   3.550   4.186   7.679
96765SOL    HW192069   3.619   4.132   7.716
96765SOL    HW292070   3.578   4.204   7.589
96766SOL     OW92071  14.709  12.720  11.351
96766SOL    HW192072  14.705  12.625  11.358
96766SOL    HW292073  14.740  12.749  11.436
96767SOL     OW92074   3.819   8.931  12.697
96767SOL    HW192075   3.912   8.951  12.683
96767SOL    HW292076   3.800   8.862  12.634
96768SOL     OW92077  12.858  14.304   5.913
96768SOL    HW192078  12.779  14.339   5.875
96768SOL    HW292079  12.830  14.265   5.996
96769SOL     OW92080   8.183   2.376   0.667
96769SOL    HW192081   8.131   2.404   0.742
96769SOL    HW292082   8.263   2.339   0.706
96770SOL     OW92083   6.711  13.066   4.283
96770SOL    HW192084   6.748  12.993   4.333
96770SOL    HW292085   6.616  13.060   4.297
96771SOL     OW92086  13.886  14.264   8.834
96771SOL    HW192087  13.875  14.359   8.836
96771SOL    HW292088  13.901  14.243   8.742
96772SOL     OW92089   8.401  13.741  12.407
96772SOL    HW192090   8.440  13.675  12.464
96772SOL    HW292091   8.414  13.824  12.453
96773SOL     OW92092  10.176  11.022   4.173
96773SOL    HW192093  10.169  11.115   4.149
96773SOL    HW292094  10.234  10.985   4.106
96774SOL     OW92095   5.980   1.138  12.911
96774SOL    HW192096   6.065   1.174  12.933
96774SOL    HW292097   5.931   1.211  12.873
96775SOL     OW92098   4.753  13.059   3.052
96775SOL    HW192099   4.674  13.083   3.003
96775SOL    HW292100   4.809  13.136   3.046
96776SOL     OW92101   2.632   6.828  13.913
96776SOL    HW192102   2.565   6.891  13.885
96776SOL    HW292103   2.584   6.763  13.964
96777SOL     OW92104   0.990   1.051   0.368
96777SOL    HW192105   1.083   1.073   0.362
96777SOL    HW292106   0.982   1.000   0.449
96778SOL     OW92107   3.313  10.573  10.381
96778SOL    HW192108   3.309  10.485  10.342
96778SOL    HW292109   3.336  10.558  10.472
96779SOL     OW92110   1.420   9.271  14.275
96779SOL    HW192111   1.392   9.257  14.365
96779SOL    HW292112   1.499   9.218  14.265
96780SOL     OW92113  14.502  11.889   9.418
96780SOL    HW192114  14.548  11.968   9.445
96780SOL    HW292115  14.570  11.832   9.382
96781SOL     OW92116  14.459   6.022   0.698
96781SOL    HW192117  14.545   6.057   0.677
96781SOL    HW292118  14.465   5.996   0.789
96782SOL     OW92119   5.237  13.839  13.546
96782SOL    HW192120   5.305  13.779  13.576
96782SOL    HW292121   5.276  13.883  13.470
96783SOL     OW92122   4.440   7.143  14.471
96783SOL    HW192123   4.475   7.230  14.491
96783SOL    HW292124   4.409   7.149  14.381
96784SOL     OW92125  11.889   9.893  10.191
96784SOL    HW192126  11.955   9.825  10.202
96784SOL    HW292127  11.919   9.944  10.116
96785SOL     OW92128  14.585   1.413   1.332
96785SOL    HW192129  14.566   1.473   1.260
96785SOL    HW292130  14.507   1.358   1.339
96786SOL     OW92131   8.335   7.236   2.084
96786SOL    HW192132   8.279   7.262   2.011
96786SOL    HW292133   8.306   7.291   2.157
96787SOL     OW92134   3.327  11.117   7.576
96787SOL    HW192135   3.398  11.180   7.588
96787SOL    HW292136   3.368  11.042   7.532
96788SOL     OW92137  14.477   0.412  13.526
96788SOL    HW192138  14.523   0.491  13.556
96788SOL    HW292139  14.522   0.340  13.570
96789SOL     OW92140  12.209   6.555  14.455
96789SOL    HW192141  12.287   6.570  14.402
96789SOL    HW292142  12.204   6.460  14.465
96790SOL     OW92143  10.970   1.227   4.655
96790SOL    HW192144  10.999   1.283   4.726
96790SOL    HW292145  10.914   1.284   4.601
96791SOL     OW92146   5.172   4.681   6.815
96791SOL    HW192147   5.145   4.768   6.847
96791SOL    HW292148   5.206   4.636   6.893
96792SOL     OW92149  14.476   2.384   7.350
96792SOL    HW192150  14.426   2.420   7.424
96792SOL    HW292151  14.458   2.445   7.278
96793SOL     OW92152   6.201   6.201  13.870
96793SOL    HW192153   6.209   6.260  13.795
96793SOL    HW292154   6.113   6.165  13.862
96794SOL     OW92155  12.274   0.919   7.179
96794SOL    HW192156  12.233   0.960   7.103
96794SOL    HW292157  12.288   0.992   7.240
96795SOL     OW92158   2.583  12.425   1.292
96795SOL    HW192159   2.666  12.379   1.288
96795SOL    HW292160   2.517  12.358   1.276
96796SOL     OW92161   3.331   3.121   3.540
96796SOL    HW192162   3.372   3.173   3.609
96796SOL    HW292163   3.305   3.185   3.474
96797SOL     OW92164   9.741  10.407  10.168
96797SOL    HW192165   9.673  10.473  10.156
96797SOL    HW292166   9.786  10.432  10.248
96798SOL     OW92167  10.719  11.393  14.284
96798SOL    HW192168  10.773  11.385  14.363
96798SOL    HW292169  10.631  11.372  14.314
96799SOL     OW92170   7.229   3.709   2.424
96799SOL    HW192171   7.161   3.670   2.480
96799SOL    HW292172   7.239   3.646   2.352
96800SOL     OW92173  11.683   8.237   5.262
96800SOL    HW192174  11.642   8.230   5.176
96800SOL    HW292175  11.763   8.286   5.246
96801SOL     OW92176  14.056  14.497   7.132
96801SOL    HW192177  14.126  14.457   7.079
96801SOL    HW292178  14.038  14.432   7.199
96802SOL     OW92179   5.784   0.049  11.948
96802SOL    HW192180   5.759  14.864  12.017
96802SOL    HW292181   5.766   0.135  11.987
96803SOL     OW92182  13.826   7.275  10.848
96803SOL    HW192183  13.855   7.312  10.765
96803SOL    HW292184  13.883   7.200  10.862
96804SOL     OW92185   2.464  11.981   6.963
96804SOL    HW192186   2.452  12.072   6.989
96804SOL    HW292187   2.378  11.953   6.933
96805SOL     OW92188  12.571   2.513  12.628
96805SOL    HW192189  12.542   2.430  12.666
96805SOL    HW292190  12.495   2.570  12.635
96806SOL     OW92191   4.000   6.363   8.483
96806SOL    HW192192   3.949   6.435   8.521
96806SOL    HW292193   4.061   6.406   8.422
96807SOL     OW92194  13.879   7.508   1.714
96807SOL    HW192195  13.794   7.522   1.671
96807SOL    HW292196  13.858   7.498   1.806
96808SOL     OW92197   0.875  14.866  10.456
96808SOL    HW192198   0.910   0.076  10.468
96808SOL    HW292199   0.930  14.827  10.388
96809SOL     OW92200   3.405   3.561   8.525
96809SOL    HW192201   3.336   3.613   8.567
96809SOL    HW292202   3.363   3.477   8.506
96810SOL     OW92203  10.767  12.929   1.426
96810SOL    HW192204  10.854  12.897   1.449
96810SOL    HW292205  10.744  12.987   1.499
96811SOL     OW92206   1.334   9.541  12.327
96811SOL    HW192207   1.319   9.555  12.234
96811SOL    HW292208   1.407   9.598  12.349
96812SOL     OW92209   5.539   2.203   3.360
96812SOL    HW192210   5.504   2.272   3.305
96812SOL    HW292211   5.464   2.149   3.383
96813SOL     OW92212   5.064   5.492  12.379
96813SOL    HW192213   5.012   5.526  12.306
96813SOL    HW292214   5.122   5.564  12.403
96814SOL     OW92215  13.234   2.204  10.050
96814SOL    HW192216  13.192   2.284  10.020
96814SOL    HW292217  13.281   2.171   9.974
96815SOL     OW92218  13.924   7.147   6.590
96815SOL    HW192219  13.929   7.233   6.631
96815SOL    HW292220  13.907   7.166   6.498
96816SOL     OW92221  10.834   7.752   9.978
96816SOL    HW192222  10.748   7.757   9.936
96816SOL    HW292223  10.895   7.739   9.906
96817SOL     OW92224   5.701   4.029  12.094
96817SOL    HW192225   5.795   4.046  12.085
96817SOL    HW292226   5.676   4.074  12.175
96818SOL     OW92227   6.829   8.486  10.629
96818SOL    HW192228   6.868   8.399  10.636
96818SOL    HW292229   6.903   8.546  10.644
96819SOL     OW92230   1.099  10.230  10.783
96819SOL    HW192231   1.017  10.273  10.806
96819SOL    HW292232   1.160  10.257  10.852
96820SOL     OW92233   1.502   4.016   9.896
96820SOL    HW192234   1.451   3.965   9.834
96820SOL    HW292235   1.534   4.091   9.846
96821SOL     OW92236  13.488  13.339   0.923
96821SOL    HW192237  13.582  13.327   0.912
96821SOL    HW292238  13.480  13.420   0.974
96822SOL     OW92239  14.807   1.739   2.540
96822SOL    HW192240  14.839   1.684   2.612
96822SOL    HW292241  14.834   1.693   2.461
96823SOL     OW92242  11.177   7.746   6.027
96823SOL    HW192243  11.111   7.779   5.967
96823SOL    HW292244  11.127   7.714   6.102
96824SOL     OW92245   8.260   0.759   3.886
96824SOL    HW192246   8.190   0.762   3.820
96824SOL    HW292247   8.308   0.679   3.866
96825SOL     OW92248   0.724   5.296  12.375
96825SOL    HW192249   0.754   5.211  12.406
96825SOL    HW292250   0.768   5.360  12.431
96826SOL     OW92251   7.725  11.871   4.400
96826SOL    HW192252   7.781  11.948   4.414
96826SOL    HW292253   7.640  11.908   4.375
96827SOL     OW92254  11.211   0.808  12.786
96827SOL    HW192255  11.222   0.856  12.868
96827SOL    HW292256  11.292   0.824  12.738
96828SOL     OW92257  14.308   3.004  10.635
96828SOL    HW192258  14.290   3.037  10.723
96828SOL    HW292259  14.374   2.935  10.648
96829SOL     OW92260   1.099  14.292   1.260
96829SOL    HW192261   1.162  14.363   1.250
96829SOL    HW292262   1.151  14.213   1.257
96830SOL     OW92263   7.198   1.074  11.430
96830SOL    HW192264   7.115   1.028  11.446
96830SOL    HW292265   7.225   1.044  11.342
96831SOL     OW92266   4.348   7.815   4.181
96831SOL    HW192267   4.273   7.765   4.214
96831SOL    HW292268   4.316   7.905   4.177
96832SOL     OW92269   3.038   2.710  14.819
96832SOL    HW192270   3.094   2.638  14.789
96832SOL    HW292271   3.065   2.785  14.765
96833SOL     OW92272   3.429   8.566   3.089
96833SOL    HW192273   3.523   8.564   3.108
96833SOL    HW292274   3.387   8.562   3.176
96834SOL     OW92275   0.216   7.324   9.760
96834SOL    HW192276   0.134   7.274   9.764
96834SOL    HW292277   0.276   7.267   9.713
96835SOL     OW92278  12.960   9.905   4.845
96835SOL    HW192279  12.888   9.842   4.835
96835SOL    HW292280  12.964   9.923   4.939
96836SOL     OW92281  14.218  13.193  13.602
96836SOL    HW192282  14.308  13.223  13.598
96836SOL    HW292283  14.215  13.135  13.679
96837SOL     OW92284   3.400   1.243   1.606
96837SOL    HW192285   3.372   1.295   1.531
96837SOL    HW292286   3.480   1.198   1.576
96838SOL     OW92287   3.830   5.508   0.862
96838SOL    HW192288   3.824   5.435   0.923
96838SOL    HW292289   3.909   5.491   0.811
96839SOL     OW92290   6.492  12.187   3.706
96839SOL    HW192291   6.549  12.264   3.709
96839SOL    HW292292   6.509  12.148   3.620
96840SOL     OW92293   8.364   2.183   3.633
96840SOL    HW192294   8.445   2.135   3.615
96840SOL    HW292295   8.377   2.221   3.720
96841SOL     OW92296  13.114   8.019  13.127
96841SOL    HW192297  13.202   7.990  13.150
96841SOL    HW292298  13.055   7.955  13.169
96842SOL     OW92299  13.582   9.467   9.874
96842SOL    HW192300  13.516   9.537   9.877
96842SOL    HW292301  13.534   9.388   9.900
96843SOL     OW92302   4.726  12.370  13.336
96843SOL    HW192303   4.769  12.419  13.265
96843SOL    HW292304   4.790  12.370  13.407
96844SOL     OW92305   6.237   7.443  11.559
96844SOL    HW192306   6.247   7.421  11.651
96844SOL    HW292307   6.195   7.529  11.559
96845SOL     OW92308  13.008  13.032   1.408
96845SOL    HW192309  13.082  12.993   1.361
96845SOL    HW292310  13.049  13.092   1.470
96846SOL     OW92311   9.810   4.251   3.299
96846SOL    HW192312   9.735   4.263   3.241
96846SOL    HW292313   9.856   4.175   3.263
96847SOL     OW92314   6.854   6.394   4.477
96847SOL    HW192315   6.934   6.352   4.508
96847SOL    HW292316   6.823   6.446   4.551
96848SOL     OW92317   9.397  12.157  11.945
96848SOL    HW192318   9.487  12.125  11.938
96848SOL    HW292319   9.373  12.142  12.037
96849SOL     OW92320  12.038   5.251   5.334
96849SOL    HW192321  12.006   5.211   5.415
96849SOL    HW292322  12.001   5.197   5.264
96850SOL     OW92323  12.517   0.488   4.422
96850SOL    HW192324  12.531   0.529   4.508
96850SOL    HW292325  12.519   0.394   4.440
96851SOL     OW92326   9.560  12.009   8.216
96851SOL    HW192327   9.603  11.947   8.275
96851SOL    HW292328   9.499  12.057   8.273
96852SOL     OW92329  11.345  12.092   5.349
96852SOL    HW192330  11.299  12.173   5.369
96852SOL    HW292331  11.281  12.023   5.364
96853SOL     OW92332   6.698  13.661  11.330
96853SOL    HW192333   6.751  13.645  11.252
96853SOL    HW292334   6.608  13.663  11.299
96854SOL     OW92335   9.605   4.329  11.774
96854SOL    HW192336   9.670   4.260  11.760
96854SOL    HW292337   9.527   4.297  11.728
96855SOL     OW92338   2.973  10.195  11.846
96855SOL    HW192339   2.952  10.274  11.796
96855SOL    HW292340   3.028  10.226  11.918
96856SOL     OW92341   8.574   3.468  14.504
96856SOL    HW192342   8.571   3.557  14.467
96856SOL    HW292343   8.518   3.473  14.582
96857SOL     OW92344  12.642   1.798   1.603
96857SOL    HW192345  12.643   1.850   1.523
96857SOL    HW292346  12.706   1.728   1.587
96858SOL     OW92347   2.813  12.593   3.720
96858SOL    HW192348   2.899  12.594   3.763
96858SOL    HW292349   2.817  12.519   3.659
96859SOL     OW92350  14.384  11.168   7.742
96859SOL    HW192351  14.379  11.077   7.773
96859SOL    HW292352  14.476  11.181   7.721
96860SOL     OW92353  10.712   5.256   1.672
96860SOL    HW192354  10.690   5.236   1.763
96860SOL    HW292355  10.755   5.341   1.676
96861SOL     OW92356  14.189   2.387   7.039
96861SOL    HW192357  14.162   2.354   6.953
96861SOL    HW292358  14.222   2.475   7.022
96862SOL     OW92359   6.377  14.497   3.948
96862SOL    HW192360   6.281  14.492   3.954
96862SOL    HW292361   6.408  14.427   4.006
96863SOL     OW92362   8.283   8.324   1.517
96863SOL    HW192363   8.247   8.254   1.462
96863SOL    HW292364   8.229   8.401   1.496
96864SOL     OW92365   6.785   9.756   8.547
96864SOL    HW192366   6.748   9.677   8.586
96864SOL    HW292367   6.853   9.724   8.488
96865SOL     OW92368  10.750   6.204  13.616
96865SOL    HW192369  10.758   6.160  13.700
96865SOL    HW292370  10.661   6.186  13.587
96866SOL     OW92371   0.523  12.679   4.028
96866SOL    HW192372   0.548  12.599   4.073
96866SOL    HW292373   0.429  12.689   4.045
96867SOL     OW92374  13.250   0.442  11.614
96867SOL    HW192375  13.208   0.453  11.528
96867SOL    HW292376  13.329   0.494  11.609
96868SOL     OW92377   1.815   3.168   0.551
96868SOL    HW192378   1.730   3.144   0.586
96868SOL    HW292379   1.841   3.094   0.496
96869SOL     OW92380   2.005  14.362   3.340
96869SOL    HW192381   2.005  14.418   3.262
96869SOL    HW292382   1.913  14.352   3.362
96870SOL     OW92383   0.206  11.308   8.010
96870SOL    HW192384   0.284  11.306   8.066
96870SOL    HW292385   0.173  11.397   8.018
96871SOL     OW92386   0.398  13.795   6.012
96871SOL    HW192387   0.401  13.742   6.092
96871SOL    HW292388   0.366  13.735   5.945
96872SOL     OW92389   8.907  13.814   1.611
96872SOL    HW192390   8.921  13.831   1.705
96872SOL    HW292391   8.859  13.891   1.580
96873SOL     OW92392  13.505   6.020   3.668
96873SOL    HW192393  13.473   6.002   3.757
96873SOL    HW292394  13.576   5.958   3.655
96874SOL     OW92395   9.826   0.211  12.504
96874SOL    HW192396   9.895   0.277  12.495
96874SOL    HW292397   9.811   0.207  12.599
96875SOL     OW92398  12.076   6.125   9.728
96875SOL    HW192399  12.037   6.038   9.740
96875SOL    HW292400  12.006   6.186   9.748
96876SOL     OW92401   1.109  10.145   8.704
96876SOL    HW192402   1.172  10.074   8.691
96876SOL    HW292403   1.082  10.169   8.615
96877SOL     OW92404  13.736  11.649   1.874
96877SOL    HW192405  13.735  11.555   1.894
96877SOL    HW292406  13.690  11.689   1.948
96878SOL     OW92407  10.260   9.788   7.355
96878SOL    HW192408  10.317   9.864   7.370
96878SOL    HW292409  10.289   9.751   7.272
96879SOL     OW92410   6.155   1.197   8.996
96879SOL    HW192411   6.067   1.218   8.965
96879SOL    HW292412   6.147   1.196   9.091
96880SOL     OW92413   5.326  13.526   7.742
96880SOL    HW192414   5.336  13.599   7.680
96880SOL    HW292415   5.283  13.565   7.818
96881SOL     OW92416   4.412  12.097  10.464
96881SOL    HW192417   4.390  12.016  10.510
96881SOL    HW292418   4.342  12.158  10.490
96882SOL     OW92419   8.907   0.113  12.200
96882SOL    HW192420   8.914   0.067  12.116
96882SOL    HW292421   8.984   0.083  12.250
96883SOL     OW92422   1.591   1.317  10.943
96883SOL    HW192423   1.511   1.354  10.907
96883SOL    HW292424   1.628   1.265  10.871
96884SOL     OW92425   3.501  10.781   4.134
96884SOL    HW192426   3.573  10.769   4.073
96884SOL    HW292427   3.539  10.762   4.220
96885SOL     OW92428   6.214   7.530   8.509
96885SOL    HW192429   6.178   7.474   8.578
96885SOL    HW292430   6.197   7.482   8.428
96886SOL     OW92431   7.358   2.513   7.446
96886SOL    HW192432   7.430   2.560   7.487
96886SOL    HW292433   7.279   2.553   7.485
96887SOL     OW92434   2.807  11.669  14.601
96887SOL    HW192435   2.722  11.650  14.561
96887SOL    HW292436   2.791  11.661  14.695
96888SOL     OW92437   7.420   9.466  12.067
96888SOL    HW192438   7.399   9.511  11.986
96888SOL    HW292439   7.483   9.524  12.111
96889SOL     OW92440   8.247  11.177   2.609
96889SOL    HW192441   8.336  11.142   2.603
96889SOL    HW292442   8.257  11.261   2.654
96890SOL     OW92443  13.706  13.916   8.811
96890SOL    HW192444  13.791  13.948   8.843
96890SOL    HW292445  13.661  13.885   8.889
96891SOL     OW92446   7.945   8.827   1.830
96891SOL    HW192447   7.986   8.782   1.756
96891SOL    HW292448   7.862   8.861   1.795
96892SOL     OW92449  14.276   0.674   9.747
96892SOL    HW192450  14.303   0.657   9.837
96892SOL    HW292451  14.216   0.748   9.753
96893SOL     OW92452  12.072   7.571   0.857
96893SOL    HW192453  12.111   7.640   0.802
96893SOL    HW292454  12.062   7.497   0.798
96894SOL     OW92455   2.981   7.958   5.825
96894SOL    HW192456   3.061   7.906   5.828
96894SOL    HW292457   2.930   7.920   5.754
96895SOL     OW92458   9.419   4.741   4.257
96895SOL    HW192459   9.427   4.653   4.220
96895SOL    HW292460   9.390   4.726   4.347
96896SOL     OW92461   1.149   2.711   5.106
96896SOL    HW192462   1.157   2.677   5.195
96896SOL    HW292463   1.177   2.802   5.113
96897SOL     OW92464  13.933   6.932  11.316
96897SOL    HW192465  13.845   6.902  11.341
96897SOL    HW292466  13.992   6.875  11.364
96898SOL     OW92467  13.453  10.713   6.758
96898SOL    HW192468  13.450  10.623   6.724
96898SOL    HW292469  13.405  10.764   6.692
96899SOL     OW92470   4.568  12.717   0.968
96899SOL    HW192471   4.635  12.652   0.944
96899SOL    HW292472   4.546  12.696   1.059
96900SOL     OW92473   9.606   4.480   0.083
96900SOL    HW192474   9.662   4.527   0.022
96900SOL    HW292475   9.652   4.485   0.167
96901SOL     OW92476   2.059   0.997  11.945
96901SOL    HW192477   2.052   0.911  11.904
96901SOL    HW292478   2.150   1.024  11.930
96902SOL     OW92479   0.666   6.207   2.899
96902SOL    HW192480   0.697   6.117   2.892
96902SOL    HW292481   0.582   6.207   2.852
96903SOL     OW92482   4.332  10.664   7.597
96903SOL    HW192483   4.324  10.609   7.519
96903SOL    HW292484   4.411  10.633   7.640
96904SOL     OW92485   3.991   3.388  14.571
96904SOL    HW192486   4.054   3.332  14.616
96904SOL    HW292487   4.042   3.462  14.539
96905SOL     OW92488   4.424   1.355   1.817
96905SOL    HW192489   4.457   1.393   1.898
96905SOL    HW292490   4.422   1.427   1.755
96906SOL     OW92491  13.357   8.807   9.756
96906SOL    HW192492  13.404   8.804   9.672
96906SOL    HW292493  13.348   8.715   9.781
96907SOL     OW92494  11.036   1.621   1.528
96907SOL    HW192495  11.051   1.534   1.490
96907SOL    HW292496  11.113   1.636   1.583
96908SOL     OW92497   9.146   2.022   9.873
96908SOL    HW192498   9.110   2.016   9.785
96908SOL    HW292499   9.132   2.114   9.898
96909SOL     OW92500   4.109   9.855   6.106
96909SOL    HW192501   4.023   9.814   6.119
96909SOL    HW292502   4.091   9.931   6.051
96910SOL     OW92503   2.802   5.727   6.991
96910SOL    HW192504   2.803   5.670   7.068
96910SOL    HW292505   2.859   5.800   7.014
96911SOL     OW92506   3.244   5.482   3.572
96911SOL    HW192507   3.315   5.417   3.572
96911SOL    HW292508   3.193   5.461   3.650
96912SOL     OW92509  13.319   2.279   8.184
96912SOL    HW192510  13.238   2.313   8.146
96912SOL    HW292511  13.300   2.274   8.278
96913SOL     OW92512   6.659  12.489   1.805
96913SOL    HW192513   6.736  12.439   1.833
96913SOL    HW292514   6.613  12.429   1.746
96914SOL     OW92515   4.714  10.630   8.353
96914SOL    HW192516   4.722  10.625   8.258
96914SOL    HW292517   4.743  10.719   8.375
96915SOL     OW92518   4.161   2.363  13.836
96915SOL    HW192519   4.106   2.322  13.904
96915SOL    HW292520   4.113   2.348  13.755
96916SOL     OW92521  10.247   3.605  13.450
96916SOL    HW192522  10.284   3.526  13.410
96916SOL    HW292523  10.318   3.670  13.443
96917SOL     OW92524  12.627  12.959   4.216
96917SOL    HW192525  12.542  12.967   4.172
96917SOL    HW292526  12.691  12.972   4.147
96918SOL     OW92527   7.648  14.202   8.265
96918SOL    HW192528   7.579  14.210   8.331
96918SOL    HW292529   7.648  14.287   8.220
96919SOL     OW92530   5.112  13.317   6.658
96919SOL    HW192531   5.135  13.356   6.742
96919SOL    HW292532   5.092  13.392   6.601
96920SOL     OW92533   8.008   3.108   3.557
96920SOL    HW192534   8.097   3.130   3.584
96920SOL    HW292535   8.004   3.134   3.464
96921SOL     OW92536   6.527   3.043  11.663
96921SOL    HW192537   6.521   2.959  11.618
96921SOL    HW292538   6.597   3.090  11.618
96922SOL     OW92539  12.816  10.631   3.109
96922SOL    HW192540  12.797  10.580   3.188
96922SOL    HW292541  12.731  10.638   3.064
96923SOL     OW92542  11.696  13.819   1.052
96923SOL    HW192543  11.736  13.901   1.080
96923SOL    HW292544  11.667  13.778   1.134
96924SOL     OW92545   4.355  10.494   4.347
96924SOL    HW192546   4.360  10.462   4.437
96924SOL    HW292547   4.286  10.560   4.349
96925SOL     OW92548  14.447   4.135   5.515
96925SOL    HW192549  14.411   4.056   5.555
96925SOL    HW292550  14.388   4.205   5.541
96926SOL     OW92551   0.020   8.447   0.122
96926SOL    HW192552   0.086   8.444   0.191
96926SOL    HW292553  14.823   8.399   0.157
96927SOL     OW92554   0.886   8.680   7.932
96927SOL    HW192555   0.840   8.608   7.891
96927SOL    HW292556   0.901   8.743   7.861
96928SOL     OW92557  14.698   5.394   6.706
96928SOL    HW192558  14.733   5.475   6.743
96928SOL    HW292559  14.620   5.376   6.758
96929SOL     OW92560  10.326   6.731  14.606
96929SOL    HW192561  10.248   6.787  14.596
96929SOL    HW292562  10.297   6.662  14.665
96930SOL     OW92563  12.746  10.137   5.015
96930SOL    HW192564  12.832  10.097   5.026
96930SOL    HW292565  12.761  10.210   4.955
96931SOL     OW92566   9.685   1.470   5.098
96931SOL    HW192567   9.679   1.376   5.079
96931SOL    HW292568   9.608   1.489   5.150
96932SOL     OW92569   5.195   7.862   4.915
96932SOL    HW192570   5.204   7.812   4.834
96932SOL    HW292571   5.285   7.881   4.942
96933SOL     OW92572  11.629   0.516   7.131
96933SOL    HW192573  11.536   0.508   7.108
96933SOL    HW292574  11.630   0.529   7.226
96934SOL     OW92575  10.883  13.850   7.012
96934SOL    HW192576  10.790  13.860   6.991
96934SOL    HW292577  10.896  13.755   7.016
96935SOL     OW92578   5.710   9.094   6.991
96935SOL    HW192579   5.730   9.009   7.032
96935SOL    HW292580   5.646   9.073   6.923
96936SOL     OW92581   4.352   9.351   7.195
96936SOL    HW192582   4.320   9.441   7.199
96936SOL    HW292583   4.428   9.355   7.136
96937SOL     OW92584   4.420   1.974   4.912
96937SOL    HW192585   4.442   1.953   5.002
96937SOL    HW292586   4.499   1.952   4.862
96938SOL     OW92587  13.745   3.865  10.429
96938SOL    HW192588  13.753   3.925  10.354
96938SOL    HW292589  13.812   3.799  10.414
96939SOL     OW92590   6.543  11.891  10.648
96939SOL    HW192591   6.590  11.867  10.568
96939SOL    HW292592   6.558  11.985  10.658
96940SOL     OW92593   0.755  14.565   0.626
96940SOL    HW192594   0.735  14.642   0.573
96940SOL    HW292595   0.769  14.495   0.563
96941SOL     OW92596  12.156   6.256  14.326
96941SOL    HW192597  12.211   6.208  14.264
96941SOL    HW292598  12.080   6.284  14.275
96942SOL     OW92599   4.507   1.741  14.031
96942SOL    HW192600   4.455   1.712  13.956
96942SOL    HW292601   4.443   1.774  14.094
96943SOL     OW92602  11.657  12.938   9.784
96943SOL    HW192603  11.607  12.923   9.704
96943SOL    HW292604  11.703  13.020   9.769
96944SOL     OW92605  13.022   6.087   0.964
96944SOL    HW192606  12.960   6.160   0.960
96944SOL    HW292607  13.091   6.118   1.022
96945SOL     OW92608  13.399   8.209   7.065
96945SOL    HW192609  13.352   8.292   7.073
96945SOL    HW292610  13.458   8.207   7.140
96946SOL     OW92611  12.006  13.006   6.999
96946SOL    HW192612  11.934  12.979   6.941
96946SOL    HW292613  11.972  13.082   7.046
96947SOL     OW92614   3.079  10.050   8.397
96947SOL    HW192615   3.099  10.061   8.490
96947SOL    HW292616   3.162  10.022   8.358
96948SOL     OW92617  12.081  10.602   9.680
96948SOL    HW192618  12.020  10.676   9.676
96948SOL    HW292619  12.149  10.623   9.617
96949SOL     OW92620   3.114  10.441   6.529
96949SOL    HW192621   3.123  10.359   6.578
96949SOL    HW292622   3.139  10.509   6.591
96950SOL     OW92623  14.221   3.996  13.548
96950SOL    HW192624  14.215   4.061  13.618
96950SOL    HW292625  14.286   3.932  13.580
96951SOL     OW92626   4.927   3.802  10.848
96951SOL    HW192627   4.865   3.846  10.905
96951SOL    HW292628   4.880   3.789  10.766
96952SOL     OW92629   3.706   6.680  10.196
96952SOL    HW192630   3.729   6.646  10.283
96952SOL    HW292631   3.614   6.705  10.205
96953SOL     OW92632   8.308  14.281  11.288
96953SOL    HW192633   8.279  14.315  11.204
96953SOL    HW292634   8.228  14.270  11.339
96954SOL     OW92635   9.470   1.352  13.025
96954SOL    HW192636   9.406   1.409  12.981
96954SOL    HW292637   9.520   1.314  12.953
96955SOL     OW92638   6.624   6.806   6.109
96955SOL    HW192639   6.640   6.899   6.092
96955SOL    HW292640   6.700   6.761   6.071
96956SOL     OW92641   9.521  13.213   6.932
96956SOL    HW192642   9.459  13.157   6.977
96956SOL    HW292643   9.594  13.156   6.908
96957SOL     OW92644  14.130  11.166  13.171
96957SOL    HW192645  14.038  11.137  13.177
96957SOL    HW292646  14.179  11.086  13.154
96958SOL     OW92647   1.118   0.891   5.031
96958SOL    HW192648   1.159   0.957   5.086
96958SOL    HW292649   1.178   0.817   5.034
96959SOL     OW92650   8.362   8.081   2.290
96959SOL    HW192651   8.404   8.027   2.357
96959SOL    HW292652   8.298   8.132   2.339
96960SOL     OW92653  11.204   2.204  10.114
96960SOL    HW192654  11.121   2.161  10.137
96960SOL    HW292655  11.208   2.198  10.018
96961SOL     OW92656   3.306   5.904  12.663
96961SOL    HW192657   3.343   5.988  12.689
96961SOL    HW292658   3.217   5.905  12.699
96962SOL     OW92659   8.486   7.725   0.494
96962SOL    HW192660   8.503   7.756   0.583
96962SOL    HW292661   8.552   7.769   0.440
96963SOL     OW92662  12.291  10.731   3.167
96963SOL    HW192663  12.214  10.747   3.112
96963SOL    HW292664  12.265  10.759   3.255
96964SOL     OW92665   7.591   6.962   8.433
96964SOL    HW192666   7.628   7.041   8.472
96964SOL    HW292667   7.537   6.995   8.361
96965SOL     OW92668   4.232   8.503   4.961
96965SOL    HW192669   4.270   8.584   4.929
96965SOL    HW292670   4.299   8.466   5.019
96966SOL     OW92671   4.675   9.410   3.258
96966SOL    HW192672   4.620   9.479   3.220
96966SOL    HW292673   4.628   9.382   3.337
96967SOL     OW92674   8.577   7.555  14.638
96967SOL    HW192675   8.516   7.483  14.655
96967SOL    HW292676   8.624   7.528  14.558
96968SOL     OW92677   1.800   8.459   2.512
96968SOL    HW192678   1.729   8.439   2.452
96968SOL    HW292679   1.842   8.536   2.474
96969SOL     OW92680   6.180   7.893   1.553
96969SOL    HW192681   6.100   7.872   1.601
96969SOL    HW292682   6.188   7.988   1.560
96970SOL     OW92683   5.111  14.008   9.774
96970SOL    HW192684   5.030  14.059   9.788
96970SOL    HW292685   5.180  14.074   9.775
96971SOL     OW92686  14.655   0.148   3.318
96971SOL    HW192687  14.730   0.094   3.343
96971SOL    HW292688  14.593   0.139   3.390
96972SOL     OW92689  14.124   5.412   6.770
96972SOL    HW192690  14.050   5.465   6.801
96972SOL    HW292691  14.188   5.417   6.841
96973SOL     OW92692   4.936  13.922   5.568
96973SOL    HW192693   4.890  13.840   5.546
96973SOL    HW292694   4.928  13.929   5.663
96974SOL     OW92695   3.887   9.416   7.558
96974SOL    HW192696   3.823   9.350   7.532
96974SOL    HW292697   3.838   9.498   7.557
96975SOL     OW92698   9.231   0.598   1.493
96975SOL    HW192699   9.323   0.572   1.487
96975SOL    HW292700   9.234   0.689   1.525
96976SOL     OW92701  13.072   8.527   3.600
96976SOL    HW192702  13.129   8.591   3.645
96976SOL    HW292703  13.018   8.580   3.542
96977SOL     OW92704  13.143   9.964   2.129
96977SOL    HW192705  13.095   9.937   2.051
96977SOL    HW292706  13.095   9.926   2.202
96978SOL     OW92707   3.579   5.572  11.128
96978SOL    HW192708   3.550   5.522  11.205
96978SOL    HW292709   3.666   5.538  11.108
96979SOL     OW92710   5.695   8.549  14.179
96979SOL    HW192711   5.689   8.626  14.123
96979SOL    HW292712   5.695   8.584  14.268
96980SOL     OW92713   0.527   2.181  12.304
96980SOL    HW192714   0.567   2.248  12.359
96980SOL    HW292715   0.600   2.140  12.259
96981SOL     OW92716   8.237   3.596   8.672
96981SOL    HW192717   8.212   3.517   8.625
96981SOL    HW292718   8.287   3.565   8.747
96982SOL     OW92719   7.374   7.890   3.284
96982SOL    HW192720   7.379   7.799   3.256
96982SOL    HW292721   7.446   7.901   3.346
96983SOL     OW92722   3.361   4.473   4.059
96983SOL    HW192723   3.370   4.510   4.147
96983SOL    HW292724   3.398   4.385   4.066
96984SOL     OW92725   1.508   2.660   6.901
96984SOL    HW192726   1.432   2.711   6.930
96984SOL    HW292727   1.483   2.627   6.815
96985SOL     OW92728   5.735  12.222   5.197
96985SOL    HW192729   5.702  12.234   5.286
96985SOL    HW292730   5.665  12.257   5.141
96986SOL     OW92731   2.650   3.340   7.280
96986SOL    HW192732   2.649   3.398   7.204
96986SOL    HW292733   2.720   3.374   7.335
96987SOL     OW92734  11.174   7.783   7.591
96987SOL    HW192735  11.090   7.767   7.547
96987SOL    HW292736  11.159   7.759   7.682
96988SOL     OW92737   3.736  12.835   3.916
96988SOL    HW192738   3.774  12.805   3.833
96988SOL    HW292739   3.643  12.845   3.897
96989SOL     OW92740  10.500   8.759   7.787
96989SOL    HW192741  10.446   8.759   7.708
96989SOL    HW292742  10.440   8.734   7.857
96990SOL     OW92743   2.875  11.181   6.142
96990SOL    HW192744   2.923  11.120   6.086
96990SOL    HW292745   2.783  11.157   6.130
96991SOL     OW92746   0.127   1.692   5.258
96991SOL    HW192747   0.210   1.647   5.246
96991SOL    HW292748   0.094   1.660   5.342
96992SOL     OW92749   8.897   8.362  11.133
96992SOL    HW192750   8.815   8.324  11.103
96992SOL    HW292751   8.926   8.418  11.062
96993SOL     OW92752  14.541  14.265   2.837
96993SOL    HW192753  14.555  14.351   2.797
96993SOL    HW292754  14.605  14.209   2.794
96994SOL     OW92755  14.292   1.954   2.089
96994SOL    HW192756  14.209   2.001   2.096
96994SOL    HW292757  14.269   1.870   2.048
96995SOL     OW92758  13.306   2.777  11.271
96995SOL    HW192759  13.219   2.791  11.232
96995SOL    HW292760  13.300   2.820  11.356
96996SOL     OW92761  14.877   8.078  12.270
96996SOL    HW192762   0.063   8.021  12.226
96996SOL    HW292763  14.855   8.145  12.206
96997SOL     OW92764   9.692   4.952   6.766
96997SOL    HW192765   9.641   4.958   6.847
96997SOL    HW292766   9.663   4.870   6.726
96998SOL     OW92767   1.385   8.279   5.996
96998SOL    HW192768   1.440   8.206   5.968
96998SOL    HW292769   1.386   8.340   5.921
96999SOL     OW92770   5.946   5.778   9.100
96999SOL    HW192771   5.973   5.692   9.068
96999SOL    HW292772   5.997   5.840   9.046
97000SOL     OW92773   5.859   0.414   4.293
97000SOL    HW192774   5.872   0.352   4.366
97000SOL    HW292775   5.910   0.491   4.319
97001SOL     OW92776   5.001   0.681   3.815
97001SOL    HW192777   5.004   0.639   3.728
97001SOL    HW292778   5.090   0.711   3.830
97002SOL     OW92779   6.627   4.333   2.211
97002SOL    HW192780   6.643   4.241   2.193
97002SOL    HW292781   6.659   4.379   2.134
97003SOL     OW92782   0.915   6.584  10.519
97003SOL    HW192783   0.923   6.614  10.428
97003SOL    HW292784   0.876   6.659  10.565
97004SOL     OW92785   1.764  13.016   2.244
97004SOL    HW192786   1.771  12.935   2.193
97004SOL    HW292787   1.670  13.028   2.257
97005SOL     OW92788   1.879  10.506  14.477
97005SOL    HW192789   1.875  10.426  14.528
97005SOL    HW292790   1.838  10.572  14.533
97006SOL     OW92791   5.691   7.437  14.179
97006SOL    HW192792   5.619   7.374  14.181
97006SOL    HW292793   5.756   7.398  14.121
97007SOL     OW92794  10.830   0.448  14.004
97007SOL    HW192795  10.858   0.509  14.073
97007SOL    HW292796  10.774   0.386  14.050
97008SOL     OW92797   3.824   2.838   2.968
97008SOL    HW192798   3.839   2.926   2.933
97008SOL    HW292799   3.737   2.813   2.937
97009SOL     OW92800  11.887   7.494  12.993
97009SOL    HW192801  11.795   7.521  12.991
97009SOL    HW292802  11.883   7.399  13.009
97010SOL     OW92803  11.638   6.249   2.305
97010SOL    HW192804  11.614   6.169   2.259
97010SOL    HW292805  11.705   6.290   2.250
97011SOL     OW92806  10.256   9.648  12.122
97011SOL    HW192807  10.240   9.712  12.053
97011SOL    HW292808  10.351   9.632  12.118
97012SOL     OW92809   8.395   1.880   8.371
97012SOL    HW192810   8.444   1.834   8.303
97012SOL    HW292811   8.346   1.948   8.324
97013SOL     OW92812   3.192   2.978   5.232
97013SOL    HW192813   3.284   2.996   5.211
97013SOL    HW292814   3.191   2.886   5.257
97014SOL     OW92815   7.195   8.131   9.876
97014SOL    HW192816   7.253   8.159   9.806
97014SOL    HW292817   7.107   8.153   9.844
97015SOL     OW92818   1.202  13.996  14.856
97015SOL    HW192819   1.178  14.048   0.055
97015SOL    HW292820   1.214  13.908   0.012
97016SOL     OW92821   6.734   8.459   9.023
97016SOL    HW192822   6.696   8.393   8.966
97016SOL    HW292823   6.754   8.532   8.965
97017SOL     OW92824   0.130   1.853  10.539
97017SOL    HW192825   0.116   1.942  10.506
97017SOL    HW292826   0.072   1.846  10.615
97018SOL     OW92827  12.326   8.134   0.529
97018SOL    HW192828  12.250   8.185   0.556
97018SOL    HW292829  12.401   8.186   0.558
97019SOL     OW92830   0.655   7.637   4.966
97019SOL    HW192831   0.733   7.588   4.939
97019SOL    HW292832   0.681   7.729   4.958
97020SOL     OW92833   6.675  12.695  14.351
97020SOL    HW192834   6.590  12.722  14.314
97020SOL    HW292835   6.654  12.664  14.439
97021SOL     OW92836  13.258   7.922   5.302
97021SOL    HW192837  13.260   7.897   5.209
97021SOL    HW292838  13.240   8.016   5.301
97022SOL     OW92839   8.607   7.500   7.304
97022SOL    HW192840   8.543   7.428   7.299
97022SOL    HW292841   8.554   7.579   7.315
97023SOL     OW92842   7.016   5.821   0.280
97023SOL    HW192843   7.077   5.869   0.335
97023SOL    HW292844   7.051   5.732   0.278
97024SOL     OW92845   9.479   5.640   2.991
97024SOL    HW192846   9.540   5.712   2.973
97024SOL    HW292847   9.471   5.637   3.086
97025SOL     OW92848   0.926   2.716  13.989
97025SOL    HW192849   0.917   2.634  14.037
97025SOL    HW292850   0.842   2.761  14.002
97026SOL     OW92851   8.095  14.479   7.389
97026SOL    HW192852   8.044  14.555   7.359
97026SOL    HW292853   8.041  14.441   7.458
97027SOL     OW92854   7.391   6.817   3.441
97027SOL    HW192855   7.455   6.862   3.496
97027SOL    HW292856   7.348   6.887   3.393
97028SOL     OW92857   6.168  11.847   2.694
97028SOL    HW192858   6.169  11.942   2.710
97028SOL    HW292859   6.076  11.828   2.674
97029SOL     OW92860   2.502   5.962  14.771
97029SOL    HW192861   2.523   5.879  14.814
97029SOL    HW292862   2.481   5.937  14.681
97030SOL     OW92863  10.388  13.990   6.563
97030SOL    HW192864  10.382  13.986   6.468
97030SOL    HW292865  10.321  13.928   6.594
97031SOL     OW92866  12.497   1.814   3.752
97031SOL    HW192867  12.585   1.782   3.734
97031SOL    HW292868  12.444   1.735   3.760
97032SOL     OW92869   4.911   9.401  12.776
97032SOL    HW192870   4.838   9.353  12.738
97032SOL    HW292871   4.900   9.491  12.745
97033SOL     OW92872   4.083   9.011   2.372
97033SOL    HW192873   4.089   9.059   2.289
97033SOL    HW292874   4.094   9.077   2.440
97034SOL     OW92875   7.678   3.028   7.732
97034SOL    HW192876   7.678   2.959   7.798
97034SOL    HW292877   7.683   3.109   7.782
97035SOL     OW92878   3.828   8.341   6.632
97035SOL    HW192879   3.898   8.276   6.622
97035SOL    HW292880   3.850   8.387   6.713
97036SOL     OW92881   1.282  10.727   3.034
97036SOL    HW192882   1.290  10.705   2.941
97036SOL    HW292883   1.363  10.774   3.054
97037SOL     OW92884   5.952  12.754  10.046
97037SOL    HW192885   5.994  12.769   9.961
97037SOL    HW292886   6.025  12.731  10.104
97038SOL     OW92887   9.923   3.492   9.911
97038SOL    HW192888   9.886   3.518   9.827
97038SOL    HW292889   9.867   3.535   9.976
97039SOL     OW92890   3.315   2.865   0.836
97039SOL    HW192891   3.294   2.851   0.928
97039SOL    HW292892   3.372   2.942   0.836
97040SOL     OW92893   6.199   1.161  14.001
97040SOL    HW192894   6.288   1.134  13.981
97040SOL    HW292895   6.147   1.132  13.925
97041SOL     OW92896   3.121   3.291   7.014
97041SOL    HW192897   3.029   3.317   7.002
97041SOL    HW292898   3.152   3.344   7.087
97042SOL     OW92899  11.743   8.322  12.094
97042SOL    HW192900  11.818   8.380  12.083
97042SOL    HW292901  11.768   8.263  12.165
97043SOL     OW92902  10.796  11.262   7.408
97043SOL    HW192903  10.724  11.235   7.351
97043SOL    HW292904  10.814  11.184   7.461
97044SOL     OW92905  12.854  12.920  12.624
97044SOL    HW192906  12.816  12.845  12.670
97044SOL    HW292907  12.946  12.895  12.611
97045SOL     OW92908   6.786   2.500  12.272
97045SOL    HW192909   6.877   2.524  12.292
97045SOL    HW292910   6.738   2.518  12.353
97046SOL     OW92911   8.168   0.032  11.284
97046SOL    HW192912   8.183   0.064  11.195
97046SOL    HW292913   8.208   0.098  11.341
97047SOL     OW92914  12.864  10.078   6.553
97047SOL    HW192915  12.777  10.046   6.526
97047SOL    HW292916  12.894  10.016   6.618
97048SOL     OW92917   3.378  11.145   0.828
97048SOL    HW192918   3.373  11.074   0.891
97048SOL    HW292919   3.292  11.146   0.786
97049SOL     OW92920  12.178   7.860   9.229
97049SOL    HW192921  12.110   7.843   9.164
97049SOL    HW292922  12.259   7.870   9.178
97050SOL     OW92923  14.358  11.677  13.140
97050SOL    HW192924  14.346  11.625  13.060
97050SOL    HW292925  14.367  11.767  13.109
97051SOL     OW92926   9.030   2.602  13.934
97051SOL    HW192927   8.994   2.687  13.910
97051SOL    HW292928   8.955   2.542  13.926
97052SOL     OW92929  14.273   9.029   7.311
97052SOL    HW192930  14.335   9.096   7.341
97052SOL    HW292931  14.252   9.055   7.222
97053SOL     OW92932   9.475   0.264   8.930
97053SOL    HW192933   9.552   0.315   8.906
97053SOL    HW292934   9.504   0.211   9.004
97054SOL     OW92935  12.284  14.303   7.555
97054SOL    HW192936  12.343  14.308   7.630
97054SOL    HW292937  12.222  14.234   7.578
97055SOL     OW92938   3.119  12.905   4.236
97055SOL    HW192939   3.103  12.900   4.330
97055SOL    HW292940   3.146  12.996   4.222
97056SOL     OW92941   4.154   5.321   4.348
97056SOL    HW192942   4.214   5.279   4.287
97056SOL    HW292943   4.090   5.253   4.370
97057SOL     OW92944  13.700   5.161   2.894
97057SOL    HW192945  13.710   5.120   2.808
97057SOL    HW292946  13.779   5.214   2.905
97058SOL     OW92947  10.511   1.471   1.372
97058SOL    HW192948  10.596   1.485   1.413
97058SOL    HW292949  10.456   1.543   1.405
97059SOL     OW92950  11.150   8.752  12.877
97059SOL    HW192951  11.165   8.830  12.823
97059SOL    HW292952  11.231   8.702  12.871
97060SOL     OW92953   6.606  10.303   0.330
97060SOL    HW192954   6.665  10.288   0.403
97060SOL    HW292955   6.522  10.267   0.359
97061SOL     OW92956   3.274   5.785   3.257
97061SOL    HW192957   3.188   5.745   3.243
97061SOL    HW292958   3.328   5.752   3.185
97062SOL     OW92959   5.162   5.493  11.879
97062SOL    HW192960   5.233   5.429  11.885
97062SOL    HW292961   5.154   5.511  11.785
97063SOL     OW92962  11.630  10.365   1.045
97063SOL    HW192963  11.609  10.459   1.036
97063SOL    HW292964  11.719  10.363   1.080
97064SOL     OW92965   5.439   7.084   4.581
97064SOL    HW192966   5.480   7.170   4.581
97064SOL    HW292967   5.436   7.058   4.673
97065SOL     OW92968   9.416   2.535   7.902
97065SOL    HW192969   9.399   2.614   7.953
97065SOL    HW292970   9.511   2.527   7.899
97066SOL     OW92971   8.112  14.787   1.389
97066SOL    HW192972   8.114   0.004   1.403
97066SOL    HW292973   8.048  14.755   1.453
97067SOL     OW92974  10.463  13.217  12.671
97067SOL    HW192975  10.403  13.286  12.698
97067SOL    HW292976  10.547  13.261  12.657
97068SOL     OW92977   0.071   7.790  10.629
97068SOL    HW192978   0.016   7.868  10.635
97068SOL    HW292979   0.011   7.721  10.600
97069SOL     OW92980   0.624  14.500   3.326
97069SOL    HW192981   0.617  14.420   3.274
97069SOL    HW292982   0.624  14.571   3.262
97070SOL     OW92983   3.109  11.253  11.583
97070SOL    HW192984   3.020  11.279  11.557
97070SOL    HW292985   3.150  11.223  11.501
97071SOL     OW92986   5.922   8.567   3.268
97071SOL    HW192987   5.940   8.576   3.175
97071SOL    HW292988   5.941   8.653   3.305
97072SOL     OW92989  12.110   9.339   3.478
97072SOL    HW192990  12.055   9.261   3.487
97072SOL    HW292991  12.057   9.411   3.512
97073SOL     OW92992   7.170   1.641   0.119
97073SOL    HW192993   7.252   1.680   0.088
97073SOL    HW292994   7.188   1.547   0.122
97074SOL     OW92995   3.840  10.053   9.511
97074SOL    HW192996   3.773  10.012   9.566
97074SOL    HW292997   3.900  10.095   9.572
97075SOL     OW92998   1.281   8.370   3.907
97075SOL    HW192999   1.338   8.386   3.832
97075SOL    HW293000   1.318   8.292   3.949
97076SOL     OW93001  13.219   6.869   1.280
97076SOL    HW193002  13.225   6.828   1.194
97076SOL    HW293003  13.299   6.842   1.325
97077SOL     OW93004  11.667  14.563   6.453
97077SOL    HW193005  11.620  14.537   6.532
97077SOL    HW293006  11.755  14.585   6.484
97078SOL     OW93007   0.150   3.645   0.388
97078SOL    HW193008   0.067   3.638   0.341
97078SOL    HW293009   0.129   3.616   0.477
97079SOL     OW93010   4.339  11.716   8.545
97079SOL    HW193011   4.416  11.689   8.596
97079SOL    HW293012   4.281  11.758   8.609
97080SOL     OW93013  10.755   3.538   9.391
97080SOL    HW193014  10.805   3.606   9.435
97080SOL    HW293015  10.800   3.525   9.307
97081SOL     OW93016   4.661   6.050   7.396
97081SOL    HW193017   4.665   5.972   7.452
97081SOL    HW293018   4.749   6.058   7.360
97082SOL     OW93019  13.477   9.049   1.688
97082SOL    HW193020  13.472   9.014   1.777
97082SOL    HW293021  13.559   9.015   1.653
97083SOL     OW93022   4.786   5.144  13.229
97083SOL    HW193023   4.861   5.154  13.288
97083SOL    HW293024   4.710   5.159  13.285
97084SOL     OW93025   3.532  11.595   5.963
97084SOL    HW193026   3.611  11.650   5.968
97084SOL    HW293027   3.480  11.621   6.039
97085SOL     OW93028   9.235   3.036  11.805
97085SOL    HW193029   9.264   3.098  11.871
97085SOL    HW293030   9.231   3.086  11.724
97086SOL     OW93031  13.998  12.930  13.105
97086SOL    HW193032  13.922  12.970  13.063
97086SOL    HW293033  14.024  12.992  13.173
97087SOL     OW93034   5.225  14.098   1.255
97087SOL    HW193035   5.284  14.125   1.185
97087SOL    HW293036   5.281  14.084   1.331
97088SOL     OW93037   1.140   4.976   1.750
97088SOL    HW193038   1.057   5.000   1.791
97088SOL    HW293039   1.151   4.883   1.772
97089SOL     OW93040   8.241   4.788   6.402
97089SOL    HW193041   8.203   4.719   6.347
97089SOL    HW293042   8.166   4.827   6.447
97090SOL     OW93043  10.562   0.584   6.204
97090SOL    HW193044  10.505   0.567   6.130
97090SOL    HW293045  10.504   0.618   6.272
97091SOL     OW93046   2.246   2.080   5.750
97091SOL    HW193047   2.335   2.112   5.733
97091SOL    HW293048   2.254   2.028   5.830
97092SOL     OW93049   2.927   8.203  14.437
97092SOL    HW193050   2.847   8.233  14.481
97092SOL    HW293051   2.951   8.275  14.380
97093SOL     OW93052   6.646   7.670   2.258
97093SOL    HW193053   6.577   7.610   2.229
97093SOL    HW293054   6.606   7.757   2.251
97094SOL     OW93055  14.120   6.448  14.608
97094SOL    HW193056  14.216   6.441  14.609
97094SOL    HW293057  14.103   6.541  14.593
97095SOL     OW93058  13.757   3.256  10.038
97095SOL    HW193059  13.762   3.191   9.968
97095SOL    HW293060  13.828   3.232  10.098
97096SOL     OW93061  13.770   5.699   7.177
97096SOL    HW193062  13.705   5.752   7.223
97096SOL    HW293063  13.833   5.674   7.245
97097SOL     OW93064   6.168   3.199   0.062
97097SOL    HW193065   6.220   3.272   0.096
97097SOL    HW293066   6.208   3.178  14.856
97098SOL     OW93067   9.346   6.626  10.926
97098SOL    HW193068   9.330   6.709  10.972
97098SOL    HW293069   9.316   6.643  10.837
97099SOL     OW93070   4.260   3.150   4.695
97099SOL    HW193071   4.226   3.094   4.624
97099SOL    HW293072   4.338   3.104   4.725
97100SOL     OW93073   1.182   9.149  10.065
97100SOL    HW193074   1.097   9.185  10.041
97100SOL    HW293075   1.189   9.164  10.159
97101SOL     OW93076   5.952   4.880  14.035
97101SOL    HW193077   5.880   4.823  14.061
97101SOL    HW293078   5.992   4.909  14.118
97102SOL     OW93079   2.249   5.401   7.393
97102SOL    HW193080   2.164   5.385   7.434
97102SOL    HW293081   2.312   5.358   7.451
97103SOL     OW93082   8.593  10.185   4.104
97103SOL    HW193083   8.508  10.171   4.062
97103SOL    HW293084   8.647  10.113   4.072
97104SOL     OW93085   0.029   8.132   3.384
97104SOL    HW193086  14.835   8.136   3.448
97104SOL    HW293087   0.002   8.065   3.322
97105SOL     OW93088  10.397   1.451   8.753
97105SOL    HW193089  10.376   1.539   8.784
97105SOL    HW293090  10.413   1.462   8.659
97106SOL     OW93091   8.712  13.919   4.535
97106SOL    HW193092   8.791  13.906   4.482
97106SOL    HW293093   8.707  13.842   4.591
97107SOL     OW93094   5.111  12.466   6.451
97107SOL    HW193095   5.025  12.448   6.488
97107SOL    HW293096   5.115  12.561   6.443
97108SOL     OW93097   3.860   1.252  10.189
97108SOL    HW193098   3.838   1.173  10.239
97108SOL    HW293099   3.952   1.269  10.212
97109SOL     OW93100   7.886  12.411   8.739
97109SOL    HW193101   7.869  12.334   8.794
97109SOL    HW293102   7.826  12.477   8.772
97110SOL     OW93103  14.526   2.459   6.952
97110SOL    HW193104  14.525   2.528   7.019
97110SOL    HW293105  14.582   2.391   6.989
97111SOL     OW93106  13.051   5.824  11.558
97111SOL    HW193107  12.965   5.825  11.600
97111SOL    HW293108  13.057   5.738  11.516
97112SOL     OW93109   9.064   2.499   6.721
97112SOL    HW193110   9.085   2.530   6.809
97112SOL    HW293111   9.089   2.406   6.722
97113SOL     OW93112   9.495   4.344  14.492
97113SOL    HW193113   9.492   4.401  14.416
97113SOL    HW293114   9.583   4.306  14.489
97114SOL     OW93115   7.837  10.819   5.601
97114SOL    HW193116   7.905  10.759   5.632
97114SOL    HW293117   7.803  10.776   5.522
97115SOL     OW93118   0.406  11.143   2.827
97115SOL    HW193119   0.482  11.201   2.832
97115SOL    HW293120   0.380  11.131   2.918
97116SOL     OW93121  14.134   7.974   5.401
97116SOL    HW193122  14.078   7.925   5.340
97116SOL    HW293123  14.072   8.013   5.463
97117SOL     OW93124   5.584   8.363   9.909
97117SOL    HW193125   5.529   8.358   9.831
97117SOL    HW293126   5.542   8.429   9.964
97118SOL     OW93127   6.745  10.325   7.762
97118SOL    HW193128   6.652  10.334   7.779
97118SOL    HW293129   6.758  10.232   7.747
97119SOL     OW93130   9.028   5.086   6.779
97119SOL    HW193131   9.039   4.994   6.801
97119SOL    HW293132   8.941   5.091   6.738
97120SOL     OW93133   8.335  10.687  12.384
97120SOL    HW193134   8.426  10.684  12.411
97120SOL    HW293135   8.335  10.736  12.302
97121SOL     OW93136   5.055  14.328   4.377
97121SOL    HW193137   5.007  14.339   4.459
97121SOL    HW293138   5.134  14.281   4.401
97122SOL     OW93139   0.754   6.379  12.980
97122SOL    HW193140   0.699   6.358  12.904
97122SOL    HW293141   0.714   6.457  13.018
97123SOL     OW93142  12.653   7.589   5.998
97123SOL    HW193143  12.739   7.588   6.040
97123SOL    HW293144  12.659   7.658   5.932
97124SOL     OW93145   5.579   5.034  13.976
97124SOL    HW193146   5.562   4.971  13.906
97124SOL    HW293147   5.618   5.109  13.931
97125SOL     OW93148  12.219   5.345   6.712
97125SOL    HW193149  12.305   5.315   6.683
97125SOL    HW293150  12.198   5.289   6.786
97126SOL     OW93151   1.238   8.425  14.845
97126SOL    HW193152   1.286   8.446  14.765
97126SOL    HW293153   1.272   8.486   0.032
97127SOL     OW93154   7.831   0.321  13.740
97127SOL    HW193155   7.886   0.246  13.719
97127SOL    HW293156   7.875   0.395  13.700
97128SOL     OW93157   3.321   0.250   2.731
97128SOL    HW193158   3.308   0.301   2.810
97128SOL    HW293159   3.402   0.284   2.694
97129SOL     OW93160  10.632  14.568   1.838
97129SOL    HW193161  10.623  14.525   1.752
97129SOL    HW293162  10.608  14.659   1.822
97130SOL     OW93163   6.654  10.081  14.415
97130SOL    HW193164   6.693  10.168  14.405
97130SOL    HW293165   6.561  10.095  14.399
97131SOL     OW93166   0.491  10.798  14.447
97131SOL    HW193167   0.435  10.767  14.376
97131SOL    HW293168   0.433  10.847  14.504
97132SOL     OW93169   8.352   6.922   3.371
97132SOL    HW193170   8.414   6.994   3.367
97132SOL    HW293171   8.373   6.867   3.296
97133SOL     OW93172  10.277   7.904   0.155
97133SOL    HW193173  10.203   7.952   0.191
97133SOL    HW293174  10.336   7.891   0.229
97134SOL     OW93175   3.042  11.685   1.741
97134SOL    HW193176   3.050  11.665   1.834
97134SOL    HW293177   3.065  11.603   1.697
97135SOL     OW93178  11.976   4.393  11.810
97135SOL    HW193179  11.937   4.459  11.753
97135SOL    HW293180  11.943   4.310  11.776
97136SOL     OW93181   2.870   9.297   2.758
97136SOL    HW193182   2.881   9.204   2.777
97136SOL    HW293183   2.911   9.310   2.672
97137SOL     OW93184  11.352   3.210   0.440
97137SOL    HW193185  11.412   3.135   0.447
97137SOL    HW293186  11.353   3.249   0.527
97138SOL     OW93187   6.047   0.937  11.611
97138SOL    HW193188   6.039   0.843  11.596
97138SOL    HW293189   6.136   0.950  11.643
97139SOL     OW93190  10.499  13.717  11.541
97139SOL    HW193191  10.425  13.726  11.482
97139SOL    HW293192  10.537  13.631  11.519
97140SOL     OW93193   8.730   8.834   2.394
97140SOL    HW193194   8.682   8.883   2.460
97140SOL    HW293195   8.784   8.899   2.350
97141SOL     OW93196   1.895   4.011   0.097
97141SOL    HW193197   1.968   3.960   0.133
97141SOL    HW293198   1.874   3.967   0.015
97142SOL     OW93199  11.591   2.970   4.262
97142SOL    HW193200  11.554   3.050   4.224
97142SOL    HW293201  11.685   2.984   4.261
97143SOL     OW93202  12.880   3.416   2.947
97143SOL    HW193203  12.955   3.359   2.961
97143SOL    HW293204  12.918   3.504   2.936
97144SOL     OW93205   7.558   4.249   1.502
97144SOL    HW193206   7.509   4.291   1.431
97144SOL    HW293207   7.563   4.316   1.571
97145SOL     OW93208   2.332   8.133  13.207
97145SOL    HW193209   2.242   8.142  13.173
97145SOL    HW293210   2.366   8.055  13.163
97146SOL     OW93211   8.173   8.572   9.122
97146SOL    HW193212   8.090   8.620   9.126
97146SOL    HW293213   8.154   8.494   9.070
97147SOL     OW93214   7.412  13.716   4.910
97147SOL    HW193215   7.459  13.788   4.868
97147SOL    HW293216   7.411  13.739   5.003
97148SOL     OW93217   7.340   4.673   7.047
97148SOL    HW193218   7.328   4.691   6.954
97148SOL    HW293219   7.400   4.741   7.077
97149SOL     OW93220   3.411   6.037   2.421
97149SOL    HW193221   3.373   5.975   2.482
97149SOL    HW293222   3.360   6.118   2.432
97150SOL     OW93223   0.804  14.724   9.118
97150SOL    HW193224   0.791  14.726   9.213
97150SOL    HW293225   0.781  14.813   9.089
97151SOL     OW93226   7.514   7.647  10.971
97151SOL    HW193227   7.596   7.630  11.016
97151SOL    HW293228   7.504   7.575  10.908
97152SOL     OW93229   4.855   0.076   5.115
97152SOL    HW193230   4.781   0.099   5.059
97152SOL    HW293231   4.828  14.874   5.160
97153SOL     OW93232  13.703   7.119   3.957
97153SOL    HW193233  13.647   7.044   3.937
97153SOL    HW293234  13.714   7.116   4.052
97154SOL     OW93235   2.849   9.093   9.022
97154SOL    HW193236   2.834   9.173   9.073
97154SOL    HW293237   2.857   9.024   9.088
97155SOL     OW93238   5.318   3.467   8.153
97155SOL    HW193239   5.359   3.413   8.086
97155SOL    HW293240   5.346   3.557   8.133
97156SOL     OW93241   7.554   0.525   5.399
97156SOL    HW193242   7.569   0.605   5.449
97156SOL    HW293243   7.623   0.465   5.427
97157SOL     OW93244   8.909   2.473  10.238
97157SOL    HW193245   8.843   2.478  10.169
97157SOL    HW293246   8.990   2.452  10.192
97158SOL     OW93247   4.324   9.800   9.399
97158SOL    HW193248   4.359   9.711   9.387
97158SOL    HW293249   4.389   9.844   9.454
97159SOL     OW93250  14.873   9.910   8.123
97159SOL    HW193251   0.062   9.941   8.062
97159SOL    HW293252   0.028   9.933   8.210
97160SOL     OW93253   8.036   6.461   2.771
97160SOL    HW193254   8.076   6.455   2.684
97160SOL    HW293255   7.942   6.451   2.754
97161SOL     OW93256   4.304   8.705   6.559
97161SOL    HW193257   4.325   8.793   6.529
97161SOL    HW293258   4.383   8.675   6.605
97162SOL     OW93259   0.800   0.682   8.225
97162SOL    HW193260   0.716   0.730   8.222
97162SOL    HW293261   0.785   0.604   8.171
97163SOL     OW93262   3.499   5.621   0.909
97163SOL    HW193263   3.574   5.632   0.852
97163SOL    HW293264   3.475   5.711   0.934
97164SOL     OW93265   2.777  13.416   3.827
97164SOL    HW193266   2.772  13.485   3.893
97164SOL    HW293267   2.822  13.344   3.872
97165SOL     OW93268   5.014   0.567   1.590
97165SOL    HW193269   5.040   0.480   1.558
97165SOL    HW293270   4.949   0.549   1.658
97166SOL     OW93271   7.042   6.052   9.241
97166SOL    HW193272   7.121   6.006   9.268
97166SOL    HW293273   7.038   6.040   9.146
97167SOL     OW93274   9.171   9.801   6.148
97167SOL    HW193275   9.080   9.820   6.172
97167SOL    HW293276   9.176   9.705   6.149
97168SOL     OW93277   3.182  11.238  13.124
97168SOL    HW193278   3.147  11.205  13.042
97168SOL    HW293279   3.129  11.195  13.192
97169SOL     OW93280   3.767   4.110  12.105
97169SOL    HW193281   3.732   4.068  12.183
97169SOL    HW293282   3.760   4.204  12.123
97170SOL     OW93283  12.445   2.570  13.611
97170SOL    HW193284  12.407   2.568  13.699
97170SOL    HW293285  12.505   2.496  13.608
97171SOL     OW93286   3.206   9.276   7.290
97171SOL    HW193287   3.139   9.231   7.239
97171SOL    HW293288   3.234   9.212   7.355
97172SOL     OW93289   4.369   7.460  14.459
97172SOL    HW193290   4.362   7.535  14.519
97172SOL    HW293291   4.408   7.497  14.380
97173SOL     OW93292   5.012   8.668  11.525
97173SOL    HW193293   4.981   8.579  11.542
97173SOL    HW293294   5.091   8.677  11.578
97174SOL     OW93295  12.162  10.339   2.716
97174SOL    HW193296  12.118  10.266   2.674
97174SOL    HW293297  12.233  10.362   2.656
97175SOL     OW93298   5.119   1.706   9.315
97175SOL    HW193299   5.090   1.649   9.244
97175SOL    HW293300   5.178   1.651   9.367
97176SOL     OW93301  10.677   5.002   3.844
97176SOL    HW193302  10.758   4.955   3.822
97176SOL    HW293303  10.690   5.090   3.808
97177SOL     OW93304  14.795  13.219   5.157
97177SOL    HW193305  14.710  13.243   5.120
97177SOL    HW293306  14.830  13.153   5.097
97178SOL     OW93307   1.390   3.649  13.238
97178SOL    HW193308   1.436   3.655  13.321
97178SOL    HW293309   1.426   3.571  13.196
97179SOL     OW93310   1.158   9.471   4.257
97179SOL    HW193311   1.251   9.487   4.273
97179SOL    HW293312   1.152   9.454   4.163
97180SOL     OW93313  11.941   2.538   3.059
97180SOL    HW193314  11.931   2.512   2.968
97180SOL    HW293315  11.856   2.518   3.099
97181SOL     OW93316  11.906   1.216   9.380
97181SOL    HW193317  11.854   1.140   9.408
97181SOL    HW293318  11.956   1.184   9.305
97182SOL     OW93319   2.230   2.906   2.869
97182SOL    HW193320   2.136   2.921   2.869
97182SOL    HW293321   2.266   2.976   2.922
97183SOL     OW93322  12.447   7.468   5.680
97183SOL    HW193323  12.370   7.461   5.736
97183SOL    HW293324  12.502   7.394   5.705
97184SOL     OW93325  13.859   4.680   1.006
97184SOL    HW193326  13.793   4.684   0.937
97184SOL    HW293327  13.846   4.595   1.048
97185SOL     OW93328  12.259  13.362  13.359
97185SOL    HW193329  12.230  13.294  13.419
97185SOL    HW293330  12.350  13.339  13.339
97186SOL     OW93331   9.619  13.150   0.678
97186SOL    HW193332   9.624  13.218   0.746
97186SOL    HW293333   9.525  13.131   0.670
97187SOL     OW93334   6.455  13.980  11.799
97187SOL    HW193335   6.396  13.909  11.825
97187SOL    HW293336   6.398  14.045  11.758
97188SOL     OW93337  10.932   9.510   3.884
97188SOL    HW193338  10.880   9.438   3.919
97188SOL    HW293339  10.967   9.477   3.801
97189SOL     OW93340   3.631   8.691  13.541
97189SOL    HW193341   3.668   8.613  13.583
97189SOL    HW293342   3.604   8.661  13.454
97190SOL     OW93343  12.906   1.208  11.064
97190SOL    HW193344  12.993   1.168  11.069
97190SOL    HW293345  12.921   1.301  11.076
97191SOL     OW93346   3.841  13.569  10.209
97191SOL    HW193347   3.791  13.639  10.168
97191SOL    HW293348   3.802  13.560  10.296
97192SOL     OW93349   2.765  14.062   1.543
97192SOL    HW193350   2.740  14.146   1.504
97192SOL    HW293351   2.689  14.036   1.596
97193SOL     OW93352  14.847  10.935   9.613
97193SOL    HW193353   0.027  10.985   9.671
97193SOL    HW293354  14.789  10.888   9.672
97194SOL     OW93355   0.179  12.756   0.582
97194SOL    HW193356   0.159  12.662   0.576
97194SOL    HW293357   0.274  12.760   0.589
97195SOL     OW93358   9.325  13.781   2.301
97195SOL    HW193359   9.297  13.845   2.366
97195SOL    HW293360   9.263  13.790   2.229
97196SOL     OW93361   9.987   9.502   2.041
97196SOL    HW193362  10.075   9.487   2.077
97196SOL    HW293363   9.955   9.580   2.087
97197SOL     OW93364   0.668   9.550   0.492
97197SOL    HW193365   0.749   9.591   0.519
97197SOL    HW293366   0.691   9.458   0.477
97198SOL     OW93367   2.099   0.304   5.014
97198SOL    HW193368   2.024   0.276   5.066
97198SOL    HW293369   2.171   0.248   5.043
97199SOL     OW93370  11.316   5.828   2.573
97199SOL    HW193371  11.297   5.890   2.643
97199SOL    HW293372  11.315   5.882   2.493
97200SOL     OW93373  14.606  10.130   2.913
97200SOL    HW193374  14.559  10.187   2.973
97200SOL    HW293375  14.556  10.048   2.914
97201SOL     OW93376  12.266  11.554   2.322
97201SOL    HW193377  12.352  11.553   2.280
97201SOL    HW293378  12.250  11.462   2.345
97202SOL     OW93379   2.019  14.873   2.282
97202SOL    HW193380   2.014  14.778   2.284
97202SOL    HW293381   1.928   0.024   2.276
97203SOL     OW93382  14.840  10.945  14.664
97203SOL    HW193383  14.845  10.857  14.703
97203SOL    HW293384   0.029  10.943  14.595
97204SOL     OW93385  10.167   9.206  13.103
97204SOL    HW193386  10.076   9.211  13.075
97204SOL    HW293387  10.186   9.112  13.108
97205SOL     OW93388   7.506   5.941   1.782
97205SOL    HW193389   7.526   5.916   1.692
97205SOL    HW293390   7.509   6.037   1.782
97206SOL     OW93391   2.432   6.598   4.190
97206SOL    HW193392   2.345   6.607   4.150
97206SOL    HW293393   2.486   6.660   4.141
97207SOL     OW93394   9.828  12.777   4.763
97207SOL    HW193395   9.838  12.868   4.791
97207SOL    HW293396   9.736  12.758   4.776
97208SOL     OW93397  13.793   9.852   7.449
97208SOL    HW193398  13.802   9.803   7.531
97208SOL    HW293399  13.819   9.941   7.472
97209SOL     OW93400   3.536   0.848   6.338
97209SOL    HW193401   3.607   0.861   6.274
97209SOL    HW293402   3.513   0.937   6.365
97210SOL     OW93403   8.406  12.258   2.585
97210SOL    HW193404   8.358  12.335   2.614
97210SOL    HW293405   8.438  12.280   2.498
97211SOL     OW93406  10.089   9.269   5.159
97211SOL    HW193407  10.058   9.197   5.105
97211SOL    HW293408  10.009   9.313   5.188
97212SOL     OW93409   8.930   1.594   8.930
97212SOL    HW193410   8.876   1.551   8.996
97212SOL    HW293411   8.869   1.614   8.859
97213SOL     OW93412   5.421  12.844  13.221
97213SOL    HW193413   5.422  12.840  13.125
97213SOL    HW293414   5.337  12.805  13.245
97214SOL     OW93415   7.563  14.615   6.083
97214SOL    HW193416   7.568  14.566   6.001
97214SOL    HW293417   7.494  14.680   6.068
97215SOL     OW93418   4.535   5.117  13.377
97215SOL    HW193419   4.538   5.064  13.457
97215SOL    HW293420   4.533   5.052  13.306
97216SOL     OW93421  12.737   5.574  11.734
97216SOL    HW193422  12.779   5.488  11.741
97216SOL    HW293423  12.807   5.636  11.750
97217SOL     OW93424  11.415   3.295   7.013
97217SOL    HW193425  11.339   3.320   6.960
97217SOL    HW293426  11.421   3.363   7.080
97218SOL     OW93427   3.835   4.270   1.884
97218SOL    HW193428   3.879   4.186   1.888
97218SOL    HW293429   3.904   4.335   1.897
97219SOL     OW93430   9.918  11.097   9.355
97219SOL    HW193431   9.968  11.164   9.309
97219SOL    HW293432   9.854  11.145   9.407
97220SOL     OW93433   5.975   8.931   8.175
97220SOL    HW193434   5.927   8.951   8.094
97220SOL    HW293435   5.997   9.017   8.211
97221SOL     OW93436  11.135   6.338   6.350
97221SOL    HW193437  11.202   6.278   6.315
97221SOL    HW293438  11.172   6.369   6.432
97222SOL     OW93439   8.665  13.636   9.529
97222SOL    HW193440   8.719  13.695   9.477
97222SOL    HW293441   8.726  13.575   9.569
97223SOL     OW93442   8.404   4.427   3.463
97223SOL    HW193443   8.373   4.401   3.550
97223SOL    HW293444   8.440   4.347   3.426
97224SOL     OW93445  13.185  11.459   5.450
97224SOL    HW193446  13.113  11.428   5.394
97224SOL    HW293447  13.242  11.383   5.460
97225SOL     OW93448  10.306   0.883  14.116
97225SOL    HW193449  10.326   0.805  14.169
97225SOL    HW293450  10.247   0.850  14.048
97226SOL     OW93451   7.426   7.658  13.916
97226SOL    HW193452   7.353   7.597  13.913
97226SOL    HW293453   7.387   7.743  13.895
97227SOL     OW93454  14.024  11.867  11.820
97227SOL    HW193455  13.932  11.839  11.816
97227SOL    HW293456  14.031  11.937  11.755
97228SOL     OW93457  11.035   8.137  14.429
97228SOL    HW193458  10.995   8.184  14.502
97228SOL    HW293459  10.963   8.089  14.389
97229SOL     OW93460  14.639   3.062  13.447
97229SOL    HW193461  14.561   3.116  13.455
97229SOL    HW293462  14.672   3.055  13.537
97230SOL     OW93463  10.840  14.819   7.989
97230SOL    HW193464  10.786  14.779   8.058
97230SOL    HW293465  10.909  14.755   7.974
97231SOL     OW93466   0.000   0.741   8.871
97231SOL    HW193467   0.081   0.723   8.919
97231SOL    HW293468  14.812   0.685   8.912
97232SOL     OW93469  12.163   2.330   7.061
97232SOL    HW193470  12.126   2.265   7.122
97232SOL    HW293471  12.094   2.342   6.995
97233SOL     OW93472   6.586   4.584   8.813
97233SOL    HW193473   6.638   4.590   8.893
97233SOL    HW293474   6.596   4.493   8.785
97234SOL     OW93475   2.191  12.123   9.751
97234SOL    HW193476   2.190  12.216   9.771
97234SOL    HW293477   2.259  12.113   9.685
97235SOL     OW93478   0.559   2.213  10.393
97235SOL    HW193479   0.517   2.127  10.393
97235SOL    HW293480   0.645   2.198  10.355
97236SOL     OW93481   9.993   6.136   8.782
97236SOL    HW193482  10.058   6.086   8.833
97236SOL    HW293483   9.991   6.222   8.824
97237SOL     OW93484   6.592   3.240   2.969
97237SOL    HW193485   6.607   3.146   2.955
97237SOL    HW293486   6.569   3.247   3.061
97238SOL     OW93487  12.773  10.878   4.846
97238SOL    HW193488  12.684  10.867   4.879
97238SOL    HW293489  12.815  10.793   4.858
97239SOL     OW93490   1.233   4.951  14.734
97239SOL    HW193491   1.189   4.902  14.665
97239SOL    HW293492   1.183   5.032  14.743
97240SOL     OW93493   4.524   7.699  12.000
97240SOL    HW193494   4.557   7.621  11.955
97240SOL    HW293495   4.531   7.769  11.936
97241SOL     OW93496   9.621   6.999  11.530
97241SOL    HW193497   9.604   7.092  11.546
97241SOL    HW293498   9.669   6.969  11.608
97242SOL     OW93499   3.273   3.359   7.544
97242SOL    HW193500   3.303   3.431   7.490
97242SOL    HW293501   3.308   3.377   7.631
97243SOL     OW93502   6.090   2.954   3.101
97243SOL    HW193503   6.175   2.923   3.068
97243SOL    HW293504   6.026   2.915   3.042
97244SOL     OW93505   4.886   6.881   3.399
97244SOL    HW193506   4.824   6.935   3.351
97244SOL    HW293507   4.961   6.938   3.415
97245SOL     OW93508  11.848  12.779   1.388
97245SOL    HW193509  11.825  12.694   1.426
97245SOL    HW293510  11.782  12.839   1.424
97246SOL     OW93511   4.681   2.794  10.708
97246SOL    HW193512   4.749   2.861  10.712
97246SOL    HW293513   4.687   2.748  10.792
97247SOL     OW93514  13.782  12.400  10.657
97247SOL    HW193515  13.816  12.311  10.650
97247SOL    HW293516  13.736  12.402  10.741
97248SOL     OW93517   4.298  10.428   6.470
97248SOL    HW193518   4.224  10.459   6.417
97248SOL    HW293519   4.271  10.340   6.498
97249SOL     OW93520  10.756   0.162   8.481
97249SOL    HW193521  10.820   0.189   8.415
97249SOL    HW293522  10.696   0.105   8.433
97250SOL     OW93523   3.218  14.330  13.290
97250SOL    HW193524   3.168  14.249  13.279
97250SOL    HW293525   3.241  14.357  13.201
97251SOL     OW93526   1.161   7.292  14.772
97251SOL    HW193527   1.102   7.357  14.733
97251SOL    HW293528   1.212   7.259  14.698
97252SOL     OW93529  14.203  10.155   7.594
97252SOL    HW193530  14.206  10.104   7.675
97252SOL    HW293531  14.142  10.226   7.613
97253SOL     OW93532  13.744   9.093   7.409
97253SOL    HW193533  13.711   9.180   7.428
97253SOL    HW293534  13.679   9.054   7.351
97254SOL     OW93535   0.815  12.232   8.510
97254SOL    HW193536   0.850  12.310   8.552
97254SOL    HW293537   0.806  12.256   8.418
97255SOL     OW93538   3.059   2.171   5.422
97255SOL    HW193539   3.084   2.112   5.351
97255SOL    HW293540   2.976   2.209   5.393
97256SOL     OW93541  14.742   0.775   2.825
97256SOL    HW193542  14.817   0.725   2.793
97256SOL    HW293543  14.680   0.775   2.752
97257SOL     OW93544  14.806  13.309   1.989
97257SOL    HW193545  14.784  13.227   2.033
97257SOL    HW293546  14.845  13.363   2.057
97258SOL     OW93547   9.121  13.894   0.199
97258SOL    HW193548   9.170  13.954   0.143
97258SOL    HW293549   9.048  13.945   0.232
97259SOL     OW93550  13.692  10.996   8.088
97259SOL    HW193551  13.725  10.907   8.102
97259SOL    HW293552  13.664  11.025   8.175
97260SOL     OW93553   3.887   5.564  10.813
97260SOL    HW193554   3.889   5.660  10.810
97260SOL    HW293555   3.811   5.541  10.759
97261SOL     OW93556   5.973   2.213   3.216
97261SOL    HW193557   6.034   2.287   3.215
97261SOL    HW293558   5.993   2.167   3.297
97262SOL     OW93559  11.465   6.504  13.706
97262SOL    HW193560  11.472   6.485  13.612
97262SOL    HW293561  11.374   6.485  13.727
97263SOL     OW93562   5.646  11.812   5.290
97263SOL    HW193563   5.602  11.821   5.375
97263SOL    HW293564   5.596  11.870   5.231
97264SOL     OW93565   7.934   0.499  11.303
97264SOL    HW193566   7.912   0.416  11.259
97264SOL    HW293567   8.002   0.538  11.248
97265SOL     OW93568  10.423  11.402   4.902
97265SOL    HW193569  10.437  11.401   4.807
97265SOL    HW293570  10.369  11.479   4.918
97266SOL     OW93571  10.038  11.002   5.783
97266SOL    HW193572  10.016  10.913   5.812
97266SOL    HW293573  10.036  11.054   5.864
97267SOL     OW93574  11.987   7.464   3.423
97267SOL    HW193575  12.066   7.487   3.374
97267SOL    HW293576  12.020   7.419   3.502
97268SOL     OW93577   3.503  11.126  14.170
97268SOL    HW193578   3.488  11.039  14.207
97268SOL    HW293579   3.589  11.152  14.203
97269SOL     OW93580  13.998   1.298  14.750
97269SOL    HW193581  13.971   1.327  14.837
97269SOL    HW293582  14.093   1.304  14.751
97270SOL     OW93583  12.401   8.249   3.455
97270SOL    HW193584  12.479   8.286   3.413
97270SOL    HW293585  12.364   8.192   3.388
97271SOL     OW93586   9.817  12.663   0.069
97271SOL    HW193587   9.867  12.729   0.021
97271SOL    HW293588   9.751  12.712   0.117
97272SOL     OW93589  14.444  13.649   6.885
97272SOL    HW193590  14.434  13.568   6.835
97272SOL    HW293591  14.537  13.671   6.877
97273SOL     OW93592   5.283  11.813   8.961
97273SOL    HW193593   5.268  11.757   8.885
97273SOL    HW293594   5.214  11.879   8.956
97274SOL     OW93595   7.860   9.772   6.740
97274SOL    HW193596   7.868   9.695   6.797
97274SOL    HW293597   7.950   9.799   6.724
97275SOL     OW93598  10.369   7.022   2.051
97275SOL    HW193599  10.346   6.944   2.001
97275SOL    HW293600  10.292   7.041   2.104
97276SOL     OW93601   0.539   2.749   8.124
97276SOL    HW193602   0.503   2.819   8.070
97276SOL    HW293603   0.532   2.671   8.069
97277SOL     OW93604   1.925  13.147   4.993
97277SOL    HW193605   1.992  13.211   4.969
97277SOL    HW293606   1.975  13.069   5.018
97278SOL     OW93607   8.388   3.613   7.655
97278SOL    HW193608   8.339   3.569   7.585
97278SOL    HW293609   8.377   3.707   7.636
97279SOL     OW93610  11.460   9.326   0.192
97279SOL    HW193611  11.421   9.270   0.259
97279SOL    HW293612  11.395   9.396   0.179
97280SOL     OW93613  10.761   8.631  12.206
97280SOL    HW193614  10.829   8.661  12.145
97280SOL    HW293615  10.679   8.654  12.164
97281SOL     OW93616   3.424   2.804  11.581
97281SOL    HW193617   3.353   2.859  11.616
97281SOL    HW293618   3.498   2.863  11.573
97282SOL     OW93619   1.917   1.413   7.296
97282SOL    HW193620   1.997   1.433   7.345
97282SOL    HW293621   1.860   1.489   7.311
97283SOL     OW93622  10.808   0.802   5.319
97283SOL    HW193623  10.724   0.833   5.286
97283SOL    HW293624  10.803   0.707   5.312
97284SOL     OW93625  10.658  11.162   1.950
97284SOL    HW193626  10.702  11.219   1.888
97284SOL    HW293627  10.621  11.091   1.897
97285SOL     OW93628   2.411  14.260   9.173
97285SOL    HW193629   2.442  14.351   9.177
97285SOL    HW293630   2.343  14.261   9.106
97286SOL     OW93631   4.400   9.947  12.830
97286SOL    HW193632   4.433   9.931  12.742
97286SOL    HW293633   4.409  10.042  12.842
97287SOL     OW93634  13.426   6.609  14.280
97287SOL    HW193635  13.410   6.566  14.196
97287SOL    HW293636  13.360   6.573  14.339
97288SOL     OW93637  13.415   1.360   9.097
97288SOL    HW193638  13.430   1.309   9.017
97288SOL    HW293639  13.431   1.450   9.072
97289SOL     OW93640  11.608   7.568   5.962
97289SOL    HW193641  11.523   7.604   5.937
97289SOL    HW293642  11.653   7.555   5.878
97290SOL     OW93643   5.678  14.293   7.521
97290SOL    HW193644   5.714  14.286   7.610
97290SOL    HW293645   5.755  14.298   7.464
97291SOL     OW93646   0.475   8.179   7.427
97291SOL    HW193647   0.391   8.148   7.460
97291SOL    HW293648   0.457   8.267   7.393
97292SOL     OW93649   4.144  14.825  10.819
97292SOL    HW193650   4.153  14.852  10.910
97292SOL    HW293651   4.205  14.752  10.809
97293SOL     OW93652   9.099   6.668   3.015
97293SOL    HW193653   9.075   6.747   2.966
97293SOL    HW293654   9.182   6.691   3.057
97294SOL     OW93655   0.216   3.164  10.613
97294SOL    HW193656   0.197   3.258  10.622
97294SOL    HW293657   0.202   3.128  10.701
97295SOL     OW93658   5.487   1.124   1.318
97295SOL    HW193659   5.575   1.106   1.350
97295SOL    HW293660   5.464   1.209   1.357
97296SOL     OW93661  12.778  11.038   4.430
97296SOL    HW193662  12.860  11.007   4.467
97296SOL    HW293663  12.710  10.990   4.478
97297SOL     OW93664   5.145  11.230   8.657
97297SOL    HW193665   5.141  11.141   8.692
97297SOL    HW293666   5.056  11.250   8.629
97298SOL     OW93667   2.515  13.884   4.711
97298SOL    HW193668   2.548  13.949   4.649
97298SOL    HW293669   2.421  13.902   4.717
97299SOL     OW93670   8.537  11.432   0.260
97299SOL    HW193671   8.615  11.425   0.205
97299SOL    HW293672   8.478  11.364   0.226
97300SOL     OW93673   8.241   9.013  11.709
97300SOL    HW193674   8.204   8.951  11.646
97300SOL    HW293675   8.188   9.002  11.788
97301SOL     OW93676   9.994   8.797   3.740
97301SOL    HW193677  10.082   8.761   3.736
97301SOL    HW293678  10.001   8.872   3.799
97302SOL     OW93679  13.240   5.981   8.225
97302SOL    HW193680  13.183   5.975   8.301
97302SOL    HW293681  13.230   6.071   8.194
97303SOL     OW93682  12.464   7.401  11.584
97303SOL    HW193683  12.548   7.431  11.550
97303SOL    HW293684  12.459   7.439  11.672
97304SOL     OW93685  13.221   0.874  10.875
97304SOL    HW193686  13.208   0.877  10.970
97304SOL    HW293687  13.161   0.941  10.841
97305SOL     OW93688   1.922   1.438   8.731
97305SOL    HW193689   1.913   1.344   8.712
97305SOL    HW293690   1.907   1.445   8.825
97306SOL     OW93691  14.806  12.960  13.066
97306SOL    HW193692   0.002  13.015  13.094
97306SOL    HW293693  14.845  12.874  13.053
97307SOL     OW93694   9.317  13.319   8.724
97307SOL    HW193695   9.311  13.287   8.634
97307SOL    HW293696   9.378  13.393   8.719
97308SOL     OW93697  14.847  13.467  13.210
97308SOL    HW193698  14.812  13.502  13.128
97308SOL    HW293699   0.028  13.536  13.242
97309SOL     OW93700   4.372   3.696   6.547
97309SOL    HW193701   4.411   3.727   6.465
97309SOL    HW293702   4.423   3.738   6.616
97310SOL     OW93703  13.001   3.311   2.610
97310SOL    HW193704  13.079   3.360   2.586
97310SOL    HW293705  12.938   3.330   2.541
97311SOL     OW93706  13.495  14.235  12.236
97311SOL    HW193707  13.515  14.249  12.329
97311SOL    HW293708  13.475  14.322  12.203
97312SOL     OW93709  11.151   2.677   1.984
97312SOL    HW193710  11.106   2.602   2.023
97312SOL    HW293711  11.222   2.638   1.932
97313SOL     OW93712  10.466   3.130   5.266
97313SOL    HW193713  10.423   3.044   5.261
97313SOL    HW293714  10.406   3.184   5.317
97314SOL     OW93715   8.522   1.891  13.280
97314SOL    HW193716   8.590   1.915  13.218
97314SOL    HW293717   8.546   1.804  13.311
97315SOL     OW93718   5.387   2.929   2.364
97315SOL    HW193719   5.325   2.997   2.390
97315SOL    HW293720   5.351   2.892   2.284
97316SOL     OW93721   3.959   9.989   7.774
97316SOL    HW193722   3.885  10.036   7.811
97316SOL    HW293723   4.033  10.013   7.829
97317SOL     OW93724  11.997   8.434   1.258
97317SOL    HW193725  12.041   8.519   1.265
97317SOL    HW293726  11.916   8.454   1.210
97318SOL     OW93727   1.650   8.816   6.836
97318SOL    HW193728   1.724   8.757   6.850
97318SOL    HW293729   1.690   8.901   6.818
97319SOL     OW93730  12.644   3.899  10.923
97319SOL    HW193731  12.559   3.941  10.928
97319SOL    HW293732  12.692   3.932  10.998
97320SOL     OW93733  14.429   8.847   2.272
97320SOL    HW193734  14.431   8.752   2.263
97320SOL    HW293735  14.504   8.868   2.328
97321SOL     OW93736   0.929   6.832  10.648
97321SOL    HW193737   0.836   6.851  10.665
97321SOL    HW293738   0.954   6.894  10.581
97322SOL     OW93739  13.570   3.053   2.085
97322SOL    HW193740  13.600   2.989   2.150
97322SOL    HW293741  13.482   3.023   2.062
97323SOL     OW93742  11.433   7.634   8.388
97323SOL    HW193743  11.424   7.641   8.483
97323SOL    HW293744  11.343   7.636   8.355
97324SOL     OW93745   3.226  12.508   7.323
97324SOL    HW193746   3.273  12.584   7.288
97324SOL    HW293747   3.163  12.485   7.254
97325SOL     OW93748  13.665  10.147   5.439
97325SOL    HW193749  13.623  10.088   5.377
97325SOL    HW293750  13.606  10.222   5.444
97326SOL     OW93751   6.823   7.415   3.664
97326SOL    HW193752   6.833   7.490   3.606
97326SOL    HW293753   6.743   7.372   3.635
97327SOL     OW93754   1.804   8.335   6.497
97327SOL    HW193755   1.745   8.395   6.541
97327SOL    HW293756   1.754   8.254   6.487
97328SOL     OW93757  11.702   3.737   4.113
97328SOL    HW193758  11.661   3.822   4.131
97328SOL    HW293759  11.651   3.701   4.041
97329SOL     OW93760  14.507   4.183   8.467
97329SOL    HW193761  14.598   4.167   8.441
97329SOL    HW293762  14.493   4.128   8.544
97330SOL     OW93763   1.450   3.394  13.711
97330SOL    HW193764   1.469   3.394  13.805
97330SOL    HW293765   1.535   3.402  13.669
97331SOL     OW93766   4.026   3.424  12.780
97331SOL    HW193767   4.057   3.514  12.777
97331SOL    HW293768   4.105   3.370  12.786
97332SOL     OW93769  14.021   3.956  11.283
97332SOL    HW193770  14.110   3.954  11.247
97332SOL    HW293771  13.964   3.962  11.206
97333SOL     OW93772   3.942  12.243  11.101
97333SOL    HW193773   3.857  12.234  11.059
97333SOL    HW293774   3.989  12.308  11.047
97334SOL     OW93775   0.397   4.121   6.498
97334SOL    HW193776   0.490   4.119   6.520
97334SOL    HW293777   0.395   4.103   6.404
97335SOL     OW93778   3.858   4.873   5.088
97335SOL    HW193779   3.764   4.887   5.099
97335SOL    HW293780   3.866   4.782   5.061
97336SOL     OW93781   2.015   3.429   4.945
97336SOL    HW193782   2.015   3.519   4.912
97336SOL    HW293783   2.017   3.375   4.866
97337SOL     OW93784   5.953   1.475   2.225
97337SOL    HW193785   6.005   1.395   2.216
97337SOL    HW293786   5.883   1.451   2.286
97338SOL     OW93787   2.060   8.770  12.998
97338SOL    HW193788   2.150   8.798  13.014
97338SOL    HW293789   2.006   8.838  13.039
97339SOL     OW93790   2.227  10.431  11.758
97339SOL    HW193791   2.205  10.448  11.667
97339SOL    HW293792   2.322  10.422  11.759
97340SOL     OW93793  11.219   9.853   0.436
97340SOL    HW193794  11.192   9.831   0.525
97340SOL    HW293795  11.176   9.788   0.381
97341SOL     OW93796  10.617   1.675   4.758
97341SOL    HW193797  10.627   1.767   4.733
97341SOL    HW293798  10.617   1.676   4.854
97342SOL     OW93799   7.304  13.676   8.795
97342SOL    HW193800   7.242  13.665   8.722
97342SOL    HW293801   7.340  13.763   8.782
97343SOL     OW93802  13.306  12.665   9.094
97343SOL    HW193803  13.390  12.689   9.133
97343SOL    HW293804  13.324  12.657   9.001
97344SOL     OW93805  11.238   9.044  10.745
97344SOL    HW193806  11.170   9.110  10.732
97344SOL    HW293807  11.311   9.092  10.784
97345SOL     OW93808   6.332   8.130  11.300
97345SOL    HW193809   6.338   8.225  11.287
97345SOL    HW293810   6.414   8.107  11.345
97346SOL     OW93811   6.234  11.167  10.155
97346SOL    HW193812   6.294  11.154  10.082
97346SOL    HW293813   6.170  11.097  10.146
97347SOL     OW93814  13.799   5.528  14.301
97347SOL    HW193815  13.707   5.531  14.275
97347SOL    HW293816  13.817   5.436  14.316
97348SOL     OW93817   8.707  14.613   8.814
97348SOL    HW193818   8.799  14.635   8.794
97348SOL    HW293819   8.704  14.517   8.810
97349SOL     OW93820   7.366   6.899  13.687
97349SOL    HW193821   7.334   6.915  13.776
97349SOL    HW293822   7.427   6.971  13.670
97350SOL     OW93823   3.780  14.657  14.846
97350SOL    HW193824   3.835  14.643  14.769
97350SOL    HW293825   3.755  14.569  14.874
97351SOL     OW93826   9.786  11.260  14.693
97351SOL    HW193827   9.828  11.332  14.739
97351SOL    HW293828   9.855  11.194  14.683
97352SOL     OW93829  10.789   2.861  10.159
97352SOL    HW193830  10.878   2.847  10.190
97352SOL    HW293831  10.760   2.941  10.202
97353SOL     OW93832   9.780   0.592  10.742
97353SOL    HW193833   9.833   0.623  10.668
97353SOL    HW293834   9.774   0.668  10.800
97354SOL     OW93835  12.416  11.020  13.168
97354SOL    HW193836  12.361  11.095  13.146
97354SOL    HW293837  12.361  10.944  13.149
97355SOL     OW93838   7.342  13.307  11.174
97355SOL    HW193839   7.387  13.290  11.256
97355SOL    HW293840   7.390  13.379  11.134
97356SOL     OW93841  14.702   8.755   8.094
97356SOL    HW193842  14.723   8.664   8.113
97356SOL    HW293843  14.777   8.787   8.043
97357SOL     OW93844   1.945  10.937   8.611
97357SOL    HW193845   1.881  10.973   8.672
97357SOL    HW293846   2.010  10.893   8.668
97358SOL     OW93847   9.504   0.606   6.885
97358SOL    HW193848   9.553   0.679   6.848
97358SOL    HW293849   9.422   0.645   6.917
97359SOL     OW93850   3.131   5.264   2.745
97359SOL    HW193851   3.191   5.224   2.682
97359SOL    HW293852   3.059   5.202   2.752
97360SOL     OW93853  12.897  10.291   3.630
97360SOL    HW193854  12.883  10.201   3.658
97360SOL    HW293855  12.964  10.325   3.690
97361SOL     OW93856  11.395   7.919  13.877
97361SOL    HW193857  11.360   7.946  13.962
97361SOL    HW293858  11.434   7.998  13.841
97362SOL     OW93859  11.761   3.607  12.840
97362SOL    HW193860  11.773   3.595  12.934
97362SOL    HW293861  11.850   3.601  12.804
97363SOL     OW93862   3.679  10.565   6.852
97363SOL    HW193863   3.637  10.549   6.937
97363SOL    HW293864   3.728  10.646   6.865
97364SOL     OW93865  12.089  13.789   8.546
97364SOL    HW193866  12.180  13.789   8.518
97364SOL    HW293867  12.074  13.703   8.585
97365SOL     OW93868  12.697   6.628   5.110
97365SOL    HW193869  12.664   6.673   5.033
97365SOL    HW293870  12.639   6.656   5.181
97366SOL     OW93871  11.642   6.226   5.748
97366SOL    HW193872  11.716   6.287   5.751
97366SOL    HW293873  11.633   6.203   5.656
97367SOL     OW93874  14.828  11.398  12.558
97367SOL    HW193875   0.011  11.324  12.560
97367SOL    HW293876  14.835  11.438  12.645
97368SOL     OW93877   0.605   3.810   5.269
97368SOL    HW193878   0.590   3.746   5.337
97368SOL    HW293879   0.649   3.762   5.199
97369SOL     OW93880   0.729  11.230  10.011
97369SOL    HW193881   0.637  11.242  10.031
97369SOL    HW293882   0.752  11.146  10.051
97370SOL     OW93883   5.787   6.082   6.702
97370SOL    HW193884   5.723   6.011   6.700
97370SOL    HW293885   5.812   6.090   6.794
97371SOL     OW93886   1.521  13.632   9.253
97371SOL    HW193887   1.532  13.610   9.160
97371SOL    HW293888   1.610  13.633   9.289
97372SOL     OW93889   7.239  13.618   4.732
97372SOL    HW193890   7.283  13.649   4.811
97372SOL    HW293891   7.157  13.668   4.729
97373SOL     OW93892   4.616   8.580  10.095
97373SOL    HW193893   4.591   8.524  10.021
97373SOL    HW293894   4.601   8.669  10.063
97374SOL     OW93895  13.369   1.786   1.335
97374SOL    HW193896  13.413   1.845   1.274
97374SOL    HW293897  13.427   1.710   1.341
97375SOL     OW93898  11.635  14.277   6.752
97375SOL    HW193899  11.683  14.294   6.833
97375SOL    HW293900  11.643  14.182   6.739
97376SOL     OW93901   4.663  11.644   1.573
97376SOL    HW193902   4.721  11.717   1.594
97376SOL    HW293903   4.687  11.575   1.635
97377SOL     OW93904   6.081  11.355   8.755
97377SOL    HW193905   6.088  11.449   8.737
97377SOL    HW293906   6.051  11.318   8.672
97378SOL     OW93907  11.861  14.071  12.774
97378SOL    HW193908  11.822  14.054  12.688
97378SOL    HW293909  11.806  14.139  12.812
97379SOL     OW93910  14.094   9.715  12.589
97379SOL    HW193911  14.132   9.801  12.611
97379SOL    HW293912  14.100   9.665  12.671
97380SOL     OW93913   1.929  13.426   9.065
97380SOL    HW193914   1.915  13.359   9.132
97380SOL    HW293915   1.956  13.377   8.987
97381SOL     OW93916  11.446   2.822  10.801
97381SOL    HW193917  11.405   2.788  10.881
97381SOL    HW293918  11.380   2.809  10.733
97382SOL     OW93919  12.362   8.886   8.364
97382SOL    HW193920  12.288   8.863   8.307
97382SOL    HW293921  12.439   8.878   8.308
97383SOL     OW93922   8.153   8.911   0.250
97383SOL    HW193923   8.121   8.821   0.256
97383SOL    HW293924   8.159   8.927   0.155
97384SOL     OW93925   6.684   9.113   3.225
97384SOL    HW193926   6.762   9.075   3.184
97384SOL    HW293927   6.669   9.194   3.178
97385SOL     OW93928  12.864   5.207   4.254
97385SOL    HW193929  12.949   5.210   4.210
97385SOL    HW293930  12.833   5.298   4.251
97386SOL     OW93931   5.555  14.536  13.342
97386SOL    HW193932   5.626  14.577  13.390
97386SOL    HW293933   5.562  14.443  13.362
97387SOL     OW93934  14.432   4.963   4.630
97387SOL    HW193935  14.367   4.957   4.701
97387SOL    HW293936  14.380   4.984   4.553
97388SOL     OW93937   8.844   4.547  11.133
97388SOL    HW193938   8.873   4.636  11.153
97388SOL    HW293939   8.750   4.556  11.116
97389SOL     OW93940  12.143  11.763  14.253
97389SOL    HW193941  12.142  11.677  14.295
97389SOL    HW293942  12.094  11.751  14.172
97390SOL     OW93943   9.395   5.378  13.920
97390SOL    HW193944   9.485   5.407  13.901
97390SOL    HW293945   9.398   5.348  14.011
97391SOL     OW93946   3.201   4.777   9.088
97391SOL    HW193947   3.269   4.787   9.021
97391SOL    HW293948   3.250   4.768   9.170
97392SOL     OW93949   8.717   6.520  10.266
97392SOL    HW193950   8.670   6.591  10.310
97392SOL    HW293951   8.801   6.515  10.312
97393SOL     OW93952   4.581   0.319   5.861
97393SOL    HW193953   4.523   0.385   5.900
97393SOL    HW293954   4.649   0.305   5.928
97394SOL     OW93955   9.113   1.670   8.209
97394SOL    HW193956   9.092   1.717   8.290
97394SOL    HW293957   9.207   1.685   8.197
97395SOL     OW93958   9.480   1.445   2.583
97395SOL    HW193959   9.521   1.425   2.668
97395SOL    HW293960   9.416   1.514   2.603
97396SOL     OW93961   5.253  13.455   4.687
97396SOL    HW193962   5.264  13.414   4.601
97396SOL    HW293963   5.289  13.390   4.748
97397SOL     OW93964   4.940   1.698   7.341
97397SOL    HW193965   5.012   1.695   7.404
97397SOL    HW293966   4.946   1.614   7.295
97398SOL     OW93967   3.554   3.869   1.072
97398SOL    HW193968   3.604   3.805   1.122
97398SOL    HW293969   3.562   3.841   0.981
97399SOL     OW93970   5.461   0.876   4.699
97399SOL    HW193971   5.452   0.907   4.610
97399SOL    HW293972   5.431   0.948   4.754
97400SOL     OW93973   7.420   6.634  10.021
97400SOL    HW193974   7.508   6.664  10.045
97400SOL    HW293975   7.364   6.709  10.041
97401SOL     OW93976   9.509   0.608   1.401
97401SOL    HW193977   9.493   0.665   1.326
97401SOL    HW293978   9.592   0.639   1.438
97402SOL     OW93979   5.911   5.409   8.603
97402SOL    HW193980   5.855   5.485   8.621
97402SOL    HW293981   5.945   5.383   8.688
97403SOL     OW93982   9.144  12.259  12.191
97403SOL    HW193983   9.096  12.191  12.144
97403SOL    HW293984   9.089  12.337  12.186
97404SOL     OW93985  13.276   4.463  13.803
97404SOL    HW193986  13.199   4.425  13.845
97404SOL    HW293987  13.275   4.555  13.830
97405SOL     OW93988   6.527  14.692   9.503
97405SOL    HW193989   6.573  14.756   9.448
97405SOL    HW293990   6.447  14.672   9.454
97406SOL     OW93991   9.606  10.826   4.118
97406SOL    HW193992   9.625  10.835   4.024
97406SOL    HW293993   9.663  10.755   4.147
97407SOL     OW93994  12.616   3.408  12.059
97407SOL    HW193995  12.590   3.459  12.136
97407SOL    HW293996  12.682   3.347  12.092
97408SOL     OW93997   8.531   7.799   1.644
97408SOL    HW193998   8.511   7.709   1.667
97408SOL    HW293999   8.626   7.801   1.637
97409SOL     OW94000  13.057   9.674   8.370
97409SOL    HW194001  12.964   9.689   8.388
97409SOL    HW294002  13.059   9.599   8.310
97410SOL     OW94003   6.350  10.075   3.958
97410SOL    HW194004   6.428  10.128   3.938
97410SOL    HW294005   6.385   9.996   3.998
97411SOL     OW94006   4.862   8.982   4.324
97411SOL    HW194007   4.776   8.942   4.315
97411SOL    HW294008   4.849   9.051   4.389
97412SOL     OW94009   5.824  12.261   2.266
97412SOL    HW194010   5.807  12.338   2.321
97412SOL    HW294011   5.799  12.187   2.320
97413SOL     OW94012  10.978   5.612   0.654
97413SOL    HW194013  11.063   5.568   0.661
97413SOL    HW294014  10.991   5.697   0.696
97414SOL     OW94015   6.810  10.576  13.146
97414SOL    HW194016   6.826  10.618  13.062
97414SOL    HW294017   6.738  10.514  13.129
97415SOL     OW94018   8.671   6.247   0.459
97415SOL    HW194019   8.727   6.175   0.485
97415SOL    HW294020   8.730   6.321   0.444
97416SOL     OW94021   1.957  10.971   2.828
97416SOL    HW194022   2.015  11.001   2.898
97416SOL    HW294023   2.013  10.919   2.771
97417SOL     OW94024  10.897   4.314   2.733
97417SOL    HW194025  10.822   4.301   2.790
97417SOL    HW294026  10.882   4.399   2.692
97418SOL     OW94027  13.071  11.475   3.618
97418SOL    HW194028  12.981  11.499   3.640
97418SOL    HW294029  13.079  11.498   3.525
97419SOL     OW94030   4.256   5.257  12.985
97419SOL    HW194031   4.346   5.252  12.953
97419SOL    HW294032   4.211   5.313  12.922
97420SOL     OW94033   7.235  10.610  10.609
97420SOL    HW194034   7.328  10.596  10.629
97420SOL    HW294035   7.195  10.524  10.624
97421SOL     OW94036   5.059  13.428  11.226
97421SOL    HW194037   5.123  13.380  11.278
97421SOL    HW294038   4.977  13.380  11.238
97422SOL     OW94039  14.643   6.667  11.871
97422SOL    HW194040  14.596   6.707  11.944
97422SOL    HW294041  14.726   6.714  11.866
97423SOL     OW94042  12.731   0.071   7.276
97423SOL    HW194043  12.692   0.068   7.189
97423SOL    HW294044  12.665   0.030   7.333
97424SOL     OW94045   1.819  13.139  13.334
97424SOL    HW194046   1.874  13.061  13.346
97424SOL    HW294047   1.762  13.117  13.260
97425SOL     OW94048   0.830   6.849  11.500
97425SOL    HW194049   0.777   6.769  11.494
97425SOL    HW294050   0.829   6.885  11.411
97426SOL     OW94051   3.525   7.772   9.080
97426SOL    HW194052   3.521   7.778   8.985
97426SOL    HW294053   3.616   7.791   9.102
97427SOL     OW94054  12.595   1.703  12.870
97427SOL    HW194055  12.541   1.776  12.900
97427SOL    HW294056  12.670   1.745  12.828
97428SOL     OW94057   7.677   7.408  11.679
97428SOL    HW194058   7.675   7.494  11.636
97428SOL    HW294059   7.586   7.394  11.707
97429SOL     OW94060  12.358  13.712   9.018
97429SOL    HW194061  12.444  13.699   8.980
97429SOL    HW294062  12.370  13.781   9.083
97430SOL     OW94063  13.054   5.489  10.735
97430SOL    HW194064  13.085   5.477  10.646
97430SOL    HW294065  12.962   5.463  10.733
97431SOL     OW94066   3.025  10.402   3.312
97431SOL    HW194067   3.114  10.374   3.332
97431SOL    HW294068   3.026  10.496   3.325
97432SOL     OW94069  13.571   1.035   1.414
97432SOL    HW194070  13.503   1.071   1.471
97432SOL    HW294071  13.652   1.073   1.447
97433SOL     OW94072   7.209  10.191   5.217
97433SOL    HW194073   7.149  10.222   5.148
97433SOL    HW294074   7.211  10.096   5.206
97434SOL     OW94075   8.384  13.788   2.148
97434SOL    HW194076   8.391  13.783   2.052
97434SOL    HW294077   8.406  13.878   2.169
97435SOL     OW94078   3.972   2.617   6.258
97435SOL    HW194079   4.030   2.693   6.270
97435SOL    HW294080   3.968   2.606   6.163
97436SOL     OW94081   2.607  10.953   4.490
97436SOL    HW194082   2.516  10.980   4.480
97436SOL    HW294083   2.611  10.914   4.578
97437SOL     OW94084  11.935   1.115   6.667
97437SOL    HW194085  11.980   1.197   6.683
97437SOL    HW294086  11.855   1.120   6.721
97438SOL     OW94087   2.068   1.406  14.814
97438SOL    HW194088   2.099   1.335  14.757
97438SOL    HW294089   2.143   1.466  14.820
97439SOL     OW94090  12.153   4.225  11.991
97439SOL    HW194091  12.106   4.292  11.942
97439SOL    HW294092  12.165   4.153  11.929
97440SOL     OW94093   7.822   8.074  12.059
97440SOL    HW194094   7.811   8.008  12.128
97440SOL    HW294095   7.783   8.153  12.095
97441SOL     OW94096   3.288  12.074  13.412
97441SOL    HW194097   3.302  11.990  13.368
97441SOL    HW294098   3.374  12.100  13.444
97442SOL     OW94099   9.211  11.303   6.731
97442SOL    HW194100   9.277  11.334   6.670
97442SOL    HW294101   9.153  11.378   6.745
97443SOL     OW94102   0.461  10.299  13.496
97443SOL    HW194103   0.380  10.308  13.546
97443SOL    HW294104   0.435  10.316  13.405
97444SOL     OW94105  12.300   1.011   1.626
97444SOL    HW194106  12.389   0.978   1.622
97444SOL    HW294107  12.251   0.945   1.675
97445SOL     OW94108   3.299   6.368   7.996
97445SOL    HW194109   3.324   6.433   8.061
97445SOL    HW294110   3.203   6.371   7.995
97446SOL     OW94111   9.683   1.926   7.687
97446SOL    HW194112   9.648   2.015   7.685
97446SOL    HW294113   9.630   1.880   7.751
97447SOL     OW94114   4.398   4.232   4.181
97447SOL    HW194115   4.449   4.259   4.257
97447SOL    HW294116   4.312   4.272   4.194
97448SOL     OW94117  11.868   7.387   4.870
97448SOL    HW194118  11.858   7.482   4.879
97448SOL    HW294119  11.835   7.352   4.952
97449SOL     OW94120   3.174   0.561   1.151
97449SOL    HW194121   3.182   0.583   1.244
97449SOL    HW294122   3.204   0.639   1.105
97450SOL     OW94123  10.803  13.609   1.159
97450SOL    HW194124  10.803  13.704   1.154
97450SOL    HW294125  10.711  13.585   1.170
97451SOL     OW94126  10.035  13.519   9.767
97451SOL    HW194127  10.131  13.521   9.776
97451SOL    HW294128  10.013  13.607   9.734
97452SOL     OW94129   4.229  14.688  12.829
97452SOL    HW194130   4.294  14.639  12.779
97452SOL    HW294131   4.201  14.759  12.770
97453SOL     OW94132   6.424   1.953   9.597
97453SOL    HW194133   6.458   1.875   9.554
97453SOL    HW294134   6.424   1.931   9.690
97454SOL     OW94135  13.846   8.293   1.111
97454SOL    HW194136  13.758   8.278   1.077
97454SOL    HW294137  13.900   8.228   1.065
97455SOL     OW94138   0.657  13.011  12.271
97455SOL    HW194139   0.581  12.980  12.221
97455SOL    HW294140   0.635  13.100  12.295
97456SOL     OW94141  11.238  11.261   0.631
97456SOL    HW194142  11.283  11.220   0.557
97456SOL    HW294143  11.225  11.190   0.694
97457SOL     OW94144  10.593  10.523  14.295
97457SOL    HW194145  10.552  10.565  14.219
97457SOL    HW294146  10.626  10.440  14.261
97458SOL     OW94147   9.997  13.686   3.890
97458SOL    HW194148   9.974  13.596   3.868
97458SOL    HW294149  10.009  13.685   3.985
97459SOL     OW94150   2.536  13.576   3.406
97459SOL    HW194151   2.596  13.636   3.362
97459SOL    HW294152   2.525  13.503   3.344
97460SOL     OW94153  13.168  12.565   7.457
97460SOL    HW194154  13.095  12.503   7.463
97460SOL    HW294155  13.160  12.604   7.371
97461SOL     OW94156   9.949   7.945  11.038
97461SOL    HW194157   9.915   7.914  10.954
97461SOL    HW294158  10.033   7.985  11.017
97462SOL     OW94159   9.839   1.432  12.292
97462SOL    HW194160   9.880   1.519  12.297
97462SOL    HW294161   9.770   1.442  12.226
97463SOL     OW94162   2.954   4.959  12.568
97463SOL    HW194163   2.954   4.949  12.473
97463SOL    HW294164   3.008   5.037  12.584
97464SOL     OW94165  13.129  13.131   8.034
97464SOL    HW194166  13.081  13.176   8.104
97464SOL    HW294167  13.110  13.039   8.046
97465SOL     OW94168   6.281   1.660   7.631
97465SOL    HW194169   6.233   1.700   7.704
97465SOL    HW294170   6.214   1.610   7.584
97466SOL     OW94171   7.555   6.066   7.882
97466SOL    HW194172   7.559   6.021   7.798
97466SOL    HW294173   7.466   6.099   7.888
97467SOL     OW94174   9.237  12.143  12.605
97467SOL    HW194175   9.243  12.047  12.600
97467SOL    HW294176   9.298  12.174  12.538
97468SOL     OW94177   2.289   6.429  14.514
97468SOL    HW194178   2.351   6.420  14.587
97468SOL    HW294179   2.218   6.369  14.536
97469SOL     OW94180   9.724   5.588   7.841
97469SOL    HW194181   9.797   5.543   7.883
97469SOL    HW294182   9.715   5.670   7.890
97470SOL     OW94183   1.416   5.513   0.030
97470SOL    HW194184   1.456   5.479   0.110
97470SOL    HW294185   1.435   5.606   0.031
97471SOL     OW94186   9.223   1.401   3.471
97471SOL    HW194187   9.166   1.470   3.506
97471SOL    HW294188   9.193   1.321   3.515
97472SOL     OW94189   7.638  12.764  13.713
97472SOL    HW194190   7.570  12.709  13.750
97472SOL    HW294191   7.706  12.702  13.685
97473SOL     OW94192  10.510   5.891   7.237
97473SOL    HW194193  10.480   5.807   7.202
97473SOL    HW294194  10.488   5.955   7.169
97474SOL     OW94195   0.563   1.703   0.748
97474SOL    HW194196   0.493   1.641   0.730
97474SOL    HW294197   0.636   1.648   0.778
97475SOL     OW94198  12.823   5.407   7.381
97475SOL    HW194199  12.875   5.482   7.411
97475SOL    HW294200  12.746   5.447   7.340
97476SOL     OW94201   9.918  12.381   3.455
97476SOL    HW194202   9.847  12.329   3.493
97476SOL    HW294203   9.929  12.345   3.367
97477SOL     OW94204   9.403   6.183   2.831
97477SOL    HW194205   9.360   6.218   2.753
97477SOL    HW294206   9.336   6.189   2.900
97478SOL     OW94207   4.522  13.613   9.091
97478SOL    HW194208   4.544  13.697   9.051
97478SOL    HW294209   4.578  13.550   9.045
97479SOL     OW94210   7.447   7.297   1.109
97479SOL    HW194211   7.461   7.375   1.056
97479SOL    HW294212   7.517   7.299   1.174
97480SOL     OW94213   1.624  12.737  14.012
97480SOL    HW194214   1.639  12.759  14.104
97480SOL    HW294215   1.630  12.642  14.009
97481SOL     OW94216  14.525   7.906   8.054
97481SOL    HW194217  14.536   7.822   8.011
97481SOL    HW294218  14.580   7.966   8.004
97482SOL     OW94219  10.992   7.578   7.488
97482SOL    HW194220  10.928   7.596   7.419
97482SOL    HW294221  10.949   7.514   7.545
97483SOL     OW94222   7.534   6.883   4.608
97483SOL    HW194223   7.487   6.811   4.650
97483SOL    HW294224   7.482   6.904   4.531
97484SOL     OW94225  11.515   6.212  11.683
97484SOL    HW194226  11.481   6.249  11.764
97484SOL    HW294227  11.486   6.120  11.685
97485SOL     OW94228   8.734  11.937   6.544
97485SOL    HW194229   8.669  11.996   6.506
97485SOL    HW294230   8.723  11.855   6.496
97486SOL     OW94231   3.668   4.249   9.067
97486SOL    HW194232   3.718   4.296   9.001
97486SOL    HW294233   3.731   4.192   9.110
97487SOL     OW94234   9.725   6.342  13.001
97487SOL    HW194235   9.758   6.363  13.088
97487SOL    HW294236   9.760   6.255  12.982
97488SOL     OW94237   5.570   7.567   3.347
97488SOL    HW194238   5.503   7.627   3.379
97488SOL    HW294239   5.521   7.488   3.321
97489SOL     OW94240   8.962  11.936   9.761
97489SOL    HW194241   8.969  11.925   9.856
97489SOL    HW294242   8.870  11.954   9.746
97490SOL     OW94243   0.977  11.563   1.876
97490SOL    HW194244   0.991  11.624   1.803
97490SOL    HW294245   0.982  11.617   1.954
97491SOL     OW94246  12.251   1.943   4.891
97491SOL    HW194247  12.290   1.922   4.806
97491SOL    HW294248  12.267   1.865   4.945
97492SOL     OW94249   0.028  10.707   7.313
97492SOL    HW194250   0.008  10.801   7.305
97492SOL    HW294251   0.028  10.675   7.223
97493SOL     OW94252  11.067   1.454   6.976
97493SOL    HW194253  11.099   1.393   6.909
97493SOL    HW294254  11.048   1.399   7.052
97494SOL     OW94255  13.297  12.602   1.426
97494SOL    HW194256  13.225  12.650   1.467
97494SOL    HW294257  13.277  12.604   1.332
97495SOL     OW94258   8.680  13.892  13.462
97495SOL    HW194259   8.637  13.935  13.535
97495SOL    HW294260   8.760  13.943  13.448
97496SOL     OW94261  10.035   2.578  11.639
97496SOL    HW194262  10.128   2.601  11.645
97496SOL    HW294263   9.990   2.663  11.633
97497SOL     OW94264   8.553  13.211   2.902
97497SOL    HW194265   8.560  13.137   2.841
97497SOL    HW294266   8.553  13.289   2.846
97498SOL     OW94267   7.086   7.105   0.404
97498SOL    HW194268   7.007   7.147   0.372
97498SOL    HW294269   7.157   7.160   0.372
97499SOL     OW94270   3.766   7.307  14.444
97499SOL    HW194271   3.849   7.332  14.402
97499SOL    HW294272   3.714   7.269  14.374
97500SOL     OW94273   8.861  12.168  13.773
97500SOL    HW194274   8.893  12.125  13.693
97500SOL    HW294275   8.779  12.210  13.746
97501SOL     OW94276   9.958   6.088  11.322
97501SOL    HW194277  10.003   6.058  11.401
97501SOL    HW294278   9.865   6.074  11.340
97502SOL     OW94279   3.901   2.082   8.373
97502SOL    HW194280   3.855   2.093   8.289
97502SOL    HW294281   3.980   2.134   8.365
97503SOL     OW94282  11.606  13.645   8.072
97503SOL    HW194283  11.684  13.645   8.128
97503SOL    HW294284  11.533  13.631   8.132
97504SOL     OW94285  12.475  12.908   1.361
97504SOL    HW194286  12.416  12.975   1.326
97504SOL    HW294287  12.513  12.947   1.439
97505SOL     OW94288   6.825   2.486  13.131
97505SOL    HW194289   6.776   2.567  13.117
97505SOL    HW294290   6.895   2.511  13.191
97506SOL     OW94291   3.863   2.214   1.100
97506SOL    HW194292   3.843   2.129   1.061
97506SOL    HW294293   3.959   2.220   1.097
97507SOL     OW94294  13.703   7.274   3.043
97507SOL    HW194295  13.715   7.366   3.063
97507SOL    HW294296  13.665   7.274   2.955
97508SOL     OW94297  10.051  14.322   6.089
97508SOL    HW194298  10.132  14.318   6.038
97508SOL    HW294299  10.081  14.344   6.178
97509SOL     OW94300  10.043  11.758  12.252
97509SOL    HW194301  10.124  11.808  12.243
97509SOL    HW294302  10.060  11.678  12.202
97510SOL     OW94303   8.017   2.206   7.994
97510SOL    HW194304   7.934   2.163   7.979
97510SOL    HW294305   8.076   2.169   7.927
97511SOL     OW94306   5.332  13.580  10.088
97511SOL    HW194307   5.267  13.527  10.132
97511SOL    HW294308   5.287  13.614  10.010
97512SOL     OW94309   0.559  10.228  11.826
97512SOL    HW194310   0.593  10.153  11.876
97512SOL    HW294311   0.623  10.297  11.839
97513SOL     OW94312  11.913   7.223   7.345
97513SOL    HW194313  11.922   7.309   7.306
97513SOL    HW294314  11.992   7.176   7.319
97514SOL     OW94315   1.816   7.390   8.865
97514SOL    HW194316   1.762   7.363   8.938
97514SOL    HW294317   1.902   7.353   8.883
97515SOL     OW94318   3.232  10.838  14.781
97515SOL    HW194319   3.224  10.751  14.821
97515SOL    HW294320   3.203  10.899  14.849
97516SOL     OW94321   6.402  12.804  12.532
97516SOL    HW194322   6.405  12.872  12.599
97516SOL    HW294323   6.313  12.809  12.497
97517SOL     OW94324   3.221   9.381   4.458
97517SOL    HW194325   3.213   9.476   4.472
97517SOL    HW294326   3.279   9.373   4.382
97518SOL     OW94327  12.463   8.267   8.568
97518SOL    HW194328  12.380   8.304   8.597
97518SOL    HW294329  12.513   8.254   8.649
97519SOL     OW94330  11.451  10.812  14.592
97519SOL    HW194331  11.454  10.872  14.518
97519SOL    HW294332  11.467  10.867  14.668
97520SOL     OW94333   8.237   2.000   8.690
97520SOL    HW194334   8.238   1.914   8.647
97520SOL    HW294335   8.308   1.996   8.754
97521SOL     OW94336  13.832  13.625  10.045
97521SOL    HW194337  13.746  13.585  10.056
97521SOL    HW294338  13.814  13.719  10.046
97522SOL     OW94339   6.065   7.613   4.404
97522SOL    HW194340   6.151   7.642   4.374
97522SOL    HW294341   6.068   7.518   4.398
97523SOL     OW94342  11.054  13.005  12.637
97523SOL    HW194343  11.144  13.019  12.607
97523SOL    HW294344  11.002  13.071  12.591
97524SOL     OW94345   4.576   9.955   6.220
97524SOL    HW194346   4.481   9.964   6.234
97524SOL    HW294347   4.595   9.866   6.250
97525SOL     OW94348   8.600   2.011   2.173
97525SOL    HW194349   8.597   1.916   2.181
97525SOL    HW294350   8.687   2.029   2.137
97526SOL     OW94351   3.954  10.344  13.322
97526SOL    HW194352   3.955  10.319  13.230
97526SOL    HW294353   4.045  10.360  13.344
97527SOL     OW94354  14.742  14.232   1.061
97527SOL    HW194355  14.707  14.162   1.006
97527SOL    HW294356  14.749  14.194   1.148
97528SOL     OW94357   7.751   7.821   2.577
97528SOL    HW194358   7.797   7.875   2.512
97528SOL    HW294359   7.771   7.863   2.661
97529SOL     OW94360   4.863  12.844   2.892
97529SOL    HW194361   4.903  12.769   2.937
97529SOL    HW294362   4.825  12.896   2.962
97530SOL     OW94363   3.955   6.884   2.350
97530SOL    HW194364   3.910   6.812   2.395
97530SOL    HW294365   3.991   6.937   2.421
97531SOL     OW94366   5.271   7.206   1.769
97531SOL    HW194367   5.242   7.297   1.764
97531SOL    HW294368   5.209   7.157   1.716
97532SOL     OW94369   0.574  13.293   9.600
97532SOL    HW194370   0.662  13.297   9.561
97532SOL    HW294371   0.582  13.228   9.670
97533SOL     OW94372   0.785   0.581  14.636
97533SOL    HW194373   0.751   0.522  14.568
97533SOL    HW294374   0.838   0.644  14.588
97534SOL     OW94375   9.127   5.465  14.710
97534SOL    HW194376   9.041   5.455  14.670
97534SOL    HW294377   9.164   5.376  14.710
97535SOL     OW94378   5.707   2.293   7.547
97535SOL    HW194379   5.619   2.329   7.553
97535SOL    HW294380   5.694   2.199   7.540
97536SOL     OW94381  12.073  12.239  13.925
97536SOL    HW194382  12.154  12.210  13.967
97536SOL    HW294383  12.028  12.289  13.992
97537SOL     OW94384  13.989  12.946   9.264
97537SOL    HW194385  14.071  12.993   9.249
97537SOL    HW294386  13.927  13.014   9.290
97538SOL     OW94387  13.426   6.552   9.124
97538SOL    HW194388  13.418   6.514   9.036
97538SOL    HW294389  13.339   6.542   9.163
97539SOL     OW94390   9.254   4.840   1.671
97539SOL    HW194391   9.308   4.771   1.633
97539SOL    HW294392   9.165   4.822   1.638
97540SOL     OW94393  12.059  12.994   6.539
97540SOL    HW194394  12.098  12.943   6.610
97540SOL    HW294395  12.037  13.078   6.578
97541SOL     OW94396  12.145   1.107   5.550
97541SOL    HW194397  12.133   1.192   5.508
97541SOL    HW294398  12.137   1.044   5.478
97542SOL     OW94399   1.792   8.679   7.833
97542SOL    HW194400   1.761   8.614   7.770
97542SOL    HW294401   1.763   8.763   7.797
97543SOL     OW94402   9.096  13.280   6.639
97543SOL    HW194403   9.133  13.196   6.667
97543SOL    HW294404   9.077  13.326   6.721
97544SOL     OW94405   8.600  10.213  10.586
97544SOL    HW194406   8.521  10.267  10.586
97544SOL    HW294407   8.649  10.242  10.509
97545SOL     OW94408   3.294  11.692   7.406
97545SOL    HW194409   3.230  11.762   7.399
97545SOL    HW294410   3.271  11.645   7.486
97546SOL     OW94411  14.541   4.497   0.986
97546SOL    HW194412  14.511   4.588   0.985
97546SOL    HW294413  14.632   4.501   0.956
97547SOL     OW94414   0.128   6.376  12.893
97547SOL    HW194415   0.122   6.296  12.945
97547SOL    HW294416   0.038   6.390  12.861
97548SOL     OW94417  11.982  13.464  13.296
97548SOL    HW194418  11.941  13.468  13.383
97548SOL    HW294419  12.070  13.428  13.313
97549SOL     OW94420   4.966   5.995  12.692
97549SOL    HW194421   4.996   6.070  12.640
97549SOL    HW294422   4.871   6.002  12.690
97550SOL     OW94423   8.233   6.990  11.599
97550SOL    HW194424   8.189   6.911  11.628
97550SOL    HW294425   8.219   6.992  11.504
97551SOL     OW94426  14.769   6.466   2.656
97551SOL    HW194427  14.708   6.458   2.729
97551SOL    HW294428  14.836   6.400   2.672
97552SOL     OW94429   1.705   5.170   9.916
97552SOL    HW194430   1.683   5.084   9.880
97552SOL    HW294431   1.649   5.231   9.869
97553SOL     OW94432  11.879   3.032   8.952
97553SOL    HW194433  11.911   2.996   8.869
97553SOL    HW294434  11.841   3.117   8.928
97554SOL     OW94435  12.262   7.864   5.645
97554SOL    HW194436  12.219   7.795   5.696
97554SOL    HW294437  12.353   7.835   5.639
97555SOL     OW94438   1.331   5.740  13.010
97555SOL    HW194439   1.256   5.681  13.016
97555SOL    HW294440   1.313   5.792  12.932
97556SOL     OW94441   2.114  11.502  12.747
97556SOL    HW194442   2.191  11.445  12.739
97556SOL    HW294443   2.130  11.553  12.826
97557SOL     OW94444   7.088  13.450  14.144
97557SOL    HW194445   7.023  13.476  14.210
97557SOL    HW294446   7.036  13.416  14.071
97558SOL     OW94447   8.655  11.898   5.644
97558SOL    HW194448   8.664  11.859   5.557
97558SOL    HW294449   8.565  11.876   5.670
97559SOL     OW94450   5.254   6.121   7.628
97559SOL    HW194451   5.265   6.216   7.616
97559SOL    HW294452   5.340   6.091   7.659
97560SOL     OW94453   4.975  12.713   5.063
97560SOL    HW194454   4.922  12.778   5.017
97560SOL    HW294455   4.952  12.630   5.021
97561SOL     OW94456   0.716  10.475  11.869
97561SOL    HW194457   0.729  10.565  11.840
97561SOL    HW294458   0.663  10.483  11.949
97562SOL     OW94459   1.607   6.458  14.687
97562SOL    HW194460   1.552   6.385  14.656
97562SOL    HW294461   1.546   6.531  14.697
97563SOL     OW94462   9.551   4.966   2.146
97563SOL    HW194463   9.611   4.962   2.220
97563SOL    HW294464   9.596   5.022   2.082
97564SOL     OW94465  11.139   6.492   8.377
97564SOL    HW194466  11.056   6.452   8.402
97564SOL    HW294467  11.147   6.570   8.432
97565SOL     OW94468   7.336   8.330   7.887
97565SOL    HW194469   7.344   8.235   7.880
97565SOL    HW294470   7.272   8.344   7.957
97566SOL     OW94471   5.781   1.891   9.187
97566SOL    HW194472   5.690   1.906   9.161
97566SOL    HW294473   5.781   1.805   9.229
97567SOL     OW94474   0.246  12.790  10.758
97567SOL    HW194475   0.316  12.816  10.698
97567SOL    HW294476   0.290  12.738  10.825
97568SOL     OW94477   7.104   5.359  10.403
97568SOL    HW194478   7.028   5.409  10.432
97568SOL    HW294479   7.179   5.411  10.429
97569SOL     OW94480  13.069  11.549   7.260
97569SOL    HW194481  12.989  11.569   7.309
97569SOL    HW294482  13.045  11.563   7.168
97570SOL     OW94483   9.502  12.860   2.494
97570SOL    HW194484   9.492  12.926   2.562
97570SOL    HW294485   9.583  12.814   2.515
97571SOL     OW94486   3.223   3.950   8.428
97571SOL    HW194487   3.234   3.993   8.513
97571SOL    HW294488   3.138   3.906   8.434
97572SOL     OW94489   2.674  13.930  13.777
97572SOL    HW194490   2.612  13.857  13.780
97572SOL    HW294491   2.661  13.975  13.861
97573SOL     OW94492   8.624  12.432  11.725
97573SOL    HW194493   8.549  12.479  11.760
97573SOL    HW294494   8.693  12.497  11.719
97574SOL     OW94495   8.820  12.071   8.555
97574SOL    HW194496   8.793  12.036   8.470
97574SOL    HW294497   8.915  12.060   8.556
97575SOL     OW94498  13.233   5.454   9.748
97575SOL    HW194499  13.320   5.423   9.774
97575SOL    HW294500  13.197   5.494   9.828
97576SOL     OW94501  11.464  11.680   5.800
97576SOL    HW194502  11.510  11.606   5.761
97576SOL    HW294503  11.524  11.754   5.789
97577SOL     OW94504   0.948  12.967  12.511
97577SOL    HW194505   0.951  13.043  12.453
97577SOL    HW294506   0.911  12.897  12.457
97578SOL     OW94507   8.689   5.963  11.068
97578SOL    HW194508   8.610   5.958  11.123
97578SOL    HW294509   8.683   6.050  11.027
97579SOL     OW94510   1.713   1.357   2.599
97579SOL    HW194511   1.796   1.383   2.559
97579SOL    HW294512   1.697   1.423   2.667
97580SOL     OW94513  14.366  10.811   1.443
97580SOL    HW194514  14.433  10.876   1.424
97580SOL    HW294515  14.379  10.789   1.535
97581SOL     OW94516   9.056   7.762  14.819
97581SOL    HW194517   9.141   7.804  14.835
97581SOL    HW294518   8.993   7.834  14.824
97582SOL     OW94519   4.708  11.602  11.006
97582SOL    HW194520   4.681  11.671  10.946
97582SOL    HW294521   4.760  11.542  10.952
97583SOL     OW94522  11.345   5.829   8.945
97583SOL    HW194523  11.339   5.782   8.862
97583SOL    HW294524  11.433   5.809   8.978
97584SOL     OW94525   7.949   4.983  11.985
97584SOL    HW194526   7.987   4.935  12.058
97584SOL    HW294527   7.956   5.075  12.009
97585SOL     OW94528   4.595   3.690   3.857
97585SOL    HW194529   4.623   3.727   3.774
97585SOL    HW294530   4.502   3.713   3.864
97586SOL     OW94531   3.614  10.565  13.136
97586SOL    HW194532   3.674  10.632  13.167
97586SOL    HW294533   3.557  10.609  13.073
97587SOL     OW94534   9.996   7.350   4.126
97587SOL    HW194535  10.052   7.292   4.074
97587SOL    HW294536  10.002   7.316   4.215
97588SOL     OW94537   5.568   5.782   2.218
97588SOL    HW194538   5.578   5.749   2.129
97588SOL    HW294539   5.515   5.861   2.207
97589SOL     OW94540   2.631  14.601   4.071
97589SOL    HW194541   2.677  14.683   4.055
97589SOL    HW294542   2.575  14.618   4.146
97590SOL     OW94543   2.934  12.401  12.915
97590SOL    HW194544   2.845  12.401  12.952
97590SOL    HW294545   2.956  12.494  12.908
97591SOL     OW94546   0.050   3.381   0.137
97591SOL    HW194547   0.089   3.384   0.225
97591SOL    HW294548   0.053   3.471   0.107
97592SOL     OW94549   3.603   4.226   2.480
97592SOL    HW194550   3.697   4.212   2.470
97592SOL    HW294551   3.563   4.150   2.438
97593SOL     OW94552   2.226  11.288  13.624
97593SOL    HW194553   2.286  11.329  13.562
97593SOL    HW294554   2.246  11.329  13.708
97594SOL     OW94555  12.471   8.039  12.488
97594SOL    HW194556  12.393   7.985  12.501
97594SOL    HW294557  12.527   8.018  12.563
97595SOL     OW94558   3.132   5.699   0.769
97595SOL    HW194559   3.116   5.726   0.859
97595SOL    HW294560   3.162   5.609   0.776
97596SOL     OW94561   0.388  14.118   7.422
97596SOL    HW194562   0.390  14.201   7.374
97596SOL    HW294563   0.471  14.117   7.470
97597SOL     OW94564   1.434  11.997   6.569
97597SOL    HW194565   1.408  12.063   6.504
97597SOL    HW294566   1.526  11.979   6.548
97598SOL     OW94567   3.428   7.621   1.059
97598SOL    HW194568   3.458   7.650   0.973
97598SOL    HW294569   3.379   7.540   1.041
97599SOL     OW94570   5.063  11.121   0.312
97599SOL    HW194571   5.012  11.080   0.382
97599SOL    HW294572   5.145  11.072   0.311
97600SOL     OW94573   8.680  12.291   3.526
97600SOL    HW194574   8.714  12.202   3.538
97600SOL    HW294575   8.588  12.278   3.502
97601SOL     OW94576   6.606  10.069   2.993
97601SOL    HW194577   6.613   9.980   3.027
97601SOL    HW294578   6.614  10.060   2.898
97602SOL     OW94579  10.315   4.490   1.857
97602SOL    HW194580  10.326   4.549   1.931
97602SOL    HW294581  10.265   4.540   1.793
97603SOL     OW94582   3.885   3.707   9.712
97603SOL    HW194583   3.966   3.658   9.700
97603SOL    HW294584   3.849   3.674   9.794
97604SOL     OW94585  11.297   9.506   1.372
97604SOL    HW194586  11.391   9.519   1.363
97604SOL    HW294587  11.269   9.572   1.436
97605SOL     OW94588  14.121  11.933  13.288
97605SOL    HW194589  14.057  11.971  13.348
97605SOL    HW294590  14.172  11.873  13.342
97606SOL     OW94591   9.794   9.944   3.966
97606SOL    HW194592   9.710   9.924   3.924
97606SOL    HW294593   9.775   9.940   4.060
97607SOL     OW94594   9.885   6.670   0.261
97607SOL    HW194595   9.824   6.630   0.198
97607SOL    HW294596   9.958   6.700   0.207
97608SOL     OW94597   2.849   5.968   8.028
97608SOL    HW194598   2.882   5.919   7.953
97608SOL    HW294599   2.775   5.917   8.061
97609SOL     OW94600  10.566  10.332  12.576
97609SOL    HW194601  10.585  10.326  12.483
97609SOL    HW294602  10.604  10.252  12.613
97610SOL     OW94603  10.147   2.966   7.400
97610SOL    HW194604  10.154   2.990   7.308
97610SOL    HW294605  10.122   3.047   7.444
97611SOL     OW94606   3.859  13.234  14.831
97611SOL    HW194607   3.822  13.170  14.771
97611SOL    HW294608   3.790  13.248   0.019
97612SOL     OW94609   2.345   4.170   8.462
97612SOL    HW194610   2.404   4.126   8.522
97612SOL    HW294611   2.261   4.126   8.473
97613SOL     OW94612   9.192   9.363  10.310
97613SOL    HW194613   9.152   9.346  10.395
97613SOL    HW294614   9.125   9.335  10.246
97614SOL     OW94615   4.771   0.526  11.865
97614SOL    HW194616   4.751   0.575  11.785
97614SOL    HW294617   4.724   0.573  11.934
97615SOL     OW94618   5.217  11.406   6.961
97615SOL    HW194619   5.256  11.353   7.030
97615SOL    HW294620   5.264  11.489   6.965
97616SOL     OW94621  13.921   6.005   0.310
97616SOL    HW194622  13.880   5.920   0.296
97616SOL    HW294623  13.973   6.020   0.231
97617SOL     OW94624   1.482   4.359  12.463
97617SOL    HW194625   1.498   4.432  12.523
97617SOL    HW294626   1.532   4.381  12.384
97618SOL     OW94627   3.497   2.364  14.490
97618SOL    HW194628   3.576   2.332  14.447
97618SOL    HW294629   3.474   2.296  14.552
97619SOL     OW94630   1.502  12.502  12.190
97619SOL    HW194631   1.479  12.423  12.141
97619SOL    HW294632   1.418  12.542  12.212
97620SOL     OW94633   7.373  13.728  12.631
97620SOL    HW194634   7.291  13.749  12.675
97620SOL    HW294635   7.384  13.634  12.642
97621SOL     OW94636   4.062  14.612   0.169
97621SOL    HW194637   4.051  14.532   0.118
97621SOL    HW294638   4.026  14.592   0.255
97622SOL     OW94639   0.696  10.797   2.622
97622SOL    HW194640   0.783  10.778   2.656
97622SOL    HW294641   0.710  10.825   2.532
97623SOL     OW94642   2.564  14.438   2.183
97623SOL    HW194643   2.606  14.386   2.251
97623SOL    HW294644   2.629  14.505   2.160
97624SOL     OW94645   6.736  11.788  12.902
97624SOL    HW194646   6.724  11.696  12.927
97624SOL    HW294647   6.656  11.811  12.855
97625SOL     OW94648   3.861   6.148   4.555
97625SOL    HW194649   3.884   6.061   4.523
97625SOL    HW294650   3.940   6.200   4.544
97626SOL     OW94651   6.415   1.134   8.907
97626SOL    HW194652   6.458   1.194   8.846
97626SOL    HW294653   6.323   1.161   8.905
97627SOL     OW94654   2.514   2.057   2.884
97627SOL    HW194655   2.506   1.997   2.958
97627SOL    HW294656   2.531   2.142   2.923
97628SOL     OW94657  10.712  12.230   5.807
97628SOL    HW194658  10.679  12.146   5.838
97628SOL    HW294659  10.638  12.290   5.815
97629SOL     OW94660   0.249  11.031  12.021
97629SOL    HW194661   0.230  11.067  11.935
97629SOL    HW294662   0.165  10.993  12.050
97630SOL     OW94663   1.810   6.816  14.427
97630SOL    HW194664   1.777   6.870  14.355
97630SOL    HW294665   1.759   6.735  14.422
97631SOL     OW94666   5.057   2.427   5.701
97631SOL    HW194667   5.095   2.415   5.788
97631SOL    HW294668   5.125   2.472   5.651
97632SOL     OW94669   2.168   0.584   2.059
97632SOL    HW194670   2.247   0.538   2.030
97632SOL    HW294671   2.128   0.615   1.977
97633SOL     OW94672   5.634   9.767   1.358
97633SOL    HW194673   5.554   9.714   1.356
97633SOL    HW294674   5.701   9.709   1.394
97634SOL     OW94675   0.789  10.227   3.199
97634SOL    HW194676   0.861  10.212   3.260
97634SOL    HW294677   0.830  10.273   3.125
97635SOL     OW94678   5.652  12.721  13.273
97635SOL    HW194679   5.722  12.747  13.213
97635SOL    HW294680   5.578  12.777  13.249
97636SOL     OW94681   4.328  10.751  13.067
97636SOL    HW194682   4.351  10.828  13.016
97636SOL    HW294683   4.410  10.703  13.077
97637SOL     OW94684   1.383  12.107   0.558
97637SOL    HW194685   1.368  12.055   0.479
97637SOL    HW294686   1.360  12.048   0.630
97638SOL     OW94687   7.852   4.879  13.086
97638SOL    HW194688   7.798   4.924  13.151
97638SOL    HW294689   7.922   4.839  13.137
97639SOL     OW94690   6.818   2.128   8.360
97639SOL    HW194691   6.745   2.190   8.356
97639SOL    HW294692   6.814   2.081   8.277
97640SOL     OW94693   6.522   9.348  12.294
97640SOL    HW194694   6.556   9.396  12.218
97640SOL    HW294695   6.428   9.361  12.290
97641SOL     OW94696  11.496   0.114  11.865
97641SOL    HW194697  11.568   0.147  11.812
97641SOL    HW294698  11.536   0.047  11.921
97642SOL     OW94699  12.595   4.636  14.206
97642SOL    HW194700  12.557   4.688  14.135
97642SOL    HW294701  12.521   4.614  14.262
97643SOL     OW94702   8.287   7.621   9.593
97643SOL    HW194703   8.316   7.541   9.636
97643SOL    HW294704   8.256   7.592   9.507
97644SOL     OW94705   5.223  13.549  13.158
97644SOL    HW194706   5.247  13.480  13.095
97644SOL    HW294707   5.219  13.628  13.105
97645SOL     OW94708   4.432   7.681   8.324
97645SOL    HW194709   4.362   7.743   8.345
97645SOL    HW294710   4.513   7.726   8.349
97646SOL     OW94711   2.850  10.273  13.420
97646SOL    HW194712   2.901  10.238  13.493
97646SOL    HW294713   2.852  10.368  13.433
97647SOL     OW94714   5.855   5.198   0.465
97647SOL    HW194715   5.903   5.118   0.442
97647SOL    HW294716   5.867   5.256   0.390
97648SOL     OW94717  10.899   3.028   6.235
97648SOL    HW194718  10.970   2.990   6.286
97648SOL    HW294719  10.918   3.122   6.235
97649SOL     OW94720   5.894   4.733   2.855
97649SOL    HW194721   5.975   4.685   2.838
97649SOL    HW294722   5.842   4.722   2.775
97650SOL     OW94723   6.385  14.496   3.664
97650SOL    HW194724   6.461  14.438   3.661
97650SOL    HW294725   6.363  14.503   3.757
97651SOL     OW94726  11.366   6.402  12.943
97651SOL    HW194727  11.363   6.498  12.949
97651SOL    HW294728  11.297   6.372  13.002
97652SOL     OW94729   5.342   2.561  11.232
97652SOL    HW194730   5.394   2.618  11.176
97652SOL    HW294731   5.340   2.606  11.316
97653SOL     OW94732   6.574   0.042  14.288
97653SOL    HW194733   6.568   0.113  14.224
97653SOL    HW294734   6.546  14.842  14.240
97654SOL     OW94735   5.686  12.194   0.324
97654SOL    HW194736   5.716  12.228   0.408
97654SOL    HW294737   5.661  12.103   0.342
97655SOL     OW94738   1.166   9.816   2.990
97655SOL    HW194739   1.149   9.834   2.897
97655SOL    HW294740   1.126   9.731   3.005
97656SOL     OW94741  10.962   7.356   7.026
97656SOL    HW194742  10.999   7.270   7.045
97656SOL    HW294743  11.024   7.418   7.064
97657SOL     OW94744   0.533  11.524   9.531
97657SOL    HW194745   0.511  11.520   9.624
97657SOL    HW294746   0.474  11.591   9.496
97658SOL     OW94747   1.093  14.177   0.158
97658SOL    HW194748   1.128  14.220   0.236
97658SOL    HW294749   1.009  14.141   0.186
97659SOL     OW94750   5.227   4.805   2.178
97659SOL    HW194751   5.252   4.896   2.160
97659SOL    HW294752   5.230   4.762   2.092
97660SOL     OW94753   3.321  10.727   9.437
97660SOL    HW194754   3.350  10.753   9.524
97660SOL    HW294755   3.314  10.808   9.387
97661SOL     OW94756  14.455   0.068   7.891
97661SOL    HW194757  14.371   0.037   7.858
97661SOL    HW294758  14.508   0.080   7.812
97662SOL     OW94759  11.089   8.646  13.286
97662SOL    HW194760  11.130   8.716  13.336
97662SOL    HW294761  11.086   8.572  13.346
97663SOL     OW94762   0.336   6.085  12.850
97663SOL    HW194763   0.350   6.105  12.943
97663SOL    HW294764   0.330   5.989  12.847
97664SOL     OW94765   0.321  12.230   3.492
97664SOL    HW194766   0.412  12.207   3.511
97664SOL    HW294767   0.318  12.325   3.499
97665SOL     OW94768   9.554  11.461   2.841
97665SOL    HW194769   9.571  11.473   2.934
97665SOL    HW294770   9.481  11.521   2.822
97666SOL     OW94771   8.218   5.037  13.284
97666SOL    HW194772   8.265   5.086  13.352
97666SOL    HW294773   8.144   5.094  13.261
97667SOL     OW94774   5.861   3.829  12.950
97667SOL    HW194775   5.812   3.824  13.032
97667SOL    HW294776   5.923   3.901  12.963
97668SOL     OW94777  11.881   5.465   3.170
97668SOL    HW194778  11.928   5.542   3.202
97668SOL    HW294779  11.934   5.434   3.097
97669SOL     OW94780   5.787   3.356  12.776
97669SOL    HW194781   5.783   3.379  12.683
97669SOL    HW294782   5.862   3.404  12.810
97670SOL     OW94783  13.734  12.608  13.706
97670SOL    HW194784  13.792  12.627  13.779
97670SOL    HW294785  13.668  12.678  13.708
97671SOL     OW94786   9.764  11.320   7.728
97671SOL    HW194787   9.767  11.228   7.753
97671SOL    HW294788   9.763  11.368   7.811
97672SOL     OW94789   0.626   2.593   6.823
97672SOL    HW194790   0.537   2.625   6.833
97672SOL    HW294791   0.617   2.511   6.775
97673SOL     OW94792   4.855   9.215   3.353
97673SOL    HW194793   4.803   9.270   3.294
97673SOL    HW294794   4.946   9.232   3.328
97674SOL     OW94795   1.030   4.049  11.030
97674SOL    HW194796   0.963   4.004  10.978
97674SOL    HW294797   0.985   4.125  11.067
97675SOL     OW94798   8.437  13.738  11.760
97675SOL    HW194799   8.513  13.784  11.724
97675SOL    HW294800   8.388  13.709  11.683
97676SOL     OW94801   6.550  10.408   2.642
97676SOL    HW194802   6.557  10.357   2.561
97676SOL    HW294803   6.497  10.353   2.700
97677SOL     OW94804   4.934  11.174   2.824
97677SOL    HW194805   5.001  11.240   2.808
97677SOL    HW294806   4.942  11.113   2.751
97678SOL     OW94807  12.491  14.654   8.938
97678SOL    HW194808  12.540  14.670   9.018
97678SOL    HW294809  12.533  14.578   8.898
97679SOL     OW94810   1.161  14.094  14.492
97679SOL    HW194811   1.249  14.093  14.528
97679SOL    HW294812   1.145  14.185  14.469
97680SOL     OW94813   4.766   4.284   0.947
97680SOL    HW194814   4.713   4.228   0.891
97680SOL    HW294815   4.755   4.248   1.035
97681SOL     OW94816   3.789   9.202   8.907
97681SOL    HW194817   3.736   9.167   8.835
97681SOL    HW294818   3.825   9.125   8.951
97682SOL     OW94819   7.389  11.975   3.466
97682SOL    HW194820   7.310  11.922   3.458
97682SOL    HW294821   7.443  11.947   3.392
97683SOL     OW94822   6.395   5.785   6.294
97683SOL    HW194823   6.303   5.781   6.321
97683SOL    HW294824   6.391   5.803   6.200
97684SOL     OW94825   9.087  12.069   7.696
97684SOL    HW194826   9.128  12.104   7.616
97684SOL    HW294827   9.161  12.039   7.749
97685SOL     OW94828  14.728   7.538   7.541
97685SOL    HW194829  14.700   7.629   7.530
97685SOL    HW294830  14.730   7.502   7.453
97686SOL     OW94831   0.479  11.029   6.048
97686SOL    HW194832   0.494  11.113   6.006
97686SOL    HW294833   0.501  11.043   6.140
97687SOL     OW94834   1.313  13.086  13.006
97687SOL    HW194835   1.388  13.112  13.059
97687SOL    HW294836   1.288  13.000  13.041
97688SOL     OW94837   1.450  13.565  11.124
97688SOL    HW194838   1.512  13.636  11.142
97688SOL    HW294839   1.365  13.608  11.122
97689SOL     OW94840   9.982   1.416   6.501
97689SOL    HW194841   9.973   1.356   6.574
97689SOL    HW294842  10.076   1.424   6.486
97690SOL     OW94843   6.812   1.920  13.149
97690SOL    HW194844   6.841   2.011  13.153
97690SOL    HW294845   6.762   1.914  13.068
97691SOL     OW94846   2.762   3.813  14.274
97691SOL    HW194847   2.721   3.898  14.255
97691SOL    HW294848   2.762   3.767  14.191
97692SOL     OW94849  14.342  12.665   1.576
97692SOL    HW194850  14.370  12.653   1.667
97692SOL    HW294851  14.322  12.577   1.546
97693SOL     OW94852  13.695  14.801   3.947
97693SOL    HW194853  13.753  14.874   3.969
97693SOL    HW294854  13.723  14.773   3.860
97694SOL     OW94855   7.269   7.648   2.960
97694SOL    HW194856   7.347   7.703   2.949
97694SOL    HW294857   7.302   7.559   2.959
97695SOL     OW94858   2.412   6.974  10.475
97695SOL    HW194859   2.495   6.961  10.523
97695SOL    HW294860   2.405   6.898  10.418
97696SOL     OW94861   8.068   1.165   0.783
97696SOL    HW194862   8.063   1.188   0.691
97696SOL    HW294863   7.990   1.111   0.798
97697SOL     OW94864   4.750   0.021   2.329
97697SOL    HW194865   4.693   0.055   2.398
97697SOL    HW294866   4.697  14.832   2.285
97698SOL     OW94867  13.900   5.541   5.222
97698SOL    HW194868  13.960   5.570   5.291
97698SOL    HW294869  13.915   5.602   5.150
97699SOL     OW94870  13.559   6.260   0.386
97699SOL    HW194871  13.503   6.193   0.348
97699SOL    HW294872  13.499   6.320   0.430
97700SOL     OW94873   9.169  14.659  12.351
97700SOL    HW194874   9.204  14.745  12.325
97700SOL    HW294875   9.107  14.679  12.421
97701SOL     OW94876   2.142   3.488   1.481
97701SOL    HW194877   2.132   3.573   1.438
97701SOL    HW294878   2.228   3.457   1.452
97702SOL     OW94879  10.348  12.341  13.990
97702SOL    HW194880  10.383  12.265  14.036
97702SOL    HW294881  10.254  12.324  13.982
97703SOL     OW94882   2.792   0.901   7.474
97703SOL    HW194883   2.739   0.979   7.459
97703SOL    HW294884   2.883   0.931   7.465
97704SOL     OW94885   0.302   3.751   4.514
97704SOL    HW194886   0.240   3.798   4.569
97704SOL    HW294887   0.307   3.804   4.434
97705SOL     OW94888  12.349   0.437  13.236
97705SOL    HW194889  12.288   0.472  13.301
97705SOL    HW294890  12.305   0.449  13.152
97706SOL     OW94891   4.562  13.180   2.864
97706SOL    HW194892   4.538  13.112   2.802
97706SOL    HW294893   4.608  13.245   2.811
97707SOL     OW94894  13.850   4.139  14.426
97707SOL    HW194895  13.830   4.207  14.362
97707SOL    HW294896  13.796   4.064  14.400
97708SOL     OW94897   1.535   6.342  13.078
97708SOL    HW194898   1.440   6.342  13.077
97708SOL    HW294899   1.560   6.342  12.986
97709SOL     OW94900  13.196   9.146   9.652
97709SOL    HW194901  13.221   9.235   9.627
97709SOL    HW294902  13.267   9.116   9.709
97710SOL     OW94903  11.845   4.568  10.829
97710SOL    HW194904  11.804   4.603  10.750
97710SOL    HW294905  11.840   4.639  10.893
97711SOL     OW94906   5.442   8.582   1.868
97711SOL    HW194907   5.422   8.656   1.926
97711SOL    HW294908   5.481   8.623   1.791
97712SOL     OW94909   6.206   3.674   6.793
97712SOL    HW194910   6.116   3.648   6.814
97712SOL    HW294911   6.257   3.594   6.801
97713SOL     OW94912  13.493  11.994   5.866
97713SOL    HW194913  13.551  11.936   5.817
97713SOL    HW294914  13.408  11.984   5.823
97714SOL     OW94915   0.709  10.923  10.125
97714SOL    HW194916   0.622  10.926  10.165
97714SOL    HW294917   0.740  10.834  10.142
97715SOL     OW94918   8.489   6.876   1.687
97715SOL    HW194919   8.515   6.784   1.689
97715SOL    HW294920   8.494   6.901   1.594
97716SOL     OW94921  12.855   1.691   5.843
97716SOL    HW194922  12.833   1.783   5.861
97716SOL    HW294923  12.843   1.647   5.926
97717SOL     OW94924   3.041   3.625  13.900
97717SOL    HW194925   3.060   3.551  13.958
97717SOL    HW294926   3.092   3.697  13.935
97718SOL     OW94927   7.309  12.190   9.086
97718SOL    HW194928   7.333  12.125   9.021
97718SOL    HW294929   7.370  12.263   9.072
97719SOL     OW94930   9.976  13.641   9.444
97719SOL    HW194931  10.068  13.647   9.470
97719SOL    HW294932   9.931  13.704   9.500
97720SOL     OW94933  14.429  12.184   4.564
97720SOL    HW194934  14.405  12.247   4.497
97720SOL    HW294935  14.366  12.113   4.555
97721SOL     OW94936   8.841   0.258   5.176
97721SOL    HW194937   8.778   0.244   5.247
97721SOL    HW294938   8.792   0.306   5.109
97722SOL     OW94939   3.268   5.740   1.727
97722SOL    HW194940   3.313   5.794   1.792
97722SOL    HW294941   3.283   5.650   1.756
97723SOL     OW94942   7.585  12.609   2.939
97723SOL    HW194943   7.587  12.544   2.869
97723SOL    HW294944   7.502  12.592   2.985
97724SOL     OW94945   0.237   8.547   2.077
97724SOL    HW194946   0.273   8.476   2.025
97724SOL    HW294947   0.307   8.613   2.079
97725SOL     OW94948   6.617  13.711   6.183
97725SOL    HW194949   6.559  13.702   6.259
97725SOL    HW294950   6.574  13.660   6.114
97726SOL     OW94951   9.202   9.440   2.105
97726SOL    HW194952   9.114   9.462   2.072
97726SOL    HW294953   9.210   9.490   2.186
97727SOL     OW94954  10.629   5.696   4.140
97727SOL    HW194955  10.640   5.701   4.046
97727SOL    HW294956  10.546   5.649   4.152
97728SOL     OW94957   2.164   4.512  13.182
97728SOL    HW194958   2.156   4.596  13.228
97728SOL    HW294959   2.253   4.514  13.145
97729SOL     OW94960  12.460   8.034   1.187
97729SOL    HW194961  12.437   8.093   1.259
97729SOL    HW294962  12.396   8.053   1.119
97730SOL     OW94963  14.641  12.551   8.552
97730SOL    HW194964  14.692  12.512   8.481
97730SOL    HW294965  14.600  12.628   8.512
97731SOL     OW94966   8.289   7.005  12.466
97731SOL    HW194967   8.220   7.056  12.423
97731SOL    HW294968   8.370   7.051  12.443
97732SOL     OW94969  10.899  10.643   0.558
97732SOL    HW194970  10.915  10.692   0.477
97732SOL    HW294971  10.872  10.556   0.529
97733SOL     OW94972   0.282  14.667   2.169
97733SOL    HW194973   0.331  14.615   2.106
97733SOL    HW294974   0.198  14.683   2.127
97734SOL     OW94975  13.781   0.143   8.804
97734SOL    HW194976  13.851   0.179   8.858
97734SOL    HW294977  13.803   0.168   8.715
97735SOL     OW94978   5.511  13.107   6.523
97735SOL    HW194979   5.589  13.122   6.576
97735SOL    HW294980   5.476  13.194   6.506
97736SOL     OW94981  14.644   1.824  12.626
97736SOL    HW194982  14.735   1.829  12.656
97736SOL    HW294983  14.618   1.734  12.641
97737SOL     OW94984  12.944   5.135   1.361
97737SOL    HW194985  13.033   5.110   1.334
97737SOL    HW294986  12.923   5.074   1.432
97738SOL     OW94987   4.111   0.138   8.581
97738SOL    HW194988   4.185   0.197   8.572
97738SOL    HW294989   4.102   0.123   8.675
97739SOL     OW94990   6.051   5.554   6.259
97739SOL    HW194991   6.101   5.480   6.294
97739SOL    HW294992   5.963   5.541   6.294
97740SOL     OW94993  13.606  10.521  11.610
97740SOL    HW194994  13.624  10.612  11.589
97740SOL    HW294995  13.664  10.471  11.552
97741SOL     OW94996   3.905   5.371   0.035
97741SOL    HW194997   3.870   5.335   0.116
97741SOL    HW294998   3.948   5.452   0.060
97742SOL     OW94999   0.510   5.089  13.031
97742SOL    HW195000   0.457   5.014  13.061
97742SOL    HW295001   0.527   5.139  13.111
97743SOL     OW95002   9.188  13.462   7.498
97743SOL    HW195003   9.169  13.380   7.453
97743SOL    HW295004   9.103  13.497   7.523
97744SOL     OW95005  12.091   8.480   7.067
97744SOL    HW195006  12.071   8.572   7.047
97744SOL    HW295007  12.135   8.484   7.152
97745SOL     OW95008   7.306  10.907   3.058
97745SOL    HW195009   7.329  10.891   3.149
97745SOL    HW295010   7.274  10.997   3.056
97746SOL     OW95011  12.969   9.050   2.895
97746SOL    HW195012  13.040   9.061   2.959
97746SOL    HW295013  12.893   9.092   2.937
97747SOL     OW95014   6.171   9.364  12.601
97747SOL    HW195015   6.118   9.311  12.661
97747SOL    HW295016   6.114   9.436  12.576
97748SOL     OW95017  14.784   4.929   3.136
97748SOL    HW195018  14.742   4.865   3.079
97748SOL    HW295019  14.851   4.880   3.182
97749SOL     OW95020  14.017   7.024   0.873
97749SOL    HW195021  14.007   7.048   0.781
97749SOL    HW295022  14.043   7.106   0.916
97750SOL     OW95023   6.548   0.412  13.680
97750SOL    HW195024   6.562   0.439  13.771
97750SOL    HW295025   6.467   0.456  13.655
97751SOL     OW95026  13.260  13.336  12.270
97751SOL    HW195027  13.182  13.295  12.305
97751SOL    HW295028  13.333  13.293  12.315
97752SOL     OW95029   2.644  11.263   6.520
97752SOL    HW195030   2.607  11.181   6.552
97752SOL    HW295031   2.568  11.315   6.495
97753SOL     OW95032  13.285  12.515   2.255
97753SOL    HW195033  13.338  12.452   2.205
97753SOL    HW295034  13.253  12.576   2.189
97754SOL     OW95035   9.350   5.504   1.472
97754SOL    HW195036   9.334   5.502   1.378
97754SOL    HW295037   9.325   5.592   1.499
97755SOL     OW95038   7.715   1.297  10.574
97755SOL    HW195039   7.724   1.296  10.669
97755SOL    HW295040   7.694   1.388  10.552
97756SOL     OW95041   0.041  14.390   7.002
97756SOL    HW195042   0.060  14.365   7.093
97756SOL    HW295043   0.075  14.318   6.950
97757SOL     OW95044  14.730   3.956   6.445
97757SOL    HW195045  14.737   3.982   6.353
97757SOL    HW295046  14.821   3.939   6.472
97758SOL     OW95047   4.037  13.929   3.250
97758SOL    HW195048   3.974  13.870   3.209
97758SOL    HW295049   4.122  13.896   3.222
97759SOL     OW95050   7.069   5.586   4.687
97759SOL    HW195051   7.019   5.575   4.607
97759SOL    HW295052   7.083   5.680   4.695
97760SOL     OW95053  10.115  14.699   0.018
97760SOL    HW195054  10.174  14.767  14.863
97760SOL    HW295055  10.046  14.693  14.830
97761SOL     OW95056   1.160  14.670   9.573
97761SOL    HW195057   1.193  14.647   9.660
97761SOL    HW295058   1.092  14.735   9.590
97762SOL     OW95059   9.598   6.115  11.727
97762SOL    HW195060   9.563   6.049  11.668
97762SOL    HW295061   9.552   6.195  11.705
97763SOL     OW95062   4.785   1.887   0.313
97763SOL    HW195063   4.711   1.946   0.318
97763SOL    HW295064   4.764   1.817   0.374
97764SOL     OW95065  13.771  11.161  13.812
97764SOL    HW195066  13.816  11.146  13.729
97764SOL    HW295067  13.841  11.186  13.873
97765SOL     OW95068   1.143  10.289   9.358
97765SOL    HW195069   1.204  10.216   9.359
97765SOL    HW295070   1.194  10.363   9.323
97766SOL     OW95071   7.599   8.306   2.924
97766SOL    HW195072   7.669   8.309   2.989
97766SOL    HW295073   7.522   8.340   2.970
97767SOL     OW95074  14.557  10.934  14.484
97767SOL    HW195075  14.587  10.913  14.572
97767SOL    HW295076  14.462  10.932  14.489
97768SOL     OW95077   2.002   2.427   3.295
97768SOL    HW195078   2.091   2.421   3.327
97768SOL    HW295079   2.010   2.423   3.199
97769SOL     OW95080   0.256   5.798  10.038
97769SOL    HW195081   0.326   5.861  10.055
97769SOL    HW295082   0.261   5.783   9.943
97770SOL     OW95083   7.714  12.697  12.509
97770SOL    HW195084   7.740  12.607  12.529
97770SOL    HW295085   7.689  12.695  12.417
97771SOL     OW95086   4.734   3.799   4.453
97771SOL    HW195087   4.731   3.713   4.411
97771SOL    HW295088   4.650   3.807   4.498
97772SOL     OW95089   3.210  12.072   2.464
97772SOL    HW195090   3.197  12.116   2.380
97772SOL    HW295091   3.303  12.079   2.481
97773SOL     OW95092   3.560  11.326   1.127
97773SOL    HW195093   3.578  11.353   1.217
97773SOL    HW295094   3.478  11.369   1.104
97774SOL     OW95095   3.323  12.116   0.723
97774SOL    HW195096   3.300  12.209   0.714
97774SOL    HW295097   3.390  12.115   0.792
97775SOL     OW95098  11.529   2.376   3.585
97775SOL    HW195099  11.546   2.306   3.521
97775SOL    HW295100  11.478   2.333   3.654
97776SOL     OW95101  10.421   4.152   2.091
97776SOL    HW195102  10.435   4.088   2.161
97776SOL    HW295103  10.422   4.101   2.010
97777SOL     OW95104   2.277   9.714   9.340
97777SOL    HW195105   2.331   9.781   9.297
97777SOL    HW295106   2.298   9.633   9.293
97778SOL     OW95107   3.804   0.184   7.510
97778SOL    HW195108   3.809   0.252   7.577
97778SOL    HW295109   3.781   0.105   7.559
97779SOL     OW95110  12.784  13.044   0.826
97779SOL    HW195111  12.841  13.060   0.901
97779SOL    HW295112  12.725  13.119   0.824
97780SOL     OW95113  11.327   9.425   2.855
97780SOL    HW195114  11.275   9.421   2.775
97780SOL    HW295115  11.361   9.515   2.856
97781SOL     OW95116   7.851  14.492   4.356
97781SOL    HW195117   7.894  14.517   4.439
97781SOL    HW295118   7.832  14.576   4.313
97782SOL     OW95119  11.698   3.851   2.380
97782SOL    HW195120  11.700   3.756   2.364
97782SOL    HW295121  11.775   3.884   2.332
97783SOL     OW95122   9.157  14.430  14.434
97783SOL    HW195123   9.063  14.442  14.419
97783SOL    HW295124   9.172  14.337  14.419
97784SOL     OW95125   7.145   9.225   4.908
97784SOL    HW195126   7.193   9.229   4.825
97784SOL    HW295127   7.196   9.279   4.968
97785SOL     OW95128   6.832   5.149  11.407
97785SOL    HW195129   6.781   5.070  11.388
97785SOL    HW295130   6.769   5.221  11.395
97786SOL     OW95131   0.368   0.766  10.352
97786SOL    HW195132   0.277   0.766  10.323
97786SOL    HW295133   0.396   0.675  10.343
97787SOL     OW95134   6.385  10.712  12.225
97787SOL    HW195135   6.343  10.652  12.287
97787SOL    HW295136   6.387  10.665  12.142
97788SOL     OW95137   4.926   9.920   2.615
97788SOL    HW195138   4.862   9.923   2.687
97788SOL    HW295139   5.008   9.947   2.655
97789SOL     OW95140   5.704   1.832   4.481
97789SOL    HW195141   5.643   1.854   4.552
97789SOL    HW295142   5.648   1.796   4.413
97790SOL     OW95143   3.513   9.272   9.978
97790SOL    HW195144   3.435   9.253   9.925
97790SOL    HW295145   3.532   9.364   9.960
97791SOL     OW95146  12.344   9.349   7.790
97791SOL    HW195147  12.252   9.374   7.795
97791SOL    HW295148  12.383   9.384   7.870
97792SOL     OW95149  13.958   7.118  13.099
97792SOL    HW195150  13.866   7.138  13.110
97792SOL    HW295151  14.002   7.161  13.172
97793SOL     OW95152   5.380   0.531   6.118
97793SOL    HW195153   5.327   0.453   6.135
97793SOL    HW295154   5.458   0.520   6.172
97794SOL     OW95155   0.246   6.062   6.019
97794SOL    HW195156   0.269   5.971   6.004
97794SOL    HW295157   0.260   6.076   6.113
97795SOL     OW95158   4.796   7.991  13.770
97795SOL    HW195159   4.868   7.966  13.828
97795SOL    HW295160   4.744   8.054  13.820
97796SOL     OW95161   0.137   5.781  11.437
97796SOL    HW195162   0.116   5.872  11.414
97796SOL    HW295163   0.082   5.728  11.380
97797SOL     OW95164  11.619  11.738   6.183
97797SOL    HW195165  11.611  11.657   6.133
97797SOL    HW295166  11.563  11.725   6.260
97798SOL     OW95167   4.234   1.953   8.491
97798SOL    HW195168   4.160   1.938   8.433
97798SOL    HW295169   4.197   1.998   8.567
97799SOL     OW95170   4.392   4.625   4.281
97799SOL    HW195171   4.348   4.584   4.355
97799SOL    HW295172   4.485   4.606   4.295
97800SOL     OW95173   8.690   6.641   2.936
97800SOL    HW195174   8.715   6.642   2.844
97800SOL    HW295175   8.713   6.729   2.967
97801SOL     OW95176   5.518   7.296  10.020
97801SOL    HW195177   5.462   7.367   9.990
97801SOL    HW295178   5.550   7.325  10.106
97802SOL     OW95179  11.074  10.430   7.616
97802SOL    HW195180  11.117  10.449   7.699
97802SOL    HW295181  11.063  10.335   7.617
97803SOL     OW95182  13.257  12.853   8.506
97803SOL    HW195183  13.164  12.850   8.526
97803SOL    HW295184  13.267  12.798   8.429
97804SOL     OW95185   4.729  14.626   1.481
97804SOL    HW195186   4.760  14.548   1.435
97804SOL    HW295187   4.765  14.699   1.430
97805SOL     OW95188   7.518   9.843   5.146
97805SOL    HW195189   7.499   9.936   5.131
97805SOL    HW295190   7.591   9.843   5.207
97806SOL     OW95191   7.398   0.562   8.189
97806SOL    HW195192   7.485   0.540   8.156
97806SOL    HW295193   7.357   0.610   8.117
97807SOL     OW95194   0.765   2.755   8.901
97807SOL    HW195195   0.817   2.819   8.852
97807SOL    HW295196   0.828   2.687   8.924
97808SOL     OW95197   3.762   0.300   1.495
97808SOL    HW195198   3.725   0.276   1.411
97808SOL    HW295199   3.695   0.353   1.537
97809SOL     OW95200   7.093   8.644  12.351
97809SOL    HW195201   7.119   8.582  12.282
97809SOL    HW295202   7.159   8.714  12.346
97810SOL     OW95203  13.486   5.718   4.017
97810SOL    HW195204  13.488   5.644   3.957
97810SOL    HW295205  13.548   5.695   4.086
97811SOL     OW95206   1.269   1.055   4.179
97811SOL    HW195207   1.311   1.033   4.096
97811SOL    HW295208   1.181   1.021   4.171
97812SOL     OW95209   7.861   5.415   9.295
97812SOL    HW195210   7.924   5.411   9.223
97812SOL    HW295211   7.780   5.446   9.254
97813SOL     OW95212   0.077   7.212  13.276
97813SOL    HW195213   0.052   7.147  13.210
97813SOL    HW295214  14.878   7.218  13.333
97814SOL     OW95215  10.404   6.733   3.292
97814SOL    HW195216  10.406   6.664   3.358
97814SOL    HW295217  10.317   6.728   3.254
97815SOL     OW95218   9.568   9.442   7.377
97815SOL    HW195219   9.514   9.366   7.357
97815SOL    HW295220   9.658   9.413   7.360
97816SOL     OW95221   4.866   3.103   0.137
97816SOL    HW195222   4.855   3.022   0.186
97816SOL    HW295223   4.903   3.075   0.053
97817SOL     OW95224   6.654  12.207   6.362
97817SOL    HW195225   6.704  12.154   6.424
97817SOL    HW295226   6.562  12.186   6.381
97818SOL     OW95227  14.287   1.037   8.803
97818SOL    HW195228  14.275   1.025   8.897
97818SOL    HW295229  14.210   0.996   8.763
97819SOL     OW95230   8.408   0.792   6.235
97819SOL    HW195231   8.320   0.823   6.257
97819SOL    HW295232   8.398   0.698   6.224
97820SOL     OW95233   9.327  13.024   6.232
97820SOL    HW195234   9.276  13.102   6.211
97820SOL    HW295235   9.400  13.026   6.170
97821SOL     OW95236   9.357   3.048   5.179
97821SOL    HW195237   9.365   2.963   5.135
97821SOL    HW295238   9.415   3.041   5.255
97822SOL     OW95239   4.605   6.780  11.100
97822SOL    HW195240   4.513   6.775  11.122
97822SOL    HW295241   4.643   6.837  11.168
97823SOL     OW95242  13.767   7.060  11.577
97823SOL    HW195243  13.790   7.147  11.547
97823SOL    HW295244  13.715   7.023  11.506
97824SOL     OW95245  13.399   6.456   8.588
97824SOL    HW195246  13.374   6.490   8.502
97824SOL    HW295247  13.470   6.394   8.569
97825SOL     OW95248   4.059   0.634   2.816
97825SOL    HW195249   3.977   0.683   2.824
97825SOL    HW295250   4.115   0.690   2.762
97826SOL     OW95251   9.317   3.853   5.813
97826SOL    HW195252   9.259   3.895   5.749
97826SOL    HW295253   9.401   3.845   5.769
97827SOL     OW95254  10.561  10.780   4.193
97827SOL    HW195255  10.573  10.690   4.224
97827SOL    HW295256  10.603  10.783   4.108
97828SOL     OW95257   9.392  13.851   8.272
97828SOL    HW195258   9.441  13.794   8.213
97828SOL    HW295259   9.396  13.808   8.357
97829SOL     OW95260   5.358  10.370   9.848
97829SOL    HW195261   5.366  10.424   9.927
97829SOL    HW295262   5.433  10.311   9.852
97830SOL     OW95263   8.898  10.154   8.801
97830SOL    HW195264   8.942  10.202   8.871
97830SOL    HW295265   8.962  10.150   8.730
97831SOL     OW95266   0.851   4.928   7.393
97831SOL    HW195267   0.919   4.869   7.425
97831SOL    HW295268   0.777   4.914   7.452
97832SOL     OW95269   3.761   3.299  13.539
97832SOL    HW195270   3.800   3.356  13.474
97832SOL    HW295271   3.694   3.250  13.491
97833SOL     OW95272   5.731   0.305   8.789
97833SOL    HW195273   5.715   0.270   8.701
97833SOL    HW295274   5.770   0.231   8.837
97834SOL     OW95275  14.332   2.166   8.203
97834SOL    HW195276  14.400   2.152   8.269
97834SOL    HW295277  14.366   2.237   8.148
97835SOL     OW95278   2.165   7.521  12.430
97835SOL    HW195279   2.210   7.448  12.389
97835SOL    HW295280   2.118   7.564  12.359
97836SOL     OW95281   3.007   4.360   0.358
97836SOL    HW195282   3.100   4.382   0.362
97836SOL    HW295283   3.003   4.269   0.385
97837SOL     OW95284   0.002  11.893   6.783
97837SOL    HW195285  14.820  11.825   6.751
97837SOL    HW295286  14.825  11.969   6.798
97838SOL     OW95287   7.331   0.694  11.556
97838SOL    HW195288   7.273   0.763  11.588
97838SOL    HW295289   7.415   0.737  11.541
97839SOL     OW95290   5.588  11.640  11.262
97839SOL    HW195291   5.661  11.593  11.222
97839SOL    HW295292   5.629  11.707  11.316
97840SOL     OW95293   3.959  13.381  14.490
97840SOL    HW195294   3.980  13.440  14.563
97840SOL    HW295295   3.991  13.295  14.520
97841SOL     OW95296   7.966   8.768   9.734
97841SOL    HW195297   8.027   8.709   9.690
97841SOL    HW295298   7.928   8.714   9.804
97842SOL     OW95299  11.581  11.900  12.815
97842SOL    HW195300  11.510  11.906  12.878
97842SOL    HW295301  11.652  11.951  12.854
97843SOL     OW95302  10.475   5.396   1.480
97843SOL    HW195303  10.498   5.474   1.531
97843SOL    HW295304  10.556   5.347   1.473
97844SOL     OW95305   0.355  11.026  10.005
97844SOL    HW195306   0.296  11.072   9.945
97844SOL    HW295307   0.386  11.094  10.064
97845SOL     OW95308   5.977   6.101   1.429
97845SOL    HW195309   5.954   6.033   1.492
97845SOL    HW295310   5.918   6.174   1.450
97846SOL     OW95311  13.413   4.183  10.908
97846SOL    HW195312  13.330   4.147  10.877
97846SOL    HW295313  13.469   4.185  10.830
97847SOL     OW95314  13.576   4.335   8.646
97847SOL    HW195315  13.539   4.248   8.627
97847SOL    HW295316  13.523   4.368   8.719
97848SOL     OW95317   2.540   0.155   4.208
97848SOL    HW195318   2.578   0.223   4.263
97848SOL    HW295319   2.458   0.132   4.252
97849SOL     OW95320   1.975   9.461   0.902
97849SOL    HW195321   2.031   9.538   0.896
97849SOL    HW295322   1.888   9.495   0.918
97850SOL     OW95323   7.616  14.328  12.044
97850SOL    HW195324   7.639  14.314  12.136
97850SOL    HW295325   7.553  14.260  12.024
97851SOL     OW95326   6.425   0.035   0.645
97851SOL    HW195327   6.332   0.022   0.631
97851SOL    HW295328   6.466  14.837   0.602
97852SOL     OW95329   5.560  13.352   2.910
97852SOL    HW195330   5.621  13.401   2.965
97852SOL    HW295331   5.521  13.418   2.853
97853SOL     OW95332   5.374   7.766  14.683
97853SOL    HW195333   5.368   7.695  14.619
97853SOL    HW295334   5.430   7.831  14.641
97854SOL     OW95335  11.741   9.829   7.422
97854SOL    HW195336  11.802   9.756   7.428
97854SOL    HW295337  11.658   9.790   7.395
97855SOL     OW95338   1.251   5.689   1.535
97855SOL    HW195339   1.258   5.750   1.609
97855SOL    HW295340   1.203   5.615   1.570
97856SOL     OW95341  12.906   1.034   6.002
97856SOL    HW195342  12.989   1.050   6.048
97856SOL    HW295343  12.890   0.940   6.016
97857SOL     OW95344   4.647   1.989   9.812
97857SOL    HW195345   4.685   1.924   9.753
97857SOL    HW295346   4.566   1.949   9.843
97858SOL     OW95347  12.005   1.834   4.209
97858SOL    HW195348  12.033   1.881   4.287
97858SOL    HW295349  12.006   1.742   4.235
97859SOL     OW95350  14.688   8.826   7.819
97859SOL    HW195351  14.643   8.908   7.839
97859SOL    HW295352  14.624   8.757   7.837
97860SOL     OW95353   6.272  11.822   2.392
97860SOL    HW195354   6.241  11.880   2.462
97860SOL    HW295355   6.340  11.873   2.348
97861SOL     OW95356   3.467  13.848   5.007
97861SOL    HW195357   3.485  13.755   5.012
97861SOL    HW295358   3.507  13.885   5.085
97862SOL     OW95359  11.136  12.107   1.593
97862SOL    HW195360  11.067  12.043   1.612
97862SOL    HW295361  11.151  12.151   1.677
97863SOL     OW95362  13.899  11.836   9.520
97863SOL    HW195363  13.972  11.794   9.474
97863SOL    HW295364  13.940  11.884   9.591
97864SOL     OW95365   8.592   1.793   1.402
97864SOL    HW195366   8.524   1.741   1.443
97864SOL    HW295367   8.612   1.861   1.466
97865SOL     OW95368   1.053  13.201   8.981
97865SOL    HW195369   1.038  13.290   9.013
97865SOL    HW295370   0.966  13.162   8.976
97866SOL     OW95371   8.468   5.708   8.417
97866SOL    HW195372   8.501   5.752   8.338
97866SOL    HW295373   8.508   5.621   8.414
97867SOL     OW95374   5.851   2.224   5.341
97867SOL    HW195375   5.833   2.218   5.247
97867SOL    HW295376   5.943   2.250   5.346
97868SOL     OW95377   4.559  10.612  12.433
97868SOL    HW195378   4.539  10.664  12.355
97868SOL    HW295379   4.473  10.587  12.467
97869SOL     OW95380  13.152  14.872  13.683
97869SOL    HW195381  13.138  14.851  13.776
97869SOL    HW295382  13.201   0.076  13.685
97870SOL     OW95383   1.231   0.668  11.730
97870SOL    HW195384   1.250   0.617  11.651
97870SOL    HW295385   1.180   0.743  11.698
97871SOL     OW95386   3.709   0.576   6.713
97871SOL    HW195387   3.733   0.539   6.628
97871SOL    HW295388   3.720   0.505   6.775
97872SOL     OW95389   0.017  10.119   6.321
97872SOL    HW195390   0.046  10.181   6.254
97872SOL    HW295391  14.832  10.062   6.275
97873SOL     OW95392  10.583   8.677   3.822
97873SOL    HW195393  10.608   8.610   3.758
97873SOL    HW295394  10.643   8.664   3.895
97874SOL     OW95395  12.736   1.828   0.791
97874SOL    HW195396  12.688   1.745   0.792
97874SOL    HW295397  12.695   1.879   0.861
97875SOL     OW95398   9.241   6.314  14.549
97875SOL    HW195399   9.223   6.363  14.469
97875SOL    HW295400   9.304   6.369  14.596
97876SOL     OW95401  13.317   5.193   8.251
97876SOL    HW195402  13.246   5.195   8.315
97876SOL    HW295403  13.395   5.219   8.300
97877SOL     OW95404   5.719  13.150   3.148
97877SOL    HW195405   5.765  13.224   3.108
97877SOL    HW295406   5.788  13.088   3.172
97878SOL     OW95407  14.237  12.124   3.857
97878SOL    HW195408  14.286  12.042   3.851
97878SOL    HW295409  14.255  12.169   3.775
97879SOL     OW95410   0.066   4.425   8.328
97879SOL    HW195411   0.139   4.476   8.293
97879SOL    HW295412  14.866   4.462   8.287
97880SOL     OW95413  11.175  10.640   9.301
97880SOL    HW195414  11.238  10.682   9.243
97880SOL    HW295415  11.101  10.618   9.243
97881SOL     OW95416   6.403  13.158  10.216
97881SOL    HW195417   6.482  13.143  10.163
97881SOL    HW295418   6.378  13.248  10.196
97882SOL     OW95419   3.251  14.433   2.303
97882SOL    HW195420   3.319  14.484   2.259
97882SOL    HW295421   3.266  14.343   2.275
97883SOL     OW95422  14.563   8.925   5.522
97883SOL    HW195423  14.640   8.930   5.465
97883SOL    HW295424  14.569   8.839   5.563
97884SOL     OW95425  13.366  10.629   3.488
97884SOL    HW195426  13.403  10.568   3.424
97884SOL    HW295427  13.286  10.662   3.446
97885SOL     OW95428  11.647   7.128   1.722
97885SOL    HW195429  11.634   7.204   1.666
97885SOL    HW295430  11.737   7.135   1.753
97886SOL     OW95431   6.923   9.520   9.946
97886SOL    HW195432   6.980   9.498  10.020
97886SOL    HW295433   6.929   9.444   9.888
97887SOL     OW95434   7.495   0.467   4.155
97887SOL    HW195435   7.473   0.558   4.175
97887SOL    HW295436   7.526   0.469   4.065
97888SOL     OW95437   9.384   5.402   4.880
97888SOL    HW195438   9.340   5.328   4.921
97888SOL    HW295439   9.441   5.363   4.814
97889SOL     OW95440   9.856   1.523  11.853
97889SOL    HW195441   9.782   1.541  11.912
97889SOL    HW295442   9.892   1.440  11.885
97890SOL     OW95443  12.524   3.115   5.585
97890SOL    HW195444  12.556   3.174   5.517
97890SOL    HW295445  12.523   3.029   5.544
97891SOL     OW95446  11.388  11.726  11.852
97891SOL    HW195447  11.372  11.712  11.945
97891SOL    HW295448  11.438  11.808  11.848
97892SOL     OW95449   0.423   1.996   6.236
97892SOL    HW195450   0.333   2.029   6.245
97892SOL    HW295451   0.473   2.042   6.303
97893SOL     OW95452  12.835  12.449  14.093
97893SOL    HW195453  12.774  12.381  14.065
97893SOL    HW295454  12.864  12.490  14.012
97894SOL     OW95455   0.159   1.875  13.078
97894SOL    HW195456   0.158   1.891  13.173
97894SOL    HW295457   0.068   1.856  13.056
97895SOL     OW95458  10.458  10.052   2.602
97895SOL    HW195459  10.499  10.080   2.520
97895SOL    HW295460  10.454  10.131   2.656
97896SOL     OW95461   1.472   9.231   2.579
97896SOL    HW195462   1.490   9.201   2.668
97896SOL    HW295463   1.522   9.311   2.569
97897SOL     OW95464   8.915  12.399   8.629
97897SOL    HW195465   8.834  12.379   8.676
97897SOL    HW295466   8.985  12.384   8.692
97898SOL     OW95467   9.164  11.433  11.612
97898SOL    HW195468   9.213  11.442  11.530
97898SOL    HW295469   9.111  11.512  11.617
97899SOL     OW95470   7.794  13.641  14.001
97899SOL    HW195471   7.706  13.678  14.014
97899SOL    HW295472   7.841  13.661  14.082
97900SOL     OW95473  14.230  12.996  14.791
97900SOL    HW195474  14.269  12.949  14.864
97900SOL    HW295475  14.242  13.088  14.812
97901SOL     OW95476   7.640   9.945   9.034
97901SOL    HW195477   7.711  10.009   9.023
97901SOL    HW295478   7.597   9.941   8.949
97902SOL     OW95479   2.888   2.160   5.867
97902SOL    HW195480   2.932   2.098   5.809
97902SOL    HW295481   2.957   2.217   5.900
97903SOL     OW95482   4.421   6.368   9.652
97903SOL    HW195483   4.393   6.289   9.606
97903SOL    HW295484   4.511   6.383   9.622
97904SOL     OW95485   7.121   5.923   6.546
97904SOL    HW195486   7.064   5.910   6.471
97904SOL    HW295487   7.129   6.019   6.554
97905SOL     OW95488   0.094   2.911  13.250
97905SOL    HW195489   0.119   2.829  13.208
97905SOL    HW295490  14.876   2.913  13.244
97906SOL     OW95491   0.841   3.803   3.661
97906SOL    HW195492   0.842   3.836   3.751
97906SOL    HW295493   0.774   3.854   3.617
97907SOL     OW95494   5.137   6.473   4.585
97907SOL    HW195495   5.163   6.453   4.675
97907SOL    HW295496   5.204   6.534   4.554
97908SOL     OW95497   9.173   1.463   2.857
97908SOL    HW195498   9.158   1.374   2.886
97908SOL    HW295499   9.164   1.516   2.936
97909SOL     OW95500  12.062   6.757  13.403
97909SOL    HW195501  12.139   6.704  13.387
97909SOL    HW295502  12.000   6.697  13.446
97910SOL     OW95503   7.900   0.105  14.552
97910SOL    HW195504   7.922   0.067  14.467
97910SOL    HW295505   7.982   0.146  14.581
97911SOL     OW95506   1.640   8.734   3.044
97911SOL    HW195507   1.547   8.716   3.028
97911SOL    HW295508   1.649   8.727   3.139
97912SOL     OW95509   5.189   8.563   1.500
97912SOL    HW195510   5.117   8.546   1.439
97912SOL    HW295511   5.227   8.645   1.469
97913SOL     OW95512   9.401  11.855   3.341
97913SOL    HW195513   9.495  11.834   3.349
97913SOL    HW295514   9.364  11.778   3.298
97914SOL     OW95515   1.148   3.921   5.606
97914SOL    HW195516   1.213   3.975   5.561
97914SOL    HW295517   1.088   3.984   5.646
97915SOL     OW95518  14.681   5.147  12.638
97915SOL    HW195519  14.713   5.174  12.724
97915SOL    HW295520  14.732   5.069  12.616
97916SOL     OW95521   9.073   4.163  11.179
97916SOL    HW195522   9.150   4.152  11.234
97916SOL    HW295523   9.050   4.256  11.187
97917SOL     OW95524   8.261  14.012   7.735
97917SOL    HW195525   8.269  13.953   7.810
97917SOL    HW295526   8.293  14.096   7.767
97918SOL     OW95527   2.738  14.234   9.630
97918SOL    HW195528   2.742  14.272   9.542
97918SOL    HW295529   2.772  14.145   9.619
97919SOL     OW95530   6.117   4.201   5.674
97919SOL    HW195531   6.076   4.208   5.761
97919SOL    HW295532   6.207   4.173   5.693
97920SOL     OW95533   4.038  10.811   6.813
97920SOL    HW195534   4.094  10.879   6.850
97920SOL    HW295535   3.963  10.807   6.871
97921SOL     OW95536   6.953   0.701   8.016
97921SOL    HW195537   6.952   0.731   7.925
97921SOL    HW295538   6.967   0.780   8.068
97922SOL     OW95539   4.384   4.566   6.990
97922SOL    HW195540   4.292   4.555   7.012
97922SOL    HW295541   4.385   4.564   6.894
97923SOL     OW95542   7.628  11.441   8.088
97923SOL    HW195543   7.608  11.464   7.997
97923SOL    HW295544   7.554  11.473   8.138
97924SOL     OW95545   8.305   6.003   0.791
97924SOL    HW195546   8.267   6.058   0.859
97924SOL    HW295547   8.230   5.975   0.738
97925SOL     OW95548  13.189  13.870   8.910
97925SOL    HW195549  13.242  13.821   8.848
97925SOL    HW295550  13.102  13.874   8.870
97926SOL     OW95551   5.911   5.961   0.727
97926SOL    HW195552   5.849   5.889   0.712
97926SOL    HW295553   5.946   5.981   0.641
97927SOL     OW95554   3.703   1.757   2.581
97927SOL    HW195555   3.796   1.757   2.604
97927SOL    HW295556   3.701   1.729   2.489
97928SOL     OW95557   3.544   0.045  12.138
97928SOL    HW195558   3.466   0.077  12.183
97928SOL    HW295559   3.520  14.834  12.110
97929SOL     OW95560   2.699   3.614   1.685
97929SOL    HW195561   2.608   3.644   1.683
97929SOL    HW295562   2.709   3.572   1.770
97930SOL     OW95563  12.879  11.583   0.307
97930SOL    HW195564  12.787  11.566   0.325
97930SOL    HW295565  12.891  11.676   0.328
97931SOL     OW95566  12.148  14.625   2.835
97931SOL    HW195567  12.160  14.600   2.926
97931SOL    HW295568  12.235  14.613   2.795
97932SOL     OW95569  11.620   0.574   1.717
97932SOL    HW195570  11.690   0.511   1.729
97932SOL    HW295571  11.629   0.604   1.626
97933SOL     OW95572   8.262  13.351   8.580
97933SOL    HW195573   8.204  13.420   8.612
97933SOL    HW295574   8.342  13.361   8.632
97934SOL     OW95575   8.938  12.401   0.674
97934SOL    HW195576   8.997  12.476   0.667
97934SOL    HW295577   8.949  12.355   0.591
97935SOL     OW95578  14.760   4.906   1.682
97935SOL    HW195579  14.724   4.893   1.594
97935SOL    HW295580  14.714   4.984   1.714
97936SOL     OW95581   5.508   2.813   6.215
97936SOL    HW195582   5.461   2.742   6.259
97936SOL    HW295583   5.596   2.810   6.251
97937SOL     OW95584  14.756  11.573   8.630
97937SOL    HW195585  14.752  11.667   8.617
97937SOL    HW295586  14.762  11.562   8.725
97938SOL     OW95587   8.163   8.865   2.037
97938SOL    HW195588   8.192   8.956   2.030
97938SOL    HW295589   8.077   8.863   1.996
97939SOL     OW95590  13.545  10.371   0.199
97939SOL    HW195591  13.607  10.405   0.134
97939SOL    HW295592  13.561  10.276   0.200
97940SOL     OW95593   4.767   8.796  12.266
97940SOL    HW195594   4.771   8.722  12.327
97940SOL    HW295595   4.681   8.789  12.225
97941SOL     OW95596  13.020   2.665   5.781
97941SOL    HW195597  13.064   2.745   5.809
97941SOL    HW295598  12.953   2.695   5.719
97942SOL     OW95599  13.458   1.498   7.612
97942SOL    HW195600  13.395   1.463   7.550
97942SOL    HW295601  13.467   1.590   7.589
97943SOL     OW95602   8.673   9.564   0.422
97943SOL    HW195603   8.647   9.541   0.333
97943SOL    HW295604   8.590   9.576   0.469
97944SOL     OW95605  11.186  13.549   3.600
97944SOL    HW195606  11.205  13.642   3.592
97944SOL    HW295607  11.269  13.510   3.630
97945SOL     OW95608   2.738   3.786   1.466
97945SOL    HW195609   2.702   3.733   1.538
97945SOL    HW295610   2.667   3.847   1.444
97946SOL     OW95611   7.602   9.354   1.108
97946SOL    HW195612   7.589   9.318   1.196
97946SOL    HW295613   7.571   9.445   1.114
97947SOL     OW95614  14.772   9.554  12.626
97947SOL    HW195615  14.778   9.634  12.574
97947SOL    HW295616  14.703   9.502  12.584
97948SOL     OW95617  12.632   8.938   8.606
97948SOL    HW195618  12.683   8.979   8.536
97948SOL    HW295619  12.619   8.848   8.576
97949SOL     OW95620   1.905   7.102   5.657
97949SOL    HW195621   1.872   7.021   5.619
97949SOL    HW295622   1.998   7.087   5.669
97950SOL     OW95623  12.825  10.129   0.816
97950SOL    HW195624  12.908  10.082   0.822
97950SOL    HW295625  12.761  10.072   0.858
97951SOL     OW95626   8.738   2.760  13.222
97951SOL    HW195627   8.677   2.821  13.181
97951SOL    HW295628   8.765   2.804  13.303
97952SOL     OW95629  10.014   0.358   5.294
97952SOL    HW195630  10.033   0.425   5.360
97952SOL    HW295631   9.924   0.376   5.266
97953SOL     OW95632  10.902   2.291   0.712
97953SOL    HW195633  10.851   2.319   0.636
97953SOL    HW295634  10.894   2.196   0.713
97954SOL     OW95635   6.006  11.670   5.590
97954SOL    HW195636   6.011  11.583   5.629
97954SOL    HW295637   5.986  11.728   5.662
97955SOL     OW95638  11.405   4.830   4.126
97955SOL    HW195639  11.437   4.907   4.079
97955SOL    HW295640  11.310   4.830   4.111
97956SOL     OW95641   1.791  10.537   1.866
97956SOL    HW195642   1.858  10.529   1.797
97956SOL    HW295643   1.805  10.461   1.922
97957SOL     OW95644   1.222  12.119  10.515
97957SOL    HW195645   1.284  12.191  10.498
97957SOL    HW295646   1.261  12.071  10.588
97958SOL     OW95647   3.226  11.253  13.722
97958SOL    HW195648   3.296  11.310  13.689
97958SOL    HW295649   3.267  11.203  13.793
97959SOL     OW95650   1.632  12.493   4.428
97959SOL    HW195651   1.725  12.510   4.443
97959SOL    HW295652   1.629  12.452   4.342
97960SOL     OW95653   5.274  14.343   6.699
97960SOL    HW195654   5.346  14.287   6.672
97960SOL    HW295655   5.315  14.425   6.724
97961SOL     OW95656   7.234   6.387  13.080
97961SOL    HW195657   7.175   6.446  13.127
97961SOL    HW295658   7.178   6.316  13.049
97962SOL     OW95659  10.798   5.887   7.378
97962SOL    HW195660  10.717   5.907   7.330
97962SOL    HW295661  10.768   5.859   7.465
97963SOL     OW95662   2.341  12.846   9.033
97963SOL    HW195663   2.413  12.790   9.004
97963SOL    HW295664   2.357  12.931   8.992
97964SOL     OW95665   4.352   0.822  14.644
97964SOL    HW195666   4.303   0.825  14.726
97964SOL    HW295667   4.287   0.798  14.578
97965SOL     OW95668   8.974   6.451   2.661
97965SOL    HW195669   8.902   6.405   2.618
97965SOL    HW295670   9.035   6.471   2.590
97966SOL     OW95671  12.487   8.931  10.200
97966SOL    HW195672  12.520   9.011  10.241
97966SOL    HW295673  12.562   8.899  10.149
97967SOL     OW95674   9.069   0.051   3.814
97967SOL    HW195675   9.093   0.115   3.747
97967SOL    HW295676   9.119  14.851   3.792
97968SOL     OW95677  11.157  11.134   7.991
97968SOL    HW195678  11.072  11.132   8.034
97968SOL    HW295679  11.213  11.081   8.048
97969SOL     OW95680   4.093  13.215  14.644
97969SOL    HW195681   4.171  13.215  14.699
97969SOL    HW295682   4.020  13.215  14.706
97970SOL     OW95683  10.871   8.408   7.804
97970SOL    HW195684  10.935   8.415   7.734
97970SOL    HW295685  10.890   8.324   7.845
97971SOL     OW95686  12.609   8.637   7.433
97971SOL    HW195687  12.622   8.627   7.339
97971SOL    HW295688  12.515   8.646   7.444
97972SOL     OW95689   4.848   3.398   2.484
97972SOL    HW195690   4.815   3.359   2.403
97972SOL    HW295691   4.780   3.460   2.510
97973SOL     OW95692   9.549   4.630   5.858
97973SOL    HW195693   9.528   4.575   5.783
97973SOL    HW295694   9.499   4.710   5.844
97974SOL     OW95695   4.931   4.109   4.646
97974SOL    HW195696   4.963   4.196   4.622
97974SOL    HW295697   4.838   4.122   4.664
97975SOL     OW95698   7.482  14.068   7.355
97975SOL    HW195699   7.489  14.127   7.430
97975SOL    HW295700   7.404  14.016   7.373
97976SOL     OW95701   6.755  10.747   9.752
97976SOL    HW195702   6.801  10.697   9.819
97976SOL    HW295703   6.702  10.810   9.801
97977SOL     OW95704  13.354   3.507   1.212
97977SOL    HW195705  13.449   3.500   1.224
97977SOL    HW295706  13.343   3.521   1.118
97978SOL     OW95707  13.756   6.499   1.903
97978SOL    HW195708  13.798   6.422   1.942
97978SOL    HW295709  13.826   6.564   1.896
97979SOL     OW95710  10.945  13.012   9.848
97979SOL    HW195711  10.992  13.001   9.930
97979SOL    HW295712  10.882  12.940   9.846
97980SOL     OW95713   6.354   4.830   6.600
97980SOL    HW195714   6.380   4.908   6.552
97980SOL    HW295715   6.266   4.809   6.566
97981SOL     OW95716   7.265  11.775  11.964
97981SOL    HW195717   7.324  11.850  11.954
97981SOL    HW295718   7.181  11.814  11.986
97982SOL     OW95719   6.023  12.500   6.152
97982SOL    HW195720   6.113  12.505   6.185
97982SOL    HW295721   6.031  12.463   6.065
97983SOL     OW95722   2.448  13.378   7.905
97983SOL    HW195723   2.413  13.319   7.972
97983SOL    HW295724   2.442  13.327   7.824
97984SOL     OW95725  10.125   0.869   4.690
97984SOL    HW195726  10.124   0.959   4.657
97984SOL    HW295727  10.032   0.845   4.698
97985SOL     OW95728   7.237   6.611   0.263
97985SOL    HW195729   7.240   6.604   0.167
97985SOL    HW295730   7.188   6.692   0.279
97986SOL     OW95731  11.413   3.625   3.661
97986SOL    HW195732  11.409   3.721   3.659
97986SOL    HW295733  11.418   3.599   3.570
97987SOL     OW95734   7.263   4.745   9.761
97987SOL    HW195735   7.276   4.695   9.681
97987SOL    HW295736   7.254   4.836   9.732
97988SOL     OW95737   7.452  11.939   6.812
97988SOL    HW195738   7.518  11.906   6.874
97988SOL    HW295739   7.374  11.887   6.830
97989SOL     OW95740   7.307   1.664   8.959
97989SOL    HW195741   7.330   1.721   8.885
97989SOL    HW295742   7.251   1.596   8.920
97990SOL     OW95743   6.231   0.874   7.006
97990SOL    HW195744   6.288   0.873   6.929
97990SOL    HW295745   6.143   0.886   6.971
97991SOL     OW95746  13.157  14.015  13.385
97991SOL    HW195747  13.151  14.076  13.312
97991SOL    HW295748  13.185  14.069  13.459
97992SOL     OW95749   0.836   0.836   6.916
97992SOL    HW195750   0.817   0.837   6.823
97992SOL    HW295751   0.928   0.863   6.922
97993SOL     OW95752   8.768   9.443   2.515
97993SOL    HW195753   8.815   9.426   2.434
97993SOL    HW295754   8.815   9.517   2.555
97994SOL     OW95755   8.242  13.032  10.769
97994SOL    HW195756   8.293  12.956  10.741
97994SOL    HW295757   8.167  12.995  10.814
97995SOL     OW95758   2.426  12.156  12.368
97995SOL    HW195759   2.413  12.246  12.399
97995SOL    HW295760   2.458  12.109  12.445
97996SOL     OW95761   0.974   4.058   9.772
97996SOL    HW195762   0.926   4.061   9.855
97996SOL    HW295763   1.022   3.975   9.775
97997SOL     OW95764   9.830   5.768   0.129
97997SOL    HW195765   9.773   5.813   0.065
97997SOL    HW295766   9.907   5.742   0.077
97998SOL     OW95767   6.743  12.970   1.994
97998SOL    HW195768   6.734  12.916   1.915
97998SOL    HW295769   6.819  13.026   1.976
97999SOL     OW95770  11.439  12.219  12.258
97999SOL    HW195771  11.423  12.262  12.342
97999SOL    HW295772  11.393  12.275  12.194
98000SOL     OW95773  14.829  12.185   0.342
98000SOL    HW195774  14.761  12.229   0.291
98000SOL    HW295775  14.795  12.185   0.431
98001SOL     OW95776   0.959   8.694  14.757
98001SOL    HW195777   1.025   8.682  14.688
98001SOL    HW295778   0.885   8.640  14.728
98002SOL     OW95779  14.495   3.607   1.949
98002SOL    HW195780  14.403   3.604   1.924
98002SOL    HW295781  14.528   3.689   1.913
98003SOL     OW95782   7.256  12.162  11.931
98003SOL    HW195783   7.195  12.091  11.955
98003SOL    HW295784   7.206  12.215  11.868
98004SOL     OW95785  14.095   6.978  13.579
98004SOL    HW195786  14.017   6.973  13.524
98004SOL    HW295787  14.159   7.025  13.525
98005SOL     OW95788  11.423  11.212   8.173
98005SOL    HW195789  11.448  11.187   8.084
98005SOL    HW295790  11.430  11.132   8.223
98006SOL     OW95791   0.520  12.194   4.721
98006SOL    HW195792   0.490  12.276   4.758
98006SOL    HW295793   0.591  12.166   4.778
98007SOL     OW95794   9.766   1.867  11.878
98007SOL    HW195795   9.708   1.834  11.809
98007SOL    HW295796   9.798   1.950  11.844
98008SOL     OW95797   0.542  11.529   0.992
98008SOL    HW195798   0.619  11.496   0.947
98008SOL    HW295799   0.524  11.613   0.950
98009SOL     OW95800   5.045   6.262   2.885
98009SOL    HW195801   5.118   6.221   2.932
98009SOL    HW295802   5.014   6.331   2.943
98010SOL     OW95803  11.982   4.358   5.586
98010SOL    HW195804  12.051   4.340   5.522
98010SOL    HW295805  12.022   4.419   5.648
98011SOL     OW95806  13.372   7.720  11.998
98011SOL    HW195807  13.351   7.777  11.924
98011SOL    HW295808  13.319   7.754  12.070
98012SOL     OW95809   7.626  11.454   5.199
98012SOL    HW195810   7.675  11.378   5.230
98012SOL    HW295811   7.568  11.419   5.131
98013SOL     OW95812   2.709   1.296  14.278
98013SOL    HW195813   2.712   1.217  14.333
98013SOL    HW295814   2.759   1.272  14.200
98014SOL     OW95815   2.816   0.316   6.106
98014SOL    HW195816   2.795   0.391   6.161
98014SOL    HW295817   2.733   0.267   6.098
98015SOL     OW95818  11.389  10.253  14.166
98015SOL    HW195819  11.445  10.318  14.207
98015SOL    HW295820  11.349  10.298  14.092
98016SOL     OW95821   0.357  14.428   3.010
98016SOL    HW195822   0.288  14.364   3.026
98016SOL    HW295823   0.434  14.392   3.055
98017SOL     OW95824  10.426   4.830  14.750
98017SOL    HW195825  10.376   4.792  14.822
98017SOL    HW295826  10.434   4.923  14.772
98018SOL     OW95827   7.752   8.707   0.220
98018SOL    HW195828   7.664   8.694   0.256
98018SOL    HW295829   7.738   8.722   0.127
98019SOL     OW95830   5.587   7.863   4.092
98019SOL    HW195831   5.614   7.821   4.011
98019SOL    HW295832   5.584   7.956   4.071
98020SOL     OW95833  13.568   4.157   6.309
98020SOL    HW195834  13.553   4.065   6.329
98020SOL    HW295835  13.610   4.192   6.387
98021SOL     OW95836  12.742  10.195  14.427
98021SOL    HW195837  12.788  10.250  14.491
98021SOL    HW295838  12.803  10.123  14.411
98022SOL     OW95839  10.973   5.865   5.971
98022SOL    HW195840  11.014   5.944   6.007
98022SOL    HW295841  10.983   5.874   5.877
98023SOL     OW95842  11.338   4.779  12.715
98023SOL    HW195843  11.246   4.796  12.734
98023SOL    HW295844  11.382   4.793  12.799
98024SOL     OW95845   4.804   3.805  14.024
98024SOL    HW195846   4.837   3.800  14.114
98024SOL    HW295847   4.713   3.834  14.034
98025SOL     OW95848   5.972   2.815   2.147
98025SOL    HW195849   5.880   2.837   2.130
98025SOL    HW295850   5.969   2.725   2.181
98026SOL     OW95851   2.212   4.595  10.318
98026SOL    HW195852   2.274   4.608  10.246
98026SOL    HW295853   2.147   4.664  10.306
98027SOL     OW95854  10.897   6.199   6.374
98027SOL    HW195855  10.972   6.245   6.336
98027SOL    HW295856  10.823   6.257   6.359
98028SOL     OW95857   9.491   7.660   4.034
98028SOL    HW195858   9.401   7.688   4.052
98028SOL    HW295859   9.484   7.608   3.954
98029SOL     OW95860  13.905  10.270   0.187
98029SOL    HW195861  13.899  10.192   0.243
98029SOL    HW295862  13.818  10.276   0.146
98030SOL     OW95863   4.170  14.112   8.502
98030SOL    HW195864   4.201  14.028   8.538
98030SOL    HW295865   4.076  14.099   8.490
98031SOL     OW95866  10.165   3.631   2.962
98031SOL    HW195867  10.256   3.651   2.941
98031SOL    HW295868  10.120   3.628   2.878
98032SOL     OW95869  11.072   0.116   9.160
98032SOL    HW195870  11.151   0.117   9.214
98032SOL    HW295871  11.028   0.198   9.182
98033SOL     OW95872   6.098   2.873   3.450
98033SOL    HW195873   6.027   2.873   3.515
98033SOL    HW295874   6.116   2.965   3.434
98034SOL     OW95875   5.451  12.430  13.081
98034SOL    HW195876   5.408  12.453  13.164
98034SOL    HW295877   5.545  12.432  13.101
98035SOL     OW95878   7.703  14.388   2.636
98035SOL    HW195879   7.692  14.411   2.728
98035SOL    HW295880   7.769  14.447   2.603
98036SOL     OW95881   1.057   0.437  12.970
98036SOL    HW195882   1.038   0.366  13.032
98036SOL    HW295883   1.114   0.497  13.019
98037SOL     OW95884   5.998   4.905   4.626
98037SOL    HW195885   6.053   4.939   4.696
98037SOL    HW295886   5.950   4.981   4.593
98038SOL     OW95887   2.058   9.959  12.938
98038SOL    HW195888   2.054   9.867  12.966
98038SOL    HW295889   1.967   9.989  12.942
98039SOL     OW95890  14.542   5.965  14.486
98039SOL    HW195891  14.494   6.003  14.412
98039SOL    HW295892  14.627   6.010  14.485
98040SOL     OW95893   9.615   7.199  12.410
98040SOL    HW195894   9.603   7.279  12.359
98040SOL    HW295895   9.693   7.158  12.373
98041SOL     OW95896  13.908  14.661   1.414
98041SOL    HW195897  13.930  14.730   1.351
98041SOL    HW295898  13.841  14.699   1.469
98042SOL     OW95899  12.674  13.299   5.886
98042SOL    HW195900  12.675  13.291   5.982
98042SOL    HW295901  12.603  13.361   5.869
98043SOL     OW95902  13.552   8.016   8.709
98043SOL    HW195903  13.494   8.083   8.745
98043SOL    HW295904  13.640   8.045   8.730
98044SOL     OW95905   4.547   4.107  10.109
98044SOL    HW195906   4.609   4.079  10.042
98044SOL    HW295907   4.461   4.101  10.065
98045SOL     OW95908  12.027  10.868  14.769
98045SOL    HW195909  12.119  10.843  14.761
98045SOL    HW295910  12.018  10.945  14.713
98046SOL     OW95911   7.531   0.491   1.593
98046SOL    HW195912   7.510   0.525   1.680
98046SOL    HW295913   7.555   0.569   1.542
98047SOL     OW95914   2.823   8.017   2.484
98047SOL    HW195915   2.734   8.049   2.478
98047SOL    HW295916   2.851   8.006   2.393
98048SOL     OW95917  13.838   0.517   7.156
98048SOL    HW195918  13.880   0.578   7.096
98048SOL    HW295919  13.907   0.456   7.182
98049SOL     OW95920   4.335   2.917   7.526
98049SOL    HW195921   4.243   2.894   7.514
98049SOL    HW295922   4.382   2.855   7.470
98050SOL     OW95923   4.244   5.640   0.942
98050SOL    HW195924   4.321   5.681   0.902
98050SOL    HW295925   4.278   5.559   0.981
98051SOL     OW95926  11.743  13.931  11.968
98051SOL    HW195927  11.805  13.995  12.004
98051SOL    HW295928  11.684  13.983  11.914
98052SOL     OW95929   9.245   0.229  10.000
98052SOL    HW195930   9.238   0.306   9.944
98052SOL    HW295931   9.166   0.179   9.981
98053SOL     OW95932  14.201  14.187   8.022
98053SOL    HW195933  14.281  14.212   7.977
98053SOL    HW295934  14.131  14.222   7.967
98054SOL     OW95935  10.731   3.862   7.317
98054SOL    HW195936  10.668   3.912   7.369
98054SOL    HW295937  10.681   3.835   7.240
98055SOL     OW95938   2.090   3.136   7.254
98055SOL    HW195939   2.162   3.145   7.192
98055SOL    HW295940   2.130   3.154   7.340
98056SOL     OW95941  12.231   2.491  14.411
98056SOL    HW195942  12.254   2.574  14.370
98056SOL    HW295943  12.280   2.490  14.493
98057SOL     OW95944  11.867  11.169  12.462
98057SOL    HW195945  11.784  11.136  12.496
98057SOL    HW295946  11.928  11.161  12.536
98058SOL     OW95947   4.400  13.162   0.937
98058SOL    HW195948   4.370  13.217   0.865
98058SOL    HW295949   4.412  13.222   1.010
98059SOL     OW95950   3.931   9.746   1.115
98059SOL    HW195951   3.893   9.664   1.145
98059SOL    HW295952   3.996   9.720   1.050
98060SOL     OW95953   5.618  13.913  11.984
98060SOL    HW195954   5.637  13.890  12.075
98060SOL    HW295955   5.701  13.949  11.951
98061SOL     OW95956   7.124  13.898   6.065
98061SOL    HW195957   7.065  13.900   6.140
98061SOL    HW295958   7.080  13.841   6.001
98062SOL     OW95959   5.028  10.019   3.541
98062SOL    HW195960   5.117  10.051   3.548
98062SOL    HW295961   4.998  10.048   3.455
98063SOL     OW95962   4.554   2.608   2.689
98063SOL    HW195963   4.522   2.592   2.778
98063SOL    HW295964   4.640   2.649   2.701
98064SOL     OW95965  10.752   9.059   8.690
98064SOL    HW195966  10.687   9.110   8.642
98064SOL    HW295967  10.811   9.025   8.623
98065SOL     OW95968   5.013  14.610   6.003
98065SOL    HW195969   4.968  14.546   5.948
98065SOL    HW295970   5.061  14.558   6.067
98066SOL     OW95971  11.707  12.445  14.358
98066SOL    HW195972  11.700  12.423  14.451
98066SOL    HW295973  11.641  12.391  14.315
98067SOL     OW95974  12.972   7.882   8.460
98067SOL    HW195975  13.014   7.837   8.387
98067SOL    HW295976  12.884   7.845   8.464
98068SOL     OW95977   3.601  14.341   0.378
98068SOL    HW195978   3.532  14.283   0.413
98068SOL    HW295979   3.553  14.414   0.339
98069SOL     OW95980   4.534   7.673   9.101
98069SOL    HW195981   4.612   7.679   9.156
98069SOL    HW295982   4.485   7.753   9.118
98070SOL     OW95983   4.810  13.579  14.192
98070SOL    HW195984   4.778  13.618  14.110
98070SOL    HW295985   4.833  13.489  14.168
98071SOL     OW95986   1.025  10.196   0.412
98071SOL    HW195987   1.103  10.250   0.402
98071SOL    HW295988   0.952  10.257   0.400
98072SOL     OW95989  14.608   4.246   1.727
98072SOL    HW195990  14.631   4.159   1.694
98072SOL    HW295991  14.682   4.301   1.702
98073SOL     OW95992   6.435  12.082  12.623
98073SOL    HW195993   6.343  12.108  12.614
98073SOL    HW295994   6.482  12.136  12.559
98074SOL     OW95995  10.238   4.386   4.298
98074SOL    HW195996  10.239   4.416   4.206
98074SOL    HW295997  10.215   4.465   4.348
98075SOL     OW95998   6.409   0.399  10.067
98075SOL    HW195999   6.383   0.456  10.139
98075SOL    HW296000   6.362   0.433   9.991
98076SOL     OW96001   4.245   9.114   2.587
98076SOL    HW196002   4.329   9.126   2.542
98076SOL    HW296003   4.233   9.195   2.638
98077SOL     OW96004   8.740   8.276  13.075
98077SOL    HW196005   8.647   8.295  13.066
98077SOL    HW296006   8.753   8.197  13.022
98078SOL     OW96007  10.439  13.135  14.304
98078SOL    HW196008  10.416  13.157  14.214
98078SOL    HW296009  10.423  13.215  14.354
98079SOL     OW96010   3.461  10.276  14.636
98079SOL    HW196011   3.538  10.230  14.602
98079SOL    HW296012   3.402  10.206  14.664
98080SOL     OW96013   5.837  10.201   0.194
98080SOL    HW196014   5.903  10.262   0.226
98080SOL    HW296015   5.878  10.115   0.201
98081SOL     OW96016  14.856  13.162   6.696
98081SOL    HW196017  14.814  13.084   6.658
98081SOL    HW296018  14.808  13.177   6.778
98082SOL     OW96019   1.637  10.235   4.355
98082SOL    HW196020   1.706  10.226   4.290
98082SOL    HW296021   1.558  10.201   4.312
98083SOL     OW96022  12.748  14.443   2.873
98083SOL    HW196023  12.774  14.463   2.783
98083SOL    HW296024  12.824  14.398   2.910
98084SOL     OW96025   2.942  14.832  14.799
98084SOL    HW196026   3.018  14.788  14.762
98084SOL    HW296027   2.977   0.006  14.872
98085SOL     OW96028  14.106   3.931   6.177
98085SOL    HW196029  14.026   3.932   6.125
98085SOL    HW296030  14.134   3.839   6.177
98086SOL     OW96031  11.757   4.811   4.582
98086SOL    HW196032  11.694   4.793   4.652
98086SOL    HW296033  11.776   4.904   4.590
98087SOL     OW96034  14.815  13.458   5.321
98087SOL    HW196035  14.839  13.382   5.267
98087SOL    HW296036  14.874  13.453   5.397
98088SOL     OW96037  11.857   7.892  11.372
98088SOL    HW196038  11.788   7.848  11.323
98088SOL    HW296039  11.832   7.881  11.464
98089SOL     OW96040   3.773   1.413   3.366
98089SOL    HW196041   3.700   1.384   3.422
98089SOL    HW296042   3.829   1.336   3.360
98090SOL     OW96043   3.630  12.298  10.313
98090SOL    HW196044   3.604  12.266  10.226
98090SOL    HW296045   3.726  12.303  10.309
98091SOL     OW96046   0.697   7.870  12.531
98091SOL    HW196047   0.674   7.957  12.565
98091SOL    HW296048   0.791   7.862  12.547
98092SOL     OW96049   3.395   7.014  13.654
98092SOL    HW196050   3.314   6.992  13.607
98092SOL    HW296051   3.378   7.101  13.690
98093SOL     OW96052  12.782   1.462   5.473
98093SOL    HW196053  12.762   1.377   5.433
98093SOL    HW296054  12.742   1.457   5.560
98094SOL     OW96055   0.710   4.517  10.220
98094SOL    HW196056   0.620   4.516  10.253
98094SOL    HW296057   0.749   4.436  10.252
98095SOL     OW96058  13.083  10.384   0.783
98095SOL    HW196059  13.148  10.454   0.786
98095SOL    HW296060  13.111  10.328   0.711
98096SOL     OW96061   6.521   4.249   1.256
98096SOL    HW196062   6.602   4.248   1.308
98096SOL    HW296063   6.482   4.334   1.275
98097SOL     OW96064   9.829  11.916   6.440
98097SOL    HW196065   9.781  11.889   6.362
98097SOL    HW296066   9.917  11.880   6.427
98098SOL     OW96067  10.068   3.121   0.184
98098SOL    HW196068  10.010   3.046   0.192
98098SOL    HW296069  10.105   3.115   0.095
98099SOL     OW96070   8.333   8.571  11.197
98099SOL    HW196071   8.247   8.529  11.186
98099SOL    HW296072   8.340   8.630  11.122
98100SOL     OW96073   4.772   2.982   9.511
98100SOL    HW196074   4.768   2.898   9.556
98100SOL    HW296075   4.745   3.046   9.578
98101SOL     OW96076   0.637  13.158  14.412
98101SOL    HW196077   0.683  13.242  14.416
98101SOL    HW296078   0.689  13.100  14.468
98102SOL     OW96079   2.722   9.361   3.014
98102SOL    HW196080   2.689   9.306   3.085
98102SOL    HW296081   2.775   9.302   2.961
98103SOL     OW96082   0.826  11.803   7.856
98103SOL    HW196083   0.733  11.809   7.839
98103SOL    HW296084   0.842  11.866   7.927
98104SOL     OW96085  14.542  13.496  10.654
98104SOL    HW196086  14.588  13.481  10.736
98104SOL    HW296087  14.482  13.568  10.673
98105SOL     OW96088   6.098   4.296   7.388
98105SOL    HW196089   6.173   4.355   7.379
98105SOL    HW296090   6.052   4.304   7.305
98106SOL     OW96091   1.827   9.882  12.230
98106SOL    HW196092   1.741   9.863  12.194
98106SOL    HW296093   1.809   9.923  12.315
98107SOL     OW96094  11.798   1.733   8.217
98107SOL    HW196095  11.882   1.758   8.179
98107SOL    HW296096  11.753   1.686   8.147
98108SOL     OW96097   8.272   1.728   8.581
98108SOL    HW196098   8.294   1.773   8.500
98108SOL    HW296099   8.255   1.638   8.555
98109SOL     OW96100   3.889  11.038   2.047
98109SOL    HW196101   3.799  11.068   2.036
98109SOL    HW296102   3.882  10.959   2.100
98110SOL     OW96103   0.336   3.550   6.113
98110SOL    HW196104   0.392   3.541   6.036
98110SOL    HW296105   0.376   3.621   6.163
98111SOL     OW96106   7.334   0.953  14.263
98111SOL    HW196107   7.295   1.040  14.264
98111SOL    HW296108   7.425   0.967  14.289
98112SOL     OW96109  13.682  14.781  12.918
98112SOL    HW196110  13.702  14.742  12.833
98112SOL    HW296111  13.758  14.836  12.938
98113SOL     OW96112   2.761  10.340   8.655
98113SOL    HW196113   2.732  10.249   8.649
98113SOL    HW296114   2.730  10.370   8.741
98114SOL     OW96115   3.316  14.208   5.942
98114SOL    HW196116   3.395  14.204   5.888
98114SOL    HW296117   3.347  14.194   6.031
98115SOL     OW96118   7.181  10.383  11.024
98115SOL    HW196119   7.142  10.406  10.939
98115SOL    HW296120   7.270  10.418  11.019
98116SOL     OW96121   4.225  12.744  11.956
98116SOL    HW196122   4.137  12.707  11.946
98116SOL    HW296123   4.283  12.678  11.917
98117SOL     OW96124   4.392   6.299   2.987
98117SOL    HW196125   4.425   6.226   2.935
98117SOL    HW296126   4.452   6.305   3.061
98118SOL     OW96127   7.039   8.536  11.526
98118SOL    HW196128   6.963   8.485  11.499
98118SOL    HW296129   7.012   8.627  11.515
98119SOL     OW96130   0.790   2.895   4.043
98119SOL    HW196131   0.694   2.896   4.037
98119SOL    HW296132   0.817   2.976   4.000
98120SOL     OW96133   6.340   0.105  10.075
98120SOL    HW196134   6.369   0.190  10.108
98120SOL    HW296135   6.246   0.103  10.096
98121SOL     OW96136  12.221   9.926  12.099
98121SOL    HW196137  12.223   9.839  12.138
98121SOL    HW296138  12.130   9.954  12.106
98122SOL     OW96139   8.256  10.299  14.367
98122SOL    HW196140   8.349  10.302  14.387
98122SOL    HW296141   8.213  10.327  14.448
98123SOL     OW96142   4.373   8.764   3.631
98123SOL    HW196143   4.378   8.849   3.675
98123SOL    HW296144   4.279   8.748   3.619
98124SOL     OW96145  11.460   2.039  11.912
98124SOL    HW196146  11.382   2.068  11.959
98124SOL    HW296147  11.469   2.101  11.839
98125SOL     OW96148   4.391  12.883   3.718
98125SOL    HW196149   4.406  12.881   3.624
98125SOL    HW296150   4.440  12.808   3.752
98126SOL     OW96151  14.444  14.370  10.163
98126SOL    HW196152  14.427  14.276  10.157
98126SOL    HW296153  14.378  14.401  10.226
98127SOL     OW96154   6.812   0.658   0.690
98127SOL    HW196155   6.738   0.716   0.672
98127SOL    HW296156   6.886   0.699   0.647
98128SOL     OW96157   1.499   9.466   6.396
98128SOL    HW196158   1.557   9.394   6.420
98128SOL    HW296159   1.502   9.525   6.472
98129SOL     OW96160   4.930   7.820  11.405
98129SOL    HW196161   5.021   7.793  11.405
98129SOL    HW296162   4.926   7.890  11.340
98130SOL     OW96163   5.402   6.532  11.690
98130SOL    HW196164   5.476   6.572  11.734
98130SOL    HW296165   5.335   6.600  11.690
98131SOL     OW96166   2.282   3.187   7.433
98131SOL    HW196167   2.354   3.250   7.430
98131SOL    HW296168   2.322   3.105   7.461
98132SOL     OW96169   3.266   8.326  13.490
98132SOL    HW196170   3.180   8.295  13.518
98132SOL    HW296171   3.283   8.279  13.408
98133SOL     OW96172   5.538  11.454   6.647
98133SOL    HW196173   5.489  11.378   6.678
98133SOL    HW296174   5.580  11.489   6.725
98134SOL     OW96175  10.645   4.658   3.292
98134SOL    HW196176  10.592   4.733   3.318
98134SOL    HW296177  10.722   4.662   3.349
98135SOL     OW96178   8.986   0.260   3.445
98135SOL    HW196179   9.035   0.186   3.481
98135SOL    HW296180   8.984   0.244   3.351
98136SOL     OW96181   1.372   6.922   6.740
98136SOL    HW196182   1.322   6.974   6.804
98136SOL    HW296183   1.458   6.911   6.780
98137SOL     OW96184   5.424   3.359   6.415
98137SOL    HW196185   5.509   3.340   6.375
98137SOL    HW296186   5.430   3.320   6.503
98138SOL     OW96187   0.685   5.384   3.769
98138SOL    HW196188   0.621   5.362   3.837
98138SOL    HW296189   0.662   5.473   3.743
98139SOL     OW96190  13.696  11.849   4.967
98139SOL    HW196191  13.721  11.861   4.876
98139SOL    HW296192  13.614  11.898   4.977
98140SOL     OW96193  11.138   0.745  11.291
98140SOL    HW196194  11.050   0.767  11.321
98140SOL    HW296195  11.183   0.829  11.284
98141SOL     OW96196   2.203  14.392   7.962
98141SOL    HW196197   2.115  14.386   7.924
98141SOL    HW296198   2.235  14.301   7.960
98142SOL     OW96199  10.182  14.073  11.641
98142SOL    HW196200  10.190  14.110  11.729
98142SOL    HW296201  10.197  13.979  11.653
98143SOL     OW96202   5.961   6.995   2.099
98143SOL    HW196203   6.049   6.960   2.112
98143SOL    HW296204   5.972   7.090   2.098
98144SOL     OW96205   8.845   4.447   0.154
98144SOL    HW196206   8.876   4.480   0.239
98144SOL    HW296207   8.911   4.477   0.091
98145SOL     OW96208  11.219   0.762   3.759
98145SOL    HW196209  11.234   0.684   3.706
98145SOL    HW296210  11.236   0.836   3.700
98146SOL     OW96211  11.659   4.371  10.127
98146SOL    HW196212  11.607   4.437  10.173
98146SOL    HW296213  11.680   4.306  10.195
98147SOL     OW96214   3.699  10.184  12.041
98147SOL    HW196215   3.638  10.127  12.087
98147SOL    HW296216   3.772  10.195  12.102
98148SOL     OW96217   8.119   2.924   4.285
98148SOL    HW196218   8.077   2.855   4.233
98148SOL    HW296219   8.209   2.893   4.296
98149SOL     OW96220   2.404   3.184   6.388
98149SOL    HW196221   2.444   3.202   6.303
98149SOL    HW296222   2.326   3.239   6.392
98150SOL     OW96223   5.593  12.215   7.563
98150SOL    HW196224   5.679  12.200   7.524
98150SOL    HW296225   5.533  12.216   7.488
98151SOL     OW96226  11.481   7.583  14.553
98151SOL    HW196227  11.492   7.506  14.610
98151SOL    HW296228  11.462   7.654  14.614
98152SOL     OW96229   3.877   3.000   4.648
98152SOL    HW196230   3.817   3.068   4.678
98152SOL    HW296231   3.947   2.998   4.714
98153SOL     OW96232   3.181   2.474  13.585
98153SOL    HW196233   3.253   2.414  13.565
98153SOL    HW296234   3.115   2.454  13.519
98154SOL     OW96235   0.996   5.969   3.912
98154SOL    HW196236   0.963   6.058   3.925
98154SOL    HW296237   1.091   5.979   3.903
98155SOL     OW96238  10.785   3.507   4.647
98155SOL    HW196239  10.722   3.499   4.576
98155SOL    HW296240  10.838   3.427   4.640
98156SOL     OW96241   9.699   6.484   8.026
98156SOL    HW196242   9.672   6.394   8.045
98156SOL    HW296243   9.662   6.501   7.939
98157SOL     OW96244  14.553  11.858  13.834
98157SOL    HW196245  14.464  11.861  13.799
98157SOL    HW296246  14.601  11.923  13.783
98158SOL     OW96247   6.965  12.731   7.522
98158SOL    HW196248   6.915  12.802   7.561
98158SOL    HW296249   7.016  12.772   7.452
98159SOL     OW96250  10.966  10.533  13.276
98159SOL    HW196251  10.924  10.558  13.194
98159SOL    HW296252  10.902  10.557  13.344
98160SOL     OW96253   8.250  11.646  12.957
98160SOL    HW196254   8.216  11.662  12.869
98160SOL    HW296255   8.254  11.551  12.965
98161SOL     OW96256   7.382  10.382  12.996
98161SOL    HW196257   7.339  10.421  13.073
98161SOL    HW296258   7.313  10.332  12.952
98162SOL     OW96259   8.244  11.807  13.337
98162SOL    HW196260   8.207  11.732  13.291
98162SOL    HW296261   8.320  11.772  13.383
98163SOL     OW96262   2.983   8.995   8.820
98163SOL    HW196263   2.911   8.955   8.772
98163SOL    HW296264   2.941   9.048   8.887
98164SOL     OW96265  10.431   2.341  10.769
98164SOL    HW196266  10.374   2.398  10.820
98164SOL    HW296267  10.421   2.370  10.679
98165SOL     OW96268   0.200   7.243  14.488
98165SOL    HW196269   0.269   7.177  14.475
98165SOL    HW296270   0.246   7.327  14.483
98166SOL     OW96271  11.700   7.734   9.483
98166SOL    HW196272  11.642   7.810   9.477
98166SOL    HW296273  11.687   7.687   9.401
98167SOL     OW96274  14.298   1.538   9.991
98167SOL    HW196275  14.286   1.494  10.075
98167SOL    HW296276  14.337   1.622  10.013
98168SOL     OW96277   4.280   3.295   9.822
98168SOL    HW196278   4.364   3.317   9.782
98168SOL    HW296279   4.290   3.320   9.914
98169SOL     OW96280   2.050   0.615   7.635
98169SOL    HW196281   2.104   0.652   7.705
98169SOL    HW296282   2.007   0.690   7.595
98170SOL     OW96283   0.003   8.432  13.194
98170SOL    HW196284  14.824   8.487  13.248
98170SOL    HW296285  14.846   8.344  13.205
98171SOL     OW96286  11.549   4.699   5.648
98171SOL    HW196287  11.564   4.751   5.568
98171SOL    HW296288  11.560   4.609   5.620
98172SOL     OW96289  14.874  12.024  11.597
98172SOL    HW196290   0.070  12.039  11.655
98172SOL    HW296291  14.800  12.064  11.642
98173SOL     OW96292   6.832   3.229  12.034
98173SOL    HW196293   6.784   3.242  11.953
98173SOL    HW296294   6.901   3.166  12.013
98174SOL     OW96295  12.282   4.799   3.727
98174SOL    HW196296  12.375   4.777   3.735
98174SOL    HW296297  12.240   4.750   3.797
98175SOL     OW96298   7.416   7.085  12.976
98175SOL    HW196299   7.471   7.139  12.919
98175SOL    HW296300   7.476   7.022  13.015
98176SOL     OW96301  13.608   8.714  10.750
98176SOL    HW196302  13.527   8.764  10.761
98176SOL    HW296303  13.587   8.649  10.683
98177SOL     OW96304   8.994  11.182  12.117
98177SOL    HW196305   9.002  11.241  12.041
98177SOL    HW296306   9.073  11.199  12.169
98178SOL     OW96307   6.051   7.164  13.214
98178SOL    HW196308   6.121   7.136  13.273
98178SOL    HW296309   6.097   7.193  13.135
98179SOL     OW96310  13.184  12.623   3.143
98179SOL    HW196311  13.202  12.532   3.168
98179SOL    HW296312  13.270  12.664   3.137
98180SOL     OW96313  13.212   0.889   7.470
98180SOL    HW196314  13.239   0.976   7.440
98180SOL    HW296315  13.240   0.830   7.400
98181SOL     OW96316   9.887  10.956  12.025
98181SOL    HW196317   9.977  10.954  11.990
98181SOL    HW296318   9.853  10.869  12.006
98182SOL     OW96319   2.826   5.826  14.053
98182SOL    HW196320   2.776   5.897  14.092
98182SOL    HW296321   2.828   5.846  13.960
98183SOL     OW96322  14.312  11.166   4.141
98183SOL    HW196323  14.217  11.165   4.148
98183SOL    HW296324  14.334  11.084   4.098
98184SOL     OW96325   8.315  10.814   5.181
98184SOL    HW196326   8.379  10.749   5.212
98184SOL    HW296327   8.342  10.896   5.223
98185SOL     OW96328  10.331  10.038   4.747
98185SOL    HW196329  10.337  10.134   4.750
98185SOL    HW296330  10.340  10.016   4.655
98186SOL     OW96331   0.082  12.109  12.649
98186SOL    HW196332   0.015  12.170  12.620
98186SOL    HW296333   0.046  12.068  12.727
98187SOL     OW96334   9.475   8.562   0.255
98187SOL    HW196335   9.437   8.538   0.339
98187SOL    HW296336   9.568   8.573   0.273
98188SOL     OW96337   3.413   0.871   4.657
98188SOL    HW196338   3.451   0.938   4.713
98188SOL    HW296339   3.457   0.883   4.573
98189SOL     OW96340  10.739   1.728   9.109
98189SOL    HW196341  10.697   1.680   9.181
98189SOL    HW296342  10.799   1.663   9.071
98190SOL     OW96343   8.387  13.221   1.442
98190SOL    HW196344   8.338  13.266   1.511
98190SOL    HW296345   8.472  13.264   1.442
98191SOL     OW96346  14.782   9.931  12.744
98191SOL    HW196347  14.863   9.883  12.727
98191SOL    HW296348  14.715   9.863  12.755
98192SOL     OW96349   5.792   9.908   1.828
98192SOL    HW196350   5.704   9.918   1.790
98192SOL    HW296351   5.828   9.997   1.829
98193SOL     OW96352   7.837   3.719   2.786
98193SOL    HW196353   7.755   3.752   2.750
98193SOL    HW296354   7.824   3.624   2.792
98194SOL     OW96355   3.142   4.945   3.601
98194SOL    HW196356   3.057   4.988   3.606
98194SOL    HW296357   3.135   4.871   3.662
98195SOL     OW96358   4.086   8.495   4.010
98195SOL    HW196359   4.039   8.417   4.039
98195SOL    HW296360   4.022   8.544   3.958
98196SOL     OW96361   4.964  14.256  10.118
98196SOL    HW196362   4.969  14.186  10.182
98196SOL    HW296363   4.889  14.308  10.145
98197SOL     OW96364   8.002   4.579   3.559
98197SOL    HW196365   8.091   4.603   3.586
98197SOL    HW296366   7.981   4.502   3.611
98198SOL     OW96367  11.872  13.808  14.840
98198SOL    HW196368  11.824  13.739   0.007
98198SOL    HW296369  11.926  13.763  14.776
98199SOL     OW96370  12.532   2.232   6.391
98199SOL    HW196371  12.575   2.316   6.410
98199SOL    HW296372  12.443   2.242   6.425
98200SOL     OW96373  12.602   8.903   8.904
98200SOL    HW196374  12.517   8.935   8.876
98200SOL    HW296375  12.584   8.822   8.951
98201SOL     OW96376   8.099  11.527   9.341
98201SOL    HW196377   8.187  11.491   9.340
98201SOL    HW296378   8.049  11.469   9.282
98202SOL     OW96379   6.336   6.344  13.320
98202SOL    HW196380   6.272   6.294  13.371
98202SOL    HW296381   6.421   6.320  13.357
98203SOL     OW96382   7.531   9.441  12.438
98203SOL    HW196383   7.615   9.464  12.399
98203SOL    HW296384   7.481   9.522  12.436
98204SOL     OW96385  10.331   7.388  10.961
98204SOL    HW196386  10.266   7.455  10.938
98204SOL    HW296387  10.415   7.430  10.943
98205SOL     OW96388   9.132   2.390  14.467
98205SOL    HW196389   9.184   2.470  14.460
98205SOL    HW296390   9.180   2.335  14.528
98206SOL     OW96391   2.397  12.780   1.709
98206SOL    HW196392   2.483  12.793   1.749
98206SOL    HW296393   2.350  12.725   1.771
98207SOL     OW96394  11.248   5.175   2.024
98207SOL    HW196395  11.300   5.251   2.050
98207SOL    HW296396  11.208   5.145   2.106
98208SOL     OW96397   2.222   7.116  11.340
98208SOL    HW196398   2.269   7.198  11.357
98208SOL    HW296399   2.218   7.110  11.244
98209SOL     OW96400  14.711   9.547   4.021
98209SOL    HW196401  14.720   9.515   3.931
98209SOL    HW296402  14.746   9.636   4.018
98210SOL     OW96403  11.370  14.106   9.259
98210SOL    HW196404  11.463  14.084   9.260
98210SOL    HW296405  11.351  14.131   9.349
98211SOL     OW96406   8.908  11.953   2.371
98211SOL    HW196407   8.939  12.033   2.414
98211SOL    HW296408   8.972  11.886   2.396
98212SOL     OW96409  12.544  11.054   7.232
98212SOL    HW196410  12.453  11.065   7.205
98212SOL    HW296411  12.545  11.082   7.324
98213SOL     OW96412  11.845   3.852   5.913
98213SOL    HW196413  11.907   3.832   5.983
98213SOL    HW296414  11.799   3.930   5.943
98214SOL     OW96415   6.785   1.166   6.778
98214SOL    HW196416   6.879   1.172   6.757
98214SOL    HW296417   6.753   1.256   6.771
98215SOL     OW96418   7.048   7.474  10.425
98215SOL    HW196419   7.021   7.563  10.449
98215SOL    HW296420   7.015   7.419  10.497
98216SOL     OW96421  11.957   0.599   7.885
98216SOL    HW196422  11.987   0.683   7.851
98216SOL    HW296423  12.033   0.562   7.930
98217SOL     OW96424  11.471   7.863   3.518
98217SOL    HW196425  11.382   7.883   3.548
98217SOL    HW296426  11.472   7.888   3.426
98218SOL     OW96427   7.038  12.210   0.603
98218SOL    HW196428   7.048  12.257   0.686
98218SOL    HW296429   6.943  12.209   0.587
98219SOL     OW96430  10.771   5.273  13.769
98219SOL    HW196431  10.817   5.353  13.795
98219SOL    HW296432  10.841   5.213  13.741
98220SOL     OW96433   9.003   9.589  12.519
98220SOL    HW196434   8.963   9.606  12.433
98220SOL    HW296435   8.949   9.519  12.556
98221SOL     OW96436   0.599  12.717   5.140
98221SOL    HW196437   0.679  12.721   5.088
98221SOL    HW296438   0.622  12.663   5.216
98222SOL     OW96439  11.131  13.926   3.425
98222SOL    HW196440  11.066  13.884   3.481
98222SOL    HW296441  11.139  13.868   3.349
98223SOL     OW96442  13.673  11.304   0.925
98223SOL    HW196443  13.646  11.220   0.962
98223SOL    HW296444  13.769  11.300   0.925
98224SOL     OW96445   0.140   2.806   4.950
98224SOL    HW196446   0.070   2.869   4.931
98224SOL    HW296447   0.115   2.727   4.902
98225SOL     OW96448   1.118  11.253   9.819
98225SOL    HW196449   1.093  11.308   9.893
98225SOL    HW296450   1.149  11.171   9.859
98226SOL     OW96451   8.213   0.125   7.329
98226SOL    HW196452   8.235   0.049   7.275
98226SOL    HW296453   8.280   0.125   7.397
98227SOL     OW96454   1.516   0.522  13.804
98227SOL    HW196455   1.581   0.555  13.742
98227SOL    HW296456   1.454   0.594  13.815
98228SOL     OW96457   8.645   7.560   1.414
98228SOL    HW196458   8.684   7.553   1.502
98228SOL    HW296459   8.657   7.652   1.390
98229SOL     OW96460   4.739  12.403  13.969
98229SOL    HW196461   4.780  12.386  13.884
98229SOL    HW296462   4.797  12.363  14.033
98230SOL     OW96463  10.257   8.625   6.574
98230SOL    HW196464  10.206   8.618   6.655
98230SOL    HW296465  10.295   8.538   6.562
98231SOL     OW96466   1.246   2.644   5.890
98231SOL    HW196467   1.244   2.554   5.858
98231SOL    HW296468   1.155   2.674   5.885
98232SOL     OW96469   7.671   0.374  11.920
98232SOL    HW196470   7.761   0.383  11.950
98232SOL    HW296471   7.653   0.455  11.873
98233SOL     OW96472   5.728   1.036   6.247
98233SOL    HW196473   5.739   1.038   6.152
98233SOL    HW296474   5.726   0.943   6.268
98234SOL     OW96475   4.308   2.597  10.662
98234SOL    HW196476   4.347   2.512  10.679
98234SOL    HW296477   4.227   2.577  10.614
98235SOL     OW96478   8.703  14.869   9.123
98235SOL    HW196479   8.798  14.876   9.137
98235SOL    HW296480   8.671   0.081   9.132
98236SOL     OW96481   2.771   7.473   7.864
98236SOL    HW196482   2.856   7.510   7.883
98236SOL    HW296483   2.744   7.515   7.782
98237SOL     OW96484  12.791   4.302  13.344
98237SOL    HW196485  12.814   4.394  13.347
98237SOL    HW296486  12.758   4.283  13.432
98238SOL     OW96487  11.933  13.575   1.063
98238SOL    HW196488  11.989  13.581   0.986
98238SOL    HW296489  11.894  13.662   1.071
98239SOL     OW96490  14.832   8.592  10.825
98239SOL    HW196491  14.737   8.585  10.822
98239SOL    HW296492  14.862   8.532  10.756
98240SOL     OW96493  10.603   9.343   5.125
98240SOL    HW196494  10.663   9.269   5.112
98240SOL    HW296495  10.595   9.352   5.220
98241SOL     OW96496   1.154   6.964   6.375
98241SOL    HW196497   1.061   6.946   6.385
98241SOL    HW296498   1.189   6.886   6.332
98242SOL     OW96499  10.243   7.340  10.337
98242SOL    HW196500  10.174   7.280  10.365
98242SOL    HW296501  10.323   7.287  10.341
98243SOL     OW96502   0.239   6.061  13.533
98243SOL    HW196503   0.178   6.063  13.459
98243SOL    HW296504   0.261   5.969  13.544
98244SOL     OW96505  14.371  10.808   8.865
98244SOL    HW196506  14.275  10.810   8.860
98244SOL    HW296507  14.390  10.780   8.954
98245SOL     OW96508  10.361   1.106   7.311
98245SOL    HW196509  10.421   1.066   7.248
98245SOL    HW296510  10.331   1.186   7.269
98246SOL     OW96511   1.595   3.777   3.563
98246SOL    HW196512   1.563   3.867   3.561
98246SOL    HW296513   1.613   3.759   3.655
98247SOL     OW96514   0.596   0.699   3.459
98247SOL    HW196515   0.649   0.766   3.417
98247SOL    HW296516   0.659   0.634   3.490
98248SOL     OW96517   5.441   0.327  13.799
98248SOL    HW196518   5.465   0.259  13.863
98248SOL    HW296519   5.352   0.305  13.773
98249SOL     OW96520   3.969   0.297   6.524
98249SOL    HW196521   4.046   0.248   6.552
98249SOL    HW296522   3.897   0.261   6.577
98250SOL     OW96523  13.451   7.059   0.887
98250SOL    HW196524  13.424   6.975   0.851
98250SOL    HW296525  13.476   7.038   0.977
98251SOL     OW96526   5.682  10.690   0.782
98251SOL    HW196527   5.596  10.714   0.750
98251SOL    HW296528   5.713  10.769   0.828
98252SOL     OW96529   7.209   7.172   6.474
98252SOL    HW196530   7.144   7.108   6.446
98252SOL    HW296531   7.192   7.248   6.418
98253SOL     OW96532   2.921   6.486   0.725
98253SOL    HW196533   2.918   6.421   0.654
98253SOL    HW296534   2.971   6.444   0.794
98254SOL     OW96535   1.429   9.076  12.676
98254SOL    HW196536   1.433   9.169  12.696
98254SOL    HW296537   1.366   9.041  12.739
98255SOL     OW96538   3.699   3.903   0.251
98255SOL    HW196539   3.689   3.841   0.323
98255SOL    HW296540   3.643   3.868   0.181
98256SOL     OW96541  12.330  10.411   3.786
98256SOL    HW196542  12.287  10.355   3.850
98256SOL    HW296543  12.264  10.478   3.765
98257SOL     OW96544   3.719  12.841   0.526
98257SOL    HW196545   3.749  12.771   0.584
98257SOL    HW296546   3.681  12.795   0.451
98258SOL     OW96547  13.415   6.059   1.736
98258SOL    HW196548  13.423   5.968   1.765
98258SOL    HW296549  13.382   6.106   1.812
98259SOL     OW96550   2.945  11.975  13.224
98259SOL    HW196551   3.029  11.929  13.217
98259SOL    HW296552   2.901  11.958  13.141
98260SOL     OW96553  12.504  12.293  13.182
98260SOL    HW196554  12.484  12.208  13.222
98260SOL    HW296555  12.571  12.273  13.116
98261SOL     OW96556   9.638  10.991   1.253
98261SOL    HW196557   9.621  10.970   1.162
98261SOL    HW296558   9.690  10.917   1.285
98262SOL     OW96559  12.797   4.148   8.830
98262SOL    HW196560  12.873   4.133   8.775
98262SOL    HW296561  12.796   4.243   8.844
98263SOL     OW96562   5.028   2.728   4.144
98263SOL    HW196563   4.983   2.806   4.179
98263SOL    HW296564   4.974   2.655   4.174
98264SOL     OW96565  10.742   5.066  11.607
98264SOL    HW196566  10.807   5.108  11.663
98264SOL    HW296567  10.790   4.994  11.565
98265SOL     OW96568   6.854  12.186   8.929
98265SOL    HW196569   6.848  12.093   8.908
98265SOL    HW296570   6.929  12.193   8.987
98266SOL     OW96571   5.634   9.159  12.054
98266SOL    HW196572   5.656   9.170  12.146
98266SOL    HW296573   5.662   9.070  12.032
98267SOL     OW96574   2.986   1.373   4.588
98267SOL    HW196575   3.075   1.397   4.561
98267SOL    HW296576   2.971   1.288   4.547
98268SOL     OW96577   0.464   9.751   1.124
98268SOL    HW196578   0.532   9.739   1.058
98268SOL    HW296579   0.508   9.798   1.195
98269SOL     OW96580   6.902   3.184   6.544
98269SOL    HW196581   6.855   3.182   6.627
98269SOL    HW296582   6.843   3.230   6.484
98270SOL     OW96583   1.851   3.692  14.049
98270SOL    HW196584   1.768   3.689  14.000
98270SOL    HW296585   1.843   3.770  14.104
98271SOL     OW96586   5.275   3.587   3.034
98271SOL    HW196587   5.360   3.543   3.033
98271SOL    HW296588   5.212   3.518   3.010
98272SOL     OW96589  11.739   5.564  12.339
98272SOL    HW196590  11.685   5.592  12.265
98272SOL    HW296591  11.776   5.480  12.311
98273SOL     OW96592  12.722   6.563   8.583
98273SOL    HW196593  12.652   6.550   8.646
98273SOL    HW296594  12.677   6.575   8.499
98274SOL     OW96595   2.195   2.242   0.038
98274SOL    HW196596   2.290   2.251   0.045
98274SOL    HW296597   2.182   2.158  14.871
98275SOL     OW96598  12.622  12.239   7.586
98275SOL    HW196599  12.708  12.216   7.620
98275SOL    HW296600  12.596  12.316   7.638
98276SOL     OW96601   3.803   3.096   2.012
98276SOL    HW196602   3.718   3.078   1.972
98276SOL    HW296603   3.807   3.192   2.018
98277SOL     OW96604   6.295   2.435   6.052
98277SOL    HW196605   6.218   2.491   6.064
98277SOL    HW296606   6.343   2.443   6.135
98278SOL     OW96607  11.280   4.043   4.953
98278SOL    HW196608  11.318   3.962   4.919
98278SOL    HW296609  11.309   4.111   4.892
98279SOL     OW96610  11.143   9.474  10.317
98279SOL    HW196611  11.108   9.491  10.405
98279SOL    HW296612  11.236   9.454  10.332
98280SOL     OW96613   0.591   2.073   3.775
98280SOL    HW196614   0.685   2.080   3.758
98280SOL    HW296615   0.553   2.148   3.730
98281SOL     OW96616   0.707   2.731   0.912
98281SOL    HW196617   0.707   2.789   0.989
98281SOL    HW296618   0.788   2.680   0.921
98282SOL     OW96619   8.872  10.253   7.148
98282SOL    HW196620   8.918  10.177   7.113
98282SOL    HW296621   8.937  10.297   7.203
98283SOL     OW96622   7.799   2.648  12.894
98283SOL    HW196623   7.852   2.625  12.818
98283SOL    HW296624   7.862   2.677  12.960
98284SOL     OW96625   4.076  13.804   4.550
98284SOL    HW196626   3.990  13.764   4.563
98284SOL    HW296627   4.084  13.868   4.621
98285SOL     OW96628  14.198   4.859  14.811
98285SOL    HW196629  14.157   4.866   0.020
98285SOL    HW296630  14.253   4.782  14.817
98286SOL     OW96631   3.981   9.885   7.302
98286SOL    HW196632   4.015   9.805   7.341
98286SOL    HW296633   4.030   9.955   7.346
98287SOL     OW96634   7.017  10.981   4.220
98287SOL    HW196635   7.101  11.021   4.239
98287SOL    HW296636   7.000  11.002   4.128
98288SOL     OW96637  13.898   1.388   7.437
98288SOL    HW196638  13.815   1.436   7.436
98288SOL    HW296639  13.903   1.348   7.350
98289SOL     OW96640  11.388   5.531   6.774
98289SOL    HW196641  11.430   5.528   6.689
98289SOL    HW296642  11.449   5.579   6.830
98290SOL     OW96643  13.673   8.336   6.132
98290SOL    HW196644  13.656   8.339   6.227
98290SOL    HW296645  13.598   8.288   6.096
98291SOL     OW96646   7.937  10.044  10.040
98291SOL    HW196647   7.985  10.020   9.961
98291SOL    HW296648   7.847  10.053  10.012
98292SOL     OW96649  13.240   1.658   0.315
98292SOL    HW196650  13.148   1.672   0.293
98292SOL    HW296651  13.244   1.667   0.410
98293SOL     OW96652   9.921   4.616   0.602
98293SOL    HW196653   9.881   4.696   0.635
98293SOL    HW296654  10.005   4.644   0.565
98294SOL     OW96655   7.140   1.304   8.033
98294SOL    HW196656   7.068   1.333   7.976
98294SOL    HW296657   7.103   1.306   8.121
98295SOL     OW96658   9.445   4.676   1.506
98295SOL    HW196659   9.501   4.639   1.575
98295SOL    HW296660   9.448   4.611   1.436
98296SOL     OW96661  14.157   6.392   5.945
98296SOL    HW196662  14.076   6.439   5.967
98296SOL    HW296663  14.129   6.323   5.885
98297SOL     OW96664   8.100  11.344   6.405
98297SOL    HW196665   8.129  11.435   6.412
98297SOL    HW296666   8.035  11.334   6.473
98298SOL     OW96667  13.799  11.445   0.061
98298SOL    HW196668  13.849  11.499   0.121
98298SOL    HW296669  13.712  11.441   0.099
98299SOL     OW96670   1.920   4.298  11.946
98299SOL    HW196671   1.885   4.262  12.028
98299SOL    HW296672   1.844   4.331  11.900
98300SOL     OW96673  13.347   4.173  13.873
98300SOL    HW196674  13.324   4.200  13.784
98300SOL    HW296675  13.420   4.230  13.898
98301SOL     OW96676   6.915  14.370   6.472
98301SOL    HW196677   6.943  14.286   6.510
98301SOL    HW296678   6.902  14.351   6.379
98302SOL     OW96679   0.592   3.046   9.952
98302SOL    HW196680   0.615   3.093  10.033
98302SOL    HW296681   0.549   2.966   9.982
98303SOL     OW96682   5.020  13.810   2.543
98303SOL    HW196683   4.964  13.780   2.471
98303SOL    HW296684   5.109  13.801   2.509
98304SOL     OW96685   4.825   2.584   8.330
98304SOL    HW196686   4.755   2.520   8.346
98304SOL    HW296687   4.869   2.594   8.414
98305SOL     OW96688   0.963  10.230   7.522
98305SOL    HW196689   0.969  10.290   7.447
98305SOL    HW296690   1.028  10.263   7.584
98306SOL     OW96691   0.236   8.190   9.092
98306SOL    HW196692   0.165   8.255   9.091
98306SOL    HW296693   0.265   8.187   9.001
98307SOL     OW96694   9.742   8.241  10.661
98307SOL    HW196695   9.689   8.282  10.592
98307SOL    HW296696   9.722   8.148  10.654
98308SOL     OW96697   7.533   5.396  14.719
98308SOL    HW196698   7.549   5.435  14.805
98308SOL    HW296699   7.447   5.428  14.694
98309SOL     OW96700   2.174  13.079  11.766
98309SOL    HW196701   2.217  13.060  11.683
98309SOL    HW296702   2.112  13.149  11.746
98310SOL     OW96703   2.594   9.083   4.367
98310SOL    HW196704   2.571   9.015   4.303
98310SOL    HW296705   2.552   9.162   4.333
98311SOL     OW96706   1.678  11.697   7.733
98311SOL    HW196707   1.723  11.782   7.738
98311SOL    HW296708   1.737  11.636   7.778
98312SOL     OW96709   7.928   3.419   7.244
98312SOL    HW196710   7.889   3.489   7.298
98312SOL    HW296711   7.949   3.350   7.306
98313SOL     OW96712   7.316   4.098  14.246
98313SOL    HW196713   7.275   4.131  14.326
98313SOL    HW296714   7.410   4.111  14.260
98314SOL     OW96715   4.991   5.250   2.089
98314SOL    HW196716   4.999   5.237   2.184
98314SOL    HW296717   4.996   5.161   2.053
98315SOL     OW96718  12.771  11.452  11.108
98315SOL    HW196719  12.789  11.371  11.061
98315SOL    HW296720  12.854  11.475  11.149
98316SOL     OW96721   9.123   3.381   3.387
98316SOL    HW196722   9.178   3.431   3.326
98316SOL    HW296723   9.185   3.345   3.451
98317SOL     OW96724   8.632  10.714   5.912
98317SOL    HW196725   8.633  10.808   5.891
98317SOL    HW296726   8.576  10.675   5.845
98318SOL     OW96727   0.449  11.946   6.121
98318SOL    HW196728   0.471  11.880   6.055
98318SOL    HW296729   0.532  11.963   6.167
98319SOL     OW96730  10.569   9.827  10.711
98319SOL    HW196731  10.504   9.888  10.746
98319SOL    HW296732  10.642   9.883  10.685
98320SOL     OW96733   1.887   1.954   9.859
98320SOL    HW196734   1.808   1.980   9.905
98320SOL    HW296735   1.940   1.909   9.925
98321SOL     OW96736   2.174  10.179   0.504
98321SOL    HW196737   2.220  10.132   0.573
98321SOL    HW296738   2.186  10.272   0.526
98322SOL     OW96739  13.468   6.706  10.053
98322SOL    HW196740  13.416   6.785  10.041
98322SOL    HW296741  13.441   6.649   9.981
98323SOL     OW96742   9.033   3.022   2.067
98323SOL    HW196743   8.951   3.026   2.116
98323SOL    HW296744   9.070   2.936   2.087
98324SOL     OW96745   6.966  10.479   7.613
98324SOL    HW196746   6.997  10.550   7.670
98324SOL    HW296747   6.903  10.431   7.667
98325SOL     OW96748   3.781   5.556   8.618
98325SOL    HW196749   3.759   5.511   8.536
98325SOL    HW296750   3.861   5.605   8.597
98326SOL     OW96751   3.422   0.302   7.483
98326SOL    HW196752   3.476   0.371   7.523
98326SOL    HW296753   3.424   0.231   7.547
98327SOL     OW96754  11.377   3.367  13.541
98327SOL    HW196755  11.289   3.335  13.562
98327SOL    HW296756  11.383   3.452  13.586
98328SOL     OW96757   5.998  12.418   1.104
98328SOL    HW196758   6.058  12.429   1.177
98328SOL    HW296759   6.048  12.446   1.027
98329SOL     OW96760   5.609  14.715   4.974
98329SOL    HW196761   5.532  14.659   4.970
98329SOL    HW296762   5.679  14.659   5.007
98330SOL     OW96763  13.991   0.415  14.088
98330SOL    HW196764  13.911   0.376  14.124
98330SOL    HW296765  13.969   0.439  13.998
98331SOL     OW96766   4.790   4.655   3.002
98331SOL    HW196767   4.728   4.583   2.986
98331SOL    HW296768   4.770   4.720   2.935
98332SOL     OW96769  10.125   6.647   0.644
98332SOL    HW196770  10.057   6.654   0.711
98332SOL    HW296771  10.197   6.699   0.678
98333SOL     OW96772   0.460  13.221  12.554
98333SOL    HW196773   0.552  13.217  12.579
98333SOL    HW296774   0.433  13.310  12.576
98334SOL     OW96775   0.285   0.268   3.441
98334SOL    HW196776   0.309   0.281   3.532
98334SOL    HW296777   0.365   0.234   3.400
98335SOL     OW96778   5.924   5.308   9.679
98335SOL    HW196779   5.858   5.265   9.733
98335SOL    HW296780   5.917   5.265   9.594
98336SOL     OW96781  13.264  10.608   8.063
98336SOL    HW196782  13.260  10.557   7.982
98336SOL    HW296783  13.283  10.544   8.131
98337SOL     OW96784  13.654  11.654  10.353
98337SOL    HW196785  13.709  11.582  10.320
98337SOL    HW296786  13.645  11.635  10.447
98338SOL     OW96787   4.873  11.333  10.096
98338SOL    HW196788   4.853  11.323  10.002
98338SOL    HW296789   4.803  11.389  10.129
98339SOL     OW96790   5.010  14.460   3.050
98339SOL    HW196791   5.035  14.482   2.960
98339SOL    HW296792   5.091  14.471   3.100
98340SOL     OW96793  13.946  10.280   1.535
98340SOL    HW196794  13.870  10.303   1.588
98340SOL    HW296795  13.961  10.356   1.479
98341SOL     OW96796   9.406  14.594   7.055
98341SOL    HW196797   9.350  14.609   7.131
98341SOL    HW296798   9.492  14.626   7.082
98342SOL     OW96799  13.216   5.124  14.813
98342SOL    HW196800  13.292   5.160  14.859
98342SOL    HW296801  13.165   5.079   0.002
98343SOL     OW96802   6.149   5.375  10.686
98343SOL    HW196803   6.162   5.467  10.662
98343SOL    HW296804   6.066   5.351  10.647
98344SOL     OW96805   4.818   6.302   4.889
98344SOL    HW196806   4.785   6.389   4.913
98344SOL    HW296807   4.749   6.263   4.836
98345SOL     OW96808  14.241  12.171   5.153
98345SOL    HW196809  14.257  12.131   5.067
98345SOL    HW296810  14.147  12.192   5.153
98346SOL     OW96811   5.751   3.068  12.511
98346SOL    HW196812   5.829   3.120  12.492
98346SOL    HW296813   5.760   3.044  12.603
98347SOL     OW96814   6.803  11.546  12.691
98347SOL    HW196815   6.863  11.537  12.617
98347SOL    HW296816   6.815  11.466  12.742
98348SOL     OW96817   9.916  12.088  13.785
98348SOL    HW196818   9.910  12.182  13.768
98348SOL    HW296819   9.955  12.082  13.872
98349SOL     OW96820   2.521   7.485   9.386
98349SOL    HW196821   2.568   7.404   9.408
98349SOL    HW296822   2.438   7.455   9.350
98350SOL     OW96823   7.923   9.956  11.573
98350SOL    HW196824   8.003   9.971  11.624
98350SOL    HW296825   7.878  10.040  11.573
98351SOL     OW96826  10.075   5.953   9.934
98351SOL    HW196827  10.092   6.045   9.916
98351SOL    HW296828  10.092   5.909   9.850
98352SOL     OW96829   6.972  14.437   5.626
98352SOL    HW196830   6.879  14.418   5.636
98352SOL    HW296831   7.008  14.358   5.584
98353SOL     OW96832   5.643  13.969   9.325
98353SOL    HW196833   5.737  13.955   9.318
98353SOL    HW296834   5.634  14.044   9.384
98354SOL     OW96835   6.425   8.695   3.842
98354SOL    HW196836   6.483   8.698   3.766
98354SOL    HW296837   6.481   8.663   3.914
98355SOL     OW96838   0.761  11.342   6.848
98355SOL    HW196839   0.730  11.307   6.765
98355SOL    HW296840   0.766  11.265   6.906
98356SOL     OW96841   3.539  13.510  12.262
98356SOL    HW196842   3.492  13.575  12.314
98356SOL    HW296843   3.513  13.426  12.299
98357SOL     OW96844  11.636  10.998   4.163
98357SOL    HW196845  11.661  10.911   4.132
98357SOL    HW296846  11.578  11.032   4.094
98358SOL     OW96847   7.928   5.915  14.111
98358SOL    HW196848   7.996   5.916  14.044
98358SOL    HW296849   7.880   5.997  14.099
98359SOL     OW96850   9.071  13.738  13.782
98359SOL    HW196851   9.164  13.758  13.773
98359SOL    HW296852   9.061  13.651  13.744
98360SOL     OW96853   7.100  10.621  11.761
98360SOL    HW196854   7.177  10.677  11.753
98360SOL    HW296855   7.110  10.555  11.692
98361SOL     OW96856  12.036  14.562  13.762
98361SOL    HW196857  12.111  14.588  13.817
98361SOL    HW296858  12.057  14.598  13.676
98362SOL     OW96859  12.051  11.055  10.951
98362SOL    HW196860  12.104  10.975  10.950
98362SOL    HW296861  12.008  11.056  10.865
98363SOL     OW96862   6.458   7.719   6.594
98363SOL    HW196863   6.427   7.742   6.682
98363SOL    HW296864   6.421   7.786   6.537
98364SOL     OW96865   4.226   3.441   6.231
98364SOL    HW196866   4.303   3.435   6.287
98364SOL    HW296867   4.152   3.427   6.290
98365SOL     OW96868   8.091   4.864   0.638
98365SOL    HW196869   8.066   4.783   0.594
98365SOL    HW296870   8.119   4.837   0.725
98366SOL     OW96871  10.559  13.872   7.355
98366SOL    HW196872  10.644  13.912   7.336
98366SOL    HW296873  10.579  13.797   7.411
98367SOL     OW96874   4.522   6.055   1.414
98367SOL    HW196875   4.539   6.143   1.381
98367SOL    HW296876   4.491   6.006   1.337
98368SOL     OW96877  11.772  11.652  14.004
98368SOL    HW196878  11.710  11.595  13.959
98368SOL    HW296879  11.723  11.733  14.020
98369SOL     OW96880   6.969  10.351   6.152
98369SOL    HW196881   7.059  10.325   6.131
98369SOL    HW296882   6.973  10.375   6.245
98370SOL     OW96883   5.969   0.248   4.495
98370SOL    HW196884   5.943   0.158   4.513
98370SOL    HW296885   6.058   0.255   4.531
98371SOL     OW96886   3.731  12.324   6.353
98371SOL    HW196887   3.729  12.230   6.370
98371SOL    HW296888   3.645  12.342   6.315
98372SOL     OW96889   8.624   0.940   9.545
98372SOL    HW196890   8.577   0.880   9.603
98372SOL    HW296891   8.596   1.027   9.573
98373SOL     OW96892   1.981   8.792   9.461
98373SOL    HW196893   2.027   8.835   9.388
98373SOL    HW296894   1.889   8.799   9.437
98374SOL     OW96895   6.774   0.221   4.177
98374SOL    HW196896   6.711   0.251   4.243
98374SOL    HW296897   6.749   0.130   4.161
98375SOL     OW96898  12.475   7.955   6.109
98375SOL    HW196899  12.432   7.876   6.076
98375SOL    HW296900  12.404   8.008   6.144
98376SOL     OW96901  10.731   0.913   5.819
98376SOL    HW196902  10.678   0.933   5.896
98376SOL    HW296903  10.807   0.971   5.826
98377SOL     OW96904   7.807   6.398   9.326
98377SOL    HW196905   7.809   6.403   9.230
98377SOL    HW296906   7.762   6.478   9.353
98378SOL     OW96907   7.417  12.886   7.884
98378SOL    HW196908   7.462  12.843   7.812
98378SOL    HW296909   7.406  12.977   7.855
98379SOL     OW96910   9.993   9.679  10.805
98379SOL    HW196911   9.926   9.747  10.793
98379SOL    HW296912   9.960   9.626  10.877
98380SOL     OW96913   1.891  14.877   1.588
98380SOL    HW196914   1.947   0.007   1.666
98380SOL    HW296915   1.875   0.089   1.561
98381SOL     OW96916  12.442  13.421   5.773
98381SOL    HW196917  12.395  13.339   5.789
98381SOL    HW296918  12.418  13.446   5.684
98382SOL     OW96919   7.508  10.722   9.638
98382SOL    HW196920   7.602  10.724   9.621
98382SOL    HW296921   7.474  10.656   9.577
98383SOL     OW96922   3.696  12.583   1.029
98383SOL    HW196923   3.723  12.642   0.959
98383SOL    HW296924   3.630  12.632   1.077
98384SOL     OW96925  12.197  14.066   9.756
98384SOL    HW196926  12.120  14.012   9.738
98384SOL    HW296927  12.266  14.028   9.701
98385SOL     OW96928   8.000   9.143  13.586
98385SOL    HW196929   8.057   9.135  13.509
98385SOL    HW296930   8.043   9.088  13.652
98386SOL     OW96931   1.817   4.412  13.180
98386SOL    HW196932   1.884   4.347  13.203
98386SOL    HW296933   1.743   4.360  13.149
98387SOL     OW96934   9.170   3.020   3.296
98387SOL    HW196935   9.254   3.031   3.340
98387SOL    HW296936   9.190   2.965   3.220
98388SOL     OW96937  11.343  14.703   5.017
98388SOL    HW196938  11.376  14.625   4.972
98388SOL    HW296939  11.418  14.735   5.067
98389SOL     OW96940  12.916   3.596   5.431
98389SOL    HW196941  12.870   3.649   5.366
98389SOL    HW296942  12.847   3.563   5.488
98390SOL     OW96943   2.460   0.869   5.497
98390SOL    HW196944   2.404   0.829   5.430
98390SOL    HW296945   2.401   0.881   5.572
98391SOL     OW96946   3.860   3.470   2.919
98391SOL    HW196947   3.820   3.400   2.971
98391SOL    HW296948   3.786   3.525   2.893
98392SOL     OW96949   3.515   4.850   7.138
98392SOL    HW196950   3.532   4.798   7.216
98392SOL    HW296951   3.525   4.941   7.166
98393SOL     OW96952   6.665  12.540   9.264
98393SOL    HW196953   6.661  12.454   9.221
98393SOL    HW296954   6.674  12.603   9.193
98394SOL     OW96955   1.616   7.475  11.867
98394SOL    HW196956   1.592   7.433  11.785
98394SOL    HW296957   1.704   7.509  11.851
98395SOL     OW96958  11.952   8.244   1.784
98395SOL    HW196959  11.929   8.331   1.751
98395SOL    HW296960  11.982   8.261   1.874
98396SOL     OW96961   4.518   9.307   0.694
98396SOL    HW196962   4.523   9.317   0.599
98396SOL    HW296963   4.567   9.227   0.712
98397SOL     OW96964   6.850  13.332   5.739
98397SOL    HW196965   6.894  13.247   5.733
98397SOL    HW296966   6.855  13.355   5.832
98398SOL     OW96967   1.931   8.173  11.318
98398SOL    HW196968   2.010   8.212  11.356
98398SOL    HW296969   1.864   8.241  11.329
98399SOL     OW96970   5.371   9.973   4.520
98399SOL    HW196971   5.459   9.942   4.498
98399SOL    HW296972   5.314   9.900   4.498
98400SOL     OW96973   4.776   7.728   5.971
98400SOL    HW196974   4.704   7.719   5.909
98400SOL    HW296975   4.844   7.670   5.938
98401SOL     OW96976   5.169   0.237   0.958
98401SOL    HW196977   5.164   0.323   0.999
98401SOL    HW296978   5.259   0.230   0.926
98402SOL     OW96979   4.175   4.235  14.147
98402SOL    HW196980   4.245   4.278  14.196
98402SOL    HW296981   4.176   4.276  14.061
98403SOL     OW96982  10.182   1.109   9.810
98403SOL    HW196983  10.166   1.025   9.852
98403SOL    HW296984  10.204   1.087   9.720
98404SOL     OW96985  11.752   6.773   1.816
98404SOL    HW196986  11.812   6.834   1.858
98404SOL    HW296987  11.806   6.724   1.755
98405SOL     OW96988  14.386   1.235  12.491
98405SOL    HW196989  14.468   1.193  12.517
98405SOL    HW296990  14.409   1.285  12.413
98406SOL     OW96991  11.187   0.724   9.300
98406SOL    HW196992  11.185   0.636   9.263
98406SOL    HW296993  11.184   0.710   9.395
98407SOL     OW96994   6.601   8.506   6.827
98407SOL    HW196995   6.663   8.570   6.862
98407SOL    HW296996   6.542   8.558   6.772
98408SOL     OW96997   3.971   8.531  14.427
98408SOL    HW196998   4.048   8.509  14.376
98408SOL    HW296999   3.998   8.605  14.481
98409SOL     OW97000   3.220   5.162   5.274
98409SOL    HW197001   3.178   5.095   5.328
98409SOL    HW297002   3.312   5.159   5.300
98410SOL     OW97003   6.127  11.252   6.746
98410SOL    HW197004   6.152  11.241   6.654
98410SOL    HW297005   6.208  11.277   6.790
98411SOL     OW97006   1.006   0.579   1.061
98411SOL    HW197007   0.942   0.595   0.992
98411SOL    HW297008   1.000   0.655   1.118
98412SOL     OW97009   8.924  14.625   6.396
98412SOL    HW197010   8.918  14.644   6.490
98412SOL    HW297011   8.920  14.710   6.354
98413SOL     OW97012  14.512  13.782   3.967
98413SOL    HW197013  14.448  13.844   4.000
98413SOL    HW297014  14.584  13.785   4.029
98414SOL     OW97015  12.870   0.727  12.136
98414SOL    HW197016  12.785   0.691  12.164
98414SOL    HW297017  12.883   0.803  12.193
98415SOL     OW97018  13.852  12.622  11.943
98415SOL    HW197019  13.792  12.653  12.011
98415SOL    HW297020  13.880  12.702  11.898
98416SOL     OW97021  12.475   8.443   0.056
98416SOL    HW197022  12.396   8.497   0.069
98416SOL    HW297023  12.493   8.451  14.840
98417SOL     OW97024  11.310  10.172   0.681
98417SOL    HW197025  11.340  10.255   0.644
98417SOL    HW297026  11.224  10.158   0.641
98418SOL     OW97027   9.571  10.262   6.359
98418SOL    HW197028   9.493  10.307   6.326
98418SOL    HW297029   9.642  10.323   6.341
98419SOL     OW97030   1.229  11.608  12.717
98419SOL    HW197031   1.282  11.677  12.678
98419SOL    HW297032   1.292  11.546  12.753
98420SOL     OW97033  14.231   6.519   3.158
98420SOL    HW197034  14.245   6.530   3.064
98420SOL    HW297035  14.289   6.446   3.183
98421SOL     OW97036   8.594   2.167   0.969
98421SOL    HW197037   8.608   2.076   0.995
98421SOL    HW297038   8.622   2.218   1.045
98422SOL     OW97039   4.945   3.349   0.195
98422SOL    HW197040   4.921   3.263   0.161
98422SOL    HW297041   4.870   3.376   0.248
98423SOL     OW97042   3.756  10.084  13.622
98423SOL    HW197043   3.745  10.022  13.694
98423SOL    HW297044   3.777  10.029  13.546
98424SOL     OW97045  14.516  14.248   1.283
98424SOL    HW197046  14.478  14.273   1.367
98424SOL    HW297047  14.470  14.167   1.259
98425SOL     OW97048  12.575   6.444   9.200
98425SOL    HW197049  12.538   6.440   9.289
98425SOL    HW297050  12.668   6.458   9.214
98426SOL     OW97051  12.351   0.164  13.289
98426SOL    HW197052  12.361   0.253  13.255
98426SOL    HW297053  12.335   0.110  13.211
98427SOL     OW97054   7.984   9.887   9.672
98427SOL    HW197055   8.072   9.850   9.677
98427SOL    HW297056   7.989   9.968   9.724
98428SOL     OW97057   0.398   1.357   9.707
98428SOL    HW197058   0.466   1.409   9.749
98428SOL    HW297059   0.446   1.290   9.659
98429SOL     OW97060  13.550   7.661  10.051
98429SOL    HW197061  13.635   7.648  10.010
98429SOL    HW297062  13.487   7.644   9.980
98430SOL     OW97063  11.052   9.949   1.405
98430SOL    HW197064  11.069   9.864   1.363
98430SOL    HW297065  11.097   9.943   1.490
98431SOL     OW97066   4.093   0.863  11.844
98431SOL    HW197067   4.143   0.943  11.827
98431SOL    HW297068   4.015   0.894  11.890
98432SOL     OW97069  11.150  12.116   5.891
98432SOL    HW197070  11.169  12.041   5.948
98432SOL    HW297071  11.228  12.124   5.836
98433SOL     OW97072   6.548   4.496   4.602
98433SOL    HW197073   6.559   4.575   4.653
98433SOL    HW297074   6.586   4.427   4.655
98434SOL     OW97075  10.380  13.485   1.611
98434SOL    HW197076  10.468  13.492   1.647
98434SOL    HW297077  10.380  13.403   1.562
98435SOL     OW97078   0.449   4.417   8.592
98435SOL    HW197079   0.436   4.422   8.497
98435SOL    HW297080   0.503   4.339   8.604
98436SOL     OW97081   0.032   7.680   6.003
98436SOL    HW197082  14.814   7.685   6.010
98436SOL    HW297083   0.053   7.591   6.031
98437SOL     OW97084   4.078   4.860  10.414
98437SOL    HW197085   4.071   4.918  10.490
98437SOL    HW297086   4.138   4.905  10.355
98438SOL     OW97087   3.721   7.841  10.150
98438SOL    HW197088   3.795   7.813  10.096
98438SOL    HW297089   3.686   7.918  10.105
98439SOL     OW97090   5.376   7.984   1.397
98439SOL    HW197091   5.385   8.015   1.487
98439SOL    HW297092   5.408   7.894   1.400
98440SOL     OW97093  12.939   1.339   0.364
98440SOL    HW197094  13.007   1.341   0.297
98440SOL    HW297095  12.946   1.252   0.403
98441SOL     OW97096   9.726   5.387   6.031
98441SOL    HW197097   9.774   5.325   5.977
98441SOL    HW297098   9.788   5.457   6.049
98442SOL     OW97099   3.873  13.810  14.350
98442SOL    HW197100   3.804  13.780  14.290
98442SOL    HW297101   3.827  13.861  14.416
98443SOL     OW97102   1.996  12.481   9.259
98443SOL    HW197103   2.063  12.447   9.319
98443SOL    HW297104   2.029  12.460   9.171
98444SOL     OW97105   5.198   9.410   8.697
98444SOL    HW197106   5.104   9.416   8.712
98444SOL    HW297107   5.213   9.463   8.618
98445SOL     OW97108  10.099  10.068   4.532
98445SOL    HW197109  10.088   9.973   4.541
98445SOL    HW297110  10.106  10.082   4.437
98446SOL     OW97111   6.387   7.304   3.751
98446SOL    HW197112   6.346   7.255   3.681
98446SOL    HW297113   6.316   7.353   3.791
98447SOL     OW97114   5.386   1.660  13.975
98447SOL    HW197115   5.435   1.604  13.914
98447SOL    HW297116   5.344   1.599  14.035
98448SOL     OW97117   4.198   1.293   0.845
98448SOL    HW197118   4.113   1.256   0.820
98448SOL    HW297119   4.204   1.375   0.797
98449SOL     OW97120   7.520  12.376   6.478
98449SOL    HW197121   7.599  12.426   6.458
98449SOL    HW297122   7.550  12.309   6.540
98450SOL     OW97123   3.158   2.496  10.151
98450SOL    HW197124   3.194   2.441  10.220
98450SOL    HW297125   3.106   2.562  10.197
98451SOL     OW97126   8.067  14.239   3.755
98451SOL    HW197127   8.074  14.209   3.665
98451SOL    HW297128   8.154  14.270   3.777
98452SOL     OW97129   1.493   7.849   3.171
98452SOL    HW197130   1.422   7.872   3.111
98452SOL    HW297131   1.547   7.927   3.177
98453SOL     OW97132   1.205   1.989   1.972
98453SOL    HW197133   1.228   1.962   2.061
98453SOL    HW297134   1.245   1.923   1.916
98454SOL     OW97135  13.010  14.226   7.708
98454SOL    HW197136  13.052  14.298   7.754
98454SOL    HW297137  13.010  14.254   7.616
98455SOL     OW97138   8.768  12.419  10.940
98455SOL    HW197139   8.729  12.353  10.997
98455SOL    HW297140   8.697  12.446  10.882
98456SOL     OW97141   0.314   6.469   7.573
98456SOL    HW197142   0.351   6.541   7.522
98456SOL    HW297143   0.255   6.512   7.636
98457SOL     OW97144  11.738  14.788   8.279
98457SOL    HW197145  11.646  14.813   8.275
98457SOL    HW297146  11.783  14.867   8.309
98458SOL     OW97147   7.174   0.652  11.927
98458SOL    HW197148   7.265   0.664  11.898
98458SOL    HW297149   7.178   0.658  12.022
98459SOL     OW97150   2.983   6.742   9.804
98459SOL    HW197151   3.042   6.751   9.730
98459SOL    HW297152   3.016   6.804   9.869
98460SOL     OW97153   5.354   0.811  14.089
98460SOL    HW197154   5.345   0.746  14.020
98460SOL    HW297155   5.447   0.835  14.087
98461SOL     OW97156   2.799   8.253   3.430
98461SOL    HW197157   2.877   8.200   3.451
98461SOL    HW297158   2.805   8.266   3.335
98462SOL     OW97159  11.486   3.138  14.337
98462SOL    HW197160  11.491   3.198  14.412
98462SOL    HW297161  11.454   3.056  14.374
98463SOL     OW97162  12.312   7.895   0.400
98463SOL    HW197163  12.363   7.863   0.474
98463SOL    HW297164  12.314   7.990   0.408
98464SOL     OW97165  13.668   0.821  13.118
98464SOL    HW197166  13.727   0.793  13.047
98464SOL    HW297167  13.580   0.815  13.080
98465SOL     OW97168  14.627  11.128  14.095
98465SOL    HW197169  14.584  11.213  14.097
98465SOL    HW297170  14.677  11.123  14.176
98466SOL     OW97171   8.155  10.167   9.523
98466SOL    HW197172   8.224  10.229   9.547
98466SOL    HW297173   8.201  10.093   9.485
98467SOL     OW97174   2.007  14.304   5.295
98467SOL    HW197175   1.949  14.229   5.283
98467SOL    HW297176   2.094  14.265   5.306
98468SOL     OW97177   2.588   3.886  13.065
98468SOL    HW197178   2.621   3.800  13.038
98468SOL    HW297179   2.657   3.921  13.121
98469SOL     OW97180  14.125   4.032   9.726
98469SOL    HW197181  14.161   4.010   9.640
98469SOL    HW297182  14.097   3.948   9.763
98470SOL     OW97183   9.653  11.130  11.816
98470SOL    HW197184   9.736  11.126  11.768
98470SOL    HW297185   9.647  11.045  11.860
98471SOL     OW97186   9.042   2.010   8.750
98471SOL    HW197187   9.128   2.046   8.770
98471SOL    HW297188   8.984   2.086   8.753
98472SOL     OW97189   9.678   5.265  10.029
98472SOL    HW197190   9.646   5.333  10.088
98472SOL    HW297191   9.599   5.232   9.986
98473SOL     OW97192   5.310   4.318   7.612
98473SOL    HW197193   5.315   4.293   7.704
98473SOL    HW297194   5.240   4.263   7.576
98474SOL     OW97195  10.623  11.050   5.365
98474SOL    HW197196  10.662  10.971   5.402
98474SOL    HW297197  10.640  11.043   5.271
98475SOL     OW97198   6.377   3.229  13.739
98475SOL    HW197199   6.380   3.217  13.644
98475SOL    HW297200   6.455   3.185  13.772
98476SOL     OW97201   1.231  13.958   7.219
98476SOL    HW197202   1.264  13.929   7.304
98476SOL    HW297203   1.290  14.028   7.192
98477SOL     OW97204   0.487   9.170   0.062
98477SOL    HW197205   0.497   9.154   0.156
98477SOL    HW297206   0.571   9.209   0.035
98478SOL     OW97207  14.598   7.843   3.354
98478SOL    HW197208  14.528   7.906   3.337
98478SOL    HW297209  14.568   7.794   3.431
98479SOL     OW97210  13.717  11.266   6.672
98479SOL    HW197211  13.777  11.244   6.744
98479SOL    HW297212  13.766  11.328   6.619
98480SOL     OW97213   6.235   3.910   6.658
98480SOL    HW197214   6.321   3.933   6.624
98480SOL    HW297215   6.244   3.821   6.689
98481SOL     OW97216   1.394   9.008   0.565
98481SOL    HW197217   1.358   8.963   0.489
98481SOL    HW297218   1.409   8.938   0.629
98482SOL     OW97219   5.699   3.610   7.520
98482SOL    HW197220   5.687   3.619   7.615
98482SOL    HW297221   5.700   3.701   7.488
98483SOL     OW97222   8.187  10.512   0.180
98483SOL    HW197223   8.266  10.459   0.170
98483SOL    HW297224   8.142  10.474   0.256
98484SOL     OW97225  14.459   9.816  11.968
98484SOL    HW197226  14.402   9.770  11.907
98484SOL    HW297227  14.488   9.747  12.029
98485SOL     OW97228   6.082   2.396   8.205
98485SOL    HW197229   6.124   2.365   8.124
98485SOL    HW297230   6.119   2.483   8.218
98486SOL     OW97231   4.632  14.569   5.079
98486SOL    HW197232   4.696  14.525   5.023
98486SOL    HW297233   4.547  14.544   5.043
98487SOL     OW97234  13.099   9.585   5.116
98487SOL    HW197235  13.092   9.514   5.053
98487SOL    HW297236  13.151   9.652   5.071
98488SOL     OW97237  14.473   9.617   0.779
98488SOL    HW197238  14.549   9.674   0.770
98488SOL    HW297239  14.426   9.626   0.695
98489SOL     OW97240  10.291   4.603   9.266
98489SOL    HW197241  10.315   4.617   9.174
98489SOL    HW297242  10.314   4.684   9.310
98490SOL     OW97243   8.692   4.032  11.145
98490SOL    HW197244   8.687   4.124  11.121
98490SOL    HW297245   8.614   4.018  11.200
98491SOL     OW97246   3.820  12.137   2.701
98491SOL    HW197247   3.780  12.092   2.627
98491SOL    HW297248   3.912  12.146   2.676
98492SOL     OW97249   0.297   6.711   7.921
98492SOL    HW197250   0.235   6.780   7.944
98492SOL    HW297251   0.354   6.752   7.855
98493SOL     OW97252   0.877   8.872   0.391
98493SOL    HW197253   0.835   8.830   0.465
98493SOL    HW297254   0.958   8.910   0.427
98494SOL     OW97255  12.521   6.558   8.730
98494SOL    HW197256  12.562   6.514   8.805
98494SOL    HW297257  12.460   6.620   8.770
98495SOL     OW97258   1.282   1.239  11.689
98495SOL    HW197259   1.305   1.309  11.751
98495SOL    HW297260   1.286   1.280  11.603
98496SOL     OW97261   1.202   5.823  12.554
98496SOL    HW197262   1.263   5.760  12.515
98496SOL    HW297263   1.224   5.823  12.647
98497SOL     OW97264   0.973   1.124   9.118
98497SOL    HW197265   0.928   1.049   9.079
98497SOL    HW297266   1.062   1.120   9.084
98498SOL     OW97267   7.472   6.357   8.388
98498SOL    HW197268   7.382   6.352   8.357
98498SOL    HW297269   7.511   6.274   8.362
98499SOL     OW97270  13.200   9.582   7.241
98499SOL    HW197271  13.164   9.658   7.287
98499SOL    HW297272  13.161   9.586   7.154
98500SOL     OW97273  11.273   3.836   8.397
98500SOL    HW197274  11.229   3.801   8.319
98500SOL    HW297275  11.318   3.761   8.434
98501SOL     OW97276   5.452   1.039  11.450
98501SOL    HW197277   5.544   1.043  11.424
98501SOL    HW297278   5.408   0.997  11.376
98502SOL     OW97279   1.557  14.072   7.802
98502SOL    HW197280   1.515  14.122   7.873
98502SOL    HW297281   1.544  13.981   7.827
98503SOL     OW97282   7.020   5.052  13.885
98503SOL    HW197283   7.059   5.086  13.966
98503SOL    HW297284   7.096   5.030  13.831
98504SOL     OW97285  10.591   9.905   0.625
98504SOL    HW197286  10.502   9.871   0.621
98504SOL    HW297287  10.626   9.872   0.708
98505SOL     OW97288   7.614   3.070  10.597
98505SOL    HW197289   7.638   3.160  10.617
98505SOL    HW297290   7.551   3.046  10.665
98506SOL     OW97291   3.876   5.710   6.186
98506SOL    HW197292   3.823   5.691   6.109
98506SOL    HW297293   3.957   5.748   6.151
98507SOL     OW97294   3.897   0.871   1.497
98507SOL    HW197295   3.830   0.803   1.494
98507SOL    HW297296   3.979   0.826   1.477
98508SOL     OW97297  10.085   5.047   3.025
98508SOL    HW197298  10.179   5.054   3.043
98508SOL    HW297299  10.043   5.093   3.098
98509SOL     OW97300   0.744   5.131   9.168
98509SOL    HW197301   0.806   5.127   9.241
98509SOL    HW297302   0.757   5.217   9.129
98510SOL     OW97303  13.014  12.392   9.047
98510SOL    HW197304  13.081  12.323   9.038
98510SOL    HW297305  12.984  12.408   8.958
98511SOL     OW97306   3.673   1.038   7.805
98511SOL    HW197307   3.720   1.018   7.724
98511SOL    HW297308   3.620   0.960   7.822
98512SOL     OW97309   1.217   0.133   4.060
98512SOL    HW197310   1.284   0.191   4.023
98512SOL    HW297311   1.265   0.077   4.121
98513SOL     OW97312   8.240   0.141   4.193
98513SOL    HW197313   8.199   0.227   4.193
98513SOL    HW297314   8.200   0.096   4.267
98514SOL     OW97315  10.309   8.921   5.104
98514SOL    HW197316  10.215   8.921   5.119
98514SOL    HW297317  10.323   8.855   5.037
98515SOL     OW97318   8.454   3.127   6.369
98515SOL    HW197319   8.481   3.130   6.278
98515SOL    HW297320   8.365   3.163   6.369
98516SOL     OW97321   8.211  14.065  14.451
98516SOL    HW197322   8.142  14.050  14.386
98516SOL    HW297323   8.273  13.994  14.437
98517SOL     OW97324   1.655  10.839   4.647
98517SOL    HW197325   1.699  10.760   4.615
98517SOL    HW297326   1.634  10.889   4.567
98518SOL     OW97327   4.806   1.723  10.438
98518SOL    HW197328   4.774   1.805  10.401
98518SOL    HW297329   4.883   1.702  10.386
98519SOL     OW97330   4.239   2.758  14.344
98519SOL    HW197331   4.305   2.693  14.369
98519SOL    HW297332   4.158   2.727  14.384
98520SOL     OW97333  12.133  14.841   8.680
98520SOL    HW197334  12.095   0.022   8.745
98520SOL    HW297335  12.075  14.765   8.680
98521SOL     OW97336   2.000   4.738  14.542
98521SOL    HW197337   1.960   4.671  14.486
98521SOL    HW297338   1.928   4.798  14.561
98522SOL     OW97339   2.986   0.592   0.531
98522SOL    HW197340   3.007   0.498   0.528
98522SOL    HW297341   3.016   0.626   0.446
98523SOL     OW97342   3.453   6.826   8.811
98523SOL    HW197343   3.377   6.880   8.832
98523SOL    HW297344   3.527   6.887   8.814
98524SOL     OW97345   9.283  12.622  13.342
98524SOL    HW197346   9.267  12.528  13.346
98524SOL    HW297347   9.292  12.649  13.434
98525SOL     OW97348   1.747   4.409   3.988
98525SOL    HW197349   1.741   4.489   3.935
98525SOL    HW297350   1.760   4.442   4.078
98526SOL     OW97351   0.278  13.863  10.164
98526SOL    HW197352   0.251  13.876  10.073
98526SOL    HW297353   0.257  13.946  10.207
98527SOL     OW97354   4.518   2.982   0.307
98527SOL    HW197355   4.602   2.943   0.332
98527SOL    HW297356   4.456   2.909   0.313
98528SOL     OW97357   1.697  11.184  13.861
98528SOL    HW197358   1.722  11.228  13.780
98528SOL    HW297359   1.658  11.102  13.833
98529SOL     OW97360   7.128   9.148  14.320
98529SOL    HW197361   7.216   9.114  14.303
98529SOL    HW297362   7.139   9.243  14.326
98530SOL     OW97363   0.467   3.809   9.989
98530SOL    HW197364   0.502   3.841  10.072
98530SOL    HW297365   0.543   3.778   9.941
98531SOL     OW97366  10.999   9.387  10.100
98531SOL    HW197367  11.034   9.412  10.185
98531SOL    HW297368  11.041   9.303  10.080
98532SOL     OW97369   4.583   9.434  12.969
98532SOL    HW197370   4.657   9.438  13.030
98532SOL    HW297371   4.552   9.525  12.964
98533SOL     OW97372   6.255  14.268   5.388
98533SOL    HW197373   6.191  14.337   5.408
98533SOL    HW297374   6.234  14.241   5.299
98534SOL     OW97375   1.194   9.806   4.972
98534SOL    HW197376   1.152   9.720   4.973
98534SOL    HW297377   1.152   9.854   5.044
98535SOL     OW97378  11.388  13.442   8.496
98535SOL    HW197379  11.294  13.439   8.476
98535SOL    HW297380  11.397  13.521   8.550
98536SOL     OW97381  13.592   4.505  14.532
98536SOL    HW197382  13.546   4.455  14.465
98536SOL    HW297383  13.548   4.590  14.532
98537SOL     OW97384   9.463  14.098   2.981
98537SOL    HW197385   9.430  14.017   2.942
98537SOL    HW297386   9.398  14.122   3.047
98538SOL     OW97387   0.986   6.303   7.919
98538SOL    HW197388   1.079   6.320   7.933
98538SOL    HW297389   0.948   6.306   8.007
98539SOL     OW97390   3.553  12.554   8.453
98539SOL    HW197391   3.494  12.609   8.401
98539SOL    HW297392   3.495  12.487   8.490
98540SOL     OW97393  11.018  10.915   8.792
98540SOL    HW197394  11.014  10.987   8.855
98540SOL    HW297395  11.099  10.869   8.813
98541SOL     OW97396  12.572  11.164   0.889
98541SOL    HW197397  12.558  11.220   0.813
98541SOL    HW297398  12.505  11.095   0.881
98542SOL     OW97399  12.167   0.652   6.222
98542SOL    HW197400  12.260   0.632   6.207
98542SOL    HW297401  12.132   0.671   6.135
98543SOL     OW97402  12.625   8.031  11.650
98543SOL    HW197403  12.711   8.002  11.620
98543SOL    HW297404  12.637   8.049  11.743
98544SOL     OW97405   1.280  13.687  14.356
98544SOL    HW197406   1.199  13.726  14.322
98544SOL    HW297407   1.273  13.698  14.451
98545SOL     OW97408  13.042  14.502   9.936
98545SOL    HW197409  12.997  14.509   9.851
98545SOL    HW297410  13.072  14.591   9.954
98546SOL     OW97411   3.128   7.870   1.470
98546SOL    HW197412   3.142   7.949   1.523
98546SOL    HW297413   3.088   7.902   1.389
98547SOL     OW97414   7.840   4.154   9.570
98547SOL    HW197415   7.860   4.071   9.526
98547SOL    HW297416   7.919   4.208   9.558
98548SOL     OW97417   5.666   0.228  10.016
98548SOL    HW197418   5.581   0.187  10.001
98548SOL    HW297419   5.698   0.250   9.929
98549SOL     OW97420  11.464  11.303  10.073
98549SOL    HW197421  11.375  11.323  10.044
98549SOL    HW297422  11.452  11.248  10.150
98550SOL     OW97423   9.363   2.124   8.653
98550SOL    HW197424   9.337   2.047   8.604
98550SOL    HW297425   9.459   2.125   8.648
98551SOL     OW97426   1.057   1.133   3.869
98551SOL    HW197427   1.150   1.153   3.878
98551SOL    HW297428   1.053   1.065   3.802
98552SOL     OW97429   4.130   0.181  14.384
98552SOL    HW197430   4.132   0.102  14.329
98552SOL    HW297431   4.191   0.241  14.341
98553SOL     OW97432   0.449   7.520  14.686
98553SOL    HW197433   0.499   7.439  14.697
98553SOL    HW297434   0.406   7.509  14.601
98554SOL     OW97435  12.885   7.230   4.233
98554SOL    HW197436  12.949   7.162   4.215
98554SOL    HW297437  12.935   7.311   4.235
98555SOL     OW97438   8.983  13.389   0.099
98555SOL    HW197439   9.025  13.356   0.019
98555SOL    HW297440   9.056  13.408   0.158
98556SOL     OW97441   3.820   0.231  10.906
98556SOL    HW197442   3.798   0.260  10.817
98556SOL    HW297443   3.794   0.139  10.908
98557SOL     OW97444   8.032   0.498   2.947
98557SOL    HW197445   8.013   0.590   2.927
98557SOL    HW297446   8.061   0.500   3.038
98558SOL     OW97447   3.957  10.307   7.441
98558SOL    HW197448   3.894  10.253   7.488
98558SOL    HW297449   3.987  10.372   7.505
98559SOL     OW97450   1.064   5.043  10.417
98559SOL    HW197451   0.982   5.046  10.368
98559SOL    HW297452   1.114   5.119  10.385
98560SOL     OW97453   2.957  14.204   0.714
98560SOL    HW197454   2.905  14.271   0.758
98560SOL    HW297455   2.966  14.236   0.624
98561SOL     OW97456   1.907   4.068   0.459
98561SOL    HW197457   1.992   4.106   0.433
98561SOL    HW297458   1.928   4.009   0.531
98562SOL     OW97459   8.724   1.227   5.177
98562SOL    HW197460   8.738   1.243   5.270
98562SOL    HW297461   8.697   1.311   5.142
98563SOL     OW97462   8.066  14.476   3.547
98563SOL    HW197463   8.044  14.561   3.510
98563SOL    HW297464   8.082  14.493   3.639
98564SOL     OW97465   4.696   7.842   8.364
98564SOL    HW197466   4.664   7.910   8.305
98564SOL    HW297467   4.786   7.826   8.337
98565SOL     OW97468   7.916   0.674   9.732
98565SOL    HW197469   7.847   0.692   9.669
98565SOL    HW297470   7.945   0.760   9.762
98566SOL     OW97471  10.500   6.803   5.755
98566SOL    HW197472  10.418   6.845   5.731
98566SOL    HW297473  10.492   6.787   5.850
98567SOL     OW97474   4.359   7.989   2.201
98567SOL    HW197475   4.323   7.952   2.120
98567SOL    HW297476   4.284   7.989   2.262
98568SOL     OW97477   6.124   8.786  13.401
98568SOL    HW197478   6.217   8.799  13.386
98568SOL    HW297479   6.084   8.870  13.381
98569SOL     OW97480   1.790  11.275  12.418
98569SOL    HW197481   1.831  11.308  12.498
98569SOL    HW297482   1.783  11.352  12.362
98570SOL     OW97483   5.704   5.392   6.156
98570SOL    HW197484   5.749   5.389   6.241
98570SOL    HW297485   5.732   5.312   6.112
98571SOL     OW97486  12.531  11.579  13.423
98571SOL    HW197487  12.613  11.542  13.391
98571SOL    HW297488  12.539  11.673  13.406
98572SOL     OW97489  12.373  10.276  12.333
98572SOL    HW197490  12.334  10.191  12.353
98572SOL    HW297491  12.375  10.280  12.237
98573SOL     OW97492   7.313  12.675  10.021
98573SOL    HW197493   7.257  12.726   9.963
98573SOL    HW297494   7.334  12.596   9.971
98574SOL     OW97495  12.997   2.579   3.495
98574SOL    HW197496  13.008   2.499   3.547
98574SOL    HW297497  12.914   2.616   3.525
98575SOL     OW97498  12.839   6.794   5.711
98575SOL    HW197499  12.879   6.778   5.626
98575SOL    HW297500  12.748   6.766   5.701
98576SOL     OW97501   9.243   8.179  10.538
98576SOL    HW197502   9.195   8.261  10.525
98576SOL    HW297503   9.298   8.195  10.615
98577SOL     OW97504   4.287  10.088   8.402
98577SOL    HW197505   4.295  10.001   8.439
98577SOL    HW297506   4.273  10.074   8.308
98578SOL     OW97507  10.488  10.767   6.629
98578SOL    HW197508  10.405  10.799   6.593
98578SOL    HW297509  10.497  10.679   6.593
98579SOL     OW97510  13.043   8.848   3.984
98579SOL    HW197511  12.986   8.860   3.908
98579SOL    HW297512  13.103   8.778   3.959
98580SOL     OW97513  14.138   3.218   5.304
98580SOL    HW197514  14.224   3.205   5.343
98580SOL    HW297515  14.133   3.152   5.235
98581SOL     OW97516   1.108   8.179   1.027
98581SOL    HW197517   1.021   8.186   0.986
98581SOL    HW297518   1.089   8.170   1.121
98582SOL     OW97519   8.848   9.599   8.093
98582SOL    HW197520   8.907   9.605   8.019
98582SOL    HW297521   8.785   9.670   8.079
98583SOL     OW97522   9.554   9.987   5.568
98583SOL    HW197523   9.641   9.948   5.573
98583SOL    HW297524   9.556  10.041   5.489
98584SOL     OW97525  11.701   2.669   4.675
98584SOL    HW197526  11.706   2.683   4.581
98584SOL    HW297527  11.691   2.757   4.712
98585SOL     OW97528   8.081  12.062  13.983
98585SOL    HW197529   8.164  12.058  13.936
98585SOL    HW297530   8.100  12.026  14.070
98586SOL     OW97531  10.870   5.116   4.561
98586SOL    HW197532  10.785   5.161   4.556
98586SOL    HW297533  10.923   5.171   4.618
98587SOL     OW97534  12.152  10.741   9.903
98587SOL    HW197535  12.234  10.758   9.857
98587SOL    HW297536  12.108  10.675   9.850
98588SOL     OW97537   2.177  14.393  14.875
98588SOL    HW197538   2.104  14.347   0.039
98588SOL    HW297539   2.238  14.323  14.850
98589SOL     OW97540   3.965  11.885   4.154
98589SOL    HW197541   4.007  11.945   4.092
98589SOL    HW297542   3.976  11.798   4.115
98590SOL     OW97543  13.359  13.722   9.079
98590SOL    HW197544  13.364  13.626   9.072
98590SOL    HW297545  13.286  13.747   9.022
98591SOL     OW97546   7.408   6.119   0.271
98591SOL    HW197547   7.463   6.178   0.323
98591SOL    HW297548   7.341   6.176   0.233
98592SOL     OW97549   7.221   6.970  10.923
98592SOL    HW197550   7.168   7.047  10.901
98592SOL    HW297551   7.247   6.933  10.838
98593SOL     OW97552   5.441   3.530   4.055
98593SOL    HW197553   5.443   3.622   4.082
98593SOL    HW297554   5.511   3.523   3.990
98594SOL     OW97555   9.320  13.263   4.626
98594SOL    HW197556   9.337  13.308   4.709
98594SOL    HW297557   9.271  13.185   4.650
98595SOL     OW97558  12.045   1.523   8.132
98595SOL    HW197559  12.122   1.496   8.082
98595SOL    HW297560  12.058   1.483   8.218
98596SOL     OW97561   5.134   3.398  13.065
98596SOL    HW197562   5.045   3.389  13.031
98596SOL    HW297563   5.134   3.481  13.112
98597SOL     OW97564   5.259   2.890  11.094
98597SOL    HW197565   5.181   2.921  11.048
98597SOL    HW297566   5.226   2.851  11.175
98598SOL     OW97567   0.777   6.405  11.710
98598SOL    HW197568   0.802   6.374  11.797
98598SOL    HW297569   0.851   6.460  11.682
98599SOL     OW97570   0.299   3.109   6.961
98599SOL    HW197571   0.260   3.033   6.916
98599SOL    HW297572   0.314   3.078   7.051
98600SOL     OW97573   1.519   2.668  11.082
98600SOL    HW197574   1.572   2.617  11.142
98600SOL    HW297575   1.561   2.754  11.079
98601SOL     OW97576   8.921   4.219   3.473
98601SOL    HW197577   8.852   4.273   3.434
98601SOL    HW297578   9.002   4.267   3.456
98602SOL     OW97579   8.542   4.803   6.417
98602SOL    HW197580   8.446   4.806   6.413
98602SOL    HW297581   8.563   4.710   6.418
98603SOL     OW97582   2.265   5.509  11.720
98603SOL    HW197583   2.292   5.529  11.630
98603SOL    HW297584   2.262   5.595  11.763
98604SOL     OW97585  14.298   3.961   1.892
98604SOL    HW197586  14.232   3.900   1.862
98604SOL    HW297587  14.349   3.983   1.814
98605SOL     OW97588  11.903  10.638  12.221
98605SOL    HW197589  11.860  10.719  12.194
98605SOL    HW297590  11.994  10.662  12.236
98606SOL     OW97591   3.876   0.871   7.289
98606SOL    HW197592   3.810   0.855   7.221
98606SOL    HW297593   3.923   0.788   7.296
98607SOL     OW97594  13.954   5.010   1.695
98607SOL    HW197595  13.894   4.943   1.727
98607SOL    HW297596  13.991   4.972   1.615
98608SOL     OW97597   3.381  12.445   0.018
98608SOL    HW197598   3.301  12.405  14.861
98608SOL    HW297599   3.451  12.385  14.870
98609SOL     OW97600  13.002   0.489   6.437
98609SOL    HW197601  12.909   0.490   6.413
98609SOL    HW297602  13.046   0.527   6.361
98610SOL     OW97603  13.762   2.775   6.622
98610SOL    HW197604  13.718   2.756   6.705
98610SOL    HW297605  13.794   2.690   6.591
98611SOL     OW97606  14.791  12.555   4.727
98611SOL    HW197607  14.766  12.477   4.677
98611SOL    HW297608  14.849  12.604   4.669
98612SOL     OW97609  10.262   2.029  11.758
98612SOL    HW197610  10.340   2.059  11.711
98612SOL    HW297611  10.198   2.099  11.745
98613SOL     OW97612   8.973   5.065   3.438
98613SOL    HW197613   9.008   5.079   3.350
98613SOL    HW297614   8.898   5.008   3.425
98614SOL     OW97615  14.838  14.665  10.290
98614SOL    HW197616  14.784  14.588  10.309
98614SOL    HW297617  14.806  14.732  10.350
98615SOL     OW97618   6.873   4.138   7.499
98615SOL    HW197619   6.945   4.139   7.562
98615SOL    HW297620   6.864   4.046   7.474
98616SOL     OW97621   4.728  13.122   7.867
98616SOL    HW197622   4.760  13.141   7.955
98616SOL    HW297623   4.725  13.027   7.861
98617SOL     OW97624   1.013  11.103   4.881
98617SOL    HW197625   1.079  11.060   4.825
98617SOL    HW297626   1.027  11.196   4.867
98618SOL     OW97627   3.489  12.406  11.113
98618SOL    HW197628   3.569  12.453  11.087
98618SOL    HW297629   3.425  12.475  11.128
98619SOL     OW97630  13.114   6.044   9.340
98619SOL    HW197631  13.165   6.031   9.260
98619SOL    HW297632  13.024   6.058   9.308
98620SOL     OW97633  13.750   8.944  10.619
98620SOL    HW197634  13.695   9.015  10.652
98620SOL    HW297635  13.702   8.865  10.640
98621SOL     OW97636   7.128   1.864   4.334
98621SOL    HW197637   7.048   1.839   4.380
98621SOL    HW297638   7.112   1.840   4.243
98622SOL     OW97639   4.843   2.416   9.844
98622SOL    HW197640   4.851   2.403   9.939
98622SOL    HW297641   4.853   2.511   9.832
98623SOL     OW97642   9.264   1.096  14.004
98623SOL    HW197643   9.339   1.147  14.034
98623SOL    HW297644   9.285   1.006  14.028
98624SOL     OW97645   8.740  14.161   5.348
98624SOL    HW197646   8.825  14.183   5.311
98624SOL    HW297647   8.758  14.087   5.407
98625SOL     OW97648  10.220  10.408   2.001
98625SOL    HW197649  10.129  10.435   1.995
98625SOL    HW297650  10.266  10.485   2.035
98626SOL     OW97651   7.535   1.766   8.714
98626SOL    HW197652   7.549   1.714   8.794
98626SOL    HW297653   7.618   1.811   8.699
98627SOL     OW97654  14.269   7.595   8.743
98627SOL    HW197655  14.199   7.576   8.681
98627SOL    HW297656  14.225   7.639   8.817
98628SOL     OW97657  12.439   7.715   2.455
98628SOL    HW197658  12.510   7.775   2.436
98628SOL    HW297659  12.449   7.644   2.391
98629SOL     OW97660  14.054   0.562  12.327
98629SOL    HW197661  13.974   0.547  12.378
98629SOL    HW297662  14.122   0.576  12.393
98630SOL     OW97663  14.417  14.019   6.517
98630SOL    HW197664  14.446  13.934   6.485
98630SOL    HW297665  14.472  14.083   6.471
98631SOL     OW97666   5.926   2.554   2.783
98631SOL    HW197667   5.907   2.594   2.868
98631SOL    HW297668   5.844   2.511   2.759
98632SOL     OW97669   3.224  10.090   6.406
98632SOL    HW197670   3.220  10.131   6.492
98632SOL    HW297671   3.182  10.005   6.417
98633SOL     OW97672  14.694   9.359   6.173
98633SOL    HW197673  14.772   9.303   6.183
98633SOL    HW297674  14.715   9.438   6.223
98634SOL     OW97675   3.356   9.602  13.004
98634SOL    HW197676   3.432   9.586  13.061
98634SOL    HW297677   3.299   9.527  13.019
98635SOL     OW97678   1.154   3.006   5.126
98635SOL    HW197679   1.209   3.079   5.098
98635SOL    HW297680   1.127   3.029   5.215
98636SOL     OW97681  13.863   3.165   0.117
98636SOL    HW197682  13.944   3.121   0.092
98636SOL    HW297683  13.794   3.101   0.099
98637SOL     OW97684  10.250   6.668   7.487
98637SOL    HW197685  10.200   6.652   7.407
98637SOL    HW297686  10.212   6.609   7.552
98638SOL     OW97687   9.063   4.434   2.655
98638SOL    HW197688   8.971   4.438   2.628
98638SOL    HW297689   9.112   4.432   2.573
98639SOL     OW97690  10.637   9.387  10.758
98639SOL    HW197691  10.621   9.307  10.708
98639SOL    HW297692  10.714   9.367  10.812
98640SOL     OW97693  12.851   3.196  13.325
98640SOL    HW197694  12.826   3.194  13.417
98640SOL    HW297695  12.769   3.181  13.277
98641SOL     OW97696   3.973   7.705   4.782
98641SOL    HW197697   3.925   7.712   4.700
98641SOL    HW297698   4.058   7.668   4.758
98642SOL     OW97699  12.235   7.179   2.236
98642SOL    HW197700  12.167   7.145   2.178
98642SOL    HW297701  12.199   7.261   2.269
98643SOL     OW97702  11.221   8.737   5.212
98643SOL    HW197703  11.293   8.749   5.150
98643SOL    HW297704  11.262   8.695   5.288
98644SOL     OW97705   5.046   6.912  12.472
98644SOL    HW197706   5.035   6.969  12.549
98644SOL    HW297707   5.024   6.967  12.398
98645SOL     OW97708   3.034   0.845   8.347
98645SOL    HW197709   3.001   0.798   8.424
98645SOL    HW297710   2.997   0.798   8.273
98646SOL     OW97711   6.608  11.172   6.608
98646SOL    HW197712   6.688  11.219   6.628
98646SOL    HW297713   6.576  11.211   6.527
98647SOL     OW97714   5.937  11.942  12.802
98647SOL    HW197715   5.891  12.005  12.857
98647SOL    HW297716   5.918  11.857  12.842
98648SOL     OW97717   4.993   2.524   6.915
98648SOL    HW197718   5.039   2.446   6.885
98648SOL    HW297719   4.980   2.576   6.836
98649SOL     OW97720   6.366  11.898   6.005
98649SOL    HW197721   6.315  11.976   6.027
98649SOL    HW297722   6.445  11.905   6.058
98650SOL     OW97723  11.067   3.621   1.585
98650SOL    HW197724  11.119   3.697   1.556
98650SOL    HW297725  11.106   3.597   1.669
98651SOL     OW97726  12.804   9.602  13.144
98651SOL    HW197727  12.825   9.609  13.051
98651SOL    HW297728  12.887   9.619  13.188
98652SOL     OW97729   3.964   1.418  14.845
98652SOL    HW197730   3.996   1.356   0.033
98652SOL    HW297731   3.970   1.370  14.762
98653SOL     OW97732   2.916   7.034   7.528
98653SOL    HW197733   2.862   7.091   7.582
98653SOL    HW297734   2.993   7.088   7.507
98654SOL     OW97735   9.981   3.132   5.450
98654SOL    HW197736  10.062   3.094   5.486
98654SOL    HW297737   9.984   3.112   5.357
98655SOL     OW97738  11.275   9.980   8.353
98655SOL    HW197739  11.257  10.039   8.280
98655SOL    HW297740  11.250  10.029   8.431
98656SOL     OW97741   4.594   1.677  12.388
98656SOL    HW197742   4.553   1.640  12.466
98656SOL    HW297743   4.531   1.660  12.317
98657SOL     OW97744  14.096   6.828   7.609
98657SOL    HW197745  14.164   6.794   7.551
98657SOL    HW297746  14.133   6.821   7.697
98658SOL     OW97747  11.530  13.789   9.074
98658SOL    HW197748  11.611  13.815   9.029
98658SOL    HW297749  11.534  13.836   9.157
98659SOL     OW97750   0.805  10.484   1.595
98659SOL    HW197751   0.748  10.503   1.669
98659SOL    HW297752   0.776  10.398   1.565
98660SOL     OW97753   1.447  11.811   4.682
98660SOL    HW197754   1.450  11.759   4.763
98660SOL    HW297755   1.375  11.872   4.696
98661SOL     OW97756   7.042   8.530   6.313
98661SOL    HW197757   7.004   8.586   6.381
98661SOL    HW297758   7.077   8.455   6.360
98662SOL     OW97759   2.675   4.762   0.651
98662SOL    HW197760   2.765   4.784   0.676
98662SOL    HW297761   2.642   4.841   0.609
98663SOL     OW97762   9.351   7.539   4.436
98663SOL    HW197763   9.304   7.472   4.387
98663SOL    HW297764   9.392   7.491   4.508
98664SOL     OW97765   2.142   7.650   6.811
98664SOL    HW197766   2.195   7.596   6.752
98664SOL    HW297767   2.052   7.625   6.792
98665SOL     OW97768  13.757   6.047   4.223
98665SOL    HW197769  13.667   6.057   4.192
98665SOL    HW297770  13.772   5.952   4.220
98666SOL     OW97771   2.927  10.321   6.327
98666SOL    HW197772   2.875  10.295   6.403
98666SOL    HW297773   2.997  10.375   6.364
98667SOL     OW97774   5.426   4.746   9.001
98667SOL    HW197775   5.430   4.651   9.003
98667SOL    HW297776   5.333   4.766   8.995
98668SOL     OW97777   2.740   2.229   3.228
98668SOL    HW197778   2.804   2.265   3.290
98668SOL    HW297779   2.763   2.136   3.221
98669SOL     OW97780  11.145   1.137  11.198
98669SOL    HW197781  11.129   1.115  11.289
98669SOL    HW297782  11.179   1.227  11.201
98670SOL     OW97783  14.518   6.506  14.158
98670SOL    HW197784  14.512   6.414  14.130
98670SOL    HW297785  14.612   6.523  14.164
98671SOL     OW97786   2.254   6.805  11.860
98671SOL    HW197787   2.280   6.895  11.879
98671SOL    HW297788   2.171   6.814  11.812
98672SOL     OW97789  13.232   4.700   0.623
98672SOL    HW197790  13.270   4.702   0.711
98672SOL    HW297791  13.149   4.653   0.634
98673SOL     OW97792   5.081  11.211   6.802
98673SOL    HW197793   5.128  11.287   6.835
98673SOL    HW297794   4.992  11.221   6.837
98674SOL     OW97795   0.104   3.710  11.004
98674SOL    HW197796   0.125   3.662  11.083
98674SOL    HW297797   0.020   3.673  10.975
98675SOL     OW97798   6.885   8.816   7.932
98675SOL    HW197799   6.811   8.797   7.874
98675SOL    HW297800   6.949   8.747   7.912
98676SOL     OW97801   1.403  12.118   0.046
98676SOL    HW197802   1.450  12.145  14.845
98676SOL    HW297803   1.450  12.160   0.118
98677SOL     OW97804   5.046   5.447   0.764
98677SOL    HW197805   5.130   5.405   0.783
98677SOL    HW297806   5.057   5.537   0.794
98678SOL     OW97807   8.630  10.581   7.980
98678SOL    HW197808   8.681  10.531   7.916
98678SOL    HW297809   8.539  10.564   7.956
98679SOL     OW97810  10.758   6.514   9.409
98679SOL    HW197811  10.800   6.583   9.358
98679SOL    HW297812  10.792   6.433   9.372
98680SOL     OW97813   0.563   0.046   9.706
98680SOL    HW197814   0.626   0.097   9.654
98680SOL    HW297815   0.505   0.007   9.640
98681SOL     OW97816   5.006  11.661   2.023
98681SOL    HW197817   5.023  11.636   1.932
98681SOL    HW297818   5.057  11.741   2.036
98682SOL     OW97819   1.365   6.320   6.178
98682SOL    HW197820   1.385   6.360   6.094
98682SOL    HW297821   1.275   6.286   6.168
98683SOL     OW97822  14.525   5.256   2.439
98683SOL    HW197823  14.610   5.298   2.449
98683SOL    HW297824  14.517   5.241   2.344
98684SOL     OW97825  13.257  14.126  11.301
98684SOL    HW197826  13.208  14.058  11.255
98684SOL    HW297827  13.280  14.087  11.385
98685SOL     OW97828   0.680   3.489   3.326
98685SOL    HW197829   0.772   3.476   3.350
98685SOL    HW297830   0.636   3.408   3.353
98686SOL     OW97831  13.230   5.763  14.561
98686SOL    HW197832  13.268   5.851  14.565
98686SOL    HW297833  13.250   5.723  14.645
98687SOL     OW97834   6.837  13.058   0.536
98687SOL    HW197835   6.925  13.025   0.554
98687SOL    HW297836   6.795  13.061   0.622
98688SOL     OW97837  10.520   8.498   7.543
98688SOL    HW197838  10.496   8.501   7.636
98688SOL    HW297839  10.552   8.409   7.529
98689SOL     OW97840   6.053   6.389   5.861
98689SOL    HW197841   6.028   6.438   5.783
98689SOL    HW297842   6.034   6.297   5.839
98690SOL     OW97843   8.856   6.819   4.247
98690SOL    HW197844   8.928   6.882   4.258
98690SOL    HW297845   8.777   6.873   4.252
98691SOL     OW97846   4.566   9.224  14.666
98691SOL    HW197847   4.588   9.275  14.587
98691SOL    HW297848   4.650   9.190  14.696
98692SOL     OW97849  12.087   7.209   5.743
98692SOL    HW197850  12.147   7.232   5.672
98692SOL    HW297851  12.137   7.227   5.823
98693SOL     OW97852   2.771  11.958   3.199
98693SOL    HW197853   2.802  11.941   3.288
98693SOL    HW297854   2.688  11.911   3.193
98694SOL     OW97855  12.286   0.798  11.331
98694SOL    HW197856  12.199   0.801  11.291
98694SOL    HW297857  12.342   0.846  11.270
98695SOL     OW97858  14.139   4.067  11.558
98695SOL    HW197859  14.061   4.108  11.595
98695SOL    HW297860  14.106   4.012  11.487
98696SOL     OW97861  10.135   4.217  13.902
98696SOL    HW197862  10.142   4.169  13.984
98696SOL    HW297863  10.143   4.149  13.834
98697SOL     OW97864  14.594  11.514  14.856
98697SOL    HW197865  14.673  11.562  14.829
98697SOL    HW297866  14.568  11.555   0.060
98698SOL     OW97867   5.976  10.521  13.976
98698SOL    HW197868   6.037  10.456  13.941
98698SOL    HW297869   5.896  10.471  13.995
98699SOL     OW97870   9.300  12.606  13.960
98699SOL    HW197871   9.300  12.513  13.938
98699SOL    HW297872   9.242  12.613  14.036
98700SOL     OW97873  12.021  13.800   0.914
98700SOL    HW197874  11.995  13.823   0.824
98700SOL    HW297875  12.092  13.861   0.935
98701SOL     OW97876   8.788   6.684  10.642
98701SOL    HW197877   8.791   6.752  10.708
98701SOL    HW297878   8.843   6.717  10.571
98702SOL     OW97879   6.245  13.118   2.625
98702SOL    HW197880   6.163  13.166   2.612
98702SOL    HW297881   6.289  13.163   2.697
98703SOL     OW97882   4.685   7.844   5.246
98703SOL    HW197883   4.723   7.923   5.207
98703SOL    HW297884   4.753   7.777   5.236
98704SOL     OW97885   8.090   5.948   8.284
98704SOL    HW197886   7.996   5.937   8.270
98704SOL    HW297887   8.103   5.929   8.377
98705SOL     OW97888  10.855  11.033   7.614
98705SOL    HW197889  10.812  10.964   7.664
98705SOL    HW297890  10.930  10.990   7.572
98706SOL     OW97891   4.511   3.381  10.958
98706SOL    HW197892   4.470   3.467  10.963
98706SOL    HW297893   4.593   3.390  11.006
98707SOL     OW97894   2.464  14.435  13.322
98707SOL    HW197895   2.480  14.419  13.415
98707SOL    HW297896   2.490  14.353  13.279
98708SOL     OW97897   7.670  12.337   4.441
98708SOL    HW197898   7.688  12.403   4.508
98708SOL    HW297899   7.651  12.387   4.362
98709SOL     OW97900  10.582   4.355   6.272
98709SOL    HW197901  10.651   4.420   6.277
98709SOL    HW297902  10.565   4.331   6.364
98710SOL     OW97903   9.627   4.238   0.684
98710SOL    HW197904   9.592   4.167   0.739
98710SOL    HW297905   9.637   4.312   0.744
98711SOL     OW97906  13.891  11.832   1.760
98711SOL    HW197907  13.830  11.778   1.810
98711SOL    HW297908  13.894  11.790   1.674
98712SOL     OW97909   2.589   9.565   1.642
98712SOL    HW197910   2.660   9.547   1.580
98712SOL    HW297911   2.635   9.595   1.721
98713SOL     OW97912   7.748  11.954   0.509
98713SOL    HW197913   7.715  11.916   0.591
98713SOL    HW297914   7.670  11.982   0.463
98714SOL     OW97915  14.131   5.278   7.895
98714SOL    HW197916  14.211   5.257   7.847
98714SOL    HW297917  14.066   5.293   7.826
98715SOL     OW97918   4.581  12.067  11.146
98715SOL    HW197919   4.511  12.124  11.115
98715SOL    HW297920   4.546  11.978  11.138
98716SOL     OW97921   2.977   5.840   5.970
98716SOL    HW197922   2.891   5.857   5.931
98716SOL    HW297923   2.958   5.786   6.047
98717SOL     OW97924   9.344  13.207  14.715
98717SOL    HW197925   9.352  13.147  14.640
98717SOL    HW297926   9.372  13.292  14.681
98718SOL     OW97927   4.802  12.788   2.144
98718SOL    HW197928   4.728  12.843   2.117
98718SOL    HW297929   4.785  12.770   2.237
98719SOL     OW97930   8.301   2.792   7.185
98719SOL    HW197931   8.284   2.776   7.277
98719SOL    HW297932   8.347   2.714   7.155
98720SOL     OW97933   9.023   6.648   9.335
98720SOL    HW197934   9.019   6.738   9.366
98720SOL    HW297935   9.073   6.601   9.401
98721SOL     OW97936   5.181   6.676   4.300
98721SOL    HW197937   5.197   6.692   4.207
98721SOL    HW297938   5.091   6.644   4.304
98722SOL     OW97939   5.255   8.693  12.099
98722SOL    HW197940   5.313   8.742  12.040
98722SOL    HW297941   5.225   8.758  12.163
98723SOL     OW97942  11.695   1.404   6.311
98723SOL    HW197943  11.662   1.324   6.271
98723SOL    HW297944  11.766   1.433   6.254
98724SOL     OW97945  11.771   0.256   6.446
98724SOL    HW197946  11.749   0.296   6.362
98724SOL    HW297947  11.787   0.330   6.505
98725SOL     OW97948   1.056   5.749  14.582
98725SOL    HW197949   0.962   5.763  14.573
98725SOL    HW297950   1.094   5.784  14.502
98726SOL     OW97951   6.931   9.601   6.183
98726SOL    HW197952   6.887   9.568   6.262
98726SOL    HW297953   6.956   9.691   6.205
98727SOL     OW97954  13.505   6.729   2.743
98727SOL    HW197955  13.558   6.793   2.791
98727SOL    HW297956  13.451   6.688   2.810
98728SOL     OW97957  12.286   3.943   8.805
98728SOL    HW197958  12.270   4.016   8.864
98728SOL    HW297959  12.381   3.946   8.788
98729SOL     OW97960  11.347  13.906  10.450
98729SOL    HW197961  11.414  13.848  10.485
98729SOL    HW297962  11.285  13.917  10.523
98730SOL     OW97963   3.980   8.485   4.706
98730SOL    HW197964   4.056   8.437   4.737
98730SOL    HW297965   4.002   8.509   4.616
98731SOL     OW97966  14.282  11.912   2.796
98731SOL    HW197967  14.240  11.831   2.765
98731SOL    HW297968  14.326  11.887   2.877
98732SOL     OW97969   6.349   8.961   2.188
98732SOL    HW197970   6.392   9.026   2.243
98732SOL    HW297971   6.328   8.889   2.248
98733SOL     OW97972   5.084   6.081   2.240
98733SOL    HW197973   5.084   5.986   2.224
98733SOL    HW297974   5.145   6.116   2.176
98734SOL     OW97975   0.517   1.577   4.208
98734SOL    HW197976   0.486   1.582   4.299
98734SOL    HW297977   0.486   1.658   4.168
98735SOL     OW97978   1.343   9.812   9.196
98735SOL    HW197979   1.415   9.872   9.174
98735SOL    HW297980   1.298   9.798   9.113
98736SOL     OW97981   5.078  13.167   0.665
98736SOL    HW197982   5.034  13.125   0.739
98736SOL    HW297983   5.007  13.211   0.617
98737SOL     OW97984   8.195   5.013   4.666
98737SOL    HW197985   8.289   5.024   4.653
98737SOL    HW297986   8.159   5.102   4.661
98738SOL     OW97987  10.488   0.302   3.566
98738SOL    HW197988  10.547   0.356   3.619
98738SOL    HW297989  10.535   0.219   3.554
98739SOL     OW97990  12.102   6.133   3.166
98739SOL    HW197991  12.047   6.156   3.241
98739SOL    HW297992  12.142   6.216   3.139
98740SOL     OW97993  14.856   7.714   4.539
98740SOL    HW197994  14.828   7.801   4.568
98740SOL    HW297995  14.858   7.662   4.619
98741SOL     OW97996   4.666   8.318  11.977
98741SOL    HW197997   4.582   8.282  11.949
98741SOL    HW297998   4.667   8.407  11.941
98742SOL     OW97999   5.545   6.676   3.243
98742SOL    HW198000   5.579   6.617   3.176
98742SOL    HW298001   5.570   6.636   3.326
98743SOL     OW98002   5.895  11.808  14.865
98743SOL    HW198003   5.818  11.862   0.005
98743SOL    HW298004   5.860  11.731  14.820
98744SOL     OW98005  13.625  11.059   3.555
98744SOL    HW198006  13.561  11.046   3.625
98744SOL    HW298007  13.638  10.973   3.517
98745SOL     OW98008   9.654  14.084   4.417
98745SOL    HW198009   9.625  13.993   4.415
98745SOL    HW298010   9.671  14.102   4.509
98746SOL     OW98011   2.670   4.220   8.418
98746SOL    HW198012   2.677   4.278   8.493
98746SOL    HW298013   2.620   4.270   8.353
98747SOL     OW98014   5.392  13.480  11.404
98747SOL    HW198015   5.352  13.397  11.430
98747SOL    HW298016   5.352  13.545  11.461
98748SOL     OW98017   6.931   3.843  14.230
98748SOL    HW198018   6.893   3.927  14.206
98748SOL    HW298019   7.017   3.864  14.266
98749SOL     OW98020   7.328   7.837  12.071
98749SOL    HW198021   7.259   7.779  12.038
98749SOL    HW298022   7.337   7.814  12.163
98750SOL     OW98023  14.111   4.827  11.404
98750SOL    HW198024  14.123   4.732  11.415
98750SOL    HW298025  14.023   4.844  11.437
98751SOL     OW98026  11.259   7.310   7.145
98751SOL    HW198027  11.189   7.264   7.098
98751SOL    HW298028  11.222   7.397   7.161
98752SOL     OW98029   4.841   9.033   2.167
98752SOL    HW198030   4.920   9.077   2.135
98752SOL    HW298031   4.835   8.953   2.113
98753SOL     OW98032   0.719  12.042   2.866
98753SOL    HW198033   0.798  12.056   2.813
98753SOL    HW298034   0.697  11.950   2.852
98754SOL     OW98035   4.286   5.906   1.823
98754SOL    HW198036   4.334   5.972   1.773
98754SOL    HW298037   4.232   5.862   1.758
98755SOL     OW98038   0.743   0.402  14.453
98755SOL    HW198039   0.756   0.379  14.361
98755SOL    HW298040   0.674   0.343  14.483
98756SOL     OW98041   1.969  14.013   6.100
98756SOL    HW198042   2.004  14.020   6.011
98756SOL    HW298043   1.880  13.979   6.087
98757SOL     OW98044  13.026  10.463   5.463
98757SOL    HW198045  13.035  10.514   5.383
98757SOL    HW298046  13.087  10.503   5.524
98758SOL     OW98047  12.459   2.769  14.640
98758SOL    HW198048  12.527   2.732  14.584
98758SOL    HW298049  12.495   2.852  14.671
98759SOL     OW98050  11.925   2.559   8.951
98759SOL    HW198051  11.986   2.506   9.003
98759SOL    HW298052  11.899   2.629   9.011
98760SOL     OW98053   9.979   5.705  13.824
98760SOL    HW198054  10.069   5.729  13.843
98760SOL    HW298055   9.931   5.788  13.825
98761SOL     OW98056   5.833  13.077   9.209
98761SOL    HW198057   5.739  13.068   9.225
98761SOL    HW298058   5.871  13.095   9.295
98762SOL     OW98059   1.055   1.517  10.426
98762SOL    HW198060   1.078   1.424  10.430
98762SOL    HW298061   1.047   1.535  10.332
98763SOL     OW98062   3.548  10.833   0.196
98763SOL    HW198063   3.547  10.824   0.291
98763SOL    HW298064   3.468  10.880   0.175
98764SOL     OW98065   5.168   2.469   5.152
98764SOL    HW198066   5.184   2.375   5.141
98764SOL    HW298067   5.225   2.494   5.225
98765SOL     OW98068   4.619   6.462   9.860
98765SOL    HW198069   4.554   6.528   9.833
98765SOL    HW298070   4.629   6.476   9.954
98766SOL     OW98071  12.928   6.224  11.148
98766SOL    HW198072  12.846   6.274  11.153
98766SOL    HW298073  12.900   6.136  11.124
98767SOL     OW98074  12.363   3.801  13.890
98767SOL    HW198075  12.434   3.837  13.942
98767SOL    HW298076  12.371   3.845  13.805
98768SOL     OW98077   8.716  14.594  10.689
98768SOL    HW198078   8.640  14.538  10.704
98768SOL    HW298079   8.781  14.537  10.648
98769SOL     OW98080   6.294   7.046   1.033
98769SOL    HW198081   6.324   6.971   0.981
98769SOL    HW298082   6.302   7.120   0.974
98770SOL     OW98083  14.278  12.733   6.461
98770SOL    HW198084  14.212  12.802   6.446
98770SOL    HW298085  14.269  12.675   6.386
98771SOL     OW98086   9.618   0.025  10.036
98771SOL    HW198087   9.575   0.108  10.017
98771SOL    HW298088   9.564  14.836   9.995
98772SOL     OW98089   2.959  10.240   4.780
98772SOL    HW198090   2.949  10.308   4.846
98772SOL    HW298091   3.019  10.276   4.716
98773SOL     OW98092   3.140   7.050  12.174
98773SOL    HW198093   3.161   7.095  12.092
98773SOL    HW298094   3.139   7.119  12.240
98774SOL     OW98095   2.616  11.966   4.590
98774SOL    HW198096   2.674  12.036   4.561
98774SOL    HW298097   2.616  11.972   4.685
98775SOL     OW98098  12.942   0.520   1.274
98775SOL    HW198099  12.978   0.609   1.282
98775SOL    HW298100  12.905   0.516   1.186
98776SOL     OW98101  11.982   9.010  14.502
98776SOL    HW198102  11.976   8.940  14.437
98776SOL    HW298103  11.989   8.965  14.586
98777SOL     OW98104   5.612   5.313   3.563
98777SOL    HW198105   5.572   5.360   3.637
98777SOL    HW298106   5.622   5.223   3.594
98778SOL     OW98107  14.565   0.993  12.264
98778SOL    HW198108  14.612   0.957  12.189
98778SOL    HW298109  14.514   1.066  12.227
98779SOL     OW98110   0.058   8.860   3.696
98779SOL    HW198111   0.055   8.896   3.785
98779SOL    HW298112  14.875   8.914   3.646
98780SOL     OW98113  10.063  13.826   9.641
98780SOL    HW198114  10.145  13.862   9.674
98780SOL    HW298115  10.044  13.875   9.562
98781SOL     OW98116  11.771  13.261   8.770
98781SOL    HW198117  11.780  13.264   8.865
98781SOL    HW298118  11.734  13.346   8.746
98782SOL     OW98119   7.719   7.421  14.081
98782SOL    HW198120   7.769   7.341  14.062
98782SOL    HW298121   7.656   7.394  14.147
98783SOL     OW98122   9.460  13.809  14.202
98783SOL    HW198123   9.391  13.832  14.264
98783SOL    HW298124   9.496  13.893  14.174
98784SOL     OW98125  10.791   0.939   0.078
98784SOL    HW198126  10.856   0.873   0.055
98784SOL    HW298127  10.843   1.018   0.095
98785SOL     OW98128  12.718   1.013   6.429
98785SOL    HW198129  12.738   0.925   6.462
98785SOL    HW298130  12.777   1.070   6.478
98786SOL     OW98131  10.497  11.233  10.589
98786SOL    HW198132  10.443  11.309  10.611
98786SOL    HW298133  10.574  11.241  10.644
98787SOL     OW98134   5.443   0.949   5.535
98787SOL    HW198135   5.534   0.978   5.533
98787SOL    HW298136   5.439   0.877   5.473
98788SOL     OW98137   5.609   5.578  14.539
98788SOL    HW198138   5.602   5.662  14.585
98788SOL    HW298139   5.569   5.595  14.454
98789SOL     OW98140   0.767   8.955   5.659
98789SOL    HW198141   0.758   9.038   5.706
98789SOL    HW298142   0.808   8.979   5.576
98790SOL     OW98143   3.439   5.068  13.271
98790SOL    HW198144   3.398   5.127  13.333
98790SOL    HW298145   3.439   4.983  13.314
98791SOL     OW98146  11.638   6.890   4.172
98791SOL    HW198147  11.635   6.984   4.154
98791SOL    HW298148  11.640   6.883   4.267
98792SOL     OW98149   7.647   6.825  13.386
98792SOL    HW198150   7.583   6.895  13.401
98792SOL    HW298151   7.595   6.744  13.390
98793SOL     OW98152  14.065   7.145  12.643
98793SOL    HW198153  13.987   7.149  12.588
98793SOL    HW298154  14.061   7.224  12.697
98794SOL     OW98155   7.101   6.459   7.281
98794SOL    HW198156   7.164   6.391   7.256
98794SOL    HW298157   7.152   6.520   7.335
98795SOL     OW98158   0.033   0.088   1.340
98795SOL    HW198159   0.095   0.146   1.385
98795SOL    HW298160   0.049   0.002   1.379
98796SOL     OW98161   6.484   6.483  12.699
98796SOL    HW198162   6.515   6.504  12.788
98796SOL    HW298163   6.562   6.491  12.644
98797SOL     OW98164   4.656   3.649  10.109
98797SOL    HW198165   4.691   3.669  10.022
98797SOL    HW298166   4.714   3.581  10.143
98798SOL     OW98167  11.673  12.057   4.757
98798SOL    HW198168  11.595  12.094   4.716
98798SOL    HW298169  11.733  12.040   4.684
98799SOL     OW98170  14.581   0.703   7.583
98799SOL    HW198171  14.607   0.732   7.495
98799SOL    HW298172  14.486   0.709   7.583
98800SOL     OW98173   6.524  11.600  12.609
98800SOL    HW198174   6.610  11.597  12.652
98800SOL    HW298175   6.526  11.528  12.545
98801SOL     OW98176   7.996   2.395   2.241
98801SOL    HW198177   7.987   2.441   2.157
98801SOL    HW298178   7.995   2.302   2.217
98802SOL     OW98179   8.669   0.181  13.783
98802SOL    HW198180   8.603   0.131  13.735
98802SOL    HW298181   8.736   0.201  13.719
98803SOL     OW98182  14.072   6.585  14.108
98803SOL    HW198183  14.156   6.618  14.076
98803SOL    HW298184  14.095   6.530  14.183
98804SOL     OW98185   9.468   3.527   2.574
98804SOL    HW198186   9.372   3.529   2.565
98804SOL    HW298187   9.488   3.437   2.598
98805SOL     OW98188   0.476  13.612   2.628
98805SOL    HW198189   0.445  13.600   2.717
98805SOL    HW298190   0.478  13.707   2.617
98806SOL     OW98191   1.791   1.081   4.380
98806SOL    HW198192   1.731   1.155   4.395
98806SOL    HW298193   1.743   1.022   4.323
98807SOL     OW98194   6.351   0.157   6.972
98807SOL    HW198195   6.290   0.207   6.917
98807SOL    HW298196   6.369   0.078   6.921
98808SOL     OW98197   0.931   9.003   1.799
98808SOL    HW198198   0.927   9.088   1.756
98808SOL    HW298199   0.918   9.022   1.892
98809SOL     OW98200   5.509   7.263   0.274
98809SOL    HW198201   5.494   7.317   0.352
98809SOL    HW298202   5.422   7.228   0.252
98810SOL     OW98203   6.170  14.373  10.730
98810SOL    HW198204   6.154  14.379  10.636
98810SOL    HW298205   6.263  14.350  10.736
98811SOL     OW98206  10.202   7.272   8.902
98811SOL    HW198207  10.230   7.316   8.821
98811SOL    HW298208  10.171   7.343   8.958
98812SOL     OW98209  13.718  10.502   3.592
98812SOL    HW198210  13.691  10.410   3.584
98812SOL    HW298211  13.808  10.498   3.623
98813SOL     OW98212   7.402   8.538   0.543
98813SOL    HW198213   7.319   8.492   0.531
98813SOL    HW298214   7.455   8.479   0.597
98814SOL     OW98215   7.856   3.947   4.000
98814SOL    HW198216   7.858   4.001   4.079
98814SOL    HW298217   7.765   3.950   3.971
98815SOL     OW98218   8.571   5.713   1.279
98815SOL    HW198219   8.530   5.788   1.236
98815SOL    HW298220   8.665   5.729   1.274
98816SOL     OW98221  14.020   6.290  14.346
98816SOL    HW198222  14.085   6.313  14.281
98816SOL    HW298223  14.070   6.258  14.421
98817SOL     OW98224   6.352  12.927  14.799
98817SOL    HW198225   6.354  12.835  14.772
98817SOL    HW298226   6.265  12.939  14.838
98818SOL     OW98227  14.567   7.730   9.398
98818SOL    HW198228  14.601   7.727   9.488
98818SOL    HW298229  14.492   7.790   9.403
98819SOL     OW98230  13.396  10.203   1.081
98819SOL    HW198231  13.333  10.160   1.140
98819SOL    HW298232  13.472  10.145   1.082
98820SOL     OW98233   9.691   8.978   3.801
98820SOL    HW198234   9.754   8.956   3.733
98820SOL    HW298235   9.625   8.909   3.797
98821SOL     OW98236  13.016   9.332  14.185
98821SOL    HW198237  13.007   9.425  14.163
98821SOL    HW298238  13.101   9.307  14.150
98822SOL     OW98239   0.988  12.670   9.565
98822SOL    HW198240   0.945  12.638   9.644
98822SOL    HW298241   1.079  12.640   9.572
98823SOL     OW98242   5.499   0.982   3.627
98823SOL    HW198243   5.475   1.037   3.701
98823SOL    HW298244   5.564   1.034   3.579
98824SOL     OW98245   5.939   9.506   2.151
98824SOL    HW198246   5.927   9.575   2.216
98824SOL    HW298247   6.028   9.475   2.165
98825SOL     OW98248   0.496  13.317   6.459
98825SOL    HW198249   0.480  13.273   6.542
98825SOL    HW298250   0.449  13.264   6.394
98826SOL     OW98251   4.286   3.894  11.158
98826SOL    HW198252   4.213   3.844  11.120
98826SOL    HW298253   4.351   3.899  11.087
98827SOL     OW98254   5.006  10.083  13.795
98827SOL    HW198255   5.014  10.159  13.737
98827SOL    HW298256   4.982  10.120  13.880
98828SOL     OW98257   6.985  12.186  14.508
98828SOL    HW198258   6.988  12.218  14.599
98828SOL    HW298259   6.893  12.192  14.483
98829SOL     OW98260   1.684  11.229   1.209
98829SOL    HW198261   1.697  11.174   1.286
98829SOL    HW298262   1.599  11.201   1.174
98830SOL     OW98263  14.047  10.401  11.898
98830SOL    HW198264  14.004  10.340  11.959
98830SOL    HW298265  14.103  10.345  11.845
98831SOL     OW98266   5.222   2.051  14.036
98831SOL    HW198267   5.235   2.022  13.946
98831SOL    HW298268   5.135   2.018  14.060
98832SOL     OW98269   0.708  12.569   6.185
98832SOL    HW198270   0.709  12.578   6.090
98832SOL    HW298271   0.671  12.482   6.201
98833SOL     OW98272   3.696   9.903   6.164
98833SOL    HW198273   3.653   9.820   6.186
98833SOL    HW298274   3.714   9.896   6.070
98834SOL     OW98275   2.554   9.761  12.964
98834SOL    HW198276   2.598   9.676  12.971
98834SOL    HW298277   2.563   9.786  12.872
98835SOL     OW98278   0.751  10.359   2.563
98835SOL    HW198279   0.826  10.324   2.514
98835SOL    HW298280   0.685  10.375   2.496
98836SOL     OW98281   0.189  12.195  14.414
98836SOL    HW198282   0.119  12.259  14.420
98836SOL    HW298283   0.161  12.134  14.346
98837SOL     OW98284   4.095   3.314   1.179
98837SOL    HW198285   4.107   3.311   1.274
98837SOL    HW298286   4.163   3.256   1.145
98838SOL     OW98287   5.021  12.765   7.745
98838SOL    HW198288   4.985  12.678   7.761
98838SOL    HW298289   5.094  12.772   7.806
98839SOL     OW98290  12.190   0.724  11.571
98839SOL    HW198291  12.190   0.630  11.553
98839SOL    HW298292  12.216   0.764  11.488
98840SOL     OW98293   9.091  11.017   0.516
98840SOL    HW198294   9.089  11.066   0.599
98840SOL    HW298295   9.010  10.966   0.517
98841SOL     OW98296   2.516  12.174  10.495
98841SOL    HW198297   2.424  12.146  10.494
98841SOL    HW298298   2.540  12.178  10.403
98842SOL     OW98299   9.250   1.413   7.969
98842SOL    HW198300   9.275   1.344   7.908
98842SOL    HW298301   9.199   1.368   8.036
98843SOL     OW98302   0.503  12.859   5.933
98843SOL    HW198303   0.498  12.766   5.954
98843SOL    HW298304   0.480  12.904   6.014
98844SOL     OW98305  12.174   9.045   6.550
98844SOL    HW198306  12.246   9.107   6.560
98844SOL    HW298307  12.199   8.992   6.474
98845SOL     OW98308   4.087   8.076   9.449
98845SOL    HW198309   4.073   8.100   9.541
98845SOL    HW298310   4.008   8.105   9.404
98846SOL     OW98311  12.564   0.459  11.664
98846SOL    HW198312  12.495   0.409  11.708
98846SOL    HW298313  12.594   0.521  11.730
98847SOL     OW98314  14.672  10.092   3.594
98847SOL    HW198315  14.736  10.127   3.532
98847SOL    HW298316  14.701  10.122   3.679
98848SOL     OW98317   7.879   0.640   0.097
98848SOL    HW198318   7.795   0.641   0.050
98848SOL    HW298319   7.912   0.551   0.083
98849SOL     OW98320   1.821   8.985   2.498
98849SOL    HW198321   1.825   8.892   2.521
98849SOL    HW298322   1.878   9.028   2.562
98850SOL     OW98323   6.286   8.169  10.169
98850SOL    HW198324   6.277   8.145  10.077
98850SOL    HW298325   6.375   8.142  10.191
98851SOL     OW98326  13.167   0.902   9.102
98851SOL    HW198327  13.085   0.906   9.053
98851SOL    HW298328  13.218   0.975   9.067
98852SOL     OW98329  14.318  10.027   4.850
98852SOL    HW198330  14.354   9.966   4.914
98852SOL    HW298331  14.391  10.046   4.791
98853SOL     OW98332   2.343   7.063   9.017
98853SOL    HW198333   2.361   7.020   8.934
98853SOL    HW298334   2.402   7.021   9.080
98854SOL     OW98335   9.244   4.066  10.259
98854SOL    HW198336   9.178   4.056  10.328
98854SOL    HW298337   9.251   3.979  10.219
98855SOL     OW98338  14.372   6.310  13.473
98855SOL    HW198339  14.391   6.218  13.489
98855SOL    HW298340  14.438   6.358  13.524
98856SOL     OW98341   3.029   3.309  12.736
98856SOL    HW198342   2.980   3.243  12.686
98856SOL    HW298343   3.120   3.294  12.712
98857SOL     OW98344   0.288   2.487  13.744
98857SOL    HW198345   0.335   2.510  13.664
98857SOL    HW298346   0.302   2.562  13.802
98858SOL     OW98347  10.409  13.465   7.106
98858SOL    HW198348  10.414  13.560   7.106
98858SOL    HW298349  10.455  13.438   7.026
98859SOL     OW98350  12.490  13.539  10.374
98859SOL    HW198351  12.395  13.541  10.375
98859SOL    HW298352  12.513  13.447  10.360
98860SOL     OW98353  14.096   9.218   0.144
98860SOL    HW198354  14.008   9.255   0.140
98860SOL    HW298355  14.097   9.152   0.075
98861SOL     OW98356  11.846  11.791   0.156
98861SOL    HW198357  11.868  11.884   0.148
98861SOL    HW298358  11.759  11.790   0.196
98862SOL     OW98359   0.614  14.600   2.883
98862SOL    HW198360   0.644  14.511   2.897
98862SOL    HW298361   0.694  14.652   2.877
98863SOL     OW98362   4.832   6.368   5.815
98863SOL    HW198363   4.866   6.430   5.880
98863SOL    HW298364   4.874   6.285   5.836
98864SOL     OW98365   5.323  12.076   9.836
98864SOL    HW198366   5.315  12.067   9.931
98864SOL    HW298367   5.253  12.136   9.812
98865SOL     OW98368  11.481   1.509  10.748
98865SOL    HW198369  11.399   1.557  10.759
98865SOL    HW298370  11.545   1.576  10.725
98866SOL     OW98371   2.567  11.298   4.689
98866SOL    HW198372   2.527  11.283   4.775
98866SOL    HW298373   2.496  11.334   4.636
98867SOL     OW98374   4.216  14.718   6.200
98867SOL    HW198375   4.204  14.802   6.245
98867SOL    HW298376   4.297  14.682   6.237
98868SOL     OW98377  11.554   2.845   9.371
98868SOL    HW198378  11.614   2.770   9.360
98868SOL    HW298379  11.481   2.809   9.421
98869SOL     OW98380   0.415   1.814   7.203
98869SOL    HW198381   0.452   1.750   7.143
98869SOL    HW298382   0.383   1.761   7.277
98870SOL     OW98383   0.787   7.129   1.618
98870SOL    HW198384   0.715   7.140   1.680
98870SOL    HW298385   0.830   7.047   1.644
98871SOL     OW98386   5.097   4.082   5.269
98871SOL    HW198387   5.184   4.054   5.240
98871SOL    HW298388   5.107   4.176   5.284
98872SOL     OW98389   2.197  10.421   4.083
98872SOL    HW198390   2.166  10.448   4.169
98872SOL    HW298391   2.272  10.364   4.101
98873SOL     OW98392   3.435   1.646   4.938
98873SOL    HW198393   3.350   1.667   4.899
98873SOL    HW298394   3.414   1.600   5.019
98874SOL     OW98395  13.510  11.329   8.131
98874SOL    HW198396  13.589  11.353   8.180
98874SOL    HW298397  13.469  11.260   8.183
98875SOL     OW98398   6.602   9.737   6.053
98875SOL    HW198399   6.650   9.811   6.016
98875SOL    HW298400   6.530   9.722   5.992
98876SOL     OW98401   2.702  13.605   5.632
98876SOL    HW198402   2.651  13.629   5.709
98876SOL    HW298403   2.655  13.531   5.594
98877SOL     OW98404  10.209  10.461   2.617
98877SOL    HW198405  10.182  10.553   2.612
98877SOL    HW298406  10.127  10.413   2.635
98878SOL     OW98407  13.104   0.069  13.992
98878SOL    HW198408  13.036   0.125  13.955
98878SOL    HW298409  13.057   0.012  14.053
98879SOL     OW98410   1.984   1.611   1.005
98879SOL    HW198411   2.041   1.626   0.929
98879SOL    HW298412   1.964   1.699   1.037
98880SOL     OW98413   1.679   0.379  13.983
98880SOL    HW198414   1.621   0.341  14.049
98880SOL    HW298415   1.620   0.418  13.919
98881SOL     OW98416   6.079  13.719   5.655
98881SOL    HW198417   6.079  13.659   5.580
98881SOL    HW298418   6.033  13.797   5.624
98882SOL     OW98419   7.930  13.518   8.868
98882SOL    HW198420   7.848  13.510   8.918
98882SOL    HW298421   7.986  13.572   8.924
98883SOL     OW98422   6.686   4.881   7.199
98883SOL    HW198423   6.765   4.857   7.151
98883SOL    HW298424   6.614   4.841   7.150
98884SOL     OW98425  14.836   0.974   1.129
98884SOL    HW198426  14.840   1.022   1.047
98884SOL    HW298427  14.804   1.039   1.193
98885SOL     OW98428   4.754  10.250  14.379
98885SOL    HW198429   4.809  10.327  14.364
98885SOL    HW298430   4.665  10.280  14.356
98886SOL     OW98431   1.189   2.911  10.106
98886SOL    HW198432   1.271   2.922  10.059
98886SOL    HW298433   1.195   2.825  10.148
98887SOL     OW98434   7.193   5.169  12.024
98887SOL    HW198435   7.238   5.149  12.106
98887SOL    HW298436   7.234   5.111  11.959
98888SOL     OW98437  10.697  14.746   8.216
98888SOL    HW198438  10.636  14.818   8.237
98888SOL    HW298439  10.734  14.722   8.300
98889SOL     OW98440   0.178   3.333   6.464
98889SOL    HW198441   0.095   3.379   6.482
98889SOL    HW298442   0.233   3.399   6.423
98890SOL     OW98443  10.252   3.469  11.112
98890SOL    HW198444  10.283   3.494  11.026
98890SOL    HW298445  10.198   3.391  11.097
98891SOL     OW98446   2.912   4.135   9.597
98891SOL    HW198447   2.917   4.124   9.502
98891SOL    HW298448   2.972   4.070   9.632
98892SOL     OW98449   9.841   2.171  12.483
98892SOL    HW198450   9.859   2.261  12.512
98892SOL    HW298451   9.872   2.169  12.392
98893SOL     OW98452   1.751   2.591  14.538
98893SOL    HW198453   1.768   2.499  14.518
98893SOL    HW298454   1.823   2.617  14.596
98894SOL     OW98455   0.338   8.426   5.849
98894SOL    HW198456   0.404   8.367   5.884
98894SOL    HW298457   0.388   8.494   5.804
98895SOL     OW98458   7.193  12.484   7.744
98895SOL    HW198459   7.174  12.543   7.671
98895SOL    HW298460   7.250  12.535   7.802
98896SOL     OW98461   9.214   8.615  11.699
98896SOL    HW198462   9.225   8.525  11.668
98896SOL    HW298463   9.128   8.641  11.666
98897SOL     OW98464  14.377   4.301   6.041
98897SOL    HW198465  14.404   4.389   6.064
98897SOL    HW298466  14.418   4.284   5.956
98898SOL     OW98467   3.172   1.880   6.654
98898SOL    HW198468   3.164   1.975   6.649
98898SOL    HW298469   3.228   1.864   6.730
98899SOL     OW98470  10.844   2.393   6.888
98899SOL    HW198471  10.911   2.427   6.828
98899SOL    HW298472  10.796   2.470   6.917
98900SOL     OW98473  13.744   0.968   4.043
98900SOL    HW198474  13.716   0.879   4.020
98900SOL    HW298475  13.665   1.021   4.035
98901SOL     OW98476  11.353   8.758   9.477
98901SOL    HW198477  11.435   8.715   9.501
98901SOL    HW298478  11.309   8.696   9.419
98902SOL     OW98479  12.437   8.767   2.741
98902SOL    HW198480  12.389   8.846   2.714
98902SOL    HW298481  12.381   8.727   2.808
98903SOL     OW98482   9.489   0.086   5.319
98903SOL    HW198483   9.546   0.088   5.396
98903SOL    HW298484   9.479   0.178   5.294
98904SOL     OW98485   9.301   2.798   4.049
98904SOL    HW198486   9.279   2.704   4.046
98904SOL    HW298487   9.343   2.815   3.965
98905SOL     OW98488   8.737   3.057   4.632
98905SOL    HW198489   8.695   3.101   4.559
98905SOL    HW298490   8.802   2.999   4.592
98906SOL     OW98491  14.232   8.153   6.694
98906SOL    HW198492  14.204   8.062   6.686
98906SOL    HW298493  14.300   8.151   6.761
98907SOL     OW98494   8.046   4.033   8.783
98907SOL    HW198495   8.039   4.092   8.708
98907SOL    HW298496   7.997   4.077   8.853
98908SOL     OW98497   8.481  11.003   2.640
98908SOL    HW198498   8.560  10.966   2.680
98908SOL    HW298499   8.495  10.991   2.546
98909SOL     OW98500  12.909   9.345   0.401
98909SOL    HW198501  12.931   9.420   0.346
98909SOL    HW298502  12.813   9.341   0.399
98910SOL     OW98503  10.662  12.674  10.234
98910SOL    HW198504  10.599  12.742  10.255
98910SOL    HW298505  10.745  12.721  10.222
98911SOL     OW98506  11.724   5.152  12.434
98911SOL    HW198507  11.771   5.076  12.401
98911SOL    HW298508  11.679   5.120  12.512
98912SOL     OW98509   2.261   3.282   2.022
98912SOL    HW198510   2.333   3.253   2.078
98912SOL    HW298511   2.189   3.224   2.044
98913SOL     OW98512   7.018   3.237  13.464
98913SOL    HW198513   6.987   3.328  13.457
98913SOL    HW298514   7.043   3.213  13.375
98914SOL     OW98515   1.351   1.432  12.579
98914SOL    HW198516   1.354   1.364  12.647
98914SOL    HW298517   1.433   1.479  12.588
98915SOL     OW98518   4.647  11.806  13.688
98915SOL    HW198519   4.703  11.736  13.655
98915SOL    HW298520   4.607  11.769  13.767
98916SOL     OW98521   3.988   2.644  11.142
98916SOL    HW198522   4.021   2.720  11.095
98916SOL    HW298523   3.929   2.601  11.080
98917SOL     OW98524   8.886   8.939   7.342
98917SOL    HW198525   8.926   8.943   7.255
98917SOL    HW298526   8.841   9.023   7.352
98918SOL     OW98527  12.415  13.091   8.632
98918SOL    HW198528  12.379  13.003   8.616
98918SOL    HW298529  12.444  13.089   8.723
98919SOL     OW98530   6.191  13.345  13.137
98919SOL    HW198531   6.117  13.397  13.107
98919SOL    HW298532   6.161  13.254  13.129
98920SOL     OW98533  10.936  12.593  14.747
98920SOL    HW198534  10.884  12.671  14.768
98920SOL    HW298535  10.914  12.575  14.655
98921SOL     OW98536   2.269   6.370   6.965
98921SOL    HW198537   2.221   6.338   7.041
98921SOL    HW298538   2.221   6.449   6.938
98922SOL     OW98539  14.409   9.993  10.180
98922SOL    HW198540  14.316  10.007  10.194
98922SOL    HW298541  14.449  10.079  10.190
98923SOL     OW98542   3.882  10.618   1.864
98923SOL    HW198543   3.853  10.643   1.952
98923SOL    HW298544   3.856  10.693   1.809
98924SOL     OW98545  12.752   3.438   2.684
98924SOL    HW198546  12.815   3.401   2.747
98924SOL    HW298547  12.719   3.516   2.727
98925SOL     OW98548   1.664   1.649  10.758
98925SOL    HW198549   1.641   1.594  10.683
98925SOL    HW298550   1.756   1.671  10.744
98926SOL     OW98551   5.977   8.626  13.078
98926SOL    HW198552   6.063   8.651  13.043
98926SOL    HW298553   5.925   8.605  13.001
98927SOL     OW98554   3.588  10.375   5.370
98927SOL    HW198555   3.626  10.462   5.369
98927SOL    HW298556   3.624  10.333   5.448
98928SOL     OW98557   4.738   9.769   7.957
98928SOL    HW198558   4.698   9.845   7.915
98928SOL    HW298559   4.832   9.780   7.944
98929SOL     OW98560   9.184   1.977   4.594
98929SOL    HW198561   9.139   1.962   4.677
98929SOL    HW298562   9.186   2.072   4.585
98930SOL     OW98563  13.604   6.608  13.275
98930SOL    HW198564  13.556   6.668  13.218
98930SOL    HW298565  13.583   6.636  13.364
98931SOL     OW98566  10.345   1.435   3.708
98931SOL    HW198567  10.400   1.360   3.685
98931SOL    HW298568  10.394   1.479   3.778
98932SOL     OW98569  10.913   4.101   1.019
98932SOL    HW198570  10.871   4.068   0.940
98932SOL    HW298571  10.986   4.041   1.034
98933SOL     OW98572  12.279   9.365   2.718
98933SOL    HW198573  12.358   9.342   2.670
98933SOL    HW298574  12.211   9.372   2.651
98934SOL     OW98575   1.608   3.037   7.665
98934SOL    HW198576   1.541   3.035   7.597
98934SOL    HW298577   1.691   3.031   7.618
98935SOL     OW98578   0.128  13.571  12.467
98935SOL    HW198579   0.151  13.657  12.432
98935SOL    HW298580   0.178  13.509  12.413
98936SOL     OW98581   8.298   3.936   2.873
98936SOL    HW198582   8.330   3.986   2.798
98936SOL    HW298583   8.328   3.847   2.858
98937SOL     OW98584   0.189  10.667   3.551
98937SOL    HW198585   0.196  10.660   3.646
98937SOL    HW298586   0.253  10.604   3.518
98938SOL     OW98587   6.466   7.685   0.400
98938SOL    HW198588   6.412   7.742   0.345
98938SOL    HW298589   6.415   7.605   0.408
98939SOL     OW98590   7.057   7.909   6.062
98939SOL    HW198591   7.068   7.952   5.977
98939SOL    HW298592   7.137   7.859   6.074
98940SOL     OW98593  10.898   6.941   6.955
98940SOL    HW198594  10.879   6.856   6.996
98940SOL    HW298595  10.812   6.979   6.939
98941SOL     OW98596   7.218   1.358  12.508
98941SOL    HW198597   7.189   1.408  12.432
98941SOL    HW298598   7.304   1.392  12.529
98942SOL     OW98599  14.189  10.000   2.811
98942SOL    HW198600  14.211  10.066   2.876
98942SOL    HW298601  14.274   9.961   2.787
98943SOL     OW98602   9.021   1.021   8.205
98943SOL    HW198603   8.954   0.985   8.147
98943SOL    HW298604   9.009   0.975   8.288
98944SOL     OW98605   7.560   3.798   1.906
98944SOL    HW198606   7.569   3.703   1.894
98944SOL    HW298607   7.502   3.826   1.836
98945SOL     OW98608   5.387   5.527   9.633
98945SOL    HW198609   5.449   5.512   9.705
98945SOL    HW298610   5.358   5.439   9.607
98946SOL     OW98611  12.606  10.381  11.532
98946SOL    HW198612  12.556  10.312  11.576
98946SOL    HW298613  12.625  10.444  11.602
98947SOL     OW98614   6.655   8.695  12.546
98947SOL    HW198615   6.725   8.657  12.600
98947SOL    HW298616   6.696   8.710  12.461
98948SOL     OW98617   2.368   4.990   4.979
98948SOL    HW198618   2.446   4.999   5.034
98948SOL    HW298619   2.295   4.997   5.040
98949SOL     OW98620   7.599  13.358   1.794
98949SOL    HW198621   7.577  13.386   1.705
98949SOL    HW298622   7.518  13.368   1.844
98950SOL     OW98623   8.181  12.713   3.188
98950SOL    HW198624   8.117  12.713   3.259
98950SOL    HW298625   8.132  12.686   3.111
98951SOL     OW98626   6.080   0.493   3.192
98951SOL    HW198627   6.125   0.504   3.108
98951SOL    HW298628   6.151   0.482   3.256
98952SOL     OW98629   1.741   2.971   4.408
98952SOL    HW198630   1.661   3.013   4.379
98952SOL    HW298631   1.723   2.878   4.404
98953SOL     OW98632  14.489  14.689   0.484
98953SOL    HW198633  14.556  14.645   0.433
98953SOL    HW298634  14.532  14.711   0.567
98954SOL     OW98635   7.917  12.511   7.309
98954SOL    HW198636   7.984  12.449   7.280
98954SOL    HW298637   7.950  12.543   7.393
98955SOL     OW98638   3.888   4.761   0.703
98955SOL    HW198639   3.817   4.770   0.640
98955SOL    HW298640   3.955   4.711   0.657
98956SOL     OW98641   1.694   7.277   1.007
98956SOL    HW198642   1.735   7.194   0.984
98956SOL    HW298643   1.767   7.335   1.028
98957SOL     OW98644   9.827  13.033  13.952
98957SOL    HW198645   9.782  12.961  13.996
98957SOL    HW298646   9.851  13.093  14.023
98958SOL     OW98647  12.159   5.797   8.177
98958SOL    HW198648  12.143   5.844   8.258
98958SOL    HW298649  12.098   5.723   8.179
98959SOL     OW98650   6.696   1.636   3.972
98959SOL    HW198651   6.612   1.677   3.990
98959SOL    HW298652   6.726   1.677   3.891
98960SOL     OW98653   3.931   8.126  10.279
98960SOL    HW198654   3.850   8.146  10.325
98960SOL    HW298655   3.999   8.138  10.345
98961SOL     OW98656   2.610   1.143   7.029
98961SOL    HW198657   2.552   1.155   7.104
98961SOL    HW298658   2.555   1.158   6.953
98962SOL     OW98659   0.319   1.452   5.742
98962SOL    HW198660   0.405   1.461   5.781
98962SOL    HW298661   0.294   1.541   5.717
98963SOL     OW98662   4.912   8.467   4.056
98963SOL    HW198663   4.868   8.412   3.990
98963SOL    HW298664   4.889   8.427   4.139
98964SOL     OW98665  13.170  12.466  11.904
98964SOL    HW198666  13.222  12.397  11.863
98964SOL    HW298667  13.234  12.527  11.940
98965SOL     OW98668  10.770  12.717   7.316
98965SOL    HW198669  10.821  12.794   7.292
98965SOL    HW298670  10.793  12.700   7.407
98966SOL     OW98671  12.003  12.776  12.413
98966SOL    HW198672  11.912  12.801  12.429
98966SOL    HW298673  12.011  12.688  12.452
98967SOL     OW98674   9.510   2.152  12.166
98967SOL    HW198675   9.445   2.186  12.227
98967SOL    HW298676   9.479   2.064  12.145
98968SOL     OW98677   8.065   0.868   9.864
98968SOL    HW198678   8.056   0.874   9.959
98968SOL    HW298679   8.111   0.948   9.839
98969SOL     OW98680   3.489  11.918   5.499
98969SOL    HW198681   3.534  11.835   5.485
98969SOL    HW298682   3.539  11.982   5.449
98970SOL     OW98683   5.177   7.185  11.596
98970SOL    HW198684   5.100   7.242  11.591
98970SOL    HW298685   5.240   7.225  11.536
98971SOL     OW98686  11.639   4.279  14.079
98971SOL    HW198687  11.715   4.336  14.096
98971SOL    HW298688  11.610   4.252  14.167
98972SOL     OW98689   0.017   1.607  10.246
98972SOL    HW198690   0.017   1.658  10.165
98972SOL    HW298691  14.831   1.651  10.302
98973SOL     OW98692   8.670   9.629  11.196
98973SOL    HW198693   8.728   9.679  11.253
98973SOL    HW298694   8.714   9.630  11.111
98974SOL     OW98695   2.814   8.574  13.088
98974SOL    HW198696   2.723   8.597  13.073
98974SOL    HW298697   2.814   8.522  13.168
98975SOL     OW98698   8.349   7.757   3.500
98975SOL    HW198699   8.323   7.727   3.588
98975SOL    HW298700   8.276   7.732   3.444
98976SOL     OW98701  14.649  10.795   3.113
98976SOL    HW198702  14.700  10.832   3.185
98976SOL    HW298703  14.682  10.705   3.104
98977SOL     OW98704  10.753  11.498   7.910
98977SOL    HW198705  10.847  11.510   7.925
98977SOL    HW298706  10.748  11.454   7.825
98978SOL     OW98707  12.767  13.775  14.037
98978SOL    HW198708  12.698  13.714  14.011
98978SOL    HW298709  12.848  13.733  14.008
98979SOL     OW98710  11.707   1.724  12.222
98979SOL    HW198711  11.628   1.758  12.180
98979SOL    HW298712  11.762   1.801  12.237
98980SOL     OW98713   8.334   9.210   6.733
98980SOL    HW198714   8.335   9.246   6.645
98980SOL    HW298715   8.314   9.117   6.721
98981SOL     OW98716   8.977   5.457   6.021
98981SOL    HW198717   8.915   5.422   5.958
98981SOL    HW298718   9.063   5.444   5.982
98982SOL     OW98719   1.752   5.553   8.466
98982SOL    HW198720   1.676   5.603   8.435
98982SOL    HW298721   1.745   5.469   8.420
98983SOL     OW98722   4.194   2.159   2.790
98983SOL    HW198723   4.135   2.152   2.716
98983SOL    HW298724   4.143   2.129   2.865
98984SOL     OW98725   4.700   1.561  11.634
98984SOL    HW198726   4.680   1.584  11.724
98984SOL    HW298727   4.778   1.505  11.640
98985SOL     OW98728  11.599  12.659   2.880
98985SOL    HW198729  11.551  12.676   2.799
98985SOL    HW298730  11.616  12.565   2.879
98986SOL     OW98731  10.611   3.011   1.110
98986SOL    HW198732  10.522   2.986   1.133
98986SOL    HW298733  10.657   3.017   1.194
98987SOL     OW98734   1.956   0.775  14.744
98987SOL    HW198735   1.907   0.843  14.789
98987SOL    HW298736   2.037   0.818  14.718
98988SOL     OW98737   7.164   6.145   2.040
98988SOL    HW198738   7.106   6.108   2.107
98988SOL    HW298739   7.206   6.068   2.000
98989SOL     OW98740   2.447   0.065   4.685
98989SOL    HW198741   2.459  14.849   4.669
98989SOL    HW298742   2.405   0.070   4.770
98990SOL     OW98743   1.079   1.237   4.414
98990SOL    HW198744   1.131   1.301   4.366
98990SOL    HW298745   1.028   1.289   4.477
98991SOL     OW98746   9.910   4.984  11.499
98991SOL    HW198747   9.844   4.959  11.434
98991SOL    HW298748   9.993   4.985  11.451
98992SOL     OW98749   5.422   6.541   8.446
98992SOL    HW198750   5.477   6.545   8.524
98992SOL    HW298751   5.333   6.558   8.478
98993SOL     OW98752   5.625   5.237   7.388
98993SOL    HW198753   5.553   5.274   7.438
98993SOL    HW298754   5.584   5.172   7.331
98994SOL     OW98755  12.087  12.894   9.604
98994SOL    HW198756  12.013  12.868   9.660
98994SOL    HW298757  12.086  12.829   9.534
98995SOL     OW98758  12.260   2.248   9.004
98995SOL    HW198759  12.321   2.258   9.077
98995SOL    HW298760  12.286   2.165   8.963
98996SOL     OW98761  12.601   1.375   1.439
98996SOL    HW198762  12.597   1.312   1.511
98996SOL    HW298763  12.610   1.322   1.361
98997SOL     OW98764  13.902   0.139  12.838
98997SOL    HW198765  13.970   0.089  12.882
98997SOL    HW298766  13.908   0.112  12.747
98998SOL     OW98767   0.242   9.971  13.723
98998SOL    HW198768   0.288  10.051  13.749
98998SOL    HW298769   0.308   9.916  13.682
98999SOL     OW98770   2.839   4.029   5.036
98999SOL    HW198771   2.828   4.073   5.120
98999SOL    HW298772   2.857   3.938   5.059
99000SOL     OW98773   2.288  12.915  10.733
99000SOL    HW198774   2.309  12.822  10.720
99000SOL    HW298775   2.218  12.933  10.670
99001SOL     OW98776   3.946   3.747   6.870
99001SOL    HW198777   4.010   3.690   6.828
99001SOL    HW298778   3.976   3.836   6.851
99002SOL     OW98779   5.000   1.029   0.721
99002SOL    HW198780   4.992   1.086   0.797
99002SOL    HW298781   5.000   1.088   0.646
99003SOL     OW98782  13.321  14.609  12.481
99003SOL    HW198783  13.343  14.697  12.452
99003SOL    HW298784  13.256  14.578  12.418
99004SOL     OW98785   3.644   8.056   9.175
99004SOL    HW198786   3.657   7.964   9.152
99004SOL    HW298787   3.572   8.085   9.119
99005SOL     OW98788  10.943  14.481  14.439
99005SOL    HW198789  10.878  14.426  14.395
99005SOL    HW298790  10.976  14.426  14.510
99006SOL     OW98791   8.142  14.327   5.260
99006SOL    HW198792   8.093  14.247   5.279
99006SOL    HW298793   8.221  14.320   5.313
99007SOL     OW98794   7.671  13.524   7.976
99007SOL    HW198795   7.586  13.566   7.987
99007SOL    HW298796   7.730  13.572   8.034
99008SOL     OW98797   1.224   4.503   5.949
99008SOL    HW198798   1.256   4.426   5.902
99008SOL    HW298799   1.194   4.563   5.880
99009SOL     OW98800  13.582  10.057   6.322
99009SOL    HW198801  13.608  10.005   6.398
99009SOL    HW298802  13.601  10.001   6.247
99010SOL     OW98803   2.739  10.830   5.089
99010SOL    HW198804   2.709  10.803   5.175
99010SOL    HW298805   2.822  10.874   5.105
99011SOL     OW98806  12.845   8.703  12.414
99011SOL    HW198807  12.787   8.779  12.412
99011SOL    HW298808  12.789   8.631  12.443
99012SOL     OW98809   3.156   2.868   9.863
99012SOL    HW198810   3.118   2.781   9.870
99012SOL    HW298811   3.181   2.890   9.953
99013SOL     OW98812   3.313   0.172  12.227
99013SOL    HW198813   3.240   0.114  12.207
99013SOL    HW298814   3.316   0.233  12.153
99014SOL     OW98815   1.514   9.801  10.545
99014SOL    HW198816   1.486   9.847  10.624
99014SOL    HW298817   1.541   9.870  10.485
99015SOL     OW98818   9.602  10.970   6.573
99015SOL    HW198819   9.527  10.922   6.539
99015SOL    HW298820   9.566  11.023   6.644
99016SOL     OW98821   3.710  12.839  13.411
99016SOL    HW198822   3.662  12.828  13.329
99016SOL    HW298823   3.671  12.915  13.453
99017SOL     OW98824  10.102   7.886   9.878
99017SOL    HW198825  10.058   7.906   9.795
99017SOL    HW298826  10.178   7.944   9.879
99018SOL     OW98827  14.747   1.018   7.105
99018SOL    HW198828  14.750   1.113   7.110
99018SOL    HW298829  14.746   0.989   7.197
99019SOL     OW98830   5.587  10.943   2.542
99019SOL    HW198831   5.681  10.949   2.520
99019SOL    HW298832   5.547  11.013   2.490
99020SOL     OW98833  12.106   5.609   8.525
99020SOL    HW198834  12.128   5.562   8.445
99020SOL    HW298835  12.052   5.682   8.495
99021SOL     OW98836   0.278  11.490   4.321
99021SOL    HW198837   0.213  11.523   4.260
99021SOL    HW298838   0.359  11.487   4.270
99022SOL     OW98839   1.924   4.870   2.525
99022SOL    HW198840   1.843   4.921   2.533
99022SOL    HW298841   1.927   4.846   2.432
99023SOL     OW98842   1.092   7.162   3.439
99023SOL    HW198843   1.023   7.222   3.412
99023SOL    HW298844   1.106   7.181   3.532
99024SOL     OW98845   1.737  11.165  10.087
99024SOL    HW198846   1.809  11.185  10.147
99024SOL    HW298847   1.747  11.072  10.068
99025SOL     OW98848   5.329   4.804   4.577
99025SOL    HW198849   5.379   4.723   4.573
99025SOL    HW298850   5.308   4.815   4.670
99026SOL     OW98851  13.953   6.591  12.109
99026SOL    HW198852  13.997   6.609  12.192
99026SOL    HW298853  13.917   6.676  12.083
99027SOL     OW98854  13.963   7.888   9.262
99027SOL    HW198855  13.892   7.879   9.199
99027SOL    HW298856  13.936   7.835   9.337
99028SOL     OW98857   7.743  14.505   5.371
99028SOL    HW198858   7.794  14.533   5.295
99028SOL    HW298859   7.732  14.410   5.358
99029SOL     OW98860  12.270   4.058  14.395
99029SOL    HW198861  12.224   4.067  14.478
99029SOL    HW298862  12.221   3.990  14.348
99030SOL     OW98863   7.654  14.733   4.494
99030SOL    HW198864   7.574  14.715   4.446
99030SOL    HW298865   7.666  14.658   4.552
99031SOL     OW98866  13.226   2.194  12.344
99031SOL    HW198867  13.206   2.108  12.381
99031SOL    HW298868  13.314   2.186  12.309
99032SOL     OW98869   5.971   6.551   1.371
99032SOL    HW198870   6.030   6.485   1.407
99032SOL    HW298871   5.893   6.501   1.344
99033SOL     OW98872   7.307   6.527   7.946
99033SOL    HW198873   7.389   6.495   7.907
99033SOL    HW298874   7.246   6.530   7.872
99034SOL     OW98875  11.039   0.587  10.966
99034SOL    HW198876  11.099   0.661  10.951
99034SOL    HW298877  11.044   0.571  11.060
99035SOL     OW98878  12.925   6.476   6.825
99035SOL    HW198879  12.926   6.518   6.911
99035SOL    HW298880  12.925   6.382   6.843
99036SOL     OW98881   2.127   7.485   9.556
99036SOL    HW198882   2.143   7.411   9.614
99036SOL    HW298883   2.175   7.558   9.595
99037SOL     OW98884  11.701   4.582   3.144
99037SOL    HW198885  11.668   4.510   3.197
99037SOL    HW298886  11.726   4.542   3.061
99038SOL     OW98887   6.588  11.183  13.626
99038SOL    HW198888   6.529  11.212  13.556
99038SOL    HW298889   6.544  11.107  13.665
99039SOL     OW98890   2.843  12.097   1.741
99039SOL    HW198891   2.752  12.122   1.758
99039SOL    HW298892   2.895  12.159   1.792
99040SOL     OW98893   7.504  12.955  11.142
99040SOL    HW198894   7.423  12.905  11.149
99040SOL    HW298895   7.570  12.891  11.115
99041SOL     OW98896  11.825   8.113   1.567
99041SOL    HW198897  11.780   8.029   1.582
99041SOL    HW298898  11.859   8.137   1.653
99042SOL     OW98899   8.572   1.297   1.552
99042SOL    HW198900   8.662   1.287   1.521
99042SOL    HW298901   8.520   1.249   1.488
99043SOL     OW98902   4.612   4.619  10.633
99043SOL    HW198903   4.644   4.534  10.664
99043SOL    HW298904   4.675   4.682  10.667
99044SOL     OW98905   1.647  10.044  10.454
99044SOL    HW198906   1.736  10.016  10.472
99044SOL    HW298907   1.610  10.062  10.541
99045SOL     OW98908   3.051  12.632   8.375
99045SOL    HW198909   2.975  12.602   8.425
99045SOL    HW298910   3.061  12.725   8.400
99046SOL     OW98911  14.833   4.119  10.573
99046SOL    HW198912  14.770   4.137  10.643
99046SOL    HW298913   0.026   4.072  10.616
99047SOL     OW98914  12.608   0.819   4.156
99047SOL    HW198915  12.597   0.853   4.067
99047SOL    HW298916  12.597   0.724   4.146
99048SOL     OW98917   4.342   0.397   3.585
99048SOL    HW198918   4.344   0.385   3.490
99048SOL    HW298919   4.423   0.358   3.616
99049SOL     OW98920   7.546  14.839  13.679
99049SOL    HW198921   7.490  14.773  13.720
99049SOL    HW298922   7.577   0.015  13.752
99050SOL     OW98923   3.257  13.870   2.616
99050SOL    HW198924   3.228  13.871   2.707
99050SOL    HW298925   3.178  13.850   2.566
99051SOL     OW98926   6.491   1.425   0.609
99051SOL    HW198927   6.535   1.341   0.600
99051SOL    HW298928   6.400   1.403   0.631
99052SOL     OW98929   4.756   7.265  11.014
99052SOL    HW198930   4.787   7.318  10.941
99052SOL    HW298931   4.679   7.219  10.980
99053SOL     OW98932   2.022   8.216  13.866
99053SOL    HW198933   2.049   8.214  13.958
99053SOL    HW298934   2.058   8.136  13.829
99054SOL     OW98935  12.991  12.584  10.109
99054SOL    HW198936  13.011  12.491  10.094
99054SOL    HW298937  12.928  12.606  10.040
99055SOL     OW98938   4.931   8.888   5.192
99055SOL    HW198939   4.997   8.941   5.147
99055SOL    HW298940   4.980   8.814   5.227
99056SOL     OW98941   9.429   8.296  13.496
99056SOL    HW198942   9.395   8.385  13.498
99056SOL    HW298943   9.381   8.253  13.425
99057SOL     OW98944   5.156   6.817   3.964
99057SOL    HW198945   5.066   6.813   3.932
99057SOL    HW298946   5.153   6.880   4.036
99058SOL     OW98947   1.595   3.603   9.235
99058SOL    HW198948   1.618   3.562   9.318
99058SOL    HW298949   1.504   3.575   9.220
99059SOL     OW98950   3.783   0.809  10.253
99059SOL    HW198951   3.729   0.733  10.275
99059SOL    HW298952   3.724   0.868  10.206
99060SOL     OW98953   9.147  10.969   6.146
99060SOL    HW198954   9.118  10.891   6.194
99060SOL    HW298955   9.201  11.017   6.208
99061SOL     OW98956  13.233  13.885   4.812
99061SOL    HW198957  13.250  13.896   4.906
99061SOL    HW298958  13.141  13.858   4.808
99062SOL     OW98959   3.129  12.165   6.358
99062SOL    HW198960   3.082  12.238   6.317
99062SOL    HW298961   3.205  12.150   6.301
99063SOL     OW98962   3.599  10.891   3.554
99063SOL    HW198963   3.611  10.946   3.476
99063SOL    HW298964   3.549  10.947   3.614
99064SOL     OW98965   6.129  12.486   0.891
99064SOL    HW198966   6.175  12.498   0.808
99064SOL    HW298967   6.131  12.572   0.932
99065SOL     OW98968   7.992   1.700  11.355
99065SOL    HW198969   8.065   1.762  11.352
99065SOL    HW298970   8.015   1.639  11.425
99066SOL     OW98971   1.326  11.408   7.992
99066SOL    HW198972   1.403  11.421   7.937
99066SOL    HW298973   1.257  11.382   7.931
99067SOL     OW98974   5.512   4.855  10.868
99067SOL    HW198975   5.517   4.897  10.783
99067SOL    HW298976   5.439   4.899  10.912
99068SOL     OW98977   6.218  13.499   8.603
99068SOL    HW198978   6.285  13.500   8.535
99068SOL    HW298979   6.200  13.406   8.618
99069SOL     OW98980   4.800  13.894  12.833
99069SOL    HW198981   4.822  13.807  12.867
99069SOL    HW298982   4.801  13.951  12.910
99070SOL     OW98983   4.318   8.956   5.739
99070SOL    HW198984   4.269   9.002   5.808
99070SOL    HW298985   4.366   9.026   5.693
99071SOL     OW98986  13.358   8.295   7.562
99071SOL    HW198987  13.419   8.369   7.564
99071SOL    HW298988  13.365   8.260   7.473
99072SOL     OW98989   3.466   6.557   0.138
99072SOL    HW198990   3.480   6.645   0.172
99072SOL    HW298991   3.371   6.548   0.134
99073SOL     OW98992  10.258   9.876  11.350
99073SOL    HW198993  10.350   9.901  11.355
99073SOL    HW298994  10.260   9.785  11.321
99074SOL     OW98995  14.640   3.077   9.739
99074SOL    HW198996  14.717   3.022   9.748
99074SOL    HW298997  14.666   3.161   9.777
99075SOL     OW98998   8.320   4.332   1.968
99075SOL    HW198999   8.258   4.405   1.959
99075SOL    HW299000   8.400   4.364   1.927
99076SOL     OW99001   9.440  14.807   1.122
99076SOL    HW199002   9.464  14.727   1.077
99076SOL    HW299003   9.416  14.779   1.210
99077SOL     OW99004   3.546   8.543  11.204
99077SOL    HW199005   3.633   8.529  11.168
99077SOL    HW299006   3.551   8.508  11.293
99078SOL     OW99007  14.305   3.230  12.374
99078SOL    HW199008  14.305   3.293  12.447
99078SOL    HW299009  14.314   3.145  12.417
99079SOL     OW99010   9.635   2.116  12.622
99079SOL    HW199011   9.718   2.131  12.577
99079SOL    HW299012   9.622   2.021  12.618
99080SOL     OW99013  10.703   4.117  11.884
99080SOL    HW199014  10.786   4.090  11.844
99080SOL    HW299015  10.690   4.055  11.956
99081SOL     OW99016   0.808   8.718   8.386
99081SOL    HW199017   0.754   8.644   8.359
99081SOL    HW299018   0.854   8.745   8.306
99082SOL     OW99019   4.745   1.579   9.609
99082SOL    HW199020   4.663   1.558   9.564
99082SOL    HW299021   4.720   1.592   9.701
99083SOL     OW99022   4.018  10.502   0.218
99083SOL    HW199023   4.103  10.471   0.186
99083SOL    HW299024   3.966  10.422   0.229
99084SOL     OW99025  11.235  12.036   0.291
99084SOL    HW199026  11.226  12.128   0.264
99084SOL    HW299027  11.328  12.025   0.309
99085SOL     OW99028   6.777  11.709   7.103
99085SOL    HW199029   6.758  11.762   7.180
99085SOL    HW299030   6.691  11.695   7.062
99086SOL     OW99031   0.450   3.776   9.513
99086SOL    HW199032   0.366   3.730   9.519
99086SOL    HW299033   0.449   3.837   9.587
99087SOL     OW99034   3.990  10.705   7.361
99087SOL    HW199035   3.895  10.695   7.356
99087SOL    HW299036   4.024  10.661   7.283
99088SOL     OW99037   5.803   7.472   0.388
99088SOL    HW199038   5.833   7.506   0.472
99088SOL    HW299039   5.708   7.468   0.396
99089SOL     OW99040  11.819   5.337   7.766
99089SOL    HW199041  11.897   5.283   7.769
99089SOL    HW299042  11.816   5.370   7.676
99090SOL     OW99043   1.873   8.279  10.301
99090SOL    HW199044   1.914   8.219  10.363
99090SOL    HW299045   1.934   8.283  10.228
99091SOL     OW99046   3.387   7.580   3.738
99091SOL    HW199047   3.361   7.513   3.675
99091SOL    HW299048   3.414   7.531   3.815
99092SOL     OW99049  12.320  10.817  10.837
99092SOL    HW199050  12.262  10.765  10.893
99092SOL    HW299051  12.307  10.781  10.749
99093SOL     OW99052   7.839  14.434   6.555
99093SOL    HW199053   7.906  14.498   6.579
99093SOL    HW299054   7.797  14.411   6.637
99094SOL     OW99055   5.012  12.843   5.847
99094SOL    HW199056   5.072  12.880   5.913
99094SOL    HW299057   5.054  12.762   5.819
99095SOL     OW99058   1.767   4.113  11.228
99095SOL    HW199059   1.839   4.051  11.244
99095SOL    HW299060   1.690   4.069  11.264
99096SOL     OW99061  13.020  14.841   1.270
99096SOL    HW199062  13.029   0.057   1.253
99096SOL    HW299063  12.954  14.836   1.339
99097SOL     OW99064   9.231   0.976   6.989
99097SOL    HW199065   9.309   1.013   6.948
99097SOL    HW299066   9.245   0.987   7.083
99098SOL     OW99067   6.623   7.924   0.061
99098SOL    HW199068   6.714   7.893   0.061
99098SOL    HW299069   6.615   7.976   0.141
99099SOL     OW99070   7.595   5.562  13.573
99099SOL    HW199071   7.642   5.481  13.556
99099SOL    HW299072   7.528   5.538  13.637
99100SOL     OW99073   1.476   1.765   5.898
99100SOL    HW199074   1.572   1.762   5.891
99100SOL    HW299075   1.445   1.689   5.849
99101SOL     OW99076   9.546   2.363   2.473
99101SOL    HW199077   9.564   2.288   2.529
99101SOL    HW299078   9.576   2.439   2.524
99102SOL     OW99079   2.437   6.545  12.999
99102SOL    HW199080   2.351   6.579  13.021
99102SOL    HW299081   2.454   6.576  12.910
99103SOL     OW99082  13.588   5.074   3.171
99103SOL    HW199083  13.634   5.114   3.244
99103SOL    HW299084  13.631   5.110   3.093
99104SOL     OW99085   3.742   3.514  12.038
99104SOL    HW199086   3.738   3.425  12.003
99104SOL    HW299087   3.833   3.524  12.066
99105SOL     OW99088  10.598   9.446  11.874
99105SOL    HW199089  10.607   9.351  11.882
99105SOL    HW299090  10.554   9.473  11.955
99106SOL     OW99091  13.735  10.308   2.385
99106SOL    HW199092  13.736  10.277   2.294
99106SOL    HW299093  13.810  10.266   2.426
99107SOL     OW99094   2.554   0.729  12.468
99107SOL    HW199095   2.495   0.694  12.535
99107SOL    HW299096   2.507   0.715  12.386
99108SOL     OW99097   4.312   1.633   1.237
99108SOL    HW199098   4.247   1.613   1.170
99108SOL    HW299099   4.260   1.656   1.314
99109SOL     OW99100  10.229   3.065   4.844
99109SOL    HW199101  10.267   3.139   4.891
99109SOL    HW299102  10.207   3.002   4.912
99110SOL     OW99103   9.108  10.411   2.197
99110SOL    HW199104   9.198  10.441   2.183
99110SOL    HW299105   9.112  10.360   2.277
99111SOL     OW99106   4.533   0.561   4.702
99111SOL    HW199107   4.542   0.656   4.710
99111SOL    HW299108   4.613   0.526   4.742
99112SOL     OW99109   2.296  12.946  13.032
99112SOL    HW199110   2.294  13.041  13.025
99112SOL    HW299111   2.304  12.929  13.126
99113SOL     OW99112   5.655   4.458   5.605
99113SOL    HW199113   5.613   4.413   5.532
99113SOL    HW299114   5.635   4.403   5.681
99114SOL     OW99115  10.271   5.884  12.307
99114SOL    HW199116  10.199   5.941  12.279
99114SOL    HW299117  10.339   5.897  12.241
99115SOL     OW99118   7.474   7.902  14.304
99115SOL    HW199119   7.410   7.941  14.364
99115SOL    HW299120   7.556   7.947  14.324
99116SOL     OW99121  13.155   9.426  10.498
99116SOL    HW199122  13.174   9.489  10.429
99116SOL    HW299123  13.170   9.473  10.580
99117SOL     OW99124   7.322   6.238   9.139
99117SOL    HW199125   7.306   6.221   9.047
99117SOL    HW299126   7.416   6.222   9.150
99118SOL     OW99127   3.055   5.699   3.497
99118SOL    HW199128   3.027   5.609   3.516
99118SOL    HW299129   3.137   5.709   3.546
99119SOL     OW99130   9.095   3.798  11.260
99119SOL    HW199131   9.152   3.875  11.248
99119SOL    HW299132   9.023   3.813  11.199
99120SOL     OW99133   9.674  11.363   5.347
99120SOL    HW199134   9.727  11.355   5.427
99120SOL    HW299135   9.735  11.399   5.282
99121SOL     OW99136  12.804   2.893   0.516
99121SOL    HW199137  12.891   2.896   0.477
99121SOL    HW299138  12.803   2.968   0.576
99122SOL     OW99139   7.413   7.710   3.778
99122SOL    HW199140   7.417   7.797   3.739
99122SOL    HW299141   7.480   7.712   3.847
99123SOL     OW99142  12.289   8.412   7.326
99123SOL    HW199143  12.288   8.331   7.376
99123SOL    HW299144  12.381   8.423   7.301
99124SOL     OW99145  13.744  14.632   5.720
99124SOL    HW199146  13.786  14.547   5.733
99124SOL    HW299147  13.814  14.691   5.695
99125SOL     OW99148   2.833   9.251   1.235
99125SOL    HW199149   2.885   9.176   1.206
99125SOL    HW299150   2.819   9.303   1.156
99126SOL     OW99151  12.963   0.466   8.268
99126SOL    HW199152  12.985   0.375   8.247
99126SOL    HW299153  13.035   0.495   8.325
99127SOL     OW99154   8.248  13.680   7.680
99127SOL    HW199155   8.204  13.603   7.718
99127SOL    HW299156   8.228  13.751   7.741
99128SOL     OW99157   2.048   4.351   1.998
99128SOL    HW199158   2.049   4.346   2.094
99128SOL    HW299159   2.127   4.399   1.976
99129SOL     OW99160   3.317  11.976  14.267
99129SOL    HW199161   3.244  11.997  14.208
99129SOL    HW299162   3.390  11.954  14.208
99130SOL     OW99163  14.419  11.890   4.166
99130SOL    HW199164  14.356  11.820   4.175
99130SOL    HW299165  14.371  11.969   4.191
99131SOL     OW99166   5.603  12.166  13.308
99131SOL    HW199167   5.566  12.233  13.366
99131SOL    HW299168   5.687  12.202  13.279
99132SOL     OW99169  11.289   5.788   3.746
99132SOL    HW199170  11.302   5.710   3.692
99132SOL    HW299171  11.246   5.755   3.825
99133SOL     OW99172   1.602  14.664  11.446
99133SOL    HW199173   1.599  14.710  11.531
99133SOL    HW299174   1.683  14.613  11.449
99134SOL     OW99175   7.625   7.409   6.292
99134SOL    HW199176   7.591   7.484   6.242
99134SOL    HW299177   7.696   7.445   6.344
99135SOL     OW99178   9.620   3.033  13.853
99135SOL    HW199179   9.527   3.040  13.832
99135SOL    HW299180   9.656   2.979  13.783
99136SOL     OW99181   4.162  10.149   9.027
99136SOL    HW199182   4.235  10.138   8.966
99136SOL    HW299183   4.123  10.062   9.034
99137SOL     OW99184   6.521  11.159   5.814
99137SOL    HW199185   6.479  11.243   5.794
99137SOL    HW299186   6.568  11.174   5.896
99138SOL     OW99187   6.308  13.557   9.493
99138SOL    HW199188   6.288  13.562   9.586
99138SOL    HW299189   6.337  13.467   9.479
99139SOL     OW99190   1.646   1.639   4.854
99139SOL    HW199191   1.725   1.625   4.802
99139SOL    HW299192   1.618   1.551   4.878
99140SOL     OW99193   9.458   3.786  12.308
99140SOL    HW199194   9.461   3.737  12.390
99140SOL    HW299195   9.545   3.824  12.299
99141SOL     OW99196   6.400  11.469   5.278
99141SOL    HW199197   6.333  11.452   5.211
99141SOL    HW299198   6.356  11.524   5.343
99142SOL     OW99199  11.655   6.350   7.124
99142SOL    HW199200  11.674   6.441   7.099
99142SOL    HW299201  11.566   6.335   7.092
99143SOL     OW99202   9.133  12.938   0.907
99143SOL    HW199203   9.168  12.996   0.840
99143SOL    HW299204   9.048  12.909   0.872
99144SOL     OW99205  14.389   2.560  10.048
99144SOL    HW199206  14.468   2.587  10.094
99144SOL    HW299207  14.368   2.473  10.084
99145SOL     OW99208  13.167   4.456   0.933
99145SOL    HW199209  13.101   4.484   0.995
99145SOL    HW299210  13.122   4.454   0.849
99146SOL     OW99211   2.092   4.295   8.943
99146SOL    HW199212   2.114   4.233   8.874
99146SOL    HW299213   2.053   4.369   8.897
99147SOL     OW99214   3.357  12.640  14.398
99147SOL    HW199215   3.449  12.629  14.372
99147SOL    HW299216   3.359  12.704  14.469
99148SOL     OW99217  11.281   2.020   7.566
99148SOL    HW199218  11.334   1.947   7.597
99148SOL    HW299219  11.192   2.000   7.597
99149SOL     OW99220   4.650   8.192   5.284
99149SOL    HW199221   4.564   8.153   5.298
99149SOL    HW299222   4.633   8.273   5.236
99150SOL     OW99223   5.259   0.684  14.489
99150SOL    HW199224   5.283   0.702  14.580
99150SOL    HW299225   5.194   0.750  14.468
99151SOL     OW99226  12.212   2.099  11.246
99151SOL    HW199227  12.123   2.128  11.267
99151SOL    HW299228  12.269   2.168  11.280
99152SOL     OW99229   3.229   8.812  12.559
99152SOL    HW199230   3.273   8.864  12.492
99152SOL    HW299231   3.199   8.734  12.513
99153SOL     OW99232  11.929   6.195   6.846
99153SOL    HW199233  11.942   6.101   6.834
99153SOL    HW299234  11.939   6.208   6.941
99154SOL     OW99235  14.610   8.471   6.677
99154SOL    HW199236  14.691   8.514   6.650
99154SOL    HW299237  14.542   8.537   6.665
99155SOL     OW99238   3.339  14.855   9.350
99155SOL    HW199239   3.351   0.055   9.296
99155SOL    HW299240   3.294   0.009   9.428
99156SOL     OW99241   1.369   8.966   4.166
99156SOL    HW199242   1.453   8.944   4.126
99156SOL    HW299243   1.310   8.897   4.137
99157SOL     OW99244  10.686  13.181   8.458
99157SOL    HW199245  10.664  13.196   8.366
99157SOL    HW299246  10.601  13.169   8.501
99158SOL     OW99247  12.052   5.193   7.773
99158SOL    HW199248  12.096   5.114   7.741
99158SOL    HW299249  12.096   5.213   7.856
99159SOL     OW99250   4.934   5.734   4.177
99159SOL    HW199251   5.016   5.768   4.141
99159SOL    HW299252   4.956   5.708   4.267
99160SOL     OW99253   5.814  10.765  14.421
99160SOL    HW199254   5.903  10.744  14.393
99160SOL    HW299255   5.826  10.827  14.493
99161SOL     OW99256   6.316   4.317  14.413
99161SOL    HW199257   6.342   4.279  14.329
99161SOL    HW299258   6.375   4.276  14.477
99162SOL     OW99259   1.486  11.661   8.301
99162SOL    HW199260   1.397  11.635   8.278
99162SOL    HW299261   1.513  11.720   8.231
99163SOL     OW99262   5.831  12.679   1.785
99163SOL    HW199263   5.906  12.647   1.734
99163SOL    HW299264   5.844  12.640   1.872
99164SOL     OW99265   0.609   2.934   5.617
99164SOL    HW199266   0.570   3.016   5.646
99164SOL    HW299267   0.541   2.893   5.563
99165SOL     OW99268  10.703  10.598  11.647
99165SOL    HW199269  10.646  10.532  11.606
99165SOL    HW299270  10.701  10.672  11.586
99166SOL     OW99271  14.590   8.886  12.256
99166SOL    HW199272  14.611   8.849  12.170
99166SOL    HW299273  14.672   8.883  12.305
99167SOL     OW99274   9.751  12.299   7.852
99167SOL    HW199275   9.828  12.251   7.820
99167SOL    HW299276   9.788  12.376   7.896
99168SOL     OW99277   0.155  14.587   3.127
99168SOL    HW199278   0.178  14.570   3.218
99168SOL    HW299279   0.175  14.505   3.081
99169SOL     OW99280   6.660   1.583   2.300
99169SOL    HW199281   6.654   1.537   2.383
99169SOL    HW299282   6.752   1.611   2.295
99170SOL     OW99283  11.162   7.872   0.886
99170SOL    HW199284  11.098   7.879   0.957
99170SOL    HW299285  11.237   7.922   0.917
99171SOL     OW99286   9.584  13.568  14.253
99171SOL    HW199287   9.619  13.578  14.341
99171SOL    HW299288   9.517  13.637  14.246
99172SOL     OW99289  11.083  12.141   2.459
99172SOL    HW199290  11.068  12.211   2.522
99172SOL    HW299291  11.045  12.063   2.500
99173SOL     OW99292   3.822  14.403   1.435
99173SOL    HW199293   3.846  14.321   1.392
99173SOL    HW299294   3.744  14.432   1.388
99174SOL     OW99295   2.554   7.001   4.475
99174SOL    HW199296   2.542   6.906   4.470
99174SOL    HW299297   2.604   7.023   4.396
99175SOL     OW99298  12.100   9.502  12.159
99175SOL    HW199299  12.150   9.581  12.180
99175SOL    HW299300  12.058   9.522  12.075
99176SOL     OW99301   6.049   1.955  13.269
99176SOL    HW199302   6.091   1.957  13.183
99176SOL    HW299303   6.093   2.024  13.319
99177SOL     OW99304   5.392   0.438   9.108
99177SOL    HW199305   5.482   0.450   9.140
99177SOL    HW299306   5.402   0.382   9.031
99178SOL     OW99307   5.773   2.147   2.052
99178SOL    HW199308   5.765   2.222   1.993
99178SOL    HW299309   5.751   2.072   1.997
99179SOL     OW99310   1.380   8.929   4.624
99179SOL    HW199311   1.411   8.838   4.629
99179SOL    HW299312   1.336   8.935   4.539
99180SOL     OW99313   7.804   5.672  11.929
99180SOL    HW199314   7.719   5.647  11.894
99180SOL    HW299315   7.799   5.767  11.939
99181SOL     OW99316   8.850  14.000   2.272
99181SOL    HW199317   8.901  13.976   2.349
99181SOL    HW299318   8.833  13.917   2.228
99182SOL     OW99319   5.662   9.911   7.591
99182SOL    HW199320   5.604   9.840   7.619
99182SOL    HW299321   5.717   9.872   7.523
99183SOL     OW99322   4.373   1.968   2.350
99183SOL    HW199323   4.337   1.955   2.262
99183SOL    HW299324   4.379   2.063   2.359
99184SOL     OW99325   5.886  11.753   2.590
99184SOL    HW199326   5.887  11.658   2.593
99184SOL    HW299327   5.897  11.774   2.498
99185SOL     OW99328  11.092   0.601   2.484
99185SOL    HW199329  11.113   0.643   2.567
99185SOL    HW299330  11.136   0.654   2.418
99186SOL     OW99331   7.141   3.872   0.347
99186SOL    HW199332   7.230   3.878   0.384
99186SOL    HW299333   7.155   3.852   0.254
99187SOL     OW99334   0.147  11.158   6.903
99187SOL    HW199335   0.240  11.168   6.882
99187SOL    HW299336   0.140  11.185   6.994
99188SOL     OW99337  13.644   2.766   2.910
99188SOL    HW199338  13.644   2.690   2.853
99188SOL    HW299339  13.652   2.729   2.999
99189SOL     OW99340   8.299  13.321  14.762
99189SOL    HW199341   8.376  13.361  14.803
99189SOL    HW299342   8.335  13.272  14.688
99190SOL     OW99343   9.004   6.894  11.057
99190SOL    HW199344   8.961   6.920  11.138
99190SOL    HW299345   8.987   6.800  11.049
99191SOL     OW99346  14.170   9.213   5.560
99191SOL    HW199347  14.232   9.167   5.616
99191SOL    HW299348  14.127   9.275   5.619
99192SOL     OW99349   0.127   3.418   5.659
99192SOL    HW199350   0.056   3.397   5.721
99192SOL    HW299351   0.159   3.503   5.688
99193SOL     OW99352   7.805   5.966  12.429
99193SOL    HW199353   7.868   6.027  12.467
99193SOL    HW299354   7.821   5.883  12.475
99194SOL     OW99355  11.730   0.286  13.666
99194SOL    HW199356  11.804   0.303  13.725
99194SOL    HW299357  11.741   0.348  13.594
99195SOL     OW99358   9.495   9.627   2.682
99195SOL    HW199359   9.433   9.674   2.626
99195SOL    HW299360   9.472   9.652   2.771
99196SOL     OW99361  10.435   3.709   6.067
99196SOL    HW199362  10.385   3.790   6.053
99196SOL    HW299363  10.373   3.639   6.048
99197SOL     OW99364   1.175   5.400   7.276
99197SOL    HW199365   1.225   5.318   7.277
99197SOL    HW299366   1.083   5.372   7.284
99198SOL     OW99367   7.625   9.679   8.464
99198SOL    HW199368   7.676   9.623   8.522
99198SOL    HW299369   7.677   9.687   8.385
99199SOL     OW99370   8.672  12.952   3.173
99199SOL    HW199371   8.590  12.907   3.193
99199SOL    HW299372   8.645  13.035   3.134
99200SOL     OW99373   3.453   8.278   2.246
99200SOL    HW199374   3.483   8.324   2.324
99200SOL    HW299375   3.489   8.190   2.254
99201SOL     OW99376   5.779  14.534  14.040
99201SOL    HW199377   5.714  14.502  13.977
99201SOL    HW299378   5.778  14.470  14.111
99202SOL     OW99379   4.609  14.236   0.576
99202SOL    HW199380   4.565  14.238   0.491
99202SOL    HW299381   4.538  14.226   0.639
99203SOL     OW99382   4.616  13.000   0.932
99203SOL    HW199383   4.541  13.059   0.931
99203SOL    HW299384   4.581  12.916   0.903
99204SOL     OW99385   7.868   1.035  10.576
99204SOL    HW199386   7.945   1.092  10.575
99204SOL    HW299387   7.794   1.095  10.590
99205SOL     OW99388  12.771   1.736   6.109
99205SOL    HW199389  12.695   1.795   6.107
99205SOL    HW299390  12.788   1.722   6.203
99206SOL     OW99391   0.049   5.561   7.885
99206SOL    HW199392   0.067   5.655   7.885
99206SOL    HW299393   0.035   5.539   7.793
99207SOL     OW99394   7.616  13.575   2.529
99207SOL    HW199395   7.584  13.506   2.586
99207SOL    HW299396   7.646  13.644   2.588
99208SOL     OW99397   6.224   5.173   4.281
99208SOL    HW199398   6.173   5.174   4.362
99208SOL    HW299399   6.304   5.221   4.301
99209SOL     OW99400   9.116   5.315  10.323
99209SOL    HW199401   9.117   5.265  10.242
99209SOL    HW299402   9.198   5.291  10.367
99210SOL     OW99403   4.431   1.936  14.360
99210SOL    HW199404   4.409   1.923  14.452
99210SOL    HW299405   4.526   1.944  14.359
99211SOL     OW99406   5.745  13.227   0.431
99211SOL    HW199407   5.789  13.211   0.347
99211SOL    HW299408   5.762  13.148   0.482
99212SOL     OW99409   0.744   8.494  10.651
99212SOL    HW199410   0.670   8.555  10.661
99212SOL    HW299411   0.819   8.550  10.633
99213SOL     OW99412   1.295   9.418  12.572
99213SOL    HW199413   1.240   9.345  12.544
99213SOL    HW299414   1.321   9.461  12.491
99214SOL     OW99415  11.158   9.545  12.646
99214SOL    HW199416  11.191   9.480  12.583
99214SOL    HW299417  11.084   9.502  12.688
99215SOL     OW99418  14.608   3.403  10.976
99215SOL    HW199419  14.562   3.354  10.908
99215SOL    HW299420  14.643   3.335  11.034
99216SOL     OW99421  12.599   3.764   2.660
99216SOL    HW199422  12.504   3.770   2.649
99216SOL    HW299423  12.610   3.708   2.737
99217SOL     OW99424   3.921   9.380  11.505
99217SOL    HW199425   3.993   9.394  11.443
99217SOL    HW299426   3.846   9.356  11.450
99218SOL     OW99427   1.417  11.061   4.623
99218SOL    HW199428   1.428  11.025   4.535
99218SOL    HW299429   1.500  11.044   4.667
99219SOL     OW99430   4.971   0.877  10.304
99219SOL    HW199431   4.945   0.914  10.388
99219SOL    HW299432   4.939   0.940  10.239
99220SOL     OW99433  11.950   3.268  12.934
99220SOL    HW199434  11.931   3.238  12.845
99220SOL    HW299435  11.865   3.291  12.971
99221SOL     OW99436  11.876  10.449   5.808
99221SOL    HW199437  11.882  10.544   5.797
99221SOL    HW299438  11.809  10.422   5.745
99222SOL     OW99439   4.978   1.450   9.582
99222SOL    HW199440   4.997   1.394   9.507
99222SOL    HW299441   4.890   1.484   9.566
99223SOL     OW99442   7.040  10.818   1.504
99223SOL    HW199443   7.014  10.761   1.431
99223SOL    HW299444   7.053  10.758   1.578
99224SOL     OW99445   8.504  11.159  12.687
99224SOL    HW199446   8.472  11.164  12.597
99224SOL    HW299447   8.542  11.072  12.694
99225SOL     OW99448   6.907   5.827   2.610
99225SOL    HW199449   6.866   5.910   2.586
99225SOL    HW299450   6.972   5.850   2.675
99226SOL     OW99451  11.921   1.798   5.183
99226SOL    HW199452  12.000   1.746   5.200
99226SOL    HW299453  11.901   1.839   5.267
99227SOL     OW99454   2.892   5.170  11.939
99227SOL    HW199455   2.977   5.129  11.956
99227SOL    HW299456   2.834   5.134  12.006
99228SOL     OW99457  14.444  13.651   0.369
99228SOL    HW199458  14.415  13.604   0.448
99228SOL    HW299459  14.363  13.681   0.328
99229SOL     OW99460  11.107   9.116   2.435
99229SOL    HW199461  11.128   9.184   2.372
99229SOL    HW299462  11.038   9.154   2.490
99230SOL     OW99463  11.930  14.799   2.849
99230SOL    HW199464  11.884  14.734   2.901
99230SOL    HW299465  12.010  14.755   2.820
99231SOL     OW99466   0.828  12.587  11.177
99231SOL    HW199467   0.821  12.674  11.218
99231SOL    HW299468   0.871  12.533  11.244
99232SOL     OW99469  10.709   1.706  11.706
99232SOL    HW199470  10.618   1.728  11.685
99232SOL    HW299471  10.744   1.784  11.748
99233SOL     OW99472   5.325   5.539  10.723
99233SOL    HW199473   5.360   5.613  10.672
99233SOL    HW299474   5.296   5.476  10.656
99234SOL     OW99475   8.226   4.205   5.904
99234SOL    HW199476   8.274   4.133   5.946
99234SOL    HW299477   8.217   4.177   5.813
99235SOL     OW99478   3.470  13.800  14.175
99235SOL    HW199479   3.552  13.756  14.154
99235SOL    HW299480   3.410  13.777  14.104
99236SOL     OW99481   6.750  13.931   9.227
99236SOL    HW199482   6.689  13.982   9.175
99236SOL    HW299483   6.718  13.940   9.317
99237SOL     OW99484   9.068   7.455   6.824
99237SOL    HW199485   9.134   7.403   6.870
99237SOL    HW299486   8.987   7.441   6.873
99238SOL     OW99487   6.518   9.199   5.717
99238SOL    HW199488   6.603   9.201   5.673
99238SOL    HW299489   6.538   9.180   5.808
99239SOL     OW99490  14.667  12.917   9.990
99239SOL    HW199491  14.698  12.921   9.899
99239SOL    HW299492  14.591  12.860   9.987
99240SOL     OW99493  10.282   2.707   6.827
99240SOL    HW199494  10.342   2.678   6.896
99240SOL    HW299495  10.271   2.801   6.844
99241SOL     OW99496  12.229   4.911   4.288
99241SOL    HW199497  12.241   5.002   4.313
99241SOL    HW299498  12.218   4.864   4.370
99242SOL     OW99499  11.779   3.271   5.089
99242SOL    HW199500  11.702   3.315   5.124
99242SOL    HW299501  11.813   3.220   5.162
99243SOL     OW99502  12.278  14.502   9.941
99243SOL    HW199503  12.235  14.421   9.970
99243SOL    HW299504  12.300  14.487   9.849
99244SOL     OW99505   5.635   0.720   3.356
99244SOL    HW199506   5.541   0.734   3.350
99244SOL    HW299507   5.644   0.624   3.358
99245SOL     OW99508   1.970   0.101   8.904
99245SOL    HW199509   2.054   0.072   8.940
99245SOL    HW299510   1.954   0.186   8.946
99246SOL     OW99511  11.479   4.836  12.926
99246SOL    HW199512  11.501   4.924  12.955
99246SOL    HW299513  11.437   4.796  13.002
99247SOL     OW99514   6.219   0.397   0.704
99247SOL    HW199515   6.309   0.379   0.674
99247SOL    HW299516   6.227   0.477   0.756
99248SOL     OW99517  13.444   7.536  12.310
99248SOL    HW199518  13.492   7.612  12.279
99248SOL    HW299519  13.511   7.481  12.352
99249SOL     OW99520   7.612  12.676   6.712
99249SOL    HW199521   7.619  12.690   6.806
99249SOL    HW299522   7.540  12.734   6.685
99250SOL     OW99523   0.075  10.667   9.900
99250SOL    HW199524   0.054  10.577   9.925
99250SOL    HW299525   0.164  10.681   9.930
99251SOL     OW99526  14.374   3.881   2.202
99251SOL    HW199527  14.361   3.919   2.115
99251SOL    HW299528  14.469   3.871   2.210
99252SOL     OW99529   9.807   6.877   7.208
99252SOL    HW199530   9.736   6.822   7.175
99252SOL    HW299531   9.768   6.924   7.282
99253SOL     OW99532   3.171   4.371   5.685
99253SOL    HW199533   3.250   4.388   5.635
99253SOL    HW299534   3.199   4.315   5.757
99254SOL     OW99535   3.623   3.005  10.302
99254SOL    HW199536   3.586   2.949  10.233
99254SOL    HW299537   3.637   3.089  10.259
99255SOL     OW99538   3.741  11.354  10.667
99255SOL    HW199539   3.697  11.437  10.648
99255SOL    HW299540   3.750  11.352  10.762
99256SOL     OW99541   9.855   6.655   4.208
99256SOL    HW199542   9.817   6.678   4.123
99256SOL    HW299543   9.811   6.574   4.232
99257SOL     OW99544   5.790   2.707   4.214
99257SOL    HW199545   5.843   2.712   4.293
99257SOL    HW299546   5.837   2.646   4.157
99258SOL     OW99547  10.243  13.495   6.671
99258SOL    HW199548  10.256  13.417   6.725
99258SOL    HW299549  10.297  13.481   6.593
99259SOL     OW99550   4.796   0.836  11.181
99259SOL    HW199551   4.751   0.822  11.264
99259SOL    HW299552   4.855   0.761  11.173
99260SOL     OW99553   7.812  13.499  14.247
99260SOL    HW199554   7.814  13.460  14.335
99260SOL    HW299555   7.896  13.545  14.240
99261SOL     OW99556   6.495   0.632   2.351
99261SOL    HW199557   6.462   0.671   2.432
99261SOL    HW299558   6.566   0.691   2.324
99262SOL     OW99559  12.378  10.505   5.129
99262SOL    HW199560  12.332  10.491   5.212
99262SOL    HW299561  12.393  10.417   5.095
99263SOL     OW99562   3.118   5.696  13.483
99263SOL    HW199563   3.075   5.767  13.531
99263SOL    HW299564   3.201   5.734  13.455
99264SOL     OW99565  12.562   7.438   2.635
99264SOL    HW199566  12.471   7.442   2.663
99264SOL    HW299567  12.563   7.375   2.563
99265SOL     OW99568   9.837  10.694  11.993
99265SOL    HW199569   9.834  10.674  12.086
99265SOL    HW299570   9.851  10.609  11.950
99266SOL     OW99571  12.311   9.168   5.156
99266SOL    HW199572  12.313   9.107   5.082
99266SOL    HW299573  12.253   9.127   5.220
99267SOL     OW99574  11.617   5.864   5.179
99267SOL    HW199575  11.567   5.944   5.166
99267SOL    HW299576  11.568   5.816   5.247
99268SOL     OW99577  14.472  13.052   0.502
99268SOL    HW199578  14.448  12.961   0.518
99268SOL    HW299579  14.473  13.093   0.589
99269SOL     OW99580   8.813  10.422   7.838
99269SOL    HW199581   8.761  10.342   7.848
99269SOL    HW299582   8.896  10.391   7.800
99270SOL     OW99583   9.001   9.444   7.637
99270SOL    HW199584   8.981   9.351   7.625
99270SOL    HW299585   8.959   9.487   7.563
99271SOL     OW99586   2.390   8.718   7.335
99271SOL    HW199587   2.420   8.764   7.256
99271SOL    HW299588   2.443   8.638   7.338
99272SOL     OW99589   7.494   8.607  14.757
99272SOL    HW199590   7.536   8.575  14.837
99272SOL    HW299591   7.495   8.532  14.698
99273SOL     OW99592   7.125   1.717   5.373
99273SOL    HW199593   7.147   1.745   5.284
99273SOL    HW299594   7.033   1.690   5.367
99274SOL     OW99595  13.472   5.717  10.498
99274SOL    HW199596  13.426   5.800  10.512
99274SOL    HW299597  13.406   5.650  10.511
99275SOL     OW99598  12.276   1.068   8.558
99275SOL    HW199599  12.315   1.120   8.629
99275SOL    HW299600  12.327   0.987   8.556
99276SOL     OW99601  11.225   8.177  13.389
99276SOL    HW199602  11.212   8.128  13.308
99276SOL    HW299603  11.190   8.120  13.458
99277SOL     OW99604  11.258  14.273   4.254
99277SOL    HW199605  11.243  14.301   4.164
99277SOL    HW299606  11.180  14.222   4.277
99278SOL     OW99607  12.833   7.457  13.610
99278SOL    HW199608  12.757   7.420  13.653
99278SOL    HW299609  12.889   7.382  13.590
99279SOL     OW99610  12.656   1.393   3.293
99279SOL    HW199611  12.683   1.355   3.377
99279SOL    HW299612  12.580   1.341   3.267
99280SOL     OW99613  10.538   2.971  13.299
99280SOL    HW199614  10.536   3.020  13.217
99280SOL    HW299615  10.578   3.031  13.362
99281SOL     OW99616  12.591   8.329  14.322
99281SOL    HW199617  12.679   8.293  14.328
99281SOL    HW299618  12.535   8.252  14.308
99282SOL     OW99619   1.424   2.718   6.088
99282SOL    HW199620   1.477   2.711   6.008
99282SOL    HW299621   1.335   2.730   6.056
99283SOL     OW99622   0.441   6.246   3.828
99283SOL    HW199623   0.511   6.221   3.888
99283SOL    HW299624   0.361   6.212   3.869
99284SOL     OW99625  10.102   1.370   0.993
99284SOL    HW199626  10.193   1.362   1.023
99284SOL    HW299627  10.050   1.330   1.064
99285SOL     OW99628   9.129  14.504   3.214
99285SOL    HW199629   9.219  14.530   3.192
99285SOL    HW299630   9.139  14.436   3.280
99286SOL     OW99631   8.307   0.391   1.919
99286SOL    HW199632   8.255   0.313   1.939
99286SOL    HW299633   8.393   0.357   1.896
99287SOL     OW99634   5.227   6.990  11.074
99287SOL    HW199635   5.242   6.961  11.165
99287SOL    HW299636   5.153   7.050  11.080
99288SOL     OW99637   4.165  10.052   5.320
99288SOL    HW199638   4.201  10.124   5.268
99288SOL    HW299639   4.071  10.069   5.322
99289SOL     OW99640   9.849  10.445  14.812
99289SOL    HW199641   9.907  10.374  14.840
99289SOL    HW299642   9.826  10.424  14.722
99290SOL     OW99643  11.103  14.125  10.412
99290SOL    HW199644  11.133  14.113  10.321
99290SOL    HW299645  11.174  14.174  10.453
99291SOL     OW99646  11.302   5.717   6.342
99291SOL    HW199647  11.296   5.777   6.267
99291SOL    HW299648  11.211   5.693   6.360
99292SOL     OW99649   7.152  14.544   6.188
99292SOL    HW199650   7.063  14.510   6.176
99292SOL    HW299651   7.201  14.513   6.113
99293SOL     OW99652   8.727  11.946  13.896
99293SOL    HW199653   8.791  11.881  13.864
99293SOL    HW299654   8.769  12.030  13.880
99294SOL     OW99655  11.423   0.316   8.684
99294SOL    HW199656  11.369   0.355   8.753
99294SOL    HW299657  11.476   0.251   8.730
99295SOL     OW99658  11.679  10.918  11.026
99295SOL    HW199659  11.693  10.952  11.114
99295SOL    HW299660  11.720  10.984  10.969
99296SOL     OW99661   5.344   1.837  12.881
99296SOL    HW199662   5.405   1.844  12.954
99296SOL    HW299663   5.400   1.823  12.804
99297SOL     OW99664   0.872   6.935   6.065
99297SOL    HW199665   0.928   6.895   6.000
99297SOL    HW299666   0.818   6.997   6.016
99298SOL     OW99667   6.474   2.986   3.526
99298SOL    HW199668   6.565   2.969   3.504
99298SOL    HW299669   6.426   2.975   3.444
99299SOL     OW99670  14.099  14.005   1.442
99299SOL    HW199671  14.023  13.949   1.425
99299SOL    HW299672  14.172  13.945   1.456
99300SOL     OW99673   5.575  14.376   1.308
99300SOL    HW199674   5.551  14.425   1.387
99300SOL    HW299675   5.657  14.331   1.332
99301SOL     OW99676   6.482  13.690   9.321
99301SOL    HW199677   6.501  13.630   9.249
99301SOL    HW299678   6.404  13.653   9.363
99302SOL     OW99679  14.872   6.584   0.693
99302SOL    HW199680   0.037   6.664   0.661
99302SOL    HW299681   0.061   6.541   0.746
99303SOL     OW99682  14.307   2.463  13.922
99303SOL    HW199683  14.343   2.380  13.952
99303SOL    HW299684  14.219   2.442  13.891
99304SOL     OW99685   6.905   5.539  11.905
99304SOL    HW199686   6.922   5.537  11.811
99304SOL    HW299687   6.913   5.448  11.934
99305SOL     OW99688   8.682   2.715   6.173
99305SOL    HW199689   8.595   2.754   6.169
99305SOL    HW299690   8.671   2.629   6.133
99306SOL     OW99691   2.855   6.491   9.812
99306SOL    HW199692   2.891   6.578   9.825
99306SOL    HW299693   2.908   6.434   9.869
99307SOL     OW99694   4.616   6.823   7.990
99307SOL    HW199695   4.561   6.771   7.931
99307SOL    HW299696   4.575   6.909   7.991
99308SOL     OW99697   5.352   9.992   4.782
99308SOL    HW199698   5.404   9.912   4.782
99308SOL    HW299699   5.337  10.010   4.689
99309SOL     OW99700  14.256   3.838   0.881
99309SOL    HW199701  14.272   3.872   0.968
99309SOL    HW299702  14.340   3.801   0.853
99310SOL     OW99703   3.795   5.243   8.616
99310SOL    HW199704   3.726   5.184   8.586
99310SOL    HW299705   3.758   5.287   8.693
99311SOL     OW99706  10.262   1.412  11.986
99311SOL    HW199707  10.178   1.392  11.946
99311SOL    HW299708  10.243   1.482  12.049
99312SOL     OW99709   8.905   5.190   8.779
99312SOL    HW199710   8.993   5.191   8.742
99312SOL    HW299711   8.917   5.162   8.869
99313SOL     OW99712  11.232   3.112  14.045
99313SOL    HW199713  11.307   3.160  14.081
99313SOL    HW299714  11.247   3.111  13.951
99314SOL     OW99715  12.869   5.226   0.983
99314SOL    HW199716  12.874   5.254   1.074
99314SOL    HW299717  12.865   5.130   0.987
99315SOL     OW99718   1.585   7.541   5.092
99315SOL    HW199719   1.568   7.563   5.183
99315SOL    HW299720   1.521   7.474   5.070
99316SOL     OW99721  12.389  11.368   7.422
99316SOL    HW199722  12.298  11.353   7.398
99316SOL    HW299723  12.423  11.425   7.352
99317SOL     OW99724  12.271  11.939  13.852
99317SOL    HW199725  12.283  11.892  13.935
99317SOL    HW299726  12.336  12.010  13.856
99318SOL     OW99727   6.970   0.740  14.749
99318SOL    HW199728   6.895   0.781  14.705
99318SOL    HW299729   6.946   0.648  14.756
99319SOL     OW99730  13.615   1.385   4.706
99319SOL    HW199731  13.621   1.392   4.801
99319SOL    HW299732  13.567   1.304   4.690
99320SOL     OW99733   4.802   7.757   2.923
99320SOL    HW199734   4.732   7.698   2.895
99320SOL    HW299735   4.875   7.699   2.944
99321SOL     OW99736   8.221   7.038   9.841
99321SOL    HW199737   8.126   7.031   9.828
99321SOL    HW299738   8.238   6.989   9.922
99322SOL     OW99739   3.174   2.737   4.937
99322SOL    HW199740   3.207   2.655   4.899
99322SOL    HW299741   3.146   2.713   5.025
99323SOL     OW99742   2.237  10.511   3.585
99323SOL    HW199743   2.160  10.532   3.532
99323SOL    HW299744   2.301  10.578   3.561
99324SOL     OW99745   1.981   6.692   1.122
99324SOL    HW199746   2.055   6.740   1.085
99324SOL    HW299747   1.910   6.705   1.060
99325SOL     OW99748  14.440   2.939   8.453
99325SOL    HW199749  14.506   2.914   8.518
99325SOL    HW299750  14.396   2.856   8.431
99326SOL     OW99751   6.621   2.502   8.929
99326SOL    HW199752   6.530   2.493   8.902
99326SOL    HW299753   6.634   2.432   8.993
99327SOL     OW99754  14.790   9.151  12.156
99327SOL    HW199755  14.751   9.195  12.232
99327SOL    HW299756  14.718   9.143  12.094
99328SOL     OW99757  13.829   7.941  14.496
99328SOL    HW199758  13.918   7.972  14.511
99328SOL    HW299759  13.808   7.889  14.573
99329SOL     OW99760   7.203   3.583  12.588
99329SOL    HW199761   7.182   3.608  12.678
99329SOL    HW299762   7.298   3.597  12.580
99330SOL     OW99763   4.381  12.880   5.654
99330SOL    HW199764   4.303  12.867   5.709
99330SOL    HW299765   4.347  12.888   5.565
99331SOL     OW99766   8.673   4.581   5.531
99331SOL    HW199767   8.714   4.605   5.614
99331SOL    HW299768   8.686   4.657   5.475
99332SOL     OW99769   1.012  13.445   2.517
99332SOL    HW199770   0.937  13.460   2.575
99332SOL    HW299771   1.081  13.502   2.550
99333SOL     OW99772   4.254   3.859   7.802
99333SOL    HW199773   4.241   3.764   7.803
99333SOL    HW299774   4.341   3.872   7.838
99334SOL     OW99775  13.402   1.463   2.159
99334SOL    HW199776  13.444   1.451   2.074
99334SOL    HW299777  13.329   1.523   2.141
99335SOL     OW99778   1.109   3.087   1.090
99335SOL    HW199779   1.201   3.115   1.091
99335SOL    HW299780   1.112   2.994   1.108
99336SOL     OW99781  13.798  14.502  10.348
99336SOL    HW199782  13.734  14.482  10.416
99336SOL    HW299783  13.831  14.416  10.320
99337SOL     OW99784   6.976   6.534   8.229
99337SOL    HW199785   6.970   6.573   8.316
99337SOL    HW299786   6.914   6.461   8.230
99338SOL     OW99787   8.491   5.062   4.692
99338SOL    HW199788   8.586   5.059   4.695
99338SOL    HW299789   8.469   5.155   4.682
99339SOL     OW99790   4.885   6.241  13.074
99339SOL    HW199791   4.937   6.214  12.999
99339SOL    HW299792   4.920   6.191  13.148
99340SOL     OW99793  13.060  14.703   9.578
99340SOL    HW199794  13.018  14.722   9.494
99340SOL    HW299795  13.104  14.620   9.565
99341SOL     OW99796  14.612  10.065   6.423
99341SOL    HW199797  14.687  10.113   6.389
99341SOL    HW299798  14.558  10.048   6.346
99342SOL     OW99799   6.583   0.380  12.645
99342SOL    HW199800   6.667   0.354  12.684
99342SOL    HW299801   6.600   0.466  12.607
99343SOL     OW99802  12.342   7.597   5.397
99343SOL    HW199803  12.341   7.532   5.467
99343SOL    HW299804  12.378   7.676   5.438
99344SOL     OW99805  12.376   7.444   6.661
99344SOL    HW199806  12.306   7.484   6.711
99344SOL    HW299807  12.363   7.475   6.571
99345SOL     OW99808  14.746   9.341  11.235
99345SOL    HW199809  14.824   9.285  11.230
99345SOL    HW299810  14.766   9.404  11.304
99346SOL     OW99811  13.983   7.941  11.172
99346SOL    HW199812  13.947   8.005  11.234
99346SOL    HW299813  13.908   7.885  11.150
99347SOL     OW99814  11.294   3.670   8.848
99347SOL    HW199815  11.333   3.710   8.926
99347SOL    HW299816  11.366   3.622   8.807
99348SOL     OW99817   4.676   9.425  11.591
99348SOL    HW199818   4.702   9.353  11.649
99348SOL    HW299819   4.646   9.381  11.511
99349SOL     OW99820  14.436   4.289  10.429
99349SOL    HW199821  14.389   4.334  10.359
99349SOL    HW299822  14.510   4.247  10.385
99350SOL     OW99823   5.506   4.923   3.285
99350SOL    HW199824   5.535   4.952   3.199
99350SOL    HW299825   5.411   4.911   3.276
99351SOL     OW99826   6.018   8.836  12.702
99351SOL    HW199827   6.048   8.846  12.611
99351SOL    HW299828   5.925   8.814  12.694
99352SOL     OW99829   7.683  13.976   4.139
99352SOL    HW199830   7.722  13.894   4.169
99352SOL    HW299831   7.679  13.967   4.044
99353SOL     OW99832  10.659   1.551   0.981
99353SOL    HW199833  10.599   1.610   1.027
99353SOL    HW299834  10.716   1.608   0.930
99354SOL     OW99835   9.915   9.320   0.240
99354SOL    HW199836   9.864   9.259   0.293
99354SOL    HW299837   9.927   9.397   0.296
99355SOL     OW99838   7.339   5.756   0.590
99355SOL    HW199839   7.414   5.726   0.539
99355SOL    HW299840   7.281   5.679   0.596
99356SOL     OW99841   9.882   6.494   1.402
99356SOL    HW199842   9.904   6.567   1.344
99356SOL    HW299843   9.799   6.462   1.370
99357SOL     OW99844   4.270   7.267   1.288
99357SOL    HW199845   4.272   7.301   1.199
99357SOL    HW299846   4.316   7.183   1.283
99358SOL     OW99847   7.530   4.523  10.747
99358SOL    HW199848   7.525   4.531  10.652
99358SOL    HW299849   7.490   4.605  10.779
99359SOL     OW99850  10.764   6.286   4.265
99359SOL    HW199851  10.717   6.216   4.221
99359SOL    HW299852  10.828   6.241   4.320
99360SOL     OW99853   3.135   3.006   1.287
99360SOL    HW199854   3.194   2.974   1.218
99360SOL    HW299855   3.065   3.051   1.240
99361SOL     OW99856   8.916   1.611  11.670
99361SOL    HW199857   8.909   1.669  11.593
99361SOL    HW299858   8.904   1.670  11.745
99362SOL     OW99859   9.263   1.942  11.059
99362SOL    HW199860   9.193   1.910  11.116
99362SOL    HW299861   9.325   1.983  11.119
99363SOL     OW99862  14.684  11.247   1.521
99363SOL    HW199863  14.723  11.217   1.439
99363SOL    HW299864  14.673  11.341   1.511
99364SOL     OW99865   9.454   7.973   0.460
99364SOL    HW199866   9.408   7.967   0.544
99364SOL    HW299867   9.384   7.982   0.395
99365SOL     OW99868   0.076  10.045  13.217
99365SOL    HW199869   0.158  10.057  13.264
99365SOL    HW299870   0.092   9.973  13.157
99366SOL     OW99871   2.689   0.412  12.745
99366SOL    HW199872   2.647   0.375  12.667
99366SOL    HW299873   2.736   0.338  12.783
99367SOL     OW99874  13.086   6.319   4.490
99367SOL    HW199875  13.088   6.267   4.571
99367SOL    HW299876  13.138   6.397   4.511
99368SOL     OW99877   4.090   6.310   4.255
99368SOL    HW199878   4.084   6.235   4.197
99368SOL    HW299879   4.169   6.295   4.307
99369SOL     OW99880  11.516   0.275   1.826
99369SOL    HW199881  11.438   0.253   1.775
99369SOL    HW299882  11.574   0.200   1.815
99370SOL     OW99883  11.097   6.169   0.711
99370SOL    HW199884  11.010   6.131   0.721
99370SOL    HW299885  11.084   6.247   0.657
99371SOL     OW99886   7.409   7.432  10.158
99371SOL    HW199887   7.446   7.409  10.243
99371SOL    HW299888   7.481   7.472  10.110
99372SOL     OW99889   3.567  10.603  13.539
99372SOL    HW199890   3.556  10.697  13.553
99372SOL    HW299891   3.658  10.586  13.562
99373SOL     OW99892   8.015   0.065   4.641
99373SOL    HW199893   8.047   0.033   4.726
99373SOL    HW299894   8.061   0.011   4.577
99374SOL     OW99895   8.777   0.695  10.752
99374SOL    HW199896   8.685   0.722  10.748
99374SOL    HW299897   8.825   0.765  10.707
99375SOL     OW99898   7.248  10.909   1.117
99375SOL    HW199899   7.299  10.913   1.036
99375SOL    HW299900   7.307  10.870   1.181
99376SOL     OW99901   6.912   6.444  11.626
99376SOL    HW199902   6.918   6.521  11.682
99376SOL    HW299903   6.889   6.373  11.685
99377SOL     OW99904  13.667  14.732  10.250
99377SOL    HW199905  13.740  14.794  10.256
99377SOL    HW299906  13.709  14.646  10.254
99378SOL     OW99907   0.546   8.774  10.052
99378SOL    HW199908   0.562   8.681  10.036
99378SOL    HW299909   0.630   8.816  10.038
99379SOL     OW99910   1.947   3.785  14.786
99379SOL    HW199911   1.974   3.693  14.786
99379SOL    HW299912   1.990   3.822  14.709
99380SOL     OW99913   3.127  10.750  12.177
99380SOL    HW199914   3.089  10.837  12.193
99380SOL    HW299915   3.164  10.724  12.261
99381SOL     OW99916   2.276   0.885  13.027
99381SOL    HW199917   2.340   0.929  12.972
99381SOL    HW299918   2.254   0.950  13.095
99382SOL     OW99919  12.328   8.589  13.614
99382SOL    HW199920  12.324   8.552  13.702
99382SOL    HW299921  12.237   8.608  13.592
99383SOL     OW99922  12.766   3.798   1.133
99383SOL    HW199923  12.850   3.753   1.130
99383SOL    HW299924  12.736   3.785   1.223
99384SOL     OW99925   0.746   8.545  12.471
99384SOL    HW199926   0.658   8.569  12.443
99384SOL    HW299927   0.791   8.520  12.391
99385SOL     OW99928   2.684   1.457   0.112
99385SOL    HW199929   2.662   1.541   0.073
99385SOL    HW299930   2.662   1.467   0.205
99386SOL     OW99931   5.115   7.874   0.451
99386SOL    HW199932   5.027   7.837   0.443
99386SOL    HW299933   5.172   7.810   0.407
99387SOL     OW99934  13.721   7.974   4.724
99387SOL    HW199935  13.737   7.969   4.819
99387SOL    HW299936  13.635   8.014   4.717
99388SOL     OW99937   1.472   8.267   7.205
99388SOL    HW199938   1.537   8.256   7.135
99388SOL    HW299939   1.462   8.362   7.214
99389SOL     OW99940   9.368  13.505   9.460
99389SOL    HW199941   9.429  13.437   9.489
99389SOL    HW299942   9.416  13.554   9.393
99390SOL     OW99943  14.487   2.165   8.799
99390SOL    HW199944  14.491   2.221   8.877
99390SOL    HW299945  14.526   2.082   8.827
99391SOL     OW99946   5.473   8.602  12.267
99391SOL    HW199947   5.392   8.625  12.220
99391SOL    HW299948   5.468   8.507  12.278
99392SOL     OW99949  12.673   9.933   6.772
99392SOL    HW199950  12.649   9.919   6.681
99392SOL    HW299951  12.762   9.898   6.779
99393SOL     OW99952   0.660   3.083  11.383
99393SOL    HW199953   0.649   3.151  11.450
99393SOL    HW299954   0.571   3.056  11.362
99394SOL     OW99955   7.963   8.907   5.333
99394SOL    HW199956   7.895   8.919   5.266
99394SOL    HW299957   8.018   8.837   5.300
99395SOL     OW99958   9.525   1.028  12.331
99395SOL    HW199959   9.602   0.974  12.350
99395SOL    HW299960   9.451   0.967  12.333
99396SOL     OW99961  13.208  12.577   8.374
99396SOL    HW199962  13.229  12.488   8.403
99396SOL    HW299963  13.117  12.573   8.347
99397SOL     OW99964   5.594  10.846   9.578
99397SOL    HW199965   5.566  10.928   9.618
99397SOL    HW299966   5.513  10.805   9.548
99398SOL     OW99967   2.858   5.475  11.192
99398SOL    HW199968   2.798   5.482  11.266
99398SOL    HW299969   2.854   5.561  11.150
99399SOL     OW99970   0.817  12.752  14.128
99399SOL    HW199971   0.753  12.816  14.158
99399SOL    HW299972   0.895  12.771  14.179
99400SOL     OW99973  14.455  11.251   9.457
99400SOL    HW199974  14.393  11.301   9.509
99400SOL    HW299975  14.414  11.245   9.370
99401SOL     OW99976  14.412  13.077  10.440
99401SOL    HW199977  14.437  13.129  10.516
99401SOL    HW299978  14.332  13.119  10.408
99402SOL     OW99979   8.973   1.480  13.851
99402SOL    HW199980   9.022   1.562  13.840
99402SOL    HW299981   8.995   1.429  13.773
99403SOL     OW99982  10.782   2.550  13.666
99403SOL    HW199983  10.873   2.553  13.697
99403SOL    HW299984  10.730   2.561  13.746
99404SOL     OW99985  14.742   7.182  12.139
99404SOL    HW199986  14.679   7.252  12.127
99404SOL    HW299987  14.788   7.203  12.220
99405SOL     OW99988   6.151  10.008  12.428
99405SOL    HW199989   6.082  10.041  12.485
99405SOL    HW299990   6.163   9.917  12.454
99406SOL     OW99991   1.593  14.808   4.946
99406SOL    HW199992   1.640  14.784   5.026
99406SOL    HW299993   1.581  14.725   4.900
99407SOL     OW99994   0.110   1.512   0.074
99407SOL    HW199995   0.187   1.569   0.077
99407SOL    HW299996   0.103   1.484  14.861
99408SOL     OW99997   0.097   0.737   2.455
99408SOL    HW199998   0.126   0.772   2.371
99408SOL    HW299999   0.123   0.803   2.519
99409SOL     OW    0  12.393   1.859   1.608
99409SOL    HW1    1  12.366   1.872   1.699
99409SOL    HW2    2  12.477   1.814   1.614
99410SOL     OW    3  13.374   3.257  12.474
99410SOL    HW1    4  13.286   3.218  12.480
99410SOL    HW2    5  13.365   3.344  12.513
99411SOL     OW    6  10.208   5.449   5.022
99411SOL    HW1    7  10.191   5.528   5.072
99411SOL    HW2    8  10.277   5.474   4.960
99412SOL     OW    9  11.091  12.399   1.481
99412SOL    HW1   10  10.996  12.390   1.491
99412SOL    HW2   11  11.127  12.325   1.529
99413SOL     OW   12  13.722   2.292  13.039
99413SOL    HW1   13  13.765   2.356  12.983
99413SOL    HW2   14  13.730   2.209  12.990
99414SOL     OW   15   5.569   4.027  13.686
99414SOL    HW1   16   5.606   4.094  13.744
99414SOL    HW2   17   5.478   4.053  13.674
99415SOL     OW   18   5.933   4.964   8.447
99415SOL    HW1   19   6.023   4.997   8.445
99415SOL    HW2   20   5.942   4.874   8.478
99416SOL     OW   21   4.578   0.320   5.463
99416SOL    HW1   22   4.517   0.257   5.425
99416SOL    HW2   23   4.635   0.345   5.390
99417SOL     OW   24  10.926   6.665  14.672
99417SOL    HW1   25  10.833   6.667  14.650
99417SOL    HW2   26  10.943   6.573  14.693
99418SOL     OW   27  11.529   7.608   0.657
99418SOL    HW1   28  11.547   7.702   0.662
99418SOL    HW2   29  11.582   7.577   0.583
99419SOL     OW   30   4.600   4.121   7.639
99419SOL    HW1   31   4.639   4.111   7.726
99419SOL    HW2   32   4.626   4.209   7.611
99420SOL     OW   33   5.032   8.004   8.142
99420SOL    HW1   34   4.957   8.062   8.149
99420SOL    HW2   35   5.077   8.032   8.062
99421SOL     OW   36  12.596  14.741  13.951
99421SOL    HW1   37  12.680  14.720  13.992
99421SOL    HW2   38  12.531  14.702  14.009
99422SOL     OW   39   6.510  12.339   3.322
99422SOL    HW1   40   6.585  12.285   3.298
99422SOL    HW2   41   6.470  12.362   3.238
99423SOL     OW   42   6.218  13.498   6.303
99423SOL    HW1   43   6.306  13.465   6.324
99423SOL    HW2   44   6.230  13.592   6.290
99424SOL     OW   45  13.364  10.260   9.741
99424SOL    HW1   46  13.379  10.307   9.823
99424SOL    HW2   47  13.417  10.181   9.748
99425SOL     OW   48   7.129  10.314   9.121
99425SOL    HW1   49   7.178  10.390   9.090
99425SOL    HW2   50   7.064  10.298   9.052
99426SOL     OW   51   9.744   5.591  10.732
99426SOL    HW1   52   9.680   5.546  10.676
99426SOL    HW2   53   9.747   5.538  10.812
99427SOL     OW   54  10.398  11.787   9.324
99427SOL    HW1   55  10.417  11.802   9.232
99427SOL    HW2   56  10.331  11.852   9.346
99428SOL     OW   57   2.908   9.234  11.015
99428SOL    HW1   58   2.951   9.307  11.057
99428SOL    HW2   59   2.901   9.260  10.923
99429SOL     OW   60  11.108  10.976   1.276
99429SOL    HW1   61  11.084  10.913   1.343
99429SOL    HW2   62  11.040  11.043   1.279
99430SOL     OW   63  13.214  10.517   5.632
99430SOL    HW1   64  13.198  10.488   5.722
99430SOL    HW2   65  13.233  10.610   5.640
99431SOL     OW   66  12.781   9.032  12.908
99431SOL    HW1   67  12.797   8.961  12.970
99431SOL    HW2   68  12.793   9.112  12.959
99432SOL     OW   69   4.914  10.650   2.074
99432SOL    HW1   70   4.880  10.740   2.075
99432SOL    HW2   71   4.836  10.595   2.071
99433SOL     OW   72   3.142   7.190  13.100
99433SOL    HW1   73   3.226   7.212  13.059
99433SOL    HW2   74   3.096   7.138  13.034
99434SOL     OW   75   4.893  14.758  13.638
99434SOL    HW1   76   4.912  14.831  13.696
99434SOL    HW2   77   4.912  14.680  13.690
99435SOL     OW   78   6.251   9.484   8.904
99435SOL    HW1   79   6.341   9.516   8.896
99435SOL    HW2   80   6.225   9.506   8.993
99436SOL     OW   81   5.497   3.224   9.140
99436SOL    HW1   82   5.590   3.214   9.118
99436SOL    HW2   83   5.477   3.315   9.119
99437SOL     OW   84   4.502   2.629  13.188
99437SOL    HW1   85   4.572   2.574  13.223
99437SOL    HW2   86   4.503   2.612  13.094
99438SOL     OW   87   6.939   5.736  11.030
99438SOL    HW1   88   6.948   5.799  11.102
99438SOL    HW2   89   6.848   5.746  11.001
99439SOL     OW   90   9.471  11.658  13.605
99439SOL    HW1   91   9.523  11.578  13.599
99439SOL    HW2   92   9.386  11.629  13.637
99440SOL     OW   93  13.686   1.797   3.660
99440SOL    HW1   94  13.719   1.733   3.723
99440SOL    HW2   95  13.632   1.856   3.712
99441SOL     OW   96   9.247   2.251   6.060
99441SOL    HW1   97   9.263   2.280   5.970
99441SOL    HW2   98   9.194   2.172   6.050
99442SOL     OW   99   8.045   6.173   6.588
99442SOL    HW1  100   8.022   6.083   6.607
99442SOL    HW2  101   7.963   6.215   6.561
99443SOL     OW  102   7.352   0.723  14.128
99443SOL    HW1  103   7.335   0.795  14.188
99443SOL    HW2  104   7.266   0.699  14.094
99444SOL     OW  105   8.675  13.937   7.894
99444SOL    HW1  106   8.625  13.876   7.949
99444SOL    HW2  107   8.616  14.012   7.883
99445SOL     OW  108  12.628   6.895  13.140
99445SOL    HW1  109  12.712   6.858  13.166
99445SOL    HW2  110  12.630   6.985  13.172
99446SOL     OW  111   2.572  13.078  11.376
99446SOL    HW1  112   2.612  13.165  11.379
99446SOL    HW2  113   2.643  13.019  11.353
99447SOL     OW  114  12.572   2.253  11.407
99447SOL    HW1  115  12.559   2.175  11.353
99447SOL    HW2  116  12.666   2.257  11.422
99448SOL     OW  117  13.369  12.407   9.223
99448SOL    HW1  118  13.304  12.455   9.172
99448SOL    HW2  119  13.448  12.459   9.218
99449SOL     OW  120   7.601   6.420   5.008
99449SOL    HW1  121   7.658   6.497   5.004
99449SOL    HW2  122   7.519   6.452   5.044
99450SOL     OW  123  12.750   2.963  13.700
99450SOL    HW1  124  12.815   2.911  13.652
99450SOL    HW2  125  12.772   2.950  13.793
99451SOL     OW  126   1.993  10.259   2.956
99451SOL    HW1  127   1.973  10.345   2.991
99451SOL    HW2  128   2.089  10.257   2.951
99452SOL     OW  129   2.280   3.874  11.505
99452SOL    HW1  130   2.238   3.955  11.532
99452SOL    HW2  131   2.276   3.875  11.409
99453SOL     OW  132  13.717   4.915  12.093
99453SOL    HW1  133  13.637   4.957  12.063
99453SOL    HW2  134  13.712   4.826  12.057
99454SOL     OW  135  11.772  12.713  14.506
99454SOL    HW1  136  11.767  12.700  14.412
99454SOL    HW2  137  11.682  12.708  14.537
99455SOL     OW  138   2.428   9.609   4.417
99455SOL    HW1  139   2.349   9.556   4.418
99455SOL    HW2  140   2.409   9.680   4.355
99456SOL     OW  141   9.237   1.993  11.463
99456SOL    HW1  142   9.163   2.018  11.407
99456SOL    HW2  143   9.244   2.064  11.527
99457SOL     OW  144   2.108   3.559   5.827
99457SOL    HW1  145   2.201   3.577   5.813
99457SOL    HW2  146   2.086   3.604   5.908
99458SOL     OW  147   8.659  13.185   7.172
99458SOL    HW1  148   8.730  13.214   7.229
99458SOL    HW2  149   8.693  13.106   7.130
99459SOL     OW  150   2.849   1.607   1.308
99459SOL    HW1  151   2.766   1.559   1.316
99459SOL    HW2  152   2.831   1.676   1.244
99460SOL     OW  153  13.349  13.076   8.703
99460SOL    HW1  154  13.405  13.055   8.628
99460SOL    HW2  155  13.321  12.991   8.737
99461SOL     OW  156   2.803  12.812   1.431
99461SOL    HW1  157   2.744  12.784   1.361
99461SOL    HW2  158   2.825  12.731   1.478
99462SOL     OW  159   6.270   2.668   4.544
99462SOL    HW1  160   6.310   2.584   4.524
99462SOL    HW2  161   6.337   2.733   4.520
99463SOL     OW  162   2.275   8.252   4.759
99463SOL    HW1  163   2.243   8.253   4.669
99463SOL    HW2  164   2.223   8.183   4.801
99464SOL     OW  165  11.741  13.187   2.299
99464SOL    HW1  166  11.741  13.104   2.347
99464SOL    HW2  167  11.789  13.247   2.354
99465SOL     OW  168   2.215  11.470   3.023
99465SOL    HW1  169   2.224  11.383   2.984
99465SOL    HW2  170   2.269  11.526   2.968
99466SOL     OW  171  13.354  10.723   4.884
99466SOL    HW1  172  13.333  10.695   4.973
99466SOL    HW2  173  13.436  10.770   4.892
99467SOL     OW  174   9.325  10.600   4.312
99467SOL    HW1  175   9.315  10.691   4.284
99467SOL    HW2  176   9.295  10.548   4.237
99468SOL     OW  177  11.233  14.147   1.553
99468SOL    HW1  178  11.231  14.240   1.578
99468SOL    HW2  179  11.143  14.117   1.566
99469SOL     OW  180   1.568   5.321  14.316
99469SOL    HW1  181   1.638   5.386  14.316
99469SOL    HW2  182   1.513   5.347  14.390
99470SOL     OW  183   4.515   5.521   8.338
99470SOL    HW1  184   4.526   5.568   8.256
99470SOL    HW2  185   4.450   5.572   8.387
99471SOL     OW  186  11.929   1.860   1.149
99471SOL    HW1  187  11.984   1.820   1.082
99471SOL    HW2  188  11.932   1.800   1.223
99472SOL     OW  189   5.812  11.575  11.110
99472SOL    HW1  190   5.900  11.587  11.145
99472SOL    HW2  191   5.801  11.647  11.047
99473SOL     OW  192   2.067  10.150  10.394
99473SOL    HW1  193   2.057  10.245  10.402
99473SOL    HW2  194   2.132  10.139  10.324
99474SOL     OW  195   3.105  11.913  10.298
99474SOL    HW1  196   3.015  11.912  10.266
99474SOL    HW2  197   3.129  12.005  10.301
99475SOL     OW  198   7.832   7.090   6.226
99475SOL    HW1  199   7.819   7.001   6.193
99475SOL    HW2  200   7.745   7.130   6.221
99476SOL     OW  201   1.631  14.031   1.692
99476SOL    HW1  202   1.592  13.990   1.768
99476SOL    HW2  203   1.567  14.097   1.664
99477SOL     OW  204   7.631  11.726   4.636
99477SOL    HW1  205   7.681  11.777   4.573
99477SOL    HW2  206   7.662  11.756   4.722
99478SOL     OW  207   2.450   8.796   2.791
99478SOL    HW1  208   2.469   8.888   2.813
99478SOL    HW2  209   2.410   8.760   2.870
99479SOL     OW  210  13.888  14.799  13.920
99479SOL    HW1  211  13.841  14.852  13.985
99479SOL    HW2  212  13.828  14.794  13.845
99480SOL     OW  213   5.491   8.947   7.340
99480SOL    HW1  214   5.475   8.992   7.423
99480SOL    HW2  215   5.466   9.011   7.273
99481SOL     OW  216   6.870  13.055  10.766
99481SOL    HW1  217   6.899  13.146  10.777
99481SOL    HW2  218   6.837  13.029  10.851
99482SOL     OW  219   9.639   5.252   7.154
99482SOL    HW1  220   9.555   5.269   7.110
99482SOL    HW2  221   9.615   5.218   7.240
99483SOL     OW  222   7.484  12.031   9.370
99483SOL    HW1  223   7.469  12.017   9.277
99483SOL    HW2  224   7.403  12.002   9.412
99484SOL     OW  225   0.195   5.793   2.346
99484SOL    HW1  226   0.268   5.750   2.391
99484SOL    HW2  227   0.192   5.753   2.260
99485SOL     OW  228   9.262  12.202  14.077
99485SOL    HW1  229   9.340  12.215  14.024
99485SOL    HW2  230   9.257  12.279  14.133
99486SOL     OW  231   0.794  12.068  12.164
99486SOL    HW1  232   0.855  12.076  12.238
99486SOL    HW2  233   0.844  12.096  12.088
99487SOL     OW  234   4.509   0.585   1.439
99487SOL    HW1  235   4.431   0.554   1.485
99487SOL    HW2  236   4.520   0.524   1.366
99488SOL     OW  237  10.386   2.619   1.027
99488SOL    HW1  238  10.422   2.608   0.939
99488SOL    HW2  239  10.453   2.669   1.074
99489SOL     OW  240  10.544   6.142   7.591
99489SOL    HW1  241  10.464   6.193   7.585
99489SOL    HW2  242  10.614   6.205   7.570
99490SOL     OW  243   3.018  13.182   7.746
99490SOL    HW1  244   3.082  13.115   7.721
99490SOL    HW2  245   3.007  13.170   7.841
99491SOL     OW  246   7.882  13.640   2.868
99491SOL    HW1  247   7.955  13.617   2.812
99491SOL    HW2  248   7.915  13.710   2.925
99492SOL     OW  249  12.573  12.350  10.737
99492SOL    HW1  250  12.575  12.371  10.831
99492SOL    HW2  251  12.594  12.432  10.693
99493SOL     OW  252   3.206   2.726   7.003
99493SOL    HW1  253   3.259   2.803   6.983
99493SOL    HW2  254   3.131   2.733   6.944
99494SOL     OW  255   2.366  12.040  14.164
99494SOL    HW1  256   2.317  12.083  14.233
99494SOL    HW2  257   2.331  12.078  14.083
99495SOL     OW  258   3.316   6.219   8.774
99495SOL    HW1  259   3.347   6.303   8.810
99495SOL    HW2  260   3.367   6.153   8.820
99496SOL     OW  261   7.844   4.835   1.207
99496SOL    HW1  262   7.779   4.866   1.270
99496SOL    HW2  263   7.927   4.835   1.257
99497SOL     OW  264  14.493   7.176  10.365
99497SOL    HW1  265  14.426   7.161  10.432
99497SOL    HW2  266  14.569   7.128  10.397
99498SOL     OW  267  13.239   5.263  13.414
99498SOL    HW1  268  13.230   5.266  13.509
99498SOL    HW2  269  13.325   5.300  13.396
99499SOL     OW  270   2.919   6.789   7.673
99499SOL    HW1  271   2.891   6.731   7.603
99499SOL    HW2  272   2.914   6.877   7.636
99500SOL     OW  273   9.491   9.220  12.066
99500SOL    HW1  274   9.421   9.277  12.033
99500SOL    HW2  275   9.551   9.280  12.110
99501SOL     OW  276  13.000   2.812   2.236
99501SOL    HW1  277  12.956   2.895   2.255
99501SOL    HW2  278  12.945   2.746   2.278
99502SOL     OW  279   9.101   4.928   1.279
99502SOL    HW1  280   9.194   4.918   1.300
99502SOL    HW2  281   9.069   4.838   1.270
99503SOL     OW  282  13.712   9.313   3.467
99503SOL    HW1  283  13.793   9.291   3.512
99503SOL    HW2  284  13.692   9.402   3.494
99504SOL     OW  285   6.214  14.860  11.752
99504SOL    HW1  286   6.164  14.793  11.705
99504SOL    HW2  287   6.197   0.063  11.703
99505SOL     OW  288  11.450  11.151   8.980
99505SOL    HW1  289  11.506  11.111   9.047
99505SOL    HW2  290  11.363  11.151   9.020
99506SOL     OW  291   1.180   9.565   7.916
99506SOL    HW1  292   1.140   9.530   7.836
99506SOL    HW2  293   1.109   9.611   7.960
99507SOL     OW  294   5.988   2.155   0.965
99507SOL    HW1  295   6.043   2.145   0.887
99507SOL    HW2  296   5.955   2.244   0.960
99508SOL     OW  297  10.403  11.516   3.894
99508SOL    HW1  298  10.369  11.578   3.828
99508SOL    HW2  299  10.498  11.527   3.890
99509SOL     OW  300  11.336   4.567   3.531
99509SOL    HW1  301  11.307   4.641   3.477
99509SOL    HW2  302  11.255   4.524   3.559
99510SOL     OW  303   3.829   0.733  14.373
99510SOL    HW1  304   3.876   0.713  14.293
99510SOL    HW2  305   3.737   0.725  14.350
99511SOL     OW  306   5.497   7.437   1.677
99511SOL    HW1  307   5.479   7.526   1.708
99511SOL    HW2  308   5.422   7.414   1.622
99512SOL     OW  309   5.319  10.568   7.162
99512SOL    HW1  310   5.269  10.487   7.164
99512SOL    HW2  311   5.256  10.635   7.139
99513SOL     OW  312   6.673   3.605  11.630
99513SOL    HW1  313   6.608   3.652  11.682
99513SOL    HW2  314   6.738   3.671  11.606
99514SOL     OW  315   4.836  12.550   5.365
99514SOL    HW1  316   4.929  12.572   5.362
99514SOL    HW2  317   4.803  12.593   5.443
99515SOL     OW  318  12.338  11.228   8.435
99515SOL    HW1  319  12.277  11.275   8.378
99515SOL    HW2  320  12.367  11.294   8.498
99516SOL     OW  321   7.359   0.268  11.113
99516SOL    HW1  322   7.371   0.208  11.187
99516SOL    HW2  323   7.445   0.309  11.101
99517SOL     OW  324   6.751   2.289  12.483
99517SOL    HW1  325   6.743   2.333  12.398
99517SOL    HW2  326   6.670   2.310  12.529
99518SOL     OW  327   8.376   6.707   0.704
99518SOL    HW1  328   8.468   6.705   0.729
99518SOL    HW2  329   8.359   6.622   0.663
99519SOL     OW  330   9.647   2.921   1.130
99519SOL    HW1  331   9.633   2.992   1.193
99519SOL    HW2  332   9.726   2.877   1.161
99520SOL     OW  333   8.366   2.679   5.594
99520SOL    HW1  334   8.351   2.773   5.583
99520SOL    HW2  335   8.419   2.673   5.674
99521SOL     OW  336   8.790  11.953   7.112
99521SOL    HW1  337   8.776  11.860   7.097
99521SOL    HW2  338   8.710  11.996   7.081
99522SOL     OW  339  11.463   2.878   9.679
99522SOL    HW1  340  11.555   2.851   9.683
99522SOL    HW2  341  11.419   2.807   9.633
99523SOL     OW  342   7.216  12.193   4.435
99523SOL    HW1  343   7.286  12.258   4.437
99523SOL    HW2  344   7.139  12.238   4.470
99524SOL     OW  345   3.961  13.473  13.954
99524SOL    HW1  346   3.987  13.423  13.876
99524SOL    HW2  347   3.968  13.410  14.026
99525SOL     OW  348   6.379  10.136   0.355
99525SOL    HW1  349   6.390  10.079   0.279
99525SOL    HW2  350   6.390  10.078   0.431
99526SOL     OW  351  11.533  10.184   5.715
99526SOL    HW1  352  11.589  10.256   5.686
99526SOL    HW2  353  11.568  10.161   5.801
99527SOL     OW  354   7.388   3.515   4.782
99527SOL    HW1  355   7.323   3.535   4.714
99527SOL    HW2  356   7.461   3.477   4.734
99528SOL     OW  357  13.883  13.502  10.307
99528SOL    HW1  358  13.833  13.420  10.302
99528SOL    HW2  359  13.878  13.538  10.218
99529SOL     OW  360  11.242  10.841   3.955
99529SOL    HW1  361  11.158  10.887   3.963
99529SOL    HW2  362  11.262  10.812   4.044
99530SOL     OW  363  10.224  13.300  14.137
99530SOL    HW1  364  10.222  13.373  14.199
99530SOL    HW2  365  10.138  13.304  14.094
99531SOL     OW  366  14.554   3.741   3.240
99531SOL    HW1  367  14.465   3.711   3.221
99531SOL    HW2  368  14.600   3.662   3.267
99532SOL     OW  369   7.059  12.663   5.502
99532SOL    HW1  370   7.066  12.570   5.524
99532SOL    HW2  371   7.087  12.668   5.411
99533SOL     OW  372  10.275  10.847  10.593
99533SOL    HW1  373  10.322  10.808  10.519
99533SOL    HW2  374  10.185  10.855  10.561
99534SOL     OW  375   9.125   4.204   8.130
99534SOL    HW1  376   9.197   4.143   8.141
99534SOL    HW2  377   9.159   4.271   8.071
99535SOL     OW  378  11.418  11.924  12.416
99535SOL    HW1  379  11.449  12.011  12.440
99535SOL    HW2  380  11.337  11.939  12.367
99536SOL     OW  381   0.810   4.562   0.808
99536SOL    HW1  382   0.727   4.518   0.825
99536SOL    HW2  383   0.838   4.529   0.723
99537SOL     OW  384  13.811   7.854   1.518
99537SOL    HW1  385  13.814   7.920   1.448
99537SOL    HW2  386  13.868   7.890   1.587
99538SOL     OW  387   3.966  12.964  11.427
99538SOL    HW1  388   4.028  13.036  11.440
99538SOL    HW2  389   3.906  12.996  11.360
99539SOL     OW  390   5.482  13.341   0.494
99539SOL    HW1  391   5.409  13.280   0.488
99539SOL    HW2  392   5.560  13.286   0.484
99540SOL     OW  393   4.962   8.004  14.546
99540SOL    HW1  394   5.036   8.054  14.581
99540SOL    HW2  395   4.892   8.016  14.611
99541SOL     OW  396   4.604  11.045  11.278
99541SOL    HW1  397   4.635  11.040  11.368
99541SOL    HW2  398   4.641  11.126  11.244
99542SOL     OW  399   6.190  13.144  12.110
99542SOL    HW1  400   6.209  13.178  12.197
99542SOL    HW2  401   6.229  13.208  12.050
99543SOL     OW  402   9.315   9.774  11.367
99543SOL    HW1  403   9.326   9.867  11.389
99543SOL    HW2  404   9.280   9.775  11.278
99544SOL     OW  405  10.551  12.998   0.215
99544SOL    HW1  406  10.627  12.942   0.202
99544SOL    HW2  407  10.584  13.073   0.264
99545SOL     OW  408   4.603   6.829   6.311
99545SOL    HW1  409   4.570   6.782   6.388
99545SOL    HW2  410   4.698   6.828   6.321
99546SOL     OW  411   1.036   1.770  14.153
99546SOL    HW1  412   1.113   1.715  14.171
99546SOL    HW2  413   1.021   1.760  14.059
99547SOL     OW  414   0.353   7.041   3.841
99547SOL    HW1  415   0.372   7.097   3.766
99547SOL    HW2  416   0.262   7.060   3.862
99548SOL     OW  417   1.231  14.089   3.642
99548SOL    HW1  418   1.214  14.011   3.695
99548SOL    HW2  419   1.323  14.110   3.659
99549SOL     OW  420   3.384   3.409   1.582
99549SOL    HW1  421   3.432   3.348   1.637
99549SOL    HW2  422   3.344   3.355   1.514
99550SOL     OW  423   7.179   1.534   4.459
99550SOL    HW1  424   7.105   1.577   4.502
99550SOL    HW2  425   7.182   1.447   4.497
99551SOL     OW  426   5.553   7.759   4.367
99551SOL    HW1  427   5.460   7.782   4.368
99551SOL    HW2  428   5.586   7.796   4.285
99552SOL     OW  429  10.589  11.782   1.112
99552SOL    HW1  430  10.572  11.692   1.139
99552SOL    HW2  431  10.507  11.828   1.130
99553SOL     OW  432  10.841   5.224  10.221
99553SOL    HW1  433  10.913   5.185  10.171
99553SOL    HW2  434  10.781   5.258  10.154
99554SOL     OW  435   9.881   2.949   3.786
99554SOL    HW1  436   9.890   3.011   3.858
99554SOL    HW2  437   9.871   3.003   3.708
99555SOL     OW  438  11.656   5.656   5.017
99555SOL    HW1  439  11.638   5.715   5.089
99555SOL    HW2  440  11.751   5.647   5.015
99556SOL     OW  441  14.609   6.337  11.502
99556SOL    HW1  442  14.517   6.313  11.518
99556SOL    HW2  443  14.640   6.372  11.585
99557SOL     OW  444   9.733   4.854   9.998
99557SOL    HW1  445   9.812   4.900  10.026
99557SOL    HW2  446   9.702   4.903   9.922
99558SOL     OW  447   9.685  14.276   5.727
99558SOL    HW1  448   9.711  14.303   5.815
99558SOL    HW2  449   9.714  14.346   5.670
99559SOL     OW  450  14.821   2.183   0.142
99559SOL    HW1  451  14.785   2.271   0.153
99559SOL    HW2  452   0.035   2.192   0.169
99560SOL     OW  453   3.232   2.317  14.357
99560SOL    HW1  454   3.291   2.361  14.420
99560SOL    HW2  455   3.291   2.272  14.298
99561SOL     OW  456  14.866   5.430  11.714
99561SOL    HW1  457   0.048   5.361  11.740
99561SOL    HW2  458  14.779   5.392  11.727
99562SOL     OW  459   9.338   7.112   4.695
99562SOL    HW1  460   9.431   7.096   4.675
99562SOL    HW2  461   9.333   7.206   4.713
99563SOL     OW  462   1.566   0.745   8.285
99563SOL    HW1  463   1.534   0.834   8.303
99563SOL    HW2  464   1.525   0.722   8.202
99564SOL     OW  465   1.286   6.456   9.594
99564SOL    HW1  466   1.323   6.380   9.549
99564SOL    HW2  467   1.335   6.530   9.558
99565SOL     OW  468   5.479  14.598  14.453
99565SOL    HW1  469   5.496  14.677  14.401
99565SOL    HW2  470   5.433  14.539  14.393
99566SOL     OW  471   6.223   9.833   2.397
99566SOL    HW1  472   6.175   9.793   2.325
99566SOL    HW2  473   6.311   9.795   2.391
99567SOL     OW  474  13.395   1.285   8.534
99567SOL    HW1  475  13.306   1.292   8.568
99567SOL    HW2  476  13.384   1.277   8.439
99568SOL     OW  477   3.943  10.760   3.729
99568SOL    HW1  478   3.939  10.850   3.763
99568SOL    HW2  479   4.013  10.719   3.780
99569SOL     OW  480   5.588   5.788   8.695
99569SOL    HW1  481   5.565   5.831   8.613
99569SOL    HW2  482   5.530   5.828   8.760
99570SOL     OW  483   2.036   5.564   8.527
99570SOL    HW1  484   2.094   5.496   8.493
99570SOL    HW2  485   1.949   5.539   8.498
99571SOL     OW  486  12.869   8.809   5.016
99571SOL    HW1  487  12.920   8.729   5.006
99571SOL    HW2  488  12.840   8.808   5.107
99572SOL     OW  489  13.820  11.410  11.290
99572SOL    HW1  490  13.787  11.382  11.375
99572SOL    HW2  491  13.810  11.332  11.234
99573SOL     OW  492   5.048   5.150   4.052
99573SOL    HW1  493   4.958   5.167   4.024
99573SOL    HW2  494   5.074   5.230   4.099
99574SOL     OW  495   1.204   2.201   4.587
99574SOL    HW1  496   1.295   2.176   4.574
99574SOL    HW2  497   1.184   2.258   4.513
99575SOL     OW  498  13.152   2.689   7.662
99575SOL    HW1  499  13.096   2.690   7.584
99575SOL    HW2  500  13.130   2.606   7.705
99576SOL     OW  501   5.741   8.762   1.578
99576SOL    HW1  502   5.774   8.851   1.559
99576SOL    HW2  503   5.791   8.735   1.655
99577SOL     OW  504  13.237   7.389   7.167
99577SOL    HW1  505  13.277   7.311   7.128
99577SOL    HW2  506  13.259   7.460   7.108
99578SOL     OW  507   9.273   0.532   2.485
99578SOL    HW1  508   9.205   0.586   2.445
99578SOL    HW2  509   9.332   0.511   2.412
99579SOL     OW  510   6.029   1.784   5.238
99579SOL    HW1  511   5.964   1.823   5.179
99579SOL    HW2  512   6.020   1.833   5.319
99580SOL     OW  513   6.033  13.879   3.628
99580SOL    HW1  514   6.082  13.801   3.602
99580SOL    HW2  515   6.097  13.935   3.670
99581SOL     OW  516  11.851   9.412   4.482
99581SOL    HW1  517  11.853   9.503   4.451
99581SOL    HW2  518  11.761   9.384   4.467
99582SOL     OW  519   2.992  10.636   1.723
99582SOL    HW1  520   2.945  10.621   1.805
99582SOL    HW2  521   3.018  10.728   1.727
99583SOL     OW  522  11.119   1.856  14.299
99583SOL    HW1  523  11.183   1.921  14.329
99583SOL    HW2  524  11.035   1.889  14.328
99584SOL     OW  525   9.761   4.742  12.377
99584SOL    HW1  526   9.713   4.763  12.297
99584SOL    HW2  527   9.759   4.822  12.429
99585SOL     OW  528   2.279  10.229   3.254
99585SOL    HW1  529   2.332  10.178   3.315
99585SOL    HW2  530   2.338  10.247   3.181
99586SOL     OW  531  12.092   3.610   0.061
99586SOL    HW1  532  12.036   3.669   0.011
99586SOL    HW2  533  12.043   3.591   0.141
99587SOL     OW  534   4.704  10.272   1.278
99587SOL    HW1  535   4.694  10.260   1.184
99587SOL    HW2  536   4.681  10.364   1.294
99588SOL     OW  537   6.753   6.084   6.794
99588SOL    HW1  538   6.737   6.161   6.849
99588SOL    HW2  539   6.675   6.029   6.808
99589SOL     OW  540   5.879  12.120  14.173
99589SOL    HW1  541   5.854  12.201  14.217
99589SOL    HW2  542   5.864  12.052  14.239
99590SOL     OW  543   2.283  13.422   6.217
99590SOL    HW1  544   2.365  13.379   6.190
99590SOL    HW2  545   2.238  13.356   6.269
99591SOL     OW  546   1.432   7.565   1.458
99591SOL    HW1  547   1.436   7.497   1.525
99591SOL    HW2  548   1.339   7.584   1.448
99592SOL     OW  549  11.834   9.606  12.814
99592SOL    HW1  550  11.762   9.608  12.751
99592SOL    HW2  551  11.878   9.690  12.803
99593SOL     OW  552   6.670   2.388   6.437
99593SOL    HW1  553   6.713   2.325   6.495
99593SOL    HW2  554   6.742   2.427   6.387
99594SOL     OW  555  14.634  12.151   8.442
99594SOL    HW1  556  14.669  12.073   8.398
99594SOL    HW2  557  14.653  12.223   8.381
99595SOL     OW  558   0.405  12.701  10.195
99595SOL    HW1  559   0.345  12.704  10.270
99595SOL    HW2  560   0.383  12.779  10.144
99596SOL     OW  561  13.975  14.447   5.426
99596SOL    HW1  562  14.050  14.394   5.397
99596SOL    HW2  563  14.012  14.510   5.488
99597SOL     OW  564   7.132   2.232   6.067
99597SOL    HW1  565   7.146   2.326   6.064
99597SOL    HW2  566   7.195   2.201   6.133
99598SOL     OW  567   4.646   8.212   6.337
99598SOL    HW1  568   4.653   8.124   6.298
99598SOL    HW2  569   4.710   8.212   6.408
99599SOL     OW  570  12.479  13.832   1.109
99599SOL    HW1  571  12.450  13.750   1.151
99599SOL    HW2  572  12.398  13.880   1.093
99600SOL     OW  573   9.114   6.812   8.511
99600SOL    HW1  574   9.197   6.811   8.463
99600SOL    HW2  575   9.119   6.891   8.565
99601SOL     OW  576   3.294   7.026  11.899
99601SOL    HW1  577   3.244   7.107  11.908
99601SOL    HW2  578   3.370   7.039  11.955
99602SOL     OW  579   4.991   6.230   7.465
99602SOL    HW1  580   4.986   6.322   7.489
99602SOL    HW2  581   5.077   6.220   7.425
99603SOL     OW  582   5.659  12.846   4.672
99603SOL    HW1  583   5.755  12.841   4.670
99603SOL    HW2  584   5.639  12.933   4.638
99604SOL     OW  585   5.776   1.922  12.228
99604SOL    HW1  586   5.821   1.875  12.158
99604SOL    HW2  587   5.686   1.931  12.197
99605SOL     OW  588   5.072   8.045   1.811
99605SOL    HW1  589   5.156   7.999   1.804
99605SOL    HW2  590   5.067   8.072   1.902
99606SOL     OW  591  10.318   4.269   6.221
99606SOL    HW1  592  10.301   4.226   6.305
99606SOL    HW2  593  10.413   4.275   6.216
99607SOL     OW  594   5.434   5.287   8.645
99607SOL    HW1  595   5.466   5.376   8.631
99607SOL    HW2  596   5.347   5.286   8.605
99608SOL     OW  597   3.788   8.675   7.320
99608SOL    HW1  598   3.815   8.644   7.234
99608SOL    HW2  599   3.867   8.670   7.374
99609SOL     OW  600   8.742   2.015   6.563
99609SOL    HW1  601   8.658   2.054   6.587
99609SOL    HW2  602   8.722   1.923   6.547
99610SOL     OW  603   1.036  12.961   2.616
99610SOL    HW1  604   0.971  13.029   2.601
99610SOL    HW2  605   1.027  12.901   2.542
99611SOL     OW  606   0.594   5.350   0.163
99611SOL    HW1  607   0.639   5.406   0.100
99611SOL    HW2  608   0.502   5.354   0.136
99612SOL     OW  609   3.505   8.729   8.303
99612SOL    HW1  610   3.532   8.769   8.221
99612SOL    HW2  611   3.449   8.656   8.278
99613SOL     OW  612   4.642  11.290   0.913
99613SOL    HW1  613   4.589  11.369   0.901
99613SOL    HW2  614   4.607  11.228   0.849
99614SOL     OW  615   7.399   0.698   7.075
99614SOL    HW1  616   7.386   0.656   7.160
99614SOL    HW2  617   7.439   0.782   7.096
99615SOL     OW  618   1.355   1.422   0.861
99615SOL    HW1  619   1.287   1.487   0.847
99615SOL    HW2  620   1.424   1.470   0.907
99616SOL     OW  621   6.402   2.696   5.177
99616SOL    HW1  622   6.471   2.650   5.130
99616SOL    HW2  623   6.439   2.712   5.264
99617SOL     OW  624   6.720  10.227   6.421
99617SOL    HW1  625   6.655  10.297   6.418
99617SOL    HW2  626   6.705  10.183   6.504
99618SOL     OW  627   4.894   0.545  13.123
99618SOL    HW1  628   4.967   0.483  13.118
99618SOL    HW2  629   4.820   0.498  13.083
99619SOL     OW  630   4.261  14.332   7.084
99619SOL    HW1  631   4.298  14.320   7.172
99619SOL    HW2  632   4.238  14.244   7.055
99620SOL     OW  633  12.106   7.719  13.367
99620SOL    HW1  634  12.106   7.763  13.452
99620SOL    HW2  635  12.076   7.630  13.385
99621SOL     OW  636  11.878   1.743  14.160
99621SOL    HW1  637  11.934   1.803  14.210
99621SOL    HW2  638  11.809   1.799  14.124
99622SOL     OW  639   5.703  14.032   5.263
99622SOL    HW1  640   5.747  14.009   5.345
99622SOL    HW2  641   5.674  14.122   5.276
99623SOL     OW  642   3.718   1.910   9.392
99623SOL    HW1  643   3.792   1.889   9.449
99623SOL    HW2  644   3.660   1.964   9.446
99624SOL     OW  645  14.395  13.601   1.765
99624SOL    HW1  646  14.381  13.519   1.717
99624SOL    HW2  647  14.360  13.585   1.852
99625SOL     OW  648   6.929  13.545   9.539
99625SOL    HW1  649   6.939  13.603   9.464
99625SOL    HW2  650   6.884  13.598   9.605
99626SOL     OW  651   1.972   7.869   6.367
99626SOL    HW1  652   1.907   7.858   6.298
99626SOL    HW2  653   2.055   7.877   6.320
99627SOL     OW  654   9.374  10.314  11.663
99627SOL    HW1  655   9.462  10.285  11.687
99627SOL    HW2  656   9.320  10.293  11.739
99628SOL     OW  657   3.869  14.524   4.962
99628SOL    HW1  658   3.929  14.451   4.944
99628SOL    HW2  659   3.888  14.550   5.051
99629SOL     OW  660  11.942  10.716  13.218
99629SOL    HW1  661  11.902  10.761  13.143
99629SOL    HW2  662  11.973  10.633  13.181
99630SOL     OW  663  12.395   2.213  11.814
99630SOL    HW1  664  12.387   2.122  11.785
99630SOL    HW2  665  12.444   2.207  11.896
99631SOL     OW  666  11.820   2.113   7.080
99631SOL    HW1  667  11.807   2.123   6.986
99631SOL    HW2  668  11.792   2.023   7.099
99632SOL     OW  669   1.883  11.808   2.498
99632SOL    HW1  670   1.948  11.740   2.516
99632SOL    HW2  671   1.927  11.890   2.521
99633SOL     OW  672  11.131   6.430   9.511
99633SOL    HW1  673  11.046   6.397   9.541
99633SOL    HW2  674  11.153   6.376   9.435
99634SOL     OW  675  13.466  12.628   7.219
99634SOL    HW1  676  13.410  12.701   7.243
99634SOL    HW2  677  13.483  12.582   7.301
99635SOL     OW  678  12.042   3.358  10.633
99635SOL    HW1  679  12.136   3.342  10.627
99635SOL    HW2  680  12.001   3.278  10.602
99636SOL     OW  681  14.428   2.461   5.248
99636SOL    HW1  682  14.399   2.484   5.336
99636SOL    HW2  683  14.452   2.368   5.255
99637SOL     OW  684   4.125   3.337   7.212
99637SOL    HW1  685   4.180   3.263   7.183
99637SOL    HW2  686   4.045   3.328   7.162
99638SOL     OW  687  12.140  10.281  13.812
99638SOL    HW1  688  12.090  10.220  13.757
99638SOL    HW2  689  12.222  10.235  13.829
99639SOL     OW  690   9.426  10.048   7.695
99639SOL    HW1  691   9.497  10.041   7.759
99639SOL    HW2  692   9.357  10.097   7.740
99640SOL     OW  693   6.976   5.306   5.728
99640SOL    HW1  694   7.065   5.325   5.698
99640SOL    HW2  695   6.923   5.379   5.694
99641SOL     OW  696  12.756   6.254   4.259
99641SOL    HW1  697  12.808   6.174   4.249
99641SOL    HW2  698  12.684   6.228   4.318
99642SOL     OW  699  13.329   4.410  12.857
99642SOL    HW1  700  13.324   4.424  12.762
99642SOL    HW2  701  13.383   4.483  12.889
99643SOL     OW  702   5.132  13.403  11.719
99643SOL    HW1  703   5.201  13.366  11.664
99643SOL    HW2  704   5.057  13.411  11.660
99644SOL     OW  705   7.258   9.840   9.804
99644SOL    HW1  706   7.334   9.782   9.795
99644SOL    HW2  707   7.185   9.789   9.769
99645SOL     OW  708   5.916   4.733  13.124
99645SOL    HW1  709   5.881   4.665  13.067
99645SOL    HW2  710   5.954   4.686  13.198
99646SOL     OW  711   4.214   0.234   5.984
99646SOL    HW1  712   4.285   0.298   5.990
99646SOL    HW2  713   4.166   0.258   5.904
99647SOL     OW  714   7.738  10.085  14.161
99647SOL    HW1  715   7.735  10.040  14.077
99647SOL    HW2  716   7.647  10.109  14.179
99648SOL     OW  717   2.313   6.211   1.552
99648SOL    HW1  718   2.324   6.264   1.631
99648SOL    HW2  719   2.221   6.185   1.553
99649SOL     OW  720   1.879   6.027   4.901
99649SOL    HW1  721   1.948   5.962   4.884
99649SOL    HW2  722   1.804   5.996   4.851
99650SOL     OW  723  11.019   6.372  10.398
99650SOL    HW1  724  10.951   6.433  10.370
99650SOL    HW2  725  11.076   6.362  10.322
99651SOL     OW  726   6.039   4.869   3.436
99651SOL    HW1  727   6.037   4.858   3.341
99651SOL    HW2  728   5.955   4.910   3.457
99652SOL     OW  729   8.262   2.805   7.487
99652SOL    HW1  730   8.232   2.790   7.577
99652SOL    HW2  731   8.188   2.847   7.444
99653SOL     OW  732  11.534  11.942  13.647
99653SOL    HW1  733  11.501  11.856  13.672
99653SOL    HW2  734  11.497  12.002  13.711
99654SOL     OW  735   2.088  12.749   9.080
99654SOL    HW1  736   2.176  12.777   9.052
99654SOL    HW2  737   2.090  12.654   9.071
99655SOL     OW  738   7.287   5.173  12.536
99655SOL    HW1  739   7.291   5.268  12.525
99655SOL    HW2  740   7.203   5.159  12.580
99656SOL     OW  741   0.742   6.229   2.593
99656SOL    HW1  742   0.714   6.141   2.567
99656SOL    HW2  743   0.831   6.237   2.559
99657SOL     OW  744   0.465  11.072   4.840
99657SOL    HW1  745   0.431  11.062   4.929
99657SOL    HW2  746   0.421  11.003   4.790
99658SOL     OW  747   7.839  13.186   7.643
99658SOL    HW1  748   7.858  13.155   7.731
99658SOL    HW2  749   7.921  13.222   7.611
99659SOL     OW  750   6.420   6.212  11.573
99659SOL    HW1  751   6.445   6.200  11.481
99659SOL    HW2  752   6.339   6.160  11.583
99660SOL     OW  753   3.399   4.136   4.277
99660SOL    HW1  754   3.410   4.222   4.318
99660SOL    HW2  755   3.315   4.105   4.311
99661SOL     OW  756  10.423  13.807  10.639
99661SOL    HW1  757  10.499  13.795  10.582
99661SOL    HW2  758  10.454  13.862  10.711
99662SOL     OW  759   8.771   6.648   5.151
99662SOL    HW1  760   8.721   6.586   5.098
99662SOL    HW2  761   8.858   6.648   5.112
99663SOL     OW  762   4.119   3.480   1.987
99663SOL    HW1  763   4.139   3.387   1.998
99663SOL    HW2  764   4.132   3.518   2.074
99664SOL     OW  765   3.691  13.472   5.775
99664SOL    HW1  766   3.727  13.559   5.791
99664SOL    HW2  767   3.650  13.447   5.857
99665SOL     OW  768  11.904   3.592  13.830
99665SOL    HW1  769  11.932   3.669  13.881
99665SOL    HW2  770  11.811   3.609  13.812
99666SOL     OW  771   8.653   6.958   5.550
99666SOL    HW1  772   8.651   6.927   5.641
99666SOL    HW2  773   8.681   6.882   5.499
99667SOL     OW  774   2.839   3.642   8.528
99667SOL    HW1  775   2.814   3.551   8.543
99667SOL    HW2  776   2.912   3.636   8.466
99668SOL     OW  777  13.059   8.395  13.033
99668SOL    HW1  778  13.118   8.355  12.969
99668SOL    HW2  779  12.977   8.346  13.024
99669SOL     OW  780   7.665   1.460  14.621
99669SOL    HW1  781   7.680   1.421  14.535
99669SOL    HW2  782   7.742   1.438  14.672
99670SOL     OW  783  12.910  11.524   6.919
99670SOL    HW1  784  13.004  11.536   6.933
99670SOL    HW2  785  12.883  11.466   6.990
99671SOL     OW  786  14.549   9.105   5.045
99671SOL    HW1  787  14.556   9.111   4.949
99671SOL    HW2  788  14.490   9.176   5.069
99672SOL     OW  789  12.479   3.769  12.860
99672SOL    HW1  790  12.408   3.717  12.822
99672SOL    HW2  791  12.551   3.707  12.869
99673SOL     OW  792   2.544   0.483  10.468
99673SOL    HW1  793   2.463   0.534  10.472
99673SOL    HW2  794   2.569   0.486  10.376
99674SOL     OW  795   9.120   1.124   7.463
99674SOL    HW1  796   9.088   1.213   7.477
99674SOL    HW2  797   9.080   1.097   7.380
99675SOL     OW  798  12.328   9.744   3.551
99675SOL    HW1  799  12.399   9.727   3.489
99675SOL    HW2  800  12.267   9.800   3.503
99676SOL     OW  801  11.120   7.661  12.069
99676SOL    HW1  802  11.169   7.579  12.078
99676SOL    HW2  803  11.051   7.640  12.006
99677SOL     OW  804  13.592  10.343  10.547
99677SOL    HW1  805  13.580  10.255  10.583
99677SOL    HW2  806  13.549  10.339  10.461
99678SOL     OW  807   4.778   7.564   4.369
99678SOL    HW1  808   4.743   7.653   4.384
99678SOL    HW2  809   4.817   7.540   4.453
99679SOL     OW  810   1.314   6.988   0.263
99679SOL    HW1  811   1.313   7.060   0.200
99679SOL    HW2  812   1.242   7.008   0.324
99680SOL     OW  813   2.449   2.696   3.934
99680SOL    HW1  814   2.458   2.784   3.971
99680SOL    HW2  815   2.456   2.710   3.839
99681SOL     OW  816   8.433   6.769   3.185
99681SOL    HW1  817   8.528   6.770   3.175
99681SOL    HW2  818   8.401   6.737   3.100
99682SOL     OW  819   5.757   1.978  10.224
99682SOL    HW1  820   5.849   1.966  10.249
99682SOL    HW2  821   5.747   2.073  10.216
99683SOL     OW  822  10.554   0.307   6.764
99683SOL    HW1  823  10.591   0.244   6.827
99683SOL    HW2  824  10.576   0.392   6.801
99684SOL     OW  825   1.154   1.237   3.529
99684SOL    HW1  826   1.219   1.215   3.462
99684SOL    HW2  827   1.098   1.302   3.487
99685SOL     OW  828   1.285   7.162   5.302
99685SOL    HW1  829   1.266   7.083   5.251
99685SOL    HW2  830   1.199   7.199   5.322
99686SOL     OW  831   0.471  12.612   5.646
99686SOL    HW1  832   0.544  12.559   5.616
99686SOL    HW2  833   0.397  12.586   5.590
99687SOL     OW  834   4.167   3.729   2.295
99687SOL    HW1  835   4.101   3.661   2.309
99687SOL    HW2  836   4.130   3.806   2.338
99688SOL     OW  837  14.562   4.629   8.848
99688SOL    HW1  838  14.514   4.700   8.805
99688SOL    HW2  839  14.650   4.635   8.813
99689SOL     OW  840  10.495   6.696   7.311
99689SOL    HW1  841  10.424   6.663   7.365
99689SOL    HW2  842  10.458   6.772   7.266
99690SOL     OW  843   0.297   3.863   1.056
99690SOL    HW1  844   0.335   3.945   1.086
99690SOL    HW2  845   0.361   3.796   1.081
99691SOL     OW  846   5.959   4.110  11.613
99691SOL    HW1  847   5.870   4.076  11.624
99691SOL    HW2  848   5.952   4.203  11.634
99692SOL     OW  849  14.541   8.531  10.848
99692SOL    HW1  850  14.458   8.490  10.874
99692SOL    HW2  851  14.552   8.603  10.910
99693SOL     OW  852  13.324   9.000   6.637
99693SOL    HW1  853  13.261   8.979   6.569
99693SOL    HW2  854  13.384   8.925   6.638
99694SOL     OW  855   7.061   8.975   5.390
99694SOL    HW1  856   7.099   8.927   5.317
99694SOL    HW2  857   7.130   8.976   5.457
99695SOL     OW  858   1.528   8.755   9.341
99695SOL    HW1  859   1.592   8.788   9.277
99695SOL    HW2  860   1.444   8.785   9.309
99696SOL     OW  861  10.862  14.120  10.721
99696SOL    HW1  862  10.954  14.126  10.747
99696SOL    HW2  863  10.813  14.138  10.802
99697SOL     OW  864  14.146   4.859   0.230
99697SOL    HW1  865  14.240   4.840   0.227
99697SOL    HW2  866  14.111   4.792   0.289
99698SOL     OW  867  13.289   2.016  10.626
99698SOL    HW1  868  13.366   2.073  10.632
99698SOL    HW2  869  13.254   2.033  10.539
99699SOL     OW  870   5.741   6.006   4.080
99699SOL    HW1  871   5.677   6.035   4.145
99699SOL    HW2  872   5.812   6.070   4.085
99700SOL     OW  873   9.897   5.162   6.763
99700SOL    HW1  874   9.926   5.141   6.851
99700SOL    HW2  875   9.821   5.107   6.748
99701SOL     OW  876  14.578   1.944   8.999
99701SOL    HW1  877  14.517   1.886   9.045
99701SOL    HW2  878  14.635   1.980   9.067
99702SOL     OW  879  11.542  12.437   9.725
99702SOL    HW1  880  11.601  12.470   9.793
99702SOL    HW2  881  11.455  12.444   9.763
99703SOL     OW  882   7.567   7.183   6.527
99703SOL    HW1  883   7.634   7.249   6.543
99703SOL    HW2  884   7.529   7.207   6.443
99704SOL     OW  885  10.735  13.605  13.222
99704SOL    HW1  886  10.815  13.553  13.220
99704SOL    HW2  887  10.747  13.670  13.152
99705SOL     OW  888   9.419  12.889   3.736
99705SOL    HW1  889   9.354  12.941   3.783
99705SOL    HW2  890   9.383  12.801   3.736
99706SOL     OW  891   9.718  12.750  12.238
99706SOL    HW1  892   9.690  12.714  12.154
99706SOL    HW2  893   9.692  12.842  12.235
99707SOL     OW  894   6.689   6.060   8.933
99707SOL    HW1  895   6.718   6.132   8.989
99707SOL    HW2  896   6.701   5.982   8.987
99708SOL     OW  897  12.336   0.526  14.363
99708SOL    HW1  898  12.304   0.464  14.429
99708SOL    HW2  899  12.261   0.539  14.304
99709SOL     OW  900  13.552  10.369   3.941
99709SOL    HW1  901  13.503  10.388   3.861
99709SOL    HW2  902  13.571  10.275   3.936
99710SOL     OW  903  12.381  10.681   5.497
99710SOL    HW1  904  12.352  10.763   5.537
99710SOL    HW2  905  12.323  10.670   5.422
99711SOL     OW  906   9.250   6.051   7.240
99711SOL    HW1  907   9.334   6.052   7.194
99711SOL    HW2  908   9.198   6.119   7.197
99712SOL     OW  909   7.537   9.436  10.197
99712SOL    HW1  910   7.492   9.507  10.150
99712SOL    HW2  911   7.630   9.452  10.179
99713SOL     OW  912  10.925   4.870   4.660
99713SOL    HW1  913  10.931   4.956   4.619
99713SOL    HW2  914  10.958   4.884   4.749
99714SOL     OW  915  11.632   9.698  11.969
99714SOL    HW1  916  11.646   9.611  11.931
99714SOL    HW2  917  11.651   9.759  11.899
99715SOL     OW  918   9.438   1.793   1.248
99715SOL    HW1  919   9.496   1.756   1.181
99715SOL    HW2  920   9.416   1.719   1.304
99716SOL     OW  921   7.361   3.025   3.024
99716SOL    HW1  922   7.340   2.933   3.044
99716SOL    HW2  923   7.444   3.021   2.977
99717SOL     OW  924   0.898   0.228   1.567
99717SOL    HW1  925   0.856   0.162   1.512
99717SOL    HW2  926   0.992   0.221   1.546
99718SOL     OW  927  14.228  13.754   9.216
99718SOL    HW1  928  14.154  13.799   9.257
99718SOL    HW2  929  14.203  13.661   9.217
99719SOL     OW  930   8.244   9.653   4.438
99719SOL    HW1  931   8.254   9.664   4.344
99719SOL    HW2  932   8.150   9.648   4.452
99720SOL     OW  933   5.877   5.058   0.137
99720SOL    HW1  934   5.803   5.035   0.193
99720SOL    HW2  935   5.949   5.003   0.168
99721SOL     OW  936  12.067   9.871   9.678
99721SOL    HW1  937  11.996   9.858   9.615
99721SOL    HW2  938  12.123   9.938   9.639
99722SOL     OW  939   4.699   8.558   7.256
99722SOL    HW1  940   4.643   8.599   7.189
99722SOL    HW2  941   4.774   8.524   7.207
99723SOL     OW  942   4.301  10.061   2.938
99723SOL    HW1  943   4.231  10.126   2.933
99723SOL    HW2  944   4.325  10.045   2.847
99724SOL     OW  945  13.909  11.538   7.341
99724SOL    HW1  946  13.907  11.599   7.415
99724SOL    HW2  947  13.894  11.452   7.380
99725SOL     OW  948   8.025  14.046  13.096
99725SOL    HW1  949   7.934  14.073  13.108
99725SOL    HW2  950   8.077  14.120  13.128
99726SOL     OW  951  10.740   0.481   8.342
99726SOL    HW1  952  10.708   0.488   8.431
99726SOL    HW2  953  10.835   0.488   8.349
99727SOL     OW  954   4.942   1.842   1.674
99727SOL    HW1  955   4.965   1.932   1.698
99727SOL    HW2  956   5.005   1.819   1.606
99728SOL     OW  957   0.445   5.361   3.867
99728SOL    HW1  958   0.358   5.394   3.891
99728SOL    HW2  959   0.429   5.273   3.833
99729SOL     OW  960  13.239  10.834   9.395
99729SOL    HW1  961  13.277  10.848   9.308
99729SOL    HW2  962  13.310  10.796   9.446
99730SOL     OW  963  11.372   6.863   9.842
99730SOL    HW1  964  11.287   6.895   9.873
99730SOL    HW2  965  11.409   6.818   9.918
99731SOL     OW  966   2.845   9.754  13.768
99731SOL    HW1  967   2.909   9.730  13.702
99731SOL    HW2  968   2.761   9.754  13.721
99732SOL     OW  969  10.798  14.748   7.584
99732SOL    HW1  970  10.803  14.839   7.556
99732SOL    HW2  971  10.890  14.722   7.596
99733SOL     OW  972  12.088   9.314   1.836
99733SOL    HW1  973  12.079   9.219   1.843
99733SOL    HW2  974  12.154   9.326   1.767
99734SOL     OW  975   2.040   8.116   4.827
99734SOL    HW1  976   1.966   8.126   4.887
99734SOL    HW2  977   2.004   8.138   4.741
99735SOL     OW  978   6.344   5.282  11.597
99735SOL    HW1  979   6.270   5.241  11.643
99735SOL    HW2  980   6.359   5.226  11.521
99736SOL     OW  981  13.030  14.169   2.715
99736SOL    HW1  982  13.065  14.081   2.731
99736SOL    HW2  983  12.993  14.164   2.626
99737SOL     OW  984  14.340   8.125   8.048
99737SOL    HW1  985  14.386   8.043   8.032
99737SOL    HW2  986  14.403   8.193   8.023
99738SOL     OW  987  14.117   0.849   0.212
99738SOL    HW1  988  14.092   0.760   0.186
99738SOL    HW2  989  14.067   0.866   0.292
99739SOL     OW  990   7.759   0.291  12.553
99739SOL    HW1  991   7.753   0.351  12.628
99739SOL    HW2  992   7.676   0.300  12.508
99740SOL     OW  993   3.538   1.598   8.249
99740SOL    HW1  994   3.529   1.645   8.166
99740SOL    HW2  995   3.487   1.518   8.237
99741SOL     OW  996   0.925   3.017   9.773
99741SOL    HW1  997   0.952   2.957   9.843
99741SOL    HW2  998   0.837   2.987   9.750
99742SOL     OW  999  10.634   5.897   7.597
99742SOL    HW1 1000  10.549   5.865   7.569
99742SOL    HW2 1001  10.624   5.992   7.604
99743SOL     OW 1002  11.332  12.817  12.490
99743SOL    HW1 1003  11.426  12.816  12.509
99743SOL    HW2 1004  11.294  12.761  12.557
99744SOL     OW 1005   6.948   2.468  10.374
99744SOL    HW1 1006   6.994   2.534  10.323
99744SOL    HW2 1007   6.913   2.515  10.450
99745SOL     OW 1008  11.125   5.747   6.694
99745SOL    HW1 1009  11.040   5.787   6.713
99745SOL    HW2 1010  11.111   5.697   6.614
99746SOL     OW 1011  12.360   4.180  11.520
99746SOL    HW1 1012  12.301   4.252  11.499
99746SOL    HW2 1013  12.370   4.133  11.437
99747SOL     OW 1014   2.149   5.492   2.237
99747SOL    HW1 1015   2.055   5.482   2.254
99747SOL    HW2 1016   2.162   5.450   2.152
99748SOL     OW 1017   5.540  11.095   4.815
99748SOL    HW1 1018   5.622  11.140   4.834
99748SOL    HW2 1019   5.502  11.142   4.741
99749SOL     OW 1020   9.862  12.002   9.544
99749SOL    HW1 1021   9.922  12.018   9.617
99749SOL    HW2 1022   9.900  12.051   9.471
99750SOL     OW 1023  11.153  13.023   7.340
99750SOL    HW1 1024  11.207  13.050   7.414
99750SOL    HW2 1025  11.152  12.928   7.344
99751SOL     OW 1026  14.841  10.091   2.504
99751SOL    HW1 1027   0.055  10.116   2.502
99751SOL    HW2 1028  14.801  10.149   2.569
99752SOL     OW 1029  10.452   8.045   2.456
99752SOL    HW1 1030  10.513   7.976   2.484
99752SOL    HW2 1031  10.407   8.071   2.536
99753SOL     OW 1032   4.937  13.810   6.216
99753SOL    HW1 1033   4.855  13.764   6.203
99753SOL    HW2 1034   4.918  13.901   6.192
99754SOL     OW 1035   5.622  14.812  12.897
99754SOL    HW1 1036   5.707  14.853  12.913
99754SOL    HW2 1037   5.609  14.754  12.972
99755SOL     OW 1038  10.697   2.076   8.886
99755SOL    HW1 1039  10.771   2.098   8.830
99755SOL    HW2 1040  10.681   2.156   8.937
99756SOL     OW 1041   8.721   3.177   9.801
99756SOL    HW1 1042   8.672   3.152   9.723
99756SOL    HW2 1043   8.681   3.127   9.872
99757SOL     OW 1044   9.692   2.598  14.861
99757SOL    HW1 1045   9.655   2.680   0.015
99757SOL    HW2 1046   9.766   2.624  14.807
99758SOL     OW 1047   6.634  13.401  11.376
99758SOL    HW1 1048   6.644  13.375  11.285
99758SOL    HW2 1049   6.647  13.496  11.375
99759SOL     OW 1050   6.281   0.264  11.080
99759SOL    HW1 1051   6.324   0.179  11.076
99759SOL    HW2 1052   6.336   0.316  11.140
99760SOL     OW 1053   1.455   7.830   8.094
99760SOL    HW1 1054   1.398   7.761   8.129
99760SOL    HW2 1055   1.507   7.786   8.027
99761SOL     OW 1056  10.996   3.405   3.868
99761SOL    HW1 1057  11.085   3.422   3.899
99761SOL    HW2 1058  10.967   3.331   3.920
99762SOL     OW 1059  10.351   1.636   7.212
99762SOL    HW1 1060  10.394   1.706   7.261
99762SOL    HW2 1061  10.336   1.673   7.125
99763SOL     OW 1062  10.271   1.441  13.223
99763SOL    HW1 1063  10.348   1.497  13.216
99763SOL    HW2 1064  10.197   1.501  13.217
99764SOL     OW 1065   6.076  11.124   1.825
99764SOL    HW1 1066   6.124  11.043   1.841
99764SOL    HW2 1067   6.125  11.167   1.755
99765SOL     OW 1068  10.772  11.143  11.065
99765SOL    HW1 1069  10.720  11.153  11.146
99765SOL    HW2 1070  10.750  11.055  11.034
99766SOL     OW 1071   8.776   8.528   2.376
99766SOL    HW1 1072   8.740   8.497   2.459
99766SOL    HW2 1073   8.785   8.623   2.388
99767SOL     OW 1074   7.740   9.269   5.769
99767SOL    HW1 1075   7.777   9.181   5.763
99767SOL    HW2 1076   7.717   9.278   5.861
99768SOL     OW 1077   5.915  10.163   6.372
99768SOL    HW1 1078   5.939  10.082   6.326
99768SOL    HW2 1079   5.834  10.142   6.418
99769SOL     OW 1080   6.469   4.010  10.050
99769SOL    HW1 1081   6.550   3.975  10.012
99769SOL    HW2 1082   6.469   3.978  10.139
99770SOL     OW 1083   4.436   9.421  14.801
99770SOL    HW1 1084   4.476   9.342  14.766
99770SOL    HW2 1085   4.442   9.485  14.730
99771SOL     OW 1086   6.421   1.714   3.976
99771SOL    HW1 1087   6.414   1.804   4.007
99771SOL    HW2 1088   6.361   1.664   4.032
99772SOL     OW 1089   4.548  11.220   0.640
99772SOL    HW1 1090   4.491  11.282   0.596
99772SOL    HW2 1091   4.603  11.183   0.571
99773SOL     OW 1092   8.300  11.011   2.851
99773SOL    HW1 1093   8.346  11.013   2.767
99773SOL    HW2 1094   8.211  10.983   2.828
99774SOL     OW 1095   1.663   0.767   6.967
99774SOL    HW1 1096   1.744   0.808   6.997
99774SOL    HW2 1097   1.692   0.699   6.906
99775SOL     OW 1098   5.880  11.924   0.335
99775SOL    HW1 1099   5.858  11.971   0.255
99775SOL    HW2 1100   5.812  11.857   0.344
99776SOL     OW 1101  10.928  13.281  12.914
99776SOL    HW1 1102  10.923  13.203  12.970
99776SOL    HW2 1103  11.020  13.284  12.887
99777SOL     OW 1104   0.641   2.912  11.037
99777SOL    HW1 1105   0.692   2.873  11.108
99777SOL    HW2 1106   0.655   3.006  11.047
99778SOL     OW 1107   0.541  11.607   7.959
99778SOL    HW1 1108   0.593  11.530   7.986
99778SOL    HW2 1109   0.511  11.586   7.871
99779SOL     OW 1110   0.677   3.107   9.437
99779SOL    HW1 1111   0.583   3.096   9.421
99779SOL    HW2 1112   0.703   3.027   9.483
99780SOL     OW 1113   4.861  13.411   5.984
99780SOL    HW1 1114   4.853  13.359   5.904
99780SOL    HW2 1115   4.792  13.477   5.976
99781SOL     OW 1116   7.653  14.696  11.686
99781SOL    HW1 1117   7.695  14.676  11.770
99781SOL    HW2 1118   7.641  14.791  11.688
99782SOL     OW 1119   2.075   3.550   0.005
99782SOL    HW1 1120   2.065   3.466  14.838
99782SOL    HW2 1121   2.092   3.527   0.096
99783SOL     OW 1122   3.680   3.047   3.726
99783SOL    HW1 1123   3.636   3.125   3.760
99783SOL    HW2 1124   3.732   3.015   3.800
99784SOL     OW 1125   4.631   1.204   0.512
99784SOL    HW1 1126   4.625   1.109   0.508
99784SOL    HW2 1127   4.568   1.229   0.580
99785SOL     OW 1128  11.538   4.199   2.654
99785SOL    HW1 1129  11.523   4.111   2.689
99785SOL    HW2 1130  11.541   4.255   2.731
99786SOL     OW 1131  13.262   5.314   2.340
99786SOL    HW1 1132  13.346   5.275   2.365
99786SOL    HW2 1133  13.274   5.408   2.352
99787SOL     OW 1134   7.907   5.980   9.592
99787SOL    HW1 1135   7.841   5.911   9.593
99787SOL    HW2 1136   7.981   5.942   9.544
99788SOL     OW 1137   4.042  11.443   3.694
99788SOL    HW1 1138   4.118  11.404   3.650
99788SOL    HW2 1139   4.035  11.396   3.777
99789SOL     OW 1140   6.921   3.483   7.802
99789SOL    HW1 1141   6.888   3.401   7.764
99789SOL    HW2 1142   6.961   3.529   7.728
99790SOL     OW 1143   5.150   6.621  14.313
99790SOL    HW1 1144   5.209   6.558  14.354
99790SOL    HW2 1145   5.068   6.613  14.361
99791SOL     OW 1146   1.050  14.525  10.407
99791SOL    HW1 1147   1.134  14.504  10.447
99791SOL    HW2 1148   1.029  14.448  10.354
99792SOL     OW 1149   7.502   4.173  14.489
99792SOL    HW1 1150   7.537   4.179  14.400
99792SOL    HW2 1151   7.572   4.131  14.540
99793SOL     OW 1152   4.527   5.624   7.729
99793SOL    HW1 1153   4.538   5.586   7.816
99793SOL    HW2 1154   4.598   5.587   7.677
99794SOL     OW 1155   9.871  12.481   1.558
99794SOL    HW1 1156   9.862  12.569   1.521
99794SOL    HW2 1157   9.875  12.495   1.652
99795SOL     OW 1158   9.388   2.886   1.072
99795SOL    HW1 1159   9.481   2.880   1.090
99795SOL    HW2 1160   9.379   2.863   0.980
99796SOL     OW 1161   3.204  11.818   5.559
99796SOL    HW1 1162   3.143  11.757   5.600
99796SOL    HW2 1163   3.265  11.762   5.511
99797SOL     OW 1164   8.356   2.630   3.244
99797SOL    HW1 1165   8.347   2.683   3.324
99797SOL    HW2 1166   8.432   2.668   3.199
99798SOL     OW 1167  10.217   9.186   1.952
99798SOL    HW1 1168  10.189   9.237   1.876
99798SOL    HW2 1169  10.165   9.221   2.025
99799SOL     OW 1170  11.898   3.598   2.722
99799SOL    HW1 1171  11.944   3.681   2.738
99799SOL    HW2 1172  11.944   3.535   2.778
99800SOL     OW 1173   3.276  14.533  12.563
99800SOL    HW1 1174   3.363  14.565  12.540
99800SOL    HW2 1175   3.284  14.508  12.655
99801SOL     OW 1176   4.908   9.803  10.014
99801SOL    HW1 1177   4.952   9.886   9.999
99801SOL    HW2 1178   4.820   9.816   9.978
99802SOL     OW 1179   2.518   4.212   5.387
99802SOL    HW1 1180   2.576   4.277   5.426
99802SOL    HW2 1181   2.454   4.194   5.456
99803SOL     OW 1182   8.624   8.235  10.179
99803SOL    HW1 1183   8.666   8.163  10.225
99803SOL    HW2 1184   8.613   8.203  10.089
99804SOL     OW 1185   9.958   3.135   3.981
99804SOL    HW1 1186   9.942   3.211   4.038
99804SOL    HW2 1187  10.038   3.096   4.016
99805SOL     OW 1188   0.751   3.969   1.754
99805SOL    HW1 1189   0.808   4.034   1.795
99805SOL    HW2 1190   0.744   3.899   1.820
99806SOL     OW 1191   9.767  10.974  11.140
99806SOL    HW1 1192   9.794  10.888  11.110
99806SOL    HW2 1193   9.830  11.034  11.100
99807SOL     OW 1194   6.566   6.162   0.036
99807SOL    HW1 1195   6.601   6.171   0.125
99807SOL    HW2 1196   6.617   6.091  14.876
99808SOL     OW 1197  12.686  10.567   9.534
99808SOL    HW1 1198  12.778  10.594   9.548
99808SOL    HW2 1199  12.636  10.648   9.544
99809SOL     OW 1200   5.210  11.852   2.875
99809SOL    HW1 1201   5.143  11.915   2.901
99809SOL    HW2 1202   5.265  11.841   2.953
99810SOL     OW 1203  12.811  13.063   4.369
99810SOL    HW1 1204  12.744  13.006   4.332
99810SOL    HW2 1205  12.762  13.130   4.417
99811SOL     OW 1206  13.693  12.631   1.681
99811SOL    HW1 1207  13.760  12.571   1.649
99811SOL    HW2 1208  13.613  12.579   1.682
99812SOL     OW 1209   9.828   2.867   8.178
99812SOL    HW1 1210   9.857   2.810   8.250
99812SOL    HW2 1211   9.734   2.849   8.170
99813SOL     OW 1212   5.419   6.070   0.114
99813SOL    HW1 1213   5.397   6.157   0.147
99813SOL    HW2 1214   5.480   6.034   0.179
99814SOL     OW 1215  14.870   2.531   3.922
99814SOL    HW1 1216   0.057   2.567   3.983
99814SOL    HW2 1217  14.802   2.599   3.916
99815SOL     OW 1218   1.698   6.176   5.586
99815SOL    HW1 1219   1.723   6.124   5.509
99815SOL    HW2 1220   1.603   6.172   5.588
99816SOL     OW 1221   3.454  14.667   0.706
99816SOL    HW1 1222   3.413  14.703   0.785
99816SOL    HW2 1223   3.532  14.621   0.739
99817SOL     OW 1224   2.000   7.599   3.921
99817SOL    HW1 1225   1.933   7.557   3.974
99817SOL    HW2 1226   2.049   7.654   3.983
99818SOL     OW 1227   2.067   8.908  14.809
99818SOL    HW1 1228   2.091   8.976  14.746
99818SOL    HW2 1229   2.104   8.939   0.014
99819SOL     OW 1230   9.295   5.916   6.822
99819SOL    HW1 1231   9.340   5.836   6.794
99819SOL    HW2 1232   9.235   5.887   6.891
99820SOL     OW 1233   7.097   5.101   7.132
99820SOL    HW1 1234   7.084   5.008   7.149
99820SOL    HW2 1235   7.025   5.144   7.178
99821SOL     OW 1236   6.613  11.878   6.781
99821SOL    HW1 1237   6.597  11.785   6.765
99821SOL    HW2 1238   6.525  11.916   6.788
99822SOL     OW 1239  13.856  12.695  12.467
99822SOL    HW1 1240  13.934  12.733  12.506
99822SOL    HW2 1241  13.837  12.751  12.392
99823SOL     OW 1242   4.974  12.308   6.665
99823SOL    HW1 1243   5.062  12.270   6.661
99823SOL    HW2 1244   4.984  12.384   6.723
99824SOL     OW 1245  12.898   6.590   8.077
99824SOL    HW1 1246  12.866   6.678   8.062
99824SOL    HW2 1247  12.967   6.601   8.143
99825SOL     OW 1248   5.430   8.565   6.220
99825SOL    HW1 1249   5.462   8.632   6.159
99825SOL    HW2 1250   5.461   8.483   6.183
99826SOL     OW 1251   5.029   2.662  10.141
99826SOL    HW1 1252   4.946   2.624  10.168
99826SOL    HW2 1253   5.039   2.740  10.196
99827SOL     OW 1254   1.868  10.966   0.190
99827SOL    HW1 1255   1.875  10.971   0.285
99827SOL    HW2 1256   1.853  10.873   0.172
99828SOL     OW 1257   7.353  13.839   2.302
99828SOL    HW1 1258   7.292  13.829   2.376
99828SOL    HW2 1259   7.391  13.752   2.291
99829SOL     OW 1260   8.106   7.345   0.161
99829SOL    HW1 1261   8.158   7.387   0.093
99829SOL    HW2 1262   8.130   7.253   0.157
99830SOL     OW 1263   6.150   7.283   6.404
99830SOL    HW1 1264   6.172   7.366   6.363
99830SOL    HW2 1265   6.087   7.305   6.473
99831SOL     OW 1266  12.361   2.275   7.566
99831SOL    HW1 1267  12.285   2.331   7.555
99831SOL    HW2 1268  12.433   2.335   7.587
99832SOL     OW 1269  10.706   1.821   2.291
99832SOL    HW1 1270  10.730   1.891   2.350
99832SOL    HW2 1271  10.611   1.815   2.298
99833SOL     OW 1272  12.228   0.557   3.075
99833SOL    HW1 1273  12.244   0.508   2.994
99833SOL    HW2 1274  12.136   0.539   3.096
99834SOL     OW 1275  11.029   6.311   7.518
99834SOL    HW1 1276  11.092   6.250   7.480
99834SOL    HW2 1277  11.048   6.395   7.474
99835SOL     OW 1278  11.606   7.880   2.123
99835SOL    HW1 1279  11.521   7.924   2.118
99835SOL    HW2 1280  11.594   7.814   2.192
99836SOL     OW 1281   6.724  14.227   4.622
99836SOL    HW1 1282   6.754  14.270   4.542
99836SOL    HW2 1283   6.674  14.294   4.668
99837SOL     OW 1284   4.026  13.268  13.801
99837SOL    HW1 1285   3.967  13.256  13.726
99837SOL    HW2 1286   4.105  13.306  13.763
99838SOL     OW 1287  12.055   7.746  11.454
99838SOL    HW1 1288  12.048   7.685  11.381
99838SOL    HW2 1289  12.030   7.831  11.416
99839SOL     OW 1290  11.935  12.432  13.596
99839SOL    HW1 1291  11.927  12.341  13.566
99839SOL    HW2 1292  11.878  12.437  13.673
99840SOL     OW 1293   4.235   2.497   4.244
99840SOL    HW1 1294   4.155   2.455   4.213
99840SOL    HW2 1295   4.304   2.433   4.226
99841SOL     OW 1296   5.752  10.739  11.847
99841SOL    HW1 1297   5.733  10.646  11.858
99841SOL    HW2 1298   5.847  10.742  11.833
99842SOL     OW 1299  14.437   0.198   4.617
99842SOL    HW1 1300  14.511   0.150   4.578
99842SOL    HW2 1301  14.390   0.234   4.542
99843SOL     OW 1302  10.176   0.758  13.859
99843SOL    HW1 1303  10.093   0.799  13.837
99843SOL    HW2 1304  10.156   0.665  13.867
99844SOL     OW 1305  14.306  11.524  12.896
99844SOL    HW1 1306  14.314  11.593  12.831
99844SOL    HW2 1307  14.212  11.516  12.910
99845SOL     OW 1308  13.982  11.891  11.398
99845SOL    HW1 1309  13.933  11.940  11.464
99845SOL    HW2 1310  14.015  11.814  11.444
99846SOL     OW 1311   1.978   7.713  12.265
99846SOL    HW1 1312   1.883   7.702  12.256
99846SOL    HW2 1313   1.996   7.799  12.227
99847SOL     OW 1314   3.502   7.146   1.324
99847SOL    HW1 1315   3.487   7.175   1.413
99847SOL    HW2 1316   3.592   7.172   1.304
99848SOL     OW 1317   1.218  14.299   7.721
99848SOL    HW1 1318   1.199  14.393   7.726
99848SOL    HW2 1319   1.132  14.257   7.721
99849SOL     OW 1320  14.165   2.618  12.452
99849SOL    HW1 1321  14.081   2.584  12.421
99849SOL    HW2 1322  14.143   2.701  12.495
99850SOL     OW 1323   6.043  14.724   0.967
99850SOL    HW1 1324   6.063  14.729   0.874
99850SOL    HW2 1325   6.126  14.746   1.011
99851SOL     OW 1326   0.031   9.724   9.227
99851SOL    HW1 1327   0.011   9.650   9.170
99851SOL    HW2 1328   0.104   9.768   9.184
99852SOL     OW 1329  14.006  12.941  13.575
99852SOL    HW1 1330  13.991  12.847  13.583
99852SOL    HW2 1331  14.097  12.953  13.603
99853SOL     OW 1332  11.091   7.525   7.226
99853SOL    HW1 1333  11.111   7.547   7.317
99853SOL    HW2 1334  10.997   7.542   7.217
99854SOL     OW 1335   3.439  10.899  13.010
99854SOL    HW1 1336   3.469  10.989  13.000
99854SOL    HW2 1337   3.356  10.907  13.056
99855SOL     OW 1338   0.965   6.930   3.978
99855SOL    HW1 1339   0.899   6.864   3.958
99855SOL    HW2 1340   0.988   6.915   4.070
99856SOL     OW 1341   3.242  13.697  13.979
99856SOL    HW1 1342   3.225  13.719  13.887
99856SOL    HW2 1343   3.279  13.609  13.975
99857SOL     OW 1344   5.328   0.401  11.220
99857SOL    HW1 1345   5.417   0.400  11.256
99857SOL    HW2 1346   5.335   0.352  11.138
99858SOL     OW 1347  11.844  10.654  14.660
99858SOL    HW1 1348  11.904  10.725  14.684
99858SOL    HW2 1349  11.900  10.578  14.647
99859SOL     OW 1350   5.668  10.324   6.286
99859SOL    HW1 1351   5.592  10.339   6.229
99859SOL    HW2 1352   5.713  10.409   6.288
99860SOL     OW 1353   4.352   6.200  12.289
99860SOL    HW1 1354   4.264   6.185  12.256
99860SOL    HW2 1355   4.403   6.127  12.256
99861SOL     OW 1356   5.335   4.314   1.250
99861SOL    HW1 1357   5.385   4.387   1.285
99861SOL    HW2 1358   5.392   4.238   1.261
99862SOL     OW 1359   9.661   6.935   4.094
99862SOL    HW1 1360   9.565   6.927   4.093
99862SOL    HW2 1361   9.690   6.869   4.157
99863SOL     OW 1362   5.287   2.385  11.422
99863SOL    HW1 1363   5.349   2.431  11.478
99863SOL    HW2 1364   5.301   2.421  11.335
99864SOL     OW 1365  14.315   9.493   3.654
99864SOL    HW1 1366  14.273   9.445   3.726
99864SOL    HW2 1367  14.258   9.477   3.578
99865SOL     OW 1368   4.728   1.009  13.603
99865SOL    HW1 1369   4.738   1.021  13.698
99865SOL    HW2 1370   4.701   0.918  13.593
99866SOL     OW 1371   8.209   2.682   0.478
99866SOL    HW1 1372   8.171   2.769   0.493
99866SOL    HW2 1373   8.164   2.626   0.541
99867SOL     OW 1374   5.537   1.030  13.569
99867SOL    HW1 1375   5.538   1.103  13.630
99867SOL    HW2 1376   5.446   0.999  13.569
99868SOL     OW 1377   5.776   0.519  12.330
99868SOL    HW1 1378   5.684   0.491  12.328
99868SOL    HW2 1379   5.825   0.437  12.335
99869SOL     OW 1380   4.745   5.157  10.659
99869SOL    HW1 1381   4.754   5.250  10.636
99869SOL    HW2 1382   4.742   5.112  10.575
99870SOL     OW 1383   7.953   2.584   7.076
99870SOL    HW1 1384   8.017   2.616   7.012
99870SOL    HW2 1385   7.947   2.490   7.060
99871SOL     OW 1386  14.240   6.206  11.361
99871SOL    HW1 1387  14.268   6.153  11.287
99871SOL    HW2 1388  14.178   6.150  11.409
99872SOL     OW 1389   7.276   7.847   1.610
99872SOL    HW1 1390   7.320   7.832   1.693
99872SOL    HW2 1391   7.335   7.905   1.562
99873SOL     OW 1392   0.260  12.557  13.933
99873SOL    HW1 1393   0.311  12.612  13.994
99873SOL    HW2 1394   0.215  12.620  13.877
99874SOL     OW 1395   5.357  12.232  14.390
99874SOL    HW1 1396   5.295  12.233  14.317
99874SOL    HW2 1397   5.427  12.174  14.360
99875SOL     OW 1398   1.734   3.524   6.867
99875SOL    HW1 1399   1.705   3.473   6.792
99875SOL    HW2 1400   1.684   3.606   6.861
99876SOL     OW 1401   6.429   3.186  12.499
99876SOL    HW1 1402   6.426   3.093  12.524
99876SOL    HW2 1403   6.480   3.187  12.418
99877SOL     OW 1404   4.224  11.350   7.039
99877SOL    HW1 1405   4.234  11.379   7.129
99877SOL    HW2 1406   4.314  11.340   7.006
99878SOL     OW 1407  13.600   2.784  12.743
99878SOL    HW1 1408  13.561   2.708  12.786
99878SOL    HW2 1409  13.533   2.814  12.681
99879SOL     OW 1410  14.594   1.078   5.606
99879SOL    HW1 1411  14.554   0.994   5.585
99879SOL    HW2 1412  14.648   1.061   5.683
99880SOL     OW 1413   8.860   8.196   3.191
99880SOL    HW1 1414   8.782   8.250   3.184
99880SOL    HW2 1415   8.838   8.130   3.257
99881SOL     OW 1416  13.264   0.422  12.636
99881SOL    HW1 1417  13.308   0.429  12.721
99881SOL    HW2 1418  13.293   0.338  12.601
99882SOL     OW 1419  10.839   0.232   2.710
99882SOL    HW1 1420  10.875   0.170   2.773
99882SOL    HW2 1421  10.877   0.316   2.735
99883SOL     OW 1422   7.869   0.024   4.904
99883SOL    HW1 1423   7.898   0.048   4.992
99883SOL    HW2 1424   7.942  14.852   4.868
99884SOL     OW 1425   4.334   5.178  10.747
99884SOL    HW1 1426   4.304   5.194  10.837
99884SOL    HW2 1427   4.407   5.239  10.735
99885SOL     OW 1428   6.109  10.852   6.113
99885SOL    HW1 1429   6.062  10.796   6.051
99885SOL    HW2 1430   6.143  10.792   6.179
99886SOL     OW 1431   3.108  12.345   0.630
99886SOL    HW1 1432   3.093  12.350   0.536
99886SOL    HW2 1433   3.193  12.388   0.644
99887SOL     OW 1434  12.785   7.504   5.620
99887SOL    HW1 1435  12.713   7.443   5.631
99887SOL    HW2 1436  12.754   7.568   5.555
99888SOL     OW 1437   0.550   0.816  11.064
99888SOL    HW1 1438   0.549   0.774  10.977
99888SOL    HW2 1439   0.481   0.771  11.113
99889SOL     OW 1440   9.879  14.509  10.231
99889SOL    HW1 1441   9.890  14.441  10.297
99889SOL    HW2 1442   9.841  14.583  10.279
99890SOL     OW 1443   4.394   3.927   4.275
99890SOL    HW1 1444   4.420   4.014   4.304
99890SOL    HW2 1445   4.477   3.881   4.259
99891SOL     OW 1446  10.661   1.740   9.597
99891SOL    HW1 1447  10.662   1.646   9.581
99891SOL    HW2 1448  10.617   1.777   9.520
99892SOL     OW 1449   6.453   1.720   7.047
99892SOL    HW1 1450   6.419   1.740   7.135
99892SOL    HW2 1451   6.387   1.663   7.008
99893SOL     OW 1452   4.539   7.764   4.697
99893SOL    HW1 1453   4.517   7.816   4.775
99893SOL    HW2 1454   4.456   7.753   4.651
99894SOL     OW 1455   5.693  14.775   2.838
99894SOL    HW1 1456   5.615  14.723   2.859
99894SOL    HW2 1457   5.755  14.711   2.802
99895SOL     OW 1458  11.620   0.621   3.884
99895SOL    HW1 1459  11.572   0.555   3.835
99895SOL    HW2 1460  11.640   0.579   3.968
99896SOL     OW 1461   9.400   9.894   3.139
99896SOL    HW1 1462   9.413   9.846   3.057
99896SOL    HW2 1463   9.307   9.882   3.159
99897SOL     OW 1464   1.662  13.427   5.656
99897SOL    HW1 1465   1.602  13.384   5.717
99897SOL    HW2 1466   1.616  13.425   5.572
99898SOL     OW 1467  10.939   1.591   4.137
99898SOL    HW1 1468  10.978   1.505   4.119
99898SOL    HW2 1469  11.003   1.635   4.193
99899SOL     OW 1470   5.202   3.902   7.416
99899SOL    HW1 1471   5.185   3.922   7.324
99899SOL    HW2 1472   5.133   3.947   7.464
99900SOL     OW 1473   5.449   0.650  11.461
99900SOL    HW1 1474   5.384   0.713  11.429
99900SOL    HW2 1475   5.521   0.658  11.398
99901SOL     OW 1476   2.976  12.804   3.418
99901SOL    HW1 1477   3.056  12.772   3.461
99901SOL    HW2 1478   3.007  12.868   3.354
99902SOL     OW 1479   5.222   9.835  10.727
99902SOL    HW1 1480   5.268   9.787  10.795
99902SOL    HW2 1481   5.220   9.775  10.652
99903SOL     OW 1482   4.073   0.407   7.105
99903SOL    HW1 1483   4.012   0.351   7.154
99903SOL    HW2 1484   4.156   0.358   7.107
99904SOL     OW 1485  14.422  13.850   6.299
99904SOL    HW1 1486  14.336  13.889   6.316
99904SOL    HW2 1487  14.405  13.783   6.233
99905SOL     OW 1488  13.934   2.680   2.077
99905SOL    HW1 1489  14.022   2.648   2.101
99905SOL    HW2 1490  13.920   2.755   2.135
99906SOL     OW 1491  13.657   9.321  11.539
99906SOL    HW1 1492  13.673   9.312  11.633
99906SOL    HW2 1493  13.593   9.253  11.519
99907SOL     OW 1494   8.506  12.159  10.503
99907SOL    HW1 1495   8.425  12.160  10.452
99907SOL    HW2 1496   8.531  12.251  10.509
99908SOL     OW 1497   7.182  12.628   1.266
99908SOL    HW1 1498   7.168  12.670   1.181
99908SOL    HW2 1499   7.277  12.620   1.273
99909SOL     OW 1500   8.871  11.694  13.148
99909SOL    HW1 1501   8.947  11.720  13.201
99909SOL    HW2 1502   8.866  11.761  13.079
99910SOL     OW 1503  13.000   7.411   2.782
99910SOL    HW1 1504  13.033   7.345   2.842
99910SOL    HW2 1505  12.910   7.385   2.764
99911SOL     OW 1506   4.392   8.259   2.094
99911SOL    HW1 1507   4.437   8.186   2.137
99911SOL    HW2 1508   4.456   8.294   2.033
99912SOL     OW 1509   1.878   6.091   8.050
99912SOL    HW1 1510   1.933   6.015   8.066
99912SOL    HW2 1511   1.803   6.079   8.109
99913SOL     OW 1512   9.393  12.629   2.020
99913SOL    HW1 1513   9.375  12.722   2.007
99913SOL    HW2 1514   9.307  12.590   2.036
99914SOL     OW 1515   0.476  14.103   6.780
99914SOL    HW1 1516   0.563  14.126   6.812
99914SOL    HW2 1517   0.492  14.046   6.705
99915SOL     OW 1518  13.524   8.514   4.525
99915SOL    HW1 1519  13.484   8.592   4.486
99915SOL    HW2 1520  13.551   8.461   4.450
99916SOL     OW 1521  11.147  14.724  13.466
99916SOL    HW1 1522  11.202  14.781  13.412
99916SOL    HW2 1523  11.108  14.663  13.404
99917SOL     OW 1524   6.790  14.055   7.736
99917SOL    HW1 1525   6.838  14.083   7.659
99917SOL    HW2 1526   6.841  14.088   7.810
99918SOL     OW 1527   6.743   5.157   3.286
99918SOL    HW1 1528   6.668   5.098   3.291
99918SOL    HW2 1529   6.718   5.233   3.338
99919SOL     OW 1530   8.458  12.064   0.135
99919SOL    HW1 1531   8.364  12.056   0.119
99919SOL    HW2 1532   8.467  12.140   0.192
99920SOL     OW 1533  14.443   2.802   9.685
99920SOL    HW1 1534  14.476   2.814   9.774
99920SOL    HW2 1535  14.351   2.777   9.696
99921SOL     OW 1536  12.891  14.486   4.827
99921SOL    HW1 1537  12.965  14.426   4.819
99921SOL    HW2 1538  12.897  14.542   4.749
99922SOL     OW 1539   0.036   1.139  12.601
99922SOL    HW1 1540   0.083   1.074  12.654
99922SOL    HW2 1541   0.053   1.222  12.645
99923SOL     OW 1542   5.539  11.732   8.210
99923SOL    HW1 1543   5.509  11.819   8.234
99923SOL    HW2 1544   5.626  11.724   8.249
99924SOL     OW 1545  11.675   4.770   8.524
99924SOL    HW1 1546  11.612   4.836   8.553
99924SOL    HW2 1547  11.628   4.687   8.530
99925SOL     OW 1548   1.236   2.280   5.552
99925SOL    HW1 1549   1.297   2.338   5.507
99925SOL    HW2 1550   1.150   2.308   5.522
99926SOL     OW 1551   4.533  11.032   6.777
99926SOL    HW1 1552   4.613  10.979   6.787
99926SOL    HW2 1553   4.463  10.968   6.768
99927SOL     OW 1554  11.581  13.734  10.852
99927SOL    HW1 1555  11.659  13.683  10.827
99927SOL    HW2 1556  11.516  13.667  10.874
99928SOL     OW 1557   0.202   9.120   4.400
99928SOL    HW1 1558   0.253   9.168   4.336
99928SOL    HW2 1559   0.229   9.156   4.484
99929SOL     OW 1560  12.934  12.506   3.640
99929SOL    HW1 1561  12.897  12.572   3.582
99929SOL    HW2 1562  13.027  12.528   3.646
99930SOL     OW 1563   2.271   7.750  13.233
99930SOL    HW1 1564   2.206   7.818  13.249
99930SOL    HW2 1565   2.323   7.781  13.159
99931SOL     OW 1566  11.151   2.130   3.751
99931SOL    HW1 1567  11.102   2.065   3.700
99931SOL    HW2 1568  11.140   2.102   3.842
99932SOL     OW 1569   7.553   9.926  13.272
99932SOL    HW1 1570   7.516  10.003  13.229
99932SOL    HW2 1571   7.628   9.902  13.218
99933SOL     OW 1572  10.622   0.847   5.592
99933SOL    HW1 1573  10.580   0.918   5.543
99933SOL    HW2 1574  10.657   0.890   5.670
99934SOL     OW 1575   7.865  11.398   7.484
99934SOL    HW1 1576   7.890  11.416   7.394
99934SOL    HW2 1577   7.769  11.394   7.482
99935SOL     OW 1578  13.149   9.051  10.097
99935SOL    HW1 1579  13.121   9.083  10.183
99935SOL    HW2 1580  13.123   8.959  10.095
99936SOL     OW 1581   8.250   6.054  11.739
99936SOL    HW1 1582   8.210   6.077  11.823
99936SOL    HW2 1583   8.327   6.111  11.733
99937SOL     OW 1584   8.292   0.875   7.955
99937SOL    HW1 1585   8.215   0.916   7.995
99937SOL    HW2 1586   8.296   0.913   7.867
99938SOL     OW 1587   5.591  14.703   3.796
99938SOL    HW1 1588   5.629  14.627   3.840
99938SOL    HW2 1589   5.665  14.763   3.783
99939SOL     OW 1590   1.956   3.817  12.392
99939SOL    HW1 1591   2.047   3.846  12.382
99939SOL    HW2 1592   1.961   3.742  12.451
99940SOL     OW 1593   0.312   2.394   6.144
99940SOL    HW1 1594   0.296   2.308   6.107
99940SOL    HW2 1595   0.315   2.379   6.239
99941SOL     OW 1596   5.914   5.513   2.223
99941SOL    HW1 1597   5.995   5.563   2.214
99941SOL    HW2 1598   5.918   5.478   2.312
99942SOL     OW 1599   9.527  12.868   8.072
99942SOL    HW1 1600   9.455  12.855   8.010
99942SOL    HW2 1601   9.512  12.955   8.108
99943SOL     OW 1602   5.760   4.522   9.870
99943SOL    HW1 1603   5.681   4.490   9.912
99943SOL    HW2 1604   5.822   4.449   9.878
99944SOL     OW 1605   2.197   9.171   5.990
99944SOL    HW1 1606   2.227   9.256   5.960
99944SOL    HW2 1607   2.231   9.163   6.079
99945SOL     OW 1608   0.598   1.596   7.126
99945SOL    HW1 1609   0.667   1.657   7.099
99945SOL    HW2 1610   0.621   1.571   7.215
99946SOL     OW 1611   1.112   0.797  12.755
99946SOL    HW1 1612   1.141   0.726  12.698
99946SOL    HW2 1613   1.061   0.854  12.698
99947SOL     OW 1614   9.761   4.231  14.416
99947SOL    HW1 1615   9.856   4.224  14.423
99947SOL    HW2 1616   9.730   4.141  14.415
99948SOL     OW 1617   1.917   6.938   9.086
99948SOL    HW1 1618   1.842   6.996   9.102
99948SOL    HW2 1619   1.986   6.997   9.055
99949SOL     OW 1620   8.680  14.001   6.692
99949SOL    HW1 1621   8.588  14.012   6.715
99949SOL    HW2 1622   8.719  13.960   6.770
99950SOL     OW 1623  12.683   6.011  13.294
99950SOL    HW1 1624  12.651   5.981  13.209
99950SOL    HW2 1625  12.637   6.094  13.309
99951SOL     OW 1626   7.276   8.290  12.398
99951SOL    HW1 1627   7.186   8.317  12.413
99951SOL    HW2 1628   7.277   8.259  12.307
99952SOL     OW 1629  13.186  10.982  11.579
99952SOL    HW1 1630  13.111  11.001  11.523
99952SOL    HW2 1631  13.260  10.973  11.519
99953SOL     OW 1632   3.718   3.818   7.593
99953SOL    HW1 1633   3.659   3.830   7.519
99953SOL    HW2 1634   3.723   3.904   7.634
99954SOL     OW 1635   1.137  11.095  11.204
99954SOL    HW1 1636   1.104  11.081  11.292
99954SOL    HW2 1637   1.228  11.063  11.207
99955SOL     OW 1638   5.088  13.267   1.311
99955SOL    HW1 1639   5.052  13.351   1.340
99955SOL    HW2 1640   5.105  13.279   1.218
99956SOL     OW 1641   1.207   0.159   6.163
99956SOL    HW1 1642   1.263   0.197   6.232
99956SOL    HW2 1643   1.260   0.089   6.125
99957SOL     OW 1644   9.910   1.130   1.403
99957SOL    HW1 1645   9.959   1.147   1.483
99957SOL    HW2 1646   9.934   1.201   1.343
99958SOL     OW 1647  14.394  12.091  12.819
99958SOL    HW1 1648  14.365  12.127  12.903
99958SOL    HW2 1649  14.457  12.154  12.786
99959SOL     OW 1650  11.273   3.373   1.453
99959SOL    HW1 1651  11.192   3.419   1.478
99959SOL    HW2 1652  11.243   3.285   1.429
99960SOL     OW 1653   5.145   2.715   2.046
99960SOL    HW1 1654   5.205   2.665   2.101
99960SOL    HW2 1655   5.058   2.694   2.081
99961SOL     OW 1656   8.012   5.237  10.546
99961SOL    HW1 1657   8.052   5.201  10.466
99961SOL    HW2 1658   7.952   5.304  10.514
99962SOL     OW 1659   4.002   4.356   9.004
99962SOL    HW1 1660   3.972   4.275   9.045
99962SOL    HW2 1661   3.928   4.416   9.012
99963SOL     OW 1662  10.495   7.853   1.009
99963SOL    HW1 1663  10.591   7.850   1.013
99963SOL    HW2 1664  10.466   7.794   1.078
99964SOL     OW 1665  11.134   1.449   2.812
99964SOL    HW1 1666  11.058   1.394   2.794
99964SOL    HW2 1667  11.118   1.530   2.764
99965SOL     OW 1668  10.214   0.415  14.472
99965SOL    HW1 1669  10.191   0.406  14.565
99965SOL    HW2 1670  10.153   0.357  14.427
99966SOL     OW 1671   4.346   5.467   3.146
99966SOL    HW1 1672   4.322   5.526   3.218
99966SOL    HW2 1673   4.268   5.414   3.130
99967SOL     OW 1674  10.805   9.172   5.060
99967SOL    HW1 1675  10.748   9.096   5.055
99967SOL    HW2 1676  10.888   9.138   5.094
99968SOL     OW 1677   3.136  11.941   3.179
99968SOL    HW1 1678   3.126  11.965   3.271
99968SOL    HW2 1679   3.172  11.853   3.181
99969SOL     OW 1680   9.969   4.538   6.516
99969SOL    HW1 1681  10.015   4.614   6.481
99969SOL    HW2 1682   9.891   4.574   6.558
99970SOL     OW 1683  12.981   5.879   2.846
99970SOL    HW1 1684  13.030   5.917   2.919
99970SOL    HW2 1685  12.953   5.793   2.879
99971SOL     OW 1686   7.018   4.003  10.474
99971SOL    HW1 1687   6.936   4.052  10.485
99971SOL    HW2 1688   6.990   3.913  10.457
99972SOL     OW 1689   8.018   4.569  12.603
99972SOL    HW1 1690   8.026   4.539  12.513
99972SOL    HW2 1691   8.064   4.503  12.655
99973SOL     OW 1692  12.820   9.975  14.197
99973SOL    HW1 1693  12.823   9.903  14.135
99973SOL    HW2 1694  12.798  10.052  14.144
99974SOL     OW 1695  14.313  10.190   1.499
99974SOL    HW1 1696  14.404  10.199   1.529
99974SOL    HW2 1697  14.271  10.137   1.566
99975SOL     OW 1698   5.952  12.691  10.361
99975SOL    HW1 1699   5.888  12.739  10.415
99975SOL    HW2 1700   5.993  12.759  10.307
99976SOL     OW 1701   2.109   4.977   8.204
99976SOL    HW1 1702   2.032   4.965   8.149
99976SOL    HW2 1703   2.077   5.024   8.281
99977SOL     OW 1704  12.833   4.438   7.640
99977SOL    HW1 1705  12.775   4.394   7.703
99977SOL    HW2 1706  12.892   4.369   7.611
99978SOL     OW 1707   6.735   7.179   2.119
99978SOL    HW1 1708   6.678   7.172   2.043
99978SOL    HW2 1709   6.676   7.174   2.194
99979SOL     OW 1710   6.235   8.136  10.928
99979SOL    HW1 1711   6.290   8.075  10.879
99979SOL    HW2 1712   6.160   8.153  10.871
99980SOL     OW 1713   1.737   9.238  12.860
99980SOL    HW1 1714   1.714   9.170  12.796
99980SOL    HW2 1715   1.725   9.320  12.812
99981SOL     OW 1716  12.171  13.038  11.912
99981SOL    HW1 1717  12.159  12.980  11.987
99981SOL    HW2 1718  12.240  12.996  11.860
99982SOL     OW 1719   8.904  13.017   9.780
99982SOL    HW1 1720   8.963  13.091   9.763
99982SOL    HW2 1721   8.930  12.984   9.865
99983SOL     OW 1722  10.114   7.715  13.319
99983SOL    HW1 1723  10.169   7.786  13.350
99983SOL    HW2 1724  10.126   7.715  13.224
99984SOL     OW 1725   2.240  12.955   6.113
99984SOL    HW1 1726   2.189  12.874   6.101
99984SOL    HW2 1727   2.297  12.960   6.037
99985SOL     OW 1728   6.708   5.268  10.765
99985SOL    HW1 1729   6.619   5.256  10.731
99985SOL    HW2 1730   6.743   5.180  10.773
99986SOL     OW 1731   2.629   8.353   5.577
99986SOL    HW1 1732   2.716   8.339   5.539
99986SOL    HW2 1733   2.647   8.380   5.667
99987SOL     OW 1734  11.486   0.273   7.344
99987SOL    HW1 1735  11.490   0.218   7.423
99987SOL    HW2 1736  11.506   0.214   7.272
99988SOL     OW 1737  13.193   2.553  10.276
99988SOL    HW1 1738  13.190   2.491  10.349
99988SOL    HW2 1739  13.285   2.555  10.250
99989SOL     OW 1740  13.768   1.559   2.200
99989SOL    HW1 1741  13.828   1.540   2.273
99989SOL    HW2 1742  13.817   1.617   2.142
99990SOL     OW 1743   4.009  11.707   8.611
99990SOL    HW1 1744   4.068  11.782   8.622
99990SOL    HW2 1745   4.012  11.663   8.696
99991SOL     OW 1746  10.219   6.330   6.213
99991SOL    HW1 1747  10.224   6.240   6.245
99991SOL    HW2 1748  10.203   6.383   6.291
99992SOL     OW 1749  11.317  14.877   4.134
99992SOL    HW1 1750  11.273  14.803   4.093
99992SOL    HW2 1751  11.345  14.844   4.220
99993SOL     OW 1752   4.444  12.657   8.552
99993SOL    HW1 1753   4.490  12.708   8.486
99993SOL    HW2 1754   4.370  12.618   8.505
99994SOL     OW 1755   8.893  12.244   3.080
99994SOL    HW1 1756   8.838  12.174   3.115
99994SOL    HW2 1757   8.838  12.288   3.015
99995SOL     OW 1758   4.012   0.627   7.316
99995SOL    HW1 1759   3.942   0.566   7.294
99995SOL    HW2 1760   4.090   0.592   7.272
99996SOL     OW 1761   3.247   4.422  12.574
99996SOL    HW1 1762   3.304   4.470  12.634
99996SOL    HW2 1763   3.182   4.487  12.545
99997SOL     OW 1764   1.429  14.106   5.339
99997SOL    HW1 1765   1.487  14.122   5.413
99997SOL    HW2 1766   1.420  14.191   5.296
99998SOL     OW 1767  14.502   5.111  10.344
99998SOL    HW1 1768  14.505   5.105  10.249
99998SOL    HW2 1769  14.544   5.030  10.375
99999SOL     OW 1770  11.810   2.732  11.842
99999SOL    HW1 1771  11.836   2.738  11.750
99999SOL    HW2 1772  11.723   2.773  11.844
    0SOL     OW 1773   3.534   8.539   6.405
    0SOL    HW1 1774   3.470   8.526   6.334
    0SOL    HW2 1775   3.618   8.548   6.360
    1SOL     OW 1776   8.470   7.311   5.924
    1SOL    HW1 1777   8.402   7.244   5.920
    1SOL    HW2 1778   8.460   7.349   6.011
    2SOL     OW 1779  10.403   3.296   4.249
    2SOL    HW1 1780  10.482   3.308   4.196
    2SOL    HW2 1781  10.362   3.383   4.250
    3SOL     OW 1782  12.695  12.504   0.853
    3SOL    HW1 1783  12.706  12.442   0.925
    3SOL    HW2 1784  12.699  12.590   0.896
    4SOL     OW 1785  10.251   3.643   2.158
    4SOL    HW1 1786  10.283   3.553   2.164
    4SOL    HW2 1787  10.174   3.638   2.102
    5SOL     OW 1788  12.845   1.777  13.009
    5SOL    HW1 1789  12.863   1.865  12.974
    5SOL    HW2 1790  12.881   1.718  12.944
    6SOL     OW 1791   8.841   3.072   8.342
    6SOL    HW1 1792   8.746   3.079   8.334
    6SOL    HW2 1793   8.871   3.051   8.254
    7SOL     OW 1794  12.971   1.104   4.293
    7SOL    HW1 1795  12.901   1.169   4.286
    7SOL    HW2 1796  13.046   1.146   4.250
    8SOL     OW 1797   5.826  13.666   3.498
    8SOL    HW1 1798   5.773  13.738   3.463
    8SOL    HW2 1799   5.787  13.646   3.583
    9SOL     OW 1800   4.889  14.826   1.334
    9SOL    HW1 1801   4.955  14.855   1.272
    9SOL    HW2 1802   4.932  14.832   1.420
   10SOL     OW 1803   4.033  10.556   5.291
   10SOL    HW1 1804   4.068  10.479   5.247
   10SOL    HW2 1805   4.013  10.617   5.219
   11SOL     OW 1806   6.386  12.439   3.104
   11SOL    HW1 1807   6.438  12.507   3.061
   11SOL    HW2 1808   6.303  12.438   3.056
   12SOL     OW 1809  10.013   4.827  14.612
   12SOL    HW1 1810  10.068   4.753  14.586
   12SOL    HW2 1811  10.073   4.888  14.655
   13SOL     OW 1812   9.356   6.140  10.248
   13SOL    HW1 1813   9.409   6.073  10.205
   13SOL    HW2 1814   9.280   6.151  10.190
   14SOL     OW 1815   7.622   2.981   3.064
   14SOL    HW1 1816   7.674   3.062   3.068
   14SOL    HW2 1817   7.602   2.960   3.155
   15SOL     OW 1818  11.966   2.502   5.005
   15SOL    HW1 1819  12.026   2.543   4.943
   15SOL    HW2 1820  11.983   2.408   4.995
   16SOL     OW 1821  11.380   6.695   4.224
   16SOL    HW1 1822  11.363   6.744   4.144
   16SOL    HW2 1823  11.476   6.690   4.229
   17SOL     OW 1824   7.749   0.669   0.712
   17SOL    HW1 1825   7.721   0.741   0.656
   17SOL    HW2 1826   7.844   0.679   0.718
   18SOL     OW 1827  10.617   1.442   5.227
   18SOL    HW1 1828  10.566   1.381   5.173
   18SOL    HW2 1829  10.551   1.489   5.279
   19SOL     OW 1830   7.509   8.197   1.297
   19SOL    HW1 1831   7.446   8.205   1.225
   19SOL    HW2 1832   7.574   8.134   1.265
   20SOL     OW 1833  11.147  10.083   9.252
   20SOL    HW1 1834  11.164  10.032   9.173
   20SOL    HW2 1835  11.147  10.019   9.323
   21SOL     OW 1836   3.424   2.289   4.341
   21SOL    HW1 1837   3.354   2.345   4.308
   21SOL    HW2 1838   3.478   2.271   4.263
   22SOL     OW 1839   8.345  11.344   1.189
   22SOL    HW1 1840   8.293  11.278   1.143
   22SOL    HW2 1841   8.294  11.425   1.182
   23SOL     OW 1842   7.079  11.977  12.083
   23SOL    HW1 1843   7.085  12.023  12.166
   23SOL    HW2 1844   7.029  11.898  12.103
   24SOL     OW 1845  10.834   5.776  10.259
   24SOL    HW1 1846  10.814   5.683  10.260
   24SOL    HW2 1847  10.777   5.812  10.191
   25SOL     OW 1848   6.370   1.866  14.801
   25SOL    HW1 1849   6.456   1.826  14.793
   25SOL    HW2 1850   6.386   1.960  14.802
   26SOL     OW 1851  14.202   2.904  14.664
   26SOL    HW1 1852  14.280   2.879  14.616
   26SOL    HW2 1853  14.185   2.994  14.637
   27SOL     OW 1854   7.505   9.577   5.207
   27SOL    HW1 1855   7.495   9.572   5.302
   27SOL    HW2 1856   7.520   9.669   5.189
   28SOL     OW 1857   4.140  14.469  11.986
   28SOL    HW1 1858   4.169  14.410  12.055
   28SOL    HW2 1859   4.211  14.532  11.977
   29SOL     OW 1860   4.212  13.364  14.145
   29SOL    HW1 1861   4.157  13.314  14.205
   29SOL    HW2 1862   4.236  13.301  14.076
   30SOL     OW 1863   3.284   9.396   5.863
   30SOL    HW1 1864   3.208   9.342   5.889
   30SOL    HW2 1865   3.251   9.485   5.864
   31SOL     OW 1866   6.839   6.922  11.348
   31SOL    HW1 1867   6.899   6.898  11.277
   31SOL    HW2 1868   6.868   7.009  11.375
   32SOL     OW 1869   4.173   4.383   3.140
   32SOL    HW1 1870   4.119   4.405   3.064
   32SOL    HW2 1871   4.123   4.415   3.215
   33SOL     OW 1872  11.583   0.654   4.375
   33SOL    HW1 1873  11.624   0.740   4.387
   33SOL    HW2 1874  11.641   0.608   4.314
   34SOL     OW 1875   9.293   0.223   8.540
   34SOL    HW1 1876   9.265   0.135   8.565
   34SOL    HW2 1877   9.378   0.209   8.498
   35SOL     OW 1878   4.965   0.330  11.796
   35SOL    HW1 1879   4.998   0.290  11.877
   35SOL    HW2 1880   4.921   0.410  11.825
   36SOL     OW 1881   2.148   5.497   9.840
   36SOL    HW1 1882   2.130   5.572   9.896
   36SOL    HW2 1883   2.089   5.429   9.870
   37SOL     OW 1884  11.597   8.236  10.821
   37SOL    HW1 1885  11.519   8.273  10.779
   37SOL    HW2 1886  11.670   8.283  10.780
   38SOL     OW 1887   2.932  14.499  13.974
   38SOL    HW1 1888   2.885  14.464  14.050
   38SOL    HW2 1889   3.024  14.498  14.000
   39SOL     OW 1890  12.024   1.699   7.569
   39SOL    HW1 1891  12.002   1.633   7.635
   39SOL    HW2 1892  11.985   1.668   7.488
   40SOL     OW 1893   3.416   7.714   0.607
   40SOL    HW1 1894   3.427   7.621   0.625
   40SOL    HW2 1895   3.367   7.747   0.682
   41SOL     OW 1896  10.351   6.825  12.413
   41SOL    HW1 1897  10.343   6.803  12.505
   41SOL    HW2 1898  10.444   6.812  12.393
   42SOL     OW 1899   7.354  10.974   9.357
   42SOL    HW1 1900   7.277  10.919   9.372
   42SOL    HW2 1901   7.362  11.026   9.437
   43SOL     OW 1902  13.148   0.392   5.886
   43SOL    HW1 1903  13.119   0.412   5.975
   43SOL    HW2 1904  13.181   0.476   5.852
   44SOL     OW 1905   9.966   7.648   1.349
   44SOL    HW1 1906   9.960   7.646   1.445
   44SOL    HW2 1907   9.998   7.736   1.329
   45SOL     OW 1908  10.344   8.609  14.152
   45SOL    HW1 1909  10.358   8.537  14.213
   45SOL    HW2 1910  10.258   8.592  14.113
   46SOL     OW 1911  13.678  11.828   2.741
   46SOL    HW1 1912  13.735  11.841   2.665
   46SOL    HW2 1913  13.725  11.765   2.795
   47SOL     OW 1914  11.694  12.502   9.944
   47SOL    HW1 1915  11.617  12.516   9.999
   47SOL    HW2 1916  11.767  12.495  10.006
   48SOL     OW 1917   8.893   9.921   5.145
   48SOL    HW1 1918   8.884   9.856   5.075
   48SOL    HW2 1919   8.874  10.005   5.103
   49SOL     OW 1920   9.772  12.474   9.477
   49SOL    HW1 1921   9.849  12.418   9.487
   49SOL    HW2 1922   9.764  12.489   9.383
   50SOL     OW 1923   0.420  12.157  10.680
   50SOL    HW1 1924   0.370  12.222  10.630
   50SOL    HW2 1925   0.512  12.181  10.664
   51SOL     OW 1926   3.351   0.178   3.095
   51SOL    HW1 1927   3.431   0.230   3.095
   51SOL    HW2 1928   3.287   0.231   3.142
   52SOL     OW 1929   3.950   2.758   0.406
   52SOL    HW1 1930   3.859   2.739   0.424
   52SOL    HW2 1931   3.982   2.681   0.358
   53SOL     OW 1932   2.632  12.469   3.444
   53SOL    HW1 1933   2.692  12.533   3.406
   53SOL    HW2 1934   2.685  12.421   3.508
   54SOL     OW 1935   6.661   3.521  13.868
   54SOL    HW1 1936   6.706   3.594  13.911
   54SOL    HW2 1937   6.569   3.549  13.864
   55SOL     OW 1938   8.354   0.947   1.695
   55SOL    HW1 1939   8.279   0.982   1.743
   55SOL    HW2 1940   8.365   0.858   1.727
   56SOL     OW 1941  11.095  13.105   9.610
   56SOL    HW1 1942  11.056  13.054   9.681
   56SOL    HW2 1943  11.155  13.166   9.653
   57SOL     OW 1944   5.306   3.625  10.956
   57SOL    HW1 1945   5.266   3.643  10.871
   57SOL    HW2 1946   5.384   3.573  10.935
   58SOL     OW 1947   3.951  12.442   8.756
   58SOL    HW1 1948   3.964  12.509   8.688
   58SOL    HW2 1949   4.035  12.440   8.802
   59SOL     OW 1950   8.345   9.241  12.208
   59SOL    HW1 1951   8.412   9.208  12.268
   59SOL    HW2 1952   8.318   9.165  12.158
   60SOL     OW 1953   0.860   1.692   3.863
   60SOL    HW1 1954   0.774   1.680   3.904
   60SOL    HW2 1955   0.848   1.662   3.773
   61SOL     OW 1956   1.816   2.263   6.084
   61SOL    HW1 1957   1.912   2.268   6.090
   61SOL    HW2 1958   1.796   2.306   6.001
   62SOL     OW 1959   4.603   0.011   6.793
   62SOL    HW1 1960   4.647  14.808   6.821
   62SOL    HW2 1961   4.627   0.075   6.860
   63SOL     OW 1962   9.655   1.852   0.849
   63SOL    HW1 1963   9.681   1.902   0.926
   63SOL    HW2 1964   9.563   1.873   0.836
   64SOL     OW 1965   2.512  11.285   8.413
   64SOL    HW1 1966   2.420  11.305   8.429
   64SOL    HW2 1967   2.526  11.201   8.458
   65SOL     OW 1968  10.248   5.570  12.206
   65SOL    HW1 1969  10.259   5.663  12.228
   65SOL    HW2 1970  10.326   5.548  12.155
   66SOL     OW 1971   0.092   8.069   1.197
   66SOL    HW1 1972   0.013   8.123   1.203
   66SOL    HW2 1973   0.120   8.077   1.105
   67SOL     OW 1974  14.029   6.900   6.936
   67SOL    HW1 1975  14.058   6.981   6.978
   67SOL    HW2 1976  14.013   6.924   6.845
   68SOL     OW 1977   1.360   8.945  10.061
   68SOL    HW1 1978   1.321   8.913  10.143
   68SOL    HW2 1979   1.292   8.997  10.020
   69SOL     OW 1980   5.825   8.571   5.625
   69SOL    HW1 1981   5.897   8.595   5.566
   69SOL    HW2 1982   5.865   8.512   5.689
   70SOL     OW 1983  12.857   2.347   6.761
   70SOL    HW1 1984  12.817   2.279   6.816
   70SOL    HW2 1985  12.795   2.420   6.765
   71SOL     OW 1986   9.183   1.212   4.488
   71SOL    HW1 1987   9.192   1.242   4.578
   71SOL    HW2 1988   9.100   1.166   4.486
   72SOL     OW 1989   4.255  11.891  13.887
   72SOL    HW1 1990   4.320  11.920  13.951
   72SOL    HW2 1991   4.218  11.811  13.925
   73SOL     OW 1992  12.229   6.076  10.593
   73SOL    HW1 1993  12.236   6.130  10.671
   73SOL    HW2 1994  12.271   5.994  10.616
   74SOL     OW 1995   9.653   4.681  10.264
   74SOL    HW1 1996   9.671   4.658  10.355
   74SOL    HW2 1997   9.712   4.754  10.245
   75SOL     OW 1998  14.728  10.849   4.621
   75SOL    HW1 1999  14.770  10.880   4.701
   75SOL    HW2 2000  14.797  10.855   4.554
   76SOL     OW 2001   3.862   9.273   5.230
   76SOL    HW1 2002   3.844   9.336   5.160
   76SOL    HW2 2003   3.913   9.323   5.294
   77SOL     OW 2004  10.708  10.133   3.350
   77SOL    HW1 2005  10.642  10.182   3.301
   77SOL    HW2 2006  10.763  10.093   3.283
   78SOL     OW 2007  11.639   9.437   2.871
   78SOL    HW1 2008  11.720   9.480   2.898
   78SOL    HW2 2009  11.612   9.484   2.791
   79SOL     OW 2010  14.411   8.199  10.272
   79SOL    HW1 2011  14.417   8.105  10.290
   79SOL    HW2 2012  14.405   8.204  10.177
   80SOL     OW 2013   6.055   0.975   8.560
   80SOL    HW1 2014   6.125   1.040   8.560
   80SOL    HW2 2015   6.068   0.925   8.480
   81SOL     OW 2016  12.340   6.727   8.877
   81SOL    HW1 2017  12.380   6.790   8.937
   81SOL    HW2 2018  12.287   6.781   8.818
   82SOL     OW 2019   3.307   5.550  11.031
   82SOL    HW1 2020   3.394   5.551  11.069
   82SOL    HW2 2021   3.259   5.484  11.081
   83SOL     OW 2022   2.284   8.985   0.927
   83SOL    HW1 2023   2.338   9.053   0.887
   83SOL    HW2 2024   2.211   9.033   0.966
   84SOL     OW 2025  12.126   0.677  10.356
   84SOL    HW1 2026  12.200   0.668  10.295
   84SOL    HW2 2027  12.167   0.705  10.438
   85SOL     OW 2028   5.381   8.925   5.146
   85SOL    HW1 2029   5.334   8.932   5.229
   85SOL    HW2 2030   5.336   8.855   5.099
   86SOL     OW 2031   8.934  11.965   0.940
   86SOL    HW1 2032   8.857  11.912   0.918
   86SOL    HW2 2033   8.977  11.980   0.856
   87SOL     OW 2034  14.502   7.510   3.046
   87SOL    HW1 2035  14.465   7.459   3.118
   87SOL    HW2 2036  14.431   7.569   3.020
   88SOL     OW 2037   3.757   8.333   7.674
   88SOL    HW1 2038   3.675   8.292   7.702
   88SOL    HW2 2039   3.776   8.292   7.589
   89SOL     OW 2040  11.357   3.336  13.265
   89SOL    HW1 2041  11.355   3.380  13.350
   89SOL    HW2 2042  11.450   3.324  13.246
   90SOL     OW 2043   6.412   9.335   4.409
   90SOL    HW1 2044   6.475   9.357   4.340
   90SOL    HW2 2045   6.448   9.375   4.488
   91SOL     OW 2046   6.475  11.615   5.664
   91SOL    HW1 2047   6.453  11.576   5.579
   91SOL    HW2 2048   6.424  11.695   5.667
   92SOL     OW 2049  14.575   4.653   9.941
   92SOL    HW1 2050  14.592   4.559   9.939
   92SOL    HW2 2051  14.535   4.669  10.027
   93SOL     OW 2052   9.119   7.868   0.240
   93SOL    HW1 2053   9.144   7.780   0.268
   93SOL    HW2 2054   9.202   7.915   0.232
   94SOL     OW 2055   7.436   6.362   3.082
   94SOL    HW1 2056   7.386   6.444   3.090
   94SOL    HW2 2057   7.516   6.378   3.133
   95SOL     OW 2058  10.584  12.733   1.580
   95SOL    HW1 2059  10.516  12.746   1.514
   95SOL    HW2 2060  10.652  12.796   1.557
   96SOL     OW 2061  11.072   3.914  11.116
   96SOL    HW1 2062  11.031   3.843  11.167
   96SOL    HW2 2063  11.013   3.988  11.127
   97SOL     OW 2064   9.906   9.410  14.342
   97SOL    HW1 2065   9.829   9.466  14.336
   97SOL    HW2 2066   9.950   9.438  14.422
   98SOL     OW 2067  11.394   2.301   5.207
   98SOL    HW1 2068  11.368   2.223   5.256
   98SOL    HW2 2069  11.483   2.282   5.177
   99SOL     OW 2070   1.800   6.129   5.135
   99SOL    HW1 2071   1.756   6.202   5.091
   99SOL    HW2 2072   1.813   6.064   5.066
  100SOL     OW 2073  13.754   7.895   1.909
  100SOL    HW1 2074  13.820   7.959   1.936
  100SOL    HW2 2075  13.744   7.909   1.815
  101SOL     OW 2076   9.370   7.912  13.243
  101SOL    HW1 2077   9.340   7.914  13.333
  101SOL    HW2 2078   9.355   7.822  13.214
  102SOL     OW 2079   2.416   5.480   4.839
  102SOL    HW1 2080   2.468   5.519   4.769
  102SOL    HW2 2081   2.377   5.402   4.799
  103SOL     OW 2082   5.659  13.120   2.699
  103SOL    HW1 2083   5.664  13.214   2.716
  103SOL    HW2 2084   5.749  13.088   2.712
  104SOL     OW 2085   5.340   3.373   4.995
  104SOL    HW1 2086   5.301   3.289   4.971
  104SOL    HW2 2087   5.399   3.394   4.923
  105SOL     OW 2088   1.311  13.263   1.248
  105SOL    HW1 2089   1.286  13.243   1.157
  105SOL    HW2 2090   1.406  13.272   1.245
  106SOL     OW 2091  14.407  11.656   2.285
  106SOL    HW1 2092  14.342  11.706   2.235
  106SOL    HW2 2093  14.397  11.686   2.375
  107SOL     OW 2094   8.466   7.150   7.625
  107SOL    HW1 2095   8.416   7.115   7.699
  107SOL    HW2 2096   8.403   7.153   7.553
  108SOL     OW 2097   3.646   7.296  11.226
  108SOL    HW1 2098   3.577   7.336  11.174
  108SOL    HW2 2099   3.727   7.333  11.192
  109SOL     OW 2100  13.114   6.067  14.159
  109SOL    HW1 2101  13.038   6.046  14.213
  109SOL    HW2 2102  13.167   5.987  14.161
  110SOL     OW 2103   6.318  10.218   6.813
  110SOL    HW1 2104   6.348  10.199   6.724
  110SOL    HW2 2105   6.367  10.156   6.868
  111SOL     OW 2106  10.558  11.483  11.793
  111SOL    HW1 2107  10.584  11.404  11.840
  111SOL    HW2 2108  10.605  11.554  11.837
  112SOL     OW 2109   1.899   1.524   0.145
  112SOL    HW1 2110   1.990   1.514   0.116
  112SOL    HW2 2111   1.863   1.590   0.087
  113SOL     OW 2112   9.808   3.174   5.646
  113SOL    HW1 2113   9.851   3.148   5.728
  113SOL    HW2 2114   9.868   3.145   5.578
  114SOL     OW 2115   7.592  10.279   8.172
  114SOL    HW1 2116   7.608  10.230   8.091
  114SOL    HW2 2117   7.615  10.369   8.150
  115SOL     OW 2118  12.247   3.100  11.871
  115SOL    HW1 2119  12.243   3.054  11.955
  115SOL    HW2 2120  12.160   3.138  11.860
  116SOL     OW 2121   5.056   7.690  13.367
  116SOL    HW1 2122   5.098   7.614  13.327
  116SOL    HW2 2123   5.128   7.749  13.389
  117SOL     OW 2124   1.685  13.970   6.833
  117SOL    HW1 2125   1.625  13.912   6.880
  117SOL    HW2 2126   1.693  14.046   6.891
  118SOL     OW 2127   1.939  13.747   4.041
  118SOL    HW1 2128   1.853  13.726   4.077
  118SOL    HW2 2129   1.923  13.824   3.985
  119SOL     OW 2130   2.354  14.631   6.848
  119SOL    HW1 2131   2.300  14.689   6.901
  119SOL    HW2 2132   2.310  14.546   6.854
  120SOL     OW 2133   9.207   4.551   5.785
  120SOL    HW1 2134   9.254   4.566   5.866
  120SOL    HW2 2135   9.275   4.557   5.717
  121SOL     OW 2136  14.028  12.531   7.591
  121SOL    HW1 2137  14.083  12.458   7.562
  121SOL    HW2 2138  13.946  12.519   7.543
  122SOL     OW 2139  14.377   1.271   1.237
  122SOL    HW1 2140  14.412   1.190   1.274
  122SOL    HW2 2141  14.396   1.264   1.143
  123SOL     OW 2142   5.132  13.343  12.321
  123SOL    HW1 2143   5.143  13.248  12.316
  123SOL    HW2 2144   5.049  13.360  12.278
  124SOL     OW 2145   7.228   9.749  11.439
  124SOL    HW1 2146   7.197   9.810  11.372
  124SOL    HW2 2147   7.177   9.669  11.424
  125SOL     OW 2148   8.166   4.798  12.469
  125SOL    HW1 2149   8.236   4.737  12.493
  125SOL    HW2 2150   8.086   4.752  12.493
  126SOL     OW 2151   7.904   1.007  13.440
  126SOL    HW1 2152   7.886   1.094  13.404
  126SOL    HW2 2153   7.827   0.987  13.494
  127SOL     OW 2154   1.965   8.292   7.402
  127SOL    HW1 2155   2.039   8.349   7.421
  127SOL    HW2 2156   1.905   8.348   7.352
  128SOL     OW 2157   6.115  10.216  13.047
  128SOL    HW1 2158   6.067  10.196  12.966
  128SOL    HW2 2159   6.065  10.173  13.116
  129SOL     OW 2160   6.666  13.837  14.047
  129SOL    HW1 2161   6.699  13.775  13.982
  129SOL    HW2 2162   6.744  13.882  14.079
  130SOL     OW 2163   0.177   4.968   1.644
  130SOL    HW1 2164   0.082   4.972   1.660
  130SOL    HW2 2165   0.191   5.026   1.569
  131SOL     OW 2166   5.629  10.567  11.132
  131SOL    HW1 2167   5.668  10.605  11.054
  131SOL    HW2 2168   5.613  10.641  11.191
  132SOL     OW 2169   3.085   3.984   7.892
  132SOL    HW1 2170   3.134   3.959   7.971
  132SOL    HW2 2171   3.118   4.071   7.870
  133SOL     OW 2172  10.819  11.977   3.098
  133SOL    HW1 2173  10.782  12.027   3.025
  133SOL    HW2 2174  10.743  11.954   3.152
  134SOL     OW 2175   4.159  13.174   9.733
  134SOL    HW1 2176   4.183  13.082   9.722
  134SOL    HW2 2177   4.127  13.180   9.823
  135SOL     OW 2178   2.025   5.957  11.959
  135SOL    HW1 2179   2.062   6.026  11.904
  135SOL    HW2 2180   2.027   5.879  11.903
  136SOL     OW 2181   4.025   7.656   7.903
  136SOL    HW1 2182   4.032   7.751   7.903
  136SOL    HW2 2183   4.090   7.627   7.839
  137SOL     OW 2184   5.619   2.293   1.884
  137SOL    HW1 2185   5.588   2.376   1.921
  137SOL    HW2 2186   5.540   2.241   1.874
  138SOL     OW 2187  13.088   3.088  12.084
  138SOL    HW1 2188  13.113   3.179  12.096
  138SOL    HW2 2189  13.102   3.070  11.991
  139SOL     OW 2190  10.864   7.931   6.071
  139SOL    HW1 2191  10.873   7.840   6.043
  139SOL    HW2 2192  10.800   7.968   6.012
  140SOL     OW 2193  12.188   8.077   3.001
  140SOL    HW1 2194  12.106   8.055   2.957
  140SOL    HW2 2195  12.252   8.018   2.963
  141SOL     OW 2196  14.194   2.288   5.551
  141SOL    HW1 2197  14.112   2.243   5.569
  141SOL    HW2 2198  14.183   2.374   5.592
  142SOL     OW 2199  12.516   7.126   2.211
  142SOL    HW1 2200  12.426   7.156   2.225
  142SOL    HW2 2201  12.528   7.130   2.116
  143SOL     OW 2202   1.991  10.536  13.976
  143SOL    HW1 2203   2.021  10.454  14.015
  143SOL    HW2 2204   2.019  10.531  13.884
  144SOL     OW 2205   5.200   3.160  12.909
  144SOL    HW1 2206   5.208   3.249  12.944
  144SOL    HW2 2207   5.245   3.164  12.824
  145SOL     OW 2208  12.575   0.509   9.289
  145SOL    HW1 2209  12.586   0.417   9.268
  145SOL    HW2 2210  12.588   0.555   9.207
  146SOL     OW 2211  14.484   0.532  13.939
  146SOL    HW1 2212  14.399   0.508  13.903
  146SOL    HW2 2213  14.547   0.510  13.871
  147SOL     OW 2214   7.156   6.231   6.580
  147SOL    HW1 2215   7.144   6.219   6.674
  147SOL    HW2 2216   7.072   6.266   6.550
  148SOL     OW 2217   7.924  10.208  14.732
  148SOL    HW1 2218   7.872  10.152  14.675
  148SOL    HW2 2219   7.874  10.290  14.738
  149SOL     OW 2220   0.966  13.208   4.456
  149SOL    HW1 2221   0.985  13.241   4.544
  149SOL    HW2 2222   0.890  13.259   4.428
  150SOL     OW 2223   2.958   1.945  10.301
  150SOL    HW1 2224   3.051   1.933  10.316
  150SOL    HW2 2225   2.923   1.976  10.385
  151SOL     OW 2226   6.410   8.522   4.199
  151SOL    HW1 2227   6.409   8.610   4.162
  151SOL    HW2 2228   6.339   8.522   4.264
  152SOL     OW 2229   1.161   3.565  10.770
  152SOL    HW1 2230   1.245   3.570  10.817
  152SOL    HW2 2231   1.172   3.493  10.708
  153SOL     OW 2232   7.565  14.318   0.854
  153SOL    HW1 2233   7.528  14.406   0.869
  153SOL    HW2 2234   7.650  14.321   0.898
  154SOL     OW 2235  14.193   2.553   5.660
  154SOL    HW1 2236  14.213   2.638   5.621
  154SOL    HW2 2237  14.172   2.573   5.751
  155SOL     OW 2238   5.800   4.420  14.513
  155SOL    HW1 2239   5.763   4.484  14.452
  155SOL    HW2 2240   5.816   4.342  14.459
  156SOL     OW 2241  10.205  14.255   0.723
  156SOL    HW1 2242  10.279  14.315   0.732
  156SOL    HW2 2243  10.207  14.202   0.802
  157SOL     OW 2244  10.146   1.975   6.147
  157SOL    HW1 2245  10.132   1.955   6.054
  157SOL    HW2 2246  10.229   1.932   6.168
  158SOL     OW 2247  13.691  12.070  11.934
  158SOL    HW1 2248  13.704  12.164  11.949
  158SOL    HW2 2249  13.741  12.028  12.004
  159SOL     OW 2250  11.359   9.293   3.546
  159SOL    HW1 2251  11.285   9.349   3.521
  159SOL    HW2 2252  11.323   9.205   3.545
  160SOL     OW 2253   7.512  14.012  14.085
  160SOL    HW1 2254   7.550  13.925  14.071
  160SOL    HW2 2255   7.587  14.072  14.084
  161SOL     OW 2256  13.891   6.552   9.095
  161SOL    HW1 2257  13.846   6.634   9.115
  161SOL    HW2 2258  13.822   6.486   9.096
  162SOL     OW 2259   5.140   2.399   9.537
  162SOL    HW1 2260   5.108   2.468   9.479
  162SOL    HW2 2261   5.158   2.444   9.620
  163SOL     OW 2262   5.769   3.317   9.652
  163SOL    HW1 2263   5.844   3.293   9.706
  163SOL    HW2 2264   5.718   3.378   9.706
  164SOL     OW 2265   3.544  12.050   0.882
  164SOL    HW1 2266   3.607  12.108   0.925
  164SOL    HW2 2267   3.555  12.067   0.789
  165SOL     OW 2268   4.940   8.506   7.844
  165SOL    HW1 2269   4.985   8.543   7.768
  165SOL    HW2 2270   4.982   8.421   7.857
  166SOL     OW 2271  12.854   3.769  10.102
  166SOL    HW1 2272  12.826   3.828  10.173
  166SOL    HW2 2273  12.772   3.734  10.067
  167SOL     OW 2274  13.553   6.969   9.508
  167SOL    HW1 2275  13.588   6.926   9.430
  167SOL    HW2 2276  13.503   6.901   9.553
  168SOL     OW 2277   0.766  12.812   1.465
  168SOL    HW1 2278   0.847  12.786   1.421
  168SOL    HW2 2279   0.727  12.877   1.406
  169SOL     OW 2280   4.025   9.362   4.722
  169SOL    HW1 2281   3.964   9.330   4.656
  169SOL    HW2 2282   4.088   9.291   4.734
  170SOL     OW 2283   9.259   2.734   7.741
  170SOL    HW1 2284   9.183   2.734   7.683
  170SOL    HW2 2285   9.240   2.665   7.805
  171SOL     OW 2286   6.451   8.459   9.900
  171SOL    HW1 2287   6.446   8.441   9.994
  171SOL    HW2 2288   6.363   8.441   9.867
  172SOL     OW 2289  13.075  11.705  11.904
  172SOL    HW1 2290  13.073  11.749  11.989
  172SOL    HW2 2291  13.035  11.767  11.843
  173SOL     OW 2292  11.779   2.504   2.565
  173SOL    HW1 2293  11.696   2.551   2.570
  173SOL    HW2 2294  11.788   2.482   2.472
  174SOL     OW 2295   2.409  14.076   0.224
  174SOL    HW1 2296   2.468  14.047   0.294
  174SOL    HW2 2297   2.390  14.167   0.244
  175SOL     OW 2298   9.106  10.635  14.449
  175SOL    HW1 2299   9.135  10.660  14.536
  175SOL    HW2 2300   9.024  10.684  14.435
  176SOL     OW 2301  12.195   5.761  13.113
  176SOL    HW1 2302  12.109   5.726  13.137
  176SOL    HW2 2303  12.197   5.759  13.018
  177SOL     OW 2304  10.555   5.752   0.208
  177SOL    HW1 2305  10.617   5.788   0.272
  177SOL    HW2 2306  10.515   5.828   0.168
  178SOL     OW 2307  10.164  13.945  10.638
  178SOL    HW1 2308  10.255  13.917  10.649
  178SOL    HW2 2309  10.170  14.037  10.613
  179SOL     OW 2310  13.033   4.602   8.213
  179SOL    HW1 2311  12.964   4.606   8.148
  179SOL    HW2 2312  12.989   4.617   8.297
  180SOL     OW 2313   3.165  12.563  13.071
  180SOL    HW1 2314   3.231  12.606  13.126
  180SOL    HW2 2315   3.102  12.631  13.051
  181SOL     OW 2316  10.644  12.714   8.467
  181SOL    HW1 2317  10.604  12.784   8.416
  181SOL    HW2 2318  10.591  12.636   8.447
  182SOL     OW 2319   6.471   5.186   6.229
  182SOL    HW1 2320   6.512   5.239   6.161
  182SOL    HW2 2321   6.544   5.148   6.278
  183SOL     OW 2322   6.046   8.232   7.943
  183SOL    HW1 2323   6.010   8.208   7.857
  183SOL    HW2 2324   6.048   8.150   7.992
  184SOL     OW 2325   5.694   3.194  14.325
  184SOL    HW1 2326   5.688   3.283  14.360
  184SOL    HW2 2327   5.764   3.199  14.259
  185SOL     OW 2328   0.299   9.361  14.865
  185SOL    HW1 2329   0.360   9.316   0.045
  185SOL    HW2 2330   0.271   9.293  14.803
  186SOL     OW 2331   7.853   8.240   5.384
  186SOL    HW1 2332   7.925   8.255   5.323
  186SOL    HW2 2333   7.777   8.281   5.343
  187SOL     OW 2334  13.008   9.253   0.642
  187SOL    HW1 2335  13.043   9.198   0.572
  187SOL    HW2 2336  12.969   9.328   0.596
  188SOL     OW 2337  12.266  10.789   2.714
  188SOL    HW1 2338  12.306  10.704   2.696
  188SOL    HW2 2339  12.330  10.835   2.769
  189SOL     OW 2340   7.727  14.029   0.558
  189SOL    HW1 2341   7.692  13.954   0.607
  189SOL    HW2 2342   7.726  14.001   0.467
  190SOL     OW 2343   6.737   7.881   5.124
  190SOL    HW1 2344   6.764   7.972   5.138
  190SOL    HW2 2345   6.818   7.831   5.132
  191SOL     OW 2346   6.534   4.033   3.940
  191SOL    HW1 2347   6.522   4.074   3.854
  191SOL    HW2 2348   6.446   4.025   3.975
  192SOL     OW 2349  11.692   3.625   0.143
  192SOL    HW1 2350  11.685   3.564   0.216
  192SOL    HW2 2351  11.613   3.679   0.150
  193SOL     OW 2352   7.342   2.739   6.342
  193SOL    HW1 2353   7.260   2.723   6.389
  193SOL    HW2 2354   7.396   2.786   6.405
  194SOL     OW 2355   5.007  12.426   3.623
  194SOL    HW1 2356   5.057  12.366   3.678
  194SOL    HW2 2357   4.949  12.370   3.572
  195SOL     OW 2358   3.762  10.042   5.084
  195SOL    HW1 2359   3.832  10.020   5.022
  195SOL    HW2 2360   3.723  10.121   5.049
  196SOL     OW 2361   2.478   8.643  10.699
  196SOL    HW1 2362   2.499   8.697  10.775
  196SOL    HW2 2363   2.459   8.557  10.736
  197SOL     OW 2364   5.035  11.251   2.346
  197SOL    HW1 2365   4.979  11.253   2.424
  197SOL    HW2 2366   5.064  11.342   2.335
  198SOL     OW 2367  14.114   3.573  13.483
  198SOL    HW1 2368  14.034   3.528  13.456
  198SOL    HW2 2369  14.157   3.597  13.401
  199SOL     OW 2370  14.767   6.017  12.678
  199SOL    HW1 2371  14.788   5.977  12.594
  199SOL    HW2 2372  14.800   6.107  12.671
  200SOL     OW 2373   7.816   0.790  10.802
  200SOL    HW1 2374   7.739   0.737  10.783
  200SOL    HW2 2375   7.781   0.873  10.835
  201SOL     OW 2376  13.079   9.871   9.343
  201SOL    HW1 2377  13.029   9.891   9.422
  201SOL    HW2 2378  13.074   9.776   9.335
  202SOL     OW 2379  11.097   4.257  14.004
  202SOL    HW1 2380  11.008   4.225  14.020
  202SOL    HW2 2381  11.154   4.195  14.049
  203SOL     OW 2382   5.202   8.876  12.331
  203SOL    HW1 2383   5.185   8.943  12.265
  203SOL    HW2 2384   5.294   8.888  12.355
  204SOL     OW 2385  11.329   1.959   4.693
  204SOL    HW1 2386  11.406   1.908   4.668
  204SOL    HW2 2387  11.360   2.050   4.693
  205SOL     OW 2388  11.920  14.577   8.669
  205SOL    HW1 2389  11.860  14.507   8.646
  205SOL    HW2 2390  11.957  14.606   8.586
  206SOL     OW 2391   5.397  11.402   9.677
  206SOL    HW1 2392   5.307  11.414   9.645
  206SOL    HW2 2393   5.413  11.477   9.733
  207SOL     OW 2394   3.053   2.316   7.402
  207SOL    HW1 2395   3.125   2.270   7.360
  207SOL    HW2 2396   2.980   2.254   7.397
  208SOL     OW 2397   0.865   2.157   2.479
  208SOL    HW1 2398   0.886   2.170   2.387
  208SOL    HW2 2399   0.772   2.175   2.485
  209SOL     OW 2400   9.305   4.692   6.043
  209SOL    HW1 2401   9.374   4.758   6.051
  209SOL    HW2 2402   9.226   4.741   6.021
  210SOL     OW 2403  14.125   2.906   6.537
  210SOL    HW1 2404  14.036   2.933   6.515
  210SOL    HW2 2405  14.160   2.979   6.588
  211SOL     OW 2406   1.070   5.434   6.822
  211SOL    HW1 2407   1.147   5.477   6.784
  211SOL    HW2 2408   1.106   5.373   6.886
  212SOL     OW 2409  10.374   6.499   9.358
  212SOL    HW1 2410  10.406   6.411   9.339
  212SOL    HW2 2411  10.435   6.557   9.313
  213SOL     OW 2412   0.236   2.666   2.018
  213SOL    HW1 2413   0.156   2.718   2.031
  213SOL    HW2 2414   0.204   2.581   1.990
  214SOL     OW 2415  12.536   4.818   6.879
  214SOL    HW1 2416  12.465   4.790   6.822
  214SOL    HW2 2417  12.515   4.781   6.964
  215SOL     OW 2418   0.110  10.487   6.902
  215SOL    HW1 2419   0.131  10.403   6.860
  215SOL    HW2 2420   0.193  10.517   6.937
  216SOL     OW 2421  12.592   6.466   8.158
  216SOL    HW1 2422  12.586   6.373   8.179
  216SOL    HW2 2423  12.515   6.484   8.104
  217SOL     OW 2424  10.627   0.506   5.300
  217SOL    HW1 2425  10.672   0.515   5.384
  217SOL    HW2 2426  10.576   0.587   5.291
  218SOL     OW 2427  11.513  13.079   5.350
  218SOL    HW1 2428  11.557  13.150   5.398
  218SOL    HW2 2429  11.460  13.124   5.284
  219SOL     OW 2430  10.276   2.999   0.769
  219SOL    HW1 2431  10.239   3.084   0.746
  219SOL    HW2 2432  10.371   3.014   0.772
  220SOL     OW 2433  12.669   4.071  14.058
  220SOL    HW1 2434  12.584   4.104  14.085
  220SOL    HW2 2435  12.726   4.148  14.058
  221SOL     OW 2436   5.050   4.417   8.752
  221SOL    HW1 2437   4.976   4.376   8.796
  221SOL    HW2 2438   5.027   4.510   8.745
  222SOL     OW 2439   5.805   1.045   9.848
  222SOL    HW1 2440   5.805   0.964   9.796
  222SOL    HW2 2441   5.835   1.112   9.786
  223SOL     OW 2442  11.338   1.133  12.004
  223SOL    HW1 2443  11.254   1.087  12.003
  223SOL    HW2 2444  11.355   1.153  11.912
  224SOL     OW 2445  13.242  12.337   7.147
  224SOL    HW1 2446  13.175  12.270   7.160
  224SOL    HW2 2447  13.317  12.306   7.198
  225SOL     OW 2448  10.179  10.785  11.826
  225SOL    HW1 2449  10.270  10.756  11.830
  225SOL    HW2 2450  10.178  10.855  11.761
  226SOL     OW 2451   2.720   6.970   1.129
  226SOL    HW1 2452   2.813   6.969   1.109
  226SOL    HW2 2453   2.714   6.941   1.220
  227SOL     OW 2454   6.864  12.682   0.993
  227SOL    HW1 2455   6.828  12.607   1.039
  227SOL    HW2 2456   6.900  12.646   0.912
  228SOL     OW 2457  11.087   6.518  10.622
  228SOL    HW1 2458  11.054   6.461  10.691
  228SOL    HW2 2459  11.068   6.470  10.541
  229SOL     OW 2460   2.461   3.294   2.769
  229SOL    HW1 2461   2.491   3.253   2.851
  229SOL    HW2 2462   2.378   3.335   2.792
  230SOL     OW 2463   1.068   5.701   0.455
  230SOL    HW1 2464   1.132   5.635   0.430
  230SOL    HW2 2465   1.096   5.731   0.541
  231SOL     OW 2466  10.332   5.966  10.096
  231SOL    HW1 2467  10.343   5.889  10.151
  231SOL    HW2 2468  10.243   5.957  10.060
  232SOL     OW 2469   8.410   2.411   1.101
  232SOL    HW1 2470   8.333   2.362   1.072
  232SOL    HW2 2471   8.447   2.448   1.020
  233SOL     OW 2472  12.894   4.568  12.019
  233SOL    HW1 2473  12.858   4.655  12.037
  233SOL    HW2 2474  12.869   4.515  12.094
  234SOL     OW 2475  14.100   5.721  13.977
  234SOL    HW1 2476  14.017   5.743  13.935
  234SOL    HW2 2477  14.077   5.655  14.043
  235SOL     OW 2478   0.714   1.896   8.819
  235SOL    HW1 2479   0.672   1.967   8.869
  235SOL    HW2 2480   0.656   1.882   8.744
  236SOL     OW 2481   3.661   2.415  13.009
  236SOL    HW1 2482   3.660   2.398  13.103
  236SOL    HW2 2483   3.692   2.505  13.001
  237SOL     OW 2484   0.403  11.128   7.553
  237SOL    HW1 2485   0.408  11.159   7.643
  237SOL    HW2 2486   0.332  11.063   7.554
  238SOL     OW 2487   9.616   6.601   6.003
  238SOL    HW1 2488   9.651   6.684   5.972
  238SOL    HW2 2489   9.535   6.624   6.049
  239SOL     OW 2490   8.435   3.970   7.926
  239SOL    HW1 2491   8.440   3.940   7.835
  239SOL    HW2 2492   8.488   3.906   7.975
  240SOL     OW 2493  13.504   7.188   8.006
  240SOL    HW1 2494  13.531   7.138   8.083
  240SOL    HW2 2495  13.584   7.232   7.977
  241SOL     OW 2496  13.931   5.514   1.760
  241SOL    HW1 2497  13.882   5.459   1.821
  241SOL    HW2 2498  13.945   5.596   1.807
  242SOL     OW 2499   5.155   7.267  13.426
  242SOL    HW1 2500   5.232   7.287  13.374
  242SOL    HW2 2501   5.178   7.293  13.515
  243SOL     OW 2502   6.822   4.679  12.853
  243SOL    HW1 2503   6.840   4.585  12.858
  243SOL    HW2 2504   6.732   4.685  12.823
  244SOL     OW 2505   9.454   9.216  13.574
  244SOL    HW1 2506   9.502   9.293  13.605
  244SOL    HW2 2507   9.512   9.143  13.594
  245SOL     OW 2508   5.142  12.247  12.424
  245SOL    HW1 2509   5.102  12.191  12.491
  245SOL    HW2 2510   5.105  12.334  12.440
  246SOL     OW 2511   9.715   2.000   3.744
  246SOL    HW1 2512   9.737   1.981   3.653
  246SOL    HW2 2513   9.736   1.919   3.791
  247SOL     OW 2514   2.715   9.487   6.571
  247SOL    HW1 2515   2.683   9.572   6.540
  247SOL    HW2 2516   2.810   9.494   6.565
  248SOL     OW 2517  10.265  14.261   2.035
  248SOL    HW1 2518  10.347  14.288   2.077
  248SOL    HW2 2519  10.269  14.301   1.948
  249SOL     OW 2520  12.170   7.079   8.292
  249SOL    HW1 2521  12.246   7.086   8.349
  249SOL    HW2 2522  12.126   6.999   8.321
  250SOL     OW 2523  12.558   2.490  11.217
  250SOL    HW1 2524  12.612   2.556  11.262
  250SOL    HW2 2525  12.543   2.422  11.283
  251SOL     OW 2526   0.489  11.507  14.702
  251SOL    HW1 2527   0.536  11.566  14.643
  251SOL    HW2 2528   0.423  11.562  14.745
  252SOL     OW 2529   2.035   2.726  11.995
  252SOL    HW1 2530   1.962   2.751  11.938
  252SOL    HW2 2531   2.082   2.808  12.012
  253SOL     OW 2532  13.561   2.124   9.642
  253SOL    HW1 2533  13.646   2.086   9.662
  253SOL    HW2 2534  13.548   2.106   9.549
  254SOL     OW 2535   8.922   9.187   7.643
  254SOL    HW1 2536   8.991   9.131   7.609
  254SOL    HW2 2537   8.856   9.125   7.677
  255SOL     OW 2538   2.074  12.663  11.241
  255SOL    HW1 2539   1.983  12.634  11.245
  255SOL    HW2 2540   2.116  12.622  11.317
  256SOL     OW 2541   9.400   4.825  10.598
  256SOL    HW1 2542   9.312   4.794  10.617
  256SOL    HW2 2543   9.400   4.843  10.504
  257SOL     OW 2544   1.055   1.139   1.147
  257SOL    HW1 2545   1.101   1.135   1.063
  257SOL    HW2 2546   1.112   1.091   1.207
  258SOL     OW 2547   4.886   0.283   4.216
  258SOL    HW1 2548   4.967   0.331   4.200
  258SOL    HW2 2549   4.821   0.350   4.235
  259SOL     OW 2550  14.198   0.084   0.431
  259SOL    HW1 2551  14.215   0.058   0.340
  259SOL    HW2 2552  14.232   0.173   0.437
  260SOL     OW 2553  12.865   0.634   0.059
  260SOL    HW1 2554  12.814   0.638   0.140
  260SOL    HW2 2555  12.946   0.588   0.083
  261SOL     OW 2556   1.583  14.682   1.919
  261SOL    HW1 2557   1.528  14.752   1.884
  261SOL    HW2 2558   1.522  14.612   1.942
  262SOL     OW 2559   8.632  10.237   9.481
  262SOL    HW1 2560   8.651  10.179   9.555
  262SOL    HW2 2561   8.672  10.193   9.406
  263SOL     OW 2562   4.067   9.290   5.470
  263SOL    HW1 2563   4.044   9.198   5.485
  263SOL    HW2 2564   4.159   9.286   5.442
  264SOL     OW 2565   0.119   6.139   6.587
  264SOL    HW1 2566   0.028   6.135   6.616
  264SOL    HW2 2567   0.118   6.202   6.514
  265SOL     OW 2568  11.145   2.020   2.505
  265SOL    HW1 2569  11.054   2.047   2.496
  265SOL    HW2 2570  11.178   2.017   2.415
  266SOL     OW 2571   1.985   9.243   5.755
  266SOL    HW1 2572   1.990   9.269   5.663
  266SOL    HW2 2573   2.029   9.158   5.759
  267SOL     OW 2574  10.330   9.540  14.200
  267SOL    HW1 2575  10.315   9.448  14.179
  267SOL    HW2 2576  10.249   9.585  14.176
  268SOL     OW 2577   9.159   6.041  11.809
  268SOL    HW1 2578   9.208   6.117  11.841
  268SOL    HW2 2579   9.206   5.966  11.846
  269SOL     OW 2580  13.846   4.843   9.488
  269SOL    HW1 2581  13.772   4.847   9.428
  269SOL    HW2 2582  13.917   4.889   9.443
  270SOL     OW 2583  13.651  12.006   9.421
  270SOL    HW1 2584  13.684  12.075   9.363
  270SOL    HW2 2585  13.729  11.971   9.463
  271SOL     OW 2586  10.278   3.870   9.070
  271SOL    HW1 2587  10.232   3.888   9.152
  271SOL    HW2 2588  10.218   3.899   9.002
  272SOL     OW 2589   7.644  14.285   0.582
  272SOL    HW1 2590   7.682  14.197   0.584
  272SOL    HW2 2591   7.634  14.309   0.674
  273SOL     OW 2592   3.160   8.415   7.754
  273SOL    HW1 2593   3.236   8.448   7.801
  273SOL    HW2 2594   3.097   8.486   7.757
  274SOL     OW 2595   9.810  13.588   5.157
  274SOL    HW1 2596   9.888  13.556   5.202
  274SOL    HW2 2597   9.787  13.669   5.203
  275SOL     OW 2598  11.982   7.947   8.006
  275SOL    HW1 2599  11.956   7.862   8.041
  275SOL    HW2 2600  12.029   7.927   7.926
  276SOL     OW 2601   7.861   1.348   5.966
  276SOL    HW1 2602   7.784   1.373   5.915
  276SOL    HW2 2603   7.857   1.253   5.973
  277SOL     OW 2604   8.992  12.364   6.611
  277SOL    HW1 2605   8.969  12.318   6.530
  277SOL    HW2 2606   9.063  12.424   6.585
  278SOL     OW 2607   1.377   0.422   2.167
  278SOL    HW1 2608   1.401   0.499   2.115
  278SOL    HW2 2609   1.286   0.404   2.142
  279SOL     OW 2610   4.800   7.008   2.389
  279SOL    HW1 2611   4.731   7.027   2.325
  279SOL    HW2 2612   4.882   7.013   2.339
  280SOL     OW 2613  10.934   3.184   7.514
  280SOL    HW1 2614  10.859   3.127   7.495
  280SOL    HW2 2615  11.004   3.123   7.539
  281SOL     OW 2616   7.482  12.773   7.351
  281SOL    HW1 2617   7.489  12.697   7.293
  281SOL    HW2 2618   7.550  12.833   7.320
  282SOL     OW 2619   8.056   3.631  11.588
  282SOL    HW1 2620   8.148   3.629  11.560
  282SOL    HW2 2621   8.051   3.706  11.648
  283SOL     OW 2622   2.247  13.962   2.903
  283SOL    HW1 2623   2.259  13.971   2.808
  283SOL    HW2 2624   2.328  13.921   2.934
  284SOL     OW 2625   4.171   5.721  11.056
  284SOL    HW1 2626   4.131   5.784  11.116
  284SOL    HW2 2627   4.135   5.636  11.082
  285SOL     OW 2628   6.449   6.035   7.154
  285SOL    HW1 2629   6.510   6.013   7.225
  285SOL    HW2 2630   6.505   6.070   7.085
  286SOL     OW 2631   0.970   0.370   8.642
  286SOL    HW1 2632   0.935   0.284   8.620
  286SOL    HW2 2633   1.032   0.389   8.572
  287SOL     OW 2634  12.475   5.257  12.663
  287SOL    HW1 2635  12.422   5.307  12.725
  287SOL    HW2 2636  12.416   5.188  12.632
  288SOL     OW 2637  13.017   3.115  14.732
  288SOL    HW1 2638  13.072   3.037  14.725
  288SOL    HW2 2639  13.078   3.184  14.758
  289SOL     OW 2640   1.182   9.859   1.351
  289SOL    HW1 2641   1.239   9.793   1.390
  289SOL    HW2 2642   1.093   9.830   1.371
  290SOL     OW 2643  14.696  13.263  13.269
  290SOL    HW1 2644  14.740  13.198  13.323
  290SOL    HW2 2645  14.767  13.320  13.238
  291SOL     OW 2646   0.401  11.488  12.576
  291SOL    HW1 2647   0.401  11.421  12.508
  291SOL    HW2 2648   0.493  11.510  12.589
  292SOL     OW 2649   0.257   4.759   2.686
  292SOL    HW1 2650   0.286   4.840   2.643
  292SOL    HW2 2651   0.302   4.689   2.638
  293SOL     OW 2652   5.574   2.274   4.048
  293SOL    HW1 2653   5.482   2.251   4.037
  293SOL    HW2 2654   5.573   2.354   4.101
  294SOL     OW 2655  12.780   1.108   0.799
  294SOL    HW1 2656  12.825   1.044   0.854
  294SOL    HW2 2657  12.828   1.190   0.814
  295SOL     OW 2658   5.469   2.223   3.731
  295SOL    HW1 2659   5.424   2.296   3.689
  295SOL    HW2 2660   5.560   2.252   3.739
  296SOL     OW 2661   4.448   3.090  12.915
  296SOL    HW1 2662   4.427   3.083  13.008
  296SOL    HW2 2663   4.428   3.003  12.880
  297SOL     OW 2664  12.433   9.794  14.523
  297SOL    HW1 2665  12.371   9.859  14.556
  297SOL    HW2 2666  12.386   9.749  14.453
  298SOL     OW 2667  11.572   5.216   8.832
  298SOL    HW1 2668  11.664   5.206   8.810
  298SOL    HW2 2669  11.569   5.211   8.927
  299SOL     OW 2670  12.994   5.633   4.325
  299SOL    HW1 2671  12.980   5.616   4.231
  299SOL    HW2 2672  12.907   5.625   4.364
  300SOL     OW 2673  13.818   3.235  13.199
  300SOL    HW1 2674  13.853   3.146  13.203
  300SOL    HW2 2675  13.851   3.270  13.116
  301SOL     OW 2676   6.228  12.096   3.715
  301SOL    HW1 2677   6.202  12.135   3.799
  301SOL    HW2 2678   6.316  12.129   3.699
  302SOL     OW 2679   5.041   7.718  14.206
  302SOL    HW1 2680   5.136   7.724  14.194
  302SOL    HW2 2681   5.028   7.723  14.300
  303SOL     OW 2682  10.108   8.084  11.503
  303SOL    HW1 2683  10.074   8.001  11.470
  303SOL    HW2 2684  10.124   8.137  11.424
  304SOL     OW 2685   5.864   5.959   1.617
  304SOL    HW1 2686   5.855   5.977   1.710
  304SOL    HW2 2687   5.780   5.922   1.591
  305SOL     OW 2688   4.793   1.230   6.517
  305SOL    HW1 2689   4.826   1.307   6.564
  305SOL    HW2 2690   4.863   1.207   6.456
  306SOL     OW 2691   6.925   5.110   6.613
  306SOL    HW1 2692   6.900   5.174   6.546
  306SOL    HW2 2693   6.977   5.160   6.676
  307SOL     OW 2694  13.171   0.249   2.214
  307SOL    HW1 2695  13.238   0.316   2.197
  307SOL    HW2 2696  13.219   0.175   2.250
  308SOL     OW 2697   9.099  10.813   9.052
  308SOL    HW1 2698   9.160  10.802   9.125
  308SOL    HW2 2699   9.057  10.727   9.042
  309SOL     OW 2700   8.788   7.224   9.567
  309SOL    HW1 2701   8.818   7.134   9.579
  309SOL    HW2 2702   8.839   7.257   9.493
  310SOL     OW 2703  12.496   4.441   2.455
  310SOL    HW1 2704  12.496   4.443   2.551
  310SOL    HW2 2705  12.505   4.532   2.429
  311SOL     OW 2706   3.077   4.092   7.598
  311SOL    HW1 2707   3.045   4.010   7.560
  311SOL    HW2 2708   3.064   4.157   7.529
  312SOL     OW 2709  11.705   5.175   0.869
  312SOL    HW1 2710  11.784   5.128   0.843
  312SOL    HW2 2711  11.689   5.148   0.960
  313SOL     OW 2712   2.877   3.419   6.987
  313SOL    HW1 2713   2.793   3.421   6.941
  313SOL    HW2 2714   2.929   3.488   6.946
  314SOL     OW 2715   7.547  14.185   2.609
  314SOL    HW1 2716   7.479  14.192   2.676
  314SOL    HW2 2717   7.596  14.267   2.616
  315SOL     OW 2718  14.705   4.851   2.333
  315SOL    HW1 2719  14.733   4.912   2.402
  315SOL    HW2 2720  14.609   4.856   2.335
  316SOL     OW 2721   2.003   0.555   5.994
  316SOL    HW1 2722   1.957   0.546   6.078
  316SOL    HW2 2723   2.088   0.592   6.018
  317SOL     OW 2724   3.727  12.477   5.812
  317SOL    HW1 2725   3.761  12.390   5.790
  317SOL    HW2 2726   3.806  12.530   5.827
  318SOL     OW 2727   0.468   1.516   1.261
  318SOL    HW1 2728   0.412   1.563   1.323
  318SOL    HW2 2729   0.423   1.524   1.177
  319SOL     OW 2730   5.759   8.609  13.494
  319SOL    HW1 2731   5.724   8.524  13.471
  319SOL    HW2 2732   5.846   8.611  13.453
  320SOL     OW 2733  10.912   3.101   7.996
  320SOL    HW1 2734  10.904   3.191   7.965
  320SOL    HW2 2735  10.918   3.108   8.091
  321SOL     OW 2736   9.539   6.155   1.023
  321SOL    HW1 2737   9.608   6.106   1.067
  321SOL    HW2 2738   9.565   6.155   0.931
  322SOL     OW 2739   0.733   8.524   0.446
  322SOL    HW1 2740   0.652   8.573   0.449
  322SOL    HW2 2741   0.800   8.585   0.477
  323SOL     OW 2742  10.909   2.790   8.794
  323SOL    HW1 2743  10.998   2.819   8.812
  323SOL    HW2 2744  10.904   2.785   8.699
  324SOL     OW 2745   7.018   2.219  14.102
  324SOL    HW1 2746   7.097   2.175  14.072
  324SOL    HW2 2747   6.979   2.254  14.021
  325SOL     OW 2748  11.050   5.012   0.489
  325SOL    HW1 2749  11.118   5.079   0.489
  325SOL    HW2 2750  11.068   4.959   0.412
  326SOL     OW 2751  14.653   0.852   8.609
  326SOL    HW1 2752  14.611   0.897   8.682
  326SOL    HW2 2753  14.589   0.787   8.581
  327SOL     OW 2754   0.425  11.866   2.261
  327SOL    HW1 2755   0.493  11.927   2.232
  327SOL    HW2 2756   0.380  11.913   2.331
  328SOL     OW 2757  12.007   6.322   8.569
  328SOL    HW1 2758  12.008   6.355   8.659
  328SOL    HW2 2759  12.097   6.333   8.539
  329SOL     OW 2760   3.527  13.216   6.361
  329SOL    HW1 2761   3.541  13.161   6.284
  329SOL    HW2 2762   3.475  13.161   6.420
  330SOL     OW 2763   0.445  13.595   3.610
  330SOL    HW1 2764   0.354  13.567   3.599
  330SOL    HW2 2765   0.450  13.625   3.701
  331SOL     OW 2766   9.765  12.245   6.695
  331SOL    HW1 2767   9.836  12.190   6.660
  331SOL    HW2 2768   9.710  12.262   6.619
  332SOL     OW 2769  13.746   6.119  13.507
  332SOL    HW1 2770  13.673   6.167  13.467
  332SOL    HW2 2771  13.742   6.032  13.467
  333SOL     OW 2772   1.857   1.699   7.353
  333SOL    HW1 2773   1.933   1.719   7.409
  333SOL    HW2 2774   1.879   1.737   7.268
  334SOL     OW 2775   3.620  12.194   4.184
  334SOL    HW1 2776   3.661  12.166   4.266
  334SOL    HW2 2777   3.693  12.208   4.124
  335SOL     OW 2778   1.645  11.128   5.402
  335SOL    HW1 2779   1.603  11.054   5.446
  335SOL    HW2 2780   1.572  11.177   5.364
  336SOL     OW 2781   5.497   9.775  13.779
  336SOL    HW1 2782   5.430   9.800  13.716
  336SOL    HW2 2783   5.451   9.769  13.863
  337SOL     OW 2784   3.394   3.439   8.830
  337SOL    HW1 2785   3.365   3.363   8.880
  337SOL    HW2 2786   3.317   3.463   8.777
  338SOL     OW 2787  10.381   9.512   3.765
  338SOL    HW1 2788  10.394   9.451   3.838
  338SOL    HW2 2789  10.425   9.592   3.792
  339SOL     OW 2790  14.801   9.249   4.428
  339SOL    HW1 2791   0.009   9.206   4.421
  339SOL    HW2 2792  14.743   9.192   4.377
  340SOL     OW 2793  13.260   5.279   0.929
  340SOL    HW1 2794  13.343   5.324   0.945
  340SOL    HW2 2795  13.202   5.310   0.998
  341SOL     OW 2796   3.624   3.831   6.187
  341SOL    HW1 2797   3.605   3.845   6.094
  341SOL    HW2 2798   3.719   3.841   6.194
  342SOL     OW 2799   0.743   1.272   8.670
  342SOL    HW1 2800   0.729   1.291   8.578
  342SOL    HW2 2801   0.807   1.201   8.671
  343SOL     OW 2802   6.674   4.544  13.154
  343SOL    HW1 2803   6.660   4.634  13.184
  343SOL    HW2 2804   6.612   4.532  13.083
  344SOL     OW 2805  11.406  11.004   3.184
  344SOL    HW1 2806  11.481  11.051   3.147
  344SOL    HW2 2807  11.393  11.044   3.270
  345SOL     OW 2808  13.326   0.433   3.190
  345SOL    HW1 2809  13.273   0.385   3.254
  345SOL    HW2 2810  13.287   0.410   3.105
  346SOL     OW 2811   9.791  13.755   8.361
  346SOL    HW1 2812   9.728  13.800   8.416
  346SOL    HW2 2813   9.802  13.669   8.402
  347SOL     OW 2814  11.283   9.548   0.090
  347SOL    HW1 2815  11.201   9.598   0.093
  347SOL    HW2 2816  11.291   9.522  14.876
  348SOL     OW 2817  10.187   8.393   9.885
  348SOL    HW1 2818  10.241   8.421   9.811
  348SOL    HW2 2819  10.153   8.475   9.922
  349SOL     OW 2820   9.850  14.528   1.189
  349SOL    HW1 2821   9.869  14.543   1.096
  349SOL    HW2 2822   9.821  14.614   1.221
  350SOL     OW 2823  10.838   0.737   9.275
  350SOL    HW1 2824  10.783   0.679   9.222
  350SOL    HW2 2825  10.917   0.749   9.224
  351SOL     OW 2826  11.763  13.452   4.727
  351SOL    HW1 2827  11.745  13.545   4.715
  351SOL    HW2 2828  11.847  13.450   4.773
  352SOL     OW 2829  10.977   9.555   9.414
  352SOL    HW1 2830  11.043   9.623   9.401
  352SOL    HW2 2831  10.894   9.602   9.420
  353SOL     OW 2832  14.750   7.628   5.511
  353SOL    HW1 2833  14.707   7.568   5.449
  353SOL    HW2 2834  14.680   7.687   5.539
  354SOL     OW 2835   7.856   3.339  10.279
  354SOL    HW1 2836   7.782   3.377  10.232
  354SOL    HW2 2837   7.822   3.324  10.367
  355SOL     OW 2838   5.031   4.567   6.505
  355SOL    HW1 2839   5.107   4.518   6.472
  355SOL    HW2 2840   5.067   4.651   6.532
  356SOL     OW 2841   3.345   8.185   5.327
  356SOL    HW1 2842   3.270   8.126   5.325
  356SOL    HW2 2843   3.354   8.208   5.420
  357SOL     OW 2844   4.058  12.111  13.840
  357SOL    HW1 2845   4.129  12.048  13.850
  357SOL    HW2 2846   4.031  12.103  13.748
  358SOL     OW 2847   7.045   9.405   2.311
  358SOL    HW1 2848   7.063   9.405   2.217
  358SOL    HW2 2849   6.950   9.402   2.317
  359SOL     OW 2850   3.049   5.838   6.794
  359SOL    HW1 2851   3.007   5.849   6.879
  359SOL    HW2 2852   3.121   5.777   6.812
  360SOL     OW 2853  12.335   9.627   7.446
  360SOL    HW1 2854  12.292   9.691   7.503
  360SOL    HW2 2855  12.365   9.679   7.372
  361SOL     OW 2856  14.522  12.710   6.630
  361SOL    HW1 2857  14.500  12.708   6.723
  361SOL    HW2 2858  14.438  12.721   6.585
  362SOL     OW 2859   7.069  14.551   3.341
  362SOL    HW1 2860   7.131  14.624   3.349
  362SOL    HW2 2861   7.019  14.552   3.422
  363SOL     OW 2862   7.385   5.059   3.583
  363SOL    HW1 2863   7.472   5.099   3.572
  363SOL    HW2 2864   7.352   5.048   3.494
  364SOL     OW 2865  11.787   4.626   9.055
  364SOL    HW1 2866  11.719   4.579   9.102
  364SOL    HW2 2867  11.846   4.558   9.022
  365SOL     OW 2868   4.954  10.949   0.505
  365SOL    HW1 2869   4.976  10.954   0.598
  365SOL    HW2 2870   4.932  10.857   0.490
  366SOL     OW 2871   8.387  12.402   8.625
  366SOL    HW1 2872   8.294  12.421   8.622
  366SOL    HW2 2873   8.401  12.339   8.554
  367SOL     OW 2874   3.391   5.446   8.707
  367SOL    HW1 2875   3.476   5.422   8.743
  367SOL    HW2 2876   3.330   5.439   8.780
  368SOL     OW 2877   5.177   5.875   7.225
  368SOL    HW1 2878   5.214   5.870   7.137
  368SOL    HW2 2879   5.247   5.915   7.277
  369SOL     OW 2880  11.848   6.480  13.038
  369SOL    HW1 2881  11.852   6.572  13.061
  369SOL    HW2 2882  11.784   6.475  12.968
  370SOL     OW 2883  10.967  11.869   2.798
  370SOL    HW1 2884  11.060  11.849   2.787
  370SOL    HW2 2885  10.966  11.959   2.831
  371SOL     OW 2886   9.484   6.924   3.734
  371SOL    HW1 2887   9.424   6.954   3.801
  371SOL    HW2 2888   9.472   6.985   3.662
  372SOL     OW 2889  13.049   9.506  12.679
  372SOL    HW1 2890  13.008   9.575  12.627
  372SOL    HW2 2891  13.106   9.460  12.617
  373SOL     OW 2892  11.138   5.107   7.226
  373SOL    HW1 2893  11.074   5.136   7.291
  373SOL    HW2 2894  11.121   5.163   7.150
  374SOL     OW 2895   1.689   8.172   9.548
  374SOL    HW1 2896   1.754   8.236   9.575
  374SOL    HW2 2897   1.626   8.168   9.620
  375SOL     OW 2898  14.049   1.317  11.739
  375SOL    HW1 2899  14.039   1.234  11.692
  375SOL    HW2 2900  13.984   1.312  11.809
  376SOL     OW 2901  11.622   8.991  12.431
  376SOL    HW1 2902  11.601   8.938  12.354
  376SOL    HW2 2903  11.692   8.942  12.475
  377SOL     OW 2904  13.239   3.398   1.653
  377SOL    HW1 2905  13.229   3.317   1.602
  377SOL    HW2 2906  13.318   3.438   1.617
  378SOL     OW 2907   9.702   4.478   5.442
  378SOL    HW1 2908   9.725   4.507   5.530
  378SOL    HW2 2909   9.661   4.554   5.402
  379SOL     OW 2910   5.945   8.859   5.213
  379SOL    HW1 2911   5.991   8.855   5.297
  379SOL    HW2 2912   6.015   8.863   5.148
  380SOL     OW 2913  13.525  12.367   9.720
  380SOL    HW1 2914  13.515  12.341   9.812
  380SOL    HW2 2915  13.499  12.289   9.671
  381SOL     OW 2916  11.490   2.234   4.033
  381SOL    HW1 2917  11.513   2.174   4.104
  381SOL    HW2 2918  11.525   2.319   4.060
  382SOL     OW 2919  13.329   4.296   5.656
  382SOL    HW1 2920  13.296   4.273   5.742
  382SOL    HW2 2921  13.259   4.273   5.596
  383SOL     OW 2922  11.156   3.138   1.699
  383SOL    HW1 2923  11.213   3.181   1.763
  383SOL    HW2 2924  11.200   3.055   1.679
  384SOL     OW 2925   1.111   5.898  13.851
  384SOL    HW1 2926   1.032   5.864  13.809
  384SOL    HW2 2927   1.090   5.989  13.871
  385SOL     OW 2928   0.960   5.346   0.796
  385SOL    HW1 2929   0.897   5.274   0.804
  385SOL    HW2 2930   0.943   5.383   0.709
  386SOL     OW 2931   1.091   8.231   3.088
  386SOL    HW1 2932   1.182   8.221   3.116
  386SOL    HW2 2933   1.044   8.165   3.139
  387SOL     OW 2934   7.925   3.850   7.792
  387SOL    HW1 2935   7.998   3.895   7.835
  387SOL    HW2 2936   7.967   3.784   7.737
  388SOL     OW 2937  10.937   4.201   0.617
  388SOL    HW1 2938  10.898   4.188   0.530
  388SOL    HW2 2939  10.898   4.282   0.649
  389SOL     OW 2940   2.857  11.570   5.311
  389SOL    HW1 2941   2.896  11.554   5.397
  389SOL    HW2 2942   2.835  11.483   5.277
  390SOL     OW 2943  12.258  14.545   4.755
  390SOL    HW1 2944  12.229  14.454   4.757
  390SOL    HW2 2945  12.344  14.541   4.712
  391SOL     OW 2946   8.464  10.155   0.369
  391SOL    HW1 2947   8.494  10.082   0.314
  391SOL    HW2 2948   8.542  10.181   0.418
  392SOL     OW 2949  13.858   2.018   4.099
  392SOL    HW1 2950  13.936   2.014   4.153
  392SOL    HW2 2951  13.887   1.989   4.012
  393SOL     OW 2952   5.511   8.641   9.984
  393SOL    HW1 2953   5.580   8.706   9.968
  393SOL    HW2 2954   5.469   8.671  10.065
  394SOL     OW 2955   1.847   5.327   4.771
  394SOL    HW1 2956   1.850   5.235   4.744
  394SOL    HW2 2957   1.772   5.363   4.723
  395SOL     OW 2958   9.578   5.714  13.560
  395SOL    HW1 2959   9.590   5.807  13.541
  395SOL    HW2 2960   9.500   5.690  13.510
  396SOL     OW 2961   7.164   8.440  13.307
  396SOL    HW1 2962   7.084   8.400  13.342
  396SOL    HW2 2963   7.159   8.425  13.212
  397SOL     OW 2964   0.195   9.094  14.468
  397SOL    HW1 2965   0.228   9.075  14.555
  397SOL    HW2 2966   0.216   9.186  14.453
  398SOL     OW 2967   9.434  14.040  13.153
  398SOL    HW1 2968   9.380  14.009  13.080
  398SOL    HW2 2969   9.462  14.128  13.126
  399SOL     OW 2970   9.389   6.301   6.785
  399SOL    HW1 2971   9.389   6.394   6.764
  399SOL    HW2 2972   9.296   6.278   6.791
  400SOL     OW 2973   5.443   4.878  14.554
  400SOL    HW1 2974   5.424   4.955  14.607
  400SOL    HW2 2975   5.513   4.833  14.600
  401SOL     OW 2976   5.418   7.634   9.576
  401SOL    HW1 2977   5.505   7.668   9.554
  401SOL    HW2 2978   5.416   7.547   9.536
  402SOL     OW 2979  12.776   6.076   9.586
  402SOL    HW1 2980  12.847   6.021   9.619
  402SOL    HW2 2981  12.756   6.135   9.659
  403SOL     OW 2982  11.013   2.347  11.589
  403SOL    HW1 2983  10.959   2.372  11.664
  403SOL    HW2 2984  10.977   2.263  11.561
  404SOL     OW 2985   9.554  14.867   0.691
  404SOL    HW1 2986   9.524   0.066   0.644
  404SOL    HW2 2987   9.539  14.794   0.630
  405SOL     OW 2988  12.192   7.596   3.268
  405SOL    HW1 2989  12.168   7.685   3.296
  405SOL    HW2 2990  12.283   7.587   3.294
  406SOL     OW 2991   2.438   9.475   9.566
  406SOL    HW1 2992   2.374   9.404   9.567
  406SOL    HW2 2993   2.511   9.442   9.618
  407SOL     OW 2994   5.987   1.825   0.717
  407SOL    HW1 2995   6.036   1.775   0.651
  407SOL    HW2 2996   6.049   1.891   0.747
  408SOL     OW 2997   5.314   8.190   8.431
  408SOL    HW1 2998   5.320   8.117   8.369
  408SOL    HW2 2999   5.295   8.266   8.376
  409SOL     OW 3000   4.386   7.563   6.975
  409SOL    HW1 3001   4.386   7.507   6.898
  409SOL    HW2 3002   4.375   7.503   7.048
  410SOL     OW 3003  12.765   1.778   4.108
  410SOL    HW1 3004  12.763   1.846   4.176
  410SOL    HW2 3005  12.687   1.725   4.125
  411SOL     OW 3006  10.523  14.739  13.144
  411SOL    HW1 3007  10.500  14.650  13.120
  411SOL    HW2 3008  10.475  14.794  13.082
  412SOL     OW 3009   0.845   8.933   6.980
  412SOL    HW1 3010   0.903   8.986   7.034
  412SOL    HW2 3011   0.872   8.952   6.890
  413SOL     OW 3012   7.251  14.846   3.996
  413SOL    HW1 3013   7.295   0.039   4.044
  413SOL    HW2 3014   7.234   0.006   3.909
  414SOL     OW 3015   3.653  14.756   5.613
  414SOL    HW1 3016   3.623  14.820   5.549
  414SOL    HW2 3017   3.675  14.679   5.561
  415SOL     OW 3018   6.814  12.352   4.021
  415SOL    HW1 3019   6.903  12.337   4.053
  415SOL    HW2 3020   6.780  12.265   4.001
  416SOL     OW 3021   9.874  12.625  14.016
  416SOL    HW1 3022   9.828  12.562  13.962
  416SOL    HW2 3023   9.904  12.692  13.954
  417SOL     OW 3024   2.533  10.959   4.970
  417SOL    HW1 3025   2.494  11.007   5.043
  417SOL    HW2 3026   2.608  10.914   5.008
  418SOL     OW 3027   7.142   1.246   1.248
  418SOL    HW1 3028   7.148   1.331   1.291
  418SOL    HW2 3029   7.070   1.201   1.293
  419SOL     OW 3030   9.257   8.788   0.474
  419SOL    HW1 3031   9.175   8.817   0.512
  419SOL    HW2 3032   9.254   8.692   0.480
  420SOL     OW 3033   1.380   8.208   3.175
  420SOL    HW1 3034   1.408   8.224   3.266
  420SOL    HW2 3035   1.451   8.245   3.122
  421SOL     OW 3036   8.873   1.881  12.111
  421SOL    HW1 3037   8.934   1.841  12.172
  421SOL    HW2 3038   8.901   1.851  12.025
  422SOL     OW 3039   1.652   2.775   3.497
  422SOL    HW1 3040   1.639   2.698   3.442
  422SOL    HW2 3041   1.563   2.801   3.523
  423SOL     OW 3042  12.398   4.313   0.994
  423SOL    HW1 3043  12.338   4.249   0.957
  423SOL    HW2 3044  12.483   4.271   0.992
  424SOL     OW 3045   0.378   8.959   4.967
  424SOL    HW1 3046   0.353   8.913   4.887
  424SOL    HW2 3047   0.459   8.918   4.994
  425SOL     OW 3048   7.075   0.055   6.544
  425SOL    HW1 3049   6.980   0.050   6.540
  425SOL    HW2 3050   7.105   0.024   6.459
  426SOL     OW 3051   6.342   5.863   9.137
  426SOL    HW1 3052   6.342   5.828   9.048
  426SOL    HW2 3053   6.408   5.812   9.183
  427SOL     OW 3054  12.732  12.970   9.507
  427SOL    HW1 3055  12.824  12.973   9.535
  427SOL    HW2 3056  12.723  13.041   9.445
  428SOL     OW 3057   0.889   1.056   4.998
  428SOL    HW1 3058   0.931   0.970   4.990
  428SOL    HW2 3059   0.950   1.108   5.050
  429SOL     OW 3060   9.953   3.294  14.479
  429SOL    HW1 3061   9.940   3.379  14.436
  429SOL    HW2 3062   9.898   3.234  14.429
  430SOL     OW 3063   0.866   7.520   9.554
  430SOL    HW1 3064   0.889   7.554   9.468
  430SOL    HW2 3065   0.778   7.484   9.543
  431SOL     OW 3066  11.556  13.445   2.648
  431SOL    HW1 3067  11.627  13.384   2.626
  431SOL    HW2 3068  11.538  13.429   2.740
  432SOL     OW 3069  10.660  11.251   8.308
  432SOL    HW1 3070  10.630  11.246   8.399
  432SOL    HW2 3071  10.668  11.159   8.281
  433SOL     OW 3072   9.781   2.032   0.017
  433SOL    HW1 3073   9.758   2.118  14.859
  433SOL    HW2 3074   9.875   2.038   0.034
  434SOL     OW 3075  10.882   3.471   5.873
  434SOL    HW1 3076  10.903   3.517   5.793
  434SOL    HW2 3077  10.794   3.501   5.896
  435SOL     OW 3078   1.343   5.375  12.972
  435SOL    HW1 3079   1.437   5.388  12.962
  435SOL    HW2 3080   1.335   5.295  13.024
  436SOL     OW 3081   3.494   0.330  14.424
  436SOL    HW1 3082   3.499   0.326  14.329
  436SOL    HW2 3083   3.405   0.304  14.446
  437SOL     OW 3084   9.038   5.023   0.883
  437SOL    HW1 3085   9.055   4.956   0.950
  437SOL    HW2 3086   9.122   5.067   0.872
  438SOL     OW 3087   4.050  13.502   3.338
  438SOL    HW1 3088   4.118  13.564   3.365
  438SOL    HW2 3089   3.979  13.557   3.306
  439SOL     OW 3090   7.163  14.784   8.842
  439SOL    HW1 3091   7.235  14.762   8.783
  439SOL    HW2 3092   7.198  14.769   8.930
  440SOL     OW 3093   9.126   2.629   2.285
  440SOL    HW1 3094   9.193   2.587   2.338
  440SOL    HW2 3095   9.173   2.693   2.232
  441SOL     OW 3096   2.450  14.018   0.678
  441SOL    HW1 3097   2.519  13.954   0.692
  441SOL    HW2 3098   2.384  13.997   0.744
  442SOL     OW 3099  11.132   7.936   1.410
  442SOL    HW1 3100  11.150   7.915   1.502
  442SOL    HW2 3101  11.037   7.945   1.406
  443SOL     OW 3102  11.557   9.856   6.595
  443SOL    HW1 3103  11.464   9.845   6.615
  443SOL    HW2 3104  11.560   9.865   6.500
  444SOL     OW 3105  10.805   0.890   2.938
  444SOL    HW1 3106  10.882   0.897   2.881
  444SOL    HW2 3107  10.744   0.956   2.904
  445SOL     OW 3108  13.675   3.754   8.800
  445SOL    HW1 3109  13.675   3.717   8.888
  445SOL    HW2 3110  13.600   3.814   8.799
  446SOL     OW 3111   6.980   1.274  13.888
  446SOL    HW1 3112   6.907   1.335  13.890
  446SOL    HW2 3113   7.052   1.321  13.929
  447SOL     OW 3114   8.976  11.654  12.696
  447SOL    HW1 3115   9.048  11.699  12.652
  447SOL    HW2 3116   8.897  11.698  12.664
  448SOL     OW 3117   8.441  11.416  12.760
  448SOL    HW1 3118   8.459  11.329  12.725
  448SOL    HW2 3119   8.371  11.403  12.824
  449SOL     OW 3120   2.569   0.102   0.815
  449SOL    HW1 3121   2.587   0.196   0.814
  449SOL    HW2 3122   2.597   0.071   0.729
  450SOL     OW 3123   0.303   2.543   3.060
  450SOL    HW1 3124   0.394   2.551   3.087
  450SOL    HW2 3125   0.274   2.634   3.046
  451SOL     OW 3126  11.084  10.517   8.969
  451SOL    HW1 3127  11.113  10.515   8.878
  451SOL    HW2 3128  11.131  10.444   9.010
  452SOL     OW 3129   3.328   9.894   8.192
  452SOL    HW1 3130   3.404   9.945   8.218
  452SOL    HW2 3131   3.364   9.815   8.151
  453SOL     OW 3132  12.960   1.617   2.191
  453SOL    HW1 3133  12.878   1.609   2.240
  453SOL    HW2 3134  12.940   1.674   2.118
  454SOL     OW 3135  13.197  14.085   4.022
  454SOL    HW1 3136  13.157  14.034   4.093
  454SOL    HW2 3137  13.146  14.166   4.019
  455SOL     OW 3138   2.134   6.338   1.974
  455SOL    HW1 3139   2.042   6.364   1.972
  455SOL    HW2 3140   2.133   6.247   1.944
  456SOL     OW 3141   3.328  13.856   6.627
  456SOL    HW1 3142   3.304  13.811   6.708
  456SOL    HW2 3143   3.347  13.785   6.565
  457SOL     OW 3144   7.998   7.939  14.078
  457SOL    HW1 3145   7.910   7.978  14.066
  457SOL    HW2 3146   7.982   7.845  14.081
  458SOL     OW 3147   4.791   2.769   8.694
  458SOL    HW1 3148   4.775   2.676   8.676
  458SOL    HW2 3149   4.822   2.804   8.610
  459SOL     OW 3150  10.376  13.876  12.367
  459SOL    HW1 3151  10.316  13.950  12.380
  459SOL    HW2 3152  10.392  13.874  12.273
  460SOL     OW 3153   2.845   8.869   8.645
  460SOL    HW1 3154   2.874   8.812   8.574
  460SOL    HW2 3155   2.805   8.944   8.602
  461SOL     OW 3156   0.575  10.766   4.636
  461SOL    HW1 3157   0.558  10.672   4.638
  461SOL    HW2 3158   0.489  10.806   4.652
  462SOL     OW 3159  10.683  11.966   7.279
  462SOL    HW1 3160  10.712  12.048   7.238
  462SOL    HW2 3161  10.761  11.910   7.276
  463SOL     OW 3162   8.771   4.506   3.569
  463SOL    HW1 3163   8.697   4.476   3.622
  463SOL    HW2 3164   8.799   4.588   3.610
  464SOL     OW 3165  13.436   5.757   7.861
  464SOL    HW1 3166  13.346   5.728   7.873
  464SOL    HW2 3167  13.478   5.742   7.945
  465SOL     OW 3168   7.144   8.250  14.482
  465SOL    HW1 3169   7.054   8.233  14.455
  465SOL    HW2 3170   7.137   8.323  14.543
  466SOL     OW 3171   2.522  13.528   1.464
  466SOL    HW1 3172   2.612  13.556   1.450
  466SOL    HW2 3173   2.528  13.465   1.537
  467SOL     OW 3174   7.247   7.814  13.294
  467SOL    HW1 3175   7.287   7.830  13.379
  467SOL    HW2 3176   7.313   7.765  13.245
  468SOL     OW 3177   7.466   1.507   7.156
  468SOL    HW1 3178   7.411   1.469   7.224
  468SOL    HW2 3179   7.404   1.531   7.086
  469SOL     OW 3180  14.717   9.695   9.945
  469SOL    HW1 3181  14.683   9.605   9.947
  469SOL    HW2 3182  14.811   9.685   9.929
  470SOL     OW 3183   5.744   1.656   8.218
  470SOL    HW1 3184   5.801   1.599   8.270
  470SOL    HW2 3185   5.706   1.716   8.282
  471SOL     OW 3186  13.250   4.653   4.649
  471SOL    HW1 3187  13.184   4.691   4.707
  471SOL    HW2 3188  13.310   4.725   4.630
  472SOL     OW 3189   5.474   8.501   5.722
  472SOL    HW1 3190   5.534   8.537   5.657
  472SOL    HW2 3191   5.477   8.407   5.708
  473SOL     OW 3192   3.417  10.833   2.472
  473SOL    HW1 3193   3.333  10.865   2.504
  473SOL    HW2 3194   3.417  10.739   2.493
  474SOL     OW 3195   1.416   1.807  11.685
  474SOL    HW1 3196   1.462   1.741  11.736
  474SOL    HW2 3197   1.454   1.890  11.714
  475SOL     OW 3198  12.834  13.796  10.820
  475SOL    HW1 3199  12.777  13.733  10.776
  475SOL    HW2 3200  12.793  13.812  10.904
  476SOL     OW 3201   6.987   7.924   5.493
  476SOL    HW1 3202   6.895   7.945   5.481
  476SOL    HW2 3203   7.019   7.905   5.404
  477SOL     OW 3204  14.813  11.351   2.171
  477SOL    HW1 3205  14.775  11.317   2.090
  477SOL    HW2 3206  14.811  11.446   2.161
  478SOL     OW 3207   8.549   8.033   3.996
  478SOL    HW1 3208   8.605   8.094   3.948
  478SOL    HW2 3209   8.463   8.073   3.995
  479SOL     OW 3210  12.536   8.261   7.139
  479SOL    HW1 3211  12.527   8.216   7.223
  479SOL    HW2 3212  12.554   8.191   7.076
  480SOL     OW 3213   1.444  11.431  13.743
  480SOL    HW1 3214   1.503  11.390  13.679
  480SOL    HW2 3215   1.499  11.492  13.791
  481SOL     OW 3216  11.602   2.493   5.646
  481SOL    HW1 3217  11.537   2.507   5.714
  481SOL    HW2 3218  11.642   2.580   5.632
  482SOL     OW 3219  13.105   2.309   5.991
  482SOL    HW1 3220  13.019   2.337   6.023
  482SOL    HW2 3221  13.147   2.390   5.963
  483SOL     OW 3222   8.904   1.999   5.534
  483SOL    HW1 3223   8.814   2.015   5.564
  483SOL    HW2 3224   8.956   2.064   5.581
  484SOL     OW 3225   4.854   4.341   8.035
  484SOL    HW1 3226   4.832   4.318   8.125
  484SOL    HW2 3227   4.796   4.415   8.015
  485SOL     OW 3228   1.339  11.441   7.191
  485SOL    HW1 3229   1.361  11.523   7.237
  485SOL    HW2 3230   1.255  11.415   7.227
  486SOL     OW 3231   8.108   6.539   7.477
  486SOL    HW1 3232   8.119   6.556   7.571
  486SOL    HW2 3233   8.108   6.444   7.470
  487SOL     OW 3234  13.860  12.555   0.953
  487SOL    HW1 3235  13.859  12.645   0.921
  487SOL    HW2 3236  13.931  12.513   0.904
  488SOL     OW 3237   7.018  11.131  14.041
  488SOL    HW1 3238   7.110  11.143  14.065
  488SOL    HW2 3239   7.004  11.036  14.045
  489SOL     OW 3240  12.041  12.648   9.468
  489SOL    HW1 3241  12.114  12.587   9.455
  489SOL    HW2 3242  11.986  12.605   9.533
  490SOL     OW 3243  12.388   8.137   2.201
  490SOL    HW1 3244  12.348   8.149   2.115
  490SOL    HW2 3245  12.482   8.135   2.184
  491SOL     OW 3246  10.785   0.589  11.069
  491SOL    HW1 3247  10.875   0.615  11.049
  491SOL    HW2 3248  10.731   0.639  11.007
  492SOL     OW 3249   3.263  12.595   9.149
  492SOL    HW1 3250   3.276  12.524   9.211
  492SOL    HW2 3251   3.327  12.662   9.175
  493SOL     OW 3252  12.880   3.618  11.174
  493SOL    HW1 3253  12.871   3.714  11.169
  493SOL    HW2 3254  12.791   3.585  11.164
  494SOL     OW 3255  14.002   9.964   2.602
  494SOL    HW1 3256  13.983   9.873   2.580
  494SOL    HW2 3257  14.074   9.960   2.664
  495SOL     OW 3258   8.888   2.199   5.930
  495SOL    HW1 3259   8.882   2.151   6.013
  495SOL    HW2 3260   8.970   2.170   5.891
  496SOL     OW 3261  10.904   2.957  11.043
  496SOL    HW1 3262  10.819   2.933  11.006
  496SOL    HW2 3263  10.890   2.954  11.138
  497SOL     OW 3264   7.894   6.373  14.590
  497SOL    HW1 3265   7.832   6.312  14.630
  497SOL    HW2 3266   7.865   6.381  14.499
  498SOL     OW 3267   7.238   3.361  12.252
  498SOL    HW1 3268   7.208   3.304  12.181
  498SOL    HW2 3269   7.329   3.332  12.268
  499SOL     OW 3270   0.380  14.496   0.995
  499SOL    HW1 3271   0.424  14.471   0.913
  499SOL    HW2 3272   0.297  14.534   0.967
  500SOL     OW 3273  11.372   6.901   6.542
  500SOL    HW1 3274  11.428   6.922   6.616
  500SOL    HW2 3275  11.380   6.977   6.484
  501SOL     OW 3276   6.712   4.806   6.441
  501SOL    HW1 3277   6.793   4.806   6.493
  501SOL    HW2 3278   6.739   4.775   6.355
  502SOL     OW 3279  12.791   4.925  12.912
  502SOL    HW1 3280  12.818   4.837  12.884
  502SOL    HW2 3281  12.834   4.937  12.997
  503SOL     OW 3282  10.702  13.777   9.436
  503SOL    HW1 3283  10.768  13.731   9.488
  503SOL    HW2 3284  10.721  13.870   9.449
  504SOL     OW 3285  11.009  10.461   2.326
  504SOL    HW1 3286  11.027  10.525   2.256
  504SOL    HW2 3287  10.945  10.505   2.382
  505SOL     OW 3288   4.219   0.419   8.569
  505SOL    HW1 3289   4.257   0.448   8.652
  505SOL    HW2 3290   4.124   0.426   8.582
  506SOL     OW 3291   9.990   8.174  12.668
  506SOL    HW1 3292  10.041   8.096  12.690
  506SOL    HW2 3293  10.044   8.220  12.604
  507SOL     OW 3294   8.218   7.538   8.789
  507SOL    HW1 3295   8.199   7.581   8.705
  507SOL    HW2 3296   8.268   7.460   8.766
  508SOL     OW 3297  12.601   2.336   6.913
  508SOL    HW1 3298  12.586   2.410   6.972
  508SOL    HW2 3299  12.555   2.360   6.833
  509SOL     OW 3300   9.179   5.296   7.726
  509SOL    HW1 3301   9.251   5.311   7.665
  509SOL    HW2 3302   9.142   5.212   7.700
  510SOL     OW 3303  12.762   0.014  11.691
  510SOL    HW1 3304  12.826   0.075  11.727
  510SOL    HW2 3305  12.814  14.817  11.662
  511SOL     OW 3306  12.656  12.674   4.262
  511SOL    HW1 3307  12.599  12.629   4.199
  511SOL    HW2 3308  12.600  12.743   4.299
  512SOL     OW 3309   7.441  14.433   7.684
  512SOL    HW1 3310   7.412  14.343   7.666
  512SOL    HW2 3311   7.454  14.472   7.598
  513SOL     OW 3312  11.541   4.688  13.931
  513SOL    HW1 3313  11.630   4.725  13.937
  513SOL    HW2 3314  11.527   4.648  14.017
  514SOL     OW 3315  12.506  11.946   7.122
  514SOL    HW1 3316  12.475  11.909   7.040
  514SOL    HW2 3317  12.593  11.980   7.102
  515SOL     OW 3318  10.690   1.250   6.175
  515SOL    HW1 3319  10.610   1.204   6.200
  515SOL    HW2 3320  10.682   1.264   6.081
  516SOL     OW 3321  13.600  11.339   5.766
  516SOL    HW1 3322  13.690  11.309   5.778
  516SOL    HW2 3323  13.547  11.259   5.775
  517SOL     OW 3324  11.329   0.460   0.046
  517SOL    HW1 3325  11.246   0.494   0.013
  517SOL    HW2 3326  11.360   0.528   0.106
  518SOL     OW 3327   1.875  14.592   6.920
  518SOL    HW1 3328   1.892  14.631   6.834
  518SOL    HW2 3329   1.859  14.667   6.977
  519SOL     OW 3330  13.084   4.962  10.520
  519SOL    HW1 3331  13.013   4.925  10.572
  519SOL    HW2 3332  13.076   4.920  10.435
  520SOL     OW 3333  11.762   2.056   1.079
  520SOL    HW1 3334  11.704   2.013   1.016
  520SOL    HW2 3335  11.817   1.986   1.113
  521SOL     OW 3336   4.744   4.281   4.292
  521SOL    HW1 3337   4.748   4.185   4.285
  521SOL    HW2 3338   4.730   4.311   4.202
  522SOL     OW 3339   6.850   6.882   4.040
  522SOL    HW1 3340   6.918   6.947   4.049
  522SOL    HW2 3341   6.772   6.931   4.014
  523SOL     OW 3342   1.349   4.998   4.607
  523SOL    HW1 3343   1.358   4.909   4.572
  523SOL    HW2 3344   1.409   5.050   4.554
  524SOL     OW 3345  13.667  12.758   6.183
  524SOL    HW1 3346  13.736  12.824   6.178
  524SOL    HW2 3347  13.624  12.774   6.267
  525SOL     OW 3348  14.169   2.140  11.772
  525SOL    HW1 3349  14.191   2.057  11.730
  525SOL    HW2 3350  14.081   2.126  11.808
  526SOL     OW 3351   8.050  12.972   7.498
  526SOL    HW1 3352   8.040  12.915   7.422
  526SOL    HW2 3353   8.042  12.912   7.573
  527SOL     OW 3354  13.710  12.157   8.248
  527SOL    HW1 3355  13.687  12.075   8.205
  527SOL    HW2 3356  13.736  12.216   8.177
  528SOL     OW 3357  14.489   6.244   5.183
  528SOL    HW1 3358  14.522   6.290   5.106
  528SOL    HW2 3359  14.440   6.170   5.148
  529SOL     OW 3360   2.567   4.858   0.301
  529SOL    HW1 3361   2.518   4.914   0.240
  529SOL    HW2 3362   2.605   4.791   0.245
  530SOL     OW 3363   8.413   4.352  13.246
  530SOL    HW1 3364   8.332   4.305  13.267
  530SOL    HW2 3365   8.474   4.325  13.314
  531SOL     OW 3366   1.054   6.447  12.718
  531SOL    HW1 3367   1.107   6.524  12.694
  531SOL    HW2 3368   0.964   6.472  12.697
  532SOL     OW 3369  12.367  11.253   2.843
  532SOL    HW1 3370  12.405  11.333   2.880
  532SOL    HW2 3371  12.423  11.231   2.769
  533SOL     OW 3372  13.479   6.753  11.179
  533SOL    HW1 3373  13.384   6.750  11.190
  533SOL    HW2 3374  13.492   6.748  11.084
  534SOL     OW 3375   6.748  10.545   3.350
  534SOL    HW1 3376   6.813  10.614   3.337
  534SOL    HW2 3377   6.795  10.478   3.399
  535SOL     OW 3378   0.224   4.342  14.470
  535SOL    HW1 3379   0.316   4.347  14.493
  535SOL    HW2 3380   0.196   4.433  14.463
  536SOL     OW 3381   5.915   5.608  11.687
  536SOL    HW1 3382   5.848   5.581  11.625
  536SOL    HW2 3383   5.993   5.557  11.662
  537SOL     OW 3384   4.785   5.081  12.770
  537SOL    HW1 3385   4.849   5.132  12.720
  537SOL    HW2 3386   4.780   5.126  12.855
  538SOL     OW 3387   7.989   0.201   3.146
  538SOL    HW1 3388   7.947   0.117   3.160
  538SOL    HW2 3389   7.954   0.232   3.063
  539SOL     OW 3390  11.495   7.424  11.226
  539SOL    HW1 3391  11.539   7.377  11.155
  539SOL    HW2 3392  11.500   7.364  11.301
  540SOL     OW 3393   5.183   5.877  11.776
  540SOL    HW1 3394   5.206   5.959  11.819
  540SOL    HW2 3395   5.160   5.903  11.687
  541SOL     OW 3396  10.023  11.204  12.811
  541SOL    HW1 3397   9.971  11.268  12.762
  541SOL    HW2 3398   9.978  11.197  12.896
  542SOL     OW 3399  11.543   8.463   7.006
  542SOL    HW1 3400  11.564   8.411   7.084
  542SOL    HW2 3401  11.452   8.490   7.019
  543SOL     OW 3402   9.880   2.461  11.439
  543SOL    HW1 3403   9.787   2.483  11.451
  543SOL    HW2 3404   9.925   2.505  11.511
  544SOL     OW 3405   5.789   1.041   0.412
  544SOL    HW1 3406   5.804   0.957   0.369
  544SOL    HW2 3407   5.866   1.093   0.389
  545SOL     OW 3408  13.521  12.038   2.733
  545SOL    HW1 3409  13.514  12.073   2.822
  545SOL    HW2 3410  13.574  11.959   2.743
  546SOL     OW 3411   9.273   4.934   7.229
  546SOL    HW1 3412   9.344   4.949   7.167
  546SOL    HW2 3413   9.207   4.886   7.178
  547SOL     OW 3414  13.513  12.340   0.895
  547SOL    HW1 3415  13.595  12.292   0.908
  547SOL    HW2 3416  13.526  12.424   0.939
  548SOL     OW 3417   1.080   2.079   6.828
  548SOL    HW1 3418   1.155   2.114   6.780
  548SOL    HW2 3419   1.116   2.007   6.879
  549SOL     OW 3420   4.806   6.401   6.268
  549SOL    HW1 3421   4.714   6.423   6.281
  549SOL    HW2 3422   4.852   6.484   6.277
  550SOL     OW 3423   6.515  14.359  11.318
  550SOL    HW1 3424   6.426  14.351  11.353
  550SOL    HW2 3425   6.505  14.414  11.240
  551SOL     OW 3426   5.907  12.970   6.255
  551SOL    HW1 3427   5.997  13.000   6.241
  551SOL    HW2 3428   5.898  12.891   6.203
  552SOL     OW 3429   6.382   9.127   8.372
  552SOL    HW1 3430   6.366   9.033   8.369
  552SOL    HW2 3431   6.331   9.158   8.447
  553SOL     OW 3432   3.762   5.614  12.248
  553SOL    HW1 3433   3.775   5.530  12.205
  553SOL    HW2 3434   3.848   5.657  12.244
  554SOL     OW 3435   5.309  13.046   3.172
  554SOL    HW1 3436   5.351  13.100   3.239
  554SOL    HW2 3437   5.299  12.960   3.213
  555SOL     OW 3438   0.565  10.884   2.872
  555SOL    HW1 3439   0.616  10.876   2.792
  555SOL    HW2 3440   0.508  10.959   2.857
  556SOL     OW 3441   3.001   0.695   3.737
  556SOL    HW1 3442   2.990   0.611   3.694
  556SOL    HW2 3443   2.976   0.760   3.671
  557SOL     OW 3444   6.949   6.903  14.615
  557SOL    HW1 3445   6.854   6.894  14.617
  557SOL    HW2 3446   6.982   6.816  14.636
  558SOL     OW 3447  10.960  10.002   7.733
  558SOL    HW1 3448  11.019   9.979   7.805
  558SOL    HW2 3449  10.905  10.073   7.769
  559SOL     OW 3450   3.711  12.558   7.745
  559SOL    HW1 3451   3.661  12.634   7.774
  559SOL    HW2 3452   3.697  12.493   7.813
  560SOL     OW 3453   6.088  12.093   6.407
  560SOL    HW1 3454   6.165  12.147   6.392
  560SOL    HW2 3455   6.017  12.140   6.365
  561SOL     OW 3456   8.924   8.111  10.196
  561SOL    HW1 3457   8.997   8.049  10.192
  561SOL    HW2 3458   8.932   8.162  10.116
  562SOL     OW 3459  14.670  14.638  11.790
  562SOL    HW1 3460  14.692  14.659  11.881
  562SOL    HW2 3461  14.682  14.544  11.783
  563SOL     OW 3462  11.597   7.535  10.910
  563SOL    HW1 3463  11.554   7.449  10.907
  563SOL    HW2 3464  11.525   7.598  10.909
  564SOL     OW 3465  11.429  11.476   0.689
  564SOL    HW1 3466  11.379  11.398   0.662
  564SOL    HW2 3467  11.364  11.546   0.693
  565SOL     OW 3468   2.626  14.661  10.727
  565SOL    HW1 3469   2.710  14.636  10.688
  565SOL    HW2 3470   2.566  14.591  10.700
  566SOL     OW 3471   5.641   0.141  12.212
  566SOL    HW1 3472   5.691   0.134  12.293
  566SOL    HW2 3473   5.550   0.128  12.239
  567SOL     OW 3474   3.323  12.661   8.263
  567SOL    HW1 3475   3.292  12.644   8.174
  567SOL    HW2 3476   3.255  12.625   8.320
  568SOL     OW 3477   7.288  12.147  13.837
  568SOL    HW1 3478   7.344  12.085  13.791
  568SOL    HW2 3479   7.199  12.125  13.809
  569SOL     OW 3480  11.199   1.525   2.084
  569SOL    HW1 3481  11.122   1.469   2.091
  569SOL    HW2 3482  11.272   1.464   2.067
  570SOL     OW 3483   7.189   4.548   9.176
  570SOL    HW1 3484   7.204   4.500   9.257
  570SOL    HW2 3485   7.258   4.517   9.117
  571SOL     OW 3486   5.058   6.293   6.179
  571SOL    HW1 3487   4.968   6.325   6.188
  571SOL    HW2 3488   5.089   6.331   6.097
  572SOL     OW 3489   6.302   0.844   3.400
  572SOL    HW1 3490   6.383   0.795   3.387
  572SOL    HW2 3491   6.305   0.873   3.491
  573SOL     OW 3492   6.126   0.341   3.541
  573SOL    HW1 3493   6.169   0.381   3.466
  573SOL    HW2 3494   6.097   0.415   3.594
  574SOL     OW 3495   7.568   4.567   0.543
  574SOL    HW1 3496   7.594   4.479   0.514
  574SOL    HW2 3497   7.589   4.569   0.636
  575SOL     OW 3498   1.422   7.868   3.895
  575SOL    HW1 3499   1.338   7.909   3.918
  575SOL    HW2 3500   1.450   7.914   3.816
  576SOL     OW 3501  10.962   7.314   5.550
  576SOL    HW1 3502  10.998   7.335   5.636
  576SOL    HW2 3503  10.872   7.287   5.568
  577SOL     OW 3504  11.615  11.139   1.602
  577SOL    HW1 3505  11.565  11.213   1.637
  577SOL    HW2 3506  11.635  11.085   1.678
  578SOL     OW 3507  10.134   7.239  11.763
  578SOL    HW1 3508  10.075   7.166  11.740
  578SOL    HW2 3509  10.111   7.308  11.700
  579SOL     OW 3510   7.226   0.859   5.207
  579SOL    HW1 3511   7.163   0.792   5.233
  579SOL    HW2 3512   7.216   0.929   5.272
  580SOL     OW 3513   8.436  13.751   7.464
  580SOL    HW1 3514   8.495  13.741   7.539
  580SOL    HW2 3515   8.356  13.705   7.489
  581SOL     OW 3516  13.053  12.958  11.230
  581SOL    HW1 3517  13.010  12.947  11.315
  581SOL    HW2 3518  13.017  13.040  11.196
  582SOL     OW 3519   5.018   0.721   1.870
  582SOL    HW1 3520   5.035   0.760   1.956
  582SOL    HW2 3521   5.057   0.634   1.875
  583SOL     OW 3522   3.989  13.157  12.676
  583SOL    HW1 3523   3.937  13.104  12.615
  583SOL    HW2 3524   4.074  13.112  12.680
  584SOL     OW 3525   9.819   0.798  14.738
  584SOL    HW1 3526   9.786   0.714  14.704
  584SOL    HW2 3527   9.789   0.862  14.674
  585SOL     OW 3528   5.830   3.942  12.656
  585SOL    HW1 3529   5.904   3.981  12.609
  585SOL    HW2 3530   5.868   3.907  12.736
  586SOL     OW 3531   5.912   1.350   9.881
  586SOL    HW1 3532   5.891   1.273   9.935
  586SOL    HW2 3533   5.958   1.314   9.805
  587SOL     OW 3534   8.682  11.432  11.152
  587SOL    HW1 3535   8.758  11.417  11.208
  587SOL    HW2 3536   8.665  11.348  11.111
  588SOL     OW 3537   3.513  14.713   2.527
  588SOL    HW1 3538   3.428  14.669   2.526
  588SOL    HW2 3539   3.539  14.715   2.619
  589SOL     OW 3540   9.017  12.501   7.817
  589SOL    HW1 3541   8.973  12.432   7.769
  589SOL    HW2 3542   9.079  12.456   7.874
  590SOL     OW 3543   4.710  10.629   5.390
  590SOL    HW1 3544   4.697  10.568   5.317
  590SOL    HW2 3545   4.662  10.708   5.363
  591SOL     OW 3546  10.133  12.414  14.442
  591SOL    HW1 3547  10.074  12.343  14.466
  591SOL    HW2 3548  10.211  12.370  14.407
  592SOL     OW 3549  13.129  12.953  13.860
  592SOL    HW1 3550  13.218  12.940  13.893
  592SOL    HW2 3551  13.140  13.011  13.784
  593SOL     OW 3552   5.493   5.165   2.853
  593SOL    HW1 3553   5.482   5.174   2.759
  593SOL    HW2 3554   5.482   5.253   2.888
  594SOL     OW 3555   6.465   0.232   2.573
  594SOL    HW1 3556   6.415   0.306   2.537
  594SOL    HW2 3557   6.468   0.169   2.501
  595SOL     OW 3558   3.311  12.229   1.289
  595SOL    HW1 3559   3.319  12.241   1.384
  595SOL    HW2 3560   3.394  12.191   1.262
  596SOL     OW 3561   5.681   9.368  11.805
  596SOL    HW1 3562   5.744   9.296  11.792
  596SOL    HW2 3563   5.624   9.337  11.875
  597SOL     OW 3564   5.617   9.941   2.587
  597SOL    HW1 3565   5.559  10.018   2.586
  597SOL    HW2 3566   5.594   9.893   2.507
  598SOL     OW 3567   9.202   3.694   3.195
  598SOL    HW1 3568   9.232   3.604   3.183
  598SOL    HW2 3569   9.268   3.747   3.153
  599SOL     OW 3570   4.030   9.884   5.498
  599SOL    HW1 3571   4.071   9.798   5.486
  599SOL    HW2 3572   4.068   9.939   5.429
  600SOL     OW 3573  13.263  14.053  11.824
  600SOL    HW1 3574  13.286  14.088  11.910
  600SOL    HW2 3575  13.347  14.047  11.778
  601SOL     OW 3576  13.619   4.750  13.702
  601SOL    HW1 3577  13.645   4.715  13.787
  601SOL    HW2 3578  13.702   4.768  13.658
  602SOL     OW 3579   9.443  10.786   4.811
  602SOL    HW1 3580   9.472  10.836   4.887
  602SOL    HW2 3581   9.351  10.810   4.801
  603SOL     OW 3582   3.863  10.535   4.922
  603SOL    HW1 3583   3.847  10.482   5.000
  603SOL    HW2 3584   3.958  10.539   4.914
  604SOL     OW 3585   2.960   7.661   3.192
  604SOL    HW1 3586   2.968   7.700   3.105
  604SOL    HW2 3587   3.048   7.666   3.229
  605SOL     OW 3588  12.065   6.236   1.865
  605SOL    HW1 3589  12.108   6.290   1.931
  605SOL    HW2 3590  12.024   6.165   1.914
  606SOL     OW 3591  13.716  11.880   4.686
  606SOL    HW1 3592  13.723  11.886   4.591
  606SOL    HW2 3593  13.626  11.908   4.705
  607SOL     OW 3594  14.350  10.966   3.393
  607SOL    HW1 3595  14.358  11.061   3.402
  607SOL    HW2 3596  14.258  10.953   3.370
  608SOL     OW 3597   4.397   1.003   8.311
  608SOL    HW1 3598   4.392   1.099   8.319
  608SOL    HW2 3599   4.319   0.971   8.356
  609SOL     OW 3600   2.923   3.129   6.664
  609SOL    HW1 3601   3.010   3.094   6.686
  609SOL    HW2 3602   2.939   3.222   6.646
  610SOL     OW 3603  13.763  14.348   2.360
  610SOL    HW1 3604  13.677  14.312   2.338
  610SOL    HW2 3605  13.825  14.285   2.323
  611SOL     OW 3606  14.592   7.505   4.029
  611SOL    HW1 3607  14.534   7.498   4.105
  611SOL    HW2 3608  14.680   7.510   4.065
  612SOL     OW 3609   5.651   5.165   5.771
  612SOL    HW1 3610   5.743   5.143   5.786
  612SOL    HW2 3611   5.606   5.081   5.767
  613SOL     OW 3612   2.766   4.568   6.970
  613SOL    HW1 3613   2.839   4.609   6.922
  613SOL    HW2 3614   2.707   4.641   6.991
  614SOL     OW 3615   6.504  10.552   9.204
  614SOL    HW1 3616   6.577  10.568   9.143
  614SOL    HW2 3617   6.440  10.619   9.183
  615SOL     OW 3618   5.479   5.930   0.380
  615SOL    HW1 3619   5.458   5.846   0.338
  615SOL    HW2 3620   5.394   5.972   0.391
  616SOL     OW 3621  13.696   0.597  10.256
  616SOL    HW1 3622  13.689   0.642  10.171
  616SOL    HW2 3623  13.716   0.667  10.318
  617SOL     OW 3624   1.117  11.796  10.040
  617SOL    HW1 3625   1.025  11.805  10.063
  617SOL    HW2 3626   1.165  11.830  10.116
  618SOL     OW 3627   0.725  13.255  10.050
  618SOL    HW1 3628   0.670  13.191  10.094
  618SOL    HW2 3629   0.810  13.246  10.092
  619SOL     OW 3630  12.293   6.978   5.791
  619SOL    HW1 3631  12.317   6.963   5.699
  619SOL    HW2 3632  12.233   6.907   5.812
  620SOL     OW 3633   4.750   7.254   7.617
  620SOL    HW1 3634   4.739   7.323   7.552
  620SOL    HW2 3635   4.682   7.189   7.596
  621SOL     OW 3636   0.763   6.910  14.424
  621SOL    HW1 3637   0.706   6.850  14.473
  621SOL    HW2 3638   0.835   6.929  14.485
  622SOL     OW 3639   3.816   0.668  13.894
  622SOL    HW1 3640   3.841   0.644  13.983
  622SOL    HW2 3641   3.728   0.631  13.882
  623SOL     OW 3642   6.832   9.479  12.636
  623SOL    HW1 3643   6.737   9.486  12.634
  623SOL    HW2 3644   6.850   9.388  12.613
  624SOL     OW 3645   0.836   7.676   0.512
  624SOL    HW1 3646   0.926   7.695   0.540
  624SOL    HW2 3647   0.844   7.658   0.419
  625SOL     OW 3648  11.714   9.387  11.517
  625SOL    HW1 3649  11.736   9.449  11.447
  625SOL    HW2 3650  11.706   9.302  11.473
  626SOL     OW 3651   5.181   8.157  14.654
  626SOL    HW1 3652   5.230   8.239  14.659
  626SOL    HW2 3653   5.208   8.107  14.731
  627SOL     OW 3654  12.632   9.418   8.610
  627SOL    HW1 3655  12.569   9.408   8.682
  627SOL    HW2 3656  12.578   9.438   8.534
  628SOL     OW 3657   7.767   3.179   1.267
  628SOL    HW1 3658   7.827   3.245   1.232
  628SOL    HW2 3659   7.823   3.124   1.323
  629SOL     OW 3660   3.366   4.880   5.030
  629SOL    HW1 3661   3.423   4.804   5.018
  629SOL    HW2 3662   3.427   4.955   5.033
  630SOL     OW 3663   5.066   9.160   3.001
  630SOL    HW1 3664   5.151   9.183   2.965
  630SOL    HW2 3665   5.051   9.224   3.072
  631SOL     OW 3666  12.332  12.038   8.285
  631SOL    HW1 3667  12.254  12.093   8.278
  631SOL    HW2 3668  12.330  12.005   8.375
  632SOL     OW 3669   5.297   6.363   9.955
  632SOL    HW1 3670   5.313   6.386  10.046
  632SOL    HW2 3671   5.215   6.409   9.933
  633SOL     OW 3672   9.568  11.791  10.341
  633SOL    HW1 3673   9.554  11.703  10.376
  633SOL    HW2 3674   9.630  11.778  10.269
  634SOL     OW 3675   2.580  14.052   0.433
  634SOL    HW1 3676   2.561  14.086   0.520
  634SOL    HW2 3677   2.620  13.966   0.449
  635SOL     OW 3678  12.259   6.449  12.983
  635SOL    HW1 3679  12.261   6.382  13.050
  635SOL    HW2 3680  12.166   6.457  12.960
  636SOL     OW 3681  11.478  13.158   6.927
  636SOL    HW1 3682  11.561  13.195   6.959
  636SOL    HW2 3683  11.431  13.131   7.006
  637SOL     OW 3684   9.657   2.848  12.304
  637SOL    HW1 3685   9.655   2.931  12.351
  637SOL    HW2 3686   9.707   2.789  12.361
  638SOL     OW 3687   3.475  11.708  13.101
  638SOL    HW1 3688   3.417  11.745  13.167
  638SOL    HW2 3689   3.439  11.738  13.017
  639SOL     OW 3690   0.024   6.394   1.224
  639SOL    HW1 3691   0.021   6.306   1.264
  639SOL    HW2 3692   0.111   6.427   1.247
  640SOL     OW 3693   0.940  11.504  13.225
  640SOL    HW1 3694   0.850  11.481  13.250
  640SOL    HW2 3695   0.933  11.593  13.190
  641SOL     OW 3696  12.520  13.423  12.356
  641SOL    HW1 3697  12.450  13.374  12.313
  641SOL    HW2 3698  12.480  13.458  12.435
  642SOL     OW 3699   2.147  10.251   3.520
  642SOL    HW1 3700   2.162  10.344   3.534
  642SOL    HW2 3701   2.200  10.230   3.443
  643SOL     OW 3702   3.365   3.144  13.078
  643SOL    HW1 3703   3.366   3.226  13.029
  643SOL    HW2 3704   3.430   3.155  13.147
  644SOL     OW 3705  13.169  11.387  13.590
  644SOL    HW1 3706  13.127  11.312  13.548
  644SOL    HW2 3707  13.262  11.378  13.567
  645SOL     OW 3708   6.623   2.480   7.690
  645SOL    HW1 3709   6.683   2.548   7.720
  645SOL    HW2 3710   6.549   2.527   7.652
  646SOL     OW 3711   2.664   4.430   3.021
  646SOL    HW1 3712   2.609   4.403   2.947
  646SOL    HW2 3713   2.625   4.388   3.097
  647SOL     OW 3714   1.484   5.459   6.267
  647SOL    HW1 3715   1.458   5.551   6.261
  647SOL    HW2 3716   1.494   5.431   6.176
  648SOL     OW 3717  13.596  13.625   8.879
  648SOL    HW1 3718  13.549  13.651   8.800
  648SOL    HW2 3719  13.569  13.688   8.945
  649SOL     OW 3720   4.518   8.722  12.134
  649SOL    HW1 3721   4.450   8.786  12.112
  649SOL    HW2 3722   4.482   8.673  12.208
  650SOL     OW 3723   8.386  12.759   8.610
  650SOL    HW1 3724   8.340  12.688   8.655
  650SOL    HW2 3725   8.354  12.839   8.653
  651SOL     OW 3726   1.180   6.673  12.664
  651SOL    HW1 3727   1.253   6.688  12.725
  651SOL    HW2 3728   1.162   6.760  12.627
  652SOL     OW 3729   5.244  11.309  13.330
  652SOL    HW1 3730   5.318  11.359  13.296
  652SOL    HW2 3731   5.167  11.348  13.287
  653SOL     OW 3732   2.246   7.802   5.754
  653SOL    HW1 3733   2.315   7.736   5.764
  653SOL    HW2 3734   2.165   7.751   5.747
  654SOL     OW 3735  12.165   5.650  10.677
  654SOL    HW1 3736  12.249   5.691  10.699
  654SOL    HW2 3737  12.151   5.586  10.747
  655SOL     OW 3738  11.326   6.677   1.920
  655SOL    HW1 3739  11.356   6.767   1.904
  655SOL    HW2 3740  11.405   6.630   1.947
  656SOL     OW 3741   4.636   4.183   1.579
  656SOL    HW1 3742   4.717   4.224   1.610
  656SOL    HW2 3743   4.574   4.256   1.573
  657SOL     OW 3744   9.403  14.152   9.962
  657SOL    HW1 3745   9.385  14.127  10.052
  657SOL    HW2 3746   9.402  14.069   9.913
  658SOL     OW 3747   7.751  11.952   2.030
  658SOL    HW1 3748   7.795  11.945   2.115
  658SOL    HW2 3749   7.821  11.979   1.969
  659SOL     OW 3750   5.263   4.167   8.058
  659SOL    HW1 3751   5.299   4.149   8.145
  659SOL    HW2 3752   5.320   4.119   7.998
  660SOL     OW 3753  11.426   4.632   2.490
  660SOL    HW1 3754  11.469   4.697   2.546
  660SOL    HW2 3755  11.442   4.663   2.401
  661SOL     OW 3756  10.893  10.505   6.477
  661SOL    HW1 3757  10.969  10.556   6.451
  661SOL    HW2 3758  10.924  10.448   6.547
  662SOL     OW 3759   5.827   2.576  14.212
  662SOL    HW1 3760   5.910   2.598  14.254
  662SOL    HW2 3761   5.761   2.611  14.272
  663SOL     OW 3762  13.194   6.047  11.051
  663SOL    HW1 3763  13.190   6.081  11.140
  663SOL    HW2 3764  13.237   5.962  11.060
  664SOL     OW 3765  12.263   6.112   2.568
  664SOL    HW1 3766  12.226   6.193   2.533
  664SOL    HW2 3767  12.195   6.046   2.553
  665SOL     OW 3768   4.783  11.939   0.993
  665SOL    HW1 3769   4.771  11.853   0.952
  665SOL    HW2 3770   4.869  11.967   0.964
  666SOL     OW 3771  11.044   5.747   2.000
  666SOL    HW1 3772  11.095   5.791   1.932
  666SOL    HW2 3773  11.091   5.768   2.081
  667SOL     OW 3774   2.116   9.275  13.012
  667SOL    HW1 3775   2.119   9.196  12.958
  667SOL    HW2 3776   2.165   9.340  12.961
  668SOL     OW 3777   8.961   5.022   4.900
  668SOL    HW1 3778   8.969   4.927   4.894
  668SOL    HW2 3779   8.878   5.043   4.857
  669SOL     OW 3780  10.788   5.407   0.046
  669SOL    HW1 3781  10.766   5.325   0.091
  669SOL    HW2 3782  10.864   5.440   0.094
  670SOL     OW 3783  10.632   9.948   3.619
  670SOL    HW1 3784  10.640   9.902   3.703
  670SOL    HW2 3785  10.712   9.925   3.572
  671SOL     OW 3786  12.881   3.266   4.494
  671SOL    HW1 3787  12.928   3.182   4.494
  671SOL    HW2 3788  12.822   3.261   4.420
  672SOL     OW 3789   9.774  12.479   0.299
  672SOL    HW1 3790   9.758  12.510   0.210
  672SOL    HW2 3791   9.692  12.435   0.324
  673SOL     OW 3792   6.185   2.105   1.153
  673SOL    HW1 3793   6.129   2.151   1.089
  673SOL    HW2 3794   6.131   2.033   1.185
  674SOL     OW 3795   3.621  10.157   1.164
  674SOL    HW1 3796   3.655  10.068   1.152
  674SOL    HW2 3797   3.643  10.202   1.083
  675SOL     OW 3798  13.369   3.647   3.644
  675SOL    HW1 3799  13.427   3.715   3.677
  675SOL    HW2 3800  13.288   3.694   3.622
  676SOL     OW 3801   7.799   7.093   9.515
  676SOL    HW1 3802   7.843   7.167   9.558
  676SOL    HW2 3803   7.870   7.033   9.494
  677SOL     OW 3804   3.943  10.917  12.172
  677SOL    HW1 3805   4.038  10.910  12.181
  677SOL    HW2 3806   3.916  10.835  12.131
  678SOL     OW 3807   5.832   7.270   6.406
  678SOL    HW1 3808   5.893   7.326   6.358
  678SOL    HW2 3809   5.749   7.317   6.405
  679SOL     OW 3810  11.550   0.703   0.987
  679SOL    HW1 3811  11.565   0.755   0.908
  679SOL    HW2 3812  11.635   0.664   1.006
  680SOL     OW 3813   7.674   4.084   5.360
  680SOL    HW1 3814   7.769   4.073   5.370
  680SOL    HW2 3815   7.659   4.072   5.266
  681SOL     OW 3816   6.656   7.476   7.952
  681SOL    HW1 3817   6.627   7.495   7.863
  681SOL    HW2 3818   6.576   7.456   8.000
  682SOL     OW 3819  11.187   3.337   6.838
  682SOL    HW1 3820  11.136   3.269   6.881
  682SOL    HW2 3821  11.132   3.416   6.843
  683SOL     OW 3822  11.031  11.017   3.971
  683SOL    HW1 3823  11.055  11.107   3.949
  683SOL    HW2 3824  10.955  11.026   4.029
  684SOL     OW 3825   3.721   1.589   0.005
  684SOL    HW1 3826   3.725   1.637   0.088
  684SOL    HW2 3827   3.775   1.512   0.019
  685SOL     OW 3828   0.797   0.285   5.315
  685SOL    HW1 3829   0.854   0.228   5.263
  685SOL    HW2 3830   0.858   0.338   5.367
  686SOL     OW 3831   1.383   8.506   9.638
  686SOL    HW1 3832   1.446   8.491   9.567
  686SOL    HW2 3833   1.435   8.497   9.718
  687SOL     OW 3834  12.490   3.102   9.672
  687SOL    HW1 3835  12.535   3.022   9.702
  687SOL    HW2 3836  12.488   3.094   9.577
  688SOL     OW 3837  10.678   8.171   3.970
  688SOL    HW1 3838  10.698   8.228   3.896
  688SOL    HW2 3839  10.750   8.109   3.974
  689SOL     OW 3840   9.406   3.628  12.816
  689SOL    HW1 3841   9.315   3.599  12.805
  689SOL    HW2 3842   9.457   3.548  12.810
  690SOL     OW 3843  10.951  11.663   4.374
  690SOL    HW1 3844  10.876  11.632   4.425
  690SOL    HW2 3845  11.018  11.683   4.439
  691SOL     OW 3846   5.756  13.326   9.544
  691SOL    HW1 3847   5.805  13.244   9.536
  691SOL    HW2 3848   5.800  13.374   9.614
  692SOL     OW 3849   3.548   0.322   2.201
  692SOL    HW1 3850   3.562   0.270   2.122
  692SOL    HW2 3851   3.581   0.409   2.179
  693SOL     OW 3852   6.600  11.729   0.498
  693SOL    HW1 3853   6.613  11.747   0.405
  693SOL    HW2 3854   6.546  11.802   0.529
  694SOL     OW 3855  13.688  14.060   6.447
  694SOL    HW1 3856  13.747  14.055   6.523
  694SOL    HW2 3857  13.645  14.145   6.456
  695SOL     OW 3858   9.396   9.180   8.313
  695SOL    HW1 3859   9.381   9.213   8.224
  695SOL    HW2 3860   9.351   9.096   8.315
  696SOL     OW 3861  13.959   1.475   1.889
  696SOL    HW1 3862  14.053   1.488   1.883
  696SOL    HW2 3863  13.948   1.407   1.955
  697SOL     OW 3864   6.415  11.709  10.944
  697SOL    HW1 3865   6.439  11.645  11.010
  697SOL    HW2 3866   6.474  11.692  10.871
  698SOL     OW 3867   2.177  11.876  12.128
  698SOL    HW1 3868   2.261  11.850  12.168
  698SOL    HW2 3869   2.119  11.890  12.203
  699SOL     OW 3870  11.878   0.123  13.199
  699SOL    HW1 3871  11.939   0.056  13.170
  699SOL    HW2 3872  11.906   0.146  13.287
  700SOL     OW 3873   6.277   0.096   9.806
  700SOL    HW1 3874   6.308   0.011   9.776
  700SOL    HW2 3875   6.324   0.112   9.888
  701SOL     OW 3876   4.542  10.080   0.337
  701SOL    HW1 3877   4.629  10.043   0.356
  701SOL    HW2 3878   4.542  10.165   0.379
  702SOL     OW 3879  12.202   6.954  14.500
  702SOL    HW1 3880  12.163   6.989  14.580
  702SOL    HW2 3881  12.194   6.859  14.509
  703SOL     OW 3882   5.216  10.889  11.769
  703SOL    HW1 3883   5.307  10.880  11.796
  703SOL    HW2 3884   5.192  10.804  11.733
  704SOL     OW 3885  11.664   8.163   9.421
  704SOL    HW1 3886  11.738   8.138   9.365
  704SOL    HW2 3887  11.630   8.243   9.382
  705SOL     OW 3888   6.591   7.296  11.588
  705SOL    HW1 3889   6.618   7.211  11.555
  705SOL    HW2 3890   6.552   7.340  11.512
  706SOL     OW 3891  12.734  11.836   9.530
  706SOL    HW1 3892  12.771  11.773   9.592
  706SOL    HW2 3893  12.805  11.899   9.516
  707SOL     OW 3894  14.539   6.019  11.913
  707SOL    HW1 3895  14.552   6.114  11.909
  707SOL    HW2 3896  14.561   5.988  11.825
  708SOL     OW 3897   0.633  13.357   9.139
  708SOL    HW1 3898   0.613  13.415   9.212
  708SOL    HW2 3899   0.562  13.371   9.076
  709SOL     OW 3900   8.572   3.315   4.213
  709SOL    HW1 3901   8.512   3.387   4.194
  709SOL    HW2 3902   8.619   3.301   4.130
  710SOL     OW 3903  12.997   7.090   3.725
  710SOL    HW1 3904  12.996   7.027   3.796
  710SOL    HW2 3905  13.059   7.157   3.753
  711SOL     OW 3906   8.560  11.533   2.893
  711SOL    HW1 3907   8.606  11.450   2.896
  711SOL    HW2 3908   8.566  11.567   2.983
  712SOL     OW 3909  11.811   8.538   1.078
  712SOL    HW1 3910  11.789   8.527   0.985
  712SOL    HW2 3911  11.792   8.630   1.096
  713SOL     OW 3912  12.222   5.121  11.652
  713SOL    HW1 3913  12.134   5.135  11.617
  713SOL    HW2 3914  12.233   5.026  11.649
  714SOL     OW 3915   4.641   4.080   0.776
  714SOL    HW1 3916   4.662   4.056   0.685
  714SOL    HW2 3917   4.649   3.998   0.825
  715SOL     OW 3918  12.389  10.443   7.723
  715SOL    HW1 3919  12.371  10.518   7.665
  715SOL    HW2 3920  12.444  10.385   7.672
  716SOL     OW 3921  14.643   3.168  13.195
  716SOL    HW1 3922  14.645   3.097  13.130
  716SOL    HW2 3923  14.664   3.125  13.278
  717SOL     OW 3924   0.720   0.573   1.307
  717SOL    HW1 3925   0.702   0.531   1.223
  717SOL    HW2 3926   0.711   0.667   1.290
  718SOL     OW 3927   1.877  12.888  12.937
  718SOL    HW1 3928   1.859  12.976  12.904
  718SOL    HW2 3929   1.906  12.840  12.860
  719SOL     OW 3930   9.189   8.324   1.840
  719SOL    HW1 3931   9.178   8.405   1.792
  719SOL    HW2 3932   9.165   8.346   1.930
  720SOL     OW 3933   9.961   2.815   3.136
  720SOL    HW1 3934   9.994   2.768   3.060
  720SOL    HW2 3935  10.013   2.896   3.139
  721SOL     OW 3936  10.103   2.233  11.622
  721SOL    HW1 3937  10.148   2.205  11.542
  721SOL    HW2 3938  10.058   2.314  11.597
  722SOL     OW 3939  12.231  14.183   3.393
  722SOL    HW1 3940  12.286  14.230   3.330
  722SOL    HW2 3941  12.264  14.093   3.391
  723SOL     OW 3942   9.925   2.901  11.427
  723SOL    HW1 3943   9.899   2.825  11.375
  723SOL    HW2 3944  10.019   2.910  11.411
  724SOL     OW 3945   6.685  14.840   2.300
  724SOL    HW1 3946   6.742   0.006   2.236
  724SOL    HW2 3947   6.745  14.809   2.368
  725SOL     OW 3948  13.973  11.668  10.458
  725SOL    HW1 3949  13.923  11.746  10.484
  725SOL    HW2 3950  13.944  11.600  10.519
  726SOL     OW 3951  12.149  11.807   0.847
  726SOL    HW1 3952  12.116  11.751   0.777
  726SOL    HW2 3953  12.234  11.837   0.815
  727SOL     OW 3954   3.372  10.058  10.580
  727SOL    HW1 3955   3.442   9.996  10.557
  727SOL    HW2 3956   3.300  10.035  10.522
  728SOL     OW 3957   8.894   8.046  12.427
  728SOL    HW1 3958   8.862   8.134  12.406
  728SOL    HW2 3959   8.857   8.028  12.513
  729SOL     OW 3960  14.193   9.510  14.192
  729SOL    HW1 3961  14.213   9.603  14.192
  729SOL    HW2 3962  14.228   9.478  14.275
  730SOL     OW 3963  11.082   0.311   1.452
  730SOL    HW1 3964  11.021   0.363   1.503
  730SOL    HW2 3965  11.127   0.375   1.397
  731SOL     OW 3966   2.010   6.573  10.594
  731SOL    HW1 3967   1.936   6.527  10.556
  731SOL    HW2 3968   2.018   6.654  10.543
  732SOL     OW 3969   6.245  11.072   2.115
  732SOL    HW1 3970   6.284  11.084   2.029
  732SOL    HW2 3971   6.268  10.982   2.140
  733SOL     OW 3972   6.647  10.675  10.930
  733SOL    HW1 3973   6.740  10.671  10.950
  733SOL    HW2 3974   6.631  10.599  10.874
  734SOL     OW 3975   9.175   8.437  10.502
  734SOL    HW1 3976   9.080   8.427  10.493
  734SOL    HW2 3977   9.205   8.465  10.416
  735SOL     OW 3978   7.209   2.865   3.270
  735SOL    HW1 3979   7.262   2.819   3.205
  735SOL    HW2 3980   7.265   2.935   3.302
  736SOL     OW 3981  14.064   7.727  11.862
  736SOL    HW1 3982  14.152   7.689  11.858
  736SOL    HW2 3983  14.028   7.713  11.775
  737SOL     OW 3984   6.844   0.985   4.687
  737SOL    HW1 3985   6.793   1.053   4.732
  737SOL    HW2 3986   6.799   0.903   4.707
  738SOL     OW 3987  14.254   8.115   4.389
  738SOL    HW1 3988  14.201   8.124   4.309
  738SOL    HW2 3989  14.208   8.169   4.453
  739SOL     OW 3990  10.436  10.505  12.060
  739SOL    HW1 3991  10.389  10.521  12.142
  739SOL    HW2 3992  10.523  10.478  12.087
  740SOL     OW 3993   6.001   2.773   7.348
  740SOL    HW1 3994   5.940   2.699   7.340
  740SOL    HW2 3995   6.023   2.796   7.258
  741SOL     OW 3996   0.359   1.854   8.353
  741SOL    HW1 3997   0.325   1.943   8.359
  741SOL    HW2 3998   0.318   1.807   8.426
  742SOL     OW 3999   2.936   5.624   4.592
  742SOL    HW1 4000   2.960   5.532   4.587
  742SOL    HW2 4001   3.016   5.671   4.569
  743SOL     OW 4002   0.462   4.271   5.924
  743SOL    HW1 4003   0.471   4.335   5.854
  743SOL    HW2 4004   0.463   4.322   6.005
  744SOL     OW 4005   8.358  13.900   3.588
  744SOL    HW1 4006   8.357  13.944   3.673
  744SOL    HW2 4007   8.429  13.941   3.540
  745SOL     OW 4008  13.035   1.118   1.966
  745SOL    HW1 4009  13.128   1.141   1.971
  745SOL    HW2 4010  12.994   1.169   2.036
  746SOL     OW 4011  11.249  13.317  13.306
  746SOL    HW1 4012  11.165  13.349  13.337
  746SOL    HW2 4013  11.232  13.227  13.278
  747SOL     OW 4014   6.242  10.818   5.083
  747SOL    HW1 4015   6.230  10.887   5.147
  747SOL    HW2 4016   6.155  10.803   5.046
  748SOL     OW 4017   2.004   3.270   4.707
  748SOL    HW1 4018   1.927   3.272   4.649
  748SOL    HW2 4019   1.996   3.186   4.753
  749SOL     OW 4020  13.164  13.663   7.528
  749SOL    HW1 4021  13.209  13.721   7.465
  749SOL    HW2 4022  13.177  13.706   7.612
  750SOL     OW 4023   7.127  10.018  13.276
  750SOL    HW1 4024   7.149   9.954  13.343
  750SOL    HW2 4025   7.193  10.005  13.207
  751SOL     OW 4026   4.513   1.073  11.618
  751SOL    HW1 4027   4.509   0.993  11.670
  751SOL    HW2 4028   4.569   1.132  11.668
  752SOL     OW 4029  13.716   6.383   5.868
  752SOL    HW1 4030  13.710   6.359   5.960
  752SOL    HW2 4031  13.693   6.476   5.865
  753SOL     OW 4032   8.013  12.707   2.236
  753SOL    HW1 4033   8.009  12.801   2.222
  753SOL    HW2 4034   7.946  12.671   2.177
  754SOL     OW 4035   7.344   9.485  11.031
  754SOL    HW1 4036   7.414   9.504  10.969
  754SOL    HW2 4037   7.295   9.568  11.037
  755SOL     OW 4038   0.384   9.377   6.401
  755SOL    HW1 4039   0.338   9.459   6.415
  755SOL    HW2 4040   0.358   9.322   6.476
  756SOL     OW 4041  12.700   6.460   1.387
  756SOL    HW1 4042  12.619   6.507   1.405
  756SOL    HW2 4043  12.767   6.528   1.385
  757SOL     OW 4044   8.879  10.864   0.507
  757SOL    HW1 4045   8.910  10.784   0.465
  757SOL    HW2 4046   8.784  10.861   0.496
  758SOL     OW 4047   1.290   9.164  12.082
  758SOL    HW1 4048   1.216   9.215  12.048
  758SOL    HW2 4049   1.356   9.169  12.013
  759SOL     OW 4050   1.971   8.679   0.974
  759SOL    HW1 4051   1.982   8.593   0.935
  759SOL    HW2 4052   1.944   8.662   1.064
  760SOL     OW 4053   1.442   1.209   9.381
  760SOL    HW1 4054   1.396   1.237   9.460
  760SOL    HW2 4055   1.379   1.223   9.311
  761SOL     OW 4056   5.278   7.102  12.144
  761SOL    HW1 4057   5.356   7.068  12.186
  761SOL    HW2 4058   5.288   7.197  12.147
  762SOL     OW 4059   9.548  10.934   1.618
  762SOL    HW1 4060   9.495  10.894   1.548
  762SOL    HW2 4061   9.636  10.898   1.604
  763SOL     OW 4062  12.887  10.216   4.387
  763SOL    HW1 4063  12.851  10.142   4.339
  763SOL    HW2 4064  12.904  10.181   4.475
  764SOL     OW 4065   5.830   8.546  14.664
  764SOL    HW1 4066   5.896   8.478  14.653
  764SOL    HW2 4067   5.782   8.546  14.581
  765SOL     OW 4068   7.063   3.082   5.574
  765SOL    HW1 4069   7.125   3.069   5.502
  765SOL    HW2 4070   6.991   3.131   5.535
  766SOL     OW 4071   8.810   4.962   2.623
  766SOL    HW1 4072   8.758   5.042   2.621
  766SOL    HW2 4073   8.898   4.991   2.647
  767SOL     OW 4074   6.517  12.304   2.713
  767SOL    HW1 4075   6.527  12.235   2.779
  767SOL    HW2 4076   6.432  12.343   2.733
  768SOL     OW 4077  14.060   6.103   4.057
  768SOL    HW1 4078  13.985   6.093   3.998
  768SOL    HW2 4079  14.122   6.037   4.027
  769SOL     OW 4080  13.038  14.426  12.824
  769SOL    HW1 4081  13.101  14.495  12.805
  769SOL    HW2 4082  12.995  14.410  12.740
  770SOL     OW 4083   5.679   7.333   5.658
  770SOL    HW1 4084   5.715   7.414   5.623
  770SOL    HW2 4085   5.586   7.337   5.638
  771SOL     OW 4086   8.559  14.458   3.053
  771SOL    HW1 4087   8.474  14.417   3.067
  771SOL    HW2 4088   8.605  14.400   2.992
  772SOL     OW 4089  13.496   5.885  14.697
  772SOL    HW1 4090  13.556   5.941  14.649
  772SOL    HW2 4091  13.551   5.812  14.728
  773SOL     OW 4092   0.593   8.206   6.658
  773SOL    HW1 4093   0.658   8.265   6.620
  773SOL    HW2 4094   0.595   8.224   6.752
  774SOL     OW 4095  10.728   5.776  14.123
  774SOL    HW1 4096  10.687   5.711  14.065
  774SOL    HW2 4097  10.713   5.742  14.211
  775SOL     OW 4098   9.986  10.699   2.871
  775SOL    HW1 4099  10.018  10.714   2.782
  775SOL    HW2 4100   9.907  10.647   2.859
  776SOL     OW 4101   0.270   2.945   3.888
  776SOL    HW1 4102   0.180   2.915   3.884
  776SOL    HW2 4103   0.282   2.997   3.808
  777SOL     OW 4104   8.512   3.899   8.755
  777SOL    HW1 4105   8.474   3.826   8.707
  777SOL    HW2 4106   8.562   3.947   8.689
  778SOL     OW 4107  13.041   4.830   1.227
  778SOL    HW1 4108  13.102   4.890   1.270
  778SOL    HW2 4109  13.034   4.755   1.286
  779SOL     OW 4110  14.705   3.979   4.787
  779SOL    HW1 4111  14.633   3.938   4.836
  779SOL    HW2 4112  14.694   3.946   4.698
  780SOL     OW 4113  12.119   5.866   0.292
  780SOL    HW1 4114  12.145   5.801   0.358
  780SOL    HW2 4115  12.070   5.816   0.227
  781SOL     OW 4116   6.723   4.046  14.234
  781SOL    HW1 4117   6.700   4.134  14.265
  781SOL    HW2 4118   6.639   4.001  14.226
  782SOL     OW 4119   3.530   4.144  11.501
  782SOL    HW1 4120   3.458   4.197  11.534
  782SOL    HW2 4121   3.579   4.118  11.580
  783SOL     OW 4122   3.533  13.962   2.043
  783SOL    HW1 4123   3.580  13.905   2.103
  783SOL    HW2 4124   3.546  13.923   1.957
  784SOL     OW 4125  12.952  10.918   4.603
  784SOL    HW1 4126  12.896  10.888   4.674
  784SOL    HW2 4127  12.991  10.999   4.636
  785SOL     OW 4128   1.873  13.355  12.094
  785SOL    HW1 4129   1.807  13.293  12.123
  785SOL    HW2 4130   1.926  13.306  12.031
  786SOL     OW 4131  14.687   2.020   7.815
  786SOL    HW1 4132  14.713   2.056   7.900
  786SOL    HW2 4133  14.592   2.034   7.811
  787SOL     OW 4134  12.714  11.486  14.464
  787SOL    HW1 4135  12.685  11.556  14.406
  787SOL    HW2 4136  12.764  11.531  14.532
  788SOL     OW 4137  14.431  14.320  10.496
  788SOL    HW1 4138  14.356  14.350  10.547
  788SOL    HW2 4139  14.496  14.390  10.505
  789SOL     OW 4140  12.872  12.485   6.872
  789SOL    HW1 4141  12.801  12.514   6.929
  789SOL    HW2 4142  12.886  12.393   6.895
  790SOL     OW 4143   1.066   2.243   2.683
  790SOL    HW1 4144   1.140   2.234   2.622
  790SOL    HW2 4145   0.990   2.256   2.626
  791SOL     OW 4146  10.188   0.562   9.370
  791SOL    HW1 4147  10.283   0.559   9.385
  791SOL    HW2 4148  10.173   0.493   9.305
  792SOL     OW 4149   6.840   4.692   3.770
  792SOL    HW1 4150   6.766   4.692   3.832
  792SOL    HW2 4151   6.907   4.639   3.813
  793SOL     OW 4152   8.801   5.706  12.631
  793SOL    HW1 4153   8.860   5.630  12.630
  793SOL    HW2 4154   8.851   5.776  12.590
  794SOL     OW 4155  10.015  12.855  12.087
  794SOL    HW1 4156  10.067  12.906  12.025
  794SOL    HW2 4157   9.924  12.866  12.058
  795SOL     OW 4158  12.270   3.894  13.121
  795SOL    HW1 4159  12.364   3.897  13.100
  795SOL    HW2 4160  12.265   3.840  13.200
  796SOL     OW 4161   7.116   4.516  13.540
  796SOL    HW1 4162   7.055   4.498  13.611
  796SOL    HW2 4163   7.084   4.463  13.467
  797SOL     OW 4164   9.956   8.579   4.405
  797SOL    HW1 4165   9.914   8.496   4.429
  797SOL    HW2 4166   9.963   8.576   4.310
  798SOL     OW 4167   2.652  14.754   4.838
  798SOL    HW1 4168   2.709  14.817   4.794
  798SOL    HW2 4169   2.639  14.792   4.926
  799SOL     OW 4170   7.684  10.675   8.895
  799SOL    HW1 4171   7.720  10.600   8.848
  799SOL    HW2 4172   7.738  10.682   8.974
  800SOL     OW 4173   7.187   6.390  11.572
  800SOL    HW1 4174   7.215   6.455  11.636
  800SOL    HW2 4175   7.091   6.390  11.577
  801SOL     OW 4176   4.844   2.102  13.223
  801SOL    HW1 4177   4.881   2.018  13.251
  801SOL    HW2 4178   4.838   2.095  13.128
  802SOL     OW 4179  11.655   4.154   1.858
  802SOL    HW1 4180  11.683   4.094   1.927
  802SOL    HW2 4181  11.734   4.202   1.834
  803SOL     OW 4182   8.486   3.891   8.349
  803SOL    HW1 4183   8.495   3.820   8.286
  803SOL    HW2 4184   8.470   3.847   8.433
  804SOL     OW 4185   4.543   5.551  14.209
  804SOL    HW1 4186   4.480   5.490  14.171
  804SOL    HW2 4187   4.605   5.568  14.138
  805SOL     OW 4188   4.199   6.078   1.298
  805SOL    HW1 4189   4.121   6.113   1.253
  805SOL    HW2 4190   4.230   6.009   1.239
  806SOL     OW 4191   2.469   0.840   2.258
  806SOL    HW1 4192   2.408   0.901   2.217
  806SOL    HW2 4193   2.445   0.839   2.350
  807SOL     OW 4194  14.648  14.596  14.775
  807SOL    HW1 4195  14.663  14.671  14.717
  807SOL    HW2 4196  14.734  14.556  14.785
  808SOL     OW 4197   4.741   6.468  12.756
  808SOL    HW1 4198   4.719   6.390  12.705
  808SOL    HW2 4199   4.734   6.440  12.847
  809SOL     OW 4200   2.141   1.831   7.001
  809SOL    HW1 4201   2.109   1.917   6.976
  809SOL    HW2 4202   2.235   1.832   6.979
  810SOL     OW 4203   4.179   6.861  12.485
  810SOL    HW1 4204   4.102   6.835  12.535
  810SOL    HW2 4205   4.236   6.784  12.488
  811SOL     OW 4206   5.486   2.791   7.029
  811SOL    HW1 4207   5.405   2.758   6.988
  811SOL    HW2 4208   5.554   2.734   6.995
  812SOL     OW 4209   9.871   1.414   6.231
  812SOL    HW1 4210   9.836   1.325   6.235
  812SOL    HW2 4211   9.891   1.436   6.322
  813SOL     OW 4212   1.566  11.837   6.807
  813SOL    HW1 4213   1.476  11.870   6.804
  813SOL    HW2 4214   1.620  11.916   6.805
  814SOL     OW 4215  12.956   2.943   3.631
  814SOL    HW1 4216  12.959   2.973   3.541
  814SOL    HW2 4217  12.926   2.852   3.625
  815SOL     OW 4218  12.468  14.033  10.014
  815SOL    HW1 4219  12.541  14.001   9.961
  815SOL    HW2 4220  12.463  13.971  10.087
  816SOL     OW 4221  12.471   6.746   1.174
  816SOL    HW1 4222  12.427   6.730   1.090
  816SOL    HW2 4223  12.428   6.824   1.209
  817SOL     OW 4224   9.737  11.114   4.432
  817SOL    HW1 4225   9.824  11.155   4.427
  817SOL    HW2 4226   9.685  11.174   4.485
  818SOL     OW 4227  12.995  13.589   6.959
  818SOL    HW1 4228  12.981  13.517   6.897
  818SOL    HW2 4229  12.908  13.622   6.978
  819SOL     OW 4230  14.004   7.722   2.402
  819SOL    HW1 4231  13.986   7.788   2.334
  819SOL    HW2 4232  14.091   7.689   2.380
  820SOL     OW 4233   0.406   5.877   1.811
  820SOL    HW1 4234   0.465   5.919   1.748
  820SOL    HW2 4235   0.318   5.893   1.776
  821SOL     OW 4236   5.878  12.967   4.925
  821SOL    HW1 4237   5.828  13.043   4.895
  821SOL    HW2 4238   5.899  12.919   4.845
  822SOL     OW 4239  11.540   5.045   0.436
  822SOL    HW1 4240  11.596   5.027   0.511
  822SOL    HW2 4241  11.530   5.140   0.435
  823SOL     OW 4242  14.307   5.715  11.144
  823SOL    HW1 4243  14.381   5.773  11.129
  823SOL    HW2 4244  14.313   5.649  11.075
  824SOL     OW 4245   6.810   5.355   8.332
  824SOL    HW1 4246   6.901   5.374   8.311
  824SOL    HW2 4247   6.793   5.270   8.291
  825SOL     OW 4248   4.489   3.865   6.360
  825SOL    HW1 4249   4.534   3.829   6.284
  825SOL    HW2 4250   4.512   3.958   6.361
  826SOL     OW 4251   9.708  12.965   2.022
  826SOL    HW1 4252   9.674  13.005   2.102
  826SOL    HW2 4253   9.788  12.920   2.049
  827SOL     OW 4254   4.677   6.172  13.372
  827SOL    HW1 4255   4.692   6.142  13.461
  827SOL    HW2 4256   4.727   6.254  13.366
  828SOL     OW 4257  11.059   3.849   4.659
  828SOL    HW1 4258  11.029   3.931   4.619
  828SOL    HW2 4259  11.145   3.834   4.620
  829SOL     OW 4260   4.439  14.748  10.540
  829SOL    HW1 4261   4.375  14.816  10.523
  829SOL    HW2 4262   4.467  14.718  10.453
  830SOL     OW 4263  12.231   5.564  12.024
  830SOL    HW1 4264  12.326   5.575  12.029
  830SOL    HW2 4265  12.219   5.474  11.995
  831SOL     OW 4266   4.473   1.874   7.660
  831SOL    HW1 4267   4.566   1.893   7.663
  831SOL    HW2 4268   4.452   1.843   7.748
  832SOL     OW 4269  12.339   1.360   1.841
  832SOL    HW1 4270  12.307   1.446   1.867
  832SOL    HW2 4271  12.426   1.355   1.881
  833SOL     OW 4272   5.406   5.450   4.103
  833SOL    HW1 4273   5.423   5.464   4.009
  833SOL    HW2 4274   5.417   5.537   4.142
  834SOL     OW 4275  13.232  10.143   4.666
  834SOL    HW1 4276  13.285  10.145   4.746
  834SOL    HW2 4277  13.293  10.168   4.597
  835SOL     OW 4278   1.911   6.045   7.412
  835SOL    HW1 4279   1.951   6.115   7.463
  835SOL    HW2 4280   1.858   6.090   7.346
  836SOL     OW 4281   0.935   4.865   6.995
  836SOL    HW1 4282   1.008   4.816   6.958
  836SOL    HW2 4283   0.867   4.863   6.927
  837SOL     OW 4284   3.860   1.889   3.290
  837SOL    HW1 4285   3.816   1.894   3.374
  837SOL    HW2 4286   3.933   1.950   3.298
  838SOL     OW 4287   6.197   6.308   9.150
  838SOL    HW1 4288   6.244   6.378   9.105
  838SOL    HW2 4289   6.197   6.334   9.243
  839SOL     OW 4290   7.550   7.595   0.645
  839SOL    HW1 4291   7.577   7.538   0.573
  839SOL    HW2 4292   7.521   7.676   0.603
  840SOL     OW 4293  14.191  13.734   1.331
  840SOL    HW1 4294  14.106  13.702   1.304
  840SOL    HW2 4295  14.253  13.699   1.267
  841SOL     OW 4296   1.806   1.181   6.221
  841SOL    HW1 4297   1.821   1.094   6.259
  841SOL    HW2 4298   1.711   1.187   6.211
  842SOL     OW 4299   5.634  14.463   8.790
  842SOL    HW1 4300   5.634  14.488   8.697
  842SOL    HW2 4301   5.718  14.493   8.823
  843SOL     OW 4302  11.895   0.408   2.312
  843SOL    HW1 4303  11.800   0.403   2.307
  843SOL    HW2 4304  11.926   0.388   2.224
  844SOL     OW 4305   0.603  11.343   2.400
  844SOL    HW1 4306   0.650  11.317   2.321
  844SOL    HW2 4307   0.561  11.426   2.377
  845SOL     OW 4308   0.566  11.309  10.406
  845SOL    HW1 4309   0.565  11.350  10.492
  845SOL    HW2 4310   0.658  11.293  10.387
  846SOL     OW 4311  14.435   6.175   8.846
  846SOL    HW1 4312  14.370   6.244   8.838
  846SOL    HW2 4313  14.494   6.205   8.915
  847SOL     OW 4314  14.451   9.915   2.766
  847SOL    HW1 4315  14.460   9.981   2.697
  847SOL    HW2 4316  14.527   9.858   2.755
  848SOL     OW 4317  14.292   1.685  12.418
  848SOL    HW1 4318  14.294   1.616  12.484
  848SOL    HW2 4319  14.319   1.641  12.337
  849SOL     OW 4320   0.420   2.838   8.967
  849SOL    HW1 4321   0.422   2.900   8.894
  849SOL    HW2 4322   0.463   2.884   9.039
  850SOL     OW 4323   1.967  12.995   8.042
  850SOL    HW1 4324   1.889  13.048   8.022
  850SOL    HW2 4325   2.025  13.009   7.967
  851SOL     OW 4326   5.009   9.951  10.466
  851SOL    HW1 4327   5.029   9.862  10.497
  851SOL    HW2 4328   5.093   9.996  10.467
  852SOL     OW 4329  13.588   0.429  11.958
  852SOL    HW1 4330  13.628   0.513  11.981
  852SOL    HW2 4331  13.613   0.414  11.867
  853SOL     OW 4332   3.654   3.451  11.473
  853SOL    HW1 4333   3.627   3.416  11.558
  853SOL    HW2 4334   3.711   3.383  11.436
  854SOL     OW 4335   1.398  13.208  14.850
  854SOL    HW1 4336   1.359  13.217   0.059
  854SOL    HW2 4337   1.328  13.235  14.790
  855SOL     OW 4338   1.501   2.107  11.769
  855SOL    HW1 4339   1.521   2.170  11.837
  855SOL    HW2 4340   1.568   2.121  11.702
  856SOL     OW 4341   6.022   3.874   1.086
  856SOL    HW1 4342   6.060   3.898   1.170
  856SOL    HW2 4343   5.995   3.783   1.096
  857SOL     OW 4344   5.416  14.677   9.659
  857SOL    HW1 4345   5.349  14.740   9.629
  857SOL    HW2 4346   5.419  14.611   9.590
  858SOL     OW 4347   1.085   9.467  11.711
  858SOL    HW1 4348   1.167   9.457  11.664
  858SOL    HW2 4349   1.093   9.552  11.754
  859SOL     OW 4350  10.444  11.917  11.329
  859SOL    HW1 4351  10.462  11.946  11.418
  859SOL    HW2 4352  10.349  11.912  11.323
  860SOL     OW 4353   9.983  13.323   1.378
  860SOL    HW1 4354   9.918  13.384   1.344
  860SOL    HW2 4355  10.034  13.297   1.301
  861SOL     OW 4356   7.753   1.038   0.031
  861SOL    HW1 4357   7.829   1.011   0.083
  861SOL    HW2 4358   7.782   1.027  14.818
  862SOL     OW 4359  13.465   2.247   8.744
  862SOL    HW1 4360  13.414   2.306   8.800
  862SOL    HW2 4361  13.541   2.299   8.718
  863SOL     OW 4362  11.289   9.422   9.668
  863SOL    HW1 4363  11.374   9.420   9.714
  863SOL    HW2 4364  11.240   9.350   9.706
  864SOL     OW 4365  14.760   2.752   1.278
  864SOL    HW1 4366  14.727   2.836   1.247
  864SOL    HW2 4367  14.686   2.715   1.327
  865SOL     OW 4368   6.888   8.713  11.749
  865SOL    HW1 4369   6.945   8.749  11.681
  865SOL    HW2 4370   6.839   8.644  11.704
  866SOL     OW 4371   3.207   1.436  11.364
  866SOL    HW1 4372   3.163   1.494  11.302
  866SOL    HW2 4373   3.140   1.371  11.388
  867SOL     OW 4374   3.315   1.636  11.830
  867SOL    HW1 4375   3.330   1.718  11.784
  867SOL    HW2 4376   3.403   1.607  11.856
  868SOL     OW 4377   6.678  12.387   9.840
  868SOL    HW1 4378   6.709  12.462   9.891
  868SOL    HW2 4379   6.703  12.408   9.750
  869SOL     OW 4380   5.702   3.520   7.765
  869SOL    HW1 4381   5.744   3.435   7.749
  869SOL    HW2 4382   5.679   3.518   7.858
  870SOL     OW 4383  11.803   4.380   9.314
  870SOL    HW1 4384  11.785   4.474   9.304
  870SOL    HW2 4385  11.849   4.374   9.398
  871SOL     OW 4386   5.219   4.893  13.257
  871SOL    HW1 4387   5.273   4.912  13.334
  871SOL    HW2 4388   5.176   4.976  13.236
  872SOL     OW 4389   5.493   7.176  12.857
  872SOL    HW1 4390   5.506   7.128  12.775
  872SOL    HW2 4391   5.451   7.112  12.915
  873SOL     OW 4392   7.001   0.829  10.205
  873SOL    HW1 4393   7.050   0.770  10.149
  873SOL    HW2 4394   6.955   0.887  10.145
  874SOL     OW 4395  12.629  10.761  13.212
  874SOL    HW1 4396  12.673  10.713  13.142
  874SOL    HW2 4397  12.631  10.853  13.183
  875SOL     OW 4398  14.785  14.852  10.480
  875SOL    HW1 4399  14.838   0.042  10.439
  875SOL    HW2 4400  14.739   0.018  10.552
  876SOL     OW 4401   1.669   1.825   1.046
  876SOL    HW1 4402   1.665   1.738   1.009
  876SOL    HW2 4403   1.737   1.870   0.995
  877SOL     OW 4404   0.187   9.694   5.500
  877SOL    HW1 4405   0.231   9.717   5.582
  877SOL    HW2 4406   0.129   9.621   5.524
  878SOL     OW 4407   9.096   2.186  14.265
  878SOL    HW1 4408   9.096   2.220  14.176
  878SOL    HW2 4409   9.105   2.263  14.321
  879SOL     OW 4410  13.968  13.648   1.172
  879SOL    HW1 4411  13.899  13.614   1.114
  879SOL    HW2 4412  14.004  13.723   1.124
  880SOL     OW 4413  13.728  14.377   4.375
  880SOL    HW1 4414  13.718  14.452   4.317
  880SOL    HW2 4415  13.676  14.308   4.334
  881SOL     OW 4416  12.122  10.617   4.210
  881SOL    HW1 4417  12.212  10.587   4.221
  881SOL    HW2 4418  12.069  10.547   4.249
  882SOL     OW 4419  14.771   2.840  14.033
  882SOL    HW1 4420  14.796   2.820  13.942
  882SOL    HW2 4421  14.833   2.790  14.086
  883SOL     OW 4422   3.116  14.411  10.723
  883SOL    HW1 4423   3.083  14.491  10.763
  883SOL    HW2 4424   3.047  14.384  10.662
  884SOL     OW 4425   2.680  10.694   5.343
  884SOL    HW1 4426   2.604  10.675   5.398
  884SOL    HW2 4427   2.715  10.608   5.319
  885SOL     OW 4428   5.580   1.395   1.033
  885SOL    HW1 4429   5.639   1.361   0.966
  885SOL    HW2 4430   5.504   1.336   1.032
  886SOL     OW 4431   3.155   1.935  11.693
  886SOL    HW1 4432   3.127   1.992  11.622
  886SOL    HW2 4433   3.251   1.936  11.688
  887SOL     OW 4434   5.772   2.257   1.112
  887SOL    HW1 4435   5.753   2.211   1.030
  887SOL    HW2 4436   5.689   2.260   1.159
  888SOL     OW 4437  11.472   1.499   4.712
  888SOL    HW1 4438  11.415   1.433   4.751
  888SOL    HW2 4439  11.412   1.562   4.673
  889SOL     OW 4440  12.535   4.238   8.213
  889SOL    HW1 4441  12.472   4.167   8.198
  889SOL    HW2 4442  12.602   4.225   8.146
  890SOL     OW 4443   9.320   0.594   5.562
  890SOL    HW1 4444   9.370   0.645   5.626
  890SOL    HW2 4445   9.266   0.659   5.517
  891SOL     OW 4446   7.226   6.993  12.641
  891SOL    HW1 4447   7.310   6.947  12.649
  891SOL    HW2 4448   7.249   7.082  12.617
  892SOL     OW 4449  10.164   5.827   7.950
  892SOL    HW1 4450  10.227   5.782   8.007
  892SOL    HW2 4451  10.147   5.910   7.995
  893SOL     OW 4452  11.761  14.455   2.738
  893SOL    HW1 4453  11.855  14.445   2.730
  893SOL    HW2 4454  11.738  14.519   2.671
  894SOL     OW 4455   8.327  10.578   6.137
  894SOL    HW1 4456   8.257  10.635   6.105
  894SOL    HW2 4457   8.283  10.517   6.197
  895SOL     OW 4458  13.307   9.615   2.554
  895SOL    HW1 4459  13.264   9.530   2.556
  895SOL    HW2 4460  13.237   9.677   2.537
  896SOL     OW 4461   2.875  11.298   6.662
  896SOL    HW1 4462   2.784  11.284   6.636
  896SOL    HW2 4463   2.905  11.369   6.604
  897SOL     OW 4464   2.199   2.506   9.954
  897SOL    HW1 4465   2.154   2.547   9.880
  897SOL    HW2 4466   2.290   2.531   9.944
  898SOL     OW 4467  14.326   4.271   7.888
  898SOL    HW1 4468  14.333   4.358   7.847
  898SOL    HW2 4469  14.232   4.254   7.893
  899SOL     OW 4470   6.324   0.729  11.873
  899SOL    HW1 4471   6.297   0.793  11.807
  899SOL    HW2 4472   6.306   0.644  11.834
  900SOL     OW 4473   6.198   8.815  12.471
  900SOL    HW1 4474   6.274   8.768  12.437
  900SOL    HW2 4475   6.123   8.765  12.440
  901SOL     OW 4476   5.762   1.672  13.892
  901SOL    HW1 4477   5.829   1.609  13.866
  901SOL    HW2 4478   5.774   1.681  13.987
  902SOL     OW 4479  11.549   1.764   6.903
  902SOL    HW1 4480  11.480   1.826   6.882
  902SOL    HW2 4481  11.504   1.689   6.941
  903SOL     OW 4482   1.565  14.599   5.237
  903SOL    HW1 4483   1.607  14.546   5.305
  903SOL    HW2 4484   1.624  14.592   5.162
  904SOL     OW 4485  14.585   8.738  12.845
  904SOL    HW1 4486  14.660   8.680  12.857
  904SOL    HW2 4487  14.517   8.682  12.808
  905SOL     OW 4488   0.630   9.577  13.908
  905SOL    HW1 4489   0.618   9.527  13.990
  905SOL    HW2 4490   0.580   9.528  13.843
  906SOL     OW 4491   2.843   7.674  12.043
  906SOL    HW1 4492   2.915   7.735  12.060
  906SOL    HW2 4493   2.810   7.652  12.130
  907SOL     OW 4494   6.778  11.928   8.859
  907SOL    HW1 4495   6.804  11.836   8.858
  907SOL    HW2 4496   6.682  11.926   8.854
  908SOL     OW 4497   2.515   3.955   1.328
  908SOL    HW1 4498   2.429   3.978   1.364
  908SOL    HW2 4499   2.524   4.012   1.252
  909SOL     OW 4500   4.007   7.832  14.816
  909SOL    HW1 4501   3.917   7.804  14.833
  909SOL    HW2 4502   4.061   7.770  14.866
  910SOL     OW 4503   3.128  13.863   1.326
  910SOL    HW1 4504   3.194  13.882   1.392
  910SOL    HW2 4505   3.173  13.876   1.242
  911SOL     OW 4506   8.519   9.859  14.807
  911SOL    HW1 4507   8.489   9.918  14.737
  911SOL    HW2 4508   8.440   9.841  14.859
  912SOL     OW 4509   0.548   0.562   6.495
  912SOL    HW1 4510   0.474   0.618   6.517
  912SOL    HW2 4511   0.518   0.511   6.419
  913SOL     OW 4512   2.608   0.200   6.603
  913SOL    HW1 4513   2.631   0.108   6.601
  913SOL    HW2 4514   2.641   0.236   6.521
  914SOL     OW 4515   2.966   6.241   4.801
  914SOL    HW1 4516   3.002   6.330   4.806
  914SOL    HW2 4517   2.872   6.253   4.815
  915SOL     OW 4518   8.704   0.966   5.557
  915SOL    HW1 4519   8.717   0.942   5.649
  915SOL    HW2 4520   8.638   0.904   5.526
  916SOL     OW 4521   4.258   7.912   1.969
  916SOL    HW1 4522   4.229   7.961   1.893
  916SOL    HW2 4523   4.248   7.820   1.944
  917SOL     OW 4524   4.169   8.714   2.015
  917SOL    HW1 4525   4.220   8.705   2.096
  917SOL    HW2 4526   4.149   8.624   1.989
  918SOL     OW 4527   6.335   6.936   2.841
  918SOL    HW1 4528   6.400   6.930   2.771
  918SOL    HW2 4529   6.342   7.026   2.873
  919SOL     OW 4530   6.298   3.040   9.860
  919SOL    HW1 4531   6.305   3.129   9.826
  919SOL    HW2 4532   6.295   2.984   9.782
  920SOL     OW 4533   7.295   6.227   7.214
  920SOL    HW1 4534   7.277   6.133   7.209
  920SOL    HW2 4535   7.362   6.242   7.147
  921SOL     OW 4536  14.641   6.150   4.772
  921SOL    HW1 4537  14.579   6.181   4.707
  921SOL    HW2 4538  14.655   6.225   4.831
  922SOL     OW 4539   5.095   8.528   1.960
  922SOL    HW1 4540   5.081   8.576   1.879
  922SOL    HW2 4541   5.190   8.534   1.975
  923SOL     OW 4542  12.198  13.687   7.728
  923SOL    HW1 4543  12.233  13.627   7.795
  923SOL    HW2 4544  12.275  13.714   7.678
  924SOL     OW 4545  13.806   3.563  13.521
  924SOL    HW1 4546  13.843   3.557  13.609
  924SOL    HW2 4547  13.771   3.476  13.503
  925SOL     OW 4548   2.718  12.202  13.337
  925SOL    HW1 4549   2.806  12.167  13.325
  925SOL    HW2 4550   2.679  12.145  13.404
  926SOL     OW 4551   5.999   8.653   0.161
  926SOL    HW1 4552   6.027   8.731   0.112
  926SOL    HW2 4553   5.913   8.631   0.124
  927SOL     OW 4554   1.294  12.944  14.329
  927SOL    HW1 4555   1.370  12.974  14.279
  927SOL    HW2 4556   1.275  13.016  14.390
  928SOL     OW 4557   9.391   3.031   3.672
  928SOL    HW1 4558   9.303   3.059   3.698
  928SOL    HW2 4559   9.415   2.965   3.736
  929SOL     OW 4560   4.528   5.125   7.932
  929SOL    HW1 4561   4.433   5.136   7.945
  929SOL    HW2 4562   4.545   5.161   7.845
  930SOL     OW 4563  11.341   8.230   1.348
  930SOL    HW1 4564  11.343   8.252   1.441
  930SOL    HW2 4565  11.249   8.213   1.329
  931SOL     OW 4566  11.402   4.641   8.526
  931SOL    HW1 4567  11.395   4.626   8.432
  931SOL    HW2 4568  11.339   4.580   8.564
  932SOL     OW 4569   5.692   7.869  14.785
  932SOL    HW1 4570   5.640   7.812  14.843
  932SOL    HW2 4571   5.637   7.881  14.708
  933SOL     OW 4572   9.553   5.838   5.860
  933SOL    HW1 4573   9.506   5.916   5.889
  933SOL    HW2 4574   9.645   5.856   5.881
  934SOL     OW 4575  12.012   9.057  14.045
  934SOL    HW1 4576  11.946   9.067  14.113
  934SOL    HW2 4577  11.975   8.991  13.986
  935SOL     OW 4578  14.214  11.136   8.293
  935SOL    HW1 4579  14.243  11.111   8.206
  935SOL    HW2 4580  14.150  11.206   8.278
  936SOL     OW 4581   3.533   0.568   1.288
  936SOL    HW1 4582   3.529   0.534   1.199
  936SOL    HW2 4583   3.460   0.525   1.333
  937SOL     OW 4584   7.722   8.075   1.926
  937SOL    HW1 4585   7.744   8.031   2.008
  937SOL    HW2 4586   7.667   8.148   1.953
  938SOL     OW 4587  14.137  11.052  12.088
  938SOL    HW1 4588  14.218  11.099  12.109
  938SOL    HW2 4589  14.125  10.990  12.160
  939SOL     OW 4590   7.889   7.546   2.917
  939SOL    HW1 4591   7.929   7.630   2.939
  939SOL    HW2 4592   7.938   7.482   2.968
  940SOL     OW 4593   3.531   5.435   6.309
  940SOL    HW1 4594   3.511   5.343   6.322
  940SOL    HW2 4595   3.535   5.472   6.397
  941SOL     OW 4596   8.649   4.090  12.803
  941SOL    HW1 4597   8.657   3.998  12.828
  941SOL    HW2 4598   8.569   4.093  12.750
  942SOL     OW 4599   1.663  10.209  12.097
  942SOL    HW1 4600   1.638  10.208  12.189
  942SOL    HW2 4601   1.744  10.159  12.093
  943SOL     OW 4602   7.249   1.042  12.128
  943SOL    HW1 4603   7.278   1.073  12.213
  943SOL    HW2 4604   7.226   0.950  12.142
  944SOL     OW 4605   0.682  11.673  10.971
  944SOL    HW1 4606   0.717  11.628  11.047
  944SOL    HW2 4607   0.587  11.672  10.983
  945SOL     OW 4608   2.565   5.449   0.438
  945SOL    HW1 4609   2.602   5.537   0.437
  945SOL    HW2 4610   2.519   5.442   0.521
  946SOL     OW 4611   5.681   6.146   0.379
  946SOL    HW1 4612   5.769   6.128   0.346
  946SOL    HW2 4613   5.642   6.060   0.393
  947SOL     OW 4614   9.621  13.276   2.164
  947SOL    HW1 4615   9.711  13.242   2.169
  947SOL    HW2 4616   9.569  13.213   2.214
  948SOL     OW 4617   6.586  10.966   8.253
  948SOL    HW1 4618   6.593  10.915   8.172
  948SOL    HW2 4619   6.546  10.906   8.315
  949SOL     OW 4620   7.928   5.628   9.492
  949SOL    HW1 4621   7.955   5.715   9.463
  949SOL    HW2 4622   7.866   5.598   9.425
  950SOL     OW 4623   7.934   0.411   3.970
  950SOL    HW1 4624   8.028   0.425   3.962
  950SOL    HW2 4625   7.908   0.464   4.046
  951SOL     OW 4626  10.480   4.254  10.000
  951SOL    HW1 4627  10.517   4.182  10.051
  951SOL    HW2 4628  10.500   4.333  10.052
  952SOL     OW 4629   9.166  14.224   1.270
  952SOL    HW1 4630   9.221  14.229   1.191
  952SOL    HW2 4631   9.109  14.301   1.264
  953SOL     OW 4632   3.516   5.572   8.393
  953SOL    HW1 4633   3.473   5.504   8.447
  953SOL    HW2 4634   3.447   5.636   8.377
  954SOL     OW 4635   9.964  12.523   8.653
  954SOL    HW1 4636   9.890  12.466   8.671
  954SOL    HW2 4637   9.998  12.546   8.739
  955SOL     OW 4638  14.508   7.042   3.997
  955SOL    HW1 4639  14.435   7.040   3.935
  955SOL    HW2 4640  14.503   6.958   4.043
  956SOL     OW 4641   7.858   8.822   8.155
  956SOL    HW1 4642   7.775   8.783   8.126
  956SOL    HW2 4643   7.915   8.748   8.174
  957SOL     OW 4644   0.274  10.030   1.475
  957SOL    HW1 4645   0.350  10.009   1.530
  957SOL    HW2 4646   0.311  10.058   1.392
  958SOL     OW 4647   8.110   1.108  12.248
  958SOL    HW1 4648   8.042   1.168  12.216
  958SOL    HW2 4649   8.108   1.035  12.185
  959SOL     OW 4650   4.380   4.965   3.934
  959SOL    HW1 4651   4.398   5.055   3.910
  959SOL    HW2 4652   4.434   4.912   3.875
  960SOL     OW 4653   1.783   8.155   4.966
  960SOL    HW1 4654   1.833   8.217   5.018
  960SOL    HW2 4655   1.710   8.205   4.931
  961SOL     OW 4656   7.874   4.107   2.769
  961SOL    HW1 4657   7.937   4.152   2.713
  961SOL    HW2 4658   7.907   4.120   2.858
  962SOL     OW 4659  12.691   2.403   8.408
  962SOL    HW1 4660  12.650   2.360   8.483
  962SOL    HW2 4661  12.645   2.367   8.332
  963SOL     OW 4662   5.100   3.253  10.943
  963SOL    HW1 4663   5.066   3.336  10.909
  963SOL    HW2 4664   5.030   3.221  11.000
  964SOL     OW 4665   7.271   4.922   8.468
  964SOL    HW1 4666   7.197   4.868   8.439
  964SOL    HW2 4667   7.261   4.928   8.563
  965SOL     OW 4668   4.631  11.725  14.754
  965SOL    HW1 4669   4.670  11.689  14.834
  965SOL    HW2 4670   4.648  11.819  14.760
  966SOL     OW 4671   3.207   3.039  14.341
  966SOL    HW1 4672   3.221   2.974  14.273
  966SOL    HW2 4673   3.274   3.020  14.407
  967SOL     OW 4674   6.113  10.045   0.932
  967SOL    HW1 4675   6.095  10.136   0.909
  967SOL    HW2 4676   6.071   9.993   0.863
  968SOL     OW 4677   9.379  13.347   1.618
  968SOL    HW1 4678   9.357  13.354   1.525
  968SOL    HW2 4679   9.309  13.394   1.663
  969SOL     OW 4680  12.164   2.399  13.000
  969SOL    HW1 4681  12.116   2.317  12.984
  969SOL    HW2 4682  12.195   2.391  13.091
  970SOL     OW 4683   4.151   3.539  10.236
  970SOL    HW1 4684   4.231   3.582  10.206
  970SOL    HW2 4685   4.154   3.451  10.197
  971SOL     OW 4686  10.519   1.800   7.533
  971SOL    HW1 4687  10.569   1.880   7.518
  971SOL    HW2 4688  10.428   1.825   7.518
  972SOL     OW 4689   7.372   6.829   4.041
  972SOL    HW1 4690   7.439   6.877   4.090
  972SOL    HW2 4691   7.330   6.774   4.106
  973SOL     OW 4692   5.394   7.645   5.102
  973SOL    HW1 4693   5.310   7.616   5.138
  973SOL    HW2 4694   5.394   7.740   5.116
  974SOL     OW 4695   3.983   7.034   7.214
  974SOL    HW1 4696   3.965   6.940   7.222
  974SOL    HW2 4697   3.916   7.066   7.153
  975SOL     OW 4698   5.459   1.495  13.420
  975SOL    HW1 4699   5.377   1.526  13.460
  975SOL    HW2 4700   5.474   1.556  13.347
  976SOL     OW 4701  13.647   2.621   1.027
  976SOL    HW1 4702  13.598   2.619   0.945
  976SOL    HW2 4703  13.736   2.596   1.003
  977SOL     OW 4704   5.262   4.811   3.217
  977SOL    HW1 4705   5.276   4.728   3.263
  977SOL    HW2 4706   5.288   4.793   3.127
  978SOL     OW 4707   1.495   9.287  13.326
  978SOL    HW1 4708   1.474   9.345  13.399
  978SOL    HW2 4709   1.425   9.222  13.325
  979SOL     OW 4710   7.598   7.631   3.990
  979SOL    HW1 4711   7.631   7.547   3.959
  979SOL    HW2 4712   7.656   7.696   3.951
  980SOL     OW 4713   9.744   4.022   7.406
  980SOL    HW1 4714   9.684   4.058   7.341
  980SOL    HW2 4715   9.716   4.062   7.489
  981SOL     OW 4716   9.716   0.043   1.530
  981SOL    HW1 4717   9.649   0.041   1.461
  981SOL    HW2 4718   9.783  14.861   1.500
  982SOL     OW 4719  12.427  14.876   1.939
  982SOL    HW1 4720  12.370  14.810   1.980
  982SOL    HW2 4721  12.508  14.872   1.989
  983SOL     OW 4722  12.620   8.053   6.994
  983SOL    HW1 4723  12.686   7.990   7.024
  983SOL    HW2 4724  12.557   8.000   6.946
  984SOL     OW 4725   2.515   8.234  12.125
  984SOL    HW1 4726   2.522   8.312  12.181
  984SOL    HW2 4727   2.600   8.191  12.132
  985SOL     OW 4728  10.280  10.349   8.040
  985SOL    HW1 4729  10.288  10.339   7.945
  985SOL    HW2 4730  10.232  10.430   8.052
  986SOL     OW 4731   8.578   5.149  13.686
  986SOL    HW1 4732   8.600   5.237  13.718
  986SOL    HW2 4733   8.662   5.108  13.667
  987SOL     OW 4734   9.995   3.987  12.971
  987SOL    HW1 4735   9.988   4.044  12.894
  987SOL    HW2 4736  10.053   4.034  13.031
  988SOL     OW 4737  10.075   3.132   0.466
  988SOL    HW1 4738   9.989   3.174   0.470
  988SOL    HW2 4739  10.100   3.138   0.373
  989SOL     OW 4740   1.731   1.937  10.516
  989SOL    HW1 4741   1.649   1.931  10.564
  989SOL    HW2 4742   1.782   2.002  10.564
  990SOL     OW 4743   8.601   6.462  11.529
  990SOL    HW1 4744   8.600   6.497  11.617
  990SOL    HW2 4745   8.641   6.375  11.538
  991SOL     OW 4746  12.856  14.740   9.973
  991SOL    HW1 4747  12.947  14.752  10.001
  991SOL    HW2 4748  12.812  14.703  10.050
  992SOL     OW 4749   9.824   0.220   1.189
  992SOL    HW1 4750   9.757   0.238   1.254
  992SOL    HW2 4751   9.794   0.265   1.110
  993SOL     OW 4752   5.725   1.100   6.526
  993SOL    HW1 4753   5.723   1.081   6.432
  993SOL    HW2 4754   5.730   1.196   6.531
  994SOL     OW 4755   2.169   0.625   8.114
  994SOL    HW1 4756   2.197   0.540   8.148
  994SOL    HW2 4757   2.074   0.624   8.123
  995SOL     OW 4758   4.652   6.151  14.410
  995SOL    HW1 4759   4.589   6.108  14.468
  995SOL    HW2 4760   4.635   6.115  14.323
  996SOL     OW 4761   8.467  10.146   7.565
  996SOL    HW1 4762   8.494  10.055   7.569
  996SOL    HW2 4763   8.375  10.143   7.539
  997SOL     OW 4764  12.597   6.342  13.573
  997SOL    HW1 4765  12.671   6.396  13.545
  997SOL    HW2 4766  12.607   6.260  13.524
  998SOL     OW 4767   1.190  13.703  13.970
  998SOL    HW1 4768   1.181  13.751  14.052
  998SOL    HW2 4769   1.134  13.626  13.982
  999SOL     OW 4770  10.646   2.512  11.246
  999SOL    HW1 4771  10.562   2.530  11.205
  999SOL    HW2 4772  10.634   2.536  11.338
 1000SOL     OW 4773   6.841   7.321  14.619
 1000SOL    HW1 4774   6.828   7.373  14.539
 1000SOL    HW2 4775   6.895   7.248  14.592
 1001SOL     OW 4776  11.571  11.517   5.300
 1001SOL    HW1 4777  11.544  11.425   5.295
 1001SOL    HW2 4778  11.666  11.514   5.304
 1002SOL     OW 4779  13.166   3.138  10.688
 1002SOL    HW1 4780  13.169   3.044  10.704
 1002SOL    HW2 4781  13.198   3.177  10.769
 1003SOL     OW 4782   6.236  13.493  10.432
 1003SOL    HW1 4783   6.150  13.524  10.460
 1003SOL    HW2 4784   6.256  13.421  10.493
 1004SOL     OW 4785   6.766  10.130  10.022
 1004SOL    HW1 4786   6.793  10.215   9.988
 1004SOL    HW2 4787   6.671  10.128  10.008
 1005SOL     OW 4788  10.456   1.549  14.481
 1005SOL    HW1 4789  10.382   1.601  14.514
 1005SOL    HW2 4790  10.513   1.613  14.438
 1006SOL     OW 4791  12.371  12.013   3.604
 1006SOL    HW1 4792  12.338  12.095   3.641
 1006SOL    HW2 4793  12.356  11.948   3.674
 1007SOL     OW 4794   5.238   9.963  11.603
 1007SOL    HW1 4795   5.307   9.905  11.636
 1007SOL    HW2 4796   5.157   9.912  11.612
 1008SOL     OW 4797  13.143   5.152   8.045
 1008SOL    HW1 4798  13.133   5.058   8.030
 1008SOL    HW2 4799  13.215   5.158   8.108
 1009SOL     OW 4800   4.886   0.240   6.535
 1009SOL    HW1 4801   4.944   0.313   6.512
 1009SOL    HW2 4802   4.864   0.200   6.451
 1010SOL     OW 4803  10.198  10.418  11.371
 1010SOL    HW1 4804  10.252  10.478  11.319
 1010SOL    HW2 4805  10.131  10.475  11.411
 1011SOL     OW 4806   9.226   0.526   2.756
 1011SOL    HW1 4807   9.243   0.537   2.663
 1011SOL    HW2 4808   9.250   0.610   2.795
 1012SOL     OW 4809  10.747   3.488  13.389
 1012SOL    HW1 4810  10.753   3.461  13.481
 1012SOL    HW2 4811  10.833   3.468  13.352
 1013SOL     OW 4812   2.691  10.471  11.998
 1013SOL    HW1 4813   2.739  10.401  12.042
 1013SOL    HW2 4814   2.755  10.541  11.987
 1014SOL     OW 4815   6.610   1.521   9.425
 1014SOL    HW1 4816   6.633   1.547   9.514
 1014SOL    HW2 4817   6.516   1.536   9.419
 1015SOL     OW 4818   6.621  10.197   8.115
 1015SOL    HW1 4819   6.585  10.151   8.191
 1015SOL    HW2 4820   6.685  10.136   8.079
 1016SOL     OW 4821  14.736   7.187  13.441
 1016SOL    HW1 4822  14.696   7.101  13.451
 1016SOL    HW2 4823  14.768   7.209  13.528
 1017SOL     OW 4824   2.632   5.520   7.429
 1017SOL    HW1 4825   2.601   5.448   7.484
 1017SOL    HW2 4826   2.551   5.559   7.394
 1018SOL     OW 4827  14.647   1.202  11.611
 1018SOL    HW1 4828  14.564   1.201  11.563
 1018SOL    HW2 4829  14.621   1.184  11.702
 1019SOL     OW 4830  11.243  12.353   8.019
 1019SOL    HW1 4831  11.234  12.258   8.012
 1019SOL    HW2 4832  11.156  12.388   8.000
 1020SOL     OW 4833   3.432   7.087   0.146
 1020SOL    HW1 4834   3.399   7.041   0.069
 1020SOL    HW2 4835   3.483   7.021   0.193
 1021SOL     OW 4836  14.154   8.369   0.902
 1021SOL    HW1 4837  14.206   8.303   0.855
 1021SOL    HW2 4838  14.107   8.415   0.832
 1022SOL     OW 4839   8.481   0.272   8.952
 1022SOL    HW1 4840   8.397   0.284   8.997
 1022SOL    HW2 4841   8.497   0.355   8.908
 1023SOL     OW 4842  12.161   3.835   3.621
 1023SOL    HW1 4843  12.183   3.877   3.705
 1023SOL    HW2 4844  12.246   3.810   3.585
 1024SOL     OW 4845   1.196  14.625   1.839
 1024SOL    HW1 4846   1.192  14.596   1.748
 1024SOL    HW2 4847   1.125  14.578   1.882
 1025SOL     OW 4848   8.330   9.705   6.477
 1025SOL    HW1 4849   8.338   9.637   6.544
 1025SOL    HW2 4850   8.348   9.661   6.395
 1026SOL     OW 4851  14.502   0.284  11.383
 1026SOL    HW1 4852  14.534   0.340  11.454
 1026SOL    HW2 4853  14.492   0.342  11.308
 1027SOL     OW 4854   0.293   4.458   7.569
 1027SOL    HW1 4855   0.241   4.538   7.562
 1027SOL    HW2 4856   0.235   4.396   7.615
 1028SOL     OW 4857   0.204  13.499   6.355
 1028SOL    HW1 4858   0.298  13.512   6.350
 1028SOL    HW2 4859   0.191  13.445   6.433
 1029SOL     OW 4860   7.318  13.133   4.666
 1029SOL    HW1 4861   7.293  13.098   4.752
 1029SOL    HW2 4862   7.285  13.223   4.666
 1030SOL     OW 4863   3.800   2.980   7.119
 1030SOL    HW1 4864   3.729   2.920   7.140
 1030SOL    HW2 4865   3.794   3.049   7.186
 1031SOL     OW 4866  12.656   3.656   0.882
 1031SOL    HW1 4867  12.642   3.695   0.796
 1031SOL    HW2 4868  12.750   3.666   0.898
 1032SOL     OW 4869   8.714   1.263   0.310
 1032SOL    HW1 4870   8.665   1.340   0.280
 1032SOL    HW2 4871   8.775   1.297   0.375
 1033SOL     OW 4872   7.606   1.358   9.538
 1033SOL    HW1 4873   7.545   1.347   9.465
 1033SOL    HW2 4874   7.567   1.427   9.592
 1034SOL     OW 4875  14.321   3.702   7.316
 1034SOL    HW1 4876  14.285   3.783   7.281
 1034SOL    HW2 4877  14.314   3.712   7.411
 1035SOL     OW 4878   3.045   9.217   0.003
 1035SOL    HW1 4879   2.962   9.260   0.020
 1035SOL    HW2 4880   3.053   9.151   0.072
 1036SOL     OW 4881   7.145  11.404  14.734
 1036SOL    HW1 4882   7.179  11.317  14.714
 1036SOL    HW2 4883   7.079  11.421  14.667
 1037SOL     OW 4884  10.564   0.950   6.260
 1037SOL    HW1 4885  10.481   0.905   6.273
 1037SOL    HW2 4886  10.607   0.948   6.345
 1038SOL     OW 4887   6.016  14.565  14.161
 1038SOL    HW1 4888   5.950  14.573  14.092
 1038SOL    HW2 4889   6.012  14.649  14.207
 1039SOL     OW 4890   9.566  11.043  13.862
 1039SOL    HW1 4891   9.506  11.091  13.805
 1039SOL    HW2 4892   9.619  10.991  13.801
 1040SOL     OW 4893   4.712   8.411   9.644
 1040SOL    HW1 4894   4.800   8.442   9.626
 1040SOL    HW2 4895   4.722   8.354   9.720
 1041SOL     OW 4896   5.459   6.859   6.407
 1041SOL    HW1 4897   5.517   6.829   6.337
 1041SOL    HW2 4898   5.491   6.946   6.429
 1042SOL     OW 4899   9.621  12.602  10.303
 1042SOL    HW1 4900   9.567  12.579  10.378
 1042SOL    HW2 4901   9.673  12.523  10.286
 1043SOL     OW 4902   8.514   5.340   5.326
 1043SOL    HW1 4903   8.605   5.353   5.300
 1043SOL    HW2 4904   8.508   5.380   5.413
 1044SOL     OW 4905   2.662  11.659  11.301
 1044SOL    HW1 4906   2.720  11.706  11.361
 1044SOL    HW2 4907   2.574  11.690  11.322
 1045SOL     OW 4908  11.286  11.673  11.601
 1045SOL    HW1 4909  11.351  11.729  11.560
 1045SOL    HW2 4910  11.301  11.684  11.695
 1046SOL     OW 4911  11.798   3.794   1.478
 1046SOL    HW1 4912  11.797   3.886   1.455
 1046SOL    HW2 4913  11.875   3.759   1.433
 1047SOL     OW 4914   2.952   8.775   3.646
 1047SOL    HW1 4915   2.921   8.783   3.736
 1047SOL    HW2 4916   3.007   8.852   3.632
 1048SOL     OW 4917  10.722   5.667   0.556
 1048SOL    HW1 4918  10.809   5.628   0.565
 1048SOL    HW2 4919  10.676   5.642   0.635
 1049SOL     OW 4920  12.030   7.515  10.119
 1049SOL    HW1 4921  12.047   7.590  10.062
 1049SOL    HW2 4922  12.116   7.482  10.142
 1050SOL     OW 4923   3.100   2.573   8.345
 1050SOL    HW1 4924   3.011   2.607   8.335
 1050SOL    HW2 4925   3.111   2.511   8.272
 1051SOL     OW 4926   1.517   4.798   2.256
 1051SOL    HW1 4927   1.576   4.860   2.214
 1051SOL    HW2 4928   1.437   4.801   2.205
 1052SOL     OW 4929  11.654  14.695  10.482
 1052SOL    HW1 4930  11.705  14.731  10.555
 1052SOL    HW2 4931  11.710  14.707  10.406
 1053SOL     OW 4932   0.270   6.554  10.995
 1053SOL    HW1 4933   0.307   6.466  10.984
 1053SOL    HW2 4934   0.341   6.604  11.035
 1054SOL     OW 4935  14.055  13.207   2.261
 1054SOL    HW1 4936  13.986  13.211   2.326
 1054SOL    HW2 4937  14.128  13.256   2.300
 1055SOL     OW 4938   5.813   5.610   4.212
 1055SOL    HW1 4939   5.795   5.636   4.121
 1055SOL    HW2 4940   5.805   5.515   4.211
 1056SOL     OW 4941   5.844  12.499   0.411
 1056SOL    HW1 4942   5.843  12.415   0.456
 1056SOL    HW2 4943   5.753  12.529   0.413
 1057SOL     OW 4944   1.649   1.552   1.585
 1057SOL    HW1 4945   1.559   1.529   1.564
 1057SOL    HW2 4946   1.660   1.527   1.677
 1058SOL     OW 4947   8.231   3.547   7.431
 1058SOL    HW1 4948   8.305   3.501   7.390
 1058SOL    HW2 4949   8.179   3.579   7.357
 1059SOL     OW 4950   8.649   0.350   0.833
 1059SOL    HW1 4951   8.723   0.379   0.780
 1059SOL    HW2 4952   8.666   0.386   0.920
 1060SOL     OW 4953   5.291   9.256   0.647
 1060SOL    HW1 4954   5.304   9.312   0.570
 1060SOL    HW2 4955   5.197   9.241   0.650
 1061SOL     OW 4956   0.435  12.782   0.192
 1061SOL    HW1 4957   0.484  12.701   0.209
 1061SOL    HW2 4958   0.498  12.852   0.210
 1062SOL     OW 4959   1.678   7.002   4.358
 1062SOL    HW1 4960   1.684   7.032   4.448
 1062SOL    HW2 4961   1.598   6.949   4.356
 1063SOL     OW 4962  11.943  14.360   7.641
 1063SOL    HW1 4963  11.994  14.284   7.613
 1063SOL    HW2 4964  11.946  14.358   7.736
 1064SOL     OW 4965   7.406   8.059   1.501
 1064SOL    HW1 4966   7.322   8.096   1.526
 1064SOL    HW2 4967   7.443   8.122   1.440
 1065SOL     OW 4968   1.954   1.355   3.898
 1065SOL    HW1 4969   1.877   1.327   3.848
 1065SOL    HW2 4970   2.020   1.287   3.880
 1066SOL     OW 4971   7.959   4.706   8.889
 1066SOL    HW1 4972   7.975   4.764   8.815
 1066SOL    HW2 4973   8.010   4.745   8.960
 1067SOL     OW 4974   7.995  10.179   5.888
 1067SOL    HW1 4975   7.948  10.212   5.964
 1067SOL    HW2 4976   8.078  10.227   5.888
 1068SOL     OW 4977   2.820   7.202  12.150
 1068SOL    HW1 4978   2.891   7.266  12.143
 1068SOL    HW2 4979   2.742   7.250  12.123
 1069SOL     OW 4980  10.581  13.397   6.901
 1069SOL    HW1 4981  10.603  13.433   6.814
 1069SOL    HW2 4982  10.662  13.357   6.931
 1070SOL     OW 4983   4.890  12.109  13.811
 1070SOL    HW1 4984   4.796  12.112  13.792
 1070SOL    HW2 4985   4.929  12.076  13.730
 1071SOL     OW 4986   7.000  10.654   7.805
 1071SOL    HW1 4987   7.026  10.746   7.813
 1071SOL    HW2 4988   6.916  10.648   7.850
 1072SOL     OW 4989   6.685   2.418  13.380
 1072SOL    HW1 4990   6.733   2.447  13.303
 1072SOL    HW2 4991   6.720   2.331  13.400
 1073SOL     OW 4992   3.592   4.581  11.724
 1073SOL    HW1 4993   3.685   4.586  11.749
 1073SOL    HW2 4994   3.565   4.493  11.750
 1074SOL     OW 4995   8.381   3.276   3.185
 1074SOL    HW1 4996   8.400   3.262   3.278
 1074SOL    HW2 4997   8.291   3.308   3.184
 1075SOL     OW 4998   3.391  12.764  13.986
 1075SOL    HW1 4999   3.473  12.800  13.952
 1075SOL    HW2 5000   3.350  12.722  13.910
 1076SOL     OW 5001   9.226  13.728   0.407
 1076SOL    HW1 5002   9.193  13.754   0.493
 1076SOL    HW2 5003   9.169  13.772   0.345
 1077SOL     OW 5004   6.447   8.638   8.216
 1077SOL    HW1 5005   6.499   8.588   8.280
 1077SOL    HW2 5006   6.483   8.613   8.131
 1078SOL     OW 5007   9.229   9.185  14.045
 1078SOL    HW1 5008   9.156   9.244  14.068
 1078SOL    HW2 5009   9.263   9.156  14.130
 1079SOL     OW 5010   2.218   8.727   9.780
 1079SOL    HW1 5011   2.229   8.647   9.728
 1079SOL    HW2 5012   2.289   8.724   9.844
 1080SOL     OW 5013  13.069   6.802   2.405
 1080SOL    HW1 5014  12.994   6.795   2.463
 1080SOL    HW2 5015  13.031   6.801   2.317
 1081SOL     OW 5016   7.395   2.214   4.237
 1081SOL    HW1 5017   7.417   2.122   4.249
 1081SOL    HW2 5018   7.479   2.257   4.222
 1082SOL     OW 5019   7.270   5.761   6.293
 1082SOL    HW1 5020   7.278   5.778   6.200
 1082SOL    HW2 5021   7.178   5.780   6.313
 1083SOL     OW 5022   6.228   4.156   3.545
 1083SOL    HW1 5023   6.239   4.061   3.545
 1083SOL    HW2 5024   6.134   4.170   3.552
 1084SOL     OW 5025   5.925   8.015  13.708
 1084SOL    HW1 5026   5.969   8.045  13.788
 1084SOL    HW2 5027   5.992   8.021  13.640
 1085SOL     OW 5028  10.225   8.952   5.820
 1085SOL    HW1 5029  10.271   8.886   5.768
 1085SOL    HW2 5030  10.166   8.995   5.757
 1086SOL     OW 5031   9.627   0.377   9.246
 1086SOL    HW1 5032   9.576   0.379   9.328
 1086SOL    HW2 5033   9.597   0.298   9.201
 1087SOL     OW 5034   0.934  12.625   6.932
 1087SOL    HW1 5035   0.957  12.591   6.846
 1087SOL    HW2 5036   0.838  12.624   6.934
 1088SOL     OW 5037  14.373  10.775   1.715
 1088SOL    HW1 5038  14.348  10.692   1.755
 1088SOL    HW2 5039  14.319  10.840   1.759
 1089SOL     OW 5040  11.263   8.144   3.632
 1089SOL    HW1 5041  11.344   8.157   3.583
 1089SOL    HW2 5042  11.260   8.050   3.648
 1090SOL     OW 5043   9.191  12.742   8.547
 1090SOL    HW1 5044   9.174  12.836   8.538
 1090SOL    HW2 5045   9.108  12.700   8.524
 1091SOL     OW 5046   0.864   2.327   2.886
 1091SOL    HW1 5047   0.900   2.239   2.871
 1091SOL    HW2 5048   0.771   2.312   2.903
 1092SOL     OW 5049   4.283  12.835   4.341
 1092SOL    HW1 5050   4.273  12.799   4.252
 1092SOL    HW2 5051   4.236  12.919   4.338
 1093SOL     OW 5052   7.970  14.079   5.539
 1093SOL    HW1 5053   7.923  14.042   5.613
 1093SOL    HW2 5054   8.013  14.158   5.575
 1094SOL     OW 5055  14.485   4.332   3.150
 1094SOL    HW1 5056  14.579   4.331   3.172
 1094SOL    HW2 5057  14.449   4.259   3.200
 1095SOL     OW 5058   5.857   4.203  13.256
 1095SOL    HW1 5059   5.782   4.243  13.301
 1095SOL    HW2 5060   5.834   4.111  13.248
 1096SOL     OW 5061  14.832   6.632   7.419
 1096SOL    HW1 5062  14.802   6.625   7.509
 1096SOL    HW2 5063   0.049   6.630   7.425
 1097SOL     OW 5064   3.491   9.766   7.754
 1097SOL    HW1 5065   3.396   9.773   7.741
 1097SOL    HW2 5066   3.523   9.854   7.738
 1098SOL     OW 5067  10.663   3.325   8.975
 1098SOL    HW1 5068  10.736   3.352   8.919
 1098SOL    HW2 5069  10.672   3.230   8.981
 1099SOL     OW 5070   0.863   0.957   5.776
 1099SOL    HW1 5071   0.952   0.976   5.746
 1099SOL    HW2 5072   0.875   0.899   5.851
 1100SOL     OW 5073  13.145   8.124  14.726
 1100SOL    HW1 5074  13.112   8.109  14.814
 1100SOL    HW2 5075  13.188   8.209  14.731
 1101SOL     OW 5076   5.580   3.889  11.110
 1101SOL    HW1 5077   5.532   3.811  11.082
 1101SOL    HW2 5078   5.513   3.958  11.112
 1102SOL     OW 5079   6.576   9.885   4.047
 1102SOL    HW1 5080   6.622   9.969   4.060
 1102SOL    HW2 5081   6.646   9.822   4.028
 1103SOL     OW 5082  13.394  12.284   2.131
 1103SOL    HW1 5083  13.365  12.238   2.053
 1103SOL    HW2 5084  13.378  12.223   2.203
 1104SOL     OW 5085  11.533   2.946  11.405
 1104SOL    HW1 5086  11.540   2.859  11.367
 1104SOL    HW2 5087  11.617   2.987  11.387
 1105SOL     OW 5088   1.479   8.544   7.155
 1105SOL    HW1 5089   1.461   8.511   7.068
 1105SOL    HW2 5090   1.495   8.638   7.142
 1106SOL     OW 5091   5.992   9.132   1.458
 1106SOL    HW1 5092   6.003   9.197   1.527
 1106SOL    HW2 5093   6.042   9.167   1.384
 1107SOL     OW 5094  10.297   0.356   2.442
 1107SOL    HW1 5095  10.293   0.403   2.526
 1107SOL    HW2 5096  10.212   0.314   2.435
 1108SOL     OW 5097   8.425   8.656  10.964
 1108SOL    HW1 5098   8.484   8.725  10.935
 1108SOL    HW2 5099   8.438   8.585  10.901
 1109SOL     OW 5100   9.611   8.532   6.833
 1109SOL    HW1 5101   9.665   8.471   6.882
 1109SOL    HW2 5102   9.672   8.580   6.778
 1110SOL     OW 5103   1.311   1.959   8.713
 1110SOL    HW1 5104   1.350   1.908   8.784
 1110SOL    HW2 5105   1.377   1.957   8.644
 1111SOL     OW 5106   5.711  13.505  11.883
 1111SOL    HW1 5107   5.651  13.461  11.942
 1111SOL    HW2 5108   5.759  13.567  11.938
 1112SOL     OW 5109   5.807   7.550   1.061
 1112SOL    HW1 5110   5.860   7.486   1.015
 1112SOL    HW2 5111   5.829   7.634   1.020
 1113SOL     OW 5112  12.384   9.295  13.009
 1113SOL    HW1 5113  12.431   9.222  12.969
 1113SOL    HW2 5114  12.438   9.320  13.085
 1114SOL     OW 5115   7.764   8.442   9.047
 1114SOL    HW1 5116   7.715   8.360   9.039
 1114SOL    HW2 5117   7.749   8.487   8.964
 1115SOL     OW 5118  12.141   3.840   5.166
 1115SOL    HW1 5119  12.071   3.788   5.205
 1115SOL    HW2 5120  12.133   3.926   5.207
 1116SOL     OW 5121   9.874   4.772   6.094
 1116SOL    HW1 5122   9.819   4.693   6.094
 1116SOL    HW2 5123   9.914   4.772   6.007
 1117SOL     OW 5124   5.970   6.879   0.601
 1117SOL    HW1 5125   6.018   6.898   0.521
 1117SOL    HW2 5126   6.024   6.814   0.647
 1118SOL     OW 5127  14.806   6.904  14.724
 1118SOL    HW1 5128  14.746   6.916  14.797
 1118SOL    HW2 5129  14.828   6.993  14.697
 1119SOL     OW 5130  11.761   2.247   9.777
 1119SOL    HW1 5131  11.709   2.240   9.697
 1119SOL    HW2 5132  11.703   2.214   9.846
 1120SOL     OW 5133   9.128   5.523  11.548
 1120SOL    HW1 5134   9.143   5.612  11.580
 1120SOL    HW2 5135   9.125   5.532  11.453
 1121SOL     OW 5136   5.618   4.719   5.455
 1121SOL    HW1 5137   5.529   4.715   5.420
 1121SOL    HW2 5138   5.637   4.630   5.484
 1122SOL     OW 5139   8.317  10.936   0.887
 1122SOL    HW1 5140   8.403  10.904   0.860
 1122SOL    HW2 5141   8.328  11.031   0.892
 1123SOL     OW 5142  11.846  13.085   7.815
 1123SOL    HW1 5143  11.803  13.002   7.834
 1123SOL    HW2 5144  11.786  13.131   7.756
 1124SOL     OW 5145   8.813  13.517   3.463
 1124SOL    HW1 5146   8.795  13.555   3.377
 1124SOL    HW2 5147   8.762  13.570   3.524
 1125SOL     OW 5148   0.013  14.118   6.861
 1125SOL    HW1 5149  14.818  14.064   6.831
 1125SOL    HW2 5150   0.091  14.076   6.826
 1126SOL     OW 5151   3.491  13.889  13.017
 1126SOL    HW1 5152   3.430  13.904  13.089
 1126SOL    HW2 5153   3.437  13.896  12.938
 1127SOL     OW 5154   4.144   3.688   3.165
 1127SOL    HW1 5155   4.190   3.756   3.215
 1127SOL    HW2 5156   4.198   3.609   3.177
 1128SOL     OW 5157   7.502   6.800   2.680
 1128SOL    HW1 5158   7.416   6.833   2.705
 1128SOL    HW2 5159   7.550   6.877   2.652
 1129SOL     OW 5160  14.598   6.956   9.423
 1129SOL    HW1 5161  14.684   6.993   9.444
 1129SOL    HW2 5162  14.574   6.905   9.500
 1130SOL     OW 5163   8.645   8.064   2.979
 1130SOL    HW1 5164   8.601   8.102   3.055
 1130SOL    HW2 5165   8.666   8.139   2.923
 1131SOL     OW 5166   0.429   8.314   0.964
 1131SOL    HW1 5167   0.433   8.386   0.901
 1131SOL    HW2 5168   0.362   8.341   1.027
 1132SOL     OW 5169   3.970  12.735  10.848
 1132SOL    HW1 5170   4.005  12.822  10.869
 1132SOL    HW2 5171   3.983  12.726  10.754
 1133SOL     OW 5172  14.257  13.847   0.492
 1133SOL    HW1 5173  14.276  13.802   0.410
 1133SOL    HW2 5174  14.234  13.936   0.466
 1134SOL     OW 5175   5.173   0.551  12.520
 1134SOL    HW1 5176   5.090   0.518  12.552
 1134SOL    HW2 5177   5.192   0.498  12.443
 1135SOL     OW 5178   3.194  14.399   3.307
 1135SOL    HW1 5179   3.232  14.311   3.306
 1135SOL    HW2 5180   3.218  14.434   3.392
 1136SOL     OW 5181   1.851   3.845   7.420
 1136SOL    HW1 5182   1.868   3.871   7.330
 1136SOL    HW2 5183   1.894   3.760   7.429
 1137SOL     OW 5184  12.586   7.012  12.887
 1137SOL    HW1 5185  12.505   7.062  12.877
 1137SOL    HW2 5186  12.581   6.975  12.975
 1138SOL     OW 5187   7.531   8.924   7.999
 1138SOL    HW1 5188   7.537   8.835   7.963
 1138SOL    HW2 5189   7.458   8.964   7.952
 1139SOL     OW 5190   6.417   6.713  13.688
 1139SOL    HW1 5191   6.444   6.804  13.702
 1139SOL    HW2 5192   6.499   6.664  13.683
 1140SOL     OW 5193   1.928   4.544   7.480
 1140SOL    HW1 5194   1.881   4.504   7.407
 1140SOL    HW2 5195   2.016   4.561   7.445
 1141SOL     OW 5196  12.979   3.513   0.513
 1141SOL    HW1 5197  12.888   3.508   0.483
 1141SOL    HW2 5198  12.991   3.605   0.536
 1142SOL     OW 5199   3.441   5.390   3.071
 1142SOL    HW1 5200   3.489   5.319   3.113
 1142SOL    HW2 5201   3.414   5.353   2.987
 1143SOL     OW 5202  14.062  13.764  13.735
 1143SOL    HW1 5203  14.143  13.794  13.775
 1143SOL    HW2 5204  13.995  13.824  13.770
 1144SOL     OW 5205   4.110   7.374   6.191
 1144SOL    HW1 5206   4.020   7.342   6.184
 1144SOL    HW2 5207   4.119   7.437   6.120
 1145SOL     OW 5208   8.032  11.090   6.312
 1145SOL    HW1 5209   8.077  11.161   6.358
 1145SOL    HW2 5210   7.949  11.079   6.358
 1146SOL     OW 5211   0.305   1.552   9.528
 1146SOL    HW1 5212   0.223   1.524   9.488
 1146SOL    HW2 5213   0.327   1.483   9.590
 1147SOL     OW 5214   1.359   9.814   9.678
 1147SOL    HW1 5215   1.285   9.758   9.653
 1147SOL    HW2 5216   1.397   9.841   9.595
 1148SOL     OW 5217   2.943   2.980   0.594
 1148SOL    HW1 5218   2.998   3.007   0.667
 1148SOL    HW2 5219   2.853   2.989   0.627
 1149SOL     OW 5220   0.364  11.171   8.676
 1149SOL    HW1 5221   0.331  11.093   8.631
 1149SOL    HW2 5222   0.299  11.187   8.745
 1150SOL     OW 5223   3.339  12.139  11.415
 1150SOL    HW1 5224   3.423  12.158  11.373
 1150SOL    HW2 5225   3.275  12.186  11.361
 1151SOL     OW 5226   6.370   8.248   5.180
 1151SOL    HW1 5227   6.359   8.325   5.123
 1151SOL    HW2 5228   6.458   8.216   5.160
 1152SOL     OW 5229   9.774   7.781   3.153
 1152SOL    HW1 5230   9.823   7.862   3.140
 1152SOL    HW2 5231   9.687   7.799   3.119
 1153SOL     OW 5232   7.437  13.171   5.592
 1153SOL    HW1 5233   7.399  13.127   5.515
 1153SOL    HW2 5234   7.397  13.258   5.592
 1154SOL     OW 5235   0.445   2.215   1.194
 1154SOL    HW1 5236   0.427   2.197   1.287
 1154SOL    HW2 5237   0.541   2.215   1.188
 1155SOL     OW 5238   8.479   2.489   0.564
 1155SOL    HW1 5239   8.559   2.511   0.516
 1155SOL    HW2 5240   8.421   2.564   0.551
 1156SOL     OW 5241   7.160   2.889  11.201
 1156SOL    HW1 5242   7.160   2.798  11.172
 1156SOL    HW2 5243   7.078   2.925  11.167
 1157SOL     OW 5244  14.141   6.565   9.905
 1157SOL    HW1 5245  14.148   6.542   9.813
 1157SOL    HW2 5246  14.231   6.567   9.937
 1158SOL     OW 5247   7.356   2.103   9.395
 1158SOL    HW1 5248   7.388   2.061   9.316
 1158SOL    HW2 5249   7.381   2.044   9.466
 1159SOL     OW 5250  14.081  14.629  13.943
 1159SOL    HW1 5251  14.015  14.695  13.925
 1159SOL    HW2 5252  14.098  14.637  14.037
 1160SOL     OW 5253   9.816   7.788  10.713
 1160SOL    HW1 5254   9.776   7.817  10.632
 1160SOL    HW2 5255   9.751   7.730  10.753
 1161SOL     OW 5256   0.917   0.273  10.500
 1161SOL    HW1 5257   1.008   0.299  10.511
 1161SOL    HW2 5258   0.903   0.274  10.406
 1162SOL     OW 5259   4.735   6.286   8.765
 1162SOL    HW1 5260   4.830   6.294   8.754
 1162SOL    HW2 5261   4.699   6.321   8.683
 1163SOL     OW 5262   6.492  11.003  10.802
 1163SOL    HW1 5263   6.412  10.990  10.753
 1163SOL    HW2 5264   6.475  10.961  10.887
 1164SOL     OW 5265  11.100   1.458   3.574
 1164SOL    HW1 5266  11.098   1.387   3.637
 1164SOL    HW2 5267  11.116   1.537   3.626
 1165SOL     OW 5268   5.196  14.580  10.720
 1165SOL    HW1 5269   5.210  14.669  10.753
 1165SOL    HW2 5270   5.205  14.587  10.625
 1166SOL     OW 5271  10.916   1.491  13.823
 1166SOL    HW1 5272  10.964   1.543  13.888
 1166SOL    HW2 5273  10.914   1.403  13.860
 1167SOL     OW 5274  10.258   3.957   5.309
 1167SOL    HW1 5275  10.352   3.975   5.305
 1167SOL    HW2 5276  10.217   4.042   5.292
 1168SOL     OW 5277   4.416   8.420   5.149
 1168SOL    HW1 5278   4.446   8.495   5.202
 1168SOL    HW2 5279   4.357   8.372   5.208
 1169SOL     OW 5280   6.454  12.171  14.317
 1169SOL    HW1 5281   6.496  12.109  14.377
 1169SOL    HW2 5282   6.436  12.119  14.238
 1170SOL     OW 5283  14.786  11.088  14.323
 1170SOL    HW1 5284  14.728  11.050  14.389
 1170SOL    HW2 5285  14.804  11.176  14.354
 1171SOL     OW 5286  12.915   5.993   7.144
 1171SOL    HW1 5287  12.965   5.992   7.063
 1171SOL    HW2 5288  12.953   5.923   7.197
 1172SOL     OW 5289   3.166  14.362   1.571
 1172SOL    HW1 5290   3.238  14.411   1.530
 1172SOL    HW2 5291   3.205  14.278   1.593
 1173SOL     OW 5292  11.046   8.109   0.458
 1173SOL    HW1 5293  11.064   8.172   0.528
 1173SOL    HW2 5294  11.040   8.024   0.504
 1174SOL     OW 5295   8.169   6.123  13.972
 1174SOL    HW1 5296   8.153   6.075  13.891
 1174SOL    HW2 5297   8.249   6.085  14.008
 1175SOL     OW 5298   5.825  11.015   3.786
 1175SOL    HW1 5299   5.893  11.032   3.721
 1175SOL    HW2 5300   5.873  10.985   3.863
 1176SOL     OW 5301   7.997   0.849   2.988
 1176SOL    HW1 5302   7.908   0.852   2.953
 1176SOL    HW2 5303   8.036   0.933   2.964
 1177SOL     OW 5304   5.908   2.660  12.168
 1177SOL    HW1 5305   5.883   2.720  12.238
 1177SOL    HW2 5306   5.994   2.628  12.193
 1178SOL     OW 5307  10.628  11.241  11.307
 1178SOL    HW1 5308  10.538  11.261  11.282
 1178SOL    HW2 5309  10.672  11.326  11.306
 1179SOL     OW 5310  10.696   2.907  12.106
 1179SOL    HW1 5311  10.631   2.948  12.048
 1179SOL    HW2 5312  10.644   2.858  12.170
 1180SOL     OW 5313   7.422   0.013   4.939
 1180SOL    HW1 5314   7.343  14.859   4.982
 1180SOL    HW2 5315   7.476  14.812   4.927
 1181SOL     OW 5316   7.482   8.940   9.561
 1181SOL    HW1 5317   7.566   8.894   9.564
 1181SOL    HW2 5318   7.476   8.974   9.471
 1182SOL     OW 5319  11.110  12.608   4.554
 1182SOL    HW1 5320  11.027  12.651   4.531
 1182SOL    HW2 5321  11.082  12.526   4.595
 1183SOL     OW 5322  14.703   2.110   8.092
 1183SOL    HW1 5323  14.677   2.050   8.162
 1183SOL    HW2 5324  14.786   2.147   8.122
 1184SOL     OW 5325  12.576   9.112  10.994
 1184SOL    HW1 5326  12.597   9.022  10.969
 1184SOL    HW2 5327  12.604   9.164  10.919
 1185SOL     OW 5328  13.166  10.075  11.939
 1185SOL    HW1 5329  13.105  10.147  11.930
 1185SOL    HW2 5330  13.211  10.069  11.855
 1186SOL     OW 5331  11.758  11.218   3.860
 1186SOL    HW1 5332  11.813  11.267   3.920
 1186SOL    HW2 5333  11.669  11.231   3.893
 1187SOL     OW 5334   6.437  12.150  13.670
 1187SOL    HW1 5335   6.389  12.233  13.662
 1187SOL    HW2 5336   6.391  12.103  13.740
 1188SOL     OW 5337  14.011   6.358   1.792
 1188SOL    HW1 5338  14.102   6.355   1.823
 1188SOL    HW2 5339  14.014   6.415   1.715
 1189SOL     OW 5340   6.096  12.796   9.806
 1189SOL    HW1 5341   6.132  12.800   9.717
 1189SOL    HW2 5342   6.072  12.704   9.817
 1190SOL     OW 5343   6.866   9.224   0.014
 1190SOL    HW1 5344   6.887   9.293   0.076
 1190SOL    HW2 5345   6.947   9.173   0.007
 1191SOL     OW 5346  14.740   0.233  10.874
 1191SOL    HW1 5347  14.797   0.169  10.918
 1191SOL    HW2 5348  14.792   0.313  10.872
 1192SOL     OW 5349   6.690  14.813   4.160
 1192SOL    HW1 5350   6.738  14.741   4.199
 1192SOL    HW2 5351   6.662  14.781   4.075
 1193SOL     OW 5352   4.678   1.533   0.769
 1193SOL    HW1 5353   4.634   1.461   0.724
 1193SOL    HW2 5354   4.608   1.594   0.790
 1194SOL     OW 5355  12.750   4.675  11.405
 1194SOL    HW1 5356  12.812   4.617  11.361
 1194SOL    HW2 5357  12.724   4.738  11.338
 1195SOL     OW 5358  10.318  10.068  12.774
 1195SOL    HW1 5359  10.343  10.064  12.681
 1195SOL    HW2 5360  10.394  10.032  12.820
 1196SOL     OW 5361   2.840  14.007   0.864
 1196SOL    HW1 5362   2.892  13.926   0.866
 1196SOL    HW2 5363   2.889  14.065   0.804
 1197SOL     OW 5364   2.123   1.719  12.929
 1197SOL    HW1 5365   2.141   1.643  12.873
 1197SOL    HW2 5366   2.114   1.792  12.869
 1198SOL     OW 5367   3.016   5.006   2.353
 1198SOL    HW1 5368   2.947   5.068   2.330
 1198SOL    HW2 5369   3.096   5.058   2.356
 1199SOL     OW 5370   6.159   5.433  13.589
 1199SOL    HW1 5371   6.079   5.443  13.538
 1199SOL    HW2 5372   6.172   5.518  13.630
 1200SOL     OW 5373   2.458  11.664   8.269
 1200SOL    HW1 5374   2.423  11.738   8.219
 1200SOL    HW2 5375   2.497  11.704   8.347
 1201SOL     OW 5376   6.862   0.583  13.903
 1201SOL    HW1 5377   6.778   0.563  13.943
 1201SOL    HW2 5378   6.847   0.666  13.857
 1202SOL     OW 5379  10.454   7.192  10.366
 1202SOL    HW1 5380  10.407   7.118  10.404
 1202SOL    HW2 5381  10.546   7.177  10.388
 1203SOL     OW 5382   8.044   2.417  13.514
 1203SOL    HW1 5383   8.077   2.349  13.573
 1203SOL    HW2 5384   7.960   2.444  13.552
 1204SOL     OW 5385   3.844  13.987   6.173
 1204SOL    HW1 5386   3.756  13.953   6.191
 1204SOL    HW2 5387   3.834  14.037   6.091
 1205SOL     OW 5388   4.683   4.011   8.314
 1205SOL    HW1 5389   4.594   3.978   8.307
 1205SOL    HW2 5390   4.739   3.935   8.298
 1206SOL     OW 5391   5.902   7.494  12.358
 1206SOL    HW1 5392   5.880   7.575  12.312
 1206SOL    HW2 5393   5.863   7.505  12.445
 1207SOL     OW 5394  13.626   2.204   4.028
 1207SOL    HW1 5395  13.690   2.140   4.060
 1207SOL    HW2 5396  13.678   2.282   4.009
 1208SOL     OW 5397  10.179  12.927   1.598
 1208SOL    HW1 5398  10.189  12.994   1.665
 1208SOL    HW2 5399  10.115  12.962   1.537
 1209SOL     OW 5400   7.069  10.603   5.961
 1209SOL    HW1 5401   7.068  10.619   5.866
 1209SOL    HW2 5402   7.135  10.536   5.973
 1210SOL     OW 5403   6.099  13.868  10.893
 1210SOL    HW1 5404   6.075  13.957  10.868
 1210SOL    HW2 5405   6.154  13.837  10.820
 1211SOL     OW 5406   6.329  10.418   4.974
 1211SOL    HW1 5407   6.369  10.349   5.027
 1211SOL    HW2 5408   6.262  10.373   4.923
 1212SOL     OW 5409   1.759   9.714   2.761
 1212SOL    HW1 5410   1.775   9.626   2.794
 1212SOL    HW2 5411   1.815   9.770   2.814
 1213SOL     OW 5412   8.917   7.894   3.027
 1213SOL    HW1 5413   8.976   7.840   2.975
 1213SOL    HW2 5414   8.873   7.950   2.962
 1214SOL     OW 5415   5.579  13.918   4.298
 1214SOL    HW1 5416   5.653  13.969   4.331
 1214SOL    HW2 5417   5.606  13.889   4.211
 1215SOL     OW 5418  13.497   3.047  13.712
 1215SOL    HW1 5419  13.491   2.991  13.789
 1215SOL    HW2 5420  13.540   2.993  13.646
 1216SOL     OW 5421  13.951   0.898   2.734
 1216SOL    HW1 5422  13.930   0.806   2.719
 1216SOL    HW2 5423  13.891   0.926   2.803
 1217SOL     OW 5424  10.834   3.145  11.294
 1217SOL    HW1 5425  10.811   3.230  11.256
 1217SOL    HW2 5426  10.930   3.144  11.292
 1218SOL     OW 5427  12.630  13.090   5.648
 1218SOL    HW1 5428  12.715  13.113   5.611
 1218SOL    HW2 5429  12.569  13.099   5.575
 1219SOL     OW 5430   7.819   2.176  10.681
 1219SOL    HW1 5431   7.781   2.264  10.692
 1219SOL    HW2 5432   7.906   2.183  10.720
 1220SOL     OW 5433   9.214   8.594   5.769
 1220SOL    HW1 5434   9.251   8.621   5.853
 1220SOL    HW2 5435   9.148   8.529   5.792
 1221SOL     OW 5436   7.936   5.028  13.373
 1221SOL    HW1 5437   7.907   4.984  13.453
 1221SOL    HW2 5438   7.991   4.962  13.329
 1222SOL     OW 5439  10.064  14.289   2.715
 1222SOL    HW1 5440  10.005  14.342   2.661
 1222SOL    HW2 5441  10.007  14.239   2.772
 1223SOL     OW 5442   0.672   3.688   9.885
 1223SOL    HW1 5443   0.700   3.671   9.795
 1223SOL    HW2 5444   0.754   3.699   9.934
 1224SOL     OW 5445   9.594  11.026   9.408
 1224SOL    HW1 5446   9.631  10.992   9.489
 1224SOL    HW2 5447   9.670  11.042   9.352
 1225SOL     OW 5448   1.888  13.939   3.865
 1225SOL    HW1 5449   1.958  14.001   3.850
 1225SOL    HW2 5450   1.868  13.903   3.779
 1226SOL     OW 5451   6.326   3.929   8.278
 1226SOL    HW1 5452   6.361   3.883   8.354
 1226SOL    HW2 5453   6.354   4.020   8.290
 1227SOL     OW 5454  13.110   6.894  12.167
 1227SOL    HW1 5455  13.077   6.979  12.195
 1227SOL    HW2 5456  13.092   6.891  12.073
 1228SOL     OW 5457   9.340  14.167   4.377
 1228SOL    HW1 5458   9.423  14.187   4.421
 1228SOL    HW2 5459   9.343  14.215   4.295
 1229SOL     OW 5460  13.886  10.105  12.919
 1229SOL    HW1 5461  13.864  10.173  12.855
 1229SOL    HW2 5462  13.854  10.139  13.002
 1230SOL     OW 5463  12.527  12.356   6.214
 1230SOL    HW1 5464  12.453  12.332   6.268
 1230SOL    HW2 5465  12.493  12.358   6.125
 1231SOL     OW 5466   1.136  12.198  14.852
 1231SOL    HW1 5467   1.223  12.163  14.868
 1231SOL    HW2 5468   1.124  12.263   0.043
 1232SOL     OW 5469   1.168   3.503   6.237
 1232SOL    HW1 5470   1.184   3.507   6.331
 1232SOL    HW2 5471   1.250   3.471   6.200
 1233SOL     OW 5472  12.545   7.539   1.326
 1233SOL    HW1 5473  12.599   7.567   1.252
 1233SOL    HW2 5474  12.595   7.467   1.366
 1234SOL     OW 5475   7.730   0.225   4.784
 1234SOL    HW1 5476   7.704   0.209   4.693
 1234SOL    HW2 5477   7.753   0.139   4.818
 1235SOL     OW 5478   5.777   2.630   8.313
 1235SOL    HW1 5479   5.716   2.561   8.287
 1235SOL    HW2 5480   5.819   2.657   8.232
 1236SOL     OW 5481   1.705   7.820   8.293
 1236SOL    HW1 5482   1.711   7.792   8.201
 1236SOL    HW2 5483   1.772   7.888   8.302
 1237SOL     OW 5484   8.971  12.660   9.079
 1237SOL    HW1 5485   8.966  12.663   9.175
 1237SOL    HW2 5486   8.881  12.653   9.050
 1238SOL     OW 5487  10.569   3.373   9.684
 1238SOL    HW1 5488  10.579   3.336   9.596
 1238SOL    HW2 5489  10.625   3.318   9.739
 1239SOL     OW 5490   0.672   4.207   6.356
 1239SOL    HW1 5491   0.753   4.164   6.330
 1239SOL    HW2 5492   0.678   4.214   6.452
 1240SOL     OW 5493  10.107  12.138   6.856
 1240SOL    HW1 5494  10.085  12.230   6.867
 1240SOL    HW2 5495  10.197  12.138   6.826
 1241SOL     OW 5496  11.680   1.140  12.363
 1241SOL    HW1 5497  11.610   1.203  12.376
 1241SOL    HW2 5498  11.648   1.082  12.294
 1242SOL     OW 5499  13.758   8.777   5.135
 1242SOL    HW1 5500  13.771   8.825   5.053
 1242SOL    HW2 5501  13.825   8.811   5.194
 1243SOL     OW 5502   6.017  14.259  12.328
 1243SOL    HW1 5503   6.064  14.336  12.360
 1243SOL    HW2 5504   6.043  14.189  12.387
 1244SOL     OW 5505   7.688  10.780  10.033
 1244SOL    HW1 5506   7.602  10.751  10.062
 1244SOL    HW2 5507   7.750  10.721  10.076
 1245SOL     OW 5508  14.809   7.337   4.353
 1245SOL    HW1 5509  14.786   7.303   4.267
 1245SOL    HW2 5510  14.734   7.390   4.379
 1246SOL     OW 5511   8.316  14.589  14.256
 1246SOL    HW1 5512   8.345  14.522  14.194
 1246SOL    HW2 5513   8.220  14.582  14.255
 1247SOL     OW 5514   2.669   7.235   5.696
 1247SOL    HW1 5515   2.689   7.144   5.721
 1247SOL    HW2 5516   2.655   7.232   5.602
 1248SOL     OW 5517   0.568   4.748   4.004
 1248SOL    HW1 5518   0.530   4.809   4.067
 1248SOL    HW2 5519   0.607   4.805   3.937
 1249SOL     OW 5520  12.218   4.925  10.933
 1249SOL    HW1 5521  12.218   4.845  10.986
 1249SOL    HW2 5522  12.145   4.913  10.872
 1250SOL     OW 5523   0.061  11.478   2.790
 1250SOL    HW1 5524   0.080  11.447   2.702
 1250SOL    HW2 5525  14.849  11.452   2.807
 1251SOL     OW 5526   8.272   2.063   4.343
 1251SOL    HW1 5527   8.271   2.036   4.435
 1251SOL    HW2 5528   8.212   2.002   4.299
 1252SOL     OW 5529   0.450   6.158  13.113
 1252SOL    HW1 5530   0.469   6.212  13.190
 1252SOL    HW2 5531   0.537   6.132  13.081
 1253SOL     OW 5532   1.769  14.507  11.850
 1253SOL    HW1 5533   1.811  14.435  11.803
 1253SOL    HW2 5534   1.810  14.586  11.815
 1254SOL     OW 5535   2.637  10.312   9.318
 1254SOL    HW1 5536   2.655  10.299   9.411
 1254SOL    HW2 5537   2.625  10.407   9.309
 1255SOL     OW 5538   2.892   4.455   9.298
 1255SOL    HW1 5539   2.925   4.486   9.382
 1255SOL    HW2 5540   2.963   4.472   9.236
 1256SOL     OW 5541   5.377   8.360   0.177
 1256SOL    HW1 5542   5.342   8.321   0.097
 1256SOL    HW2 5543   5.426   8.289   0.219
 1257SOL     OW 5544  10.195   4.621   2.892
 1257SOL    HW1 5545  10.177   4.548   2.833
 1257SOL    HW2 5546  10.120   4.680   2.881
 1258SOL     OW 5547   9.594  11.816   2.156
 1258SOL    HW1 5548   9.601  11.902   2.115
 1258SOL    HW2 5549   9.592  11.834   2.250
 1259SOL     OW 5550   6.303   3.636   2.336
 1259SOL    HW1 5551   6.307   3.679   2.250
 1259SOL    HW2 5552   6.395   3.619   2.358
 1260SOL     OW 5553   5.290  10.717   6.001
 1260SOL    HW1 5554   5.346  10.767   6.061
 1260SOL    HW2 5555   5.346  10.646   5.970
 1261SOL     OW 5556   6.282   0.876   5.538
 1261SOL    HW1 5557   6.352   0.937   5.517
 1261SOL    HW2 5558   6.202   0.928   5.535
 1262SOL     OW 5559   3.296  13.221   2.663
 1262SOL    HW1 5560   3.357  13.295   2.666
 1262SOL    HW2 5561   3.216  13.257   2.626
 1263SOL     OW 5562   7.107   9.122   2.696
 1263SOL    HW1 5563   7.099   9.197   2.755
 1263SOL    HW2 5564   7.102   9.046   2.754
 1264SOL     OW 5565  13.691   5.001  14.561
 1264SOL    HW1 5566  13.611   4.948  14.555
 1264SOL    HW2 5567  13.717   4.995  14.653
 1265SOL     OW 5568   8.479  13.957   0.397
 1265SOL    HW1 5569   8.480  13.866   0.428
 1265SOL    HW2 5570   8.396  13.967   0.351
 1266SOL     OW 5571  10.076  14.309   7.644
 1266SOL    HW1 5572   9.984  14.280   7.646
 1266SOL    HW2 5573  10.125  14.235   7.681
 1267SOL     OW 5574   7.176   1.616   8.198
 1267SOL    HW1 5575   7.264   1.585   8.221
 1267SOL    HW2 5576   7.141   1.548   8.140
 1268SOL     OW 5577   4.038  14.405  14.486
 1268SOL    HW1 5578   4.067  14.419  14.396
 1268SOL    HW2 5579   4.005  14.315  14.487
 1269SOL     OW 5580   3.585   5.003  14.277
 1269SOL    HW1 5581   3.623   4.993  14.189
 1269SOL    HW2 5582   3.597   5.096  14.297
 1270SOL     OW 5583  12.546   5.047   6.460
 1270SOL    HW1 5584  12.623   4.994   6.482
 1270SOL    HW2 5585  12.476   4.983   6.450
 1271SOL     OW 5586   6.941  13.835   2.130
 1271SOL    HW1 5587   6.880  13.898   2.091
 1271SOL    HW2 5588   6.904  13.815   2.216
 1272SOL     OW 5589  12.555   5.581   8.359
 1272SOL    HW1 5590  12.497   5.555   8.287
 1272SOL    HW2 5591  12.496   5.610   8.428
 1273SOL     OW 5592  14.804   3.029   6.123
 1273SOL    HW1 5593   0.003   3.085   6.115
 1273SOL    HW2 5594  14.781   3.032   6.216
 1274SOL     OW 5595   6.385   5.715   8.596
 1274SOL    HW1 5596   6.420   5.794   8.556
 1274SOL    HW2 5597   6.306   5.696   8.545
 1275SOL     OW 5598   3.860  12.802   6.356
 1275SOL    HW1 5599   3.923  12.870   6.379
 1275SOL    HW2 5600   3.909  12.720   6.361
 1276SOL     OW 5601   2.083   1.467   0.378
 1276SOL    HW1 5602   2.015   1.530   0.355
 1276SOL    HW2 5603   2.060   1.437   0.466
 1277SOL     OW 5604   3.773   7.905   7.048
 1277SOL    HW1 5605   3.779   7.830   6.988
 1277SOL    HW2 5606   3.700   7.882   7.106
 1278SOL     OW 5607   9.175   2.422   6.997
 1278SOL    HW1 5608   9.188   2.403   7.090
 1278SOL    HW2 5609   9.262   2.445   6.965
 1279SOL     OW 5610   9.988  13.701  13.909
 1279SOL    HW1 5611   9.945  13.709  13.994
 1279SOL    HW2 5612   9.961  13.780  13.861
 1280SOL     OW 5613  11.601   3.101   0.193
 1280SOL    HW1 5614  11.695   3.093   0.176
 1280SOL    HW2 5615  11.573   3.013   0.216
 1281SOL     OW 5616   8.397   2.205   5.203
 1281SOL    HW1 5617   8.379   2.131   5.262
 1281SOL    HW2 5618   8.345   2.277   5.239
 1282SOL     OW 5619   9.354   0.269   3.367
 1282SOL    HW1 5620   9.300   0.193   3.387
 1282SOL    HW2 5621   9.314   0.341   3.416
 1283SOL     OW 5622   3.440  14.582   3.550
 1283SOL    HW1 5623   3.347  14.563   3.564
 1283SOL    HW2 5624   3.461  14.646   3.619
 1284SOL     OW 5625   7.982   6.476  12.995
 1284SOL    HW1 5626   7.942   6.397  12.959
 1284SOL    HW2 5627   8.054   6.497  12.935
 1285SOL     OW 5628   9.154  11.696  10.547
 1285SOL    HW1 5629   9.084  11.683  10.611
 1285SOL    HW2 5630   9.169  11.609  10.510
 1286SOL     OW 5631  10.130   5.356   0.115
 1286SOL    HW1 5632  10.185   5.357   0.036
 1286SOL    HW2 5633  10.122   5.449   0.139
 1287SOL     OW 5634   3.979  14.218   8.985
 1287SOL    HW1 5635   3.952  14.151   8.922
 1287SOL    HW2 5636   4.010  14.169   9.061
 1288SOL     OW 5637   8.722   4.225   0.261
 1288SOL    HW1 5638   8.782   4.289   0.222
 1288SOL    HW2 5639   8.679   4.272   0.332
 1289SOL     OW 5640  11.917   6.498  12.486
 1289SOL    HW1 5641  11.984   6.539  12.540
 1289SOL    HW2 5642  11.916   6.406  12.514
 1290SOL     OW 5643  10.542   5.609   1.613
 1290SOL    HW1 5644  10.625   5.637   1.574
 1290SOL    HW2 5645  10.549   5.637   1.705
 1291SOL     OW 5646  13.923   8.225  14.030
 1291SOL    HW1 5647  13.893   8.261  13.947
 1291SOL    HW2 5648  13.954   8.301  14.080
 1292SOL     OW 5649   6.439   8.733  14.346
 1292SOL    HW1 5650   6.363   8.789  14.362
 1292SOL    HW2 5651   6.460   8.746  14.254
 1293SOL     OW 5652   4.847   7.548  14.429
 1293SOL    HW1 5653   4.791   7.626  14.421
 1293SOL    HW2 5654   4.924   7.579  14.476
 1294SOL     OW 5655   9.042  13.271   9.728
 1294SOL    HW1 5656   9.120  13.283   9.782
 1294SOL    HW2 5657   9.075  13.255   9.640
 1295SOL     OW 5658   2.340   6.663  13.386
 1295SOL    HW1 5659   2.307   6.752  13.397
 1295SOL    HW2 5660   2.375   6.640  13.472
 1296SOL     OW 5661  11.377   7.363  12.461
 1296SOL    HW1 5662  11.454   7.320  12.425
 1296SOL    HW2 5663  11.317   7.292  12.483
 1297SOL     OW 5664   1.855   7.049  12.080
 1297SOL    HW1 5665   1.801   7.096  12.016
 1297SOL    HW2 5666   1.793   6.991  12.124
 1298SOL     OW 5667  11.773   3.502   3.502
 1298SOL    HW1 5668  11.686   3.541   3.506
 1298SOL    HW2 5669  11.826   3.555   3.562
 1299SOL     OW 5670  12.156   9.827  13.730
 1299SOL    HW1 5671  12.249   9.852  13.730
 1299SOL    HW2 5672  12.110   9.910  13.744
 1300SOL     OW 5673  11.619  14.680   4.036
 1300SOL    HW1 5674  11.706  14.664   4.073
 1300SOL    HW2 5675  11.565  14.608   4.071
 1301SOL     OW 5676   0.173  10.691   6.364
 1301SOL    HW1 5677   0.144  10.743   6.289
 1301SOL    HW2 5678   0.260  10.661   6.339
 1302SOL     OW 5679   9.828  13.288  11.359
 1302SOL    HW1 5680   9.790  13.214  11.311
 1302SOL    HW2 5681   9.923  13.279  11.346
 1303SOL     OW 5682   1.711  13.151   3.294
 1303SOL    HW1 5683   1.751  13.067   3.274
 1303SOL    HW2 5684   1.638  13.130   3.352
 1304SOL     OW 5685  10.713  13.863  10.025
 1304SOL    HW1 5686  10.800  13.867  10.065
 1304SOL    HW2 5687  10.653  13.874  10.099
 1305SOL     OW 5688   5.220   5.165   5.090
 1305SOL    HW1 5689   5.262   5.208   5.164
 1305SOL    HW2 5690   5.212   5.233   5.023
 1306SOL     OW 5691   7.577   5.983  10.270
 1306SOL    HW1 5692   7.496   6.026  10.242
 1306SOL    HW2 5693   7.626   5.969  10.189
 1307SOL     OW 5694   0.938   8.046  11.541
 1307SOL    HW1 5695   0.989   7.966  11.528
 1307SOL    HW2 5696   0.972   8.108  11.476
 1308SOL     OW 5697   9.904   3.808   5.862
 1308SOL    HW1 5698   9.857   3.854   5.932
 1308SOL    HW2 5699   9.880   3.854   5.782
 1309SOL     OW 5700  13.603   1.484   8.617
 1309SOL    HW1 5701  13.674   1.426   8.645
 1309SOL    HW2 5702  13.540   1.427   8.574
 1310SOL     OW 5703   3.139   0.958   2.758
 1310SOL    HW1 5704   3.218   1.000   2.792
 1310SOL    HW2 5705   3.171   0.883   2.708
 1311SOL     OW 5706   9.352   7.181   6.001
 1311SOL    HW1 5707   9.303   7.260   5.977
 1311SOL    HW2 5708   9.419   7.173   5.933
 1312SOL     OW 5709   8.896   7.007   0.987
 1312SOL    HW1 5710   8.890   7.053   0.903
 1312SOL    HW2 5711   8.972   7.045   1.030
 1313SOL     OW 5712   4.319   7.181   8.926
 1313SOL    HW1 5713   4.318   7.185   8.830
 1313SOL    HW2 5714   4.227   7.184   8.952
 1314SOL     OW 5715   8.601   4.564   7.648
 1314SOL    HW1 5716   8.565   4.504   7.583
 1314SOL    HW2 5717   8.548   4.643   7.641
 1315SOL     OW 5718  11.634   2.368   2.883
 1315SOL    HW1 5719  11.652   2.454   2.846
 1315SOL    HW2 5720  11.539   2.363   2.889
 1316SOL     OW 5721  14.284  10.660   5.202
 1316SOL    HW1 5722  14.352  10.702   5.255
 1316SOL    HW2 5723  14.293  10.698   5.115
 1317SOL     OW 5724  13.201   4.827  11.139
 1317SOL    HW1 5725  13.186   4.800  11.048
 1317SOL    HW2 5726  13.154   4.910  11.148
 1318SOL     OW 5727  13.017  12.680  10.944
 1318SOL    HW1 5728  13.023  12.585  10.953
 1318SOL    HW2 5729  13.105  12.712  10.965
 1319SOL     OW 5730   1.046  12.048   8.617
 1319SOL    HW1 5731   1.000  11.969   8.647
 1319SOL    HW2 5732   1.049  12.104   8.694
 1320SOL     OW 5733  14.221   7.721   3.271
 1320SOL    HW1 5734  14.301   7.709   3.220
 1320SOL    HW2 5735  14.199   7.634   3.303
 1321SOL     OW 5736   5.560  13.479   4.466
 1321SOL    HW1 5737   5.493  13.507   4.404
 1321SOL    HW2 5738   5.619  13.424   4.414
 1322SOL     OW 5739   0.701  12.598   5.359
 1322SOL    HW1 5740   0.729  12.662   5.424
 1322SOL    HW2 5741   0.737  12.515   5.390
 1323SOL     OW 5742  13.343   1.357   0.383
 1323SOL    HW1 5743  13.275   1.341   0.316
 1323SOL    HW2 5744  13.322   1.444   0.417
 1324SOL     OW 5745   0.756   9.315   2.900
 1324SOL    HW1 5746   0.719   9.284   2.982
 1324SOL    HW2 5747   0.715   9.401   2.887
 1325SOL     OW 5748   1.111   2.129  10.707
 1325SOL    HW1 5749   1.176   2.191  10.741
 1325SOL    HW2 5750   1.027   2.165  10.736
 1326SOL     OW 5751  14.183  14.168   3.645
 1326SOL    HW1 5752  14.252  14.113   3.682
 1326SOL    HW2 5753  14.213  14.257   3.660
 1327SOL     OW 5754   6.894  13.389   6.469
 1327SOL    HW1 5755   6.921  13.353   6.553
 1327SOL    HW2 5756   6.952  13.346   6.405
 1328SOL     OW 5757  11.661   5.337   5.898
 1328SOL    HW1 5758  11.581   5.361   5.850
 1328SOL    HW2 5759  11.729   5.335   5.830
 1329SOL     OW 5760  13.867   1.813   0.174
 1329SOL    HW1 5761  13.883   1.830   0.266
 1329SOL    HW2 5762  13.816   1.889   0.144
 1330SOL     OW 5763   5.227   8.757   4.999
 1330SOL    HW1 5764   5.256   8.749   4.908
 1330SOL    HW2 5765   5.228   8.667   5.032
 1331SOL     OW 5766   1.583   3.027   8.408
 1331SOL    HW1 5767   1.561   3.045   8.317
 1331SOL    HW2 5768   1.665   3.074   8.423
 1332SOL     OW 5769   3.438   8.595   1.145
 1332SOL    HW1 5770   3.472   8.564   1.229
 1332SOL    HW2 5771   3.388   8.521   1.110
 1333SOL     OW 5772   1.120   9.934   0.454
 1333SOL    HW1 5773   1.110  10.029   0.448
 1333SOL    HW2 5774   1.036   9.900   0.422
 1334SOL     OW 5775   9.170   6.535   8.466
 1334SOL    HW1 5776   9.155   6.618   8.510
 1334SOL    HW2 5777   9.097   6.479   8.494
 1335SOL     OW 5778   8.337   4.751  12.859
 1335SOL    HW1 5779   8.430   4.748  12.880
 1335SOL    HW2 5780   8.295   4.775  12.941
 1336SOL     OW 5781   4.089   8.950  12.475
 1336SOL    HW1 5782   4.057   9.040  12.482
 1336SOL    HW2 5783   4.109   8.925  12.565
 1337SOL     OW 5784   1.248  12.539   9.509
 1337SOL    HW1 5785   1.306  12.515   9.581
 1337SOL    HW2 5786   1.307  12.565   9.438
 1338SOL     OW 5787  13.638   1.453   7.401
 1338SOL    HW1 5788  13.588   1.446   7.482
 1338SOL    HW2 5789  13.581   1.503   7.342
 1339SOL     OW 5790   0.529   5.735   6.499
 1339SOL    HW1 5791   0.486   5.787   6.430
 1339SOL    HW2 5792   0.470   5.742   6.574
 1340SOL     OW 5793  11.112   3.095   8.514
 1340SOL    HW1 5794  11.103   3.002   8.535
 1340SOL    HW2 5795  11.206   3.112   8.517
 1341SOL     OW 5796   8.609   5.468   0.682
 1341SOL    HW1 5797   8.621   5.541   0.742
 1341SOL    HW2 5798   8.698   5.440   0.660
 1342SOL     OW 5799   2.221   5.722   1.812
 1342SOL    HW1 5800   2.191   5.702   1.901
 1342SOL    HW2 5801   2.314   5.742   1.822
 1343SOL     OW 5802   4.490   3.788   8.666
 1343SOL    HW1 5803   4.519   3.738   8.589
 1343SOL    HW2 5804   4.399   3.809   8.647
 1344SOL     OW 5805  13.789   0.652   9.347
 1344SOL    HW1 5806  13.862   0.606   9.388
 1344SOL    HW2 5807  13.818   0.743   9.340
 1345SOL     OW 5808  14.301   0.660   2.060
 1345SOL    HW1 5809  14.396   0.652   2.058
 1345SOL    HW2 5810  14.276   0.632   2.148
 1346SOL     OW 5811   1.649   4.736  11.148
 1346SOL    HW1 5812   1.557   4.759  11.163
 1346SOL    HW2 5813   1.649   4.696  11.061
 1347SOL     OW 5814  11.251  13.765   0.026
 1347SOL    HW1 5815  11.281  13.838   0.081
 1347SOL    HW2 5816  11.315  13.763  14.832
 1348SOL     OW 5817   6.657   7.055   5.803
 1348SOL    HW1 5818   6.678   7.142   5.836
 1348SOL    HW2 5819   6.571   7.035   5.840
 1349SOL     OW 5820   2.490   5.717   3.915
 1349SOL    HW1 5821   2.521   5.670   3.992
 1349SOL    HW2 5822   2.557   5.702   3.848
 1350SOL     OW 5823   3.843  10.275  13.888
 1350SOL    HW1 5824   3.847  10.275  13.792
 1350SOL    HW2 5825   3.868  10.365  13.912
 1351SOL     OW 5826   8.202   8.780   4.988
 1351SOL    HW1 5827   8.140   8.775   4.916
 1351SOL    HW2 5828   8.288   8.771   4.946
 1352SOL     OW 5829   1.554   1.160  13.282
 1352SOL    HW1 5830   1.496   1.130  13.211
 1352SOL    HW2 5831   1.516   1.122  13.361
 1353SOL     OW 5832  13.339   0.228   5.641
 1353SOL    HW1 5833  13.272   0.203   5.704
 1353SOL    HW2 5834  13.370   0.314   5.671
 1354SOL     OW 5835   7.989   3.120   4.452
 1354SOL    HW1 5836   8.033   3.076   4.380
 1354SOL    HW2 5837   8.057   3.168   4.497
 1355SOL     OW 5838   1.870   0.364   7.024
 1355SOL    HW1 5839   1.873   0.380   7.118
 1355SOL    HW2 5840   1.820   0.437   6.988
 1356SOL     OW 5841   0.562   5.665   2.154
 1356SOL    HW1 5842   0.535   5.596   2.093
 1356SOL    HW2 5843   0.588   5.738   2.097
 1357SOL     OW 5844   8.940   5.275   6.958
 1357SOL    HW1 5845   8.978   5.215   6.894
 1357SOL    HW2 5846   8.883   5.333   6.907
 1358SOL     OW 5847   5.908   6.368   0.082
 1358SOL    HW1 5848   5.952   6.413   0.009
 1358SOL    HW2 5849   5.820   6.403   0.082
 1359SOL     OW 5850   0.300   5.439   7.256
 1359SOL    HW1 5851   0.336   5.462   7.170
 1359SOL    HW2 5852   0.208   5.418   7.239
 1360SOL     OW 5853   5.198   1.216   7.380
 1360SOL    HW1 5854   5.149   1.228   7.462
 1360SOL    HW2 5855   5.258   1.143   7.399
 1361SOL     OW 5856   3.838  12.215   5.837
 1361SOL    HW1 5857   3.834  12.150   5.766
 1361SOL    HW2 5858   3.768  12.189   5.897
 1362SOL     OW 5859   4.191   6.412   0.580
 1362SOL    HW1 5860   4.114   6.442   0.531
 1362SOL    HW2 5861   4.255   6.389   0.512
 1363SOL     OW 5862   0.652   5.881  12.087
 1363SOL    HW1 5863   0.623   5.791  12.102
 1363SOL    HW2 5864   0.610   5.931  12.157
 1364SOL     OW 5865  14.375  12.058   8.558
 1364SOL    HW1 5866  14.322  11.998   8.505
 1364SOL    HW2 5867  14.450  12.080   8.502
 1365SOL     OW 5868  13.989   3.903   4.287
 1365SOL    HW1 5869  13.919   3.856   4.241
 1365SOL    HW2 5870  13.944   3.975   4.331
 1366SOL     OW 5871  13.582   3.074   9.593
 1366SOL    HW1 5872  13.545   3.125   9.665
 1366SOL    HW2 5873  13.540   2.989   9.600
 1367SOL     OW 5874   3.823   2.652  11.890
 1367SOL    HW1 5875   3.742   2.670  11.842
 1367SOL    HW2 5876   3.886   2.627  11.823
 1368SOL     OW 5877   2.633  10.345   2.753
 1368SOL    HW1 5878   2.671  10.403   2.819
 1368SOL    HW2 5879   2.659  10.257   2.780
 1369SOL     OW 5880   0.765   0.446  14.181
 1369SOL    HW1 5881   0.688   0.498  14.161
 1369SOL    HW2 5882   0.837   0.492  14.138
 1370SOL     OW 5883   4.980   0.392  10.724
 1370SOL    HW1 5884   5.020   0.462  10.672
 1370SOL    HW2 5885   5.051   0.358  10.778
 1371SOL     OW 5886   0.868  14.387  13.303
 1371SOL    HW1 5887   0.884  14.411  13.211
 1371SOL    HW2 5888   0.954  14.362  13.337
 1372SOL     OW 5889  10.691   2.692   9.256
 1372SOL    HW1 5890  10.628   2.673   9.186
 1372SOL    HW2 5891  10.746   2.614   9.260
 1373SOL     OW 5892  11.843   5.250  10.838
 1373SOL    HW1 5893  11.777   5.320  10.842
 1373SOL    HW2 5894  11.924   5.295  10.814
 1374SOL     OW 5895  13.015  10.450  10.414
 1374SOL    HW1 5896  13.078  10.392  10.372
 1374SOL    HW2 5897  13.056  10.471  10.498
 1375SOL     OW 5898   6.235   4.751   2.144
 1375SOL    HW1 5899   6.259   4.842   2.129
 1375SOL    HW2 5900   6.217   4.746   2.238
 1376SOL     OW 5901  11.636   6.455   0.804
 1376SOL    HW1 5902  11.677   6.501   0.730
 1376SOL    HW2 5903  11.551   6.426   0.770
 1377SOL     OW 5904   0.406  13.632  12.906
 1377SOL    HW1 5905   0.478  13.681  12.945
 1377SOL    HW2 5906   0.327  13.668  12.946
 1378SOL     OW 5907   4.900   1.341  13.491
 1378SOL    HW1 5908   4.807   1.322  13.487
 1378SOL    HW2 5909   4.905   1.429  13.530
 1379SOL     OW 5910  12.701   0.324   8.281
 1379SOL    HW1 5911  12.784   0.362   8.311
 1379SOL    HW2 5912  12.647   0.400   8.259
 1380SOL     OW 5913  14.125   7.933   4.812
 1380SOL    HW1 5914  14.117   7.861   4.749
 1380SOL    HW2 5915  14.218   7.952   4.814
 1381SOL     OW 5916   9.093  13.588   5.935
 1381SOL    HW1 5917   9.016  13.559   5.984
 1381SOL    HW2 5918   9.078  13.556   5.846
 1382SOL     OW 5919   9.382   5.617   5.416
 1382SOL    HW1 5920   9.385   5.709   5.442
 1382SOL    HW2 5921   9.470   5.598   5.384
 1383SOL     OW 5922   4.328  13.036   8.255
 1383SOL    HW1 5923   4.330  13.093   8.332
 1383SOL    HW2 5924   4.347  13.094   8.181
 1384SOL     OW 5925  14.413   7.935  10.272
 1384SOL    HW1 5926  14.496   7.916  10.315
 1384SOL    HW2 5927  14.363   7.853  10.280
 1385SOL     OW 5928  12.160   1.773   9.191
 1385SOL    HW1 5929  12.078   1.752   9.146
 1385SOL    HW2 5930  12.160   1.718   9.269
 1386SOL     OW 5931  14.234   6.683   6.981
 1386SOL    HW1 5932  14.174   6.757   6.979
 1386SOL    HW2 5933  14.321   6.723   6.973
 1387SOL     OW 5934   3.865   1.865  10.848
 1387SOL    HW1 5935   3.956   1.839  10.836
 1387SOL    HW2 5936   3.828   1.799  10.907
 1388SOL     OW 5937   8.206   8.562   1.175
 1388SOL    HW1 5938   8.120   8.601   1.193
 1388SOL    HW2 5939   8.250   8.559   1.260
 1389SOL     OW 5940   7.175   7.210   8.228
 1389SOL    HW1 5941   7.089   7.243   8.253
 1389SOL    HW2 5942   7.176   7.217   8.133
 1390SOL     OW 5943  13.082   2.660   2.986
 1390SOL    HW1 5944  13.018   2.720   2.949
 1390SOL    HW2 5945  13.098   2.692   3.075
 1391SOL     OW 5946   8.912   7.262  10.993
 1391SOL    HW1 5947   8.919   7.353  10.963
 1391SOL    HW2 5948   8.992   7.220  10.961
 1392SOL     OW 5949  11.112   6.746   9.496
 1392SOL    HW1 5950  11.146   6.656   9.499
 1392SOL    HW2 5951  11.190   6.801   9.485
 1393SOL     OW 5952  12.186   1.389   3.083
 1393SOL    HW1 5953  12.246   1.340   3.138
 1393SOL    HW2 5954  12.163   1.328   3.012
 1394SOL     OW 5955   8.752   2.611   5.665
 1394SOL    HW1 5956   8.709   2.682   5.713
 1394SOL    HW2 5957   8.736   2.533   5.718
 1395SOL     OW 5958  10.708   1.235   0.312
 1395SOL    HW1 5959  10.666   1.321   0.309
 1395SOL    HW2 5960  10.639   1.176   0.342
 1396SOL     OW 5961  11.366   0.679   1.654
 1396SOL    HW1 5962  11.338   0.685   1.746
 1396SOL    HW2 5963  11.451   0.637   1.658
 1397SOL     OW 5964  13.162   5.611  11.389
 1397SOL    HW1 5965  13.164   5.559  11.308
 1397SOL    HW2 5966  13.253   5.614  11.418
 1398SOL     OW 5967  10.670  11.268   3.628
 1398SOL    HW1 5968  10.732  11.342   3.629
 1398SOL    HW2 5969  10.657  11.250   3.535
 1399SOL     OW 5970  13.000   1.651   4.035
 1399SOL    HW1 5971  12.919   1.702   4.029
 1399SOL    HW2 5972  13.048   1.691   4.107
 1400SOL     OW 5973   1.877   5.553  14.111
 1400SOL    HW1 5974   1.967   5.550  14.144
 1400SOL    HW2 5975   1.851   5.461  14.104
 1401SOL     OW 5976   5.814   8.553   5.144
 1401SOL    HW1 5977   5.741   8.608   5.172
 1401SOL    HW2 5978   5.847   8.595   5.064
 1402SOL     OW 5979  12.032   0.117  12.138
 1402SOL    HW1 5980  12.061   0.207  12.122
 1402SOL    HW2 5981  11.938   0.124  12.152
 1403SOL     OW 5982   4.052   8.334   0.913
 1403SOL    HW1 5983   3.965   8.294   0.916
 1403SOL    HW2 5984   4.035   8.428   0.908
 1404SOL     OW 5985   9.118  13.766   4.948
 1404SOL    HW1 5986   9.080  13.730   5.028
 1404SOL    HW2 5987   9.204  13.725   4.942
 1405SOL     OW 5988   9.218  11.405  13.975
 1405SOL    HW1 5989   9.197  11.393  14.067
 1405SOL    HW2 5990   9.139  11.377  13.928
 1406SOL     OW 5991   6.805   0.841  14.552
 1406SOL    HW1 5992   6.816   0.780  14.479
 1406SOL    HW2 5993   6.777   0.923  14.511
 1407SOL     OW 5994  12.748  12.510  10.948
 1407SOL    HW1 5995  12.754  12.604  10.932
 1407SOL    HW2 5996  12.786  12.499  11.035
 1408SOL     OW 5997  11.051   3.154   7.018
 1408SOL    HW1 5998  11.087   3.170   7.106
 1408SOL    HW2 5999  10.993   3.078   7.030
 1409SOL     OW 6000  13.469   0.089  14.480
 1409SOL    HW1 6001  13.437   0.159  14.423
 1409SOL    HW2 6002  13.497   0.134  14.560
 1410SOL     OW 6003  13.769   5.695  11.929
 1410SOL    HW1 6004  13.807   5.622  11.880
 1410SOL    HW2 6005  13.838   5.761  11.931
 1411SOL     OW 6006   7.582  12.373   1.379
 1411SOL    HW1 6007   7.622  12.296   1.419
 1411SOL    HW2 6008   7.554  12.343   1.292
 1412SOL     OW 6009   4.600  14.559   7.755
 1412SOL    HW1 6010   4.611  14.467   7.779
 1412SOL    HW2 6011   4.667  14.606   7.807
 1413SOL     OW 6012  11.844   5.592   7.915
 1413SOL    HW1 6013  11.781   5.638   7.859
 1413SOL    HW2 6014  11.831   5.499   7.893
 1414SOL     OW 6015  11.881   0.460  14.320
 1414SOL    HW1 6016  11.930   0.378  14.327
 1414SOL    HW2 6017  11.828   0.449  14.241
 1415SOL     OW 6018  12.836  10.194   9.995
 1415SOL    HW1 6019  12.784  10.259   9.947
 1415SOL    HW2 6020  12.781  10.116   9.995
 1416SOL     OW 6021   7.981  10.251   5.018
 1416SOL    HW1 6022   7.931  10.205   5.085
 1416SOL    HW2 6023   7.968  10.344   5.038
 1417SOL     OW 6024  12.028  10.711   1.292
 1417SOL    HW1 6025  11.997  10.798   1.266
 1417SOL    HW2 6026  12.025  10.659   1.212
 1418SOL     OW 6027   5.220  14.101   8.683
 1418SOL    HW1 6028   5.202  14.162   8.755
 1418SOL    HW2 6029   5.183  14.018   8.712
 1419SOL     OW 6030  10.389  14.865   6.263
 1419SOL    HW1 6031  10.369  14.835   6.351
 1419SOL    HW2 6032  10.303  14.874   6.221
 1420SOL     OW 6033  11.184  13.730   3.241
 1420SOL    HW1 6034  11.239  13.747   3.164
 1420SOL    HW2 6035  11.152  13.641   3.228
 1421SOL     OW 6036   3.849   9.351   9.926
 1421SOL    HW1 6037   3.908   9.324   9.855
 1421SOL    HW2 6038   3.763   9.356   9.884
 1422SOL     OW 6039   6.798  11.900  13.345
 1422SOL    HW1 6040   6.722  11.843  13.360
 1422SOL    HW2 6041   6.773  11.953  13.270
 1423SOL     OW 6042   4.387  11.146  13.417
 1423SOL    HW1 6043   4.480  11.136  13.437
 1423SOL    HW2 6044   4.361  11.063  13.379
 1424SOL     OW 6045   2.891  14.379   1.426
 1424SOL    HW1 6046   2.984  14.393   1.445
 1424SOL    HW2 6047   2.853  14.466   1.426
 1425SOL     OW 6048   8.179   0.901   1.250
 1425SOL    HW1 6049   8.239   0.925   1.180
 1425SOL    HW2 6050   8.234   0.897   1.328
 1426SOL     OW 6051  14.736  11.783  13.618
 1426SOL    HW1 6052  14.755  11.764  13.526
 1426SOL    HW2 6053  14.667  11.720  13.642
 1427SOL     OW 6054   9.322   8.839   7.719
 1427SOL    HW1 6055   9.324   8.895   7.797
 1427SOL    HW2 6056   9.394   8.777   7.733
 1428SOL     OW 6057   6.210   6.213   0.322
 1428SOL    HW1 6058   6.241   6.190   0.234
 1428SOL    HW2 6059   6.263   6.288   0.347
 1429SOL     OW 6060  14.215  13.650  12.598
 1429SOL    HW1 6061  14.223  13.737  12.637
 1429SOL    HW2 6062  14.298  13.607  12.619
 1430SOL     OW 6063   2.357   2.776   6.265
 1430SOL    HW1 6064   2.348   2.699   6.209
 1430SOL    HW2 6065   2.345   2.850   6.205
 1431SOL     OW 6066   9.082   6.177   0.566
 1431SOL    HW1 6067   9.155   6.127   0.601
 1431SOL    HW2 6068   9.123   6.246   0.513
 1432SOL     OW 6069   8.144  13.868   6.983
 1432SOL    HW1 6070   8.186  13.893   7.065
 1432SOL    HW2 6071   8.087  13.795   7.007
 1433SOL     OW 6072   2.725   6.372   8.858
 1433SOL    HW1 6073   2.683   6.396   8.941
 1433SOL    HW2 6074   2.665   6.404   8.791
 1434SOL     OW 6075   6.014   3.423  12.220
 1434SOL    HW1 6076   6.037   3.508  12.181
 1434SOL    HW2 6077   6.097   3.383  12.242
 1435SOL     OW 6078   1.266   5.889  13.372
 1435SOL    HW1 6079   1.297   5.927  13.454
 1435SOL    HW2 6080   1.190   5.836  13.397
 1436SOL     OW 6081   0.581   3.221   2.414
 1436SOL    HW1 6082   0.550   3.232   2.504
 1436SOL    HW2 6083   0.583   3.310   2.378
 1437SOL     OW 6084   7.127  10.860   5.395
 1437SOL    HW1 6085   7.211  10.817   5.408
 1437SOL    HW2 6086   7.089  10.865   5.483
 1438SOL     OW 6087   0.200   4.187   4.180
 1438SOL    HW1 6088   0.135   4.177   4.111
 1438SOL    HW2 6089   0.156   4.242   4.246
 1439SOL     OW 6090  14.221   8.073  11.460
 1439SOL    HW1 6091  14.284   8.083  11.389
 1439SOL    HW2 6092  14.186   7.985  11.449
 1440SOL     OW 6093  14.206  12.291  11.403
 1440SOL    HW1 6094  14.143  12.349  11.362
 1440SOL    HW2 6095  14.228  12.333  11.486
 1441SOL     OW 6096   6.553   0.782   5.790
 1441SOL    HW1 6097   6.614   0.731   5.842
 1441SOL    HW2 6098   6.600   0.864   5.771
 1442SOL     OW 6099  12.258  14.405  13.514
 1442SOL    HW1 6100  12.309  14.484  13.499
 1442SOL    HW2 6101  12.255  14.396  13.610
 1443SOL     OW 6102   9.203  12.486   3.430
 1443SOL    HW1 6103   9.191  12.470   3.337
 1443SOL    HW2 6104   9.114  12.489   3.466
 1444SOL     OW 6105   4.635   4.791   7.754
 1444SOL    HW1 6106   4.726   4.820   7.761
 1444SOL    HW2 6107   4.623   4.771   7.662
 1445SOL     OW 6108   2.624  10.081   5.651
 1445SOL    HW1 6109   2.682  10.011   5.679
 1445SOL    HW2 6110   2.609  10.134   5.730
 1446SOL     OW 6111   9.099   6.037  14.225
 1446SOL    HW1 6112   9.144   6.100  14.169
 1446SOL    HW2 6113   9.124   5.952  14.190
 1447SOL     OW 6114   0.722   4.959  10.617
 1447SOL    HW1 6115   0.659   5.019  10.656
 1447SOL    HW2 6116   0.803   4.973  10.666
 1448SOL     OW 6117   7.359   7.140   2.858
 1448SOL    HW1 6118   7.337   7.047   2.847
 1448SOL    HW2 6119   7.275   7.182   2.876
 1449SOL     OW 6120  10.547   2.057   9.634
 1449SOL    HW1 6121  10.590   1.972   9.649
 1449SOL    HW2 6122  10.588   2.091   9.555
 1450SOL     OW 6123   7.396   0.546  12.703
 1450SOL    HW1 6124   7.420   0.599  12.627
 1450SOL    HW2 6125   7.330   0.485  12.670
 1451SOL     OW 6126   4.553   9.245  10.463
 1451SOL    HW1 6127   4.532   9.337  10.446
 1451SOL    HW2 6128   4.605   9.246  10.543
 1452SOL     OW 6129   9.112  14.627  12.669
 1452SOL    HW1 6130   9.025  14.665  12.680
 1452SOL    HW2 6131   9.097  14.533  12.668
 1453SOL     OW 6132   5.151  13.492   2.291
 1453SOL    HW1 6133   5.234  13.455   2.319
 1453SOL    HW2 6134   5.175  13.575   2.249
 1454SOL     OW 6135  10.380  14.491   1.313
 1454SOL    HW1 6136  10.363  14.504   1.219
 1454SOL    HW2 6137  10.365  14.397   1.326
 1455SOL     OW 6138   7.084   7.626   4.664
 1455SOL    HW1 6139   7.141   7.694   4.626
 1455SOL    HW2 6140   7.048   7.667   4.742
 1456SOL     OW 6141  10.927   0.777   2.674
 1456SOL    HW1 6142  10.879   0.850   2.636
 1456SOL    HW2 6143  10.987   0.817   2.737
 1457SOL     OW 6144   1.746  10.706   6.379
 1457SOL    HW1 6145   1.690  10.763   6.327
 1457SOL    HW2 6146   1.829  10.753   6.385
 1458SOL     OW 6147   9.828   3.199  12.777
 1458SOL    HW1 6148   9.791   3.111  12.784
 1458SOL    HW2 6149   9.922   3.186  12.768
 1459SOL     OW 6150   1.891   7.510  11.950
 1459SOL    HW1 6151   1.981   7.497  11.920
 1459SOL    HW2 6152   1.885   7.460  12.032
 1460SOL     OW 6153   5.653   6.365   7.192
 1460SOL    HW1 6154   5.594   6.291   7.204
 1460SOL    HW2 6155   5.597   6.435   7.158
 1461SOL     OW 6156  11.778   4.954   5.047
 1461SOL    HW1 6157  11.697   4.952   5.099
 1461SOL    HW2 6158  11.747   4.953   4.956
 1462SOL     OW 6159  12.604   3.473   0.448
 1462SOL    HW1 6160  12.676   3.423   0.408
 1462SOL    HW2 6161  12.531   3.461   0.388
 1463SOL     OW 6162   3.691   0.471   8.719
 1463SOL    HW1 6163   3.624   0.429   8.665
 1463SOL    HW2 6164   3.647   0.546   8.758
 1464SOL     OW 6165   0.945   6.771   2.567
 1464SOL    HW1 6166   1.027   6.818   2.560
 1464SOL    HW2 6167   0.895   6.820   2.632
 1465SOL     OW 6168   9.464   2.718   0.692
 1465SOL    HW1 6169   9.465   2.622   0.699
 1465SOL    HW2 6170   9.553   2.745   0.714
 1466SOL     OW 6171   4.555   9.660   7.444
 1466SOL    HW1 6172   4.550   9.615   7.529
 1466SOL    HW2 6173   4.586   9.592   7.384
 1467SOL     OW 6174   8.242   0.862   0.674
 1467SOL    HW1 6175   8.297   0.815   0.737
 1467SOL    HW2 6176   8.303   0.900   0.611
 1468SOL     OW 6177   8.355   8.498  11.982
 1468SOL    HW1 6178   8.425   8.561  11.997
 1468SOL    HW2 6179   8.302   8.537  11.912
 1469SOL     OW 6180   1.942   7.214   9.503
 1469SOL    HW1 6181   1.910   7.304   9.503
 1469SOL    HW2 6182   1.865   7.161   9.483
 1470SOL     OW 6183  12.456   1.669   5.608
 1470SOL    HW1 6184  12.468   1.577   5.587
 1470SOL    HW2 6185  12.375   1.694   5.563
 1471SOL     OW 6186   0.201  13.725  11.404
 1471SOL    HW1 6187   0.279  13.696  11.358
 1471SOL    HW2 6188   0.144  13.759  11.335
 1472SOL     OW 6189   6.146   0.590   1.690
 1472SOL    HW1 6190   6.159   0.572   1.597
 1472SOL    HW2 6191   6.214   0.540   1.734
 1473SOL     OW 6192  11.022   9.726  10.025
 1473SOL    HW1 6193  11.081   9.654  10.049
 1473SOL    HW2 6194  11.009   9.715   9.931
 1474SOL     OW 6195   0.291   1.363  11.180
 1474SOL    HW1 6196   0.377   1.337  11.212
 1474SOL    HW2 6197   0.260   1.287  11.131
 1475SOL     OW 6198   9.763   8.688   3.727
 1475SOL    HW1 6199   9.753   8.654   3.816
 1475SOL    HW2 6200   9.850   8.728   3.726
 1476SOL     OW 6201  11.863  13.543   4.061
 1476SOL    HW1 6202  11.784  13.572   4.015
 1476SOL    HW2 6203  11.831  13.476   4.122
 1477SOL     OW 6204   3.625  14.175  13.268
 1477SOL    HW1 6205   3.702  14.200  13.319
 1477SOL    HW2 6206   3.567  14.133  13.331
 1478SOL     OW 6207  12.653  12.897   1.662
 1478SOL    HW1 6208  12.730  12.906   1.606
 1478SOL    HW2 6209  12.582  12.935   1.612
 1479SOL     OW 6210   3.923   4.164   7.010
 1479SOL    HW1 6211   3.914   4.177   7.105
 1479SOL    HW2 6212   4.008   4.202   6.988
 1480SOL     OW 6213   7.776  10.714   3.635
 1480SOL    HW1 6214   7.711  10.753   3.693
 1480SOL    HW2 6215   7.741  10.727   3.547
 1481SOL     OW 6216   2.751  10.873   7.979
 1481SOL    HW1 6217   2.694  10.825   8.038
 1481SOL    HW2 6218   2.754  10.962   8.015
 1482SOL     OW 6219   5.059   4.961   0.404
 1482SOL    HW1 6220   5.008   4.973   0.323
 1482SOL    HW2 6221   5.008   5.006   0.471
 1483SOL     OW 6222   3.649   5.163   1.861
 1483SOL    HW1 6223   3.690   5.106   1.796
 1483SOL    HW2 6224   3.714   5.171   1.930
 1484SOL     OW 6225   3.476   9.397   2.462
 1484SOL    HW1 6226   3.479   9.340   2.385
 1484SOL    HW2 6227   3.568   9.410   2.485
 1485SOL     OW 6228  10.291  14.367   4.662
 1485SOL    HW1 6229  10.272  14.439   4.723
 1485SOL    HW2 6230  10.320  14.295   4.718
 1486SOL     OW 6231  11.262   7.697   2.598
 1486SOL    HW1 6232  11.213   7.628   2.554
 1486SOL    HW2 6233  11.214   7.778   2.577
 1487SOL     OW 6234   6.176  11.478   1.365
 1487SOL    HW1 6235   6.094  11.443   1.399
 1487SOL    HW2 6236   6.218  11.404   1.321
 1488SOL     OW 6237  12.736   6.235   0.370
 1488SOL    HW1 6238  12.769   6.283   0.294
 1488SOL    HW2 6239  12.815   6.217   0.422
 1489SOL     OW 6240   6.508  14.693   8.526
 1489SOL    HW1 6241   6.602  14.690   8.513
 1489SOL    HW2 6242   6.490  14.785   8.549
 1490SOL     OW 6243   5.078   1.704  13.974
 1490SOL    HW1 6244   5.052   1.796  13.976
 1490SOL    HW2 6245   5.144   1.699  13.905
 1491SOL     OW 6246   6.840  14.238   9.034
 1491SOL    HW1 6247   6.819  14.151   8.999
 1491SOL    HW2 6248   6.868  14.221   9.124
 1492SOL     OW 6249   4.654  13.459   6.380
 1492SOL    HW1 6250   4.651  13.413   6.464
 1492SOL    HW2 6251   4.614  13.397   6.318
 1493SOL     OW 6252   1.092   5.760   7.889
 1493SOL    HW1 6253   1.159   5.710   7.936
 1493SOL    HW2 6254   1.107   5.737   7.797
 1494SOL     OW 6255   4.998   4.131  11.571
 1494SOL    HW1 6256   4.992   4.129  11.666
 1494SOL    HW2 6257   5.044   4.213  11.552
 1495SOL     OW 6258  14.834  12.178  10.172
 1495SOL    HW1 6259  14.754  12.193  10.223
 1495SOL    HW2 6260  14.867  12.093  10.202
 1496SOL     OW 6261   0.055   1.527   2.687
 1496SOL    HW1 6262   0.027   1.437   2.706
 1496SOL    HW2 6263   0.125   1.517   2.624
 1497SOL     OW 6264  12.605  14.431   5.904
 1497SOL    HW1 6265  12.679  14.488   5.884
 1497SOL    HW2 6266  12.557  14.425   5.821
 1498SOL     OW 6267  10.205   7.192   7.060
 1498SOL    HW1 6268  10.188   7.107   7.019
 1498SOL    HW2 6269  10.202   7.255   6.988
 1499SOL     OW 6270  11.450   6.813   6.819
 1499SOL    HW1 6271  11.356   6.828   6.822
 1499SOL    HW2 6272  11.487   6.874   6.883
 1500SOL     OW 6273  14.698   3.073   4.788
 1500SOL    HW1 6274  14.739   2.987   4.781
 1500SOL    HW2 6275  14.611   3.056   4.825
 1501SOL     OW 6276  10.572   2.581   0.807
 1501SOL    HW1 6277  10.516   2.521   0.758
 1501SOL    HW2 6278  10.584   2.656   0.749
 1502SOL     OW 6279   2.972   4.713   6.666
 1502SOL    HW1 6280   2.893   4.761   6.690
 1502SOL    HW2 6281   2.996   4.748   6.580
 1503SOL     OW 6282   7.820   1.864   3.950
 1503SOL    HW1 6283   7.854   1.927   4.014
 1503SOL    HW2 6284   7.728   1.887   3.939
 1504SOL     OW 6285   4.470   9.435   8.421
 1504SOL    HW1 6286   4.499   9.517   8.461
 1504SOL    HW2 6287   4.375   9.440   8.421
 1505SOL     OW 6288  13.206   6.296   6.174
 1505SOL    HW1 6289  13.223   6.326   6.085
 1505SOL    HW2 6290  13.293   6.279   6.210
 1506SOL     OW 6291   7.989   0.928   0.175
 1506SOL    HW1 6292   8.002   0.836   0.151
 1506SOL    HW2 6293   8.003   0.930   0.270
 1507SOL     OW 6294   2.432   5.318   3.776
 1507SOL    HW1 6295   2.488   5.360   3.841
 1507SOL    HW2 6296   2.365   5.274   3.827
 1508SOL     OW 6297   1.134   3.007  13.714
 1508SOL    HW1 6298   1.120   3.071  13.644
 1508SOL    HW2 6299   1.057   2.950  13.711
 1509SOL     OW 6300   1.864   1.266  14.117
 1509SOL    HW1 6301   1.842   1.260  14.210
 1509SOL    HW2 6302   1.918   1.345  14.110
 1510SOL     OW 6303  14.492   6.470  10.288
 1510SOL    HW1 6304  14.408   6.501  10.322
 1510SOL    HW2 6305  14.540   6.441  10.365
 1511SOL     OW 6306   5.453  11.195   1.379
 1511SOL    HW1 6307   5.505  11.214   1.301
 1511SOL    HW2 6308   5.455  11.276   1.431
 1512SOL     OW 6309  13.119  12.694   3.639
 1512SOL    HW1 6310  13.149  12.679   3.729
 1512SOL    HW2 6311  13.030  12.729   3.648
 1513SOL     OW 6312   1.550   0.578   3.952
 1513SOL    HW1 6313   1.615   0.518   3.988
 1513SOL    HW2 6314   1.511   0.621   4.028
 1514SOL     OW 6315   9.639  12.921  11.280
 1514SOL    HW1 6316   9.633  12.940  11.186
 1514SOL    HW2 6317   9.556  12.879  11.301
 1515SOL     OW 6318   2.132   5.340   7.721
 1515SOL    HW1 6319   2.145   5.260   7.671
 1515SOL    HW2 6320   2.069   5.316   7.789
 1516SOL     OW 6321   7.299   5.998   4.405
 1516SOL    HW1 6322   7.328   5.919   4.449
 1516SOL    HW2 6323   7.378   6.052   4.398
 1517SOL     OW 6324   0.177  11.428   7.738
 1517SOL    HW1 6325   0.168  11.340   7.774
 1517SOL    HW2 6326   0.091  11.447   7.699
 1518SOL     OW 6327   2.359   1.967   0.241
 1518SOL    HW1 6328   2.420   1.952   0.169
 1518SOL    HW2 6329   2.400   2.035   0.294
 1519SOL     OW 6330   5.180   4.011   4.341
 1519SOL    HW1 6331   5.151   4.102   4.336
 1519SOL    HW2 6332   5.108   3.966   4.385
 1520SOL     OW 6333   3.550   5.972   1.133
 1520SOL    HW1 6334   3.491   6.032   1.180
 1520SOL    HW2 6335   3.553   5.893   1.187
 1521SOL     OW 6336   7.691  10.735   1.788
 1521SOL    HW1 6337   7.770  10.780   1.758
 1521SOL    HW2 6338   7.689  10.751   1.882
 1522SOL     OW 6339  10.797   1.824   7.261
 1522SOL    HW1 6340  10.877   1.806   7.311
 1522SOL    HW2 6341  10.828   1.857   7.177
 1523SOL     OW 6342   1.454   4.929   9.052
 1523SOL    HW1 6343   1.505   4.849   9.061
 1523SOL    HW2 6344   1.492   4.990   9.115
 1524SOL     OW 6345   7.316  11.188   0.533
 1524SOL    HW1 6346   7.266  11.109   0.512
 1524SOL    HW2 6347   7.285  11.253   0.470
 1525SOL     OW 6348   0.808   4.386   5.972
 1525SOL    HW1 6349   0.830   4.417   6.060
 1525SOL    HW2 6350   0.769   4.300   5.985
 1526SOL     OW 6351   0.545   3.412   4.957
 1526SOL    HW1 6352   0.595   3.418   5.039
 1526SOL    HW2 6353   0.469   3.468   4.973
 1527SOL     OW 6354   9.749  10.089   0.007
 1527SOL    HW1 6355   9.789  10.121  14.804
 1527SOL    HW2 6356   9.772  10.156   0.072
 1528SOL     OW 6357   6.566   0.419   1.567
 1528SOL    HW1 6358   6.612   0.358   1.625
 1528SOL    HW2 6359   6.635   0.474   1.531
 1529SOL     OW 6360   3.122   9.238   9.231
 1529SOL    HW1 6361   3.036   9.202   9.254
 1529SOL    HW2 6362   3.137   9.208   9.141
 1530SOL     OW 6363  10.551   2.109  14.537
 1530SOL    HW1 6364  10.571   2.059  14.458
 1530SOL    HW2 6365  10.624   2.090  14.596
 1531SOL     OW 6366  12.343   0.445   8.994
 1531SOL    HW1 6367  12.295   0.486   8.922
 1531SOL    HW2 6368  12.283   0.379   9.028
 1532SOL     OW 6369   3.309   4.797  13.313
 1532SOL    HW1 6370   3.282   4.751  13.392
 1532SOL    HW2 6371   3.383   4.747  13.280
 1533SOL     OW 6372  11.908   9.060   7.251
 1533SOL    HW1 6373  11.842   9.020   7.309
 1533SOL    HW2 6374  11.991   9.045   7.295
 1534SOL     OW 6375   8.942   9.844   9.369
 1534SOL    HW1 6376   9.036   9.841   9.353
 1534SOL    HW2 6377   8.906   9.777   9.310
 1535SOL     OW 6378  14.779   5.795   6.226
 1535SOL    HW1 6379  14.699   5.756   6.259
 1535SOL    HW2 6380  14.755   5.885   6.204
 1536SOL     OW 6381   8.412  10.933   3.395
 1536SOL    HW1 6382   8.506  10.918   3.397
 1536SOL    HW2 6383   8.400  11.017   3.440
 1537SOL     OW 6384   8.863  14.488   2.603
 1537SOL    HW1 6385   8.823  14.574   2.603
 1537SOL    HW2 6386   8.924  14.489   2.677
 1538SOL     OW 6387   9.738   3.285   5.122
 1538SOL    HW1 6388   9.767   3.355   5.063
 1538SOL    HW2 6389   9.682   3.229   5.068
 1539SOL     OW 6390   6.172   7.504  11.027
 1539SOL    HW1 6391   6.115   7.555  11.085
 1539SOL    HW2 6392   6.182   7.420  11.071
 1540SOL     OW 6393  12.111   5.194  12.268
 1540SOL    HW1 6394  12.063   5.271  12.240
 1540SOL    HW2 6395  12.159   5.223  12.346
 1541SOL     OW 6396   0.498  13.500   1.667
 1541SOL    HW1 6397   0.489  13.538   1.754
 1541SOL    HW2 6398   0.411  13.510   1.627
 1542SOL     OW 6399  12.792   4.845   9.103
 1542SOL    HW1 6400  12.780   4.867   9.195
 1542SOL    HW2 6401  12.887   4.833   9.093
 1543SOL     OW 6402  11.128   5.112   5.955
 1543SOL    HW1 6403  11.120   5.202   5.922
 1543SOL    HW2 6404  11.097   5.117   6.046
 1544SOL     OW 6405  14.406   9.703   1.966
 1544SOL    HW1 6406  14.314   9.723   1.980
 1544SOL    HW2 6407  14.406   9.613   1.932
 1545SOL     OW 6408  12.831  11.404   7.758
 1545SOL    HW1 6409  12.761  11.462   7.790
 1545SOL    HW2 6410  12.805  11.382   7.669
 1546SOL     OW 6411   7.231   3.624  10.247
 1546SOL    HW1 6412   7.212   3.698  10.190
 1546SOL    HW2 6413   7.269   3.664  10.326
 1547SOL     OW 6414  12.647   0.973  14.527
 1547SOL    HW1 6415  12.721   0.925  14.490
 1547SOL    HW2 6416  12.570   0.932  14.487
 1548SOL     OW 6417   2.585   7.359  12.114
 1548SOL    HW1 6418   2.550   7.448  12.119
 1548SOL    HW2 6419   2.537   7.311  12.182
 1549SOL     OW 6420  11.898   0.334   5.976
 1549SOL    HW1 6421  11.887   0.264   6.040
 1549SOL    HW2 6422  11.886   0.292   5.891
 1550SOL     OW 6423   7.678   7.206   7.854
 1550SOL    HW1 6424   7.733   7.284   7.848
 1550SOL    HW2 6425   7.739   7.133   7.845
 1551SOL     OW 6426   6.829   8.085  11.792
 1551SOL    HW1 6427   6.737   8.112  11.803
 1551SOL    HW2 6428   6.877   8.168  11.785
 1552SOL     OW 6429   8.343   8.386   8.596
 1552SOL    HW1 6430   8.399   8.404   8.672
 1552SOL    HW2 6431   8.378   8.443   8.527
 1553SOL     OW 6432  11.749   1.135   1.042
 1553SOL    HW1 6433  11.833   1.169   1.075
 1553SOL    HW2 6434  11.737   1.053   1.090
 1554SOL     OW 6435  12.744  13.741   3.692
 1554SOL    HW1 6436  12.701  13.656   3.688
 1554SOL    HW2 6437  12.787  13.750   3.607
 1555SOL     OW 6438  13.652  12.470   3.076
 1555SOL    HW1 6439  13.601  12.497   2.999
 1555SOL    HW2 6440  13.694  12.388   3.050
 1556SOL     OW 6441  14.694   5.750   2.741
 1556SOL    HW1 6442  14.784   5.737   2.713
 1556SOL    HW2 6443  14.693   5.724   2.833
 1557SOL     OW 6444   6.559   4.574   0.981
 1557SOL    HW1 6445   6.487   4.574   1.045
 1557SOL    HW2 6446   6.537   4.645   0.921
 1558SOL     OW 6447  13.553   4.418   2.869
 1558SOL    HW1 6448  13.631   4.468   2.889
 1558SOL    HW2 6449  13.540   4.361   2.944
 1559SOL     OW 6450  13.501   7.177  11.683
 1559SOL    HW1 6451  13.554   7.187  11.762
 1559SOL    HW2 6452  13.553   7.219  11.614
 1560SOL     OW 6453  11.343   2.993  12.332
 1560SOL    HW1 6454  11.252   2.965  12.340
 1560SOL    HW2 6455  11.350   3.070  12.388
 1561SOL     OW 6456  10.072  11.986  11.211
 1561SOL    HW1 6457  10.086  12.079  11.190
 1561SOL    HW2 6458  10.067  11.984  11.306
 1562SOL     OW 6459  12.559   8.720  11.932
 1562SOL    HW1 6460  12.475   8.765  11.918
 1562SOL    HW2 6461  12.587   8.696  11.844
 1563SOL     OW 6462  11.328   0.055   5.468
 1563SOL    HW1 6463  11.310   0.071   5.561
 1563SOL    HW2 6464  11.293  14.846   5.452
 1564SOL     OW 6465   7.702  13.423   4.913
 1564SOL    HW1 6466   7.687  13.510   4.876
 1564SOL    HW2 6467   7.719  13.439   5.006
 1565SOL     OW 6468   8.659  11.930   0.753
 1565SOL    HW1 6469   8.688  12.019   0.772
 1565SOL    HW2 6470   8.607  11.938   0.673
 1566SOL     OW 6471   7.059   2.834   6.718
 1566SOL    HW1 6472   7.017   2.750   6.701
 1566SOL    HW2 6473   7.077   2.833   6.812
 1567SOL     OW 6474   6.590   5.056  11.732
 1567SOL    HW1 6475   6.516   5.053  11.672
 1567SOL    HW2 6476   6.600   5.149  11.754
 1568SOL     OW 6477   9.760  12.566   0.728
 1568SOL    HW1 6478   9.802  12.630   0.785
 1568SOL    HW2 6479   9.777  12.597   0.640
 1569SOL     OW 6480  10.694  10.343  11.446
 1569SOL    HW1 6481  10.766  10.290  11.411
 1569SOL    HW2 6482  10.685  10.414  11.383
 1570SOL     OW 6483   0.463  13.098   7.129
 1570SOL    HW1 6484   0.522  13.092   7.205
 1570SOL    HW2 6485   0.503  13.166   7.074
 1571SOL     OW 6486  10.347  10.978   0.065
 1571SOL    HW1 6487  10.341  11.036  14.867
 1571SOL    HW2 6488  10.285  10.907   0.046
 1572SOL     OW 6489  10.590  12.947   3.874
 1572SOL    HW1 6490  10.548  12.871   3.834
 1572SOL    HW2 6491  10.521  13.014   3.873
 1573SOL     OW 6492   9.403  14.033   7.096
 1573SOL    HW1 6493   9.382  13.940   7.108
 1573SOL    HW2 6494   9.357  14.078   7.167
 1574SOL     OW 6495   6.326   5.913   1.500
 1574SOL    HW1 6496   6.269   5.874   1.433
 1574SOL    HW2 6497   6.360   5.992   1.459
 1575SOL     OW 6498   2.499  11.746  11.807
 1575SOL    HW1 6499   2.467  11.835  11.792
 1575SOL    HW2 6500   2.589  11.758  11.836
 1576SOL     OW 6501   8.832   2.838  13.493
 1576SOL    HW1 6502   8.759   2.868  13.547
 1576SOL    HW2 6503   8.852   2.751  13.526
 1577SOL     OW 6504   6.979   7.386   6.460
 1577SOL    HW1 6505   7.048   7.448   6.485
 1577SOL    HW2 6506   6.957   7.340   6.541
 1578SOL     OW 6507  13.832   9.638   1.793
 1578SOL    HW1 6508  13.774   9.711   1.773
 1578SOL    HW2 6509  13.856   9.651   1.885
 1579SOL     OW 6510  11.346   5.162   7.633
 1579SOL    HW1 6511  11.254   5.172   7.654
 1579SOL    HW2 6512  11.389   5.152   7.719
 1580SOL     OW 6513  13.985  12.957   2.969
 1580SOL    HW1 6514  13.955  12.866   2.965
 1580SOL    HW2 6515  14.067  12.956   2.919
 1581SOL     OW 6516  10.811   3.317   0.325
 1581SOL    HW1 6517  10.840   3.407   0.328
 1581SOL    HW2 6518  10.784   3.297   0.415
 1582SOL     OW 6519   1.224   2.985   5.888
 1582SOL    HW1 6520   1.183   2.925   5.825
 1582SOL    HW2 6521   1.161   2.989   5.960
 1583SOL     OW 6522   4.132  12.484   0.735
 1583SOL    HW1 6523   4.214  12.471   0.688
 1583SOL    HW2 6524   4.128  12.411   0.797
 1584SOL     OW 6525   7.550   1.549  13.510
 1584SOL    HW1 6526   7.591   1.592  13.585
 1584SOL    HW2 6527   7.491   1.615  13.473
 1585SOL     OW 6528   0.329   3.388  13.641
 1585SOL    HW1 6529   0.293   3.476  13.634
 1585SOL    HW2 6530   0.303   3.358  13.728
 1586SOL     OW 6531   1.172  10.003   5.608
 1586SOL    HW1 6532   1.195  10.081   5.659
 1586SOL    HW2 6533   1.169   9.932   5.672
 1587SOL     OW 6534   5.445   1.335  10.057
 1587SOL    HW1 6535   5.422   1.298  10.142
 1587SOL    HW2 6536   5.478   1.262  10.006
 1588SOL     OW 6537  10.911   5.943  12.619
 1588SOL    HW1 6538  10.997   5.985  12.628
 1588SOL    HW2 6539  10.929   5.863  12.570
 1589SOL     OW 6540   0.896  13.638   3.938
 1589SOL    HW1 6541   0.907  13.605   3.848
 1589SOL    HW2 6542   0.819  13.695   3.934
 1590SOL     OW 6543   5.334   5.906  11.326
 1590SOL    HW1 6544   5.371   5.825  11.362
 1590SOL    HW2 6545   5.244   5.908  11.358
 1591SOL     OW 6546  11.472  11.153   0.484
 1591SOL    HW1 6547  11.524  11.102   0.547
 1591SOL    HW2 6548  11.461  11.095   0.409
 1592SOL     OW 6549   0.023   7.885   3.224
 1592SOL    HW1 6550  14.812   7.907   3.197
 1592SOL    HW2 6551   0.065   7.853   3.143
 1593SOL     OW 6552   4.752   5.834   9.421
 1593SOL    HW1 6553   4.758   5.905   9.485
 1593SOL    HW2 6554   4.693   5.770   9.461
 1594SOL     OW 6555  13.788  11.361   1.925
 1594SOL    HW1 6556  13.760  11.335   2.012
 1594SOL    HW2 6557  13.836  11.284   1.892
 1595SOL     OW 6558   0.762  11.724   2.556
 1595SOL    HW1 6559   0.674  11.709   2.522
 1595SOL    HW2 6560   0.802  11.786   2.495
 1596SOL     OW 6561  12.976   4.820  11.549
 1596SOL    HW1 6562  13.046   4.763  11.519
 1596SOL    HW2 6563  12.908   4.812  11.482
 1597SOL     OW 6564  13.242   2.095   8.899
 1597SOL    HW1 6565  13.180   2.125   8.965
 1597SOL    HW2 6566  13.295   2.172   8.879
 1598SOL     OW 6567   0.982   0.200   1.827
 1598SOL    HW1 6568   1.056   0.142   1.845
 1598SOL    HW2 6569   0.958   0.181   1.736
 1599SOL     OW 6570  14.525   1.535   8.259
 1599SOL    HW1 6571  14.584   1.603   8.225
 1599SOL    HW2 6572  14.443   1.549   8.212
 1600SOL     OW 6573  13.525   1.676   0.515
 1600SOL    HW1 6574  13.616   1.683   0.542
 1600SOL    HW2 6575  13.520   1.729   0.435
 1601SOL     OW 6576  10.468  10.088   6.383
 1601SOL    HW1 6577  10.401  10.051   6.440
 1601SOL    HW2 6578  10.548  10.088   6.436
 1602SOL     OW 6579   2.575   1.754   1.888
 1602SOL    HW1 6580   2.482   1.773   1.888
 1602SOL    HW2 6581   2.580   1.658   1.889
 1603SOL     OW 6582   4.806  12.310   8.347
 1603SOL    HW1 6583   4.800  12.406   8.350
 1603SOL    HW2 6584   4.879  12.289   8.406
 1604SOL     OW 6585  12.793  11.693   9.247
 1604SOL    HW1 6586  12.711  11.648   9.229
 1604SOL    HW2 6587  12.771  11.786   9.248
 1605SOL     OW 6588  11.396   7.630   0.909
 1605SOL    HW1 6589  11.437   7.621   0.822
 1605SOL    HW2 6590  11.325   7.693   0.895
 1606SOL     OW 6591  13.556   9.788   2.959
 1606SOL    HW1 6592  13.516   9.842   2.891
 1606SOL    HW2 6593  13.609   9.849   3.010
 1607SOL     OW 6594   2.337   5.585  11.462
 1607SOL    HW1 6595   2.255   5.547  11.430
 1607SOL    HW2 6596   2.350   5.662  11.408
 1608SOL     OW 6597  13.126   4.537  13.253
 1608SOL    HW1 6598  13.135   4.447  13.220
 1608SOL    HW2 6599  13.216   4.567  13.266
 1609SOL     OW 6600   0.924   9.484  14.168
 1609SOL    HW1 6601   1.007   9.439  14.183
 1609SOL    HW2 6602   0.936   9.529  14.085
 1610SOL     OW 6603  14.270   6.626   1.846
 1610SOL    HW1 6604  14.316   6.705   1.817
 1610SOL    HW2 6605  14.177   6.647   1.834
 1611SOL     OW 6606   5.403  12.366  14.867
 1611SOL    HW1 6607   5.370  12.298   0.048
 1611SOL    HW2 6608   5.401  12.446   0.041
 1612SOL     OW 6609  13.705   0.242   5.724
 1612SOL    HW1 6610  13.657   0.195   5.656
 1612SOL    HW2 6611  13.759   0.304   5.677
 1613SOL     OW 6612   3.736   1.977   3.517
 1613SOL    HW1 6613   3.818   2.005   3.558
 1613SOL    HW2 6614   3.687   2.059   3.505
 1614SOL     OW 6615   6.859   1.394  10.164
 1614SOL    HW1 6616   6.823   1.310  10.192
 1614SOL    HW2 6617   6.932   1.411  10.224
 1615SOL     OW 6618   7.289   5.229   6.337
 1615SOL    HW1 6619   7.277   5.317   6.373
 1615SOL    HW2 6620   7.357   5.240   6.271
 1616SOL     OW 6621  10.928   2.024   4.344
 1616SOL    HW1 6622  10.921   2.002   4.252
 1616SOL    HW2 6623  10.959   2.114   4.346
 1617SOL     OW 6624   5.977  13.287  11.471
 1617SOL    HW1 6625   5.955  13.312  11.560
 1617SOL    HW2 6626   5.957  13.193  11.466
 1618SOL     OW 6627  12.623   9.209   5.116
 1618SOL    HW1 6628  12.536   9.247   5.108
 1618SOL    HW2 6629  12.608   9.119   5.143
 1619SOL     OW 6630   4.828   6.786   6.453
 1619SOL    HW1 6631   4.840   6.871   6.495
 1619SOL    HW2 6632   4.883   6.726   6.505
 1620SOL     OW 6633   8.234   7.490  14.579
 1620SOL    HW1 6634   8.148   7.533  14.586
 1620SOL    HW2 6635   8.251   7.486  14.485
 1621SOL     OW 6636  14.869   9.662   1.813
 1621SOL    HW1 6637   0.055   9.624   1.873
 1621SOL    HW2 6638  14.809   9.590   1.793
 1622SOL     OW 6639  12.548   9.192  14.119
 1622SOL    HW1 6640  12.581   9.257  14.057
 1622SOL    HW2 6641  12.454   9.210  14.124
 1623SOL     OW 6642  13.220  13.977   2.701
 1623SOL    HW1 6643  13.218  13.929   2.618
 1623SOL    HW2 6644  13.299  14.030   2.696
 1624SOL     OW 6645  12.904   8.901  10.391
 1624SOL    HW1 6646  12.819   8.934  10.422
 1624SOL    HW2 6647  12.964   8.974  10.404
 1625SOL     OW 6648   5.888   6.649   6.287
 1625SOL    HW1 6649   5.909   6.585   6.218
 1625SOL    HW2 6650   5.921   6.732   6.252
 1626SOL     OW 6651   6.286  12.673  14.705
 1626SOL    HW1 6652   6.373  12.649  14.675
 1626SOL    HW2 6653   6.243  12.589  14.724
 1627SOL     OW 6654  11.719  10.620  14.417
 1627SOL    HW1 6655  11.798  10.591  14.371
 1627SOL    HW2 6656  11.752  10.655  14.500
 1628SOL     OW 6657  13.662   1.971   2.462
 1628SOL    HW1 6658  13.668   1.911   2.388
 1628SOL    HW2 6659  13.615   1.922   2.529
 1629SOL     OW 6660   4.989   6.302   9.280
 1629SOL    HW1 6661   5.002   6.389   9.319
 1629SOL    HW2 6662   5.002   6.241   9.352
 1630SOL     OW 6663   1.518   9.927  11.013
 1630SOL    HW1 6664   1.436   9.959  11.052
 1630SOL    HW2 6665   1.513   9.832  11.019
 1631SOL     OW 6666  14.156  13.491   9.201
 1631SOL    HW1 6667  14.118  13.457   9.120
 1631SOL    HW2 6668  14.214  13.421   9.232
 1632SOL     OW 6669  14.318   2.773   5.547
 1632SOL    HW1 6670  14.379   2.704   5.521
 1632SOL    HW2 6671  14.293   2.815   5.464
 1633SOL     OW 6672   8.315   3.162   4.380
 1633SOL    HW1 6673   8.347   3.073   4.367
 1633SOL    HW2 6674   8.264   3.181   4.302
 1634SOL     OW 6675  11.750   5.861   7.283
 1634SOL    HW1 6676  11.750   5.934   7.222
 1634SOL    HW2 6677  11.832   5.869   7.331
 1635SOL     OW 6678   8.859   6.711  14.561
 1635SOL    HW1 6679   8.894   6.782  14.506
 1635SOL    HW2 6680   8.845   6.639  14.500
 1636SOL     OW 6681   8.534   5.428   2.485
 1636SOL    HW1 6682   8.442   5.404   2.494
 1636SOL    HW2 6683   8.533   5.523   2.474
 1637SOL     OW 6684   8.080   9.106  14.722
 1637SOL    HW1 6685   8.127   9.174  14.674
 1637SOL    HW2 6686   7.995   9.144  14.741
 1638SOL     OW 6687  10.269   7.799  13.983
 1638SOL    HW1 6688  10.193   7.742  13.972
 1638SOL    HW2 6689  10.345   7.742  13.972
 1639SOL     OW 6690  14.452   0.081   1.294
 1639SOL    HW1 6691  14.491   0.163   1.324
 1639SOL    HW2 6692  14.526   0.020   1.287
 1640SOL     OW 6693   1.128   9.819  12.283
 1640SOL    HW1 6694   1.067   9.754  12.250
 1640SOL    HW2 6695   1.114   9.820  12.377
 1641SOL     OW 6696   3.142  13.345   1.101
 1641SOL    HW1 6697   3.123  13.430   1.141
 1641SOL    HW2 6698   3.137  13.362   1.007
 1642SOL     OW 6699   2.473   5.826   1.948
 1642SOL    HW1 6700   2.427   5.910   1.956
 1642SOL    HW2 6701   2.440   5.774   2.022
 1643SOL     OW 6702  14.008   4.496   3.745
 1643SOL    HW1 6703  13.941   4.546   3.792
 1643SOL    HW2 6704  14.064   4.461   3.814
 1644SOL     OW 6705  11.493   2.186   9.322
 1644SOL    HW1 6706  11.471   2.102   9.363
 1644SOL    HW2 6707  11.523   2.162   9.234
 1645SOL     OW 6708  12.407   8.505   6.370
 1645SOL    HW1 6709  12.466   8.430   6.370
 1645SOL    HW2 6710  12.337   8.481   6.431
 1646SOL     OW 6711   4.389  10.997   2.999
 1646SOL    HW1 6712   4.415  11.009   2.908
 1646SOL    HW2 6713   4.315  11.056   3.011
 1647SOL     OW 6714   7.783  13.231  12.540
 1647SOL    HW1 6715   7.866  13.271  12.514
 1647SOL    HW2 6716   7.775  13.155  12.482
 1648SOL     OW 6717   1.148   5.109  11.588
 1648SOL    HW1 6718   1.105   5.185  11.549
 1648SOL    HW2 6719   1.240   5.134  11.594
 1649SOL     OW 6720  13.454   3.197   8.171
 1649SOL    HW1 6721  13.428   3.213   8.081
 1649SOL    HW2 6722  13.421   3.109   8.191
 1650SOL     OW 6723   4.588   5.413   5.532
 1650SOL    HW1 6724   4.499   5.385   5.555
 1650SOL    HW2 6725   4.630   5.333   5.499
 1651SOL     OW 6726  12.622  14.597  12.569
 1651SOL    HW1 6727  12.622  14.501  12.567
 1651SOL    HW2 6728  12.677  14.619  12.644
 1652SOL     OW 6729   0.957   0.439   5.458
 1652SOL    HW1 6730   0.999   0.407   5.537
 1652SOL    HW2 6731   1.030   0.461   5.399
 1653SOL     OW 6732   9.438  12.814   8.859
 1653SOL    HW1 6733   9.361  12.803   8.915
 1653SOL    HW2 6734   9.405  12.795   8.771
 1654SOL     OW 6735   7.317   9.530   0.851
 1654SOL    HW1 6736   7.340   9.497   0.938
 1654SOL    HW2 6737   7.311   9.451   0.797
 1655SOL     OW 6738   1.362  12.417   0.502
 1655SOL    HW1 6739   1.400  12.329   0.504
 1655SOL    HW2 6740   1.271  12.405   0.529
 1656SOL     OW 6741  10.984   2.669   8.537
 1656SOL    HW1 6742  10.933   2.671   8.456
 1656SOL    HW2 6743  11.047   2.598   8.524
 1657SOL     OW 6744   7.726   9.892   7.766
 1657SOL    HW1 6745   7.795   9.860   7.823
 1657SOL    HW2 6746   7.645   9.875   7.813
 1658SOL     OW 6747  10.564   2.641  14.803
 1658SOL    HW1 6748  10.572   2.600   0.011
 1658SOL    HW2 6749  10.473   2.669  14.797
 1659SOL     OW 6750  14.010  14.022  10.627
 1659SOL    HW1 6751  14.036  14.045  10.537
 1659SOL    HW2 6752  13.917  14.003  10.621
 1660SOL     OW 6753   2.065   0.855  13.959
 1660SOL    HW1 6754   2.156   0.840  13.936
 1660SOL    HW2 6755   2.040   0.778  14.010
 1661SOL     OW 6756   2.326   7.649  10.538
 1661SOL    HW1 6757   2.280   7.718  10.490
 1661SOL    HW2 6758   2.409   7.690  10.565
 1662SOL     OW 6759  11.032   4.563   0.197
 1662SOL    HW1 6760  11.005   4.477   0.165
 1662SOL    HW2 6761  10.950   4.611   0.209
 1663SOL     OW 6762   2.599  11.806   7.983
 1663SOL    HW1 6763   2.535  11.873   8.006
 1663SOL    HW2 6764   2.546  11.731   7.953
 1664SOL     OW 6765   0.744   7.596  11.591
 1664SOL    HW1 6766   0.821   7.653  11.602
 1664SOL    HW2 6767   0.752   7.562  11.502
 1665SOL     OW 6768   3.244  10.380   5.825
 1665SOL    HW1 6769   3.158  10.351   5.857
 1665SOL    HW2 6770   3.307  10.336   5.882
 1666SOL     OW 6771  11.241   9.590   2.343
 1666SOL    HW1 6772  11.269   9.619   2.256
 1666SOL    HW2 6773  11.181   9.517   2.325
 1667SOL     OW 6774   3.960  11.756   2.726
 1667SOL    HW1 6775   4.042  11.728   2.767
 1667SOL    HW2 6776   3.983  11.837   2.680
 1668SOL     OW 6777  14.384  12.709  13.465
 1668SOL    HW1 6778  14.412  12.800  13.463
 1668SOL    HW2 6779  14.410  12.677  13.551
 1669SOL     OW 6780   5.633   3.533   3.370
 1669SOL    HW1 6781   5.673   3.610   3.328
 1669SOL    HW2 6782   5.542   3.535   3.340
 1670SOL     OW 6783   9.216   7.895   2.412
 1670SOL    HW1 6784   9.237   7.912   2.504
 1670SOL    HW2 6785   9.209   7.800   2.407
 1671SOL     OW 6786  10.282   8.481   5.293
 1671SOL    HW1 6787  10.343   8.412   5.318
 1671SOL    HW2 6788  10.234   8.445   5.218
 1672SOL     OW 6789  14.404   2.429   6.035
 1672SOL    HW1 6790  14.440   2.384   6.111
 1672SOL    HW2 6791  14.373   2.513   6.069
 1673SOL     OW 6792   7.275  11.564   7.838
 1673SOL    HW1 6793   7.182  11.557   7.860
 1673SOL    HW2 6794   7.284  11.649   7.796
 1674SOL     OW 6795   9.703   5.973   6.288
 1674SOL    HW1 6796   9.720   6.030   6.213
 1674SOL    HW2 6797   9.679   6.033   6.359
 1675SOL     OW 6798   4.468   6.982  11.403
 1675SOL    HW1 6799   4.410   6.969  11.327
 1675SOL    HW2 6800   4.551   6.942  11.376
 1676SOL     OW 6801   8.580   0.870  13.566
 1676SOL    HW1 6802   8.591   0.856  13.660
 1676SOL    HW2 6803   8.626   0.797  13.525
 1677SOL     OW 6804   9.979   2.969   4.476
 1677SOL    HW1 6805  10.004   3.055   4.443
 1677SOL    HW2 6806  10.006   2.908   4.408
 1678SOL     OW 6807  10.638   2.709   4.182
 1678SOL    HW1 6808  10.578   2.748   4.245
 1678SOL    HW2 6809  10.627   2.762   4.103
 1679SOL     OW 6810   1.821  10.595   4.647
 1679SOL    HW1 6811   1.886  10.550   4.700
 1679SOL    HW2 6812   1.743  10.539   4.651
 1680SOL     OW 6813   7.319   4.968   1.213
 1680SOL    HW1 6814   7.287   5.029   1.147
 1680SOL    HW2 6815   7.387   5.017   1.260
 1681SOL     OW 6816   7.828   1.439  13.136
 1681SOL    HW1 6817   7.746   1.470  13.097
 1681SOL    HW2 6818   7.895   1.460  13.070
 1682SOL     OW 6819   9.602   1.458  11.382
 1682SOL    HW1 6820   9.540   1.390  11.355
 1682SOL    HW2 6821   9.673   1.452  11.319
 1683SOL     OW 6822   7.239   1.893   0.244
 1683SOL    HW1 6823   7.180   1.900   0.318
 1683SOL    HW2 6824   7.311   1.839   0.275
 1684SOL     OW 6825   9.264  12.489   0.419
 1684SOL    HW1 6826   9.311  12.556   0.470
 1684SOL    HW2 6827   9.303  12.406   0.446
 1685SOL     OW 6828   3.671  11.190  14.610
 1685SOL    HW1 6829   3.712  11.270  14.576
 1685SOL    HW2 6830   3.585  11.187  14.567
 1686SOL     OW 6831  11.201   6.899  11.584
 1686SOL    HW1 6832  11.230   6.857  11.665
 1686SOL    HW2 6833  11.129   6.843  11.553
 1687SOL     OW 6834   6.753  13.007  10.302
 1687SOL    HW1 6835   6.666  12.966  10.293
 1687SOL    HW2 6836   6.799  12.951  10.365
 1688SOL     OW 6837  10.878  10.059   2.220
 1688SOL    HW1 6838  10.956  10.044   2.166
 1688SOL    HW2 6839  10.861  10.153   2.212
 1689SOL     OW 6840   8.099   8.440  10.796
 1689SOL    HW1 6841   8.163   8.442  10.725
 1689SOL    HW2 6842   8.038   8.511  10.775
 1690SOL     OW 6843   0.751   3.424   0.236
 1690SOL    HW1 6844   0.694   3.416   0.159
 1690SOL    HW2 6845   0.833   3.459   0.200
 1691SOL     OW 6846  12.150  10.797  12.216
 1691SOL    HW1 6847  12.124  10.813  12.125
 1691SOL    HW2 6848  12.160  10.885  12.253
 1692SOL     OW 6849   9.140   8.345   4.810
 1692SOL    HW1 6850   9.117   8.434   4.785
 1692SOL    HW2 6851   9.120   8.293   4.732
 1693SOL     OW 6852   7.161   2.676   9.877
 1693SOL    HW1 6853   7.173   2.582   9.889
 1693SOL    HW2 6854   7.072   2.685   9.845
 1694SOL     OW 6855   6.421   3.602   5.787
 1694SOL    HW1 6856   6.479   3.668   5.825
 1694SOL    HW2 6857   6.479   3.543   5.741
 1695SOL     OW 6858  14.644   4.530   4.910
 1695SOL    HW1 6859  14.567   4.481   4.937
 1695SOL    HW2 6860  14.714   4.498   4.967
 1696SOL     OW 6861   9.158   7.788   0.561
 1696SOL    HW1 6862   9.067   7.815   0.578
 1696SOL    HW2 6863   9.178   7.826   0.475
 1697SOL     OW 6864   2.021   3.037   0.180
 1697SOL    HW1 6865   2.082   2.978   0.134
 1697SOL    HW2 6866   2.048   3.033   0.271
 1698SOL     OW 6867   3.149  13.025  13.876
 1698SOL    HW1 6868   3.095  13.074  13.938
 1698SOL    HW2 6869   3.196  12.962  13.931
 1699SOL     OW 6870   0.528   9.834   6.023
 1699SOL    HW1 6871   0.558   9.822   5.933
 1699SOL    HW2 6872   0.466   9.761   6.037
 1700SOL     OW 6873   3.727   9.964   6.544
 1700SOL    HW1 6874   3.751  10.037   6.487
 1700SOL    HW2 6875   3.721   9.889   6.486
 1701SOL     OW 6876   8.442   4.389   8.099
 1701SOL    HW1 6877   8.400   4.303   8.100
 1701SOL    HW2 6878   8.488   4.395   8.183
 1702SOL     OW 6879  12.012   6.429   3.342
 1702SOL    HW1 6880  12.059   6.408   3.261
 1702SOL    HW2 6881  11.945   6.492   3.315
 1703SOL     OW 6882   2.400   9.314   3.852
 1703SOL    HW1 6883   2.413   9.239   3.795
 1703SOL    HW2 6884   2.305   9.322   3.862
 1704SOL     OW 6885   8.757   6.445  14.724
 1704SOL    HW1 6886   8.852   6.446  14.736
 1704SOL    HW2 6887   8.734   6.535  14.701
 1705SOL     OW 6888   8.353   8.843   7.743
 1705SOL    HW1 6889   8.423   8.779   7.757
 1705SOL    HW2 6890   8.274   8.791   7.732
 1706SOL     OW 6891  12.511  11.543   9.912
 1706SOL    HW1 6892  12.537  11.544   9.820
 1706SOL    HW2 6893  12.426  11.500   9.913
 1707SOL     OW 6894   8.441   1.934   3.430
 1707SOL    HW1 6895   8.418   1.973   3.346
 1707SOL    HW2 6896   8.358   1.901   3.464
 1708SOL     OW 6897   1.925   2.504  11.717
 1708SOL    HW1 6898   2.017   2.477  11.719
 1708SOL    HW2 6899   1.878   2.427  11.687
 1709SOL     OW 6900  10.782   2.951   0.459
 1709SOL    HW1 6901  10.715   2.904   0.410
 1709SOL    HW2 6902  10.864   2.908   0.436
 1710SOL     OW 6903   7.040   7.203   7.371
 1710SOL    HW1 6904   7.086   7.274   7.416
 1710SOL    HW2 6905   7.088   7.124   7.397
 1711SOL     OW 6906  11.967   6.411   1.683
 1711SOL    HW1 6907  11.921   6.351   1.625
 1711SOL    HW2 6908  12.044   6.361   1.712
 1712SOL     OW 6909   9.216   1.392   0.339
 1712SOL    HW1 6910   9.219   1.419   0.247
 1712SOL    HW2 6911   9.304   1.359   0.357
 1713SOL     OW 6912  14.082  14.177   2.191
 1713SOL    HW1 6913  14.142  14.220   2.253
 1713SOL    HW2 6914  14.046  14.249   2.140
 1714SOL     OW 6915   5.089   2.682  13.513
 1714SOL    HW1 6916   5.082   2.612  13.448
 1714SOL    HW2 6917   5.024   2.747  13.485
 1715SOL     OW 6918   0.146   8.834   9.348
 1715SOL    HW1 6919   0.101   8.795   9.273
 1715SOL    HW2 6920   0.097   8.801   9.424
 1716SOL     OW 6921  12.602   0.560  14.305
 1716SOL    HW1 6922  12.611   0.500  14.232
 1716SOL    HW2 6923  12.511   0.550  14.334
 1717SOL     OW 6924  11.254   0.984   1.665
 1717SOL    HW1 6925  11.250   0.902   1.714
 1717SOL    HW2 6926  11.208   0.965   1.583
 1718SOL     OW 6927  11.833  14.157   9.654
 1718SOL    HW1 6928  11.921  14.180   9.683
 1718SOL    HW2 6929  11.819  14.069   9.689
 1719SOL     OW 6930   3.887  12.145   4.658
 1719SOL    HW1 6931   3.922  12.230   4.686
 1719SOL    HW2 6932   3.950  12.113   4.593
 1720SOL     OW 6933   9.368   7.425   2.619
 1720SOL    HW1 6934   9.337   7.387   2.537
 1720SOL    HW2 6935   9.459   7.397   2.626
 1721SOL     OW 6936   2.978  13.924   4.334
 1721SOL    HW1 6937   2.935  13.987   4.275
 1721SOL    HW2 6938   2.952  13.952   4.421
 1722SOL     OW 6939   9.653   7.685   6.690
 1722SOL    HW1 6940   9.597   7.654   6.761
 1722SOL    HW2 6941   9.596   7.739   6.636
 1723SOL     OW 6942  10.161  13.571   7.055
 1723SOL    HW1 6943  10.221  13.505   7.021
 1723SOL    HW2 6944  10.215  13.627   7.110
 1724SOL     OW 6945   7.213   1.961   8.383
 1724SOL    HW1 6946   7.280   1.937   8.447
 1724SOL    HW2 6947   7.146   2.005   8.435
 1725SOL     OW 6948   3.679  10.861   5.458
 1725SOL    HW1 6949   3.627  10.826   5.530
 1725SOL    HW2 6950   3.617  10.914   5.407
 1726SOL     OW 6951   7.551  12.645  10.761
 1726SOL    HW1 6952   7.474  12.610  10.716
 1726SOL    HW2 6953   7.614  12.573  10.761
 1727SOL     OW 6954   2.477   8.471  12.277
 1727SOL    HW1 6955   2.381   8.464  12.279
 1727SOL    HW2 6956   2.500   8.501  12.364
 1728SOL     OW 6957   4.081   9.567  11.325
 1728SOL    HW1 6958   4.128   9.623  11.263
 1728SOL    HW2 6959   4.092   9.610  11.410
 1729SOL     OW 6960  12.565   9.414   0.736
 1729SOL    HW1 6961  12.594   9.448   0.821
 1729SOL    HW2 6962  12.557   9.320   0.749
 1730SOL     OW 6963   0.909   0.243  10.236
 1730SOL    HW1 6964   0.863   0.320  10.204
 1730SOL    HW2 6965   0.865   0.169  10.193
 1731SOL     OW 6966   4.193  13.084   3.837
 1731SOL    HW1 6967   4.253  13.076   3.763
 1731SOL    HW2 6968   4.117  13.129   3.801
 1732SOL     OW 6969  13.771   2.962  13.901
 1732SOL    HW1 6970  13.820   2.953  13.818
 1732SOL    HW2 6971  13.785   2.878  13.945
 1733SOL     OW 6972  14.563   2.731   7.702
 1733SOL    HW1 6973  14.563   2.826   7.686
 1733SOL    HW2 6974  14.471   2.708   7.712
 1734SOL     OW 6975  11.045   6.915   2.999
 1734SOL    HW1 6976  11.113   6.982   2.993
 1734SOL    HW2 6977  10.971   6.959   3.039
 1735SOL     OW 6978   1.087   0.994   8.262
 1735SOL    HW1 6979   0.994   1.007   8.281
 1735SOL    HW2 6980   1.131   1.028   8.340
 1736SOL     OW 6981   5.770   0.132  10.556
 1736SOL    HW1 6982   5.717   0.112  10.479
 1736SOL    HW2 6983   5.737   0.073  10.624
 1737SOL     OW 6984   6.988  11.320   1.174
 1737SOL    HW1 6985   6.899  11.308   1.208
 1737SOL    HW2 6986   6.997  11.415   1.163
 1738SOL     OW 6987  13.333   5.104   4.753
 1738SOL    HW1 6988  13.262   5.143   4.703
 1738SOL    HW2 6989  13.308   5.116   4.844
 1739SOL     OW 6990   5.958   4.400   3.866
 1739SOL    HW1 6991   5.990   4.312   3.884
 1739SOL    HW2 6992   5.917   4.428   3.947
 1740SOL     OW 6993   3.351   3.596   0.963
 1740SOL    HW1 6994   3.260   3.611   0.988
 1740SOL    HW2 6995   3.347   3.522   0.902
 1741SOL     OW 6996  11.214   9.174   9.755
 1741SOL    HW1 6997  11.253   9.125   9.683
 1741SOL    HW2 6998  11.270   9.157   9.829
 1742SOL     OW 6999   3.954   9.687   6.318
 1742SOL    HW1 7000   3.873   9.700   6.269
 1742SOL    HW2 7001   3.934   9.616   6.379
 1743SOL     OW 7002  10.410  10.552  14.085
 1743SOL    HW1 7003  10.350  10.478  14.079
 1743SOL    HW2 7004  10.446  10.561  13.996
 1744SOL     OW 7005   4.021  11.816  14.663
 1744SOL    HW1 7006   4.058  11.781  14.743
 1744SOL    HW2 7007   3.982  11.900  14.689
 1745SOL     OW 7008   0.893  10.931   2.125
 1745SOL    HW1 7009   0.856  10.969   2.045
 1745SOL    HW2 7010   0.939  11.004   2.167
 1746SOL     OW 7011   9.131   8.842   1.067
 1746SOL    HW1 7012   9.122   8.909   0.999
 1746SOL    HW2 7013   9.149   8.892   1.147
 1747SOL     OW 7014  12.579   4.523  11.856
 1747SOL    HW1 7015  12.591   4.612  11.890
 1747SOL    HW2 7016  12.571   4.469  11.935
 1748SOL     OW 7017   4.157   8.295   9.969
 1748SOL    HW1 7018   4.238   8.308   9.919
 1748SOL    HW2 7019   4.102   8.369   9.946
 1749SOL     OW 7020   1.103   4.249   1.578
 1749SOL    HW1 7021   1.032   4.243   1.643
 1749SOL    HW2 7022   1.108   4.160   1.541
 1750SOL     OW 7023   2.616   5.014   6.550
 1750SOL    HW1 7024   2.548   4.952   6.523
 1750SOL    HW2 7025   2.573   5.069   6.616
 1751SOL     OW 7026   0.115   6.270   1.765
 1751SOL    HW1 7027   0.042   6.283   1.825
 1751SOL    HW2 7028   0.174   6.344   1.782
 1752SOL     OW 7029  13.929   5.805  12.923
 1752SOL    HW1 7030  13.969   5.726  12.887
 1752SOL    HW2 7031  13.906   5.782  13.013
 1753SOL     OW 7032   1.164   0.607   4.930
 1753SOL    HW1 7033   1.145   0.559   4.849
 1753SOL    HW2 7034   1.083   0.600   4.981
 1754SOL     OW 7035   6.378   8.914   6.619
 1754SOL    HW1 7036   6.314   8.947   6.682
 1754SOL    HW2 7037   6.460   8.957   6.643
 1755SOL     OW 7038   1.217  10.397  14.087
 1755SOL    HW1 7039   1.197  10.487  14.113
 1755SOL    HW2 7040   1.298  10.404  14.036
 1756SOL     OW 7041   8.304   4.622   0.910
 1756SOL    HW1 7042   8.264   4.708   0.923
 1756SOL    HW2 7043   8.396   4.641   0.891
 1757SOL     OW 7044  10.077  12.417   6.170
 1757SOL    HW1 7045  10.010  12.350   6.161
 1757SOL    HW2 7046  10.090  12.427   6.264
 1758SOL     OW 7047   5.870   4.936   2.535
 1758SOL    HW1 7048   5.800   5.001   2.542
 1758SOL    HW2 7049   5.828   4.854   2.561
 1759SOL     OW 7050   7.813  11.798   2.376
 1759SOL    HW1 7051   7.819  11.749   2.295
 1759SOL    HW2 7052   7.899  11.790   2.416
 1760SOL     OW 7053   0.495   8.589   1.953
 1760SOL    HW1 7054   0.563   8.537   1.911
 1760SOL    HW2 7055   0.499   8.566   2.046
 1761SOL     OW 7056   8.052   5.404   9.090
 1761SOL    HW1 7057   8.036   5.329   9.033
 1761SOL    HW2 7058   8.116   5.457   9.042
 1762SOL     OW 7059   5.762  10.620  12.884
 1762SOL    HW1 7060   5.833  10.566  12.849
 1762SOL    HW2 7061   5.695  10.619  12.816
 1763SOL     OW 7062  13.891   4.302  10.313
 1763SOL    HW1 7063  13.916   4.329  10.401
 1763SOL    HW2 7064  13.965   4.249  10.282
 1764SOL     OW 7065  12.297   1.845  14.814
 1764SOL    HW1 7066  12.246   1.769  14.790
 1764SOL    HW2 7067  12.319   1.832   0.029
 1765SOL     OW 7068  12.880   1.458   9.887
 1765SOL    HW1 7069  12.921   1.480   9.971
 1765SOL    HW2 7070  12.823   1.533   9.868
 1766SOL     OW 7071  10.335   9.642   1.573
 1766SOL    HW1 7072  10.405   9.644   1.638
 1766SOL    HW2 7073  10.310   9.550   1.568
 1767SOL     OW 7074   7.666  13.074   9.038
 1767SOL    HW1 7075   7.739  13.068   9.100
 1767SOL    HW2 7076   7.695  13.140   8.975
 1768SOL     OW 7077   8.548  12.192   4.425
 1768SOL    HW1 7078   8.479  12.126   4.433
 1768SOL    HW2 7079   8.611  12.153   4.365
 1769SOL     OW 7080   9.529   6.124  12.758
 1769SOL    HW1 7081   9.596   6.109  12.692
 1769SOL    HW2 7082   9.446   6.116  12.711
 1770SOL     OW 7083   5.627  10.546  10.341
 1770SOL    HW1 7084   5.558  10.501  10.390
 1770SOL    HW2 7085   5.661  10.612  10.402
 1771SOL     OW 7086   9.526   3.603  10.213
 1771SOL    HW1 7087   9.491   3.627  10.127
 1771SOL    HW2 7088   9.451   3.604  10.271
 1772SOL     OW 7089  13.339   1.062  12.762
 1772SOL    HW1 7090  13.294   1.001  12.704
 1772SOL    HW2 7091  13.276   1.082  12.831
 1773SOL     OW 7092   2.454  11.114  14.324
 1773SOL    HW1 7093   2.364  11.082  14.313
 1773SOL    HW2 7094   2.499  11.045  14.372
 1774SOL     OW 7095  10.205   9.938  13.614
 1774SOL    HW1 7096  10.143   9.878  13.572
 1774SOL    HW2 7097  10.290   9.894  13.607
 1775SOL     OW 7098   8.136  11.822   2.721
 1775SOL    HW1 7099   8.104  11.806   2.632
 1775SOL    HW2 7100   8.191  11.745   2.740
 1776SOL     OW 7101   2.972  14.365   2.323
 1776SOL    HW1 7102   2.981  14.290   2.264
 1776SOL    HW2 7103   3.060  14.402   2.329
 1777SOL     OW 7104   8.745   7.115   4.843
 1777SOL    HW1 7105   8.701   7.195   4.815
 1777SOL    HW2 7106   8.838   7.131   4.825
 1778SOL     OW 7107   5.538   2.778   0.182
 1778SOL    HW1 7108   5.618   2.825   0.203
 1778SOL    HW2 7109   5.550   2.750   0.091
 1779SOL     OW 7110  11.703  10.753   6.311
 1779SOL    HW1 7111  11.784  10.741   6.262
 1779SOL    HW2 7112  11.711  10.695   6.386
 1780SOL     OW 7113  13.487   3.237   6.021
 1780SOL    HW1 7114  13.550   3.175   5.985
 1780SOL    HW2 7115  13.437   3.186   6.085
 1781SOL     OW 7116  14.416  12.836   5.040
 1781SOL    HW1 7117  14.378  12.846   5.127
 1781SOL    HW2 7118  14.483  12.768   5.050
 1782SOL     OW 7119   4.189   4.629   8.548
 1782SOL    HW1 7120   4.154   4.627   8.459
 1782SOL    HW2 7121   4.127   4.684   8.597
 1783SOL     OW 7122   7.950   3.187   5.279
 1783SOL    HW1 7123   8.002   3.239   5.341
 1783SOL    HW2 7124   8.000   3.189   5.198
 1784SOL     OW 7125   8.402  13.513   9.834
 1784SOL    HW1 7126   8.321  13.564   9.830
 1784SOL    HW2 7127   8.425  13.497   9.743
 1785SOL     OW 7128   4.945   8.288   1.743
 1785SOL    HW1 7129   4.955   8.200   1.779
 1785SOL    HW2 7130   4.986   8.345   1.808
 1786SOL     OW 7131   8.847   4.395   8.804
 1786SOL    HW1 7132   8.810   4.320   8.757
 1786SOL    HW2 7133   8.852   4.464   8.738
 1787SOL     OW 7134  12.425   6.551   4.684
 1787SOL    HW1 7135  12.440   6.572   4.592
 1787SOL    HW2 7136  12.334   6.578   4.701
 1788SOL     OW 7137   3.460  14.031   1.313
 1788SOL    HW1 7138   3.418  14.082   1.244
 1788SOL    HW2 7139   3.486  13.949   1.270
 1789SOL     OW 7140   6.725   7.304  11.831
 1789SOL    HW1 7141   6.683   7.297  11.745
 1789SOL    HW2 7142   6.738   7.213  11.858
 1790SOL     OW 7143   5.924   4.452   1.184
 1790SOL    HW1 7144   5.936   4.547   1.179
 1790SOL    HW2 7145   6.005   4.416   1.147
 1791SOL     OW 7146  14.076  12.128  14.121
 1791SOL    HW1 7147  14.132  12.064  14.165
 1791SOL    HW2 7148  13.988  12.093  14.130
 1792SOL     OW 7149   6.756   8.403   2.085
 1792SOL    HW1 7150   6.687   8.365   2.030
 1792SOL    HW2 7151   6.814   8.329   2.104
 1793SOL     OW 7152   8.638   4.339   4.674
 1793SOL    HW1 7153   8.650   4.367   4.584
 1793SOL    HW2 7154   8.616   4.419   4.722
 1794SOL     OW 7155   1.334  13.580   7.493
 1794SOL    HW1 7156   1.427  13.603   7.491
 1794SOL    HW2 7157   1.328  13.508   7.556
 1795SOL     OW 7158   5.828   7.413  14.414
 1795SOL    HW1 7159   5.800   7.434  14.325
 1795SOL    HW2 7160   5.920   7.385  14.405
 1796SOL     OW 7161   0.336   0.628   5.230
 1796SOL    HW1 7162   0.399   0.559   5.246
 1796SOL    HW2 7163   0.335   0.639   5.135
 1797SOL     OW 7164   8.162  11.470   3.795
 1797SOL    HW1 7165   8.072  11.437   3.794
 1797SOL    HW2 7166   8.174  11.510   3.709
 1798SOL     OW 7167  14.548   1.196  13.528
 1798SOL    HW1 7168  14.476   1.151  13.484
 1798SOL    HW2 7169  14.515   1.284  13.544
 1799SOL     OW 7170   2.693   4.415   5.436
 1799SOL    HW1 7171   2.770   4.459   5.400
 1799SOL    HW2 7172   2.701   4.424   5.531
 1800SOL     OW 7173   7.135   8.724   0.271
 1800SOL    HW1 7174   7.114   8.703   0.361
 1800SOL    HW2 7175   7.131   8.820   0.267
 1801SOL     OW 7176   5.257  10.393  10.309
 1801SOL    HW1 7177   5.178  10.397  10.363
 1801SOL    HW2 7178   5.330  10.401  10.371
 1802SOL     OW 7179   3.846  12.878  10.018
 1802SOL    HW1 7180   3.754  12.852  10.020
 1802SOL    HW2 7181   3.894  12.797   9.999
 1803SOL     OW 7182   1.287  13.845   7.710
 1803SOL    HW1 7183   1.316  13.832   7.620
 1803SOL    HW2 7184   1.299  13.760   7.751
 1804SOL     OW 7185  10.308  10.096   9.423
 1804SOL    HW1 7186  10.400  10.114   9.443
 1804SOL    HW2 7187  10.261  10.117   9.503
 1805SOL     OW 7188  12.831   1.517  10.514
 1805SOL    HW1 7189  12.818   1.611  10.513
 1805SOL    HW2 7190  12.747   1.480  10.489
 1806SOL     OW 7191  13.513  10.394   5.544
 1806SOL    HW1 7192  13.427  10.353   5.538
 1806SOL    HW2 7193  13.534  10.393   5.637
 1807SOL     OW 7194  12.688   2.874   8.830
 1807SOL    HW1 7195  12.688   2.950   8.772
 1807SOL    HW2 7196  12.613   2.889   8.888
 1808SOL     OW 7197   9.414   0.611   7.721
 1808SOL    HW1 7198   9.329   0.592   7.760
 1808SOL    HW2 7199   9.476   0.561   7.774
 1809SOL     OW 7200   0.442   1.682   3.620
 1809SOL    HW1 7201   0.402   1.767   3.604
 1809SOL    HW2 7202   0.441   1.672   3.715
 1810SOL     OW 7203   3.108   4.704   4.330
 1810SOL    HW1 7204   3.017   4.677   4.337
 1810SOL    HW2 7205   3.145   4.687   4.417
 1811SOL     OW 7206  10.159  14.344   6.859
 1811SOL    HW1 7207  10.236  14.297   6.827
 1811SOL    HW2 7208  10.189  14.434   6.869
 1812SOL     OW 7209   6.038   7.288   4.043
 1812SOL    HW1 7210   6.010   7.204   4.008
 1812SOL    HW2 7211   5.956   7.336   4.058
 1813SOL     OW 7212  14.412   2.120   2.758
 1813SOL    HW1 7213  14.380   2.039   2.718
 1813SOL    HW2 7214  14.400   2.187   2.690
 1814SOL     OW 7215  13.488  14.391  12.488
 1814SOL    HW1 7216  13.460  14.335  12.560
 1814SOL    HW2 7217  13.423  14.461  12.484
 1815SOL     OW 7218   6.084   2.558   2.536
 1815SOL    HW1 7219   6.164   2.508   2.550
 1815SOL    HW2 7220   6.027   2.533   2.610
 1816SOL     OW 7221  13.652   0.663   4.558
 1816SOL    HW1 7222  13.558   0.649   4.550
 1816SOL    HW2 7223  13.662   0.724   4.631
 1817SOL     OW 7224  14.563   0.351  14.445
 1817SOL    HW1 7225  14.656   0.357  14.466
 1817SOL    HW2 7226  14.559   0.349  14.350
 1818SOL     OW 7227   1.798  11.058   5.937
 1818SOL    HW1 7228   1.715  11.030   5.977
 1818SOL    HW2 7229   1.773  11.093   5.852
 1819SOL     OW 7230   2.853  10.945   1.604
 1819SOL    HW1 7231   2.767  10.927   1.640
 1819SOL    HW2 7232   2.864  11.040   1.614
 1820SOL     OW 7233   9.480  10.868   4.453
 1820SOL    HW1 7234   9.523  10.800   4.505
 1820SOL    HW2 7235   9.430  10.919   4.517
 1821SOL     OW 7236   0.730   0.924   1.427
 1821SOL    HW1 7237   0.745   1.005   1.379
 1821SOL    HW2 7238   0.807   0.914   1.482
 1822SOL     OW 7239  12.648   5.999  12.415
 1822SOL    HW1 7240  12.622   5.973  12.327
 1822SOL    HW2 7241  12.608   5.933  12.472
 1823SOL     OW 7242   8.679   8.550   8.246
 1823SOL    HW1 7243   8.666   8.456   8.236
 1823SOL    HW2 7244   8.614   8.577   8.311
 1824SOL     OW 7245   6.950   6.807   9.254
 1824SOL    HW1 7246   6.980   6.717   9.246
 1824SOL    HW2 7247   7.008   6.857   9.198
 1825SOL     OW 7248  14.713   2.686   1.622
 1825SOL    HW1 7249  14.651   2.738   1.673
 1825SOL    HW2 7250  14.662   2.655   1.547
 1826SOL     OW 7251  11.893   9.524   0.276
 1826SOL    HW1 7252  11.837   9.519   0.353
 1826SOL    HW2 7253  11.897   9.434   0.242
 1827SOL     OW 7254   7.661  12.653   4.998
 1827SOL    HW1 7255   7.742  12.611   5.027
 1827SOL    HW2 7256   7.643  12.614   4.912
 1828SOL     OW 7257   8.121   3.625   9.952
 1828SOL    HW1 7258   8.170   3.587   9.879
 1828SOL    HW2 7259   8.100   3.550  10.008
 1829SOL     OW 7260   5.620   1.346   9.135
 1829SOL    HW1 7261   5.630   1.264   9.088
 1829SOL    HW2 7262   5.629   1.414   9.067
 1830SOL     OW 7263  14.779   8.256   9.945
 1830SOL    HW1 7264  14.841   8.193   9.908
 1830SOL    HW2 7265  14.819   8.341   9.928
 1831SOL     OW 7266  11.771   7.468   4.224
 1831SOL    HW1 7267  11.716   7.395   4.195
 1831SOL    HW2 7268  11.839   7.428   4.278
 1832SOL     OW 7269  13.314   5.794   1.750
 1832SOL    HW1 7270  13.352   5.755   1.671
 1832SOL    HW2 7271  13.220   5.788   1.737
 1833SOL     OW 7272   7.801   4.424   5.092
 1833SOL    HW1 7273   7.883   4.381   5.069
 1833SOL    HW2 7274   7.744   4.353   5.122
 1834SOL     OW 7275   5.679   9.914   3.051
 1834SOL    HW1 7276   5.704   9.907   2.959
 1834SOL    HW2 7277   5.757   9.890   3.100
 1835SOL     OW 7278  12.749   9.247  11.179
 1835SOL    HW1 7279  12.727   9.339  11.163
 1835SOL    HW2 7280  12.672   9.198  11.148
 1836SOL     OW 7281  12.666  13.834  10.599
 1836SOL    HW1 7282  12.755  13.852  10.567
 1836SOL    HW2 7283  12.645  13.910  10.654
 1837SOL     OW 7284   8.374  10.361  10.525
 1837SOL    HW1 7285   8.293  10.337  10.569
 1837SOL    HW2 7286   8.353  10.357  10.432
 1838SOL     OW 7287   2.140  10.968  13.929
 1838SOL    HW1 7288   2.128  10.900  13.995
 1838SOL    HW2 7289   2.231  10.996  13.940
 1839SOL     OW 7290   1.052  14.806  11.152
 1839SOL    HW1 7291   0.983  14.781  11.212
 1839SOL    HW2 7292   1.055   0.024  11.156
 1840SOL     OW 7293  13.194  11.213   5.174
 1840SOL    HW1 7294  13.268  11.274   5.173
 1840SOL    HW2 7295  13.121  11.266   5.207
 1841SOL     OW 7296  14.048   8.088   5.019
 1841SOL    HW1 7297  14.118   8.045   5.069
 1841SOL    HW2 7298  14.057   8.051   4.931
 1842SOL     OW 7299  12.075  12.616   6.679
 1842SOL    HW1 7300  12.055  12.590   6.769
 1842SOL    HW2 7301  12.134  12.691   6.688
 1843SOL     OW 7302   5.972   5.507   9.022
 1843SOL    HW1 7303   6.021   5.467   8.951
 1843SOL    HW2 7304   5.882   5.512   8.989
 1844SOL     OW 7305   6.872  11.348  12.897
 1844SOL    HW1 7306   6.811  11.324  12.967
 1844SOL    HW2 7307   6.916  11.427  12.930
 1845SOL     OW 7308   0.080   2.062   3.559
 1845SOL    HW1 7309   0.046   1.982   3.520
 1845SOL    HW2 7310   0.150   2.091   3.500
 1846SOL     OW 7311   9.535   2.324  12.480
 1846SOL    HW1 7312   9.592   2.294  12.409
 1846SOL    HW2 7313   9.541   2.255  12.546
 1847SOL     OW 7314  14.525  10.006   4.066
 1847SOL    HW1 7315  14.471   9.933   4.097
 1847SOL    HW2 7316  14.606   9.964   4.037
 1848SOL     OW 7317  11.542   4.694   3.679
 1848SOL    HW1 7318  11.451   4.668   3.688
 1848SOL    HW2 7319  11.561   4.687   3.586
 1849SOL     OW 7320  11.121  14.690  11.677
 1849SOL    HW1 7321  11.057  14.619  11.663
 1849SOL    HW2 7322  11.202  14.645  11.699
 1850SOL     OW 7323   9.849   1.247  11.706
 1850SOL    HW1 7324   9.767   1.296  11.708
 1850SOL    HW2 7325   9.905   1.295  11.645
 1851SOL     OW 7326  13.475   7.740   4.300
 1851SOL    HW1 7327  13.486   7.691   4.381
 1851SOL    HW2 7328  13.494   7.830   4.323
 1852SOL     OW 7329   2.194   8.990  14.553
 1852SOL    HW1 7330   2.172   9.083  14.556
 1852SOL    HW2 7331   2.289   8.989  14.565
 1853SOL     OW 7332   8.134   5.996  13.749
 1853SOL    HW1 7333   8.173   5.970  13.666
 1853SOL    HW2 7334   8.041   5.977  13.739
 1854SOL     OW 7335   9.052  11.848   9.515
 1854SOL    HW1 7336   9.024  11.872   9.604
 1854SOL    HW2 7337   9.076  11.932   9.474
 1855SOL     OW 7338   8.717   4.458   4.448
 1855SOL    HW1 7339   8.737   4.419   4.363
 1855SOL    HW2 7340   8.697   4.550   4.429
 1856SOL     OW 7341  12.093   0.642  12.780
 1856SOL    HW1 7342  12.011   0.601  12.752
 1856SOL    HW2 7343  12.161   0.582  12.749
 1857SOL     OW 7344   9.279  10.510  13.692
 1857SOL    HW1 7345   9.263  10.512  13.598
 1857SOL    HW2 7346   9.196  10.537  13.731
 1858SOL     OW 7347   6.902   2.055  13.803
 1858SOL    HW1 7348   6.920   2.117  13.731
 1858SOL    HW2 7349   6.985   2.048  13.850
 1859SOL     OW 7350   6.965   1.037  13.741
 1859SOL    HW1 7351   7.001   1.117  13.779
 1859SOL    HW2 7352   7.040   0.978  13.730
 1860SOL     OW 7353  12.958   4.146  12.901
 1860SOL    HW1 7354  13.049   4.141  12.930
 1860SOL    HW2 7355  12.906   4.132  12.980
 1861SOL     OW 7356  14.063   3.239  14.305
 1861SOL    HW1 7357  14.057   3.325  14.346
 1861SOL    HW2 7358  14.058   3.257  14.211
 1862SOL     OW 7359   5.565  13.072   4.559
 1862SOL    HW1 7360   5.637  13.093   4.498
 1862SOL    HW2 7361   5.487  13.073   4.504
 1863SOL     OW 7362   9.281  13.255  11.243
 1863SOL    HW1 7363   9.243  13.343  11.242
 1863SOL    HW2 7364   9.284  13.230  11.150
 1864SOL     OW 7365   6.980   1.420  10.982
 1864SOL    HW1 7366   6.977   1.385  11.071
 1864SOL    HW2 7367   6.891   1.452  10.967
 1865SOL     OW 7368   3.868   7.295   3.682
 1865SOL    HW1 7369   3.804   7.331   3.620
 1865SOL    HW2 7370   3.871   7.360   3.752
 1866SOL     OW 7371  11.881   9.348   1.049
 1866SOL    HW1 7372  11.940   9.419   1.074
 1866SOL    HW2 7373  11.936   9.270   1.051
 1867SOL     OW 7374   4.197   2.669   4.451
 1867SOL    HW1 7375   4.109   2.706   4.458
 1867SOL    HW2 7376   4.196   2.620   4.368
 1868SOL     OW 7377   1.896   7.491   4.477
 1868SOL    HW1 7378   1.905   7.585   4.493
 1868SOL    HW2 7379   1.802   7.477   4.463
 1869SOL     OW 7380   4.337  11.901  14.664
 1869SOL    HW1 7381   4.376  11.911  14.750
 1869SOL    HW2 7382   4.296  11.814  14.666
 1870SOL     OW 7383  13.249   0.532  13.675
 1870SOL    HW1 7384  13.177   0.569  13.624
 1870SOL    HW2 7385  13.292   0.607  13.715
 1871SOL     OW 7386   6.948   6.695  11.730
 1871SOL    HW1 7387   6.885   6.730  11.668
 1871SOL    HW2 7388   6.927   6.739  11.813
 1872SOL     OW 7389   0.342   0.289   3.731
 1872SOL    HW1 7390   0.436   0.281   3.717
 1872SOL    HW2 7391   0.334   0.359   3.796
 1873SOL     OW 7392  14.213   3.552   1.350
 1873SOL    HW1 7393  14.237   3.571   1.441
 1873SOL    HW2 7394  14.295   3.565   1.301
 1874SOL     OW 7395   3.114   6.404   7.496
 1874SOL    HW1 7396   3.080   6.336   7.553
 1874SOL    HW2 7397   3.166   6.460   7.554
 1875SOL     OW 7398   0.071  10.310   1.193
 1875SOL    HW1 7399   0.156  10.289   1.152
 1875SOL    HW2 7400   0.041  10.226   1.228
 1876SOL     OW 7401  14.127  11.851   2.441
 1876SOL    HW1 7402  14.148  11.919   2.376
 1876SOL    HW2 7403  14.108  11.773   2.389
 1877SOL     OW 7404  13.083  14.841  14.311
 1877SOL    HW1 7405  13.007  14.868  14.362
 1877SOL    HW2 7406  13.158  14.858  14.369
 1878SOL     OW 7407   2.481   7.333  11.851
 1878SOL    HW1 7408   2.527   7.383  11.783
 1878SOL    HW2 7409   2.531   7.351  11.931
 1879SOL     OW 7410   4.308   7.038   3.830
 1879SOL    HW1 7411   4.255   7.106   3.871
 1879SOL    HW2 7412   4.314   6.969   3.896
 1880SOL     OW 7413  13.923  12.151   9.282
 1880SOL    HW1 7414  13.972  12.110   9.354
 1880SOL    HW2 7415  13.949  12.101   9.204
 1881SOL     OW 7416  14.573   9.543  14.413
 1881SOL    HW1 7417  14.608   9.527  14.325
 1881SOL    HW2 7418  14.613   9.626  14.439
 1882SOL     OW 7419   2.723   8.047   6.541
 1882SOL    HW1 7420   2.661   8.043   6.614
 1882SOL    HW2 7421   2.710   7.965   6.494
 1883SOL     OW 7422   6.650   4.635   2.699
 1883SOL    HW1 7423   6.559   4.606   2.708
 1883SOL    HW2 7424   6.677   4.658   2.788
 1884SOL     OW 7425   7.793  13.967  11.523
 1884SOL    HW1 7426   7.745  13.888  11.545
 1884SOL    HW2 7427   7.742  14.038  11.561
 1885SOL     OW 7428   4.292  10.921  14.868
 1885SOL    HW1 7429   4.234  10.969   0.049
 1885SOL    HW2 7430   4.271  10.954  14.781
 1886SOL     OW 7431  13.942  14.074   6.631
 1886SOL    HW1 7432  13.993  14.143   6.589
 1886SOL    HW2 7433  13.992  13.994   6.616
 1887SOL     OW 7434  12.774  13.988  13.852
 1887SOL    HW1 7435  12.782  13.930  13.928
 1887SOL    HW2 7436  12.701  14.045  13.874
 1888SOL     OW 7437  13.091   7.377  11.084
 1888SOL    HW1 7438  13.009   7.364  11.038
 1888SOL    HW2 7439  13.069   7.366  11.177
 1889SOL     OW 7440  14.799  13.849  10.070
 1889SOL    HW1 7441  14.750  13.922  10.108
 1889SOL    HW2 7442  14.830  13.799  10.145
 1890SOL     OW 7443   0.459  14.369  12.587
 1890SOL    HW1 7444   0.459  14.464  12.596
 1890SOL    HW2 7445   0.373  14.341  12.618
 1891SOL     OW 7446  12.932  10.663   6.905
 1891SOL    HW1 7447  13.023  10.657   6.877
 1891SOL    HW2 7448  12.932  10.631   6.995
 1892SOL     OW 7449  13.776  10.986   6.221
 1892SOL    HW1 7450  13.850  11.018   6.272
 1892SOL    HW2 7451  13.699  11.024   6.263
 1893SOL     OW 7452  11.371   6.331  11.922
 1893SOL    HW1 7453  11.311   6.309  11.994
 1893SOL    HW2 7454  11.450   6.362  11.966
 1894SOL     OW 7455   2.023  13.102   4.530
 1894SOL    HW1 7456   1.957  13.164   4.564
 1894SOL    HW2 7457   2.011  13.023   4.583
 1895SOL     OW 7458   5.745   1.492   7.704
 1895SOL    HW1 7459   5.743   1.514   7.611
 1895SOL    HW2 7460   5.743   1.396   7.706
 1896SOL     OW 7461  10.134   3.893  12.381
 1896SOL    HW1 7462  10.132   3.985  12.408
 1896SOL    HW2 7463  10.180   3.894  12.297
 1897SOL     OW 7464   2.792  11.076   2.211
 1897SOL    HW1 7465   2.775  11.140   2.281
 1897SOL    HW2 7466   2.880  11.045   2.229
 1898SOL     OW 7467   1.433  12.928   8.447
 1898SOL    HW1 7468   1.511  12.935   8.393
 1898SOL    HW2 7469   1.454  12.977   8.527
 1899SOL     OW 7470   3.075   8.221  14.105
 1899SOL    HW1 7471   3.165   8.203  14.078
 1899SOL    HW2 7472   3.028   8.233  14.022
 1900SOL     OW 7473  14.812   5.523   9.514
 1900SOL    HW1 7474  14.728   5.487   9.486
 1900SOL    HW2 7475  14.836   5.586   9.445
 1901SOL     OW 7476   9.433  12.703   3.211
 1901SOL    HW1 7477   9.378  12.749   3.274
 1901SOL    HW2 7478   9.502  12.664   3.264
 1902SOL     OW 7479   1.681   5.789   6.110
 1902SOL    HW1 7480   1.632   5.712   6.142
 1902SOL    HW2 7481   1.615   5.844   6.069
 1903SOL     OW 7482  10.369   9.758   6.558
 1903SOL    HW1 7483  10.372   9.821   6.630
 1903SOL    HW2 7484  10.309   9.797   6.494
 1904SOL     OW 7485   6.574   0.553   0.149
 1904SOL    HW1 7486   6.513   0.539   0.222
 1904SOL    HW2 7487   6.644   0.606   0.186
 1905SOL     OW 7488   9.179   2.961  12.462
 1905SOL    HW1 7489   9.221   2.891  12.513
 1905SOL    HW2 7490   9.165   2.923  12.375
 1906SOL     OW 7491   1.263   8.253  11.158
 1906SOL    HW1 7492   1.271   8.306  11.237
 1906SOL    HW2 7493   1.282   8.164  11.187
 1907SOL     OW 7494   6.180  13.490  13.796
 1907SOL    HW1 7495   6.149  13.535  13.875
 1907SOL    HW2 7496   6.147  13.543  13.724
 1908SOL     OW 7497   9.772   8.379   0.763
 1908SOL    HW1 7498   9.685   8.414   0.782
 1908SOL    HW2 7499   9.770   8.357   0.670
 1909SOL     OW 7500  11.129   2.659   1.550
 1909SOL    HW1 7501  11.066   2.634   1.483
 1909SOL    HW2 7502  11.200   2.596   1.541
 1910SOL     OW 7503   1.797   2.379   1.757
 1910SOL    HW1 7504   1.746   2.415   1.829
 1910SOL    HW2 7505   1.827   2.455   1.708
 1911SOL     OW 7506  10.225   5.878   6.324
 1911SOL    HW1 7507  10.220   5.918   6.410
 1911SOL    HW2 7508  10.163   5.928   6.271
 1912SOL     OW 7509   0.797   7.484   0.722
 1912SOL    HW1 7510   0.755   7.541   0.787
 1912SOL    HW2 7511   0.782   7.529   0.639
 1913SOL     OW 7512  14.809  10.662   6.196
 1913SOL    HW1 7513  14.737  10.614   6.155
 1913SOL    HW2 7514  14.771  10.746   6.221
 1914SOL     OW 7515   6.171   1.876   7.434
 1914SOL    HW1 7516   6.077   1.857   7.429
 1914SOL    HW2 7517   6.184   1.906   7.524
 1915SOL     OW 7518  11.793   5.281  10.506
 1915SOL    HW1 7519  11.879   5.286  10.550
 1915SOL    HW2 7520  11.805   5.217  10.437
 1916SOL     OW 7521  13.001  11.313   4.562
 1916SOL    HW1 7522  12.909  11.337   4.550
 1916SOL    HW2 7523  13.050  11.381   4.515
 1917SOL     OW 7524   3.142  13.348  13.308
 1917SOL    HW1 7525   3.074  13.281  13.308
 1917SOL    HW2 7526   3.199  13.325  13.234
 1918SOL     OW 7527   1.959   6.138   2.559
 1918SOL    HW1 7528   1.920   6.225   2.575
 1918SOL    HW2 7529   2.002   6.115   2.641
 1919SOL     OW 7530   8.473   4.679   9.216
 1919SOL    HW1 7531   8.472   4.775   9.220
 1919SOL    HW2 7532   8.510   4.659   9.130
 1920SOL     OW 7533  12.723   1.271   1.930
 1920SOL    HW1 7534  12.643   1.297   1.975
 1920SOL    HW2 7535  12.708   1.179   1.907
 1921SOL     OW 7536   1.714   7.108   9.421
 1921SOL    HW1 7537   1.701   7.026   9.470
 1921SOL    HW2 7538   1.676   7.091   9.335
 1922SOL     OW 7539  14.351   9.504   2.289
 1922SOL    HW1 7540  14.304   9.455   2.356
 1922SOL    HW2 7541  14.360   9.442   2.216
 1923SOL     OW 7542  13.824  10.550   3.135
 1923SOL    HW1 7543  13.805  10.639   3.104
 1923SOL    HW2 7544  13.831  10.498   3.055
 1924SOL     OW 7545   2.691  13.469   7.803
 1924SOL    HW1 7546   2.718  13.399   7.743
 1924SOL    HW2 7547   2.606  13.439   7.837
 1925SOL     OW 7548  11.849  10.390   1.842
 1925SOL    HW1 7549  11.826  10.482   1.850
 1925SOL    HW2 7550  11.939  10.384   1.876
 1926SOL     OW 7551  10.171   2.517  11.263
 1926SOL    HW1 7552  10.113   2.486  11.332
 1926SOL    HW2 7553  10.122   2.502  11.182
 1927SOL     OW 7554   3.307   5.181   3.398
 1927SOL    HW1 7555   3.233   5.221   3.354
 1927SOL    HW2 7556   3.307   5.090   3.369
 1928SOL     OW 7557  13.360  14.839  12.341
 1928SOL    HW1 7558  13.367  14.811  12.250
 1928SOL    HW2 7559  13.303   0.038  12.339
 1929SOL     OW 7560   8.374  13.618   1.667
 1929SOL    HW1 7561   8.384  13.706   1.629
 1929SOL    HW2 7562   8.359  13.634   1.760
 1930SOL     OW 7563   1.629   7.012   2.210
 1930SOL    HW1 7564   1.567   7.029   2.281
 1930SOL    HW2 7565   1.710   6.986   2.254
 1931SOL     OW 7566   3.280   3.544   6.226
 1931SOL    HW1 7567   3.367   3.502   6.230
 1931SOL    HW2 7568   3.266   3.559   6.132
 1932SOL     OW 7569   6.392  14.675  11.520
 1932SOL    HW1 7570   6.363  14.646  11.606
 1932SOL    HW2 7571   6.330  14.636  11.459
 1933SOL     OW 7572  10.076  11.296  11.767
 1933SOL    HW1 7573  10.003  11.261  11.716
 1933SOL    HW2 7574  10.057  11.268  11.857
 1934SOL     OW 7575   2.887  11.631   0.950
 1934SOL    HW1 7576   2.857  11.689   0.880
 1934SOL    HW2 7577   2.974  11.603   0.922
 1935SOL     OW 7578  13.313   6.230   3.033
 1935SOL    HW1 7579  13.396   6.219   3.078
 1935SOL    HW2 7580  13.276   6.142   3.028
 1936SOL     OW 7581   8.387  14.028   4.249
 1936SOL    HW1 7582   8.446  14.032   4.325
 1936SOL    HW2 7583   8.435  14.073   4.180
 1937SOL     OW 7584   4.558   0.700   2.565
 1937SOL    HW1 7585   4.512   0.732   2.487
 1937SOL    HW2 7586   4.517   0.746   2.638
 1938SOL     OW 7587   1.917  14.351   0.096
 1938SOL    HW1 7588   1.834  14.305   0.084
 1938SOL    HW2 7589   1.921  14.370   0.190
 1939SOL     OW 7590   8.875   4.199  14.312
 1939SOL    HW1 7591   8.921   4.283  14.319
 1939SOL    HW2 7592   8.945   4.134  14.306
 1940SOL     OW 7593  12.045  13.497   9.911
 1940SOL    HW1 7594  12.082  13.474   9.996
 1940SOL    HW2 7595  12.116  13.481   9.849
 1941SOL     OW 7596  14.264  13.409   9.493
 1941SOL    HW1 7597  14.346  13.401   9.543
 1941SOL    HW2 7598  14.261  13.500   9.464
 1942SOL     OW 7599  12.331   7.333   4.242
 1942SOL    HW1 7600  12.356   7.416   4.201
 1942SOL    HW2 7601  12.413   7.283   4.246
 1943SOL     OW 7602   1.024   4.874   8.473
 1943SOL    HW1 7603   0.958   4.829   8.525
 1943SOL    HW2 7604   1.055   4.945   8.529
 1944SOL     OW 7605  11.946  10.870   0.316
 1944SOL    HW1 7606  11.978  10.958   0.339
 1944SOL    HW2 7607  11.961  10.818   0.395
 1945SOL     OW 7608   0.840   6.866   7.785
 1945SOL    HW1 7609   0.846   6.786   7.732
 1945SOL    HW2 7610   0.912   6.921   7.753
 1946SOL     OW 7611  14.491   2.332   5.786
 1946SOL    HW1 7612  14.458   2.386   5.857
 1946SOL    HW2 7613  14.555   2.388   5.741
 1947SOL     OW 7614  10.893   8.518  12.875
 1947SOL    HW1 7615  10.899   8.582  12.947
 1947SOL    HW2 7616  10.930   8.564  12.800
 1948SOL     OW 7617  10.856  14.268   9.831
 1948SOL    HW1 7618  10.908  14.326   9.886
 1948SOL    HW2 7619  10.919  14.205   9.794
 1949SOL     OW 7620  10.581  13.793   0.301
 1949SOL    HW1 7621  10.615  13.882   0.292
 1949SOL    HW2 7622  10.644  13.738   0.254
 1950SOL     OW 7623  12.718   6.901  10.917
 1950SOL    HW1 7624  12.679   6.824  10.960
 1950SOL    HW2 7625  12.781   6.864  10.855
 1951SOL     OW 7626   9.305   4.932   1.903
 1951SOL    HW1 7627   9.276   4.898   1.818
 1951SOL    HW2 7628   9.309   4.855   1.960
 1952SOL     OW 7629   0.649   8.764   1.097
 1952SOL    HW1 7630   0.631   8.851   1.134
 1952SOL    HW2 7631   0.640   8.776   1.003
 1953SOL     OW 7632   7.396   0.197   4.419
 1953SOL    HW1 7633   7.336   0.168   4.488
 1953SOL    HW2 7634   7.385   0.292   4.416
 1954SOL     OW 7635   3.583   7.905   3.908
 1954SOL    HW1 7636   3.666   7.878   3.948
 1954SOL    HW2 7637   3.545   7.823   3.875
 1955SOL     OW 7638  11.791   8.488  10.362
 1955SOL    HW1 7639  11.826   8.485  10.451
 1955SOL    HW2 7640  11.722   8.421  10.360
 1956SOL     OW 7641   1.503   4.511   2.297
 1956SOL    HW1 7642   1.511   4.592   2.247
 1956SOL    HW2 7643   1.415   4.513   2.332
 1957SOL     OW 7644   2.388   0.364   7.037
 1957SOL    HW1 7645   2.420   0.351   6.947
 1957SOL    HW2 7646   2.418   0.287   7.085
 1958SOL     OW 7647  11.486  11.467   2.745
 1958SOL    HW1 7648  11.530  11.459   2.660
 1958SOL    HW2 7649  11.522  11.396   2.798
 1959SOL     OW 7650   8.626   1.171  10.440
 1959SOL    HW1 7651   8.567   1.246  10.433
 1959SOL    HW2 7652   8.708   1.208  10.472
 1960SOL     OW 7653   3.425   1.546   3.737
 1960SOL    HW1 7654   3.384   1.509   3.659
 1960SOL    HW2 7655   3.430   1.640   3.719
 1961SOL     OW 7656  11.811   0.340  12.484
 1961SOL    HW1 7657  11.726   0.297  12.494
 1961SOL    HW2 7658  11.807   0.382  12.398
 1962SOL     OW 7659   8.627   2.554  11.696
 1962SOL    HW1 7660   8.629   2.643  11.661
 1962SOL    HW2 7661   8.713   2.541  11.734
 1963SOL     OW 7662   4.515   4.398  10.071
 1963SOL    HW1 7663   4.440   4.412  10.130
 1963SOL    HW2 7664   4.539   4.306  10.085
 1964SOL     OW 7665   6.946   2.860   2.225
 1964SOL    HW1 7666   6.866   2.833   2.270
 1964SOL    HW2 7667   6.991   2.778   2.204
 1965SOL     OW 7668   1.951  12.939   6.907
 1965SOL    HW1 7669   2.015  12.870   6.920
 1965SOL    HW2 7670   1.870  12.893   6.886
 1966SOL     OW 7671  12.791  12.545   0.074
 1966SOL    HW1 7672  12.736  12.472   0.046
 1966SOL    HW2 7673  12.788  12.607   0.000
 1967SOL     OW 7674  14.288  14.161   7.044
 1967SOL    HW1 7675  14.244  14.182   7.127
 1967SOL    HW2 7676  14.381  14.172   7.063
 1968SOL     OW 7677   6.691  10.959   9.123
 1968SOL    HW1 7678   6.774  11.001   9.147
 1968SOL    HW2 7679   6.714  10.903   9.049
 1969SOL     OW 7680   6.199   6.017   6.121
 1969SOL    HW1 7681   6.141   6.065   6.180
 1969SOL    HW2 7682   6.285   6.055   6.134
 1970SOL     OW 7683   1.055  12.090  14.395
 1970SOL    HW1 7684   0.993  12.020  14.415
 1970SOL    HW2 7685   1.129  12.073  14.454
 1971SOL     OW 7686   7.288  10.426   5.968
 1971SOL    HW1 7687   7.287  10.339   6.008
 1971SOL    HW2 7688   7.362  10.471   6.008
 1972SOL     OW 7689  12.793   4.821   5.917
 1972SOL    HW1 7690  12.745   4.825   6.000
 1972SOL    HW2 7691  12.747   4.753   5.866
 1973SOL     OW 7692   8.786   1.567   7.914
 1973SOL    HW1 7693   8.798   1.650   7.867
 1973SOL    HW2 7694   8.875   1.540   7.937
 1974SOL     OW 7695   7.118  13.373   5.481
 1974SOL    HW1 7696   7.167  13.366   5.399
 1974SOL    HW2 7697   7.044  13.313   5.470
 1975SOL     OW 7698  11.328   5.244   9.334
 1975SOL    HW1 7699  11.299   5.186   9.404
 1975SOL    HW2 7700  11.414   5.274   9.363
 1976SOL     OW 7701  11.473   1.937  12.449
 1976SOL    HW1 7702  11.459   1.941  12.355
 1976SOL    HW2 7703  11.419   1.864  12.478
 1977SOL     OW 7704   8.292   0.072   6.296
 1977SOL    HW1 7705   8.220   0.015   6.269
 1977SOL    HW2 7706   8.352   0.071   6.221
 1978SOL     OW 7707   0.033   8.445  14.347
 1978SOL    HW1 7708   0.094   8.451  14.420
 1978SOL    HW2 7709   0.084   8.474  14.271
 1979SOL     OW 7710  10.584   7.502  10.873
 1979SOL    HW1 7711  10.680   7.497  10.871
 1979SOL    HW2 7712  10.556   7.461  10.791
 1980SOL     OW 7713  11.744   7.880  12.237
 1980SOL    HW1 7714  11.746   7.880  12.142
 1980SOL    HW2 7715  11.793   7.802  12.263
 1981SOL     OW 7716   9.266   7.029  12.183
 1981SOL    HW1 7717   9.331   7.048  12.251
 1981SOL    HW2 7718   9.315   6.979  12.117
 1982SOL     OW 7719  10.001   6.165  13.387
 1982SOL    HW1 7720  10.036   6.088  13.342
 1982SOL    HW2 7721  10.073   6.196  13.442
 1983SOL     OW 7722   5.567   5.952   9.246
 1983SOL    HW1 7723   5.535   6.006   9.173
 1983SOL    HW2 7724   5.660   5.943   9.230
 1984SOL     OW 7725  10.421   6.454  13.466
 1984SOL    HW1 7726  10.490   6.417  13.411
 1984SOL    HW2 7727  10.441   6.423  13.554
 1985SOL     OW 7728   5.956   5.398  11.932
 1985SOL    HW1 7729   5.875   5.447  11.922
 1985SOL    HW2 7730   6.025   5.463  11.920
 1986SOL     OW 7731   3.535   1.571   6.305
 1986SOL    HW1 7732   3.581   1.508   6.361
 1986SOL    HW2 7733   3.600   1.597   6.240
 1987SOL     OW 7734  12.816  11.412  10.532
 1987SOL    HW1 7735  12.810  11.328  10.578
 1987SOL    HW2 7736  12.910  11.427  10.521
 1988SOL     OW 7737   3.154   1.831   8.588
 1988SOL    HW1 7738   3.155   1.925   8.575
 1988SOL    HW2 7739   3.186   1.794   8.506
 1989SOL     OW 7740   6.797  10.122   9.574
 1989SOL    HW1 7741   6.798  10.053   9.506
 1989SOL    HW2 7742   6.777  10.075   9.655
 1990SOL     OW 7743   0.394  11.600   7.123
 1990SOL    HW1 7744   0.432  11.584   7.036
 1990SOL    HW2 7745   0.314  11.649   7.105
 1991SOL     OW 7746   4.703   8.405   5.619
 1991SOL    HW1 7747   4.659   8.464   5.558
 1991SOL    HW2 7748   4.756   8.348   5.563
 1992SOL     OW 7749   0.041   1.446   9.211
 1992SOL    HW1 7750   0.121   1.469   9.164
 1992SOL    HW2 7751  14.855   1.511   9.184
 1993SOL     OW 7752   1.572   9.671   6.588
 1993SOL    HW1 7753   1.667   9.665   6.583
 1993SOL    HW2 7754   1.550   9.638   6.675
 1994SOL     OW 7755   5.176  12.161   3.062
 1994SOL    HW1 7756   5.170  12.173   2.967
 1994SOL    HW2 7757   5.267  12.135   3.077
 1995SOL     OW 7758   4.926   5.577   2.237
 1995SOL    HW1 7759   4.918   5.552   2.329
 1995SOL    HW2 7760   4.862   5.522   2.191
 1996SOL     OW 7761   6.081   8.784  13.748
 1996SOL    HW1 7762   6.011   8.747  13.693
 1996SOL    HW2 7763   6.057   8.759  13.837
 1997SOL     OW 7764   1.582   7.836  12.009
 1997SOL    HW1 7765   1.499   7.790  12.026
 1997SOL    HW2 7766   1.638   7.769  11.970
 1998SOL     OW 7767  12.508  12.633   7.771
 1998SOL    HW1 7768  12.530  12.541   7.784
 1998SOL    HW2 7769  12.500  12.643   7.676
 1999SOL     OW 7770  10.284   5.169  13.900
 1999SOL    HW1 7771  10.367   5.124  13.884
 1999SOL    HW2 7772  10.267   5.155  13.993
 2000SOL     OW 7773   0.440   3.734   0.114
 2000SOL    HW1 7774   0.451   3.669   0.045
 2000SOL    HW2 7775   0.508   3.713   0.178
 2001SOL     OW 7776   0.073  13.902   3.321
 2001SOL    HW1 7777  14.874  13.956   3.337
 2001SOL    HW2 7778   0.112  13.888   3.407
 2002SOL     OW 7779   5.302  12.772  14.698
 2002SOL    HW1 7780   5.234  12.712  14.666
 2002SOL    HW2 7781   5.358  12.786  14.622
 2003SOL     OW 7782  10.863   6.801  10.819
 2003SOL    HW1 7783  10.899   6.797  10.730
 2003SOL    HW2 7784  10.920   6.863  10.865
 2004SOL     OW 7785   4.793   7.271  14.453
 2004SOL    HW1 7786   4.730   7.265  14.381
 2004SOL    HW2 7787   4.832   7.358  14.444
 2005SOL     OW 7788  10.087   8.183   4.403
 2005SOL    HW1 7789  10.070   8.200   4.310
 2005SOL    HW2 7790  10.182   8.179   4.410
 2006SOL     OW 7791  12.140  12.413  11.735
 2006SOL    HW1 7792  12.147  12.343  11.801
 2006SOL    HW2 7793  12.049  12.408  11.706
 2007SOL     OW 7794  11.966  10.270   0.218
 2007SOL    HW1 7795  12.001  10.356   0.195
 2007SOL    HW2 7796  12.016  10.208   0.163
 2008SOL     OW 7797   2.103   7.681   0.976
 2008SOL    HW1 7798   2.183   7.692   0.925
 2008SOL    HW2 7799   2.042   7.746   0.940
 2009SOL     OW 7800  13.299  13.740   3.348
 2009SOL    HW1 7801  13.373  13.771   3.297
 2009SOL    HW2 7802  13.242  13.696   3.285
 2010SOL     OW 7803  11.869   5.064   4.279
 2010SOL    HW1 7804  11.865   5.159   4.277
 2010SOL    HW2 7805  11.785   5.036   4.314
 2011SOL     OW 7806   1.792   7.095   6.106
 2011SOL    HW1 7807   1.745   7.148   6.042
 2011SOL    HW2 7808   1.831   7.024   6.055
 2012SOL     OW 7809   2.970   9.559   2.857
 2012SOL    HW1 7810   2.933   9.505   2.787
 2012SOL    HW2 7811   2.990   9.497   2.927
 2013SOL     OW 7812   9.785   1.552   4.738
 2013SOL    HW1 7813   9.720   1.602   4.788
 2013SOL    HW2 7814   9.760   1.460   4.752
 2014SOL     OW 7815   2.728  13.972  12.806
 2014SOL    HW1 7816   2.709  13.976  12.900
 2014SOL    HW2 7817   2.779  14.051  12.789
 2015SOL     OW 7818  14.047   6.318   0.682
 2015SOL    HW1 7819  13.955   6.297   0.670
 2015SOL    HW2 7820  14.078   6.255   0.747
 2016SOL     OW 7821  10.446   2.293   1.895
 2016SOL    HW1 7822  10.487   2.366   1.849
 2016SOL    HW2 7823  10.493   2.215   1.865
 2017SOL     OW 7824   7.117  13.941  10.317
 2017SOL    HW1 7825   7.139  13.949  10.224
 2017SOL    HW2 7826   7.042  14.001  10.328
 2018SOL     OW 7827  12.306   2.399  13.265
 2018SOL    HW1 7828  12.229   2.449  13.294
 2018SOL    HW2 7829  12.302   2.317  13.315
 2019SOL     OW 7830   1.903   2.589  12.702
 2019SOL    HW1 7831   1.860   2.504  12.700
 2019SOL    HW2 7832   1.841   2.648  12.660
 2020SOL     OW 7833  13.293  12.298  10.312
 2020SOL    HW1 7834  13.263  12.389  10.316
 2020SOL    HW2 7835  13.383  12.304  10.279
 2021SOL     OW 7836  14.344   8.829   2.651
 2021SOL    HW1 7837  14.339   8.852   2.744
 2021SOL    HW2 7838  14.426   8.780   2.642
 2022SOL     OW 7839  12.115  11.026  12.901
 2022SOL    HW1 7840  12.061  11.045  12.978
 2022SOL    HW2 7841  12.096  10.934  12.881
 2023SOL     OW 7842   6.606  13.975  12.258
 2023SOL    HW1 7843   6.642  13.921  12.187
 2023SOL    HW2 7844   6.683  14.009  12.302
 2024SOL     OW 7845  12.226  12.236   5.811
 2024SOL    HW1 7846  12.230  12.316   5.757
 2024SOL    HW2 7847  12.214  12.165   5.748
 2025SOL     OW 7848   9.984  13.867  11.040
 2025SOL    HW1 7849  10.010  13.814  11.115
 2025SOL    HW2 7850   9.958  13.803  10.973
 2026SOL     OW 7851   1.277   3.431   9.525
 2026SOL    HW1 7852   1.365   3.456   9.552
 2026SOL    HW2 7853   1.267   3.341   9.557
 2027SOL     OW 7854  14.411  11.231  13.719
 2027SOL    HW1 7855  14.400  11.146  13.761
 2027SOL    HW2 7856  14.506  11.240  13.708
 2028SOL     OW 7857   1.328   2.078   7.930
 2028SOL    HW1 7858   1.286   1.994   7.918
 2028SOL    HW2 7859   1.398   2.061   7.993
 2029SOL     OW 7860   4.387   9.871   5.653
 2029SOL    HW1 7861   4.331   9.904   5.723
 2029SOL    HW2 7862   4.414   9.785   5.684
 2030SOL     OW 7863   9.747   9.897  11.141
 2030SOL    HW1 7864   9.843   9.887  11.139
 2030SOL    HW2 7865   9.720   9.849  11.219
 2031SOL     OW 7866   8.940   4.208  10.363
 2031SOL    HW1 7867   8.971   4.203  10.273
 2031SOL    HW2 7868   8.949   4.300  10.387
 2032SOL     OW 7869  11.242   6.133   7.525
 2032SOL    HW1 7870  11.308   6.108   7.589
 2032SOL    HW2 7871  11.162   6.089   7.555
 2033SOL     OW 7872   0.034   8.549   8.698
 2033SOL    HW1 7873  14.825   8.519   8.725
 2033SOL    HW2 7874   0.066   8.482   8.639
 2034SOL     OW 7875  14.508  11.267  11.859
 2034SOL    HW1 7876  14.417  11.238  11.856
 2034SOL    HW2 7877  14.504  11.361  11.840
 2035SOL     OW 7878  12.560  11.237   6.384
 2035SOL    HW1 7879  12.643  11.189   6.378
 2035SOL    HW2 7880  12.494  11.168   6.394
 2036SOL     OW 7881  12.740   7.305   9.724
 2036SOL    HW1 7882  12.693   7.378   9.684
 2036SOL    HW2 7883  12.818   7.345   9.763
 2037SOL     OW 7884   8.141  11.236   3.483
 2037SOL    HW1 7885   8.153  11.330   3.500
 2037SOL    HW2 7886   8.211  11.194   3.532
 2038SOL     OW 7887  11.264  13.354  11.840
 2038SOL    HW1 7888  11.295  13.294  11.908
 2038SOL    HW2 7889  11.336  13.357  11.777
 2039SOL     OW 7890   1.617  11.731  11.357
 2039SOL    HW1 7891   1.647  11.689  11.277
 2039SOL    HW2 7892   1.614  11.661  11.422
 2040SOL     OW 7893  11.757   7.378   6.144
 2040SOL    HW1 7894  11.736   7.454   6.089
 2040SOL    HW2 7895  11.688   7.315   6.125
 2041SOL     OW 7896   3.234   2.295   9.942
 2041SOL    HW1 7897   3.160   2.324   9.890
 2041SOL    HW2 7898   3.216   2.328  10.030
 2042SOL     OW 7899  12.457   6.254   6.629
 2042SOL    HW1 7900  12.393   6.258   6.558
 2042SOL    HW2 7901  12.458   6.163   6.657
 2043SOL     OW 7902   0.747  14.729  12.905
 2043SOL    HW1 7903   0.838  14.724  12.934
 2043SOL    HW2 7904   0.700  14.670  12.964
 2044SOL     OW 7905   2.511   8.087   4.042
 2044SOL    HW1 7906   2.569   8.036   4.099
 2044SOL    HW2 7907   2.568   8.155   4.005
 2045SOL     OW 7908  11.746  12.103   5.899
 2045SOL    HW1 7909  11.659  12.122   5.863
 2045SOL    HW2 7910  11.729  12.064   5.984
 2046SOL     OW 7911  12.617   2.556   0.014
 2046SOL    HW1 7912  12.677   2.552   0.089
 2046SOL    HW2 7913  12.669   2.591  14.820
 2047SOL     OW 7914  14.048  13.993   8.383
 2047SOL    HW1 7915  13.978  13.934   8.354
 2047SOL    HW2 7916  14.057  13.976   8.476
 2048SOL     OW 7917   4.821   2.722  14.155
 2048SOL    HW1 7918   4.818   2.715  14.250
 2048SOL    HW2 7919   4.897   2.778  14.137
 2049SOL     OW 7920   9.893   6.715   5.738
 2049SOL    HW1 7921   9.904   6.759   5.654
 2049SOL    HW2 7922   9.834   6.771   5.787
 2050SOL     OW 7923  12.063   6.997  12.426
 2050SOL    HW1 7924  12.103   7.059  12.365
 2050SOL    HW2 7925  12.065   6.913  12.380
 2051SOL     OW 7926   5.198   6.965   1.329
 2051SOL    HW1 7927   5.197   6.892   1.391
 2051SOL    HW2 7928   5.290   6.973   1.302
 2052SOL     OW 7929   7.411   0.022   3.327
 2052SOL    HW1 7930   7.456   0.029   3.411
 2052SOL    HW2 7931   7.417   0.110   3.290
 2053SOL     OW 7932  13.584   6.502  11.310
 2053SOL    HW1 7933  13.503   6.453  11.317
 2053SOL    HW2 7934  13.558   6.585  11.269
 2054SOL     OW 7935   3.589   7.102   2.047
 2054SOL    HW1 7936   3.575   7.181   2.100
 2054SOL    HW2 7937   3.631   7.135   1.967
 2055SOL     OW 7938   7.219  12.652  11.933
 2055SOL    HW1 7939   7.167  12.578  11.901
 2055SOL    HW2 7940   7.309  12.630  11.910
 2056SOL     OW 7941   8.482   0.839   4.843
 2056SOL    HW1 7942   8.463   0.847   4.937
 2056SOL    HW2 7943   8.404   0.872   4.799
 2057SOL     OW 7944   0.303   0.966  14.798
 2057SOL    HW1 7945   0.318   1.037  14.860
 2057SOL    HW2 7946   0.376   0.972  14.737
 2058SOL     OW 7947  11.369  11.018  13.577
 2058SOL    HW1 7948  11.335  10.959  13.510
 2058SOL    HW2 7949  11.291  11.048  13.624
 2059SOL     OW 7950   7.057  12.006  13.796
 2059SOL    HW1 7951   6.975  11.956  13.803
 2059SOL    HW2 7952   7.118  11.959  13.853
 2060SOL     OW 7953  10.635  11.700  14.272
 2060SOL    HW1 7954  10.700  11.631  14.258
 2060SOL    HW2 7955  10.570  11.686  14.203
 2061SOL     OW 7956   8.263   2.435   1.532
 2061SOL    HW1 7957   8.343   2.385   1.545
 2061SOL    HW2 7958   8.203   2.375   1.487
 2062SOL     OW 7959   2.028   1.666  11.008
 2062SOL    HW1 7960   1.948   1.620  11.036
 2062SOL    HW2 7961   1.997   1.729  10.943
 2063SOL     OW 7962  13.432   0.088   5.284
 2063SOL    HW1 7963  13.439   0.029   5.209
 2063SOL    HW2 7964  13.444   0.175   5.247
 2064SOL     OW 7965  14.652   8.362   5.650
 2064SOL    HW1 7966  14.661   8.328   5.560
 2064SOL    HW2 7967  14.735   8.340   5.692
 2065SOL     OW 7968  12.611   2.717   2.493
 2065SOL    HW1 7969  12.585   2.780   2.561
 2065SOL    HW2 7970  12.541   2.723   2.427
 2066SOL     OW 7971   0.262   6.733   2.604
 2066SOL    HW1 7972   0.228   6.739   2.514
 2066SOL    HW2 7973   0.226   6.652   2.638
 2067SOL     OW 7974  14.369   2.746   4.075
 2067SOL    HW1 7975  14.371   2.797   3.994
 2067SOL    HW2 7976  14.275   2.738   4.095
 2068SOL     OW 7977  11.754   7.264  11.418
 2068SOL    HW1 7978  11.742   7.359  11.415
 2068SOL    HW2 7979  11.828   7.247  11.360
 2069SOL     OW 7980   9.640  13.787   9.791
 2069SOL    HW1 7981   9.671  13.710   9.839
 2069SOL    HW2 7982   9.715  13.845   9.787
 2070SOL     OW 7983  14.596  10.608   6.031
 2070SOL    HW1 7984  14.528  10.670   6.056
 2070SOL    HW2 7985  14.631  10.643   5.949
 2071SOL     OW 7986   6.341   7.994   2.391
 2071SOL    HW1 7987   6.267   7.944   2.356
 2071SOL    HW2 7988   6.316   8.014   2.481
 2072SOL     OW 7989  11.703   7.898  11.969
 2072SOL    HW1 7990  11.639   7.850  11.916
 2072SOL    HW2 7991  11.706   7.985  11.929
 2073SOL     OW 7992  14.797  10.877   7.625
 2073SOL    HW1 7993  14.737  10.828   7.568
 2073SOL    HW2 7994  14.849  10.809   7.669
 2074SOL     OW 7995   0.826  10.891  11.420
 2074SOL    HW1 7996   0.891  10.822  11.403
 2074SOL    HW2 7997   0.874  10.973  11.408
 2075SOL     OW 7998   2.999   2.738  13.581
 2075SOL    HW1 7999   2.942   2.746  13.657
 2075SOL    HW2 8000   3.084   2.712  13.617
 2076SOL     OW 8001  13.179  10.514   7.822
 2076SOL    HW1 8002  13.098  10.513   7.873
 2076SOL    HW2 8003  13.168  10.586   7.761
 2077SOL     OW 8004   4.938   3.780   2.139
 2077SOL    HW1 8005   4.915   3.695   2.176
 2077SOL    HW2 8006   4.888   3.786   2.058
 2078SOL     OW 8007   1.915  14.619   0.116
 2078SOL    HW1 8008   1.938  14.526   0.111
 2078SOL    HW2 8009   1.823  14.620   0.141
 2079SOL     OW 8010   8.526  14.545   0.396
 2079SOL    HW1 8011   8.520  14.632   0.435
 2079SOL    HW2 8012   8.478  14.552   0.314
 2080SOL     OW 8013   5.313   2.816   4.871
 2080SOL    HW1 8014   5.375   2.801   4.800
 2080SOL    HW2 8015   5.272   2.731   4.886
 2081SOL     OW 8016  13.618  10.707   5.492
 2081SOL    HW1 8017  13.665  10.697   5.575
 2081SOL    HW2 8018  13.645  10.631   5.440
 2082SOL     OW 8019   4.424  11.102   1.468
 2082SOL    HW1 8020   4.436  11.197   1.457
 2082SOL    HW2 8021   4.503  11.064   1.430
 2083SOL     OW 8022   9.387   1.569  13.787
 2083SOL    HW1 8023   9.321   1.505  13.810
 2083SOL    HW2 8024   9.464   1.517  13.763
 2084SOL     OW 8025  13.888   4.134   8.420
 2084SOL    HW1 8026  13.877   4.039   8.425
 2084SOL    HW2 8027  13.965   4.151   8.475
 2085SOL     OW 8028   6.026  12.063   0.795
 2085SOL    HW1 8029   5.965  12.060   0.869
 2085SOL    HW2 8030   6.036  12.157   0.776
 2086SOL     OW 8031   8.013   3.506   4.337
 2086SOL    HW1 8032   8.049   3.594   4.332
 2086SOL    HW2 8033   7.943   3.505   4.272
 2087SOL     OW 8034   9.288   9.597  14.129
 2087SOL    HW1 8035   9.355   9.529  14.137
 2087SOL    HW2 8036   9.317   9.666  14.188
 2088SOL     OW 8037  13.018   1.282  11.649
 2088SOL    HW1 8038  13.036   1.318  11.562
 2088SOL    HW2 8039  12.925   1.262  11.648
 2089SOL     OW 8040  10.282   0.966  11.865
 2089SOL    HW1 8041  10.246   0.975  11.776
 2089SOL    HW2 8042  10.215   0.919  11.913
 2090SOL     OW 8043   5.448   5.009   4.358
 2090SOL    HW1 8044   5.390   4.975   4.427
 2090SOL    HW2 8045   5.388   5.049   4.295
 2091SOL     OW 8046  10.807  12.794   3.737
 2091SOL    HW1 8047  10.823  12.759   3.824
 2091SOL    HW2 8048  10.713  12.809   3.733
 2092SOL     OW 8049   7.750   0.199  11.355
 2092SOL    HW1 8050   7.778   0.240  11.273
 2092SOL    HW2 8051   7.825   0.146  11.382
 2093SOL     OW 8052  12.389  12.381  11.609
 2093SOL    HW1 8053  12.304  12.410  11.643
 2093SOL    HW2 8054  12.367  12.313  11.546
 2094SOL     OW 8055  11.286   6.712   0.405
 2094SOL    HW1 8056  11.269   6.619   0.387
 2094SOL    HW2 8057  11.379   6.724   0.384
 2095SOL     OW 8058   0.806   2.801   5.280
 2095SOL    HW1 8059   0.798   2.897   5.278
 2095SOL    HW2 8060   0.778   2.773   5.193
 2096SOL     OW 8061  10.646   4.599   2.022
 2096SOL    HW1 8062  10.708   4.668   2.046
 2096SOL    HW2 8063  10.647   4.540   2.097
 2097SOL     OW 8064   2.778   7.416   4.552
 2097SOL    HW1 8065   2.858   7.388   4.597
 2097SOL    HW2 8066   2.759   7.502   4.590
 2098SOL     OW 8067   9.899   2.245   7.313
 2098SOL    HW1 8068   9.972   2.210   7.363
 2098SOL    HW2 8069   9.839   2.171   7.303
 2099SOL     OW 8070   3.474   9.194   5.488
 2099SOL    HW1 8071   3.401   9.136   5.509
 2099SOL    HW2 8072   3.534   9.139   5.437
 2100SOL     OW 8073   6.819  13.563   9.850
 2100SOL    HW1 8074   6.789  13.618   9.923
 2100SOL    HW2 8075   6.886  13.507   9.889
 2101SOL     OW 8076   8.171  13.015   1.590
 2101SOL    HW1 8077   8.079  12.998   1.573
 2101SOL    HW2 8078   8.216  12.984   1.512
 2102SOL     OW 8079   6.017  13.498  12.986
 2102SOL    HW1 8080   6.041  13.588  12.966
 2102SOL    HW2 8081   6.004  13.457  12.901
 2103SOL     OW 8082  14.546   0.401   4.191
 2103SOL    HW1 8083  14.564   0.493   4.210
 2103SOL    HW2 8084  14.632   0.362   4.181
 2104SOL     OW 8085   0.972   0.568   6.969
 2104SOL    HW1 8086   1.008   0.572   7.057
 2104SOL    HW2 8087   0.888   0.613   6.976
 2105SOL     OW 8088  14.056  13.473   8.740
 2105SOL    HW1 8089  14.135  13.526   8.739
 2105SOL    HW2 8090  14.047  13.442   8.650
 2106SOL     OW 8091   2.386  12.204   4.479
 2106SOL    HW1 8092   2.399  12.151   4.401
 2106SOL    HW2 8093   2.300  12.177   4.512
 2107SOL     OW 8094   2.644   1.412  12.410
 2107SOL    HW1 8095   2.612   1.352  12.478
 2107SOL    HW2 8096   2.695   1.356  12.351
 2108SOL     OW 8097   5.720   3.202   8.341
 2108SOL    HW1 8098   5.680   3.239   8.420
 2108SOL    HW2 8099   5.649   3.202   8.277
 2109SOL     OW 8100  14.075  12.511   8.364
 2109SOL    HW1 8101  14.095  12.443   8.429
 2109SOL    HW2 8102  14.117  12.479   8.284
 2110SOL     OW 8103   8.006  12.214   9.459
 2110SOL    HW1 8104   7.914  12.188   9.467
 2110SOL    HW2 8105   8.043  12.201   9.546
 2111SOL     OW 8106  14.047   2.213   7.518
 2111SOL    HW1 8107  14.021   2.284   7.459
 2111SOL    HW2 8108  13.980   2.212   7.586
 2112SOL     OW 8109  11.920   5.404   0.244
 2112SOL    HW1 8110  11.861   5.329   0.252
 2112SOL    HW2 8111  11.867   5.479   0.271
 2113SOL     OW 8112  11.181  12.084   4.891
 2113SOL    HW1 8113  11.207  12.130   4.971
 2113SOL    HW2 8114  11.128  12.010   4.922
 2114SOL     OW 8115   7.408   9.292  11.530
 2114SOL    HW1 8116   7.451   9.377  11.527
 2114SOL    HW2 8117   7.329   9.303  11.478
 2115SOL     OW 8118   2.840   6.007   8.324
 2115SOL    HW1 8119   2.792   5.972   8.249
 2115SOL    HW2 8120   2.836   6.102   8.314
 2116SOL     OW 8121  11.756   8.884  10.020
 2116SOL    HW1 8122  11.835   8.870   9.968
 2116SOL    HW2 8123  11.779   8.855  10.108
 2117SOL     OW 8124   7.959   7.400   9.135
 2117SOL    HW1 8125   8.004   7.437   9.059
 2117SOL    HW2 8126   8.025   7.400   9.205
 2118SOL     OW 8127   5.502   0.705   8.933
 2118SOL    HW1 8128   5.489   0.679   9.025
 2118SOL    HW2 8129   5.588   0.670   8.911
 2119SOL     OW 8130  11.532   1.322   8.758
 2119SOL    HW1 8131  11.452   1.332   8.706
 2119SOL    HW2 8132  11.554   1.229   8.751
 2120SOL     OW 8133   8.962   0.378  10.159
 2120SOL    HW1 8134   8.883   0.406  10.112
 2120SOL    HW2 8135   9.028   0.443  10.135
 2121SOL     OW 8136   7.131   7.187   7.726
 2121SOL    HW1 8137   7.220   7.221   7.723
 2121SOL    HW2 8138   7.082   7.251   7.778
 2122SOL     OW 8139  10.429  11.238  13.646
 2122SOL    HW1 8140  10.386  11.274  13.568
 2122SOL    HW2 8141  10.364  11.249  13.716
 2123SOL     OW 8142  11.223   4.389  11.199
 2123SOL    HW1 8143  11.253   4.472  11.162
 2123SOL    HW2 8144  11.212   4.332  11.123
 2124SOL     OW 8145   1.022   8.885   3.801
 2124SOL    HW1 8146   1.088   8.868   3.734
 2124SOL    HW2 8147   1.055   8.961   3.849
 2125SOL     OW 8148   0.276   1.411   2.531
 2125SOL    HW1 8149   0.320   1.327   2.548
 2125SOL    HW2 8150   0.339   1.460   2.479
 2126SOL     OW 8151   9.177  12.293   5.585
 2126SOL    HW1 8152   9.134  12.354   5.525
 2126SOL    HW2 8153   9.160  12.206   5.548
 2127SOL     OW 8154   8.351  11.674   6.601
 2127SOL    HW1 8155   8.411  11.613   6.557
 2127SOL    HW2 8156   8.378  11.761   6.570
 2128SOL     OW 8157  11.748  11.985   8.462
 2128SOL    HW1 8158  11.827  12.030   8.495
 2128SOL    HW2 8159  11.677  12.046   8.480
 2129SOL     OW 8160   5.579   7.411  13.401
 2129SOL    HW1 8161   5.594   7.322  13.431
 2129SOL    HW2 8162   5.534   7.454  13.474
 2130SOL     OW 8163  12.159  13.069   1.651
 2130SOL    HW1 8164  12.152  13.031   1.563
 2130SOL    HW2 8165  12.070  13.065   1.686
 2131SOL     OW 8166   9.153  14.143   3.631
 2131SOL    HW1 8167   9.119  14.061   3.596
 2131SOL    HW2 8168   9.209  14.117   3.704
 2132SOL     OW 8169   3.686  10.749  10.079
 2132SOL    HW1 8170   3.638  10.763  10.161
 2132SOL    HW2 8171   3.741  10.672  10.096
 2133SOL     OW 8172  12.399  12.687   1.224
 2133SOL    HW1 8173  12.331  12.723   1.167
 2133SOL    HW2 8174  12.433  12.763   1.272
 2134SOL     OW 8175   8.277   8.068  11.399
 2134SOL    HW1 8176   8.211   8.014  11.354
 2134SOL    HW2 8177   8.341   8.090  11.332
 2135SOL     OW 8178   8.005   3.443  12.584
 2135SOL    HW1 8179   8.070   3.463  12.516
 2135SOL    HW2 8180   7.951   3.522  12.589
 2136SOL     OW 8181   9.701  14.851   1.822
 2136SOL    HW1 8182   9.749   0.023   1.756
 2136SOL    HW2 8183   9.677  14.769   1.778
 2137SOL     OW 8184  13.198  14.678   3.477
 2137SOL    HW1 8185  13.184  14.586   3.501
 2137SOL    HW2 8186  13.253  14.713   3.547
 2138SOL     OW 8187   3.114   8.819   8.286
 2138SOL    HW1 8188   3.149   8.754   8.347
 2138SOL    HW2 8189   3.173   8.894   8.294
 2139SOL     OW 8190   8.260   3.523   2.722
 2139SOL    HW1 8191   8.229   3.592   2.663
 2139SOL    HW2 8192   8.317   3.569   2.784
 2140SOL     OW 8193  10.383   3.178   8.809
 2140SOL    HW1 8194  10.331   3.179   8.729
 2140SOL    HW2 8195  10.401   3.270   8.828
 2141SOL     OW 8196   5.902   0.726  14.562
 2141SOL    HW1 8197   5.810   0.709  14.543
 2141SOL    HW2 8198   5.906   0.820  14.581
 2142SOL     OW 8199   3.987  14.796   7.754
 2142SOL    HW1 8200   3.920  14.852   7.793
 2142SOL    HW2 8201   4.062  14.804   7.813
 2143SOL     OW 8202  14.495   3.130   9.978
 2143SOL    HW1 8203  14.465   3.063  10.040
 2143SOL    HW2 8204  14.496   3.085   9.893
 2144SOL     OW 8205  13.949   1.151   4.767
 2144SOL    HW1 8206  13.860   1.147   4.800
 2144SOL    HW2 8207  13.940   1.186   4.678
 2145SOL     OW 8208   2.984  12.077   7.871
 2145SOL    HW1 8209   3.035  12.067   7.791
 2145SOL    HW2 8210   2.944  12.163   7.863
 2146SOL     OW 8211   0.900   3.756  13.787
 2146SOL    HW1 8212   0.957   3.808  13.730
 2146SOL    HW2 8213   0.916   3.665  13.760
 2147SOL     OW 8214  14.730   7.737   3.782
 2147SOL    HW1 8215  14.705   7.645   3.774
 2147SOL    HW2 8216  14.733   7.769   3.692
 2148SOL     OW 8217   9.428  12.984   3.064
 2148SOL    HW1 8218   9.367  13.026   3.124
 2148SOL    HW2 8219   9.450  12.901   3.105
 2149SOL     OW 8220   0.442  10.463  14.039
 2149SOL    HW1 8221   0.397  10.464  13.955
 2149SOL    HW2 8222   0.534  10.446  14.017
 2150SOL     OW 8223  14.571   9.851   7.392
 2150SOL    HW1 8224  14.512   9.822   7.461
 2150SOL    HW2 8225  14.579   9.945   7.405
 2151SOL     OW 8226   7.381  11.059  13.776
 2151SOL    HW1 8227   7.353  11.039  13.865
 2151SOL    HW2 8228   7.299  11.068  13.727
 2152SOL     OW 8229  11.888   7.857  14.857
 2152SOL    HW1 8230  11.919   7.771   0.006
 2152SOL    HW2 8231  11.799   7.863   0.014
 2153SOL     OW 8232  10.679   4.661  13.530
 2153SOL    HW1 8233  10.743   4.591  13.522
 2153SOL    HW2 8234  10.622   4.652  13.454
 2154SOL     OW 8235  10.671   9.679  11.219
 2154SOL    HW1 8236  10.643   9.770  11.219
 2154SOL    HW2 8237  10.763   9.682  11.193
 2155SOL     OW 8238  12.246  12.276   1.799
 2155SOL    HW1 8239  12.209  12.249   1.883
 2155SOL    HW2 8240  12.287  12.197   1.764
 2156SOL     OW 8241   6.625  13.751   7.507
 2156SOL    HW1 8242   6.679  13.691   7.558
 2156SOL    HW2 8243   6.686  13.817   7.474
 2157SOL     OW 8244  11.158  14.057   3.929
 2157SOL    HW1 8245  11.191  13.978   3.972
 2157SOL    HW2 8246  11.074  14.031   3.890
 2158SOL     OW 8247   6.361  12.580  14.433
 2158SOL    HW1 8248   6.408  12.560  14.353
 2158SOL    HW2 8249   6.424  12.627  14.488
 2159SOL     OW 8250  10.126   2.876   1.750
 2159SOL    HW1 8251  10.084   2.798   1.786
 2159SOL    HW2 8252  10.057   2.922   1.704
 2160SOL     OW 8253  10.925   7.664   1.208
 2160SOL    HW1 8254  10.831   7.646   1.217
 2160SOL    HW2 8255  10.948   7.625   1.123
 2161SOL     OW 8256   9.065   1.352   1.749
 2161SOL    HW1 8257   9.066   1.258   1.732
 2161SOL    HW2 8258   8.972   1.376   1.742
 2162SOL     OW 8259   7.239   5.446   3.805
 2162SOL    HW1 8260   7.244   5.486   3.718
 2162SOL    HW2 8261   7.171   5.497   3.850
 2163SOL     OW 8262   3.233  12.555  10.610
 2163SOL    HW1 8263   3.180  12.604  10.673
 2163SOL    HW2 8264   3.177  12.481  10.585
 2164SOL     OW 8265   8.507   6.155  11.747
 2164SOL    HW1 8266   8.578   6.196  11.697
 2164SOL    HW2 8267   8.524   6.061  11.740
 2165SOL     OW 8268   9.587  12.689   6.542
 2165SOL    HW1 8269   9.634  12.706   6.461
 2165SOL    HW2 8270   9.495  12.706   6.520
 2166SOL     OW 8271   1.159   8.049   9.074
 2166SOL    HW1 8272   1.141   8.085   8.987
 2166SOL    HW2 8273   1.205   8.120   9.120
 2167SOL     OW 8274   8.266  14.110  13.583
 2167SOL    HW1 8275   8.178  14.125  13.617
 2167SOL    HW2 8276   8.323  14.162  13.639
 2168SOL     OW 8277   2.428  12.748   0.461
 2168SOL    HW1 8278   2.353  12.777   0.409
 2168SOL    HW2 8279   2.495  12.726   0.396
 2169SOL     OW 8280   8.680   7.832   1.375
 2169SOL    HW1 8281   8.751   7.877   1.329
 2169SOL    HW2 8282   8.621   7.902   1.404
 2170SOL     OW 8283   6.734   1.834   0.949
 2170SOL    HW1 8284   6.669   1.859   0.883
 2170SOL    HW2 8285   6.725   1.900   1.017
 2171SOL     OW 8286  12.322  14.336   5.257
 2171SOL    HW1 8287  12.372  14.373   5.183
 2171SOL    HW2 8288  12.289  14.413   5.304
 2172SOL     OW 8289   2.533   7.747  13.890
 2172SOL    HW1 8290   2.521   7.788  13.975
 2172SOL    HW2 8291   2.471   7.674  13.889
 2173SOL     OW 8292   3.177   0.656  10.566
 2173SOL    HW1 8293   3.127   0.578  10.543
 2173SOL    HW2 8294   3.250   0.623  10.618
 2174SOL     OW 8295   6.654   8.667  10.416
 2174SOL    HW1 8296   6.681   8.620  10.495
 2174SOL    HW2 8297   6.736   8.687  10.371
 2175SOL     OW 8298   5.995   8.257   0.131
 2175SOL    HW1 8299   6.071   8.303   0.168
 2175SOL    HW2 8300   6.021   8.237   0.041
 2176SOL     OW 8301   1.181   6.912  12.511
 2176SOL    HW1 8302   1.192   6.996  12.467
 2176SOL    HW2 8303   1.087   6.893  12.503
 2177SOL     OW 8304   4.297  13.426  10.870
 2177SOL    HW1 8305   4.373  13.433  10.812
 2177SOL    HW2 8306   4.222  13.427  10.810
 2178SOL     OW 8307   1.956  11.711   1.558
 2178SOL    HW1 8308   1.977  11.647   1.626
 2178SOL    HW2 8309   1.876  11.678   1.517
 2179SOL     OW 8310  11.257  14.772  13.103
 2179SOL    HW1 8311  11.302  14.788  13.186
 2179SOL    HW2 8312  11.312  14.814  13.037
 2180SOL     OW 8313  14.135   6.805   7.885
 2180SOL    HW1 8314  14.065   6.861   7.918
 2180SOL    HW2 8315  14.151   6.742   7.954
 2181SOL     OW 8316   8.759  14.779  13.756
 2181SOL    HW1 8317   8.776  14.854  13.813
 2181SOL    HW2 8318   8.676  14.800  13.713
 2182SOL     OW 8319   9.086   7.117  13.043
 2182SOL    HW1 8320   9.083   7.127  12.948
 2182SOL    HW2 8321   9.157   7.175  13.071
 2183SOL     OW 8322  13.395   1.306  14.800
 2183SOL    HW1 8323  13.401   1.243  14.873
 2183SOL    HW2 8324  13.400   1.392  14.843
 2184SOL     OW 8325   7.163  13.308  13.155
 2184SOL    HW1 8326   7.190  13.218  13.177
 2184SOL    HW2 8327   7.131  13.302  13.065
 2185SOL     OW 8328  13.602   3.655   4.687
 2185SOL    HW1 8329  13.520   3.697   4.662
 2185SOL    HW2 8330  13.588   3.628   4.778
 2186SOL     OW 8331   3.135   9.557   5.554
 2186SOL    HW1 8332   3.131   9.609   5.634
 2186SOL    HW2 8333   3.119   9.620   5.484
 2187SOL     OW 8334   0.155   7.379   1.677
 2187SOL    HW1 8335   0.125   7.357   1.589
 2187SOL    HW2 8336   0.186   7.469   1.670
 2188SOL     OW 8337  14.808   3.671  11.713
 2188SOL    HW1 8338   0.000   3.681  11.777
 2188SOL    HW2 8339  14.853   3.660  11.629
 2189SOL     OW 8340   4.357   5.238   4.590
 2189SOL    HW1 8341   4.279   5.273   4.548
 2189SOL    HW2 8342   4.425   5.244   4.522
 2190SOL     OW 8343   2.155   1.425  10.007
 2190SOL    HW1 8344   2.085   1.485   9.983
 2190SOL    HW2 8345   2.198   1.404   9.925
 2191SOL     OW 8346  11.483   3.103   3.929
 2191SOL    HW1 8347  11.435   3.106   4.012
 2191SOL    HW2 8348  11.468   3.014   3.896
 2192SOL     OW 8349   2.863   3.827   7.165
 2192SOL    HW1 8350   2.854   3.775   7.086
 2192SOL    HW2 8351   2.947   3.801   7.202
 2193SOL     OW 8352   0.167   6.011   5.616
 2193SOL    HW1 8353   0.074   5.991   5.613
 2193SOL    HW2 8354   0.206   5.936   5.661
 2194SOL     OW 8355  13.420   9.753   0.249
 2194SOL    HW1 8356  13.356   9.712   0.307
 2194SOL    HW2 8357  13.432   9.841   0.285
 2195SOL     OW 8358  11.384   3.607   4.182
 2195SOL    HW1 8359  11.409   3.686   4.230
 2195SOL    HW2 8360  11.417   3.535   4.236
 2196SOL     OW 8361   4.477   3.628   4.186
 2196SOL    HW1 8362   4.421   3.630   4.263
 2196SOL    HW2 8363   4.550   3.571   4.211
 2197SOL     OW 8364   9.019  13.915   2.944
 2197SOL    HW1 8365   8.964  13.972   2.998
 2197SOL    HW2 8366   8.964  13.838   2.927
 2198SOL     OW 8367   4.064   6.608   1.079
 2198SOL    HW1 8368   4.015   6.552   1.139
 2198SOL    HW2 8369   4.127   6.549   1.038
 2199SOL     OW 8370   0.248   9.773   2.671
 2199SOL    HW1 8371   0.190   9.817   2.608
 2199SOL    HW2 8372   0.190   9.715   2.720
 2200SOL     OW 8373  12.790  13.061  11.015
 2200SOL    HW1 8374  12.872  13.109  11.028
 2200SOL    HW2 8375  12.754  13.051  11.103
 2201SOL     OW 8376   9.808  13.695  10.351
 2201SOL    HW1 8377   9.888  13.713  10.399
 2201SOL    HW2 8378   9.836  13.690  10.259
 2202SOL     OW 8379   8.311   9.898  13.585
 2202SOL    HW1 8380   8.351   9.811  13.574
 2202SOL    HW2 8381   8.359   9.937  13.658
 2203SOL     OW 8382   7.661  10.343   3.290
 2203SOL    HW1 8383   7.584  10.385   3.251
 2203SOL    HW2 8384   7.654  10.251   3.264
 2204SOL     OW 8385   3.400   1.160   8.904
 2204SOL    HW1 8386   3.392   1.179   8.997
 2204SOL    HW2 8387   3.310   1.148   8.873
 2205SOL     OW 8388   2.565   2.847  13.018
 2205SOL    HW1 8389   2.652   2.844  13.058
 2205SOL    HW2 8390   2.524   2.925  13.056
 2206SOL     OW 8391   6.068   4.339   9.021
 2206SOL    HW1 8392   5.993   4.303   9.070
 2206SOL    HW2 8393   6.108   4.402   9.081
 2207SOL     OW 8394  11.100   5.675  11.132
 2207SOL    HW1 8395  11.125   5.586  11.109
 2207SOL    HW2 8396  11.008   5.682  11.107
 2208SOL     OW 8397  14.773   6.623   3.241
 2208SOL    HW1 8398  14.862   6.655   3.225
 2208SOL    HW2 8399  14.786   6.538   3.283
 2209SOL     OW 8400   6.891  13.781  10.162
 2209SOL    HW1 8401   6.979  13.743  10.162
 2209SOL    HW2 8402   6.879  13.816  10.074
 2210SOL     OW 8403   9.608   3.761   2.775
 2210SOL    HW1 8404   9.542   3.724   2.833
 2210SOL    HW2 8405   9.670   3.690   2.759
 2211SOL     OW 8406   3.230  10.581   0.308
 2211SOL    HW1 8407   3.198  10.576   0.218
 2211SOL    HW2 8408   3.279  10.663   0.312
 2212SOL     OW 8409   4.317   6.301   9.336
 2212SOL    HW1 8410   4.387   6.246   9.370
 2212SOL    HW2 8411   4.361   6.382   9.310
 2213SOL     OW 8412  11.701   1.751   0.447
 2213SOL    HW1 8413  11.730   1.686   0.383
 2213SOL    HW2 8414  11.774   1.812   0.454
 2214SOL     OW 8415   2.287   5.898  10.684
 2214SOL    HW1 8416   2.194   5.878  10.697
 2214SOL    HW2 8417   2.292   5.993  10.684
 2215SOL     OW 8418   2.789   7.884  12.406
 2215SOL    HW1 8419   2.841   7.926  12.338
 2215SOL    HW2 8420   2.813   7.931  12.486
 2216SOL     OW 8421  11.217  10.688   8.223
 2216SOL    HW1 8422  11.263  10.613   8.185
 2216SOL    HW2 8423  11.125  10.674   8.202
 2217SOL     OW 8424   2.967  14.814   7.785
 2217SOL    HW1 8425   2.939  14.830   7.695
 2217SOL    HW2 8426   2.887  14.822   7.837
 2218SOL     OW 8427   3.270  12.036   5.296
 2218SOL    HW1 8428   3.216  12.096   5.348
 2218SOL    HW2 8429   3.325  11.992   5.361
 2219SOL     OW 8430  11.461   4.059   7.837
 2219SOL    HW1 8431  11.410   4.061   7.918
 2219SOL    HW2 8432  11.466   4.150   7.808
 2220SOL     OW 8433   1.870   4.616  10.624
 2220SOL    HW1 8434   1.945   4.572  10.664
 2220SOL    HW2 8435   1.898   4.631  10.533
 2221SOL     OW 8436   6.447   7.722  11.302
 2221SOL    HW1 8437   6.417   7.789  11.240
 2221SOL    HW2 8438   6.538   7.747  11.321
 2222SOL     OW 8439   4.875  12.550  13.157
 2222SOL    HW1 8440   4.863  12.617  13.225
 2222SOL    HW2 8441   4.961  12.512  13.176
 2223SOL     OW 8442  10.739   1.254   2.027
 2223SOL    HW1 8443  10.690   1.174   2.044
 2223SOL    HW2 8444  10.778   1.241   1.941
 2224SOL     OW 8445  13.447  12.489   1.622
 2224SOL    HW1 8446  13.393  12.551   1.572
 2224SOL    HW2 8447  13.388  12.418   1.646
 2225SOL     OW 8448   0.759   7.747   3.110
 2225SOL    HW1 8449   0.827   7.742   3.043
 2225SOL    HW2 8450   0.711   7.665   3.102
 2226SOL     OW 8451   3.822  11.091   0.115
 2226SOL    HW1 8452   3.896  11.034   0.093
 2226SOL    HW2 8453   3.811  11.081   0.210
 2227SOL     OW 8454   6.871  14.359   7.160
 2227SOL    HW1 8455   6.882  14.454   7.162
 2227SOL    HW2 8456   6.778  14.346   7.178
 2228SOL     OW 8457  10.482   4.169   3.649
 2228SOL    HW1 8458  10.550   4.188   3.714
 2228SOL    HW2 8459  10.518   4.200   3.566
 2229SOL     OW 8460  13.305   2.773  10.062
 2229SOL    HW1 8461  13.231   2.760  10.121
 2229SOL    HW2 8462  13.265   2.803   9.980
 2230SOL     OW 8463   7.223   2.629   0.953
 2230SOL    HW1 8464   7.198   2.551   0.903
 2230SOL    HW2 8465   7.258   2.595   1.035
 2231SOL     OW 8466   6.100   3.724   9.069
 2231SOL    HW1 8467   6.064   3.809   9.044
 2231SOL    HW2 8468   6.028   3.663   9.057
 2232SOL     OW 8469  13.872   6.469   5.197
 2232SOL    HW1 8470  13.891   6.376   5.189
 2232SOL    HW2 8471  13.957   6.509   5.216
 2233SOL     OW 8472  11.747   2.086   4.917
 2233SOL    HW1 8473  11.755   2.153   4.984
 2233SOL    HW2 8474  11.827   2.033   4.926
 2234SOL     OW 8475  12.198   0.568   2.046
 2234SOL    HW1 8476  12.155   0.494   2.003
 2234SOL    HW2 8477  12.283   0.575   2.002
 2235SOL     OW 8478   8.038  12.648   2.976
 2235SOL    HW1 8479   8.038  12.627   2.883
 2235SOL    HW2 8480   7.959  12.699   2.989
 2236SOL     OW 8481   8.770   0.907  11.267
 2236SOL    HW1 8482   8.723   0.883  11.187
 2236SOL    HW2 8483   8.781   1.002  11.260
 2237SOL     OW 8484   7.154  12.283   9.961
 2237SOL    HW1 8485   7.232  12.338   9.957
 2237SOL    HW2 8486   7.086  12.333   9.916
 2238SOL     OW 8487   7.939   8.492  13.829
 2238SOL    HW1 8488   7.888   8.572  13.814
 2238SOL    HW2 8489   7.924   8.439  13.751
 2239SOL     OW 8490  11.750   9.567   1.907
 2239SOL    HW1 8491  11.786   9.494   1.959
 2239SOL    HW2 8492  11.819   9.587   1.844
 2240SOL     OW 8493   8.383   4.501  11.182
 2240SOL    HW1 8494   8.428   4.430  11.228
 2240SOL    HW2 8495   8.327   4.456  11.118
 2241SOL     OW 8496  11.584  13.837   3.798
 2241SOL    HW1 8497  11.660  13.874   3.753
 2241SOL    HW2 8498  11.509  13.862   3.743
 2242SOL     OW 8499   4.399   7.893  11.795
 2242SOL    HW1 8500   4.323   7.902  11.853
 2242SOL    HW2 8501   4.374   7.824  11.733
 2243SOL     OW 8502   6.437   1.807   1.920
 2243SOL    HW1 8503   6.415   1.896   1.893
 2243SOL    HW2 8504   6.531   1.809   1.937
 2244SOL     OW 8505   7.183  13.941  10.049
 2244SOL    HW1 8506   7.135  13.915   9.970
 2244SOL    HW2 8507   7.274  13.921  10.030
 2245SOL     OW 8508   2.499   2.926   2.792
 2245SOL    HW1 8509   2.419   2.895   2.834
 2245SOL    HW2 8510   2.562   2.855   2.805
 2246SOL     OW 8511   5.908   3.320   2.704
 2246SOL    HW1 8512   5.857   3.365   2.637
 2246SOL    HW2 8513   5.989   3.371   2.710
 2247SOL     OW 8514  14.725   2.648  13.555
 2247SOL    HW1 8515  14.640   2.610  13.575
 2247SOL    HW2 8516  14.741   2.711  13.624
 2248SOL     OW 8517   0.488   0.017   0.516
 2248SOL    HW1 8518   0.527   0.005   0.429
 2248SOL    HW2 8519   0.446  14.810   0.535
 2249SOL     OW 8520   2.417   8.188   4.998
 2249SOL    HW1 8521   2.366   8.236   4.933
 2249SOL    HW2 8522   2.369   8.105   5.009
 2250SOL     OW 8523  12.872   1.528  13.453
 2250SOL    HW1 8524  12.882   1.532  13.548
 2250SOL    HW2 8525  12.954   1.489  13.422
 2251SOL     OW 8526   0.404   1.002   3.363
 2251SOL    HW1 8527   0.376   0.928   3.417
 2251SOL    HW2 8528   0.499   1.005   3.376
 2252SOL     OW 8529   4.830   9.330   6.553
 2252SOL    HW1 8530   4.742   9.329   6.515
 2252SOL    HW2 8531   4.867   9.245   6.531
 2253SOL     OW 8532  12.170   7.744   0.669
 2253SOL    HW1 8533  12.144   7.833   0.648
 2253SOL    HW2 8534  12.134   7.690   0.598
 2254SOL     OW 8535   6.250   9.135  11.705
 2254SOL    HW1 8536   6.343   9.112  11.700
 2254SOL    HW2 8537   6.204   9.050  11.700
 2255SOL     OW 8538   2.076   6.097   1.865
 2255SOL    HW1 8539   2.103   6.028   1.805
 2255SOL    HW2 8540   1.986   6.075   1.888
 2256SOL     OW 8541   5.768   8.298   2.386
 2256SOL    HW1 8542   5.806   8.338   2.308
 2256SOL    HW2 8543   5.785   8.204   2.376
 2257SOL     OW 8544  13.039   2.013   6.920
 2257SOL    HW1 8545  13.079   2.029   7.006
 2257SOL    HW2 8546  12.965   2.073   6.916
 2258SOL     OW 8547   8.294   4.903   8.152
 2258SOL    HW1 8548   8.211   4.884   8.196
 2258SOL    HW2 8549   8.300   4.999   8.152
 2259SOL     OW 8550   5.436  13.137   3.850
 2259SOL    HW1 8551   5.437  13.055   3.801
 2259SOL    HW2 8552   5.355  13.179   3.824
 2260SOL     OW 8553   1.113   7.635   0.441
 2260SOL    HW1 8554   1.113   7.601   0.352
 2260SOL    HW2 8555   1.198   7.610   0.477
 2261SOL     OW 8556   8.368  13.433  10.527
 2261SOL    HW1 8557   8.379  13.362  10.590
 2261SOL    HW2 8558   8.313  13.497  10.572
 2262SOL     OW 8559   9.565   2.304   2.858
 2262SOL    HW1 8560   9.516   2.225   2.877
 2262SOL    HW2 8561   9.650   2.273   2.827
 2263SOL     OW 8562  11.806   8.219   1.008
 2263SOL    HW1 8563  11.791   8.215   1.103
 2263SOL    HW2 8564  11.781   8.307   0.983
 2264SOL     OW 8565   0.494   2.575   7.546
 2264SOL    HW1 8566   0.562   2.533   7.600
 2264SOL    HW2 8567   0.469   2.509   7.482
 2265SOL     OW 8568   3.193   5.244   6.614
 2265SOL    HW1 8569   3.117   5.237   6.672
 2265SOL    HW2 8570   3.184   5.330   6.573
 2266SOL     OW 8571  11.916   3.718   3.634
 2266SOL    HW1 8572  11.915   3.686   3.724
 2266SOL    HW2 8573  12.009   3.729   3.614
 2267SOL     OW 8574   2.692   7.917   1.265
 2267SOL    HW1 8575   2.745   7.843   1.294
 2267SOL    HW2 8576   2.698   7.981   1.337
 2268SOL     OW 8577  10.236   2.204   5.973
 2268SOL    HW1 8578  10.190   2.287   5.986
 2268SOL    HW2 8579  10.187   2.141   6.026
 2269SOL     OW 8580   9.707  11.354  12.333
 2269SOL    HW1 8581   9.726  11.282  12.273
 2269SOL    HW2 8582   9.786  11.408  12.332
 2270SOL     OW 8583  12.235   7.919   2.570
 2270SOL    HW1 8584  12.178   7.961   2.634
 2270SOL    HW2 8585  12.302   7.875   2.623
 2271SOL     OW 8586   1.914   2.225   0.168
 2271SOL    HW1 8587   1.897   2.131   0.172
 2271SOL    HW2 8588   2.007   2.232   0.146
 2272SOL     OW 8589   5.657   3.517   1.801
 2272SOL    HW1 8590   5.617   3.529   1.888
 2272SOL    HW2 8591   5.594   3.556   1.740
 2273SOL     OW 8592   8.333   9.232  10.151
 2273SOL    HW1 8593   8.346   9.205  10.060
 2273SOL    HW2 8594   8.300   9.322  10.144
 2274SOL     OW 8595  13.443  11.758  13.756
 2274SOL    HW1 8596  13.487  11.836  13.790
 2274SOL    HW2 8597  13.514  11.697  13.735
 2275SOL     OW 8598   3.402   9.845   2.922
 2275SOL    HW1 8599   3.487   9.803   2.940
 2275SOL    HW2 8600   3.338   9.786   2.962
 2276SOL     OW 8601   0.109   4.315  14.175
 2276SOL    HW1 8602   0.195   4.275  14.188
 2276SOL    HW2 8603   0.129   4.406  14.152
 2277SOL     OW 8604  13.034   9.574   0.928
 2277SOL    HW1 8605  13.070   9.658   0.957
 2277SOL    HW2 8606  13.088   9.508   0.972
 2278SOL     OW 8607   3.978  13.142  13.247
 2278SOL    HW1 8608   4.013  13.230  13.263
 2278SOL    HW2 8609   3.892  13.158  13.208
 2279SOL     OW 8610   7.283  12.264   5.040
 2279SOL    HW1 8611   7.307  12.239   4.951
 2279SOL    HW2 8612   7.344  12.215   5.096
 2280SOL     OW 8613  13.992   7.210   7.287
 2280SOL    HW1 8614  13.909   7.214   7.333
 2280SOL    HW2 8615  14.012   7.301   7.265
 2281SOL     OW 8616   6.355   3.249   7.215
 2281SOL    HW1 8617   6.330   3.287   7.299
 2281SOL    HW2 8618   6.444   3.280   7.199
 2282SOL     OW 8619   0.362   1.023   4.500
 2282SOL    HW1 8620   0.453   1.000   4.517
 2282SOL    HW2 8621   0.312   0.969   4.561
 2283SOL     OW 8622  13.952   3.248  12.045
 2283SOL    HW1 8623  14.026   3.213  11.995
 2283SOL    HW2 8624  13.982   3.247  12.136
 2284SOL     OW 8625   9.366  13.785  13.778
 2284SOL    HW1 8626   9.421  13.722  13.826
 2284SOL    HW2 8627   9.382  13.764  13.686
 2285SOL     OW 8628   2.227   2.237   9.671
 2285SOL    HW1 8629   2.306   2.286   9.694
 2285SOL    HW2 8630   2.237   2.218   9.578
 2286SOL     OW 8631   8.053  11.949   9.055
 2286SOL    HW1 8632   7.964  11.915   9.054
 2286SOL    HW2 8633   8.065  11.982   9.144
 2287SOL     OW 8634   8.415   1.194   2.316
 2287SOL    HW1 8635   8.333   1.223   2.277
 2287SOL    HW2 8636   8.426   1.251   2.392
 2288SOL     OW 8637  11.466   8.778   3.928
 2288SOL    HW1 8638  11.561   8.788   3.929
 2288SOL    HW2 8639  11.433   8.853   3.978
 2289SOL     OW 8640   9.529   7.512   2.154
 2289SOL    HW1 8641   9.524   7.602   2.122
 2289SOL    HW2 8642   9.604   7.512   2.214
 2290SOL     OW 8643  13.600  13.384  13.501
 2290SOL    HW1 8644  13.546  13.312  13.533
 2290SOL    HW2 8645  13.647  13.347  13.426
 2291SOL     OW 8646   3.456   2.811   9.191
 2291SOL    HW1 8647   3.370   2.788   9.228
 2291SOL    HW2 8648   3.508   2.837   9.267
 2292SOL     OW 8649  11.741   9.805   0.555
 2292SOL    HW1 8650  11.715   9.799   0.646
 2292SOL    HW2 8651  11.671   9.854   0.512
 2293SOL     OW 8652   7.047   2.926   9.158
 2293SOL    HW1 8653   7.086   3.008   9.188
 2293SOL    HW2 8654   6.961   2.923   9.201
 2294SOL     OW 8655   8.571   1.433  13.744
 2294SOL    HW1 8656   8.546   1.514  13.788
 2294SOL    HW2 8657   8.612   1.462  13.663
 2295SOL     OW 8658   2.354   1.230  10.125
 2295SOL    HW1 8659   2.304   1.291  10.070
 2295SOL    HW2 8660   2.440   1.227  10.084
 2296SOL     OW 8661   6.507  14.125   3.299
 2296SOL    HW1 8662   6.569  14.099   3.231
 2296SOL    HW2 8663   6.553  14.106   3.381
 2297SOL     OW 8664   6.158  10.478  12.059
 2297SOL    HW1 8665   6.220  10.514  11.996
 2297SOL    HW2 8666   6.210  10.417  12.112
 2298SOL     OW 8667  13.826   8.368   3.745
 2298SOL    HW1 8668  13.909   8.341   3.784
 2298SOL    HW2 8669  13.852   8.421   3.669
 2299SOL     OW 8670  13.438   7.612   4.616
 2299SOL    HW1 8671  13.527   7.621   4.581
 2299SOL    HW2 8672  13.428   7.518   4.629
 2300SOL     OW 8673   7.687   1.207   1.765
 2300SOL    HW1 8674   7.734   1.291   1.765
 2300SOL    HW2 8675   7.641   1.205   1.848
 2301SOL     OW 8676   5.081  14.275   2.613
 2301SOL    HW1 8677   5.031  14.196   2.589
 2301SOL    HW2 8678   5.106  14.313   2.529
 2302SOL     OW 8679   1.512   1.281  14.433
 2302SOL    HW1 8680   1.589   1.224  14.423
 2302SOL    HW2 8681   1.439   1.228  14.401
 2303SOL     OW 8682   8.925   4.875   0.452
 2303SOL    HW1 8683   8.989   4.906   0.516
 2303SOL    HW2 8684   8.886   4.954   0.416
 2304SOL     OW 8685  14.239   0.663   4.753
 2304SOL    HW1 8686  14.302   0.685   4.684
 2304SOL    HW2 8687  14.277   0.586   4.795
 2305SOL     OW 8688   9.706   0.866  10.466
 2305SOL    HW1 8689   9.638   0.857  10.532
 2305SOL    HW2 8690   9.754   0.783  10.469
 2306SOL     OW 8691   3.581   7.814   5.004
 2306SOL    HW1 8692   3.501   7.768   4.979
 2306SOL    HW2 8693   3.551   7.887   5.058
 2307SOL     OW 8694  14.475   1.604   7.179
 2307SOL    HW1 8695  14.386   1.570   7.191
 2307SOL    HW2 8696  14.512   1.608   7.267
 2308SOL     OW 8697   1.069   9.150   6.031
 2308SOL    HW1 8698   1.104   9.064   6.055
 2308SOL    HW2 8699   1.135   9.212   6.061
 2309SOL     OW 8700  14.541   4.542   7.247
 2309SOL    HW1 8701  14.636   4.551   7.241
 2309SOL    HW2 8702  14.516   4.499   7.165
 2310SOL     OW 8703  12.041  11.050  10.383
 2310SOL    HW1 8704  12.074  11.140  10.389
 2310SOL    HW2 8705  12.115  10.999  10.351
 2311SOL     OW 8706   8.416  11.151  12.412
 2311SOL    HW1 8707   8.359  11.228  12.416
 2311SOL    HW2 8708   8.357  11.076  12.422
 2312SOL     OW 8709  12.401  12.176  10.565
 2312SOL    HW1 8710  12.400  12.229  10.485
 2312SOL    HW2 8711  12.463  12.220  10.623
 2313SOL     OW 8712  10.454   5.867  12.096
 2313SOL    HW1 8713  10.383   5.814  12.062
 2313SOL    HW2 8714  10.529   5.845  12.041
 2314SOL     OW 8715   8.535   8.874  10.877
 2314SOL    HW1 8716   8.610   8.916  10.919
 2314SOL    HW2 8717   8.471   8.945  10.867
 2315SOL     OW 8718   1.795   8.911  11.892
 2315SOL    HW1 8719   1.700   8.918  11.893
 2315SOL    HW2 8720   1.825   8.997  11.922
 2316SOL     OW 8721   1.980   4.747  11.129
 2316SOL    HW1 8722   1.978   4.842  11.115
 2316SOL    HW2 8723   1.891   4.718  11.107
 2317SOL     OW 8724   5.506   2.971   9.657
 2317SOL    HW1 8725   5.597   2.940   9.658
 2317SOL    HW2 8726   5.455   2.895   9.631
 2318SOL     OW 8727   4.392   5.271   7.578
 2318SOL    HW1 8728   4.393   5.179   7.551
 2318SOL    HW2 8729   4.328   5.275   7.649
 2319SOL     OW 8730  12.576   2.135  12.772
 2319SOL    HW1 8731  12.498   2.173  12.732
 2319SOL    HW2 8732  12.543   2.086  12.847
 2320SOL     OW 8733   3.710   1.895   8.407
 2320SOL    HW1 8734   3.758   1.819   8.440
 2320SOL    HW2 8735   3.773   1.967   8.412
 2321SOL     OW 8736   8.043  14.869   0.715
 2321SOL    HW1 8737   8.024   0.065   0.772
 2321SOL    HW2 8738   7.984   0.003   0.640
 2322SOL     OW 8739  11.088   1.784  11.930
 2322SOL    HW1 8740  11.117   1.772  11.839
 2322SOL    HW2 8741  11.071   1.695  11.961
 2323SOL     OW 8742   8.818   5.200  11.574
 2323SOL    HW1 8743   8.870   5.189  11.494
 2323SOL    HW2 8744   8.772   5.116  11.584
 2324SOL     OW 8745  13.852   7.044   8.890
 2324SOL    HW1 8746  13.757   7.046   8.904
 2324SOL    HW2 8747  13.863   6.990   8.812
 2325SOL     OW 8748   5.595  11.590   5.708
 2325SOL    HW1 8749   5.681  11.552   5.727
 2325SOL    HW2 8750   5.534  11.535   5.758
 2326SOL     OW 8751  14.592   7.983   9.942
 2326SOL    HW1 8752  14.649   7.958  10.015
 2326SOL    HW2 8753  14.638   7.953   9.864
 2327SOL     OW 8754   3.918   0.279   2.317
 2327SOL    HW1 8755   4.004   0.246   2.341
 2327SOL    HW2 8756   3.873   0.204   2.279
 2328SOL     OW 8757   9.378  11.995  13.898
 2328SOL    HW1 8758   9.445  11.935  13.864
 2328SOL    HW2 8759   9.301  11.977  13.844
 2329SOL     OW 8760   6.284   5.742   8.918
 2329SOL    HW1 8761   6.305   5.650   8.898
 2329SOL    HW2 8762   6.220   5.767   8.851
 2330SOL     OW 8763   0.228   6.630   9.993
 2330SOL    HW1 8764   0.302   6.682  10.025
 2330SOL    HW2 8765   0.172   6.619  10.070
 2331SOL     OW 8766  13.313  12.681  11.947
 2331SOL    HW1 8767  13.390  12.729  11.919
 2331SOL    HW2 8768  13.248  12.749  11.966
 2332SOL     OW 8769   7.003   6.530   3.384
 2332SOL    HW1 8770   6.920   6.569   3.413
 2332SOL    HW2 8771   6.978   6.444   3.350
 2333SOL     OW 8772   4.174   0.909   0.424
 2333SOL    HW1 8773   4.204   0.992   0.460
 2333SOL    HW2 8774   4.083   0.901   0.452
 2334SOL     OW 8775  10.952   2.690   9.658
 2334SOL    HW1 8776  11.027   2.650   9.701
 2334SOL    HW2 8777  10.878   2.633   9.682
 2335SOL     OW 8778  14.121  10.155   4.709
 2335SOL    HW1 8779  14.201  10.132   4.757
 2335SOL    HW2 8780  14.142  10.237   4.666
 2336SOL     OW 8781   7.011   1.757   6.459
 2336SOL    HW1 8782   6.976   1.733   6.545
 2336SOL    HW2 8783   6.959   1.706   6.397
 2337SOL     OW 8784   3.638  13.192  11.296
 2337SOL    HW1 8785   3.555  13.237  11.276
 2337SOL    HW2 8786   3.695  13.262  11.330
 2338SOL     OW 8787  13.801   3.667  11.741
 2338SOL    HW1 8788  13.834   3.621  11.818
 2338SOL    HW2 8789  13.727   3.718  11.774
 2339SOL     OW 8790  11.410   6.233   0.328
 2339SOL    HW1 8791  11.501   6.221   0.303
 2339SOL    HW2 8792  11.401   6.185   0.410
 2340SOL     OW 8793  12.341   3.227  10.333
 2340SOL    HW1 8794  12.286   3.167  10.282
 2340SOL    HW2 8795  12.314   3.314  10.302
 2341SOL     OW 8796   7.685   4.003   1.063
 2341SOL    HW1 8797   7.741   4.051   1.124
 2341SOL    HW2 8798   7.616   3.966   1.118
 2342SOL     OW 8799  12.079   2.908  11.291
 2342SOL    HW1 8800  12.102   2.874  11.205
 2342SOL    HW2 8801  12.163   2.934  11.330
 2343SOL     OW 8802  10.126   3.759  11.488
 2343SOL    HW1 8803  10.220   3.745  11.499
 2343SOL    HW2 8804  10.104   3.714  11.406
 2344SOL     OW 8805   5.108   7.356   3.844
 2344SOL    HW1 8806   5.168   7.283   3.826
 2344SOL    HW2 8807   5.058   7.366   3.764
 2345SOL     OW 8808   1.088   4.197   5.183
 2345SOL    HW1 8809   1.049   4.283   5.166
 2345SOL    HW2 8810   1.122   4.169   5.098
 2346SOL     OW 8811   8.647   4.835  12.237
 2346SOL    HW1 8812   8.685   4.793  12.314
 2346SOL    HW2 8813   8.653   4.929  12.255
 2347SOL     OW 8814  13.295  11.506   6.103
 2347SOL    HW1 8815  13.267  11.416   6.124
 2347SOL    HW2 8816  13.379  11.495   6.059
 2348SOL     OW 8817   4.824  14.496   5.448
 2348SOL    HW1 8818   4.846  14.403   5.451
 2348SOL    HW2 8819   4.745  14.504   5.502
 2349SOL     OW 8820   9.085   0.249  12.641
 2349SOL    HW1 8821   9.012   0.211  12.690
 2349SOL    HW2 8822   9.046   0.324  12.595
 2350SOL     OW 8823   8.317   9.246  10.910
 2350SOL    HW1 8824   8.289   9.312  10.974
 2350SOL    HW2 8825   8.320   9.165  10.960
 2351SOL     OW 8826   6.452   4.528   9.285
 2351SOL    HW1 8827   6.407   4.468   9.226
 2351SOL    HW2 8828   6.510   4.579   9.228
 2352SOL     OW 8829   5.350   8.611   8.456
 2352SOL    HW1 8830   5.389   8.564   8.382
 2352SOL    HW2 8831   5.412   8.598   8.528
 2353SOL     OW 8832  14.126  10.128   9.927
 2353SOL    HW1 8833  14.182  10.198   9.958
 2353SOL    HW2 8834  14.081  10.165   9.851
 2354SOL     OW 8835   8.076   7.755   8.545
 2354SOL    HW1 8836   8.099   7.667   8.515
 2354SOL    HW2 8837   8.156   7.788   8.586
 2355SOL     OW 8838   1.885   2.714   0.148
 2355SOL    HW1 8839   1.861   2.798   0.110
 2355SOL    HW2 8840   1.803   2.668   0.159
 2356SOL     OW 8841   3.497   1.440   9.634
 2356SOL    HW1 8842   3.565   1.405   9.576
 2356SOL    HW2 8843   3.546   1.478   9.707
 2357SOL     OW 8844  14.549   3.336   7.201
 2357SOL    HW1 8845  14.456   3.351   7.220
 2357SOL    HW2 8846  14.576   3.413   7.151
 2358SOL     OW 8847  13.450   5.478   0.522
 2358SOL    HW1 8848  13.404   5.437   0.449
 2358SOL    HW2 8849  13.441   5.572   0.507
 2359SOL     OW 8850  12.410   9.246  11.443
 2359SOL    HW1 8851  12.486   9.188  11.445
 2359SOL    HW2 8852  12.365   9.229  11.526
 2360SOL     OW 8853   7.644   2.427   1.263
 2360SOL    HW1 8854   7.659   2.344   1.308
 2360SOL    HW2 8855   7.665   2.494   1.328
 2361SOL     OW 8856   0.744  12.800  10.619
 2361SOL    HW1 8857   0.663  12.838  10.584
 2361SOL    HW2 8858   0.814  12.841  10.568
 2362SOL     OW 8859   9.811   6.900   6.679
 2362SOL    HW1 8860   9.794   6.982   6.633
 2362SOL    HW2 8861   9.819   6.925   6.771
 2363SOL     OW 8862   8.326   3.995   6.983
 2363SOL    HW1 8863   8.261   3.926   6.970
 2363SOL    HW2 8864   8.300   4.038   7.065
 2364SOL     OW 8865   0.979   2.944  10.317
 2364SOL    HW1 8866   0.989   3.017  10.378
 2364SOL    HW2 8867   1.058   2.946  10.264
 2365SOL     OW 8868   4.554   4.046   1.812
 2365SOL    HW1 8869   4.622   4.055   1.878
 2365SOL    HW2 8870   4.590   4.090   1.734
 2366SOL     OW 8871   3.223   4.768  14.194
 2366SOL    HW1 8872   3.299   4.798  14.245
 2366SOL    HW2 8873   3.165   4.730  14.260
 2367SOL     OW 8874   3.452   7.424   6.853
 2367SOL    HW1 8875   3.481   7.383   6.772
 2367SOL    HW2 8876   3.496   7.376   6.923
 2368SOL     OW 8877   6.703   5.578  14.097
 2368SOL    HW1 8878   6.731   5.556  14.009
 2368SOL    HW2 8879   6.680   5.495  14.138
 2369SOL     OW 8880  11.523   9.696   7.322
 2369SOL    HW1 8881  11.456   9.671   7.386
 2369SOL    HW2 8882  11.508   9.638   7.248
 2370SOL     OW 8883   2.400  10.090   4.423
 2370SOL    HW1 8884   2.426   9.999   4.437
 2370SOL    HW2 8885   2.462  10.141   4.476
 2371SOL     OW 8886   3.791   1.249   6.145
 2371SOL    HW1 8887   3.798   1.341   6.171
 2371SOL    HW2 8888   3.882   1.222   6.129
 2372SOL     OW 8889   3.324   0.518   3.971
 2372SOL    HW1 8890   3.270   0.505   3.893
 2372SOL    HW2 8891   3.409   0.545   3.937
 2373SOL     OW 8892  12.214  11.365  14.238
 2373SOL    HW1 8893  12.241  11.305  14.169
 2373SOL    HW2 8894  12.295  11.409  14.265
 2374SOL     OW 8895  14.145   4.250  13.232
 2374SOL    HW1 8896  14.194   4.288  13.160
 2374SOL    HW2 8897  14.054   4.275  13.215
 2375SOL     OW 8898   9.349   6.527   6.396
 2375SOL    HW1 8899   9.396   6.452   6.360
 2375SOL    HW2 8900   9.266   6.491   6.427
 2376SOL     OW 8901   1.427   0.515   5.339
 2376SOL    HW1 8902   1.435   0.486   5.248
 2376SOL    HW2 8903   1.437   0.610   5.335
 2377SOL     OW 8904   2.622   3.033  11.073
 2377SOL    HW1 8905   2.691   2.968  11.074
 2377SOL    HW2 8906   2.595   3.042  11.164
 2378SOL     OW 8907  14.060   0.764  11.423
 2378SOL    HW1 8908  13.994   0.812  11.472
 2378SOL    HW2 8909  14.031   0.672  11.426
 2379SOL     OW 8910   3.597   2.013   6.301
 2379SOL    HW1 8911   3.671   2.045   6.353
 2379SOL    HW2 8912   3.520   2.039   6.351
 2380SOL     OW 8913   2.008  10.155   1.810
 2380SOL    HW1 8914   1.941  10.086   1.804
 2380SOL    HW2 8915   2.067  10.137   1.737
 2381SOL     OW 8916  11.457  10.808   0.728
 2381SOL    HW1 8917  11.392  10.867   0.766
 2381SOL    HW2 8918  11.518  10.865   0.682
 2382SOL     OW 8919   9.579   9.461   9.592
 2382SOL    HW1 8920   9.596   9.552   9.615
 2382SOL    HW2 8921   9.575   9.415   9.676
 2383SOL     OW 8922   0.616   6.666  13.103
 2383SOL    HW1 8923   0.594   6.704  13.188
 2383SOL    HW2 8924   0.534   6.628  13.072
 2384SOL     OW 8925  13.270   6.134   2.044
 2384SOL    HW1 8926  13.210   6.195   2.086
 2384SOL    HW2 8927  13.356   6.173   2.054
 2385SOL     OW 8928   9.287   3.311   1.412
 2385SOL    HW1 8929   9.219   3.308   1.479
 2385SOL    HW2 8930   9.286   3.223   1.373
 2386SOL     OW 8931  11.444   4.734   4.400
 2386SOL    HW1 8932  11.476   4.645   4.386
 2386SOL    HW2 8933  11.450   4.775   4.314
 2387SOL     OW 8934   3.323  12.750  10.437
 2387SOL    HW1 8935   3.286  12.674  10.482
 2387SOL    HW2 8936   3.247  12.800  10.407
 2388SOL     OW 8937  12.057  12.359  12.982
 2388SOL    HW1 8938  12.043  12.311  13.063
 2388SOL    HW2 8939  12.150  12.380  12.981
 2389SOL     OW 8940   5.763  11.761   6.598
 2389SOL    HW1 8941   5.822  11.732   6.528
 2389SOL    HW2 8942   5.789  11.710   6.674
 2390SOL     OW 8943   1.093  12.634   0.352
 2390SOL    HW1 8944   1.042  12.711   0.327
 2390SOL    HW2 8945   1.175  12.670   0.386
 2391SOL     OW 8946   9.740  13.463   1.324
 2391SOL    HW1 8947   9.802  13.513   1.270
 2391SOL    HW2 8948   9.672  13.527   1.346
 2392SOL     OW 8949  14.438   9.063   9.813
 2392SOL    HW1 8950  14.386   9.062   9.894
 2392SOL    HW2 8951  14.420   9.149   9.774
 2393SOL     OW 8952  11.911   8.642  12.222
 2393SOL    HW1 8953  11.896   8.575  12.289
 2393SOL    HW2 8954  11.967   8.600  12.157
 2394SOL     OW 8955  11.542   3.914   1.779
 2394SOL    HW1 8956  11.577   3.972   1.712
 2394SOL    HW2 8957  11.482   3.969   1.830
 2395SOL     OW 8958   4.205  10.045   4.045
 2395SOL    HW1 8959   4.211  10.024   3.952
 2395SOL    HW2 8960   4.256  10.126   4.054
 2396SOL     OW 8961   4.407   8.166  11.963
 2396SOL    HW1 8962   4.344   8.096  11.944
 2396SOL    HW2 8963   4.482   8.121  12.002
 2397SOL     OW 8964   4.914   0.271   9.514
 2397SOL    HW1 8965   4.856   0.280   9.438
 2397SOL    HW2 8966   4.995   0.236   9.477
 2398SOL     OW 8967  10.094   8.835   8.838
 2398SOL    HW1 8968  10.087   8.748   8.877
 2398SOL    HW2 8969  10.173   8.830   8.784
 2399SOL     OW 8970   2.740   0.548   3.730
 2399SOL    HW1 8971   2.702   0.635   3.719
 2399SOL    HW2 8972   2.665   0.488   3.723
 2400SOL     OW 8973  14.144   7.120   5.837
 2400SOL    HW1 8974  14.214   7.058   5.814
 2400SOL    HW2 8975  14.151   7.189   5.772
 2401SOL     OW 8976  12.525   7.689  13.130
 2401SOL    HW1 8977  12.615   7.659  13.136
 2401SOL    HW2 8978  12.531   7.780  13.101
 2402SOL     OW 8979   9.741   6.933   2.930
 2402SOL    HW1 8980   9.734   6.874   2.855
 2402SOL    HW2 8981   9.833   6.929   2.955
 2403SOL     OW 8982  10.012  13.153  13.415
 2403SOL    HW1 8983  10.092  13.163  13.364
 2403SOL    HW2 8984  10.033  13.085  13.479
 2404SOL     OW 8985   3.439  14.131   8.884
 2404SOL    HW1 8986   3.505  14.164   8.945
 2404SOL    HW2 8987   3.369  14.097   8.939
 2405SOL     OW 8988  10.151  11.062   0.762
 2405SOL    HW1 8989  10.098  11.064   0.682
 2405SOL    HW2 8990  10.194  10.977   0.760
 2406SOL     OW 8991   4.459   9.151  14.242
 2406SOL    HW1 8992   4.469   9.238  14.205
 2406SOL    HW2 8993   4.425   9.166  14.330
 2407SOL     OW 8994  12.975  12.636   2.961
 2407SOL    HW1 8995  12.995  12.599   2.875
 2407SOL    HW2 8996  13.048  12.609   3.017
 2408SOL     OW 8997  11.702   5.512   2.595
 2408SOL    HW1 8998  11.649   5.592   2.596
 2408SOL    HW2 8999  11.749   5.513   2.678
 2409SOL     OW 9000  12.805   5.498   7.909
 2409SOL    HW1 9001  12.787   5.480   7.817
 2409SOL    HW2 9002  12.850   5.419   7.941
 2410SOL     OW 9003   8.203   2.684   1.682
 2410SOL    HW1 9004   8.221   2.650   1.594
 2410SOL    HW2 9005   8.275   2.745   1.699
 2411SOL     OW 9006   1.321   3.416  10.013
 2411SOL    HW1 9007   1.390   3.351  10.027
 2411SOL    HW2 9008   1.259   3.374   9.953
 2412SOL     OW 9009   3.039  11.942   6.508
 2412SOL    HW1 9010   3.071  12.016   6.456
 2412SOL    HW2 9011   3.026  11.872   6.443
 2413SOL     OW 9012   4.663  14.603   4.286
 2413SOL    HW1 9013   4.635  14.647   4.206
 2413SOL    HW2 9014   4.726  14.663   4.326
 2414SOL     OW 9015  10.068  11.773   6.485
 2414SOL    HW1 9016  10.089  11.687   6.451
 2414SOL    HW2 9017  10.150  11.806   6.521
 2415SOL     OW 9018  13.595  11.931  12.978
 2415SOL    HW1 9019  13.531  11.993  13.014
 2415SOL    HW2 9020  13.635  11.977  12.905
 2416SOL     OW 9021   0.471   7.972   1.478
 2416SOL    HW1 9022   0.394   8.020   1.448
 2416SOL    HW2 9023   0.519   7.950   1.398
 2417SOL     OW 9024   5.871   9.764   2.326
 2417SOL    HW1 9025   5.808   9.828   2.360
 2417SOL    HW2 9026   5.872   9.780   2.231
 2418SOL     OW 9027   8.152   4.452   6.031
 2418SOL    HW1 9028   8.171   4.522   5.968
 2418SOL    HW2 9029   8.180   4.372   5.987
 2419SOL     OW 9030   5.806   5.821   8.449
 2419SOL    HW1 9031   5.792   5.904   8.494
 2419SOL    HW2 9032   5.892   5.792   8.480
 2420SOL     OW 9033   2.851  12.333   9.056
 2420SOL    HW1 9034   2.809  12.343   8.971
 2420SOL    HW2 9035   2.942  12.360   9.042
 2421SOL     OW 9036   8.590   5.284   8.410
 2421SOL    HW1 9037   8.498   5.308   8.424
 2421SOL    HW2 9038   8.623   5.352   8.351
 2422SOL     OW 9039   4.514   6.097   2.807
 2422SOL    HW1 9040   4.450   6.027   2.795
 2422SOL    HW2 9041   4.566   6.096   2.726
 2423SOL     OW 9042   1.186   6.379   1.245
 2423SOL    HW1 9043   1.124   6.314   1.277
 2423SOL    HW2 9044   1.143   6.418   1.169
 2424SOL     OW 9045   7.753  14.827   6.932
 2424SOL    HW1 9046   7.796  14.784   7.006
 2424SOL    HW2 9047   7.760  14.763   6.861
 2425SOL     OW 9048  10.279   2.230  12.641
 2425SOL    HW1 9049  10.225   2.163  12.599
 2425SOL    HW2 9050  10.313   2.188  12.720
 2426SOL     OW 9051  14.265   1.591   3.043
 2426SOL    HW1 9052  14.198   1.543   2.994
 2426SOL    HW2 9053  14.347   1.550   3.017
 2427SOL     OW 9054   2.298  12.309   0.905
 2427SOL    HW1 9055   2.204  12.291   0.917
 2427SOL    HW2 9056   2.314  12.294   0.812
 2428SOL     OW 9057  12.597   5.114   7.464
 2428SOL    HW1 9058  12.657   5.163   7.407
 2428SOL    HW2 9059  12.529   5.177   7.488
 2429SOL     OW 9060   5.973   6.892   5.388
 2429SOL    HW1 9061   6.017   6.856   5.465
 2429SOL    HW2 9062   5.929   6.817   5.349
 2430SOL     OW 9063  13.322  12.772   2.420
 2430SOL    HW1 9064  13.227  12.760   2.430
 2430SOL    HW2 9065  13.359  12.686   2.439
 2431SOL     OW 9066  11.778   4.210   4.729
 2431SOL    HW1 9067  11.691   4.215   4.767
 2431SOL    HW2 9068  11.837   4.204   4.804
 2432SOL     OW 9069   0.133   5.844   9.042
 2432SOL    HW1 9070   0.044   5.879   9.033
 2432SOL    HW2 9071   0.146   5.834   9.136
 2433SOL     OW 9072   5.955   7.814  10.743
 2433SOL    HW1 9073   6.035   7.763  10.724
 2433SOL    HW2 9074   5.954   7.882  10.676
 2434SOL     OW 9075  13.453  12.142   9.568
 2434SOL    HW1 9076  13.523  12.112   9.510
 2434SOL    HW2 9077  13.420  12.061   9.609
 2435SOL     OW 9078   2.729  13.053   3.294
 2435SOL    HW1 9079   2.696  12.966   3.270
 2435SOL    HW2 9080   2.722  13.055   3.389
 2436SOL     OW 9081   8.692   1.755   2.166
 2436SOL    HW1 9082   8.784   1.739   2.149
 2436SOL    HW2 9083   8.646   1.711   2.094
 2437SOL     OW 9084   6.827   4.373   0.715
 2437SOL    HW1 9085   6.882   4.408   0.785
 2437SOL    HW2 9086   6.889   4.345   0.648
 2438SOL     OW 9087   6.349   8.857   8.346
 2438SOL    HW1 9088   6.394   8.786   8.300
 2438SOL    HW2 9089   6.319   8.817   8.428
 2439SOL     OW 9090   0.259   6.227   5.817
 2439SOL    HW1 9091   0.237   6.168   5.745
 2439SOL    HW2 9092   0.243   6.175   5.896
 2440SOL     OW 9093   9.626  13.344  14.122
 2440SOL    HW1 9094   9.590  13.422  14.163
 2440SOL    HW2 9095   9.551  13.301  14.080
 2441SOL     OW 9096  14.521   5.893   8.522
 2441SOL    HW1 9097  14.534   5.812   8.571
 2441SOL    HW2 9098  14.576   5.883   8.444
 2442SOL     OW 9099   7.347   5.762   8.218
 2442SOL    HW1 9100   7.318   5.846   8.184
 2442SOL    HW2 9101   7.293   5.697   8.171
 2443SOL     OW 9102  12.411   7.163   0.411
 2443SOL    HW1 9103  12.440   7.182   0.321
 2443SOL    HW2 9104  12.487   7.183   0.465
 2444SOL     OW 9105  14.675  11.425   5.655
 2444SOL    HW1 9106  14.755  11.471   5.679
 2444SOL    HW2 9107  14.697  11.332   5.664
 2445SOL     OW 9108   6.748   9.535   7.512
 2445SOL    HW1 9109   6.811   9.530   7.440
 2445SOL    HW2 9110   6.735   9.444   7.538
 2446SOL     OW 9111  13.638   6.509  12.146
 2446SOL    HW1 9112  13.727   6.545  12.151
 2446SOL    HW2 9113  13.582   6.577  12.183
 2447SOL     OW 9114   1.584   8.425   2.340
 2447SOL    HW1 9115   1.583   8.506   2.289
 2447SOL    HW2 9116   1.548   8.359   2.281
 2448SOL     OW 9117  12.406   0.949   1.283
 2448SOL    HW1 9118  12.473   0.977   1.345
 2448SOL    HW2 9119  12.444   0.873   1.239
 2449SOL     OW 9120   2.232   9.806   0.362
 2449SOL    HW1 9121   2.242   9.881   0.303
 2449SOL    HW2 9122   2.236   9.843   0.450
 2450SOL     OW 9123   5.325   9.024   7.907
 2450SOL    HW1 9124   5.328   8.930   7.893
 2450SOL    HW2 9125   5.349   9.037   7.998
 2451SOL     OW 9126   1.244   3.552   7.534
 2451SOL    HW1 9127   1.296   3.493   7.589
 2451SOL    HW2 9128   1.190   3.601   7.595
 2452SOL     OW 9129   4.529   6.446   6.358
 2452SOL    HW1 9130   4.550   6.363   6.399
 2452SOL    HW2 9131   4.439   6.434   6.326
 2453SOL     OW 9132   9.770   9.602   6.102
 2453SOL    HW1 9133   9.736   9.671   6.158
 2453SOL    HW2 9134   9.713   9.603   6.025
 2454SOL     OW 9135   7.803  13.263   6.154
 2454SOL    HW1 9136   7.863  13.222   6.092
 2454SOL    HW2 9137   7.738  13.307   6.100
 2455SOL     OW 9138   3.620   6.539   9.498
 2455SOL    HW1 9139   3.649   6.627   9.475
 2455SOL    HW2 9140   3.529   6.550   9.525
 2456SOL     OW 9141   7.640  14.748  12.046
 2456SOL    HW1 9142   7.736  14.744  12.052
 2456SOL    HW2 9143   7.612  14.779  12.131
 2457SOL     OW 9144   1.223   5.586   4.491
 2457SOL    HW1 9145   1.217   5.605   4.397
 2457SOL    HW2 9146   1.262   5.499   4.495
 2458SOL     OW 9147   5.418   1.945   7.382
 2458SOL    HW1 9148   5.428   2.040   7.387
 2458SOL    HW2 9149   5.434   1.914   7.471
 2459SOL     OW 9150   1.381   0.218   3.470
 2459SOL    HW1 9151   1.328   0.203   3.391
 2459SOL    HW2 9152   1.348   0.154   3.533
 2460SOL     OW 9153   4.860   3.646   0.211
 2460SOL    HW1 9154   4.924   3.579   0.237
 2460SOL    HW2 9155   4.907   3.729   0.225
 2461SOL     OW 9156   9.613   4.558   1.700
 2461SOL    HW1 9157   9.646   4.634   1.748
 2461SOL    HW2 9158   9.576   4.500   1.768
 2462SOL     OW 9159  12.081   5.154  10.289
 2462SOL    HW1 9160  12.115   5.108  10.366
 2462SOL    HW2 9161  12.159   5.189  10.246
 2463SOL     OW 9162   4.968   3.586   1.844
 2463SOL    HW1 9163   5.052   3.579   1.890
 2463SOL    HW2 9164   4.914   3.517   1.883
 2464SOL     OW 9165  10.134   5.230   5.966
 2464SOL    HW1 9166  10.101   5.234   6.056
 2464SOL    HW2 9167  10.172   5.316   5.950
 2465SOL     OW 9168   5.640   4.085   0.712
 2465SOL    HW1 9169   5.631   4.174   0.746
 2465SOL    HW2 9170   5.654   4.030   0.789
 2466SOL     OW 9171   3.540   0.652  10.855
 2466SOL    HW1 9172   3.516   0.693  10.938
 2466SOL    HW2 9173   3.622   0.607  10.874
 2467SOL     OW 9174   1.244   6.040  12.350
 2467SOL    HW1 9175   1.299   6.008  12.279
 2467SOL    HW2 9176   1.255   5.975  12.420
 2468SOL     OW 9177   0.615   4.624   9.863
 2468SOL    HW1 9178   0.632   4.620   9.769
 2468SOL    HW2 9179   0.622   4.718   9.884
 2469SOL     OW 9180  11.818   2.489  12.848
 2469SOL    HW1 9181  11.824   2.480  12.943
 2469SOL    HW2 9182  11.826   2.399  12.816
 2470SOL     OW 9183   1.275  13.595  13.112
 2470SOL    HW1 9184   1.282  13.670  13.053
 2470SOL    HW2 9185   1.317  13.624  13.193
 2471SOL     OW 9186   9.855   7.126   4.796
 2471SOL    HW1 9187   9.901   7.068   4.857
 2471SOL    HW2 9188   9.895   7.212   4.811
 2472SOL     OW 9189  14.577   9.593  12.104
 2472SOL    HW1 9190  14.545   9.521  12.157
 2472SOL    HW2 9191  14.660   9.618  12.145
 2473SOL     OW 9192  12.539  10.601  12.039
 2473SOL    HW1 9193  12.595  10.526  12.061
 2473SOL    HW2 9194  12.485  10.613  12.117
 2474SOL     OW 9195   3.256  11.890   9.348
 2474SOL    HW1 9196   3.351  11.897   9.343
 2474SOL    HW2 9197   3.239  11.796   9.358
 2475SOL     OW 9198   1.403   7.463   4.649
 2475SOL    HW1 9199   1.339   7.529   4.621
 2475SOL    HW2 9200   1.468   7.513   4.700
 2476SOL     OW 9201   3.504   6.962  13.187
 2476SOL    HW1 9202   3.498   6.905  13.264
 2476SOL    HW2 9203   3.565   7.031  13.213
 2477SOL     OW 9204   9.763  12.033   5.677
 2477SOL    HW1 9205   9.672  12.023   5.649
 2477SOL    HW2 9206   9.784  11.951   5.722
 2478SOL     OW 9207   1.713  13.396  10.576
 2478SOL    HW1 9208   1.645  13.463  10.584
 2478SOL    HW2 9209   1.761  13.400  10.659
 2479SOL     OW 9210  13.680  10.561  10.136
 2479SOL    HW1 9211  13.759  10.565  10.190
 2479SOL    HW2 9212  13.622  10.501  10.183
 2480SOL     OW 9213   4.475  13.781   6.766
 2480SOL    HW1 9214   4.474  13.855   6.706
 2480SOL    HW2 9215   4.474  13.821   6.853
 2481SOL     OW 9216   2.775   2.621  11.365
 2481SOL    HW1 9217   2.738   2.697  11.411
 2481SOL    HW2 9218   2.826   2.575  11.432
 2482SOL     OW 9219  11.577   1.709   6.167
 2482SOL    HW1 9220  11.561   1.617   6.145
 2482SOL    HW2 9221  11.494   1.752   6.150
 2483SOL     OW 9222  13.938   6.284   2.052
 2483SOL    HW1 9223  14.004   6.329   2.105
 2483SOL    HW2 9224  13.983   6.262   1.970
 2484SOL     OW 9225   3.362  14.578   9.980
 2484SOL    HW1 9226   3.426  14.597  10.048
 2484SOL    HW2 9227   3.400  14.504   9.932
 2485SOL     OW 9228   9.989   9.715  13.574
 2485SOL    HW1 9229  10.041   9.640  13.602
 2485SOL    HW2 9230   9.955   9.691  13.488
 2486SOL     OW 9231   7.200   1.569   6.514
 2486SOL    HW1 9232   7.153   1.651   6.495
 2486SOL    HW2 9233   7.149   1.501   6.470
 2487SOL     OW 9234   0.377  13.949  14.099
 2487SOL    HW1 9235   0.408  13.907  14.179
 2487SOL    HW2 9236   0.339  13.878  14.047
 2488SOL     OW 9237   7.581   5.045   0.152
 2488SOL    HW1 9238   7.611   5.109   0.088
 2488SOL    HW2 9239   7.626   5.069   0.233
 2489SOL     OW 9240   3.721  14.017   4.805
 2489SOL    HW1 9241   3.706  13.934   4.761
 2489SOL    HW2 9242   3.645  14.029   4.862
 2490SOL     OW 9243  12.976  12.478  10.609
 2490SOL    HW1 9244  12.885  12.497  10.633
 2490SOL    HW2 9245  13.001  12.405  10.665
 2491SOL     OW 9246  13.132  12.752  13.399
 2491SOL    HW1 9247  13.049  12.798  13.385
 2491SOL    HW2 9248  13.108  12.660  13.407
 2492SOL     OW 9249  13.098  10.917  12.625
 2492SOL    HW1 9250  13.143  10.999  12.604
 2492SOL    HW2 9251  13.146  10.850  12.577
 2493SOL     OW 9252  11.307   9.098  10.484
 2493SOL    HW1 9253  11.234   9.096  10.422
 2493SOL    HW2 9254  11.265   9.091  10.570
 2494SOL     OW 9255  10.603   8.912   1.415
 2494SOL    HW1 9256  10.541   8.845   1.386
 2494SOL    HW2 9257  10.584   8.923   1.508
 2495SOL     OW 9258  13.200  12.056  12.901
 2495SOL    HW1 9259  13.231  12.004  12.976
 2495SOL    HW2 9260  13.166  12.136  12.940
 2496SOL     OW 9261   6.254   3.188  12.916
 2496SOL    HW1 9262   6.172   3.232  12.938
 2496SOL    HW2 9263   6.247   3.102  12.957
 2497SOL     OW 9264   1.540  14.712  14.749
 2497SOL    HW1 9265   1.551  14.654  14.825
 2497SOL    HW2 9266   1.490  14.659  14.686
 2498SOL     OW 9267   3.010   6.285   3.345
 2498SOL    HW1 9268   3.066   6.216   3.311
 2498SOL    HW2 9269   3.041   6.365   3.302
 2499SOL     OW 9270  14.000  11.586   3.528
 2499SOL    HW1 9271  14.044  11.625   3.604
 2499SOL    HW2 9272  13.924  11.642   3.513
 2500SOL     OW 9273   4.646   8.934  10.683
 2500SOL    HW1 9274   4.580   8.997  10.711
 2500SOL    HW2 9275   4.605   8.888  10.610
 2501SOL     OW 9276  12.637   2.377   2.052
 2501SOL    HW1 9277  12.621   2.290   2.018
 2501SOL    HW2 9278  12.682   2.362   2.136
 2502SOL     OW 9279   6.351   3.664   7.066
 2502SOL    HW1 9280   6.304   3.586   7.035
 2502SOL    HW2 9281   6.308   3.687   7.148
 2503SOL     OW 9282   2.866  11.375  11.513
 2503SOL    HW1 9283   2.775  11.404  11.515
 2503SOL    HW2 9284   2.916  11.453  11.534
 2504SOL     OW 9285   6.552   4.551   6.447
 2504SOL    HW1 9286   6.590   4.638   6.431
 2504SOL    HW2 9287   6.459   4.562   6.432
 2505SOL     OW 9288  13.228  12.459   9.879
 2505SOL    HW1 9289  13.208  12.546   9.914
 2505SOL    HW2 9290  13.262  12.476   9.791
 2506SOL     OW 9291   6.934  10.293  13.896
 2506SOL    HW1 9292   7.025  10.267  13.880
 2506SOL    HW2 9293   6.932  10.324  13.986
 2507SOL     OW 9294   0.231   3.670   4.031
 2507SOL    HW1 9295   0.167   3.639   4.096
 2507SOL    HW2 9296   0.209   3.622   3.951
 2508SOL     OW 9297   1.443  14.413  12.204
 2508SOL    HW1 9298   1.401  14.497  12.187
 2508SOL    HW2 9299   1.384  14.368  12.265
 2509SOL     OW 9300   0.404   5.649   0.499
 2509SOL    HW1 9301   0.480   5.599   0.468
 2509SOL    HW2 9302   0.338   5.637   0.430
 2510SOL     OW 9303  13.499   0.245   2.762
 2510SOL    HW1 9304  13.575   0.211   2.808
 2510SOL    HW2 9305  13.478   0.326   2.808
 2511SOL     OW 9306   1.676   9.387   2.766
 2511SOL    HW1 9307   1.595   9.408   2.812
 2511SOL    HW2 9308   1.733   9.349   2.832
 2512SOL     OW 9309  11.905   9.191   5.540
 2512SOL    HW1 9310  11.999   9.171   5.539
 2512SOL    HW2 9311  11.867   9.123   5.595
 2513SOL     OW 9312  11.533  12.981   9.549
 2513SOL    HW1 9313  11.586  12.961   9.471
 2513SOL    HW2 9314  11.478  13.055   9.521
 2514SOL     OW 9315   3.431  10.928   1.293
 2514SOL    HW1 9316   3.350  10.906   1.341
 2514SOL    HW2 9317   3.501  10.900   1.352
 2515SOL     OW 9318   4.756   4.363   0.269
 2515SOL    HW1 9319   4.757   4.408   0.353
 2515SOL    HW2 9320   4.749   4.433   0.204
 2516SOL     OW 9321   0.151   9.241   4.688
 2516SOL    HW1 9322   0.183   9.326   4.656
 2516SOL    HW2 9323   0.061   9.237   4.657
 2517SOL     OW 9324   0.144  13.027   1.018
 2517SOL    HW1 9325   0.176  12.982   0.940
 2517SOL    HW2 9326   0.187  13.113   1.016
 2518SOL     OW 9327  13.755  14.652   8.531
 2518SOL    HW1 9328  13.721  14.633   8.618
 2518SOL    HW2 9329  13.850  14.638   8.538
 2519SOL     OW 9330  10.541  14.518   1.606
 2519SOL    HW1 9331  10.609  14.571   1.565
 2519SOL    HW2 9332  10.461  14.540   1.558
 2520SOL     OW 9333   3.329   8.279   0.107
 2520SOL    HW1 9334   3.383   8.285   0.185
 2520SOL    HW2 9335   3.388   8.301   0.035
 2521SOL     OW 9336  10.942   4.669  12.583
 2521SOL    HW1 9337  11.014   4.714  12.538
 2521SOL    HW2 9338  10.864   4.694  12.534
 2522SOL     OW 9339   3.110  12.237   6.635
 2522SOL    HW1 9340   3.091  12.206   6.723
 2522SOL    HW2 9341   3.078  12.169   6.577
 2523SOL     OW 9342   2.519   2.047  12.391
 2523SOL    HW1 9343   2.574   2.072  12.465
 2523SOL    HW2 9344   2.580   2.008  12.328
 2524SOL     OW 9345   9.743   0.492   0.200
 2524SOL    HW1 9346   9.744   0.410   0.250
 2524SOL    HW2 9347   9.739   0.560   0.267
 2525SOL     OW 9348  12.151  10.680   0.762
 2525SOL    HW1 9349  12.137  10.682   0.667
 2525SOL    HW2 9350  12.219  10.613   0.774
 2526SOL     OW 9351   1.301   0.211   2.738
 2526SOL    HW1 9352   1.356   0.171   2.671
 2526SOL    HW2 9353   1.220   0.234   2.692
 2527SOL     OW 9354   9.897   7.155   8.373
 2527SOL    HW1 9355   9.813   7.112   8.390
 2527SOL    HW2 9356   9.936   7.169   8.460
 2528SOL     OW 9357   5.596   8.279   9.425
 2528SOL    HW1 9358   5.532   8.340   9.462
 2528SOL    HW2 9359   5.632   8.325   9.349
 2529SOL     OW 9360   1.704   1.902   1.998
 2529SOL    HW1 9361   1.642   1.864   2.061
 2529SOL    HW2 9362   1.676   1.992   1.988
 2530SOL     OW 9363   7.438   9.542   5.476
 2530SOL    HW1 9364   7.489   9.515   5.553
 2530SOL    HW2 9365   7.384   9.465   5.455
 2531SOL     OW 9366   5.847   8.241  10.519
 2531SOL    HW1 9367   5.907   8.312  10.498
 2531SOL    HW2 9368   5.761   8.283  10.526
 2532SOL     OW 9369   1.409   1.118   7.491
 2532SOL    HW1 9370   1.424   1.046   7.430
 2532SOL    HW2 9371   1.393   1.074   7.575
 2533SOL     OW 9372   0.098   4.789   2.907
 2533SOL    HW1 9373   0.163   4.768   2.840
 2533SOL    HW2 9374   0.085   4.884   2.899
 2534SOL     OW 9375   9.106  13.982  11.272
 2534SOL    HW1 9376   9.074  14.072  11.275
 2534SOL    HW2 9377   9.074  13.948  11.188
 2535SOL     OW 9378   9.540  12.008   0.921
 2535SOL    HW1 9379   9.538  12.020   1.016
 2535SOL    HW2 9380   9.614  11.950   0.905
 2536SOL     OW 9381  11.757  13.888   8.308
 2536SOL    HW1 9382  11.835  13.922   8.265
 2536SOL    HW2 9383  11.765  13.793   8.300
 2537SOL     OW 9384   9.379   6.508  13.319
 2537SOL    HW1 9385   9.343   6.419  13.322
 2537SOL    HW2 9386   9.335   6.555  13.390
 2538SOL     OW 9387   0.905   2.428  13.803
 2538SOL    HW1 9388   0.993   2.425  13.765
 2538SOL    HW2 9389   0.918   2.460  13.892
 2539SOL     OW 9390   7.977   9.148   7.069
 2539SOL    HW1 9391   8.006   9.123   7.156
 2539SOL    HW2 9392   7.944   9.067   7.030
 2540SOL     OW 9393   6.498   6.671   9.484
 2540SOL    HW1 9394   6.446   6.694   9.406
 2540SOL    HW2 9395   6.585   6.705   9.465
 2541SOL     OW 9396   9.097   1.942   4.107
 2541SOL    HW1 9397   9.171   1.916   4.052
 2541SOL    HW2 9398   9.108   1.891   4.187
 2542SOL     OW 9399   9.045   7.420  14.207
 2542SOL    HW1 9400   9.113   7.389  14.148
 2542SOL    HW2 9401   9.001   7.490  14.159
 2543SOL     OW 9402   3.122   1.789  10.022
 2543SOL    HW1 9403   3.136   1.790  10.116
 2543SOL    HW2 9404   3.206   1.761   9.986
 2544SOL     OW 9405   3.937   7.446   8.047
 2544SOL    HW1 9406   3.896   7.393   7.978
 2544SOL    HW2 9407   3.971   7.522   8.001
 2545SOL     OW 9408  14.023   8.446  13.565
 2545SOL    HW1 9409  14.005   8.537  13.541
 2545SOL    HW2 9410  14.086   8.416  13.500
 2546SOL     OW 9411   0.002   8.326   5.005
 2546SOL    HW1 9412   0.090   8.349   5.035
 2546SOL    HW2 9413  14.860   8.390   4.937
 2547SOL     OW 9414  13.058   7.871  10.675
 2547SOL    HW1 9415  13.064   7.779  10.649
 2547SOL    HW2 9416  12.986   7.907  10.624
 2548SOL     OW 9417   4.430   0.586  11.830
 2548SOL    HW1 9418   4.440   0.672  11.790
 2548SOL    HW2 9419   4.433   0.524  11.757
 2549SOL     OW 9420   2.781   9.572   5.811
 2549SOL    HW1 9421   2.755   9.634   5.879
 2549SOL    HW2 9422   2.875   9.559   5.826
 2550SOL     OW 9423  13.939   8.624   4.399
 2550SOL    HW1 9424  13.951   8.603   4.492
 2550SOL    HW2 9425  13.929   8.719   4.397
 2551SOL     OW 9426  13.618   6.667  12.824
 2551SOL    HW1 9427  13.544   6.609  12.839
 2551SOL    HW2 9428  13.690   6.608  12.801
 2552SOL     OW 9429   6.472   9.738   1.884
 2552SOL    HW1 9430   6.424   9.820   1.881
 2552SOL    HW2 9431   6.484   9.713   1.792
 2553SOL     OW 9432   2.998   4.879  13.262
 2553SOL    HW1 9433   3.070   4.911  13.317
 2553SOL    HW2 9434   3.041   4.851  13.181
 2554SOL     OW 9435  11.157  12.104   7.717
 2554SOL    HW1 9436  11.111  12.030   7.676
 2554SOL    HW2 9437  11.158  12.083   7.810
 2555SOL     OW 9438   2.314   7.983   3.228
 2555SOL    HW1 9439   2.327   8.070   3.266
 2555SOL    HW2 9440   2.221   7.980   3.205
 2556SOL     OW 9441   2.448   4.128   8.859
 2556SOL    HW1 9442   2.443   4.217   8.892
 2556SOL    HW2 9443   2.506   4.083   8.921
 2557SOL     OW 9444   6.592   3.065   7.379
 2557SOL    HW1 9445   6.507   3.044   7.416
 2557SOL    HW2 9446   6.613   3.151   7.416
 2558SOL     OW 9447   5.242  14.503   3.211
 2558SOL    HW1 9448   5.258  14.596   3.227
 2558SOL    HW2 9449   5.323  14.472   3.170
 2559SOL     OW 9450   9.072   9.934  13.305
 2559SOL    HW1 9451   9.098   9.943  13.397
 2559SOL    HW2 9452   9.033  10.018  13.283
 2560SOL     OW 9453  14.627   2.773   6.839
 2560SOL    HW1 9454  14.570   2.811   6.772
 2560SOL    HW2 9455  14.580   2.784   6.921
 2561SOL     OW 9456   1.824   2.869   4.125
 2561SOL    HW1 9457   1.768   2.792   4.122
 2561SOL    HW2 9458   1.834   2.888   4.219
 2562SOL     OW 9459  14.775  11.432  10.315
 2562SOL    HW1 9460  14.728  11.417  10.397
 2562SOL    HW2 9461  14.814  11.519  10.326
 2563SOL     OW 9462  12.942  10.076  10.315
 2563SOL    HW1 9463  12.933  10.098  10.408
 2563SOL    HW2 9464  13.022  10.120  10.287
 2564SOL     OW 9465   5.279   8.246   9.933
 2564SOL    HW1 9466   5.273   8.335   9.970
 2564SOL    HW2 9467   5.348   8.204   9.985
 2565SOL     OW 9468   4.339  12.160   3.079
 2565SOL    HW1 9469   4.349  12.118   3.164
 2565SOL    HW2 9470   4.351  12.254   3.096
 2566SOL     OW 9471  13.389  13.106   1.051
 2566SOL    HW1 9472  13.381  13.160   1.129
 2566SOL    HW2 9473  13.437  13.161   0.989
 2567SOL     OW 9474   6.959   4.359  12.679
 2567SOL    HW1 9475   6.905   4.383  12.604
 2567SOL    HW2 9476   7.043   4.402  12.663
 2568SOL     OW 9477   8.672  12.670   6.838
 2568SOL    HW1 9478   8.579  12.665   6.861
 2568SOL    HW2 9479   8.718  12.645   6.918
 2569SOL     OW 9480   4.700  13.575   1.490
 2569SOL    HW1 9481   4.756  13.629   1.547
 2569SOL    HW2 9482   4.702  13.488   1.531
 2570SOL     OW 9483   1.216   0.004  12.363
 2570SOL    HW1 9484   1.158  14.817  12.324
 2570SOL    HW2 9485   1.297  14.834  12.382
 2571SOL     OW 9486  14.859   4.281  11.522
 2571SOL    HW1 9487  14.778   4.231  11.535
 2571SOL    HW2 9488  14.830   4.372  11.524
 2572SOL     OW 9489   1.251   6.389  12.521
 2572SOL    HW1 9490   1.187   6.321  12.502
 2572SOL    HW2 9491   1.206   6.471  12.499
 2573SOL     OW 9492  13.021   7.300   7.267
 2573SOL    HW1 9493  13.060   7.222   7.307
 2573SOL    HW2 9494  13.086   7.329   7.203
 2574SOL     OW 9495   0.430   4.847   8.821
 2574SOL    HW1 9496   0.451   4.941   8.819
 2574SOL    HW2 9497   0.337   4.843   8.802
 2575SOL     OW 9498  14.004  14.120   7.654
 2575SOL    HW1 9499  13.931  14.174   7.621
 2575SOL    HW2 9500  14.029  14.066   7.579
 2576SOL     OW 9501   0.886  13.704  13.901
 2576SOL    HW1 9502   0.981  13.705  13.889
 2576SOL    HW2 9503   0.851  13.726  13.815
 2577SOL     OW 9504   2.119   4.994  10.760
 2577SOL    HW1 9505   2.036   4.974  10.717
 2577SOL    HW2 9506   2.121   4.935  10.836
 2578SOL     OW 9507  10.908   8.060   0.796
 2578SOL    HW1 9508  10.980   8.000   0.816
 2578SOL    HW2 9509  10.952   8.143   0.778
 2579SOL     OW 9510   4.903  14.789   8.859
 2579SOL    HW1 9511   4.953  14.715   8.893
 2579SOL    HW2 9512   4.813  14.773   8.889
 2580SOL     OW 9513  10.235   4.066   3.504
 2580SOL    HW1 9514  10.156   4.087   3.554
 2580SOL    HW2 9515  10.304   4.117   3.545
 2581SOL     OW 9516   3.785   2.620  12.184
 2581SOL    HW1 9517   3.827   2.612  12.098
 2581SOL    HW2 9518   3.701   2.574  12.174
 2582SOL     OW 9519   1.183  13.364  13.059
 2582SOL    HW1 9520   1.237  13.443  13.070
 2582SOL    HW2 9521   1.247  13.294  13.045
 2583SOL     OW 9522  11.476   6.426   4.920
 2583SOL    HW1 9523  11.425   6.402   4.843
 2583SOL    HW2 9524  11.457   6.519   4.934
 2584SOL     OW 9525  11.964   2.798   4.935
 2584SOL    HW1 9526  12.049   2.755   4.942
 2584SOL    HW2 9527  11.966   2.843   4.851
 2585SOL     OW 9528   8.673  14.538  11.061
 2585SOL    HW1 9529   8.612  14.597  11.016
 2585SOL    HW2 9530   8.751  14.537  11.006
 2586SOL     OW 9531   4.372  14.850  14.067
 2586SOL    HW1 9532   4.446   0.029  14.090
 2586SOL    HW2 9533   4.295   0.028  14.078
 2587SOL     OW 9534   5.900   1.956  11.274
 2587SOL    HW1 9535   5.898   2.052  11.277
 2587SOL    HW2 9536   5.926   1.931  11.363
 2588SOL     OW 9537   3.755  13.424   0.179
 2588SOL    HW1 9538   3.840  13.437   0.219
 2588SOL    HW2 9539   3.728  13.512   0.151
 2589SOL     OW 9540   6.383   5.785  10.381
 2589SOL    HW1 9541   6.476   5.800  10.367
 2589SOL    HW2 9542   6.350   5.762  10.294
 2590SOL     OW 9543  10.838  11.857  14.340
 2590SOL    HW1 9544  10.764  11.804  14.310
 2590SOL    HW2 9545  10.888  11.798  14.397
 2591SOL     OW 9546  14.778  12.155  14.400
 2591SOL    HW1 9547  14.788  12.233  14.455
 2591SOL    HW2 9548  14.770  12.189  14.311
 2592SOL     OW 9549  14.845  10.672  12.660
 2592SOL    HW1 9550  14.806  10.757  12.640
 2592SOL    HW2 9551   0.036  10.691  12.723
 2593SOL     OW 9552   4.576   2.644   8.049
 2593SOL    HW1 9553   4.538   2.556   8.045
 2593SOL    HW2 9554   4.504   2.700   8.079
 2594SOL     OW 9555   1.382   2.259  11.514
 2594SOL    HW1 9556   1.475   2.273  11.497
 2594SOL    HW2 9557   1.352   2.340  11.555
 2595SOL     OW 9558   1.746  10.693  13.954
 2595SOL    HW1 9559   1.793  10.745  14.019
 2595SOL    HW2 9560   1.792  10.610  13.952
 2596SOL     OW 9561   0.854  14.525   5.836
 2596SOL    HW1 9562   0.899  14.441   5.831
 2596SOL    HW2 9563   0.763  14.503   5.857
 2597SOL     OW 9564   4.468   6.419   6.009
 2597SOL    HW1 9565   4.500   6.506   5.984
 2597SOL    HW2 9566   4.496   6.361   5.938
 2598SOL     OW 9567   7.847  13.650   9.779
 2598SOL    HW1 9568   7.824  13.625   9.869
 2598SOL    HW2 9569   7.821  13.575   9.726
 2599SOL     OW 9570   6.417  13.752   7.270
 2599SOL    HW1 9571   6.346  13.717   7.324
 2599SOL    HW2 9572   6.425  13.692   7.197
 2600SOL     OW 9573   9.544   0.400   2.086
 2600SOL    HW1 9574   9.573   0.431   2.001
 2600SOL    HW2 9575   9.527   0.307   2.075
 2601SOL     OW 9576  13.232   5.443   5.646
 2601SOL    HW1 9577  13.146   5.472   5.678
 2601SOL    HW2 9578  13.292   5.463   5.717
 2602SOL     OW 9579  12.335   1.111   7.352
 2602SOL    HW1 9580  12.303   1.068   7.431
 2602SOL    HW2 9581  12.384   1.187   7.385
 2603SOL     OW 9582   6.386   0.915  14.063
 2603SOL    HW1 9583   6.422   0.975  14.128
 2603SOL    HW2 9584   6.292   0.926  14.070
 2604SOL     OW 9585   2.750   7.740   1.762
 2604SOL    HW1 9586   2.824   7.726   1.702
 2604SOL    HW2 9587   2.678   7.767   1.705
 2605SOL     OW 9588   5.011   7.922  13.910
 2605SOL    HW1 9589   5.044   7.903  13.998
 2605SOL    HW2 9590   5.079   7.977  13.871
 2606SOL     OW 9591  10.887  14.341  12.347
 2606SOL    HW1 9592  10.931  14.269  12.392
 2606SOL    HW2 9593  10.957  14.386  12.299
 2607SOL     OW 9594   0.489   5.176   2.289
 2607SOL    HW1 9595   0.497   5.110   2.358
 2607SOL    HW2 9596   0.403   5.159   2.250
 2608SOL     OW 9597   7.635  13.141   9.585
 2608SOL    HW1 9598   7.568  13.207   9.566
 2608SOL    HW2 9599   7.635  13.084   9.508
 2609SOL     OW 9600  11.281   5.518  13.935
 2609SOL    HW1 9601  11.228   5.478  14.004
 2609SOL    HW2 9602  11.349   5.566  13.982
 2610SOL     OW 9603   4.575   8.598   9.028
 2610SOL    HW1 9604   4.628   8.548   9.090
 2610SOL    HW2 9605   4.558   8.537   8.956
 2611SOL     OW 9606   0.486   1.355   8.648
 2611SOL    HW1 9607   0.458   1.303   8.723
 2611SOL    HW2 9608   0.572   1.320   8.625
 2612SOL     OW 9609   8.811  13.649   5.321
 2612SOL    HW1 9610   8.737  13.693   5.364
 2612SOL    HW2 9611   8.872  13.720   5.299
 2613SOL     OW 9612   8.417   1.783   4.531
 2613SOL    HW1 9613   8.325   1.809   4.544
 2613SOL    HW2 9614   8.449   1.763   4.619
 2614SOL     OW 9615  14.657  14.258   1.832
 2614SOL    HW1 9616  14.719  14.315   1.879
 2614SOL    HW2 9617  14.697  14.171   1.837
 2615SOL     OW 9618   2.306   9.509  11.186
 2615SOL    HW1 9619   2.278   9.458  11.110
 2615SOL    HW2 9620   2.401   9.498  11.189
 2616SOL     OW 9621   8.402  10.005   6.291
 2616SOL    HW1 9622   8.404   9.910   6.280
 2616SOL    HW2 9623   8.494  10.030   6.296
 2617SOL     OW 9624   5.461   4.070   5.407
 2617SOL    HW1 9625   5.554   4.060   5.429
 2617SOL    HW2 9626   5.444   4.164   5.418
 2618SOL     OW 9627   2.662   9.231   0.671
 2618SOL    HW1 9628   2.754   9.235   0.697
 2618SOL    HW2 9629   2.632   9.146   0.702
 2619SOL     OW 9630   0.793   9.553   5.535
 2619SOL    HW1 9631   0.814   9.637   5.494
 2619SOL    HW2 9632   0.763   9.577   5.623
 2620SOL     OW 9633  12.675   2.730   4.712
 2620SOL    HW1 9634  12.581   2.730   4.694
 2620SOL    HW2 9635  12.686   2.793   4.784
 2621SOL     OW 9636   2.649   2.340  10.606
 2621SOL    HW1 9637   2.676   2.260  10.563
 2621SOL    HW2 9638   2.568   2.365  10.561
 2622SOL     OW 9639   1.488   3.369  11.450
 2622SOL    HW1 9640   1.425   3.309  11.411
 2622SOL    HW2 9641   1.493   3.443  11.389
 2623SOL     OW 9642   4.340  14.649   6.734
 2623SOL    HW1 9643   4.263  14.602   6.700
 2623SOL    HW2 9644   4.304  14.720   6.786
 2624SOL     OW 9645   9.625   3.942   1.755
 2624SOL    HW1 9646   9.719   3.927   1.746
 2624SOL    HW2 9647   9.609   4.026   1.710
 2625SOL     OW 9648   1.593  11.243  10.920
 2625SOL    HW1 9649   1.678  11.240  10.963
 2625SOL    HW2 9650   1.550  11.161  10.945
 2626SOL     OW 9651   9.974   2.479   3.306
 2626SOL    HW1 9652   9.899   2.511   3.257
 2626SOL    HW2 9653   9.960   2.384   3.313
 2627SOL     OW 9654   8.330  11.925  12.666
 2627SOL    HW1 9655   8.390  11.937  12.592
 2627SOL    HW2 9656   8.321  12.013  12.704
 2628SOL     OW 9657  11.088   8.120   4.195
 2628SOL    HW1 9658  11.174   8.104   4.234
 2628SOL    HW2 9659  11.081   8.215   4.190
 2629SOL     OW 9660   7.476   2.263  10.787
 2629SOL    HW1 9661   7.484   2.274  10.882
 2629SOL    HW2 9662   7.412   2.193  10.776
 2630SOL     OW 9663   0.718  13.457   3.462
 2630SOL    HW1 9664   0.641  13.476   3.408
 2630SOL    HW2 9665   0.789  13.449   3.399
 2631SOL     OW 9666   5.579  13.245  13.255
 2631SOL    HW1 9667   5.674  13.236  13.258
 2631SOL    HW2 9668   5.564  13.314  13.189
 2632SOL     OW 9669  11.129   7.952   2.609
 2632SOL    HW1 9670  11.055   8.011   2.623
 2632SOL    HW2 9671  11.163   7.977   2.523
 2633SOL     OW 9672   8.032   1.639   2.733
 2633SOL    HW1 9673   8.005   1.629   2.641
 2633SOL    HW2 9674   8.067   1.553   2.757
 2634SOL     OW 9675   9.220   1.317   8.628
 2634SOL    HW1 9676   9.187   1.364   8.704
 2634SOL    HW2 9677   9.305   1.358   8.609
 2635SOL     OW 9678   7.651   4.285   2.359
 2635SOL    HW1 9679   7.669   4.280   2.265
 2635SOL    HW2 9680   7.621   4.197   2.382
 2636SOL     OW 9681  10.789   8.510   5.644
 2636SOL    HW1 9682  10.700   8.503   5.677
 2636SOL    HW2 9683  10.781   8.559   5.563
 2637SOL     OW 9684   0.569   9.602   8.930
 2637SOL    HW1 9685   0.587   9.690   8.896
 2637SOL    HW2 9686   0.579   9.545   8.854
 2638SOL     OW 9687  10.863   6.512   4.159
 2638SOL    HW1 9688  10.824   6.446   4.216
 2638SOL    HW2 9689  10.900   6.462   4.086
 2639SOL     OW 9690   5.530   8.260   2.138
 2639SOL    HW1 9691   5.578   8.192   2.186
 2639SOL    HW2 9692   5.443   8.261   2.178
 2640SOL     OW 9693   7.405  10.794   1.320
 2640SOL    HW1 9694   7.460  10.749   1.256
 2640SOL    HW2 9695   7.453  10.786   1.402
 2641SOL     OW 9696   2.065   0.566   3.282
 2641SOL    HW1 9697   2.143   0.520   3.312
 2641SOL    HW2 9698   1.996   0.499   3.283
 2642SOL     OW 9699   3.521   2.962   5.598
 2642SOL    HW1 9700   3.467   3.040   5.584
 2642SOL    HW2 9701   3.489   2.925   5.680
 2643SOL     OW 9702   9.346   9.832  13.896
 2643SOL    HW1 9703   9.264   9.870  13.925
 2643SOL    HW2 9704   9.378   9.892  13.828
 2644SOL     OW 9705  10.290  11.555  12.678
 2644SOL    HW1 9706  10.260  11.477  12.631
 2644SOL    HW2 9707  10.382  11.563  12.654
 2645SOL     OW 9708  10.687   5.930   9.298
 2645SOL    HW1 9709  10.775   5.895   9.282
 2645SOL    HW2 9710  10.645   5.865   9.354
 2646SOL     OW 9711   8.437   8.566  12.970
 2646SOL    HW1 9712   8.464   8.656  12.987
 2646SOL    HW2 9713   8.467   8.549  12.880
 2647SOL     OW 9714   6.201  10.287   4.636
 2647SOL    HW1 9715   6.244  10.236   4.705
 2647SOL    HW2 9716   6.260  10.279   4.561
 2648SOL     OW 9717  10.394  12.125   2.728
 2648SOL    HW1 9718  10.363  12.167   2.808
 2648SOL    HW2 9719  10.340  12.164   2.659
 2649SOL     OW 9720   1.835   4.978   7.340
 2649SOL    HW1 9721   1.795   4.968   7.253
 2649SOL    HW2 9722   1.903   4.911   7.344
 2650SOL     OW 9723  12.897  11.679   7.819
 2650SOL    HW1 9724  12.954  11.626   7.763
 2650SOL    HW2 9725  12.951  11.699   7.895
 2651SOL     OW 9726  14.810   0.326  11.321
 2651SOL    HW1 9727  14.816   0.250  11.379
 2651SOL    HW2 9728   0.010   0.320  11.265
 2652SOL     OW 9729   6.968   0.381   0.682
 2652SOL    HW1 9730   7.041   0.401   0.741
 2652SOL    HW2 9731   6.893   0.426   0.720
 2653SOL     OW 9732   0.065   2.632   4.701
 2653SOL    HW1 9733   0.147   2.584   4.714
 2653SOL    HW2 9734   0.042   2.615   4.610
 2654SOL     OW 9735   4.102  11.514  12.339
 2654SOL    HW1 9736   4.014  11.549  12.323
 2654SOL    HW2 9737   4.109  11.439  12.280
 2655SOL     OW 9738   6.498   2.581  14.839
 2655SOL    HW1 9739   6.412   2.554  14.874
 2655SOL    HW2 9740   6.496   2.554  14.747
 2656SOL     OW 9741   0.793  13.952  14.850
 2656SOL    HW1 9742   0.827  13.982   0.057
 2656SOL    HW2 9743   0.699  13.969  14.855
 2657SOL     OW 9744   8.988   9.007  11.185
 2657SOL    HW1 9745   9.060   8.947  11.167
 2657SOL    HW2 9746   8.992   9.071  11.114
 2658SOL     OW 9747   0.671   6.902  10.710
 2658SOL    HW1 9748   0.607   6.854  10.762
 2658SOL    HW2 9749   0.684   6.984  10.757
 2659SOL     OW 9750   1.167   7.248  12.834
 2659SOL    HW1 9751   1.126   7.307  12.770
 2659SOL    HW2 9752   1.261   7.262  12.823
 2660SOL     OW 9753   2.717   8.067   9.719
 2660SOL    HW1 9754   2.650   8.020   9.768
 2660SOL    HW2 9755   2.768   8.113   9.786
 2661SOL     OW 9756  10.205   9.623  11.239
 2661SOL    HW1 9757  10.163   9.554  11.188
 2661SOL    HW2 9758  10.265   9.576  11.298
 2662SOL     OW 9759  12.341   2.686   8.332
 2662SOL    HW1 9760  12.304   2.644   8.254
 2662SOL    HW2 9761  12.407   2.746   8.297
 2663SOL     OW 9762   5.212   9.591  12.320
 2663SOL    HW1 9763   5.281   9.570  12.257
 2663SOL    HW2 9764   5.232   9.681  12.348
 2664SOL     OW 9765  12.231   7.061   1.915
 2664SOL    HW1 9766  12.172   7.115   1.967
 2664SOL    HW2 9767  12.277   7.124   1.859
 2665SOL     OW 9768  14.043  14.557   4.721
 2665SOL    HW1 9769  13.980  14.537   4.790
 2665SOL    HW2 9770  14.109  14.488   4.727
 2666SOL     OW 9771  13.223   9.766   3.437
 2666SOL    HW1 9772  13.297   9.712   3.409
 2666SOL    HW2 9773  13.179   9.713   3.503
 2667SOL     OW 9774   2.740   1.931   6.337
 2667SOL    HW1 9775   2.671   1.993   6.360
 2667SOL    HW2 9776   2.740   1.868   6.409
 2668SOL     OW 9777   1.134  14.746   4.766
 2668SOL    HW1 9778   1.086  14.773   4.688
 2668SOL    HW2 9779   1.079  14.677   4.805
 2669SOL     OW 9780  13.421   3.296  11.531
 2669SOL    HW1 9781  13.475   3.368  11.499
 2669SOL    HW2 9782  13.460   3.272  11.615
 2670SOL     OW 9783  10.887  10.357   5.774
 2670SOL    HW1 9784  10.945  10.328   5.845
 2670SOL    HW2 9785  10.850  10.276   5.740
 2671SOL     OW 9786   0.081   1.931   9.741
 2671SOL    HW1 9787   0.006   1.894   9.696
 2671SOL    HW2 9788   0.157   1.903   9.690
 2672SOL     OW 9789  14.731   4.817   5.520
 2672SOL    HW1 9790  14.769   4.878   5.584
 2672SOL    HW2 9791  14.791   4.821   5.445
 2673SOL     OW 9792   0.249  12.746   4.730
 2673SOL    HW1 9793   0.176  12.799   4.696
 2673SOL    HW2 9794   0.242  12.663   4.683
 2674SOL     OW 9795   6.254   4.364   5.857
 2674SOL    HW1 9796   6.160   4.381   5.855
 2674SOL    HW2 9797   6.293   4.449   5.878
 2675SOL     OW 9798  14.321   8.224   0.706
 2675SOL    HW1 9799  14.407   8.194   0.735
 2675SOL    HW2 9800  14.312   8.188   0.618
 2676SOL     OW 9801   2.736   0.278  14.588
 2676SOL    HW1 9802   2.769   0.270  14.498
 2676SOL    HW2 9803   2.697   0.192  14.607
 2677SOL     OW 9804   6.678   5.089   6.356
 2677SOL    HW1 9805   6.727   5.008   6.372
 2677SOL    HW2 9806   6.731   5.136   6.292
 2678SOL     OW 9807  14.867   1.313   8.554
 2678SOL    HW1 9808  14.803   1.309   8.625
 2678SOL    HW2 9809   0.074   1.301   8.598
 2679SOL     OW 9810  14.237   2.669   6.695
 2679SOL    HW1 9811  14.306   2.690   6.758
 2679SOL    HW2 9812  14.214   2.753   6.655
 2680SOL     OW 9813   6.280   6.958  12.059
 2680SOL    HW1 9814   6.345   6.942  12.128
 2680SOL    HW2 9815   6.313   6.910  11.983
 2681SOL     OW 9816  10.727  14.138  12.934
 2681SOL    HW1 9817  10.788  14.074  12.897
 2681SOL    HW2 9818  10.715  14.110  13.025
 2682SOL     OW 9819   6.597  12.874   4.953
 2682SOL    HW1 9820   6.677  12.914   4.987
 2682SOL    HW2 9821   6.564  12.821   5.026
 2683SOL     OW 9822   7.936   8.691  14.681
 2683SOL    HW1 9823   7.994   8.766  14.667
 2683SOL    HW2 9824   7.889   8.682  14.598
 2684SOL     OW 9825   4.290   1.858  14.151
 2684SOL    HW1 9826   4.337   1.885  14.230
 2684SOL    HW2 9827   4.202   1.837  14.181
 2685SOL     OW 9828   1.103   2.351  14.252
 2685SOL    HW1 9829   1.114   2.372  14.345
 2685SOL    HW2 9830   1.186   2.375  14.212
 2686SOL     OW 9831   0.910   7.770   1.853
 2686SOL    HW1 9832   0.823   7.730   1.847
 2686SOL    HW2 9833   0.970   7.702   1.824
 2687SOL     OW 9834   1.870  14.052   1.846
 2687SOL    HW1 9835   1.808  14.033   1.776
 2687SOL    HW2 9836   1.885  14.146   1.840
 2688SOL     OW 9837   8.061   1.624   1.407
 2688SOL    HW1 9838   8.137   1.586   1.364
 2688SOL    HW2 9839   8.058   1.714   1.375
 2689SOL     OW 9840   9.654   5.304  11.847
 2689SOL    HW1 9841   9.704   5.303  11.929
 2689SOL    HW2 9842   9.681   5.223  11.803
 2690SOL     OW 9843  14.274   2.160  13.224
 2690SOL    HW1 9844  14.300   2.214  13.150
 2690SOL    HW2 9845  14.182   2.183  13.240
 2691SOL     OW 9846   9.703   8.362  13.220
 2691SOL    HW1 9847   9.739   8.369  13.308
 2691SOL    HW2 9848   9.636   8.294  13.227
 2692SOL     OW 9849  11.534   8.787  12.266
 2692SOL    HW1 9850  11.535   8.694  12.242
 2692SOL    HW2 9851  11.443   8.813  12.257
 2693SOL     OW 9852  11.745   2.728  12.978
 2693SOL    HW1 9853  11.760   2.668  12.904
 2693SOL    HW2 9854  11.654   2.714  13.002
 2694SOL     OW 9855   3.337   7.029   4.941
 2694SOL    HW1 9856   3.334   6.954   4.882
 2694SOL    HW2 9857   3.372   7.100   4.887
 2695SOL     OW 9858  14.041   4.933   4.298
 2695SOL    HW1 9859  13.977   4.990   4.256
 2695SOL    HW2 9860  14.064   4.869   4.230
 2696SOL     OW 9861   3.404  13.639  14.782
 2696SOL    HW1 9862   3.399  13.644  14.686
 2696SOL    HW2 9863   3.492  13.668  14.803
 2697SOL     OW 9864   3.421   7.645   4.521
 2697SOL    HW1 9865   3.426   7.677   4.611
 2697SOL    HW2 9866   3.478   7.568   4.520
 2698SOL     OW 9867   2.020  13.896  11.007
 2698SOL    HW1 9868   2.110  13.909  10.978
 2698SOL    HW2 9869   1.971  13.878  10.927
 2699SOL     OW 9870   7.314   9.471   2.485
 2699SOL    HW1 9871   7.241   9.428   2.441
 2699SOL    HW2 9872   7.390   9.416   2.468
 2700SOL     OW 9873   4.805   4.263  11.266
 2700SOL    HW1 9874   4.822   4.251  11.359
 2700SOL    HW2 9875   4.746   4.192  11.243
 2701SOL     OW 9876   2.393  10.263   8.804
 2701SOL    HW1 9877   2.336  10.190   8.778
 2701SOL    HW2 9878   2.477  10.222   8.824
 2702SOL     OW 9879   7.238   6.117   5.217
 2702SOL    HW1 9880   7.158   6.152   5.177
 2702SOL    HW2 9881   7.252   6.172   5.294
 2703SOL     OW 9882   2.326  13.094   8.869
 2703SOL    HW1 9883   2.247  13.059   8.828
 2703SOL    HW2 9884   2.294  13.145   8.943
 2704SOL     OW 9885   7.310   7.624   7.943
 2704SOL    HW1 9886   7.348   7.662   7.864
 2704SOL    HW2 9887   7.217   7.647   7.940
 2705SOL     OW 9888   6.527   0.146   5.096
 2705SOL    HW1 9889   6.533   0.055   5.068
 2705SOL    HW2 9890   6.530   0.142   5.192
 2706SOL     OW 9891  12.638  12.040   1.045
 2706SOL    HW1 9892  12.684  11.978   1.103
 2706SOL    HW2 9893  12.591  11.984   0.984
 2707SOL     OW 9894   0.268  13.722  10.433
 2707SOL    HW1 9895   0.284  13.785  10.364
 2707SOL    HW2 9896   0.265  13.637  10.389
 2708SOL     OW 9897   0.402   0.919   0.637
 2708SOL    HW1 9898   0.329   0.888   0.584
 2708SOL    HW2 9899   0.367   0.997   0.682
 2709SOL     OW 9900  13.456   3.199  12.966
 2709SOL    HW1 9901  13.511   3.129  12.930
 2709SOL    HW2 9902  13.366   3.165  12.959
 2710SOL     OW 9903   3.836   2.354  10.354
 2710SOL    HW1 9904   3.828   2.397  10.269
 2710SOL    HW2 9905   3.884   2.416  10.408
 2711SOL     OW 9906   9.097   3.130   5.182
 2711SOL    HW1 9907   9.064   3.101   5.097
 2711SOL    HW2 9908   9.187   3.098   5.184
 2712SOL     OW 9909  13.049   1.008  13.269
 2712SOL    HW1 9910  13.075   1.095  13.300
 2712SOL    HW2 9911  12.977   0.983  13.326
 2713SOL     OW 9912   8.750   6.349   6.785
 2713SOL    HW1 9913   8.728   6.285   6.852
 2713SOL    HW2 9914   8.761   6.297   6.705
 2714SOL     OW 9915  12.594   2.042   1.349
 2714SOL    HW1 9916  12.676   2.069   1.307
 2714SOL    HW2 9917  12.589   2.095   1.428
 2715SOL     OW 9918   5.386   7.176  14.634
 2715SOL    HW1 9919   5.315   7.172  14.698
 2715SOL    HW2 9920   5.441   7.249  14.665
 2716SOL     OW 9921   2.662   3.149   4.069
 2716SOL    HW1 9922   2.642   3.159   4.162
 2716SOL    HW2 9923   2.737   3.090   4.067
 2717SOL     OW 9924  12.066   5.279   4.179
 2717SOL    HW1 9925  12.038   5.214   4.114
 2717SOL    HW2 9926  12.089   5.227   4.256
 2718SOL     OW 9927  10.174  13.231   4.192
 2718SOL    HW1 9928  10.088  13.265   4.215
 2718SOL    HW2 9929  10.229  13.253   4.267
 2719SOL     OW 9930   3.445  14.502  10.925
 2719SOL    HW1 9931   3.410  14.547  11.002
 2719SOL    HW2 9932   3.537  14.529  10.922
 2720SOL     OW 9933   5.613   6.527   7.716
 2720SOL    HW1 9934   5.626   6.610   7.761
 2720SOL    HW2 9935   5.673   6.530   7.642
 2721SOL     OW 9936  10.334   9.886  14.823
 2721SOL    HW1 9937  10.341   9.952   0.014
 2721SOL    HW2 9938  10.423   9.879  14.787
 2722SOL     OW 9939   8.694   4.642  10.293
 2722SOL    HW1 9940   8.615   4.683  10.256
 2722SOL    HW2 9941   8.667   4.613  10.380
 2723SOL     OW 9942   3.051  13.468   8.134
 2723SOL    HW1 9943   3.139  13.458   8.097
 2723SOL    HW2 9944   3.048  13.558   8.166
 2724SOL     OW 9945  14.413   5.514   2.001
 2724SOL    HW1 9946  14.414   5.609   1.993
 2724SOL    HW2 9947  14.341   5.486   1.944
 2725SOL     OW 9948   8.435   1.995   0.335
 2725SOL    HW1 9949   8.401   2.062   0.395
 2725SOL    HW2 9950   8.510   1.958   0.381
 2726SOL     OW 9951   1.674  14.296   5.066
 2726SOL    HW1 9952   1.632  14.216   5.034
 2726SOL    HW2 9953   1.764  14.270   5.085
 2727SOL     OW 9954   6.197  10.101  14.833
 2727SOL    HW1 9955   6.227  10.163   0.021
 2727SOL    HW2 9956   6.268  10.037  14.825
 2728SOL     OW 9957   1.723   2.826  14.290
 2728SOL    HW1 9958   1.746   2.792  14.203
 2728SOL    HW2 9959   1.789   2.790  14.349
 2729SOL     OW 9960   3.993   3.011   0.287
 2729SOL    HW1 9961   4.000   2.919   0.314
 2729SOL    HW2 9962   3.970   3.007   0.194
 2730SOL     OW 9963   1.020   2.945  12.880
 2730SOL    HW1 9964   1.066   2.954  12.797
 2730SOL    HW2 9965   0.928   2.934  12.856
 2731SOL     OW 9966   7.900  13.917  10.557
 2731SOL    HW1 9967   7.994  13.902  10.557
 2731SOL    HW2 9968   7.878  13.934  10.465
 2732SOL     OW 9969   9.085   4.238   7.433
 2732SOL    HW1 9970   9.045   4.170   7.378
 2732SOL    HW2 9971   9.037   4.317   7.410
 2733SOL     OW 9972   3.748  14.810   9.991
 2733SOL    HW1 9973   3.750  14.877   9.922
 2733SOL    HW2 9974   3.801  14.848  10.062
 2734SOL     OW 9975   4.734   1.876   1.480
 2734SOL    HW1 9976   4.758   1.820   1.406
 2734SOL    HW2 9977   4.810   1.874   1.537
 2735SOL     OW 9978   1.863   9.288  13.605
 2735SOL    HW1 9979   1.904   9.227  13.666
 2735SOL    HW2 9980   1.860   9.241  13.521
 2736SOL     OW 9981  12.472   9.909  13.835
 2736SOL    HW1 9982  12.500   9.863  13.914
 2736SOL    HW2 9983  12.456   9.839  13.771
 2737SOL     OW 9984   8.847   1.309   1.487
 2737SOL    HW1 9985   8.869   1.402   1.480
 2737SOL    HW2 9986   8.904   1.266   1.422
 2738SOL     OW 9987   5.793   1.211  13.154
 2738SOL    HW1 9988   5.879   1.168  13.156
 2738SOL    HW2 9989   5.794   1.261  13.072
 2739SOL     OW 9990   6.212  13.746   6.639
 2739SOL    HW1 9991   6.235  13.780   6.553
 2739SOL    HW2 9992   6.162  13.666   6.620
 2740SOL     OW 9993  14.681   7.548  11.269
 2740SOL    HW1 9994  14.753   7.489  11.289
 2740SOL    HW2 9995  14.685   7.559  11.174
 2741SOL     OW 9996  11.061  11.853   1.875
 2741SOL    HW1 9997  11.113  11.850   1.956
 2741SOL    HW2 9998  11.126  11.856   1.805
 2742SOL     OW 9999   5.063  10.319   5.476
 2742SOL    HW110000   5.148  10.344   5.440
 2742SOL    HW210001   5.028  10.257   5.412
 2743SOL     OW10002   4.669   9.139   2.882
 2743SOL    HW110003   4.729   9.075   2.841
 2743SOL    HW210004   4.650   9.201   2.812
 2744SOL     OW10005   6.530  12.971  14.053
 2744SOL    HW110006   6.475  13.046  14.077
 2744SOL    HW210007   6.599  13.009  13.999
 2745SOL     OW10008   6.164   4.102   2.386
 2745SOL    HW110009   6.070   4.124   2.381
 2745SOL    HW210010   6.170   4.041   2.460
 2746SOL     OW10011   3.201   7.153  14.681
 2746SOL    HW110012   3.130   7.168  14.619
 2746SOL    HW210013   3.280   7.146  14.628
 2747SOL     OW10014  13.714   9.389   7.142
 2747SOL    HW110015  13.780   9.431   7.197
 2747SOL    HW210016  13.631   9.408   7.185
 2748SOL     OW10017  13.626   7.581   5.390
 2748SOL    HW110018  13.695   7.569   5.325
 2748SOL    HW210019  13.632   7.503   5.446
 2749SOL     OW10020  13.684   3.305  11.676
 2749SOL    HW110021  13.682   3.397  11.651
 2749SOL    HW210022  13.707   3.306  11.769
 2750SOL     OW10023  11.078   9.681   3.040
 2750SOL    HW110024  11.056   9.748   3.105
 2750SOL    HW210025  11.016   9.696   2.968
 2751SOL     OW10026  10.010  10.343   3.655
 2751SOL    HW110027   9.955  10.332   3.577
 2751SOL    HW210028  10.007  10.258   3.699
 2752SOL     OW10029  14.029   0.639  14.740
 2752SOL    HW110030  14.118   0.620  14.711
 2752SOL    HW210031  14.026   0.734  14.750
 2753SOL     OW10032  11.798   8.260   3.328
 2753SOL    HW110033  11.795   8.269   3.423
 2753SOL    HW210034  11.706   8.250   3.302
 2754SOL     OW10035  10.224  13.125   3.605
 2754SOL    HW110036  10.166  13.141   3.531
 2754SOL    HW210037  10.301  13.082   3.567
 2755SOL     OW10038   9.384   3.264   6.000
 2755SOL    HW110039   9.302   3.305   5.971
 2755SOL    HW210040   9.356   3.191   6.055
 2756SOL     OW10041  12.868   8.015   6.469
 2756SOL    HW110042  12.803   8.075   6.504
 2756SOL    HW210043  12.931   8.004   6.541
 2757SOL     OW10044  13.119  14.108   5.344
 2757SOL    HW110045  13.138  14.142   5.432
 2757SOL    HW210046  13.127  14.013   5.353
 2758SOL     OW10047   4.579  13.427   4.083
 2758SOL    HW110048   4.629  13.509   4.087
 2758SOL    HW210049   4.488  13.454   4.098
 2759SOL     OW10050  14.593   1.595   6.023
 2759SOL    HW110051  14.529   1.637   6.080
 2759SOL    HW210052  14.645   1.667   5.987
 2760SOL     OW10053   3.869   9.238  11.724
 2760SOL    HW110054   3.774   9.246  11.723
 2760SOL    HW210055   3.898   9.288  11.648
 2761SOL     OW10056   7.693   7.255  13.555
 2761SOL    HW110057   7.623   7.219  13.610
 2761SOL    HW210058   7.654   7.266  13.469
 2762SOL     OW10059   6.815   1.082  13.542
 2762SOL    HW110060   6.875   1.086  13.616
 2762SOL    HW210061   6.775   0.995  13.547
 2763SOL     OW10062  10.041   8.457   7.686
 2763SOL    HW110063  10.008   8.369   7.669
 2763SOL    HW210064  10.030   8.469   7.780
 2764SOL     OW10065   3.189  12.320  12.131
 2764SOL    HW110066   3.274  12.356  12.155
 2764SOL    HW210067   3.140  12.316  12.213
 2765SOL     OW10068   3.300  14.120   1.592
 2765SOL    HW110069   3.275  14.029   1.604
 2765SOL    HW210070   3.394  14.122   1.609
 2766SOL     OW10071   8.449   6.789   6.068
 2766SOL    HW110072   8.362   6.829   6.063
 2766SOL    HW210073   8.498   6.846   6.127
 2767SOL     OW10074  11.072   6.604   6.231
 2767SOL    HW110075  11.086   6.522   6.279
 2767SOL    HW210076  11.058   6.669   6.299
 2768SOL     OW10077  12.001  11.064   0.512
 2768SOL    HW110078  12.009  11.084   0.605
 2768SOL    HW210079  11.976  11.148   0.472
 2769SOL     OW10080   0.885  11.224   1.518
 2769SOL    HW110081   0.920  11.136   1.503
 2769SOL    HW210082   0.916  11.276   1.444
 2770SOL     OW10083  11.776  11.346  14.275
 2770SOL    HW110084  11.829  11.300  14.211
 2770SOL    HW210085  11.712  11.395  14.223
 2771SOL     OW10086   7.770  13.527   5.169
 2771SOL    HW110087   7.834  13.599   5.161
 2771SOL    HW210088   7.741  13.531   5.260
 2772SOL     OW10089   3.603   1.108   3.212
 2772SOL    HW110090   3.611   1.189   3.160
 2772SOL    HW210091   3.584   1.139   3.300
 2773SOL     OW10092  13.896   2.842  10.553
 2773SOL    HW110093  13.831   2.869  10.488
 2773SOL    HW210094  13.943   2.922  10.574
 2774SOL     OW10095   1.608  14.499   3.601
 2774SOL    HW110096   1.560  14.567   3.648
 2774SOL    HW210097   1.541  14.455   3.549
 2775SOL     OW10098  13.050   8.953   0.707
 2775SOL    HW110099  12.980   9.010   0.739
 2775SOL    HW210100  13.054   8.971   0.613
 2776SOL     OW10101  14.652   7.813  11.349
 2776SOL    HW110102  14.665   7.722  11.319
 2776SOL    HW210103  14.572   7.841  11.305
 2777SOL     OW10104  14.418   4.614  11.681
 2777SOL    HW110105  14.347   4.551  11.673
 2777SOL    HW210106  14.485   4.569  11.732
 2778SOL     OW10107  11.674  14.855  13.394
 2778SOL    HW110108  11.654  14.781  13.336
 2778SOL    HW210109  11.722   0.039  13.338
 2779SOL     OW10110   9.906  12.995  12.339
 2779SOL    HW110111   9.973  12.927  12.349
 2779SOL    HW210112   9.950  13.075  12.367
 2780SOL     OW10113   7.968   0.133   5.138
 2780SOL    HW110114   7.903   0.174   5.195
 2780SOL    HW210115   7.989   0.050   5.181
 2781SOL     OW10116   9.781   0.638  11.936
 2781SOL    HW110117   9.816   0.555  11.904
 2781SOL    HW210118   9.778   0.694  11.858
 2782SOL     OW10119  11.143   3.709   6.364
 2782SOL    HW110120  11.156   3.614   6.376
 2782SOL    HW210121  11.170   3.726   6.274
 2783SOL     OW10122   7.656  12.502  14.758
 2783SOL    HW110123   7.713  12.505  14.681
 2783SOL    HW210124   7.616  12.416  14.756
 2784SOL     OW10125  11.030   7.717  10.767
 2784SOL    HW110126  11.044   7.783  10.835
 2784SOL    HW210127  11.119   7.691  10.741
 2785SOL     OW10128  12.533  11.693   0.103
 2785SOL    HW110129  12.515  11.617   0.049
 2785SOL    HW210130  12.452  11.745   0.099
 2786SOL     OW10131   3.643   2.817   5.384
 2786SOL    HW110132   3.608   2.841   5.470
 2786SOL    HW210133   3.587   2.864   5.321
 2787SOL     OW10134   8.479   7.286  14.712
 2787SOL    HW110135   8.539   7.244  14.650
 2787SOL    HW210136   8.397   7.238  14.701
 2788SOL     OW10137  14.320  11.295  12.423
 2788SOL    HW110138  14.407  11.303  12.463
 2788SOL    HW210139  14.319  11.362  12.355
 2789SOL     OW10140  10.518  13.799   2.074
 2789SOL    HW110141  10.468  13.836   2.147
 2789SOL    HW210142  10.591  13.754   2.115
 2790SOL     OW10143   5.564   1.664   5.644
 2790SOL    HW110144   5.568   1.602   5.717
 2790SOL    HW210145   5.479   1.706   5.652
 2791SOL     OW10146   2.252  12.370   3.300
 2791SOL    HW110147   2.193  12.445   3.307
 2791SOL    HW210148   2.225  12.327   3.218
 2792SOL     OW10149   5.575  11.189  12.455
 2792SOL    HW110150   5.648  11.230  12.408
 2792SOL    HW210151   5.618  11.127  12.516
 2793SOL     OW10152  10.827  13.671   0.241
 2793SOL    HW110153  10.863  13.723   0.170
 2793SOL    HW210154  10.837  13.580   0.212
 2794SOL     OW10155   9.965  13.879   3.706
 2794SOL    HW110156   9.878  13.866   3.667
 2794SOL    HW210157   9.977  13.803   3.763
 2795SOL     OW10158   8.744   0.906   6.566
 2795SOL    HW110159   8.773   0.968   6.499
 2795SOL    HW210160   8.764   0.949   6.649
 2796SOL     OW10161  12.375  14.736  11.218
 2796SOL    HW110162  12.404  14.758  11.306
 2796SOL    HW210163  12.313  14.805  11.196
 2797SOL     OW10164  13.306   6.018  14.540
 2797SOL    HW110165  13.386   5.992  14.584
 2797SOL    HW210166  13.279   6.099  14.583
 2798SOL     OW10167  13.775  10.579  10.524
 2798SOL    HW110168  13.705  10.516  10.544
 2798SOL    HW210169  13.743  10.662  10.561
 2799SOL     OW10170   7.230   7.304   3.326
 2799SOL    HW110171   7.139   7.334   3.327
 2799SOL    HW210172   7.279   7.375   3.366
 2800SOL     OW10173   3.741   7.183   4.956
 2800SOL    HW110174   3.742   7.112   4.891
 2800SOL    HW210175   3.768   7.140   5.038
 2801SOL     OW10176   8.244   6.222  10.570
 2801SOL    HW110177   8.277   6.289  10.512
 2801SOL    HW210178   8.318   6.199  10.626
 2802SOL     OW10179   6.597   4.184  13.391
 2802SOL    HW110180   6.593   4.191  13.486
 2802SOL    HW210181   6.506   4.175  13.363
 2803SOL     OW10182   4.627  12.843   5.975
 2803SOL    HW110183   4.582  12.762   5.954
 2803SOL    HW210184   4.682  12.821   6.051
 2804SOL     OW10185   6.602  12.093   2.530
 2804SOL    HW110186   6.532  12.065   2.472
 2804SOL    HW210187   6.569  12.173   2.571
 2805SOL     OW10188   4.704  12.211   7.637
 2805SOL    HW110189   4.743  12.232   7.722
 2805SOL    HW210190   4.779  12.199   7.578
 2806SOL     OW10191   0.021  10.565   9.117
 2806SOL    HW110192   0.013  10.650   9.161
 2806SOL    HW210193   0.098  10.525   9.157
 2807SOL     OW10194   6.870   3.924   9.335
 2807SOL    HW110195   6.953   3.972   9.335
 2807SOL    HW210196   6.803   3.992   9.331
 2808SOL     OW10197   1.977   8.252   3.584
 2808SOL    HW110198   1.923   8.290   3.652
 2808SOL    HW210199   2.065   8.284   3.602
 2809SOL     OW10200   5.252   4.324   2.746
 2809SOL    HW110201   5.213   4.313   2.832
 2809SOL    HW210202   5.337   4.279   2.752
 2810SOL     OW10203   9.685  10.585   0.395
 2810SOL    HW110204   9.752  10.533   0.439
 2810SOL    HW210205   9.710  10.584   0.303
 2811SOL     OW10206  10.278   4.088  11.337
 2811SOL    HW110207  10.335   4.056  11.406
 2811SOL    HW210208  10.291   4.027  11.265
 2812SOL     OW10209  12.325  11.105   3.300
 2812SOL    HW110210  12.321  11.067   3.212
 2812SOL    HW210211  12.281  11.189   3.292
 2813SOL     OW10212   8.741  14.185   7.021
 2813SOL    HW110213   8.709  14.100   6.993
 2813SOL    HW210214   8.828  14.193   6.980
 2814SOL     OW10215   0.095  11.873   8.287
 2814SOL    HW110216   0.156  11.844   8.219
 2814SOL    HW210217   0.145  11.866   8.369
 2815SOL     OW10218   5.850   2.585  11.270
 2815SOL    HW110219   5.921   2.623  11.323
 2815SOL    HW210220   5.895   2.540  11.199
 2816SOL     OW10221   7.082  12.948   7.911
 2816SOL    HW110222   7.134  12.980   7.838
 2816SOL    HW210223   7.056  12.859   7.885
 2817SOL     OW10224   6.158   4.907   2.402
 2817SOL    HW110225   6.232   4.966   2.414
 2817SOL    HW210226   6.084   4.954   2.441
 2818SOL     OW10227  12.130  13.810   1.332
 2818SOL    HW110228  12.131  13.889   1.278
 2818SOL    HW210229  12.043  13.808   1.371
 2819SOL     OW10230   1.839   3.867   2.186
 2819SOL    HW110231   1.769   3.932   2.185
 2819SOL    HW210232   1.814   3.803   2.119
 2820SOL     OW10233   9.440  14.851   8.781
 2820SOL    HW110234   9.404   0.052   8.820
 2820SOL    HW210235   9.368  14.788   8.782
 2821SOL     OW10236   2.626   4.946   7.670
 2821SOL    HW110237   2.710   4.971   7.631
 2821SOL    HW210238   2.562   4.960   7.601
 2822SOL     OW10239   9.277   0.125   4.449
 2822SOL    HW110240   9.251   0.051   4.504
 2822SOL    HW210241   9.346   0.090   4.393
 2823SOL     OW10242   1.872  12.801   6.601
 2823SOL    HW110243   1.859  12.706   6.590
 2823SOL    HW210244   1.799  12.840   6.554
 2824SOL     OW10245   7.444  13.577   5.384
 2824SOL    HW110246   7.400  13.533   5.311
 2824SOL    HW210247   7.454  13.668   5.355
 2825SOL     OW10248   9.060  12.936   0.503
 2825SOL    HW110249   9.006  12.989   0.561
 2825SOL    HW210250   9.133  12.993   0.479
 2826SOL     OW10251   5.928   3.229   9.354
 2826SOL    HW110252   5.907   3.162   9.289
 2826SOL    HW210253   5.855   3.227   9.415
 2827SOL     OW10254   3.150  12.037  11.604
 2827SOL    HW110255   3.119  12.126  11.621
 2827SOL    HW210256   3.199  12.044  11.522
 2828SOL     OW10257   5.440  10.373   3.945
 2828SOL    HW110258   5.393  10.401   3.866
 2828SOL    HW210259   5.443  10.278   3.938
 2829SOL     OW10260  10.999   7.491   4.797
 2829SOL    HW110261  10.955   7.512   4.880
 2829SOL    HW210262  10.931   7.452   4.743
 2830SOL     OW10263   2.379   2.350   3.615
 2830SOL    HW110264   2.464   2.382   3.584
 2830SOL    HW210265   2.388   2.254   3.617
 2831SOL     OW10266   5.366   9.342   5.543
 2831SOL    HW110267   5.451   9.302   5.530
 2831SOL    HW210268   5.310   9.305   5.475
 2832SOL     OW10269  11.212   0.355   7.392
 2832SOL    HW110270  11.299   0.336   7.358
 2832SOL    HW210271  11.153   0.298   7.342
 2833SOL     OW10272   8.264  10.769   3.641
 2833SOL    HW110273   8.278  10.783   3.548
 2833SOL    HW210274   8.186  10.821   3.662
 2834SOL     OW10275   8.142   5.810   1.212
 2834SOL    HW110276   8.107   5.775   1.294
 2834SOL    HW210277   8.131   5.905   1.219
 2835SOL     OW10278  13.803  14.647   1.091
 2835SOL    HW110279  13.736  14.651   1.022
 2835SOL    HW210280  13.806  14.735   1.127
 2836SOL     OW10281   3.419   3.845   8.295
 2836SOL    HW110282   3.353   3.879   8.355
 2836SOL    HW210283   3.493   3.821   8.352
 2837SOL     OW10284   6.980  13.650   1.925
 2837SOL    HW110285   6.979  13.713   1.997
 2837SOL    HW210286   7.014  13.699   1.851
 2838SOL     OW10287   0.480  13.861   7.323
 2838SOL    HW110288   0.440  13.945   7.298
 2838SOL    HW210289   0.408  13.798   7.320
 2839SOL     OW10290   7.555  14.769   1.513
 2839SOL    HW110291   7.484  14.711   1.540
 2839SOL    HW210292   7.533  14.795   1.423
 2840SOL     OW10293   7.422  10.322   3.643
 2840SOL    HW110294   7.327  10.329   3.634
 2840SOL    HW210295   7.436  10.300   3.735
 2841SOL     OW10296   3.516   0.105   5.123
 2841SOL    HW110297   3.444   0.068   5.173
 2841SOL    HW210298   3.499   0.079   5.033
 2842SOL     OW10299   0.403   0.068   1.634
 2842SOL    HW110300   0.383  14.853   1.628
 2842SOL    HW210301   0.327   0.111   1.594
 2843SOL     OW10302   5.518  10.927   1.491
 2843SOL    HW110303   5.494  11.008   1.447
 2843SOL    HW210304   5.613  10.929   1.497
 2844SOL     OW10305   7.740   7.662   0.841
 2844SOL    HW110306   7.814   7.642   0.783
 2844SOL    HW210307   7.663   7.653   0.786
 2845SOL     OW10308   0.925   1.835   4.254
 2845SOL    HW110309   0.855   1.870   4.309
 2845SOL    HW210310   0.998   1.819   4.314
 2846SOL     OW10311  13.257  13.051   7.087
 2846SOL    HW110312  13.285  13.118   7.149
 2846SOL    HW210313  13.192  13.094   7.032
 2847SOL     OW10314  12.076   0.102   8.898
 2847SOL    HW110315  12.117   0.170   8.952
 2847SOL    HW210316  12.017   0.151   8.840
 2848SOL     OW10317   5.474  13.394  13.749
 2848SOL    HW110318   5.562  13.358  13.744
 2848SOL    HW210319   5.428  13.337  13.812
 2849SOL     OW10320  11.908   6.595  13.563
 2849SOL    HW110321  11.960   6.535  13.616
 2849SOL    HW210322  11.833   6.543  13.534
 2850SOL     OW10323   6.687   5.391  12.584
 2850SOL    HW110324   6.642   5.360  12.505
 2850SOL    HW210325   6.779   5.397  12.559
 2851SOL     OW10326  10.652   0.891   8.697
 2851SOL    HW110327  10.686   0.965   8.747
 2851SOL    HW210328  10.722   0.870   8.636
 2852SOL     OW10329   7.819  12.777   7.473
 2852SOL    HW110330   7.884  12.768   7.543
 2852SOL    HW210331   7.812  12.689   7.435
 2853SOL     OW10332   2.103   0.661   3.543
 2853SOL    HW110333   2.038   0.653   3.614
 2853SOL    HW210334   2.060   0.622   3.467
 2854SOL     OW10335   1.183   2.758   3.318
 2854SOL    HW110336   1.222   2.682   3.360
 2854SOL    HW210337   1.238   2.832   3.345
 2855SOL     OW10338  13.500   6.005   6.460
 2855SOL    HW110339  13.557   5.934   6.431
 2855SOL    HW210340  13.465   5.974   6.544
 2856SOL     OW10341   4.699  14.654   6.849
 2856SOL    HW110342   4.659  14.634   6.765
 2856SOL    HW210343   4.793  14.642   6.834
 2857SOL     OW10344   3.118  13.935  14.830
 2857SOL    HW110345   3.066  13.968   0.025
 2857SOL    HW210346   3.137  14.013  14.777
 2858SOL     OW10347  10.194   2.661   3.926
 2858SOL    HW110348  10.223   2.583   3.972
 2858SOL    HW210349  10.275   2.701   3.893
 2859SOL     OW10350   2.772   3.149  13.888
 2859SOL    HW110351   2.772   3.135  13.793
 2859SOL    HW210352   2.840   3.090  13.921
 2860SOL     OW10353   1.677   1.511   7.082
 2860SOL    HW110354   1.628   1.575   7.032
 2860SOL    HW210355   1.769   1.529   7.061
 2861SOL     OW10356   6.838   4.744   4.255
 2861SOL    HW110357   6.855   4.707   4.169
 2861SOL    HW210358   6.814   4.668   4.309
 2862SOL     OW10359  12.464   6.305   6.281
 2862SOL    HW110360  12.545   6.344   6.315
 2862SOL    HW210361  12.448   6.352   6.199
 2863SOL     OW10362   2.228  10.539  10.721
 2863SOL    HW110363   2.218  10.472  10.653
 2863SOL    HW210364   2.264  10.491  10.796
 2864SOL     OW10365   8.875   7.654   0.949
 2864SOL    HW110366   8.850   7.712   0.877
 2864SOL    HW210367   8.918   7.580   0.907
 2865SOL     OW10368  12.836   2.597  12.708
 2865SOL    HW110369  12.831   2.571  12.800
 2865SOL    HW210370  12.750   2.576  12.673
 2866SOL     OW10371   2.446  13.196  11.127
 2866SOL    HW110372   2.458  13.151  11.043
 2866SOL    HW210373   2.471  13.130  11.192
 2867SOL     OW10374   8.252  10.125   0.052
 2867SOL    HW110375   8.284  10.184   0.119
 2867SOL    HW210376   8.316  10.132  14.859
 2868SOL     OW10377  11.357  13.267  12.148
 2868SOL    HW110378  11.441  13.311  12.143
 2868SOL    HW210379  11.379  13.175  12.163
 2869SOL     OW10380  10.643   1.475   2.729
 2869SOL    HW110381  10.601   1.557   2.755
 2869SOL    HW210382  10.699   1.453   2.804
 2870SOL     OW10383   4.866   3.159   7.279
 2870SOL    HW110384   4.940   3.110   7.316
 2870SOL    HW210385   4.820   3.194   7.356
 2871SOL     OW10386   4.179  12.610  14.637
 2871SOL    HW110387   4.175  12.697  14.676
 2871SOL    HW210388   4.273  12.593  14.625
 2872SOL     OW10389  11.301   8.751  11.174
 2872SOL    HW110390  11.239   8.794  11.116
 2872SOL    HW210391  11.251   8.733  11.254
 2873SOL     OW10392   7.647   2.962  10.350
 2873SOL    HW110393   7.611   3.019  10.282
 2873SOL    HW210394   7.621   3.004  10.432
 2874SOL     OW10395   4.397  14.068   0.154
 2874SOL    HW110396   4.339  14.002   0.191
 2874SOL    HW210397   4.442  14.024   0.082
 2875SOL     OW10398  14.375   5.190   1.866
 2875SOL    HW110399  14.296   5.244   1.862
 2875SOL    HW210400  14.343   5.101   1.876
 2876SOL     OW10401   4.896   1.916  11.129
 2876SOL    HW110402   4.921   1.848  11.191
 2876SOL    HW210403   4.964   1.983  11.137
 2877SOL     OW10404   3.951   1.346   6.659
 2877SOL    HW110405   3.973   1.271   6.604
 2877SOL    HW210406   3.941   1.310   6.747
 2878SOL     OW10407   8.803   4.802   9.403
 2878SOL    HW110408   8.713   4.832   9.417
 2878SOL    HW210409   8.799   4.707   9.415
 2879SOL     OW10410   5.587   7.017  10.105
 2879SOL    HW110411   5.584   7.108  10.075
 2879SOL    HW210412   5.653   6.976  10.048
 2880SOL     OW10413  11.798  14.457  14.056
 2880SOL    HW110414  11.774  14.421  14.141
 2880SOL    HW210415  11.788  14.551  14.065
 2881SOL     OW10416   4.315   8.137   2.499
 2881SOL    HW110417   4.329   8.156   2.592
 2881SOL    HW210418   4.393   8.089   2.473
 2882SOL     OW10419   5.544  12.436   9.013
 2882SOL    HW110420   5.577  12.509   8.961
 2882SOL    HW210421   5.496  12.477   9.084
 2883SOL     OW10422   0.824  13.134   2.522
 2883SOL    HW110423   0.796  13.222   2.545
 2883SOL    HW210424   0.743  13.083   2.517
 2884SOL     OW10425   7.198   8.763   7.172
 2884SOL    HW110426   7.292   8.755   7.189
 2884SOL    HW210427   7.158   8.769   7.259
 2885SOL     OW10428   4.671  14.136  14.619
 2885SOL    HW110429   4.717  14.200  14.673
 2885SOL    HW210430   4.719  14.054  14.632
 2886SOL     OW10431   6.516  12.227  11.128
 2886SOL    HW110432   6.437  12.204  11.079
 2886SOL    HW210433   6.556  12.143  11.150
 2887SOL     OW10434   9.578   5.979  13.487
 2887SOL    HW110435   9.582   5.992  13.392
 2887SOL    HW210436   9.638   6.044  13.523
 2888SOL     OW10437  12.178   7.551   6.493
 2888SOL    HW110438  12.197   7.553   6.399
 2888SOL    HW210439  12.114   7.479   6.502
 2889SOL     OW10440  13.707   4.814   4.353
 2889SOL    HW110441  13.624   4.766   4.347
 2889SOL    HW210442  13.774   4.746   4.354
 2890SOL     OW10443  14.748   9.553  11.438
 2890SOL    HW110444  14.652   9.548  11.430
 2890SOL    HW210445  14.774   9.614  11.369
 2891SOL     OW10446   8.210  14.308  12.645
 2891SOL    HW110447   8.116  14.325  12.635
 2891SOL    HW210448   8.226  14.319  12.739
 2892SOL     OW10449  14.168  11.215  12.800
 2892SOL    HW110450  14.225  11.225  12.725
 2892SOL    HW210451  14.226  11.221  12.876
 2893SOL     OW10452   0.183  11.152  11.222
 2893SOL    HW110453   0.097  11.160  11.182
 2893SOL    HW210454   0.176  11.078  11.282
 2894SOL     OW10455  14.603   5.629   5.198
 2894SOL    HW110456  14.608   5.723   5.178
 2894SOL    HW210457  14.518   5.602   5.165
 2895SOL     OW10458   6.229   5.394   9.754
 2895SOL    HW110459   6.146   5.410   9.799
 2895SOL    HW210460   6.291   5.454   9.796
 2896SOL     OW10461   5.561   8.769   1.327
 2896SOL    HW110462   5.572   8.821   1.247
 2896SOL    HW210463   5.649   8.764   1.364
 2897SOL     OW10464   2.100   4.084   8.737
 2897SOL    HW110465   2.013   4.047   8.719
 2897SOL    HW210466   2.155   4.008   8.756
 2898SOL     OW10467  12.105   6.858  11.182
 2898SOL    HW110468  12.062   6.911  11.114
 2898SOL    HW210469  12.055   6.876  11.262
 2899SOL     OW10470   3.773  11.347   0.921
 2899SOL    HW110471   3.851  11.399   0.938
 2899SOL    HW210472   3.718  11.358   0.998
 2900SOL     OW10473   2.570   0.342   9.094
 2900SOL    HW110474   2.560   0.310   9.004
 2900SOL    HW210475   2.481   0.352   9.127
 2901SOL     OW10476  14.573  11.224  14.841
 2901SOL    HW110477  14.574  11.305   0.014
 2901SOL    HW210478  14.665  11.203  14.826
 2902SOL     OW10479  11.207   1.074   3.924
 2902SOL    HW110480  11.264   1.131   3.976
 2902SOL    HW210481  11.254   0.991   3.920
 2903SOL     OW10482   6.528  12.468  13.893
 2903SOL    HW110483   6.515  12.437  13.983
 2903SOL    HW210484   6.529  12.563  13.899
 2904SOL     OW10485   2.497   2.711   0.804
 2904SOL    HW110486   2.568   2.689   0.865
 2904SOL    HW210487   2.542   2.725   0.720
 2905SOL     OW10488  10.156   6.828   9.081
 2905SOL    HW110489  10.201   6.912   9.087
 2905SOL    HW210490  10.132   6.807   9.171
 2906SOL     OW10491   8.419   3.632   6.824
 2906SOL    HW110492   8.432   3.540   6.848
 2906SOL    HW210493   8.423   3.632   6.729
 2907SOL     OW10494  13.833   0.800   1.281
 2907SOL    HW110495  13.829   0.893   1.300
 2907SOL    HW210496  13.886   0.794   1.201
 2908SOL     OW10497  14.044   1.100  11.977
 2908SOL    HW110498  14.047   1.030  11.913
 2908SOL    HW210499  14.104   1.167  11.943
 2909SOL     OW10500   0.958   6.492   0.042
 2909SOL    HW110501   1.022   6.555   0.075
 2909SOL    HW210502   0.882   6.546   0.018
 2910SOL     OW10503  12.026   7.739   6.795
 2910SOL    HW110504  12.096   7.757   6.732
 2910SOL    HW210505  11.982   7.823   6.807
 2911SOL     OW10506   8.543   2.798   8.283
 2911SOL    HW110507   8.472   2.861   8.295
 2911SOL    HW210508   8.606   2.843   8.228
 2912SOL     OW10509   6.230  10.665  14.519
 2912SOL    HW110510   6.193  10.732  14.461
 2912SOL    HW210511   6.157  10.605  14.536
 2913SOL     OW10512  14.478  10.669   4.682
 2913SOL    HW110513  14.422  10.731   4.635
 2913SOL    HW210514  14.560  10.668   4.633
 2914SOL     OW10515   5.253  14.788   6.668
 2914SOL    HW110516   5.250  14.741   6.585
 2914SOL    HW210517   5.179  14.849   6.664
 2915SOL     OW10518   4.404  12.580   7.589
 2915SOL    HW110519   4.373  12.670   7.597
 2915SOL    HW210520   4.324  12.528   7.581
 2916SOL     OW10521   2.728  11.031   2.565
 2916SOL    HW110522   2.803  11.063   2.615
 2916SOL    HW210523   2.694  11.108   2.521
 2917SOL     OW10524   7.225  11.100  12.601
 2917SOL    HW110525   7.281  11.158  12.652
 2917SOL    HW210526   7.241  11.125  12.510
 2918SOL     OW10527   8.633  10.988   8.834
 2918SOL    HW110528   8.687  10.912   8.853
 2918SOL    HW210529   8.605  11.020   8.920
 2919SOL     OW10530   5.071  14.761   4.086
 2919SOL    HW110531   5.146  14.704   4.104
 2919SOL    HW210532   5.031  14.723   4.008
 2920SOL     OW10533   8.464   0.203   7.984
 2920SOL    HW110534   8.486   0.292   8.011
 2920SOL    HW210535   8.372   0.192   8.012
 2921SOL     OW10536  11.188   3.798  11.714
 2921SOL    HW110537  11.253   3.858  11.751
 2921SOL    HW210538  11.179   3.729  11.779
 2922SOL     OW10539  13.409   9.180   8.726
 2922SOL    HW110540  13.322   9.217   8.710
 2922SOL    HW210541  13.405   9.146   8.815
 2923SOL     OW10542   3.209   2.786  12.951
 2923SOL    HW110543   3.210   2.715  12.887
 2923SOL    HW210544   3.198   2.866  12.900
 2924SOL     OW10545   7.396   0.627   1.806
 2924SOL    HW110546   7.454   0.670   1.869
 2924SOL    HW210547   7.356   0.698   1.757
 2925SOL     OW10548  11.954  10.471   8.506
 2925SOL    HW110549  12.000  10.436   8.430
 2925SOL    HW210550  12.022  10.513   8.559
 2926SOL     OW10551   0.377   8.581  10.317
 2926SOL    HW110552   0.395   8.501  10.267
 2926SOL    HW210553   0.375   8.552  10.408
 2927SOL     OW10554  14.534   4.101   9.524
 2927SOL    HW110555  14.627   4.096   9.506
 2927SOL    HW210556  14.504   4.179   9.476
 2928SOL     OW10557   2.484  10.774   1.499
 2928SOL    HW110558   2.527  10.857   1.477
 2928SOL    HW210559   2.555  10.718   1.531
 2929SOL     OW10560   8.562  11.799   6.949
 2929SOL    HW110561   8.644  11.824   6.906
 2929SOL    HW210562   8.534  11.720   6.904
 2930SOL     OW10563   0.095  14.041   1.646
 2930SOL    HW110564   0.017  14.017   1.696
 2930SOL    HW210565   0.125  14.123   1.686
 2931SOL     OW10566   9.273   8.535  12.515
 2931SOL    HW110567   9.362   8.501  12.531
 2931SOL    HW210568   9.257   8.516  12.422
 2932SOL     OW10569   7.124   3.894   0.731
 2932SOL    HW110570   7.045   3.842   0.723
 2932SOL    HW210571   7.185   3.855   0.667
 2933SOL     OW10572  11.894   2.626   5.232
 2933SOL    HW110573  11.923   2.601   5.145
 2933SOL    HW210574  11.918   2.552   5.288
 2934SOL     OW10575   8.567   5.086   2.150
 2934SOL    HW110576   8.609   5.159   2.195
 2934SOL    HW210577   8.637   5.046   2.099
 2935SOL     OW10578   4.025  14.589   2.014
 2935SOL    HW110579   4.065  14.658   1.963
 2935SOL    HW210580   3.986  14.635   2.089
 2936SOL     OW10581   8.844  13.604   7.299
 2936SOL    HW110582   8.893  13.641   7.373
 2936SOL    HW210583   8.905  13.611   7.225
 2937SOL     OW10584  13.773   5.002   8.385
 2937SOL    HW110585  13.787   5.092   8.357
 2937SOL    HW210586  13.684   4.980   8.354
 2938SOL     OW10587   4.608  10.851   5.290
 2938SOL    HW110588   4.516  10.879   5.293
 2938SOL    HW210589   4.656  10.931   5.267
 2939SOL     OW10590   1.473  11.303   1.977
 2939SOL    HW110591   1.567  11.317   1.992
 2939SOL    HW210592   1.462  11.208   1.981
 2940SOL     OW10593   4.554   3.968  12.556
 2940SOL    HW110594   4.575   4.061  12.545
 2940SOL    HW210595   4.626   3.922  12.514
 2941SOL     OW10596   1.500   6.384   7.163
 2941SOL    HW110597   1.467   6.295   7.156
 2941SOL    HW210598   1.422   6.438   7.173
 2942SOL     OW10599   1.388   5.133   3.107
 2942SOL    HW110600   1.389   5.133   3.012
 2942SOL    HW210601   1.298   5.155   3.130
 2943SOL     OW10602  14.743  14.530   5.375
 2943SOL    HW110603  14.805  14.591   5.334
 2943SOL    HW210604  14.687  14.501   5.303
 2944SOL     OW10605   1.956   2.127  11.817
 2944SOL    HW110606   1.966   2.169  11.902
 2944SOL    HW210607   2.045   2.103  11.791
 2945SOL     OW10608   5.360   9.388  10.946
 2945SOL    HW110609   5.317   9.415  10.865
 2945SOL    HW210610   5.329   9.450  11.012
 2946SOL     OW10611   9.775   7.024   9.512
 2946SOL    HW110612   9.819   6.981   9.585
 2946SOL    HW210613   9.699   6.968   9.493
 2947SOL     OW10614   0.050   1.538   3.694
 2947SOL    HW110615   0.013   1.523   3.608
 2947SOL    HW210616   0.122   1.600   3.680
 2948SOL     OW10617  11.583  10.590  13.215
 2948SOL    HW110618  11.620  10.636  13.140
 2948SOL    HW210619  11.556  10.505  13.180
 2949SOL     OW10620   8.722  12.285  14.040
 2949SOL    HW110621   8.685  12.293  13.953
 2949SOL    HW210622   8.815  12.266  14.026
 2950SOL     OW10623   7.018   2.676  14.600
 2950SOL    HW110624   6.986   2.621  14.671
 2950SOL    HW210625   6.943   2.730  14.574
 2951SOL     OW10626   1.046   5.440   9.332
 2951SOL    HW110627   0.952   5.445   9.313
 2951SOL    HW210628   1.063   5.347   9.344
 2952SOL     OW10629   0.979  14.778   4.256
 2952SOL    HW110630   0.956  14.705   4.199
 2952SOL    HW210631   0.948  14.855   4.210
 2953SOL     OW10632  13.930   1.471  10.424
 2953SOL    HW110633  13.992   1.539  10.399
 2953SOL    HW210634  13.861   1.477  10.358
 2954SOL     OW10635   2.012   1.822   1.650
 2954SOL    HW110636   2.067   1.787   1.581
 2954SOL    HW210637   1.974   1.902   1.613
 2955SOL     OW10638   5.395   9.376  11.877
 2955SOL    HW110639   5.362   9.297  11.919
 2955SOL    HW210640   5.410   9.350  11.786
 2956SOL     OW10641  10.291   0.364   0.078
 2956SOL    HW110642  10.361   0.351   0.015
 2956SOL    HW210643  10.219   0.402   0.027
 2957SOL     OW10644  10.396   5.403   1.938
 2957SOL    HW110645  10.358   5.415   1.851
 2957SOL    HW210646  10.394   5.308   1.951
 2958SOL     OW10647   5.692   0.871   5.446
 2958SOL    HW110648   5.650   0.849   5.363
 2958SOL    HW210649   5.717   0.963   5.437
 2959SOL     OW10650  10.003   8.487   1.099
 2959SOL    HW110651  10.079   8.491   1.157
 2959SOL    HW210652   9.928   8.504   1.156
 2960SOL     OW10653  13.422   9.279  13.848
 2960SOL    HW110654  13.474   9.287  13.928
 2960SOL    HW210655  13.478   9.230  13.788
 2961SOL     OW10656   4.993   1.899   2.521
 2961SOL    HW110657   5.061   1.966   2.529
 2961SOL    HW210658   4.915   1.948   2.495
 2962SOL     OW10659   5.200  14.827   1.809
 2962SOL    HW110660   5.196  14.762   1.738
 2962SOL    HW210661   5.109  14.840   1.834
 2963SOL     OW10662  10.456   9.073  13.658
 2963SOL    HW110663  10.467   9.098  13.567
 2963SOL    HW210664  10.464   8.977  13.657
 2964SOL     OW10665  13.169   0.997  14.791
 2964SOL    HW110666  13.188   0.933  14.860
 2964SOL    HW210667  13.076   1.018  14.803
 2965SOL     OW10668   0.858   8.431  12.260
 2965SOL    HW110669   0.877   8.347  12.302
 2965SOL    HW210670   0.817   8.407  12.177
 2966SOL     OW10671   2.165   9.212   4.782
 2966SOL    HW110672   2.169   9.170   4.868
 2966SOL    HW210673   2.228   9.284   4.788
 2967SOL     OW10674  13.410  14.520   4.457
 2967SOL    HW110675  13.425  14.435   4.498
 2967SOL    HW210676  13.457  14.582   4.511
 2968SOL     OW10677  12.937   3.202   9.856
 2968SOL    HW110678  13.021   3.172   9.890
 2968SOL    HW210679  12.880   3.125   9.863
 2969SOL     OW10680   1.087   6.251   6.150
 2969SOL    HW110681   1.069   6.345   6.145
 2969SOL    HW210682   1.062   6.226   6.239
 2970SOL     OW10683  11.039   2.801   4.409
 2970SOL    HW110684  10.995   2.885   4.422
 2970SOL    HW210685  10.967   2.737   4.401
 2971SOL     OW10686  13.399   5.620  14.002
 2971SOL    HW110687  13.473   5.561  14.011
 2971SOL    HW210688  13.322   5.563  14.005
 2972SOL     OW10689   9.290   2.398  12.666
 2972SOL    HW110690   9.322   2.484  12.639
 2972SOL    HW210691   9.360   2.362  12.720
 2973SOL     OW10692   0.690  14.102  14.069
 2973SOL    HW110693   0.785  14.106  14.070
 2973SOL    HW210694   0.669  14.023  14.119
 2974SOL     OW10695  13.093   8.142  12.365
 2974SOL    HW110696  13.087   8.068  12.425
 2974SOL    HW210697  13.019   8.130  12.305
 2975SOL     OW10698  11.506  10.166   2.366
 2975SOL    HW110699  11.531  10.243   2.416
 2975SOL    HW210700  11.522  10.093   2.425
 2976SOL     OW10701   3.151   0.078   0.121
 2976SOL    HW110702   3.208   0.004   0.098
 2976SOL    HW210703   3.211   0.149   0.143
 2977SOL     OW10704   1.599   7.219   3.657
 2977SOL    HW110705   1.563   7.131   3.671
 2977SOL    HW210706   1.632   7.217   3.567
 2978SOL     OW10707   6.452   7.461   5.162
 2978SOL    HW110708   6.390   7.436   5.094
 2978SOL    HW210709   6.536   7.470   5.116
 2979SOL     OW10710   6.207  14.207   1.778
 2979SOL    HW110711   6.265  14.194   1.853
 2979SOL    HW210712   6.147  14.276   1.806
 2980SOL     OW10713   6.631  11.088   7.730
 2980SOL    HW110714   6.714  11.060   7.766
 2980SOL    HW210715   6.602  11.160   7.787
 2981SOL     OW10716   0.570  13.915  10.196
 2981SOL    HW110717   0.492  13.867  10.169
 2981SOL    HW210718   0.616  13.933  10.114
 2982SOL     OW10719   5.456   9.657   4.031
 2982SOL    HW110720   5.515   9.720   3.990
 2982SOL    HW210721   5.388   9.640   3.966
 2983SOL     OW10722  10.031   8.935  14.056
 2983SOL    HW110723   9.965   9.001  14.072
 2983SOL    HW210724  10.066   8.914  14.143
 2984SOL     OW10725   1.186  10.306   2.481
 2984SOL    HW110726   1.130  10.353   2.419
 2984SOL    HW210727   1.272  10.347   2.470
 2985SOL     OW10728   3.839   3.201  10.460
 2985SOL    HW110729   3.864   3.288  10.430
 2985SOL    HW210730   3.756   3.214  10.506
 2986SOL     OW10731   5.737  10.729  14.054
 2986SOL    HW110732   5.719  10.665  13.985
 2986SOL    HW210733   5.747  10.677  14.133
 2987SOL     OW10734   1.069  13.041  11.732
 2987SOL    HW110735   1.143  13.102  11.739
 2987SOL    HW210736   1.017  13.058  11.811
 2988SOL     OW10737   2.419  10.375   0.998
 2988SOL    HW110738   2.397  10.442   0.934
 2988SOL    HW210739   2.379  10.295   0.964
 2989SOL     OW10740  12.666   6.412   7.918
 2989SOL    HW110741  12.671   6.410   8.014
 2989SOL    HW210742  12.756   6.401   7.889
 2990SOL     OW10743  14.772   6.368   1.937
 2990SOL    HW110744  14.773   6.376   2.032
 2990SOL    HW210745  14.761   6.458   1.905
 2991SOL     OW10746   3.403  12.348   4.124
 2991SOL    HW110747   3.476  12.288   4.139
 2991SOL    HW210748   3.445  12.431   4.098
 2992SOL     OW10749   2.005  14.156   4.858
 2992SOL    HW110750   2.012  14.066   4.828
 2992SOL    HW210751   1.911  14.175   4.856
 2993SOL     OW10752   6.391   7.521  13.475
 2993SOL    HW110753   6.303   7.530  13.513
 2993SOL    HW210754   6.446   7.498  13.550
 2994SOL     OW10755  13.893   3.936   1.867
 2994SOL    HW110756  13.965   3.902   1.813
 2994SOL    HW210757  13.840   3.859   1.888
 2995SOL     OW10758  12.486   0.131   5.229
 2995SOL    HW110759  12.576   0.101   5.242
 2995SOL    HW210760  12.492   0.226   5.228
 2996SOL     OW10761   1.687   1.209  11.166
 2996SOL    HW110762   1.630   1.221  11.089
 2996SOL    HW210763   1.770   1.249  11.141
 2997SOL     OW10764  13.640  13.279   7.860
 2997SOL    HW110765  13.590  13.273   7.779
 2997SOL    HW210766  13.577  13.257   7.929
 2998SOL     OW10767   0.730  14.491   1.964
 2998SOL    HW110768   0.642  14.527   1.952
 2998SOL    HW210769   0.736  14.421   1.899
 2999SOL     OW10770   2.695   1.045   5.541
 2999SOL    HW110771   2.618   0.990   5.523
 2999SOL    HW210772   2.758   0.986   5.582
 3000SOL     OW10773   0.273  12.348  12.830
 3000SOL    HW110774   0.312  12.290  12.765
 3000SOL    HW210775   0.349  12.391  12.871
 3001SOL     OW10776  14.499  11.612  12.429
 3001SOL    HW110777  14.506  11.619  12.524
 3001SOL    HW210778  14.409  11.639  12.410
 3002SOL     OW10779  14.544  11.439  13.208
 3002SOL    HW110780  14.464  11.478  13.174
 3002SOL    HW210781  14.515  11.366  13.262
 3003SOL     OW10782  13.061   6.014   5.804
 3003SOL    HW110783  13.105   5.941   5.760
 3003SOL    HW210784  13.005   5.972   5.870
 3004SOL     OW10785   0.516   6.953   8.057
 3004SOL    HW110786   0.534   6.986   7.969
 3004SOL    HW210787   0.424   6.926   8.054
 3005SOL     OW10788   1.937  12.499   7.939
 3005SOL    HW110789   1.945  12.581   7.987
 3005SOL    HW210790   1.915  12.434   8.005
 3006SOL     OW10791   5.930   8.742  14.246
 3006SOL    HW110792   6.019   8.777  14.251
 3006SOL    HW210793   5.931   8.664  14.303
 3007SOL     OW10794   7.815   1.762   5.485
 3007SOL    HW110795   7.894   1.718   5.516
 3007SOL    HW210796   7.813   1.844   5.533
 3008SOL     OW10797  14.065   5.990   3.667
 3008SOL    HW110798  14.003   5.976   3.739
 3008SOL    HW210799  14.144   6.022   3.710
 3009SOL     OW10800   1.649   7.282   5.914
 3009SOL    HW110801   1.650   7.279   5.819
 3009SOL    HW210802   1.733   7.322   5.938
 3010SOL     OW10803   6.588   5.344   1.374
 3010SOL    HW110804   6.603   5.274   1.438
 3010SOL    HW210805   6.498   5.332   1.345
 3011SOL     OW10806   0.864   2.612   0.055
 3011SOL    HW110807   0.834   2.521   0.057
 3011SOL    HW210808   0.930   2.613  14.864
 3012SOL     OW10809  14.698   6.088  11.434
 3012SOL    HW110810  14.759   6.070  11.505
 3012SOL    HW210811  14.667   6.177  11.451
 3013SOL     OW10812   0.936  13.872   1.277
 3013SOL    HW110813   1.020  13.834   1.250
 3013SOL    HW210814   0.949  13.896   1.369
 3014SOL     OW10815  14.347   7.069  12.139
 3014SOL    HW110816  14.256   7.042  12.127
 3014SOL    HW210817  14.370   7.112  12.056
 3015SOL     OW10818  13.310   7.630   6.936
 3015SOL    HW110819  13.388   7.676   6.966
 3015SOL    HW210820  13.237   7.671   6.983
 3016SOL     OW10821  11.017  14.263  11.767
 3016SOL    HW110822  10.984  14.187  11.815
 3016SOL    HW210823  10.971  14.260  11.683
 3017SOL     OW10824  10.971   7.334  12.054
 3017SOL    HW110825  10.986   7.316  12.147
 3017SOL    HW210826  10.902   7.400  12.053
 3018SOL     OW10827   9.506   2.067   3.009
 3018SOL    HW110828   9.550   2.015   3.077
 3018SOL    HW210829   9.417   2.079   3.041
 3019SOL     OW10830  11.539   4.766   3.302
 3019SOL    HW110831  11.610   4.711   3.269
 3019SOL    HW210832  11.459   4.721   3.276
 3020SOL     OW10833  14.026   8.915   7.887
 3020SOL    HW110834  14.000   8.832   7.846
 3020SOL    HW210835  13.957   8.976   7.863
 3021SOL     OW10836  12.086  14.280  10.713
 3021SOL    HW110837  12.003  14.233  10.713
 3021SOL    HW210838  12.062  14.372  10.707
 3022SOL     OW10839   2.765  10.020  11.857
 3022SOL    HW110840   2.749   9.974  11.774
 3022SOL    HW210841   2.842  10.074  11.840
 3023SOL     OW10842   8.418   2.249   4.553
 3023SOL    HW110843   8.327   2.267   4.577
 3023SOL    HW210844   8.467   2.258   4.635
 3024SOL     OW10845  12.174  12.263  11.952
 3024SOL    HW110846  12.246  12.257  12.015
 3024SOL    HW210847  12.095  12.264  12.006
 3025SOL     OW10848   7.017  10.712   8.529
 3025SOL    HW110849   7.026  10.716   8.624
 3025SOL    HW210850   7.102  10.740   8.495
 3026SOL     OW10851   2.343   1.708  11.628
 3026SOL    HW110852   2.253   1.701  11.659
 3026SOL    HW210853   2.363   1.622  11.592
 3027SOL     OW10854  13.367   2.922  11.697
 3027SOL    HW110855  13.322   2.839  11.683
 3027SOL    HW210856  13.457   2.898  11.719
 3028SOL     OW10857  12.976   6.071  10.865
 3028SOL    HW110858  13.052   6.069  10.923
 3028SOL    HW210859  12.939   6.159  10.876
 3029SOL     OW10860  12.960  12.249   5.929
 3029SOL    HW110861  12.886  12.301   5.959
 3029SOL    HW210862  12.965  12.176   5.990
 3030SOL     OW10863  11.333   2.322  12.460
 3030SOL    HW110864  11.253   2.268  12.462
 3030SOL    HW210865  11.370   2.307  12.373
 3031SOL     OW10866   2.848   6.852  11.602
 3031SOL    HW110867   2.807   6.936  11.622
 3031SOL    HW210868   2.927   6.851  11.657
 3032SOL     OW10869  10.547   9.781   7.052
 3032SOL    HW110870  10.613   9.750   7.115
 3032SOL    HW210871  10.589   9.770   6.966
 3033SOL     OW10872  10.084   4.428   0.711
 3033SOL    HW110873  10.009   4.484   0.692
 3033SOL    HW210874  10.050   4.339   0.703
 3034SOL     OW10875  14.587  10.833   3.491
 3034SOL    HW110876  14.592  10.919   3.533
 3034SOL    HW210877  14.513  10.840   3.431
 3035SOL     OW10878  13.661   3.841  12.971
 3035SOL    HW110879  13.684   3.781  13.042
 3035SOL    HW210880  13.584   3.801  12.930
 3036SOL     OW10881  14.797  12.096   1.934
 3036SOL    HW110882  14.838  12.063   1.854
 3036SOL    HW210883  14.863  12.080   2.002
 3037SOL     OW10884   5.399   0.976  10.725
 3037SOL    HW110885   5.349   1.055  10.747
 3037SOL    HW210886   5.490   1.005  10.721
 3038SOL     OW10887   4.153  14.410   8.232
 3038SOL    HW110888   4.103  14.377   8.158
 3038SOL    HW210889   4.192  14.492   8.201
 3039SOL     OW10890   0.626  10.010   9.207
 3039SOL    HW110891   0.584   9.996   9.292
 3039SOL    HW210892   0.714   9.972   9.218
 3040SOL     OW10893   9.497  11.613   8.661
 3040SOL    HW110894   9.578  11.575   8.628
 3040SOL    HW210895   9.470  11.554   8.732
 3041SOL     OW10896  11.812  14.002  14.628
 3041SOL    HW110897  11.820  13.952  14.709
 3041SOL    HW210898  11.901  14.035  14.612
 3042SOL     OW10899   1.457   2.293   8.996
 3042SOL    HW110900   1.404   2.323   8.921
 3042SOL    HW210901   1.534   2.350   8.994
 3043SOL     OW10902   3.244   5.765   9.365
 3043SOL    HW110903   3.318   5.802   9.318
 3043SOL    HW210904   3.172   5.825   9.347
 3044SOL     OW10905  13.938   7.254  12.011
 3044SOL    HW110906  14.024   7.272  11.971
 3044SOL    HW210907  13.957   7.194  12.083
 3045SOL     OW10908   5.202  12.060   6.400
 3045SOL    HW110909   5.281  12.015   6.370
 3045SOL    HW210910   5.131  12.021   6.349
 3046SOL     OW10911   3.879   2.653   4.183
 3046SOL    HW110912   3.799   2.612   4.215
 3046SOL    HW210913   3.929   2.582   4.144
 3047SOL     OW10914  11.794   7.428   5.166
 3047SOL    HW110915  11.712   7.378   5.163
 3047SOL    HW210916  11.783   7.490   5.238
 3048SOL     OW10917   4.620   9.636  11.030
 3048SOL    HW110918   4.680   9.563  11.019
 3048SOL    HW210919   4.567   9.612  11.106
 3049SOL     OW10920   8.485  11.985  12.468
 3049SOL    HW110921   8.544  11.939  12.408
 3049SOL    HW210922   8.543  12.022  12.535
 3050SOL     OW10923   0.043   9.786   3.796
 3050SOL    HW110924   0.102   9.712   3.814
 3050SOL    HW210925   0.065   9.813   3.707
 3051SOL     OW10926  12.645   8.027   7.688
 3051SOL    HW110927  12.635   7.933   7.697
 3051SOL    HW210928  12.620   8.046   7.598
 3052SOL     OW10929   2.548   3.522   7.066
 3052SOL    HW110930   2.587   3.470   6.995
 3052SOL    HW210931   2.472   3.564   7.026
 3053SOL     OW10932   4.467  14.459   4.405
 3053SOL    HW110933   4.533  14.509   4.357
 3053SOL    HW210934   4.400  14.524   4.428
 3054SOL     OW10935  10.996  11.665  13.106
 3054SOL    HW110936  11.049  11.699  13.178
 3054SOL    HW210937  10.974  11.742  13.054
 3055SOL     OW10938   6.902   1.159   3.694
 3055SOL    HW110939   6.866   1.094   3.755
 3055SOL    HW210940   6.903   1.241   3.744
 3056SOL     OW10941  14.552   1.580   9.500
 3056SOL    HW110942  14.615   1.643   9.536
 3056SOL    HW210943  14.606   1.509   9.464
 3057SOL     OW10944  12.287   8.477  10.934
 3057SOL    HW110945  12.364   8.534  10.936
 3057SOL    HW210946  12.214   8.535  10.954
 3058SOL     OW10947   5.919  12.895   4.653
 3058SOL    HW110948   5.913  12.957   4.580
 3058SOL    HW210949   6.012  12.876   4.661
 3059SOL     OW10950   0.176   6.812  10.935
 3059SOL    HW110951   0.202   6.721  10.922
 3059SOL    HW210952   0.252   6.854  10.975
 3060SOL     OW10953   6.423  11.187   0.800
 3060SOL    HW110954   6.503  11.162   0.847
 3060SOL    HW210955   6.453  11.211   0.712
 3061SOL     OW10956   0.123   0.799   5.535
 3061SOL    HW110957   0.044   0.824   5.487
 3061SOL    HW210958   0.195   0.815   5.474
 3062SOL     OW10959   0.146   4.257   7.681
 3062SOL    HW110960   0.066   4.224   7.641
 3062SOL    HW210961   0.172   4.188   7.742
 3063SOL     OW10962  12.215   4.083   3.170
 3063SOL    HW110963  12.233   4.137   3.247
 3063SOL    HW210964  12.277   4.115   3.104
 3064SOL     OW10965   0.973   6.173   9.646
 3064SOL    HW110966   1.067   6.160   9.658
 3064SOL    HW210967   0.966   6.239   9.577
 3065SOL     OW10968  14.381   8.297  14.170
 3065SOL    HW110969  14.348   8.256  14.090
 3065SOL    HW210970  14.404   8.386  14.143
 3066SOL     OW10971   7.014  14.676   7.492
 3066SOL    HW110972   7.044  14.598   7.446
 3066SOL    HW210973   6.930  14.650   7.531
 3067SOL     OW10974   9.923   0.702   2.412
 3067SOL    HW110975   9.925   0.797   2.425
 3067SOL    HW210976   9.832   0.683   2.387
 3068SOL     OW10977   1.581  12.313  13.283
 3068SOL    HW110978   1.633  12.377  13.331
 3068SOL    HW210979   1.574  12.350  13.195
 3069SOL     OW10980   3.694   3.870   3.960
 3069SOL    HW110981   3.725   3.959   3.974
 3069SOL    HW210982   3.622   3.859   4.022
 3070SOL     OW10983   3.239   4.051   5.245
 3070SOL    HW110984   3.226   4.043   5.151
 3070SOL    HW210985   3.183   4.124   5.271
 3071SOL     OW10986   8.041   9.321   6.854
 3071SOL    HW110987   8.097   9.259   6.807
 3071SOL    HW210988   8.005   9.269   6.927
 3072SOL     OW10989  12.922   1.444  14.428
 3072SOL    HW110990  12.893   1.358  14.458
 3072SOL    HW210991  12.881   1.454  14.342
 3073SOL     OW10992  13.232   0.576   8.070
 3073SOL    HW110993  13.156   0.567   8.012
 3073SOL    HW210994  13.212   0.651   8.125
 3074SOL     OW10995   7.758   6.610  12.614
 3074SOL    HW110996   7.733   6.699  12.639
 3074SOL    HW210997   7.686   6.581  12.557
 3075SOL     OW10998  14.633   0.137  10.232
 3075SOL    HW110999  14.699   0.100  10.174
 3075SOL    HW211000  14.566   0.173  10.173
 3076SOL     OW11001   5.303   5.422   6.290
 3076SOL    HW111002   5.221   5.469   6.298
 3076SOL    HW211003   5.301   5.384   6.202
 3077SOL     OW11004   9.575  13.657  11.012
 3077SOL    HW111005   9.501  13.645  11.072
 3077SOL    HW211006   9.586  13.752  11.006
 3078SOL     OW11007  13.579   8.749  13.647
 3078SOL    HW111008  13.634   8.826  13.633
 3078SOL    HW211009  13.507   8.760  13.584
 3079SOL     OW11010   0.855   2.774   6.533
 3079SOL    HW111011   0.898   2.859   6.524
 3079SOL    HW211012   0.869   2.749   6.624
 3080SOL     OW11013  11.965   5.777  10.034
 3080SOL    HW111014  12.058   5.799  10.038
 3080SOL    HW211015  11.922   5.858  10.007
 3081SOL     OW11016   2.032  14.463   4.778
 3081SOL    HW111017   2.009  14.436   4.867
 3081SOL    HW211018   1.973  14.536   4.758
 3082SOL     OW11019  12.036   3.830   9.933
 3082SOL    HW111020  12.128   3.855   9.932
 3082SOL    HW211021  12.032   3.750   9.881
 3083SOL     OW11022  10.957   2.572  10.338
 3083SOL    HW111023  10.897   2.575  10.413
 3083SOL    HW211024  10.973   2.664  10.317
 3084SOL     OW11025  12.070  14.583   9.498
 3084SOL    HW111026  11.984  14.614   9.526
 3084SOL    HW211027  12.128  14.657   9.511
 3085SOL     OW11028   6.879   7.662   1.748
 3085SOL    HW111029   6.940   7.645   1.820
 3085SOL    HW211030   6.934   7.659   1.669
 3086SOL     OW11031  14.722   1.868   1.221
 3086SOL    HW111032  14.658   1.882   1.291
 3086SOL    HW211033  14.680   1.905   1.143
 3087SOL     OW11034  10.700  11.934   2.253
 3087SOL    HW111035  10.691  11.983   2.335
 3087SOL    HW211036  10.635  11.972   2.195
 3088SOL     OW11037  14.045   8.996   6.033
 3088SOL    HW111038  13.958   8.957   6.026
 3088SOL    HW211039  14.072   8.979   6.123
 3089SOL     OW11040   6.959   8.712  13.989
 3089SOL    HW111041   6.995   8.800  14.001
 3089SOL    HW211042   7.029   8.664  13.946
 3090SOL     OW11043   2.169   4.046   2.644
 3090SOL    HW111044   2.218   4.028   2.724
 3090SOL    HW211045   2.144   3.960   2.612
 3091SOL     OW11046  10.715   8.131  11.700
 3091SOL    HW111047  10.748   8.183  11.774
 3091SOL    HW211048  10.739   8.041  11.721
 3092SOL     OW11049   5.013   3.737   8.417
 3092SOL    HW111050   4.939   3.693   8.458
 3092SOL    HW211051   5.058   3.668   8.368
 3093SOL     OW11052  14.009  13.037  10.529
 3093SOL    HW111053  14.020  13.061  10.621
 3093SOL    HW211054  13.915  13.036  10.515
 3094SOL     OW11055   9.158  12.071   6.633
 3094SOL    HW111056   9.242  12.116   6.629
 3094SOL    HW211057   9.106  12.122   6.695
 3095SOL     OW11058  13.738   2.051   0.090
 3095SOL    HW111059  13.689   2.125   0.124
 3095SOL    HW211060  13.691   2.024   0.011
 3096SOL     OW11061   9.919  13.526   7.167
 3096SOL    HW111062  10.006  13.546   7.134
 3096SOL    HW211063   9.891  13.448   7.118
 3097SOL     OW11064   6.928  13.754  13.351
 3097SOL    HW111065   6.876  13.731  13.428
 3097SOL    HW211066   6.997  13.688  13.348
 3098SOL     OW11067   0.507  12.317   8.032
 3098SOL    HW111068   0.564  12.368   8.090
 3098SOL    HW211069   0.568  12.260   7.985
 3099SOL     OW11070   9.596  14.531   7.447
 3099SOL    HW111071   9.623  14.567   7.362
 3099SOL    HW211072   9.503  14.551   7.452
 3100SOL     OW11073   4.560  13.748  12.525
 3100SOL    HW111074   4.550  13.653  12.517
 3100SOL    HW211075   4.494  13.784  12.467
 3101SOL     OW11076   4.264   6.198  13.771
 3101SOL    HW111077   4.301   6.257  13.836
 3101SOL    HW211078   4.210   6.137  13.821
 3102SOL     OW11079   5.510   9.316  10.638
 3102SOL    HW111080   5.431   9.284  10.593
 3102SOL    HW211081   5.556   9.365  10.570
 3103SOL     OW11082  11.636   9.391   7.582
 3103SOL    HW111083  11.550   9.429   7.564
 3103SOL    HW211084  11.643   9.319   7.520
 3104SOL     OW11085   1.994  13.670   2.713
 3104SOL    HW111086   1.964  13.761   2.710
 3104SOL    HW211087   2.059  13.668   2.783
 3105SOL     OW11088   0.428   2.885   3.494
 3105SOL    HW111089   0.431   2.824   3.567
 3105SOL    HW211090   0.476   2.841   3.424
 3106SOL     OW11091   4.806  13.071   6.569
 3106SOL    HW111092   4.803  12.987   6.524
 3106SOL    HW211093   4.714  13.099   6.573
 3107SOL     OW11094  12.962   3.000   5.963
 3107SOL    HW111095  12.984   3.088   5.991
 3107SOL    HW211096  12.893   3.011   5.898
 3108SOL     OW11097  11.904   2.592   1.729
 3108SOL    HW111098  11.861   2.675   1.712
 3108SOL    HW211099  11.984   2.595   1.676
 3109SOL     OW11100  10.322  14.000  10.907
 3109SOL    HW111101  10.232  13.969  10.894
 3109SOL    HW211102  10.323  14.087  10.869
 3110SOL     OW11103   5.341   6.287   5.550
 3110SOL    HW111104   5.293   6.207   5.571
 3110SOL    HW211105   5.358   6.280   5.456
 3111SOL     OW11106  14.010   0.604   7.458
 3111SOL    HW111107  14.036   0.571   7.371
 3111SOL    HW211108  14.056   0.547   7.520
 3112SOL     OW11109   6.617   3.261  13.182
 3112SOL    HW111110   6.686   3.325  13.166
 3112SOL    HW211111   6.576   3.248  13.097
 3113SOL     OW11112  12.837   9.523   7.632
 3113SOL    HW111113  12.794   9.540   7.548
 3113SOL    HW211114  12.875   9.607   7.657
 3114SOL     OW11115   9.937   1.622  12.697
 3114SOL    HW111116   9.852   1.610  12.655
 3114SOL    HW211117   9.978   1.536  12.691
 3115SOL     OW11118   1.207  12.492   7.794
 3115SOL    HW111119   1.232  12.585   7.786
 3115SOL    HW211120   1.239  12.452   7.713
 3116SOL     OW11121   3.280  12.709   4.414
 3116SOL    HW111122   3.225  12.775   4.458
 3116SOL    HW211123   3.359  12.704   4.469
 3117SOL     OW11124   1.934  12.726   8.081
 3117SOL    HW111125   2.010  12.701   8.133
 3117SOL    HW211126   1.946  12.820   8.065
 3118SOL     OW11127  12.763   8.857  10.870
 3118SOL    HW111128  12.735   8.848  10.779
 3118SOL    HW211129  12.844   8.806  10.876
 3119SOL     OW11130  12.672   9.025  13.229
 3119SOL    HW111131  12.716   9.102  13.264
 3119SOL    HW211132  12.702   8.953  13.284
 3120SOL     OW11133  12.354   5.114   3.103
 3120SOL    HW111134  12.409   5.072   3.038
 3120SOL    HW211135  12.286   5.159   3.053
 3121SOL     OW11136   6.146  10.945  13.161
 3121SOL    HW111137   6.090  10.916  13.233
 3121SOL    HW211138   6.164  11.037  13.180
 3122SOL     OW11139  14.133  11.733   9.415
 3122SOL    HW111140  14.204  11.789   9.449
 3122SOL    HW211141  14.132  11.750   9.321
 3123SOL     OW11142   8.737   0.101   8.336
 3123SOL    HW111143   8.753   0.061   8.421
 3123SOL    HW211144   8.666   0.049   8.298
 3124SOL     OW11145  12.934   5.699   8.057
 3124SOL    HW111146  12.888   5.773   8.017
 3124SOL    HW211147  12.896   5.622   8.016
 3125SOL     OW11148   4.141  11.063   1.506
 3125SOL    HW111149   4.165  10.972   1.493
 3125SOL    HW211150   4.225  11.108   1.519
 3126SOL     OW11151   3.311   4.962  12.619
 3126SOL    HW111152   3.249   5.009  12.674
 3126SOL    HW211153   3.388   4.951  12.675
 3127SOL     OW11154   3.480   5.500   6.606
 3127SOL    HW111155   3.425   5.545   6.670
 3127SOL    HW211156   3.465   5.407   6.623
 3128SOL     OW11157   0.893  10.071  10.637
 3128SOL    HW111158   0.941  10.059  10.719
 3128SOL    HW211159   0.851  10.156  10.646
 3129SOL     OW11160  10.682   7.311   5.515
 3129SOL    HW111161  10.661   7.228   5.473
 3129SOL    HW211162  10.634   7.377   5.464
 3130SOL     OW11163  11.575   7.447   1.058
 3130SOL    HW111164  11.622   7.433   0.976
 3130SOL    HW211165  11.489   7.478   1.031
 3131SOL     OW11166   5.927   2.245  11.352
 3131SOL    HW111167   5.972   2.302  11.416
 3131SOL    HW211168   5.835   2.268  11.361
 3132SOL     OW11169   6.255   4.461  14.695
 3132SOL    HW111170   6.204   4.381  14.709
 3132SOL    HW211171   6.304   4.444  14.615
 3133SOL     OW11172   7.608   8.077   5.253
 3133SOL    HW111173   7.696   8.072   5.217
 3133SOL    HW211174   7.568   7.992   5.232
 3134SOL     OW11175   4.896  10.838  12.013
 3134SOL    HW111176   4.840  10.836  11.935
 3134SOL    HW211177   4.945  10.920  12.004
 3135SOL     OW11178   6.005   2.503   8.700
 3135SOL    HW111179   5.922   2.488   8.745
 3135SOL    HW211180   6.062   2.541   8.766
 3136SOL     OW11181   6.835   2.133   5.779
 3136SOL    HW111182   6.928   2.149   5.797
 3136SOL    HW211183   6.831   2.121   5.684
 3137SOL     OW11184   2.539  14.177  12.436
 3137SOL    HW111185   2.470  14.161  12.501
 3137SOL    HW211186   2.599  14.238  12.479
 3138SOL     OW11187  11.220  14.377   4.724
 3138SOL    HW111188  11.126  14.395   4.734
 3138SOL    HW211189  11.244  14.418   4.641
 3139SOL     OW11190  12.272  10.976   0.541
 3139SOL    HW111191  12.183  11.004   0.522
 3139SOL    HW211192  12.271  10.881   0.532
 3140SOL     OW11193   2.777  12.706   5.998
 3140SOL    HW111194   2.818  12.791   6.014
 3140SOL    HW211195   2.779  12.662   6.083
 3141SOL     OW11196  13.499   3.927  10.600
 3141SOL    HW111197  13.567   3.947  10.535
 3141SOL    HW211198  13.478   4.011  10.639
 3142SOL     OW11199  14.576   2.659  12.339
 3142SOL    HW111200  14.597   2.618  12.255
 3142SOL    HW211201  14.630   2.738  12.342
 3143SOL     OW11202  12.434   6.076  10.280
 3143SOL    HW111203  12.511   6.132  10.286
 3143SOL    HW211204  12.387   6.108  10.202
 3144SOL     OW11205   3.828  14.780   1.375
 3144SOL    HW111206   3.775  14.750   1.448
 3144SOL    HW211207   3.900  14.716   1.370
 3145SOL     OW11208   6.232   0.066   4.448
 3145SOL    HW111209   6.279  14.861   4.438
 3145SOL    HW211210   6.269   0.107   4.526
 3146SOL     OW11211   7.868   7.711   7.055
 3146SOL    HW111212   7.776   7.735   7.054
 3146SOL    HW211213   7.874   7.633   7.000
 3147SOL     OW11214  11.458   1.082   6.289
 3147SOL    HW111215  11.440   1.014   6.354
 3147SOL    HW211216  11.402   1.155   6.314
 3148SOL     OW11217   6.815   0.010   6.445
 3148SOL    HW111218   6.795   0.002   6.352
 3148SOL    HW211219   6.735   0.046   6.483
 3149SOL     OW11220  14.460   5.832   2.631
 3149SOL    HW111221  14.477   5.818   2.538
 3149SOL    HW211222  14.542   5.806   2.674
 3150SOL     OW11223   5.779   5.607   9.919
 3150SOL    HW111224   5.799   5.642  10.006
 3150SOL    HW211225   5.763   5.685   9.865
 3151SOL     OW11226   4.053  13.482   7.461
 3151SOL    HW111227   4.145  13.502   7.446
 3151SOL    HW211228   4.022  13.554   7.517
 3152SOL     OW11229   2.569  11.345  14.194
 3152SOL    HW111230   2.510  11.384  14.130
 3152SOL    HW211231   2.531  11.259  14.212
 3153SOL     OW11232   5.813  10.399   2.521
 3153SOL    HW111233   5.898  10.357   2.536
 3153SOL    HW211234   5.777  10.411   2.609
 3154SOL     OW11235   0.671   3.988  13.040
 3154SOL    HW111236   0.633   3.939  13.113
 3154SOL    HW211237   0.601   4.047  13.011
 3155SOL     OW11238   3.064   8.608   2.286
 3155SOL    HW111239   3.123   8.668   2.240
 3155SOL    HW211240   2.983   8.612   2.237
 3156SOL     OW11241   0.058  12.582  10.935
 3156SOL    HW111242  14.872  12.561  11.002
 3156SOL    HW211243   0.139  12.540  10.965
 3157SOL     OW11244   4.277   8.404   2.332
 3157SOL    HW111245   4.256   8.351   2.409
 3157SOL    HW211246   4.300   8.339   2.265
 3158SOL     OW11247   0.630   8.359   5.348
 3158SOL    HW111248   0.662   8.317   5.269
 3158SOL    HW211249   0.535   8.368   5.335
 3159SOL     OW11250   9.819   8.491  12.613
 3159SOL    HW111251   9.862   8.519  12.532
 3159SOL    HW211252   9.885   8.506  12.681
 3160SOL     OW11253   2.535   6.977   6.408
 3160SOL    HW111254   2.596   6.977   6.335
 3160SOL    HW211255   2.511   7.069   6.419
 3161SOL     OW11256  11.494   1.195   3.089
 3161SOL    HW111257  11.500   1.258   3.161
 3161SOL    HW211258  11.460   1.246   3.015
 3162SOL     OW11259  11.590   4.252   6.846
 3162SOL    HW111260  11.528   4.214   6.907
 3162SOL    HW211261  11.545   4.328   6.810
 3163SOL     OW11262   0.425  14.492   8.413
 3163SOL    HW111263   0.412  14.573   8.461
 3163SOL    HW211264   0.489  14.443   8.464
 3164SOL     OW11265  14.403   2.980   4.221
 3164SOL    HW111266  14.398   2.906   4.161
 3164SOL    HW211267  14.351   3.048   4.180
 3165SOL     OW11268   6.966   5.069  11.034
 3165SOL    HW111269   6.894   5.128  11.058
 3165SOL    HW211270   6.950   5.048  10.942
 3166SOL     OW11271  13.131   7.715  10.192
 3166SOL    HW111272  13.112   7.623  10.176
 3166SOL    HW211273  13.059   7.745  10.248
 3167SOL     OW11274   6.954  12.834  10.002
 3167SOL    HW111275   6.965  12.882  10.084
 3167SOL    HW211276   6.915  12.898   9.942
 3168SOL     OW11277   6.163   7.594   5.193
 3168SOL    HW111278   6.153   7.521   5.132
 3168SOL    HW211279   6.252   7.587   5.226
 3169SOL     OW11280   1.099   4.452   9.900
 3169SOL    HW111281   1.022   4.510   9.898
 3169SOL    HW211282   1.154   4.488   9.970
 3170SOL     OW11283   6.470   7.796   8.653
 3170SOL    HW111284   6.556   7.799   8.694
 3170SOL    HW211285   6.421   7.732   8.704
 3171SOL     OW11286  11.172   1.208  10.295
 3171SOL    HW111287  11.128   1.291  10.314
 3171SOL    HW211288  11.138   1.147  10.362
 3172SOL     OW11289  12.115   3.729   9.440
 3172SOL    HW111290  12.204   3.739   9.474
 3172SOL    HW211291  12.085   3.818   9.422
 3173SOL     OW11292   8.625   5.940   5.446
 3173SOL    HW111293   8.536   5.954   5.479
 3173SOL    HW211294   8.678   5.928   5.525
 3174SOL     OW11295   3.695   8.422  10.523
 3174SOL    HW111296   3.631   8.351  10.529
 3174SOL    HW211297   3.777   8.382  10.550
 3175SOL     OW11298  12.207   4.624   3.922
 3175SOL    HW111299  12.267   4.549   3.912
 3175SOL    HW211300  12.235   4.666   4.003
 3176SOL     OW11301   0.693  14.560   6.697
 3176SOL    HW111302   0.740  14.505   6.760
 3176SOL    HW211303   0.739  14.547   6.615
 3177SOL     OW11304   5.742   2.965   8.523
 3177SOL    HW111305   5.788   3.048   8.537
 3177SOL    HW211306   5.803   2.898   8.551
 3178SOL     OW11307   5.596   1.785   6.602
 3178SOL    HW111308   5.678   1.759   6.558
 3178SOL    HW211309   5.607   1.878   6.619
 3179SOL     OW11310   9.294   2.222   9.680
 3179SOL    HW111311   9.386   2.195   9.669
 3179SOL    HW211312   9.260   2.230   9.591
 3180SOL     OW11313   6.355  13.793   7.581
 3180SOL    HW111314   6.313  13.732   7.519
 3180SOL    HW211315   6.444  13.803   7.547
 3181SOL     OW11316   9.272   0.605   6.432
 3181SOL    HW111317   9.242   0.693   6.457
 3181SOL    HW211318   9.224   0.546   6.489
 3182SOL     OW11319  10.135  11.727   4.234
 3182SOL    HW111320  10.092  11.742   4.150
 3182SOL    HW211321  10.082  11.661   4.278
 3183SOL     OW11322   4.880   1.174   5.832
 3183SOL    HW111323   4.852   1.190   5.742
 3183SOL    HW211324   4.922   1.088   5.829
 3184SOL     OW11325  14.503  11.372   8.044
 3184SOL    HW111326  14.595  11.370   8.020
 3184SOL    HW211327  14.502  11.411   8.131
 3185SOL     OW11328   2.746   6.542   3.608
 3185SOL    HW111329   2.710   6.628   3.589
 3185SOL    HW211330   2.804   6.557   3.683
 3186SOL     OW11331  12.137   6.264  12.109
 3186SOL    HW111332  12.112   6.230  12.194
 3186SOL    HW211333  12.215   6.317  12.126
 3187SOL     OW11334  11.861   5.997   0.169
 3187SOL    HW111335  11.891   5.906   0.164
 3187SOL    HW211336  11.911   6.042   0.101
 3188SOL     OW11337   4.675   3.829   3.623
 3188SOL    HW111338   4.734   3.892   3.665
 3188SOL    HW211339   4.726   3.795   3.549
 3189SOL     OW11340   9.503   0.245  11.045
 3189SOL    HW111341   9.442   0.261  10.973
 3189SOL    HW211342   9.555   0.325  11.049
 3190SOL     OW11343   1.969   2.692   8.145
 3190SOL    HW111344   1.892   2.742   8.118
 3190SOL    HW211345   2.042   2.733   8.098
 3191SOL     OW11346   5.641  14.299   6.044
 3191SOL    HW111347   5.556  14.264   6.017
 3191SOL    HW211348   5.704  14.239   6.005
 3192SOL     OW11349   6.838   9.826   3.957
 3192SOL    HW111350   6.906   9.800   3.895
 3192SOL    HW211351   6.878   9.895   4.009
 3193SOL     OW11352  10.463   4.961   7.753
 3193SOL    HW111353  10.433   4.953   7.662
 3193SOL    HW211354  10.546   4.913   7.756
 3194SOL     OW11355   0.951   0.153  14.760
 3194SOL    HW111356   0.977   0.157  14.853
 3194SOL    HW211357   0.857   0.167  14.761
 3195SOL     OW11358   3.362   3.968   8.676
 3195SOL    HW111359   3.340   4.035   8.741
 3195SOL    HW211360   3.444   3.999   8.637
 3196SOL     OW11361   8.011   7.086  12.836
 3196SOL    HW111362   8.095   7.053  12.804
 3196SOL    HW211363   7.946   7.026  12.799
 3197SOL     OW11364   4.534   0.023  12.642
 3197SOL    HW111365   4.468   0.030  12.711
 3197SOL    HW211366   4.613   0.058  12.681
 3198SOL     OW11367   0.333  14.659   1.655
 3198SOL    HW111368   0.372  14.637   1.571
 3198SOL    HW211369   0.252  14.607   1.659
 3199SOL     OW11370   1.678   0.328  11.474
 3199SOL    HW111371   1.772   0.335  11.493
 3199SOL    HW211372   1.636   0.368  11.550
 3200SOL     OW11373   1.056  12.873  13.284
 3200SOL    HW111374   1.070  12.835  13.370
 3200SOL    HW211375   1.141  12.871  13.241
 3201SOL     OW11376   5.392   7.264   4.243
 3201SOL    HW111377   5.424   7.266   4.333
 3201SOL    HW211378   5.439   7.192   4.202
 3202SOL     OW11379  14.081   4.732   3.227
 3202SOL    HW111380  14.020   4.798   3.196
 3202SOL    HW211381  14.166   4.775   3.224
 3203SOL     OW11382   3.554  12.088   6.989
 3203SOL    HW111383   3.488  12.021   7.008
 3203SOL    HW211384   3.524  12.164   7.038
 3204SOL     OW11385   0.476   9.790   8.637
 3204SOL    HW111386   0.568   9.788   8.666
 3204SOL    HW211387   0.430   9.838   8.707
 3205SOL     OW11388   1.544  12.020  13.205
 3205SOL    HW111389   1.562  12.105  13.245
 3205SOL    HW211390   1.586  11.956  13.263
 3206SOL     OW11391  11.930   2.316   3.377
 3206SOL    HW111392  11.931   2.309   3.472
 3206SOL    HW211393  11.849   2.272   3.350
 3207SOL     OW11394   7.340  14.143  10.337
 3207SOL    HW111395   7.430  14.123  10.363
 3207SOL    HW211396   7.297  14.058  10.330
 3208SOL     OW11397   7.477   5.257   5.705
 3208SOL    HW111398   7.548   5.317   5.729
 3208SOL    HW211399   7.513   5.207   5.631
 3209SOL     OW11400  13.328   0.330   1.588
 3209SOL    HW111401  13.375   0.407   1.619
 3209SOL    HW211402  13.296   0.288   1.668
 3210SOL     OW11403  10.737  14.235   5.955
 3210SOL    HW111404  10.714  14.174   5.885
 3210SOL    HW211405  10.668  14.224   6.020
 3211SOL     OW11406   2.305   7.408   8.940
 3211SOL    HW111407   2.251   7.437   9.014
 3211SOL    HW211408   2.261   7.442   8.863
 3212SOL     OW11409   6.497   1.841  12.406
 3212SOL    HW111410   6.546   1.793  12.473
 3212SOL    HW211411   6.532   1.930  12.409
 3213SOL     OW11412   2.403   9.130   7.823
 3213SOL    HW111413   2.381   9.054   7.876
 3213SOL    HW211414   2.481   9.167   7.865
 3214SOL     OW11415  14.659   0.617   9.708
 3214SOL    HW111416  14.704   0.545   9.664
 3214SOL    HW211417  14.688   0.612   9.799
 3215SOL     OW11418   4.294  14.654   8.201
 3215SOL    HW111419   4.386  14.642   8.176
 3215SOL    HW211420   4.298  14.706   8.281
 3216SOL     OW11421   5.498  10.852  13.230
 3216SOL    HW111422   5.491  10.925  13.169
 3216SOL    HW211423   5.542  10.889  13.306
 3217SOL     OW11424  11.080  13.218   3.495
 3217SOL    HW111425  11.011  13.258   3.442
 3217SOL    HW211426  11.034  13.183   3.572
 3218SOL     OW11427   0.283   4.262   3.127
 3218SOL    HW111428   0.301   4.237   3.218
 3218SOL    HW211429   0.366   4.251   3.082
 3219SOL     OW11430   1.615   0.391   7.655
 3219SOL    HW111431   1.685   0.325   7.661
 3219SOL    HW211432   1.657   0.467   7.616
 3220SOL     OW11433  13.562   1.784   1.848
 3220SOL    HW111434  13.517   1.803   1.766
 3220SOL    HW211435  13.511   1.829   1.915
 3221SOL     OW11436   0.244   8.151  14.333
 3221SOL    HW111437   0.258   8.056  14.330
 3221SOL    HW211438   0.155   8.163  14.299
 3222SOL     OW11439   9.366  14.517   0.024
 3222SOL    HW111440   9.301  14.525  14.833
 3222SOL    HW211441   9.369  14.424   0.044
 3223SOL     OW11442  11.562   8.062   3.867
 3223SOL    HW111443  11.645   8.059   3.914
 3223SOL    HW211444  11.561   7.983   3.813
 3224SOL     OW11445   1.817  12.048   8.451
 3224SOL    HW111446   1.794  12.039   8.359
 3224SOL    HW211447   1.827  12.142   8.464
 3225SOL     OW11448   7.891  13.926   9.731
 3225SOL    HW111449   7.871  13.833   9.724
 3225SOL    HW211450   7.923  13.951   9.645
 3226SOL     OW11451  12.169   4.784  13.414
 3226SOL    HW111452  12.113   4.740  13.349
 3226SOL    HW211453  12.250   4.802  13.366
 3227SOL     OW11454   2.850   7.748  13.407
 3227SOL    HW111455   2.759   7.779  13.405
 3227SOL    HW211456   2.850   7.678  13.473
 3228SOL     OW11457   4.147   3.509   0.998
 3228SOL    HW111458   4.057   3.531   0.975
 3228SOL    HW211459   4.140   3.452   1.074
 3229SOL     OW11460   4.417   3.688   2.401
 3229SOL    HW111461   4.473   3.747   2.352
 3229SOL    HW211462   4.334   3.735   2.410
 3230SOL     OW11463   0.115   0.005  13.620
 3230SOL    HW111464   0.151   0.050  13.543
 3230SOL    HW211465   0.107   0.073  13.686
 3231SOL     OW11466   7.449   5.805  10.705
 3231SOL    HW111467   7.397   5.800  10.786
 3231SOL    HW211468   7.431   5.893  10.671
 3232SOL     OW11469  12.709   1.222  13.927
 3232SOL    HW111470  12.671   1.257  14.008
 3232SOL    HW211471  12.633   1.208  13.869
 3233SOL     OW11472   4.114  14.459   1.653
 3233SOL    HW111473   4.163  14.433   1.731
 3233SOL    HW211474   4.041  14.511   1.687
 3234SOL     OW11475   1.888  10.044   7.173
 3234SOL    HW111476   1.960   9.984   7.194
 3234SOL    HW211477   1.908  10.075   7.084
 3235SOL     OW11478   6.556   2.166   9.693
 3235SOL    HW111479   6.589   2.221   9.622
 3235SOL    HW211480   6.522   2.088   9.649
 3236SOL     OW11481   2.391   2.190   9.089
 3236SOL    HW111482   2.426   2.194   9.000
 3236SOL    HW211483   2.363   2.280   9.108
 3237SOL     OW11484   1.007   7.241   2.727
 3237SOL    HW111485   0.945   7.175   2.698
 3237SOL    HW211486   1.016   7.300   2.653
 3238SOL     OW11487   9.244   4.140   5.533
 3238SOL    HW111488   9.157   4.116   5.564
 3238SOL    HW211489   9.281   4.059   5.499
 3239SOL     OW11490   3.351   2.496   1.010
 3239SOL    HW111491   3.284   2.508   0.942
 3239SOL    HW211492   3.377   2.404   1.003
 3240SOL     OW11493   2.118  11.984   6.284
 3240SOL    HW111494   2.193  12.024   6.327
 3240SOL    HW211495   2.134  11.998   6.191
 3241SOL     OW11496   7.960  11.495   5.646
 3241SOL    HW111497   8.014  11.418   5.658
 3241SOL    HW211498   7.870  11.462   5.646
 3242SOL     OW11499   3.874  10.456  11.745
 3242SOL    HW111500   3.789  10.423  11.772
 3242SOL    HW211501   3.898  10.400  11.670
 3243SOL     OW11502   2.866   1.246   2.607
 3243SOL    HW111503   2.795   1.182   2.599
 3243SOL    HW211504   2.866   1.293   2.524
 3244SOL     OW11505   8.423   1.231   7.468
 3244SOL    HW111506   8.383   1.145   7.455
 3244SOL    HW211507   8.504   1.214   7.516
 3245SOL     OW11508  12.852   2.912  12.517
 3245SOL    HW111509  12.927   2.895  12.574
 3245SOL    HW211510  12.879   2.881  12.431
 3246SOL     OW11511   9.127   3.945   4.107
 3246SOL    HW111512   9.205   3.963   4.055
 3246SOL    HW211513   9.088   3.868   4.065
 3247SOL     OW11514  10.856   5.142   6.999
 3247SOL    HW111515  10.887   5.214   7.054
 3247SOL    HW211516  10.762   5.139   7.015
 3248SOL     OW11517   3.946   5.346   6.598
 3248SOL    HW111518   4.015   5.347   6.664
 3248SOL    HW211519   3.885   5.414   6.626
 3249SOL     OW11520  13.480   1.909   6.218
 3249SOL    HW111521  13.464   1.979   6.155
 3249SOL    HW211522  13.492   1.831   6.164
 3250SOL     OW11523   9.769   1.155  12.494
 3250SOL    HW111524   9.715   1.206  12.434
 3250SOL    HW211525   9.855   1.199  12.492
 3251SOL     OW11526   4.246  11.126   3.337
 3251SOL    HW111527   4.184  11.078   3.282
 3251SOL    HW211528   4.268  11.065   3.408
 3252SOL     OW11529  10.111   1.098   4.079
 3252SOL    HW111530  10.087   1.040   4.008
 3252SOL    HW211531  10.094   1.047   4.159
 3253SOL     OW11532   4.375   5.001  13.744
 3253SOL    HW111533   4.464   5.037  13.737
 3253SOL    HW211534   4.324   5.051  13.681
 3254SOL     OW11535  14.407  10.587   8.141
 3254SOL    HW111536  14.375  10.509   8.187
 3254SOL    HW211537  14.499  10.568   8.123
 3255SOL     OW11538   0.341   0.530  10.987
 3255SOL    HW111539   0.435   0.521  10.997
 3255SOL    HW211540   0.328   0.549  10.894
 3256SOL     OW11541   7.718  11.180   3.570
 3256SOL    HW111542   7.747  11.122   3.641
 3256SOL    HW211543   7.632  11.210   3.598
 3257SOL     OW11544  13.729   8.169   7.683
 3257SOL    HW111545  13.788   8.129   7.747
 3257SOL    HW211546  13.785   8.226   7.630
 3258SOL     OW11547   4.178   1.561  11.475
 3258SOL    HW111548   4.267   1.558  11.511
 3258SOL    HW211549   4.140   1.641  11.511
 3259SOL     OW11550   0.303   9.066  10.246
 3259SOL    HW111551   0.288   9.020  10.164
 3259SOL    HW211552   0.236   9.134  10.248
 3260SOL     OW11553  13.331   0.738   7.272
 3260SOL    HW111554  13.327   0.643   7.280
 3260SOL    HW211555  13.424   0.758   7.266
 3261SOL     OW11556   4.499   3.372   5.210
 3261SOL    HW111557   4.567   3.437   5.224
 3261SOL    HW211558   4.418   3.423   5.206
 3262SOL     OW11559   0.743   1.390   6.440
 3262SOL    HW111560   0.734   1.421   6.350
 3262SOL    HW211561   0.653   1.374   6.469
 3263SOL     OW11562  14.591   4.905   1.124
 3263SOL    HW111563  14.570   4.812   1.110
 3263SOL    HW211564  14.642   4.930   1.046
 3264SOL     OW11565   1.582   4.121  10.985
 3264SOL    HW111566   1.569   4.164  11.070
 3264SOL    HW211567   1.494   4.117  10.947
 3265SOL     OW11568   1.990  11.630   3.793
 3265SOL    HW111569   2.039  11.700   3.837
 3265SOL    HW211570   1.967  11.667   3.708
 3266SOL     OW11571   4.879   7.219  10.048
 3266SOL    HW111572   4.892   7.309  10.076
 3266SOL    HW211573   4.927   7.166  10.112
 3267SOL     OW11574   4.539   1.040   0.984
 3267SOL    HW111575   4.526   0.951   1.017
 3267SOL    HW211576   4.472   1.092   1.027
 3268SOL     OW11577   8.675   0.658   0.006
 3268SOL    HW111578   8.598   0.706   0.037
 3268SOL    HW211579   8.648   0.622  14.800
 3269SOL     OW11580   1.547   2.848  13.170
 3269SOL    HW111581   1.614   2.915  13.159
 3269SOL    HW211582   1.526   2.820  13.080
 3270SOL     OW11583   2.591   8.537  14.468
 3270SOL    HW111584   2.508   8.571  14.433
 3270SOL    HW211585   2.652   8.609  14.457
 3271SOL     OW11586  13.077  14.533  14.825
 3271SOL    HW111587  13.127  14.602  14.869
 3271SOL    HW211588  12.993  14.531  14.872
 3272SOL     OW11589   3.665   7.196  13.221
 3272SOL    HW111590   3.602   7.268  13.214
 3272SOL    HW211591   3.719   7.219  13.297
 3273SOL     OW11592   3.815  13.802  12.341
 3273SOL    HW111593   3.880  13.815  12.272
 3273SOL    HW211594   3.864  13.762  12.413
 3274SOL     OW11595   2.532   3.083   9.291
 3274SOL    HW111596   2.531   3.122   9.378
 3274SOL    HW211597   2.448   3.039   9.283
 3275SOL     OW11598   9.189   4.233   6.823
 3275SOL    HW111599   9.267   4.287   6.811
 3275SOL    HW211600   9.182   4.182   6.742
 3276SOL     OW11601   3.213   3.004   2.242
 3276SOL    HW111602   3.282   2.944   2.213
 3276SOL    HW211603   3.137   2.979   2.190
 3277SOL     OW11604   2.043   7.014   8.359
 3277SOL    HW111605   2.041   7.105   8.390
 3277SOL    HW211606   2.053   7.022   8.264
 3278SOL     OW11607   3.236  10.429   8.777
 3278SOL    HW111608   3.312  10.431   8.835
 3278SOL    HW211609   3.273  10.441   8.690
 3279SOL     OW11610  11.172   2.910   6.767
 3279SOL    HW111611  11.153   2.943   6.855
 3279SOL    HW211612  11.229   2.977   6.728
 3280SOL     OW11613   0.920   3.219   9.013
 3280SOL    HW111614   0.956   3.135   8.984
 3280SOL    HW211615   0.916   3.212   9.108
 3281SOL     OW11616   5.830   8.391   4.290
 3281SOL    HW111617   5.813   8.304   4.326
 3281SOL    HW211618   5.921   8.409   4.312
 3282SOL     OW11619  10.109   4.364   1.359
 3282SOL    HW111620  10.194   4.324   1.374
 3282SOL    HW211621  10.057   4.340   1.436
 3283SOL     OW11622  11.192   2.749   3.777
 3283SOL    HW111623  11.258   2.759   3.709
 3283SOL    HW211624  11.127   2.817   3.758
 3284SOL     OW11625  10.726  13.325   9.929
 3284SOL    HW111626  10.797  13.358   9.984
 3284SOL    HW211627  10.760  13.331   9.839
 3285SOL     OW11628  13.984  14.419   2.037
 3285SOL    HW111629  14.057  14.478   2.052
 3285SOL    HW211630  13.942  14.451   1.957
 3286SOL     OW11631   3.117  11.257   4.375
 3286SOL    HW111632   3.065  11.323   4.421
 3286SOL    HW211633   3.207  11.276   4.401
 3287SOL     OW11634  13.282  14.873   9.564
 3287SOL    HW111635  13.212  14.820   9.526
 3287SOL    HW211636  13.277   0.079   9.518
 3288SOL     OW11637   6.509   4.255   0.009
 3288SOL    HW111638   6.502   4.299  14.802
 3288SOL    HW211639   6.530   4.324   0.071
 3289SOL     OW11640  13.046  12.915   4.943
 3289SOL    HW111641  13.023  12.874   5.026
 3289SOL    HW211642  13.082  12.844   4.890
 3290SOL     OW11643   0.110   6.396  14.085
 3290SOL    HW111644   0.086   6.310  14.119
 3290SOL    HW211645   0.039   6.454  14.113
 3291SOL     OW11646   0.576  12.391  12.830
 3291SOL    HW111647   0.643  12.423  12.770
 3291SOL    HW211648   0.590  12.442  12.910
 3292SOL     OW11649   5.654  11.683  13.650
 3292SOL    HW111650   5.660  11.778  13.641
 3292SOL    HW211651   5.715  11.662  13.720
 3293SOL     OW11652   2.380   3.414   7.923
 3293SOL    HW111653   2.365   3.468   7.846
 3293SOL    HW211654   2.461   3.449   7.962
 3294SOL     OW11655   9.939  11.285  14.295
 3294SOL    HW111656   9.850  11.290  14.330
 3294SOL    HW211657   9.930  11.239  14.212
 3295SOL     OW11658   4.212   9.668   3.005
 3295SOL    HW111659   4.182   9.714   3.084
 3295SOL    HW211660   4.264   9.595   3.038
 3296SOL     OW11661   7.098   8.477  12.662
 3296SOL    HW111662   7.086   8.477  12.567
 3296SOL    HW211663   7.012   8.499  12.697
 3297SOL     OW11664  12.236   5.516   2.081
 3297SOL    HW111665  12.283   5.600   2.079
 3297SOL    HW211666  12.254   5.480   2.167
 3298SOL     OW11667  13.336  13.833   7.396
 3298SOL    HW111668  13.308  13.919   7.365
 3298SOL    HW211669  13.368  13.788   7.317
 3299SOL     OW11670  10.246   3.214   5.915
 3299SOL    HW111671  10.232   3.139   5.973
 3299SOL    HW211672  10.318   3.188   5.858
 3300SOL     OW11673   9.808  13.633   4.408
 3300SOL    HW111674   9.814  13.562   4.473
 3300SOL    HW211675   9.869  13.700   4.440
 3301SOL     OW11676  13.897   2.556  12.387
 3301SOL    HW111677  13.862   2.490  12.446
 3301SOL    HW211678  13.858   2.638  12.417
 3302SOL     OW11679   4.182  13.059   0.346
 3302SOL    HW111680   4.260  13.039   0.397
 3302SOL    HW211681   4.112  13.008   0.388
 3303SOL     OW11682  11.123  12.391   6.800
 3303SOL    HW111683  11.029  12.379   6.809
 3303SOL    HW211684  11.152  12.421   6.886
 3304SOL     OW11685   3.091   6.809  12.011
 3304SOL    HW111686   3.059   6.829  11.923
 3304SOL    HW211687   3.124   6.893  12.044
 3305SOL     OW11688   4.808   7.773   4.609
 3305SOL    HW111689   4.862   7.821   4.670
 3305SOL    HW211690   4.718   7.795   4.633
 3306SOL     OW11691   9.518   8.534  11.106
 3306SOL    HW111692   9.540   8.454  11.059
 3306SOL    HW211693   9.503   8.599  11.038
 3307SOL     OW11694  14.807  11.037   6.163
 3307SOL    HW111695  14.776  11.017   6.075
 3307SOL    HW211696  14.813  11.132   6.166
 3308SOL     OW11697   5.838   2.719  10.798
 3308SOL    HW111698   5.904   2.651  10.811
 3308SOL    HW211699   5.888   2.799  10.787
 3309SOL     OW11700  14.222   1.868   0.876
 3309SOL    HW111701  14.153   1.908   0.930
 3309SOL    HW211702  14.268   1.942   0.838
 3310SOL     OW11703  13.484   2.483  12.548
 3310SOL    HW111704  13.399   2.439  12.549
 3310SOL    HW211705  13.463   2.573  12.523
 3311SOL     OW11706   7.966   5.820   2.672
 3311SOL    HW111707   8.053   5.780   2.667
 3311SOL    HW211708   7.917   5.764   2.731
 3312SOL     OW11709  12.252   6.928   7.026
 3312SOL    HW111710  12.254   6.847   7.077
 3312SOL    HW211711  12.179   6.917   6.965
 3313SOL     OW11712   5.418  12.976   7.952
 3313SOL    HW111713   5.503  12.936   7.933
 3313SOL    HW211714   5.426  13.066   7.922
 3314SOL     OW11715   9.256   1.136   1.828
 3314SOL    HW111716   9.181   1.077   1.829
 3314SOL    HW211717   9.280   1.143   1.735
 3315SOL     OW11718   9.747  10.832  12.499
 3315SOL    HW111719   9.732  10.778  12.576
 3315SOL    HW211720   9.771  10.918  12.534
 3316SOL     OW11721   3.849   7.476   8.306
 3316SOL    HW111722   3.775   7.535   8.321
 3316SOL    HW211723   3.877   7.495   8.217
 3317SOL     OW11724  11.000  14.243   6.612
 3317SOL    HW111725  10.999  14.166   6.669
 3317SOL    HW211726  11.093  14.261   6.598
 3318SOL     OW11727   8.291   5.798  14.413
 3318SOL    HW111728   8.276   5.866  14.348
 3318SOL    HW211729   8.376   5.760  14.390
 3319SOL     OW11730   1.588  12.316   7.641
 3319SOL    HW111731   1.583  12.331   7.736
 3319SOL    HW211732   1.634  12.392   7.607
 3320SOL     OW11733   0.014   2.623   5.290
 3320SOL    HW111734  14.810   2.633   5.243
 3320SOL    HW211735   0.081   2.650   5.228
 3321SOL     OW11736   7.375  13.058  12.415
 3321SOL    HW111737   7.442  13.006  12.370
 3321SOL    HW211738   7.412  13.145  12.421
 3322SOL     OW11739   2.512  13.583   5.911
 3322SOL    HW111740   2.497  13.498   5.869
 3322SOL    HW211741   2.588  13.568   5.968
 3323SOL     OW11742   5.101   0.649  10.927
 3323SOL    HW111743   5.178   0.676  10.877
 3323SOL    HW211744   5.121   0.673  11.017
 3324SOL     OW11745   8.831   7.075   6.341
 3324SOL    HW111746   8.840   7.162   6.379
 3324SOL    HW211747   8.914   7.031   6.361
 3325SOL     OW11748   3.882  10.835   1.727
 3325SOL    HW111749   3.918  10.897   1.664
 3325SOL    HW211750   3.789  10.857   1.732
 3326SOL     OW11751  11.552   9.513   8.873
 3326SOL    HW111752  11.603   9.586   8.839
 3326SOL    HW211753  11.554   9.524   8.968
 3327SOL     OW11754  11.448   8.599   6.116
 3327SOL    HW111755  11.416   8.671   6.169
 3327SOL    HW211756  11.489   8.640   6.040
 3328SOL     OW11757   9.671   3.531   2.393
 3328SOL    HW111758   9.604   3.548   2.460
 3328SOL    HW211759   9.741   3.485   2.440
 3329SOL     OW11760   5.284   0.830   3.573
 3329SOL    HW111761   5.368   0.873   3.591
 3329SOL    HW211762   5.220   0.881   3.621
 3330SOL     OW11763  11.109   1.568  10.797
 3330SOL    HW111764  11.153   1.610  10.871
 3330SOL    HW211765  11.083   1.641  10.740
 3331SOL     OW11766   9.264  13.068   2.200
 3331SOL    HW111767   9.272  12.991   2.144
 3331SOL    HW211768   9.216  13.037   2.277
 3332SOL     OW11769  14.373  11.857   8.130
 3332SOL    HW111770  14.308  11.794   8.099
 3332SOL    HW211771  14.457  11.815   8.110
 3333SOL     OW11772   0.670   2.754   4.282
 3333SOL    HW111773   0.621   2.691   4.334
 3333SOL    HW211774   0.664   2.721   4.192
 3334SOL     OW11775   9.447   1.573   3.127
 3334SOL    HW111776   9.537   1.560   3.096
 3334SOL    HW211777   9.446   1.662   3.161
 3335SOL     OW11778   4.499  13.125   0.230
 3335SOL    HW111779   4.591  13.139   0.209
 3335SOL    HW211780   4.485  13.032   0.216
 3336SOL     OW11781  11.287   5.467   8.460
 3336SOL    HW111782  11.344   5.416   8.518
 3336SOL    HW211783  11.320   5.450   8.372
 3337SOL     OW11784   1.193   2.776   4.827
 3337SOL    HW111785   1.131   2.714   4.789
 3337SOL    HW211786   1.175   2.773   4.921
 3338SOL     OW11787   0.078   6.008  13.333
 3338SOL    HW111788   0.054   5.915  13.337
 3338SOL    HW211789  14.873   6.054  13.319
 3339SOL     OW11790  13.599  12.390  12.128
 3339SOL    HW111791  13.597  12.484  12.145
 3339SOL    HW211792  13.655  12.381  12.051
 3340SOL     OW11793   2.028   6.426  12.264
 3340SOL    HW111794   1.941   6.393  12.287
 3340SOL    HW211795   2.039   6.503  12.319
 3341SOL     OW11796   9.704  14.063  10.118
 3341SOL    HW111797   9.669  14.115  10.190
 3341SOL    HW211798   9.660  13.979  10.125
 3342SOL     OW11799  10.412   6.077   7.077
 3342SOL    HW111800  10.352   6.003   7.063
 3342SOL    HW211801  10.363   6.153   7.045
 3343SOL     OW11802   6.223   1.434   0.646
 3343SOL    HW111803   6.151   1.482   0.605
 3343SOL    HW211804   6.206   1.440   0.740
 3344SOL     OW11805   4.052   1.310   4.982
 3344SOL    HW111806   4.123   1.265   4.937
 3344SOL    HW211807   4.001   1.241   5.023
 3345SOL     OW11808  10.190   7.517  14.351
 3345SOL    HW111809  10.169   7.459  14.277
 3345SOL    HW211810  10.141   7.597  14.334
 3346SOL     OW11811   1.001  10.632   7.793
 3346SOL    HW111812   0.906  10.632   7.786
 3346SOL    HW211813   1.018  10.647   7.886
 3347SOL     OW11814   0.848   6.407   1.352
 3347SOL    HW111815   0.874   6.433   1.264
 3347SOL    HW211816   0.768   6.456   1.369
 3348SOL     OW11817   5.282   0.218   1.816
 3348SOL    HW111818   5.268   0.124   1.833
 3348SOL    HW211819   5.286   0.257   1.904
 3349SOL     OW11820  12.683   2.027   4.994
 3349SOL    HW111821  12.672   2.045   5.087
 3349SOL    HW211822  12.775   2.003   4.985
 3350SOL     OW11823   7.243   0.148  12.476
 3350SOL    HW111824   7.209   0.059  12.491
 3350SOL    HW211825   7.211   0.198  12.551
 3351SOL     OW11826   0.366   6.083   2.720
 3351SOL    HW111827   0.355   6.178   2.719
 3351SOL    HW211828   0.304   6.052   2.654
 3352SOL     OW11829   7.245   5.864  10.351
 3352SOL    HW111830   7.205   5.871  10.437
 3352SOL    HW211831   7.253   5.954  10.320
 3353SOL     OW11832   7.135   3.166  13.719
 3353SOL    HW111833   7.207   3.227  13.731
 3353SOL    HW211834   7.090   3.196  13.640
 3354SOL     OW11835  10.751   2.523   8.782
 3354SOL    HW111836  10.811   2.456   8.814
 3354SOL    HW211837  10.799   2.605   8.791
 3355SOL     OW11838  13.720   9.457   4.565
 3355SOL    HW111839  13.814   9.441   4.573
 3355SOL    HW211840  13.705   9.471   4.472
 3356SOL     OW11841  12.439   9.116   9.746
 3356SOL    HW111842  12.365   9.176   9.734
 3356SOL    HW211843  12.508   9.170   9.785
 3357SOL     OW11844   2.558  12.235  10.207
 3357SOL    HW111845   2.531  12.323  10.181
 3357SOL    HW211846   2.652  12.244  10.225
 3358SOL     OW11847   2.069  10.430  14.824
 3358SOL    HW111848   2.141  10.404  14.767
 3358SOL    HW211849   2.096  10.516  14.859
 3359SOL     OW11850   2.396   1.569   3.199
 3359SOL    HW111851   2.414   1.638   3.135
 3359SOL    HW211852   2.374   1.493   3.147
 3360SOL     OW11853   7.929   2.692   8.629
 3360SOL    HW111854   7.879   2.613   8.651
 3360SOL    HW211855   7.955   2.679   8.538
 3361SOL     OW11856   3.684   6.656  12.206
 3361SOL    HW111857   3.654   6.731  12.256
 3361SOL    HW211858   3.609   6.633  12.150
 3362SOL     OW11859  14.486   1.275   3.256
 3362SOL    HW111860  14.407   1.239   3.295
 3362SOL    HW211861  14.535   1.313   3.329
 3363SOL     OW11862   3.916   5.240  11.211
 3363SOL    HW111863   3.936   5.148  11.192
 3363SOL    HW211864   3.997   5.275  11.246
 3364SOL     OW11865   6.370   8.419   8.476
 3364SOL    HW111866   6.437   8.352   8.461
 3364SOL    HW211867   6.317   8.383   8.547
 3365SOL     OW11868   4.064   1.751   5.685
 3365SOL    HW111869   4.005   1.765   5.611
 3365SOL    HW211870   4.080   1.656   5.685
 3366SOL     OW11871   1.676  14.326  11.569
 3366SOL    HW111872   1.758  14.287  11.600
 3366SOL    HW211873   1.671  14.301  11.476
 3367SOL     OW11874  10.998   9.764  10.768
 3367SOL    HW111875  11.075   9.791  10.718
 3367SOL    HW211876  11.019   9.789  10.858
 3368SOL     OW11877  11.192  12.206   3.201
 3368SOL    HW111878  11.283  12.234   3.194
 3368SOL    HW211879  11.169  12.217   3.293
 3369SOL     OW11880   5.785   7.784  10.959
 3369SOL    HW111881   5.814   7.697  10.987
 3369SOL    HW211882   5.830   7.799  10.876
 3370SOL     OW11883  12.535  10.886  12.583
 3370SOL    HW111884  12.486  10.964  12.609
 3370SOL    HW211885  12.478  10.841  12.521
 3371SOL     OW11886  10.667   7.094   3.853
 3371SOL    HW111887  10.603   7.129   3.791
 3371SOL    HW211888  10.637   7.123   3.939
 3372SOL     OW11889   9.114   4.899   3.742
 3372SOL    HW111890   9.145   4.931   3.658
 3372SOL    HW211891   9.113   4.976   3.799
 3373SOL     OW11892   6.141   4.330   3.325
 3373SOL    HW111893   6.083   4.342   3.400
 3373SOL    HW211894   6.214   4.278   3.359
 3374SOL     OW11895   0.689   4.841   2.254
 3374SOL    HW111896   0.662   4.919   2.302
 3374SOL    HW211897   0.725   4.875   2.172
 3375SOL     OW11898   9.000   4.664  13.614
 3375SOL    HW111899   9.072   4.724  13.632
 3375SOL    HW211900   8.976   4.627  13.700
 3376SOL     OW11901   6.763  14.591   7.508
 3376SOL    HW111902   6.721  14.584   7.594
 3376SOL    HW211903   6.779  14.500   7.482
 3377SOL     OW11904   0.706   7.049  12.967
 3377SOL    HW111905   0.744   7.132  12.939
 3377SOL    HW211906   0.780   6.997  12.996
 3378SOL     OW11907   8.939   1.435   9.375
 3378SOL    HW111908   8.868   1.409   9.316
 3378SOL    HW211909   8.907   1.413   9.463
 3379SOL     OW11910  10.639   3.022   7.975
 3379SOL    HW111911  10.730   3.041   7.997
 3379SOL    HW211912  10.628   2.929   7.992
 3380SOL     OW11913   9.560   7.078  13.111
 3380SOL    HW111914   9.527   6.991  13.091
 3380SOL    HW211915   9.487   7.123  13.153
 3381SOL     OW11916   9.740   0.219   5.411
 3381SOL    HW111917   9.821   0.261   5.443
 3381SOL    HW211918   9.759   0.197   5.320
 3382SOL     OW11919   5.441   8.443   2.812
 3382SOL    HW111920   5.510   8.410   2.754
 3382SOL    HW211921   5.489   8.481   2.886
 3383SOL     OW11922   0.900   1.746   5.811
 3383SOL    HW111923   0.806   1.761   5.799
 3383SOL    HW211924   0.904   1.669   5.868
 3384SOL     OW11925  11.342  10.814   9.199
 3384SOL    HW111926  11.347  10.908   9.181
 3384SOL    HW211927  11.433  10.787   9.208
 3385SOL     OW11928  10.348   2.352  11.903
 3385SOL    HW111929  10.428   2.401  11.886
 3385SOL    HW211930  10.327   2.371  11.995
 3386SOL     OW11931   4.622   7.381   2.191
 3386SOL    HW111932   4.705   7.424   2.172
 3386SOL    HW211933   4.603   7.329   2.112
 3387SOL     OW11934   6.547  11.930   3.890
 3387SOL    HW111935   6.480  11.880   3.843
 3387SOL    HW211936   6.504  12.014   3.909
 3388SOL     OW11937   5.119  13.780   5.414
 3388SOL    HW111938   5.040  13.725   5.418
 3388SOL    HW211939   5.103  13.850   5.477
 3389SOL     OW11940  10.816   5.950  12.138
 3389SOL    HW111941  10.765   5.927  12.060
 3389SOL    HW211942  10.751   5.963  12.206
 3390SOL     OW11943   8.529   2.723   5.295
 3390SOL    HW111944   8.577   2.652   5.339
 3390SOL    HW211945   8.597   2.780   5.260
 3391SOL     OW11946   5.310   7.729  14.194
 3391SOL    HW111947   5.285   7.639  14.173
 3391SOL    HW211948   5.406   7.729  14.189
 3392SOL     OW11949  12.746   5.954   5.703
 3392SOL    HW111950  12.710   5.988   5.785
 3392SOL    HW211951  12.810   6.021   5.676
 3393SOL     OW11952  13.863   5.049  12.410
 3393SOL    HW111953  13.899   5.048  12.321
 3393SOL    HW211954  13.804   4.974  12.413
 3394SOL     OW11955   2.043   8.132   9.899
 3394SOL    HW111956   2.066   8.186   9.824
 3394SOL    HW211957   2.120   8.077   9.915
 3395SOL     OW11958   2.508   9.654  10.263
 3395SOL    HW111959   2.544   9.579  10.310
 3395SOL    HW211960   2.572   9.723  10.276
 3396SOL     OW11961   9.280  10.170  12.887
 3396SOL    HW111962   9.204  10.120  12.917
 3396SOL    HW211963   9.242  10.251  12.853
 3397SOL     OW11964   1.696   9.973   5.575
 3397SOL    HW111965   1.677   9.909   5.644
 3397SOL    HW211966   1.632   9.953   5.506
 3398SOL     OW11967  10.067  14.193   2.198
 3398SOL    HW111968  10.123  14.220   2.126
 3398SOL    HW211969   9.979  14.223   2.173
 3399SOL     OW11970  12.630  10.575  13.582
 3399SOL    HW111971  12.590  10.571  13.669
 3399SOL    HW211972  12.606  10.661  13.549
 3400SOL     OW11973   7.737   0.626   2.141
 3400SOL    HW111974   7.686   0.559   2.187
 3400SOL    HW211975   7.777   0.678   2.210
 3401SOL     OW11976   5.880  13.372   6.402
 3401SOL    HW111977   5.873  13.290   6.451
 3401SOL    HW211978   5.910  13.345   6.315
 3402SOL     OW11979   2.451  12.915   1.291
 3402SOL    HW111980   2.463  12.951   1.204
 3402SOL    HW211981   2.508  12.839   1.295
 3403SOL     OW11982  10.514  12.751   3.256
 3403SOL    HW111983  10.451  12.680   3.268
 3403SOL    HW211984  10.494  12.788   3.171
 3404SOL     OW11985   8.671  11.705   0.349
 3404SOL    HW111986   8.655  11.613   0.366
 3404SOL    HW211987   8.602  11.730   0.287
 3405SOL     OW11988   9.776   9.038   0.889
 3405SOL    HW111989   9.771   8.943   0.881
 3405SOL    HW211990   9.867   9.059   0.869
 3406SOL     OW11991   8.115  12.294  13.614
 3406SOL    HW111992   8.042  12.353  13.596
 3406SOL    HW211993   8.086  12.208  13.582
 3407SOL     OW11994   5.569   2.434   1.489
 3407SOL    HW111995   5.536   2.357   1.441
 3407SOL    HW211996   5.531   2.426   1.576
 3408SOL     OW11997   5.426   4.933  11.498
 3408SOL    HW111998   5.397   4.905  11.412
 3408SOL    HW211999   5.476   4.858  11.532
 3409SOL     OW12000  12.888   1.834   1.104
 3409SOL    HW112001  12.977   1.803   1.086
 3409SOL    HW212002  12.893   1.928   1.087
 3410SOL     OW12003  10.150  12.898  12.440
 3410SOL    HW112004  10.237  12.872  12.410
 3410SOL    HW212005  10.165  12.966  12.505
 3411SOL     OW12006   7.685  11.549  13.281
 3411SOL    HW112007   7.756  11.550  13.217
 3411SOL    HW212008   7.720  11.499  13.355
 3412SOL     OW12009   4.661   7.578   5.503
 3412SOL    HW112010   4.689   7.546   5.417
 3412SOL    HW212011   4.588   7.520   5.526
 3413SOL     OW12012   0.703   0.269   2.666
 3413SOL    HW112013   0.737   0.194   2.617
 3413SOL    HW212014   0.612   0.278   2.636
 3414SOL     OW12015   8.968  13.361  13.833
 3414SOL    HW112016   8.930  13.339  13.748
 3414SOL    HW212017   9.062  13.351  13.819
 3415SOL     OW12018   1.982   8.561  11.594
 3415SOL    HW112019   2.043   8.614  11.644
 3415SOL    HW212020   2.022   8.475  11.589
 3416SOL     OW12021  11.487  14.654   9.569
 3416SOL    HW112022  11.523  14.611   9.646
 3416SOL    HW212023  11.427  14.590   9.531
 3417SOL     OW12024   7.458   6.306   5.826
 3417SOL    HW112025   7.549   6.325   5.850
 3417SOL    HW212026   7.428   6.245   5.893
 3418SOL     OW12027   4.565   6.341  12.056
 3418SOL    HW112028   4.588   6.413  12.115
 3418SOL    HW212029   4.585   6.262  12.106
 3419SOL     OW12030   2.818  13.056   2.854
 3419SOL    HW112031   2.896  13.044   2.908
 3419SOL    HW212032   2.778  12.969   2.851
 3420SOL     OW12033  11.858   2.490  10.591
 3420SOL    HW112034  11.765   2.502  10.575
 3420SOL    HW212035  11.878   2.552  10.661
 3421SOL     OW12036   2.102   5.343   8.929
 3421SOL    HW112037   2.038   5.314   8.993
 3421SOL    HW212038   2.187   5.319   8.968
 3422SOL     OW12039   0.164   1.785   1.208
 3422SOL    HW112040   0.081   1.809   1.250
 3422SOL    HW212041   0.191   1.865   1.161
 3423SOL     OW12042   5.380   0.200  11.861
 3423SOL    HW112043   5.364   0.249  11.780
 3423SOL    HW212044   5.466   0.230  11.891
 3424SOL     OW12045   3.228   3.743  14.077
 3424SOL    HW112046   3.225   3.829  14.119
 3424SOL    HW212047   3.190   3.684  14.142
 3425SOL     OW12048  13.719   1.332   1.668
 3425SOL    HW112049  13.762   1.255   1.705
 3425SOL    HW212050  13.714   1.395   1.740
 3426SOL     OW12051   3.878  14.544   3.942
 3426SOL    HW112052   3.894  14.574   4.031
 3426SOL    HW212053   3.844  14.620   3.896
 3427SOL     OW12054   7.839   3.046  14.589
 3427SOL    HW112055   7.797   3.116  14.638
 3427SOL    HW212056   7.781   2.970  14.602
 3428SOL     OW12057   4.356  12.450  12.959
 3428SOL    HW112058   4.294  12.499  12.906
 3428SOL    HW212059   4.442  12.474  12.924
 3429SOL     OW12060   4.935   8.228   2.111
 3429SOL    HW112061   4.917   8.313   2.150
 3429SOL    HW212062   5.031   8.221   2.111
 3430SOL     OW12063   6.969   7.986   9.415
 3430SOL    HW112064   6.921   8.026   9.342
 3430SOL    HW212065   6.900   7.957   9.475
 3431SOL     OW12066   1.283  11.812   7.081
 3431SOL    HW112067   1.310  11.825   7.172
 3431SOL    HW212068   1.343  11.866   7.030
 3432SOL     OW12069   4.269  12.489   0.082
 3432SOL    HW112070   4.237  12.405   0.113
 3432SOL    HW212071   4.202  12.552   0.108
 3433SOL     OW12072   7.699   6.829  10.837
 3433SOL    HW112073   7.690   6.889  10.911
 3433SOL    HW212074   7.722   6.885  10.763
 3434SOL     OW12075   2.734   7.106  10.540
 3434SOL    HW112076   2.653   7.155  10.527
 3434SOL    HW212077   2.722   7.025  10.491
 3435SOL     OW12078   2.068   5.769   4.465
 3435SOL    HW112079   1.985   5.808   4.436
 3435SOL    HW212080   2.065   5.680   4.431
 3436SOL     OW12081   1.764   5.615   0.445
 3436SOL    HW112082   1.771   5.618   0.540
 3436SOL    HW212083   1.679   5.654   0.426
 3437SOL     OW12084   6.019   0.677   4.290
 3437SOL    HW112085   6.022   0.659   4.384
 3437SOL    HW212086   5.953   0.746   4.282
 3438SOL     OW12087   6.666   4.690   3.992
 3438SOL    HW112088   6.609   4.628   4.037
 3438SOL    HW212089   6.613   4.769   3.983
 3439SOL     OW12090   8.574  13.223   9.477
 3439SOL    HW112091   8.552  13.135   9.445
 3439SOL    HW212092   8.585  13.212   9.571
 3440SOL     OW12093  11.570  12.522   4.111
 3440SOL    HW112094  11.487  12.536   4.066
 3440SOL    HW212095  11.555  12.446   4.167
 3441SOL     OW12096   8.264   3.700   3.760
 3441SOL    HW112097   8.307   3.770   3.710
 3441SOL    HW212098   8.195   3.745   3.809
 3442SOL     OW12099  14.302  10.443  11.026
 3442SOL    HW112100  14.324  10.356  10.991
 3442SOL    HW212101  14.383  10.475  11.064
 3443SOL     OW12102   4.914   8.547   9.066
 3443SOL    HW112103   4.982   8.613   9.080
 3443SOL    HW212104   4.863   8.548   9.147
 3444SOL     OW12105  11.612   5.719  14.748
 3444SOL    HW112106  11.596   5.725  14.654
 3444SOL    HW212107  11.707   5.713  14.755
 3445SOL     OW12108   1.220   8.929  11.429
 3445SOL    HW112109   1.156   8.999  11.415
 3445SOL    HW212110   1.177   8.867  11.488
 3446SOL     OW12111  10.426  11.426   6.208
 3446SOL    HW112112  10.362  11.356   6.195
 3446SOL    HW212113  10.379  11.507   6.186
 3447SOL     OW12114   4.952  14.813  13.327
 3447SOL    HW112115   4.912  14.747  13.271
 3447SOL    HW212116   4.924  14.790  13.416
 3448SOL     OW12117   7.676   3.954   4.766
 3448SOL    HW112118   7.590   3.914   4.752
 3448SOL    HW212119   7.717   3.955   4.680
 3449SOL     OW12120  10.057  14.676  12.680
 3449SOL    HW112121   9.985  14.647  12.736
 3449SOL    HW212122  10.136  14.659  12.732
 3450SOL     OW12123   7.269   7.548   4.943
 3450SOL    HW112124   7.302   7.465   4.977
 3450SOL    HW212125   7.344   7.586   4.897
 3451SOL     OW12126   1.153   0.848  10.819
 3451SOL    HW112127   1.146   0.784  10.890
 3451SOL    HW212128   1.224   0.906  10.845
 3452SOL     OW12129  10.255   3.756   8.218
 3452SOL    HW112130  10.206   3.694   8.271
 3452SOL    HW212131  10.189   3.820   8.190
 3453SOL     OW12132  14.067   4.984  10.891
 3453SOL    HW112133  14.137   5.039  10.855
 3453SOL    HW212134  14.085   4.982  10.985
 3454SOL     OW12135   2.458   0.574   5.894
 3454SOL    HW112136   2.472   0.668   5.898
 3454SOL    HW212137   2.408   0.553   5.973
 3455SOL     OW12138   8.834   0.427   8.842
 3455SOL    HW112139   8.828   0.371   8.919
 3455SOL    HW212140   8.868   0.370   8.773
 3456SOL     OW12141   1.841   5.971  12.301
 3456SOL    HW112142   1.832   6.008  12.388
 3456SOL    HW212143   1.934   5.950  12.293
 3457SOL     OW12144  12.234   3.232   6.810
 3457SOL    HW112145  12.173   3.197   6.745
 3457SOL    HW212146  12.255   3.157   6.866
 3458SOL     OW12147  13.639   3.299  14.293
 3458SOL    HW112148  13.719   3.348  14.273
 3458SOL    HW212149  13.621   3.250  14.213
 3459SOL     OW12150   4.821   8.905   9.298
 3459SOL    HW112151   4.816   8.830   9.357
 3459SOL    HW212152   4.766   8.881   9.224
 3460SOL     OW12153  13.244  13.677  12.391
 3460SOL    HW112154  13.212  13.588  12.399
 3460SOL    HW212155  13.240  13.712  12.480
 3461SOL     OW12156   6.502   5.959  14.067
 3461SOL    HW112157   6.447   5.881  14.074
 3461SOL    HW212158   6.591   5.928  14.085
 3462SOL     OW12159   0.585  12.983  10.516
 3462SOL    HW112160   0.658  13.025  10.561
 3462SOL    HW212161   0.538  13.054  10.473
 3463SOL     OW12162   8.625   4.330  12.195
 3463SOL    HW112163   8.697   4.333  12.258
 3463SOL    HW212164   8.570   4.257  12.226
 3464SOL     OW12165   8.116  14.707   6.596
 3464SOL    HW112166   8.209  14.730   6.588
 3464SOL    HW212167   8.098  14.653   6.519
 3465SOL     OW12168  12.110   4.694  12.018
 3465SOL    HW112169  12.151   4.609  12.000
 3465SOL    HW212170  12.177   4.743  12.067
 3466SOL     OW12171   3.084  14.747  12.683
 3466SOL    HW112172   3.142  14.711  12.616
 3466SOL    HW212173   3.013  14.787  12.634
 3467SOL     OW12174  12.335   9.793   4.046
 3467SOL    HW112175  12.362   9.825   3.960
 3467SOL    HW212176  12.413   9.749   4.080
 3468SOL     OW12177   1.992   8.958   8.083
 3468SOL    HW112178   1.903   8.967   8.116
 3468SOL    HW212179   2.047   8.956   8.161
 3469SOL     OW12180  11.770  13.923   3.617
 3469SOL    HW112181  11.768  13.832   3.590
 3469SOL    HW212182  11.863  13.944   3.624
 3470SOL     OW12183   2.721   5.189   6.928
 3470SOL    HW112184   2.635   5.165   6.895
 3470SOL    HW212185   2.762   5.237   6.857
 3471SOL     OW12186   0.589  11.722  12.487
 3471SOL    HW112187   0.508  11.727  12.538
 3471SOL    HW212188   0.648  11.784  12.529
 3472SOL     OW12189   1.774   0.189   6.312
 3472SOL    HW112190   1.695   0.242   6.305
 3472SOL    HW212191   1.787   0.178   6.407
 3473SOL     OW12192   6.588  11.539   8.286
 3473SOL    HW112193   6.522  11.554   8.353
 3473SOL    HW212194   6.647  11.614   8.292
 3474SOL     OW12195   0.636   5.949  13.336
 3474SOL    HW112196   0.722   5.979  13.366
 3474SOL    HW212197   0.584   6.029  13.331
 3475SOL     OW12198  12.799   2.765  13.029
 3475SOL    HW112199  12.759   2.826  12.968
 3475SOL    HW212200  12.742   2.688  13.028
 3476SOL     OW12201   7.582   9.099   0.616
 3476SOL    HW112202   7.503   9.048   0.631
 3476SOL    HW212203   7.551   9.179   0.574
 3477SOL     OW12204   0.344   7.900   3.083
 3477SOL    HW112205   0.309   7.824   3.038
 3477SOL    HW212206   0.268   7.944   3.119
 3478SOL     OW12207   9.452  11.936  12.610
 3478SOL    HW112208   9.454  11.956  12.517
 3478SOL    HW212209   9.441  11.841  12.615
 3479SOL     OW12210   2.430   1.495   2.603
 3479SOL    HW112211   2.505   1.472   2.658
 3479SOL    HW212212   2.428   1.591   2.605
 3480SOL     OW12213   3.037  12.448  11.336
 3480SOL    HW112214   3.029  12.356  11.312
 3480SOL    HW212215   3.064  12.492  11.256
 3481SOL     OW12216  13.692  10.482  10.801
 3481SOL    HW112217  13.639  10.478  10.880
 3481SOL    HW212218  13.634  10.451  10.732
 3482SOL     OW12219   8.271   1.295  14.485
 3482SOL    HW112220   8.299   1.281  14.576
 3482SOL    HW212221   8.343   1.343  14.445
 3483SOL     OW12222   7.508   9.290   5.048
 3483SOL    HW112223   7.526   9.365   5.106
 3483SOL    HW212224   7.590   9.279   4.999
 3484SOL     OW12225   9.024   5.841  11.364
 3484SOL    HW112226   9.034   5.929  11.330
 3484SOL    HW212227   9.064   5.785  11.298
 3485SOL     OW12228   8.907  13.860  14.607
 3485SOL    HW112229   8.924  13.840  14.699
 3485SOL    HW212230   8.831  13.806  14.585
 3486SOL     OW12231   4.689  10.682   0.061
 3486SOL    HW112232   4.605  10.652   0.025
 3486SOL    HW212233   4.683  10.664   0.155
 3487SOL     OW12234  14.162   4.152   3.752
 3487SOL    HW112235  14.162   4.067   3.795
 3487SOL    HW212236  14.076   4.189   3.771
 3488SOL     OW12237   0.098   8.718   7.121
 3488SOL    HW112238   0.067   8.689   7.207
 3488SOL    HW212239   0.191   8.698   7.122
 3489SOL     OW12240  13.377  14.526  14.281
 3489SOL    HW112241  13.312  14.553  14.346
 3489SOL    HW212242  13.434  14.602  14.272
 3490SOL     OW12243   6.060   4.839   1.460
 3490SOL    HW112244   6.142   4.864   1.417
 3490SOL    HW212245   6.088   4.797   1.541
 3491SOL     OW12246   4.393  13.671   9.737
 3491SOL    HW112247   4.352  13.699   9.655
 3491SOL    HW212248   4.322  13.667   9.800
 3492SOL     OW12249  12.250  11.592  13.992
 3492SOL    HW112250  12.276  11.517  13.939
 3492SOL    HW212251  12.157  11.576  14.012
 3493SOL     OW12252   4.561  10.614   4.687
 3493SOL    HW112253   4.493  10.662   4.640
 3493SOL    HW212254   4.518  10.581   4.766
 3494SOL     OW12255   4.930   5.463  10.901
 3494SOL    HW112256   4.964   5.457  10.990
 3494SOL    HW212257   4.847   5.511  10.910
 3495SOL     OW12258  14.598   6.646   0.681
 3495SOL    HW112259  14.623   6.677   0.594
 3495SOL    HW212260  14.681   6.623   0.723
 3496SOL     OW12261   8.568   3.546  11.638
 3496SOL    HW112262   8.560   3.465  11.688
 3496SOL    HW212263   8.658   3.575  11.652
 3497SOL     OW12264   8.623   2.212   2.377
 3497SOL    HW112265   8.563   2.284   2.359
 3497SOL    HW212266   8.620   2.158   2.298
 3498SOL     OW12267  13.181  12.668  13.988
 3498SOL    HW112268  13.130  12.712  13.921
 3498SOL    HW212269  13.131  12.682  14.069
 3499SOL     OW12270   7.168   3.007   2.314
 3499SOL    HW112271   7.099   3.072   2.325
 3499SOL    HW212272   7.126   2.933   2.271
 3500SOL     OW12273   5.510   9.364   3.022
 3500SOL    HW112274   5.516   9.388   2.929
 3500SOL    HW212275   5.574   9.294   3.033
 3501SOL     OW12276  12.250  13.201   6.309
 3501SOL    HW112277  12.184  13.137   6.284
 3501SOL    HW212278  12.248  13.266   6.239
 3502SOL     OW12279   7.358   8.369  14.017
 3502SOL    HW112280   7.322   8.458  14.020
 3502SOL    HW212281   7.293   8.315  14.063
 3503SOL     OW12282   0.139  12.877  11.312
 3503SOL    HW112283   0.114  12.800  11.362
 3503SOL    HW212284   0.060  12.932  11.310
 3504SOL     OW12285   5.838  11.686  12.558
 3504SOL    HW112286   5.805  11.776  12.570
 3504SOL    HW212287   5.765  11.639  12.519
 3505SOL     OW12288  10.860  14.276   7.254
 3505SOL    HW112289  10.822  14.349   7.303
 3505SOL    HW212290  10.954  14.297   7.249
 3506SOL     OW12291   5.558   0.923   6.660
 3506SOL    HW112292   5.473   0.942   6.621
 3506SOL    HW212293   5.618   0.982   6.616
 3507SOL     OW12294   6.870   2.359   9.969
 3507SOL    HW112295   6.823   2.440   9.951
 3507SOL    HW212296   6.939   2.385  10.030
 3508SOL     OW12297   9.665   6.566   3.373
 3508SOL    HW112298   9.688   6.658   3.355
 3508SOL    HW212299   9.583   6.571   3.422
 3509SOL     OW12300  12.653  13.828   2.142
 3509SOL    HW112301  12.715  13.771   2.096
 3509SOL    HW212302  12.569  13.810   2.101
 3510SOL     OW12303  12.063   9.052   5.716
 3510SOL    HW112304  11.986   9.047   5.773
 3510SOL    HW212305  12.135   9.074   5.775
 3511SOL     OW12306   6.789   4.872  11.790
 3511SOL    HW112307   6.708   4.923  11.795
 3511SOL    HW212308   6.768   4.800  11.731
 3512SOL     OW12309   4.461   6.322   7.621
 3512SOL    HW112310   4.525   6.388   7.594
 3512SOL    HW212311   4.424   6.290   7.539
 3513SOL     OW12312  13.818   4.411   1.013
 3513SOL    HW112313  13.792   4.357   0.939
 3513SOL    HW212314  13.892   4.365   1.052
 3514SOL     OW12315  14.636   3.117   7.501
 3514SOL    HW112316  14.613   3.065   7.578
 3514SOL    HW212317  14.665   3.053   7.436
 3515SOL     OW12318   3.819   2.081   5.500
 3515SOL    HW112319   3.810   2.163   5.452
 3515SOL    HW212320   3.748   2.082   5.564
 3516SOL     OW12321   2.424   8.336   8.544
 3516SOL    HW112322   2.344   8.329   8.492
 3516SOL    HW212323   2.394   8.355   8.633
 3517SOL     OW12324   4.928   3.714   8.870
 3517SOL    HW112325   4.997   3.757   8.920
 3517SOL    HW212326   4.856   3.702   8.932
 3518SOL     OW12327  10.068  14.618   6.514
 3518SOL    HW112328   9.982  14.612   6.555
 3518SOL    HW212329  10.102  14.703   6.540
 3519SOL     OW12330   3.030   9.771   2.189
 3519SOL    HW112331   2.989   9.855   2.168
 3519SOL    HW212332   3.121   9.782   2.161
 3520SOL     OW12333  10.611  13.653  12.975
 3520SOL    HW112334  10.679  13.616  12.919
 3520SOL    HW212335  10.566  13.577  13.011
 3521SOL     OW12336   5.534   7.371   8.571
 3521SOL    HW112337   5.482   7.322   8.507
 3521SOL    HW212338   5.597   7.419   8.518
 3522SOL     OW12339   1.811  14.161   7.726
 3522SOL    HW112340   1.729  14.136   7.769
 3522SOL    HW212341   1.860  14.079   7.717
 3523SOL     OW12342  11.468  12.458   1.648
 3523SOL    HW112343  11.500  12.392   1.708
 3523SOL    HW212344  11.471  12.417   1.561
 3524SOL     OW12345   0.587   3.505  11.542
 3524SOL    HW112346   0.553   3.419  11.516
 3524SOL    HW212347   0.528   3.568  11.500
 3525SOL     OW12348   1.588   2.044  14.257
 3525SOL    HW112349   1.671   1.999  14.268
 3525SOL    HW212350   1.556   2.058  14.346
 3526SOL     OW12351   9.433   0.589   4.465
 3526SOL    HW112352   9.381   0.532   4.522
 3526SOL    HW212353   9.436   0.543   4.381
 3527SOL     OW12354  12.209   4.452  10.866
 3527SOL    HW112355  12.290   4.404  10.878
 3527SOL    HW212356  12.193   4.449  10.772
 3528SOL     OW12357  11.203   7.311   7.405
 3528SOL    HW112358  11.196   7.394   7.454
 3528SOL    HW212359  11.266   7.330   7.335
 3529SOL     OW12360   3.299   8.018   8.494
 3529SOL    HW112361   3.321   7.992   8.405
 3529SOL    HW212362   3.229   8.083   8.483
 3530SOL     OW12363   5.143   2.022  11.777
 3530SOL    HW112364   5.161   2.097  11.721
 3530SOL    HW212365   5.107   1.956  11.718
 3531SOL     OW12366  11.900  14.831   5.407
 3531SOL    HW112367  11.817  14.870   5.380
 3531SOL    HW212368  11.882  14.737   5.414
 3532SOL     OW12369   6.119   3.219  13.865
 3532SOL    HW112370   6.075   3.165  13.799
 3532SOL    HW212371   6.209   3.226  13.835
 3533SOL     OW12372   4.820  12.872  13.707
 3533SOL    HW112373   4.728  12.866  13.733
 3533SOL    HW212374   4.829  12.958  13.666
 3534SOL     OW12375  13.463  12.797   8.647
 3534SOL    HW112376  13.386  12.806   8.590
 3534SOL    HW212377  13.525  12.862   8.614
 3535SOL     OW12378   3.733   6.912   2.570
 3535SOL    HW112379   3.754   6.888   2.660
 3535SOL    HW212380   3.741   6.831   2.521
 3536SOL     OW12381   4.995   5.838   9.167
 3536SOL    HW112382   5.002   5.745   9.146
 3536SOL    HW212383   4.901   5.855   9.172
 3537SOL     OW12384  10.496   6.872  11.785
 3537SOL    HW112385  10.589   6.867  11.762
 3537SOL    HW212386  10.474   6.964  11.773
 3538SOL     OW12387   1.724   5.931   6.633
 3538SOL    HW112388   1.638   5.897   6.608
 3538SOL    HW212389   1.714   5.955   6.725
 3539SOL     OW12390   5.111  13.973   2.752
 3539SOL    HW112391   5.081  13.919   2.679
 3539SOL    HW212392   5.031  13.998   2.798
 3540SOL     OW12393  11.258   9.753   2.552
 3540SOL    HW112394  11.221   9.823   2.498
 3540SOL    HW212395  11.255   9.675   2.496
 3541SOL     OW12396   8.476   9.059  12.646
 3541SOL    HW112397   8.452   9.109  12.723
 3541SOL    HW212398   8.562   9.022  12.667
 3542SOL     OW12399   5.288   8.248   2.296
 3542SOL    HW112400   5.300   8.340   2.319
 3542SOL    HW212401   5.241   8.250   2.213
 3543SOL     OW12402   7.284   6.060   8.150
 3543SOL    HW112403   7.189   6.053   8.163
 3543SOL    HW212404   7.293   6.098   8.062
 3544SOL     OW12405   3.627   8.609   7.541
 3544SOL    HW112406   3.691   8.620   7.470
 3544SOL    HW212407   3.595   8.519   7.531
 3545SOL     OW12408  10.327   6.568   6.761
 3545SOL    HW112409  10.248   6.572   6.815
 3545SOL    HW212410  10.337   6.656   6.726
 3546SOL     OW12411   8.519   0.110  11.829
 3546SOL    HW112412   8.609   0.100  11.798
 3546SOL    HW212413   8.465   0.110  11.750
 3547SOL     OW12414   5.161   2.935   3.050
 3547SOL    HW112415   5.216   2.969   3.121
 3547SOL    HW212416   5.105   3.008   3.026
 3548SOL     OW12417  12.229  12.653   5.453
 3548SOL    HW112418  12.228  12.747   5.437
 3548SOL    HW212419  12.318  12.634   5.483
 3549SOL     OW12420  10.557  10.952   1.806
 3549SOL    HW112421  10.600  10.976   1.724
 3549SOL    HW212422  10.485  10.895   1.779
 3550SOL     OW12423  10.362   0.490  11.251
 3550SOL    HW112424  10.428   0.441  11.299
 3550SOL    HW212425  10.279   0.469  11.294
 3551SOL     OW12426   6.848   7.132   8.506
 3551SOL    HW112427   6.767   7.089   8.535
 3551SOL    HW212428   6.829   7.164   8.418
 3552SOL     OW12429   1.242   6.737  10.880
 3552SOL    HW112430   1.148   6.737  10.895
 3552SOL    HW212431   1.252   6.708  10.790
 3553SOL     OW12432  13.332  11.432  11.077
 3553SOL    HW112433  13.283  11.512  11.098
 3553SOL    HW212434  13.418  11.464  11.047
 3554SOL     OW12435   8.036   1.566   1.670
 3554SOL    HW112436   8.065   1.655   1.689
 3554SOL    HW212437   8.035   1.561   1.574
 3555SOL     OW12438   1.769   1.926  11.024
 3555SOL    HW112439   1.676   1.908  11.041
 3555SOL    HW212440   1.799   1.850  10.975
 3556SOL     OW12441   4.736   1.692   1.785
 3556SOL    HW112442   4.811   1.738   1.747
 3556SOL    HW212443   4.660   1.739   1.751
 3557SOL     OW12444   4.810   2.896   3.832
 3557SOL    HW112445   4.905   2.888   3.823
 3557SOL    HW212446   4.795   2.988   3.853
 3558SOL     OW12447   6.766   7.351   9.047
 3558SOL    HW112448   6.782   7.369   8.954
 3558SOL    HW212449   6.799   7.262   9.060
 3559SOL     OW12450   0.203   2.256   0.213
 3559SOL    HW112451   0.188   2.346   0.185
 3559SOL    HW212452   0.286   2.259   0.260
 3560SOL     OW12453  13.150   5.919   2.398
 3560SOL    HW112454  13.158   5.847   2.336
 3560SOL    HW212455  13.126   5.878   2.481
 3561SOL     OW12456   2.815   2.890   6.553
 3561SOL    HW112457   2.810   2.943   6.474
 3561SOL    HW212458   2.862   2.946   6.616
 3562SOL     OW12459   1.179   5.522   8.785
 3562SOL    HW112460   1.182   5.506   8.879
 3562SOL    HW212461   1.122   5.599   8.775
 3563SOL     OW12462   8.513   2.323   1.647
 3563SOL    HW112463   8.527   2.244   1.701
 3563SOL    HW212464   8.529   2.294   1.558
 3564SOL     OW12465   6.398   9.593   7.419
 3564SOL    HW112466   6.372   9.501   7.418
 3564SOL    HW212467   6.439   9.606   7.505
 3565SOL     OW12468   9.079  10.318  13.964
 3565SOL    HW112469   9.085  10.380  14.037
 3565SOL    HW212470   9.170  10.304  13.937
 3566SOL     OW12471   6.881   5.516   7.469
 3566SOL    HW112472   6.845   5.600   7.496
 3566SOL    HW212473   6.933   5.536   7.392
 3567SOL     OW12474   1.916  14.194   8.949
 3567SOL    HW112475   1.907  14.283   8.982
 3567SOL    HW212476   1.914  14.139   9.028
 3568SOL     OW12477   1.505  11.021   6.996
 3568SOL    HW112478   1.478  11.055   6.911
 3568SOL    HW212479   1.427  11.030   7.051
 3569SOL     OW12480   7.326   5.593  10.297
 3569SOL    HW112481   7.366   5.545  10.369
 3569SOL    HW212482   7.321   5.684  10.328
 3570SOL     OW12483   0.186  12.020  11.293
 3570SOL    HW112484   0.201  12.114  11.279
 3570SOL    HW212485   0.249  11.996  11.361
 3571SOL     OW12486   7.269   1.404   9.630
 3571SOL    HW112487   7.320   1.323   9.635
 3571SOL    HW212488   7.199   1.385   9.568
 3572SOL     OW12489   7.388   7.124   9.071
 3572SOL    HW112490   7.297   7.135   9.042
 3572SOL    HW212491   7.409   7.207   9.114
 3573SOL     OW12492  11.435  11.862   7.115
 3573SOL    HW112493  11.399  11.915   7.044
 3573SOL    HW212494  11.527  11.849   7.091
 3574SOL     OW12495  14.518  14.717  10.365
 3574SOL    HW112496  14.587  14.783  10.354
 3574SOL    HW212497  14.436  14.765  10.357
 3575SOL     OW12498   3.901  10.281  13.601
 3575SOL    HW112499   3.894  10.334  13.521
 3575SOL    HW212500   3.850  10.202  13.581
 3576SOL     OW12501   0.410   5.281   6.357
 3576SOL    HW112502   0.480   5.310   6.415
 3576SOL    HW212503   0.388   5.193   6.389
 3577SOL     OW12504   2.604  12.262  12.852
 3577SOL    HW112505   2.684  12.221  12.820
 3577SOL    HW212506   2.595  12.232  12.942
 3578SOL     OW12507   4.118  10.163  14.718
 3578SOL    HW112508   4.194  10.203  14.762
 3578SOL    HW212509   4.156  10.096  14.661
 3579SOL     OW12510  14.092   6.678   2.877
 3579SOL    HW112511  14.154   6.683   2.804
 3579SOL    HW212512  14.049   6.763   2.878
 3580SOL     OW12513   2.201  10.443   0.603
 3580SOL    HW112514   2.205  10.511   0.670
 3580SOL    HW212515   2.279  10.457   0.550
 3581SOL     OW12516  12.455  12.745  14.644
 3581SOL    HW112517  12.469  12.778  14.555
 3581SOL    HW212518  12.385  12.801  14.679
 3582SOL     OW12519   2.301   1.621  11.022
 3582SOL    HW112520   2.324   1.689  10.959
 3582SOL    HW212521   2.205   1.620  11.022
 3583SOL     OW12522   2.234  14.291   8.961
 3583SOL    HW112523   2.203  14.376   8.993
 3583SOL    HW212524   2.229  14.297   8.866
 3584SOL     OW12525   3.165   3.640  13.638
 3584SOL    HW112526   3.237   3.578  13.649
 3584SOL    HW212527   3.119   3.640  13.722
 3585SOL     OW12528  13.232  12.035   4.452
 3585SOL    HW112529  13.244  12.098   4.381
 3585SOL    HW212530  13.253  12.084   4.532
 3586SOL     OW12531   6.024   7.637   9.381
 3586SOL    HW112532   5.984   7.616   9.465
 3586SOL    HW212533   6.043   7.731   9.385
 3587SOL     OW12534   7.336   7.583  11.913
 3587SOL    HW112535   7.419   7.630  11.919
 3587SOL    HW212536   7.283   7.634  11.852
 3588SOL     OW12537  14.074   1.646  14.155
 3588SOL    HW112538  14.048   1.570  14.208
 3588SOL    HW212539  14.165   1.628  14.131
 3589SOL     OW12540  14.824   0.542   9.380
 3589SOL    HW112541  14.763   0.574   9.313
 3589SOL    HW212542   0.001   0.618   9.400
 3590SOL     OW12543   0.238   3.039   7.257
 3590SOL    HW112544   0.150   3.043   7.220
 3590SOL    HW212545   0.233   3.088   7.339
 3591SOL     OW12546   9.096  14.469   7.370
 3591SOL    HW112547   9.057  14.528   7.306
 3591SOL    HW212548   9.025  14.410   7.395
 3592SOL     OW12549  12.908   0.161   2.214
 3592SOL    HW112550  13.000   0.183   2.199
 3592SOL    HW212551  12.895   0.171   2.308
 3593SOL     OW12552   3.571  14.195  10.505
 3593SOL    HW112553   3.548  14.281  10.472
 3593SOL    HW212554   3.574  14.139  10.427
 3594SOL     OW12555   0.154  10.738   3.856
 3594SOL    HW112556   0.232  10.688   3.833
 3594SOL    HW212557   0.125  10.700   3.939
 3595SOL     OW12558   1.704   4.706   7.548
 3595SOL    HW112559   1.654   4.674   7.473
 3595SOL    HW212560   1.781   4.649   7.552
 3596SOL     OW12561   1.587  14.253  13.074
 3596SOL    HW112562   1.521  14.200  13.119
 3596SOL    HW212563   1.547  14.272  12.989
 3597SOL     OW12564   6.301  12.561   0.689
 3597SOL    HW112565   6.386  12.594   0.718
 3597SOL    HW212566   6.300  12.577   0.595
 3598SOL     OW12567  12.287  13.409   3.578
 3598SOL    HW112568  12.208  13.372   3.540
 3598SOL    HW212569  12.302  13.358   3.657
 3599SOL     OW12570   8.864   6.492  10.010
 3599SOL    HW112571   8.910   6.414  10.041
 3599SOL    HW212572   8.820   6.527  10.088
 3600SOL     OW12573   5.179   2.639   1.454
 3600SOL    HW112574   5.118   2.705   1.420
 3600SOL    HW212575   5.125   2.563   1.472
 3601SOL     OW12576   0.314  14.156   0.859
 3601SOL    HW112577   0.279  14.242   0.836
 3601SOL    HW212578   0.236  14.101   0.871
 3602SOL     OW12579   8.690  13.558   0.666
 3602SOL    HW112580   8.774  13.588   0.632
 3602SOL    HW212581   8.712  13.500   0.739
 3603SOL     OW12582   5.348  14.151   9.091
 3603SOL    HW112583   5.398  14.156   9.010
 3603SOL    HW212584   5.310  14.238   9.101
 3604SOL     OW12585   2.729   0.176  13.738
 3604SOL    HW112586   2.701   0.248  13.682
 3604SOL    HW212587   2.822   0.165  13.718
 3605SOL     OW12588   9.758   9.775   0.887
 3605SOL    HW112589   9.852   9.763   0.902
 3605SOL    HW212590   9.726   9.817   0.967
 3606SOL     OW12591   1.723  10.406   2.705
 3606SOL    HW112592   1.664  10.339   2.671
 3606SOL    HW212593   1.735  10.466   2.632
 3607SOL     OW12594   4.239   0.900   5.235
 3607SOL    HW112595   4.328   0.921   5.208
 3607SOL    HW212596   4.187   0.912   5.156
 3608SOL     OW12597   8.375  11.685   2.773
 3608SOL    HW112598   8.435  11.638   2.830
 3608SOL    HW212599   8.327  11.743   2.831
 3609SOL     OW12600   5.750   8.814  12.698
 3609SOL    HW112601   5.718   8.810  12.608
 3609SOL    HW212602   5.671   8.818  12.751
 3610SOL     OW12603  12.450  14.027   4.468
 3610SOL    HW112604  12.530  14.081   4.469
 3610SOL    HW212605  12.396  14.066   4.399
 3611SOL     OW12606   5.680  13.976   1.493
 3611SOL    HW112607   5.681  13.881   1.480
 3611SOL    HW212608   5.613  14.007   1.431
 3612SOL     OW12609   9.868   5.490  11.346
 3612SOL    HW112610   9.844   5.499  11.438
 3612SOL    HW212611   9.824   5.410  11.317
 3613SOL     OW12612   1.280  12.796   4.687
 3613SOL    HW112613   1.227  12.871   4.659
 3613SOL    HW212614   1.342  12.783   4.615
 3614SOL     OW12615   1.242   7.837  12.170
 3614SOL    HW112616   1.225   7.786  12.249
 3614SOL    HW212617   1.299   7.782  12.117
 3615SOL     OW12618   4.135   5.786   3.831
 3615SOL    HW112619   4.193   5.861   3.817
 3615SOL    HW212620   4.060   5.822   3.877
 3616SOL     OW12621   8.500   5.573   0.273
 3616SOL    HW112622   8.470   5.496   0.224
 3616SOL    HW212623   8.428   5.593   0.333
 3617SOL     OW12624  11.686   8.170  11.874
 3617SOL    HW112625  11.716   8.236  11.935
 3617SOL    HW212626  11.590   8.176  11.877
 3618SOL     OW12627   1.551   4.931  12.745
 3618SOL    HW112628   1.556   4.935  12.650
 3618SOL    HW212629   1.641   4.951  12.774
 3619SOL     OW12630   1.230  12.670   5.864
 3619SOL    HW112631   1.224  12.715   5.780
 3619SOL    HW212632   1.140  12.644   5.883
 3620SOL     OW12633   2.039   2.872  14.708
 3620SOL    HW112634   2.105   2.868  14.777
 3620SOL    HW212635   1.981   2.798  14.725
 3621SOL     OW12636   1.001   2.330   5.448
 3621SOL    HW112637   0.956   2.248   5.469
 3621SOL    HW212638   0.946   2.371   5.382
 3622SOL     OW12639  14.237   9.344   7.676
 3622SOL    HW112640  14.215   9.274   7.738
 3622SOL    HW212641  14.179   9.329   7.602
 3623SOL     OW12642  13.939   0.615   0.682
 3623SOL    HW112643  13.861   0.559   0.684
 3623SOL    HW212644  13.982   0.593   0.599
 3624SOL     OW12645  11.821  11.119   1.988
 3624SOL    HW112646  11.734  11.157   1.991
 3624SOL    HW212647  11.877  11.179   2.037
 3625SOL     OW12648   6.821   4.061  10.892
 3625SOL    HW112649   6.809   4.071  10.987
 3625SOL    HW212650   6.735   4.075  10.854
 3626SOL     OW12651  10.666   4.351   8.149
 3626SOL    HW112652  10.602   4.421   8.139
 3626SOL    HW212653  10.672   4.312   8.062
 3627SOL     OW12654   2.516   1.793  13.121
 3627SOL    HW112655   2.512   1.701  13.095
 3627SOL    HW212656   2.489   1.842  13.043
 3628SOL     OW12657   8.213   4.028   4.345
 3628SOL    HW112658   8.185   4.024   4.254
 3628SOL    HW212659   8.304   4.059   4.341
 3629SOL     OW12660  14.229   5.556   9.132
 3629SOL    HW112661  14.180   5.528   9.209
 3629SOL    HW212662  14.163   5.567   9.064
 3630SOL     OW12663  10.384   4.207   1.697
 3630SOL    HW112664  10.473   4.218   1.664
 3630SOL    HW212665  10.389   4.130   1.753
 3631SOL     OW12666  14.668   8.733   7.316
 3631SOL    HW112667  14.674   8.828   7.304
 3631SOL    HW212668  14.575   8.713   7.304
 3632SOL     OW12669  12.206  10.748  12.805
 3632SOL    HW112670  12.194  10.666  12.758
 3632SOL    HW212671  12.301  10.754  12.819
 3633SOL     OW12672   9.045   7.095   1.445
 3633SOL    HW112673   8.993   7.014   1.438
 3633SOL    HW212674   9.132   7.065   1.470
 3634SOL     OW12675   0.833   1.260  11.104
 3634SOL    HW112676   0.783   1.180  11.117
 3634SOL    HW212677   0.878   1.273  11.187
 3635SOL     OW12678  14.486  12.936   2.084
 3635SOL    HW112679  14.413  12.874   2.079
 3635SOL    HW212680  14.507  12.956   1.992
 3636SOL     OW12681   1.748   5.053   8.564
 3636SOL    HW112682   1.713   5.142   8.560
 3636SOL    HW212683   1.708   5.015   8.642
 3637SOL     OW12684   3.788   2.807  10.105
 3637SOL    HW112685   3.694   2.826  10.107
 3637SOL    HW212686   3.829   2.884  10.145
 3638SOL     OW12687   6.697   2.153   6.593
 3638SOL    HW112688   6.688   2.091   6.665
 3638SOL    HW212689   6.714   2.099   6.516
 3639SOL     OW12690   3.044   2.641   4.233
 3639SOL    HW112691   3.038   2.736   4.221
 3639SOL    HW212692   2.972   2.605   4.180
 3640SOL     OW12693  13.872   2.089   5.658
 3640SOL    HW112694  13.931   2.071   5.585
 3640SOL    HW212695  13.786   2.098   5.617
 3641SOL     OW12696   2.748   0.530   6.306
 3641SOL    HW112697   2.665   0.492   6.338
 3641SOL    HW212698   2.813   0.501   6.369
 3642SOL     OW12699   0.240   2.546   1.224
 3642SOL    HW112700   0.226   2.608   1.295
 3642SOL    HW212701   0.216   2.593   1.145
 3643SOL     OW12702   6.953   2.892   5.354
 3643SOL    HW112703   6.998   2.821   5.307
 3643SOL    HW212704   6.995   2.972   5.322
 3644SOL     OW12705   4.198   4.307   7.551
 3644SOL    HW112706   4.242   4.227   7.581
 3644SOL    HW212707   4.108   4.297   7.583
 3645SOL     OW12708   7.705  13.072   0.067
 3645SOL    HW112709   7.627  13.024   0.039
 3645SOL    HW212710   7.767  13.003   0.093
 3646SOL     OW12711   7.541  10.458   7.590
 3646SOL    HW112712   7.455  10.450   7.550
 3646SOL    HW212713   7.527  10.509   7.670
 3647SOL     OW12714  11.608   8.197   5.010
 3647SOL    HW112715  11.562   8.225   4.932
 3647SOL    HW212716  11.695   8.171   4.979
 3648SOL     OW12717  14.792   5.680  12.206
 3648SOL    HW112718  14.785   5.706  12.114
 3648SOL    HW212719  14.877   5.637  12.212
 3649SOL     OW12720   0.544   9.187   0.945
 3649SOL    HW112721   0.475   9.253   0.946
 3649SOL    HW212722   0.616   9.226   0.995
 3650SOL     OW12723   3.270   0.901  13.830
 3650SOL    HW112724   3.312   0.974  13.784
 3650SOL    HW212725   3.215   0.859  13.764
 3651SOL     OW12726   7.552   6.566  13.360
 3651SOL    HW112727   7.465   6.538  13.390
 3651SOL    HW212728   7.589   6.489  13.317
 3652SOL     OW12729   1.596  11.854  13.398
 3652SOL    HW112730   1.547  11.793  13.453
 3652SOL    HW212731   1.679  11.865  13.443
 3653SOL     OW12732  14.088   4.256   6.410
 3653SOL    HW112733  14.146   4.276   6.337
 3653SOL    HW212734  14.001   4.280   6.379
 3654SOL     OW12735  12.880   7.683   8.118
 3654SOL    HW112736  12.791   7.647   8.116
 3654SOL    HW212737  12.868   7.777   8.107
 3655SOL     OW12738  12.441   4.110   4.081
 3655SOL    HW112739  12.465   4.099   3.989
 3655SOL    HW212740  12.346   4.098   4.083
 3656SOL     OW12741   2.762  12.464   8.206
 3656SOL    HW112742   2.709  12.481   8.284
 3656SOL    HW212743   2.701  12.473   8.133
 3657SOL     OW12744  12.485   1.373   2.082
 3657SOL    HW112745  12.453   1.453   2.125
 3657SOL    HW212746  12.485   1.307   2.151
 3658SOL     OW12747   3.717   4.544   2.069
 3658SOL    HW112748   3.642   4.551   2.010
 3658SOL    HW212749   3.680   4.507   2.149
 3659SOL     OW12750   3.315  10.983   0.181
 3659SOL    HW112751   3.262  11.027   0.115
 3659SOL    HW212752   3.262  10.987   0.261
 3660SOL     OW12753  10.522   8.492   4.127
 3660SOL    HW112754  10.575   8.536   4.060
 3660SOL    HW212755  10.436   8.481   4.086
 3661SOL     OW12756  14.701  11.759   0.130
 3661SOL    HW112757  14.702  11.760   0.034
 3661SOL    HW212758  14.756  11.832   0.156
 3662SOL     OW12759  10.067   4.230  14.442
 3662SOL    HW112760  10.134   4.269  14.499
 3662SOL    HW212761  10.077   4.275  14.358
 3663SOL     OW12762   3.974  10.819   9.684
 3663SOL    HW112763   4.026  10.742   9.708
 3663SOL    HW212764   3.961  10.866   9.766
 3664SOL     OW12765   3.348  11.165   2.796
 3664SOL    HW112766   3.272  11.177   2.853
 3664SOL    HW212767   3.326  11.211   2.715
 3665SOL     OW12768   5.715  11.246   8.891
 3665SOL    HW112769   5.691  11.187   8.963
 3665SOL    HW212770   5.778  11.196   8.839
 3666SOL     OW12771   3.030  14.340   7.839
 3666SOL    HW112772   3.050  14.306   7.751
 3666SOL    HW212773   3.051  14.268   7.898
 3667SOL     OW12774  13.126  11.562   3.989
 3667SOL    HW112775  13.152  11.485   3.940
 3667SOL    HW212776  13.076  11.528   4.063
 3668SOL     OW12777  11.662   2.092   4.253
 3668SOL    HW112778  11.723   2.112   4.324
 3668SOL    HW212779  11.579   2.074   4.298
 3669SOL     OW12780   3.454   6.522  12.033
 3669SOL    HW112781   3.405   6.508  12.114
 3669SOL    HW212782   3.456   6.618  12.023
 3670SOL     OW12783   8.710   4.614   7.082
 3670SOL    HW112784   8.737   4.614   7.173
 3670SOL    HW212785   8.732   4.527   7.050
 3671SOL     OW12786   5.204   0.539   5.262
 3671SOL    HW112787   5.175   0.589   5.186
 3671SOL    HW212788   5.298   0.527   5.249
 3672SOL     OW12789   8.888   2.619   2.784
 3672SOL    HW112790   8.900   2.560   2.710
 3672SOL    HW212791   8.827   2.573   2.841
 3673SOL     OW12792  12.178   1.806   5.962
 3673SOL    HW112793  12.105   1.764   5.916
 3673SOL    HW212794  12.138   1.845   6.039
 3674SOL     OW12795   1.636   5.743   7.180
 3674SOL    HW112796   1.702   5.781   7.238
 3674SOL    HW212797   1.588   5.681   7.235
 3675SOL     OW12798   2.799   6.986  11.209
 3675SOL    HW112799   2.777   7.047  11.279
 3675SOL    HW212800   2.859   6.924  11.250
 3676SOL     OW12801   7.193  12.278  11.503
 3676SOL    HW112802   7.175  12.361  11.458
 3676SOL    HW212803   7.227  12.221  11.434
 3677SOL     OW12804   3.931   6.569   1.888
 3677SOL    HW112805   3.948   6.528   1.972
 3677SOL    HW212806   3.836   6.577   1.883
 3678SOL     OW12807  14.544   0.622   5.176
 3678SOL    HW112808  14.514   0.658   5.259
 3678SOL    HW212809  14.473   0.642   5.115
 3679SOL     OW12810  11.889   3.732  11.065
 3679SOL    HW112811  11.873   3.639  11.047
 3679SOL    HW212812  11.836   3.779  11.000
 3680SOL     OW12813   4.841  10.481   4.750
 3680SOL    HW112814   4.752  10.514   4.760
 3680SOL    HW212815   4.895  10.559   4.741
 3681SOL     OW12816  11.805  11.392   9.476
 3681SOL    HW112817  11.791  11.304   9.441
 3681SOL    HW212818  11.782  11.450   9.403
 3682SOL     OW12819   0.492   2.268   4.508
 3682SOL    HW112820   0.524   2.319   4.434
 3682SOL    HW212821   0.426   2.210   4.470
 3683SOL     OW12822   7.149   4.454  13.047
 3683SOL    HW112823   7.097   4.387  13.002
 3683SOL    HW212824   7.240   4.428  13.033
 3684SOL     OW12825   9.065  13.044   5.196
 3684SOL    HW112826   9.003  12.998   5.139
 3684SOL    HW212827   9.014  13.064   5.275
 3685SOL     OW12828   5.515   4.903   7.135
 3685SOL    HW112829   5.460   4.886   7.058
 3685SOL    HW212830   5.531   4.997   7.132
 3686SOL     OW12831  12.493  11.374  14.636
 3686SOL    HW112832  12.434  11.345  14.566
 3686SOL    HW212833  12.570  11.407  14.590
 3687SOL     OW12834   1.556   9.834   3.753
 3687SOL    HW112835   1.604   9.903   3.799
 3687SOL    HW212836   1.588   9.839   3.662
 3688SOL     OW12837   1.492  11.944   3.960
 3688SOL    HW112838   1.493  12.000   3.883
 3688SOL    HW212839   1.441  11.867   3.933
 3689SOL     OW12840  11.554   0.090   4.405
 3689SOL    HW112841  11.471   0.132   4.426
 3689SOL    HW212842  11.620   0.154   4.429
 3690SOL     OW12843   2.963  14.784   3.334
 3690SOL    HW112844   2.914  14.737   3.266
 3690SOL    HW212845   2.906  14.858   3.357
 3691SOL     OW12846   5.375  11.864   8.617
 3691SOL    HW112847   5.319  11.787   8.612
 3691SOL    HW212848   5.463  11.830   8.631
 3692SOL     OW12849   4.153   0.657   8.222
 3692SOL    HW112850   4.220   0.673   8.156
 3692SOL    HW212851   4.117   0.571   8.200
 3693SOL     OW12852   2.624   5.126  13.867
 3693SOL    HW112853   2.554   5.188  13.844
 3693SOL    HW212854   2.703   5.179  13.868
 3694SOL     OW12855   4.862  11.542   9.732
 3694SOL    HW112856   4.874  11.546   9.637
 3694SOL    HW212857   4.790  11.603   9.749
 3695SOL     OW12858   3.495   5.412   5.777
 3695SOL    HW112859   3.538   5.345   5.831
 3695SOL    HW212860   3.486   5.487   5.835
 3696SOL     OW12861   1.733   5.180   8.041
 3696SOL    HW112862   1.784   5.100   8.035
 3696SOL    HW212863   1.644   5.154   8.018
 3697SOL     OW12864   1.295   2.782  13.533
 3697SOL    HW112865   1.288   2.796  13.439
 3697SOL    HW212866   1.210   2.748  13.559
 3698SOL     OW12867   2.161   0.349  14.712
 3698SOL    HW112868   2.213   0.343  14.792
 3698SOL    HW212869   2.191   0.429  14.670
 3699SOL     OW12870   3.816  11.784   8.240
 3699SOL    HW112871   3.788  11.796   8.150
 3699SOL    HW212872   3.775  11.857   8.288
 3700SOL     OW12873   8.218  10.684   0.720
 3700SOL    HW112874   8.177  10.631   0.788
 3700SOL    HW212875   8.239  10.767   0.763
 3701SOL     OW12876   1.998   2.433   8.170
 3701SOL    HW112877   1.977   2.522   8.142
 3701SOL    HW212878   2.090   2.438   8.197
 3702SOL     OW12879   8.072   7.690   3.839
 3702SOL    HW112880   8.167   7.678   3.834
 3702SOL    HW212881   8.041   7.677   3.749
 3703SOL     OW12882   7.962   0.909  13.882
 3703SOL    HW112883   7.964   0.934  13.974
 3703SOL    HW212884   8.053   0.887  13.861
 3704SOL     OW12885   6.039  10.187   7.808
 3704SOL    HW112886   5.975  10.118   7.827
 3704SOL    HW212887   6.000  10.238   7.738
 3705SOL     OW12888   4.403   6.926  12.284
 3705SOL    HW112889   4.429   6.863  12.352
 3705SOL    HW212890   4.319   6.894  12.253
 3706SOL     OW12891  11.689  11.080   7.306
 3706SOL    HW112892  11.611  11.089   7.250
 3706SOL    HW212893  11.655  11.050   7.390
 3707SOL     OW12894  10.560   5.601   7.219
 3707SOL    HW112895  10.580   5.508   7.232
 3707SOL    HW212896  10.604   5.645   7.292
 3708SOL     OW12897   1.331   8.774   2.659
 3708SOL    HW112898   1.320   8.826   2.579
 3708SOL    HW212899   1.375   8.694   2.630
 3709SOL     OW12900  14.818  11.364  11.543
 3709SOL    HW112901  14.814  11.272  11.518
 3709SOL    HW212902  14.814  11.363  11.639
 3710SOL     OW12903   1.198   0.475   6.528
 3710SOL    HW112904   1.204   0.486   6.433
 3710SOL    HW212905   1.170   0.561   6.560
 3711SOL     OW12906   3.927   2.015   7.914
 3711SOL    HW112907   3.943   1.967   7.833
 3711SOL    HW212908   3.933   2.107   7.889
 3712SOL     OW12909   9.835  13.843   1.316
 3712SOL    HW112910   9.902  13.910   1.307
 3712SOL    HW212911   9.883  13.763   1.339
 3713SOL     OW12912  13.487  12.051  12.324
 3713SOL    HW112913  13.477  12.146  12.313
 3713SOL    HW212914  13.578  12.039  12.350
 3714SOL     OW12915   4.251   9.892  11.789
 3714SOL    HW112916   4.193   9.961  11.820
 3714SOL    HW212917   4.335   9.911  11.832
 3715SOL     OW12918  13.275  11.214   4.466
 3715SOL    HW112919  13.267  11.159   4.388
 3715SOL    HW212920  13.202  11.276   4.459
 3716SOL     OW12921   8.391   4.823   5.756
 3716SOL    HW112922   8.406   4.818   5.662
 3716SOL    HW212923   8.352   4.739   5.779
 3717SOL     OW12924  14.643   7.035  11.434
 3717SOL    HW112925  14.584   7.110  11.432
 3717SOL    HW212926  14.710   7.055  11.369
 3718SOL     OW12927  10.532   5.411   7.636
 3718SOL    HW112928  10.439   5.408   7.660
 3718SOL    HW212929  10.576   5.442   7.716
 3719SOL     OW12930   1.360  11.524  14.557
 3719SOL    HW112931   1.303  11.560  14.625
 3719SOL    HW212932   1.420  11.467  14.605
 3720SOL     OW12933   4.204   3.582   7.827
 3720SOL    HW112934   4.189   3.508   7.768
 3720SOL    HW212935   4.124   3.587   7.879
 3721SOL     OW12936   1.103  11.857   6.221
 3721SOL    HW112937   1.127  11.767   6.242
 3721SOL    HW212938   1.187  11.903   6.216
 3722SOL     OW12939  12.072   6.275   9.075
 3722SOL    HW112940  12.068   6.223   9.156
 3722SOL    HW212941  11.981   6.282   9.047
 3723SOL     OW12942  13.961   6.829   3.736
 3723SOL    HW112943  14.027   6.821   3.805
 3723SOL    HW212944  13.926   6.917   3.748
 3724SOL     OW12945   0.362   4.521   1.374
 3724SOL    HW112946   0.418   4.444   1.382
 3724SOL    HW212947   0.291   4.507   1.436
 3725SOL     OW12948  10.668   5.451   4.854
 3725SOL    HW112949  10.695   5.527   4.802
 3725SOL    HW212950  10.682   5.376   4.796
 3726SOL     OW12951   7.347   2.479  12.335
 3726SOL    HW112952   7.278   2.418  12.363
 3726SOL    HW212953   7.367   2.452  12.246
 3727SOL     OW12954   2.583  12.316   4.624
 3727SOL    HW112955   2.661  12.287   4.577
 3727SOL    HW212956   2.511  12.272   4.579
 3728SOL     OW12957   1.643   8.280   3.356
 3728SOL    HW112958   1.650   8.220   3.430
 3728SOL    HW212959   1.663   8.226   3.280
 3729SOL     OW12960  11.169  12.349  13.165
 3729SOL    HW112961  11.157  12.297  13.244
 3729SOL    HW212962  11.259  12.381  13.170
 3730SOL     OW12963   2.018   6.245   8.936
 3730SOL    HW112964   2.086   6.248   8.868
 3730SOL    HW212965   2.034   6.163   8.982
 3731SOL     OW12966   3.596   3.331  11.706
 3731SOL    HW112967   3.602   3.242  11.740
 3731SOL    HW212968   3.507   3.359  11.729
 3732SOL     OW12969   7.508  10.759   2.032
 3732SOL    HW112970   7.591  10.807   2.038
 3732SOL    HW212971   7.460  10.803   1.962
 3733SOL     OW12972   9.690  10.213   7.529
 3733SOL    HW112973   9.630  10.275   7.570
 3733SOL    HW212974   9.754  10.193   7.597
 3734SOL     OW12975   2.751  13.864   4.020
 3734SOL    HW112976   2.802  13.899   3.948
 3734SOL    HW212977   2.760  13.929   4.090
 3735SOL     OW12978   6.330   6.517   6.762
 3735SOL    HW112979   6.375   6.476   6.688
 3735SOL    HW212980   6.302   6.603   6.729
 3736SOL     OW12981   5.966   4.474   2.663
 3736SOL    HW112982   6.001   4.555   2.625
 3736SOL    HW212983   5.874   4.472   2.637
 3737SOL     OW12984   8.760  13.629  14.527
 3737SOL    HW112985   8.686  13.600  14.472
 3737SOL    HW212986   8.752  13.577  14.607
 3738SOL     OW12987   7.313  10.754   2.358
 3738SOL    HW112988   7.315  10.711   2.443
 3738SOL    HW212989   7.323  10.684   2.294
 3739SOL     OW12990   3.513   8.762   5.750
 3739SOL    HW112991   3.575   8.746   5.678
 3739SOL    HW212992   3.427   8.759   5.709
 3740SOL     OW12993  12.564   6.304   1.633
 3740SOL    HW112994  12.600   6.380   1.588
 3740SOL    HW212995  12.555   6.332   1.724
 3741SOL     OW12996   4.178   5.383   7.728
 3741SOL    HW112997   4.114   5.363   7.660
 3741SOL    HW212998   4.174   5.478   7.738
 3742SOL     OW12999   5.284   7.441  14.183
 3742SOL    HW113000   5.331   7.398  14.255
 3742SOL    HW213001   5.193   7.418  14.197
 3743SOL     OW13002  13.958  10.765   0.109
 3743SOL    HW113003  13.984  10.680   0.145
 3743SOL    HW213004  13.864  10.757   0.093
 3744SOL     OW13005   3.437   9.920   0.264
 3744SOL    HW113006   3.376   9.984   0.227
 3744SOL    HW213007   3.482   9.968   0.334
 3745SOL     OW13008  11.639   6.729   9.426
 3745SOL    HW113009  11.697   6.668   9.471
 3745SOL    HW213010  11.563   6.737   9.484
 3746SOL     OW13011   1.212  14.219   7.011
 3746SOL    HW113012   1.152  14.150   7.040
 3746SOL    HW213013   1.243  14.190   6.926
 3747SOL     OW13014   8.789  14.121   6.448
 3747SOL    HW113015   8.863  14.181   6.452
 3747SOL    HW213016   8.770  14.100   6.540
 3748SOL     OW13017   9.039   4.421   9.715
 3748SOL    HW113018   9.123   4.379   9.729
 3748SOL    HW213019   9.032   4.428   9.620
 3749SOL     OW13020   5.575   2.466   3.499
 3749SOL    HW113021   5.575   2.381   3.454
 3749SOL    HW213022   5.528   2.524   3.440
 3750SOL     OW13023   6.659  11.516   6.519
 3750SOL    HW113024   6.716  11.576   6.472
 3750SOL    HW213025   6.706  11.432   6.518
 3751SOL     OW13026   6.679   1.800   9.822
 3751SOL    HW113027   6.596   1.839   9.848
 3751SOL    HW213028   6.710   1.754   9.900
 3752SOL     OW13029   8.295   2.319   5.659
 3752SOL    HW113030   8.355   2.386   5.625
 3752SOL    HW213031   8.351   2.242   5.673
 3753SOL     OW13032   2.668   6.386   6.683
 3753SOL    HW113033   2.600   6.345   6.737
 3753SOL    HW213034   2.629   6.393   6.596
 3754SOL     OW13035   2.581  13.991  11.538
 3754SOL    HW113036   2.623  14.007  11.453
 3754SOL    HW213037   2.638  14.036  11.601
 3755SOL     OW13038   6.264  11.193   6.483
 3755SOL    HW113039   6.352  11.225   6.466
 3755SOL    HW213040   6.236  11.154   6.400
 3756SOL     OW13041  11.709   8.669   0.596
 3756SOL    HW113042  11.757   8.662   0.514
 3756SOL    HW213043  11.617   8.662   0.571
 3757SOL     OW13044   4.041  12.924  13.403
 3757SOL    HW113045   4.008  13.003  13.360
 3757SOL    HW213046   4.017  12.852  13.344
 3758SOL     OW13047  13.796  11.874  10.515
 3758SOL    HW113048  13.726  11.880  10.580
 3758SOL    HW213049  13.752  11.888  10.431
 3759SOL     OW13050  14.851   3.425   3.861
 3759SOL    HW113051  14.812   3.509   3.835
 3759SOL    HW213052  14.780   3.376   3.902
 3760SOL     OW13053   9.399   1.488   5.940
 3760SOL    HW113054   9.448   1.414   5.903
 3760SOL    HW213055   9.439   1.565   5.900
 3761SOL     OW13056   2.227   2.946   5.194
 3761SOL    HW113057   2.219   2.853   5.170
 3761SOL    HW213058   2.170   2.992   5.132
 3762SOL     OW13059  13.715  12.881  11.115
 3762SOL    HW113060  13.724  12.945  11.185
 3762SOL    HW213061  13.804  12.853  11.095
 3763SOL     OW13062   9.398  11.561   6.963
 3763SOL    HW113063   9.316  11.511   6.957
 3763SOL    HW213064   9.429  11.566   6.873
 3764SOL     OW13065   7.719  12.109  10.048
 3764SOL    HW113066   7.650  12.046  10.068
 3764SOL    HW213067   7.723  12.166  10.125
 3765SOL     OW13068   5.022   4.089   8.850
 3765SOL    HW113069   4.974   4.056   8.773
 3765SOL    HW213070   4.974   4.168   8.876
 3766SOL     OW13071   2.648  13.539  14.736
 3766SOL    HW113072   2.566  13.493  14.718
 3766SOL    HW213073   2.654  13.542  14.831
 3767SOL     OW13074   1.714   4.064  12.519
 3767SOL    HW113075   1.661   4.124  12.573
 3767SOL    HW213076   1.782   4.120  12.482
 3768SOL     OW13077  11.958   0.267   7.131
 3768SOL    HW113078  11.869   0.288   7.101
 3768SOL    HW213079  11.992   0.350   7.164
 3769SOL     OW13080  12.839   1.428   8.283
 3769SOL    HW113081  12.845   1.410   8.377
 3769SOL    HW213082  12.757   1.477   8.273
 3770SOL     OW13083   1.541   5.482  10.038
 3770SOL    HW113084   1.462   5.477   9.985
 3770SOL    HW213085   1.603   5.530   9.983
 3771SOL     OW13086   9.782   4.842  14.791
 3771SOL    HW113087   9.824   4.764  14.829
 3771SOL    HW213088   9.843   4.871  14.722
 3772SOL     OW13089  12.299   6.986   9.093
 3772SOL    HW113090  12.368   7.038   9.134
 3772SOL    HW213091  12.230   7.050   9.074
 3773SOL     OW13092   9.948  11.313   3.917
 3773SOL    HW113093   9.925  11.220   3.914
 3773SOL    HW213094   9.899  11.347   3.992
 3774SOL     OW13095  10.926   0.830  10.425
 3774SOL    HW113096  10.925   0.772  10.501
 3774SOL    HW213097  11.014   0.820  10.389
 3775SOL     OW13098   4.735   2.501   7.413
 3775SOL    HW113099   4.701   2.510   7.502
 3775SOL    HW213100   4.743   2.406   7.400
 3776SOL     OW13101   8.542  12.991   5.248
 3776SOL    HW113102   8.466  12.967   5.301
 3776SOL    HW213103   8.529  12.943   5.166
 3777SOL     OW13104   0.670  10.495  13.292
 3777SOL    HW113105   0.707  10.410  13.316
 3777SOL    HW213106   0.630  10.527  13.373
 3778SOL     OW13107  10.013   3.605   8.574
 3778SOL    HW113108   9.990   3.513   8.579
 3778SOL    HW213109  10.085   3.616   8.636
 3779SOL     OW13110  12.245  13.652  12.685
 3779SOL    HW113111  12.238  13.661  12.590
 3779SOL    HW213112  12.159  13.618  12.712
 3780SOL     OW13113   3.976  12.273  14.875
 3780SOL    HW113114   4.028  12.261   0.077
 3780SOL    HW213115   3.885  12.270   0.028
 3781SOL     OW13116   8.804   2.576   0.027
 3781SOL    HW113117   8.867   2.575  14.833
 3781SOL    HW213118   8.859   2.576   0.106
 3782SOL     OW13119  13.664  11.272   1.637
 3782SOL    HW113120  13.644  11.222   1.716
 3782SOL    HW213121  13.598  11.341   1.635
 3783SOL     OW13122  11.765   4.800   7.948
 3783SOL    HW113123  11.859   4.781   7.954
 3783SOL    HW213124  11.740   4.769   7.861
 3784SOL     OW13125   4.506  14.048   9.648
 3784SOL    HW113126   4.451  13.992   9.594
 3784SOL    HW213127   4.574  13.989   9.682
 3785SOL     OW13128   7.537  10.596   5.463
 3785SOL    HW113129   7.466  10.645   5.505
 3785SOL    HW213130   7.587  10.662   5.415
 3786SOL     OW13131   0.630  10.332   9.374
 3786SOL    HW113132   0.653  10.325   9.282
 3786SOL    HW213133   0.565  10.263   9.388
 3787SOL     OW13134   5.480   4.747  14.314
 3787SOL    HW113135   5.407   4.750  14.252
 3787SOL    HW213136   5.443   4.785  14.395
 3788SOL     OW13137   0.203  10.944   3.076
 3788SOL    HW113138   0.214  10.855   3.107
 3788SOL    HW213139   0.210  10.937   2.981
 3789SOL     OW13140   0.748   2.413  13.326
 3789SOL    HW113141   0.683   2.378  13.266
 3789SOL    HW213142   0.706   2.409  13.412
 3790SOL     OW13143   1.799   1.850   5.523
 3790SOL    HW113144   1.740   1.835   5.597
 3790SOL    HW213145   1.876   1.891   5.561
 3791SOL     OW13146   9.037   5.716   5.235
 3791SOL    HW113147   9.065   5.714   5.326
 3791SOL    HW213148   8.944   5.694   5.237
 3792SOL     OW13149   7.951   6.798   0.301
 3792SOL    HW113150   7.965   6.792   0.396
 3792SOL    HW213151   8.015   6.862   0.271
 3793SOL     OW13152   1.936   1.056   5.963
 3793SOL    HW113153   1.893   1.136   5.994
 3793SOL    HW213154   2.026   1.065   5.994
 3794SOL     OW13155  14.237   2.246   5.888
 3794SOL    HW113156  14.264   2.314   5.951
 3794SOL    HW213157  14.303   2.251   5.819
 3795SOL     OW13158  11.527   4.115   3.717
 3795SOL    HW113159  11.478   4.181   3.669
 3795SOL    HW213160  11.609   4.159   3.741
 3796SOL     OW13161   2.600   8.430   4.649
 3796SOL    HW113162   2.631   8.389   4.729
 3796SOL    HW213163   2.679   8.464   4.607
 3797SOL     OW13164  11.476  13.641  12.118
 3797SOL    HW113165  11.497  13.566  12.175
 3797SOL    HW213166  11.529  13.627  12.040
 3798SOL     OW13167   8.830   4.811   3.688
 3798SOL    HW113168   8.758   4.868   3.660
 3798SOL    HW213169   8.908   4.867   3.684
 3799SOL     OW13170   4.790   5.508   6.825
 3799SOL    HW113171   4.761   5.495   6.735
 3799SOL    HW213172   4.798   5.603   6.835
 3800SOL     OW13173  11.817   3.020   3.380
 3800SOL    HW113174  11.837   3.113   3.369
 3800SOL    HW213175  11.881   2.988   3.443
 3801SOL     OW13176   9.249  11.733   1.609
 3801SOL    HW113177   9.237  11.786   1.529
 3801SOL    HW213178   9.255  11.643   1.578
 3802SOL     OW13179  13.797  11.640   2.470
 3802SOL    HW113180  13.839  11.628   2.385
 3802SOL    HW213181  13.853  11.702   2.516
 3803SOL     OW13182   5.358   4.601  11.072
 3803SOL    HW113183   5.312   4.590  10.988
 3803SOL    HW213184   5.449   4.580  11.052
 3804SOL     OW13185  10.577   9.796   2.502
 3804SOL    HW113186  10.594   9.718   2.555
 3804SOL    HW213187  10.533   9.856   2.562
 3805SOL     OW13188   3.637   1.641   7.224
 3805SOL    HW113189   3.594   1.674   7.145
 3805SOL    HW213190   3.565   1.630   7.287
 3806SOL     OW13191   4.128   2.076   2.497
 3806SOL    HW113192   4.051   2.103   2.447
 3806SOL    HW213193   4.201   2.089   2.436
 3807SOL     OW13194   6.314   4.289  12.222
 3807SOL    HW113195   6.407   4.308  12.232
 3807SOL    HW213196   6.310   4.227  12.148
 3808SOL     OW13197  12.416   4.091   1.853
 3808SOL    HW113198  12.395   4.177   1.889
 3808SOL    HW213199  12.334   4.062   1.812
 3809SOL     OW13200  13.206   7.852   7.883
 3809SOL    HW113201  13.191   7.758   7.878
 3809SOL    HW213202  13.132   7.886   7.934
 3810SOL     OW13203   0.175  12.150   4.613
 3810SOL    HW113204   0.268  12.173   4.605
 3810SOL    HW213205   0.149  12.186   4.698
 3811SOL     OW13206  10.245   9.476   2.205
 3811SOL    HW113207  10.252   9.564   2.242
 3811SOL    HW213208  10.334   9.443   2.203
 3812SOL     OW13209  10.226  10.389   2.907
 3812SOL    HW113210  10.192  10.339   2.981
 3812SOL    HW213211  10.149  10.428   2.867
 3813SOL     OW13212   8.377   1.443   8.279
 3813SOL    HW113213   8.389   1.479   8.367
 3813SOL    HW213214   8.452   1.474   8.230
 3814SOL     OW13215   3.895   3.282   2.633
 3814SOL    HW113216   3.831   3.277   2.703
 3814SOL    HW213217   3.847   3.320   2.559
 3815SOL     OW13218  13.631   4.207   0.187
 3815SOL    HW113219  13.536   4.194   0.183
 3815SOL    HW213220  13.668   4.130   0.143
 3816SOL     OW13221  11.328   5.147   1.745
 3816SOL    HW113222  11.395   5.142   1.813
 3816SOL    HW213223  11.256   5.195   1.787
 3817SOL     OW13224   5.016   6.297   7.024
 3817SOL    HW113225   5.074   6.355   7.072
 3817SOL    HW213226   4.934   6.299   7.072
 3818SOL     OW13227   2.284   1.490   4.653
 3818SOL    HW113228   2.305   1.565   4.710
 3818SOL    HW213229   2.357   1.486   4.591
 3819SOL     OW13230   6.230  14.607   9.495
 3819SOL    HW113231   6.152  14.663   9.488
 3819SOL    HW213232   6.240  14.592   9.589
 3820SOL     OW13233  10.383   0.681   7.388
 3820SOL    HW113234  10.434   0.742   7.335
 3820SOL    HW213235  10.411   0.699   7.478
 3821SOL     OW13236  13.255   8.917   6.250
 3821SOL    HW113237  13.196   8.921   6.326
 3821SOL    HW213238  13.330   8.971   6.275
 3822SOL     OW13239  12.718   9.723   9.375
 3822SOL    HW113240  12.679   9.702   9.460
 3822SOL    HW213241  12.666   9.797   9.343
 3823SOL     OW13242   9.306   5.129   0.862
 3823SOL    HW113243   9.319   5.126   0.768
 3823SOL    HW213244   9.380   5.080   0.898
 3824SOL     OW13245  14.512   6.840  10.339
 3824SOL    HW113246  14.555   6.913  10.383
 3824SOL    HW213247  14.480   6.785  10.411
 3825SOL     OW13248   0.389   3.898  11.665
 3825SOL    HW113249   0.311   3.937  11.704
 3825SOL    HW213250   0.399   3.944  11.581
 3826SOL     OW13251   9.021  14.820  12.014
 3826SOL    HW113252   9.106  14.830  11.972
 3826SOL    HW213253   8.995  14.730  11.993
 3827SOL     OW13254  13.291   1.091  10.365
 3827SOL    HW113255  13.371   1.108  10.415
 3827SOL    HW213256  13.262   1.178  10.338
 3828SOL     OW13257   0.058   3.605  12.094
 3828SOL    HW113258   0.011   3.687  12.108
 3828SOL    HW213259   0.014   3.542  12.150
 3829SOL     OW13260  10.083  14.409   3.725
 3829SOL    HW113261  10.149  14.353   3.766
 3829SOL    HW213262  10.120  14.497   3.729
 3830SOL     OW13263  12.033   2.944  10.520
 3830SOL    HW113264  12.113   2.965  10.569
 3830SOL    HW213265  12.064   2.919  10.433
 3831SOL     OW13266  14.625   5.270   7.554
 3831SOL    HW113267  14.614   5.364   7.567
 3831SOL    HW213268  14.609   5.231   7.640
 3832SOL     OW13269   8.135   0.296   8.671
 3832SOL    HW113270   8.091   0.259   8.747
 3832SOL    HW213271   8.187   0.224   8.636
 3833SOL     OW13272   4.030  12.345  13.163
 3833SOL    HW113273   3.998  12.430  13.193
 3833SOL    HW213274   4.019  12.348  13.068
 3834SOL     OW13275   6.122   7.742  10.486
 3834SOL    HW113276   6.174   7.685  10.543
 3834SOL    HW213277   6.187   7.783  10.428
 3835SOL     OW13278  11.642   5.812   9.030
 3835SOL    HW113279  11.700   5.871   8.983
 3835SOL    HW213280  11.615   5.862   9.107
 3836SOL     OW13281  12.592   5.501  10.920
 3836SOL    HW113282  12.672   5.522  10.969
 3836SOL    HW213283  12.578   5.408  10.936
 3837SOL     OW13284   0.653   5.323   7.896
 3837SOL    HW113285   0.579   5.368   7.857
 3837SOL    HW213286   0.675   5.375   7.974
 3838SOL     OW13287   4.240  10.076   4.817
 3838SOL    HW113288   4.218  10.022   4.742
 3838SOL    HW213289   4.247  10.015   4.890
 3839SOL     OW13290  13.930  12.588   7.090
 3839SOL    HW113291  13.976  12.671   7.108
 3839SOL    HW213292  13.840  12.615   7.070
 3840SOL     OW13293  10.391  13.563   2.386
 3840SOL    HW113294  10.441  13.529   2.312
 3840SOL    HW213295  10.438  13.642   2.412
 3841SOL     OW13296  10.887   1.186   4.246
 3841SOL    HW113297  10.933   1.207   4.165
 3841SOL    HW213298  10.915   1.255   4.307
 3842SOL     OW13299   0.205   4.545   6.873
 3842SOL    HW113300   0.212   4.623   6.927
 3842SOL    HW213301   0.229   4.575   6.785
 3843SOL     OW13302  12.742   2.371  12.896
 3843SOL    HW113303  12.673   2.326  12.848
 3843SOL    HW213304  12.697   2.435  12.951
 3844SOL     OW13305  13.954   2.156  11.220
 3844SOL    HW113306  13.975   2.154  11.314
 3844SOL    HW213307  13.860   2.136  11.217
 3845SOL     OW13308   6.107  11.348   6.212
 3845SOL    HW113309   6.073  11.430   6.177
 3845SOL    HW213310   6.034  11.287   6.206
 3846SOL     OW13311   2.832  12.814   4.708
 3846SOL    HW113312   2.740  12.805   4.732
 3846SOL    HW213313   2.833  12.878   4.637
 3847SOL     OW13314   5.001  13.566   4.600
 3847SOL    HW113315   5.069  13.527   4.655
 3847SOL    HW213316   5.006  13.517   4.518
 3848SOL     OW13317   4.526   9.888  12.358
 3848SOL    HW113318   4.618   9.915  12.345
 3848SOL    HW213319   4.524   9.797  12.328
 3849SOL     OW13320   4.956   9.824   0.444
 3849SOL    HW113321   4.997   9.754   0.393
 3849SOL    HW213322   4.884   9.855   0.389
 3850SOL     OW13323   1.344  13.812  12.269
 3850SOL    HW113324   1.291  13.839  12.345
 3850SOL    HW213325   1.317  13.873  12.200
 3851SOL     OW13326  11.658   6.021  14.811
 3851SOL    HW113327  11.641   5.927  14.807
 3851SOL    HW213328  11.735   6.028  14.868
 3852SOL     OW13329   4.027   9.389   0.607
 3852SOL    HW113330   3.936   9.366   0.625
 3852SOL    HW213331   4.065   9.309   0.571
 3853SOL     OW13332  11.097   0.531   7.072
 3853SOL    HW113333  11.122   0.557   7.160
 3853SOL    HW213334  11.094   0.435   7.075
 3854SOL     OW13335   3.459   5.110   8.217
 3854SOL    HW113336   3.373   5.087   8.182
 3854SOL    HW213337   3.442   5.188   8.270
 3855SOL     OW13338   3.192   6.905  12.396
 3855SOL    HW113339   3.169   6.988  12.437
 3855SOL    HW213340   3.196   6.925  12.302
 3856SOL     OW13341   4.014   6.155  11.062
 3856SOL    HW113342   4.099   6.173  11.021
 3856SOL    HW213343   3.964   6.111  10.993
 3857SOL     OW13344  11.914   7.515   7.830
 3857SOL    HW113345  11.951   7.536   7.744
 3857SOL    HW213346  11.828   7.479   7.811
 3858SOL     OW13347  12.588  11.746   3.246
 3858SOL    HW113348  12.629  11.703   3.321
 3858SOL    HW213349  12.537  11.818   3.283
 3859SOL     OW13350   8.145   9.285  13.111
 3859SOL    HW113351   8.188   9.302  13.027
 3859SOL    HW213352   8.059   9.250  13.088
 3860SOL     OW13353   0.993  11.521   7.596
 3860SOL    HW113354   0.959  11.453   7.653
 3860SOL    HW213355   0.915  11.568   7.566
 3861SOL     OW13356  12.114  13.022  10.033
 3861SOL    HW113357  12.100  13.106   9.989
 3861SOL    HW213358  12.205  13.001  10.015
 3862SOL     OW13359   2.884   9.367  11.732
 3862SOL    HW113360   2.939   9.369  11.810
 3862SOL    HW213361   2.862   9.274  11.721
 3863SOL     OW13362  10.016   2.214   7.600
 3863SOL    HW113363  10.108   2.227   7.624
 3863SOL    HW213364   9.970   2.287   7.641
 3864SOL     OW13365   6.125   5.327   8.018
 3864SOL    HW113366   6.196   5.288   7.967
 3864SOL    HW213367   6.049   5.273   7.998
 3865SOL     OW13368  13.068  12.745   2.445
 3865SOL    HW113369  13.020  12.768   2.366
 3865SOL    HW213370  13.002  12.707   2.503
 3866SOL     OW13371   8.473   6.964   4.071
 3866SOL    HW113372   8.541   7.009   4.122
 3866SOL    HW213373   8.431   6.905   4.134
 3867SOL     OW13374   5.996  13.787   2.298
 3867SOL    HW113375   5.930  13.844   2.259
 3867SOL    HW213376   6.058  13.770   2.227
 3868SOL     OW13377   1.362   9.523   9.470
 3868SOL    HW113378   1.268   9.536   9.482
 3868SOL    HW213379   1.397   9.612   9.458
 3869SOL     OW13380   9.480  13.011  12.236
 3869SOL    HW113381   9.478  12.993  12.142
 3869SOL    HW213382   9.559  13.063  12.248
 3870SOL     OW13383   4.972  11.405   7.353
 3870SOL    HW113384   4.986  11.430   7.261
 3870SOL    HW213385   4.944  11.486   7.395
 3871SOL     OW13386   1.158  14.103   9.151
 3871SOL    HW113387   1.063  14.116   9.144
 3871SOL    HW213388   1.196  14.171   9.095
 3872SOL     OW13389   9.908   5.395   4.380
 3872SOL    HW113390   9.888   5.316   4.430
 3872SOL    HW213391   9.892   5.371   4.289
 3873SOL     OW13392   8.908  11.968  14.552
 3873SOL    HW113393   9.000  11.951  14.571
 3873SOL    HW213394   8.897  12.062  14.568
 3874SOL     OW13395   0.118  10.869  11.338
 3874SOL    HW113396   0.034  10.865  11.383
 3874SOL    HW213397   0.148  10.778  11.334
 3875SOL     OW13398   5.846  11.266   0.821
 3875SOL    HW113399   5.795  11.191   0.850
 3875SOL    HW213400   5.928  11.259   0.869
 3876SOL     OW13401   0.598   0.273   3.661
 3876SOL    HW113402   0.622   0.183   3.638
 3876SOL    HW213403   0.637   0.327   3.593
 3877SOL     OW13404   2.894   8.860   2.652
 3877SOL    HW113405   2.951   8.788   2.680
 3877SOL    HW213406   2.849   8.825   2.575
 3878SOL     OW13407  12.348   6.326   1.145
 3878SOL    HW113408  12.381   6.277   1.221
 3878SOL    HW213409  12.262   6.358   1.172
 3879SOL     OW13410   6.119  12.852   1.251
 3879SOL    HW113411   6.024  12.847   1.265
 3879SOL    HW213412   6.144  12.936   1.290
 3880SOL     OW13413   6.190   7.525   1.484
 3880SOL    HW113414   6.233   7.460   1.540
 3880SOL    HW213415   6.175   7.479   1.402
 3881SOL     OW13416   6.034   5.454   0.514
 3881SOL    HW113417   5.974   5.400   0.463
 3881SOL    HW213418   6.119   5.440   0.473
 3882SOL     OW13419   9.094   7.337   6.353
 3882SOL    HW113420   9.160   7.343   6.422
 3882SOL    HW213421   9.012   7.321   6.400
 3883SOL     OW13422   4.432  14.161  10.832
 3883SOL    HW113423   4.508  14.151  10.775
 3883SOL    HW213424   4.450  14.239  10.884
 3884SOL     OW13425   8.368  10.256  13.635
 3884SOL    HW113426   8.378  10.181  13.693
 3884SOL    HW213427   8.447  10.255  13.581
 3885SOL     OW13428  11.521   8.386   0.644
 3885SOL    HW113429  11.587   8.320   0.623
 3885SOL    HW213430  11.524   8.393   0.740
 3886SOL     OW13431  11.909   9.065   6.550
 3886SOL    HW113432  11.873   8.994   6.497
 3886SOL    HW213433  12.003   9.049   6.551
 3887SOL     OW13434  13.809   4.406  11.798
 3887SOL    HW113435  13.780   4.323  11.836
 3887SOL    HW213436  13.802   4.469  11.870
 3888SOL     OW13437   5.272  12.192   0.754
 3888SOL    HW113438   5.187  12.158   0.784
 3888SOL    HW213439   5.324  12.198   0.834
 3889SOL     OW13440   8.652   3.502   0.268
 3889SOL    HW113441   8.692   3.479   0.352
 3889SOL    HW213442   8.600   3.425   0.245
 3890SOL     OW13443  12.589   1.696   0.320
 3890SOL    HW113444  12.537   1.682   0.399
 3890SOL    HW213445  12.638   1.615   0.308
 3891SOL     OW13446   3.897  12.067  14.726
 3891SOL    HW113447   3.954  12.104  14.793
 3891SOL    HW213448   3.907  12.125  14.650
 3892SOL     OW13449   5.244   0.557   0.030
 3892SOL    HW113450   5.218   0.536   0.119
 3892SOL    HW213451   5.230   0.477  14.858
 3893SOL     OW13452   8.954   7.996  13.640
 3893SOL    HW113453   8.966   8.006  13.734
 3893SOL    HW213454   9.025   8.047  13.601
 3894SOL     OW13455   2.205   3.201   7.867
 3894SOL    HW113456   2.273   3.256   7.829
 3894SOL    HW213457   2.225   3.112   7.839
 3895SOL     OW13458  14.388   8.055  10.964
 3895SOL    HW113459  14.432   8.114  10.903
 3895SOL    HW213460  14.301   8.093  10.975
 3896SOL     OW13461  12.479   7.167   6.261
 3896SOL    HW113462  12.460   7.230   6.192
 3896SOL    HW213463  12.519   7.093   6.215
 3897SOL     OW13464   6.476   8.216   3.469
 3897SOL    HW113465   6.438   8.297   3.434
 3897SOL    HW213466   6.467   8.153   3.398
 3898SOL     OW13467   4.729   9.814   7.105
 3898SOL    HW113468   4.767   9.740   7.056
 3898SOL    HW213469   4.635   9.798   7.104
 3899SOL     OW13470   5.831   5.622   6.024
 3899SOL    HW113471   5.794   5.677   6.093
 3899SOL    HW213472   5.853   5.540   6.068
 3900SOL     OW13473  13.881  10.463   5.307
 3900SOL    HW113474  13.869  10.476   5.402
 3900SOL    HW213475  13.900  10.370   5.298
 3901SOL     OW13476  12.026  11.657   0.634
 3901SOL    HW113477  11.931  11.658   0.623
 3901SOL    HW213478  12.047  11.566   0.654
 3902SOL     OW13479  11.537   7.340   3.560
 3902SOL    HW113480  11.519   7.426   3.599
 3902SOL    HW213481  11.595   7.359   3.487
 3903SOL     OW13482  13.854   7.497  11.095
 3903SOL    HW113483  13.849   7.417  11.042
 3903SOL    HW213484  13.778   7.492  11.153
 3904SOL     OW13485  12.351  10.196   3.617
 3904SOL    HW113486  12.331  10.272   3.672
 3904SOL    HW213487  12.388  10.132   3.678
 3905SOL     OW13488   3.530  10.225   9.270
 3905SOL    HW113489   3.620  10.231   9.302
 3905SOL    HW213490   3.525  10.139   9.228
 3906SOL     OW13491   7.374   8.784   1.139
 3906SOL    HW113492   7.316   8.844   1.093
 3906SOL    HW213493   7.315   8.723   1.184
 3907SOL     OW13494  13.972  13.339  13.711
 3907SOL    HW113495  14.039  13.323  13.778
 3907SOL    HW213496  13.917  13.261  13.714
 3908SOL     OW13497   3.870   8.048   1.807
 3908SOL    HW113498   3.793   8.056   1.862
 3908SOL    HW213499   3.860   7.962   1.764
 3909SOL     OW13500   2.689  12.440  13.153
 3909SOL    HW113501   2.718  12.350  13.169
 3909SOL    HW213502   2.721  12.489  13.228
 3910SOL     OW13503   9.786  14.160  13.640
 3910SOL    HW113504   9.765  14.246  13.606
 3910SOL    HW213505   9.784  14.102  13.564
 3911SOL     OW13506  13.276   5.933  12.363
 3911SOL    HW113507  13.237   5.880  12.294
 3911SOL    HW213508  13.265   5.881  12.442
 3912SOL     OW13509   7.847   3.507   5.895
 3912SOL    HW113510   7.754   3.509   5.919
 3912SOL    HW213511   7.848   3.466   5.809
 3913SOL     OW13512   7.044  14.222   0.384
 3913SOL    HW113513   7.098  14.143   0.376
 3913SOL    HW213514   7.084  14.270   0.457
 3914SOL     OW13515   4.793   5.133   0.321
 3914SOL    HW113516   4.819   5.226   0.318
 3914SOL    HW213517   4.757   5.116   0.234
 3915SOL     OW13518   5.520   1.522  10.899
 3915SOL    HW113519   5.542   1.614  10.914
 3915SOL    HW213520   5.597   1.474  10.931
 3916SOL     OW13521   5.541  11.165   0.950
 3916SOL    HW113522   5.463  11.130   0.993
 3916SOL    HW213523   5.522  11.157   0.856
 3917SOL     OW13524  12.544   6.718   4.901
 3917SOL    HW113525  12.539   6.682   4.812
 3917SOL    HW213526  12.565   6.810   4.888
 3918SOL     OW13527   9.327  11.914   2.445
 3918SOL    HW113528   9.325  12.005   2.414
 3918SOL    HW213529   9.410  11.880   2.411
 3919SOL     OW13530  10.411   8.008   4.794
 3919SOL    HW113531  10.373   8.094   4.812
 3919SOL    HW213532  10.373   7.983   4.709
 3920SOL     OW13533   2.896   8.582   5.638
 3920SOL    HW113534   2.918   8.526   5.563
 3920SOL    HW213535   2.933   8.667   5.615
 3921SOL     OW13536   7.322   7.250   0.316
 3921SOL    HW113537   7.294   7.309   0.385
 3921SOL    HW213538   7.417   7.250   0.321
 3922SOL     OW13539  11.140  13.012   6.144
 3922SOL    HW113540  11.200  13.086   6.138
 3922SOL    HW213541  11.183  12.951   6.204
 3923SOL     OW13542   6.996   2.233  12.441
 3923SOL    HW113543   7.037   2.187  12.514
 3923SOL    HW213544   6.906   2.248  12.469
 3924SOL     OW13545   8.491   7.589  13.285
 3924SOL    HW113546   8.510   7.664  13.340
 3924SOL    HW213547   8.577   7.560  13.254
 3925SOL     OW13548   3.253   1.466  14.633
 3925SOL    HW113549   3.329   1.458  14.691
 3925SOL    HW213550   3.188   1.406  14.670
 3926SOL     OW13551  11.212   7.842   2.855
 3926SOL    HW113552  11.183   7.852   2.764
 3926SOL    HW213553  11.215   7.748   2.869
 3927SOL     OW13554   1.955  10.497   9.206
 3927SOL    HW113555   1.933  10.495   9.113
 3927SOL    HW213556   1.988  10.410   9.226
 3928SOL     OW13557  13.819  10.902   4.336
 3928SOL    HW113558  13.781  10.868   4.416
 3928SOL    HW213559  13.902  10.941   4.363
 3929SOL     OW13560   8.755  14.724   2.598
 3929SOL    HW113561   8.680  14.744   2.654
 3929SOL    HW213562   8.753  14.792   2.531
 3930SOL     OW13563   3.867  13.307  11.654
 3930SOL    HW113564   3.924  13.247  11.702
 3930SOL    HW213565   3.841  13.372  11.718
 3931SOL     OW13566  14.756   3.441  12.246
 3931SOL    HW113567  14.708   3.360  12.230
 3931SOL    HW213568  14.698   3.492  12.303
 3932SOL     OW13569  13.572   9.855   0.737
 3932SOL    HW113570  13.586   9.763   0.713
 3932SOL    HW213571  13.525   9.852   0.820
 3933SOL     OW13572  14.817   3.007  10.267
 3933SOL    HW113573  14.810   3.093  10.226
 3933SOL    HW213574   0.031   2.982  10.253
 3934SOL     OW13575   0.335   4.797   9.096
 3934SOL    HW113576   0.362   4.726   9.154
 3934SOL    HW213577   0.412   4.815   9.042
 3935SOL     OW13578   3.301   5.866   6.962
 3935SOL    HW113579   3.239   5.919   7.012
 3935SOL    HW213580   3.308   5.784   7.011
 3936SOL     OW13581  13.369   4.873  12.998
 3936SOL    HW113582  13.275   4.894  13.000
 3936SOL    HW213583  13.402   4.905  13.082
 3937SOL     OW13584   0.077   6.538  13.547
 3937SOL    HW113585   0.155   6.574  13.505
 3937SOL    HW213586   0.010   6.606  13.536
 3938SOL     OW13587  13.206   4.977  10.070
 3938SOL    HW113588  13.225   4.887  10.094
 3938SOL    HW213589  13.269   4.997  10.001
 3939SOL     OW13590   9.746   6.560   7.282
 3939SOL    HW113591   9.666   6.609   7.301
 3939SOL    HW213592   9.751   6.494   7.351
 3940SOL     OW13593   0.278   0.615  14.640
 3940SOL    HW113594   0.240   0.598  14.726
 3940SOL    HW213595   0.265   0.709  14.626
 3941SOL     OW13596   5.832   6.338   1.800
 3941SOL    HW113597   5.927   6.346   1.813
 3941SOL    HW213598   5.812   6.247   1.823
 3942SOL     OW13599   1.614   2.006  12.459
 3942SOL    HW113600   1.676   2.075  12.483
 3942SOL    HW213601   1.550   2.006  12.531
 3943SOL     OW13602  14.430   5.387   9.199
 3943SOL    HW113603  14.363   5.452   9.179
 3943SOL    HW213604  14.381   5.311   9.229
 3944SOL     OW13605   4.648  13.443   8.062
 3944SOL    HW113606   4.567  13.419   8.018
 3944SOL    HW213607   4.640  13.407   8.150
 3945SOL     OW13608  13.246  10.938   6.015
 3945SOL    HW113609  13.293  10.858   5.992
 3945SOL    HW213610  13.157  10.908   6.036
 3946SOL     OW13611   1.334  13.996   8.882
 3946SOL    HW113612   1.407  14.053   8.857
 3946SOL    HW213613   1.259  14.032   8.835
 3947SOL     OW13614   3.894   3.880  11.642
 3947SOL    HW113615   3.967   3.901  11.701
 3947SOL    HW213616   3.883   3.959  11.589
 3948SOL     OW13617   7.565   9.904   3.661
 3948SOL    HW113618   7.512   9.978   3.691
 3948SOL    HW213619   7.637   9.899   3.724
 3949SOL     OW13620  12.111   0.502   4.358
 3949SOL    HW113621  12.168   0.579   4.364
 3949SOL    HW213622  12.029   0.530   4.398
 3950SOL     OW13623  11.628   8.816   4.850
 3950SOL    HW113624  11.645   8.836   4.758
 3950SOL    HW213625  11.704   8.851   4.896
 3951SOL     OW13626   0.912   0.098   0.184
 3951SOL    HW113627   0.906   0.189   0.155
 3951SOL    HW213628   0.940   0.104   0.275
 3952SOL     OW13629  10.862  11.421   1.003
 3952SOL    HW113630  10.783  11.435   0.952
 3952SOL    HW213631  10.832  11.419   1.094
 3953SOL     OW13632   9.060   2.966   0.136
 3953SOL    HW113633   9.058   2.872   0.153
 3953SOL    HW213634   9.152   2.990   0.144
 3954SOL     OW13635  12.803   0.276   3.134
 3954SOL    HW113636  12.851   0.331   3.072
 3954SOL    HW213637  12.723   0.251   3.087
 3955SOL     OW13638   7.830  14.082   8.103
 3955SOL    HW113639   7.756  14.127   8.145
 3955SOL    HW213640   7.861  14.019   8.168
 3956SOL     OW13641  13.742  12.808   6.822
 3956SOL    HW113642  13.670  12.794   6.883
 3956SOL    HW213643  13.711  12.878   6.763
 3957SOL     OW13644   1.929   3.616  10.756
 3957SOL    HW113645   1.959   3.686  10.813
 3957SOL    HW213646   1.876   3.660  10.689
 3958SOL     OW13647   4.500   5.422  10.218
 3958SOL    HW113648   4.418   5.464  10.190
 3958SOL    HW213649   4.475   5.371  10.295
 3959SOL     OW13650   3.010   6.973  13.973
 3959SOL    HW113651   2.976   6.904  13.917
 3959SOL    HW213652   2.939   7.036  13.979
 3960SOL     OW13653   1.985   9.779  13.870
 3960SOL    HW113654   1.973   9.840  13.797
 3960SOL    HW213655   1.918   9.803  13.934
 3961SOL     OW13656   6.051  11.198  13.741
 3961SOL    HW113657   5.959  11.223  13.735
 3961SOL    HW213658   6.099  11.280  13.731
 3962SOL     OW13659   1.694   0.680   6.091
 3962SOL    HW113660   1.677   0.774   6.095
 3962SOL    HW213661   1.607   0.641   6.083
 3963SOL     OW13662  10.415   7.070   9.367
 3963SOL    HW113663  10.333   7.097   9.326
 3963SOL    HW213664  10.403   6.978   9.388
 3964SOL     OW13665   9.068   1.028   6.089
 3964SOL    HW113666   9.143   1.086   6.075
 3964SOL    HW213667   9.093   0.946   6.048
 3965SOL     OW13668   1.415  10.829  14.529
 3965SOL    HW113669   1.395  10.795  14.442
 3965SOL    HW213670   1.385  10.761  14.589
 3966SOL     OW13671   8.607  14.081  13.683
 3966SOL    HW113672   8.572  13.999  13.718
 3966SOL    HW213673   8.540  14.146  13.701
 3967SOL     OW13674   0.636   8.557   2.627
 3967SOL    HW113675   0.719   8.529   2.589
 3967SOL    HW213676   0.620   8.495   2.698
 3968SOL     OW13677   5.166  13.661  12.261
 3968SOL    HW113678   5.228  13.589  12.278
 3968SOL    HW213679   5.152  13.701  12.347
 3969SOL     OW13680  11.926  13.509  11.689
 3969SOL    HW113681  11.933  13.585  11.747
 3969SOL    HW213682  11.985  13.444  11.728
 3970SOL     OW13683   3.658  12.564   2.299
 3970SOL    HW113684   3.566  12.565   2.273
 3970SOL    HW213685   3.670  12.643   2.351
 3971SOL     OW13686  12.129  10.974  13.446
 3971SOL    HW113687  12.124  11.050  13.503
 3971SOL    HW213688  12.198  10.920  13.484
 3972SOL     OW13689   5.655  14.793   4.702
 3972SOL    HW113690   5.659  14.758   4.791
 3972SOL    HW213691   5.605  14.874   4.710
 3973SOL     OW13692  14.077   8.195   3.067
 3973SOL    HW113693  14.112   8.276   3.030
 3973SOL    HW213694  14.082   8.132   2.995
 3974SOL     OW13695  12.738  10.733   2.118
 3974SOL    HW113696  12.722  10.639   2.104
 3974SOL    HW213697  12.786  10.737   2.201
 3975SOL     OW13698   5.435  11.915   6.310
 3975SOL    HW113699   5.454  11.822   6.298
 3975SOL    HW213700   5.479  11.958   6.237
 3976SOL     OW13701  13.436   6.846  13.859
 3976SOL    HW113702  13.407   6.931  13.825
 3976SOL    HW213703  13.519   6.865  13.902
 3977SOL     OW13704   7.022  12.139   9.571
 3977SOL    HW113705   7.004  12.144   9.477
 3977SOL    HW213706   7.100  12.084   9.578
 3978SOL     OW13707   7.520  11.317   2.886
 3978SOL    HW113708   7.459  11.322   2.960
 3978SOL    HW213709   7.477  11.259   2.823
 3979SOL     OW13710   6.635   6.265  11.131
 3979SOL    HW113711   6.689   6.300  11.202
 3979SOL    HW213712   6.627   6.172  11.150
 3980SOL     OW13713   1.837  13.182  14.651
 3980SOL    HW113714   1.807  13.104  14.605
 3980SOL    HW213715   1.909  13.151  14.706
 3981SOL     OW13716   6.782  10.407   5.959
 3981SOL    HW113717   6.837  10.381   6.033
 3981SOL    HW213718   6.838  10.467   5.908
 3982SOL     OW13719   5.819   4.181   9.493
 3982SOL    HW113720   5.857   4.253   9.443
 3982SOL    HW213721   5.891   4.122   9.510
 3983SOL     OW13722   0.844  11.128   1.927
 3983SOL    HW113723   0.791  11.092   1.857
 3983SOL    HW213724   0.923  11.160   1.884
 3984SOL     OW13725   3.152   2.692   5.225
 3984SOL    HW113726   3.085   2.638   5.267
 3984SOL    HW213727   3.221   2.631   5.201
 3985SOL     OW13728   8.605   9.844  13.417
 3985SOL    HW113729   8.567   9.765  13.378
 3985SOL    HW213730   8.686   9.814  13.458
 3986SOL     OW13731   4.454   0.439   0.731
 3986SOL    HW113732   4.503   0.498   0.673
 3986SOL    HW213733   4.505   0.438   0.812
 3987SOL     OW13734  12.132   0.055  10.128
 3987SOL    HW113735  12.163  14.866  10.067
 3987SOL    HW213736  12.139   0.015  10.214
 3988SOL     OW13737  11.018  13.560   4.312
 3988SOL    HW113738  10.960  13.492   4.347
 3988SOL    HW213739  11.041  13.529   4.225
 3989SOL     OW13740  12.841   8.580   9.311
 3989SOL    HW113741  12.868   8.566   9.401
 3989SOL    HW213742  12.900   8.647   9.278
 3990SOL     OW13743   0.699   2.100  13.189
 3990SOL    HW113744   0.786   2.134  13.169
 3990SOL    HW213745   0.657   2.092  13.103
 3991SOL     OW13746   1.187   5.287  11.380
 3991SOL    HW113747   1.281   5.287  11.365
 3991SOL    HW213748   1.168   5.375  11.415
 3992SOL     OW13749  11.263   2.085   7.150
 3992SOL    HW113750  11.229   2.172   7.128
 3992SOL    HW213751  11.199   2.049   7.211
 3993SOL     OW13752   7.768  11.673   4.216
 3993SOL    HW113753   7.738  11.609   4.280
 3993SOL    HW213754   7.764  11.757   4.263
 3994SOL     OW13755   8.032   3.073   4.005
 3994SOL    HW113756   8.072   2.987   4.018
 3994SOL    HW213757   8.044   3.118   4.088
 3995SOL     OW13758   6.274   7.954  14.318
 3995SOL    HW113759   6.229   7.925  14.397
 3995SOL    HW213760   6.359   7.986  14.349
 3996SOL     OW13761   3.555   1.346   8.797
 3996SOL    HW113762   3.503   1.275   8.835
 3996SOL    HW213763   3.613   1.374   8.868
 3997SOL     OW13764  13.916   3.452  10.299
 3997SOL    HW113765  13.932   3.359  10.281
 3997SOL    HW213766  13.994   3.497  10.264
 3998SOL     OW13767   4.293   0.014  14.667
 3998SOL    HW113768   4.276  14.809  14.711
 3998SOL    HW213769   4.207   0.058  14.665
 3999SOL     OW13770   1.475  14.838  12.802
 3999SOL    HW113771   1.499   0.034  12.858
 3999SOL    HW213772   1.506  14.761  12.850
 4000SOL     OW13773   1.676  12.919   8.285
 4000SOL    HW113774   1.698  12.883   8.371
 4000SOL    HW213775   1.686  12.846   8.224
 4001SOL     OW13776  11.804   8.345  10.712
 4001SOL    HW113777  11.837   8.435  10.713
 4001SOL    HW213778  11.883   8.290  10.722
 4002SOL     OW13779   2.422   5.821  13.869
 4002SOL    HW113780   2.404   5.735  13.907
 4002SOL    HW213781   2.475   5.802  13.792
 4003SOL     OW13782   3.602   7.725   3.654
 4003SOL    HW113783   3.581   7.790   3.587
 4003SOL    HW213784   3.517   7.694   3.686
 4004SOL     OW13785  14.558   5.953  10.640
 4004SOL    HW113786  14.530   6.043  10.625
 4004SOL    HW213787  14.484   5.900  10.610
 4005SOL     OW13788  12.559   0.665   7.361
 4005SOL    HW113789  12.585   0.583   7.320
 4005SOL    HW213790  12.590   0.733   7.301
 4006SOL     OW13791   6.993   4.839   5.371
 4006SOL    HW113792   7.066   4.900   5.381
 4006SOL    HW213793   6.924   4.891   5.330
 4007SOL     OW13794   8.340   2.537  14.749
 4007SOL    HW113795   8.301   2.545  14.836
 4007SOL    HW213796   8.321   2.621  14.706
 4008SOL     OW13797  13.744  11.842  14.270
 4008SOL    HW113798  13.721  11.876  14.357
 4008SOL    HW213799  13.788  11.914  14.226
 4009SOL     OW13800   8.981   4.468  10.345
 4009SOL    HW113801   9.057   4.513  10.309
 4009SOL    HW213802   8.906   4.516  10.308
 4010SOL     OW13803  10.389   8.097   1.066
 4010SOL    HW113804  10.352   8.054   1.143
 4010SOL    HW213805  10.434   8.027   1.019
 4011SOL     OW13806   9.151   5.261  13.871
 4011SOL    HW113807   9.227   5.318  13.878
 4011SOL    HW213808   9.144   5.241  13.777
 4012SOL     OW13809   3.030   3.277   4.805
 4012SOL    HW113810   3.000   3.364   4.834
 4012SOL    HW213811   3.104   3.258   4.861
 4013SOL     OW13812  14.630   8.832   6.873
 4013SOL    HW113813  14.642   8.915   6.827
 4013SOL    HW213814  14.568   8.852   6.943
 4014SOL     OW13815  12.767   8.308  14.047
 4014SOL    HW113816  12.684   8.329  14.004
 4014SOL    HW213817  12.821   8.385  14.033
 4015SOL     OW13818   2.352  10.845  13.727
 4015SOL    HW113819   2.282  10.897  13.768
 4015SOL    HW213820   2.399  10.805  13.800
 4016SOL     OW13821   6.646  11.993   0.617
 4016SOL    HW113822   6.560  11.981   0.657
 4016SOL    HW213823   6.627  12.037   0.534
 4017SOL     OW13824  14.142  11.276   6.928
 4017SOL    HW113825  14.214  11.214   6.940
 4017SOL    HW213826  14.178  11.360   6.956
 4018SOL     OW13827   2.370   7.760  12.383
 4018SOL    HW113828   2.411   7.847  12.389
 4018SOL    HW213829   2.390   7.719  12.467
 4019SOL     OW13830   1.928   7.456  14.569
 4019SOL    HW113831   1.894   7.367  14.570
 4019SOL    HW213832   2.005   7.454  14.626
 4020SOL     OW13833   8.149   6.080   5.130
 4020SOL    HW113834   8.237   6.115   5.143
 4020SOL    HW213835   8.092   6.140   5.178
 4021SOL     OW13836  14.493   1.136   4.290
 4021SOL    HW113837  14.494   1.183   4.206
 4021SOL    HW213838  14.548   1.189   4.347
 4022SOL     OW13839   7.074  13.875   3.455
 4022SOL    HW113840   7.032  13.807   3.508
 4022SOL    HW213841   7.093  13.945   3.517
 4023SOL     OW13842   1.794  11.488   4.436
 4023SOL    HW113843   1.707  11.504   4.473
 4023SOL    HW213844   1.792  11.533   4.351
 4024SOL     OW13845   9.449   9.679  13.030
 4024SOL    HW113846   9.413   9.699  12.944
 4024SOL    HW213847   9.376   9.692  13.090
 4025SOL     OW13848   9.548   9.718   1.087
 4025SOL    HW113849   9.484   9.750   1.024
 4025SOL    HW213850   9.516   9.632   1.114
 4026SOL     OW13851   6.494   0.499   5.063
 4026SOL    HW113852   6.483   0.404   5.059
 4026SOL    HW213853   6.560   0.518   4.996
 4027SOL     OW13854   4.277   2.921   9.716
 4027SOL    HW113855   4.322   2.952   9.794
 4027SOL    HW213856   4.331   2.951   9.643
 4028SOL     OW13857  13.821   4.692   6.215
 4028SOL    HW113858  13.739   4.668   6.259
 4028SOL    HW213859  13.820   4.787   6.213
 4029SOL     OW13860   4.768   2.896  12.982
 4029SOL    HW113861   4.772   2.969  12.920
 4029SOL    HW213862   4.727   2.933  13.060
 4030SOL     OW13863   3.709   4.046   6.876
 4030SOL    HW113864   3.789   4.059   6.926
 4030SOL    HW213865   3.665   4.132   6.878
 4031SOL     OW13866   3.858  13.698  11.460
 4031SOL    HW113867   3.948  13.701  11.493
 4031SOL    HW213868   3.856  13.761  11.388
 4032SOL     OW13869  13.634   1.051  13.277
 4032SOL    HW113870  13.585   1.110  13.221
 4032SOL    HW213871  13.634   0.968  13.229
 4033SOL     OW13872   1.264   8.426   1.072
 4033SOL    HW113873   1.241   8.385   1.154
 4033SOL    HW213874   1.263   8.355   1.008
 4034SOL     OW13875   0.757   3.354  13.394
 4034SOL    HW113876   0.802   3.379  13.313
 4034SOL    HW213877   0.689   3.294  13.366
 4035SOL     OW13878   5.746   6.684   9.970
 4035SOL    HW113879   5.783   6.770   9.989
 4035SOL    HW213880   5.703   6.694   9.885
 4036SOL     OW13881  14.836   5.145   1.324
 4036SOL    HW113882   0.052   5.144   1.345
 4036SOL    HW213883  14.828   5.085   1.250
 4037SOL     OW13884   2.579   6.268  10.595
 4037SOL    HW113885   2.630   6.217  10.657
 4037SOL    HW213886   2.519   6.205  10.555
 4038SOL     OW13887  14.713   6.955   7.208
 4038SOL    HW113888  14.632   6.980   7.163
 4038SOL    HW213889  14.724   6.862   7.188
 4039SOL     OW13890   6.071   7.828   7.204
 4039SOL    HW113891   5.989   7.871   7.179
 4039SOL    HW213892   6.043   7.747   7.246
 4040SOL     OW13893  12.271   7.160   6.011
 4040SOL    HW113894  12.341   7.224   6.021
 4040SOL    HW213895  12.297   7.107   5.936
 4041SOL     OW13896   6.086  14.748   1.960
 4041SOL    HW113897   6.024  14.792   2.017
 4041SOL    HW213898   6.032  14.715   1.887
 4042SOL     OW13899   6.456   8.049   7.063
 4042SOL    HW113900   6.405   7.969   7.075
 4042SOL    HW213901   6.504   8.059   7.146
 4043SOL     OW13902  13.347  14.009  11.513
 4043SOL    HW113903  13.429  14.004  11.563
 4043SOL    HW213904  13.323  13.917  11.499
 4044SOL     OW13905   2.364   8.485   3.360
 4044SOL    HW113906   2.383   8.532   3.441
 4044SOL    HW213907   2.428   8.518   3.298
 4045SOL     OW13908  10.468   9.819  13.345
 4045SOL    HW113909  10.555   9.819  13.304
 4045SOL    HW213910  10.420   9.887  13.299
 4046SOL     OW13911  13.371  13.059  10.497
 4046SOL    HW113912  13.431  13.075  10.570
 4046SOL    HW213913  13.416  13.096  10.421
 4047SOL     OW13914   0.941   7.955   1.656
 4047SOL    HW113915   0.950   7.886   1.591
 4047SOL    HW213916   0.915   7.910   1.736
 4048SOL     OW13917  13.646   1.366   5.507
 4048SOL    HW113918  13.596   1.440   5.472
 4048SOL    HW213919  13.682   1.398   5.590
 4049SOL     OW13920  12.472   6.653   2.085
 4049SOL    HW113921  12.481   6.746   2.066
 4049SOL    HW213922  12.543   6.634   2.146
 4050SOL     OW13923   6.867  11.312   6.679
 4050SOL    HW113924   6.962  11.309   6.670
 4050SOL    HW213925   6.847  11.402   6.704
 4051SOL     OW13926  10.291  13.901   9.790
 4051SOL    HW113927  10.371  13.849   9.792
 4051SOL    HW213928  10.321  13.992   9.797
 4052SOL     OW13929   3.635  11.503   9.312
 4052SOL    HW113930   3.609  11.415   9.283
 4052SOL    HW213931   3.718  11.490   9.357
 4053SOL     OW13932   4.902   4.907   7.818
 4053SOL    HW113933   4.958   4.876   7.890
 4053SOL    HW213934   4.899   5.002   7.829
 4054SOL     OW13935  11.285  10.994   7.128
 4054SOL    HW113936  11.314  11.085   7.131
 4054SOL    HW213937  11.360  10.944   7.159
 4055SOL     OW13938   6.789   8.524   1.841
 4055SOL    HW113939   6.813   8.509   1.933
 4055SOL    HW213940   6.816   8.614   1.823
 4056SOL     OW13941   2.705   3.860   4.345
 4056SOL    HW113942   2.756   3.793   4.300
 4056SOL    HW213943   2.720   3.940   4.294
 4057SOL     OW13944   1.033  10.191  12.924
 4057SOL    HW113945   0.991  10.256  12.867
 4057SOL    HW213946   0.963  10.129  12.945
 4058SOL     OW13947  13.179  13.110   6.695
 4058SOL    HW113948  13.220  13.180   6.745
 4058SOL    HW213949  13.108  13.153   6.648
 4059SOL     OW13950   0.649  11.123   9.730
 4059SOL    HW113951   0.733  11.167   9.741
 4059SOL    HW213952   0.664  11.035   9.766
 4060SOL     OW13953   6.661  13.959  11.601
 4060SOL    HW113954   6.603  13.945  11.526
 4060SOL    HW213955   6.601  13.972  11.675
 4061SOL     OW13956   2.357  10.594   0.823
 4061SOL    HW113957   2.353  10.672   0.768
 4061SOL    HW213958   2.354  10.628   0.913
 4062SOL     OW13959  10.835   2.958  12.933
 4062SOL    HW113960  10.842   3.048  12.965
 4062SOL    HW213961  10.849   2.904  13.011
 4063SOL     OW13962   8.835   9.743  11.379
 4063SOL    HW113963   8.874   9.809  11.436
 4063SOL    HW213964   8.786   9.685  11.437
 4064SOL     OW13965  11.935   4.999  11.135
 4064SOL    HW113966  11.959   5.091  11.134
 4064SOL    HW213967  11.990   4.960  11.203
 4065SOL     OW13968  12.791   7.192   8.136
 4065SOL    HW113969  12.780   7.115   8.192
 4065SOL    HW213970  12.840   7.254   8.191
 4066SOL     OW13971   4.742   5.345   0.983
 4066SOL    HW113972   4.692   5.373   1.059
 4066SOL    HW213973   4.819   5.301   1.020
 4067SOL     OW13974   4.049   6.233  11.817
 4067SOL    HW113975   4.070   6.296  11.886
 4067SOL    HW213976   4.107   6.256  11.744
 4068SOL     OW13977   5.567   6.242   6.181
 4068SOL    HW113978   5.518   6.205   6.255
 4068SOL    HW213979   5.645   6.281   6.221
 4069SOL     OW13980  10.970  14.353  11.056
 4069SOL    HW113981  10.987  14.443  11.085
 4069SOL    HW213982  10.950  14.362  10.962
 4070SOL     OW13983   4.436   0.574  12.423
 4070SOL    HW113984   4.478   0.532  12.348
 4070SOL    HW213985   4.508   0.586  12.486
 4071SOL     OW13986  13.133   9.882   7.222
 4071SOL    HW113987  13.044   9.905   7.249
 4071SOL    HW213988  13.184   9.960   7.240
 4072SOL     OW13989   1.698   8.435  14.798
 4072SOL    HW113990   1.787   8.451  14.766
 4072SOL    HW213991   1.708   8.432   0.016
 4073SOL     OW13992   3.679  14.623   6.492
 4073SOL    HW113993   3.688  14.532   6.519
 4073SOL    HW213994   3.600  14.654   6.536
 4074SOL     OW13995   4.318   5.320   1.646
 4074SOL    HW113996   4.359   5.239   1.675
 4074SOL    HW213997   4.321   5.315   1.550
 4075SOL     OW13998   1.302  11.955  10.730
 4075SOL    HW113999   1.322  12.000  10.812
 4075SOL    HW214000   1.214  11.919  10.743
 4076SOL     OW14001  10.202   1.078  12.937
 4076SOL    HW114002  10.151   1.157  12.956
 4076SOL    HW214003  10.290   1.109  12.919
 4077SOL     OW14004   1.431  10.540  14.030
 4077SOL    HW114005   1.398  10.620  13.988
 4077SOL    HW214006   1.486  10.572  14.101
 4078SOL     OW14007  12.694   5.950   5.259
 4078SOL    HW114008  12.718   5.858   5.273
 4078SOL    HW214009  12.671   5.982   5.346
 4079SOL     OW14010  12.535   3.552   8.599
 4079SOL    HW114011  12.528   3.631   8.545
 4079SOL    HW214012  12.459   3.499   8.575
 4080SOL     OW14013   5.478   6.915  14.537
 4080SOL    HW114014   5.567   6.895  14.509
 4080SOL    HW214015   5.488   6.991  14.595
 4081SOL     OW14016  10.453  13.834   4.356
 4081SOL    HW114017  10.483  13.871   4.273
 4081SOL    HW214018  10.526  13.845   4.416
 4082SOL     OW14019  10.248   2.435   1.195
 4082SOL    HW114020  10.233   2.357   1.141
 4082SOL    HW214021  10.288   2.498   1.135
 4083SOL     OW14022   9.929   6.269  12.285
 4083SOL    HW114023   9.952   6.187  12.328
 4083SOL    HW214024   9.882   6.318  12.352
 4084SOL     OW14025   5.378  12.164  12.274
 4084SOL    HW114026   5.358  12.081  12.318
 4084SOL    HW214027   5.354  12.231  12.338
 4085SOL     OW14028  10.734   9.356  13.590
 4085SOL    HW114029  10.686   9.282  13.553
 4085SOL    HW214030  10.696   9.369  13.677
 4086SOL     OW14031   6.460   2.783  12.365
 4086SOL    HW114032   6.552   2.754  12.367
 4086SOL    HW214033   6.438   2.784  12.272
 4087SOL     OW14034   6.853   8.789   5.416
 4087SOL    HW114035   6.916   8.859   5.436
 4087SOL    HW214036   6.890   8.744   5.340
 4088SOL     OW14037  14.723   5.085   6.703
 4088SOL    HW114038  14.792   5.122   6.757
 4088SOL    HW214039  14.649   5.144   6.715
 4089SOL     OW14040   0.996   6.149  13.914
 4089SOL    HW114041   0.931   6.094  13.957
 4089SOL    HW214042   0.953   6.178  13.834
 4090SOL     OW14043   8.114   5.833   1.484
 4090SOL    HW114044   8.101   5.922   1.518
 4090SOL    HW214045   8.123   5.778   1.562
 4091SOL     OW14046  10.406   0.471   9.173
 4091SOL    HW114047  10.395   0.381   9.143
 4091SOL    HW214048  10.354   0.523   9.112
 4092SOL     OW14049   4.398   9.405   8.771
 4092SOL    HW114050   4.470   9.418   8.832
 4092SOL    HW214051   4.432   9.342   8.707
 4093SOL     OW14052   3.830   1.367   2.469
 4093SOL    HW114053   3.779   1.318   2.404
 4093SOL    HW214054   3.836   1.455   2.433
 4094SOL     OW14055  14.342   1.711  10.466
 4094SOL    HW114056  14.267   1.708  10.527
 4094SOL    HW214057  14.362   1.619  10.449
 4095SOL     OW14058  11.535   3.395   0.941
 4095SOL    HW114059  11.618   3.384   0.988
 4095SOL    HW214060  11.470   3.355   0.999
 4096SOL     OW14061  10.641   4.184  14.869
 4096SOL    HW114062  10.619   4.140  14.787
 4096SOL    HW214063  10.608   4.127   0.059
 4097SOL     OW14064  12.708  13.010  14.850
 4097SOL    HW114065  12.682  12.948   0.041
 4097SOL    HW214066  12.628  13.024  14.800
 4098SOL     OW14067   0.579   7.690  12.012
 4098SOL    HW114068   0.552   7.679  12.103
 4098SOL    HW214069   0.602   7.601  11.983
 4099SOL     OW14070   8.059   4.385  13.664
 4099SOL    HW114071   7.975   4.392  13.619
 4099SOL    HW214072   8.091   4.475  13.670
 4100SOL     OW14073  13.368   7.550   2.959
 4100SOL    HW114074  13.449   7.590   2.929
 4100SOL    HW214075  13.340   7.495   2.886
 4101SOL     OW14076  13.490   3.179  11.288
 4101SOL    HW114077  13.472   3.209  11.377
 4101SOL    HW214078  13.577   3.211  11.268
 4102SOL     OW14079   1.788  14.474   7.287
 4102SOL    HW114080   1.763  14.426   7.366
 4102SOL    HW214081   1.715  14.535   7.272
 4103SOL     OW14082   6.526   3.294  11.022
 4103SOL    HW114083   6.457   3.298  11.088
 4103SOL    HW214084   6.555   3.385  11.011
 4104SOL     OW14085  10.196   8.255   2.199
 4104SOL    HW114086  10.130   8.322   2.218
 4104SOL    HW214087  10.163   8.211   2.120
 4105SOL     OW14088  11.294  14.311   6.829
 4105SOL    HW114089  11.307  14.260   6.749
 4105SOL    HW214090  11.238  14.257   6.884
 4106SOL     OW14091   8.691   5.443  13.520
 4106SOL    HW114092   8.774   5.439  13.567
 4106SOL    HW214093   8.681   5.355  13.482
 4107SOL     OW14094   3.387  11.515   3.814
 4107SOL    HW114095   3.353  11.598   3.848
 4107SOL    HW214096   3.422  11.536   3.728
 4108SOL     OW14097   5.141  13.883   6.728
 4108SOL    HW114098   5.207  13.910   6.665
 4108SOL    HW214099   5.137  13.788   6.720
 4109SOL     OW14100   2.009   5.007  13.845
 4109SOL    HW114101   2.009   5.098  13.874
 4109SOL    HW214102   1.960   4.960  13.913
 4110SOL     OW14103  12.784  10.979  13.612
 4110SOL    HW114104  12.802  10.954  13.703
 4110SOL    HW214105  12.866  11.018  13.581
 4111SOL     OW14106   4.185   4.870  11.118
 4111SOL    HW114107   4.173   4.787  11.164
 4111SOL    HW214108   4.097   4.903  11.104
 4112SOL     OW14109   7.879  13.990  13.993
 4112SOL    HW114110   7.825  14.063  13.962
 4112SOL    HW214111   7.863  13.920  13.930
 4113SOL     OW14112   7.379   1.351  14.400
 4113SOL    HW114113   7.440   1.398  14.343
 4113SOL    HW214114   7.386   1.395  14.485
 4114SOL     OW14115   2.798   1.829   6.086
 4114SOL    HW114116   2.882   1.863   6.055
 4114SOL    HW214117   2.777   1.885   6.161
 4115SOL     OW14118   9.410  12.059  12.836
 4115SOL    HW114119   9.429  12.018  12.752
 4115SOL    HW214120   9.318  12.084  12.831
 4116SOL     OW14121   9.397   5.544  13.431
 4116SOL    HW114122   9.311   5.546  13.390
 4116SOL    HW214123   9.448   5.485  13.375
 4117SOL     OW14124   4.318  11.533  12.832
 4117SOL    HW114125   4.289  11.535  12.741
 4117SOL    HW214126   4.413  11.541  12.827
 4118SOL     OW14127  11.028   7.514   0.965
 4118SOL    HW114128  11.048   7.520   0.872
 4118SOL    HW214129  11.110   7.484   1.005
 4119SOL     OW14130   2.754  12.650   1.770
 4119SOL    HW114131   2.808  12.659   1.692
 4119SOL    HW214132   2.728  12.558   1.772
 4120SOL     OW14133  12.201   5.927   6.658
 4120SOL    HW114134  12.264   5.895   6.723
 4120SOL    HW214135  12.237   5.897   6.574
 4121SOL     OW14136  11.412  14.837   3.423
 4121SOL    HW114137  11.418  14.816   3.516
 4121SOL    HW214138  11.490   0.013   3.406
 4122SOL     OW14139  11.827   9.771   6.655
 4122SOL    HW114140  11.906   9.818   6.681
 4122SOL    HW214141  11.757   9.835   6.661
 4123SOL     OW14142   8.122   1.510  14.842
 4123SOL    HW114143   8.155   1.536  14.755
 4123SOL    HW214144   8.041   1.560  14.852
 4124SOL     OW14145  12.735  10.791   4.149
 4124SOL    HW114146  12.771  10.725   4.209
 4124SOL    HW214147  12.808  10.814   4.092
 4125SOL     OW14148   1.116   6.504   8.891
 4125SOL    HW114149   1.059   6.428   8.901
 4125SOL    HW214150   1.127   6.515   8.797
 4126SOL     OW14151   0.288  11.762  14.293
 4126SOL    HW114152   0.353  11.763  14.363
 4126SOL    HW214153   0.237  11.841  14.307
 4127SOL     OW14154   6.491  13.647   5.124
 4127SOL    HW114155   6.508  13.723   5.068
 4127SOL    HW214156   6.515  13.676   5.212
 4128SOL     OW14157   9.628   3.350   5.559
 4128SOL    HW114158   9.678   3.277   5.592
 4128SOL    HW214159   9.595   3.395   5.637
 4129SOL     OW14160  14.201   5.494  14.753
 4129SOL    HW114161  14.135   5.449  14.701
 4129SOL    HW214162  14.268   5.520  14.690
 4130SOL     OW14163  10.914   4.166   4.300
 4130SOL    HW114164  10.915   4.080   4.258
 4130SOL    HW214165  10.821   4.186   4.312
 4131SOL     OW14166   4.915   5.824  10.414
 4131SOL    HW114167   4.892   5.731  10.422
 4131SOL    HW214168   4.864   5.867  10.483
 4132SOL     OW14169   6.311   2.967  11.227
 4132SOL    HW114170   6.352   3.053  11.211
 4132SOL    HW214171   6.259   2.980  11.306
 4133SOL     OW14172  10.204  11.606  14.803
 4133SOL    HW114173  10.208  11.518  14.840
 4133SOL    HW214174  10.221  11.594  14.709
 4134SOL     OW14175   3.734  10.676   4.324
 4134SOL    HW114176   3.790  10.606   4.356
 4134SOL    HW214177   3.762  10.690   4.233
 4135SOL     OW14178   5.646   1.604   3.727
 4135SOL    HW114179   5.639   1.569   3.638
 4135SOL    HW214180   5.738   1.630   3.735
 4136SOL     OW14181  12.124  14.245  14.029
 4136SOL    HW114182  12.066  14.283  13.963
 4136SOL    HW214183  12.204  14.224  13.981
 4137SOL     OW14184   1.879   8.080  12.808
 4137SOL    HW114185   1.898   7.990  12.837
 4137SOL    HW214186   1.935   8.092  12.732
 4138SOL     OW14187   7.094   2.253   3.275
 4138SOL    HW114188   7.144   2.265   3.356
 4138SOL    HW214189   7.080   2.159   3.269
 4139SOL     OW14190   6.311  11.237  13.989
 4139SOL    HW114191   6.375  11.180  14.031
 4139SOL    HW214192   6.300  11.200  13.901
 4140SOL     OW14193   4.627   4.866   3.321
 4140SOL    HW114194   4.687   4.857   3.395
 4140SOL    HW214195   4.554   4.808   3.342
 4141SOL     OW14196   4.023  10.336   9.146
 4141SOL    HW114197   3.946  10.349   9.091
 4141SOL    HW214198   4.067  10.260   9.109
 4142SOL     OW14199   4.304   0.030   9.888
 4142SOL    HW114200   4.315  14.817   9.858
 4142SOL    HW214201   4.215   0.053   9.863
 4143SOL     OW14202   9.761   6.327  12.049
 4143SOL    HW114203   9.771   6.261  12.118
 4143SOL    HW214204   9.820   6.398  12.074
 4144SOL     OW14205   5.281   4.681   1.299
 4144SOL    HW114206   5.195   4.719   1.318
 4144SOL    HW214207   5.266   4.587   1.305
 4145SOL     OW14208   2.368   2.637   2.781
 4145SOL    HW114209   2.368   2.576   2.707
 4145SOL    HW214210   2.333   2.719   2.745
 4146SOL     OW14211   2.171  14.775   4.809
 4146SOL    HW114212   2.223  14.848   4.843
 4146SOL    HW214213   2.083  14.790   4.844
 4147SOL     OW14214  10.174   3.486   7.327
 4147SOL    HW114215  10.240   3.437   7.278
 4147SOL    HW214216  10.130   3.540   7.261
 4148SOL     OW14217   6.782   0.813  13.474
 4148SOL    HW114218   6.705   0.762  13.449
 4148SOL    HW214219   6.857   0.761  13.445
 4149SOL     OW14220   1.704   4.628   6.959
 4149SOL    HW114221   1.650   4.563   7.002
 4149SOL    HW214222   1.668   4.636   6.870
 4150SOL     OW14223   0.951  13.866   2.020
 4150SOL    HW114224   1.000  13.823   1.950
 4150SOL    HW214225   1.019  13.895   2.082
 4151SOL     OW14226  14.513  14.658  12.936
 4151SOL    HW114227  14.571  14.719  12.892
 4151SOL    HW214228  14.454  14.627  12.867
 4152SOL     OW14229   6.519   9.564   0.479
 4152SOL    HW114230   6.600   9.518   0.501
 4152SOL    HW214231   6.546   9.631   0.415
 4153SOL     OW14232   5.432   8.865   8.401
 4153SOL    HW114233   5.472   8.880   8.486
 4153SOL    HW214234   5.395   8.777   8.406
 4154SOL     OW14235   1.237   0.256  12.419
 4154SOL    HW114236   1.240   0.162  12.405
 4154SOL    HW214237   1.153   0.271  12.463
 4155SOL     OW14238   7.591  11.249  12.120
 4155SOL    HW114239   7.552  11.316  12.175
 4155SOL    HW214240   7.528  11.177  12.120
 4156SOL     OW14241  13.164  12.512  12.436
 4156SOL    HW114242  13.147  12.418  12.441
 4156SOL    HW214243  13.117  12.540  12.358
 4157SOL     OW14244   6.335   5.753   2.842
 4157SOL    HW114245   6.279   5.734   2.767
 4157SOL    HW214246   6.274   5.785   2.909
 4158SOL     OW14247   8.153   0.205  14.596
 4158SOL    HW114248   8.188   0.294  14.595
 4158SOL    HW214249   8.214   0.154  14.543
 4159SOL     OW14250  10.977   8.279   7.554
 4159SOL    HW114251  11.073   8.283   7.551
 4159SOL    HW214252  10.957   8.185   7.546
 4160SOL     OW14253  14.001   3.677   2.844
 4160SOL    HW114254  14.087   3.696   2.881
 4160SOL    HW214255  13.955   3.761   2.845
 4161SOL     OW14256   1.206   8.623  14.268
 4161SOL    HW114257   1.253   8.705  14.285
 4161SOL    HW214258   1.238   8.594  14.183
 4162SOL     OW14259  10.820   6.541   0.745
 4162SOL    HW114260  10.885   6.473   0.723
 4162SOL    HW214261  10.738   6.507   0.709
 4163SOL     OW14262  12.890   2.235   7.627
 4163SOL    HW114263  12.805   2.205   7.596
 4163SOL    HW214264  12.924   2.290   7.556
 4164SOL     OW14265   9.410   1.218   2.429
 4164SOL    HW114266   9.469   1.288   2.459
 4164SOL    HW214267   9.433   1.204   2.338
 4165SOL     OW14268   1.313  10.259   8.254
 4165SOL    HW114269   1.354  10.260   8.340
 4165SOL    HW214270   1.270  10.173   8.249
 4166SOL     OW14271  12.092  11.441   4.873
 4166SOL    HW114272  12.086  11.531   4.843
 4166SOL    HW214273  12.157  11.401   4.817
 4167SOL     OW14274   7.280   5.430   4.766
 4167SOL    HW114275   7.348   5.495   4.780
 4167SOL    HW214276   7.205   5.480   4.733
 4168SOL     OW14277   9.385   5.768   7.853
 4168SOL    HW114278   9.395   5.814   7.769
 4168SOL    HW214279   9.445   5.813   7.912
 4169SOL     OW14280  14.835   7.160  14.601
 4169SOL    HW114281   0.028   7.193  14.545
 4169SOL    HW214282  14.803   7.238  14.646
 4170SOL     OW14283  10.114   7.482   5.330
 4170SOL    HW114284  10.100   7.547   5.261
 4170SOL    HW214285  10.200   7.445   5.311
 4171SOL     OW14286   4.240   2.888  11.445
 4171SOL    HW114287   4.265   2.952  11.512
 4171SOL    HW214288   4.144   2.891  11.444
 4172SOL     OW14289  13.974   5.142   2.209
 4172SOL    HW114290  13.996   5.064   2.158
 4172SOL    HW214291  13.880   5.153   2.194
 4173SOL     OW14292  11.163  12.621  10.678
 4173SOL    HW114293  11.125  12.627  10.765
 4173SOL    HW214294  11.098  12.575  10.625
 4174SOL     OW14295  12.628   0.958   7.649
 4174SOL    HW114296  12.564   0.886   7.652
 4174SOL    HW214297  12.712   0.916   7.667
 4175SOL     OW14298   6.137   4.923  11.556
 4175SOL    HW114299   6.184   4.932  11.639
 4175SOL    HW214300   6.202   4.887  11.496
 4176SOL     OW14301  12.586  10.278   6.428
 4176SOL    HW114302  12.532  10.214   6.474
 4176SOL    HW214303  12.547  10.363   6.450
 4177SOL     OW14304  14.685   6.352  11.169
 4177SOL    HW114305  14.690   6.258  11.151
 4177SOL    HW214306  14.593   6.368  11.190
 4178SOL     OW14307   4.299  12.283   2.722
 4178SOL    HW114308   4.383  12.244   2.698
 4178SOL    HW214309   4.322  12.362   2.770
 4179SOL     OW14310  13.222   5.098   1.374
 4179SOL    HW114311  13.262   5.182   1.351
 4179SOL    HW214312  13.272   5.033   1.325
 4180SOL     OW14313   6.093  10.994   8.343
 4180SOL    HW114314   6.056  10.917   8.387
 4180SOL    HW214315   6.018  11.049   8.322
 4181SOL     OW14316  12.431   8.638  10.059
 4181SOL    HW114317  12.394   8.572  10.117
 4181SOL    HW214318  12.358   8.695  10.037
 4182SOL     OW14319   6.065   4.842   0.933
 4182SOL    HW114320   6.001   4.796   0.987
 4182SOL    HW214321   6.045   4.813   0.844
 4183SOL     OW14322   7.219   7.142   9.583
 4183SOL    HW114323   7.188   7.232   9.573
 4183SOL    HW214324   7.145   7.087   9.556
 4184SOL     OW14325  12.638   8.119  14.656
 4184SOL    HW114326  12.717   8.079  14.620
 4184SOL    HW214327  12.583   8.045  14.681
 4185SOL     OW14328   9.721   7.253   1.341
 4185SOL    HW114329   9.722   7.165   1.380
 4185SOL    HW214330   9.808   7.263   1.304
 4186SOL     OW14331   1.936   1.084   7.552
 4186SOL    HW114332   2.029   1.104   7.567
 4186SOL    HW214333   1.891   1.167   7.567
 4187SOL     OW14334   7.100   3.148   9.553
 4187SOL    HW114335   7.042   3.147   9.478
 4187SOL    HW214336   7.170   3.086   9.530
 4188SOL     OW14337  10.260   2.453   7.871
 4188SOL    HW114338  10.278   2.436   7.963
 4188SOL    HW214339  10.302   2.537   7.853
 4189SOL     OW14340  10.770   6.977   0.288
 4189SOL    HW114341  10.815   6.956   0.206
 4189SOL    HW214342  10.753   7.071   0.283
 4190SOL     OW14343  11.804   3.627  13.101
 4190SOL    HW114344  11.876   3.567  13.119
 4190SOL    HW214345  11.841   3.714  13.118
 4191SOL     OW14346   0.314   3.734  11.206
 4191SOL    HW114347   0.253   3.781  11.263
 4191SOL    HW214348   0.306   3.778  11.121
 4192SOL     OW14349  10.537   2.343   0.484
 4192SOL    HW114350  10.512   2.330   0.575
 4192SOL    HW214351  10.468   2.398   0.447
 4193SOL     OW14352   1.413   5.230   7.320
 4193SOL    HW114353   1.400   5.169   7.392
 4193SOL    HW214354   1.436   5.175   7.245
 4194SOL     OW14355   9.756  11.207   5.891
 4194SOL    HW114356   9.686  11.268   5.916
 4194SOL    HW214357   9.716  11.150   5.826
 4195SOL     OW14358   8.256  11.928  13.648
 4195SOL    HW114359   8.337  11.899  13.607
 4195SOL    HW214360   8.199  11.954  13.575
 4196SOL     OW14361   6.769   2.288   3.078
 4196SOL    HW114362   6.797   2.275   2.987
 4196SOL    HW214363   6.692   2.344   3.071
 4197SOL     OW14364   2.748   9.306   5.847
 4197SOL    HW114365   2.756   9.401   5.837
 4197SOL    HW214366   2.685   9.280   5.780
 4198SOL     OW14367   7.502  12.501  13.036
 4198SOL    HW114368   7.583  12.523  13.083
 4198SOL    HW214369   7.499  12.406  13.036
 4199SOL     OW14370   7.623   1.264  13.597
 4199SOL    HW114371   7.587   1.351  13.579
 4199SOL    HW214372   7.670   1.274  13.680
 4200SOL     OW14373  13.561   8.314   4.691
 4200SOL    HW114374  13.513   8.233   4.675
 4200SOL    HW214375  13.520   8.378   4.631
 4201SOL     OW14376   1.209  13.284   9.866
 4201SOL    HW114377   1.174  13.233   9.939
 4201SOL    HW214378   1.137  13.343   9.842
 4202SOL     OW14379  10.256   3.815  14.812
 4202SOL    HW114380  10.262   3.749   0.002
 4202SOL    HW214381  10.169   3.853  14.822
 4203SOL     OW14382   4.406  12.574   9.716
 4203SOL    HW114383   4.367  12.497   9.674
 4203SOL    HW214384   4.374  12.570   9.807
 4204SOL     OW14385  10.536   8.935  14.619
 4204SOL    HW114386  10.478   8.922  14.694
 4204SOL    HW214387  10.554   8.847  14.587
 4205SOL     OW14388   8.776  13.546   1.232
 4205SOL    HW114389   8.825  13.545   1.314
 4205SOL    HW214390   8.817  13.479   1.178
 4206SOL     OW14391   0.560  10.259   5.502
 4206SOL    HW114392   0.468  10.278   5.524
 4206SOL    HW214393   0.576  10.308   5.422
 4207SOL     OW14394  11.257   6.076   0.095
 4207SOL    HW114395  11.315   6.076   0.171
 4207SOL    HW214396  11.286   6.151   0.043
 4208SOL     OW14397   6.634  14.374   8.882
 4208SOL    HW114398   6.724  14.344   8.893
 4208SOL    HW214399   6.587  14.334   8.956
 4209SOL     OW14400   7.671   5.743  10.342
 4209SOL    HW114401   7.679   5.719  10.435
 4209SOL    HW214402   7.617   5.822  10.342
 4210SOL     OW14403   7.522   2.952   2.511
 4210SOL    HW114404   7.505   3.001   2.431
 4210SOL    HW214405   7.436   2.931   2.546
 4211SOL     OW14406   1.184   2.015   9.400
 4211SOL    HW114407   1.259   2.060   9.440
 4211SOL    HW214408   1.165   2.066   9.321
 4212SOL     OW14409   9.296   2.302  14.695
 4212SOL    HW114410   9.360   2.374  14.688
 4212SOL    HW214411   9.291   2.283  14.788
 4213SOL     OW14412   1.451   6.536   3.775
 4213SOL    HW114413   1.439   6.499   3.862
 4213SOL    HW214414   1.533   6.585   3.780
 4214SOL     OW14415  10.345   9.067   2.827
 4214SOL    HW114416  10.253   9.069   2.800
 4214SOL    HW214417  10.360   9.154   2.866
 4215SOL     OW14418   5.254  14.282   4.968
 4215SOL    HW114419   5.253  14.191   4.996
 4215SOL    HW214420   5.179  14.322   5.011
 4216SOL     OW14421  13.123   3.289   2.983
 4216SOL    HW114422  13.135   3.360   2.919
 4216SOL    HW214423  13.138   3.331   3.068
 4217SOL     OW14424  13.389  13.164  10.053
 4217SOL    HW114425  13.392  13.233   9.988
 4217SOL    HW214426  13.348  13.090  10.008
 4218SOL     OW14427  11.642  13.307   0.305
 4218SOL    HW114428  11.548  13.287   0.308
 4218SOL    HW214429  11.652  13.380   0.367
 4219SOL     OW14430  14.259  10.033  12.232
 4219SOL    HW114431  14.277  10.093  12.160
 4219SOL    HW214432  14.306  10.070  12.306
 4220SOL     OW14433   3.936  14.512   9.430
 4220SOL    HW114434   3.994  14.530   9.356
 4220SOL    HW214435   3.852  14.549   9.404
 4221SOL     OW14436   8.644   4.860   8.836
 4221SOL    HW114437   8.733   4.835   8.859
 4221SOL    HW214438   8.589   4.802   8.890
 4222SOL     OW14439   5.395   2.921  12.791
 4222SOL    HW114440   5.396   2.970  12.708
 4222SOL    HW214441   5.446   2.976  12.851
 4223SOL     OW14442   3.194   8.108   4.819
 4223SOL    HW114443   3.197   8.045   4.891
 4223SOL    HW214444   3.218   8.191   4.859
 4224SOL     OW14445   8.272  13.766   2.545
 4224SOL    HW114446   8.330  13.693   2.520
 4224SOL    HW214447   8.232  13.794   2.462
 4225SOL     OW14448   4.411  10.940   8.839
 4225SOL    HW114449   4.385  11.009   8.901
 4225SOL    HW214450   4.351  10.868   8.856
 4226SOL     OW14451   9.953  11.151  11.048
 4226SOL    HW114452   9.978  11.205  10.973
 4226SOL    HW214453  10.034  11.142  11.099
 4227SOL     OW14454   2.968   6.942   4.375
 4227SOL    HW114455   3.043   6.968   4.321
 4227SOL    HW214456   2.892   6.978   4.329
 4228SOL     OW14457   3.283  10.077  13.356
 4228SOL    HW114458   3.266  10.168  13.381
 4228SOL    HW214459   3.302  10.032  13.438
 4229SOL     OW14460   4.410   0.130  10.882
 4229SOL    HW114461   4.464   0.123  10.961
 4229SOL    HW214462   4.409   0.041  10.846
 4230SOL     OW14463   6.184  12.856   9.247
 4230SOL    HW114464   6.098  12.816   9.235
 4230SOL    HW214465   6.243  12.782   9.261
 4231SOL     OW14466   6.884  10.668   9.990
 4231SOL    HW114467   6.824  10.674  10.064
 4231SOL    HW214468   6.898  10.574   9.978
 4232SOL     OW14469  12.801   0.748   5.675
 4232SOL    HW114470  12.759   0.667   5.706
 4232SOL    HW214471  12.737   0.816   5.696
 4233SOL     OW14472  14.726   8.065  11.037
 4233SOL    HW114473  14.697   7.982  11.000
 4233SOL    HW214474  14.797   8.042  11.097
 4234SOL     OW14475   6.068   9.721  12.823
 4234SOL    HW114476   6.113   9.804  12.803
 4234SOL    HW214477   5.990   9.723  12.768
 4235SOL     OW14478   2.833   5.098   4.052
 4235SOL    HW114479   2.835   5.122   4.144
 4235SOL    HW214480   2.740   5.098   4.028
 4236SOL     OW14481  13.862   2.970   1.174
 4236SOL    HW114482  13.887   2.966   1.266
 4236SOL    HW214483  13.769   2.947   1.173
 4237SOL     OW14484   5.880   4.987  10.101
 4237SOL    HW114485   5.922   5.052  10.044
 4237SOL    HW214486   5.787   4.997  10.084
 4238SOL     OW14487   0.120   7.224   1.378
 4238SOL    HW114488   0.039   7.176   1.362
 4238SOL    HW214489   0.162   7.178   1.450
 4239SOL     OW14490   5.606   2.375  10.073
 4239SOL    HW114491   5.535   2.321  10.108
 4239SOL    HW214492   5.577   2.465  10.088
 4240SOL     OW14493   4.984  13.765   9.945
 4240SOL    HW114494   5.048  13.778   9.874
 4240SOL    HW214495   4.923  13.838   9.936
 4241SOL     OW14496  10.663  13.039   7.958
 4241SOL    HW114497  10.602  13.109   7.934
 4241SOL    HW214498  10.620  12.959   7.926
 4242SOL     OW14499  10.790  13.247   5.149
 4242SOL    HW114500  10.808  13.324   5.095
 4242SOL    HW214501  10.738  13.281   5.222
 4243SOL     OW14502   8.543  12.704  13.135
 4243SOL    HW114503   8.572  12.773  13.074
 4243SOL    HW214504   8.609  12.705  13.205
 4244SOL     OW14505  14.773   5.290   4.743
 4244SOL    HW114506  14.766   5.289   4.839
 4244SOL    HW214507  14.694   5.246   4.713
 4245SOL     OW14508   0.079   3.213   5.059
 4245SOL    HW114509   0.127   3.202   4.977
 4245SOL    HW214510   0.112   3.143   5.115
 4246SOL     OW14511   4.474  12.052   7.139
 4246SOL    HW114512   4.382  12.070   7.159
 4246SOL    HW214513   4.520  12.132   7.165
 4247SOL     OW14514   8.182  11.542   5.449
 4247SOL    HW114515   8.126  11.532   5.372
 4247SOL    HW214516   8.130  11.508   5.521
 4248SOL     OW14517   7.221   5.093  14.104
 4248SOL    HW114518   7.233   5.030  14.176
 4248SOL    HW214519   7.191   5.173  14.147
 4249SOL     OW14520   5.137  10.171   7.377
 4249SOL    HW114521   5.132  10.128   7.463
 4249SOL    HW214522   5.223  10.145   7.343
 4250SOL     OW14523   3.997   5.678   9.936
 4250SOL    HW114524   3.996   5.764   9.979
 4250SOL    HW214525   4.089   5.661   9.917
 4251SOL     OW14526   6.388   7.121   8.741
 4251SOL    HW114527   6.446   7.087   8.808
 4251SOL    HW214528   6.391   7.216   8.751
 4252SOL     OW14529   6.480   5.606   1.022
 4252SOL    HW114530   6.526   5.625   1.103
 4252SOL    HW214531   6.507   5.675   0.962
 4253SOL     OW14532  11.460   8.087   6.610
 4253SOL    HW114533  11.551   8.059   6.601
 4253SOL    HW214534  11.438   8.126   6.525
 4254SOL     OW14535   4.551  13.332  14.212
 4254SOL    HW114536   4.516  13.407  14.164
 4254SOL    HW214537   4.589  13.275  14.145
 4255SOL     OW14538   1.706   2.987   2.319
 4255SOL    HW114539   1.679   3.061   2.264
 4255SOL    HW214540   1.688   3.016   2.408
 4256SOL     OW14541  12.471   2.218  13.899
 4256SOL    HW114542  12.541   2.172  13.947
 4256SOL    HW214543  12.508   2.233  13.812
 4257SOL     OW14544   4.824   6.631   7.714
 4257SOL    HW114545   4.851   6.683   7.638
 4257SOL    HW214546   4.761   6.568   7.678
 4258SOL     OW14547   2.348   8.101   9.508
 4258SOL    HW114548   2.409   8.150   9.563
 4258SOL    HW214549   2.383   8.109   9.419
 4259SOL     OW14550   1.840   3.855  13.014
 4259SOL    HW114551   1.929   3.880  12.991
 4259SOL    HW214552   1.841   3.760  13.013
 4260SOL     OW14553  13.744   5.582   6.209
 4260SOL    HW114554  13.832   5.546   6.214
 4260SOL    HW214555  13.688   5.511   6.242
 4261SOL     OW14556   6.939  11.433   1.923
 4261SOL    HW114557   6.865  11.459   1.868
 4261SOL    HW214558   6.948  11.339   1.908
 4262SOL     OW14559   7.021   1.368   2.448
 4262SOL    HW114560   7.082   1.414   2.507
 4262SOL    HW214561   7.070   1.357   2.367
 4263SOL     OW14562   5.099   8.288   5.308
 4263SOL    HW114563   5.078   8.335   5.227
 4263SOL    HW214564   5.147   8.211   5.280
 4264SOL     OW14565  12.533   0.469   7.636
 4264SOL    HW114566  12.546   0.414   7.559
 4264SOL    HW214567  12.585   0.547   7.619
 4265SOL     OW14568  10.013   2.623   5.625
 4265SOL    HW114569   9.974   2.667   5.700
 4265SOL    HW214570  10.090   2.578   5.661
 4266SOL     OW14571   3.960  13.271   6.030
 4266SOL    HW114572   4.037  13.313   6.069
 4266SOL    HW214573   3.971  13.282   5.936
 4267SOL     OW14574   8.274  11.886  12.114
 4267SOL    HW114575   8.361  11.862  12.083
 4267SOL    HW214576   8.220  11.888  12.036
 4268SOL     OW14577   6.888   7.151   9.597
 4268SOL    HW114578   6.913   7.183   9.510
 4268SOL    HW214579   6.888   7.056   9.588
 4269SOL     OW14580   8.126   2.081  13.179
 4269SOL    HW114581   8.043   2.129  13.173
 4269SOL    HW214582   8.155   2.072  13.088
 4270SOL     OW14583   3.269  13.590   8.521
 4270SOL    HW114584   3.190  13.547   8.489
 4270SOL    HW214585   3.330  13.519   8.538
 4271SOL     OW14586   9.984   8.957  13.392
 4271SOL    HW114587  10.076   8.948  13.368
 4271SOL    HW214588   9.985   9.014  13.469
 4272SOL     OW14589  12.790   7.436  14.541
 4272SOL    HW114590  12.721   7.401  14.485
 4272SOL    HW214591  12.859   7.370  14.538
 4273SOL     OW14592   5.099   7.200   9.500
 4273SOL    HW114593   5.020   7.239   9.538
 4273SOL    HW214594   5.121   7.257   9.426
 4274SOL     OW14595   0.809   3.457   8.152
 4274SOL    HW114596   0.715   3.436   8.151
 4274SOL    HW214597   0.852   3.372   8.146
 4275SOL     OW14598   0.199  10.809   8.975
 4275SOL    HW114599   0.242  10.815   8.890
 4275SOL    HW214600   0.112  10.774   8.956
 4276SOL     OW14601   0.523   5.913   2.291
 4276SOL    HW114602   0.544   5.820   2.294
 4276SOL    HW214603   0.430   5.918   2.313
 4277SOL     OW14604  13.530  10.336   4.244
 4277SOL    HW114605  13.601  10.369   4.188
 4277SOL    HW214606  13.472  10.290   4.183
 4278SOL     OW14607  11.199   6.391   9.910
 4278SOL    HW114608  11.253   6.424   9.838
 4278SOL    HW214609  11.159   6.312   9.875
 4279SOL     OW14610  12.238   1.775   5.444
 4279SOL    HW114611  12.282   1.856   5.470
 4279SOL    HW214612  12.164   1.768   5.504
 4280SOL     OW14613  12.639   9.801   6.275
 4280SOL    HW114614  12.711   9.746   6.307
 4280SOL    HW214615  12.653   9.806   6.181
 4281SOL     OW14616  10.580  10.968  10.142
 4281SOL    HW114617  10.559  10.889  10.092
 4281SOL    HW214618  10.510  11.029  10.119
 4282SOL     OW14619  10.228   4.204   4.512
 4282SOL    HW114620  10.224   4.263   4.436
 4282SOL    HW214621  10.283   4.251   4.575
 4283SOL     OW14622   9.675  13.094  12.577
 4283SOL    HW114623   9.603  13.033  12.591
 4283SOL    HW214624   9.753  13.048  12.610
 4284SOL     OW14625   0.307  11.336   6.063
 4284SOL    HW114626   0.384  11.317   6.116
 4284SOL    HW214627   0.284  11.426   6.087
 4285SOL     OW14628  11.165  12.798   1.289
 4285SOL    HW114629  11.215  12.785   1.369
 4285SOL    HW214630  11.108  12.872   1.308
 4286SOL     OW14631   0.278  13.557  13.170
 4286SOL    HW114632   0.247  13.637  13.128
 4286SOL    HW214633   0.300  13.583  13.259
 4287SOL     OW14634  10.723  10.649  14.019
 4287SOL    HW114635  10.629  10.671  14.019
 4287SOL    HW214636  10.764  10.724  13.976
 4288SOL     OW14637   2.588   5.306  12.752
 4288SOL    HW114638   2.653   5.357  12.801
 4288SOL    HW214639   2.535   5.372  12.708
 4289SOL     OW14640  13.153   7.204   2.008
 4289SOL    HW114641  13.211   7.248   2.070
 4289SOL    HW214642  13.092   7.273   1.980
 4290SOL     OW14643   5.205  13.676   8.306
 4290SOL    HW114644   5.237  13.737   8.373
 4290SOL    HW214645   5.158  13.731   8.243
 4291SOL     OW14646   8.504   2.672   7.494
 4291SOL    HW114647   8.558   2.680   7.573
 4291SOL    HW214648   8.420   2.712   7.518
 4292SOL     OW14649  10.953   4.656  11.018
 4292SOL    HW114650  10.981   4.741  10.984
 4292SOL    HW214651  10.973   4.594  10.948
 4293SOL     OW14652   2.857   5.407   8.623
 4293SOL    HW114653   2.861   5.489   8.574
 4293SOL    HW214654   2.815   5.430   8.705
 4294SOL     OW14655   4.278   7.185   6.504
 4294SOL    HW114656   4.257   7.134   6.426
 4294SOL    HW214657   4.359   7.232   6.481
 4295SOL     OW14658   9.544   4.725   5.484
 4295SOL    HW114659   9.479   4.726   5.554
 4295SOL    HW214660   9.505   4.775   5.413
 4296SOL     OW14661   9.303   7.981   0.687
 4296SOL    HW114662   9.252   7.902   0.666
 4296SOL    HW214663   9.238   8.044   0.719
 4297SOL     OW14664  13.388  13.457   3.748
 4297SOL    HW114665  13.301  13.496   3.742
 4297SOL    HW214666  13.383  13.378   3.695
 4298SOL     OW14667  10.273   2.718   9.781
 4298SOL    HW114668  10.221   2.676   9.713
 4298SOL    HW214669  10.286   2.650   9.847
 4299SOL     OW14670  13.524   4.000  12.521
 4299SOL    HW114671  13.565   3.935  12.578
 4299SOL    HW214672  13.433   3.972  12.515
 4300SOL     OW14673   1.852   2.516  14.098
 4300SOL    HW114674   1.807   2.434  14.078
 4300SOL    HW214675   1.888   2.544  14.014
 4301SOL     OW14676   6.054   0.347   0.351
 4301SOL    HW114677   6.137   0.299   0.356
 4301SOL    HW214678   5.987   0.279   0.363
 4302SOL     OW14679   3.756   0.302  14.780
 4302SOL    HW114680   3.801   0.218  14.791
 4302SOL    HW214681   3.770   0.348  14.863
 4303SOL     OW14682  13.778  11.343   3.962
 4303SOL    HW114683  13.866  11.352   3.925
 4303SOL    HW214684  13.736  11.276   3.909
 4304SOL     OW14685   0.100  11.485   6.964
 4304SOL    HW114686   0.125  11.413   7.022
 4304SOL    HW214687   0.004  11.480   6.960
 4305SOL     OW14688  12.252   8.089   0.976
 4305SOL    HW114689  12.215   8.059   0.893
 4305SOL    HW214690  12.262   8.184   0.965
 4306SOL     OW14691   1.737   5.091   3.990
 4306SOL    HW114692   1.738   4.996   3.986
 4306SOL    HW214693   1.777   5.112   4.075
 4307SOL     OW14694   1.883   7.634   6.764
 4307SOL    HW114695   1.787   7.629   6.756
 4307SOL    HW214696   1.901   7.727   6.772
 4308SOL     OW14697   9.109   1.981   5.978
 4308SOL    HW114698   9.117   1.952   6.069
 4308SOL    HW214699   9.052   1.916   5.937
 4309SOL     OW14700   7.742   0.729   9.307
 4309SOL    HW114701   7.688   0.791   9.258
 4309SOL    HW214702   7.713   0.643   9.278
 4310SOL     OW14703   4.165  13.792   5.998
 4310SOL    HW114704   4.094  13.736   5.966
 4310SOL    HW214705   4.122  13.872   6.028
 4311SOL     OW14706  11.927   7.568   7.554
 4311SOL    HW114707  11.839   7.572   7.516
 4311SOL    HW214708  11.980   7.523   7.487
 4312SOL     OW14709   3.190   4.886   7.383
 4312SOL    HW114710   3.136   4.878   7.462
 4312SOL    HW214711   3.261   4.944   7.409
 4313SOL     OW14712  13.988  10.515   4.333
 4313SOL    HW114713  14.000  10.555   4.420
 4313SOL    HW214714  13.941  10.434   4.351
 4314SOL     OW14715   2.975   5.454   1.879
 4314SOL    HW114716   3.059   5.478   1.839
 4314SOL    HW214717   2.976   5.498   1.964
 4315SOL     OW14718   9.978   1.240  14.321
 4315SOL    HW114719  10.019   1.154  14.329
 4315SOL    HW214720   9.891   1.229  14.359
 4316SOL     OW14721   1.524   1.496   3.084
 4316SOL    HW114722   1.520   1.531   2.995
 4316SOL    HW214723   1.534   1.573   3.140
 4317SOL     OW14724   7.206   5.774   2.212
 4317SOL    HW114725   7.254   5.838   2.264
 4317SOL    HW214726   7.214   5.692   2.262
 4318SOL     OW14727   4.887   5.660   6.573
 4318SOL    HW114728   4.869   5.712   6.495
 4318SOL    HW214729   4.951   5.711   6.622
 4319SOL     OW14730  11.719   9.045   0.973
 4319SOL    HW114731  11.636   9.030   0.928
 4319SOL    HW214732  11.698   9.112   1.039
 4320SOL     OW14733  11.243   8.786   8.481
 4320SOL    HW114734  11.185   8.711   8.498
 4320SOL    HW214735  11.252   8.829   8.565
 4321SOL     OW14736  11.187  11.351  10.048
 4321SOL    HW114737  11.171  11.257  10.048
 4321SOL    HW214738  11.103  11.390  10.024
 4322SOL     OW14739   0.536   8.556   5.734
 4322SOL    HW114740   0.599   8.590   5.798
 4322SOL    HW214741   0.585   8.490   5.685
 4323SOL     OW14742   5.327   4.179   7.032
 4323SOL    HW114743   5.243   4.133   7.033
 4323SOL    HW214744   5.331   4.224   7.116
 4324SOL     OW14745   9.364   5.130   5.514
 4324SOL    HW114746   9.386   5.063   5.450
 4324SOL    HW214747   9.423   5.203   5.494
 4325SOL     OW14748   0.554   6.533   1.146
 4325SOL    HW114749   0.582   6.518   1.236
 4325SOL    HW214750   0.595   6.615   1.121
 4326SOL     OW14751   1.020   2.113  12.707
 4326SOL    HW114752   0.953   2.077  12.649
 4326SOL    HW214753   1.024   2.051  12.780
 4327SOL     OW14754   8.367   9.216  14.680
 4327SOL    HW114755   8.365   9.124  14.652
 4327SOL    HW214756   8.394   9.264  14.603
 4328SOL     OW14757   0.926   4.026  13.148
 4328SOL    HW114758   0.842   4.018  13.102
 4328SOL    HW214759   0.911   4.093  13.214
 4329SOL     OW14760   9.331  12.384   5.814
 4329SOL    HW114761   9.310  12.471   5.781
 4329SOL    HW214762   9.321  12.327   5.739
 4330SOL     OW14763  10.632   7.093   2.181
 4330SOL    HW114764  10.572   7.028   2.143
 4330SOL    HW214765  10.582   7.175   2.178
 4331SOL     OW14766  14.712   3.321   9.827
 4331SOL    HW114767  14.640   3.355   9.880
 4331SOL    HW214768  14.714   3.378   9.750
 4332SOL     OW14769   4.705  12.863   7.596
 4332SOL    HW114770   4.736  12.776   7.623
 4332SOL    HW214771   4.610  12.857   7.601
 4333SOL     OW14772   4.381   5.601  13.700
 4333SOL    HW114773   4.365   5.639  13.786
 4333SOL    HW214774   4.296   5.604  13.656
 4334SOL     OW14775   3.922   7.648   5.204
 4334SOL    HW114776   3.883   7.603   5.278
 4334SOL    HW214777   3.853   7.652   5.138
 4335SOL     OW14778   3.944   1.932  11.883
 4335SOL    HW114779   3.987   1.996  11.826
 4335SOL    HW214780   4.006   1.918  11.954
 4336SOL     OW14781  11.816   8.183   7.818
 4336SOL    HW114782  11.854   8.136   7.892
 4336SOL    HW214783  11.759   8.248   7.857
 4337SOL     OW14784   3.647  14.354  13.553
 4337SOL    HW114785   3.578  14.418  13.536
 4337SOL    HW214786   3.603  14.283  13.600
 4338SOL     OW14787   3.454  10.138  12.620
 4338SOL    HW114788   3.479  10.115  12.710
 4338SOL    HW214789   3.359  10.146  12.623
 4339SOL     OW14790   0.140   9.436   0.458
 4339SOL    HW114791   0.138   9.531   0.460
 4339SOL    HW214792   0.227   9.415   0.422
 4340SOL     OW14793   8.097  11.774  10.842
 4340SOL    HW114794   8.184  11.807  10.821
 4340SOL    HW214795   8.066  11.733  10.761
 4341SOL     OW14796   7.932   4.038   3.168
 4341SOL    HW114797   7.942   3.961   3.112
 4341SOL    HW214798   7.973   4.109   3.119
 4342SOL     OW14799   5.202   5.459   7.834
 4342SOL    HW114800   5.110   5.479   7.848
 4342SOL    HW214801   5.209   5.439   7.741
 4343SOL     OW14802  11.949  13.230   6.660
 4343SOL    HW114803  11.927  13.298   6.596
 4343SOL    HW214804  12.010  13.272   6.720
 4344SOL     OW14805   6.851   1.018   6.207
 4344SOL    HW114806   6.789   1.069   6.260
 4344SOL    HW214807   6.817   0.929   6.210
 4345SOL     OW14808  12.029   9.384  13.982
 4345SOL    HW114809  12.000   9.337  13.903
 4345SOL    HW214810  11.951   9.387  14.037
 4346SOL     OW14811   0.189  14.563   6.078
 4346SOL    HW114812   0.118  14.581   6.016
 4346SOL    HW214813   0.253  14.633   6.063
 4347SOL     OW14814   9.353   0.325  14.544
 4347SOL    HW114815   9.391   0.348  14.629
 4347SOL    HW214816   9.428   0.323  14.484
 4348SOL     OW14817  12.924  12.890   6.423
 4348SOL    HW114818  12.871  12.811   6.430
 4348SOL    HW214819  13.002  12.871   6.476
 4349SOL     OW14820   6.362  13.067  12.724
 4349SOL    HW114821   6.431  13.094  12.664
 4349SOL    HW214822   6.346  13.143  12.780
 4350SOL     OW14823   5.387   3.782   0.429
 4350SOL    HW114824   5.373   3.689   0.416
 4350SOL    HW214825   5.467   3.787   0.482
 4351SOL     OW14826  10.063   3.997   4.558
 4351SOL    HW114827  10.137   4.053   4.535
 4351SOL    HW214828   9.991   4.057   4.574
 4352SOL     OW14829   3.710   7.507   3.534
 4352SOL    HW114830   3.659   7.543   3.462
 4352SOL    HW214831   3.670   7.544   3.613
 4353SOL     OW14832   2.153  13.788  14.756
 4353SOL    HW114833   2.097  13.825  14.688
 4353SOL    HW214834   2.097  13.785  14.833
 4354SOL     OW14835   3.529   1.857  12.459
 4354SOL    HW114836   3.579   1.795  12.405
 4354SOL    HW214837   3.588   1.931  12.471
 4355SOL     OW14838  10.532  12.626   7.221
 4355SOL    HW114839  10.505  12.545   7.264
 4355SOL    HW214840  10.607  12.656   7.272
 4356SOL     OW14841   8.109   6.592   3.747
 4356SOL    HW114842   8.167   6.667   3.735
 4356SOL    HW214843   8.131   6.533   3.675
 4357SOL     OW14844   4.220  11.108   4.284
 4357SOL    HW114845   4.283  11.121   4.214
 4357SOL    HW214846   4.271  11.119   4.364
 4358SOL     OW14847   1.115  13.477  10.306
 4358SOL    HW114848   1.150  13.452  10.391
 4358SOL    HW214849   1.170  13.550  10.277
 4359SOL     OW14850   1.482   6.181  10.891
 4359SOL    HW114851   1.512   6.182  10.801
 4359SOL    HW214852   1.562   6.184  10.943
 4360SOL     OW14853  11.913   4.561  11.155
 4360SOL    HW114854  11.852   4.489  11.140
 4360SOL    HW214855  11.858   4.631  11.192
 4361SOL     OW14856   5.438   4.691   4.063
 4361SOL    HW114857   5.484   4.770   4.091
 4361SOL    HW214858   5.387   4.665   4.141
 4362SOL     OW14859  11.872   7.928  13.128
 4362SOL    HW114860  11.942   7.866  13.110
 4362SOL    HW214861  11.904   7.982  13.200
 4363SOL     OW14862  13.618  14.063  13.795
 4363SOL    HW114863  13.564  13.994  13.757
 4363SOL    HW214864  13.561  14.105  13.860
 4364SOL     OW14865   2.156   8.809  11.472
 4364SOL    HW114866   2.212   8.887  11.467
 4364SOL    HW214867   2.103   8.824  11.550
 4365SOL     OW14868  12.814  12.352   1.919
 4365SOL    HW114869  12.782  12.413   1.853
 4365SOL    HW214870  12.782  12.266   1.890
 4366SOL     OW14871   0.755   3.901   9.039
 4366SOL    HW114872   0.846   3.890   9.009
 4366SOL    HW214873   0.742   3.996   9.039
 4367SOL     OW14874   7.104  12.462   4.971
 4367SOL    HW114875   7.146  12.385   5.009
 4367SOL    HW214876   7.149  12.537   5.011
 4368SOL     OW14877  13.786  10.035   1.841
 4368SOL    HW114878  13.880  10.018   1.842
 4368SOL    HW214879  13.747   9.954   1.807
 4369SOL     OW14880   9.414   4.518  14.283
 4369SOL    HW114881   9.417   4.605  14.322
 4369SOL    HW214882   9.479   4.522  14.212
 4370SOL     OW14883   6.406   6.680   1.530
 4370SOL    HW114884   6.498   6.674   1.557
 4370SOL    HW214885   6.406   6.653   1.438
 4371SOL     OW14886   7.242   9.133   2.093
 4371SOL    HW114887   7.146   9.136   2.092
 4371SOL    HW214888   7.267   9.154   2.003
 4372SOL     OW14889   3.053  13.531   0.728
 4372SOL    HW114890   3.086  13.619   0.747
 4372SOL    HW214891   3.130  13.475   0.733
 4373SOL     OW14892   7.318  10.439  12.629
 4373SOL    HW114893   7.294  10.504  12.563
 4373SOL    HW214894   7.241  10.434  12.686
 4374SOL     OW14895   8.758   9.982   6.872
 4374SOL    HW114896   8.693  10.023   6.929
 4374SOL    HW214897   8.820   9.941   6.932
 4375SOL     OW14898   2.073  13.081   1.309
 4375SOL    HW114899   2.123  13.079   1.390
 4375SOL    HW214900   2.135  13.055   1.241
 4376SOL     OW14901   6.925   7.333   8.243
 4376SOL    HW114902   6.832   7.309   8.241
 4376SOL    HW214903   6.932   7.412   8.189
 4377SOL     OW14904  14.613   1.662  14.588
 4377SOL    HW114905  14.621   1.709  14.505
 4377SOL    HW214906  14.615   1.731  14.655
 4378SOL     OW14907  11.654  12.999   0.337
 4378SOL    HW114908  11.562  12.985   0.362
 4378SOL    HW214909  11.661  13.094   0.327
 4379SOL     OW14910  12.791  12.300  12.035
 4379SOL    HW114911  12.826  12.252  12.110
 4379SOL    HW214912  12.787  12.235  11.965
 4380SOL     OW14913   4.725   0.992   0.249
 4380SOL    HW114914   4.721   0.998   0.345
 4380SOL    HW214915   4.643   0.948   0.225
 4381SOL     OW14916  13.257   0.208   8.667
 4381SOL    HW114917  13.201   0.269   8.715
 4381SOL    HW214918  13.232   0.220   8.575
 4382SOL     OW14919  14.029  13.426   4.546
 4382SOL    HW114920  14.064  13.441   4.634
 4382SOL    HW214921  14.104  13.437   4.488
 4383SOL     OW14922  11.681   7.911   5.785
 4383SOL    HW114923  11.734   7.967   5.728
 4383SOL    HW214924  11.734   7.832   5.797
 4384SOL     OW14925   4.056   1.675  13.066
 4384SOL    HW114926   4.043   1.659  12.973
 4384SOL    HW214927   4.126   1.740  13.070
 4385SOL     OW14928  13.892   9.283  10.217
 4385SOL    HW114929  13.859   9.298  10.305
 4385SOL    HW214930  13.822   9.233  10.173
 4386SOL     OW14931   1.473   7.462   9.331
 4386SOL    HW114932   1.405   7.402   9.300
 4386SOL    HW214933   1.444   7.549   9.303
 4387SOL     OW14934   2.952  10.829   0.785
 4387SOL    HW114935   2.959  10.787   0.699
 4387SOL    HW214936   2.887  10.898   0.773
 4388SOL     OW14937   1.933   2.669   8.437
 4388SOL    HW114938   1.962   2.666   8.346
 4388SOL    HW214939   1.839   2.686   8.431
 4389SOL     OW14940   5.922   3.842   7.907
 4389SOL    HW114941   5.990   3.845   7.975
 4389SOL    HW214942   5.900   3.933   7.890
 4390SOL     OW14943  10.301   3.760   1.058
 4390SOL    HW114944  10.379   3.703   1.058
 4390SOL    HW214945  10.228   3.700   1.045
 4391SOL     OW14946  10.971   0.329  10.872
 4391SOL    HW114947  10.998   0.419  10.891
 4391SOL    HW214948  10.877   0.335  10.855
 4392SOL     OW14949  12.450  13.170  10.504
 4392SOL    HW114950  12.518  13.231  10.477
 4392SOL    HW214951  12.489  13.083  10.491
 4393SOL     OW14952  12.325   6.788   6.634
 4393SOL    HW114953  12.294   6.879   6.640
 4393SOL    HW214954  12.269   6.740   6.695
 4394SOL     OW14955   5.840  13.751  12.494
 4394SOL    HW114956   5.889  13.676  12.460
 4394SOL    HW214957   5.897  13.789  12.561
 4395SOL     OW14958  14.387  14.131   6.079
 4395SOL    HW114959  14.481  14.129   6.095
 4395SOL    HW214960  14.372  14.214   6.033
 4396SOL     OW14961   8.331   6.098   8.119
 4396SOL    HW114962   8.395   6.101   8.190
 4396SOL    HW214963   8.259   6.046   8.154
 4397SOL     OW14964   8.340  14.606   0.212
 4397SOL    HW114965   8.246  14.622   0.203
 4397SOL    HW214966   8.381  14.691   0.195
 4398SOL     OW14967  10.352   4.575   8.505
 4398SOL    HW114968  10.387   4.537   8.585
 4398SOL    HW214969  10.290   4.641   8.534
 4399SOL     OW14970  12.637  12.859  12.238
 4399SOL    HW114971  12.725  12.821  12.238
 4399SOL    HW214972  12.623  12.885  12.329
 4400SOL     OW14973   3.562  14.720   6.244
 4400SOL    HW114974   3.531  14.739   6.332
 4400SOL    HW214975   3.558  14.625   6.236
 4401SOL     OW14976   6.473  12.781   3.752
 4401SOL    HW114977   6.402  12.846   3.760
 4401SOL    HW214978   6.535  12.822   3.692
 4402SOL     OW14979   4.160   9.512  14.649
 4402SOL    HW114980   4.240   9.563  14.656
 4402SOL    HW214981   4.121   9.539  14.566
 4403SOL     OW14982   3.582  11.218  10.900
 4403SOL    HW114983   3.493  11.186  10.914
 4403SOL    HW214984   3.630  11.142  10.867
 4404SOL     OW14985   9.260  14.621   1.287
 4404SOL    HW114986   9.214  14.668   1.356
 4404SOL    HW214987   9.192  14.572   1.241
 4405SOL     OW14988   3.657   3.147   8.578
 4405SOL    HW114989   3.696   3.137   8.665
 4405SOL    HW214990   3.657   3.242   8.563
 4406SOL     OW14991  14.095  13.809   7.850
 4406SOL    HW114992  14.172  13.855   7.884
 4406SOL    HW214993  14.021  13.866   7.873
 4407SOL     OW14994   3.379   9.864   7.456
 4407SOL    HW114995   3.452   9.826   7.409
 4407SOL    HW214996   3.306   9.859   7.394
 4408SOL     OW14997   0.078  14.005   0.993
 4408SOL    HW114998  14.866  13.976   0.980
 4408SOL    HW214999   0.094  13.994   1.086
 4409SOL     OW15000   1.303  13.502   5.604
 4409SOL    HW115001   1.275  13.446   5.677
 4409SOL    HW215002   1.368  13.561   5.643
 4410SOL     OW15003   8.181   3.420   1.434
 4410SOL    HW115004   8.145   3.506   1.454
 4410SOL    HW215005   8.221   3.390   1.515
 4411SOL     OW15006  10.686  12.005  13.885
 4411SOL    HW115007  10.721  11.915  13.884
 4411SOL    HW215008  10.704  12.036  13.973
 4412SOL     OW15009   2.855  10.879  11.347
 4412SOL    HW115010   2.880  10.828  11.270
 4412SOL    HW215011   2.833  10.966  11.314
 4413SOL     OW15012   1.141   6.342  10.516
 4413SOL    HW115013   1.096   6.296  10.587
 4413SOL    HW215014   1.093   6.317  10.437
 4414SOL     OW15015  14.380   5.325   3.334
 4414SOL    HW115016  14.429   5.256   3.288
 4414SOL    HW215017  14.300   5.281   3.363
 4415SOL     OW15018   9.351  10.620   2.986
 4415SOL    HW115019   9.272  10.617   2.931
 4415SOL    HW215020   9.319  10.606   3.075
 4416SOL     OW15021  12.009  14.829  11.605
 4416SOL    HW115022  11.959  14.750  11.628
 4416SOL    HW215023  11.982   0.016  11.670
 4417SOL     OW15024  14.404   8.049   8.756
 4417SOL    HW115025  14.380   8.140   8.775
 4417SOL    HW215026  14.342   8.023   8.688
 4418SOL     OW15027   6.154   9.359   2.035
 4418SOL    HW115028   6.143   9.404   1.952
 4418SOL    HW215029   6.249   9.348   2.044
 4419SOL     OW15030   8.208  13.718   0.538
 4419SOL    HW115031   8.167  13.792   0.493
 4419SOL    HW215032   8.134  13.665   0.569
 4420SOL     OW15033   9.140   5.428   3.007
 4420SOL    HW115034   9.135   5.522   2.987
 4420SOL    HW215035   9.116   5.385   2.925
 4421SOL     OW15036  11.937   4.504  11.425
 4421SOL    HW115037  11.991   4.579  11.448
 4421SOL    HW215038  11.927   4.510  11.330
 4422SOL     OW15039   0.438   5.793   9.775
 4422SOL    HW115040   0.437   5.712   9.725
 4422SOL    HW215041   0.531   5.814   9.785
 4423SOL     OW15042   8.785   5.522   7.098
 4423SOL    HW115043   8.766   5.566   7.181
 4423SOL    HW215044   8.862   5.569   7.064
 4424SOL     OW15045   9.719   5.711  14.553
 4424SOL    HW115046   9.649   5.775  14.540
 4424SOL    HW215047   9.674   5.630  14.576
 4425SOL     OW15048   9.783  10.237   0.250
 4425SOL    HW115049   9.710  10.291   0.217
 4425SOL    HW215050   9.836  10.298   0.302
 4426SOL     OW15051   5.111   6.682   6.914
 4426SOL    HW115052   5.079   6.612   6.857
 4426SOL    HW215053   5.101   6.647   7.002
 4427SOL     OW15054   0.117  14.769   8.683
 4427SOL    HW115055   0.114  14.839   8.618
 4427SOL    HW215056   0.128  14.689   8.632
 4428SOL     OW15057   1.317  11.280   3.656
 4428SOL    HW115058   1.287  11.286   3.747
 4428SOL    HW215059   1.273  11.202   3.622
 4429SOL     OW15060   3.005  13.553  14.477
 4429SOL    HW115061   2.915  13.529  14.453
 4429SOL    HW215062   2.999  13.644  14.505
 4430SOL     OW15063   4.783  11.269   8.616
 4430SOL    HW115064   4.716  11.217   8.660
 4430SOL    HW215065   4.742  11.354   8.601
 4431SOL     OW15066  10.161   8.070   7.952
 4431SOL    HW115067  10.097   8.107   7.891
 4431SOL    HW215068  10.131   8.097   8.038
 4432SOL     OW15069   6.014   9.895  13.961
 4432SOL    HW115070   6.034   9.807  13.993
 4432SOL    HW215071   6.035   9.952  14.035
 4433SOL     OW15072   8.784   8.970   8.318
 4433SOL    HW115073   8.769   8.945   8.409
 4433SOL    HW215074   8.858   9.030   8.322
 4434SOL     OW15075   2.191   3.118  11.653
 4434SOL    HW115076   2.281   3.150  11.650
 4434SOL    HW215077   2.185   3.055  11.581
 4435SOL     OW15078  14.218   5.319  14.396
 4435SOL    HW115079  14.222   5.249  14.462
 4435SOL    HW215080  14.220   5.400  14.448
 4436SOL     OW15081   1.682   5.558   5.871
 4436SOL    HW115082   1.741   5.490   5.903
 4436SOL    HW215083   1.736   5.636   5.866
 4437SOL     OW15084   0.251   0.507   9.883
 4437SOL    HW115085   0.288   0.422   9.858
 4437SOL    HW215086   0.225   0.496   9.974
 4438SOL     OW15087   1.027   9.441   1.144
 4438SOL    HW115088   1.062   9.529   1.128
 4438SOL    HW215089   0.939   9.444   1.106
 4439SOL     OW15090   8.549   4.174   5.557
 4439SOL    HW115091   8.525   4.217   5.639
 4439SOL    HW215092   8.641   4.197   5.544
 4440SOL     OW15093   8.023   1.333   0.280
 4440SOL    HW115094   8.020   1.419   0.237
 4440SOL    HW215095   8.073   1.278   0.219
 4441SOL     OW15096   4.060  10.518   7.569
 4441SOL    HW115097   4.035  10.549   7.656
 4441SOL    HW215098   4.018  10.580   7.509
 4442SOL     OW15099   6.124   5.022   7.533
 4442SOL    HW115100   6.117   4.941   7.483
 4442SOL    HW215101   6.103   4.996   7.623
 4443SOL     OW15102   9.065   5.564   0.952
 4443SOL    HW115103   9.157   5.589   0.951
 4443SOL    HW215104   9.046   5.545   1.044
 4444SOL     OW15105   7.704  13.078   9.927
 4444SOL    HW115106   7.800  13.069   9.934
 4444SOL    HW215107   7.679  13.124  10.007
 4445SOL     OW15108   2.941  11.030  14.062
 4445SOL    HW115109   3.015  10.982  14.099
 4445SOL    HW215110   2.891  11.060  14.138
 4446SOL     OW15111  10.167  14.486   7.432
 4446SOL    HW115112  10.145  14.447   7.517
 4446SOL    HW215113  10.165  14.413   7.370
 4447SOL     OW15114   7.790   5.666   2.807
 4447SOL    HW115115   7.798   5.701   2.896
 4447SOL    HW215116   7.825   5.577   2.812
 4448SOL     OW15117   2.756   6.601   1.069
 4448SOL    HW115118   2.840   6.592   1.114
 4448SOL    HW215119   2.697   6.541   1.116
 4449SOL     OW15120   3.128  14.862  10.756
 4449SOL    HW115121   3.170  14.825  10.834
 4449SOL    HW215122   3.035  14.863  10.776
 4450SOL     OW15123  13.726  10.130   4.549
 4450SOL    HW115124  13.818  10.110   4.529
 4450SOL    HW215125  13.728  10.219   4.584
 4451SOL     OW15126   6.953   4.032   8.249
 4451SOL    HW115127   6.978   3.969   8.182
 4451SOL    HW215128   6.881   4.081   8.210
 4452SOL     OW15129   6.306  12.434  12.293
 4452SOL    HW115130   6.384  12.474  12.331
 4452SOL    HW215131   6.236  12.456  12.355
 4453SOL     OW15132   9.926   9.066   5.781
 4453SOL    HW115133   9.862   8.999   5.806
 4453SOL    HW215134   9.931   9.060   5.686
 4454SOL     OW15135   5.652   3.344   1.036
 4454SOL    HW115136   5.691   3.430   1.019
 4454SOL    HW215137   5.618   3.315   0.951
 4455SOL     OW15138   7.911   4.294   0.500
 4455SOL    HW115139   7.817   4.289   0.516
 4455SOL    HW215140   7.919   4.351   0.423
 4456SOL     OW15141   7.238   0.152   5.303
 4456SOL    HW115142   7.310   0.109   5.257
 4456SOL    HW215143   7.281   0.198   5.376
 4457SOL     OW15144   5.336   9.657  10.047
 4457SOL    HW115145   5.413   9.678  10.100
 4457SOL    HW215146   5.326   9.562  10.054
 4458SOL     OW15147  12.264   2.026  10.086
 4458SOL    HW115148  12.284   1.936  10.113
 4458SOL    HW215149  12.170   2.035  10.101
 4459SOL     OW15150   6.689  11.842   4.528
 4459SOL    HW115151   6.607  11.820   4.573
 4459SOL    HW215152   6.736  11.896   4.591
 4460SOL     OW15153  14.394  12.400   3.350
 4460SOL    HW115154  14.414  12.469   3.287
 4460SOL    HW215155  14.428  12.320   3.310
 4461SOL     OW15156   2.611  13.204  14.447
 4461SOL    HW115157   2.544  13.187  14.513
 4461SOL    HW215158   2.684  13.146  14.471
 4462SOL     OW15159   0.536   9.951  11.615
 4462SOL    HW115160   0.507  10.014  11.681
 4462SOL    HW215161   0.488   9.871  11.636
 4463SOL     OW15162   2.331  13.554  11.810
 4463SOL    HW115163   2.391  13.606  11.864
 4463SOL    HW215164   2.340  13.592  11.722
 4464SOL     OW15165   6.081  14.574  12.404
 4464SOL    HW115166   6.041  14.613  12.326
 4464SOL    HW215167   6.167  14.615  12.409
 4465SOL     OW15168   7.629   5.157   3.640
 4465SOL    HW115169   7.694   5.225   3.621
 4465SOL    HW215170   7.643   5.136   3.733
 4466SOL     OW15171   9.490  11.315   7.109
 4466SOL    HW115172   9.398  11.334   7.088
 4466SOL    HW215173   9.496  11.220   7.108
 4467SOL     OW15174   0.882  13.056   2.862
 4467SOL    HW115175   0.924  12.983   2.815
 4467SOL    HW215176   0.951  13.091   2.918
 4468SOL     OW15177  10.419  13.950  12.010
 4468SOL    HW115178  10.333  13.992  12.011
 4468SOL    HW215179  10.411  13.880  11.946
 4469SOL     OW15180   2.844   2.206   5.249
 4469SOL    HW115181   2.777   2.269   5.222
 4469SOL    HW215182   2.818   2.123   5.209
 4470SOL     OW15183  12.963   3.547   4.520
 4470SOL    HW115184  13.040   3.561   4.575
 4470SOL    HW215185  12.937   3.457   4.538
 4471SOL     OW15186   8.073   5.330   4.352
 4471SOL    HW115187   8.132   5.360   4.282
 4471SOL    HW215188   8.047   5.242   4.324
 4472SOL     OW15189  13.122  10.868   7.753
 4472SOL    HW115190  13.096  10.959   7.741
 4472SOL    HW215191  13.075  10.838   7.830
 4473SOL     OW15192  12.685   5.091   1.957
 4473SOL    HW115193  12.771   5.123   1.933
 4473SOL    HW215194  12.672   5.121   2.047
 4474SOL     OW15195   5.388   4.442   2.083
 4474SOL    HW115196   5.483   4.447   2.074
 4474SOL    HW215197   5.374   4.397   2.166
 4475SOL     OW15198   4.240   2.269  14.542
 4475SOL    HW115199   4.192   2.342  14.581
 4475SOL    HW215200   4.319   2.310  14.505
 4476SOL     OW15201   4.401   1.713   9.659
 4476SOL    HW115202   4.478   1.657   9.659
 4476SOL    HW215203   4.349   1.682   9.733
 4477SOL     OW15204   0.413   2.339   2.465
 4477SOL    HW115205   0.378   2.428   2.459
 4477SOL    HW215206   0.342   2.283   2.432
 4478SOL     OW15207   9.764   5.062  13.459
 4478SOL    HW115208   9.829   5.009  13.504
 4478SOL    HW215209   9.776   5.150  13.495
 4479SOL     OW15210   3.095  13.467   3.580
 4479SOL    HW115211   3.062  13.434   3.664
 4479SOL    HW215212   3.017  13.497   3.533
 4480SOL     OW15213  14.099   6.717  11.345
 4480SOL    HW115214  14.029   6.652  11.348
 4480SOL    HW215215  14.178   6.667  11.369
 4481SOL     OW15216  11.292   2.764   2.714
 4481SOL    HW115217  11.224   2.814   2.669
 4481SOL    HW215218  11.366   2.825   2.720
 4482SOL     OW15219   3.729  10.968  11.558
 4482SOL    HW115220   3.780  11.011  11.627
 4482SOL    HW215221   3.714  11.037  11.493
 4483SOL     OW15222   8.270   2.027   2.406
 4483SOL    HW115223   8.256   2.120   2.421
 4483SOL    HW215224   8.297   2.021   2.315
 4484SOL     OW15225   0.291   6.065   4.429
 4484SOL    HW115226   0.242   6.000   4.480
 4484SOL    HW215227   0.239   6.077   4.349
 4485SOL     OW15228   3.431  10.682   7.662
 4485SOL    HW115229   3.473  10.766   7.681
 4485SOL    HW215230   3.372  10.701   7.589
 4486SOL     OW15231   2.193   0.336  11.171
 4486SOL    HW115232   2.142   0.277  11.227
 4486SOL    HW215233   2.141   0.343  11.091
 4487SOL     OW15234   5.573   1.984   3.187
 4487SOL    HW115235   5.609   2.050   3.246
 4487SOL    HW215236   5.634   1.911   3.193
 4488SOL     OW15237  11.929  11.943   9.710
 4488SOL    HW115238  11.929  11.983   9.623
 4488SOL    HW215239  11.950  11.851   9.693
 4489SOL     OW15240  11.838   8.294  13.258
 4489SOL    HW115241  11.918   8.242  13.271
 4489SOL    HW215242  11.791   8.286  13.341
 4490SOL     OW15243  14.033  12.564   6.777
 4490SOL    HW115244  14.034  12.488   6.719
 4490SOL    HW215245  13.953  12.555   6.828
 4491SOL     OW15246  13.329   7.887  14.700
 4491SOL    HW115247  13.270   7.962  14.705
 4491SOL    HW215248  13.404   7.918  14.649
 4492SOL     OW15249  11.398   7.107  14.297
 4492SOL    HW115250  11.330   7.040  14.311
 4492SOL    HW215251  11.349   7.189  14.287
 4493SOL     OW15252   4.092  10.942  11.790
 4493SOL    HW115253   4.054  10.858  11.766
 4493SOL    HW215254   4.018  10.996  11.817
 4494SOL     OW15255   5.995   2.585   5.356
 4494SOL    HW115256   5.948   2.602   5.274
 4494SOL    HW215257   6.028   2.496   5.346
 4495SOL     OW15258   3.249   3.487   7.172
 4495SOL    HW115259   3.286   3.544   7.105
 4495SOL    HW215260   3.296   3.511   7.252
 4496SOL     OW15261   0.223  10.869   2.772
 4496SOL    HW115262   0.290  10.803   2.792
 4496SOL    HW215263   0.140  10.824   2.786
 4497SOL     OW15264  10.801  11.686   2.438
 4497SOL    HW115265  10.707  11.698   2.445
 4497SOL    HW215266  10.815  11.648   2.351
 4498SOL     OW15267   9.597  14.286  12.302
 4498SOL    HW115268   9.524  14.348  12.311
 4498SOL    HW215269   9.561  14.213  12.252
 4499SOL     OW15270   8.682   1.752   2.462
 4499SOL    HW115271   8.679   1.770   2.368
 4499SOL    HW215272   8.633   1.825   2.501
 4500SOL     OW15273   1.930  11.931   0.090
 4500SOL    HW115274   2.004  11.978   0.050
 4500SOL    HW215275   1.852  11.969   0.049
 4501SOL     OW15276   8.084  11.103  12.005
 4501SOL    HW115277   8.124  11.187  11.981
 4501SOL    HW215278   8.157  11.044  12.017
 4502SOL     OW15279  11.467   7.675  13.978
 4502SOL    HW115280  11.440   7.756  13.935
 4502SOL    HW215281  11.522   7.704  14.051
 4503SOL     OW15282  11.064   4.415   3.860
 4503SOL    HW115283  11.115   4.337   3.837
 4503SOL    HW215284  11.091   4.436   3.950
 4504SOL     OW15285  11.648   3.181  12.375
 4504SOL    HW115286  11.705   3.109  12.399
 4504SOL    HW215287  11.585   3.187  12.447
 4505SOL     OW15288   8.989   3.884  12.010
 4505SOL    HW115289   9.082   3.861  12.019
 4505SOL    HW215290   8.962   3.909  12.098
 4506SOL     OW15291   1.478  13.551  10.722
 4506SOL    HW115292   1.473  13.506  10.806
 4506SOL    HW215293   1.405  13.515  10.671
 4507SOL     OW15294  13.443   6.410   7.123
 4507SOL    HW115295  13.442   6.355   7.045
 4507SOL    HW215296  13.358   6.452   7.123
 4508SOL     OW15297  12.238   3.360  14.002
 4508SOL    HW115298  12.249   3.428  13.935
 4508SOL    HW215299  12.297   3.290  13.975
 4509SOL     OW15300  13.745   5.381   9.241
 4509SOL    HW115301  13.824   5.379   9.186
 4509SOL    HW215302  13.779   5.397   9.329
 4510SOL     OW15303   8.262   8.498  10.597
 4510SOL    HW115304   8.322   8.560  10.555
 4510SOL    HW215305   8.314   8.457  10.665
 4511SOL     OW15306   1.990   6.012   6.947
 4511SOL    HW115307   2.023   6.034   6.860
 4511SOL    HW215308   2.049   5.943   6.978
 4512SOL     OW15309   4.493  13.426  14.794
 4512SOL    HW115310   4.572  13.373  14.803
 4512SOL    HW215311   4.509  13.503  14.849
 4513SOL     OW15312  10.625  14.112  12.391
 4513SOL    HW115313  10.609  14.077  12.304
 4513SOL    HW215314  10.689  14.181  12.379
 4514SOL     OW15315  13.825  10.176   4.213
 4514SOL    HW115316  13.818  10.246   4.278
 4514SOL    HW215317  13.794  10.098   4.258
 4515SOL     OW15318   1.698   9.857   1.345
 4515SOL    HW115319   1.677   9.948   1.324
 4515SOL    HW215320   1.633   9.806   1.297
 4516SOL     OW15321   4.028  14.229   4.091
 4516SOL    HW115322   4.109  14.221   4.141
 4516SOL    HW215323   3.962  14.254   4.155
 4517SOL     OW15324   3.143   1.205   8.632
 4517SOL    HW115325   3.067   1.155   8.664
 4517SOL    HW215326   3.209   1.139   8.614
 4518SOL     OW15327  14.436   6.309   9.376
 4518SOL    HW115328  14.510   6.369   9.389
 4518SOL    HW215329  14.473   6.223   9.392
 4519SOL     OW15330   3.101   8.752   8.888
 4519SOL    HW115331   3.051   8.828   8.858
 4519SOL    HW215332   3.187   8.787   8.911
 4520SOL     OW15333   8.288   2.436   7.305
 4520SOL    HW115334   8.224   2.507   7.302
 4520SOL    HW215335   8.302   2.421   7.398
 4521SOL     OW15336  13.436  13.747  14.267
 4521SOL    HW115337  13.455  13.766  14.175
 4521SOL    HW215338  13.341  13.736  14.270
 4522SOL     OW15339   3.473  10.425   6.546
 4522SOL    HW115340   3.439  10.429   6.456
 4522SOL    HW215341   3.413  10.480   6.596
 4523SOL     OW15342   6.754   4.196  10.001
 4523SOL    HW115343   6.796   4.246  10.071
 4523SOL    HW215344   6.705   4.261   9.951
 4524SOL     OW15345   2.858  13.986   2.805
 4524SOL    HW115346   2.888  14.021   2.889
 4524SOL    HW215347   2.909  14.035   2.740
 4525SOL     OW15348  10.244  13.108   9.681
 4525SOL    HW115349  10.210  13.167   9.614
 4525SOL    HW215350  10.212  13.145   9.763
 4526SOL     OW15351  10.629  10.002  10.007
 4526SOL    HW115352  10.615   9.908  10.008
 4526SOL    HW215353  10.659  10.021   9.918
 4527SOL     OW15354  13.491  10.218   1.643
 4527SOL    HW115355  13.532  10.262   1.568
 4527SOL    HW215356  13.549  10.240   1.716
 4528SOL     OW15357  14.127   4.436   3.991
 4528SOL    HW115358  14.103   4.506   4.053
 4528SOL    HW215359  14.159   4.365   4.047
 4529SOL     OW15360   8.691   6.525   5.941
 4529SOL    HW115361   8.747   6.455   5.977
 4529SOL    HW215362   8.752   6.591   5.909
 4530SOL     OW15363   6.603  12.594  10.295
 4530SOL    HW115364   6.538  12.531  10.326
 4530SOL    HW215365   6.685  12.545  10.291
 4531SOL     OW15366   3.649  14.201   9.079
 4531SOL    HW115367   3.654  14.296   9.073
 4531SOL    HW215368   3.613  14.183   9.166
 4532SOL     OW15369   2.145   9.959   2.674
 4532SOL    HW115370   2.236   9.989   2.669
 4532SOL    HW215371   2.094  10.040   2.679
 4533SOL     OW15372   3.352   4.522   0.625
 4533SOL    HW115373   3.300   4.459   0.675
 4533SOL    HW215374   3.348   4.603   0.676
 4534SOL     OW15375  12.719  10.132  12.982
 4534SOL    HW115376  12.779  10.206  12.971
 4534SOL    HW215377  12.772  10.056  12.959
 4535SOL     OW15378  12.949  10.484  14.382
 4535SOL    HW115379  12.858  10.465  14.360
 4535SOL    HW215380  12.970  10.562  14.330
 4536SOL     OW15381  11.362   6.220  12.698
 4536SOL    HW115382  11.344   6.254  12.786
 4536SOL    HW215383  11.430   6.154  12.712
 4537SOL     OW15384   2.606   4.380   4.049
 4537SOL    HW115385   2.555   4.347   3.975
 4537SOL    HW215386   2.691   4.402   4.010
 4538SOL     OW15387   1.274   4.184  14.028
 4538SOL    HW115388   1.263   4.130  13.950
 4538SOL    HW215389   1.191   4.230  14.038
 4539SOL     OW15390  12.067  13.897   3.577
 4539SOL    HW115391  12.037  13.809   3.555
 4539SOL    HW215392  12.146  13.910   3.524
 4540SOL     OW15393   8.023  13.767   2.349
 4540SOL    HW115394   7.996  13.859   2.341
 4540SOL    HW215395   7.960  13.719   2.297
 4541SOL     OW15396   6.098   5.196   2.337
 4541SOL    HW115397   6.151   5.243   2.401
 4541SOL    HW215398   6.161   5.160   2.275
 4542SOL     OW15399   3.723  12.484   9.920
 4542SOL    HW115400   3.684  12.570   9.936
 4542SOL    HW215401   3.734  12.480   9.825
 4543SOL     OW15402  14.011   5.179   6.218
 4543SOL    HW115403  14.046   5.150   6.302
 4543SOL    HW215404  14.001   5.273   6.227
 4544SOL     OW15405   9.554   2.259   0.179
 4544SOL    HW115406   9.609   2.337   0.183
 4544SOL    HW215407   9.615   2.186   0.185
 4545SOL     OW15408  11.777   5.319  10.055
 4545SOL    HW115409  11.753   5.371  10.132
 4545SOL    HW215410  11.829   5.378  10.001
 4546SOL     OW15411  10.485   1.438   3.216
 4546SOL    HW115412  10.547   1.386   3.267
 4546SOL    HW215413  10.399   1.402   3.238
 4547SOL     OW15414   1.442  11.242   1.612
 4547SOL    HW115415   1.454  11.204   1.699
 4547SOL    HW215416   1.530  11.241   1.573
 4548SOL     OW15417   0.354   5.365   4.370
 4548SOL    HW115418   0.328   5.308   4.298
 4548SOL    HW215419   0.297   5.442   4.362
 4549SOL     OW15420   6.521   4.226  11.365
 4549SOL    HW115421   6.435   4.194  11.339
 4549SOL    HW215422   6.505   4.316  11.393
 4550SOL     OW15423   4.695   7.864  11.172
 4550SOL    HW115424   4.640   7.862  11.093
 4550SOL    HW215425   4.722   7.956  11.180
 4551SOL     OW15426  12.683  11.683  11.619
 4551SOL    HW115427  12.646  11.669  11.533
 4551SOL    HW215428  12.616  11.653  11.680
 4552SOL     OW15429   0.308  13.694   3.079
 4552SOL    HW115430   0.216  13.667   3.083
 4552SOL    HW215431   0.305  13.781   3.038
 4553SOL     OW15432   4.299  12.864   4.037
 4553SOL    HW115433   4.383  12.905   4.058
 4553SOL    HW215434   4.264  12.917   3.965
 4554SOL     OW15435   6.061   5.354   1.117
 4554SOL    HW115436   5.982   5.405   1.134
 4554SOL    HW215437   6.098   5.393   1.037
 4555SOL     OW15438   0.297   8.895   6.354
 4555SOL    HW115439   0.362   8.912   6.423
 4555SOL    HW215440   0.300   8.973   6.299
 4556SOL     OW15441   2.898  14.305  12.348
 4556SOL    HW115442   2.990  14.332  12.344
 4556SOL    HW215443   2.857  14.367  12.409
 4557SOL     OW15444  10.958   7.404  14.848
 4557SOL    HW115445  10.985   7.312  14.848
 4557SOL    HW215446  11.004   7.442  14.773
 4558SOL     OW15447  14.051   5.341  12.183
 4558SOL    HW115448  13.956   5.352  12.187
 4558SOL    HW215449  14.065   5.247  12.185
 4559SOL     OW15450  11.694  14.806   6.113
 4559SOL    HW115451  11.751   0.005   6.116
 4559SOL    HW215452  11.635  14.816   6.188
 4560SOL     OW15453  11.063   3.303  12.623
 4560SOL    HW115454  11.029   3.289  12.534
 4560SOL    HW215455  11.157   3.287  12.616
 4561SOL     OW15456  13.837   8.522   2.084
 4561SOL    HW115457  13.770   8.532   2.152
 4561SOL    HW215458  13.831   8.602   2.032
 4562SOL     OW15459   4.641   0.712  12.051
 4562SOL    HW115460   4.694   0.711  12.131
 4562SOL    HW215461   4.554   0.686  12.080
 4563SOL     OW15462   8.981  14.351  12.534
 4563SOL    HW115463   8.936  14.268  12.544
 4563SOL    HW215464   9.047  14.353  12.603
 4564SOL     OW15465   0.010   3.516  11.214
 4564SOL    HW115466  14.876   3.452  11.285
 4564SOL    HW215467  14.805   3.516  11.167
 4565SOL     OW15468   6.941  12.004   9.341
 4565SOL    HW115469   6.954  11.910   9.331
 4565SOL    HW215470   6.946  12.038   9.251
 4566SOL     OW15471   6.868   6.699  12.927
 4566SOL    HW115472   6.949   6.735  12.892
 4566SOL    HW215473   6.863   6.734  13.016
 4567SOL     OW15474   4.678   4.230   4.624
 4567SOL    HW115475   4.752   4.262   4.572
 4567SOL    HW215476   4.631   4.309   4.651
 4568SOL     OW15477   0.984  11.179  11.757
 4568SOL    HW115478   0.918  11.241  11.725
 4568SOL    HW215479   0.933  11.113  11.805
 4569SOL     OW15480   5.508  10.060   1.250
 4569SOL    HW115481   5.571  10.116   1.295
 4569SOL    HW215482   5.456  10.020   1.320
 4570SOL     OW15483   6.542  14.756   5.047
 4570SOL    HW115484   6.487  14.682   5.071
 4570SOL    HW215485   6.587  14.728   4.967
 4571SOL     OW15486  11.851  13.809   5.418
 4571SOL    HW115487  11.769  13.785   5.462
 4571SOL    HW215488  11.824  13.829   5.328
 4572SOL     OW15489  12.358   3.025   4.848
 4572SOL    HW115490  12.451   3.047   4.838
 4572SOL    HW215491  12.356   2.958   4.916
 4573SOL     OW15492  13.109   0.441  14.619
 4573SOL    HW115493  13.184   0.446  14.680
 4573SOL    HW215494  13.098   0.347  14.604
 4574SOL     OW15495   0.270  12.718   4.099
 4574SOL    HW115496   0.281  12.707   4.194
 4574SOL    HW215497   0.213  12.795   4.090
 4575SOL     OW15498  14.448  11.551  11.054
 4575SOL    HW115499  14.356  11.537  11.076
 4575SOL    HW215500  14.449  11.638  11.013
 4576SOL     OW15501   8.470   7.708   3.072
 4576SOL    HW115502   8.522   7.649   3.127
 4576SOL    HW215503   8.433   7.772   3.133
 4577SOL     OW15504   6.268   7.998   2.052
 4577SOL    HW115505   6.219   8.071   2.015
 4577SOL    HW215506   6.337   8.040   2.105
 4578SOL     OW15507   9.150  11.427   0.768
 4578SOL    HW115508   9.121  11.505   0.722
 4578SOL    HW215509   9.226  11.455   0.819
 4579SOL     OW15510   1.858   2.133   4.407
 4579SOL    HW115511   1.872   2.044   4.376
 4579SOL    HW215512   1.839   2.184   4.328
 4580SOL     OW15513   0.498  10.539   2.430
 4580SOL    HW115514   0.476  10.617   2.481
 4580SOL    HW215515   0.420  10.524   2.375
 4581SOL     OW15516   5.791   6.302   1.500
 4581SOL    HW115517   5.696   6.288   1.499
 4581SOL    HW215518   5.809   6.338   1.587
 4582SOL     OW15519   0.837   6.446   9.884
 4582SOL    HW115520   0.930   6.457   9.863
 4582SOL    HW215521   0.791   6.487   9.810
 4583SOL     OW15522   3.284   8.563   5.867
 4583SOL    HW115523   3.282   8.620   5.790
 4583SOL    HW215524   3.235   8.485   5.842
 4584SOL     OW15525  10.001   0.309   5.608
 4584SOL    HW115526  10.014   0.404   5.598
 4584SOL    HW215527  10.079   0.278   5.652
 4585SOL     OW15528   6.744  12.133   5.468
 4585SOL    HW115529   6.711  12.191   5.400
 4585SOL    HW215530   6.839  12.138   5.460
 4586SOL     OW15531  12.480   2.556  10.927
 4586SOL    HW115532  12.566   2.569  10.887
 4586SOL    HW215533  12.500   2.521  11.014
 4587SOL     OW15534   8.310   3.386   4.533
 4587SOL    HW115535   8.320   3.317   4.467
 4587SOL    HW215536   8.346   3.348   4.613
 4588SOL     OW15537   7.505  12.784  13.004
 4588SOL    HW115538   7.460  12.717  12.954
 4588SOL    HW215539   7.592  12.747  13.022
 4589SOL     OW15540   3.317   6.710   5.149
 4589SOL    HW115541   3.307   6.766   5.226
 4589SOL    HW215542   3.379   6.642   5.177
 4590SOL     OW15543   7.682   9.054   9.901
 4590SOL    HW115544   7.626   8.988   9.940
 4590SOL    HW215545   7.629   9.093   9.831
 4591SOL     OW15546   5.811  14.006  13.481
 4591SOL    HW115547   5.813  14.034  13.572
 4591SOL    HW215548   5.859  14.075  13.434
 4592SOL     OW15549   4.207   7.472  11.855
 4592SOL    HW115550   4.268   7.403  11.829
 4592SOL    HW215551   4.187   7.517  11.773
 4593SOL     OW15552  13.675   7.454   0.660
 4593SOL    HW115553  13.695   7.391   0.591
 4593SOL    HW215554  13.601   7.416   0.707
 4594SOL     OW15555   0.297  12.086   1.542
 4594SOL    HW115556   0.269  12.059   1.455
 4594SOL    HW215557   0.217  12.083   1.595
 4595SOL     OW15558  13.134  13.551   8.447
 4595SOL    HW115559  13.131  13.584   8.537
 4595SOL    HW215560  13.087  13.617   8.396
 4596SOL     OW15561   8.509   3.621  10.091
 4596SOL    HW115562   8.468   3.541  10.057
 4596SOL    HW215563   8.509   3.681  10.017
 4597SOL     OW15564   9.123   4.981   2.899
 4597SOL    HW115565   9.145   4.963   2.808
 4597SOL    HW215566   9.041   5.031   2.895
 4598SOL     OW15567  12.044   4.293   8.185
 4598SOL    HW115568  12.109   4.348   8.140
 4598SOL    HW215569  12.079   4.282   8.273
 4599SOL     OW15570   9.108   8.189   2.484
 4599SOL    HW115571   9.144   8.244   2.415
 4599SOL    HW215572   9.181   8.131   2.509
 4600SOL     OW15573   5.658   4.080   6.204
 4600SOL    HW115574   5.683   4.170   6.225
 4600SOL    HW215575   5.683   4.069   6.112
 4601SOL     OW15576   4.576   6.126  10.830
 4601SOL    HW115577   4.631   6.060  10.871
 4601SOL    HW215578   4.633   6.169  10.767
 4602SOL     OW15579   3.808   6.401   6.131
 4602SOL    HW115580   3.788   6.316   6.092
 4602SOL    HW215581   3.837   6.381   6.219
 4603SOL     OW15582   1.155   9.791   6.660
 4603SOL    HW115583   1.157   9.872   6.712
 4603SOL    HW215584   1.225   9.737   6.697
 4604SOL     OW15585   9.196  13.526  11.213
 4604SOL    HW115586   9.135  13.599  11.200
 4604SOL    HW215587   9.281  13.568  11.230
 4605SOL     OW15588   1.834  13.640   8.674
 4605SOL    HW115589   1.854  13.719   8.624
 4605SOL    HW215590   1.738  13.635   8.675
 4606SOL     OW15591   9.531   3.756   5.647
 4606SOL    HW115592   9.622   3.745   5.619
 4606SOL    HW215593   9.500   3.831   5.597
 4607SOL     OW15594  10.543   7.511   4.635
 4607SOL    HW115595  10.462   7.560   4.631
 4607SOL    HW215596  10.571   7.504   4.543
 4608SOL     OW15597   9.857   4.729  10.664
 4608SOL    HW115598   9.828   4.657  10.607
 4608SOL    HW215599   9.917   4.780  10.609
 4609SOL     OW15600   4.850   8.239   5.451
 4609SOL    HW115601   4.921   8.261   5.390
 4609SOL    HW215602   4.774   8.225   5.394
 4610SOL     OW15603   3.650  12.499   6.605
 4610SOL    HW115604   3.588  12.447   6.656
 4610SOL    HW215605   3.687  12.561   6.668
 4611SOL     OW15606   3.159   7.533  11.335
 4611SOL    HW115607   3.088   7.481  11.298
 4611SOL    HW215608   3.220   7.469  11.372
 4612SOL     OW15609   2.116  13.185   6.027
 4612SOL    HW115610   2.185  13.251   6.021
 4612SOL    HW215611   2.161  13.106   6.057
 4613SOL     OW15612  12.596   5.204  13.646
 4613SOL    HW115613  12.513   5.250  13.657
 4613SOL    HW215614  12.572   5.121  13.604
 4614SOL     OW15615   3.949  12.113   8.139
 4614SOL    HW115616   3.972  12.103   8.047
 4614SOL    HW215617   3.864  12.070   8.148
 4615SOL     OW15618  11.570   1.136   0.442
 4615SOL    HW115619  11.633   1.155   0.511
 4615SOL    HW215620  11.503   1.205   0.451
 4616SOL     OW15621   9.377   8.655  13.153
 4616SOL    HW115622   9.326   8.736  13.160
 4616SOL    HW215623   9.359   8.623  13.065
 4617SOL     OW15624   7.525  13.342   8.430
 4617SOL    HW115625   7.583  13.414   8.407
 4617SOL    HW215626   7.579  13.263   8.421
 4618SOL     OW15627   7.071   0.527   8.690
 4618SOL    HW115628   7.138   0.507   8.755
 4618SOL    HW215629   7.082   0.460   8.622
 4619SOL     OW15630   1.865  12.855   7.730
 4619SOL    HW115631   1.829  12.926   7.782
 4619SOL    HW215632   1.790  12.801   7.707
 4620SOL     OW15633   6.694   5.033   0.073
 4620SOL    HW115634   6.757   5.092   0.032
 4620SOL    HW215635   6.614   5.045   0.023
 4621SOL     OW15636   6.054   5.803  12.318
 4621SOL    HW115637   6.094   5.890  12.311
 4621SOL    HW215638   6.074   5.761  12.234
 4622SOL     OW15639   5.544  11.946   1.082
 4622SOL    HW115640   5.574  11.866   1.125
 4622SOL    HW215641   5.597  12.016   1.119
 4623SOL     OW15642  11.671   2.281   7.297
 4623SOL    HW115643  11.604   2.213   7.293
 4623SOL    HW215644  11.734   2.257   7.229
 4624SOL     OW15645   2.402  12.185   2.172
 4624SOL    HW115646   2.462  12.224   2.236
 4624SOL    HW215647   2.352  12.120   2.221
 4625SOL     OW15648   2.134  13.683   9.470
 4625SOL    HW115649   2.153  13.611   9.530
 4625SOL    HW215650   2.221  13.718   9.447
 4626SOL     OW15651   2.303   2.890  11.000
 4626SOL    HW115652   2.375   2.838  11.035
 4626SOL    HW215653   2.345   2.951  10.938
 4627SOL     OW15654  14.711  12.357   8.305
 4627SOL    HW115655  14.798  12.358   8.264
 4627SOL    HW215656  14.654  12.401   8.241
 4628SOL     OW15657  12.943   0.465  12.996
 4628SOL    HW115658  12.876   0.477  12.929
 4628SOL    HW215659  12.899   0.415  13.064
 4629SOL     OW15660   5.319   4.093   4.724
 4629SOL    HW115661   5.252   4.079   4.657
 4629SOL    HW215662   5.270   4.110   4.804
 4630SOL     OW15663   1.528   0.598  11.421
 4630SOL    HW115664   1.557   0.581  11.332
 4630SOL    HW215665   1.609   0.615  11.470
 4631SOL     OW15666  13.109   9.189  10.622
 4631SOL    HW115667  13.142   9.275  10.595
 4631SOL    HW215668  13.179   9.152  10.675
 4632SOL     OW15669   7.500   3.367   6.455
 4632SOL    HW115670   7.481   3.411   6.538
 4632SOL    HW215671   7.421   3.379   6.403
 4633SOL     OW15672   0.434   3.350  10.735
 4633SOL    HW115673   0.375   3.349  10.810
 4633SOL    HW215674   0.513   3.394  10.767
 4634SOL     OW15675   0.466  12.594   1.600
 4634SOL    HW115676   0.549  12.627   1.633
 4634SOL    HW215677   0.400  12.641   1.652
 4635SOL     OW15678  14.091   1.016   2.215
 4635SOL    HW115679  14.036   0.938   2.219
 4635SOL    HW215680  14.031   1.088   2.196
 4636SOL     OW15681  12.148   0.795   1.201
 4636SOL    HW115682  12.084   0.795   1.272
 4636SOL    HW215683  12.226   0.837   1.239
 4637SOL     OW15684   1.667  11.059   9.598
 4637SOL    HW115685   1.607  11.027   9.530
 4637SOL    HW215686   1.726  11.118   9.552
 4638SOL     OW15687  14.190   2.736   9.694
 4638SOL    HW115688  14.168   2.643   9.700
 4638SOL    HW215689  14.106   2.779   9.676
 4639SOL     OW15690  14.835  10.359   5.454
 4639SOL    HW115691  14.759  10.338   5.398
 4639SOL    HW215692   0.032  10.324   5.406
 4640SOL     OW15693   7.239  12.769  10.257
 4640SOL    HW115694   7.268  12.752  10.167
 4640SOL    HW215695   7.200  12.686  10.285
 4641SOL     OW15696  12.456   1.626  11.300
 4641SOL    HW115697  12.401   1.703  11.287
 4641SOL    HW215698  12.544   1.654  11.277
 4642SOL     OW15699   7.410   6.322   4.803
 4642SOL    HW115700   7.409   6.347   4.895
 4642SOL    HW215701   7.467   6.245   4.800
 4643SOL     OW15702   5.541   3.822   9.970
 4643SOL    HW115703   5.604   3.825  10.042
 4643SOL    HW215704   5.561   3.900   9.919
 4644SOL     OW15705   7.791   1.199  11.907
 4644SOL    HW115706   7.709   1.236  11.876
 4644SOL    HW215707   7.812   1.131  11.842
 4645SOL     OW15708  11.391  12.112   4.376
 4645SOL    HW115709  11.388  12.097   4.282
 4645SOL    HW215710  11.406  12.025   4.414
 4646SOL     OW15711  11.867   3.054   0.099
 4646SOL    HW115712  11.885   2.970   0.057
 4646SOL    HW215713  11.920   3.052   0.179
 4647SOL     OW15714  14.007  12.777   9.561
 4647SOL    HW115715  14.020  12.746   9.471
 4647SOL    HW215716  14.092  12.811   9.587
 4648SOL     OW15717   0.670   7.256   5.596
 4648SOL    HW115718   0.726   7.281   5.523
 4648SOL    HW215719   0.640   7.340   5.632
 4649SOL     OW15720   1.647   4.062   2.123
 4649SOL    HW115721   1.625   4.130   2.058
 4649SOL    HW215722   1.568   4.009   2.129
 4650SOL     OW15723   7.389   2.579   7.768
 4650SOL    HW115724   7.357   2.489   7.765
 4650SOL    HW215725   7.328   2.625   7.826
 4651SOL     OW15726  13.281  11.164   0.776
 4651SOL    HW115727  13.354  11.194   0.721
 4651SOL    HW215728  13.203  11.191   0.729
 4652SOL     OW15729  13.064   2.658   9.124
 4652SOL    HW115730  13.110   2.732   9.086
 4652SOL    HW215731  13.065   2.591   9.056
 4653SOL     OW15732  10.189   8.976   7.085
 4653SOL    HW115733  10.115   8.927   7.122
 4653SOL    HW215734  10.162   9.068   7.092
 4654SOL     OW15735  13.289   8.620  10.428
 4654SOL    HW115736  13.263   8.535  10.393
 4654SOL    HW215737  13.262   8.683  10.361
 4655SOL     OW15738  12.613   5.603   6.206
 4655SOL    HW115739  12.679   5.673   6.204
 4655SOL    HW215740  12.607   5.577   6.298
 4656SOL     OW15741   7.636  10.888   8.719
 4656SOL    HW115742   7.659  10.815   8.776
 4656SOL    HW215743   7.714  10.902   8.666
 4657SOL     OW15744   9.991  10.974   4.726
 4657SOL    HW115745   9.955  10.904   4.672
 4657SOL    HW215746  10.084  10.975   4.706
 4658SOL     OW15747   6.365   2.852   7.047
 4658SOL    HW115748   6.301   2.922   7.060
 4658SOL    HW215749   6.450   2.895   7.061
 4659SOL     OW15750   0.093   0.480   4.332
 4659SOL    HW115751   0.069   0.569   4.359
 4659SOL    HW215752   0.113   0.434   4.413
 4660SOL     OW15753   6.779  14.231   2.018
 4660SOL    HW115754   6.731  14.281   1.952
 4660SOL    HW215755   6.756  14.140   2.000
 4661SOL     OW15756   4.449   1.039  13.019
 4661SOL    HW115757   4.523   1.092  13.050
 4661SOL    HW215758   4.488   0.975  12.960
 4662SOL     OW15759   4.583   4.948  10.175
 4662SOL    HW115760   4.577   5.036  10.139
 4662SOL    HW215761   4.633   4.898  10.110
 4663SOL     OW15762  12.334   5.809  13.686
 4663SOL    HW115763  12.380   5.860  13.620
 4663SOL    HW215764  12.388   5.732  13.701
 4664SOL     OW15765   2.058   8.607   7.077
 4664SOL    HW115766   2.061   8.666   7.152
 4664SOL    HW215767   2.059   8.664   7.001
 4665SOL     OW15768  11.553   3.276  12.995
 4665SOL    HW115769  11.522   3.186  12.993
 4665SOL    HW215770  11.476   3.329  12.972
 4666SOL     OW15771   4.314   7.337   4.351
 4666SOL    HW115772   4.381   7.387   4.305
 4666SOL    HW215773   4.299   7.383   4.433
 4667SOL     OW15774   6.918   0.377  13.043
 4667SOL    HW115775   6.882   0.465  13.036
 4667SOL    HW215776   6.909   0.355  13.136
 4668SOL     OW15777   9.337  10.873   5.706
 4668SOL    HW115778   9.310  10.875   5.614
 4668SOL    HW215779   9.322  10.782   5.733
 4669SOL     OW15780  12.549   7.539   1.875
 4669SOL    HW115781  12.485   7.551   1.944
 4669SOL    HW215782  12.505   7.482   1.811
 4670SOL     OW15783   5.934   8.957   1.853
 4670SOL    HW115784   5.882   8.900   1.909
 4670SOL    HW215785   5.998   8.997   1.912
 4671SOL     OW15786   8.869   9.651  12.297
 4671SOL    HW115787   8.837   9.575  12.248
 4671SOL    HW215788   8.800   9.716  12.289
 4672SOL     OW15789   9.747   2.202   7.806
 4672SOL    HW115790   9.738   2.287   7.764
 4672SOL    HW215791   9.660   2.163   7.800
 4673SOL     OW15792   6.593   5.409   3.938
 4673SOL    HW115793   6.546   5.493   3.937
 4673SOL    HW215794   6.666   5.422   3.878
 4674SOL     OW15795   8.649  10.365   5.063
 4674SOL    HW115796   8.679  10.433   5.003
 4674SOL    HW215797   8.554  10.363   5.052
 4675SOL     OW15798   1.116   8.183  10.015
 4675SOL    HW115799   1.035   8.133  10.008
 4675SOL    HW215800   1.144   8.197   9.925
 4676SOL     OW15801   7.705   6.568   6.019
 4676SOL    HW115802   7.675   6.532   6.103
 4676SOL    HW215803   7.727   6.491   5.966
 4677SOL     OW15804   3.617   7.262  10.781
 4677SOL    HW115805   3.652   7.182  10.742
 4677SOL    HW215806   3.564   7.231  10.855
 4678SOL     OW15807   3.799   7.249  12.338
 4678SOL    HW115808   3.717   7.241  12.388
 4678SOL    HW215809   3.855   7.181  12.374
 4679SOL     OW15810   5.496   3.531   2.492
 4679SOL    HW115811   5.483   3.438   2.473
 4679SOL    HW215812   5.451   3.545   2.575
 4680SOL     OW15813   1.543   7.613  10.137
 4680SOL    HW115814   1.564   7.525  10.170
 4680SOL    HW215815   1.460   7.635  10.179
 4681SOL     OW15816   5.645   2.219   4.701
 4681SOL    HW115817   5.614   2.206   4.611
 4681SOL    HW215818   5.636   2.132   4.741
 4682SOL     OW15819   5.934  13.194   5.578
 4682SOL    HW115820   5.880  13.141   5.519
 4682SOL    HW215821   6.015  13.209   5.530
 4683SOL     OW15822   9.107   9.163   8.673
 4683SOL    HW115823   9.111   9.119   8.588
 4683SOL    HW215824   9.173   9.119   8.726
 4684SOL     OW15825   4.552   5.526   7.178
 4684SOL    HW115826   4.543   5.477   7.260
 4684SOL    HW215827   4.575   5.459   7.113
 4685SOL     OW15828  12.413   8.089  11.855
 4685SOL    HW115829  12.385   8.147  11.925
 4685SOL    HW215830  12.369   8.122  11.777
 4686SOL     OW15831  10.999   5.486  10.011
 4686SOL    HW115832  10.980   5.513  10.101
 4686SOL    HW215833  11.083   5.440  10.016
 4687SOL     OW15834   2.083  13.488   3.644
 4687SOL    HW115835   2.160  13.537   3.613
 4687SOL    HW215836   2.070  13.519   3.733
 4688SOL     OW15837   0.684   0.359  11.941
 4688SOL    HW115838   0.733   0.438  11.918
 4688SOL    HW215839   0.707   0.342  12.032
 4689SOL     OW15840  13.393   1.952  13.851
 4689SOL    HW115841  13.398   1.860  13.874
 4689SOL    HW215842  13.450   1.996  13.913
 4690SOL     OW15843   5.001   5.732   1.405
 4690SOL    HW115844   5.009   5.798   1.337
 4690SOL    HW215845   5.016   5.779   1.487
 4691SOL     OW15846   9.524  10.178   3.055
 4691SOL    HW115847   9.469  10.149   2.982
 4691SOL    HW215848   9.551  10.097   3.098
 4692SOL     OW15849  10.486   9.594  13.038
 4692SOL    HW115850  10.412   9.545  13.074
 4692SOL    HW215851  10.562   9.558  13.083
 4693SOL     OW15852  10.428  14.437  13.766
 4693SOL    HW115853  10.457  14.508  13.710
 4693SOL    HW215854  10.469  14.359  13.728
 4694SOL     OW15855   1.751   0.156  10.632
 4694SOL    HW115856   1.665   0.199  10.631
 4694SOL    HW215857   1.756   0.110  10.548
 4695SOL     OW15858  12.921  11.723   1.584
 4695SOL    HW115859  13.013  11.698   1.593
 4695SOL    HW215860  12.872  11.643   1.600
 4696SOL     OW15861  13.355  10.986   5.032
 4696SOL    HW115862  13.276  10.950   4.992
 4696SOL    HW215863  13.338  11.079   5.040
 4697SOL     OW15864   4.269   2.494  11.609
 4697SOL    HW115865   4.268   2.530  11.520
 4697SOL    HW215866   4.358   2.508  11.640
 4698SOL     OW15867   4.150   7.589   4.300
 4698SOL    HW115868   4.089   7.561   4.369
 4698SOL    HW215869   4.235   7.596   4.344
 4699SOL     OW15870  13.363   6.511  14.782
 4699SOL    HW115871  13.438   6.495  14.839
 4699SOL    HW215872  13.397   6.567  14.712
 4700SOL     OW15873   2.982   8.351   1.669
 4700SOL    HW115874   2.960   8.395   1.752
 4700SOL    HW215875   2.907   8.295   1.651
 4701SOL     OW15876   6.992   0.069   7.085
 4701SOL    HW115877   6.954   0.139   7.139
 4701SOL    HW215878   6.982   0.100   6.995
 4702SOL     OW15879   7.491   0.623   6.451
 4702SOL    HW115880   7.587   0.619   6.457
 4702SOL    HW215881   7.470   0.715   6.470
 4703SOL     OW15882  12.983   6.181  11.727
 4703SOL    HW115883  12.901   6.132  11.727
 4703SOL    HW215884  12.999   6.201  11.819
 4704SOL     OW15885   0.896   7.571   8.335
 4704SOL    HW115886   0.910   7.648   8.390
 4704SOL    HW215887   0.925   7.497   8.388
 4705SOL     OW15888  11.478  14.452   4.096
 4705SOL    HW115889  11.553  14.393   4.107
 4705SOL    HW215890  11.404  14.393   4.078
 4706SOL     OW15891   8.945   5.586  10.281
 4706SOL    HW115892   8.958   5.499  10.243
 4706SOL    HW215893   8.996   5.585  10.362
 4707SOL     OW15894   4.296   1.829   5.564
 4707SOL    HW115895   4.209   1.801   5.593
 4707SOL    HW215896   4.355   1.762   5.597
 4708SOL     OW15897   9.445   0.364   4.283
 4708SOL    HW115898   9.370   0.323   4.239
 4708SOL    HW215899   9.483   0.294   4.336
 4709SOL     OW15900   9.889   9.065   6.975
 4709SOL    HW115901   9.796   9.086   6.982
 4709SOL    HW215902   9.907   9.062   6.881
 4710SOL     OW15903  12.914   2.440   4.211
 4710SOL    HW115904  12.875   2.353   4.216
 4710SOL    HW215905  12.966   2.448   4.292
 4711SOL     OW15906   0.213   2.795   8.672
 4711SOL    HW115907   0.139   2.816   8.615
 4711SOL    HW215908   0.285   2.849   8.639
 4712SOL     OW15909   8.734   2.136   1.212
 4712SOL    HW115910   8.820   2.117   1.174
 4712SOL    HW215911   8.739   2.101   1.301
 4713SOL     OW15912  12.197   7.401   3.057
 4713SOL    HW115913  12.271   7.342   3.074
 4713SOL    HW215914  12.188   7.452   3.137
 4714SOL     OW15915   3.067   6.388   5.775
 4714SOL    HW115916   3.050   6.387   5.681
 4714SOL    HW215917   3.150   6.341   5.786
 4715SOL     OW15918   8.556   6.307   5.192
 4715SOL    HW115919   8.511   6.272   5.115
 4715SOL    HW215920   8.488   6.309   5.260
 4716SOL     OW15921   1.567   9.521  14.789
 4716SOL    HW115922   1.476   9.505  14.813
 4716SOL    HW215923   1.587   9.606  14.828
 4717SOL     OW15924  11.462   3.381   2.568
 4717SOL    HW115925  11.465   3.459   2.623
 4717SOL    HW215926  11.424   3.411   2.485
 4718SOL     OW15927  13.151   6.171  11.285
 4718SOL    HW115928  13.113   6.151  11.370
 4718SOL    HW215929  13.076   6.184  11.227
 4719SOL     OW15930  13.444   7.330   0.772
 4719SOL    HW115931  13.452   7.237   0.794
 4719SOL    HW215932  13.393   7.368   0.843
 4720SOL     OW15933   9.508   5.891  12.440
 4720SOL    HW115934   9.471   5.808  12.411
 4720SOL    HW215935   9.591   5.867  12.481
 4721SOL     OW15936   7.782   2.307  14.169
 4721SOL    HW115937   7.850   2.373  14.182
 4721SOL    HW215938   7.776   2.262  14.253
 4722SOL     OW15939  10.149   7.103  11.441
 4722SOL    HW115940  10.244   7.112  11.441
 4722SOL    HW215941  10.119   7.170  11.380
 4723SOL     OW15942  13.070  11.413   8.979
 4723SOL    HW115943  13.125  11.399   9.056
 4723SOL    HW215944  13.089  11.503   8.952
 4724SOL     OW15945   9.618   5.665   0.498
 4724SOL    HW115946   9.711   5.645   0.485
 4724SOL    HW215947   9.586   5.690   0.411
 4725SOL     OW15948   1.738  12.692  10.643
 4725SOL    HW115949   1.658  12.644  10.622
 4725SOL    HW215950   1.746  12.757  10.573
 4726SOL     OW15951  12.963   5.346   4.868
 4726SOL    HW115952  12.931   5.412   4.930
 4726SOL    HW215953  13.051   5.324   4.900
 4727SOL     OW15954   6.205   3.099  13.377
 4727SOL    HW115955   6.235   3.014  13.409
 4727SOL    HW215956   6.274   3.128  13.317
 4728SOL     OW15957  11.128   8.197  11.324
 4728SOL    HW115958  11.069   8.170  11.253
 4728SOL    HW215959  11.100   8.144  11.399
 4729SOL     OW15960  13.372   2.448   8.914
 4729SOL    HW115961  13.428   2.418   8.986
 4729SOL    HW215962  13.396   2.540   8.902
 4730SOL     OW15963   3.569  11.904  11.955
 4730SOL    HW115964   3.525  11.947  11.881
 4730SOL    HW215965   3.658  11.939  11.954
 4731SOL     OW15966   4.430   7.437   3.189
 4731SOL    HW115967   4.404   7.450   3.280
 4731SOL    HW215968   4.364   7.482   3.138
 4732SOL     OW15969  12.626   3.498   3.104
 4732SOL    HW115970  12.631   3.454   3.189
 4732SOL    HW215971  12.694   3.457   3.052
 4733SOL     OW15972   0.856  10.317  11.387
 4733SOL    HW115973   0.817  10.232  11.405
 4733SOL    HW215974   0.868  10.319  11.293
 4734SOL     OW15975   8.763  14.763  10.482
 4734SOL    HW115976   8.697  14.753  10.413
 4734SOL    HW215977   8.719  14.733  10.562
 4735SOL     OW15978   7.680   9.526   9.331
 4735SOL    HW115979   7.726   9.594   9.380
 4735SOL    HW215980   7.618   9.574   9.277
 4736SOL     OW15981  12.324   5.109   7.905
 4736SOL    HW115982  12.403   5.096   7.958
 4736SOL    HW215983  12.305   5.202   7.911
 4737SOL     OW15984   1.253   3.147   5.601
 4737SOL    HW115985   1.299   3.126   5.682
 4737SOL    HW215986   1.169   3.184   5.629
 4738SOL     OW15987   0.361   9.126  13.026
 4738SOL    HW115988   0.372   9.155  12.935
 4738SOL    HW215989   0.371   9.031  13.021
 4739SOL     OW15990  14.151   4.363   7.633
 4739SOL    HW115991  14.209   4.369   7.557
 4739SOL    HW215992  14.084   4.300   7.607
 4740SOL     OW15993  10.962  14.781   0.922
 4740SOL    HW115994  11.034  14.717   0.920
 4740SOL    HW215995  11.001  14.862   0.889
 4741SOL     OW15996   7.024   7.538  11.279
 4741SOL    HW115997   7.043   7.461  11.224
 4741SOL    HW215998   6.940   7.517  11.321
 4742SOL     OW15999   0.948   2.238  14.685
 4742SOL    HW116000   0.899   2.307  14.639
 4742SOL    HW216001   0.936   2.160  14.631
 4743SOL     OW16002   3.056   4.540  14.575
 4743SOL    HW116003   2.980   4.480  14.577
 4743SOL    HW216004   3.100   4.524  14.658
 4744SOL     OW16005  14.158   0.506   2.278
 4744SOL    HW116006  14.063   0.513   2.292
 4744SOL    HW216007  14.197   0.548   2.355
 4745SOL     OW16008   2.187   2.500  11.993
 4745SOL    HW116009   2.268   2.522  12.039
 4745SOL    HW216010   2.137   2.581  11.992
 4746SOL     OW16011  11.279   4.140   5.576
 4746SOL    HW116012  11.278   4.051   5.543
 4746SOL    HW216013  11.218   4.139   5.650
 4747SOL     OW16014   6.224   4.280   0.486
 4747SOL    HW116015   6.279   4.233   0.424
 4747SOL    HW216016   6.279   4.353   0.516
 4748SOL     OW16017  11.029   8.983   4.569
 4748SOL    HW116018  11.068   8.957   4.653
 4748SOL    HW216019  10.935   8.988   4.587
 4749SOL     OW16020   2.134  10.581  12.653
 4749SOL    HW116021   2.104  10.528  12.727
 4749SOL    HW216022   2.228  10.566  12.648
 4750SOL     OW16023  13.763   6.665   5.028
 4750SOL    HW116024  13.708   6.636   4.956
 4750SOL    HW216025  13.790   6.584   5.072
 4751SOL     OW16026   7.246   4.415  11.677
 4751SOL    HW116027   7.270   4.478  11.609
 4751SOL    HW216028   7.317   4.421  11.741
 4752SOL     OW16029  10.264  14.611   7.975
 4752SOL    HW116030  10.210  14.644   8.047
 4752SOL    HW216031  10.291  14.689   7.926
 4753SOL     OW16032   8.424   3.334   2.907
 4753SOL    HW116033   8.395   3.314   2.995
 4753SOL    HW216034   8.385   3.419   2.887
 4754SOL     OW16035  14.237  11.229   4.902
 4754SOL    HW116036  14.212  11.215   4.993
 4754SOL    HW216037  14.167  11.188   4.851
 4755SOL     OW16038   5.163   8.685   4.211
 4755SOL    HW116039   5.118   8.632   4.277
 4755SOL    HW216040   5.127   8.773   4.223
 4756SOL     OW16041  12.664  10.927   6.176
 4756SOL    HW116042  12.689  10.838   6.200
 4756SOL    HW216043  12.574  10.936   6.206
 4757SOL     OW16044   1.874  10.956   6.488
 4757SOL    HW116045   1.881  11.038   6.439
 4757SOL    HW216046   1.962  10.941   6.522
 4758SOL     OW16047   8.321  14.492  13.545
 4758SOL    HW116048   8.229  14.491  13.517
 4758SOL    HW216049   8.371  14.486  13.463
 4759SOL     OW16050   7.787   4.818   2.416
 4759SOL    HW116051   7.789   4.817   2.511
 4759SOL    HW216052   7.818   4.732   2.390
 4760SOL     OW16053   9.892  13.061  11.213
 4760SOL    HW116054   9.917  13.092  11.126
 4760SOL    HW216055   9.798  13.043  11.207
 4761SOL     OW16056   1.687  10.241  11.701
 4761SOL    HW116057   1.738  10.304  11.752
 4761SOL    HW216058   1.619  10.294  11.659
 4762SOL     OW16059   9.539  13.384  10.643
 4762SOL    HW116060   9.455  13.357  10.680
 4762SOL    HW216061   9.598  13.390  10.718
 4763SOL     OW16062   6.795   1.994   2.617
 4763SOL    HW116063   6.732   1.923   2.606
 4763SOL    HW216064   6.876   1.951   2.643
 4764SOL     OW16065  13.295   9.755   3.022
 4764SOL    HW116066  13.281   9.801   3.104
 4764SOL    HW216067  13.390   9.742   3.018
 4765SOL     OW16068   2.945   1.643   1.699
 4765SOL    HW116069   3.012   1.619   1.763
 4765SOL    HW216070   2.992   1.696   1.635
 4766SOL     OW16071   2.772   4.664  10.152
 4766SOL    HW116072   2.699   4.691  10.208
 4766SOL    HW216073   2.849   4.699  10.196
 4767SOL     OW16074   2.747  12.360   9.724
 4767SOL    HW116075   2.687  12.308   9.778
 4767SOL    HW216076   2.741  12.321   9.637
 4768SOL     OW16077   8.502   4.648   4.393
 4768SOL    HW116078   8.447   4.659   4.471
 4768SOL    HW216079   8.475   4.564   4.356
 4769SOL     OW16080  14.526   6.130   0.438
 4769SOL    HW116081  14.506   6.217   0.474
 4769SOL    HW216082  14.457   6.114   0.374
 4770SOL     OW16083   6.898   5.202   2.208
 4770SOL    HW116084   6.971   5.213   2.148
 4770SOL    HW216085   6.883   5.289   2.244
 4771SOL     OW16086  14.188   3.417   2.910
 4771SOL    HW116087  14.196   3.323   2.924
 4771SOL    HW216088  14.095   3.436   2.922
 4772SOL     OW16089  12.419  14.845   5.827
 4772SOL    HW116090  12.343  14.818   5.775
 4772SOL    HW216091  12.494  14.832   5.769
 4773SOL     OW16092   1.167   5.127   5.614
 4773SOL    HW116093   1.099   5.176   5.566
 4773SOL    HW216094   1.127   5.043   5.634
 4774SOL     OW16095   8.739  12.929   3.859
 4774SOL    HW116096   8.672  12.923   3.927
 4774SOL    HW216097   8.812  12.973   3.901
 4775SOL     OW16098   4.239  14.626   3.536
 4775SOL    HW116099   4.290  14.690   3.586
 4775SOL    HW216100   4.241  14.547   3.591
 4776SOL     OW16101  12.791  10.381   2.309
 4776SOL    HW116102  12.806  10.288   2.290
 4776SOL    HW216103  12.871  10.424   2.279
 4777SOL     OW16104  14.117   3.520   5.334
 4777SOL    HW116105  14.144   3.432   5.358
 4777SOL    HW216106  14.024   3.513   5.315
 4778SOL     OW16107   2.067  13.541   5.521
 4778SOL    HW116108   2.108  13.458   5.499
 4778SOL    HW216109   1.974  13.527   5.506
 4779SOL     OW16110   6.130  10.299   3.554
 4779SOL    HW116111   6.155  10.213   3.520
 4779SOL    HW216112   6.176  10.307   3.637
 4780SOL     OW16113   0.817   8.781   8.659
 4780SOL    HW116114   0.814   8.765   8.565
 4780SOL    HW216115   0.849   8.871   8.667
 4781SOL     OW16116   7.205   8.109   3.662
 4781SOL    HW116117   7.203   8.041   3.594
 4781SOL    HW216118   7.167   8.186   3.619
 4782SOL     OW16119  11.632  12.329   6.223
 4782SOL    HW116120  11.604  12.420   6.229
 4782SOL    HW216121  11.727  12.333   6.207
 4783SOL     OW16122   5.574   3.003   0.593
 4783SOL    HW116123   5.628   2.928   0.569
 4783SOL    HW216124   5.548   3.042   0.509
 4784SOL     OW16125   0.672   7.337  11.008
 4784SOL    HW116126   0.723   7.417  10.995
 4784SOL    HW216127   0.589   7.367  11.046
 4785SOL     OW16128  12.079   1.199  10.691
 4785SOL    HW116129  12.137   1.276  10.693
 4785SOL    HW216130  12.122   1.136  10.748
 4786SOL     OW16131   0.709  12.055   4.838
 4786SOL    HW116132   0.673  12.089   4.920
 4786SOL    HW216133   0.667  11.969   4.828
 4787SOL     OW16134   8.255   2.502   2.683
 4787SOL    HW116135   8.283   2.411   2.681
 4787SOL    HW216136   8.336   2.552   2.693
 4788SOL     OW16137   3.343  10.672   3.916
 4788SOL    HW116138   3.270  10.730   3.896
 4788SOL    HW216139   3.378  10.705   3.999
 4789SOL     OW16140   3.413  10.569   2.468
 4789SOL    HW116141   3.360  10.490   2.475
 4789SOL    HW216142   3.403  10.597   2.376
 4790SOL     OW16143   7.988  11.651   1.749
 4790SOL    HW116144   8.036  11.681   1.827
 4790SOL    HW216145   8.030  11.568   1.726
 4791SOL     OW16146   1.635   2.033  12.169
 4791SOL    HW116147   1.605   2.053  12.258
 4791SOL    HW216148   1.694   2.104  12.147
 4792SOL     OW16149   1.061  10.744  12.960
 4792SOL    HW116150   1.129  10.685  12.991
 4792SOL    HW216151   1.078  10.753  12.866
 4793SOL     OW16152  11.344   1.672   1.488
 4793SOL    HW116153  11.327   1.765   1.503
 4793SOL    HW216154  11.432   1.658   1.522
 4794SOL     OW16155  13.570   4.154   5.055
 4794SOL    HW116156  13.555   4.248   5.059
 4794SOL    HW216157  13.489   4.118   5.019
 4795SOL     OW16158  12.093  11.013  13.192
 4795SOL    HW116159  12.082  11.009  13.287
 4795SOL    HW216160  12.140  10.932  13.170
 4796SOL     OW16161   4.754  14.073   1.316
 4796SOL    HW116162   4.700  14.152   1.312
 4796SOL    HW216163   4.818  14.084   1.246
 4797SOL     OW16164  13.633  11.665   0.766
 4797SOL    HW116165  13.608  11.744   0.719
 4797SOL    HW216166  13.550  11.629   0.797
 4798SOL     OW16167   0.166   5.350  11.177
 4798SOL    HW116168   0.097   5.296  11.216
 4798SOL    HW216169   0.138   5.440  11.191
 4799SOL     OW16170  12.696   5.548   9.029
 4799SOL    HW116171  12.603   5.542   9.051
 4799SOL    HW216172  12.710   5.641   9.010
 4800SOL     OW16173   6.955  10.015  13.037
 4800SOL    HW116174   6.972   9.993  13.129
 4800SOL    HW216175   6.922  10.104  13.040
 4801SOL     OW16176   1.858  14.018   5.547
 4801SOL    HW116177   1.812  14.033   5.629
 4801SOL    HW216178   1.947  14.048   5.564
 4802SOL     OW16179  12.849  12.161  13.111
 4802SOL    HW116180  12.826  12.252  13.091
 4802SOL    HW216181  12.943  12.157  13.098
 4803SOL     OW16182   2.239   7.290   1.490
 4803SOL    HW116183   2.263   7.359   1.428
 4803SOL    HW216184   2.317   7.278   1.544
 4804SOL     OW16185   2.843   0.617   5.405
 4804SOL    HW116186   2.918   0.577   5.361
 4804SOL    HW216187   2.875   0.636   5.493
 4805SOL     OW16188   9.231  13.312   5.842
 4805SOL    HW116189   9.216  13.218   5.851
 4805SOL    HW216190   9.245  13.342   5.932
 4806SOL     OW16191   7.122   0.002   6.244
 4806SOL    HW116192   7.198   0.023   6.189
 4806SOL    HW216193   7.118  14.784   6.242
 4807SOL     OW16194   1.760   2.800   9.210
 4807SOL    HW116195   1.716   2.716   9.222
 4807SOL    HW216196   1.813   2.811   9.289
 4808SOL     OW16197   8.485   0.024   4.192
 4808SOL    HW116198   8.469  14.832   4.255
 4808SOL    HW216199   8.408   0.080   4.198
 4809SOL     OW16200  10.743   2.856   4.996
 4809SOL    HW116201  10.677   2.922   5.019
 4809SOL    HW216202  10.759   2.870   4.903
 4810SOL     OW16203  10.400  11.682   7.137
 4810SOL    HW116204  10.334  11.680   7.067
 4810SOL    HW216205  10.392  11.769   7.176
 4811SOL     OW16206   5.910   6.675   2.854
 4811SOL    HW116207   5.962   6.628   2.919
 4811SOL    HW216208   5.975   6.708   2.791
 4812SOL     OW16209  11.818   1.284   2.996
 4812SOL    HW116210  11.864   1.265   3.077
 4812SOL    HW216211  11.728   1.256   3.012
 4813SOL     OW16212   8.563   0.434   7.418
 4813SOL    HW116213   8.635   0.495   7.432
 4813SOL    HW216214   8.601   0.347   7.433
 4814SOL     OW16215  11.935  12.275  12.058
 4814SOL    HW116216  11.902  12.364  12.042
 4814SOL    HW216217  11.871  12.238  12.120
 4815SOL     OW16218   4.369   3.518   0.814
 4815SOL    HW116219   4.333   3.550   0.732
 4815SOL    HW216220   4.318   3.562   0.882
 4816SOL     OW16221   3.542   1.832   6.578
 4816SOL    HW116222   3.546   1.863   6.488
 4816SOL    HW216223   3.515   1.909   6.629
 4817SOL     OW16224  10.968   4.882   5.893
 4817SOL    HW116225  10.979   4.794   5.857
 4817SOL    HW216226  11.058   4.914   5.904
 4818SOL     OW16227   2.680   3.033   0.643
 4818SOL    HW116228   2.606   3.093   0.634
 4818SOL    HW216229   2.662   2.963   0.580
 4819SOL     OW16230   2.936  14.341   0.445
 4819SOL    HW116231   2.965  14.432   0.442
 4819SOL    HW216232   2.841  14.345   0.442
 4820SOL     OW16233  11.418   5.307   6.948
 4820SOL    HW116234  11.387   5.376   6.891
 4820SOL    HW216235  11.513   5.320   6.952
 4821SOL     OW16236   9.024   1.427   8.393
 4821SOL    HW116237   9.032   1.512   8.349
 4821SOL    HW216238   8.985   1.448   8.478
 4822SOL     OW16239   3.202   2.126   1.620
 4822SOL    HW116240   3.176   2.141   1.711
 4822SOL    HW216241   3.243   2.039   1.620
 4823SOL     OW16242   8.246   2.111   3.239
 4823SOL    HW116243   8.198   2.090   3.319
 4823SOL    HW216244   8.278   2.200   3.253
 4824SOL     OW16245   1.824   8.334  12.072
 4824SOL    HW116246   1.812   8.241  12.049
 4824SOL    HW216247   1.802   8.381  11.992
 4825SOL     OW16248   2.301   6.472   7.620
 4825SOL    HW116249   2.217   6.438   7.588
 4825SOL    HW216250   2.296   6.461   7.715
 4826SOL     OW16251   1.287   9.835   6.220
 4826SOL    HW116252   1.269   9.743   6.202
 4826SOL    HW216253   1.298   9.838   6.315
 4827SOL     OW16254  14.218  11.984   7.764
 4827SOL    HW116255  14.189  11.894   7.781
 4827SOL    HW216256  14.199  12.031   7.844
 4828SOL     OW16257   4.915   2.520   2.527
 4828SOL    HW116258   4.863   2.459   2.474
 4828SOL    HW216259   4.852   2.561   2.586
 4829SOL     OW16260   3.184   3.370   2.390
 4829SOL    HW116261   3.105   3.423   2.403
 4829SOL    HW216262   3.178   3.301   2.456
 4830SOL     OW16263   9.458  13.991   3.538
 4830SOL    HW116264   9.391  13.923   3.547
 4830SOL    HW216265   9.443  14.028   3.452
 4831SOL     OW16266   3.937  14.492   5.831
 4831SOL    HW116267   3.931  14.402   5.798
 4831SOL    HW216268   4.028  14.501   5.859
 4832SOL     OW16269   6.307   1.002  11.991
 4832SOL    HW116270   6.399   0.992  11.964
 4832SOL    HW216271   6.272   0.913  11.990
 4833SOL     OW16272   3.619  13.322   3.010
 4833SOL    HW116273   3.525  13.320   3.028
 4833SOL    HW216274   3.658  13.366   3.085
 4834SOL     OW16275   8.070   2.075   7.585
 4834SOL    HW116276   8.115   2.090   7.502
 4834SOL    HW216277   7.991   2.128   7.579
 4835SOL     OW16278   5.392   9.483  14.057
 4835SOL    HW116279   5.442   9.505  13.978
 4835SOL    HW216280   5.301   9.492  14.030
 4836SOL     OW16281  13.957   4.938   3.749
 4836SOL    HW116282  13.914   4.853   3.747
 4836SOL    HW216283  13.914   4.989   3.680
 4837SOL     OW16284   3.212   9.997   1.256
 4837SOL    HW116285   3.287  10.019   1.309
 4837SOL    HW216286   3.203   9.902   1.266
 4838SOL     OW16287   2.713   2.647   2.255
 4838SOL    HW116288   2.752   2.561   2.273
 4838SOL    HW216289   2.646   2.630   2.189
 4839SOL     OW16290   1.553  14.152   6.227
 4839SOL    HW116291   1.481  14.111   6.275
 4839SOL    HW216292   1.523  14.242   6.210
 4840SOL     OW16293   7.745  13.800   1.794
 4840SOL    HW116294   7.796  13.857   1.852
 4840SOL    HW216295   7.746  13.845   1.710
 4841SOL     OW16296   6.538   6.661   9.754
 4841SOL    HW116297   6.628   6.632   9.769
 4841SOL    HW216298   6.528   6.661   9.659
 4842SOL     OW16299   3.844   5.460   3.386
 4842SOL    HW116300   3.779   5.417   3.330
 4842SOL    HW216301   3.926   5.456   3.336
 4843SOL     OW16302   8.852   4.594   8.555
 4843SOL    HW116303   8.894   4.528   8.499
 4843SOL    HW216304   8.864   4.677   8.509
 4844SOL     OW16305   2.184   7.034  14.385
 4844SOL    HW116306   2.239   7.009  14.459
 4844SOL    HW216307   2.099   6.993  14.404
 4845SOL     OW16308  10.864   5.348  12.550
 4845SOL    HW116309  10.802   5.274  12.546
 4845SOL    HW216310  10.950   5.307  12.543
 4846SOL     OW16311   4.865  14.003   4.583
 4846SOL    HW116312   4.919  13.944   4.529
 4846SOL    HW216313   4.927  14.041   4.645
 4847SOL     OW16314  12.854  11.716  12.562
 4847SOL    HW116315  12.920  11.659  12.602
 4847SOL    HW216316  12.833  11.673  12.479
 4848SOL     OW16317   0.711  13.826  12.093
 4848SOL    HW116318   0.711  13.748  12.148
 4848SOL    HW216319   0.799  13.828  12.055
 4849SOL     OW16320  13.925   1.396   0.976
 4849SOL    HW116321  13.910   1.309   0.940
 4849SOL    HW216322  14.018   1.397   0.999
 4850SOL     OW16323  10.874   7.451   1.743
 4850SOL    HW116324  10.890   7.537   1.783
 4850SOL    HW216325  10.930   7.450   1.665
 4851SOL     OW16326   4.438  12.942   9.440
 4851SOL    HW116327   4.362  12.889   9.415
 4851SOL    HW216328   4.466  12.908   9.524
 4852SOL     OW16329   2.259  14.526   4.291
 4852SOL    HW116330   2.247  14.440   4.250
 4852SOL    HW216331   2.243  14.510   4.384
 4853SOL     OW16332  13.905  10.746  12.919
 4853SOL    HW116333  13.925  10.680  12.852
 4853SOL    HW216334  13.951  10.825  12.889
 4854SOL     OW16335   2.754  10.490   9.822
 4854SOL    HW116336   2.825  10.487   9.885
 4854SOL    HW216337   2.719  10.579   9.828
 4855SOL     OW16338   3.088   5.657  10.078
 4855SOL    HW116339   3.037   5.597  10.132
 4855SOL    HW216340   3.162   5.604  10.047
 4856SOL     OW16341   0.164   6.628   5.835
 4856SOL    HW116342   0.078   6.588   5.843
 4856SOL    HW216343   0.221   6.557   5.805
 4857SOL     OW16344  12.409   1.328   0.384
 4857SOL    HW116345  12.433   1.297   0.297
 4857SOL    HW216346  12.324   1.370   0.373
 4858SOL     OW16347   9.672  10.269  11.754
 4858SOL    HW116348   9.725  10.323  11.813
 4858SOL    HW216349   9.717  10.184  11.754
 4859SOL     OW16350   9.406  12.545   0.703
 4859SOL    HW116351   9.459  12.558   0.624
 4859SOL    HW216352   9.470  12.536   0.774
 4860SOL     OW16353   7.196   1.763   1.390
 4860SOL    HW116354   7.142   1.831   1.349
 4860SOL    HW216355   7.286   1.787   1.368
 4861SOL     OW16356   8.292   6.750   2.254
 4861SOL    HW116357   8.330   6.820   2.201
 4861SOL    HW216358   8.353   6.677   2.245
 4862SOL     OW16359  12.978   1.017  11.582
 4862SOL    HW116360  13.040   1.087  11.561
 4862SOL    HW216361  12.945   0.988  11.497
 4863SOL     OW16362   4.266  12.528   6.588
 4863SOL    HW116363   4.218  12.452   6.622
 4863SOL    HW216364   4.274  12.512   6.494
 4864SOL     OW16365   4.461  10.537   5.699
 4864SOL    HW116366   4.419  10.612   5.657
 4864SOL    HW216367   4.550  10.568   5.718
 4865SOL     OW16368   4.380  14.223   2.766
 4865SOL    HW116369   4.316  14.186   2.827
 4865SOL    HW216370   4.391  14.155   2.699
 4866SOL     OW16371   1.435  13.038   6.911
 4866SOL    HW116372   1.353  13.074   6.878
 4866SOL    HW216373   1.496  13.046   6.838
 4867SOL     OW16374   3.291   1.771   9.028
 4867SOL    HW116375   3.383   1.767   9.003
 4867SOL    HW216376   3.245   1.719   8.962
 4868SOL     OW16377  11.712   6.266  11.239
 4868SOL    HW116378  11.787   6.240  11.185
 4868SOL    HW216379  11.752   6.302  11.319
 4869SOL     OW16380   4.294   5.315   3.772
 4869SOL    HW116381   4.288   5.385   3.707
 4869SOL    HW216382   4.235   5.247   3.741
 4870SOL     OW16383   9.387   4.335   8.197
 4870SOL    HW116384   9.367   4.419   8.156
 4870SOL    HW216385   9.357   4.344   8.287
 4871SOL     OW16386   0.770   2.023  10.655
 4871SOL    HW116387   0.695   1.968  10.678
 4871SOL    HW216388   0.789   2.072  10.735
 4872SOL     OW16389  11.236  11.376   9.417
 4872SOL    HW116390  11.308  11.313   9.412
 4872SOL    HW216391  11.238  11.422   9.333
 4873SOL     OW16392  12.366   8.476  13.920
 4873SOL    HW116393  12.397   8.501  14.007
 4873SOL    HW216394  12.280   8.436  13.936
 4874SOL     OW16395  13.406   0.244   4.954
 4874SOL    HW116396  13.486   0.198   4.928
 4874SOL    HW216397  13.434   0.298   5.029
 4875SOL     OW16398   0.732   9.301   0.081
 4875SOL    HW116399   0.764   9.221   0.121
 4875SOL    HW216400   0.798   9.323   0.015
 4876SOL     OW16401  13.136   4.170   1.154
 4876SOL    HW116402  13.137   4.098   1.217
 4876SOL    HW216403  13.226   4.175   1.122
 4877SOL     OW16404   6.835   0.426   6.056
 4877SOL    HW116405   6.873   0.376   5.983
 4877SOL    HW216406   6.901   0.419   6.126
 4878SOL     OW16407   4.420   7.817  12.437
 4878SOL    HW116408   4.511   7.834  12.461
 4878SOL    HW216409   4.370   7.834  12.518
 4879SOL     OW16410   3.075   1.858   7.982
 4879SOL    HW116411   3.024   1.836   7.904
 4879SOL    HW216412   3.041   1.944   8.009
 4880SOL     OW16413   8.277   6.226   1.488
 4880SOL    HW116414   8.274   6.299   1.551
 4880SOL    HW216415   8.201   6.173   1.509
 4881SOL     OW16416  14.802   1.760   5.098
 4881SOL    HW116417  14.724   1.762   5.155
 4881SOL    HW216418  14.875   1.743   5.157
 4882SOL     OW16419  10.768  14.824  10.834
 4882SOL    HW116420  10.838  14.808  10.898
 4882SOL    HW216421  10.730   0.029  10.861
 4883SOL     OW16422   0.637   3.969  11.752
 4883SOL    HW116423   0.679   3.892  11.790
 4883SOL    HW216424   0.557   3.935  11.711
 4884SOL     OW16425   8.720   1.880   5.049
 4884SOL    HW116426   8.658   1.820   5.005
 4884SOL    HW216427   8.744   1.942   4.981
 4885SOL     OW16428   1.271   7.541  11.304
 4885SOL    HW116429   1.221   7.551  11.385
 4885SOL    HW216430   1.346   7.599  11.315
 4886SOL     OW16431   0.041  14.622   5.856
 4886SOL    HW116432  14.836  14.606   5.811
 4886SOL    HW216433   0.106  14.630   5.786
 4887SOL     OW16434   4.814   0.658  13.371
 4887SOL    HW116435   4.903   0.690  13.389
 4887SOL    HW216436   4.823   0.610  13.289
 4888SOL     OW16437   0.433  13.157  13.505
 4888SOL    HW116438   0.348  13.160  13.462
 4888SOL    HW216439   0.496  13.178  13.436
 4889SOL     OW16440  12.146   2.664  13.138
 4889SOL    HW116441  12.156   2.612  13.058
 4889SOL    HW216442  12.115   2.602  13.204
 4890SOL     OW16443  12.424   1.430   2.799
 4890SOL    HW116444  12.412   1.483   2.878
 4890SOL    HW216445  12.363   1.466   2.736
 4891SOL     OW16446   5.151   3.041   6.343
 4891SOL    HW116447   5.137   2.946   6.338
 4891SOL    HW216448   5.082   3.072   6.402
 4892SOL     OW16449   7.966  14.279   1.153
 4892SOL    HW116450   7.972  14.220   1.078
 4892SOL    HW216451   7.873  14.284   1.172
 4893SOL     OW16452   2.705  11.542   8.979
 4893SOL    HW116453   2.672  11.503   9.060
 4893SOL    HW216454   2.758  11.616   9.008
 4894SOL     OW16455   5.938  10.271  13.588
 4894SOL    HW116456   5.990  10.205  13.542
 4894SOL    HW216457   5.901  10.325  13.519
 4895SOL     OW16458   3.417  10.471   2.032
 4895SOL    HW116459   3.363  10.405   1.989
 4895SOL    HW216460   3.361  10.507   2.101
 4896SOL     OW16461   1.518   7.625   0.269
 4896SOL    HW116462   1.463   7.546   0.267
 4896SOL    HW216463   1.605   7.593   0.294
 4897SOL     OW16464   4.130   0.563   3.077
 4897SOL    HW116465   4.117   0.598   2.989
 4897SOL    HW216466   4.213   0.601   3.106
 4898SOL     OW16467   6.958   2.498   1.562
 4898SOL    HW116468   6.975   2.576   1.509
 4898SOL    HW216469   7.044   2.474   1.597
 4899SOL     OW16470   2.608  10.608   7.123
 4899SOL    HW116471   2.666  10.540   7.088
 4899SOL    HW216472   2.637  10.688   7.080
 4900SOL     OW16473  13.268  11.507  11.933
 4900SOL    HW116474  13.220  11.589  11.929
 4900SOL    HW216475  13.294  11.489  11.842
 4901SOL     OW16476  10.020  13.015   1.399
 4901SOL    HW116477  10.029  13.012   1.303
 4901SOL    HW216478   9.926  13.021   1.414
 4902SOL     OW16479   3.131  10.374   6.887
 4902SOL    HW116480   3.151  10.462   6.856
 4902SOL    HW216481   3.115  10.385   6.981
 4903SOL     OW16482   0.531   0.682  12.474
 4903SOL    HW116483   0.464   0.657  12.410
 4903SOL    HW216484   0.498   0.649  12.557
 4904SOL     OW16485  10.089  13.127  14.841
 4904SOL    HW116486  10.090  13.093   0.052
 4904SOL    HW216487  10.181  13.130  14.815
 4905SOL     OW16488  13.159  12.712   0.729
 4905SOL    HW116489  13.237  12.694   0.677
 4905SOL    HW216490  13.089  12.663   0.686
 4906SOL     OW16491   4.664   3.297  13.749
 4906SOL    HW116492   4.574   3.299  13.718
 4906SOL    HW216493   4.659   3.255  13.834
 4907SOL     OW16494   2.864   0.097   2.195
 4907SOL    HW116495   2.929   0.090   2.126
 4907SOL    HW216496   2.784   0.125   2.150
 4908SOL     OW16497  10.734   5.225  12.819
 4908SOL    HW116498  10.672   5.261  12.755
 4908SOL    HW216499  10.794   5.297  12.836
 4909SOL     OW16500   3.528   9.749  11.274
 4909SOL    HW116501   3.593   9.783  11.212
 4909SOL    HW216502   3.444   9.782  11.242
 4910SOL     OW16503   4.391   5.869   8.550
 4910SOL    HW116504   4.303   5.902   8.530
 4910SOL    HW216505   4.382   5.774   8.548
 4911SOL     OW16506   3.128   8.983   0.879
 4911SOL    HW116507   3.197   9.049   0.888
 4911SOL    HW216508   3.166   8.903   0.916
 4912SOL     OW16509   6.295  12.274   6.839
 4912SOL    HW116510   6.341  12.191   6.827
 4912SOL    HW216511   6.239  12.260   6.915
 4913SOL     OW16512  14.815   6.481  12.114
 4913SOL    HW116513  14.823   6.386  12.123
 4913SOL    HW216514  14.763   6.508  12.190
 4914SOL     OW16515   5.594   4.305  11.383
 4914SOL    HW116516   5.627   4.395  11.382
 4914SOL    HW216517   5.647   4.260  11.450
 4915SOL     OW16518   3.751   1.431   1.934
 4915SOL    HW116519   3.669   1.382   1.935
 4915SOL    HW216520   3.790   1.414   2.020
 4916SOL     OW16521   8.614   9.430  13.090
 4916SOL    HW116522   8.564   9.509  13.068
 4916SOL    HW216523   8.565   9.389  13.160
 4917SOL     OW16524   6.019   0.694  13.133
 4917SOL    HW116525   6.104   0.693  13.088
 4917SOL    HW216526   5.985   0.782  13.117
 4918SOL     OW16527  10.464   4.596  12.018
 4918SOL    HW116528  10.408   4.563  11.948
 4918SOL    HW216529  10.412   4.665  12.060
 4919SOL     OW16530  12.625   3.028   6.247
 4919SOL    HW116531  12.565   3.081   6.299
 4919SOL    HW216532  12.701   3.016   6.303
 4920SOL     OW16533   9.012  13.790   7.091
 4920SOL    HW116534   9.055  13.862   7.135
 4920SOL    HW216535   9.068  13.770   7.016
 4921SOL     OW16536   9.922   0.555   9.778
 4921SOL    HW116537   9.942   0.464   9.760
 4921SOL    HW216538   9.987   0.581   9.844
 4922SOL     OW16539  10.339   0.388   1.212
 4922SOL    HW116540  10.422   0.407   1.169
 4922SOL    HW216541  10.364   0.336   1.289
 4923SOL     OW16542   7.533  12.285  11.920
 4923SOL    HW116543   7.565  12.236  11.844
 4923SOL    HW216544   7.604  12.345  11.941
 4924SOL     OW16545   4.009   8.415  13.445
 4924SOL    HW116546   3.938   8.384  13.388
 4924SOL    HW216547   4.032   8.339  13.498
 4925SOL     OW16548   8.245  11.608   8.047
 4925SOL    HW116549   8.218  11.528   8.093
 4925SOL    HW216550   8.340  11.608   8.053
 4926SOL     OW16551  13.002  13.306  12.361
 4926SOL    HW116552  12.986  13.394  12.394
 4926SOL    HW216553  12.915  13.271  12.343
 4927SOL     OW16554   7.193  10.711  11.286
 4927SOL    HW116555   7.154  10.642  11.339
 4927SOL    HW216556   7.126  10.779  11.282
 4928SOL     OW16557   1.796   3.237   9.632
 4928SOL    HW116558   1.742   3.284   9.695
 4928SOL    HW216559   1.831   3.163   9.681
 4929SOL     OW16560   1.620   1.151  12.230
 4929SOL    HW116561   1.602   1.062  12.258
 4929SOL    HW216562   1.564   1.206  12.285
 4930SOL     OW16563   2.891  14.059   8.422
 4930SOL    HW116564   2.907  13.978   8.374
 4930SOL    HW216565   2.874  14.124   8.353
 4931SOL     OW16566   5.747   1.623   2.904
 4931SOL    HW116567   5.672   1.567   2.883
 4931SOL    HW216568   5.736   1.700   2.848
 4932SOL     OW16569  14.487   0.616   2.334
 4932SOL    HW116570  14.419   0.631   2.399
 4932SOL    HW216571  14.502   0.522   2.336
 4933SOL     OW16572   7.641  13.717   3.871
 4933SOL    HW116573   7.704  13.712   3.799
 4933SOL    HW216574   7.657  13.637   3.922
 4934SOL     OW16575  14.576   9.841   4.731
 4934SOL    HW116576  14.546   9.782   4.801
 4934SOL    HW216577  14.537   9.805   4.651
 4935SOL     OW16578   9.710   3.067   9.598
 4935SOL    HW116579   9.788   3.047   9.548
 4935SOL    HW216580   9.681   3.152   9.565
 4936SOL     OW16581   5.875   7.931   8.476
 4936SOL    HW116582   5.959   7.887   8.491
 4936SOL    HW216583   5.854   7.971   8.561
 4937SOL     OW16584   1.295   0.610   0.648
 4937SOL    HW116585   1.379   0.586   0.609
 4937SOL    HW216586   1.318   0.656   0.728
 4938SOL     OW16587   9.690   0.926   3.430
 4938SOL    HW116588   9.743   0.994   3.473
 4938SOL    HW216589   9.636   0.889   3.500
 4939SOL     OW16590  14.615   7.358   6.245
 4939SOL    HW116591  14.524   7.337   6.267
 4939SOL    HW216592  14.661   7.274   6.252
 4940SOL     OW16593   7.552   9.632   8.136
 4940SOL    HW116594   7.504   9.711   8.159
 4940SOL    HW216595   7.538   9.622   8.042
 4941SOL     OW16596   4.408   2.146  13.580
 4941SOL    HW116597   4.336   2.180  13.526
 4941SOL    HW216598   4.430   2.062  13.541
 4942SOL     OW16599   4.282   2.510   9.578
 4942SOL    HW116600   4.323   2.428   9.607
 4942SOL    HW216601   4.299   2.515   9.485
 4943SOL     OW16602   7.138  10.147   2.512
 4943SOL    HW116603   7.072  10.211   2.537
 4943SOL    HW216604   7.161  10.102   2.594
 4944SOL     OW16605  12.683   7.663   5.413
 4944SOL    HW116606  12.770   7.702   5.406
 4944SOL    HW216607  12.624   7.729   5.379
 4945SOL     OW16608   6.963   7.927   8.316
 4945SOL    HW116609   7.037   7.868   8.302
 4945SOL    HW216610   6.890   7.886   8.269
 4946SOL     OW16611  11.795   2.870  10.259
 4946SOL    HW116612  11.837   2.860  10.173
 4946SOL    HW216613  11.848   2.816  10.318
 4947SOL     OW16614   9.705   9.314   6.744
 4947SOL    HW116615   9.670   9.269   6.821
 4947SOL    HW216616   9.732   9.243   6.686
 4948SOL     OW16617   2.409   4.963  13.470
 4948SOL    HW116618   2.499   4.956  13.501
 4948SOL    HW216619   2.357   4.976  13.549
 4949SOL     OW16620   9.337   3.852   0.798
 4949SOL    HW116621   9.323   3.946   0.796
 4949SOL    HW216622   9.266   3.816   0.744
 4950SOL     OW16623  13.719   6.959  13.899
 4950SOL    HW116624  13.734   7.037  13.845
 4950SOL    HW216625  13.715   6.992  13.989
 4951SOL     OW16626  14.643   6.908   6.660
 4951SOL    HW116627  14.599   6.858   6.729
 4951SOL    HW216628  14.574   6.962   6.622
 4952SOL     OW16629  13.508   2.511  14.352
 4952SOL    HW116630  13.522   2.602  14.378
 4952SOL    HW216631  13.520   2.461  14.434
 4953SOL     OW16632  12.137   1.989  11.922
 4953SOL    HW116633  12.120   1.901  11.953
 4953SOL    HW216634  12.221   1.983  11.877
 4954SOL     OW16635   7.476   3.234   0.249
 4954SOL    HW116636   7.414   3.275   0.188
 4954SOL    HW216637   7.470   3.141   0.231
 4955SOL     OW16638  12.345   2.857   8.906
 4955SOL    HW116639  12.363   2.839   8.814
 4955SOL    HW216640  12.322   2.772   8.943
 4956SOL     OW16641   5.762   0.511   5.281
 4956SOL    HW116642   5.807   0.479   5.203
 4956SOL    HW216643   5.788   0.451   5.351
 4957SOL     OW16644  12.218   8.365   3.049
 4957SOL    HW116645  12.224   8.273   3.021
 4957SOL    HW216646  12.124   8.380   3.060
 4958SOL     OW16647   4.114   8.044  10.562
 4958SOL    HW116648   4.139   8.023  10.652
 4958SOL    HW216649   4.196   8.066  10.518
 4959SOL     OW16650   4.606   6.229   4.741
 4959SOL    HW116651   4.553   6.166   4.691
 4959SOL    HW216652   4.542   6.292   4.774
 4960SOL     OW16653   3.708   8.979   2.307
 4960SOL    HW116654   3.784   8.979   2.249
 4960SOL    HW216655   3.669   8.892   2.295
 4961SOL     OW16656   1.400   7.650   2.222
 4961SOL    HW116657   1.466   7.703   2.266
 4961SOL    HW216658   1.381   7.696   2.141
 4962SOL     OW16659   8.036   1.466  10.060
 4962SOL    HW116660   8.082   1.389  10.093
 4962SOL    HW216661   8.076   1.540  10.107
 4963SOL     OW16662  13.840  12.010   6.539
 4963SOL    HW116663  13.889  11.928   6.535
 4963SOL    HW216664  13.874  12.054   6.617
 4964SOL     OW16665  10.794   4.943   3.248
 4964SOL    HW116666  10.818   4.936   3.340
 4964SOL    HW216667  10.707   4.982   3.248
 4965SOL     OW16668  13.630   7.146  11.128
 4965SOL    HW116669  13.721   7.128  11.151
 4965SOL    HW216670  13.631   7.154  11.032
 4966SOL     OW16671   1.016  13.240   1.079
 4966SOL    HW116672   1.029  13.196   0.995
 4966SOL    HW216673   0.955  13.311   1.060
 4967SOL     OW16674   6.780   2.157  13.383
 4967SOL    HW116675   6.841   2.102  13.432
 4967SOL    HW216676   6.824   2.174  13.300
 4968SOL     OW16677  14.442  13.382  10.062
 4968SOL    HW116678  14.528  13.420  10.077
 4968SOL    HW216679  14.412  13.355  10.149
 4969SOL     OW16680   3.559   1.108  13.366
 4969SOL    HW116681   3.591   1.162  13.294
 4969SOL    HW216682   3.638   1.079  13.411
 4970SOL     OW16683   1.303   7.134   2.793
 4970SOL    HW116684   1.374   7.196   2.776
 4970SOL    HW216685   1.225   7.188   2.798
 4971SOL     OW16686  12.523   3.664  14.499
 4971SOL    HW116687  12.475   3.664  14.416
 4971SOL    HW216688  12.460   3.632  14.564
 4972SOL     OW16689  14.438   7.236  11.381
 4972SOL    HW116690  14.357   7.205  11.422
 4972SOL    HW216691  14.423   7.228  11.287
 4973SOL     OW16692   7.165   3.260   9.803
 4973SOL    HW116693   7.137   3.227   9.718
 4973SOL    HW216694   7.093   3.316   9.832
 4974SOL     OW16695   1.339  13.099   9.690
 4974SOL    HW116696   1.433  13.102   9.674
 4974SOL    HW216697   1.325  13.157   9.765
 4975SOL     OW16698  14.386   4.930  11.947
 4975SOL    HW116699  14.474   4.968  11.952
 4975SOL    HW216700  14.393   4.849  11.997
 4976SOL     OW16701   0.638  12.060   2.210
 4976SOL    HW116702   0.680  12.051   2.296
 4976SOL    HW216703   0.706  12.098   2.154
 4977SOL     OW16704   4.281   9.510  11.998
 4977SOL    HW116705   4.330   9.592  12.010
 4977SOL    HW216706   4.231   9.500  12.079
 4978SOL     OW16707   8.086   9.352  14.101
 4978SOL    HW116708   8.143   9.334  14.026
 4978SOL    HW216709   8.075   9.268  14.143
 4979SOL     OW16710   4.486   8.230   1.535
 4979SOL    HW116711   4.427   8.202   1.465
 4979SOL    HW216712   4.537   8.152   1.556
 4980SOL     OW16713   3.720   1.728   2.292
 4980SOL    HW116714   3.645   1.681   2.255
 4980SOL    HW216715   3.791   1.714   2.230
 4981SOL     OW16716  13.102   8.963   0.098
 4981SOL    HW116717  13.090   8.880   0.052
 4981SOL    HW216718  13.040   9.023   0.056
 4982SOL     OW16719   8.678   6.079  13.035
 4982SOL    HW116720   8.703   6.111  12.948
 4982SOL    HW216721   8.598   6.127  13.057
 4983SOL     OW16722  14.319  12.935   2.491
 4983SOL    HW116723  14.391  12.873   2.507
 4983SOL    HW216724  14.241  12.880   2.486
 4984SOL     OW16725   4.682   4.937  13.923
 4984SOL    HW116726   4.711   4.847  13.910
 4984SOL    HW216727   4.654   4.966  13.837
 4985SOL     OW16728   0.387  13.650  12.085
 4985SOL    HW116729   0.429  13.722  12.038
 4985SOL    HW216730   0.309  13.630  12.034
 4986SOL     OW16731  11.471  11.385  10.933
 4986SOL    HW116732  11.445  11.293  10.925
 4986SOL    HW216733  11.483  11.414  10.842
 4987SOL     OW16734   8.071  12.210   4.321
 4987SOL    HW116735   8.099  12.237   4.409
 4987SOL    HW216736   8.070  12.291   4.271
 4988SOL     OW16737   9.131  11.367   0.073
 4988SOL    HW116738   9.106  11.277   0.053
 4988SOL    HW216739   9.176  11.361   0.158
 4989SOL     OW16740   3.485   9.369   8.942
 4989SOL    HW116741   3.529   9.299   8.990
 4989SOL    HW216742   3.532   9.448   8.966
 4990SOL     OW16743  10.611   8.525   9.021
 4990SOL    HW116744  10.563   8.553   9.099
 4990SOL    HW216745  10.697   8.499   9.054
 4991SOL     OW16746   0.549   9.907   5.749
 4991SOL    HW116747   0.460   9.930   5.722
 4991SOL    HW216748   0.604   9.975   5.710
 4992SOL     OW16749   9.909   1.974  11.239
 4992SOL    HW116750   9.881   2.059  11.271
 4992SOL    HW216751  10.002   1.985  11.218
 4993SOL     OW16752   0.882   2.193   6.081
 4993SOL    HW116753   0.790   2.219   6.090
 4993SOL    HW216754   0.930   2.275   6.076
 4994SOL     OW16755   0.695   6.017   8.646
 4994SOL    HW116756   0.757   5.980   8.709
 4994SOL    HW216757   0.721   6.109   8.639
 4995SOL     OW16758   4.384  12.168  14.748
 4995SOL    HW116759   4.413  12.103  14.684
 4995SOL    HW216760   4.324  12.120  14.805
 4996SOL     OW16761   8.206   5.570   6.033
 4996SOL    HW116762   8.187   5.562   6.126
 4996SOL    HW216763   8.200   5.480   5.999
 4997SOL     OW16764   0.057   5.528   0.828
 4997SOL    HW116765  14.860   5.476   0.859
 4997SOL    HW216766   0.126   5.464   0.812
 4998SOL     OW16767  10.746   4.275   2.958
 4998SOL    HW116768  10.694   4.344   2.998
 4998SOL    HW216769  10.830   4.278   3.004
 4999SOL     OW16770   0.217   6.308   0.028
 4999SOL    HW116771   0.141   6.366   0.031
 4999SOL    HW216772   0.198   6.241   0.094
 5000SOL     OW16773  10.515   7.667   4.930
 5000SOL    HW116774  10.472   7.597   4.881
 5000SOL    HW216775  10.608   7.657   4.909
 5001SOL     OW16776   2.837  11.710   2.976
 5001SOL    HW116777   2.857  11.670   3.061
 5001SOL    HW216778   2.911  11.769   2.961
 5002SOL     OW16779   6.525   4.753   4.765
 5002SOL    HW116780   6.447   4.806   4.747
 5002SOL    HW216781   6.576   4.805   4.826
 5003SOL     OW16782   3.351   6.357   6.744
 5003SOL    HW116783   3.339   6.380   6.652
 5003SOL    HW216784   3.290   6.285   6.760
 5004SOL     OW16785   1.282   4.033  13.786
 5004SOL    HW116786   1.353   3.969  13.784
 5004SOL    HW216787   1.202   3.980  13.790
 5005SOL     OW16788   3.234   3.065   8.041
 5005SOL    HW116789   3.298   2.996   8.055
 5005SOL    HW216790   3.275   3.143   8.079
 5006SOL     OW16791   3.025  11.586  11.678
 5006SOL    HW116792   3.120  11.580  11.673
 5006SOL    HW216793   3.008  11.679  11.692
 5007SOL     OW16794  13.836  11.190   1.274
 5007SOL    HW116795  13.822  11.140   1.355
 5007SOL    HW216796  13.929  11.212   1.275
 5008SOL     OW16797  14.703  11.297   4.002
 5008SOL    HW116798  14.710  11.201   3.997
 5008SOL    HW216799  14.610  11.313   4.017
 5009SOL     OW16800   8.321   2.968  11.843
 5009SOL    HW116801   8.356   2.897  11.788
 5009SOL    HW216802   8.237   2.990  11.803
 5010SOL     OW16803   7.496  12.299  11.259
 5010SOL    HW116804   7.410  12.339  11.245
 5010SOL    HW216805   7.505  12.296  11.354
 5011SOL     OW16806  13.682   9.423  13.474
 5011SOL    HW116807  13.759   9.464  13.434
 5011SOL    HW216808  13.607   9.464  13.431
 5012SOL     OW16809   0.659   7.743   0.058
 5012SOL    HW116810   0.675   7.665   0.005
 5012SOL    HW216811   0.660   7.815  14.873
 5013SOL     OW16812   1.923   1.398   2.412
 5013SOL    HW116813   1.984   1.413   2.484
 5013SOL    HW216814   1.975   1.354   2.345
 5014SOL     OW16815   1.664  13.099  11.832
 5014SOL    HW116816   1.634  13.190  11.836
 5014SOL    HW216817   1.661  13.077  11.739
 5015SOL     OW16818   7.908  12.514   3.961
 5015SOL    HW116819   7.849  12.445   3.991
 5015SOL    HW216820   7.990  12.497   4.007
 5016SOL     OW16821   4.455  14.648   4.728
 5016SOL    HW116822   4.520  14.646   4.798
 5016SOL    HW216823   4.475  14.728   4.679
 5017SOL     OW16824   2.064   8.003   6.578
 5017SOL    HW116825   2.114   8.072   6.533
 5017SOL    HW216826   2.016   7.959   6.508
 5018SOL     OW16827   6.075   0.619   7.099
 5018SOL    HW116828   6.165   0.645   7.122
 5018SOL    HW216829   6.058   0.661   7.015
 5019SOL     OW16830   6.938   5.861   0.651
 5019SOL    HW116831   7.011   5.822   0.603
 5019SOL    HW216832   6.978   5.896   0.731
 5020SOL     OW16833   7.593  11.153   0.438
 5020SOL    HW116834   7.531  11.085   0.413
 5020SOL    HW216835   7.538  11.221   0.478
 5021SOL     OW16836   9.149  10.392   7.983
 5021SOL    HW116837   9.146  10.458   7.914
 5021SOL    HW216838   9.193  10.317   7.941
 5022SOL     OW16839  12.056   1.330   0.728
 5022SOL    HW116840  12.151   1.321   0.736
 5022SOL    HW216841  12.043   1.409   0.677
 5023SOL     OW16842   6.537   9.511   3.218
 5023SOL    HW116843   6.453   9.470   3.237
 5023SOL    HW216844   6.569   9.542   3.303
 5024SOL     OW16845   6.767   3.742  14.461
 5024SOL    HW116846   6.841   3.797  14.436
 5024SOL    HW216847   6.752   3.686  14.385
 5025SOL     OW16848   4.950   0.463   2.710
 5025SOL    HW116849   4.997   0.412   2.776
 5025SOL    HW216850   5.005   0.539   2.695
 5026SOL     OW16851   3.593  10.411  11.480
 5026SOL    HW116852   3.585  10.467  11.558
 5026SOL    HW216853   3.668  10.355  11.499
 5027SOL     OW16854  12.155  12.277  13.408
 5027SOL    HW116855  12.103  12.203  13.442
 5027SOL    HW216856  12.153  12.266  13.313
 5028SOL     OW16857   7.272   1.328   0.237
 5028SOL    HW116858   7.252   1.338   0.144
 5028SOL    HW216859   7.187   1.313   0.279
 5029SOL     OW16860   6.362   2.022   3.404
 5029SOL    HW116861   6.366   2.097   3.344
 5029SOL    HW216862   6.360   1.945   3.348
 5030SOL     OW16863   9.116   9.141   4.301
 5030SOL    HW116864   9.170   9.151   4.380
 5030SOL    HW216865   9.029   9.168   4.328
 5031SOL     OW16866  12.067  12.990   8.500
 5031SOL    HW116867  12.031  12.999   8.588
 5031SOL    HW216868  12.151  12.947   8.512
 5032SOL     OW16869   7.841   3.213   2.356
 5032SOL    HW116870   7.754   3.203   2.396
 5032SOL    HW216871   7.882   3.284   2.405
 5033SOL     OW16872   8.267   8.874   1.576
 5033SOL    HW116873   8.311   8.906   1.655
 5033SOL    HW216874   8.280   8.944   1.512
 5034SOL     OW16875  11.289   1.610   6.576
 5034SOL    HW116876  11.283   1.664   6.655
 5034SOL    HW216877  11.380   1.619   6.548
 5035SOL     OW16878   1.759   1.574   6.189
 5035SOL    HW116879   1.819   1.510   6.151
 5035SOL    HW216880   1.716   1.527   6.260
 5036SOL     OW16881   3.251  12.422   5.457
 5036SOL    HW116882   3.257  12.513   5.487
 5036SOL    HW216883   3.337  12.385   5.476
 5037SOL     OW16884   4.028   7.637  10.846
 5037SOL    HW116885   4.053   7.707  10.786
 5037SOL    HW216886   3.933   7.641  10.850
 5038SOL     OW16887   6.401   4.634   5.448
 5038SOL    HW116888   6.331   4.585   5.492
 5038SOL    HW216889   6.482   4.593   5.478
 5039SOL     OW16890  12.500  12.046  14.140
 5039SOL    HW116891  12.483  11.952  14.130
 5039SOL    HW216892  12.493  12.061  14.234
 5040SOL     OW16893   9.714  10.260   4.146
 5040SOL    HW116894   9.732  10.186   4.203
 5040SOL    HW216895   9.777  10.252   4.074
 5041SOL     OW16896   8.249  12.035   9.995
 5041SOL    HW116897   8.171  12.089   9.979
 5041SOL    HW216898   8.226  11.983  10.072
 5042SOL     OW16899   8.683   9.217   5.565
 5042SOL    HW116900   8.614   9.156   5.540
 5042SOL    HW216901   8.742   9.219   5.490
 5043SOL     OW16902   2.760   9.499  10.082
 5043SOL    HW116903   2.682   9.444  10.072
 5043SOL    HW216904   2.733   9.585  10.050
 5044SOL     OW16905  10.341  10.463   9.343
 5044SOL    HW116906  10.311  10.528   9.279
 5044SOL    HW216907  10.340  10.380   9.295
 5045SOL     OW16908   9.135  13.745  11.416
 5045SOL    HW116909   9.062  13.748  11.354
 5045SOL    HW216910   9.202  13.800  11.376
 5046SOL     OW16911   0.235  12.234   5.578
 5046SOL    HW116912   0.219  12.146   5.543
 5046SOL    HW216913   0.327  12.233   5.605
 5047SOL     OW16914   5.230  14.244  10.041
 5047SOL    HW116915   5.136  14.238  10.056
 5047SOL    HW216916   5.269  14.227  10.127
 5048SOL     OW16917   8.900   1.649   5.089
 5048SOL    HW116918   8.852   1.732   5.101
 5048SOL    HW216919   8.835   1.582   5.109
 5049SOL     OW16920   9.106   2.458   7.711
 5049SOL    HW116921   9.081   2.480   7.621
 5049SOL    HW216922   9.033   2.489   7.765
 5050SOL     OW16923   1.059  10.035  14.565
 5050SOL    HW116924   1.116  10.057  14.492
 5050SOL    HW216925   1.022   9.949  14.543
 5051SOL     OW16926   9.580   8.977  12.079
 5051SOL    HW116927   9.647   8.983  12.146
 5051SOL    HW216928   9.539   9.063  12.077
 5052SOL     OW16929  13.407   8.793  13.436
 5052SOL    HW116930  13.313   8.780  13.425
 5052SOL    HW216931  13.418   8.888  13.436
 5053SOL     OW16932   5.052  13.729   0.336
 5053SOL    HW116933   5.077  13.645   0.297
 5053SOL    HW216934   5.071  13.718   0.429
 5054SOL     OW16935   0.428   0.024   2.018
 5054SOL    HW116936   0.356  14.847   2.049
 5054SOL    HW216937   0.443   0.087   2.088
 5055SOL     OW16938  14.154  13.413  10.293
 5055SOL    HW116939  14.163  13.318  10.297
 5055SOL    HW216940  14.064  13.430  10.319
 5056SOL     OW16941  10.062   0.596   7.524
 5056SOL    HW116942  10.008   0.644   7.462
 5056SOL    HW216943  10.123   0.546   7.470
 5057SOL     OW16944  11.837  12.553  13.043
 5057SOL    HW116945  11.824  12.480  12.983
 5057SOL    HW216946  11.839  12.513  13.130
 5058SOL     OW16947   1.988   4.427  10.210
 5058SOL    HW116948   2.053   4.491  10.239
 5058SOL    HW216949   2.026   4.342  10.232
 5059SOL     OW16950  13.421  10.668  12.924
 5059SOL    HW116951  13.425  10.670  13.020
 5059SOL    HW216952  13.511  10.685  12.896
 5060SOL     OW16953  14.286   7.600  11.764
 5060SOL    HW116954  14.305   7.571  11.675
 5060SOL    HW216955  14.346   7.674  11.778
 5061SOL     OW16956   3.793   3.240   9.017
 5061SOL    HW116957   3.813   3.153   8.982
 5061SOL    HW216958   3.777   3.225   9.110
 5062SOL     OW16959   7.185  11.732  14.501
 5062SOL    HW116960   7.275  11.739  14.533
 5062SOL    HW216961   7.168  11.816  14.459
 5063SOL     OW16962  12.428   8.821   3.085
 5063SOL    HW116963  12.398   8.818   3.176
 5063SOL    HW216964  12.372   8.757   3.039
 5064SOL     OW16965  13.291   7.375   0.089
 5064SOL    HW116966  13.310   7.393   0.181
 5064SOL    HW216967  13.376   7.373   0.047
 5065SOL     OW16968   2.752   7.066   1.589
 5065SOL    HW116969   2.845   7.055   1.568
 5065SOL    HW216970   2.727   6.984   1.632
 5066SOL     OW16971   8.302   9.133   1.488
 5066SOL    HW116972   8.292   9.155   1.581
 5066SOL    HW216973   8.367   9.196   1.456
 5067SOL     OW16974  13.227   8.253  12.862
 5067SOL    HW116975  13.319   8.260  12.885
 5067SOL    HW216976  13.227   8.248  12.766
 5068SOL     OW16977   8.931   1.673   6.687
 5068SOL    HW116978   8.919   1.640   6.598
 5068SOL    HW216979   8.995   1.744   6.678
 5069SOL     OW16980   3.217  11.403  12.225
 5069SOL    HW116981   3.151  11.335  12.213
 5069SOL    HW216982   3.282  11.364  12.283
 5070SOL     OW16983   0.644   4.114   6.640
 5070SOL    HW116984   0.637   4.204   6.672
 5070SOL    HW216985   0.733   4.109   6.604
 5071SOL     OW16986  12.935   9.584  10.748
 5071SOL    HW116987  13.029   9.569  10.745
 5071SOL    HW216988  12.901   9.537  10.671
 5072SOL     OW16989   9.108   8.253  14.482
 5072SOL    HW116990   9.068   8.330  14.524
 5072SOL    HW216991   9.201   8.259  14.504
 5073SOL     OW16992  12.887   4.692   0.099
 5073SOL    HW116993  12.966   4.653   0.062
 5073SOL    HW216994  12.887   4.782   0.066
 5074SOL     OW16995   9.916   7.110   2.537
 5074SOL    HW116996   9.972   7.048   2.584
 5074SOL    HW216997   9.841   7.057   2.509
 5075SOL     OW16998   6.769   4.255   3.388
 5075SOL    HW116999   6.802   4.321   3.327
 5075SOL    HW217000   6.755   4.304   3.469
 5076SOL     OW17001   1.933  12.642   7.577
 5076SOL    HW117002   1.971  12.718   7.622
 5076SOL    HW217003   2.009  12.588   7.554
 5077SOL     OW17004   4.391   0.800  12.797
 5077SOL    HW117005   4.310   0.801  12.746
 5077SOL    HW217006   4.456   0.841  12.741
 5078SOL     OW17007   0.736   2.034   1.853
 5078SOL    HW117008   0.817   2.054   1.805
 5078SOL    HW217009   0.697   2.119   1.870
 5079SOL     OW17010   8.319   1.628   6.884
 5079SOL    HW117011   8.226   1.606   6.884
 5079SOL    HW217012   8.348   1.612   6.794
 5080SOL     OW17013   2.512   6.809  10.078
 5080SOL    HW117014   2.469   6.891  10.105
 5080SOL    HW217015   2.601   6.835  10.057
 5081SOL     OW17016  11.070   2.432   1.210
 5081SOL    HW117017  11.165   2.444   1.211
 5081SOL    HW217018  11.049   2.420   1.117
 5082SOL     OW17019   5.960   8.604   1.741
 5082SOL    HW117020   5.913   8.524   1.766
 5082SOL    HW217021   6.002   8.582   1.658
 5083SOL     OW17022   8.064  12.495   9.058
 5083SOL    HW117023   7.979  12.514   9.018
 5083SOL    HW217024   8.045  12.427   9.123
 5084SOL     OW17025   3.240   3.059   4.587
 5084SOL    HW117026   3.300   3.104   4.528
 5084SOL    HW217027   3.271   3.082   4.675
 5085SOL     OW17028  10.158   2.614   7.089
 5085SOL    HW117029  10.237   2.570   7.058
 5085SOL    HW217030  10.161   2.700   7.046
 5086SOL     OW17031   9.699   0.828  12.126
 5086SOL    HW117032   9.653   0.899  12.080
 5086SOL    HW217033   9.726   0.769  12.056
 5087SOL     OW17034   5.678   2.715   9.028
 5087SOL    HW117035   5.649   2.661   8.955
 5087SOL    HW217036   5.679   2.805   8.994
 5088SOL     OW17037  14.294   5.755  12.111
 5088SOL    HW117038  14.232   5.747  12.183
 5088SOL    HW217039  14.333   5.842  12.122
 5089SOL     OW17040  12.803   2.059   7.843
 5089SOL    HW117041  12.831   2.124   7.778
 5089SOL    HW217042  12.849   2.083   7.923
 5090SOL     OW17043  14.586   5.440   9.414
 5090SOL    HW117044  14.537   5.414   9.336
 5090SOL    HW217045  14.527   5.501   9.460
 5091SOL     OW17046   7.936   1.153   2.375
 5091SOL    HW117047   8.029   1.130   2.374
 5091SOL    HW217048   7.891   1.069   2.385
 5092SOL     OW17049   8.227   0.567   7.812
 5092SOL    HW117050   8.252   0.629   7.744
 5092SOL    HW217051   8.226   0.481   7.769
 5093SOL     OW17052  11.835   8.378   2.538
 5093SOL    HW117053  11.861   8.312   2.474
 5093SOL    HW217054  11.878   8.352   2.619
 5094SOL     OW17055  12.777  14.356  12.054
 5094SOL    HW117056  12.837  14.299  12.005
 5094SOL    HW217057  12.745  14.419  11.989
 5095SOL     OW17058   7.442   8.430   8.137
 5095SOL    HW117059   7.423   8.445   8.045
 5095SOL    HW217060   7.373   8.370   8.166
 5096SOL     OW17061   7.341  14.357   9.253
 5096SOL    HW117062   7.422  14.312   9.228
 5096SOL    HW217063   7.288  14.288   9.295
 5097SOL     OW17064  12.612   7.612   8.062
 5097SOL    HW117065  12.553   7.677   8.098
 5097SOL    HW217066  12.561   7.531   8.062
 5098SOL     OW17067   8.475  12.216   3.753
 5098SOL    HW117068   8.426  12.220   3.671
 5098SOL    HW217069   8.553  12.165   3.732
 5099SOL     OW17070   4.761  11.176   6.134
 5099SOL    HW117071   4.731  11.093   6.171
 5099SOL    HW217072   4.691  11.238   6.155
 5100SOL     OW17073   7.535  10.025  14.725
 5100SOL    HW117074   7.491  10.047  14.807
 5100SOL    HW217075   7.561   9.934  14.736
 5101SOL     OW17076   0.909   4.991   1.866
 5101SOL    HW117077   0.878   5.026   1.950
 5101SOL    HW217078   0.833   4.995   1.809
 5102SOL     OW17079  13.515   1.160  13.822
 5102SOL    HW117080  13.565   1.084  13.793
 5102SOL    HW217081  13.433   1.155  13.773
 5103SOL     OW17082   3.103  14.431   8.991
 5103SOL    HW117083   3.061  14.475   8.917
 5103SOL    HW217084   3.196  14.428   8.967
 5104SOL     OW17085   3.158  11.206   5.869
 5104SOL    HW117086   3.210  11.214   5.949
 5104SOL    HW217087   3.087  11.146   5.893
 5105SOL     OW17088  14.761   4.809  10.737
 5105SOL    HW117089  14.711   4.891  10.745
 5105SOL    HW217090  14.833   4.819  10.800
 5106SOL     OW17091   3.338   2.004   7.893
 5106SOL    HW117092   3.294   1.968   7.970
 5106SOL    HW217093   3.380   2.085   7.925
 5107SOL     OW17094   0.400   7.090  11.044
 5107SOL    HW117095   0.338   7.093  10.971
 5107SOL    HW217096   0.362   7.147  11.111
 5108SOL     OW17097  12.062   6.042  10.217
 5108SOL    HW117098  12.042   6.076  10.304
 5108SOL    HW217099  12.150   6.004  10.226
 5109SOL     OW17100   4.144   0.739  14.838
 5109SOL    HW117101   4.114   0.754   0.050
 5109SOL    HW217102   4.114   0.650  14.818
 5110SOL     OW17103   7.794   0.765  14.598
 5110SOL    HW117104   7.769   0.674  14.613
 5110SOL    HW217105   7.731   0.797  14.533
 5111SOL     OW17106   3.579   1.058  13.772
 5111SOL    HW117107   3.559   1.145  13.736
 5111SOL    HW217108   3.597   1.004  13.695
 5112SOL     OW17109   0.335   8.670   9.123
 5112SOL    HW117110   0.398   8.708   9.061
 5112SOL    HW217111   0.265   8.636   9.068
 5113SOL     OW17112   7.491   8.546   2.775
 5113SOL    HW117113   7.479   8.638   2.796
 5113SOL    HW217114   7.430   8.530   2.703
 5114SOL     OW17115   5.488   0.760  10.557
 5114SOL    HW117116   5.453   0.692  10.614
 5114SOL    HW217117   5.477   0.841  10.607
 5115SOL     OW17118   5.857   9.408   2.819
 5115SOL    HW117119   5.902   9.491   2.833
 5115SOL    HW217120   5.781   9.430   2.765
 5116SOL     OW17121  12.741   5.664   5.298
 5116SOL    HW117122  12.683   5.588   5.287
 5116SOL    HW217123  12.729   5.690   5.390
 5117SOL     OW17124   4.729   8.685   2.723
 5117SOL    HW117125   4.718   8.623   2.795
 5117SOL    HW217126   4.807   8.736   2.746
 5118SOL     OW17127   2.807   7.354   3.977
 5118SOL    HW117128   2.884   7.406   4.000
 5118SOL    HW217129   2.793   7.371   3.884
 5119SOL     OW17130  10.205   1.329   2.841
 5119SOL    HW117131  10.157   1.248   2.824
 5119SOL    HW217132  10.291   1.314   2.802
 5120SOL     OW17133   0.294   9.991  12.216
 5120SOL    HW117134   0.389  10.006  12.218
 5120SOL    HW217135   0.256  10.071  12.251
 5121SOL     OW17136  13.337   4.389   2.650
 5121SOL    HW117137  13.416   4.388   2.703
 5121SOL    HW217138  13.281   4.322   2.690
 5122SOL     OW17139   0.096   5.482   7.585
 5122SOL    HW117140   0.031   5.538   7.544
 5122SOL    HW217141   0.179   5.509   7.546
 5123SOL     OW17142  10.648   4.333  13.778
 5123SOL    HW117143  10.607   4.327  13.864
 5123SOL    HW217144  10.578   4.360  13.719
 5124SOL     OW17145  12.678   1.223   5.321
 5124SOL    HW117146  12.606   1.253   5.266
 5124SOL    HW217147  12.643   1.149   5.369
 5125SOL     OW17148  14.780   2.818  12.552
 5125SOL    HW117149  14.687   2.811  12.575
 5125SOL    HW217150  14.791   2.909  12.524
 5126SOL     OW17151   2.366   6.511   3.762
 5126SOL    HW117152   2.373   6.424   3.802
 5126SOL    HW217153   2.343   6.569   3.834
 5127SOL     OW17154   2.166   1.917   0.688
 5127SOL    HW117155   2.155   1.948   0.778
 5127SOL    HW217156   2.177   1.822   0.697
 5128SOL     OW17157  12.828   8.735  14.577
 5128SOL    HW117158  12.804   8.811  14.524
 5128SOL    HW217159  12.871   8.675  14.516
 5129SOL     OW17160  10.313  13.415   7.748
 5129SOL    HW117161  10.352  13.478   7.688
 5129SOL    HW217162  10.280  13.468   7.821
 5130SOL     OW17163   8.563   5.956   4.366
 5130SOL    HW117164   8.598   6.041   4.339
 5130SOL    HW217165   8.559   5.961   4.461
 5131SOL     OW17166   7.477  11.651  11.690
 5131SOL    HW117167   7.458  11.609  11.774
 5131SOL    HW217168   7.456  11.584  11.625
 5132SOL     OW17169   7.204   8.383   6.466
 5132SOL    HW117170   7.285   8.385   6.415
 5132SOL    HW217171   7.198   8.292   6.497
 5133SOL     OW17172   8.916   5.710   6.105
 5133SOL    HW117173   8.835   5.701   6.156
 5133SOL    HW217174   8.945   5.620   6.089
 5134SOL     OW17175   4.997  10.755  13.794
 5134SOL    HW117176   4.978  10.839  13.836
 5134SOL    HW217177   5.001  10.775  13.700
 5135SOL     OW17178  12.659   1.188  14.685
 5135SOL    HW117179  12.591   1.249  14.658
 5135SOL    HW217180  12.632   1.103  14.651
 5136SOL     OW17181  13.196   9.905   3.206
 5136SOL    HW117182  13.105   9.927   3.224
 5136SOL    HW217183  13.223   9.853   3.282
 5137SOL     OW17184  12.958  10.530  10.152
 5137SOL    HW117185  12.891  10.480  10.197
 5137SOL    HW217186  13.025  10.545  10.218
 5138SOL     OW17187  13.552   3.560  12.660
 5138SOL    HW117188  13.527   3.634  12.715
 5138SOL    HW217189  13.565   3.488  12.722
 5139SOL     OW17190   1.304  13.469  12.470
 5139SOL    HW117191   1.325  13.402  12.405
 5139SOL    HW217192   1.384  13.521  12.477
 5140SOL     OW17193   3.050  10.314   8.326
 5140SOL    HW117194   3.062  10.219   8.336
 5140SOL    HW217195   3.047  10.347   8.415
 5141SOL     OW17196   7.792   8.028   5.808
 5141SOL    HW117197   7.812   8.122   5.801
 5141SOL    HW217198   7.745   8.008   5.727
 5142SOL     OW17199   8.226   0.780   4.636
 5142SOL    HW117200   8.173   0.744   4.565
 5142SOL    HW217201   8.315   0.786   4.600
 5143SOL     OW17202  13.693   8.995  12.434
 5143SOL    HW117203  13.636   9.018  12.361
 5143SOL    HW217204  13.633   8.974  12.506
 5144SOL     OW17205  10.088   9.456   6.443
 5144SOL    HW117206   9.994   9.450   6.458
 5144SOL    HW217207  10.117   9.365   6.433
 5145SOL     OW17208  11.215   0.923   0.560
 5145SOL    HW117209  11.292   0.963   0.601
 5145SOL    HW217210  11.179   0.865   0.627
 5146SOL     OW17211   2.579   6.296   0.303
 5146SOL    HW117212   2.567   6.372   0.246
 5146SOL    HW217213   2.577   6.332   0.392
 5147SOL     OW17214  10.197   7.600   2.244
 5147SOL    HW117215  10.278   7.580   2.290
 5147SOL    HW217216  10.129   7.595   2.312
 5148SOL     OW17217   4.595  13.837   8.985
 5148SOL    HW117218   4.688  13.856   8.990
 5148SOL    HW217219   4.568  13.873   8.900
 5149SOL     OW17220   1.196  14.841  14.709
 5149SOL    HW117221   1.273   0.020  14.706
 5149SOL    HW217222   1.123   0.022  14.726
 5150SOL     OW17223  12.064  11.157   8.880
 5150SOL    HW117224  12.030  11.144   8.792
 5150SOL    HW217225  12.087  11.250   8.883
 5151SOL     OW17226   7.885   7.901   9.018
 5151SOL    HW117227   7.865   7.963   8.948
 5151SOL    HW217228   7.938   7.833   8.976
 5152SOL     OW17229   8.996   1.292   2.205
 5152SOL    HW117230   9.044   1.305   2.287
 5152SOL    HW217231   8.908   1.264   2.233
 5153SOL     OW17232   7.987  13.054  10.033
 5153SOL    HW117233   8.004  13.110  10.109
 5153SOL    HW217234   8.052  13.081   9.969
 5154SOL     OW17235  14.000  14.344   3.499
 5154SOL    HW117236  14.053  14.277   3.543
 5154SOL    HW217237  13.923  14.353   3.555
 5155SOL     OW17238   7.741  12.457   9.848
 5155SOL    HW117239   7.780  12.543   9.840
 5155SOL    HW217240   7.680  12.465   9.921
 5156SOL     OW17241   1.921   4.066  14.424
 5156SOL    HW117242   1.844   4.017  14.455
 5156SOL    HW217243   1.934   4.036  14.334
 5157SOL     OW17244   1.290  12.234   1.465
 5157SOL    HW117245   1.325  12.148   1.441
 5157SOL    HW217246   1.339  12.259   1.544
 5158SOL     OW17247   8.151  12.227   6.535
 5158SOL    HW117248   8.064  12.202   6.567
 5158SOL    HW217249   8.151  12.200   6.443
 5159SOL     OW17250   6.779   3.815  10.273
 5159SOL    HW117251   6.844   3.745  10.276
 5159SOL    HW217252   6.749   3.816  10.182
 5160SOL     OW17253   6.921   6.442  12.190
 5160SOL    HW117254   7.005   6.449  12.145
 5160SOL    HW217255   6.944   6.444  12.283
 5161SOL     OW17256   2.643   8.504   9.651
 5161SOL    HW117257   2.633   8.570   9.719
 5161SOL    HW217258   2.561   8.509   9.601
 5162SOL     OW17259  10.461   6.996   3.205
 5162SOL    HW117260  10.421   6.916   3.240
 5162SOL    HW217261  10.441   7.063   3.271
 5163SOL     OW17262   5.578   4.957   3.020
 5163SOL    HW117263   5.568   5.030   2.959
 5163SOL    HW217264   5.517   4.890   2.988
 5164SOL     OW17265   3.778  13.836   1.793
 5164SOL    HW117266   3.751  13.927   1.807
 5164SOL    HW217267   3.712  13.784   1.840
 5165SOL     OW17268  10.066  12.705  13.383
 5165SOL    HW117269  10.052  12.611  13.396
 5165SOL    HW217270  10.148  12.710  13.334
 5166SOL     OW17271  10.887   2.296   3.159
 5166SOL    HW117272  10.831   2.361   3.203
 5166SOL    HW217273  10.936   2.347   3.095
 5167SOL     OW17274   0.781   9.398  10.343
 5167SOL    HW117275   0.849   9.460  10.318
 5167SOL    HW217276   0.712   9.453  10.381
 5168SOL     OW17277   8.518   5.659   5.272
 5168SOL    HW117278   8.487   5.727   5.333
 5168SOL    HW217279   8.462   5.584   5.291
 5169SOL     OW17280   8.035  12.509   3.660
 5169SOL    HW117281   8.109  12.521   3.720
 5169SOL    HW217282   7.995  12.426   3.687
 5170SOL     OW17283   9.840   3.295   1.505
 5170SOL    HW117284   9.906   3.242   1.551
 5170SOL    HW217285   9.758   3.272   1.547
 5171SOL     OW17286  12.872   8.214   5.638
 5171SOL    HW117287  12.915   8.158   5.703
 5171SOL    HW217288  12.813   8.155   5.591
 5172SOL     OW17289   3.871   4.535  14.414
 5172SOL    HW117290   3.869   4.506  14.505
 5172SOL    HW217291   3.957   4.506  14.382
 5173SOL     OW17292   2.970   8.170   8.490
 5173SOL    HW117293   2.987   8.185   8.397
 5173SOL    HW217294   3.004   8.248   8.534
 5174SOL     OW17295   4.197  10.751  11.507
 5174SOL    HW117296   4.224  10.843  11.509
 5174SOL    HW217297   4.142  10.740  11.584
 5175SOL     OW17298   8.443   9.483   5.038
 5175SOL    HW117299   8.525   9.450   5.074
 5175SOL    HW217300   8.396   9.405   5.009
 5176SOL     OW17301   9.031   3.967  11.602
 5176SOL    HW117302   9.045   3.875  11.623
 5176SOL    HW217303   8.961   3.966  11.537
 5177SOL     OW17304   5.814  10.589   4.909
 5177SOL    HW117305   5.864  10.509   4.928
 5177SOL    HW217306   5.749  10.594   4.979
 5178SOL     OW17307   8.102  13.829  10.958
 5178SOL    HW117308   8.081  13.913  11.000
 5178SOL    HW217309   8.032  13.770  10.987
 5179SOL     OW17310  12.503  13.106  13.772
 5179SOL    HW117311  12.529  13.146  13.689
 5179SOL    HW217312  12.421  13.060  13.752
 5180SOL     OW17313  13.429   7.962   4.470
 5180SOL    HW117314  13.421   8.005   4.555
 5180SOL    HW217315  13.339   7.945   4.443
 5181SOL     OW17316   1.227  10.561  13.085
 5181SOL    HW117317   1.230  10.540  13.178
 5181SOL    HW217318   1.316  10.592  13.065
 5182SOL     OW17319  12.677   8.898   4.034
 5182SOL    HW117320  12.582   8.898   4.021
 5182SOL    HW217321  12.699   8.806   4.049
 5183SOL     OW17322  10.019   8.087   6.766
 5183SOL    HW117323  10.094   8.060   6.818
 5183SOL    HW217324   9.967   8.007   6.756
 5184SOL     OW17325  11.376   5.924   3.357
 5184SOL    HW117326  11.297   5.915   3.304
 5184SOL    HW217327  11.398   5.834   3.381
 5185SOL     OW17328  10.715   5.584   3.181
 5185SOL    HW117329  10.690   5.601   3.272
 5185SOL    HW217330  10.755   5.497   3.183
 5186SOL     OW17331   5.677  11.462   1.665
 5186SOL    HW117332   5.587  11.477   1.637
 5186SOL    HW217333   5.731  11.495   1.593
 5187SOL     OW17334   2.967   6.714   7.985
 5187SOL    HW117335   3.049   6.761   7.998
 5187SOL    HW217336   2.901   6.771   8.026
 5188SOL     OW17337   8.294   5.460   6.543
 5188SOL    HW117338   8.226   5.395   6.561
 5188SOL    HW217339   8.376   5.417   6.567
 5189SOL     OW17340  11.272   9.935  11.358
 5189SOL    HW117341  11.241   9.927  11.448
 5189SOL    HW217342  11.302   9.848  11.334
 5190SOL     OW17343  12.011   6.804   8.310
 5190SOL    HW117344  11.916   6.806   8.323
 5190SOL    HW217345  12.045   6.751   8.382
 5191SOL     OW17346  12.620   9.358   1.902
 5191SOL    HW117347  12.559   9.421   1.864
 5191SOL    HW217348  12.612   9.280   1.847
 5192SOL     OW17349  10.011   6.314   8.211
 5192SOL    HW117350  10.100   6.347   8.200
 5192SOL    HW217351   9.956   6.392   8.204
 5193SOL     OW17352  11.075   6.158  12.663
 5193SOL    HW117353  11.166   6.168  12.689
 5193SOL    HW217354  11.057   6.235  12.609
 5194SOL     OW17355   2.458   7.696   6.700
 5194SOL    HW117356   2.408   7.774   6.725
 5194SOL    HW217357   2.476   7.651   6.783
 5195SOL     OW17358   5.697   2.211   9.163
 5195SOL    HW117359   5.674   2.303   9.178
 5195SOL    HW217360   5.680   2.168   9.246
 5196SOL     OW17361   5.453   3.259   0.763
 5196SOL    HW117362   5.489   3.202   0.696
 5196SOL    HW217363   5.378   3.210   0.798
 5197SOL     OW17364   5.548   2.562   0.909
 5197SOL    HW117365   5.503   2.623   0.850
 5197SOL    HW217366   5.548   2.607   0.994
 5198SOL     OW17367  12.823  11.860  14.414
 5198SOL    HW117368  12.909  11.818  14.418
 5198SOL    HW217369  12.781  11.822  14.337
 5199SOL     OW17370   6.715  11.902   7.289
 5199SOL    HW117371   6.719  11.984   7.240
 5199SOL    HW217372   6.727  11.928   7.381
 5200SOL     OW17373   9.677   2.731   3.667
 5200SOL    HW117374   9.660   2.720   3.574
 5200SOL    HW217375   9.762   2.775   3.672
 5201SOL     OW17376  10.146   9.369   1.755
 5201SOL    HW117377  10.158   9.374   1.660
 5201SOL    HW217378  10.235   9.372   1.790
 5202SOL     OW17379   8.212   7.654   6.199
 5202SOL    HW117380   8.122   7.681   6.179
 5202SOL    HW217381   8.204   7.599   6.277
 5203SOL     OW17382   5.270   5.194   8.874
 5203SOL    HW117383   5.221   5.125   8.830
 5203SOL    HW217384   5.290   5.258   8.806
 5204SOL     OW17385   4.015   8.705  11.431
 5204SOL    HW117386   3.955   8.647  11.385
 5204SOL    HW217387   4.014   8.786  11.380
 5205SOL     OW17388   2.563  14.413   1.153
 5205SOL    HW117389   2.592  14.332   1.111
 5205SOL    HW217390   2.473  14.426   1.121
 5206SOL     OW17391  13.372   2.106   3.720
 5206SOL    HW117392  13.459   2.086   3.685
 5206SOL    HW217393  13.347   2.027   3.768
 5207SOL     OW17394  13.386   1.716  14.329
 5207SOL    HW117395  13.379   1.644  14.266
 5207SOL    HW217396  13.342   1.683  14.407
 5208SOL     OW17397   9.500  14.028   6.236
 5208SOL    HW117398   9.429  14.044   6.298
 5208SOL    HW217399   9.560  14.101   6.250
 5209SOL     OW17400   7.667  12.952   4.227
 5209SOL    HW117401   7.714  12.961   4.309
 5209SOL    HW217402   7.725  12.990   4.161
 5210SOL     OW17403   4.386  11.830  11.580
 5210SOL    HW117404   4.304  11.786  11.556
 5210SOL    HW217405   4.436  11.832  11.498
 5211SOL     OW17406   9.883  11.664   2.523
 5211SOL    HW117407   9.862  11.611   2.599
 5211SOL    HW217408   9.812  11.646   2.461
 5212SOL     OW17409   5.948  14.721  13.175
 5212SOL    HW117410   6.032  14.679  13.191
 5212SOL    HW217411   5.931  14.773  13.253
 5213SOL     OW17412  14.127  10.864  12.281
 5213SOL    HW117413  14.076  10.790  12.249
 5213SOL    HW217414  14.205  10.825  12.320
 5214SOL     OW17415   9.558   5.160   3.244
 5214SOL    HW117416   9.493   5.188   3.179
 5214SOL    HW217417   9.637   5.144   3.194
 5215SOL     OW17418   6.865  10.712   8.274
 5215SOL    HW117419   6.774  10.716   8.303
 5215SOL    HW217420   6.916  10.711   8.355
 5216SOL     OW17421   7.664   9.976   7.024
 5216SOL    HW117422   7.696  10.047   6.969
 5216SOL    HW217423   7.569   9.976   7.011
 5217SOL     OW17424   0.331  11.080  13.688
 5217SOL    HW117425   0.345  10.987  13.706
 5217SOL    HW217426   0.372  11.095  13.603
 5218SOL     OW17427   0.744  12.076   2.449
 5218SOL    HW117428   0.758  12.060   2.542
 5218SOL    HW217429   0.745  12.171   2.441
 5219SOL     OW17430  13.540   5.662   8.525
 5219SOL    HW117431  13.618   5.717   8.529
 5219SOL    HW217432  13.469   5.722   8.504
 5220SOL     OW17433   0.538  14.390  11.117
 5220SOL    HW117434   0.564  14.453  11.184
 5220SOL    HW217435   0.569  14.428  11.035
 5221SOL     OW17436  13.691  11.477   3.304
 5221SOL    HW117437  13.722  11.521   3.383
 5221SOL    HW217438  13.609  11.436   3.330
 5222SOL     OW17439   2.262   0.032  10.219
 5222SOL    HW117440   2.310   0.102  10.263
 5222SOL    HW217441   2.297  14.829  10.257
 5223SOL     OW17442  10.473   8.482   5.664
 5223SOL    HW117443  10.496   8.564   5.708
 5223SOL    HW217444  10.394   8.504   5.614
 5224SOL     OW17445   9.911   1.045  11.156
 5224SOL    HW117446   9.839   0.982  11.159
 5224SOL    HW217447   9.927   1.068  11.247
 5225SOL     OW17448  11.224   6.267   4.929
 5225SOL    HW117449  11.152   6.206   4.946
 5225SOL    HW217450  11.180   6.349   4.908
 5226SOL     OW17451   2.117   7.233   1.725
 5226SOL    HW117452   2.032   7.253   1.687
 5226SOL    HW217453   2.180   7.246   1.654
 5227SOL     OW17454  11.383   4.048  11.277
 5227SOL    HW117455  11.385   4.059  11.182
 5227SOL    HW217456  11.380   3.953  11.290
 5228SOL     OW17457   1.970   4.572  11.533
 5228SOL    HW117458   2.005   4.557  11.446
 5228SOL    HW217459   1.877   4.550  11.526
 5229SOL     OW17460  14.788  12.926   5.688
 5229SOL    HW117461  14.842  12.993   5.646
 5229SOL    HW217462  14.845  12.849   5.695
 5230SOL     OW17463   2.312  12.055  10.116
 5230SOL    HW117464   2.321  12.137  10.067
 5230SOL    HW217465   2.321  11.987  10.049
 5231SOL     OW17466   8.356   7.311  14.041
 5231SOL    HW117467   8.410   7.344  14.113
 5231SOL    HW217468   8.372   7.217  14.039
 5232SOL     OW17469   4.059   9.245   4.317
 5232SOL    HW117470   3.984   9.245   4.257
 5232SOL    HW217471   4.031   9.191   4.391
 5233SOL     OW17472   5.188  11.830   9.326
 5233SOL    HW117473   5.231  11.903   9.371
 5233SOL    HW217474   5.121  11.872   9.272
 5234SOL     OW17475  12.005  10.915   2.616
 5234SOL    HW117476  11.958  10.908   2.700
 5234SOL    HW217477  12.088  10.871   2.631
 5235SOL     OW17478   0.713   9.837   0.624
 5235SOL    HW117479   0.730   9.929   0.644
 5235SOL    HW217480   0.698   9.835   0.529
 5236SOL     OW17481  12.349   5.693  14.081
 5236SOL    HW117482  12.310   5.746  14.150
 5236SOL    HW217483  12.307   5.608  14.089
 5237SOL     OW17484   5.774  11.865  14.261
 5237SOL    HW117485   5.722  11.854  14.182
 5237SOL    HW217486   5.743  11.795  14.320
 5238SOL     OW17487   2.125  12.066   3.724
 5238SOL    HW117488   2.171  12.149   3.706
 5238SOL    HW217489   2.195  12.005   3.747
 5239SOL     OW17490  13.706  11.869  12.359
 5239SOL    HW117491  13.706  11.777  12.386
 5239SOL    HW217492  13.722  11.866  12.265
 5240SOL     OW17493   2.459  12.815  13.393
 5240SOL    HW117494   2.487  12.897  13.351
 5240SOL    HW217495   2.364  12.815  13.384
 5241SOL     OW17496   5.330   1.020   9.161
 5241SOL    HW117497   5.295   1.036   9.074
 5241SOL    HW217498   5.265   0.964   9.204
 5242SOL     OW17499   1.891   6.672   0.163
 5242SOL    HW117500   1.909   6.659   0.070
 5242SOL    HW217501   1.944   6.748   0.187
 5243SOL     OW17502   9.674  10.826   3.836
 5243SOL    HW117503   9.742  10.893   3.828
 5243SOL    HW217504   9.609  10.850   3.769
 5244SOL     OW17505   6.465   5.432   5.628
 5244SOL    HW117506   6.448   5.425   5.534
 5244SOL    HW217507   6.386   5.398   5.670
 5245SOL     OW17508   4.489  13.158   4.621
 5245SOL    HW117509   4.493  13.093   4.551
 5245SOL    HW217510   4.556  13.222   4.598
 5246SOL     OW17511   6.597  14.349   7.192
 5246SOL    HW117512   6.593  14.420   7.128
 5246SOL    HW217513   6.506  14.338   7.222
 5247SOL     OW17514   0.540   5.641  13.094
 5247SOL    HW117515   0.499   5.576  13.037
 5247SOL    HW217516   0.605   5.685  13.038
 5248SOL     OW17517   2.071  12.868   2.257
 5248SOL    HW117518   1.978  12.881   2.236
 5248SOL    HW217519   2.070  12.824   2.342
 5249SOL     OW17520   9.752   9.748   6.821
 5249SOL    HW117521   9.742   9.682   6.752
 5249SOL    HW217522   9.844   9.775   6.815
 5250SOL     OW17523   8.417   5.558  14.530
 5250SOL    HW117524   8.427   5.539  14.437
 5250SOL    HW217525   8.322   5.566  14.542
 5251SOL     OW17526   9.028   3.533   7.353
 5251SOL    HW117527   9.094   3.601   7.338
 5251SOL    HW217528   9.004   3.503   7.266
 5252SOL     OW17529  12.236   5.870  13.391
 5252SOL    HW117530  12.160   5.814  13.411
 5252SOL    HW217531  12.268   5.837  13.307
 5253SOL     OW17532   2.971   7.807   7.567
 5253SOL    HW117533   2.905   7.858   7.614
 5253SOL    HW217534   3.052   7.858   7.577
 5254SOL     OW17535   0.516   6.309   9.674
 5254SOL    HW117536   0.495   6.375   9.740
 5254SOL    HW217537   0.558   6.238   9.723
 5255SOL     OW17538  13.093   9.104   2.644
 5255SOL    HW117539  13.032   9.090   2.717
 5255SOL    HW217540  13.138   9.021   2.634
 5256SOL     OW17541   2.022   2.945  12.564
 5256SOL    HW117542   2.115   2.943  12.542
 5256SOL    HW217543   1.977   2.926  12.482
 5257SOL     OW17544   5.107   9.572   6.894
 5257SOL    HW117545   5.175   9.504   6.893
 5257SOL    HW217546   5.084   9.580   6.986
 5258SOL     OW17547   7.009   4.575   8.080
 5258SOL    HW117548   6.982   4.518   8.008
 5258SOL    HW217549   7.045   4.516   8.146
 5259SOL     OW17550   8.636   0.257  13.233
 5259SOL    HW117551   8.641   0.203  13.153
 5259SOL    HW217552   8.604   0.342  13.202
 5260SOL     OW17553  10.620   0.868  10.170
 5260SOL    HW117554  10.665   0.829  10.095
 5260SOL    HW217555  10.553   0.804  10.193
 5261SOL     OW17556   9.805  14.508   3.764
 5261SOL    HW117557   9.892  14.486   3.730
 5261SOL    HW217558   9.810  14.488   3.858
 5262SOL     OW17559  12.025  13.551  13.036
 5262SOL    HW117560  12.105  13.604  13.038
 5262SOL    HW217561  12.015  13.520  13.126
 5263SOL     OW17562  11.798  11.074   9.470
 5263SOL    HW117563  11.885  11.036   9.485
 5263SOL    HW217564  11.737  11.002   9.486
 5264SOL     OW17565  14.614  10.728   5.073
 5264SOL    HW117566  14.706  10.711   5.055
 5264SOL    HW217567  14.613  10.816   5.110
 5265SOL     OW17568  10.728   1.529   9.844
 5265SOL    HW117569  10.640   1.547   9.811
 5265SOL    HW217570  10.726   1.556   9.936
 5266SOL     OW17571   2.241   8.027  11.255
 5266SOL    HW117572   2.187   8.092  11.300
 5266SOL    HW217573   2.207   7.943  11.286
 5267SOL     OW17574  12.378  12.328  12.750
 5267SOL    HW117575  12.346  12.322  12.840
 5267SOL    HW217576  12.402  12.238  12.727
 5268SOL     OW17577   2.419   2.627   1.832
 5268SOL    HW117578   2.398   2.536   1.848
 5268SOL    HW217579   2.335   2.667   1.807
 5269SOL     OW17580   2.378   1.782   1.591
 5269SOL    HW117581   2.446   1.717   1.576
 5269SOL    HW217582   2.296   1.736   1.574
 5270SOL     OW17583   1.647  12.889   5.577
 5270SOL    HW117584   1.606  12.928   5.654
 5270SOL    HW217585   1.617  12.942   5.503
 5271SOL     OW17586   0.966   3.569  12.298
 5271SOL    HW117587   1.026   3.622  12.350
 5271SOL    HW217588   0.883   3.616  12.302
 5272SOL     OW17589  12.349   2.656   6.630
 5272SOL    HW117590  12.301   2.738   6.641
 5272SOL    HW217591  12.375   2.632   6.719
 5273SOL     OW17592   1.385  14.122   0.500
 5273SOL    HW117593   1.410  14.123   0.593
 5273SOL    HW217594   1.293  14.149   0.500
 5274SOL     OW17595  10.664  10.785  10.610
 5274SOL    HW117596  10.729  10.844  10.647
 5274SOL    HW217597  10.580  10.829  10.625
 5275SOL     OW17598   9.664   4.143   8.382
 5275SOL    HW117599   9.635   4.186   8.302
 5275SOL    HW217600   9.741   4.193   8.410
 5276SOL     OW17601   1.263  13.441   6.752
 5276SOL    HW117602   1.179  13.453   6.706
 5276SOL    HW217603   1.243  13.463   6.843
 5277SOL     OW17604   7.860   7.847  12.649
 5277SOL    HW117605   7.783   7.893  12.614
 5277SOL    HW217606   7.933   7.884  12.600
 5278SOL     OW17607  12.530   6.870  14.752
 5278SOL    HW117608  12.610   6.908  14.788
 5278SOL    HW217609  12.518   6.913  14.668
 5279SOL     OW17610   5.902   7.050  11.682
 5279SOL    HW117611   5.922   7.142  11.665
 5279SOL    HW217612   5.833   7.052  11.748
 5280SOL     OW17613   6.526  12.840  10.384
 5280SOL    HW117614   6.547  12.746  10.381
 5280SOL    HW217615   6.528  12.862  10.477
 5281SOL     OW17616   5.809  11.231  12.345
 5281SOL    HW117617   5.867  11.162  12.379
 5281SOL    HW217618   5.866  11.306  12.331
 5282SOL     OW17619  11.278  11.498  12.899
 5282SOL    HW117620  11.333  11.548  12.959
 5282SOL    HW217621  11.240  11.428  12.953
 5283SOL     OW17622   9.301  11.458   1.594
 5283SOL    HW117623   9.223  11.433   1.644
 5283SOL    HW217624   9.361  11.384   1.604
 5284SOL     OW17625   0.757   1.934  12.226
 5284SOL    HW117626   0.794   1.867  12.168
 5284SOL    HW217627   0.775   2.017  12.180
 5285SOL     OW17628   7.557  13.278  12.387
 5285SOL    HW117629   7.609  13.275  12.467
 5285SOL    HW217630   7.616  13.247  12.318
 5286SOL     OW17631   7.037  11.885   5.450
 5286SOL    HW117632   7.097  11.874   5.376
 5286SOL    HW217633   7.014  11.978   5.448
 5287SOL     OW17634  12.885  12.685  13.837
 5287SOL    HW117635  12.909  12.593  13.826
 5287SOL    HW217636  12.813  12.698  13.775
 5288SOL     OW17637   8.921  14.444   5.399
 5288SOL    HW117638   8.931  14.527   5.447
 5288SOL    HW217639   8.978  14.383   5.445
 5289SOL     OW17640  14.528  14.548  14.125
 5289SOL    HW117641  14.447  14.505  14.098
 5289SOL    HW217642  14.563  14.492  14.195
 5290SOL     OW17643  14.610   0.184   2.290
 5290SOL    HW117644  14.566   0.223   2.366
 5290SOL    HW217645  14.580   0.093   2.289
 5291SOL     OW17646   1.232   6.839   1.829
 5291SOL    HW117647   1.316   6.878   1.854
 5291SOL    HW217648   1.248   6.744   1.829
 5292SOL     OW17649   4.540  13.590   3.375
 5292SOL    HW117650   4.469  13.536   3.409
 5292SOL    HW217651   4.497  13.668   3.340
 5293SOL     OW17652   9.481   7.700  13.591
 5293SOL    HW117653   9.441   7.786  13.609
 5293SOL    HW217654   9.575   7.717  13.593
 5294SOL     OW17655   5.599   2.415   8.165
 5294SOL    HW117656   5.514   2.387   8.130
 5294SOL    HW217657   5.661   2.351   8.131
 5295SOL     OW17658   2.081   3.670   4.820
 5295SOL    HW117659   2.042   3.750   4.854
 5295SOL    HW217660   2.174   3.690   4.810
 5296SOL     OW17661  12.863   5.545  11.314
 5296SOL    HW117662  12.781   5.520  11.358
 5296SOL    HW217663  12.929   5.539  11.383
 5297SOL     OW17664   7.169   3.987  11.715
 5297SOL    HW117665   7.150   4.031  11.798
 5297SOL    HW217666   7.105   4.023  11.654
 5298SOL     OW17667   1.636   1.322  13.982
 5298SOL    HW117668   1.563   1.265  14.006
 5298SOL    HW217669   1.712   1.285  14.027
 5299SOL     OW17670   6.204   0.679   2.898
 5299SOL    HW117671   6.165   0.729   2.826
 5299SOL    HW217672   6.217   0.744   2.968
 5300SOL     OW17673  11.817   1.298   0.563
 5300SOL    HW117674  11.816   1.334   0.651
 5300SOL    HW217675  11.898   1.246   0.559
 5301SOL     OW17676  12.164   1.309   3.805
 5301SOL    HW117677  12.197   1.219   3.810
 5301SOL    HW217678  12.091   1.303   3.743
 5302SOL     OW17679   6.943   0.363   7.351
 5302SOL    HW117680   6.871   0.313   7.312
 5302SOL    HW217681   6.994   0.298   7.400
 5303SOL     OW17682   0.473   7.308   5.984
 5303SOL    HW117683   0.464   7.262   5.901
 5303SOL    HW217684   0.472   7.401   5.961
 5304SOL     OW17685   3.988  10.759   5.743
 5304SOL    HW117686   3.902  10.742   5.781
 5304SOL    HW217687   4.005  10.684   5.687
 5305SOL     OW17688   1.691  10.931  13.763
 5305SOL    HW117689   1.622  10.897  13.708
 5305SOL    HW217690   1.702  10.865  13.832
 5306SOL     OW17691   5.090  12.431  11.099
 5306SOL    HW117692   5.046  12.368  11.043
 5306SOL    HW217693   5.176  12.443  11.059
 5307SOL     OW17694  14.392   1.325  11.495
 5307SOL    HW117695  14.351   1.326  11.409
 5307SOL    HW217696  14.453   1.399  11.494
 5308SOL     OW17697   0.449  14.639   1.925
 5308SOL    HW117698   0.440  14.726   1.965
 5308SOL    HW217699   0.428  14.654   1.833
 5309SOL     OW17700   3.799  14.020  10.397
 5309SOL    HW117701   3.822  14.112  10.408
 5309SOL    HW217702   3.881  13.972  10.410
 5310SOL     OW17703   6.415  12.400  10.367
 5310SOL    HW117704   6.358  12.465  10.407
 5310SOL    HW217705   6.374  12.380  10.282
 5311SOL     OW17706   9.888   9.450   1.334
 5311SOL    HW117707   9.806   9.403   1.349
 5311SOL    HW217708   9.861   9.537   1.305
 5312SOL     OW17709   5.507   5.729   6.661
 5312SOL    HW117710   5.544   5.738   6.573
 5312SOL    HW217711   5.425   5.680   6.648
 5313SOL     OW17712   5.582  14.844   3.507
 5313SOL    HW117713   5.622   0.005   3.428
 5313SOL    HW217714   5.655  14.833   3.567
 5314SOL     OW17715   3.455   9.422  13.456
 5314SOL    HW117716   3.406   9.342  13.476
 5314SOL    HW217717   3.461   9.423  13.361
 5315SOL     OW17718   5.674   7.219   8.954
 5315SOL    HW117719   5.732   7.236   8.879
 5315SOL    HW217720   5.703   7.134   8.988
 5316SOL     OW17721   4.857   5.278   4.539
 5316SOL    HW117722   4.856   5.225   4.619
 5316SOL    HW217723   4.848   5.214   4.468
 5317SOL     OW17724  14.819  12.140  10.840
 5317SOL    HW117725  14.765  12.211  10.806
 5317SOL    HW217726  14.849  12.171  10.925
 5318SOL     OW17727   7.336   5.867   9.788
 5318SOL    HW117728   7.326   5.867   9.883
 5318SOL    HW217729   7.393   5.942   9.770
 5319SOL     OW17730   2.365   8.710  10.468
 5319SOL    HW117731   2.352   8.803  10.448
 5319SOL    HW217732   2.401   8.708  10.556
 5320SOL     OW17733  12.849   7.623  11.203
 5320SOL    HW117734  12.937   7.610  11.167
 5320SOL    HW217735  12.818   7.535  11.224
 5321SOL     OW17736  13.947   5.100  14.756
 5321SOL    HW117737  13.910   5.096  14.668
 5321SOL    HW217738  13.905   5.028  14.803
 5322SOL     OW17739   9.411  11.351  11.699
 5322SOL    HW117740   9.327  11.383  11.667
 5322SOL    HW217741   9.445  11.298  11.628
 5323SOL     OW17742   0.851   7.023   4.708
 5323SOL    HW117743   0.813   7.097   4.754
 5323SOL    HW217744   0.868   7.056   4.620
 5324SOL     OW17745   9.873   0.117   0.129
 5324SOL    HW117746   9.849   0.187   0.067
 5324SOL    HW217747   9.968   0.115   0.127
 5325SOL     OW17748   1.302  12.679   6.398
 5325SOL    HW117749   1.260  12.718   6.474
 5325SOL    HW217750   1.330  12.592   6.427
 5326SOL     OW17751  12.071   8.031   0.570
 5326SOL    HW117752  12.164   8.053   0.565
 5326SOL    HW217753  12.038   8.084   0.642
 5327SOL     OW17754  14.182   2.709   0.536
 5327SOL    HW117755  14.165   2.679   0.447
 5327SOL    HW217756  14.102   2.756   0.561
 5328SOL     OW17757  13.149   9.117   3.067
 5328SOL    HW117758  13.184   9.203   3.091
 5328SOL    HW217759  13.223   9.057   3.079
 5329SOL     OW17760   0.992   7.328  12.376
 5329SOL    HW117761   0.971   7.390  12.447
 5329SOL    HW217762   0.917   7.269  12.373
 5330SOL     OW17763   5.426  14.611  12.760
 5330SOL    HW117764   5.459  14.700  12.754
 5330SOL    HW217765   5.381  14.607  12.845
 5331SOL     OW17766  13.101   1.278  10.128
 5331SOL    HW117767  13.013   1.316  10.128
 5331SOL    HW217768  13.096   1.207  10.064
 5332SOL     OW17769  13.909   7.031   7.692
 5332SOL    HW117770  13.880   6.996   7.777
 5332SOL    HW217771  13.966   6.963   7.657
 5333SOL     OW17772   7.733  10.886  11.497
 5333SOL    HW117773   7.828  10.897  11.485
 5333SOL    HW217774   7.700  10.861  11.411
 5334SOL     OW17775   3.402   6.870   0.495
 5334SOL    HW117776   3.478   6.928   0.486
 5334SOL    HW217777   3.425   6.813   0.568
 5335SOL     OW17778   5.009   1.809  12.329
 5335SOL    HW117779   5.000   1.881  12.393
 5335SOL    HW217780   5.041   1.852  12.249
 5336SOL     OW17781   4.933   8.416  13.410
 5336SOL    HW117782   4.916   8.342  13.468
 5336SOL    HW217783   4.986   8.476  13.462
 5337SOL     OW17784  11.831  12.991  13.594
 5337SOL    HW117785  11.737  13.009  13.595
 5337SOL    HW217786  11.838  12.898  13.614
 5338SOL     OW17787  12.957   3.963  14.111
 5338SOL    HW117788  12.868   3.986  14.084
 5338SOL    HW217789  12.973   4.019  14.187
 5339SOL     OW17790  14.660   3.417  11.776
 5339SOL    HW117791  14.630   3.362  11.703
 5339SOL    HW217792  14.611   3.499  11.765
 5340SOL     OW17793   2.979   1.055   0.170
 5340SOL    HW117794   2.927   1.015   0.239
 5340SOL    HW217795   3.003   1.141   0.204
 5341SOL     OW17796   0.763   3.787   9.298
 5341SOL    HW117797   0.812   3.707   9.279
 5341SOL    HW217798   0.742   3.823   9.212
 5342SOL     OW17799   0.462   2.679  11.870
 5342SOL    HW117800   0.422   2.766  11.865
 5342SOL    HW217801   0.475   2.653  11.779
 5343SOL     OW17802   5.676   8.019   6.418
 5343SOL    HW117803   5.746   8.025   6.352
 5343SOL    HW217804   5.719   7.982   6.495
 5344SOL     OW17805   1.899   7.121   7.215
 5344SOL    HW117806   1.957   7.103   7.289
 5344SOL    HW217807   1.821   7.069   7.233
 5345SOL     OW17808   1.766   4.595   1.668
 5345SOL    HW117809   1.804   4.513   1.636
 5345SOL    HW217810   1.688   4.607   1.615
 5346SOL     OW17811   3.929  14.777  14.098
 5346SOL    HW117812   3.861  14.831  14.058
 5346SOL    HW217813   3.910  14.688  14.068
 5347SOL     OW17814   2.732   7.924   7.669
 5347SOL    HW117815   2.653   7.970   7.697
 5347SOL    HW217816   2.701   7.862   7.603
 5348SOL     OW17817   3.865   3.097   1.456
 5348SOL    HW117818   3.855   3.087   1.361
 5348SOL    HW217819   3.778   3.084   1.491
 5349SOL     OW17820  12.808   6.187  12.180
 5349SOL    HW117821  12.774   6.258  12.234
 5349SOL    HW217822  12.856   6.131  12.242
 5350SOL     OW17823   9.218  14.747   0.471
 5350SOL    HW117824   9.137  14.703   0.497
 5350SOL    HW217825   9.258  14.689   0.407
 5351SOL     OW17826  11.396  11.533   3.113
 5351SOL    HW117827  11.431  11.568   3.031
 5351SOL    HW217828  11.357  11.449   3.088
 5352SOL     OW17829  10.785   7.072   9.715
 5352SOL    HW117830  10.857   7.012   9.694
 5352SOL    HW217831  10.788   7.080   9.810
 5353SOL     OW17832  13.487   8.045   6.863
 5353SOL    HW117833  13.444   8.085   6.939
 5353SOL    HW217834  13.493   7.952   6.885
 5354SOL     OW17835   7.665   1.507   8.448
 5354SOL    HW117836   7.594   1.563   8.415
 5354SOL    HW217837   7.621   1.428   8.478
 5355SOL     OW17838  11.901  11.962   9.967
 5355SOL    HW117839  11.973  11.916  10.011
 5355SOL    HW217840  11.912  11.940   9.874
 5356SOL     OW17841   8.046  13.228   4.573
 5356SOL    HW117842   7.980  13.265   4.632
 5356SOL    HW217843   8.096  13.304   4.543
 5357SOL     OW17844   5.674  11.606  11.704
 5357SOL    HW117845   5.719  11.673  11.756
 5357SOL    HW217846   5.599  11.579  11.757
 5358SOL     OW17847  10.001   1.801  12.494
 5358SOL    HW117848   9.976   1.756  12.575
 5358SOL    HW217849   9.982   1.739  12.424
 5359SOL     OW17850   3.226  13.721   0.097
 5359SOL    HW117851   3.285  13.656   0.059
 5359SOL    HW217852   3.230  13.795   0.037
 5360SOL     OW17853  14.421   5.495   2.831
 5360SOL    HW117854  14.452   5.446   2.907
 5360SOL    HW217855  14.411   5.585   2.864
 5361SOL     OW17856  14.810   4.534  14.764
 5361SOL    HW117857  14.723   4.495  14.763
 5361SOL    HW217858  14.848   4.506  14.848
 5362SOL     OW17859   7.760   4.922   9.140
 5362SOL    HW117860   7.795   4.963   9.061
 5362SOL    HW217861   7.726   4.837   9.110
 5363SOL     OW17862  12.118   7.764   0.243
 5363SOL    HW117863  12.178   7.764   0.168
 5363SOL    HW217864  12.153   7.831   0.302
 5364SOL     OW17865   2.129  12.361  14.153
 5364SOL    HW117866   2.049  12.309  14.143
 5364SOL    HW217867   2.170  12.357  14.066
 5365SOL     OW17868   7.901   7.427   7.796
 5365SOL    HW117869   7.979   7.381   7.765
 5365SOL    HW217870   7.871   7.477   7.720
 5366SOL     OW17871   4.046   1.307   1.127
 5366SOL    HW117872   4.049   1.274   1.217
 5366SOL    HW217873   4.077   1.397   1.134
 5367SOL     OW17874   9.060  11.521   8.641
 5367SOL    HW117875   8.985  11.467   8.666
 5367SOL    HW217876   9.066  11.587   8.710
 5368SOL     OW17877   2.771   9.809   5.493
 5368SOL    HW117878   2.814   9.724   5.492
 5368SOL    HW217879   2.733   9.818   5.405
 5369SOL     OW17880   3.709   8.770   0.605
 5369SOL    HW117881   3.619   8.737   0.614
 5369SOL    HW217882   3.702   8.843   0.544
 5370SOL     OW17883   9.396  10.017   0.308
 5370SOL    HW117884   9.373  10.109   0.302
 5370SOL    HW217885   9.473  10.008   0.251
 5371SOL     OW17886   0.267   4.354   6.607
 5371SOL    HW117887   0.332   4.388   6.669
 5371SOL    HW217888   0.308   4.278   6.567
 5372SOL     OW17889  11.413   2.493   7.639
 5372SOL    HW117890  11.363   2.525   7.564
 5372SOL    HW217891  11.350   2.441   7.689
 5373SOL     OW17892   4.304   8.913   1.443
 5373SOL    HW117893   4.333   8.894   1.533
 5373SOL    HW217894   4.359   8.986   1.415
 5374SOL     OW17895  10.399   8.976   1.960
 5374SOL    HW117896  10.434   8.931   2.037
 5374SOL    HW217897  10.351   9.050   1.995
 5375SOL     OW17898   2.358  11.000   7.829
 5375SOL    HW117899   2.380  11.026   7.739
 5375SOL    HW217900   2.382  10.908   7.834
 5376SOL     OW17901  10.401   1.259   6.626
 5376SOL    HW117902  10.409   1.198   6.700
 5376SOL    HW217903  10.352   1.210   6.560
 5377SOL     OW17904   2.604  14.509   3.397
 5377SOL    HW117905   2.597  14.601   3.420
 5377SOL    HW217906   2.619  14.508   3.302
 5378SOL     OW17907  13.239   9.148  12.191
 5378SOL    HW117908  13.212   9.239  12.197
 5378SOL    HW217909  13.159   9.098  12.206
 5379SOL     OW17910   6.621   4.204  12.546
 5379SOL    HW117911   6.598   4.135  12.609
 5379SOL    HW217912   6.710   4.181  12.518
 5380SOL     OW17913   5.824   1.395   0.433
 5380SOL    HW117914   5.763   1.420   0.364
 5380SOL    HW217915   5.768   1.367   0.506
 5381SOL     OW17916   3.938  13.025   1.281
 5381SOL    HW117917   3.956  13.106   1.235
 5381SOL    HW217918   3.996  13.027   1.357
 5382SOL     OW17919   3.139   8.801   3.262
 5382SOL    HW117920   3.071   8.755   3.214
 5382SOL    HW217921   3.201   8.830   3.195
 5383SOL     OW17922   6.846   5.497  12.330
 5383SOL    HW117923   6.818   5.415  12.290
 5383SOL    HW217924   6.912   5.472  12.395
 5384SOL     OW17925   8.161  14.751   9.938
 5384SOL    HW117926   8.205  14.833   9.914
 5384SOL    HW217927   8.184  14.737  10.030
 5385SOL     OW17928  14.301   7.782   7.023
 5385SOL    HW117929  14.357   7.765   6.947
 5385SOL    HW217930  14.358   7.828   7.084
 5386SOL     OW17931  13.996   7.488   2.004
 5386SOL    HW117932  14.065   7.491   1.939
 5386SOL    HW217933  14.032   7.436   2.076
 5387SOL     OW17934  10.547  11.522   5.304
 5387SOL    HW117935  10.472  11.471   5.274
 5387SOL    HW217936  10.580  11.474   5.380
 5388SOL     OW17937  14.794   4.593  13.178
 5388SOL    HW117938  14.754   4.541  13.109
 5388SOL    HW217939  14.785   4.540  13.257
 5389SOL     OW17940   2.325   8.739   3.019
 5389SOL    HW117941   2.290   8.669   3.074
 5389SOL    HW217942   2.398   8.774   3.070
 5390SOL     OW17943   7.012   6.277  14.662
 5390SOL    HW117944   7.027   6.294  14.754
 5390SOL    HW217945   6.954   6.347  14.633
 5391SOL     OW17946   3.899  11.181  12.086
 5391SOL    HW117947   3.921  11.091  12.111
 5391SOL    HW217948   3.852  11.215  12.162
 5392SOL     OW17949   1.164  14.367   4.389
 5392SOL    HW117950   1.106  14.361   4.465
 5392SOL    HW217951   1.135  14.445   4.343
 5393SOL     OW17952  14.862   0.247   5.741
 5393SOL    HW117953   0.066   0.223   5.784
 5393SOL    HW217954  14.801   0.176   5.762
 5394SOL     OW17955  10.813  14.403   3.547
 5394SOL    HW117956  10.754  14.473   3.575
 5394SOL    HW217957  10.799  14.332   3.609
 5395SOL     OW17958   6.924   9.758  12.199
 5395SOL    HW117959   6.942   9.667  12.177
 5395SOL    HW217960   6.953   9.767  12.289
 5396SOL     OW17961  12.870   6.733  13.210
 5396SOL    HW117962  12.826   6.653  13.180
 5396SOL    HW217963  12.938   6.749  13.144
 5397SOL     OW17964   2.692  13.814   1.094
 5397SOL    HW117965   2.739  13.838   1.174
 5397SOL    HW217966   2.603  13.846   1.108
 5398SOL     OW17967  11.729  11.363   6.228
 5398SOL    HW117968  11.716  11.269   6.217
 5398SOL    HW217969  11.674  11.403   6.160
 5399SOL     OW17970  10.234   7.123   7.880
 5399SOL    HW117971  10.162   7.064   7.859
 5399SOL    HW217972  10.207   7.207   7.844
 5400SOL     OW17973  11.070  11.218   2.502
 5400SOL    HW117974  11.125  11.246   2.428
 5400SOL    HW217975  11.013  11.294   2.519
 5401SOL     OW17976   3.575   7.878   5.565
 5401SOL    HW117977   3.633   7.952   5.548
 5401SOL    HW217978   3.489   7.918   5.580
 5402SOL     OW17979   3.192   6.523   4.263
 5402SOL    HW117980   3.116   6.467   4.249
 5402SOL    HW217981   3.178   6.597   4.203
 5403SOL     OW17982   0.770   9.603   5.877
 5403SOL    HW117983   0.807   9.517   5.897
 5403SOL    HW217984   0.800   9.660   5.948
 5404SOL     OW17985   0.768   0.723   5.176
 5404SOL    HW117986   0.716   0.791   5.133
 5404SOL    HW217987   0.817   0.770   5.244
 5405SOL     OW17988   1.644   2.100   7.815
 5405SOL    HW117989   1.574   2.036   7.822
 5405SOL    HW217990   1.617   2.172   7.872
 5406SOL     OW17991   2.686   1.418   9.587
 5406SOL    HW117992   2.674   1.351   9.520
 5406SOL    HW217993   2.651   1.498   9.548
 5407SOL     OW17994   6.621   6.991   8.608
 5407SOL    HW117995   6.578   6.909   8.633
 5407SOL    HW217996   6.557   7.059   8.627
 5408SOL     OW17997  11.053   1.532   8.762
 5408SOL    HW117998  10.974   1.536   8.816
 5408SOL    HW217999  11.033   1.468   8.694
 5409SOL     OW18000  14.753   2.324   2.686
 5409SOL    HW118001  14.811   2.271   2.740
 5409SOL    HW218002  14.711   2.261   2.627
 5410SOL     OW18003   2.763  12.158   4.463
 5410SOL    HW118004   2.760  12.159   4.368
 5410SOL    HW218005   2.848  12.197   4.485
 5411SOL     OW18006  12.539   3.480   9.524
 5411SOL    HW118007  12.606   3.417   9.497
 5411SOL    HW218008  12.588   3.561   9.538
 5412SOL     OW18009   4.469   6.437  10.600
 5412SOL    HW118010   4.558   6.409  10.623
 5412SOL    HW218011   4.431   6.360  10.557
 5413SOL     OW18012   7.426   0.736   2.337
 5413SOL    HW118013   7.374   0.669   2.382
 5413SOL    HW218014   7.489   0.766   2.402
 5414SOL     OW18015   3.337  14.008   9.385
 5414SOL    HW118016   3.402  13.945   9.418
 5414SOL    HW218017   3.353  14.088   9.435
 5415SOL     OW18018   4.791   9.878  14.544
 5415SOL    HW118019   4.833   9.903  14.462
 5415SOL    HW218020   4.766   9.962  14.584
 5416SOL     OW18021   1.055   5.670   9.489
 5416SOL    HW118022   1.060   5.747   9.432
 5416SOL    HW218023   1.056   5.595   9.429
 5417SOL     OW18024   2.429   7.938   8.218
 5417SOL    HW118025   2.505   7.975   8.263
 5417SOL    HW218026   2.448   7.949   8.125
 5418SOL     OW18027   0.479  10.490   9.805
 5418SOL    HW118028   0.467  10.400   9.776
 5418SOL    HW218029   0.469  10.542   9.725
 5419SOL     OW18030   1.410   0.987  10.780
 5419SOL    HW118031   1.472   1.050  10.744
 5419SOL    HW218032   1.447   0.961  10.864
 5420SOL     OW18033   8.879   3.723   5.709
 5420SOL    HW118034   8.938   3.653   5.682
 5420SOL    HW218035   8.792   3.682   5.707
 5421SOL     OW18036   6.502  13.796   3.502
 5421SOL    HW118037   6.571  13.860   3.520
 5421SOL    HW218038   6.490  13.800   3.407
 5422SOL     OW18039  14.424  14.736  11.901
 5422SOL    HW118040  14.424  14.825  11.866
 5422SOL    HW218041  14.498  14.693  11.859
 5423SOL     OW18042  10.490  12.085   2.133
 5423SOL    HW118043  10.504  12.078   2.039
 5423SOL    HW218044  10.454  12.173   2.146
 5424SOL     OW18045   3.185  13.234  14.156
 5424SOL    HW118046   3.108  13.215  14.211
 5424SOL    HW218047   3.191  13.329  14.156
 5425SOL     OW18048  10.433   7.576  10.259
 5425SOL    HW118049  10.390   7.492  10.242
 5425SOL    HW218050  10.372   7.624  10.314
 5426SOL     OW18051  12.875   8.736   0.192
 5426SOL    HW118052  12.876   8.831   0.206
 5426SOL    HW218053  12.786   8.717   0.161
 5427SOL     OW18054   3.497  14.565   0.258
 5427SOL    HW118055   3.406  14.533   0.253
 5427SOL    HW218056   3.493  14.638   0.319
 5428SOL     OW18057   4.796   4.417  11.608
 5428SOL    HW118058   4.752   4.450  11.529
 5428SOL    HW218059   4.727   4.417  11.675
 5429SOL     OW18060   3.819   2.925  12.058
 5429SOL    HW118061   3.890   2.878  12.015
 5429SOL    HW218062   3.739   2.886  12.022
 5430SOL     OW18063   7.434   5.970   4.057
 5430SOL    HW118064   7.479   5.922   4.127
 5430SOL    HW218065   7.496   6.038   4.032
 5431SOL     OW18066  12.481   5.558  12.752
 5431SOL    HW118067  12.413   5.491  12.741
 5431SOL    HW218068  12.528   5.531  12.831
 5432SOL     OW18069  14.080  13.223   8.270
 5432SOL    HW118070  14.159  13.238   8.217
 5432SOL    HW218071  14.109  13.164   8.340
 5433SOL     OW18072  13.353   4.134   2.093
 5433SOL    HW118073  13.389   4.218   2.120
 5433SOL    HW218074  13.384   4.072   2.158
 5434SOL     OW18075   7.802   5.990  10.499
 5434SOL    HW118076   7.790   5.912  10.553
 5434SOL    HW218077   7.737   5.982  10.430
 5435SOL     OW18078  12.589   5.834   2.963
 5435SOL    HW118079  12.556   5.906   2.910
 5435SOL    HW218080  12.535   5.836   3.042
 5436SOL     OW18081  10.603   2.112   4.136
 5436SOL    HW118082  10.605   2.161   4.218
 5436SOL    HW218083  10.529   2.149   4.088
 5437SOL     OW18084   9.265   5.425   5.599
 5437SOL    HW118085   9.219   5.351   5.560
 5437SOL    HW218086   9.294   5.478   5.524
 5438SOL     OW18087   3.368   2.461   8.987
 5438SOL    HW118088   3.272   2.465   8.976
 5438SOL    HW218089   3.398   2.548   8.962
 5439SOL     OW18090   1.753   3.084  11.273
 5439SOL    HW118091   1.751   3.177  11.250
 5439SOL    HW218092   1.843   3.068  11.300
 5440SOL     OW18093   7.090  14.423   4.521
 5440SOL    HW118094   7.141  14.342   4.522
 5440SOL    HW218095   7.013  14.402   4.468
 5441SOL     OW18096   7.320  12.482   5.453
 5441SOL    HW118097   7.374  12.483   5.532
 5441SOL    HW218098   7.377  12.516   5.385
 5442SOL     OW18099   5.070   8.473   4.440
 5442SOL    HW118100   4.977   8.493   4.442
 5442SOL    HW218101   5.090   8.442   4.529
 5443SOL     OW18102  12.264  13.111   7.484
 5443SOL    HW118103  12.195  13.166   7.520
 5443SOL    HW218104  12.277  13.043   7.551
 5444SOL     OW18105   7.617  10.832   8.197
 5444SOL    HW118106   7.626  10.860   8.106
 5444SOL    HW218107   7.638  10.910   8.248
 5445SOL     OW18108   7.470   0.069   0.452
 5445SOL    HW118109   7.511  14.877   0.503
 5445SOL    HW218110   7.519   0.148   0.475
 5446SOL     OW18111  12.361  10.153  13.877
 5446SOL    HW118112  12.431  10.190  13.823
 5446SOL    HW218113  12.365  10.059  13.861
 5447SOL     OW18114   2.892  12.363  13.841
 5447SOL    HW118115   2.840  12.443  13.837
 5447SOL    HW218116   2.983  12.393  13.833
 5448SOL     OW18117   9.070  12.830   0.245
 5448SOL    HW118118   9.040  12.740   0.252
 5448SOL    HW218119   9.077  12.860   0.336
 5449SOL     OW18120   8.431  12.341   7.219
 5449SOL    HW118121   8.388  12.264   7.181
 5449SOL    HW218122   8.475  12.383   7.145
 5450SOL     OW18123  14.550   6.033   8.028
 5450SOL    HW118124  14.470   6.059   8.072
 5450SOL    HW218125  14.522   5.971   7.961
 5451SOL     OW18126  10.411   7.144  11.395
 5451SOL    HW118127  10.486   7.203  11.394
 5451SOL    HW218128  10.386   7.135  11.303
 5452SOL     OW18129   8.627   8.832   1.416
 5452SOL    HW118130   8.585   8.871   1.492
 5452SOL    HW218131   8.589   8.744   1.410
 5453SOL     OW18132  10.380   7.492   8.387
 5453SOL    HW118133  10.439   7.465   8.457
 5453SOL    HW218134  10.352   7.581   8.411
 5454SOL     OW18135   7.640  13.028  13.847
 5454SOL    HW118136   7.602  13.068  13.768
 5454SOL    HW218137   7.674  12.944  13.817
 5455SOL     OW18138   4.024  14.014  12.939
 5455SOL    HW118139   4.015  14.107  12.960
 5455SOL    HW218140   3.935  13.979  12.944
 5456SOL     OW18141   6.160   5.894  11.146
 5456SOL    HW118142   6.089   5.953  11.120
 5456SOL    HW218143   6.171   5.836  11.070
 5457SOL     OW18144   8.395  11.212   3.964
 5457SOL    HW118145   8.409  11.119   3.945
 5457SOL    HW218146   8.440  11.258   3.893
 5458SOL     OW18147   4.379  13.646   6.072
 5458SOL    HW118148   4.362  13.643   6.166
 5458SOL    HW218149   4.306  13.697   6.036
 5459SOL     OW18150   2.035  11.886   9.594
 5459SOL    HW118151   2.047  11.963   9.650
 5459SOL    HW218152   2.122  11.871   9.555
 5460SOL     OW18153  13.391   3.246   7.910
 5460SOL    HW118154  13.334   3.206   7.844
 5460SOL    HW218155  13.349   3.330   7.929
 5461SOL     OW18156   4.024   8.145  14.553
 5461SOL    HW118157   4.091   8.156  14.486
 5461SOL    HW218158   3.955   8.096  14.510
 5462SOL     OW18159   7.028  14.440   8.190
 5462SOL    HW118160   7.019  14.459   8.096
 5462SOL    HW218161   7.078  14.514   8.225
 5463SOL     OW18162   3.894  12.831  13.184
 5463SOL    HW118163   3.937  12.904  13.139
 5463SOL    HW218164   3.857  12.778  13.114
 5464SOL     OW18165   3.798   3.912   5.941
 5464SOL    HW118166   3.803   3.979   5.874
 5464SOL    HW218167   3.888   3.879   5.949
 5465SOL     OW18168   8.710   7.440   2.355
 5465SOL    HW118169   8.665   7.487   2.425
 5465SOL    HW218170   8.753   7.508   2.303
 5466SOL     OW18171  14.163   3.904   7.499
 5466SOL    HW118172  14.077   3.940   7.523
 5466SOL    HW218173  14.196   3.865   7.580
 5467SOL     OW18174  10.877  11.311   5.897
 5467SOL    HW118175  10.814  11.380   5.919
 5467SOL    HW218176  10.863  11.243   5.963
 5468SOL     OW18177   5.022   1.909  10.808
 5468SOL    HW118178   5.058   1.969  10.743
 5468SOL    HW218179   5.022   1.959  10.890
 5469SOL     OW18180   0.248   4.020  11.039
 5469SOL    HW118181   0.173   4.005  10.981
 5469SOL    HW218182   0.216   4.081  11.105
 5470SOL     OW18183   3.677   2.568   7.834
 5470SOL    HW118184   3.622   2.532   7.764
 5470SOL    HW218185   3.697   2.492   7.889
 5471SOL     OW18186   4.957  14.686  11.738
 5471SOL    HW118187   5.039  14.666  11.783
 5471SOL    HW218188   4.941  14.779  11.759
 5472SOL     OW18189  13.627  12.969  12.554
 5472SOL    HW118190  13.580  13.046  12.586
 5472SOL    HW218191  13.591  12.953  12.467
 5473SOL     OW18192   2.076  12.287  11.080
 5473SOL    HW118193   2.103  12.321  10.995
 5473SOL    HW218194   2.139  12.218  11.099
 5474SOL     OW18195   5.403  12.749   9.538
 5474SOL    HW118196   5.342  12.762   9.466
 5474SOL    HW218197   5.414  12.654   9.544
 5475SOL     OW18198  10.704  11.470   2.750
 5475SOL    HW118199  10.751  11.446   2.830
 5475SOL    HW218200  10.771  11.466   2.681
 5476SOL     OW18201  14.849  10.195   3.433
 5476SOL    HW118202  14.864  10.286   3.459
 5476SOL    HW218203   0.003  10.190   3.343
 5477SOL     OW18204   4.442   1.743  13.687
 5477SOL    HW118205   4.347   1.757  13.690
 5477SOL    HW218206   4.470   1.786  13.606
 5478SOL     OW18207   2.822   4.289   8.104
 5478SOL    HW118208   2.733   4.317   8.127
 5478SOL    HW218209   2.839   4.333   8.020
 5479SOL     OW18210   2.197  11.820   1.427
 5479SOL    HW118211   2.161  11.765   1.497
 5479SOL    HW218212   2.121  11.859   1.384
 5480SOL     OW18213   7.163   6.647   9.579
 5480SOL    HW118214   7.216   6.642   9.500
 5480SOL    HW218215   7.145   6.555   9.602
 5481SOL     OW18216   2.625  10.831   6.982
 5481SOL    HW118217   2.697  10.893   6.992
 5481SOL    HW218218   2.564  10.874   6.922
 5482SOL     OW18219  14.427  11.761   1.118
 5482SOL    HW118220  14.372  11.738   1.044
 5482SOL    HW218221  14.514  11.776   1.079
 5483SOL     OW18222   0.810   5.923   0.836
 5483SOL    HW118223   0.814   5.863   0.911
 5483SOL    HW218224   0.838   5.870   0.762
 5484SOL     OW18225   3.019   0.380   9.828
 5484SOL    HW118226   3.047   0.296   9.864
 5484SOL    HW218227   3.065   0.387   9.744
 5485SOL     OW18228   1.233   6.543   3.096
 5485SOL    HW118229   1.179   6.572   3.170
 5485SOL    HW218230   1.172   6.496   3.039
 5486SOL     OW18231   3.364   1.035   0.545
 5486SOL    HW118232   3.359   1.069   0.455
 5486SOL    HW218233   3.399   0.947   0.535
 5487SOL     OW18234   8.450   8.240   7.992
 5487SOL    HW118235   8.478   8.224   8.082
 5487SOL    HW218236   8.449   8.154   7.951
 5488SOL     OW18237   9.497   3.003   1.554
 5488SOL    HW118238   9.524   2.985   1.464
 5488SOL    HW218239   9.402   3.014   1.549
 5489SOL     OW18240  11.250  11.616  10.003
 5489SOL    HW118241  11.278  11.679  10.070
 5489SOL    HW218242  11.259  11.531  10.046
 5490SOL     OW18243  10.244   1.773   6.686
 5490SOL    HW118244  10.297   1.694   6.673
 5490SOL    HW218245  10.202   1.788   6.602
 5491SOL     OW18246   4.364   8.990  12.435
 5491SOL    HW118247   4.289   8.933  12.454
 5491SOL    HW218248   4.412   8.994  12.517
 5492SOL     OW18249   7.966   4.021  13.236
 5492SOL    HW118250   7.921   3.942  13.206
 5492SOL    HW218251   7.900   4.090  13.228
 5493SOL     OW18252   6.191   1.725   0.097
 5493SOL    HW118253   6.247   1.791   0.055
 5493SOL    HW218254   6.221   1.642   0.061
 5494SOL     OW18255  13.606  12.688   2.660
 5494SOL    HW118256  13.543  12.642   2.605
 5494SOL    HW218257  13.684  12.633   2.659
 5495SOL     OW18258   9.763   6.954   8.667
 5495SOL    HW118259   9.750   6.988   8.578
 5495SOL    HW218260   9.691   6.990   8.718
 5496SOL     OW18261   2.989   7.837   9.704
 5496SOL    HW118262   3.065   7.882   9.667
 5496SOL    HW218263   2.915   7.865   9.651
 5497SOL     OW18264  11.884  13.431   5.049
 5497SOL    HW118265  11.812  13.495   5.049
 5497SOL    HW218266  11.840  13.346   5.044
 5498SOL     OW18267  13.251   9.431   5.385
 5498SOL    HW118268  13.181   9.443   5.450
 5498SOL    HW218269  13.247   9.338   5.362
 5499SOL     OW18270   9.675  11.857   3.306
 5499SOL    HW118271   9.718  11.942   3.299
 5499SOL    HW218272   9.703  11.809   3.228
 5500SOL     OW18273   3.179   6.114   0.625
 5500SOL    HW118274   3.234   6.133   0.549
 5500SOL    HW218275   3.192   6.021   0.642
 5501SOL     OW18276  14.124   5.148   3.820
 5501SOL    HW118277  14.108   5.216   3.754
 5501SOL    HW218278  14.057   5.082   3.803
 5502SOL     OW18279   0.076   5.745   7.110
 5502SOL    HW118280   0.062   5.659   7.148
 5502SOL    HW218281   0.019   5.804   7.160
 5503SOL     OW18282   1.762   9.185  13.336
 5503SOL    HW118283   1.799   9.208  13.251
 5503SOL    HW218284   1.686   9.242  13.345
 5504SOL     OW18285   1.260  10.082   4.511
 5504SOL    HW118286   1.284  10.009   4.567
 5504SOL    HW218287   1.178  10.115   4.547
 5505SOL     OW18288   0.527  14.273   1.806
 5505SOL    HW118289   0.616  14.255   1.777
 5505SOL    HW218290   0.484  14.310   1.729
 5506SOL     OW18291   5.885   0.004  10.001
 5506SOL    HW118292   5.973  14.865  10.036
 5506SOL    HW218293   5.892   0.089   9.958
 5507SOL     OW18294   0.617   5.955   9.022
 5507SOL    HW118295   0.526   5.943   8.995
 5507SOL    HW218296   0.630   6.050   9.020
 5508SOL     OW18297   5.239   3.917  13.245
 5508SOL    HW118298   5.260   3.991  13.188
 5508SOL    HW218299   5.293   3.931  13.323
 5509SOL     OW18300   7.969   0.503  14.641
 5509SOL    HW118301   7.967   0.510  14.545
 5509SOL    HW218302   7.889   0.454  14.662
 5510SOL     OW18303   6.970  13.713   5.931
 5510SOL    HW118304   6.945  13.627   5.896
 5510SOL    HW218305   6.920  13.775   5.879
 5511SOL     OW18306   1.036   9.956   6.115
 5511SOL    HW118307   1.029  10.015   6.190
 5511SOL    HW218308   1.102   9.892   6.141
 5512SOL     OW18309   2.681  12.906   9.720
 5512SOL    HW118310   2.649  12.978   9.774
 5512SOL    HW218311   2.609  12.887   9.660
 5513SOL     OW18312   1.989   9.338  10.206
 5513SOL    HW118313   1.907   9.383  10.224
 5513SOL    HW218314   1.980   9.309  10.115
 5514SOL     OW18315  14.810   7.308   4.639
 5514SOL    HW118316  14.770   7.283   4.556
 5514SOL    HW218317  14.751   7.275   4.706
 5515SOL     OW18318   7.178   8.106   4.769
 5515SOL    HW118319   7.085   8.127   4.759
 5515SOL    HW218320   7.185   8.071   4.858
 5516SOL     OW18321   7.519  11.131   1.136
 5516SOL    HW118322   7.554  11.046   1.109
 5516SOL    HW218323   7.597  11.184   1.157
 5517SOL     OW18324   2.922  12.698  10.348
 5517SOL    HW118325   2.974  12.765  10.391
 5517SOL    HW218326   2.947  12.703  10.256
 5518SOL     OW18327   7.977   6.705   4.278
 5518SOL    HW118328   8.054   6.708   4.220
 5518SOL    HW218329   7.930   6.626   4.250
 5519SOL     OW18330   6.110   5.170   3.136
 5519SOL    HW118331   6.041   5.103   3.132
 5519SOL    HW218332   6.076   5.235   3.196
 5520SOL     OW18333   0.690   7.642   1.384
 5520SOL    HW118334   0.713   7.576   1.450
 5520SOL    HW218335   0.757   7.710   1.394
 5521SOL     OW18336   6.480   9.301   9.419
 5521SOL    HW118337   6.472   9.247   9.340
 5521SOL    HW218338   6.399   9.284   9.467
 5522SOL     OW18339   1.966   1.952   8.866
 5522SOL    HW118340   2.029   2.001   8.920
 5522SOL    HW218341   2.021   1.892   8.814
 5523SOL     OW18342  12.845   5.768   9.621
 5523SOL    HW118343  12.922   5.812   9.585
 5523SOL    HW218344  12.840   5.797   9.712
 5524SOL     OW18345   1.673   3.316   9.852
 5524SOL    HW118346   1.689   3.388   9.912
 5524SOL    HW218347   1.665   3.239   9.909
 5525SOL     OW18348   3.275   3.226  12.671
 5525SOL    HW118349   3.337   3.233  12.599
 5525SOL    HW218350   3.327   3.243  12.750
 5526SOL     OW18351   4.812   1.885   4.206
 5526SOL    HW118352   4.721   1.891   4.176
 5526SOL    HW218353   4.806   1.883   4.301
 5527SOL     OW18354   4.020   3.708   1.888
 5527SOL    HW118355   4.069   3.702   1.806
 5527SOL    HW218356   4.033   3.624   1.931
 5528SOL     OW18357  13.982  13.945   2.290
 5528SOL    HW118358  13.966  13.891   2.213
 5528SOL    HW218359  14.032  14.020   2.258
 5529SOL     OW18360  10.333  12.354  13.449
 5529SOL    HW118361  10.366  12.408  13.521
 5529SOL    HW218362  10.312  12.270  13.490
 5530SOL     OW18363   8.650  12.646   5.533
 5530SOL    HW118364   8.692  12.644   5.447
 5530SOL    HW218365   8.682  12.567   5.577
 5531SOL     OW18366   5.223   2.058   5.906
 5531SOL    HW118367   5.219   2.083   5.998
 5531SOL    HW218368   5.132   2.040   5.883
 5532SOL     OW18369  11.554   6.613   3.664
 5532SOL    HW118370  11.460   6.599   3.651
 5532SOL    HW218371  11.595   6.540   3.617
 5533SOL     OW18372   5.278   4.438   0.318
 5533SOL    HW118373   5.267   4.497   0.244
 5533SOL    HW218374   5.198   4.385   0.318
 5534SOL     OW18375  12.494   2.982  11.880
 5534SOL    HW118376  12.407   2.947  11.860
 5534SOL    HW218377  12.509   2.958  11.971
 5535SOL     OW18378   7.112   2.701   4.646
 5535SOL    HW118379   7.182   2.688   4.582
 5535SOL    HW218380   7.155   2.695   4.731
 5536SOL     OW18381  12.736   3.815   7.555
 5536SOL    HW118382  12.735   3.896   7.606
 5536SOL    HW218383  12.677   3.756   7.601
 5537SOL     OW18384   4.438   3.222   9.533
 5537SOL    HW118385   4.414   3.129   9.536
 5537SOL    HW218386   4.518   3.227   9.587
 5538SOL     OW18387   5.002  10.386   4.357
 5538SOL    HW118388   5.079  10.443   4.364
 5538SOL    HW218389   5.034  10.300   4.384
 5539SOL     OW18390  12.907  10.836   5.268
 5539SOL    HW118391  12.942  10.765   5.214
 5539SOL    HW218392  12.984  10.875   5.309
 5540SOL     OW18393  12.886   3.963   1.974
 5540SOL    HW118394  12.931   3.991   1.894
 5540SOL    HW218395  12.796   3.993   1.963
 5541SOL     OW18396   6.154  12.860   6.925
 5541SOL    HW118397   6.116  12.813   6.852
 5541SOL    HW218398   6.093  12.846   6.998
 5542SOL     OW18399   8.045   2.400   8.462
 5542SOL    HW118400   8.070   2.367   8.549
 5542SOL    HW218401   8.123   2.446   8.431
 5543SOL     OW18402   6.528  11.189   1.418
 5543SOL    HW118403   6.518  11.231   1.503
 5543SOL    HW218404   6.439  11.167   1.391
 5544SOL     OW18405   6.039  14.343   8.620
 5544SOL    HW118406   6.099  14.418   8.622
 5544SOL    HW218407   6.091  14.271   8.586
 5545SOL     OW18408   7.536  11.133   6.237
 5545SOL    HW118409   7.554  11.042   6.260
 5545SOL    HW218410   7.442  11.136   6.219
 5546SOL     OW18411   5.617  13.732  14.384
 5546SOL    HW118412   5.586  13.771  14.466
 5546SOL    HW218413   5.669  13.657  14.411
 5547SOL     OW18414   5.150  10.483  12.691
 5547SOL    HW118415   5.159  10.388  12.680
 5547SOL    HW218416   5.057  10.500  12.678
 5548SOL     OW18417   9.308   6.370   7.555
 5548SOL    HW118418   9.302   6.466   7.549
 5548SOL    HW218419   9.229   6.344   7.603
 5549SOL     OW18420  14.258   7.980  11.758
 5549SOL    HW118421  14.338   7.928  11.766
 5549SOL    HW218422  14.268   8.026  11.675
 5550SOL     OW18423   7.973   5.007  14.472
 5550SOL    HW118424   7.992   4.968  14.386
 5550SOL    HW218425   8.056   5.003  14.519
 5551SOL     OW18426  11.059  12.532   3.914
 5551SOL    HW118427  10.991  12.595   3.937
 5551SOL    HW218428  11.012  12.450   3.901
 5552SOL     OW18429  12.062  13.999   0.270
 5552SOL    HW118430  11.968  13.980   0.266
 5552SOL    HW218431  12.089  14.004   0.178
 5553SOL     OW18432   9.168   6.301  10.437
 5553SOL    HW118433   9.215   6.329  10.359
 5553SOL    HW218434   9.228   6.240  10.481
 5554SOL     OW18435   1.940   7.035   4.650
 5554SOL    HW118436   1.871   6.978   4.683
 5554SOL    HW218437   1.895   7.098   4.593
 5555SOL     OW18438  13.889   2.192   3.130
 5555SOL    HW118439  13.939   2.151   3.200
 5555SOL    HW218440  13.952   2.244   3.082
 5556SOL     OW18441  12.220  13.460   1.063
 5556SOL    HW118442  12.131  13.483   1.090
 5556SOL    HW218443  12.220  13.365   1.057
 5557SOL     OW18444   1.934  14.318   9.991
 5557SOL    HW118445   1.960  14.410   9.986
 5557SOL    HW218446   1.892  14.310  10.077
 5558SOL     OW18447   1.712   0.937  14.080
 5558SOL    HW118448   1.795   0.975  14.107
 5558SOL    HW218449   1.657   0.942  14.158
 5559SOL     OW18450   3.069  13.941  12.307
 5559SOL    HW118451   2.986  13.974  12.273
 5559SOL    HW218452   3.047  13.905  12.393
 5560SOL     OW18453   5.676   6.525   6.019
 5560SOL    HW118454   5.631   6.495   5.940
 5560SOL    HW218455   5.749   6.463   6.030
 5561SOL     OW18456   4.098   4.657   5.106
 5561SOL    HW118457   4.148   4.706   5.172
 5561SOL    HW218458   4.116   4.565   5.126
 5562SOL     OW18459   0.718  14.553   7.542
 5562SOL    HW118460   0.799  14.506   7.520
 5562SOL    HW218461   0.726  14.571   7.636
 5563SOL     OW18462   8.945   6.440  10.390
 5563SOL    HW118463   8.915   6.420  10.479
 5563SOL    HW218464   9.040   6.431  10.394
 5564SOL     OW18465   5.303   2.854   0.527
 5564SOL    HW118466   5.232   2.894   0.477
 5564SOL    HW218467   5.318   2.770   0.484
 5565SOL     OW18468   4.949  12.016  13.557
 5565SOL    HW118469   4.999  11.955  13.503
 5565SOL    HW218470   4.860  12.009  13.524
 5566SOL     OW18471   1.248   2.780   7.711
 5566SOL    HW118472   1.339   2.752   7.722
 5566SOL    HW218473   1.220   2.739   7.630
 5567SOL     OW18474   6.845   0.940  13.104
 5567SOL    HW118475   6.801   0.981  13.030
 5567SOL    HW218476   6.822   0.995  13.179
 5568SOL     OW18477   3.868   2.937   3.896
 5568SOL    HW118478   3.899   2.936   3.986
 5568SOL    HW218479   3.925   2.875   3.850
 5569SOL     OW18480   2.216  14.313  12.431
 5569SOL    HW118481   2.185  14.403  12.433
 5569SOL    HW218482   2.241  14.294  12.522
 5570SOL     OW18483   8.932  13.158  10.883
 5570SOL    HW118484   8.911  13.241  10.842
 5570SOL    HW218485   8.878  13.155  10.962
 5571SOL     OW18486   1.742   2.566   1.175
 5571SOL    HW118487   1.682   2.554   1.101
 5571SOL    HW218488   1.788   2.648   1.155
 5572SOL     OW18489  13.466   9.978  13.841
 5572SOL    HW118490  13.503   9.897  13.806
 5572SOL    HW218491  13.531  10.008  13.905
 5573SOL     OW18492   0.048   3.172  13.310
 5573SOL    HW118493   0.095   3.107  13.258
 5573SOL    HW218494   0.033   3.131  13.395
 5574SOL     OW18495   8.216   1.814   1.694
 5574SOL    HW118496   8.202   1.820   1.788
 5574SOL    HW218497   8.154   1.877   1.656
 5575SOL     OW18498   8.450   2.957  12.233
 5575SOL    HW118499   8.437   3.019  12.305
 5575SOL    HW218500   8.365   2.953  12.190
 5576SOL     OW18501  12.467   1.928  13.371
 5576SOL    HW118502  12.485   1.856  13.432
 5576SOL    HW218503  12.535   1.921  13.304
 5577SOL     OW18504   2.797  14.735   4.339
 5577SOL    HW118505   2.888  14.707   4.349
 5577SOL    HW218506   2.767  14.690   4.261
 5578SOL     OW18507  13.259  14.366  14.064
 5578SOL    HW118508  13.288  14.430  14.129
 5578SOL    HW218509  13.191  14.315  14.109
 5579SOL     OW18510   3.682   3.425   0.651
 5579SOL    HW118511   3.771   3.455   0.633
 5579SOL    HW218512   3.645   3.405   0.565
 5580SOL     OW18513   0.824   6.263   1.785
 5580SOL    HW118514   0.917   6.286   1.782
 5580SOL    HW218515   0.784   6.329   1.841
 5581SOL     OW18516  13.083   0.007   2.461
 5581SOL    HW118517  13.144   0.041   2.527
 5581SOL    HW218518  13.136  14.876   2.382
 5582SOL     OW18519  12.062   1.189  13.059
 5582SOL    HW118520  12.078   1.176  12.965
 5582SOL    HW218521  11.971   1.217  13.064
 5583SOL     OW18522   5.239  13.221   7.502
 5583SOL    HW118523   5.147  13.194   7.506
 5583SOL    HW218524   5.237  13.302   7.451
 5584SOL     OW18525  14.842  12.631   4.348
 5584SOL    HW118526   0.024  12.698   4.381
 5584SOL    HW218527   0.019  12.553   4.338
 5585SOL     OW18528   2.723   5.550  11.421
 5585SOL    HW118529   2.814   5.537  11.447
 5585SOL    HW218530   2.702   5.639  11.450
 5586SOL     OW18531   8.950   2.554  13.336
 5586SOL    HW118532   8.890   2.621  13.304
 5586SOL    HW218533   8.932   2.549  13.430
 5587SOL     OW18534   4.862   3.892   2.685
 5587SOL    HW118535   4.878   3.801   2.708
 5587SOL    HW218536   4.776   3.891   2.642
 5588SOL     OW18537   1.578   8.152   6.413
 5588SOL    HW118538   1.542   8.064   6.400
 5588SOL    HW218539   1.527   8.188   6.485
 5589SOL     OW18540   9.403  14.562   3.454
 5589SOL    HW118541   9.446  14.582   3.537
 5589SOL    HW218542   9.401  14.467   3.449
 5590SOL     OW18543   1.522   0.262   1.610
 5590SOL    HW118544   1.540   0.284   1.702
 5590SOL    HW218545   1.432   0.292   1.596
 5591SOL     OW18546   2.165  12.464   6.887
 5591SOL    HW118547   2.167  12.369   6.890
 5591SOL    HW218548   2.170  12.485   6.793
 5592SOL     OW18549   1.993  11.886   1.195
 5592SOL    HW118550   1.925  11.825   1.164
 5592SOL    HW218551   2.011  11.942   1.119
 5593SOL     OW18552   0.217   6.217  11.905
 5593SOL    HW118553   0.250   6.127  11.901
 5593SOL    HW218554   0.128   6.209  11.940
 5594SOL     OW18555  12.838   7.009   8.687
 5594SOL    HW118556  12.778   6.986   8.615
 5594SOL    HW218557  12.813   6.950   8.758
 5595SOL     OW18558  11.521   7.375   0.465
 5595SOL    HW118559  11.485   7.296   0.424
 5595SOL    HW218560  11.500   7.366   0.558
 5596SOL     OW18561  13.532   9.119   3.856
 5596SOL    HW118562  13.463   9.179   3.827
 5596SOL    HW218563  13.566   9.159   3.936
 5597SOL     OW18564   6.729   5.849  14.132
 5597SOL    HW118565   6.822   5.849  14.151
 5597SOL    HW218566   6.705   5.756  14.130
 5598SOL     OW18567   9.566   4.573   3.167
 5598SOL    HW118568   9.534   4.498   3.117
 5598SOL    HW218569   9.508   4.645   3.143
 5599SOL     OW18570   5.050   1.345   6.087
 5599SOL    HW118571   4.995   1.386   6.154
 5599SOL    HW218572   5.087   1.419   6.038
 5600SOL     OW18573  14.028  11.617   5.553
 5600SOL    HW118574  14.122  11.609   5.566
 5600SOL    HW218575  14.017  11.614   5.458
 5601SOL     OW18576   0.332   6.537   4.269
 5601SOL    HW118577   0.347   6.518   4.361
 5601SOL    HW218578   0.415   6.575   4.238
 5602SOL     OW18579  10.891   2.412   7.993
 5602SOL    HW118580  10.908   2.502   7.964
 5602SOL    HW218581  10.969   2.388   8.042
 5603SOL     OW18582   0.210   2.342   8.146
 5603SOL    HW118583   0.302   2.318   8.129
 5603SOL    HW218584   0.168   2.335   8.060
 5604SOL     OW18585  11.585  12.155  10.845
 5604SOL    HW118586  11.566  12.167  10.938
 5604SOL    HW218587  11.556  12.237  10.804
 5605SOL     OW18588   8.694   4.333  14.476
 5605SOL    HW118589   8.747   4.268  14.430
 5605SOL    HW218590   8.756   4.380  14.532
 5606SOL     OW18591   5.762   3.964   0.517
 5606SOL    HW118592   5.708   3.885   0.529
 5606SOL    HW218593   5.711   4.034   0.557
 5607SOL     OW18594   2.590   8.508   9.202
 5607SOL    HW118595   2.605   8.593   9.244
 5607SOL    HW218596   2.564   8.530   9.113
 5608SOL     OW18597   8.883  10.825   0.140
 5608SOL    HW118598   8.966  10.858   0.176
 5608SOL    HW218599   8.905  10.741   0.101
 5609SOL     OW18600   1.178   5.564  13.204
 5609SOL    HW118601   1.238   5.490  13.215
 5609SOL    HW218602   1.200   5.623  13.276
 5610SOL     OW18603   4.185  11.193   6.386
 5610SOL    HW118604   4.200  11.248   6.463
 5610SOL    HW218605   4.273  11.167   6.358
 5611SOL     OW18606   8.162   1.899   4.587
 5611SOL    HW118607   8.069   1.901   4.607
 5611SOL    HW218608   8.205   1.909   4.673
 5612SOL     OW18609   0.089  12.241   2.561
 5612SOL    HW118610   0.049  12.156   2.539
 5612SOL    HW218611   0.183  12.224   2.560
 5613SOL     OW18612   7.248   9.563  12.597
 5613SOL    HW118613   7.186   9.551  12.669
 5613SOL    HW218614   7.246   9.479  12.550
 5614SOL     OW18615   4.011  12.505  10.988
 5614SOL    HW118616   4.002  12.597  10.963
 5614SOL    HW218617   4.022  12.458  10.905
 5615SOL     OW18618   4.042  11.921  11.887
 5615SOL    HW118619   4.049  11.966  11.971
 5615SOL    HW218620   4.058  11.988  11.821
 5616SOL     OW18621   8.152  14.762   2.624
 5616SOL    HW118622   8.062  14.765   2.658
 5616SOL    HW218623   8.172  14.853   2.602
 5617SOL     OW18624   2.320  13.894   9.997
 5617SOL    HW118625   2.403  13.934  10.021
 5617SOL    HW218626   2.329  13.874   9.904
 5618SOL     OW18627   1.686   5.437   5.524
 5618SOL    HW118628   1.605   5.457   5.570
 5618SOL    HW218629   1.748   5.503   5.554
 5619SOL     OW18630   1.491   2.396   7.637
 5619SOL    HW118631   1.479   2.448   7.558
 5619SOL    HW218632   1.490   2.461   7.708
 5620SOL     OW18633   4.922   9.388   2.826
 5620SOL    HW118634   4.950   9.479   2.835
 5620SOL    HW218635   5.003   9.337   2.837
 5621SOL     OW18636  13.527  11.915  10.622
 5621SOL    HW118637  13.484  11.969  10.556
 5621SOL    HW218638  13.552  11.976  10.691
 5622SOL     OW18639  10.479   0.032  13.936
 5622SOL    HW118640  10.520   0.016  13.851
 5622SOL    HW218641  10.454  14.822  13.967
 5623SOL     OW18642   0.271   0.350  13.191
 5623SOL    HW118643   0.254   0.357  13.097
 5623SOL    HW218644   0.209   0.412  13.232
 5624SOL     OW18645   4.734   0.456   5.273
 5624SOL    HW118646   4.829   0.442   5.277
 5624SOL    HW218647   4.708   0.423   5.187
 5625SOL     OW18648  12.873   1.176   2.820
 5625SOL    HW118649  12.796   1.219   2.784
 5625SOL    HW218650  12.838   1.112   2.882
 5626SOL     OW18651   6.284   7.571   0.919
 5626SOL    HW118652   6.316   7.581   0.829
 5626SOL    HW218653   6.353   7.522   0.964
 5627SOL     OW18654   4.110   5.253   3.998
 5627SOL    HW118655   4.186   5.293   3.957
 5627SOL    HW218656   4.037   5.311   3.977
 5628SOL     OW18657   2.431   5.911  14.513
 5628SOL    HW118658   2.467   5.832  14.471
 5628SOL    HW218659   2.418   5.972  14.441
 5629SOL     OW18660  13.887   4.990   9.127
 5629SOL    HW118661  13.945   5.024   9.195
 5629SOL    HW218662  13.838   4.920   9.171
 5630SOL     OW18663   6.789  11.585  13.909
 5630SOL    HW118664   6.719  11.587  13.844
 5630SOL    HW218665   6.818  11.494  13.911
 5631SOL     OW18666   9.965   6.168   0.897
 5631SOL    HW118667   9.992   6.227   0.827
 5631SOL    HW218668   9.870   6.178   0.901
 5632SOL     OW18669   2.137  10.674  12.158
 5632SOL    HW118670   2.127  10.630  12.242
 5632SOL    HW218671   2.230  10.700  12.155
 5633SOL     OW18672   2.527   3.108   7.226
 5633SOL    HW118673   2.582   3.185   7.233
 5633SOL    HW218674   2.457   3.122   7.290
 5634SOL     OW18675   8.908  14.669   1.590
 5634SOL    HW118676   8.891  14.620   1.510
 5634SOL    HW218677   8.828  14.720   1.604
 5635SOL     OW18678   2.007   5.832   7.804
 5635SOL    HW118679   1.950   5.905   7.776
 5635SOL    HW218680   1.951   5.778   7.859
 5636SOL     OW18681  14.859   9.995   9.703
 5636SOL    HW118682  14.809   9.933   9.650
 5636SOL    HW218683   0.065   9.952   9.717
 5637SOL     OW18684   4.623   3.070  11.086
 5637SOL    HW118685   4.568   2.996  11.110
 5637SOL    HW218686   4.611   3.081  10.992
 5638SOL     OW18687   8.096   9.372  12.173
 5638SOL    HW118688   8.116   9.452  12.124
 5638SOL    HW218689   8.177   9.352  12.221
 5639SOL     OW18690   8.310  14.298   3.107
 5639SOL    HW118691   8.364  14.229   3.068
 5639SOL    HW218692   8.226  14.256   3.125
 5640SOL     OW18693   4.491  10.813   9.188
 5640SOL    HW118694   4.511  10.897   9.228
 5640SOL    HW218695   4.540  10.813   9.106
 5641SOL     OW18696   0.024   5.165   5.042
 5641SOL    HW118697  14.842   5.094   5.020
 5641SOL    HW218698  14.849   5.244   5.036
 5642SOL     OW18699   1.068   4.083   4.710
 5642SOL    HW118700   0.999   4.020   4.688
 5642SOL    HW218701   1.056   4.154   4.647
 5643SOL     OW18702   6.224   9.429  10.836
 5643SOL    HW118703   6.253   9.417  10.926
 5643SOL    HW218704   6.148   9.488  10.844
 5644SOL     OW18705  13.598  11.042  12.364
 5644SOL    HW118706  13.583  11.094  12.285
 5644SOL    HW218707  13.678  10.993  12.345
 5645SOL     OW18708   4.909   5.855   8.554
 5645SOL    HW118709   4.901   5.843   8.649
 5645SOL    HW218710   4.827   5.895   8.528
 5646SOL     OW18711   7.505   7.165   6.963
 5646SOL    HW118712   7.564   7.235   6.936
 5646SOL    HW218713   7.561   7.101   7.006
 5647SOL     OW18714   0.920   9.649   0.507
 5647SOL    HW118715   0.985   9.582   0.531
 5647SOL    HW218716   0.898   9.692   0.589
 5648SOL     OW18717   9.592   3.358  12.501
 5648SOL    HW118718   9.676   3.389  12.533
 5648SOL    HW218719   9.544   3.438  12.478
 5649SOL     OW18720  12.947  13.982   0.466
 5649SOL    HW118721  13.018  13.995   0.529
 5649SOL    HW218722  12.931  13.887   0.467
 5650SOL     OW18723  14.041   1.862   5.593
 5650SOL    HW118724  14.083   1.779   5.571
 5650SOL    HW218725  13.956   1.837   5.631
 5651SOL     OW18726   2.829  11.942   3.943
 5651SOL    HW118727   2.891  11.870   3.957
 5651SOL    HW218728   2.786  11.920   3.860
 5652SOL     OW18729  12.330   6.284   3.942
 5652SOL    HW118730  12.314   6.339   4.019
 5652SOL    HW218731  12.243   6.261   3.911
 5653SOL     OW18732  10.379   8.766   4.667
 5653SOL    HW118733  10.468   8.778   4.634
 5653SOL    HW218734  10.334   8.720   4.597
 5654SOL     OW18735  13.047   8.109   3.859
 5654SOL    HW118736  13.022   8.176   3.795
 5654SOL    HW218737  13.067   8.158   3.939
 5655SOL     OW18738   3.240  10.908   4.118
 5655SOL    HW118739   3.330  10.877   4.124
 5655SOL    HW218740   3.199  10.880   4.200
 5656SOL     OW18741   4.926   8.876   6.313
 5656SOL    HW118742   4.835   8.880   6.286
 5656SOL    HW218743   4.954   8.788   6.290
 5657SOL     OW18744  13.843   3.763  13.357
 5657SOL    HW118745  13.882   3.740  13.272
 5657SOL    HW218746  13.818   3.679  13.395
 5658SOL     OW18747   0.577   5.483   5.500
 5658SOL    HW118748   0.529   5.500   5.581
 5658SOL    HW218749   0.515   5.436   5.445
 5659SOL     OW18750  10.809  10.525  11.190
 5659SOL    HW118751  10.882  10.479  11.148
 5659SOL    HW218752  10.823  10.617  11.168
 5660SOL     OW18753   5.530   5.529   8.601
 5660SOL    HW118754   5.551   5.574   8.519
 5660SOL    HW218755   5.532   5.598   8.667
 5661SOL     OW18756   6.836   3.395   3.239
 5661SOL    HW118757   6.874   3.311   3.211
 5661SOL    HW218758   6.745   3.375   3.258
 5662SOL     OW18759   8.077   0.524  10.016
 5662SOL    HW118760   8.171   0.532   9.997
 5662SOL    HW218761   8.034   0.576   9.949
 5663SOL     OW18762   2.555   4.811  10.030
 5663SOL    HW118763   2.576   4.770   9.947
 5663SOL    HW218764   2.493   4.881  10.007
 5664SOL     OW18765   7.668   2.257   8.292
 5664SOL    HW118766   7.585   2.304   8.285
 5664SOL    HW218767   7.660   2.186   8.229
 5665SOL     OW18768   5.337   1.186   8.527
 5665SOL    HW118769   5.292   1.237   8.594
 5665SOL    HW218770   5.275   1.182   8.454
 5666SOL     OW18771   4.521  14.762   2.275
 5666SOL    HW118772   4.431  14.749   2.246
 5666SOL    HW218773   4.546  14.679   2.315
 5667SOL     OW18774   2.160  11.094  14.292
 5667SOL    HW118775   2.080  11.055  14.257
 5667SOL    HW218776   2.190  11.153  14.223
 5668SOL     OW18777   5.031   2.921  10.937
 5668SOL    HW118778   4.950   2.960  10.903
 5668SOL    HW218779   5.063   2.866  10.865
 5669SOL     OW18780   5.995   0.373   0.998
 5669SOL    HW118781   5.942   0.451   1.006
 5669SOL    HW218782   6.022   0.353   1.087
 5670SOL     OW18783  12.406   6.813   3.788
 5670SOL    HW118784  12.464   6.852   3.722
 5670SOL    HW218785  12.444   6.839   3.872
 5671SOL     OW18786   5.500  13.972   2.035
 5671SOL    HW118787   5.567  13.904   2.033
 5671SOL    HW218788   5.473  13.983   1.944
 5672SOL     OW18789   6.650   7.135   7.008
 5672SOL    HW118790   6.715   7.188   7.052
 5672SOL    HW218791   6.663   7.153   6.915
 5673SOL     OW18792   3.020  13.752   6.463
 5673SOL    HW118793   3.015  13.658   6.477
 5673SOL    HW218794   2.954  13.789   6.522
 5674SOL     OW18795  10.251   0.761   9.693
 5674SOL    HW118796  10.172   0.811   9.674
 5674SOL    HW218797  10.228   0.670   9.673
 5675SOL     OW18798   8.461   8.587   0.077
 5675SOL    HW118799   8.474   8.505   0.028
 5675SOL    HW218800   8.547   8.606   0.114
 5676SOL     OW18801   9.169   3.997   8.466
 5676SOL    HW118802   9.151   4.059   8.536
 5676SOL    HW218803   9.232   3.936   8.504
 5677SOL     OW18804  10.430   9.231   7.706
 5677SOL    HW118805  10.512   9.251   7.660
 5677SOL    HW218806  10.418   9.303   7.767
 5678SOL     OW18807  10.553   1.662   5.025
 5678SOL    HW118808  10.613   1.592   5.050
 5678SOL    HW218809  10.526   1.702   5.107
 5679SOL     OW18810   4.268   6.604  11.351
 5679SOL    HW118811   4.209   6.657  11.405
 5679SOL    HW218812   4.276   6.521  11.399
 5680SOL     OW18813   4.605  10.176   1.018
 5680SOL    HW118814   4.527  10.158   1.072
 5680SOL    HW218815   4.574  10.239   0.953
 5681SOL     OW18816   6.901   6.303  13.641
 5681SOL    HW118817   6.912   6.290  13.547
 5681SOL    HW218818   6.822   6.357  13.649
 5682SOL     OW18819  12.353   0.706   3.983
 5682SOL    HW118820  12.417   0.668   4.044
 5682SOL    HW218821  12.334   0.637   3.920
 5683SOL     OW18822   6.452   9.351   1.698
 5683SOL    HW118823   6.535   9.306   1.718
 5683SOL    HW218824   6.442   9.343   1.604
 5684SOL     OW18825   3.691  13.130   2.817
 5684SOL    HW118826   3.775  13.175   2.805
 5684SOL    HW218827   3.640  13.188   2.874
 5685SOL     OW18828   1.530   1.350   7.579
 5685SOL    HW118829   1.492   1.268   7.548
 5685SOL    HW218830   1.622   1.344   7.555
 5686SOL     OW18831  10.759   2.766   3.372
 5686SOL    HW118832  10.686   2.827   3.359
 5686SOL    HW218833  10.721   2.691   3.416
 5687SOL     OW18834  14.152   7.444   8.412
 5687SOL    HW118835  14.172   7.422   8.322
 5687SOL    HW218836  14.235   7.431   8.459
 5688SOL     OW18837  10.659   7.152   4.144
 5688SOL    HW118838  10.679   7.094   4.218
 5688SOL    HW218839  10.737   7.208   4.136
 5689SOL     OW18840   9.720   2.767  11.661
 5689SOL    HW118841   9.731   2.826  11.587
 5689SOL    HW218842   9.652   2.807  11.715
 5690SOL     OW18843   0.016  10.975   0.468
 5690SOL    HW118844  14.839  10.938   0.400
 5690SOL    HW218845   0.053  10.899   0.513
 5691SOL     OW18846   5.379   2.262   5.738
 5691SOL    HW118847   5.336   2.311   5.808
 5691SOL    HW218848   5.360   2.170   5.757
 5692SOL     OW18849   0.705   3.367  10.843
 5692SOL    HW118850   0.774   3.433  10.839
 5692SOL    HW218851   0.752   3.284  10.842
 5693SOL     OW18852  13.144   4.040   6.911
 5693SOL    HW118853  13.118   4.105   6.846
 5693SOL    HW218854  13.096   3.961   6.887
 5694SOL     OW18855   8.966   9.937  10.503
 5694SOL    HW118856   8.962  10.019  10.553
 5694SOL    HW218857   8.963   9.868  10.569
 5695SOL     OW18858   0.728   6.150   9.751
 5695SOL    HW118859   0.735   6.097   9.830
 5695SOL    HW218860   0.819   6.166   9.725
 5696SOL     OW18861  12.900   1.781   3.239
 5696SOL    HW118862  12.946   1.864   3.226
 5696SOL    HW218863  12.943   1.721   3.178
 5697SOL     OW18864  14.202  10.942  10.209
 5697SOL    HW118865  14.284  10.904  10.177
 5697SOL    HW218866  14.155  10.969  10.130
 5698SOL     OW18867  13.305  10.055   2.529
 5698SOL    HW118868  13.317  10.101   2.612
 5698SOL    HW218869  13.282  10.123   2.466
 5699SOL     OW18870   8.721   9.406   6.613
 5699SOL    HW118871   8.654   9.344   6.586
 5699SOL    HW218872   8.755   9.371   6.695
 5700SOL     OW18873   9.735   4.309  11.015
 5700SOL    HW118874   9.830   4.318  11.014
 5700SOL    HW218875   9.711   4.318  11.107
 5701SOL     OW18876  13.105   1.267  13.860
 5701SOL    HW118877  13.189   1.299  13.894
 5701SOL    HW218878  13.120   1.252  13.767
 5702SOL     OW18879   4.325   4.263   0.703
 5702SOL    HW118880   4.343   4.241   0.612
 5702SOL    HW218881   4.352   4.185   0.752
 5703SOL     OW18882   5.388   1.672   8.368
 5703SOL    HW118883   5.419   1.753   8.408
 5703SOL    HW218884   5.437   1.602   8.412
 5704SOL     OW18885  10.800   6.568  10.378
 5704SOL    HW118886  10.734   6.506  10.347
 5704SOL    HW218887  10.749   6.635  10.424
 5705SOL     OW18888   3.832   2.374  11.936
 5705SOL    HW118889   3.838   2.468  11.922
 5705SOL    HW218890   3.804   2.339  11.851
 5706SOL     OW18891  13.865   5.911  12.242
 5706SOL    HW118892  13.886   5.911  12.149
 5706SOL    HW218893  13.773   5.882  12.245
 5707SOL     OW18894  12.520  10.805   9.039
 5707SOL    HW118895  12.552  10.718   9.016
 5707SOL    HW218896  12.600  10.857   9.054
 5708SOL     OW18897   2.019  13.917  12.732
 5708SOL    HW118898   2.102  13.884  12.766
 5708SOL    HW218899   2.039  14.006  12.702
 5709SOL     OW18900  13.833   0.310  10.784
 5709SOL    HW118901  13.782   0.384  10.817
 5709SOL    HW218902  13.783   0.233  10.810
 5710SOL     OW18903  11.673   8.116   8.420
 5710SOL    HW118904  11.699   8.025   8.428
 5710SOL    HW218905  11.744   8.157   8.372
 5711SOL     OW18906  11.289   9.264  11.270
 5711SOL    HW118907  11.205   9.308  11.257
 5711SOL    HW218908  11.267   9.187  11.322
 5712SOL     OW18909   7.731  11.544   2.165
 5712SOL    HW118910   7.798  11.612   2.160
 5712SOL    HW218911   7.773  11.466   2.127
 5713SOL     OW18912   2.129   1.841   6.669
 5713SOL    HW118913   2.051   1.827   6.616
 5713SOL    HW218914   2.149   1.755   6.705
 5714SOL     OW18915   9.028   1.056  11.611
 5714SOL    HW118916   8.952   1.109  11.584
 5714SOL    HW218917   9.089   1.064  11.538
 5715SOL     OW18918   9.520  11.995  14.173
 5715SOL    HW118919   9.486  11.973  14.086
 5715SOL    HW218920   9.595  11.936  14.185
 5716SOL     OW18921  10.539  10.312  12.286
 5716SOL    HW118922  10.616  10.337  12.235
 5716SOL    HW218923  10.536  10.217  12.280
 5717SOL     OW18924  13.171   5.242  12.713
 5717SOL    HW118925  13.099   5.185  12.742
 5717SOL    HW218926  13.136   5.330  12.721
 5718SOL     OW18927   7.523   1.205   7.293
 5718SOL    HW118928   7.613   1.189   7.264
 5718SOL    HW218929   7.471   1.196   7.213
 5719SOL     OW18930  10.221   8.606  11.207
 5719SOL    HW118931  10.148   8.545  11.199
 5719SOL    HW218932  10.287   8.558  11.257
 5720SOL     OW18933   4.986   4.449   4.826
 5720SOL    HW118934   4.929   4.397   4.882
 5720SOL    HW218935   4.958   4.428   4.736
 5721SOL     OW18936   3.008   1.171   6.024
 5721SOL    HW118937   2.924   1.207   5.996
 5721SOL    HW218938   3.056   1.247   6.057
 5722SOL     OW18939   2.378   0.539   6.513
 5722SOL    HW118940   2.283   0.537   6.527
 5722SOL    HW218941   2.396   0.630   6.490
 5723SOL     OW18942   6.714  12.870   5.270
 5723SOL    HW118943   6.678  12.959   5.263
 5723SOL    HW218944   6.805  12.879   5.242
 5724SOL     OW18945  13.503   7.718   5.654
 5724SOL    HW118946  13.521   7.663   5.577
 5724SOL    HW218947  13.419   7.760   5.634
 5725SOL     OW18948   9.964   1.252   9.915
 5725SOL    HW118949  10.026   1.201   9.864
 5725SOL    HW218950   9.964   1.338   9.873
 5726SOL     OW18951   0.652   3.854   8.738
 5726SOL    HW118952   0.616   3.914   8.803
 5726SOL    HW218953   0.586   3.851   8.669
 5727SOL     OW18954   1.302   3.273   4.512
 5727SOL    HW118955   1.237   3.219   4.557
 5727SOL    HW218956   1.256   3.352   4.487
 5728SOL     OW18957   8.239   1.209  10.757
 5728SOL    HW118958   8.206   1.272  10.822
 5728SOL    HW218959   8.245   1.126  10.805
 5729SOL     OW18960   7.225   9.769  14.577
 5729SOL    HW118961   7.304   9.783  14.525
 5729SOL    HW218962   7.243   9.689  14.626
 5730SOL     OW18963   9.624  14.654   8.812
 5730SOL    HW118964   9.558  14.723   8.801
 5730SOL    HW218965   9.578  14.583   8.856
 5731SOL     OW18966  11.412  14.532   9.153
 5731SOL    HW118967  11.377  14.453   9.112
 5731SOL    HW218968  11.482  14.560   9.095
 5732SOL     OW18969   2.142   9.022  14.237
 5732SOL    HW118970   2.134   9.001  14.331
 5732SOL    HW218971   2.221   9.075  14.231
 5733SOL     OW18972   6.379  11.725   8.602
 5733SOL    HW118973   6.430  11.644   8.594
 5733SOL    HW218974   6.395  11.772   8.521
 5734SOL     OW18975   3.521   6.215   2.105
 5734SOL    HW118976   3.439   6.261   2.090
 5734SOL    HW218977   3.589   6.275   2.073
 5735SOL     OW18978   9.145  12.703  10.370
 5735SOL    HW118979   9.165  12.613  10.395
 5735SOL    HW218980   9.050  12.704  10.360
 5736SOL     OW18981  14.827   2.258  11.860
 5736SOL    HW118982  14.873   2.174  11.872
 5736SOL    HW218983  14.740   2.243  11.898
 5737SOL     OW18984   6.466   3.287  10.718
 5737SOL    HW118985   6.378   3.314  10.745
 5737SOL    HW218986   6.498   3.233  10.791
 5738SOL     OW18987   6.256   2.933  13.059
 5738SOL    HW118988   6.332   2.955  13.113
 5738SOL    HW218989   6.220   2.854  13.098
 5739SOL     OW18990   5.067   9.131  13.536
 5739SOL    HW118991   5.099   9.042  13.551
 5739SOL    HW218992   5.034   9.159  13.622
 5740SOL     OW18993   2.249   3.124  12.967
 5740SOL    HW118994   2.181   3.062  12.940
 5740SOL    HW218995   2.292   3.081  13.040
 5741SOL     OW18996   4.553  14.287   3.227
 5741SOL    HW118997   4.578  14.247   3.144
 5741SOL    HW218998   4.492  14.357   3.203
 5742SOL     OW18999   2.133   4.492  10.579
 5742SOL    HW119000   2.193   4.519  10.649
 5742SOL    HW219001   2.171   4.529  10.500
 5743SOL     OW19002   8.470   6.436   7.352
 5743SOL    HW119003   8.416   6.515   7.349
 5743SOL    HW219004   8.482   6.413   7.259
 5744SOL     OW19005  12.320   9.541   0.589
 5744SOL    HW119006  12.383   9.537   0.516
 5744SOL    HW219007  12.366   9.500   0.662
 5745SOL     OW19008   4.393  10.655   8.755
 5745SOL    HW119009   4.388  10.576   8.702
 5745SOL    HW219010   4.304  10.670   8.785
 5746SOL     OW19011   1.531   0.700   9.435
 5746SOL    HW119012   1.599   0.766   9.421
 5746SOL    HW219013   1.455   0.750   9.463
 5747SOL     OW19014   2.923  13.141   0.148
 5747SOL    HW119015   2.961  13.211   0.201
 5747SOL    HW219016   2.982  13.067   0.161
 5748SOL     OW19017   3.024   2.846   6.798
 5748SOL    HW119018   3.046   2.910   6.866
 5748SOL    HW219019   2.938   2.812   6.824
 5749SOL     OW19020  13.385   4.005   3.587
 5749SOL    HW119021  13.307   3.949   3.593
 5749SOL    HW219022  13.353   4.086   3.549
 5750SOL     OW19023   1.898   7.139   9.801
 5750SOL    HW119024   1.927   7.120   9.712
 5750SOL    HW219025   1.883   7.233   9.802
 5751SOL     OW19026  11.292   6.837   4.015
 5751SOL    HW119027  11.253   6.923   4.002
 5751SOL    HW219028  11.246   6.780   3.953
 5752SOL     OW19029   3.716   8.114   5.545
 5752SOL    HW119030   3.783   8.174   5.512
 5752SOL    HW219031   3.695   8.148   5.632
 5753SOL     OW19032   2.714   7.112   4.660
 5753SOL    HW119033   2.800   7.071   4.674
 5753SOL    HW219034   2.659   7.041   4.626
 5754SOL     OW19035   0.668  12.463  11.822
 5754SOL    HW119036   0.617  12.543  11.834
 5754SOL    HW219037   0.701  12.442  11.909
 5755SOL     OW19038   6.125   6.362  11.954
 5755SOL    HW119039   6.059   6.429  11.939
 5755SOL    HW219040   6.208   6.407  11.942
 5756SOL     OW19041   4.518  11.647   4.858
 5756SOL    HW119042   4.574  11.592   4.912
 5756SOL    HW219043   4.577  11.712   4.820
 5757SOL     OW19044   5.036  11.286  10.468
 5757SOL    HW119045   5.077  11.324  10.391
 5757SOL    HW219046   5.049  11.192  10.460
 5758SOL     OW19047   8.940  10.403  11.005
 5758SOL    HW119048   9.024  10.368  10.974
 5758SOL    HW219049   8.894  10.429  10.925
 5759SOL     OW19050   2.131   3.881  13.460
 5759SOL    HW119051   2.127   3.926  13.375
 5759SOL    HW219052   2.154   3.791  13.437
 5760SOL     OW19053   9.824  13.793   7.737
 5760SOL    HW119054   9.735  13.830   7.739
 5760SOL    HW219055   9.869  13.837   7.809
 5761SOL     OW19056   7.897  12.707  11.861
 5761SOL    HW119057   7.836  12.638  11.834
 5761SOL    HW219058   7.909  12.760  11.782
 5762SOL     OW19059  14.581   8.556   4.369
 5762SOL    HW119060  14.553   8.465   4.370
 5762SOL    HW219061  14.676   8.552   4.376
 5763SOL     OW19062   5.793  10.979  14.583
 5763SOL    HW119063   5.780  11.070  14.606
 5763SOL    HW219064   5.753  10.929  14.654
 5764SOL     OW19065   2.099  11.962  14.613
 5764SOL    HW119066   2.130  12.009  14.536
 5764SOL    HW219067   2.122  12.018  14.687
 5765SOL     OW19068   3.288   1.411   6.691
 5765SOL    HW119069   3.200   1.434   6.663
 5765SOL    HW219070   3.287   1.315   6.697
 5766SOL     OW19071   0.929  13.707   6.817
 5766SOL    HW119072   0.893  13.621   6.838
 5766SOL    HW219073   1.014  13.708   6.860
 5767SOL     OW19074   9.813  10.287   7.297
 5767SOL    HW119075   9.767  10.270   7.380
 5767SOL    HW219076   9.748  10.265   7.229
 5768SOL     OW19077  14.680   9.783   2.689
 5768SOL    HW119078  14.718   9.695   2.700
 5768SOL    HW219079  14.669   9.792   2.594
 5769SOL     OW19080  14.049   4.931  12.584
 5769SOL    HW119081  13.996   4.979  12.521
 5769SOL    HW219082  14.139   4.937  12.550
 5770SOL     OW19083   5.559   3.216  10.779
 5770SOL    HW119084   5.549   3.234  10.686
 5770SOL    HW219085   5.479   3.170  10.803
 5771SOL     OW19086   7.896   6.820  12.867
 5771SOL    HW119087   7.880   6.805  12.960
 5771SOL    HW219088   7.966   6.760  12.844
 5772SOL     OW19089   0.108   5.068   2.811
 5772SOL    HW119090   0.028   5.120   2.815
 5772SOL    HW219091   0.148   5.092   2.727
 5773SOL     OW19092   0.150   9.155  14.819
 5773SOL    HW119093   0.078   9.217  14.813
 5773SOL    HW219094   0.165   9.144   0.035
 5774SOL     OW19095  13.141  12.480   4.193
 5774SOL    HW119096  13.165  12.459   4.102
 5774SOL    HW219097  13.132  12.575   4.195
 5775SOL     OW19098   0.029   1.189   6.255
 5775SOL    HW119099  14.847   1.258   6.227
 5775SOL    HW219100   0.058   1.148   6.173
 5776SOL     OW19101   3.100   5.209   0.384
 5776SOL    HW119102   3.035   5.209   0.454
 5776SOL    HW219103   3.163   5.141   0.409
 5777SOL     OW19104  14.499  10.002  11.276
 5777SOL    HW119105  14.536   9.959  11.199
 5777SOL    HW219106  14.405   9.985  11.270
 5778SOL     OW19107   0.390   1.357   5.494
 5778SOL    HW119108   0.401   1.383   5.585
 5778SOL    HW219109   0.407   1.262   5.494
 5779SOL     OW19110   3.804   0.455  10.166
 5779SOL    HW119111   3.733   0.424  10.109
 5779SOL    HW219112   3.866   0.497  10.106
 5780SOL     OW19113  11.334  13.684   4.325
 5780SOL    HW119114  11.253  13.655   4.282
 5780SOL    HW219115  11.324  13.655   4.416
 5781SOL     OW19116   4.643   8.029   9.739
 5781SOL    HW119117   4.611   8.068   9.821
 5781SOL    HW219118   4.573   8.047   9.676
 5782SOL     OW19119   4.779   8.298   3.881
 5782SOL    HW119120   4.803   8.341   3.798
 5782SOL    HW219121   4.734   8.218   3.855
 5783SOL     OW19122   4.623  12.937   1.804
 5783SOL    HW119123   4.600  12.849   1.774
 5783SOL    HW219124   4.559  12.994   1.761
 5784SOL     OW19125   3.283   4.981   2.910
 5784SOL    HW119126   3.192   4.976   2.940
 5784SOL    HW219127   3.294   4.902   2.857
 5785SOL     OW19128  13.397   2.311   9.789
 5785SOL    HW119129  13.449   2.334   9.865
 5785SOL    HW219130  13.458   2.264   9.731
 5786SOL     OW19131   4.053   4.097   3.400
 5786SOL    HW119132   4.105   4.172   3.430
 5786SOL    HW219133   4.117   4.027   3.388
 5787SOL     OW19134   4.476   1.503  12.881
 5787SOL    HW119135   4.545   1.440  12.859
 5787SOL    HW219136   4.446   1.536  12.796
 5788SOL     OW19137  10.002  10.911  12.315
 5788SOL    HW119138   9.955  10.895  12.397
 5788SOL    HW219139   9.934  10.912  12.248
 5789SOL     OW19140   2.615   1.492   1.261
 5789SOL    HW119141   2.592   1.502   1.168
 5789SOL    HW219142   2.534   1.467   1.304
 5790SOL     OW19143   3.877   5.922  13.882
 5790SOL    HW119144   3.862   5.833  13.915
 5790SOL    HW219145   3.790   5.961  13.877
 5791SOL     OW19146   2.555   5.257   5.257
 5791SOL    HW119147   2.531   5.323   5.192
 5791SOL    HW219148   2.558   5.175   5.207
 5792SOL     OW19149  12.704   7.714   3.218
 5792SOL    HW119150  12.640   7.783   3.203
 5792SOL    HW219151  12.690   7.688   3.309
 5793SOL     OW19152  10.988   2.413   9.987
 5793SOL    HW119153  10.954   2.325  10.004
 5793SOL    HW219154  10.916   2.459   9.943
 5794SOL     OW19155  10.458   6.484   7.130
 5794SOL    HW119156  10.480   6.572   7.159
 5794SOL    HW219157  10.391   6.455   7.192
 5795SOL     OW19158   4.730   9.552   5.888
 5795SOL    HW119159   4.785   9.555   5.966
 5795SOL    HW219160   4.657   9.496   5.913
 5796SOL     OW19161  10.850   0.073  12.209
 5796SOL    HW119162  10.780   0.048  12.148
 5796SOL    HW219163  10.840   0.012  12.283
 5797SOL     OW19164   1.284  11.461   8.497
 5797SOL    HW119165   1.361  11.512   8.522
 5797SOL    HW219166   1.224  11.471   8.571
 5798SOL     OW19167  12.777  14.682   6.791
 5798SOL    HW119168  12.696  14.644   6.757
 5798SOL    HW219169  12.785  14.766   6.745
 5799SOL     OW19170   8.094   9.034   7.296
 5799SOL    HW119171   8.094   9.081   7.380
 5799SOL    HW219172   8.180   8.994   7.292
 5800SOL     OW19173   8.352   3.099  13.395
 5800SOL    HW119174   8.276   3.157  13.392
 5800SOL    HW219175   8.319   3.019  13.437
 5801SOL     OW19176  14.657  10.618  13.804
 5801SOL    HW119177  14.579  10.641  13.855
 5801SOL    HW219178  14.722  10.593  13.870
 5802SOL     OW19179   6.695   4.604   9.121
 5802SOL    HW119180   6.762   4.536   9.131
 5802SOL    HW219181   6.744   4.686   9.118
 5803SOL     OW19182   0.957   3.738  14.446
 5803SOL    HW119183   0.964   3.814  14.503
 5803SOL    HW219184   0.931   3.774  14.361
 5804SOL     OW19185   6.757  12.388   7.941
 5804SOL    HW119186   6.693  12.412   7.874
 5804SOL    HW219187   6.793  12.304   7.911
 5805SOL     OW19188   9.101   4.780   7.070
 5805SOL    HW119189   9.136   4.744   6.988
 5805SOL    HW219190   9.078   4.703   7.122
 5806SOL     OW19191   6.279   0.432  14.423
 5806SOL    HW119192   6.237   0.450  14.507
 5806SOL    HW219193   6.368   0.405  14.447
 5807SOL     OW19194   8.600  12.298  13.803
 5807SOL    HW119195   8.622  12.374  13.749
 5807SOL    HW219196   8.508  12.282  13.784
 5808SOL     OW19197   7.674   9.580  12.136
 5808SOL    HW119198   7.730   9.603  12.062
 5808SOL    HW219199   7.721   9.509  12.180
 5809SOL     OW19200   1.669   6.712   3.746
 5809SOL    HW119201   1.720   6.634   3.723
 5809SOL    HW219202   1.700   6.737   3.832
 5810SOL     OW19203   9.235  14.094   8.551
 5810SOL    HW119204   9.193  14.172   8.585
 5810SOL    HW219205   9.304  14.074   8.615
 5811SOL     OW19206   8.602   9.501  14.636
 5811SOL    HW119207   8.644   9.554  14.704
 5811SOL    HW219208   8.510   9.497  14.662
 5812SOL     OW19209   3.127  12.792   2.025
 5812SOL    HW119210   3.134  12.697   2.013
 5812SOL    HW219211   3.200  12.828   1.974
 5813SOL     OW19212   5.138   6.168   0.817
 5813SOL    HW119213   5.215   6.219   0.840
 5813SOL    HW219214   5.068   6.204   0.871
 5814SOL     OW19215   7.271   5.783   6.019
 5814SOL    HW119216   7.337   5.714   6.019
 5814SOL    HW219217   7.289   5.833   5.939
 5815SOL     OW19218   7.991   6.425   1.735
 5815SOL    HW119219   8.084   6.435   1.716
 5815SOL    HW219220   7.948   6.427   1.650
 5816SOL     OW19221   1.188  10.990   2.580
 5816SOL    HW119222   1.096  10.987   2.551
 5816SOL    HW219223   1.238  10.975   2.500
 5817SOL     OW19224   3.716   6.965   8.860
 5817SOL    HW119225   3.704   7.049   8.905
 5817SOL    HW219226   3.784   6.983   8.795
 5818SOL     OW19227   5.690   5.968  11.074
 5818SOL    HW119228   5.698   6.062  11.055
 5818SOL    HW219229   5.763   5.928  11.027
 5819SOL     OW19230  13.684   2.948   0.062
 5819SOL    HW119231  13.732   2.887   0.006
 5819SOL    HW219232  13.596   2.950   0.024
 5820SOL     OW19233   7.384   8.249   4.389
 5820SOL    HW119234   7.479   8.235   4.396
 5820SOL    HW219235   7.345   8.169   4.424
 5821SOL     OW19236   5.028  13.626   5.766
 5821SOL    HW119237   5.014  13.576   5.686
 5821SOL    HW219238   4.944  13.670   5.782
 5822SOL     OW19239   0.191   4.316   5.649
 5822SOL    HW119240   0.166   4.272   5.731
 5822SOL    HW219241   0.234   4.248   5.597
 5823SOL     OW19242   3.082   1.237   1.370
 5823SOL    HW119243   3.107   1.148   1.345
 5823SOL    HW219244   3.162   1.288   1.358
 5824SOL     OW19245   7.176   3.576   5.137
 5824SOL    HW119246   7.174   3.639   5.066
 5824SOL    HW219247   7.106   3.514   5.117
 5825SOL     OW19248  13.208   1.099   1.491
 5825SOL    HW119249  13.270   1.171   1.500
 5825SOL    HW219250  13.124   1.141   1.471
 5826SOL     OW19251   2.074   2.805   2.155
 5826SOL    HW119252   2.089   2.891   2.193
 5826SOL    HW219253   2.051   2.823   2.064
 5827SOL     OW19254   2.544  10.486   3.180
 5827SOL    HW119255   2.617  10.487   3.241
 5827SOL    HW219256   2.473  10.530   3.228
 5828SOL     OW19257   1.706   9.072  11.195
 5828SOL    HW119258   1.747   9.156  11.176
 5828SOL    HW219259   1.776   9.020  11.235
 5829SOL     OW19260   1.618  14.215   5.538
 5829SOL    HW119261   1.693  14.186   5.589
 5829SOL    HW219262   1.563  14.263   5.600
 5830SOL     OW19263   5.352   1.936   2.795
 5830SOL    HW119264   5.394   2.021   2.810
 5830SOL    HW219265   5.369   1.886   2.875
 5831SOL     OW19266   0.521  10.948   6.342
 5831SOL    HW119267   0.538  10.913   6.430
 5831SOL    HW219268   0.531  10.872   6.284
 5832SOL     OW19269   8.141   4.521   6.312
 5832SOL    HW119270   8.096   4.446   6.350
 5832SOL    HW219271   8.130   4.510   6.217
 5833SOL     OW19272   4.343  12.024   9.468
 5833SOL    HW119273   4.281  11.956   9.493
 5833SOL    HW219274   4.288  12.100   9.447
 5834SOL     OW19275  10.176  11.934  11.504
 5834SOL    HW119276  10.103  11.873  11.490
 5834SOL    HW219277  10.162  11.970  11.591
 5835SOL     OW19278  10.932  10.704  14.655
 5835SOL    HW119279  10.860  10.760  14.626
 5835SOL    HW219280  11.011  10.753  14.632
 5836SOL     OW19281   3.200  14.204   9.710
 5836SOL    HW119282   3.151  14.231   9.632
 5836SOL    HW219283   3.288  14.188   9.679
 5837SOL     OW19284   2.198   9.144  13.770
 5837SOL    HW119285   2.214   9.239  13.766
 5837SOL    HW219286   2.181   9.119  13.679
 5838SOL     OW19287   7.262   2.703   2.801
 5838SOL    HW119288   7.174   2.723   2.831
 5838SOL    HW219289   7.275   2.759   2.725
 5839SOL     OW19290   6.982  10.293   8.882
 5839SOL    HW119291   7.009  10.258   8.797
 5839SOL    HW219292   6.890  10.317   8.869
 5840SOL     OW19293   3.142  13.381   9.208
 5840SOL    HW119294   3.122  13.289   9.190
 5840SOL    HW219295   3.204  13.379   9.281
 5841SOL     OW19296   3.235   7.959   0.595
 5841SOL    HW119297   3.215   7.923   0.681
 5841SOL    HW219298   3.258   7.883   0.542
 5842SOL     OW19299  12.993   3.900   5.471
 5842SOL    HW119300  12.901   3.883   5.451
 5842SOL    HW219301  13.041   3.859   5.399
 5843SOL     OW19302   3.750   9.924   4.540
 5843SOL    HW119303   3.765   9.877   4.622
 5843SOL    HW219304   3.724   9.856   4.478
 5844SOL     OW19305   2.073  14.642   9.336
 5844SOL    HW119306   2.092  14.552   9.309
 5844SOL    HW219307   2.023  14.679   9.264
 5845SOL     OW19308  13.909   9.183  13.526
 5845SOL    HW119309  13.907   9.269  13.566
 5845SOL    HW219310  13.996   9.149  13.544
 5846SOL     OW19311  13.881   0.593   6.664
 5846SOL    HW119312  13.902   0.511   6.708
 5846SOL    HW219313  13.795   0.617   6.697
 5847SOL     OW19314   9.854   0.107   9.920
 5847SOL    HW119315   9.773   0.060   9.936
 5847SOL    HW219316   9.897   0.112  10.006
 5848SOL     OW19317   5.096   1.622   8.665
 5848SOL    HW119318   5.166   1.565   8.696
 5848SOL    HW219319   5.078   1.681   8.738
 5849SOL     OW19320   3.449  11.745   0.640
 5849SOL    HW119321   3.496  11.751   0.557
 5849SOL    HW219322   3.517  11.743   0.707
 5850SOL     OW19323   5.903  13.300   6.991
 5850SOL    HW119324   5.922  13.210   7.018
 5850SOL    HW219325   5.921  13.300   6.897
 5851SOL     OW19326   3.444  10.980   9.316
 5851SOL    HW119327   3.535  11.001   9.339
 5851SOL    HW219328   3.438  10.999   9.223
 5852SOL     OW19329   2.318   1.783   9.309
 5852SOL    HW119330   2.390   1.840   9.283
 5852SOL    HW219331   2.314   1.716   9.241
 5853SOL     OW19332   0.444  14.871  12.510
 5853SOL    HW119333   0.524  14.865  12.564
 5853SOL    HW219334   0.400   0.071  12.542
 5854SOL     OW19335   3.068  11.102   2.930
 5854SOL    HW119336   3.066  11.190   2.969
 5854SOL    HW219337   3.086  11.044   3.004
 5855SOL     OW19338   0.746   9.431  13.290
 5855SOL    HW119339   0.708   9.348  13.259
 5855SOL    HW219340   0.762   9.482  13.211
 5856SOL     OW19341   2.587  14.612   5.736
 5856SOL    HW119342   2.525  14.581   5.802
 5856SOL    HW219343   2.604  14.703   5.761
 5857SOL     OW19344  10.877   8.702   2.964
 5857SOL    HW119345  10.839   8.617   2.938
 5857SOL    HW219346  10.802   8.752   2.997
 5858SOL     OW19347   0.063   8.345   1.559
 5858SOL    HW119348  14.878   8.295   1.507
 5858SOL    HW219349   0.147   8.330   1.516
 5859SOL     OW19350   0.286   4.982   6.441
 5859SOL    HW119351   0.363   4.947   6.396
 5859SOL    HW219352   0.218   4.985   6.374
 5860SOL     OW19353   1.233   7.701   1.593
 5860SOL    HW119354   1.190   7.716   1.678
 5860SOL    HW219355   1.258   7.788   1.563
 5861SOL     OW19356  11.054   5.180   7.683
 5861SOL    HW119357  11.111   5.205   7.756
 5861SOL    HW219358  11.013   5.099   7.712
 5862SOL     OW19359   9.017   0.464  12.493
 5862SOL    HW119360   8.990   0.550  12.523
 5862SOL    HW219361   8.951   0.440  12.427
 5863SOL     OW19362   2.749   6.343   2.810
 5863SOL    HW119363   2.805   6.362   2.886
 5863SOL    HW219364   2.810   6.343   2.735
 5864SOL     OW19365   6.210   0.157   1.309
 5864SOL    HW119366   6.262   0.108   1.245
 5864SOL    HW219367   6.262   0.234   1.329
 5865SOL     OW19368   2.181   1.759   0.034
 5865SOL    HW119369   2.210   1.678  14.870
 5865SOL    HW219370   2.220   1.829  14.860
 5866SOL     OW19371   3.179  11.129  14.468
 5866SOL    HW119372   3.190  11.036  14.450
 5866SOL    HW219373   3.128  11.132  14.549
 5867SOL     OW19374   2.889   0.975  11.672
 5867SOL    HW119375   2.923   1.005  11.755
 5867SOL    HW219376   2.798   1.005  11.670
 5868SOL     OW19377   2.266   1.721  13.194
 5868SOL    HW119378   2.251   1.693  13.104
 5868SOL    HW219379   2.360   1.739  13.198
 5869SOL     OW19380  12.031  10.971   4.728
 5869SOL    HW119381  11.947  10.942   4.764
 5869SOL    HW219382  12.011  11.000   4.639
 5870SOL     OW19383   2.700   4.125  12.811
 5870SOL    HW119384   2.621   4.178  12.828
 5870SOL    HW219385   2.666   4.042  12.779
 5871SOL     OW19386   4.027  11.006   2.382
 5871SOL    HW119387   4.018  11.084   2.328
 5871SOL    HW219388   3.972  11.023   2.459
 5872SOL     OW19389   6.750   3.024   8.167
 5872SOL    HW119390   6.772   3.075   8.089
 5872SOL    HW219391   6.739   3.088   8.237
 5873SOL     OW19392   6.455   7.747   6.156
 5873SOL    HW119393   6.477   7.840   6.157
 5873SOL    HW219394   6.365   7.743   6.189
 5874SOL     OW19395  10.389   6.259   5.242
 5874SOL    HW119396  10.298   6.247   5.271
 5874SOL    HW219397  10.430   6.174   5.257
 5875SOL     OW19398   5.597  13.866  11.144
 5875SOL    HW119399   5.540  13.829  11.077
 5875SOL    HW219400   5.616  13.793  11.203
 5876SOL     OW19401   9.532   6.812   6.930
 5876SOL    HW119402   9.598   6.865   6.974
 5876SOL    HW219403   9.448   6.845   6.964
 5877SOL     OW19404   9.144   9.906   3.268
 5877SOL    HW119405   9.066   9.857   3.240
 5877SOL    HW219406   9.188   9.848   3.330
 5878SOL     OW19407  11.239  13.394   2.849
 5878SOL    HW119408  11.257  13.376   2.941
 5878SOL    HW219409  11.323  13.384   2.805
 5879SOL     OW19410  12.790   5.174  13.132
 5879SOL    HW119411  12.820   5.200  13.045
 5879SOL    HW219412  12.811   5.249  13.188
 5880SOL     OW19413  14.842   6.754   9.211
 5880SOL    HW119414   0.043   6.716   9.248
 5880SOL    HW219415  14.871   6.837   9.172
 5881SOL     OW19416  14.459  12.991   8.965
 5881SOL    HW119417  14.517  12.917   8.981
 5881SOL    HW219418  14.507  13.045   8.902
 5882SOL     OW19419  12.183  13.679  12.382
 5882SOL    HW119420  12.133  13.759  12.371
 5882SOL    HW219421  12.250  13.682  12.314
 5883SOL     OW19422  12.392   2.995   3.509
 5883SOL    HW119423  12.356   2.933   3.445
 5883SOL    HW219424  12.316   3.023   3.560
 5884SOL     OW19425   9.155   1.139   4.761
 5884SOL    HW119426   9.064   1.117   4.781
 5884SOL    HW219427   9.184   1.191   4.836
 5885SOL     OW19428   5.739  13.278   4.328
 5885SOL    HW119429   5.814  13.303   4.275
 5885SOL    HW219430   5.704  13.200   4.285
 5886SOL     OW19431  11.159   8.228   6.763
 5886SOL    HW119432  11.102   8.262   6.832
 5886SOL    HW219433  11.247   8.240   6.798
 5887SOL     OW19434  12.727  14.617  11.355
 5887SOL    HW119435  12.705  14.524  11.348
 5887SOL    HW219436  12.801  14.629  11.295
 5888SOL     OW19437   2.592  13.453   8.837
 5888SOL    HW119438   2.607  13.455   8.743
 5888SOL    HW219439   2.627  13.536   8.869
 5889SOL     OW19440  14.526   5.552  13.225
 5889SOL    HW119441  14.509   5.547  13.318
 5889SOL    HW219442  14.450   5.598  13.188
 5890SOL     OW19443  14.398   6.747   5.941
 5890SOL    HW119444  14.336   6.697   5.889
 5890SOL    HW219445  14.450   6.680   5.986
 5891SOL     OW19446  13.504   4.973  10.778
 5891SOL    HW119447  13.599   4.977  10.785
 5891SOL    HW219448  13.486   4.886  10.744
 5892SOL     OW19449   4.748   1.258   4.759
 5892SOL    HW119450   4.790   1.344   4.752
 5892SOL    HW219451   4.732   1.232   4.668
 5893SOL     OW19452   8.459   6.918  11.081
 5893SOL    HW119453   8.520   6.887  11.014
 5893SOL    HW219454   8.385   6.858  11.076
 5894SOL     OW19455  14.726   0.382  11.834
 5894SOL    HW119456  14.749   0.375  11.927
 5894SOL    HW219457  14.800   0.427  11.794
 5895SOL     OW19458  10.569  11.804   6.490
 5895SOL    HW119459  10.600  11.856   6.415
 5895SOL    HW219460  10.608  11.717   6.476
 5896SOL     OW19461   3.240   1.183   9.840
 5896SOL    HW119462   3.259   1.099   9.799
 5896SOL    HW219463   3.159   1.168   9.889
 5897SOL     OW19464   1.045   2.433   0.365
 5897SOL    HW119465   0.964   2.401   0.404
 5897SOL    HW219466   1.025   2.441   0.271
 5898SOL     OW19467   3.401   5.127   9.092
 5898SOL    HW119468   3.408   5.105   8.999
 5898SOL    HW219469   3.426   5.219   9.098
 5899SOL     OW19470   2.524   7.613  12.166
 5899SOL    HW119471   2.462   7.673  12.207
 5899SOL    HW219472   2.597   7.609  12.227
 5900SOL     OW19473   7.494   8.751   6.207
 5900SOL    HW119474   7.419   8.704   6.172
 5900SOL    HW219475   7.483   8.747   6.302
 5901SOL     OW19476  13.107   9.135   4.739
 5901SOL    HW119477  13.048   9.068   4.773
 5901SOL    HW219478  13.160   9.090   4.673
 5902SOL     OW19479   9.157   9.808   8.490
 5902SOL    HW119480   9.237   9.776   8.448
 5902SOL    HW219481   9.088   9.792   8.425
 5903SOL     OW19482  14.554   3.768   7.187
 5903SOL    HW119483  14.641   3.735   7.212
 5903SOL    HW219484  14.496   3.738   7.257
 5904SOL     OW19485   7.278   2.000   2.226
 5904SOL    HW119486   7.299   2.069   2.289
 5904SOL    HW219487   7.294   2.040   2.140
 5905SOL     OW19488  10.616   5.671  12.388
 5905SOL    HW119489  10.559   5.671  12.465
 5905SOL    HW219490  10.700   5.642  12.421
 5906SOL     OW19491  12.058   7.381   6.105
 5906SOL    HW119492  12.065   7.285   6.107
 5906SOL    HW219493  11.976   7.400   6.149
 5907SOL     OW19494   5.246   8.860   1.064
 5907SOL    HW119495   5.169   8.859   1.006
 5907SOL    HW219496   5.214   8.901   1.144
 5908SOL     OW19497  10.791   9.890  11.887
 5908SOL    HW119498  10.708   9.843  11.885
 5908SOL    HW219499  10.773   9.970  11.936
 5909SOL     OW19500  14.461   5.275  13.935
 5909SOL    HW119501  14.409   5.264  13.855
 5909SOL    HW219502  14.548   5.300  13.903
 5910SOL     OW19503   3.057   7.031   9.175
 5910SOL    HW119504   3.094   7.081   9.102
 5910SOL    HW219505   2.970   7.069   9.188
 5911SOL     OW19506   3.932  11.625   8.910
 5911SOL    HW119507   3.844  11.652   8.883
 5911SOL    HW219508   3.978  11.707   8.926
 5912SOL     OW19509   9.115   9.290   0.166
 5912SOL    HW119510   9.087   9.347   0.094
 5912SOL    HW219511   9.116   9.348   0.242
 5913SOL     OW19512  11.655  14.198   2.781
 5913SOL    HW119513  11.623  14.171   2.695
 5913SOL    HW219514  11.680  14.290   2.769
 5914SOL     OW19515   6.127   9.109   6.239
 5914SOL    HW119516   6.198   9.046   6.255
 5914SOL    HW219517   6.140   9.177   6.304
 5915SOL     OW19518  11.662   0.310   6.188
 5915SOL    HW119519  11.646   0.361   6.108
 5915SOL    HW219520  11.595   0.242   6.187
 5916SOL     OW19521   1.977   5.270   9.886
 5916SOL    HW119522   1.894   5.244   9.925
 5916SOL    HW219523   1.956   5.287   9.794
 5917SOL     OW19524   6.496   1.561   4.805
 5917SOL    HW119525   6.582   1.545   4.844
 5917SOL    HW219526   6.503   1.527   4.716
 5918SOL     OW19527   9.943   2.742   2.358
 5918SOL    HW119528   9.979   2.703   2.438
 5918SOL    HW219529   9.987   2.694   2.288
 5919SOL     OW19530   1.483  14.173   3.714
 5919SOL    HW119531   1.488  14.188   3.809
 5919SOL    HW219532   1.504  14.258   3.676
 5920SOL     OW19533  10.562  10.494   8.859
 5920SOL    HW119534  10.468  10.472   8.857
 5920SOL    HW219535  10.599  10.446   8.785
 5921SOL     OW19536   3.940   6.714   4.328
 5921SOL    HW119537   4.004   6.737   4.260
 5921SOL    HW219538   3.869   6.671   4.279
 5922SOL     OW19539  10.538  12.707  13.458
 5922SOL    HW119540  10.600  12.666  13.518
 5922SOL    HW219541  10.590  12.769  13.407
 5923SOL     OW19542  10.106  14.067   3.858
 5923SOL    HW119543  10.074  14.001   3.795
 5923SOL    HW219544  10.140  14.016   3.931
 5924SOL     OW19545   8.427   0.137   3.529
 5924SOL    HW119546   8.377   0.058   3.548
 5924SOL    HW219547   8.482   0.113   3.454
 5925SOL     OW19548  14.473  12.758   8.426
 5925SOL    HW119549  14.430  12.794   8.348
 5925SOL    HW219550  14.428  12.798   8.500
 5926SOL     OW19551   3.435  12.212   5.596
 5926SOL    HW119552   3.346  12.179   5.584
 5926SOL    HW219553   3.432  12.257   5.681
 5927SOL     OW19554  13.607   1.363   0.999
 5927SOL    HW119555  13.688   1.370   0.949
 5927SOL    HW219556  13.636   1.352   1.090
 5928SOL     OW19557  12.016   3.175  11.288
 5928SOL    HW119558  12.041   3.084  11.274
 5928SOL    HW219559  12.027   3.189  11.382
 5929SOL     OW19560  10.744  14.083   1.956
 5929SOL    HW119561  10.723  14.093   2.048
 5929SOL    HW219562  10.693  14.007   1.928
 5930SOL     OW19563   4.160   7.046   7.869
 5930SOL    HW119564   4.177   7.088   7.953
 5930SOL    HW219565   4.113   6.965   7.892
 5931SOL     OW19566   1.385   6.745  11.450
 5931SOL    HW119567   1.329   6.706  11.516
 5931SOL    HW219568   1.461   6.777  11.498
 5932SOL     OW19569  11.341  12.761  13.695
 5932SOL    HW119570  11.383  12.841  13.726
 5932SOL    HW219571  11.410  12.715  13.647
 5933SOL     OW19572   6.759   4.305   1.397
 5933SOL    HW119573   6.826   4.352   1.446
 5933SOL    HW219574   6.767   4.336   1.307
 5934SOL     OW19575   0.591  12.949   4.045
 5934SOL    HW119576   0.527  12.999   3.995
 5934SOL    HW219577   0.571  12.857   4.025
 5935SOL     OW19578   7.923   3.993   8.495
 5935SOL    HW119579   7.994   4.024   8.439
 5935SOL    HW219580   7.904   3.905   8.463
 5936SOL     OW19581   9.609   2.204   4.940
 5936SOL    HW119582   9.558   2.181   4.862
 5936SOL    HW219583   9.678   2.262   4.907
 5937SOL     OW19584   1.607   7.174   1.251
 5937SOL    HW119585   1.517   7.153   1.225
 5937SOL    HW219586   1.637   7.237   1.186
 5938SOL     OW19587  10.982   2.209  14.867
 5938SOL    HW119588  11.043   2.233  14.798
 5938SOL    HW219589  10.948   2.293   0.021
 5939SOL     OW19590   3.010   1.111  11.875
 5939SOL    HW119591   3.011   1.207  11.873
 5939SOL    HW219592   3.025   1.089  11.967
 5940SOL     OW19593   9.271   9.574   9.501
 5940SOL    HW119594   9.272   9.568   9.596
 5940SOL    HW219595   9.335   9.510   9.472
 5941SOL     OW19596  14.616   1.898   0.963
 5941SOL    HW119597  14.683   1.912   0.896
 5941SOL    HW219598  14.551   1.967   0.948
 5942SOL     OW19599  11.113  12.452   6.515
 5942SOL    HW119600  11.144  12.431   6.603
 5942SOL    HW219601  11.192  12.476   6.467
 5943SOL     OW19602  14.408   5.417  11.172
 5943SOL    HW119603  14.370   5.496  11.210
 5943SOL    HW219604  14.344   5.349  11.190
 5944SOL     OW19605   7.129   6.492   7.725
 5944SOL    HW119606   7.083   6.408   7.717
 5944SOL    HW219607   7.163   6.509   7.638
 5945SOL     OW19608  13.464   1.611  12.409
 5945SOL    HW119609  13.374   1.643  12.400
 5945SOL    HW219610  13.459   1.519  12.385
 5946SOL     OW19611   4.862  11.519  14.338
 5946SOL    HW119612   4.881  11.595  14.392
 5946SOL    HW219613   4.917  11.450  14.374
 5947SOL     OW19614   2.717   8.152  13.227
 5947SOL    HW119615   2.694   8.111  13.310
 5947SOL    HW219616   2.762   8.233  13.251
 5948SOL     OW19617   1.011  10.239  14.191
 5948SOL    HW119618   1.009  10.270  14.282
 5948SOL    HW219619   1.092  10.276  14.155
 5949SOL     OW19620   1.331   5.959   0.932
 5949SOL    HW119621   1.371   5.920   1.009
 5949SOL    HW219622   1.250   5.999   0.964
 5950SOL     OW19623   2.699   6.963   0.673
 5950SOL    HW119624   2.717   6.894   0.738
 5950SOL    HW219625   2.760   7.033   0.696
 5951SOL     OW19626  13.072   2.965  14.294
 5951SOL    HW119627  13.119   3.024  14.353
 5951SOL    HW219628  13.093   2.877  14.327
 5952SOL     OW19629   4.481  11.391   2.543
 5952SOL    HW119630   4.461  11.298   2.537
 5952SOL    HW219631   4.571  11.394   2.576
 5953SOL     OW19632  13.120  12.469   5.808
 5953SOL    HW119633  13.086  12.385   5.840
 5953SOL    HW219634  13.120  12.525   5.886
 5954SOL     OW19635  12.244   1.329   6.134
 5954SOL    HW119636  12.225   1.388   6.207
 5954SOL    HW219637  12.318   1.276   6.164
 5955SOL     OW19638   7.588   7.639   8.031
 5955SOL    HW119639   7.677   7.640   7.995
 5955SOL    HW219640   7.531   7.649   7.955
 5956SOL     OW19641  13.547  13.013   0.228
 5956SOL    HW119642  13.499  13.085   0.269
 5956SOL    HW219643  13.558  13.041   0.137
 5957SOL     OW19644  10.829  11.087  14.714
 5957SOL    HW119645  10.869  11.044  14.789
 5957SOL    HW219646  10.900  11.091  14.649
 5958SOL     OW19647  10.680   6.652   7.576
 5958SOL    HW119648  10.659   6.661   7.483
 5958SOL    HW219649  10.617   6.710   7.619
 5959SOL     OW19650   7.368   0.315   5.485
 5959SOL    HW119651   7.387   0.390   5.429
 5959SOL    HW219652   7.311   0.349   5.553
 5960SOL     OW19653   9.486  14.408   8.875
 5960SOL    HW119654   9.473  14.412   8.781
 5960SOL    HW219655   9.444  14.326   8.901
 5961SOL     OW19656   8.435   7.793   6.092
 5961SOL    HW119657   8.412   7.880   6.062
 5961SOL    HW219658   8.357   7.762   6.139
 5962SOL     OW19659   1.998   6.372   3.033
 5962SOL    HW119660   1.929   6.428   3.068
 5962SOL    HW219661   1.966   6.283   3.046
 5963SOL     OW19662   4.664   2.771  14.669
 5963SOL    HW119663   4.632   2.708  14.604
 5963SOL    HW219664   4.641   2.856  14.632
 5964SOL     OW19665   9.460  12.215   3.976
 5964SOL    HW119666   9.465  12.142   3.914
 5964SOL    HW219667   9.378  12.259   3.955
 5965SOL     OW19668   3.142   0.197  10.317
 5965SOL    HW119669   3.146   0.165  10.407
 5965SOL    HW219670   3.102   0.284  10.324
 5966SOL     OW19671  13.221   6.849  12.988
 5966SOL    HW119672  13.192   6.933  12.951
 5966SOL    HW219673  13.151   6.788  12.965
 5967SOL     OW19674   3.341   6.145   7.855
 5967SOL    HW119675   3.265   6.124   7.801
 5967SOL    HW219676   3.316   6.224   7.902
 5968SOL     OW19677   1.132   0.869  11.541
 5968SOL    HW119678   1.087   0.896  11.621
 5968SOL    HW219679   1.176   0.948  11.511
 5969SOL     OW19680   2.231   8.198   0.161
 5969SOL    HW119681   2.151   8.247   0.182
 5969SOL    HW219682   2.199   8.112   0.133
 5970SOL     OW19683   1.417   1.413   6.013
 5970SOL    HW119684   1.436   1.485   6.073
 5970SOL    HW219685   1.419   1.454   5.926
 5971SOL     OW19686   5.555   6.089   5.962
 5971SOL    HW119687   5.560   6.152   5.890
 5971SOL    HW219688   5.547   6.142   6.041
 5972SOL     OW19689   9.064   7.708  14.354
 5972SOL    HW119690   9.028   7.650  14.287
 5972SOL    HW219691   9.015   7.789  14.344
 5973SOL     OW19692   8.899   1.616   2.860
 5973SOL    HW119693   8.816   1.618   2.813
 5973SOL    HW219694   8.956   1.675   2.812
 5974SOL     OW19695   7.907   5.037   9.757
 5974SOL    HW119696   7.903   4.988   9.675
 5974SOL    HW219697   7.965   5.110   9.739
 5975SOL     OW19698   1.928   2.552   2.164
 5975SOL    HW119699   1.980   2.522   2.090
 5975SOL    HW219700   1.963   2.639   2.184
 5976SOL     OW19701   2.865   0.194   3.982
 5976SOL    HW119702   2.901   0.134   3.917
 5976SOL    HW219703   2.917   0.178   4.061
 5977SOL     OW19704   7.481  12.570  11.881
 5977SOL    HW119705   7.561  12.553  11.930
 5977SOL    HW219706   7.434  12.487  11.882
 5978SOL     OW19707   1.732   1.676  13.800
 5978SOL    HW119708   1.679   1.725  13.737
 5978SOL    HW219709   1.771   1.606  13.748
 5979SOL     OW19710  13.334   3.411   4.732
 5979SOL    HW119711  13.297   3.325   4.712
 5979SOL    HW219712  13.424   3.408   4.698
 5980SOL     OW19713   1.674   1.941  10.149
 5980SOL    HW119714   1.736   1.878  10.185
 5980SOL    HW219715   1.703   2.026  10.183
 5981SOL     OW19716   4.800   5.380   3.804
 5981SOL    HW119717   4.760   5.302   3.842
 5981SOL    HW219718   4.762   5.453   3.854
 5982SOL     OW19719   2.983   0.856   4.356
 5982SOL    HW119720   3.040   0.832   4.430
 5982SOL    HW219721   3.042   0.857   4.280
 5983SOL     OW19722  10.594  12.511   1.723
 5983SOL    HW119723  10.643  12.441   1.680
 5983SOL    HW219724  10.577  12.574   1.653
 5984SOL     OW19725   7.519   0.053   6.545
 5984SOL    HW119726   7.596   0.109   6.551
 5984SOL    HW219727   7.446   0.115   6.539
 5985SOL     OW19728  12.777   3.997   5.177
 5985SOL    HW119729  12.694   3.964   5.142
 5985SOL    HW219730  12.803   4.065   5.115
 5986SOL     OW19731  14.783  10.139  12.946
 5986SOL    HW119732  14.719  10.114  13.012
 5986SOL    HW219733  14.783  10.066  12.884
 5987SOL     OW19734   5.544   4.507   7.848
 5987SOL    HW119735   5.602   4.471   7.781
 5987SOL    HW219736   5.582   4.478   7.931
 5988SOL     OW19737   4.122  10.786   1.870
 5988SOL    HW119738   4.032  10.817   1.855
 5988SOL    HW219739   4.138  10.723   1.800
 5989SOL     OW19740  11.675  12.750   7.181
 5989SOL    HW119741  11.649  12.782   7.095
 5989SOL    HW219742  11.761  12.709   7.167
 5990SOL     OW19743   5.130   5.633   0.129
 5990SOL    HW119744   5.215   5.640   0.170
 5990SOL    HW219745   5.142   5.570   0.058
 5991SOL     OW19746  14.431   4.767   0.263
 5991SOL    HW119747  14.483   4.703   0.215
 5991SOL    HW219748  14.475   4.773   0.348
 5992SOL     OW19749   9.258  12.685   6.764
 5992SOL    HW119750   9.170  12.692   6.725
 5992SOL    HW219751   9.282  12.593   6.751
 5993SOL     OW19752  13.416   9.940   1.637
 5993SOL    HW119753  13.405   9.918   1.544
 5993SOL    HW219754  13.429  10.035   1.637
 5994SOL     OW19755  10.458  14.649  14.566
 5994SOL    HW119756  10.474  14.733  14.523
 5994SOL    HW219757  10.533  14.638  14.624
 5995SOL     OW19758   2.021   9.604   4.723
 5995SOL    HW119759   2.041   9.599   4.816
 5995SOL    HW219760   1.931   9.572   4.716
 5996SOL     OW19761   9.825   9.867  13.997
 5996SOL    HW119762   9.843   9.917  13.917
 5996SOL    HW219763   9.819   9.776  13.968
 5997SOL     OW19764   2.702   0.237   3.717
 5997SOL    HW119765   2.697   0.144   3.738
 5997SOL    HW219766   2.764   0.273   3.781
 5998SOL     OW19767  11.910   9.510   2.936
 5998SOL    HW119768  11.964   9.464   3.000
 5998SOL    HW219769  11.970   9.531   2.864
 5999SOL     OW19770   0.986   5.368   1.478
 5999SOL    HW119771   0.968   5.408   1.393
 5999SOL    HW219772   1.048   5.298   1.459
 6000SOL     OW19773   4.815  10.133  12.022
 6000SOL    HW119774   4.824  10.202  12.088
 6000SOL    HW219775   4.722  10.135  11.998
 6001SOL     OW19776   7.990   9.371  11.022
 6001SOL    HW119777   8.012   9.327  10.940
 6001SOL    HW219778   8.009   9.306  11.089
 6002SOL     OW19779   0.443   8.580   4.397
 6002SOL    HW119780   0.523   8.534   4.424
 6002SOL    HW219781   0.426   8.641   4.469
 6003SOL     OW19782   6.886   0.689  11.463
 6003SOL    HW119783   6.951   0.636  11.417
 6003SOL    HW219784   6.903   0.673  11.556
 6004SOL     OW19785  11.164  13.903   6.709
 6004SOL    HW119786  11.074  13.909   6.676
 6004SOL    HW219787  11.158  13.844   6.784
 6005SOL     OW19788  12.499  13.856   5.434
 6005SOL    HW119789  12.584  13.832   5.397
 6005SOL    HW219790  12.456  13.907   5.364
 6006SOL     OW19791  11.520   3.257   9.221
 6006SOL    HW119792  11.428   3.231   9.220
 6006SOL    HW219793  11.520   3.349   9.248
 6007SOL     OW19794   5.598   2.746  12.164
 6007SOL    HW119795   5.559   2.659  12.151
 6007SOL    HW219796   5.590   2.789  12.079
 6008SOL     OW19797   0.163  14.345   0.749
 6008SOL    HW119798   0.147  14.310   0.662
 6008SOL    HW219799   0.215  14.425   0.734
 6009SOL     OW19800   7.701   7.675   8.693
 6009SOL    HW119801   7.704   7.666   8.597
 6009SOL    HW219802   7.648   7.601   8.722
 6010SOL     OW19803   8.840  10.270  11.662
 6010SOL    HW119804   8.930  10.259  11.694
 6010SOL    HW219805   8.790  10.203  11.708
 6011SOL     OW19806   1.386   1.555   8.935
 6011SOL    HW119807   1.461   1.555   8.875
 6011SOL    HW219808   1.321   1.499   8.893
 6012SOL     OW19809   7.874   5.691   5.676
 6012SOL    HW119810   7.912   5.690   5.588
 6012SOL    HW219811   7.810   5.762   5.674
 6013SOL     OW19812   1.094   8.874   6.148
 6013SOL    HW119813   1.148   8.822   6.088
 6013SOL    HW219814   1.128   8.851   6.235
 6014SOL     OW19815   0.484  13.045   1.529
 6014SOL    HW119816   0.443  13.112   1.584
 6014SOL    HW219817   0.471  12.963   1.577
 6015SOL     OW19818   8.405   2.093   9.574
 6015SOL    HW119819   8.379   2.072   9.664
 6015SOL    HW219820   8.448   2.178   9.581
 6016SOL     OW19821  13.023  11.111   3.138
 6016SOL    HW119822  12.997  11.110   3.231
 6016SOL    HW219823  12.972  11.041   3.099
 6017SOL     OW19824   9.986  10.204  14.163
 6017SOL    HW119825  10.026  10.257  14.233
 6017SOL    HW219826  10.051  10.135  14.146
 6018SOL     OW19827   2.400  12.340   7.995
 6018SOL    HW119828   2.355  12.402   8.052
 6018SOL    HW219829   2.434  12.394   7.923
 6019SOL     OW19830   2.686   0.170   9.331
 6019SOL    HW119831   2.636   0.229   9.274
 6019SOL    HW219832   2.728   0.109   9.271
 6020SOL     OW19833   9.097  12.785   3.955
 6020SOL    HW119834   9.016  12.738   3.975
 6020SOL    HW219835   9.143  12.791   4.039
 6021SOL     OW19836   9.000  10.406   1.741
 6021SOL    HW119837   9.069  10.345   1.766
 6021SOL    HW219838   8.960  10.432   1.824
 6022SOL     OW19839   6.146  10.134   8.885
 6022SOL    HW119840   6.077  10.122   8.819
 6022SOL    HW219841   6.226  10.144   8.835
 6023SOL     OW19842  12.637   8.186   2.803
 6023SOL    HW119843  12.692   8.264   2.796
 6023SOL    HW219844  12.693   8.120   2.843
 6024SOL     OW19845  12.889   3.461   9.892
 6024SOL    HW119846  12.918   3.374   9.864
 6024SOL    HW219847  12.798   3.448   9.918
 6025SOL     OW19848  13.592   6.305   8.518
 6025SOL    HW119849  13.635   6.240   8.573
 6025SOL    HW219850  13.663   6.354   8.478
 6026SOL     OW19851   3.705   6.589  11.315
 6026SOL    HW119852   3.793   6.559  11.335
 6026SOL    HW219853   3.696   6.580  11.220
 6027SOL     OW19854  14.174   2.302   6.731
 6027SOL    HW119855  14.110   2.373   6.738
 6027SOL    HW219856  14.259   2.347   6.731
 6028SOL     OW19857   6.315   6.743  14.592
 6028SOL    HW119858   6.353   6.671  14.541
 6028SOL    HW219859   6.225   6.750  14.560
 6029SOL     OW19860  10.697  14.028   4.311
 6029SOL    HW119861  10.639  14.017   4.235
 6029SOL    HW219862  10.784  14.036   4.273
 6030SOL     OW19863   5.188  10.461   8.160
 6030SOL    HW119864   5.212  10.551   8.183
 6030SOL    HW219865   5.149  10.425   8.241
 6031SOL     OW19866   8.021  13.084   0.886
 6031SOL    HW119867   8.104  13.104   0.928
 6031SOL    HW219868   7.974  13.168   0.885
 6032SOL     OW19869  13.119   7.685   5.319
 6032SOL    HW119870  13.162   7.761   5.280
 6032SOL    HW219871  13.186   7.647   5.376
 6033SOL     OW19872   9.304   7.528  14.112
 6033SOL    HW119873   9.320   7.542  14.019
 6033SOL    HW219874   9.267   7.611  14.143
 6034SOL     OW19875   5.148  11.353   6.031
 6034SOL    HW119876   5.093  11.319   6.101
 6034SOL    HW219877   5.093  11.349   5.953
 6035SOL     OW19878  10.767   8.949   2.133
 6035SOL    HW119879  10.794   8.937   2.225
 6035SOL    HW219880  10.678   8.914   2.130
 6036SOL     OW19881  11.510   7.374   2.177
 6036SOL    HW119882  11.418   7.353   2.195
 6036SOL    HW219883  11.530   7.444   2.240
 6037SOL     OW19884  11.790   2.097   1.846
 6037SOL    HW119885  11.796   2.077   1.940
 6037SOL    HW219886  11.866   2.153   1.829
 6038SOL     OW19887   9.509   4.992   5.945
 6038SOL    HW119888   9.460   5.058   5.896
 6038SOL    HW219889   9.598   5.027   5.952
 6039SOL     OW19890  13.744   5.793   1.521
 6039SOL    HW119891  13.836   5.819   1.515
 6039SOL    HW219892  13.739   5.712   1.471
 6040SOL     OW19893  11.239   1.900  11.371
 6040SOL    HW119894  11.236   1.971  11.435
 6040SOL    HW219895  11.249   1.821  11.424
 6041SOL     OW19896  12.925   0.096   8.887
 6041SOL    HW119897  12.869   0.147   8.828
 6041SOL    HW219898  12.941   0.153   8.961
 6042SOL     OW19899   6.054   6.747   2.638
 6042SOL    HW119900   6.003   6.822   2.607
 6042SOL    HW219901   6.031   6.675   2.580
 6043SOL     OW19902   0.901   9.187  14.720
 6043SOL    HW119903   0.854   9.110  14.751
 6043SOL    HW219904   0.902   9.179  14.625
 6044SOL     OW19905   1.771   9.727   2.484
 6044SOL    HW119906   1.776   9.815   2.446
 6044SOL    HW219907   1.754   9.742   2.577
 6045SOL     OW19908  12.051   6.370   7.466
 6045SOL    HW119909  11.971   6.422   7.457
 6045SOL    HW219910  12.034   6.313   7.541
 6046SOL     OW19911   5.353   9.131   6.111
 6046SOL    HW119912   5.288   9.063   6.098
 6046SOL    HW219913   5.409   9.127   6.033
 6047SOL     OW19914  11.463  11.105   7.836
 6047SOL    HW119915  11.447  11.169   7.767
 6047SOL    HW219916  11.385  11.050   7.836
 6048SOL     OW19917  12.757   5.421   9.430
 6048SOL    HW119918  12.847   5.452   9.423
 6048SOL    HW219919  12.749   5.389   9.520
 6049SOL     OW19920   9.136   2.279   6.316
 6049SOL    HW119921   9.126   2.369   6.347
 6049SOL    HW219922   9.171   2.288   6.228
 6050SOL     OW19923  12.519  11.277   8.210
 6050SOL    HW119924  12.479  11.363   8.201
 6050SOL    HW219925  12.587  11.289   8.276
 6051SOL     OW19926   4.995   2.444   1.500
 6051SOL    HW119927   4.915   2.458   1.450
 6051SOL    HW219928   4.965   2.429   1.590
 6052SOL     OW19929   0.371   6.898  13.329
 6052SOL    HW119930   0.405   6.923  13.415
 6052SOL    HW219931   0.420   6.952  13.267
 6053SOL     OW19932  12.672   6.195   6.815
 6053SOL    HW119933  12.634   6.232   6.735
 6053SOL    HW219934  12.599   6.149   6.857
 6054SOL     OW19935   3.657  12.797   2.465
 6054SOL    HW119936   3.729  12.748   2.505
 6054SOL    HW219937   3.679  12.889   2.481
 6055SOL     OW19938   9.930   5.278  11.568
 6055SOL    HW119939   9.910   5.185  11.582
 6055SOL    HW219940   9.939   5.314  11.657
 6056SOL     OW19941   1.445   6.049   0.362
 6056SOL    HW119942   1.383   5.979   0.342
 6056SOL    HW219943   1.393   6.116   0.406
 6057SOL     OW19944   3.386   0.204   5.928
 6057SOL    HW119945   3.450   0.227   5.996
 6057SOL    HW219946   3.424   0.129   5.883
 6058SOL     OW19947   8.720   9.143   4.225
 6058SOL    HW119948   8.785   9.164   4.291
 6058SOL    HW219949   8.765   9.085   4.164
 6059SOL     OW19950   1.725   2.804   3.155
 6059SOL    HW119951   1.678   2.722   3.140
 6059SOL    HW219952   1.812   2.788   3.120
 6060SOL     OW19953   7.083  10.688   4.869
 6060SOL    HW119954   7.064  10.726   4.954
 6060SOL    HW219955   7.163  10.637   4.883
 6061SOL     OW19956   7.383   4.771   9.462
 6061SOL    HW119957   7.383   4.688   9.414
 6061SOL    HW219958   7.462   4.816   9.432
 6062SOL     OW19959   3.588   7.535   2.494
 6062SOL    HW119960   3.675   7.575   2.488
 6062SOL    HW219961   3.605   7.442   2.507
 6063SOL     OW19962   3.697   0.522   2.074
 6063SOL    HW119963   3.774   0.578   2.075
 6063SOL    HW219964   3.713   0.459   2.004
 6064SOL     OW19965   5.357   0.848   9.921
 6064SOL    HW119966   5.363   0.879   9.831
 6064SOL    HW219967   5.292   0.778   9.919
 6065SOL     OW19968  13.636  11.440  11.015
 6065SOL    HW119969  13.647  11.367  11.077
 6065SOL    HW219970  13.656  11.402  10.930
 6066SOL     OW19971   6.341   8.219  10.484
 6066SOL    HW119972   6.301   8.291  10.534
 6066SOL    HW219973   6.271   8.154  10.476
 6067SOL     OW19974  14.793   9.587  12.317
 6067SOL    HW119975   0.002   9.591  12.275
 6067SOL    HW219976  14.758   9.676  12.309
 6068SOL     OW19977  11.545   2.248  10.274
 6068SOL    HW119978  11.490   2.173  10.254
 6068SOL    HW219979  11.629   2.211  10.301
 6069SOL     OW19980   5.006   3.003   2.764
 6069SOL    HW119981   4.959   3.046   2.692
 6069SOL    HW219982   4.971   3.043   2.843
 6070SOL     OW19983   2.302  11.534   5.336
 6070SOL    HW119984   2.243  11.468   5.301
 6070SOL    HW219985   2.255  11.617   5.325
 6071SOL     OW19986  13.699   7.750  10.796
 6071SOL    HW119987  13.619   7.704  10.821
 6071SOL    HW219988  13.697   7.752  10.700
 6072SOL     OW19989  10.656  11.107  13.088
 6072SOL    HW119990  10.566  11.091  13.059
 6072SOL    HW219991  10.709  11.050  13.033
 6073SOL     OW19992   4.934  12.583  13.543
 6073SOL    HW119993   4.942  12.635  13.462
 6073SOL    HW219994   4.911  12.648  13.610
 6074SOL     OW19995   6.965  10.666  14.483
 6074SOL    HW119996   6.921  10.620  14.554
 6074SOL    HW219997   7.036  10.607  14.457
 6075SOL     OW19998   8.395  14.004   2.655
 6075SOL    HW119999   8.361  13.920   2.626
 6075SOL    HW220000   8.485  14.007   2.622
 6076SOL     OW20001   6.912   0.349   1.172
 6076SOL    HW120002   7.005   0.334   1.157
 6076SOL    HW220003   6.898   0.323   1.263
 6077SOL     OW20004  11.864   1.936  13.708
 6077SOL    HW120005  11.779   1.898  13.688
 6077SOL    HW220006  11.910   1.937  13.624
 6078SOL     OW20007   3.831   4.679   3.520
 6078SOL    HW120008   3.767   4.615   3.489
 6078SOL    HW220009   3.876   4.636   3.592
 6079SOL     OW20010   3.799   8.370   2.129
 6079SOL    HW120011   3.827   8.380   2.220
 6079SOL    HW220012   3.880   8.350   2.081
 6080SOL     OW20013   2.104  14.556  12.419
 6080SOL    HW120014   2.178  14.617  12.419
 6080SOL    HW220015   2.059  14.573  12.502
 6081SOL     OW20016   1.539   4.843   3.713
 6081SOL    HW120017   1.448   4.849   3.741
 6081SOL    HW220018   1.565   4.933   3.695
 6082SOL     OW20019  14.332   9.912   0.179
 6082SOL    HW120020  14.396   9.983   0.172
 6082SOL    HW220021  14.381   9.838   0.213
 6083SOL     OW20022   3.899   5.834  12.878
 6083SOL    HW120023   3.972   5.878  12.921
 6083SOL    HW220024   3.941   5.774  12.816
 6084SOL     OW20025  12.038  12.900   7.646
 6084SOL    HW120026  12.000  12.984   7.671
 6084SOL    HW220027  12.132  12.912   7.658
 6085SOL     OW20028   8.382   3.755   0.801
 6085SOL    HW120029   8.355   3.794   0.718
 6085SOL    HW220030   8.345   3.812   0.868
 6086SOL     OW20031  11.418  11.420  10.633
 6086SOL    HW120032  11.377  11.334  10.637
 6086SOL    HW220033  11.448  11.429  10.543
 6087SOL     OW20034   0.208   9.429  10.080
 6087SOL    HW120035   0.213   9.353  10.021
 6087SOL    HW220036   0.123   9.421  10.123
 6088SOL     OW20037   9.338   1.009   7.225
 6088SOL    HW120038   9.367   1.071   7.292
 6088SOL    HW220039   9.383   0.928   7.246
 6089SOL     OW20040   8.640  14.727  11.931
 6089SOL    HW120041   8.650  14.803  11.873
 6089SOL    HW220042   8.656  14.651  11.875
 6090SOL     OW20043   4.011   2.842   1.218
 6090SOL    HW120044   3.948   2.797   1.274
 6090SOL    HW220045   3.961   2.865   1.139
 6091SOL     OW20046  12.796   5.678   5.625
 6091SOL    HW120047  12.723   5.630   5.662
 6091SOL    HW220048  12.778   5.770   5.646
 6092SOL     OW20049  12.499   2.412   6.683
 6092SOL    HW120050  12.528   2.448   6.599
 6092SOL    HW220051  12.409   2.385   6.667
 6093SOL     OW20052  12.065   6.211   5.156
 6093SOL    HW120053  12.075   6.285   5.096
 6093SOL    HW220054  11.975   6.216   5.187
 6094SOL     OW20055   3.806  10.403   9.382
 6094SOL    HW120056   3.788  10.443   9.297
 6094SOL    HW220057   3.801  10.309   9.365
 6095SOL     OW20058  11.074  11.336   1.625
 6095SOL    HW120059  11.077  11.379   1.711
 6095SOL    HW220060  11.063  11.407   1.562
 6096SOL     OW20061   3.705   5.500   7.849
 6096SOL    HW120062   3.784   5.510   7.901
 6096SOL    HW220063   3.636   5.538   7.903
 6097SOL     OW20064   0.457   3.214   1.774
 6097SOL    HW120065   0.384   3.254   1.727
 6097SOL    HW220066   0.484   3.280   1.838
 6098SOL     OW20067   9.858   7.818   3.580
 6098SOL    HW120068   9.799   7.818   3.655
 6098SOL    HW220069   9.799   7.816   3.504
 6099SOL     OW20070  12.463   8.437   4.196
 6099SOL    HW120071  12.475   8.532   4.210
 6099SOL    HW220072  12.389   8.431   4.136
 6100SOL     OW20073   5.132   1.757  13.027
 6100SOL    HW120074   5.118   1.674  12.981
 6100SOL    HW220075   5.205   1.798  12.981
 6101SOL     OW20076   1.655   6.311  14.041
 6101SOL    HW120077   1.645   6.282  13.950
 6101SOL    HW220078   1.574   6.359  14.059
 6102SOL     OW20079   7.849   2.551   9.538
 6102SOL    HW120080   7.863   2.464   9.500
 6102SOL    HW220081   7.758   2.572   9.517
 6103SOL     OW20082   3.951   5.372   5.963
 6103SOL    HW120083   3.903   5.355   6.043
 6103SOL    HW220084   4.042   5.354   5.985
 6104SOL     OW20085   8.657   5.187   2.586
 6104SOL    HW120086   8.635   5.255   2.523
 6104SOL    HW220087   8.710   5.231   2.652
 6105SOL     OW20088   5.423  13.803  14.207
 6105SOL    HW120089   5.394  13.719  14.172
 6105SOL    HW220090   5.484  13.779  14.277
 6106SOL     OW20091  12.214   8.842  11.945
 6106SOL    HW120092  12.260   8.881  11.872
 6106SOL    HW220093  12.126   8.878  11.941
 6107SOL     OW20094   3.137   7.185   3.892
 6107SOL    HW120095   3.214   7.179   3.949
 6107SOL    HW220096   3.141   7.106   3.838
 6108SOL     OW20097   6.046   4.348   4.633
 6108SOL    HW120098   6.123   4.388   4.592
 6108SOL    HW220099   5.981   4.419   4.635
 6109SOL     OW20100  14.356  10.721   6.091
 6109SOL    HW120101  14.271  10.765   6.100
 6109SOL    HW220102  14.338  10.629   6.110
 6110SOL     OW20103   9.689   1.151  14.830
 6110SOL    HW120104   9.638   1.115  14.757
 6110SOL    HW220105   9.739   1.077  14.864
 6111SOL     OW20106   1.247   1.293  10.204
 6111SOL    HW120107   1.276   1.202  10.211
 6111SOL    HW220108   1.193   1.307  10.282
 6112SOL     OW20109   4.144  13.839   0.750
 6112SOL    HW120110   4.132  13.859   0.657
 6112SOL    HW220111   4.079  13.894   0.795
 6113SOL     OW20112   9.699  13.112  10.583
 6113SOL    HW120113   9.691  13.182  10.518
 6113SOL    HW220114   9.615  13.111  10.628
 6114SOL     OW20115  12.411   7.152   1.380
 6114SOL    HW120116  12.344   7.192   1.435
 6114SOL    HW220117  12.365   7.128   1.300
 6115SOL     OW20118   9.826   5.199   8.247
 6115SOL    HW120119   9.861   5.284   8.275
 6115SOL    HW220120   9.865   5.136   8.307
 6116SOL     OW20121   9.816   4.779  10.951
 6116SOL    HW120122   9.826   4.782  10.856
 6116SOL    HW220123   9.792   4.869  10.975
 6117SOL     OW20124  11.373  12.183  11.445
 6117SOL    HW120125  11.313  12.234  11.390
 6117SOL    HW220126  11.429  12.136  11.383
 6118SOL     OW20127   4.011  13.267  11.003
 6118SOL    HW120128   3.935  13.297  11.053
 6118SOL    HW220129   4.004  13.312  10.919
 6119SOL     OW20130  11.628   8.041   9.048
 6119SOL    HW120131  11.722   8.056   9.032
 6119SOL    HW220132  11.588   8.126   9.034
 6120SOL     OW20133   4.780   5.057   1.841
 6120SOL    HW120134   4.825   5.117   1.782
 6120SOL    HW220135   4.804   5.087   1.929
 6121SOL     OW20136   3.629  10.792  12.804
 6121SOL    HW120137   3.568  10.830  12.868
 6121SOL    HW220138   3.657  10.866  12.750
 6122SOL     OW20139   6.523  13.202  12.094
 6122SOL    HW120140   6.536  13.107  12.098
 6122SOL    HW220141   6.489  13.218  12.006
 6123SOL     OW20142   6.643  12.841  11.854
 6123SOL    HW120143   6.578  12.851  11.924
 6123SOL    HW220144   6.639  12.749  11.831
 6124SOL     OW20145  12.610   9.579   9.171
 6124SOL    HW120146  12.610   9.484   9.176
 6124SOL    HW220147  12.643   9.608   9.257
 6125SOL     OW20148  12.913   9.051  12.679
 6125SOL    HW120149  12.869   9.029  12.761
 6125SOL    HW220150  12.982   9.112  12.705
 6126SOL     OW20151  14.401  13.268  12.395
 6126SOL    HW120152  14.466  13.297  12.459
 6126SOL    HW220153  14.428  13.180  12.371
 6127SOL     OW20154   9.349   3.989   6.265
 6127SOL    HW120155   9.262   4.029   6.263
 6127SOL    HW220156   9.370   3.981   6.358
 6128SOL     OW20157  14.439  11.957  14.241
 6128SOL    HW120158  14.427  12.050  14.224
 6128SOL    HW220159  14.478  11.953  14.328
 6129SOL     OW20160   0.764   4.930   5.523
 6129SOL    HW120161   0.822   4.913   5.449
 6129SOL    HW220162   0.738   5.021   5.514
 6130SOL     OW20163   6.465   3.116   2.632
 6130SOL    HW120164   6.544   3.065   2.618
 6130SOL    HW220165   6.394   3.062   2.596
 6131SOL     OW20166  12.107  10.326   5.895
 6131SOL    HW120167  12.037  10.385   5.868
 6131SOL    HW220168  12.073  10.282   5.973
 6132SOL     OW20169   0.273  13.866   9.907
 6132SOL    HW120170   0.352  13.844   9.858
 6132SOL    HW220171   0.212  13.899   9.841
 6133SOL     OW20172   6.015   4.772   3.953
 6133SOL    HW120173   6.044   4.732   3.871
 6133SOL    HW220174   6.096   4.790   4.001
 6134SOL     OW20175   6.988   6.681   3.041
 6134SOL    HW120176   6.944   6.615   3.095
 6134SOL    HW220177   6.928   6.697   2.969
 6135SOL     OW20178  11.401   9.217   5.650
 6135SOL    HW120179  11.434   9.179   5.732
 6135SOL    HW220180  11.476   9.267   5.616
 6136SOL     OW20181   4.527   3.209   6.680
 6136SOL    HW120182   4.552   3.159   6.602
 6136SOL    HW220183   4.479   3.147   6.734
 6137SOL     OW20184   4.725   3.679   2.412
 6137SOL    HW120185   4.676   3.719   2.485
 6137SOL    HW220186   4.717   3.742   2.341
 6138SOL     OW20187   3.556   0.300   3.968
 6138SOL    HW120188   3.470   0.309   4.008
 6138SOL    HW220189   3.601   0.234   4.021
 6139SOL     OW20190   4.643  13.137  12.464
 6139SOL    HW120191   4.584  13.197  12.420
 6139SOL    HW220192   4.724  13.142  12.414
 6140SOL     OW20193   8.693  11.334  10.542
 6140SOL    HW120194   8.597  11.331  10.550
 6140SOL    HW220195   8.724  11.346  10.632
 6141SOL     OW20196  11.818  14.570   6.040
 6141SOL    HW120197  11.899  14.566   6.090
 6141SOL    HW220198  11.768  14.642   6.080
 6142SOL     OW20199   8.804   6.421  10.667
 6142SOL    HW120200   8.712   6.402  10.645
 6142SOL    HW220201   8.808   6.517  10.668
 6143SOL     OW20202   1.751   9.643  10.826
 6143SOL    HW120203   1.817   9.575  10.816
 6143SOL    HW220204   1.731   9.671  10.737
 6144SOL     OW20205  13.262  14.220  10.472
 6144SOL    HW120206  13.181  14.241  10.426
 6144SOL    HW220207  13.240  14.222  10.565
 6145SOL     OW20208   6.107  12.067  14.430
 6145SOL    HW120209   6.160  12.146  14.428
 6145SOL    HW220210   6.049  12.078  14.506
 6146SOL     OW20211   2.906   7.673   5.483
 6146SOL    HW120212   2.889   7.659   5.390
 6146SOL    HW220213   2.992   7.634   5.498
 6147SOL     OW20214   8.285  11.040   8.155
 6147SOL    HW120215   8.355  11.105   8.166
 6147SOL    HW220216   8.291  11.014   8.063
 6148SOL     OW20217   1.460   6.824   0.437
 6148SOL    HW120218   1.410   6.881   0.379
 6148SOL    HW220219   1.445   6.860   0.525
 6149SOL     OW20220  12.136   4.027  13.637
 6149SOL    HW120221  12.083   4.077  13.699
 6149SOL    HW220222  12.073   3.976  13.586
 6150SOL     OW20223   3.154   8.674   5.116
 6150SOL    HW120224   3.134   8.762   5.150
 6150SOL    HW220225   3.101   8.668   5.036
 6151SOL     OW20226  10.699   7.420  12.044
 6151SOL    HW120227  10.676   7.352  12.108
 6151SOL    HW220228  10.635   7.409  11.974
 6152SOL     OW20229   3.616   2.504   4.050
 6152SOL    HW120230   3.649   2.474   4.134
 6152SOL    HW220231   3.684   2.480   3.987
 6153SOL     OW20232  10.224   0.803   3.579
 6153SOL    HW120233  10.161   0.870   3.604
 6153SOL    HW220234  10.171   0.733   3.541
 6154SOL     OW20235   6.685  11.459   5.700
 6154SOL    HW120236   6.606  11.513   5.697
 6154SOL    HW220237   6.718  11.461   5.610
 6155SOL     OW20238  14.531   9.448  12.562
 6155SOL    HW120239  14.480   9.367  12.558
 6155SOL    HW220240  14.465   9.516  12.574
 6156SOL     OW20241   6.866   4.381  12.145
 6156SOL    HW120242   6.837   4.388  12.055
 6156SOL    HW220243   6.962   4.376  12.139
 6157SOL     OW20244   8.130   4.300   6.666
 6157SOL    HW120245   8.141   4.366   6.598
 6157SOL    HW220246   8.038   4.307   6.692
 6158SOL     OW20247   8.984   5.288   8.322
 6158SOL    HW120248   9.066   5.312   8.364
 6158SOL    HW220249   9.009   5.252   8.237
 6159SOL     OW20250   1.853   2.435   2.628
 6159SOL    HW120251   1.801   2.515   2.618
 6159SOL    HW220252   1.911   2.434   2.552
 6160SOL     OW20253   9.181   3.780   5.363
 6160SOL    HW120254   9.120   3.731   5.307
 6160SOL    HW220255   9.232   3.712   5.407
 6161SOL     OW20256   3.315   4.344  14.605
 6161SOL    HW120257   3.276   4.301  14.681
 6161SOL    HW220258   3.402   4.372  14.635
 6162SOL     OW20259  12.816   5.947  11.670
 6162SOL    HW120260  12.773   5.873  11.627
 6162SOL    HW220261  12.854   5.997  11.598
 6163SOL     OW20262  12.505   0.271   7.011
 6163SOL    HW120263  12.540   0.182   7.016
 6163SOL    HW220264  12.510   0.294   6.919
 6164SOL     OW20265   0.904  14.075  12.910
 6164SOL    HW120266   0.949  14.126  12.977
 6164SOL    HW220267   0.930  13.985  12.926
 6165SOL     OW20268  14.529   7.130   8.822
 6165SOL    HW120269  14.449   7.084   8.796
 6165SOL    HW220270  14.509   7.223   8.811
 6166SOL     OW20271   6.539   2.455   3.094
 6166SOL    HW120272   6.458   2.443   3.143
 6166SOL    HW220273   6.522   2.530   3.037
 6167SOL     OW20274   2.297  13.500   0.960
 6167SOL    HW120275   2.366  13.531   0.902
 6167SOL    HW220276   2.256  13.581   0.993
 6168SOL     OW20277   9.363  13.698   8.586
 6168SOL    HW120278   9.285  13.648   8.562
 6168SOL    HW220279   9.365  13.695   8.681
 6169SOL     OW20280  11.077   5.041   9.536
 6169SOL    HW120281  11.031   5.015   9.616
 6169SOL    HW220282  11.053   4.974   9.472
 6170SOL     OW20283  14.841   1.282   2.721
 6170SOL    HW120284  14.861   1.197   2.760
 6170SOL    HW220285  14.746   1.284   2.715
 6171SOL     OW20286   6.064  12.483  14.676
 6171SOL    HW120287   6.083  12.425  14.750
 6171SOL    HW220288   6.012  12.554  14.714
 6172SOL     OW20289  13.232  14.865   4.177
 6172SOL    HW120290  13.283  14.808   4.120
 6172SOL    HW220291  13.213  14.811   4.255
 6173SOL     OW20292  14.478  14.664   7.150
 6173SOL    HW120293  14.423  14.666   7.072
 6173SOL    HW220294  14.568  14.666   7.117
 6174SOL     OW20295   8.080  10.665  13.963
 6174SOL    HW120296   8.117  10.753  13.966
 6174SOL    HW220297   8.115  10.621  14.041
 6175SOL     OW20298   2.838  11.293   5.801
 6175SOL    HW120299   2.874  11.204   5.807
 6175SOL    HW220300   2.745  11.279   5.784
 6176SOL     OW20301   7.033   2.400   6.914
 6176SOL    HW120302   6.979   2.474   6.888
 6176SOL    HW220303   7.018   2.335   6.844
 6177SOL     OW20304  13.070   7.608   9.561
 6177SOL    HW120305  13.085   7.523   9.521
 6177SOL    HW220306  12.974   7.615   9.567
 6178SOL     OW20307   1.595   9.110   4.659
 6178SOL    HW120308   1.517   9.055   4.665
 6178SOL    HW220309   1.666   9.055   4.692
 6179SOL     OW20310   3.391   0.912  14.824
 6179SOL    HW120311   3.412   0.978   0.012
 6179SOL    HW220312   3.333   0.957  14.762
 6180SOL     OW20313   4.684  12.372   9.700
 6180SOL    HW120314   4.629  12.301   9.667
 6180SOL    HW220315   4.653  12.387   9.789
 6181SOL     OW20316   7.930   9.844  14.632
 6181SOL    HW120317   8.016   9.859  14.594
 6181SOL    HW220318   7.946   9.829  14.725
 6182SOL     OW20319  12.695  14.530  13.357
 6182SOL    HW120320  12.730  14.504  13.442
 6182SOL    HW220321  12.756  14.596  13.325
 6183SOL     OW20322  14.492   1.998  14.459
 6183SOL    HW120323  14.478   2.092  14.471
 6183SOL    HW220324  14.473   1.960  14.545
 6184SOL     OW20325   6.988   7.779   4.893
 6184SOL    HW120326   7.013   7.867   4.920
 6184SOL    HW220327   6.989   7.727   4.973
 6185SOL     OW20328   3.004   1.368  11.818
 6185SOL    HW120329   2.938   1.397  11.880
 6185SOL    HW220330   2.987   1.418  11.738
 6186SOL     OW20331  14.658   7.320  13.981
 6186SOL    HW120332  14.698   7.259  13.919
 6186SOL    HW220333  14.672   7.281  14.067
 6187SOL     OW20334   8.974   0.738   3.976
 6187SOL    HW120335   9.035   0.665   3.976
 6187SOL    HW220336   8.947   0.747   4.067
 6188SOL     OW20337   5.514  14.602   3.005
 6188SOL    HW120338   5.491  14.515   2.972
 6188SOL    HW220339   5.554  14.585   3.090
 6189SOL     OW20340  10.098   0.082   8.565
 6189SOL    HW120341  10.188   0.049   8.561
 6189SOL    HW220342  10.043   0.003   8.565
 6190SOL     OW20343   2.431   3.701   3.471
 6190SOL    HW120344   2.384   3.620   3.489
 6190SOL    HW220345   2.467   3.689   3.383
 6191SOL     OW20346   4.217  13.463  11.653
 6191SOL    HW120347   4.295  13.428  11.611
 6191SOL    HW220348   4.172  13.387  11.689
 6192SOL     OW20349   0.072  14.712   1.457
 6192SOL    HW120350   0.156  14.685   1.420
 6192SOL    HW220351   0.047  14.640   1.515
 6193SOL     OW20352  14.577   8.854  13.371
 6193SOL    HW120353  14.598   8.810  13.289
 6193SOL    HW220354  14.487   8.827  13.391
 6194SOL     OW20355   6.146  13.231   7.348
 6194SOL    HW120356   6.199  13.205   7.273
 6194SOL    HW220357   6.110  13.316   7.322
 6195SOL     OW20358  13.077  11.669  13.917
 6195SOL    HW120359  13.159  11.653  13.963
 6195SOL    HW220360  13.075  11.764  13.905
 6196SOL     OW20361   4.175  12.934   2.380
 6196SOL    HW120362   4.214  12.895   2.302
 6196SOL    HW220363   4.142  12.860   2.430
 6197SOL     OW20364  12.946   7.837   3.117
 6197SOL    HW120365  12.876   7.816   3.178
 6197SOL    HW220366  13.000   7.757   3.115
 6198SOL     OW20367   3.753   7.760   4.297
 6198SOL    HW120368   3.800   7.796   4.222
 6198SOL    HW220369   3.677   7.818   4.307
 6199SOL     OW20370   5.511  11.510   8.058
 6199SOL    HW120371   5.424  11.474   8.076
 6199SOL    HW220372   5.527  11.572   8.130
 6200SOL     OW20373  12.045   4.719   1.162
 6200SOL    HW120374  11.971   4.764   1.120
 6200SOL    HW220375  12.030   4.626   1.144
 6201SOL     OW20376   3.423   1.251   5.123
 6201SOL    HW120377   3.475   1.268   5.045
 6201SOL    HW220378   3.336   1.230   5.091
 6202SOL     OW20379  11.908   9.313   6.441
 6202SOL    HW120380  12.002   9.300   6.427
 6202SOL    HW220381  11.875   9.226   6.462
 6203SOL     OW20382   3.874   5.313   6.231
 6203SOL    HW120383   3.802   5.314   6.294
 6203SOL    HW220384   3.930   5.241   6.261
 6204SOL     OW20385   5.553  12.813   8.601
 6204SOL    HW120386   5.494  12.882   8.570
 6204SOL    HW220387   5.607  12.792   8.524
 6205SOL     OW20388   6.501  10.325   5.938
 6205SOL    HW120389   6.589  10.364   5.937
 6205SOL    HW220390   6.486  10.301   6.030
 6206SOL     OW20391   9.696   9.731   0.634
 6206SOL    HW120392   9.783   9.692   0.620
 6206SOL    HW220393   9.698   9.761   0.725
 6207SOL     OW20394  11.343   0.966   3.597
 6207SOL    HW120395  11.394   0.910   3.539
 6207SOL    HW220396  11.352   1.054   3.561
 6208SOL     OW20397  12.040   5.183   5.594
 6208SOL    HW120398  12.005   5.225   5.672
 6208SOL    HW220399  12.110   5.241   5.564
 6209SOL     OW20400   5.226  12.317   6.248
 6209SOL    HW120401   5.308  12.329   6.295
 6209SOL    HW220402   5.159  12.356   6.305
 6210SOL     OW20403   7.154   0.022   8.337
 6210SOL    HW120404   7.146  14.811   8.371
 6210SOL    HW220405   7.064   0.047   8.315
 6211SOL     OW20406   7.054   4.309  11.879
 6211SOL    HW120407   7.125   4.355  11.833
 6211SOL    HW220408   7.047   4.353  11.963
 6212SOL     OW20409  13.191  10.793   4.436
 6212SOL    HW120410  13.136  10.864   4.470
 6212SOL    HW220411  13.136  10.749   4.372
 6213SOL     OW20412   7.968   4.828   8.650
 6213SOL    HW120413   7.920   4.883   8.588
 6213SOL    HW220414   8.057   4.862   8.648
 6214SOL     OW20415   6.471   0.572   6.053
 6214SOL    HW120416   6.537   0.617   6.000
 6214SOL    HW220417   6.447   0.495   6.001
 6215SOL     OW20418   0.193  13.833  10.693
 6215SOL    HW120419   0.228  13.807  10.607
 6215SOL    HW220420   0.099  13.846  10.677
 6216SOL     OW20421   4.395   8.288   4.540
 6216SOL    HW120422   4.409   8.379   4.568
 6216SOL    HW220423   4.381   8.294   4.446
 6217SOL     OW20424   3.591  13.063   6.757
 6217SOL    HW120425   3.512  13.038   6.805
 6217SOL    HW220426   3.632  13.129   6.813
 6218SOL     OW20427   6.089   8.030   8.664
 6218SOL    HW120428   6.064   8.071   8.581
 6218SOL    HW220429   6.121   8.102   8.718
 6219SOL     OW20430  13.041   0.571  11.771
 6219SOL    HW120431  12.964   0.518  11.752
 6219SOL    HW220432  13.113   0.525  11.728
 6220SOL     OW20433   9.282  14.743  10.464
 6220SOL    HW120434   9.255  14.678  10.399
 6220SOL    HW220435   9.308  14.819  10.412
 6221SOL     OW20436  11.134   8.023   9.362
 6221SOL    HW120437  11.110   8.105   9.405
 6221SOL    HW220438  11.059   7.965   9.380
 6222SOL     OW20439  13.278   2.997  11.444
 6222SOL    HW120440  13.356   3.036  11.405
 6222SOL    HW220441  13.305   2.971  11.532
 6223SOL     OW20442  13.873   5.796   9.758
 6223SOL    HW120443  13.917   5.714   9.781
 6223SOL    HW220444  13.900   5.814   9.668
 6224SOL     OW20445   7.524  11.152   7.288
 6224SOL    HW120446   7.581  11.157   7.212
 6224SOL    HW220447   7.471  11.073   7.273
 6225SOL     OW20448   3.557   1.742   1.666
 6225SOL    HW120449   3.621   1.712   1.731
 6225SOL    HW220450   3.562   1.677   1.596
 6226SOL     OW20451   4.566   0.391   2.377
 6226SOL    HW120452   4.589   0.415   2.467
 6226SOL    HW220453   4.557   0.296   2.380
 6227SOL     OW20454   9.897   9.330  10.563
 6227SOL    HW120455   9.912   9.282  10.645
 6227SOL    HW220456   9.830   9.279  10.518
 6228SOL     OW20457  11.013   1.951   7.631
 6228SOL    HW120458  10.932   1.969   7.583
 6228SOL    HW220459  10.985   1.949   7.723
 6229SOL     OW20460   3.055   6.248   8.402
 6229SOL    HW120461   3.018   6.305   8.469
 6229SOL    HW220462   3.124   6.200   8.447
 6230SOL     OW20463   7.531  14.354   6.167
 6230SOL    HW120464   7.563  14.443   6.151
 6230SOL    HW220465   7.450  14.348   6.115
 6231SOL     OW20466   8.745   2.191  12.265
 6231SOL    HW120467   8.669   2.245  12.245
 6231SOL    HW220468   8.715   2.101  12.253
 6232SOL     OW20469   3.370   5.640   4.191
 6232SOL    HW120470   3.348   5.636   4.098
 6232SOL    HW220471   3.423   5.561   4.206
 6233SOL     OW20472   5.045   7.178   6.419
 6233SOL    HW120473   5.130   7.162   6.459
 6233SOL    HW220474   5.052   7.139   6.331
 6234SOL     OW20475  11.281   7.861  14.410
 6234SOL    HW120476  11.358   7.918  14.415
 6234SOL    HW220477  11.207   7.921  14.400
 6235SOL     OW20478   6.730  11.403   0.580
 6235SOL    HW120479   6.780  11.332   0.621
 6235SOL    HW220480   6.792  11.475   0.573
 6236SOL     OW20481  11.916   0.271   4.732
 6236SOL    HW120482  11.993   0.214   4.742
 6236SOL    HW220483  11.846   0.213   4.704
 6237SOL     OW20484   1.498   5.212   1.214
 6237SOL    HW120485   1.420   5.256   1.180
 6237SOL    HW220486   1.497   5.126   1.172
 6238SOL     OW20487   0.502   6.548   3.928
 6238SOL    HW120488   0.422   6.563   3.877
 6238SOL    HW220489   0.505   6.453   3.940
 6239SOL     OW20490   5.791   8.217   8.482
 6239SOL    HW120491   5.887   8.215   8.477
 6239SOL    HW220492   5.764   8.262   8.403
 6240SOL     OW20493   3.831   9.614  10.635
 6240SOL    HW120494   3.900   9.548  10.624
 6240SOL    HW220495   3.870   9.679  10.693
 6241SOL     OW20496  10.406   1.578   4.131
 6241SOL    HW120497  10.442   1.663   4.154
 6241SOL    HW220498  10.311   1.590   4.134
 6242SOL     OW20499   6.901   8.180  14.043
 6242SOL    HW120500   6.856   8.257  14.079
 6242SOL    HW220501   6.990   8.187  14.076
 6243SOL     OW20502  11.158   8.680   9.270
 6243SOL    HW120503  11.089   8.697   9.206
 6243SOL    HW220504  11.173   8.585   9.263
 6244SOL     OW20505  13.780   1.476  10.053
 6244SOL    HW120506  13.784   1.385  10.024
 6244SOL    HW220507  13.723   1.475  10.130
 6245SOL     OW20508  10.383   2.485   7.344
 6245SOL    HW120509  10.452   2.551   7.340
 6245SOL    HW220510  10.329   2.501   7.267
 6246SOL     OW20511   2.385   1.607   9.087
 6246SOL    HW120512   2.479   1.604   9.106
 6246SOL    HW220513   2.376   1.678   9.024
 6247SOL     OW20514  13.229  10.902  13.359
 6247SOL    HW120515  13.181  10.925  13.439
 6247SOL    HW220516  13.231  10.807  13.359
 6248SOL     OW20517  14.166  11.652  10.266
 6248SOL    HW120518  14.140  11.573  10.218
 6248SOL    HW220519  14.087  11.677  10.315
 6249SOL     OW20520   3.746   5.271   5.249
 6249SOL    HW120521   3.661   5.314   5.243
 6249SOL    HW220522   3.796   5.324   5.311
 6250SOL     OW20523   6.501   7.415   8.972
 6250SOL    HW120524   6.445   7.373   9.037
 6250SOL    HW220525   6.582   7.435   9.019
 6251SOL     OW20526  11.716  13.496   0.484
 6251SOL    HW120527  11.779  13.505   0.555
 6251SOL    HW220528  11.644  13.554   0.509
 6252SOL     OW20529  10.848  14.524   9.111
 6252SOL    HW120530  10.756  14.537   9.085
 6252SOL    HW220531  10.865  14.432   9.094
 6253SOL     OW20532   8.471   3.312   0.230
 6253SOL    HW120533   8.398   3.265   0.271
 6253SOL    HW220534   8.526   3.243   0.193
 6254SOL     OW20535   3.861   1.733  14.282
 6254SOL    HW120536   3.818   1.648  14.295
 6254SOL    HW220537   3.931   1.716  14.220
 6255SOL     OW20538  13.285  14.374   2.799
 6255SOL    HW120539  13.314  14.284   2.784
 6255SOL    HW220540  13.227  14.393   2.725
 6256SOL     OW20541   6.486  11.349  12.468
 6256SOL    HW120542   6.574  11.322  12.443
 6256SOL    HW220543   6.440  11.267  12.487
 6257SOL     OW20544   4.496  11.070   5.001
 6257SOL    HW120545   4.517  10.979   4.981
 6257SOL    HW220546   4.452  11.067   5.086
 6258SOL     OW20547   3.818   2.514  10.120
 6258SOL    HW120548   3.814   2.609  10.131
 6258SOL    HW220549   3.752   2.494  10.053
 6259SOL     OW20550   5.265   4.359   6.064
 6259SOL    HW120551   5.243   4.285   6.009
 6259SOL    HW220552   5.201   4.427   6.041
 6260SOL     OW20553   2.590   9.963   3.915
 6260SOL    HW120554   2.528  10.009   3.858
 6260SOL    HW220555   2.594   9.874   3.879
 6261SOL     OW20556   0.529  13.344   3.752
 6261SOL    HW120557   0.573  13.352   3.836
 6261SOL    HW220558   0.541  13.429   3.710
 6262SOL     OW20559   3.650  10.350   0.124
 6262SOL    HW120560   3.669  10.438   0.092
 6262SOL    HW220561   3.582  10.363   0.191
 6263SOL     OW20562  11.885   3.092  13.847
 6263SOL    HW120563  11.907   3.184  13.856
 6263SOL    HW220564  11.934   3.048  13.917
 6264SOL     OW20565  11.066   2.431   3.636
 6264SOL    HW120566  10.981   2.476   3.641
 6264SOL    HW220567  11.046   2.340   3.659
 6265SOL     OW20568   4.063   1.229   6.309
 6265SOL    HW120569   4.042   1.162   6.375
 6265SOL    HW220570   4.147   1.264   6.339
 6266SOL     OW20571   3.192   7.460   9.042
 6266SOL    HW120572   3.261   7.508   8.997
 6266SOL    HW220573   3.237   7.409   9.109
 6267SOL     OW20574  10.331   8.307   0.157
 6267SOL    HW120575  10.316   8.306   0.251
 6267SOL    HW220576  10.340   8.400   0.135
 6268SOL     OW20577   6.803   5.000   1.664
 6268SOL    HW120578   6.845   4.970   1.745
 6268SOL    HW220579   6.859   5.072   1.633
 6269SOL     OW20580   6.137  13.277   8.895
 6269SOL    HW120581   6.200  13.302   8.828
 6269SOL    HW220582   6.080  13.353   8.903
 6270SOL     OW20583   7.953  13.611   0.648
 6270SOL    HW120584   8.008  13.535   0.669
 6270SOL    HW220585   7.902  13.583   0.572
 6271SOL     OW20586   4.569   4.571   9.345
 6271SOL    HW120587   4.608   4.624   9.414
 6271SOL    HW220588   4.488   4.617   9.323
 6272SOL     OW20589   8.641  12.836  13.611
 6272SOL    HW120590   8.715  12.796  13.565
 6272SOL    HW220591   8.682  12.890  13.679
 6273SOL     OW20592   5.431   8.988  14.561
 6273SOL    HW120593   5.363   8.963  14.624
 6273SOL    HW220594   5.456   9.077  14.587
 6274SOL     OW20595   7.882   6.132   8.937
 6274SOL    HW120596   7.894   6.100   8.848
 6274SOL    HW220597   7.971   6.141   8.972
 6275SOL     OW20598   0.149  11.638   2.476
 6275SOL    HW120599   0.064  11.624   2.434
 6275SOL    HW220600   0.183  11.718   2.436
 6276SOL     OW20601   3.786  10.530   1.244
 6276SOL    HW120602   3.733  10.508   1.320
 6276SOL    HW220603   3.724  10.537   1.172
 6277SOL     OW20604  10.013   6.885  11.506
 6277SOL    HW120605   9.977   6.853  11.423
 6277SOL    HW220606  10.058   6.967  11.483
 6278SOL     OW20607  11.166   0.477   9.215
 6278SOL    HW120608  11.098   0.467   9.149
 6278SOL    HW220609  11.194   0.387   9.234
 6279SOL     OW20610   9.453   2.038  11.262
 6279SOL    HW120611   9.392   2.037  11.336
 6279SOL    HW220612   9.475   2.131  11.250
 6280SOL     OW20613  14.045  13.455  13.121
 6280SOL    HW120614  14.001  13.392  13.064
 6280SOL    HW220615  14.036  13.539  13.074
 6281SOL     OW20616   2.838  11.848   0.789
 6281SOL    HW120617   2.892  11.913   0.832
 6281SOL    HW220618   2.748  11.876   0.805
 6282SOL     OW20619   2.510   8.469   3.611
 6282SOL    HW120620   2.543   8.380   3.623
 6282SOL    HW220621   2.588   8.524   3.609
 6283SOL     OW20622   0.099   6.705  12.057
 6283SOL    HW120623   0.024   6.646  12.068
 6283SOL    HW220624   0.069   6.768  11.991
 6284SOL     OW20625   3.815   3.987  12.624
 6284SOL    HW120626   3.909   3.984  12.637
 6284SOL    HW220627   3.780   4.020  12.707
 6285SOL     OW20628   0.305   7.638  12.179
 6285SOL    HW120629   0.272   7.570  12.120
 6285SOL    HW220630   0.334   7.591  12.257
 6286SOL     OW20631   3.053  14.677   4.364
 6286SOL    HW120632   3.116  14.625   4.315
 6286SOL    HW220633   3.092  14.688   4.451
 6287SOL     OW20634   0.794   3.915  11.214
 6287SOL    HW120635   0.717   3.907  11.270
 6287SOL    HW220636   0.839   3.992  11.247
 6288SOL     OW20637   8.676   2.167   6.215
 6288SOL    HW120638   8.687   2.089   6.161
 6288SOL    HW220639   8.650   2.134   6.300
 6289SOL     OW20640   0.159   2.110  10.460
 6289SOL    HW120641   0.106   2.091  10.382
 6289SOL    HW220642   0.124   2.193  10.492
 6290SOL     OW20643   2.680   8.541  10.502
 6290SOL    HW120644   2.703   8.625  10.463
 6290SOL    HW220645   2.612   8.562  10.566
 6291SOL     OW20646  13.624   3.420   7.872
 6291SOL    HW120647  13.598   3.507   7.842
 6291SOL    HW220648  13.543   3.370   7.875
 6292SOL     OW20649   8.168   5.311  14.390
 6292SOL    HW120650   8.186   5.220  14.370
 6292SOL    HW220651   8.196   5.359  14.312
 6293SOL     OW20652  11.628   9.989   9.613
 6293SOL    HW120653  11.545   9.977   9.566
 6293SOL    HW220654  11.686  10.028   9.548
 6294SOL     OW20655  11.761  12.558   4.730
 6294SOL    HW120656  11.709  12.565   4.650
 6294SOL    HW220657  11.745  12.469   4.762
 6295SOL     OW20658   1.661   2.739   8.460
 6295SOL    HW120659   1.665   2.822   8.413
 6295SOL    HW220660   1.573   2.705   8.441
 6296SOL     OW20661   0.613  11.882   0.774
 6296SOL    HW120662   0.603  11.837   0.690
 6296SOL    HW220663   0.633  11.973   0.751
 6297SOL     OW20664  14.835   8.230  10.833
 6297SOL    HW120665   0.043   8.265  10.854
 6297SOL    HW220666  14.809   8.183  10.912
 6298SOL     OW20667   8.458   5.538   6.883
 6298SOL    HW120668   8.440   5.502   6.970
 6298SOL    HW220669   8.471   5.461   6.828
 6299SOL     OW20670   9.713   8.178  12.724
 6299SOL    HW120671   9.701   8.255  12.781
 6299SOL    HW220672   9.806   8.178  12.703
 6300SOL     OW20673   7.827   5.567  14.771
 6300SOL    HW120674   7.916   5.545  14.799
 6300SOL    HW220675   7.817   5.526  14.686
 6301SOL     OW20676   2.606   8.419   5.299
 6301SOL    HW120677   2.610   8.324   5.288
 6301SOL    HW220678   2.622   8.433   5.392
 6302SOL     OW20679   9.591   6.066   3.882
 6302SOL    HW120680   9.610   6.128   3.812
 6302SOL    HW220681   9.497   6.047   3.873
 6303SOL     OW20682   9.489  10.679  11.727
 6303SOL    HW120683   9.481  10.658  11.820
 6303SOL    HW220684   9.583  10.676  11.710
 6304SOL     OW20685   5.942   0.489   9.681
 6304SOL    HW120686   6.024   0.443   9.699
 6304SOL    HW220687   5.952   0.521   9.591
 6305SOL     OW20688  14.491  12.360   9.475
 6305SOL    HW120689  14.402  12.393   9.490
 6305SOL    HW220690  14.543  12.395   9.548
 6306SOL     OW20691  14.260  14.457  10.323
 6306SOL    HW120692  14.205  14.395  10.371
 6306SOL    HW220693  14.251  14.539  10.371
 6307SOL     OW20694   4.387   6.967  10.337
 6307SOL    HW120695   4.422   6.882  10.362
 6307SOL    HW220696   4.315   6.947  10.276
 6308SOL     OW20697  11.736   3.808  11.837
 6308SOL    HW120698  11.734   3.774  11.748
 6308SOL    HW220699  11.655   3.858  11.846
 6309SOL     OW20700  12.691   0.611   9.997
 6309SOL    HW120701  12.757   0.612  10.067
 6309SOL    HW220702  12.648   0.526  10.007
 6310SOL     OW20703   1.207   7.206  13.947
 6310SOL    HW120704   1.277   7.267  13.970
 6310SOL    HW220705   1.127   7.259  13.949
 6311SOL     OW20706   4.923  14.715   3.280
 6311SOL    HW120707   4.913  14.624   3.307
 6311SOL    HW220708   4.968  14.757   3.354
 6312SOL     OW20709   4.773   3.448   2.014
 6312SOL    HW120710   4.817   3.364   2.024
 6312SOL    HW220711   4.688   3.436   2.058
 6313SOL     OW20712   5.370   1.394   2.219
 6313SOL    HW120713   5.426   1.471   2.230
 6313SOL    HW220714   5.430   1.322   2.203
 6314SOL     OW20715  11.711  12.791  13.084
 6314SOL    HW120716  11.746  12.721  13.029
 6314SOL    HW220717  11.656  12.745  13.148
 6315SOL     OW20718  13.094   1.200   0.601
 6315SOL    HW120719  13.075   1.279   0.651
 6315SOL    HW220720  13.161   1.155   0.653
 6316SOL     OW20721   7.720   7.556   0.235
 6316SOL    HW120722   7.803   7.533   0.277
 6316SOL    HW220723   7.745   7.591   0.150
 6317SOL     OW20724   9.710   7.526  11.090
 6317SOL    HW120725   9.696   7.612  11.130
 6317SOL    HW220726   9.691   7.464  11.161
 6318SOL     OW20727   0.147  13.050   7.072
 6318SOL    HW120728   0.108  12.982   7.127
 6318SOL    HW220729   0.186  13.112   7.133
 6319SOL     OW20730  13.619  11.002   4.085
 6319SOL    HW120731  13.565  10.985   4.162
 6319SOL    HW220732  13.679  10.928   4.081
 6320SOL     OW20733  11.458   0.326   0.797
 6320SOL    HW120734  11.456   0.357   0.888
 6320SOL    HW220735  11.384   0.265   0.792
 6321SOL     OW20736   7.911   6.319   2.552
 6321SOL    HW120737   7.989   6.371   2.532
 6321SOL    HW220738   7.943   6.230   2.564
 6322SOL     OW20739   6.531  13.799   8.944
 6322SOL    HW120740   6.539  13.858   8.869
 6322SOL    HW220741   6.544  13.855   9.020
 6323SOL     OW20742  11.683  12.766  13.848
 6323SOL    HW120743  11.674  12.855  13.880
 6323SOL    HW220744  11.668  12.772  13.753
 6324SOL     OW20745  10.509  14.593   6.491
 6324SOL    HW120746  10.496  14.544   6.572
 6324SOL    HW220747  10.465  14.676   6.506
 6325SOL     OW20748  10.126   4.736   7.999
 6325SOL    HW120749  10.217   4.710   7.981
 6325SOL    HW220750  10.134   4.794   8.075
 6326SOL     OW20751   8.060   5.510  12.637
 6326SOL    HW120752   8.052   5.553  12.552
 6326SOL    HW220753   8.072   5.582  12.699
 6327SOL     OW20754  13.289   2.536   8.359
 6327SOL    HW120755  13.313   2.449   8.390
 6327SOL    HW220756  13.357   2.557   8.295
 6328SOL     OW20757   3.442   7.778  10.327
 6328SOL    HW120758   3.447   7.697  10.277
 6328SOL    HW220759   3.530   7.787  10.366
 6329SOL     OW20760  10.455   7.342   6.282
 6329SOL    HW120761  10.449   7.251   6.253
 6329SOL    HW220762  10.366   7.376   6.271
 6330SOL     OW20763   1.250   9.714  11.655
 6330SOL    HW120764   1.319   9.780  11.663
 6330SOL    HW220765   1.271   9.666  11.575
 6331SOL     OW20766  12.106   5.450  10.259
 6331SOL    HW120767  12.121   5.426  10.168
 6331SOL    HW220768  12.046   5.383  10.292
 6332SOL     OW20769   5.585   2.774   1.181
 6332SOL    HW120770   5.526   2.715   1.227
 6332SOL    HW220771   5.672   2.735   1.191
 6333SOL     OW20772  10.416   3.174   1.478
 6333SOL    HW120773  10.415   3.207   1.388
 6333SOL    HW220774  10.330   3.133   1.489
 6334SOL     OW20775  12.866  11.566   8.837
 6334SOL    HW120776  12.821  11.499   8.888
 6334SOL    HW220777  12.820  11.648   8.858
 6335SOL     OW20778   7.942   1.981  12.348
 6335SOL    HW120779   7.909   1.922  12.416
 6335SOL    HW220780   7.872   2.045  12.336
 6336SOL     OW20781   7.101   3.086   7.890
 6336SOL    HW120782   7.104   3.118   7.980
 6336SOL    HW220783   7.102   3.164   7.835
 6337SOL     OW20784   9.919  10.164   1.285
 6337SOL    HW120785   9.825  10.177   1.291
 6337SOL    HW220786   9.949  10.233   1.225
 6338SOL     OW20787   5.518   4.649  12.356
 6338SOL    HW120788   5.602   4.669  12.396
 6338SOL    HW220789   5.502   4.720  12.295
 6339SOL     OW20790  13.868  12.766   4.793
 6339SOL    HW120791  13.870  12.735   4.884
 6339SOL    HW220792  13.932  12.837   4.791
 6340SOL     OW20793   6.953  13.204   6.245
 6340SOL    HW120794   7.012  13.188   6.319
 6340SOL    HW220795   6.945  13.120   6.201
 6341SOL     OW20796   6.188   6.243   7.670
 6341SOL    HW120797   6.094   6.260   7.674
 6341SOL    HW220798   6.224   6.322   7.629
 6342SOL     OW20799   1.333  14.866   7.098
 6342SOL    HW120800   1.392  14.816   7.042
 6342SOL    HW220801   1.359   0.080   7.083
 6343SOL     OW20802   8.182   6.654   7.002
 6343SOL    HW120803   8.175   6.693   6.915
 6343SOL    HW220804   8.180   6.559   6.986
 6344SOL     OW20805   6.462   1.794   4.362
 6344SOL    HW120806   6.507   1.837   4.289
 6344SOL    HW220807   6.497   1.838   4.440
 6345SOL     OW20808   3.947  11.241   2.278
 6345SOL    HW120809   3.856  11.222   2.258
 6345SOL    HW220810   3.975  11.300   2.208
 6346SOL     OW20811  14.400  13.711  10.690
 6346SOL    HW120812  14.313  13.749  10.694
 6346SOL    HW220813  14.459  13.785  10.706
 6347SOL     OW20814   3.297   6.250  13.022
 6347SOL    HW120815   3.248   6.185  12.972
 6347SOL    HW220816   3.238   6.278  13.092
 6348SOL     OW20817  14.685   5.917   5.237
 6348SOL    HW120818  14.606   5.970   5.252
 6348SOL    HW220819  14.711   5.887   5.325
 6349SOL     OW20820  11.814  14.850  13.617
 6349SOL    HW120821  11.767  14.791  13.676
 6349SOL    HW220822  11.757  14.861  13.542
 6350SOL     OW20823   5.128  10.768   8.835
 6350SOL    HW120824   5.119  10.709   8.910
 6350SOL    HW220825   5.042  10.807   8.825
 6351SOL     OW20826   2.690  12.828  10.936
 6351SOL    HW120827   2.672  12.736  10.953
 6351SOL    HW220828   2.783  12.830  10.911
 6352SOL     OW20829  11.492   1.886  13.564
 6352SOL    HW120830  11.549   1.825  13.612
 6352SOL    HW220831  11.551   1.933  13.506
 6353SOL     OW20832   1.860   0.433  10.610
 6353SOL    HW120833   1.854   0.371  10.537
 6353SOL    HW220834   1.789   0.407  10.669
 6354SOL     OW20835  14.010  12.187   8.285
 6354SOL    HW120836  13.916  12.171   8.290
 6354SOL    HW220837  14.050  12.119   8.340
 6355SOL     OW20838   6.812  14.664   0.776
 6355SOL    HW120839   6.729  14.618   0.772
 6355SOL    HW220840   6.860  14.623   0.848
 6356SOL     OW20841  13.767   1.863   3.196
 6356SOL    HW120842  13.850   1.859   3.149
 6356SOL    HW220843  13.789   1.845   3.287
 6357SOL     OW20844  12.941  11.469  11.960
 6357SOL    HW120845  12.954  11.427  12.044
 6357SOL    HW220846  12.966  11.560  11.975
 6358SOL     OW20847   0.578   0.180   6.471
 6358SOL    HW120848   0.616   0.262   6.500
 6358SOL    HW220849   0.586   0.121   6.547
 6359SOL     OW20850  12.909  14.698   4.633
 6359SOL    HW120851  12.990  14.746   4.611
 6359SOL    HW220852  12.879  14.739   4.714
 6360SOL     OW20853  12.311   2.003   8.905
 6360SOL    HW120854  12.373   1.930   8.908
 6360SOL    HW220855  12.268   1.995   8.820
 6361SOL     OW20856   5.358   8.719   3.229
 6361SOL    HW120857   5.339   8.625   3.239
 6361SOL    HW220858   5.434   8.733   3.285
 6362SOL     OW20859   8.972   8.285  11.411
 6362SOL    HW120860   8.963   8.345  11.337
 6362SOL    HW220861   8.888   8.290  11.456
 6363SOL     OW20862  13.826   9.627   3.458
 6363SOL    HW120863  13.861   9.555   3.405
 6363SOL    HW220864  13.810   9.697   3.395
 6364SOL     OW20865  10.969   3.082   1.909
 6364SOL    HW120866  10.995   3.086   1.817
 6364SOL    HW220867  10.873   3.077   1.907
 6365SOL     OW20868   1.684   5.342   1.352
 6365SOL    HW120869   1.610   5.289   1.322
 6365SOL    HW220870   1.646   5.401   1.417
 6366SOL     OW20871  10.067  13.499  12.630
 6366SOL    HW120872  10.021  13.499  12.546
 6366SOL    HW220873  10.023  13.432  12.682
 6367SOL     OW20874   3.424  10.647   9.066
 6367SOL    HW120875   3.443  10.740   9.071
 6367SOL    HW220876   3.330  10.641   9.085
 6368SOL     OW20877   8.159   4.501  13.205
 6368SOL    HW120878   8.209   4.503  13.287
 6368SOL    HW220879   8.194   4.426  13.158
 6369SOL     OW20880   0.611   5.459  13.793
 6369SOL    HW120881   0.705   5.473  13.806
 6369SOL    HW220882   0.598   5.471  13.698
 6370SOL     OW20883   6.480  14.064   8.225
 6370SOL    HW120884   6.459  13.971   8.225
 6370SOL    HW220885   6.548  14.074   8.158
 6371SOL     OW20886   3.808  11.795  11.811
 6371SOL    HW120887   3.830  11.708  11.844
 6371SOL    HW220888   3.883  11.850  11.833
 6372SOL     OW20889   3.823   4.994  13.371
 6372SOL    HW120890   3.746   4.939  13.388
 6372SOL    HW220891   3.787   5.072  13.328
 6373SOL     OW20892  10.319   5.968   2.038
 6373SOL    HW120893  10.241   5.972   1.983
 6373SOL    HW220894  10.388   5.937   1.979
 6374SOL     OW20895   3.276  11.635   4.178
 6374SOL    HW120896   3.328  11.565   4.218
 6374SOL    HW220897   3.193  11.634   4.225
 6375SOL     OW20898   0.659  12.824  10.233
 6375SOL    HW120899   0.601  12.773  10.289
 6375SOL    HW220900   0.746  12.813  10.272
 6376SOL     OW20901   7.311   9.796   8.183
 6376SOL    HW120902   7.352   9.833   8.261
 6376SOL    HW220903   7.255   9.866   8.150
 6377SOL     OW20904  14.712   2.851   2.530
 6377SOL    HW120905  14.735   2.943   2.520
 6377SOL    HW220906  14.695   2.840   2.623
 6378SOL     OW20907   6.594  13.679   1.541
 6378SOL    HW120908   6.619  13.683   1.448
 6378SOL    HW220909   6.526  13.746   1.550
 6379SOL     OW20910  11.799   1.590  11.873
 6379SOL    HW120911  11.790   1.685  11.873
 6379SOL    HW220912  11.834   1.570  11.960
 6380SOL     OW20913   8.514   1.002  14.575
 6380SOL    HW120914   8.521   0.999  14.480
 6380SOL    HW220915   8.596   1.041  14.604
 6381SOL     OW20916   1.836   9.961   6.437
 6381SOL    HW120917   1.860   9.986   6.527
 6381SOL    HW220918   1.792   9.877   6.447
 6382SOL     OW20919   5.572   4.202   4.367
 6382SOL    HW120920   5.492   4.229   4.322
 6382SOL    HW220921   5.625   4.281   4.371
 6383SOL     OW20922   3.356   5.731  11.411
 6383SOL    HW120923   3.369   5.637  11.410
 6383SOL    HW220924   3.405   5.762  11.487
 6384SOL     OW20925   4.682   7.832   2.067
 6384SOL    HW120926   4.666   7.789   2.151
 6384SOL    HW220927   4.631   7.781   2.004
 6385SOL     OW20928   3.371  11.010   9.049
 6385SOL    HW120929   3.403  10.966   8.970
 6385SOL    HW220930   3.343  11.096   9.018
 6386SOL     OW20931  13.679  12.221   4.804
 6386SOL    HW120932  13.643  12.302   4.767
 6386SOL    HW220933  13.610  12.156   4.793
 6387SOL     OW20934  11.437   3.304  14.101
 6387SOL    HW120935  11.527   3.325  14.127
 6387SOL    HW220936  11.382   3.352  14.162
 6388SOL     OW20937   4.450   4.828  12.569
 6388SOL    HW120938   4.387   4.883  12.616
 6388SOL    HW220939   4.525   4.886  12.552
 6389SOL     OW20940   2.821  11.658  13.229
 6389SOL    HW120941   2.904  11.701  13.249
 6389SOL    HW220942   2.758  11.730  13.219
 6390SOL     OW20943   9.432   0.090   7.949
 6390SOL    HW120944   9.373   0.164   7.955
 6390SOL    HW220945   9.510   0.125   7.904
 6391SOL     OW20946   5.938   4.354   8.644
 6391SOL    HW120947   5.915   4.434   8.692
 6391SOL    HW220948   5.904   4.283   8.697
 6392SOL     OW20949   8.992   1.136  14.093
 6392SOL    HW120950   9.066   1.087  14.058
 6392SOL    HW220951   9.009   1.227  14.067
 6393SOL     OW20952   3.218   2.914  11.037
 6393SOL    HW120953   3.129   2.940  11.013
 6393SOL    HW220954   3.224   2.822  11.011
 6394SOL     OW20955  10.138  14.371   9.731
 6394SOL    HW120956  10.083  14.385   9.807
 6394SOL    HW220957  10.094  14.303   9.680
 6395SOL     OW20958   1.957   7.956   0.244
 6395SOL    HW120959   1.975   7.951   0.338
 6395SOL    HW220960   1.889   8.023   0.236
 6396SOL     OW20961   3.007   7.343   1.683
 6396SOL    HW120962   3.003   7.390   1.600
 6396SOL    HW220963   3.053   7.403   1.742
 6397SOL     OW20964   0.392  10.620   2.851
 6397SOL    HW120965   0.373  10.527   2.864
 6397SOL    HW220966   0.475  10.635   2.898
 6398SOL     OW20967   3.944   2.396  14.604
 6398SOL    HW120968   3.868   2.393  14.661
 6398SOL    HW220969   3.927   2.330  14.537
 6399SOL     OW20970  11.454   4.090   9.476
 6399SOL    HW120971  11.545   4.110   9.497
 6399SOL    HW220972  11.438   4.136   9.393
 6400SOL     OW20973   7.299  11.222   5.266
 6400SOL    HW120974   7.283  11.315   5.280
 6400SOL    HW220975   7.212  11.182   5.272
 6401SOL     OW20976  11.428   5.621   4.406
 6401SOL    HW120977  11.436   5.573   4.488
 6401SOL    HW220978  11.498   5.585   4.351
 6402SOL     OW20979   2.867   0.941  12.969
 6402SOL    HW120980   2.793   0.965  12.913
 6402SOL    HW220981   2.942   0.937  12.909
 6403SOL     OW20982  13.429   9.862   8.338
 6403SOL    HW120983  13.335   9.873   8.332
 6403SOL    HW220984  13.466   9.942   8.301
 6404SOL     OW20985   7.007  10.510  10.809
 6404SOL    HW120986   6.928  10.459  10.830
 6404SOL    HW220987   7.010  10.512  10.714
 6405SOL     OW20988   8.242   0.048  12.651
 6405SOL    HW120989   8.206   0.129  12.617
 6405SOL    HW220990   8.209  14.858  12.591
 6406SOL     OW20991   8.293  10.872  13.597
 6406SOL    HW120992   8.199  10.859  13.615
 6406SOL    HW220993   8.303  10.967  13.594
 6407SOL     OW20994   3.491   3.077   2.106
 6407SOL    HW120995   3.432   3.139   2.149
 6407SOL    HW220996   3.572   3.082   2.157
 6408SOL     OW20997   6.598   0.294   0.049
 6408SOL    HW120998   6.536   0.361   0.080
 6408SOL    HW220999   6.617   0.241   0.126
 6409SOL     OW21000   6.062   6.853  13.556
 6409SOL    HW121001   5.973   6.863  13.590
 6409SOL    HW221002   6.057   6.777  13.499
 6410SOL     OW21003   7.608   1.756   1.424
 6410SOL    HW121004   7.531   1.782   1.373
 6410SOL    HW221005   7.601   1.807   1.505
 6411SOL     OW21006  14.814   4.022  12.513
 6411SOL    HW121007  14.780   3.933  12.524
 6411SOL    HW221008  14.743   4.069  12.468
 6412SOL     OW21009  11.839  11.051   9.740
 6412SOL    HW121010  11.806  11.112   9.805
 6412SOL    HW221011  11.813  11.089   9.656
 6413SOL     OW21012   0.776  10.715  11.646
 6413SOL    HW121013   0.781  10.763  11.563
 6413SOL    HW221014   0.701  10.657  11.635
 6414SOL     OW21015   9.269   3.626   1.794
 6414SOL    HW121016   9.325   3.550   1.810
 6414SOL    HW221017   9.296   3.657   1.707
 6415SOL     OW21018   0.532  11.381   5.674
 6415SOL    HW121019   0.583  11.303   5.696
 6415SOL    HW221020   0.468  11.351   5.609
 6416SOL     OW21021  13.791   4.734  12.981
 6416SOL    HW121022  13.805   4.673  13.053
 6416SOL    HW221023  13.875   4.735  12.935
 6417SOL     OW21024  10.163  11.519   5.290
 6417SOL    HW121025  10.224  11.463   5.243
 6417SOL    HW221026  10.197  11.522   5.380
 6418SOL     OW21027   3.456   7.199   6.052
 6418SOL    HW121028   3.441   7.107   6.031
 6418SOL    HW221029   3.502   7.197   6.136
 6419SOL     OW21030   5.270  14.116   8.118
 6419SOL    HW121031   5.279  14.064   8.039
 6419SOL    HW221032   5.352  14.102   8.166
 6420SOL     OW21033   9.111   3.059  14.340
 6420SOL    HW121034   9.114   3.155  14.331
 6420SOL    HW221035   9.082   3.029  14.254
 6421SOL     OW21036  12.169   8.232   4.714
 6421SOL    HW121037  12.218   8.312   4.693
 6421SOL    HW221038  12.078   8.261   4.723
 6422SOL     OW21039  14.812   4.202  14.462
 6422SOL    HW121040  14.780   4.206  14.372
 6422SOL    HW221041   0.026   4.229  14.456
 6423SOL     OW21042   9.750  10.492   0.751
 6423SOL    HW121043   9.661  10.456   0.755
 6423SOL    HW221044   9.807  10.417   0.770
 6424SOL     OW21045   2.749  14.503  12.561
 6424SOL    HW121046   2.688  14.549  12.618
 6424SOL    HW221047   2.802  14.449  12.620
 6425SOL     OW21048  14.274   8.355  12.928
 6425SOL    HW121049  14.267   8.280  12.987
 6425SOL    HW221050  14.199   8.347  12.869
 6426SOL     OW21051  10.630  14.277   8.135
 6426SOL    HW121052  10.566  14.338   8.100
 6426SOL    HW221053  10.700  14.275   8.070
 6427SOL     OW21054   3.722   0.181  10.548
 6427SOL    HW121055   3.802   0.165  10.599
 6427SOL    HW221056   3.741   0.144  10.462
 6428SOL     OW21057   1.051  11.431   5.125
 6428SOL    HW121058   1.046  11.394   5.037
 6428SOL    HW221059   1.107  11.371   5.173
 6429SOL     OW21060   8.310   0.354  10.409
 6429SOL    HW121061   8.399   0.373  10.380
 6429SOL    HW221062   8.318   0.278  10.465
 6430SOL     OW21063   1.535  14.447   4.329
 6430SOL    HW121064   1.512  14.433   4.421
 6430SOL    HW221065   1.571  14.364   4.300
 6431SOL     OW21066  13.558   5.028   5.568
 6431SOL    HW121067  13.560   5.092   5.639
 6431SOL    HW221068  13.477   5.047   5.521
 6432SOL     OW21069   4.480   3.502  14.565
 6432SOL    HW121070   4.558   3.461  14.602
 6432SOL    HW221071   4.502   3.596  14.561
 6433SOL     OW21072   3.838   3.539   1.696
 6433SOL    HW121073   3.867   3.627   1.673
 6433SOL    HW221074   3.830   3.493   1.613
 6434SOL     OW21075  10.402   4.854   4.802
 6434SOL    HW121076  10.489   4.855   4.842
 6434SOL    HW221077  10.342   4.873   4.874
 6435SOL     OW21078   5.612  14.190  10.691
 6435SOL    HW121079   5.595  14.226  10.778
 6435SOL    HW221080   5.647  14.264  10.641
 6436SOL     OW21081   3.110   8.649   2.759
 6436SOL    HW121082   3.099   8.575   2.818
 6436SOL    HW221083   3.162   8.614   2.686
 6437SOL     OW21084   7.213  14.453  13.570
 6437SOL    HW121085   7.179  14.368  13.541
 6437SOL    HW221086   7.256  14.433  13.654
 6438SOL     OW21087  11.007   5.503   0.183
 6438SOL    HW121088  11.050   5.488   0.268
 6438SOL    HW221089  11.057   5.573   0.142
 6439SOL     OW21090   3.889   8.164  14.141
 6439SOL    HW121091   3.910   8.234  14.079
 6439SOL    HW221092   3.796   8.176  14.160
 6440SOL     OW21093   6.196  10.286  12.245
 6440SOL    HW121094   6.135  10.235  12.299
 6440SOL    HW221095   6.216  10.228  12.171
 6441SOL     OW21096   0.780   4.834   8.652
 6441SOL    HW121097   0.711   4.900   8.660
 6441SOL    HW221098   0.735   4.751   8.661
 6442SOL     OW21099   4.369   8.528  12.277
 6442SOL    HW121100   4.335   8.544  12.365
 6442SOL    HW221101   4.290   8.519  12.223
 6443SOL     OW21102   6.099  11.416  14.112
 6443SOL    HW121103   6.158  11.383  14.044
 6443SOL    HW221104   6.156  11.431  14.187
 6444SOL     OW21105  13.110   2.410   1.300
 6444SOL    HW121106  13.181   2.467   1.272
 6444SOL    HW221107  13.047   2.468   1.343
 6445SOL     OW21108   7.290  10.464  13.230
 6445SOL    HW121109   7.324  10.425  13.310
 6445SOL    HW221110   7.208  10.507  13.258
 6446SOL     OW21111   8.658   2.916   2.654
 6446SOL    HW121112   8.748   2.892   2.678
 6446SOL    HW221113   8.660   3.012   2.649
 6447SOL     OW21114   6.802  11.752   8.308
 6447SOL    HW121115   6.834  11.703   8.384
 6447SOL    HW221116   6.827  11.842   8.325
 6448SOL     OW21117  11.536   5.355   0.124
 6448SOL    HW121118  11.455   5.309   0.103
 6448SOL    HW221119  11.605   5.290   0.112
 6449SOL     OW21120   8.360  13.139   0.534
 6449SOL    HW121121   8.318  13.060   0.568
 6449SOL    HW221122   8.299  13.173   0.469
 6450SOL     OW21123  11.595   3.092  13.396
 6450SOL    HW121124  11.500   3.092  13.404
 6450SOL    HW221125  11.627   3.066  13.483
 6451SOL     OW21126   3.592   4.919   0.111
 6451SOL    HW121127   3.615   4.851   0.174
 6451SOL    HW221128   3.508   4.953   0.140
 6452SOL     OW21129   8.882   7.943   4.621
 6452SOL    HW121130   8.892   7.857   4.579
 6452SOL    HW221131   8.789   7.962   4.614
 6453SOL     OW21132   1.614  12.699  14.277
 6453SOL    HW121133   1.675  12.693  14.351
 6453SOL    HW221134   1.528  12.692  14.317
 6454SOL     OW21135   8.918   5.064   9.390
 6454SOL    HW121136   8.841   5.091   9.341
 6454SOL    HW221137   8.908   4.969   9.400
 6455SOL     OW21138  12.908   2.679   7.538
 6455SOL    HW121139  12.846   2.668   7.610
 6455SOL    HW221140  12.854   2.677   7.459
 6456SOL     OW21141  11.223   6.042   0.919
 6456SOL    HW121142  11.262   6.105   0.980
 6456SOL    HW221143  11.214   6.090   0.837
 6457SOL     OW21144   7.547   0.969   8.701
 6457SOL    HW121145   7.489   0.895   8.684
 6457SOL    HW221146   7.597   0.979   8.620
 6458SOL     OW21147   7.671  10.602  10.441
 6458SOL    HW121148   7.727  10.584  10.366
 6458SOL    HW221149   7.685  10.694  10.461
 6459SOL     OW21150   2.019  10.617   3.440
 6459SOL    HW121151   1.980  10.647   3.358
 6459SOL    HW221152   1.946  10.581   3.489
 6460SOL     OW21153  14.781   1.436  10.563
 6460SOL    HW121154  14.837   1.499  10.608
 6460SOL    HW221155  14.692   1.469  10.575
 6461SOL     OW21156  12.093  10.554   3.713
 6461SOL    HW121157  12.068  10.591   3.798
 6461SOL    HW221158  12.015  10.507   3.684
 6462SOL     OW21159   9.690   1.907   3.481
 6462SOL    HW121160   9.610   1.856   3.484
 6462SOL    HW221161   9.750   1.855   3.427
 6463SOL     OW21162  10.430   1.970   9.017
 6463SOL    HW121163  10.485   1.998   9.090
 6463SOL    HW221164  10.470   2.011   8.940
 6464SOL     OW21165   0.424  13.226   4.953
 6464SOL    HW121166   0.407  13.149   5.009
 6464SOL    HW221167   0.344  13.278   4.959
 6465SOL     OW21168   6.395  11.260   1.970
 6465SOL    HW121169   6.341  11.330   2.005
 6465SOL    HW221170   6.460  11.243   2.039
 6466SOL     OW21171  13.871  10.953   5.103
 6466SOL    HW121172  13.799  10.922   5.048
 6466SOL    HW221173  13.901  10.875   5.149
 6467SOL     OW21174   9.037   7.201   4.515
 6467SOL    HW121175   8.953   7.244   4.504
 6467SOL    HW221176   9.056   7.208   4.609
 6468SOL     OW21177   6.724  12.186   1.913
 6468SOL    HW121178   6.643  12.136   1.913
 6468SOL    HW221179   6.732  12.219   2.003
 6469SOL     OW21180  12.267   5.903   9.509
 6469SOL    HW121181  12.245   5.871   9.421
 6469SOL    HW221182  12.245   5.996   9.507
 6470SOL     OW21183   6.067   7.052  14.640
 6470SOL    HW121184   5.994   7.004  14.601
 6470SOL    HW221185   6.140   7.038  14.579
 6471SOL     OW21186  12.645   8.673   9.100
 6471SOL    HW121187  12.552   8.649   9.097
 6471SOL    HW221188  12.677   8.633   9.181
 6472SOL     OW21189   9.802  10.741  11.373
 6472SOL    HW121190   9.775  10.708  11.288
 6472SOL    HW221191   9.873  10.803  11.354
 6473SOL     OW21192   1.380   7.320   7.405
 6473SOL    HW121193   1.427   7.391   7.361
 6473SOL    HW221194   1.358   7.356   7.491
 6474SOL     OW21195   8.810  12.408  11.963
 6474SOL    HW121196   8.773  12.441  11.881
 6474SOL    HW221197   8.893  12.369  11.938
 6475SOL     OW21198  14.808   1.584   3.927
 6475SOL    HW121199  14.862   1.555   3.853
 6475SOL    HW221200  14.729   1.619   3.886
 6476SOL     OW21201   2.593  10.218   5.205
 6476SOL    HW121202   2.616  10.159   5.134
 6476SOL    HW221203   2.556  10.295   5.162
 6477SOL     OW21204   1.076   2.200  11.137
 6477SOL    HW121205   1.128   2.260  11.190
 6477SOL    HW221206   1.127   2.119  11.135
 6478SOL     OW21207   6.737   0.983   3.519
 6478SOL    HW121208   6.653   1.021   3.546
 6478SOL    HW221209   6.803   1.043   3.554
 6479SOL     OW21210  13.345  10.494  11.681
 6479SOL    HW121211  13.284  10.519  11.613
 6479SOL    HW221212  13.431  10.494  11.639
 6480SOL     OW21213  14.523  12.321   5.921
 6480SOL    HW121214  14.520  12.400   5.976
 6480SOL    HW221215  14.470  12.343   5.844
 6481SOL     OW21216   3.139   5.892   9.134
 6481SOL    HW121217   3.138   5.819   9.073
 6481SOL    HW221218   3.231   5.916   9.142
 6482SOL     OW21219   0.302  10.740   9.978
 6482SOL    HW121220   0.343  10.825   9.995
 6482SOL    HW221221   0.352  10.678  10.030
 6483SOL     OW21222   1.885   6.330   5.722
 6483SOL    HW121223   1.822   6.296   5.659
 6483SOL    HW221224   1.834   6.393   5.774
 6484SOL     OW21225  10.256   8.444   2.928
 6484SOL    HW121226  10.230   8.461   3.018
 6484SOL    HW221227  10.351   8.458   2.927
 6485SOL     OW21228   2.260   6.640  11.122
 6485SOL    HW121229   2.339   6.668  11.076
 6485SOL    HW221230   2.196   6.708  11.104
 6486SOL     OW21231   1.526  10.904   8.020
 6486SOL    HW121232   1.470  10.978   8.043
 6486SOL    HW221233   1.571  10.931   7.941
 6487SOL     OW21234   0.943   4.499   7.947
 6487SOL    HW121235   1.034   4.468   7.943
 6487SOL    HW221236   0.936   4.540   8.033
 6488SOL     OW21237   9.682   5.847  13.988
 6488SOL    HW121238   9.605   5.899  14.010
 6488SOL    HW221239   9.753   5.910  13.983
 6489SOL     OW21240   6.598   8.736   2.682
 6489SOL    HW121241   6.653   8.812   2.665
 6489SOL    HW221242   6.638   8.693   2.758
 6490SOL     OW21243  10.885  11.619   3.000
 6490SOL    HW121244  10.901  11.700   2.951
 6490SOL    HW221245  10.791  11.619   3.018
 6491SOL     OW21246   4.830   7.992   1.738
 6491SOL    HW121247   4.799   7.978   1.828
 6491SOL    HW221248   4.924   8.005   1.747
 6492SOL     OW21249  13.469  12.121   7.975
 6492SOL    HW121250  13.493  12.078   8.057
 6492SOL    HW221251  13.550  12.126   7.926
 6493SOL     OW21252  10.669  14.288  14.063
 6493SOL    HW121253  10.625  14.215  14.020
 6493SOL    HW221254  10.762  14.273  14.047
 6494SOL     OW21255   7.698   8.647   7.182
 6494SOL    HW121256   7.724   8.739   7.175
 6494SOL    HW221257   7.759   8.610   7.246
 6495SOL     OW21258   2.110   0.978   8.092
 6495SOL    HW121259   2.047   0.907   8.104
 6495SOL    HW221260   2.194   0.934   8.079
 6496SOL     OW21261  10.462  10.823  13.457
 6496SOL    HW121262  10.448  10.916  13.438
 6496SOL    HW221263  10.549  10.804  13.422
 6497SOL     OW21264   0.108  12.148   7.365
 6497SOL    HW121265   0.055  12.145   7.286
 6497SOL    HW221266   0.174  12.080   7.353
 6498SOL     OW21267   3.164  12.011   3.858
 6498SOL    HW121268   3.151  12.067   3.935
 6498SOL    HW221269   3.256  12.022   3.836
 6499SOL     OW21270   4.645  10.844  10.940
 6499SOL    HW121271   4.664  10.934  10.966
 6499SOL    HW221272   4.715  10.792  10.979
 6500SOL     OW21273  13.251   7.366   0.980
 6500SOL    HW121274  13.311   7.432   1.015
 6500SOL    HW221275  13.237   7.306   1.052
 6501SOL     OW21276   1.271   7.792  10.273
 6501SOL    HW121277   1.283   7.715  10.328
 6501SOL    HW221278   1.334   7.856  10.306
 6502SOL     OW21279   3.313   8.099  11.802
 6502SOL    HW121280   3.337   8.063  11.717
 6502SOL    HW221281   3.348   8.188  11.801
 6503SOL     OW21282   7.308   4.001   2.162
 6503SOL    HW121283   7.284   4.033   2.249
 6503SOL    HW221284   7.401   3.981   2.169
 6504SOL     OW21285   8.741   2.857  10.587
 6504SOL    HW121286   8.752   2.784  10.526
 6504SOL    HW221287   8.764   2.934  10.536
 6505SOL     OW21288   2.385   7.207   8.053
 6505SOL    HW121289   2.432   7.181   8.133
 6505SOL    HW221290   2.295   7.179   8.069
 6506SOL     OW21291   3.055  10.280   8.062
 6506SOL    HW121292   3.024  10.284   8.152
 6506SOL    HW221293   3.135  10.228   8.066
 6507SOL     OW21294  10.885   8.237  12.873
 6507SOL    HW121295  10.881   8.332  12.868
 6507SOL    HW221296  10.798   8.207  12.846
 6508SOL     OW21297   2.277   8.997  13.974
 6508SOL    HW121298   2.199   8.972  14.025
 6508SOL    HW221299   2.242   9.042  13.898
 6509SOL     OW21300   2.806   4.744  10.571
 6509SOL    HW121301   2.725   4.790  10.595
 6509SOL    HW221302   2.820   4.683  10.644
 6510SOL     OW21303   8.478  11.238   0.500
 6510SOL    HW121304   8.389  11.221   0.470
 6510SOL    HW221305   8.505  11.316   0.450
 6511SOL     OW21306   6.789   6.859  14.286
 6511SOL    HW121307   6.829   6.777  14.314
 6511SOL    HW221308   6.747   6.894  14.365
 6512SOL     OW21309   1.680  10.874   6.668
 6512SOL    HW121310   1.711  10.916   6.588
 6512SOL    HW221311   1.590  10.904   6.678
 6513SOL     OW21312  12.688   2.358   0.379
 6513SOL    HW121313  12.690   2.451   0.356
 6513SOL    HW221314  12.596   2.334   0.374
 6514SOL     OW21315   4.200  13.472  10.070
 6514SOL    HW121316   4.112  13.435  10.077
 6514SOL    HW221317   4.186  13.566  10.058
 6515SOL     OW21318   8.944   7.921   2.308
 6515SOL    HW121319   8.996   7.891   2.232
 6515SOL    HW221320   9.008   7.960   2.366
 6516SOL     OW21321  12.898   8.462  11.940
 6516SOL    HW121322  12.884   8.501  12.026
 6516SOL    HW221323  12.811   8.433  11.913
 6517SOL     OW21324   3.600   6.295   9.071
 6517SOL    HW121325   3.669   6.347   9.113
 6517SOL    HW221326   3.543   6.268   9.142
 6518SOL     OW21327   1.131  11.623  11.727
 6518SOL    HW121328   1.142  11.531  11.751
 6518SOL    HW221329   1.036  11.635  11.721
 6519SOL     OW21330  12.949   7.552   2.150
 6519SOL    HW121331  12.891   7.577   2.221
 6519SOL    HW221332  13.009   7.626   2.139
 6520SOL     OW21333  12.106  10.257   6.650
 6520SOL    HW121334  12.042  10.282   6.716
 6520SOL    HW221335  12.180  10.316   6.665
 6521SOL     OW21336   8.426  10.805   6.267
 6521SOL    HW121337   8.408  10.725   6.218
 6521SOL    HW221338   8.392  10.789   6.354
 6522SOL     OW21339  13.463  12.255  12.679
 6522SOL    HW121340  13.482  12.255  12.585
 6522SOL    HW221341  13.406  12.331  12.692
 6523SOL     OW21342   4.125  11.123   2.907
 6523SOL    HW121343   4.144  11.214   2.883
 6523SOL    HW221344   4.035  11.125   2.939
 6524SOL     OW21345   7.897  12.729  11.020
 6524SOL    HW121346   7.933  12.681  11.095
 6524SOL    HW221347   7.802  12.721  11.030
 6525SOL     OW21348   5.078   7.127  13.144
 6525SOL    HW121349   5.017   7.173  13.202
 6525SOL    HW221350   5.063   7.034  13.161
 6526SOL     OW21351   2.353  14.848  14.657
 6526SOL    HW121352   2.339   0.009  14.743
 6526SOL    HW221353   2.294   0.018  14.599
 6527SOL     OW21354   7.780  12.349   2.057
 6527SOL    HW121355   7.728  12.318   1.983
 6527SOL    HW221356   7.728  12.328   2.135
 6528SOL     OW21357   4.859   9.945   8.180
 6528SOL    HW121358   4.908   9.944   8.098
 6528SOL    HW221359   4.915   9.995   8.240
 6529SOL     OW21360   4.139   1.052  12.439
 6529SOL    HW121361   4.178   1.086  12.520
 6529SOL    HW221362   4.182   0.968  12.426
 6530SOL     OW21363  10.858   9.841  12.550
 6530SOL    HW121364  10.775   9.837  12.596
 6530SOL    HW221365  10.913   9.897  12.604
 6531SOL     OW21366   4.867   0.160  11.436
 6531SOL    HW121367   4.794   0.151  11.376
 6531SOL    HW221368   4.945   0.146  11.382
 6532SOL     OW21369   2.233  14.098   7.601
 6532SOL    HW121370   2.267  14.110   7.512
 6532SOL    HW221371   2.312  14.097   7.656
 6533SOL     OW21372   5.437   0.901   1.198
 6533SOL    HW121373   5.445   0.989   1.234
 6533SOL    HW221374   5.392   0.851   1.267
 6534SOL     OW21375   4.113  11.913   1.729
 6534SOL    HW121376   4.197  11.872   1.711
 6534SOL    HW221377   4.132  11.977   1.797
 6535SOL     OW21378   6.086   3.185   2.146
 6535SOL    HW121379   6.119   3.261   2.100
 6535SOL    HW221380   6.106   3.202   2.238
 6536SOL     OW21381   3.854   8.597   3.455
 6536SOL    HW121382   3.876   8.540   3.382
 6536SOL    HW221383   3.930   8.592   3.514
 6537SOL     OW21384  11.993   7.879   3.111
 6537SOL    HW121385  11.930   7.919   3.052
 6537SOL    HW221386  12.013   7.947   3.175
 6538SOL     OW21387   2.303   1.195  10.889
 6538SOL    HW121388   2.263   1.261  10.833
 6538SOL    HW221389   2.337   1.245  10.964
 6539SOL     OW21390  14.120  13.096   3.936
 6539SOL    HW121391  14.178  13.173   3.934
 6539SOL    HW221392  14.158  13.036   3.871
 6540SOL     OW21393   1.400   1.517  13.521
 6540SOL    HW121394   1.372   1.609  13.523
 6540SOL    HW221395   1.469   1.512  13.588
 6541SOL     OW21396  10.227   2.168   2.684
 6541SOL    HW121397  10.282   2.109   2.633
 6541SOL    HW221398  10.255   2.154   2.774
 6542SOL     OW21399   2.815  12.714  11.771
 6542SOL    HW121400   2.782  12.743  11.686
 6542SOL    HW221401   2.907  12.695  11.756
 6543SOL     OW21402   4.088   3.776  14.168
 6543SOL    HW121403   4.039   3.707  14.123
 6543SOL    HW221404   4.023   3.820  14.222
 6544SOL     OW21405  13.149   7.402  14.740
 6544SOL    HW121406  13.182   7.370  14.824
 6544SOL    HW221407  13.121   7.492  14.758
 6545SOL     OW21408   8.453   0.309  12.377
 6545SOL    HW121409   8.506   0.262  12.312
 6545SOL    HW221410   8.362   0.285  12.356
 6546SOL     OW21411   3.023   2.251  13.887
 6546SOL    HW121412   3.056   2.167  13.855
 6546SOL    HW221413   3.099   2.292  13.929
 6547SOL     OW21414  11.810   7.588   5.471
 6547SOL    HW121415  11.807   7.665   5.415
 6547SOL    HW221416  11.903   7.570   5.482
 6548SOL     OW21417   8.162  14.735  13.176
 6548SOL    HW121418   8.087  14.731  13.117
 6548SOL    HW221419   8.192  14.826  13.170
 6549SOL     OW21420   9.075  10.410  12.552
 6549SOL    HW121421   8.983  10.405  12.528
 6549SOL    HW221422   9.099  10.501  12.535
 6550SOL     OW21423  11.621  14.496  13.577
 6550SOL    HW121424  11.543  14.525  13.530
 6550SOL    HW221425  11.611  14.401  13.585
 6551SOL     OW21426  12.487  13.622   9.817
 6551SOL    HW121427  12.479  13.567   9.895
 6551SOL    HW221428  12.576  13.656   9.822
 6552SOL     OW21429   7.671   9.639   4.441
 6552SOL    HW121430   7.654   9.559   4.392
 6552SOL    HW221431   7.660   9.613   4.533
 6553SOL     OW21432   8.186  12.874   0.562
 6553SOL    HW121433   8.144  12.873   0.476
 6553SOL    HW221434   8.246  12.800   0.560
 6554SOL     OW21435  14.112   3.815  10.503
 6554SOL    HW121436  14.100   3.838  10.596
 6554SOL    HW221437  14.180   3.874  10.472
 6555SOL     OW21438   3.476   1.145   5.823
 6555SOL    HW121439   3.516   1.212   5.768
 6555SOL    HW221440   3.382   1.157   5.811
 6556SOL     OW21441   3.558   8.115  14.524
 6556SOL    HW121442   3.548   8.189  14.464
 6556SOL    HW221443   3.649   8.088  14.513
 6557SOL     OW21444   0.926   2.472   9.647
 6557SOL    HW121445   0.932   2.431   9.560
 6557SOL    HW221446   0.901   2.401   9.705
 6558SOL     OW21447   9.204   8.201  12.523
 6558SOL    HW121448   9.272   8.206  12.455
 6558SOL    HW221449   9.129   8.160  12.480
 6559SOL     OW21450  14.398   1.072   7.703
 6559SOL    HW121451  14.304   1.087   7.715
 6559SOL    HW221452  14.438   1.156   7.727
 6560SOL     OW21453  12.371  10.747   0.321
 6560SOL    HW121454  12.463  10.731   0.303
 6560SOL    HW221455  12.326  10.724   0.239
 6561SOL     OW21456   1.405   7.086   0.959
 6561SOL    HW121457   1.396   7.177   0.931
 6561SOL    HW221458   1.464   7.046   0.895
 6562SOL     OW21459   0.716   6.824   9.593
 6562SOL    HW121460   0.751   6.736   9.579
 6562SOL    HW221461   0.652   6.836   9.523
 6563SOL     OW21462  10.779  12.658   6.811
 6563SOL    HW121463  10.701  12.707   6.833
 6563SOL    HW221464  10.764  12.628   6.721
 6564SOL     OW21465   7.058  11.836  10.197
 6564SOL    HW121466   7.047  11.836  10.102
 6564SOL    HW221467   6.985  11.784  10.230
 6565SOL     OW21468   0.620   3.018   2.742
 6565SOL    HW121469   0.658   2.934   2.767
 6565SOL    HW221470   0.582   3.002   2.655
 6566SOL     OW21471  12.677   3.232   8.851
 6566SOL    HW121472  12.599   3.259   8.803
 6566SOL    HW221473  12.735   3.197   8.784
 6567SOL     OW21474  14.318  10.214   2.123
 6567SOL    HW121475  14.353  10.280   2.182
 6567SOL    HW221476  14.351  10.239   2.036
 6568SOL     OW21477   0.417  14.846   4.721
 6568SOL    HW121478   0.507  14.871   4.740
 6568SOL    HW221479   0.408  14.758   4.759
 6569SOL     OW21480   5.396   1.938   3.679
 6569SOL    HW121481   5.341   1.911   3.752
 6569SOL    HW221482   5.435   2.021   3.707
 6570SOL     OW21483   5.738   6.528   6.631
 6570SOL    HW121484   5.647   6.504   6.617
 6570SOL    HW221485   5.784   6.494   6.554
 6571SOL     OW21486   0.445   8.915   5.908
 6571SOL    HW121487   0.486   8.930   5.993
 6571SOL    HW221488   0.514   8.876   5.854
 6572SOL     OW21489  11.282  12.336  10.731
 6572SOL    HW121490  11.260  12.309  10.820
 6572SOL    HW221491  11.204  12.317  10.679
 6573SOL     OW21492   3.564  11.516   2.396
 6573SOL    HW121493   3.645  11.506   2.347
 6573SOL    HW221494   3.517  11.586   2.350
 6574SOL     OW21495  12.375  11.623  10.622
 6574SOL    HW121496  12.330  11.545  10.654
 6574SOL    HW221497  12.468  11.607  10.641
 6575SOL     OW21498  11.140  11.508   4.240
 6575SOL    HW121499  11.084  11.578   4.273
 6575SOL    HW221500  11.098  11.427   4.270
 6576SOL     OW21501  13.321   7.574  10.640
 6576SOL    HW121502  13.319   7.509  10.570
 6576SOL    HW221503  13.388   7.637  10.612
 6577SOL     OW21504   6.651   1.763  11.971
 6577SOL    HW121505   6.690   1.679  11.998
 6577SOL    HW221506   6.581   1.777  12.035
 6578SOL     OW21507  10.506   6.470   5.077
 6578SOL    HW121508  10.462   6.495   4.995
 6578SOL    HW221509  10.466   6.387   5.102
 6579SOL     OW21510  11.720   9.822   4.441
 6579SOL    HW121511  11.760   9.802   4.526
 6579SOL    HW221512  11.710   9.917   4.442
 6580SOL     OW21513  12.733   2.491   8.004
 6580SOL    HW121514  12.675   2.432   8.053
 6580SOL    HW221515  12.792   2.527   8.070
 6581SOL     OW21516   2.193  14.285   6.843
 6581SOL    HW121517   2.175  14.268   6.935
 6581SOL    HW221518   2.262  14.222   6.820
 6582SOL     OW21519   4.309  12.596  10.564
 6582SOL    HW121520   4.346  12.509  10.579
 6582SOL    HW221521   4.379  12.644  10.519
 6583SOL     OW21522   2.714   9.866  10.590
 6583SOL    HW121523   2.709   9.951  10.633
 6583SOL    HW221524   2.685   9.883  10.500
 6584SOL     OW21525  14.776   9.937   5.544
 6584SOL    HW121526  14.872   9.937   5.536
 6584SOL    HW221527  14.756   9.849   5.577
 6585SOL     OW21528  11.771  11.722   4.403
 6585SOL    HW121529  11.815  11.806   4.417
 6585SOL    HW221530  11.723  11.706   4.484
 6586SOL     OW21531   5.313  14.029   4.316
 6586SOL    HW121532   5.288  14.069   4.400
 6586SOL    HW221533   5.383  13.968   4.338
 6587SOL     OW21534   8.134   0.726   8.834
 6587SOL    HW121535   8.122   0.670   8.757
 6587SOL    HW221536   8.045   0.739   8.867
 6588SOL     OW21537  11.173  12.998   4.771
 6588SOL    HW121538  11.260  13.010   4.733
 6588SOL    HW221539  11.183  12.922   4.829
 6589SOL     OW21540   9.475   4.477   5.670
 6589SOL    HW121541   9.493   4.384   5.686
 6589SOL    HW221542   9.503   4.491   5.579
 6590SOL     OW21543  12.724   7.750   8.787
 6590SOL    HW121544  12.728   7.732   8.693
 6590SOL    HW221545  12.759   7.671   8.828
 6591SOL     OW21546   5.692  12.658   3.250
 6591SOL    HW121547   5.750  12.589   3.283
 6591SOL    HW221548   5.604  12.620   3.257
 6592SOL     OW21549   4.185  13.450   7.063
 6592SOL    HW121550   4.136  13.523   7.101
 6592SOL    HW221551   4.266  13.490   7.031
 6593SOL     OW21552   2.994   3.927  14.317
 6593SOL    HW121553   3.009   3.989  14.246
 6593SOL    HW221554   2.900   3.908  14.312
 6594SOL     OW21555  14.228  13.030   0.240
 6594SOL    HW121556  14.223  12.938   0.268
 6594SOL    HW221557  14.201  13.080   0.317
 6595SOL     OW21558   8.534   1.672  10.319
 6595SOL    HW121559   8.608   1.716  10.277
 6595SOL    HW221560   8.554   1.578  10.310
 6596SOL     OW21561   5.624  14.505  10.780
 6596SOL    HW121562   5.713  14.536  10.797
 6596SOL    HW221563   5.608  14.439  10.847
 6597SOL     OW21564   7.052   9.910   9.004
 6597SOL    HW121565   7.116   9.970   8.965
 6597SOL    HW221566   7.026   9.853   8.931
 6598SOL     OW21567   4.408   2.412   2.540
 6598SOL    HW121568   4.407   2.477   2.611
 6598SOL    HW221569   4.438   2.461   2.463
 6599SOL     OW21570   6.496   8.591   0.887
 6599SOL    HW121571   6.530   8.641   0.961
 6599SOL    HW221572   6.401   8.600   0.894
 6600SOL     OW21573   3.530   9.938   8.570
 6600SOL    HW121574   3.494   9.855   8.539
 6600SOL    HW221575   3.610   9.914   8.616
 6601SOL     OW21576   0.213   1.013   1.893
 6601SOL    HW121577   0.255   0.939   1.936
 6601SOL    HW221578   0.179   0.976   1.811
 6602SOL     OW21579   3.222   8.110   1.051
 6602SOL    HW121580   3.151   8.099   0.988
 6602SOL    HW221581   3.256   8.022   1.065
 6603SOL     OW21582  14.851  11.032   3.727
 6603SOL    HW121583   0.005  10.953   3.685
 6603SOL    HW221584   0.046  11.094   3.721
 6604SOL     OW21585   2.719  12.955  14.140
 6604SOL    HW121586   2.700  13.049  14.139
 6604SOL    HW221587   2.736  12.934  14.048
 6605SOL     OW21588   1.367  10.536  14.407
 6605SOL    HW121589   1.362  10.487  14.325
 6605SOL    HW221590   1.365  10.628  14.381
 6606SOL     OW21591   0.489   4.126   4.412
 6606SOL    HW121592   0.478   4.107   4.505
 6606SOL    HW221593   0.470   4.219   4.404
 6607SOL     OW21594  13.033   7.024   9.853
 6607SOL    HW121595  12.995   7.060   9.933
 6607SOL    HW221596  12.963   7.030   9.788
 6608SOL     OW21597  14.477   9.302   6.731
 6608SOL    HW121598  14.447   9.244   6.800
 6608SOL    HW221599  14.398   9.346   6.700
 6609SOL     OW21600  10.623  12.374   2.019
 6609SOL    HW121601  10.608  12.437   1.948
 6609SOL    HW221602  10.709  12.335   1.998
 6610SOL     OW21603  12.925  14.275  11.201
 6610SOL    HW121604  13.015  14.286  11.172
 6610SOL    HW221605  12.885  14.219  11.135
 6611SOL     OW21606  14.748  11.745  11.881
 6611SOL    HW121607  14.830  11.698  11.867
 6611SOL    HW221608  14.740  11.753  11.976
 6612SOL     OW21609  10.801   4.806   2.073
 6612SOL    HW121610  10.868   4.813   2.005
 6612SOL    HW221611  10.756   4.890   2.071
 6613SOL     OW21612   6.422   4.497   1.312
 6613SOL    HW121613   6.487   4.546   1.363
 6613SOL    HW221614   6.371   4.564   1.267
 6614SOL     OW21615   5.147  12.941   6.108
 6614SOL    HW121616   5.232  12.904   6.134
 6614SOL    HW221617   5.168  13.020   6.060
 6615SOL     OW21618   6.963   4.368  11.486
 6615SOL    HW121619   6.993   4.454  11.515
 6615SOL    HW221620   6.980   4.367  11.391
 6616SOL     OW21621   7.745  14.322  12.678
 6616SOL    HW121622   7.675  14.386  12.667
 6616SOL    HW221623   7.724  14.277  12.759
 6617SOL     OW21624   3.423   8.679   4.262
 6617SOL    HW121625   3.410   8.683   4.167
 6617SOL    HW221626   3.371   8.751   4.296
 6618SOL     OW21627   7.639  10.001  12.271
 6618SOL    HW121628   7.610   9.953  12.194
 6618SOL    HW221629   7.574  10.070  12.282
 6619SOL     OW21630  10.895   1.119   0.696
 6619SOL    HW121631  10.881   1.151   0.785
 6619SOL    HW221632  10.807   1.116   0.658
 6620SOL     OW21633   7.561   7.121  11.967
 6620SOL    HW121634   7.548   7.049  12.028
 6620SOL    HW221635   7.482   7.174  11.975
 6621SOL     OW21636   9.528   7.422  11.951
 6621SOL    HW121637   9.522   7.340  11.903
 6621SOL    HW221638   9.438   7.455  11.952
 6622SOL     OW21639   4.992  12.295  13.428
 6622SOL    HW121640   4.941  12.253  13.360
 6622SOL    HW221641   5.007  12.226  13.493
 6623SOL     OW21642   6.189   2.635  12.819
 6623SOL    HW121643   6.128   2.598  12.756
 6623SOL    HW221644   6.212   2.721  12.783
 6624SOL     OW21645   4.397  14.839   3.098
 6624SOL    HW121646   4.406  14.860   3.190
 6624SOL    HW221647   4.486  14.849   3.062
 6625SOL     OW21648   0.655   2.374  14.154
 6625SOL    HW121649   0.647   2.297  14.210
 6625SOL    HW221650   0.613   2.348  14.072
 6626SOL     OW21651   1.216   4.788   4.296
 6626SOL    HW121652   1.188   4.877   4.272
 6626SOL    HW221653   1.310   4.787   4.279
 6627SOL     OW21654   6.139   6.034  13.194
 6627SOL    HW121655   6.121   6.128  13.199
 6627SOL    HW221656   6.234   6.028  13.190
 6628SOL     OW21657  11.048  13.867   1.750
 6628SOL    HW121658  11.006  13.796   1.702
 6628SOL    HW221659  11.071  13.829   1.835
 6629SOL     OW21660  14.313  13.550  14.870
 6629SOL    HW121661  14.327  13.600  14.789
 6629SOL    HW221662  14.260  13.607   0.047
 6630SOL     OW21663   6.282   6.766   4.105
 6630SOL    HW121664   6.370   6.785   4.136
 6630SOL    HW221665   6.257   6.843   4.054
 6631SOL     OW21666   5.122   3.534   0.115
 6631SOL    HW121667   5.071   3.455   0.131
 6631SOL    HW221668   5.183   3.539   0.188
 6632SOL     OW21669   3.657  14.411   2.286
 6632SOL    HW121670   3.699  14.486   2.327
 6632SOL    HW221671   3.668  14.340   2.350
 6633SOL     OW21672   9.766  10.747   6.757
 6633SOL    HW121673   9.708  10.736   6.681
 6633SOL    HW221674   9.797  10.658   6.775
 6634SOL     OW21675  12.978   7.332   5.522
 6634SOL    HW121676  12.955   7.247   5.561
 6634SOL    HW221677  12.916   7.394   5.560
 6635SOL     OW21678   3.851   8.589   8.808
 6635SOL    HW121679   3.840   8.559   8.898
 6635SOL    HW221680   3.857   8.684   8.814
 6636SOL     OW21681  10.796   9.779   0.352
 6636SOL    HW121682  10.884   9.754   0.383
 6636SOL    HW221683  10.737   9.745   0.419
 6637SOL     OW21684   5.322  10.674  14.868
 6637SOL    HW121685   5.229  10.651  14.858
 6637SOL    HW221686   5.366  10.623  14.799
 6638SOL     OW21687  14.528  11.634  14.421
 6638SOL    HW121688  14.560  11.552  14.461
 6638SOL    HW221689  14.607  11.678  14.390
 6639SOL     OW21690   1.632  12.375  10.512
 6639SOL    HW121691   1.681  12.311  10.563
 6639SOL    HW221692   1.697  12.417  10.456
 6640SOL     OW21693  10.737   0.755  12.857
 6640SOL    HW121694  10.692   0.715  12.931
 6640SOL    HW221695  10.813   0.699  12.842
 6641SOL     OW21696  13.607   2.869   8.587
 6641SOL    HW121697  13.686   2.918   8.563
 6641SOL    HW221698  13.537   2.933   8.584
 6642SOL     OW21699   6.242  11.294   8.159
 6642SOL    HW121700   6.171  11.351   8.131
 6642SOL    HW221701   6.249  11.229   8.089
 6643SOL     OW21702   4.947  11.582   3.389
 6643SOL    HW121703   4.992  11.535   3.459
 6643SOL    HW221704   4.990  11.668   3.387
 6644SOL     OW21705   7.108  14.575   9.993
 6644SOL    HW121706   7.052  14.498  10.002
 6644SOL    HW221707   7.197  14.542  10.009
 6645SOL     OW21708   8.796  10.359  12.496
 6645SOL    HW121709   8.765  10.268  12.501
 6645SOL    HW221710   8.746  10.405  12.564
 6646SOL     OW21711   8.827   4.165   1.520
 6646SOL    HW121712   8.838   4.072   1.501
 6646SOL    HW221713   8.766   4.167   1.594
 6647SOL     OW21714   2.053  12.276  11.811
 6647SOL    HW121715   2.012  12.260  11.726
 6647SOL    HW221716   2.094  12.193  11.834
 6648SOL     OW21717   3.890   8.363  14.621
 6648SOL    HW121718   3.947   8.292  14.592
 6648SOL    HW221719   3.914   8.437  14.566
 6649SOL     OW21720  12.588   7.207   7.946
 6649SOL    HW121721  12.543   7.290   7.957
 6649SOL    HW221722  12.670   7.217   7.995
 6650SOL     OW21723   8.072   0.419   3.605
 6650SOL    HW121724   8.064   0.513   3.589
 6650SOL    HW221725   8.157   0.408   3.645
 6651SOL     OW21726   3.628   3.947   4.646
 6651SOL    HW121727   3.684   3.957   4.569
 6651SOL    HW221728   3.546   3.911   4.611
 6652SOL     OW21729   2.527   4.014   4.713
 6652SOL    HW121730   2.527   3.963   4.794
 6652SOL    HW221731   2.546   3.951   4.644
 6653SOL     OW21732   9.809   2.857   8.872
 6653SOL    HW121733   9.866   2.934   8.881
 6653SOL    HW221734   9.827   2.805   8.950
 6654SOL     OW21735  12.910   7.935   4.016
 6654SOL    HW121736  12.874   7.993   4.083
 6654SOL    HW221737  12.975   7.988   3.971
 6655SOL     OW21738   1.797   9.572  14.487
 6655SOL    HW121739   1.880   9.615  14.467
 6655SOL    HW221740   1.820   9.506  14.552
 6656SOL     OW21741   3.064  12.623   3.825
 6656SOL    HW121742   3.113  12.665   3.896
 6656SOL    HW221743   3.110  12.648   3.745
 6657SOL     OW21744   3.029  14.374   9.241
 6657SOL    HW121745   3.068  14.365   9.154
 6657SOL    HW221746   3.032  14.286   9.278
 6658SOL     OW21747   3.157   7.803  11.380
 6658SOL    HW121748   3.151   7.715  11.344
 6658SOL    HW221749   3.108   7.798  11.463
 6659SOL     OW21750   8.085  10.004   7.216
 6659SOL    HW121751   8.154   9.968   7.159
 6659SOL    HW221752   8.014   9.941   7.211
 6660SOL     OW21753   7.336   9.124   6.719
 6660SOL    HW121754   7.392   9.049   6.699
 6660SOL    HW221755   7.385   9.174   6.785
 6661SOL     OW21756  11.826  11.647   1.820
 6661SOL    HW121757  11.901  11.701   1.843
 6661SOL    HW221758  11.790  11.618   1.905
 6662SOL     OW21759  13.342  14.682  10.151
 6662SOL    HW121760  13.351  14.598  10.196
 6662SOL    HW221761  13.352  14.748  10.219
 6663SOL     OW21762  11.336   6.704   7.190
 6663SOL    HW121763  11.428   6.684   7.206
 6663SOL    HW221764  11.337   6.791   7.151
 6664SOL     OW21765   8.006   1.397   6.290
 6664SOL    HW121766   7.979   1.311   6.259
 6664SOL    HW221767   8.099   1.403   6.267
 6665SOL     OW21768  12.822  11.843  14.013
 6665SOL    HW121769  12.801  11.932  14.041
 6665SOL    HW221770  12.857  11.800  14.092
 6666SOL     OW21771  11.048   6.720  12.385
 6666SOL    HW121772  10.955   6.724  12.406
 6666SOL    HW221773  11.052   6.737  12.291
 6667SOL     OW21774   2.473   6.030   0.179
 6667SOL    HW121775   2.471   6.111   0.229
 6667SOL    HW221776   2.494   6.057   0.090
 6668SOL     OW21777   7.463   4.562   4.297
 6668SOL    HW121778   7.418   4.643   4.322
 6668SOL    HW221779   7.392   4.498   4.289
 6669SOL     OW21780   3.833   6.424  11.620
 6669SOL    HW121781   3.888   6.353  11.650
 6669SOL    HW221782   3.759   6.381  11.577
 6670SOL     OW21783   0.931   5.845   7.318
 6670SOL    HW121784   0.919   5.757   7.354
 6670SOL    HW221785   0.955   5.831   7.226
 6671SOL     OW21786   6.856   3.592   4.455
 6671SOL    HW121787   6.797   3.538   4.507
 6671SOL    HW221788   6.913   3.530   4.411
 6672SOL     OW21789   3.156   8.073   8.902
 6672SOL    HW121790   3.243   8.046   8.872
 6672SOL    HW221791   3.130   8.005   8.964
 6673SOL     OW21792   4.175  11.955   2.197
 6673SOL    HW121793   4.246  11.963   2.261
 6673SOL    HW221794   4.187  11.869   2.158
 6674SOL     OW21795   1.501  14.794   8.091
 6674SOL    HW121796   1.583  14.745   8.096
 6674SOL    HW221797   1.525  14.877   8.050
 6675SOL     OW21798   2.501  12.137   8.760
 6675SOL    HW121799   2.490  12.051   8.719
 6675SOL    HW221800   2.440  12.136   8.834
 6676SOL     OW21801   1.884   4.852  14.017
 6676SOL    HW121802   1.844   4.868  14.102
 6676SOL    HW221803   1.960   4.796  14.036
 6677SOL     OW21804   1.789   2.281  11.679
 6677SOL    HW121805   1.771   2.255  11.589
 6677SOL    HW221806   1.855   2.219  11.709
 6678SOL     OW21807   4.424   5.337   9.787
 6678SOL    HW121808   4.359   5.388   9.835
 6678SOL    HW221809   4.394   5.246   9.795
 6679SOL     OW21810   5.535   3.057  10.512
 6679SOL    HW121811   5.612   3.002  10.501
 6679SOL    HW221812   5.510   3.082  10.423
 6680SOL     OW21813   3.932  13.798   8.753
 6680SOL    HW121814   3.907  13.859   8.822
 6680SOL    HW221815   3.933  13.851   8.673
 6681SOL     OW21816   2.898   1.511   7.021
 6681SOL    HW121817   2.942   1.427   7.011
 6681SOL    HW221818   2.968   1.572   7.046
 6682SOL     OW21819   1.655   6.036   8.909
 6682SOL    HW121820   1.675   6.012   9.000
 6682SOL    HW221821   1.691   6.124   8.900
 6683SOL     OW21822  12.708   5.977  12.786
 6683SOL    HW121823  12.664   5.933  12.714
 6683SOL    HW221824  12.682   6.069  12.777
 6684SOL     OW21825  12.049  12.886   3.116
 6684SOL    HW121826  12.138  12.921   3.110
 6684SOL    HW221827  12.052  12.804   3.066
 6685SOL     OW21828   8.200  12.367   0.465
 6685SOL    HW121829   8.160  12.390   0.381
 6685SOL    HW221830   8.231  12.277   0.453
 6686SOL     OW21831  11.685   0.081   9.175
 6686SOL    HW121832  11.771   0.042   9.192
 6686SOL    HW221833  11.628   0.042   9.240
 6687SOL     OW21834  10.466  12.150  10.583
 6687SOL    HW121835  10.442  12.107  10.501
 6687SOL    HW221836  10.551  12.113  10.606
 6688SOL     OW21837   4.193  13.395  12.368
 6688SOL    HW121838   4.117  13.436  12.325
 6688SOL    HW221839   4.269  13.432  12.323
 6689SOL     OW21840   4.976   4.323   2.285
 6689SOL    HW121841   4.906   4.374   2.326
 6689SOL    HW221842   5.053   4.341   2.340
 6690SOL     OW21843   1.142   7.276   1.605
 6690SOL    HW121844   1.090   7.274   1.686
 6690SOL    HW221845   1.159   7.183   1.585
 6691SOL     OW21846   9.403  13.994   0.901
 6691SOL    HW121847   9.329  13.936   0.880
 6691SOL    HW221848   9.403  13.999   0.997
 6692SOL     OW21849  11.354   8.803   1.382
 6692SOL    HW121850  11.419   8.739   1.411
 6692SOL    HW221851  11.344   8.862   1.456
 6693SOL     OW21852   0.647   6.156  11.744
 6693SOL    HW121853   0.678   6.147  11.834
 6693SOL    HW221854   0.685   6.239  11.714
 6694SOL     OW21855  11.931   2.568   7.640
 6694SOL    HW121856  11.878   2.613   7.707
 6694SOL    HW221857  11.870   2.511   7.595
 6695SOL     OW21858   8.878  13.614  12.844
 6695SOL    HW121859   8.918  13.645  12.763
 6695SOL    HW221860   8.950  13.575  12.893
 6696SOL     OW21861   3.752   9.147   8.303
 6696SOL    HW121862   3.786   9.063   8.273
 6696SOL    HW221863   3.821   9.184   8.357
 6697SOL     OW21864  13.036  13.124   7.745
 6697SOL    HW121865  13.095  13.195   7.769
 6697SOL    HW221866  12.984  13.159   7.673
 6698SOL     OW21867   1.662   0.318  14.752
 6698SOL    HW121868   1.713   0.238  14.744
 6698SOL    HW221869   1.671   0.344  14.843
 6699SOL     OW21870  10.959   3.975   3.359
 6699SOL    HW121871  10.879   3.972   3.307
 6699SOL    HW221872  11.024   3.928   3.307
 6700SOL     OW21873  10.872  13.744   6.307
 6700SOL    HW121874  10.950  13.690   6.294
 6700SOL    HW221875  10.870  13.801   6.230
 6701SOL     OW21876   9.356   3.647   6.464
 6701SOL    HW121877   9.292   3.698   6.414
 6701SOL    HW221878   9.334   3.556   6.445
 6702SOL     OW21879  11.113   9.985   7.203
 6702SOL    HW121880  11.120   9.973   7.297
 6702SOL    HW221881  11.195  10.025   7.177
 6703SOL     OW21882   4.807   2.671   4.508
 6703SOL    HW121883   4.723   2.693   4.469
 6703SOL    HW221884   4.819   2.735   4.578
 6704SOL     OW21885  12.774   1.498   7.058
 6704SOL    HW121886  12.781   1.471   7.150
 6704SOL    HW221887  12.686   1.536   7.051
 6705SOL     OW21888   8.295   5.339  10.284
 6705SOL    HW121889   8.261   5.391  10.210
 6705SOL    HW221890   8.316   5.254  10.245
 6706SOL     OW21891   0.215   9.881   1.073
 6706SOL    HW121892   0.297   9.833   1.082
 6706SOL    HW221893   0.168   9.836   1.003
 6707SOL     OW21894   6.651  13.941   8.518
 6707SOL    HW121895   6.612  13.941   8.605
 6707SOL    HW221896   6.582  13.909   8.460
 6708SOL     OW21897   0.476  14.568   5.400
 6708SOL    HW121898   0.458  14.548   5.492
 6708SOL    HW221899   0.564  14.605   5.400
 6709SOL     OW21900   0.339  12.450   1.360
 6709SOL    HW121901   0.363  12.488   1.445
 6709SOL    HW221902   0.315  12.526   1.307
 6710SOL     OW21903   4.319  14.634   5.558
 6710SOL    HW121904   4.291  14.700   5.622
 6710SOL    HW221905   4.240  14.581   5.543
 6711SOL     OW21906  14.602   0.402   5.829
 6711SOL    HW121907  14.644   0.481   5.864
 6711SOL    HW221908  14.615   0.336   5.896
 6712SOL     OW21909  11.950   2.116   5.939
 6712SOL    HW121910  11.985   2.061   5.868
 6712SOL    HW221911  11.904   2.186   5.894
 6713SOL     OW21912   9.751  11.843   0.155
 6713SOL    HW121913   9.798  11.782   0.211
 6713SOL    HW221914   9.744  11.924   0.207
 6714SOL     OW21915   4.735  10.757  11.766
 6714SOL    HW121916   4.749  10.664  11.751
 6714SOL    HW221917   4.644  10.763  11.795
 6715SOL     OW21918  12.374   6.851   5.241
 6715SOL    HW121919  12.412   6.931   5.203
 6715SOL    HW221920  12.333   6.807   5.167
 6716SOL     OW21921  11.091   7.109   7.077
 6716SOL    HW121922  11.036   7.053   7.023
 6716SOL    HW221923  11.091   7.067   7.163
 6717SOL     OW21924   0.388   2.558   9.636
 6717SOL    HW121925   0.390   2.643   9.680
 6717SOL    HW221926   0.475   2.521   9.652
 6718SOL     OW21927   2.499   4.967   7.448
 6718SOL    HW121928   2.592   4.949   7.435
 6718SOL    HW221929   2.471   5.006   7.365
 6719SOL     OW21930   8.677   6.646   4.609
 6719SOL    HW121931   8.642   6.734   4.628
 6719SOL    HW221932   8.601   6.589   4.615
 6720SOL     OW21933  12.050  10.989   1.164
 6720SOL    HW121934  12.129  11.041   1.176
 6720SOL    HW221935  12.050  10.968   1.070
 6721SOL     OW21936   9.240   1.302  13.565
 6721SOL    HW121937   9.333   1.284  13.578
 6721SOL    HW221938   9.227   1.291  13.471
 6722SOL     OW21939  11.049  11.785   0.346
 6722SOL    HW121940  11.101  11.863   0.325
 6722SOL    HW221941  10.994  11.813   0.420
 6723SOL     OW21942   6.915   9.313   5.633
 6723SOL    HW121943   7.008   9.334   5.645
 6723SOL    HW221944   6.873   9.348   5.712
 6724SOL     OW21945  12.843  13.302   2.023
 6724SOL    HW121946  12.877  13.377   1.975
 6724SOL    HW221947  12.807  13.244   1.955
 6725SOL     OW21948   2.944   9.005   6.029
 6725SOL    HW121949   3.027   8.977   5.991
 6725SOL    HW221950   2.940   8.960   6.114
 6726SOL     OW21951   1.346   5.057  12.903
 6726SOL    HW121952   1.274   5.087  12.848
 6726SOL    HW221953   1.402   5.006  12.844
 6727SOL     OW21954  10.160   7.941  12.736
 6727SOL    HW121955  10.184   7.865  12.684
 6727SOL    HW221956  10.241   7.970  12.777
 6728SOL     OW21957  11.809  11.478  11.343
 6728SOL    HW121958  11.783  11.393  11.307
 6728SOL    HW221959  11.768  11.481  11.429
 6729SOL     OW21960  14.639   2.169   2.495
 6729SOL    HW121961  14.552   2.209   2.489
 6729SOL    HW221962  14.623   2.079   2.521
 6730SOL     OW21963   3.440   3.013  14.503
 6730SOL    HW121964   3.423   3.048  14.590
 6730SOL    HW221965   3.532   2.987  14.505
 6731SOL     OW21966   3.668   6.664   1.840
 6731SOL    HW121967   3.673   6.689   1.748
 6731SOL    HW221968   3.691   6.744   1.888
 6732SOL     OW21969   9.644   7.703   0.099
 6732SOL    HW121970   9.605   7.668   0.179
 6732SOL    HW221971   9.669   7.793   0.121
 6733SOL     OW21972   6.290   5.552  12.612
 6733SOL    HW121973   6.238   5.630  12.630
 6733SOL    HW221974   6.328   5.528  12.696
 6734SOL     OW21975   6.963   9.269  12.952
 6734SOL    HW121976   6.951   9.285  13.046
 6734SOL    HW221977   6.877   9.238  12.922
 6735SOL     OW21978  10.106  13.254   1.145
 6735SOL    HW121979  10.108  13.158   1.143
 6735SOL    HW221980  10.072  13.279   1.059
 6736SOL     OW21981   3.609   6.944   3.389
 6736SOL    HW121982   3.569   6.884   3.452
 6736SOL    HW221983   3.701   6.945   3.413
 6737SOL     OW21984  14.591  10.460  11.085
 6737SOL    HW121985  14.626  10.471  11.173
 6737SOL    HW221986  14.611  10.369  11.063
 6738SOL     OW21987  10.056  13.410   5.934
 6738SOL    HW121988  10.067  13.502   5.958
 6738SOL    HW221989  10.081  13.361   6.013
 6739SOL     OW21990  13.368   2.434  14.584
 6739SOL    HW121991  13.327   2.414  14.499
 6739SOL    HW221992  13.296   2.464  14.639
 6740SOL     OW21993   0.905  12.570   3.543
 6740SOL    HW121994   0.890  12.619   3.463
 6740SOL    HW221995   0.946  12.633   3.602
 6741SOL     OW21996   3.222   5.072  12.879
 6741SOL    HW121997   3.242   5.110  12.965
 6741SOL    HW221998   3.257   4.984  12.883
 6742SOL     OW21999   5.913  12.449   7.007
 6742SOL    HW122000   5.903  12.528   7.060
 6742SOL    HW222001   5.836  12.447   6.951
 6743SOL     OW22002   1.529  13.192   7.091
 6743SOL    HW122003   1.621  13.186   7.064
 6743SOL    HW222004   1.482  13.137   7.028
 6744SOL     OW22005   7.714  14.571   4.698
 6744SOL    HW122006   7.801  14.593   4.663
 6744SOL    HW222007   7.715  14.476   4.709
 6745SOL     OW22008   2.063  11.508   4.568
 6745SOL    HW122009   1.995  11.572   4.544
 6745SOL    HW222010   2.107  11.489   4.485
 6746SOL     OW22011   1.009   2.526   9.950
 6746SOL    HW122012   1.002   2.431   9.949
 6746SOL    HW222013   1.103   2.543   9.943
 6747SOL     OW22014   7.495   6.629  10.940
 6747SOL    HW122015   7.475   6.682  11.017
 6747SOL    HW222016   7.547   6.686  10.884
 6748SOL     OW22017   2.728   4.832  11.953
 6748SOL    HW122018   2.673   4.864  11.881
 6748SOL    HW222019   2.781   4.764  11.912
 6749SOL     OW22020   5.533   5.251   6.852
 6749SOL    HW122021   5.458   5.309   6.836
 6749SOL    HW222022   5.546   5.205   6.769
 6750SOL     OW22023  14.366   1.514   1.558
 6750SOL    HW122024  14.430   1.574   1.521
 6750SOL    HW222025  14.293   1.516   1.496
 6751SOL     OW22026   3.589  11.996   8.914
 6751SOL    HW122027   3.538  12.059   8.863
 6751SOL    HW222028   3.524  11.933   8.946
 6752SOL     OW22029   2.474  11.254   2.129
 6752SOL    HW122030   2.426  11.200   2.192
 6752SOL    HW222031   2.553  11.280   2.175
 6753SOL     OW22032   4.918   7.328   9.664
 6753SOL    HW122033   4.893   7.418   9.683
 6753SOL    HW222034   4.837   7.278   9.675
 6754SOL     OW22035   9.022   5.604   7.361
 6754SOL    HW122036   9.094   5.633   7.416
 6754SOL    HW222037   8.975   5.539   7.413
 6755SOL     OW22038   0.861   2.205   2.180
 6755SOL    HW122039   0.955   2.208   2.165
 6755SOL    HW222040   0.829   2.289   2.147
 6756SOL     OW22041  13.956   5.905  11.952
 6756SOL    HW122042  13.956   5.983  11.897
 6756SOL    HW222043  14.033   5.855  11.923
 6757SOL     OW22044  14.162   0.246   7.972
 6757SOL    HW122045  14.178   0.282   7.885
 6757SOL    HW222046  14.215   0.166   7.975
 6758SOL     OW22047  14.496  12.121  10.539
 6758SOL    HW122048  14.525  12.167  10.618
 6758SOL    HW222049  14.407  12.154  10.524
 6759SOL     OW22050  14.227   2.960   5.717
 6759SOL    HW122051  14.247   2.900   5.646
 6759SOL    HW222052  14.135   2.944   5.738
 6760SOL     OW22053   5.761   5.402   6.897
 6760SOL    HW122054   5.733   5.442   6.979
 6760SOL    HW222055   5.685   5.352   6.867
 6761SOL     OW22056   2.658   6.376  13.457
 6761SOL    HW122057   2.594   6.369  13.386
 6761SOL    HW222058   2.648   6.295  13.507
 6762SOL     OW22059   6.825   5.996   3.088
 6762SOL    HW122060   6.821   5.969   2.996
 6762SOL    HW222061   6.783   5.924   3.136
 6763SOL     OW22062   5.204   3.268  12.474
 6763SOL    HW122063   5.221   3.178  12.502
 6763SOL    HW222064   5.136   3.299  12.534
 6764SOL     OW22065  14.301   8.364  14.434
 6764SOL    HW122066  14.341   8.351  14.348
 6764SOL    HW222067  14.370   8.342  14.496
 6765SOL     OW22068   5.424   6.079   9.660
 6765SOL    HW122069   5.480   6.151   9.689
 6765SOL    HW222070   5.476   6.034   9.593
 6766SOL     OW22071   2.444  13.927  10.346
 6766SOL    HW122072   2.436  13.977  10.265
 6766SOL    HW222073   2.362  13.877  10.351
 6767SOL     OW22074  11.814  12.143  13.855
 6767SOL    HW122075  11.786  12.171  13.942
 6767SOL    HW222076  11.909  12.137  13.860
 6768SOL     OW22077   3.504  13.566   1.734
 6768SOL    HW122078   3.465  13.570   1.646
 6768SOL    HW222079   3.432  13.537   1.790
 6769SOL     OW22080  12.509   7.658   4.765
 6769SOL    HW122081  12.476   7.743   4.795
 6769SOL    HW222082  12.530   7.672   4.673
 6770SOL     OW22083   8.622  12.975   0.808
 6770SOL    HW122084   8.536  12.934   0.823
 6770SOL    HW222085   8.664  12.974   0.893
 6771SOL     OW22086   5.968   1.363   8.715
 6771SOL    HW122087   6.056   1.393   8.738
 6771SOL    HW222088   5.940   1.421   8.644
 6772SOL     OW22089   6.328   5.808   5.718
 6772SOL    HW122090   6.358   5.766   5.637
 6772SOL    HW222091   6.334   5.739   5.784
 6773SOL     OW22092  11.658   0.887   8.621
 6773SOL    HW122093  11.629   0.798   8.600
 6773SOL    HW222094  11.729   0.904   8.559
 6774SOL     OW22095   5.603  11.563   6.910
 6774SOL    HW122096   5.621  11.651   6.945
 6774SOL    HW222097   5.624  11.504   6.982
 6775SOL     OW22098   4.319   7.212  11.117
 6775SOL    HW122099   4.342   7.207  11.209
 6775SOL    HW222100   4.285   7.300  11.105
 6776SOL     OW22101   7.772   9.936   4.788
 6776SOL    HW122102   7.723   9.991   4.849
 6776SOL    HW222103   7.717   9.858   4.778
 6777SOL     OW22104   4.211  13.248   8.880
 6777SOL    HW122105   4.282  13.190   8.908
 6777SOL    HW222106   4.156  13.192   8.825
 6778SOL     OW22107  12.768   3.551  14.218
 6778SOL    HW122108  12.798   3.610  14.149
 6778SOL    HW222109  12.690   3.509  14.181
 6779SOL     OW22110  13.991  13.330  14.454
 6779SOL    HW122111  14.069  13.280  14.480
 6779SOL    HW222112  13.946  13.274  14.392
 6780SOL     OW22113  13.251   9.853   9.738
 6780SOL    HW122114  13.255   9.905   9.657
 6780SOL    HW222115  13.181   9.893   9.789
 6781SOL     OW22116   7.929  12.343   1.198
 6781SOL    HW122117   8.021  12.326   1.179
 6781SOL    HW222118   7.929  12.381   1.285
 6782SOL     OW22119   7.077  10.939   6.669
 6782SOL    HW122120   7.058  10.987   6.588
 6782SOL    HW222121   7.166  10.906   6.657
 6783SOL     OW22122  14.577   0.919  11.558
 6783SOL    HW122123  14.614   0.856  11.496
 6783SOL    HW222124  14.651   0.946  11.611
 6784SOL     OW22125   7.760   5.517   7.703
 6784SOL    HW122126   7.750   5.427   7.671
 6784SOL    HW222127   7.854   5.533   7.699
 6785SOL     OW22128   1.523   7.707  11.088
 6785SOL    HW122129   1.569   7.767  11.029
 6785SOL    HW222130   1.512   7.627  11.036
 6786SOL     OW22131   5.072  12.634   5.317
 6786SOL    HW122132   5.019  12.653   5.239
 6786SOL    HW222133   5.160  12.666   5.294
 6787SOL     OW22134  14.062   4.396  14.613
 6787SOL    HW122135  14.098   4.484  14.623
 6787SOL    HW222136  14.043   4.388  14.520
 6788SOL     OW22137   8.228   5.311   5.915
 6788SOL    HW122138   8.293   5.250   5.879
 6788SOL    HW222139   8.167   5.255   5.964
 6789SOL     OW22140  10.713   8.028   0.542
 6789SOL    HW122141  10.724   7.939   0.509
 6789SOL    HW222142  10.744   8.024   0.633
 6790SOL     OW22143   7.595   6.648   2.069
 6790SOL    HW122144   7.607   6.741   2.052
 6790SOL    HW222145   7.680   6.609   2.049
 6791SOL     OW22146  12.000  10.935  10.628
 6791SOL    HW122147  12.014  10.972  10.541
 6791SOL    HW222148  11.988  10.842  10.614
 6792SOL     OW22149   7.406  11.389   1.935
 6792SOL    HW122150   7.354  11.336   1.875
 6792SOL    HW222151   7.374  11.364   2.022
 6793SOL     OW22152   3.600  10.280  10.105
 6793SOL    HW122153   3.655  10.307  10.031
 6793SOL    HW222154   3.511  10.300  10.078
 6794SOL     OW22155   0.851   2.886   4.402
 6794SOL    HW122156   0.914   2.912   4.335
 6794SOL    HW222157   0.782   2.841   4.354
 6795SOL     OW22158   6.262   8.942   8.116
 6795SOL    HW122159   6.302   8.900   8.192
 6795SOL    HW222160   6.168   8.927   8.127
 6796SOL     OW22161  10.962  10.928   9.186
 6796SOL    HW122162  11.041  10.917   9.240
 6796SOL    HW222163  10.911  10.849   9.202
 6797SOL     OW22164   5.054   4.981   1.994
 6797SOL    HW122165   5.035   4.919   1.923
 6797SOL    HW222166   5.111   5.046   1.954
 6798SOL     OW22167   4.569   6.207   6.477
 6798SOL    HW122168   4.647   6.227   6.530
 6798SOL    HW222169   4.583   6.116   6.449
 6799SOL     OW22170   1.612   8.229   4.713
 6799SOL    HW122171   1.550   8.193   4.776
 6799SOL    HW222172   1.572   8.214   4.628
 6800SOL     OW22173   7.242   3.429  11.482
 6800SOL    HW122174   7.257   3.381  11.563
 6800SOL    HW222175   7.308   3.499  11.483
 6801SOL     OW22176  13.243   4.188   4.530
 6801SOL    HW122177  13.159   4.235   4.534
 6801SOL    HW222178  13.308   4.252   4.560
 6802SOL     OW22179   8.402   6.761  13.274
 6802SOL    HW122180   8.431   6.687  13.328
 6802SOL    HW222181   8.454   6.754  13.194
 6803SOL     OW22182   9.778  13.520  14.759
 6803SOL    HW122183   9.714  13.484  14.821
 6803SOL    HW222184   9.836  13.446  14.739
 6804SOL     OW22185   0.638   3.291   5.699
 6804SOL    HW122186   0.558   3.251   5.733
 6804SOL    HW222187   0.653   3.367   5.755
 6805SOL     OW22188   0.090   3.734  10.442
 6805SOL    HW122189   0.054   3.729  10.353
 6805SOL    HW222190   0.153   3.661  10.446
 6806SOL     OW22191  13.873  10.674   7.842
 6806SOL    HW122192  13.947  10.644   7.895
 6806SOL    HW222193  13.909  10.742   7.786
 6807SOL     OW22194   3.186  10.337  10.093
 6807SOL    HW122195   3.139  10.254  10.085
 6807SOL    HW222196   3.198  10.349  10.187
 6808SOL     OW22197   9.054  11.539   5.384
 6808SOL    HW122198   9.055  11.605   5.454
 6808SOL    HW222199   8.987  11.476   5.412
 6809SOL     OW22200  12.544   8.409  10.531
 6809SOL    HW122201  12.455   8.376  10.532
 6809SOL    HW222202  12.554   8.448  10.444
 6810SOL     OW22203  13.695   5.327  11.254
 6810SOL    HW122204  13.732   5.381  11.324
 6810SOL    HW222205  13.603   5.351  11.252
 6811SOL     OW22206   1.453  12.068  11.192
 6811SOL    HW122207   1.509  12.145  11.188
 6811SOL    HW222208   1.439  12.053  11.285
 6812SOL     OW22209   4.601   3.839   9.120
 6812SOL    HW122210   4.602   3.928   9.085
 6812SOL    HW222211   4.559   3.787   9.052
 6813SOL     OW22212  12.179   0.328   5.939
 6813SOL    HW122213  12.209   0.309   5.850
 6813SOL    HW222214  12.092   0.366   5.928
 6814SOL     OW22215   1.864   7.950   3.354
 6814SOL    HW122216   1.779   7.985   3.328
 6814SOL    HW222217   1.927   7.998   3.301
 6815SOL     OW22218   9.550  12.259  12.197
 6815SOL    HW122219   9.596  12.273  12.114
 6815SOL    HW222220   9.617  12.223  12.255
 6816SOL     OW22221  13.986  11.579   8.297
 6816SOL    HW122222  14.007  11.504   8.241
 6816SOL    HW222223  14.062  11.589   8.354
 6817SOL     OW22224   9.523   4.230   4.528
 6817SOL    HW122225   9.461   4.185   4.586
 6817SOL    HW222226   9.537   4.168   4.456
 6818SOL     OW22227  10.013   6.247  13.056
 6818SOL    HW122228   9.963   6.212  12.982
 6818SOL    HW222229   9.957   6.232  13.132
 6819SOL     OW22230  12.537   2.370   9.764
 6819SOL    HW122231  12.609   2.340   9.820
 6819SOL    HW222232  12.461   2.371   9.822
 6820SOL     OW22233  11.664   0.318   8.888
 6820SOL    HW122234  11.659   0.413   8.878
 6820SOL    HW222235  11.672   0.303   8.982
 6821SOL     OW22236   1.621  11.232   0.103
 6821SOL    HW122237   1.578  11.236   0.189
 6821SOL    HW222238   1.681  11.306   0.103
 6822SOL     OW22239   4.117  13.384   6.696
 6822SOL    HW122240   4.038  13.374   6.642
 6822SOL    HW222241   4.139  13.477   6.690
 6823SOL     OW22242  13.856   1.002   5.110
 6823SOL    HW122243  13.782   0.965   5.062
 6823SOL    HW222244  13.824   1.088   5.139
 6824SOL     OW22245   8.774  13.488   2.822
 6824SOL    HW122246   8.815  13.418   2.771
 6824SOL    HW222247   8.680  13.477   2.806
 6825SOL     OW22248   5.187   5.731  12.399
 6825SOL    HW122249   5.264   5.780  12.371
 6825SOL    HW222250   5.172   5.759  12.489
 6826SOL     OW22251  14.540   4.682   5.806
 6826SOL    HW122252  14.550   4.638   5.891
 6826SOL    HW222253  14.584   4.624   5.744
 6827SOL     OW22254   4.945   5.241   1.148
 6827SOL    HW122255   4.990   5.162   1.179
 6827SOL    HW222256   5.006   5.312   1.166
 6828SOL     OW22257   9.516   5.634   5.683
 6828SOL    HW122258   9.503   5.696   5.755
 6828SOL    HW222259   9.428   5.618   5.648
 6829SOL     OW22260  13.775   1.795   5.729
 6829SOL    HW122261  13.725   1.875   5.716
 6829SOL    HW222262  13.826   1.812   5.809
 6830SOL     OW22263   8.611   1.733  12.878
 6830SOL    HW122264   8.526   1.734  12.921
 6830SOL    HW222265   8.636   1.825  12.871
 6831SOL     OW22266   1.621   4.351   0.287
 6831SOL    HW122267   1.667   4.429   0.256
 6831SOL    HW222268   1.528   4.374   0.282
 6832SOL     OW22269  12.738   2.614  10.836
 6832SOL    HW122270  12.792   2.587  10.761
 6832SOL    HW222271  12.755   2.707  10.846
 6833SOL     OW22272  10.842  11.998   0.294
 6833SOL    HW122273  10.774  11.961   0.237
 6833SOL    HW222274  10.796  12.017   0.376
 6834SOL     OW22275  14.578  13.779   1.384
 6834SOL    HW122276  14.602  13.775   1.477
 6834SOL    HW222277  14.649  13.828   1.342
 6835SOL     OW22278   7.876   8.604  12.102
 6835SOL    HW122279   7.909   8.681  12.148
 6835SOL    HW222280   7.935   8.533  12.128
 6836SOL     OW22281   1.981   2.667  12.361
 6836SOL    HW122282   1.987   2.632  12.272
 6836SOL    HW222283   1.949   2.594  12.413
 6837SOL     OW22284  10.629  12.840  10.660
 6837SOL    HW122285  10.585  12.758  10.637
 6837SOL    HW222286  10.563  12.907  10.647
 6838SOL     OW22287   7.561   5.162  12.210
 6838SOL    HW122288   7.601   5.090  12.163
 6838SOL    HW222289   7.541   5.227  12.143
 6839SOL     OW22290   9.095   8.047  11.324
 6839SOL    HW122291   9.045   8.128  11.335
 6839SOL    HW222292   9.144   8.037  11.406
 6840SOL     OW22293   6.101   1.855   5.924
 6840SOL    HW122294   6.084   1.762   5.937
 6840SOL    HW222295   6.139   1.861   5.837
 6841SOL     OW22296   7.566   1.011  14.427
 6841SOL    HW122297   7.518   1.027  14.508
 6841SOL    HW222298   7.572   1.098  14.386
 6842SOL     OW22299  11.925   8.389   3.068
 6842SOL    HW122300  11.901   8.354   3.154
 6842SOL    HW222301  11.890   8.478   3.067
 6843SOL     OW22302  14.528   7.112   5.927
 6843SOL    HW122303  14.525   7.122   6.022
 6843SOL    HW222304  14.619   7.133   5.904
 6844SOL     OW22305   3.792  14.148  12.166
 6844SOL    HW122306   3.766  14.239  12.150
 6844SOL    HW222307   3.715  14.096  12.141
 6845SOL     OW22308   3.605   1.184   8.034
 6845SOL    HW122309   3.578   1.136   8.112
 6845SOL    HW222310   3.620   1.117   7.968
 6846SOL     OW22311  13.096   1.510   8.187
 6846SOL    HW122312  13.012   1.471   8.212
 6846SOL    HW222313  13.087   1.603   8.208
 6847SOL     OW22314   7.067  12.301   0.857
 6847SOL    HW122315   7.020  12.283   0.938
 6847SOL    HW222316   7.135  12.364   0.882
 6848SOL     OW22317  13.371   1.650   2.778
 6848SOL    HW122318  13.324   1.567   2.780
 6848SOL    HW222319  13.375   1.678   2.870
 6849SOL     OW22320  13.851   6.939  14.586
 6849SOL    HW122321  13.894   6.882  14.523
 6849SOL    HW222322  13.917   7.006  14.606
 6850SOL     OW22323   8.789   5.966   5.688
 6850SOL    HW122324   8.817   6.049   5.725
 6850SOL    HW222325   8.870   5.925   5.657
 6851SOL     OW22326  11.987   3.771   1.847
 6851SOL    HW122327  12.005   3.679   1.862
 6851SOL    HW222328  11.980   3.809   1.935
 6852SOL     OW22329   1.440   8.059   8.809
 6852SOL    HW122330   1.414   8.081   8.720
 6852SOL    HW222331   1.426   8.140   8.859
 6853SOL     OW22332   0.161   6.190   4.746
 6853SOL    HW122333   0.096   6.128   4.780
 6853SOL    HW222334   0.236   6.180   4.804
 6854SOL     OW22335   4.702   3.805  10.327
 6854SOL    HW122336   4.704   3.760  10.243
 6854SOL    HW222337   4.713   3.898  10.305
 6855SOL     OW22338   4.894  14.199   7.687
 6855SOL    HW122339   4.988  14.200   7.666
 6855SOL    HW222340   4.866  14.111   7.664
 6856SOL     OW22341   1.093  12.788   7.072
 6856SOL    HW122342   1.028  12.843   7.115
 6856SOL    HW222343   1.045  12.744   7.002
 6857SOL     OW22344  11.540  13.622   6.523
 6857SOL    HW122345  11.623  13.669   6.515
 6857SOL    HW222346  11.550  13.569   6.602
 6858SOL     OW22347  13.692  10.376  14.315
 6858SOL    HW122348  13.708  10.283  14.330
 6858SOL    HW222349  13.599  10.383  14.296
 6859SOL     OW22350   9.729   2.703   6.971
 6859SOL    HW122351   9.666   2.711   6.900
 6859SOL    HW222352   9.676   2.676   7.047
 6860SOL     OW22353   1.747  13.569   9.364
 6860SOL    HW122354   1.813  13.607   9.306
 6860SOL    HW222355   1.755  13.619   9.445
 6861SOL     OW22356   3.343  10.927   6.802
 6861SOL    HW122357   3.378  10.880   6.878
 6861SOL    HW222358   3.395  11.008   6.799
 6862SOL     OW22359  12.445   0.440   3.375
 6862SOL    HW122360  12.364   0.491   3.363
 6862SOL    HW222361  12.458   0.438   3.470
 6863SOL     OW22362   7.919  11.723   8.007
 6863SOL    HW122363   7.842  11.716   7.950
 6863SOL    HW222364   7.990  11.749   7.948
 6864SOL     OW22365   2.889   3.318   8.487
 6864SOL    HW122366   2.922   3.309   8.577
 6864SOL    HW222367   2.956   3.370   8.443
 6865SOL     OW22368   7.567   5.341  13.058
 6865SOL    HW122369   7.491   5.374  13.105
 6865SOL    HW222370   7.631   5.322  13.127
 6866SOL     OW22371  14.297   0.174   6.240
 6866SOL    HW122372  14.215   0.138   6.207
 6866SOL    HW222373  14.323   0.239   6.175
 6867SOL     OW22374   9.236   4.846  11.187
 6867SOL    HW122375   9.201   4.757  11.184
 6867SOL    HW222376   9.166   4.898  11.228
 6868SOL     OW22377  11.520   0.102   2.533
 6868SOL    HW122378  11.585   0.081   2.601
 6868SOL    HW222379  11.470   0.175   2.570
 6869SOL     OW22380   0.600  14.091   7.624
 6869SOL    HW122381   0.641  14.135   7.699
 6869SOL    HW222382   0.672  14.079   7.562
 6870SOL     OW22383  12.846   7.424  10.940
 6870SOL    HW122384  12.847   7.506  10.890
 6870SOL    HW222385  12.784   7.369  10.893
 6871SOL     OW22386  12.515  10.436   8.206
 6871SOL    HW122387  12.495  10.492   8.131
 6871SOL    HW222388  12.444  10.372   8.208
 6872SOL     OW22389  10.945   5.374   2.552
 6872SOL    HW122390  11.030   5.345   2.583
 6872SOL    HW222391  10.964   5.450   2.497
 6873SOL     OW22392   3.847   5.099   2.045
 6873SOL    HW122393   3.933   5.059   2.057
 6873SOL    HW222394   3.785   5.029   2.063
 6874SOL     OW22395  13.228   6.647   7.635
 6874SOL    HW122396  13.155   6.706   7.655
 6874SOL    HW222397  13.238   6.653   7.540
 6875SOL     OW22398   8.614   3.844   5.054
 6875SOL    HW122399   8.536   3.897   5.040
 6875SOL    HW222400   8.582   3.761   5.088
 6876SOL     OW22401  14.460   6.399   1.322
 6876SOL    HW122402  14.541   6.410   1.272
 6876SOL    HW222403  14.395   6.450   1.273
 6877SOL     OW22404  12.914  10.756  14.615
 6877SOL    HW122405  12.927  10.841  14.574
 6877SOL    HW222406  13.002  10.728  14.640
 6878SOL     OW22407   7.845  10.395   8.372
 6878SOL    HW122408   7.858  10.426   8.283
 6878SOL    HW222409   7.856  10.300   8.367
 6879SOL     OW22410  10.211   3.798  11.141
 6879SOL    HW122411  10.253   3.782  11.056
 6879SOL    HW222412  10.137   3.737  11.142
 6880SOL     OW22413   9.370   4.697   9.544
 6880SOL    HW122414   9.299   4.719   9.484
 6880SOL    HW222415   9.402   4.782   9.574
 6881SOL     OW22416   0.222   2.427   1.894
 6881SOL    HW122417   0.225   2.369   1.817
 6881SOL    HW222418   0.135   2.412   1.932
 6882SOL     OW22419   3.592   9.718   6.797
 6882SOL    HW122420   3.644   9.765   6.731
 6882SOL    HW222421   3.506   9.710   6.757
 6883SOL     OW22422  14.241  14.356  11.733
 6883SOL    HW122423  14.215  14.269  11.703
 6883SOL    HW222424  14.266  14.403  11.654
 6884SOL     OW22425  13.468  10.317   6.314
 6884SOL    HW122426  13.413  10.337   6.239
 6884SOL    HW222427  13.515  10.237   6.289
 6885SOL     OW22428  12.123   6.231   1.350
 6885SOL    HW122429  12.182   6.157   1.333
 6885SOL    HW222430  12.170   6.284   1.415
 6886SOL     OW22431  10.775   9.052   1.261
 6886SOL    HW122432  10.722   9.046   1.181
 6886SOL    HW222433  10.722   9.008   1.327
 6887SOL     OW22434  10.298   2.249  13.752
 6887SOL    HW122435  10.345   2.290  13.825
 6887SOL    HW222436  10.228   2.199  13.793
 6888SOL     OW22437   2.330   4.988   4.403
 6888SOL    HW122438   2.412   4.957   4.442
 6888SOL    HW222439   2.286   4.909   4.374
 6889SOL     OW22440   3.545   7.791   7.180
 6889SOL    HW122441   3.505   7.761   7.099
 6889SOL    HW222442   3.578   7.711   7.221
 6890SOL     OW22443   0.784   3.906   7.018
 6890SOL    HW122444   0.718   3.907   6.949
 6890SOL    HW222445   0.746   3.959   7.088
 6891SOL     OW22446   4.505   9.822   3.350
 6891SOL    HW122447   4.505   9.874   3.270
 6891SOL    HW222448   4.430   9.856   3.399
 6892SOL     OW22449  11.613  11.883   5.003
 6892SOL    HW122450  11.660  11.926   4.932
 6892SOL    HW222451  11.571  11.954   5.050
 6893SOL     OW22452   7.992   9.398   9.889
 6893SOL    HW122453   7.899   9.399   9.866
 6893SOL    HW222454   8.037   9.424   9.809
 6894SOL     OW22455  11.366   7.194  13.124
 6894SOL    HW122456  11.316   7.169  13.202
 6894SOL    HW222457  11.396   7.111  13.087
 6895SOL     OW22458  11.026   0.203   3.351
 6895SOL    HW122459  11.109   0.249   3.337
 6895SOL    HW222460  11.010   0.212   3.445
 6896SOL     OW22461   3.069   4.717   5.983
 6896SOL    HW122462   3.148   4.699   6.033
 6896SOL    HW222463   3.012   4.764   6.043
 6897SOL     OW22464  11.617   0.327  13.918
 6897SOL    HW122465  11.651   0.277  13.845
 6897SOL    HW222466  11.526   0.299  13.928
 6898SOL     OW22467   5.076   2.862  10.361
 6898SOL    HW122468   5.156   2.894  10.403
 6898SOL    HW222469   5.009   2.926  10.386
 6899SOL     OW22470   0.343  11.646   3.211
 6899SOL    HW122471   0.401  11.723   3.211
 6899SOL    HW222472   0.326  11.630   3.118
 6900SOL     OW22473  11.857  13.962   2.022
 6900SOL    HW122474  11.819  13.915   1.948
 6900SOL    HW222475  11.789  14.023   2.049
 6901SOL     OW22476   1.669  13.544   2.972
 6901SOL    HW122477   1.713  13.462   2.995
 6901SOL    HW222478   1.651  13.537   2.878
 6902SOL     OW22479   6.152   2.699  11.190
 6902SOL    HW122480   6.135   2.715  11.283
 6902SOL    HW222481   6.229   2.751  11.170
 6903SOL     OW22482   9.531  10.370   9.681
 6903SOL    HW122483   9.528  10.464   9.660
 6903SOL    HW222484   9.613  10.358   9.729
 6904SOL     OW22485  13.457  14.732   4.063
 6904SOL    HW122486  13.539  14.753   4.018
 6904SOL    HW222487  13.476  14.651   4.111
 6905SOL     OW22488   1.129   1.654   4.813
 6905SOL    HW122489   1.165   1.705   4.740
 6905SOL    HW222490   1.184   1.577   4.817
 6906SOL     OW22491   7.906  10.506   5.098
 6906SOL    HW122492   7.930  10.542   5.184
 6906SOL    HW222493   7.868  10.580   5.051
 6907SOL     OW22494  11.836   8.824   8.482
 6907SOL    HW122495  11.763   8.771   8.514
 6907SOL    HW222496  11.914   8.773   8.506
 6908SOL     OW22497  13.493   0.244   8.935
 6908SOL    HW122498  13.498   0.340   8.939
 6908SOL    HW222499  13.514   0.223   8.844
 6909SOL     OW22500   2.767   3.965   8.295
 6909SOL    HW122501   2.741   4.044   8.342
 6909SOL    HW222502   2.862   3.968   8.294
 6910SOL     OW22503   5.867  12.124   6.057
 6910SOL    HW122504   5.881  12.154   5.968
 6910SOL    HW222505   5.919  12.044   6.064
 6911SOL     OW22506   3.709  13.765   9.844
 6911SOL    HW122507   3.765  13.836   9.876
 6911SOL    HW222508   3.766  13.712   9.789
 6912SOL     OW22509   6.992   4.204   4.345
 6912SOL    HW122510   7.069   4.183   4.398
 6912SOL    HW222511   6.964   4.121   4.309
 6913SOL     OW22512   2.321  13.684   4.482
 6913SOL    HW122513   2.355  13.662   4.570
 6913SOL    HW222514   2.288  13.773   4.491
 6914SOL     OW22515  11.791   3.038   4.757
 6914SOL    HW122516  11.818   3.110   4.814
 6914SOL    HW222517  11.872   3.013   4.711
 6915SOL     OW22518   7.736  14.056  10.703
 6915SOL    HW122519   7.792  14.120  10.748
 6915SOL    HW222520   7.796  13.988  10.673
 6916SOL     OW22521   8.511  13.821  11.371
 6916SOL    HW122522   8.502  13.912  11.342
 6916SOL    HW222523   8.421  13.790  11.382
 6917SOL     OW22524   6.713   2.747   3.991
 6917SOL    HW122525   6.805   2.724   4.007
 6917SOL    HW222526   6.702   2.733   3.897
 6918SOL     OW22527   6.946  11.434   9.335
 6918SOL    HW122528   6.942  11.354   9.389
 6918SOL    HW222529   6.913  11.406   9.250
 6919SOL     OW22530   8.803  13.330   7.341
 6919SOL    HW122531   8.754  13.410   7.322
 6919SOL    HW222532   8.821  13.335   7.435
 6920SOL     OW22533  14.658   2.992   4.292
 6920SOL    HW122534  14.592   2.967   4.228
 6920SOL    HW222535  14.636   3.082   4.316
 6921SOL     OW22536  11.616   8.212  13.438
 6921SOL    HW122537  11.603   8.134  13.383
 6921SOL    HW222538  11.661   8.180  13.516
 6922SOL     OW22539   1.067   1.776   3.617
 6922SOL    HW122540   0.996   1.720   3.648
 6922SOL    HW222541   1.129   1.780   3.690
 6923SOL     OW22542   7.073  12.924   4.777
 6923SOL    HW122543   7.085  13.014   4.809
 6923SOL    HW222544   7.122  12.870   4.839
 6924SOL     OW22545   9.337   4.921  12.810
 6924SOL    HW122546   9.277   4.852  12.784
 6924SOL    HW222547   9.388   4.939  12.730
 6925SOL     OW22548   0.144   2.598   9.082
 6925SOL    HW122549   0.100   2.641   9.155
 6925SOL    HW222550   0.136   2.660   9.010
 6926SOL     OW22551  10.205   5.369   4.288
 6926SOL    HW122552  10.137   5.391   4.351
 6926SOL    HW222553  10.241   5.286   4.318
 6927SOL     OW22554   7.465   3.217   1.593
 6927SOL    HW122555   7.398   3.158   1.629
 6927SOL    HW222556   7.547   3.184   1.629
 6928SOL     OW22557  13.955   4.816   5.879
 6928SOL    HW122558  14.035   4.868   5.872
 6928SOL    HW222559  13.960   4.777   5.966
 6929SOL     OW22560   9.816   0.353  14.863
 6929SOL    HW122561   9.735   0.313  14.833
 6929SOL    HW222562   9.788   0.426   0.041
 6930SOL     OW22563   7.361   1.926   6.772
 6930SOL    HW122564   7.435   1.983   6.791
 6930SOL    HW222565   7.311   1.973   6.705
 6931SOL     OW22566   5.569  12.207   6.405
 6931SOL    HW122567   5.577  12.155   6.485
 6931SOL    HW222568   5.564  12.142   6.334
 6932SOL     OW22569   5.151   7.958   9.256
 6932SOL    HW122570   5.210   7.884   9.244
 6932SOL    HW222571   5.184   8.025   9.196
 6933SOL     OW22572   0.935   5.969  11.168
 6933SOL    HW122573   0.953   5.982  11.261
 6933SOL    HW222574   0.909   5.877  11.161
 6934SOL     OW22575   5.803   6.369   7.444
 6934SOL    HW122576   5.773   6.414   7.365
 6934SOL    HW222577   5.844   6.288   7.413
 6935SOL     OW22578   6.667  14.778   8.832
 6935SOL    HW122579   6.717  14.726   8.895
 6935SOL    HW222580   6.733  14.831   8.787
 6936SOL     OW22581   3.126   7.255   4.873
 6936SOL    HW122582   3.215   7.270   4.903
 6936SOL    HW222583   3.076   7.238   4.953
 6937SOL     OW22584   3.380  13.183   8.478
 6937SOL    HW122585   3.409  13.160   8.390
 6937SOL    HW222586   3.316  13.252   8.465
 6938SOL     OW22587   4.209   2.883   9.211
 6938SOL    HW122588   4.281   2.842   9.259
 6938SOL    HW222589   4.241   2.970   9.188
 6939SOL     OW22590  10.784   4.044  13.683
 6939SOL    HW122591  10.694   4.075  13.695
 6939SOL    HW222592  10.834   4.124  13.668
 6940SOL     OW22593   4.146   5.051   2.754
 6940SOL    HW122594   4.165   5.140   2.724
 6940SOL    HW222595   4.176   5.049   2.845
 6941SOL     OW22596   0.415   5.201   8.167
 6941SOL    HW122597   0.373   5.192   8.252
 6941SOL    HW222598   0.391   5.289   8.138
 6942SOL     OW22599   5.661   8.201   7.251
 6942SOL    HW122600   5.668   8.279   7.196
 6942SOL    HW222601   5.750   8.166   7.254
 6943SOL     OW22602  14.028   2.921   0.015
 6943SOL    HW122603  13.960   2.859  14.865
 6943SOL    HW222604  14.097   2.913  14.827
 6944SOL     OW22605   4.133  14.870   4.396
 6944SOL    HW122606   4.186   0.053   4.447
 6944SOL    HW222607   4.139   0.024   4.306
 6945SOL     OW22608  12.941   5.633   7.501
 6945SOL    HW122609  12.890   5.687   7.561
 6945SOL    HW222610  12.985   5.696   7.443
 6946SOL     OW22611   6.314   8.084   4.807
 6946SOL    HW122612   6.377   8.062   4.875
 6946SOL    HW222613   6.361   8.142   4.748
 6947SOL     OW22614   0.650   2.089   6.443
 6947SOL    HW122615   0.581   2.084   6.510
 6947SOL    HW222616   0.731   2.085   6.494
 6948SOL     OW22617  14.054  14.706   5.935
 6948SOL    HW122618  14.029  14.638   5.874
 6948SOL    HW222619  14.066  14.661   6.019
 6949SOL     OW22620   0.176  10.078   0.248
 6949SOL    HW122621   0.082  10.092   0.242
 6949SOL    HW222622   0.213  10.131   0.178
 6950SOL     OW22623   6.420  12.048   4.973
 6950SOL    HW122624   6.422  12.061   4.878
 6950SOL    HW222625   6.328  12.030   4.992
 6951SOL     OW22626   9.024  11.217   0.697
 6951SOL    HW122627   8.933  11.243   0.685
 6951SOL    HW222628   9.069  11.298   0.721
 6952SOL     OW22629  14.450   1.792   5.614
 6952SOL    HW122630  14.424   1.878   5.581
 6952SOL    HW222631  14.478   1.808   5.704
 6953SOL     OW22632   4.930   3.793   9.198
 6953SOL    HW122633   4.980   3.823   9.122
 6953SOL    HW222634   4.907   3.703   9.177
 6954SOL     OW22635   1.955   1.981  12.494
 6954SOL    HW122636   2.035   2.034  12.498
 6954SOL    HW222637   1.984   1.899  12.452
 6955SOL     OW22638  13.842   6.602   0.451
 6955SOL    HW122639  13.874   6.634   0.535
 6955SOL    HW222640  13.880   6.661   0.386
 6956SOL     OW22641   6.043   1.228   5.807
 6956SOL    HW122642   6.085   1.254   5.889
 6956SOL    HW222643   6.107   1.248   5.739
 6957SOL     OW22644  13.140   3.784   3.903
 6957SOL    HW122645  13.173   3.737   3.979
 6957SOL    HW222646  13.206   3.850   3.884
 6958SOL     OW22647  13.841   0.814  13.646
 6958SOL    HW122648  13.900   0.888  13.649
 6958SOL    HW222649  13.841   0.786  13.554
 6959SOL     OW22650   0.297   1.518   8.273
 6959SOL    HW122651   0.219   1.574   8.267
 6959SOL    HW222652   0.296   1.485   8.363
 6960SOL     OW22653   6.103   4.022   0.014
 6960SOL    HW122654   6.131   4.089   0.076
 6960SOL    HW222655   6.105   3.941   0.065
 6961SOL     OW22656   2.673  14.375  13.699
 6961SOL    HW122657   2.601  14.312  13.703
 6961SOL    HW222658   2.737  14.343  13.762
 6962SOL     OW22659   4.826  12.466   9.077
 6962SOL    HW122660   4.809  12.506   9.163
 6962SOL    HW222661   4.890  12.524   9.036
 6963SOL     OW22662  12.367   3.131   8.633
 6963SOL    HW122663  12.300   3.117   8.701
 6963SOL    HW222664  12.317   3.148   8.553
 6964SOL     OW22665   5.893   1.574   4.537
 6964SOL    HW122666   5.879   1.656   4.586
 6964SOL    HW222667   5.806   1.534   4.532
 6965SOL     OW22668   6.292  12.470   2.414
 6965SOL    HW122669   6.211  12.479   2.463
 6965SOL    HW222670   6.360  12.505   2.472
 6966SOL     OW22671   8.040   9.163   1.183
 6966SOL    HW122672   8.003   9.240   1.226
 6966SOL    HW222673   8.113   9.198   1.131
 6967SOL     OW22674   3.371  13.809  13.513
 6967SOL    HW122675   3.289  13.803  13.561
 6967SOL    HW222676   3.439  13.799  13.580
 6968SOL     OW22677   9.973   9.930   8.375
 6968SOL    HW122678   9.990   9.940   8.282
 6968SOL    HW222679   9.941   9.841   8.385
 6969SOL     OW22680   8.480   5.989  10.418
 6969SOL    HW122681   8.533   6.057  10.460
 6969SOL    HW222682   8.535   5.911  10.421
 6970SOL     OW22683   5.679   2.385  13.757
 6970SOL    HW122684   5.604   2.435  13.726
 6970SOL    HW222685   5.649   2.294  13.758
 6971SOL     OW22686   1.781   4.189   7.419
 6971SOL    HW122687   1.752   4.230   7.500
 6971SOL    HW222688   1.788   4.096   7.440
 6972SOL     OW22689   2.338   9.707  10.073
 6972SOL    HW122690   2.397   9.697  10.147
 6972SOL    HW222691   2.250   9.692  10.109
 6973SOL     OW22692  13.063   6.738   9.221
 6973SOL    HW122693  13.079   6.651   9.185
 6973SOL    HW222694  12.986   6.728   9.276
 6974SOL     OW22695   6.375  14.724   7.509
 6974SOL    HW122696   6.282  14.748   7.514
 6974SOL    HW222697   6.380  14.663   7.436
 6975SOL     OW22698   8.894   0.996   0.729
 6975SOL    HW122699   8.831   0.941   0.683
 6975SOL    HW222700   8.958   1.020   0.661
 6976SOL     OW22701  14.831  11.458   3.231
 6976SOL    HW122702  14.818  11.466   3.326
 6976SOL    HW222703  14.845  11.548   3.201
 6977SOL     OW22704  11.391   4.830   0.047
 6977SOL    HW122705  11.380   4.771  14.850
 6977SOL    HW222706  11.481   4.861   0.041
 6978SOL     OW22707  12.474   6.701   9.113
 6978SOL    HW122708  12.381   6.695   9.092
 6978SOL    HW222709  12.499   6.613   9.140
 6979SOL     OW22710  12.210  12.152   2.371
 6979SOL    HW122711  12.175  12.240   2.386
 6979SOL    HW222712  12.259  12.132   2.451
 6980SOL     OW22713  14.566   4.425  13.005
 6980SOL    HW122714  14.555   4.515  12.975
 6980SOL    HW222715  14.569   4.373  12.924
 6981SOL     OW22716  14.570   3.945   0.732
 6981SOL    HW122717  14.558   3.869   0.789
 6981SOL    HW222718  14.537   3.918   0.647
 6982SOL     OW22719  11.639   3.485   5.417
 6982SOL    HW122720  11.588   3.513   5.341
 6982SOL    HW222721  11.580   3.427   5.465
 6983SOL     OW22722   6.662   3.245  14.749
 6983SOL    HW122723   6.632   3.157  14.771
 6983SOL    HW222724   6.754   3.235  14.726
 6984SOL     OW22725  14.477   9.813  11.574
 6984SOL    HW122726  14.571   9.814  11.557
 6984SOL    HW222727  14.465   9.745  11.640
 6985SOL     OW22728   5.074   5.498  12.954
 6985SOL    HW122729   5.125   5.498  12.873
 6985SOL    HW222730   5.064   5.405  12.976
 6986SOL     OW22731  10.772  11.176   4.756
 6986SOL    HW122732  10.815  11.200   4.838
 6986SOL    HW222733  10.842  11.178   4.690
 6987SOL     OW22734   2.184  14.054  10.708
 6987SOL    HW122735   2.279  14.058  10.698
 6987SOL    HW222736   2.170  14.050  10.802
 6988SOL     OW22737  10.369  10.837   0.992
 6988SOL    HW122738  10.378  10.856   0.898
 6988SOL    HW222739  10.317  10.757   0.995
 6989SOL     OW22740   4.412   8.626   0.888
 6989SOL    HW122741   4.384   8.552   0.834
 6989SOL    HW222742   4.351   8.626   0.962
 6990SOL     OW22743  11.478  11.228   8.554
 6990SOL    HW122744  11.485  11.293   8.624
 6990SOL    HW222745  11.386  11.202   8.555
 6991SOL     OW22746  12.435   6.461  13.977
 6991SOL    HW122747  12.430   6.549  13.940
 6991SOL    HW222748  12.480   6.410  13.911
 6992SOL     OW22749   2.992   8.734   1.557
 6992SOL    HW122750   3.051   8.665   1.526
 6992SOL    HW222751   3.050   8.805   1.584
 6993SOL     OW22752   4.558   9.644  10.200
 6993SOL    HW122753   4.627   9.638  10.266
 6993SOL    HW222754   4.515   9.559  10.202
 6994SOL     OW22755  14.022  11.389  10.977
 6994SOL    HW122756  13.995  11.446  10.905
 6994SOL    HW222757  14.024  11.447  11.053
 6995SOL     OW22758   0.234   3.058   3.109
 6995SOL    HW122759   0.303   3.123   3.099
 6995SOL    HW222760   0.223   3.048   3.203
 6996SOL     OW22761   4.076   0.476  14.785
 6996SOL    HW122762   4.063   0.450  14.876
 6996SOL    HW222763   4.053   0.397  14.735
 6997SOL     OW22764  11.163  13.805   8.164
 6997SOL    HW122765  11.202  13.845   8.241
 6997SOL    HW222766  11.182  13.865   8.092
 6998SOL     OW22767   7.621   8.859  14.337
 6998SOL    HW122768   7.633   8.885  14.246
 6998SOL    HW222769   7.592   8.939  14.382
 6999SOL     OW22770  12.194   5.130   8.273
 6999SOL    HW122771  12.259   5.186   8.231
 6999SOL    HW222772  12.227   5.117   8.362
 7000SOL     OW22773   3.199  10.359   1.303
 7000SOL    HW122774   3.106  10.372   1.284
 7000SOL    HW222775   3.229  10.299   1.234
 7001SOL     OW22776  14.568   8.970   7.565
 7001SOL    HW122777  14.569   9.004   7.655
 7001SOL    HW222778  14.517   8.890   7.571
 7002SOL     OW22779   9.299   6.733   2.411
 7002SOL    HW122780   9.208   6.739   2.440
 7002SOL    HW222781   9.293   6.725   2.316
 7003SOL     OW22782   8.392  12.296   5.529
 7003SOL    HW122783   8.452  12.300   5.455
 7003SOL    HW222784   8.440  12.251   5.597
 7004SOL     OW22785   8.357  10.290   7.293
 7004SOL    HW122786   8.442  10.264   7.260
 7004SOL    HW222787   8.371  10.378   7.328
 7005SOL     OW22788  11.999   5.899   8.752
 7005SOL    HW122789  11.983   5.871   8.662
 7005SOL    HW222790  12.072   5.845   8.782
 7006SOL     OW22791   1.132  12.925   5.257
 7006SOL    HW122792   1.132  12.852   5.195
 7006SOL    HW222793   1.173  12.889   5.336
 7007SOL     OW22794   5.442   8.733  14.382
 7007SOL    HW122795   5.395   8.804  14.425
 7007SOL    HW222796   5.399   8.724  14.297
 7008SOL     OW22797   9.654   0.430   2.342
 7008SOL    HW122798   9.592   0.402   2.275
 7008SOL    HW222799   9.667   0.523   2.325
 7009SOL     OW22800   6.912   9.015  11.282
 7009SOL    HW122801   6.925   9.072  11.206
 7009SOL    HW222802   6.880   8.933  11.245
 7010SOL     OW22803  13.619  14.340   6.496
 7010SOL    HW122804  13.642  14.329   6.588
 7010SOL    HW222805  13.542  14.396   6.496
 7011SOL     OW22806  13.671   8.531   5.202
 7011SOL    HW122807  13.745   8.474   5.184
 7011SOL    HW222808  13.702   8.619   5.179
 7012SOL     OW22809  11.447   1.752   4.988
 7012SOL    HW122810  11.361   1.772   4.951
 7012SOL    HW222811  11.509   1.773   4.918
 7013SOL     OW22812   0.199   7.743  10.875
 7013SOL    HW122813   0.170   7.760  10.786
 7013SOL    HW222814   0.227   7.828  10.909
 7014SOL     OW22815   5.109  13.276   5.722
 7014SOL    HW122816   5.136  13.346   5.782
 7014SOL    HW222817   5.156  13.198   5.752
 7015SOL     OW22818   7.679  11.878   6.489
 7015SOL    HW122819   7.728  11.944   6.440
 7015SOL    HW222820   7.732  11.798   6.483
 7016SOL     OW22821   5.593   9.410   4.634
 7016SOL    HW122822   5.617   9.467   4.561
 7016SOL    HW222823   5.672   9.359   4.652
 7017SOL     OW22824  10.857   1.875   1.216
 7017SOL    HW122825  10.771   1.899   1.181
 7017SOL    HW222826  10.911   1.952   1.199
 7018SOL     OW22827   3.777  14.225  10.667
 7018SOL    HW122828   3.709  14.202  10.603
 7018SOL    HW222829   3.858  14.191  10.630
 7019SOL     OW22830  11.375   8.826   5.000
 7019SOL    HW122831  11.465   8.823   4.967
 7019SOL    HW222832  11.322   8.791   4.928
 7020SOL     OW22833   3.476   8.652   0.675
 7020SOL    HW122834   3.537   8.579   0.665
 7020SOL    HW222835   3.389   8.613   0.664
 7021SOL     OW22836   8.163   4.513  14.332
 7021SOL    HW122837   8.069   4.516  14.352
 7021SOL    HW222838   8.203   4.479  14.411
 7022SOL     OW22839   0.564   4.200   2.744
 7022SOL    HW122840   0.614   4.185   2.663
 7022SOL    HW222841   0.496   4.262   2.718
 7023SOL     OW22842   2.025   5.421  11.749
 7023SOL    HW122843   2.025   5.329  11.774
 7023SOL    HW222844   2.117   5.444  11.742
 7024SOL     OW22845  13.322   3.565   9.980
 7024SOL    HW122846  13.228   3.567   9.993
 7024SOL    HW222847  13.333   3.571   9.885
 7025SOL     OW22848   4.849   4.725  14.308
 7025SOL    HW122849   4.855   4.815  14.276
 7025SOL    HW222850   4.937   4.689  14.296
 7026SOL     OW22851  13.652  12.303  14.170
 7026SOL    HW122852  13.628  12.370  14.233
 7026SOL    HW222853  13.568  12.269  14.137
 7027SOL     OW22854  13.479  13.235   2.427
 7027SOL    HW122855  13.546  13.197   2.485
 7027SOL    HW222856  13.485  13.329   2.442
 7028SOL     OW22857   7.860   8.981   9.175
 7028SOL    HW122858   7.877   8.910   9.237
 7028SOL    HW222859   7.869   9.060   9.227
 7029SOL     OW22860   3.859   3.649  11.239
 7029SOL    HW122861   3.798   3.580  11.215
 7029SOL    HW222862   3.943   3.604  11.250
 7030SOL     OW22863   8.313   8.189  11.863
 7030SOL    HW122864   8.299   8.124  11.794
 7030SOL    HW222865   8.229   8.191  11.910
 7031SOL     OW22866   4.154   3.387   5.348
 7031SOL    HW122867   4.156   3.373   5.253
 7031SOL    HW222868   4.074   3.344   5.377
 7032SOL     OW22869   2.585   8.539   1.298
 7032SOL    HW122870   2.521   8.533   1.368
 7032SOL    HW222871   2.669   8.517   1.339
 7033SOL     OW22872   2.536   5.938   0.509
 7033SOL    HW122873   2.476   5.878   0.465
 7033SOL    HW222874   2.495   5.954   0.595
 7034SOL     OW22875  12.303  14.082   1.744
 7034SOL    HW122876  12.338  14.129   1.669
 7034SOL    HW222877  12.342  14.125   1.820
 7035SOL     OW22878   7.647   5.396  12.389
 7035SOL    HW122879   7.718   5.360  12.443
 7035SOL    HW222880   7.608   5.320  12.347
 7036SOL     OW22881   8.954   9.300   9.033
 7036SOL    HW122882   8.926   9.294   9.125
 7036SOL    HW222883   8.951   9.210   9.001
 7037SOL     OW22884  13.219   8.468   5.975
 7037SOL    HW122885  13.250   8.521   6.049
 7037SOL    HW222886  13.127   8.452   5.993
 7038SOL     OW22887  11.646  12.393  11.858
 7038SOL    HW122888  11.647  12.389  11.763
 7038SOL    HW222889  11.561  12.431  11.880
 7039SOL     OW22890  11.124   2.298   1.815
 7039SOL    HW122891  11.079   2.381   1.798
 7039SOL    HW222892  11.070   2.232   1.773
 7040SOL     OW22893   5.537   4.500  14.681
 7040SOL    HW122894   5.568   4.590  14.683
 7040SOL    HW222895   5.601   4.453  14.628
 7041SOL     OW22896  10.598   6.882   9.693
 7041SOL    HW122897  10.636   6.795   9.688
 7041SOL    HW222898  10.672   6.941   9.675
 7042SOL     OW22899   9.619  12.378  11.864
 7042SOL    HW122900   9.622  12.360  11.770
 7042SOL    HW222901   9.705  12.352  11.896
 7043SOL     OW22902   1.103  10.185   5.309
 7043SOL    HW122903   1.156  10.241   5.366
 7043SOL    HW222904   1.023  10.169   5.358
 7044SOL     OW22905   8.196   0.025   9.125
 7044SOL    HW122906   8.264  14.836   9.134
 7044SOL    HW222907   8.192   0.067   9.211
 7045SOL     OW22908   7.789  14.302   5.003
 7045SOL    HW122909   7.811  14.377   5.058
 7045SOL    HW222910   7.727  14.251   5.055
 7046SOL     OW22911   8.311   5.107  12.256
 7046SOL    HW122912   8.403   5.106  12.285
 7046SOL    HW222913   8.280   5.194  12.281
 7047SOL     OW22914  10.628   4.239   9.333
 7047SOL    HW122915  10.561   4.307   9.333
 7047SOL    HW222916  10.583   4.160   9.362
 7048SOL     OW22917   0.232  11.291   9.093
 7048SOL    HW122918   0.259  11.376   9.056
 7048SOL    HW222919   0.308  11.260   9.141
 7049SOL     OW22920  12.441  11.610   2.743
 7049SOL    HW122921  12.480  11.592   2.829
 7049SOL    HW222922  12.466  11.700   2.724
 7050SOL     OW22923  11.748   0.353  11.064
 7050SOL    HW122924  11.734   0.360  10.970
 7050SOL    HW222925  11.695   0.279  11.091
 7051SOL     OW22926   2.307   4.792   7.924
 7051SOL    HW122927   2.293   4.887   7.932
 7051SOL    HW222928   2.219   4.756   7.911
 7052SOL     OW22929   8.390   0.001   0.996
 7052SOL    HW122930   8.340  14.808   1.036
 7052SOL    HW222931   8.361   0.003   0.905
 7053SOL     OW22932   1.513   3.849   0.622
 7053SOL    HW122933   1.572   3.884   0.554
 7053SOL    HW222934   1.547   3.762   0.641
 7054SOL     OW22935   7.948  14.061  14.298
 7054SOL    HW122936   7.936  14.156  14.306
 7054SOL    HW222937   7.900  14.036  14.219
 7055SOL     OW22938   3.330   7.011   9.643
 7055SOL    HW122939   3.306   7.084   9.585
 7055SOL    HW222940   3.401   7.046   9.697
 7056SOL     OW22941  10.056   1.525   6.968
 7056SOL    HW122942  10.100   1.443   6.992
 7056SOL    HW222943  10.126   1.589   6.964
 7057SOL     OW22944   6.364  11.221  13.006
 7057SOL    HW122945   6.395  11.137  12.973
 7057SOL    HW222946   6.325  11.201  13.091
 7058SOL     OW22947  13.026   0.180   2.895
 7058SOL    HW122948  13.057   0.270   2.891
 7058SOL    HW222949  13.101   0.129   2.924
 7059SOL     OW22950  13.289  11.637  14.105
 7059SOL    HW122951  13.366  11.675  14.147
 7059SOL    HW222952  13.254  11.576  14.170
 7060SOL     OW22953   6.885  13.931  14.174
 7060SOL    HW122954   6.969  13.899  14.208
 7060SOL    HW222955   6.843  13.972  14.249
 7061SOL     OW22956  14.005   7.907  12.764
 7061SOL    HW122957  13.924   7.860  12.743
 7061SOL    HW222958  14.033   7.872  12.848
 7062SOL     OW22959   4.263   4.770   5.811
 7062SOL    HW122960   4.274   4.707   5.882
 7062SOL    HW222961   4.177   4.750   5.775
 7063SOL     OW22962  10.695   2.289  12.045
 7063SOL    HW122963  10.748   2.224  12.091
 7063SOL    HW222964  10.606   2.275  12.079
 7064SOL     OW22965   1.745   3.500  14.308
 7064SOL    HW122966   1.683   3.430  14.286
 7064SOL    HW222967   1.812   3.495  14.241
 7065SOL     OW22968   3.424   2.982   0.544
 7065SOL    HW122969   3.386   2.912   0.492
 7065SOL    HW222970   3.462   3.043   0.480
 7066SOL     OW22971   9.566   3.827   0.050
 7066SOL    HW122972   9.544   3.768   0.122
 7066SOL    HW222973   9.657   3.808   0.030
 7067SOL     OW22974   8.410   8.959   8.281
 7067SOL    HW122975   8.378   9.020   8.348
 7067SOL    HW222976   8.464   9.013   8.223
 7068SOL     OW22977   3.181   5.201   7.775
 7068SOL    HW122978   3.268   5.164   7.785
 7068SOL    HW222979   3.196   5.293   7.751
 7069SOL     OW22980   8.069   0.009   8.626
 7069SOL    HW122981   8.083   0.054   8.709
 7069SOL    HW222982   7.974   0.000   8.619
 7070SOL     OW22983   0.585   6.927   2.435
 7070SOL    HW122984   0.507   6.982   2.440
 7070SOL    HW222985   0.565   6.851   2.489
 7071SOL     OW22986  13.837   2.506   8.944
 7071SOL    HW122987  13.879   2.527   8.861
 7071SOL    HW222988  13.850   2.412   8.955
 7072SOL     OW22989   6.356  12.781   8.231
 7072SOL    HW122990   6.327  12.787   8.140
 7072SOL    HW222991   6.432  12.839   8.236
 7073SOL     OW22992   1.537  14.454  12.525
 7073SOL    HW122993   1.536  14.359  12.515
 7073SOL    HW222994   1.459  14.473  12.578
 7074SOL     OW22995   1.141   8.707   5.182
 7074SOL    HW122996   1.076   8.642   5.158
 7074SOL    HW222997   1.219   8.656   5.204
 7075SOL     OW22998   5.460  14.112   3.998
 7075SOL    HW122999   5.469  14.021   3.970
 7075SOL    HW223000   5.368  14.133   3.979
 7076SOL     OW23001   3.821  12.832   5.596
 7076SOL    HW123002   3.894  12.839   5.534
 7076SOL    HW223003   3.847  12.762   5.656
 7077SOL     OW23004   5.821   3.356   1.639
 7077SOL    HW123005   5.778   3.414   1.701
 7077SOL    HW223006   5.750   3.314   1.591
 7078SOL     OW23007   6.999   2.192   8.957
 7078SOL    HW123008   6.999   2.102   8.990
 7078SOL    HW223009   6.937   2.191   8.884
 7079SOL     OW23010  13.559   5.904   7.255
 7079SOL    HW123011  13.554   5.986   7.304
 7079SOL    HW223012  13.499   5.845   7.302
 7080SOL     OW23013   9.928   3.007   2.323
 7080SOL    HW123014   9.942   2.912   2.319
 7080SOL    HW223015   9.974   3.034   2.403
 7081SOL     OW23016   0.239   5.474   2.688
 7081SOL    HW123017   0.219   5.380   2.687
 7081SOL    HW223018   0.332   5.479   2.707
 7082SOL     OW23019  11.995   5.149  11.518
 7082SOL    HW123020  11.994   5.242  11.494
 7082SOL    HW223021  11.907   5.132  11.550
 7083SOL     OW23022   6.734   7.670   5.616
 7083SOL    HW123023   6.738   7.669   5.520
 7083SOL    HW223024   6.824   7.685   5.643
 7084SOL     OW23025   9.184   2.367  10.135
 7084SOL    HW123026   9.235   2.372  10.054
 7084SOL    HW223027   9.240   2.408  10.201
 7085SOL     OW23028   2.220   4.228  10.350
 7085SOL    HW123029   2.213   4.254  10.258
 7085SOL    HW223030   2.253   4.306  10.395
 7086SOL     OW23031   2.722   5.431   8.863
 7086SOL    HW123032   2.708   5.517   8.901
 7086SOL    HW223033   2.810   5.406   8.892
 7087SOL     OW23034   7.591   3.857   3.985
 7087SOL    HW123035   7.628   3.770   3.970
 7087SOL    HW223036   7.543   3.877   3.905
 7088SOL     OW23037  10.461   7.540  14.269
 7088SOL    HW123038  10.372   7.543  14.304
 7088SOL    HW223039  10.457   7.473  14.200
 7089SOL     OW23040   7.821  12.129   4.390
 7089SOL    HW123041   7.781  12.211   4.420
 7089SOL    HW223042   7.900  12.157   4.345
 7090SOL     OW23043   9.663   2.654   2.357
 7090SOL    HW123044   9.750   2.683   2.329
 7090SOL    HW223045   9.611   2.655   2.277
 7091SOL     OW23046  12.801   0.446   5.708
 7091SOL    HW123047  12.728   0.410   5.757
 7091SOL    HW223048  12.876   0.438   5.768
 7092SOL     OW23049   5.426   5.839  12.329
 7092SOL    HW123050   5.513   5.800  12.323
 7092SOL    HW223051   5.416   5.889  12.248
 7093SOL     OW23052   0.213   4.964   8.511
 7093SOL    HW123053   0.246   4.883   8.550
 7093SOL    HW223054   0.198   5.022   8.586
 7094SOL     OW23055  14.829   4.132   0.470
 7094SOL    HW123056  14.831   4.096   0.559
 7094SOL    HW223057   0.022   4.196   0.468
 7095SOL     OW23058   8.134   6.518  14.664
 7095SOL    HW123059   8.170   6.430  14.660
 7095SOL    HW223060   8.042   6.508  14.639
 7096SOL     OW23061   0.558   5.944   6.047
 7096SOL    HW123062   0.547   6.026   6.095
 7096SOL    HW223063   0.521   5.961   5.961
 7097SOL     OW23064  12.246   4.092  10.205
 7097SOL    HW123065  12.341   4.086  10.192
 7097SOL    HW223066  12.210   4.095  10.116
 7098SOL     OW23067   1.536  10.078   0.376
 7098SOL    HW123068   1.476  10.153   0.383
 7098SOL    HW223069   1.581  10.077   0.460
 7099SOL     OW23070  11.292  10.216  11.495
 7099SOL    HW123071  11.335  10.164  11.427
 7099SOL    HW223072  11.218  10.258  11.451
 7100SOL     OW23073   0.936  12.614   9.280
 7100SOL    HW123074   0.935  12.696   9.232
 7100SOL    HW223075   0.986  12.633   9.360
 7101SOL     OW23076   1.097   7.516   1.483
 7101SOL    HW123077   1.119   7.428   1.514
 7101SOL    HW223078   1.150   7.574   1.538
 7102SOL     OW23079   2.562   8.915   5.480
 7102SOL    HW123080   2.628   8.860   5.438
 7102SOL    HW223081   2.478   8.874   5.456
 7103SOL     OW23082   7.556   7.221   8.091
 7103SOL    HW123083   7.600   7.301   8.119
 7103SOL    HW223084   7.583   7.210   8.000
 7104SOL     OW23085   7.285  10.099   9.197
 7104SOL    HW123086   7.216  10.166   9.194
 7104SOL    HW223087   7.248  10.029   9.251
 7105SOL     OW23088   2.504   5.080   2.234
 7105SOL    HW123089   2.463   5.056   2.151
 7105SOL    HW223090   2.598   5.088   2.213
 7106SOL     OW23091   1.546   1.272   7.893
 7106SOL    HW123092   1.531   1.338   7.825
 7106SOL    HW223093   1.626   1.301   7.937
 7107SOL     OW23094   0.799   3.339   7.848
 7107SOL    HW123095   0.834   3.332   7.936
 7107SOL    HW223096   0.712   3.378   7.860
 7108SOL     OW23097   0.298   0.657   1.558
 7108SOL    HW123098   0.352   0.589   1.597
 7108SOL    HW223099   0.360   0.722   1.525
 7109SOL     OW23100   7.758   7.085   4.025
 7109SOL    HW123101   7.768   7.037   4.107
 7109SOL    HW223102   7.775   7.020   3.957
 7110SOL     OW23103   1.220   9.362   6.714
 7110SOL    HW123104   1.244   9.271   6.730
 7110SOL    HW223105   1.125   9.360   6.701
 7111SOL     OW23106   8.971   2.142  12.063
 7111SOL    HW123107   8.939   2.059  12.099
 7111SOL    HW223108   8.929   2.209  12.117
 7112SOL     OW23109   1.344   9.555  12.029
 7112SOL    HW123110   1.355   9.638  11.983
 7112SOL    HW223111   1.425   9.507  12.011
 7113SOL     OW23112   6.993  12.012   7.686
 7113SOL    HW123113   7.021  11.937   7.739
 7113SOL    HW223114   6.981  12.083   7.748
 7114SOL     OW23115   8.456  13.078   9.196
 7114SOL    HW123116   8.529  13.033   9.239
 7114SOL    HW223117   8.444  13.030   9.114
 7115SOL     OW23118   9.784  12.432  11.215
 7115SOL    HW123119   9.726  12.356  11.222
 7115SOL    HW223120   9.814  12.432  11.125
 7116SOL     OW23121   8.672   0.758   3.221
 7116SOL    HW123122   8.711   0.671   3.225
 7116SOL    HW223123   8.608   0.753   3.150
 7117SOL     OW23124   7.249   9.463   9.815
 7117SOL    HW123125   7.323   9.460   9.754
 7117SOL    HW223126   7.185   9.520   9.772
 7118SOL     OW23127   5.041   4.524   3.214
 7118SOL    HW123128   4.979   4.535   3.142
 7118SOL    HW223129   5.086   4.441   3.195
 7119SOL     OW23130  11.820   2.599   8.718
 7119SOL    HW123131  11.886   2.563   8.658
 7119SOL    HW223132  11.856   2.583   8.806
 7120SOL     OW23133   0.035   9.036   8.551
 7120SOL    HW123134  14.869   9.054   8.634
 7120SOL    HW223135   0.129   9.036   8.573
 7121SOL     OW23136  11.147   7.172   6.158
 7121SOL    HW123137  11.229   7.172   6.108
 7121SOL    HW223138  11.087   7.223   6.105
 7122SOL     OW23139   5.564   9.112   1.657
 7122SOL    HW123140   5.613   9.098   1.576
 7122SOL    HW223141   5.631   9.131   1.722
 7123SOL     OW23142  12.360  10.144  14.382
 7123SOL    HW123143  12.417  10.188  14.444
 7123SOL    HW223144  12.306  10.086  14.435
 7124SOL     OW23145   6.540   6.497   1.041
 7124SOL    HW123146   6.491   6.416   1.026
 7124SOL    HW223147   6.600   6.502   0.966
 7125SOL     OW23148  14.395   5.739  10.228
 7125SOL    HW123149  14.454   5.806  10.194
 7125SOL    HW223150  14.453   5.666  10.252
 7126SOL     OW23151   1.394  13.716  13.768
 7126SOL    HW123152   1.355  13.651  13.709
 7126SOL    HW223153   1.343  13.709  13.849
 7127SOL     OW23154   0.391   6.800   3.262
 7127SOL    HW123155   0.372   6.833   3.350
 7127SOL    HW223156   0.417   6.878   3.213
 7128SOL     OW23157   0.477   5.341  10.557
 7128SOL    HW123158   0.486   5.288  10.636
 7128SOL    HW223159   0.394   5.387  10.568
 7129SOL     OW23160   4.738  11.859   6.572
 7129SOL    HW123161   4.785  11.802   6.511
 7129SOL    HW223162   4.678  11.909   6.517
 7130SOL     OW23163  14.537   2.978  12.619
 7130SOL    HW123164  14.470   2.981  12.551
 7130SOL    HW223165  14.490   2.995  12.700
 7131SOL     OW23166   8.089  12.900  11.461
 7131SOL    HW123167   8.152  12.836  11.494
 7131SOL    HW223168   8.022  12.905  11.530
 7132SOL     OW23169  11.559   3.340  11.221
 7132SOL    HW123170  11.469   3.348  11.253
 7132SOL    HW223171  11.557   3.378  11.133
 7133SOL     OW23172   6.340  10.547   9.683
 7133SOL    HW123173   6.286  10.469   9.674
 7133SOL    HW223174   6.319  10.599   9.605
 7134SOL     OW23175   4.602   7.632  10.706
 7134SOL    HW123176   4.628   7.552  10.661
 7134SOL    HW223177   4.678   7.655  10.760
 7135SOL     OW23178   7.553  12.220  14.808
 7135SOL    HW123179   7.615  12.149  14.825
 7135SOL    HW223180   7.475  12.176  14.775
 7136SOL     OW23181   8.486   5.224  10.087
 7136SOL    HW123182   8.475   5.129  10.092
 7136SOL    HW223183   8.415   5.253  10.030
 7137SOL     OW23184   4.596   0.418  11.386
 7137SOL    HW123185   4.583   0.484  11.319
 7137SOL    HW223186   4.619   0.339  11.338
 7138SOL     OW23187   9.508   3.347   4.088
 7138SOL    HW123188   9.454   3.342   4.166
 7138SOL    HW223189   9.489   3.266   4.040
 7139SOL     OW23190   7.939  12.879   4.850
 7139SOL    HW123191   7.937  12.838   4.937
 7139SOL    HW223192   7.896  12.963   4.862
 7140SOL     OW23193   4.811  11.224   4.279
 7140SOL    HW123194   4.834  11.132   4.265
 7140SOL    HW223195   4.889  11.262   4.321
 7141SOL     OW23196   9.091  10.911  11.175
 7141SOL    HW123197   9.169  10.869  11.212
 7141SOL    HW223198   9.030  10.839  11.160
 7142SOL     OW23199   9.279   1.359  11.754
 7142SOL    HW123200   9.239   1.277  11.784
 7142SOL    HW223201   9.225   1.388  11.681
 7143SOL     OW23202   8.647   5.118   1.618
 7143SOL    HW123203   8.708   5.159   1.680
 7143SOL    HW223204   8.564   5.114   1.665
 7144SOL     OW23205  14.192   3.463  10.094
 7144SOL    HW123206  14.202   3.488  10.002
 7144SOL    HW223207  14.199   3.545  10.142
 7145SOL     OW23208   7.842   0.218   7.172
 7145SOL    HW123209   7.771   0.197   7.110
 7145SOL    HW223210   7.799   0.267   7.242
 7146SOL     OW23211  12.095  14.367   5.553
 7146SOL    HW123212  12.172  14.330   5.597
 7146SOL    HW223213  12.124  14.453   5.524
 7147SOL     OW23214  13.691   3.306   6.248
 7147SOL    HW123215  13.622   3.369   6.267
 7147SOL    HW223216  13.674   3.232   6.306
 7148SOL     OW23217   4.813   8.689   6.069
 7148SOL    HW123218   4.762   8.770   6.069
 7148SOL    HW223219   4.774   8.636   5.999
 7149SOL     OW23220   9.378  13.626   0.683
 7149SOL    HW123221   9.383  13.615   0.588
 7149SOL    HW223222   9.292  13.592   0.707
 7150SOL     OW23223   6.210  12.111   3.121
 7150SOL    HW123224   6.298  12.075   3.135
 7150SOL    HW223225   6.205  12.187   3.179
 7151SOL     OW23226   7.243  11.755   9.030
 7151SOL    HW123227   7.210  11.668   9.056
 7151SOL    HW223228   7.334  11.740   9.005
 7152SOL     OW23229   5.114   5.070   9.458
 7152SOL    HW123230   5.129   5.044   9.368
 7152SOL    HW223231   5.119   4.988   9.508
 7153SOL     OW23232   4.767   4.685  13.919
 7153SOL    HW123233   4.852   4.697  13.877
 7153SOL    HW223234   4.783   4.619  13.987
 7154SOL     OW23235   3.791   2.176   1.599
 7154SOL    HW123236   3.788   2.230   1.678
 7154SOL    HW223237   3.877   2.134   1.603
 7155SOL     OW23238  12.209  14.148   9.018
 7155SOL    HW123239  12.229  14.226   9.070
 7155SOL    HW223240  12.172  14.182   8.937
 7156SOL     OW23241  12.703  11.995   6.079
 7156SOL    HW123242  12.758  12.072   6.090
 7156SOL    HW223243  12.762  11.926   6.050
 7157SOL     OW23244  12.398  11.909   3.349
 7157SOL    HW123245  12.411  11.994   3.307
 7157SOL    HW223246  12.403  11.927   3.443
 7158SOL     OW23247   9.817   4.976   7.626
 7158SOL    HW123248   9.775   4.900   7.584
 7158SOL    HW223249   9.900   4.942   7.659
 7159SOL     OW23250   5.031   1.391  14.775
 7159SOL    HW123251   5.106   1.441  14.743
 7159SOL    HW223252   5.010   1.430  14.859
 7160SOL     OW23253  14.579   8.574  14.640
 7160SOL    HW123254  14.528   8.534  14.710
 7160SOL    HW223255  14.634   8.639  14.685
 7161SOL     OW23256   5.249  10.070   7.961
 7161SOL    HW123257   5.286  10.087   8.047
 7161SOL    HW223258   5.303   9.998   7.926
 7162SOL     OW23259   5.822  11.983  13.923
 7162SOL    HW123260   5.849  12.023  13.841
 7162SOL    HW223261   5.837  12.051  13.989
 7163SOL     OW23262   6.150  14.604   6.660
 7163SOL    HW123263   6.218  14.630   6.723
 7163SOL    HW223264   6.187  14.528   6.616
 7164SOL     OW23265   2.798   2.320   4.613
 7164SOL    HW123266   2.824   2.412   4.621
 7164SOL    HW223267   2.822   2.297   4.523
 7165SOL     OW23268   3.198  13.631   5.850
 7165SOL    HW123269   3.120  13.648   5.796
 7165SOL    HW223270   3.229  13.717   5.876
 7166SOL     OW23271   7.016  14.688   4.031
 7166SOL    HW123272   7.024  14.626   3.959
 7166SOL    HW223273   7.084  14.754   4.015
 7167SOL     OW23274  11.300   2.062   9.609
 7167SOL    HW123275  11.368   2.051   9.542
 7167SOL    HW223276  11.299   1.979   9.656
 7168SOL     OW23277  11.654   5.836  10.290
 7168SOL    HW123278  11.574   5.874  10.326
 7168SOL    HW223279  11.649   5.855  10.197
 7169SOL     OW23280   2.361  12.125   9.344
 7169SOL    HW123281   2.432  12.099   9.403
 7169SOL    HW223282   2.393  12.100   9.257
 7170SOL     OW23283  13.881   0.485   4.175
 7170SOL    HW123284  13.859   0.414   4.236
 7170SOL    HW223285  13.840   0.563   4.212
 7171SOL     OW23286  10.912   4.154   9.492
 7171SOL    HW123287  10.854   4.230   9.491
 7171SOL    HW223288  10.874   4.096   9.559
 7172SOL     OW23289   7.138   8.015  11.705
 7172SOL    HW123290   7.226   8.004  11.740
 7172SOL    HW223291   7.084   8.034  11.782
 7173SOL     OW23292   1.593   6.487  11.837
 7173SOL    HW123293   1.498   6.479  11.833
 7173SOL    HW223294   1.621   6.410  11.885
 7174SOL     OW23295  13.808  13.748   5.924
 7174SOL    HW123296  13.864  13.787   5.991
 7174SOL    HW223297  13.719  13.770   5.951
 7175SOL     OW23298  10.180   1.402   5.073
 7175SOL    HW123299  10.102   1.432   5.121
 7175SOL    HW223300  10.219   1.481   5.038
 7176SOL     OW23301   1.298   3.209   7.619
 7176SOL    HW123302   1.302   3.200   7.715
 7176SOL    HW223303   1.225   3.269   7.604
 7177SOL     OW23304  13.729   8.694  13.371
 7177SOL    HW123305  13.684   8.776  13.390
 7177SOL    HW223306  13.798   8.689  13.437
 7178SOL     OW23307  14.513   2.619  13.021
 7178SOL    HW123308  14.581   2.652  12.963
 7178SOL    HW223309  14.560   2.589  13.099
 7179SOL     OW23310  13.605   8.691  14.459
 7179SOL    HW123311  13.663   8.643  14.518
 7179SOL    HW223312  13.529   8.634  14.449
 7180SOL     OW23313   5.978   0.273   1.274
 7180SOL    HW123314   6.061   0.232   1.296
 7180SOL    HW223315   5.930   0.206   1.225
 7181SOL     OW23316   2.235   3.837   5.669
 7181SOL    HW123317   2.240   3.752   5.626
 7181SOL    HW223318   2.142   3.858   5.670
 7182SOL     OW23319   9.095   4.639  13.923
 7182SOL    HW123320   9.173   4.612  13.875
 7182SOL    HW223321   9.124   4.643  14.014
 7183SOL     OW23322   1.726   5.689   2.363
 7183SOL    HW123323   1.661   5.661   2.427
 7183SOL    HW223324   1.759   5.772   2.396
 7184SOL     OW23325   8.692   6.758   7.154
 7184SOL    HW123326   8.621   6.740   7.093
 7184SOL    HW223327   8.761   6.798   7.101
 7185SOL     OW23328  10.793   0.696   3.893
 7185SOL    HW123329  10.715   0.751   3.901
 7185SOL    HW223330  10.867   0.757   3.897
 7186SOL     OW23331  10.270  11.529   2.222
 7186SOL    HW123332  10.244  11.556   2.310
 7186SOL    HW223333  10.359  11.563   2.212
 7187SOL     OW23334   7.226   1.188  14.244
 7187SOL    HW123335   7.138   1.190  14.281
 7187SOL    HW223336   7.280   1.236  14.307
 7188SOL     OW23337   8.194   0.840  10.134
 7188SOL    HW123338   8.252   0.766  10.150
 7188SOL    HW223339   8.253   0.913  10.115
 7189SOL     OW23340   1.373   8.868   7.587
 7189SOL    HW123341   1.377   8.811   7.510
 7189SOL    HW223342   1.348   8.810   7.659
 7190SOL     OW23343   8.205   9.582   5.138
 7190SOL    HW123344   8.298   9.568   5.124
 7190SOL    HW223345   8.172   9.496   5.166
 7191SOL     OW23346  14.850   3.299   7.552
 7191SOL    HW123347  14.855   3.346   7.635
 7191SOL    HW223348  14.763   3.261   7.551
 7192SOL     OW23349  10.877   5.684   6.195
 7192SOL    HW123350  10.907   5.737   6.121
 7192SOL    HW223351  10.791   5.650   6.167
 7193SOL     OW23352   1.362   6.312   0.508
 7193SOL    HW123353   1.427   6.378   0.529
 7193SOL    HW223354   1.285   6.337   0.560
 7194SOL     OW23355  12.550   1.510   6.699
 7194SOL    HW123356  12.561   1.605   6.691
 7194SOL    HW223357  12.458   1.495   6.676
 7195SOL     OW23358   2.981   6.645  10.834
 7195SOL    HW123359   2.925   6.584  10.882
 7195SOL    HW223360   2.947   6.731  10.857
 7196SOL     OW23361   5.567  12.242  11.724
 7196SOL    HW123362   5.657  12.226  11.695
 7196SOL    HW223363   5.547  12.170  11.783
 7197SOL     OW23364  10.676  14.651   9.626
 7197SOL    HW123365  10.593  14.661   9.580
 7197SOL    HW223366  10.664  14.700   9.708
 7198SOL     OW23367  13.569   0.035  11.443
 7198SOL    HW123368  13.553  14.819  11.452
 7198SOL    HW223369  13.573   0.067  11.533
 7199SOL     OW23370   1.036  14.298   4.613
 7199SOL    HW123371   1.102  14.229   4.625
 7199SOL    HW223372   1.011  14.322   4.701
 7200SOL     OW23373   2.240   4.130   1.061
 7200SOL    HW123374   2.191   4.185   1.122
 7200SOL    HW223375   2.289   4.192   1.007
 7201SOL     OW23376  14.236   4.718   1.713
 7201SOL    HW123377  14.205   4.768   1.638
 7201SOL    HW223378  14.285   4.645   1.675
 7202SOL     OW23379   8.172   9.662  10.267
 7202SOL    HW123380   8.148   9.570  10.282
 7202SOL    HW223381   8.263   9.658  10.237
 7203SOL     OW23382   5.492   1.550   2.871
 7203SOL    HW123383   5.445   1.618   2.920
 7203SOL    HW223384   5.432   1.526   2.800
 7204SOL     OW23385  12.258  11.117   7.944
 7204SOL    HW123386  12.339  11.148   7.904
 7204SOL    HW223387  12.280  11.107   8.037
 7205SOL     OW23388   6.210   9.274   2.642
 7205SOL    HW123389   6.232   9.267   2.549
 7205SOL    HW223390   6.186   9.367   2.654
 7206SOL     OW23391  14.778  11.467   1.689
 7206SOL    HW123392  14.845  11.487   1.755
 7206SOL    HW223393  14.797  11.377   1.662
 7207SOL     OW23394   9.787   1.902   9.559
 7207SOL    HW123395   9.873   1.860   9.560
 7207SOL    HW223396   9.734   1.849   9.619
 7208SOL     OW23397   4.870   8.798   2.019
 7208SOL    HW123398   4.949   8.813   1.968
 7208SOL    HW223399   4.855   8.703   2.014
 7209SOL     OW23400   9.741  10.636  13.323
 7209SOL    HW123401   9.829  10.661  13.294
 7209SOL    HW223402   9.691  10.629  13.242
 7210SOL     OW23403  14.266   5.980   1.636
 7210SOL    HW123404  14.237   5.931   1.713
 7210SOL    HW223405  14.357   5.954   1.623
 7211SOL     OW23406   3.384   3.283  13.870
 7211SOL    HW123407   3.373   3.297  13.964
 7211SOL    HW223408   3.304   3.238  13.843
 7212SOL     OW23409  10.610   3.303  14.397
 7212SOL    HW123410  10.564   3.224  14.427
 7212SOL    HW223411  10.698   3.272  14.375
 7213SOL     OW23412   6.539  10.565   4.560
 7213SOL    HW123413   6.492  10.587   4.640
 7213SOL    HW223414   6.572  10.648   4.527
 7214SOL     OW23415   8.649   2.961  10.243
 7214SOL    HW123416   8.569   2.911  10.233
 7214SOL    HW223417   8.719   2.896  10.238
 7215SOL     OW23418   6.641  12.004   1.632
 7215SOL    HW123419   6.618  12.006   1.725
 7215SOL    HW223420   6.628  11.913   1.606
 7216SOL     OW23421   2.282   7.660   9.712
 7216SOL    HW123422   2.288   7.731   9.648
 7216SOL    HW223423   2.266   7.705   9.795
 7217SOL     OW23424   0.864  12.284   6.840
 7217SOL    HW123425   0.866  12.220   6.769
 7217SOL    HW223426   0.846  12.233   6.919
 7218SOL     OW23427  11.325   9.067   0.181
 7218SOL    HW123428  11.271   9.037   0.254
 7218SOL    HW223429  11.365   8.987   0.147
 7219SOL     OW23430   7.467   2.748   1.904
 7219SOL    HW123431   7.472   2.669   1.958
 7219SOL    HW223432   7.552   2.751   1.859
 7220SOL     OW23433  10.374   2.756   2.059
 7220SOL    HW123434  10.387   2.745   1.965
 7220SOL    HW223435  10.285   2.725   2.075
 7221SOL     OW23436   3.389   4.597  12.139
 7221SOL    HW123437   3.475   4.587  12.099
 7221SOL    HW223438   3.378   4.691  12.148
 7222SOL     OW23439   2.514   7.075   1.412
 7222SOL    HW123440   2.473   6.988   1.414
 7222SOL    HW223441   2.572   7.076   1.488
 7223SOL     OW23442   5.539  14.857   0.102
 7223SOL    HW123443   5.454   0.006   0.066
 7223SOL    HW223444   5.558   0.042   0.171
 7224SOL     OW23445   5.457   9.709  10.476
 7224SOL    HW123446   5.487   9.637  10.531
 7224SOL    HW223447   5.364   9.693  10.463
 7225SOL     OW23448   3.420   8.965   2.570
 7225SOL    HW123449   3.359   8.922   2.510
 7225SOL    HW223450   3.377   8.959   2.656
 7226SOL     OW23451   0.500   1.889   8.617
 7226SOL    HW123452   0.477   1.911   8.527
 7226SOL    HW223453   0.516   1.795   8.616
 7227SOL     OW23454  12.471   7.746   1.473
 7227SOL    HW123455  12.387   7.789   1.456
 7227SOL    HW223456  12.476   7.676   1.409
 7228SOL     OW23457   4.757   8.239  12.673
 7228SOL    HW123458   4.800   8.323  12.687
 7228SOL    HW223459   4.729   8.211  12.761
 7229SOL     OW23460  10.845   0.664   9.532
 7229SOL    HW123461  10.936   0.636   9.545
 7229SOL    HW223462  10.843   0.700   9.444
 7230SOL     OW23463   0.977  11.383  13.510
 7230SOL    HW123464   0.977  11.403  13.416
 7230SOL    HW223465   0.963  11.467  13.553
 7231SOL     OW23466  13.146  11.590   2.602
 7231SOL    HW123467  13.211  11.641   2.554
 7231SOL    HW223468  13.066  11.597   2.550
 7232SOL     OW23469   2.898   3.848   4.568
 7232SOL    HW123470   2.837   3.856   4.495
 7232SOL    HW223471   2.896   3.755   4.590
 7233SOL     OW23472   7.971   4.980   6.249
 7233SOL    HW123473   7.970   4.888   6.223
 7233SOL    HW223474   7.936   4.980   6.338
 7234SOL     OW23475  10.724  13.684   4.818
 7234SOL    HW123476  10.754  13.654   4.732
 7234SOL    HW223477  10.629  13.672   4.815
 7235SOL     OW23478   7.413   8.418   0.952
 7235SOL    HW123479   7.388   8.355   1.020
 7235SOL    HW223480   7.478   8.475   0.993
 7236SOL     OW23481   5.304   0.702   9.170
 7236SOL    HW123482   5.340   0.756   9.240
 7236SOL    HW223483   5.318   0.612   9.200
 7237SOL     OW23484   3.608  11.780   7.126
 7237SOL    HW123485   3.680  11.840   7.107
 7237SOL    HW223486   3.529  11.834   7.118
 7238SOL     OW23487   5.696   1.898  14.755
 7238SOL    HW123488   5.658   1.961  14.816
 7238SOL    HW223489   5.786   1.929  14.742
 7239SOL     OW23490   3.087   3.987   0.620
 7239SOL    HW123491   3.088   3.892   0.621
 7239SOL    HW223492   3.053   4.011   0.707
 7240SOL     OW23493   2.838   2.110   0.532
 7240SOL    HW123494   2.887   2.189   0.509
 7240SOL    HW223495   2.835   2.059   0.451
 7241SOL     OW23496   8.334   4.178   0.280
 7241SOL    HW123497   8.365   4.088   0.267
 7241SOL    HW223498   8.259   4.170   0.339
 7242SOL     OW23499   6.049   8.535   8.573
 7242SOL    HW123500   5.957   8.540   8.547
 7242SOL    HW223501   6.098   8.559   8.494
 7243SOL     OW23502  10.145  12.045   5.459
 7243SOL    HW123503  10.061  12.087   5.479
 7243SOL    HW223504  10.121  11.960   5.423
 7244SOL     OW23505   3.721  11.558   3.572
 7244SOL    HW123506   3.754  11.648   3.581
 7244SOL    HW223507   3.640  11.567   3.521
 7245SOL     OW23508   2.080   7.564   7.289
 7245SOL    HW123509   2.101   7.475   7.318
 7245SOL    HW223510   2.000   7.554   7.238
 7246SOL     OW23511   6.728  12.021  13.125
 7246SOL    HW123512   6.748  12.103  13.078
 7246SOL    HW223513   6.683  11.967  13.060
 7247SOL     OW23514   9.980  13.969   0.075
 7247SOL    HW123515   9.999  13.969   0.169
 7247SOL    HW223516   9.925  13.891   0.062
 7248SOL     OW23517   7.935   9.842   8.345
 7248SOL    HW123518   8.004   9.778   8.326
 7248SOL    HW223519   7.947   9.863   8.437
 7249SOL     OW23520   9.573  13.803   0.755
 7249SOL    HW123521   9.534  13.858   0.823
 7249SOL    HW223522   9.501  13.749   0.723
 7250SOL     OW23523   6.483   7.109  14.249
 7250SOL    HW123524   6.575   7.126  14.228
 7250SOL    HW223525   6.469   7.152  14.334
 7251SOL     OW23526   2.890  11.422   7.740
 7251SOL    HW123527   2.865  11.485   7.808
 7251SOL    HW223528   2.853  11.458   7.660
 7252SOL     OW23529  11.102   1.200   3.697
 7252SOL    HW123530  11.155   1.165   3.769
 7252SOL    HW223531  11.074   1.123   3.648
 7253SOL     OW23532  11.019   4.459   4.572
 7253SOL    HW123533  10.969   4.392   4.619
 7253SOL    HW223534  11.039   4.526   4.637
 7254SOL     OW23535   0.309   4.013  12.321
 7254SOL    HW123536   0.215   4.028  12.317
 7254SOL    HW223537   0.319   3.918  12.317
 7255SOL     OW23538   3.545   2.067   1.807
 7255SOL    HW123539   3.546   2.130   1.879
 7255SOL    HW223540   3.488   1.997   1.838
 7256SOL     OW23541   9.168   5.178   8.642
 7256SOL    HW123542   9.183   5.254   8.585
 7256SOL    HW223543   9.177   5.102   8.585
 7257SOL     OW23544   8.242   6.146  12.987
 7257SOL    HW123545   8.285   6.074  12.942
 7257SOL    HW223546   8.308   6.215  12.990
 7258SOL     OW23547  11.029   5.134   1.616
 7258SOL    HW123548  11.025   5.174   1.703
 7258SOL    HW223549  10.943   5.093   1.605
 7259SOL     OW23550  10.268   7.364  14.592
 7259SOL    HW123551  10.203   7.399  14.653
 7259SOL    HW223552  10.256   7.416  14.513
 7260SOL     OW23553  12.644   8.786   8.178
 7260SOL    HW123554  12.589   8.711   8.201
 7260SOL    HW223555  12.672   8.770   8.088
 7261SOL     OW23556  11.418  13.099   1.006
 7261SOL    HW123557  11.376  13.172   1.050
 7261SOL    HW223558  11.420  13.029   1.071
 7262SOL     OW23559   5.858   9.951   3.829
 7262SOL    HW123560   5.906  10.012   3.885
 7262SOL    HW223561   5.810   9.895   3.891
 7263SOL     OW23562   4.741   1.354   9.354
 7263SOL    HW123563   4.771   1.263   9.358
 7263SOL    HW223564   4.700   1.363   9.268
 7264SOL     OW23565   8.784   4.438  13.767
 7264SOL    HW123566   8.695   4.407  13.749
 7264SOL    HW223567   8.805   4.401  13.853
 7265SOL     OW23568   7.663   6.793   0.244
 7265SOL    HW123569   7.648   6.774   0.337
 7265SOL    HW223570   7.759   6.790   0.235
 7266SOL     OW23571   5.557   4.018  13.397
 7266SOL    HW123572   5.598   4.066  13.470
 7266SOL    HW223573   5.485   3.970  13.438
 7267SOL     OW23574   5.723   3.366   7.338
 7267SOL    HW123575   5.731   3.441   7.396
 7267SOL    HW223576   5.635   3.332   7.355
 7268SOL     OW23577   4.280  12.734   6.060
 7268SOL    HW123578   4.254  12.774   5.978
 7268SOL    HW223579   4.209  12.672   6.080
 7269SOL     OW23580  12.941   9.724  11.165
 7269SOL    HW123581  12.883   9.687  11.098
 7269SOL    HW223582  13.004   9.654  11.183
 7270SOL     OW23583   8.560  13.681   2.349
 7270SOL    HW123584   8.496  13.733   2.300
 7270SOL    HW223585   8.581  13.735   2.425
 7271SOL     OW23586   3.177   0.537  12.055
 7271SOL    HW123587   3.133   0.524  11.971
 7271SOL    HW223588   3.270   0.534  12.034
 7272SOL     OW23589   1.235   6.086   8.687
 7272SOL    HW123590   1.274   6.143   8.754
 7272SOL    HW223591   1.218   6.003   8.732
 7273SOL     OW23592   9.420  12.326   3.074
 7273SOL    HW123593   9.364  12.257   3.038
 7273SOL    HW223594   9.435  12.299   3.165
 7274SOL     OW23595  12.069   6.726  13.813
 7274SOL    HW123596  11.992   6.703  13.865
 7274SOL    HW223597  12.073   6.657  13.746
 7275SOL     OW23598   6.960   7.524   9.162
 7275SOL    HW123599   7.036   7.507   9.105
 7275SOL    HW223600   6.904   7.447   9.150
 7276SOL     OW23601   4.004   8.918   1.963
 7276SOL    HW123602   4.005   8.928   1.868
 7276SOL    HW223603   4.070   8.850   1.980
 7277SOL     OW23604  13.633   8.484   8.701
 7277SOL    HW123605  13.571   8.484   8.774
 7277SOL    HW223606  13.584   8.445   8.628
 7278SOL     OW23607   9.507  10.130   1.631
 7278SOL    HW123608   9.437  10.066   1.644
 7278SOL    HW223609   9.462  10.207   1.596
 7279SOL     OW23610  11.225  14.030  12.766
 7279SOL    HW123611  11.241  13.984  12.848
 7279SOL    HW223612  11.305  14.080  12.751
 7280SOL     OW23613   9.060   7.128  10.614
 7280SOL    HW123614   9.046   7.178  10.695
 7280SOL    HW223615   9.135   7.171  10.573
 7281SOL     OW23616   3.406   4.684  13.993
 7281SOL    HW123617   3.452   4.756  13.950
 7281SOL    HW223618   3.328   4.723  14.030
 7282SOL     OW23619   0.215   9.174   7.531
 7282SOL    HW123620   0.132   9.157   7.486
 7282SOL    HW223621   0.209   9.123   7.612
 7283SOL     OW23622   7.422   1.498   7.721
 7283SOL    HW123623   7.462   1.489   7.635
 7283SOL    HW223624   7.395   1.409   7.745
 7284SOL     OW23625   3.362   4.806   8.452
 7284SOL    HW123626   3.451   4.779   8.475
 7284SOL    HW223627   3.374   4.890   8.408
 7285SOL     OW23628  11.790  12.550   6.766
 7285SOL    HW123629  11.710  12.558   6.818
 7285SOL    HW223630  11.856  12.599   6.816
 7286SOL     OW23631  10.270   9.747  10.806
 7286SOL    HW123632  10.320   9.676  10.766
 7286SOL    HW223633  10.179   9.721  10.796
 7287SOL     OW23634   6.524  14.008   5.541
 7287SOL    HW123635   6.478  13.925   5.540
 7287SOL    HW223636   6.555  14.017   5.632
 7288SOL     OW23637  10.195   2.231   9.961
 7288SOL    HW123638  10.144   2.178   9.900
 7288SOL    HW223639  10.196   2.181  10.042
 7289SOL     OW23640   9.487   7.122   2.358
 7289SOL    HW123641   9.445   7.207   2.371
 7289SOL    HW223642   9.537   7.108   2.438
 7290SOL     OW23643   8.803   2.805   9.064
 7290SOL    HW123644   8.820   2.712   9.080
 7290SOL    HW223645   8.793   2.811   8.969
 7291SOL     OW23646  13.585  12.875   2.197
 7291SOL    HW123647  13.632  12.913   2.271
 7291SOL    HW223648  13.630  12.793   2.180
 7292SOL     OW23649   7.557   8.758   3.711
 7292SOL    HW123650   7.517   8.724   3.630
 7292SOL    HW223651   7.482   8.783   3.766
 7293SOL     OW23652  12.432   4.273  10.869
 7293SOL    HW123653  12.405   4.237  10.954
 7293SOL    HW223654  12.486   4.349  10.892
 7294SOL     OW23655   8.422   6.615   3.437
 7294SOL    HW123656   8.509   6.610   3.477
 7294SOL    HW223657   8.426   6.694   3.382
 7295SOL     OW23658   6.067  11.707   0.210
 7295SOL    HW123659   6.019  11.784   0.242
 7295SOL    HW223660   6.003  11.659   0.157
 7296SOL     OW23661   1.635  13.802  10.468
 7296SOL    HW123662   1.715  13.791  10.417
 7296SOL    HW223663   1.566  13.765  10.412
 7297SOL     OW23664  10.617   0.627  11.818
 7297SOL    HW123665  10.633   0.555  11.878
 7297SOL    HW223666  10.700   0.639  11.772
 7298SOL     OW23667   6.963  12.817  14.228
 7298SOL    HW123668   6.907  12.748  14.193
 7298SOL    HW223669   6.999  12.781  14.309
 7299SOL     OW23670  13.069   1.356   1.003
 7299SOL    HW123671  13.160   1.362   1.032
 7299SOL    HW223672  13.058   1.427   0.940
 7300SOL     OW23673  13.778  14.375  10.033
 7300SOL    HW123674  13.738  14.318   9.966
 7300SOL    HW223675  13.750  14.463  10.009
 7301SOL     OW23676   5.375   5.019  12.970
 7301SOL    HW123677   5.393   4.967  13.048
 7301SOL    HW223678   5.450   5.003  12.913
 7302SOL     OW23679   9.367   7.622   7.757
 7302SOL    HW123680   9.411   7.663   7.831
 7302SOL    HW223681   9.299   7.684   7.731
 7303SOL     OW23682   8.438   6.778  11.555
 7303SOL    HW123683   8.398   6.864  11.555
 7303SOL    HW223684   8.417   6.742  11.469
 7304SOL     OW23685   4.858   7.754   0.610
 7304SOL    HW123686   4.844   7.781   0.519
 7304SOL    HW223687   4.851   7.659   0.608
 7305SOL     OW23688   1.887  11.694  11.526
 7305SOL    HW123689   1.849  11.743  11.599
 7305SOL    HW223690   1.854  11.605  11.537
 7306SOL     OW23691   5.869   7.311   8.737
 7306SOL    HW123692   5.846   7.404   8.728
 7306SOL    HW223693   5.954   7.310   8.779
 7307SOL     OW23694  14.864   3.821   7.433
 7307SOL    HW123695   0.053   3.785   7.491
 7307SOL    HW223696   0.031   3.890   7.384
 7308SOL     OW23697   1.011   3.215   1.568
 7308SOL    HW123698   1.095   3.169   1.568
 7308SOL    HW223699   0.992   3.232   1.476
 7309SOL     OW23700   6.053   2.207   2.372
 7309SOL    HW123701   6.068   2.113   2.361
 7309SOL    HW223702   5.971   2.213   2.421
 7310SOL     OW23703  13.854   8.243  10.230
 7310SOL    HW123704  13.908   8.222  10.154
 7310SOL    HW223705  13.915   8.243  10.303
 7311SOL     OW23706  10.403   6.424   0.201
 7311SOL    HW123707  10.475   6.366   0.222
 7311SOL    HW223708  10.437   6.512   0.219
 7312SOL     OW23709  14.250  12.042   5.431
 7312SOL    HW123710  14.241  12.097   5.353
 7312SOL    HW223711  14.208  11.959   5.408
 7313SOL     OW23712  14.438   2.216   4.985
 7313SOL    HW123713  14.372   2.277   4.950
 7313SOL    HW223714  14.388   2.138   5.009
 7314SOL     OW23715   9.225   4.798  12.433
 7314SOL    HW123716   9.153   4.852  12.467
 7314SOL    HW223717   9.190   4.709  12.432
 7315SOL     OW23718  14.290  11.022  10.475
 7315SOL    HW123719  14.293  10.946  10.533
 7315SOL    HW223720  14.278  10.985  10.388
 7316SOL     OW23721  12.461   3.755  13.310
 7316SOL    HW123722  12.401   3.727  13.379
 7316SOL    HW223723  12.530   3.689  13.311
 7317SOL     OW23724   7.599  12.703   4.104
 7317SOL    HW123725   7.639  12.777   4.150
 7317SOL    HW223726   7.610  12.724   4.011
 7318SOL     OW23727   0.902  14.782   2.751
 7318SOL    HW123728   0.987  14.756   2.715
 7318SOL    HW223729   0.846  14.795   2.675
 7319SOL     OW23730   6.065  13.335  13.518
 7319SOL    HW123731   5.999  13.268  13.501
 7319SOL    HW223732   6.054  13.398  13.447
 7320SOL     OW23733  14.445   8.742   4.164
 7320SOL    HW123734  14.427   8.661   4.117
 7320SOL    HW223735  14.480   8.714   4.249
 7321SOL     OW23736   5.897   3.977  13.654
 7321SOL    HW123737   5.927   3.993  13.744
 7321SOL    HW223738   5.818   4.030  13.645
 7322SOL     OW23739   5.685   6.734  10.683
 7322SOL    HW123740   5.649   6.817  10.713
 7322SOL    HW223741   5.771   6.729  10.725
 7323SOL     OW23742   3.495   0.100   1.577
 7323SOL    HW123743   3.426   0.060   1.630
 7323SOL    HW223744   3.542   0.026   1.539
 7324SOL     OW23745   8.985   3.337  13.933
 7324SOL    HW123746   8.961   3.341  13.840
 7324SOL    HW223747   8.934   3.263  13.967
 7325SOL     OW23748  11.494   5.385   2.432
 7325SOL    HW123749  11.571   5.419   2.478
 7325SOL    HW223750  11.451   5.463   2.396
 7326SOL     OW23751   3.171   9.258   5.169
 7326SOL    HW123752   3.231   9.329   5.192
 7326SOL    HW223753   3.186   9.244   5.075
 7327SOL     OW23754   3.870  11.385   9.017
 7327SOL    HW123755   3.880  11.469   8.972
 7327SOL    HW223756   3.779  11.359   8.999
 7328SOL     OW23757  12.033   4.568  13.998
 7328SOL    HW123758  12.108   4.620  14.027
 7328SOL    HW223759  12.071   4.500  13.942
 7329SOL     OW23760   2.257   9.096   8.329
 7329SOL    HW123761   2.235   9.003   8.335
 7329SOL    HW223762   2.232   9.133   8.414
 7330SOL     OW23763   8.231   5.914  10.490
 7330SOL    HW123764   8.317   5.952  10.471
 7330SOL    HW223765   8.178   5.989  10.519
 7331SOL     OW23766   3.954   6.189   1.308
 7331SOL    HW123767   3.912   6.108   1.281
 7331SOL    HW223768   3.953   6.186   1.404
 7332SOL     OW23769   0.213   6.575  11.549
 7332SOL    HW123770   0.231   6.564  11.642
 7332SOL    HW223771   0.286   6.627  11.516
 7333SOL     OW23772   6.076   3.526  11.241
 7333SOL    HW123773   6.110   3.549  11.155
 7333SOL    HW223774   6.094   3.432  11.250
 7334SOL     OW23775   5.800   5.845   1.095
 7334SOL    HW123776   5.764   5.901   1.163
 7334SOL    HW223777   5.895   5.851   1.106
 7335SOL     OW23778   7.752  11.531   9.319
 7335SOL    HW123779   7.693  11.587   9.369
 7335SOL    HW223780   7.737  11.443   9.353
 7336SOL     OW23781  10.165  13.006  11.851
 7336SOL    HW123782  10.170  12.994  11.756
 7336SOL    HW223783  10.150  13.100  11.862
 7337SOL     OW23784  14.682   6.073   0.923
 7337SOL    HW123785  14.611   6.133   0.944
 7337SOL    HW223786  14.738   6.123   0.864
 7338SOL     OW23787   4.133   1.633   8.660
 7338SOL    HW123788   4.081   1.694   8.608
 7338SOL    HW223789   4.084   1.551   8.660
 7339SOL     OW23790  12.267   4.098   4.673
 7339SOL    HW123791  12.283   4.172   4.730
 7339SOL    HW223792  12.176   4.109   4.644
 7340SOL     OW23793   7.284   6.308   3.308
 7340SOL    HW123794   7.321   6.315   3.220
 7340SOL    HW223795   7.206   6.364   3.306
 7341SOL     OW23796  10.588  14.426   9.072
 7341SOL    HW123797  10.517  14.373   9.108
 7341SOL    HW223798  10.565  14.516   9.095
 7342SOL     OW23799   6.796   7.195   7.932
 7342SOL    HW123800   6.878   7.225   7.894
 7342SOL    HW223801   6.755   7.275   7.965
 7343SOL     OW23802   5.797  13.394  13.094
 7343SOL    HW123803   5.806  13.299  13.099
 7343SOL    HW223804   5.885  13.424  13.069
 7344SOL     OW23805   0.230   9.297   8.719
 7344SOL    HW123806   0.280   9.220   8.745
 7344SOL    HW223807   0.260   9.317   8.630
 7345SOL     OW23808   8.569   4.144  11.687
 7345SOL    HW123809   8.642   4.126  11.745
 7345SOL    HW223810   8.509   4.196  11.741
 7346SOL     OW23811   4.941   8.019   4.322
 7346SOL    HW123812   5.029   8.055   4.315
 7346SOL    HW223813   4.907   8.023   4.233
 7347SOL     OW23814   8.691   4.208   8.173
 7347SOL    HW123815   8.757   4.143   8.150
 7347SOL    HW223816   8.607   4.161   8.164
 7348SOL     OW23817   4.668   3.163   9.692
 7348SOL    HW123818   4.676   3.148   9.786
 7348SOL    HW223819   4.710   3.248   9.678
 7349SOL     OW23820   2.584  11.844   9.456
 7349SOL    HW123821   2.635  11.763   9.459
 7349SOL    HW223822   2.649  11.913   9.470
 7350SOL     OW23823   4.224   9.580   0.500
 7350SOL    HW123824   4.189   9.548   0.583
 7350SOL    HW223825   4.295   9.639   0.525
 7351SOL     OW23826   2.446   0.259  11.443
 7351SOL    HW123827   2.452   0.171  11.407
 7351SOL    HW223828   2.530   0.300  11.421
 7352SOL     OW23829   1.770   9.966   0.027
 7352SOL    HW123830   1.784  10.030   0.096
 7352SOL    HW223831   1.855   9.925   0.014
 7353SOL     OW23832   7.369   3.049  11.257
 7353SOL    HW123833   7.331   3.129  11.220
 7353SOL    HW223834   7.308   2.980  11.233
 7354SOL     OW23835  14.283   8.777   8.411
 7354SOL    HW123836  14.296   8.865   8.447
 7354SOL    HW223837  14.214   8.739   8.465
 7355SOL     OW23838   3.635   2.137   7.309
 7355SOL    HW123839   3.654   2.044   7.313
 7355SOL    HW223840   3.561   2.144   7.250
 7356SOL     OW23841   5.579  11.240   7.703
 7356SOL    HW123842   5.499  11.189   7.690
 7356SOL    HW223843   5.572  11.311   7.638
 7357SOL     OW23844   7.583   0.032  12.277
 7357SOL    HW123845   7.579   0.098  12.207
 7357SOL    HW223846   7.670   0.043  12.315
 7358SOL     OW23847   1.350  10.549  11.946
 7358SOL    HW123848   1.403  10.604  11.889
 7358SOL    HW223849   1.395  10.464  11.947
 7359SOL     OW23850  11.446   4.457   6.406
 7359SOL    HW123851  11.464   4.371   6.444
 7359SOL    HW223852  11.358   4.448   6.369
 7360SOL     OW23853  10.807   5.679  13.668
 7360SOL    HW123854  10.749   5.754  13.680
 7360SOL    HW223855  10.864   5.705  13.595
 7361SOL     OW23856   3.767   6.311   7.106
 7361SOL    HW123857   3.745   6.325   7.013
 7361SOL    HW223858   3.852   6.354   7.117
 7362SOL     OW23859  13.703  12.972  14.351
 7362SOL    HW123860  13.630  13.032  14.337
 7362SOL    HW223861  13.663  12.896  14.395
 7363SOL     OW23862   2.002   4.997   8.468
 7363SOL    HW123863   1.906   4.997   8.475
 7363SOL    HW223864   2.032   4.997   8.559
 7364SOL     OW23865   2.756  10.728  12.792
 7364SOL    HW123866   2.732  10.658  12.732
 7364SOL    HW223867   2.804  10.684  12.863
 7365SOL     OW23868   3.532  10.281  12.385
 7365SOL    HW123869   3.451  10.265  12.337
 7365SOL    HW223870   3.511  10.259  12.476
 7366SOL     OW23871   9.861  14.004   7.936
 7366SOL    HW123872   9.883  14.097   7.930
 7366SOL    HW223873   9.779  14.002   7.985
 7367SOL     OW23874   6.306   4.284  13.386
 7367SOL    HW123875   6.294   4.303  13.479
 7367SOL    HW223876   6.295   4.189  13.379
 7368SOL     OW23877   6.914   7.489   9.757
 7368SOL    HW123878   6.915   7.529   9.843
 7368SOL    HW223879   7.006   7.466   9.740
 7369SOL     OW23880   1.426   7.251   2.005
 7369SOL    HW123881   1.425   7.278   2.097
 7369SOL    HW223882   1.377   7.319   1.959
 7370SOL     OW23883  10.339   2.269   8.876
 7370SOL    HW123884  10.257   2.319   8.864
 7370SOL    HW223885  10.324   2.187   8.829
 7371SOL     OW23886   4.122   6.984  10.773
 7371SOL    HW123887   4.032   7.010  10.792
 7371SOL    HW223888   4.123   6.967  10.679
 7372SOL     OW23889   2.109   2.230   7.638
 7372SOL    HW123890   2.166   2.307   7.643
 7372SOL    HW223891   2.022   2.263   7.658
 7373SOL     OW23892   4.855  14.289   1.648
 7373SOL    HW123893   4.818  14.377   1.645
 7373SOL    HW223894   4.869  14.272   1.742
 7374SOL     OW23895   7.527   2.654  14.506
 7374SOL    HW123896   7.433   2.668  14.490
 7374SOL    HW223897   7.529   2.584  14.572
 7375SOL     OW23898   4.376  11.559   4.557
 7375SOL    HW123899   4.425  11.479   4.574
 7375SOL    HW223900   4.304  11.558   4.619
 7376SOL     OW23901   6.378   5.068   0.596
 7376SOL    HW123902   6.350   5.131   0.529
 7376SOL    HW223903   6.472   5.085   0.608
 7377SOL     OW23904   6.719  14.185   6.823
 7377SOL    HW123905   6.642  14.131   6.806
 7377SOL    HW223906   6.778  14.167   6.750
 7378SOL     OW23907   6.956  11.737  14.096
 7378SOL    HW123908   6.902  11.689  14.034
 7378SOL    HW223909   7.040  11.749  14.051
 7379SOL     OW23910   4.397  13.858   7.397
 7379SOL    HW123911   4.340  13.883   7.470
 7379SOL    HW223912   4.485  13.878   7.428
 7380SOL     OW23913   5.301   0.278   7.875
 7380SOL    HW123914   5.264   0.342   7.815
 7380SOL    HW223915   5.381   0.319   7.908
 7381SOL     OW23916  13.502   7.121   9.889
 7381SOL    HW123917  13.472   7.030   9.892
 7381SOL    HW223918  13.523   7.143   9.980
 7382SOL     OW23919   6.409   9.178  13.025
 7382SOL    HW123920   6.447   9.090  13.028
 7382SOL    HW223921   6.433   9.211  12.938
 7383SOL     OW23922   8.733  13.753  13.037
 7383SOL    HW123923   8.780  13.718  12.962
 7383SOL    HW223924   8.761  13.699  13.111
 7384SOL     OW23925  11.013   1.645   1.871
 7384SOL    HW123926  11.086   1.682   1.822
 7384SOL    HW223927  11.054   1.609   1.951
 7385SOL     OW23928  10.956   0.035   4.398
 7385SOL    HW123929  10.935  14.838   4.342
 7385SOL    HW223930  11.015  14.877   4.464
 7386SOL     OW23931   8.137   9.095   5.223
 7386SOL    HW123932   8.047   9.073   5.248
 7386SOL    HW223933   8.191   9.029   5.266
 7387SOL     OW23934  10.666   4.908   9.727
 7387SOL    HW123935  10.610   4.919   9.650
 7387SOL    HW223936  10.606   4.916   9.802
 7388SOL     OW23937  10.506  11.440  10.042
 7388SOL    HW123938  10.476  11.471  10.128
 7388SOL    HW223939  10.560  11.512  10.009
 7389SOL     OW23940  10.092  12.356  13.923
 7389SOL    HW123941  10.015  12.337  13.978
 7389SOL    HW223942  10.056  12.373  13.836
 7390SOL     OW23943   7.247  11.589   4.164
 7390SOL    HW123944   7.193  11.521   4.205
 7390SOL    HW223945   7.216  11.671   4.202
 7391SOL     OW23946   7.258   2.194  11.026
 7391SOL    HW123947   7.303   2.122  10.982
 7391SOL    HW223948   7.328   2.240  11.074
 7392SOL     OW23949   5.701   0.168   2.906
 7392SOL    HW123950   5.669   0.170   2.996
 7392SOL    HW223951   5.702   0.075   2.883
 7393SOL     OW23952   4.349   9.329   7.524
 7393SOL    HW123953   4.389   9.321   7.437
 7393SOL    HW223954   4.256   9.317   7.508
 7394SOL     OW23955  12.864  14.867   3.047
 7394SOL    HW123956  12.852   0.075   3.087
 7394SOL    HW223957  12.902   0.008   2.961
 7395SOL     OW23958   5.502   8.273   6.090
 7395SOL    HW123959   5.504   8.191   6.040
 7395SOL    HW223960   5.442   8.255   6.162
 7396SOL     OW23961  14.807   4.535   0.892
 7396SOL    HW123962  14.840   4.446   0.904
 7396SOL    HW223963   0.007   4.587   0.871
 7397SOL     OW23964   8.155   2.873   0.103
 7397SOL    HW123965   8.158   2.798   0.162
 7397SOL    HW223966   8.069   2.911   0.117
 7398SOL     OW23967   9.147  14.026   4.921
 7398SOL    HW123968   9.059  14.060   4.902
 7398SOL    HW223969   9.136  13.931   4.920
 7399SOL     OW23970  14.796  13.883  10.727
 7399SOL    HW123971  14.831  13.928  10.804
 7399SOL    HW223972  14.772  13.954  10.668
 7400SOL     OW23973  13.745   7.847   9.108
 7400SOL    HW123974  13.655   7.844   9.139
 7400SOL    HW223975  13.747   7.792   9.030
 7401SOL     OW23976   3.070  10.050  11.412
 7401SOL    HW123977   3.098   9.995  11.485
 7401SOL    HW223978   3.058  10.137  11.452
 7402SOL     OW23979   3.032  10.877   5.714
 7402SOL    HW123980   3.005  10.834   5.633
 7402SOL    HW223981   3.121  10.908   5.696
 7403SOL     OW23982   4.160  12.346  12.091
 7403SOL    HW123983   4.068  12.331  12.070
 7403SOL    HW223984   4.207  12.275  12.048
 7404SOL     OW23985  13.962   2.949  12.324
 7404SOL    HW123986  13.903   2.943  12.248
 7404SOL    HW223987  14.026   2.879  12.310
 7405SOL     OW23988   5.398   7.015   5.658
 7405SOL    HW123989   5.472   7.023   5.718
 7405SOL    HW223990   5.371   7.105   5.640
 7406SOL     OW23991  12.841   9.528   4.824
 7406SOL    HW123992  12.808   9.442   4.852
 7406SOL    HW223993  12.908   9.508   4.759
 7407SOL     OW23994   1.704  12.850   4.904
 7407SOL    HW123995   1.617  12.816   4.885
 7407SOL    HW223996   1.729  12.809   4.987
 7408SOL     OW23997  11.329  14.467   2.443
 7408SOL    HW123998  11.234  14.461   2.458
 7408SOL    HW223999  11.342  14.554   2.406
 7409SOL     OW24000   8.222  14.529  11.804
 7409SOL    HW124001   8.176  14.486  11.877
 7409SOL    HW224002   8.270  14.601  11.846
 7410SOL     OW24003   1.222   2.612  12.539
 7410SOL    HW124004   1.158   2.679  12.563
 7410SOL    HW224005   1.280   2.656  12.476
 7411SOL     OW24006   1.107  10.631   2.446
 7411SOL    HW124007   1.107  10.680   2.363
 7411SOL    HW224008   1.126  10.697   2.513
 7412SOL     OW24009  12.976   5.540  14.732
 7412SOL    HW124010  12.925   5.596  14.674
 7412SOL    HW224011  12.926   5.458  14.735
 7413SOL     OW24012   5.951   8.377   0.811
 7413SOL    HW124013   5.976   8.467   0.832
 7413SOL    HW224014   5.952   8.374   0.715
 7414SOL     OW24015  10.852   8.625  14.104
 7414SOL    HW124016  10.890   8.628  14.016
 7414SOL    HW224017  10.765   8.588  14.091
 7415SOL     OW24018   0.819   6.020   4.219
 7415SOL    HW124019   0.897   5.985   4.261
 7415SOL    HW224020   0.852   6.081   4.153
 7416SOL     OW24021   6.618   1.676  14.047
 7416SOL    HW124022   6.527   1.665  14.075
 7416SOL    HW224023   6.620   1.763  14.006
 7417SOL     OW24024   7.951  14.212   9.320
 7417SOL    HW124025   7.931  14.305   9.323
 7417SOL    HW224026   7.960  14.186   9.411
 7418SOL     OW24027   0.603   6.275   5.972
 7418SOL    HW124028   0.674   6.258   6.034
 7418SOL    HW224029   0.647   6.306   5.893
 7419SOL     OW24030   4.942   2.919   2.329
 7419SOL    HW124031   4.983   3.006   2.325
 7419SOL    HW224032   4.869   2.930   2.390
 7420SOL     OW24033   5.970   3.035  13.718
 7420SOL    HW124034   5.968   3.026  13.623
 7420SOL    HW224035   5.985   2.946  13.750
 7421SOL     OW24036  13.863  10.093  11.300
 7421SOL    HW124037  13.820  10.168  11.261
 7421SOL    HW224038  13.868  10.113  11.393
 7422SOL     OW24039   8.827  14.573   1.284
 7422SOL    HW124040   8.754  14.537   1.336
 7422SOL    HW224041   8.797  14.660   1.258
 7423SOL     OW24042   5.677  14.646   9.405
 7423SOL    HW124043   5.595  14.639   9.455
 7423SOL    HW224044   5.666  14.582   9.334
 7424SOL     OW24045   4.293   1.407  12.020
 7424SOL    HW124046   4.206   1.368  12.029
 7424SOL    HW224047   4.323   1.380  11.934
 7425SOL     OW24048   1.473   3.408   7.186
 7425SOL    HW124049   1.414   3.437   7.117
 7425SOL    HW224050   1.508   3.324   7.154
 7426SOL     OW24051   4.473  12.029   2.632
 7426SOL    HW124052   4.478  11.936   2.610
 7426SOL    HW224053   4.550  12.068   2.591
 7427SOL     OW24054   9.920   6.666   7.524
 7427SOL    HW124055   9.877   6.609   7.460
 7427SOL    HW224056   9.879   6.751   7.512
 7428SOL     OW24057  11.858   8.090   5.639
 7428SOL    HW124058  11.881   8.063   5.550
 7428SOL    HW224059  11.901   8.175   5.651
 7429SOL     OW24060   0.914   9.365   6.652
 7429SOL    HW124061   0.894   9.458   6.648
 7429SOL    HW224062   0.930   9.347   6.745
 7430SOL     OW24063  10.640  13.058   0.522
 7430SOL    HW124064  10.566  13.032   0.577
 7430SOL    HW224065  10.708  13.084   0.585
 7431SOL     OW24066  10.070  10.101  11.997
 7431SOL    HW124067  10.021  10.117  12.078
 7431SOL    HW224068  10.136  10.171  11.996
 7432SOL     OW24069   7.056   9.588   9.607
 7432SOL    HW124070   7.105   9.639   9.541
 7432SOL    HW224071   7.052   9.500   9.570
 7433SOL     OW24072   9.561   1.959   2.340
 7433SOL    HW124073   9.626   1.895   2.369
 7433SOL    HW224074   9.492   1.954   2.406
 7434SOL     OW24075   3.505   2.814  12.202
 7434SOL    HW124076   3.539   2.894  12.244
 7434SOL    HW224077   3.540   2.817  12.114
 7435SOL     OW24078  12.678   3.200   0.183
 7435SOL    HW124079  12.625   3.265   0.136
 7435SOL    HW224080  12.728   3.156   0.115
 7436SOL     OW24081   1.403   3.864   8.164
 7436SOL    HW124082   1.331   3.871   8.227
 7436SOL    HW224083   1.478   3.836   8.215
 7437SOL     OW24084   2.350   8.014  13.887
 7437SOL    HW124085   2.408   8.009  13.963
 7437SOL    HW224086   2.378   7.940  13.832
 7438SOL     OW24087  13.717  10.583   7.112
 7438SOL    HW124088  13.805  10.549   7.125
 7438SOL    HW224089  13.727  10.651   7.046
 7439SOL     OW24090   1.785   7.981   2.920
 7439SOL    HW124091   1.815   8.071   2.912
 7439SOL    HW224092   1.864   7.928   2.919
 7440SOL     OW24093   8.721  13.574  12.056
 7440SOL    HW124094   8.770  13.570  11.974
 7440SOL    HW224095   8.738  13.490  12.098
 7441SOL     OW24096   4.026   9.625   7.420
 7441SOL    HW124097   3.946   9.647   7.372
 7441SOL    HW224098   4.021   9.530   7.433
 7442SOL     OW24099  12.897  14.758   9.310
 7442SOL    HW124100  12.926  14.849   9.315
 7442SOL    HW224101  12.816  14.756   9.361
 7443SOL     OW24102  10.384   0.192   0.828
 7443SOL    HW124103  10.436   0.261   0.787
 7443SOL    HW224104  10.356   0.137   0.755
 7444SOL     OW24105  11.717   5.179  11.605
 7444SOL    HW124106  11.669   5.167  11.523
 7444SOL    HW224107  11.652   5.160  11.673
 7445SOL     OW24108   6.134   0.721   2.497
 7445SOL    HW124109   6.048   0.691   2.466
 7445SOL    HW224110   6.142   0.810   2.462
 7446SOL     OW24111   5.895   3.575   8.982
 7446SOL    HW124112   5.837   3.647   8.957
 7446SOL    HW224113   5.837   3.507   9.014
 7447SOL     OW24114  14.186   7.968  14.327
 7447SOL    HW124115  14.136   8.041  14.364
 7447SOL    HW224116  14.223   8.003  14.245
 7448SOL     OW24117   1.439   4.835  10.613
 7448SOL    HW124118   1.491   4.853  10.535
 7448SOL    HW224119   1.351   4.863  10.591
 7449SOL     OW24120  13.575  12.383   5.335
 7449SOL    HW124121  13.624  12.442   5.392
 7449SOL    HW224122  13.506  12.437   5.298
 7450SOL     OW24123  12.196   6.669   0.544
 7450SOL    HW124124  12.150   6.750   0.524
 7450SOL    HW224125  12.281   6.698   0.579
 7451SOL     OW24126   5.230   8.602   5.650
 7451SOL    HW124127   5.318   8.589   5.684
 7451SOL    HW224128   5.190   8.664   5.711
 7452SOL     OW24129   8.850   3.728  10.463
 7452SOL    HW124130   8.779   3.776  10.420
 7452SOL    HW224131   8.927   3.746  10.410
 7453SOL     OW24132   4.419  13.389   1.722
 7453SOL    HW124133   4.382  13.456   1.780
 7453SOL    HW224134   4.394  13.417   1.634
 7454SOL     OW24135  12.267   0.358   3.819
 7454SOL    HW124136  12.180   0.397   3.807
 7454SOL    HW224137  12.320   0.397   3.749
 7455SOL     OW24138   9.701  12.069   8.533
 7455SOL    HW124139   9.651  12.135   8.582
 7455SOL    HW224140   9.770  12.120   8.490
 7456SOL     OW24141   2.931  10.324   0.203
 7456SOL    HW124142   2.874  10.386   0.248
 7456SOL    HW224143   2.932  10.247   0.259
 7457SOL     OW24144   1.968   8.363  12.289
 7457SOL    HW124145   1.930   8.433  12.342
 7457SOL    HW224146   1.918   8.365  12.207
 7458SOL     OW24147   0.659   7.076  11.099
 7458SOL    HW124148   0.571   7.068  11.062
 7458SOL    HW224149   0.695   7.154  11.056
 7459SOL     OW24150   2.018   7.746  11.593
 7459SOL    HW124151   1.977   7.821  11.636
 7459SOL    HW224152   1.957   7.674  11.607
 7460SOL     OW24153   2.350  11.209   9.929
 7460SOL    HW124154   2.393  11.218  10.014
 7460SOL    HW224155   2.270  11.160   9.948
 7461SOL     OW24156   6.136   9.448  10.188
 7461SOL    HW124157   6.061   9.396  10.216
 7461SOL    HW224158   6.209   9.415  10.240
 7462SOL     OW24159  10.299   5.625   6.358
 7462SOL    HW124160  10.258   5.709   6.340
 7462SOL    HW224161  10.238   5.580   6.416
 7463SOL     OW24162  12.368   2.183   2.319
 7463SOL    HW124163  12.275   2.206   2.319
 7463SOL    HW224164  12.412   2.262   2.350
 7464SOL     OW24165  12.408   9.879   5.514
 7464SOL    HW124166  12.458   9.960   5.523
 7464SOL    HW224167  12.474   9.810   5.522
 7465SOL     OW24168   7.226   3.934  10.651
 7465SOL    HW124169   7.171   3.982  10.713
 7465SOL    HW224170   7.176   3.934  10.569
 7466SOL     OW24171   7.783   2.605   3.453
 7466SOL    HW124172   7.780   2.689   3.499
 7466SOL    HW224173   7.779   2.540   3.523
 7467SOL     OW24174   2.361   1.272  13.341
 7467SOL    HW124175   2.395   1.358  13.367
 7467SOL    HW224176   2.437   1.226  13.305
 7468SOL     OW24177   9.360  13.166  10.312
 7468SOL    HW124178   9.287  13.117  10.350
 7468SOL    HW224179   9.418  13.183  10.385
 7469SOL     OW24180   8.697   7.929   8.898
 7469SOL    HW124181   8.788   7.955   8.887
 7469SOL    HW224182   8.694   7.886   8.984
 7470SOL     OW24183   9.017   1.490  12.912
 7470SOL    HW124184   9.100   1.537  12.919
 7470SOL    HW224185   8.996   1.464  13.001
 7471SOL     OW24186   5.024   7.601   2.962
 7471SOL    HW124187   5.044   7.509   2.946
 7471SOL    HW224188   5.100   7.649   2.929
 7472SOL     OW24189  13.237  13.430  10.040
 7472SOL    HW124190  13.208  13.511  10.081
 7472SOL    HW224191  13.169  13.366  10.059
 7473SOL     OW24192   7.285   8.615  11.435
 7473SOL    HW124193   7.201   8.570  11.444
 7473SOL    HW224194   7.316   8.591  11.348
 7474SOL     OW24195   5.297  11.266   4.386
 7474SOL    HW124196   5.201  11.262   4.380
 7474SOL    HW224197   5.326  11.260   4.295
 7475SOL     OW24198   6.900  14.718  11.387
 7475SOL    HW124199   6.809  14.720  11.417
 7475SOL    HW224200   6.952  14.733  11.467
 7476SOL     OW24201   7.209   1.484   5.025
 7476SOL    HW124202   7.188   1.461   5.115
 7476SOL    HW224203   7.193   1.404   4.975
 7477SOL     OW24204   2.256  10.279  10.130
 7477SOL    HW124205   2.200  10.352  10.106
 7477SOL    HW224206   2.341  10.299  10.090
 7478SOL     OW24207   8.578   7.480  14.170
 7478SOL    HW124208   8.592   7.563  14.215
 7478SOL    HW224209   8.656   7.469  14.116
 7479SOL     OW24210   7.173   0.383   8.194
 7479SOL    HW124211   7.209   0.314   8.251
 7479SOL    HW224212   7.240   0.451   8.195
 7480SOL     OW24213   4.518   7.548  10.977
 7480SOL    HW124214   4.575   7.516  11.047
 7480SOL    HW224215   4.551   7.636  10.957
 7481SOL     OW24216  10.180  13.273  10.422
 7481SOL    HW124217  10.167  13.276  10.327
 7481SOL    HW224218  10.174  13.181  10.444
 7482SOL     OW24219   0.103   2.062   9.974
 7482SOL    HW124220   0.097   1.987   9.915
 7482SOL    HW224221   0.182   2.108   9.947
 7483SOL     OW24222   6.751  11.676   0.735
 7483SOL    HW124223   6.844  11.685   0.718
 7483SOL    HW224224   6.710  11.685   0.649
 7484SOL     OW24225   9.348   7.853   3.628
 7484SOL    HW124226   9.300   7.893   3.700
 7484SOL    HW224227   9.328   7.909   3.553
 7485SOL     OW24228  12.849  10.875  12.691
 7485SOL    HW124229  12.940  10.889  12.665
 7485SOL    HW224230  12.824  10.958  12.732
 7486SOL     OW24231  14.802   1.331  12.115
 7486SOL    HW124232  14.786   1.405  12.174
 7486SOL    HW224233  14.840   1.264  12.172
 7487SOL     OW24234   9.415   3.827   1.606
 7487SOL    HW124235   9.486   3.854   1.665
 7487SOL    HW224236   9.341   3.882   1.631
 7488SOL     OW24237  12.853   6.811   2.577
 7488SOL    HW124238  12.771   6.858   2.567
 7488SOL    HW224239  12.833   6.721   2.551
 7489SOL     OW24240  13.210  12.955  10.110
 7489SOL    HW124241  13.289  12.936  10.161
 7489SOL    HW224242  13.138  12.928  10.167
 7490SOL     OW24243  13.413   4.069   7.821
 7490SOL    HW124244  13.494   4.052   7.869
 7490SOL    HW224245  13.400   3.991   7.767
 7491SOL     OW24246  13.050   1.068   6.917
 7491SOL    HW124247  13.040   1.154   6.957
 7491SOL    HW224248  12.994   1.010   6.969
 7492SOL     OW24249   5.932   5.187   7.862
 7492SOL    HW124250   5.936   5.220   7.772
 7492SOL    HW224251   5.977   5.102   7.858
 7493SOL     OW24252   2.144  12.360   3.720
 7493SOL    HW124253   2.074  12.403   3.671
 7493SOL    HW224254   2.224  12.382   3.672
 7494SOL     OW24255  11.138   2.844   9.480
 7494SOL    HW124256  11.077   2.793   9.533
 7494SOL    HW224257  11.124   2.813   9.390
 7495SOL     OW24258  10.553  14.777   6.022
 7495SOL    HW124259  10.533  14.784   6.115
 7495SOL    HW224260  10.469  14.792   5.978
 7496SOL     OW24261  11.751  10.299   8.705
 7496SOL    HW124262  11.686  10.241   8.744
 7496SOL    HW224263  11.745  10.380   8.756
 7497SOL     OW24264   2.130  11.954   5.988
 7497SOL    HW124265   2.171  12.040   5.990
 7497SOL    HW224266   2.185  11.902   5.929
 7498SOL     OW24267   2.701   4.435   5.709
 7498SOL    HW124268   2.743   4.378   5.775
 7498SOL    HW224269   2.618   4.461   5.749
 7499SOL     OW24270   5.233   2.513  13.105
 7499SOL    HW124271   5.268   2.587  13.057
 7499SOL    HW224272   5.191   2.458  13.039
 7500SOL     OW24273   7.362   9.544   6.380
 7500SOL    HW124274   7.393   9.602   6.449
 7500SOL    HW224275   7.282   9.504   6.416
 7501SOL     OW24276   0.216   0.526   6.105
 7501SOL    HW124277   0.231   0.536   6.011
 7501SOL    HW224278   0.303   0.536   6.145
 7502SOL     OW24279  14.465  11.374   9.966
 7502SOL    HW124280  14.382  11.362   9.919
 7502SOL    HW224281  14.473  11.469   9.975
 7503SOL     OW24282   0.869   7.200   7.748
 7503SOL    HW124283   0.874   7.294   7.728
 7503SOL    HW224284   0.896   7.194   7.840
 7504SOL     OW24285   7.204  11.601   5.738
 7504SOL    HW124286   7.189  11.549   5.817
 7504SOL    HW224287   7.268  11.550   5.688
 7505SOL     OW24288  11.258   1.926  13.078
 7505SOL    HW124289  11.345   1.911  13.042
 7505SOL    HW224290  11.267   1.904  13.171
 7506SOL     OW24291   3.864   2.702   9.606
 7506SOL    HW124292   3.870   2.710   9.702
 7506SOL    HW224293   3.951   2.726   9.575
 7507SOL     OW24294  13.445   3.851   9.467
 7507SOL    HW124295  13.475   3.939   9.487
 7507SOL    HW224296  13.356   3.846   9.500
 7508SOL     OW24297  11.884   1.524   4.148
 7508SOL    HW124298  11.811   1.560   4.099
 7508SOL    HW224299  11.960   1.536   4.091
 7509SOL     OW24300  11.785   9.062   8.704
 7509SOL    HW124301  11.720   8.995   8.685
 7509SOL    HW224302  11.734   9.142   8.718
 7510SOL     OW24303   3.089  14.141   2.896
 7510SOL    HW124304   3.037  14.173   2.970
 7510SOL    HW224305   3.065  14.198   2.823
 7511SOL     OW24306  14.479   3.935   8.113
 7511SOL    HW124307  14.442   3.910   8.197
 7511SOL    HW224308  14.404   3.939   8.054
 7512SOL     OW24309  10.980  11.890   7.645
 7512SOL    HW124310  10.922  11.816   7.663
 7512SOL    HW224311  10.924  11.967   7.657
 7513SOL     OW24312   7.436   2.278  12.972
 7513SOL    HW124313   7.494   2.202  12.977
 7513SOL    HW224314   7.494   2.352  12.958
 7514SOL     OW24315  13.710  14.783   4.498
 7514SOL    HW124316  13.665  14.841   4.436
 7514SOL    HW224317  13.677  14.810   4.584
 7515SOL     OW24318   2.475  12.565  11.022
 7515SOL    HW124319   2.491  12.648  11.066
 7515SOL    HW224320   2.545  12.508  11.053
 7516SOL     OW24321  10.480   8.468   0.682
 7516SOL    HW124322  10.386   8.458   0.666
 7516SOL    HW224323  10.506   8.385   0.723
 7517SOL     OW24324  14.857   4.329   8.882
 7517SOL    HW124325   0.023   4.373   8.809
 7517SOL    HW224326   0.044   4.268   8.916
 7518SOL     OW24327   9.041   4.056   9.590
 7518SOL    HW124328   8.981   4.072   9.662
 7518SOL    HW224329   9.072   4.143   9.565
 7519SOL     OW24330  10.744   1.607   6.159
 7519SOL    HW124331  10.661   1.572   6.126
 7519SOL    HW224332  10.759   1.686   6.107
 7520SOL     OW24333  11.811  10.022   9.413
 7520SOL    HW124334  11.832   9.929   9.399
 7520SOL    HW224335  11.896  10.064   9.426
 7521SOL     OW24336   0.245   3.472   3.179
 7521SOL    HW124337   0.321   3.524   3.151
 7521SOL    HW224338   0.185   3.537   3.216
 7522SOL     OW24339   2.397   7.791  11.941
 7522SOL    HW124340   2.380   7.731  12.014
 7522SOL    HW224341   2.321   7.781  11.884
 7523SOL     OW24342   2.277  13.659  10.424
 7523SOL    HW124343   2.222  13.736  10.410
 7523SOL    HW224344   2.218  13.595  10.464
 7524SOL     OW24345  10.522   7.371   5.791
 7524SOL    HW124346  10.531   7.455   5.746
 7524SOL    HW224347  10.512   7.307   5.720
 7525SOL     OW24348  11.641   9.657   8.535
 7525SOL    HW124349  11.594   9.727   8.490
 7525SOL    HW224350  11.579   9.584   8.537
 7526SOL     OW24351   6.900   9.001   4.598
 7526SOL    HW124352   6.934   8.927   4.648
 7526SOL    HW224353   6.887   9.071   4.662
 7527SOL     OW24354   5.252   4.077   3.762
 7527SOL    HW124355   5.318   4.008   3.761
 7527SOL    HW224356   5.261   4.121   3.677
 7528SOL     OW24357   5.629  12.845   1.810
 7528SOL    HW124358   5.616  12.894   1.729
 7528SOL    HW224359   5.715  12.804   1.800
 7529SOL     OW24360   0.912   9.649   6.618
 7529SOL    HW124361   0.966   9.723   6.648
 7529SOL    HW224362   0.851   9.688   6.556
 7530SOL     OW24363   6.317  10.291   1.801
 7530SOL    HW124364   6.405  10.266   1.832
 7530SOL    HW224365   6.318  10.386   1.799
 7531SOL     OW24366   9.244   6.923   5.080
 7531SOL    HW124367   9.194   6.880   5.149
 7531SOL    HW224368   9.229   7.016   5.094
 7532SOL     OW24369   4.262   0.038   7.491
 7532SOL    HW124370   4.338  14.861   7.512
 7532SOL    HW224371   4.239   0.079   7.574
 7533SOL     OW24372   8.786   2.935   1.513
 7533SOL    HW124373   8.782   3.013   1.458
 7533SOL    HW224374   8.876   2.902   1.501
 7534SOL     OW24375   2.142  11.083   1.080
 7534SOL    HW124376   2.176  11.152   1.137
 7534SOL    HW224377   2.077  11.038   1.134
 7535SOL     OW24378   6.937   0.379   3.130
 7535SOL    HW124379   6.922   0.287   3.151
 7535SOL    HW224380   6.990   0.377   3.049
 7536SOL     OW24381  10.775  14.853  12.813
 7536SOL    HW124382  10.738  14.766  12.795
 7536SOL    HW224383  10.723   0.009  12.885
 7537SOL     OW24384   5.506   8.870   5.616
 7537SOL    HW124385   5.589   8.919   5.621
 7537SOL    HW224386   5.532   8.782   5.591
 7538SOL     OW24387   7.871   5.725  12.192
 7538SOL    HW124388   7.856   5.694  12.103
 7538SOL    HW224389   7.788   5.710  12.237
 7539SOL     OW24390   4.349   2.874   0.851
 7539SOL    HW124391   4.304   2.956   0.829
 7539SOL    HW224392   4.300   2.807   0.803
 7540SOL     OW24393  12.095  13.392   7.363
 7540SOL    HW124394  12.181  13.399   7.404
 7540SOL    HW224395  12.112  13.359   7.275
 7541SOL     OW24396   8.488  13.147  11.152
 7541SOL    HW124397   8.413  13.172  11.097
 7541SOL    HW224398   8.450  13.127  11.237
 7542SOL     OW24399   5.765   1.709  14.178
 7542SOL    HW124400   5.705   1.783  14.179
 7542SOL    HW224401   5.719   1.640  14.225
 7543SOL     OW24402  14.185  10.314  10.370
 7543SOL    HW124403  14.265  10.315  10.316
 7543SOL    HW224404  14.215  10.287  10.457
 7544SOL     OW24405   4.104  12.093  11.662
 7544SOL    HW124406   4.173  12.155  11.643
 7544SOL    HW224407   4.077  12.058  11.577
 7545SOL     OW24408   6.167  14.858   0.477
 7545SOL    HW124409   6.099   0.022   0.425
 7545SOL    HW224410   6.243  14.854   0.420
 7546SOL     OW24411   3.276   0.406   9.516
 7546SOL    HW124412   3.194   0.449   9.494
 7546SOL    HW224413   3.274   0.324   9.467
 7547SOL     OW24414   9.800   9.152   6.366
 7547SOL    HW124415   9.886   9.113   6.380
 7547SOL    HW224416   9.738   9.086   6.396
 7548SOL     OW24417   2.434   3.831  10.081
 7548SOL    HW124418   2.468   3.749  10.117
 7548SOL    HW224419   2.382   3.803  10.006
 7549SOL     OW24420   4.551   9.223  11.107
 7549SOL    HW124421   4.508   9.163  11.168
 7549SOL    HW224422   4.481   9.255  11.052
 7550SOL     OW24423   5.447   9.187  13.316
 7550SOL    HW124424   5.391   9.228  13.381
 7550SOL    HW224425   5.533   9.226  13.328
 7551SOL     OW24426  10.945   5.632   9.462
 7551SOL    HW124427  10.934   5.675   9.377
 7551SOL    HW224428  10.878   5.564   9.463
 7552SOL     OW24429  12.602   7.204  14.660
 7552SOL    HW124430  12.592   7.279  14.602
 7552SOL    HW224431  12.692   7.174  14.646
 7553SOL     OW24432   6.618   8.193   5.609
 7553SOL    HW124433   6.640   8.145   5.689
 7553SOL    HW224434   6.613   8.285   5.636
 7554SOL     OW24435   9.639   7.630   8.305
 7554SOL    HW124436   9.660   7.712   8.261
 7554SOL    HW224437   9.559   7.647   8.354
 7555SOL     OW24438  13.650   9.951   6.928
 7555SOL    HW124439  13.674   9.862   6.901
 7555SOL    HW224440  13.586   9.938   6.998
 7556SOL     OW24441   4.680   2.046   5.177
 7556SOL    HW124442   4.696   2.049   5.271
 7556SOL    HW224443   4.768   2.050   5.137
 7557SOL     OW24444   2.425   5.572   0.210
 7557SOL    HW124445   2.478   5.510   0.260
 7557SOL    HW224446   2.338   5.532   0.207
 7558SOL     OW24447  14.303   7.671   8.450
 7558SOL    HW124448  14.219   7.629   8.435
 7558SOL    HW224449  14.313   7.732   8.376
 7559SOL     OW24450   7.208  11.148  14.633
 7559SOL    HW124451   7.121  11.112  14.612
 7559SOL    HW224452   7.265  11.071  14.634
 7560SOL     OW24453   8.636  11.988   2.397
 7560SOL    HW124454   8.729  11.964   2.394
 7560SOL    HW224455   8.596  11.923   2.454
 7561SOL     OW24456  14.068   8.264   3.806
 7561SOL    HW124457  14.109   8.319   3.873
 7561SOL    HW224458  14.068   8.176   3.843
 7562SOL     OW24459  13.843   0.731  12.907
 7562SOL    HW124460  13.936   0.717  12.890
 7562SOL    HW224461  13.799   0.661  12.860
 7563SOL     OW24462   5.725   2.115   5.894
 7563SOL    HW124463   5.802   2.151   5.849
 7563SOL    HW224464   5.702   2.182   5.959
 7564SOL     OW24465   9.389  14.011   7.907
 7564SOL    HW124466   9.341  13.955   7.969
 7564SOL    HW224467   9.325  14.078   7.882
 7565SOL     OW24468  12.723   3.853   5.427
 7565SOL    HW124469  12.638   3.811   5.420
 7565SOL    HW224470  12.713   3.936   5.379
 7566SOL     OW24471   2.438  13.746   3.011
 7566SOL    HW124472   2.516  13.735   3.066
 7566SOL    HW224473   2.471  13.741   2.921
 7567SOL     OW24474   6.284   3.780  10.678
 7567SOL    HW124475   6.321   3.809  10.761
 7567SOL    HW224476   6.359   3.751  10.627
 7568SOL     OW24477   8.988   0.947   9.500
 7568SOL    HW124478   9.074   0.913   9.476
 7568SOL    HW224479   8.940   0.871   9.533
 7569SOL     OW24480   4.764   6.487  10.172
 7569SOL    HW124481   4.752   6.559  10.235
 7569SOL    HW224482   4.690   6.429  10.189
 7570SOL     OW24483   2.168   3.601   1.203
 7570SOL    HW124484   2.224   3.539   1.155
 7570SOL    HW224485   2.147   3.668   1.139
 7571SOL     OW24486  10.747   1.988   5.454
 7571SOL    HW124487  10.772   2.074   5.489
 7571SOL    HW224488  10.696   2.009   5.375
 7572SOL     OW24489   9.808  13.809  12.725
 7572SOL    HW124490   9.828  13.727  12.769
 7572SOL    HW224491   9.845  13.876  12.782
 7573SOL     OW24492  13.868   2.409  12.801
 7573SOL    HW124493  13.779   2.413  12.766
 7573SOL    HW224494  13.917   2.359  12.736
 7574SOL     OW24495  11.522   0.696  13.986
 7574SOL    HW124496  11.614   0.695  13.958
 7574SOL    HW224497  11.480   0.761  13.929
 7575SOL     OW24498   2.017  12.383   7.206
 7575SOL    HW124499   1.923  12.367   7.210
 7575SOL    HW224500   2.051  12.311   7.153
 7576SOL     OW24501  12.327   0.565   0.161
 7576SOL    HW124502  12.340   0.570   0.067
 7576SOL    HW224503  12.393   0.502   0.191
 7577SOL     OW24504  13.185   0.240   3.998
 7577SOL    HW124505  13.194   0.193   4.081
 7577SOL    HW224506  13.232   0.186   3.935
 7578SOL     OW24507   2.588   0.869   6.775
 7578SOL    HW124508   2.647   0.907   6.840
 7578SOL    HW224509   2.549   0.794   6.820
 7579SOL     OW24510  13.227   9.057   5.938
 7579SOL    HW124511  13.310   9.074   5.982
 7579SOL    HW224512  13.226   9.119   5.864
 7580SOL     OW24513   6.121   7.948   5.152
 7580SOL    HW124514   6.191   7.905   5.201
 7580SOL    HW224515   6.046   7.946   5.212
 7581SOL     OW24516   6.812  13.681  13.840
 7581SOL    HW124517   6.791  13.711  13.751
 7581SOL    HW224518   6.745  13.615  13.859
 7582SOL     OW24519   7.491  13.356   1.131
 7582SOL    HW124520   7.428  13.351   1.059
 7582SOL    HW224521   7.555  13.288   1.112
 7583SOL     OW24522  14.416  11.073   1.954
 7583SOL    HW124523  14.338  11.032   1.991
 7583SOL    HW224524  14.473  10.999   1.931
 7584SOL     OW24525  12.871   1.993   8.683
 7584SOL    HW124526  12.819   2.009   8.604
 7584SOL    HW224527  12.824   1.923   8.729
 7585SOL     OW24528  13.390  14.562   6.791
 7585SOL    HW124529  13.393  14.597   6.880
 7585SOL    HW224530  13.385  14.639   6.735
 7586SOL     OW24531  11.947   3.690   5.344
 7586SOL    HW124532  11.869   3.736   5.375
 7586SOL    HW224533  11.938   3.602   5.379
 7587SOL     OW24534   1.238   0.538   6.238
 7587SOL    HW124535   1.153   0.534   6.193
 7587SOL    HW224536   1.302   0.521   6.169
 7588SOL     OW24537   6.784   8.872  13.243
 7588SOL    HW124538   6.807   8.962  13.222
 7588SOL    HW224539   6.867   8.827  13.252
 7589SOL     OW24540   8.053  10.574  11.832
 7589SOL    HW124541   8.014  10.606  11.914
 7589SOL    HW224542   8.074  10.653  11.783
 7590SOL     OW24543   7.252  11.890   9.285
 7590SOL    HW124544   7.248  11.829   9.359
 7590SOL    HW224545   7.279  11.836   9.211
 7591SOL     OW24546   9.448  14.764   0.116
 7591SOL    HW124547   9.528  14.780   0.066
 7591SOL    HW224548   9.431  14.671   0.104
 7592SOL     OW24549   3.411  13.024   5.111
 7592SOL    HW124550   3.409  13.002   5.017
 7592SOL    HW224551   3.390  12.942   5.155
 7593SOL     OW24552   8.711   9.734   7.082
 7593SOL    HW124553   8.743   9.646   7.101
 7593SOL    HW224554   8.659   9.723   7.002
 7594SOL     OW24555   5.178   8.275  12.535
 7594SOL    HW124556   5.164   8.338  12.463
 7594SOL    HW224557   5.168   8.189  12.494
 7595SOL     OW24558   3.363   1.629   6.075
 7595SOL    HW124559   3.304   1.554   6.071
 7595SOL    HW224560   3.411   1.618   6.158
 7596SOL     OW24561   0.392   9.191  13.931
 7596SOL    HW124562   0.329   9.220  13.997
 7596SOL    HW224563   0.352   9.113  13.892
 7597SOL     OW24564   0.025   1.250   0.599
 7597SOL    HW124565  14.850   1.324   0.571
 7597SOL    HW224566   0.079   1.228   0.524
 7598SOL     OW24567   7.685  12.536  12.138
 7598SOL    HW124568   7.760  12.485  12.106
 7598SOL    HW224569   7.711  12.627  12.126
 7599SOL     OW24570  11.988  11.841   5.603
 7599SOL    HW124571  12.025  11.801   5.681
 7599SOL    HW224572  11.962  11.929   5.630
 7600SOL     OW24573  14.610   9.599   5.147
 7600SOL    HW124574  14.548   9.672   5.143
 7600SOL    HW224575  14.678   9.622   5.084
 7601SOL     OW24576   5.761   9.494  14.598
 7601SOL    HW124577   5.765   9.464  14.689
 7601SOL    HW224578   5.838   9.550  14.588
 7602SOL     OW24579   0.524   8.678   8.347
 7602SOL    HW124580   0.494   8.640   8.430
 7602SOL    HW224581   0.586   8.615   8.312
 7603SOL     OW24582   6.242   1.822  11.092
 7603SOL    HW124583   6.287   1.804  11.174
 7603SOL    HW224584   6.217   1.736  11.059
 7604SOL     OW24585   9.638  13.128   8.566
 7604SOL    HW124586   9.606  13.217   8.552
 7604SOL    HW224587   9.568  13.072   8.532
 7605SOL     OW24588   6.682   1.931  13.730
 7605SOL    HW124589   6.742   2.005  13.737
 7605SOL    HW224590   6.618   1.945  13.801
 7606SOL     OW24591   1.619   7.512   7.321
 7606SOL    HW124592   1.672   7.489   7.397
 7606SOL    HW224593   1.661   7.467   7.247
 7607SOL     OW24594   9.491   4.197   9.846
 7607SOL    HW124595   9.516   4.277   9.801
 7607SOL    HW224596   9.503   4.217   9.939
 7608SOL     OW24597  10.318   9.335   0.982
 7608SOL    HW124598  10.305   9.242   0.999
 7608SOL    HW224599  10.386   9.338   0.914
 7609SOL     OW24600   7.911   2.485   9.018
 7609SOL    HW124601   7.943   2.558   8.965
 7609SOL    HW224602   7.879   2.421   8.954
 7610SOL     OW24603   0.631   2.095  11.929
 7610SOL    HW124604   0.672   2.065  11.848
 7610SOL    HW224605   0.542   2.060  11.926
 7611SOL     OW24606   7.768   0.363  13.304
 7611SOL    HW124607   7.773   0.406  13.219
 7611SOL    HW224608   7.845   0.307  13.308
 7612SOL     OW24609   3.310   3.558  13.234
 7612SOL    HW124610   3.250   3.487  13.210
 7612SOL    HW224611   3.259   3.612  13.295
 7613SOL     OW24612   1.838   0.979  10.839
 7613SOL    HW124613   1.932   0.966  10.845
 7613SOL    HW224614   1.804   0.954  10.926
 7614SOL     OW24615  10.087   3.642  10.908
 7614SOL    HW124616  10.089   3.547  10.897
 7614SOL    HW224617   9.995   3.662  10.927
 7615SOL     OW24618   5.429   4.681  13.343
 7615SOL    HW124619   5.393   4.755  13.392
 7615SOL    HW224620   5.476   4.722  13.270
 7616SOL     OW24621   1.049  14.445   0.588
 7616SOL    HW124622   1.005  14.498   0.654
 7616SOL    HW224623   1.058  14.503   0.513
 7617SOL     OW24624   1.307   8.441   8.760
 7617SOL    HW124625   1.364   8.396   8.698
 7617SOL    HW224626   1.247   8.492   8.706
 7618SOL     OW24627   0.898  12.903   9.447
 7618SOL    HW124628   0.878  12.872   9.359
 7618SOL    HW224629   0.931  12.825   9.492
 7619SOL     OW24630   7.074   0.644  12.702
 7619SOL    HW124631   6.999   0.702  12.707
 7619SOL    HW224632   7.140   0.684  12.759
 7620SOL     OW24633   0.103   6.639  13.019
 7620SOL    HW124634   0.082   6.551  12.987
 7620SOL    HW224635   0.062   6.698  12.956
 7621SOL     OW24636   6.580  12.205   4.238
 7621SOL    HW124637   6.580  12.194   4.143
 7621SOL    HW224638   6.672  12.211   4.262
 7622SOL     OW24639   0.932   7.470   5.086
 7622SOL    HW124640   0.972   7.476   5.173
 7622SOL    HW224641   0.877   7.392   5.091
 7623SOL     OW24642  12.592   1.537   8.281
 7623SOL    HW124643  12.535   1.611   8.259
 7623SOL    HW224644  12.571   1.516   8.371
 7624SOL     OW24645  13.637   5.364  10.655
 7624SOL    HW124646  13.555   5.361  10.605
 7624SOL    HW224647  13.612   5.339  10.744
 7625SOL     OW24648   4.214   7.621   4.729
 7625SOL    HW124649   4.256   7.539   4.702
 7625SOL    HW224650   4.257   7.645   4.811
 7626SOL     OW24651   9.321   3.642   3.787
 7626SOL    HW124652   9.415   3.647   3.799
 7626SOL    HW224653   9.291   3.582   3.854
 7627SOL     OW24654   6.251  11.651   1.818
 7627SOL    HW124655   6.167  11.653   1.864
 7627SOL    HW224656   6.244  11.719   1.751
 7628SOL     OW24657   2.486  13.158   7.714
 7628SOL    HW124658   2.532  13.093   7.767
 7628SOL    HW224659   2.444  13.107   7.644
 7629SOL     OW24660   6.922   1.689  13.249
 7629SOL    HW124661   6.846   1.656  13.298
 7629SOL    HW224662   6.894   1.774  13.215
 7630SOL     OW24663  14.148   5.875  13.256
 7630SOL    HW124664  14.076   5.934  13.232
 7630SOL    HW224665  14.221   5.934  13.275
 7631SOL     OW24666   0.081   3.614  10.109
 7631SOL    HW124667   0.018   3.680  10.138
 7631SOL    HW224668   0.037   3.530  10.122
 7632SOL     OW24669   5.279   7.213  10.818
 7632SOL    HW124670   5.244   7.302  10.817
 7632SOL    HW224671   5.275   7.184  10.727
 7633SOL     OW24672   6.394   7.176   4.787
 7633SOL    HW124673   6.351   7.099   4.748
 7633SOL    HW224674   6.388   7.162   4.881
 7634SOL     OW24675   6.472   9.064   9.233
 7634SOL    HW124676   6.450   9.003   9.303
 7634SOL    HW224677   6.495   9.008   9.159
 7635SOL     OW24678   5.816  11.117   2.799
 7635SOL    HW124679   5.873  11.043   2.820
 7635SOL    HW224680   5.827  11.131   2.705
 7636SOL     OW24681   5.996  14.169  10.803
 7636SOL    HW124682   6.042  14.251  10.789
 7636SOL    HW224683   5.937  14.161  10.728
 7637SOL     OW24684   3.183  14.488   3.602
 7637SOL    HW124685   3.110  14.547   3.584
 7637SOL    HW224686   3.144  14.414   3.647
 7638SOL     OW24687   1.175   3.962  13.010
 7638SOL    HW124688   1.170   3.890  13.073
 7638SOL    HW224689   1.098   4.016  13.027
 7639SOL     OW24690   4.059   4.764  12.310
 7639SOL    HW124691   4.154   4.779  12.317
 7639SOL    HW224692   4.050   4.669  12.318
 7640SOL     OW24693   9.762  13.932   1.768
 7640SOL    HW124694   9.748  13.951   1.675
 7640SOL    HW224695   9.852  13.899   1.773
 7641SOL     OW24696  11.068   7.741   6.717
 7641SOL    HW124697  11.149   7.727   6.669
 7641SOL    HW224698  11.044   7.654   6.750
 7642SOL     OW24699   2.562   2.083  14.024
 7642SOL    HW124700   2.498   2.146  14.056
 7642SOL    HW224701   2.639   2.135  14.002
 7643SOL     OW24702   8.459   0.724  10.484
 7643SOL    HW124703   8.490   0.770  10.563
 7643SOL    HW224704   8.364   0.716  10.497
 7644SOL     OW24705  12.839   4.570  12.410
 7644SOL    HW124706  12.797   4.651  12.438
 7644SOL    HW224707  12.838   4.574  12.314
 7645SOL     OW24708   3.499   2.597  13.740
 7645SOL    HW124709   3.591   2.599  13.713
 7645SOL    HW224710   3.471   2.507  13.724
 7646SOL     OW24711   7.057   2.329  14.419
 7646SOL    HW124712   6.994   2.390  14.457
 7646SOL    HW224713   7.055   2.346  14.325
 7647SOL     OW24714  10.448   7.980  11.087
 7647SOL    HW124715  10.468   7.912  11.023
 7647SOL    HW224716  10.496   8.057  11.057
 7648SOL     OW24717  14.241  13.369   4.358
 7648SOL    HW124718  14.244  13.460   4.332
 7648SOL    HW224719  14.320  13.356   4.410
 7649SOL     OW24720  10.178   5.822   7.671
 7649SOL    HW124721  10.263   5.791   7.638
 7649SOL    HW224722  10.179   5.799   7.764
 7650SOL     OW24723   2.898   8.776   9.170
 7650SOL    HW124724   2.947   8.796   9.090
 7650SOL    HW224725   2.945   8.703   9.209
 7651SOL     OW24726   9.930  13.535   7.491
 7651SOL    HW124727   9.840  13.506   7.506
 7651SOL    HW224728   9.941  13.532   7.396
 7652SOL     OW24729   0.934   1.982   8.167
 7652SOL    HW124730   0.864   1.965   8.230
 7652SOL    HW224731   1.011   2.001   8.221
 7653SOL     OW24732   7.504   3.763  14.070
 7653SOL    HW124733   7.440   3.824  14.032
 7653SOL    HW224734   7.589   3.799  14.045
 7654SOL     OW24735   5.809   0.863   1.599
 7654SOL    HW124736   5.864   0.803   1.649
 7654SOL    HW224737   5.839   0.853   1.508
 7655SOL     OW24738   7.560  14.481   2.341
 7655SOL    HW124739   7.624  14.424   2.298
 7655SOL    HW224740   7.572  14.463   2.435
 7656SOL     OW24741   6.321   6.148   8.016
 7656SOL    HW124742   6.347   6.223   7.963
 7656SOL    HW224743   6.225   6.147   8.013
 7657SOL     OW24744   0.601   7.876   7.667
 7657SOL    HW124745   0.534   7.810   7.682
 7657SOL    HW224746   0.587   7.941   7.736
 7658SOL     OW24747   3.535  13.213  14.400
 7658SOL    HW124748   3.603  13.244  14.340
 7658SOL    HW224749   3.581  13.195  14.482
 7659SOL     OW24750   0.968  13.709  14.820
 7659SOL    HW124751   0.962  13.793  14.773
 7659SOL    HW224752   0.913  13.722   0.020
 7660SOL     OW24753   1.491  10.979   0.167
 7660SOL    HW124754   1.501  11.070   0.142
 7660SOL    HW224755   1.543  10.931   0.103
 7661SOL     OW24756   4.248  14.421   9.182
 7661SOL    HW124757   4.248  14.418   9.086
 7661SOL    HW224758   4.191  14.495   9.203
 7662SOL     OW24759   1.144  13.761   8.003
 7662SOL    HW124760   1.175  13.732   8.088
 7662SOL    HW224761   1.197  13.713   7.940
 7663SOL     OW24762   7.394   7.023   1.128
 7663SOL    HW124763   7.476   6.986   1.098
 7663SOL    HW224764   7.404   7.118   1.116
 7664SOL     OW24765   8.525   9.560   7.344
 7664SOL    HW124766   8.531   9.649   7.309
 7664SOL    HW224767   8.430   9.544   7.349
 7665SOL     OW24768  12.990   8.931  11.114
 7665SOL    HW124769  12.941   8.959  11.191
 7665SOL    HW224770  13.062   8.878  11.149
 7666SOL     OW24771   7.733   9.552  13.095
 7666SOL    HW124772   7.678   9.578  13.168
 7666SOL    HW224773   7.673   9.508  13.035
 7667SOL     OW24774  10.860   0.464   5.500
 7667SOL    HW124775  10.891   0.405   5.569
 7667SOL    HW224776  10.932   0.468   5.437
 7668SOL     OW24777  10.084  13.950   4.828
 7668SOL    HW124778  10.140  13.946   4.751
 7668SOL    HW224779  10.013  13.888   4.809
 7669SOL     OW24780   3.968   1.606   2.448
 7669SOL    HW124781   3.969   1.664   2.525
 7669SOL    HW224782   4.060   1.601   2.421
 7670SOL     OW24783   8.747  13.013  13.810
 7670SOL    HW124784   8.824  13.037  13.862
 7670SOL    HW224785   8.674  13.060  13.851
 7671SOL     OW24786   5.191   6.587   7.497
 7671SOL    HW124787   5.255   6.615   7.431
 7671SOL    HW224788   5.242   6.535   7.559
 7672SOL     OW24789   1.813   5.643   1.650
 7672SOL    HW124790   1.811   5.590   1.729
 7672SOL    HW224791   1.737   5.615   1.599
 7673SOL     OW24792   2.646   0.181  14.068
 7673SOL    HW124793   2.639   0.108  14.005
 7673SOL    HW224794   2.596   0.252  14.027
 7674SOL     OW24795   5.870   9.654   1.471
 7674SOL    HW124796   5.945   9.701   1.437
 7674SOL    HW224797   5.869   9.676   1.565
 7675SOL     OW24798   9.253  10.442   0.055
 7675SOL    HW124799   9.268  10.529   0.020
 7675SOL    HW224800   9.217  10.392  14.860
 7676SOL     OW24801   9.730   0.805   9.162
 7676SOL    HW124802   9.714   0.831   9.252
 7676SOL    HW224803   9.728   0.886   9.112
 7677SOL     OW24804   2.740   2.406  14.274
 7677SOL    HW124805   2.834   2.387  14.282
 7677SOL    HW224806   2.716   2.439  14.360
 7678SOL     OW24807  11.886   8.020   3.759
 7678SOL    HW124808  11.876   8.109   3.791
 7678SOL    HW224809  11.957   7.983   3.812
 7679SOL     OW24810   5.361  10.951   0.628
 7679SOL    HW124811   5.418  11.014   0.671
 7679SOL    HW224812   5.311  10.911   0.700
 7680SOL     OW24813   7.549  13.948   8.313
 7680SOL    HW124814   7.591  13.927   8.396
 7680SOL    HW224815   7.577  14.038   8.294
 7681SOL     OW24816   7.296  14.139   4.510
 7681SOL    HW124817   7.253  14.064   4.551
 7681SOL    HW224818   7.372  14.156   4.566
 7682SOL     OW24819   9.190   7.913  14.572
 7682SOL    HW124820   9.136   7.992  14.579
 7682SOL    HW224821   9.148   7.860  14.505
 7683SOL     OW24822   6.679  11.601   2.413
 7683SOL    HW124823   6.682  11.508   2.437
 7683SOL    HW224824   6.644  11.645   2.490
 7684SOL     OW24825  14.831  13.616   8.577
 7684SOL    HW124826  14.832  13.674   8.653
 7684SOL    HW224827   0.041  13.622   8.541
 7685SOL     OW24828   6.824  11.553   6.807
 7685SOL    HW124829   6.741  11.554   6.854
 7685SOL    HW224830   6.883  11.608   6.859
 7686SOL     OW24831  14.167   7.119   3.404
 7686SOL    HW124832  14.183   7.140   3.312
 7686SOL    HW224833  14.078   7.149   3.420
 7687SOL     OW24834   5.704  13.653   4.195
 7687SOL    HW124835   5.739  13.731   4.236
 7687SOL    HW224836   5.625  13.632   4.245
 7688SOL     OW24837   3.914  11.751  12.390
 7688SOL    HW124838   3.994  11.785  12.349
 7688SOL    HW224839   3.855  11.826  12.394
 7689SOL     OW24840  12.431   5.210   5.489
 7689SOL    HW124841  12.373   5.283   5.508
 7689SOL    HW224842  12.474   5.191   5.573
 7690SOL     OW24843  14.536   6.185   8.583
 7690SOL    HW124844  14.502   6.194   8.672
 7690SOL    HW224845  14.497   6.103   8.551
 7691SOL     OW24846   6.820  12.755  13.034
 7691SOL    HW124847   6.859  12.842  13.025
 7691SOL    HW224848   6.878  12.709  13.095
 7692SOL     OW24849   8.407   6.220   6.843
 7692SOL    HW124850   8.447   6.145   6.798
 7692SOL    HW224851   8.332   6.243   6.788
 7693SOL     OW24852   6.717  10.673   0.484
 7693SOL    HW124853   6.642  10.616   0.472
 7693SOL    HW224854   6.785  10.638   0.426
 7694SOL     OW24855  14.818   4.719   8.363
 7694SOL    HW124856   0.020   4.764   8.390
 7694SOL    HW224857  14.794   4.666   8.439
 7695SOL     OW24858   1.712   6.454   5.869
 7695SOL    HW124859   1.723   6.426   5.960
 7695SOL    HW224860   1.755   6.540   5.866
 7696SOL     OW24861   9.478   4.198   8.760
 7696SOL    HW124862   9.525   4.218   8.841
 7696SOL    HW224863   9.394   4.242   8.769
 7697SOL     OW24864   4.785  11.455   4.064
 7697SOL    HW124865   4.819  11.529   4.113
 7697SOL    HW224866   4.822  11.378   4.107
 7698SOL     OW24867   6.061   0.390   6.193
 7698SOL    HW124868   6.136   0.404   6.252
 7698SOL    HW224869   6.067   0.462   6.130
 7699SOL     OW24870  13.309  10.852   1.408
 7699SOL    HW124871  13.230  10.847   1.462
 7699SOL    HW224872  13.341  10.762   1.403
 7700SOL     OW24873  11.407  11.320  13.780
 7700SOL    HW124874  11.389  11.243  13.832
 7700SOL    HW224875  11.499  11.341  13.799
 7701SOL     OW24876   5.722   4.297   1.582
 7701SOL    HW124877   5.814   4.314   1.560
 7701SOL    HW224878   5.701   4.365   1.646
 7702SOL     OW24879  13.974   5.869   2.883
 7702SOL    HW124880  13.978   5.961   2.910
 7702SOL    HW224881  14.065   5.844   2.868
 7703SOL     OW24882   5.023   7.572   6.070
 7703SOL    HW124883   5.007   7.639   6.136
 7703SOL    HW224884   4.943   7.519   6.069
 7704SOL     OW24885   9.615   6.475   1.320
 7704SOL    HW124886   9.544   6.413   1.338
 7704SOL    HW224887   9.620   6.530   1.398
 7705SOL     OW24888  14.238   1.199   9.316
 7705SOL    HW124889  14.176   1.210   9.244
 7705SOL    HW224890  14.291   1.279   9.314
 7706SOL     OW24891  12.017  14.256   3.246
 7706SOL    HW124892  12.085  14.228   3.307
 7706SOL    HW224893  12.016  14.352   3.253
 7707SOL     OW24894   1.430   5.925   3.927
 7707SOL    HW124895   1.495   5.956   3.864
 7707SOL    HW224896   1.422   5.831   3.909
 7708SOL     OW24897  13.000   8.798  13.950
 7708SOL    HW124898  12.988   8.884  13.909
 7708SOL    HW224899  13.087   8.802  13.989
 7709SOL     OW24900   5.833  11.444   5.749
 7709SOL    HW124901   5.793  11.363   5.719
 7709SOL    HW224902   5.927  11.433   5.731
 7710SOL     OW24903   0.203   3.323   1.652
 7710SOL    HW124904   0.127   3.372   1.685
 7710SOL    HW224905   0.165   3.259   1.591
 7711SOL     OW24906   8.771   3.113  10.492
 7711SOL    HW124907   8.710   3.126  10.420
 7711SOL    HW224908   8.741   3.173  10.560
 7712SOL     OW24909   4.206  10.139   9.483
 7712SOL    HW124910   4.280  10.097   9.440
 7712SOL    HW224911   4.209  10.230   9.451
 7713SOL     OW24912  14.393  14.126  14.395
 7713SOL    HW124913  14.450  14.122  14.472
 7713SOL    HW224914  14.318  14.178  14.423
 7714SOL     OW24915   1.635   4.596   7.283
 7714SOL    HW124916   1.588   4.527   7.236
 7714SOL    HW224917   1.727   4.574   7.271
 7715SOL     OW24918  14.155   5.862  10.340
 7715SOL    HW124919  14.242   5.826  10.324
 7715SOL    HW224920  14.146   5.933  10.276
 7716SOL     OW24921   8.136  12.740   0.912
 7716SOL    HW124922   8.071  12.801   0.875
 7716SOL    HW224923   8.135  12.665   0.851
 7717SOL     OW24924  10.353   1.757   7.918
 7717SOL    HW124925  10.427   1.720   7.869
 7717SOL    HW224926  10.280   1.754   7.856
 7718SOL     OW24927   3.558   6.501   5.729
 7718SOL    HW124928   3.545   6.427   5.670
 7718SOL    HW224929   3.472   6.542   5.737
 7719SOL     OW24930   0.191   3.077  10.085
 7719SOL    HW124931   0.242   3.158  10.091
 7719SOL    HW224932   0.128   3.094  10.016
 7720SOL     OW24933   1.567   5.329   6.485
 7720SOL    HW124934   1.637   5.372   6.534
 7720SOL    HW224935   1.547   5.389   6.413
 7721SOL     OW24936   8.080  10.842  11.709
 7721SOL    HW124937   8.013  10.907  11.732
 7721SOL    HW224938   8.107  10.867  11.621
 7722SOL     OW24939  14.773   3.670   0.252
 7722SOL    HW124940  14.768   3.755   0.294
 7722SOL    HW224941  14.832   3.684   0.177
 7723SOL     OW24942   5.936   0.625   9.919
 7723SOL    HW124943   5.918   0.585   9.834
 7723SOL    HW224944   6.025   0.658   9.911
 7724SOL     OW24945  10.541   3.669   9.979
 7724SOL    HW124946  10.522   3.575   9.979
 7724SOL    HW224947  10.551   3.691  10.072
 7725SOL     OW24948   9.517   4.097  10.929
 7725SOL    HW124949   9.603   4.139  10.934
 7725SOL    HW224950   9.471   4.145  10.860
 7726SOL     OW24951  13.606   8.251   1.024
 7726SOL    HW124952  13.586   8.261   0.931
 7726SOL    HW224953  13.524   8.274   1.068
 7727SOL     OW24954  11.773   4.872   8.911
 7727SOL    HW124955  11.794   4.790   8.957
 7727SOL    HW224956  11.689   4.899   8.947
 7728SOL     OW24957   7.656   9.753  10.490
 7728SOL    HW124958   7.604   9.832  10.504
 7728SOL    HW224959   7.681   9.756  10.397
 7729SOL     OW24960   8.280   5.989  11.400
 7729SOL    HW124961   8.204   5.960  11.349
 7729SOL    HW224962   8.282   6.084  11.388
 7730SOL     OW24963   7.625   2.643   3.206
 7730SOL    HW124964   7.658   2.589   3.279
 7730SOL    HW224965   7.704   2.670   3.160
 7731SOL     OW24966   0.059  14.097   9.523
 7731SOL    HW124967  14.875  14.060   9.585
 7731SOL    HW224968   0.145  14.075   9.559
 7732SOL     OW24969  13.107  12.475   5.295
 7732SOL    HW124970  13.108  12.546   5.358
 7732SOL    HW224971  13.113  12.395   5.348
 7733SOL     OW24972  10.147   1.604  11.651
 7733SOL    HW124973  10.214   1.536  11.647
 7733SOL    HW224974  10.187   1.680  11.609
 7734SOL     OW24975   8.702   1.015   3.154
 7734SOL    HW124976   8.641   1.052   3.218
 7734SOL    HW224977   8.714   0.924   3.182
 7735SOL     OW24978   4.990   8.830   0.969
 7735SOL    HW124979   4.971   8.876   1.051
 7735SOL    HW224980   4.928   8.758   0.967
 7736SOL     OW24981   5.601   8.693   9.359
 7736SOL    HW124982   5.628   8.676   9.449
 7736SOL    HW224983   5.671   8.748   9.323
 7737SOL     OW24984  14.086  13.326   8.992
 7737SOL    HW124985  14.045  13.240   9.001
 7737SOL    HW224986  14.050  13.361   8.910
 7738SOL     OW24987   7.730   2.258   0.511
 7738SOL    HW124988   7.660   2.247   0.448
 7738SOL    HW224989   7.796   2.312   0.466
 7739SOL     OW24990   2.555  14.602   8.545
 7739SOL    HW124991   2.648  14.578   8.543
 7739SOL    HW224992   2.516  14.550   8.475
 7740SOL     OW24993   1.554   9.001  13.370
 7740SOL    HW124994   1.620   9.066  13.342
 7740SOL    HW224995   1.554   8.936  13.300
 7741SOL     OW24996   5.670   7.849   2.876
 7741SOL    HW124997   5.614   7.910   2.828
 7741SOL    HW224998   5.683   7.892   2.961
 7742SOL     OW24999   3.585   3.955  13.010
 7742SOL    HW125000   3.504   3.928  13.051
 7742SOL    HW225001   3.588   3.906  12.928
 7743SOL     OW25002   5.987   9.495   9.366
 7743SOL    HW125003   5.939   9.413   9.358
 7743SOL    HW225004   5.920   9.561   9.383
 7744SOL     OW25005   6.053   9.358   1.578
 7744SOL    HW125006   5.977   9.416   1.586
 7744SOL    HW225007   6.114   9.389   1.644
 7745SOL     OW25008   7.020   2.402   8.599
 7745SOL    HW125009   6.925   2.400   8.595
 7745SOL    HW225010   7.043   2.322   8.647
 7746SOL     OW25011   9.424   3.253   2.525
 7746SOL    HW125012   9.366   3.186   2.562
 7746SOL    HW225013   9.374   3.289   2.451
 7747SOL     OW25014  13.635   5.471   7.030
 7747SOL    HW125015  13.582   5.466   7.109
 7747SOL    HW225016  13.707   5.410   7.046
 7748SOL     OW25017   9.501   6.247  14.383
 7748SOL    HW125018   9.443   6.180  14.418
 7748SOL    HW225019   9.450   6.328  14.386
 7749SOL     OW25020   4.140  11.832   9.786
 7749SOL    HW125021   4.047  11.817   9.803
 7749SOL    HW225022   4.145  11.845   9.692
 7750SOL     OW25023   3.990   7.809  14.460
 7750SOL    HW125024   4.085   7.813  14.459
 7750SOL    HW225025   3.968   7.767  14.543
 7751SOL     OW25026   9.200   3.622  13.085
 7751SOL    HW125027   9.181   3.596  12.995
 7751SOL    HW225028   9.258   3.553  13.118
 7752SOL     OW25029   2.149   3.660   9.743
 7752SOL    HW125030   2.161   3.620   9.657
 7752SOL    HW225031   2.237   3.680   9.773
 7753SOL     OW25032   8.326  14.672   1.414
 7753SOL    HW125033   8.338  14.706   1.502
 7753SOL    HW225034   8.252  14.722   1.379
 7754SOL     OW25035   1.931   1.603   7.014
 7754SOL    HW125036   1.991   1.671   6.983
 7754SOL    HW225037   1.988   1.529   7.037
 7755SOL     OW25038   3.624   8.830   8.843
 7755SOL    HW125039   3.716   8.832   8.817
 7755SOL    HW225040   3.587   8.756   8.795
 7756SOL     OW25041   0.389   2.244   7.926
 7756SOL    HW125042   0.458   2.206   7.872
 7756SOL    HW225043   0.317   2.181   7.919
 7757SOL     OW25044  10.054   3.279  11.238
 7757SOL    HW125045  10.118   3.292  11.308
 7757SOL    HW225046  10.053   3.184  11.223
 7758SOL     OW25047  11.512   0.893   6.884
 7758SOL    HW125048  11.444   0.853   6.937
 7758SOL    HW225049  11.589   0.837   6.898
 7759SOL     OW25050  12.938   3.198   0.849
 7759SOL    HW125051  12.884   3.120   0.836
 7759SOL    HW225052  12.886   3.270   0.813
 7760SOL     OW25053   5.381   7.677   4.103
 7760SOL    HW125054   5.434   7.756   4.103
 7760SOL    HW225055   5.302   7.701   4.056
 7761SOL     OW25056  11.418  14.505   4.855
 7761SOL    HW125057  11.489  14.524   4.792
 7761SOL    HW225058  11.367  14.436   4.813
 7762SOL     OW25059   4.875   8.918   7.603
 7762SOL    HW125060   4.954   8.865   7.616
 7762SOL    HW225061   4.871   8.974   7.681
 7763SOL     OW25062  13.247   6.085   5.378
 7763SOL    HW125063  13.324   6.032   5.358
 7763SOL    HW225064  13.256   6.107   5.471
 7764SOL     OW25065   6.076   9.920   6.297
 7764SOL    HW125066   6.061   9.900   6.390
 7764SOL    HW225067   6.026   9.853   6.250
 7765SOL     OW25068   9.348   4.477   9.745
 7765SOL    HW125069   9.427   4.498   9.794
 7765SOL    HW225070   9.339   4.548   9.682
 7766SOL     OW25071  13.739   9.627  11.847
 7766SOL    HW125072  13.651   9.661  11.866
 7766SOL    HW225073  13.772   9.598  11.932
 7767SOL     OW25074  14.267  11.537   5.046
 7767SOL    HW125075  14.175  11.518   5.031
 7767SOL    HW225076  14.286  11.497   5.131
 7768SOL     OW25077  10.348   5.272  11.297
 7768SOL    HW125078  10.304   5.213  11.236
 7768SOL    HW225079  10.278   5.328  11.331
 7769SOL     OW25080   3.134   7.043   0.414
 7769SOL    HW125081   3.147   7.078   0.502
 7769SOL    HW225082   3.218   7.004   0.390
 7770SOL     OW25083   1.727   8.444   7.255
 7770SOL    HW125084   1.636   8.442   7.226
 7770SOL    HW225085   1.778   8.443   7.174
 7771SOL     OW25086   8.351   0.445   5.458
 7771SOL    HW125087   8.268   0.398   5.453
 7771SOL    HW225088   8.410   0.396   5.400
 7772SOL     OW25089   6.213   9.079  10.509
 7772SOL    HW125090   6.278   9.139  10.546
 7772SOL    HW225091   6.146   9.072  10.577
 7773SOL     OW25092  10.148   3.363  10.594
 7773SOL    HW125093  10.225   3.306  10.596
 7773SOL    HW225094  10.129   3.380  10.686
 7774SOL     OW25095   8.957   3.822  12.674
 7774SOL    HW125096   9.023   3.867  12.727
 7774SOL    HW225097   8.927   3.889  12.613
 7775SOL     OW25098   2.939   9.676   0.824
 7775SOL    HW125099   2.852   9.643   0.802
 7775SOL    HW225100   2.921   9.758   0.871
 7776SOL     OW25101   3.025   2.619   6.085
 7776SOL    HW125102   2.965   2.655   6.020
 7776SOL    HW225103   2.969   2.597   6.160
 7777SOL     OW25104   1.363   3.849   8.690
 7777SOL    HW125105   1.349   3.760   8.659
 7777SOL    HW225106   1.412   3.839   8.772
 7778SOL     OW25107   2.438   6.575   3.491
 7778SOL    HW125108   2.393   6.581   3.575
 7778SOL    HW225109   2.506   6.510   3.505
 7779SOL     OW25110   7.758   0.736   2.400
 7779SOL    HW125111   7.800   0.787   2.469
 7779SOL    HW225112   7.798   0.649   2.406
 7780SOL     OW25113  10.401  11.137   8.862
 7780SOL    HW125114  10.363  11.138   8.950
 7780SOL    HW225115  10.362  11.212   8.818
 7781SOL     OW25116  14.136   0.782   6.142
 7781SOL    HW125117  14.117   0.824   6.058
 7781SOL    HW225118  14.215   0.731   6.126
 7782SOL     OW25119   8.135  13.477  12.168
 7782SOL    HW125120   8.223  13.439  12.165
 7782SOL    HW225121   8.147  13.563  12.208
 7783SOL     OW25122   5.544   7.029   4.233
 7783SOL    HW125123   5.536   6.977   4.312
 7783SOL    HW225124   5.634   7.062   4.234
 7784SOL     OW25125   9.674   7.190   7.249
 7784SOL    HW125126   9.698   7.271   7.203
 7784SOL    HW225127   9.665   7.216   7.340
 7785SOL     OW25128  13.426   7.588   9.828
 7785SOL    HW125129  13.389   7.503   9.853
 7785SOL    HW225130  13.368   7.621   9.760
 7786SOL     OW25131   3.555  12.277  14.776
 7786SOL    HW125132   3.524  12.191  14.748
 7786SOL    HW225133   3.605  12.310  14.702
 7787SOL     OW25134   3.405   9.758   0.525
 7787SOL    HW125135   3.368   9.757   0.437
 7787SOL    HW225136   3.354   9.692   0.573
 7788SOL     OW25137   0.292   0.160  11.003
 7788SOL    HW125138   0.374   0.151  11.052
 7788SOL    HW225139   0.319   0.163  10.911
 7789SOL     OW25140  13.984   2.137   5.902
 7789SOL    HW125141  13.969   2.106   5.812
 7789SOL    HW225142  14.072   2.172   5.901
 7790SOL     OW25143  11.961   8.914  10.718
 7790SOL    HW125144  11.966   9.008  10.702
 7790SOL    HW225145  11.875   8.901  10.759
 7791SOL     OW25146   3.840   4.105  11.451
 7791SOL    HW125147   3.797   4.041  11.395
 7791SOL    HW225148   3.917   4.133  11.402
 7792SOL     OW25149  11.478   4.615   9.923
 7792SOL    HW125150  11.406   4.671   9.951
 7792SOL    HW225151  11.481   4.545   9.988
 7793SOL     OW25152   2.521   1.810   6.693
 7793SOL    HW125153   2.450   1.757   6.656
 7793SOL    HW225154   2.545   1.764   6.774
 7794SOL     OW25155   7.496   4.830   3.412
 7794SOL    HW125156   7.409   4.871   3.408
 7794SOL    HW225157   7.505   4.785   3.328
 7795SOL     OW25158   1.100   1.271   0.671
 7795SOL    HW125159   1.154   1.344   0.641
 7795SOL    HW225160   1.062   1.302   0.753
 7796SOL     OW25161  10.611  14.528  10.432
 7796SOL    HW125162  10.594  14.461  10.365
 7796SOL    HW225163  10.654  14.599  10.384
 7797SOL     OW25164  13.141  11.421  14.175
 7797SOL    HW125165  13.145  11.334  14.134
 7797SOL    HW225166  13.072  11.466  14.127
 7798SOL     OW25167   7.173   2.576   3.153
 7798SOL    HW125168   7.184   2.481   3.159
 7798SOL    HW225169   7.262   2.610   3.162
 7799SOL     OW25170   1.898   5.159   1.390
 7799SOL    HW125171   1.840   5.090   1.359
 7799SOL    HW225172   1.846   5.240   1.382
 7800SOL     OW25173   9.688  12.212  14.304
 7800SOL    HW125174   9.734  12.129  14.291
 7800SOL    HW225175   9.602  12.199  14.263
 7801SOL     OW25176   2.072  14.651   9.631
 7801SOL    HW125177   2.098  14.667   9.540
 7801SOL    HW225178   2.138  14.591   9.664
 7802SOL     OW25179   4.468   4.570  14.721
 7802SOL    HW125180   4.516   4.619  14.655
 7802SOL    HW225181   4.477   4.478  14.694
 7803SOL     OW25182   2.451   0.988  10.831
 7803SOL    HW125183   2.424   0.969  10.741
 7803SOL    HW225184   2.411   1.073  10.850
 7804SOL     OW25185   3.926  10.381  11.063
 7804SOL    HW125186   3.935  10.415  11.152
 7804SOL    HW225187   4.014  10.356  11.037
 7805SOL     OW25188  11.421  10.595   5.713
 7805SOL    HW125189  11.508  10.628   5.736
 7805SOL    HW225190  11.360  10.661   5.747
 7806SOL     OW25191   7.508   2.408  11.758
 7806SOL    HW125192   7.525   2.317  11.733
 7806SOL    HW225193   7.462   2.402  11.842
 7807SOL     OW25194  10.150   9.643  13.204
 7807SOL    HW125195  10.064   9.623  13.242
 7807SOL    HW225196  10.203   9.669  13.279
 7808SOL     OW25197  12.708   1.169  12.245
 7808SOL    HW125198  12.760   1.103  12.291
 7808SOL    HW225199  12.618   1.153  12.275
 7809SOL     OW25200   2.455  11.855   0.992
 7809SOL    HW125201   2.440  11.764   1.020
 7809SOL    HW225202   2.469  11.903   1.074
 7810SOL     OW25203   6.663   2.859   4.960
 7810SOL    HW125204   6.614   2.927   5.005
 7810SOL    HW225205   6.631   2.777   4.999
 7811SOL     OW25206  10.135   0.295   9.350
 7811SOL    HW125207  10.198   0.327   9.415
 7811SOL    HW225208  10.061   0.356   9.356
 7812SOL     OW25209  11.324   1.740   5.567
 7812SOL    HW125210  11.412   1.713   5.593
 7812SOL    HW225211  11.307   1.692   5.485
 7813SOL     OW25212   8.638  13.955   2.043
 7813SOL    HW125213   8.606  14.016   2.110
 7813SOL    HW225214   8.638  14.007   1.962
 7814SOL     OW25215   1.508   1.485   8.184
 7814SOL    HW125216   1.431   1.436   8.156
 7814SOL    HW225217   1.570   1.418   8.214
 7815SOL     OW25218  14.139   7.517  13.008
 7815SOL    HW125219  14.190   7.481  12.935
 7815SOL    HW225220  14.134   7.446  13.072
 7816SOL     OW25221   9.575  14.615  13.330
 7816SOL    HW125222   9.603  14.526  13.310
 7816SOL    HW225223   9.657  14.665  13.336
 7817SOL     OW25224   0.200   8.744   0.104
 7817SOL    HW125225   0.163   8.690   0.034
 7817SOL    HW225226   0.265   8.799   0.061
 7818SOL     OW25227   7.429  11.602   8.242
 7818SOL    HW125228   7.391  11.612   8.329
 7818SOL    HW225229   7.476  11.685   8.227
 7819SOL     OW25230   6.980   4.149   4.693
 7819SOL    HW125231   7.023   4.071   4.659
 7819SOL    HW225232   6.951   4.124   4.781
 7820SOL     OW25233  13.393   5.585   4.698
 7820SOL    HW125234  13.300   5.593   4.720
 7820SOL    HW225235  13.435   5.659   4.741
 7821SOL     OW25236  14.660   9.063  13.963
 7821SOL    HW125237  14.591   8.999  13.976
 7821SOL    HW225238  14.620   9.131  13.909
 7822SOL     OW25239  10.923  14.051  11.892
 7822SOL    HW125240  10.862  14.027  11.962
 7822SOL    HW225241  10.973  13.971  11.876
 7823SOL     OW25242   8.886   7.908  14.234
 7823SOL    HW125243   8.810   7.917  14.176
 7823SOL    HW225244   8.913   7.998  14.253
 7824SOL     OW25245   2.190   0.953   0.959
 7824SOL    HW125246   2.169   0.913   1.044
 7824SOL    HW225247   2.267   1.007   0.977
 7825SOL     OW25248  13.171  10.145   7.180
 7825SOL    HW125249  13.161  10.168   7.087
 7825SOL    HW225250  13.188  10.229   7.223
 7826SOL     OW25251   2.903  14.619   9.849
 7826SOL    HW125252   2.994  14.607   9.822
 7826SOL    HW225253   2.901  14.705   9.890
 7827SOL     OW25254   0.116   3.944   5.869
 7827SOL    HW125255   0.134   4.036   5.889
 7827SOL    HW225256   0.190   3.896   5.904
 7828SOL     OW25257   1.970  14.566   1.052
 7828SOL    HW125258   1.971  14.646   0.999
 7828SOL    HW225259   1.998  14.594   1.139
 7829SOL     OW25260   3.801   5.402   7.312
 7829SOL    HW125261   3.791   5.424   7.404
 7829SOL    HW225262   3.735   5.455   7.267
 7830SOL     OW25263   0.928   6.727  10.260
 7830SOL    HW125264   0.846   6.748  10.215
 7830SOL    HW225265   0.964   6.813  10.285
 7831SOL     OW25266   8.613   2.942   4.868
 7831SOL    HW125267   8.654   2.968   4.785
 7831SOL    HW225268   8.531   2.900   4.842
 7832SOL     OW25269  12.242   2.750  14.221
 7832SOL    HW125270  12.257   2.805  14.297
 7832SOL    HW225271  12.321   2.698  14.212
 7833SOL     OW25272   2.965   6.628   3.772
 7833SOL    HW125273   3.049   6.667   3.746
 7833SOL    HW225274   2.990   6.550   3.822
 7834SOL     OW25275   1.940   4.001  11.899
 7834SOL    HW125276   1.918   4.002  11.992
 7834SOL    HW225277   2.016   4.059  11.892
 7835SOL     OW25278   3.352   4.863  12.092
 7835SOL    HW125279   3.416   4.911  12.039
 7835SOL    HW225280   3.269   4.873  12.044
 7836SOL     OW25281   6.212   4.964   1.135
 7836SOL    HW125282   6.146   4.942   1.071
 7836SOL    HW225283   6.276   5.017   1.087
 7837SOL     OW25284   7.986   5.463   2.176
 7837SOL    HW125285   8.066   5.502   2.142
 7837SOL    HW225286   7.997   5.369   2.164
 7838SOL     OW25287   8.956   6.845   7.040
 7838SOL    HW125288   8.987   6.921   7.090
 7838SOL    HW225289   8.909   6.883   6.965
 7839SOL     OW25290  11.191   8.709  12.540
 7839SOL    HW125291  11.106   8.669  12.557
 7839SOL    HW225292  11.255   8.641  12.560
 7840SOL     OW25293   1.754  10.084  12.404
 7840SOL    HW125294   1.764  10.057  12.495
 7840SOL    HW225295   1.685  10.150  12.406
 7841SOL     OW25296  10.987  11.412   6.506
 7841SOL    HW125297  11.078  11.392   6.484
 7841SOL    HW225298  10.945  11.327   6.518
 7842SOL     OW25299   5.550  10.827  14.820
 7842SOL    HW125300   5.631  10.784  14.793
 7842SOL    HW225301   5.540  10.804   0.034
 7843SOL     OW25302  11.825  10.270   4.924
 7843SOL    HW125303  11.877  10.249   4.846
 7843SOL    HW225304  11.739  10.232   4.905
 7844SOL     OW25305  11.793  14.799   1.121
 7844SOL    HW125306  11.819  14.760   1.204
 7844SOL    HW225307  11.874  14.804   1.070
 7845SOL     OW25308   7.680   9.816  10.850
 7845SOL    HW125309   7.688   9.896  10.903
 7845SOL    HW225310   7.609   9.835  10.789
 7846SOL     OW25311  12.905   1.073   2.577
 7846SOL    HW125312  12.971   1.014   2.542
 7846SOL    HW225313  12.942   1.104   2.660
 7847SOL     OW25314   5.041   6.757   5.949
 7847SOL    HW125315   5.047   6.781   5.856
 7847SOL    HW225316   5.113   6.804   5.990
 7848SOL     OW25317   4.079   9.723  11.569
 7848SOL    HW125318   4.097   9.813  11.596
 7848SOL    HW225319   4.055   9.678  11.650
 7849SOL     OW25320   5.726   5.261  11.703
 7849SOL    HW125321   5.636   5.235  11.684
 7849SOL    HW225322   5.779   5.188  11.671
 7850SOL     OW25323   1.101   3.026   9.508
 7850SOL    HW125324   1.092   3.019   9.603
 7850SOL    HW225325   1.096   2.935   9.478
 7851SOL     OW25326   9.690   8.454   4.356
 7851SOL    HW125327   9.723   8.394   4.289
 7851SOL    HW225328   9.647   8.524   4.307
 7852SOL     OW25329  14.706   0.665   3.453
 7852SOL    HW125330  14.658   0.730   3.402
 7852SOL    HW225331  14.649   0.588   3.454
 7853SOL     OW25332  12.074  12.916  12.176
 7853SOL    HW125333  12.064  12.851  12.246
 7853SOL    HW225334  12.160  12.897  12.138
 7854SOL     OW25335   4.226  14.207   2.350
 7854SOL    HW125336   4.169  14.257   2.409
 7854SOL    HW225337   4.306  14.259   2.344
 7855SOL     OW25338  11.687   7.089   7.228
 7855SOL    HW125339  11.630   7.163   7.249
 7855SOL    HW225340  11.774   7.117   7.257
 7856SOL     OW25341  14.722   3.225  14.202
 7856SOL    HW125342  14.711   3.169  14.126
 7856SOL    HW225343  14.638   3.271  14.211
 7857SOL     OW25344   8.877  14.658   0.256
 7857SOL    HW125345   8.825  14.603   0.315
 7857SOL    HW225346   8.828  14.657   0.174
 7858SOL     OW25347  12.499  13.091   1.569
 7858SOL    HW125348  12.508  13.110   1.662
 7858SOL    HW225349  12.438  13.158   1.537
 7859SOL     OW25350   5.667  10.979  11.496
 7859SOL    HW125351   5.741  11.023  11.453
 7859SOL    HW225352   5.676  10.887  11.471
 7860SOL     OW25353   2.792   4.185   7.558
 7860SOL    HW125354   2.835   4.132   7.625
 7860SOL    HW225355   2.764   4.122   7.492
 7861SOL     OW25356  12.765   1.984   1.771
 7861SOL    HW125357  12.710   2.060   1.752
 7861SOL    HW225358  12.736   1.918   1.707
 7862SOL     OW25359  10.680   0.424   2.359
 7862SOL    HW125360  10.654   0.378   2.439
 7862SOL    HW225361  10.772   0.403   2.348
 7863SOL     OW25362   3.078   7.124   3.122
 7863SOL    HW125363   3.032   7.130   3.038
 7863SOL    HW225364   3.099   7.031   3.131
 7864SOL     OW25365   8.723  10.379   3.854
 7864SOL    HW125366   8.721  10.284   3.870
 7864SOL    HW225367   8.649  10.395   3.796
 7865SOL     OW25368   9.605   6.694  10.859
 7865SOL    HW125369   9.560   6.665  10.938
 7865SOL    HW225370   9.550   6.665  10.787
 7866SOL     OW25371   2.499  13.287  11.817
 7866SOL    HW125372   2.502  13.322  11.728
 7866SOL    HW225373   2.420  13.325  11.855
 7867SOL     OW25374   4.813   4.073   2.299
 7867SOL    HW125375   4.892   4.021   2.316
 7867SOL    HW225376   4.841   4.164   2.312
 7868SOL     OW25377  14.087   4.985  11.167
 7868SOL    HW125378  14.007   5.037  11.169
 7868SOL    HW225379  14.080   4.926  11.243
 7869SOL     OW25380  10.117  14.867   3.711
 7869SOL    HW125381  10.204   0.020   3.690
 7869SOL    HW225382  10.091   0.038   3.789
 7870SOL     OW25383   5.604  12.050  14.676
 7870SOL    HW125384   5.589  12.051  14.770
 7870SOL    HW225385   5.591  12.141  14.648
 7871SOL     OW25386  12.782  13.626   4.736
 7871SOL    HW125387  12.841  13.557   4.766
 7871SOL    HW225388  12.765  13.605   4.644
 7872SOL     OW25389   0.922   2.161   7.524
 7872SOL    HW125390   0.987   2.229   7.544
 7872SOL    HW225391   0.970   2.079   7.535
 7873SOL     OW25392   0.432  10.092   2.711
 7873SOL    HW125393   0.403  10.176   2.675
 7873SOL    HW225394   0.526  10.089   2.690
 7874SOL     OW25395  11.542   8.901  11.306
 7874SOL    HW125396  11.475   8.924  11.371
 7874SOL    HW225397  11.509   8.937  11.224
 7875SOL     OW25398  13.420  12.665   0.675
 7875SOL    HW125399  13.425  12.574   0.644
 7875SOL    HW225400  13.511  12.696   0.670
 7876SOL     OW25401   9.301   4.600   3.542
 7876SOL    HW125402   9.304   4.574   3.450
 7876SOL    HW225403   9.390   4.631   3.561
 7877SOL     OW25404   3.533  12.666   4.505
 7877SOL    HW125405   3.621  12.700   4.520
 7877SOL    HW225406   3.546  12.586   4.455
 7878SOL     OW25407   3.489   4.577   5.951
 7878SOL    HW125408   3.532   4.499   5.916
 7878SOL    HW225409   3.558   4.643   5.956
 7879SOL     OW25410  14.650   4.880  10.368
 7879SOL    HW125411  14.713   4.935  10.415
 7879SOL    HW225412  14.693   4.860  10.285
 7880SOL     OW25413   8.447   3.496   9.332
 7880SOL    HW125414   8.496   3.566   9.288
 7880SOL    HW225415   8.512   3.427   9.348
 7881SOL     OW25416  12.410   5.224  14.083
 7881SOL    HW125417  12.499   5.236  14.049
 7881SOL    HW225418  12.390   5.306  14.127
 7882SOL     OW25419   4.575   0.266   6.379
 7882SOL    HW125420   4.559   0.242   6.471
 7882SOL    HW225421   4.648   0.211   6.352
 7883SOL     OW25422   5.169   8.783   0.672
 7883SOL    HW125423   5.239   8.722   0.647
 7883SOL    HW225424   5.215   8.855   0.716
 7884SOL     OW25425  14.395  10.097  11.564
 7884SOL    HW125426  14.392  10.007  11.597
 7884SOL    HW225427  14.383  10.088  11.469
 7885SOL     OW25428   9.707   7.875   8.206
 7885SOL    HW125429   9.675   7.965   8.194
 7885SOL    HW225430   9.777   7.866   8.141
 7886SOL     OW25431  12.134   5.140   1.537
 7886SOL    HW125432  12.078   5.216   1.552
 7886SOL    HW225433  12.113   5.112   1.448
 7887SOL     OW25434   3.188   3.961  10.812
 7887SOL    HW125435   3.160   3.873  10.836
 7887SOL    HW225436   3.233   3.993  10.890
 7888SOL     OW25437  10.919   5.614   7.245
 7888SOL    HW125438  10.887   5.678   7.307
 7888SOL    HW225439  10.910   5.656   7.159
 7889SOL     OW25440  13.728   0.937   5.989
 7889SOL    HW125441  13.655   0.919   6.049
 7889SOL    HW225442  13.768   0.851   5.975
 7890SOL     OW25443   6.624  10.435   5.675
 7890SOL    HW125444   6.689  10.506   5.671
 7890SOL    HW225445   6.661  10.372   5.737
 7891SOL     OW25446  11.655  11.300   8.372
 7891SOL    HW125447  11.588  11.276   8.437
 7891SOL    HW225448  11.617  11.276   8.288
 7892SOL     OW25449  10.928   4.423   3.632
 7892SOL    HW125450  10.906   4.337   3.596
 7892SOL    HW225451  10.973   4.403   3.714
 7893SOL     OW25452   1.815   1.590   3.082
 7893SOL    HW125453   1.862   1.514   3.117
 7893SOL    HW225454   1.761   1.621   3.155
 7894SOL     OW25455   9.272  14.870   5.189
 7894SOL    HW125456   9.339   0.019   5.253
 7894SOL    HW225457   9.217   0.070   5.179
 7895SOL     OW25458   9.127   4.435  14.849
 7895SOL    HW125459   9.102   4.362   0.028
 7895SOL    HW225460   9.188   4.396  14.786
 7896SOL     OW25461   4.566   5.150   9.997
 7896SOL    HW125462   4.586   5.241   9.974
 7896SOL    HW225463   4.489   5.129   9.944
 7897SOL     OW25464  14.023   6.828   4.665
 7897SOL    HW125465  14.018   6.826   4.570
 7897SOL    HW225466  14.064   6.745   4.689
 7898SOL     OW25467   5.394  11.823  13.197
 7898SOL    HW125468   5.429  11.744  13.237
 7898SOL    HW225469   5.372  11.879  13.272
 7899SOL     OW25470  11.549   1.506  13.985
 7899SOL    HW125471  11.518   1.543  14.068
 7899SOL    HW225472  11.625   1.558  13.962
 7900SOL     OW25473   4.762   4.867   4.524
 7900SOL    HW125474   4.685   4.883   4.579
 7900SOL    HW225475   4.798   4.954   4.508
 7901SOL     OW25476  11.711  13.897  10.175
 7901SOL    HW125477  11.758  13.839  10.235
 7901SOL    HW225478  11.674  13.965  10.232
 7902SOL     OW25479   4.146   3.238   4.909
 7902SOL    HW125480   4.181   3.320   4.942
 7902SOL    HW225481   4.196   3.220   4.830
 7903SOL     OW25482  10.435  13.053   9.103
 7903SOL    HW125483  10.373  12.995   9.061
 7903SOL    HW225484  10.507  13.061   9.041
 7904SOL     OW25485   5.422  13.581   0.558
 7904SOL    HW125486   5.493  13.532   0.515
 7904SOL    HW225487   5.449  13.585   0.649
 7905SOL     OW25488   5.705   8.171  13.971
 7905SOL    HW125489   5.753   8.173  14.054
 7905SOL    HW225490   5.665   8.257  13.964
 7906SOL     OW25491  10.165   4.592  13.605
 7906SOL    HW125492  10.233   4.646  13.644
 7906SOL    HW225493  10.208   4.546  13.533
 7907SOL     OW25494  11.808   9.027   8.972
 7907SOL    HW125495  11.814   9.035   8.877
 7907SOL    HW225496  11.721   9.060   8.994
 7908SOL     OW25497   4.084  12.130   8.387
 7908SOL    HW125498   4.029  12.122   8.309
 7908SOL    HW225499   4.023  12.153   8.457
 7909SOL     OW25500   1.169   6.779   5.958
 7909SOL    HW125501   1.113   6.832   5.901
 7909SOL    HW225502   1.256   6.818   5.949
 7910SOL     OW25503   9.194  13.559   8.228
 7910SOL    HW125504   9.204  13.653   8.214
 7910SOL    HW225505   9.278  13.521   8.202
 7911SOL     OW25506   0.393   8.137  11.340
 7911SOL    HW125507   0.349   8.100  11.264
 7911SOL    HW225508   0.364   8.229  11.343
 7912SOL     OW25509   6.323   3.620   5.495
 7912SOL    HW125510   6.358   3.647   5.581
 7912SOL    HW225511   6.304   3.702   5.450
 7913SOL     OW25512  11.767   5.961  14.447
 7913SOL    HW125513  11.755   5.942  14.354
 7913SOL    HW225514  11.697   5.912  14.491
 7914SOL     OW25515   8.697   5.206  14.654
 7914SOL    HW125516   8.615   5.246  14.682
 7914SOL    HW225517   8.681   5.112  14.661
 7915SOL     OW25518   2.978   8.082   2.855
 7915SOL    HW125519   2.899   8.137   2.852
 7915SOL    HW225520   2.961   8.013   2.791
 7916SOL     OW25521   1.120   8.395  14.549
 7916SOL    HW125522   1.111   8.321  14.608
 7916SOL    HW225523   1.192   8.370  14.491
 7917SOL     OW25524   1.758   3.434   0.404
 7917SOL    HW125525   1.746   3.355   0.458
 7917SOL    HW225526   1.779   3.400   0.317
 7918SOL     OW25527   4.977  14.010  10.913
 7918SOL    HW125528   4.981  14.099  10.948
 7918SOL    HW225529   4.944  13.957  10.986
 7919SOL     OW25530   5.937  10.383   7.551
 7919SOL    HW125531   5.932  10.416   7.462
 7919SOL    HW225532   6.011  10.428   7.590
 7920SOL     OW25533  12.940  12.563   8.237
 7920SOL    HW125534  12.898  12.500   8.295
 7920SOL    HW225535  12.960  12.513   8.157
 7921SOL     OW25536   5.211   2.964   4.398
 7921SOL    HW125537   5.220   2.873   4.425
 7921SOL    HW225538   5.283   2.978   4.336
 7922SOL     OW25539   5.206  10.058   2.973
 7922SOL    HW125540   5.295  10.072   3.007
 7922SOL    HW225541   5.205   9.966   2.948
 7923SOL     OW25542   6.779   7.452  13.090
 7923SOL    HW125543   6.844   7.429  13.024
 7923SOL    HW225544   6.734   7.369  13.109
 7924SOL     OW25545   3.208   7.902   5.031
 7924SOL    HW125546   3.157   7.857   5.098
 7924SOL    HW225547   3.236   7.833   4.971
 7925SOL     OW25548   1.666   3.388  12.796
 7925SOL    HW125549   1.728   3.377  12.724
 7925SOL    HW225550   1.585   3.348  12.764
 7926SOL     OW25551   3.727  13.464   0.662
 7926SOL    HW125552   3.794  13.472   0.730
 7926SOL    HW225553   3.749  13.532   0.598
 7927SOL     OW25554  12.293   2.753   5.999
 7927SOL    HW125555  12.375   2.802   6.015
 7927SOL    HW225556  12.322   2.668   5.966
 7928SOL     OW25557   3.822   4.193  12.814
 7928SOL    HW125558   3.797   4.250  12.741
 7928SOL    HW225559   3.889   4.241  12.861
 7929SOL     OW25560   6.163   4.064  11.440
 7929SOL    HW125561   6.237   4.102  11.486
 7929SOL    HW225562   6.087   4.082  11.496
 7930SOL     OW25563  14.699  12.321   3.588
 7930SOL    HW125564  14.713  12.261   3.514
 7930SOL    HW225565  14.657  12.268   3.655
 7931SOL     OW25566   0.324  11.822   4.005
 7931SOL    HW125567   0.281  11.898   3.966
 7931SOL    HW225568   0.253  11.771   4.044
 7932SOL     OW25569  13.916  11.235   4.790
 7932SOL    HW125570  13.999  11.255   4.746
 7932SOL    HW225571  13.938  11.165   4.852
 7933SOL     OW25572  13.345   0.052  14.807
 7933SOL    HW125573  13.418   0.020  14.753
 7933SOL    HW225574  13.277   0.076  14.744
 7934SOL     OW25575  12.980   6.038   3.932
 7934SOL    HW125576  12.930   6.009   3.856
 7934SOL    HW225577  13.032   6.112   3.899
 7935SOL     OW25578   5.142   1.910  14.523
 7935SOL    HW125579   5.156   1.976  14.455
 7935SOL    HW225580   5.229   1.890  14.556
 7936SOL     OW25581   0.877  12.919  13.788
 7936SOL    HW125582   0.788  12.902  13.820
 7936SOL    HW225583   0.886  12.861  13.712
 7937SOL     OW25584   0.151  12.536  11.358
 7937SOL    HW125585   0.101  12.459  11.383
 7937SOL    HW225586   0.177  12.576  11.441
 7938SOL     OW25587  13.073   2.862   1.551
 7938SOL    HW125588  13.063   2.891   1.641
 7938SOL    HW225589  13.119   2.934   1.507
 7939SOL     OW25590  11.349   2.684   7.003
 7939SOL    HW125591  11.406   2.723   7.069
 7939SOL    HW225592  11.359   2.741   6.927
 7940SOL     OW25593   7.559  13.047   7.112
 7940SOL    HW125594   7.637  13.102   7.120
 7940SOL    HW225595   7.581  12.983   7.044
 7941SOL     OW25596   3.926  11.015   3.849
 7941SOL    HW125597   3.954  11.098   3.888
 7941SOL    HW225598   3.838  11.000   3.883
 7942SOL     OW25599   9.684   8.343   7.223
 7942SOL    HW125600   9.634   8.282   7.170
 7942SOL    HW225601   9.760   8.293   7.253
 7943SOL     OW25602  12.584   6.937   3.575
 7943SOL    HW125603  12.640   6.896   3.509
 7943SOL    HW225604  12.502   6.955   3.530
 7944SOL     OW25605  13.623  12.689  12.112
 7944SOL    HW125606  13.617  12.745  12.190
 7944SOL    HW225607  13.578  12.738  12.044
 7945SOL     OW25608  11.955   4.089   4.033
 7945SOL    HW125609  11.883   4.070   3.974
 7945SOL    HW225610  11.956   4.185   4.040
 7946SOL     OW25611  14.657   6.797   1.174
 7946SOL    HW125612  14.647   6.886   1.207
 7946SOL    HW225613  14.736   6.764   1.216
 7947SOL     OW25614   9.725   6.037   5.208
 7947SOL    HW125615   9.665   5.963   5.212
 7947SOL    HW225616   9.737   6.054   5.115
 7948SOL     OW25617   1.650  13.110   1.878
 7948SOL    HW125618   1.721  13.100   1.942
 7948SOL    HW225619   1.595  13.179   1.913
 7949SOL     OW25620  11.813   7.810   5.293
 7949SOL    HW125621  11.869   7.872   5.339
 7949SOL    HW225622  11.852   7.802   5.206
 7950SOL     OW25623   7.968  13.794  11.884
 7950SOL    HW125624   7.890  13.849  11.882
 7950SOL    HW225625   7.985  13.781  11.978
 7951SOL     OW25626   6.596  11.404  11.339
 7951SOL    HW125627   6.620  11.456  11.416
 7951SOL    HW225628   6.539  11.335  11.373
 7952SOL     OW25629   2.580   3.243   6.192
 7952SOL    HW125630   2.575   3.338   6.202
 7952SOL    HW225631   2.661   3.229   6.142
 7953SOL     OW25632   3.912   2.719   3.228
 7953SOL    HW125633   3.869   2.745   3.146
 7953SOL    HW225634   3.939   2.802   3.268
 7954SOL     OW25635   0.564  13.491  10.007
 7954SOL    HW125636   0.521  13.487   9.922
 7954SOL    HW225637   0.616  13.411  10.012
 7955SOL     OW25638   6.764  11.131   0.267
 7955SOL    HW125639   6.742  11.047   0.308
 7955SOL    HW225640   6.694  11.190   0.294
 7956SOL     OW25641   3.526   8.734   7.259
 7956SOL    HW125642   3.564   8.796   7.197
 7956SOL    HW225643   3.599   8.709   7.316
 7957SOL     OW25644   2.054   9.379   7.925
 7957SOL    HW125645   1.959   9.375   7.938
 7957SOL    HW225646   2.090   9.321   7.992
 7958SOL     OW25647   5.899  12.643  11.558
 7958SOL    HW125648   5.942  12.558  11.564
 7958SOL    HW225649   5.956  12.694  11.500
 7959SOL     OW25650  14.387   1.932   4.603
 7959SOL    HW125651  14.354   2.018   4.630
 7959SOL    HW225652  14.455   1.952   4.538
 7960SOL     OW25653  10.269   6.660  10.282
 7960SOL    HW125654  10.347   6.618  10.246
 7960SOL    HW225655  10.247   6.729  10.219
 7961SOL     OW25656   1.435   6.802  12.445
 7961SOL    HW125657   1.359   6.840  12.488
 7961SOL    HW225658   1.467   6.871  12.387
 7962SOL     OW25659   2.519   9.462   0.962
 7962SOL    HW125660   2.513   9.389   1.024
 7962SOL    HW225661   2.437   9.510   0.973
 7963SOL     OW25662   2.541   6.836   6.649
 7963SOL    HW125663   2.522   6.891   6.574
 7963SOL    HW225664   2.573   6.896   6.716
 7964SOL     OW25665  13.708   4.575   7.848
 7964SOL    HW125666  13.774   4.571   7.917
 7964SOL    HW225667  13.732   4.653   7.797
 7965SOL     OW25668   5.364   0.465   2.523
 7965SOL    HW125669   5.400   0.418   2.597
 7965SOL    HW225670   5.295   0.407   2.489
 7966SOL     OW25671   1.153   9.205   8.312
 7966SOL    HW125672   1.075   9.218   8.259
 7966SOL    HW225673   1.206   9.283   8.297
 7967SOL     OW25674   3.576  11.842   0.052
 7967SOL    HW125675   3.588  11.844  14.835
 7967SOL    HW225676   3.527  11.761   0.068
 7968SOL     OW25677   1.888   6.444   1.922
 7968SOL    HW125678   1.804   6.473   1.959
 7968SOL    HW225679   1.937   6.525   1.910
 7969SOL     OW25680   7.869   5.870   0.154
 7969SOL    HW125681   7.955   5.910   0.166
 7969SOL    HW225682   7.811   5.943   0.133
 7970SOL     OW25683   6.357  11.538   0.452
 7970SOL    HW125684   6.427  11.604   0.455
 7970SOL    HW225685   6.283  11.579   0.497
 7971NA      NA25686   7.557   7.645   4.224
 7972NA      NA25687  13.277   9.150   1.599
 7973NA      NA25688  10.883  11.574  11.366
 7974NA      NA25689   4.934   1.141   6.059
 7975NA      NA25690   7.095  11.096   1.172
 7976NA      NA25691   7.351   8.188   3.881
 7977NA      NA25692   4.582  13.519  14.600
 7978NA      NA25693  10.395   9.437   3.546
 7979NA      NA25694   5.691   8.011  13.774
 7980NA      NA25695   8.524  11.087   1.516
 7981NA      NA25696   7.518  11.884   2.076
 7982NA      NA25697   8.220   9.191   0.737
 7983NA      NA25698  10.257   8.639   9.099
 7984NA      NA25699   9.001   8.785   7.454
 7985NA      NA25700   1.344   5.419  14.696
 7986NA      NA25701   0.589   0.138   1.790
 7987NA      NA25702   9.918  12.965  13.744
 7988NA      NA25703  10.386   8.897   7.168
 7989NA      NA25704   9.413   8.397   4.836
 7990NA      NA25705  11.504   4.770   7.629
 7991NA      NA25706   7.498   9.749   3.489
 7992NA      NA25707   5.751   8.206   4.885
 7993NA      NA25708   9.914   9.428   1.825
 7994NA      NA25709   1.387   7.460   9.870
 7995NA      NA25710   7.784   8.971   2.555
 7996NA      NA25711   9.745   5.459   7.135
 7997NA      NA25712   9.817   8.302   6.029
 7998NA      NA25713   8.357   9.015   9.353
 7999NA      NA25714   8.274   8.359   1.753
 8000NA      NA25715  10.982   6.173  10.802
 8001NA      NA25716  10.151   9.630   7.511
 8002NA      NA25717   6.062   3.623  11.672
 8003NA      NA25718   8.985   7.308   1.354
 8004NA      NA25719  12.705  11.602  10.050
 8005NA      NA25720   6.375   7.903   4.209
 8006NA      NA25721   8.052  13.813  13.121
 8007NA      NA25722   8.478   6.567   6.019
 8008NA      NA25723   1.157   9.709  13.862
 8009NA      NA25724   8.894   7.334   7.655
 8010NA      NA25725   9.589  10.991   4.289
 8011NA      NA25726   4.844   1.378  14.629
 8012NA      NA25727   8.173   8.460  10.148
 8013NA      NA25728   9.969   7.339   8.260
 8014NA      NA25729   9.068   6.750   4.676
 8015NA      NA25730   7.825  10.481   3.689
 8016NA      NA25731  11.502   0.082   2.295
 8017NA      NA25732   7.632   8.926   3.567
 8018NA      NA25733  11.900  12.075   0.586
 8019NA      NA25734  10.243   7.472   9.507
 8020NA      NA25735   2.103   6.524   8.346
 8021NA      NA25736   8.226  10.877   3.264
 8022NA      NA25737  12.111  12.648   5.866
 8023NA      NA25738   9.106   9.589   5.283
 8024NA      NA25739   5.344   5.655   9.431
 8025NA      NA25740   8.065   7.852   7.120
 8026NA      NA25741   9.199   9.844   6.782
 8027NA      NA25742   5.730   5.053   8.848
 8028NA      NA25743   2.590  12.826   4.097
 8029NA      NA25744  11.135   6.534   8.112
  14.87793  14.87793  14.87793
